G2.5Ocore-PETIM in water
217050
    1aaa     O1    1   3.594   8.463   9.008  0.1829  0.5996  0.4960
    1aaa     C1    2   3.474   8.398   9.066 -0.1079  0.4421 -0.5159
    1aaa     H1    3   3.409   8.464   9.124  0.9013  2.4244 -1.5490
    1aaa     H2    4   3.510   8.323   9.138 -3.3680  0.2282  1.0519
    1aaa     C2    5   3.653   8.563   9.087  0.7484 -0.9104  0.4965
    1aaa     H3    6   3.680   8.521   9.184  1.3634  0.5621  0.9920
    1aaa     H4    7   3.580   8.644   9.102  0.9714 -0.9886  2.2061
    1aaa     C3    8   3.392   8.315   8.968  0.3350 -0.4293 -0.0045
    1aaa     H5    9   3.456   8.232   8.934  0.6872  0.3475 -1.3241
    1aaa     H6   10   3.367   8.379   8.882  2.8686 -0.3570 -0.7606
    1aaa     C4   11   3.789   8.619   9.021  0.4219  0.0459 -0.2271
    1aaa     H7   12   3.838   8.523   9.000  0.3737 -0.2896  1.1077
    1aaa     H8   13   3.859   8.669   9.089 -0.9369 -0.2166  1.4267
    1aaa     C5   14   3.263   8.267   9.028 -0.1784  0.5517  0.4689
    1aaa     H9   15   3.233   8.324   9.116 -0.0495 -0.7954  1.4213
    1aaa    H10   16   3.182   8.271   8.955  0.9286 -3.1221 -1.1736
    1aaa     C6   17   3.760   8.695   8.894 -0.3455  0.0849  0.2938
    1aaa    H11   18   3.693   8.779   8.915  0.6146  0.9287  0.0282
    1aaa    H12   19   3.710   8.627   8.825  0.6267  1.7490 -2.1999
    1aaa     N1   20   3.259   8.129   9.077 -0.6292 -0.6468 -0.4957
    1aaa     N2   21   3.888   8.751   8.832 -0.2285  0.1603  0.3124
    1aaa     C7   22   3.848   8.859   8.725 -0.0499 -1.0423  0.0304
    1aaa    H13   23   3.923   8.861   8.645  0.2569  0.6250  0.3360
    1aaa    H14   24   3.755   8.827   8.677  0.4227 -0.0016 -1.6795
    1aaa     C8   25   3.955   8.633   8.766 -0.1099  0.5490 -0.2853
    1aaa    H15   26   3.972   8.556   8.841 -0.0648  0.1506 -0.7001
    1aaa    H16   27   3.887   8.593   8.690  0.5954  2.3225 -1.9269
    1aaa     C9   28   3.297   8.134   9.221 -0.1663 -0.7613 -0.5208
    1aaa    H17   29   3.391   8.189   9.226 -1.3009  1.1751  1.5517
    1aaa    H18   30   3.223   8.187   9.281  1.2199  0.1536  0.4461
    1aaa    C10   31   3.121   8.082   9.068 -0.5905 -0.0464 -0.5538
    1aaa    H19   32   3.094   8.038   9.164 -0.1395 -0.8430 -0.7769
    1aaa    H20   33   3.055   8.168   9.060 -0.2296  0.3623  0.7079
    1aaa    C11   34   3.835   8.999   8.794  0.1843 -0.1416 -0.2958
    1aaa    H21   35   3.750   8.998   8.863  1.4161 -1.8467  1.3120
    1aaa    H22   36   3.926   9.019   8.853  0.6296 -1.1340 -0.6194
    1aaa    C12   37   4.093   8.648   8.702  0.1931  0.1188  0.2384
    1aaa    H23   38   4.088   8.731   8.630  2.0898 -0.7350 -0.9610
    1aaa    H24   39   4.163   8.680   8.779 -1.9268  1.0666  1.8958
    1aaa    C13   40   3.329   7.998   9.287 -0.2786 -0.6520  0.3642
    1aaa    H25   41   3.239   7.937   9.301  0.0443 -0.6417  2.7666
    1aaa    H26   42   3.399   7.943   9.221 -0.4499  0.2545 -0.6015
    1aaa    C14   43   3.088   7.992   8.945 -0.1504 -0.1159  0.6879
    1aaa    H27   44   3.111   8.047   8.853  1.7904 -1.6197  0.1956
    1aaa    H28   45   3.151   7.903   8.949  1.8170  1.0885 -1.4423
    1aaa    C15   46   2.935   7.951   8.954 -0.4664 -0.6570  0.1604
    1aaa    H29   47   2.935   7.875   9.032  1.5033  0.6712  1.5565
    1aaa    H30   48   2.861   8.025   8.986 -1.2650 -0.1128 -2.6457
    1aaa    C16   49   3.395   8.024   9.424 -0.5100 -0.2609 -0.1657
    1aaa    H31   50   3.396   7.925   9.471 -0.7879 -1.0017 -1.6519
    1aaa    H32   51   3.500   8.057   9.421 -0.0250 -1.7634 -2.7818
    1aaa    C17   52   4.135   8.519   8.628  0.5944 -0.3906 -0.1137
    1aaa    H33   53   4.115   8.437   8.697 -1.3487  1.2817  1.3983
    1aaa    H34   54   4.084   8.501   8.532  0.6618 -0.5101 -0.1280
    1aaa    C18   55   3.807   9.112   8.693  0.1723 -0.5474 -0.1538
    1aaa    H35   56   3.865   9.090   8.603 -0.1270  0.4404 -0.5971
    1aaa    H36   57   3.699   9.104   8.674  0.1128 -1.2180  0.4094
    1aaa    H38   58   3.325   8.070   9.024 -0.0770  1.2151 -2.0137
    1aaa    H37   59   3.946   8.795   8.905  0.2300  0.6153 -0.3146
    2bbb     N1   60   2.688   7.777   8.415 -0.0738  0.7843 -0.0035
    2bbb     C1   61   2.767   7.639   8.426 -0.0481 -0.0578 -0.1587
    2bbb     H1   62   2.740   7.596   8.523 -1.8007 -1.1351 -1.0768
    2bbb     H2   63   2.873   7.663   8.414 -0.5822  2.1934 -0.8443
    2bbb     C2   64   2.541   7.756   8.382  0.6719  0.9458  0.1358
    2bbb     H3   65   2.535   7.712   8.283 -0.0261 -0.1661  0.6529
    2bbb     H4   66   2.495   7.854   8.364 -0.2601  0.7204  1.1343
    2bbb     C3   67   2.712   7.854   8.550 -0.0471  0.1305 -0.3957
    2bbb     H5   68   2.687   7.793   8.636  0.5162 -0.5697 -0.7197
    2bbb     H6   69   2.644   7.939   8.560 -2.1590 -1.5373  0.2622
    2bbb     C4   70   2.849   7.917   8.580  0.5819  1.0267 -0.3200
    2bbb     H7   71   2.867   7.991   8.501 -0.0633  1.4740 -0.0567
    2bbb     H8   72   2.934   7.848   8.567  2.1043  2.6874  0.4040
    2bbb     C5   73   2.752   7.532   8.313 -0.4190  0.0285 -0.0540
    2bbb     H9   74   2.802   7.587   8.232  1.9093 -1.4376  0.2954
    2bbb    H10   75   2.647   7.517   8.284 -0.8479  2.1976  0.2147
    2bbb     C6   76   2.462   7.682   8.497 -0.0986  0.1828 -0.0804
    2bbb    H11   77   2.478   7.741   8.588  0.8723  0.4566 -0.4176
    2bbb    H12   78   2.514   7.587   8.518 -0.3192 -0.4805 -2.2721
    2bbb     C7   79   2.861   7.991   8.719 -0.4038 -0.3051  0.2111
    2bbb    H13   80   2.773   8.051   8.747  0.1515  0.2701  0.7557
    2bbb    H14   81   2.949   8.054   8.705  0.4008 -1.5351 -0.4420
    2bbb     C8   82   2.304   7.659   8.478  0.3517 -0.2329 -0.7959
    2bbb    H15   83   2.265   7.587   8.552  1.7624  1.5593  1.8644
    2bbb    H16   84   2.246   7.745   8.513 -0.3311 -1.3050  0.8782
    2bbb     C9   85   2.822   7.401   8.341  0.0172  0.6481  1.0464
    2bbb    H17   86   2.792   7.364   8.440 -3.2856 -0.8911 -0.3886
    2bbb    H18   87   2.931   7.413   8.341  0.0912  0.0335  0.3142
    2bbb     O1   88   2.903   7.894   8.827 -0.3037  0.2099  0.3257
    2bbb    H19   89   2.737   7.822   8.337  3.2030 -1.8871  0.3182
    3bbb     N1   90   3.498   8.050   9.988 -0.5920  0.0742  0.0806
    3bbb     C1   91   3.361   8.008  10.049  0.8224  0.0464 -0.4886
    3bbb     H1   92   3.328   7.909  10.015  0.2327 -0.2159  0.7677
    3bbb     H2   93   3.286   8.080  10.019 -0.4578 -0.1380  2.0099
    3bbb     C2   94   3.587   7.930   9.963 -0.5368  0.1600 -0.0551
    3bbb     H3   95   3.538   7.856   9.899 -0.6683 -0.0193  0.2544
    3bbb     H4   96   3.604   7.876  10.056  1.0100  0.4591 -0.1466
    3bbb     C3   97   3.479   8.133   9.853 -0.6063  0.1512 -0.9223
    3bbb     H5   98   3.579   8.169   9.830 -0.4633  1.7162  1.6741
    3bbb     H6   99   3.433   8.227   9.883  0.6755  0.5044  0.0150
    3bbb     C4  100   3.414   8.062   9.728 -0.4174 -0.4325 -0.1137
    3bbb     H7  101   3.328   8.001   9.762 -3.4853  0.5628 -5.0489
    3bbb     H8  102   3.496   7.999   9.691  0.8115 -0.3519  2.2600
    3bbb     C5  103   3.354   8.020  10.206  0.3362 -1.0545  0.3728
    3bbb     H9  104   3.361   8.123  10.242  0.1912 -1.4651  1.6117
    3bbb    H10  105   3.440   7.974  10.255  0.6254  0.1956  1.0498
    3bbb     C6  106   3.730   7.959   9.913 -0.8937  0.3238  0.4403
    3bbb    H11  107   3.764   8.046   9.970 -3.0118  1.7152 -0.2636
    3bbb    H12  108   3.729   7.998   9.810 -0.3929  0.0897  0.3447
    3bbb     C7  109   3.362   8.167   9.619  0.1678  0.0132  0.0563
    3bbb    H13  110   3.439   8.243   9.600 -0.0539  0.3587  0.5329
    3bbb    H14  111   3.283   8.220   9.672 -0.2682 -1.0379  0.4772
    3bbb     C8  112   3.824   7.837   9.919 -0.8850 -0.4151 -0.0779
    3bbb    H15  113   3.773   7.754   9.866 -0.6621 -0.4091 -0.3047
    3bbb    H16  114   3.919   7.862   9.871  1.8230 -4.2492  2.6815
    3bbb     C9  115   3.225   7.958  10.269 -0.4607  0.1828 -0.0560
    3bbb    H17  116   3.229   7.849  10.264 -2.9380 -0.1696  2.9394
    3bbb    H18  117   3.134   7.994  10.221 -0.2437 -0.0715 -0.6672
    3bbb     O1  118   3.308   8.108   9.496  0.0775 -0.3882  0.2284
    3bbb    H19  119   3.539   8.111  10.060 -2.2516  0.3655  0.8445
    4bbb     N1  120   4.692   8.360   8.376  0.3491  0.4241 -0.1337
    4bbb     C1  121   4.771   8.383   8.503 -0.1800 -0.0528  0.7997
    4bbb     H1  122   4.804   8.286   8.540  0.7509 -0.8974 -2.0543
    4bbb     H2  123   4.711   8.420   8.587 -0.1743 -1.4811  1.4658
    4bbb     C2  124   4.749   8.243   8.301 -0.2538 -0.8455 -0.0784
    4bbb     H3  125   4.700   8.155   8.342 -1.9570 -1.2387 -2.6747
    4bbb     H4  126   4.858   8.232   8.304  0.0253  0.3425 -2.8423
    4bbb     C3  127   4.543   8.336   8.414 -0.4485 -0.1663  0.6193
    4bbb     H5  128   4.535   8.255   8.486 -3.1807  0.0260  0.6332
    4bbb     H6  129   4.492   8.307   8.322 -0.2500 -3.0157  1.3009
    4bbb     C4  130   4.470   8.449   8.486 -0.5203  0.1308  0.2776
    4bbb     H7  131   4.470   8.541   8.427  1.2659  0.5307  0.8290
    4bbb     H8  132   4.527   8.482   8.574  0.5250 -1.7128  0.3418
    4bbb     C5  133   4.899   8.483   8.497 -0.3327 -0.2749 -0.4154
    4bbb     H9  134   4.900   8.536   8.593  0.4794  2.7693 -1.9573
    4bbb    H10  135   4.883   8.557   8.417 -0.4382 -0.4341 -0.5420
    4bbb     C6  136   4.718   8.239   8.150 -0.3880 -0.1866  0.3066
    4bbb    H11  137   4.741   8.335   8.103  1.0191 -0.4166  0.4720
    4bbb    H12  138   4.612   8.224   8.127 -0.6196  0.3581  1.0142
    4bbb     C7  139   4.331   8.415   8.550 -0.0585 -0.3838  0.4305
    4bbb    H13  140   4.350   8.336   8.623 -1.3583 -2.4421 -1.3473
    4bbb    H14  141   4.275   8.380   8.463  0.4088  1.8985 -0.8917
    4bbb     C8  142   4.785   8.128   8.074  0.3239 -0.1334 -0.2296
    4bbb    H15  143   4.777   8.039   8.137 -1.7046 -0.0811 -0.3344
    4bbb    H16  144   4.724   8.110   7.984 -1.0923 -0.0226  0.6918
    4bbb     C9  145   5.024   8.407   8.470 -0.2438 -0.5649 -0.1460
    4bbb    H17  146   5.109   8.466   8.506  0.2148  0.0467 -2.1209
    4bbb    H18  147   5.040   8.384   8.364  0.5010  2.7849 -0.8655
    4bbb     O1  148   4.277   8.524   8.624 -0.0701 -0.1322  0.5853
    4bbb    H19  149   4.705   8.438   8.310  0.2415 -0.3547 -1.0836
    5bbb     N1  150   3.826   9.732   8.716 -0.2114 -0.1943  0.0538
    5bbb     C1  151   3.969   9.764   8.682  0.1672  0.0407  0.8356
    5bbb     H1  152   3.975   9.745   8.575 -0.1960 -1.4698  1.0596
    5bbb     H2  153   4.035   9.694   8.734  0.2184 -1.7132 -1.4535
    5bbb     C2  154   3.722   9.831   8.647 -0.0658 -0.2722  0.0729
    5bbb     H3  155   3.747   9.930   8.688 -0.7058  0.5495 -1.4586
    5bbb     H4  156   3.619   9.810   8.676 -2.0750  3.7277 -3.1552
    5bbb     C3  157   3.799   9.594   8.659  0.6831 -0.0921 -0.4939
    5bbb     H5  158   3.840   9.589   8.557  0.9579  0.8833 -0.4418
    5bbb     H6  159   3.691   9.583   8.652  0.7426 -0.5266 -0.7921
    5bbb     C4  160   3.846   9.476   8.736  0.3707  0.7659 -0.1895
    5bbb     H7  161   3.804   9.484   8.837 -2.2261 -1.8566 -0.9315
    5bbb     H8  162   3.954   9.481   8.752  0.2178  1.4009  0.7590
    5bbb     C5  163   4.008   9.907   8.732  0.2059  0.7871 -0.0065
    5bbb     H9  164   3.991   9.915   8.840 -1.3491  0.6482 -0.2232
    5bbb    H10  165   3.941   9.979   8.682  1.4391  1.3543 -0.8999
    5bbb     C6  166   3.725   9.847   8.492  0.3048 -0.0456  0.2588
    5bbb    H11  167   3.722   9.752   8.438  1.2861  0.4512 -0.7277
    5bbb    H12  168   3.810   9.911   8.464 -0.1778 -0.3813 -2.2460
    5bbb     C7  169   3.804   9.351   8.666 -0.4319 -0.7542  0.8236
    5bbb    H13  170   3.854   9.354   8.569 -0.8179 -0.4802  0.6298
    5bbb    H14  171   3.696   9.358   8.647 -0.1293 -0.0846 -0.8041
    5bbb     C8  172   3.603   9.934   8.453 -0.4097 -1.0047 -0.8871
    5bbb    H15  173   3.514   9.871   8.457 -2.1514  1.2505 -2.1239
    5bbb    H16  174   3.602  10.015   8.527  1.8379 -1.5307 -0.1946
    5bbb     C9  175   4.155   9.936   8.701 -0.6095  0.9429  0.4779
    5bbb    H17  176   4.165   9.917   8.594  2.5689 -1.5145  1.0745
    5bbb    H18  177   4.217   9.864   8.756 -0.0268  0.8271 -0.3229
    5bbb     O1  178   3.846   9.238   8.750  0.0360  0.7159 -0.3681
    5bbb    H19  179   3.807   9.732   8.818  0.9607 -0.5119  0.2771
    6bbb     N1  180   1.986   7.299   8.300  0.3133  0.0910 -0.0081
    6bbb     C1  181   1.845   7.352   8.335 -0.4893 -0.3057 -0.0311
    6bbb     H1  182   1.766   7.277   8.340 -0.9393  0.2043  0.6604
    6bbb     H2  183   1.824   7.419   8.252 -3.3269 -0.1169  0.7461
    6bbb     C2  184   1.960   7.221   8.180  0.8340 -0.5902 -0.1279
    6bbb     H3  185   1.915   7.294   8.114  1.0857  0.4179  0.7862
    6bbb     H4  186   1.888   7.147   8.215  0.2194  0.8520  1.7831
    6bbb     C3  187   2.092   7.406   8.287 -0.4709  0.1159 -0.2340
    6bbb     H5  188   2.055   7.501   8.324 -0.2465 -0.5623  1.8174
    6bbb     H6  189   2.106   7.428   8.181  0.0634 -2.0680 -0.6728
    6bbb     C4  190   2.235   7.380   8.337  0.0563 -0.1777 -0.4584
    6bbb     H7  191   2.271   7.279   8.314 -1.7105 -0.7226 -0.9281
    6bbb     H8  192   2.229   7.388   8.446 -1.5529 -1.9840 -0.3703
    6bbb     C5  193   1.850   7.442   8.461  0.4548  0.0903  0.6985
    6bbb     H9  194   1.939   7.505   8.475  0.7105  0.1170 -0.9127
    6bbb    H10  195   1.856   7.378   8.550  0.1760  3.0397  3.0058
    6bbb     C6  196   2.073   7.157   8.099 -0.4146  0.2894  1.1088
    6bbb    H11  197   2.152   7.226   8.068 -0.0407 -0.1197  1.1446
    6bbb    H12  198   2.037   7.116   8.003 -0.0576  1.5255  0.4305
    6bbb     C7  199   2.338   7.493   8.299  0.6961 -0.3540 -0.4318
    6bbb    H13  200   2.343   7.488   8.190  0.1140  0.1689 -0.4913
    6bbb    H14  201   2.436   7.475   8.345 -0.0010  0.5693  1.5484
    6bbb     C8  202   2.135   7.047   8.177  0.3085  0.3037 -0.8693
    6bbb    H15  203   2.220   7.010   8.119 -1.2628 -0.5762 -2.7006
    6bbb    H16  204   2.180   7.089   8.268  0.9717  2.5743 -2.1940
    6bbb     C9  205   1.722   7.541   8.469 -0.0477  1.3024  0.1375
    6bbb    H17  206   1.716   7.619   8.392  1.5738  2.7331  1.3805
    6bbb    H18  207   1.702   7.597   8.561  0.4500  1.8797 -0.0957
    6bbb     O1  208   2.284   7.623   8.344 -0.6396  0.2860  0.6927
    6bbb    H19  209   2.012   7.231   8.374  0.2095  0.5957  0.5010
    7bbb     N1  210   2.949   7.168   7.937  0.0972  0.0836  0.2496
    7bbb     C1  211   3.083   7.217   7.899  0.3665  0.4435  0.4111
    7bbb     H1  212   3.078   7.249   7.795  1.2818 -1.2333 -0.1871
    7bbb     H2  213   3.152   7.133   7.896  2.4048  2.0510  0.3122
    7bbb     C2  214   2.894   7.104   7.812 -0.0710  0.4621 -0.3217
    7bbb     H3  215   2.935   7.003   7.809  0.8632  0.7275  1.6622
    7bbb     H4  216   2.935   7.155   7.725 -0.8737  1.8234  0.0615
    7bbb     C3  217   2.952   7.067   8.043 -0.0398  0.1873 -0.1297
    7bbb     H5  218   3.050   7.079   8.090 -0.2864  0.2780  0.3671
    7bbb     H6  219   2.959   6.973   7.988  0.1436 -0.4160  0.8960
    7bbb     C4  220   2.845   7.068   8.158  0.0724  0.7092 -1.0359
    7bbb     H7  221   2.869   6.977   8.214 -1.7968  1.3738  0.9650
    7bbb     H8  222   2.739   7.073   8.132 -0.7150 -0.1585  1.7175
    7bbb     C5  223   3.133   7.328   7.984  0.0149  0.2912 -0.2862
    7bbb     H9  224   3.156   7.292   8.085 -0.2203 -3.0958 -1.3284
    7bbb    H10  225   3.054   7.404   7.984  0.2957  0.5895 -0.7446
    7bbb     C6  226   2.741   7.097   7.803 -0.0444 -0.1558 -0.2679
    7bbb    H11  227   2.702   7.095   7.906  0.8385 -1.5694  0.0693
    7bbb    H12  228   2.705   7.005   7.757 -1.5760  0.2514  0.0571
    7bbb     C7  229   2.874   7.181   8.263  0.1756 -0.0072  0.0550
    7bbb    H13  230   2.980   7.209   8.262  0.1651  0.0408  0.2299
    7bbb    H14  231   2.859   7.142   8.364 -0.0528  0.9922  0.4206
    7bbb     C8  232   2.685   7.221   7.723  0.0309  0.6261  0.3060
    7bbb    H15  233   2.698   7.306   7.790  1.0042  0.7887 -0.0876
    7bbb    H16  234   2.744   7.240   7.633 -0.9157  0.5331 -0.3584
    7bbb     C9  235   3.262   7.382   7.910 -0.3397  0.1395  0.3463
    7bbb    H17  236   3.310   7.465   7.964 -0.0322  0.1007  0.1379
    7bbb    H18  237   3.234   7.438   7.819  1.8526  1.1939  0.2467
    7bbb     O1  238   2.788   7.298   8.240 -0.3884 -0.1011  0.2857
    7bbb    H19  239   2.888   7.244   7.968  0.5532  0.6304 -0.1770
    8bbb     N1  240   3.949   7.682  10.468 -0.2810  0.3814  0.3197
    8bbb     C1  241   4.022   7.550  10.489  0.1442 -0.4610 -0.0170
    8bbb     H1  242   3.963   7.468  10.449  1.5745 -2.7295  2.1881
    8bbb     H2  243   4.025   7.522  10.595  0.4954  1.5404  0.5457
    8bbb     C2  244   4.017   7.796  10.552 -0.9796  0.6086 -0.1332
    8bbb     H3  245   4.121   7.809  10.520 -1.0682  1.5493 -0.0588
    8bbb     H4  246   4.025   7.772  10.658 -0.3724 -1.5322 -0.6106
    8bbb     C3  247   3.959   7.724  10.316  0.4516 -0.3535 -0.0877
    8bbb     H5  248   4.064   7.742  10.295  0.4769 -0.0158  0.3069
    8bbb     H6  249   3.891   7.805  10.290 -0.7974 -1.4898 -0.4549
    8bbb     C4  250   3.907   7.618  10.214 -0.2402  0.1272  0.0884
    8bbb     H7  251   3.802   7.597  10.240  0.5469 -3.3279  1.0106
    8bbb     H8  252   3.948   7.517  10.207  0.4842  0.2196  2.3465
    8bbb     C5  253   4.175   7.541  10.433 -0.0975 -0.0217  0.5138
    8bbb     H9  254   4.225   7.632  10.468 -1.6444  1.8747 -1.8477
    8bbb    H10  255   4.170   7.544  10.323  1.2581  0.8524  0.4605
    8bbb     C6  256   3.951   7.937  10.545 -0.2199 -0.6761 -0.0083
    8bbb    H11  257   3.842   7.934  10.552 -0.1507 -0.4083  1.6243
    8bbb    H12  258   3.972   7.976  10.445  0.1493 -1.8101 -0.3867
    8bbb     C7  259   3.909   7.671  10.064  0.2340 -0.1553 -0.4385
    8bbb    H13  260   3.862   7.591  10.007  0.1796 -0.4782  0.0474
    8bbb    H14  261   4.013   7.679  10.032  0.1551  2.3836 -0.2580
    8bbb     C8  262   4.005   8.040  10.648 -0.1069  0.2465 -0.2910
    8bbb    H15  263   4.115   8.040  10.646 -0.0877 -1.4754  0.0909
    8bbb    H16  264   3.964   8.138  10.620 -1.5314  0.4328  2.1539
    8bbb     C9  265   4.239   7.408  10.471 -0.2527  0.2944 -0.5445
    8bbb    H17  266   4.296   7.410  10.565 -0.1087 -4.8703 -0.2713
    8bbb    H18  267   4.322   7.386  10.404 -0.3442  4.6704 -2.4694
    8bbb     O1  268   3.841   7.802  10.056 -0.4643  0.2791 -0.3338
    8bbb    H19  269   3.852   7.673  10.503 -0.5581 -0.0915 -0.5387
    9bbb     N1  270   2.999   8.074  10.810  0.3571  0.3201  0.1717
    9bbb     C1  271   3.119   8.081  10.905 -0.8345  0.1523  0.0797
    9bbb     H1  272   3.093   8.120  11.004  0.8390 -0.0928  0.6416
    9bbb     H2  273   3.189   8.158  10.870 -0.2096  0.1282  1.2361
    9bbb     C2  274   2.922   8.206  10.828 -1.0069 -0.2507  0.0001
    9bbb     H3  275   2.965   8.272  10.753 -0.0700 -1.3627 -0.4548
    9bbb     H4  276   2.958   8.248  10.922 -0.4374 -0.4907 -0.1109
    9bbb     C3  277   3.047   8.045  10.666 -0.1907 -0.6818  0.9846
    9bbb     H5  278   2.949   8.039  10.618  0.5659 -0.4423 -0.6817
    9bbb     H6  279   3.096   7.948  10.656  0.8678 -0.0002 -1.1755
    9bbb     C4  280   3.136   8.144  10.588 -0.5977  0.0836  0.1024
    9bbb     H7  281   3.228   8.145  10.647 -0.3292  1.2373 -0.3081
    9bbb     H8  282   3.084   8.241  10.588 -0.5832  0.0962  1.0999
    9bbb     C5  283   3.208   7.953  10.927  0.3293  0.4769 -0.1481
    9bbb     H9  284   3.262   7.923  10.837  0.2021 -1.3902  0.3643
    9bbb    H10  285   3.148   7.864  10.950 -0.1707  0.5846 -1.0048
    9bbb     C6  286   2.769   8.204  10.816 -0.3027  0.4028 -0.5051
    9bbb    H11  287   2.739   8.143  10.729  0.8605 -3.1343  1.3817
    9bbb    H12  288   2.724   8.304  10.811  0.3562  0.7669  0.6220
    9bbb     C7  289   3.165   8.118  10.439  0.6517 -0.5153 -0.0767
    9bbb    H13  290   3.236   8.196  10.409 -0.5904  0.2220 -1.2365
    9bbb    H14  291   3.072   8.130  10.382  0.5508 -0.1451  0.1571
    9bbb     C8  292   2.720   8.134  10.948  0.6206 -0.1093 -0.4611
    9bbb    H15  293   2.612   8.120  10.945  0.5863 -0.4954  1.5974
    9bbb    H16  294   2.763   8.034  10.938 -0.8424 -0.7299 -0.6390
    9bbb     C9  295   3.319   7.980  11.032 -0.1416  0.1474 -0.4244
    9bbb    H17  296   3.391   8.048  10.985  0.6839 -0.4257 -0.0126
    9bbb    H18  297   3.382   7.891  11.050  0.1693  0.6804  1.3646
    9bbb     O1  298   3.215   7.988  10.411 -0.1395 -0.0497  0.6664
    9bbb    H19  299   2.942   7.992  10.837  1.4296 -0.1612  1.0754
   10bbb     N1  300   5.168   8.289   7.719 -0.2267 -0.1659 -0.3656
   10bbb     C1  301   5.220   8.170   7.638  0.0315 -0.0534  0.1272
   10bbb     H1  302   5.274   8.095   7.696 -1.3053  0.4905  2.1576
   10bbb     H2  303   5.297   8.203   7.568 -1.9563 -0.3060 -2.3516
   10bbb     C2  304   5.096   8.396   7.627  0.4062  0.0944 -0.4128
   10bbb     H3  305   4.995   8.355   7.614  1.2457 -2.3267  0.0923
   10bbb     H4  306   5.151   8.384   7.534  2.4905  0.1378  0.7612
   10bbb     C3  307   5.073   8.244   7.834  0.5903 -0.0008  0.4945
   10bbb     H5  308   4.991   8.190   7.787 -0.1406 -1.2021  2.9756
   10bbb     H6  309   5.029   8.332   7.881 -0.7977  0.2504 -1.1710
   10bbb     C4  310   5.129   8.141   7.936  0.2574  0.2398 -0.2990
   10bbb     H7  311   5.196   8.185   8.010 -1.7689 -2.2092  3.2696
   10bbb     H8  312   5.168   8.051   7.888 -2.0132 -0.9609 -0.0482
   10bbb     C5  313   5.115   8.108   7.547  0.0269  0.2275  0.6166
   10bbb     H9  314   5.080   8.171   7.464  0.4711  0.5554  0.6764
   10bbb    H10  315   5.026   8.070   7.600 -0.1707  1.7226  1.3919
   10bbb     C6  316   5.105   8.536   7.675  0.1265 -0.1106  0.4759
   10bbb    H11  317   5.206   8.575   7.658 -1.1468  3.1430 -0.2378
   10bbb    H12  318   5.078   8.532   7.781  1.1342  0.3410  0.7712
   10bbb     C7  319   5.017   8.086   8.019  0.4157  0.3496 -0.5309
   10bbb    H13  320   5.061   8.046   8.111  0.5574  0.1975 -0.6619
   10bbb    H14  321   4.963   8.008   7.965 -1.4479  0.8474  0.5224
   10bbb     C8  322   5.006   8.626   7.598  0.4029 -0.0315 -0.2914
   10bbb    H15  323   4.904   8.585   7.604  0.6490 -0.4554  1.5421
   10bbb    H16  324   4.999   8.726   7.642  0.8113 -0.2054  0.1834
   10bbb     C9  325   5.174   7.984   7.481  0.6150  0.5287 -0.3048
   10bbb    H17  326   5.096   7.932   7.424 -0.4131  2.0126 -0.3188
   10bbb    H18  327   5.218   7.915   7.554  0.6638 -0.4052 -1.1880
   10bbb     O1  328   4.919   8.179   8.062 -0.5836 -0.2615  0.6678
   10bbb    H19  329   5.251   8.338   7.754 -0.2871  0.0029 -0.4576
   11bbb     N1  330   5.351   8.337   8.943  0.6938  0.3596  0.5871
   11bbb     C1  331   5.471   8.365   8.856 -0.3619 -0.5001  0.1055
   11bbb     H1  332   5.481   8.471   8.836  0.2548 -0.4006  0.8624
   11bbb     H2  333   5.466   8.308   8.763  0.8956 -0.2629 -0.1370
   11bbb     C2  334   5.347   8.433   9.063  0.1195  0.3296 -0.1019
   11bbb     H3  335   5.423   8.404   9.135 -2.2613 -1.0073  2.0456
   11bbb     H4  336   5.250   8.415   9.110  0.7511  2.4942  2.2947
   11bbb     C3  337   5.212   8.355   8.875 -0.6811 -0.3387  0.1850
   11bbb     H5  338   5.203   8.461   8.851  1.0835 -0.0831  0.4886
   11bbb     H6  339   5.132   8.328   8.944  0.8693  1.5748  2.8920
   11bbb     C4  340   5.199   8.309   8.733  0.7012  0.4599  1.2768
   11bbb     H7  341   5.245   8.209   8.722  2.2751  1.3405 -0.8972
   11bbb     H8  342   5.258   8.366   8.660  2.6552 -0.5389  1.9725
   11bbb     C5  343   5.605   8.326   8.925  0.7461 -0.6779 -0.4026
   11bbb     H9  344   5.611   8.220   8.952 -0.2012 -0.3576  1.1804
   11bbb    H10  345   5.609   8.379   9.021  0.6365  0.2322 -0.8989
   11bbb     C6  346   5.346   8.579   9.037 -0.1364 -0.0849  0.1080
   11bbb    H11  347   5.263   8.613   8.973  0.4389 -0.4500 -0.8413
   11bbb    H12  348   5.440   8.605   8.987  0.9430  0.1050  2.1456
   11bbb     C7  349   5.052   8.292   8.694 -0.1570 -0.5669  0.1304
   11bbb    H13  350   4.990   8.368   8.742 -0.3469 -1.9098  2.1459
   11bbb    H14  351   5.022   8.194   8.734 -1.5919 -0.1621  0.0953
   11bbb     C8  352   5.332   8.660   9.174 -0.0648 -0.0014 -0.0916
   11bbb    H15  353   5.378   8.758   9.156  0.6377 -0.4138 -0.6202
   11bbb    H16  354   5.227   8.674   9.200 -0.0965 -0.6825  0.1846
   11bbb     C9  355   5.718   8.380   8.828  0.3928 -0.8137 -0.5416
   11bbb    H17  356   5.814   8.381   8.879 -0.3590  3.6889  1.1966
   11bbb    H18  357   5.698   8.485   8.805  0.4984 -0.6494  0.1168
   11bbb     O1  358   5.032   8.280   8.545 -0.1679  0.0971  0.2111
   11bbb    H19  359   5.355   8.238   8.970  1.7490  0.3876  0.5835
   12bbb     N1  360   3.459  10.346   7.989 -0.0154  0.0404 -0.0232
   12bbb     C1  361   3.327  10.410   7.962  0.0817 -0.0029  0.6293
   12bbb     H1  362   3.301  10.452   8.059  3.1056 -1.3447  2.1629
   12bbb     H2  363   3.264  10.322   7.949 -0.7487  0.3549  2.0554
   12bbb     C2  364   3.555  10.449   8.027 -0.0419  0.4247 -0.1345
   12bbb     H3  365   3.571  10.520   7.946  1.9806  0.5211  0.3053
   12bbb     H4  366   3.656  10.410   8.040  1.1811  1.1681 -5.1558
   12bbb     C3  367   3.438  10.236   8.099 -0.0447 -0.0556  1.1572
   12bbb     H5  368   3.362  10.170   8.056 -1.1814  1.0380  1.4163
   12bbb     H6  369   3.377  10.278   8.179 -1.8901  0.8318 -0.6100
   12bbb     C4  370   3.551  10.139   8.137 -0.4048  0.0363  0.6317
   12bbb     H7  371   3.640  10.197   8.163  0.5643 -1.7458  1.5201
   12bbb     H8  372   3.567  10.061   8.061 -2.0437 -0.1084  0.4041
   12bbb     C5  373   3.309  10.508   7.839 -0.1966 -0.3640 -0.3133
   12bbb     H9  374   3.215  10.498   7.784 -0.5402  3.8263 -0.8282
   12bbb    H10  375   3.386  10.470   7.771  0.1620 -1.2776  0.5825
   12bbb     C6  376   3.518  10.529   8.151  0.5468  0.3135 -0.2356
   12bbb    H11  377   3.500  10.467   8.240  2.0157 -1.1752 -0.9460
   12bbb    H12  378   3.423  10.582   8.136  0.1401  1.4924  4.7812
   12bbb     C7  379   3.520  10.063   8.264  0.1616  0.0763 -0.5855
   12bbb    H13  380   3.435   9.993   8.265  0.8806 -0.9835  3.6321
   12bbb    H14  381   3.486  10.139   8.335  2.5598 -1.0577  1.9452
   12bbb     C8  382   3.608  10.647   8.192  0.5085  0.3214  0.1541
   12bbb    H15  383   3.586  10.685   8.293 -0.2570 -0.0833  0.1491
   12bbb    H16  384   3.716  10.630   8.194  0.8679  1.9473  4.1444
   12bbb     C9  385   3.344  10.659   7.867  0.1434  0.2460 -0.6006
   12bbb    H17  386   3.336  10.714   7.772 -1.1020 -1.4556 -1.5646
   12bbb    H18  387   3.436  10.666   7.926  0.1360 -0.7519 -0.4494
   12bbb     O1  388   3.633   9.989   8.327 -0.1149 -0.4099 -0.1503
   12bbb    H19  389   3.485  10.306   7.898 -0.4781  0.2786 -0.2633
   13bbb     N1  390   4.466  10.373   8.970 -0.4354  0.6282  0.0045
   13bbb     C1  391   4.510  10.349   9.116 -0.2565 -0.2578  0.3426
   13bbb     H1  392   4.603  10.292   9.109 -0.0777  0.1237 -0.6988
   13bbb     H2  393   4.441  10.284   9.169 -0.3316 -0.8076 -0.4065
   13bbb     C2  394   4.597  10.383   8.896  0.4064 -0.8933 -0.3270
   13bbb     H3  395   4.606  10.316   8.811  2.3998 -0.2701 -0.6767
   13bbb     H4  396   4.678  10.350   8.962  0.9497  0.3850 -0.3096
   13bbb     C3  397   4.407  10.244   8.923  0.0350  0.2151  0.4476
   13bbb     H5  398   4.316  10.224   8.980 -0.2940 -0.2091 -0.2175
   13bbb     H6  399   4.473  10.161   8.948 -2.0490 -1.0811  1.9679
   13bbb     C4  400   4.353  10.249   8.774 -1.2314 -0.0216 -0.4576
   13bbb     H7  401   4.421  10.283   8.695 -0.9231  1.1585  0.2872
   13bbb     H8  402   4.269  10.321   8.776 -1.1319  0.1179 -1.1452
   13bbb     C5  403   4.532  10.478   9.194  0.2897  0.1978  0.0248
   13bbb     H9  404   4.451  10.514   9.257  2.1888  3.5164  0.8009
   13bbb    H10  405   4.541  10.564   9.127 -0.7485  0.3482  0.0665
   13bbb     C6  406   4.639  10.519   8.831 -0.2532  0.2456  0.2436
   13bbb    H11  407   4.717  10.500   8.756  0.3954  1.0211  0.7067
   13bbb    H12  408   4.686  10.580   8.909  1.3251 -0.8809  0.2302
   13bbb     C7  409   4.314  10.111   8.716  0.2053 -0.2643  0.4085
   13bbb    H13  410   4.377  10.038   8.768  0.2085 -0.5375  0.0223
   13bbb    H14  411   4.331  10.095   8.609  0.0373 -4.1875  0.8148
   13bbb     C8  412   4.524  10.604   8.762  0.1914 -0.4879  0.1244
   13bbb    H15  413   4.566  10.689   8.707  0.6543 -0.5644  0.3458
   13bbb    H16  414   4.493  10.538   8.680 -1.6013  1.4769 -0.8476
   13bbb     C9  415   4.661  10.464   9.275 -0.3304 -0.1209 -0.3421
   13bbb    H17  416   4.758  10.439   9.229  0.0659  1.1233 -0.2155
   13bbb    H18  417   4.640  10.391   9.354  1.4071  0.2701  0.5166
   13bbb     O1  418   4.184  10.072   8.747  0.2540  0.0474 -0.0367
   13bbb    H19  419   4.411  10.459   8.957 -0.6548  1.1943  3.4860
   14bbb     N1  420   1.867   6.532   8.452  0.1210 -0.9079  0.7876
   14bbb     C1  421   1.802   6.488   8.327 -0.3655  0.9404 -0.3481
   14bbb     H1  422   1.871   6.448   8.253  0.4247 -0.5600  1.1044
   14bbb     H2  423   1.762   6.574   8.274 -0.7985 -0.0718 -1.7069
   14bbb     C2  424   1.940   6.409   8.512 -0.3653  0.5783  0.3808
   14bbb     H3  425   2.019   6.375   8.444 -1.3990 -0.3135 -0.4238
   14bbb     H4  426   1.863   6.331   8.506 -0.9776  1.2688 -2.0167
   14bbb     C3  427   1.977   6.640   8.433  0.0086 -0.3715 -0.1161
   14bbb     H5  428   2.063   6.595   8.384 -0.4567 -0.5135 -0.8116
   14bbb     H6  429   2.014   6.681   8.527  1.9710 -0.6508 -0.7102
   14bbb     C4  430   1.949   6.762   8.339 -0.6530  0.1533 -0.7553
   14bbb     H7  431   1.869   6.816   8.390 -0.0244  1.1729 -0.8310
   14bbb     H8  432   1.915   6.719   8.244  0.8585  1.5583 -1.9741
   14bbb     C5  433   1.683   6.390   8.345  0.4134 -0.3075  0.3796
   14bbb     H9  434   1.611   6.433   8.416  0.6295 -0.5046  0.7193
   14bbb    H10  435   1.704   6.297   8.399 -0.3640  1.1104  3.3338
   14bbb     C6  436   1.980   6.440   8.663 -0.2604  0.0175  0.0252
   14bbb    H11  437   1.898   6.498   8.706 -0.2914 -0.8738  1.2482
   14bbb    H12  438   2.063   6.510   8.653  0.0886 -0.6911 -3.2688
   14bbb     C7  439   2.067   6.856   8.321  0.4864 -0.0101  0.3498
   14bbb    H13  440   2.171   6.822   8.310  0.6800 -0.3055  2.5955
   14bbb    H14  441   2.071   6.918   8.412  0.7806  1.7974 -0.8403
   14bbb     C8  442   2.028   6.319   8.756 -0.1532 -0.1302  0.4015
   14bbb    H15  443   2.124   6.288   8.713  0.7419  2.6609  0.2264
   14bbb    H16  444   2.053   6.339   8.860 -0.7841  0.6365  0.4204
   14bbb     C9  445   1.607   6.369   8.207 -0.5529 -0.8236 -0.7904
   14bbb    H17  446   1.618   6.460   8.147 -0.7230  1.0555  1.8394
   14bbb    H18  447   1.499   6.361   8.226 -0.6537  0.7503 -0.5974
   14bbb     O1  448   2.032   6.950   8.212 -0.1362  0.0171 -0.0949
   14bbb    H19  449   1.787   6.561   8.509 -1.0395  1.4024 -1.8121
   15bbb     N1  450   1.182   7.447   8.545 -0.2755 -0.1346  0.0652
   15bbb     C1  451   1.160   7.597   8.559  0.4033 -0.3948 -0.9351
   15bbb     H1  452   1.150   7.633   8.457  0.1835 -0.3755 -0.9059
   15bbb     H2  453   1.247   7.640   8.610  0.0902 -1.7121  0.7849
   15bbb     C2  454   1.076   7.383   8.456 -0.4067  0.6586 -0.1380
   15bbb     H3  455   1.083   7.414   8.352  2.4160 -1.7329 -0.8085
   15bbb     H4  456   0.980   7.413   8.497 -0.2531  1.3756 -0.2923
   15bbb     C3  457   1.318   7.410   8.489  0.2253 -0.2254  0.2406
   15bbb     H5  458   1.342   7.466   8.398 -0.7242 -0.9832 -0.5009
   15bbb     H6  459   1.314   7.306   8.454  1.4007  0.0625 -0.8404
   15bbb     C4  460   1.419   7.431   8.603  0.0561 -0.0226  0.0688
   15bbb     H7  461   1.385   7.369   8.686  1.3672 -2.2222 -0.9419
   15bbb     H8  462   1.412   7.535   8.638  0.9190 -0.0054  0.2255
   15bbb     C5  463   1.041   7.644   8.646 -0.2329 -0.7700  0.3616
   15bbb     H9  464   1.047   7.588   8.740  1.2111 -1.0281  0.1336
   15bbb    H10  465   0.940   7.617   8.615 -0.3957 -1.3005  1.3062
   15bbb     C6  466   1.071   7.229   8.450 -0.4465  0.5953  0.3148
   15bbb    H11  467   1.095   7.181   8.546  0.2312  0.4330  0.0640
   15bbb    H12  468   1.150   7.189   8.385 -0.7245  1.1653 -0.3877
   15bbb     C7  469   1.563   7.385   8.568  0.2690 -0.3567 -0.5253
   15bbb    H13  470   1.562   7.281   8.533 -0.6187  0.0769 -1.8850
   15bbb    H14  471   1.621   7.391   8.661  0.8657 -1.8164 -0.7752
   15bbb     C8  472   0.942   7.185   8.388  0.6583 -0.4338  0.6983
   15bbb    H15  473   0.936   7.079   8.359 -0.6016 -0.4788  1.0651
   15bbb    H16  474   0.911   7.253   8.308  1.5738 -1.1110 -0.2675
   15bbb     C9  475   1.070   7.794   8.659 -0.1216  0.2409  0.5077
   15bbb    H17  476   1.002   7.827   8.739 -0.3998  3.3962 -0.8935
   15bbb    H18  477   1.176   7.817   8.677 -0.0280 -1.1144  1.8859
   15bbb     O1  478   1.603   7.463   8.454 -0.0794  0.0722 -0.0515
   15bbb    H19  479   1.168   7.421   8.644  0.4905  2.7833  1.0499
   16bbb     N1  480   2.461   7.163   7.246 -0.2272  0.4894  0.2561
   16bbb     C1  481   2.432   7.024   7.189 -0.0980 -0.1357 -0.4755
   16bbb     H1  482   2.415   7.031   7.082  0.8258 -1.8614 -0.7643
   16bbb     H2  483   2.335   6.997   7.233 -1.4475  0.1190 -3.0881
   16bbb     C2  484   2.360   7.271   7.200 -0.2540  0.5205  0.7141
   16bbb     H3  485   2.360   7.271   7.091 -0.2315 -0.9718  0.6886
   16bbb     H4  486   2.404   7.367   7.225 -0.0589  0.6215 -0.0014
   16bbb     C3  487   2.461   7.166   7.403  0.7508  0.4120  0.6726
   16bbb     H5  488   2.529   7.091   7.443  0.6064  2.3814  5.2953
   16bbb     H6  489   2.364   7.140   7.447  0.2428 -1.1275 -1.2670
   16bbb     C4  490   2.523   7.291   7.468 -0.3636  0.1436  0.3182
   16bbb     H7  491   2.493   7.382   7.414 -0.4455  0.0722  0.2429
   16bbb     H8  492   2.629   7.268   7.455 -0.7413 -1.0881 -0.7902
   16bbb     C5  493   2.534   6.915   7.227  0.9988 -0.0858 -0.3690
   16bbb     H9  494   2.544   6.919   7.336 -0.0100 -2.7482 -0.0951
   16bbb    H10  495   2.638   6.937   7.198  1.4042  0.5177  1.4024
   16bbb     C6  496   2.212   7.261   7.251 -0.1010  0.6462 -0.6008
   16bbb    H11  497   2.206   7.306   7.351  2.5557  1.1855 -0.5964
   16bbb    H12  498   2.171   7.161   7.268 -1.9451  1.8269  3.1312
   16bbb     C7  499   2.478   7.304   7.616 -0.0594 -0.0122 -0.2364
   16bbb    H13  500   2.370   7.295   7.627  0.0996 -0.2866  1.2637
   16bbb    H14  501   2.500   7.405   7.652 -1.4350 -0.7430  2.9201
   16bbb     C8  502   2.123   7.330   7.149  0.4545 -0.0822 -0.0790
   16bbb    H15  503   2.025   7.349   7.195 -0.0740 -1.3909 -0.6281
   16bbb    H16  504   2.159   7.427   7.112 -0.2727 -0.4365 -1.8203
   16bbb     C9  505   2.488   6.775   7.181  0.3129  0.3872 -0.1341
   16bbb    H17  506   2.382   6.751   7.200  0.0878 -1.8102 -3.3052
   16bbb    H18  507   2.536   6.694   7.237 -1.5387  1.3418  3.1355
   16bbb     O1  508   2.545   7.204   7.697 -0.1231  0.3496  0.8809
   16bbb    H19  509   2.556   7.191   7.220  0.2366  1.1010  2.4132
   17bbb     N1  510   3.555   6.979   7.620 -0.1286 -0.3908 -0.2295
   17bbb     C1  511   3.593   6.892   7.747 -1.1838  0.1856 -0.0587
   17bbb     H1  512   3.506   6.837   7.783  1.2141 -3.1862  1.1182
   17bbb     H2  513   3.622   6.958   7.829  1.0682 -1.2286  0.3555
   17bbb     C2  514   3.465   6.893   7.539 -0.0830  0.0421  0.1452
   17bbb     H3  515   3.371   6.892   7.594 -0.2885  0.5458 -0.1971
   17bbb     H4  516   3.506   6.792   7.531 -0.5972 -0.0745 -1.1896
   17bbb     C3  517   3.484   7.100   7.679  0.2384  0.3861  0.2502
   17bbb     H5  518   3.397   7.060   7.731 -0.7988  1.1802 -0.8162
   17bbb     H6  519   3.443   7.138   7.585 -0.1146 -0.7416 -0.0765
   17bbb     C4  520   3.565   7.206   7.762 -0.3082 -0.0644 -0.5425
   17bbb     H7  521   3.662   7.233   7.720  0.3244 -0.9023  0.3416
   17bbb     H8  522   3.597   7.156   7.854 -0.9147  2.8071  1.3341
   17bbb     C5  523   3.704   6.786   7.723  0.2972 -0.7533  0.3282
   17bbb     H9  524   3.798   6.834   7.698  1.8068 -3.4840  0.3504
   17bbb    H10  525   3.672   6.732   7.633 -0.5489  1.3120 -0.6793
   17bbb     C6  526   3.439   6.949   7.401 -0.1226  0.3694  0.4173
   17bbb    H11  527   3.535   6.979   7.357 -1.4071  0.7778 -2.3403
   17bbb    H12  528   3.368   7.032   7.409 -2.5379 -1.4216 -1.1169
   17bbb     C7  529   3.471   7.325   7.811 -0.1891  0.5113 -0.3642
   17bbb    H13  530   3.433   7.379   7.724  1.6387  0.3225 -1.3473
   17bbb    H14  531   3.524   7.396   7.875 -0.3432 -0.7837  1.2548
   17bbb     C8  532   3.387   6.841   7.309 -0.8142 -0.0744 -0.6128
   17bbb    H15  533   3.299   6.802   7.360 -0.4988  1.4327  1.1913
   17bbb    H16  534   3.361   6.883   7.211  1.3070 -1.0656 -1.6714
   17bbb     C9  535   3.718   6.697   7.844 -0.5911  0.1369 -0.5777
   17bbb    H17  536   3.726   6.756   7.936  1.6748  3.6896 -2.7915
   17bbb    H18  537   3.808   6.636   7.833 -1.0589 -0.4395 -1.2936
   17bbb     O1  538   3.354   7.280   7.887 -0.4724  0.1407  0.0841
   17bbb    H19  539   3.643   7.007   7.576 -0.3277 -1.9151 -1.7005
   18bbb     N1  540   4.070   7.812  11.184 -0.0173 -0.5826 -0.5976
   18bbb     C1  541   4.120   7.669  11.182 -0.5152  0.4035 -0.0045
   18bbb     H1  542   4.060   7.608  11.115  0.1731 -2.3455  1.7515
   18bbb     H2  543   4.105   7.631  11.283  0.0585  1.0645  0.3438
   18bbb     C2  544   4.133   7.878  11.304  0.4165 -0.1982 -0.2967
   18bbb     H3  545   4.142   7.985  11.283 -0.9914 -0.0682 -0.3406
   18bbb     H4  546   4.235   7.840  11.310  0.2591 -0.4087  1.9203
   18bbb     C3  547   4.115   7.895  11.054 -0.1624 -0.3944  0.7704
   18bbb     H5  548   4.119   7.821  10.974 -0.5258 -0.5718  0.9132
   18bbb     H6  549   4.215   7.932  11.075 -1.2611  1.5300  3.0450
   18bbb     C4  550   4.015   8.014  11.019  0.6509 -0.0484 -0.0216
   18bbb     H7  551   4.040   8.093  11.090  2.0480 -1.2332  0.8644
   18bbb     H8  552   3.911   7.985  11.038  0.8553  0.4465  2.1296
   18bbb     C5  553   4.266   7.652  11.149  0.3223 -0.9782  0.5648
   18bbb     H9  554   4.332   7.701  11.221 -0.5531  0.7481  0.2552
   18bbb    H10  555   4.291   7.715  11.063  1.8033  0.1338  1.7569
   18bbb     C6  556   4.074   7.845  11.446 -0.0735 -0.7618 -0.6666
   18bbb    H11  557   4.161   7.833  11.512 -0.2612  1.4027  0.0695
   18bbb    H12  558   4.027   7.746  11.444  1.5297 -1.5715 -3.7120
   18bbb     C7  559   4.025   8.082  10.878 -0.6418 -0.3141  0.4281
   18bbb    H13  560   4.129   8.112  10.860 -1.1396  2.9865  2.2383
   18bbb    H14  561   3.969   8.176  10.869 -1.3495 -0.7112  0.5846
   18bbb     C8  562   3.976   7.955  11.496 -0.5556  0.2449 -0.0667
   18bbb    H15  563   3.891   7.964  11.427 -1.6274 -1.1118  1.0362
   18bbb    H16  564   3.931   7.924  11.591  0.3907 -1.6711 -0.2027
   18bbb     C9  565   4.294   7.501  11.129 -0.2585 -0.3214 -0.1222
   18bbb    H17  566   4.397   7.491  11.095  0.6905  2.0571  1.7702
   18bbb    H18  567   4.225   7.471  11.049 -0.7396  3.1447 -1.1685
   18bbb     O1  568   3.968   8.001  10.780  0.2787  0.6461 -0.8029
   18bbb    H19  569   3.968   7.809  11.198  0.1738 -0.1726  1.0762
   19bbb     N1  570   3.938   6.890  10.423 -0.0140  0.0755  0.2122
   19bbb     C1  571   3.930   6.841  10.279  0.0654  0.1521  0.1440
   19bbb     H1  572   4.022   6.789  10.252  1.1462  1.2419  1.5458
   19bbb     H2  573   3.931   6.928  10.213  0.3457 -1.0524 -1.4941
   19bbb     C2  574   3.986   6.778  10.504 -0.3387 -0.0077 -0.3429
   19bbb     H3  575   4.074   6.742  10.451  0.0855  3.0346 -1.9163
   19bbb     H4  576   3.909   6.701  10.508 -1.2605  0.9188  0.5438
   19bbb     C3  577   4.043   7.002  10.420 -0.0345  0.8579 -0.6716
   19bbb     H5  578   4.140   6.956  10.397 -1.0453 -1.4765 -0.6041
   19bbb     H6  579   4.051   7.026  10.526  0.7248 -3.0106  0.3049
   19bbb     C4  580   4.004   7.132  10.338  0.2282  0.2645  0.2861
   19bbb     H7  581   3.904   7.166  10.369  0.3829  0.9861  0.0142
   19bbb     H8  582   3.995   7.096  10.234 -0.5534  0.6645  0.2107
   19bbb     C5  583   3.814   6.757  10.243  0.1801  0.3627  0.4932
   19bbb     H9  584   3.729   6.826  10.249 -2.1816 -2.4618  3.1930
   19bbb    H10  585   3.803   6.679  10.319 -2.0290 -3.1145 -2.9862
   19bbb     C6  586   4.026   6.820  10.649 -0.0804  0.2688  0.4752
   19bbb    H11  587   3.940   6.860  10.703 -1.0290  2.7975 -2.5817
   19bbb    H12  588   4.099   6.902  10.647 -0.5297  0.6880  0.9151
   19bbb     C7  589   4.105   7.247  10.341  0.0803  0.0440 -0.4364
   19bbb    H13  590   4.052   7.329  10.291 -0.9094 -0.5669 -0.3953
   19bbb    H14  591   4.192   7.221  10.279  2.1451 -0.1134  2.3061
   19bbb     C8  592   4.084   6.714  10.732  0.5817  0.3616  0.3808
   19bbb    H15  593   4.111   6.763  10.826  0.0509  1.4827 -0.0415
   19bbb    H16  594   4.001   6.643  10.741  0.9061 -0.3342 -1.5518
   19bbb     C9  595   3.815   6.683  10.109 -0.4187  0.2946 -0.3224
   19bbb    H17  596   3.913   6.635  10.105  0.5998  2.2886 -0.7891
   19bbb    H18  597   3.814   6.751  10.023 -0.9245 -0.1069 -0.6434
   19bbb     O1  598   4.140   7.301  10.468  0.1688  0.1114 -0.2564
   19bbb    H19  599   3.852   6.931  10.461 -0.5463  0.3074 -1.1649
   20bbb     N1  600   2.476   8.301  11.375 -0.4611 -0.1246 -0.2003
   20bbb     C1  601   2.481   8.434  11.457  0.0290  0.1153  0.2940
   20bbb     H1  602   2.380   8.461  11.488  0.4529 -0.0961  1.9481
   20bbb     H2  603   2.510   8.516  11.391  3.8448 -2.1437 -1.1525
   20bbb     C2  604   2.358   8.293  11.281 -0.2872 -0.3646  0.2445
   20bbb     H3  605   2.273   8.303  11.347  0.5104  1.0890  1.1044
   20bbb     H4  606   2.362   8.194  11.234  1.4782 -0.6131  0.8206
   20bbb     C3  607   2.610   8.277  11.300 -0.1297  0.6075  0.6274
   20bbb     H5  608   2.692   8.310  11.364  1.7001 -1.0844 -0.7178
   20bbb     H6  609   2.612   8.350  11.219 -1.6614  2.6218  2.3129
   20bbb     C4  610   2.641   8.132  11.248 -0.2217 -0.9571  0.2021
   20bbb     H7  611   2.564   8.101  11.175  0.1565  1.0083 -1.1212
   20bbb     H8  612   2.624   8.060  11.329 -0.6302 -0.9909  0.0907
   20bbb     C5  613   2.585   8.455  11.576 -0.1450 -0.1264  0.5197
   20bbb     H9  614   2.680   8.487  11.533  0.5403 -0.8583  1.4448
   20bbb    H10  615   2.606   8.361  11.629 -0.9822 -0.8802 -0.4434
   20bbb     C6  616   2.354   8.404  11.171  0.2059  0.2541 -0.0963
   20bbb    H11  617   2.444   8.422  11.111  2.1650  2.6045  3.2180
   20bbb    H12  618   2.345   8.500  11.223 -0.0467 -0.3081  0.9291
   20bbb     C7  619   2.788   8.119  11.190 -0.0730  0.3897  0.4041
   20bbb    H13  620   2.812   8.013  11.179 -2.5077 -0.0352 -1.7351
   20bbb    H14  621   2.853   8.171  11.261  0.2673  1.3546 -0.5801
   20bbb     C8  622   2.232   8.390  11.074  0.5234 -0.0326 -0.0865
   20bbb    H15  623   2.238   8.295  11.019  2.8115 -0.5204  0.8904
   20bbb    H16  624   2.140   8.388  11.134  0.3428 -0.5117 -0.3744
   20bbb     C9  625   2.542   8.564  11.667 -0.3072  0.1181 -0.5299
   20bbb    H17  626   2.536   8.659  11.611 -1.8121  0.6873  0.4998
   20bbb    H18  627   2.610   8.566  11.752  0.3580 -2.0715 -0.9685
   20bbb     O1  628   2.778   8.200  11.064  0.0291  1.2601  0.4337
   20bbb    H19  629   2.460   8.222  11.439 -2.1296 -1.1473 -1.7904
   21bbb     N1  630   3.231   7.867  11.635 -0.6628  0.5822  0.4576
   21bbb     C1  631   3.323   7.970  11.693 -0.1832 -0.6251  0.1993
   21bbb     H1  632   3.406   7.973  11.622 -1.5431  1.4182 -1.4184
   21bbb     H2  633   3.363   7.933  11.787 -0.2261 -1.3479 -0.0590
   21bbb     C2  634   3.133   7.832  11.738 -0.5736 -0.3093 -0.0054
   21bbb     H3  635   3.096   7.920  11.790  2.4932  0.9435  0.2829
   21bbb     H4  636   3.194   7.778  11.811  0.7497  0.1185 -0.7636
   21bbb     C3  637   3.171   7.923  11.502 -0.4712  0.2795 -0.1166
   21bbb     H5  638   3.105   8.006  11.528  1.3572  1.1014  2.2867
   21bbb     H6  639   3.105   7.844  11.466 -0.3180  0.3272 -0.5166
   21bbb     C4  640   3.266   7.965  11.383  0.3397  0.3833 -0.4113
   21bbb     H7  641   3.349   7.894  11.378 -0.2503 -0.3125 -0.6823
   21bbb     H8  642   3.303   8.065  11.405  2.6203 -0.4390 -0.2241
   21bbb     C5  643   3.282   8.117  11.715 -0.9535 -0.1227  0.0927
   21bbb     H9  644   3.259   8.166  11.619 -0.9896 -1.6403 -0.7014
   21bbb    H10  645   3.369   8.176  11.746 -0.8982  0.2872 -0.8215
   21bbb     C6  646   3.033   7.723  11.701 -0.4377  0.2614  0.9718
   21bbb    H11  647   3.091   7.638  11.663 -0.8803  0.4113 -0.0687
   21bbb    H12  648   2.971   7.756  11.617  0.8453  3.3661  1.1423
   21bbb     C7  649   3.199   7.964  11.240 -0.5630 -0.2162  0.1316
   21bbb    H13  650   3.092   7.989  11.236 -0.3822  0.5898  0.2116
   21bbb    H14  651   3.204   7.858  11.210 -0.6882 -1.3506  3.6574
   21bbb     C8  652   2.938   7.677  11.815  0.2776 -0.0172  0.1687
   21bbb    H15  653   3.001   7.622  11.885  1.0812 -1.4465 -1.6018
   21bbb    H16  654   2.886   7.762  11.862  0.8001 -0.8391  2.3173
   21bbb     C9  655   3.172   8.146  11.822  0.1150 -0.5174 -0.3927
   21bbb    H17  656   3.081   8.110  11.773  0.4403 -1.2570 -0.4685
   21bbb    H18  657   3.158   8.254  11.836  1.6912 -0.3228 -0.1134
   21bbb     O1  658   3.272   8.047  11.147  0.6599 -0.2317  0.0934
   21bbb    H19  659   3.289   7.785  11.611  0.9515  1.6733  0.4675
   22bbb     N1  660   5.073   8.812   7.023 -0.4048 -0.2321  0.1184
   22bbb     C1  661   5.214   8.862   7.017  0.5708  0.0688 -0.1153
   22bbb     H1  662   5.240   8.859   6.911  0.0274  0.7005 -0.2700
   22bbb     H2  663   5.276   8.785   7.064 -0.7942 -0.7613  0.3967
   22bbb     C2  664   5.032   8.732   6.906  0.6331 -0.8639  0.1772
   22bbb     H3  665   5.060   8.627   6.917  0.7361 -0.7552  1.0137
   22bbb     H4  666   5.087   8.775   6.823  0.2138  1.4634  1.0357
   22bbb     C3  667   5.048   8.724   7.148 -0.4058  0.0562  0.0426
   22bbb     H5  668   5.117   8.639   7.146 -2.1963 -1.4699  0.7250
   22bbb     H6  669   4.944   8.694   7.142 -0.7278  0.9937  0.7087
   22bbb     C4  670   5.061   8.803   7.277  0.3196  0.4285 -0.1289
   22bbb     H7  671   5.029   8.907   7.267 -0.3477  0.4097  1.4329
   22bbb     H8  672   5.167   8.807   7.303  0.7361 -0.1161 -1.6530
   22bbb     C5  673   5.248   9.004   7.076  0.4857  0.3852 -0.1080
   22bbb     H9  674   5.253   8.989   7.184  1.7955 -0.2279 -0.2332
   22bbb    H10  675   5.177   9.083   7.050  0.6438  1.1324  1.6196
   22bbb     C6  676   4.881   8.752   6.885  0.6737  0.0737  0.3001
   22bbb    H11  677   4.860   8.857   6.863 -0.2194  0.5245  2.9510
   22bbb    H12  678   4.830   8.714   6.975  0.8286 -1.5550 -0.2738
   22bbb     C7  679   4.972   8.746   7.394 -0.0284  0.7931 -0.5973
   22bbb    H13  680   4.881   8.694   7.359 -0.6095  0.3541  1.4274
   22bbb    H14  681   4.956   8.836   7.454 -1.5153  2.3807 -3.1744
   22bbb     C8  682   4.841   8.664   6.763 -0.0861 -0.5126  0.2567
   22bbb    H15  683   4.899   8.683   6.672 -1.2275 -0.9865 -0.5885
   22bbb    H16  684   4.861   8.559   6.787 -0.4825 -0.8014 -0.6665
   22bbb     C9  685   5.387   9.047   7.037  0.3876  0.4587  0.3265
   22bbb    H17  686   5.452   8.961   7.058 -1.1932 -1.0994 -0.9247
   22bbb    H18  687   5.417   9.132   7.101  1.3993  0.1537  0.2823
   22bbb     O1  688   5.051   8.646   7.466  0.0412 -0.0222  0.2754
   22bbb    H19  689   5.005   8.890   7.030 -0.2437 -0.1758  1.2263
   23bbb     N1  690   5.685   8.009   7.213 -0.1908 -0.1786  0.2806
   23bbb     C1  691   5.693   8.103   7.097 -0.0766 -0.4498 -0.1192
   23bbb     H1  692   5.596   8.085   7.050  0.4711 -1.3085 -0.9597
   23bbb     H2  693   5.768   8.069   7.025 -0.4876 -0.3591 -0.5981
   23bbb     C2  694   5.798   8.031   7.311  0.2351  0.1891  0.0570
   23bbb     H3  695   5.750   8.083   7.394 -0.8934  1.2184 -1.1972
   23bbb     H4  696   5.875   8.093   7.267 -1.6298  1.6176 -1.3324
   23bbb     C3  697   5.550   8.022   7.284 -0.4635 -0.0437 -0.2042
   23bbb     H5  698   5.548   8.130   7.299  1.1514  0.6334 -3.6731
   23bbb     H6  699   5.557   7.973   7.381  2.8820 -1.0083 -0.8069
   23bbb     C4  700   5.428   7.970   7.210  0.4027  0.2797 -0.4079
   23bbb     H7  701   5.453   7.889   7.140 -1.3632 -0.7494  0.1082
   23bbb     H8  702   5.398   8.053   7.145  0.0470  1.8971  1.7579
   23bbb     C5  703   5.711   8.254   7.122  0.4455 -0.3573 -0.2407
   23bbb     H9  704   5.809   8.281   7.163 -0.8381  2.5803  1.2398
   23bbb    H10  705   5.643   8.292   7.199 -2.0803 -2.5176 -1.2505
   23bbb     C6  706   5.859   7.899   7.368  0.2406  0.0860  0.2107
   23bbb    H11  707   5.783   7.831   7.409  0.9771 -1.3376 -0.7236
   23bbb    H12  708   5.925   7.926   7.451  0.4885 -0.8713  0.3347
   23bbb     C7  709   5.312   7.924   7.293 -0.4974  0.1880  0.9994
   23bbb    H13  710   5.334   7.829   7.344  2.7738 -0.6563 -1.6642
   23bbb    H14  711   5.235   7.899   7.219 -0.3418  1.7696  0.2765
   23bbb     C8  712   5.940   7.835   7.257 -0.0247 -0.2956 -0.4570
   23bbb    H15  713   5.995   7.914   7.205 -2.0799  1.7699  0.3472
   23bbb    H16  714   6.013   7.764   7.299  1.0558 -0.3293 -2.2570
   23bbb     C9  715   5.702   8.338   6.993  0.8838 -0.1949  0.1756
   23bbb    H17  716   5.643   8.425   7.023 -0.6549 -1.0147 -0.3844
   23bbb    H18  717   5.649   8.292   6.909  0.3815  0.3633  0.1842
   23bbb     O1  718   5.270   8.030   7.382  0.0578 -0.5252  0.3394
   23bbb    H19  719   5.702   7.910   7.188  0.8390 -0.1677  0.8851
   24bbb     N1  720   5.606   8.319   9.566 -0.4187  0.0443 -1.0154
   24bbb     C1  721   5.551   8.311   9.704 -0.5521  0.3261 -0.5462
   24bbb     H1  722   5.603   8.227   9.749 -2.6714 -0.7833 -0.0597
   24bbb     H2  723   5.446   8.283   9.701 -0.4999 -0.0420  0.6793
   24bbb     C2  724   5.661   8.178   9.515  0.8049 -0.1032 -0.2910
   24bbb     H3  725   5.575   8.112   9.505  0.2868  0.3899  0.8226
   24bbb     H4  726   5.732   8.145   9.591 -0.9338 -2.8144  0.2700
   24bbb     C3  727   5.495   8.355   9.475  0.0242 -0.4815  0.4091
   24bbb     H5  728   5.415   8.282   9.472 -2.0369  1.6220  1.2689
   24bbb     H6  729   5.540   8.360   9.375 -1.3096 -0.8784 -0.2332
   24bbb     C4  730   5.420   8.494   9.493 -0.3987 -0.2502 -0.1337
   24bbb     H7  731   5.495   8.573   9.510 -0.1127 -0.3983 -0.6911
   24bbb     H8  732   5.356   8.495   9.582 -1.2216  0.5832 -0.7212
   24bbb     C5  733   5.579   8.427   9.797  0.0801  0.2452 -0.1159
   24bbb     H9  734   5.514   8.512   9.773  0.6111 -0.0482 -2.9000
   24bbb    H10  735   5.683   8.452   9.772 -0.2601  0.7330 -1.0906
   24bbb     C6  736   5.746   8.181   9.381  0.1839 -0.5877 -0.0989
   24bbb    H11  737   5.689   8.232   9.302  2.8806  0.4729 -1.4602
   24bbb    H12  738   5.768   8.083   9.336  2.4454  1.2709 -3.5310
   24bbb     C7  739   5.326   8.527   9.377  0.0226 -0.0763  0.0368
   24bbb    H13  740   5.255   8.600   9.418 -0.5693 -1.9235  2.5041
   24bbb    H14  741   5.281   8.433   9.343 -0.9567  0.5015 -0.2935
   24bbb     C8  742   5.880   8.262   9.400  0.9109  0.1444 -0.0190
   24bbb    H15  743   5.940   8.209   9.476 -0.8227 -2.4385 -0.3159
   24bbb    H16  744   5.940   8.258   9.308  1.6266 -2.0400  0.4871
   24bbb     C9  745   5.554   8.376   9.938 -0.4238  0.1138 -0.1027
   24bbb    H17  746   5.450   8.340   9.944 -0.9046  1.5248  0.3445
   24bbb    H18  747   5.566   8.460  10.007 -1.8432 -1.4079  2.1557
   24bbb     O1  748   5.399   8.583   9.268 -0.5603 -0.4441 -0.5376
   24bbb    H19  749   5.685   8.384   9.557  0.7206 -1.2539 -0.6935
   25bbb     N1  750   6.157   8.046   8.740  0.3156 -0.3367 -0.0171
   25bbb     C1  751   6.196   8.042   8.884 -0.4981  0.8726 -0.2175
   25bbb     H1  752   6.298   8.005   8.871 -0.8324 -0.6533  1.2231
   25bbb     H2  753   6.145   7.967   8.944 -0.1949  0.3188 -0.6383
   25bbb     C2  754   6.211   7.930   8.654  0.9111  0.1881 -0.3009
   25bbb     H3  755   6.314   7.949   8.624  0.2935  1.0865 -2.0219
   25bbb     H4  756   6.146   7.939   8.567 -0.1752  1.2660  0.5840
   25bbb     C3  757   6.002   8.048   8.735  0.1165 -0.1673  0.0108
   25bbb     H5  758   5.964   7.984   8.815 -1.6290  2.1881  1.2105
   25bbb     H6  759   5.975   8.004   8.639  0.8764  2.1415 -1.3374
   25bbb     C4  760   5.937   8.186   8.741  0.6886  0.1002  0.6171
   25bbb     H7  761   5.973   8.249   8.660 -1.2945 -1.2700 -1.4375
   25bbb     H8  762   5.971   8.243   8.828 -0.1967 -0.9234  1.6739
   25bbb     C5  763   6.216   8.173   8.958  0.0284 -0.3864 -0.2690
   25bbb     H9  764   6.240   8.153   9.063 -2.7475  1.3608  0.8290
   25bbb    H10  765   6.122   8.228   8.973  0.6117  0.1689  1.7193
   25bbb     C6  766   6.207   7.780   8.708 -0.5397 -0.0090  0.0285
   25bbb    H11  767   6.102   7.755   8.726 -0.8255  1.2623  0.2803
   25bbb    H12  768   6.255   7.779   8.806  0.4138  3.2078 -0.2666
   25bbb     C7  769   5.784   8.166   8.730  0.3446  0.2281  0.2190
   25bbb    H13  770   5.750   8.114   8.820  0.5484  0.2551  0.3117
   25bbb    H14  771   5.762   8.099   8.645  0.8778  0.7348 -0.3244
   25bbb     C8  772   6.272   7.686   8.608 -0.0703  0.2287 -0.1377
   25bbb    H15  773   6.225   7.706   8.510  0.4609 -0.1308 -0.4712
   25bbb    H16  774   6.380   7.702   8.605 -0.2363  1.6387  0.7974
   25bbb     C9  775   6.330   8.263   8.895  0.5464  0.4904  0.0144
   25bbb    H17  776   6.381   8.324   8.971  0.8108  0.5232 -0.1883
   25bbb    H18  777   6.287   8.332   8.821 -0.2168  2.3452  2.0800
   25bbb     O1  778   5.717   8.299   8.711 -0.0480  0.3231  0.2942
   25bbb    H19  779   6.187   8.129   8.687 -0.0558 -0.1534  0.0567
   26bbb     N1  780   3.728  11.047   7.739 -0.2761  0.4106 -0.5116
   26bbb     C1  781   3.726  11.183   7.796 -1.0566 -0.6572 -0.2967
   26bbb     H1  782   3.833  11.199   7.804 -1.1224 -1.0849  2.0543
   26bbb     H2  783   3.665  11.182   7.887 -0.1112  0.9687  0.3950
   26bbb     C2  784   3.828  11.044   7.621  0.4010 -0.1568 -0.2482
   26bbb     H3  785   3.916  10.988   7.653  0.0600 -0.9026 -0.6080
   26bbb     H4  786   3.857  11.148   7.602 -2.1482  0.2326 -2.5870
   26bbb     C3  787   3.770  10.938   7.838  0.4114  0.2432  0.3523
   26bbb     H5  788   3.864  10.972   7.882  1.3916  0.2740 -1.6825
   26bbb     H6  789   3.799  10.849   7.783  1.7684  1.5594 -1.1666
   26bbb     C4  790   3.658  10.911   7.936  0.6838 -0.3579 -0.9436
   26bbb     H7  791   3.565  10.875   7.891 -0.3533 -0.1478  0.9152
   26bbb     H8  792   3.636  11.001   7.994 -0.0800 -0.6083 -0.8393
   26bbb     C5  793   3.660  11.295   7.716  0.1428  0.3498 -0.4859
   26bbb     H9  794   3.555  11.268   7.700  0.4188 -1.0104 -0.1291
   26bbb    H10  795   3.703  11.293   7.615  1.1163 -2.8084 -0.1381
   26bbb     C6  796   3.756  10.987   7.505 -0.2607  0.5341  0.5102
   26bbb    H11  797   3.661  11.042   7.505 -0.2717  0.5167 -0.0092
   26bbb    H12  798   3.732  10.880   7.515 -1.9353  0.9478  1.1023
   26bbb     C7  799   3.690  10.788   8.020 -0.8111  0.2437  0.0856
   26bbb    H13  800   3.776  10.799   8.087 -0.9839 -2.5622  0.8925
   26bbb    H14  801   3.711  10.711   7.945 -0.0554 -1.4716  1.9512
   26bbb     C8  802   3.828  11.017   7.375 -0.3887 -0.6776 -0.2565
   26bbb    H15  803   3.766  10.998   7.287 -0.8801 -0.4642  0.0404
   26bbb    H16  804   3.854  11.124   7.371 -0.1921 -0.6988  0.3194
   26bbb     C9  805   3.677  11.440   7.774 -0.4438 -0.4326 -0.2543
   26bbb    H17  806   3.778  11.472   7.745 -0.1871  0.4910  1.5242
   26bbb    H18  807   3.664  11.461   7.881  2.4326  0.0111  0.0992
   26bbb     O1  808   3.574  10.755   8.099  0.7741  0.2123  0.3934
   26bbb    H19  809   3.631  11.027   7.712 -1.1150  0.2059  2.3658
   27bbb     N1  810   2.853  10.848   7.850  0.3647  0.5037  0.4267
   27bbb     C1  811   2.854  10.988   7.790 -0.0533 -0.0526 -0.3604
   27bbb     H1  812   2.901  10.976   7.692  1.7367 -0.2619  0.4847
   27bbb     H2  813   2.930  11.034   7.852  0.6432 -1.3815 -0.2041
   27bbb     C2  814   2.762  10.739   7.785 -0.2773  0.0052  0.0861
   27bbb     H3  815   2.664  10.762   7.825  0.5294  1.9167  1.1001
   27bbb     H4  816   2.788  10.647   7.838 -0.5664  0.4823  1.0809
   27bbb     C3  817   3.001  10.809   7.846  0.6929 -0.1724 -0.2717
   27bbb     H5  818   3.039  10.830   7.746 -1.4642  1.6920 -0.7744
   27bbb     H6  819   3.015  10.705   7.878  2.0468 -0.2037 -0.9051
   27bbb     C4  820   3.077  10.884   7.960 -0.4580 -0.0472  0.4353
   27bbb     H7  821   3.038  10.864   8.060 -0.8330 -0.8861  0.1305
   27bbb     H8  822   3.079  10.994   7.949 -0.5620 -0.0982 -0.1305
   27bbb     C5  823   2.725  11.078   7.774 -0.9529  0.7116 -0.0875
   27bbb     H9  824   2.653  11.039   7.701 -0.6483  1.7821 -0.9860
   27bbb    H10  825   2.751  11.175   7.731  0.1229  0.5633  0.2097
   27bbb     C6  826   2.749  10.749   7.624  0.4249 -0.1144  0.0711
   27bbb    H11  827   2.822  10.689   7.569  1.9944  1.5170  0.2651
   27bbb    H12  828   2.793  10.846   7.598 -0.5664  0.1939 -0.5137
   27bbb     C7  829   3.225  10.851   7.952 -0.4103  0.2057  0.6810
   27bbb    H13  830   3.266  10.889   8.046 -0.2445 -2.3279  1.7239
   27bbb    H14  831   3.270  10.897   7.864  2.8106  2.1797  3.1344
   27bbb     C8  832   2.608  10.746   7.567  0.1542  0.0660  0.0078
   27bbb    H15  833   2.559  10.834   7.611 -2.5011 -1.0424 -0.5179
   27bbb    H16  834   2.569  10.656   7.615  1.2223 -1.5066 -1.9204
   27bbb     C9  835   2.655  11.115   7.912  0.2185  0.6495 -0.3274
   27bbb    H17  836   2.727  11.159   7.982  0.8545 -0.4794 -0.2465
   27bbb    H18  837   2.582  11.196   7.900  0.9698  1.6269  1.3336
   27bbb     O1  838   3.238  10.711   7.950  0.1484  0.0262  0.2871
   27bbb    H19  839   2.825  10.845   7.949  0.2824  0.1065  0.3949
   28bbb     N1  840   4.155  10.911   9.116 -0.2842 -0.3765  0.7383
   28bbb     C1  841   4.106  10.896   9.264  0.5723  0.6270 -0.3047
   28bbb     H1  842   4.013  10.838   9.259  1.0214 -0.0478 -1.0537
   28bbb     H2  843   4.088  10.996   9.302 -1.0870  0.1698  0.1972
   28bbb     C2  844   4.275  11.002   9.117 -0.1264 -0.4501 -0.1640
   28bbb     H3  845   4.315  11.010   9.016  2.2910 -2.0402  0.5850
   28bbb     H4  846   4.346  10.955   9.185  0.3575  1.4320  0.7238
   28bbb     C3  847   4.201  10.778   9.052  0.0670  0.1656  0.3379
   28bbb     H5  848   4.120  10.707   9.069 -0.8344  1.0745 -0.0313
   28bbb     H6  849   4.295  10.755   9.102 -0.5846  2.8885  3.1247
   28bbb     C4  850   4.231  10.793   8.896 -0.1674  0.3372  0.4873
   28bbb     H7  851   4.298  10.880   8.892  1.4403 -0.8990 -0.1832
   28bbb     H8  852   4.139  10.823   8.845 -0.0464  0.0616  0.1097
   28bbb     C5  853   4.188  10.812   9.356 -0.3008  0.1773 -0.6342
   28bbb     H9  854   4.291  10.849   9.369 -0.4972  1.2534 -2.0205
   28bbb    H10  855   4.205  10.716   9.306  0.5156  0.2430 -0.5012
   28bbb     C6  856   4.248  11.147   9.191  0.0405  0.1603 -0.2700
   28bbb    H11  857   4.338  11.210   9.197 -0.0827  0.4695 -1.4926
   28bbb    H12  858   4.221  11.134   9.297  2.4345  0.7803  0.4831
   28bbb     C7  859   4.302  10.671   8.824  0.1600 -0.6437  0.7048
   28bbb    H13  860   4.302  10.704   8.719  0.3680  0.4871  1.0451
   28bbb    H14  861   4.240  10.581   8.829 -1.5228  0.3926 -0.1167
   28bbb     C8  862   4.145  11.233   9.113  0.4658 -0.1041 -0.5189
   28bbb    H15  863   4.193  11.293   9.035  1.0390 -0.9928 -0.8703
   28bbb    H16  864   4.068  11.170   9.068  0.2774 -0.3005  0.0590
   28bbb     C9  865   4.139  10.776   9.493 -0.7296  1.2517 -0.4716
   28bbb    H17  866   4.207  10.702   9.539 -0.2197  3.5702  2.8523
   28bbb    H18  867   4.042  10.727   9.480 -0.3324 -0.0633  1.0809
   28bbb     O1  868   4.434  10.643   8.869 -0.0571 -0.0425 -0.3710
   28bbb    H19  869   4.083  10.961   9.062 -0.3575 -1.2183  0.0447
   29bbb     N1  870   5.023  10.814   9.652  0.2054 -0.2581 -0.8611
   29bbb     C1  871   5.168  10.797   9.702  0.4237 -0.5658 -0.2135
   29bbb     H1  872   5.230  10.791   9.612 -0.2701 -1.6929 -0.6324
   29bbb     H2  873   5.179  10.698   9.747 -0.0373 -1.2485 -1.5505
   29bbb     C2  874   4.996  10.949   9.588  0.1630  0.1775 -0.0839
   29bbb     H3  875   5.004  11.032   9.659  1.4081  1.0370 -1.1886
   29bbb     H4  876   4.896  10.948   9.545  0.9961  0.3757 -2.1083
   29bbb     C3  877   4.987  10.702   9.561  0.6607 -0.3908 -0.1967
   29bbb     H5  878   5.005  10.605   9.606 -0.7191 -0.7194 -0.2996
   29bbb     H6  879   5.045  10.710   9.469  0.2951 -1.9851 -0.5863
   29bbb     C4  880   4.842  10.700   9.510 -0.4960  0.3368 -0.2102
   29bbb     H7  881   4.831  10.799   9.466 -0.3864  0.4177 -0.0598
   29bbb     H8  882   4.771  10.703   9.594 -1.5251 -2.0447 -0.8993
   29bbb     C5  883   5.227  10.901   9.803  0.2768 -0.0045 -0.1481
   29bbb     H9  884   5.178  10.885   9.900  1.9929 -0.5277  0.6671
   29bbb    H10  885   5.191  11.000   9.771  0.1711  0.2006  0.5819
   29bbb     C6  886   5.081  10.984   9.470  0.2589  0.1098  0.4900
   29bbb    H11  887   5.044  10.935   9.380  0.1720  0.9239  0.0709
   29bbb    H12  888   5.181  10.944   9.492  0.7450  1.8412  1.6727
   29bbb     C7  889   4.814  10.580   9.419 -0.2197  0.0715  0.2129
   29bbb    H13  890   4.837  10.482   9.462 -0.2636 -0.1072 -0.1650
   29bbb    H14  891   4.887  10.590   9.338  0.3276  3.0321  0.9590
   29bbb     C8  892   5.083  11.137   9.453 -0.3026  0.1356  0.1571
   29bbb    H15  893   5.112  11.174   9.354 -0.3881 -0.2302 -0.0068
   29bbb    H16  894   4.984  11.184   9.462  0.0739  1.0618 -0.4056
   29bbb     C9  895   5.375  10.900   9.835 -0.0393  0.2477 -0.2000
   29bbb    H17  896   5.415  10.997   9.805 -1.8188  0.7713 -1.0061
   29bbb    H18  897   5.427  10.817   9.784 -1.3595 -0.5997 -0.2107
   29bbb     O1  898   4.686  10.585   9.347  0.0690 -0.0973 -0.0368
   29bbb    H19  899   4.961  10.803   9.734 -1.2662 -0.0235 -1.8965
   30bbb     N1  900   1.642   5.866   8.787 -0.1246  0.2254 -0.4126
   30bbb     C1  901   1.512   5.946   8.764 -0.0739  0.5808 -0.0878
   30bbb     H1  902   1.490   5.948   8.657  0.1394 -1.0509 -0.1821
   30bbb     H2  903   1.521   6.049   8.800 -0.8818  0.8207 -0.5408
   30bbb     C2  904   1.648   5.731   8.704  1.0064 -0.6790 -0.7514
   30bbb     H3  905   1.690   5.752   8.606 -1.9649  4.7475 -1.2833
   30bbb     H4  906   1.546   5.697   8.688  0.5640  0.7393 -1.1463
   30bbb     C3  907   1.759   5.955   8.739  0.0137 -0.0705  0.0374
   30bbb     H5  908   1.716   6.041   8.687 -1.4253 -1.0574 -0.4870
   30bbb     H6  909   1.818   5.888   8.677  2.1050 -0.4025  2.2199
   30bbb     C4  910   1.845   6.006   8.850 -0.6591  0.4286 -0.2628
   30bbb     H7  911   1.895   5.914   8.885 -0.2586  0.7858  0.1205
   30bbb     H8  912   1.794   6.050   8.937  0.4146  2.7240 -0.7203
   30bbb     C5  913   1.400   5.896   8.857 -0.3102  0.2497  0.6975
   30bbb     H9  914   1.379   5.790   8.840 -1.2903  0.7434 -1.6170
   30bbb    H10  915   1.309   5.946   8.820  1.1316  1.4909 -1.3798
   30bbb     C6  916   1.733   5.623   8.779  0.6216 -0.1162  0.3137
   30bbb    H11  917   1.816   5.665   8.837 -0.3347  1.3133  0.6836
   30bbb    H12  918   1.786   5.558   8.708  0.6418 -0.5906  0.7581
   30bbb     C7  919   1.966   6.094   8.812 -0.1789  0.3738  0.0466
   30bbb    H13  920   2.033   6.046   8.740  1.3632  0.4787  1.3508
   30bbb    H14  921   2.022   6.113   8.905  0.7274  0.8806 -0.5928
   30bbb     C8  922   1.644   5.540   8.870 -1.1884  0.1116  0.4618
   30bbb    H15  923   1.609   5.601   8.954 -0.5923  0.1855  0.6631
   30bbb    H16  924   1.550   5.504   8.826 -1.2407 -1.9651  2.1022
   30bbb     C9  925   1.427   5.925   9.003  0.6851  0.6680 -1.1883
   30bbb    H17  926   1.457   6.030   9.012 -2.3017  1.5104 -0.0451
   30bbb    H18  927   1.512   5.868   9.043  0.2535  1.6607  1.3527
   30bbb     O1  928   1.922   6.221   8.757  0.2418 -0.0141  0.0461
   30bbb    H19  929   1.651   5.844   8.887  0.8618 -1.5853 -0.8328
   31bbb     N1  930   1.372   5.835   8.061 -0.6457  0.5805  0.1032
   31bbb     C1  931   1.279   5.835   8.178  0.7059 -0.8312 -0.8322
   31bbb     H1  932   1.192   5.897   8.157 -1.6412 -2.7756  2.2608
   31bbb     H2  933   1.334   5.882   8.260  1.0481 -0.6218 -1.1761
   31bbb     C2  934   1.299   5.766   7.949  0.1992 -0.5254  0.0425
   31bbb     H3  935   1.263   5.845   7.883  2.4841 -0.1776 -0.8705
   31bbb     H4  936   1.213   5.702   7.971  2.3816 -3.5140  0.5203
   31bbb     C3  937   1.421   5.971   8.023 -1.0338  0.3936  0.3293
   31bbb     H5  938   1.342   6.042   8.003 -0.6523  0.7265 -0.0201
   31bbb     H6  939   1.480   5.961   7.931  0.3575  1.1969  1.1127
   31bbb     C4  940   1.513   6.047   8.115 -0.0310  0.1106 -0.4601
   31bbb     H7  941   1.603   5.994   8.148 -0.5125  0.5369  1.6436
   31bbb     H8  942   1.451   6.074   8.201  0.8716  1.3169 -0.1572
   31bbb     C5  943   1.224   5.694   8.222 -0.0177 -0.2142  0.3676
   31bbb     H9  944   1.308   5.640   8.269 -0.7178 -0.7782  0.9976
   31bbb    H10  945   1.196   5.627   8.140 -2.5390 -0.4216  1.3266
   31bbb     C6  946   1.393   5.678   7.865  0.4506  0.2863 -0.1975
   31bbb    H11  947   1.478   5.740   7.834 -0.8747  2.1079 -0.3015
   31bbb    H12  948   1.344   5.656   7.769 -1.6581 -0.4230  0.9686
   31bbb     C7  949   1.572   6.185   8.052 -0.0832  0.3207 -0.0830
   31bbb    H13  950   1.491   6.251   8.018  1.2362  2.5199  0.8212
   31bbb    H14  951   1.635   6.164   7.965 -1.0283  0.5325 -0.8394
   31bbb     C8  952   1.420   5.546   7.934 -0.4240 -0.2955 -0.1875
   31bbb    H15  953   1.472   5.572   8.027 -0.8541  2.5603 -0.6587
   31bbb    H16  954   1.326   5.502   7.970  0.3439 -1.0783  0.9323
   31bbb     C9  955   1.115   5.710   8.330  0.4326 -0.3921 -0.3971
   31bbb    H17  956   1.156   5.773   8.410 -0.7648 -1.7526  1.3783
   31bbb    H18  957   1.099   5.611   8.374  0.0164 -0.2159 -0.1495
   31bbb     O1  958   1.648   6.243   8.156  0.0081  0.1729  0.0065
   31bbb    H19  959   1.454   5.779   8.089 -0.1664  2.2452  2.4003
   32bbb     N1  960   0.423   7.172   8.726  0.0262  0.0432  0.0718
   32bbb     C1  961   0.485   7.093   8.842 -0.1120 -0.0504  0.4484
   32bbb     H1  962   0.553   7.021   8.795  0.4119  1.3998 -1.1167
   32bbb     H2  963   0.419   7.029   8.901  0.5990  0.2377  1.5805
   32bbb     C2  964   0.348   7.297   8.782  0.4999 -0.0102 -0.0634
   32bbb     H3  965   0.424   7.363   8.824  1.5380  0.0036 -1.8754
   32bbb     H4  966   0.282   7.270   8.865 -2.0280  3.2002 -0.8205
   32bbb     C3  967   0.531   7.218   8.627 -0.0810 -0.2908 -0.0164
   32bbb     H5  968   0.583   7.303   8.672 -1.9433  1.1672 -0.5113
   32bbb     H6  969   0.479   7.252   8.538 -0.3159 -0.5201  0.0330
   32bbb     C4  970   0.631   7.105   8.580 -0.5306 -0.1888  0.0053
   32bbb     H7  971   0.571   7.017   8.553 -3.0562  1.6038 -0.5335
   32bbb     H8  972   0.694   7.083   8.667  0.8956  1.3593 -0.5842
   32bbb     C5  973   0.559   7.185   8.940 -0.1791 -0.1384  0.1917
   32bbb     H9  974   0.483   7.245   8.993  0.5446 -0.0580  1.1731
   32bbb    H10  975   0.626   7.257   8.892  1.0331 -2.1596 -1.2500
   32bbb     C6  976   0.279   7.388   8.691  0.0725 -0.2617  0.4320
   32bbb    H11  977   0.351   7.447   8.634 -0.7660  0.5264  0.1601
   32bbb    H12  978   0.213   7.446   8.756  1.2919 -0.1521  1.6005
   32bbb     C7  979   0.713   7.135   8.459 -0.1863  0.4498  0.1536
   32bbb    H13  980   0.655   7.204   8.396 -1.6121 -2.0008 -1.3523
   32bbb    H14  981   0.727   7.044   8.400  1.7820  1.3802 -0.8822
   32bbb     C8  982   0.193   7.312   8.585  0.0783  0.3712  0.4083
   32bbb    H15  983   0.249   7.249   8.515  0.0842  0.4519  0.3400
   32bbb    H16  984   0.118   7.252   8.639  1.1809 -2.5871 -1.0908
   32bbb     C9  985   0.645   7.111   9.043  0.1552  0.1138  0.3137
   32bbb    H17  986   0.681   7.186   9.114 -0.6239 -0.2780  1.1458
   32bbb    H18  987   0.727   7.066   8.986 -0.7077 -0.8450 -0.2157
   32bbb     O1  988   0.842   7.194   8.495 -0.3597 -0.4454 -0.1275
   32bbb    H19  989   0.355   7.114   8.674 -0.7344  0.6119  0.4131
   33bbb     N1  990   0.893   8.306   8.353  0.0795 -0.0604  0.2035
   33bbb     C1  991   0.821   8.245   8.233  0.4045 -0.0155 -0.1336
   33bbb     H1  992   0.743   8.315   8.204 -2.3186 -0.7255  4.5309
   33bbb     H2  993   0.763   8.160   8.271 -0.9423  1.6213  1.6725
   33bbb     C2  994   0.789   8.335   8.464 -0.0015  0.0097 -0.5968
   33bbb     H3  995   0.760   8.238   8.505 -0.8940  1.0896  1.4992
   33bbb     H4  996   0.696   8.373   8.421 -0.7519 -0.1636  0.7955
   33bbb     C3  997   0.990   8.204   8.410  0.5269  0.6555 -0.0487
   33bbb     H5  998   1.030   8.246   8.502  0.7406 -1.5649  0.9247
   33bbb     H6  999   1.063   8.188   8.331  0.1029 -1.6713 -0.0535
   33bbb     C4 1000   0.953   8.064   8.445  0.6292 -0.8688  0.4125
   33bbb     H7 1001   0.943   8.001   8.356 -1.6903 -1.0339  0.7197
   33bbb     H8 1002   0.862   8.066   8.506  1.0470  2.0482  1.1064
   33bbb     C5 1003   0.910   8.206   8.116 -0.5341  0.1855 -0.1978
   33bbb     H9 1004   0.971   8.119   8.144  0.3082  0.7071 -0.3618
   33bbb    H10 1005   0.981   8.288   8.099  1.0706 -0.9782  0.5432
   33bbb     C6 1006   0.845   8.427   8.582 -0.1205 -0.9764  0.4429
   33bbb    H11 1007   0.881   8.519   8.533  0.4909 -1.3985  0.0725
   33bbb    H12 1008   0.928   8.388   8.642  0.2017  2.0407  2.1526
   33bbb     C7 1009   1.067   8.000   8.523  0.1793 -0.7831 -0.3083
   33bbb    H13 1010   1.068   8.046   8.623  0.2468 -0.0070 -0.6577
   33bbb    H14 1011   1.161   8.012   8.468 -0.2036  0.1885 -0.7843
   33bbb     C8 1012   0.729   8.446   8.688 -0.2177  0.4183 -0.3284
   33bbb    H15 1013   0.635   8.458   8.633 -2.4189 -1.4235  2.7520
   33bbb    H16 1014   0.722   8.359   8.754  1.4085  0.6372  0.2017
   33bbb     C9 1015   0.829   8.177   7.988  0.1604  0.1368  0.2435
   33bbb    H17 1016   0.767   8.087   7.997  0.8504 -0.5992 -1.8812
   33bbb    H18 1017   0.884   8.158   7.895 -2.5068 -2.3615 -0.9861
   33bbb     O1 1018   1.037   7.857   8.535  0.5051  0.4406 -0.3936
   33bbb    H19 1019   0.935   8.395   8.324  0.6574 -1.0624 -2.3385
   34bbb     N1 1020   1.686   7.284   6.928 -0.3841  0.6645 -0.8737
   34bbb     C1 1021   1.628   7.190   7.030 -0.4678  0.3276  0.1517
   34bbb     H1 1022   1.522   7.188   7.006 -0.6355  0.3642  0.8685
   34bbb     H2 1023   1.631   7.239   7.127 -3.0137  0.9053 -0.0053
   34bbb     C2 1024   1.607   7.411   6.934  0.1913  0.5070 -0.0097
   34bbb     H3 1025   1.664   7.480   6.872  0.7616 -0.0312 -0.0900
   34bbb     H4 1026   1.609   7.451   7.036 -2.8143  0.4895  0.1362
   34bbb     C3 1027   1.831   7.323   6.959 -0.1956  0.2630  0.2081
   34bbb     H5 1028   1.841   7.308   7.066  1.2803 -1.0096 -0.0644
   34bbb     H6 1029   1.842   7.429   6.934 -2.1710  0.2300 -1.0916
   34bbb     C4 1030   1.929   7.249   6.865 -0.4252 -0.1241 -0.2366
   34bbb     H7 1031   1.910   7.284   6.763  2.1690 -0.0962 -0.7816
   34bbb     H8 1032   1.912   7.141   6.873 -0.0148 -0.3377 -1.8022
   34bbb     C5 1033   1.694   7.049   7.049  0.0072 -0.3389  0.9395
   34bbb     H9 1034   1.800   7.045   7.076  0.3609  4.2458  1.0419
   34bbb    H10 1035   1.682   6.992   6.956 -2.2886 -1.0130  1.5723
   34bbb     C6 1036   1.467   7.406   6.873  0.7597  0.1962 -0.6253
   34bbb    H11 1037   1.424   7.502   6.906  1.4784  0.6108 -0.8567
   34bbb    H12 1038   1.403   7.323   6.905  0.6724 -0.8928 -3.3198
   34bbb     C7 1039   2.078   7.287   6.907  0.5359  0.0637 -0.1588
   34bbb    H13 1040   2.088   7.396   6.903 -1.8043  0.3203 -0.2988
   34bbb    H14 1041   2.135   7.226   6.835 -0.2294  1.6502 -2.1974
   34bbb     C8 1042   1.477   7.406   6.716  0.3450  0.3300  0.0305
   34bbb    H15 1043   1.522   7.309   6.691  2.0023  0.3749  2.4684
   34bbb    H16 1044   1.380   7.405   6.665  1.0788  0.7842 -1.4179
   34bbb     C9 1045   1.602   6.977   7.149 -0.1011 -0.0594  0.1472
   34bbb    H17 1046   1.572   7.043   7.232  1.8233  0.8939  0.1406
   34bbb    H18 1047   1.659   6.895   7.195  1.3718  0.8810  0.0885
   34bbb     O1 1048   2.101   7.236   7.041 -0.3650 -0.2648 -0.3477
   34bbb    H19 1049   1.675   7.237   6.837  1.0014 -1.1761 -0.1587
   35bbb     N1 1050   2.539   6.697   6.599  0.5168 -0.9102 -0.8687
   35bbb     C1 1051   2.434   6.619   6.525  0.0721  0.3083 -0.4328
   35bbb     H1 1052   2.347   6.685   6.529  0.0010  0.6547 -4.0546
   35bbb     H2 1053   2.424   6.523   6.575  1.7722  1.0560  1.4646
   35bbb     C2 1054   2.577   6.821   6.519 -0.1924  0.1254 -0.5093
   35bbb     H3 1055   2.486   6.868   6.481  0.2992  1.9764  0.4678
   35bbb     H4 1056   2.631   6.787   6.431  0.0587  0.4902 -0.4962
   35bbb     C3 1057   2.495   6.735   6.744 -0.2791 -0.2471 -0.2190
   35bbb     H5 1058   2.406   6.797   6.742 -0.2038 -0.1218  0.3251
   35bbb     H6 1059   2.573   6.801   6.781  2.0134 -1.9194 -1.7963
   35bbb     C4 1060   2.482   6.618   6.835 -0.0298  0.2737 -0.3162
   35bbb     H7 1061   2.584   6.580   6.850 -0.5585 -2.2807 -2.3199
   35bbb     H8 1062   2.421   6.542   6.785 -1.1748  0.2785  1.0182
   35bbb     C5 1063   2.453   6.596   6.377  0.0154  0.7359  0.3405
   35bbb     H9 1064   2.558   6.575   6.355  0.4569 -0.4114  3.1507
   35bbb    H10 1065   2.422   6.687   6.324 -1.1112  1.0435  1.4691
   35bbb     C6 1066   2.669   6.927   6.580  0.3421  0.2073 -0.1291
   35bbb    H11 1067   2.768   6.883   6.598  0.9967  2.3197  1.8344
   35bbb    H12 1068   2.636   6.971   6.674  0.9764  1.4963 -0.4925
   35bbb     C7 1069   2.425   6.664   6.974  0.7097  0.1196 -0.2191
   35bbb    H13 1070   2.421   6.583   7.048 -2.2771  0.1572 -0.2286
   35bbb    H14 1071   2.324   6.704   6.960  1.3815  2.2037  0.4434
   35bbb     C8 1072   2.703   7.039   6.479  0.4839 -0.1284  0.4154
   35bbb    H15 1073   2.610   7.094   6.461  0.0530 -0.4308  1.6275
   35bbb    H16 1074   2.776   7.110   6.520 -0.5699  2.2179 -1.5293
   35bbb     C9 1075   2.377   6.476   6.312  0.5992  1.1636  0.2786
   35bbb    H17 1076   2.425   6.384   6.350  0.3045  1.3220  1.0639
   35bbb    H18 1077   2.399   6.486   6.205  1.5356 -0.6513  0.2535
   35bbb     O1 1078   2.505   6.764   7.041 -0.2097 -0.5701  0.5764
   35bbb    H19 1079   2.625   6.641   6.598  0.9370 -0.4778  1.9145
   36bbb     N1 1080   3.651   6.443   7.001 -0.7674 -0.5765  0.2324
   36bbb     C1 1081   3.653   6.483   6.852  0.3393  0.0829 -0.6066
   36bbb     H1 1082   3.549   6.467   6.825 -0.6977  1.6759  2.0786
   36bbb     H2 1083   3.711   6.408   6.798 -0.7846 -0.0694 -1.6436
   36bbb     C2 1084   3.794   6.417   7.049 -0.3532 -0.8697  0.1377
   36bbb     H3 1085   3.777   6.397   7.155 -2.0127 -0.1452  0.0421
   36bbb     H4 1086   3.851   6.509   7.031 -0.4474 -1.0467 -1.1535
   36bbb     C3 1087   3.607   6.567   7.089  0.4247 -0.2248 -0.1189
   36bbb     H5 1088   3.521   6.610   7.037  1.6572 -0.5041 -2.5445
   36bbb     H6 1089   3.686   6.643   7.097  1.6410 -1.3585 -0.8257
   36bbb     C4 1090   3.559   6.519   7.227  0.3346 -0.3024 -0.1421
   36bbb     H7 1091   3.630   6.518   7.311 -0.0007  1.7789  0.2173
   36bbb     H8 1092   3.516   6.418   7.221  0.2296 -0.3106  0.6595
   36bbb     C5 1093   3.703   6.622   6.799  0.4698 -0.4231 -0.5977
   36bbb     H9 1094   3.795   6.653   6.851  0.3525 -1.8898  0.5584
   36bbb    H10 1095   3.637   6.706   6.824  1.0584  0.8338 -2.9282
   36bbb     C6 1096   3.862   6.300   6.983  0.1697  0.6959 -0.3886
   36bbb    H11 1097   3.844   6.302   6.875 -1.4424  0.9697 -0.1392
   36bbb    H12 1098   3.815   6.208   7.021  0.0916  1.3013  1.0873
   36bbb     C7 1099   3.448   6.613   7.277  0.4342  0.1995 -0.8588
   36bbb    H13 1100   3.406   6.574   7.370 -0.9542  1.1711 -1.0535
   36bbb    H14 1101   3.370   6.611   7.200  1.7880 -2.0433 -2.2932
   36bbb     C8 1102   4.012   6.295   7.021 -0.6863 -0.1977  0.9173
   36bbb    H15 1103   4.059   6.375   6.963 -1.3027 -0.4971 -0.0295
   36bbb    H16 1104   4.026   6.301   7.130 -0.2487  0.5792  0.8258
   36bbb     C9 1105   3.720   6.612   6.642  0.1172  0.4060  0.2550
   36bbb    H17 1106   3.622   6.583   6.605  1.3526 -0.0685 -2.9741
   36bbb    H18 1107   3.793   6.536   6.613 -0.4355  0.2392 -0.7473
   36bbb     O1 1108   3.498   6.744   7.298  0.4831  0.0506 -0.0920
   36bbb    H19 1109   3.585   6.364   7.012 -2.6890  0.8594 -0.4662
   37bbb     N1 1110   3.872   6.296   8.087 -0.1996 -0.1150 -0.0191
   37bbb     C1 1111   4.011   6.332   8.140  0.1619  0.0828  1.0668
   37bbb     H1 1112   4.070   6.240   8.140  0.4998  0.2802  2.1703
   37bbb     H2 1113   4.008   6.367   8.243 -5.2640  3.1586  0.1988
   37bbb     C2 1114   3.819   6.185   8.181  0.6425 -0.0705 -0.0257
   37bbb     H3 1115   3.719   6.154   8.150 -0.2936 -0.4744  3.0638
   37bbb     H4 1116   3.808   6.222   8.283  0.9027  0.5619 -0.2179
   37bbb     C3 1117   3.774   6.416   8.089 -0.0944  0.4722  0.1542
   37bbb     H5 1118   3.840   6.494   8.051  0.8130 -0.8483 -1.0614
   37bbb     H6 1119   3.749   6.430   8.195  1.0441 -1.4282  0.7253
   37bbb     C4 1120   3.650   6.411   7.993 -0.0563  0.7537 -0.0230
   37bbb     H7 1121   3.577   6.338   8.027  2.8366 -2.3274  0.1276
   37bbb     H8 1122   3.686   6.376   7.895  1.8205  0.9580  0.5458
   37bbb     C5 1123   4.091   6.428   8.053  0.1439 -0.0101 -0.6026
   37bbb     H9 1124   4.056   6.532   8.046 -1.2471 -0.4420 -0.3490
   37bbb    H10 1125   4.079   6.391   7.950 -0.2427  0.1726 -0.6260
   37bbb     C6 1126   3.902   6.051   8.179 -0.3406 -0.2130 -0.5383
   37bbb    H11 1127   3.994   6.070   8.237 -0.2053 -2.1992 -0.0372
   37bbb    H12 1128   3.922   6.022   8.075 -1.3609 -1.8186 -0.3148
   37bbb     C7 1129   3.582   6.552   7.989  0.3569  0.4227 -0.0144
   37bbb    H13 1130   3.612   6.612   8.075 -0.1765  0.3324  0.2416
   37bbb    H14 1131   3.474   6.551   8.009  0.7137 -1.7043  2.2117
   37bbb     C8 1132   3.837   5.941   8.257  0.8652  0.3485 -0.1093
   37bbb    H15 1133   3.904   5.854   8.246  0.9263  0.5099 -1.1187
   37bbb    H16 1134   3.825   5.964   8.363 -1.9870  1.1470 -0.5401
   37bbb     C9 1135   4.243   6.449   8.080  0.2504  0.9525  0.5359
   37bbb    H17 1136   4.302   6.488   7.995  1.3887  0.4733  1.0855
   37bbb    H18 1137   4.286   6.350   8.099 -2.8079 -0.6384 -0.2307
   37bbb     O1 1138   3.608   6.608   7.857 -0.3936 -0.2288  0.3143
   37bbb    H19 1139   3.870   6.254   7.993  0.2678 -0.2270  0.0184
   38bbb     N1 1140   4.300   8.443  11.461  0.6233 -0.2592  0.1540
   38bbb     C1 1141   4.245   8.575  11.516 -0.3258 -0.3927  0.4527
   38bbb     H1 1142   4.330   8.631  11.554  0.5173 -1.1659 -0.2416
   38bbb     H2 1143   4.181   8.557  11.602  0.9205 -0.4373  1.3949
   38bbb     C2 1144   4.407   8.388  11.556  0.3820  0.1300  0.5425
   38bbb     H3 1145   4.358   8.336  11.639  0.8178  1.0481  1.3921
   38bbb     H4 1146   4.462   8.473  11.597  0.3202  0.0743  0.7385
   38bbb     C3 1147   4.182   8.343  11.444  0.0658 -0.0965  0.4544
   38bbb     H5 1148   4.222   8.251  11.403 -1.1673 -0.2718 -0.4318
   38bbb     H6 1149   4.129   8.393  11.362  0.0965  0.5703  0.8352
   38bbb     C4 1150   4.085   8.318  11.566  0.6398 -0.5002  0.3540
   38bbb     H7 1151   4.027   8.409  11.587  2.9236  1.2623 -0.5520
   38bbb     H8 1152   4.140   8.285  11.656 -0.5313 -1.4025  0.7625
   38bbb     C5 1153   4.154   8.654  11.423  0.4410  0.1473  0.2714
   38bbb     H9 1154   4.063   8.592  11.417  0.7563 -0.3349  0.4318
   38bbb    H10 1155   4.215   8.676  11.335  0.6985 -1.0436  0.1320
   38bbb     C6 1156   4.505   8.295  11.484 -0.1195  0.2538 -0.5526
   38bbb    H11 1157   4.552   8.348  11.401  2.1383 -0.5903  0.1111
   38bbb    H12 1158   4.448   8.205  11.458 -0.0490 -0.7174  2.2368
   38bbb     C7 1159   3.988   8.204  11.543  0.8290  0.5309 -0.2942
   38bbb    H13 1160   3.927   8.213  11.452  1.0007  1.1188 -0.3560
   38bbb    H14 1161   3.921   8.195  11.629  0.0708  1.6635 -0.7413
   38bbb     C8 1162   4.613   8.241  11.579 -0.3421  0.2982  0.4783
   38bbb    H15 1163   4.569   8.186  11.662  0.7989 -0.9773  0.2756
   38bbb    H16 1164   4.680   8.172  11.525  1.4862  3.2055 -1.2660
   38bbb     C9 1165   4.121   8.789  11.489  0.0461 -0.0462  0.4206
   38bbb    H17 1166   4.217   8.838  11.509  0.3083  0.1448 -1.1694
   38bbb    H18 1167   4.054   8.780  11.576 -0.7310 -1.8906 -0.3148
   38bbb     O1 1168   4.055   8.073  11.523 -0.1759 -0.5949  0.1439
   38bbb    H19 1169   4.345   8.463  11.371  1.7899 -0.6987  0.6180
   39bbb     N1 1170   4.308   6.993  11.512 -0.0940 -0.3192 -0.3261
   39bbb     C1 1171   4.174   6.920  11.499  0.3655  0.2473  0.4215
   39bbb     H1 1172   4.174   6.845  11.419  3.3620 -0.4875  0.9898
   39bbb     H2 1173   4.100   6.993  11.467  1.9236  1.5780 -0.2875
   39bbb     C2 1174   4.433   6.907  11.530  0.2534 -0.0705 -0.7653
   39bbb     H3 1175   4.446   6.841  11.444 -0.0800 -0.8174 -0.2462
   39bbb     H4 1176   4.426   6.842  11.617 -0.7346  1.7301  0.5595
   39bbb     C3 1177   4.333   7.087  11.386  0.5063 -0.3123 -0.7952
   39bbb     H5 1178   4.341   7.023  11.298 -1.6629  1.0163 -2.0477
   39bbb     H6 1179   4.435   7.123  11.401  0.9120 -1.5844 -0.3418
   39bbb     C4 1180   4.229   7.195  11.347 -0.2368 -0.0044  0.1601
   39bbb     H7 1181   4.207   7.263  11.430  0.6452  1.6199 -0.8712
   39bbb     H8 1182   4.130   7.155  11.322  0.0603 -0.9936  0.5147
   39bbb     C5 1183   4.130   6.835  11.617 -0.1438  0.6081 -0.1382
   39bbb     H9 1184   4.156   6.877  11.715 -0.1826 -0.5349  0.3778
   39bbb    H10 1185   4.177   6.737  11.605 -0.0379  0.6506 -0.0627
   39bbb     C6 1186   4.562   6.982  11.548  0.0131 -0.2334 -0.1976
   39bbb    H11 1187   4.591   7.024  11.451 -1.7531  3.7193  0.7896
   39bbb    H12 1188   4.636   6.911  11.586 -0.8229 -1.0488 -0.0597
   39bbb     C7 1189   4.274   7.282  11.226  0.4158  0.2487 -0.0664
   39bbb    H13 1190   4.225   7.250  11.133  1.0651  0.4274 -0.4799
   39bbb    H14 1191   4.380   7.260  11.207  0.2405 -1.6219  0.8635
   39bbb     C8 1192   4.542   7.100  11.645 -0.5007 -0.6905  0.2745
   39bbb    H15 1193   4.640   7.149  11.649 -0.5492 -0.5497 -0.1917
   39bbb    H16 1194   4.470   7.169  11.597  0.0579 -0.8379 -0.8154
   39bbb     C9 1195   3.982   6.806  11.618  0.1568 -0.4527  0.1087
   39bbb    H17 1196   3.962   6.728  11.544 -1.6542 -0.5372  0.6553
   39bbb    H18 1197   3.931   6.896  11.583  2.4357 -0.3252 -3.4603
   39bbb     O1 1198   4.262   7.426  11.251  0.2059  0.0735  0.6343
   39bbb    H19 1199   4.300   7.050  11.598 -0.1754 -0.0639 -0.4987
   40bbb     N1 1200   4.569   6.558  10.466  0.0137 -0.1495 -0.2680
   40bbb     C1 1201   4.560   6.447  10.360  1.0456  0.8836  0.4271
   40bbb     H1 1202   4.505   6.488  10.275  2.3878 -0.0246 -0.9258
   40bbb     H2 1203   4.495   6.368  10.400 -0.4242  1.1990 -1.2091
   40bbb     C2 1204   4.622   6.690  10.405 -0.7423  0.2567  0.5590
   40bbb     H3 1205   4.545   6.716  10.332 -0.2323 -1.6743 -0.7473
   40bbb     H4 1206   4.710   6.661  10.348 -2.4336 -0.1132 -2.0544
   40bbb     C3 1207   4.429   6.593  10.525  0.6037  0.6256 -0.1337
   40bbb     H5 1208   4.368   6.603  10.436 -0.9021  1.8183  0.9701
   40bbb     H6 1209   4.438   6.685  10.583  2.4996 -0.6901  1.8065
   40bbb     C4 1210   4.358   6.481  10.611 -0.0499 -0.2726 -0.5829
   40bbb     H7 1211   4.431   6.416  10.661  1.2360 -0.0378 -2.0868
   40bbb     H8 1212   4.296   6.411  10.553 -0.2973 -1.7319  1.3493
   40bbb     C5 1213   4.691   6.386  10.306 -0.8228 -0.1277  0.2914
   40bbb     H9 1214   4.749   6.334  10.384 -0.0166  0.2061 -0.0741
   40bbb    H10 1215   4.749   6.472  10.269  1.1563 -1.7901 -0.6980
   40bbb     C6 1216   4.637   6.806  10.513 -0.4570 -0.8838 -0.6557
   40bbb    H11 1217   4.559   6.806  10.590  0.4023  1.1082  0.2931
   40bbb    H12 1218   4.617   6.896  10.453 -1.5484 -1.8649 -1.8049
   40bbb     C7 1219   4.268   6.539  10.720  0.0545 -0.2481 -0.2627
   40bbb    H13 1220   4.331   6.562  10.806  0.5390  1.1554 -0.9693
   40bbb    H14 1221   4.190   6.464  10.742  2.8979 -3.5821 -0.6180
   40bbb     C8 1222   4.776   6.818  10.581  0.3653 -0.1391 -0.4764
   40bbb    H15 1223   4.857   6.828  10.508 -0.0398 -3.2245 -1.4863
   40bbb    H16 1224   4.773   6.903  10.650 -1.7810  1.4403 -2.3551
   40bbb     C9 1225   4.653   6.290  10.191 -0.5487  0.0637 -0.2957
   40bbb    H17 1226   4.616   6.359  10.115 -0.1603  0.3299 -0.2430
   40bbb    H18 1227   4.568   6.223  10.212 -2.5598  2.3459 -0.7467
   40bbb     O1 1228   4.200   6.660  10.659 -1.1815 -0.4537  0.2093
   40bbb    H19 1229   4.636   6.528  10.539 -0.9943  0.6083  1.0222
   41bbb     N1 1230   3.415   6.265  10.089  1.0539 -0.2845 -0.0225
   41bbb     C1 1231   3.265   6.290  10.105  0.7136  0.5174  0.1949
   41bbb     H1 1232   3.224   6.192  10.079  1.3434  0.5899 -1.1229
   41bbb     H2 1233   3.232   6.369  10.038  0.1431 -0.3307 -0.5549
   41bbb     C2 1234   3.430   6.152   9.989 -0.2452 -0.3294  0.6080
   41bbb     H3 1235   3.382   6.185   9.897 -0.8701  1.9162  1.6537
   41bbb     H4 1236   3.368   6.070  10.025 -2.8371  1.6706  1.0319
   41bbb     C3 1237   3.480   6.395  10.038  0.0541 -0.0974  0.5907
   41bbb     H5 1238   3.435   6.413   9.941 -0.2511  2.8506  1.1987
   41bbb     H6 1239   3.586   6.378  10.018 -0.2356  0.1427 -1.3376
   41bbb     C4 1240   3.469   6.532  10.109 -1.4236 -0.0550 -0.2632
   41bbb     H7 1241   3.472   6.506  10.216  0.0864  0.9681 -0.0361
   41bbb     H8 1242   3.368   6.572  10.092 -0.8934  0.7908 -1.5577
   41bbb     C5 1243   3.215   6.322  10.252  0.1649 -0.2623 -0.3723
   41bbb     H9 1244   3.111   6.358  10.251 -0.8728 -3.0014  1.0086
   41bbb    H10 1245   3.270   6.411  10.287 -0.1470 -0.0929 -0.3100
   41bbb     C6 1246   3.580   6.108   9.971 -0.8294 -0.0286  0.0868
   41bbb    H11 1247   3.646   6.187   9.933  0.1777 -1.5475 -1.4561
   41bbb    H12 1248   3.590   6.034   9.891 -1.1671 -1.0875  0.9909
   41bbb     C7 1249   3.579   6.644  10.081 -0.2717 -0.1636 -0.0108
   41bbb    H13 1250   3.567   6.735  10.141 -1.9218  0.3517 -1.0417
   41bbb    H14 1251   3.559   6.677   9.978  0.0363  0.2318  0.0509
   41bbb     C8 1252   3.635   6.063  10.107  0.5744  0.4387  0.4484
   41bbb    H15 1253   3.741   6.034  10.101  0.9756  1.7745  0.8356
   41bbb    H16 1254   3.631   6.143  10.182 -0.2525  0.0487  0.8381
   41bbb     C9 1255   3.225   6.207  10.354  0.2391 -0.2494  0.0675
   41bbb    H17 1256   3.225   6.252  10.454  0.1332  0.0942 -0.0837
   41bbb    H18 1257   3.322   6.157  10.345  0.2730 -0.1696 -0.0085
   41bbb     O1 1258   3.706   6.588  10.104 -0.0617 -0.0376  0.1493
   41bbb    H19 1259   3.458   6.239  10.178  0.1132 -0.7000  0.3174
   42bbb     N1 1260   2.226   8.758  10.666  0.3176 -0.6990 -0.5720
   42bbb     C1 1261   2.181   8.702  10.529 -0.4855 -0.0762 -0.1817
   42bbb     H1 1262   2.231   8.761  10.452 -0.6660 -0.9592 -0.9876
   42bbb     H2 1263   2.073   8.713  10.524 -0.2535  3.6224  0.3882
   42bbb     C2 1264   2.186   8.909  10.665  0.7890 -0.1381  0.0312
   42bbb     H3 1265   2.159   8.942  10.765  1.1071  1.0823 -0.2713
   42bbb     H4 1266   2.092   8.905  10.610  0.0719  1.0334  1.1223
   42bbb     C3 1267   2.154   8.684  10.774  0.9653 -0.4985 -0.2308
   42bbb     H5 1268   2.179   8.579  10.760  0.2854 -0.8177  0.8259
   42bbb     H6 1269   2.047   8.686  10.751  0.7457  1.7303  0.7302
   42bbb     C4 1270   2.188   8.726  10.920 -0.4314 -0.0828  0.0004
   42bbb     H7 1271   2.144   8.821  10.951  0.6569  0.6655 -0.6764
   42bbb     H8 1272   2.297   8.734  10.926 -0.4406  1.0594 -0.9132
   42bbb     C5 1273   2.219   8.547  10.502  0.1436 -0.3673 -0.3420
   42bbb     H9 1274   2.164   8.486  10.575 -0.6038  0.5152 -0.1507
   42bbb    H10 1275   2.325   8.535  10.529  0.2118 -1.7411 -1.1492
   42bbb     C6 1276   2.280   9.013  10.604  0.0018 -0.8260 -0.0964
   42bbb    H11 1277   2.318   8.981  10.506 -1.9502  0.9496 -1.5346
   42bbb    H12 1278   2.362   9.044  10.670 -1.6954  0.1900  1.6181
   42bbb     C7 1279   2.160   8.619  11.029  0.1490 -0.3708  0.5041
   42bbb    H13 1280   2.057   8.582  11.024  0.4254 -1.0608 -0.5709
   42bbb    H14 1281   2.196   8.657  11.125  1.4131 -1.1636  0.3763
   42bbb     C8 1282   2.204   9.147  10.569 -0.3650  0.2486  0.0576
   42bbb    H15 1283   2.126   9.108  10.503  1.2977 -0.6642 -1.4816
   42bbb    H16 1284   2.160   9.187  10.661  0.6037 -0.8933  1.0518
   42bbb     C9 1285   2.196   8.484  10.365 -0.4009 -0.6248 -0.0395
   42bbb    H17 1286   2.108   8.511  10.305  0.6169 -0.0798 -1.3532
   42bbb    H18 1287   2.190   8.375  10.357  0.4958 -0.5419 -3.8662
   42bbb     O1 1288   2.233   8.502  10.989  0.4646  0.0313 -0.1045
   42bbb    H19 1289   2.328   8.748  10.679  0.2669 -1.3050 -0.5954
   43bbb     N1 1290   2.097   8.831  11.857  0.3152  0.0069  0.6925
   43bbb     C1 1291   1.984   8.788  11.760  0.1914  0.5098 -0.4308
   43bbb     H1 1292   1.900   8.748  11.817  0.0216  0.3810 -0.7714
   43bbb     H2 1293   2.011   8.701  11.700  0.5288  0.2357  0.1147
   43bbb     C2 1294   2.039   8.936  11.961 -0.5850 -0.1115  0.1615
   43bbb     H3 1295   1.982   8.887  12.040 -2.0129  2.1248  0.6024
   43bbb     H4 1296   1.967   9.005  11.917  0.9977  2.7063  1.7031
   43bbb     C3 1297   2.149   8.716  11.936 -0.6133  0.6048 -0.1070
   43bbb     H5 1298   2.068   8.670  11.994  1.6064 -2.5290  0.8368
   43bbb     H6 1299   2.211   8.759  12.014  0.3592  0.5406 -0.8307
   43bbb     C4 1300   2.225   8.605  11.862 -0.9827 -0.6851 -0.5203
   43bbb     H7 1301   2.157   8.558  11.789 -1.5824  0.3783 -0.6731
   43bbb     H8 1302   2.261   8.524  11.927 -2.9437 -0.3048  1.1369
   43bbb     C5 1303   1.933   8.898  11.666 -1.0517  0.2197 -0.8265
   43bbb     H9 1304   1.898   8.848  11.575 -1.6719  0.4020 -0.6933
   43bbb    H10 1305   2.012   8.961  11.623  0.0711 -0.6242 -0.0593
   43bbb     C6 1306   2.140   9.023  12.031  0.5470 -0.6656  0.3519
   43bbb    H11 1307   2.199   8.980  12.114  0.0178  0.0707  1.1178
   43bbb    H12 1308   2.077   9.082  12.099  0.1262 -1.8415  1.0175
   43bbb     C7 1309   2.359   8.644  11.791 -0.3098  0.3850  0.0741
   43bbb    H13 1310   2.428   8.680  11.868  0.3726  0.9405 -0.7782
   43bbb    H14 1311   2.330   8.722  11.720 -3.1416 -1.4289 -0.9159
   43bbb     C8 1312   2.219   9.123  11.944  0.2144 -0.7528 -0.9605
   43bbb    H15 1313   2.253   9.207  12.005 -0.5389 -0.1531 -1.3446
   43bbb    H16 1314   2.312   9.080  11.905  0.4856 -0.0690 -1.0808
   43bbb     C9 1315   1.819   8.986  11.716  0.2125 -0.2724  0.0899
   43bbb    H17 1316   1.771   9.024  11.625 -0.0687 -2.6056 -0.8103
   43bbb    H18 1317   1.855   9.073  11.773 -3.3035  0.5364  1.3318
   43bbb     O1 1318   2.413   8.527  11.728 -0.4068  0.0152  0.0494
   43bbb    H19 1319   2.166   8.885  11.802 -1.5730  2.1061  0.2496
   44bbb     N1 1320   2.552   7.226  11.807 -0.6176 -0.2090  0.3666
   44bbb     C1 1321   2.508   7.203  11.664 -0.5773  0.4576  0.2252
   44bbb     H1 1322   2.601   7.191  11.608 -0.9502 -0.2448 -0.2640
   44bbb     H2 1323   2.472   7.298  11.624  0.7327  1.1171  0.5613
   44bbb     C2 1324   2.603   7.096  11.865 -0.0391 -1.5569 -0.1077
   44bbb     H3 1325   2.693   7.059  11.815  0.4893 -0.8834  0.3201
   44bbb     H4 1326   2.527   7.018  11.862 -1.0252 -0.5844 -1.8316
   44bbb     C3 1327   2.665   7.331  11.793  0.1924 -0.0458 -0.6742
   44bbb     H5 1328   2.747   7.282  11.739  0.5882 -1.3770  1.0065
   44bbb     H6 1329   2.710   7.351  11.891 -0.7890 -0.4867 -0.1231
   44bbb     C4 1330   2.621   7.474  11.745  0.5583 -0.3890 -0.2059
   44bbb     H7 1331   2.518   7.492  11.780  0.5891  1.4311 -0.9071
   44bbb     H8 1332   2.628   7.476  11.636 -0.0722  3.4255 -0.3153
   44bbb     C5 1333   2.414   7.087  11.633  0.8607  1.0982  0.1202
   44bbb     H9 1334   2.340   7.086  11.714  1.3376  0.5212  0.5503
   44bbb    H10 1335   2.469   6.993  11.640 -0.9019  0.1646  4.0638
   44bbb     C6 1336   2.644   7.128  12.011 -0.1541  0.3079  0.3903
   44bbb    H11 1337   2.565   7.172  12.073  1.6661  1.5503  1.9469
   44bbb    H12 1338   2.731   7.195  12.011  1.5288 -1.7655 -0.2348
   44bbb     C7 1339   2.712   7.582  11.808 -0.5140 -0.4837  0.1297
   44bbb    H13 1340   2.708   7.560  11.915 -0.0758  0.2356  0.3041
   44bbb    H14 1341   2.667   7.682  11.803 -0.8168 -0.6585 -1.1191
   44bbb     C8 1342   2.684   6.992  12.067 -0.2237 -0.0761 -0.1675
   44bbb    H15 1343   2.609   6.913  12.055  0.5791 -0.8242 -0.3724
   44bbb    H16 1344   2.776   6.954  12.021 -0.1224 -0.1874  0.1281
   44bbb     C9 1345   2.339   7.101  11.501 -0.2731 -1.0591 -0.0954
   44bbb    H17 1346   2.410   7.087  11.418 -0.8859 -4.0849 -0.2338
   44bbb    H18 1347   2.286   7.197  11.497 -1.1073 -1.5302 -0.6035
   44bbb     O1 1348   2.841   7.584  11.749 -0.0768 -0.2434 -0.1522
   44bbb    H19 1349   2.477   7.265  11.866 -1.2465  0.8439 -1.0641
   45bbb     N1 1350   3.085   8.417  12.204 -0.0409 -0.3883  0.1286
   45bbb     C1 1351   2.942   8.401  12.259  0.1334  0.7071  0.1971
   45bbb     H1 1352   2.938   8.348  12.354  0.0143  0.1427 -0.1138
   45bbb     H2 1353   2.889   8.334  12.190 -0.0810  1.8442 -0.7759
   45bbb     C2 1354   3.194   8.469  12.302 -1.2912  0.0328  0.1791
   45bbb     H3 1355   3.170   8.574  12.319 -2.3439 -0.0606 -0.6230
   45bbb     H4 1356   3.292   8.468  12.255 -1.1485 -1.3172  0.4610
   45bbb     C3 1357   3.125   8.290  12.148  0.9202 -0.1921 -0.3718
   45bbb     H5 1358   3.044   8.254  12.083  0.3969 -0.2333  0.2865
   45bbb     H6 1359   3.123   8.230  12.239  0.0055 -0.4564 -0.5445
   45bbb     C4 1360   3.264   8.280  12.084  0.0404  0.6643 -0.0069
   45bbb     H7 1361   3.351   8.308  12.144  3.1210 -0.5784 -3.4687
   45bbb     H8 1362   3.268   8.336  11.989 -2.2321  0.8949 -0.0328
   45bbb     C5 1363   2.868   8.534  12.283  0.4375 -0.8890  0.1127
   45bbb     H9 1364   2.838   8.564  12.182 -0.4428 -1.1099  0.2997
   45bbb    H10 1365   2.930   8.614  12.326  1.8039 -1.0219 -1.5041
   45bbb     C6 1366   3.199   8.395  12.443 -0.1607 -0.3387  0.6506
   45bbb    H11 1367   3.216   8.288  12.424 -0.1399 -0.7874  2.9565
   45bbb    H12 1368   3.103   8.398  12.496  0.3210  3.3555  1.5839
   45bbb     C7 1369   3.296   8.137  12.037  0.7457  0.0624 -0.1833
   45bbb    H13 1370   3.300   8.075  12.128  1.4301  0.4634  0.0715
   45bbb    H14 1371   3.399   8.145  11.999  1.6717  2.6666  2.4338
   45bbb     C8 1372   3.311   8.452  12.537  0.0999  0.5836 -0.2792
   45bbb    H15 1373   3.279   8.426  12.638  1.7396  1.5170  0.5219
   45bbb    H16 1374   3.398   8.389  12.512  0.1850  0.8840 -0.7633
   45bbb     C9 1375   2.739   8.513  12.369  0.5759 -0.4785 -0.4399
   45bbb    H17 1376   2.675   8.432  12.331 -0.2967  0.2816 -0.6310
   45bbb    H18 1377   2.692   8.612  12.374  0.9379 -0.3503  1.0340
   45bbb     O1 1378   3.199   8.076  11.947  0.1822 -0.2975 -0.2924
   45bbb    H19 1379   3.078   8.486  12.127 -0.0040  0.1748  0.6182
   46bbb     N1 1380   4.272   8.723   6.599  0.1364  0.2373  0.2847
   46bbb     C1 1381   4.242   8.720   6.448 -0.0696 -0.2177  0.8078
   46bbb     H1 1382   4.146   8.770   6.440 -0.8077 -1.8769 -2.1744
   46bbb     H2 1383   4.225   8.619   6.410 -3.0543  0.5065 -0.0161
   46bbb     C2 1384   4.179   8.634   6.678  0.0880  0.0451  0.1724
   46bbb     H3 1385   4.214   8.625   6.780  1.9522  1.9838 -0.2287
   46bbb     H4 1386   4.187   8.534   6.635 -0.0487 -0.2984  0.9288
   46bbb     C3 1387   4.414   8.673   6.634  0.8014  1.3072  0.2279
   46bbb     H5 1388   4.482   8.720   6.563  0.6383 -0.2243 -1.0011
   46bbb     H6 1389   4.414   8.565   6.614  0.3142  1.7474 -2.6008
   46bbb     C4 1390   4.463   8.707   6.774 -0.2314  0.5078  0.2215
   46bbb     H7 1391   4.396   8.672   6.854  0.4417  1.4463  1.2231
   46bbb     H8 1392   4.468   8.814   6.798 -0.8521  0.7865 -0.8059
   46bbb     C5 1393   4.354   8.787   6.365  0.5823  0.5111  0.0451
   46bbb     H9 1394   4.441   8.721   6.359  1.3159  1.2078  2.0077
   46bbb    H10 1395   4.405   8.870   6.417  0.0145  1.5351 -0.9713
   46bbb     C6 1396   4.027   8.675   6.658  0.5883 -0.1669 -1.1028
   46bbb    H11 1397   3.990   8.668   6.555 -2.0155  0.4649 -0.3016
   46bbb    H12 1398   4.024   8.776   6.701 -1.9025 -0.8856  0.7103
   46bbb     C7 1399   4.598   8.642   6.814 -0.3609 -0.2928 -0.4775
   46bbb    H13 1400   4.583   8.534   6.823 -1.5276 -0.3147 -2.1384
   46bbb    H14 1401   4.632   8.680   6.911  1.1055 -0.1677 -1.0121
   46bbb     C8 1402   3.945   8.585   6.752  0.3473 -0.0427  0.4798
   46bbb    H15 1403   3.836   8.596   6.738  0.3951 -1.0659 -0.8433
   46bbb    H16 1404   3.965   8.481   6.726 -1.7051 -0.1838 -0.7680
   46bbb     C9 1405   4.307   8.840   6.232 -0.0679 -0.6334  0.4418
   46bbb    H17 1406   4.395   8.887   6.185 -0.2825 -1.2372 -0.5910
   46bbb    H18 1407   4.227   8.913   6.248  0.4217 -0.5511  2.9244
   46bbb     O1 1408   4.701   8.676   6.724 -0.3080  0.0623  0.4509
   46bbb    H19 1409   4.255   8.820   6.626  0.0082  0.4383 -0.4904
   47bbb     N1 1410   5.432   9.315   6.501 -0.6397  0.4348 -0.0631
   47bbb     C1 1411   5.308   9.240   6.456  0.1951 -0.3460 -0.0126
   47bbb     H1 1412   5.217   9.268   6.509 -2.3888  0.0739 -4.1890
   47bbb     H2 1413   5.327   9.135   6.481  0.9126  0.0826  1.3759
   47bbb     C2 1414   5.420   9.466   6.481 -0.5938 -0.5823 -0.5738
   47bbb     H3 1415   5.401   9.489   6.376  2.5742  0.9695 -0.9219
   47bbb     H4 1416   5.513   9.517   6.508 -1.1554  0.0402  0.2065
   47bbb     C3 1417   5.458   9.269   6.648  0.5432 -0.4551 -0.0001
   47bbb     H5 1418   5.385   9.324   6.708  1.2281  0.3499  0.1116
   47bbb     H6 1419   5.549   9.322   6.675 -0.0987  1.0766 -0.6950
   47bbb     C4 1420   5.492   9.122   6.679  0.1153 -0.0709 -0.1947
   47bbb     H7 1421   5.576   9.098   6.613  0.8911  0.0237  0.7383
   47bbb     H8 1422   5.410   9.056   6.650 -0.8608  0.5287  1.1019
   47bbb     C5 1423   5.273   9.251   6.308  0.3129 -0.1745 -0.1826
   47bbb     H9 1424   5.357   9.245   6.238  0.7170 -0.6284  0.3352
   47bbb    H10 1425   5.219   9.344   6.287  0.8708 -0.2355 -2.0557
   47bbb     C6 1426   5.308   9.537   6.564 -0.3103  0.2029 -0.2800
   47bbb    H11 1427   5.316   9.510   6.670  0.3861 -1.5492 -0.7548
   47bbb    H12 1428   5.211   9.514   6.519  0.6160 -1.4030 -1.5433
   47bbb     C7 1429   5.518   9.088   6.828 -0.2250 -0.2503 -0.3217
   47bbb    H13 1430   5.567   9.170   6.882  0.5764 -1.3391  0.6583
   47bbb    H14 1431   5.577   9.000   6.856 -1.6336 -0.9775  0.4524
   47bbb     C8 1432   5.323   9.687   6.550  0.3052  0.2880 -0.4166
   47bbb    H15 1433   5.324   9.708   6.442 -1.5224  1.3985 -0.2592
   47bbb    H16 1434   5.237   9.749   6.580  2.0807  3.1156 -0.7138
   47bbb     C9 1435   5.173   9.132   6.268 -0.1088 -0.1206  0.2525
   47bbb    H17 1436   5.087   9.126   6.336 -0.3583 -0.1073 -0.0600
   47bbb    H18 1437   5.229   9.038   6.275 -0.0535 -0.6065 -4.0561
   47bbb     O1 1438   5.389   9.076   6.897 -0.1666 -0.9172 -0.0016
   47bbb    H19 1439   5.515   9.279   6.451 -1.8966 -1.1640 -1.0754
   48bbb     N1 1440   5.635   7.483   6.901  0.1342 -0.0526 -0.3349
   48bbb     C1 1441   5.524   7.416   6.985 -0.2410  0.6248 -0.9711
   48bbb     H1 1442   5.454   7.496   7.008 -3.1005 -2.1543  0.8186
   48bbb     H2 1443   5.565   7.378   7.078 -0.8049 -1.6752 -1.6012
   48bbb     C2 1444   5.555   7.541   6.783 -0.3394  0.0295  0.0228
   48bbb     H3 1445   5.488   7.618   6.821 -0.9560  0.0871 -1.1271
   48bbb     H4 1446   5.493   7.457   6.749 -0.3322 -0.0328  0.1608
   48bbb     C3 1447   5.680   7.602   6.985 -0.1613  0.7306 -0.3419
   48bbb     H5 1448   5.693   7.559   7.084 -1.8795  0.3841 -0.2280
   48bbb     H6 1449   5.601   7.676   6.999  1.0946  2.1855 -0.6442
   48bbb     C4 1450   5.809   7.666   6.936  0.4387 -0.0772  0.0371
   48bbb     H7 1451   5.793   7.755   6.873  1.8362 -1.2205 -2.0744
   48bbb     H8 1452   5.852   7.595   6.865  0.8551  0.3139 -0.1123
   48bbb     C5 1453   5.444   7.292   6.920  0.0889  0.6736 -0.5314
   48bbb     H9 1454   5.393   7.317   6.826  0.0498 -3.0439 -1.6765
   48bbb    H10 1455   5.370   7.256   6.992 -0.5653  0.3337 -1.3670
   48bbb     C6 1456   5.644   7.571   6.661  0.2009 -0.4578 -0.1077
   48bbb    H11 1457   5.725   7.499   6.643  0.6227 -0.2954  1.0529
   48bbb    H12 1458   5.700   7.661   6.691 -0.7472  0.0584  0.1668
   48bbb     C7 1459   5.906   7.698   7.052  0.7863  0.3173  0.1256
   48bbb    H13 1460   5.979   7.766   7.007  0.5080  0.5339 -0.0030
   48bbb    H14 1461   5.949   7.602   7.083 -0.0711 -0.1744 -0.1700
   48bbb     C8 1462   5.557   7.612   6.537 -0.9629  0.1234  0.8138
   48bbb    H15 1463   5.524   7.717   6.545 -0.5399  0.3171  0.0909
   48bbb    H16 1464   5.619   7.618   6.447 -1.4566  2.1115  0.5431
   48bbb     C9 1465   5.547   7.175   6.891  0.3515  0.1177 -0.2539
   48bbb    H17 1466   5.488   7.091   6.854  0.2714 -1.5003  3.1399
   48bbb    H18 1467   5.593   7.132   6.981  0.9437  0.0306 -0.5973
   48bbb     O1 1468   5.846   7.766   7.165 -0.1871  0.5010  0.1936
   48bbb    H19 1469   5.708   7.414   6.876 -0.6928 -1.5281  1.0917
   49bbb     N1 1470   6.223   8.431   6.766  0.4345 -0.2061 -0.0646
   49bbb     C1 1471   6.287   8.549   6.837  0.5322  0.0311 -0.3306
   49bbb     H1 1472   6.312   8.541   6.943  1.4776  4.1410 -0.0709
   49bbb     H2 1473   6.209   8.624   6.847 -0.6345 -1.3935  3.3849
   49bbb     C2 1474   6.305   8.298   6.780 -0.6474  0.1208  0.0534
   49bbb     H3 1475   6.305   8.267   6.885  1.2636 -0.6751 -0.1458
   49bbb     H4 1476   6.411   8.317   6.759 -0.8449 -0.4803 -1.5918
   49bbb     C3 1477   6.084   8.410   6.823 -0.3049  0.0410 -0.9024
   49bbb     H5 1478   6.089   8.373   6.926 -1.6635 -1.3950 -1.3169
   49bbb     H6 1479   6.055   8.321   6.767 -1.7091 -0.2971  0.2828
   49bbb     C4 1480   5.974   8.515   6.802 -0.0003  0.2780 -0.8486
   49bbb     H7 1481   5.976   8.564   6.704 -0.4529  2.3093  0.0985
   49bbb     H8 1482   5.987   8.599   6.871 -0.4319 -1.5483  1.5631
   49bbb     C5 1483   6.409   8.609   6.769 -0.3420  0.2869 -0.1990
   49bbb     H9 1484   6.373   8.679   6.693  1.1222  2.9218  1.3488
   49bbb    H10 1485   6.477   8.530   6.735  0.6513  0.4497  1.2823
   49bbb     C6 1486   6.251   8.179   6.691 -0.3501  0.4508 -0.0821
   49bbb    H11 1487   6.208   8.204   6.593 -1.8752 -2.6102 -0.3396
   49bbb    H12 1488   6.172   8.130   6.749 -1.8048 -1.0378 -3.0817
   49bbb     C7 1489   5.841   8.448   6.826  0.4821  1.0853 -0.3880
   49bbb    H13 1490   5.821   8.373   6.749 -4.7202  2.9554 -1.2810
   49bbb    H14 1491   5.761   8.522   6.812  0.1813  0.8725  0.1739
   49bbb     C8 1492   6.357   8.073   6.669  0.9736  0.0921 -0.1336
   49bbb    H15 1493   6.412   8.050   6.761  2.9055 -0.3965 -1.3541
   49bbb    H16 1494   6.317   7.980   6.627 -0.5186  0.6712 -0.0700
   49bbb     C9 1495   6.490   8.695   6.863 -0.9557 -0.5620  0.1795
   49bbb    H17 1496   6.530   8.632   6.944 -1.7113  0.0554  1.0574
   49bbb    H18 1497   6.424   8.766   6.915  1.3211  1.5083  0.4077
   49bbb     O1 1498   5.836   8.376   6.956  0.2356  0.3028  0.4951
   49bbb    H19 1499   6.211   8.441   6.664  0.9132 -1.8313 -0.3056
   50bbb     N1 1500   5.802   8.835   9.443  0.0327  0.0234  0.1359
   50bbb     C1 1501   5.798   8.919   9.316  0.5430  0.6684  0.1810
   50bbb     H1 1502   5.770   9.019   9.350 -0.5718  0.6137 -0.5234
   50bbb     H2 1503   5.711   8.884   9.261  0.7050  1.7233 -0.7890
   50bbb     C2 1504   5.673   8.796   9.491  0.6126 -0.5607 -0.1472
   50bbb     H3 1505   5.686   8.733   9.579  1.4234 -0.9453 -0.5395
   50bbb     H4 1506   5.636   8.735   9.409  0.7651 -1.3733  0.3699
   50bbb     C3 1507   5.879   8.707   9.414 -0.3618 -0.1969  0.3844
   50bbb     H5 1508   5.975   8.730   9.369 -1.0860 -0.9623 -1.6840
   50bbb     H6 1509   5.819   8.651   9.341  0.9641 -0.0990 -0.8147
   50bbb     C4 1510   5.913   8.619   9.533  0.3790  0.0596  0.1870
   50bbb     H7 1511   5.830   8.605   9.604 -0.1880 -2.6802 -0.8838
   50bbb     H8 1512   5.994   8.671   9.586  0.6079 -0.2087  0.1020
   50bbb     C5 1513   5.922   8.919   9.219  0.0708  0.5828 -0.2646
   50bbb     H9 1514   5.898   8.977   9.129 -1.9201  1.5931  0.8316
   50bbb    H10 1515   5.939   8.821   9.174  0.2278  1.0238 -1.1857
   50bbb     C6 1516   5.580   8.915   9.529 -0.2078 -0.2031  0.4002
   50bbb    H11 1517   5.541   8.969   9.442 -1.0042  0.5110  1.1872
   50bbb    H12 1518   5.630   8.996   9.583 -0.1918 -0.8963  1.4426
   50bbb     C7 1519   5.956   8.475   9.490  0.1275  0.0587 -0.2300
   50bbb    H13 1520   5.996   8.426   9.580  0.1452 -0.3682 -0.4700
   50bbb    H14 1521   6.027   8.476   9.407  1.1073  0.4055  0.5877
   50bbb     C8 1522   5.458   8.861   9.610 -0.6363  0.0444 -0.0215
   50bbb    H15 1523   5.405   8.954   9.635  1.4380  0.6204  2.7326
   50bbb    H16 1524   5.395   8.785   9.562  0.7089 -1.2831  0.2234
   50bbb     C9 1525   6.040   9.000   9.280 -0.0615 -0.1577  0.1458
   50bbb    H17 1526   6.107   8.940   9.342 -0.3988 -1.0392 -0.3204
   50bbb    H18 1527   5.998   9.082   9.340 -0.0837  0.6919 -0.9930
   50bbb     O1 1528   5.841   8.400   9.445 -0.2451  0.7622 -0.6283
   50bbb    H19 1529   5.849   8.885   9.520  1.7797 -0.8304 -0.3238
   51bbb     N1 1530   5.822   7.973  10.346 -0.0903  0.1718  0.2195
   51bbb     C1 1531   5.761   7.857  10.274  0.2628 -0.4279 -0.3240
   51bbb     H1 1532   5.780   7.858  10.167 -2.6159 -0.2424 -0.9182
   51bbb     H2 1533   5.654   7.877  10.267 -0.7800 -3.7443  2.9850
   51bbb     C2 1534   5.968   8.000  10.312  0.4702  0.4611 -0.0602
   51bbb     H3 1535   5.977   8.039  10.210  2.2700 -1.8190 -0.8779
   51bbb     H4 1536   6.016   7.902  10.315 -0.4026  0.0105 -0.5590
   51bbb     C3 1537   5.752   8.101  10.300  0.0649 -0.3029  1.0034
   51bbb     H5 1538   5.792   8.186  10.355 -0.0831 -1.0663  2.3361
   51bbb     H6 1539   5.647   8.092  10.330  0.8337 -3.2413  3.3677
   51bbb     C4 1540   5.755   8.132  10.146 -0.1721  0.2649 -0.3016
   51bbb     H7 1541   5.747   8.043  10.082  0.4420 -0.0451  0.0389
   51bbb     H8 1542   5.853   8.172  10.118  0.3188 -0.9761 -0.4068
   51bbb     C5 1543   5.780   7.716  10.335  0.0416 -0.4391 -0.0526
   51bbb     H9 1544   5.749   7.630  10.274  2.2362 -2.8540  1.9850
   51bbb    H10 1545   5.712   7.699  10.420 -1.3020  0.6606 -0.8669
   51bbb     C6 1546   6.049   8.088  10.404 -0.9899  0.7743 -0.2069
   51bbb    H11 1547   5.987   8.162  10.456 -0.6969 -1.5763  3.9763
   51bbb    H12 1548   6.114   8.154  10.346  1.3707 -0.4220  0.9294
   51bbb     C7 1549   5.645   8.241  10.114 -0.2750 -0.6178 -0.2271
   51bbb    H13 1550   5.671   8.330  10.172  1.2709 -1.1078 -0.1155
   51bbb    H14 1551   5.545   8.209  10.147 -0.5978 -0.6649 -1.2291
   51bbb     C8 1552   6.129   8.012  10.515  0.3774  0.4399 -0.6344
   51bbb    H15 1553   6.196   7.938  10.469  3.2476  1.7818  1.1315
   51bbb    H16 1554   6.196   8.077  10.572  0.5269 -0.0948 -0.1897
   51bbb     C9 1555   5.929   7.687  10.369 -0.2869 -0.5377  0.5331
   51bbb    H17 1556   5.933   7.582  10.400  1.5513 -0.1577  1.7632
   51bbb    H18 1557   5.966   7.743  10.456  0.0572  0.7860 -0.4229
   51bbb     O1 1558   5.644   8.271   9.966 -0.5079 -0.4246 -0.5665
   51bbb    H19 1559   5.803   7.968  10.447 -1.4549  3.2195  0.2175
   52bbb     N1 1560   6.385   7.134   8.801  0.6809 -0.1062 -0.2865
   52bbb     C1 1561   6.248   7.056   8.805 -0.6418 -0.1406 -0.8137
   52bbb     H1 1562   6.263   6.948   8.813 -1.8338 -0.4276 -1.9890
   52bbb     H2 1563   6.190   7.070   8.714 -1.4515  2.2247 -0.0078
   52bbb     C2 1564   6.476   7.068   8.697  0.6232 -0.1071  0.2605
   52bbb     H3 1565   6.572   7.118   8.715  0.8379 -1.3528  3.1725
   52bbb     H4 1566   6.441   7.093   8.597  0.5432 -1.9156 -0.2037
   52bbb     C3 1567   6.368   7.279   8.760  0.0274 -0.4123  0.1165
   52bbb     H5 1568   6.468   7.318   8.740  0.3176 -1.0655  0.2518
   52bbb     H6 1569   6.327   7.334   8.845 -2.0297 -0.9499 -0.4538
   52bbb     C4 1570   6.274   7.310   8.645  0.0803  0.4586  0.5361
   52bbb     H7 1571   6.168   7.306   8.675  0.7897 -1.0193  3.1685
   52bbb     H8 1572   6.296   7.241   8.563  1.1038  0.8295  0.4947
   52bbb     C5 1573   6.148   7.105   8.914  1.0880  0.3988  0.5364
   52bbb     H9 1574   6.052   7.068   8.874  0.5745  1.6172  0.6191
   52bbb    H10 1575   6.133   7.213   8.908 -2.0135  0.0861  1.1130
   52bbb     C6 1576   6.507   6.917   8.721  0.9452  0.0841 -0.4997
   52bbb    H11 1577   6.413   6.865   8.702  0.1756  1.3083 -0.0923
   52bbb    H12 1578   6.545   6.887   8.820  0.8645 -0.7399 -0.7036
   52bbb     C7 1579   6.311   7.450   8.588 -0.5300  0.6665 -0.6101
   52bbb    H13 1580   6.275   7.449   8.485  0.7073 -1.2275 -1.0694
   52bbb    H14 1581   6.419   7.467   8.588 -0.5402  0.7288 -0.9082
   52bbb     C8 1582   6.602   6.856   8.624  0.0153 -0.5208  0.2259
   52bbb    H15 1583   6.619   6.754   8.658  0.3516 -1.8311 -3.3771
   52bbb    H16 1584   6.565   6.855   8.521 -0.5949  0.2112  0.4297
   52bbb     C9 1585   6.169   7.047   9.054  0.5543  0.1927 -0.3947
   52bbb    H17 1586   6.102   7.094   9.126  0.6201  0.5898 -0.5916
   52bbb    H18 1587   6.269   7.075   9.090  1.1138 -1.7451 -0.2827
   52bbb     O1 1588   6.241   7.556   8.659  0.3146  0.2309 -0.5823
   52bbb    H19 1589   6.425   7.131   8.896 -1.5761  0.7879  0.7603
   53bbb     N1 1590   6.849   8.291   8.656  0.3604 -0.2313  0.5266
   53bbb     C1 1591   6.989   8.225   8.680 -0.0240  0.1664  0.1800
   53bbb     H1 1592   7.055   8.310   8.695  2.8780 -1.9424  0.0862
   53bbb     H2 1593   7.023   8.166   8.595  0.3847 -0.3245  0.6788
   53bbb     C2 1594   6.857   8.385   8.539  0.0181  0.2323 -0.6128
   53bbb     H3 1595   6.858   8.314   8.456  0.6236 -1.3963  0.7183
   53bbb     H4 1596   6.958   8.426   8.535  0.8505 -1.7500 -1.2842
   53bbb     C3 1597   6.737   8.191   8.620  0.2372 -0.4023  0.1759
   53bbb     H5 1598   6.784   8.107   8.569  0.6850  1.3184 -2.4644
   53bbb     H6 1599   6.670   8.232   8.543  2.2403 -0.9271 -1.9568
   53bbb     C4 1600   6.660   8.143   8.743  0.0012  0.0031 -0.2353
   53bbb     H7 1601   6.727   8.130   8.828 -0.1982  0.2007 -0.0454
   53bbb     H8 1602   6.616   8.045   8.719  1.1527 -0.4454 -0.5446
   53bbb     C5 1603   6.991   8.125   8.799 -0.0455 -0.4713  0.2475
   53bbb     H9 1604   6.927   8.039   8.774  1.3553 -1.3503 -0.4424
   53bbb    H10 1605   6.960   8.173   8.893 -0.1769 -2.1684  1.1115
   53bbb     C6 1606   6.746   8.491   8.533 -0.7913 -0.0186  0.3856
   53bbb    H11 1607   6.737   8.551   8.625  2.6259 -1.1741  1.6270
   53bbb    H12 1608   6.647   8.445   8.521 -1.1172  1.0716 -1.5148
   53bbb     C7 1609   6.549   8.242   8.779  0.5915 -1.4779 -0.1854
   53bbb    H13 1610   6.516   8.294   8.688 -0.0878 -0.9576  0.3482
   53bbb    H14 1611   6.593   8.330   8.828  1.1149 -1.1319 -1.2535
   53bbb     C8 1612   6.766   8.580   8.406 -0.7699  0.2048  0.3833
   53bbb    H15 1613   6.735   8.535   8.311 -1.4224  1.0270  0.1948
   53bbb    H16 1614   6.690   8.659   8.416 -0.9209  0.0221  0.6661
   53bbb     C9 1615   7.134   8.076   8.818 -0.5687 -0.1782 -1.0314
   53bbb    H17 1616   7.162   8.010   8.735 -2.2851 -0.6961 -1.2398
   53bbb    H18 1617   7.142   8.003   8.900 -1.1707  0.1163 -0.7107
   53bbb     O1 1618   6.439   8.177   8.846 -0.1771  0.2637  0.8733
   53bbb    H19 1619   6.821   8.336   8.745 -1.1153 -0.1113  0.0269
   54bbb     N1 1620   4.087  10.645   7.338 -0.4254  0.1853 -0.4113
   54bbb     C1 1621   4.091  10.504   7.279  0.6639  0.0533  0.4145
   54bbb     H1 1622   4.041  10.498   7.182 -0.9959 -3.4750  1.3133
   54bbb     H2 1623   4.026  10.446   7.344  1.5945 -1.5056 -0.0010
   54bbb     C2 1624   4.176  10.649   7.464  0.5317  0.2998  0.0512
   54bbb     H3 1625   4.265  10.710   7.446  0.0275  1.9666  2.6577
   54bbb     H4 1626   4.200  10.546   7.488 -1.0837 -0.4186 -1.1980
   54bbb     C3 1627   4.140  10.747   7.237 -0.3250  0.8999  0.6276
   54bbb     H5 1628   4.067  10.759   7.157  0.7580  1.5684 -0.2893
   54bbb     H6 1629   4.229  10.706   7.190 -2.0945 -0.2346 -1.9706
   54bbb     C4 1630   4.169  10.894   7.286 -0.0410  0.4132 -0.5948
   54bbb     H7 1631   4.250  10.942   7.230  2.5097 -0.4759  2.0745
   54bbb     H8 1632   4.203  10.892   7.390  0.2090  1.6039 -0.6336
   54bbb     C5 1633   4.227  10.437   7.260  0.0234 -0.3516 -0.4012
   54bbb     H9 1634   4.265  10.402   7.356 -2.7686 -4.4090 -0.5261
   54bbb    H10 1635   4.294  10.508   7.209 -0.1920  0.4974  0.4692
   54bbb     C6 1636   4.101  10.710   7.584 -0.2159 -0.3956 -0.7082
   54bbb    H11 1637   4.008  10.653   7.588 -0.2487 -0.2867  0.6192
   54bbb    H12 1638   4.103  10.819   7.581  0.1375 -0.2651  1.8279
   54bbb     C7 1639   4.045  10.980   7.284  0.0215  0.6665  1.4753
   54bbb    H13 1640   4.014  10.966   7.179  1.2186  1.8785  0.9338
   54bbb    H14 1641   4.060  11.088   7.293  0.5385  0.8554 -0.9992
   54bbb     C8 1642   4.173  10.673   7.721 -0.2168 -0.2051 -0.0137
   54bbb    H15 1643   4.117  10.722   7.802  0.6536  3.4298 -1.4261
   54bbb    H16 1644   4.162  10.564   7.731 -0.7029 -0.1785 -0.2354
   54bbb     C9 1645   4.221  10.310   7.173 -0.0141 -0.0807  0.1385
   54bbb    H17 1646   4.153  10.241   7.226  0.1936  1.2742  2.3337
   54bbb    H18 1647   4.321  10.269   7.156 -1.2685 -2.2416 -2.9126
   54bbb     O1 1648   3.944  10.935   7.376  0.3880 -0.2939 -0.5742
   54bbb    H19 1649   3.990  10.676   7.351 -1.5641 -2.2475 -2.3946
   55bbb     N1 1650   3.207  11.761   7.646  0.2580  0.0267 -0.7321
   55bbb     C1 1651   3.095  11.671   7.612 -0.4712 -0.3780 -0.0638
   55bbb     H1 1652   3.125  11.611   7.526  1.5587 -0.2462  0.4920
   55bbb     H2 1653   3.012  11.733   7.578 -0.7412 -1.6572 -1.9157
   55bbb     C2 1654   3.189  11.856   7.763  0.1068 -0.8267  0.3139
   55bbb     H3 1655   3.280  11.865   7.822 -0.1633 -1.4369  0.8378
   55bbb     H4 1656   3.109  11.813   7.824 -0.7003 -1.7974 -1.3648
   55bbb     C3 1657   3.335  11.679   7.675  0.9821 -0.3972 -0.3864
   55bbb     H5 1658   3.330  11.587   7.617  1.1813 -0.1457 -0.8117
   55bbb     H6 1659   3.326  11.665   7.782 -0.6761  0.1064 -0.4416
   55bbb     C4 1660   3.474  11.731   7.647 -0.3859 -0.5145  0.3389
   55bbb     H7 1661   3.474  11.834   7.684 -0.0254 -0.4258  0.0922
   55bbb     H8 1662   3.489  11.748   7.539  1.9476  1.6026  0.9145
   55bbb     C5 1663   3.047  11.574   7.726  0.4741  0.1781  0.9665
   55bbb     H9 1664   3.019  11.629   7.817 -1.6287  0.4682  0.1889
   55bbb    H10 1665   3.131  11.512   7.759  0.7097 -0.1275 -0.1701
   55bbb     C6 1666   3.154  11.993   7.703 -0.0461 -0.0171 -0.1756
   55bbb    H11 1667   3.104  12.064   7.770 -2.2514  0.5526 -2.2819
   55bbb    H12 1668   3.071  11.984   7.632  0.3082  0.0334 -0.6052
   55bbb     C7 1669   3.584  11.656   7.720  0.0871  0.4626  0.3493
   55bbb    H13 1670   3.569  11.671   7.827 -0.3823 -2.0259  0.7055
   55bbb    H14 1671   3.680  11.702   7.697  1.2527 -1.6581  0.6775
   55bbb     C8 1672   3.275  12.064   7.634  0.8114  0.1797  0.0595
   55bbb    H15 1673   3.241  12.163   7.603  0.4338  0.5266  1.4708
   55bbb    H16 1674   3.362  12.061   7.701  0.7737  4.6427  0.6306
   55bbb     C9 1675   2.935  11.479   7.672  0.4335 -0.2120 -0.2596
   55bbb    H17 1676   2.905  11.403   7.746  2.3379  0.7493  1.6161
   55bbb    H18 1677   2.962  11.415   7.587  0.2100  1.2465 -1.4603
   55bbb     O1 1678   3.582  11.513   7.689 -0.0025  0.4545  0.2364
   55bbb    H19 1679   3.238  11.813   7.562 -0.2917 -1.0294 -1.6137
   56bbb     N1 1680   2.463  10.897   7.004  0.2639  0.0583  0.4886
   56bbb     C1 1681   2.524  11.035   6.973 -0.2581  0.4907 -0.4414
   56bbb     H1 1682   2.534  11.045   6.864  2.3326  0.9195 -0.2351
   56bbb     H2 1683   2.621  11.021   7.020 -0.6786  0.4870  0.4399
   56bbb     C2 1684   2.551  10.791   6.936 -0.2537  0.0505  1.3586
   56bbb     H3 1685   2.528  10.699   6.990 -1.2181 -0.4862  0.0725
   56bbb     H4 1686   2.653  10.825   6.951 -0.4219  1.3671 -0.1751
   56bbb     C3 1687   2.464  10.883   7.156 -0.1291  0.1443 -0.4468
   56bbb     H5 1688   2.379  10.937   7.199 -0.5293 -1.8795  1.5387
   56bbb     H6 1689   2.553  10.935   7.192 -0.5843 -0.0069  0.9572
   56bbb     C4 1690   2.451  10.742   7.222 -0.0719 -0.3135 -0.3834
   56bbb     H7 1691   2.532  10.675   7.190 -0.4848 -1.2726  0.4951
   56bbb     H8 1692   2.361  10.690   7.189  0.2613 -2.1873  1.4032
   56bbb     C5 1693   2.461  11.157   7.030 -0.4779 -0.3418 -0.9773
   56bbb     H9 1694   2.520  11.248   7.012  0.8849 -1.0337 -0.2181
   56bbb    H10 1695   2.447  11.159   7.139  0.7450  1.1874 -0.8018
   56bbb     C6 1696   2.535  10.760   6.789 -0.2138  0.8967  0.2233
   56bbb    H11 1697   2.630  10.716   6.755  0.0356  1.0991  0.6466
   56bbb    H12 1698   2.525  10.856   6.737 -1.4701  1.0341  0.6782
   56bbb     C7 1699   2.451  10.735   7.382 -0.1567  0.4292  0.4332
   56bbb    H13 1700   2.413  10.640   7.421  0.9406  0.1120  0.7408
   56bbb    H14 1701   2.401  10.820   7.430 -2.7427 -0.7938  0.1089
   56bbb     C8 1702   2.418  10.658   6.756  0.5779 -0.4222  0.5139
   56bbb    H15 1703   2.324  10.696   6.797  0.8563  2.6194 -1.3454
   56bbb    H16 1704   2.401  10.663   6.647 -1.1175  0.7469  0.7987
   56bbb     C9 1705   2.319  11.188   6.985  0.2725 -0.6169  0.5023
   56bbb    H17 1706   2.291  11.288   7.020 -0.8818 -1.3643  1.8011
   56bbb    H18 1707   2.245  11.119   7.028 -0.5419 -0.1225 -0.0952
   56bbb     O1 1708   2.587  10.737   7.427  0.1094 -0.1298  0.2377
   56bbb    H19 1709   2.368  10.887   6.965  0.4469  1.2074 -0.3239
   57bbb     N1 1710   2.234  10.891   8.218 -0.5672 -0.1857  0.5680
   57bbb     C1 1711   2.114  10.989   8.226  0.6252 -0.4068 -0.1370
   57bbb     H1 1712   2.024  10.929   8.212  0.2610  0.2052 -0.4757
   57bbb     H2 1713   2.123  11.064   8.147  0.7618  1.3289  1.4466
   57bbb     C2 1714   2.203  10.778   8.114  0.0116  0.2769  0.1779
   57bbb     H3 1715   2.288  10.711   8.108 -0.9607 -1.6712  4.4019
   57bbb     H4 1716   2.186  10.826   8.017  0.0101 -1.8438 -0.9301
   57bbb     C3 1717   2.353  10.973   8.170 -0.5954 -0.2998 -0.2047
   57bbb     H5 1718   2.373  11.062   8.231 -0.0787 -0.1540 -0.5861
   57bbb     H6 1719   2.327  10.994   8.066  1.9034  1.0348 -0.6407
   57bbb     C4 1720   2.485  10.892   8.167 -0.4649  0.3505 -0.6797
   57bbb     H7 1721   2.473  10.790   8.130 -0.3516 -0.1916  0.7275
   57bbb     H8 1722   2.511  10.873   8.272 -1.5380 -2.0938 -0.7941
   57bbb     C5 1723   2.109  11.068   8.356 -0.7921  0.0488  0.4516
   57bbb     H9 1724   2.033  11.145   8.339  1.2190  1.9572 -0.4410
   57bbb    H10 1725   2.203  11.117   8.386 -1.0166  0.5922  0.2794
   57bbb     C6 1726   2.076  10.691   8.135 -0.8019  0.5349  0.0661
   57bbb    H11 1727   2.050  10.649   8.038 -2.3904  0.2980  0.5623
   57bbb    H12 1728   1.991  10.752   8.169  0.1965  1.2216  1.4391
   57bbb     C7 1729   2.607  10.963   8.097 -0.0553 -0.1494 -0.7142
   57bbb    H13 1730   2.698  10.906   8.116  0.0546  0.4263  0.5597
   57bbb    H14 1731   2.623  11.054   8.157 -0.1290 -0.2749 -0.5023
   57bbb     C8 1732   2.104  10.585   8.241 -0.1541 -0.0055 -0.0727
   57bbb    H15 1733   2.182  10.518   8.201  1.4372  1.0293  1.1345
   57bbb    H16 1734   2.144  10.632   8.332 -2.0517  0.2745  0.6506
   57bbb     C9 1735   2.081  10.969   8.465  0.7615 -0.0516 -0.0379
   57bbb    H17 1736   2.005  10.899   8.426  0.6141  0.2463 -0.2939
   57bbb    H18 1737   2.029  11.026   8.543  0.6474  1.5545 -1.2360
   57bbb     O1 1738   2.591  10.993   7.960  0.4107 -0.3908  0.4023
   57bbb    H19 1739   2.245  10.852   8.313  0.4066 -0.7015  0.2571
   58bbb     N1 1740   4.196  11.703   9.015 -0.2367  0.0548 -0.1816
   58bbb     C1 1741   4.296  11.787   9.095  0.2497  0.4893 -0.3833
   58bbb     H1 1742   4.359  11.842   9.025 -1.5809  1.6074 -1.2167
   58bbb     H2 1743   4.353  11.708   9.144 -0.6307 -0.3684 -0.7030
   58bbb     C2 1744   4.254  11.654   8.890 -0.4372  0.1241 -0.3853
   58bbb     H3 1745   4.191  11.578   8.844 -0.5212  1.1148 -1.9778
   58bbb     H4 1746   4.350  11.612   8.922  0.1504  0.8331 -1.1727
   58bbb     C3 1747   4.163  11.578   9.103 -0.0624 -0.2933  0.0207
   58bbb     H5 1748   4.145  11.603   9.208 -0.6630 -1.1778  0.1380
   58bbb     H6 1749   4.244  11.506   9.102  0.3936  0.2116 -0.8106
   58bbb     C4 1750   4.030  11.523   9.065 -0.1099  0.9647  0.4092
   58bbb     H7 1751   4.023  11.479   8.965 -2.6382 -3.5569  2.2829
   58bbb     H8 1752   3.954  11.601   9.064 -3.0517 -1.6834  1.3651
   58bbb     C5 1753   4.226  11.889   9.194 -0.3866 -0.5123  0.5596
   58bbb     H9 1754   4.307  11.930   9.256  1.4578 -2.3832 -0.4565
   58bbb    H10 1755   4.154  11.839   9.260 -0.5929  0.9845  1.5152
   58bbb     C6 1756   4.288  11.765   8.784 -0.2506  0.1954 -0.4650
   58bbb    H11 1757   4.338  11.844   8.841 -0.6192 -0.0463  0.2029
   58bbb    H12 1758   4.193  11.802   8.742 -1.4398 -1.2789  0.7786
   58bbb     C7 1759   3.988  11.417   9.173 -0.0923  0.1456  0.2890
   58bbb    H13 1760   3.907  11.364   9.122 -0.1909  1.0682 -0.5517
   58bbb    H14 1761   3.946  11.460   9.264  0.4768 -0.7728  1.0008
   58bbb     C8 1762   4.376  11.716   8.670 -0.4428  0.1286 -0.3396
   58bbb    H15 1763   4.462  11.670   8.720 -1.5356 -0.1581  1.3403
   58bbb    H16 1764   4.317  11.637   8.623 -2.0997  1.7472 -1.1507
   58bbb     C9 1765   4.157  12.002   9.119  0.8133  0.3529  0.8238
   58bbb    H17 1766   4.235  12.067   9.076 -0.4706  3.1270  2.3949
   58bbb    H18 1767   4.094  12.060   9.187  0.5892  0.8465  0.2071
   58bbb     O1 1768   4.087  11.323   9.214 -0.4889  0.7482  0.4638
   58bbb    H19 1769   4.109  11.757   9.001  0.3952  2.0653  2.7472
   59bbb     N1 1770   3.921  11.269   9.662  0.2020  0.0398  0.4280
   59bbb     C1 1771   4.036  11.342   9.727  0.0159  0.2715 -0.0612
   59bbb     H1 1772   4.127  11.348   9.666 -0.1647  0.8888 -0.2770
   59bbb     H2 1773   4.064  11.279   9.811  0.9949 -0.3946 -0.8547
   59bbb     C2 1774   3.872  11.347   9.549  0.0800 -1.1056 -0.0259
   59bbb     H3 1775   3.926  11.323   9.457 -0.6346  0.8575 -1.0347
   59bbb     H4 1776   3.881  11.454   9.569  1.4012 -1.3762  0.9598
   59bbb     C3 1777   3.963  11.134   9.607 -0.2905 -0.5013 -0.3814
   59bbb     H5 1778   4.035  11.145   9.525  0.3633  0.5955  0.3130
   59bbb     H6 1779   3.869  11.103   9.561 -1.1068  0.4790  0.5516
   59bbb     C4 1780   4.003  11.034   9.718 -0.3175  0.2025  0.1517
   59bbb     H7 1781   3.918  11.041   9.787 -2.9049 -1.3671 -2.6304
   59bbb     H8 1782   4.096  11.071   9.761 -0.2551  0.8449 -0.5260
   59bbb     C5 1783   4.012  11.478   9.801 -0.1385  0.4065  0.6824
   59bbb     H9 1784   3.931  11.468   9.874  1.4412 -2.1136  2.2401
   59bbb    H10 1785   3.981  11.545   9.720 -0.7938 -1.8772 -1.0443
   59bbb     C6 1786   3.722  11.317   9.534  0.7609  0.0347  0.6542
   59bbb    H11 1787   3.704  11.212   9.557  1.1933 -0.5679 -1.5025
   59bbb    H12 1788   3.714  11.331   9.425  0.8360 -0.1175  0.6302
   59bbb     C7 1789   4.033  10.879   9.680  0.5126 -0.8460  0.4683
   59bbb    H13 1790   3.937  10.830   9.658  0.7591 -0.5556 -1.5152
   59bbb    H14 1791   4.091  10.836   9.762  1.5084 -0.3869  0.0187
   59bbb     C8 1792   3.639  11.425   9.601  0.5576 -0.8338 -0.0347
   59bbb    H15 1793   3.665  11.524   9.563 -1.6184  0.2459  1.0746
   59bbb    H16 1794   3.532  11.410   9.583  0.5824 -0.3673 -0.5804
   59bbb     C9 1795   4.137  11.531   9.876  0.8727  0.5688  0.5170
   59bbb    H17 1796   4.223  11.544   9.808  0.1905  2.0417 -0.1166
   59bbb    H18 1797   4.168  11.465   9.958 -0.4615 -0.6852  0.0585
   59bbb     O1 1798   4.117  10.890   9.569 -0.3695  0.5891  0.3100
   59bbb    H19 1799   3.846  11.252   9.731 -1.3800 -1.4965 -1.5107
   60bbb     N1 1800   5.268  11.631   9.365  1.1440 -0.1122 -0.5956
   60bbb     C1 1801   5.227  11.778   9.374  0.2435 -0.3198 -0.9467
   60bbb     H1 1802   5.122  11.772   9.406  1.0620 -4.4424  1.6686
   60bbb     H2 1803   5.226  11.815   9.271 -2.9334  0.3267 -0.7957
   60bbb     C2 1804   5.416  11.620   9.351  0.0391  0.0898 -0.9877
   60bbb     H3 1805   5.432  11.513   9.334 -3.5901 -1.0288  1.4995
   60bbb     H4 1806   5.463  11.645   9.446 -0.7807 -0.2682 -0.4844
   60bbb     C3 1807   5.231  11.554   9.488  0.9497 -0.8965 -0.0998
   60bbb     H5 1808   5.142  11.604   9.525  1.4497  1.2529 -1.6272
   60bbb     H6 1809   5.313  11.565   9.559  1.1847 -0.5775 -0.4183
   60bbb     C4 1810   5.196  11.407   9.454 -0.7465  0.3411  0.5551
   60bbb     H7 1811   5.280  11.365   9.396  0.5298  0.9693  1.8739
   60bbb     H8 1812   5.099  11.393   9.406 -0.5618 -0.5775  0.4196
   60bbb     C5 1813   5.303  11.867   9.478  0.3548  0.0853 -0.2350
   60bbb     H9 1814   5.411  11.850   9.492  1.2394  3.2205 -2.0579
   60bbb    H10 1815   5.256  11.836   9.572 -1.7100  0.7065 -0.9963
   60bbb     C6 1816   5.472  11.690   9.225  0.7471  0.2026 -0.7905
   60bbb    H11 1817   5.462  11.797   9.248 -0.0465 -0.2525  1.1465
   60bbb    H12 1818   5.418  11.660   9.134  1.4377 -3.1392 -0.2293
   60bbb     C7 1819   5.182  11.325   9.580 -0.0831 -0.7010 -0.0653
   60bbb    H13 1820   5.107  11.370   9.645 -0.0812 -1.5546  0.5486
   60bbb    H14 1821   5.278  11.339   9.633  0.1797 -0.2313 -0.6564
   60bbb     C8 1822   5.617  11.655   9.199 -0.6679  0.2459  0.6466
   60bbb    H15 1823   5.683  11.701   9.274  1.3546  1.2663 -1.6115
   60bbb    H16 1824   5.630  11.547   9.210  1.5971  0.2891 -0.9215
   60bbb     C9 1825   5.270  12.015   9.464 -0.6466  0.4651  0.3602
   60bbb    H17 1826   5.162  12.028   9.476 -0.7866 -1.8076  2.2201
   60bbb    H18 1827   5.305  12.057   9.369  0.2617  3.4563  1.9012
   60bbb     O1 1828   5.176  11.181   9.557 -0.3110 -0.1520 -0.0866
   60bbb    H19 1829   5.218  11.588   9.286 -0.9415 -0.2345  0.7102
   61bbb     N1 1830   5.504  10.843  10.392 -0.0626 -0.1566 -0.0918
   61bbb     C1 1831   5.400  10.911  10.484 -0.1782  0.1952 -0.3623
   61bbb     H1 1832   5.416  10.868  10.583 -0.1552  0.5778 -0.1969
   61bbb     H2 1833   5.298  10.889  10.456  0.0422  0.1792 -1.1709
   61bbb     C2 1834   5.507  10.693  10.408  0.0778 -0.5511  0.0913
   61bbb     H3 1835   5.569  10.670  10.495 -0.9866 -0.7322  0.8236
   61bbb     H4 1836   5.554  10.648  10.321  1.2792  1.1770 -0.2197
   61bbb     C3 1837   5.465  10.869  10.256  0.5623 -0.1865  0.3552
   61bbb     H5 1838   5.448  10.975  10.238  1.1986 -0.2347 -0.6049
   61bbb     H6 1839   5.372  10.819  10.227  0.8694 -1.6130  1.6912
   61bbb     C4 1840   5.569  10.827  10.149 -0.2997  0.3430  0.6695
   61bbb     H7 1841   5.557  10.718  10.141 -1.7574  0.6175 -2.1973
   61bbb     H8 1842   5.672  10.857  10.173 -0.1545  1.3924 -1.1065
   61bbb     C5 1843   5.405  11.070  10.490  0.3719  0.7875 -0.0334
   61bbb     H9 1844   5.391  11.105  10.387 -1.4024 -0.5893 -0.3030
   61bbb    H10 1845   5.500  11.111  10.527  1.3982 -1.5245  0.0446
   61bbb     C6 1846   5.372  10.619  10.436 -0.3876  0.3893  0.2618
   61bbb    H11 1847   5.290  10.651  10.370  0.1685 -1.1172 -1.2572
   61bbb    H12 1848   5.347  10.643  10.540 -0.0817 -0.2994  0.5049
   61bbb     C7 1849   5.537  10.882  10.011  0.6435 -0.1945  0.4319
   61bbb    H13 1850   5.579  10.814   9.936 -0.4776  1.1343 -1.5216
   61bbb    H14 1851   5.572  10.985  10.001 -3.0901  1.1257 -0.7566
   61bbb     C8 1852   5.385  10.467  10.414 -0.5319 -1.2238 -0.6660
   61bbb    H15 1853   5.284  10.427  10.430 -0.9779  0.1950  0.2846
   61bbb    H16 1854   5.416  10.469  10.308  0.0748  1.4797 -0.5238
   61bbb     C9 1855   5.297  11.146  10.571  0.3193  0.0008  0.2438
   61bbb    H17 1856   5.197  11.108  10.546  0.4932 -0.3986  0.1399
   61bbb    H18 1857   5.309  11.255  10.568 -3.3415  0.5439  0.7193
   61bbb     O1 1858   5.398  10.876   9.977  0.8299  0.5416 -0.1527
   61bbb    H19 1859   5.601  10.869  10.413 -0.6370 -0.2507  3.2233
   62bbb     N1 1860   1.942   5.168   9.212 -0.4766  0.3987 -0.1374
   62bbb     C1 1861   2.025   5.068   9.128 -0.6867  0.0074  0.6335
   62bbb     H1 1862   1.955   5.019   9.061  2.6435 -3.5677 -0.6677
   62bbb     H2 1863   2.063   4.988   9.192  0.4702 -1.5366 -1.8219
   62bbb     C2 1864   2.032   5.245   9.309  0.3490  0.1711  0.3457
   62bbb     H3 1865   2.080   5.321   9.247 -1.7733  0.4251 -1.0776
   62bbb     H4 1866   2.110   5.177   9.344 -1.3561 -1.2210  1.6461
   62bbb     C3 1867   1.873   5.270   9.121  0.1723  0.4668 -0.1393
   62bbb     H5 1868   1.947   5.300   9.047  0.0614 -2.2756 -1.5175
   62bbb     H6 1869   1.830   5.349   9.182 -2.6411  0.2955 -1.7011
   62bbb     C4 1870   1.745   5.212   9.050  0.2270 -0.1522  0.6681
   62bbb     H7 1871   1.690   5.146   9.119  0.4287 -0.9848  0.0486
   62bbb     H8 1872   1.779   5.162   8.959 -2.0745  0.7281 -0.7855
   62bbb     C5 1873   2.141   5.128   9.042 -0.1354  0.0815  0.3205
   62bbb     H9 1874   2.208   5.197   9.095  0.8440 -0.7305  0.1532
   62bbb    H10 1875   2.090   5.183   8.962  0.5235 -1.5103 -1.2548
   62bbb     C6 1876   1.949   5.307   9.423 -0.0937  0.2267  0.0480
   62bbb    H11 1877   1.900   5.235   9.490  0.4025  1.9954  2.4286
   62bbb    H12 1878   1.865   5.361   9.377 -0.9730  0.3114  1.6813
   62bbb     C7 1879   1.649   5.324   9.000 -0.6041 -0.0026 -0.1805
   62bbb    H13 1880   1.603   5.372   9.088 -0.2022 -0.0010  0.0304
   62bbb    H14 1881   1.574   5.283   8.932 -0.7927 -0.3427  0.2231
   62bbb     C8 1882   2.026   5.403   9.516 -0.4345 -0.4629  0.5008
   62bbb    H15 1883   1.961   5.428   9.601 -0.6149 -0.5589  0.3917
   62bbb    H16 1884   2.109   5.349   9.563  0.7734 -0.3922 -1.4597
   62bbb     C9 1885   2.221   5.010   8.983 -0.2796  0.2206 -0.6260
   62bbb    H17 1886   2.299   5.049   8.915 -0.6159  1.2182 -0.4635
   62bbb    H18 1887   2.140   4.958   8.931 -0.6398 -0.6065  0.7232
   62bbb     O1 1888   1.724   5.419   8.919 -0.4327 -0.2219  0.4139
   62bbb    H19 1889   1.875   5.105   9.259  2.9222 -2.7523  0.9102
   63bbb     N1 1890   1.037   5.665   9.359 -0.3506 -0.0729 -0.1925
   63bbb     C1 1891   1.030   5.516   9.319  0.1727  0.0573 -0.5811
   63bbb     H1 1892   1.104   5.461   9.378  1.1574 -1.2817 -2.9168
   63bbb     H2 1893   1.074   5.510   9.219 -2.8546 -0.4416 -1.9864
   63bbb     C2 1894   1.021   5.683   9.507 -0.8823 -0.0329 -0.1476
   63bbb     H3 1895   0.919   5.653   9.532 -1.4238  0.3540 -1.8133
   63bbb     H4 1896   1.019   5.791   9.522 -2.4264  0.1944 -1.7392
   63bbb     C3 1897   1.165   5.716   9.294  0.1170 -0.8481  0.1509
   63bbb     H5 1898   1.165   5.688   9.188  1.4191  3.8116 -1.3095
   63bbb     H6 1899   1.237   5.651   9.345 -0.6551 -2.0382 -0.2340
   63bbb     C4 1900   1.194   5.865   9.306 -0.5977 -0.1947 -0.0540
   63bbb     H7 1901   1.198   5.903   9.409 -0.2276 -0.5492  0.0658
   63bbb     H8 1902   1.114   5.928   9.265 -0.5081 -1.4974 -2.4092
   63bbb     C5 1903   0.900   5.440   9.327  0.9846 -0.6881 -0.3931
   63bbb     H9 1904   0.877   5.431   9.434 -0.8562  1.6977 -0.5049
   63bbb    H10 1905   0.899   5.341   9.278 -2.9659 -1.4859  0.9086
   63bbb     C6 1906   1.123   5.616   9.608  0.5508 -0.2473  0.1857
   63bbb    H11 1907   1.227   5.643   9.586  0.8642 -0.1606  1.6456
   63bbb    H12 1908   1.109   5.508   9.594 -1.0542 -0.3317  1.9305
   63bbb     C7 1909   1.322   5.900   9.222 -0.1283  0.0272  0.6396
   63bbb    H13 1910   1.409   5.839   9.248  0.0694 -0.4004 -0.9132
   63bbb    H14 1911   1.346   6.005   9.242 -1.4685  1.0473 -2.4443
   63bbb     C8 1912   1.109   5.647   9.758  0.4371  1.0220 -0.5430
   63bbb    H15 1913   1.180   5.587   9.816 -1.3057 -0.5713  0.0114
   63bbb    H16 1914   1.125   5.752   9.785 -0.0464  0.8812  0.3078
   63bbb     C9 1915   0.781   5.523   9.252 -0.0709  0.4286 -0.4326
   63bbb    H17 1916   0.799   5.524   9.144 -0.6009 -0.5894 -0.5397
   63bbb    H18 1917   0.774   5.628   9.282 -1.0043  0.3673 -0.4061
   63bbb     O1 1918   1.306   5.899   9.077  0.6247 -0.4908 -0.1133
   63bbb    H19 1919   0.956   5.707   9.311 -0.7577  0.1677  0.7006
   64bbb     N1 1920   1.669   5.114   7.647  0.0895 -0.1108 -0.1221
   64bbb     C1 1921   1.753   5.029   7.736 -0.2248 -0.0839 -0.0842
   64bbb     H1 1922   1.774   5.090   7.824 -1.0676  1.7923 -1.1250
   64bbb     H2 1923   1.847   4.998   7.689  0.5443  1.6416  0.2383
   64bbb     C2 1924   1.598   5.034   7.539  0.5171  0.8187 -0.3197
   64bbb     H3 1925   1.499   4.997   7.566  0.7779 -0.6403 -1.2486
   64bbb     H4 1926   1.663   4.948   7.525 -1.0849 -0.3183 -0.9863
   64bbb     C3 1927   1.571   5.180   7.738  0.2512  0.1998 -0.0162
   64bbb     H5 1928   1.630   5.230   7.816  0.6611  0.8322 -0.7203
   64bbb     H6 1929   1.507   5.105   7.784  1.3382 -0.0215  1.1888
   64bbb     C4 1930   1.472   5.280   7.672  0.4783 -0.5625 -0.5712
   64bbb     H7 1931   1.407   5.233   7.598 -1.2924 -0.8317  1.0716
   64bbb     H8 1932   1.537   5.343   7.610 -0.6251  0.9220 -0.2782
   64bbb     C5 1933   1.684   4.904   7.799 -0.8926 -0.6541 -0.0263
   64bbb     H9 1934   1.624   4.838   7.735 -0.4884 -1.1818  0.1403
   64bbb    H10 1935   1.617   4.944   7.877 -0.3654  3.7147 -1.5112
   64bbb     C6 1936   1.581   5.108   7.405  0.2547  0.1237  0.3568
   64bbb    H11 1937   1.678   5.102   7.355 -0.6396  3.2127 -2.0985
   64bbb    H12 1938   1.567   5.217   7.408  0.5446  0.1526  0.6436
   64bbb     C7 1939   1.387   5.377   7.774 -1.4218  0.3800  0.1919
   64bbb    H13 1940   1.330   5.319   7.848 -1.8550  0.8476  0.2295
   64bbb    H14 1941   1.325   5.446   7.716 -2.4634 -1.8061 -1.4458
   64bbb     C8 1942   1.473   5.028   7.318 -0.7156  0.2588  0.1741
   64bbb    H15 1943   1.378   5.042   7.371  0.6228  0.9957  2.5168
   64bbb    H16 1944   1.450   5.073   7.220  0.5272  3.6721  1.3179
   64bbb     C9 1945   1.795   4.818   7.865  0.5746 -0.2674 -0.1278
   64bbb    H17 1946   1.882   4.797   7.801  0.2055 -1.5451 -0.2403
   64bbb    H18 1947   1.755   4.719   7.890  0.9178 -0.5786 -0.7759
   64bbb     O1 1948   1.487   5.451   7.848  0.1908  0.3114 -0.3159
   64bbb    H19 1949   1.727   5.186   7.602  0.2938 -1.3811 -1.9916
   65bbb     N1 1950   0.685   5.545   8.485  0.5357 -0.0778 -0.0666
   65bbb     C1 1951   0.554   5.627   8.506  0.6005  0.3243  0.0978
   65bbb     H1 1952   0.510   5.646   8.408  2.6353 -0.7440 -1.0693
   65bbb     H2 1953   0.583   5.723   8.549 -0.4261  0.8173 -0.2713
   65bbb     C2 1954   0.661   5.409   8.434  0.5572 -0.3457 -0.5722
   65bbb     H3 1955   0.615   5.420   8.336  0.0877 -0.6528 -0.3931
   65bbb     H4 1956   0.580   5.363   8.491 -0.3498  0.8059 -0.9058
   65bbb     C3 1957   0.777   5.625   8.402  0.2548 -0.3823  1.2597
   65bbb     H5 1958   0.725   5.654   8.310  1.1557  1.4094  1.2794
   65bbb     H6 1959   0.857   5.555   8.377 -0.9681 -1.0821 -1.0853
   65bbb     C4 1960   0.841   5.755   8.476 -0.2766  0.0942 -0.4466
   65bbb     H7 1961   0.922   5.716   8.538 -0.2932 -0.8966 -1.0198
   65bbb     H8 1962   0.771   5.813   8.536  1.7662  0.3482  1.8309
   65bbb     C5 1963   0.442   5.562   8.589  0.5649  0.0699  0.2058
   65bbb     H9 1964   0.474   5.549   8.693 -0.2461  1.5125  0.6672
   65bbb    H10 1965   0.409   5.463   8.553  1.9506  0.2033 -1.6070
   65bbb     C6 1966   0.783   5.319   8.418  0.0281  0.3057 -0.4785
   65bbb    H11 1967   0.832   5.298   8.514  0.4934  0.6692 -0.6320
   65bbb    H12 1968   0.857   5.366   8.352  3.1830 -1.2583  1.6909
   65bbb     C7 1969   0.913   5.841   8.370 -0.3924  0.2318  0.6060
   65bbb    H13 1970   0.978   5.908   8.427 -0.1901 -1.5492  2.5805
   65bbb    H14 1971   0.841   5.891   8.304  0.5883 -0.1177 -0.7902
   65bbb     C8 1972   0.746   5.189   8.341  0.1445  0.0887 -0.9133
   65bbb    H15 1973   0.820   5.111   8.365  3.1322  2.7016 -1.0490
   65bbb    H16 1974   0.654   5.145   8.382  1.0299 -1.5119 -0.5654
   65bbb     C9 1975   0.319   5.653   8.597  0.1009  0.3977 -0.0085
   65bbb    H17 1976   0.347   5.752   8.635 -0.4049  0.2502  0.7549
   65bbb    H18 1977   0.231   5.621   8.653 -0.6034 -0.0037 -1.2944
   65bbb     O1 1978   0.997   5.766   8.272  0.3285  0.8296  0.1143
   65bbb    H19 1979   0.730   5.531   8.576  0.2425 -0.3091  0.0448
   66bbb     N1 1980   0.112   7.679   8.429 -0.3789  0.6906 -0.0229
   66bbb     C1 1981   0.268   7.698   8.395  0.5901  0.3385  0.3823
   66bbb     H1 1982   0.265   7.729   8.290 -2.1549 -0.5197  0.1045
   66bbb     H2 1983   0.306   7.596   8.394 -0.6891 -0.1777 -1.0972
   66bbb     C2 1984   0.052   7.818   8.445  0.1893 -0.1742  1.1005
   66bbb     H3 1985   0.061   7.867   8.348  1.2200  0.0499  1.3030
   66bbb     H4 1986   0.109   7.879   8.515  0.1508  1.9029 -0.5671
   66bbb     C3 1987   0.038   7.620   8.307 -0.6166  0.1508  0.4820
   66bbb     H5 1988   0.113   7.600   8.230 -0.8285  1.6344 -0.1385
   66bbb     H6 1989  -0.024   7.696   8.260  0.3506  0.7565  0.1619
   66bbb     C4 1990  -0.032   7.486   8.337 -0.4395  0.6723 -0.2385
   66bbb     H7 1991  -0.088   7.449   8.251 -0.9919  1.4897 -0.2459
   66bbb     H8 1992  -0.109   7.513   8.411 -0.4293  0.5306 -0.1749
   66bbb     C5 1993   0.357   7.798   8.470  0.2410 -0.3520 -0.2594
   66bbb     H9 1994   0.322   7.902   8.461  2.0093  0.3550  0.5650
   66bbb    H10 1995   0.457   7.798   8.425 -0.0101 -0.7830 -0.8245
   66bbb     C6 1996  -0.088   7.817   8.497  0.2031 -0.0870 -0.4204
   66bbb    H11 1997  -0.075   7.764   8.592 -0.5517 -2.4316 -1.5374
   66bbb    H12 1998  -0.160   7.763   8.434 -1.2788 -0.0352  1.1633
   66bbb     C7 1999   0.066   7.374   8.391  0.5890 -0.7840 -0.0710
   66bbb    H13 2000   0.137   7.336   8.316 -0.5363  1.1532 -2.2492
   66bbb    H14 2001   0.007   7.290   8.430 -0.3040  1.0026  2.6282
   66bbb     C8 2002  -0.147   7.959   8.525  0.0914  0.2971 -0.5219
   66bbb    H15 2003  -0.248   7.954   8.566  0.9443 -0.9260  1.6363
   66bbb    H16 2004  -0.081   8.003   8.602  1.5818 -0.1756 -1.4847
   66bbb     C9 2005   0.369   7.768   8.623 -0.1299 -0.6167  0.6453
   66bbb    H17 2006   0.467   7.808   8.651  0.3604 -1.7346  0.5858
   66bbb    H18 2007   0.371   7.658   8.629  1.5480 -0.5753  1.4320
   66bbb     O1 2008   0.133   7.421   8.509  0.0812 -0.3297 -0.2815
   66bbb    H19 2009   0.092   7.616   8.508  1.2443 -0.2050 -0.2635
   67bbb     N1 2010   0.483   6.650   9.382 -0.2571 -0.8379 -0.1414
   67bbb     C1 2011   0.408   6.692   9.513 -0.4445  0.5379 -0.0409
   67bbb     H1 2012   0.318   6.750   9.493 -2.5570 -0.8648  4.1453
   67bbb     H2 2013   0.472   6.768   9.559  0.8400 -0.8649  0.5608
   67bbb     C2 2014   0.409   6.525   9.312  0.2944  0.3338 -0.3048
   67bbb     H3 2015   0.431   6.440   9.377  3.1711  1.3132  0.1544
   67bbb     H4 2016   0.456   6.497   9.218  1.0516 -1.9787  0.6664
   67bbb     C3 2017   0.508   6.767   9.285 -0.3600  0.2446  0.3860
   67bbb     H5 2018   0.414   6.814   9.256 -0.6394  0.1378  1.0739
   67bbb     H6 2019   0.563   6.730   9.199  0.6148  0.0306  1.0784
   67bbb     C4 2020   0.611   6.871   9.333  0.6209  0.4610 -0.5791
   67bbb     H7 2021   0.694   6.812   9.374 -0.9656 -1.6191 -0.2139
   67bbb     H8 2022   0.573   6.924   9.421 -0.7618 -1.3324 -0.0374
   67bbb     C5 2023   0.376   6.587   9.617  0.2583  0.0242 -0.5401
   67bbb     H9 2024   0.468   6.542   9.655 -0.5009 -2.1683 -1.1343
   67bbb    H10 2025   0.321   6.504   9.570 -2.7503  1.6941 -0.2755
   67bbb     C6 2026   0.252   6.549   9.292 -0.5338 -0.7388  0.4401
   67bbb    H11 2027   0.248   6.648   9.245  1.5459 -0.2835  1.0985
   67bbb    H12 2028   0.198   6.562   9.387  0.0931 -0.4717  0.7703
   67bbb     C7 2029   0.673   6.964   9.224 -0.8211 -0.1443 -0.1400
   67bbb    H13 2030   0.747   6.908   9.165 -0.6094  1.2514 -1.2493
   67bbb    H14 2031   0.723   7.044   9.280  0.4077 -1.1329  0.2175
   67bbb     C8 2032   0.186   6.442   9.205  0.6623  0.4236  0.1399
   67bbb    H15 2033   0.088   6.478   9.172  0.1832  0.4132  1.4764
   67bbb    H16 2034   0.240   6.428   9.110 -0.5876  3.0903 -1.0794
   67bbb     C9 2035   0.288   6.650   9.732  0.1325 -0.3887  0.0015
   67bbb    H17 2036   0.346   6.710   9.802  0.3625 -0.5522 -0.0470
   67bbb    H18 2037   0.236   6.575   9.793 -1.0243  0.4764  0.1140
   67bbb     O1 2038   0.580   7.017   9.125 -0.3830  0.8958  0.0022
   67bbb    H19 2039   0.571   6.610   9.417 -1.3619 -0.0084  4.1653
   68bbb     N1 2040   0.753   8.839   9.126  0.6901 -0.4474 -0.6244
   68bbb     C1 2041   0.615   8.893   9.171 -0.1418  0.2597 -0.0756
   68bbb     H1 2042   0.574   8.822   9.243  0.4857  0.1167  0.1458
   68bbb     H2 2043   0.545   8.919   9.093  0.2415  0.8259 -0.2347
   68bbb     C2 2044   0.831   8.784   9.244  1.0781 -0.1518 -0.2483
   68bbb     H3 2045   0.779   8.692   9.274  1.9171 -0.7448 -0.5654
   68bbb     H4 2046   0.829   8.858   9.324 -1.2346  1.2246 -1.4808
   68bbb     C3 2047   0.726   8.712   9.050 -0.7579 -0.2137  0.5391
   68bbb     H5 2048   0.666   8.650   9.118  0.8300 -0.8819  1.3977
   68bbb     H6 2049   0.815   8.651   9.035 -0.7260  0.2472 -1.3265
   68bbb     C4 2050   0.654   8.732   8.919 -0.2768  0.4659  0.6234
   68bbb     H7 2051   0.712   8.799   8.855 -0.8273 -1.9584 -2.6772
   68bbb     H8 2052   0.561   8.789   8.930  0.1025  0.9939  1.1677
   68bbb     C5 2053   0.628   9.026   9.243  0.8568  0.5347  0.5577
   68bbb     H9 2054   0.692   9.088   9.179  2.4401 -0.8540  0.6939
   68bbb    H10 2055   0.674   9.014   9.342  2.0572 -1.6962 -0.1892
   68bbb     C6 2056   0.981   8.751   9.221 -0.4728 -0.5532  0.4008
   68bbb    H11 2057   1.034   8.835   9.176 -0.0366 -1.1831 -0.2867
   68bbb    H12 2058   0.998   8.672   9.147 -2.6100 -0.2373 -0.5008
   68bbb     C7 2059   0.641   8.607   8.824 -0.1791 -0.3714 -0.3649
   68bbb    H13 2060   0.568   8.637   8.748  1.3475  1.9998 -0.9854
   68bbb    H14 2061   0.597   8.535   8.895  1.3527 -0.4042  0.6152
   68bbb     C8 2062   1.053   8.718   9.345 -0.6245 -0.4072  0.1352
   68bbb    H15 2063   1.005   8.647   9.412  0.2375 -1.5739 -0.4472
   68bbb    H16 2064   1.147   8.673   9.312 -1.1015 -1.4877  0.2165
   68bbb     C9 2065   0.489   9.089   9.264 -0.1997  0.0388  0.1749
   68bbb    H17 2066   0.438   9.029   9.341 -0.1704  0.7758  0.7841
   68bbb    H18 2067   0.433   9.092   9.169  2.7022 -0.6085 -1.6688
   68bbb     O1 2068   0.761   8.558   8.771 -0.0487  0.5543  0.0629
   68bbb    H19 2069   0.809   8.912   9.081  1.2247  1.1226  2.3612
   69bbb     N1 2070   0.419   8.582   7.861 -0.6669  0.6826  0.0267
   69bbb     C1 2071   0.279   8.531   7.826  0.8183  0.3601  0.4386
   69bbb     H1 2072   0.226   8.521   7.921  1.1972 -3.0495  0.4180
   69bbb     H2 2073   0.298   8.432   7.784  0.9458  1.0487 -1.1917
   69bbb     C2 2074   0.402   8.700   7.953 -0.2431 -0.3138 -0.4047
   69bbb     H3 2075   0.352   8.668   8.045  0.9233  2.8927  1.5113
   69bbb     H4 2076   0.331   8.768   7.905  0.4846 -0.4105 -1.6302
   69bbb     C3 2077   0.492   8.477   7.936  0.0127  0.2324 -0.1863
   69bbb     H5 2078   0.418   8.448   8.011 -0.5831 -1.0642 -1.2295
   69bbb     H6 2079   0.573   8.533   7.983 -1.5612  2.3513  0.1263
   69bbb     C4 2080   0.530   8.359   7.845  0.2918 -0.2639 -0.0852
   69bbb     H7 2081   0.586   8.380   7.753  0.2166 -2.4030 -0.6805
   69bbb     H8 2082   0.436   8.316   7.806  1.0492 -0.4822 -1.7485
   69bbb     C5 2083   0.205   8.610   7.720 -0.4314 -0.0962 -0.1982
   69bbb     H9 2084   0.194   8.712   7.758  0.3076  0.2438 -0.8807
   69bbb    H10 2085   0.110   8.559   7.696 -0.0887 -0.4296 -0.9062
   69bbb     C6 2086   0.525   8.789   7.985 -0.2551 -0.2874 -0.1098
   69bbb    H11 2087   0.590   8.823   7.903  0.2254  3.2731  1.5518
   69bbb    H12 2088   0.585   8.740   8.063  0.8431  0.1293 -0.6616
   69bbb     C7 2089   0.613   8.250   7.919  0.0556 -0.2779  0.5078
   69bbb    H13 2090   0.618   8.158   7.861  0.7865  0.6583 -0.9669
   69bbb    H14 2091   0.553   8.221   8.007 -0.2280  1.2148  0.8376
   69bbb     C8 2092   0.470   8.919   8.056  0.2831  0.5688  0.0391
   69bbb    H15 2093   0.419   8.986   7.985 -0.0350 -2.6051 -3.0126
   69bbb    H16 2094   0.391   8.891   8.126 -0.9030 -1.6822 -2.0439
   69bbb     C9 2095   0.294   8.614   7.593 -0.5797 -0.2361  0.0932
   69bbb    H17 2096   0.387   8.670   7.611  0.2009 -2.2688  3.3100
   69bbb    H18 2097   0.249   8.664   7.506  0.8362 -1.7533 -1.5895
   69bbb     O1 2098   0.746   8.295   7.967 -0.3166  0.2900  0.0982
   69bbb    H19 2099   0.464   8.617   7.775 -3.4316  1.1872 -1.3410
   70bbb     N1 2100   1.259   7.634   6.399 -0.2826 -0.5500 -0.1316
   70bbb     C1 2101   1.182   7.754   6.454 -0.9309  0.3305 -0.3386
   70bbb     H1 2102   1.201   7.751   6.561  1.5828 -0.3384 -0.7457
   70bbb     H2 2103   1.074   7.740   6.441 -0.8094 -1.1547  0.0697
   70bbb     C2 2104   1.254   7.619   6.251 -0.0686  0.1159 -0.3910
   70bbb     H3 2105   1.298   7.521   6.231  0.6906  0.0236  1.5407
   70bbb     H4 2106   1.308   7.705   6.211 -0.2003  0.1109 -0.5820
   70bbb     C3 2107   1.404   7.647   6.450  0.1664  0.0556  0.3875
   70bbb     H5 2108   1.399   7.683   6.553  3.0683 -2.1756  1.4290
   70bbb     H6 2109   1.454   7.723   6.390 -0.1337 -0.2405 -0.2541
   70bbb     C4 2110   1.490   7.517   6.443 -0.4961  0.3498 -0.1730
   70bbb     H7 2111   1.528   7.500   6.341 -1.7447 -2.7277 -0.2417
   70bbb     H8 2112   1.418   7.437   6.462 -0.5663  0.6520  0.8910
   70bbb     C5 2113   1.233   7.889   6.392  0.4155  0.3772 -0.0962
   70bbb     H9 2114   1.223   7.878   6.283  0.2315  0.2807 -0.0695
   70bbb    H10 2115   1.339   7.901   6.417  0.5130  1.3241 -0.8927
   70bbb     C6 2116   1.109   7.614   6.190  0.0124 -0.7340 -1.1574
   70bbb    H11 2117   1.054   7.704   6.221  0.7005 -0.7625  0.2536
   70bbb    H12 2118   1.066   7.521   6.232 -0.0920 -0.6174 -1.0056
   70bbb     C7 2119   1.607   7.512   6.549 -0.1332  0.2031  0.3540
   70bbb    H13 2120   1.668   7.603   6.535  1.1864 -0.4693  1.4541
   70bbb    H14 2121   1.669   7.423   6.534 -1.4188 -0.5029 -1.0357
   70bbb     C8 2122   1.114   7.626   6.040 -0.3330 -0.7288 -0.1567
   70bbb    H15 2123   1.165   7.542   5.991 -0.6127 -2.0725  1.7693
   70bbb    H16 2124   1.016   7.631   5.991 -0.2460 -0.5920 -0.3206
   70bbb     C9 2125   1.149   8.007   6.436 -0.1383 -0.4347  0.4701
   70bbb    H17 2126   1.212   8.096   6.423  0.0189 -0.5378  0.5276
   70bbb    H18 2127   1.103   7.985   6.533  0.1320 -4.5286 -0.1452
   70bbb     O1 2128   1.553   7.522   6.680  0.2519 -0.5449 -0.3270
   70bbb    H19 2129   1.220   7.546   6.434 -0.5400 -1.3101 -2.2212
   71bbb     N1 2130   1.070   6.857   6.938  0.2295 -0.4004 -0.1010
   71bbb     C1 2131   0.947   6.825   7.023  0.3970 -0.5446  0.3636
   71bbb     H1 2132   0.863   6.853   6.959 -0.2976 -1.4516  0.8583
   71bbb     H2 2133   0.953   6.897   7.104  0.7347  1.0047 -0.9777
   71bbb     C2 2134   1.045   6.981   6.853  0.6508 -0.1573  0.0318
   71bbb     H3 2135   1.146   7.002   6.817 -0.1383  0.9467 -1.7214
   71bbb     H4 2136   1.012   7.062   6.918  0.6645 -0.0267 -0.1232
   71bbb     C3 2137   1.185   6.892   7.043  0.3116  0.0575  0.1827
   71bbb     H5 2138   1.147   6.955   7.124 -0.4642  0.3578 -0.4144
   71bbb     H6 2139   1.253   6.955   6.985  2.9365 -2.0817  0.7448
   71bbb     C4 2140   1.287   6.789   7.088 -0.3059  0.0037  0.0361
   71bbb     H7 2141   1.330   6.738   7.000  1.6502 -0.0879  0.9913
   71bbb     H8 2142   1.243   6.714   7.155  0.1116 -0.6241 -0.3771
   71bbb     C5 2143   0.930   6.681   7.077  0.1576  0.0782 -0.5217
   71bbb     H9 2144   0.869   6.686   7.168  0.6666  4.0924 -0.1922
   71bbb    H10 2145   1.031   6.646   7.101  0.6463  0.0379 -2.4423
   71bbb     C6 2146   0.937   6.955   6.739 -0.0836 -0.8410  0.0872
   71bbb    H11 2147   0.852   6.902   6.783  0.7583 -0.1157  2.7403
   71bbb    H12 2148   0.973   6.883   6.665  0.8079 -1.2759  0.9217
   71bbb     C7 2149   1.406   6.839   7.169  0.1917  0.0883 -0.0442
   71bbb    H13 2150   1.473   6.757   7.195 -2.3577 -2.1222 -0.0043
   71bbb    H14 2151   1.374   6.891   7.260  0.5985  3.1732 -1.5344
   71bbb     C8 2152   0.894   7.088   6.672 -0.5124 -0.1910 -0.2967
   71bbb    H15 2153   0.984   7.132   6.628  0.0524  0.4475  1.4291
   71bbb    H16 2154   0.829   7.080   6.584  0.3710  0.3515 -1.0137
   71bbb     C9 2155   0.868   6.591   6.970 -0.6475  0.4198 -0.1094
   71bbb    H17 2156   0.860   6.491   7.013  1.5498  0.6051  0.8562
   71bbb    H18 2157   0.933   6.581   6.882 -1.2037 -1.0523 -0.3762
   71bbb     O1 2158   1.484   6.925   7.089 -0.3774  0.1950  0.1889
   71bbb    H19 2159   1.081   6.774   6.878 -1.2826 -1.2104  0.6831
   72bbb     N1 2160   2.913   6.964   5.952  0.4072  0.3927 -0.0727
   72bbb     C1 2161   2.960   6.840   5.882 -0.6615 -0.2041  0.3530
   72bbb     H1 2162   2.870   6.780   5.866 -0.2226 -0.5764 -0.7550
   72bbb     H2 2163   3.029   6.804   5.959  2.2682  2.2447 -0.9423
   72bbb     C2 2164   2.803   7.040   5.867 -0.0805  0.3236 -0.0965
   72bbb     H3 2165   2.707   7.010   5.908 -0.1697 -1.0142 -1.2178
   72bbb     H4 2166   2.809   7.020   5.760  1.5727  1.6679 -0.2898
   72bbb     C3 2167   2.859   6.936   6.090  0.4524 -0.7458 -0.8643
   72bbb     H5 2168   2.827   6.832   6.102 -3.6327  0.5842  2.1492
   72bbb     H6 2169   2.764   6.990   6.094 -0.0641 -1.6825  0.1316
   72bbb     C4 2170   2.953   6.980   6.212 -0.0961 -0.1323  0.2475
   72bbb     H7 2171   2.981   7.085   6.195  0.7576 -0.2552  0.8492
   72bbb     H8 2172   3.050   6.927   6.218  2.0284  3.0734 -2.1931
   72bbb     C5 2173   3.033   6.847   5.744  0.3828 -0.3221 -0.2521
   72bbb     H9 2174   2.982   6.907   5.667  0.8995 -0.2928 -0.5739
   72bbb    H10 2175   3.032   6.751   5.692 -1.2915  0.3613 -1.6081
   72bbb     C6 2176   2.826   7.196   5.872  0.0134  0.7822 -0.3571
   72bbb    H11 2177   2.923   7.222   5.828 -0.5313  0.9143 -1.5203
   72bbb    H12 2178   2.824   7.227   5.977 -0.5226 -0.6337  0.0802
   72bbb     C7 2179   2.888   6.953   6.350  0.4988 -0.4936  0.0073
   72bbb    H13 2180   2.947   7.009   6.425 -0.1548  0.4535 -0.1611
   72bbb    H14 2181   2.879   6.847   6.374  0.0271  0.0620  2.5579
   72bbb     C8 2182   2.712   7.275   5.795 -0.0462 -0.7973 -0.4603
   72bbb    H15 2183   2.700   7.371   5.847 -0.4354 -2.3792  2.6385
   72bbb    H16 2184   2.729   7.293   5.688 -2.4820 -1.5122 -1.0179
   72bbb     C9 2185   3.172   6.911   5.765 -0.2407  0.4233 -0.0574
   72bbb    H17 2186   3.215   6.880   5.861  0.1808  1.0568 -0.0384
   72bbb    H18 2187   3.155   7.018   5.750 -1.7823  0.3161  0.7331
   72bbb     O1 2188   2.749   7.004   6.351 -0.7854  0.6815  0.1632
   72bbb    H19 2189   2.999   7.022   5.955  1.6981 -1.4201 -0.4356
   73bbb     N1 2190   1.796   6.294   6.411  0.2271 -0.0467  0.3041
   73bbb     C1 2191   1.687   6.391   6.361  0.3156  0.7199  0.2484
   73bbb     H1 2192   1.736   6.486   6.383  0.8468 -0.0310  2.5950
   73bbb     H2 2193   1.609   6.373   6.434  0.4035 -1.1641 -0.0701
   73bbb     C2 2194   1.723   6.157   6.415 -0.5197  0.9481  0.0409
   73bbb     H3 2195   1.705   6.122   6.314 -1.4346 -1.0586  0.8498
   73bbb     H4 2196   1.628   6.176   6.465  0.5210  3.5262  1.2336
   73bbb     C3 2197   1.915   6.288   6.320 -0.0153  0.4824 -0.2114
   73bbb     H5 2198   1.889   6.290   6.214  0.6204 -0.0699 -0.3903
   73bbb     H6 2199   1.961   6.189   6.327 -0.5820  0.1170 -1.3984
   73bbb     C4 2200   2.012   6.399   6.363 -0.1370 -0.1971 -0.9535
   73bbb     H7 2201   2.026   6.409   6.471  0.8639  0.4450 -1.1271
   73bbb     H8 2202   1.971   6.493   6.324  0.9524  0.0534 -1.5511
   73bbb     C5 2203   1.637   6.368   6.213  0.0939  0.4898 -0.2796
   73bbb     H9 2204   1.593   6.270   6.195 -0.1480  0.4067  0.7188
   73bbb    H10 2205   1.722   6.373   6.144  0.0435  0.5606 -0.3369
   73bbb     C6 2206   1.803   6.047   6.496 -0.0534 -0.2010  0.3833
   73bbb    H11 2207   1.841   6.102   6.583 -0.4954 -0.4319  0.7271
   73bbb    H12 2208   1.900   6.018   6.453 -0.4307 -0.6527 -0.1834
   73bbb     C7 2209   2.156   6.376   6.303  0.6681 -0.4025  0.1377
   73bbb    H13 2210   2.150   6.361   6.194 -1.5266 -1.8960  0.3863
   73bbb    H14 2211   2.192   6.280   6.341  0.7055  0.0734  1.3445
   73bbb     C8 2212   1.718   5.932   6.537  0.5508  0.0921 -0.4044
   73bbb    H15 2213   1.683   5.873   6.452  1.5153  0.8596 -1.3695
   73bbb    H16 2214   1.762   5.859   6.606 -0.1662 -0.2976 -0.3504
   73bbb     C9 2215   1.542   6.485   6.173  0.0199 -1.0062  0.1751
   73bbb    H17 2216   1.595   6.581   6.175  1.1003 -1.4051 -2.9733
   73bbb    H18 2217   1.456   6.467   6.239  0.1379 -1.1926  0.2752
   73bbb     O1 2218   2.236   6.488   6.342 -0.0107  0.0732  0.1235
   73bbb    H19 2219   1.822   6.326   6.505  2.1697  0.0917 -0.2437
   74bbb     N1 2220   4.401   5.827   6.838  0.5178 -0.0338  0.1798
   74bbb     C1 2221   4.526   5.809   6.741  0.6427 -0.1287  0.0865
   74bbb     H1 2222   4.506   5.866   6.650 -0.5175 -0.5828  0.0381
   74bbb     H2 2223   4.539   5.706   6.707 -0.4531 -0.6772  1.2099
   74bbb     C2 2224   4.412   5.745   6.968  0.0625 -0.1566 -0.2626
   74bbb     H3 2225   4.314   5.763   7.012  0.4389  3.7577 -0.7033
   74bbb     H4 2226   4.485   5.796   7.031  1.7310 -1.1272 -1.3469
   74bbb     C3 2227   4.367   5.973   6.860 -0.5836  0.1803  0.8255
   74bbb     H5 2228   4.370   6.024   6.764  1.0232 -0.8995  0.2448
   74bbb     H6 2229   4.438   6.023   6.926  1.1703 -2.0045  0.7230
   74bbb     C4 2230   4.229   6.006   6.917 -0.0958  0.2707 -0.1454
   74bbb     H7 2231   4.220   5.954   7.014 -0.1830 -0.8566 -0.7330
   74bbb     H8 2232   4.147   5.959   6.861  0.3860  0.2377 -0.8333
   74bbb     C5 2233   4.661   5.852   6.793 -0.4931 -0.5308  0.2531
   74bbb     H9 2234   4.668   5.807   6.893  0.8187  1.3280  1.0401
   74bbb    H10 2235   4.669   5.960   6.805  1.6170 -0.7513  1.1795
   74bbb     C6 2236   4.457   5.598   6.959 -0.1446 -1.2767  0.5966
   74bbb    H11 2237   4.553   5.591   6.906 -0.9818  3.4696 -2.1278
   74bbb    H12 2238   4.386   5.535   6.903  0.9927 -1.8713 -0.2349
   74bbb     C7 2239   4.202   6.157   6.949 -0.1563 -0.0917  0.7867
   74bbb    H13 2240   4.233   6.204   6.855  1.7753 -3.2981 -0.3600
   74bbb    H14 2241   4.262   6.191   7.035  2.4863  0.1485 -1.0364
   74bbb     C8 2242   4.484   5.543   7.094  0.5576  0.0824  0.9282
   74bbb    H15 2243   4.400   5.576   7.157 -1.2957 -1.1185 -0.7656
   74bbb    H16 2244   4.488   5.433   7.098  2.7780  0.0243 -0.8869
   74bbb     C9 2245   4.774   5.797   6.698 -0.0527 -0.2245  0.3198
   74bbb    H17 2246   4.874   5.832   6.727  0.1440 -1.1856  0.8539
   74bbb    H18 2247   4.757   5.837   6.597 -1.9355 -2.8379 -0.5282
   74bbb     O1 2248   4.062   6.166   6.975 -0.1841 -0.5245  0.5531
   74bbb    H19 2249   4.323   5.793   6.780 -2.1521  0.2789  3.2848
   75bbb     N1 2250   4.064   6.704   6.177  0.7498 -0.2440  0.1351
   75bbb     C1 2251   4.163   6.794   6.255  0.7274  0.6176 -0.2010
   75bbb     H1 2252   4.258   6.766   6.209 -0.2158 -1.4958 -1.0101
   75bbb     H2 2253   4.156   6.757   6.357  1.8914 -0.7974 -0.5969
   75bbb     C2 2254   4.114   6.561   6.189  1.0415 -0.2207 -0.0287
   75bbb     H3 2255   4.134   6.545   6.296  1.3119 -2.3200 -0.3511
   75bbb     H4 2256   4.210   6.543   6.140  0.5707 -2.0921 -0.3575
   75bbb     C3 2257   3.922   6.727   6.233  0.4318 -0.5618  0.0123
   75bbb     H5 2258   3.855   6.659   6.181  0.8526 -0.8122 -0.2149
   75bbb     H6 2259   3.891   6.827   6.202 -0.4993 -0.7927  0.1963
   75bbb     C4 2260   3.908   6.708   6.390 -0.1244  0.0085  0.5333
   75bbb     H7 2261   3.983   6.765   6.446 -0.8641  1.0868  0.4592
   75bbb     H8 2262   3.897   6.600   6.405 -0.8419 -0.0368 -0.2186
   75bbb     C5 2263   4.149   6.949   6.227 -0.0616 -0.1580  0.6087
   75bbb     H9 2264   4.061   6.987   6.279  0.0494 -1.0408  1.4770
   75bbb    H10 2265   4.120   6.973   6.124  1.4110  0.1641  0.2432
   75bbb     C6 2266   4.019   6.450   6.145  0.5319  0.2162  0.1422
   75bbb    H11 2267   3.984   6.482   6.046  1.0269 -1.0767 -0.4859
   75bbb    H12 2268   3.930   6.437   6.207  1.0532 -0.6865  0.7307
   75bbb     C7 2269   3.765   6.749   6.437  0.3002 -0.2550  0.8407
   75bbb    H13 2270   3.694   6.686   6.382  1.0484  0.7822 -1.4421
   75bbb    H14 2271   3.753   6.852   6.401  2.3461 -0.2756  0.0038
   75bbb     C8 2272   4.093   6.314   6.130  0.0579 -0.0061  0.4114
   75bbb    H15 2273   4.119   6.286   6.232 -1.3803  1.2051  1.1504
   75bbb    H16 2274   4.023   6.244   6.083 -1.5015  2.7388 -1.6864
   75bbb     C9 2275   4.261   7.028   6.284  0.0312 -0.2038 -0.6089
   75bbb    H17 2276   4.261   7.130   6.244 -0.2422 -0.7677 -2.1268
   75bbb    H18 2277   4.358   6.980   6.265 -0.2880 -0.6637 -1.1035
   75bbb     O1 2278   3.751   6.738   6.581 -0.5866 -0.2437 -0.0623
   75bbb    H19 2279   4.075   6.732   6.079 -0.2652 -0.6304 -0.1000
   76bbb     N1 2280   3.279   5.777   8.145  0.1311  0.2864  0.6618
   76bbb     C1 2281   3.180   5.885   8.191 -0.1344  0.3096  0.6498
   76bbb     H1 2282   3.219   5.986   8.178 -3.1576  1.7521  1.9153
   76bbb     H2 2283   3.172   5.862   8.298  1.2305 -4.2680  0.0152
   76bbb     C2 2284   3.285   5.769   7.990  0.7683 -0.1416  0.5169
   76bbb     H3 2285   3.290   5.867   7.944 -0.1280 -1.0244 -1.5781
   76bbb     H4 2286   3.186   5.729   7.970  0.0214  1.4594  0.8503
   76bbb     C3 2287   3.414   5.820   8.185  0.4621 -0.4571 -0.2834
   76bbb     H5 2288   3.391   5.850   8.288  0.5102  0.4577 -0.5374
   76bbb     H6 2289   3.437   5.907   8.124 -1.4820  0.4416  0.1825
   76bbb     C4 2290   3.525   5.717   8.200 -0.0204 -0.1554  0.6436
   76bbb     H7 2291   3.557   5.682   8.101 -1.1229  1.0959 -0.1984
   76bbb     H8 2292   3.485   5.628   8.249 -0.0392 -0.1722  0.5981
   76bbb     C5 2293   3.032   5.863   8.145  0.2356  0.1307  0.6086
   76bbb     H9 2294   3.004   5.763   8.179 -5.0309  2.0589  2.9887
   76bbb    H10 2295   3.014   5.883   8.039 -1.7243 -0.4946  0.7962
   76bbb     C6 2296   3.380   5.672   7.909  0.0433 -0.1396 -0.3450
   76bbb    H11 2297   3.402   5.591   7.979  0.6476 -0.2670 -0.6744
   76bbb    H12 2298   3.473   5.723   7.879  0.7844 -1.8833 -1.1032
   76bbb     C7 2299   3.650   5.779   8.270  0.1422  0.0774 -0.6669
   76bbb    H13 2300   3.728   5.702   8.265  0.2251  0.1771 -0.9132
   76bbb    H14 2301   3.610   5.795   8.371 -1.5916 -1.4213 -1.0722
   76bbb     C8 2302   3.309   5.630   7.779 -0.7997 -0.0076  0.3073
   76bbb    H15 2303   3.362   5.541   7.743 -0.0837 -0.2062  1.7915
   76bbb    H16 2304   3.204   5.603   7.793 -1.3634  0.9236 -1.7480
   76bbb     C9 2305   2.939   5.937   8.234 -0.5815  0.0627 -0.1125
   76bbb    H17 2306   2.838   5.904   8.206 -0.6589 -0.4680  0.7452
   76bbb    H18 2307   2.930   6.044   8.215  0.0854  0.0828 -0.3702
   76bbb     O1 2308   3.706   5.901   8.210 -0.3352 -0.1763  0.1881
   76bbb    H19 2309   3.248   5.687   8.185 -0.7066  1.0105  1.6763
   77bbb     N1 2310   4.447   6.653   8.595  0.2649  1.1628  0.6054
   77bbb     C1 2311   4.337   6.623   8.697  0.7494 -0.0933 -0.2809
   77bbb     H1 2312   4.336   6.513   8.698 -2.7673 -0.1784  1.1949
   77bbb     H2 2313   4.245   6.657   8.648 -0.6476 -2.1001  0.7572
   77bbb     C2 2314   4.582   6.589   8.620  0.3331  0.5303  0.3056
   77bbb     H3 2315   4.634   6.591   8.524  2.3191 -1.2995  1.2293
   77bbb     H4 2316   4.565   6.489   8.661  0.7036  0.0388 -0.7170
   77bbb     C3 2317   4.397   6.595   8.463 -0.3947 -0.4256  0.6381
   77bbb     H5 2318   4.288   6.599   8.477 -0.2251  0.1916  1.9925
   77bbb     H6 2319   4.413   6.488   8.470 -0.3505 -0.3246  2.7208
   77bbb     C4 2320   4.448   6.658   8.332 -0.5533  0.4518  0.1211
   77bbb     H7 2321   4.554   6.686   8.336 -0.7988  1.3650  0.5971
   77bbb     H8 2322   4.393   6.752   8.319 -2.0983 -0.3784  0.3575
   77bbb     C5 2323   4.362   6.684   8.836  0.2880 -0.9637 -0.1482
   77bbb     H9 2324   4.452   6.635   8.876 -0.9734 -0.9202  3.1017
   77bbb    H10 2325   4.288   6.651   8.911 -0.5326 -1.3458 -1.1096
   77bbb     C6 2326   4.675   6.649   8.721  0.2250  0.9623 -0.4328
   77bbb    H11 2327   4.646   6.617   8.822  1.9609  0.6758 -0.0039
   77bbb    H12 2328   4.672   6.759   8.718 -1.7364  0.9396 -1.2863
   77bbb     C7 2329   4.412   6.568   8.212  0.0480  0.7744 -0.6854
   77bbb    H13 2330   4.472   6.476   8.219 -1.7942 -0.7061 -2.9153
   77bbb    H14 2331   4.459   6.614   8.124 -0.6242  1.7671 -0.5424
   77bbb     C8 2332   4.823   6.615   8.700 -0.2248 -0.0460  0.9872
   77bbb    H15 2333   4.890   6.670   8.767  1.7975 -0.3147 -0.7039
   77bbb    H16 2334   4.839   6.507   8.709  1.0022  0.1721  1.6348
   77bbb     C9 2335   4.351   6.841   8.851 -0.2568 -0.5179 -0.7058
   77bbb    H17 2336   4.419   6.900   8.789  0.7118  0.8529  1.5365
   77bbb    H18 2337   4.374   6.862   8.956 -3.5612 -1.4762  0.3551
   77bbb     O1 2338   4.270   6.542   8.177 -0.0750 -0.1036 -0.4170
   77bbb    H19 2339   4.462   6.754   8.582  1.2203  0.6424 -4.0806
   78bbb     N1 2340   4.877   8.649  11.861 -0.0270 -0.6110 -0.2292
   78bbb     C1 2341   4.776   8.731  11.945 -0.0643 -0.1396  0.6513
   78bbb     H1 2342   4.830   8.814  11.991 -1.0114  0.1427  1.2958
   78bbb     H2 2343   4.735   8.670  12.026 -0.5250  1.2850  1.5349
   78bbb     C2 2344   4.988   8.612  11.959  0.3415  0.6753 -0.4826
   78bbb     H3 2345   5.029   8.706  11.998  0.0427  1.1243 -1.2278
   78bbb     H4 2346   5.070   8.570  11.901 -0.4096 -1.3618 -0.1311
   78bbb     C3 2347   4.806   8.535  11.796  0.7422  0.1041  0.5481
   78bbb     H5 2348   4.731   8.572  11.725  1.5288  0.9674  0.1368
   78bbb     H6 2349   4.741   8.474  11.859  1.5141 -1.5541 -0.2077
   78bbb     C4 2350   4.901   8.438  11.712 -0.2280 -0.5893 -0.0285
   78bbb     H7 2351   4.997   8.411  11.758  1.0542  1.1557 -1.5398
   78bbb     H8 2352   4.922   8.492  11.619  1.3176 -0.4163  0.3821
   78bbb     C5 2353   4.656   8.790  11.867 -0.9098 -0.5483  0.1516
   78bbb     H9 2354   4.601   8.720  11.803 -0.0056  0.0017 -1.2903
   78bbb    H10 2355   4.700   8.863  11.798 -0.5023 -0.6221  0.3296
   78bbb     C6 2356   4.961   8.496  12.060 -0.2040 -0.2858  0.2762
   78bbb    H11 2357   4.984   8.404  12.005  0.3087  1.5866 -2.9178
   78bbb    H12 2358   4.855   8.498  12.088 -0.4682 -1.2079 -0.6059
   78bbb     C7 2359   4.821   8.309  11.679 -0.7427  0.1459  0.2197
   78bbb    H13 2360   4.788   8.265  11.774  2.1311 -1.0824  0.7366
   78bbb    H14 2361   4.873   8.237  11.614  0.5073  0.0446  1.2932
   78bbb     C8 2362   5.060   8.506  12.176  0.1173 -0.6740  0.8454
   78bbb    H15 2363   5.049   8.420  12.243  0.2721 -1.9723 -0.7226
   78bbb    H16 2364   5.160   8.500  12.131 -0.0734  1.0286  0.1379
   78bbb     C9 2365   4.554   8.875  11.952 -0.6035 -0.4345  0.4504
   78bbb    H17 2366   4.470   8.809  11.979 -1.4451  0.2142 -0.5314
   78bbb    H18 2367   4.520   8.960  11.892 -2.5069 -1.3098  0.2193
   78bbb     O1 2368   4.698   8.356  11.611 -0.1924  0.3499  0.3090
   78bbb    H19 2369   4.911   8.709  11.784 -0.1432 -2.9894 -2.2900
   79bbb     N1 2370   4.082   9.051  11.166 -0.4049 -0.6120 -0.3251
   79bbb     C1 2371   3.974   8.968  11.091 -0.1900  0.1452 -0.0094
   79bbb     H1 2372   3.921   9.033  11.021  0.2311  1.8552  1.1912
   79bbb     H2 2373   3.901   8.928  11.162  0.1796  2.2511  1.6755
   79bbb     C2 2374   4.166   9.121  11.061 -0.3604 -0.1557  0.2504
   79bbb     H3 2375   4.218   9.041  11.009  1.7605  0.7287  0.9152
   79bbb     H4 2376   4.241   9.181  11.114 -1.0222  1.1909 -0.2811
   79bbb     C3 2377   4.014   9.146  11.267  0.0107 -0.7916 -0.7642
   79bbb     H5 2378   3.939   9.205  11.214 -0.3614 -0.9353 -0.4078
   79bbb     H6 2379   4.091   9.205  11.318 -0.8960 -1.1983  1.1687
   79bbb     C4 2380   3.923   9.082  11.377 -0.1375 -0.2435 -0.4119
   79bbb     H7 2381   3.839   9.037  11.323 -1.5018  0.0869  1.3501
   79bbb     H8 2382   3.871   9.159  11.436 -0.1079 -0.3782 -0.2100
   79bbb     C5 2383   4.029   8.848  11.017 -0.4593 -0.2019 -0.0278
   79bbb     H9 2384   4.082   8.779  11.084 -1.3749 -1.6352 -0.7234
   79bbb    H10 2385   4.107   8.888  10.951 -0.4975  2.0837  1.1907
   79bbb     C6 2386   4.093   9.218  10.953  0.4334 -0.1840 -0.7105
   79bbb    H11 2387   4.010   9.163  10.907 -0.6683 -0.3869  1.3770
   79bbb    H12 2388   4.165   9.256  10.880 -1.0262  4.0111 -0.2403
   79bbb     C7 2389   3.998   8.997  11.481 -0.3836 -0.3108  0.2419
   79bbb    H13 2390   3.938   8.959  11.564 -0.6844 -3.0277 -1.1186
   79bbb    H14 2391   4.083   9.053  11.523 -1.3725  1.9521 -0.6161
   79bbb     C8 2392   4.048   9.352  11.006 -0.0731 -0.0791 -0.5334
   79bbb    H15 2393   4.012   9.411  10.921  1.4462  1.6486 -0.0498
   79bbb    H16 2394   3.960   9.347  11.071 -0.8702 -0.6489 -1.6365
   79bbb     C9 2395   3.927   8.767  10.932 -1.0387 -0.5761  0.3721
   79bbb    H17 2396   3.985   8.705  10.863  0.3390  0.9519  0.1007
   79bbb    H18 2397   3.874   8.833  10.862  0.9129 -0.0916 -0.7306
   79bbb     O1 2398   4.047   8.878  11.404 -0.2874 -0.0796  0.0928
   79bbb    H19 2399   4.135   8.990  11.229 -1.8025 -1.4616  0.0487
   80bbb     N1 2400   4.554   6.929  12.200 -0.2558  0.3257 -0.5818
   80bbb     C1 2401   4.420   6.861  12.205  0.1609  0.5399 -0.0554
   80bbb     H1 2402   4.432   6.760  12.167 -0.7549  0.2091  0.4765
   80bbb     H2 2403   4.347   6.898  12.133 -1.8622 -0.3988  1.3810
   80bbb     C2 2404   4.651   6.811  12.215 -1.1043  0.0222 -0.1965
   80bbb     H3 2405   4.748   6.851  12.184 -0.6482  0.5772  1.7664
   80bbb     H4 2406   4.618   6.731  12.150 -0.6432  0.9595 -1.6323
   80bbb     C3 2407   4.564   6.992  12.062 -0.2639  0.0508 -0.2316
   80bbb     H5 2408   4.589   6.904  12.002 -1.4326  0.5275 -1.4646
   80bbb     H6 2409   4.649   7.060  12.070 -1.2892  1.2648  0.8266
   80bbb     C4 2410   4.451   7.083  11.999  0.1829  0.1233 -0.1380
   80bbb     H7 2411   4.429   7.152  12.081  2.6541 -1.2494  1.7990
   80bbb     H8 2412   4.357   7.028  11.981  1.4448 -1.4348 -2.5499
   80bbb     C5 2413   4.340   6.863  12.344 -0.2037 -0.1314 -0.2286
   80bbb     H9 2414   4.385   6.814  12.431 -0.3185 -0.0870 -0.1429
   80bbb    H10 2415   4.247   6.811  12.318 -0.1955  0.2869 -1.1492
   80bbb     C6 2416   4.685   6.763  12.358  0.2347 -1.0836 -0.4985
   80bbb    H11 2417   4.606   6.695  12.394 -1.7193  0.8804 -0.8269
   80bbb    H12 2418   4.687   6.847  12.428 -1.6127 -0.7596 -0.7734
   80bbb     C7 2419   4.492   7.147  11.863 -0.7092 -0.1461 -0.2321
   80bbb    H13 2420   4.581   7.206  11.886 -0.5528 -1.3340  2.6288
   80bbb    H14 2421   4.424   7.228  11.833  0.6356  0.6436 -1.2826
   80bbb     C8 2422   4.824   6.685  12.354  0.9215 -0.2384  0.1946
   80bbb    H15 2423   4.828   6.619  12.266 -0.6438  0.0483 -0.1164
   80bbb    H16 2424   4.906   6.758  12.358  0.0979  0.6555  1.8308
   80bbb     C9 2425   4.292   7.008  12.381  0.2635  0.2754  0.2926
   80bbb    H17 2426   4.376   7.071  12.413  1.1115 -1.2743  1.2485
   80bbb    H18 2427   4.214   6.993  12.456 -0.2308 -1.6662 -0.5423
   80bbb     O1 2428   4.516   7.039  11.768 -0.0233 -0.7070 -0.1675
   80bbb    H19 2429   4.568   7.008  12.266 -0.7196  0.5062 -0.6919
   81bbb     N1 2430   3.726   6.481  12.017 -0.6186 -0.7010  0.7292
   81bbb     C1 2431   3.776   6.554  12.143 -0.1579 -0.6228 -0.0649
   81bbb     H1 2432   3.707   6.511  12.216 -1.4888  0.8749 -0.3851
   81bbb     H2 2433   3.745   6.659  12.144 -2.0074 -1.1296 -0.0562
   81bbb     C2 2434   3.572   6.480  12.032  0.5613  0.0006 -0.5371
   81bbb     H3 2435   3.535   6.582  12.022 -2.0038 -0.8963 -0.7496
   81bbb     H4 2436   3.555   6.443  12.133 -0.0365  2.3501  0.2916
   81bbb     C3 2437   3.776   6.549  11.891  0.5031 -0.1699  0.2504
   81bbb     H5 2438   3.730   6.490  11.811 -1.1672 -0.7817  1.5966
   81bbb     H6 2439   3.885   6.547  11.892  0.5076 -0.1730  2.0457
   81bbb     C4 2440   3.728   6.697  11.873 -0.4028  0.2639  0.3808
   81bbb     H7 2441   3.767   6.753  11.959  0.8589  2.3222 -1.4156
   81bbb     H8 2442   3.620   6.704  11.857 -0.7555  0.5155  2.6183
   81bbb     C5 2443   3.923   6.529  12.177  0.4697  0.0025  0.0283
   81bbb     H9 2444   3.985   6.570  12.097  1.2554 -1.9669 -0.4386
   81bbb    H10 2445   3.939   6.420  12.175 -1.3301 -0.3032  0.0056
   81bbb     C6 2446   3.497   6.399  11.927  0.6949  0.3949 -0.2463
   81bbb    H11 2447   3.507   6.449  11.831  1.7091  0.6118 -0.0380
   81bbb    H12 2448   3.391   6.399  11.954  0.7056 -2.0502  0.0295
   81bbb     C7 2449   3.792   6.775  11.747  0.5824  0.9056 -0.5425
   81bbb    H13 2450   3.769   6.882  11.752  2.4000  1.2902  1.6701
   81bbb    H14 2451   3.747   6.734  11.656 -0.4724 -1.1273  0.8284
   81bbb     C8 2452   3.526   6.248  11.933  0.0443  0.1526 -0.4452
   81bbb    H15 2453   3.452   6.191  11.876  1.3749 -0.8569 -1.2450
   81bbb    H16 2454   3.625   6.220  11.894 -1.0196  0.9679 -3.9862
   81bbb     C9 2455   3.969   6.583  12.311 -0.1693 -0.4409  0.2234
   81bbb    H17 2456   3.966   6.693  12.318 -0.8506 -0.2868 -1.8917
   81bbb    H18 2457   4.072   6.548  12.324  0.0998  0.4114  0.4816
   81bbb     O1 2458   3.937   6.757  11.745  0.3920 -0.1798  0.4015
   81bbb    H19 2459   3.766   6.387  12.023 -0.6838 -0.6880  1.5785
   82bbb     N1 2460   4.867   6.494  11.058 -0.0329  0.4589 -0.6901
   82bbb     C1 2461   5.005   6.428  11.083 -0.2036 -0.1947  0.7557
   82bbb     H1 2462   5.064   6.507  11.129 -1.1170 -0.1376  1.8418
   82bbb     H2 2463   5.049   6.409  10.984  3.1680  0.2327  2.0396
   82bbb     C2 2464   4.782   6.531  11.180 -0.4891 -0.3064  0.0240
   82bbb     H3 2465   4.774   6.443  11.244  0.7706  0.5542  1.4525
   82bbb     H4 2466   4.687   6.559  11.135 -0.4482 -1.2998 -0.7037
   82bbb     C3 2467   4.884   6.606  10.954 -0.7763  0.5284 -0.7943
   82bbb     H5 2468   4.952   6.672  11.007  0.7268 -1.6053  0.1000
   82bbb     H6 2469   4.785   6.651  10.947 -0.3377  1.6660  0.0392
   82bbb     C4 2470   4.948   6.573  10.822  0.1411  0.0927  0.3990
   82bbb     H7 2471   4.917   6.480  10.772  1.6568 -0.2791  0.0799
   82bbb     H8 2472   5.053   6.558  10.849 -0.0519  1.1705  1.8338
   82bbb     C5 2473   5.015   6.310  11.176  0.3457  0.1768 -0.8205
   82bbb     H9 2474   4.932   6.240  11.161 -0.4238  1.1531 -1.2632
   82bbb    H10 2475   5.033   6.336  11.281  4.4652 -1.3114 -0.9601
   82bbb     C6 2476   4.830   6.656  11.260 -0.5996 -0.1646 -0.1650
   82bbb    H11 2477   4.826   6.741  11.191 -0.3179 -0.2620 -0.3055
   82bbb    H12 2478   4.937   6.639  11.280 -0.2999 -2.9319 -3.2074
   82bbb     C7 2479   4.931   6.684  10.712 -0.1928  0.2950 -0.2060
   82bbb    H13 2480   4.993   6.658  10.625 -1.6434 -0.2758 -1.1115
   82bbb    H14 2481   4.962   6.778  10.759 -0.8023  0.9310 -1.0508
   82bbb     C8 2482   4.740   6.688  11.380 -0.4070 -0.3199  0.5535
   82bbb    H15 2483   4.773   6.785  11.419  1.8533 -0.9903  0.4609
   82bbb    H16 2484   4.637   6.691  11.342 -0.1033  1.1475 -0.2692
   82bbb     C9 2485   5.146   6.225  11.141  0.0259 -0.0269 -0.3905
   82bbb    H17 2486   5.176   6.171  11.232  1.4168  1.7445  0.2797
   82bbb    H18 2487   5.231   6.293  11.126 -1.2900  1.5262 -1.1542
   82bbb     O1 2488   4.794   6.703  10.661 -0.1798  0.4494 -0.4230
   82bbb    H19 2489   4.806   6.425  11.012 -1.6449  1.0459  0.4853
   83bbb     N1 2490   5.135   6.013   9.965  0.1893  0.1084 -0.2399
   83bbb     C1 2491   5.213   6.115   9.881  0.6892 -0.1702  0.7087
   83bbb     H1 2492   5.276   6.182   9.939  2.2563  0.6590 -1.7650
   83bbb     H2 2493   5.138   6.178   9.833  0.9945 -2.2368 -2.8602
   83bbb     C2 2494   5.237   5.945  10.053  0.0887  0.1388 -0.1372
   83bbb     H3 2495   5.271   6.021  10.123 -0.4934  0.6778 -0.4347
   83bbb     H4 2496   5.324   5.924   9.990 -0.2134 -0.5296 -0.3423
   83bbb     C3 2497   5.020   6.069  10.043  0.5177  0.0430 -0.2608
   83bbb     H5 2498   5.054   6.153  10.104 -3.3466  2.7586 -1.4905
   83bbb     H6 2499   4.986   5.988  10.108  0.6322  0.6300  0.5518
   83bbb     C4 2500   4.895   6.119   9.962  0.5779  0.1818  0.3996
   83bbb     H7 2501   4.875   6.052   9.878  0.7541  1.3572 -0.6080
   83bbb     H8 2502   4.922   6.213   9.912 -2.6685  1.7512  1.3323
   83bbb     C5 2503   5.299   6.053   9.769 -0.1672  0.5030  0.5878
   83bbb     H9 2504   5.236   5.983   9.711  1.7362  0.4472 -1.5775
   83bbb    H10 2505   5.391   6.010   9.810  0.7608  0.7628 -1.1023
   83bbb     C6 2506   5.193   5.813  10.115  0.3627 -0.3239  0.3103
   83bbb    H11 2507   5.101   5.812  10.175 -0.0807 -0.8792 -0.3535
   83bbb    H12 2508   5.265   5.794  10.196  3.0274  1.4183 -1.5179
   83bbb     C7 2509   4.763   6.140  10.032 -0.7586  0.7180 -0.5931
   83bbb    H13 2510   4.715   6.047  10.065  3.2987 -1.3058  0.1394
   83bbb    H14 2511   4.696   6.185   9.957 -1.5729  2.4602  1.0767
   83bbb     C8 2512   5.190   5.688  10.018  0.4862  0.0951 -0.5187
   83bbb    H15 2513   5.173   5.590  10.065  0.2241  0.4271  0.0955
   83bbb    H16 2514   5.097   5.700   9.962  0.2221 -0.6311 -0.2475
   83bbb     C9 2515   5.345   6.154   9.661  0.5975  0.5275 -0.2121
   83bbb    H17 2516   5.390   6.108   9.572  1.9740  2.1541 -0.4016
   83bbb    H18 2517   5.421   6.221   9.704  3.1365 -0.6568 -2.5579
   83bbb     O1 2518   4.779   6.230  10.149  0.4547  0.2398  0.2150
   83bbb    H19 2519   5.091   5.943   9.904 -1.5702 -0.6986  1.8141
   84bbb     N1 2520   3.791   5.572  10.174  0.0138  0.2863  0.0105
   84bbb     C1 2521   3.707   5.473  10.247  0.8213  0.1278 -0.5435
   84bbb     H1 2522   3.608   5.481  10.203  0.5810 -0.5635 -0.1535
   84bbb     H2 2523   3.700   5.505  10.351 -0.6035  0.0799 -0.6026
   84bbb     C2 2524   3.793   5.543  10.024 -0.5125 -0.0687 -0.6026
   84bbb     H3 2525   3.695   5.568   9.985 -1.1768 -0.4356  0.7711
   84bbb     H4 2526   3.801   5.434  10.027  0.3037 -0.0019  0.0661
   84bbb     C3 2527   3.736   5.713  10.192  0.0234 -0.2631  0.7171
   84bbb     H5 2528   3.696   5.742  10.095 -2.1286 -2.4256  0.8840
   84bbb     H6 2529   3.822   5.780  10.201 -0.0751 -0.1881  1.1127
   84bbb     C4 2530   3.630   5.762  10.291  0.8030  0.6966 -0.8395
   84bbb     H7 2531   3.667   5.744  10.393  1.6421 -0.8467 -1.3917
   84bbb     H8 2532   3.535   5.708  10.284 -0.0224  1.8633  0.6677
   84bbb     C5 2533   3.746   5.321  10.248 -0.9826  0.0120  0.4033
   84bbb     H9 2534   3.829   5.300  10.317 -0.2308 -1.6043 -0.9090
   84bbb    H10 2535   3.772   5.293  10.145  1.9563  0.8901  0.8140
   84bbb     C6 2536   3.919   5.586   9.941  1.2024  0.7205 -1.0241
   84bbb    H11 2537   3.961   5.680   9.977  0.1590  0.1311  2.0446
   84bbb    H12 2538   3.885   5.611   9.840  0.0067 -1.2690 -1.1790
   84bbb     C7 2539   3.603   5.912  10.295 -0.0174  0.6367 -0.0931
   84bbb    H13 2540   3.693   5.962  10.332  0.5180 -0.1543 -0.3086
   84bbb    H14 2541   3.533   5.937  10.376  0.3491  0.9188  0.1392
   84bbb     C8 2542   4.030   5.485   9.928 -0.7139  0.4920  0.0563
   84bbb    H15 2543   3.998   5.389   9.886 -0.6538  0.8240 -0.7663
   84bbb    H16 2544   4.109   5.514   9.858 -1.9993 -1.1511 -2.2135
   84bbb     C9 2545   3.623   5.247  10.299  0.1455  0.1409  0.7319
   84bbb    H17 2546   3.538   5.291  10.245  0.7965  1.1583  0.5095
   84bbb    H18 2547   3.611   5.284  10.401  3.3307  0.4898  1.0793
   84bbb     O1 2548   3.558   5.953  10.164 -0.5110 -0.2647  0.2272
   84bbb    H19 2549   3.888   5.560  10.208  0.6763  1.3864 -1.3494
   85bbb     N1 2550   2.741   5.892  10.346 -0.5075 -0.2345 -1.3700
   85bbb     C1 2551   2.616   5.980  10.354 -0.3214 -0.5462 -0.6486
   85bbb     H1 2552   2.546   5.925  10.291  0.2853 -1.6894 -0.3670
   85bbb     H2 2553   2.639   6.073  10.302 -1.0840  0.6349  1.0729
   85bbb     C2 2554   2.753   5.822  10.213 -0.8494  0.0681 -0.1370
   85bbb     H3 2555   2.835   5.751  10.226  0.9121  1.7837 -1.3251
   85bbb     H4 2556   2.773   5.889  10.130 -1.2249 -0.7668 -0.9144
   85bbb     C3 2557   2.864   5.981  10.365  0.4655  0.8011  0.7277
   85bbb     H5 2558   2.853   6.041  10.455 -2.5373  3.8052 -1.3760
   85bbb     H6 2559   2.854   6.048  10.280  0.6427 -2.8587 -2.4489
   85bbb     C4 2560   3.001   5.908  10.360 -0.1977 -0.0687  0.5366
   85bbb     H7 2561   3.019   5.876  10.257  0.2997 -2.2160  1.2524
   85bbb     H8 2562   2.982   5.825  10.429 -3.8381  0.6039  0.5586
   85bbb     C5 2563   2.551   5.989  10.497  0.4012 -0.4461 -0.6780
   85bbb     H9 2564   2.599   6.066  10.559 -1.0438  1.6513 -2.0246
   85bbb    H10 2565   2.533   5.899  10.557 -2.2118  0.7409  0.4780
   85bbb     C6 2566   2.639   5.723  10.177 -0.2128 -0.3860  0.0146
   85bbb    H11 2567   2.547   5.775  10.149 -0.4083 -0.3357  0.7224
   85bbb    H12 2568   2.608   5.651  10.254  0.3193 -0.5909  0.0464
   85bbb     C7 2569   3.111   6.002  10.415 -0.3262 -0.9199 -0.0488
   85bbb    H13 2570   3.213   5.962  10.420 -0.1272 -0.4149  0.0337
   85bbb    H14 2571   3.087   6.018  10.521  1.3026  0.1224  0.2039
   85bbb     C8 2572   2.673   5.638  10.059 -0.6930 -0.1015 -0.0879
   85bbb    H15 2573   2.578   5.592  10.029 -0.0262 -1.0433 -0.8304
   85bbb    H16 2574   2.717   5.695   9.976  0.2265 -0.4556  0.1359
   85bbb     C9 2575   2.403   6.050  10.480  0.4992  0.6253 -0.1810
   85bbb    H17 2576   2.407   6.148  10.430  3.1993  1.7456  1.9199
   85bbb    H18 2577   2.350   6.059  10.576 -0.6178 -1.1044 -0.5882
   85bbb     O1 2578   3.111   6.123  10.339 -0.2291  0.1603  0.0619
   85bbb    H19 2579   2.743   5.820  10.419  1.5603 -2.6400 -3.5821
   86bbb     N1 2580   2.296   9.331  10.141  0.9777  0.0013  0.1010
   86bbb     C1 2581   2.194   9.445  10.102  0.0884  0.1877 -0.5878
   86bbb     H1 2582   2.250   9.524  10.051  0.0684 -0.4219 -1.5746
   86bbb     H2 2583   2.159   9.480  10.200  0.4498  2.1066 -1.0912
   86bbb     C2 2584   2.376   9.274  10.021 -0.3826 -0.2987 -0.5744
   86bbb     H3 2585   2.309   9.225   9.950  0.3843  2.6171 -3.5655
   86bbb     H4 2586   2.447   9.205  10.067  1.0505  2.7152  2.1136
   86bbb     C3 2587   2.398   9.391  10.246  0.2774 -0.3583 -0.8454
   86bbb     H5 2588   2.463   9.462  10.196  1.9735 -1.7788 -0.7626
   86bbb     H6 2589   2.455   9.301  10.268 -1.4373 -1.3300 -0.1470
   86bbb     C4 2590   2.341   9.453  10.379  0.0014 -0.4643 -0.3156
   86bbb     H7 2591   2.291   9.546  10.349 -2.6841 -1.9881 -0.9498
   86bbb     H8 2592   2.417   9.473  10.455  0.6168 -2.6226 -0.2951
   86bbb     C5 2593   2.077   9.402  10.005 -0.4939 -0.1075 -0.3716
   86bbb     H9 2594   2.029   9.325  10.068  1.2812 -0.0257  1.1830
   86bbb    H10 2595   2.116   9.357   9.913 -2.3118  0.3418 -1.4050
   86bbb     C6 2596   2.455   9.376   9.933 -0.2355  0.1388  0.0723
   86bbb    H11 2597   2.527   9.431   9.995  2.3679 -0.3427 -2.3157
   86bbb    H12 2598   2.387   9.449   9.886  0.2806 -0.0643 -1.0238
   86bbb     C7 2599   2.230   9.349  10.439 -0.8365  0.0776  0.1759
   86bbb    H13 2600   2.150   9.327  10.368  0.1742 -0.6764 -0.7783
   86bbb    H14 2601   2.185   9.409  10.519 -0.9244  1.6688 -1.0153
   86bbb     C8 2602   2.526   9.295   9.824  0.1640 -0.0415  0.0634
   86bbb    H15 2603   2.598   9.360   9.773  0.3390  0.9602  1.5260
   86bbb    H16 2604   2.575   9.209   9.872 -1.0948 -0.7873  0.0648
   86bbb     C9 2605   1.985   9.516   9.979  0.2209  0.2135  0.1554
   86bbb    H17 2606   1.944   9.555  10.073  1.3543  1.4350  0.1679
   86bbb    H18 2607   1.896   9.479   9.927  0.5746  0.4618 -0.6545
   86bbb     O1 2608   2.295   9.230  10.499 -0.2378  1.0834  0.9924
   86bbb    H19 2609   2.248   9.249  10.181  2.1493 -0.6888  0.1420
   87bbb     N1 2610   2.625   8.590   9.936 -0.3533  0.3164 -0.9977
   87bbb     C1 2611   2.723   8.662  10.032 -0.3877  0.6116  0.1773
   87bbb     H1 2612   2.827   8.659   9.999  0.3871 -0.9877  2.5690
   87bbb     H2 2613   2.717   8.612  10.128  2.8165  1.1835  0.7616
   87bbb     C2 2614   2.689   8.474   9.864 -0.1214  0.2883  0.0679
   87bbb     H3 2615   2.616   8.433   9.795 -0.3102  1.0602 -0.1966
   87bbb     H4 2616   2.719   8.406   9.944  0.3269 -0.2647 -0.5501
   87bbb     C3 2617   2.490   8.557  10.009 -0.2707  0.6248 -0.3495
   87bbb     H5 2618   2.417   8.542   9.930 -0.0234 -0.0973 -0.4409
   87bbb     H6 2619   2.473   8.646  10.070 -0.7504 -1.1514  2.2600
   87bbb     C4 2620   2.485   8.442  10.120 -0.2947 -0.4485  0.2027
   87bbb     H7 2621   2.557   8.465  10.199  0.3590  1.2906 -0.8495
   87bbb     H8 2622   2.500   8.342  10.076 -2.7463 -0.4585 -0.7670
   87bbb     C5 2623   2.682   8.810  10.047  0.6054 -0.1065 -0.0016
   87bbb     H9 2624   2.574   8.814  10.066  0.5986  0.3266 -0.1233
   87bbb    H10 2625   2.691   8.859   9.950  0.0867  0.4421  0.2227
   87bbb     C6 2626   2.814   8.491   9.775  0.8933  0.2846  0.3107
   87bbb    H11 2627   2.899   8.529   9.833  0.4820  0.8605  0.5364
   87bbb    H12 2628   2.801   8.566   9.697  2.8358 -1.0381 -1.3837
   87bbb     C7 2629   2.345   8.434  10.171 -0.1580  0.2394  0.1788
   87bbb    H13 2630   2.328   8.333  10.210 -1.7032  0.9677  1.4776
   87bbb    H14 2631   2.273   8.427  10.089  1.4099 -0.3279 -1.2090
   87bbb     C8 2632   2.846   8.354   9.701 -0.3466  0.4829 -0.0374
   87bbb    H15 2633   2.944   8.357   9.653 -1.1664  0.0863 -1.7962
   87bbb    H16 2634   2.853   8.280   9.782  1.9508  0.2785 -0.3422
   87bbb     C9 2635   2.751   8.900  10.151 -0.3967 -0.2678  0.7252
   87bbb    H17 2636   2.725   8.852  10.246  1.5044 -2.7273  0.0930
   87bbb    H18 2637   2.710   9.002  10.153 -1.2718 -0.5348 -1.0016
   87bbb     O1 2638   2.305   8.522  10.276 -0.0600  0.4167  0.5017
   87bbb    H19 2639   2.607   8.665   9.869  2.5347  1.8208 -0.2224
   88bbb     N1 2640   2.018   9.503  11.715  0.0673  0.2052  0.5767
   88bbb     C1 2641   2.083   9.525  11.848 -0.0124 -0.3566 -0.3783
   88bbb     H1 2642   2.083   9.633  11.862  0.8887 -0.0638 -2.2327
   88bbb     H2 2643   2.187   9.493  11.832 -0.2203 -0.3241 -2.0229
   88bbb     C2 2644   2.086   9.593  11.620 -0.6558 -0.3004 -0.0838
   88bbb     H3 2645   2.069   9.548  11.522  0.2732  0.7272 -0.7508
   88bbb     H4 2646   2.192   9.593  11.648 -0.2920 -0.8471 -1.3450
   88bbb     C3 2647   2.005   9.358  11.677 -0.1232 -0.0131 -0.2190
   88bbb     H5 2648   1.918   9.355  11.611  0.0744  0.3713 -0.5002
   88bbb     H6 2649   1.969   9.305  11.765  0.2209  0.9122  0.4982
   88bbb     C4 2650   2.120   9.278  11.615 -0.3148  0.1909  0.4883
   88bbb     H7 2651   2.188   9.342  11.557 -0.3418  0.5934  0.8997
   88bbb     H8 2652   2.082   9.211  11.536 -0.8677  1.1383 -0.0759
   88bbb     C5 2653   2.024   9.461  11.975  0.6485  0.0306  0.1829
   88bbb     H9 2654   2.015   9.354  11.954 -1.0124  0.4614 -1.6512
   88bbb    H10 2655   1.918   9.490  11.985  1.1568  2.2158 -0.2525
   88bbb     C6 2656   2.025   9.736  11.613 -0.2514 -0.0145  0.0214
   88bbb    H11 2657   2.094   9.808  11.567  0.4841  0.4666  1.8083
   88bbb    H12 2658   2.011   9.780  11.712 -1.3918  0.8010 -0.4726
   88bbb     C7 2659   2.198   9.192  11.714 -0.2948 -0.1958 -1.1913
   88bbb    H13 2660   2.289   9.250  11.736  0.0559 -0.0373 -2.9448
   88bbb    H14 2661   2.242   9.104  11.666  0.3826  0.2516 -1.3976
   88bbb     C8 2662   1.891   9.740  11.530 -0.0304 -0.1437 -0.4896
   88bbb    H15 2663   1.837   9.832  11.557 -0.9848 -0.4408 -1.3528
   88bbb    H16 2664   1.929   9.732  11.427 -0.7656  0.6034 -0.8315
   88bbb     C9 2665   2.079   9.503  12.109  0.2745  0.1499 -0.1076
   88bbb    H17 2666   2.008   9.463  12.182 -0.5954 -0.5583 -1.2926
   88bbb    H18 2667   2.094   9.612  12.115  2.5959 -0.0153 -1.7068
   88bbb     O1 2668   2.137   9.174  11.838  0.0289  0.1129  0.0780
   88bbb    H19 2669   1.922   9.539  11.725 -0.8093 -1.5553 -0.9083
   89bbb     N1 2670   1.343   8.726  11.930  0.4865  0.9959  0.2042
   89bbb     C1 2671   1.278   8.637  11.823 -0.2694  0.7711 -0.0646
   89bbb     H1 2672   1.252   8.549  11.883  0.4671  1.4565  1.3221
   89bbb     H2 2673   1.356   8.600  11.756 -0.2809  1.1250 -0.2743
   89bbb     C2 2674   1.412   8.640  12.036 -0.4730 -0.0735 -0.5879
   89bbb     H3 2675   1.468   8.717  12.089 -0.5916  0.0751 -0.6773
   89bbb     H4 2676   1.492   8.585  11.987 -2.1315 -0.2712 -3.2554
   89bbb     C3 2677   1.441   8.815  11.858 -0.9830 -0.0012  0.7135
   89bbb     H5 2678   1.385   8.867  11.780  0.5264 -0.7120 -0.9214
   89bbb     H6 2679   1.502   8.743  11.803 -2.5388 -1.4419  0.7973
   89bbb     C4 2680   1.520   8.920  11.938  0.3764  0.1123 -0.2496
   89bbb     H7 2681   1.584   8.875  12.015  0.9917  0.9272 -0.2769
   89bbb     H8 2682   1.452   8.994  11.981  0.3164 -1.0673  1.8189
   89bbb     C5 2683   1.158   8.685  11.735 -0.2601  0.2268 -0.5683
   89bbb     H9 2684   1.101   8.746  11.806 -0.6957  0.8061 -1.3996
   89bbb    H10 2685   1.090   8.606  11.701 -0.1555 -0.9213  1.7156
   89bbb     C6 2686   1.333   8.562  12.144 -0.6637  0.1989  0.1720
   89bbb    H11 2687   1.267   8.483  12.108 -0.6532  0.0645  0.4430
   89bbb    H12 2688   1.272   8.631  12.203  1.1910  0.5997  1.7527
   89bbb     C7 2689   1.617   8.998  11.846 -0.6397  0.1119 -0.4842
   89bbb    H13 2690   1.663   9.071  11.915  1.4287 -1.0610 -0.5376
   89bbb    H14 2691   1.567   9.052  11.764 -0.0738  2.5303  0.6816
   89bbb     C8 2692   1.436   8.494  12.238 -0.1684  0.4959 -0.1429
   89bbb    H15 2693   1.512   8.568  12.264 -2.0411  1.7931  2.0685
   89bbb    H16 2694   1.395   8.460  12.334  2.0836  0.5720  0.8895
   89bbb     C9 2695   1.202   8.763  11.613 -0.2985 -0.4242 -0.1614
   89bbb    H17 2696   1.249   8.858  11.640 -1.4288  0.8065 -2.2825
   89bbb    H18 2697   1.108   8.791  11.565 -0.6832  0.8068  1.2361
   89bbb     O1 2698   1.726   8.910  11.796 -0.1881 -0.6171 -1.0661
   89bbb    H19 2699   1.264   8.776  11.975 -2.0561 -2.0277 -0.5180
   90bbb     N1 2700   2.588   6.993  12.538  0.2468 -0.6818 -0.2015
   90bbb     C1 2701   2.537   7.052  12.670 -0.0571 -0.3954 -0.4014
   90bbb     H1 2702   2.430   7.034  12.678 -0.2402  0.7605  0.1179
   90bbb     H2 2703   2.556   7.159  12.661 -0.2456 -0.5132 -2.4863
   90bbb     C2 2704   2.484   7.041  12.432 -0.2774 -0.5289  0.1123
   90bbb     H3 2705   2.382   7.020  12.464 -0.3533 -0.0328  0.2095
   90bbb     H4 2706   2.513   6.982  12.345 -1.2373  0.0049 -0.5880
   90bbb     C3 2707   2.726   7.042  12.509  0.2083  0.3060  1.3792
   90bbb     H5 2708   2.768   7.036  12.609 -1.7413 -0.1745  2.1923
   90bbb     H6 2709   2.733   7.142  12.466  1.5054  0.5862  2.1975
   90bbb     C4 2710   2.802   6.941  12.418  0.6172 -0.1797 -0.2069
   90bbb     H7 2711   2.830   6.856  12.481  0.3801 -0.9869 -1.1819
   90bbb     H8 2712   2.900   6.978  12.384  1.2250 -1.9139 -0.3952
   90bbb     C5 2713   2.603   6.995  12.799  0.2411  0.1171  0.5653
   90bbb     H9 2714   2.709   7.025  12.800 -0.3543  2.4338  0.7620
   90bbb    H10 2715   2.611   6.886  12.800  0.6268  0.1492  1.4113
   90bbb     C6 2716   2.476   7.192  12.394  0.2740 -0.1452 -0.4210
   90bbb    H11 2717   2.572   7.217  12.347  0.8802 -4.1913 -1.8156
   90bbb    H12 2718   2.465   7.257  12.481  0.0855  0.2727 -0.7549
   90bbb     C7 2719   2.736   6.894  12.282 -0.0111 -0.3350  0.3039
   90bbb    H13 2720   2.646   6.837  12.308  0.0041  0.0409  1.2498
   90bbb    H14 2721   2.805   6.834  12.223 -0.6618  0.2266 -1.0671
   90bbb     C8 2722   2.358   7.232  12.294  0.0338 -0.2956 -0.3023
   90bbb    H15 2723   2.350   7.339  12.274 -0.9637 -0.5999 -1.6664
   90bbb    H16 2724   2.375   7.192  12.193 -1.3034  0.6063 -0.9080
   90bbb     C9 2725   2.550   7.033  12.939  0.5459  0.3404  0.4023
   90bbb    H17 2726   2.584   7.135  12.964 -0.2187  0.3501  1.5055
   90bbb    H18 2727   2.597   6.977  13.021  0.1746 -1.2696 -0.4613
   90bbb     O1 2728   2.710   7.018  12.207 -0.0004 -0.0473 -1.1694
   90bbb    H19 2729   2.596   6.890  12.539 -0.2998 -0.7502 -1.2154
   91bbb     N1 2730   2.253   6.740  11.410 -0.0249 -0.1293 -0.8943
   91bbb     C1 2731   2.161   6.659  11.507  0.3280  0.5689 -0.1592
   91bbb     H1 2732   2.081   6.726  11.539 -0.3895 -0.3212 -0.0625
   91bbb     H2 2733   2.220   6.632  11.594 -0.2110  1.4950  0.5150
   91bbb     C2 2734   2.366   6.663  11.341  0.3951 -0.6889 -0.2082
   91bbb     H3 2735   2.321   6.597  11.266 -1.2867  2.9137 -2.6940
   91bbb     H4 2736   2.398   6.602  11.425 -0.4092 -0.3652  0.3483
   91bbb     C3 2737   2.169   6.802  11.303 -0.2127  0.4619  0.7127
   91bbb     H5 2738   2.121   6.720  11.250 -1.7646  1.3478  0.6942
   91bbb     H6 2739   2.227   6.850  11.224  1.2757 -1.4282  0.5707
   91bbb     C4 2740   2.067   6.904  11.349 -0.5739 -0.1915  0.7717
   91bbb     H7 2741   2.013   6.866  11.436  0.2416  0.4708  1.5913
   91bbb     H8 2742   1.992   6.922  11.270  0.1937  1.8934  0.4448
   91bbb     C5 2743   2.084   6.541  11.445  0.4148 -0.0902  0.5119
   91bbb     H9 2744   2.143   6.481  11.374 -0.1032  0.1013 -0.0911
   91bbb    H10 2745   1.992   6.565  11.389 -0.2641 -1.8006  0.8261
   91bbb     C6 2746   2.470   6.750  11.270  0.3733  0.5805  0.1494
   91bbb    H11 2747   2.467   6.849  11.318 -0.8851  0.3509  0.5767
   91bbb    H12 2748   2.437   6.755  11.165  0.8724  2.0981  0.0398
   91bbb     C7 2749   2.144   7.036  11.378 -0.7856  0.0405 -0.1109
   91bbb    H13 2750   2.071   7.115  11.399 -1.2335  0.0632 -1.6415
   91bbb    H14 2751   2.200   7.063  11.288 -0.7496 -0.1493 -0.1459
   91bbb     C8 2752   2.607   6.689  11.285 -0.0968 -0.0246  0.5027
   91bbb    H15 2753   2.672   6.772  11.314 -0.7319 -0.0523  2.1154
   91bbb    H16 2754   2.613   6.612  11.362 -2.4342  0.7341  1.5312
   91bbb     C9 2755   2.026   6.446  11.550 -0.7304  0.5898  0.5850
   91bbb    H17 2756   1.977   6.364  11.496  0.0885  2.0225 -2.5304
   91bbb    H18 2757   1.953   6.504  11.607 -1.6569  1.3602 -1.2961
   91bbb     O1 2758   2.235   7.006  11.485  0.2690 -0.2875  1.0272
   91bbb    H19 2759   2.288   6.820  11.465  0.7230 -1.0276 -0.0075
   92bbb     N1 2760   3.356   9.010  12.716 -0.5125  0.1118 -0.0371
   92bbb     C1 2761   3.231   9.052  12.789 -0.1353  0.2658  0.5748
   92bbb     H1 2762   3.247   9.148  12.838 -0.9506  0.3562  0.6654
   92bbb     H2 2763   3.221   8.982  12.872 -3.1618  0.0211  0.0956
   92bbb     C2 2764   3.474   9.036  12.812  0.9242  0.2156 -0.3509
   92bbb     H3 2765   3.558   8.977  12.775  1.2493  0.1297  0.4939
   92bbb     H4 2766   3.452   8.983  12.905  0.2587  1.3142  0.1325
   92bbb     C3 2767   3.351   8.862  12.685 -0.6405  1.0943  0.5536
   92bbb     H5 2768   3.252   8.846  12.643 -0.4997 -1.1145  0.9107
   92bbb     H6 2769   3.362   8.799  12.774  1.5648  1.6700  0.7589
   92bbb     C4 2770   3.455   8.800  12.589 -0.1733  0.0894 -0.6890
   92bbb     H7 2771   3.555   8.832  12.622 -1.0905  1.8728  0.5220
   92bbb     H8 2772   3.453   8.851  12.492  0.8200  0.3669 -0.5826
   92bbb     C5 2773   3.105   9.063  12.705 -0.1997 -0.1630 -0.1902
   92bbb     H9 2774   3.073   8.962  12.678  2.0914 -0.8992 -0.3484
   92bbb    H10 2775   3.111   9.120  12.611  0.0086 -1.4713 -1.0031
   92bbb     C6 2776   3.506   9.182  12.819 -0.3895 -0.4338 -0.4500
   92bbb    H11 2777   3.445   9.235  12.894  2.5122  0.1820  1.6852
   92bbb    H12 2778   3.473   9.228  12.725 -2.5166 -2.9618 -1.0578
   92bbb     C7 2779   3.448   8.647  12.572  0.0293 -0.0185 -0.7119
   92bbb    H13 2780   3.468   8.604  12.671 -0.4765 -0.7955 -0.9343
   92bbb    H14 2781   3.532   8.609  12.513  0.8225 -1.3960  1.1950
   92bbb     C8 2782   3.662   9.206  12.840  0.9094 -0.0795 -0.5787
   92bbb    H15 2783   3.710   9.168  12.749 -1.0533 -1.0998 -1.2594
   92bbb    H16 2784   3.684   9.311  12.863  1.2686 -0.7073  2.1894
   92bbb     C9 2785   2.993   9.123  12.794  0.4655  0.4405  0.3721
   92bbb    H17 2786   2.955   9.055  12.871 -0.0950 -1.0331 -1.1832
   92bbb    H18 2787   2.913   9.145  12.724  0.9111 -2.1657 -1.0807
   92bbb     O1 2788   3.326   8.592  12.510  0.7066 -0.2393 -0.3992
   92bbb    H19 2789   3.358   9.063  12.628  1.5468  1.2106  0.6221
   93bbb     N1 2790   2.565   8.233  12.817  0.5052  0.4035  0.2301
   93bbb     C1 2791   2.634   8.104  12.759  0.4236  0.6025  0.1598
   93bbb     H1 2792   2.687   8.125  12.666 -1.3494  2.6125 -0.4594
   93bbb     H2 2793   2.549   8.039  12.739  0.7471 -0.2264  1.3414
   93bbb     C2 2794   2.495   8.192  12.949 -0.0311  1.0093 -0.5485
   93bbb     H3 2795   2.468   8.279  13.009  0.0432  0.1314  0.8143
   93bbb     H4 2796   2.582   8.147  12.997 -0.9646  0.5623  0.7892
   93bbb     C3 2797   2.669   8.338  12.854  0.1890  0.0913 -0.3516
   93bbb     H5 2798   2.733   8.302  12.934  1.9540 -0.7531 -2.0633
   93bbb     H6 2799   2.615   8.419  12.903 -0.9636 -1.0192  0.3071
   93bbb     C4 2800   2.762   8.406  12.748  0.3101 -0.1543  0.7007
   93bbb     H7 2801   2.826   8.326  12.710  0.0709 -0.2059  0.3962
   93bbb     H8 2802   2.825   8.476  12.805  1.9676 -1.3766  0.4476
   93bbb     C5 2803   2.732   8.022  12.850  0.0531  0.2423  0.0913
   93bbb     H9 2804   2.688   7.991  12.946  3.2061 -0.5279  1.4047
   93bbb    H10 2805   2.826   8.077  12.863  0.5702  0.0437 -2.2685
   93bbb     C6 2806   2.370   8.092  12.938  0.0355 -0.6954  0.3842
   93bbb    H11 2807   2.394   8.003  12.879  0.7772 -0.7708  0.7924
   93bbb    H12 2808   2.289   8.152  12.894  0.3092  1.0981  2.1776
   93bbb     C7 2809   2.696   8.462  12.613  0.4460  0.3964  0.5792
   93bbb    H13 2810   2.657   8.561  12.640  2.6510  1.7257 -0.8203
   93bbb    H14 2811   2.615   8.391  12.590  2.2717 -1.5826 -0.0739
   93bbb     C8 2812   2.326   8.031  13.072  0.2875 -0.1964  0.9307
   93bbb    H15 2813   2.295   8.110  13.142  0.1827  0.6232 -0.0210
   93bbb    H16 2814   2.231   7.980  13.051 -0.0038  0.1963  1.2811
   93bbb     C9 2815   2.764   7.887  12.773 -0.2671 -0.5665 -0.2233
   93bbb    H17 2816   2.839   7.826  12.826 -0.5459 -1.1971 -0.5547
   93bbb    H18 2817   2.808   7.915  12.676  0.2204 -0.2330  0.0892
   93bbb     O1 2818   2.789   8.481  12.506  0.4447  0.0429 -0.3085
   93bbb    H19 2819   2.496   8.278  12.755  0.4817  0.2273  0.1265
   94bbb     N1 2820   3.892   8.766   7.102 -0.3951 -0.2330  0.3852
   94bbb     C1 2821   3.755   8.806   7.146  0.6138 -0.9391  0.3261
   94bbb     H1 2822   3.718   8.900   7.106 -1.8513 -2.0035 -0.0877
   94bbb     H2 2823   3.761   8.832   7.251 -3.2557 -0.8110  0.6322
   94bbb     C2 2824   3.977   8.890   7.116 -0.8613  0.5851 -0.6580
   94bbb     H3 2825   4.011   8.892   7.219 -0.2276 -3.1321 -0.6493
   94bbb     H4 2826   3.912   8.974   7.091  0.9277  1.6063 -2.1056
   94bbb     C3 2827   3.953   8.652   7.186  1.0508 -0.0151  0.0166
   94bbb     H5 2828   3.872   8.593   7.228 -0.2424  1.6354 -0.0878
   94bbb     H6 2829   3.996   8.705   7.271 -1.3958  1.2724  0.5402
   94bbb     C4 2830   4.050   8.551   7.107 -0.9675 -0.3450  0.5695
   94bbb     H7 2831   4.081   8.468   7.172  2.7621  0.1264 -0.4140
   94bbb     H8 2832   4.145   8.603   7.092 -0.6050 -1.3143 -0.6526
   94bbb     C5 2833   3.646   8.700   7.118 -1.0061  0.2367  0.3018
   94bbb     H9 2834   3.683   8.603   7.155  0.9885  1.4470  1.7085
   94bbb    H10 2835   3.635   8.691   7.009  1.0468  0.3212  0.0436
   94bbb     C6 2836   4.106   8.901   7.025 -0.1223 -0.4132 -0.3583
   94bbb    H11 2837   4.079   8.881   6.920 -2.4095  0.2367  0.0539
   94bbb    H12 2838   4.186   8.829   7.050  1.2562  0.8692 -0.8949
   94bbb     C7 2839   3.985   8.498   6.978  0.2087 -0.0187 -0.1399
   94bbb    H13 2840   3.881   8.471   6.996 -0.1238 -0.4052 -2.3242
   94bbb    H14 2841   4.046   8.413   6.944 -0.0129 -0.5143  0.6758
   94bbb     C8 2842   4.153   9.045   7.028  0.0895  0.8397 -0.3212
   94bbb    H15 2843   4.174   9.072   7.132  0.7419 -0.0048 -0.2231
   94bbb    H16 2844   4.251   9.056   6.981  1.1370 -0.7684  1.3585
   94bbb     C9 2845   3.518   8.737   7.191 -0.0598 -0.2145  0.1014
   94bbb    H17 2846   3.525   8.746   7.300  0.1161  2.0830 -0.0433
   94bbb    H18 2847   3.439   8.664   7.170 -1.2827  1.7185 -2.7649
   94bbb     O1 2848   3.980   8.612   6.887  0.2242  0.1228 -0.5625
   94bbb    H19 2849   3.887   8.734   7.005  0.7273  1.5370 -0.2956
   95bbb     N1 2850   4.201   8.632   5.668  0.3984  0.1665  0.3056
   95bbb     C1 2851   4.101   8.640   5.560 -0.2570 -0.0305  0.6647
   95bbb     H1 2852   4.008   8.611   5.610  0.4596 -1.4529  1.2523
   95bbb     H2 2853   4.123   8.568   5.481 -0.6693 -0.5133  0.9820
   95bbb     C2 2854   4.336   8.673   5.620  0.0743  0.0832  0.0340
   95bbb     H3 2855   4.383   8.733   5.698 -0.4616  0.8737 -0.2467
   95bbb     H4 2856   4.308   8.737   5.536 -0.8621 -0.7054 -0.2685
   95bbb     C3 2857   4.159   8.713   5.776 -0.0331  0.3246 -0.2321
   95bbb     H5 2858   4.052   8.707   5.794 -0.0919 -0.0330 -0.6933
   95bbb     H6 2859   4.177   8.816   5.747 -2.2626  0.6523 -0.5876
   95bbb     C4 2860   4.223   8.671   5.912 -0.1695 -0.6243 -0.1204
   95bbb     H7 2861   4.331   8.655   5.909  0.0308  0.3547  1.1934
   95bbb     H8 2862   4.179   8.575   5.943 -1.2378 -0.0290  0.2495
   95bbb     C5 2863   4.076   8.777   5.491 -0.0694 -0.3077  0.0798
   95bbb     H9 2864   4.169   8.813   5.445  0.7912 -2.2392  0.2052
   95bbb    H10 2865   4.030   8.846   5.562 -1.7130 -0.8524 -0.4185
   95bbb     C6 2866   4.430   8.560   5.577  0.5089 -0.4536  0.3935
   95bbb    H11 2867   4.450   8.486   5.656  1.4669 -0.4975  0.1182
   95bbb    H12 2868   4.520   8.618   5.553 -0.0262  0.2539  0.0609
   95bbb     C7 2869   4.204   8.775   6.023  0.2526  0.1772 -0.2297
   95bbb    H13 2870   4.099   8.800   6.046  0.8229  0.6868  2.0789
   95bbb    H14 2871   4.252   8.867   5.989  1.2935  0.1411  1.1056
   95bbb     C8 2872   4.391   8.478   5.449  0.7429  0.4161  0.1421
   95bbb    H15 2873   4.460   8.396   5.427 -1.1868 -1.3185  0.2686
   95bbb    H16 2874   4.289   8.444   5.472 -0.3199  1.7394 -2.2668
   95bbb     C9 2875   3.973   8.770   5.378 -0.6666  0.8152  0.3140
   95bbb    H17 2876   3.995   8.846   5.302 -0.9211 -0.1136 -0.7024
   95bbb    H18 2877   3.873   8.779   5.423 -1.7658 -1.7604 -1.3346
   95bbb     O1 2878   4.255   8.734   6.152 -0.1112 -0.0360 -0.0267
   95bbb    H19 2879   4.207   8.536   5.705  2.2862  0.3798  0.6675
   96bbb     N1 2880   5.767   9.844   6.437  0.1385 -0.1897  0.5921
   96bbb     C1 2881   5.797   9.988   6.404  0.2038  0.0633 -0.5526
   96bbb     H1 2882   5.872  10.016   6.478 -0.1244 -1.8161  0.5736
   96bbb     H2 2883   5.703  10.031   6.439  0.6637 -0.0078  0.8546
   96bbb     C2 2884   5.893   9.754   6.415 -0.3095 -0.0916  0.1723
   96bbb     H3 2885   5.965   9.779   6.493  0.9829  0.6366 -1.2113
   96bbb     H4 2886   5.935   9.792   6.322  0.5748 -1.4164  0.0120
   96bbb     C3 2887   5.734   9.828   6.581 -0.7465  0.2843 -0.4286
   96bbb     H5 2888   5.827   9.835   6.637 -0.4923 -1.9529 -0.4586
   96bbb     H6 2889   5.699   9.725   6.590 -1.0430  0.4787  0.8569
   96bbb     C4 2890   5.622   9.906   6.649  0.1546 -0.1692 -0.3747
   96bbb     H7 2891   5.633  10.015   6.660  0.3820 -0.4116  2.6405
   96bbb     H8 2892   5.623   9.866   6.751 -1.3403 -0.0387 -0.2824
   96bbb     C5 2893   5.832  10.027   6.255 -0.0810 -0.3330 -0.3573
   96bbb     H9 2894   5.754  10.008   6.180  0.8865  1.5080 -1.8946
   96bbb    H10 2895   5.917   9.974   6.210  0.5546 -0.3728  0.8512
   96bbb     C6 2896   5.873   9.609   6.396  0.4112  0.5511  0.2245
   96bbb    H11 2897   5.815   9.569   6.480  0.5569  0.1307  0.1290
   96bbb    H12 2898   5.975   9.567   6.400 -0.3692 -1.6345 -1.2092
   96bbb     C7 2899   5.482   9.872   6.595  0.4338 -0.1142 -0.3645
   96bbb    H13 2900   5.470   9.910   6.493  1.5130  0.7634 -0.1850
   96bbb    H14 2901   5.408   9.925   6.657  0.7375 -0.8770  0.6876
   96bbb     C8 2902   5.798   9.573   6.262 -0.0090 -0.3459 -0.2770
   96bbb    H15 2903   5.784   9.464   6.254  2.1480 -0.8849  1.8057
   96bbb    H16 2904   5.699   9.617   6.249 -0.4239 -1.2578 -0.3149
   96bbb     C9 2905   5.864  10.175   6.246 -0.3274 -0.1821 -0.3700
   96bbb    H17 2906   5.798  10.230   6.313  0.6149 -0.1753  0.5833
   96bbb    H18 2907   5.846  10.218   6.147 -0.3600 -0.1604 -0.3544
   96bbb     O1 2908   5.447   9.729   6.608 -0.1975 -0.3921  0.0877
   96bbb    H19 2909   5.693   9.808   6.375  1.4436 -2.9821  0.4917
   97bbb     N1 2910   5.056   9.363   5.761 -0.1384  0.1155  0.3098
   97bbb     C1 2911   4.907   9.402   5.734 -0.3561 -0.4467  0.1862
   97bbb     H1 2912   4.870   9.468   5.813 -0.2738 -0.0721 -0.0842
   97bbb     H2 2913   4.853   9.308   5.741 -0.6309 -0.2610  0.6256
   97bbb     C2 2914   5.153   9.479   5.748 -0.7229 -0.7396  0.4645
   97bbb     H3 2915   5.107   9.559   5.806  2.8285  0.6509  1.6216
   97bbb     H4 2916   5.156   9.499   5.641 -0.9267 -1.5036  0.3097
   97bbb     C3 2917   5.052   9.315   5.911  0.0313 -0.6330  0.4912
   97bbb     H5 2918   5.026   9.392   5.984  2.6026  0.5304  0.3097
   97bbb     H6 2919   5.154   9.286   5.939 -0.4960 -1.8072  1.2252
   97bbb     C4 2920   4.969   9.187   5.948 -0.1692  0.2365 -0.0708
   97bbb     H7 2921   5.009   9.102   5.890  0.5926  1.6766 -1.7677
   97bbb     H8 2922   4.861   9.191   5.926 -1.4618  0.5979  5.0957
   97bbb     C5 2923   4.886   9.462   5.593 -0.2751 -0.6797  0.4134
   97bbb     H9 2924   4.965   9.438   5.521 -0.3985  1.5460 -0.5300
   97bbb    H10 2925   4.904   9.568   5.612  1.6974 -0.8995  0.0217
   97bbb     C6 2926   5.302   9.460   5.795  0.1690  0.3345 -0.7379
   97bbb    H11 2927   5.312   9.450   5.904  0.4634 -1.1735 -0.8792
   97bbb    H12 2928   5.341   9.559   5.770 -0.7076  0.8105 -0.2538
   97bbb     C7 2929   4.992   9.153   6.098  0.1544  0.0300  0.3783
   97bbb    H13 2930   4.940   9.057   6.113 -0.8960  0.5842  0.3466
   97bbb    H14 2931   4.950   9.236   6.155 -0.6806  1.6339 -2.3910
   97bbb     C8 2932   5.373   9.347   5.712  0.6689  0.3876 -0.3444
   97bbb    H15 2933   5.477   9.338   5.746 -0.0221 -0.9130  1.5751
   97bbb    H16 2934   5.330   9.250   5.741 -1.2627  1.4402  0.4875
   97bbb     C9 2935   4.744   9.433   5.538  0.4689 -0.3276 -0.2829
   97bbb    H17 2936   4.680   9.457   5.624 -1.1678 -1.7359 -1.0489
   97bbb    H18 2937   4.729   9.328   5.512 -1.8745  0.3998 -2.1854
   97bbb     O1 2938   5.137   9.139   6.129  0.4099 -0.3435 -0.2306
   97bbb    H19 2939   5.093   9.286   5.703 -1.5240  0.7169 -1.5147
   98bbb     N1 2940   5.025   7.391   6.268 -0.5668 -0.2581  0.3182
   98bbb     C1 2941   4.892   7.459   6.282 -0.1766 -0.6395 -0.5165
   98bbb     H1 2942   4.821   7.410   6.215 -1.6471 -0.7108  1.0477
   98bbb     H2 2943   4.899   7.564   6.251 -1.0149 -0.7249 -1.0124
   98bbb     C2 2944   5.046   7.353   6.125 -0.4934  0.2523  0.3767
   98bbb     H3 2945   5.146   7.310   6.124 -0.2443  0.8254  0.4340
   98bbb     H4 2946   5.034   7.440   6.060 -0.9637 -0.8043 -1.0225
   98bbb     C3 2947   5.122   7.505   6.292  0.2203  0.4891 -0.1282
   98bbb     H5 2948   5.072   7.583   6.350  0.9940  0.0808  1.1327
   98bbb     H6 2949   5.153   7.549   6.197 -0.1392  0.0464 -0.4479
   98bbb     C4 2950   5.244   7.459   6.373 -0.0039 -0.4373 -0.1443
   98bbb     H7 2951   5.302   7.388   6.313 -1.2647  0.5271 -2.6431
   98bbb     H8 2952   5.201   7.399   6.455  0.4893  0.1883  0.5878
   98bbb     C5 2953   4.847   7.455   6.433  0.4137 -0.4565 -0.2037
   98bbb     H9 2954   4.905   7.529   6.489  1.6985 -0.5205 -1.4094
   98bbb    H10 2955   4.869   7.358   6.480  1.7756 -0.8172 -1.4861
   98bbb     C6 2956   4.957   7.238   6.078  0.0588 -0.7845  0.3623
   98bbb    H11 2957   4.858   7.279   6.056 -0.3724 -1.8180  0.3116
   98bbb    H12 2958   4.945   7.166   6.161  3.4949 -1.8951  0.0616
   98bbb     C7 2959   5.343   7.570   6.420 -0.7221 -0.1053 -0.0706
   98bbb    H13 2960   5.287   7.651   6.470 -0.5596  0.3544 -0.6308
   98bbb    H14 2961   5.399   7.612   6.336 -0.0725  1.0164  0.8908
   98bbb     C8 2962   5.022   7.185   5.948 -0.6517  0.1900  0.2145
   98bbb    H15 2963   5.127   7.163   5.972 -0.6881 -0.5084 -0.2362
   98bbb    H16 2964   4.967   7.094   5.924 -1.6781  0.2595  2.0913
   98bbb     C9 2965   4.697   7.488   6.439  0.0241 -0.4180 -0.1345
   98bbb    H17 2966   4.651   7.460   6.534 -1.0150 -0.7974 -0.7307
   98bbb    H18 2967   4.637   7.440   6.360 -0.1667  1.9716 -1.5743
   98bbb     O1 2968   5.442   7.521   6.514 -0.0958  0.1477  0.0321
   98bbb    H19 2969   5.041   7.305   6.323  1.4055  0.2226  0.5727
   99bbb     N1 2970   5.777   7.134   6.421  0.6583 -0.4481 -0.0366
   99bbb     C1 2971   5.670   7.043   6.465 -0.0759 -0.0215  0.4326
   99bbb     H1 2972   5.574   7.094   6.476  0.2438  0.5886  0.4279
   99bbb     H2 2973   5.693   7.009   6.566  1.2052 -0.0461  0.1561
   99bbb     C2 2974   5.748   7.214   6.297  0.9066 -0.4450  0.3704
   99bbb     H3 2975   5.716   7.148   6.215  1.0662  1.5054 -1.3463
   99bbb     H4 2976   5.835   7.264   6.254 -0.6127  0.1962 -2.1932
   99bbb     C3 2977   5.798   7.232   6.539 -1.4477 -0.2369  0.4519
   99bbb     H5 2978   5.705   7.289   6.546 -0.5805  1.0782  2.0353
   99bbb     H6 2979   5.875   7.305   6.512 -0.8940 -0.8173  0.4388
   99bbb     C4 2980   5.850   7.173   6.676 -0.3981  0.1668 -0.6766
   99bbb     H7 2981   5.887   7.264   6.723 -0.7551  0.5837 -1.1879
   99bbb     H8 2982   5.934   7.103   6.662 -1.9266 -1.8610 -0.0930
   99bbb     C5 2983   5.651   6.921   6.377  0.7822  0.0521  0.3682
   99bbb     H9 2984   5.633   6.963   6.277  2.4271  2.5730  1.0453
   99bbb    H10 2985   5.562   6.863   6.404  1.9345 -2.0274 -0.1109
   99bbb     C6 2986   5.628   7.315   6.304  0.0996  0.4714 -0.0190
   99bbb    H11 2987   5.643   7.397   6.375 -0.6688  0.7482 -0.1641
   99bbb    H12 2988   5.538   7.267   6.343 -0.5481  2.1491  0.6143
   99bbb     C7 2989   5.749   7.119   6.783  0.2892  0.1171 -0.4729
   99bbb    H13 2990   5.795   7.116   6.882 -2.0915  1.6306  0.7930
   99bbb    H14 2991   5.717   7.017   6.758 -0.0546  0.1945 -0.3551
   99bbb     C8 2992   5.613   7.387   6.160  0.1438  1.0807 -0.3685
   99bbb    H15 2993   5.594   7.308   6.087 -0.0681 -0.5417  1.3572
   99bbb    H16 2994   5.523   7.448   6.169 -0.1711  0.3431  2.6043
   99bbb     C9 2995   5.770   6.829   6.381  1.0788  0.6375 -0.0797
   99bbb    H17 2996   5.750   6.735   6.327 -0.2884  1.7225 -1.5532
   99bbb    H18 2997   5.795   6.805   6.485 -0.0887 -0.5828 -0.0501
   99bbb     O1 2998   5.634   7.209   6.784 -0.5124 -0.2081  0.5236
   99bbb    H19 2999   5.862   7.075   6.417  0.5498 -1.0370  3.2031
  100bbb     N1 3000   6.844   8.057   6.276  0.3287 -0.8233  0.5445
  100bbb     C1 3001   6.919   8.185   6.312  0.1169 -0.5317  0.4715
  100bbb     H1 3002   6.965   8.164   6.409  3.9950 -0.8579 -1.2622
  100bbb     H2 3003   6.840   8.259   6.322  1.3199  1.4604 -2.9847
  100bbb     C2 3004   6.918   7.951   6.206 -0.0168  0.1713  0.1154
  100bbb     H3 3005   6.965   7.985   6.114 -0.1715 -0.0369 -0.0408
  100bbb     H4 3006   6.842   7.877   6.180 -0.0802  0.2701  0.0211
  100bbb     C3 3007   6.763   8.008   6.394 -0.6934  0.1741  0.4358
  100bbb     H5 3008   6.828   7.987   6.479 -2.2061 -2.5846  1.0325
  100bbb     H6 3009   6.727   7.909   6.363 -1.0846  0.3639  0.2751
  100bbb     C4 3010   6.649   8.101   6.436  0.0854  0.2167  0.3002
  100bbb     H7 3011   6.585   8.134   6.353 -1.4012 -3.4509 -0.1685
  100bbb     H8 3012   6.702   8.183   6.487  0.9118  0.9713 -1.6746
  100bbb     C5 3013   7.024   8.230   6.214 -0.1679 -0.0772 -0.1208
  100bbb     H9 3014   6.981   8.240   6.113  1.4293 -0.3758 -0.8716
  100bbb    H10 3015   7.100   8.152   6.207  0.8122  0.9268 -1.0381
  100bbb     C6 3016   7.024   7.884   6.297  0.0063  0.5151  0.2810
  100bbb    H11 3017   6.980   7.846   6.390  0.3504  0.1115  0.2852
  100bbb    H12 3018   7.088   7.969   6.323 -2.1946  1.9415  1.2986
  100bbb     C7 3019   6.550   8.034   6.536 -0.0135  0.8448 -0.2460
  100bbb    H13 3020   6.597   7.996   6.628  1.3151 -1.1486 -1.6367
  100bbb    H14 3021   6.506   7.946   6.487 -0.3016  0.4471  0.6979
  100bbb     C8 3022   7.113   7.783   6.225  0.3555 -0.1008 -0.4821
  100bbb    H15 3023   7.189   7.773   6.304 -1.3034 -3.8487  0.8517
  100bbb    H16 3024   7.055   7.690   6.228  0.1199  0.0612  1.8474
  100bbb     C9 3025   7.084   8.358   6.279 -0.7591 -0.0425 -0.4730
  100bbb    H17 3026   7.002   8.429   6.296 -0.7192  0.1221 -0.9618
  100bbb    H18 3027   7.157   8.400   6.210 -1.5290  0.4003 -1.0233
  100bbb     O1 3028   6.453   8.126   6.575 -0.5726  0.3392 -0.0881
  100bbb    H19 3029   6.780   8.100   6.208  2.8486 -0.7938 -2.0072
  101bbb     N1 3030   6.841   8.926   6.446  0.1047 -0.5238  0.7489
  101bbb     C1 3031   6.809   9.074   6.494 -0.0243  0.2889  0.6247
  101bbb     H1 3032   6.889   9.127   6.442  1.1392 -0.9916  1.0452
  101bbb     H2 3033   6.826   9.076   6.602 -0.7485  1.8505  0.7267
  101bbb     C2 3034   6.995   8.899   6.439  0.0865 -0.6225 -0.1045
  101bbb     H3 3035   7.037   8.883   6.539 -1.5176 -0.3693  0.6415
  101bbb     H4 3036   7.044   8.989   6.404 -1.0972  0.2095  0.3182
  101bbb     C3 3037   6.756   8.828   6.527  0.2261 -0.3314  0.4686
  101bbb     H5 3038   6.763   8.732   6.475 -0.9199 -0.0679 -0.1899
  101bbb     H6 3039   6.653   8.861   6.530  1.1396  2.7006  1.7983
  101bbb     C4 3040   6.802   8.802   6.672  0.5417  0.0302 -0.0690
  101bbb     H7 3041   6.792   8.895   6.730  2.0627  0.8000 -0.9670
  101bbb     H8 3042   6.904   8.768   6.691  1.1009  1.2128 -0.8390
  101bbb     C5 3043   6.670   9.139   6.466 -1.2713 -0.2251  0.4481
  101bbb     H9 3044   6.600   9.084   6.530 -3.1355  2.1583  0.6298
  101bbb    H10 3045   6.637   9.124   6.362  0.8098  2.4253 -0.7059
  101bbb     C6 3046   7.031   8.782   6.346 -0.4870 -0.1916 -1.1338
  101bbb    H11 3047   6.973   8.780   6.253 -0.0467 -2.1257 -1.4223
  101bbb    H12 3048   7.008   8.690   6.402 -0.4451  0.6535  0.3300
  101bbb     C7 3049   6.698   8.705   6.748  0.1922  0.6449 -0.2565
  101bbb    H13 3050   6.743   8.659   6.837  0.1710  0.3733 -0.3841
  101bbb    H14 3051   6.661   8.629   6.678 -1.3744  1.2767 -0.1439
  101bbb     C8 3052   7.175   8.782   6.309  0.3832 -0.0933 -0.3809
  101bbb    H15 3053   7.235   8.803   6.399 -0.0752  0.4570 -0.1935
  101bbb    H16 3054   7.202   8.685   6.267 -0.3841  0.3532 -1.9805
  101bbb     C9 3055   6.656   9.287   6.512  0.6211  0.5537  0.0461
  101bbb    H17 3056   6.711   9.293   6.607  2.5901  1.7952 -1.0991
  101bbb    H18 3057   6.550   9.311   6.528  0.4007 -0.7645  0.7411
  101bbb     O1 3058   6.578   8.775   6.790  0.0209 -0.1246 -0.8400
  101bbb    H19 3059   6.817   8.907   6.348  2.1225 -2.4556  0.5370
  102bbb     N1 3060   5.481   9.159   9.981  0.1980 -0.2683  0.2060
  102bbb     C1 3061   5.462   9.155  10.134  0.1419 -0.2939  0.0437
  102bbb     H1 3062   5.380   9.085  10.154 -0.3833 -0.2731 -1.8100
  102bbb     H2 3063   5.445   9.255  10.172  0.5986 -0.8264  1.7582
  102bbb     C2 3064   5.599   9.244   9.948 -0.5005  0.2088  1.1881
  102bbb     H3 3065   5.684   9.187   9.987  0.4349  0.5329 -0.2868
  102bbb     H4 3066   5.589   9.345   9.988  3.9985  1.2262  0.3279
  102bbb     C3 3067   5.509   9.017   9.927 -0.4460 -0.3285  0.8048
  102bbb     H5 3068   5.575   8.963   9.996  0.0821  1.6372  1.9090
  102bbb     H6 3069   5.564   9.022   9.833 -1.0288 -0.6274  0.4425
  102bbb     C4 3070   5.378   8.927   9.892  0.3506 -0.7346 -0.2435
  102bbb     H7 3071   5.325   8.992   9.821  0.7868  0.8510  0.8292
  102bbb     H8 3072   5.309   8.914   9.976  1.9850  0.5412  1.3778
  102bbb     C5 3073   5.580   9.089  10.218  0.8988 -0.2049  0.0150
  102bbb     H9 3074   5.678   9.137  10.207  1.3707 -0.8658  1.1129
  102bbb    H10 3075   5.586   8.989  10.174 -2.5545  0.0871 -1.4816
  102bbb     C6 3076   5.618   9.266   9.791 -0.3580 -0.6102  0.0519
  102bbb    H11 3077   5.637   9.165   9.752  2.2347  0.0821 -0.7527
  102bbb    H12 3078   5.716   9.317   9.787  0.9402 -2.9276  0.3296
  102bbb     C7 3079   5.417   8.789   9.834  0.3414  0.0327 -0.0910
  102bbb    H13 3080   5.327   8.744   9.791  0.9627 -2.3009  0.8694
  102bbb    H14 3081   5.453   8.715   9.907 -0.4670  2.2041  2.6769
  102bbb     C8 3082   5.504   9.352   9.727  0.3887 -0.4302  0.8043
  102bbb    H15 3083   5.414   9.289   9.732 -1.6738  1.9693 -2.2352
  102bbb    H16 3084   5.497   9.451   9.774 -2.2005  1.4385 -3.0067
  102bbb     C9 3085   5.548   9.081  10.367  0.5831  0.7054 -0.4610
  102bbb    H17 3086   5.513   9.183  10.390 -1.2395 -0.0709  0.3988
  102bbb    H18 3087   5.635   9.051  10.427  0.2968  0.3358 -0.2272
  102bbb     O1 3088   5.510   8.808   9.730 -0.1325  0.7131  0.0577
  102bbb    H19 3089   5.392   9.195   9.943 -0.4307 -0.2655  1.5964
  103bbb     N1 3090   6.374   9.237   8.841 -0.7280  0.1683  0.0485
  103bbb     C1 3091   6.404   9.151   8.716 -1.1978 -0.2338 -0.1448
  103bbb     H1 3092   6.449   9.059   8.753  1.2565  1.0810  0.2945
  103bbb     H2 3093   6.485   9.197   8.660 -1.7460  0.4925 -0.3551
  103bbb     C2 3094   6.298   9.356   8.800 -0.4290  0.3448  0.1658
  103bbb     H3 3095   6.284   9.410   8.894 -1.3062  0.7020 -0.1603
  103bbb     H4 3096   6.199   9.331   8.762 -1.2324  0.7731  1.9014
  103bbb     C3 3097   6.309   9.150   8.949  0.4604 -0.0158  0.5529
  103bbb     H5 3098   6.368   9.059   8.957  0.5048  0.0860  1.4577
  103bbb     H6 3099   6.210   9.120   8.913  0.1891 -0.0543  1.3227
  103bbb     C4 3100   6.294   9.215   9.085 -0.2950 -0.1577 -0.8393
  103bbb     H7 3101   6.231   9.304   9.091  0.1923  0.1079  2.1447
  103bbb     H8 3102   6.392   9.255   9.117 -0.8074  0.1724  0.3553
  103bbb     C5 3103   6.284   9.109   8.621 -0.6972  0.7818  0.2881
  103bbb     H9 3104   6.190   9.163   8.635  0.4839  3.2504 -0.7308
  103bbb    H10 3105   6.264   9.004   8.644  3.0534  0.1766  1.5625
  103bbb     C6 3106   6.361   9.437   8.693  0.1036 -0.0005  0.1645
  103bbb    H11 3107   6.356   9.385   8.597 -0.1813 -0.2039  0.2877
  103bbb    H12 3108   6.469   9.442   8.714  0.0135 -1.1848  0.9751
  103bbb     C7 3109   6.236   9.115   9.196  0.0505  0.1246  1.3986
  103bbb    H13 3110   6.234   9.173   9.288  2.8489  2.4738  0.1327
  103bbb    H14 3111   6.307   9.031   9.193  1.3428  1.1474 -2.1626
  103bbb     C8 3112   6.305   9.576   8.696 -0.2317  0.6514  0.2594
  103bbb    H15 3113   6.337   9.633   8.608 -1.7503 -0.8145 -1.3082
  103bbb    H16 3114   6.196   9.576   8.705 -0.1181 -0.0874  2.3031
  103bbb     C9 3115   6.315   9.104   8.466 -0.0330  0.2829  0.5218
  103bbb    H17 3116   6.257   9.018   8.431  1.8328 -0.2158 -1.6021
  103bbb    H18 3117   6.421   9.096   8.437 -0.0043 -1.7753  1.0533
  103bbb     O1 3118   6.106   9.055   9.162 -0.0003 -0.5593  0.2601
  103bbb    H19 3119   6.457   9.281   8.885 -1.8518  0.5052  1.9302
  104bbb     N1 3120   5.952   7.684  11.015  0.3643 -0.1081  0.3254
  104bbb     C1 3121   6.006   7.564  11.098  0.6089  1.0151 -0.2051
  104bbb     H1 3122   5.921   7.528  11.157  0.5578 -0.1863 -0.9736
  104bbb     H2 3123   6.092   7.608  11.148  0.8049  1.8837 -1.2781
  104bbb     C2 3124   5.932   7.808  11.102 -0.1820 -0.1817  1.1027
  104bbb     H3 3125   5.905   7.885  11.029  3.7918  0.1498 -0.2675
  104bbb     H4 3126   6.020   7.847  11.152 -1.0542  2.3109  0.8422
  104bbb     C3 3127   6.051   7.714  10.907  0.3625 -0.3452 -0.4509
  104bbb     H5 3128   6.064   7.622  10.850  0.4780 -1.3208  1.0697
  104bbb     H6 3129   6.145   7.749  10.951  0.9418 -1.8614 -0.4245
  104bbb     C4 3130   5.994   7.811  10.803 -0.5847 -0.0499 -0.1514
  104bbb     H7 3131   5.956   7.902  10.851 -0.2150  0.1651 -0.2542
  104bbb     H8 3132   5.912   7.766  10.746  0.0125 -2.3986  0.7401
  104bbb     C5 3133   6.060   7.442  11.018 -0.0898 -0.4191  0.7479
  104bbb     H9 3134   6.149   7.471  10.961 -0.6450 -2.0831 -1.0670
  104bbb    H10 3135   5.983   7.409  10.947  1.3055 -1.6529 -0.2552
  104bbb     C6 3136   5.827   7.799  11.208  0.0407  0.0828 -0.1202
  104bbb    H11 3137   5.856   7.724  11.282  1.2555 -0.1592 -0.8184
  104bbb    H12 3138   5.739   7.770  11.149  1.4281 -0.3137 -2.1157
  104bbb     C7 3139   6.094   7.845  10.692 -0.2403 -0.0521 -0.0207
  104bbb    H13 3140   6.118   7.757  10.632 -0.6772  0.6186 -1.2018
  104bbb    H14 3141   6.187   7.884  10.736 -0.3520 -1.3039  1.4323
  104bbb     C8 3142   5.796   7.934  11.276 -0.9059 -0.3669  0.1786
  104bbb    H15 3143   5.714   7.928  11.349  0.4378  0.6609  1.8764
  104bbb    H16 3144   5.886   7.952  11.335 -0.2057 -0.1965 -0.9117
  104bbb     C9 3145   6.103   7.322  11.107  0.4329  0.0796 -0.5917
  104bbb    H17 3146   6.187   7.347  11.173  0.1648 -2.3576  0.7986
  104bbb    H18 3147   6.138   7.237  11.046  0.3104 -0.4492  0.0619
  104bbb     O1 3148   6.032   7.949  10.609  0.4876  0.3549 -0.2521
  104bbb    H19 3149   5.858   7.656  10.984 -0.8084  2.1911  1.5015
  105bbb     N1 3150   6.474   7.592  10.061  0.6150 -0.2513 -0.3217
  105bbb     C1 3151   6.495   7.720   9.983 -1.0131  0.2710 -0.4394
  105bbb     H1 3152   6.577   7.772  10.032 -0.2291 -0.1982 -1.2205
  105bbb     H2 3153   6.405   7.781   9.996 -1.2165 -0.0780 -0.1826
  105bbb     C2 3154   6.614   7.539  10.103  0.0506 -0.0377  0.3247
  105bbb     H3 3155   6.628   7.582  10.202 -1.0758 -0.0354  0.4949
  105bbb     H4 3156   6.692   7.575  10.036 -1.5471  0.3042 -1.4672
  105bbb     C3 3157   6.381   7.605  10.179  0.3295 -0.2419 -0.5745
  105bbb     H5 3158   6.406   7.692  10.240 -1.2421 -0.5840  0.6383
  105bbb     H6 3159   6.387   7.516  10.243  1.7481 -0.8595 -1.5268
  105bbb     C4 3160   6.227   7.622  10.139 -0.3564 -0.0659 -0.5180
  105bbb     H7 3161   6.193   7.532  10.086 -0.8185 -0.0500 -0.2561
  105bbb     H8 3162   6.213   7.705  10.068 -1.4142  0.5815  0.4067
  105bbb     C5 3163   6.509   7.705   9.833  0.2547 -0.5502  0.3946
  105bbb     H9 3164   6.602   7.652   9.808  0.8389 -0.5301  2.3878
  105bbb    H10 3165   6.515   7.806   9.793 -1.0384 -0.1136  1.2259
  105bbb     C6 3166   6.631   7.381  10.091  0.0869  1.0926  0.1580
  105bbb    H11 3167   6.617   7.347   9.988  1.1936 -0.0054  0.3472
  105bbb    H12 3168   6.552   7.338  10.154  0.6428 -1.0865 -0.5585
  105bbb     C7 3169   6.152   7.639  10.269  0.1836 -0.3093  0.3895
  105bbb    H13 3170   6.200   7.714  10.334  0.2758  0.3534 -0.4297
  105bbb    H14 3171   6.156   7.545  10.326 -0.3044  0.4232  1.6958
  105bbb     C8 3172   6.762   7.329  10.150 -0.2373  0.2076 -0.5623
  105bbb    H15 3173   6.770   7.220  10.157  0.4725  0.2984  0.1687
  105bbb    H16 3174   6.838   7.371  10.083 -1.7479  0.8702 -1.9474
  105bbb     C9 3175   6.392   7.637   9.754  0.4176 -0.5935  0.2500
  105bbb    H17 3176   6.437   7.610   9.657 -0.1312 -1.0166  0.1077
  105bbb    H18 3177   6.310   7.706   9.732  0.6259 -0.5107 -0.2921
  105bbb     O1 3178   6.012   7.684  10.250  0.1991  0.4470  0.0441
  105bbb    H19 3179   6.433   7.520   9.999  1.9942 -2.8327  1.5510
  106bbb     N1 3180   7.087   7.146   8.642 -0.7246  0.5055  0.1990
  106bbb     C1 3181   7.095   7.208   8.502  0.2833 -0.6740  0.8047
  106bbb     H1 3182   6.993   7.244   8.485  0.5955  0.2322  0.7713
  106bbb     H2 3183   7.120   7.129   8.431  1.4462  1.4582 -1.3143
  106bbb     C2 3184   7.091   7.242   8.760 -0.8441 -0.1904  0.0081
  106bbb     H3 3185   6.988   7.278   8.770 -1.0882 -0.7938 -0.2477
  106bbb     H4 3186   7.154   7.331   8.753 -1.9879  0.8957  2.2792
  106bbb     C3 3187   6.956   7.071   8.654  0.2838  0.3009  0.3056
  106bbb     H5 3188   6.881   7.139   8.613  0.5690  0.1532 -0.4721
  106bbb     H6 3189   6.934   7.041   8.756  1.0396 -0.5031  0.2397
  106bbb     C4 3190   6.947   6.952   8.557  0.4398 -0.7218  0.0684
  106bbb     H7 3191   7.034   6.888   8.579  1.6098  0.1546 -1.7711
  106bbb     H8 3192   6.945   6.985   8.452  1.1816  0.5870  0.4459
  106bbb     C5 3193   7.198   7.321   8.473 -0.7383 -0.6589  0.4281
  106bbb     H9 3194   7.292   7.264   8.476  0.3257  1.0546  0.8302
  106bbb    H10 3195   7.197   7.402   8.546  1.4432  1.1746 -1.4368
  106bbb     C6 3196   7.119   7.172   8.894  0.4705 -0.5490  0.5889
  106bbb    H11 3197   7.031   7.119   8.935  0.2260 -1.1785 -0.6779
  106bbb    H12 3198   7.136   7.250   8.969 -1.2249  0.3834  0.0651
  106bbb     C7 3199   6.832   6.860   8.583  0.7512 -0.1556 -0.4931
  106bbb    H13 3200   6.859   6.803   8.673  1.0146  0.5075 -0.1488
  106bbb    H14 3201   6.799   6.798   8.498  1.1477 -0.8526 -0.1448
  106bbb     C8 3202   7.233   7.067   8.897  0.0469  0.9940  0.4162
  106bbb    H15 3203   7.313   7.099   8.828 -0.9034  1.9708 -0.2562
  106bbb    H16 3204   7.272   7.059   9.000 -2.1815  3.8764  1.6091
  106bbb     C9 3205   7.187   7.382   8.330 -1.1071  0.4846  0.1700
  106bbb    H17 3206   7.189   7.302   8.255 -0.4725  0.1018  0.5816
  106bbb    H18 3207   7.263   7.458   8.310 -0.5280  0.1082  0.8746
  106bbb     O1 3208   6.722   6.935   8.638  0.2099 -0.7199 -0.0905
  106bbb    H19 3209   7.159   7.077   8.668 -0.5321  1.0474  1.1655
  107bbb     N1 3210   6.301   6.506   9.152  0.3546 -0.1998 -0.0340
  107bbb     C1 3211   6.293   6.450   9.301  0.5315 -0.1875  0.4380
  107bbb     H1 3212   6.262   6.346   9.306 -1.4729  0.4099  1.8764
  107bbb     H2 3213   6.207   6.494   9.352 -0.9732 -4.1588  1.7137
  107bbb     C2 3214   6.187   6.434   9.073  0.2418 -0.5451  0.1812
  107bbb     H3 3215   6.186   6.475   8.972 -2.2679 -0.9739 -0.0226
  107bbb     H4 3216   6.095   6.460   9.124 -0.2369  2.1072 -1.7864
  107bbb     C3 3217   6.281   6.658   9.134  0.6590 -0.0737  0.0899
  107bbb     H5 3218   6.282   6.680   9.027  0.3579  1.9094  0.4544
  107bbb     H6 3219   6.371   6.705   9.172  1.1166 -1.0582  0.2406
  107bbb     C4 3220   6.152   6.715   9.206 -0.1147  0.5023  0.1216
  107bbb     H7 3221   6.156   6.694   9.313  0.0063 -0.1871 -0.0141
  107bbb     H8 3222   6.063   6.667   9.164  0.0779  1.1831 -1.1136
  107bbb     C5 3223   6.426   6.456   9.381  0.7364  0.4439 -0.0771
  107bbb     H9 3224   6.473   6.553   9.361  2.4477  0.2530  2.5512
  107bbb    H10 3225   6.504   6.384   9.351  1.8071  0.3803  2.5764
  107bbb     C6 3226   6.198   6.283   9.031 -0.7030  0.3789 -0.2332
  107bbb    H11 3227   6.198   6.215   9.117  0.9687 -0.7523 -1.0622
  107bbb    H12 3228   6.294   6.257   8.983 -0.0569  1.2043  0.5567
  107bbb     C7 3229   6.144   6.865   9.199  0.4927  0.5769 -0.0749
  107bbb    H13 3230   6.218   6.916   9.262 -1.2831  1.0097  1.7590
  107bbb    H14 3231   6.050   6.892   9.249 -0.7688 -0.4737 -1.7966
  107bbb     C8 3232   6.088   6.236   8.939  0.4735 -1.0619  0.0631
  107bbb    H15 3233   6.112   6.136   8.900  3.6937 -0.3145 -0.1041
  107bbb    H16 3234   6.001   6.208   9.000 -0.1276  3.4967  1.6297
  107bbb     C9 3235   6.401   6.443   9.529  0.2994 -0.3904  0.0290
  107bbb    H17 3236   6.335   6.356   9.538 -1.4267  0.4623 -2.8482
  107bbb    H18 3237   6.352   6.537   9.561  0.6037 -0.2761  0.1589
  107bbb     O1 3238   6.150   6.909   9.063 -0.3023  0.8176  1.1430
  107bbb    H19 3239   6.388   6.476   9.106  0.0541  1.4959 -1.8376
  108bbb     N1 3240   7.297   8.736   8.121  0.1582  0.0926  0.0143
  108bbb     C1 3241   7.308   8.585   8.095 -0.1573  0.1090 -0.4195
  108bbb     H1 3242   7.250   8.558   8.006 -2.5293 -0.6701  1.2668
  108bbb     H2 3243   7.261   8.533   8.179  1.4039  0.4131  0.6916
  108bbb     C2 3244   7.337   8.803   7.994 -0.1233 -0.0260  0.8030
  108bbb     H3 3245   7.289   8.755   7.908 -1.0822  0.9349  0.7922
  108bbb     H4 3246   7.444   8.783   7.985 -0.1431 -1.1639  2.5886
  108bbb     C3 3247   7.147   8.752   8.157 -0.0039 -0.3925 -0.7557
  108bbb     H5 3248   7.084   8.737   8.069 -0.6393  0.3349 -0.4393
  108bbb     H6 3249   7.139   8.860   8.174  1.4889 -0.5007  0.9463
  108bbb     C4 3250   7.097   8.689   8.287  0.4400  0.8331  0.0939
  108bbb     H7 3251   7.153   8.712   8.379 -2.5418  0.6143  2.0847
  108bbb     H8 3252   7.106   8.583   8.260 -0.1092  1.0420 -0.9438
  108bbb     C5 3253   7.454   8.531   8.090 -0.2298 -0.0816  0.1001
  108bbb     H9 3254   7.504   8.556   8.184  2.0425 -0.9353 -0.7922
  108bbb    H10 3255   7.506   8.585   8.009 -0.7408  3.3367  1.8733
  108bbb     C6 3256   7.307   8.953   7.972  0.1589  0.3324 -0.3426
  108bbb    H11 3257   7.327   9.009   8.064 -1.6449 -1.4754  1.2544
  108bbb    H12 3258   7.199   8.958   7.954  0.2854 -0.7303 -1.5668
  108bbb     C7 3259   6.950   8.710   8.312  0.0670  0.6689  0.2453
  108bbb    H13 3260   6.892   8.693   8.220  0.8154 -0.5523 -0.0200
  108bbb    H14 3261   6.933   8.812   8.347  0.2556  1.0059 -0.6097
  108bbb     C8 3262   7.376   9.021   7.857 -0.3542 -0.3897 -0.1437
  108bbb    H15 3263   7.388   9.127   7.882  0.5062 -0.8670  1.6111
  108bbb    H16 3264   7.476   8.985   7.830  0.2103  1.7028 -1.0805
  108bbb     C9 3265   7.474   8.381   8.068  0.0118 -0.0115 -0.4311
  108bbb    H17 3266   7.426   8.336   8.156 -1.6103  0.6353 -0.9595
  108bbb    H18 3267   7.582   8.364   8.078 -0.0208 -0.0291 -0.0990
  108bbb     O1 3268   6.900   8.618   8.414 -0.2868 -0.1072 -0.2187
  108bbb    H19 3269   7.363   8.770   8.192  2.0054 -0.3127 -1.4131
  109bbb     N1 3270   7.577   8.483   8.794  0.0581 -0.6545  0.6216
  109bbb     C1 3271   7.697   8.454   8.884  0.0417  0.2028 -0.4776
  109bbb     H1 3272   7.769   8.396   8.826  0.1015  1.0555 -1.2804
  109bbb     H2 3273   7.659   8.390   8.964  0.4230 -1.3305 -1.4651
  109bbb     C2 3274   7.625   8.511   8.650 -0.0195 -0.6472 -1.4424
  109bbb     H3 3275   7.654   8.419   8.598  1.3147 -0.2840 -1.3969
  109bbb     H4 3276   7.708   8.577   8.676  0.3108 -1.4496 -0.4056
  109bbb     C3 3277   7.487   8.360   8.779 -0.1791  0.6055  0.1147
  109bbb     H5 3278   7.536   8.306   8.698  3.3043 -0.1777  2.5255
  109bbb     H6 3279   7.392   8.388   8.734 -2.0014 -2.3444  1.8123
  109bbb     C4 3280   7.446   8.281   8.904  0.0477  0.3731 -0.2340
  109bbb     H7 3281   7.389   8.334   8.981  0.7414  0.3201  0.3284
  109bbb     H8 3282   7.539   8.251   8.954  0.9240  4.6277  1.0991
  109bbb     C5 3283   7.765   8.576   8.942 -0.5079 -0.6889 -0.5933
  109bbb     H9 3284   7.690   8.655   8.951 -0.6528 -0.6927 -1.6307
  109bbb    H10 3285   7.848   8.619   8.885 -0.3864  1.6567  1.1965
  109bbb     C6 3286   7.518   8.595   8.568 -0.0513  0.0688  0.0641
  109bbb    H11 3287   7.422   8.544   8.555 -0.9447  1.8392 -0.6005
  109bbb    H12 3288   7.551   8.604   8.464 -0.5444 -1.6356 -0.2610
  109bbb     C7 3289   7.365   8.154   8.859  0.0178 -0.0206 -0.5146
  109bbb    H13 3290   7.381   8.074   8.932  1.6475  0.8830  0.1502
  109bbb    H14 3291   7.395   8.133   8.755 -3.7871  1.7928 -2.1891
  109bbb     C8 3292   7.494   8.735   8.634  0.3724  0.2824 -0.2044
  109bbb    H15 3293   7.449   8.807   8.565 -0.6238 -1.3576 -1.3483
  109bbb    H16 3294   7.422   8.717   8.715  0.3938 -1.8608 -0.5794
  109bbb     C9 3295   7.829   8.547   9.079 -0.1009  0.4647  0.3924
  109bbb    H17 3296   7.906   8.469   9.071 -0.2246  0.3817 -0.0414
  109bbb    H18 3297   7.760   8.509   9.155 -0.9508  1.0678 -0.0550
  109bbb     O1 3298   7.225   8.188   8.839 -0.3535  0.1142  0.2231
  109bbb    H19 3299   7.523   8.559   8.838 -0.2346 -1.3541  1.5099
  110bbb     N1 3300   4.760  10.666   7.658  0.5027 -0.0090 -0.3667
  110bbb     C1 3301   4.860  10.730   7.755 -0.2176 -0.7057 -0.3796
  110bbb     H1 3302   4.923  10.646   7.784  0.4779 -0.2972 -0.6794
  110bbb     H2 3303   4.798  10.771   7.835 -0.4571  0.4136 -1.1219
  110bbb     C2 3304   4.822  10.541   7.594 -0.2560 -0.2623  0.0573
  110bbb     H3 3305   4.810  10.461   7.668  1.6462 -1.8821 -1.2820
  110bbb     H4 3306   4.930  10.551   7.582 -0.2760 -0.5817 -0.3971
  110bbb     C3 3307   4.632  10.621   7.726  0.0676  0.8318 -0.4650
  110bbb     H5 3308   4.663  10.529   7.776 -1.6085  0.8203  0.6484
  110bbb     H6 3309   4.570  10.603   7.639  0.7506  1.3042 -1.0582
  110bbb     C4 3310   4.549  10.708   7.823  0.6143  0.8270  0.5154
  110bbb     H7 3311   4.553  10.817   7.812 -1.1691  1.1038  2.0255
  110bbb     H8 3312   4.595  10.699   7.923  0.0854 -0.1983  0.6883
  110bbb     C5 3313   4.947  10.849   7.694 -0.1165  0.2640 -0.4588
  110bbb     H9 3314   4.878  10.932   7.674 -0.8356  0.6081  2.7847
  110bbb    H10 3315   4.990  10.816   7.599  0.3733 -3.2233  0.8127
  110bbb     C6 3316   4.762  10.487   7.458 -0.2033  0.0016 -0.3657
  110bbb    H11 3317   4.776  10.559   7.377  0.3972 -0.5308 -0.7476
  110bbb    H12 3318   4.655  10.469   7.468 -0.7647  2.1516 -1.9203
  110bbb     C7 3319   4.395  10.674   7.837  0.1653  0.2902  0.3759
  110bbb    H13 3320   4.356  10.727   7.924 -3.8618  0.8548 -1.5476
  110bbb    H14 3321   4.383  10.566   7.857  1.2453 -0.0766 -0.7928
  110bbb     C8 3322   4.826  10.358   7.413 -0.2355 -0.0657  0.4143
  110bbb    H15 3323   4.769  10.311   7.332 -1.2652 -2.5860  2.5075
  110bbb    H16 3324   4.926  10.377   7.371  0.4300 -1.8348  1.1447
  110bbb     C9 3325   5.056  10.908   7.790 -0.5432 -0.4601 -0.0966
  110bbb    H17 3326   5.011  10.929   7.888 -0.9259 -2.2597  0.1547
  110bbb    H18 3327   5.101  10.998   7.749  2.4199 -1.3592  0.9161
  110bbb     O1 3328   4.316  10.705   7.716 -0.1397 -0.0320 -0.3482
  110bbb    H19 3329   4.740  10.741   7.590 -0.3168  0.6341  0.5643
  111bbb     N1 3330   4.068  10.269   6.545 -0.0027  0.4303  0.7150
  111bbb     C1 3331   4.119  10.403   6.505 -0.9119 -0.5813 -1.0152
  111bbb     H1 3332   4.218  10.394   6.459 -0.7141  0.7103 -0.8872
  111bbb     H2 3333   4.145  10.455   6.597  0.5944  0.2442 -1.8692
  111bbb     C2 3334   4.102  10.176   6.427  0.3227  0.4706  0.0805
  111bbb     H3 3335   4.209  10.156   6.426  0.3792  0.7794 -0.0818
  111bbb     H4 3336   4.090  10.234   6.336 -1.2584 -0.4277 -0.3131
  111bbb     C3 3337   4.143  10.231   6.672  0.0215  0.5338  0.7101
  111bbb     H5 3338   4.250  10.235   6.655 -0.0655 -0.2852 -0.0780
  111bbb     H6 3339   4.119  10.125   6.686  0.6350  0.2191 -0.5429
  111bbb     C4 3340   4.112  10.320   6.799  0.1722 -0.6408 -0.4387
  111bbb     H7 3341   4.002  10.326   6.805  0.2599  1.3865 -0.2219
  111bbb     H8 3342   4.156  10.419   6.784 -1.6884  0.1928 -0.7210
  111bbb     C5 3343   4.037  10.494   6.414 -0.5593 -0.2883 -0.7212
  111bbb     H9 3344   3.953  10.516   6.481  1.9897  0.1213  2.6254
  111bbb    H10 3345   4.002  10.436   6.328  0.4093 -1.5961 -0.2782
  111bbb     C6 3346   4.022  10.032   6.419  0.1667 -1.0761  0.1059
  111bbb    H11 3347   3.923  10.046   6.375  0.5124  0.7829 -0.1626
  111bbb    H12 3348   3.998   9.989   6.516 -1.3537  0.2323  0.3546
  111bbb     C7 3349   4.158  10.256   6.939  0.0977  0.3931  0.2338
  111bbb    H13 3350   4.258  10.215   6.921 -0.5102  0.0116 -2.7069
  111bbb    H14 3351   4.082  10.183   6.968 -0.1897  0.1256 -1.1488
  111bbb     C8 3352   4.105   9.935   6.332 -0.4957 -0.3736  0.3423
  111bbb    H15 3353   4.203   9.912   6.377 -0.2456 -1.4686 -0.7125
  111bbb    H16 3354   4.051   9.840   6.322  0.5130 -0.7571 -2.1344
  111bbb     C9 3355   4.111  10.629   6.382  0.0375  0.6318 -0.6106
  111bbb    H17 3356   4.134  10.681   6.476 -0.8127  1.8140 -1.0287
  111bbb    H18 3357   4.049  10.699   6.323 -0.2310  0.8173 -0.1129
  111bbb     O1 3358   4.161  10.355   7.049 -0.6220 -0.3559 -0.4126
  111bbb    H19 3359   3.966  10.271   6.559 -0.2608 -1.9218 -0.3426
  112bbb     N1 3360   3.351  12.251   7.177  0.0282 -0.2379 -0.6075
  112bbb     C1 3361   3.491  12.272   7.113  0.4078 -1.1221 -0.0382
  112bbb     H1 3362   3.473  12.320   7.017 -0.6165  1.9093  1.5612
  112bbb     H2 3363   3.544  12.176   7.106 -0.7311 -1.6686 -2.1789
  112bbb     C2 3364   3.248  12.294   7.080 -0.3263 -0.4740  0.3962
  112bbb     H3 3365   3.158  12.252   7.124 -0.0314 -0.4439  1.0348
  112bbb     H4 3366   3.266  12.246   6.983  0.8250 -0.8643  0.7923
  112bbb     C3 3367   3.335  12.099   7.203  1.2281 -0.2373 -0.0267
  112bbb     H5 3368   3.331  12.051   7.105 -0.2748  0.3673 -0.2999
  112bbb     H6 3369   3.229  12.097   7.232  1.0617 -0.4578 -0.6234
  112bbb     C4 3370   3.423  12.018   7.299 -0.9878 -0.2162 -0.5688
  112bbb     H7 3371   3.526  12.023   7.261 -1.0455  2.0051 -0.5890
  112bbb     H8 3372   3.392  11.913   7.297 -0.1652 -0.5593  1.7828
  112bbb     C5 3373   3.585  12.376   7.193  0.1327  0.1489 -0.0382
  112bbb     H9 3374   3.595  12.350   7.299  0.0790  0.2216 -0.0158
  112bbb    H10 3375   3.545  12.478   7.196  2.2738  1.1115 -1.5695
  112bbb     C6 3376   3.237  12.448   7.071 -0.0958  0.2975 -0.5906
  112bbb    H11 3377   3.333  12.496   7.048  0.9068 -0.4570  1.7320
  112bbb    H12 3378   3.208  12.480   7.172  0.0961  3.0036 -1.3204
  112bbb     C7 3379   3.417  12.063   7.446  0.4397 -0.2992  0.4938
  112bbb    H13 3380   3.422  12.172   7.458 -1.7767 -0.2068  1.1425
  112bbb    H14 3381   3.504  12.030   7.504 -0.1827 -1.7490  0.6675
  112bbb     C8 3382   3.125  12.493   6.973  0.3493  0.1097 -0.1892
  112bbb    H15 3383   3.041  12.445   7.025  1.4531 -1.1873  0.4583
  112bbb    H16 3384   3.114  12.601   6.984 -1.2997 -0.0176 -0.2992
  112bbb     C9 3385   3.728  12.383   7.144  0.6117 -0.6112 -0.4143
  112bbb    H17 3386   3.787  12.452   7.206  0.2253 -0.0277 -0.6835
  112bbb    H18 3387   3.727  12.430   7.045 -0.4148 -1.2235 -0.7065
  112bbb     O1 3388   3.303  11.992   7.511  0.5655  0.1052  0.4939
  112bbb    H19 3389   3.335  12.307   7.262 -2.4496 -0.5755 -0.7676
  113bbb     N1 3390   2.439  11.747   7.533  0.1505  0.3996  0.6055
  113bbb     C1 3391   2.317  11.719   7.624 -0.1396  0.2732  0.8449
  113bbb     H1 3392   2.237  11.782   7.586 -0.1898 -0.0618  0.3740
  113bbb     H2 3393   2.343  11.761   7.721 -0.0037  0.4078  0.7516
  113bbb     C2 3394   2.474  11.888   7.542 -0.3314 -0.4578 -0.5520
  113bbb     H3 3395   2.547  11.915   7.466  1.0020  0.5045  1.0202
  113bbb     H4 3396   2.518  11.898   7.641  0.5168  2.2916 -1.1057
  113bbb     C3 3397   2.557  11.664   7.576  0.6847  0.7833  0.1525
  113bbb     H5 3398   2.525  11.560   7.585  3.0906 -0.1855 -1.5288
  113bbb     H6 3399   2.592  11.705   7.672  0.5008  2.6634 -0.5401
  113bbb     C4 3400   2.663  11.658   7.469 -0.0956  0.3664 -0.0232
  113bbb     H7 3401   2.709  11.757   7.459  1.0213 -0.0389  0.9488
  113bbb     H8 3402   2.613  11.633   7.374 -2.9214  0.8763  1.2365
  113bbb     C5 3403   2.253  11.584   7.631  0.3108  0.6263 -0.1222
  113bbb     H9 3404   2.329  11.510   7.658 -0.3622  0.9134  2.9109
  113bbb    H10 3405   2.214  11.563   7.530  0.9272  0.3586 -0.3093
  113bbb     C6 3406   2.367  12.004   7.531 -0.7940 -0.1671  0.2761
  113bbb    H11 3407   2.274  11.988   7.588 -1.0523 -0.0192 -0.0958
  113bbb    H12 3408   2.338  12.007   7.425 -0.1629  0.4258  0.1160
  113bbb     C7 3409   2.772  11.550   7.503  0.1648 -0.4707  0.2145
  113bbb    H13 3410   2.860  11.573   7.442  2.0976  2.6515  3.7186
  113bbb    H14 3411   2.734  11.449   7.487 -0.9575 -0.2550  1.3890
  113bbb     C8 3412   2.432  12.135   7.582  0.1913 -0.2141  0.7379
  113bbb    H15 3413   2.455  12.124   7.689 -2.4602  0.4174  1.4467
  113bbb    H16 3414   2.526  12.156   7.531 -0.7158  1.1853 -0.4601
  113bbb     C9 3415   2.145  11.583   7.738 -1.0652 -0.0443  0.2406
  113bbb    H17 3416   2.190  11.631   7.826  1.7224 -0.7253 -0.7240
  113bbb    H18 3417   2.129  11.477   7.757 -1.8478  0.0332  0.0492
  113bbb     O1 3418   2.830  11.569   7.636 -0.0298  0.6336  0.1952
  113bbb    H19 3419   2.419  11.718   7.436 -2.3377 -2.1041  1.7173
  114bbb     N1 3420   2.509  10.135   6.921 -0.1372 -0.1157  0.0852
  114bbb     C1 3421   2.461  10.148   7.069 -0.5019  0.0690 -0.3806
  114bbb     H1 3422   2.545  10.199   7.117  0.4142 -1.1654 -0.6290
  114bbb     H2 3423   2.457  10.048   7.112  0.7924  1.5577  3.7935
  114bbb     C2 3424   2.424  10.048   6.824  0.2328  0.8370 -0.4159
  114bbb     H3 3425   2.478  10.059   6.730  0.8507  1.6320  0.0223
  114bbb     H4 3426   2.328  10.099   6.819 -0.8363 -1.1026 -0.7083
  114bbb     C3 3427   2.517  10.276   6.867  0.5378  0.1016 -0.8220
  114bbb     H5 3428   2.588  10.322   6.935 -1.8937  0.1763  1.8292
  114bbb     H6 3429   2.421  10.318   6.896 -0.4253 -1.7804 -1.0796
  114bbb     C4 3430   2.544  10.317   6.724  0.3486  0.1209  0.0385
  114bbb     H7 3431   2.456  10.285   6.667 -1.2251  0.4024  2.1820
  114bbb     H8 3432   2.637  10.274   6.685  1.5040  0.3973  2.3355
  114bbb     C5 3433   2.325  10.213   7.101  0.5744 -0.1764  0.3674
  114bbb     H9 3434   2.239  10.159   7.059  2.8840 -1.2411 -3.4840
  114bbb    H10 3435   2.317  10.317   7.067 -0.2666  0.3256  1.9827
  114bbb     C6 3436   2.408   9.895   6.863 -0.6747 -0.5717  0.1068
  114bbb    H11 3437   2.367   9.882   6.964 -0.9206 -1.3480 -0.0896
  114bbb    H12 3438   2.509   9.859   6.883  0.3871  1.5601 -1.1367
  114bbb     C7 3439   2.552  10.464   6.707 -0.4979  0.3046  0.2796
  114bbb    H13 3440   2.543  10.491   6.601  0.9733  0.7049  0.2316
  114bbb    H14 3441   2.651  10.496   6.741 -0.1758 -0.8647  0.4832
  114bbb     C8 3442   2.329   9.807   6.761 -0.2325 -0.0383  0.6683
  114bbb    H15 3443   2.339   9.838   6.657 -0.4408 -0.7113  0.4406
  114bbb    H16 3444   2.354   9.700   6.765 -5.0433 -1.4749 -0.8965
  114bbb     C9 3445   2.301  10.229   7.256 -1.0013  0.0982  0.3412
  114bbb    H17 3446   2.373  10.297   7.303 -1.2876  0.5473  0.1277
  114bbb    H18 3447   2.322  10.131   7.301  0.4498 -0.2246 -0.9383
  114bbb     O1 3448   2.448  10.524   6.791 -0.1895 -0.0069  0.3689
  114bbb    H19 3449   2.604  10.094   6.921  1.2506  2.8779 -0.1373
  115bbb     N1 3450   2.057  11.315   6.530 -0.0549 -0.1979 -0.4507
  115bbb     C1 3451   2.089  11.427   6.438 -0.8016  0.6143 -0.0722
  115bbb     H1 3452   2.020  11.414   6.355  1.6207 -2.5545 -1.8100
  115bbb     H2 3453   2.190  11.413   6.398 -0.7368  1.0746 -0.0767
  115bbb     C2 3454   2.070  11.191   6.451  0.2124  0.6639 -0.2292
  115bbb     H3 3455   2.049  11.110   6.521 -2.1051  2.4442  1.2519
  115bbb     H4 3456   2.173  11.184   6.413  0.1808 -0.7324 -0.1383
  115bbb     C3 3457   2.159  11.309   6.640 -0.1191 -0.0602  0.0649
  115bbb     H5 3458   2.132  11.217   6.692  1.2395 -0.6866 -0.2947
  115bbb     H6 3459   2.147  11.397   6.703 -1.0144  0.1597 -0.3953
  115bbb     C4 3460   2.307  11.301   6.617 -0.1285  0.8015  0.1686
  115bbb     H7 3461   2.335  11.392   6.562 -3.6322  1.3342 -1.0254
  115bbb     H8 3462   2.330  11.208   6.563  0.9200  0.4573  1.1779
  115bbb     C5 3463   2.080  11.568   6.507 -0.8433 -0.0572 -0.3082
  115bbb     H9 3464   2.171  11.577   6.568  0.5825 -0.1272 -2.3187
  115bbb    H10 3465   1.984  11.573   6.560 -1.1272  1.3180 -0.9087
  115bbb     C6 3466   1.965  11.174   6.332 -0.3764  0.1693  0.1015
  115bbb    H11 3467   1.982  11.087   6.267  2.4151  0.4911  0.2733
  115bbb    H12 3468   1.989  11.247   6.253  1.5706 -1.3119 -0.7778
  115bbb     C7 3469   2.386  11.283   6.753  0.3574 -0.1951 -0.2705
  115bbb    H13 3470   2.376  11.372   6.816  0.4921 -0.4593  0.1296
  115bbb    H14 3471   2.494  11.268   6.744  0.6940  1.5713  0.4691
  115bbb     C8 3472   1.817  11.184   6.381 -0.1651 -0.0219  0.9620
  115bbb    H15 3473   1.754  11.175   6.292  0.9684  0.7173  0.0568
  115bbb    H16 3474   1.782  11.109   6.454 -0.6650  0.2344  0.9892
  115bbb     C9 3475   2.073  11.665   6.390 -0.6366  0.7487 -0.4652
  115bbb    H17 3476   2.033  11.758   6.434  2.8478  1.5468  1.3516
  115bbb    H18 3477   2.010  11.631   6.307  0.1030  0.4971 -0.9313
  115bbb     O1 3478   2.317  11.181   6.839  0.3618 -0.2202  0.0756
  115bbb    H19 3479   1.962  11.306   6.569  0.4154 -2.1933  0.3866
  116bbb     N1 3480   1.609  10.302   8.389  0.4057 -0.5568  0.2830
  116bbb     C1 3481   1.499  10.378   8.449  0.2359 -0.3529  0.4083
  116bbb     H1 3482   1.552  10.410   8.539  4.6119 -1.2754 -1.5761
  116bbb     H2 3483   1.411  10.317   8.468 -0.4848  0.9614  1.4255
  116bbb     C2 3484   1.568  10.234   8.263 -0.3335 -0.0344 -0.0527
  116bbb     H3 3485   1.652  10.222   8.195 -1.4487 -2.4252 -1.1677
  116bbb     H4 3486   1.499  10.299   8.209  0.8825  0.7384 -0.7300
  116bbb     C3 3487   1.732  10.390   8.351 -0.1209 -0.1622 -0.7004
  116bbb     H5 3488   1.740  10.449   8.442 -1.1619 -0.0743 -0.6566
  116bbb     H6 3489   1.711  10.468   8.278 -0.7884  1.9196  1.5856
  116bbb     C4 3490   1.874  10.314   8.335  0.1315 -0.0092  0.5258
  116bbb     H7 3491   1.882  10.271   8.235 -2.9629 -0.2879  0.3077
  116bbb     H8 3492   1.872  10.237   8.413  0.3399 -0.9609 -0.3854
  116bbb     C5 3493   1.454  10.508   8.379 -0.3267  0.1960 -0.5633
  116bbb     H9 3494   1.444  10.486   8.272 -0.1855 -1.6119 -0.2315
  116bbb    H10 3495   1.541  10.574   8.392 -0.2445 -0.3574  2.2900
  116bbb     C6 3496   1.511  10.089   8.272 -0.6400  0.4345 -0.1888
  116bbb    H11 3497   1.470  10.051   8.177 -1.4077 -0.6920  0.5687
  116bbb    H12 3498   1.430  10.082   8.345  0.2106 -0.5911  0.6842
  116bbb     C7 3499   1.987  10.411   8.359  0.2057 -0.0768  0.3403
  116bbb    H13 3500   2.078  10.350   8.353 -0.1869 -0.5959 -0.4366
  116bbb    H14 3501   1.982  10.447   8.463  0.4372  0.7447  0.0768
  116bbb     C8 3502   1.611   9.975   8.307 -0.2763 -0.2674  0.5413
  116bbb    H15 3503   1.607   9.957   8.415 -0.1321  1.3833  0.8432
  116bbb    H16 3504   1.590   9.876   8.265  1.1296 -0.2462 -0.2596
  116bbb     C9 3505   1.332  10.583   8.436 -0.4518 -0.0858 -0.6526
  116bbb    H17 3506   1.300  10.642   8.350 -0.2174  0.6338 -0.2571
  116bbb    H18 3507   1.360  10.654   8.516  2.3955 -0.4053 -1.2565
  116bbb     O1 3508   1.979  10.511   8.261  0.0544 -0.2837  0.6401
  116bbb    H19 3509   1.629  10.228   8.459 -1.7201  1.7990  3.7029
  117bbb     N1 3510   2.114  10.866   8.943  0.3933  0.0334 -0.3394
  117bbb     C1 3511   2.211  10.933   9.040 -0.2788  0.0143 -0.1494
  117bbb     H1 3512   2.211  11.042   9.029  2.3973  0.0577 -0.3952
  117bbb     H2 3513   2.310  10.892   9.016 -1.1390 -1.3295 -1.5516
  117bbb     C2 3514   1.982  10.936   8.944  0.1992 -0.1651 -0.3825
  117bbb     H3 3515   2.005  11.037   8.911 -1.2064  1.0281  1.9633
  117bbb     H4 3516   1.954  10.940   9.049  1.6358  1.1918 -0.0090
  117bbb     C3 3517   2.162  10.852   8.800 -0.0020 -0.4021  0.5363
  117bbb     H5 3518   2.089  10.794   8.744  1.6796  0.0880 -2.3733
  117bbb     H6 3519   2.254  10.797   8.820  0.2426 -0.2450 -0.1310
  117bbb     C4 3520   2.201  10.985   8.737 -0.9893 -0.0254  0.6382
  117bbb     H7 3521   2.262  11.045   8.806 -1.8465  1.5632  0.0592
  117bbb     H8 3522   2.119  11.057   8.729  0.1701  1.2052 -0.7108
  117bbb     C5 3523   2.183  10.906   9.183 -0.7641  0.4638  0.0526
  117bbb     H9 3524   2.086  10.938   9.225 -0.2380  0.3332  1.4468
  117bbb    H10 3525   2.251  10.966   9.246 -2.3959  1.4232  0.9952
  117bbb     C6 3526   1.863  10.891   8.856 -0.3572 -0.1031  0.0867
  117bbb    H11 3527   1.881  10.893   8.747  0.0681 -0.0044  0.1552
  117bbb    H12 3528   1.788  10.967   8.880  0.9053  1.3904 -0.5091
  117bbb     C7 3529   2.278  10.952   8.605 -0.1931  0.0361 -0.0561
  117bbb    H13 3530   2.361  10.888   8.638 -0.9381 -0.8818  0.0971
  117bbb    H14 3531   2.330  11.039   8.563 -0.5848 -0.7259 -2.2752
  117bbb     C8 3532   1.816  10.751   8.902  0.1138 -0.2019  0.1902
  117bbb    H15 3533   1.735  10.728   8.832  1.8384 -0.6541 -1.7459
  117bbb    H16 3534   1.895  10.676   8.888 -2.2661 -2.4391 -2.6557
  117bbb     C9 3535   2.215  10.759   9.218  0.6914  0.4427  0.3088
  117bbb    H17 3536   2.202  10.747   9.327  3.0100  0.9680  0.6809
  117bbb    H18 3537   2.314  10.715   9.202 -0.5932 -2.4963 -0.0904
  117bbb     O1 3538   2.192  10.894   8.507 -0.5699  0.2959  0.2081
  117bbb    H19 3539   2.107  10.771   8.982 -0.2389  0.0286 -0.4540
  118bbb     N1 3540   4.455  12.061   8.213  0.0354 -0.2868 -0.0241
  118bbb     C1 3541   4.451  12.032   8.063  0.6846  0.3080 -0.0140
  118bbb     H1 3542   4.464  12.130   8.017  1.1191 -0.1104 -0.8107
  118bbb     H2 3543   4.355  11.985   8.041  0.2286 -0.6109  3.3704
  118bbb     C2 3544   4.343  12.158   8.247 -0.0839 -0.4551  0.2406
  118bbb     H3 3545   4.349  12.169   8.355 -0.3408  0.5982  0.1589
  118bbb     H4 3546   4.248  12.109   8.225 -0.7050  0.5906  0.5568
  118bbb     C3 3547   4.439  11.934   8.291  0.2114  0.5135 -0.2640
  118bbb     H5 3548   4.411  11.858   8.218  2.0420 -0.8319  0.3739
  118bbb     H6 3549   4.351  11.952   8.354  0.0580 -1.3038  0.0819
  118bbb     C4 3550   4.553  11.892   8.389 -0.4696 -0.5940 -0.4684
  118bbb     H7 3551   4.578  11.979   8.451  2.3028 -1.9729  0.5222
  118bbb     H8 3552   4.642  11.865   8.330 -0.4957  0.1981 -0.8797
  118bbb     C5 3553   4.552  11.928   8.005 -0.5028  0.3340 -0.0367
  118bbb     H9 3554   4.527  11.824   8.026  1.9409  0.0783  2.0711
  118bbb    H10 3555   4.652  11.930   8.050 -0.6928 -2.6194  0.7223
  118bbb     C6 3556   4.341  12.301   8.189 -0.0923 -1.1799  0.7704
  118bbb    H11 3557   4.307  12.300   8.085  0.2214 -2.9681  0.6586
  118bbb    H12 3558   4.439  12.350   8.187 -0.5495 -0.2722 -0.1247
  118bbb     C7 3559   4.517  11.783   8.495  0.3093 -0.2208  0.4659
  118bbb    H13 3560   4.601  11.764   8.564 -0.0701 -0.4471  0.8679
  118bbb    H14 3561   4.486  11.696   8.437 -0.2575  0.5403 -0.4025
  118bbb     C8 3562   4.235  12.382   8.268 -0.4646  0.3219 -0.1238
  118bbb    H15 3563   4.200  12.470   8.212 -1.1859  1.4667  2.0054
  118bbb    H16 3564   4.151  12.314   8.285  1.7123 -2.1134  1.7319
  118bbb     C9 3565   4.554  11.946   7.851  0.3531  0.0141  0.1132
  118bbb    H17 3566   4.638  11.894   7.804  0.8778  0.6433  0.3346
  118bbb    H18 3567   4.566  12.052   7.823  2.3159 -0.6196 -1.7186
  118bbb     O1 3568   4.409  11.819   8.587  0.1860  0.1046 -0.0494
  118bbb    H19 3569   4.545  12.107   8.231 -0.4372  1.0043 -0.7856
  119bbb     N1 3570   3.623  12.110   9.182 -0.5088  0.0834 -0.8166
  119bbb     C1 3571   3.585  12.195   9.056 -0.0134 -0.0595  0.3993
  119bbb     H1 3572   3.525  12.137   8.986 -0.0679  2.2343 -1.5774
  119bbb     H2 3573   3.675  12.227   9.004 -0.9576 -0.3366 -1.4831
  119bbb     C2 3574   3.498  12.055   9.252  0.2488 -0.1446 -0.1870
  119bbb     H3 3575   3.443  12.140   9.293 -0.5237 -1.7729  2.3403
  119bbb     H4 3576   3.539  11.997   9.334 -1.3533 -0.4141  0.4504
  119bbb     C3 3577   3.705  12.001   9.121  0.3700  0.5663  0.0187
  119bbb     H5 3578   3.663  11.982   9.022  3.3409 -0.6361 -1.1295
  119bbb     H6 3579   3.690  11.911   9.180 -1.2531  1.0086  0.3276
  119bbb     C4 3580   3.854  12.035   9.101  0.4869  0.1172  0.6190
  119bbb     H7 3581   3.891  12.092   9.187  1.2504  2.5513 -1.1957
  119bbb     H8 3582   3.862  12.107   9.018  0.0783  0.7349  1.1015
  119bbb     C5 3583   3.498  12.317   9.095 -0.3122  0.0612 -0.3147
  119bbb     H9 3584   3.544  12.368   9.180 -0.3334 -1.4416  0.6178
  119bbb    H10 3585   3.402  12.280   9.134 -0.6599 -0.2032 -1.3835
  119bbb     C6 3586   3.385  11.987   9.174 -0.2559  0.0937  0.0595
  119bbb    H11 3587   3.433  11.919   9.103  2.2167  1.3120  0.4650
  119bbb    H12 3588   3.309  12.052   9.126  0.1908 -0.2287 -1.1231
  119bbb     C7 3589   3.942  11.907   9.073 -0.8570  0.2710  0.2205
  119bbb    H13 3590   3.890  11.845   8.998 -0.0832 -2.0123  1.4802
  119bbb    H14 3591   3.951  11.843   9.161 -0.0190 -0.5205 -0.4154
  119bbb     C8 3592   3.295  11.888   9.256 -0.2530 -0.1908 -0.5487
  119bbb    H15 3593   3.221  11.842   9.189 -0.3066 -2.2277  0.8250
  119bbb    H16 3594   3.361  11.809   9.292 -2.4929 -2.0778 -0.3326
  119bbb     C9 3595   3.469  12.415   8.983  0.5755  0.7234 -0.3181
  119bbb    H17 3596   3.420  12.362   8.901 -0.1823  1.7519 -0.5593
  119bbb    H18 3597   3.557  12.465   8.942  1.7637 -0.7844  0.2905
  119bbb     O1 3598   4.072  11.947   9.018  0.5629  0.5327 -0.2701
  119bbb    H19 3599   3.678  12.169   9.245  1.2502  0.5816 -2.7180
  120bbb     N1 3600   3.567  11.321  10.151 -0.0111 -0.1464  0.0170
  120bbb     C1 3601   3.536  11.170  10.174 -0.0880  0.6013  0.2110
  120bbb     H1 3602   3.529  11.146  10.280  3.1250 -0.3986  0.3118
  120bbb     H2 3603   3.611  11.102  10.133 -3.4486 -3.3301 -0.0737
  120bbb     C2 3604   3.696  11.362  10.224 -0.0626 -0.2032  0.6815
  120bbb     H3 3605   3.723  11.463  10.192 -1.1083 -0.0674  0.1569
  120bbb     H4 3606   3.777  11.301  10.184  0.1187  1.7579 -2.2788
  120bbb     C3 3607   3.584  11.353  10.006 -0.0405 -0.3783  0.1691
  120bbb     H5 3608   3.490  11.326   9.958  0.2719  1.8624 -1.8862
  120bbb     H6 3609   3.646  11.284   9.949  0.2238  1.8981 -2.5294
  120bbb     C4 3610   3.609  11.503   9.970 -0.2538 -0.2706  0.1332
  120bbb     H7 3611   3.705  11.542  10.005 -0.7508  1.9201 -0.7510
  120bbb     H8 3612   3.538  11.569  10.022  0.2647  1.8917 -1.7487
  120bbb     C5 3613   3.405  11.117  10.104  0.6914 -0.0488 -0.0204
  120bbb     H9 3614   3.415  11.109   9.995 -1.3829 -0.2072 -0.2491
  120bbb    H10 3615   3.324  11.189  10.121 -0.6448 -1.4604 -0.1576
  120bbb     C6 3616   3.689  11.345  10.377  0.8236 -0.3764  0.5841
  120bbb    H11 3617   3.786  11.371  10.421  0.8750 -0.9816  0.8366
  120bbb    H12 3618   3.667  11.242  10.406  2.2226 -0.3769  1.7694
  120bbb     C7 3619   3.597  11.520   9.817  0.4176  0.2462  1.1500
  120bbb    H13 3620   3.636  11.613   9.775  1.7180  0.1978  2.1871
  120bbb    H14 3621   3.490  11.507   9.796  0.4296 -0.4401  1.5106
  120bbb     C8 3622   3.582  11.440  10.437 -0.0648  0.4684 -0.6344
  120bbb    H15 3623   3.594  11.434  10.546 -0.5737  0.7069 -0.5613
  120bbb    H16 3624   3.604  11.543  10.408  0.2785  0.3553 -0.7772
  120bbb     C9 3625   3.360  10.983  10.163 -0.1521  0.2039 -0.1632
  120bbb    H17 3626   3.262  10.955  10.121 -0.3093 -1.7004  1.3221
  120bbb    H18 3627   3.346  10.993  10.271  0.1051  1.9132 -0.2639
  120bbb     O1 3628   3.660  11.419   9.738  0.3661  0.2792 -0.9534
  120bbb    H19 3629   3.497  11.382  10.195  1.9455 -0.0002  3.2689
  121bbb     N1 3630   4.241  12.042   9.843  0.1188  0.7738 -0.2292
  121bbb     C1 3631   4.116  12.134   9.840  0.1670 -0.0195 -0.0101
  121bbb     H1 3632   4.166  12.229   9.859  2.0471 -0.2894 -2.9735
  121bbb     H2 3633   4.046  12.100   9.917 -0.1525 -0.2504 -0.3925
  121bbb     C2 3634   4.365  12.116   9.787 -0.2927 -0.2871 -0.0617
  121bbb     H3 3635   4.334  12.166   9.696  4.1350  1.9647 -0.6376
  121bbb     H4 3636   4.430  12.031   9.763  0.3430  0.0578  0.3864
  121bbb     C3 3637   4.265  11.991   9.984  0.0608  0.4477  0.4960
  121bbb     H5 3638   4.247  12.074  10.053 -2.6563 -0.7880  1.4375
  121bbb     H6 3639   4.370  11.966   9.973 -0.3101 -0.5175 -1.3058
  121bbb     C4 3640   4.175  11.873  10.027 -0.1063 -0.0090  0.0938
  121bbb     H7 3641   4.078  11.894   9.981  0.8035  1.6750 -1.1770
  121bbb     H8 3642   4.158  11.880  10.135 -0.6567 -0.3871  0.0326
  121bbb     C5 3643   4.038  12.142   9.708 -0.0227 -0.4150  0.0907
  121bbb     H9 3644   4.029  12.042   9.662  0.5326 -0.2232 -0.4585
  121bbb    H10 3645   4.094  12.206   9.638 -0.2994 -2.2907 -1.9775
  121bbb     C6 3646   4.428  12.233   9.870 -0.1227 -0.3879  0.1861
  121bbb    H11 3647   4.527  12.247   9.824 -0.4856 -0.4141 -0.6105
  121bbb    H12 3648   4.444  12.196   9.972  0.3632 -2.1045 -0.4710
  121bbb     C7 3649   4.222  11.737   9.981 -0.2920 -0.0050 -0.5916
  121bbb    H13 3650   4.278  11.690  10.063 -1.0144  0.6257  0.2803
  121bbb    H14 3651   4.282  11.747   9.889  0.3873  1.5858 -0.0069
  121bbb     C8 3652   4.362  12.371   9.869  0.1113  0.1950 -0.3328
  121bbb    H15 3653   4.261  12.376   9.911  0.3375  1.5543  0.0857
  121bbb    H16 3654   4.424  12.429   9.939  2.2150 -0.2331 -1.7445
  121bbb     C9 3655   3.901  12.219   9.723 -0.8928  0.0199  0.5438
  121bbb    H17 3656   3.850  12.176   9.810  2.0681 -0.8119  1.9805
  121bbb    H18 3657   3.841  12.199   9.633 -1.3191  0.9252  0.6147
  121bbb     O1 3658   4.102  11.661   9.935  0.2608  0.1932  0.2874
  121bbb    H19 3659   4.232  11.966   9.774  2.9745  0.7844 -0.7463
  122bbb     N1 3660   5.875  12.007   8.827  0.4159  0.1269  0.2400
  122bbb     C1 3661   5.864  12.154   8.853 -0.1042 -0.9758  0.1362
  122bbb     H1 3662   5.948  12.185   8.916  0.7258 -3.3996  0.3112
  122bbb     H2 3663   5.769  12.178   8.901  0.4339 -0.5688  1.0476
  122bbb     C2 3664   6.017  11.980   8.775  0.3720  0.1998  0.0003
  122bbb     H3 3665   6.016  12.046   8.688  0.5526 -0.3250 -0.4033
  122bbb     H4 3666   6.009  11.877   8.739 -0.3257  0.2448 -0.0020
  122bbb     C3 3667   5.854  11.915   8.948 -0.6655  0.0952 -0.4067
  122bbb     H5 3668   5.750  11.929   8.979 -0.2132 -0.1872  1.3309
  122bbb     H6 3669   5.933  11.934   9.020  0.2582 -1.8108 -0.8556
  122bbb     C4 3670   5.856  11.762   8.923 -0.4208 -0.7219 -0.4020
  122bbb     H7 3671   5.959  11.725   8.910 -0.2462 -0.0771 -0.9097
  122bbb     H8 3672   5.807  11.728   8.831  0.1525 -1.6566 -0.3712
  122bbb     C5 3673   5.879  12.249   8.730  1.0299 -0.2250  0.6385
  122bbb     H9 3674   5.978  12.236   8.685  1.2742  1.6161  0.6044
  122bbb    H10 3675   5.869  12.353   8.763  2.3098  0.3420 -0.6511
  122bbb     C6 3676   6.140  12.002   8.857  1.0649 -0.1267  0.5060
  122bbb    H11 3677   6.114  11.978   8.960 -2.0972 -0.4390 -0.2494
  122bbb    H12 3678   6.168  12.107   8.846  1.7391 -0.4657 -1.4061
  122bbb     C7 3679   5.793  11.679   9.043  0.2381  0.2028 -0.7490
  122bbb    H13 3680   5.861  11.703   9.126  0.6829  0.4724 -1.1823
  122bbb    H14 3681   5.801  11.573   9.016  0.2436 -0.2594  0.9464
  122bbb     C8 3682   6.252  11.908   8.804 -0.0374 -0.0464  0.0468
  122bbb    H15 3683   6.274  11.921   8.698  1.4321 -1.5913  0.1210
  122bbb    H16 3684   6.343  11.942   8.856 -0.0801 -0.0871  0.1493
  122bbb     C9 3685   5.765  12.243   8.633 -0.4074 -0.1557  0.6857
  122bbb    H17 3686   5.744  12.139   8.604 -2.8300  0.3717  0.4111
  122bbb    H18 3687   5.782  12.298   8.540 -3.1442 -0.5825 -0.1539
  122bbb     O1 3688   5.652  11.710   9.068  0.2691  0.3784 -0.1948
  122bbb    H19 3689   5.805  11.986   8.754  1.1429  4.2531 -1.9971
  123bbb     N1 3690   5.476  12.376   9.809  0.2037 -0.1147 -0.5111
  123bbb     C1 3691   5.465  12.531   9.787  0.2924  0.2540  0.2958
  123bbb     H1 3692   5.541  12.564   9.716  0.5866  1.5709  1.1979
  123bbb     H2 3693   5.495  12.580   9.879  1.7950 -1.1239  0.5740
  123bbb     C2 3694   5.389  12.322   9.925  0.2352  0.5210  0.0100
  123bbb     H3 3695   5.378  12.215   9.907 -0.3091  0.1876  1.9975
  123bbb     H4 3696   5.293  12.374   9.914  0.1232  0.1502 -0.7856
  123bbb     C3 3697   5.452  12.304   9.678 -0.4754 -0.1264 -1.0580
  123bbb     H5 3698   5.473  12.373   9.597  1.9454 -0.0435 -0.4370
  123bbb     H6 3699   5.347  12.275   9.678 -1.0610  1.6453  1.2767
  123bbb     C4 3700   5.542  12.178   9.665  0.0432 -0.5959 -0.7587
  123bbb     H7 3701   5.536  12.128   9.763 -1.1010 -2.1999 -1.5941
  123bbb     H8 3702   5.647  12.210   9.656 -0.0759  0.4348  1.0857
  123bbb     C5 3703   5.331  12.592   9.744 -0.7084  0.3557  0.5373
  123bbb     H9 3704   5.251  12.574   9.817 -1.2669  0.1587 -0.1135
  123bbb    H10 3705   5.298  12.548   9.649  1.1560  2.1245 -1.0187
  123bbb     C6 3706   5.438  12.334  10.070  0.6374 -0.2732 -0.1671
  123bbb    H11 3707   5.357  12.311  10.141  0.6137 -0.2390 -0.1825
  123bbb    H12 3708   5.473  12.433  10.100  0.8186 -0.3385 -0.1613
  123bbb     C7 3709   5.491  12.073   9.560 -0.0985  0.1218  0.3350
  123bbb    H13 3710   5.534  11.972   9.563  0.1636  0.2300  0.2748
  123bbb    H14 3711   5.517  12.120   9.464  2.3190  1.5072  1.5808
  123bbb     C8 3712   5.553  12.234  10.091 -0.1793 -0.0955  0.4420
  123bbb    H15 3713   5.577  12.204  10.194 -0.3205 -1.6709  0.0478
  123bbb    H16 3714   5.529  12.138  10.044 -0.6555  0.3178 -0.1771
  123bbb     C9 3715   5.345  12.745   9.734  0.1151 -0.2118  0.1180
  123bbb    H17 3716   5.362  12.788   9.834  0.6168  0.5151 -0.2739
  123bbb    H18 3717   5.258  12.796   9.691 -0.3617 -0.3601  0.8928
  123bbb     O1 3718   5.342  12.078   9.567  0.0196  0.4514  0.0329
  123bbb    H19 3719   5.575  12.359   9.834  0.0559 -0.2706 -0.0391
  124bbb     N1 3720   5.726  10.110  10.782  0.0472 -0.4906 -0.0177
  124bbb     C1 3721   5.873  10.163  10.797  0.1197  0.9062  0.5071
  124bbb     H1 3722   5.915  10.182  10.698  0.0568 -0.3315  0.2294
  124bbb     H2 3723   5.918  10.072  10.837 -0.7472 -0.0033 -0.5186
  124bbb     C2 3724   5.668  10.092  10.917 -0.2363  0.3219  0.0559
  124bbb     H3 3725   5.635  10.188  10.958 -1.1457 -0.4377  1.1851
  124bbb     H4 3726   5.749  10.056  10.981 -0.3131 -1.0368 -0.5847
  124bbb     C3 3727   5.627  10.207  10.710 -0.0179  0.6800 -0.0330
  124bbb     H5 3728   5.641  10.306  10.754  2.9557 -0.5546  2.1706
  124bbb     H6 3729   5.531  10.158  10.723 -0.7394  0.3865 -4.6744
  124bbb     C4 3730   5.649  10.225  10.555  0.2466  0.6498  0.4977
  124bbb     H7 3731   5.661  10.122  10.520  1.6402  0.8632  0.3065
  124bbb     H8 3732   5.745  10.271  10.531  0.6317 -0.0065  0.7613
  124bbb     C5 3733   5.907  10.279  10.890 -0.3196 -0.0146  0.0595
  124bbb     H9 3734   5.882  10.248  10.992 -0.6233  1.5587  0.4901
  124bbb    H10 3735   5.849  10.370  10.873  2.4317  2.1577  1.3624
  124bbb     C6 3736   5.562   9.983  10.935  0.2036  0.3114 -0.8175
  124bbb    H11 3737   5.618   9.891  10.958 -1.9843 -0.6675  1.0095
  124bbb    H12 3738   5.512   9.966  10.839 -2.9666  0.8074  0.6299
  124bbb     C7 3739   5.525  10.268  10.477 -0.4291  0.4712 -0.1301
  124bbb    H13 3740   5.439  10.203  10.497 -0.8154  1.2783  0.9125
  124bbb    H14 3741   5.538  10.255  10.369 -1.4901  0.3015 -0.2500
  124bbb     C8 3742   5.452  10.009  11.045 -0.1185 -1.0758 -0.8225
  124bbb    H15 3743   5.382  10.086  11.011  2.0477  1.2358 -0.3090
  124bbb    H16 3744   5.403   9.914  11.069  0.4267 -1.0537  0.4026
  124bbb     C9 3745   6.057  10.306  10.878  0.3589 -0.5932  0.9212
  124bbb    H17 3746   6.083  10.332  10.775  0.0803  0.0369  1.0109
  124bbb    H18 3747   6.127  10.226  10.905  2.3408  0.7912  0.1223
  124bbb     O1 3748   5.489  10.407  10.501  0.0587  0.2360  0.4507
  124bbb    H19 3749   5.720  10.018  10.736  0.4455 -0.8340  0.5976
  125bbb     N1 3750   5.573  11.408  10.885  0.6717 -0.3207 -0.3082
  125bbb     C1 3751   5.683  11.458  10.787 -0.2018  0.0489  0.0650
  125bbb     H1 3752   5.761  11.512  10.841  0.6325  0.3931 -1.4109
  125bbb     H2 3753   5.635  11.518  10.710  1.6223  0.2871 -0.9300
  125bbb     C2 3754   5.535  11.537  10.962  0.4491  0.0182 -0.1553
  125bbb     H3 3755   5.435  11.532  11.005  0.3071 -2.4718 -0.6160
  125bbb     H4 3756   5.530  11.616  10.886 -2.1988  0.5160  0.4410
  125bbb     C3 3757   5.456  11.346  10.798 -0.4315 -0.2402 -0.0202
  125bbb     H5 3758   5.500  11.272  10.731  0.8796 -0.0097  0.5686
  125bbb     H6 3759   5.417  11.432  10.742 -0.7352 -0.5296 -0.2569
  125bbb     C4 3760   5.359  11.268  10.882  0.3302  0.7147  0.5194
  125bbb     H7 3761   5.312  11.343  10.947  4.1745  3.2742  0.6701
  125bbb     H8 3762   5.410  11.188  10.939  0.7270 -0.8018 -1.8404
  125bbb     C5 3763   5.759  11.345  10.713 -0.0159  0.5527  0.4513
  125bbb     H9 3764   5.816  11.388  10.630 -0.6098  2.0510  0.7878
  125bbb    H10 3765   5.695  11.267  10.670  0.9695 -0.9849  1.6848
  125bbb     C6 3766   5.628  11.584  11.078 -0.5143  0.1538 -0.5933
  125bbb    H11 3767   5.733  11.595  11.048 -0.5601  2.8110 -0.0530
  125bbb    H12 3768   5.618  11.509  11.158  2.2464 -0.3665 -0.6597
  125bbb     C7 3769   5.253  11.202  10.796  0.2896  0.1244 -0.0725
  125bbb    H13 3770   5.187  11.280  10.755  2.2600  0.7948 -2.1881
  125bbb    H14 3771   5.192  11.137  10.860  0.2376  0.4120  0.1751
  125bbb     C8 3772   5.579  11.719  11.137  0.4476  0.6991 -0.1103
  125bbb    H15 3773   5.634  11.763  11.221 -0.7190  0.8035  0.6173
  125bbb    H16 3774   5.574  11.798  11.061  1.7240  1.3911  0.4886
  125bbb     C9 3775   5.862  11.273  10.807  0.6259 -0.2818  0.3502
  125bbb    H17 3776   5.927  11.360  10.826 -0.0642 -0.0430  1.7185
  125bbb    H18 3777   5.918  11.198  10.749  0.5691 -0.4811  0.5580
  125bbb     O1 3778   5.323  11.117  10.701 -0.1067 -0.5180 -0.4472
  125bbb    H19 3779   5.621  11.341  10.946 -1.4477 -0.4369  1.3637
  126ccc     C1 3780   1.991   5.609   9.385 -0.3567 -0.5054 -0.2337
  126ccc     H1 3781   1.923   5.567   9.310  0.0189 -1.5137 -0.0259
  126ccc     H2 3782   1.943   5.654   9.472  0.3003 -1.0483  0.4161
  126ccc     C2 3783   2.065   5.724   9.315  0.0852  0.0745  0.2368
  126ccc     H3 3784   2.007   5.817   9.317 -0.7739 -0.4551  2.4882
  126ccc     H4 3785   2.069   5.699   9.208 -1.2601  1.3716 -0.1527
  126ccc     C3 3786   2.202   5.746   9.369  0.1854 -0.4569  0.2617
  126ccc     H5 3787   2.248   5.829   9.315 -1.2235  0.4363  0.3872
  126ccc     H6 3788   2.260   5.654   9.353 -0.9777 -1.7433  2.8707
  126ccc     N1 3789   2.221   5.791   9.516 -0.1317  0.1454 -0.3652
  126ccc     C4 3790   2.355   5.746   9.577  0.2976 -0.9903  0.2863
  126ccc     H7 3791   2.371   5.787   9.677  3.6289  0.2038 -0.6142
  126ccc     H8 3792   2.431   5.804   9.525 -1.4895  1.8421  0.5920
  126ccc     C5 3793   2.374   5.587   9.582 -0.4606 -0.8526  0.7663
  126ccc     H9 3794   2.309   5.538   9.655  1.2244 -1.1546  2.1449
  126ccc    H10 3795   2.352   5.535   9.488 -0.2070 -1.2373  0.9117
  126ccc     C6 3796   2.518   5.549   9.620  1.2975  0.5563 -0.7109
  126ccc     O1 3797   2.565   5.448   9.579  0.0799  0.3815  0.1662
  126ccc     O2 3798   2.574   5.636   9.713 -0.1208 -0.1758  0.1982
  126ccc    H11 3799   2.664   5.601   9.698 -0.6108 -1.1193 -0.7267
  126ccc     C7 3800   2.205   5.939   9.536  0.2629  1.0098 -0.0390
  126ccc    H12 3801   2.287   5.991   9.486 -1.4658  3.0709 -0.8662
  126ccc    H13 3802   2.122   5.966   9.471 -1.2996 -1.4809  0.7866
  126ccc     C8 3803   2.178   5.993   9.673 -0.1579 -0.5550 -0.6608
  126ccc    H14 3804   2.092   5.936   9.711 -0.2589 -0.4596 -0.7431
  126ccc    H15 3805   2.265   5.975   9.737  0.1796 -2.6424 -1.6236
  126ccc     C9 3806   2.158   6.148   9.672  0.1739 -0.0055  0.1606
  126ccc     O3 3807   2.229   6.226   9.734 -0.2851 -0.5647 -0.0729
  126ccc     O4 3808   2.078   6.192   9.575  0.3284  0.0728 -0.2567
  126ccc    H16 3809   2.075   6.288   9.592  0.3449  0.0513 -0.1288
  126ccc     O5 3810   2.086   5.517   9.440 -0.2926 -0.0837  1.2335
  126ccc    H17 3811   2.146   5.737   9.562  0.6273 -2.7474 -2.2176
  127ccc     C1 3812   2.312   4.793   9.042  0.1983 -0.5683 -0.4283
  127ccc     H1 3813   2.223   4.755   8.991 -0.9003  0.1619  0.8654
  127ccc     H2 3814   2.395   4.797   8.971  1.3440  1.2321  0.9161
  127ccc     C2 3815   2.345   4.719   9.178  0.5406  0.6507  0.2758
  127ccc     H3 3816   2.365   4.614   9.153  0.8307  0.9013 -0.5979
  127ccc     H4 3817   2.251   4.725   9.234  0.2898  2.6811 -0.2771
  127ccc     C3 3818   2.466   4.767   9.249 -0.6359  0.1622  0.0821
  127ccc     H5 3819   2.463   4.873   9.275 -0.6877 -0.0867  1.1163
  127ccc     H6 3820   2.549   4.753   9.179  1.5404 -1.0726  2.7364
  127ccc     N1 3821   2.500   4.691   9.380  0.1501  0.0253 -0.4248
  127ccc     C4 3822   2.644   4.736   9.415  0.1689 -0.0002  0.3029
  127ccc     H7 3823   2.651   4.843   9.437 -2.4419  0.1210  0.8621
  127ccc     H8 3824   2.707   4.723   9.327 -4.2082  0.4533 -3.2674
  127ccc     C5 3825   2.709   4.660   9.532  0.3943 -0.4446  0.3235
  127ccc     H9 3826   2.654   4.677   9.626 -0.6256  0.0100 -0.3334
  127ccc    H10 3827   2.711   4.556   9.498  0.3373 -0.3265 -0.0363
  127ccc     C6 3828   2.858   4.692   9.537  0.4475 -0.3141 -0.6127
  127ccc     O1 3829   2.915   4.759   9.455  0.0910  0.1134 -0.0714
  127ccc     O2 3830   2.916   4.633   9.645 -0.2325  0.4795  0.0698
  127ccc    H11 3831   2.842   4.590   9.691  1.4312 -2.4698  0.2275
  127ccc     C7 3832   2.400   4.729   9.485  0.3294 -0.4534  0.5158
  127ccc    H12 3833   2.304   4.689   9.452  0.2418 -0.9709  1.3629
  127ccc    H13 3834   2.436   4.689   9.580 -0.2916 -2.2882  0.0227
  127ccc     C8 3835   2.363   4.883   9.507 -0.5276  0.2698 -0.1285
  127ccc    H14 3836   2.453   4.945   9.519 -0.3619 -0.4890  3.4498
  127ccc    H15 3837   2.311   4.931   9.422 -1.7232  1.0761  1.0039
  127ccc     C9 3838   2.272   4.890   9.630  0.5369 -0.0668  0.0712
  127ccc     O3 3839   2.207   4.794   9.665 -0.0271 -0.3310  0.1201
  127ccc     O4 3840   2.250   5.008   9.684 -0.0474 -0.2144 -0.0542
  127ccc    H16 3841   2.325   5.057   9.645 -0.3363  0.3346  0.0677
  127ccc     O5 3842   2.274   4.927   9.081 -0.4191 -0.9499 -0.6104
  127ccc    H17 3843   2.503   4.589   9.364 -2.6684  0.0928 -1.9164
  128ccc     C1 3844   0.984   5.624   9.956  0.0756  0.2525  0.4685
  128ccc     H1 3845   1.064   5.572  10.011  0.7603  0.4187 -0.3622
  128ccc     H2 3846   0.980   5.731   9.978 -0.4266 -0.0268  1.8225
  128ccc     C2 3847   0.845   5.563  10.000 -0.0627 -0.8080 -0.0573
  128ccc     H3 3848   0.757   5.620   9.969 -0.2022 -1.0370 -0.0890
  128ccc     H4 3849   0.838   5.558  10.109  1.6430  1.2802  0.2095
  128ccc     C3 3850   0.830   5.415   9.962 -0.2481 -0.2286 -0.1299
  128ccc     H5 3851   0.848   5.406   9.855  0.2306  1.1698 -0.1870
  128ccc     H6 3852   0.723   5.400   9.972 -0.9020  1.7640 -3.0038
  128ccc     N1 3853   0.921   5.313  10.043 -0.1417  0.1435 -0.6427
  128ccc     C4 3854   0.833   5.236  10.145  0.1505 -0.0529  0.4444
  128ccc     H7 3855   0.765   5.308  10.191  0.6468  0.3848  0.5028
  128ccc     H8 3856   0.895   5.181  10.216 -1.3203 -1.1461  0.9318
  128ccc     C5 3857   0.726   5.143  10.074  0.0409 -1.2449 -0.6364
  128ccc     H9 3858   0.657   5.198  10.008 -0.2519 -0.0247  0.6421
  128ccc    H10 3859   0.768   5.062  10.013  1.7064  0.3880 -1.7632
  128ccc     C6 3860   0.636   5.066  10.181  0.0122 -0.1832  0.5625
  128ccc     O1 3861   0.606   5.109  10.290 -0.4950  0.2219  0.0379
  128ccc     O2 3862   0.583   4.948  10.146  0.2104 -0.2607 -0.0310
  128ccc    H11 3863   0.523   4.923  10.219 -2.1246  1.0334 -1.3873
  128ccc     C7 3864   1.001   5.218   9.950  0.1706 -0.0282 -0.7738
  128ccc    H12 3865   0.939   5.141   9.905  0.3832 -0.6120 -0.0815
  128ccc    H13 3866   1.042   5.281   9.871  0.5597 -0.3631 -0.8420
  128ccc     C8 3867   1.120   5.155  10.022  0.0453 -0.6134  0.0538
  128ccc    H14 3868   1.080   5.107  10.112  1.6067 -0.0460  1.1025
  128ccc    H15 3869   1.155   5.067   9.966  0.6968 -0.3182 -0.0189
  128ccc     C9 3870   1.229   5.255  10.062  0.6765 -0.3352 -0.0562
  128ccc     O3 3871   1.247   5.368  10.013 -0.5112 -0.0312 -0.1161
  128ccc     O4 3872   1.339   5.192  10.089  0.4360 -0.5864 -0.2255
  128ccc    H16 3873   1.306   5.107  10.121 -0.6230  0.4821  1.7387
  128ccc     O5 3874   0.986   5.606   9.816 -0.0047  0.2136  0.5640
  128ccc    H17 3875   0.986   5.366  10.102  0.2171  0.8331 -1.6243
  129ccc     C1 3876   0.558   5.479   9.185  0.7490  0.2402 -1.0611
  129ccc     H1 3877   0.547   5.585   9.159 -1.7886  0.1499 -0.6232
  129ccc     H2 3878   0.586   5.421   9.096 -0.1609 -1.9911  0.0273
  129ccc     C2 3879   0.421   5.430   9.233  0.6817 -0.5525 -0.1774
  129ccc     H3 3880   0.346   5.476   9.169 -1.7717  0.1788  2.9572
  129ccc     H4 3881   0.407   5.457   9.339  1.7745  0.9918 -0.3924
  129ccc     C3 3882   0.409   5.275   9.229  0.2959 -0.1656 -0.1234
  129ccc     H5 3883   0.498   5.232   9.274 -1.2754 -1.7449  1.6264
  129ccc     H6 3884   0.419   5.243   9.125 -1.1048  1.0323 -0.6712
  129ccc     N1 3885   0.277   5.228   9.292  0.4419 -0.5643 -0.6179
  129ccc     C4 3886   0.230   5.093   9.244  0.3022 -0.1305  0.5026
  129ccc     H7 3887   0.144   5.075   9.308 -0.3906  1.3247  0.0148
  129ccc     H8 3888   0.306   5.016   9.259  1.4942  0.6160 -1.3467
  129ccc     C5 3889   0.181   5.105   9.093 -0.2867 -0.6469  0.4198
  129ccc     H9 3890   0.101   5.180   9.082  0.9856  0.7091 -0.0001
  129ccc    H10 3891   0.256   5.131   9.018 -1.2202 -0.3159 -0.4280
  129ccc     C6 3892   0.129   4.969   9.037  1.0645  0.1225 -0.2724
  129ccc     O1 3893   0.108   4.875   9.111 -0.0854 -0.7454  0.4442
  129ccc     O2 3894   0.109   4.959   8.901 -0.9869  0.4614 -0.6219
  129ccc    H11 3895   0.076   4.868   8.911  0.7747 -0.0846  0.7912
  129ccc     C7 3896   0.294   5.230   9.447 -0.7326  0.1131  0.1567
  129ccc    H12 3897   0.361   5.151   9.482  0.8981  2.2762  2.2913
  129ccc    H13 3898   0.355   5.315   9.477 -0.3561  0.7357 -2.1310
  129ccc     C8 3899   0.166   5.223   9.521 -0.3840 -0.2035 -0.6218
  129ccc    H14 3900   0.102   5.312   9.509  0.6940  0.4431 -1.7809
  129ccc    H15 3901   0.096   5.150   9.480 -0.8169 -0.1339 -0.0249
  129ccc     C9 3902   0.184   5.190   9.668  0.2817  0.2436 -0.4772
  129ccc     O3 3903   0.289   5.193   9.721 -0.0159  0.3167 -0.1735
  129ccc     O4 3904   0.077   5.158   9.729  0.0267 -0.5141 -0.3397
  129ccc    H16 3905   0.110   5.138   9.818 -0.3232 -1.5108 -0.4222
  129ccc     O5 3906   0.655   5.463   9.290  0.2246  0.0027 -0.5034
  129ccc    H17 3907   0.202   5.297   9.277 -0.6767 -1.2149  1.5581
  130ccc     C1 3908   1.422   4.808   7.234 -0.3365  0.5720 -0.7140
  130ccc     H1 3909   1.317   4.826   7.260 -0.3534  0.6467 -0.8346
  130ccc     H2 3910   1.423   4.828   7.126  0.8981  0.1455 -0.8000
  130ccc     C2 3911   1.461   4.666   7.263  0.2146  0.2844  0.1261
  130ccc     H3 3912   1.469   4.644   7.370  2.7761 -0.3291 -0.1131
  130ccc     H4 3913   1.562   4.652   7.223 -0.3949 -0.0817 -1.3394
  130ccc     C3 3914   1.363   4.568   7.202  0.0209 -0.1939 -0.6140
  130ccc     H5 3915   1.358   4.571   7.093  0.6543 -2.3882 -0.7467
  130ccc     H6 3916   1.267   4.598   7.244  0.0746 -1.1132  0.1726
  130ccc     N1 3917   1.380   4.419   7.238 -0.4023 -0.2814 -0.3918
  130ccc     C4 3918   1.355   4.395   7.385 -0.3723 -0.1024 -0.3204
  130ccc     H7 3919   1.398   4.477   7.442 -2.4642 -0.2892  1.6776
  130ccc     H8 3920   1.409   4.309   7.425 -0.9114 -1.0668 -1.5896
  130ccc     C5 3921   1.211   4.378   7.426 -0.1502  0.7924 -0.7347
  130ccc     H9 3922   1.154   4.450   7.365  0.4495  2.2588  0.3828
  130ccc    H10 3923   1.174   4.278   7.397 -4.3607  1.7601  0.6281
  130ccc     C6 3924   1.182   4.415   7.574  0.3669  0.2098 -0.5155
  130ccc     O1 3925   1.277   4.426   7.649  0.0403  0.5315  0.0838
  130ccc     O2 3926   1.055   4.451   7.606 -0.1901  0.3562  0.4492
  130ccc    H11 3927   1.006   4.435   7.524 -1.5492 -0.4490  1.3667
  130ccc     C7 3928   1.311   4.323   7.146 -0.1188 -0.2904  0.2276
  130ccc    H12 3929   1.208   4.302   7.176  0.1000  0.9981  2.0306
  130ccc    H13 3930   1.321   4.374   7.050  1.8712  0.7978  0.9564
  130ccc     C8 3931   1.370   4.177   7.137 -0.6030 -0.6683  0.7467
  130ccc    H14 3932   1.479   4.177   7.126 -0.6651  0.0572  0.0510
  130ccc    H15 3933   1.352   4.109   7.221 -1.7956 -1.5656 -0.1927
  130ccc     C9 3934   1.324   4.102   7.009 -0.1132  0.3787 -0.5373
  130ccc     O3 3935   1.290   4.150   6.906  0.2360 -0.0759  0.0736
  130ccc     O4 3936   1.316   3.974   7.020 -0.1374  0.2057 -0.0952
  130ccc    H16 3937   1.266   3.955   6.938 -0.5626  1.2627 -0.0966
  130ccc     O5 3938   1.509   4.888   7.321  0.1327  0.0779  1.0359
  130ccc    H17 3939   1.482   4.401   7.236 -0.4987 -1.2424  1.4666
  131ccc     C1 3940   1.966   4.850   8.031 -0.1446 -0.2602 -0.1168
  131ccc     H1 3941   1.970   4.741   8.027 -1.0079 -0.5224  3.0508
  131ccc     H2 3942   2.043   4.897   7.969  0.3547  1.6105  1.8050
  131ccc     C2 3943   1.976   4.902   8.179  0.4325  0.3450  0.8904
  131ccc     H3 3944   2.072   4.868   8.221  0.6954 -0.0358  0.0022
  131ccc     H4 3945   1.899   4.863   8.247 -0.3389  0.4058  0.0667
  131ccc     C3 3946   1.973   5.053   8.171  0.2493  0.0130 -0.4543
  131ccc     H5 3947   1.876   5.083   8.132 -0.0333 -2.3187 -1.7146
  131ccc     H6 3948   2.044   5.096   8.101  1.2504  1.2476  1.2340
  131ccc     N1 3949   1.993   5.120   8.310  0.4581 -0.0999  0.0587
  131ccc     C4 3950   2.041   5.266   8.297 -0.7208  0.0514 -0.5109
  131ccc     H7 3951   2.052   5.292   8.403  1.3546 -0.2903 -0.5979
  131ccc     H8 3952   1.962   5.331   8.259  0.2357  1.5645  0.0053
  131ccc     C5 3953   2.179   5.304   8.231 -0.1944  0.6424  0.6735
  131ccc     H9 3954   2.254   5.237   8.276  0.1106  0.7723  0.3600
  131ccc    H10 3955   2.161   5.288   8.124 -1.1480  1.3363  0.7230
  131ccc     C6 3956   2.213   5.447   8.248  0.8885 -0.0177  0.5895
  131ccc     O1 3957   2.140   5.536   8.294  0.6055 -0.4429  0.1137
  131ccc     O2 3958   2.311   5.485   8.178 -0.0140 -0.1305  0.8854
  131ccc    H11 3959   2.341   5.405   8.132  0.5665  0.9458 -0.7158
  131ccc     C7 3960   1.876   5.107   8.398  0.6952 -0.2456 -0.1213
  131ccc    H12 3961   1.862   5.000   8.416 -1.1946  0.3790  2.8841
  131ccc    H13 3962   1.895   5.160   8.491  1.9128 -0.3274 -0.3051
  131ccc     C8 3963   1.743   5.150   8.334 -0.0473 -0.1056  0.0596
  131ccc    H14 3964   1.755   5.243   8.278  0.7039 -0.1227  0.1842
  131ccc    H15 3965   1.708   5.072   8.264 -0.3704  0.1798 -0.1012
  131ccc     C9 3966   1.632   5.177   8.436 -0.0093  0.0322 -0.2700
  131ccc     O3 3967   1.575   5.088   8.498 -0.1263 -0.1202  0.3512
  131ccc     O4 3968   1.656   5.290   8.498 -0.1602 -0.2642  0.0212
  131ccc    H16 3969   1.707   5.349   8.441  0.9110 -1.9882 -0.8691
  131ccc     O5 3970   1.839   4.891   7.983  0.1394 -0.0921  0.0462
  131ccc    H17 3971   2.067   5.064   8.355  1.4291  0.4530 -0.8149
  132ccc     C1 3972   0.642   5.130   8.139  0.5073  0.1129  0.1879
  132ccc     H1 3973   0.622   5.035   8.190 -0.5578  0.0006 -0.3968
  132ccc     H2 3974   0.549   5.188   8.145  0.7907  0.4818  1.2278
  132ccc     C2 3975   0.676   5.094   7.992 -0.1563 -0.7234 -0.1770
  132ccc     H3 3976   0.612   5.011   7.959  0.3102 -0.8274 -0.8477
  132ccc     H4 3977   0.774   5.044   7.988 -0.4625 -1.6318  2.2260
  132ccc     C3 3978   0.664   5.226   7.907  0.4296 -0.0453  0.5452
  132ccc     H5 3979   0.718   5.313   7.945 -1.3281  1.5833 -0.5033
  132ccc     H6 3980   0.559   5.257   7.907  0.9192  1.9545 -1.7498
  132ccc     N1 3981   0.704   5.217   7.766 -0.2395 -0.4538  1.0539
  132ccc     C4 3982   0.579   5.177   7.688  0.0607  0.1035  0.5951
  132ccc     H7 3983   0.511   5.261   7.676  0.7642  0.5612 -0.2705
  132ccc     H8 3984   0.529   5.098   7.745  0.1914 -0.3947  0.0242
  132ccc     C5 3985   0.617   5.115   7.547 -0.0311 -0.2002 -0.3266
  132ccc     H9 3986   0.650   5.195   7.480 -0.2024  2.4229  2.4824
  132ccc    H10 3987   0.686   5.030   7.551 -0.4572 -0.5700 -0.7709
  132ccc     C6 3988   0.485   5.075   7.476 -0.2895  0.5656  0.7735
  132ccc     O1 3989   0.413   5.153   7.418 -0.5526  0.6798  0.8132
  132ccc     O2 3990   0.464   4.945   7.474 -0.1255  1.2536 -0.2806
  132ccc    H11 3991   0.371   4.943   7.446  0.4907  1.2898 -2.4892
  132ccc     C7 3992   0.744   5.358   7.708  0.0305  0.4661  0.0404
  132ccc    H12 3993   0.728   5.363   7.600  0.5775  0.0623 -0.0642
  132ccc    H13 3994   0.681   5.436   7.750  0.2482  1.9457 -2.2237
  132ccc     C8 3995   0.886   5.392   7.742 -0.0369  0.0032  0.5564
  132ccc    H14 3996   0.887   5.425   7.847  1.2385 -0.7206  0.7880
  132ccc    H15 3997   0.951   5.305   7.728  0.0031 -0.1748  1.6948
  132ccc     C9 3998   0.956   5.494   7.645  0.2931  0.2778  0.1389
  132ccc     O3 3999   0.890   5.573   7.577  0.8974 -0.2776  0.3272
  132ccc     O4 4000   1.083   5.466   7.618  0.7737 -0.1350 -0.4408
  132ccc    H16 4001   1.096   5.539   7.555  1.6917 -0.2512 -0.3948
  132ccc     O5 4002   0.747   5.205   8.198 -0.6628 -0.1605 -0.1007
  132ccc    H17 4003   0.776   5.146   7.750 -1.1877 -0.6424 -4.0208
  133ccc     C1 4004   0.160   5.750   8.449 -0.7181  0.1589  0.6553
  133ccc     H1 4005   0.086   5.691   8.504  0.6080  0.2222  2.6336
  133ccc     H2 4006   0.178   5.841   8.508  1.6186 -0.9799  1.8363
  133ccc     C2 4007   0.132   5.769   8.297 -0.1237 -0.4530  0.5241
  133ccc     H3 4008   0.040   5.829   8.285 -0.0935 -0.4504  0.3044
  133ccc     H4 4009   0.111   5.672   8.251 -0.8292  0.5397 -1.3451
  133ccc     C3 4010   0.244   5.854   8.226 -0.2115 -0.1293  1.5266
  133ccc     H5 4011   0.328   5.791   8.198 -0.2171  0.5369 -0.1333
  133ccc     H6 4012   0.278   5.937   8.289 -0.5485  0.4841  0.9245
  133ccc     N1 4013   0.199   5.926   8.097 -0.6373  0.1831 -0.2098
  133ccc     C4 4014   0.076   6.008   8.099 -0.5474  0.0890 -0.1975
  133ccc     H7 4015  -0.001   5.955   8.156  1.1125  0.2273  2.3355
  133ccc     H8 4016   0.043   6.018   7.995 -2.0414 -2.2601 -0.0247
  133ccc     C5 4017   0.101   6.145   8.159  0.4699 -0.3358  0.4037
  133ccc     H9 4018   0.144   6.125   8.258 -1.2537 -0.1022  1.2371
  133ccc    H10 4019   0.176   6.210   8.111 -0.8551  0.3884 -0.7744
  133ccc     C6 4020  -0.031   6.222   8.188  0.6866  0.2236 -0.7099
  133ccc     O1 4021  -0.134   6.219   8.120 -0.0152 -0.2041  0.2206
  133ccc     O2 4022  -0.025   6.297   8.295  0.2191 -0.4259  0.0067
  133ccc    H11 4023  -0.102   6.357   8.285  2.0416  1.9876 -0.3626
  133ccc     C7 4024   0.324   5.986   8.031 -1.0693 -0.0252  0.4985
  133ccc    H12 4025   0.371   6.063   8.092 -0.9451 -0.1944  0.6149
  133ccc    H13 4026   0.395   5.904   8.030  0.1882  0.8869 -3.2608
  133ccc     C8 4027   0.305   6.024   7.880  0.0363 -0.4447 -0.2458
  133ccc    H14 4028   0.247   5.942   7.836 -0.3417  0.3212 -1.2175
  133ccc    H15 4029   0.241   6.113   7.870  0.7153 -0.2037 -3.2458
  133ccc     C9 4030   0.444   6.043   7.814  0.2263  0.2216 -0.3703
  133ccc     O3 4031   0.555   6.025   7.867  0.6776  0.0314 -0.9115
  133ccc     O4 4032   0.432   6.052   7.684  0.2208  0.9191 -0.1359
  133ccc    H16 4033   0.518   6.024   7.648  0.5494  1.2680  0.3591
  133ccc     O5 4034   0.274   5.671   8.460 -0.0782 -0.5213  0.1604
  133ccc    H17 4035   0.179   5.848   8.033 -0.5369 -0.2101  0.2323
  134ccc     C1 4036  -0.221   8.132   8.390 -0.1788  0.3991  0.2917
  134ccc     H1 4037  -0.318   8.126   8.442 -0.3976 -0.2027 -0.1813
  134ccc     H2 4038  -0.174   8.222   8.432  0.7061  0.8604 -1.6061
  134ccc     C2 4039  -0.227   8.157   8.239 -0.2927 -0.5674  0.2577
  134ccc     H3 4040  -0.129   8.191   8.203 -0.8859  0.4368 -0.4720
  134ccc     H4 4041  -0.290   8.245   8.222  0.3823 -0.2444 -0.6658
  134ccc     C3 4042  -0.279   8.042   8.152 -0.5397  0.1618 -0.6677
  134ccc     H5 4043  -0.379   8.009   8.179 -0.7328  0.0782 -1.4458
  134ccc     H6 4044  -0.223   7.950   8.172  0.1837  0.1082 -2.6756
  134ccc     N1 4045  -0.282   8.081   7.997 -0.1733  0.2074  0.0118
  134ccc     C4 4046  -0.139   8.102   7.939 -0.2759  0.8482 -0.8395
  134ccc     H7 4047  -0.079   8.014   7.961  0.5852  0.8694 -2.8403
  134ccc     H8 4048  -0.097   8.187   7.993 -3.0474  0.1643  2.7380
  134ccc     C5 4049  -0.144   8.141   7.791  0.1476  0.6628 -0.0288
  134ccc     H9 4050  -0.146   8.041   7.747 -0.0057 -0.2122  1.8899
  134ccc    H10 4051  -0.234   8.197   7.761  0.6129  0.3328 -2.2255
  134ccc     C6 4052  -0.022   8.202   7.736 -0.1131 -0.0561 -0.1261
  134ccc     O1 4053   0.087   8.200   7.792 -0.5537  0.0975  0.1327
  134ccc     O2 4054  -0.033   8.271   7.620  0.4697 -0.3086  0.4912
  134ccc    H11 4055  -0.124   8.247   7.595  0.4858 -1.2298  1.2349
  134ccc     C7 4056  -0.352   7.968   7.922  0.6925  0.1881  0.7450
  134ccc    H12 4057  -0.335   7.978   7.815 -0.8933 -0.7053  0.3859
  134ccc    H13 4058  -0.293   7.878   7.942  0.3766 -0.1882  0.0010
  134ccc     C8 4059  -0.508   7.966   7.942 -0.2150 -0.8372 -0.0626
  134ccc    H14 4060  -0.527   7.962   8.050 -2.1148 -1.0371 -0.3761
  134ccc    H15 4061  -0.561   8.051   7.899  1.5244  1.4323  1.9576
  134ccc     C9 4062  -0.554   7.838   7.870  0.1866 -0.4968 -0.5068
  134ccc     O3 4063  -0.490   7.773   7.784  0.4253 -0.2474 -0.0754
  134ccc     O4 4064  -0.675   7.808   7.897 -0.3805 -0.2826 -0.0145
  134ccc    H16 4065  -0.703   7.874   7.963  0.3990  0.8052 -0.7369
  134ccc     O5 4066  -0.134   8.018   8.399  0.3250  0.3086  0.4657
  134ccc    H17 4067  -0.331   8.170   7.983  1.3550  1.2731  1.1536
  135ccc     C1 4068   0.288   7.830   8.834  0.5198 -0.2086 -0.6635
  135ccc     H1 4069   0.331   7.736   8.871  0.5451  0.4011  0.9273
  135ccc     H2 4070   0.356   7.910   8.867  0.0471  0.9887 -2.4760
  135ccc     C2 4071   0.148   7.833   8.893 -0.0697 -0.2921  0.0004
  135ccc     H3 4072   0.087   7.765   8.832  1.6204  0.2667 -2.4223
  135ccc     H4 4073   0.097   7.930   8.884 -1.1945 -0.8527  0.0722
  135ccc     C3 4074   0.143   7.800   9.043  0.1060 -0.4586  0.3462
  135ccc     H5 4075   0.194   7.883   9.094  1.9510  0.0963 -2.1957
  135ccc     H6 4076   0.181   7.698   9.049  0.7499 -0.4153 -2.0199
  135ccc     N1 4077  -0.001   7.793   9.105  0.2469 -0.0868 -0.2406
  135ccc     C4 4078  -0.001   7.701   9.230  0.2188  0.2147  0.5402
  135ccc     H7 4079  -0.076   7.726   9.304 -1.2262 -0.5376 -0.6268
  135ccc     H8 4080   0.093   7.717   9.284 -0.1774 -0.9389  1.6280
  135ccc     C5 4081  -0.024   7.551   9.195  0.0542  0.0361 -0.3627
  135ccc     H9 4082  -0.129   7.545   9.164 -0.0690  2.5262 -0.6472
  135ccc    H10 4083   0.044   7.537   9.110 -1.5321  1.3505 -1.9307
  135ccc     C6 4084   0.012   7.456   9.305 -0.4990 -0.0586 -0.2752
  135ccc     O1 4085   0.088   7.490   9.392  0.0316  0.5682  0.4228
  135ccc     O2 4086  -0.061   7.343   9.302 -0.1212  0.4266  0.3347
  135ccc    H11 4087  -0.139   7.336   9.244 -0.7813 -1.2463  1.3473
  135ccc     C7 4088  -0.045   7.935   9.136 -0.4185 -0.2542 -0.0331
  135ccc    H12 4089   0.007   7.978   9.222 -2.0973  1.2268  0.2934
  135ccc    H13 4090  -0.009   8.000   9.057  2.3052 -1.3188  0.2369
  135ccc     C8 4091  -0.195   7.931   9.173 -0.3482 -0.0088 -0.0029
  135ccc    H14 4092  -0.259   7.877   9.103  0.6297 -1.0058 -0.1404
  135ccc    H15 4093  -0.211   7.881   9.269  0.5415  1.3876  0.9109
  135ccc     C9 4094  -0.251   8.075   9.185 -0.3539  0.3217 -0.5613
  135ccc     O3 4095  -0.196   8.171   9.134  0.1635 -0.1554  0.2665
  135ccc     O4 4096  -0.360   8.076   9.263 -0.1844 -0.3146  0.5580
  135ccc    H16 4097  -0.387   8.169   9.251  0.7315 -0.1892 -0.8216
  135ccc     O5 4098   0.259   7.823   8.695 -0.2172  0.4126  0.6449
  135ccc    H17 4099  -0.064   7.750   9.037 -3.1412  1.0569  1.9070
  136ccc     C1 4100   0.116   6.207   9.240 -0.2439  0.7157  0.0013
  136ccc     H1 4101   0.011   6.234   9.223 -0.4745  0.0327  0.2974
  136ccc     H2 4102   0.167   6.191   9.145  1.8319  1.9358  0.8471
  136ccc     C2 4103   0.121   6.093   9.341  0.1365  0.0596  0.4000
  136ccc     H3 4104   0.058   6.009   9.309 -0.7816  1.1794 -0.8571
  136ccc     H4 4105   0.070   6.128   9.432 -0.3390  1.1189 -0.2450
  136ccc     C3 4106   0.267   6.059   9.379 -0.1552  0.1636  0.0254
  136ccc     H5 4107   0.309   6.159   9.385 -1.9259  1.0858 -1.9763
  136ccc     H6 4108   0.320   6.007   9.300  1.4038  0.7211  0.6712
  136ccc     N1 4109   0.292   5.988   9.513  0.6376  0.0750  0.3532
  136ccc     C4 4110   0.230   6.051   9.641  0.0440 -0.0111 -0.4130
  136ccc     H7 4111   0.280   6.017   9.732 -1.3727 -2.5397 -0.5053
  136ccc     H8 4112   0.123   6.029   9.638 -0.0970  0.6058 -0.1416
  136ccc     C5 4113   0.247   6.205   9.644  0.3273  0.0083 -0.1792
  136ccc     H9 4114   0.339   6.243   9.598  1.2350  0.0920  1.5829
  136ccc    H10 4115   0.152   6.242   9.604 -0.1801 -0.4428  0.5831
  136ccc     C6 4116   0.256   6.268   9.779 -0.3985  0.1911 -0.0157
  136ccc     O1 4117   0.184   6.350   9.824 -0.3690  0.3292  0.4914
  136ccc     O2 4118   0.363   6.234   9.844  0.1242 -0.5474  0.1054
  136ccc    H11 4119   0.356   6.279   9.930 -0.2945 -0.7925  0.2000
  136ccc     C7 4120   0.250   5.840   9.486 -0.3897 -0.0112 -0.2685
  136ccc    H12 4121   0.147   5.834   9.450 -0.2763 -0.7956 -0.4906
  136ccc    H13 4122   0.310   5.805   9.402  0.8349 -1.4569  1.1543
  136ccc     C8 4123   0.262   5.748   9.602 -0.1093  0.0180 -0.2132
  136ccc    H14 4124   0.329   5.777   9.684  0.8822  1.5331 -1.4772
  136ccc    H15 4125   0.160   5.741   9.640 -0.9848  0.3631 -2.3390
  136ccc     C9 4126   0.307   5.612   9.562  0.3669  0.0942  0.0240
  136ccc     O3 4127   0.232   5.517   9.533  0.4159 -0.1914 -0.1498
  136ccc     O4 4128   0.435   5.581   9.588  0.2244  0.6214 -0.2843
  136ccc    H16 4129   0.481   5.666   9.583 -0.1097  0.7462 -1.9573
  136ccc     O5 4130   0.184   6.322   9.286 -0.2662 -0.0344  0.4867
  136ccc    H17 4131   0.395   5.993   9.527  0.5069 -1.8655  2.7232
  137ccc     C1 4132   0.074   6.760   9.760 -0.6249 -0.2811 -0.5541
  137ccc     H1 4133   0.018   6.667   9.776 -0.4869 -0.0998  1.1794
  137ccc     H2 4134   0.107   6.810   9.852  0.5633  2.0531 -2.1458
  137ccc     C2 4135  -0.006   6.867   9.695 -0.1294  0.0073  0.0174
  137ccc     H3 4136  -0.108   6.873   9.737  0.1338  0.1990  0.6398
  137ccc     H4 4137  -0.025   6.838   9.591 -0.0197 -0.2574  0.0707
  137ccc     C3 4138   0.049   7.015   9.723  0.1204  0.7608 -0.1731
  137ccc     H5 4139   0.156   7.006   9.743 -0.0762 -2.8464 -0.0289
  137ccc     H6 4140   0.002   7.058   9.811  3.4168  3.0620  0.6380
  137ccc     N1 4141   0.033   7.120   9.605 -0.0241  0.2536 -0.6740
  137ccc     C4 4142   0.110   7.060   9.486  0.5019  0.0875  0.4496
  137ccc     H7 4143   0.038   7.040   9.406  2.1529  1.2166 -1.4485
  137ccc     H8 4144   0.146   6.962   9.514 -1.1181 -0.5388  0.4604
  137ccc     C5 4145   0.238   7.146   9.452  0.7969 -0.6587 -0.4139
  137ccc     H9 4146   0.215   7.245   9.410  2.2325 -0.4563 -0.7984
  137ccc    H10 4147   0.290   7.160   9.547  1.1972  0.5693 -0.8045
  137ccc     C6 4148   0.320   7.075   9.352  0.1666  0.3004  0.2218
  137ccc     O1 4149   0.285   6.972   9.301 -0.3113 -0.0629 -0.9207
  137ccc     O2 4150   0.425   7.134   9.309  0.2010  0.1940  0.9450
  137ccc    H11 4151   0.450   7.078   9.233  1.0790 -0.7226  1.8791
  137ccc     C7 4152  -0.106   7.137   9.567  0.5695  0.2368  0.4785
  137ccc    H12 4153  -0.107   7.187   9.469 -1.6236  0.9326  0.7912
  137ccc    H13 4154  -0.143   7.035   9.555  2.9395 -0.5575 -0.6505
  137ccc     C8 4155  -0.181   7.222   9.669  0.1998  0.2121  1.0694
  137ccc    H14 4156  -0.210   7.165   9.758 -1.5168 -1.7983 -0.6458
  137ccc    H15 4157  -0.109   7.300   9.693  1.0501 -0.3397  0.3994
  137ccc     C9 4158  -0.306   7.284   9.611 -0.3362 -0.1085 -0.3846
  137ccc     O3 4159  -0.321   7.401   9.613  0.1527  0.4332 -0.2438
  137ccc     O4 4160  -0.391   7.206   9.536 -0.2699  0.1263 -0.2337
  137ccc    H16 4161  -0.379   7.118   9.576  1.7632  0.2227 -0.5229
  137ccc     O5 4162   0.184   6.734   9.676 -0.3217 -0.0248  0.3211
  137ccc    H17 4163   0.072   7.210   9.636 -0.4424  0.6249 -1.2124
  138ccc     C1 4164   1.163   8.816   9.532  0.3763 -0.0905  0.3576
  138ccc     H1 4165   1.126   8.753   9.614 -2.7395  2.4953  1.1645
  138ccc     H2 4166   1.255   8.779   9.487  1.3004  2.3646  0.0541
  138ccc     C2 4167   1.186   8.956   9.590  0.5911 -0.0278  0.2261
  138ccc     H3 4168   1.099   8.980   9.652  0.5056 -1.6560  0.7763
  138ccc     H4 4169   1.195   9.029   9.508 -0.1559  0.0374  0.1981
  138ccc     C3 4170   1.307   8.962   9.682  0.2643 -0.2246 -0.7304
  138ccc     H5 4171   1.395   8.943   9.620  0.2994  1.1846 -1.1577
  138ccc     H6 4172   1.299   8.891   9.764  2.0606 -0.0015 -0.3180
  138ccc     N1 4173   1.323   9.104   9.751 -0.2193  0.0208  0.7365
  138ccc     C4 4174   1.431   9.085   9.860 -0.0143  0.8157 -0.6625
  138ccc     H7 4175   1.514   9.153   9.844 -0.4138  0.8848 -2.7929
  138ccc     H8 4176   1.478   8.987   9.856  2.7719  2.0732 -0.9503
  138ccc     C5 4177   1.378   9.101  10.012 -0.4814  0.0611  0.1590
  138ccc     H9 4178   1.338   9.203  10.023 -0.3933  0.0323  0.7634
  138ccc    H10 4179   1.293   9.035  10.028 -1.5146  0.6186 -2.4657
  138ccc     C6 4180   1.479   9.078  10.114 -0.5472 -0.0333  0.1019
  138ccc     O1 4181   1.593   9.028  10.097  0.2158  0.1996  0.0003
  138ccc     O2 4182   1.423   9.059  10.233  0.5462 -0.2310 -0.5051
  138ccc    H11 4183   1.336   9.103  10.231  0.4799 -0.2764  0.6652
  138ccc     C7 4184   1.357   9.215   9.645 -0.2102 -0.1443 -0.5122
  138ccc    H12 4185   1.447   9.173   9.601  0.9443 -1.6111  2.8868
  138ccc    H13 4186   1.269   9.219   9.581 -1.5895 -0.0189  1.2909
  138ccc     C8 4187   1.393   9.357   9.694  0.2465  0.2287  0.4782
  138ccc    H14 4188   1.318   9.398   9.763  0.2152  0.2670  0.4219
  138ccc    H15 4189   1.487   9.343   9.749 -0.3400  1.5180  1.8635
  138ccc     C9 4190   1.415   9.459   9.585 -0.4385  1.0485  0.3124
  138ccc     O3 4191   1.471   9.441   9.482  0.0421  0.2438  0.2573
  138ccc     O4 4192   1.393   9.586   9.622  0.2086  0.2322  0.2982
  138ccc    H16 4193   1.390   9.641   9.542  1.0109  0.2879  0.3016
  138ccc     O5 4194   1.072   8.838   9.422 -0.3916  0.5686 -0.1960
  138ccc    H17 4195   1.234   9.126   9.797 -1.4379 -0.5319 -1.2479
  139ccc     C1 4196   0.406   9.301   9.376  0.3434  0.5991 -0.9243
  139ccc     H1 4197   0.328   9.330   9.304  0.1570  1.1745 -0.4924
  139ccc     H2 4198   0.367   9.234   9.453  2.0257  1.5706  0.8519
  139ccc     C2 4199   0.468   9.429   9.439 -0.2274  0.1134  0.5540
  139ccc     H3 4200   0.500   9.503   9.364 -1.2073  0.2756  0.2773
  139ccc     H4 4201   0.547   9.383   9.500 -0.0619 -0.2521  0.0766
  139ccc     C3 4202   0.373   9.476   9.553  0.4345  0.2126 -0.1401
  139ccc     H5 4203   0.354   9.386   9.611 -0.2033  0.8093  0.5974
  139ccc     H6 4204   0.286   9.522   9.505  0.4093  2.2289  1.7035
  139ccc     N1 4205   0.435   9.576   9.646 -0.1202  0.3843 -0.0604
  139ccc     C4 4206   0.485   9.699   9.576 -0.0650 -0.4888 -0.0024
  139ccc     H7 4207   0.549   9.667   9.493  0.8458  2.0268 -0.3603
  139ccc     H8 4208   0.542   9.761   9.645  1.9412 -2.5206  0.2656
  139ccc     C5 4209   0.376   9.798   9.514 -0.2912 -0.0182  0.4169
  139ccc     H9 4210   0.310   9.740   9.449 -0.4330 -1.0595  1.4540
  139ccc    H10 4211   0.313   9.839   9.593 -2.1207 -0.1550 -0.9098
  139ccc     C6 4212   0.432   9.913   9.436  0.0548 -0.3624  0.0744
  139ccc     O1 4213   0.479   9.908   9.324  0.4726 -0.4996  0.0485
  139ccc     O2 4214   0.461  10.025   9.514 -0.0834  0.1593  0.1053
  139ccc    H11 4215   0.508  10.083   9.452  0.5418  0.0567  0.4704
  139ccc     C7 4216   0.342   9.617   9.752  0.5847 -0.4974  0.7112
  139ccc    H12 4217   0.358   9.724   9.768  0.8215 -0.4632  0.2656
  139ccc    H13 4218   0.238   9.608   9.718  0.5220  1.2319  0.3213
  139ccc     C8 4219   0.362   9.546   9.882 -0.2259  0.0476  1.0127
  139ccc    H14 4220   0.403   9.446   9.860 -0.9285 -0.2854  1.1901
  139ccc    H15 4221   0.443   9.598   9.934 -1.3241 -0.1623  3.0319
  139ccc     C9 4222   0.247   9.538   9.977 -0.1797  0.5784  0.2495
  139ccc     O3 4223   0.150   9.614   9.985  0.0947  0.1675  0.6126
  139ccc     O4 4224   0.239   9.415  10.038  0.0910  0.8925  0.3723
  139ccc    H16 4225   0.150   9.428  10.076 -1.1023 -0.2842 -1.8121
  139ccc     O5 4226   0.510   9.224   9.312  0.2808 -0.1091  0.2855
  139ccc    H17 4227   0.512   9.528   9.695 -0.2549  0.3467  0.1174
  140ccc     C1 4228   0.552   9.132   8.151 -0.6282 -0.2747 -0.6190
  140ccc     H1 4229   0.543   9.184   8.055 -0.4021  1.0569  0.0594
  140ccc     H2 4230   0.462   9.129   8.214  0.2106 -1.1532  0.5828
  140ccc     C2 4231   0.672   9.186   8.235 -0.1307  0.1624  0.5008
  140ccc     H3 4232   0.664   9.294   8.252 -0.8922 -0.3800  4.8671
  140ccc     H4 4233   0.768   9.174   8.185 -0.0356  0.3237  0.6435
  140ccc     C3 4234   0.683   9.118   8.370  0.2861 -0.6988 -0.0511
  140ccc     H5 4235   0.685   9.010   8.354  2.3524 -0.7728  0.5360
  140ccc     H6 4236   0.595   9.132   8.433  0.7781  0.5293  0.3791
  140ccc     N1 4237   0.808   9.161   8.456 -0.1052 -0.0536 -0.0215
  140ccc     C4 4238   0.792   9.084   8.594 -0.2001  0.7160  0.7936
  140ccc     H7 4239   0.890   9.078   8.641  1.4624 -0.2039 -2.5357
  140ccc     H8 4240   0.771   8.980   8.568  0.2441  0.7495  0.2965
  140ccc     C5 4241   0.687   9.138   8.693 -0.0564  0.2531  0.6266
  140ccc     H9 4242   0.705   9.245   8.710  1.1416  0.5490 -2.0523
  140ccc    H10 4243   0.585   9.128   8.653  1.0582  0.4948 -2.5190
  140ccc     C6 4244   0.702   9.065   8.824  0.7039  0.2549 -0.0382
  140ccc     O1 4245   0.803   9.024   8.874 -0.3064 -0.1371  0.4018
  140ccc     O2 4246   0.586   9.059   8.895  0.0372 -0.6969 -0.5835
  140ccc    H11 4247   0.513   9.111   8.858 -0.9445 -0.7291  1.1982
  140ccc     C7 4248   0.939   9.109   8.392 -0.6079 -1.1622 -0.6957
  140ccc    H12 4249   0.928   9.000   8.390 -0.4780 -1.1848 -0.3027
  140ccc    H13 4250   0.952   9.143   8.290 -1.3054  2.0102  0.1580
  140ccc     C8 4251   1.068   9.147   8.462 -0.3986 -0.6613 -0.0075
  140ccc    H14 4252   1.073   9.256   8.470 -2.2075 -0.5299 -0.2849
  140ccc    H15 4253   1.090   9.123   8.567  2.5842  0.7476 -0.2356
  140ccc     C9 4254   1.186   9.104   8.379 -0.7039 -0.3525 -0.3212
  140ccc     O3 4255   1.222   9.171   8.287 -0.1677 -0.2005  0.2722
  140ccc     O4 4256   1.240   8.986   8.415 -0.4535 -0.5097 -0.9466
  140ccc    H16 4257   1.183   8.952   8.486  0.2382  0.7043  0.2436
  140ccc     O5 4258   0.581   8.992   8.110 -0.7772 -0.3161 -0.1888
  140ccc    H17 4259   0.805   9.263   8.464  0.0627  0.3569 -3.5758
  141ccc     C1 4260   0.256   8.394   7.471 -0.2210 -0.1895  0.2717
  141ccc     H1 4261   0.153   8.392   7.509 -1.0852  1.1322 -1.8023
  141ccc     H2 4262   0.243   8.431   7.368 -2.7041 -1.4536  0.0642
  141ccc     C2 4263   0.321   8.253   7.467 -0.3398 -0.1276 -0.7816
  141ccc     H3 4264   0.338   8.217   7.570  0.9460  1.1231 -0.5279
  141ccc     H4 4265   0.417   8.267   7.417 -0.6713  0.3399 -1.2959
  141ccc     C3 4266   0.243   8.147   7.381  0.0929  0.2917 -0.0664
  141ccc     H5 4267   0.274   8.163   7.278 -1.2023 -1.2737 -0.7383
  141ccc     H6 4268   0.136   8.164   7.388  0.1812  0.8847 -0.1215
  141ccc     N1 4269   0.275   8.000   7.427 -0.3003  0.6003  0.0178
  141ccc     C4 4270   0.196   7.972   7.556  0.2088 -0.3873 -0.1297
  141ccc     H7 4271   0.096   8.009   7.533 -0.6396 -1.4581  1.5861
  141ccc     H8 4272   0.223   8.038   7.637  1.3396  0.2805 -1.0278
  141ccc     C5 4273   0.195   7.824   7.596  0.7419 -0.0754 -0.4962
  141ccc     H9 4274   0.163   7.755   7.517 -0.0977  0.8054 -0.9468
  141ccc    H10 4275   0.299   7.795   7.615  1.2013  0.4629 -2.0073
  141ccc     C6 4276   0.109   7.802   7.718 -0.6680 -0.3127 -0.7857
  141ccc     O1 4277   0.076   7.889   7.799  0.0347  0.3049 -0.4361
  141ccc     O2 4278   0.054   7.681   7.733  0.6477  0.4532  0.4399
  141ccc    H11 4279  -0.006   7.707   7.806  0.1645  2.2848 -0.5312
  141ccc     C7 4280   0.243   7.905   7.313 -0.4910 -0.3848 -0.4310
  141ccc    H12 4281   0.267   7.807   7.357 -1.2158 -0.4490 -0.1700
  141ccc    H13 4282   0.137   7.905   7.290 -1.0396  0.8504  1.7942
  141ccc     C8 4283   0.319   7.935   7.179  1.2437 -0.1385  0.0783
  141ccc    H14 4284   0.302   8.038   7.143 -0.5463 -0.0608  1.0538
  141ccc    H15 4285   0.425   7.918   7.203  1.1461 -0.7981  0.0550
  141ccc     C9 4286   0.269   7.835   7.074 -0.6970  0.8114 -0.0858
  141ccc     O3 4287   0.259   7.716   7.109 -0.7271  0.2666  0.3785
  141ccc     O4 4288   0.189   7.870   6.970  0.2087  0.3416 -0.4433
  141ccc    H16 4289   0.220   7.961   6.954  1.5952 -0.1470 -0.6157
  141ccc     O5 4290   0.338   8.482   7.554 -0.2362  0.2624  0.0299
  141ccc    H17 4291   0.373   7.980   7.453 -0.1260  0.3362 -0.7796
  142ccc     C1 4292   1.187   7.782   5.863 -0.4071 -0.7064  0.0149
  142ccc     H1 4293   1.229   7.694   5.811  0.1016  0.4780 -1.6561
  142ccc     H2 4294   1.095   7.810   5.810 -1.1753 -2.4648  0.3394
  142ccc     C2 4295   1.287   7.905   5.850  0.0345 -0.4842 -0.1467
  142ccc     H3 4296   1.274   7.929   5.744  0.6679 -0.2945 -0.1861
  142ccc     H4 4297   1.392   7.876   5.866 -0.1604 -0.8771  0.4656
  142ccc     C3 4298   1.240   8.016   5.944 -0.5006  0.4716 -0.1217
  142ccc     H5 4299   1.263   7.980   6.044 -0.5802 -0.1129 -0.3079
  142ccc     H6 4300   1.133   8.036   5.939 -0.6546 -0.3485 -0.2973
  142ccc     N1 4301   1.317   8.149   5.919 -0.2035  0.0531 -0.0542
  142ccc     C4 4302   1.269   8.201   5.787 -0.1333 -1.7337  0.1176
  142ccc     H7 4303   1.174   8.251   5.804 -0.1236 -0.7982 -2.1729
  142ccc     H8 4304   1.252   8.120   5.715  0.4714 -0.2692 -1.7351
  142ccc     C5 4305   1.342   8.318   5.721  0.6067 -0.4225 -0.3035
  142ccc     H9 4306   1.331   8.411   5.777 -0.8386 -2.1504  2.4769
  142ccc    H10 4307   1.449   8.298   5.712  0.2377 -2.5573 -0.5013
  142ccc     C6 4308   1.285   8.339   5.578 -0.6728 -0.5679  0.7031
  142ccc     O1 4309   1.169   8.362   5.552  0.1085  0.0890 -0.1004
  142ccc     O2 4310   1.379   8.305   5.481  0.2529  0.2847  0.2540
  142ccc    H11 4311   1.456   8.265   5.524 -0.5244 -0.8790  0.6169
  142ccc     C7 4312   1.305   8.246   6.038 -0.3003  0.1840 -0.1885
  142ccc    H12 4313   1.330   8.347   6.005  0.6214  0.9166  2.4972
  142ccc    H13 4314   1.199   8.254   6.064  0.1137  3.2708  1.0786
  142ccc     C8 4315   1.389   8.220   6.157  1.1330  0.2746 -0.8579
  142ccc    H14 4316   1.360   8.122   6.198  1.3749  0.6732  0.3263
  142ccc    H15 4317   1.498   8.212   6.146  1.0485  1.8367 -3.3776
  142ccc     C9 4318   1.353   8.316   6.269  0.0671  0.7959 -1.1372
  142ccc     O3 4319   1.241   8.316   6.320 -0.7099  0.7991  0.2868
  142ccc     O4 4320   1.441   8.410   6.288 -0.1326  0.1348  0.1270
  142ccc    H16 4321   1.404   8.446   6.370  0.6047  1.5653 -0.1317
  142ccc     O5 4322   1.166   7.757   6.005  0.3261 -0.0305 -0.2394
  142ccc    H17 4323   1.418   8.131   5.910  0.0773  1.7015 -0.6127
  143ccc     C1 4324   0.947   8.115   6.336 -0.1554  0.0284  0.6914
  143ccc     H1 4325   0.948   8.158   6.437  1.5279  0.5359  0.4848
  143ccc     H2 4326   0.989   8.188   6.266 -1.8030  0.0886 -0.2803
  143ccc     C2 4327   0.803   8.075   6.298 -0.7104 -0.1543  0.1157
  143ccc     H3 4328   0.803   8.033   6.196  1.2560 -2.4605  0.9599
  143ccc     H4 4329   0.727   8.153   6.310 -1.3599 -0.8738  0.8267
  143ccc     C3 4330   0.757   7.955   6.396  0.0076  0.1542  0.2187
  143ccc     H5 4331   0.773   7.988   6.499 -0.5828 -1.1261  0.7316
  143ccc     H6 4332   0.823   7.871   6.376 -0.0487  0.5933 -2.1525
  143ccc     N1 4333   0.609   7.916   6.377 -1.0447 -0.3557  0.2353
  143ccc     C4 4334   0.576   7.858   6.238 -1.1611  0.0251  0.8885
  143ccc     H7 4335   0.593   7.942   6.170 -0.3268 -1.4232 -0.7359
  143ccc     H8 4336   0.471   7.829   6.233 -1.0693 -0.1921  0.0764
  143ccc     C5 4337   0.653   7.728   6.204 -0.6056 -0.5076  0.4149
  143ccc     H9 4338   0.757   7.747   6.177 -0.5537 -1.2568  0.0373
  143ccc    H10 4339   0.658   7.667   6.295  0.3194 -0.5109  0.3652
  143ccc     C6 4340   0.587   7.650   6.088  0.3892  1.3680 -0.5817
  143ccc     O1 4341   0.507   7.693   6.006  0.0733  0.4445 -0.1428
  143ccc     O2 4342   0.584   7.520   6.104  0.8261  0.2928 -0.0999
  143ccc    H11 4343   0.654   7.499   6.168  2.9871  0.4558 -2.2548
  143ccc     C7 4344   0.563   7.824   6.486 -0.0283 -0.1645 -0.3748
  143ccc    H12 4345   0.459   7.802   6.464 -0.4421  2.2421 -1.1470
  143ccc    H13 4346   0.618   7.730   6.484 -0.3948 -0.3824 -0.0219
  143ccc     C8 4347   0.557   7.884   6.629 -0.4573  0.3177  0.5619
  143ccc    H14 4348   0.659   7.886   6.670 -0.1044  2.2537 -0.3077
  143ccc    H15 4349   0.510   7.983   6.622 -1.9010 -0.4171 -0.8782
  143ccc     C9 4350   0.471   7.809   6.723  0.2699  0.3566 -0.2707
  143ccc     O3 4351   0.437   7.691   6.716 -0.2451 -0.0029 -0.4774
  143ccc     O4 4352   0.466   7.872   6.842 -0.7963 -0.1358  0.2104
  143ccc    H16 4353   0.520   7.952   6.840  0.5832 -1.0482 -0.7205
  143ccc     O5 4354   1.037   7.999   6.342  0.5037 -0.3421 -0.4422
  143ccc    H17 4355   0.555   8.003   6.382  0.3574  0.4784  1.8424
  144ccc     C1 4356   0.802   7.300   6.736 -1.2807  0.0462  0.0873
  144ccc     H1 4357   0.783   7.362   6.825  0.0627  0.5243  0.0575
  144ccc     H2 4358   0.879   7.341   6.670 -1.4847  0.3230  0.0177
  144ccc     C2 4359   0.669   7.306   6.646 -0.4035 -0.1562 -0.0558
  144ccc     H3 4360   0.700   7.277   6.545  0.9996 -2.2574  0.9215
  144ccc     H4 4361   0.636   7.411   6.639 -1.2495 -0.2916  1.4701
  144ccc     C3 4362   0.555   7.217   6.691 -0.1604  0.2113 -0.6872
  144ccc     H5 4363   0.597   7.123   6.726  0.5653  1.8406  3.3284
  144ccc     H6 4364   0.486   7.204   6.607 -0.6346 -1.6910 -0.0594
  144ccc     N1 4365   0.476   7.270   6.818  0.7587  0.0836  0.0965
  144ccc     C4 4366   0.343   7.338   6.778 -0.3838  0.4592 -0.4013
  144ccc     H7 4367   0.276   7.275   6.720 -1.1170  0.6778  0.1819
  144ccc     H8 4368   0.367   7.422   6.712  0.9012  1.6050  1.4325
  144ccc     C5 4369   0.272   7.406   6.899 -0.3829  0.1017 -0.5967
  144ccc     H9 4370   0.232   7.333   6.970 -2.3586  0.2696 -1.4857
  144ccc    H10 4371   0.339   7.473   6.955 -0.3277 -1.2730  1.0587
  144ccc     C6 4372   0.134   7.473   6.869  0.2090 -0.3340  0.2376
  144ccc     O1 4373   0.094   7.508   6.756 -0.1209  0.0679  0.5507
  144ccc     O2 4374   0.072   7.514   6.981 -0.1037 -0.4403 -0.0680
  144ccc    H11 4375   0.121   7.487   7.060  0.8488  0.8806 -0.1656
  144ccc     C7 4376   0.452   7.157   6.913  0.4142 -0.1604 -0.0368
  144ccc    H12 4377   0.385   7.195   6.990  0.0175 -1.3691  0.2441
  144ccc    H13 4378   0.409   7.070   6.863 -1.3790  0.3363  0.5474
  144ccc     C8 4379   0.581   7.110   6.987  0.8036 -0.2805 -0.6624
  144ccc    H14 4380   0.664   7.078   6.923 -0.0774 -2.5096 -0.8044
  144ccc    H15 4381   0.623   7.187   7.053 -1.0945  0.1216  0.1312
  144ccc     C9 4382   0.548   6.990   7.080 -0.3881 -0.0932  0.0992
  144ccc     O3 4383   0.444   6.928   7.090 -0.8284 -0.0700 -0.2451
  144ccc     O4 4384   0.658   6.961   7.148 -0.7331  0.4329 -0.3465
  144ccc    H16 4385   0.720   7.035   7.139  0.3876 -0.1014  2.1756
  144ccc     O5 4386   0.833   7.167   6.772 -0.1650  0.3676 -0.4221
  144ccc    H17 4387   0.537   7.341   6.863  0.5953 -0.3707  1.0713
  145ccc     C1 4388   0.631   6.619   7.010  0.0447  0.2134  0.4452
  145ccc     H1 4389   0.638   6.523   7.062  1.3460  0.1537  0.1818
  145ccc     H2 4390   0.626   6.705   7.078 -1.0692  0.9191 -0.4837
  145ccc     C2 4391   0.503   6.618   6.914  0.0245 -0.1544  0.6528
  145ccc     H3 4392   0.518   6.558   6.824 -0.3251 -2.5902  2.1163
  145ccc     H4 4393   0.474   6.718   6.880  1.2466  0.5284  1.5399
  145ccc     C3 4394   0.376   6.563   6.985  0.7155  0.5438  0.6996
  145ccc     H5 4395   0.353   6.630   7.068  2.6193  1.8698  0.2276
  145ccc     H6 4396   0.408   6.469   7.031  0.3177 -0.1136 -0.3368
  145ccc     N1 4397   0.242   6.568   6.907  0.6830  0.0946 -0.0288
  145ccc     C4 4398   0.140   6.493   6.995 -0.1681  0.4840 -0.3565
  145ccc     H7 4399   0.128   6.560   7.080 -0.3373  0.4121 -0.3246
  145ccc     H8 4400   0.193   6.402   7.026 -1.3926 -0.2708 -0.4154
  145ccc     C5 4401   0.011   6.452   6.930  0.3115  0.2092  0.1156
  145ccc     H9 4402  -0.020   6.547   6.885  2.2469  1.2618  0.8905
  145ccc    H10 4403   0.015   6.389   6.840 -3.4594  2.3563 -1.8410
  145ccc     C6 4404  -0.088   6.407   7.040 -0.4190  0.1352  1.0014
  145ccc     O1 4405  -0.055   6.381   7.154 -1.2889  0.3898 -0.1155
  145ccc     O2 4406  -0.215   6.387   6.999  0.0962 -0.2941 -0.1929
  145ccc    H11 4407  -0.224   6.411   6.905 -0.9322  0.8744  0.1867
  145ccc     C7 4408   0.208   6.718   6.875 -0.3509 -0.9800  0.3314
  145ccc    H12 4409   0.302   6.759   6.839 -0.2163 -0.3234  1.4021
  145ccc    H13 4410   0.135   6.716   6.793  0.3546 -2.0295 -0.2999
  145ccc     C8 4411   0.157   6.798   6.987  0.1808 -0.3030  0.5046
  145ccc    H14 4412   0.057   6.767   7.019 -0.0349  0.8643  1.0069
  145ccc    H15 4413   0.225   6.781   7.071 -0.0422  0.6242  0.8781
  145ccc     C9 4414   0.162   6.949   6.962  0.2388  0.1781 -0.7924
  145ccc     O3 4415   0.199   6.998   6.860  0.3002  0.3758  0.2641
  145ccc     O4 4416   0.113   7.020   7.060  0.5208  0.2380 -0.3927
  145ccc    H16 4417   0.081   6.949   7.118  0.9290  0.8233  0.5737
  145ccc     O5 4418   0.743   6.645   6.923 -0.1108  0.1479  0.3746
  145ccc    H17 4419   0.261   6.519   6.818  3.6783 -0.6084  0.8787
  146ccc     C1 4420   2.468   7.267   5.761  0.2794  0.7121 -0.1183
  146ccc     H1 4421   2.441   7.369   5.793 -2.7060 -0.1087  0.2237
  146ccc     H2 4422   2.473   7.261   5.651  1.1083  0.3753 -0.0717
  146ccc     C2 4423   2.360   7.171   5.811 -0.3219  0.0515  0.3002
  146ccc     H3 4424   2.366   7.079   5.751 -2.3975 -0.3067  0.5599
  146ccc     H4 4425   2.269   7.230   5.797 -0.3476  0.6712  2.6550
  146ccc     C3 4426   2.375   7.142   5.970  0.2147  0.5243  0.4559
  146ccc     H5 4427   2.354   7.233   6.027 -1.5546  0.2345  0.3098
  146ccc     H6 4428   2.474   7.104   5.997 -0.0313 -0.7045 -0.2805
  146ccc     N1 4429   2.268   7.039   6.006  0.0983  0.7229  0.1482
  146ccc     C4 4430   2.267   6.904   5.926 -1.3569 -0.1880  0.0406
  146ccc     H7 4431   2.243   6.928   5.822 -2.2276 -0.2190  0.2270
  146ccc     H8 4432   2.188   6.837   5.958 -1.2336  0.2165  1.2275
  146ccc     C5 4433   2.397   6.831   5.925 -0.2108 -0.3013  0.4783
  146ccc     H9 4434   2.489   6.891   5.928 -0.2248 -0.1535 -1.3693
  146ccc    H10 4435   2.400   6.758   6.007  0.4010  0.5475  1.2310
  146ccc     C6 4436   2.421   6.748   5.793 -0.4097 -0.0421 -0.2022
  146ccc     O1 4437   2.380   6.777   5.686 -0.6915  0.4846  0.8043
  146ccc     O2 4438   2.503   6.644   5.817 -0.6539  0.4604 -0.1080
  146ccc    H11 4439   2.501   6.603   5.728  1.4497  1.9712 -0.9377
  146ccc     C7 4440   2.278   6.997   6.147 -0.3202  0.2810 -0.0983
  146ccc    H12 4441   2.220   6.908   6.171  0.5603 -0.1739  0.3800
  146ccc    H13 4442   2.385   6.979   6.163 -0.6952 -1.8614  0.3325
  146ccc     C8 4443   2.243   7.113   6.241  0.0524 -0.7067  0.9298
  146ccc    H14 4444   2.307   7.199   6.219  1.0845 -1.3797  1.2242
  146ccc    H15 4445   2.139   7.144   6.226  0.9847  1.5180 -1.7223
  146ccc     C9 4446   2.244   7.079   6.391 -0.6270  0.7727  0.7364
  146ccc     O3 4447   2.342   7.054   6.454  0.3718  0.4949 -0.2153
  146ccc     O4 4448   2.135   7.021   6.436  0.1112  0.2888 -0.7765
  146ccc    H16 4449   2.168   6.985   6.520  0.4176  0.2378 -0.9141
  146ccc     O5 4450   2.585   7.216   5.825  0.1959 -0.1128  0.2107
  146ccc    H17 4451   2.177   7.084   5.989 -0.5780 -0.4114  0.6325
  147ccc     C1 4452   3.368   6.963   5.648 -0.5025 -0.1939  0.8243
  147ccc     H1 4453   3.334   7.038   5.576 -0.2712  0.5942  1.5121
  147ccc     H2 4454   3.389   7.018   5.741  1.0042 -1.1134  1.0577
  147ccc     C2 4455   3.491   6.879   5.609 -0.9858 -0.4094  0.3324
  147ccc     H3 4456   3.516   6.819   5.698 -3.4956 -1.0912  0.6783
  147ccc     H4 4457   3.577   6.944   5.590  0.7985 -2.7781 -0.1744
  147ccc     C3 4458   3.472   6.794   5.486  0.0883  0.7509 -0.4049
  147ccc     H5 4459   3.519   6.834   5.396 -2.2224 -1.4802 -2.7869
  147ccc     H6 4460   3.369   6.783   5.452 -0.5415  1.1171  1.2885
  147ccc     N1 4461   3.526   6.650   5.497  0.1262 -0.8979  0.2133
  147ccc     C4 4462   3.435   6.563   5.584 -0.2051 -0.0655 -0.0832
  147ccc     H7 4463   3.428   6.610   5.682  1.6652  2.1098 -0.9125
  147ccc     H8 4464   3.469   6.460   5.598 -0.8191 -0.5722 -2.0463
  147ccc     C5 4465   3.295   6.549   5.529  0.2499  0.8363 -0.3770
  147ccc     H9 4466   3.254   6.651   5.523  2.6845  1.8190 -2.3566
  147ccc    H10 4467   3.287   6.512   5.426 -0.9867 -0.5878  0.1923
  147ccc     C6 4468   3.210   6.478   5.631  0.1401  0.7986 -0.1795
  147ccc     O1 4469   3.180   6.528   5.736  0.4446  0.0970 -0.1860
  147ccc     O2 4470   3.164   6.352   5.610  0.3230 -0.3395 -0.3409
  147ccc    H11 4471   3.191   6.324   5.521 -0.4888  0.4740 -0.8592
  147ccc     C7 4472   3.536   6.588   5.357  0.1258  0.1050 -0.5540
  147ccc    H12 4473   3.440   6.585   5.306  0.0881 -0.1692 -0.4690
  147ccc    H13 4474   3.608   6.650   5.303 -1.0968  2.6657  0.5934
  147ccc     C8 4475   3.603   6.445   5.369  0.5824 -0.6616  0.4704
  147ccc    H14 4476   3.684   6.451   5.442  0.8770 -0.5167  0.1386
  147ccc    H15 4477   3.528   6.371   5.399  0.3508 -1.2882 -1.4995
  147ccc     C9 4478   3.670   6.391   5.243 -0.1046  0.0939  0.7246
  147ccc     O3 4479   3.657   6.280   5.199 -0.2855  0.6922 -0.6486
  147ccc     O4 4480   3.747   6.476   5.175 -0.2577 -0.2693 -0.6810
  147ccc    H16 4481   3.787   6.426   5.102  1.0779  0.7484 -0.6880
  147ccc     O5 4482   3.260   6.872   5.663 -0.3371 -0.2292 -0.8946
  147ccc    H17 4483   3.620   6.655   5.540 -0.5142  0.0083  1.5833
  148ccc     C1 4484   1.531   5.889   6.681 -0.5952 -0.1237  0.1845
  148ccc     H1 4485   1.460   5.834   6.617  0.1711 -0.8098 -0.0841
  148ccc     H2 4486   1.604   5.820   6.725  0.7951  0.9270 -0.4066
  148ccc     C2 4487   1.445   5.977   6.779  0.5033  0.5252 -0.1935
  148ccc     H3 4488   1.367   5.911   6.820 -0.1955  1.2304 -0.3689
  148ccc     H4 4489   1.389   6.049   6.718 -0.0077  0.7663  0.5452
  148ccc     C3 4490   1.531   6.056   6.884  0.1112  0.0085 -0.3733
  148ccc     H5 4491   1.601   6.121   6.832  0.1260  0.2571 -0.0509
  148ccc     H6 4492   1.602   5.991   6.936  0.6906 -1.3460 -2.7400
  148ccc     N1 4493   1.453   6.134   6.989 -0.4749  0.2749 -0.3527
  148ccc     C4 4494   1.364   6.050   7.083  0.1301  0.4064  0.5949
  148ccc     H7 4495   1.275   6.020   7.027  1.8526  0.6603 -2.5121
  148ccc     H8 4496   1.332   6.117   7.163 -2.5772 -0.1516  0.0930
  148ccc     C5 4497   1.438   5.929   7.134 -0.0789 -0.5460 -0.4949
  148ccc     H9 4498   1.482   5.875   7.049 -2.5999 -1.1105 -1.5210
  148ccc    H10 4499   1.524   5.956   7.197 -0.0027 -1.4702 -0.1886
  148ccc     C6 4500   1.354   5.826   7.212  0.2363 -0.0842  0.2128
  148ccc     O1 4501   1.249   5.852   7.264 -0.1348  0.1153 -0.3931
  148ccc     O2 4502   1.398   5.701   7.214  0.4999 -0.1842  0.3883
  148ccc    H11 4503   1.467   5.684   7.147  1.3246 -2.7031  1.7398
  148ccc     C7 4504   1.559   6.216   7.065 -0.4657 -0.0562  0.0843
  148ccc    H12 4505   1.630   6.151   7.117  0.9279 -1.7685 -3.5948
  148ccc    H13 4506   1.623   6.275   6.999  0.2480  0.5965  1.3079
  148ccc     C8 4507   1.502   6.319   7.169 -0.0199 -0.4698  0.3213
  148ccc    H14 4508   1.438   6.391   7.116 -0.1816 -1.1314 -0.3918
  148ccc    H15 4509   1.442   6.280   7.252  0.1945  0.4476  0.9370
  148ccc     C9 4510   1.619   6.395   7.235 -0.1204  0.1549  0.4858
  148ccc     O3 4511   1.647   6.505   7.188  0.1562  0.6095  0.3002
  148ccc     O4 4512   1.641   6.359   7.364  0.4975 -0.0038 -0.1526
  148ccc    H16 4513   1.619   6.265   7.378 -0.1062  0.3749  1.6590
  148ccc     O5 4514   1.606   5.982   6.608 -0.2275  0.6364  0.7058
  148ccc    H17 4515   1.388   6.199   6.942 -1.5812  0.9131  1.8992
  149ccc     C1 4516   1.567   6.548   5.943 -0.4441  0.6691 -0.2523
  149ccc     H1 4517   1.526   6.649   5.932  1.8177  1.6209 -0.4911
  149ccc     H2 4518   1.675   6.556   5.959 -0.5747  2.8513 -0.2275
  149ccc     C2 4519   1.534   6.492   5.812  0.0652 -0.2805 -0.3945
  149ccc     H3 4520   1.558   6.571   5.740 -1.1449 -0.1611 -0.6791
  149ccc     H4 4521   1.428   6.472   5.791 -0.0176  0.8638 -1.1820
  149ccc     C3 4522   1.627   6.369   5.790 -0.1081  0.1260 -1.1593
  149ccc     H5 4523   1.596   6.294   5.863  1.4319  0.4504 -0.1097
  149ccc     H6 4524   1.729   6.391   5.822 -0.9907  1.5864  0.8730
  149ccc     N1 4525   1.622   6.295   5.660  0.4700 -0.6592  0.0018
  149ccc     C4 4526   1.735   6.188   5.659  0.5170 -0.3558 -0.6718
  149ccc     H7 4527   1.714   6.132   5.567 -0.3142  0.1858 -0.8301
  149ccc     H8 4528   1.729   6.119   5.744  0.3040  0.7347  0.2161
  149ccc     C5 4529   1.870   6.255   5.642 -0.3222 -0.0742  0.2434
  149ccc     H9 4530   1.871   6.336   5.568 -0.8339  0.2777  0.6140
  149ccc    H10 4531   1.914   6.310   5.726 -0.2518 -0.6761  0.6114
  149ccc     C6 4532   1.982   6.156   5.597  0.4247 -0.7434  0.1314
  149ccc     O1 4533   1.952   6.048   5.564 -0.2149  0.4632 -0.0817
  149ccc     O2 4534   2.104   6.211   5.573 -0.0886  0.3014 -0.5862
  149ccc    H11 4535   2.103   6.301   5.609  0.0094  1.0039 -2.2538
  149ccc     C7 4536   1.493   6.222   5.635 -0.2402  0.8901  0.0911
  149ccc    H12 4537   1.496   6.129   5.690  1.4109  1.6715  1.3786
  149ccc    H13 4538   1.412   6.282   5.678  0.1846  1.4008  0.1950
  149ccc     C8 4539   1.463   6.199   5.483  0.6058 -0.2554  0.0571
  149ccc    H14 4540   1.457   6.285   5.415  1.1820 -0.5834 -0.4191
  149ccc    H15 4541   1.545   6.130   5.457 -0.0505 -1.8346  1.9488
  149ccc     C9 4542   1.338   6.110   5.468 -0.1569 -0.0962 -0.2858
  149ccc     O3 4543   1.243   6.113   5.550 -0.4930  0.7181  0.2719
  149ccc     O4 4544   1.295   6.107   5.340 -0.1085 -0.1796  0.1317
  149ccc    H16 4545   1.202   6.084   5.354  0.2331 -1.9787 -0.3675
  149ccc     O5 4546   1.509   6.454   6.036  0.6270  0.0622 -0.2469
  149ccc    H17 4547   1.635   6.361   5.582 -1.2128  0.4912  0.6391
  150ccc     C1 4548   4.655   5.544   7.277  0.2940 -0.1612 -0.1219
  150ccc     H1 4549   4.603   5.595   7.360  0.8812 -1.5096  1.1180
  150ccc     H2 4550   4.663   5.436   7.293 -2.2625 -0.4305 -0.2045
  150ccc     C2 4551   4.806   5.585   7.285  0.1053  0.0812 -0.0446
  150ccc     H3 4552   4.873   5.523   7.224  1.1457 -0.9169  1.9932
  150ccc     H4 4553   4.843   5.569   7.387  3.1991  0.1296 -1.0603
  150ccc     C3 4554   4.814   5.735   7.245  0.4288 -0.6211 -0.3725
  150ccc     H5 4555   4.742   5.788   7.308  0.5087 -3.3531  2.2746
  150ccc     H6 4556   4.784   5.751   7.142  2.6842  2.4671 -0.7126
  150ccc     N1 4557   4.953   5.800   7.245  0.7485 -0.0676 -0.2121
  150ccc     C4 4558   5.017   5.787   7.388  0.6915  0.6794  0.2525
  150ccc     H7 4559   5.125   5.794   7.379  0.7769  1.5620  1.7212
  150ccc     H8 4560   5.003   5.683   7.419  0.3672  0.4262 -0.7000
  150ccc     C5 4561   4.960   5.895   7.483  0.2648  0.4336 -0.1862
  150ccc     H9 4562   5.007   5.993   7.471  0.2632  0.4368 -0.1665
  150ccc    H10 4563   4.855   5.899   7.454  0.1253 -3.0657 -0.5929
  150ccc     C6 4564   4.972   5.869   7.635 -0.8331 -0.5604  0.5605
  150ccc     O1 4565   4.889   5.813   7.699 -0.2170 -0.5351  0.2723
  150ccc     O2 4566   5.087   5.904   7.694 -0.4287 -0.9627 -0.4120
  150ccc    H11 4567   5.141   5.946   7.624 -0.9571 -0.9924 -0.8467
  150ccc     C7 4568   5.051   5.727   7.149 -0.2408 -0.8725 -0.2073
  150ccc    H12 4569   5.148   5.760   7.187 -0.7360  1.8018 -1.0372
  150ccc    H13 4570   5.035   5.619   7.147  1.3158 -1.1581  1.0056
  150ccc     C8 4571   5.035   5.768   7.005  0.0879 -0.0860  0.7261
  150ccc    H14 4572   4.949   5.717   6.960 -0.6364  0.4592  1.4559
  150ccc    H15 4573   5.020   5.877   6.995  0.7595 -0.1689 -1.9720
  150ccc     C9 4574   5.159   5.736   6.921 -0.8355 -0.2253  0.6394
  150ccc     O3 4575   5.209   5.630   6.929 -0.2129  0.2933  0.2298
  150ccc     O4 4576   5.151   5.795   6.795 -0.0811  0.4329  0.0291
  150ccc    H16 4577   5.213   5.739   6.744 -0.8746 -3.1221  2.5764
  150ccc     O5 4578   4.612   5.590   7.144  0.0403  0.0951 -0.3832
  150ccc    H17 4579   4.942   5.901   7.232 -0.5046 -0.0657  0.6906
  151ccc     C1 4580   4.873   5.592   6.612 -0.0204 -0.1264  0.3796
  151ccc     H1 4581   4.826   5.550   6.522 -0.1535  1.1138 -0.1601
  151ccc     H2 4582   4.941   5.672   6.582  0.0657 -0.5385 -0.5555
  151ccc     C2 4583   4.935   5.488   6.705 -0.1999  0.1554 -0.0781
  151ccc     H3 4584   4.858   5.414   6.728 -1.6805  1.5570 -0.3208
  151ccc     H4 4585   4.968   5.536   6.798 -0.8758  0.3256  0.0791
  151ccc     C3 4586   5.057   5.419   6.647 -0.2193  0.5815  0.6794
  151ccc     H5 4587   5.144   5.486   6.641 -0.0512  0.6133  2.7769
  151ccc     H6 4588   5.032   5.391   6.544  2.8253 -2.1482  0.5235
  151ccc     N1 4589   5.107   5.301   6.721 -0.1819  0.5739 -0.2989
  151ccc     C4 4590   5.019   5.181   6.697  0.3908 -0.3645 -0.2637
  151ccc     H7 4591   5.040   5.145   6.597  1.0512 -2.0253  0.4276
  151ccc     H8 4592   4.914   5.209   6.694  0.7040  1.0109  0.5344
  151ccc     C5 4593   5.032   5.062   6.796  0.8271 -0.2487 -1.1610
  151ccc     H9 4594   5.135   5.034   6.822 -0.1980 -1.2637  2.3616
  151ccc    H10 4595   4.986   5.085   6.893  0.4566 -0.1480 -1.3579
  151ccc     C6 4596   4.951   4.954   6.739  0.0438  0.2636  0.2729
  151ccc     O1 4597   4.853   4.978   6.663  0.0853 -0.1013  0.3988
  151ccc     O2 4598   4.969   4.838   6.793  0.1781  0.1461 -0.0318
  151ccc    H11 4599   4.903   4.784   6.746  1.4908 -0.1013 -1.6944
  151ccc     C7 4600   5.253   5.271   6.674 -0.0197 -0.1631 -0.4794
  151ccc    H12 4601   5.264   5.163   6.673 -2.0381 -0.4020 -1.8585
  151ccc    H13 4602   5.265   5.295   6.569  2.1021 -0.2703 -0.3007
  151ccc     C8 4603   5.370   5.331   6.752 -0.3509 -0.0785  0.3392
  151ccc    H14 4604   5.461   5.328   6.692 -0.7156  0.6766 -0.2640
  151ccc    H15 4605   5.357   5.439   6.766  2.1449  0.2086  0.8755
  151ccc     C9 4606   5.403   5.259   6.880 -0.5227  0.4102 -0.5410
  151ccc     O3 4607   5.336   5.166   6.919  0.6526  0.4218 -0.2320
  151ccc     O4 4608   5.521   5.284   6.940 -0.2052 -0.4142  0.1461
  151ccc    H16 4609   5.551   5.368   6.902 -2.2561 -0.8404 -2.7158
  151ccc     O5 4610   4.772   5.651   6.694 -0.0703 -0.3769  0.4237
  151ccc    H17 4611   5.109   5.319   6.823 -1.6418 -0.1187 -0.1236
  152ccc     C1 4612   4.227   6.354   5.919  0.1404 -0.1957 -0.3088
  152ccc     H1 4613   4.194   6.257   5.879 -0.7199 -1.0305  2.2390
  152ccc     H2 4614   4.156   6.427   5.878  0.6922  0.1501 -0.6542
  152ccc     C2 4615   4.375   6.387   5.896 -0.4230 -0.0072 -0.6120
  152ccc     H3 4616   4.393   6.484   5.943 -1.1149  0.0046 -0.3612
  152ccc     H4 4617   4.393   6.394   5.788 -0.7856 -2.0345 -0.8385
  152ccc     C3 4618   4.467   6.281   5.957 -0.9872 -1.1561 -0.2588
  152ccc     H5 4619   4.440   6.262   6.061  1.7111 -0.2003  0.6917
  152ccc     H6 4620   4.566   6.326   5.959 -0.7464 -1.6314 -0.8312
  152ccc     N1 4621   4.489   6.151   5.870 -0.4894 -0.4225  0.2726
  152ccc     C4 4622   4.626   6.098   5.912  0.7412  0.5989 -0.3412
  152ccc     H7 4623   4.624   6.078   6.019  1.4324  1.2607 -0.1912
  152ccc     H8 4624   4.692   6.185   5.908  0.2875  0.9413 -0.4375
  152ccc     C5 4625   4.694   5.990   5.835  0.0705 -0.0223 -0.4596
  152ccc     H9 4626   4.641   5.894   5.838 -0.7172  0.4299  0.3727
  152ccc    H10 4627   4.706   6.030   5.733 -1.4717 -2.2174 -1.5923
  152ccc     C6 4628   4.838   5.968   5.893 -0.0296 -0.6768  1.0759
  152ccc     O1 4629   4.874   5.998   6.005 -0.2211 -0.4536 -0.9425
  152ccc     O2 4630   4.937   5.914   5.811  0.9132 -0.4027  0.3222
  152ccc    H11 4631   4.884   5.896   5.731  0.1362 -0.2655  0.7901
  152ccc     C7 4632   4.373   6.048   5.879  0.3475  0.9625 -0.2213
  152ccc    H12 4633   4.293   6.107   5.832  0.8608  0.5218 -1.7181
  152ccc    H13 4634   4.397   5.958   5.822 -0.5492  0.6619 -0.1430
  152ccc     C8 4635   4.324   6.003   6.021 -0.0677  0.1546  0.3762
  152ccc    H14 4636   4.406   5.963   6.083  1.0341  0.3557 -0.9083
  152ccc    H15 4637   4.303   6.091   6.083  1.7636 -1.0119  2.8689
  152ccc     C9 4638   4.203   5.908   6.013 -0.0247 -0.1906  0.1311
  152ccc     O3 4639   4.141   5.876   5.909  0.3722 -0.3637 -0.0492
  152ccc     O4 4640   4.164   5.857   6.133 -0.6161 -0.6508  0.0029
  152ccc    H16 4641   4.090   5.800   6.108  1.2177 -2.7642 -0.9197
  152ccc     O5 4642   4.216   6.337   6.065  0.3062  0.1228 -0.1252
  152ccc    H17 4643   4.500   6.184   5.773  0.5268 -0.9622  0.1915
  153ccc     C1 4644   4.330   7.094   6.515 -0.3392 -0.0003 -0.5856
  153ccc     H1 4645   4.404   7.014   6.514 -2.1271 -1.8618  1.8513
  153ccc     H2 4646   4.360   7.196   6.490  0.6692  0.0496  0.7336
  153ccc     C2 4647   4.285   7.097   6.657  0.5850 -0.4589 -0.1050
  153ccc     H3 4648   4.210   7.176   6.667  1.8995  0.6692  1.2738
  153ccc     H4 4649   4.370   7.128   6.719  0.5476  1.8770 -1.1498
  153ccc     C3 4650   4.234   6.953   6.692 -0.8022 -0.2858  0.0416
  153ccc     H5 4651   4.323   6.891   6.696 -0.5531  0.0819  0.2967
  153ccc     H6 4652   4.172   6.915   6.611  1.8424  1.4948 -3.0854
  153ccc     N1 4653   4.161   6.951   6.827  0.1824  0.4518 -0.0800
  153ccc     C4 4654   4.023   7.013   6.823 -0.4927  0.2714  0.4713
  153ccc     H7 4655   4.045   7.115   6.793  1.2870  0.1353  1.2188
  153ccc     H8 4656   3.983   7.016   6.925  0.1279 -0.9760  0.7725
  153ccc     C5 4657   3.920   6.943   6.736 -0.0355 -0.2180 -0.4852
  153ccc     H9 4658   3.964   6.927   6.636  1.5323  0.5837  0.0437
  153ccc    H10 4659   3.899   6.841   6.771 -0.1324 -0.2902 -0.7514
  153ccc     C6 4660   3.791   7.025   6.731 -0.4240 -0.2996 -0.1134
  153ccc     O1 4661   3.780   7.133   6.790 -0.0426  0.3288  0.0394
  153ccc     O2 4662   3.678   6.964   6.679 -0.0387 -0.5377  0.3737
  153ccc    H11 4663   3.715   6.884   6.638  0.9529 -0.0998  0.3846
  153ccc     C7 4664   4.148   6.816   6.897 -0.3749 -0.6200 -0.3736
  153ccc    H12 4665   4.090   6.843   6.986  1.6671  0.3238  0.7408
  153ccc    H13 4666   4.092   6.737   6.848  1.1435 -0.8970 -1.7083
  153ccc     C8 4667   4.280   6.751   6.940  0.2941  0.1737  0.2204
  153ccc    H14 4668   4.335   6.732   6.848  1.0004  0.8805  0.4843
  153ccc    H15 4669   4.329   6.824   7.006  0.1613  0.1653  0.3302
  153ccc     C9 4670   4.259   6.626   7.008 -0.2602  0.8861 -0.6896
  153ccc     O3 4671   4.256   6.515   6.955 -0.2710 -0.1314  0.0192
  153ccc     O4 4672   4.253   6.626   7.142  0.1440 -0.6411  0.2688
  153ccc    H16 4673   4.236   6.717   7.172  0.0760 -0.7028  0.4199
  153ccc     O5 4674   4.228   7.049   6.425 -0.4057 -0.1151 -0.1513
  153ccc    H17 4675   4.206   7.014   6.895  0.7797 -0.1284  0.0771
  154ccc     C1 4676   3.326   5.683   7.555  0.1713 -0.2751  0.3257
  154ccc     H1 4677   3.279   5.584   7.552  0.4155 -0.4189  0.9248
  154ccc     H2 4678   3.269   5.743   7.484  1.0416  0.7991  0.5192
  154ccc     C2 4679   3.470   5.680   7.508  0.5843 -0.3151 -0.6581
  154ccc     H3 4680   3.481   5.622   7.416  3.5955 -1.2222  0.1677
  154ccc     H4 4681   3.533   5.625   7.579  0.5055 -0.6456 -0.8423
  154ccc     C3 4682   3.506   5.830   7.506 -0.4247  0.3115  0.4646
  154ccc     H5 4683   3.465   5.886   7.591  0.5979  1.9418 -0.0647
  154ccc     H6 4684   3.452   5.871   7.420 -2.8463  0.0204  1.7532
  154ccc     N1 4685   3.658   5.846   7.497 -0.6149  0.7301  0.2457
  154ccc     C4 4686   3.685   5.991   7.441  0.7947 -0.3849 -0.0557
  154ccc     H7 4687   3.658   6.060   7.521 -0.6513 -0.1240 -0.7268
  154ccc     H8 4688   3.622   6.006   7.352 -0.2369 -2.0410  0.3547
  154ccc     C5 4689   3.827   6.013   7.395  0.0022  0.2141 -0.1043
  154ccc     H9 4690   3.885   5.998   7.487  0.4644  2.4788  0.0352
  154ccc    H10 4691   3.856   5.940   7.320  1.5081  0.1724  0.4927
  154ccc     C6 4692   3.854   6.148   7.340 -0.0870 -0.8085 -0.3930
  154ccc     O1 4693   3.765   6.227   7.310 -0.1713 -0.0425 -0.2986
  154ccc     O2 4694   3.979   6.194   7.370 -0.3680 -0.2292  0.2836
  154ccc    H11 4695   4.034   6.118   7.395  2.6836  1.8822  0.4568
  154ccc     C7 4696   3.729   5.828   7.641  0.0633  0.1715  0.0926
  154ccc    H12 4697   3.704   5.726   7.672 -0.5254  0.4534  0.5669
  154ccc    H13 4698   3.837   5.839   7.631  0.0984 -0.4050 -0.2658
  154ccc     C8 4699   3.692   5.930   7.750  0.2017  0.2930 -0.5091
  154ccc    H14 4700   3.735   6.028   7.726  1.3869  0.1610  0.9201
  154ccc    H15 4701   3.585   5.954   7.755  0.4301  1.1097  1.3213
  154ccc     C9 4702   3.724   5.891   7.892  0.3016  0.5112  0.4297
  154ccc     O3 4703   3.736   5.771   7.925 -0.2784  0.0440  1.0935
  154ccc     O4 4704   3.650   5.969   7.976  0.3539 -0.0074 -0.1000
  154ccc    H16 4705   3.666   5.926   8.062 -2.6457  2.2758  1.8477
  154ccc     O5 4706   3.325   5.737   7.688  0.0815  0.0860 -0.5666
  154ccc    H17 4707   3.696   5.776   7.433  0.7239  0.0403  1.7306
  155ccc     C1 4708   2.878   5.940   8.467  0.2724  0.3305 -0.5163
  155ccc     H1 4709   2.887   6.040   8.510  1.7874  0.2950 -0.6956
  155ccc     H2 4710   2.779   5.924   8.423  0.4078 -1.5685 -0.2390
  155ccc     C2 4711   2.887   5.830   8.571  0.7891 -0.9544 -1.0768
  155ccc     H3 4712   2.988   5.840   8.614 -0.7442  3.1166  2.2924
  155ccc     H4 4713   2.876   5.733   8.521  1.6149 -1.3106 -0.5852
  155ccc     C3 4714   2.800   5.853   8.696  0.2021  0.2768  0.1534
  155ccc     H5 4715   2.810   5.950   8.745 -1.7292 -0.3613  1.9547
  155ccc     H6 4716   2.833   5.782   8.772  0.9558  1.4184  0.9217
  155ccc     N1 4717   2.644   5.837   8.672 -0.5997 -0.1037  0.2135
  155ccc     C4 4718   2.614   5.693   8.634  0.9883  0.5534 -0.2286
  155ccc     H7 4719   2.608   5.634   8.726  0.4506  1.4287  0.3131
  155ccc     H8 4720   2.700   5.647   8.585  0.2052 -0.5381 -0.6141
  155ccc     C5 4721   2.480   5.688   8.549 -0.1471  0.3474  0.1483
  155ccc     H9 4722   2.402   5.749   8.596  0.6927 -0.3463  2.5982
  155ccc    H10 4723   2.495   5.730   8.449  2.5770 -1.5407 -0.3393
  155ccc     C6 4724   2.419   5.548   8.538 -0.2189  0.7590 -0.3344
  155ccc     O1 4725   2.367   5.495   8.632 -0.5909  0.1234  0.3940
  155ccc     O2 4726   2.457   5.480   8.427 -0.3760 -0.4242 -0.1958
  155ccc    H11 4727   2.518   5.542   8.383 -0.9280 -2.2371 -3.8288
  155ccc     C7 4728   2.567   5.877   8.795 -0.0640 -0.4533  0.4250
  155ccc    H12 4729   2.464   5.842   8.785 -1.1829  2.6677 -0.1954
  155ccc    H13 4730   2.612   5.832   8.883  2.3649  0.6610 -0.1589
  155ccc     C8 4731   2.564   6.029   8.825  0.1767 -0.0356  0.1117
  155ccc    H14 4732   2.663   6.070   8.845 -0.1900  0.9268  0.0225
  155ccc    H15 4733   2.506   6.086   8.751 -1.4627 -0.6818  0.8449
  155ccc     C9 4734   2.481   6.053   8.941 -1.3341  0.4958 -0.2469
  155ccc     O3 4735   2.468   5.969   9.029 -0.0922 -0.0419 -0.0996
  155ccc     O4 4736   2.419   6.167   8.948 -0.0587 -0.3606  0.7707
  155ccc    H16 4737   2.448   6.225   8.876 -3.0150  0.2684 -0.0540
  155ccc     O5 4738   2.975   5.901   8.368 -0.1454  0.1622  0.6934
  155ccc    H17 4739   2.614   5.890   8.589  2.3775 -0.6770 -1.3889
  156ccc     C1 4740   4.979   6.583   8.504 -0.4817 -0.9418  0.8851
  156ccc     H1 4741   5.064   6.622   8.562 -2.2245  0.0373  2.9424
  156ccc     H2 4742   4.969   6.478   8.536 -0.6835 -1.1432  0.1816
  156ccc     C2 4743   4.964   6.619   8.351  0.0415  0.1180  0.3632
  156ccc     H3 4744   4.860   6.617   8.314 -0.1771 -0.8749  0.9981
  156ccc     H4 4745   5.023   6.551   8.289  0.8311  0.0343  1.1925
  156ccc     C3 4746   5.018   6.760   8.319 -0.7206 -0.2575 -0.0163
  156ccc     H5 4747   5.097   6.749   8.245  0.0517  0.6962  0.6297
  156ccc     H6 4748   5.063   6.803   8.409 -0.0184  0.0892 -0.5229
  156ccc     N1 4749   4.920   6.867   8.267 -0.7489  0.2737 -0.1602
  156ccc     C4 4750   4.830   6.902   8.385  0.3290 -0.0958  0.4186
  156ccc     H7 4751   4.895   6.911   8.472  1.6123 -1.2254 -0.3827
  156ccc     H8 4752   4.778   6.812   8.419 -0.7568  0.2665 -0.2163
  156ccc     C5 4753   4.715   7.006   8.364  0.7997 -0.4001  0.4764
  156ccc     H9 4754   4.765   7.102   8.350  1.1914 -0.3362  2.1340
  156ccc    H10 4755   4.655   6.992   8.273  0.5186  4.5782 -0.3925
  156ccc     C6 4756   4.616   6.998   8.481  0.4607  0.1906 -0.6506
  156ccc     O1 4757   4.582   6.894   8.532 -0.0556 -0.2271 -0.5536
  156ccc     O2 4758   4.551   7.114   8.518 -0.6511 -0.1455  0.3915
  156ccc    H11 4759   4.595   7.185   8.467  0.6364 -1.6756 -0.7270
  156ccc     C7 4760   4.998   6.994   8.215 -0.7387  0.4809 -0.2242
  156ccc    H12 4761   4.926   7.072   8.190 -1.3756  0.4857  1.4809
  156ccc    H13 4762   5.053   7.040   8.297  2.3735  0.5235 -2.1627
  156ccc     C8 4763   5.102   6.980   8.089 -0.1026  0.1202 -0.7664
  156ccc    H14 4764   5.185   6.913   8.117 -1.0117 -1.2707 -1.3016
  156ccc    H15 4765   5.057   6.930   8.003  0.4458  0.0817 -1.0347
  156ccc     C9 4766   5.150   7.117   8.038 -0.6440  0.1566  0.4297
  156ccc     O3 4767   5.194   7.204   8.107  0.2461 -0.8225  0.9328
  156ccc     O4 4768   5.181   7.111   7.909 -0.1224  0.3379  0.0055
  156ccc    H16 4769   5.254   7.172   7.887  0.3559 -0.2506 -0.0664
  156ccc     O5 4770   4.868   6.660   8.563 -0.0876  0.0357 -0.2737
  156ccc    H17 4771   4.865   6.828   8.189 -1.9531  1.5469  0.0001
  157ccc     C1 4772   4.208   7.028   8.835 -0.3241 -0.1596  0.0832
  157ccc     H1 4773   4.226   7.075   8.932 -1.0830  1.0317 -0.3311
  157ccc     H2 4774   4.256   7.082   8.753 -1.2841 -0.3125 -0.5989
  157ccc     C2 4775   4.059   7.050   8.817  0.3888  0.0177  0.4273
  157ccc     H3 4776   4.048   7.022   8.712 -1.3394 -1.2924  0.9184
  157ccc     H4 4777   4.045   7.158   8.835  2.1208  0.2066  0.7983
  157ccc     C3 4778   3.974   6.980   8.917 -0.0717  0.4134  0.2121
  157ccc     H5 4779   4.022   6.998   9.012  0.0785 -2.3125  0.7362
  157ccc     H6 4780   3.972   6.871   8.903  0.8519  0.2029  1.5811
  157ccc     N1 4781   3.832   7.043   8.921 -0.2760 -0.0190  0.3207
  157ccc     C4 4782   3.758   7.009   8.785  0.1326 -0.9801 -0.1362
  157ccc     H7 4783   3.718   6.908   8.778  1.4282 -1.4608 -1.0940
  157ccc     H8 4784   3.837   7.001   8.709  0.8503  0.1464  0.4654
  157ccc     C5 4785   3.662   7.120   8.747 -0.1403  0.0053  0.4592
  157ccc     H9 4786   3.595   7.150   8.828 -2.0453  0.3659 -1.1619
  157ccc    H10 4787   3.728   7.204   8.720  2.5887 -1.7573  1.2307
  157ccc     C6 4788   3.578   7.065   8.626 -0.0900  0.0640 -0.0610
  157ccc     O1 4789   3.549   6.945   8.613 -0.5554 -1.3913  0.2385
  157ccc     O2 4790   3.529   7.158   8.548  0.1398 -0.6539  0.6776
  157ccc    H11 4791   3.562   7.244   8.578 -0.0434 -0.9998  1.9421
  157ccc     C7 4792   3.739   6.973   9.026  0.4731 -0.7270 -0.5998
  157ccc    H12 4793   3.639   7.010   9.007  0.6364 -0.0595 -0.1613
  157ccc    H13 4794   3.742   6.865   9.009 -1.8623 -0.6641 -1.8744
  157ccc     C8 4795   3.795   7.008   9.163  0.7710  0.4337 -0.7072
  157ccc    H14 4796   3.894   6.968   9.185  0.8965  1.4745  0.7611
  157ccc    H15 4797   3.791   7.117   9.176 -3.6001  0.2158  2.0893
  157ccc     C9 4798   3.700   6.961   9.273 -0.0196  0.0770  0.6820
  157ccc     O3 4799   3.595   6.906   9.251 -0.1071  0.0886  0.1894
  157ccc     O4 4800   3.727   7.005   9.397 -0.2522 -0.0187  0.1284
  157ccc    H16 4801   3.821   7.030   9.402 -0.9695  2.8228  2.8547
  157ccc     O5 4802   4.216   6.882   8.835 -0.4766 -0.2841  0.0703
  157ccc    H17 4803   3.836   7.145   8.934 -2.1374  0.0695  0.5070
  158ccc     C1 4804   5.148   8.641  12.349 -0.2410 -0.8502 -0.3276
  158ccc     H1 4805   5.246   8.594  12.333  0.5886  1.0289 -1.1332
  158ccc     H2 4806   5.165   8.747  12.371 -0.2486 -1.0405  0.6363
  158ccc     C2 4807   5.097   8.581  12.481  0.0973  0.2715  0.1099
  158ccc     H3 4808   5.178   8.592  12.554  1.6576 -0.2445 -1.4912
  158ccc     H4 4809   5.091   8.472  12.469  1.8677  0.0833  0.6217
  158ccc     C3 4810   4.957   8.642  12.528 -0.5465 -0.1142 -0.3352
  158ccc     H5 4811   4.873   8.590  12.482 -0.6073  2.6877 -3.8325
  158ccc     H6 4812   4.966   8.748  12.504  0.1922 -0.3203 -1.0314
  158ccc     N1 4813   4.940   8.622  12.674  0.5370  0.1352  0.0247
  158ccc     C4 4814   4.802   8.689  12.721  0.1255  0.3990 -0.1132
  158ccc     H7 4815   4.712   8.632  12.696 -2.2273  2.5820  2.6121
  158ccc     H8 4816   4.789   8.769  12.648  1.9011  0.6457 -0.1903
  158ccc     C5 4817   4.784   8.740  12.865 -0.5176  0.1211 -0.2831
  158ccc     H9 4818   4.793   8.665  12.945 -1.4085 -0.2599 -0.5229
  158ccc    H10 4819   4.854   8.820  12.891 -1.5475  0.7338  0.6788
  158ccc     C6 4820   4.641   8.795  12.875  0.1907  0.1283 -0.0203
  158ccc     O1 4821   4.545   8.742  12.930 -0.4154 -0.6609 -0.0570
  158ccc     O2 4822   4.628   8.923  12.823 -0.5834 -0.2235 -0.1515
  158ccc    H11 4823   4.710   8.954  12.781 -0.6846  1.3444  0.7282
  158ccc     C7 4824   4.934   8.476  12.713 -0.7560 -0.1529 -0.4110
  158ccc    H12 4825   5.035   8.435  12.720  0.2123  1.9388 -1.2576
  158ccc    H13 4826   4.896   8.454  12.813  0.6240 -0.4954  0.0611
  158ccc     C8 4827   4.856   8.377  12.617 -0.4875 -0.0521 -0.1808
  158ccc    H14 4828   4.751   8.408  12.616 -0.7570 -0.7091  2.0582
  158ccc    H15 4829   4.900   8.373  12.516  1.5052 -2.8067  0.6617
  158ccc     C9 4830   4.862   8.228  12.664 -0.1309 -0.3875 -0.1393
  158ccc     O3 4831   4.887   8.187  12.777 -0.0286  0.0839  0.0122
  158ccc     O4 4832   4.800   8.156  12.576  0.3505  0.3685 -0.0112
  158ccc    H16 4833   4.794   8.071  12.623  0.9219 -1.2078 -2.6236
  158ccc     O5 4834   5.053   8.627  12.246  0.2765 -0.6198 -0.8942
  158ccc    H17 4835   5.016   8.668  12.727 -0.8579  1.9966  0.4935
  159ccc     C1 4836   4.531   9.011  12.154 -0.2111 -0.4225 -0.0223
  159ccc     H1 4837   4.456   9.059  12.091 -0.1778 -0.9306 -0.4570
  159ccc     H2 4838   4.483   8.946  12.228 -0.7852 -1.4190 -1.2364
  159ccc     C2 4839   4.622   9.122  12.224 -0.2064  0.1669 -0.0585
  159ccc     H3 4840   4.685   9.062  12.290 -1.9183 -2.0692 -0.3338
  159ccc     H4 4841   4.569   9.187  12.294  0.3641 -1.6922  2.2126
  159ccc     C3 4842   4.702   9.207  12.118  0.1873  0.2310 -0.4454
  159ccc     H5 4843   4.625   9.257  12.059  0.5286  1.1755 -0.1055
  159ccc     H6 4844   4.759   9.135  12.059  0.6712  0.7685 -0.6363
  159ccc     N1 4845   4.792   9.318  12.183 -0.1333 -0.3259  0.3728
  159ccc     C4 4846   4.708   9.414  12.268 -0.2730  0.4783  0.5593
  159ccc     H7 4847   4.665   9.357  12.350 -1.2726 -1.3835 -1.1675
  159ccc     H8 4848   4.614   9.432  12.215 -0.7568 -1.5135  0.6639
  159ccc     C5 4849   4.785   9.546  12.306  0.1630 -0.1430 -0.9112
  159ccc     H9 4850   4.875   9.516  12.362  0.0062 -0.3956 -0.7935
  159ccc    H10 4851   4.806   9.610  12.220 -0.1840  0.4614 -0.5537
  159ccc     C6 4852   4.692   9.625  12.392  0.6662 -0.5286  0.0822
  159ccc     O1 4853   4.570   9.632  12.376  0.2913  0.2605 -0.2383
  159ccc     O2 4854   4.747   9.687  12.502  0.1555 -0.7797 -0.0678
  159ccc    H11 4855   4.839   9.686  12.470  0.2529 -2.0673  0.2069
  159ccc     C7 4856   4.911   9.267  12.259  0.0449 -0.4132 -1.1034
  159ccc    H12 4857   4.986   9.347  12.266 -1.7579  1.2362  0.7904
  159ccc    H13 4858   4.871   9.248  12.359 -2.8061 -0.7504 -2.2257
  159ccc     C8 4859   4.991   9.148  12.204 -0.2377  0.1343 -0.5174
  159ccc    H14 4860   4.962   9.134  12.099 -0.4166  0.1400 -0.4684
  159ccc    H15 4861   5.100   9.160  12.199 -0.3413  0.7153 -2.2739
  159ccc     C9 4862   4.970   9.012  12.276 -0.2681 -0.7543 -0.0702
  159ccc     O3 4863   5.004   8.984  12.391  0.2276  0.5285 -0.0092
  159ccc     O4 4864   4.902   8.919  12.209 -0.3683  0.2980 -0.1568
  159ccc    H16 4865   4.892   8.853  12.280 -2.4264  0.4191 -0.2694
  159ccc     O5 4866   4.624   8.926  12.074  0.6840  0.1313  0.6870
  159ccc    H17 4867   4.833   9.375  12.107  0.8594 -1.0233  0.3544
  160ccc     C1 4868   4.124   9.527  11.162 -0.2660  0.2985  0.1113
  160ccc     H1 4869   4.047   9.588  11.114  0.3152  0.7765 -0.2271
  160ccc     H2 4870   4.096   9.475  11.255 -0.1464 -0.5077 -0.2966
  160ccc     C2 4871   4.242   9.612  11.204  0.9175 -0.6956  0.4055
  160ccc     H3 4872   4.296   9.646  11.115  0.0348 -1.9780 -0.6555
  160ccc     H4 4873   4.316   9.556  11.263  1.6483 -0.0616  0.1117
  160ccc     C3 4874   4.205   9.737  11.287  0.0764 -0.0788 -0.0652
  160ccc     H5 4875   4.158   9.712  11.383 -2.5304  2.3625 -0.5795
  160ccc     H6 4876   4.121   9.791  11.243 -1.1285 -2.1610 -0.4801
  160ccc     N1 4877   4.324   9.824  11.316  0.2974 -0.4629  0.1968
  160ccc     C4 4878   4.282   9.958  11.355  0.0677 -0.7722 -0.1695
  160ccc     H7 4879   4.217   9.951  11.442 -0.0543  0.4269 -0.1514
  160ccc     H8 4880   4.218   9.998  11.277 -0.3128 -2.2430 -0.6389
  160ccc     C5 4881   4.396  10.051  11.390  0.3762 -1.0284 -0.0365
  160ccc     H9 4882   4.454  10.023  11.479 -1.6323  0.7189  1.9504
  160ccc    H10 4883   4.463  10.075  11.306 -1.1546  1.6868 -0.6163
  160ccc     C6 4884   4.328  10.184  11.425  0.1040 -0.1229  0.7141
  160ccc     O1 4885   4.249  10.237  11.352 -0.0841 -0.0429  0.5002
  160ccc     O2 4886   4.310  10.200  11.554  0.3640  0.2373 -0.0759
  160ccc    H11 4887   4.242  10.270  11.553 -0.0442 -0.1448 -1.2951
  160ccc     C7 4888   4.416   9.755  11.420 -0.5010 -0.3702 -0.2296
  160ccc    H12 4889   4.450   9.662  11.374  0.0211 -1.7311  2.6756
  160ccc    H13 4890   4.494   9.825  11.449 -2.2883  1.0125  1.4102
  160ccc     C8 4891   4.362   9.717  11.556 -0.2939  0.5268  0.1663
  160ccc    H14 4892   4.358   9.802  11.625  0.9126 -0.4584  1.4886
  160ccc    H15 4893   4.260   9.678  11.555 -0.0314 -0.1615  0.3755
  160ccc     C9 4894   4.470   9.626  11.618  0.4901 -0.6679  0.3133
  160ccc     O3 4895   4.587   9.653  11.599 -0.1836 -0.0442 -0.0671
  160ccc     O4 4896   4.431   9.502  11.646  0.8803  0.5668  0.2214
  160ccc    H16 4897   4.501   9.448  11.689  0.2253 -0.4687  0.0370
  160ccc     O5 4898   4.164   9.419  11.076  0.1534 -0.1494 -0.1047
  160ccc    H17 4899   4.383   9.839  11.232  0.3631 -0.0347  0.3156
  161ccc     C1 4900   3.726   8.646  10.956 -0.2446 -0.6068  0.0723
  161ccc     H1 4901   3.680   8.724  10.893  1.6673  0.3300 -0.2450
  161ccc     H2 4902   3.757   8.560  10.895 -1.2917 -1.7406  1.0764
  161ccc     C2 4903   3.620   8.594  11.051 -0.2787 -0.5218 -0.1894
  161ccc     H3 4904   3.665   8.521  11.119 -1.1793  0.6360  1.7258
  161ccc     H4 4905   3.553   8.530  10.991  0.9557 -2.8529  0.7734
  161ccc     C3 4906   3.549   8.714  11.126 -0.0170 -0.1619  0.0186
  161ccc     H5 4907   3.514   8.781  11.047  1.1673 -0.9678 -1.2407
  161ccc     H6 4908   3.620   8.773  11.185 -0.1985 -0.0816  0.1580
  161ccc     N1 4909   3.437   8.669  11.227  0.4131 -0.0856  0.1361
  161ccc     C4 4910   3.337   8.559  11.171  0.1673 -0.1363  0.2974
  161ccc     H7 4911   3.270   8.546  11.257  2.2191 -1.5113  1.7895
  161ccc     H8 4912   3.396   8.469  11.152 -0.4513 -1.1278  2.6628
  161ccc     C5 4913   3.245   8.610  11.057 -0.4078 -0.4251 -0.1404
  161ccc     H9 4914   3.188   8.696  11.095  0.3230  0.0481 -0.0741
  161ccc    H10 4915   3.305   8.635  10.968  0.7199  0.6431  0.8713
  161ccc     C6 4916   3.144   8.507  11.011  0.1990  0.1697  0.6684
  161ccc     O1 4917   3.173   8.388  10.998 -0.2654  0.5969  0.8928
  161ccc     O2 4918   3.068   8.551  10.904 -0.5300 -0.1619  0.6920
  161ccc    H11 4919   3.025   8.637  10.920  0.4546  0.4427  0.2169
  161ccc     C7 4920   3.501   8.610  11.355 -0.8214  0.1927  0.7930
  161ccc    H12 4921   3.566   8.526  11.330 -0.4650  0.9296 -0.8688
  161ccc    H13 4922   3.566   8.690  11.391 -1.5789  1.0466  0.3261
  161ccc     C8 4923   3.427   8.581  11.485 -0.1029  0.6666  0.5771
  161ccc    H14 4924   3.498   8.592  11.568 -1.1980 -2.0073  1.9949
  161ccc    H15 4925   3.354   8.659  11.512 -0.7196 -0.3323  1.9066
  161ccc     C9 4926   3.356   8.440  11.485  0.1661  0.0976  0.3814
  161ccc     O3 4927   3.341   8.373  11.381 -0.2882 -1.0959 -0.6306
  161ccc     O4 4928   3.298   8.412  11.599  0.3168  0.2574 -0.4781
  161ccc    H16 4929   3.302   8.488  11.659 -0.6822  0.3913 -0.5593
  161ccc     O5 4930   3.837   8.704  11.019  0.4338  0.5385 -0.1742
  161ccc    H17 4931   3.380   8.750  11.258 -1.7329 -0.2190 -2.9795
  162ccc     C1 4932   4.957   6.530  12.494  0.3479 -0.2947 -0.5012
  162ccc     H1 4933   4.966   6.455  12.414 -1.5119 -2.8567  1.4839
  162ccc     H2 4934   5.047   6.593  12.501 -1.5622  2.8940 -2.5202
  162ccc     C2 4935   4.935   6.447  12.628 -0.7009 -0.9586  0.4637
  162ccc     H3 4936   5.014   6.372  12.629  0.4083  0.1414 -0.8569
  162ccc     H4 4937   4.836   6.402  12.609 -1.3632  1.4818 -2.8063
  162ccc     C3 4938   4.938   6.532  12.752 -0.2281 -0.2485 -0.6129
  162ccc     H5 4939   4.839   6.561  12.790  0.3031 -0.3183  0.9141
  162ccc     H6 4940   4.992   6.625  12.735 -0.8235  0.4244  0.9533
  162ccc     N1 4941   5.007   6.472  12.877 -0.2693 -0.0079  0.6588
  162ccc     C4 4942   5.035   6.573  12.995  0.2646  0.0404  0.8316
  162ccc     H7 4943   5.047   6.514  13.086 -0.4190 -2.4735 -0.6049
  162ccc     H8 4944   4.949   6.638  13.007  0.8031  0.8139  0.6440
  162ccc     C5 4945   5.157   6.669  12.971  0.5487  0.0536 -0.2459
  162ccc     H9 4946   5.248   6.609  12.960  1.3495  1.3672 -1.1301
  162ccc    H10 4947   5.132   6.738  12.888  0.1623 -0.9149 -0.9585
  162ccc     C6 4948   5.187   6.754  13.090 -0.1129  0.3240 -0.1881
  162ccc     O1 4949   5.132   6.751  13.199 -0.6120 -0.0362 -0.7021
  162ccc     O2 4950   5.311   6.788  13.091 -0.6730  1.0001  0.4099
  162ccc    H11 4951   5.314   6.850  13.166  0.4402  1.5877 -0.0856
  162ccc     C7 4952   4.935   6.349  12.936  0.0826 -1.1821 -0.5104
  162ccc    H12 4953   4.930   6.277  12.854  2.2708  0.5478 -2.2988
  162ccc    H13 4954   5.004   6.303  13.007  0.3148 -1.4526 -0.9015
  162ccc     C8 4955   4.795   6.377  13.003  0.0163 -0.2831 -0.3848
  162ccc    H14 4956   4.783   6.447  13.087  1.1106 -1.5618  0.8949
  162ccc    H15 4957   4.721   6.397  12.925  1.1701 -0.4776 -1.5712
  162ccc     C9 4958   4.752   6.244  13.066  0.0151  0.4142 -0.3243
  162ccc     O3 4959   4.837   6.159  13.088  0.0795  0.1639 -0.1174
  162ccc     O4 4960   4.618   6.225  13.087 -0.3991  0.1465  0.0143
  162ccc    H16 4961   4.567   6.308  13.085 -2.0383 -0.7474  1.3901
  162ccc     O5 4962   4.837   6.611  12.481 -0.3553 -0.9577 -0.5848
  162ccc    H17 4963   5.100   6.439  12.848  0.4394  0.0260  2.6857
  163ccc     C1 4964   4.169   7.205  12.299  0.5520 -0.2750  0.4563
  163ccc     H1 4965   4.101   7.192  12.384  1.3223 -1.2936  0.9378
  163ccc     H2 4966   4.248   7.278  12.321  0.3739  0.2147 -0.4830
  163ccc     C2 4967   4.089   7.270  12.186 -0.0241  0.2929  0.2729
  163ccc     H3 4968   4.156   7.298  12.103  0.1930  1.3580  0.7961
  163ccc     H4 4969   4.047   7.363  12.226 -3.2020 -1.0074  0.2410
  163ccc     C3 4970   3.972   7.180  12.146 -0.3792  0.4060 -0.1093
  163ccc     H5 4971   3.899   7.167  12.226  0.5656  0.7798  0.8425
  163ccc     H6 4972   4.010   7.079  12.132  0.4353  0.7095 -0.1554
  163ccc     N1 4973   3.902   7.234  12.027  0.2470 -0.4802  0.4621
  163ccc     C4 4974   3.855   7.381  12.042 -0.1973 -0.1696  0.8112
  163ccc     H7 4975   3.809   7.411  11.947  1.4211  0.2517  0.1205
  163ccc     H8 4976   3.950   7.434  12.049 -0.3113  0.3000 -0.7118
  163ccc     C5 4977   3.768   7.409  12.164  0.2157 -0.6904 -0.2897
  163ccc     H9 4978   3.678   7.346  12.161 -0.2827  0.0448 -1.9547
  163ccc    H10 4979   3.820   7.390  12.258 -0.1220  1.5776  0.4071
  163ccc     C6 4980   3.713   7.546  12.154  0.3546 -0.2979  0.6503
  163ccc     O1 4981   3.688   7.601  12.048 -0.0420  0.1481 -0.4904
  163ccc     O2 4982   3.665   7.598  12.273 -0.4267  0.0464  0.7532
  163ccc    H11 4983   3.677   7.526  12.337  1.3600 -0.4456 -0.0833
  163ccc     C7 4984   3.992   7.214  11.902 -0.2295  0.0585  0.3032
  163ccc    H12 4985   4.062   7.298  11.903  0.5900 -0.6153  0.4247
  163ccc    H13 4986   4.059   7.129  11.920 -0.4941 -0.8752 -2.5169
  163ccc     C8 4987   3.919   7.188  11.768 -0.2605 -0.3571 -0.1411
  163ccc    H14 4988   3.848   7.104  11.763 -0.1613 -0.4481 -0.0271
  163ccc    H15 4989   3.866   7.279  11.739  1.3206  0.9771  0.9680
  163ccc     C9 4990   4.019   7.185  11.657  0.0085 -0.2041 -0.7585
  163ccc     O3 4991   4.136   7.204  11.667 -0.2735  0.1751  0.2921
  163ccc     O4 4992   3.964   7.153  11.544  0.0763  0.6433 -0.1477
  163ccc    H16 4993   3.873   7.125  11.563 -0.5463  3.2523  1.2106
  163ccc     O5 4994   4.224   7.072  12.267 -0.1667  0.2927  0.4426
  163ccc    H17 4995   3.817   7.178  12.007  1.0541 -1.1138 -1.4110
  164ccc     C1 4996   3.499   6.068  12.093 -0.4866  0.3390 -0.0027
  164ccc     H1 4997   3.558   6.008  12.023 -1.6586 -1.6109  0.6011
  164ccc     H2 4998   3.551   6.038  12.185 -1.8450 -2.2068  0.0375
  164ccc     C2 4999   3.349   6.033  12.095  0.3585 -0.2969  0.0371
  164ccc     H3 5000   3.333   5.930  12.130 -0.3954  0.3842  1.8609
  164ccc     H4 5001   3.295   6.048  12.001 -1.9144 -2.5744  0.8448
  164ccc     C3 5002   3.271   6.102  12.211 -0.3555 -0.0228 -0.0198
  164ccc     H5 5003   3.301   6.207  12.208 -2.8879  0.7433 -0.8018
  164ccc     H6 5004   3.310   6.057  12.302  0.7030  0.1071 -0.3961
  164ccc     N1 5005   3.117   6.093  12.209  0.1305 -0.8054 -0.0987
  164ccc     C4 5006   3.052   6.170  12.318 -0.4487  0.7639  0.7368
  164ccc     H7 5007   2.948   6.142  12.303 -0.3059  1.3507 -1.6247
  164ccc     H8 5008   3.071   6.275  12.296  1.7735  0.1405 -0.6994
  164ccc     C5 5009   3.112   6.131  12.460  1.0085 -0.0382  0.3038
  164ccc     H9 5010   3.094   6.024  12.478 -0.9702  0.0590 -0.8605
  164ccc    H10 5011   3.222   6.139  12.459  0.9578  0.7844 -0.8275
  164ccc     C6 5012   3.060   6.216  12.571 -0.0540 -0.6483 -1.1864
  164ccc     O1 5013   3.008   6.325  12.549 -0.0251  0.3541  1.0239
  164ccc     O2 5014   3.017   6.145  12.679 -0.8119  0.2051  0.2429
  164ccc    H11 5015   2.994   6.218  12.739 -0.2604  0.3956  0.2181
  164ccc     C7 5016   3.054   6.127  12.070 -0.9982  0.1825 -0.2689
  164ccc    H12 5017   3.106   6.053  12.009  2.3268  0.9695  1.3485
  164ccc    H13 5018   2.947   6.105  12.068 -0.9364 -0.2546  0.6953
  164ccc     C8 5019   3.088   6.277  12.021  0.1735 -0.1463  0.8744
  164ccc    H14 5020   3.083   6.349  12.104  0.4548  0.4120  0.4105
  164ccc    H15 5021   3.188   6.285  11.978  0.3823 -0.6616  1.2493
  164ccc     C9 5022   2.988   6.318  11.913 -0.2980 -0.9797 -0.4239
  164ccc     O3 5023   2.901   6.250  11.856  0.2084 -0.4836  0.3964
  164ccc     O4 5024   3.018   6.445  11.875  0.5376 -0.0049 -0.5625
  164ccc    H16 5025   3.093   6.477  11.928 -0.9886 -0.0587  1.7192
  164ccc     O5 5026   3.509   6.211  12.072  0.0827 -0.6733  0.3381
  164ccc    H17 5027   3.097   5.994  12.230  2.5747 -1.3511 -0.0505
  165ccc     C1 5028   3.926   6.573  12.547  0.0009 -0.4907  0.0377
  165ccc     H1 5029   4.030   6.543  12.563  0.1870 -0.7548 -1.5155
  165ccc     H2 5030   3.912   6.682  12.554  0.2920 -0.5145  1.0654
  165ccc     C2 5031   3.828   6.501  12.638  0.2308  0.0429 -0.1652
  165ccc     H3 5032   3.729   6.528  12.600  1.1257  2.5725 -0.9811
  165ccc     H4 5033   3.846   6.544  12.737  0.9464 -0.0478 -0.2455
  165ccc     C3 5034   3.842   6.349  12.643 -0.3888  0.2357  0.2583
  165ccc     H5 5035   3.947   6.326  12.664  0.0264  1.5128 -0.3290
  165ccc     H6 5036   3.812   6.308  12.547  0.9848 -2.3645  0.8501
  165ccc     N1 5037   3.753   6.278  12.744 -0.5460 -0.1598  0.6307
  165ccc     C4 5038   3.597   6.302  12.722 -0.1492  0.3248  0.2851
  165ccc     H7 5039   3.572   6.254  12.627  2.1335  0.5272 -0.4871
  165ccc     H8 5040   3.588   6.410  12.704  0.0827  0.1495 -0.9609
  165ccc     C5 5041   3.504   6.256  12.829  0.3574  0.9048  0.9252
  165ccc     H9 5042   3.538   6.157  12.864 -1.6187 -0.6188 -1.1252
  165ccc    H10 5043   3.508   6.327  12.912  1.6675  1.1192  0.6980
  165ccc     C6 5044   3.360   6.237  12.777  0.5776 -0.2970 -0.5912
  165ccc     O1 5045   3.333   6.226  12.660 -0.1186  0.1970 -0.4218
  165ccc     O2 5046   3.272   6.185  12.868 -0.0448  0.2777  0.2256
  165ccc    H11 5047   3.321   6.188  12.952  0.4269 -0.6449 -0.0105
  165ccc     C7 5048   3.788   6.132  12.739  0.3170 -0.4381  0.1464
  165ccc    H12 5049   3.694   6.083  12.764 -0.6450  1.0379 -0.4035
  165ccc    H13 5050   3.812   6.102  12.637  0.1885  0.9492 -0.3238
  165ccc     C8 5051   3.894   6.090  12.839  0.0546 -0.2731 -0.4125
  165ccc    H14 5052   3.990   6.143  12.833  0.9825 -1.6783  1.2333
  165ccc    H15 5053   3.866   6.109  12.943  1.9088  1.5016 -0.1762
  165ccc     C9 5054   3.920   5.949  12.821  0.5881  0.5877 -0.0566
  165ccc     O3 5055   3.861   5.876  12.741 -0.2774 -0.2774 -0.3380
  165ccc     O4 5056   4.000   5.901  12.913 -0.2221  0.0775  0.3978
  165ccc    H16 5057   3.992   5.806  12.895  1.4922 -0.0017 -0.0219
  165ccc     O5 5058   3.890   6.532  12.417 -0.4757 -0.0361 -0.2635
  165ccc    H17 5059   3.778   6.311  12.839  2.4943 -0.5548  0.0607
  166ccc     C1 5060   4.812   6.630  11.604 -0.1766  0.9932 -0.0233
  166ccc     H1 5061   4.911   6.677  11.599 -0.1494  0.8518 -1.0267
  166ccc     H2 5062   4.751   6.713  11.641 -1.4038  0.4060 -0.6550
  166ccc     C2 5063   4.798   6.506  11.707  0.2621 -0.2098  0.0868
  166ccc     H3 5064   4.821   6.531  11.811  0.8655 -0.0875 -0.0733
  166ccc     H4 5065   4.880   6.439  11.680  1.7507  2.2464 -1.9110
  166ccc     C3 5066   4.649   6.442  11.703 -0.1636 -0.0683  0.0719
  166ccc     H5 5067   4.633   6.406  11.601 -0.8793 -1.0058  0.5057
  166ccc     H6 5068   4.577   6.521  11.727 -1.5960 -1.5551  0.8643
  166ccc     N1 5069   4.626   6.328  11.812 -1.0018 -0.1484  0.0258
  166ccc     C4 5070   4.604   6.399  11.946  0.0794  0.7338  0.0150
  166ccc     H7 5071   4.504   6.444  11.949 -0.0190  0.7063 -1.6781
  166ccc     H8 5072   4.680   6.477  11.953  0.1371  0.6542  0.2569
  166ccc     C5 5073   4.628   6.304  12.064 -0.8855 -0.0770 -1.3405
  166ccc     H9 5074   4.556   6.224  12.084  0.7621 -1.1707  0.4830
  166ccc    H10 5075   4.730   6.263  12.061 -0.6754  0.0440  1.7805
  166ccc     C6 5076   4.629   6.382  12.194 -0.5022  0.3995  0.0282
  166ccc     O1 5077   4.577   6.491  12.201 -0.4139  0.0220 -0.8471
  166ccc     O2 5078   4.700   6.324  12.297 -0.0514  0.3489 -0.4077
  166ccc    H11 5079   4.728   6.233  12.275  0.2521  0.3836 -0.1691
  166ccc     C7 5080   4.512   6.244  11.779  0.0406  0.3190 -0.1910
  166ccc    H12 5081   4.488   6.179  11.864 -0.1217 -0.1844 -0.6165
  166ccc    H13 5082   4.427   6.310  11.765 -0.7895 -1.1013 -2.2881
  166ccc     C8 5083   4.537   6.147  11.659  0.2470 -0.4897  0.4932
  166ccc    H14 5084   4.540   6.207  11.567  0.0638 -1.3662 -0.0996
  166ccc    H15 5085   4.632   6.091  11.661  0.9670  0.7206  0.9445
  166ccc     C9 5086   4.422   6.042  11.650 -0.4069  0.2788  0.8440
  166ccc     O3 5087   4.443   5.927  11.650  0.4355  0.1229  0.3460
  166ccc     O4 5088   4.318   6.086  11.573 -0.0730 -0.0902  0.2228
  166ccc    H16 5089   4.320   6.182  11.589 -2.5834  0.0722 -0.0691
  166ccc     O5 5090   4.764   6.586  11.475  0.1680 -0.1260  0.5065
  166ccc    H17 5091   4.706   6.263  11.813 -0.3438  0.5681 -1.6740
  167ccc     C1 5092   5.224   6.038  11.023 -0.5794 -0.4191  0.4805
  167ccc     H1 5093   5.319   6.084  10.992 -0.2155 -2.5924 -1.9196
  167ccc     H2 5094   5.235   5.999  11.125 -2.6987 -0.9848  0.5239
  167ccc     C2 5095   5.183   5.929  10.928 -0.2430  0.0129 -0.2444
  167ccc     H3 5096   5.239   5.835  10.931 -1.4867 -0.9731 -3.5969
  167ccc     H4 5097   5.197   5.972  10.828 -0.6039 -0.3547 -0.4542
  167ccc     C3 5098   5.039   5.891  10.952  0.6161 -0.5024  0.3882
  167ccc     H5 5099   4.976   5.972  10.915 -0.3474 -2.2119 -1.9158
  167ccc     H6 5100   5.025   5.882  11.060 -1.5935  1.2644  0.3406
  167ccc     N1 5101   4.993   5.762  10.888  0.3095  0.5449  0.1798
  167ccc     C4 5102   4.867   5.701  10.942 -0.0217 -0.0609 -0.5020
  167ccc     H7 5103   4.830   5.622  10.877 -1.2273  1.5569 -1.8624
  167ccc     H8 5104   4.792   5.780  10.945  0.1158  0.0843 -0.8880
  167ccc     C5 5105   4.884   5.652  11.086  0.3385  0.2205  0.3011
  167ccc     H9 5106   4.961   5.575  11.100 -1.3283 -1.1861  2.4270
  167ccc    H10 5107   4.897   5.740  11.150 -0.2310  0.7825 -0.3349
  167ccc     C6 5108   4.753   5.592  11.144  0.2620 -0.0066 -0.1418
  167ccc     O1 5109   4.644   5.614  11.104  0.0636 -0.0530 -0.2057
  167ccc     O2 5110   4.763   5.543  11.266  0.1930  0.0788 -0.2292
  167ccc    H11 5111   4.858   5.535  11.287 -0.1452 -2.1355  0.7825
  167ccc     C7 5112   4.975   5.796  10.739  0.1311  0.6037  0.1994
  167ccc    H12 5113   4.875   5.830  10.713 -0.5196 -2.9189 -2.7566
  167ccc    H13 5114   5.051   5.874  10.730  1.2082 -0.0819  2.4565
  167ccc     C8 5115   5.009   5.678  10.646 -0.2021  0.0711  0.5797
  167ccc    H14 5116   5.117   5.661  10.654  0.0051 -0.9482 -2.7154
  167ccc    H15 5117   4.960   5.582  10.670 -1.4371  0.1316 -1.4856
  167ccc     C9 5118   4.986   5.698  10.502  0.9842  0.0943 -0.2810
  167ccc     O3 5119   4.952   5.802  10.455  0.0847 -0.3321  0.4741
  167ccc     O4 5120   4.990   5.588  10.419  0.5959 -0.1156  0.2426
  167ccc    H16 5121   5.027   5.514  10.470 -3.3714 -0.5033  2.9768
  167ccc     O5 5122   5.118   6.138  11.029 -0.5155 -0.2641 -0.0386
  167ccc    H17 5123   5.073   5.698  10.899 -0.7846 -0.5209  2.8008
  168ccc     C1 5124   5.291   5.598   9.816 -0.2067 -0.1251  0.2076
  168ccc     H1 5125   5.274   5.495   9.852 -0.0945 -0.3131 -0.2742
  168ccc     H2 5126   5.196   5.631   9.772  0.4067  2.8794  0.9462
  168ccc     C2 5127   5.400   5.614   9.717  0.0697 -0.2342  0.1821
  168ccc     H3 5128   5.389   5.714   9.671  1.9864  0.7160  1.6460
  168ccc     H4 5129   5.381   5.543   9.636 -0.3195 -0.8102  0.7771
  168ccc     C3 5130   5.540   5.590   9.774  0.5286 -0.4684  0.0991
  168ccc     H5 5131   5.553   5.486   9.803 -0.8797 -0.4531  0.8763
  168ccc     H6 5132   5.554   5.654   9.862 -1.3456  0.7593 -0.4479
  168ccc     N1 5133   5.660   5.615   9.681 -0.0781  0.2514 -0.0184
  168ccc     C4 5134   5.663   5.756   9.626 -0.3574 -0.1584 -0.4883
  168ccc     H7 5135   5.578   5.772   9.560  1.5115  1.0142 -2.7735
  168ccc     H8 5136   5.746   5.775   9.557 -1.6612  2.0797 -1.5748
  168ccc     C5 5137   5.673   5.862   9.733  0.0294 -0.2425  0.3956
  168ccc     H9 5138   5.579   5.874   9.788 -0.6295 -1.0699 -0.5151
  168ccc    H10 5139   5.745   5.833   9.810 -1.2697  1.0828  2.1937
  168ccc     C6 5140   5.724   5.993   9.680 -0.2317 -0.7060 -0.2842
  168ccc     O1 5141   5.768   6.021   9.569 -0.0797  0.4531  0.1996
  168ccc     O2 5142   5.716   6.084   9.783 -0.5669  0.0578  0.2204
  168ccc    H11 5143   5.692   6.041   9.866  5.0337 -2.1258  1.1358
  168ccc     C7 5144   5.798   5.577   9.746 -0.1012 -0.2949  0.1948
  168ccc    H12 5145   5.862   5.585   9.658 -0.2225  0.6839  0.1898
  168ccc    H13 5146   5.843   5.649   9.814  1.4246  0.2522 -1.3369
  168ccc     C8 5147   5.807   5.436   9.813  0.3997  0.2647  0.2305
  168ccc    H14 5148   5.774   5.442   9.917  1.2756 -1.1297  0.6307
  168ccc    H15 5149   5.740   5.367   9.760 -0.6082  2.1018 -0.9564
  168ccc     C9 5150   5.946   5.377   9.827  0.2707  0.6642  0.4084
  168ccc     O3 5151   6.049   5.437   9.805  0.6575 -0.1329 -0.3411
  168ccc     O4 5152   5.943   5.270   9.895  0.0056 -0.2981  0.1030
  168ccc    H16 5153   6.038   5.261   9.913 -0.1652 -0.2050  1.0805
  168ccc     O5 5154   5.308   5.694   9.931  0.0186  0.0163  0.3729
  168ccc    H17 5155   5.650   5.542   9.609 -0.8434 -1.7055  1.9397
  169ccc     C1 5156   5.267   6.334   9.525 -0.5037  0.2970  0.1631
  169ccc     H1 5157   5.348   6.401   9.557 -1.2243  1.4993 -0.4325
  169ccc     H2 5158   5.304   6.278   9.439  0.1622  0.4347  0.3554
  169ccc     C2 5159   5.144   6.415   9.483  0.3266  0.8661  0.6127
  169ccc     H3 5160   5.170   6.481   9.399  0.0152 -0.5218 -0.6218
  169ccc     H4 5161   5.103   6.472   9.567 -0.8723  0.0091  0.6382
  169ccc     C3 5162   5.034   6.312   9.438  0.1494  0.2666 -0.0492
  169ccc     H5 5163   5.017   6.231   9.509 -1.8729  1.8698  1.4132
  169ccc     H6 5164   5.067   6.256   9.350 -0.1383 -1.4448  0.8917
  169ccc     N1 5165   4.897   6.363   9.411 -0.1811  0.3802  0.1257
  169ccc     C4 5166   4.885   6.449   9.294 -0.9786 -0.5211  0.1134
  169ccc     H7 5167   4.911   6.388   9.208 -1.4067  1.0601 -1.1983
  169ccc     H8 5168   4.959   6.529   9.296 -1.7858  0.3369  4.1607
  169ccc     C5 5169   4.750   6.512   9.267  0.0715  0.6003 -0.1697
  169ccc     H9 5170   4.670   6.437   9.269  0.7018 -0.0889  1.6755
  169ccc    H10 5171   4.733   6.591   9.340 -0.5125 -1.2403  1.7895
  169ccc     C6 5172   4.748   6.577   9.132  0.7379 -0.5802 -0.1669
  169ccc     O1 5173   4.850   6.595   9.062  0.2044 -0.4903  0.4573
  169ccc     O2 5174   4.625   6.620   9.099  0.3926 -0.1941 -0.6526
  169ccc    H11 5175   4.566   6.574   9.162 -0.2762 -0.1081 -1.2019
  169ccc     C7 5176   4.794   6.247   9.401 -0.8094 -0.0024  0.0380
  169ccc    H12 5177   4.699   6.282   9.360 -0.7324  2.2319  1.5523
  169ccc    H13 5178   4.845   6.172   9.340  2.3418  3.0160 -1.3733
  169ccc     C8 5179   4.758   6.201   9.545 -0.2063 -0.3503  0.2488
  169ccc    H14 5180   4.845   6.188   9.611  0.9514 -1.4464 -1.4031
  169ccc    H15 5181   4.690   6.272   9.592  0.1006  1.5943 -2.0233
  169ccc     C9 5182   4.700   6.067   9.543  0.7082 -0.0969  0.2356
  169ccc     O3 5183   4.613   6.039   9.460 -0.1146  0.2798  0.5501
  169ccc     O4 5184   4.765   5.967   9.600 -0.5798  0.0555  0.0966
  169ccc    H16 5185   4.716   5.890   9.567 -0.5760 -0.5524  1.4276
  169ccc     O5 5186   5.228   6.233   9.615 -0.2480 -0.6670  0.1745
  169ccc    H17 5187   4.872   6.434   9.483  0.1133  0.4661  0.1459
  170ccc     C1 5188   4.204   5.366  10.052  0.1967 -0.4166  0.8347
  170ccc     H1 5189   4.176   5.264  10.021  1.3108 -0.0460 -1.6826
  170ccc     H2 5190   4.278   5.399   9.977 -0.6881 -0.0942  0.0756
  170ccc     C2 5191   4.262   5.360  10.195  0.8655 -0.9338 -0.2767
  170ccc     H3 5192   4.187   5.320  10.264 -0.9909  1.1677 -0.9613
  170ccc     H4 5193   4.277   5.466  10.222 -1.2182 -0.2522 -1.5877
  170ccc     C3 5194   4.390   5.284  10.209  0.5796  0.0859  0.3559
  170ccc     H5 5195   4.391   5.198  10.142  0.3738 -1.0771  1.8044
  170ccc     H6 5196   4.390   5.244  10.310 -0.8271  1.9251  1.1686
  170ccc     N1 5197   4.519   5.370  10.178  0.3794  0.1589 -0.4031
  170ccc     C4 5198   4.551   5.481  10.274 -0.0109  0.0048 -0.4663
  170ccc     H7 5199   4.586   5.437  10.368  1.7027  0.1835 -0.9866
  170ccc     H8 5200   4.454   5.526  10.295 -1.0598 -1.1817 -2.4781
  170ccc     C5 5201   4.648   5.587  10.222  0.8241 -0.2211 -0.3070
  170ccc     H9 5202   4.736   5.531  10.187 -0.2120 -2.2116  0.1182
  170ccc    H10 5203   4.610   5.643  10.135 -1.0313  0.6332  0.9971
  170ccc     C6 5204   4.676   5.690  10.325  0.1991  0.1750  0.5282
  170ccc     O1 5205   4.651   5.678  10.448 -0.2694  0.5814 -0.0506
  170ccc     O2 5206   4.738   5.798  10.279  0.1582 -0.5149  0.1108
  170ccc    H11 5207   4.767   5.858  10.350  0.6835  0.0953 -0.5973
  170ccc     C7 5208   4.626   5.256  10.181  0.0002 -0.1191 -0.0982
  170ccc    H12 5209   4.717   5.316  10.175 -0.6712  0.8278 -0.9640
  170ccc    H13 5210   4.617   5.192  10.269 -0.6346 -3.0696 -2.1388
  170ccc     C8 5211   4.626   5.156  10.061  0.3286 -0.1527  0.4588
  170ccc    H14 5212   4.546   5.081  10.068  0.5872 -0.5989 -0.9108
  170ccc    H15 5213   4.619   5.205   9.963 -0.4309 -0.0535  0.5565
  170ccc     C9 5214   4.751   5.080  10.057 -0.0016 -0.4009  0.5600
  170ccc     O3 5215   4.837   5.082  10.142  0.1977 -0.1339 -0.0253
  170ccc     O4 5216   4.769   4.999   9.949 -0.0791 -0.4979  0.0682
  170ccc    H16 5217   4.686   5.001   9.899 -0.7055 -0.5810  1.0750
  170ccc     O5 5218   4.089   5.462  10.057 -1.0753  0.2026  0.0445
  170ccc    H17 5219   4.513   5.412  10.084  1.3908 -1.0727 -1.0466
  171ccc     C1 5220   3.532   5.027  10.342 -0.2212  0.8225 -0.3616
  171ccc     H1 5221   3.486   5.075  10.429 -0.9758 -0.4295 -0.0479
  171ccc     H2 5222   3.450   5.016  10.270 -1.2280  0.7245  0.7737
  171ccc     C2 5223   3.593   4.881  10.367  0.0636 -0.8559 -0.1549
  171ccc     H3 5224   3.518   4.821  10.420 -0.2752  0.4416  0.8655
  171ccc     H4 5225   3.680   4.897  10.431  1.2085 -0.4510 -1.7641
  171ccc     C3 5226   3.623   4.800  10.236 -0.5316  0.0460  0.1847
  171ccc     H5 5227   3.613   4.865  10.149  0.4716 -0.8362 -0.6255
  171ccc     H6 5228   3.535   4.737  10.233 -1.7055  1.4046  2.6125
  171ccc     N1 5229   3.753   4.713  10.226  0.3235 -0.1001 -0.3348
  171ccc     C4 5230   3.748   4.652  10.089  0.2160  0.2496 -0.2756
  171ccc     H7 5231   3.753   4.731  10.014  1.1255 -0.2015 -0.7030
  171ccc     H8 5232   3.656   4.596  10.073 -1.0183  2.0776  0.1148
  171ccc     C5 5233   3.868   4.570  10.052  0.1453  0.5756  0.0519
  171ccc     H9 5234   3.881   4.558   9.943  2.7314  1.5513  0.1651
  171ccc    H10 5235   3.965   4.607  10.088 -0.6499  1.2406  1.5905
  171ccc     C6 5236   3.868   4.434  10.118 -0.9544  0.5319 -0.4969
  171ccc     O1 5237   3.765   4.381  10.147  0.3306  0.1486  0.1171
  171ccc     O2 5238   3.982   4.367  10.124  0.2090  0.4261  0.3633
  171ccc    H11 5239   3.954   4.292  10.179 -2.4949  1.2542  0.2729
  171ccc     C7 5240   3.875   4.798  10.254  0.2744 -0.0471  0.1077
  171ccc    H12 5241   3.856   4.837  10.354 -0.6446 -3.0527  1.2252
  171ccc    H13 5242   3.963   4.735  10.239 -0.4263 -0.3963 -3.6780
  171ccc     C8 5243   3.899   4.909  10.148 -0.4200  0.3228  0.2019
  171ccc    H14 5244   3.890   4.867  10.047 -4.4755  0.8571  0.1797
  171ccc    H15 5245   3.823   4.987  10.151  0.7914  1.7621 -2.5857
  171ccc     C9 5246   4.033   4.971  10.170  0.1299 -0.4700  0.0516
  171ccc     O3 5247   4.102   4.936  10.266  0.0668  0.3096  0.8032
  171ccc     O4 5248   4.056   5.080  10.087 -0.2183  0.6141 -0.0926
  171ccc    H16 5249   3.981   5.096  10.027  1.2870  3.7070 -1.4012
  171ccc     O5 5250   3.635   5.100  10.281  0.3573 -0.9025 -0.4327
  171ccc    H17 5251   3.750   4.635  10.293 -0.4445 -0.3941 -0.7070
  172ccc     C1 5252   2.794   5.438   9.986  0.4026  0.2436  0.0171
  172ccc     H1 5253   2.722   5.446   9.904  0.9324  0.7783 -0.4077
  172ccc     H2 5254   2.892   5.463   9.942  0.2532  1.2457  0.2347
  172ccc     C2 5255   2.796   5.293  10.045 -0.1677 -0.3388  0.3661
  172ccc     H3 5256   2.872   5.298  10.125  0.8033  0.7894 -0.5888
  172ccc     H4 5257   2.831   5.216   9.976  0.0689 -0.8876  1.0820
  172ccc     C3 5258   2.661   5.256  10.099  0.1549 -0.5014 -0.2567
  172ccc     H5 5259   2.589   5.263  10.017 -0.2482 -1.2990  0.0286
  172ccc     H6 5260   2.635   5.327  10.178 -0.4175  0.0103 -0.8962
  172ccc     N1 5261   2.646   5.112  10.136 -0.6648  0.6852 -0.6194
  172ccc     C4 5262   2.546   5.070  10.247 -0.7839  1.1900  0.9223
  172ccc     H7 5263   2.549   4.961  10.254 -1.6300  1.1159  0.3052
  172ccc     H8 5264   2.444   5.103  10.223 -0.5301  0.9152 -0.6583
  172ccc     C5 5265   2.596   5.112  10.384 -0.1288  0.2447 -0.1540
  172ccc     H9 5266   2.696   5.074  10.406  0.7637  2.4481 -0.2194
  172ccc    H10 5267   2.600   5.222  10.387  1.6363  0.2252 -0.8411
  172ccc     C6 5268   2.503   5.063  10.499  0.1019 -0.2446  0.1027
  172ccc     O1 5269   2.389   5.019  10.487 -0.3777 -0.6160  0.0462
  172ccc     O2 5270   2.540   5.121  10.615  0.0768  0.4992  0.0855
  172ccc    H11 5271   2.465   5.096  10.671  0.2358  1.7297  0.9041
  172ccc     C7 5272   2.604   5.047  10.006 -0.2211  0.3758  0.4579
  172ccc    H12 5273   2.501   5.079   9.997 -0.9900 -1.7773  0.9113
  172ccc    H13 5274   2.656   5.086   9.918  1.2147 -2.8234 -0.2710
  172ccc     C8 5275   2.608   4.890  10.003  0.1965  0.1190 -0.5983
  172ccc    H14 5276   2.704   4.848  10.035  0.2036 -1.2793 -2.3337
  172ccc    H15 5277   2.525   4.860  10.067 -0.1972 -2.2946 -2.1413
  172ccc     C9 5278   2.576   4.828   9.867  0.6977 -0.1355  0.1956
  172ccc     O3 5279   2.548   4.890   9.768 -0.3456  0.5202  0.5859
  172ccc     O4 5280   2.581   4.695   9.866  0.2789  0.1458  0.2012
  172ccc    H16 5281   2.605   4.669   9.957 -0.5747 -0.0661  0.3733
  172ccc     O5 5282   2.754   5.533  10.095 -0.1564  0.3028 -0.0278
  172ccc    H17 5283   2.739   5.092  10.175  0.0689 -0.1997 -2.6768
  173ccc     C1 5284   2.204   6.003  10.342 -0.3134  0.0606  0.1201
  173ccc     H1 5285   2.133   6.051  10.410 -0.1903  0.6457 -0.1572
  173ccc     H2 5286   2.241   6.069  10.262  1.4840 -0.0530  0.8091
  173ccc     C2 5287   2.139   5.890  10.267  0.2285 -0.2925  0.3001
  173ccc     H3 5288   2.211   5.826  10.215 -0.6364 -0.4031 -0.8024
  173ccc     H4 5289   2.082   5.925  10.180  1.2070 -0.4336 -0.4218
  173ccc     C3 5290   2.051   5.794  10.352 -0.3589 -0.2774 -0.8254
  173ccc     H5 5291   2.011   5.709  10.297 -2.6991  1.2946 -1.7021
  173ccc     H6 5292   1.969   5.851  10.397 -0.7332 -1.0341 -0.5256
  173ccc     N1 5293   2.119   5.747  10.485 -0.1281 -0.2554  0.5435
  173ccc     C4 5294   2.024   5.662  10.560 -0.0777 -0.7593  0.5876
  173ccc     H7 5295   2.004   5.571  10.503 -0.6885  0.8249 -1.9010
  173ccc     H8 5296   1.928   5.713  10.556 -1.1591 -2.7238  0.3301
  173ccc     C5 5297   2.069   5.638  10.708 -0.5648 -0.3443  0.5070
  173ccc     H9 5298   2.161   5.579  10.703 -0.5751 -0.2448 -2.6468
  173ccc    H10 5299   2.082   5.725  10.774 -0.7006 -0.7699  1.1050
  173ccc     C6 5300   1.962   5.553  10.768  0.1067  0.0180  0.5659
  173ccc     O1 5301   1.841   5.572  10.770 -0.3950 -0.1417  0.4488
  173ccc     O2 5302   2.002   5.441  10.818  1.0097 -0.4416 -0.2352
  173ccc    H11 5303   1.912   5.409  10.836  0.3559  1.3099 -0.1758
  173ccc     C7 5304   2.250   5.668  10.460  0.0344 -0.0904  0.3621
  173ccc    H12 5305   2.318   5.739  10.412 -0.9516  1.0856  0.6645
  173ccc    H13 5306   2.291   5.621  10.550  0.7093  0.7638  0.5115
  173ccc     C8 5307   2.227   5.550  10.356 -0.3584  0.1097 -0.5942
  173ccc    H14 5308   2.158   5.474  10.395 -0.1442 -0.6616 -1.6518
  173ccc    H15 5309   2.185   5.590  10.263  0.3688  0.7798 -0.6439
  173ccc     C9 5310   2.349   5.466  10.339 -0.0761 -0.1923  0.5084
  173ccc     O3 5311   2.459   5.497  10.379  0.2066 -0.6082  0.3470
  173ccc     O4 5312   2.321   5.373  10.251  0.3708  0.3184 -0.2057
  173ccc    H16 5313   2.226   5.381  10.232  0.6310 -1.8711 -3.1843
  173ccc     O5 5314   2.321   5.952  10.414 -0.0209 -0.1837  0.1233
  173ccc    H17 5315   2.143   5.825  10.548  0.9051  0.7711 -1.0494
  174ccc     C1 5316   2.474   9.147   9.651  0.1538  0.0420  0.0109
  174ccc     H1 5317   2.569   9.169   9.602  0.5337 -0.1787  0.6338
  174ccc     H2 5318   2.498   9.064   9.718 -0.7678  2.1291  3.1994
  174ccc     C2 5319   2.368   9.109   9.547  0.0497 -0.2405 -0.3663
  174ccc     H3 5320   2.410   9.021   9.496 -0.8325 -0.1089 -1.3720
  174ccc     H4 5321   2.362   9.188   9.471 -1.8992  0.3520  0.3479
  174ccc     C3 5322   2.228   9.089   9.611  0.1973  0.4901 -0.4833
  174ccc     H5 5323   2.198   9.177   9.667  0.6641  0.3918 -0.0677
  174ccc     H6 5324   2.233   9.001   9.675  0.7338  0.4411 -0.5827
  174ccc     N1 5325   2.120   9.062   9.506  0.2102 -0.2977  0.0815
  174ccc     C4 5326   2.140   8.921   9.449 -0.0770 -0.0715  0.7049
  174ccc     H7 5327   2.138   8.842   9.525 -1.4153 -0.0148  0.7521
  174ccc     H8 5328   2.238   8.925   9.403 -0.7014  0.3785 -0.6312
  174ccc     C5 5329   2.050   8.890   9.323 -0.1329  0.3714 -0.1538
  174ccc     H9 5330   1.945   8.885   9.354 -0.3413  1.3841 -0.6509
  174ccc    H10 5331   2.070   8.967   9.248  1.0271 -0.1398 -0.3830
  174ccc     C6 5332   2.075   8.756   9.259 -0.4681  0.2436 -0.1287
  174ccc     O1 5333   2.164   8.679   9.297 -0.4478  0.1514 -0.3500
  174ccc     O2 5334   1.971   8.697   9.193  0.2167  0.0524 -0.4985
  174ccc    H11 5335   1.901   8.763   9.179 -0.0628 -0.6582 -2.9104
  174ccc     C7 5336   1.973   9.086   9.556 -0.4313  0.4647  0.2183
  174ccc    H12 5337   1.901   9.047   9.483  0.1491  0.9726 -0.6340
  174ccc    H13 5338   1.966   9.048   9.658  1.4415 -0.0666  0.1850
  174ccc     C8 5339   1.935   9.234   9.562  0.3169 -0.3332  0.0909
  174ccc    H14 5340   2.001   9.273   9.640  2.1513 -1.6604 -0.7275
  174ccc    H15 5341   1.962   9.279   9.465  0.5712 -0.9859 -0.1503
  174ccc     C9 5342   1.790   9.260   9.611 -0.1564  0.5161  0.2554
  174ccc     O3 5343   1.709   9.173   9.630  0.6104 -0.3454  0.4314
  174ccc     O4 5344   1.753   9.390   9.628  0.4517 -0.4619 -0.4944
  174ccc    H16 5345   1.837   9.435   9.612 -0.4053  1.6308  0.5016
  174ccc     O5 5346   2.427   9.256   9.730  0.2483  0.1491 -0.0000
  174ccc    H17 5347   2.138   9.128   9.428  1.5980 -3.3053 -2.3273
  175ccc     C1 5348   1.970   9.741   9.876 -0.4679  0.5640  0.2802
  175ccc     H1 5349   1.881   9.704   9.822 -0.1912  0.1744  0.0855
  175ccc     H2 5350   1.947   9.808   9.959  3.5928  0.6005  1.5515
  175ccc     C2 5351   2.061   9.833   9.785  0.1815 -0.4088 -0.4704
  175ccc     H3 5352   2.000   9.906   9.730  2.2424  1.6806 -0.1539
  175ccc     H4 5353   2.107   9.774   9.704  1.5918 -0.0950  0.0810
  175ccc     C3 5354   2.169   9.909   9.863 -0.5781  0.1172  0.2326
  175ccc     H5 5355   2.219   9.836   9.928  0.9905  1.0259  0.0943
  175ccc     H6 5356   2.110   9.978   9.923 -2.4055  0.3809 -1.7394
  175ccc     N1 5357   2.280   9.975   9.783  0.0332 -0.2166  0.2570
  175ccc     C4 5358   2.368   9.870   9.711  0.3293  0.8088  0.1539
  175ccc     H7 5359   2.407   9.902   9.614 -0.8435  2.5144  0.2044
  175ccc     H8 5360   2.293   9.795   9.683  1.9902 -1.1096  0.5987
  175ccc     C5 5361   2.481   9.807   9.793 -0.2339  0.1951  0.0814
  175ccc     H9 5362   2.555   9.883   9.820 -1.5478  1.3959  0.4238
  175ccc    H10 5363   2.458   9.766   9.892  1.1698 -1.2556 -0.1482
  175ccc     C6 5364   2.559   9.699   9.723  0.3236  0.0726  0.1002
  175ccc     O1 5365   2.509   9.621   9.643 -0.3415 -0.4063 -0.2403
  175ccc     O2 5366   2.687   9.696   9.761  0.0968 -0.0791  0.1329
  175ccc    H11 5367   2.726   9.632   9.699  1.7268  2.3023 -1.4219
  175ccc     C7 5368   2.209  10.068   9.679 -0.5859 -0.6725  0.4211
  175ccc    H12 5369   2.138  10.006   9.624 -2.3798 -1.4231  3.3708
  175ccc    H13 5370   2.157  10.150   9.730  0.0544 -0.0448  0.0969
  175ccc     C8 5371   2.316  10.136   9.585 -0.0410  0.3089  0.1621
  175ccc    H14 5372   2.389  10.205   9.629 -0.0636  1.3513 -1.3490
  175ccc    H15 5373   2.363  10.057   9.525 -2.0103 -2.0665  1.5804
  175ccc     C9 5374   2.245  10.236   9.491  0.2155 -0.6406  0.0387
  175ccc     O3 5375   2.129  10.269   9.515  0.0860  0.5783  0.6585
  175ccc     O4 5376   2.306  10.299   9.386 -0.3638 -0.0545 -0.0837
  175ccc    H16 5377   2.399  10.279   9.408 -0.3999  0.5247  0.6370
  175ccc     O5 5378   2.051   9.627   9.911 -0.6867 -0.3013  0.1707
  175ccc    H17 5379   2.348  10.027   9.840  0.1013  0.1219 -0.1298
  176ccc     C1 5380   2.739   8.378   9.484 -0.1380  0.3084  0.2757
  176ccc     H1 5381   2.751   8.487   9.495  2.6401  0.1591 -0.4464
  176ccc     H2 5382   2.826   8.345   9.426  0.6222 -0.1496  1.6456
  176ccc     C2 5383   2.606   8.333   9.418 -0.1511  0.1413 -0.2882
  176ccc     H3 5384   2.598   8.394   9.326 -1.6831  0.1604 -0.1713
  176ccc     H4 5385   2.514   8.364   9.469 -0.5170 -1.4692  0.0906
  176ccc     C3 5386   2.600   8.180   9.386 -0.2008  0.4026 -0.7083
  176ccc     H5 5387   2.560   8.126   9.472 -0.5888  0.4558 -0.8495
  176ccc     H6 5388   2.694   8.138   9.351  0.0651  0.2828  0.1186
  176ccc     N1 5389   2.500   8.141   9.270 -0.4659 -0.2120 -0.0678
  176ccc     C4 5390   2.492   7.990   9.259 -0.2702  0.4337 -0.0973
  176ccc     H7 5391   2.419   7.956   9.186 -0.6553  0.3056  0.3385
  176ccc     H8 5392   2.460   7.964   9.361  2.9957 -1.0378  0.6805
  176ccc     C5 5393   2.625   7.921   9.224  0.5856  0.0338  0.8652
  176ccc     H9 5394   2.657   7.968   9.130 -2.4652  1.8097  0.5656
  176ccc    H10 5395   2.705   7.944   9.296  0.3855  2.2065  0.4622
  176ccc     C6 5396   2.604   7.772   9.196 -0.7405  0.2833 -0.5409
  176ccc     O1 5397   2.495   7.715   9.201 -0.7686 -1.0273  0.1062
  176ccc     O2 5398   2.715   7.696   9.211  0.5648 -0.3856  0.0179
  176ccc    H11 5399   2.680   7.606   9.205 -1.4220  0.4276 -3.7049
  176ccc     C7 5400   2.355   8.199   9.294 -0.2259  0.1010  0.6217
  176ccc    H12 5401   2.352   8.303   9.264 -1.2199 -0.0250  0.2738
  176ccc    H13 5402   2.290   8.147   9.224  0.2021 -0.7279  0.8227
  176ccc     C8 5403   2.284   8.174   9.430 -0.5795  0.0663 -0.0824
  176ccc    H14 5404   2.252   8.069   9.425  1.0865 -0.5507  1.5564
  176ccc    H15 5405   2.352   8.193   9.513 -0.5518  2.3663 -0.5685
  176ccc     C9 5406   2.169   8.264   9.445  0.4281  0.2565 -0.2898
  176ccc     O3 5407   2.187   8.381   9.424 -0.1847 -0.4360 -0.0835
  176ccc     O4 5408   2.084   8.225   9.540 -0.1223  0.3729  1.1444
  176ccc    H16 5409   2.091   8.128   9.548 -0.8848  0.3195  1.1584
  176ccc     O5 5410   2.741   8.314   9.610  0.3080  0.4651 -0.5307
  176ccc    H17 5411   2.530   8.163   9.174  2.1989 -0.1122  0.7071
  177ccc     C1 5412   2.976   8.990  10.195  0.0677  0.0669  0.1985
  177ccc     H1 5413   2.971   9.083  10.138  0.0138  0.8096  1.3993
  177ccc     H2 5414   2.946   9.007  10.299  0.7927 -0.2045  0.4578
  177ccc     C2 5415   3.127   8.945  10.187  0.0081 -0.3588  0.1133
  177ccc     H3 5416   3.191   9.031  10.209  1.1043 -0.9529 -0.6660
  177ccc     H4 5417   3.151   8.910  10.086  1.3670  0.2316  0.2157
  177ccc     C3 5418   3.163   8.836  10.296  0.0345 -0.4306  0.4925
  177ccc     H5 5419   3.100   8.756  10.256 -0.1111  0.4342 -1.0914
  177ccc     H6 5420   3.141   8.877  10.394 -2.3090  2.2566 -0.9870
  177ccc     N1 5421   3.317   8.812  10.298 -0.5085  0.5535  0.1771
  177ccc     C4 5422   3.346   8.722  10.420  0.5158  0.1672  0.5006
  177ccc     H7 5423   3.421   8.646  10.399  0.4216  0.6101 -1.6997
  177ccc     H8 5424   3.256   8.666  10.442  1.5107 -1.8272 -0.2512
  177ccc     C5 5425   3.377   8.800  10.545 -0.0200  0.6679 -0.9980
  177ccc     H9 5426   3.465   8.862  10.525  1.7109 -0.9383  1.2093
  177ccc    H10 5427   3.306   8.872  10.587  1.6190  0.8019  1.7964
  177ccc     C6 5428   3.406   8.713  10.663  0.7745  0.0300 -0.3328
  177ccc     O1 5429   3.382   8.593  10.672  0.2194  0.2564  0.1439
  177ccc     O2 5430   3.461   8.768  10.774  0.3136 -0.4933  0.0417
  177ccc    H11 5431   3.455   8.864  10.758  0.9876 -0.5143 -0.3703
  177ccc     C7 5432   3.356   8.741  10.165 -0.0967  0.2984  0.0872
  177ccc    H12 5433   3.304   8.647  10.150  0.2457 -0.2000  1.7439
  177ccc    H13 5434   3.319   8.806  10.086 -0.9564  0.9876  1.0143
  177ccc     C8 5435   3.505   8.728  10.150  0.5871  0.1002 -0.4249
  177ccc    H14 5436   3.546   8.824  10.184 -1.6977  0.2342  2.4072
  177ccc    H15 5437   3.549   8.656  10.220  1.6697  0.4336 -0.7400
  177ccc     C9 5438   3.549   8.682  10.012  1.1585 -0.5266  1.0642
  177ccc     O3 5439   3.472   8.633   9.933 -0.4186 -0.0541  0.0132
  177ccc     O4 5440   3.680   8.716   9.983 -0.0863  0.7835 -0.0192
  177ccc    H16 5441   3.726   8.749  10.062  3.8652 -0.2211 -1.6405
  177ccc     O5 5442   2.896   8.892  10.127  0.4952 -0.2783 -0.3690
  177ccc    H17 5443   3.376   8.896  10.306  3.1702 -1.7313 -0.5837
  178ccc     C1 5444   1.707   9.590  11.466  0.4634 -0.0706 -0.1320
  178ccc     H1 5445   1.619   9.562  11.526 -1.1299 -0.9813 -2.6993
  178ccc     H2 5446   1.673   9.679  11.411  1.7665  0.8551  0.5141
  178ccc     C2 5447   1.760   9.468  11.379  0.3893  0.0695  0.5624
  178ccc     H3 5448   1.776   9.373  11.432 -1.1446 -0.8552 -0.5354
  178ccc     H4 5449   1.856   9.503  11.341  0.0348  1.2372  0.7035
  178ccc     C3 5450   1.661   9.440  11.266  0.3292 -0.5467 -0.5973
  178ccc     H5 5451   1.625   9.538  11.233  2.4458  0.6258  0.3520
  178ccc     H6 5452   1.568   9.399  11.307  0.0056  0.3171 -0.4429
  178ccc     N1 5453   1.705   9.363  11.144 -0.6665 -0.1668 -0.3476
  178ccc     C4 5454   1.809   9.454  11.064  0.1505  0.2944 -0.2319
  178ccc     H7 5455   1.897   9.465  11.127 -0.4177  0.3521  0.5720
  178ccc     H8 5456   1.771   9.553  11.039  0.8776  0.8355  0.7243
  178ccc     C5 5457   1.859   9.389  10.931  0.3244  0.0133 -0.5632
  178ccc     H9 5458   1.880   9.283  10.955  0.0201 -1.2107 -4.9546
  178ccc    H10 5459   1.795   9.385  10.843  2.3658 -1.0502 -2.0925
  178ccc     C6 5460   1.995   9.447  10.885 -0.2809 -0.2040 -0.0100
  178ccc     O1 5461   2.057   9.532  10.956  0.2238 -0.0847 -0.1170
  178ccc     O2 5462   2.046   9.395  10.774  0.6013 -0.7182 -0.3269
  178ccc    H11 5463   2.128   9.448  10.772  0.2606 -0.1683  0.0902
  178ccc     C7 5464   1.771   9.231  11.192 -0.0611  0.1830 -0.1053
  178ccc    H12 5465   1.799   9.173  11.104 -0.1332  0.0941 -0.0707
  178ccc    H13 5466   1.865   9.253  11.242 -0.4729  2.2447 -0.1470
  178ccc     C8 5467   1.690   9.142  11.284  0.2667  0.2581  0.5964
  178ccc    H14 5468   1.651   9.197  11.371 -0.3453 -0.1406  0.5825
  178ccc    H15 5469   1.606   9.107  11.222  1.9546  0.0763 -1.7392
  178ccc     C9 5470   1.771   9.025  11.328 -0.4749  0.5155 -0.1852
  178ccc     O3 5471   1.886   9.014  11.307 -0.3792  0.1259  0.2479
  178ccc     O4 5472   1.706   8.937  11.408  0.0059 -0.0268 -0.0837
  178ccc    H16 5473   1.619   8.977  11.424  0.2604  1.4585 -1.9684
  178ccc     O5 5474   1.805   9.626  11.566  0.3845  0.6843  0.6850
  178ccc    H17 5475   1.626   9.339  11.083 -0.8351 -4.3380  1.2432
  179ccc     C1 5476   2.303   9.460  12.208  0.4565 -1.1330  0.0299
  179ccc     H1 5477   2.313   9.568  12.224  1.5828 -1.5369  2.6344
  179ccc     H2 5478   2.264   9.417  12.302  0.9170 -0.2900  0.6129
  179ccc     C2 5479   2.437   9.393  12.187  0.4901  0.2841  0.5697
  179ccc     H3 5480   2.469   9.405  12.083  0.4403 -1.7813  0.2892
  179ccc     H4 5481   2.413   9.286  12.190 -1.0503  0.4875 -1.9017
  179ccc     C3 5482   2.543   9.435  12.291  0.3186  0.3258 -0.2257
  179ccc     H5 5483   2.618   9.356  12.297 -1.2760 -1.4261 -1.8226
  179ccc     H6 5484   2.490   9.436  12.387 -0.0263 -0.5547 -0.3950
  179ccc     N1 5485   2.611   9.571  12.271  0.0932  0.4189 -0.5611
  179ccc     C4 5486   2.720   9.584  12.382  0.4060 -0.2966  0.2148
  179ccc     H7 5487   2.801   9.648  12.347  1.2152 -0.5066  1.6207
  179ccc     H8 5488   2.760   9.483  12.392 -1.2212 -1.2341 -1.9449
  179ccc     C5 5489   2.665   9.623  12.515 -0.7804  0.2642 -0.5263
  179ccc     H9 5490   2.635   9.729  12.506  0.6183  0.6908 -0.4144
  179ccc    H10 5491   2.585   9.560  12.556 -0.4305  0.5324  0.5939
  179ccc     C6 5492   2.770   9.626  12.622 -0.7669  0.1504 -0.1743
  179ccc     O1 5493   2.886   9.589  12.611  0.3550  0.7618  0.1328
  179ccc     O2 5494   2.725   9.696  12.728  0.6057  0.2754 -0.3938
  179ccc    H11 5495   2.630   9.712  12.717  0.2290 -2.0800 -1.0840
  179ccc     C7 5496   2.675   9.582  12.131 -0.2732  0.1363  0.9441
  179ccc    H12 5497   2.776   9.540  12.123 -0.9742 -1.3464 -1.2641
  179ccc    H13 5498   2.609   9.541  12.053  2.4201 -1.0009 -0.8957
  179ccc     C8 5499   2.684   9.721  12.088 -0.2735 -0.8740  0.1593
  179ccc    H14 5500   2.592   9.780  12.098  1.3866  1.7226  1.3597
  179ccc    H15 5501   2.757   9.769  12.155  2.8432 -2.2500 -1.9963
  179ccc     C9 5502   2.750   9.740  11.948 -0.4626  0.1691  0.4710
  179ccc     O3 5503   2.823   9.662  11.887  0.7791 -0.1033  0.4400
  179ccc     O4 5504   2.670   9.810  11.871  0.1493  0.2345  0.2184
  179ccc    H16 5505   2.678   9.766  11.784  0.2720  2.5461 -1.0098
  179ccc     O5 5506   2.207   9.436  12.104 -0.0130 -0.0780  0.0545
  179ccc    H17 5507   2.535   9.641  12.280 -0.0647  0.1726  0.0014
  180ccc     C1 5508   1.600   8.310  12.229  0.0394  0.0333  0.7000
  180ccc     H1 5509   1.658   8.260  12.151 -0.7867  1.6751 -1.0670
  180ccc     H2 5510   1.671   8.380  12.275 -2.1148  3.0422 -0.1515
  180ccc     C2 5511   1.532   8.214  12.333  0.3830 -0.5072 -0.4409
  180ccc     H3 5512   1.493   8.274  12.417  1.6083 -0.9082  0.4371
  180ccc     H4 5513   1.611   8.148  12.370  0.5204  0.0238  0.2257
  180ccc     C3 5514   1.402   8.153  12.273 -0.6057 -0.7205 -0.3052
  180ccc     H5 5515   1.335   8.233  12.241 -0.6401 -0.7512 -0.3104
  180ccc     H6 5516   1.353   8.099  12.354 -0.4857  0.1878  0.3898
  180ccc     N1 5517   1.409   8.065  12.152 -0.2142 -0.1296  0.3395
  180ccc     C4 5518   1.459   7.922  12.192 -0.3067 -0.2546 -0.1118
  180ccc     H7 5519   1.555   7.929  12.244 -0.4906 -0.4811  0.2693
  180ccc     H8 5520   1.475   7.859  12.105  2.0118 -0.0081  0.0769
  180ccc     C5 5521   1.359   7.846  12.276 -0.1717 -0.2787 -0.1191
  180ccc     H9 5522   1.353   7.891  12.376 -0.8324 -0.7974  0.0766
  180ccc    H10 5523   1.259   7.843  12.232 -0.3230  1.9136 -0.0324
  180ccc     C6 5524   1.407   7.705  12.303  0.4908  0.0885 -0.2303
  180ccc     O1 5525   1.509   7.655  12.256  0.5999  0.4406  0.5811
  180ccc     O2 5526   1.324   7.642  12.385  0.1288  0.6095  0.2942
  180ccc    H11 5527   1.366   7.554  12.389  0.1674  0.5519 -0.9363
  180ccc     C7 5528   1.260   8.063  12.088 -1.0491 -0.3809  0.0294
  180ccc    H12 5529   1.194   8.046  12.174 -0.4460  0.7867  0.7553
  180ccc    H13 5530   1.229   8.166  12.072  1.3252  0.2294 -1.0235
  180ccc     C8 5531   1.250   7.986  11.958 -0.4799  0.9626 -0.5933
  180ccc    H14 5532   1.336   8.012  11.895  0.7377  0.0913  0.6434
  180ccc    H15 5533   1.257   7.878  11.980 -1.1793  1.0662  0.1946
  180ccc     C9 5534   1.116   8.013  11.896  0.7263 -0.5478 -0.5028
  180ccc     O3 5535   1.002   7.965  11.924 -0.3523 -0.5316  0.5815
  180ccc     O4 5536   1.127   8.098  11.791  0.1508 -0.3152  0.4553
  180ccc    H16 5537   1.215   8.137  11.792 -0.3578  0.9691 -0.8960
  180ccc     O5 5538   1.500   8.386  12.162  0.1867 -0.0363  0.1029
  180ccc    H17 5539   1.480   8.099  12.086 -0.0135 -1.9404 -0.4427
  181ccc     C1 5540   1.291   8.723  11.402  0.2896 -0.5369 -0.3710
  181ccc     H1 5541   1.192   8.738  11.357  0.3991  0.3222 -0.3341
  181ccc     H2 5542   1.345   8.818  11.407  1.4970 -1.1742 -0.9548
  181ccc     C2 5543   1.383   8.630  11.322  0.4747  0.4259  0.0564
  181ccc     H3 5544   1.360   8.627  11.215  1.4777 -0.4091 -0.1416
  181ccc     H4 5545   1.366   8.527  11.356 -0.5453  0.8120  0.7941
  181ccc     C3 5546   1.532   8.667  11.341 -0.6484  0.6200  0.0215
  181ccc     H5 5547   1.555   8.644  11.445  2.0526  2.0674 -0.1904
  181ccc     H6 5548   1.554   8.773  11.335  2.3886  0.1458  1.0595
  181ccc     N1 5549   1.637   8.587  11.251 -0.0787 -0.3624  0.5030
  181ccc     C4 5550   1.783   8.633  11.284 -0.1849 -0.1850  0.0516
  181ccc     H7 5551   1.776   8.742  11.292 -2.9755 -0.2399 -0.8296
  181ccc     H8 5552   1.854   8.610  11.205 -0.6148  1.7822 -0.9613
  181ccc     C5 5553   1.840   8.584  11.425 -0.1851 -0.0239 -0.2932
  181ccc     H9 5554   1.809   8.657  11.501 -0.5323 -0.8655  0.3877
  181ccc    H10 5555   1.791   8.489  11.449 -2.0862  0.5737 -1.5786
  181ccc     C6 5556   1.990   8.579  11.425  0.1453  0.1155 -0.1358
  181ccc     O1 5557   2.056   8.674  11.392 -0.0060 -0.3534  0.6234
  181ccc     O2 5558   2.037   8.506  11.521 -0.5634  0.0609 -0.0019
  181ccc    H11 5559   1.963   8.442  11.524  0.2645 -1.0100 -1.2871
  181ccc     C7 5560   1.625   8.436  11.254 -0.0696  0.2939 -0.4491
  181ccc    H12 5561   1.720   8.401  11.213  0.0387  1.3691 -1.1647
  181ccc    H13 5562   1.617   8.408  11.359 -0.8447 -3.0663 -1.2852
  181ccc     C8 5563   1.531   8.362  11.156  0.1816 -0.1387  0.3396
  181ccc    H14 5564   1.424   8.384  11.168  0.0505  1.1426 -2.3815
  181ccc    H15 5565   1.558   8.399  11.057  0.2604  0.3014  0.5214
  181ccc     C9 5566   1.554   8.210  11.172  0.1167  0.4436 -0.0566
  181ccc     O3 5567   1.621   8.160  11.255 -0.5736  0.3493 -0.1443
  181ccc     O4 5568   1.551   8.149  11.055  0.2203 -0.3625  0.2714
  181ccc    H16 5569   1.522   8.206  10.981  0.9061 -1.2064 -0.6806
  181ccc     O5 5570   1.285   8.681  11.535  0.6133  0.0165 -0.4248
  181ccc    H17 5571   1.613   8.619  11.157 -0.2288 -1.1688  0.2607
  182ccc     C1 5572   2.126   7.247  12.282  0.9408  0.5509  1.0458
  182ccc     H1 5573   2.136   7.255  12.174  0.2482  2.5450  1.0944
  182ccc     H2 5574   2.041   7.179  12.295  0.8730  0.2318 -0.8343
  182ccc     C2 5575   2.099   7.384  12.349  0.6646  0.1576 -0.9957
  182ccc     H3 5576   2.142   7.463  12.286  2.3121  0.1326  0.0353
  182ccc     H4 5577   2.148   7.381  12.447  0.3136 -2.7743 -0.8394
  182ccc     C3 5578   1.947   7.406  12.373 -0.1819 -0.3803 -0.5209
  182ccc     H5 5579   1.941   7.485  12.449  1.4846  0.7629 -1.5025
  182ccc     H6 5580   1.915   7.309  12.412  0.4453  0.1887  1.5624
  182ccc     N1 5581   1.860   7.454  12.255  0.5683 -0.2903 -0.9176
  182ccc     C4 5582   1.724   7.389  12.267 -0.0183 -0.5027 -0.5480
  182ccc     H7 5583   1.661   7.476  12.287 -0.4104 -1.0883  0.8850
  182ccc     H8 5584   1.720   7.332  12.360  1.2425  0.8849  0.4072
  182ccc     C5 5585   1.688   7.301  12.145  0.0325  1.5176 -0.1797
  182ccc     H9 5586   1.721   7.344  12.050  5.0740  0.1454  0.6663
  182ccc    H10 5587   1.746   7.208  12.154  0.9122  2.0038 -0.6660
  182ccc     C6 5588   1.537   7.277  12.134  0.6262  0.5500 -0.3133
  182ccc     O1 5589   1.459   7.365  12.109  0.4996 -0.1767 -0.2371
  182ccc     O2 5590   1.503   7.147  12.132 -0.2438  0.2238  0.0877
  182ccc    H11 5591   1.407   7.160  12.141 -0.8496 -0.5049 -3.5578
  182ccc     C7 5592   1.845   7.608  12.259 -0.3618  0.1144  0.3681
  182ccc    H12 5593   1.760   7.630  12.322 -1.3577 -0.0001 -0.8968
  182ccc    H13 5594   1.935   7.649  12.305  1.2680 -2.2105 -0.5378
  182ccc     C8 5595   1.821   7.668  12.120 -0.0040  0.0472 -0.2996
  182ccc    H14 5596   1.912   7.641  12.065  1.0144  1.4263  0.6444
  182ccc    H15 5597   1.738   7.624  12.064  0.7175 -2.2046  0.2569
  182ccc     C9 5598   1.809   7.818  12.135  0.3986  0.1582  0.2163
  182ccc     O3 5599   1.766   7.864  12.239 -0.3742 -0.3029  0.4896
  182ccc     O4 5600   1.838   7.897  12.026 -0.1799 -0.2217 -0.7897
  182ccc    H16 5601   1.896   7.847  11.967  1.1381 -0.2061  0.4422
  182ccc     O5 5602   2.240   7.185  12.344  0.4047  0.0692  0.0863
  182ccc    H17 5603   1.900   7.424  12.165  2.3913 -0.1469 -0.1771
  183ccc     C1 5604   2.355   6.893  12.923  0.4825 -0.3181  0.0155
  183ccc     H1 5605   2.377   6.849  12.825 -0.8914  0.8221 -0.8438
  183ccc     H2 5606   2.390   6.824  13.001  1.8367 -0.4605 -0.6993
  183ccc     C2 5607   2.198   6.910  12.937 -0.1959 -0.3201  1.3959
  183ccc     H3 5608   2.158   6.808  12.953  1.2510 -0.9382  1.2305
  183ccc     H4 5609   2.160   6.953  12.843  1.2314 -0.4690  0.7125
  183ccc     C3 5610   2.162   7.006  13.048 -0.2434  0.2538 -0.2539
  183ccc     H5 5611   2.195   7.106  13.020 -0.4168  0.1904 -0.7036
  183ccc     H6 5612   2.212   6.981  13.141 -0.0048  0.9105 -0.2037
  183ccc     N1 5613   2.005   7.010  13.069 -0.1089  0.3713  0.5193
  183ccc     C4 5614   1.965   6.897  13.163  0.1810  0.5868 -0.0355
  183ccc     H7 5615   1.981   6.935  13.264 -0.8090 -0.3295  0.4852
  183ccc     H8 5616   2.043   6.823  13.148  0.0473  0.2225  0.9928
  183ccc     C5 5617   1.823   6.839  13.146 -0.3441  0.2849 -0.0239
  183ccc     H9 5618   1.750   6.919  13.162  0.8667  1.2246  0.9971
  183ccc    H10 5619   1.803   6.801  13.045 -0.6042 -0.3648  0.2707
  183ccc     C6 5620   1.808   6.708  13.230  0.6019  0.5618 -0.0211
  183ccc     O1 5621   1.896   6.645  13.275  0.1236  0.0189 -0.3829
  183ccc     O2 5622   1.687   6.648  13.234 -0.0661  0.2680 -0.6047
  183ccc    H11 5623   1.622   6.712  13.200  0.5421  1.1053 -0.2234
  183ccc     C7 5624   1.964   7.142  13.120  0.8708 -0.1603 -0.6651
  183ccc    H12 5625   1.974   7.147  13.229 -1.6919  0.0506 -0.3913
  183ccc    H13 5626   2.046   7.209  13.093  0.0631  1.5898  1.0229
  183ccc     C8 5627   1.823   7.191  13.088 -0.0984  0.0597 -0.4918
  183ccc    H14 5628   1.778   7.162  12.992 -1.8451  1.0817 -0.0258
  183ccc    H15 5629   1.751   7.171  13.168  1.3815 -0.3963  0.7768
  183ccc     C9 5630   1.836   7.342  13.082  0.3924 -0.0100 -0.5702
  183ccc     O3 5631   1.935   7.412  13.061 -0.5199  0.1849  0.3734
  183ccc     O4 5632   1.724   7.407  13.104 -0.1519 -0.2461  0.2968
  183ccc    H16 5633   1.650   7.347  13.123 -0.6274  1.1844  3.6150
  183ccc     O5 5634   2.404   7.027  12.937 -0.6383 -0.5749  0.1104
  183ccc    H17 5635   1.962   7.000  12.976  1.5528 -0.5980 -0.1962
  184ccc     C1 5636   2.752   6.553  11.154 -0.1335  0.2781 -0.5918
  184ccc     H1 5637   2.834   6.616  11.117  1.3224 -0.6571  0.8944
  184ccc     H2 5638   2.777   6.507  11.250  0.1622  0.4902 -0.5674
  184ccc     C2 5639   2.732   6.435  11.053  0.1321  0.2036 -0.3956
  184ccc     H3 5640   2.672   6.361  11.108  2.7455 -0.9127  1.1637
  184ccc     H4 5641   2.831   6.390  11.042  0.2515 -0.5976  2.8322
  184ccc     C3 5642   2.670   6.469  10.913 -0.2695  0.7475  0.0876
  184ccc     H5 5643   2.566   6.489  10.938 -1.1469 -1.0125 -1.8418
  184ccc     H6 5644   2.674   6.375  10.858 -1.5822 -1.2350  3.0883
  184ccc     N1 5645   2.729   6.586  10.830 -0.6269  0.7056  0.2679
  184ccc     C4 5646   2.680   6.724  10.875  0.2282 -0.1105  0.5999
  184ccc     H7 5647   2.740   6.800  10.825  0.1949 -0.3556  0.1818
  184ccc     H8 5648   2.691   6.751  10.980 -2.6056  0.3105  0.8713
  184ccc     C5 5649   2.532   6.737  10.840 -0.0037  0.4707  0.1107
  184ccc     H9 5650   2.511   6.725  10.732 -0.4204 -1.9905  0.3996
  184ccc    H10 5651   2.471   6.668  10.900  1.6574  0.1681  1.5128
  184ccc     C6 5652   2.468   6.863  10.885  0.0211 -0.3843 -0.3301
  184ccc     O1 5653   2.525   6.969  10.899  0.5216  0.0856  0.3611
  184ccc     O2 5654   2.342   6.844  10.918 -0.4502 -0.2042  0.1332
  184ccc    H11 5655   2.310   6.929  10.953  1.0352  0.0554  0.9578
  184ccc     C7 5656   2.878   6.584  10.828 -0.5858 -0.1281 -0.2778
  184ccc    H12 5657   2.921   6.669  10.881  0.2119  0.3046 -1.5828
  184ccc    H13 5658   2.930   6.503  10.880  2.1925  1.5211 -0.3085
  184ccc     C8 5659   2.924   6.568  10.680  0.2311  0.1380 -0.0675
  184ccc    H14 5660   2.883   6.479  10.632  1.4612 -1.1269  1.1259
  184ccc    H15 5661   2.899   6.658  10.623 -2.7075  0.5301  1.6079
  184ccc     C9 5662   3.071   6.554  10.663 -0.4547  0.6722  0.1819
  184ccc     O3 5663   3.145   6.536  10.756 -0.2386 -0.4052  0.2650
  184ccc     O4 5664   3.113   6.590  10.541 -0.1993 -0.7884 -0.0267
  184ccc    H16 5665   3.039   6.582  10.478 -0.3690  0.4808 -0.0005
  184ccc     O5 5666   2.630   6.631  11.157 -0.2077  0.1407 -0.3748
  184ccc    H17 5667   2.690   6.583  10.735 -1.3088  1.1532  0.5231
  185ccc     C1 5668   2.093   6.330  11.759 -0.0391  0.4959  0.4903
  185ccc     H1 5669   2.062   6.408  11.829 -3.8430 -0.9332  0.6027
  185ccc     H2 5670   2.012   6.259  11.738  1.5350 -1.1968 -0.1159
  185ccc     C2 5671   2.222   6.253  11.812 -0.1499  0.1635 -0.1169
  185ccc     H3 5672   2.226   6.154  11.767  2.3495 -0.8895  2.0839
  185ccc     H4 5673   2.198   6.231  11.917 -0.8389 -0.8291 -0.4747
  185ccc     C3 5674   2.356   6.329  11.804  0.1057  0.1078 -0.9131
  185ccc     H5 5675   2.331   6.424  11.849  1.5490  0.1847 -0.2336
  185ccc     H6 5676   2.378   6.352  11.700 -2.7595 -0.4878 -1.7520
  185ccc     N1 5677   2.481   6.264  11.869  0.3052  0.0744 -0.1864
  185ccc     C4 5678   2.550   6.168  11.777  0.1673  0.4245 -0.2945
  185ccc     H7 5679   2.626   6.223  11.721 -2.2407  1.5123 -2.7339
  185ccc     H8 5680   2.479   6.127  11.706 -0.0304 -0.9308  0.6572
  185ccc     C5 5681   2.617   6.044  11.847 -0.0234  0.2933  0.4690
  185ccc     H9 5682   2.685   6.082  11.925 -0.5426 -0.6016  1.3741
  185ccc    H10 5683   2.544   5.986  11.905  0.2703  0.8892  1.4682
  185ccc     C6 5684   2.694   5.962  11.748  0.1720  0.0152  0.1369
  185ccc     O1 5685   2.656   5.958  11.635 -0.1778 -0.0831  0.2688
  185ccc     O2 5686   2.767   5.867  11.797  0.0736  0.3448 -0.4549
  185ccc    H11 5687   2.764   5.870  11.894  3.0522 -0.0681 -0.2584
  185ccc     C7 5688   2.587   6.374  11.900  0.0463  0.2552  0.5628
  185ccc    H12 5689   2.687   6.332  11.892 -0.5422 -0.8203 -2.3006
  185ccc    H13 5690   2.575   6.452  11.825 -0.1927  0.8347  1.1925
  185ccc     C8 5691   2.556   6.445  12.034  0.2848  0.3712  0.4219
  185ccc    H14 5692   2.456   6.487  12.015  0.2062 -0.8888 -2.4729
  185ccc    H15 5693   2.555   6.371  12.116  2.0535 -0.6964 -0.4700
  185ccc     C9 5694   2.650   6.552  12.063  0.4153 -0.0704  0.1995
  185ccc     O3 5695   2.760   6.565  12.022 -0.1427  0.1559  0.2991
  185ccc     O4 5696   2.594   6.648  12.137 -0.9908  0.5076 -0.5726
  185ccc    H16 5697   2.518   6.615  12.188 -0.3365 -0.9762 -0.5056
  185ccc     O5 5698   2.137   6.393  11.630  0.5854  1.0135 -0.8586
  185ccc    H17 5699   2.453   6.218  11.956  1.6042  0.6575  0.5741
  186ccc     C1 5700   3.847   9.127  12.980  0.0450 -0.2774  0.4273
  186ccc     H1 5701   3.899   9.124  12.884 -1.4134  3.4684 -0.6549
  186ccc     H2 5702   3.870   9.225  13.022  0.4169  0.0070 -0.4220
  186ccc     C2 5703   3.889   9.017  13.075 -0.3358  0.1876  0.1998
  186ccc     H3 5704   3.854   9.046  13.175 -0.3725  1.0836 -0.0664
  186ccc     H4 5705   3.998   9.014  13.087 -0.5190  0.7237  2.4673
  186ccc     C3 5706   3.836   8.874  13.037  0.1570  0.1125  0.1976
  186ccc     H5 5707   3.876   8.858  12.936  0.9651 -0.0510  0.5327
  186ccc     H6 5708   3.728   8.874  13.026  0.0827  2.1891  0.4380
  186ccc     N1 5709   3.869   8.755  13.124 -0.2507 -0.3539  0.1741
  186ccc     C4 5710   3.815   8.773  13.271 -0.3719  0.7070  0.7805
  186ccc     H7 5711   3.707   8.754  13.265 -0.0258 -1.8582  1.2634
  186ccc     H8 5712   3.838   8.873  13.307 -0.5557  1.4134 -0.9624
  186ccc     C5 5713   3.882   8.668  13.368  0.4341 -1.4072  0.1406
  186ccc     H9 5714   3.841   8.568  13.350 -0.7028 -0.9992  0.3459
  186ccc    H10 5715   3.989   8.670  13.344  0.0733  2.0394 -1.9070
  186ccc     C6 5716   3.841   8.715  13.507  0.3347 -0.1547 -0.4968
  186ccc     O1 5717   3.732   8.730  13.554  0.3441 -0.3853 -0.5447
  186ccc     O2 5718   3.950   8.732  13.587 -0.0254  0.0624 -0.2107
  186ccc    H11 5719   3.913   8.743  13.677 -1.8739 -0.0436 -0.9092
  186ccc     C7 5720   3.819   8.625  13.058 -0.0778  0.1112  0.1684
  186ccc    H12 5721   3.838   8.545  13.129  1.0287  1.5829  1.5968
  186ccc    H13 5722   3.710   8.628  13.045 -0.6365 -1.5215  3.4076
  186ccc     C8 5723   3.897   8.603  12.920 -0.3172  0.4871  0.3604
  186ccc    H14 5724   3.991   8.660  12.924 -0.8548  1.7219 -2.1790
  186ccc    H15 5725   3.931   8.499  12.912  0.1495  0.5071  1.7988
  186ccc     C9 5726   3.826   8.650  12.788 -0.5146 -0.0290 -0.8253
  186ccc     O3 5727   3.727   8.719  12.780 -0.2333  0.0581  0.1712
  186ccc     O4 5728   3.879   8.605  12.671  0.1849  0.6353 -0.0146
  186ccc    H16 5729   3.955   8.549  12.693  0.2833 -0.2839 -2.3201
  186ccc     O5 5730   3.702   9.125  12.949  0.0965 -0.0885  0.6241
  186ccc    H17 5731   3.971   8.744  13.127 -0.3661 -1.1721  1.8387
  187ccc     C1 5732   2.963   9.292  12.962 -0.6486 -0.3860  0.1972
  187ccc     H1 5733   2.859   9.308  12.932 -0.7392 -0.5175  0.4404
  187ccc     H2 5734   2.959   9.223  13.047 -0.2182  1.0146  1.3909
  187ccc     C2 5735   3.036   9.428  13.000  0.0650  0.4596 -0.0967
  187ccc     H3 5736   3.136   9.402  13.037  0.4119  1.1690 -0.5324
  187ccc     H4 5737   2.982   9.473  13.084 -1.9479 -1.4456 -0.2454
  187ccc     C3 5738   3.030   9.526  12.884 -0.3141 -0.3396 -0.2179
  187ccc     H5 5739   2.924   9.549  12.877 -0.1696  0.2139 -0.6522
  187ccc     H6 5740   3.052   9.469  12.794 -1.6833  0.6259 -1.2036
  187ccc     N1 5741   3.119   9.648  12.900 -0.6361 -0.5797  0.2336
  187ccc     C4 5742   3.268   9.629  12.943 -0.3854 -0.0085  0.4556
  187ccc     H7 5743   3.253   9.585  13.042  0.5336  0.8513  0.9933
  187ccc     H8 5744   3.325   9.722  12.949 -1.1606  0.5671 -0.5770
  187ccc     C5 5745   3.353   9.526  12.864 -0.3694 -0.2005  0.6185
  187ccc     H9 5746   3.418   9.471  12.934 -0.2471 -0.3998  0.3479
  187ccc    H10 5747   3.302   9.455  12.798 -0.0962  2.1055 -2.2971
  187ccc     C6 5748   3.447   9.603  12.770  0.7012 -0.1142  0.2217
  187ccc     O1 5749   3.424   9.697  12.694  0.1599  0.1526 -0.0169
  187ccc     O2 5750   3.564   9.544  12.752 -0.3898 -0.1157  0.0693
  187ccc    H11 5751   3.613   9.602  12.690 -2.2748  1.3007 -0.1958
  187ccc     C7 5752   3.102   9.729  12.769  0.0039 -0.7197  0.2864
  187ccc    H12 5753   3.145   9.681  12.681 -0.7383 -1.5882  0.3864
  187ccc    H13 5754   2.993   9.727  12.763 -0.0748 -0.4584  1.4452
  187ccc     C8 5755   3.158   9.868  12.778 -0.0738 -0.4157  0.4135
  187ccc    H14 5756   3.103   9.928  12.851  1.0964  2.2243 -0.7436
  187ccc    H15 5757   3.267   9.863  12.794  0.3472  0.2381 -1.8712
  187ccc     C9 5758   3.132   9.937  12.646  0.4621  0.5544  0.2898
  187ccc     O3 5759   3.027   9.911  12.592 -0.9636 -0.3946 -0.3872
  187ccc     O4 5760   3.244   9.955  12.575 -0.6311 -0.7554  0.2195
  187ccc    H16 5761   3.303   9.985  12.646 -3.0170  3.0458  0.9347
  187ccc     O5 5762   3.050   9.236  12.866  0.4547  0.4300  0.2137
  187ccc    H17 5763   3.074   9.708  12.970  0.2663 -1.1599  1.3644
  188ccc     C1 5764   2.393   7.891  13.251 -0.5374  0.8425  0.2887
  188ccc     H1 5765   2.428   7.956  13.332  1.1585  1.7897 -1.1458
  188ccc     H2 5766   2.285   7.875  13.260 -0.2142 -0.7714  1.6309
  188ccc     C2 5767   2.461   7.755  13.266 -0.1987  0.4136 -1.1992
  188ccc     H3 5768   2.571   7.761  13.274 -0.2344  1.6188 -1.4524
  188ccc     H4 5769   2.439   7.696  13.176  0.2647  0.1038 -1.1161
  188ccc     C3 5770   2.407   7.684  13.391  0.0248  0.2147 -0.2581
  188ccc     H5 5771   2.298   7.678  13.385 -0.0130  1.5611 -2.0481
  188ccc     H6 5772   2.438   7.741  13.478  3.1744 -1.5526 -0.0606
  188ccc     N1 5773   2.475   7.550  13.423 -0.5384 -0.0736 -0.3497
  188ccc     C4 5774   2.459   7.525  13.572  0.3240 -0.0524  0.7819
  188ccc     H7 5775   2.459   7.622  13.622  1.3192  1.4292 -1.9048
  188ccc     H8 5776   2.544   7.470  13.612  1.0926  1.0766  0.7328
  188ccc     C5 5777   2.327   7.453  13.601  0.1354 -0.4100  0.9990
  188ccc     H9 5778   2.245   7.502  13.547  0.3278  0.9679  1.9144
  188ccc    H10 5779   2.336   7.347  13.574 -2.2851 -0.5743  0.5685
  188ccc     C6 5780   2.284   7.449  13.748 -0.2810  0.1688  0.7164
  188ccc     O1 5781   2.352   7.494  13.838 -0.3961 -0.1693  0.5261
  188ccc     O2 5782   2.156   7.434  13.768 -0.0651 -0.7689  0.2301
  188ccc    H11 5783   2.158   7.444  13.865  0.2089  0.6751  0.0993
  188ccc     C7 5784   2.431   7.437  13.330 -0.3365 -0.2983 -0.2073
  188ccc    H12 5785   2.337   7.395  13.364 -0.4421  0.7775  0.8879
  188ccc    H13 5786   2.420   7.477  13.229 -0.7509  0.8227  0.2624
  188ccc     C8 5787   2.529   7.325  13.315 -0.6442  0.2276  0.1800
  188ccc    H14 5788   2.623   7.359  13.272 -0.3725 -0.9556 -0.2109
  188ccc    H15 5789   2.546   7.282  13.415 -2.3558 -1.9726 -0.3913
  188ccc     C9 5790   2.476   7.202  13.240  0.3708 -0.1200 -0.3178
  188ccc     O3 5791   2.377   7.207  13.173 -0.3994  0.3966  0.0263
  188ccc     O4 5792   2.521   7.088  13.288 -0.2871  0.1961  0.0492
  188ccc    H16 5793   2.475   7.015  13.244  1.1789 -1.7416  1.5626
  188ccc     O5 5794   2.433   7.948  13.124  0.2720 -0.3676  0.3886
  188ccc    H17 5795   2.577   7.565  13.426 -0.2902 -1.6504 -0.1018
  189ccc     C1 5796   2.642   7.673  12.725  0.7131 -0.5209  0.3239
  189ccc     H1 5797   2.693   7.659  12.629  0.7285 -1.1881  0.4239
  189ccc     H2 5798   2.702   7.613  12.795  2.5452 -1.2511 -1.7432
  189ccc     C2 5799   2.498   7.626  12.716  0.0587  0.2371 -1.3098
  189ccc     H3 5800   2.495   7.518  12.697  2.1610 -0.0397 -0.4385
  189ccc     H4 5801   2.449   7.683  12.637 -0.5917  1.6313  0.0336
  189ccc     C3 5802   2.420   7.648  12.843 -0.2882 -0.1485  0.3441
  189ccc     H5 5803   2.441   7.747  12.883 -1.0034  0.0352  0.2686
  189ccc     H6 5804   2.449   7.582  12.925 -2.2385 -0.8928  0.4868
  189ccc     N1 5805   2.271   7.649  12.828 -0.3876  0.1337  0.2938
  189ccc     C4 5806   2.218   7.513  12.774 -0.3868 -0.1499 -0.0244
  189ccc     H7 5807   2.257   7.508  12.672  0.2227  3.5426 -0.1155
  189ccc     H8 5808   2.110   7.518  12.764 -0.5991 -1.7141  1.1952
  189ccc     C5 5809   2.262   7.384  12.852 -0.0481  0.1399  0.0475
  189ccc     H9 5810   2.370   7.367  12.841  0.8546  3.6438  1.9308
  189ccc    H10 5811   2.239   7.395  12.958 -0.1586 -3.1393  0.4701
  189ccc     C6 5812   2.199   7.266  12.775 -0.0490  0.4137 -0.1686
  189ccc     O1 5813   2.116   7.193  12.820  0.2594 -0.0775  0.0753
  189ccc     O2 5814   2.243   7.253  12.650 -0.3466 -0.0685 -0.1559
  189ccc    H11 5815   2.223   7.160  12.632 -0.3620 -0.3878  1.3446
  189ccc     C7 5816   2.197   7.686  12.955  0.2688  0.2040 -0.3798
  189ccc    H12 5817   2.227   7.617  13.034 -3.1117 -2.9217 -1.5760
  189ccc    H13 5818   2.239   7.782  12.984  3.6392  0.0804 -3.9834
  189ccc     C8 5819   2.036   7.696  12.952  0.6789 -0.1148  0.5667
  189ccc    H14 5820   1.994   7.773  12.887  0.2728 -1.0526 -0.3112
  189ccc    H15 5821   1.989   7.600  12.928  0.8312 -0.2379  0.7503
  189ccc     C9 5822   1.985   7.729  13.092 -0.4719 -0.2437 -0.6531
  189ccc     O3 5823   2.048   7.782  13.182  0.2559  0.0187  0.8810
  189ccc     O4 5824   1.856   7.709  13.116 -0.1928  0.0288 -0.1470
  189ccc    H16 5825   1.831   7.676  13.028  1.8713  0.5688 -0.9781
  189ccc     O5 5826   2.642   7.813  12.763 -0.1605  0.3299  0.6365
  189ccc    H17 5827   2.239   7.722  12.763 -0.3738 -1.6137 -1.7861
  190ccc     C1 5828   4.090   9.262   6.974  0.2975  0.1932 -0.0429
  190ccc     H1 5829   4.031   9.312   7.053  0.2788  1.4619 -0.8264
  190ccc     H2 5830   4.197   9.279   6.994  0.2316  0.1630  0.3510
  190ccc     C2 5831   4.043   9.326   6.843  0.1212 -0.4303 -0.1857
  190ccc     H3 5832   4.120   9.293   6.771  0.9328  2.5911 -0.8510
  190ccc     H4 5833   4.050   9.436   6.839 -0.4331 -0.4230 -2.9194
  190ccc     C3 5834   3.903   9.282   6.787 -0.0570  0.7315 -0.3453
  190ccc     H5 5835   3.834   9.298   6.870  1.7995  2.3909  0.9666
  190ccc     H6 5836   3.909   9.176   6.762  1.4747  0.9524 -1.0186
  190ccc     N1 5837   3.852   9.346   6.655 -0.6693 -0.1958 -0.0725
  190ccc     C4 5838   3.864   9.503   6.664 -0.2592 -0.4782  0.0026
  190ccc     H7 5839   3.966   9.533   6.639 -0.4981 -1.6320 -2.7009
  190ccc     H8 5840   3.841   9.538   6.765  3.5726 -0.4319  1.0103
  190ccc     C5 5841   3.782   9.576   6.558 -0.4851  0.1296 -0.0498
  190ccc     H9 5842   3.826   9.575   6.458 -2.0348  3.3980 -0.9118
  190ccc    H10 5843   3.686   9.524   6.548 -0.5951  0.1970  0.6412
  190ccc     C6 5844   3.765   9.725   6.593  0.7882  0.7795 -0.5979
  190ccc     O1 5845   3.809   9.777   6.697  0.4347  0.5560 -0.4015
  190ccc     O2 5846   3.664   9.773   6.529 -0.2680  0.1642 -0.4762
  190ccc    H11 5847   3.655   9.863   6.565  0.7577 -0.1335  0.5908
  190ccc     C7 5848   3.932   9.307   6.532 -0.9048  0.5667  0.4712
  190ccc    H12 5849   3.892   9.362   6.447  0.5477  0.1356 -0.5349
  190ccc    H13 5850   4.035   9.343   6.545 -1.1360  1.3220  0.2433
  190ccc     C8 5851   3.916   9.152   6.508 -0.8092 -0.0482  0.5880
  190ccc    H14 5852   3.939   9.086   6.593 -0.8772  0.6213  1.1332
  190ccc    H15 5853   3.815   9.123   6.476 -0.3916 -0.3254 -0.4858
  190ccc     C9 5854   4.012   9.112   6.391 -0.2480  0.6043  0.2007
  190ccc     O3 5855   4.073   9.191   6.324 -0.6321 -0.3776 -0.0377
  190ccc     O4 5856   3.980   8.996   6.334  0.7613 -0.0352  0.1979
  190ccc    H16 5857   3.923   8.951   6.399 -0.2916 -0.6121 -1.0928
  190ccc     O5 5858   4.059   9.123   6.961  0.2782  0.6384  0.7494
  190ccc    H17 5859   3.754   9.320   6.635 -0.5431 -2.5212  1.8466
  191ccc     C1 5860   3.346   8.911   7.196  0.2242  0.2659 -0.2366
  191ccc     H1 5861   3.260   8.854   7.158  0.7930 -0.9144  0.1942
  191ccc     H2 5862   3.345   8.901   7.305  0.5983 -2.2197 -0.3992
  191ccc     C2 5863   3.330   9.057   7.158 -0.0032  0.0581 -0.3327
  191ccc     H3 5864   3.432   9.096   7.165  0.8671 -1.7660 -1.9123
  191ccc     H4 5865   3.269   9.106   7.235  0.6255  0.9250 -0.3711
  191ccc     C3 5866   3.281   9.077   7.014  0.1396 -0.1311  0.5133
  191ccc     H5 5867   3.177   9.047   7.026 -0.8240  3.1366  1.2247
  191ccc     H6 5868   3.333   9.010   6.944 -3.1118 -2.5395  0.1437
  191ccc     N1 5869   3.277   9.220   6.957  0.8854  1.0307 -0.3351
  191ccc     C4 5870   3.419   9.278   6.951  0.3649  0.0637  0.1843
  191ccc     H7 5871   3.464   9.240   6.859 -0.1966  3.2603 -1.5951
  191ccc     H8 5872   3.473   9.253   7.042  0.3717  0.9819  0.4410
  191ccc     C5 5873   3.418   9.439   6.939  0.3094  0.3552 -0.2323
  191ccc     H9 5874   3.379   9.470   6.841 -1.1065 -0.8447 -0.0936
  191ccc    H10 5875   3.363   9.480   7.024 -0.5891 -2.9944  0.9645
  191ccc     C6 5876   3.563   9.495   6.937 -0.4122 -1.0203 -0.0992
  191ccc     O1 5877   3.660   9.426   6.957 -0.4646  0.2438 -0.0331
  191ccc     O2 5878   3.591   9.593   6.839  0.4918  0.0179 -0.2312
  191ccc    H11 5879   3.510   9.648   6.836  1.9506  2.2938  0.0707
  191ccc     C7 5880   3.205   9.229   6.816  0.1481 -0.1985 -0.3205
  191ccc    H12 5881   3.249   9.309   6.756  5.2568 -2.0436  0.4812
  191ccc    H13 5882   3.252   9.149   6.759  0.7033  1.2614 -1.9948
  191ccc     C8 5883   3.053   9.210   6.806 -0.9155  0.4066 -0.3992
  191ccc    H14 5884   3.024   9.108   6.833  2.5334 -0.8774 -1.0955
  191ccc    H15 5885   3.003   9.286   6.867  0.5666  1.6952 -0.7170
  191ccc     C9 5886   3.003   9.228   6.669  0.1638  0.2548 -0.6245
  191ccc     O3 5887   3.057   9.300   6.589  0.4606 -0.5325 -0.3218
  191ccc     O4 5888   2.878   9.175   6.659 -0.2693  0.8733 -0.0072
  191ccc    H16 5889   2.857   9.141   6.748 -0.4357  0.7410 -0.0954
  191ccc     O5 5890   3.470   8.861   7.139  0.6526  0.2998 -0.3827
  191ccc    H17 5891   3.230   9.291   7.015 -2.9301  0.2709 -2.1777
  192ccc     C1 5892   4.319   8.549   5.226 -0.5053  0.8192 -0.0810
  192ccc     H1 5893   4.371   8.464   5.179  0.4923  0.8407  0.9640
  192ccc     H2 5894   4.216   8.513   5.240 -0.5349  1.2417  0.8105
  192ccc     C2 5895   4.323   8.668   5.139  0.0235 -0.1612  0.9361
  192ccc     H3 5896   4.252   8.742   5.180  0.1774  0.8645 -0.5860
  192ccc     H4 5897   4.286   8.634   5.042  0.3479 -2.0197  1.4408
  192ccc     C3 5898   4.469   8.721   5.133  0.0960  0.4015  0.0011
  192ccc     H5 5899   4.540   8.648   5.095 -2.1153 -0.7986 -2.1355
  192ccc     H6 5900   4.500   8.736   5.236  3.6652  0.7444 -1.0135
  192ccc     N1 5901   4.489   8.846   5.045 -0.0049 -0.0207 -0.3319
  192ccc     C4 5902   4.622   8.913   5.069  0.1404 -0.1295 -0.3552
  192ccc     H7 5903   4.634   8.993   4.997  0.0880 -1.9788 -2.5283
  192ccc     H8 5904   4.705   8.846   5.048  0.4004  0.4618 -1.2138
  192ccc     C5 5905   4.641   8.972   5.211 -0.4735  0.3373 -0.1880
  192ccc     H9 5906   4.554   9.032   5.242  0.7274  2.0973 -0.0392
  192ccc    H10 5907   4.662   8.888   5.278 -2.2387  1.5463  2.0077
  192ccc     C6 5908   4.764   9.065   5.212 -0.2932 -0.4623  0.3028
  192ccc     O1 5909   4.830   9.085   5.106  0.8278 -0.1687 -0.5491
  192ccc     O2 5910   4.794   9.139   5.319 -0.2325 -0.6711  0.0998
  192ccc    H11 5911   4.762   9.098   5.402  0.3872 -2.4994 -0.5376
  192ccc     C7 5912   4.473   8.818   4.896 -0.4013  0.1578 -0.5439
  192ccc    H12 5913   4.568   8.784   4.854 -1.3269 -2.0163 -0.9750
  192ccc    H13 5914   4.407   8.733   4.877  0.9249 -0.2998 -3.9168
  192ccc     C8 5915   4.432   8.940   4.804  0.5648 -0.0625 -0.6411
  192ccc    H14 5916   4.328   8.972   4.821  0.9072  0.5195  0.4077
  192ccc    H15 5917   4.490   9.032   4.817 -0.5294  0.2267  3.3673
  192ccc     C9 5918   4.435   8.900   4.660  0.3562  0.0947  0.2478
  192ccc     O3 5919   4.450   8.788   4.628  0.0254  0.1296 -0.2223
  192ccc     O4 5920   4.464   9.006   4.582  0.5885 -0.1941  0.0928
  192ccc    H16 5921   4.461   8.949   4.503  1.0737 -1.5145  0.9962
  192ccc     O5 5922   4.379   8.582   5.351 -0.5441  0.6018 -0.2558
  192ccc    H17 5923   4.421   8.917   5.078 -0.1054 -0.2150 -0.1148
  193ccc     C1 5924   3.871   8.640   5.209  0.0976 -0.2559  0.5322
  193ccc     H1 5925   3.779   8.649   5.268 -0.5061  1.2334 -0.5738
  193ccc     H2 5926   3.873   8.726   5.140  2.1482 -1.3698 -0.9290
  193ccc     C2 5927   3.885   8.506   5.130  0.7882 -0.2939  0.5003
  193ccc     H3 5928   3.973   8.512   5.065  1.7166  0.9712  1.8037
  193ccc     H4 5929   3.796   8.498   5.066  0.9684  2.6377 -0.2574
  193ccc     C3 5930   3.903   8.390   5.228  0.2072 -1.2686 -0.0702
  193ccc     H5 5931   3.840   8.416   5.314  0.6351  0.9068 -0.3546
  193ccc     H6 5932   4.006   8.381   5.263  0.0739  0.6687  1.0085
  193ccc     N1 5933   3.853   8.254   5.174 -0.1512  0.3341 -0.3469
  193ccc     C4 5934   3.936   8.215   5.051 -0.1344  0.6480 -0.4880
  193ccc     H7 5935   3.930   8.307   4.993 -0.3949  0.4020 -0.8569
  193ccc     H8 5936   3.892   8.131   4.997  0.6109 -1.0362  1.3583
  193ccc     C5 5937   4.081   8.177   5.068  0.3573 -0.4709 -0.3486
  193ccc     H9 5938   4.124   8.246   5.143  0.1304  0.4242 -1.0252
  193ccc    H10 5939   4.101   8.073   5.096  0.8501 -0.2700  0.0753
  193ccc     C6 5940   4.162   8.211   4.945 -0.1356  0.2402 -1.1165
  193ccc     O1 5941   4.106   8.239   4.841 -0.0624 -0.7765 -0.0714
  193ccc     O2 5942   4.283   8.257   4.975 -0.1043  0.2476  0.3215
  193ccc    H11 5943   4.317   8.275   4.886 -0.3080  1.7174  0.5240
  193ccc     C7 5944   3.863   8.144   5.283 -0.0612 -0.2197 -0.4623
  193ccc    H12 5945   3.862   8.050   5.227  0.9099  0.1333 -1.0984
  193ccc    H13 5946   3.960   8.147   5.333 -0.4517 -1.5827  0.4508
  193ccc     C8 5947   3.756   8.133   5.389  0.5213  0.0436 -0.0134
  193ccc    H14 5948   3.746   8.218   5.457  0.7866 -0.4643  0.6703
  193ccc    H15 5949   3.660   8.114   5.341  1.0221  0.0619 -1.0509
  193ccc     C9 5950   3.789   8.017   5.483  0.8278 -0.0450  0.3873
  193ccc     O3 5951   3.841   7.914   5.451  0.2863  0.8166 -0.1977
  193ccc     O4 5952   3.704   8.017   5.590 -0.4685  0.1429 -0.2761
  193ccc    H16 5953   3.653   8.099   5.586 -3.7422 -1.7334 -0.8192
  193ccc     O5 5954   3.978   8.648   5.302  0.1784  0.1770 -0.4473
  193ccc    H17 5955   3.755   8.268   5.148 -0.6922 -0.0758  1.3714
  194ccc     C1 5956   5.813   9.562   6.017 -0.2717 -0.0111 -0.4144
  194ccc     H1 5957   5.815   9.453   6.005 -1.4076 -0.1063  0.1745
  194ccc     H2 5958   5.707   9.588   6.013 -0.2296  0.4449  1.0396
  194ccc     C2 5959   5.889   9.623   5.896 -0.1890  0.8246  0.1962
  194ccc     H3 5960   5.857   9.728   5.889 -1.9010  0.4708  1.9576
  194ccc     H4 5961   5.864   9.566   5.806  0.3837 -0.2036  0.6653
  194ccc     C3 5962   6.042   9.621   5.915  0.1974  0.4794  0.3546
  194ccc     H5 5963   6.073   9.517   5.927  3.1697  1.0066 -1.5809
  194ccc     H6 5964   6.074   9.669   6.007 -1.1051  0.2140  0.9676
  194ccc     N1 5965   6.114   9.697   5.799  0.1551  0.0120  0.1186
  194ccc     C4 5966   6.150   9.839   5.840  0.2798 -0.3050  0.1696
  194ccc     H7 5967   6.219   9.879   5.766  3.3701 -2.6386  1.5596
  194ccc     H8 5968   6.214   9.831   5.928 -0.3445 -1.5665  0.5358
  194ccc     C5 5969   6.036   9.935   5.874  0.4585  0.4191 -0.2734
  194ccc     H9 5970   5.981   9.958   5.782  1.5288 -0.3482 -1.1329
  194ccc    H10 5971   5.974   9.896   5.956 -1.0136  0.0400 -1.5369
  194ccc     C6 5972   6.079  10.071   5.921  0.3287 -0.1387  0.3737
  194ccc     O1 5973   6.194  10.100   5.941 -0.8788 -0.2871  0.1782
  194ccc     O2 5974   5.976  10.150   5.935  0.5020  0.2165  0.6729
  194ccc    H11 5975   5.902  10.100   5.896  2.3592  0.4046 -3.5568
  194ccc     C7 5976   6.234   9.613   5.751 -0.5509  0.3600  0.5138
  194ccc    H12 5977   6.201   9.509   5.749  1.0447 -0.2255  1.8770
  194ccc    H13 5978   6.249   9.640   5.647  0.3913  0.3029  0.6323
  194ccc     C8 5979   6.374   9.611   5.815  0.3434 -0.2668  0.0300
  194ccc    H14 5980   6.428   9.573   5.728 -1.7826  1.2255 -2.1108
  194ccc    H15 5981   6.416   9.711   5.834  1.5531 -0.6279 -0.6480
  194ccc     C9 5982   6.379   9.514   5.931  0.2332 -0.7482 -0.0306
  194ccc     O3 5983   6.318   9.407   5.924 -0.8507  0.5978 -0.5515
  194ccc     O4 5984   6.487   9.523   5.997 -0.0319  0.0121 -0.9301
  194ccc    H16 5985   6.486   9.447   6.058 -0.3993  0.1995 -0.6988
  194ccc     O5 5986   5.868   9.612   6.142 -0.5579  0.1560  0.5153
  194ccc    H17 5987   6.038   9.706   5.730 -1.7263 -1.3187  1.8715
  195ccc     C1 5988   6.023  10.346   6.275 -0.2761  0.1760  0.1996
  195ccc     H1 5989   6.010  10.387   6.174  0.7876  1.7422  0.6636
  195ccc     H2 5990   5.964  10.401   6.349  1.0067  2.1117 -0.1517
  195ccc     C2 5991   6.174  10.366   6.303  0.2382  0.3495 -0.1521
  195ccc     H3 5992   6.190  10.339   6.408 -0.1300  1.6116  0.2549
  195ccc     H4 5993   6.196  10.473   6.286 -2.3978  0.7536 -1.5935
  195ccc     C3 5994   6.260  10.281   6.204 -0.8561  0.3680 -0.2630
  195ccc     H5 5995   6.235  10.317   6.104 -1.4588 -1.5379 -0.8379
  195ccc     H6 5996   6.214  10.183   6.200 -0.3255  0.1414 -0.9605
  195ccc     N1 5997   6.415  10.267   6.227 -0.1515  0.0513  0.0818
  195ccc     C4 5998   6.481  10.165   6.130 -0.0443  0.1638 -0.1820
  195ccc     H7 5999   6.590  10.177   6.135 -0.1361  1.1692 -0.3689
  195ccc     H8 6000   6.435  10.175   6.032  1.9384 -0.4037 -1.2299
  195ccc     C5 6001   6.447  10.017   6.164  0.4839 -0.0369  0.0842
  195ccc     H9 6002   6.483   9.997   6.265  1.5708 -2.5390 -0.7088
  195ccc    H10 6003   6.339  10.001   6.152  0.1071  0.9614  1.9160
  195ccc     C6 6004   6.530   9.929   6.075  0.1071  0.0303  0.5278
  195ccc     O1 6005   6.588   9.970   5.973  0.2763  0.2377 -0.2963
  195ccc     O2 6006   6.544   9.799   6.113  0.1096  0.0194  0.3124
  195ccc    H11 6007   6.493   9.791   6.195 -0.5512  0.0654 -0.0808
  195ccc     C7 6008   6.485  10.404   6.215 -1.0080  0.0787 -0.3495
  195ccc    H12 6009   6.452  10.467   6.298  1.4223  1.0596 -0.0510
  195ccc    H13 6010   6.591  10.389   6.235 -0.9878  0.7505  0.0895
  195ccc     C8 6011   6.459  10.485   6.087 -0.2612 -0.0357  0.2938
  195ccc    H14 6012   6.510  10.445   5.999  1.2485  1.0632  0.6194
  195ccc    H15 6013   6.353  10.503   6.066 -0.1102 -0.2465 -0.6613
  195ccc     C9 6014   6.518  10.622   6.104  0.7727  0.1816  0.4882
  195ccc     O3 6015   6.609  10.655   6.173  0.1333 -0.4371  0.3276
  195ccc     O4 6016   6.443  10.718   6.055  0.0495 -0.9096  0.5380
  195ccc    H16 6017   6.493  10.798   6.079 -2.5038  0.6455  1.0685
  195ccc     O5 6018   5.994  10.206   6.286 -0.3428  0.3281  0.4207
  195ccc    H17 6019   6.436  10.228   6.320  1.0500 -0.9493 -0.5847
  196ccc     C1 6020   5.458   9.324   5.494 -0.0796  0.1952 -0.3252
  196ccc     H1 6021   5.537   9.401   5.492 -0.1112  0.2530  0.4881
  196ccc     H2 6022   5.492   9.231   5.543 -1.4624 -1.8186 -2.9465
  196ccc     C2 6023   5.401   9.299   5.349 -0.3601  0.0446  0.1255
  196ccc     H3 6024   5.473   9.251   5.282 -0.8551  0.2918 -0.5923
  196ccc     H4 6025   5.357   9.393   5.316 -1.3926 -0.5899 -0.3537
  196ccc     C3 6026   5.283   9.200   5.357  0.2621  0.3151  0.4548
  196ccc     H5 6027   5.207   9.225   5.432 -0.6303  1.1820 -0.6878
  196ccc     H6 6028   5.313   9.100   5.385 -0.5003  0.3150  1.3106
  196ccc     N1 6029   5.205   9.177   5.223  0.2026 -0.2462 -0.5116
  196ccc     C4 6030   5.106   9.065   5.247  0.2380  0.5284  0.3430
  196ccc     H7 6031   5.032   9.051   5.168 -0.6181 -0.2921  1.2642
  196ccc     H8 6032   5.047   9.085   5.336 -1.2744  0.3617 -0.5891
  196ccc     C5 6033   5.172   8.924   5.261  0.8045 -0.4204  0.3291
  196ccc     H9 6034   5.243   8.917   5.177 -1.0899  0.1521 -1.3953
  196ccc    H10 6035   5.235   8.907   5.349  2.2145  1.1216 -0.3287
  196ccc     C6 6036   5.069   8.821   5.259  0.2099  0.3555 -0.3020
  196ccc     O1 6037   4.955   8.845   5.287 -0.0210 -0.0087  0.0576
  196ccc     O2 6038   5.105   8.710   5.209 -0.1332  0.2414  0.2818
  196ccc    H11 6039   5.202   8.706   5.201 -0.2101  0.4712 -0.9335
  196ccc     C7 6040   5.137   9.310   5.189  0.0139 -0.0814  0.8944
  196ccc    H12 6041   5.040   9.306   5.240 -1.3426  3.7783 -0.9896
  196ccc    H13 6042   5.193   9.394   5.229  1.7758 -0.0240 -1.5075
  196ccc     C8 6043   5.122   9.334   5.035  0.2736 -0.5251 -0.7391
  196ccc    H14 6044   5.211   9.376   4.987 -1.0323 -0.6535 -3.4142
  196ccc    H15 6045   5.099   9.235   4.994  0.6526 -0.3081 -1.4811
  196ccc     C9 6046   5.005   9.427   5.003  0.2926 -0.0574 -0.5132
  196ccc     O3 6047   4.917   9.451   5.089  0.1904 -0.0757  0.3128
  196ccc     O4 6048   4.990   9.473   4.880  0.2273  0.0118  0.3977
  196ccc    H16 6049   5.065   9.444   4.825 -0.4614  0.4805 -0.8343
  196ccc     O5 6050   5.353   9.375   5.572  0.0683 -0.2122 -0.1439
  196ccc    H17 6051   5.278   9.154   5.154  1.5816  0.1839  0.7500
  197ccc     C1 6052   4.600   9.531   5.378  0.0979  0.5602  0.0763
  197ccc     H1 6053   4.560   9.430   5.367 -0.8278  1.0944 -2.0091
  197ccc     H2 6054   4.531   9.586   5.443 -0.3117  1.5243 -1.1258
  197ccc     C2 6055   4.599   9.592   5.236 -0.1855  0.0648 -0.5546
  197ccc     H3 6056   4.499   9.577   5.192 -0.7001 -0.6442  0.8085
  197ccc     H4 6057   4.678   9.552   5.170  2.2270  0.8086  1.7185
  197ccc     C3 6058   4.615   9.745   5.240 -0.4845  0.4465 -0.1024
  197ccc     H5 6059   4.522   9.781   5.284 -1.8516 -1.0816 -1.5824
  197ccc     H6 6060   4.614   9.796   5.144  0.2117  1.4438  0.3974
  197ccc     N1 6061   4.736   9.796   5.326  0.4911 -0.0332  0.1538
  197ccc     C4 6062   4.870   9.726   5.283  0.5355 -0.0588 -0.1354
  197ccc     H7 6063   4.878   9.720   5.175  0.1581 -1.1149 -0.1153
  197ccc     H8 6064   4.854   9.621   5.306 -0.2656  0.0840  0.0229
  197ccc     C5 6065   4.996   9.781   5.348 -0.3199  0.1296 -0.3513
  197ccc     H9 6066   5.012   9.886   5.322  0.3302  0.0513 -0.2808
  197ccc    H10 6067   4.985   9.775   5.457 -1.5798 -0.0527 -0.4778
  197ccc     C6 6068   5.120   9.695   5.302 -0.0601 -0.2737 -0.6153
  197ccc     O1 6069   5.140   9.578   5.325 -0.2722 -0.3515  0.6451
  197ccc     O2 6070   5.214   9.771   5.250  0.6421  0.1451 -0.2805
  197ccc    H11 6071   5.284   9.705   5.236  0.1038 -0.7362  1.0008
  197ccc     C7 6072   4.731   9.955   5.325 -0.3249  0.1809 -0.6444
  197ccc    H12 6073   4.628   9.983   5.348  0.1069  2.2895 -1.0986
  197ccc    H13 6074   4.788   9.996   5.408 -0.9227  0.2416 -0.2593
  197ccc     C8 6075   4.783  10.016   5.192 -0.3795 -0.5660 -0.4865
  197ccc    H14 6076   4.877   9.969   5.159 -0.6735 -0.9385 -0.8118
  197ccc    H15 6077   4.702   9.993   5.122 -0.8988 -1.8475  0.4777
  197ccc     C9 6078   4.790  10.163   5.198  0.4488 -0.0513  0.7466
  197ccc     O3 6079   4.762  10.245   5.279  0.1598 -0.1354 -0.6782
  197ccc     O4 6080   4.848  10.201   5.084 -0.2400  0.1148  0.5074
  197ccc    H16 6081   4.842  10.298   5.091  0.5509  0.1874  0.2156
  197ccc     O5 6082   4.728   9.532   5.439 -0.6439  0.0378 -0.0274
  197ccc    H17 6083   4.712   9.768   5.422  1.4457 -0.2283  0.3463
  198ccc     C1 6084   5.037   7.220   5.708  0.7680 -0.1729 -1.0355
  198ccc     H1 6085   5.141   7.188   5.695  0.9703  0.2758 -0.5714
  198ccc     H2 6086   4.978   7.129   5.698  0.8124 -0.1486 -1.5452
  198ccc     C2 6087   4.988   7.321   5.596  0.4489  0.5570  0.4096
  198ccc     H3 6088   4.879   7.329   5.585  0.4088 -0.2644  0.1050
  198ccc     H4 6089   5.033   7.289   5.501  0.3659 -0.5284  0.7195
  198ccc     C3 6090   5.053   7.459   5.621  0.7050  0.0373  0.1078
  198ccc     H5 6091   5.157   7.435   5.642  0.3299 -0.4497  1.5214
  198ccc     H6 6092   5.010   7.504   5.711 -0.6417 -1.7976  0.4462
  198ccc     N1 6093   5.041   7.563   5.503 -0.1126 -0.5747  0.4087
  198ccc     C4 6094   4.898   7.589   5.450  0.7650 -0.1395 -0.2030
  198ccc     H7 6095   4.870   7.490   5.412  2.3206 -1.4822  1.8982
  198ccc     H8 6096   4.903   7.652   5.361 -3.2796 -0.2515 -0.6874
  198ccc     C5 6097   4.796   7.651   5.544 -0.2363 -0.1716 -0.0263
  198ccc     H9 6098   4.764   7.578   5.619  0.3198 -0.5970 -0.2007
  198ccc    H10 6099   4.834   7.745   5.587  0.2834 -0.9763  1.3093
  198ccc     C6 6100   4.674   7.692   5.463  0.6850  0.4450  0.1907
  198ccc     O1 6101   4.664   7.707   5.343  0.2509  0.2472 -0.5996
  198ccc     O2 6102   4.557   7.681   5.536 -0.0069 -0.0054  0.2216
  198ccc    H11 6103   4.493   7.716   5.472 -0.0933 -0.3307  0.1309
  198ccc     C7 6104   5.108   7.696   5.535 -0.9324 -0.5230 -0.5938
  198ccc    H12 6105   5.058   7.779   5.483  0.7918  1.4111  0.6874
  198ccc    H13 6106   5.088   7.717   5.640 -1.5472  2.5006 -1.2222
  198ccc     C8 6107   5.260   7.705   5.518 -0.3233 -0.1419 -0.1525
  198ccc    H14 6108   5.313   7.618   5.558  0.9097  1.0757  0.9779
  198ccc    H15 6109   5.288   7.704   5.412 -0.9256  0.4509 -0.3241
  198ccc     C9 6110   5.320   7.826   5.584 -0.4695  0.0597 -1.0798
  198ccc     O3 6111   5.305   7.844   5.705 -0.7924 -0.3233  0.5289
  198ccc     O4 6112   5.402   7.896   5.507 -0.0309 -0.0098  0.4814
  198ccc    H16 6113   5.398   7.864   5.415 -0.8935 -1.8898  1.1255
  198ccc     O5 6114   5.002   7.280   5.835 -0.6841  0.6362  0.1184
  198ccc    H17 6115   5.084   7.524   5.418 -0.5399  1.6152 -0.8752
  199ccc     C1 6116   4.580   7.689   6.493  0.7675 -0.7061 -0.4095
  199ccc     H1 6117   4.482   7.645   6.471  0.8852 -0.9083 -0.5320
  199ccc     H2 6118   4.591   7.675   6.601 -3.2689  0.5661  0.3341
  199ccc     C2 6119   4.561   7.839   6.475 -0.7014 -0.9716 -0.2748
  199ccc     H3 6120   4.650   7.891   6.513 -0.8587 -0.2508 -0.8488
  199ccc     H4 6121   4.474   7.871   6.535 -0.7879 -0.8888 -0.4447
  199ccc     C3 6122   4.540   7.880   6.327  0.2783 -0.1708  0.5723
  199ccc     H5 6123   4.462   7.825   6.275 -1.3522  2.4655  0.0956
  199ccc     H6 6124   4.632   7.855   6.273  0.0489  0.1614  0.0252
  199ccc     N1 6125   4.511   8.022   6.305  0.1767 -0.5594  0.1007
  199ccc     C4 6126   4.626   8.112   6.342 -0.5258 -0.0609 -0.7027
  199ccc     H7 6127   4.706   8.093   6.270 -0.4288 -1.2481 -0.3038
  199ccc     H8 6128   4.669   8.080   6.437  0.2872  2.0283 -0.3176
  199ccc     C5 6129   4.600   8.259   6.330 -0.0706 -0.2672  0.4578
  199ccc     H9 6130   4.695   8.314   6.327 -0.7043  0.8251 -1.0207
  199ccc    H10 6131   4.549   8.285   6.236 -0.8453  1.0113  1.2118
  199ccc     C6 6132   4.521   8.335   6.437  0.0568 -0.5217 -0.0772
  199ccc     O1 6133   4.488   8.286   6.546 -0.1663 -0.1482  0.0141
  199ccc     O2 6134   4.476   8.466   6.414 -0.3675 -0.5402  0.4340
  199ccc    H11 6135   4.531   8.504   6.343  0.0580 -0.3563  0.8533
  199ccc     C7 6136   4.491   8.045   6.152 -0.4945 -0.3788 -0.9668
  199ccc    H12 6137   4.473   8.152   6.143  1.8977  0.3599  1.4193
  199ccc    H13 6138   4.590   8.032   6.109 -0.5484 -0.3890 -1.0857
  199ccc     C8 6139   4.379   7.960   6.089  0.4169 -0.5006 -0.4433
  199ccc    H14 6140   4.411   7.857   6.073  0.2144 -0.6530  0.0972
  199ccc    H15 6141   4.284   7.955   6.145  1.3616  0.1096  1.2734
  199ccc     C9 6142   4.354   8.012   5.951  0.1406  0.0227 -0.5115
  199ccc     O3 6143   4.432   8.004   5.861  0.2897 -0.5400 -0.0944
  199ccc     O4 6144   4.239   8.071   5.929 -0.5855  0.0920  0.7363
  199ccc    H16 6145   4.200   8.097   6.014 -0.9360 -0.2557  0.6839
  199ccc     O5 6146   4.689   7.633   6.416  0.2814 -0.0821 -0.1913
  199ccc    H17 6147   4.422   8.035   6.356  0.4087 -1.9510  0.9162
  200ccc     C1 6148   5.755   7.502   5.990  0.4171 -0.1142 -0.0394
  200ccc     H1 6149   5.763   7.411   5.929 -1.0741 -0.1860 -0.1543
  200ccc     H2 6150   5.670   7.558   5.949  0.6499 -0.2191 -0.6673
  200ccc     C2 6151   5.889   7.590   5.984  0.0528 -0.1046 -0.3844
  200ccc     H3 6152   5.864   7.692   6.015  0.1125 -0.8823  2.4897
  200ccc     H4 6153   5.907   7.607   5.877 -2.3391 -3.0199 -1.4009
  200ccc     C3 6154   6.012   7.528   6.048  0.2644  0.2334  0.5177
  200ccc     H5 6155   6.012   7.420   6.036  3.7788  0.2031 -0.4750
  200ccc     H6 6156   5.998   7.536   6.156  2.5343 -1.5564  1.0350
  200ccc     N1 6157   6.148   7.586   6.008  0.1130  0.0063 -0.0662
  200ccc     C4 6158   6.222   7.622   6.133 -0.3976 -0.1551  0.3223
  200ccc     H7 6159   6.324   7.647   6.103 -1.3879  3.1119 -0.8272
  200ccc     H8 6160   6.226   7.543   6.207 -0.1966 -0.6245 -0.1846
  200ccc     C5 6161   6.178   7.753   6.200  0.6839 -0.3515  0.2630
  200ccc     H9 6162   6.171   7.839   6.132  1.6728  1.4422  2.3330
  200ccc    H10 6163   6.081   7.738   6.248  0.8012  0.4062  0.7475
  200ccc     C6 6164   6.281   7.802   6.302  0.2787 -0.3198  0.5894
  200ccc     O1 6165   6.392   7.752   6.331  0.5759 -0.6765  0.0310
  200ccc     O2 6166   6.229   7.903   6.378  0.2657  0.6277  0.4177
  200ccc    H11 6167   6.167   7.957   6.325 -0.2838  0.2173  0.6383
  200ccc     C7 6168   6.213   7.481   5.921 -1.0166  0.6165 -0.0850
  200ccc    H12 6169   6.254   7.408   5.991 -1.9137  0.6391  0.4933
  200ccc    H13 6170   6.131   7.446   5.858 -0.6147 -0.9671  0.2230
  200ccc     C8 6171   6.328   7.521   5.824 -0.1617  0.8142 -0.5498
  200ccc    H14 6172   6.293   7.609   5.770 -3.3080  1.2303  1.8406
  200ccc    H15 6173   6.416   7.557   5.878 -1.4184  1.2961  1.3067
  200ccc     C9 6174   6.370   7.405   5.734 -0.1769 -0.2509  0.1228
  200ccc     O3 6175   6.336   7.289   5.748 -0.1186  0.2339  1.0591
  200ccc     O4 6176   6.464   7.430   5.641  0.2597 -0.6345  0.1204
  200ccc    H16 6177   6.463   7.349   5.588  0.3245 -0.6912  0.2061
  200ccc     O5 6178   5.732   7.463   6.126 -0.1656 -0.0030  0.0738
  200ccc    H17 6179   6.131   7.673   5.955 -0.1730  0.7153  1.1419
  201ccc     C1 6180   5.999   6.830   6.324 -0.1444 -0.3452  0.0427
  201ccc     H1 6181   6.026   6.814   6.429  0.7395  0.5518 -0.0358
  201ccc     H2 6182   5.997   6.725   6.292  1.4999 -0.5670  0.5671
  201ccc     C2 6183   6.105   6.920   6.250  0.3301  0.7124 -0.0792
  201ccc     H3 6184   6.206   6.906   6.292  0.3044  0.5680 -0.0673
  201ccc     H4 6185   6.086   7.025   6.278  0.3357  0.1843  2.0599
  201ccc     C3 6186   6.102   6.915   6.092 -0.7062 -0.8254  0.2231
  201ccc     H5 6187   6.008   6.946   6.047 -0.4206 -0.3666 -0.0576
  201ccc     H6 6188   6.124   6.815   6.056  0.3142 -0.3253 -0.5665
  201ccc     N1 6189   6.198   7.008   6.014 -0.4494 -0.7999 -0.1793
  201ccc     C4 6190   6.337   6.955   6.028 -0.2539 -0.8799  0.1812
  201ccc     H7 6191   6.343   6.860   5.975 -0.1373 -1.3404  0.9985
  201ccc     H8 6192   6.366   6.940   6.132 -0.2938  0.3319  0.3742
  201ccc     C5 6193   6.434   7.060   5.952 -0.8379  0.9321 -0.1269
  201ccc     H9 6194   6.428   7.050   5.843  0.0518 -0.6721 -0.0636
  201ccc    H10 6195   6.412   7.167   5.965 -0.9255  0.8055  0.8288
  201ccc     C6 6196   6.581   7.036   5.975  0.5288 -0.8791  0.0001
  201ccc     O1 6197   6.619   6.954   6.056  0.1519 -0.1211  0.3577
  201ccc     O2 6198   6.649   7.154   5.954 -0.5495  0.0331  0.0255
  201ccc    H11 6199   6.742   7.133   5.977 -0.6103 -0.1541  0.1016
  201ccc     C7 6200   6.154   7.007   5.865  0.4168 -0.3443 -0.9050
  201ccc    H12 6201   6.221   7.071   5.808 -0.3687  1.0491 -0.3179
  201ccc    H13 6202   6.182   6.907   5.834  1.3810  0.1079 -1.5342
  201ccc     C8 6203   6.002   7.040   5.836  0.0283 -0.4684  0.0896
  201ccc    H14 6204   5.940   6.954   5.862  0.8554 -1.2361 -0.4210
  201ccc    H15 6205   5.974   7.128   5.896  1.0903 -0.3106  0.3759
  201ccc     C9 6206   5.988   7.074   5.687  0.1765 -0.4434  0.2344
  201ccc     O3 6207   5.999   6.982   5.602  0.6564  0.3999  0.2941
  201ccc     O4 6208   6.046   7.195   5.654  0.0107  0.8813 -0.4766
  201ccc    H16 6209   6.055   7.188   5.557 -1.9749 -1.3628 -0.5849
  201ccc     O5 6210   5.873   6.896   6.315 -0.2623  0.2089  0.3201
  201ccc    H17 6211   6.196   7.105   6.049  0.9388 -1.1077  0.8310
  202ccc     C1 6212   7.200   7.732   6.010 -0.0225 -0.0032 -0.2781
  202ccc     H1 6213   7.277   7.677   6.066 -0.5701 -1.1613 -0.6314
  202ccc     H2 6214   7.117   7.664   5.988 -0.0807 -1.0717  2.7830
  202ccc     C2 6215   7.238   7.811   5.887  0.8620 -0.2312 -0.0104
  202ccc     H3 6216   7.300   7.748   5.823 -1.1607 -2.6319  0.2470
  202ccc     H4 6217   7.286   7.902   5.925  0.5364 -0.2686  0.5069
  202ccc     C3 6218   7.112   7.847   5.815 -0.5390 -0.4113  0.1891
  202ccc     H5 6219   7.040   7.886   5.888 -0.8319  0.9140 -0.7739
  202ccc     H6 6220   7.054   7.759   5.785 -0.0110 -0.2153 -1.4551
  202ccc     N1 6221   7.127   7.942   5.693  0.3412  0.5701 -0.2392
  202ccc     C4 6222   7.188   8.085   5.718  0.1981  0.0291 -0.6303
  202ccc     H7 6223   7.191   8.137   5.622 -3.5236 -0.3320 -1.0498
  202ccc     H8 6224   7.288   8.073   5.762 -0.3495 -0.8148  0.4180
  202ccc     C5 6225   7.104   8.162   5.817 -0.1672 -0.0071  0.8875
  202ccc     H9 6226   7.000   8.174   5.782 -0.9348 -2.6262  2.0324
  202ccc    H10 6227   7.100   8.110   5.913  0.7104  1.0291  1.5114
  202ccc     C6 6228   7.162   8.306   5.848 -0.0661  0.5125  0.6577
  202ccc     O1 6229   7.214   8.335   5.954 -0.3930  0.8008 -0.7120
  202ccc     O2 6230   7.152   8.388   5.740 -0.0079  0.0997 -0.2080
  202ccc    H11 6231   7.121   8.331   5.667 -1.5621 -2.2858  2.1153
  202ccc     C7 6232   7.194   7.859   5.583  0.4942 -0.1043 -0.2894
  202ccc    H12 6233   7.299   7.847   5.609  0.5357 -0.4575 -0.5996
  202ccc    H13 6234   7.145   7.761   5.577  1.4662 -0.6917  0.9292
  202ccc     C8 6235   7.170   7.925   5.445 -0.1123  0.2024 -0.5280
  202ccc    H14 6236   7.063   7.949   5.430 -0.0607  0.0329 -1.2378
  202ccc    H15 6237   7.227   8.018   5.445 -0.0858  0.1860 -0.7063
  202ccc     C9 6238   7.216   7.842   5.325 -0.1997 -0.3229  0.0522
  202ccc     O3 6239   7.245   7.726   5.323  0.7692  0.3229 -0.3153
  202ccc     O4 6240   7.254   7.921   5.227 -0.2413  0.5440  0.2462
  202ccc    H16 6241   7.286   7.849   5.170 -0.4089 -0.3962  1.3103
  202ccc     O5 6242   7.141   7.830   6.092  0.4595 -0.3457  0.1338
  202ccc    H17 6243   7.027   7.959   5.672  0.6645  2.0123 -0.6664
  203ccc     C1 6244   7.270   8.378   6.433 -0.6698 -0.3460  0.0689
  203ccc     H1 6245   7.353   8.336   6.374 -0.1690 -1.5593  1.5810
  203ccc     H2 6246   7.270   8.483   6.403 -1.3208 -0.6291 -0.9903
  203ccc     C2 6247   7.294   8.375   6.587  0.2641  0.5299 -0.0078
  203ccc     H3 6248   7.401   8.396   6.604  0.5055 -0.6540  0.0648
  203ccc     H4 6249   7.289   8.273   6.627  0.8233 -0.0925 -1.4395
  203ccc     C3 6250   7.195   8.470   6.663 -0.2269  0.1465  0.1395
  203ccc     H5 6251   7.091   8.440   6.653 -0.1978  0.0237  0.2031
  203ccc     H6 6252   7.203   8.568   6.615  1.2591 -0.5434 -1.0846
  203ccc     N1 6253   7.232   8.485   6.810 -0.2641  0.4757 -0.0859
  203ccc     C4 6254   7.231   8.347   6.886  0.5592 -0.4632 -0.4472
  203ccc     H7 6255   7.288   8.356   6.979 -0.3961 -0.2415  0.1338
  203ccc     H8 6256   7.291   8.273   6.833  1.4120 -1.0421  1.2404
  203ccc     C5 6257   7.087   8.298   6.918 -0.0369 -0.4550 -0.6464
  203ccc     H9 6258   7.042   8.356   7.000  0.3969 -0.1272 -0.6345
  203ccc    H10 6259   7.027   8.313   6.827  0.1149 -1.6946 -0.9633
  203ccc     C6 6260   7.088   8.150   6.950 -0.4099 -0.6755  0.0723
  203ccc     O1 6261   7.182   8.075   6.931  0.1317 -0.1112 -0.5966
  203ccc     O2 6262   6.974   8.102   7.003  0.0404  0.4059  0.0051
  203ccc    H11 6263   6.996   8.008   7.009 -0.8493  0.1959  0.2293
  203ccc     C7 6264   7.377   8.545   6.820  0.0637 -0.2527  0.0151
  203ccc    H12 6265   7.446   8.477   6.771 -0.1325 -1.7402  1.7178
  203ccc    H13 6266   7.377   8.639   6.763 -1.8232  0.1767  0.6519
  203ccc     C8 6267   7.424   8.571   6.965 -0.1362  0.3045  0.4709
  203ccc    H14 6268   7.347   8.624   7.022 -1.2919 -0.1411 -0.6437
  203ccc    H15 6269   7.454   8.481   7.019 -0.3261 -1.4445 -2.1711
  203ccc     C9 6270   7.549   8.659   6.967  0.2563  0.4768 -1.0621
  203ccc     O3 6271   7.568   8.756   6.903 -0.3952 -1.2122  0.1083
  203ccc     O4 6272   7.652   8.628   7.056  0.2007  0.2878  0.4636
  203ccc    H16 6273   7.708   8.707   7.051 -0.8126  0.9762 -0.5981
  203ccc     O5 6274   7.142   8.325   6.406  0.1550  0.8609 -0.0492
  203ccc    H17 6275   7.158   8.546   6.848 -1.6662 -2.1618  1.6888
  204ccc     C1 6276   7.317   8.880   6.148  0.9527 -0.2006 -0.1335
  204ccc     H1 6277   7.392   8.869   6.227  0.6232 -3.6590 -0.1509
  204ccc     H2 6278   7.320   8.788   6.088 -2.1684  0.1500 -0.9981
  204ccc     C2 6279   7.347   8.998   6.055 -0.3345 -0.6284  0.3249
  204ccc     H3 6280   7.456   9.009   6.045 -0.0603 -1.6853  1.7991
  204ccc     H4 6281   7.309   9.089   6.103 -1.8199 -0.7679 -0.5211
  204ccc     C3 6282   7.296   8.990   5.917 -0.1510  0.2093  0.3015
  204ccc     H5 6283   7.337   8.893   5.887 -0.1503  0.2397  0.2014
  204ccc     H6 6284   7.354   9.067   5.866  3.3623 -2.0277  0.6125
  204ccc     N1 6285   7.146   8.980   5.880 -0.2179 -0.3335  0.3071
  204ccc     C4 6286   7.078   9.080   5.974 -0.6152 -0.4728 -0.2421
  204ccc     H7 6287   7.121   9.180   5.974 -0.3271 -0.5880  0.7337
  204ccc     H8 6288   7.069   9.047   6.078  2.5380  0.7193  0.5340
  204ccc     C5 6289   6.934   9.110   5.940  0.2091 -0.4755  0.1803
  204ccc     H9 6290   6.929   9.176   5.853  0.1767  0.2096  0.6926
  204ccc    H10 6291   6.871   9.024   5.915  0.2222 -0.5743  0.4752
  204ccc     C6 6292   6.877   9.196   6.056  0.3686 -0.3419 -0.4182
  204ccc     O1 6293   6.925   9.190   6.165  0.5974  0.1629  0.0189
  204ccc     O2 6294   6.759   9.258   6.037  1.0469  0.0894 -0.6343
  204ccc    H11 6295   6.721   9.227   5.952 -0.9623 -0.2000  0.3164
  204ccc     C7 6296   7.130   9.013   5.728  0.4096  0.0481 -1.3620
  204ccc    H12 6297   7.022   9.021   5.716 -0.2265 -0.5773  2.6644
  204ccc    H13 6298   7.177   9.107   5.699  1.0541  0.3465  0.5496
  204ccc     C8 6299   7.180   8.906   5.634 -0.4194 -0.0820  0.9481
  204ccc    H14 6300   7.287   8.916   5.614 -0.3870  0.9637  1.5919
  204ccc    H15 6301   7.151   8.807   5.673 -1.4062  0.7098  2.3288
  204ccc     C9 6302   7.106   8.926   5.501 -0.3170 -0.1853 -0.1410
  204ccc     O3 6303   7.080   9.035   5.454 -0.1621  0.2111  0.1958
  204ccc     O4 6304   7.114   8.824   5.417  0.3953 -0.3926  1.3656
  204ccc    H16 6305   7.144   8.748   5.470  2.5535  0.3903  1.3356
  204ccc     O5 6306   7.187   8.883   6.207 -0.0665  0.0756  0.3724
  204ccc    H17 6307   7.108   8.886   5.900  1.3700 -0.8026  1.2724
  205ccc     C1 6308   6.675   9.509   6.432 -0.7934 -0.2662  0.2770
  205ccc     H1 6309   6.566   9.514   6.423 -0.6104  2.2676 -1.6187
  205ccc     H2 6310   6.712   9.564   6.519 -1.1180 -2.4802  1.8942
  205ccc     C2 6311   6.728   9.588   6.306  0.0079  0.3940  0.1215
  205ccc     H3 6312   6.713   9.696   6.323 -2.2361 -0.1190  1.9834
  205ccc     H4 6313   6.657   9.556   6.228  0.7719  0.4491 -0.6067
  205ccc     C3 6314   6.868   9.542   6.264 -0.8008 -0.4043  0.2775
  205ccc     H5 6315   6.875   9.443   6.219  1.0834  0.0690 -0.5552
  205ccc     H6 6316   6.928   9.533   6.355 -0.7693 -0.1283  0.2854
  205ccc     N1 6317   6.928   9.641   6.168  0.2229  0.4640 -0.1124
  205ccc     C4 6318   7.080   9.621   6.150  1.2868  0.0554 -0.4640
  205ccc     H7 6319   7.114   9.677   6.063  2.8723  0.8631  0.6149
  205ccc     H8 6320   7.114   9.519   6.130  0.4896 -0.2594 -0.2696
  205ccc     C5 6321   7.132   9.710   6.272 -0.3966  0.2700 -0.0160
  205ccc     H9 6322   7.086   9.809   6.281  0.2267  0.5575  0.0428
  205ccc    H10 6323   7.109   9.652   6.363  0.8131 -0.3329 -0.0799
  205ccc     C6 6324   7.282   9.740   6.267  0.9070 -0.0327  0.2241
  205ccc     O1 6325   7.360   9.726   6.175 -0.7702  0.4349 -0.0624
  205ccc     O2 6326   7.329   9.772   6.387 -0.3662 -0.3440  0.1717
  205ccc    H11 6327   7.424   9.762   6.365 -0.1868 -1.6088  1.4154
  205ccc     C7 6328   6.841   9.628   6.042 -0.1781 -0.1487 -0.2608
  205ccc    H12 6329   6.852   9.522   6.020 -0.5233 -0.5912  1.5307
  205ccc    H13 6330   6.740   9.654   6.072 -0.1816  2.5659 -2.3049
  205ccc     C8 6331   6.874   9.709   5.918  0.3246  0.4219 -0.1754
  205ccc    H14 6332   6.850   9.816   5.929  0.1156  0.5562 -1.7535
  205ccc    H15 6333   6.980   9.689   5.902  0.4018  0.0866  0.6971
  205ccc     C9 6334   6.795   9.651   5.807 -0.2890 -0.0104  0.4605
  205ccc     O3 6335   6.751   9.537   5.807 -0.3208  0.4101  0.2220
  205ccc     O4 6336   6.797   9.721   5.692  0.4973 -0.3840  0.2008
  205ccc    H16 6337   6.848   9.802   5.711 -2.0765  1.2327  0.7975
  205ccc     O5 6338   6.726   9.371   6.429  0.0754  0.1253 -0.0138
  205ccc    H17 6339   6.911   9.740   6.195  0.9597  1.6648 -3.6069
  206ccc     C1 6340   5.422   9.460   9.533  0.1289  0.6459  0.1622
  206ccc     H1 6341   5.326   9.412   9.553  2.4422 -3.1585  3.7570
  206ccc     H2 6342   5.414   9.555   9.587  0.6639  0.1531  1.1294
  206ccc     C2 6343   5.450   9.490   9.391 -0.0893  0.2588 -0.6095
  206ccc     H3 6344   5.360   9.539   9.353 -0.8670  0.2409  1.1196
  206ccc     H4 6345   5.461   9.395   9.337  2.3006  0.9860 -1.5527
  206ccc     C3 6346   5.584   9.573   9.361  0.0784  0.8655 -0.1802
  206ccc     H5 6347   5.665   9.506   9.388 -0.7000  0.2146  0.6228
  206ccc     H6 6348   5.599   9.664   9.420 -1.1710  1.3587 -0.5851
  206ccc     N1 6349   5.597   9.614   9.215  0.7801  0.4465  0.0224
  206ccc     C4 6350   5.489   9.724   9.184 -0.0422  0.2613 -0.2334
  206ccc     H7 6351   5.399   9.699   9.239  1.2187 -2.3144  0.8247
  206ccc     H8 6352   5.463   9.719   9.078 -2.6190 -0.5753  0.3772
  206ccc     C5 6353   5.517   9.876   9.210  0.1600  0.0355  0.0468
  206ccc     H9 6354   5.540   9.883   9.317  2.0409 -0.8879 -0.2650
  206ccc    H10 6355   5.599   9.919   9.153  0.4703  0.8665  1.0871
  206ccc     C6 6356   5.387   9.957   9.178  0.8275 -0.1379  0.1185
  206ccc     O1 6357   5.287   9.900   9.135  0.1981 -0.0082  0.1347
  206ccc     O2 6358   5.395  10.092   9.186 -0.0235  0.1045  0.0810
  206ccc    H11 6359   5.480  10.110   9.228  0.1563  1.3364 -0.7663
  206ccc     C7 6360   5.732   9.669   9.172  0.0464 -0.6998 -0.5997
  206ccc    H12 6361   5.712   9.724   9.080  2.8197  1.3463 -0.1273
  206ccc    H13 6362   5.765   9.734   9.253 -1.9080 -3.6492  2.8251
  206ccc     C8 6363   5.833   9.552   9.130 -0.5037 -0.2333 -0.1045
  206ccc    H14 6364   5.832   9.473   9.206 -1.1050 -1.2373 -1.1210
  206ccc    H15 6365   5.805   9.499   9.038  2.5152  0.4835 -1.5737
  206ccc     C9 6366   5.969   9.605   9.097 -0.1279  0.5481  0.4660
  206ccc     O3 6367   5.999   9.719   9.098  0.6488 -0.0352  0.1872
  206ccc     O4 6368   6.066   9.522   9.054 -0.1476 -0.1219 -0.2373
  206ccc    H16 6369   6.036   9.433   9.080  0.2054 -0.2589 -0.2890
  206ccc     O5 6370   5.533   9.385   9.595  0.3288 -0.1266 -0.2887
  206ccc    H17 6371   5.575   9.528   9.163 -0.2555 -0.6889  2.2280
  207ccc     C1 6372   5.390   8.975  10.518  0.3414  0.1208  0.1537
  207ccc     H1 6373   5.471   8.935  10.580  0.0050  0.4501  0.8137
  207ccc     H2 6374   5.358   9.073  10.554  0.4918  0.5224 -0.7709
  207ccc     C2 6375   5.288   8.862  10.524 -0.6881  0.7207 -0.3980
  207ccc     H3 6376   5.288   8.821  10.625 -1.9248 -0.7546 -0.9548
  207ccc     H4 6377   5.319   8.774  10.466 -0.6375 -1.5835  2.8761
  207ccc     C3 6378   5.146   8.913  10.483 -0.5421 -0.1895 -0.5237
  207ccc     H5 6379   5.160   8.973  10.392 -3.2725  0.0468 -0.8877
  207ccc     H6 6380   5.102   8.989  10.548  0.5656 -0.1353  0.1787
  207ccc     N1 6381   5.047   8.799  10.463  0.0161 -0.1779  0.0610
  207ccc     C4 6382   4.915   8.860  10.406 -0.1446  0.1151 -0.7891
  207ccc     H7 6383   4.856   8.781  10.360  0.6724  0.0171 -1.7248
  207ccc     H8 6384   4.952   8.925  10.326  1.0181 -1.0333 -1.2270
  207ccc     C5 6385   4.836   8.946  10.505 -0.5734  0.1185 -0.3190
  207ccc     H9 6386   4.789   8.889  10.587  0.1979 -1.4340 -0.9028
  207ccc    H10 6387   4.905   9.005  10.567 -1.6003 -2.7421  3.9833
  207ccc     C6 6388   4.744   9.053  10.444  0.8349  0.2406 -0.6861
  207ccc     O1 6389   4.770   9.128  10.351 -0.0166 -0.1473 -0.0993
  207ccc     O2 6390   4.619   9.063  10.497 -0.3734 -0.0663  1.0570
  207ccc    H11 6391   4.576   9.139  10.452 -1.6395 -1.1237  0.4188
  207ccc     C7 6392   5.092   8.686  10.372  0.1704  0.4705  0.1897
  207ccc    H12 6393   5.170   8.629  10.422  1.2205  2.1836  0.5790
  207ccc    H13 6394   5.011   8.618  10.346  2.2125 -2.1446  0.2744
  207ccc     C8 6395   5.134   8.740  10.239 -0.5668  0.1215 -0.1877
  207ccc    H14 6396   5.101   8.842  10.216 -2.4239 -0.5837 -0.8564
  207ccc    H15 6397   5.242   8.760  10.235 -0.3733 -0.9247 -0.4659
  207ccc     C9 6398   5.109   8.650  10.117 -0.0840 -0.0231 -0.2397
  207ccc     O3 6399   5.087   8.529  10.127  0.2538  0.2010 -0.7444
  207ccc     O4 6400   5.105   8.708   9.998  0.2480  0.1217 -0.0629
  207ccc    H16 6401   5.070   8.633   9.947  0.4975 -0.4369  0.5622
  207ccc     O5 6402   5.435   8.988  10.384  0.0508  0.9004  0.0796
  207ccc    H17 6403   5.032   8.755  10.555 -2.8881 -1.0950 -0.7614
  208ccc     C1 6404   6.321   9.785   8.810  0.4490  0.0254  0.1298
  208ccc     H1 6405   6.366   9.839   8.725 -1.1831  1.0782 -0.1022
  208ccc     H2 6406   6.212   9.797   8.815  0.4873  0.1202  0.8360
  208ccc     C2 6407   6.374   9.832   8.944 -0.3559  0.2776 -0.8896
  208ccc     H3 6408   6.377   9.941   8.951  0.2889  0.3279 -1.8625
  208ccc     H4 6409   6.477   9.796   8.949 -0.5833 -0.2639  1.4859
  208ccc     C3 6410   6.306   9.767   9.061 -0.2667 -0.3990 -0.2203
  208ccc     H5 6411   6.337   9.662   9.064  1.3630 -0.0414 -2.3418
  208ccc     H6 6412   6.201   9.767   9.033 -0.1282  0.9623 -0.8318
  208ccc     N1 6413   6.335   9.832   9.195  0.0578 -0.5429 -0.0088
  208ccc     C4 6414   6.289   9.975   9.204 -0.2150 -0.7152 -0.5282
  208ccc     H7 6415   6.354  10.041   9.147  1.2053 -1.0104  0.6789
  208ccc     H8 6416   6.319  10.012   9.302  2.1150  0.7926 -1.7224
  208ccc     C5 6417   6.142  10.011   9.167  0.4464  0.0698  0.3866
  208ccc     H9 6418   6.105   9.975   9.070 -1.8738  0.3554  1.0938
  208ccc    H10 6419   6.076   9.959   9.239  1.4518 -2.2601 -0.2896
  208ccc     C6 6420   6.119  10.162   9.174  0.2587  0.9281  0.1729
  208ccc     O1 6421   6.203  10.236   9.218  0.1860 -0.0824 -0.2162
  208ccc     O2 6422   5.996  10.207   9.157  0.2685 -0.2870 -0.7756
  208ccc    H11 6423   6.012  10.298   9.186  2.9517 -1.0157  0.3054
  208ccc     C7 6424   6.270   9.757   9.306  0.0319  0.5421 -0.1133
  208ccc    H12 6425   6.262   9.822   9.393  0.7462  0.6467 -0.1209
  208ccc    H13 6426   6.168   9.736   9.274  0.6038 -1.5238 -0.7043
  208ccc     C8 6427   6.338   9.617   9.335 -0.6873  0.4944 -0.8776
  208ccc    H14 6428   6.351   9.562   9.241 -2.7626  2.3812 -2.3797
  208ccc    H15 6429   6.441   9.626   9.370 -0.9408  0.8413 -0.1899
  208ccc     C9 6430   6.240   9.534   9.419  0.0554  0.5548 -0.4644
  208ccc     O3 6431   6.184   9.581   9.516 -0.2363  1.2718  0.0623
  208ccc     O4 6432   6.188   9.431   9.350 -0.4087 -0.5175  0.1370
  208ccc    H16 6433   6.114   9.388   9.397 -2.6561  1.9877 -0.8330
  208ccc     O5 6434   6.355   9.646   8.806  0.6948 -0.0542 -0.0161
  208ccc    H17 6435   6.436   9.838   9.213 -0.0845  0.4624  0.5408
  209ccc     C1 6436   6.182   9.215   8.288  0.9279  0.1097 -0.3283
  209ccc     H1 6437   6.235   9.176   8.200 -2.2626 -2.0046 -1.4906
  209ccc     H2 6438   6.098   9.149   8.313 -0.0816  1.9259  1.2866
  209ccc     C2 6439   6.107   9.341   8.260  0.8241 -0.5449 -0.0825
  209ccc     H3 6440   6.071   9.388   8.353 -0.7711  2.2600 -1.9608
  209ccc     H4 6441   6.016   9.319   8.203 -0.8959 -1.6398  2.8635
  209ccc     C3 6442   6.193   9.446   8.195 -0.5914 -0.8456 -0.0935
  209ccc     H5 6443   6.257   9.400   8.119  0.7571  1.0174 -0.1743
  209ccc     H6 6444   6.261   9.486   8.271 -1.4177 -0.4141  0.4262
  209ccc     N1 6445   6.127   9.572   8.125  0.4958 -0.2472 -0.3336
  209ccc     C4 6446   6.010   9.546   8.031 -0.0898  0.6349 -0.5440
  209ccc     H7 6447   5.991   9.635   7.971 -0.8026  1.2783  0.5902
  209ccc     H8 6448   5.918   9.529   8.087  0.2381  2.3283  0.5862
  209ccc     C5 6449   6.040   9.432   7.930 -0.6460  0.6918  0.4022
  209ccc     H9 6450   6.145   9.444   7.901  0.8830  0.2094  5.0417
  209ccc    H10 6451   6.023   9.333   7.974 -1.0957 -0.0999 -1.4234
  209ccc     C6 6452   5.941   9.439   7.813 -0.4187 -0.0877  0.1870
  209ccc     O1 6453   5.878   9.542   7.795  0.6742  0.2550 -0.3683
  209ccc     O2 6454   5.936   9.346   7.728  0.2059  0.4462  0.0419
  209ccc    H11 6455   5.863   9.384   7.677 -0.2378  0.8321  0.9361
  209ccc     C7 6456   6.088   9.667   8.238  0.3250 -0.3350 -0.1398
  209ccc    H12 6457   6.004   9.620   8.290  1.9860 -1.4735  1.6477
  209ccc    H13 6458   6.168   9.674   8.311 -0.1490  1.0968  0.2884
  209ccc     C8 6459   6.033   9.809   8.187  0.7538 -0.7952 -0.3632
  209ccc    H14 6460   6.103   9.864   8.123 -0.7242  0.9476 -0.5637
  209ccc    H15 6461   5.937   9.801   8.136  1.5612  0.1950 -2.1190
  209ccc     C9 6462   6.005   9.907   8.299  0.4089  0.0241 -0.6439
  209ccc     O3 6463   6.013   9.879   8.417  0.2859 -0.4798  0.4813
  209ccc     O4 6464   6.022  10.029   8.261 -0.2616 -0.0279  0.3465
  209ccc    H16 6465   5.993  10.073   8.343  1.7738  1.4233  0.3538
  209ccc     O5 6466   6.265   9.223   8.409 -0.7506 -0.1534  0.2996
  209ccc    H17 6467   6.191   9.621   8.060 -0.7049  1.3818 -0.3518
  210ccc     C1 6468   5.796   8.158  11.227 -0.3127 -0.0340 -0.5805
  210ccc     H1 6469   5.724   8.178  11.308  0.3718 -0.6627  0.1983
  210ccc     H2 6470   5.897   8.169  11.270 -0.0631  1.3204 -1.4490
  210ccc     C2 6471   5.759   8.255  11.111  0.0044 -1.0042 -0.5233
  210ccc     H3 6472   5.746   8.357  11.150 -0.6249 -1.2965  0.0566
  210ccc     H4 6473   5.658   8.227  11.078 -0.1521  0.2527 -1.1788
  210ccc     C3 6474   5.860   8.253  10.994  0.4292 -0.3593  0.0808
  210ccc     H5 6475   5.857   8.155  10.945  3.0957 -0.7884  0.6228
  210ccc     H6 6476   5.957   8.277  11.037  0.1544  1.3341 -0.1805
  210ccc     N1 6477   5.818   8.361  10.891  0.3995  0.0638 -0.2874
  210ccc     C4 6478   5.947   8.434  10.857 -0.1698 -0.2169  0.1855
  210ccc     H7 6479   5.930   8.489  10.764 -0.2167  0.7475  0.7543
  210ccc     H8 6480   6.021   8.355  10.842 -1.4761 -1.1810 -1.5479
  210ccc     C5 6481   5.992   8.545  10.953  0.2360  0.4086  1.0306
  210ccc     H9 6482   5.950   8.642  10.925  1.3988  0.9587  1.1296
  210ccc    H10 6483   5.962   8.526  11.056  0.5639 -0.0230  1.0481
  210ccc     C6 6484   6.145   8.551  10.955 -0.5644  0.4960  0.3807
  210ccc     O1 6485   6.221   8.479  11.020  0.2930  0.4505  0.7454
  210ccc     O2 6486   6.191   8.659  10.901  0.0397 -0.5277 -0.1610
  210ccc    H11 6487   6.286   8.641  10.911 -0.1128 -1.2761  0.0542
  210ccc     C7 6488   5.756   8.294  10.772  0.0561  0.0783  0.8105
  210ccc    H12 6489   5.827   8.250  10.703  0.0849  0.2489  0.7302
  210ccc    H13 6490   5.689   8.215  10.804  0.7642 -0.9197 -0.1092
  210ccc     C8 6491   5.666   8.396  10.704  0.2945  0.0863 -0.0837
  210ccc    H14 6492   5.583   8.430  10.767  0.2412 -0.2047  0.0020
  210ccc    H15 6493   5.727   8.485  10.681  0.4153 -0.1441 -0.6844
  210ccc     C9 6494   5.618   8.333  10.570 -0.1677  0.0425  0.0798
  210ccc     O3 6495   5.679   8.341  10.463  0.8581  0.2765 -0.3044
  210ccc     O4 6496   5.533   8.232  10.583 -0.1471 -0.4457 -0.2203
  210ccc    H16 6497   5.494   8.243  10.672 -0.2934  1.0284 -0.4488
  210ccc     O5 6498   5.774   8.029  11.176  0.5342 -0.6960  0.4868
  210ccc    H17 6499   5.745   8.418  10.937 -1.0073 -1.9044  0.0013
  211ccc     C1 6500   5.999   7.161  11.260  0.3434  0.2862  0.1845
  211ccc     H1 6501   6.041   7.091  11.187 -0.9027 -1.6812  1.2600
  211ccc     H2 6502   6.054   7.174  11.354 -0.0650 -0.2795  0.5019
  211ccc     C2 6503   5.857   7.115  11.293 -0.5798  0.1832 -0.1360
  211ccc     H3 6504   5.862   7.008  11.316 -2.6478 -0.0326 -0.4858
  211ccc     H4 6505   5.792   7.133  11.207  0.1566 -3.3960 -1.5878
  211ccc     C3 6506   5.812   7.198  11.415  0.1496  0.3122 -0.8620
  211ccc     H5 6507   5.827   7.302  11.387  4.3165 -0.2851 -1.5424
  211ccc     H6 6508   5.878   7.164  11.495 -0.1125 -0.6479 -1.0414
  211ccc     N1 6509   5.665   7.195  11.465  0.1317 -0.0402  0.3364
  211ccc     C4 6510   5.571   7.241  11.360  0.7369  0.7683  0.8919
  211ccc     H7 6511   5.467   7.222  11.388  0.7549  0.1315  0.5306
  211ccc     H8 6512   5.579   7.180  11.271  2.6807 -0.1702  1.6560
  211ccc     C5 6513   5.582   7.386  11.316 -0.5467 -0.6155  0.5294
  211ccc     H9 6514   5.576   7.445  11.408  0.3046 -2.4677  1.8408
  211ccc    H10 6515   5.673   7.409  11.260  0.1263 -0.9981  1.4460
  211ccc     C6 6516   5.467   7.430  11.220 -0.2466 -0.0675  0.1167
  211ccc     O1 6517   5.396   7.357  11.154 -0.1845 -0.3008 -0.2719
  211ccc     O2 6518   5.457   7.561  11.210  0.2097 -0.3842 -0.2508
  211ccc    H11 6519   5.420   7.564  11.120  1.1403 -0.1936 -0.6369
  211ccc     C7 6520   5.627   7.054  11.509 -0.4151  0.6701 -0.6120
  211ccc    H12 6521   5.568   7.013  11.427 -1.4403  0.5612  0.1576
  211ccc    H13 6522   5.718   6.994  11.511 -0.3218  0.7393 -1.9878
  211ccc     C8 6523   5.557   7.046  11.650 -0.5674  0.1059  0.1083
  211ccc    H14 6524   5.622   7.063  11.737  1.1930 -1.6174 -0.8130
  211ccc    H15 6525   5.468   7.112  11.652 -1.5609 -1.1395 -1.1130
  211ccc     C9 6526   5.501   6.907  11.651  0.2750  0.8200 -0.2194
  211ccc     O3 6527   5.386   6.887  11.661 -0.5115  0.0741  0.3239
  211ccc     O4 6528   5.580   6.809  11.698  0.2297 -0.2307  0.4697
  211ccc    H16 6529   5.668   6.849  11.708 -0.2081  0.8535  0.1851
  211ccc     O5 6530   5.989   7.286  11.190 -0.1596 -0.2888  0.5533
  211ccc    H17 6531   5.664   7.259  11.546  1.0684 -1.2683  1.3542
  212ccc     C1 6532   6.875   7.373  10.369  0.2524  0.1427 -0.5212
  212ccc     H1 6533   6.915   7.273  10.352  0.6245  0.5986 -2.5930
  212ccc     H2 6534   6.952   7.450  10.355  0.7500 -0.2575 -0.0123
  212ccc     C2 6535   6.820   7.381  10.514 -0.1067 -0.3934  0.1784
  212ccc     H3 6536   6.774   7.480  10.518 -0.8702 -0.6395 -1.4442
  212ccc     H4 6537   6.908   7.377  10.578  0.5401 -1.7098 -0.7346
  212ccc     C3 6538   6.711   7.267  10.532 -0.6811 -0.1109 -0.2364
  212ccc     H5 6539   6.764   7.173  10.521  1.6025  1.1808 -1.0473
  212ccc     H6 6540   6.649   7.263  10.442 -1.0347 -2.9274  0.0632
  212ccc     N1 6541   6.624   7.276  10.660 -0.9569 -0.2753 -0.3172
  212ccc     C4 6542   6.491   7.353  10.642 -0.3706  0.3091  1.1242
  212ccc     H7 6543   6.443   7.351  10.740 -0.1804  1.1390  1.2365
  212ccc     H8 6544   6.421   7.294  10.582  0.0955  1.2535 -0.4066
  212ccc     C5 6545   6.496   7.502  10.592 -0.0556  0.3295  0.4848
  212ccc     H9 6546   6.575   7.559  10.642 -0.3383 -0.5455  1.9827
  212ccc    H10 6547   6.508   7.498  10.483 -0.6856 -0.2642  0.4265
  212ccc     C6 6548   6.366   7.576  10.601  0.2106  0.2650  0.7075
  212ccc     O1 6549   6.269   7.530  10.656 -0.4948  0.5013  0.2214
  212ccc     O2 6550   6.370   7.704  10.555  0.1844  0.3977  0.0337
  212ccc    H11 6551   6.459   7.700  10.516  1.5005 -0.7360  2.8772
  212ccc     C7 6552   6.591   7.140  10.721  0.2171  0.0902  0.4016
  212ccc    H12 6553   6.494   7.152  10.771  0.1078  2.8771 -0.3079
  212ccc    H13 6554   6.573   7.075  10.635 -2.0669  0.2950  0.6521
  212ccc     C8 6555   6.706   7.085  10.804 -0.2571  0.4651  0.2185
  212ccc    H14 6556   6.807   7.085  10.761 -0.7993  0.4761 -1.1186
  212ccc    H15 6557   6.720   7.145  10.895  1.3729 -0.7106  0.7898
  212ccc     C9 6558   6.682   6.944  10.859  0.3244  0.4654 -0.2467
  212ccc     O3 6559   6.613   6.864  10.800  0.3947  0.2984  0.1919
  212ccc     O4 6560   6.746   6.909  10.970  0.6851  0.6379 -0.0301
  212ccc    H16 6561   6.720   6.816  10.963  1.6007  0.4278 -0.9816
  212ccc     O5 6562   6.756   7.389  10.281 -0.1673  0.1380  0.2452
  212ccc    H17 6563   6.684   7.325  10.728 -0.6829 -0.2506 -0.5759
  213ccc     C1 6564   6.266   7.435   9.755 -0.0140 -0.1899  0.6488
  213ccc     H1 6565   6.188   7.491   9.702  0.4349 -0.4723 -0.3326
  213ccc     H2 6566   6.325   7.367   9.692 -0.6879  0.4709 -0.7274
  213ccc     C2 6567   6.216   7.338   9.862  0.1434  0.2833 -0.5770
  213ccc     H3 6568   6.130   7.377   9.918  0.2803 -0.7678  0.4175
  213ccc     H4 6569   6.296   7.311   9.931 -1.5311  0.0193  1.3603
  213ccc     C3 6570   6.177   7.201   9.790 -0.6472 -0.2000  0.2813
  213ccc     H5 6571   6.263   7.134   9.785 -0.1190  0.4187  0.8890
  213ccc     H6 6572   6.143   7.230   9.690 -0.4436  0.4513  0.3959
  213ccc     N1 6573   6.064   7.121   9.858 -0.4262  0.3468  0.0854
  213ccc     C4 6574   6.020   7.019   9.760  0.2469  1.0435  0.4445
  213ccc     H7 6575   5.978   6.937   9.818  2.3511 -0.2187  0.2622
  213ccc     H8 6576   6.103   6.970   9.709 -0.4899 -0.8596  1.0085
  213ccc     C5 6577   5.928   7.072   9.651  0.2827  0.3164  0.0117
  213ccc     H9 6578   5.851   7.137   9.693 -0.1737 -1.2686  1.7273
  213ccc    H10 6579   5.985   7.126   9.574 -1.4520  0.6484 -1.1217
  213ccc     C6 6580   5.863   6.961   9.564  0.1639 -0.8188 -0.9735
  213ccc     O1 6581   5.747   6.922   9.559 -0.2479 -0.3072  0.5350
  213ccc     O2 6582   5.954   6.890   9.499  0.0440 -0.6905  0.1270
  213ccc    H11 6583   5.892   6.836   9.447 -1.1289  1.6167 -1.0160
  213ccc     C7 6584   6.115   7.057   9.990 -0.2547  0.8915  0.1577
  213ccc    H12 6585   6.171   6.969   9.957 -1.3165  0.4185 -0.4346
  213ccc    H13 6586   6.179   7.133  10.034  0.3377  0.9958 -0.8594
  213ccc     C8 6587   6.020   7.005  10.095  0.2205 -0.5351  0.0860
  213ccc    H14 6588   5.951   7.089  10.113  0.2006 -0.4649 -0.3166
  213ccc    H15 6589   5.959   6.922  10.058 -1.3641  0.6983 -0.1614
  213ccc     C9 6590   6.094   6.956  10.212 -0.1008  0.6967  1.0066
  213ccc     O3 6591   6.168   7.033  10.269 -0.5207 -0.1126  0.0918
  213ccc     O4 6592   6.129   6.829  10.202  0.3567 -0.4931  1.0787
  213ccc    H16 6593   6.206   6.822  10.261  0.9026  0.2181  0.4748
  213ccc     O5 6594   6.353   7.521   9.829 -0.3662  0.1090  0.0842
  213ccc    H17 6595   5.982   7.181   9.875 -1.0762 -0.3263 -0.6374
  214ccc     C1 6596   7.266   6.835   8.869 -0.0291  0.5178  0.0713
  214ccc     H1 6597   7.360   6.842   8.813  0.0327  2.7840  0.3793
  214ccc     H2 6598   7.291   6.829   8.976 -1.2093 -0.2089  0.3194
  214ccc     C2 6599   7.202   6.699   8.832  0.1864 -0.4032  0.1217
  214ccc     H3 6600   7.266   6.616   8.864  0.7071  0.4669  1.4203
  214ccc     H4 6601   7.185   6.697   8.724  0.3966  2.1699 -0.0260
  214ccc     C3 6602   7.085   6.678   8.925 -0.0170 -0.2097  0.0513
  214ccc     H5 6603   7.010   6.755   8.908 -0.4112 -0.6400 -0.1754
  214ccc     H6 6604   7.124   6.674   9.027  0.4398 -0.6600 -0.1352
  214ccc     N1 6605   7.009   6.541   8.888 -0.2474  0.2401  0.6741
  214ccc     C4 6606   6.910   6.500   8.998 -0.1249 -0.2565 -0.2306
  214ccc     H7 6607   6.848   6.418   8.963  2.4040 -1.4814 -2.1591
  214ccc     H8 6608   6.853   6.591   9.016 -0.1848  0.3142 -2.9228
  214ccc     C5 6609   6.982   6.461   9.129  0.1618 -0.2311 -0.9250
  214ccc     H9 6610   7.047   6.374   9.110  0.8389  0.0427  0.0590
  214ccc    H10 6611   7.041   6.541   9.174  1.3082 -1.7282  0.3484
  214ccc     C6 6612   6.888   6.414   9.239 -0.0502  0.1298 -1.0576
  214ccc     O1 6613   6.766   6.407   9.214 -0.3756  0.3300  0.5156
  214ccc     O2 6614   6.919   6.461   9.369  0.3847  0.1980  0.2583
  214ccc    H11 6615   7.014   6.482   9.368  0.4158  0.0858  0.6931
  214ccc     C7 6616   6.940   6.565   8.757 -0.4222 -0.3037 -0.1584
  214ccc    H12 6617   6.866   6.643   8.780 -0.7733 -0.3526 -1.0498
  214ccc    H13 6618   7.009   6.615   8.689 -0.7609 -2.0914 -1.9090
  214ccc     C8 6619   6.876   6.437   8.702  0.6022  0.1488  0.7074
  214ccc    H14 6620   6.932   6.348   8.734  1.5575 -0.0369 -1.3416
  214ccc    H15 6621   6.772   6.437   8.738 -0.1128  3.6211 -0.8894
  214ccc     C9 6622   6.871   6.462   8.545 -0.3096 -0.4567 -0.3121
  214ccc     O3 6623   6.782   6.519   8.487  0.2267 -0.3266 -0.4185
  214ccc     O4 6624   6.979   6.422   8.482  0.3109  0.2763 -0.2091
  214ccc    H16 6625   6.953   6.436   8.390  1.0915 -1.5895 -0.7586
  214ccc     O5 6626   7.172   6.943   8.846 -0.7398  0.1606  0.3090
  214ccc    H17 6627   7.077   6.465   8.875  1.2387  1.5163  0.7432
  215ccc     C1 6628   7.022   7.534   8.215  1.0307  0.5783 -0.1572
  215ccc     H1 6629   6.970   7.625   8.248 -0.0876 -0.7442  1.9907
  215ccc     H2 6630   7.112   7.565   8.160  0.6129  1.6771 -0.2557
  215ccc     C2 6631   6.921   7.461   8.111  0.3137 -0.6506 -0.5722
  215ccc     H3 6632   6.922   7.507   8.011  0.1249 -2.2200 -1.3340
  215ccc     H4 6633   6.820   7.483   8.149  0.1759 -0.5296 -1.0021
  215ccc     C3 6634   6.937   7.313   8.090  0.0958  0.1348  0.2450
  215ccc     H5 6635   6.978   7.266   8.179 -2.0450 -0.1360  1.1652
  215ccc     H6 6636   7.016   7.298   8.017  1.0782 -1.8647  1.6201
  215ccc     N1 6637   6.812   7.228   8.039 -0.1918 -0.3338  0.3381
  215ccc     C4 6638   6.725   7.174   8.151  0.4907 -0.2277  0.3399
  215ccc     H7 6639   6.783   7.100   8.206 -0.1712 -1.6955 -0.8428
  215ccc     H8 6640   6.640   7.122   8.105 -0.0128  1.5859 -0.8935
  215ccc     C5 6641   6.662   7.277   8.248  0.2771  0.1614  0.9282
  215ccc     H9 6642   6.730   7.323   8.321 -2.0872  1.0154  2.7287
  215ccc    H10 6643   6.612   7.358   8.192 -2.9644 -1.5203  1.1673
  215ccc     C6 6644   6.552   7.213   8.327  0.5382 -0.0848 -0.0068
  215ccc     O1 6645   6.499   7.107   8.297 -0.6314 -0.3099  0.5170
  215ccc     O2 6646   6.526   7.280   8.446 -1.1147  0.2260  0.5981
  215ccc    H11 6647   6.591   7.352   8.453 -1.0506  0.0454  2.0466
  215ccc     C7 6648   6.727   7.303   7.935 -0.4537  0.2299 -0.1570
  215ccc    H12 6649   6.630   7.254   7.921 -2.3412  2.3708  3.7204
  215ccc    H13 6650   6.698   7.404   7.962 -0.7360  0.8191 -2.4517
  215ccc     C8 6651   6.801   7.309   7.812 -0.5446 -0.4230  0.3919
  215ccc    H14 6652   6.901   7.352   7.828 -0.4858  0.4138 -1.7703
  215ccc    H15 6653   6.826   7.210   7.772  2.6908  0.3428  0.1676
  215ccc     C9 6654   6.730   7.385   7.698  0.1200 -0.3161  0.6446
  215ccc     O3 6655   6.610   7.402   7.702 -0.3219 -0.1747  0.3013
  215ccc     O4 6656   6.811   7.452   7.611  0.2433 -0.3727 -0.0181
  215ccc    H16 6657   6.757   7.526   7.579  2.4702  1.2401 -0.2778
  215ccc     O5 6658   7.058   7.443   8.326 -0.0298  0.1681  0.1592
  215ccc    H17 6659   6.854   7.142   8.001  1.1812 -0.6698  2.4578
  216ccc     C1 6660   5.949   6.312   8.750  0.0898 -0.4496 -0.1016
  216ccc     H1 6661   5.978   6.224   8.693  3.8073  0.4161  0.1969
  216ccc     H2 6662   5.857   6.299   8.809 -1.2165 -0.0073 -1.9744
  216ccc     C2 6663   5.966   6.442   8.664 -0.0914 -0.1244  0.3408
  216ccc     H3 6664   5.994   6.523   8.732  0.3747  0.1948 -0.2234
  216ccc     H4 6665   5.873   6.462   8.610 -0.5784 -2.8578  0.0242
  216ccc     C3 6666   6.083   6.433   8.557  0.3711 -0.5720 -0.0948
  216ccc     H5 6667   6.069   6.345   8.495  0.3453  0.4391 -1.5786
  216ccc     H6 6668   6.176   6.441   8.613 -1.4414  2.6515  2.8796
  216ccc     N1 6669   6.083   6.548   8.464 -0.0995 -0.6692 -0.1166
  216ccc     C4 6670   5.972   6.531   8.362  0.3216 -0.6961  0.0238
  216ccc     H7 6671   5.958   6.630   8.319 -0.7486 -0.7583  0.2010
  216ccc     H8 6672   5.879   6.485   8.397 -0.7359 -0.9751 -2.8807
  216ccc     C5 6673   6.010   6.447   8.247 -0.1586  0.2699 -0.0922
  216ccc     H9 6674   6.115   6.459   8.215 -0.9710  1.0752 -2.6707
  216ccc    H10 6675   6.003   6.339   8.269  3.2777 -0.2181 -0.7299
  216ccc     C6 6676   5.926   6.478   8.123  0.0028 -0.1593  0.0887
  216ccc     O1 6677   5.813   6.527   8.124  0.2297 -0.0250 -0.4660
  216ccc     O2 6678   6.008   6.484   8.015  0.1834 -0.1163  0.3048
  216ccc    H11 6679   6.079   6.423   8.040  1.9492  1.0169 -1.6090
  216ccc     C7 6680   6.093   6.684   8.541 -0.1265  0.0163  0.1416
  216ccc    H12 6681   6.009   6.692   8.610  0.6764  0.6948  1.0785
  216ccc    H13 6682   6.181   6.685   8.606 -0.2011  2.7405  0.2853
  216ccc     C8 6683   6.080   6.818   8.462 -0.0402 -0.1768  0.0009
  216ccc    H14 6684   5.979   6.819   8.419  1.0725 -0.1625 -2.8104
  216ccc    H15 6685   6.084   6.899   8.536  0.8123 -1.1811  1.0935
  216ccc     C9 6686   6.177   6.840   8.348  0.6854 -0.9179 -0.3179
  216ccc     O3 6687   6.239   6.943   8.337 -0.0718 -0.5484 -0.0662
  216ccc     O4 6688   6.170   6.743   8.255 -0.2564 -0.0232  0.4426
  216ccc    H16 6689   6.228   6.768   8.181 -1.1586  1.9766  0.3400
  216ccc     O5 6690   6.052   6.337   8.844 -0.3852  0.0224  0.1779
  216ccc    H17 6691   6.169   6.545   8.407 -1.9548 -0.3347 -3.1476
  217ccc     C1 6692   6.509   6.398   9.734 -0.7174  0.0613  0.1853
  217ccc     H1 6693   6.406   6.414   9.766 -0.7582 -0.1416  0.1501
  217ccc     H2 6694   6.540   6.295   9.751 -0.1227  0.1846 -0.1030
  217ccc     C2 6695   6.608   6.485   9.816  0.7060  0.2516  0.3105
  217ccc     H3 6696   6.708   6.477   9.771  0.7670  0.3634  0.4256
  217ccc     H4 6697   6.612   6.428   9.910 -0.1631 -1.4246 -0.6081
  217ccc     C3 6698   6.555   6.624   9.831  0.1800 -0.1150  0.3689
  217ccc     H5 6699   6.460   6.619   9.884  0.7046  0.4317  1.4031
  217ccc     H6 6700   6.550   6.668   9.732  2.7921 -1.1698 -0.3094
  217ccc     N1 6701   6.641   6.719   9.912  0.3269 -0.4555 -0.4112
  217ccc     C4 6702   6.785   6.725   9.865  0.8862 -0.0845  0.6119
  217ccc     H7 6703   6.838   6.633   9.890  1.3384  0.0646  0.2164
  217ccc     H8 6704   6.838   6.799   9.924  0.5830  1.2544 -0.7406
  217ccc     C5 6705   6.807   6.757   9.718  0.0525 -0.2389 -0.3064
  217ccc     H9 6706   6.727   6.730   9.649  0.6913 -0.9773 -0.7624
  217ccc    H10 6707   6.808   6.867   9.724  0.9649 -0.2833  0.4802
  217ccc     C6 6708   6.934   6.698   9.663 -1.5594  0.2866 -0.1566
  217ccc     O1 6709   6.975   6.589   9.689 -0.4202  0.3783 -0.4531
  217ccc     O2 6710   6.973   6.747   9.542  0.2647  0.0685 -0.0340
  217ccc    H11 6711   7.031   6.671   9.524 -0.1834 -0.0637 -0.9831
  217ccc     C7 6712   6.576   6.858   9.920 -0.5444  0.7047 -0.2862
  217ccc    H12 6713   6.650   6.929   9.884  0.5662 -0.3888 -0.2283
  217ccc    H13 6714   6.490   6.867   9.854 -1.1816 -0.4554  0.3425
  217ccc     C8 6715   6.534   6.889  10.060  0.2336 -0.4351 -0.2022
  217ccc    H14 6716   6.469   6.812  10.102 -1.4105  0.9404 -0.1415
  217ccc    H15 6717   6.629   6.902  10.115  1.6448  4.2621 -3.1405
  217ccc     C9 6718   6.469   7.028  10.062  0.1836  0.3634  0.3551
  217ccc     O3 6719   6.438   7.097   9.968  0.1368  0.0059 -0.5253
  217ccc     O4 6720   6.444   7.068  10.183 -0.0338 -0.1343 -0.1519
  217ccc    H16 6721   6.475   7.006  10.252 -1.8978  0.1728  1.0357
  217ccc     O5 6722   6.529   6.426   9.593 -0.5245  0.1245 -0.4846
  217ccc    H17 6723   6.642   6.684  10.009  0.0080 -0.2333 -0.3260
  218ccc     C1 6724   7.355   9.050   7.609 -0.4750 -0.4016  0.3277
  218ccc     H1 6725   7.389   9.154   7.621  0.5290 -0.6746 -0.1163
  218ccc     H2 6726   7.427   8.972   7.583 -0.5357 -0.1656 -0.5673
  218ccc     C2 6727   7.250   9.036   7.496 -0.6875  0.6679  0.4602
  218ccc     H3 6728   7.224   8.931   7.477  2.0778 -0.0275  0.0177
  218ccc     H4 6729   7.310   9.062   7.408  1.3369 -0.1368  1.5310
  218ccc     C3 6730   7.124   9.118   7.519 -1.0476 -0.3416  0.0301
  218ccc     H5 6731   7.150   9.222   7.540 -1.8777  0.2760 -1.7704
  218ccc     H6 6732   7.080   9.072   7.607 -1.3951  1.1472  0.6538
  218ccc     N1 6733   7.020   9.118   7.401  0.2358  0.2980 -1.0365
  218ccc     C4 6734   6.876   9.124   7.461 -0.8465  0.5250  0.2012
  218ccc     H7 6735   6.818   9.138   7.370  2.6919 -0.7700 -2.5456
  218ccc     H8 6736   6.878   9.210   7.527 -0.1631  1.1940 -0.6561
  218ccc     C5 6737   6.819   8.996   7.518  0.2829 -0.2030  0.1739
  218ccc     H9 6738   6.902   8.924   7.517 -0.5198 -1.1549 -0.0276
  218ccc    H10 6739   6.802   9.007   7.626  1.1734  1.7344  0.1680
  218ccc     C6 6740   6.705   8.936   7.455  0.9780  0.2547 -0.3740
  218ccc     O1 6741   6.653   8.981   7.355  0.8615  0.3621 -0.3047
  218ccc     O2 6742   6.657   8.827   7.520  0.0526  0.0508  0.1216
  218ccc    H11 6743   6.708   8.821   7.603  0.3889 -2.0662 -0.1826
  218ccc     C7 6744   7.044   9.243   7.323 -0.5578  0.4876  0.1616
  218ccc    H12 6745   6.956   9.272   7.266  0.2347 -0.1529 -1.4478
  218ccc    H13 6746   7.066   9.321   7.396  2.1843  0.2360 -0.2611
  218ccc     C8 6747   7.168   9.236   7.234 -0.3325  0.1025 -0.0183
  218ccc    H14 6748   7.260   9.247   7.293 -1.3832  0.7579  1.5708
  218ccc    H15 6749   7.175   9.141   7.180  0.7437  0.7114 -0.9797
  218ccc     C9 6750   7.172   9.350   7.135  0.1258  0.8642  0.0171
  218ccc     O3 6751   7.096   9.442   7.144  0.5822  0.2163  0.5022
  218ccc     O4 6752   7.247   9.332   7.022  0.1441  0.0348 -0.0115
  218ccc    H16 6753   7.215   9.405   6.966  0.0619 -0.5976 -0.8103
  218ccc     O5 6754   7.292   9.006   7.739 -0.1876 -0.0113 -0.6882
  218ccc    H17 6755   7.030   9.034   7.342 -3.9233 -0.5975 -0.8112
  219ccc     C1 6756   7.423   8.204   7.908 -0.3072 -0.4994  0.3012
  219ccc     H1 6757   7.401   8.137   7.991 -0.2926 -0.7037  0.1424
  219ccc     H2 6758   7.361   8.185   7.819 -1.1719  2.1850  0.2223
  219ccc     C2 6759   7.574   8.184   7.878  0.2310  0.2125  0.6036
  219ccc     H3 6760   7.586   8.080   7.846  2.1866  0.7155 -0.4327
  219ccc     H4 6761   7.636   8.183   7.969  0.5407  0.0875  0.3879
  219ccc     C3 6762   7.634   8.290   7.783  0.3512 -0.5607 -0.3748
  219ccc     H5 6763   7.670   8.374   7.842 -1.9319  0.3997 -0.2826
  219ccc     H6 6764   7.562   8.336   7.715  0.8707  1.8720  0.6075
  219ccc     N1 6765   7.749   8.232   7.705 -0.4987  0.4307 -0.2427
  219ccc     C4 6766   7.796   8.349   7.620  0.2978  0.5492 -0.3403
  219ccc     H7 6767   7.867   8.406   7.680 -1.2088  1.8631  0.2922
  219ccc     H8 6768   7.717   8.423   7.604  0.1227  0.6451  0.8411
  219ccc     C5 6769   7.863   8.318   7.488 -0.7352 -0.3649 -0.7884
  219ccc     H9 6770   7.961   8.268   7.490 -1.5283 -1.9524  0.5517
  219ccc    H10 6771   7.790   8.261   7.430 -1.1405 -0.6453 -0.0193
  219ccc     C6 6772   7.878   8.447   7.408 -0.2426  0.1435  0.0310
  219ccc     O1 6773   7.849   8.557   7.450 -0.5423  0.4201  0.1926
  219ccc     O2 6774   7.894   8.427   7.274 -0.2257  0.3342  1.1879
  219ccc    H11 6775   7.918   8.334   7.257  0.7646  1.0591 -2.1425
  219ccc     C7 6776   7.865   8.175   7.790 -0.6789 -0.1390 -0.0653
  219ccc    H12 6777   7.941   8.252   7.803 -1.3028  0.8242 -1.7284
  219ccc    H13 6778   7.821   8.138   7.883 -0.3225 -1.9039 -0.5546
  219ccc     C8 6779   7.949   8.052   7.734  0.0329 -0.2390  0.2332
  219ccc    H14 6780   7.892   7.958   7.725  2.2188 -1.4002 -5.5985
  219ccc    H15 6781   7.983   8.081   7.634  1.0359  1.1901  0.9660
  219ccc     C9 6782   8.075   8.019   7.809  0.2382 -0.7268 -0.1234
  219ccc     O3 6783   8.113   8.097   7.895  0.0196  0.1819 -0.0079
  219ccc     O4 6784   8.159   7.947   7.734  0.1651  0.3091 -0.0588
  219ccc    H16 6785   8.237   7.928   7.789  2.3094  2.7904 -1.9840
  219ccc     O5 6786   7.410   8.344   7.950  0.0711 -0.8176  0.2016
  219ccc    H17 6787   7.706   8.156   7.650  1.0494 -2.3912  2.1594
  220ccc     C1 6788   7.619   8.907   8.756 -0.1449  0.5389  0.3607
  220ccc     H1 6789   7.578   8.991   8.698  0.7039  0.6185 -0.1358
  220ccc     H2 6790   7.562   8.892   8.849 -1.5475 -1.1891 -0.7235
  220ccc     C2 6791   7.767   8.935   8.783  0.1404 -0.3399  0.1635
  220ccc     H3 6792   7.810   8.866   8.857  0.3857  2.5723  2.9535
  220ccc     H4 6793   7.771   9.037   8.822 -1.1358  0.9814 -2.8766
  220ccc     C3 6794   7.867   8.928   8.659  0.0307  0.2848 -0.4044
  220ccc     H5 6795   7.876   8.825   8.625  0.9405  0.5843 -1.1384
  220ccc     H6 6796   7.964   8.962   8.695 -1.1101  0.8517  2.3747
  220ccc     N1 6797   7.839   9.013   8.533 -0.2169 -0.4369  0.5786
  220ccc     C4 6798   7.729   8.952   8.446 -0.1681 -0.4273 -0.1917
  220ccc     H7 6799   7.633   8.977   8.491 -0.5673  0.2838 -1.3926
  220ccc     H8 6800   7.745   8.845   8.461 -0.0481 -0.5312 -1.0256
  220ccc     C5 6801   7.740   8.982   8.293 -0.2508  0.5574 -0.4950
  220ccc     H9 6802   7.734   9.089   8.271 -0.4852  0.1348 -2.6824
  220ccc    H10 6803   7.840   8.948   8.262  0.5513  0.5103  1.9199
  220ccc     C6 6804   7.629   8.891   8.232  0.1544 -0.9764 -0.7690
  220ccc     O1 6805   7.542   8.831   8.297 -0.7859  0.7776  0.0177
  220ccc     O2 6806   7.599   8.915   8.107 -0.5647 -0.0052  0.0869
  220ccc    H11 6807   7.664   8.971   8.061 -1.2755  0.5523 -0.2701
  220ccc     C7 6808   7.808   9.164   8.555  0.1811 -0.0800 -0.4504
  220ccc    H12 6809   7.764   9.217   8.471  0.0139  1.2838  0.4648
  220ccc    H13 6810   7.732   9.163   8.633 -0.4063  1.0976 -0.9905
  220ccc     C8 6811   7.913   9.251   8.627  0.1333  0.1802 -0.7467
  220ccc    H14 6812   7.936   9.204   8.723 -0.8954  2.0517  0.4915
  220ccc    H15 6813   8.006   9.268   8.572  0.4652 -0.4904 -0.3953
  220ccc     C9 6814   7.852   9.388   8.660  0.1301 -0.0734  0.4207
  220ccc     O3 6815   7.729   9.409   8.651 -0.1038 -0.0085 -1.2614
  220ccc     O4 6816   7.926   9.476   8.727  0.6551  0.7861 -0.0166
  220ccc    H16 6817   8.016   9.441   8.736 -0.2482 -1.3681  1.4186
  220ccc     O5 6818   7.616   8.787   8.686 -0.1881  0.3939  0.1257
  220ccc    H17 6819   7.923   9.002   8.475  0.4036  0.5129  1.2706
  221ccc     C1 6820   7.809   8.751   9.199 -0.8250  0.2733  1.0088
  221ccc     H1 6821   7.739   8.797   9.128  1.8769  1.3551 -1.1753
  221ccc     H2 6822   7.766   8.689   9.278  0.0149 -1.7364 -0.0237
  221ccc     C2 6823   7.900   8.868   9.250  0.1514 -0.0344 -0.2596
  221ccc     H3 6824   7.845   8.951   9.294  2.8411 -0.4043  4.4766
  221ccc     H4 6825   7.959   8.909   9.167 -0.4542  1.7987  0.1685
  221ccc     C3 6826   7.994   8.811   9.360 -0.1307 -0.2273 -0.3731
  221ccc     H5 6827   8.055   8.727   9.324  2.1187  1.4918 -0.8523
  221ccc     H6 6828   7.940   8.770   9.445 -0.8115  0.6212 -0.3827
  221ccc     N1 6829   8.098   8.911   9.409 -0.2552 -0.2333 -0.0782
  221ccc     C4 6830   8.185   8.974   9.301 -1.0901  0.5053 -0.1927
  221ccc     H7 6831   8.251   9.054   9.335  2.1765 -2.4411  1.0395
  221ccc     H8 6832   8.126   9.016   9.220 -1.2339 -0.9565 -0.8667
  221ccc     C5 6833   8.279   8.875   9.236  0.2097 -0.8800 -0.5754
  221ccc     H9 6834   8.346   8.824   9.306  0.8724  0.0878 -0.4844
  221ccc    H10 6835   8.220   8.801   9.181 -1.7764  0.3101 -0.1542
  221ccc     C6 6836   8.364   8.933   9.127  0.1505 -0.9697  0.1482
  221ccc     O1 6837   8.342   9.048   9.096  0.0946  0.7052 -0.0143
  221ccc     O2 6838   8.469   8.866   9.079 -0.2912  0.0374 -0.1677
  221ccc    H11 6839   8.468   8.774   9.111  2.4719 -0.2449 -0.6695
  221ccc     C7 6840   8.030   9.023   9.486 -0.0888 -0.3464  0.4056
  221ccc    H12 6841   8.095   9.106   9.514 -0.5985  0.5775 -1.0552
  221ccc    H13 6842   7.962   9.067   9.412  0.8918 -0.1747 -0.4146
  221ccc     C8 6843   7.958   8.987   9.621  0.2747 -0.4319  0.1339
  221ccc    H14 6844   7.866   8.933   9.594  1.8111 -2.0350 -2.3934
  221ccc    H15 6845   8.014   8.924   9.691  3.7171  2.5659  0.3370
  221ccc     C9 6846   7.917   9.109   9.700  0.0164  0.1063 -0.1281
  221ccc     O3 6847   7.898   9.219   9.655 -0.3362 -0.3887  0.1860
  221ccc     O4 6848   7.872   9.080   9.822 -0.8369  0.1896  0.1546
  221ccc    H16 6849   7.916   8.999   9.851  0.8345  0.3346 -1.7659
  221ccc     O5 6850   7.894   8.664   9.117  0.2299  0.1962 -0.1773
  221ccc    H17 6851   8.164   8.874   9.480  0.4012  0.1382 -0.4819
  222ccc     C1 6852   4.873  10.124   7.465  0.4763 -0.0017  0.2697
  222ccc     H1 6853   4.818  10.095   7.375  1.2168 -0.1422 -0.1491
  222ccc     H2 6854   4.980  10.126   7.441  1.1782 -2.2340  2.6780
  222ccc     C2 6855   4.857  10.019   7.579 -0.1048  0.4897  0.3793
  222ccc     H3 6856   4.898   9.922   7.549 -2.2096  0.0894 -1.4489
  222ccc     H4 6857   4.751   9.991   7.593 -0.3956  1.3056 -0.1008
  222ccc     C3 6858   4.921  10.083   7.708  0.3780  0.0632 -0.7054
  222ccc     H5 6859   4.896  10.017   7.791  0.7292  0.1806 -0.5077
  222ccc     H6 6860   4.880  10.183   7.725 -0.6240 -0.5241  0.4872
  222ccc     N1 6861   5.074  10.094   7.707 -0.0062  0.4727 -0.2625
  222ccc     C4 6862   5.113  10.164   7.833 -0.0114  0.7522 -0.1057
  222ccc     H7 6863   5.214  10.147   7.871 -0.1467  0.4108  0.1075
  222ccc     H8 6864   5.049  10.124   7.911 -0.6643 -2.2850 -2.0317
  222ccc     C5 6865   5.103  10.318   7.815  0.0505  0.8242  0.0863
  222ccc     H9 6866   5.201  10.359   7.789  0.8602  0.2298  1.9573
  222ccc    H10 6867   5.028  10.341   7.739  1.1467  3.7813 -0.2239
  222ccc     C6 6868   5.043  10.374   7.947  0.0753  0.4662  0.2656
  222ccc     O1 6869   4.987  10.312   8.035  0.0923  0.5265  0.3405
  222ccc     O2 6870   5.050  10.507   7.942 -0.0555 -0.0358  0.2017
  222ccc    H11 6871   4.993  10.535   8.015 -0.5310 -1.4125  0.3792
  222ccc     C7 6872   5.133   9.950   7.712 -0.1108 -0.1650  0.3572
  222ccc    H12 6873   5.108   9.908   7.810  1.9733 -1.3366  0.4421
  222ccc    H13 6874   5.086   9.884   7.639 -1.3517  1.8757 -0.7900
  222ccc     C8 6875   5.285   9.945   7.682 -0.3934 -0.0485  0.0074
  222ccc    H14 6876   5.336  10.042   7.693  0.9016 -0.5937 -0.9427
  222ccc    H15 6877   5.333   9.864   7.739 -1.3569  0.3360  1.4271
  222ccc     C9 6878   5.317   9.903   7.536 -0.3233  0.2098 -0.0944
  222ccc     O3 6879   5.237   9.900   7.444 -0.0834 -0.1497  0.0555
  222ccc     O4 6880   5.443   9.867   7.525 -0.0860  0.5423  1.0181
  222ccc    H16 6881   5.445   9.861   7.428 -0.1581 -1.0830  1.0829
  222ccc     O5 6882   4.824  10.253   7.517  0.0034 -0.5341  0.0528
  222ccc    H17 6883   5.108  10.152   7.630  2.6968 -0.5494  0.0298
  223ccc     C1 6884   5.241  10.794   7.916 -0.2609 -0.4853 -0.3299
  223ccc     H1 6885   5.272  10.896   7.941 -0.7206 -0.3275 -0.4011
  223ccc     H2 6886   5.180  10.766   8.003  0.6480  0.5872  0.6997
  223ccc     C2 6887   5.367  10.703   7.907  0.2102  0.6484 -0.4377
  223ccc     H3 6888   5.335  10.607   7.866 -0.9282  0.2638  1.2567
  223ccc     H4 6889   5.389  10.683   8.012 -0.7887 -1.4482 -0.5817
  223ccc     C3 6890   5.479  10.777   7.835 -0.2553  0.4572 -0.2023
  223ccc     H5 6891   5.508  10.861   7.897 -3.7172  0.8160  1.1721
  223ccc     H6 6892   5.455  10.813   7.735 -0.5895  2.2041  0.4786
  223ccc     N1 6893   5.608  10.694   7.829 -0.4575  0.4222 -0.0140
  223ccc     C4 6894   5.676  10.655   7.970 -0.1368 -0.4970  0.1158
  223ccc     H7 6895   5.761  10.593   7.942  0.5284  0.3001  0.3193
  223ccc     H8 6896   5.608  10.590   8.026 -2.0060 -0.7773 -2.2779
  223ccc     C5 6897   5.715  10.784   8.046  0.2278 -0.3159  0.2098
  223ccc     H9 6898   5.762  10.860   7.982 -0.9382  1.8355  1.7781
  223ccc    H10 6899   5.621  10.829   8.081 -0.8918 -0.8594 -1.9449
  223ccc     C6 6900   5.814  10.752   8.154 -0.4818  0.2189 -0.7461
  223ccc     O1 6901   5.847  10.641   8.189 -0.6002  0.2999  0.0145
  223ccc     O2 6902   5.847  10.857   8.222 -0.2782  0.1996 -0.5493
  223ccc    H11 6903   5.781  10.924   8.196 -0.5948 -0.1112 -0.5503
  223ccc     C7 6904   5.596  10.570   7.747  0.3207  0.0445  0.0919
  223ccc    H12 6905   5.701  10.552   7.723 -0.1415 -1.0013 -1.3062
  223ccc    H13 6906   5.542  10.489   7.798 -0.5146  0.5435  0.0300
  223ccc     C8 6907   5.532  10.593   7.609 -0.3445 -1.2270 -0.3676
  223ccc    H14 6908   5.426  10.620   7.618 -0.0584 -0.6575  1.6744
  223ccc    H15 6909   5.589  10.678   7.569 -0.4597 -1.4564 -1.0345
  223ccc     C9 6910   5.558  10.484   7.512 -0.0243  0.2664  0.2930
  223ccc     O3 6911   5.669  10.439   7.484  0.4272  0.0256 -0.4389
  223ccc     O4 6912   5.452  10.415   7.474  0.0342  0.2492  0.8226
  223ccc    H16 6913   5.504  10.348   7.426 -1.4212  1.1862 -2.3318
  223ccc     O5 6914   5.153  10.798   7.801  0.0097 -0.5515  0.4475
  223ccc    H17 6915   5.684  10.752   7.788  0.4150 -1.2962 -0.9390
  224ccc     C1 6916   4.181   9.907   6.099 -0.1682 -0.2578  0.4377
  224ccc     H1 6917   4.278   9.858   6.115  0.9087  1.6030 -0.1946
  224ccc     H2 6918   4.092   9.843   6.099 -2.0260  2.1961  0.6380
  224ccc     C2 6919   4.171   9.985   5.969 -0.5506 -0.0419 -0.4786
  224ccc     H3 6920   4.075  10.037   5.958 -0.3359 -0.0540 -3.2877
  224ccc     H4 6921   4.178   9.918   5.883  0.4071  0.1559 -0.5584
  224ccc     C3 6922   4.296  10.082   5.955  0.5185  1.0290  0.1511
  224ccc     H5 6923   4.391  10.028   5.954  0.0076  0.0827  0.9257
  224ccc     H6 6924   4.299  10.149   6.042  0.2107  0.8957  0.2660
  224ccc     N1 6925   4.291  10.162   5.826  0.1473 -0.7047 -0.4557
  224ccc     C4 6926   4.347  10.299   5.850 -0.3938 -0.6036  0.3021
  224ccc     H7 6927   4.286  10.325   5.936 -0.0741  3.4106 -0.4902
  224ccc     H8 6928   4.333  10.363   5.763  0.6885 -0.8536 -0.0748
  224ccc     C5 6929   4.494  10.296   5.889  0.0301 -0.0013  0.0200
  224ccc     H9 6930   4.520  10.225   5.968  1.1437  0.6318  0.2399
  224ccc    H10 6931   4.558  10.273   5.803 -0.6885  0.2663 -0.6058
  224ccc     C6 6932   4.546  10.431   5.928  0.2362 -0.0878  0.2319
  224ccc     O1 6933   4.645  10.457   5.992  0.2640  0.1729 -0.7722
  224ccc     O2 6934   4.452  10.521   5.937 -0.0454  0.3662  0.0779
  224ccc    H11 6935   4.499  10.600   5.968  2.6364 -1.1422  0.1476
  224ccc     C7 6936   4.346  10.105   5.697  0.0523  0.4015  0.1866
  224ccc    H12 6937   4.318  10.172   5.616 -1.6859 -0.9467 -0.3779
  224ccc    H13 6938   4.454  10.103   5.708  0.0130 -2.0382  0.6801
  224ccc     C8 6939   4.297   9.970   5.647 -0.2404 -0.3659 -0.5274
  224ccc    H14 6940   4.330   9.899   5.724  2.6286 -1.4867 -2.6154
  224ccc    H15 6941   4.188   9.959   5.642 -0.0842 -1.9913 -0.9198
  224ccc     C9 6942   4.351   9.930   5.509  0.5314  0.1291  0.7497
  224ccc     O3 6943   4.393  10.017   5.434  0.3249  0.2937 -0.1664
  224ccc     O4 6944   4.342   9.803   5.469  0.0277 -0.6288 -0.6762
  224ccc    H16 6945   4.307   9.752   5.545  0.2394  0.3358  0.0873
  224ccc     O5 6946   4.140   9.991   6.205  0.2341 -0.4945  0.2894
  224ccc    H17 6947   4.195  10.187   5.801  0.8297  2.8151 -0.0352
  225ccc     C1 6948   4.305  10.721   6.280  0.0195 -0.4242  0.6122
  225ccc     H1 6949   4.300  10.752   6.175 -0.9850 -0.5563  0.6105
  225ccc     H2 6950   4.280  10.812   6.336 -1.1992 -0.0833 -0.4261
  225ccc     C2 6951   4.456  10.694   6.308 -0.2363 -0.5212  0.2425
  225ccc     H3 6952   4.498  10.791   6.278  0.9270 -1.0627  0.0609
  225ccc     H4 6953   4.492  10.612   6.245 -0.0317 -2.1890  2.4251
  225ccc     C3 6954   4.486  10.660   6.451  0.6408 -0.9597 -0.2756
  225ccc     H5 6955   4.440  10.563   6.473 -0.7973 -0.2176  0.0830
  225ccc     H6 6956   4.435  10.736   6.509  1.7704 -0.0532 -0.4285
  225ccc     N1 6957   4.633  10.650   6.493  0.2831  0.6895 -0.2452
  225ccc     C4 6958   4.715  10.774   6.480 -0.3715  0.8444  0.0004
  225ccc     H7 6959   4.697  10.827   6.573 -2.5683 -0.6017  0.4560
  225ccc     H8 6960   4.683  10.836   6.396 -1.1458  2.2685  1.3107
  225ccc     C5 6961   4.867  10.749   6.476 -0.1275  0.8213  0.2952
  225ccc     H9 6962   4.906  10.719   6.575 -0.4162 -0.0559  0.1550
  225ccc    H10 6963   4.895  10.680   6.395  0.8045  1.7570 -0.2010
  225ccc     C6 6964   4.938  10.877   6.438 -0.8310 -0.3361 -0.0459
  225ccc     O1 6965   4.890  10.968   6.371  0.2958  0.5428  0.0567
  225ccc     O2 6966   5.074  10.855   6.433 -0.4874 -0.3088  0.1447
  225ccc    H11 6967   5.114  10.926   6.379  2.7714 -1.2172  1.1117
  225ccc     C7 6968   4.627  10.608   6.644 -0.2697 -0.1201  0.1919
  225ccc    H12 6969   4.727  10.612   6.687 -0.6653  2.2131  1.0659
  225ccc    H13 6970   4.571  10.677   6.708  1.0607 -0.7103  2.0598
  225ccc     C8 6971   4.571  10.467   6.660  0.0192  0.5250 -0.1683
  225ccc    H14 6972   4.469  10.456   6.620 -0.2673  1.4181  0.2714
  225ccc    H15 6973   4.636  10.390   6.616  0.7803  0.7256  0.5911
  225ccc     C9 6974   4.566  10.437   6.811 -0.2185  0.6659  0.6278
  225ccc     O3 6975   4.594  10.520   6.890  0.1383  0.4605 -0.2348
  225ccc     O4 6976   4.583  10.311   6.848  0.7723  0.1735 -0.4097
  225ccc    H16 6977   4.565  10.260   6.766  0.2708 -1.9565  0.9492
  225ccc     O5 6978   4.223  10.606   6.308 -0.3852 -0.5506 -0.4220
  225ccc    H17 6979   4.676  10.568   6.447 -1.7242 -1.5932  1.6631
  226ccc     C1 6980   3.250  12.519   6.764 -0.3608  0.4057 -0.1602
  226ccc     H1 6981   3.242  12.627   6.782 -2.4403  0.2082  0.3754
  226ccc     H2 6982   3.350  12.487   6.797 -0.0228  1.4219 -0.1703
  226ccc     C2 6983   3.229  12.492   6.616  0.1660 -0.7944 -0.3426
  226ccc     H3 6984   3.329  12.497   6.569  0.6023  0.0407  0.6323
  226ccc     H4 6985   3.172  12.573   6.569  0.9545  0.0017  0.0374
  226ccc     C3 6986   3.171  12.358   6.576  0.7393  0.4063 -0.3258
  226ccc     H5 6987   3.223  12.279   6.630  1.6430  1.3238  0.1809
  226ccc     H6 6988   3.178  12.344   6.468  0.2446 -0.9250 -0.2088
  226ccc     N1 6989   3.015  12.349   6.603 -0.2149 -0.2528 -0.0015
  226ccc     C4 6990   2.933  12.354   6.473 -0.4763  0.1935  0.4315
  226ccc     H7 6991   2.828  12.362   6.502 -0.8860  0.8328 -1.1605
  226ccc     H8 6992   2.957  12.261   6.422 -0.5940 -0.9790  2.3991
  226ccc     C5 6993   2.951  12.474   6.380 -0.5034 -0.2371 -0.0815
  226ccc     H9 6994   2.936  12.575   6.422  0.7871 -0.2498  0.4600
  226ccc    H10 6995   3.059  12.478   6.362 -0.6089  0.3257 -0.6218
  226ccc     C6 6996   2.874  12.458   6.253  0.1004  0.5471  0.9424
  226ccc     O1 6997   2.824  12.354   6.214  0.2117  0.2911  0.1461
  226ccc     O2 6998   2.875  12.563   6.172  0.5073  0.2158  0.3295
  226ccc    H11 6999   2.928  12.636   6.209 -1.9690  1.7803  1.0246
  226ccc     C7 7000   2.995  12.213   6.680 -0.3711 -0.3129 -0.1930
  226ccc    H12 7001   3.013  12.135   6.606  1.7316 -1.7943  1.7182
  226ccc    H13 7002   3.078  12.203   6.751  1.5103 -1.5259 -2.4076
  226ccc     C8 7003   2.861  12.198   6.760  0.0664 -0.3933 -0.4016
  226ccc    H14 7004   2.824  12.284   6.817  0.4192 -1.3709  1.3841
  226ccc    H15 7005   2.775  12.180   6.695 -1.1482  0.4947  0.8902
  226ccc     C9 7006   2.868  12.084   6.860 -0.2813  0.2296 -0.1796
  226ccc     O3 7007   2.855  12.079   6.982 -0.1801 -0.0892  0.5561
  226ccc     O4 7008   2.889  11.968   6.796  0.4526 -0.4313 -0.3019
  226ccc    H16 7009   2.859  11.911   6.869 -0.7706  0.9141  0.3095
  226ccc     O5 7010   3.154  12.446   6.841  0.4858 -0.5421 -0.4085
  226ccc    H17 7011   2.986  12.428   6.662 -0.5904 -0.1316 -0.3370
  227ccc     C1 7012   3.898  12.262   7.030  0.1471  0.4772  0.3926
  227ccc     H1 7013   3.856  12.294   6.934 -0.5839  1.0783  0.9019
  227ccc     H2 7014   3.975  12.337   7.050  0.5562 -0.0196  0.7012
  227ccc     C2 7015   3.962  12.127   7.021 -0.2122  0.0222 -0.1421
  227ccc     H3 7016   3.885  12.048   7.020  0.0452 -0.2271 -0.4909
  227ccc     H4 7017   4.007  12.106   7.119  1.5660 -0.2874 -0.9883
  227ccc     C3 7018   4.059  12.100   6.903  0.2059  0.3745 -0.2153
  227ccc     H5 7019   4.159  12.141   6.921  1.1508 -1.9720  0.2640
  227ccc     H6 7020   4.018  12.140   6.810  0.7870 -1.0444 -1.1179
  227ccc     N1 7021   4.087  11.954   6.881 -0.2298  0.0453  0.2869
  227ccc     C4 7022   4.177  11.927   6.761 -0.5798  0.4701 -0.4673
  227ccc     H7 7023   4.188  11.820   6.741  0.7457  0.7753 -1.5120
  227ccc     H8 7024   4.275  11.970   6.782  0.1653 -0.9509 -0.8748
  227ccc     C5 7025   4.119  11.998   6.636  0.2301  0.0374  0.5826
  227ccc     H9 7026   4.011  11.985   6.623  0.3242  0.9491 -1.5840
  227ccc    H10 7027   4.144  12.104   6.640 -0.6954  0.2853  0.0562
  227ccc     C6 7028   4.187  11.946   6.504  0.0449  0.2129  0.4548
  227ccc     O1 7029   4.260  11.851   6.499 -1.0384 -0.3546 -0.0798
  227ccc     O2 7030   4.160  12.017   6.394 -0.0061  0.5611 -0.0062
  227ccc    H11 7031   4.094  12.083   6.420 -0.6544  1.0402 -2.5940
  227ccc     C7 7032   4.154  11.898   7.006 -0.4430  0.4231  0.7866
  227ccc    H12 7033   4.258  11.930   6.999 -0.0976 -1.0952 -3.0706
  227ccc    H13 7034   4.103  11.930   7.097  0.7269 -0.0701  1.6545
  227ccc     C8 7035   4.158  11.738   7.005 -0.7457  0.4485  0.4260
  227ccc    H14 7036   4.055  11.705   6.988 -0.1340 -0.8593 -0.9554
  227ccc    H15 7037   4.220  11.698   6.924 -0.4979  2.3350 -0.3804
  227ccc     C9 7038   4.200  11.674   7.135  0.3442 -0.2388 -0.3752
  227ccc     O3 7039   4.290  11.731   7.195 -0.3102 -0.1012  0.2764
  227ccc     O4 7040   4.130  11.566   7.175 -0.1493  0.3673 -0.2888
  227ccc    H16 7041   4.064  11.538   7.108  1.1364 -0.5379 -1.2421
  227ccc     O5 7042   3.795  12.258   7.141 -0.2510 -0.4551  0.7039
  227ccc    H17 7043   3.994  11.910   6.870 -1.0586  2.0536 -1.2532
  228ccc     C1 7044   2.371  12.371   7.627  0.0640 -0.2827 -0.0281
  228ccc     H1 7045   2.367  12.342   7.733 -0.6965 -0.4924 -0.1066
  228ccc     H2 7046   2.470  12.403   7.593 -0.0191 -1.4155 -1.4402
  228ccc     C2 7047   2.255  12.473   7.586 -0.3491  0.0943  0.2130
  228ccc     H3 7048   2.264  12.562   7.649  4.0103  0.5547 -0.7177
  228ccc     H4 7049   2.156  12.429   7.604  0.1127 -1.6032 -1.1086
  228ccc     C3 7050   2.267  12.505   7.435 -0.5637  0.0112 -0.4790
  228ccc     H5 7051   2.225  12.417   7.386 -0.7386 -0.8512  1.1660
  228ccc     H6 7052   2.372  12.512   7.407  0.0919 -3.3779  0.7755
  228ccc     N1 7053   2.191  12.634   7.392  0.3311  0.2833  0.3745
  228ccc     C4 7054   2.253  12.768   7.452 -0.0705 -0.0973 -0.6913
  228ccc     H7 7055   2.219  12.775   7.555  2.9698  2.1152  0.3106
  228ccc     H8 7056   2.209  12.861   7.416 -0.1925 -0.0384 -0.3948
  228ccc     C5 7057   2.403  12.773   7.442 -0.0850  0.0816 -0.5602
  228ccc     H9 7058   2.452  12.695   7.501 -1.1682  0.0346  0.2969
  228ccc    H10 7059   2.436  12.756   7.339  0.0040  1.7544 -0.8459
  228ccc     C6 7060   2.472  12.903   7.489  0.9557 -0.3844  0.2997
  228ccc     O1 7061   2.428  12.979   7.576 -0.6772  0.3992 -0.2112
  228ccc     O2 7062   2.576  12.938   7.421 -0.4176 -0.3348  0.1882
  228ccc    H11 7063   2.577  13.034   7.437 -0.8925 -0.2656 -0.1821
  228ccc     C7 7064   2.193  12.650   7.241 -0.2776  0.3836  0.4372
  228ccc    H12 7065   2.150  12.748   7.220 -1.4695  0.0033  1.0111
  228ccc    H13 7066   2.297  12.653   7.209 -0.2651  1.7342  0.5349
  228ccc     C8 7067   2.114  12.541   7.163 -1.0002 -0.5968  0.4631
  228ccc    H14 7068   2.171  12.449   7.181  1.1269  0.3803 -0.9607
  228ccc    H15 7069   2.010  12.517   7.190 -0.8600 -1.6725  0.0873
  228ccc     C9 7070   2.119  12.558   7.016 -0.2280  0.6063 -0.8554
  228ccc     O3 7071   2.192  12.639   6.958 -0.2127  0.4272 -0.1935
  228ccc     O4 7072   2.069  12.451   6.948 -0.2172 -0.2455  0.2563
  228ccc    H16 7073   2.083  12.476   6.855  0.5620  1.7686  0.8567
  228ccc     O5 7074   2.337  12.246   7.555  0.3109  0.3280  0.1280
  228ccc    H17 7075   2.095  12.620   7.428  0.1976 -1.6229 -0.5666
  229ccc     C1 7076   1.936  11.701   7.793  0.2932 -0.2671  0.1933
  229ccc     H1 7077   1.878  11.613   7.824 -0.2850  0.9241  2.7118
  229ccc     H2 7078   1.980  11.727   7.890 -0.5807 -2.6225  1.2948
  229ccc     C2 7079   1.851  11.812   7.732 -0.1492  0.0708 -1.1647
  229ccc     H3 7080   1.918  11.892   7.697  0.9469 -0.6165 -0.6792
  229ccc     H4 7081   1.781  11.857   7.804 -0.1057  0.7821 -1.5548
  229ccc     C3 7082   1.775  11.772   7.605 -0.6007 -0.2995  0.3521
  229ccc     H5 7083   1.677  11.728   7.624  0.4494 -2.4746  1.0330
  229ccc     H6 7084   1.817  11.686   7.553 -1.1099  0.7581 -1.9360
  229ccc     N1 7085   1.767  11.891   7.504  0.3538 -0.4804 -0.9794
  229ccc     C4 7086   1.716  12.020   7.572  0.3397 -0.4259  0.4398
  229ccc     H7 7087   1.791  12.070   7.633  0.6198 -2.0238  1.4658
  229ccc     H8 7088   1.634  11.991   7.638  0.1512  2.1282  1.4381
  229ccc     C5 7089   1.669  12.131   7.470  0.1110  0.2991  0.0571
  229ccc     H9 7090   1.754  12.160   7.407  2.2062 -2.4592  1.3931
  229ccc    H10 7091   1.584  12.093   7.413  0.6442 -0.9475  0.0595
  229ccc     C6 7092   1.613  12.257   7.538  0.1034  0.0161  0.7960
  229ccc     O1 7093   1.666  12.323   7.622  0.5597 -0.4677  0.0926
  229ccc     O2 7094   1.519  12.319   7.466  0.4847 -0.4315  0.0346
  229ccc    H11 7095   1.501  12.268   7.385  2.8320  0.7322 -1.3018
  229ccc     C7 7096   1.895  11.905   7.424 -1.3274  0.3432 -0.4449
  229ccc    H12 7097   1.878  11.993   7.362 -0.6828  1.3201  0.7245
  229ccc    H13 7098   1.982  11.930   7.484 -0.4514  0.4724 -1.7307
  229ccc     C8 7099   1.941  11.785   7.339 -0.7816  0.4974  0.6646
  229ccc    H14 7100   1.980  11.711   7.410  0.4531  0.8591  0.4020
  229ccc    H15 7101   1.850  11.750   7.289 -0.2124  0.2207 -0.2251
  229ccc     C9 7102   2.052  11.803   7.238 -0.3313 -0.0197  0.4415
  229ccc     O3 7103   2.047  11.758   7.126 -0.3963  0.5086 -0.0960
  229ccc     O4 7104   2.154  11.877   7.278  0.1826  0.1084  0.1988
  229ccc    H16 7105   2.200  11.887   7.193  1.1000 -0.5766  0.6063
  229ccc     O5 7106   2.040  11.666   7.694 -0.2514 -0.0265  0.2958
  229ccc    H17 7107   1.696  11.863   7.435  1.0691 -0.8930 -1.5669
  230ccc     C1 7108   2.105   9.725   6.712  0.2840  0.3466  1.0119
  230ccc     H1 7109   2.002   9.761   6.698  0.4474  0.4478 -0.0143
  230ccc     H2 7110   2.150   9.723   6.612  2.4061  0.3510  1.8995
  230ccc     C2 7111   2.105   9.584   6.780  0.7289 -0.9688 -0.0684
  230ccc     H3 7112   2.157   9.512   6.715  1.4074  0.0469 -0.6773
  230ccc     H4 7113   2.000   9.554   6.781  0.4708 -0.1612  1.6509
  230ccc     C3 7114   2.148   9.588   6.932  0.5944  0.9889  0.0053
  230ccc     H5 7115   2.110   9.684   6.967 -1.5207  0.7368 -1.3829
  230ccc     H6 7116   2.256   9.582   6.938  0.6901  0.1842 -1.9635
  230ccc     N1 7117   2.100   9.464   7.010  0.0117 -0.1519 -0.1451
  230ccc     C4 7118   2.135   9.335   6.941 -0.4009  0.2370  0.0343
  230ccc     H7 7119   2.240   9.320   6.966 -0.2664 -2.7867 -1.9373
  230ccc     H8 7120   2.130   9.345   6.833 -1.6996  0.5017  0.0983
  230ccc     C5 7121   2.053   9.208   6.989  0.1598  0.1334  0.6079
  230ccc     H9 7122   2.067   9.175   7.093  1.6307 -2.4997 -0.3156
  230ccc    H10 7123   1.944   9.212   6.979  0.1067 -2.3442 -0.6665
  230ccc     C6 7124   2.071   9.080   6.910  0.0574  0.0766 -0.2486
  230ccc     O1 7125   2.092   9.085   6.791 -0.0589 -0.3859 -0.4763
  230ccc     O2 7126   2.066   8.964   6.985 -0.1414  0.3092 -0.2283
  230ccc    H11 7127   2.085   8.908   6.907  0.0505  1.3319 -0.9453
  230ccc     C7 7128   2.172   9.471   7.145  0.2031 -0.4721 -0.5515
  230ccc    H12 7129   2.178   9.370   7.184 -0.5613  0.1533  1.2757
  230ccc    H13 7130   2.274   9.501   7.118 -0.7308  1.1815 -2.6029
  230ccc     C8 7131   2.106   9.577   7.243 -0.2456  0.7369  0.5174
  230ccc    H14 7132   2.109   9.678   7.202  0.9202  0.5327  0.0338
  230ccc    H15 7133   2.002   9.562   7.272 -0.3649 -1.0074 -0.6107
  230ccc     C9 7134   2.195   9.592   7.368 -0.3402 -0.3286  0.0362
  230ccc     O3 7135   2.285   9.515   7.407  0.6445 -0.5196  0.8786
  230ccc     O4 7136   2.136   9.667   7.461 -0.2996  0.2759  1.0145
  230ccc    H16 7137   2.201   9.647   7.531  0.4868 -1.4542 -0.1366
  230ccc     O5 7138   2.184   9.818   6.791 -0.1392 -0.5297  0.2573
  230ccc    H17 7139   1.998   9.474   7.015 -0.1745  0.6403 -3.3147
  231ccc     C1 7140   2.058  10.164   7.273  0.2499  0.2006  0.6698
  231ccc     H1 7141   2.041  10.146   7.166  2.1934  0.9240  0.2006
  231ccc     H2 7142   2.084  10.062   7.305  1.8924  0.4453  0.2022
  231ccc     C2 7143   1.924  10.211   7.336  0.0765  0.1650 -0.4171
  231ccc     H3 7144   1.860  10.123   7.325 -0.5230  0.7495 -1.9390
  231ccc     H4 7145   1.888  10.294   7.274  1.4418  0.9641 -0.1777
  231ccc     C3 7146   1.923  10.260   7.480 -0.5487 -0.1526 -0.0548
  231ccc     H5 7147   1.976  10.355   7.481 -0.9911  0.1045 -0.9109
  231ccc     H6 7148   1.974  10.187   7.545 -2.8048 -1.1567  0.6952
  231ccc     N1 7149   1.780  10.285   7.541 -0.2023 -0.1331 -0.1395
  231ccc     C4 7150   1.680  10.348   7.451  0.0746 -0.3720 -0.1375
  231ccc     H7 7151   1.588  10.352   7.510 -0.6179 -1.0162 -1.1224
  231ccc     H8 7152   1.663  10.298   7.356  0.0974  0.0747 -0.3784
  231ccc     C5 7153   1.723  10.490   7.411 -0.1949  0.1179 -0.2294
  231ccc     H9 7154   1.747  10.549   7.501  0.4401 -0.9126  0.3041
  231ccc    H10 7155   1.823  10.484   7.366 -0.0788  0.6444 -0.0497
  231ccc     C6 7156   1.620  10.555   7.316 -0.0018  0.7022 -0.8372
  231ccc     O1 7157   1.512  10.501   7.296 -0.2009 -0.7238  0.4982
  231ccc     O2 7158   1.673  10.635   7.228 -0.5927  0.1827 -0.1891
  231ccc    H11 7159   1.767  10.658   7.239 -0.7931  1.4705 -0.9086
  231ccc     C7 7160   1.728  10.153   7.599 -0.0841 -0.0609 -0.3869
  231ccc    H12 7161   1.679  10.093   7.522 -0.3227 -0.4572  0.0696
  231ccc    H13 7162   1.820  10.110   7.636 -1.5889 -1.4119  2.0015
  231ccc     C8 7163   1.627  10.165   7.717  0.0852  0.4515 -0.5540
  231ccc    H14 7164   1.619  10.269   7.752 -1.0980 -0.2988  1.5563
  231ccc    H15 7165   1.523  10.145   7.690 -0.2304  0.6016  0.5372
  231ccc     C9 7166   1.661  10.066   7.837 -0.4688 -0.1896  0.0210
  231ccc     O3 7167   1.759   9.988   7.836  0.4920  0.1158  0.4371
  231ccc     O4 7168   1.580  10.078   7.943  0.0185 -0.0789 -0.0348
  231ccc    H16 7169   1.519  10.152   7.933  1.0084  0.7990  0.2642
  231ccc     O5 7170   2.166  10.264   7.289  0.6450 -0.3471 -0.5276
  231ccc    H17 7171   1.799  10.344   7.623 -1.9785  0.8219 -0.3477
  232ccc     C1 7172   1.642  11.328   6.456  0.1506 -0.6772  0.1856
  232ccc     H1 7173   1.606  11.355   6.356 -0.9912  1.2067  1.0479
  232ccc     H2 7174   1.597  11.241   6.504  0.0713 -0.6613  0.1406
  232ccc     C2 7175   1.614  11.452   6.543  1.0413  0.5078  0.5148
  232ccc     H3 7176   1.590  11.530   6.469 -1.0365 -0.2056  0.3785
  232ccc     H4 7177   1.698  11.490   6.603 -0.1478  0.9366  1.9835
  232ccc     C3 7178   1.490  11.421   6.625  0.0259 -0.8743  0.1116
  232ccc     H5 7179   1.509  11.350   6.706 -1.3403 -1.3879  0.0112
  232ccc     H6 7180   1.405  11.394   6.561 -2.1342  2.5584  1.2791
  232ccc     N1 7181   1.424  11.530   6.715  0.3540  0.1742 -0.4006
  232ccc     C4 7182   1.523  11.596   6.808 -0.7603 -0.5897 -0.2830
  232ccc     H7 7183   1.466  11.677   6.854 -0.1701  0.5241 -1.4435
  232ccc     H8 7184   1.608  11.641   6.756 -1.6714 -0.8719 -2.1062
  232ccc     C5 7185   1.593  11.509   6.919  0.1577  0.6086 -0.6740
  232ccc     H9 7186   1.516  11.459   6.980 -0.2106  0.1034 -1.5254
  232ccc    H10 7187   1.661  11.435   6.874  0.3167  0.4923 -0.2437
  232ccc     C6 7188   1.678  11.591   7.012 -0.3069  0.2812 -0.4481
  232ccc     O1 7189   1.697  11.707   6.991  0.1145  0.1103 -0.0335
  232ccc     O2 7190   1.726  11.525   7.120  0.5483 -0.2085  0.0414
  232ccc    H11 7191   1.700  11.434   7.099  1.4327 -0.0632 -1.9488
  232ccc     C7 7192   1.385  11.632   6.612  0.2162  0.4635  0.4160
  232ccc    H12 7193   1.475  11.681   6.576 -0.2884 -0.8035 -2.8631
  232ccc    H13 7194   1.328  11.584   6.533  0.0164  0.7971  0.3573
  232ccc     C8 7195   1.298  11.746   6.663  0.3053  0.7872  0.1138
  232ccc    H14 7196   1.205  11.714   6.712 -0.1447  2.7809  0.6277
  232ccc    H15 7197   1.354  11.807   6.734  1.5620  1.0797 -1.0892
  232ccc     C9 7198   1.252  11.831   6.555  0.7592 -1.2229 -0.8739
  232ccc     O3 7199   1.289  11.838   6.443  0.2807  0.0479  0.8722
  232ccc     O4 7200   1.145  11.907   6.590 -0.2280  0.1451 -0.4392
  232ccc    H16 7201   1.119  11.954   6.508 -2.5350 -1.2899 -0.6086
  232ccc     O5 7202   1.785  11.305   6.447  0.1133 -0.4271  0.1288
  232ccc    H17 7203   1.348  11.484   6.767 -0.4070  0.2974 -1.3615
  233ccc     C1 7204   2.235  11.781   6.242 -0.6241 -0.2891 -0.4985
  233ccc     H1 7205   2.167  11.771   6.156  2.0688  1.0615 -2.9684
  233ccc     H2 7206   2.221  11.877   6.294 -0.9803 -1.5492  1.8795
  233ccc     C2 7207   2.381  11.792   6.201  1.0064 -0.6521 -0.0308
  233ccc     H3 7208   2.447  11.799   6.288  1.3437 -1.7793 -0.1835
  233ccc     H4 7209   2.378  11.889   6.149 -0.2802  0.4136  1.9051
  233ccc     C3 7210   2.423  11.672   6.107  0.5031  0.6102 -0.1055
  233ccc     H5 7211   2.335  11.643   6.050 -0.7118  1.2142  1.3802
  233ccc     H6 7212   2.445  11.592   6.178  0.0595  0.1743 -0.4569
  233ccc     N1 7213   2.547  11.696   6.025  0.5251 -0.1199  0.1497
  233ccc     C4 7214   2.607  11.558   5.976  0.4563  0.0300  0.1047
  233ccc     H7 7215   2.635  11.510   6.070 -2.5089  0.0420  1.1011
  233ccc     H8 7216   2.697  11.583   5.920 -0.0449  0.0658 -0.6930
  233ccc     C5 7217   2.507  11.462   5.903  0.0126  0.0827 -0.2217
  233ccc     H9 7218   2.414  11.441   5.956 -2.8802  0.3204 -4.6517
  233ccc    H10 7219   2.478  11.509   5.808  2.6604  1.8509 -0.2639
  233ccc     C6 7220   2.567  11.329   5.865  0.3670  0.1325  0.5768
  233ccc     O1 7221   2.673  11.324   5.804  0.5952 -0.9233  0.0615
  233ccc     O2 7222   2.486  11.223   5.870  0.1989 -0.7236  0.1539
  233ccc    H11 7223   2.538  11.161   5.816 -1.3740 -1.7680 -0.2286
  233ccc     C7 7224   2.513  11.800   5.913 -0.6292  0.0900 -0.5387
  233ccc    H12 7225   2.531  11.763   5.812 -0.2477  1.4686 -0.9948
  233ccc    H13 7226   2.405  11.816   5.913 -1.3397 -3.6734  0.4388
  233ccc     C8 7227   2.579  11.934   5.930  0.1033 -0.3508 -0.5501
  233ccc    H14 7228   2.553  11.987   6.022  1.0501 -3.5857  1.7536
  233ccc    H15 7229   2.689  11.931   5.925  0.0953  0.3873 -1.5782
  233ccc     C9 7230   2.540  12.018   5.803  0.0474  0.1934 -0.2203
  233ccc     O3 7231   2.473  11.972   5.710 -0.0878 -0.0353  0.0206
  233ccc     O4 7232   2.554  12.149   5.804 -0.8225  0.1412  0.0511
  233ccc    H16 7233   2.598  12.165   5.889  0.1087  0.4639 -0.4807
  233ccc     O5 7234   2.212  11.679   6.338  0.1556  0.2000  0.3683
  233ccc    H17 7235   2.625  11.740   6.076 -0.6442  2.4231 -0.1161
  234ccc     C1 7236   1.842   9.895   8.267  0.1294 -0.3498  0.0059
  234ccc     H1 7237   1.869   9.852   8.364 -0.4075  0.8338  0.7073
  234ccc     H2 7238   1.784   9.826   8.205 -0.7819  0.3381  0.0594
  234ccc     C2 7239   1.976   9.925   8.197  0.1171  0.2551 -0.6408
  234ccc     H3 7240   2.037   9.835   8.193  1.2116  0.9777 -0.7118
  234ccc     H4 7241   2.039   9.996   8.252  0.5114  0.4740 -1.3726
  234ccc     C3 7242   1.953   9.972   8.053  0.4264 -0.4277  0.2021
  234ccc     H5 7243   1.915  10.074   8.052  1.9351  0.1733  0.6958
  234ccc     H6 7244   1.874   9.909   8.012 -1.5139  1.3951  0.9815
  234ccc     N1 7245   2.083   9.954   7.970 -0.0109 -0.2326 -0.6113
  234ccc     C4 7246   2.208  10.020   8.043 -0.3117 -0.1298  0.3111
  234ccc     H7 7247   2.287  10.026   7.968 -0.8570  1.1544 -0.1816
  234ccc     H8 7248   2.247   9.960   8.126  0.7945  0.9043  0.5647
  234ccc     C5 7249   2.193  10.172   8.085 -0.8034 -0.5053  0.0181
  234ccc     H9 7250   2.107  10.194   8.148 -1.8511 -2.0961 -0.7812
  234ccc    H10 7251   2.282  10.218   8.131 -0.4507 -1.6332  0.5014
  234ccc     C6 7252   2.170  10.267   7.966  0.1435  0.1691 -1.2351
  234ccc     O1 7253   2.062  10.317   7.947  0.0164 -0.0702 -0.0216
  234ccc     O2 7254   2.281  10.314   7.907  0.2756 -0.2040 -0.6535
  234ccc    H11 7255   2.243  10.390   7.860 -0.6435 -0.6297 -0.6061
  234ccc     C7 7256   2.119   9.810   7.944  0.4189  0.2159 -0.6529
  234ccc    H12 7257   2.223   9.804   7.915  0.7150 -1.1394  0.5713
  234ccc    H13 7258   2.116   9.748   8.034  1.7295  0.9628 -0.0793
  234ccc     C8 7259   2.026   9.740   7.845  0.2575 -0.2337  0.4938
  234ccc    H14 7260   1.917   9.754   7.853  0.1944 -0.4744  0.0990
  234ccc    H15 7261   2.051   9.762   7.740 -0.6901 -1.1717  0.0468
  234ccc     C9 7262   2.035   9.585   7.848 -0.6700  0.4714 -0.1913
  234ccc     O3 7263   2.077   9.520   7.943  0.2589  0.1769 -0.3091
  234ccc     O4 7264   2.005   9.524   7.733  0.1178  0.7380 -0.1046
  234ccc    H16 7265   2.037   9.434   7.753 -1.3514  0.1190 -0.3753
  234ccc     O5 7266   1.746  10.004   8.267 -0.4429  0.1427 -0.4509
  234ccc    H17 7267   2.070   9.995   7.877 -0.0889  0.2849 -0.3741
  235ccc     C1 7268   1.124  10.546   8.542 -0.7669 -0.2497  1.0098
  235ccc     H1 7269   1.157  10.583   8.640  0.2202  0.4891  0.4124
  235ccc     H2 7270   1.095  10.637   8.489  0.4995  0.4761  1.5236
  235ccc     C2 7271   1.019  10.435   8.563 -0.2843 -0.2670 -0.4188
  235ccc     H3 7272   1.007  10.379   8.470 -1.7301 -0.3897 -0.1704
  235ccc     H4 7273   0.923  10.486   8.579 -0.0493  0.7085 -1.9047
  235ccc     C3 7274   1.046  10.345   8.682  0.2965  0.0349  0.5060
  235ccc     H5 7275   1.063  10.411   8.768  3.1189 -0.3867  0.3776
  235ccc     H6 7276   1.132  10.280   8.663  1.2709  1.5796 -0.7349
  235ccc     N1 7277   0.921  10.256   8.707 -0.6674  0.4864  0.0664
  235ccc     C4 7278   0.938  10.126   8.627 -0.1959  0.6474  0.4141
  235ccc     H7 7279   0.967  10.039   8.686 -1.8184 -0.6701 -0.6207
  235ccc     H8 7280   1.024  10.137   8.561  0.1308 -3.3950 -0.0786
  235ccc     C5 7281   0.815  10.092   8.546  0.2366 -0.4605  0.7041
  235ccc     H9 7282   0.722  10.097   8.604  0.3553 -1.0856  0.9602
  235ccc    H10 7283   0.811  10.159   8.459 -1.4455 -1.4584 -0.0363
  235ccc     C6 7284   0.814   9.961   8.482 -0.2450  0.0755 -0.5182
  235ccc     O1 7285   0.913   9.900   8.452  0.2302 -0.7066  0.4832
  235ccc     O2 7286   0.694   9.946   8.431  0.2975 -0.0127  0.0248
  235ccc    H11 7287   0.678   9.851   8.418 -1.4533  0.4282 -1.4589
  235ccc     C7 7288   0.896  10.222   8.860  0.1726  0.0139 -0.1764
  235ccc    H12 7289   0.860  10.310   8.913 -1.5502  0.6141 -2.1876
  235ccc    H13 7290   0.802  10.166   8.857 -0.4411  1.0227 -0.2469
  235ccc     C8 7291   1.001  10.154   8.942 -0.7272 -0.3803 -0.4863
  235ccc    H14 7292   1.027  10.057   8.899 -1.4567 -1.1100  0.6719
  235ccc    H15 7293   1.087  10.221   8.932 -0.3622 -0.8989 -0.8722
  235ccc     C9 7294   0.965  10.138   9.091  0.7249 -0.5390 -0.2574
  235ccc     O3 7295   0.850  10.163   9.134  0.1740 -0.0046 -0.6821
  235ccc     O4 7296   1.055  10.072   9.167 -0.1916  0.0723  0.2202
  235ccc    H16 7297   1.139  10.073   9.120  0.6362 -0.8530  1.5910
  235ccc     O5 7298   1.234  10.486   8.469  0.5309  0.0172  0.4988
  235ccc    H17 7299   0.836  10.301   8.669 -1.3479  0.1599  1.1433
  236ccc     C1 7300   1.691  10.848   9.103 -0.4206  0.4336  0.6589
  236ccc     H1 7301   1.677  10.817   9.208  0.1320 -0.4023  0.5015
  236ccc     H2 7302   1.722  10.951   9.084 -0.9257 -0.1014 -4.1372
  236ccc     C2 7303   1.552  10.845   9.044 -0.5559  0.4270 -0.0556
  236ccc     H3 7304   1.521  10.743   9.068 -0.0652  0.1817 -0.4304
  236ccc     H4 7305   1.552  10.854   8.935 -0.7277 -1.1939 -0.2125
  236ccc     C3 7306   1.453  10.942   9.108 -0.6869 -0.5199 -0.2546
  236ccc     H5 7307   1.483  11.037   9.064 -0.5830  0.0857  1.0967
  236ccc     H6 7308   1.456  10.957   9.216  0.8442  1.0060 -0.4671
  236ccc     N1 7309   1.309  10.921   9.082 -0.2707 -0.0836  0.6110
  236ccc     C4 7310   1.221  11.008   9.167 -0.1930 -0.2416 -0.8155
  236ccc     H7 7311   1.252  10.985   9.269  0.1635 -2.7526 -1.4345
  236ccc     H8 7312   1.117  10.975   9.157  0.7445 -3.5342 -0.7520
  236ccc     C5 7313   1.228  11.157   9.154  0.3810  0.3255 -0.0196
  236ccc     H9 7314   1.332  11.189   9.168  0.0888  0.6921  1.3838
  236ccc    H10 7315   1.192  11.186   9.054  0.0818  1.4673  0.4060
  236ccc     C6 7316   1.149  11.232   9.261  0.1116  0.0163  0.5938
  236ccc     O1 7317   1.093  11.175   9.348  0.5727 -0.1178  0.1133
  236ccc     O2 7318   1.176  11.364   9.266 -0.2180  0.9298  0.7305
  236ccc    H11 7319   1.124  11.392   9.343 -3.3371  0.7590 -1.1432
  236ccc     C7 7320   1.293  10.941   8.929  0.0046  0.5150 -0.2687
  236ccc    H12 7321   1.338  11.037   8.904  2.0452  0.2040  1.8678
  236ccc    H13 7322   1.339  10.859   8.873 -1.3910  0.2931 -1.1523
  236ccc     C8 7323   1.144  10.928   8.886  0.4091 -0.0587  0.0518
  236ccc    H14 7324   1.087  10.843   8.926 -0.3322  0.3955 -0.0089
  236ccc    H15 7325   1.092  11.019   8.917  1.6458  0.4040  0.7943
  236ccc     C9 7326   1.116  10.928   8.740 -0.5330  0.3228  0.8874
  236ccc     O3 7327   1.183  10.858   8.657  0.0056  0.4677 -0.4530
  236ccc     O4 7328   0.989  10.961   8.723 -0.0844 -0.1749 -0.3516
  236ccc    H16 7329   0.959  10.939   8.633 -1.1295  0.2879 -0.1275
  236ccc     O5 7330   1.776  10.749   9.040  0.1156 -0.4297 -0.5107
  236ccc    H17 7331   1.288  10.824   9.109  0.0880 -0.0864  0.8917
  237ccc     C1 7332   2.142  10.535   9.158 -0.9024  0.2379  0.6115
  237ccc     H1 7333   2.230  10.498   9.104 -0.6208 -1.6760  2.2438
  237ccc     H2 7334   2.149  10.512   9.265  1.6764  0.7204  0.5982
  237ccc     C2 7335   2.014  10.463   9.111  0.2185  0.5916  0.8431
  237ccc     H3 7336   2.024  10.356   9.133  0.4279  0.5535  0.5673
  237ccc     H4 7337   1.979  10.471   9.007 -5.2276  0.6832  2.3811
  237ccc     C3 7338   1.888  10.508   9.178  0.1134  0.0520  0.1456
  237ccc     H5 7339   1.799  10.473   9.126 -0.5637 -0.5174  1.6173
  237ccc     H6 7340   1.898  10.615   9.158 -0.9335  0.0107 -0.6759
  237ccc     N1 7341   1.866  10.478   9.324  0.3016  0.0157  0.0222
  237ccc     C4 7342   1.744  10.552   9.380  0.4735  0.3197 -0.0592
  237ccc     H7 7343   1.770  10.658   9.387 -1.0270  0.7557 -0.6173
  237ccc     H8 7344   1.733  10.524   9.484 -1.2103 -0.6477 -0.4679
  237ccc     C5 7345   1.600  10.524   9.319 -0.2825 -1.0411  0.7112
  237ccc     H9 7346   1.587  10.532   9.210 -0.3923 -0.3228  0.7761
  237ccc    H10 7347   1.585  10.420   9.350  0.7789 -1.6717 -0.7826
  237ccc     C6 7348   1.501  10.611   9.381  0.0277  0.1302  0.1256
  237ccc     O1 7349   1.529  10.728   9.401  0.6419 -0.4788  0.0094
  237ccc     O2 7350   1.408  10.549   9.454 -0.2940 -0.1055  0.2204
  237ccc    H11 7351   1.360  10.625   9.492 -0.6984 -0.6147  0.7471
  237ccc     C7 7352   1.850  10.325   9.346 -0.3013  0.0615  0.4181
  237ccc    H12 7353   1.781  10.274   9.279 -0.0286  0.1078  0.0967
  237ccc    H13 7354   1.944  10.284   9.308 -1.1993 -1.2899 -0.4108
  237ccc     C8 7355   1.821  10.289   9.491 -0.2351  0.2169  0.2831
  237ccc    H14 7356   1.880  10.352   9.558  0.6641 -1.4460  1.1117
  237ccc    H15 7357   1.714  10.296   9.513 -0.3902 -2.4200  0.6535
  237ccc     C9 7358   1.856  10.143   9.514 -0.2376  0.4699 -0.5915
  237ccc     O3 7359   1.881  10.065   9.426 -0.8543 -0.0215 -0.9058
  237ccc     O4 7360   1.849  10.096   9.640 -0.0995  0.4022  0.5063
  237ccc    H16 7361   1.823  10.168   9.699  2.9952  2.6335 -0.5945
  237ccc     O5 7362   2.119  10.678   9.141  0.0836 -0.0881  0.2764
  237ccc    H17 7363   1.941  10.510   9.387 -1.7397  0.5920  2.3701
  238ccc     C1 7364   4.217  12.502   8.481 -0.2476  0.4572 -0.1846
  238ccc     H1 7365   4.200  12.599   8.433 -0.6226  0.4639 -0.0462
  238ccc     H2 7366   4.119  12.452   8.488 -0.0478  0.0006 -0.6162
  238ccc     C2 7367   4.275  12.521   8.618 -0.1252 -0.1813 -0.1675
  238ccc     H3 7368   4.315  12.428   8.660 -1.0760 -0.3547  0.3799
  238ccc     H4 7369   4.195  12.542   8.690  0.8346 -1.3412  1.2925
  238ccc     C3 7370   4.373  12.637   8.630  0.0898 -0.2192  0.1329
  238ccc     H5 7371   4.348  12.695   8.720 -2.4239 -0.5797 -0.2743
  238ccc     H6 7372   4.368  12.706   8.545 -0.4812 -1.5820 -0.9634
  238ccc     N1 7373   4.520  12.594   8.646  0.7359  0.1025 -0.1074
  238ccc     C4 7374   4.569  12.517   8.516 -0.6222 -0.8254 -0.0691
  238ccc     H7 7375   4.600  12.591   8.442 -0.7434  0.2612  0.9279
  238ccc     H8 7376   4.480  12.477   8.469 -0.7827  1.9824 -2.4058
  238ccc     C5 7377   4.679  12.413   8.544  0.0615 -0.5886  0.4635
  238ccc     H9 7378   4.775  12.454   8.578  0.6538 -1.3961 -0.2140
  238ccc    H10 7379   4.653  12.342   8.624  1.7437 -0.2801  1.3343
  238ccc     C6 7380   4.705  12.326   8.425 -0.4262  0.3573  0.5820
  238ccc     O1 7381   4.615  12.252   8.376 -0.5799 -0.2686  0.0234
  238ccc     O2 7382   4.833  12.282   8.432  0.0727 -0.3430 -0.2792
  238ccc    H11 7383   4.825  12.203   8.376  0.6858 -0.3130 -0.4207
  238ccc     C7 7384   4.615  12.714   8.670  0.3859  0.1791  0.2541
  238ccc    H12 7385   4.718  12.679   8.679  0.0258 -0.6504  1.2299
  238ccc    H13 7386   4.617  12.776   8.580  1.5042  1.9381  1.4345
  238ccc     C8 7387   4.582  12.796   8.792 -0.5795  0.1271 -0.9981
  238ccc    H14 7388   4.480  12.839   8.788 -1.1987 -0.9515  1.5597
  238ccc    H15 7389   4.587  12.740   8.886 -0.7555 -0.4349 -1.3180
  238ccc     C9 7390   4.683  12.910   8.799 -0.2193 -0.8116  0.1028
  238ccc     O3 7391   4.800  12.889   8.838  0.0028  0.2980  0.2315
  238ccc     O4 7392   4.649  13.029   8.750 -0.1143 -0.0805 -0.0534
  238ccc    H16 7393   4.552  13.032   8.754 -0.0522  1.0625  1.0845
  238ccc     O5 7394   4.296  12.415   8.402  0.2009  0.4676  0.6650
  238ccc    H17 7395   4.524  12.534   8.729 -1.3445  1.3664  0.9980
  239ccc     C1 7396   4.434  11.905   7.656  0.7987  0.5369  0.1717
  239ccc     H1 7397   4.336  11.946   7.628  0.4830  0.7666  1.5477
  239ccc     H2 7398   4.512  11.971   7.617  1.9332 -0.4310  0.7473
  239ccc     C2 7399   4.460  11.761   7.598  0.0417  0.2519  0.5566
  239ccc     H3 7400   4.568  11.739   7.596 -0.4721 -2.9702 -2.6467
  239ccc     H4 7401   4.420  11.759   7.496 -0.6219  0.6527  0.8033
  239ccc     C3 7402   4.397  11.648   7.681  0.4531 -0.1572  0.1450
  239ccc     H5 7403   4.288  11.657   7.680  0.4918  0.9941  1.9709
  239ccc     H6 7404   4.427  11.658   7.785  1.9381 -1.1087 -0.1600
  239ccc     N1 7405   4.421  11.501   7.628  0.1209  0.0948 -0.2994
  239ccc     C4 7406   4.563  11.449   7.646  0.1529  0.1086 -0.0129
  239ccc     H7 7407   4.629  11.530   7.614  1.5479 -0.3010  1.6582
  239ccc     H8 7408   4.571  11.370   7.571 -0.7360  0.5699 -0.6113
  239ccc     C5 7409   4.592  11.396   7.784 -0.3095 -0.4577  0.2027
  239ccc     H9 7410   4.525  11.318   7.821 -2.9686  1.6293  0.0593
  239ccc    H10 7411   4.681  11.332   7.770  0.1126  0.5048 -2.0618
  239ccc     C6 7412   4.590  11.497   7.892 -0.2925  0.3891  0.2813
  239ccc     O1 7413   4.500  11.507   7.975  0.7964  0.4565 -0.2739
  239ccc     O2 7414   4.688  11.593   7.883 -0.4548 -0.4541  0.4587
  239ccc    H11 7415   4.752  11.567   7.815  0.0861  0.6435  0.5380
  239ccc     C7 7416   4.312  11.423   7.698  0.4502  0.1353 -0.3089
  239ccc    H12 7417   4.330  11.433   7.805 -1.6652 -2.1300  0.3567
  239ccc    H13 7418   4.220  11.479   7.678 -0.0363 -0.9536 -1.2211
  239ccc     C8 7419   4.304  11.273   7.659  0.9081  0.1562  0.2667
  239ccc    H14 7420   4.372  11.240   7.580 -0.2299  0.7731 -1.0279
  239ccc    H15 7421   4.326  11.211   7.747 -0.5767  0.9716  1.2551
  239ccc     C9 7422   4.159  11.239   7.619 -0.1878  0.2629 -0.3117
  239ccc     O3 7423   4.069  11.317   7.624  0.2340 -0.9158  0.0928
  239ccc     O4 7424   4.132  11.107   7.604  0.3170 -0.5838 -0.0214
  239ccc    H16 7425   4.223  11.074   7.610  1.3152  1.9236 -0.4966
  239ccc     O5 7426   4.432  11.887   7.798 -0.0319  0.2703  0.0763
  239ccc    H17 7427   4.388  11.501   7.530 -2.7146 -2.6475  0.4632
  240ccc     C1 7428   3.193  11.871   9.473  0.3734  0.0590  0.0935
  240ccc     H1 7429   3.101  11.820   9.441  1.3195 -1.1856 -0.7112
  240ccc     H2 7430   3.269  11.800   9.505 -1.5270 -2.2186 -0.2170
  240ccc     C2 7431   3.160  11.963   9.595 -0.2985 -0.8221  0.0565
  240ccc     H3 7432   3.252  11.997   9.643 -0.4300  1.5026 -1.2358
  240ccc     H4 7433   3.112  11.906   9.676  1.8215 -0.5707  1.5525
  240ccc     C3 7434   3.066  12.073   9.547 -0.5668  0.2635 -0.2572
  240ccc     H5 7435   2.968  12.029   9.527 -1.9357  2.5852  0.9221
  240ccc     H6 7436   3.113  12.098   9.452 -0.9833  1.6596 -0.1095
  240ccc     N1 7437   3.055  12.179   9.649 -0.2022  0.3416  0.1869
  240ccc     C4 7438   3.189  12.252   9.664  0.3545  0.3219 -0.1394
  240ccc     H7 7439   3.209  12.303   9.571 -0.4754  0.0775 -0.4639
  240ccc     H8 7440   3.265  12.176   9.684  0.7287  0.7102 -0.0946
  240ccc     C5 7441   3.190  12.353   9.780  0.6179 -0.2147  0.1799
  240ccc     H9 7442   3.133  12.444   9.756 -0.4215 -0.5677  1.2322
  240ccc    H10 7443   3.131  12.318   9.865 -1.5719 -0.6913 -1.4665
  240ccc     C6 7444   3.334  12.397   9.816 -0.3272  0.1209  0.5247
  240ccc     O1 7445   3.435  12.364   9.756  0.0502 -0.7761  0.0359
  240ccc     O2 7446   3.343  12.421   9.947  0.5068  0.1076  0.0591
  240ccc    H11 7447   3.250  12.412   9.973 -0.0788  0.2907 -1.7665
  240ccc     C7 7448   2.954  12.285   9.597  0.1079  0.0803  0.1478
  240ccc    H12 7449   2.959  12.370   9.665 -0.3270  0.4385 -0.2598
  240ccc    H13 7450   2.992  12.319   9.500 -2.8652  1.1303 -0.7512
  240ccc     C8 7451   2.804  12.233   9.591  0.3631 -1.3614 -0.5626
  240ccc    H14 7452   2.805  12.126   9.567  1.2037 -1.8967  1.6527
  240ccc    H15 7453   2.746  12.241   9.684 -0.7626  0.2806 -1.3512
  240ccc     C9 7454   2.717  12.296   9.480  0.0329  0.1301 -0.0547
  240ccc     O3 7455   2.758  12.390   9.414  0.0606  0.3368  0.0639
  240ccc     O4 7456   2.583  12.284   9.488 -0.5096  0.0126 -0.1626
  240ccc    H16 7457   2.572  12.221   9.561  1.2726  0.9574  0.9873
  240ccc     O5 7458   3.237  11.957   9.369  0.0958  0.0601 -0.0692
  240ccc    H17 7459   3.025  12.139   9.739 -1.3378  0.3882 -0.1445
  241ccc     C1 7460   3.360  12.624   8.941  0.4515 -0.9970  0.0066
  241ccc     H1 7461   3.449  12.687   8.930  0.4245 -1.3885 -3.8568
  241ccc     H2 7462   3.338  12.572   8.847 -0.1738  2.4085 -1.9285
  241ccc     C2 7463   3.242  12.716   8.993 -0.5440  0.4892  0.1538
  241ccc     H3 7464   3.162  12.652   9.032  0.7737 -2.2205 -1.3429
  241ccc     H4 7465   3.204  12.768   8.904 -0.1604 -0.3956 -0.5362
  241ccc     C3 7466   3.273  12.822   9.103 -0.1724  0.0150  0.0323
  241ccc     H5 7467   3.361  12.884   9.085 -1.0670  1.2244 -0.3399
  241ccc     H6 7468   3.294  12.754   9.185  1.6801  1.7718  1.1155
  241ccc     N1 7469   3.160  12.922   9.139  0.3221  0.0094  0.1966
  241ccc     C4 7470   3.112  12.897   9.280 -0.5075  0.1187  0.3922
  241ccc     H7 7471   3.192  12.943   9.340  1.0715 -0.2162 -1.3579
  241ccc     H8 7472   3.103  12.790   9.301 -0.6474 -0.3060 -1.6376
  241ccc     C5 7473   2.977  12.967   9.312  0.3971 -0.3406 -0.5439
  241ccc     H9 7474   2.993  13.075   9.303 -1.1467  0.2730  2.6808
  241ccc    H10 7475   2.898  12.929   9.246  1.5909  0.0656 -2.2740
  241ccc     C6 7476   2.931  12.960   9.459 -0.2495 -0.4917  0.2085
  241ccc     O1 7477   2.987  12.887   9.540 -0.1447 -0.2597  0.0279
  241ccc     O2 7478   2.833  13.046   9.499  0.6479 -0.2528 -0.2154
  241ccc    H11 7479   2.776  13.064   9.422 -0.0927  0.7168  0.5326
  241ccc     C7 7480   3.208  13.065   9.126 -0.0865  0.2905 -0.7343
  241ccc    H12 7481   3.194  13.108   9.226 -2.0426 -1.4265 -0.2039
  241ccc    H13 7482   3.312  13.065   9.094  0.0663 -1.1231 -0.3172
  241ccc     C8 7483   3.120  13.143   9.030 -0.0458 -0.6123  0.5710
  241ccc    H14 7484   3.144  13.111   8.928  1.1413  0.4080  0.5007
  241ccc    H15 7485   3.014  13.121   9.048  0.1244 -3.7149 -1.4958
  241ccc     C9 7486   3.140  13.293   9.044 -0.0311 -0.4970  0.4889
  241ccc     O3 7487   3.252  13.332   9.041  0.0341 -0.7874 -0.0622
  241ccc     O4 7488   3.037  13.368   8.999  0.0618 -0.1363 -0.1043
  241ccc    H16 7489   2.967  13.307   8.970 -0.7068  0.1961  0.9998
  241ccc     O5 7490   3.384  12.518   9.033  0.3508 -0.0277 -0.3349
  241ccc    H17 7491   3.083  12.909   9.071  1.2604 -2.1383 -0.5404
  242ccc     C1 7492   3.343  11.481  10.433 -0.1432 -0.3225  1.3316
  242ccc     H1 7493   3.365  11.528  10.530  0.7859 -0.0925  1.0233
  242ccc     H2 7494   3.339  11.562  10.359 -2.3347 -1.8151 -0.3178
  242ccc     C2 7495   3.199  11.424  10.438 -0.4668 -0.3966 -0.5161
  242ccc     H3 7496   3.174  11.372  10.344  0.1667 -0.2743 -0.7543
  242ccc     H4 7497   3.129  11.508  10.432 -1.6876 -1.0919  2.2746
  242ccc     C3 7498   3.187  11.340  10.562 -0.2262  0.1685  0.1464
  242ccc     H5 7499   3.184  11.414  10.642  1.8519 -0.2276  0.6641
  242ccc     H6 7500   3.277  11.279  10.576 -0.3711 -0.4362 -1.3769
  242ccc     N1 7501   3.065  11.254  10.548 -0.6896  0.3398 -0.2018
  242ccc     C4 7502   3.109  11.130  10.476  0.3488  0.0665  0.2930
  242ccc     H7 7503   3.177  11.066  10.532  0.7845  0.6910  0.4958
  242ccc     H8 7504   3.161  11.166  10.386  1.5336  0.5464  1.1391
  242ccc     C5 7505   2.985  11.055  10.425  0.1788  0.5246  0.6679
  242ccc     H9 7506   2.929  11.023  10.514  0.2439  0.0783  0.5515
  242ccc    H10 7507   2.926  11.123  10.363  2.9788  0.4402 -2.3568
  242ccc     C6 7508   3.018  10.929  10.345 -0.1916 -0.4693 -0.2218
  242ccc     O1 7509   3.025  10.926  10.224 -0.1092 -0.1469 -0.0409
  242ccc     O2 7510   3.054  10.818  10.409  0.6800  0.2046  0.3696
  242ccc    H11 7511   3.072  10.849  10.499  0.5165  1.7004 -0.0769
  242ccc     C7 7512   3.018  11.228  10.692  0.3184 -0.2414  0.0768
  242ccc    H12 7513   2.943  11.150  10.676 -0.3639  0.6076 -1.0190
  242ccc    H13 7514   3.093  11.184  10.757  1.9816  1.4931 -0.5611
  242ccc     C8 7515   2.944  11.342  10.775  0.4467 -0.2026 -0.1767
  242ccc    H14 7516   2.990  11.442  10.778 -0.8510  0.4127  0.0200
  242ccc    H15 7517   2.840  11.344  10.739  0.3839 -0.7224 -0.0397
  242ccc     C9 7518   2.938  11.308  10.924 -0.6725  0.4572 -0.4570
  242ccc     O3 7519   2.985  11.206  10.973  0.3145 -0.2833  0.0997
  242ccc     O4 7520   2.833  11.368  10.987 -0.0827  0.2115  0.1027
  242ccc    H16 7521   2.811  11.440  10.926  0.3766 -1.1077 -1.6974
  242ccc     O5 7522   3.454  11.393  10.390  0.2723 -0.2223  0.6418
  242ccc    H17 7523   2.991  11.309  10.501  0.7488  2.1676 -0.4525
  243ccc     C1 7524   3.464  10.809  10.025 -0.2874  0.3905  0.0275
  243ccc     H1 7525   3.377  10.743  10.020 -0.2116  0.2935 -0.0543
  243ccc     H2 7526   3.466  10.865   9.930  1.2951  1.7254  0.8053
  243ccc     C2 7527   3.590  10.710  10.032 -0.8337  0.4389 -0.2546
  243ccc     H3 7528   3.678  10.774  10.027 -0.0006 -0.7082 -0.6214
  243ccc     H4 7529   3.596  10.643   9.946 -3.2122 -0.8670  0.4995
  243ccc     C3 7530   3.575  10.614  10.158 -0.4086 -0.3291 -0.1066
  243ccc     H5 7531   3.527  10.519  10.133  2.1066 -1.4208 -1.0824
  243ccc     H6 7532   3.512  10.663  10.233 -1.4341 -2.3087  0.3981
  243ccc     N1 7533   3.708  10.566  10.220  0.5802 -0.4840 -0.2234
  243ccc     C4 7534   3.801  10.683  10.251 -1.3463 -0.0469 -0.4667
  243ccc     H7 7535   3.836  10.718  10.153 -1.0236 -0.5017 -0.5171
  243ccc     H8 7536   3.884  10.641  10.309 -1.7992  1.3148  1.2440
  243ccc     C5 7537   3.738  10.799  10.327 -0.1506  0.1546 -0.1179
  243ccc     H9 7538   3.641  10.837  10.294 -1.1754 -0.2821  2.2198
  243ccc    H10 7539   3.727  10.763  10.430 -0.5868 -0.9943 -0.5505
  243ccc     C6 7540   3.828  10.920  10.324 -0.3994 -0.3493 -0.6401
  243ccc     O1 7541   3.902  10.941  10.229 -0.2494  0.1502 -0.2448
  243ccc     O2 7542   3.781  11.022  10.385 -0.3859  0.0654 -0.0807
  243ccc    H11 7543   3.847  11.091  10.368 -0.9473  0.2542 -1.6474
  243ccc     C7 7544   3.700  10.483  10.351  0.7983 -0.0760 -0.0760
  243ccc    H12 7545   3.798  10.437  10.369  0.9059  0.8470  2.0463
  243ccc    H13 7546   3.691  10.562  10.426 -0.1274 -1.1714  1.0194
  243ccc     C8 7547   3.587  10.382  10.373 -0.2554  0.0825 -0.3099
  243ccc    H14 7548   3.492  10.437  10.381 -0.8470 -0.2242 -3.6282
  243ccc    H15 7549   3.575  10.318  10.284 -1.6693  0.9215 -0.7536
  243ccc     C9 7550   3.601  10.299  10.499  0.5552  0.4025  0.1416
  243ccc     O3 7551   3.551  10.328  10.605 -0.3497  0.8979  0.2284
  243ccc     O4 7552   3.675  10.188  10.487 -0.3438 -0.0321 -0.5358
  243ccc    H16 7553   3.702  10.170  10.579 -1.8392 -0.3043 -0.1243
  243ccc     O5 7554   3.465  10.890  10.139  0.5249  0.4812  0.0649
  243ccc    H17 7555   3.766  10.507  10.159  1.7222  0.9365 -0.5661
  244ccc     C1 7556   4.281  12.543   9.720  0.1691 -0.1305 -0.7095
  244ccc     H1 7557   4.178  12.525   9.754 -0.3915  0.3512 -2.0614
  244ccc     H2 7558   4.318  12.631   9.774 -0.3212  1.0366 -2.1801
  244ccc     C2 7559   4.289  12.591   9.576  0.6315  0.0738 -0.2387
  244ccc     H3 7560   4.269  12.697   9.559 -1.8977 -0.4373 -0.7699
  244ccc     H4 7561   4.205  12.532   9.537 -2.0414  3.9779 -0.9287
  244ccc     C3 7562   4.419  12.548   9.511 -0.1795  0.3925 -0.2090
  244ccc     H5 7563   4.440  12.441   9.520  0.7289  0.6927  1.6747
  244ccc     H6 7564   4.499  12.608   9.555 -0.5745  0.6712  0.1395
  244ccc     N1 7565   4.433  12.579   9.358  1.0357 -0.8054 -0.6491
  244ccc     C4 7566   4.315  12.527   9.277 -0.1650 -0.2752 -0.3450
  244ccc     H7 7567   4.232  12.596   9.291  0.8046  1.0633 -0.9329
  244ccc     H8 7568   4.276  12.434   9.319  0.9632 -0.8500 -0.5416
  244ccc     C5 7569   4.336  12.514   9.119  0.0957  0.2994  0.0075
  244ccc     H9 7570   4.343  12.610   9.066 -0.0160  0.2775 -0.0481
  244ccc    H10 7571   4.426  12.454   9.099 -0.3411 -0.1493 -0.6671
  244ccc     C6 7572   4.227  12.439   9.051 -0.6275 -0.4998 -0.1861
  244ccc     O1 7573   4.157  12.367   9.116  0.0205  0.3864  0.7410
  244ccc     O2 7574   4.217  12.470   8.924  0.1941  0.0590 -0.0571
  244ccc    H11 7575   4.149  12.406   8.897 -0.1337  0.4932 -0.2720
  244ccc     C7 7576   4.460  12.733   9.335  0.3492 -0.1195 -0.1622
  244ccc    H12 7577   4.362  12.776   9.314 -0.0740 -1.5422 -1.2810
  244ccc    H13 7578   4.494  12.773   9.431 -0.2223  1.5112 -0.6112
  244ccc     C8 7579   4.565  12.761   9.234  0.7921 -0.1657  0.3428
  244ccc    H14 7580   4.663  12.728   9.272 -0.1253 -0.2014  2.8571
  244ccc    H15 7581   4.542  12.714   9.138 -0.4083 -0.8026  0.9170
  244ccc     C9 7582   4.548  12.909   9.205  0.0294 -0.1251  0.4526
  244ccc     O3 7583   4.472  12.988   9.258 -0.0036  0.2674  0.0229
  244ccc     O4 7584   4.616  12.942   9.096  0.5122 -0.6068  0.5514
  244ccc    H16 7585   4.609  13.038   9.106 -2.2156 -0.8074  1.2887
  244ccc     O5 7586   4.373  12.431   9.743 -0.3867  0.1766  0.3158
  244ccc    H17 7587   4.522  12.533   9.335  1.6078  1.9104 -4.8848
  245ccc     C1 7588   3.818  12.460   9.746 -0.8967  0.5476  0.1248
  245ccc     H1 7589   3.829  12.536   9.667  0.0553  0.4738  0.1776
  245ccc     H2 7590   3.724  12.410   9.722  0.3549 -1.1125 -1.6516
  245ccc     C2 7591   3.810  12.532   9.879 -0.3142  0.2418  0.0355
  245ccc     H3 7592   3.728  12.604   9.868 -0.4441  0.1298  0.2536
  245ccc     H4 7593   3.903  12.582   9.908 -0.6045  0.5233  0.4963
  245ccc     C3 7594   3.782  12.436   9.994  0.9117  0.7422 -0.2215
  245ccc     H5 7595   3.861  12.363  10.010 -1.0312 -1.2051  1.1020
  245ccc     H6 7596   3.689  12.392   9.957  0.9465  0.2706  0.2294
  245ccc     N1 7597   3.736  12.494  10.129 -0.2165 -0.6580  0.2522
  245ccc     C4 7598   3.702  12.390  10.234  0.6080  0.0984 -0.0015
  245ccc     H7 7599   3.716  12.430  10.334  0.6221 -2.1380  0.9609
  245ccc     H8 7600   3.775  12.309  10.228  1.1101  0.5210  0.4371
  245ccc     C5 7601   3.562  12.338  10.205 -0.8344  0.4772 -0.4444
  245ccc     H9 7602   3.483  12.406  10.239 -1.6908  0.3284 -2.0140
  245ccc    H10 7603   3.536  12.333  10.098  1.0176 -0.7691 -0.8796
  245ccc     C6 7604   3.535  12.211  10.277 -0.2220 -0.2177 -0.6260
  245ccc     O1 7605   3.622  12.149  10.334  0.3993  0.5053 -0.2847
  245ccc     O2 7606   3.411  12.166  10.262 -0.1105 -0.1919  0.5041
  245ccc    H11 7607   3.410  12.082  10.310  1.2916  1.4577  3.7490
  245ccc     C7 7608   3.843  12.593  10.174 -0.0477 -0.8194  0.1975
  245ccc    H12 7609   3.860  12.589  10.281  1.8501  2.7431  0.1566
  245ccc    H13 7610   3.938  12.559  10.133 -0.3757 -0.7845 -0.6125
  245ccc     C8 7611   3.803  12.739  10.134  0.9681 -0.1589  0.6095
  245ccc    H14 7612   3.798  12.744  10.024  1.3828 -2.2225  0.4626
  245ccc    H15 7613   3.711  12.778  10.179  2.0138 -0.6433  3.3113
  245ccc     C9 7614   3.906  12.835  10.169  0.3134 -0.4611  0.1934
  245ccc     O3 7615   4.021  12.799  10.188  0.0267 -0.7186 -0.3240
  245ccc     O4 7616   3.879  12.968  10.163  0.5902  0.1473 -0.1239
  245ccc    H16 7617   3.782  12.980  10.168  0.7785  1.2494  2.6220
  245ccc     O5 7618   3.927  12.360   9.749  1.3277  0.5177 -0.0364
  245ccc    H17 7619   3.648  12.547  10.117  0.0415 -0.2469  0.1693
  246ccc     C1 7620   6.295  11.675   8.790  0.4828  0.4164 -0.4063
  246ccc     H1 7621   6.236  11.584   8.773  0.4358  0.7514 -2.3233
  246ccc     H2 7622   6.336  11.700   8.691  2.1682 -0.9298 -0.1165
  246ccc     C2 7623   6.404  11.648   8.895 -0.1980  0.7049 -0.4127
  246ccc     H3 7624   6.500  11.690   8.863 -0.2070  0.7925 -0.3247
  246ccc     H4 7625   6.407  11.538   8.902  0.9711  0.7703  0.3560
  246ccc     C3 7626   6.362  11.699   9.037 -0.1298 -0.6141  0.3661
  246ccc     H5 7627   6.261  11.665   9.056 -1.2411  0.6803 -2.6497
  246ccc     H6 7628   6.363  11.808   9.032 -1.9660 -0.3852  3.1808
  246ccc     N1 7629   6.467  11.658   9.151  0.3915  0.0166  0.1943
  246ccc     C4 7630   6.449  11.761   9.267 -0.0113 -0.5644  0.7496
  246ccc     H7 7631   6.521  11.725   9.340  0.8960  0.4856  0.3995
  246ccc     H8 7632   6.349  11.755   9.310 -1.4940  1.3887 -2.0898
  246ccc     C5 7633   6.474  11.916   9.233 -0.1218  0.2544  0.0857
  246ccc     H9 7634   6.579  11.934   9.206 -0.7499  0.8586 -2.2166
  246ccc    H10 7635   6.414  11.945   9.145  0.1161  2.1014  0.4836
  246ccc     C6 7636   6.440  12.006   9.346  0.1298 -0.5533 -0.3952
  246ccc     O1 7637   6.363  11.984   9.433 -0.0254  0.1958 -0.4234
  246ccc     O2 7638   6.449  12.137   9.330 -0.0648  0.5376 -0.0493
  246ccc    H11 7639   6.402  12.180   9.404 -1.5079 -0.4500 -0.3448
  246ccc     C7 7640   6.450  11.505   9.197  0.2777 -0.2467  0.1869
  246ccc    H12 7641   6.351  11.504   9.243  0.3841  0.2799  0.4243
  246ccc    H13 7642   6.446  11.446   9.106 -1.3631  3.7619 -2.6260
  246ccc     C8 7643   6.552  11.462   9.297 -0.6593  0.0510  0.4806
  246ccc    H14 7644   6.654  11.480   9.262 -0.8183 -1.0745 -0.6670
  246ccc    H15 7645   6.540  11.524   9.387 -3.2471  2.4339 -1.3123
  246ccc     C9 7646   6.547  11.316   9.326  0.4616  0.1067 -0.1509
  246ccc     O3 7647   6.536  11.227   9.244 -0.4345  0.5082  0.4699
  246ccc     O4 7648   6.534  11.294   9.460 -0.3963  0.0967  0.1668
  246ccc    H16 7649   6.555  11.200   9.472  0.2389  0.0190 -1.3319
  246ccc     O5 7650   6.210  11.778   8.835  0.2443  0.4563 -0.4021
  246ccc    H17 7651   6.560  11.668   9.107 -0.4628 -2.2060 -2.3863
  247ccc     C1 7652   5.535  12.297   8.629  0.1556 -0.4514 -0.3475
  247ccc     H1 7653   5.557  12.373   8.552 -1.0483  0.3609  0.0894
  247ccc     H2 7654   5.525  12.203   8.574 -2.2474  0.3232 -1.3718
  247ccc     C2 7655   5.409  12.306   8.720 -0.1476  0.0719  1.0155
  247ccc     H3 7656   5.399  12.212   8.776 -0.8490 -1.3890 -1.4187
  247ccc     H4 7657   5.326  12.309   8.648 -1.4141 -2.7078  2.2048
  247ccc     C3 7658   5.430  12.426   8.812  0.3058  0.0248  0.3004
  247ccc     H5 7659   5.439  12.521   8.758 -2.6162 -0.7042 -1.7036
  247ccc     H6 7660   5.513  12.401   8.878 -0.9906 -1.4779  1.4129
  247ccc     N1 7661   5.314  12.457   8.908  0.1175 -0.0278  0.0162
  247ccc     C4 7662   5.356  12.572   9.009 -0.4399 -0.1279 -0.8992
  247ccc     H7 7663   5.263  12.615   9.048 -1.8335 -2.7923 -1.0769
  247ccc     H8 7664   5.419  12.642   8.954  1.8128 -1.6906 -0.4118
  247ccc     C5 7665   5.439  12.511   9.127  0.4086  0.6767 -0.1210
  247ccc     H9 7666   5.385  12.428   9.174  0.7051  0.4609 -0.1608
  247ccc    H10 7667   5.529  12.472   9.079 -2.2442  0.3977 -5.7129
  247ccc     C6 7668   5.484  12.612   9.229  0.3990  0.3532 -0.1685
  247ccc     O1 7669   5.437  12.725   9.240 -0.2788 -0.0486 -0.2623
  247ccc     O2 7670   5.563  12.564   9.333 -0.1806  0.1404  0.0040
  247ccc    H11 7671   5.580  12.470   9.318 -3.1074 -0.4774 -0.0112
  247ccc     C7 7672   5.192  12.515   8.821  0.1349  0.3697  0.2373
  247ccc    H12 7673   5.215  12.618   8.795 -0.4254 -0.0072 -1.9527
  247ccc    H13 7674   5.178  12.447   8.737 -1.8780 -0.1904  0.9605
  247ccc     C8 7675   5.056  12.526   8.892  0.1239 -0.4053  0.4141
  247ccc    H14 7676   5.027  12.425   8.922  1.3363 -1.1016 -0.6231
  247ccc    H15 7677   5.069  12.592   8.979  0.5410 -2.9317  2.3896
  247ccc     C9 7678   4.948  12.582   8.799  0.3865  0.2191 -0.6692
  247ccc     O3 7679   4.958  12.621   8.684  0.0076  0.2852 -0.1890
  247ccc     O4 7680   4.826  12.542   8.848 -0.2838 -0.1299 -0.2155
  247ccc    H16 7681   4.834  12.497   8.934 -0.1267  1.1356  0.4736
  247ccc     O5 7682   5.653  12.287   8.705  0.1003 -0.2529 -0.2604
  247ccc    H17 7683   5.287  12.374   8.963  1.8737  0.0600  1.0639
  248ccc     C1 7684   5.774  12.196   9.993  0.2174  0.2449 -0.1583
  248ccc     H1 7685   5.775  12.120  10.072 -2.3209 -0.3983 -0.6531
  248ccc     H2 7686   5.761  12.143   9.898 -0.5632  1.3847 -0.7187
  248ccc     C2 7687   5.913  12.274   9.994 -0.5349  0.4106  0.0001
  248ccc     H3 7688   5.930  12.327   9.900  0.8065 -0.8090 -0.4662
  248ccc     H4 7689   5.996  12.203   9.994 -0.9166 -0.0427 -0.0840
  248ccc     C3 7690   5.921  12.371  10.116  0.2184  0.1578  0.6400
  248ccc     H5 7691   5.967  12.317  10.200 -0.3221 -0.9053  0.2756
  248ccc     H6 7692   5.819  12.392  10.150 -0.1413  1.7178 -1.2387
  248ccc     N1 7693   6.002  12.500  10.084  0.5334 -0.4442  0.3224
  248ccc     C4 7694   5.921  12.590   9.986 -0.0977  0.7051 -0.5265
  248ccc     H7 7695   5.821  12.608  10.027  0.7497  1.0767  1.4540
  248ccc     H8 7696   5.905  12.536   9.893  2.4070 -0.4262 -0.3689
  248ccc     C5 7697   5.983  12.720   9.939  0.0967 -0.2888  0.1571
  248ccc     H9 7698   6.009  12.786  10.022  1.6346  0.8012 -1.1239
  248ccc    H10 7699   6.075  12.697   9.883 -0.5663 -2.2266 -0.2437
  248ccc     C6 7700   5.889  12.793   9.846 -0.4750  0.4398  0.6698
  248ccc     O1 7701   5.769  12.777   9.837  0.0804 -0.4941 -0.2033
  248ccc     O2 7702   5.946  12.874   9.757 -0.4240 -0.2447  0.0537
  248ccc    H11 7703   6.042  12.882   9.771 -0.5454  2.5853 -0.1340
  248ccc     C7 7704   6.016  12.580  10.210  0.8195  0.1088 -0.6315
  248ccc    H12 7705   6.059  12.677  10.183  1.4476  0.8155  2.4548
  248ccc    H13 7706   5.919  12.609  10.251  0.6483 -0.3119 -0.7362
  248ccc     C8 7707   6.115  12.518  10.299  0.1589  0.4804 -0.3763
  248ccc    H14 7708   6.097  12.418  10.341  1.9284 -0.2653 -1.2733
  248ccc    H15 7709   6.206  12.507  10.238  0.3822  0.8102 -0.1090
  248ccc     C9 7710   6.154  12.609  10.419 -0.0586 -0.2172  0.7232
  248ccc     O3 7711   6.114  12.718  10.446  0.0330 -0.1150  0.6240
  248ccc     O4 7712   6.270  12.572  10.472 -0.3039  0.1147  0.0235
  248ccc    H16 7713   6.299  12.650  10.523 -1.1240  0.0401  0.6237
  248ccc     O5 7714   5.671  12.291  10.027  0.4004  0.5030 -0.0090
  248ccc    H17 7715   6.092  12.479  10.039  0.1323  0.1572 -0.7975
  249ccc     C1 7716   5.474  12.931   9.639  0.1086 -0.1266 -0.3681
  249ccc     H1 7717   5.394  12.976   9.579 -0.5842  1.4645  1.6291
  249ccc     H2 7718   5.461  12.975   9.739  0.6057 -0.3706 -0.1946
  249ccc     C2 7719   5.605  12.972   9.578 -0.0573  0.3294  0.4499
  249ccc     H3 7720   5.687  12.936   9.640  0.6955 -1.5517 -1.5080
  249ccc     H4 7721   5.597  13.081   9.561 -0.5478  0.0769 -1.0945
  249ccc     C3 7722   5.607  12.902   9.437  0.0637  0.0404  0.0586
  249ccc     H5 7723   5.508  12.910   9.390  0.0537  1.3490  0.2525
  249ccc     H6 7724   5.629  12.798   9.461  0.6787  0.3527  0.8547
  249ccc     N1 7725   5.706  12.968   9.337  0.6541 -0.2285  0.5567
  249ccc     C4 7726   5.849  12.960   9.396  0.3944 -0.2370 -0.2324
  249ccc     H7 7727   5.864  13.026   9.482  0.5481  2.5915 -2.2837
  249ccc     H8 7728   5.907  13.009   9.318  0.5765 -0.3856 -0.1903
  249ccc     C5 7729   5.895  12.816   9.412  0.4284  0.0516 -0.3084
  249ccc     H9 7730   5.849  12.772   9.501 -0.2677 -0.4169 -0.8950
  249ccc    H10 7731   5.883  12.766   9.315  1.5568 -0.8126 -0.0157
  249ccc     C6 7732   6.045  12.814   9.438 -0.0716  0.9035 -1.4413
  249ccc     O1 7733   6.107  12.918   9.477 -0.3645  0.3222  0.1569
  249ccc     O2 7734   6.101  12.690   9.412 -0.1268  0.1662  0.3850
  249ccc    H11 7735   6.032  12.628   9.383  0.9507 -0.1160 -1.8496
  249ccc     C7 7736   5.701  12.900   9.202  0.1815 -0.3923 -0.9091
  249ccc    H12 7737   5.805  12.899   9.171  0.8830  0.0215  1.2286
  249ccc    H13 7738   5.671  12.798   9.225  0.1037 -0.2593 -0.4097
  249ccc     C8 7739   5.589  12.959   9.107 -0.2315 -0.9088 -0.2550
  249ccc    H14 7740   5.490  12.960   9.154  0.1835 -1.5823  0.6716
  249ccc    H15 7741   5.620  13.056   9.067 -2.0888 -0.4831 -0.7521
  249ccc     C9 7742   5.573  12.866   8.982  0.2291  0.0903  0.0098
  249ccc     O3 7743   5.633  12.758   8.976 -0.5658 -0.1982 -0.1625
  249ccc     O4 7744   5.492  12.911   8.892  0.6051 -0.6034  0.3808
  249ccc    H16 7745   5.448  12.986   8.936  0.8746 -0.5705  0.5922
  249ccc     O5 7746   5.456  12.786   9.656 -0.2703  0.5502  0.6889
  249ccc    H17 7747   5.685  13.068   9.323  0.6286 -0.2351  0.5472
  250ccc     C1 7748   5.437  10.110  11.260  0.4034  0.4003 -0.2471
  250ccc     H1 7749   5.355  10.170  11.220 -1.4201 -1.7079  0.1081
  250ccc     H2 7750   5.382  10.030  11.312 -0.6777  1.1466 -0.2265
  250ccc     C2 7751   5.524  10.197  11.353 -0.2925 -0.4884 -0.6018
  250ccc     H3 7752   5.453  10.242  11.423  0.6610 -1.9008  1.3473
  250ccc     H4 7753   5.567  10.278  11.292 -0.7823 -0.9688 -1.6147
  250ccc     C3 7754   5.616  10.106  11.438  0.2958  0.8289 -0.1610
  250ccc     H5 7755   5.683  10.055  11.368 -1.9679 -0.0746 -1.7839
  250ccc     H6 7756   5.558  10.033  11.495 -0.9619  2.0027  0.1142
  250ccc     N1 7757   5.709  10.185  11.532  0.3829  0.0435  0.1934
  250ccc     C4 7758   5.789  10.098  11.626  0.5553 -0.2640  0.5120
  250ccc     H7 7759   5.872  10.154  11.670 -0.0705 -0.2363  1.7083
  250ccc     H8 7760   5.833  10.018  11.565 -0.3915  0.3231 -0.9801
  250ccc     C5 7761   5.711  10.042  11.745 -0.2126 -0.2097 -0.6990
  250ccc     H9 7762   5.666  10.125  11.801 -1.8351 -0.3564 -1.7131
  250ccc    H10 7763   5.630   9.985  11.699 -1.1006 -0.2317  0.8284
  250ccc     C6 7764   5.787   9.953  11.841  0.5749 -0.8192  0.0717
  250ccc     O1 7765   5.908   9.933  11.851 -0.4801  0.8278 -0.4408
  250ccc     O2 7766   5.712   9.868  11.905  0.7383  0.6198 -0.2385
  250ccc    H11 7767   5.774   9.820  11.963 -1.9481 -3.8939 -0.5930
  250ccc     C7 7768   5.796  10.277  11.457  0.3885 -0.1827  0.0894
  250ccc    H12 7769   5.734  10.349  11.403 -0.4963 -2.2850 -1.8863
  250ccc    H13 7770   5.848  10.346  11.523 -0.0402  0.1100  0.1275
  250ccc     C8 7771   5.889  10.220  11.356 -0.4199  0.4527  0.7155
  250ccc    H14 7772   5.942  10.127  11.382 -1.9227 -0.9069 -0.8045
  250ccc    H15 7773   5.836  10.203  11.262 -0.7172  0.3489  0.8992
  250ccc     C9 7774   5.998  10.318  11.328 -0.5712  0.6127  0.2763
  250ccc     O3 7775   6.013  10.427  11.379 -0.3563  0.5182  0.6815
  250ccc     O4 7776   6.108  10.266  11.257  0.5990 -0.2520 -0.0584
  250ccc    H16 7777   6.077  10.180  11.225  0.2514 -0.9432  2.0156
  250ccc     O5 7778   5.521  10.061  11.160 -0.1855 -0.0584  0.1501
  250ccc    H17 7779   5.645  10.244  11.587  2.0652  0.8503  1.3458
  251ccc     C1 7780   6.223  10.435  10.977  0.0190 -0.6137  0.7601
  251ccc     H1 7781   6.250  10.350  11.040 -1.4880 -0.5035  1.5759
  251ccc     H2 7782   6.280  10.439  10.883  0.9480  3.5592  1.3091
  251ccc     C2 7783   6.237  10.565  11.058  0.0333  0.0119  0.1747
  251ccc     H3 7784   6.169  10.565  11.144  1.3828  0.0560  1.2827
  251ccc     H4 7785   6.212  10.647  10.990  2.3559 -0.1998 -1.0379
  251ccc     C3 7786   6.385  10.586  11.114  0.0636 -0.4055  0.0600
  251ccc     H5 7787   6.461  10.585  11.036  0.8281 -0.9117  0.7824
  251ccc     H6 7788   6.413  10.501  11.177  0.1324 -0.8457 -0.5556
  251ccc     N1 7789   6.412  10.716  11.196  0.6662  0.3547 -0.6290
  251ccc     C4 7790   6.406  10.689  11.350 -0.1358  0.1703 -0.2862
  251ccc     H7 7791   6.415  10.788  11.394 -1.0610  0.3068 -0.3797
  251ccc     H8 7792   6.495  10.643  11.394 -1.0198  0.8992  2.4168
  251ccc     C5 7793   6.287  10.613  11.412  0.0526  0.3261 -0.4696
  251ccc     H9 7794   6.194  10.653  11.367  0.0368  1.6617  0.6845
  251ccc    H10 7795   6.268  10.509  11.383 -0.3750 -0.4264  2.2749
  251ccc     C6 7796   6.285  10.620  11.565  0.1870  1.2018  0.3777
  251ccc     O1 7797   6.238  10.706  11.634 -0.4015 -0.0474  0.3034
  251ccc     O2 7798   6.325  10.509  11.623 -0.3072 -0.0744  0.0320
  251ccc    H11 7799   6.370  10.453  11.557  0.7455  0.0972  0.5842
  251ccc     C7 7800   6.542  10.778  11.159  0.3345 -0.1655  0.3751
  251ccc    H12 7801   6.568  10.843  11.243  0.3542 -0.3791  0.5367
  251ccc    H13 7802   6.623  10.704  11.156  1.1001  0.6514  0.3604
  251ccc     C8 7803   6.526  10.865  11.028 -0.1973  0.4001  0.0134
  251ccc    H14 7804   6.465  10.810  10.956 -0.4941  1.1365 -0.3106
  251ccc    H15 7805   6.476  10.961  11.048  1.8071  1.6487 -0.5971
  251ccc     C9 7806   6.664  10.887  10.969 -0.2472 -0.0123  0.0420
  251ccc     O3 7807   6.764  10.822  10.989  0.2433 -0.0672  0.0238
  251ccc     O4 7808   6.674  10.999  10.895  0.0773  0.2564 -0.3383
  251ccc    H16 7809   6.585  11.037  10.892  0.7085  2.5667  3.5034
  251ccc     O5 7810   6.086  10.422  10.952  0.0466 -0.2999 -0.3885
  251ccc    H17 7811   6.338  10.781  11.164 -1.9924 -1.4351  1.3959
  252ccc     C1 7812   5.378  11.825  11.226  0.7677  0.2052 -0.2334
  252ccc     H1 7813   5.441  11.884  11.293  1.7619 -0.5844 -0.4346
  252ccc     H2 7814   5.351  11.878  11.134 -0.7834  0.1592  0.1730
  252ccc     C2 7815   5.245  11.802  11.307 -0.3158  0.1465  0.3477
  252ccc     H3 7816   5.176  11.741  11.248  0.0130 -1.1144  1.2325
  252ccc     H4 7817   5.205  11.904  11.308  2.3829  1.3691 -1.8012
  252ccc     C3 7818   5.251  11.736  11.441  1.1845 -0.5095  0.0337
  252ccc     H5 7819   5.170  11.783  11.496  0.1466 -1.0977 -0.9465
  252ccc     H6 7820   5.345  11.757  11.491  0.9663 -0.2878  0.3460
  252ccc     N1 7821   5.222  11.589  11.457 -0.1488 -0.3770  0.1941
  252ccc     C4 7822   5.078  11.550  11.427  0.9380  0.0917  0.6265
  252ccc     H7 7823   5.080  11.441  11.432  1.3045  0.0786  0.2011
  252ccc     H8 7824   5.056  11.584  11.326 -0.3993 -0.4418  0.7119
  252ccc     C5 7825   4.955  11.608  11.510 -0.3748 -0.5589 -0.3150
  252ccc     H9 7826   4.955  11.572  11.613 -0.8007  0.1673 -0.0582
  252ccc    H10 7827   4.974  11.716  11.512  1.2395 -0.7597 -1.6171
  252ccc     C6 7828   4.823  11.576  11.446  0.0599  0.0124 -0.3406
  252ccc     O1 7829   4.778  11.645  11.355  0.2315 -0.2135 -0.4395
  252ccc     O2 7830   4.748  11.491  11.516 -0.1867 -0.8056  0.3343
  252ccc    H11 7831   4.821  11.451  11.567  0.8376  1.2756  0.5849
  252ccc     C7 7832   5.320  11.498  11.380  1.0728  0.5009  0.1791
  252ccc    H12 7833   5.290  11.498  11.275 -0.4802 -0.9803  0.5899
  252ccc    H13 7834   5.422  11.533  11.398  0.7922  1.9376 -0.8574
  252ccc     C8 7835   5.319  11.355  11.441  0.3030 -0.0281 -0.1818
  252ccc    H14 7836   5.363  11.348  11.541 -0.4681 -0.7165  0.1152
  252ccc    H15 7837   5.219  11.310  11.448  0.6016 -0.3559  3.6810
  252ccc     C9 7838   5.398  11.270  11.348 -0.5608  1.0977  1.0749
  252ccc     O3 7839   5.433  11.303  11.233 -0.1280  0.0333 -0.0621
  252ccc     O4 7840   5.444  11.152  11.403 -0.0843  0.4022 -0.6059
  252ccc    H16 7841   5.424  11.160  11.498 -0.8693 -2.7810 -0.3641
  252ccc     O5 7842   5.449  11.703  11.186  0.1063  0.0021 -0.2861
  252ccc    H17 7843   5.240  11.571  11.556  0.8553  2.5428  0.6348
  253ccc     C1 7844   5.868  11.194  11.035 -0.2840  0.6080 -1.2163
  253ccc     H1 7845   5.958  11.137  11.010  0.0145  0.8905 -0.8017
  253ccc     H2 7846   5.902  11.276  11.099  3.2654 -0.8866 -0.9215
  253ccc     C2 7847   5.781  11.104  11.121 -0.8324 -0.3852 -0.1763
  253ccc     H3 7848   5.693  11.165  11.142  0.7103  2.0549 -0.3476
  253ccc     H4 7849   5.830  11.095  11.218 -2.1903 -2.0834  0.4126
  253ccc     C3 7850   5.757  10.958  11.072 -0.2174 -0.0588 -0.0676
  253ccc     H5 7851   5.852  10.906  11.079  0.0658  0.5404  0.7986
  253ccc     H6 7852   5.717  10.957  10.971  1.6892 -0.4679 -0.8462
  253ccc     N1 7853   5.657  10.891  11.164 -0.0901 -0.2288  0.3914
  253ccc     C4 7854   5.517  10.945  11.147 -0.4750 -1.0629  0.4188
  253ccc     H7 7855   5.490  10.930  11.042  1.7535 -1.1234 -0.2123
  253ccc     H8 7856   5.518  11.053  11.156  0.2443 -0.7260 -2.5853
  253ccc     C5 7857   5.408  10.886  11.239 -0.4540  0.6512  0.1582
  253ccc     H9 7858   5.393  10.778  11.228 -0.7384  0.3487  2.8730
  253ccc    H10 7859   5.442  10.893  11.343  1.7629 -0.9267 -0.3949
  253ccc     C6 7860   5.271  10.935  11.204 -0.3178 -0.2340 -0.1043
  253ccc     O1 7861   5.248  11.026  11.130  0.0827 -0.2547  0.1072
  253ccc     O2 7862   5.175  10.885  11.284 -0.3989 -0.1784  0.2434
  253ccc    H11 7863   5.217  10.845  11.362  1.5733  0.6644 -0.3230
  253ccc     C7 7864   5.672  10.737  11.153  0.0975  0.0316 -0.5127
  253ccc    H12 7865   5.771  10.697  11.176 -0.1499 -0.9559 -1.0765
  253ccc    H13 7866   5.597  10.699  11.222  0.0877 -0.2982 -0.7000
  253ccc     C8 7867   5.650  10.665  11.023 -0.2481 -0.4043  0.1229
  253ccc    H14 7868   5.566  10.707  10.966 -0.9615 -0.4632  1.1123
  253ccc    H15 7869   5.744  10.669  10.967  0.0470 -1.1441  0.5654
  253ccc     C9 7870   5.624  10.519  11.044  0.0883 -0.8480  0.3169
  253ccc     O3 7871   5.648  10.474  11.148  0.1375 -0.1226  0.0131
  253ccc     O4 7872   5.594  10.444  10.940  0.2806  0.3967 -0.3940
  253ccc    H16 7873   5.580  10.512  10.872 -1.0313  1.2597  0.6843
  253ccc     O5 7874   5.792  11.226  10.927  0.4782 -0.3175  0.3130
  253ccc    H17 7875   5.688  10.913  11.260 -1.0851 -1.1194  0.9437
  254SOL     OW 7876   0.392  10.824   1.447 -0.5888 -0.3684  0.1162
  254SOL    HW1 7877   0.380  10.787   1.535  1.9793  2.3061  1.7911
  254SOL    HW2 7878   0.338  10.903   1.447  0.5717  0.4530 -0.0805
  255SOL     OW 7879   7.438   5.863   8.033  0.2422 -0.6977 -0.2438
  255SOL    HW1 7880   7.482   5.791   8.078 -0.7728 -1.7294 -0.8654
  255SOL    HW2 7881   7.381   5.821   7.969  0.5221  0.6925 -1.4763
  256SOL     OW 7882   0.968  12.290  11.080 -0.1056 -0.5390 -0.2807
  256SOL    HW1 7883   0.993  12.270  10.990  0.3496  1.9703 -0.8048
  256SOL    HW2 7884   0.877  12.319  11.073 -0.5353 -1.6770  0.3239
  257SOL     OW 7885   9.146   2.228   5.555 -0.8165  0.2874  0.2538
  257SOL    HW1 7886   9.183   2.171   5.488 -0.3198 -0.7186  1.3551
  257SOL    HW2 7887   9.216   2.236   5.621 -1.7931  0.0868  1.3385
  258SOL     OW 7888   4.925   0.581  11.238  0.2544  0.1560 -0.3486
  258SOL    HW1 7889   4.843   0.616  11.204  0.4664  0.9694 -0.0457
  258SOL    HW2 7890   4.900   0.500  11.282 -0.3088  0.1334 -0.6976
  259SOL     OW 7891   3.767   5.882  11.472  0.3450  0.5639 -0.4478
  259SOL    HW1 7892   3.737   5.796  11.502  3.5678 -0.9055 -0.9446
  259SOL    HW2 7893   3.712   5.903  11.397 -0.6330 -1.0062 -0.2011
  260SOL     OW 7894   1.695   0.566   5.919 -0.3707 -0.0339  0.6323
  260SOL    HW1 7895   1.665   0.655   5.903 -1.8785 -0.7219 -0.5219
  260SOL    HW2 7896   1.701   0.560   6.015 -0.7993  1.1165  0.7434
  261SOL     OW 7897  10.189   8.034   2.556  0.2066  0.3337  0.3723
  261SOL    HW1 7898  10.261   8.097   2.544 -0.1186  0.6830  0.2244
  261SOL    HW2 7899  10.133   8.047   2.479 -0.1200  0.2012  0.5864
  262SOL     OW 7900   7.128   9.026  11.329  0.5848  0.2362  0.4829
  262SOL    HW1 7901   7.135   9.115  11.364  2.3718  0.2912  0.0720
  262SOL    HW2 7902   7.122   9.037  11.234  1.2647 -0.0995  0.3981
  263SOL     OW 7903   9.205  12.692   7.475 -0.2284 -0.2820  0.4816
  263SOL    HW1 7904   9.284  12.673   7.524 -0.4242  1.8681  1.7285
  263SOL    HW2 7905   9.215  12.642   7.394  0.9894 -2.3933  1.8460
  264SOL     OW 7906   1.143   9.836  10.398 -0.1686  0.1535 -0.1338
  264SOL    HW1 7907   1.205   9.774  10.435 -0.8476 -0.6238 -0.2558
  264SOL    HW2 7908   1.146   9.819  10.303 -1.1792 -0.4895 -0.0608
  265SOL     OW 7909   2.289   1.859   0.623 -0.3800 -0.0817  0.3217
  265SOL    HW1 7910   2.268   1.822   0.709  0.2251  2.7403  1.7988
  265SOL    HW2 7911   2.229   1.933   0.614  2.1427  2.0729  0.1626
  266SOL     OW 7912   2.401   8.514   1.750 -0.2707  0.2622 -0.8010
  266SOL    HW1 7913   2.377   8.549   1.835  0.6110 -1.3371  0.1595
  266SOL    HW2 7914   2.347   8.436   1.740  0.6391 -0.3552 -1.0346
  267SOL     OW 7915   9.230   2.897   3.921 -0.1318  0.6446 -0.1942
  267SOL    HW1 7916   9.172   2.940   3.983 -1.9370 -0.7887 -0.8039
  267SOL    HW2 7917   9.187   2.814   3.901  1.5585  0.0374 -1.5778
  268SOL     OW 7918   0.110   8.577   0.892  0.1644 -0.7256 -0.2537
  268SOL    HW1 7919   0.162   8.585   0.972  0.3297  1.7545 -0.5312
  268SOL    HW2 7920   0.174   8.583   0.821 -0.0600 -2.2143 -0.6162
  269SOL     OW 7921   7.657   7.013   4.781  0.0971  0.1933  0.4959
  269SOL    HW1 7922   7.727   7.075   4.760 -0.7294  1.4448  1.3041
  269SOL    HW2 7923   7.673   6.939   4.723  1.2801  1.0383 -0.3142
  270SOL     OW 7924   3.181   4.636   5.979 -0.1882  0.0950  0.6485
  270SOL    HW1 7925   3.121   4.709   5.966 -2.0004 -0.6455  3.7267
  270SOL    HW2 7926   3.133   4.559   5.947  0.2283 -0.1797  0.6674
  271SOL     OW 7927   0.533  11.728   0.754 -0.4086 -0.2542  0.3948
  271SOL    HW1 7928   0.506  11.735   0.845 -1.6782  0.6136 -0.0115
  271SOL    HW2 7929   0.465  11.675   0.713  0.3557 -0.9613  0.0218
  272SOL     OW 7930   8.626   3.801   0.596  0.0309  0.1979  0.0887
  272SOL    HW1 7931   8.544   3.850   0.608 -0.7717 -1.1018  0.1348
  272SOL    HW2 7932   8.676   3.852   0.533 -1.7071  0.0049 -1.5405
  273SOL     OW 7933   6.399  10.930   4.061  0.0760  0.3639 -0.0212
  273SOL    HW1 7934   6.482  10.970   4.038  0.1807  1.0193  1.4117
  273SOL    HW2 7935   6.402  10.843   4.020  1.2799  0.5312 -0.3190
  274SOL     OW 7936   8.505   7.675   2.085  0.1331 -0.2982  0.0932
  274SOL    HW1 7937   8.512   7.685   1.990  1.7016  0.8076  0.2880
  274SOL    HW2 7938   8.582   7.624   2.110  0.4168  0.5101  0.9054
  275SOL     OW 7939   0.836   7.183  11.970  0.0049  0.4907  0.1359
  275SOL    HW1 7940   0.926   7.193  11.940 -0.3322  1.2300 -0.7236
  275SOL    HW2 7941   0.812   7.270  12.003 -0.6176  0.5151 -0.3492
  276SOL     OW 7942   6.500   3.278   1.090  0.0603 -0.4774 -0.5491
  276SOL    HW1 7943   6.448   3.357   1.107  0.3464 -0.3723 -0.1599
  276SOL    HW2 7944   6.570   3.281   1.155  0.8631 -0.3486 -1.4125
  277SOL     OW 7945   5.535   8.282   3.917  0.2199  0.2750 -0.1620
  277SOL    HW1 7946   5.458   8.328   3.882 -0.6998  0.1064  1.5454
  277SOL    HW2 7947   5.500   8.230   3.989  1.6593 -1.1999 -0.4762
  278SOL     OW 7948   5.263   9.609   0.285  0.1741  0.9448 -0.2743
  278SOL    HW1 7949   5.203   9.683   0.279 -1.1471 -0.1112 -0.9208
  278SOL    HW2 7950   5.320   9.618   0.209 -0.6225  0.7977 -0.9096
  279SOL     OW 7951   6.289   4.423   4.899 -0.1310 -0.1000  0.4311
  279SOL    HW1 7952   6.364   4.366   4.880 -1.0284 -2.1401  2.4789
  279SOL    HW2 7953   6.214   4.379   4.861 -0.7160  0.2410  1.1572
  280SOL     OW 7954   7.442   2.753   0.238 -0.3611 -0.7144  0.1941
  280SOL    HW1 7955   7.430   2.773   0.146  0.0081 -0.6301  0.1626
  280SOL    HW2 7956   7.534   2.771   0.255  0.4105 -3.7633 -0.1735
  281SOL     OW 7957  12.450   8.000   2.383  0.4697 -0.5992 -0.1461
  281SOL    HW1 7958  12.488   7.934   2.441 -0.4949  0.6627  2.0819
  281SOL    HW2 7959  12.381   7.954   2.336  1.8978 -1.8911 -1.0710
  282SOL     OW 7960   9.764   4.639   2.992  0.1410  0.1254 -0.2697
  282SOL    HW1 7961   9.755   4.543   2.988  1.2368 -0.0282  0.5445
  282SOL    HW2 7962   9.674   4.670   3.003 -0.6093 -0.5922 -3.5016
  283SOL     OW 7963  11.476   0.137   5.445 -0.0076 -0.4619 -0.1575
  283SOL    HW1 7964  11.536   0.084   5.394 -1.0884  0.4205 -2.4935
  283SOL    HW2 7965  11.520   0.148   5.530  3.1522  0.1749 -1.7264
  284SOL     OW 7966   2.508   4.514   3.791  0.0574 -0.1681 -0.2885
  284SOL    HW1 7967   2.488   4.421   3.782 -1.4848  0.0451  0.4927
  284SOL    HW2 7968   2.437   4.559   3.746 -1.5475  0.6408  2.7174
  285SOL     OW 7969  12.217  12.831   8.428 -0.2316 -0.3981  0.7526
  285SOL    HW1 7970  12.193  12.827   8.335  1.7002 -0.1635  0.1860
  285SOL    HW2 7971  12.136  12.810   8.475 -1.1666 -0.9111 -0.9874
  286SOL     OW 7972   8.808   1.843   7.386 -0.5244 -0.0967  0.3821
  286SOL    HW1 7973   8.809   1.854   7.291 -0.8158  0.1103  0.4003
  286SOL    HW2 7974   8.838   1.927   7.421 -0.0122 -0.3145  0.4644
  287SOL     OW 7975  12.172  10.472   0.091 -0.2274  0.0021 -0.2839
  287SOL    HW1 7976  12.120  10.402   0.050 -1.9683  0.1975  1.4142
  287SOL    HW2 7977  12.110  10.517   0.149  1.7283  0.5889  1.4979
  288SOL     OW 7978   8.989  12.468   0.543 -0.1263 -0.0585  0.1865
  288SOL    HW1 7979   8.958  12.559   0.536 -2.6966 -0.8318  0.3316
  288SOL    HW2 7980   8.979  12.433   0.455  0.8763 -0.2191  0.1279
  289SOL     OW 7981  10.288   2.533   7.193 -0.7102 -0.0595  0.4753
  289SOL    HW1 7982  10.212   2.541   7.136 -0.3228  0.7692  0.0573
  289SOL    HW2 7983  10.334   2.455   7.161 -0.7549  0.1234 -0.0378
  290SOL     OW 7984   3.664   3.548   1.740  0.5304  0.2166  0.2790
  290SOL    HW1 7985   3.738   3.529   1.682 -0.2740  0.8195 -1.0025
  290SOL    HW2 7986   3.652   3.468   1.791  0.6601 -0.7259 -1.0952
  291SOL     OW 7987   0.133  12.476   5.095 -0.0854 -0.0494 -0.3065
  291SOL    HW1 7988   0.197  12.413   5.130  0.7108  0.4811 -0.7787
  291SOL    HW2 7989   0.059  12.471   5.155  0.1012 -1.2016 -0.1545
  292SOL     OW 7990   8.811   0.940   5.086 -0.2305  0.0636  0.5469
  292SOL    HW1 7991   8.767   0.977   5.010  0.7471 -0.3276 -0.2227
  292SOL    HW2 7992   8.841   1.016   5.136  1.4168  0.3602 -0.8186
  293SOL     OW 7993   1.152   4.473   9.265 -0.2077 -0.1899 -0.5144
  293SOL    HW1 7994   1.101   4.449   9.342  0.7371 -1.5819 -0.2829
  293SOL    HW2 7995   1.233   4.510   9.300  0.0792 -0.5074 -0.8410
  294SOL     OW 7996   8.632   1.667   3.896 -0.1177  0.6182  0.0944
  294SOL    HW1 7997   8.676   1.668   3.981  0.3248  1.9922 -0.1257
  294SOL    HW2 7998   8.551   1.618   3.912  0.7251 -0.5802  0.8904
  295SOL     OW 7999   6.613   7.824  10.831  0.4863 -0.1882 -0.3172
  295SOL    HW1 8000   6.644   7.779  10.910  0.1720 -0.5987 -0.4208
  295SOL    HW2 8001   6.518   7.822  10.839  0.4370 -0.8357 -1.0404
  296SOL     OW 8002   0.226  10.982   5.220  0.5676 -0.2875 -0.4733
  296SOL    HW1 8003   0.152  11.029   5.259  0.0110 -1.0634 -0.5752
  296SOL    HW2 8004   0.205  10.889   5.233  1.9407 -0.5225  0.2934
  297SOL     OW 8005   4.968   5.535   3.985  0.5098 -0.0199 -0.1984
  297SOL    HW1 8006   4.894   5.501   4.035  1.3801 -1.0796  0.4108
  297SOL    HW2 8007   5.044   5.486   4.017  1.0921 -0.8686 -2.6546
  298SOL     OW 8008   1.390   4.302   1.110 -0.0909  0.2045  0.5537
  298SOL    HW1 8009   1.428   4.221   1.144 -0.6050  0.0387  0.7439
  298SOL    HW2 8010   1.455   4.370   1.131  0.8767 -0.3199 -0.6324
  299SOL     OW 8011   0.203   7.278   9.116 -0.2585  0.5400  0.2203
  299SOL    HW1 8012   0.118   7.285   9.073 -0.2405 -0.1079  0.0791
  299SOL    HW2 8013   0.234   7.190   9.096  1.8723  1.7153 -2.3384
  300SOL     OW 8014   5.802   7.604   1.954  0.1969 -0.0861 -0.2253
  300SOL    HW1 8015   5.785   7.575   2.043 -0.3365 -0.3041 -0.3971
  300SOL    HW2 8016   5.750   7.684   1.944 -0.1867 -0.3716 -0.5249
  301SOL     OW 8017  10.509   2.209  12.922  0.2019 -0.0681 -0.2965
  301SOL    HW1 8018  10.508   2.281  12.986 -2.4677  0.2505 -0.5790
  301SOL    HW2 8019  10.560   2.243  12.849  0.1816  1.0066  0.1619
  302SOL     OW 8020  10.600  12.597   5.664 -0.0933 -0.2020 -0.0670
  302SOL    HW1 8021  10.696  12.605   5.667 -0.0981 -0.4169  0.8837
  302SOL    HW2 8022  10.569  12.643   5.742 -0.7542 -0.4140 -0.1967
  303SOL     OW 8023   4.855   0.926   0.253 -0.0978 -0.1685 -0.3301
  303SOL    HW1 8024   4.850   0.858   0.321 -2.4467  0.4583  0.2264
  303SOL    HW2 8025   4.909   0.887   0.184  0.2729 -1.8126  0.8278
  304SOL     OW 8026  12.819  11.335  10.337 -0.0399  0.3964  0.4670
  304SOL    HW1 8027  12.885  11.402  10.353 -0.5319  0.9045  0.4259
  304SOL    HW2 8028  12.759  11.376  10.274 -0.0390 -0.2895  0.0165
  305SOL     OW 8029  12.724  10.110   7.802  0.0543  0.3362 -0.1273
  305SOL    HW1 8030  12.716  10.206   7.799 -1.9221  0.3538  2.3792
  305SOL    HW2 8031  12.635  10.078   7.794  0.3374 -1.1160  1.7610
  306SOL     OW 8032  10.347   7.278   5.423 -0.9389 -0.0515 -0.6774
  306SOL    HW1 8033  10.416   7.219   5.395  2.0436  2.5641  0.5246
  306SOL    HW2 8034  10.299   7.300   5.343  2.9457  1.9185 -2.7287
  307SOL     OW 8035  11.963   0.974   7.208 -1.0476  0.0864 -0.7262
  307SOL    HW1 8036  12.006   0.926   7.278 -1.4844  1.1513  0.2950
  307SOL    HW2 8037  11.869   0.966   7.228 -1.2663 -0.7579 -1.9673
  308SOL     OW 8038  10.083   0.091   8.469 -0.3041  0.5821  0.0583
  308SOL    HW1 8039  10.007   0.114   8.416 -1.2360  0.6265  1.3704
  308SOL    HW2 8040  10.135   0.171   8.473 -0.0771  0.5017 -0.9925
  309SOL     OW 8041   1.147   8.831  12.109 -0.5184  0.1207 -0.0376
  309SOL    HW1 8042   1.076   8.890  12.083 -0.4101 -0.1339 -0.9199
  309SOL    HW2 8043   1.170   8.860  12.198 -0.0414  1.8380 -0.6854
  310SOL     OW 8044   2.039  12.042   6.545  0.3153 -0.2326 -0.8908
  310SOL    HW1 8045   1.944  12.043   6.556  0.1613  1.2960 -2.0207
  310SOL    HW2 8046   2.070  12.117   6.597  0.8620 -0.5053 -0.8169
  311SOL     OW 8047  10.745   8.274  11.781 -0.0695  0.1262 -0.6301
  311SOL    HW1 8048  10.747   8.286  11.876  0.3148 -0.7368 -0.5280
  311SOL    HW2 8049  10.666   8.321  11.754 -0.0467  0.6003  0.0801
  312SOL     OW 8050   0.155   6.082   0.899  0.0675  0.0444 -0.1613
  312SOL    HW1 8051   0.208   6.005   0.878  2.9493  2.0737 -0.9341
  312SOL    HW2 8052   0.150   6.083   0.994  1.9560  0.0592 -0.0289
  313SOL     OW 8053   0.238   2.059   9.997 -0.7018 -0.1292  0.2868
  313SOL    HW1 8054   0.288   2.036  10.075 -1.7046  0.4270  1.1220
  313SOL    HW2 8055   0.147   2.065  10.027 -0.8800  2.0618 -0.4379
  314SOL     OW 8056  11.303  11.624   8.629 -0.3800  0.3595 -0.3844
  314SOL    HW1 8057  11.286  11.694   8.566  2.6942  1.8994  0.3121
  314SOL    HW2 8058  11.218  11.608   8.670 -1.2911  3.5437 -0.7368
  315SOL     OW 8059   9.116   8.212  10.865  0.1758  0.4633 -0.0149
  315SOL    HW1 8060   9.163   8.291  10.888 -0.5970  0.7538  0.6168
  315SOL    HW2 8061   9.024   8.231  10.885  0.0517 -0.8017  0.7593
  316SOL     OW 8062  10.381   0.513   9.057  0.3580  0.0651  0.7124
  316SOL    HW1 8063  10.382   0.417   9.051 -0.5748  0.0648  0.2691
  316SOL    HW2 8064  10.359   0.531   9.148 -1.4863 -0.1927  0.3635
  317SOL     OW 8065  10.012   8.581   8.947  0.0302 -0.4788 -0.4585
  317SOL    HW1 8066  10.076   8.537   8.890 -0.6418 -1.4302 -0.4968
  317SOL    HW2 8067  10.000   8.520   9.019 -0.3046  0.0231 -0.0929
  318SOL     OW 8068   5.416   8.541   3.350  0.0473  0.4464 -0.1450
  318SOL    HW1 8069   5.358   8.471   3.379 -0.4320  0.2917 -1.4001
  318SOL    HW2 8070   5.503   8.501   3.348 -0.0313  0.2526  0.3366
  319SOL     OW 8071   2.275   0.473   8.596 -0.1259 -0.5225 -0.4781
  319SOL    HW1 8072   2.363   0.459   8.631  0.4544 -0.1331 -1.7275
  319SOL    HW2 8073   2.218   0.423   8.655  0.3870  2.4653  2.8967
  320SOL     OW 8074   6.827   2.040   7.467  0.2682 -0.2406 -0.1124
  320SOL    HW1 8075   6.780   2.117   7.500 -0.5214 -0.2203 -1.2213
  320SOL    HW2 8076   6.831   1.981   7.542 -0.6247  0.1855  0.2981
  321SOL     OW 8077   5.426   4.323   7.787  0.1367  0.2157  0.4323
  321SOL    HW1 8078   5.453   4.231   7.786  0.8440  0.3894  1.6913
  321SOL    HW2 8079   5.429   4.348   7.879  1.9553  2.0499 -0.0628
  322SOL     OW 8080   9.052   4.306   7.166 -0.5411  0.2905 -0.1949
  322SOL    HW1 8081   9.100   4.348   7.096 -0.1212 -0.8663 -0.6273
  322SOL    HW2 8082   8.968   4.352   7.169 -0.3482  0.7144 -1.0838
  323SOL     OW 8083   9.886  11.919   2.029 -0.0756  0.4686 -0.0710
  323SOL    HW1 8084   9.955  11.895   1.967 -0.4220 -0.6575 -0.0589
  323SOL    HW2 8085   9.819  11.962   1.976 -0.6698 -1.0778 -0.6398
  324SOL     OW 8086   6.553   5.052   2.047  0.0718  0.7856 -0.3429
  324SOL    HW1 8087   6.618   5.016   1.988 -0.5054 -1.4588  0.2736
  324SOL    HW2 8088   6.489   5.095   1.990 -0.1889 -0.8590 -1.3631
  325SOL     OW 8089  11.485  11.957  12.012  0.4390 -0.2335  0.3509
  325SOL    HW1 8090  11.448  12.033  11.968  0.8751  0.2876  0.8498
  325SOL    HW2 8091  11.444  11.957  12.099  0.7675 -0.3051  0.5100
  326SOL     OW 8092   6.869   3.927  10.201 -0.4456  0.0570  0.3159
  326SOL    HW1 8093   6.870   3.916  10.296 -1.6965  1.2749  0.5048
  326SOL    HW2 8094   6.866   4.022  10.188  0.7982 -0.0481 -0.9754
  327SOL     OW 8095   0.177   8.111  11.484  0.6158 -0.0946 -0.4225
  327SOL    HW1 8096   0.188   8.042  11.418  1.1293 -0.2672 -0.1603
  327SOL    HW2 8097   0.106   8.164  11.451 -0.1234 -1.0344 -0.3937
  328SOL     OW 8098  11.841  10.111   8.552  0.5238 -0.1474  0.1827
  328SOL    HW1 8099  11.933  10.093   8.572  0.2084 -1.9876  0.1463
  328SOL    HW2 8100  11.794  10.035   8.586 -0.7002 -0.5191 -2.1101
  329SOL     OW 8101  10.897  10.357   6.831 -0.2262 -0.0422 -0.1054
  329SOL    HW1 8102  10.806  10.380   6.811 -0.0189  0.6287 -0.3270
  329SOL    HW2 8103  10.892  10.298   6.906 -0.8004  0.7230  0.4749
  330SOL     OW 8104   6.114   7.144   2.018  0.2925  0.5245 -0.0786
  330SOL    HW1 8105   6.054   7.125   2.091  1.5229 -1.7640  0.4214
  330SOL    HW2 8106   6.107   7.068   1.961  1.6694  0.8662 -0.7474
  331SOL     OW 8107   6.565   0.550   0.334 -0.2221 -0.3889 -0.4805
  331SOL    HW1 8108   6.491   0.597   0.375 -0.4702  0.4839 -1.8462
  331SOL    HW2 8109   6.619   0.522   0.408 -1.2077  0.1623  0.4938
  332SOL     OW 8110   5.644   3.183  10.794  0.5759  0.6597  0.2493
  332SOL    HW1 8111   5.553   3.168  10.769  0.6258 -0.7336  0.8231
  332SOL    HW2 8112   5.643   3.186  10.890  1.4070 -1.6212  0.3922
  333SOL     OW 8113   5.487  10.105   7.109 -0.2002  0.0090  0.4471
  333SOL    HW1 8114   5.540  10.166   7.057 -0.4807  0.0076  0.1583
  333SOL    HW2 8115   5.406  10.095   7.059 -0.8513  0.6935  1.3100
  334SOL     OW 8116  11.406  10.054   6.726 -0.3885  0.7669 -0.1400
  334SOL    HW1 8117  11.321  10.013   6.744 -1.1780  2.2238 -0.3884
  334SOL    HW2 8118  11.389  10.111   6.651  1.2223 -0.1133 -1.2296
  335SOL     OW 8119   9.950  11.919  10.294 -0.1857  0.4335 -0.2822
  335SOL    HW1 8120  10.044  11.900  10.290 -0.1958  0.4610 -0.8910
  335SOL    HW2 8121   9.918  11.893  10.208 -0.6022  1.1018 -0.3374
  336SOL     OW 8122   8.424   2.218   5.764 -0.1104  0.4623  0.1868
  336SOL    HW1 8123   8.363   2.248   5.696  0.4739 -0.5513 -0.8290
  336SOL    HW2 8124   8.505   2.201   5.717  1.2280  2.4232  1.6075
  337SOL     OW 8125   0.319   8.567   5.194  0.5649  0.5746 -0.1233
  337SOL    HW1 8126   0.229   8.577   5.225  0.2161 -0.1940 -0.8262
  337SOL    HW2 8127   0.326   8.474   5.172  0.8361  1.0231 -2.1076
  338SOL     OW 8128   1.838   0.807  10.077  0.2563 -0.0485  0.3132
  338SOL    HW1 8129   1.827   0.803  10.172  0.6518 -1.3683  0.3267
  338SOL    HW2 8130   1.750   0.823  10.043  0.4508  3.0085  0.9646
  339SOL     OW 8131   0.512   4.432   7.031 -0.0507  0.5086  0.0184
  339SOL    HW1 8132   0.597   4.420   7.073 -0.2988 -0.3034  0.3067
  339SOL    HW2 8133   0.515   4.521   6.996  0.9833  0.4297 -0.1265
  340SOL     OW 8134   6.613   6.878   4.882  0.0505  0.1623 -0.1548
  340SOL    HW1 8135   6.588   6.788   4.903  0.7493 -0.0325 -0.1005
  340SOL    HW2 8136   6.693   6.869   4.830  0.3382  0.7592  0.1645
  341SOL     OW 8137   1.920   4.559   5.656 -0.0171  0.1188  0.0914
  341SOL    HW1 8138   1.842   4.511   5.629 -0.4477  0.5660  0.5230
  341SOL    HW2 8139   1.987   4.492   5.669 -0.8697 -0.4719  1.5876
  342SOL     OW 8140   2.961  12.007   1.388  0.0625  0.0167  0.6952
  342SOL    HW1 8141   2.900  11.976   1.321  1.7495  2.8703 -2.5014
  342SOL    HW2 8142   2.910  12.069   1.441 -0.7929 -0.7243  0.7620
  343SOL     OW 8143   6.090  11.576   9.179  0.3233 -0.4066  0.0948
  343SOL    HW1 8144   6.108  11.519   9.254 -0.8125  0.0860  0.7530
  343SOL    HW2 8145   6.046  11.519   9.116 -3.4396  0.2320  1.8579
  344SOL     OW 8146  10.280   4.795   6.186  0.4087 -0.4387 -0.1777
  344SOL    HW1 8147  10.350   4.736   6.157 -1.0238 -1.6377 -1.3933
  344SOL    HW2 8148  10.202   4.739   6.192 -1.4981  1.5815 -3.2612
  345SOL     OW 8149   0.280   8.947  11.742  0.4438  0.0832 -0.9070
  345SOL    HW1 8150   0.244   8.964  11.829 -0.9195 -0.5798 -1.3198
  345SOL    HW2 8151   0.374   8.935  11.757  0.5849  2.0640  0.1790
  346SOL     OW 8152  10.854   9.768   4.814 -0.4970 -0.4311  0.2446
  346SOL    HW1 8153  10.878   9.807   4.730  0.2375  1.4968  1.2905
  346SOL    HW2 8154  10.926   9.791   4.873 -2.4287  1.0224  2.2065
  347SOL     OW 8155   9.192   7.928   3.337 -0.2341  0.1915  0.5357
  347SOL    HW1 8156   9.139   7.912   3.259 -1.5250 -1.1401  1.6231
  347SOL    HW2 8157   9.235   7.844   3.355  2.1162  1.1614 -0.1566
  348SOL     OW 8158  10.166  12.400  10.994  0.2156  0.3565  0.0947
  348SOL    HW1 8159  10.196  12.369  10.909  1.8930 -0.8408  1.0785
  348SOL    HW2 8160  10.072  12.382  10.994 -0.3197  2.5055 -2.3528
  349SOL     OW 8161   0.048   9.826   9.724 -0.5102 -0.4193 -0.8574
  349SOL    HW1 8162  -0.027   9.884   9.737  0.4274  0.8158 -0.7257
  349SOL    HW2 8163   0.022   9.743   9.762 -2.5752 -0.6595 -2.5816
  350SOL     OW 8164   6.079   8.260  10.062  0.5593  0.4553  0.7473
  350SOL    HW1 8165   6.038   8.299   9.985  0.7581 -0.9528 -0.1064
  350SOL    HW2 8166   6.170   8.287  10.057  0.7674 -0.3299 -0.0219
  351SOL     OW 8167   1.874   8.913   3.437 -0.1679 -0.1838 -0.1075
  351SOL    HW1 8168   1.854   8.827   3.399 -0.0191 -0.6319  0.7963
  351SOL    HW2 8169   1.793   8.963   3.427 -0.7208 -0.9141  0.6442
  352SOL     OW 8170   7.795  11.372   4.169  0.2201 -0.1175 -0.2930
  352SOL    HW1 8171   7.797  11.468   4.170 -1.2641 -0.0698  0.2802
  352SOL    HW2 8172   7.770  11.348   4.258  0.8722 -1.0684 -0.3479
  353SOL     OW 8173   8.390   9.001   2.873  0.7954  0.5663  0.3092
  353SOL    HW1 8174   8.394   8.906   2.863 -0.2722  0.3987  1.3076
  353SOL    HW2 8175   8.472   9.023   2.917  0.7896  0.0349  0.5932
  354SOL     OW 8176   6.610   7.161   7.491  0.0980 -0.5442  0.0465
  354SOL    HW1 8177   6.579   7.131   7.576 -0.1585  0.0898  0.1829
  354SOL    HW2 8178   6.706   7.164   7.500  0.0711 -0.4819  0.3114
  355SOL     OW 8179   1.911   8.083   4.415 -1.2427  1.0805  0.2947
  355SOL    HW1 8180   1.847   8.154   4.415 -0.1812  2.1155 -1.5206
  355SOL    HW2 8181   1.972   8.106   4.345  0.4715 -0.4486  1.1986
  356SOL     OW 8182  11.050   8.602   0.702 -0.5932  0.0287 -0.6828
  356SOL    HW1 8183  11.139   8.622   0.671 -0.3824  0.2491  0.0526
  356SOL    HW2 8184  11.053   8.618   0.796 -1.0286 -1.3750 -0.4105
  357SOL     OW 8185   0.778   2.675   5.814 -0.3031 -0.3938 -0.0980
  357SOL    HW1 8186   0.710   2.730   5.853  0.1294  0.2928 -0.3020
  357SOL    HW2 8187   0.751   2.586   5.836 -2.6749 -0.3464 -2.3447
  358SOL     OW 8188   1.865   6.114   2.316  0.4221  0.1949  0.2608
  358SOL    HW1 8189   1.866   6.049   2.246  2.6205  1.0675 -0.6398
  358SOL    HW2 8190   1.782   6.161   2.305  0.7406  0.3553 -1.8572
  359SOL     OW 8191   5.457   3.185   2.550  0.5085 -0.2786 -0.0952
  359SOL    HW1 8192   5.462   3.144   2.636  0.4213  0.6465  0.3630
  359SOL    HW2 8193   5.370   3.226   2.548 -0.3609 -2.0337 -1.4521
  360SOL     OW 8194   0.893   7.354   8.688  0.1378  0.0674  0.2398
  360SOL    HW1 8195   0.926   7.291   8.752 -2.1756 -0.6147  0.8797
  360SOL    HW2 8196   0.863   7.300   8.615  0.7318  0.6652 -0.4527
  361SOL     OW 8197   5.186   7.611   7.718  0.2498 -0.4926 -0.0818
  361SOL    HW1 8198   5.211   7.676   7.785 -1.9139 -0.0618  0.3601
  361SOL    HW2 8199   5.270   7.574   7.690  1.4860  1.6028  0.5429
  362SOL     OW 8200  12.170   1.942   4.214 -0.2794  0.1252 -0.2030
  362SOL    HW1 8201  12.195   1.901   4.297  2.9744 -0.4329 -1.2953
  362SOL    HW2 8202  12.107   1.881   4.176 -0.6728 -0.3731  1.1810
  363SOL     OW 8203  10.769   0.331  12.730 -0.3717 -0.0247 -0.0344
  363SOL    HW1 8204  10.779   0.339  12.635 -0.6270  1.3003  0.0387
  363SOL    HW2 8205  10.711   0.403  12.755 -1.6550 -1.3257  0.9212
  364SOL     OW 8206   9.670  12.322   9.489  0.4336 -0.2173 -0.3054
  364SOL    HW1 8207   9.649  12.410   9.522 -2.1829 -0.8594 -0.0440
  364SOL    HW2 8208   9.690  12.336   9.397 -3.4441  0.3822 -1.2241
  365SOL     OW 8209   4.037   3.434   6.795  0.1052 -0.3214 -0.0640
  365SOL    HW1 8210   4.044   3.391   6.709 -1.2820 -0.7360  0.0014
  365SOL    HW2 8211   4.041   3.528   6.775  1.6644 -0.4217 -0.3611
  366SOL     OW 8212  12.172  11.639   4.648 -0.3232 -0.2587 -0.3995
  366SOL    HW1 8213  12.253  11.605   4.610 -0.7998 -0.7450 -0.9968
  366SOL    HW2 8214  12.122  11.670   4.572 -0.8393 -0.2707 -0.0647
  367SOL     OW 8215  10.818   3.650   8.460 -0.3982 -0.3006  0.2221
  367SOL    HW1 8216  10.836   3.725   8.403  0.9765 -0.0262  0.9881
  367SOL    HW2 8217  10.786   3.689   8.542  1.2169 -0.4661  0.9595
  368SOL     OW 8218   8.821   0.675   0.765  0.1296  0.0195  0.3953
  368SOL    HW1 8219   8.878   0.683   0.689 -0.9306 -0.2016 -0.4394
  368SOL    HW2 8220   8.737   0.711   0.737 -0.1525  0.3638  1.6082
  369SOL     OW 8221   1.034   9.423   5.889  0.3942  0.7046 -0.3173
  369SOL    HW1 8222   0.977   9.444   5.964  4.0324 -0.9756  3.2868
  369SOL    HW2 8223   0.991   9.348   5.847 -1.6192  1.5099  0.1649
  370SOL     OW 8224  10.904   0.882   5.264 -0.1694  0.0592  0.1072
  370SOL    HW1 8225  10.836   0.886   5.197 -0.6055  1.8906  0.6069
  370SOL    HW2 8226  10.985   0.871   5.215 -0.3895  2.1496 -0.8406
  371SOL     OW 8227   0.437  12.854   8.265 -0.0691  0.0786  0.2198
  371SOL    HW1 8228   0.372  12.881   8.200 -0.9136  0.4659  1.2043
  371SOL    HW2 8229   0.480  12.778   8.225 -1.1950 -0.2543 -0.4092
  372SOL     OW 8230  11.251   8.165   8.984 -0.0780 -0.5758 -0.1774
  372SOL    HW1 8231  11.173   8.220   8.985 -0.4532 -1.1151  1.4102
  372SOL    HW2 8232  11.239   8.108   8.908 -0.8713 -0.1564 -0.3727
  373SOL     OW 8233   8.470   2.402   3.034  0.1542  0.2713  0.8475
  373SOL    HW1 8234   8.490   2.444   3.118  0.6439 -0.8974  1.3374
  373SOL    HW2 8235   8.450   2.311   3.057 -1.1103  0.2651 -0.1587
  374SOL     OW 8236   8.238   1.332   7.456  0.0586 -0.1363 -0.0650
  374SOL    HW1 8237   8.249   1.254   7.401  2.1823 -1.6629  2.3167
  374SOL    HW2 8238   8.144   1.341   7.466 -0.3406 -0.7806 -2.5188
  375SOL     OW 8239   2.645   2.851  10.776 -0.0537 -0.2188  0.3316
  375SOL    HW1 8240   2.635   2.913  10.704 -0.0576 -1.9093 -1.2072
  375SOL    HW2 8241   2.559   2.811  10.786  0.4785 -1.6423 -0.3678
  376SOL     OW 8242   1.092   3.104   2.510 -0.7443 -0.6986  0.3486
  376SOL    HW1 8243   1.033   3.175   2.536  1.1917  0.3744  2.1134
  376SOL    HW2 8244   1.110   3.057   2.592  2.4895  0.3658  0.3920
  377SOL     OW 8245   4.275   3.982   0.912  0.2061  0.1832  0.3430
  377SOL    HW1 8246   4.344   3.990   0.846  0.7865 -0.4719  0.8649
  377SOL    HW2 8247   4.197   4.019   0.869  0.5968 -0.1232 -0.6677
  378SOL     OW 8248  11.610   1.259   4.331 -0.2570 -0.1768  0.0300
  378SOL    HW1 8249  11.628   1.334   4.274 -1.0768  0.5560  0.6910
  378SOL    HW2 8250  11.580   1.190   4.273  3.4385 -1.1396 -1.0223
  379SOL     OW 8251   7.304   8.658  11.780 -0.1239 -0.6311 -0.3141
  379SOL    HW1 8252   7.373   8.661  11.714  0.0707 -0.4690 -0.1022
  379SOL    HW2 8253   7.349   8.634  11.861 -0.3096 -0.4857 -0.1679
  380SOL     OW 8254   2.254   4.689   6.331 -0.2026 -0.2197  0.4626
  380SOL    HW1 8255   2.335   4.703   6.382 -0.9449 -1.1093  1.9498
  380SOL    HW2 8256   2.268   4.606   6.286 -0.1754 -0.2430  0.5133
  381SOL     OW 8257  12.421  12.443   3.739 -0.2233  0.0044  0.8934
  381SOL    HW1 8258  12.360  12.413   3.807 -0.8821  1.5188  1.0172
  381SOL    HW2 8259  12.497  12.385   3.748 -2.2860 -3.1808 -0.4727
  382SOL     OW 8260   3.888   1.962  12.398  0.4281 -0.2775  0.1027
  382SOL    HW1 8261   3.906   1.884  12.345 -1.0862  0.6283 -1.8511
  382SOL    HW2 8262   3.908   2.036  12.341 -1.7620  0.7343  0.5323
  383SOL     OW 8263  11.551   6.117  12.476  0.5514 -0.0574 -0.3157
  383SOL    HW1 8264  11.565   6.156  12.562 -0.8199  0.6275 -0.3652
  383SOL    HW2 8265  11.581   6.027  12.485 -1.1009 -0.5108  1.4163
  384SOL     OW 8266   3.635  10.236   4.731  0.3433 -0.4424 -0.0291
  384SOL    HW1 8267   3.699  10.181   4.685  3.2488  2.2102  0.5537
  384SOL    HW2 8268   3.668  10.241   4.820 -1.0942  0.4893  0.4756
  385SOL     OW 8269  10.999   0.483   7.128  0.3342  0.0208 -0.1193
  385SOL    HW1 8270  11.000   0.532   7.046 -0.6634  0.2300 -0.0118
  385SOL    HW2 8271  10.931   0.416   7.115  1.0872 -0.7954  0.0507
  386SOL     OW 8272   8.194  11.320  10.981 -0.8295 -0.1515 -0.2132
  386SOL    HW1 8273   8.153  11.304  10.895 -0.9312 -0.7525 -0.0592
  386SOL    HW2 8274   8.155  11.254  11.038  0.5603 -0.9233 -0.1233
  387SOL     OW 8275   7.819  12.926   2.640 -0.2640 -0.4633  0.0038
  387SOL    HW1 8276   7.861  12.981   2.706 -1.0927 -1.4872  1.4583
  387SOL    HW2 8277   7.746  12.884   2.687 -3.2356  1.5289 -2.4466
  388SOL     OW 8278   5.969   3.696  10.284 -0.2796 -0.3222 -0.4360
  388SOL    HW1 8279   5.937   3.712  10.373  1.3521 -2.7565  0.6868
  388SOL    HW2 8280   5.894   3.656  10.239 -1.9032  3.0485 -1.0134
  389SOL     OW 8281   0.489   1.357   1.950 -0.1941 -0.3332  0.2909
  389SOL    HW1 8282   0.528   1.289   1.896  0.9083  0.5360 -0.0583
  389SOL    HW2 8283   0.526   1.342   2.037 -0.8910 -0.8980  0.4948
  390SOL     OW 8284   1.090   0.081   0.803  0.1238  0.3848  0.4020
  390SOL    HW1 8285   1.150   0.018   0.843  0.2466  0.2640  0.0311
  390SOL    HW2 8286   1.140   0.163   0.800  1.0972 -0.2069 -1.8717
  391SOL     OW 8287   4.448   0.530   1.181 -0.2096  0.0623  0.0335
  391SOL    HW1 8288   4.378   0.545   1.117  1.3675  2.3474 -1.3258
  391SOL    HW2 8289   4.460   0.435   1.182 -2.5374 -0.2909 -0.5284
  392SOL     OW 8290   4.148  10.684  10.320  0.1687 -0.5240 -0.0622
  392SOL    HW1 8291   4.213  10.737  10.274  0.0740  0.7457  1.2222
  392SOL    HW2 8292   4.132  10.731  10.402 -0.4493 -2.1787  0.8015
  393SOL     OW 8293   8.473   7.800  11.346  0.6881 -0.3689  0.2456
  393SOL    HW1 8294   8.511   7.728  11.295 -1.2588 -1.2778 -0.0014
  393SOL    HW2 8295   8.515   7.793  11.431  1.4199 -1.0427 -0.1534
  394SOL     OW 8296  10.707   0.279  10.257  0.2893 -0.8535 -0.0341
  394SOL    HW1 8297  10.740   0.195  10.226  1.2032 -0.5444  0.0653
  394SOL    HW2 8298  10.701   0.269  10.352  1.5662 -0.4291  0.1108
  395SOL     OW 8299   9.770   3.007  11.020 -0.2856 -0.1532  0.6063
  395SOL    HW1 8300   9.744   2.917  11.044  1.0949  0.1965  4.0367
  395SOL    HW2 8301   9.696   3.061  11.048 -0.0773 -0.0156  0.8947
  396SOL     OW 8302   6.927   3.229   1.196  0.1828  0.1776 -0.0791
  396SOL    HW1 8303   6.970   3.295   1.142  0.3599  0.4268  0.3599
  396SOL    HW2 8304   6.998   3.187   1.244 -0.0601  0.6406  0.7012
  397SOL     OW 8305   3.080  12.755   7.594  0.4838 -0.0847  0.0397
  397SOL    HW1 8306   3.042  12.772   7.681  1.6766 -1.3125  0.8520
  397SOL    HW2 8307   3.066  12.836   7.545  1.0740  1.1832  1.8679
  398SOL     OW 8308  11.793   5.250   7.302  0.2770 -0.6941 -0.5750
  398SOL    HW1 8309  11.796   5.241   7.397 -0.3736 -1.1327 -0.5876
  398SOL    HW2 8310  11.700   5.245   7.280  0.5336 -2.9217 -1.4185
  399SOL     OW 8311   0.070   1.180   4.644 -0.7572 -0.0457  0.2601
  399SOL    HW1 8312   0.104   1.095   4.615  0.3244  0.2373  0.6682
  399SOL    HW2 8313  -0.010   1.192   4.593  0.1816 -0.3592 -1.3483
  400SOL     OW 8314   2.398   6.684   4.678  0.0691  0.4286 -0.2217
  400SOL    HW1 8315   2.482   6.680   4.632  1.1357  0.9145  1.5767
  400SOL    HW2 8316   2.333   6.668   4.610  1.7075 -3.0938 -1.2190
  401SOL     OW 8317   8.191  12.625  12.392  0.1790 -0.2811  0.0555
  401SOL    HW1 8318   8.096  12.615  12.402  0.2592  0.3008  1.8433
  401SOL    HW2 8319   8.213  12.570  12.317 -1.6346 -0.0160 -0.7262
  402SOL     OW 8320   5.033   1.048   2.773  0.3250 -0.4994  0.1329
  402SOL    HW1 8321   4.988   1.131   2.786  0.2266  0.0349 -2.8034
  402SOL    HW2 8322   5.108   1.052   2.831 -1.0496  0.4855  1.9424
  403SOL     OW 8323   9.692  10.691   0.059  0.1269 -0.1314  0.8244
  403SOL    HW1 8324   9.619  10.739   0.018  0.6253  0.2523  0.3618
  403SOL    HW2 8325   9.684  10.710   0.152  0.2764  0.8082  0.6542
  404SOL     OW 8326   5.924   5.052  12.338  0.2474 -0.2198  0.1219
  404SOL    HW1 8327   5.888   4.970  12.371  0.0391  0.0846  0.6631
  404SOL    HW2 8328   6.018   5.036  12.330  0.0207 -0.9994 -1.2484
  405SOL     OW 8329   7.790   9.927   9.539 -0.1036 -0.6719  0.3847
  405SOL    HW1 8330   7.756  10.007   9.498 -1.5286 -1.5292 -0.1913
  405SOL    HW2 8331   7.867   9.956   9.588  0.0284  0.8708 -0.6554
  406SOL     OW 8332   0.616   5.605   3.049  0.3977 -0.1499  0.1124
  406SOL    HW1 8333   0.676   5.613   3.124  0.2666 -1.3895  0.3824
  406SOL    HW2 8334   0.608   5.510   3.036 -1.0004  0.0080 -0.3236
  407SOL     OW 8335   4.869   0.207  11.062  0.1855 -0.2964 -0.5098
  407SOL    HW1 8336   4.960   0.220  11.035 -0.1123 -0.5632 -1.6889
  407SOL    HW2 8337   4.818   0.221  10.982 -0.7745 -0.5825  0.0397
  408SOL     OW 8338   4.741   2.392  12.478  0.5880 -0.1488 -0.2494
  408SOL    HW1 8339   4.664   2.337  12.464  0.7454  0.1353 -2.8796
  408SOL    HW2 8340   4.814   2.330  12.481  0.4068 -0.3223  0.7882
  409SOL     OW 8341  12.040  11.601   1.507 -0.1262 -0.1412 -0.3890
  409SOL    HW1 8342  12.058  11.691   1.533 -0.3843  0.3228 -1.7133
  409SOL    HW2 8343  11.955  11.605   1.463 -0.1893 -1.0517 -0.3688
  410SOL     OW 8344   9.142  11.855   3.071  0.0745 -0.2889  0.0285
  410SOL    HW1 8345   9.094  11.912   3.130 -0.0709  1.5285 -1.7223
  410SOL    HW2 8346   9.075  11.806   3.023 -0.0464  1.2216 -1.4265
  411SOL     OW 8347   6.209   6.881   1.053 -0.6725  0.4102  0.0095
  411SOL    HW1 8348   6.206   6.976   1.067 -0.6031  0.3653  0.3157
  411SOL    HW2 8349   6.193   6.843   1.139  0.6600  0.1409  0.1560
  412SOL     OW 8350   8.336  10.274  10.967  0.3427 -0.0570 -0.2397
  412SOL    HW1 8351   8.407  10.287  11.030  0.9742 -1.3374 -0.6445
  412SOL    HW2 8352   8.371  10.209  10.906 -2.0711 -2.7700  1.0347
  413SOL     OW 8353   7.340   3.697  10.941 -0.3680  0.9872  0.2174
  413SOL    HW1 8354   7.428   3.733  10.928 -0.0888 -0.4152 -2.5397
  413SOL    HW2 8355   7.284   3.751  10.884 -1.5490  2.3575  2.4999
  414SOL     OW 8356   1.810   5.251  10.832  0.5648 -0.1232 -0.5112
  414SOL    HW1 8357   1.831   5.280  10.921  0.6455  2.4783 -1.3050
  414SOL    HW2 8358   1.731   5.198  10.843 -1.4263  2.8242  0.8524
  415SOL     OW 8359   8.097   2.589   4.370  0.0683 -0.2329  0.3636
  415SOL    HW1 8360   8.011   2.607   4.331  0.2806  0.5710  0.2405
  415SOL    HW2 8361   8.077   2.548   4.454 -0.4780  0.7529  0.7384
  416SOL     OW 8362   5.051   6.866  12.690  0.0425 -0.4639  0.4383
  416SOL    HW1 8363   5.071   6.952  12.728 -1.7622 -0.2501  1.0141
  416SOL    HW2 8364   5.016   6.815  12.763 -0.4076 -1.1594 -0.2475
  417SOL     OW 8365   7.778   2.792   8.049 -0.3830 -0.7308  0.3221
  417SOL    HW1 8366   7.783   2.764   8.140  2.8781  0.5720  0.6958
  417SOL    HW2 8367   7.868   2.785   8.017 -0.4110  3.3857 -1.2800
  418SOL     OW 8368   9.461   6.011   7.038  0.8241  0.1289 -0.3517
  418SOL    HW1 8369   9.425   6.099   7.055  0.1522  0.0711 -1.4188
  418SOL    HW2 8370   9.552   6.016   7.069  1.1820  1.5920 -1.5486
  419SOL     OW 8371   2.157   6.777   0.468 -0.0299 -0.3806 -0.4257
  419SOL    HW1 8372   2.213   6.812   0.536  0.5653  0.1541 -1.1762
  419SOL    HW2 8373   2.198   6.694   0.443 -1.5462 -1.8076  1.4895
  420SOL     OW 8374   3.178   2.681   8.834  0.3152  0.3563 -0.0658
  420SOL    HW1 8375   3.256   2.626   8.834 -0.0254 -0.1354 -0.7769
  420SOL    HW2 8376   3.105   2.621   8.850 -0.0452  0.6217 -0.6723
  421SOL     OW 8377   5.374   0.158  11.265  0.0483  0.0239  0.1281
  421SOL    HW1 8378   5.467   0.165  11.283  0.0115  0.6663  0.0797
  421SOL    HW2 8379   5.338   0.111  11.341 -0.0097  2.1555  1.5212
  422SOL     OW 8380   1.341   8.028   6.985  0.2609  0.2172 -0.2911
  422SOL    HW1 8381   1.391   8.061   7.060 -0.2560 -0.8074  0.5343
  422SOL    HW2 8382   1.314   8.106   6.938  2.6682  0.8274 -0.8067
  423SOL     OW 8383   5.650   0.382   9.525 -0.6755 -0.2816  0.1925
  423SOL    HW1 8384   5.705   0.381   9.603  0.4778  0.2261 -0.5803
  423SOL    HW2 8385   5.655   0.472   9.492 -1.7193 -0.3066 -0.0819
  424SOL     OW 8386   8.284   5.860   8.575 -0.1518 -0.0054  0.2436
  424SOL    HW1 8387   8.316   5.902   8.496 -0.1058  0.8521  0.7069
  424SOL    HW2 8388   8.191   5.842   8.557  0.5518 -2.7633 -1.2123
  425SOL     OW 8389   2.176   8.023  11.876  0.4568 -0.1440  0.0747
  425SOL    HW1 8390   2.130   7.948  11.838  0.4976  0.1302 -0.5357
  425SOL    HW2 8391   2.251   8.035  11.819  1.5746 -0.8840  1.3399
  426SOL     OW 8392   4.629   0.375  10.269 -0.1419 -0.5081 -0.1632
  426SOL    HW1 8393   4.648   0.462  10.303  1.7004 -1.0002  0.1668
  426SOL    HW2 8394   4.573   0.390  10.193 -2.1952  0.7648  1.4975
  427SOL     OW 8395  12.404   0.383   8.798 -0.3781  0.2456 -0.4681
  427SOL    HW1 8396  12.420   0.424   8.714 -2.3265 -0.7029 -1.3671
  427SOL    HW2 8397  12.443   0.296   8.791  2.3987  1.2736  0.8844
  428SOL     OW 8398  10.987  12.875   6.472  0.9332  0.0038 -0.3178
  428SOL    HW1 8399  11.064  12.931   6.461  0.7055  0.3658 -0.0675
  428SOL    HW2 8400  10.960  12.890   6.563  0.7851 -0.4023 -0.2943
  429SOL     OW 8401   3.535   7.362   5.514  0.3084  0.8107 -0.1939
  429SOL    HW1 8402   3.510   7.422   5.443 -0.7718  1.1155  0.4154
  429SOL    HW2 8403   3.452   7.324   5.543  0.8195  0.1635  0.4501
  430SOL     OW 8404   2.802   8.973   6.428  0.3319 -0.1246 -0.0848
  430SOL    HW1 8405   2.865   8.955   6.498  0.3619 -1.3455 -0.4041
  430SOL    HW2 8406   2.834   8.923   6.353 -1.0530 -0.8650 -0.2240
  431SOL     OW 8407   6.482  12.502   3.497 -0.3103 -0.0580 -0.0415
  431SOL    HW1 8408   6.540  12.573   3.525 -0.8836  0.3960  0.0196
  431SOL    HW2 8409   6.532  12.422   3.511 -0.6846  0.0900  2.6475
  432SOL     OW 8410  11.810   9.252   7.712 -0.1134 -0.2778  0.4982
  432SOL    HW1 8411  11.843   9.338   7.685  1.2443 -0.4447  1.5315
  432SOL    HW2 8412  11.850   9.237   7.797  0.1585 -2.2049  0.0674
  433SOL     OW 8413  12.256   9.371  11.056 -0.3345  0.4170  0.0301
  433SOL    HW1 8414  12.290   9.397  11.142 -0.5384  0.6580  0.0378
  433SOL    HW2 8415  12.293   9.435  10.995 -1.6750  1.3889  0.1882
  434SOL     OW 8416   6.575   0.463   5.183  0.4140  0.1007 -0.0165
  434SOL    HW1 8417   6.584   0.531   5.250 -0.4297  1.2523 -1.0297
  434SOL    HW2 8418   6.517   0.501   5.118  1.8169 -0.6867 -1.8014
  435SOL     OW 8419   2.662   9.094  10.712  0.2735  0.0191  0.2374
  435SOL    HW1 8420   2.754   9.114  10.693  0.0117 -0.1605 -1.4004
  435SOL    HW2 8421   2.618   9.179  10.710  0.4881  0.1961  1.7504
  436SOL     OW 8422   4.351   1.022   7.840 -0.3202 -0.3672  0.2664
  436SOL    HW1 8423   4.422   1.084   7.831  0.6821 -1.5015  0.1069
  436SOL    HW2 8424   4.347   1.003   7.934 -0.0403 -0.7055  0.2136
  437SOL     OW 8425   2.812  10.145   8.502  0.5034  0.0085  0.3895
  437SOL    HW1 8426   2.799  10.228   8.456  2.3615  0.0167 -0.2127
  437SOL    HW2 8427   2.855  10.170   8.584 -1.4575 -0.1457  1.5260
  438SOL     OW 8428   9.680   2.551   5.388  0.0798  0.0051  0.1287
  438SOL    HW1 8429   9.631   2.523   5.311 -0.7043  0.6127  0.3997
  438SOL    HW2 8430   9.618   2.542   5.461  0.9982 -1.1757  0.8098
  439SOL     OW 8431   6.814   2.263   6.458 -0.5238  0.2600 -0.1423
  439SOL    HW1 8432   6.879   2.197   6.481 -1.0983 -0.9398 -1.7284
  439SOL    HW2 8433   6.851   2.307   6.382 -1.8182 -0.9791 -1.5762
  440SOL     OW 8434   3.590   2.876   5.338  0.0145  0.4827 -0.4765
  440SOL    HW1 8435   3.507   2.907   5.374 -0.6605 -1.1797 -0.5372
  440SOL    HW2 8436   3.644   2.856   5.415 -0.9089 -1.6951 -0.3389
  441SOL     OW 8437   8.928   8.643   8.597 -0.0497 -0.4782  0.6976
  441SOL    HW1 8438   8.973   8.594   8.528  1.7669  1.4248  0.4345
  441SOL    HW2 8439   8.951   8.596   8.678  0.3184 -0.9810  0.3111
  442SOL     OW 8440   8.175   6.436   9.474  0.3490 -0.1603 -0.2288
  442SOL    HW1 8441   8.126   6.422   9.393 -2.6177  0.0216  1.3922
  442SOL    HW2 8442   8.129   6.508   9.518  0.1089 -1.9586  2.7715
  443SOL     OW 8443   4.511   6.653   7.327  0.5272 -0.4841  0.3432
  443SOL    HW1 8444   4.473   6.733   7.361 -0.3804 -0.2714 -1.0970
  443SOL    HW2 8445   4.602   6.655   7.357  0.6480  1.3125 -0.0326
  444SOL     OW 8446   4.824   7.283   1.010 -0.2917 -0.1683  0.0779
  444SOL    HW1 8447   4.916   7.308   1.000  0.0351 -1.7041 -1.1460
  444SOL    HW2 8448   4.814   7.267   1.104  0.8691 -0.5845  0.1556
  445SOL     OW 8449   6.403   3.520  10.019 -0.0370  0.0955  0.7544
  445SOL    HW1 8450   6.424   3.427  10.028 -0.6851 -0.1195  0.1207
  445SOL    HW2 8451   6.355   3.541  10.099 -0.7831 -0.3744  0.4373
  446SOL     OW 8452   5.133   0.834   8.595  0.2892  0.5851  0.0134
  446SOL    HW1 8453   5.147   0.836   8.690  1.6699  0.4249 -0.1709
  446SOL    HW2 8454   5.220   0.823   8.558 -0.2776  0.2453 -1.2723
  447SOL     OW 8455   7.025   9.915  11.059 -0.3621  0.5861  0.0326
  447SOL    HW1 8456   7.016   9.849  11.129  1.4210 -0.5800 -0.7621
  447SOL    HW2 8457   7.112   9.900  11.024 -0.2105  2.9224 -0.7124
  448SOL     OW 8458   2.572   0.496   5.747  0.2479  0.2470 -0.0051
  448SOL    HW1 8459   2.486   0.462   5.776 -0.3532  0.4684 -1.4669
  448SOL    HW2 8460   2.627   0.490   5.825 -0.4845 -1.9209  0.4122
  449SOL     OW 8461   3.269   6.104   6.819  0.4623 -0.1802 -0.4045
  449SOL    HW1 8462   3.226   6.021   6.801 -0.5010  0.0135  0.8859
  449SOL    HW2 8463   3.204   6.156   6.867  1.6675  0.6067  0.4606
  450SOL     OW 8464   0.592  12.608  12.767 -0.4277  0.3927  0.5582
  450SOL    HW1 8465   0.591  12.700  12.794  0.2994  0.4735  0.3278
  450SOL    HW2 8466   0.651  12.605  12.692  0.1937 -0.3935  1.0557
  451SOL     OW 8467   7.648   0.866  12.787 -0.0740  0.6150  0.0842
  451SOL    HW1 8468   7.680   0.957  12.786  0.6023  0.3819  0.0031
  451SOL    HW2 8469   7.705   0.820  12.725 -0.5327  0.1710 -0.0135
  452SOL     OW 8470  10.141  11.736   2.290  0.3419  0.3648 -0.0339
  452SOL    HW1 8471  10.118  11.688   2.211 -2.4942  0.7620  0.4515
  452SOL    HW2 8472  10.161  11.668   2.355 -0.0815 -0.0461 -0.3313
  453SOL     OW 8473   0.389  11.095   3.128 -0.1673  0.1614 -0.4712
  453SOL    HW1 8474   0.451  11.067   3.061  0.7183  2.5015 -0.7374
  453SOL    HW2 8475   0.305  11.100   3.082  0.1804  0.4923 -1.0839
  454SOL     OW 8476   9.561   3.736   5.465  0.1931 -0.6269  0.1602
  454SOL    HW1 8477   9.622   3.685   5.411 -2.0597 -1.6973 -1.5470
  454SOL    HW2 8478   9.495   3.767   5.403 -1.5206 -0.3389  2.0283
  455SOL     OW 8479  12.487   6.625   0.489 -0.2908 -0.4049  0.5503
  455SOL    HW1 8480  12.530   6.700   0.448  2.5520 -0.7686  2.5873
  455SOL    HW2 8481  12.396   6.629   0.458  0.1563  2.9003 -0.6770
  456SOL     OW 8482   3.083  11.277   9.311 -0.1612 -0.5293 -0.4201
  456SOL    HW1 8483   3.146  11.289   9.382 -1.2207 -0.8394  0.6056
  456SOL    HW2 8484   3.075  11.182   9.302  0.1516 -0.4920 -1.1283
  457SOL     OW 8485   8.103  10.144   7.145  0.0233  0.0178  0.4215
  457SOL    HW1 8486   8.120  10.073   7.207 -1.5750 -3.2280 -2.4762
  457SOL    HW2 8487   8.176  10.139   7.083 -0.6480  0.1357 -0.3979
  458SOL     OW 8488   7.978   7.199   1.181  0.0817 -0.2302  0.3409
  458SOL    HW1 8489   7.909   7.173   1.243 -1.2002  2.1206  0.0282
  458SOL    HW2 8490   7.930   7.229   1.104  1.6267 -2.1134 -1.4459
  459SOL     OW 8491   3.443  10.182   6.365 -0.3332  0.3053  0.2719
  459SOL    HW1 8492   3.385  10.191   6.441  1.3307  2.5003  1.3934
  459SOL    HW2 8493   3.413  10.250   6.304 -1.3849 -1.1635 -0.9195
  460SOL     OW 8494   4.063  11.749   7.505  0.0242  0.0524 -0.5975
  460SOL    HW1 8495   3.977  11.723   7.472 -0.2576  1.1811 -0.7615
  460SOL    HW2 8496   4.123  11.684   7.467 -0.7071 -0.5805 -0.6987
  461SOL     OW 8497   8.784   8.288   8.518  0.2002  0.3504 -0.4762
  461SOL    HW1 8498   8.876   8.309   8.506  0.0161  1.1203 -0.5795
  461SOL    HW2 8499   8.740   8.322   8.440 -0.2827  0.7493 -0.0387
  462SOL     OW 8500   4.652   7.352   1.516  0.2155 -0.2658 -0.0185
  462SOL    HW1 8501   4.741   7.318   1.509  0.1697 -0.3892  0.0082
  462SOL    HW2 8502   4.651   7.428   1.457  0.9503  1.0206  1.5504
  463SOL     OW 8503   1.201  10.041  11.574 -0.0255 -0.1499  0.4025
  463SOL    HW1 8504   1.186  10.136  11.570  1.4352  0.0850  0.0278
  463SOL    HW2 8505   1.189  10.019  11.667 -0.3872  0.3934  0.4904
  464SOL     OW 8506   4.246   8.696  12.263 -0.6173 -0.3711 -0.1921
  464SOL    HW1 8507   4.173   8.698  12.202 -1.3396 -1.2160  0.6109
  464SOL    HW2 8508   4.301   8.623  12.233 -0.3075  0.0094 -0.5587
  465SOL     OW 8509  10.140   7.361   3.969 -0.5793 -0.2324 -0.4086
  465SOL    HW1 8510  10.135   7.314   4.053  0.8356 -0.7494 -0.5954
  465SOL    HW2 8511  10.156   7.452   3.993 -0.8169 -0.2685 -0.1081
  466SOL     OW 8512   3.061   0.722  10.091 -0.3393  0.0686  0.0220
  466SOL    HW1 8513   2.999   0.794  10.103  0.0517  0.2592  0.9883
  466SOL    HW2 8514   3.061   0.676  10.175  1.0763  0.2745  0.1599
  467SOL     OW 8515   2.088   5.330  11.715  0.2151 -0.2605 -0.3263
  467SOL    HW1 8516   2.003   5.334  11.670 -1.0635  0.7318  1.9774
  467SOL    HW2 8517   2.088   5.244  11.758 -0.0689  0.1005  0.4179
  468SOL     OW 8518   4.632   4.730  12.545  0.2665 -0.6547 -0.5186
  468SOL    HW1 8519   4.670   4.798  12.600 -0.8358 -0.4715  0.0391
  468SOL    HW2 8520   4.597   4.778  12.469  3.1588 -1.0395 -2.2907
  469SOL     OW 8521   2.983   5.309   9.651  0.0980  0.5160 -0.4146
  469SOL    HW1 8522   3.070   5.277   9.673 -0.6311 -1.3107  0.0126
  469SOL    HW2 8523   2.987   5.326   9.557  0.4763 -1.2377 -0.7658
  470SOL     OW 8524  11.993  11.296  12.794 -0.5585  0.0688 -0.3624
  470SOL    HW1 8525  12.026  11.239  12.863  1.6154  1.5078 -0.1164
  470SOL    HW2 8526  12.017  11.253  12.713  1.1314  0.6207 -0.1809
  471SOL     OW 8527   6.893   8.788   5.782  0.2910 -0.2090  0.2459
  471SOL    HW1 8528   6.949   8.731   5.833  0.3375  0.4373  0.9373
  471SOL    HW2 8529   6.891   8.749   5.695 -1.5557 -2.5794  1.2535
  472SOL     OW 8530   8.857  11.618   8.464  0.1115  0.5156  0.2788
  472SOL    HW1 8531   8.785  11.587   8.519 -0.5485 -0.3489 -1.0207
  472SOL    HW2 8532   8.823  11.698   8.424 -0.6690 -0.5822 -1.3414
  473SOL     OW 8533   0.653   3.248   4.265 -0.1199  0.2580  0.4768
  473SOL    HW1 8534   0.574   3.270   4.313  0.0053  0.5452  0.5501
  473SOL    HW2 8535   0.661   3.153   4.276 -0.5985  0.1861  0.2426
  474SOL     OW 8536   3.906  12.656   0.406  0.2523  0.1774 -0.6004
  474SOL    HW1 8537   3.948  12.635   0.489  0.0603  1.8452 -0.0519
  474SOL    HW2 8538   3.823  12.608   0.408  0.5617 -0.3379 -0.1398
  475SOL     OW 8539  10.180   7.734  10.391 -0.1859 -0.1340 -0.2340
  475SOL    HW1 8540  10.125   7.661  10.362  0.6580 -1.7873  2.0458
  475SOL    HW2 8541  10.124   7.783  10.452 -0.1110 -0.0460 -0.2358
  476SOL     OW 8542   5.320   0.703   0.607  0.3144  0.3711 -0.0681
  476SOL    HW1 8543   5.253   0.665   0.664  1.6074 -0.0345  1.2652
  476SOL    HW2 8544   5.398   0.709   0.663  3.0474 -3.9858 -2.8096
  477SOL     OW 8545   2.909   2.747   9.676 -0.2725  0.8104  0.6599
  477SOL    HW1 8546   2.814   2.738   9.690 -0.3430  1.1472  0.4022
  477SOL    HW2 8547   2.918   2.766   9.583 -0.2529  4.6890  1.2899
  478SOL     OW 8548   0.483   9.254   6.285  0.2619 -0.8303  0.1453
  478SOL    HW1 8549   0.497   9.293   6.372 -1.4982  0.8355 -0.2460
  478SOL    HW2 8550   0.551   9.293   6.230 -0.5302  0.5951  0.1146
  479SOL     OW 8551   0.134   4.321   9.259 -0.5438  0.6435  0.0979
  479SOL    HW1 8552   0.155   4.256   9.326 -0.6384  0.7952  0.2721
  479SOL    HW2 8553   0.148   4.274   9.176 -1.1721  0.2257  0.2250
  480SOL     OW 8554   5.180   3.648   9.325 -0.4724  0.1837 -0.0162
  480SOL    HW1 8555   5.160   3.554   9.324 -0.3113  0.1177  1.3646
  480SOL    HW2 8556   5.273   3.652   9.301  0.1312 -0.2162  2.0927
  481SOL     OW 8557   2.095   9.777   1.282 -0.7330  0.4739  0.1444
  481SOL    HW1 8558   2.178   9.732   1.265  0.0091  1.5135  0.8933
  481SOL    HW2 8559   2.039   9.710   1.321  0.3464  0.1719  1.2474
  482SOL     OW 8560   9.495   3.988   0.713 -0.3243 -0.4095 -0.5549
  482SOL    HW1 8561   9.494   3.964   0.621 -1.7958  0.2635 -0.7364
  482SOL    HW2 8562   9.439   4.066   0.719 -1.6474 -1.4084  1.1475
  483SOL     OW 8563   5.763   4.162  11.751  0.4057  0.1566  0.1563
  483SOL    HW1 8564   5.807   4.233  11.798 -1.7659 -0.0476  2.6847
  483SOL    HW2 8565   5.832   4.097  11.735  1.9028  1.7225 -0.0234
  484SOL     OW 8566   4.007   5.614   0.864  0.3496 -0.6417 -0.0104
  484SOL    HW1 8567   4.078   5.554   0.840  0.9839 -0.1551  0.5943
  484SOL    HW2 8568   4.003   5.610   0.959 -0.0308 -0.2107 -0.0021
  485SOL     OW 8569   4.328   4.367  10.993 -0.5944 -0.1592  0.0855
  485SOL    HW1 8570   4.355   4.394  10.905  1.0141 -0.0851  0.5687
  485SOL    HW2 8571   4.358   4.276  11.000 -1.8548 -0.5913  0.1208
  486SOL     OW 8572   0.702   4.845  11.818  0.6060 -0.0178  0.2003
  486SOL    HW1 8573   0.672   4.892  11.740  0.6786 -1.1315 -0.5184
  486SOL    HW2 8574   0.622   4.826  11.866  0.5136  0.2682  0.1608
  487SOL     OW 8575   6.136   5.714  12.212 -0.5928 -0.6520 -0.4036
  487SOL    HW1 8576   6.157   5.680  12.300 -0.4333 -1.9587 -0.9193
  487SOL    HW2 8577   6.120   5.807  12.226 -0.5396 -0.8243  1.0133
  488SOL     OW 8578  11.204  11.542   3.194  0.0701  0.1493  0.3364
  488SOL    HW1 8579  11.121  11.565   3.234 -0.1149  0.3157 -0.1346
  488SOL    HW2 8580  11.270  11.575   3.255 -0.1949 -0.9066  1.2316
  489SOL     OW 8581  11.294   3.561   5.417  0.1092 -0.3726 -0.0980
  489SOL    HW1 8582  11.338   3.476   5.413 -0.0273 -0.5414  1.3023
  489SOL    HW2 8583  11.354   3.617   5.467 -0.5912 -0.1886  0.5707
  490SOL     OW 8584   9.205   7.992   7.368  0.4415 -0.1820 -0.4793
  490SOL    HW1 8585   9.219   8.003   7.274 -0.4772 -0.7997 -0.6972
  490SOL    HW2 8586   9.125   8.041   7.386  1.5818  1.5021  0.3503
  491SOL     OW 8587   3.917   9.773   0.824 -0.1576  0.7965 -0.3153
  491SOL    HW1 8588   3.983   9.724   0.775  0.4207  0.0583  1.1419
  491SOL    HW2 8589   3.836   9.756   0.777 -0.0648 -1.9648  0.3441
  492SOL     OW 8590  12.518   1.252   6.627  0.1117 -0.3236  0.0467
  492SOL    HW1 8591  12.578   1.178   6.634  1.4170  0.6477 -0.4467
  492SOL    HW2 8592  12.575   1.329   6.632 -1.2113  0.6495  0.5266
  493SOL     OW 8593   0.352   3.755   3.858  0.9503  0.3458 -0.1014
  493SOL    HW1 8594   0.370   3.665   3.831 -0.4624  0.1474 -0.4782
  493SOL    HW2 8595   0.359   3.806   3.778  0.0927  0.2944 -0.2172
  494SOL     OW 8596   7.817   5.651   0.478  0.5306  0.0316  0.1678
  494SOL    HW1 8597   7.880   5.720   0.460  0.0548  0.5905  0.5962
  494SOL    HW2 8598   7.836   5.623   0.567  0.0546  0.3422  0.3721
  495SOL     OW 8599   0.368   2.635  12.616 -0.7072  0.2712 -0.1022
  495SOL    HW1 8600   0.357   2.549  12.655 -0.4863  0.7853  1.1289
  495SOL    HW2 8601   0.287   2.681  12.636 -0.8848  0.3181 -0.8805
  496SOL     OW 8602   7.307   5.257   6.214  0.1655  0.0191 -0.0172
  496SOL    HW1 8603   7.227   5.308   6.229  1.0707  1.0084  1.8535
  496SOL    HW2 8604   7.300   5.182   6.273  0.7429  0.2813  0.3973
  497SOL     OW 8605   2.619   2.531   2.891 -0.4811  0.0443  0.0746
  497SOL    HW1 8606   2.708   2.513   2.863 -0.9634 -0.4755 -1.2528
  497SOL    HW2 8607   2.592   2.453   2.939 -0.1742  0.2784  0.6370
  498SOL     OW 8608  11.236   7.219   9.312 -0.4251  0.8081 -0.6756
  498SOL    HW1 8609  11.176   7.166   9.260  0.9233 -2.6253  0.8808
  498SOL    HW2 8610  11.211   7.200   9.403  2.3010 -0.0801  0.0052
  499SOL     OW 8611   4.344   2.502  10.960  0.0277 -0.7545  0.0264
  499SOL    HW1 8612   4.411   2.461  10.906 -0.9731 -0.0458 -1.8274
  499SOL    HW2 8613   4.381   2.587  10.985  0.7996 -1.3969  1.1559
  500SOL     OW 8614   0.978   4.981   4.707 -0.2122  0.7341 -0.3164
  500SOL    HW1 8615   0.965   5.074   4.687 -1.4542  0.7288  0.4301
  500SOL    HW2 8616   0.914   4.936   4.652  0.2509  0.3239 -0.5252
  501SOL     OW 8617  10.808   7.200   9.292 -0.2524  0.1147 -0.1543
  501SOL    HW1 8618  10.721   7.222   9.260 -0.0156  1.8704  0.2864
  501SOL    HW2 8619  10.794   7.176   9.384 -0.5998 -2.4113 -0.8081
  502SOL     OW 8620   4.775  11.189   6.127  0.5713  0.5184 -0.3125
  502SOL    HW1 8621   4.857  11.208   6.081  1.6371 -0.4414  1.1312
  502SOL    HW2 8622   4.798  11.194   6.220 -0.5238 -1.6831  0.1191
  503SOL     OW 8623   8.046  12.477   3.368  0.2174  0.6376  0.1945
  503SOL    HW1 8624   8.043  12.403   3.307  1.8082  1.0710 -0.4545
  503SOL    HW2 8625   7.964  12.524   3.350  0.3017  0.3436 -1.0958
  504SOL     OW 8626   2.325   6.765   3.584 -0.4547  0.3041 -0.3486
  504SOL    HW1 8627   2.398   6.825   3.598 -0.2066  0.3849 -1.8132
  504SOL    HW2 8628   2.249   6.811   3.621  0.1069  0.4791  0.6420
  505SOL     OW 8629   2.616   6.442   7.999 -0.0847 -0.2088 -0.0648
  505SOL    HW1 8630   2.643   6.534   8.000 -4.0008  1.1122  0.5189
  505SOL    HW2 8631   2.549   6.438   7.931 -0.0595 -2.6656 -0.0174
  506SOL     OW 8632   2.517   0.621  11.168 -0.4992  0.4060  0.1302
  506SOL    HW1 8633   2.454   0.675  11.121 -0.9233  0.4876  0.7813
  506SOL    HW2 8634   2.522   0.661  11.255  0.8301  0.7137 -0.0614
  507SOL     OW 8635   5.535   2.388   3.528  0.0180 -0.4339 -0.2290
  507SOL    HW1 8636   5.625   2.413   3.549  0.1432  0.6831 -1.9456
  507SOL    HW2 8637   5.482   2.432   3.594  0.7163 -1.2665  0.9257
  508SOL     OW 8638   9.277   8.744   0.752 -0.0100 -0.3857 -0.2176
  508SOL    HW1 8639   9.341   8.676   0.732  1.3270  0.6409  0.4143
  508SOL    HW2 8640   9.282   8.804   0.677 -1.1852 -0.9329 -0.7737
  509SOL     OW 8641   6.888   6.953   1.393 -0.4751 -0.5380  0.1499
  509SOL    HW1 8642   6.857   6.945   1.484  0.4971  0.2129  0.5694
  509SOL    HW2 8643   6.977   6.918   1.395  0.2902  1.2877 -0.0533
  510SOL     OW 8644   3.728   0.257   5.427  0.0797 -0.5703 -0.2101
  510SOL    HW1 8645   3.775   0.282   5.506  0.0712  0.0909 -0.4041
  510SOL    HW2 8646   3.796   0.222   5.369 -0.1498 -2.5748  0.6712
  511SOL     OW 8647   1.628   7.464  11.625  0.2109 -0.0639 -0.0931
  511SOL    HW1 8648   1.632   7.450  11.531 -2.7294 -0.8389 -0.1899
  511SOL    HW2 8649   1.535   7.455  11.647  0.8051  0.0687  2.8873
  512SOL     OW 8650  12.309   1.149  11.728  0.0313  0.2695  0.2953
  512SOL    HW1 8651  12.297   1.230  11.779 -0.8428  0.1811  0.2445
  512SOL    HW2 8652  12.254   1.085  11.773 -1.4795  0.4067 -1.2444
  513SOL     OW 8653   4.504   8.537   8.027  0.4338  0.3042 -0.1130
  513SOL    HW1 8654   4.530   8.607   8.087 -1.9346  0.1712  1.1639
  513SOL    HW2 8655   4.436   8.489   8.074 -0.9754 -0.2889 -2.6112
  514SOL     OW 8656   2.413   9.124   3.303 -0.1305  0.3710 -0.0977
  514SOL    HW1 8657   2.328   9.088   3.330  0.8268 -1.6214  0.4891
  514SOL    HW2 8658   2.427   9.091   3.214 -1.1981  3.1061 -1.3892
  515SOL     OW 8659  10.748   3.953   6.950  0.1092 -0.4301  0.3830
  515SOL    HW1 8660  10.843   3.955   6.946  0.0997 -0.0516  0.3026
  515SOL    HW2 8661  10.721   3.919   6.865  0.1904 -1.0849  0.6196
  516SOL     OW 8662   0.024   2.030  10.366 -0.1768 -0.0307  0.1894
  516SOL    HW1 8663  -0.026   1.949  10.364 -0.5515  0.1356  1.7698
  516SOL    HW2 8664   0.008   2.070  10.280 -1.2916 -0.8408  0.0011
  517SOL     OW 8665   6.598   3.953   5.979  0.2014  0.5714 -0.2888
  517SOL    HW1 8666   6.667   4.012   6.011 -1.0593  1.5114  0.8191
  517SOL    HW2 8667   6.531   3.956   6.048 -0.2152 -1.6405 -0.5355
  518SOL     OW 8668  11.850   8.134   2.933  0.1933  0.7252 -0.7448
  518SOL    HW1 8669  11.781   8.104   2.873 -0.2195  0.7600 -0.2895
  518SOL    HW2 8670  11.911   8.060   2.938 -0.5691  0.1182 -0.0057
  519SOL     OW 8671   1.615  10.124   4.750  0.0361  0.5769 -0.0339
  519SOL    HW1 8672   1.570  10.202   4.782 -2.5313 -0.8335  0.0389
  519SOL    HW2 8673   1.546  10.058   4.741  2.0217 -1.5711 -0.5326
  520SOL     OW 8674  11.302  11.387   1.992  0.7582 -0.1017  0.0830
  520SOL    HW1 8675  11.327  11.421   2.077  2.5258  0.3308 -0.5593
  520SOL    HW2 8676  11.290  11.293   2.005  3.6918 -0.5249  0.3268
  521SOL     OW 8677   7.517   6.792   3.216  0.3674 -0.0669 -0.1031
  521SOL    HW1 8678   7.460   6.733   3.167 -1.1438  0.0616  1.4105
  521SOL    HW2 8679   7.513   6.760   3.306  0.0141  1.9352  0.6490
  522SOL     OW 8680  10.383   8.883   2.406  0.3822  0.1111 -0.4286
  522SOL    HW1 8681  10.397   8.903   2.313  0.2406  2.6145  0.0208
  522SOL    HW2 8682  10.310   8.938   2.432  1.5976  0.9010  1.5954
  523SOL     OW 8683   2.568   2.186   2.771 -0.3187  0.5560  0.5212
  523SOL    HW1 8684   2.616   2.129   2.831  1.3116 -0.2293 -1.4025
  523SOL    HW2 8685   2.495   2.220   2.823 -0.1939 -1.6900  2.3341
  524SOL     OW 8686   7.675  12.672  11.126  0.7028  0.2272 -0.7134
  524SOL    HW1 8687   7.599  12.728  11.115 -0.1801 -1.1076 -1.7852
  524SOL    HW2 8688   7.653  12.592  11.078  0.8791 -2.0640  2.6980
  525SOL     OW 8689   8.753   9.646  10.689  0.7147 -0.7691  0.5662
  525SOL    HW1 8690   8.708   9.585  10.630 -0.1479  0.2162  0.1667
  525SOL    HW2 8691   8.793   9.591  10.756  1.0167 -1.8551 -0.4850
  526SOL     OW 8692   4.151   7.784   3.779 -0.4500  0.5259  0.7332
  526SOL    HW1 8693   4.098   7.725   3.833 -1.6319  2.4099  1.7347
  526SOL    HW2 8694   4.226   7.806   3.834  0.1277 -0.1930  0.2595
  527SOL     OW 8695  11.584   0.715   0.311  0.0337  0.1463  0.1304
  527SOL    HW1 8696  11.602   0.800   0.272 -0.0249 -0.6900 -1.8742
  527SOL    HW2 8697  11.507   0.683   0.263  0.7992 -1.5426 -0.0435
  528SOL     OW 8698   5.902   7.167   4.435 -0.3624 -0.5369  0.3776
  528SOL    HW1 8699   5.989   7.204   4.416 -1.9549  4.5591  1.4799
  528SOL    HW2 8700   5.917   7.108   4.509  2.5727 -3.2384 -2.0523
  529SOL     OW 8701  12.917  12.190   3.366 -0.2104  0.0432  0.0502
  529SOL    HW1 8702  12.871  12.255   3.420 -1.6417 -0.0994 -0.9398
  529SOL    HW2 8703  12.924  12.113   3.423 -0.0527  0.4817  0.6404
  530SOL     OW 8704   8.874   5.787   6.905  0.0626  0.3582 -0.2299
  530SOL    HW1 8705   8.856   5.781   6.811  0.7083  1.7135 -0.4701
  530SOL    HW2 8706   8.957   5.835   6.910  0.2838 -0.1323  1.0224
  531SOL     OW 8707   8.743   7.474   8.732 -0.3848  0.1308  0.5527
  531SOL    HW1 8708   8.704   7.561   8.733 -0.4231  0.1257 -0.0330
  531SOL    HW2 8709   8.804   7.474   8.805  0.1015  0.8791  0.1590
  532SOL     OW 8710   1.331   2.976   1.278 -0.5189  0.3100  0.2395
  532SOL    HW1 8711   1.411   3.005   1.321 -0.1516 -0.2200 -0.0829
  532SOL    HW2 8712   1.299   2.904   1.332 -0.9351  0.7048  0.5269
  533SOL     OW 8713  10.558   9.368   5.005 -0.4508  0.1678 -0.2419
  533SOL    HW1 8714  10.562   9.384   4.910 -1.9137  0.0657 -0.3479
  533SOL    HW2 8715  10.594   9.280   5.016 -1.7547 -0.4831 -0.9325
  534SOL     OW 8716  12.761   9.483   2.724 -0.0181 -0.4047 -0.0056
  534SOL    HW1 8717  12.726   9.414   2.780 -0.4057  0.1206  0.4094
  534SOL    HW2 8718  12.717   9.563   2.754  0.7712  0.0982 -0.1696
  535SOL     OW 8719   8.783   9.673   3.610  0.4758  0.0225 -0.0420
  535SOL    HW1 8720   8.712   9.664   3.674 -0.7971  0.0447 -1.3954
  535SOL    HW2 8721   8.778   9.594   3.557  1.9449 -0.3030  0.2585
  536SOL     OW 8722  11.290   0.856   8.495 -0.3023  0.0467 -0.2961
  536SOL    HW1 8723  11.369   0.900   8.524  0.0384  0.0804 -1.2237
  536SOL    HW2 8724  11.299   0.766   8.527  1.1323 -0.5343 -2.1009
  537SOL     OW 8725   6.032  12.447   4.361  0.1030 -0.3029  0.3525
  537SOL    HW1 8726   5.969  12.487   4.421 -0.7918 -0.7009 -0.2968
  537SOL    HW2 8727   6.021  12.495   4.279 -0.1874 -1.1284 -0.1043
  538SOL     OW 8728   9.140   2.100   8.190 -0.2227  0.5955 -0.9450
  538SOL    HW1 8729   9.054   2.084   8.230 -0.3585 -0.1028 -1.5051
  538SOL    HW2 8730   9.186   2.017   8.199  0.2552  0.8545 -0.9995
  539SOL     OW 8731   8.292   5.269   4.922  0.4788  0.0425 -0.6419
  539SOL    HW1 8732   8.384   5.261   4.896  0.7699  0.2489  0.2626
  539SOL    HW2 8733   8.287   5.221   5.005 -0.2436  0.0011 -0.7074
  540SOL     OW 8734   0.562   4.568   2.445  0.0637  0.1887 -0.1244
  540SOL    HW1 8735   0.524   4.656   2.442 -1.6682 -0.5336 -1.3843
  540SOL    HW2 8736   0.508   4.522   2.510  1.0957  0.0832  0.6840
  541SOL     OW 8737   7.538   4.507   7.588 -0.3211 -0.1866  0.1542
  541SOL    HW1 8738   7.447   4.480   7.598 -0.4679  0.1518 -0.2422
  541SOL    HW2 8739   7.570   4.460   7.511 -0.7182  1.0818 -0.8257
  542SOL     OW 8740   7.715  12.130  12.275 -0.5496 -0.2449  0.0245
  542SOL    HW1 8741   7.650  12.061  12.289  2.3556 -2.9636  1.2594
  542SOL    HW2 8742   7.694  12.165  12.188 -2.6758 -2.0771 -0.3029
  543SOL     OW 8743   9.886  10.157   4.668 -0.3337  0.1353 -0.4178
  543SOL    HW1 8744   9.909  10.155   4.575 -1.1101  1.0866 -0.6405
  543SOL    HW2 8745   9.860  10.248   4.685  1.3992  0.4067  1.1336
  544SOL     OW 8746   8.307   4.870   5.014  0.4330  0.2423  0.1521
  544SOL    HW1 8747   8.386   4.848   5.064  0.9005  0.5266 -0.4518
  544SOL    HW2 8748   8.272   4.947   5.059  0.9532  0.6084 -0.0634
  545SOL     OW 8749   0.452  10.191   0.011 -0.0649 -0.5444 -0.3295
  545SOL    HW1 8750   0.457  10.108   0.059 -0.2028 -0.4260 -0.1040
  545SOL    HW2 8751   0.527  10.190  -0.048  0.4667 -0.4263  0.3266
  546SOL     OW 8752   7.396  11.445  12.624 -0.2257 -0.5877  0.2879
  546SOL    HW1 8753   7.477  11.463  12.576 -1.3167  0.6736 -1.1598
  546SOL    HW2 8754   7.360  11.366  12.583  0.7035 -1.7318  1.5753
  547SOL     OW 8755   9.293   1.795   3.426  0.3404 -1.2300  0.1571
  547SOL    HW1 8756   9.270   1.819   3.336 -0.6194 -0.0230  0.6996
  547SOL    HW2 8757   9.377   1.838   3.441 -0.5618  0.4867  0.5525
  548SOL     OW 8758   2.275  10.773   4.225  0.2922 -0.8294  0.3098
  548SOL    HW1 8759   2.289  10.691   4.272  1.9641 -0.2516  0.8875
  548SOL    HW2 8760   2.181  10.774   4.205 -0.0279 -2.1626  1.6189
  549SOL     OW 8761  12.513   3.146   0.462 -0.0345  0.0666  0.0557
  549SOL    HW1 8762  12.600   3.110   0.480  0.5655  1.7192  0.6398
  549SOL    HW2 8763  12.468   3.077   0.413  2.0560 -0.3578 -1.4172
  550SOL     OW 8764   4.892   1.136   5.360 -0.5992 -0.2222 -0.2960
  550SOL    HW1 8765   4.827   1.074   5.392 -1.4561  1.0088  0.4144
  550SOL    HW2 8766   4.944   1.086   5.296 -2.1643 -1.2531 -0.8027
  551SOL     OW 8767  11.132  10.185   4.972 -0.7595 -0.8463  0.6855
  551SOL    HW1 8768  11.214  10.186   5.022 -0.7012  0.0399  0.5876
  551SOL    HW2 8769  11.101  10.276   4.975 -1.3868 -1.0376  0.1476
  552SOL     OW 8770   8.547   1.527   8.828 -0.2370  0.2087  0.0120
  552SOL    HW1 8771   8.521   1.529   8.920  0.5642  0.6912  0.2414
  552SOL    HW2 8772   8.594   1.609   8.815 -1.3736  0.7189 -1.1530
  553SOL     OW 8773   7.894   0.050   5.446 -0.3443 -0.1788  0.2943
  553SOL    HW1 8774   7.813   0.097   5.428 -0.2436 -0.5673 -1.2796
  553SOL    HW2 8775   7.919   0.011   5.363  1.3056 -0.3354  0.8176
  554SOL     OW 8776   0.597   0.239   2.055 -0.5103 -0.7101 -0.1712
  554SOL    HW1 8777   0.567   0.290   2.130 -1.2259 -0.1689 -0.8053
  554SOL    HW2 8778   0.554   0.154   2.065 -1.3173 -0.3440 -0.4245
  555SOL     OW 8779   6.135   3.150  12.253  0.3427  0.4997  0.0193
  555SOL    HW1 8780   6.112   3.108  12.335  0.9836  0.0678 -0.0139
  555SOL    HW2 8781   6.104   3.089  12.185 -0.4822  1.0072 -0.0809
  556SOL     OW 8782   3.308   7.976   4.138 -0.1876 -0.0036 -0.4145
  556SOL    HW1 8783   3.290   7.941   4.224 -0.8117  1.9619  0.3120
  556SOL    HW2 8784   3.223   7.998   4.101 -0.1679 -2.9424 -2.5932
  557SOL     OW 8785   9.277   4.563   5.189 -0.0584  0.6213  0.2842
  557SOL    HW1 8786   9.315   4.612   5.116  0.6493 -0.7653 -0.3163
  557SOL    HW2 8787   9.352   4.536   5.242 -0.5246  1.1263  1.2247
  558SOL     OW 8788   3.317  11.332   7.596 -0.1092  0.3680  0.2371
  558SOL    HW1 8789   3.262  11.254   7.598 -1.5511  1.3091 -0.6574
  558SOL    HW2 8790   3.302  11.375   7.680 -2.7164  1.8278 -0.8258
  559SOL     OW 8791   6.023   7.252   1.728 -0.1166 -0.2836 -0.7921
  559SOL    HW1 8792   6.090   7.293   1.783  0.7783 -2.6020 -0.0698
  559SOL    HW2 8793   6.043   7.159   1.729 -3.3708 -1.1175 -0.5178
  560SOL     OW 8794   0.753   6.480   3.276  0.8873  0.1026  0.1032
  560SOL    HW1 8795   0.658   6.485   3.292  0.8830  2.2522 -0.3341
  560SOL    HW2 8796   0.787   6.433   3.353 -0.5383 -1.0356  0.0921
  561SOL     OW 8797   3.006   3.348   5.496 -0.6838  0.4964  0.0913
  561SOL    HW1 8798   3.030   3.354   5.403  0.5253  0.5756  0.3871
  561SOL    HW2 8799   3.014   3.438   5.528  0.6807  0.1893  0.6707
  562SOL     OW 8800   8.416  10.637   5.428  0.3354 -0.2676 -0.1186
  562SOL    HW1 8801   8.474  10.605   5.359  0.5526  2.0936 -1.1132
  562SOL    HW2 8802   8.333  10.592   5.411 -0.0004  1.1610 -2.7930
  563SOL     OW 8803   7.484   8.884   3.515  0.1211 -0.2245  0.3874
  563SOL    HW1 8804   7.392   8.903   3.532  0.0251  0.3898 -0.7253
  563SOL    HW2 8805   7.531   8.958   3.554  0.1102 -0.2866  0.5188
  564SOL     OW 8806   0.448   5.417  12.966  0.1962  0.0910  0.5270
  564SOL    HW1 8807   0.510   5.445  12.899 -0.5209 -1.1286 -0.6750
  564SOL    HW2 8808   0.500   5.365  13.027  0.0642 -2.8654 -1.6719
  565SOL     OW 8809   8.682   6.421   4.277  0.5690  0.2605  0.8550
  565SOL    HW1 8810   8.616   6.354   4.256  0.7998  0.1538  0.4585
  565SOL    HW2 8811   8.733   6.381   4.348  1.4812 -0.5109 -0.2056
  566SOL     OW 8812   3.880   7.073   5.601 -0.0818 -0.1154 -0.1111
  566SOL    HW1 8813   3.924   7.039   5.679  1.0236  1.3419 -0.0548
  566SOL    HW2 8814   3.861   6.995   5.549  2.1363 -0.8925  0.1127
  567SOL     OW 8815  10.851   9.555  11.326 -0.1843 -0.4908  0.4147
  567SOL    HW1 8816  10.780   9.497  11.298 -1.1714  0.6262  0.5591
  567SOL    HW2 8817  10.931   9.507  11.301 -0.9771 -1.0245 -1.2948
  568SOL     OW 8818  12.748  12.027   1.562  0.0732 -0.4295 -0.5795
  568SOL    HW1 8819  12.843  12.014   1.550 -0.1882 -2.0584 -1.0995
  568SOL    HW2 8820  12.709  11.946   1.529 -1.3327 -1.0562  2.3489
  569SOL     OW 8821   3.964   4.791   5.389 -0.4882  0.4477  0.1316
  569SOL    HW1 8822   3.908   4.765   5.317 -0.2569 -0.3756  0.2411
  569SOL    HW2 8823   4.040   4.733   5.383  0.0011  1.0386  0.4388
  570SOL     OW 8824   7.046  12.679   0.389 -0.2439 -0.0356  0.1532
  570SOL    HW1 8825   6.960  12.651   0.359 -0.4316 -1.5925  1.9861
  570SOL    HW2 8826   7.041  12.775   0.391 -1.0905  0.0234 -2.0264
  571SOL     OW 8827  12.083  11.118   3.650 -0.8598  0.2715  0.1410
  571SOL    HW1 8828  12.021  11.142   3.581 -0.3367  1.1854 -0.0328
  571SOL    HW2 8829  12.126  11.040   3.618 -0.4229  0.8461 -0.7085
  572SOL     OW 8830   5.463   5.312   3.611  0.3180 -0.4006  0.1646
  572SOL    HW1 8831   5.433   5.375   3.677  1.9516 -0.4802  1.0399
  572SOL    HW2 8832   5.392   5.308   3.547 -0.5014  1.1190  0.9293
  573SOL     OW 8833   0.030   5.769   0.994 -0.2644 -0.4519 -0.0577
  573SOL    HW1 8834  -0.007   5.768   1.083  1.5277  2.1250  0.8248
  573SOL    HW2 8835   0.121   5.745   1.006  0.0647  0.2084 -1.1571
  574SOL     OW 8836   3.316   4.369   5.412  0.0922  0.2988 -0.5352
  574SOL    HW1 8837   3.286   4.384   5.322 -1.2776 -1.4367 -0.4337
  574SOL    HW2 8838   3.333   4.275   5.416  0.0658  0.3355  1.0418
  575SOL     OW 8839   6.070   0.790   4.993 -0.0413  0.0287  0.0960
  575SOL    HW1 8840   6.009   0.727   5.032 -0.2761 -0.5810 -1.2095
  575SOL    HW2 8841   6.130   0.812   5.065  0.0889 -1.7438  0.5879
  576SOL     OW 8842   4.242   5.870   9.480 -0.1846  0.0268 -0.1191
  576SOL    HW1 8843   4.309   5.807   9.505 -0.9183 -0.9027 -0.4001
  576SOL    HW2 8844   4.224   5.920   9.560  1.6252  1.0739 -0.3277
  577SOL     OW 8845   6.773   5.367  12.527  0.1349  0.1528  0.0717
  577SOL    HW1 8846   6.828   5.403  12.597 -0.8817  0.1180  0.9051
  577SOL    HW2 8847   6.685   5.365  12.564 -0.5933  0.9667 -1.5233
  578SOL     OW 8848   4.722   9.446   1.938 -0.7590 -0.4711  0.4348
  578SOL    HW1 8849   4.778   9.428   1.863 -3.0644 -0.1040 -1.5133
  578SOL    HW2 8850   4.679   9.528   1.917 -2.1612 -0.8176  1.7336
  579SOL     OW 8851   6.074   8.632   6.213  0.5509 -0.5602 -0.2922
  579SOL    HW1 8852   6.057   8.719   6.249  1.7865  0.4170 -1.9648
  579SOL    HW2 8853   6.101   8.579   6.288 -1.7899 -0.0064  1.0381
  580SOL     OW 8854   4.565  10.394   8.430 -0.3403 -0.0361  0.0393
  580SOL    HW1 8855   4.488  10.360   8.384  0.4775  0.6150 -1.9221
  580SOL    HW2 8856   4.556  10.489   8.426 -0.5662  0.0704  1.8939
  581SOL     OW 8857   2.970   5.645   7.914 -0.4194 -0.2378 -0.0864
  581SOL    HW1 8858   2.900   5.628   7.851 -0.3391 -0.1408 -0.2011
  581SOL    HW2 8859   3.019   5.718   7.877  0.1007 -0.6816 -0.2947
  582SOL     OW 8860   3.981  12.629   0.082  0.9129  0.7484 -0.4352
  582SOL    HW1 8861   3.904  12.632   0.025 -0.6024  0.6328  1.4695
  582SOL    HW2 8862   3.982  12.715   0.125  0.7727  0.1484  0.8229
  583SOL     OW 8863   2.132   4.007   9.711 -0.2954  0.2109  0.0891
  583SOL    HW1 8864   2.079   4.079   9.744 -0.3542 -0.0064  0.4703
  583SOL    HW2 8865   2.070   3.934   9.702  0.1004 -0.2980  1.3615
  584SOL     OW 8866   9.507   0.936   5.198  0.6140 -0.0666  0.1308
  584SOL    HW1 8867   9.485   0.993   5.271  0.7756 -1.3725  1.2457
  584SOL    HW2 8868   9.436   0.872   5.195  0.6601 -0.0876 -0.7882
  585SOL     OW 8869  11.102   4.262  10.031 -0.4881 -0.0837 -0.4139
  585SOL    HW1 8870  11.117   4.204  10.105 -0.9837 -0.4711 -0.6109
  585SOL    HW2 8871  11.027   4.224   9.986 -1.1728  1.0271 -0.2331
  586SOL     OW 8872   4.741   5.271  10.475  0.4325 -0.2828  0.3800
  586SOL    HW1 8873   4.804   5.234  10.414  0.5008 -0.4082  0.5254
  586SOL    HW2 8874   4.752   5.220  10.555  1.3750  0.8305  0.9790
  587SOL     OW 8875  12.868   7.342  10.544  0.0511  0.4544  0.0195
  587SOL    HW1 8876  12.862   7.418  10.487  0.2626  0.2035 -0.3423
  587SOL    HW2 8877  12.959   7.313  10.536 -0.5275 -1.1273 -1.5430
  588SOL     OW 8878   4.965   3.272   9.653  0.2038  0.2718 -0.0914
  588SOL    HW1 8879   5.022   3.331   9.605  0.5032  1.3500  1.5139
  588SOL    HW2 8880   4.892   3.326   9.681 -0.4836 -0.5726 -0.2056
  589SOL     OW 8881   7.980   4.635   5.028 -0.0817 -0.4350  0.2989
  589SOL    HW1 8882   8.034   4.587   4.966  0.8248 -2.4890  2.5288
  589SOL    HW2 8883   8.019   4.617   5.113 -0.5056  3.2784  1.4543
  590SOL     OW 8884  12.361  10.209   8.979  0.3195  0.6110  0.4092
  590SOL    HW1 8885  12.337  10.199   8.887 -0.6904  0.4777  0.6775
  590SOL    HW2 8886  12.386  10.301   8.987  0.3711  0.6366  0.0133
  591SOL     OW 8887  12.252   5.357  10.033  0.0081 -0.5992 -0.1713
  591SOL    HW1 8888  12.221   5.440  10.069 -3.1526 -1.5272 -0.4813
  591SOL    HW2 8889  12.198   5.291  10.075  0.0151 -2.1850 -2.4984
  592SOL     OW 8890   0.652   0.492   8.681 -0.4486 -0.1606  0.2311
  592SOL    HW1 8891   0.673   0.495   8.588  0.9443 -0.0067  0.5402
  592SOL    HW2 8892   0.667   0.581   8.713 -2.3655  0.1780  0.3329
  593SOL     OW 8893   1.847   1.696  10.030 -0.5426  0.0908  0.2247
  593SOL    HW1 8894   1.939   1.691  10.004 -0.5512 -0.4996  0.3070
  593SOL    HW2 8895   1.805   1.746   9.960 -0.3684 -0.5748 -0.3665
  594SOL     OW 8896   1.637   0.207   5.523  0.5517  0.0773  0.0848
  594SOL    HW1 8897   1.695   0.154   5.577 -0.6291  0.4039  1.7680
  594SOL    HW2 8898   1.694   0.274   5.485  1.3150  0.2911  1.5553
  595SOL     OW 8899   5.937  12.044   7.528 -0.3328 -0.0715 -0.0466
  595SOL    HW1 8900   5.848  12.046   7.491 -0.0491 -1.9962 -0.9167
  595SOL    HW2 8901   5.924  12.016   7.619 -0.8287  2.6029  0.8152
  596SOL     OW 8902   0.117   6.632   1.570 -0.3516  0.0248 -0.5966
  596SOL    HW1 8903   0.051   6.601   1.507 -0.9900 -2.5351  1.1588
  596SOL    HW2 8904   0.074   6.704   1.616 -0.5432  0.7420 -1.8404
  597SOL     OW 8905  10.550   1.064  12.295  0.6268 -0.1624  0.1040
  597SOL    HW1 8906  10.490   1.074  12.368 -1.4651  0.5839 -1.6078
  597SOL    HW2 8907  10.567   0.970  12.289  2.7340 -0.0790  2.8786
  598SOL     OW 8908   0.188   8.971  12.008  0.3197  0.0820 -0.2261
  598SOL    HW1 8909   0.136   9.012  12.077 -1.6195  0.0392 -1.5770
  598SOL    HW2 8910   0.235   8.900  12.051  0.9778  1.4665  1.4537
  599SOL     OW 8911   6.306   4.858   9.714  0.3083  0.3019 -0.0562
  599SOL    HW1 8912   6.212   4.873   9.716  0.3902  0.8378 -0.0794
  599SOL    HW2 8913   6.327   4.823   9.800  0.4291  2.3606  0.8069
  600SOL     OW 8914   8.711   3.179   9.781 -0.2433  0.5847 -0.0675
  600SOL    HW1 8915   8.787   3.191   9.724 -0.7134 -1.1822 -1.1756
  600SOL    HW2 8916   8.748   3.151   9.865  0.3721 -1.5176 -0.9558
  601SOL     OW 8917  11.873   1.083   5.412 -0.4216 -0.7800  0.0783
  601SOL    HW1 8918  11.790   1.110   5.372 -1.1390 -2.7391  0.1169
  601SOL    HW2 8919  11.882   1.138   5.489 -2.0087 -0.9275  0.4018
  602SOL     OW 8920   9.569   3.019   1.219  0.6962  0.0676  0.6896
  602SOL    HW1 8921   9.658   3.033   1.187  1.2417 -0.8056  1.7626
  602SOL    HW2 8922   9.569   3.056   1.307 -0.3461  1.0725  0.3006
  603SOL     OW 8923   3.626   5.230   6.462  0.2556  0.6390 -0.5533
  603SOL    HW1 8924   3.643   5.186   6.545  0.2507 -0.4185 -1.0959
  603SOL    HW2 8925   3.687   5.305   6.462  1.5556 -0.3802 -0.3807
  604SOL     OW 8926   7.004   4.958  10.307 -0.1358 -0.0549  0.3090
  604SOL    HW1 8927   6.936   5.011  10.350 -0.3950 -0.5073  0.4605
  604SOL    HW2 8928   6.956   4.885  10.267  0.1000  0.3592 -0.7659
  605SOL     OW 8929   0.362   2.808   6.360  0.2496  0.1965 -0.3323
  605SOL    HW1 8930   0.351   2.740   6.294 -0.7150  0.1515 -0.1308
  605SOL    HW2 8931   0.420   2.872   6.318 -0.3834  0.1910 -1.2415
  606SOL     OW 8932   3.450   2.616  10.989  1.1893  0.0356  0.3635
  606SOL    HW1 8933   3.413   2.565  10.916 -0.8675 -0.0192  1.3818
  606SOL    HW2 8934   3.498   2.687  10.946 -0.2694  0.2132 -1.0598
  607SOL     OW 8935  10.173   3.153  11.605  0.7840  0.3253 -0.4462
  607SOL    HW1 8936  10.226   3.074  11.603  1.6543  0.8959 -0.8250
  607SOL    HW2 8937  10.183   3.187  11.694  2.2494  1.1862 -0.8994
  608SOL     OW 8938   6.973  12.888   7.990 -0.0164  0.0585 -0.0290
  608SOL    HW1 8939   7.003  12.813   7.940 -1.4602 -0.2163 -0.5253
  608SOL    HW2 8940   6.879  12.875   7.999 -0.0398  0.9506  1.3359
  609SOL     OW 8941   8.882  12.309   0.344 -0.0276 -0.2190  0.1195
  609SOL    HW1 8942   8.790  12.337   0.346 -0.3117 -1.1551  0.3014
  609SOL    HW2 8943   8.902  12.298   0.251 -1.1499 -3.3127  0.1300
  610SOL     OW 8944   3.905   1.363   6.924 -0.8126 -0.7080 -0.0171
  610SOL    HW1 8945   3.993   1.399   6.911 -1.0345 -0.3265 -0.4632
  610SOL    HW2 8946   3.909   1.276   6.885  0.0538 -1.6538  2.0291
  611SOL     OW 8947   1.164   0.129   9.818  0.3254 -0.0874 -0.0850
  611SOL    HW1 8948   1.138   0.123   9.910 -0.1126 -0.2271 -0.2159
  611SOL    HW2 8949   1.120   0.055   9.775  0.5793 -0.0626 -0.3922
  612SOL     OW 8950  10.784  10.223   6.556 -0.5699 -0.4383 -0.6120
  612SOL    HW1 8951  10.863  10.210   6.609 -0.1041  0.7053 -0.9919
  612SOL    HW2 8952  10.728  10.148   6.577 -0.3558 -0.0898  1.4094
  613SOL     OW 8953   9.384   2.031   9.917  0.8622 -0.0888  0.4181
  613SOL    HW1 8954   9.297   2.029   9.876  0.3687 -1.0100  1.4784
  613SOL    HW2 8955   9.373   2.086   9.995  0.7617 -1.6216  1.5276
  614SOL     OW 8956   6.031   0.731   4.072  0.3462  0.6836 -0.0331
  614SOL    HW1 8957   5.993   0.647   4.046 -1.6330  1.1102  1.2972
  614SOL    HW2 8958   6.048   0.776   3.989 -1.2768  0.1175 -0.7131
  615SOL     OW 8959   1.159   1.554   4.104 -0.2253 -0.1399 -0.4873
  615SOL    HW1 8960   1.135   1.646   4.115 -0.0000 -0.1568  0.1772
  615SOL    HW2 8961   1.132   1.512   4.185  0.9044 -0.3958 -0.2209
  616SOL     OW 8962   4.397   9.411   6.665 -0.2220 -0.5086  0.3099
  616SOL    HW1 8963   4.370   9.486   6.719 -0.4409 -0.3859  0.0252
  616SOL    HW2 8964   4.489   9.398   6.689 -0.6580 -1.2923  1.7042
  617SOL     OW 8965   3.778   5.611   2.046  0.3146  0.3985  0.6697
  617SOL    HW1 8966   3.836   5.687   2.046  0.5790  0.2208  1.8190
  617SOL    HW2 8967   3.838   5.536   2.051  0.0629  0.0930 -0.6215
  618SOL     OW 8968   5.249   9.549   4.545  0.9151 -0.2294  0.3302
  618SOL    HW1 8969   5.331   9.520   4.505  2.0042  0.7080  1.7801
  618SOL    HW2 8970   5.250   9.507   4.632 -0.0384 -0.0245  0.4462
  619SOL     OW 8971  10.952   3.291   4.746  0.6271  0.3072  0.4987
  619SOL    HW1 8972  11.030   3.242   4.770  2.5009  3.2298  0.8477
  619SOL    HW2 8973  10.903   3.300   4.828  1.1922  0.5578  0.8109
  620SOL     OW 8974  10.531  10.600   6.086 -0.2867 -0.0293  0.7143
  620SOL    HW1 8975  10.564  10.511   6.101  0.7239  0.1393 -0.3751
  620SOL    HW2 8976  10.557  10.620   5.996 -0.0052  1.5801  1.1288
  621SOL     OW 8977   5.195  12.092   2.905  0.1735 -0.1878  0.0416
  621SOL    HW1 8978   5.221  12.103   2.997  1.8823  0.7252 -0.5101
  621SOL    HW2 8979   5.161  12.002   2.901 -0.7158  0.0138  1.7067
  622SOL     OW 8980   0.283   6.909   7.834 -0.3467 -0.3345 -0.2404
  622SOL    HW1 8981   0.190   6.921   7.852 -0.0145  1.9493  0.2632
  622SOL    HW2 8982   0.291   6.927   7.740 -0.2880  0.5567 -0.0752
  623SOL     OW 8983   1.452   2.303   7.139 -0.1280 -0.0329  0.0749
  623SOL    HW1 8984   1.462   2.382   7.192 -0.5139  0.6764 -0.8835
  623SOL    HW2 8985   1.522   2.308   7.074  0.6834 -1.1759  0.8187
  624SOL     OW 8986   0.188   0.392   2.931 -0.1858 -0.3189 -0.2532
  624SOL    HW1 8987   0.112   0.448   2.948  0.9775  1.7773 -1.5818
  624SOL    HW2 8988   0.246   0.406   3.006 -0.7405 -1.3552  0.3987
  625SOL     OW 8989  12.247   5.959   1.147 -0.7584  0.1438  0.1983
  625SOL    HW1 8990  12.196   5.878   1.153 -0.5040  0.0646  1.6496
  625SOL    HW2 8991  12.197   6.014   1.087 -2.2390 -0.1653  1.0823
  626SOL     OW 8992   1.044   5.015   5.474 -0.4916 -0.5031  0.2988
  626SOL    HW1 8993   1.109   4.964   5.426  1.1410  2.0013 -0.2871
  626SOL    HW2 8994   0.982   4.949   5.506  1.6621 -2.8847 -0.0858
  627SOL     OW 8995   4.347  11.286   3.638 -0.2284  0.1292  0.3631
  627SOL    HW1 8996   4.430  11.333   3.635  2.1693 -3.6965 -0.4065
  627SOL    HW2 8997   4.355  11.227   3.712 -2.9549  0.6107  1.1446
  628SOL     OW 8998   1.558   5.082   1.706  0.4336  0.2046  0.6723
  628SOL    HW1 8999   1.509   5.020   1.759  0.4165 -1.6144 -1.3337
  628SOL    HW2 9000   1.504   5.161   1.705  0.1145  0.0704  2.7010
  629SOL     OW 9001   6.952   3.236   6.494  0.3148  0.0709  0.2284
  629SOL    HW1 9002   6.963   3.312   6.552  0.9626  1.0599 -1.1189
  629SOL    HW2 9003   7.029   3.239   6.436  0.6634 -1.9690  0.5083
  630SOL     OW 9004   2.689  12.471   4.258 -0.1818  0.8597  0.9881
  630SOL    HW1 9005   2.594  12.461   4.253 -0.6356  4.1289  0.6577
  630SOL    HW2 9006   2.707  12.477   4.351 -0.4014  0.7107  1.0408
  631SOL     OW 9007  10.840   2.005   9.138  0.7081 -0.0059  0.2843
  631SOL    HW1 9008  10.749   1.979   9.150  0.8621 -0.4591  0.5276
  631SOL    HW2 9009  10.887   1.960   9.208  1.2048 -0.2670 -0.2074
  632SOL     OW 9010   8.244   7.195  11.542  0.3723 -0.4873  0.2959
  632SOL    HW1 9011   8.314   7.130  11.549  0.5026 -0.5145 -1.0625
  632SOL    HW2 9012   8.181   7.157  11.482 -0.7312 -0.3665  1.3339
  633SOL     OW 9013  11.505   5.420  12.625 -0.0106 -0.0452  0.0666
  633SOL    HW1 9014  11.497   5.401  12.531  1.4859  0.7784 -0.2606
  633SOL    HW2 9015  11.424   5.464  12.648 -0.8912 -1.2794 -0.5614
  634SOL     OW 9016   3.852  11.679   2.277  0.1588  0.0324 -0.0053
  634SOL    HW1 9017   3.935  11.671   2.325 -0.3358 -0.4674  0.7789
  634SOL    HW2 9018   3.878  11.671   2.185  1.0818  0.7452  0.1740
  635SOL     OW 9019  11.373   4.738   8.775  0.5662 -0.5156 -0.0805
  635SOL    HW1 9020  11.458   4.693   8.778  0.1647 -1.2616  0.5074
  635SOL    HW2 9021  11.336   4.716   8.690  1.3106  0.4971 -0.6924
  636SOL     OW 9022   4.917   2.846   9.279 -0.3032  0.0887  0.2079
  636SOL    HW1 9023   4.909   2.807   9.367  0.5955 -1.8500 -0.5188
  636SOL    HW2 9024   4.832   2.829   9.238  0.2140 -1.6130 -0.2497
  637SOL     OW 9025   1.217   3.249   1.245  0.1518  0.2685  0.3069
  637SOL    HW1 9026   1.179   3.307   1.179 -0.1316 -0.6236 -0.3279
  637SOL    HW2 9027   1.151   3.244   1.314  1.0301  2.3486  1.3907
  638SOL     OW 9028  11.264  10.146   4.362  0.5263  0.9322 -0.1095
  638SOL    HW1 9029  11.257  10.103   4.276  0.5681 -0.7193  0.6843
  638SOL    HW2 9030  11.354  10.129   4.389 -0.4781 -1.8365  1.8768
  639SOL     OW 9031   6.042   1.229   4.686 -0.2528 -0.1242 -0.1864
  639SOL    HW1 9032   6.031   1.297   4.752 -0.6381 -1.0412  0.7231
  639SOL    HW2 9033   6.037   1.147   4.735 -1.4625 -0.8596 -1.4528
  640SOL     OW 9034  10.035   4.841   0.388 -0.1800  0.0496  0.2391
  640SOL    HW1 9035  10.073   4.872   0.470 -0.5648  1.7035 -0.1588
  640SOL    HW2 9036  10.104   4.788   0.348  1.6875  2.6946 -0.3169
  641SOL     OW 9037   3.131   6.772   9.901  0.3014 -0.3021  0.1192
  641SOL    HW1 9038   3.208   6.774   9.843  0.2787 -0.3181  0.0882
  641SOL    HW2 9039   3.097   6.683   9.892  1.5909 -1.0265  1.8634
  642SOL     OW 9040  12.160   4.986  12.954  0.4436 -0.2384  0.1652
  642SOL    HW1 9041  12.132   4.925  12.885  0.8912  0.1939 -0.4092
  642SOL    HW2 9042  12.251   4.963  12.971  0.1677 -0.7314  1.0472
  643SOL     OW 9043  11.498   8.952   3.848  0.4337  0.1288  0.2912
  643SOL    HW1 9044  11.568   8.960   3.913 -0.2293 -0.0447  1.0469
  643SOL    HW2 9045  11.503   8.861   3.819  0.5377  0.1244  0.3202
  644SOL     OW 9046   5.798   6.505   0.868  1.0034 -0.0299  0.2072
  644SOL    HW1 9047   5.803   6.600   0.863  1.1892  0.2684  3.4845
  644SOL    HW2 9048   5.885   6.475   0.842  1.8464  0.9655  1.6878
  645SOL     OW 9049  12.516  11.498  10.789  0.3856 -0.1949  0.2746
  645SOL    HW1 9050  12.521  11.416  10.837  0.7309 -1.4564 -1.7770
  645SOL    HW2 9051  12.576  11.487  10.715 -1.0121  1.1145 -1.1468
  646SOL     OW 9052   5.228   4.346   0.080 -0.7329 -0.2484  0.0271
  646SOL    HW1 9053   5.286   4.394   0.139  0.1346  0.8663 -1.6408
  646SOL    HW2 9054   5.266   4.259   0.074  1.0686  0.5751 -1.3345
  647SOL     OW 9055  11.629   6.086   2.212  0.1065 -0.4115 -0.7688
  647SOL    HW1 9056  11.658   6.161   2.264 -0.0119  0.1351 -1.4786
  647SOL    HW2 9057  11.615   6.016   2.276 -0.7847  0.4693  0.0152
  648SOL     OW 9058  11.755   1.506   7.004 -0.4415 -0.8927  0.2192
  648SOL    HW1 9059  11.752   1.499   7.099 -0.0473 -0.2854  0.2809
  648SOL    HW2 9060  11.726   1.595   6.986  1.5531 -0.2602 -0.0923
  649SOL     OW 9061   1.214   4.133  12.625 -0.3423 -0.3503 -0.3984
  649SOL    HW1 9062   1.164   4.197  12.676 -0.0100 -0.6449  0.3217
  649SOL    HW2 9063   1.183   4.048  12.657 -0.9272 -0.5588 -1.4875
  650SOL     OW 9064   4.626   4.437  10.412  0.5207 -0.3450 -0.7574
  650SOL    HW1 9065   4.560   4.497  10.445 -0.7247 -2.6019  1.1281
  650SOL    HW2 9066   4.604   4.425  10.319 -1.1165 -0.2918 -0.3954
  651SOL     OW 9067   5.993   3.872  10.797  0.2250  0.2140 -0.9933
  651SOL    HW1 9068   5.910   3.911  10.824  0.3290 -1.1727  1.6655
  651SOL    HW2 9069   6.059   3.923  10.843  0.7256  0.1433 -1.6242
  652SOL     OW 9070  10.633   6.986  10.947 -0.2125  0.7072 -0.9038
  652SOL    HW1 9071  10.571   6.915  10.963  0.1867  0.8384  1.5240
  652SOL    HW2 9072  10.683   6.957  10.870 -1.0155 -0.9525 -0.8417
  653SOL     OW 9073   7.632   9.161   7.430 -0.0060  0.4005  0.3504
  653SOL    HW1 9074   7.647   9.077   7.473 -0.9925  0.1990  0.3307
  653SOL    HW2 9075   7.626   9.224   7.501 -2.0796  0.0000  0.5876
  654SOL     OW 9076  10.564  12.871   6.236  0.2995 -0.0734 -0.2060
  654SOL    HW1 9077  10.516  12.820   6.171 -1.5034  0.6421  0.5065
  654SOL    HW2 9078  10.591  12.950   6.188  0.0723 -0.1146 -0.4049
  655SOL     OW 9079  11.636   9.113   0.952  0.1797 -0.2132  0.5679
  655SOL    HW1 9080  11.708   9.051   0.936  0.9568  0.6279  0.7118
  655SOL    HW2 9081  11.561   9.058   0.973  0.7944 -1.1130  0.4675
  656SOL     OW 9082   9.767  11.522   7.381 -0.5594 -0.2270  0.5622
  656SOL    HW1 9083   9.703  11.592   7.394  0.3419  0.5656  0.8581
  656SOL    HW2 9084   9.784  11.489   7.469 -1.4019 -1.2182  0.3657
  657SOL     OW 9085   9.815   2.779   7.374  0.3666  0.1927 -0.0392
  657SOL    HW1 9086   9.906   2.757   7.354  0.3806  0.4160 -0.2256
  657SOL    HW2 9087   9.820   2.837   7.450  0.3013 -0.8396  0.7591
  658SOL     OW 9088   6.066  10.065  12.759  0.1001 -0.0749  0.5369
  658SOL    HW1 9089   5.976  10.097  12.760  0.4111  0.9169  2.3783
  658SOL    HW2 9090   6.060   9.977  12.721 -1.8000 -0.4291  1.5362
  659SOL     OW 9091  11.390   6.817  10.327  0.1485  0.5845 -0.0188
  659SOL    HW1 9092  11.328   6.872  10.376  0.1860 -1.3412  2.4302
  659SOL    HW2 9093  11.468   6.814  10.382  1.3594  0.6370 -1.6666
  660SOL     OW 9094   2.433   6.165   0.015  0.2589 -0.5521  0.3383
  660SOL    HW1 9095   2.509   6.125   0.059  0.2564 -0.3870  0.4937
  660SOL    HW2 9096   2.369   6.094   0.009  1.0030 -1.1442 -1.2141
  661SOL     OW 9097   3.892   2.689   8.371 -0.4192 -0.4859 -0.2580
  661SOL    HW1 9098   3.913   2.731   8.287 -0.6324 -0.8318 -0.4862
  661SOL    HW2 9099   3.801   2.661   8.362 -0.0107 -1.8292 -0.4703
  662SOL     OW 9100   5.855   2.246   3.640 -0.1362 -0.7026 -0.3381
  662SOL    HW1 9101   5.805   2.185   3.586 -2.8431 -1.2870  2.5362
  662SOL    HW2 9102   5.930   2.196   3.670  0.8582 -0.6747 -2.6203
  663SOL     OW 9103   4.210  11.216   1.788  0.4619 -0.2137 -0.5292
  663SOL    HW1 9104   4.215  11.292   1.730  1.5745  1.1534  1.2426
  663SOL    HW2 9105   4.286  11.162   1.764  1.1078  0.5126 -0.1546
  664SOL     OW 9106   6.612   0.337   1.425 -0.0388 -0.0026  0.2029
  664SOL    HW1 9107   6.640   0.420   1.389 -0.0576 -0.6294 -1.3014
  664SOL    HW2 9108   6.693   0.289   1.444 -0.0316 -0.3794 -0.7302
  665SOL     OW 9109   0.046  10.940   7.536  0.1070 -0.0829 -0.2420
  665SOL    HW1 9110   0.139  10.962   7.546 -0.1070  0.0806  1.7783
  665SOL    HW2 9111   0.045  10.844   7.528  0.5811  0.0498 -2.8705
  666SOL     OW 9112   6.455  10.061   2.514  0.0120  0.5180  0.2109
  666SOL    HW1 9113   6.405  10.047   2.594 -0.1402 -1.6494 -0.1938
  666SOL    HW2 9114   6.528  10.116   2.540 -1.4945  2.1307  1.2348
  667SOL     OW 9115  10.383   1.066   1.087 -0.3346 -0.1683 -0.1629
  667SOL    HW1 9116  10.473   1.051   1.058 -0.4746  0.2350 -0.8399
  667SOL    HW2 9117  10.385   1.152   1.129 -0.8556  1.0055 -2.3701
  668SOL     OW 9118  10.716   5.632   6.680  0.1094  0.0049  0.1591
  668SOL    HW1 9119  10.804   5.650   6.645 -0.3643  0.8418 -0.6407
  668SOL    HW2 9120  10.706   5.693   6.753 -0.4423  1.1215 -0.8222
  669SOL     OW 9121   8.862   8.168   9.476 -0.5060 -0.3690  0.3629
  669SOL    HW1 9122   8.787   8.157   9.418  0.3119 -0.0794 -0.7700
  669SOL    HW2 9123   8.930   8.113   9.438 -0.0880 -0.5222  1.3035
  670SOL     OW 9124   9.901   3.704   0.725 -0.2525  0.0561 -0.0099
  670SOL    HW1 9125   9.952   3.641   0.776  1.1994 -0.1807 -1.6774
  670SOL    HW2 9126   9.866   3.764   0.790 -0.1634 -1.4022  1.4475
  671SOL     OW 9127  11.883   0.171   5.494 -0.1809 -0.1124  0.1415
  671SOL    HW1 9128  11.974   0.196   5.505  0.8519 -2.3820 -2.3174
  671SOL    HW2 9129  11.853   0.220   5.417 -0.3156 -1.0662 -0.4252
  672SOL     OW 9130   3.235   4.964   5.843  0.5493 -0.7512 -0.1326
  672SOL    HW1 9131   3.276   5.016   5.775  3.4992 -0.1489  1.9268
  672SOL    HW2 9132   3.219   5.026   5.915  0.4944 -1.9333  0.9095
  673SOL     OW 9133   1.509  11.987   6.778 -0.2183 -0.0279  0.1479
  673SOL    HW1 9134   1.451  12.007   6.852  0.9686  2.1364  0.5814
  673SOL    HW2 9135   1.584  12.046   6.790 -0.1899  0.7189 -3.0377
  674SOL     OW 9136   6.610   0.811  12.955 -0.2251 -0.3164 -0.3141
  674SOL    HW1 9137   6.619   0.906  12.942  0.6874 -0.5201 -1.2940
  674SOL    HW2 9138   6.698   0.781  12.975 -0.6825 -0.8333  1.0104
  675SOL     OW 9139  10.825   1.843   6.705  0.5286  0.3250 -0.1207
  675SOL    HW1 9140  10.789   1.878   6.786  0.6221  0.7017 -0.2399
  675SOL    HW2 9141  10.823   1.748   6.717 -1.0759  0.2923 -0.3647
  676SOL     OW 9142   4.773   2.512   9.488  0.5697 -0.2055  0.2904
  676SOL    HW1 9143   4.847   2.570   9.507  0.8119 -0.1484 -0.7734
  676SOL    HW2 9144   4.757   2.524   9.394 -1.0872  0.1421  0.5911
  677SOL     OW 9145   5.757   0.781  10.704  0.0791 -0.3652 -0.1863
  677SOL    HW1 9146   5.830   0.840  10.723 -1.2073  0.3686  3.1623
  677SOL    HW2 9147   5.690   0.837  10.664 -0.1367 -0.1159  0.5095
  678SOL     OW 9148   8.629   5.874   2.388  0.2233  0.1127 -0.1108
  678SOL    HW1 9149   8.709   5.846   2.432 -0.3382 -0.9194  0.2904
  678SOL    HW2 9150   8.559   5.860   2.452 -0.4604 -0.3356 -0.9209
  679SOL     OW 9151   8.579   1.306   0.284  0.3063  0.4611  0.0875
  679SOL    HW1 9152   8.660   1.271   0.322 -0.0027 -0.3819  0.0132
  679SOL    HW2 9153   8.589   1.292   0.190  0.6561  1.6398 -0.0595
  680SOL     OW 9154  10.666   8.987   1.184  0.6402  0.1735  0.0891
  680SOL    HW1 9155  10.572   9.003   1.174  0.3313 -1.2578  0.4947
  680SOL    HW2 9156  10.698   9.064   1.231 -0.7282 -0.2646  1.8493
  681SOL     OW 9157   7.116   7.612   7.445 -0.0652  0.4068  0.5067
  681SOL    HW1 9158   7.085   7.534   7.401 -0.7568  0.3894  1.0006
  681SOL    HW2 9159   7.165   7.579   7.521  2.0747  0.4085 -0.7991
  682SOL     OW 9160   8.381   2.539   4.896 -0.1556  0.3087 -0.3670
  682SOL    HW1 9161   8.404   2.452   4.863 -1.2724  0.1585 -0.7748
  682SOL    HW2 9162   8.422   2.599   4.834 -1.1000  0.0370 -1.2938
  683SOL     OW 9163   6.835   8.720   0.080 -1.0449 -0.4834  0.4288
  683SOL    HW1 9164   6.856   8.647   0.022  0.9528 -0.3174  0.8658
  683SOL    HW2 9165   6.902   8.717   0.148 -0.9035  1.7337  0.4654
  684SOL     OW 9166   7.599   1.735   6.017 -0.4992  0.4586 -0.3484
  684SOL    HW1 9167   7.624   1.787   6.093 -0.0817 -0.2673  0.0258
  684SOL    HW2 9168   7.680   1.723   5.969 -0.0221 -1.9744  0.9102
  685SOL     OW 9169  11.447   8.242   1.286  0.3975  0.5529  0.0577
  685SOL    HW1 9170  11.448   8.148   1.268  3.4507  0.0199  2.2297
  685SOL    HW2 9171  11.524   8.276   1.240 -0.1831  1.8550  0.0069
  686SOL     OW 9172   7.863   4.965   0.895  0.0739  0.2504  0.0960
  686SOL    HW1 9173   7.901   4.879   0.912  0.6291  0.1920 -1.2691
  686SOL    HW2 9174   7.788   4.947   0.838  0.9629  0.7290 -1.2856
  687SOL     OW 9175  10.135   4.734   2.784  0.0125 -0.0923  0.0113
  687SOL    HW1 9176  10.168   4.644   2.781 -1.1065 -0.5110 -0.4583
  687SOL    HW2 9177  10.181   4.779   2.713 -1.7981 -1.2030 -2.0324
  688SOL     OW 9178   5.588  10.422   4.392  0.4407 -0.1973 -0.4520
  688SOL    HW1 9179   5.582  10.490   4.459 -2.1336 -0.3623 -0.4199
  688SOL    HW2 9180   5.569  10.468   4.310 -1.5114 -0.8441 -0.4074
  689SOL     OW 9181   7.717  10.540  12.935  0.3609  0.6370 -0.0931
  689SOL    HW1 9182   7.725  10.582  13.021 -1.7291 -1.2604  1.1380
  689SOL    HW2 9183   7.632  10.570  12.902  0.1897 -0.3009 -0.5300
  690SOL     OW 9184   4.300   2.447   4.944  0.7485 -0.5282  0.0106
  690SOL    HW1 9185   4.295   2.456   4.849 -0.7822  0.4091  0.1377
  690SOL    HW2 9186   4.345   2.526   4.973  0.5441 -0.4480  0.1111
  691SOL     OW 9187   7.552   0.940  10.136  0.0174  0.0936 -0.1594
  691SOL    HW1 9188   7.611   0.920  10.064  1.1136  0.2076  0.6870
  691SOL    HW2 9189   7.483   0.994  10.096 -0.3366 -1.2398 -1.4556
  692SOL     OW 9190   8.863   2.096   4.942  0.1821  0.3466  0.0408
  692SOL    HW1 9191   8.912   2.170   4.908  0.6610  0.9402  1.8771
  692SOL    HW2 9192   8.774   2.129   4.955 -0.0037  0.1162 -0.6414
  693SOL     OW 9193   9.573   5.525  11.631 -0.6220  0.1073 -0.2516
  693SOL    HW1 9194   9.517   5.594  11.669 -0.3071  0.2824 -0.1027
  693SOL    HW2 9195   9.522   5.492  11.557 -0.5405  0.8888 -0.6718
  694SOL     OW 9196   7.047   4.543   5.206  0.4252 -1.1472 -0.3693
  694SOL    HW1 9197   7.020   4.458   5.241 -1.8039 -0.9291 -1.3696
  694SOL    HW2 9198   7.098   4.521   5.127  1.2534 -1.5453  0.2558
  695SOL     OW 9199  11.250   3.403  11.598 -0.5635 -0.3265 -0.1838
  695SOL    HW1 9200  11.305   3.382  11.523 -0.1890  1.3569 -0.4394
  695SOL    HW2 9201  11.289   3.484  11.633 -2.4708  0.5566  0.0174
  696SOL     OW 9202   1.594   0.682   0.520  0.2224 -0.2993  0.3193
  696SOL    HW1 9203   1.597   0.612   0.585  0.8709 -1.5555 -0.9957
  696SOL    HW2 9204   1.615   0.639   0.437  0.8445  1.4871 -0.5162
  697SOL     OW 9205  10.033  12.784   6.011 -0.2450  0.3980 -0.2266
  697SOL    HW1 9206  10.092  12.823   6.076  1.8243  1.5564 -2.6035
  697SOL    HW2 9207   9.960  12.845   6.006 -0.4646  0.2612  1.0070
  698SOL     OW 9208   4.747   6.297   6.120  0.2600  0.1481 -0.5336
  698SOL    HW1 9209   4.827   6.327   6.076 -0.1422 -0.6471 -1.8781
  698SOL    HW2 9210   4.776   6.224   6.174  0.8066  1.2994  0.7922
  699SOL     OW 9211   9.993   1.552   4.885 -0.1302 -0.0684  0.4912
  699SOL    HW1 9212  10.085   1.580   4.880 -0.5577  1.3652  0.3375
  699SOL    HW2 9213   9.990   1.472   4.833  0.9237  0.1559  0.0543
  700SOL     OW 9214  12.183  12.871   4.999  0.0576 -0.0177 -0.7150
  700SOL    HW1 9215  12.121  12.861   4.927  0.9902  1.4175 -1.7484
  700SOL    HW2 9216  12.133  12.918   5.067 -0.3429  0.0376 -1.0430
  701SOL     OW 9217   5.149   2.720  12.521  0.1776 -0.2978  0.2575
  701SOL    HW1 9218   5.144   2.627  12.540 -0.0661 -0.4972 -0.7678
  701SOL    HW2 9219   5.059   2.752  12.533 -0.2920 -0.6984 -1.8669
  702SOL     OW 9220  12.328   2.671  10.207 -0.1331  0.3552 -0.3469
  702SOL    HW1 9221  12.362   2.648  10.294  0.6794  0.5844 -0.5950
  702SOL    HW2 9222  12.358   2.600  10.150 -2.7154 -1.0969 -0.0351
  703SOL     OW 9223   2.437   8.260   3.251 -0.0408  0.2213 -0.5406
  703SOL    HW1 9224   2.527   8.253   3.283 -0.4650  2.1010  1.3482
  703SOL    HW2 9225   2.435   8.342   3.202 -0.4495 -0.4862 -1.7588
  704SOL     OW 9226   0.674  10.161   4.948 -0.6376 -0.2176  0.0216
  704SOL    HW1 9227   0.694  10.077   4.989  1.1837  1.2572  2.4315
  704SOL    HW2 9228   0.759  10.205   4.941 -1.6428  1.7976 -0.2374
  705SOL     OW 9229   8.249   2.086   2.038  0.2939  0.0102  0.1545
  705SOL    HW1 9230   8.340   2.058   2.048 -0.0268 -0.7620  1.0734
  705SOL    HW2 9231   8.226   2.122   2.124 -1.4277 -3.3551  1.2966
  706SOL     OW 9232   8.000   2.912  12.296 -0.5704 -0.5322 -0.1336
  706SOL    HW1 9233   7.942   2.900  12.220  1.5584  0.9740 -2.1427
  706SOL    HW2 9234   8.081   2.868  12.271  1.0768  2.1594  0.0709
  707SOL     OW 9235   2.424   9.170   7.460  0.1738 -0.1201 -0.3759
  707SOL    HW1 9236   2.422   9.210   7.373 -0.8720  1.6482  0.3964
  707SOL    HW2 9237   2.417   9.076   7.444 -0.4527  0.2007 -2.1868
  708SOL     OW 9238   3.416  10.996   1.449 -0.1221 -0.2965 -0.2973
  708SOL    HW1 9239   3.409  11.090   1.431 -0.3652 -0.1794  0.3985
  708SOL    HW2 9240   3.348  10.956   1.394  0.0926 -0.0918 -0.7213
  709SOL     OW 9241   0.256  10.788   0.262  0.0653  0.1606 -0.4546
  709SOL    HW1 9242   0.347  10.800   0.236 -0.7047  2.4123 -2.3923
  709SOL    HW2 9243   0.227  10.874   0.292 -1.9873  0.0398 -1.8689
  710SOL     OW 9244   0.376   0.921   6.997 -0.0351  0.6517  0.2471
  710SOL    HW1 9245   0.394   0.851   6.935  1.9236 -0.1237  1.5533
  710SOL    HW2 9246   0.393   1.001   6.948  0.2328  0.1081 -0.5798
  711SOL     OW 9247   7.486   1.478   4.371  0.3030  0.4221 -0.6010
  711SOL    HW1 9248   7.505   1.403   4.428  0.7036  0.1752 -1.0509
  711SOL    HW2 9249   7.572   1.511   4.344  0.2964  3.1217  2.1746
  712SOL     OW 9250   8.314  10.193  10.297  0.0842 -0.2153 -0.4082
  712SOL    HW1 9251   8.365  10.248  10.237 -0.0529  1.2009  0.7031
  712SOL    HW2 9252   8.374  10.125  10.326  1.3475  1.2856  0.6979
  713SOL     OW 9253   9.323  11.948  12.051 -0.2616 -0.1421  0.5227
  713SOL    HW1 9254   9.275  12.006  12.111  0.1836  2.6641 -1.6166
  713SOL    HW2 9255   9.407  11.934  12.095  0.0574  1.8642  0.6648
  714SOL     OW 9256   5.888   2.331   5.395 -0.5185  0.4630 -0.4538
  714SOL    HW1 9257   5.948   2.269   5.434 -0.6882  0.3520 -0.3673
  714SOL    HW2 9258   5.902   2.323   5.300  1.9506  2.7635 -0.3960
  715SOL     OW 9259  11.421  10.408   7.746 -0.1843 -0.1343 -0.4724
  715SOL    HW1 9260  11.366  10.342   7.790  3.5014 -2.6650  0.7868
  715SOL    HW2 9261  11.471  10.358   7.681  2.2764  1.5210  0.0356
  716SOL     OW 9262   8.559   3.193  11.382 -0.5459 -0.1892 -0.5533
  716SOL    HW1 9263   8.592   3.136  11.313 -2.1680  0.3821 -1.8693
  716SOL    HW2 9264   8.629   3.258  11.394  0.1392 -0.8244 -0.9927
  717SOL     OW 9265   2.759   3.521   7.323  0.0048 -0.1802 -0.3463
  717SOL    HW1 9266   2.718   3.605   7.342  0.7527 -0.2836  1.9973
  717SOL    HW2 9267   2.766   3.519   7.227 -0.5865  2.1343 -0.4929
  718SOL     OW 9268   6.261  11.561   0.005 -0.0902  0.2861  0.4987
  718SOL    HW1 9269   6.218  11.491  -0.045  0.5625  0.0268  0.2981
  718SOL    HW2 9270   6.194  11.630   0.010  0.2879  0.9468 -2.0291
  719SOL     OW 9271   3.097   4.074   9.282  0.0167 -0.3943  0.3648
  719SOL    HW1 9272   3.185   4.099   9.256 -0.2214  0.7068  0.5765
  719SOL    HW2 9273   3.039   4.130   9.230 -0.5371 -0.6781  0.6619
  720SOL     OW 9274   8.580   6.100  12.316  0.3434 -0.1191 -0.6784
  720SOL    HW1 9275   8.661   6.051  12.303  0.3367 -0.2925 -0.1119
  720SOL    HW2 9276   8.588   6.136  12.405 -0.1602 -0.0575 -0.6549
  721SOL     OW 9277   7.914  12.790   3.494 -0.1209  0.4002  0.1269
  721SOL    HW1 9278   7.870  12.830   3.569 -2.4574 -1.3764 -0.1781
  721SOL    HW2 9279   7.843  12.756   3.440  1.5916 -0.5910 -1.6270
  722SOL     OW 9280   3.950   3.629   1.247 -0.2753  0.9468 -0.1719
  722SOL    HW1 9281   4.002   3.686   1.303 -0.1243  1.2990 -0.6684
  722SOL    HW2 9282   3.976   3.652   1.158 -1.5625  1.4062 -0.4490
  723SOL     OW 9283   7.042   2.472  12.422 -0.5455  0.5907  0.4352
  723SOL    HW1 9284   6.978   2.402  12.420  0.3422 -0.2300 -0.0399
  723SOL    HW2 9285   7.024   2.520  12.503  0.3020 -1.5971  2.0051
  724SOL     OW 9286  11.676   2.120   3.781 -0.9308  0.1631  0.3768
  724SOL    HW1 9287  11.607   2.094   3.842 -0.9728  2.6358  1.5098
  724SOL    HW2 9288  11.717   2.196   3.823  3.2590 -1.8087  0.2993
  725SOL     OW 9289  12.213   9.702  11.215 -0.0003 -0.2115  0.0671
  725SOL    HW1 9290  12.157   9.780  11.207  0.6424  0.3947  1.2107
  725SOL    HW2 9291  12.212   9.664  11.127 -1.5425  0.2302 -0.1475
  726SOL     OW 9292   2.175   7.449   0.229  0.1272  0.0156  0.0793
  726SOL    HW1 9293   2.092   7.449   0.182  0.4631 -0.0842 -0.5193
  726SOL    HW2 9294   2.157   7.398   0.309 -0.4154  0.1005  0.0133
  727SOL     OW 9295  10.075  11.428   2.323 -0.6630  0.1285 -0.1283
  727SOL    HW1 9296  10.102  11.447   2.233 -1.1284 -1.0768 -0.5357
  727SOL    HW2 9297   9.980  11.433   2.321 -0.6542  0.8393  0.4911
  728SOL     OW 9298   7.326   2.407   3.445 -0.1750 -0.5788  0.0734
  728SOL    HW1 9299   7.275   2.451   3.377 -0.4678  0.4006  0.8970
  728SOL    HW2 9300   7.412   2.393   3.406 -0.0404  0.8367 -0.1780
  729SOL     OW 9301  12.680   6.702  12.588 -0.0216 -0.5551 -0.4633
  729SOL    HW1 9302  12.623   6.764  12.543  0.9010 -1.0922 -2.4658
  729SOL    HW2 9303  12.767   6.741  12.584  0.1098 -0.6352  0.8933
  730SOL     OW 9304  12.444   4.583   7.484 -0.3815 -0.9637  0.0648
  730SOL    HW1 9305  12.456   4.589   7.579  0.7393  1.2317 -0.1403
  730SOL    HW2 9306  12.533   4.583   7.448 -0.7891 -0.3771 -1.0036
  731SOL     OW 9307  11.216   9.471  11.428 -0.4268 -0.2894 -0.5272
  731SOL    HW1 9308  11.275   9.399  11.451 -0.0922 -0.6327 -2.2853
  731SOL    HW2 9309  11.175   9.496  11.510 -0.3548 -2.3146  0.1774
  732SOL     OW 9310   1.676  11.127   6.723 -0.0736  0.2142 -0.0473
  732SOL    HW1 9311   1.601  11.110   6.666  0.7426 -0.3287 -0.9836
  732SOL    HW2 9312   1.691  11.044   6.768  0.1410  0.2433 -0.0645
  733SOL     OW 9313  12.169   5.776  12.567 -0.2371 -0.2022 -0.1623
  733SOL    HW1 9314  12.115   5.834  12.512 -1.1492 -1.6524 -0.8554
  733SOL    HW2 9315  12.119   5.768  12.648 -0.3829 -0.4540 -0.2771
  734SOL     OW 9316   0.137  10.570   7.899 -0.1975 -0.2679 -0.6902
  734SOL    HW1 9317   0.192  10.556   7.976  0.4503 -1.4354 -1.3430
  734SOL    HW2 9318   0.089  10.650   7.918  0.9366  0.1919  0.3601
  735SOL     OW 9319   3.059   8.178   4.932 -0.0850  0.0175  0.2751
  735SOL    HW1 9320   3.072   8.248   4.867 -1.5674  0.3314  0.2955
  735SOL    HW2 9321   3.027   8.104   4.881 -1.6594  0.3956  0.6823
  736SOL     OW 9322   2.472   4.669   6.492 -0.1630 -0.3412 -0.1907
  736SOL    HW1 9323   2.547   4.650   6.436 -0.5271 -2.4105 -0.0706
  736SOL    HW2 9324   2.510   4.694   6.576  0.3724  1.5868 -0.9564
  737SOL     OW 9325   9.579   2.006   5.019 -1.1870 -0.3723 -0.3585
  737SOL    HW1 9326   9.586   1.983   4.926 -1.2168  0.0392 -0.4666
  737SOL    HW2 9327   9.519   2.080   5.020 -1.0411 -0.2585 -0.0290
  738SOL     OW 9328   2.199  10.742  12.933 -0.0683  0.2077  0.1035
  738SOL    HW1 9329   2.197  10.774  13.023  0.1993 -0.7782  0.4734
  738SOL    HW2 9330   2.113  10.764  12.898 -1.5577 -2.5311  1.7406
  739SOL     OW 9331   2.743   3.301   3.549  0.8884  0.0946 -0.1094
  739SOL    HW1 9332   2.696   3.365   3.603 -0.1141 -0.5278 -0.2222
  739SOL    HW2 9333   2.823   3.346   3.523  0.7922  0.8535  0.8553
  740SOL     OW 9334   7.717   1.342   8.114  0.4571  0.6278 -0.5405
  740SOL    HW1 9335   7.707   1.307   8.203 -0.6085 -0.1805 -0.9552
  740SOL    HW2 9336   7.658   1.290   8.061  0.2068  1.8608 -1.5313
  741SOL     OW 9337   0.637   2.118   2.357 -0.6076  0.2375  0.0408
  741SOL    HW1 9338   0.546   2.143   2.341 -0.6791  0.5382  0.8878
  741SOL    HW2 9339   0.652   2.045   2.297 -1.9555 -0.9960  1.1332
  742SOL     OW 9340   0.148   4.193   9.038  0.3001  0.2259 -0.0131
  742SOL    HW1 9341   0.089   4.132   9.084  1.8127 -0.5403  1.0037
  742SOL    HW2 9342   0.143   4.166   8.947  0.8399 -1.3968  0.3964
  743SOL     OW 9343   5.632   6.509   6.592 -0.0728 -0.3641  0.0831
  743SOL    HW1 9344   5.573   6.537   6.662 -0.4279 -1.0675  0.0777
  743SOL    HW2 9345   5.718   6.541   6.618 -0.6368  2.0276 -0.6253
  744SOL     OW 9346   5.585   1.463  10.612 -0.8245 -0.0876 -0.1484
  744SOL    HW1 9347   5.644   1.448  10.539 -1.6225 -1.7160 -0.4870
  744SOL    HW2 9348   5.572   1.558  10.613 -0.4272  0.0123 -1.8195
  745SOL     OW 9349   6.277   9.195   9.689  0.4843 -1.0812  0.2467
  745SOL    HW1 9350   6.259   9.108   9.724 -0.2918 -0.5612  1.1965
  745SOL    HW2 9351   6.192   9.239   9.690  0.7245 -0.5570 -0.9491
  746SOL     OW 9352  10.345  12.307   1.810  0.3810  0.1137  0.3039
  746SOL    HW1 9353  10.301  12.357   1.741  0.2567 -0.4306 -0.0136
  746SOL    HW2 9354  10.287  12.316   1.886 -1.0691 -1.7655 -0.4937
  747SOL     OW 9355   2.404   8.577   8.751 -0.1382 -0.5450  0.4606
  747SOL    HW1 9356   2.389   8.615   8.665 -0.9249 -1.4287  0.1991
  747SOL    HW2 9357   2.333   8.612   8.806  0.3146 -0.0457  0.7415
  748SOL     OW 9358   7.917   1.731   1.964 -0.1516  0.7787  0.2065
  748SOL    HW1 9359   7.930   1.729   2.059 -1.7508 -0.3711  0.4388
  748SOL    HW2 9360   7.823   1.743   1.952 -0.0594  0.3152 -1.2250
  749SOL     OW 9361  12.800   1.115   5.172  0.0180  0.0831  0.3508
  749SOL    HW1 9362  12.830   1.128   5.082  0.5886 -0.5030  0.4437
  749SOL    HW2 9363  12.876   1.137   5.226  0.0812 -0.7616  0.6228
  750SOL     OW 9364   8.732   3.921   9.510  0.1769 -0.6998  0.3666
  750SOL    HW1 9365   8.722   3.831   9.539 -0.3162 -0.5888  0.5673
  750SOL    HW2 9366   8.720   3.918   9.415  0.9157 -0.9448  0.2782
  751SOL     OW 9367   0.646  12.525   7.568  0.3649 -0.3560  0.0244
  751SOL    HW1 9368   0.653  12.526   7.664 -0.7818  1.0904  0.1186
  751SOL    HW2 9369   0.736  12.515   7.538  0.7424 -0.8842  1.2473
  752SOL     OW 9370   3.817  10.239  11.001 -0.1574  0.6417 -0.1210
  752SOL    HW1 9371   3.868  10.317  10.980  3.8276 -1.3775  1.0820
  752SOL    HW2 9372   3.789  10.252  11.091 -0.6277  1.1758 -0.3369
  753SOL     OW 9373   1.967   3.313   8.146  0.2278 -0.1574 -0.5308
  753SOL    HW1 9374   2.035   3.268   8.097  2.4707  0.4434  1.7922
  753SOL    HW2 9375   1.963   3.401   8.108 -0.9754 -0.8722 -2.1620
  754SOL     OW 9376  11.988   0.417   4.093 -0.6282 -0.2393  0.4663
  754SOL    HW1 9377  11.919   0.380   4.149  0.1117 -0.7610  1.0646
  754SOL    HW2 9378  11.997   0.508   4.122 -1.7211  0.1143 -0.2749
  755SOL     OW 9379  12.905   6.682  12.217 -0.1959  0.0684  0.1259
  755SOL    HW1 9380  12.917   6.626  12.140  1.6157  0.2770  0.1951
  755SOL    HW2 9381  12.888   6.769  12.181  0.5660  0.1494 -0.0643
  756SOL     OW 9382   7.538   3.000   2.552 -0.2643 -0.0700  0.2109
  756SOL    HW1 9383   7.472   3.011   2.620 -0.6749  2.1116 -0.4564
  756SOL    HW2 9384   7.487   2.985   2.472  0.0151  1.1886 -0.2294
  757SOL     OW 9385  12.913  11.573  12.284  0.0338 -0.2389 -0.5254
  757SOL    HW1 9386  12.916  11.636  12.356 -0.7654 -0.0392 -0.6589
  757SOL    HW2 9387  12.939  11.490  12.324 -0.2873 -0.1072 -0.0334
  758SOL     OW 9388   8.334  11.872   2.428 -0.6259 -0.4102 -0.0871
  758SOL    HW1 9389   8.390  11.945   2.403  0.0302 -0.9505 -0.2341
  758SOL    HW2 9390   8.251  11.913   2.455 -0.0715  0.4217  0.4074
  759SOL     OW 9391  11.145   4.655   8.905  0.0419 -0.4457 -0.1158
  759SOL    HW1 9392  11.122   4.563   8.892 -1.3540 -0.1811  0.3559
  759SOL    HW2 9393  11.229   4.665   8.859  0.3787 -2.0180  0.0857
  760SOL     OW 9394   9.890   3.257   3.416 -0.0355  0.2143 -0.5292
  760SOL    HW1 9395   9.808   3.230   3.374 -0.2622  1.1592 -0.7094
  760SOL    HW2 9396   9.949   3.183   3.402 -0.9050 -0.5545 -0.2467
  761SOL     OW 9397   2.909   1.424   7.883 -0.1453  0.4514 -0.2092
  761SOL    HW1 9398   2.987   1.370   7.889 -0.4981 -0.0139  0.3344
  761SOL    HW2 9399   2.928   1.500   7.938 -0.4144 -0.0995  0.6618
  762SOL     OW 9400  10.771   1.306  11.748  0.1427 -0.1394 -0.4018
  762SOL    HW1 9401  10.791   1.365  11.676  0.0313 -0.4326 -0.6773
  762SOL    HW2 9402  10.694   1.257  11.719 -1.0197  0.9864  0.6611
  763SOL     OW 9403   5.431   4.072   1.176 -0.7167 -0.1970 -0.6065
  763SOL    HW1 9404   5.507   4.015   1.164 -3.1288 -3.8013 -0.3207
  763SOL    HW2 9405   5.404   4.057   1.267 -2.9996 -0.7591 -1.3205
  764SOL     OW 9406   9.001   8.424   8.771 -0.3338 -0.1190 -0.0314
  764SOL    HW1 9407   9.089   8.443   8.804 -0.3381  0.3947 -0.3046
  764SOL    HW2 9408   8.984   8.333   8.797 -0.2254  0.1773  1.1205
  765SOL     OW 9409  10.018   5.924   9.856  0.1913  0.7033 -0.0718
  765SOL    HW1 9410  10.016   6.003   9.802 -0.4247  0.4381 -0.4501
  765SOL    HW2 9411   9.928   5.916   9.889 -0.0266 -0.4383 -0.9147
  766SOL     OW 9412   8.644   2.334   0.260  0.4698  0.4302  0.8514
  766SOL    HW1 9413   8.728   2.373   0.283  1.5828 -0.0637 -1.9183
  766SOL    HW2 9414   8.594   2.406   0.221  0.6719  0.1663  0.0813
  767SOL     OW 9415   6.983   4.900   0.004  0.2280 -0.3621 -0.2765
  767SOL    HW1 9416   6.954   4.856   0.083  1.3677 -1.3709 -0.4041
  767SOL    HW2 9417   7.039   4.971   0.035  0.8767 -0.9105 -0.1736
  768SOL     OW 9418   2.749   6.164   3.939 -0.0043 -0.3778 -0.3474
  768SOL    HW1 9419   2.699   6.093   3.898 -0.1430 -0.0357 -0.7782
  768SOL    HW2 9420   2.727   6.242   3.887 -0.2796  0.0885  0.4554
  769SOL     OW 9421   9.534   5.018   3.727 -0.3696  0.0630  0.2392
  769SOL    HW1 9422   9.591   5.037   3.652 -0.4108 -0.5481  0.0466
  769SOL    HW2 9423   9.445   5.020   3.691 -0.4176  0.2269  0.3686
  770SOL     OW 9424   1.821   8.682   4.935 -0.4146 -0.4283 -0.7253
  770SOL    HW1 9425   1.867   8.684   4.852 -2.1004  1.2730 -1.7063
  770SOL    HW2 9426   1.829   8.771   4.970 -0.9119 -0.7377  0.2270
  771SOL     OW 9427  10.369   3.892   7.623 -0.2981  0.3879 -0.0834
  771SOL    HW1 9428  10.359   3.975   7.576 -3.2693 -0.7209 -1.6621
  771SOL    HW2 9429  10.341   3.911   7.713  0.4230  1.3618 -0.0482
  772SOL     OW 9430   4.726  10.110   5.978  0.1985  0.4314  0.5983
  772SOL    HW1 9431   4.741  10.045   6.046  1.9330  0.7250  0.5375
  772SOL    HW2 9432   4.713  10.059   5.898 -0.9110  0.1193  0.9532
  773SOL     OW 9433   7.402  11.333  11.632  0.5551  0.0088  0.2163
  773SOL    HW1 9434   7.449  11.394  11.689  2.7057 -1.9996  0.6958
  773SOL    HW2 9435   7.447  11.338  11.548 -0.7052  0.6970 -0.4626
  774SOL     OW 9436   3.007   9.895   2.662  0.0449  0.2132 -0.5364
  774SOL    HW1 9437   2.998   9.841   2.741  1.3361 -1.1626 -1.2888
  774SOL    HW2 9438   3.079   9.955   2.682  0.6942 -0.4580 -0.8221
  775SOL     OW 9439   6.710   7.890   3.816  0.3145 -0.1456 -0.3351
  775SOL    HW1 9440   6.697   7.795   3.813  1.1216 -0.2757 -0.0170
  775SOL    HW2 9441   6.801   7.902   3.789  0.2697  0.5256 -0.1958
  776SOL     OW 9442  12.496  11.864   6.497  0.6608 -0.6233  0.1197
  776SOL    HW1 9443  12.507  11.855   6.403  1.8241 -0.8779  0.2672
  776SOL    HW2 9444  12.516  11.956   6.515 -0.2441 -0.4034  0.0374
  777SOL     OW 9445   6.477   8.523   2.450 -0.1636 -0.0054 -0.0530
  777SOL    HW1 9446   6.398   8.481   2.415 -0.3319  0.3753 -0.1395
  777SOL    HW2 9447   6.474   8.612   2.414  0.8048 -0.2778 -0.8245
  778SOL     OW 9448   3.805   2.193  11.297 -0.0571  0.0922  0.3150
  778SOL    HW1 9449   3.888   2.145  11.305 -0.1227 -0.1669 -0.4986
  778SOL    HW2 9450   3.742   2.140  11.346  0.0843 -0.1334  0.2567
  779SOL     OW 9451  11.700   7.498   1.831  0.1124 -0.0386  0.3465
  779SOL    HW1 9452  11.625   7.545   1.865  0.4482  0.1722  0.8111
  779SOL    HW2 9453  11.663   7.422   1.786 -0.6105  1.7204 -2.2924
  780SOL     OW 9454   7.445   9.000   7.181 -0.2352  0.0336 -0.4041
  780SOL    HW1 9455   7.538   9.021   7.187 -0.1753 -0.1723 -0.6229
  780SOL    HW2 9456   7.421   9.022   7.091 -0.0217 -1.4483 -0.8503
  781SOL     OW 9457   8.711   6.524   9.252 -0.6993  0.6210 -0.9475
  781SOL    HW1 9458   8.693   6.497   9.342 -0.4195 -0.5408 -1.2290
  781SOL    HW2 9459   8.684   6.450   9.198 -0.3219  1.0738 -1.7842
  782SOL     OW 9460  11.132   0.973   3.153 -0.1055 -0.1420 -0.2510
  782SOL    HW1 9461  11.127   0.913   3.078  0.9998  0.0489 -0.5038
  782SOL    HW2 9462  11.208   0.943   3.202 -0.5972 -0.0265  0.6004
  783SOL     OW 9463   6.279   5.768  10.496  0.1369  0.5141 -0.5218
  783SOL    HW1 9464   6.316   5.815  10.421 -0.0082  0.0924 -0.8578
  783SOL    HW2 9465   6.194   5.809  10.510 -0.2342 -0.0125 -1.1699
  784SOL     OW 9466   5.895   2.687   7.379 -0.7204  0.0754  0.3708
  784SOL    HW1 9467   5.926   2.757   7.437 -1.2603  0.7655 -0.1560
  784SOL    HW2 9468   5.943   2.702   7.297 -0.8414 -0.1675  0.2568
  785SOL     OW 9469  12.704  10.261   5.779  0.3860  0.1059  0.4838
  785SOL    HW1 9470  12.736  10.279   5.867  0.7116 -1.3233  0.6790
  785SOL    HW2 9471  12.612  10.284   5.782  0.8122  1.9514  0.6095
  786SOL     OW 9472   3.495  10.095  11.054 -0.0716  0.6006  0.3833
  786SOL    HW1 9473   3.481  10.140  10.970 -0.7082  1.0394  0.7116
  786SOL    HW2 9474   3.436  10.021  11.052  2.1852 -1.2933 -0.8748
  787SOL     OW 9475  11.473   5.077   8.663 -0.5267  0.0731  0.1874
  787SOL    HW1 9476  11.411   5.137   8.705  0.5663 -0.2611  2.3852
  787SOL    HW2 9477  11.543   5.135   8.630 -1.6946  0.4023 -1.8981
  788SOL     OW 9478  12.283   7.607   4.847 -0.1030  0.2391 -0.2239
  788SOL    HW1 9479  12.328   7.525   4.870 -0.3744 -0.1446 -1.0341
  788SOL    HW2 9480  12.318   7.629   4.760 -0.7427  0.4716 -0.4231
  789SOL     OW 9481   3.569  10.965   0.012 -0.1809 -0.4380 -0.7421
  789SOL    HW1 9482   3.664  10.967   0.012 -0.1435 -1.5112 -1.3731
  789SOL    HW2 9483   3.545  10.912   0.088 -0.1856 -1.9991 -1.7871
  790SOL     OW 9484   4.257   0.410  10.463 -0.3154 -0.2030  0.6690
  790SOL    HW1 9485   4.207   0.480  10.422 -1.2777 -0.7162  0.9366
  790SOL    HW2 9486   4.298   0.363  10.390 -0.2624  0.1895  0.4452
  791SOL     OW 9487   2.477  12.141   8.208  0.3179 -0.0321 -0.0400
  791SOL    HW1 9488   2.422  12.195   8.266  0.5195  0.3898 -0.2345
  791SOL    HW2 9489   2.430  12.142   8.124 -0.1471 -0.9214  0.1984
  792SOL     OW 9490   0.475   3.744   8.101  0.4280  0.5964 -0.6988
  792SOL    HW1 9491   0.509   3.670   8.152 -1.1126 -0.5753 -1.3032
  792SOL    HW2 9492   0.441   3.704   8.021 -2.5912  1.6193 -0.0337
  793SOL     OW 9493  12.005  12.893   3.531 -0.5253  0.5636  0.3018
  793SOL    HW1 9494  11.943  12.892   3.604 -1.0768 -0.0525 -0.1673
  793SOL    HW2 9495  11.957  12.938   3.461 -1.3554 -1.9369 -0.8287
  794SOL     OW 9496   8.936   6.103   6.510 -0.1684 -0.2016  0.2080
  794SOL    HW1 9497   8.847   6.071   6.523 -0.6187  0.8065 -0.2472
  794SOL    HW2 9498   8.970   6.118   6.598  0.4755 -2.8990  0.5058
  795SOL     OW 9499   9.966   1.308  12.865  0.1476 -0.0072 -0.0485
  795SOL    HW1 9500   9.894   1.261  12.906 -0.2475  1.3070  0.8496
  795SOL    HW2 9501   9.985   1.259  12.785 -0.4365 -1.4761  0.6778
  796SOL     OW 9502   0.749   3.857   3.282 -0.1675  0.3512 -0.7890
  796SOL    HW1 9503   0.784   3.800   3.351 -0.7310  1.0777  0.1216
  796SOL    HW2 9504   0.655   3.846   3.288 -0.4507  2.8803  0.7982
  797SOL     OW 9505   1.687   7.387  10.811  0.4027  0.3892 -0.0222
  797SOL    HW1 9506   1.594   7.385  10.836  0.2752  0.3217 -0.4955
  797SOL    HW2 9507   1.692   7.455  10.744  0.3345 -0.9048 -1.3931
  798SOL     OW 9508   8.256   0.206   5.924  0.2613  0.2184  0.1002
  798SOL    HW1 9509   8.191   0.265   5.886  0.0177 -0.5007 -0.6168
  798SOL    HW2 9510   8.339   0.232   5.885  0.1573  0.1144 -0.1940
  799SOL     OW 9511   6.128   0.175   7.142  0.3252 -0.0976 -0.1446
  799SOL    HW1 9512   6.188   0.136   7.205  1.2089  0.1028 -0.8375
  799SOL    HW2 9513   6.179   0.182   7.061 -0.5066  0.4451 -0.6415
  800SOL     OW 9514   8.756   2.756   3.831 -0.6649  0.7153  0.2864
  800SOL    HW1 9515   8.791   2.713   3.753  1.2059  1.7082  0.5216
  800SOL    HW2 9516   8.739   2.685   3.892 -2.1669 -0.0869 -0.9703
  801SOL     OW 9517   1.662   8.993   5.481  0.6159 -0.0334 -0.0133
  801SOL    HW1 9518   1.605   9.001   5.557  0.5272 -1.7089  0.1178
  801SOL    HW2 9519   1.692   8.902   5.481  1.9897  0.3764 -1.0153
  802SOL     OW 9520   0.873   6.439   2.520  0.5623  0.0801 -0.4895
  802SOL    HW1 9521   0.939   6.379   2.554 -0.2853  0.3119  1.6759
  802SOL    HW2 9522   0.897   6.524   2.558  0.6760  0.7786 -2.0437
  803SOL     OW 9523  12.650  10.700   8.351  0.3669  0.1481  0.5024
  803SOL    HW1 9524  12.651  10.778   8.295 -0.0677  0.1373  0.4829
  803SOL    HW2 9525  12.742  10.690   8.377  0.5217  0.3406  0.0552
  804SOL     OW 9526   2.366  10.820  12.732 -0.1394 -0.0432  0.1937
  804SOL    HW1 9527   2.289  10.805  12.786 -0.8198 -0.9741 -0.9702
  804SOL    HW2 9528   2.369  10.915  12.718 -2.0579 -0.1198 -1.0741
  805SOL     OW 9529  10.821   3.563  11.273 -0.0126 -0.3808  0.3468
  805SOL    HW1 9530  10.878   3.578  11.198 -0.9162 -1.3058 -0.5764
  805SOL    HW2 9531  10.880   3.541  11.345  1.0584  2.8300  0.6190
  806SOL     OW 9532   6.404  10.582   6.489  0.1126  0.1914  0.0250
  806SOL    HW1 9533   6.451  10.522   6.547 -1.3205 -2.3855 -1.2760
  806SOL    HW2 9534   6.319  10.593   6.531  0.2101  0.9609  0.0207
  807SOL     OW 9535   2.768   6.321   5.250  0.0793  0.4520  0.2404
  807SOL    HW1 9536   2.853   6.365   5.261 -0.4230  1.7518 -0.7848
  807SOL    HW2 9537   2.748   6.332   5.157 -0.0427 -2.0663 -0.0911
  808SOL     OW 9538  12.254  12.053  12.108 -0.4345  0.4041  0.2072
  808SOL    HW1 9539  12.302  11.989  12.057 -2.9298 -0.8040 -0.7739
  808SOL    HW2 9540  12.184  12.084  12.050 -1.8242  0.8778  2.0168
  809SOL     OW 9541   1.947   9.140   0.543  0.0371 -0.0558 -0.0814
  809SOL    HW1 9542   2.020   9.139   0.606  1.9362 -2.7273 -2.0909
  809SOL    HW2 9543   1.927   9.047   0.529 -1.8870  0.5484 -1.7033
  810SOL     OW 9544   0.772   7.811  11.033  0.7724 -0.0076 -0.1890
  810SOL    HW1 9545   0.793   7.787  10.943 -2.0594 -0.1300 -0.8873
  810SOL    HW2 9546   0.754   7.904  11.030 -1.4353 -0.3893 -0.2492
  811SOL     OW 9547  12.377   4.649   1.284  0.1177  0.1247  0.2793
  811SOL    HW1 9548  12.289   4.611   1.289 -0.1907  0.8166  0.1341
  811SOL    HW2 9549  12.365   4.735   1.244  0.8254  0.3430  0.5131
  812SOL     OW 9550   6.682   4.763   1.518  0.1636  0.7978 -0.0784
  812SOL    HW1 9551   6.609   4.789   1.575  0.5551 -1.7471  1.7647
  812SOL    HW2 9552   6.744   4.720   1.577  1.4533 -0.3721 -2.1567
  813SOL     OW 9553   9.728   8.302   5.412  0.0609  0.6100  0.0769
  813SOL    HW1 9554   9.778   8.316   5.332 -0.6959  1.2617 -0.3003
  813SOL    HW2 9555   9.690   8.388   5.431  0.8068  0.6452  1.5443
  814SOL     OW 9556  11.892  10.850   3.343  0.1158 -0.0344  0.5487
  814SOL    HW1 9557  11.918  10.940   3.325  0.7319 -0.6715 -2.1889
  814SOL    HW2 9558  11.966  10.811   3.389  0.6968  0.3279 -0.0710
  815SOL     OW 9559   2.417  11.607  12.043 -0.0331  0.1247 -0.2407
  815SOL    HW1 9560   2.487  11.665  12.073  0.5524 -1.5728  1.9288
  815SOL    HW2 9561   2.452  11.566  11.964  1.3707 -0.4956  0.6601
  816SOL     OW 9562   9.058  11.896  10.830 -0.1193 -0.5114  0.2966
  816SOL    HW1 9563   9.108  11.951  10.890 -0.5330 -0.4906  0.6222
  816SOL    HW2 9564   9.001  11.844  10.886 -2.6130  1.5260 -0.1852
  817SOL     OW 9565   8.958  12.202   6.005  0.3768 -0.2306  0.2448
  817SOL    HW1 9566   8.883  12.187   5.948  0.5951 -0.1053 -0.0791
  817SOL    HW2 9567   8.921  12.242   6.084  0.1990  0.6102 -0.2590
  818SOL     OW 9568   7.791   5.251   8.875 -1.1059  0.3485 -0.4656
  818SOL    HW1 9569   7.766   5.342   8.860  0.7846  0.7003 -1.9226
  818SOL    HW2 9570   7.725   5.200   8.829 -1.2957  1.0625 -1.0053
  819SOL     OW 9571  10.651   5.614  10.855 -0.3282  0.0943  0.2845
  819SOL    HW1 9572  10.708   5.604  10.932 -0.2401 -0.7946  0.1190
  819SOL    HW2 9573  10.707   5.590  10.781 -0.7005 -0.0272  0.0408
  820SOL     OW 9574   8.658  11.154  11.355  0.0436 -0.0961  0.5414
  820SOL    HW1 9575   8.642  11.095  11.281  0.3967  0.9716 -0.4190
  820SOL    HW2 9576   8.573  11.163  11.398  0.0866 -1.6810  1.0083
  821SOL     OW 9577  10.282  12.083   8.777 -0.3953 -0.5811 -0.3414
  821SOL    HW1 9578  10.297  12.005   8.831  1.6696  0.5982  0.9458
  821SOL    HW2 9579  10.245  12.147   8.838  1.5381  0.6309 -0.3719
  822SOL     OW 9580   2.100  10.634   0.655  0.3697  0.5731  0.0329
  822SOL    HW1 9581   2.138  10.685   0.584  2.1203  1.5893  1.5956
  822SOL    HW2 9582   2.173  10.583   0.690  0.1799  1.7746  2.4633
  823SOL     OW 9583  11.296   4.175   6.025 -0.8206 -0.4607 -0.3482
  823SOL    HW1 9584  11.270   4.212   6.109  1.2247 -0.8389  0.5267
  823SOL    HW2 9585  11.277   4.081   6.032 -1.0544 -0.4251 -0.4872
  824SOL     OW 9586   2.544   3.664   7.681  0.3218 -0.6475  0.2620
  824SOL    HW1 9587   2.544   3.568   7.687  3.0197 -0.8647 -1.4204
  824SOL    HW2 9588   2.458   3.686   7.645  0.3354 -2.6324 -1.1502
  825SOL     OW 9589   2.274   3.899  10.640  0.5704  0.1923  0.1246
  825SOL    HW1 9590   2.280   3.853  10.723 -1.2398 -0.6566 -0.1560
  825SOL    HW2 9591   2.354   3.951  10.635  1.4328 -0.9001  1.6776
  826SOL     OW 9592   3.352   0.232  12.218  0.3740  0.0726  0.6362
  826SOL    HW1 9593   3.314   0.315  12.190 -2.9148 -1.7673 -1.1347
  826SOL    HW2 9594   3.276   0.174  12.228  2.5565 -3.1068  0.3303
  827SOL     OW 9595   2.522   7.701  10.636 -0.1125 -0.4745 -0.3726
  827SOL    HW1 9596   2.604   7.689  10.684  0.6598  0.1563 -1.4841
  827SOL    HW2 9597   2.533   7.646  10.558 -0.4872  0.0919 -0.8265
  828SOL     OW 9598   5.325   1.806   6.635 -0.1818 -0.5228 -0.0348
  828SOL    HW1 9599   5.255   1.868   6.657  0.4299  0.8164 -1.6486
  828SOL    HW2 9600   5.279   1.731   6.598 -0.8109  0.0093 -0.3577
  829SOL     OW 9601  11.023   7.322  12.076 -0.2468 -0.6315  0.3595
  829SOL    HW1 9602  10.992   7.242  12.034  0.7630 -0.3704 -0.9564
  829SOL    HW2 9603  11.003   7.391  12.012  0.0322 -0.0115  0.9275
  830SOL     OW 9604   2.783   0.600  11.733 -0.0682  0.2912 -0.0657
  830SOL    HW1 9605   2.872   0.607  11.699  0.1296  0.7785  0.5214
  830SOL    HW2 9606   2.790   0.539  11.807 -0.2786  0.1146 -0.1878
  831SOL     OW 9607   5.128   9.302   7.674 -0.2979 -0.0864  0.4641
  831SOL    HW1 9608   5.144   9.388   7.635 -1.6086  0.7647  1.7048
  831SOL    HW2 9609   5.209   9.281   7.721  0.3263  0.0664 -0.5142
  832SOL     OW 9610   9.807   4.890   2.358 -0.0978  0.2125  0.1495
  832SOL    HW1 9611   9.822   4.804   2.399 -2.9685 -0.6450 -0.3500
  832SOL    HW2 9612   9.834   4.879   2.267 -0.5614 -0.2408  0.0581
  833SOL     OW 9613   8.005   2.870   9.373  0.1540  0.2539 -0.0928
  833SOL    HW1 9614   7.921   2.900   9.408 -0.7947 -0.9733 -1.2033
  833SOL    HW2 9615   8.009   2.905   9.284  1.0327  0.6658  0.0971
  834SOL     OW 9616   4.819   8.770   5.570 -0.2857 -0.5130  0.5826
  834SOL    HW1 9617   4.768   8.744   5.493  2.2019 -1.7617 -0.7711
  834SOL    HW2 9618   4.796   8.861   5.585 -0.5825 -0.1215 -1.8939
  835SOL     OW 9619  10.800   2.725   0.118 -0.2453 -0.1645 -0.7161
  835SOL    HW1 9620  10.769   2.692   0.033  0.1414  0.3511 -1.0636
  835SOL    HW2 9621  10.892   2.698   0.121 -0.3293 -0.4136 -0.3356
  836SOL     OW 9622   1.582   5.899  10.172 -0.2283 -0.3378  0.5919
  836SOL    HW1 9623   1.593   5.809  10.143  0.5973 -0.2378  0.5492
  836SOL    HW2 9624   1.528   5.941  10.105 -0.6935 -0.8199  0.6631
  837SOL     OW 9625   7.467   2.164   0.673 -0.8077  0.3395  0.3036
  837SOL    HW1 9626   7.399   2.229   0.656 -0.1172  0.6148 -1.5899
  837SOL    HW2 9627   7.520   2.163   0.594  1.9597  0.7697  2.0082
  838SOL     OW 9628   7.473   0.581   2.775 -0.2500 -0.3866 -0.4653
  838SOL    HW1 9629   7.439   0.500   2.736 -1.2621 -0.2568  0.1231
  838SOL    HW2 9630   7.409   0.605   2.842  0.3952  0.5309 -0.1503
  839SOL     OW 9631   8.702  11.469   9.536 -0.4112 -0.5123  0.5597
  839SOL    HW1 9632   8.690  11.550   9.488  0.8294  0.1625  1.3548
  839SOL    HW2 9633   8.659  11.485   9.620 -0.2884 -0.7334  0.6654
  840SOL     OW 9634   8.331   6.401   2.951 -0.1616 -0.4529 -0.3842
  840SOL    HW1 9635   8.295   6.358   3.028 -0.2321  0.0907 -0.1059
  840SOL    HW2 9636   8.417   6.362   2.939 -1.0101 -2.1261 -1.3492
  841SOL     OW 9637  11.912  10.291   3.234  0.2263 -0.2923 -0.2992
  841SOL    HW1 9638  11.868  10.328   3.157 -0.7615 -0.3334  0.2337
  841SOL    HW2 9639  11.936  10.367   3.287  2.7227 -0.0942 -1.5321
  842SOL     OW 9640   1.277   4.973  10.222 -0.2891 -0.5871 -0.0715
  842SOL    HW1 9641   1.313   4.979  10.311  1.2239 -0.5249 -0.6670
  842SOL    HW2 9642   1.253   4.881  10.213  1.9805 -1.1961 -0.4661
  843SOL     OW 9643   5.397   8.546  10.331 -0.2776  0.6059  0.3356
  843SOL    HW1 9644   5.370   8.508  10.415 -2.2524  1.6394  0.2184
  843SOL    HW2 9645   5.388   8.473  10.269 -1.0626  0.4349  0.6344
  844SOL     OW 9646   8.874   4.350  12.105 -0.4937  0.6905  0.0132
  844SOL    HW1 9647   8.959   4.328  12.142 -0.8768 -1.5384 -0.2816
  844SOL    HW2 9648   8.861   4.443  12.127  1.8163  0.9852  0.3639
  845SOL     OW 9649  11.380   1.616   1.476  0.2718 -0.4813  0.2919
  845SOL    HW1 9650  11.306   1.670   1.502 -0.9462 -2.7188  1.8187
  845SOL    HW2 9651  11.343   1.552   1.415  0.8998 -1.6612  1.1095
  846SOL     OW 9652   2.080   6.871   9.040 -0.4396 -0.5233 -0.1634
  846SOL    HW1 9653   2.009   6.869   9.104  0.6105  2.0066  1.2469
  846SOL    HW2 9654   2.149   6.816   9.077 -0.6697 -0.8726 -0.2506
  847SOL     OW 9655  12.391  10.881   4.957  0.0972  0.1253  0.3117
  847SOL    HW1 9656  12.432  10.888   4.871  0.3254  1.2503  0.5008
  847SOL    HW2 9657  12.297  10.893   4.940  0.1238  0.1624  0.1950
  848SOL     OW 9658   9.770   6.963   0.490 -0.4104  0.3507  0.4467
  848SOL    HW1 9659   9.714   6.908   0.436  0.7317  0.3225 -0.7547
  848SOL    HW2 9660   9.719   6.979   0.570 -1.5483 -0.7915 -0.0272
  849SOL     OW 9661   3.884   5.976  12.182  0.2375  0.1743 -0.2892
  849SOL    HW1 9662   3.870   5.940  12.269  0.4596  0.7149 -0.0227
  849SOL    HW2 9663   3.820   6.048  12.175 -1.0097 -0.9859 -1.2590
  850SOL     OW 9664   0.606   7.798   9.882 -0.6271  0.4515  0.0879
  850SOL    HW1 9665   0.572   7.733   9.943  1.8586 -2.4824 -1.3576
  850SOL    HW2 9666   0.699   7.804   9.902 -0.4655  2.2637 -1.0015
  851SOL     OW 9667   1.458   2.832   7.410  0.3983 -0.1382 -0.4583
  851SOL    HW1 9668   1.537   2.885   7.422  0.0919  0.4331 -0.9228
  851SOL    HW2 9669   1.414   2.871   7.335 -0.2589 -0.5405 -0.2897
  852SOL     OW 9670   9.736  11.354   2.724 -0.2615 -0.1653  0.3276
  852SOL    HW1 9671   9.705  11.301   2.651 -1.2314  0.1667  0.4898
  852SOL    HW2 9672   9.696  11.315   2.801 -1.0655  0.8499  0.4363
  853SOL     OW 9673   2.780  10.384   8.375 -0.3148  0.0781  0.4163
  853SOL    HW1 9674   2.795  10.356   8.285 -0.5456 -0.6407  0.5888
  853SOL    HW2 9675   2.779  10.479   8.372 -0.6010  0.0539 -0.3876
  854SOL     OW 9676   4.799   8.288   6.650 -0.4975  0.6742  0.4484
  854SOL    HW1 9677   4.776   8.361   6.592 -1.2660  0.5935  0.6328
  854SOL    HW2 9678   4.883   8.257   6.618 -0.5444  1.1365 -0.1345
  855SOL     OW 9679   0.681   3.152   9.287 -0.3017  0.2151 -0.2654
  855SOL    HW1 9680   0.642   3.100   9.217 -0.7571  0.0770  0.0849
  855SOL    HW2 9681   0.636   3.123   9.367  0.7691 -0.2195  0.2114
  856SOL     OW 9682   5.212   2.486   0.648 -0.2807 -0.0954  0.0223
  856SOL    HW1 9683   5.156   2.560   0.669 -0.2219 -0.5285  1.9283
  856SOL    HW2 9684   5.299   2.524   0.636 -0.2939  0.1840  0.7607
  857SOL     OW 9685   4.758   1.377   7.779 -0.4415  0.4447 -0.3234
  857SOL    HW1 9686   4.686   1.400   7.837  0.0810  1.2285  0.0351
  857SOL    HW2 9687   4.833   1.363   7.838 -0.4493 -1.0460 -0.6278
  858SOL     OW 9688   5.088   0.559   6.055 -0.1364 -0.1018  0.1844
  858SOL    HW1 9689   5.139   0.631   6.018 -0.2972  1.3048  2.5138
  858SOL    HW2 9690   5.152   0.490   6.074  0.1352 -0.2971 -1.2996
  859SOL     OW 9691   6.819  10.730   6.481  0.7671 -0.9261  0.0924
  859SOL    HW1 9692   6.853  10.818   6.498  0.7487 -0.7873 -0.5843
  859SOL    HW2 9693   6.724  10.741   6.486  0.7378 -0.7327 -0.8200
  860SOL     OW 9694   1.590   1.056   5.454  0.2203 -0.2287  0.1647
  860SOL    HW1 9695   1.537   0.992   5.407  1.5251 -0.5370 -0.9505
  860SOL    HW2 9696   1.668   1.067   5.400  1.9884 -0.8777  2.4176
  861SOL     OW 9697  12.251  11.866   2.856 -0.0216  0.0137  0.0402
  861SOL    HW1 9698  12.310  11.940   2.868  1.0244 -0.6799 -0.6107
  861SOL    HW2 9699  12.308  11.795   2.825 -1.4226 -0.2464 -2.1415
  862SOL     OW 9700   6.023  10.189   2.183 -0.1773  0.2332 -0.0330
  862SOL    HW1 9701   6.011  10.096   2.199 -0.4210  0.0856 -0.9840
  862SOL    HW2 9702   6.098  10.214   2.236 -0.1663 -0.4833  0.2920
  863SOL     OW 9703   0.721   7.707   1.326 -0.3256 -0.2663 -0.4792
  863SOL    HW1 9704   0.731   7.719   1.421 -0.3116 -0.0169 -0.5134
  863SOL    HW2 9705   0.716   7.612   1.315 -0.6807 -0.2828 -0.1897
  864SOL     OW 9706   2.530   3.648   6.290 -0.1714 -0.6034  0.2191
  864SOL    HW1 9707   2.495   3.560   6.274  0.2162 -0.6993 -0.1199
  864SOL    HW2 9708   2.546   3.650   6.385 -0.5646 -0.7515  0.2904
  865SOL     OW 9709   7.605   3.211   1.634  0.1820  0.1355  0.3414
  865SOL    HW1 9710   7.555   3.217   1.715  0.4630 -1.6101  0.6634
  865SOL    HW2 9711   7.658   3.132   1.643 -1.2999 -1.3354 -2.3491
  866SOL     OW 9712   3.969  10.297  11.526 -0.1127 -0.5785  0.6595
  866SOL    HW1 9713   3.887  10.336  11.495 -0.1604 -2.2434 -1.5505
  866SOL    HW2 9714   4.033  10.368  11.519 -0.9359  0.1530  0.3395
  867SOL     OW 9715  11.976   8.436   8.074 -0.3404  0.8168 -0.3096
  867SOL    HW1 9716  12.043   8.441   8.005 -0.9801  1.0510 -0.9297
  867SOL    HW2 9717  11.917   8.508   8.055 -3.4676 -2.0579 -2.6833
  868SOL     OW 9718   1.660   6.599   8.646  0.2461 -0.2557  0.5819
  868SOL    HW1 9719   1.683   6.660   8.717 -0.7737  1.0184 -0.1317
  868SOL    HW2 9720   1.600   6.649   8.591  0.6846 -1.3678 -0.9542
  869SOL     OW 9721   8.637   2.085   7.800 -0.5456 -0.2247 -0.5563
  869SOL    HW1 9722   8.625   2.037   7.717 -0.9732 -0.7193 -0.2128
  869SOL    HW2 9723   8.672   2.170   7.773  0.3673 -0.7731 -1.1664
  870SOL     OW 9724   2.727   0.242   6.416  0.0387 -0.0467  0.6729
  870SOL    HW1 9725   2.768   0.324   6.388  0.0598 -0.1684  0.3437
  870SOL    HW2 9726   2.782   0.174   6.379  0.0075 -0.2126  0.9281
  871SOL     OW 9727   9.888  11.446   5.609 -0.4083 -0.0006  0.1830
  871SOL    HW1 9728   9.979  11.452   5.637 -0.7419 -0.1139  1.3237
  871SOL    HW2 9729   9.873  11.526   5.558 -0.0132  0.6137  1.0069
  872SOL     OW 9730  10.881   6.941   6.695  0.3067  0.1191  0.1321
  872SOL    HW1 9731  10.820   7.001   6.652  1.8634  0.3970 -1.8440
  872SOL    HW2 9732  10.870   6.858   6.649  1.5380  0.2359 -0.4076
  873SOL     OW 9733   6.660  12.259   8.440 -0.6502 -0.3000  0.0190
  873SOL    HW1 9734   6.617  12.173   8.431  1.9758 -1.4917 -2.8323
  873SOL    HW2 9735   6.717  12.248   8.516 -1.5125 -0.4789  0.6618
  874SOL     OW 9736  10.458  11.750   1.428  0.0732 -0.0674 -0.5957
  874SOL    HW1 9737  10.481  11.741   1.336  0.3412  1.2714 -0.6666
  874SOL    HW2 9738  10.424  11.663   1.452  0.1778 -0.4894 -1.8867
  875SOL     OW 9739   0.517  12.321   5.788 -0.1419  0.0618 -0.2148
  875SOL    HW1 9740   0.483  12.271   5.714 -1.1983  1.3763 -0.6702
  875SOL    HW2 9741   0.446  12.382   5.810 -0.6117 -1.4893  3.0848
  876SOL     OW 9742   8.893  10.395   2.032  0.6107 -0.2565  0.6282
  876SOL    HW1 9743   8.930  10.318   2.074  0.7826 -0.2711  0.4487
  876SOL    HW2 9744   8.834  10.360   1.966  1.5397 -0.2472 -0.2260
  877SOL     OW 9745   3.813   4.787   6.468  0.3904  0.0166  0.7861
  877SOL    HW1 9746   3.827   4.834   6.550  0.6849 -0.3278  0.9360
  877SOL    HW2 9747   3.768   4.850   6.411 -0.1390  0.1345  1.3328
  878SOL     OW 9748  12.623   3.163   4.799 -0.5306  0.2041  0.1245
  878SOL    HW1 9749  12.620   3.156   4.894  2.1468  2.5448  0.5369
  878SOL    HW2 9750  12.713   3.189   4.780 -0.9761 -0.2046 -3.0660
  879SOL     OW 9751  10.242  10.875   5.364 -0.2672  0.2377 -0.1992
  879SOL    HW1 9752  10.233  10.818   5.288 -1.2332  0.0673  0.0290
  879SOL    HW2 9753  10.307  10.940   5.337 -0.4030  0.0271 -1.0759
  880SOL     OW 9754   8.029  12.938  11.625  0.4324 -0.5182  0.3282
  880SOL    HW1 9755   7.985  12.859  11.656  0.1228  0.0850  1.4690
  880SOL    HW2 9756   7.968  13.009  11.645 -0.1084 -0.1134 -2.2947
  881SOL     OW 9757   9.904   1.901   6.041 -0.4577 -0.2082 -0.3787
  881SOL    HW1 9758   9.878   1.816   6.076  3.3459 -1.2395  0.4032
  881SOL    HW2 9759   9.885   1.896   5.947 -1.5556 -1.3375 -0.1171
  882SOL     OW 9760   0.799   4.332   6.801  0.3951 -0.3821  0.0387
  882SOL    HW1 9761   0.858   4.275   6.752  3.0485  2.2957 -0.1287
  882SOL    HW2 9762   0.735   4.362   6.736 -0.0742 -1.8432 -0.2123
  883SOL     OW 9763   0.609   2.685   4.378 -0.1309 -0.0164 -0.2445
  883SOL    HW1 9764   0.530   2.676   4.431 -0.4678  1.1110 -0.5325
  883SOL    HW2 9765   0.576   2.702   4.289  0.3886  2.0163 -0.1027
  884SOL     OW 9766  10.689  10.229   4.394  0.1395  0.1250  0.0493
  884SOL    HW1 9767  10.632  10.174   4.341 -1.0864  0.3867  1.0429
  884SOL    HW2 9768  10.645  10.236   4.478  0.6981  1.8839  0.2551
  885SOL     OW 9769   1.436   4.730  11.755  0.1143  0.5719 -0.0188
  885SOL    HW1 9770   1.479   4.672  11.692 -0.9880 -0.2323 -0.0588
  885SOL    HW2 9771   1.423   4.811  11.706  0.2772  0.3378 -0.4620
  886SOL     OW 9772   8.002  10.459   4.665  0.4151 -0.2500 -0.3752
  886SOL    HW1 9773   7.917  10.502   4.670  0.2095 -0.5110 -1.4472
  886SOL    HW2 9774   8.056  10.506   4.729 -0.3329  0.3677 -0.1851
  887SOL     OW 9775   2.094  10.528   7.361 -0.8350  0.1693 -0.3182
  887SOL    HW1 9776   2.125  10.439   7.345  1.1614  0.9489 -0.9469
  887SOL    HW2 9777   2.119  10.546   7.452  2.1213  1.3416 -1.2723
  888SOL     OW 9778   1.471   8.675   4.311 -0.8256  0.0024 -0.2883
  888SOL    HW1 9779   1.471   8.753   4.365 -0.2786 -0.4235  0.3435
  888SOL    HW2 9780   1.432   8.703   4.228  0.1798  1.1638 -0.3919
  889SOL     OW 9781   5.547   3.177   6.012 -0.0163 -0.8374  0.5175
  889SOL    HW1 9782   5.454   3.194   6.005  0.1006 -0.2202  0.4720
  889SOL    HW2 9783   5.553   3.081   6.021 -0.5185 -1.1689 -1.9676
  890SOL     OW 9784  12.346   6.839  10.045 -0.6914  0.6131  1.0035
  890SOL    HW1 9785  12.325   6.750  10.074 -0.9501  0.0707 -0.7694
  890SOL    HW2 9786  12.261   6.881  10.034 -0.7354  0.0132 -1.3104
  891SOL     OW 9787  11.065  10.372   4.532  0.3296  0.0001 -0.0097
  891SOL    HW1 9788  11.002  10.382   4.603  0.8801 -0.3837  0.5370
  891SOL    HW2 9789  11.016  10.396   4.453 -0.1147  1.0333  0.5555
  892SOL     OW 9790  12.706   1.711   6.197  0.3290  0.1305  0.0405
  892SOL    HW1 9791  12.799   1.724   6.212 -0.0843  3.0597  0.6878
  892SOL    HW2 9792  12.692   1.742   6.107  0.0515 -0.8292 -0.2543
  893SOL     OW 9793   4.433   4.446  10.745 -0.5058 -0.2547 -0.0972
  893SOL    HW1 9794   4.399   4.535  10.740  0.6275  0.2182  0.2812
  893SOL    HW2 9795   4.376   4.395  10.687 -1.7998  0.5029  0.4637
  894SOL     OW 9796   3.558   5.229   5.020 -0.2546  0.8404 -0.4307
  894SOL    HW1 9797   3.614   5.191   4.952  0.3441  0.3180  0.3448
  894SOL    HW2 9798   3.478   5.255   4.973  0.1505  0.5002 -1.3329
  895SOL     OW 9799   5.465   7.179   3.389  0.2692 -0.6350 -0.4460
  895SOL    HW1 9800   5.445   7.250   3.328 -1.2829 -2.2605 -1.9592
  895SOL    HW2 9801   5.386   7.172   3.444  0.8677 -0.4747  0.4571
  896SOL     OW 9802   0.993   3.746   2.322 -0.0909 -0.1771  0.1290
  896SOL    HW1 9803   1.064   3.708   2.270  0.7292  0.5732  0.6899
  896SOL    HW2 9804   1.034   3.816   2.372 -1.2276  0.2543  0.4820
  897SOL     OW 9805   8.286   2.146   4.863 -1.5338  0.1743 -0.6213
  897SOL    HW1 9806   8.216   2.176   4.806 -1.0649 -0.7226 -1.7111
  897SOL    HW2 9807   8.304   2.056   4.834  1.4184  1.0115 -1.7415
  898SOL     OW 9808   4.789   2.137   5.021  0.2176 -0.5443 -0.2452
  898SOL    HW1 9809   4.755   2.056   5.058  0.8469  0.4451  2.7417
  898SOL    HW2 9810   4.868   2.156   5.070  1.4343  0.7070 -2.4920
  899SOL     OW 9811   2.579   0.445  11.981  0.2166 -0.0248  0.2501
  899SOL    HW1 9812   2.613   0.358  12.003  0.7857  0.2195  0.3788
  899SOL    HW2 9813   2.489   0.430  11.955  0.3329 -0.6663  0.1930
  900SOL     OW 9814   7.508   9.621  12.398  0.6858  0.1848 -0.0061
  900SOL    HW1 9815   7.587   9.605  12.347  0.2536 -0.4430 -0.5075
  900SOL    HW2 9816   7.505   9.548  12.461  0.1657 -0.1642 -0.4298
  901SOL     OW 9817   4.482   0.948   1.387  0.0188  0.6415 -0.0790
  901SOL    HW1 9818   4.466   0.989   1.302 -0.2890  0.5217 -0.0798
  901SOL    HW2 9819   4.399   0.906   1.410  0.5752 -0.7564 -0.4908
  902SOL     OW 9820   0.485   3.154   6.204 -0.1849 -0.0977  0.7865
  902SOL    HW1 9821   0.392   3.134   6.209 -0.5452  1.5103  0.9576
  902SOL    HW2 9822   0.489   3.248   6.184  1.3979 -0.0089  1.3623
  903SOL     OW 9823   8.967   5.846   2.770 -0.0561  0.1277 -0.3631
  903SOL    HW1 9824   9.016   5.771   2.803  1.6491  1.3123  0.0003
  903SOL    HW2 9825   8.910   5.872   2.842  2.2021  1.4912  1.0691
  904SOL     OW 9826   5.659  12.561  11.394  0.3899  0.3417 -0.0217
  904SOL    HW1 9827   5.700  12.474  11.398  0.9856  0.5493 -1.1243
  904SOL    HW2 9828   5.567  12.543  11.375  0.1925 -0.0904  1.2506
  905SOL     OW 9829  12.801   6.920   2.754 -0.0111 -0.2878 -0.2134
  905SOL    HW1 9830  12.867   6.928   2.824 -0.2025  2.1906 -0.2272
  905SOL    HW2 9831  12.844   6.868   2.687  0.7019 -1.5138  1.1377
  906SOL     OW 9832   0.903   7.663   2.521  0.2480 -0.3032 -0.1286
  906SOL    HW1 9833   0.939   7.696   2.439 -0.6759  1.5410  0.1645
  906SOL    HW2 9834   0.959   7.699   2.589 -1.2707  1.4805  0.2480
  907SOL     OW 9835  11.790   5.963  11.066  0.3626  0.2752  0.1678
  907SOL    HW1 9836  11.820   6.051  11.045 -0.1439  0.3192 -0.3921
  907SOL    HW2 9837  11.774   5.921  10.981  0.6699 -0.3839  0.4251
  908SOL     OW 9838   3.993  11.429   4.414  0.1423  0.3062  0.3649
  908SOL    HW1 9839   3.898  11.413   4.416  0.1813  0.0246  0.1275
  908SOL    HW2 9840   4.017  11.414   4.322  0.7402 -1.6062  0.7856
  909SOL     OW 9841   6.491  11.023   8.999 -0.7128  0.4423  0.1550
  909SOL    HW1 9842   6.425  11.067   8.945  0.9393 -0.3314 -2.7166
  909SOL    HW2 9843   6.519  11.090   9.061 -2.4762  1.5071 -0.1044
  910SOL     OW 9844   4.317   7.705  11.669 -0.1772  0.0892 -0.1640
  910SOL    HW1 9845   4.282   7.777  11.721  1.6856  1.0831 -0.2035
  910SOL    HW2 9846   4.412   7.712  11.680  0.0614 -2.3922 -0.1425
  911SOL     OW 9847   7.030   4.446   8.069  0.1861  1.0158 -0.3441
  911SOL    HW1 9848   7.094   4.435   7.999  1.2512  2.7214  0.3036
  911SOL    HW2 9849   6.960   4.498   8.030  0.9077  2.1973 -0.0938
  912SOL     OW 9850   4.575  11.861   1.390  0.4407 -0.0629 -0.1169
  912SOL    HW1 9851   4.505  11.808   1.428  0.0988  1.3352  1.3137
  912SOL    HW2 9852   4.617  11.903   1.465  1.7967  0.3777 -1.0726
  913SOL     OW 9853   6.887   3.670   4.295  0.0309  0.4631 -0.1002
  913SOL    HW1 9854   6.831   3.595   4.316 -1.3583  1.9859  2.0746
  913SOL    HW2 9855   6.871   3.732   4.366  0.4276  3.2156 -2.2512
  914SOL     OW 9856   0.541  10.004   6.054 -0.1484 -0.6314  0.6416
  914SOL    HW1 9857   0.632  10.007   6.083 -0.3125  0.1174  1.0915
  914SOL    HW2 9858   0.520  10.094   6.029 -0.6950 -0.8404  0.3255
  915SOL     OW 9859   8.161   3.439   5.051  0.5280 -0.7830  0.3190
  915SOL    HW1 9860   8.102   3.512   5.070 -0.2518 -0.8031 -1.8301
  915SOL    HW2 9861   8.207   3.424   5.134  0.7487  2.1525  0.8337
  916SOL     OW 9862   5.441   8.241   5.368 -0.2268 -0.4438 -0.4680
  916SOL    HW1 9863   5.448   8.215   5.460 -2.0612 -0.6475 -0.3445
  916SOL    HW2 9864   5.371   8.186   5.333 -0.2631  0.3576 -1.7156
  917SOL     OW 9865   8.719   9.111   1.220 -0.3624 -0.4989 -0.6614
  917SOL    HW1 9866   8.767   9.028   1.219  1.4912  0.4724  0.5154
  917SOL    HW2 9867   8.631   9.088   1.249  0.6891 -1.8471  1.7417
  918SOL     OW 9868   0.119   4.380  10.393  0.4421 -0.0802  0.1311
  918SOL    HW1 9869   0.098   4.466  10.428 -0.4473  0.0690 -0.7257
  918SOL    HW2 9870   0.100   4.319  10.464 -0.6958  0.2737  0.1552
  919SOL     OW 9871   8.101   1.926   5.036 -0.1233 -0.0439  0.1294
  919SOL    HW1 9872   8.145   1.959   4.958  2.8208 -2.1946  0.6951
  919SOL    HW2 9873   8.099   2.001   5.096  1.3107  0.5668 -0.5433
  920SOL     OW 9874  12.318  11.979  12.683  0.0568  0.1803 -0.2601
  920SOL    HW1 9875  12.252  11.909  12.691 -0.0401 -0.0267 -2.4041
  920SOL    HW2 9876  12.393  11.936  12.641  0.6648  0.9861 -0.0121
  921SOL     OW 9877   7.955  12.373  12.545  0.0523  0.2941 -0.3453
  921SOL    HW1 9878   8.016  12.299  12.542 -0.1147  0.1923 -1.5407
  921SOL    HW2 9879   7.948  12.402  12.455 -2.2806 -0.2057 -0.3939
  922SOL     OW 9880   4.964   1.182   1.370  0.4081  0.4952 -0.4481
  922SOL    HW1 9881   4.937   1.092   1.391  1.6535  0.0909 -0.4952
  922SOL    HW2 9882   4.888   1.236   1.394 -0.0938 -0.4891  0.2717
  923SOL     OW 9883   2.867   1.513   1.033 -0.8747  0.1206 -0.1978
  923SOL    HW1 9884   2.871   1.507   0.938  0.7667  0.7536 -0.1977
  923SOL    HW2 9885   2.925   1.444   1.065 -1.6332 -0.2718  0.3634
  924SOL     OW 9886   5.542   8.993   8.501 -0.2298  0.1007  0.1380
  924SOL    HW1 9887   5.572   9.076   8.464 -0.3277  0.2919  0.4865
  924SOL    HW2 9888   5.593   8.926   8.455  0.4041  0.3966  0.4002
  925SOL     OW 9889   5.660   8.753   4.735  0.0697 -0.2260  0.2316
  925SOL    HW1 9890   5.719   8.680   4.713  2.0841  0.7799  1.9538
  925SOL    HW2 9891   5.708   8.831   4.711 -0.9458  0.6135  0.8401
  926SOL     OW 9892   0.548   1.142   8.512 -0.0388  0.1525 -0.2703
  926SOL    HW1 9893   0.619   1.205   8.525  0.9725 -0.9801 -0.1263
  926SOL    HW2 9894   0.521   1.155   8.421  0.4273  0.5304 -0.3599
  927SOL     OW 9895   6.758   8.095   2.691  0.8523 -0.6193  0.2956
  927SOL    HW1 9896   6.705   8.171   2.666  1.3169 -0.7128 -1.1093
  927SOL    HW2 9897   6.791   8.115   2.778 -1.2593 -0.4441  1.1125
  928SOL     OW 9898   6.726   8.237   9.202 -0.1057  0.2480  0.0237
  928SOL    HW1 9899   6.821   8.231   9.207 -0.1625 -0.3568  0.4351
  928SOL    HW2 9900   6.704   8.317   9.250  0.1221 -0.1463  0.7927
  929SOL     OW 9901   5.834   6.071   7.969 -0.2217 -0.1377  0.1775
  929SOL    HW1 9902   5.857   6.162   7.947 -0.6261  0.1471  0.9105
  929SOL    HW2 9903   5.880   6.053   8.051 -2.1561  0.2837  1.4120
  930SOL     OW 9904  10.169  12.562   8.393  0.5117 -0.2645 -0.5935
  930SOL    HW1 9905  10.101  12.503   8.427 -0.9719  0.9620 -1.3453
  930SOL    HW2 9906  10.187  12.622   8.465 -1.1145  1.0169 -1.1967
  931SOL     OW 9907   6.976  11.960  11.788 -0.4601 -0.3316 -0.0065
  931SOL    HW1 9908   6.987  11.870  11.757  0.9203 -1.0342  2.3023
  931SOL    HW2 9909   6.974  12.012  11.708  0.4306 -2.2477 -1.3675
  932SOL     OW 9910  10.262  11.785  11.837 -0.5103  0.0321  0.3983
  932SOL    HW1 9911  10.319  11.735  11.895 -0.9039 -0.4981  0.3361
  932SOL    HW2 9912  10.321  11.838  11.784 -0.0763 -0.5077  0.3384
  933SOL     OW 9913  10.787  12.265   6.089 -0.2183  0.3026  0.4399
  933SOL    HW1 9914  10.762  12.284   5.999 -0.9734 -0.7247  0.4260
  933SOL    HW2 9915  10.744  12.333   6.141 -0.1228  0.6473  0.0681
  934SOL     OW 9916   1.343   8.692   6.887  0.3305 -0.2940 -0.2514
  934SOL    HW1 9917   1.351   8.783   6.915 -0.4031 -0.7827  1.7492
  934SOL    HW2 9918   1.254   8.685   6.852 -0.4614 -0.6878  1.6911
  935SOL     OW 9919   8.564   4.210   5.931 -0.2838 -0.1097 -0.6801
  935SOL    HW1 9920   8.594   4.301   5.927 -0.8032  0.0821 -0.2634
  935SOL    HW2 9921   8.539   4.196   6.022 -1.1905 -0.3509 -0.9535
  936SOL     OW 9922   8.857   3.139   8.160  0.1030  0.0838  0.2070
  936SOL    HW1 9923   8.919   3.209   8.137 -1.2927  1.6910  1.1468
  936SOL    HW2 9924   8.816   3.115   8.077  1.7384 -0.8259 -0.3881
  937SOL     OW 9925   3.440   9.775   8.890  0.3856 -0.1558 -0.3153
  937SOL    HW1 9926   3.516   9.808   8.938  1.9369 -2.1072 -1.2527
  937SOL    HW2 9927   3.439   9.681   8.910 -3.0340  0.0685  1.2438
  938SOL     OW 9928   7.116  10.792   0.121  0.4445  0.2542 -0.5883
  938SOL    HW1 9929   7.160  10.863   0.074  3.1667 -0.8583  0.0677
  938SOL    HW2 9930   7.069  10.744   0.054  1.6761  0.5259 -1.6913
  939SOL     OW 9931   3.651   2.926  11.593  0.0686  0.5659  0.3706
  939SOL    HW1 9932   3.643   2.958  11.683  0.5643  2.8905 -0.3502
  939SOL    HW2 9933   3.614   2.838  11.596  0.8149  0.2642  3.0114
  940SOL     OW 9934   7.272   3.383   0.402  0.6215  0.4374  0.2833
  940SOL    HW1 9935   7.323   3.382   0.483  0.4519 -0.1391  0.3919
  940SOL    HW2 9936   7.262   3.475   0.381 -0.1700  0.6458  1.4477
  941SOL     OW 9937   4.795   5.490   2.044 -0.5963  0.2710 -0.3727
  941SOL    HW1 9938   4.759   5.406   2.072 -0.0196  0.6592  1.6550
  941SOL    HW2 9939   4.796   5.544   2.123 -0.0646  1.8736 -1.4304
  942SOL     OW 9940   8.736   0.056   0.246 -0.4680 -0.4241 -0.0578
  942SOL    HW1 9941   8.817   0.039   0.294 -0.1123  1.7521  0.1810
  942SOL    HW2 9942   8.666   0.040   0.309 -0.0263  1.7345  1.0584
  943SOL     OW 9943   3.062   4.791   2.156  0.3284 -0.3665 -0.2372
  943SOL    HW1 9944   3.039   4.783   2.063  0.3391  1.3065 -0.4036
  943SOL    HW2 9945   2.982   4.822   2.198  0.6752  0.0869  0.0982
  944SOL     OW 9946   2.258   1.564   3.437  0.2796  1.1164  0.2003
  944SOL    HW1 9947   2.176   1.611   3.449 -1.1280 -1.2211  0.4909
  944SOL    HW2 9948   2.255   1.534   3.346  0.0013 -0.3019  0.6480
  945SOL     OW 9949  11.782   4.428   3.302  0.2647 -0.0129  1.0452
  945SOL    HW1 9950  11.807   4.451   3.212 -1.9365 -0.2633  0.3059
  945SOL    HW2 9951  11.841   4.480   3.357  0.7106  1.2476 -0.5334
  946SOL     OW 9952   1.267   1.606  11.179  0.4298  0.0054  0.2975
  946SOL    HW1 9953   1.328   1.613  11.253  2.4232  2.8299 -1.4117
  946SOL    HW2 9954   1.242   1.697  11.160 -0.0630 -0.6051 -2.3928
  947SOL     OW 9955   2.477   4.742   4.220 -0.4275  0.0832 -0.1181
  947SOL    HW1 9956   2.532   4.689   4.163  0.4839  1.1772 -0.2849
  947SOL    HW2 9957   2.504   4.716   4.309 -0.6196 -0.3679 -0.1888
  948SOL     OW 9958   5.473   8.252  11.330  0.2825 -0.0246  0.2101
  948SOL    HW1 9959   5.488   8.167  11.373 -4.2177 -2.3359 -2.1540
  948SOL    HW2 9960   5.392   8.285  11.368  0.2015  1.6155 -1.2549
  949SOL     OW 9961   6.417   0.966   9.102  0.2785 -0.7408  0.4310
  949SOL    HW1 9962   6.332   0.938   9.070 -0.0848 -0.5465  1.2023
  949SOL    HW2 9963   6.480   0.931   9.038 -0.5360  1.6923 -1.9118
  950SOL     OW 9964   7.098   1.112   5.892 -0.3308  0.0196 -0.6018
  950SOL    HW1 9965   7.132   1.075   5.973  0.5698 -0.7837 -1.3330
  950SOL    HW2 9966   7.063   1.197   5.918  0.2709 -0.0688  0.5592
  951SOL     OW 9967   2.313  11.321  12.019  0.1184 -0.4304  0.4982
  951SOL    HW1 9968   2.332  11.415  12.027 -1.7054 -0.0728  1.0064
  951SOL    HW2 9969   2.284  11.310  11.929 -2.1336  0.0239  1.1098
  952SOL     OW 9970   0.298   5.154   6.830  0.4618  0.1755  0.4852
  952SOL    HW1 9971   0.331   5.096   6.898  1.1973  1.4475  1.2457
  952SOL    HW2 9972   0.265   5.095   6.762  0.0017 -1.1170  1.7881
  953SOL     OW 9973   2.519   8.092  10.183 -0.1043 -0.0559 -0.4238
  953SOL    HW1 9974   2.540   7.998  10.183 -0.7068 -0.1939 -0.3566
  953SOL    HW2 9975   2.461   8.103  10.108  0.0239  0.2825 -0.4738
  954SOL     OW 9976  12.376   8.402   2.950 -0.7585 -0.2170  0.0990
  954SOL    HW1 9977  12.340   8.353   3.024 -2.3355 -1.3463 -1.3489
  954SOL    HW2 9978  12.447   8.347   2.917 -0.6225 -0.1270  0.2418
  955SOL     OW 9979   8.562   3.205  12.744 -0.3398 -0.1559  0.4098
  955SOL    HW1 9980   8.502   3.191  12.817  1.7454 -0.1046  2.2683
  955SOL    HW2 9981   8.581   3.118  12.711  0.7064 -0.4518  1.7145
  956SOL     OW 9982  10.690  11.332   0.266 -0.6749 -0.1075  0.1379
  956SOL    HW1 9983  10.614  11.312   0.211 -0.1442 -1.6219 -0.0888
  956SOL    HW2 9984  10.750  11.378   0.207 -0.9577  0.1205  0.0217
  957SOL     OW 9985   4.239   3.352  10.519 -0.7579  0.3855 -0.1295
  957SOL    HW1 9986   4.270   3.385  10.604  1.2283 -0.5138 -0.4429
  957SOL    HW2 9987   4.211   3.262  10.538  1.3686 -0.4597 -0.6721
  958SOL     OW 9988   0.255  10.075  10.330  0.4079 -0.0545 -0.0781
  958SOL    HW1 9989   0.282  10.166  10.327  1.4161 -0.3638 -1.0594
  958SOL    HW2 9990   0.162  10.076  10.308  0.2023  0.7990  0.7704
  959SOL     OW 9991   2.305  10.953   1.657  0.2483  0.4921 -0.0782
  959SOL    HW1 9992   2.337  10.900   1.730  0.1450  1.0060  0.3446
  959SOL    HW2 9993   2.214  10.926   1.646 -0.1301  1.3209  0.8384
  960SOL     OW 9994   3.618  10.597   1.704  0.0566 -1.0753 -0.0689
  960SOL    HW1 9995   3.710  10.584   1.730  0.0392  0.4002  0.8377
  960SOL    HW2 9996   3.614  10.688   1.677 -0.7211 -1.6670 -2.1133
  961SOL     OW 9997   6.880   4.169   6.983 -0.3774 -0.0816  0.1470
  961SOL    HW1 9998   6.821   4.239   7.012 -1.2185  0.4069 -2.4702
  961SOL    HW2 9999   6.928   4.207   6.909  1.8764 -1.1116  0.9989
  962SOL     OW10000   9.137   3.806   2.975 -0.6943  0.7243 -0.8862
  962SOL    HW110001   9.093   3.861   2.910  0.1001 -0.4654 -2.4922
  962SOL    HW210002   9.164   3.728   2.927  2.5478  1.0552  0.1663
  963SOL     OW10003   1.723   5.962   3.264  0.9198  0.3696  1.0646
  963SOL    HW110004   1.777   6.024   3.312  0.7859  0.3795  1.2035
  963SOL    HW210005   1.773   5.881   3.264  1.7670  0.8660 -0.3810
  964SOL     OW10006   0.807  10.185   6.976 -0.2038  0.3459 -0.1051
  964SOL    HW110007   0.742  10.215   6.912  0.6270 -1.5599 -1.9601
  964SOL    HW210008   0.814  10.091   6.960  0.9183  0.0144  2.0500
  965SOL     OW10009   7.896   3.411  10.305 -0.5779 -0.1277  0.2008
  965SOL    HW110010   7.905   3.318  10.286 -1.2097 -0.3300  0.8242
  965SOL    HW210011   7.961   3.454  10.250 -0.9420 -0.8536 -0.8234
  966SOL     OW10012   3.640   8.923   2.191  0.5307  0.1192  0.5566
  966SOL    HW110013   3.704   8.993   2.188  1.1476 -0.4278 -2.6908
  966SOL    HW210014   3.561   8.960   2.150  0.2919 -0.5324  0.4041
  967SOL     OW10015   7.420   9.616   9.325 -0.0158 -0.0714  0.8155
  967SOL    HW110016   7.474   9.538   9.312  0.4509  0.2788  0.6549
  967SOL    HW210017   7.343   9.584   9.372  0.4228 -0.5331  1.2237
  968SOL     OW10018   3.471   4.252   2.489 -0.1491 -0.0304 -0.1241
  968SOL    HW110019   3.479   4.259   2.584  2.1376  1.7737 -0.3833
  968SOL    HW210020   3.431   4.334   2.462  1.4904  0.5582 -0.8929
  969SOL     OW10021  11.672   2.393   7.308  0.2700  0.3107  0.1697
  969SOL    HW110022  11.632   2.478   7.325  0.2996  0.1714  0.9660
  969SOL    HW210023  11.691   2.357   7.395 -0.7873 -0.9989 -0.0971
  970SOL     OW10024   8.613   3.009   3.843 -0.2228 -0.5031 -0.2087
  970SOL    HW110025   8.670   2.935   3.822  1.2334  0.7319 -0.7893
  970SOL    HW210026   8.568   2.982   3.923 -0.0825 -2.1999 -0.6718
  971SOL     OW10027   4.459   5.064   0.621  0.5259  0.1967  0.1027
  971SOL    HW110028   4.484   5.067   0.713 -0.5633  0.6987  0.3986
  971SOL    HW210029   4.407   4.984   0.613 -1.2119  1.2430  0.4416
  972SOL     OW10030   1.563  12.459  12.355  0.0285  0.7747  0.0442
  972SOL    HW110031   1.649  12.448  12.315 -0.5548  0.6758 -1.2520
  972SOL    HW210032   1.529  12.540  12.318 -1.2146 -0.1776 -0.9978
  973SOL     OW10033   5.767   2.712   5.977  0.1070 -0.0468 -0.7217
  973SOL    HW110034   5.708   2.696   6.051 -0.1220 -0.8564 -1.0761
  973SOL    HW210035   5.759   2.634   5.922  2.2193 -0.6167 -0.3109
  974SOL     OW10036   3.777   7.459   2.510 -0.5836  0.3195 -0.3662
  974SOL    HW110037   3.810   7.505   2.432  0.8428  0.1394  0.1072
  974SOL    HW210038   3.746   7.529   2.567 -0.7443  0.5226 -0.7009
  975SOL     OW10039   6.404  12.232   7.251  0.0854 -0.2386 -0.3544
  975SOL    HW110040   6.480  12.230   7.192  1.2448  0.3866  1.0470
  975SOL    HW210041   6.416  12.313   7.301 -1.4961 -0.1623 -0.0529
  976SOL     OW10042   2.322   9.047   7.168  0.5183  0.3681  0.1576
  976SOL    HW110043   2.347   9.003   7.087 -0.5278  1.4154 -0.7598
  976SOL    HW210044   2.366   9.131   7.165  0.4271  0.4382  0.6613
  977SOL     OW10045  10.727   1.358   3.654  0.2800 -0.3509 -0.3625
  977SOL    HW110046  10.690   1.380   3.569 -0.4393  2.4713  0.5690
  977SOL    HW210047  10.651   1.331   3.707  0.6163 -1.4061 -0.4114
  978SOL     OW10048   8.910   5.057  11.148 -0.2472 -0.3862 -0.2264
  978SOL    HW110049   8.969   5.005  11.202 -0.6706 -2.3263 -1.5376
  978SOL    HW210050   8.833   5.073  11.204  0.9211  1.0967  1.0549
  979SOL     OW10051   5.384  10.969   1.299  0.3045 -0.3901  0.2818
  979SOL    HW110052   5.398  10.956   1.393  0.1666 -0.5849  0.2764
  979SOL    HW210053   5.447  11.037   1.275  0.2704 -0.2642  0.5359
  980SOL     OW10054   2.148   8.278   1.101 -0.1575 -0.3803 -0.3998
  980SOL    HW110055   2.214   8.249   1.038  0.3177  1.0971 -0.6304
  980SOL    HW210056   2.135   8.203   1.158  0.1645 -1.4118 -1.6218
  981SOL     OW10057  10.236   4.764   5.252  0.5842  0.1508 -0.6899
  981SOL    HW110058  10.237   4.857   5.276  1.1880  0.3085 -1.2840
  981SOL    HW210059  10.302   4.757   5.183  0.9228 -0.8192 -0.2823
  982SOL     OW10060   2.114   0.190   3.845  0.3215  0.1139 -0.6646
  982SOL    HW110061   2.088   0.119   3.904 -0.1869  0.0800 -0.9234
  982SOL    HW210062   2.208   0.176   3.831  0.0197 -1.2626 -1.6835
  983SOL     OW10063   3.539   0.153   8.979 -0.1555  0.3351 -0.1622
  983SOL    HW110064   3.509   0.201   9.056 -0.5173 -1.0263  0.5750
  983SOL    HW210065   3.599   0.214   8.935  1.2609  0.6384  2.0074
  984SOL     OW10066   9.011   3.049   8.609  0.0833  0.3503  0.3420
  984SOL    HW110067   8.933   3.064   8.663  0.3236 -1.3349  1.2246
  984SOL    HW210068   8.977   3.036   8.521 -0.8946 -2.0317  0.9725
  985SOL     OW10069   8.074   0.375   2.392  0.1490 -0.0327 -0.3105
  985SOL    HW110070   8.132   0.424   2.333 -0.9881  1.8236  0.0518
  985SOL    HW210071   8.000   0.349   2.337 -0.5218  0.9960  0.0838
  986SOL     OW10072  10.544   6.579   3.640 -0.1783  0.3658  0.3627
  986SOL    HW110073  10.619   6.580   3.580  0.1624 -1.8894  0.6322
  986SOL    HW210074  10.514   6.669   3.643  1.1583  0.9338 -1.4850
  987SOL     OW10075   0.319   5.831   1.509  0.3376 -0.8234  0.0136
  987SOL    HW110076   0.311   5.771   1.582 -0.5308 -0.7726 -0.0273
  987SOL    HW210077   0.299   5.917   1.546  1.2131 -0.6018 -0.0045
  988SOL     OW10078   0.353   6.010   5.875  0.3035 -0.3530  0.5900
  988SOL    HW110079   0.413   5.955   5.925  0.2844 -1.8797 -0.9790
  988SOL    HW210080   0.398   6.094   5.866  2.2260 -1.4415 -0.5161
  989SOL     OW10081   6.273   9.498   5.029  0.0675  0.2904 -0.4441
  989SOL    HW110082   6.249   9.414   5.069 -1.8199 -0.6492 -3.2132
  989SOL    HW210083   6.366   9.490   5.009  0.4588 -0.1649  1.4048
  990SOL     OW10084  10.609   7.520   3.108 -0.2491 -0.2261 -0.2914
  990SOL    HW110085  10.644   7.432   3.099  1.7442  0.5350 -0.5044
  990SOL    HW210086  10.514   7.508   3.110 -0.0124 -2.3985  0.2107
  991SOL     OW10087   8.337   4.780  10.486 -0.4783  0.0693 -0.4368
  991SOL    HW110088   8.392   4.739  10.418 -0.4719 -1.6461  0.5362
  991SOL    HW210089   8.253   4.794  10.442 -0.4986 -1.0913 -0.8273
  992SOL     OW10090  11.766   3.397   0.807  0.4721 -0.0423 -0.1905
  992SOL    HW110091  11.695   3.362   0.860  0.4846 -0.9402 -0.7479
  992SOL    HW210092  11.727   3.413   0.721  0.8469 -0.1867 -0.3929
  993SOL     OW10093   5.665  10.988   6.808 -0.3298 -0.2494 -0.3666
  993SOL    HW110094   5.608  10.982   6.885  1.1831 -1.2680  0.7189
  993SOL    HW210095   5.658  11.080   6.781  2.1500  1.3171  3.4785
  994SOL     OW10096   0.106   9.132   9.812 -0.2835 -0.2173 -0.1842
  994SOL    HW110097   0.140   9.067   9.751  0.6974 -0.7390  0.8834
  994SOL    HW210098   0.143   9.107   9.896  2.4294  3.2971 -0.1510
  995SOL     OW10099  11.306   4.993  12.055  0.2615  0.0999 -0.4124
  995SOL    HW110100  11.355   4.997  12.137  1.3557  2.5655 -1.0822
  995SOL    HW210101  11.254   5.073  12.054 -0.5858 -0.4230 -1.6514
  996SOL     OW10102   2.818   9.920   6.859 -0.1901  0.2329  0.0363
  996SOL    HW110103   2.914   9.921   6.858 -0.1503 -1.1440 -1.2662
  996SOL    HW210104   2.794   9.944   6.948  1.3196  2.2606 -0.0456
  997SOL     OW10105   2.653   6.992   1.137 -0.2246 -0.0193  0.4326
  997SOL    HW110106   2.633   6.902   1.109  0.4239 -0.0970  0.2099
  997SOL    HW210107   2.735   6.984   1.185  0.1060  0.5273 -0.0264
  998SOL     OW10108  12.201   8.684  12.957  0.3122  0.4790  0.4556
  998SOL    HW110109  12.123   8.651  12.914  0.1292  0.8641  0.4916
  998SOL    HW210110  12.205   8.637  13.040 -0.7505  1.5870  1.1584
  999SOL     OW10111   6.998   8.969   4.224 -0.2104  0.4509 -0.0735
  999SOL    HW110112   7.022   9.048   4.176 -0.8184  0.1251 -0.9606
  999SOL    HW210113   6.989   8.902   4.156  1.0350 -0.5774  0.7399
 1000SOL     OW10114   6.056   7.566   0.080 -0.4730 -0.1479  0.1247
 1000SOL    HW110115   6.066   7.637   0.143 -1.2292 -0.6901  0.8740
 1000SOL    HW210116   6.087   7.488   0.127  2.0717 -0.0976 -1.2642
 1001SOL     OW10117   4.503   9.156  10.076  0.2522 -0.4495 -0.0869
 1001SOL    HW110118   4.481   9.246  10.053  0.5652 -0.4118 -0.2393
 1001SOL    HW210119   4.423   9.121  10.117  0.8398  0.6175  2.0960
 1002SOL     OW10120  11.908  12.247   2.478  0.0391 -0.0193  0.6222
 1002SOL    HW110121  11.879  12.277   2.564 -0.3914  0.9277  0.1599
 1002SOL    HW210122  11.999  12.220   2.492  0.3570  1.2473  1.1257
 1003SOL     OW10123   6.658   3.114   4.648  1.0630 -0.7062 -0.2170
 1003SOL    HW110124   6.738   3.143   4.692  0.2300 -0.2657  1.0726
 1003SOL    HW210125   6.634   3.188   4.591  1.0918 -0.4581  0.0873
 1004SOL     OW10126  12.003   3.115   5.361  0.2721  0.1835 -0.4024
 1004SOL    HW110127  11.910   3.119   5.382  0.3596 -1.3380  0.4933
 1004SOL    HW210128  12.007   3.074   5.275  0.1238 -0.4585 -0.1099
 1005SOL     OW10129  11.322  12.724   4.392 -0.2591  0.0784 -0.3287
 1005SOL    HW110130  11.388  12.711   4.324 -0.3056  0.1957 -0.3959
 1005SOL    HW210131  11.248  12.764   4.346 -0.5322 -0.4195 -0.3340
 1006SOL     OW10132   6.543   2.850  11.325 -0.4598 -0.1403 -0.1154
 1006SOL    HW110133   6.591   2.772  11.353  0.5834  0.5838  0.1781
 1006SOL    HW210134   6.452   2.822  11.321  0.0078 -1.6709 -1.0624
 1007SOL     OW10135   1.500   8.210   1.041  0.1765  1.2200  0.6903
 1007SOL    HW110136   1.556   8.261   0.983  0.1332  1.0712  0.5183
 1007SOL    HW210137   1.532   8.120   1.033  0.1841  1.2015  0.9123
 1008SOL     OW10138   5.947   7.680   5.277  0.3473  0.5657 -0.1508
 1008SOL    HW110139   5.950   7.764   5.322  0.5123  1.1358 -1.1798
 1008SOL    HW210140   5.890   7.696   5.201  1.1019  0.0114 -0.8595
 1009SOL     OW10141   2.786  11.139  11.631  0.5033  0.0364 -0.1579
 1009SOL    HW110142   2.735  11.220  11.621  0.6954  0.2389  0.4278
 1009SOL    HW210143   2.837  11.153  11.711 -0.5063 -1.2239  0.7515
 1010SOL     OW10144   9.185   5.003   6.553  0.3870 -0.0024  0.1426
 1010SOL    HW110145   9.174   5.080   6.608  1.5741  0.1048  0.2479
 1010SOL    HW210146   9.182   5.037   6.463 -1.6053 -0.1853  0.0927
 1011SOL     OW10147  10.766   9.973  12.633  0.1366 -0.4449 -0.2568
 1011SOL    HW110148  10.857   9.968  12.602  0.0238  1.0371 -0.9408
 1011SOL    HW210149  10.714   9.945  12.557 -0.0365  0.7098 -0.5881
 1012SOL     OW10150   6.561  10.716   6.781 -0.4282 -0.2486 -0.3915
 1012SOL    HW110151   6.545  10.794   6.834  0.9647 -0.3440  0.2277
 1012SOL    HW210152   6.484  10.661   6.796 -0.3052 -0.0561  1.1628
 1013SOL     OW10153   2.368   8.125   4.131  0.2223  0.6235  0.6538
 1013SOL    HW110154   2.421   8.179   4.189  0.5349  2.2567 -1.0888
 1013SOL    HW210155   2.382   8.160   4.043 -1.2440 -0.9394 -0.2934
 1014SOL     OW10156   7.566   9.818  11.714  0.1699  0.0487 -0.1049
 1014SOL    HW110157   7.645   9.775  11.681  0.0358  0.6362 -1.2558
 1014SOL    HW210158   7.498   9.751  11.708  0.2906 -0.0483 -0.3976
 1015SOL     OW10159   0.245   6.217   8.812  0.2743 -0.1606 -0.3620
 1015SOL    HW110160   0.193   6.197   8.735 -1.2901 -0.0682  0.6201
 1015SOL    HW210161   0.208   6.299   8.845  0.3293 -0.6399  0.9535
 1016SOL     OW10162  10.953  10.564   7.452  0.5973  0.3800 -0.3322
 1016SOL    HW110163  10.974  10.639   7.508  0.2039  0.8078 -0.7421
 1016SOL    HW210164  10.862  10.578   7.427 -0.5197 -1.8362  2.0202
 1017SOL     OW10165   7.736   8.135  12.577 -0.1191 -0.2049  0.0222
 1017SOL    HW110166   7.769   8.153  12.489 -0.5264  0.9655  0.0809
 1017SOL    HW210167   7.767   8.209  12.629  1.2383 -1.5442  1.1937
 1018SOL     OW10168   4.024   5.676   7.876  0.1596 -0.7657 -0.3154
 1018SOL    HW110169   4.014   5.586   7.907 -0.2078 -0.9208 -0.8821
 1018SOL    HW210170   3.943   5.719   7.902 -0.1742 -0.9101 -1.1030
 1019SOL     OW10171   8.969   0.075   1.071 -0.2828  0.4997  0.5039
 1019SOL    HW110172   9.038   0.141   1.064  0.3857 -0.3288 -1.9446
 1019SOL    HW210173   9.005   0.008   1.130  0.0008  1.1885  1.1224
 1020SOL     OW10174   2.747   7.598   0.489  0.1615  0.0941  0.1277
 1020SOL    HW110175   2.809   7.644   0.546  0.6051 -0.0142 -0.2638
 1020SOL    HW210176   2.794   7.520   0.460 -0.5273 -0.5277  0.6511
 1021SOL     OW10177   8.293  12.866   2.271  0.3070 -0.4741  0.3245
 1021SOL    HW110178   8.224  12.873   2.206 -1.2371 -0.0583  1.9376
 1021SOL    HW210179   8.374  12.857   2.220 -0.8334 -0.1641 -1.6100
 1022SOL     OW10180  12.319   2.705   3.960  0.4118 -0.4290  0.1995
 1022SOL    HW110181  12.258   2.641   3.923  0.1440  0.5209 -1.0501
 1022SOL    HW210182  12.350   2.755   3.885  2.9806 -1.0535  0.7630
 1023SOL     OW10183   1.764   1.030   2.181 -0.1111  0.3284 -0.1954
 1023SOL    HW110184   1.778   1.059   2.271 -1.4635 -0.9605  0.4834
 1023SOL    HW210185   1.669   1.036   2.169  0.1663  1.8891 -2.0716
 1024SOL     OW10186  11.248   3.374   6.428  0.3093 -0.3412  0.2675
 1024SOL    HW110187  11.342   3.385   6.437  0.3805 -1.0436  0.4102
 1024SOL    HW210188  11.215   3.463   6.414  0.9655 -0.0674  0.4212
 1025SOL     OW10189  10.203   5.638   0.130 -0.0796 -0.1440 -0.1598
 1025SOL    HW110190  10.298   5.642   0.140 -0.2510  1.1815  1.3865
 1025SOL    HW210191  10.172   5.723   0.162 -1.7909 -0.5653 -0.5895
 1026SOL     OW10192   0.786   9.088   0.237  0.0060  0.4676  0.0386
 1026SOL    HW110193   0.725   9.041   0.294 -0.0588 -0.6904 -0.9417
 1026SOL    HW210194   0.839   9.141   0.296 -0.4206 -0.2843  1.1244
 1027SOL     OW10195   3.576   4.258  11.352 -0.3450 -0.2419  0.4325
 1027SOL    HW110196   3.491   4.301  11.357  0.5350  1.6954 -0.2028
 1027SOL    HW210197   3.594   4.250  11.258  0.7741  0.6984  0.5446
 1028SOL     OW10198   3.127   6.218   4.380 -0.2678 -0.3077 -0.5687
 1028SOL    HW110199   3.049   6.261   4.344 -0.4928 -1.8653 -2.0582
 1028SOL    HW210200   3.198   6.280   4.362 -1.1584  1.4208  1.3539
 1029SOL     OW10201   3.498   1.898   2.911  1.3782  0.2622  0.1229
 1029SOL    HW110202   3.452   1.814   2.917 -0.0709  0.9771 -0.5014
 1029SOL    HW210203   3.565   1.894   2.978 -1.2182  0.1592  2.9171
 1030SOL     OW10204  11.946   7.907   1.915 -0.1091  0.0844  0.2501
 1030SOL    HW110205  11.937   7.817   1.885 -1.2907 -0.1319  1.1678
 1030SOL    HW210206  11.989   7.900   2.000  0.7236  0.4825 -0.1235
 1031SOL     OW10207   2.194   1.371   4.468  0.2925 -0.3322 -0.2103
 1031SOL    HW110208   2.206   1.367   4.563 -1.0511  0.7642  0.0373
 1031SOL    HW210209   2.167   1.462   4.452 -0.3032 -0.7320 -1.5389
 1032SOL     OW10210   5.548  10.859   0.245 -0.1225  0.0340 -0.3664
 1032SOL    HW110211   5.504  10.811   0.315 -1.3373  0.4551 -0.7989
 1032SOL    HW210212   5.528  10.809   0.166 -0.4715  0.6447 -0.6710
 1033SOL     OW10213   9.082   1.016  10.766 -0.0936 -0.1789  0.3479
 1033SOL    HW110214   9.172   1.047  10.761 -0.5813  1.2389 -0.2186
 1033SOL    HW210215   9.029   1.094  10.749 -1.4269 -1.0018  0.5876
 1034SOL     OW10216   6.280   1.156  11.184 -0.0796 -0.7293  0.2252
 1034SOL    HW110217   6.350   1.178  11.246 -0.3472 -0.9408  0.6112
 1034SOL    HW210218   6.272   1.060  11.190 -0.2111 -0.7342 -0.0231
 1035SOL     OW10219   9.032   9.239   6.682  0.3086  1.0809 -0.2615
 1035SOL    HW110220   9.009   9.288   6.761 -0.2682  1.0302 -0.3914
 1035SOL    HW210221   9.126   9.252   6.672  1.0392 -1.3983  2.1623
 1036SOL     OW10222   3.328  12.064   8.839 -0.6109 -0.2493  0.0399
 1036SOL    HW110223   3.239  12.049   8.873 -0.9437 -0.9336 -1.0706
 1036SOL    HW210224   3.315  12.083   8.747  0.4067 -0.3210 -0.1257
 1037SOL     OW10225   7.265  11.402   0.865 -0.5074  0.0946 -0.2995
 1037SOL    HW110226   7.299  11.348   0.936 -0.5777  1.0503  0.4843
 1037SOL    HW210227   7.229  11.480   0.908  0.3242  1.1586 -1.4318
 1038SOL     OW10228   8.653   4.858   8.998 -0.2187 -0.5747  0.1092
 1038SOL    HW110229   8.568   4.898   8.982  1.0858  1.7558 -1.5920
 1038SOL    HW210230   8.658   4.787   8.934 -0.7643 -0.5296  0.0150
 1039SOL     OW10231   9.532   2.082   0.835 -0.0403  0.0925 -0.0546
 1039SOL    HW110232   9.586   2.013   0.796 -0.0046 -0.6418  1.2513
 1039SOL    HW210233   9.592   2.155   0.849  0.1650 -0.0068 -0.3961
 1040SOL     OW10234  12.313   6.522   2.456  0.3538 -0.9745 -0.5761
 1040SOL    HW110235  12.233   6.500   2.408  1.9223 -1.3483 -3.2743
 1040SOL    HW210236  12.381   6.470   2.412  2.5682  1.6309 -0.4824
 1041SOL     OW10237   0.788   9.975   6.379  0.2079 -0.1628 -0.0738
 1041SOL    HW110238   0.788   9.960   6.284 -0.4281  0.8564 -0.2494
 1041SOL    HW210239   0.840   9.903   6.414  1.5146  0.1218 -1.3080
 1042SOL     OW10240   5.367   8.747   5.928  0.0077 -0.3657  0.1942
 1042SOL    HW110241   5.423   8.790   5.864  2.4668  0.1463  2.5021
 1042SOL    HW210242   5.354   8.659   5.894 -0.4828  0.4762 -1.9312
 1043SOL     OW10243   2.463   4.522   0.708 -0.5649  0.5872 -0.0049
 1043SOL    HW110244   2.465   4.427   0.695 -1.6114  0.2879  1.7251
 1043SOL    HW210245   2.529   4.556   0.648  2.6842 -1.5392  2.0626
 1044SOL     OW10246   5.705   3.378   6.357 -0.1560 -0.0561  0.3852
 1044SOL    HW110247   5.671   3.463   6.385 -1.1527 -0.0277 -0.8337
 1044SOL    HW210248   5.672   3.316   6.421  0.8145  0.4845  1.4530
 1045SOL     OW10249  10.585   0.537  12.792 -0.2454 -0.4229  0.3970
 1045SOL    HW110250  10.508   0.496  12.831 -0.6133 -0.5254 -0.4101
 1045SOL    HW210251  10.561   0.549  12.700  0.7273 -0.5186  0.1189
 1046SOL     OW10252   8.064   2.306   3.774  0.6603  0.0399 -0.2003
 1046SOL    HW110253   8.017   2.246   3.716 -1.0328  0.5675  0.5422
 1046SOL    HW210254   8.012   2.386   3.773 -0.5089 -0.4881  3.3188
 1047SOL     OW10255  11.064   5.116   7.391 -0.3742  0.2839 -0.3825
 1047SOL    HW110256  11.005   5.131   7.465  0.8731 -1.9654  1.2023
 1047SOL    HW210257  11.151   5.139   7.426  0.2183 -0.6542 -1.1907
 1048SOL     OW10258   7.861   6.201   8.259 -0.4830  0.3911 -0.2513
 1048SOL    HW110259   7.817   6.285   8.248 -0.7982  0.0483 -1.8090
 1048SOL    HW210260   7.898   6.181   8.173  1.7404  0.0961  0.6955
 1049SOL     OW10261  10.333   9.410  11.702 -0.3827  0.3404  0.3196
 1049SOL    HW110262  10.306   9.330  11.746  0.1667  0.2858  0.5597
 1049SOL    HW210263  10.268   9.422  11.633  0.6783 -1.4795 -1.0995
 1050SOL     OW10264  10.045   6.292   9.928 -0.3378 -0.0708  0.2721
 1050SOL    HW110265  10.120   6.350   9.938  0.8157 -1.7041  1.6697
 1050SOL    HW210266  10.058   6.252   9.842 -0.2778  0.5464 -0.0106
 1051SOL     OW10267  12.889   6.596  10.693 -0.6585 -0.0228 -0.0213
 1051SOL    HW110268  12.908   6.632  10.780 -0.3749 -1.7287  0.6508
 1051SOL    HW210269  12.966   6.618  10.641  0.2751 -1.0919  0.8536
 1052SOL     OW10270   5.718   8.812   0.691 -0.7495  0.4339 -0.2272
 1052SOL    HW110271   5.797   8.818   0.746  0.4603 -0.1322 -1.8204
 1052SOL    HW210272   5.646   8.835   0.750  0.6557  1.5724  1.1368
 1053SOL     OW10273   3.998   4.452   2.893  0.2215 -0.2498  0.0239
 1053SOL    HW110274   4.058   4.496   2.952  0.6316 -0.6295 -0.1029
 1053SOL    HW210275   3.915   4.450   2.940  0.6916 -1.1008  0.8647
 1054SOL     OW10276   1.120   5.413   4.033 -0.0887 -0.8938  0.2733
 1054SOL    HW110277   1.098   5.414   3.940  1.6947 -1.5198 -0.1989
 1054SOL    HW210278   1.157   5.500   4.050  0.7701 -1.2053  0.0600
 1055SOL     OW10279   2.378   2.151   8.992  0.1539  0.1830  0.0069
 1055SOL    HW110280   2.301   2.207   8.991  0.1466  0.1761 -1.2486
 1055SOL    HW210281   2.450   2.209   8.965  0.8140  0.4575  2.1703
 1056SOL     OW10282   5.389   7.925  10.122  0.0534 -0.0080 -0.3733
 1056SOL    HW110283   5.465   7.927  10.065 -0.7495 -0.7250 -1.4983
 1056SOL    HW210284   5.321   7.883  10.071 -1.0761  0.4905  0.6588
 1057SOL     OW10285   2.899   6.594   2.568 -0.4113 -1.0037 -0.3337
 1057SOL    HW110286   2.965   6.590   2.637 -0.7029 -0.3523 -0.0013
 1057SOL    HW210287   2.892   6.687   2.548 -0.9932 -1.1010 -0.5956
 1058SOL     OW10288   6.749   2.268   2.784 -0.1103 -0.1009  0.3063
 1058SOL    HW110289   6.723   2.253   2.875 -1.4987  0.0665 -0.0384
 1058SOL    HW210290   6.716   2.192   2.737 -1.8078  1.0407 -0.4579
 1059SOL     OW10291   9.421  10.833   6.166 -0.5089  0.4201  0.1329
 1059SOL    HW110292   9.514  10.839   6.148 -0.3443 -0.5321  0.5654
 1059SOL    HW210293   9.412  10.860   6.258 -0.5509 -0.1838  0.3113
 1060SOL     OW10294   2.627   4.463   8.365 -0.3950 -0.1993 -0.3798
 1060SOL    HW110295   2.688   4.531   8.336 -0.3452 -0.1052 -0.0598
 1060SOL    HW210296   2.547   4.511   8.388  0.2229 -0.0335  1.5414
 1061SOL     OW10297   6.602   3.371   5.991  0.3505  0.5497  0.9070
 1061SOL    HW110298   6.518   3.339   5.958  1.0325 -0.6954  0.3106
 1061SOL    HW210299   6.579   3.450   6.040 -1.2978 -0.2846  1.5828
 1062SOL     OW10300   8.012  10.646  12.486 -0.0250 -0.3801 -0.3324
 1062SOL    HW110301   8.099  10.644  12.525  0.4951 -1.3301 -1.4757
 1062SOL    HW210302   7.959  10.696  12.548  1.4134  0.5723  0.1968
 1063SOL     OW10303   6.784   8.796   8.870 -0.0699  0.1781  0.5244
 1063SOL    HW110304   6.815   8.804   8.780 -2.7131  1.4816 -0.3842
 1063SOL    HW210305   6.805   8.706   8.896  1.4150  0.0207 -1.1028
 1064SOL     OW10306   8.419   1.963   8.525  0.5061  0.0867 -0.1296
 1064SOL    HW110307   8.441   2.056   8.516  1.7910 -0.2287 -0.4809
 1064SOL    HW210308   8.499   1.917   8.498  0.0772 -1.1133  0.5849
 1065SOL     OW10309  12.763   6.727   6.889 -0.2375  0.6599  0.4109
 1065SOL    HW110310  12.671   6.746   6.872 -0.2502 -0.2471 -0.7268
 1065SOL    HW210311  12.767   6.707   6.982 -1.8194 -2.3576 -0.0411
 1066SOL     OW10312  12.492   9.070  11.588 -0.4669 -0.4127  0.1317
 1066SOL    HW110313  12.490   9.044  11.680  0.1698 -1.0991 -0.0377
 1066SOL    HW210314  12.557   9.140  11.584 -2.0369  1.1476  0.5526
 1067SOL     OW10315   4.413   1.348  10.469  0.4232 -0.2126 -0.5256
 1067SOL    HW110316   4.494   1.367  10.517  0.2592 -0.7813 -0.0208
 1067SOL    HW210317   4.353   1.418  10.494  0.4707 -0.2812 -0.2251
 1068SOL     OW10318   7.224   0.665   6.170  0.8874 -0.3003 -0.1157
 1068SOL    HW110319   7.159   0.599   6.195  0.0321  0.6799  0.3200
 1068SOL    HW210320   7.296   0.653   6.231  0.8195 -0.9517 -0.1602
 1069SOL     OW10321   2.083   9.276  11.275  0.1263 -0.3301 -0.1996
 1069SOL    HW110322   2.088   9.372  11.268 -0.9504 -0.3625 -1.7123
 1069SOL    HW210323   2.172   9.246  11.254 -0.2670  0.2061 -2.9435
 1070SOL     OW10324   3.859   3.381   1.373  0.0021  0.3805  0.3780
 1070SOL    HW110325   3.899   3.320   1.435 -1.3623 -0.4670  0.4836
 1070SOL    HW210326   3.918   3.456   1.370  0.9383 -0.2891  1.4284
 1071SOL     OW10327   0.008   1.145  11.855 -0.0860 -0.3891 -0.5311
 1071SOL    HW110328  -0.022   1.234  11.835  0.5957 -0.1088 -0.3520
 1071SOL    HW210329  -0.069   1.101  11.891 -0.1675  0.4461  0.3578
 1072SOL     OW10330   7.926   5.603  10.762 -0.0060  0.0488  0.0565
 1072SOL    HW110331   7.952   5.571  10.675  1.1668 -0.2132  0.4810
 1072SOL    HW210332   7.872   5.533  10.798  0.3110 -0.2726 -0.0842
 1073SOL     OW10333   1.826   0.974   1.638  0.1543 -0.6984  0.5281
 1073SOL    HW110334   1.730   0.973   1.631  0.2002 -0.1133 -0.2435
 1073SOL    HW210335   1.845   1.043   1.701  0.1467  0.7807 -1.0255
 1074SOL     OW10336  10.617   0.813  12.222  0.1687 -0.3499  0.0172
 1074SOL    HW110337  10.589   0.844  12.136  1.3971  0.8234  0.0126
 1074SOL    HW210338  10.700   0.769  12.206  0.6520  0.3062  0.6562
 1075SOL     OW10339  12.478   9.523   8.164  0.7038  0.1619  0.6450
 1075SOL    HW110340  12.467   9.429   8.176 -0.7622  0.3158  0.5946
 1075SOL    HW210341  12.481   9.535   8.069  0.8196  0.1762  0.6498
 1076SOL     OW10342   2.350  10.766   9.970 -0.5753  0.0996 -0.4817
 1076SOL    HW110343   2.434  10.764  10.015 -1.0600 -0.6845  0.4031
 1076SOL    HW210344   2.359  10.702   9.899  0.3095  1.5888 -1.7723
 1077SOL     OW10345   7.409  10.993   8.522  0.4832 -0.1418 -0.0868
 1077SOL    HW110346   7.348  10.921   8.508  0.4959  0.0126 -0.9865
 1077SOL    HW210347   7.493  10.950   8.541 -0.3582 -0.4017  3.8113
 1078SOL     OW10348   7.445   5.084   2.476  0.3972 -0.0589  0.1447
 1078SOL    HW110349   7.373   5.113   2.419 -0.3834 -0.6591  0.7908
 1078SOL    HW210350   7.524   5.113   2.431 -0.2773  2.3201  0.3153
 1079SOL     OW10351  10.914   6.673   2.399 -0.1711  0.3379  0.4319
 1079SOL    HW110352  10.863   6.595   2.379  0.8222 -0.0045 -0.9665
 1079SOL    HW210353  10.982   6.675   2.331  0.2457  2.0410  0.8461
 1080SOL     OW10354   0.720   2.532  12.351 -0.2420  0.3038  0.1325
 1080SOL    HW110355   0.659   2.518  12.424 -0.5961  0.3192 -0.1591
 1080SOL    HW210356   0.678   2.600  12.298  0.6511  1.2755  0.6271
 1081SOL     OW10357   7.188   1.313   3.211  0.1148 -0.3293  0.3146
 1081SOL    HW110358   7.272   1.358   3.220  0.0977 -0.4369  1.0608
 1081SOL    HW210359   7.157   1.303   3.301 -0.0699 -1.4860  0.1300
 1082SOL     OW10360  11.336   9.365  10.101 -0.1174  0.3603 -0.0070
 1082SOL    HW110361  11.270   9.354  10.170  1.0583  0.3114  1.1446
 1082SOL    HW210362  11.334   9.282  10.053 -1.5803  0.7273 -0.6523
 1083SOL     OW10363   4.323   8.894   0.738  0.8942  0.1443 -0.0331
 1083SOL    HW110364   4.323   8.900   0.834  0.9271  1.3827 -0.0905
 1083SOL    HW210365   4.344   8.803   0.720 -0.3901 -0.4102  1.1463
 1084SOL     OW10366   6.830  11.418  12.007 -0.5457  0.1017 -0.2042
 1084SOL    HW110367   6.859  11.489  12.063 -1.5728 -0.8391  1.6074
 1084SOL    HW210368   6.786  11.461  11.934 -1.3701  1.3295  0.9819
 1085SOL     OW10369   1.224   8.307  12.820 -0.1519  0.0385 -0.0450
 1085SOL    HW110370   1.314   8.320  12.848 -0.1791 -0.6232  0.3608
 1085SOL    HW210371   1.229   8.291  12.726  0.4992 -3.1104  0.4111
 1086SOL     OW10372   2.816  10.505   9.475 -0.0593 -0.1160 -0.1725
 1086SOL    HW110373   2.789  10.565   9.544 -0.1717  0.8892 -1.0649
 1086SOL    HW210374   2.749  10.437   9.476 -0.2051  0.0232  0.5222
 1087SOL     OW10375   2.514   9.171   9.082  0.6269  0.2845 -0.1885
 1087SOL    HW110376   2.532   9.158   9.175  0.7983  0.3451 -0.2120
 1087SOL    HW210377   2.503   9.266   9.073  0.9952  0.3188 -0.2954
 1088SOL     OW10378   9.965  10.510   5.464 -0.0954 -0.4917  0.0132
 1088SOL    HW110379   9.930  10.583   5.413  0.7380 -2.0065 -2.8830
 1088SOL    HW210380  10.054  10.499   5.433 -0.1738 -2.6951  0.4430
 1089SOL     OW10381   4.018   1.122   2.461 -0.4133  0.0362 -0.2750
 1089SOL    HW110382   4.043   1.042   2.506 -0.6255  0.7158  1.0967
 1089SOL    HW210383   3.926   1.108   2.437 -0.0575 -0.6699 -1.3174
 1090SOL     OW10384   4.857   7.279  11.328  0.1483 -0.0256 -0.3801
 1090SOL    HW110385   4.914   7.297  11.402  2.3227 -0.0012 -1.9740
 1090SOL    HW210386   4.783   7.339  11.340  1.0654  0.8845  1.0813
 1091SOL     OW10387   9.830   8.448   2.937 -0.0761 -0.1560  0.4773
 1091SOL    HW110388   9.878   8.531   2.928  0.5745 -0.3714  1.6832
 1091SOL    HW210389   9.743   8.467   2.903  0.9857  0.0855 -2.3992
 1092SOL     OW10390   6.423   9.504  12.307 -0.5340  0.0660 -0.2837
 1092SOL    HW110391   6.370   9.433  12.344  1.2188 -0.3812  1.5293
 1092SOL    HW210392   6.466   9.465  12.231  0.7996 -1.0219  0.9836
 1093SOL     OW10393   9.406   1.790  10.321  0.5581 -0.9107 -0.2650
 1093SOL    HW110394   9.326   1.840  10.304  0.2077 -1.8639 -1.6026
 1093SOL    HW210395   9.477   1.851  10.298  0.2545 -0.0404  0.9890
 1094SOL     OW10396   5.037   0.643   6.315  0.3866  0.4955  0.0992
 1094SOL    HW110397   4.949   0.612   6.337  0.8108 -0.2978  0.7290
 1094SOL    HW210398   5.041   0.640   6.220  0.0652 -0.4349  0.1074
 1095SOL     OW10399  12.270   4.475   1.536  0.4512  0.5001 -0.2348
 1095SOL    HW110400  12.247   4.568   1.533  0.1689  0.4077 -1.5705
 1095SOL    HW210401  12.339   4.469   1.602  2.1052  2.0351 -1.7187
 1096SOL     OW10402  12.661   2.763  11.917  0.2308 -0.4749  0.6975
 1096SOL    HW110403  12.624   2.834  11.970 -0.5046 -0.0282 -0.3672
 1096SOL    HW210404  12.627   2.683  11.957  0.2187 -0.1740  1.2925
 1097SOL     OW10405   6.249   4.183  11.789  0.0973  0.0187  0.2678
 1097SOL    HW110406   6.243   4.149  11.699  3.9527  3.2574 -1.4987
 1097SOL    HW210407   6.326   4.140  11.826  0.1903  0.8163  1.0107
 1098SOL     OW10408  10.978   5.617   3.781  0.6000  0.4211 -0.2433
 1098SOL    HW110409  11.063   5.615   3.736  1.4014 -0.7062  1.2220
 1098SOL    HW210410  10.941   5.531   3.766 -0.1561  0.7953 -0.5824
 1099SOL     OW10411   8.126   0.766  10.993 -0.1649  0.0454  0.5459
 1099SOL    HW110412   8.126   0.835  10.926 -0.5533  1.2705  1.7562
 1099SOL    HW210413   8.049   0.785  11.047 -0.2038 -1.2786  0.9991
 1100SOL     OW10414   8.608   9.310   0.074 -0.3697 -0.1946 -0.1403
 1100SOL    HW110415   8.567   9.344  -0.005  0.0703 -0.8978 -0.6749
 1100SOL    HW210416   8.699   9.339   0.068 -1.2277  3.9312  2.4461
 1101SOL     OW10417   3.695   6.917   2.069  0.1955 -0.2166 -0.6935
 1101SOL    HW110418   3.781   6.883   2.043  0.7302  0.4439  0.1702
 1101SOL    HW210419   3.641   6.838   2.082  1.7149 -0.8864  2.3588
 1102SOL     OW10420   7.954   2.560   8.471  0.4676 -0.1869 -0.0175
 1102SOL    HW110421   7.936   2.473   8.506  1.5603 -0.5431 -0.2998
 1102SOL    HW210422   8.026   2.547   8.409 -0.2277  0.7173 -1.0485
 1103SOL     OW10423  10.044   1.738   8.473  0.3225 -0.9449 -0.7741
 1103SOL    HW110424   9.983   1.785   8.417 -0.0060 -0.4533 -0.0173
 1103SOL    HW210425   9.990   1.696   8.540  0.5617 -2.8085 -1.6858
 1104SOL     OW10426   2.977  10.469   7.751  0.8328 -0.4329  0.0623
 1104SOL    HW110427   3.025  10.494   7.671 -2.4048  2.1678 -1.2841
 1104SOL    HW210428   3.031  10.502   7.823  3.0091 -1.3237 -1.0621
 1105SOL     OW10429   5.199  11.280  12.277 -0.8299  0.3915  0.0019
 1105SOL    HW110430   5.116  11.323  12.257  0.4121  2.0841 -1.9031
 1105SOL    HW210431   5.265  11.349  12.267  0.8886 -1.0916  0.6216
 1106SOL     OW10432   3.232   4.151   6.259 -0.7728 -0.8019  0.1235
 1106SOL    HW110433   3.248   4.101   6.339 -0.3419  0.8014  1.0947
 1106SOL    HW210434   3.169   4.218   6.285  1.2079  1.3155 -0.1410
 1107SOL     OW10435   1.821   4.874   2.866  0.7021 -0.5607 -0.6189
 1107SOL    HW110436   1.770   4.839   2.792  0.1948 -1.4791  0.1442
 1107SOL    HW210437   1.756   4.893   2.933  1.2537 -0.7067 -0.0336
 1108SOL     OW10438   8.708   2.420   4.248 -0.6561  0.5401  0.0362
 1108SOL    HW110439   8.613   2.414   4.249 -0.6510 -0.0260  2.3824
 1108SOL    HW210440   8.727   2.501   4.296  0.0634  1.3473 -1.5257
 1109SOL     OW10441   6.906   5.635   1.822  0.1673  0.5403  0.3696
 1109SOL    HW110442   6.922   5.690   1.745 -2.4054 -1.8910 -2.1103
 1109SOL    HW210443   6.853   5.690   1.880  0.9482  1.9326 -0.1806
 1110SOL     OW10444   2.040   8.188   8.748  0.4501  0.2404 -0.7298
 1110SOL    HW110445   1.999   8.192   8.661  0.7065 -2.0353 -1.0262
 1110SOL    HW210446   2.112   8.250   8.743 -1.9468  3.2271 -0.7007
 1111SOL     OW10447   2.975  11.742  12.472 -0.4927 -0.0939  0.4797
 1111SOL    HW110448   2.930  11.803  12.531  1.9083 -0.1739  2.5449
 1111SOL    HW210449   2.918  11.665  12.469 -0.9995  0.1658  2.2470
 1112SOL     OW10450   7.476   1.149   8.507 -0.3808 -0.3207 -0.2395
 1112SOL    HW110451   7.393   1.104   8.518 -1.0839  1.3818  2.3805
 1112SOL    HW210452   7.541   1.087   8.540 -0.8647 -0.8042 -0.1791
 1113SOL     OW10453  10.018   0.218   0.830 -0.2665 -0.1993  0.8275
 1113SOL    HW110454  10.055   0.292   0.782 -0.6001 -1.4197 -1.4305
 1113SOL    HW210455   9.924   0.232   0.827 -0.3443 -0.8297  0.1720
 1114SOL     OW10456   0.753  12.299   5.946  0.3414  0.2409  0.3919
 1114SOL    HW110457   0.804  12.235   5.896  0.8537  1.8910 -1.3265
 1114SOL    HW210458   0.674  12.313   5.893  0.9187  2.0736 -0.0780
 1115SOL     OW10459   9.257   6.232   0.799  0.0647  0.1364 -0.2835
 1115SOL    HW110460   9.323   6.247   0.732  0.0454  0.1635 -0.2972
 1115SOL    HW210461   9.230   6.141   0.786  0.5474 -0.0704  0.1264
 1116SOL     OW10462   7.075  12.014   8.418  0.2545 -0.4156 -0.3246
 1116SOL    HW110463   7.080  12.015   8.514  0.4517 -0.3616 -0.3360
 1116SOL    HW210464   7.034  11.930   8.397 -0.1441 -0.2621 -0.1744
 1117SOL     OW10465   2.368   4.247   3.207 -0.2069 -0.1237  0.1688
 1117SOL    HW110466   2.378   4.334   3.168 -0.2365 -0.1221  0.1645
 1117SOL    HW210467   2.331   4.264   3.294 -2.3116 -0.2505 -0.6278
 1118SOL     OW10468   0.061   3.092   2.405  0.1658 -0.2828  0.4728
 1118SOL    HW110469   0.056   3.030   2.477 -1.3620 -0.6728  0.0669
 1118SOL    HW210470  -0.002   3.161   2.428  0.0282 -0.1592 -0.2359
 1119SOL     OW10471   5.376   5.312  10.971  0.3976 -0.3622  0.1366
 1119SOL    HW110472   5.381   5.339  11.062 -1.8832  1.0905 -0.0685
 1119SOL    HW210473   5.373   5.216  10.974 -0.6548 -0.3157  1.7033
 1120SOL     OW10474  10.632   5.667   2.922 -0.2074 -0.5841  0.4092
 1120SOL    HW110475  10.621   5.697   2.832 -0.9657  0.0986  0.7213
 1120SOL    HW210476  10.666   5.742   2.970 -2.4257 -0.0397  1.2630
 1121SOL     OW10477   7.233   1.206  12.346  0.3845 -0.3959  0.2717
 1121SOL    HW110478   7.161   1.200  12.408  0.1042 -1.7520 -0.1370
 1121SOL    HW210479   7.221   1.290  12.302  0.0754  0.1752  1.4138
 1122SOL     OW10480   2.238   5.268   3.674  0.4040 -0.3498 -0.5876
 1122SOL    HW110481   2.159   5.308   3.708  0.1858 -1.9701  0.9815
 1122SOL    HW210482   2.307   5.333   3.690 -0.4226  0.6721 -1.0677
 1123SOL     OW10483   8.259   0.998   4.151  0.3497  0.4754  0.8574
 1123SOL    HW110484   8.252   1.059   4.224  0.1837 -0.8386  1.9846
 1123SOL    HW210485   8.227   0.915   4.187  1.4332 -0.4944 -0.3570
 1124SOL     OW10486   2.378  10.512  12.751 -0.5186  0.0467 -0.5130
 1124SOL    HW110487   2.368  10.605  12.728 -0.9914 -0.3020 -1.7664
 1124SOL    HW210488   2.301  10.493  12.805  0.5396  0.8360  1.3828
 1125SOL     OW10489   5.162   3.161  10.196 -0.7162 -0.3048 -0.2286
 1125SOL    HW110490   5.205   3.155  10.110 -1.6585 -1.2176 -0.6619
 1125SOL    HW210491   5.162   3.255  10.216  0.6044 -0.1941 -0.6419
 1126SOL     OW10492   4.171   9.449   9.114  0.3930 -0.2555  0.7276
 1126SOL    HW110493   4.230   9.404   9.174 -0.4212  0.4394  2.1008
 1126SOL    HW210494   4.145   9.528   9.161 -0.8775 -0.0680 -0.2341
 1127SOL     OW10495  10.447   5.165  11.763  0.2328 -0.3049 -0.1581
 1127SOL    HW110496  10.448   5.197  11.853  0.5806  0.8048 -0.5376
 1127SOL    HW210497  10.453   5.070  11.771 -0.9755 -0.2990  1.0075
 1128SOL     OW10498   7.726   0.069   3.370 -0.0398  0.0928  0.0020
 1128SOL    HW110499   7.810   0.044   3.410  0.7164  0.3810 -1.3329
 1128SOL    HW210500   7.750   0.131   3.302 -1.5244  1.4025  0.6260
 1129SOL     OW10501  10.369   4.406  10.178 -0.4226  0.6080  0.0304
 1129SOL    HW110502  10.285   4.415  10.133  0.3465  1.4231 -1.2931
 1129SOL    HW210503  10.374   4.482  10.236  0.0652  1.4193 -1.0480
 1130SOL     OW10504   6.527   2.708   6.400  0.1821 -0.6961  0.0481
 1130SOL    HW110505   6.559   2.640   6.340  1.5299 -1.4901  1.5630
 1130SOL    HW210506   6.559   2.790   6.363  0.6367 -1.1326 -0.5482
 1131SOL     OW10507   7.559   1.092   9.783 -0.0883  0.0371 -0.0183
 1131SOL    HW110508   7.610   1.092   9.864 -3.0229 -0.0936  1.9854
 1131SOL    HW210509   7.564   1.182   9.751 -0.3868  0.5648  1.3558
 1132SOL     OW10510   5.170   4.347  10.605 -0.1235 -0.3810 -0.8093
 1132SOL    HW110511   5.104   4.294  10.560  0.8484 -1.4927 -0.9873
 1132SOL    HW210512   5.218   4.284  10.659  0.6078  0.4443 -0.4796
 1133SOL     OW10513  10.461   6.399   6.792  0.3252 -0.5071  0.3549
 1133SOL    HW110514  10.402   6.431   6.860  1.3924  0.5864  0.8090
 1133SOL    HW210515  10.429   6.311   6.771 -1.1963 -0.0979  0.8641
 1134SOL     OW10516   7.498   8.965   1.757 -0.0045  0.0595 -0.2097
 1134SOL    HW110517   7.453   9.036   1.711  1.3831  1.1064 -0.0157
 1134SOL    HW210518   7.427   8.913   1.795 -1.0811  0.9356 -0.9376
 1135SOL     OW10519   3.815   7.142   7.152 -1.4230 -0.3335 -0.2554
 1135SOL    HW110520   3.759   7.076   7.112 -0.9358 -0.6219 -0.4720
 1135SOL    HW210521   3.792   7.141   7.245 -0.9842 -1.2541 -0.1443
 1136SOL     OW10522  10.277  12.044  11.241 -0.0355 -0.6599 -0.3935
 1136SOL    HW110523  10.193  12.036  11.195 -1.0764 -2.2000  1.5644
 1136SOL    HW210524  10.282  12.136  11.266 -0.3734 -0.2210 -1.8235
 1137SOL     OW10525   3.010   8.690   5.642 -0.3369 -0.4118 -0.2383
 1137SOL    HW110526   3.105   8.688   5.653 -0.3070 -1.4006 -0.5836
 1137SOL    HW210527   2.975   8.656   5.725 -0.4598  1.1283  0.3859
 1138SOL     OW10528   0.163   5.715   7.930 -0.2776 -0.0158 -0.3617
 1138SOL    HW110529   0.198   5.627   7.914 -0.8907 -0.7051  1.6939
 1138SOL    HW210530   0.095   5.726   7.863 -1.9174 -2.1936  0.7983
 1139SOL     OW10531   1.940   8.012   2.708  0.3206  0.0916  1.0314
 1139SOL    HW110532   1.902   7.956   2.776 -0.0385  0.7783  1.3938
 1139SOL    HW210533   1.896   7.985   2.628 -0.1832  0.1722  1.2802
 1140SOL     OW10534   3.223   3.322   9.795  0.0176 -0.5041  0.2295
 1140SOL    HW110535   3.142   3.272   9.779  1.4820 -2.9861  0.1191
 1140SOL    HW210536   3.279   3.262   9.844  2.0573  0.9074 -0.2728
 1141SOL     OW10537  10.816   5.649  12.479 -0.1221 -0.5774  0.4087
 1141SOL    HW110538  10.764   5.730  12.479 -1.2282 -1.2546  1.1074
 1141SOL    HW210539  10.843   5.637  12.570  1.1670 -0.3206  0.0800
 1142SOL     OW10540   3.134  12.249   7.395 -0.7265 -0.3471 -0.3260
 1142SOL    HW110541   3.071  12.224   7.326  0.8585 -1.9969 -1.2609
 1142SOL    HW210542   3.093  12.324   7.438 -1.4543  1.3511 -3.5956
 1143SOL     OW10543   3.722  12.769   1.432 -0.1168 -0.1225 -0.0054
 1143SOL    HW110544   3.644  12.718   1.412  0.2806  0.2995 -3.1214
 1143SOL    HW210545   3.698  12.859   1.408  1.2575  0.0164 -0.9789
 1144SOL     OW10546   5.626   4.961   2.437  0.6534 -0.2119 -0.1749
 1144SOL    HW110547   5.668   5.018   2.501 -1.5809  1.9982 -0.4890
 1144SOL    HW210548   5.685   4.962   2.361  0.6753  1.7873 -0.1831
 1145SOL     OW10549   7.226  11.506  11.856  0.7183  0.0767  0.2868
 1145SOL    HW110550   7.185  11.423  11.879 -2.6897  1.2005 -1.1702
 1145SOL    HW210551   7.286  11.484  11.785 -0.7811 -1.0385 -0.6729
 1146SOL     OW10552   1.178  12.372   8.747  0.0645 -0.1167 -0.2354
 1146SOL    HW110553   1.230  12.445   8.780  0.7990 -0.7593  0.0602
 1146SOL    HW210554   1.154  12.397   8.658 -0.0506  0.6642  0.0125
 1147SOL     OW10555   1.823  11.574   8.116  0.8460 -0.0276 -0.3393
 1147SOL    HW110556   1.862  11.635   8.179  1.1972  0.7171 -1.2563
 1147SOL    HW210557   1.859  11.489   8.139  0.8180  0.1980  0.5838
 1148SOL     OW10558   6.706   7.943   9.641  0.3389  0.1665 -0.2568
 1148SOL    HW110559   6.778   8.002   9.618 -0.4153  1.7619  1.2423
 1148SOL    HW210560   6.707   7.941   9.737 -0.9080 -0.6766 -0.2484
 1149SOL     OW10561   8.439   0.531  10.155  0.2940  0.4675  0.4785
 1149SOL    HW110562   8.523   0.565  10.126  0.4096  0.3157  0.6373
 1149SOL    HW210563   8.446   0.527  10.250  1.0043 -1.8568  0.3783
 1150SOL     OW10564   8.715   0.245   8.857  0.2477  0.1165 -0.2808
 1150SOL    HW110565   8.742   0.181   8.923  0.7001  0.3064 -0.2743
 1150SOL    HW210566   8.636   0.285   8.893  0.1454 -0.2114 -0.1361
 1151SOL     OW10567   4.601  12.282   7.666 -0.2954 -0.7275 -0.4182
 1151SOL    HW110568   4.610  12.342   7.592  0.3932  0.5947  0.6849
 1151SOL    HW210569   4.685  12.235   7.670  1.0315  1.5807  1.4439
 1152SOL     OW10570   9.090  10.944   7.292  0.3381 -0.4598 -0.2741
 1152SOL    HW110571   9.161  10.989   7.338  0.5694 -0.4298 -0.6608
 1152SOL    HW210572   9.043  11.014   7.247 -1.1865 -0.1875  1.6074
 1153SOL     OW10573   9.602  10.061  12.232 -0.0645 -0.2141  0.3778
 1153SOL    HW110574   9.603  10.040  12.139  1.4665  0.0393  0.3028
 1153SOL    HW210575   9.582  10.154  12.236 -0.1601 -0.2317  0.3011
 1154SOL     OW10576   6.386   2.617   5.968 -0.6961 -0.0995  0.0452
 1154SOL    HW110577   6.305   2.649   5.929 -0.2556  0.0593 -0.7626
 1154SOL    HW210578   6.446   2.606   5.894  0.6408  1.5868  0.8169
 1155SOL     OW10579   5.230   1.483   5.570  0.0737  0.4182 -0.1219
 1155SOL    HW110580   5.288   1.407   5.571 -1.1048 -0.5264 -0.4092
 1155SOL    HW210581   5.284   1.554   5.537  0.8363 -0.6417 -1.2656
 1156SOL     OW10582   4.656  12.215   7.071  0.2197 -0.2395 -0.0562
 1156SOL    HW110583   4.711  12.241   6.997 -0.1278  0.5007 -0.0680
 1156SOL    HW210584   4.682  12.125   7.091  0.7377 -0.2334 -0.6905
 1157SOL     OW10585   3.401   8.391   7.788 -0.2839  0.1036 -0.0596
 1157SOL    HW110586   3.320   8.410   7.836 -0.3560  0.3364 -0.2699
 1157SOL    HW210587   3.471   8.413   7.850 -0.3298  2.2332 -0.6662
 1158SOL     OW10588   2.773   0.103  11.826 -0.0175 -0.2105 -0.5075
 1158SOL    HW110589   2.736   0.133  11.909 -0.6381 -2.5025  0.1126
 1158SOL    HW210590   2.861   0.075  11.848 -0.1862 -0.8298 -0.5990
 1159SOL     OW10591   6.623   8.644   3.480 -1.0878  0.4971  0.1984
 1159SOL    HW110592   6.642   8.606   3.395 -0.3715 -0.3400  0.7136
 1159SOL    HW210593   6.707   8.643   3.526 -1.0676  2.5802  0.2916
 1160SOL     OW10594   7.397   4.020  12.749 -0.1242  0.0377  1.2515
 1160SOL    HW110595   7.351   3.972  12.681  0.1133  0.3313  0.8741
 1160SOL    HW210596   7.428   4.099  12.705  2.8612 -1.2515  0.7977
 1161SOL     OW10597   2.949   2.024   8.626 -0.2825 -0.1924 -0.1354
 1161SOL    HW110598   2.896   2.076   8.686 -1.3921 -0.5870 -0.7259
 1161SOL    HW210599   2.981   1.951   8.678  0.8171  0.7501  0.5587
 1162SOL     OW10600   2.861   2.438   1.791  0.1198  0.5004 -0.2867
 1162SOL    HW110601   2.888   2.472   1.706 -0.3379 -0.3382 -0.7825
 1162SOL    HW210602   2.876   2.344   1.785 -1.4044  0.2106 -0.0252
 1163SOL     OW10603   9.690  10.390  11.047  0.0884 -0.1016 -0.2522
 1163SOL    HW110604   9.775  10.347  11.042  0.9515  1.5156 -0.3575
 1163SOL    HW210605   9.707  10.471  11.096 -1.1137  0.8388 -1.3009
 1164SOL     OW10606   4.638   6.494   3.335  0.4470  0.1631 -0.3307
 1164SOL    HW110607   4.556   6.475   3.289 -1.1681  0.4693  2.2512
 1164SOL    HW210608   4.633   6.445   3.416  1.8059  1.9416  0.9192
 1165SOL     OW10609   6.861   6.077   6.232 -0.7202 -0.1693  1.0552
 1165SOL    HW110610   6.948   6.099   6.197 -0.2997 -1.6909  1.0600
 1165SOL    HW210611   6.845   6.144   6.298 -0.3697  1.2083 -0.1883
 1166SOL     OW10612   7.000   0.436   4.279  0.3667  0.1606 -0.1700
 1166SOL    HW110613   6.920   0.465   4.235  0.6832 -0.7878 -1.4155
 1166SOL    HW210614   7.071   0.462   4.221  0.9987  1.0936  0.9756
 1167SOL     OW10615   7.026   2.587   4.818 -0.2047  0.3331 -0.1856
 1167SOL    HW110616   6.954   2.642   4.787  0.9175  0.1139 -3.5151
 1167SOL    HW210617   7.082   2.646   4.867 -1.3119  1.0777  0.2316
 1168SOL     OW10618  10.846   3.641  12.860 -0.0248 -0.1359  0.0306
 1168SOL    HW110619  10.829   3.548  12.869  0.4407 -0.1942  0.3457
 1168SOL    HW210620  10.761   3.682  12.872 -0.0493 -0.4522  1.0787
 1169SOL     OW10621  11.684   1.404   8.736  0.0653  0.6430  0.1288
 1169SOL    HW110622  11.697   1.394   8.642  2.3034 -0.2304  0.4768
 1169SOL    HW210623  11.753   1.464   8.764 -2.2409  3.1822  0.8730
 1170SOL     OW10624   7.458   8.578   9.777  0.0929  0.6657  0.0610
 1170SOL    HW110625   7.370   8.541   9.777 -0.2246  1.3753  1.2868
 1170SOL    HW210626   7.501   8.538   9.853  0.7610  0.4873 -0.4014
 1171SOL     OW10627   4.378   1.313   3.977  0.2255  0.2851 -0.2258
 1171SOL    HW110628   4.418   1.325   4.063  0.0843  0.0860 -0.1312
 1171SOL    HW210629   4.305   1.253   3.993 -0.9239  1.6408 -0.1519
 1172SOL     OW10630   2.442  12.858   3.496  0.3874  0.7792  0.1664
 1172SOL    HW110631   2.404  12.781   3.539  1.0850  0.9835  1.1656
 1172SOL    HW210632   2.370  12.894   3.444  0.2138 -0.8795 -0.8007
 1173SOL     OW10633  12.876   7.779   7.088 -0.3128  0.7397 -0.0100
 1173SOL    HW110634  12.829   7.767   7.006 -0.8444  0.6720  0.2997
 1173SOL    HW210635  12.966   7.751   7.069 -0.1284  1.8813 -0.8892
 1174SOL     OW10636   6.817  11.076   7.262  0.5018  0.0397  0.2812
 1174SOL    HW110637   6.804  11.140   7.332 -0.3466  0.1929 -0.0051
 1174SOL    HW210638   6.875  11.010   7.301  1.8336  1.2332  0.4017
 1175SOL     OW10639  10.950   3.760   8.090 -0.0973  0.3363 -0.3489
 1175SOL    HW110640  10.854   3.762   8.095 -0.0721  1.7518  0.1185
 1175SOL    HW210641  10.977   3.719   8.172 -0.3081 -1.0421 -0.9454
 1176SOL     OW10642  12.809   9.456   9.740 -0.3870 -0.1430  0.4645
 1176SOL    HW110643  12.751   9.405   9.684 -0.0588 -0.2283  0.2013
 1176SOL    HW210644  12.894   9.453   9.696  0.1061 -0.9865  1.4363
 1177SOL     OW10645   7.751   4.598   2.847 -0.5650 -0.4828  0.3496
 1177SOL    HW110646   7.790   4.615   2.933 -1.2018  2.1939  0.1858
 1177SOL    HW210647   7.691   4.671   2.833  1.2779  0.5775 -3.3775
 1178SOL     OW10648   6.256   5.360   7.625 -0.0774 -0.3344 -0.2499
 1178SOL    HW110649   6.324   5.334   7.563 -1.6095 -0.7500 -1.8004
 1178SOL    HW210650   6.175   5.328   7.588 -1.2444  0.7923  1.1957
 1179SOL     OW10651   6.446   5.076   8.439 -0.1775  0.3578 -0.0336
 1179SOL    HW110652   6.497   5.084   8.359 -0.9459  0.0128 -0.5689
 1179SOL    HW210653   6.403   4.991   8.432  2.0621 -1.0970  2.1278
 1180SOL     OW10654   4.480   8.858  11.508 -0.4573 -0.0022  0.1277
 1180SOL    HW110655   4.527   8.920  11.563  0.2599  0.9010 -1.4507
 1180SOL    HW210656   4.540   8.783  11.501  0.4361  0.7918 -1.1761
 1181SOL     OW10657   2.405   2.641   8.009  0.5650  0.3235 -0.4042
 1181SOL    HW110658   2.490   2.650   8.053  1.7305 -0.6005 -2.3577
 1181SOL    HW210659   2.385   2.729   7.978  0.9949  0.4685 -0.2826
 1182SOL     OW10660  10.290   0.113   2.824  0.5889  0.0266 -0.0526
 1182SOL    HW110661  10.326   0.068   2.901  0.8513  0.8799  0.3435
 1182SOL    HW210662  10.303   0.206   2.844  0.2828  0.2649 -0.9548
 1183SOL     OW10663   6.392   3.658   3.430 -0.1571 -0.1867 -0.1662
 1183SOL    HW110664   6.451   3.725   3.464 -1.0061 -0.0868  1.1849
 1183SOL    HW210665   6.449   3.589   3.398  0.6995  0.3791  0.1214
 1184SOL     OW10666   5.076   5.180   3.872 -0.1952  0.0866  0.2275
 1184SOL    HW110667   5.016   5.154   3.802  1.8128 -1.9665 -0.8585
 1184SOL    HW210668   5.075   5.105   3.932  0.1177  0.7101  1.0238
 1185SOL     OW10669   0.731   8.622   6.027 -0.0625  0.2443 -0.7495
 1185SOL    HW110670   0.651   8.575   6.049 -0.7994  1.6639 -0.3407
 1185SOL    HW210671   0.777   8.631   6.110  1.4392 -2.1157 -1.2263
 1186SOL     OW10672   3.324   5.198   6.420  0.1153  0.2924  0.0907
 1186SOL    HW110673   3.420   5.201   6.424  0.2909 -1.1871 -1.5124
 1186SOL    HW210674   3.301   5.262   6.353 -0.0840  0.9884  0.8059
 1187SOL     OW10675   0.187   6.509   7.301  0.5403 -0.1225  0.0760
 1187SOL    HW110676   0.237   6.590   7.315  1.4811 -0.6928  0.0997
 1187SOL    HW210677   0.107   6.522   7.351  0.8081  0.6795  0.3235
 1188SOL     OW10678  12.001   0.980   6.811 -0.1835 -0.2215  0.1719
 1188SOL    HW110679  12.076   0.990   6.752  0.0550  2.0021  0.7707
 1188SOL    HW210680  11.966   0.894   6.790  1.2465 -0.4332 -1.6214
 1189SOL     OW10681   2.700   9.287   4.280 -0.2368 -0.0632  0.3305
 1189SOL    HW110682   2.690   9.293   4.185 -0.2745  1.6256  0.4085
 1189SOL    HW210683   2.645   9.214   4.305  2.6055 -3.0195 -1.3047
 1190SOL     OW10684   9.737   9.556   2.303 -0.3519 -0.5164 -0.2192
 1190SOL    HW110685   9.709   9.618   2.369  1.9830  0.3845 -0.0002
 1190SOL    HW210686   9.738   9.606   2.221 -1.2844 -1.0877 -0.6011
 1191SOL     OW10687   0.927   1.671   9.707 -0.2753  0.1511  0.3389
 1191SOL    HW110688   0.929   1.593   9.651 -0.4674 -0.1542  0.7540
 1191SOL    HW210689   0.946   1.743   9.647 -1.4111 -0.0666 -0.3148
 1192SOL     OW10690   7.916   5.745   7.851 -0.0340 -0.3498  0.1390
 1192SOL    HW110691   7.911   5.702   7.766 -0.4878  0.2538 -0.1447
 1192SOL    HW210692   7.844   5.807   7.851 -0.1503 -0.4679  1.0376
 1193SOL     OW10693  11.383  12.676  10.636  0.3549 -0.1707  0.1423
 1193SOL    HW110694  11.456  12.651  10.692 -0.0596  0.1934  0.8585
 1193SOL    HW210695  11.319  12.716  10.695  0.2069  0.8642 -0.6934
 1194SOL     OW10696  12.536  10.543   6.081  0.0149  0.6285  0.2479
 1194SOL    HW110697  12.560  10.556   5.989 -0.1759  0.6066  0.1951
 1194SOL    HW210698  12.620  10.537   6.126  0.1122  1.4390  0.1917
 1195SOL     OW10699  10.074   1.736  11.952  0.5514  0.1953  0.0654
 1195SOL    HW110700  10.030   1.812  11.989 -1.4757 -1.2911  0.9064
 1195SOL    HW210701  10.131   1.771  11.884 -0.5952  2.3997  0.1748
 1196SOL     OW10702   2.672   8.781   2.016  0.1296  0.1584 -0.3981
 1196SOL    HW110703   2.616   8.718   2.062 -0.6418  1.3818  0.3884
 1196SOL    HW210704   2.616   8.857   2.003  1.1144  0.7709 -1.1368
 1197SOL     OW10705  12.509   1.867   1.694 -0.0357  0.3683 -0.3681
 1197SOL    HW110706  12.423   1.835   1.666 -0.1345  0.8187 -0.5872
 1197SOL    HW210707  12.502   1.962   1.688 -0.2045  0.5192  1.6320
 1198SOL     OW10708   9.540   1.559   7.370 -0.5126  0.2414  0.1832
 1198SOL    HW110709   9.513   1.651   7.365  1.6814  1.2253  3.2879
 1198SOL    HW210710   9.460   1.512   7.391 -1.7918  1.2549 -1.9813
 1199SOL     OW10711  10.788   3.824   0.665 -0.0092 -0.6926 -0.4480
 1199SOL    HW110712  10.880   3.838   0.642  0.1856  1.1320  1.2424
 1199SOL    HW210713  10.792   3.767   0.741 -0.3324 -1.1067 -0.7361
 1200SOL     OW10714   4.650   5.185   7.893  0.2401 -0.0694  0.6023
 1200SOL    HW110715   4.611   5.214   7.976 -0.9502  0.1485 -0.0074
 1200SOL    HW210716   4.686   5.265   7.855 -1.9559  0.4723 -0.5032
 1201SOL     OW10717  11.014  11.671  12.631  0.0431 -0.2575 -0.1100
 1201SOL    HW110718  10.936  11.632  12.591  0.7176 -1.4311 -0.3436
 1201SOL    HW210719  10.996  11.765  12.632 -0.1498 -0.1623 -2.9229
 1202SOL     OW10720  11.658  11.772   7.794 -0.2090 -0.0463 -0.5921
 1202SOL    HW110721  11.613  11.755   7.877  0.5995  0.1615 -0.1036
 1202SOL    HW210722  11.662  11.686   7.752 -0.9977 -0.0779 -0.6131
 1203SOL     OW10723  10.948   4.948   3.192  0.5553  0.2851  0.0589
 1203SOL    HW110724  10.886   4.879   3.166  0.7949 -1.2523  3.0636
 1203SOL    HW210725  10.897   5.005   3.249  1.5232 -0.3492  1.6340
 1204SOL     OW10726   7.005   3.456   6.674  0.1791  0.1559  0.0112
 1204SOL    HW110727   7.093   3.491   6.660 -0.5376  1.7455 -0.8746
 1204SOL    HW210728   6.988   3.469   6.767  1.7265 -2.3881  0.7492
 1205SOL     OW10729   8.687   1.837  10.098  0.1409  0.0395 -0.6306
 1205SOL    HW110730   8.592   1.826  10.088  0.2964 -1.0363 -1.0232
 1205SOL    HW210731   8.709   1.783  10.175  0.7234 -1.4558 -1.7933
 1206SOL     OW10732   0.072   2.454   6.517 -0.3910  0.2431 -0.3520
 1206SOL    HW110733   0.095   2.543   6.540 -0.3359  0.3183 -0.6821
 1206SOL    HW210734   0.108   2.400   6.587 -0.3473  0.4727 -0.1976
 1207SOL     OW10735   8.578   1.182   0.858 -0.3748 -0.7179 -0.0364
 1207SOL    HW110736   8.638   1.240   0.904 -0.9377 -0.4430  0.3688
 1207SOL    HW210737   8.584   1.208   0.766  0.4790 -1.0178 -0.0678
 1208SOL     OW10738   2.947   1.921   8.072 -0.0225  0.1745  0.4961
 1208SOL    HW110739   2.878   1.983   8.094  0.4309  0.5466  0.8920
 1208SOL    HW210740   3.029   1.970   8.084  0.2818  0.5163 -2.3145
 1209SOL     OW10741  10.750   4.946   4.688 -0.7340  0.6153  0.3981
 1209SOL    HW110742  10.706   5.014   4.737 -0.1937 -0.2027  2.0867
 1209SOL    HW210743  10.816   4.911   4.748 -0.6851 -1.0815 -0.5612
 1210SOL     OW10744  10.247   8.857   8.877  0.0281 -1.0261 -0.3959
 1210SOL    HW110745  10.306   8.785   8.855  0.1365 -0.8104 -0.8151
 1210SOL    HW210746  10.258   8.920   8.806 -0.3086 -0.7416 -0.1996
 1211SOL     OW10747   4.331   3.362   1.112 -0.1747 -0.1839  0.2178
 1211SOL    HW110748   4.387   3.333   1.184  0.1131 -0.6789 -0.1988
 1211SOL    HW210749   4.244   3.367   1.150  0.0007 -0.2905  0.6421
 1212SOL     OW10750   9.201   5.802   7.502 -0.4936 -0.7898  0.0019
 1212SOL    HW110751   9.113   5.831   7.525 -0.2634  0.6722 -0.8525
 1212SOL    HW210752   9.189   5.745   7.426 -0.5637  1.3479 -1.6815
 1213SOL     OW10753   6.874   3.760   1.501  0.1674 -0.7194  0.3794
 1213SOL    HW110754   6.880   3.741   1.408 -0.4842 -0.0622  0.1940
 1213SOL    HW210755   6.820   3.689   1.536 -0.1680 -0.5827  0.1379
 1214SOL     OW10756  12.124   9.247   0.820  0.5408  0.3891  0.5103
 1214SOL    HW110757  12.082   9.264   0.904  0.8364  0.5409  0.6259
 1214SOL    HW210758  12.051   9.240   0.758  0.3542  0.8389  0.6802
 1215SOL     OW10759   2.849  11.994   9.043 -0.1367  0.6124  0.1737
 1215SOL    HW110760   2.816  11.907   9.018 -0.2306  0.8395 -0.5346
 1215SOL    HW210761   2.774  12.037   9.084 -0.2622  0.5610 -0.0003
 1216SOL     OW10762   4.058   5.717   7.192 -0.0072 -0.5690  0.2259
 1216SOL    HW110763   4.045   5.805   7.158  1.0027 -0.4721  0.0624
 1216SOL    HW210764   4.139   5.722   7.243  0.5478 -1.5964 -0.5110
 1217SOL     OW10765   3.690   3.158   7.505 -0.0416  0.2489  0.5831
 1217SOL    HW110766   3.602   3.126   7.484  0.3092 -0.7610  0.6359
 1217SOL    HW210767   3.743   3.080   7.515  1.2266  0.8748 -0.8996
 1218SOL     OW10768  10.464   9.647  11.127 -0.0536 -0.0144  0.2077
 1218SOL    HW110769  10.553   9.628  11.155 -0.4706 -1.5006  0.5994
 1218SOL    HW210770  10.414   9.569  11.150 -1.3116  0.4917 -0.6807
 1219SOL     OW10771  10.545  12.801  11.053  0.1584 -0.3045 -0.2200
 1219SOL    HW110772  10.572  12.861  11.122 -0.7453 -0.4375  0.2727
 1219SOL    HW210773  10.450  12.792  11.065 -0.3342  0.9253 -2.4573
 1220SOL     OW10774   5.299   7.701  10.461 -0.4660  0.3220 -0.5197
 1220SOL    HW110775   5.207   7.710  10.488 -0.1735  0.6916  0.3805
 1220SOL    HW210776   5.330   7.791  10.452 -0.9242  0.2896 -3.5372
 1221SOL     OW10777  10.340  11.484   7.039 -0.5027  0.0309  0.4045
 1221SOL    HW110778  10.307  11.505   6.951  1.0134  1.7269  0.1910
 1221SOL    HW210779  10.362  11.568   7.078  3.5639 -0.8462  0.4845
 1222SOL     OW10780   0.107   0.333   9.267 -0.1368  0.4991 -0.2795
 1222SOL    HW110781   0.031   0.359   9.319  0.0987  0.0147  0.3169
 1222SOL    HW210782   0.148   0.263   9.317  0.5626  0.5764 -0.7252
 1223SOL     OW10783   7.499   6.389   2.299 -0.2094  0.0535 -0.0210
 1223SOL    HW110784   7.503   6.295   2.283  0.4224  0.0642  0.0297
 1223SOL    HW210785   7.477   6.397   2.391 -0.9996 -0.0363 -0.1993
 1224SOL     OW10786  12.199  11.974   8.833 -0.5887 -0.5123 -0.0603
 1224SOL    HW110787  12.266  11.943   8.772 -0.2548 -0.0861  0.0845
 1224SOL    HW210788  12.181  11.899   8.889 -0.1978 -0.6197 -0.0752
 1225SOL     OW10789   5.388   7.782   9.544 -0.2708  0.2978 -0.5197
 1225SOL    HW110790   5.411   7.850   9.607  1.2213  0.2547 -0.9698
 1225SOL    HW210791   5.354   7.829   9.468 -0.0637  0.4898 -0.4930
 1226SOL     OW10792   8.988   4.643   8.983 -0.2973 -0.3624 -0.7663
 1226SOL    HW110793   8.978   4.733   8.950  1.3530  0.4446  0.7497
 1226SOL    HW210794   9.082   4.634   8.999 -0.4124 -2.4471 -1.0329
 1227SOL     OW10795   2.877   0.316   5.273 -0.0699  0.3324  0.3952
 1227SOL    HW110796   2.959   0.280   5.307 -0.5510 -0.8674  0.3057
 1227SOL    HW210797   2.905   0.380   5.207  0.7923 -1.1022 -0.6736
 1228SOL     OW10798   5.792   2.602  11.733 -0.0470 -0.0845  0.5036
 1228SOL    HW110799   5.846   2.634  11.805  0.3579 -1.7983  0.9921
 1228SOL    HW210800   5.703   2.631  11.756  0.5619  2.9304 -0.4071
 1229SOL     OW10801   1.580  12.113   3.038 -0.0046 -0.1222  0.5420
 1229SOL    HW110802   1.632  12.186   3.071  0.7983  0.1538 -1.2206
 1229SOL    HW210803   1.641  12.039   3.033  0.0230 -0.0483 -0.6265
 1230SOL     OW10804   0.819   9.804   0.676  0.1578 -0.3209  0.0792
 1230SOL    HW110805   0.913   9.812   0.695  0.4235 -0.2564 -1.1615
 1230SOL    HW210806   0.812   9.822   0.582 -1.1526  0.0702  0.2292
 1231SOL     OW10807  12.035   1.075  11.863 -0.0831  0.1291 -0.0075
 1231SOL    HW110808  11.978   1.143  11.829 -0.6376  0.9976  2.4812
 1231SOL    HW210809  11.976   1.009  11.898  0.3097  1.0977  2.7102
 1232SOL     OW10810   2.930  10.156  11.135 -0.1057  0.2778 -0.3126
 1232SOL    HW110811   3.010  10.205  11.115  1.6302 -2.3277 -0.2608
 1232SOL    HW210812   2.956  10.097  11.205 -2.0253 -0.8105 -0.4730
 1233SOL     OW10813  11.635  12.427   4.209  0.3712  0.5341  0.3880
 1233SOL    HW110814  11.717  12.473   4.192  0.9155 -1.1920 -2.3245
 1233SOL    HW210815  11.566  12.490   4.186  1.0209  1.0636 -0.1601
 1234SOL     OW10816   3.922  10.961  11.154 -0.0840 -0.0200 -0.1882
 1234SOL    HW110817   3.916  11.056  11.155 -0.6458 -0.0405  1.9575
 1234SOL    HW210818   3.910  10.938  11.061  0.6008  1.9906 -0.8370
 1235SOL     OW10819   3.882  10.262   5.088  0.6847 -0.0692  0.0026
 1235SOL    HW110820   3.824  10.192   5.058  0.3510 -1.5897  3.6448
 1235SOL    HW210821   3.962  10.251   5.037 -0.0174 -1.9536 -0.7936
 1236SOL     OW10822   2.073  10.876   1.542  0.6699 -0.0311 -0.0628
 1236SOL    HW110823   2.137  10.826   1.490  0.2810 -0.0524 -0.5340
 1236SOL    HW210824   2.040  10.943   1.481 -0.5781 -0.7221 -0.1992
 1237SOL     OW10825   2.263  12.115   0.866  0.2975 -0.1888 -0.1799
 1237SOL    HW110826   2.238  12.190   0.812 -1.5822 -0.3848  0.3620
 1237SOL    HW210827   2.190  12.104   0.927  0.8090 -2.1136  0.1317
 1238SOL     OW10828   8.968   6.710   8.835 -0.0743 -0.4133 -0.1997
 1238SOL    HW110829   9.048   6.737   8.792 -0.0402 -0.1856  0.0082
 1238SOL    HW210830   8.983   6.727   8.928  0.1435 -1.6045  0.0012
 1239SOL     OW10831   3.510   9.386   7.623 -0.1269  0.2206  0.1182
 1239SOL    HW110832   3.537   9.391   7.715  1.2440 -0.2974 -0.2376
 1239SOL    HW210833   3.530   9.296   7.597  0.5135  0.6717 -0.9975
 1240SOL     OW10834   7.488  10.177   4.991  0.2992 -0.3968 -0.0941
 1240SOL    HW110835   7.539  10.095   4.988  2.4140  0.8495 -0.1198
 1240SOL    HW210836   7.537  10.233   5.050 -1.0286  0.9509 -0.2193
 1241SOL     OW10837  10.883   5.573   2.480 -0.0997  0.1946 -0.2399
 1241SOL    HW110838  10.796   5.541   2.504 -0.5985  1.1488 -0.6906
 1241SOL    HW210839  10.873   5.668   2.476  1.4862  0.4976  1.6822
 1242SOL     OW10840   8.345  11.261   3.260  0.3052 -0.5287  0.0693
 1242SOL    HW110841   8.355  11.167   3.279  0.7209 -0.6651 -0.7804
 1242SOL    HW210842   8.298  11.264   3.176 -0.3671  0.0388  0.4568
 1243SOL     OW10843   0.302   6.993   1.743  0.7212  0.5580  0.6316
 1243SOL    HW110844   0.327   7.015   1.833  0.1655  0.5144  0.7990
 1243SOL    HW210845   0.207   6.991   1.745  0.7070  0.6400  0.0187
 1244SOL     OW10846  12.124  10.188   4.952 -0.3939  0.1151  0.3381
 1244SOL    HW110847  12.204  10.225   4.914 -0.7704  2.5928  1.7567
 1244SOL    HW210848  12.063  10.262   4.956 -2.3270 -1.4137  0.4894
 1245SOL     OW10849  12.355   4.192   6.092 -0.6376  0.4332 -0.0093
 1245SOL    HW110850  12.354   4.163   6.183  1.6887 -0.8447 -0.3205
 1245SOL    HW210851  12.399   4.277   6.094 -0.1294  0.1700  0.0053
 1246SOL     OW10852   2.394  10.121   3.842  0.3196 -0.4723  0.2386
 1246SOL    HW110853   2.309  10.146   3.805  0.9157 -0.6976 -1.3584
 1246SOL    HW210854   2.443  10.203   3.846  0.7762 -0.6682 -0.9387
 1247SOL     OW10855   3.125   2.059   1.767  0.3534  0.3474  0.6640
 1247SOL    HW110856   3.186   2.130   1.788 -0.1988  1.4385 -1.2135
 1247SOL    HW210857   3.051   2.103   1.726 -0.4475 -1.2416  0.3484
 1248SOL     OW10858   5.500   7.082   9.504 -0.5271 -0.6003 -0.1950
 1248SOL    HW110859   5.582   7.086   9.455 -0.6682 -0.9922 -0.4663
 1248SOL    HW210860   5.450   7.157   9.472  0.0607  0.1436  0.5923
 1249SOL     OW10861   1.664   0.443   0.369  0.6699  0.1195 -0.0578
 1249SOL    HW110862   1.714   0.370   0.408 -0.6499 -1.1748 -0.6969
 1249SOL    HW210863   1.572   0.421   0.387  0.1375  0.5876 -2.0314
 1250SOL     OW10864   1.448   3.631   8.796  0.3166 -0.0032 -0.1217
 1250SOL    HW110865   1.363   3.598   8.766  0.0027 -0.0730  0.8240
 1250SOL    HW210866   1.438   3.727   8.792 -0.0399 -0.0012  0.5879
 1251SOL     OW10867   9.068   2.392   8.614 -0.3557 -0.2472 -0.2561
 1251SOL    HW110868   9.016   2.358   8.541  0.2442 -0.5780 -0.5289
 1251SOL    HW210869   9.034   2.347   8.691 -0.4384 -0.4964 -0.4402
 1252SOL     OW10870   9.512  12.315  10.806 -0.1653  0.6284 -0.1904
 1252SOL    HW110871   9.487  12.263  10.730 -0.5495 -1.2126  1.1238
 1252SOL    HW210872   9.558  12.254  10.863  1.6210  2.3610  0.3571
 1253SOL     OW10873   0.615   7.829   3.520  0.2251  0.0245 -0.5175
 1253SOL    HW110874   0.523   7.858   3.522  0.4135  0.6265 -0.3791
 1253SOL    HW210875   0.662   7.902   3.480  0.7750  0.0835  0.2210
 1254SOL     OW10876   5.469  11.125   6.419 -0.7542 -0.7901 -0.2800
 1254SOL    HW110877   5.480  11.093   6.329  2.4475 -1.4183  0.2157
 1254SOL    HW210878   5.462  11.046   6.472  0.3599 -0.5227  0.2871
 1255SOL     OW10879   4.212   6.756   0.148  0.5692  0.6155  0.5376
 1255SOL    HW110880   4.214   6.677   0.201  2.2925  1.7043  2.2281
 1255SOL    HW210881   4.298   6.758   0.104 -0.7938 -0.2663 -2.4579
 1256SOL     OW10882   6.812   8.409   3.317 -0.3399  0.0086 -0.3845
 1256SOL    HW110883   6.787   8.490   3.271 -1.9792 -0.0277  0.3690
 1256SOL    HW210884   6.907   8.417   3.329 -0.2373  1.1205 -1.6345
 1257SOL     OW10885   4.878   7.079  12.310  0.4761 -0.5063 -0.5319
 1257SOL    HW110886   4.938   7.023  12.360  2.5216  2.1946  0.2359
 1257SOL    HW210887   4.918   7.086  12.223  0.9802  0.7897 -0.2136
 1258SOL     OW10888   6.614   0.835   8.931  0.1357 -0.1771  0.2108
 1258SOL    HW110889   6.643   0.757   8.977  0.0873  0.0903  0.7006
 1258SOL    HW210890   6.555   0.803   8.863  1.2165 -0.6899 -0.5125
 1259SOL     OW10891   2.471   3.362   6.318 -0.0618 -0.0788 -0.3256
 1259SOL    HW110892   2.498   3.355   6.409  0.1680  2.2738 -0.1376
 1259SOL    HW210893   2.464   3.272   6.287  1.3870 -0.8912  1.5478
 1260SOL     OW10894   9.859   9.684   6.517 -0.2292 -0.2103 -0.4419
 1260SOL    HW110895   9.933   9.714   6.464 -1.8983  0.9840 -2.2236
 1260SOL    HW210896   9.872   9.727   6.602  0.0535  1.6766 -1.3858
 1261SOL     OW10897   3.874  10.383   8.152  0.3164  0.1285 -0.1578
 1261SOL    HW110898   3.925  10.440   8.210  2.5410 -0.0046 -1.8831
 1261SOL    HW210899   3.877  10.297   8.193  0.6839  0.3249  0.2282
 1262SOL     OW10900   9.979   9.175   8.274  0.1330 -0.6521 -1.0902
 1262SOL    HW110901  10.001   9.170   8.181  0.0078  0.2553 -1.1752
 1262SOL    HW210902   9.979   9.269   8.294  0.8801 -0.8534 -0.0046
 1263SOL     OW10903   8.653   9.230   3.608 -0.1934 -0.0288 -0.2622
 1263SOL    HW110904   8.688   9.153   3.652  0.2436  0.6695  0.6454
 1263SOL    HW210905   8.576   9.255   3.661  0.0990  0.5807 -0.1182
 1264SOL     OW10906   5.745   4.789  12.030  0.6956 -0.1894 -0.0616
 1264SOL    HW110907   5.695   4.734  12.090  0.9443 -2.3072 -1.6673
 1264SOL    HW210908   5.680   4.846  11.990 -0.2587 -1.8632 -1.0082
 1265SOL     OW10909   3.586   8.659   7.601  0.8234  0.5256  0.1863
 1265SOL    HW110910   3.508   8.710   7.619  0.2587 -0.1426 -0.3103
 1265SOL    HW210911   3.566   8.571   7.634  0.3223 -0.3457 -2.2024
 1266SOL     OW10912   5.135   6.824   7.162  0.2732 -0.5452 -0.3028
 1266SOL    HW110913   5.072   6.856   7.098 -0.4567 -0.3432  0.4990
 1266SOL    HW210914   5.212   6.879   7.150  0.1075 -0.4434 -0.9263
 1267SOL     OW10915   1.471   0.312   7.066 -0.2952  0.1733  0.8654
 1267SOL    HW110916   1.422   0.270   7.137  0.1047 -0.2999  0.8620
 1267SOL    HW210917   1.453   0.258   6.989 -0.3043  0.3849  0.7181
 1268SOL     OW10918   3.878   6.163  10.985 -0.9839 -0.6787 -0.0802
 1268SOL    HW110919   3.785   6.143  10.997 -1.4886  1.4436 -0.0672
 1268SOL    HW210920   3.921   6.124  11.060 -2.0449 -0.5930  0.5943
 1269SOL     OW10921   0.747   7.713   1.585 -0.5876 -0.2270  0.1764
 1269SOL    HW110922   0.820   7.775   1.595  0.1182 -0.8247 -1.1155
 1269SOL    HW210923   0.696   7.725   1.665  0.6230  0.5969  0.8764
 1270SOL     OW10924   7.038   2.102   9.593 -0.1116  0.8837 -0.5339
 1270SOL    HW110925   7.047   2.132   9.683 -2.2389  1.2830 -0.4241
 1270SOL    HW210926   6.950   2.067   9.587  0.5633 -0.7263 -2.0346
 1271SOL     OW10927  10.451   4.238   6.427 -0.2781  0.0513  0.1926
 1271SOL    HW110928  10.525   4.253   6.486  0.9466  0.4576 -1.3655
 1271SOL    HW210929  10.374   4.239   6.483  0.8872 -0.2815  1.8603
 1272SOL     OW10930   4.698   4.087   6.620 -0.0668  0.5459  0.6074
 1272SOL    HW110931   4.617   4.072   6.668  0.8481 -1.1140  1.7229
 1272SOL    HW210932   4.709   4.182   6.619 -2.5773  0.9139 -0.5869
 1273SOL     OW10933   4.823   3.604   7.355 -0.2311 -0.1074  0.1337
 1273SOL    HW110934   4.853   3.598   7.445 -0.2824  0.5215  0.1944
 1273SOL    HW210935   4.860   3.526   7.312 -0.4049 -0.5357  0.7487
 1274SOL     OW10936  10.036  11.109   4.859 -0.4555 -0.1777 -0.6707
 1274SOL    HW110937  10.110  11.073   4.908 -0.2656 -1.4154 -1.8104
 1274SOL    HW210938  10.072  11.185   4.813 -0.7650  1.3276  1.4578
 1275SOL     OW10939   0.039  11.862   5.174 -0.2889 -0.6469  0.2470
 1275SOL    HW110940   0.051  11.957   5.178 -0.8930 -0.6095  1.7590
 1275SOL    HW210941   0.096  11.828   5.243  0.5382 -1.4651 -0.8167
 1276SOL     OW10942  10.199   2.216   2.213  0.2152  0.2798  0.1427
 1276SOL    HW110943  10.157   2.144   2.261 -1.5916  1.7145  0.8216
 1276SOL    HW210944  10.174   2.201   2.122  0.5509 -0.3936  0.1544
 1277SOL     OW10945   1.095   1.927  10.095  0.1793  0.1918  0.2517
 1277SOL    HW110946   1.132   1.877  10.022  0.8119  0.3983  0.4335
 1277SOL    HW210947   1.170   1.952  10.148 -0.2012  0.7600  0.5278
 1278SOL     OW10948  12.816   2.676   9.933 -0.1383  0.2320  0.2153
 1278SOL    HW110949  12.863   2.759   9.930 -0.0735  0.1684 -0.7940
 1278SOL    HW210950  12.878   2.614   9.972  0.1506  0.4423  0.0894
 1279SOL     OW10951   7.270   9.553   4.999  0.3767  0.5238  0.1285
 1279SOL    HW110952   7.333   9.503   4.947 -0.9728  0.6550 -1.7174
 1279SOL    HW210953   7.314   9.637   5.016  0.8834  0.4376 -0.7225
 1280SOL     OW10954  12.050  11.001   9.261 -0.3835  0.2059  0.1035
 1280SOL    HW110955  12.011  10.927   9.308 -1.7822  1.1721  0.5160
 1280SOL    HW210956  11.978  11.036   9.209  0.3169  1.1820 -0.2269
 1281SOL     OW10957   1.832   6.367   2.748 -0.0238  0.4590  0.0185
 1281SOL    HW110958   1.859   6.455   2.722 -0.0741 -0.2557 -2.8147
 1281SOL    HW210959   1.742   6.360   2.717  0.6653 -1.2519 -1.7706
 1282SOL     OW10960  12.465   6.657   4.529 -0.5321  0.0799  0.9509
 1282SOL    HW110961  12.430   6.574   4.562 -2.7357  1.1428  1.4790
 1282SOL    HW210962  12.503   6.700   4.606  2.4787 -1.1942  0.3327
 1283SOL     OW10963   1.116   1.843   0.908 -0.4223  0.1817 -0.1998
 1283SOL    HW110964   1.133   1.907   0.838 -3.1511  0.9837 -0.2566
 1283SOL    HW210965   1.133   1.758   0.868  0.8920  0.7525 -0.9079
 1284SOL     OW10966   3.423   1.113   2.785 -0.6003  0.4750 -0.0645
 1284SOL    HW110967   3.474   1.137   2.862  1.8194  0.0930 -1.4409
 1284SOL    HW210968   3.350   1.062   2.820  0.4241  0.2813  1.9576
 1285SOL     OW10969   3.877   8.361   3.681 -0.3460  0.0533  0.2006
 1285SOL    HW110970   3.909   8.434   3.629 -0.5206 -0.8127 -1.1582
 1285SOL    HW210971   3.829   8.306   3.620  0.9080 -1.8961  0.8836
 1286SOL     OW10972   8.503   7.138   9.120 -0.1870 -0.0212  0.0359
 1286SOL    HW110973   8.447   7.118   9.195  1.2190 -0.4346  1.0221
 1286SOL    HW210974   8.577   7.078   9.129  0.1617  0.1362 -1.5279
 1287SOL     OW10975  10.232   9.803   7.309 -0.1293 -0.6957 -0.8542
 1287SOL    HW110976  10.201   9.737   7.370 -1.5116 -0.6465 -1.4598
 1287SOL    HW210977  10.270   9.871   7.364 -0.3100 -1.1732 -0.1280
 1288SOL     OW10978   9.954  12.679  10.476 -0.1954 -0.3194 -0.4559
 1288SOL    HW110979   9.972  12.735  10.552 -0.3145  0.3711 -0.9193
 1288SOL    HW210980   9.916  12.600  10.513  0.8550 -0.5028  0.2946
 1289SOL     OW10981   6.765   1.633   5.244  0.0139 -0.1654  1.1394
 1289SOL    HW110982   6.853   1.671   5.248  0.3517 -0.7361 -0.3121
 1289SOL    HW210983   6.709   1.705   5.215  0.1870 -0.0933  0.9824
 1290SOL     OW10984   1.261   9.590   6.301 -0.4799  0.2075 -0.6282
 1290SOL    HW110985   1.296   9.658   6.243  0.0020  1.1508  0.7292
 1290SOL    HW210986   1.195   9.636   6.353 -0.2616 -0.4017  0.1901
 1291SOL     OW10987  11.323   1.000   2.718  0.6067  0.1031 -0.7147
 1291SOL    HW110988  11.413   0.969   2.702  0.8046  0.1322  0.2822
 1291SOL    HW210989  11.320   1.087   2.679  1.7812  1.1332  1.3553
 1292SOL     OW10990   0.166   4.708   6.092  0.5948 -0.4029 -0.6444
 1292SOL    HW110991   0.186   4.747   6.178 -0.6085  0.5462 -0.7576
 1292SOL    HW210992   0.184   4.779   6.030  1.0672 -0.9523 -1.1329
 1293SOL     OW10993   6.958   4.924   3.822  0.0656 -0.0987 -0.5618
 1293SOL    HW110994   6.872   4.886   3.804 -0.0285  0.7093 -1.9411
 1293SOL    HW210995   6.943   4.985   3.894 -0.1995 -1.0492  0.2111
 1294SOL     OW10996   8.907   5.187   4.698 -0.4221  0.7096  0.2696
 1294SOL    HW110997   8.964   5.111   4.704  0.0065  1.1197  1.9086
 1294SOL    HW210998   8.818   5.152   4.706 -0.2845  0.2931 -0.0375
 1295SOL     OW10999   6.789  12.470  10.402  0.0773 -0.1334  0.1590
 1295SOL    HW111000   6.878  12.438  10.418 -0.2915 -1.8555 -0.9202
 1295SOL    HW211001   6.773  12.451  10.309 -1.3730  0.2608  0.3021
 1296SOL     OW11002   6.425   8.936   6.641 -0.5735  0.5216  0.1773
 1296SOL    HW111003   6.472   8.889   6.710 -1.4375  0.3680  0.6691
 1296SOL    HW211004   6.404   8.869   6.576  2.0130  0.9899 -1.2803
 1297SOL     OW11005   8.103  10.634   3.819 -0.5631  0.5299 -0.0138
 1297SOL    HW111006   8.087  10.579   3.742  0.6338  2.7036 -1.9406
 1297SOL    HW211007   8.177  10.593   3.863  0.0908  0.3715 -1.2183
 1298SOL     OW11008   0.042  10.023   0.116 -0.3637  0.5710  0.0689
 1298SOL    HW111009   0.029  10.070   0.034  0.6527  1.1134  0.1998
 1298SOL    HW211010  -0.043  10.029   0.160 -1.2955 -0.7736 -1.4337
 1299SOL     OW11011   0.386  10.378   7.358 -0.0587 -0.4640  0.4244
 1299SOL    HW111012   0.297  10.377   7.392  0.2437  2.5455  1.5616
 1299SOL    HW211013   0.437  10.422   7.426  1.9299 -0.4082 -1.0164
 1300SOL     OW11014   0.067   1.780   7.601  0.4217 -0.3832  0.2533
 1300SOL    HW111015  -0.025   1.800   7.583  0.8379  0.6347 -0.8829
 1300SOL    HW211016   0.072   1.684   7.595 -0.9530 -0.6574  2.4368
 1301SOL     OW11017   3.775   7.227   3.696  0.5999 -0.2337 -0.5031
 1301SOL    HW111018   3.812   7.306   3.656  2.0378 -0.7567 -0.2540
 1301SOL    HW211019   3.802   7.156   3.637 -1.9275 -0.4354 -1.5428
 1302SOL     OW11020  10.225  11.300  12.073  0.1113 -0.2061 -0.3655
 1302SOL    HW111021  10.163  11.311  12.001 -1.0019 -0.3822  0.5466
 1302SOL    HW211022  10.198  11.219  12.116 -0.5364  0.9212  1.4704
 1303SOL     OW11023   0.400   5.638   1.009 -0.3351 -0.0443  0.5327
 1303SOL    HW111024   0.482   5.613   1.051 -0.5238 -0.2313  0.7867
 1303SOL    HW211025   0.426   5.665   0.921 -0.1731 -1.4683  0.1252
 1304SOL     OW11026   3.375  12.263   8.253 -0.2015  0.3497  0.2631
 1304SOL    HW111027   3.282  12.276   8.274 -0.4364 -0.7508 -0.0566
 1304SOL    HW211028   3.383  12.170   8.233  0.8394  0.5691 -0.4292
 1305SOL     OW11029   8.128   9.526   3.118  0.5271  0.5518  0.0902
 1305SOL    HW111030   8.217   9.534   3.084  1.0151  0.5693  1.2950
 1305SOL    HW211031   8.117   9.432   3.136 -0.0541  0.4110 -0.9305
 1306SOL     OW11032  12.837   3.411   2.789 -0.0927 -0.3258  0.2175
 1306SOL    HW111033  12.792   3.358   2.854  2.2838 -1.2560  1.2413
 1306SOL    HW211034  12.930   3.391   2.802  0.5432 -0.6538 -3.5191
 1307SOL     OW11035   4.571   1.149  12.072 -0.3267 -0.6423  0.4301
 1307SOL    HW111036   4.631   1.221  12.050 -0.6029 -0.6531 -0.3721
 1307SOL    HW211037   4.488   1.173  12.032 -0.5848 -1.1283  0.6632
 1308SOL     OW11038   7.875   3.376   4.395  0.5036  0.1907  0.0259
 1308SOL    HW111039   7.947   3.428   4.360  1.2215 -0.6370  0.2230
 1308SOL    HW211040   7.915   3.322   4.463 -0.2783 -0.3744  0.0611
 1309SOL     OW11041   2.301   9.062   6.357 -0.4423  0.2271 -0.5770
 1309SOL    HW111042   2.395   9.060   6.338 -0.3762  1.6001 -0.5415
 1309SOL    HW211043   2.259   9.026   6.279  0.1144 -0.5344 -0.5331
 1310SOL     OW11044   8.934   2.794   0.029 -0.9265  0.3031  0.4080
 1310SOL    HW111045   8.958   2.877   0.070 -1.6000  0.0411  1.3639
 1310SOL    HW211046   8.853   2.814  -0.018 -0.9760  0.2379  0.4654
 1311SOL     OW11047  11.889  11.333   6.319  0.4311  0.7187  0.4163
 1311SOL    HW111048  11.941  11.390   6.375  2.0204 -2.3959  2.4344
 1311SOL    HW211049  11.836  11.281   6.380 -0.5329 -0.3133 -1.2112
 1312SOL     OW11050   8.123   8.019   2.398 -0.5224  0.1696 -0.1701
 1312SOL    HW111051   8.150   7.929   2.377 -1.7353 -0.2818  0.1198
 1312SOL    HW211052   8.076   8.048   2.320  0.2779  0.7314 -0.4455
 1313SOL     OW11053   2.699   4.320  10.196 -0.0599  0.6782  0.6206
 1313SOL    HW111054   2.663   4.277  10.273 -1.3594 -0.0592 -0.3610
 1313SOL    HW211055   2.638   4.299  10.126  1.6562  0.3899 -0.8711
 1314SOL     OW11056   6.179   7.647   3.454  0.2113 -0.1585  0.4469
 1314SOL    HW111057   6.271   7.622   3.462 -0.1432 -1.6183  0.2276
 1314SOL    HW211058   6.131   7.576   3.497 -0.9018 -0.2769 -0.9399
 1315SOL     OW11059   8.993   1.883   7.874 -0.3839  0.2085  0.5190
 1315SOL    HW111060   9.059   1.902   7.807 -0.8557  3.1610  0.7600
 1315SOL    HW211061   8.957   1.968   7.898 -3.0958 -1.1184  1.6643
 1316SOL     OW11062   4.272   6.614   6.490 -0.3302 -0.3402 -0.5083
 1316SOL    HW111063   4.354   6.571   6.466 -0.5402 -0.9538 -0.1481
 1316SOL    HW211064   4.217   6.544   6.526 -1.3593 -0.1096 -1.5797
 1317SOL     OW11065   5.249   4.713  10.586  0.0569 -0.0089 -0.1213
 1317SOL    HW111066   5.325   4.655  10.574  1.1131  0.6646  2.5722
 1317SOL    HW211067   5.197   4.670  10.654 -0.9281  0.5699 -0.4879
 1318SOL     OW11068   7.823   1.220   4.691 -0.0076 -0.6748 -0.0955
 1318SOL    HW111069   7.807   1.253   4.780 -2.6546 -0.5734 -0.5531
 1318SOL    HW211070   7.896   1.159   4.702  0.3183 -0.0187  1.9746
 1319SOL     OW11071  11.694  10.008   3.135 -0.2374  0.2658 -0.4515
 1319SOL    HW111072  11.610  10.054   3.135 -0.6047 -0.3981 -1.1887
 1319SOL    HW211073  11.722  10.010   3.227  0.1995  2.7371 -0.5555
 1320SOL     OW11074   1.568   1.282   5.278  0.5879  0.2504 -0.2541
 1320SOL    HW111075   1.481   1.256   5.310  1.4356  0.4625  2.4159
 1320SOL    HW211076   1.612   1.199   5.260  0.6143  0.0375  0.7142
 1321SOL     OW11077   3.857   2.509   6.288  0.0698  0.1547  0.5534
 1321SOL    HW111078   3.943   2.466   6.288  0.5233  1.0263  0.4653
 1321SOL    HW211079   3.847   2.542   6.199 -0.1185  0.5096  0.7020
 1322SOL     OW11080   5.749   4.717   4.729  0.0614 -0.3377  0.0377
 1322SOL    HW111081   5.675   4.659   4.715  0.5109 -0.5795 -1.4662
 1322SOL    HW211082   5.746   4.738   4.822 -3.2402  1.4695 -0.3228
 1323SOL     OW11083   8.693   4.910   2.488 -0.2156  0.1389 -0.2178
 1323SOL    HW111084   8.784   4.886   2.502  0.1259  0.4122 -1.7463
 1323SOL    HW211085   8.683   4.912   2.393 -1.4847  1.3219 -0.0969
 1324SOL     OW11086  12.348   9.676   7.436 -0.0026  0.2558  0.3079
 1324SOL    HW111087  12.338   9.761   7.394 -0.3318  0.9440  1.7208
 1324SOL    HW211088  12.404   9.626   7.376  1.4193  1.9552  0.1310
 1325SOL     OW11089   1.500   0.287  10.215 -0.3033 -0.1948  0.0229
 1325SOL    HW111090   1.519   0.356  10.279  2.0030  0.5612 -1.3449
 1325SOL    HW211091   1.479   0.334  10.135 -0.5990 -1.1073 -0.4525
 1326SOL     OW11092   0.948   0.784   5.172 -0.3760  0.7121 -0.0642
 1326SOL    HW111093   0.867   0.833   5.187 -0.4602  0.4828  0.2429
 1326SOL    HW211094   0.937   0.744   5.086 -0.9917 -0.0852  0.3659
 1327SOL     OW11095   2.354   6.711   8.435  0.2225 -0.2394  0.2745
 1327SOL    HW111096   2.322   6.791   8.478 -0.4627 -0.8163  0.8563
 1327SOL    HW211097   2.428   6.684   8.488 -0.7458 -1.0630  1.2515
 1328SOL     OW11098   0.495   3.357  10.223  0.0984 -0.1618 -0.4756
 1328SOL    HW111099   0.588   3.362  10.200  0.4180 -0.7949  0.6410
 1328SOL    HW211100   0.483   3.268  10.257 -0.8397  0.0444 -0.2374
 1329SOL     OW11101   3.773   4.584   2.563  0.5579  0.2348 -0.0511
 1329SOL    HW111102   3.703   4.634   2.521  1.9776  2.1038 -0.3245
 1329SOL    HW211103   3.852   4.608   2.514  1.5160 -1.1985  0.7410
 1330SOL     OW11104   5.901   2.911   9.865  0.0176 -0.1558  0.2356
 1330SOL    HW111105   5.905   2.957   9.781 -0.0823 -0.7976 -0.1291
 1330SOL    HW211106   5.935   2.973   9.929  0.7752  0.0857 -0.3922
 1331SOL     OW11107   6.872  12.414   3.359 -0.4282 -0.3010  0.1323
 1331SOL    HW111108   6.957  12.442   3.392 -0.8642  0.6261  0.5327
 1331SOL    HW211109   6.881  12.416   3.264 -0.1073  0.1639  0.1657
 1332SOL     OW11110   2.035  10.291   1.775  0.0305 -0.1427  0.3593
 1332SOL    HW111111   2.078  10.281   1.690 -1.2151 -2.3383 -0.0996
 1332SOL    HW211112   2.099  10.255   1.838  0.6137  0.7064  0.2640
 1333SOL     OW11113   1.112   4.734   5.611 -0.2189  0.4648 -0.2149
 1333SOL    HW111114   1.206   4.732   5.629 -0.2230 -0.5835 -0.2480
 1333SOL    HW211115   1.070   4.724   5.696 -0.2892  0.4801 -0.2473
 1334SOL     OW11116   4.740   8.766  12.393 -0.1366 -0.0222 -0.3638
 1334SOL    HW111117   4.660   8.815  12.411  0.2351  0.2760  0.5814
 1334SOL    HW211118   4.711   8.676  12.377 -0.6605  0.0703  0.0441
 1335SOL     OW11119   1.815  12.816  11.733  0.1028 -0.0662 -0.1620
 1335SOL    HW111120   1.766  12.892  11.762  1.0582  0.7859 -0.6980
 1335SOL    HW211121   1.800  12.812  11.638  1.7479  0.7623 -0.4988
 1336SOL     OW11122   0.947   4.143   6.661  0.0184  0.6464 -0.4515
 1336SOL    HW111123   0.858   4.131   6.628 -0.1523  0.6181  0.0106
 1336SOL    HW211124   0.957   4.077   6.730 -0.6873  2.5783  1.6266
 1337SOL     OW11125   0.913   0.770   9.036 -0.3145 -0.6438  0.6613
 1337SOL    HW111126   0.976   0.738   9.100 -0.1306  0.5470  1.1108
 1337SOL    HW211127   0.844   0.810   9.089 -0.1648  0.3554  0.1376
 1338SOL     OW11128   1.461  10.406  12.341 -0.3197  0.0408 -1.2265
 1338SOL    HW111129   1.414  10.466  12.283  0.0312  1.0221 -0.5283
 1338SOL    HW211130   1.552  10.413  12.314 -0.4318 -1.1790 -1.9870
 1339SOL     OW11131  10.787   1.264   4.650 -0.1901  0.3559  0.3820
 1339SOL    HW111132  10.699   1.230   4.633  1.0318 -2.7810 -0.3506
 1339SOL    HW211133  10.813   1.224   4.732  0.8592  0.6332  0.2011
 1340SOL     OW11134   8.636  10.681   1.848 -0.1160  0.8837 -0.1255
 1340SOL    HW111135   8.678  10.746   1.791  0.3222  1.2751  0.6349
 1340SOL    HW211136   8.628  10.725   1.932  2.4579 -0.8559  1.1359
 1341SOL     OW11137   0.485   1.097   9.985 -0.3069 -0.3703  0.0341
 1341SOL    HW111138   0.445   1.096   9.898 -0.1491  0.0247 -0.0455
 1341SOL    HW211139   0.578   1.116   9.969 -0.3887  0.3021  0.3277
 1342SOL     OW11140   7.244  11.415   4.225 -0.1093 -0.1518  0.6805
 1342SOL    HW111141   7.283  11.335   4.189 -1.3774 -0.0430 -1.0711
 1342SOL    HW211142   7.163  11.385   4.265 -0.5345  0.2144  0.1134
 1343SOL     OW11143   3.500  11.141   3.944 -0.3071  0.0148  0.2526
 1343SOL    HW111144   3.411  11.165   3.919 -0.5749 -1.1005  0.0907
 1343SOL    HW211145   3.500  11.045   3.946  0.2034 -0.0011  2.7112
 1344SOL     OW11146  12.303   1.214  11.459  0.6171  0.2627 -0.4566
 1344SOL    HW111147  12.245   1.155  11.412 -1.5812  0.9792  1.1851
 1344SOL    HW211148  12.309   1.178  11.547  0.3740  1.6934  0.1836
 1345SOL     OW11149  10.150   2.376   5.816 -0.0097  0.5745 -0.2110
 1345SOL    HW111150  10.088   2.411   5.879  0.8938  1.0616  0.4357
 1345SOL    HW211151  10.126   2.285   5.806 -0.9124  0.7946 -0.0799
 1346SOL     OW11152  12.160  10.927   4.860  0.1596 -0.5715  0.4428
 1346SOL    HW111153  12.165  10.912   4.766 -1.1637 -0.4761  0.3437
 1346SOL    HW211154  12.083  10.983   4.872 -0.1246 -1.1769  1.6367
 1347SOL     OW11155  11.021   3.846  12.809  0.1681 -0.5607  0.0937
 1347SOL    HW111156  10.977   3.930  12.795  1.0445  0.0997  1.1076
 1347SOL    HW211157  10.951   3.781  12.809 -0.3463 -0.1738 -2.9397
 1348SOL     OW11158   5.271  12.512  12.434  0.0809 -0.4046  0.1946
 1348SOL    HW111159   5.188  12.466  12.426 -0.1195  0.0880 -0.6724
 1348SOL    HW211160   5.247  12.602  12.453  0.4719 -0.6031  1.7824
 1349SOL     OW11161  12.255   1.291   6.356  0.3104 -0.1756 -0.3904
 1349SOL    HW111162  12.221   1.297   6.445 -0.9334  0.7833 -0.8897
 1349SOL    HW211163  12.209   1.360   6.308 -1.0144 -2.2750 -2.3947
 1350SOL     OW11164   0.285   0.683   7.648  0.1727 -0.2672 -0.0824
 1350SOL    HW111165   0.234   0.693   7.568 -0.9903 -1.3586  0.4791
 1350SOL    HW211166   0.260   0.758   7.702 -1.6856 -1.3181  0.5975
 1351SOL     OW11167   2.600   5.741   2.976 -0.2445 -0.1506  0.8523
 1351SOL    HW111168   2.551   5.666   2.941  1.3430 -0.8065 -0.0718
 1351SOL    HW211169   2.667   5.702   3.032  0.0405  0.6470  1.0805
 1352SOL     OW11170   6.868   8.397   1.010  0.1866  0.2126  0.1535
 1352SOL    HW111171   6.867   8.315   1.058 -0.0556 -0.1263 -0.4242
 1352SOL    HW211172   6.784   8.399   0.964 -0.4195  1.4284  1.2449
 1353SOL     OW11173   1.258  12.263   6.767 -0.3821 -0.0085  0.5606
 1353SOL    HW111174   1.216  12.213   6.837 -0.6448 -0.6075 -0.0115
 1353SOL    HW211175   1.188  12.318   6.731 -0.6251 -0.7473 -0.1567
 1354SOL     OW11176  10.742   6.304   8.903 -0.5398  0.2933 -0.0603
 1354SOL    HW111177  10.807   6.323   8.971 -2.1367 -0.4322  1.7592
 1354SOL    HW211178  10.658   6.303   8.950 -1.7108 -0.2658 -2.0584
 1355SOL     OW11179   6.277   2.631   9.622 -0.0925 -0.3546  0.4352
 1355SOL    HW111180   6.213   2.689   9.581 -1.2240 -1.8197  0.0499
 1355SOL    HW211181   6.227   2.586   9.691  1.0751  0.0236  1.5685
 1356SOL     OW11182   7.650   2.667  12.662  0.4163 -0.5567  0.2169
 1356SOL    HW111183   7.601   2.749  12.655  0.1211 -0.6190  1.3332
 1356SOL    HW211184   7.735   2.693  12.696  0.2322 -0.7414  0.8189
 1357SOL     OW11185   9.842   1.889   3.386 -0.9633  0.5197  0.5643
 1357SOL    HW111186   9.851   1.881   3.291  0.2493 -1.6478  0.7919
 1357SOL    HW211187   9.891   1.968   3.408  0.9861 -0.3742 -0.3723
 1358SOL     OW11188   4.501   3.201  11.737  0.1120  0.6728  0.6218
 1358SOL    HW111189   4.500   3.260  11.813  0.0408  1.0297  0.3444
 1358SOL    HW211190   4.561   3.131  11.762  0.4005  0.9994  0.8508
 1359SOL     OW11191   8.173   9.042   0.155  0.5033  0.3636  0.6381
 1359SOL    HW111192   8.222   9.124   0.171  2.9571 -0.8553 -0.1554
 1359SOL    HW211193   8.221   8.976   0.205  0.2327 -1.0834 -0.9308
 1360SOL     OW11194   7.780   0.598  10.675 -0.3267 -0.3710  0.2696
 1360SOL    HW111195   7.817   0.674  10.720 -1.0676 -0.2560  0.7174
 1360SOL    HW211196   7.786   0.620  10.582  0.9694 -0.4857  0.3165
 1361SOL     OW11197   5.125   9.018   9.402 -0.3067  0.0220 -0.4534
 1361SOL    HW111198   5.114   8.959   9.477 -0.4237 -0.6947 -1.0228
 1361SOL    HW211199   5.074   8.977   9.332 -3.7298  2.7273  0.1464
 1362SOL     OW11200   3.344   0.179   3.653  0.3295 -0.0857 -0.3443
 1362SOL    HW111201   3.316   0.134   3.573  1.2085  1.0542 -1.3276
 1362SOL    HW211202   3.262   0.199   3.698 -0.1522 -1.2837 -0.6318
 1363SOL     OW11203   5.452   9.763  11.811  0.1253 -0.2881  0.3099
 1363SOL    HW111204   5.440   9.824  11.883 -1.4366 -1.2099  0.8684
 1363SOL    HW211205   5.508   9.694  11.846 -0.1330 -0.4309  0.4353
 1364SOL     OW11206   7.836   9.573   0.692 -0.0044  0.4542 -0.6697
 1364SOL    HW111207   7.892   9.539   0.622  0.8917  1.6821 -0.5840
 1364SOL    HW211208   7.873   9.659   0.712 -1.0570  0.6764  0.4034
 1365SOL     OW11209  11.118   9.452  11.711  0.0018 -0.1572 -0.3169
 1365SOL    HW111210  11.025   9.475  11.721  0.3814  1.3513 -0.0651
 1365SOL    HW211211  11.120   9.357  11.720 -1.5879 -0.2719 -0.8253
 1366SOL     OW11212   3.556   8.109  10.646  0.4874  0.4652 -0.4517
 1366SOL    HW111213   3.601   8.149  10.572 -0.5445  2.5622 -0.0154
 1366SOL    HW211214   3.567   8.172  10.718 -3.0429  1.1579 -0.3244
 1367SOL     OW11215   3.744   5.951   4.755  0.6601  0.1523 -0.0495
 1367SOL    HW111216   3.665   5.957   4.808  0.4965  1.5820 -0.4197
 1367SOL    HW211217   3.717   5.902   4.677 -0.5079  2.5371 -1.2321
 1368SOL     OW11218   0.553   5.651   1.856 -0.4516 -0.6617  0.1938
 1368SOL    HW111219   0.598   5.568   1.844  1.2241  0.2126  0.1807
 1368SOL    HW211220   0.597   5.692   1.930 -0.3188  0.8225 -0.6766
 1369SOL     OW11221  11.051   3.232  10.419 -0.3089 -0.0782  0.1973
 1369SOL    HW111222  11.045   3.253  10.326 -0.3346  0.3075  0.2845
 1369SOL    HW211223  11.141   3.254  10.443 -0.8192  1.5972  0.6844
 1370SOL     OW11224   3.666   0.254   1.770 -0.6988  0.1961  0.6156
 1370SOL    HW111225   3.743   0.208   1.805 -1.3692 -0.0556  1.8456
 1370SOL    HW211226   3.658   0.332   1.825 -1.7080 -0.1312  0.9491
 1371SOL     OW11227   3.912   0.820   6.870  0.3660 -0.2872 -0.2244
 1371SOL    HW111228   3.839   0.828   6.931  0.5898  1.4433 -0.1299
 1371SOL    HW211229   3.875   0.778   6.792  0.0407 -2.3851  0.9961
 1372SOL     OW11230   0.445   1.888   2.237  0.2270 -0.2004  0.1615
 1372SOL    HW111231   0.523   1.842   2.267 -0.0595 -1.5326 -1.0062
 1372SOL    HW211232   0.448   1.880   2.142 -0.9044  0.4423  0.0583
 1373SOL     OW11233  12.337   8.648  12.515  0.0986  0.0468  0.0027
 1373SOL    HW111234  12.294   8.713  12.570 -0.7148  1.3265 -2.0023
 1373SOL    HW211235  12.430   8.673  12.515  0.1169  0.0037  0.7671
 1374SOL     OW11236   3.836   3.788   4.148 -0.5287 -0.3304 -0.3407
 1374SOL    HW111237   3.882   3.730   4.087  0.0033 -2.0100  1.5434
 1374SOL    HW211238   3.903   3.851   4.175 -0.5776 -0.0192 -0.9186
 1375SOL     OW11239   3.632  12.928   5.351 -0.1026 -0.0222 -0.1683
 1375SOL    HW111240   3.721  12.954   5.377  1.1543 -0.9852 -3.0663
 1375SOL    HW211241   3.607  12.992   5.285 -2.0522  0.8260  1.3178
 1376SOL     OW11242   7.260   7.336   7.916 -0.2384  0.2265 -0.8440
 1376SOL    HW111243   7.348   7.354   7.949 -0.7542 -0.9224  1.2973
 1376SOL    HW211244   7.258   7.241   7.904 -1.3987  0.1441 -0.1442
 1377SOL     OW11245   3.049   6.050   4.993  0.6603  0.1780  0.0937
 1377SOL    HW111246   3.052   6.130   5.046  1.2517  0.4502 -0.3362
 1377SOL    HW211247   3.105   6.069   4.918 -0.4327 -0.0924 -0.8081
 1378SOL     OW11248  11.022   8.785   2.323  0.0027 -0.3321  0.3080
 1378SOL    HW111249  11.072   8.713   2.285 -0.6023 -0.8052  0.4021
 1378SOL    HW211250  11.056   8.794   2.412  0.0980 -0.4746  0.2860
 1379SOL     OW11251   9.081   5.207   1.456 -0.5305  0.0978  0.0770
 1379SOL    HW111252   9.084   5.171   1.368  1.0943 -1.3976  0.6698
 1379SOL    HW211253   9.033   5.141   1.507 -0.3377  0.3280  0.5590
 1380SOL     OW11254   0.242   0.152   5.441 -0.2882 -0.0901 -0.3641
 1380SOL    HW111255   0.247   0.057   5.454  1.0191 -0.0292 -0.2941
 1380SOL    HW211256   0.254   0.164   5.347 -1.7926 -0.0636 -0.5636
 1381SOL     OW11257   7.892   4.267   9.323  0.0463  0.0725 -0.0741
 1381SOL    HW111258   7.947   4.244   9.249  0.9828  1.6433  0.0921
 1381SOL    HW211259   7.810   4.298   9.284 -0.0279 -0.5205 -0.3924
 1382SOL     OW11260  12.634  10.859  11.530  0.1217  0.1143 -0.2275
 1382SOL    HW111261  12.701  10.927  11.530  0.2685 -0.0033  1.1628
 1382SOL    HW211262  12.678  10.782  11.494  0.2891  0.4284 -0.7058
 1383SOL     OW11263   1.459   9.389   2.816  0.2396 -0.1324 -0.6813
 1383SOL    HW111264   1.491   9.314   2.765  0.7956 -0.4211  0.0762
 1383SOL    HW211265   1.364   9.389   2.802  0.2544 -0.8960 -0.8013
 1384SOL     OW11266   8.783   2.008   3.135 -0.1710  0.0209 -0.5458
 1384SOL    HW111267   8.847   1.969   3.194 -1.5142 -0.7863  0.4145
 1384SOL    HW211268   8.805   1.971   3.049  0.5946 -0.2955 -0.2302
 1385SOL     OW11269   7.549   3.664   9.791 -0.2773 -0.2885 -0.3478
 1385SOL    HW111270   7.522   3.756   9.789  0.4697 -0.0702 -1.4801
 1385SOL    HW211271   7.638   3.666   9.826 -0.8352 -0.7712  1.1834
 1386SOL     OW11272   6.920   0.625   1.356 -0.3609 -0.3241  0.1341
 1386SOL    HW111273   6.931   0.554   1.292  1.4138  0.2878 -0.3107
 1386SOL    HW211274   6.969   0.595   1.433 -0.7896 -0.1844  0.4631
 1387SOL     OW11275  10.320   9.812  11.284  0.5854 -0.6263 -0.4676
 1387SOL    HW111276  10.376   9.751  11.236  4.8959  0.9507  1.9434
 1387SOL    HW211277  10.347   9.898  11.254 -0.6736  0.2547  0.7835
 1388SOL     OW11278   7.538   3.010   3.614  0.4552  0.0701  0.2109
 1388SOL    HW111279   7.495   3.033   3.532 -1.1352  0.2824  1.0606
 1388SOL    HW211280   7.580   2.926   3.597  2.9881  1.5842 -1.7678
 1389SOL     OW11281   9.261   0.917  12.164  1.0194 -0.2176  0.0773
 1389SOL    HW111282   9.205   0.841  12.150  1.1058 -0.2509 -0.0968
 1389SOL    HW211283   9.308   0.898  12.245 -1.6230  1.2642  2.1204
 1390SOL     OW11284  12.040   5.040  10.941 -0.4271  0.6178 -0.2442
 1390SOL    HW111285  12.016   5.064  10.852 -2.8171  1.0130  0.4167
 1390SOL    HW211286  12.025   5.120  10.992 -0.1050  0.1224  0.6513
 1391SOL     OW11287   6.916   8.075  12.226 -0.0060  0.1440  0.3190
 1391SOL    HW111288   6.885   8.158  12.190 -0.2006  0.1215  0.4312
 1391SOL    HW211289   6.928   8.093  12.320  2.2200  0.7189 -0.0131
 1392SOL     OW11290  12.304   2.398   0.778  0.8485 -0.2548  0.2779
 1392SOL    HW111291  12.281   2.466   0.716 -2.4528  0.0826  1.7057
 1392SOL    HW211292  12.280   2.316   0.734  0.4110 -0.1566  0.3300
 1393SOL     OW11293  11.973   8.722   6.131  0.0838 -0.2902 -0.1935
 1393SOL    HW111294  12.021   8.666   6.070 -2.0175  0.3299 -2.5773
 1393SOL    HW211295  11.881   8.702   6.116 -0.6416  2.1241  0.5399
 1394SOL     OW11296  12.585   2.752   5.576  0.0985 -0.2354 -0.3731
 1394SOL    HW111297  12.616   2.708   5.497 -2.6734 -1.7181 -0.7659
 1394SOL    HW211298  12.492   2.731   5.580 -0.2725  1.4354  2.2608
 1395SOL     OW11299   1.653   0.263   1.474  0.5532 -0.2300 -0.2733
 1395SOL    HW111300   1.649   0.290   1.382 -0.9884  2.4894  0.4819
 1395SOL    HW211301   1.571   0.216   1.489  1.2782 -1.6285 -0.4845
 1396SOL     OW11302   6.587   1.985   7.697  0.3807  0.5167  0.1480
 1396SOL    HW111303   6.502   2.022   7.673  0.1580  0.2489  0.4996
 1396SOL    HW211304   6.575   1.956   7.788  0.3295 -1.0634 -0.3412
 1397SOL     OW11305   8.125   1.558   8.451 -0.1996 -0.4688 -0.6628
 1397SOL    HW111306   8.099   1.469   8.426  0.8265 -1.3158  1.1825
 1397SOL    HW211307   8.203   1.548   8.504  0.1761  1.5854 -0.7152
 1398SOL     OW11308   6.191   4.322  11.298  0.1785 -0.0500  0.2924
 1398SOL    HW111309   6.140   4.361  11.370 -0.8179 -2.1800  0.8050
 1398SOL    HW211310   6.272   4.374  11.296 -1.4199  2.6626  0.2647
 1399SOL     OW11311   7.676  10.216  12.757 -0.4338 -0.5248 -0.1684
 1399SOL    HW111312   7.609  10.285  12.753  0.0238  0.0447  1.3321
 1399SOL    HW211313   7.627  10.137  12.780 -0.7507 -0.3702 -0.2945
 1400SOL     OW11314  10.385  11.867  12.333 -0.4545 -0.5639  0.2579
 1400SOL    HW111315  10.348  11.788  12.294 -1.1274  0.7107 -1.8554
 1400SOL    HW211316  10.324  11.891  12.402 -2.1592 -0.0635 -1.3349
 1401SOL     OW11317   4.815   0.668  11.870 -0.5624 -0.4548  0.1043
 1401SOL    HW111318   4.798   0.642  11.779 -1.6853 -0.2794  0.2468
 1401SOL    HW211319   4.729   0.663  11.912  0.0289 -1.0156  1.2905
 1402SOL     OW11320   0.267   6.426   1.384  0.2700  0.1094  0.2785
 1402SOL    HW111321   0.263   6.420   1.289  1.0128 -0.1204  0.2488
 1402SOL    HW211322   0.177   6.437   1.412  0.0340  0.0632 -0.4467
 1403SOL     OW11323   3.622   2.103   3.820  0.4906 -0.6785 -0.9263
 1403SOL    HW111324   3.661   2.023   3.784  1.3204 -1.1392  0.8630
 1403SOL    HW211325   3.579   2.074   3.901  0.9478  0.7041 -0.1636
 1404SOL     OW11326   7.941  12.413  10.933  0.1874  0.6277  0.4500
 1404SOL    HW111327   7.997  12.453  11.000  1.0119  0.8108 -0.3344
 1404SOL    HW211328   8.002  12.374  10.871 -0.4775  1.9881 -1.1535
 1405SOL     OW11329   2.757   8.111  11.725 -0.8513 -0.0214  0.1621
 1405SOL    HW111330   2.662   8.117  11.729 -1.0309 -2.2086  0.3945
 1405SOL    HW211331   2.785   8.113  11.817 -0.8813 -1.4574  0.2255
 1406SOL     OW11332   7.899   1.254   9.140 -0.3504 -0.6488  0.2462
 1406SOL    HW111333   7.810   1.276   9.114 -0.0253 -0.6483 -0.9021
 1406SOL    HW211334   7.955   1.311   9.088  0.3378 -1.0197  0.5618
 1407SOL     OW11335  11.393   1.352   1.308 -0.3150 -0.3830 -0.0358
 1407SOL    HW111336  11.420   1.261   1.297  1.1921 -0.4941  3.2931
 1407SOL    HW211337  11.303   1.347   1.340 -0.1436 -0.7313  0.3988
 1408SOL     OW11338   1.044  10.789   6.542  0.2124  0.1257 -0.1882
 1408SOL    HW111339   1.092  10.717   6.583  0.7697  0.8218  0.4213
 1408SOL    HW211340   1.045  10.858   6.608 -1.6374  0.1753 -0.1712
 1409SOL     OW11341   8.706   0.258   5.335 -0.0605  0.0291 -0.3523
 1409SOL    HW111342   8.671   0.336   5.292 -0.2053  0.4956  0.5749
 1409SOL    HW211343   8.632   0.198   5.341  0.2801 -0.6053 -1.9475
 1410SOL     OW11344  12.795   4.276   0.579  0.1882  0.2739 -0.1737
 1410SOL    HW111345  12.755   4.191   0.594  2.6963 -0.5607  2.7074
 1410SOL    HW211346  12.734   4.339   0.618 -1.2845 -0.1839 -1.6110
 1411SOL     OW11347   2.780   0.915   7.198  0.0566  0.1509  0.2680
 1411SOL    HW111348   2.795   1.006   7.223  0.3786  0.2394 -0.2303
 1411SOL    HW211349   2.867   0.876   7.191 -0.0001  0.1881 -0.8801
 1412SOL     OW11350   7.573   7.863   8.042 -0.2855  0.1882 -0.1411
 1412SOL    HW111351   7.664   7.838   8.060 -0.0241 -0.4178 -2.0556
 1412SOL    HW211352   7.562   7.844   7.949 -1.8378  1.9543 -0.3571
 1413SOL     OW11353   4.257   5.197   4.360 -0.0711 -0.2548  0.7978
 1413SOL    HW111354   4.339   5.176   4.404  1.6938 -1.2339 -2.5601
 1413SOL    HW211355   4.256   5.292   4.355  1.9674 -0.2487 -0.8005
 1414SOL     OW11356   3.469   2.406   8.318 -0.3414  0.4110  0.2924
 1414SOL    HW111357   3.507   2.343   8.378  0.5218 -0.1191 -0.7790
 1414SOL    HW211358   3.528   2.481   8.321  0.3885 -0.0900 -0.7581
 1415SOL     OW11359  10.225   8.132   7.867  0.6029  0.4917  0.3631
 1415SOL    HW111360  10.227   8.206   7.807  0.6411  0.1299 -0.0917
 1415SOL    HW211361  10.134   8.104   7.869 -0.1797  2.7694  3.3438
 1416SOL     OW11362  11.943  11.095   3.892 -0.3632  0.5235 -1.0405
 1416SOL    HW111363  12.014  11.122   3.834  1.4205 -0.1949  0.6833
 1416SOL    HW211364  11.959  11.143   3.974 -0.3397 -1.5226  0.2234
 1417SOL     OW11365   7.601   1.103   1.245 -0.0054  0.0104  0.2956
 1417SOL    HW111366   7.633   1.117   1.335  2.0172  1.6627 -0.5986
 1417SOL    HW211367   7.618   1.186   1.200 -2.0774 -0.3852 -1.3432
 1418SOL     OW11368  12.939   1.943   8.909  0.2437 -0.1492  0.5509
 1418SOL    HW111369  12.903   1.860   8.879  1.3626 -0.2845 -0.4931
 1418SOL    HW211370  13.013   1.920   8.965 -0.3721  0.1414  1.5094
 1419SOL     OW11371   5.153   9.542  10.744 -0.5610 -0.2825  0.3067
 1419SOL    HW111372   5.191   9.575  10.826  0.2360 -2.4857  0.8975
 1419SOL    HW211373   5.129   9.452  10.764 -0.2338 -0.9261 -1.9460
 1420SOL     OW11374   9.149   3.972   6.002  0.6385 -0.1187 -0.2746
 1420SOL    HW111375   9.082   4.031   5.967 -0.0887 -0.5904  0.2764
 1420SOL    HW211376   9.216   4.030   6.037  1.2531  0.3667 -2.1498
 1421SOL     OW11377   7.499   6.103   5.470  0.0945 -0.2527 -0.6694
 1421SOL    HW111378   7.576   6.113   5.525 -1.4763 -0.8441  1.8013
 1421SOL    HW211379   7.458   6.190   5.469 -0.6965 -0.5828  0.4822
 1422SOL     OW11380   6.024   7.222   0.930 -0.5389  0.1957 -0.1976
 1422SOL    HW111381   6.076   7.182   1.000 -1.4528  0.8899  0.9202
 1422SOL    HW211382   6.064   7.190   0.849  0.9589 -0.1129  0.6249
 1423SOL     OW11383  11.953  11.884  10.180 -0.0142 -0.6341 -0.1278
 1423SOL    HW111384  11.908  11.968  10.185  0.4246 -0.4350  0.5225
 1423SOL    HW211385  12.019  11.896  10.111 -0.5218 -0.7220 -0.6307
 1424SOL     OW11386  11.832  10.281   4.317  0.4237 -0.2303  0.0280
 1424SOL    HW111387  11.740  10.292   4.341  0.7721 -0.6489  1.7183
 1424SOL    HW211388  11.857  10.364   4.278 -0.2229  0.5436  1.2037
 1425SOL     OW11389   4.641  10.002  10.287 -0.6299 -0.4789  0.2962
 1425SOL    HW111390   4.688  10.075  10.249 -0.0344 -0.4466  1.0759
 1425SOL    HW211391   4.682   9.987  10.372 -1.1416 -1.3205  0.4190
 1426SOL     OW11392   1.057   7.797   4.521  0.2062  0.0846  0.6960
 1426SOL    HW111393   1.135   7.791   4.466  0.4857 -0.0227  1.0959
 1426SOL    HW211394   1.008   7.717   4.502  1.1479 -0.8053  1.8589
 1427SOL     OW11395   3.723  12.945   8.824 -0.0041 -0.2617 -0.8392
 1427SOL    HW111396   3.749  12.962   8.914 -1.5468 -1.4245 -0.1418
 1427SOL    HW211397   3.767  13.014   8.773  2.0831 -0.4531  0.5803
 1428SOL     OW11398   1.426  12.311   3.292 -0.2529  0.2698  0.2067
 1428SOL    HW111399   1.398  12.344   3.377 -0.8766  0.8539 -0.2063
 1428SOL    HW211400   1.384  12.226   3.283 -2.0172  1.1321 -0.4071
 1429SOL     OW11401   3.531   3.176   8.372 -0.0626 -0.0686  0.3837
 1429SOL    HW111402   3.477   3.254   8.382 -1.1114 -0.5359 -1.3029
 1429SOL    HW211403   3.594   3.198   8.303  0.2561 -0.3896  0.5656
 1430SOL     OW11404  12.589   5.820  11.913 -0.0718 -0.0319 -0.0566
 1430SOL    HW111405  12.523   5.890  11.911  0.0697  0.0959 -0.2878
 1430SOL    HW211406  12.672   5.867  11.908  0.0017 -0.2702 -1.4419
 1431SOL     OW11407   8.027   4.363  10.139 -0.0955 -0.2465  0.2236
 1431SOL    HW111408   8.040   4.458  10.143  0.2595 -0.3172  0.9981
 1431SOL    HW211409   8.101   4.327  10.188  0.5178 -0.9974 -1.2090
 1432SOL     OW11410   3.062  11.618   9.776 -0.5210  0.4122 -0.2225
 1432SOL    HW111411   3.035  11.571   9.697 -1.0599  1.9889 -1.0100
 1432SOL    HW211412   2.990  11.679   9.793  0.4332  1.4032  0.3784
 1433SOL     OW11413   5.866  12.426   0.404  0.2127  0.4919 -0.1676
 1433SOL    HW111414   5.831  12.490   0.343  0.7322  1.0077  0.0561
 1433SOL    HW211415   5.864  12.471   0.489  2.0578  0.8333 -0.2577
 1434SOL     OW11416   9.253   4.143  11.944  0.5143 -0.1324 -0.1039
 1434SOL    HW111417   9.209   4.210  11.892  0.6194  0.4470  0.5460
 1434SOL    HW211418   9.199   4.065  11.933 -0.2231  0.3544  0.0222
 1435SOL     OW11419   9.245  10.187   1.662 -0.8002  0.4076  0.2445
 1435SOL    HW111420   9.177  10.120   1.672  1.0839 -1.4932  1.2534
 1435SOL    HW211421   9.235  10.243   1.739 -0.3492 -0.7565  1.1855
 1436SOL     OW11422  10.440   8.300  12.043 -0.4143 -0.2239 -0.4034
 1436SOL    HW111423  10.430   8.235  11.973 -1.2728 -2.0108  1.2704
 1436SOL    HW211424  10.352   8.337  12.054 -1.1213 -2.3337  1.8244
 1437SOL     OW11425   0.280   9.059   8.458  1.7855 -0.4193 -0.3689
 1437SOL    HW111426   0.317   9.146   8.443 -0.0610  0.4330 -0.2568
 1437SOL    HW211427   0.221   9.045   8.383  0.7923 -0.8337  0.4712
 1438SOL     OW11428   1.500   4.085   1.228  0.3216  0.3357  0.3168
 1438SOL    HW111429   1.515   4.141   1.305  1.1437  0.8693 -0.2059
 1438SOL    HW211430   1.418   4.040   1.246  0.9580 -0.2322  1.9070
 1439SOL     OW11431  12.835  11.551   1.235  0.0468 -0.3114  0.0041
 1439SOL    HW111432  12.787  11.556   1.318  0.4432 -0.3430  0.2397
 1439SOL    HW211433  12.775  11.588   1.170  0.8646  2.7188  0.7951
 1440SOL     OW11434   9.481  10.232  10.154 -0.4917  0.9075 -0.2637
 1440SOL    HW111435   9.575  10.245  10.167 -0.2946 -0.3464 -0.2453
 1440SOL    HW211436   9.442  10.255  10.239  0.2208 -2.0241  0.9983
 1441SOL     OW11437   7.839  11.445   3.071 -0.4172 -0.7304  0.3112
 1441SOL    HW111438   7.770  11.492   3.117 -2.1933 -0.5156 -2.3342
 1441SOL    HW211439   7.808  11.355   3.065  0.2004 -0.9499  0.2668
 1442SOL     OW11440  12.622  11.948   6.907  0.0935 -0.2682 -0.3987
 1442SOL    HW111441  12.592  11.990   6.826 -0.0262 -0.4724 -0.4615
 1442SOL    HW211442  12.584  11.860   6.903  0.0837 -0.2757 -0.1184
 1443SOL     OW11443   9.595   9.903   0.745  0.3423  1.1734 -0.0874
 1443SOL    HW111444   9.597   9.925   0.652 -0.3167 -0.4350 -0.5323
 1443SOL    HW211445   9.501   9.892   0.764  0.4953  1.1836  0.6755
 1444SOL     OW11446   9.092   9.063   1.725  0.4686  0.7375 -0.3714
 1444SOL    HW111447   9.169   9.121   1.727  0.5400  0.7354 -2.0926
 1444SOL    HW211448   9.018   9.120   1.746  1.0268  0.4497  2.9054
 1445SOL     OW11449   5.846   2.661   9.420  0.3774 -0.7423 -0.4245
 1445SOL    HW111450   5.776   2.689   9.361 -0.9250  1.1725  1.7979
 1445SOL    HW211451   5.917   2.633   9.363 -0.4407  1.7804 -2.9130
 1446SOL     OW11452  10.003   7.445  10.576  0.1033  0.3317 -0.3812
 1446SOL    HW111453  10.010   7.457  10.481 -0.3357 -1.4094 -0.6765
 1446SOL    HW211454  10.082   7.397  10.600 -0.7263 -0.9992 -0.2262
 1447SOL     OW11455   2.443   1.657   7.415  0.0489 -0.2359 -0.3601
 1447SOL    HW111456   2.367   1.714   7.426  1.1019  0.9349  1.3396
 1447SOL    HW211457   2.413   1.572   7.448 -0.1042  0.6202  1.9567
 1448SOL     OW11458   8.532   6.920   5.024  0.5380  0.1131  0.1819
 1448SOL    HW111459   8.585   6.925   5.103  0.7145 -0.8529  0.1458
 1448SOL    HW211460   8.441   6.922   5.056  0.5694  1.9918  0.2221
 1449SOL     OW11461  12.404   4.200   0.781 -0.1950 -0.3254 -0.0442
 1449SOL    HW111462  12.309   4.206   0.770 -0.2562 -0.1627  0.5691
 1449SOL    HW211463  12.416   4.124   0.839 -0.0678  0.7295  1.3596
 1450SOL     OW11464   9.391   1.306  12.013 -0.2803  0.0299  0.0439
 1450SOL    HW111465   9.453   1.378  12.011 -0.0235 -0.1453  0.9584
 1450SOL    HW211466   9.393   1.275  12.104 -0.9919 -0.5962 -0.1375
 1451SOL     OW11467   2.403   0.739   1.310  0.2184 -0.0144  0.5392
 1451SOL    HW111468   2.412   0.651   1.273 -1.0924 -1.0833  2.5376
 1451SOL    HW211469   2.399   0.724   1.405 -0.1890  2.1939  0.9190
 1452SOL     OW11470   4.317  10.668   4.394  0.2137 -0.7179 -0.0802
 1452SOL    HW111471   4.308  10.588   4.447  0.8835  0.0989  1.3214
 1452SOL    HW211472   4.390  10.715   4.433 -0.7217  1.0209 -0.2906
 1453SOL     OW11473   5.634  10.275   6.525 -0.2722  0.4070 -0.7550
 1453SOL    HW111474   5.711  10.311   6.569 -0.9022  2.0661 -0.9083
 1453SOL    HW211475   5.561  10.297   6.583 -0.8168  0.3811 -1.4163
 1454SOL     OW11476   1.642   7.970  11.691  0.1647 -0.0178 -0.0892
 1454SOL    HW111477   1.718   7.973  11.632 -0.0449 -2.0654 -0.5536
 1454SOL    HW211478   1.659   7.895  11.748 -0.5913  0.7202  1.1512
 1455SOL     OW11479   4.430  12.095   6.918  0.1253  0.3408  0.3849
 1455SOL    HW111480   4.474  12.157   6.975 -2.3624  2.1261  0.5109
 1455SOL    HW211481   4.438  12.133   6.830 -2.4291  1.6360  0.6097
 1456SOL     OW11482  12.872   5.149   2.703  0.3119  0.5624 -0.2757
 1456SOL    HW111483  12.814   5.146   2.627 -0.6900  0.8592  0.4515
 1456SOL    HW211484  12.830   5.210   2.763  0.1605 -0.9281  1.2276
 1457SOL     OW11485  10.755  11.624   7.576 -0.4623 -0.1600  0.0512
 1457SOL    HW111486  10.836  11.673   7.589 -0.3053 -0.1190 -0.9412
 1457SOL    HW211487  10.716  11.663   7.497 -1.2861 -0.3966  0.3265
 1458SOL     OW11488   6.256   8.973   7.218 -0.3260 -0.2776 -0.2035
 1458SOL    HW111489   6.321   8.908   7.245  0.2120  0.8715  1.5353
 1458SOL    HW211490   6.232   8.949   7.129  1.3871 -1.6152 -0.3532
 1459SOL     OW11491   6.429   0.350   4.202 -0.1220  0.0483  0.1631
 1459SOL    HW111492   6.438   0.371   4.110 -0.0935  2.7736  0.7102
 1459SOL    HW211493   6.389   0.263   4.203 -0.4613  0.1067 -2.3826
 1460SOL     OW11494   4.774   6.558   1.100  0.3082 -0.6004  0.2850
 1460SOL    HW111495   4.839   6.508   1.150  1.3700 -1.6844 -2.0721
 1460SOL    HW211496   4.722   6.491   1.055 -1.3920  0.3202  0.8019
 1461SOL     OW11497   0.448   2.449   2.685  0.2618 -0.6088 -0.7451
 1461SOL    HW111498   0.520   2.482   2.632  0.9942 -1.0603 -0.0447
 1461SOL    HW211499   0.379   2.515   2.674  0.3932 -0.6736 -2.2159
 1462SOL     OW11500  11.725   4.534   8.576 -0.1407  0.1949  0.5789
 1462SOL    HW111501  11.696   4.457   8.624  1.0962 -2.4394 -2.4394
 1462SOL    HW211502  11.650   4.560   8.523 -0.1803  0.2212  0.6484
 1463SOL     OW11503  11.605  11.165   5.520 -0.0134  0.3377  0.3197
 1463SOL    HW111504  11.550  11.176   5.598  0.7589  1.3411  0.7370
 1463SOL    HW211505  11.614  11.253   5.484  1.0817  0.1386  0.0800
 1464SOL     OW11506   1.786  12.050   3.629  0.3769  0.4750 -0.0450
 1464SOL    HW111507   1.790  12.145   3.640  0.6110  0.4601  0.0171
 1464SOL    HW211508   1.806  12.015   3.716 -0.1720  0.3719  0.0412
 1465SOL     OW11509   9.001  11.025  11.222 -0.3583 -0.2825  0.1241
 1465SOL    HW111510   8.921  11.069  11.253 -0.3071  0.1431 -0.3366
 1465SOL    HW211511   9.026  10.967  11.294 -0.8069 -0.0491  0.4707
 1466SOL     OW11512  10.265   9.682  11.841 -0.2860 -0.0189 -0.1048
 1466SOL    HW111513  10.336   9.743  11.822 -1.2686  1.1271 -0.2055
 1466SOL    HW211514  10.296   9.598  11.807  0.5442  0.6969 -1.1876
 1467SOL     OW11515   3.632   5.083   2.408 -0.0714  0.0355 -0.2902
 1467SOL    HW111516   3.636   4.991   2.435 -1.4921 -0.0722 -0.3969
 1467SOL    HW211517   3.564   5.085   2.341  0.3819  1.0716 -0.7364
 1468SOL     OW11518  11.284   9.930   4.821  0.4300  0.5418 -0.2462
 1468SOL    HW111519  11.353   9.997   4.816  0.1214  1.0183  1.2896
 1468SOL    HW211520  11.332   9.848   4.832  0.7780  0.8517  0.6825
 1469SOL     OW11521   2.874   6.351   7.868 -0.1419 -0.3535 -0.4119
 1469SOL    HW111522   2.826   6.282   7.823 -0.7287  1.1255 -2.1741
 1469SOL    HW211523   2.808   6.396   7.920 -0.2457  0.3318 -1.1262
 1470SOL     OW11524   7.368   4.994   3.141 -0.2581  0.0347  1.1846
 1470SOL    HW111525   7.388   5.021   3.230 -1.2364  0.0230  1.4205
 1470SOL    HW211526   7.290   4.939   3.150 -0.7261  0.5326  0.2540
 1471SOL     OW11527   4.680  10.504   0.150 -0.2741 -0.2930  0.1023
 1471SOL    HW111528   4.615  10.552   0.201 -0.8824 -0.3169 -0.6404
 1471SOL    HW211529   4.713  10.568   0.087  1.7396  0.2548  1.5761
 1472SOL     OW11530  10.395   1.500   4.284  0.4569  0.5038  0.1167
 1472SOL    HW111531  10.390   1.544   4.199  0.8080  0.1971 -0.0662
 1472SOL    HW211532  10.425   1.569   4.345 -0.4122  0.8841  0.1203
 1473SOL     OW11533   0.473  12.381   9.484  0.0005  0.7046  0.6611
 1473SOL    HW111534   0.540  12.320   9.514  0.3626  0.7392 -0.0553
 1473SOL    HW211535   0.409  12.384   9.556 -1.0266 -1.9782 -0.0279
 1474SOL     OW11536   4.929  10.159   1.196 -0.1265 -0.1650  0.6370
 1474SOL    HW111537   5.006  10.103   1.186  0.6714  0.4161  2.9975
 1474SOL    HW211538   4.959  10.246   1.169  0.3871  0.2624  2.4709
 1475SOL     OW11539  12.314   1.891   8.256 -0.3274  0.2727 -0.3707
 1475SOL    HW111540  12.310   1.972   8.205 -2.5493  1.6193  1.6800
 1475SOL    HW211541  12.401   1.856   8.240  0.1772  2.2649 -2.5073
 1476SOL     OW11542   7.872   8.306   0.831  0.3704  0.3857  0.1098
 1476SOL    HW111543   7.872   8.245   0.758  0.6462 -0.4162  0.7599
 1476SOL    HW211544   7.789   8.354   0.823 -0.7825 -1.3858  0.6356
 1477SOL     OW11545  11.151   6.239  10.539 -0.2087  0.1675 -0.5968
 1477SOL    HW111546  11.119   6.327  10.521 -0.3803  0.2555  0.0984
 1477SOL    HW211547  11.120   6.220  10.628  1.5016  0.1841  0.0339
 1478SOL     OW11548   7.305  12.391  10.525 -0.1187  0.0448 -0.2529
 1478SOL    HW111549   7.289  12.476  10.566 -0.0313  0.7082 -1.5566
 1478SOL    HW211550   7.396  12.395  10.497  0.2596 -0.9726  0.7855
 1479SOL     OW11551   0.988  12.847  10.464  0.4342  0.2680  0.1924
 1479SOL    HW111552   0.997  12.929  10.511 -0.7255 -0.2911  1.4382
 1479SOL    HW211553   1.014  12.780  10.526  0.6800 -0.3644 -0.5740
 1480SOL     OW11554  10.600   5.843   7.841 -0.4385  0.0529 -0.0663
 1480SOL    HW111555  10.542   5.815   7.912 -0.3932  0.2505  0.0484
 1480SOL    HW211556  10.678   5.878   7.886 -1.7680  3.3522 -0.0721
 1481SOL     OW11557  10.292   1.599   2.578 -0.2487  0.5624 -0.4765
 1481SOL    HW111558  10.338   1.563   2.503  1.3055  0.5619  0.4462
 1481SOL    HW211559  10.235   1.666   2.541  1.0006  1.0456 -1.5972
 1482SOL     OW11560   7.989  12.887   9.830  0.1830  0.1533  0.4829
 1482SOL    HW111561   7.961  12.866   9.919  2.1372  1.5157  1.4919
 1482SOL    HW211562   7.910  12.876   9.777 -0.9900 -0.8705  2.3403
 1483SOL     OW11563   8.002   4.142  12.639 -0.5815 -0.0499 -0.6027
 1483SOL    HW111564   7.936   4.184  12.696  0.3433 -0.7681  1.0748
 1483SOL    HW211565   8.066   4.211  12.623  0.4421 -0.4629  1.3637
 1484SOL     OW11566   8.534   8.006   6.221 -0.2060  0.5118 -0.1088
 1484SOL    HW111567   8.599   8.044   6.162  0.3269 -0.2294 -0.0116
 1484SOL    HW211568   8.561   8.036   6.308 -1.3108  2.0691 -0.2473
 1485SOL     OW11569   3.705   5.705   3.162  0.0651 -0.1719 -0.0901
 1485SOL    HW111570   3.766   5.749   3.104 -0.0451 -1.0509 -0.8992
 1485SOL    HW211571   3.757   5.638   3.206  0.0585  0.2216  0.5232
 1486SOL     OW11572   1.158   0.431   9.417 -0.7690  0.6840  0.1448
 1486SOL    HW111573   1.086   0.373   9.391  0.7929 -0.9455 -0.7526
 1486SOL    HW211574   1.170   0.414   9.510 -1.8435  1.3250  0.4087
 1487SOL     OW11575  11.643   4.376   1.831 -0.3483 -0.5062 -0.8809
 1487SOL    HW111576  11.640   4.356   1.737  2.3446  1.8419 -1.6007
 1487SOL    HW211577  11.725   4.338   1.862 -0.6110 -0.2002  0.2494
 1488SOL     OW11578   2.222   8.836   6.533  0.2755  0.4959  0.2054
 1488SOL    HW111579   2.139   8.822   6.486 -0.4121 -0.7070  1.6586
 1488SOL    HW211580   2.289   8.825   6.466 -0.6443 -1.5876 -0.4725
 1489SOL     OW11581   1.454   4.178   4.602  0.5576 -0.1764  0.2448
 1489SOL    HW111582   1.492   4.091   4.590 -0.1391 -0.5574  0.7268
 1489SOL    HW211583   1.434   4.208   4.513 -2.2429 -1.9139  0.1835
 1490SOL     OW11584   7.624   1.231   2.212 -0.1775  0.0391  0.4950
 1490SOL    HW111585   7.678   1.307   2.193 -0.5579  0.6109  1.6440
 1490SOL    HW211586   7.559   1.262   2.275 -0.2067 -1.2717  1.1504
 1491SOL     OW11587   2.980   6.671  11.710  0.3134  0.2690 -0.3170
 1491SOL    HW111588   2.928   6.748  11.732 -0.1531  0.5067 -2.0959
 1491SOL    HW211589   2.952   6.604  11.772  0.0191  1.2384  0.6173
 1492SOL     OW11590   5.835  12.513   9.016 -0.3235  0.3418  0.8908
 1492SOL    HW111591   5.818  12.596   8.973 -1.9699 -1.2462 -1.8631
 1492SOL    HW211592   5.924  12.490   8.991 -1.4647 -0.8685 -2.5896
 1493SOL     OW11593   9.686   1.890  10.359 -0.0419  0.2920  0.2604
 1493SOL    HW111594   9.779   1.913  10.356 -0.4408  2.1786  1.1767
 1493SOL    HW211595   9.677   1.837  10.438  0.2440  0.1602  0.2051
 1494SOL     OW11596   0.556   6.067   9.499 -0.3919  0.1577  0.9307
 1494SOL    HW111597   0.598   6.077   9.414  0.4202  1.6341  1.4645
 1494SOL    HW211598   0.606   6.125   9.557 -0.3716 -1.4552  2.6215
 1495SOL     OW11599   2.124  10.011   6.486 -0.8421  0.4324  0.0339
 1495SOL    HW111600   2.181   9.947   6.444 -0.4648  1.5004 -1.1297
 1495SOL    HW211601   2.036   9.972   6.480 -0.3760 -0.8946  1.2031
 1496SOL     OW11602   4.309   6.097   3.142 -0.1258  0.2729  0.4127
 1496SOL    HW111603   4.262   6.016   3.163 -0.0425 -0.2338 -1.2050
 1496SOL    HW211604   4.244   6.166   3.151 -0.6143 -0.1646  0.2719
 1497SOL     OW11605   1.648   6.852  12.690  0.1192 -0.1365  0.0268
 1497SOL    HW111606   1.594   6.928  12.713 -0.3595 -0.2897 -0.5769
 1497SOL    HW211607   1.733   6.871  12.729  0.5517  1.5495 -1.5933
 1498SOL     OW11608  12.862   4.274   1.487 -0.2219  0.0363 -0.0659
 1498SOL    HW111609  12.859   4.179   1.472 -1.6537  0.1561 -0.7721
 1498SOL    HW211610  12.880   4.283   1.580 -2.4714 -1.0108  0.5359
 1499SOL     OW11611   6.024   5.441   8.750  0.6061  0.1355 -0.0255
 1499SOL    HW111612   6.092   5.402   8.695  0.2220  1.2244 -1.3311
 1499SOL    HW211613   6.063   5.446   8.837  0.5838 -3.3746  0.3431
 1500SOL     OW11614   9.875   0.825   7.403  0.6202 -0.1139  0.1614
 1500SOL    HW111615   9.798   0.850   7.352  1.4106 -1.7413 -1.9784
 1500SOL    HW211616   9.858   0.859   7.491 -2.7952 -0.8497 -0.0748
 1501SOL     OW11617  10.268  11.799   7.725  0.0959 -0.2452  0.2430
 1501SOL    HW111618  10.257  11.774   7.633 -0.5764  0.1010  0.2234
 1501SOL    HW211619  10.357  11.833   7.730  0.2012 -0.4348 -0.2374
 1502SOL     OW11620   3.929   6.794   1.445  0.0463 -0.4273 -0.0594
 1502SOL    HW111621   3.930   6.800   1.349 -2.9531 -0.4760 -0.1969
 1502SOL    HW211622   3.969   6.876   1.474  0.1485  0.0162 -1.3564
 1503SOL     OW11623   7.824   5.755   3.895  0.1254 -0.0118 -0.5617
 1503SOL    HW111624   7.828   5.743   3.990 -0.9444 -0.2140 -0.5300
 1503SOL    HW211625   7.780   5.677   3.863  1.0190 -0.2310 -1.3037
 1504SOL     OW11626   3.943   2.856   8.609  0.5414 -0.2532  0.1353
 1504SOL    HW111627   3.983   2.805   8.680 -0.3491 -0.1594  0.7270
 1504SOL    HW211628   3.945   2.798   8.533  2.6984  0.1049 -0.1422
 1505SOL     OW11629   5.813   5.984   7.533 -0.6179  0.1096  0.7699
 1505SOL    HW111630   5.858   6.064   7.559  0.5489 -0.7738  1.5405
 1505SOL    HW211631   5.856   5.914   7.583 -2.2058 -0.8967  0.8245
 1506SOL     OW11632   0.323   7.845  11.446  0.1451 -0.6541 -0.2260
 1506SOL    HW111633   0.300   7.770  11.500 -0.5246 -0.7866 -0.6824
 1506SOL    HW211634   0.330   7.810  11.357  1.7949 -0.5494 -0.1629
 1507SOL     OW11635   5.672   2.052   3.537  0.2027 -0.1368  0.1667
 1507SOL    HW111636   5.623   2.086   3.462 -0.1975  1.6031  1.1507
 1507SOL    HW211637   5.605   2.035   3.603  0.6758 -0.3248  0.6016
 1508SOL     OW11638   4.023   9.232  11.685 -0.1078 -0.1088  0.1791
 1508SOL    HW111639   4.062   9.168  11.744  0.3920  0.1290  0.1085
 1508SOL    HW211640   4.094   9.258  11.626 -0.8685 -1.1602 -1.2439
 1509SOL     OW11641  12.682   3.778   4.837 -0.1883  0.3642  0.3561
 1509SOL    HW111642  12.624   3.744   4.769 -1.2852  1.7535  0.5659
 1509SOL    HW211643  12.765   3.792   4.793 -0.7931  0.9449 -0.6267
 1510SOL     OW11644   1.617   8.527   9.354 -0.5906 -0.1161  0.1977
 1510SOL    HW111645   1.611   8.466   9.427 -0.5097 -0.1890  0.1438
 1510SOL    HW211646   1.652   8.475   9.281 -2.6614 -0.5654 -0.5222
 1511SOL     OW11647   0.209  11.152  10.901  0.1323  0.8289 -0.0425
 1511SOL    HW111648   0.274  11.218  10.878 -0.0898  0.8032 -0.7545
 1511SOL    HW211649   0.173  11.122  10.818  0.2593 -0.2343  0.2634
 1512SOL     OW11650   6.626  11.293   8.918  0.3434  0.2091 -0.0103
 1512SOL    HW111651   6.656  11.203   8.922  2.5885  0.8550 -0.8204
 1512SOL    HW211652   6.577  11.299   8.836 -0.6510 -0.4757  0.5188
 1513SOL     OW11653  10.594   4.950  10.714 -0.0600  0.1824  0.1619
 1513SOL    HW111654  10.536   4.901  10.773 -0.2004  0.1518 -0.0017
 1513SOL    HW211655  10.660   4.987  10.772 -0.4259  0.4817  0.3964
 1514SOL     OW11656   5.142   4.387   8.771 -0.3282  0.5062 -0.0491
 1514SOL    HW111657   5.194   4.434   8.836  1.1982  0.6481 -1.3143
 1514SOL    HW211658   5.117   4.305   8.815  1.1016  0.3667  0.5496
 1515SOL     OW11659  10.582  11.378   2.125  0.2502 -0.1292  0.0612
 1515SOL    HW111660  10.655  11.318   2.111  0.3975 -0.1188  0.7626
 1515SOL    HW211661  10.622  11.458   2.160  0.2630  1.0224 -2.3860
 1516SOL     OW11662   3.277   9.952   8.680 -0.4310 -0.4940  0.4489
 1516SOL    HW111663   3.314   9.881   8.732 -1.3214 -0.6183  0.9344
 1516SOL    HW211664   3.195   9.917   8.646  0.6891 -0.8566 -2.1038
 1517SOL     OW11665   7.567   2.548   1.351 -0.5005 -0.4071 -0.1343
 1517SOL    HW111666   7.478   2.519   1.372  0.0524 -1.2515  1.2033
 1517SOL    HW211667   7.616   2.467   1.335  0.7866 -0.2717  2.4594
 1518SOL     OW11668   2.696   7.314   7.177 -0.2470  0.9086 -0.6029
 1518SOL    HW111669   2.635   7.387   7.171  1.2116  2.1922 -0.5571
 1518SOL    HW211670   2.782   7.356   7.184  0.4231 -0.6444  3.6016
 1519SOL     OW11671   6.110   3.636   5.923 -0.4719 -0.1088  0.6012
 1519SOL    HW111672   6.141   3.659   5.836 -1.5856 -0.0296  0.2084
 1519SOL    HW211673   6.036   3.695   5.938  0.3468  0.6066  2.0388
 1520SOL     OW11674  12.801   4.748   1.646 -0.0363  0.1660  0.3657
 1520SOL    HW111675  12.877   4.714   1.598  0.6020 -0.3753  1.7151
 1520SOL    HW211676  12.804   4.843   1.632  0.7933  0.1312  0.2687
 1521SOL     OW11677  10.225  10.585  12.371  0.0592  0.0612 -0.0034
 1521SOL    HW111678  10.304  10.532  12.368  0.0608  0.1100 -1.3134
 1521SOL    HW211679  10.169  10.549  12.302 -1.7698 -1.0264  1.9075
 1522SOL     OW11680   1.305  11.219   6.287 -0.0277 -0.0954 -0.0026
 1522SOL    HW111681   1.287  11.166   6.210 -1.2723  0.0158  0.1910
 1522SOL    HW211682   1.265  11.171   6.360  0.8404 -0.0336  0.5287
 1523SOL     OW11683   4.981   0.867   7.474 -0.4638 -0.4140 -0.2273
 1523SOL    HW111684   4.894   0.837   7.500 -0.1751 -0.8342  0.2687
 1523SOL    HW211685   5.002   0.814   7.397 -1.6046  1.3071 -1.8094
 1524SOL     OW11686  10.298  10.483   6.536  0.7087 -0.7932  0.3134
 1524SOL    HW111687  10.276  10.524   6.452 -0.0529  0.0864  0.9271
 1524SOL    HW211688  10.360  10.414   6.513  0.4054 -0.6595 -0.9907
 1525SOL     OW11689   0.190   3.363   5.941  0.1583 -0.2708 -0.2172
 1525SOL    HW111690   0.104   3.322   5.930 -0.0165  0.4970 -2.2319
 1525SOL    HW211691   0.196   3.383   6.034 -1.9124 -0.2389 -0.0531
 1526SOL     OW11692   8.831   2.659  11.504  0.1547  0.1844 -0.3028
 1526SOL    HW111693   8.846   2.753  11.511 -1.9326  0.4289  2.1906
 1526SOL    HW211694   8.905   2.619  11.550  0.7831  0.5711 -0.9433
 1527SOL     OW11695  10.165   8.389   4.902 -0.8145  0.0790  0.1897
 1527SOL    HW111696  10.228   8.450   4.864 -1.4070  0.8042  0.3447
 1527SOL    HW211697  10.212   8.348   4.975 -0.0161 -0.5553 -0.6580
 1528SOL     OW11698   8.785   3.978   5.904 -0.4872  0.1471 -0.6840
 1528SOL    HW111699   8.719   3.919   5.940  1.1749 -1.1344  0.3960
 1528SOL    HW211700   8.758   4.065   5.935 -1.1497 -0.4598  0.4978
 1529SOL     OW11701   2.185  11.377  12.576 -0.2005 -0.2699  0.2759
 1529SOL    HW111702   2.107  11.424  12.546  0.4795  1.5675  1.2181
 1529SOL    HW211703   2.257  11.421  12.532  0.5300  0.1894  1.8496
 1530SOL     OW11704  12.669   5.555  10.136  0.1328 -0.7166 -0.1838
 1530SOL    HW111705  12.640   5.464  10.142 -0.3159 -0.5709 -0.1541
 1530SOL    HW211706  12.598   5.606  10.174  0.3700 -0.3482 -0.2281
 1531SOL     OW11707   2.817   2.628   1.042  0.1206 -0.5946  0.7342
 1531SOL    HW111708   2.861   2.543   1.046 -1.3201 -1.4142  0.2720
 1531SOL    HW211709   2.728   2.610   1.072 -0.2362  0.7502  0.5639
 1532SOL     OW11710   2.145   3.617   2.734 -0.1333 -0.1789 -0.3933
 1532SOL    HW111711   2.181   3.569   2.660 -3.0099 -0.6670 -1.5848
 1532SOL    HW211712   2.120   3.549   2.797  1.3744  0.1855  0.6689
 1533SOL     OW11713   3.245  11.973  10.811 -0.5012  0.6917 -0.3621
 1533SOL    HW111714   3.158  11.955  10.846  0.3332 -1.0411  1.0041
 1533SOL    HW211715   3.263  12.063  10.836 -2.3732  1.5020 -1.7777
 1534SOL     OW11716   3.614   4.186   1.013  0.1446  0.0394  0.8230
 1534SOL    HW111717   3.577   4.110   0.969 -1.1914  1.3691 -0.4625
 1534SOL    HW211718   3.650   4.240   0.943  1.1300  0.5847  1.7137
 1535SOL     OW11719   9.151   4.308   0.137  0.0833  0.0507  0.2476
 1535SOL    HW111720   9.175   4.319   0.045 -1.4187  0.9369 -0.0587
 1535SOL    HW211721   9.191   4.382   0.182 -0.1719  0.2676  0.1154
 1536SOL     OW11722   4.357   2.860   4.157 -0.1219 -0.0230  0.3507
 1536SOL    HW111723   4.352   2.821   4.244 -1.4431  1.7095  1.1215
 1536SOL    HW211724   4.267   2.856   4.124  0.4238 -1.0225 -1.1585
 1537SOL     OW11725  12.541  11.563  11.862 -0.1719 -0.1042 -0.5766
 1537SOL    HW111726  12.498  11.623  11.801  1.0799  0.5181 -0.8759
 1537SOL    HW211727  12.615  11.613  11.898  0.4046 -1.1857 -0.1938
 1538SOL     OW11728   2.821   1.690   2.901  0.4119  0.0689  0.1806
 1538SOL    HW111729   2.809   1.607   2.855  0.3655 -0.2349  0.7325
 1538SOL    HW211730   2.913   1.713   2.887  0.3982 -0.0190 -0.0603
 1539SOL     OW11731   6.916  10.857   5.073  0.5193  0.9395  0.2603
 1539SOL    HW111732   6.928  10.892   4.984 -0.4013 -1.6155 -0.9950
 1539SOL    HW211733   6.962  10.773   5.071 -0.3029  0.4117  1.9216
 1540SOL     OW11734   1.363   4.106   8.445  0.0125  0.0911  0.1002
 1540SOL    HW111735   1.321   4.102   8.531  0.7525 -3.2970  0.4573
 1540SOL    HW211736   1.297   4.145   8.388 -0.7698  1.7489  2.0165
 1541SOL     OW11737   5.225  11.543   5.408 -0.0600 -0.3073 -0.5495
 1541SOL    HW111738   5.281  11.523   5.483 -0.6617 -1.1539 -0.3187
 1541SOL    HW211739   5.239  11.471   5.347  0.1683  0.2066 -1.1262
 1542SOL     OW11740   0.593   1.159  11.787 -0.3652  0.2376 -0.5289
 1542SOL    HW111741   0.590   1.196  11.699 -1.6700 -1.5258 -1.2928
 1542SOL    HW211742   0.508   1.180  11.825 -0.2130  0.0814 -0.0950
 1543SOL     OW11743   6.020   3.526   6.769  0.6462  0.1350  0.3534
 1543SOL    HW111744   6.009   3.582   6.692  0.3219 -1.8320 -1.0971
 1543SOL    HW211745   6.022   3.437   6.734 -1.6181 -1.0007  2.8268
 1544SOL     OW11746   8.890   5.093   1.621 -0.0076 -0.1974 -0.1732
 1544SOL    HW111747   8.809   5.093   1.672  0.2229 -0.5117  0.1942
 1544SOL    HW211748   8.882   5.017   1.563 -1.1981  1.3022 -2.1170
 1545SOL     OW11749   7.816   3.030   1.387  0.1435  0.1612  0.1707
 1545SOL    HW111750   7.834   2.936   1.393 -0.5182  0.0194  0.0258
 1545SOL    HW211751   7.875   3.070   1.450  0.8942 -0.2886 -0.2268
 1546SOL     OW11752   9.462   5.231  11.153  0.0490  0.5151  0.5962
 1546SOL    HW111753   9.483   5.303  11.094  0.3385 -0.3298 -0.3706
 1546SOL    HW211754   9.536   5.227  11.213 -0.3188  1.4781  1.1281
 1547SOL     OW11755   7.457   8.184   9.929 -0.5343 -0.6868 -0.2971
 1547SOL    HW111756   7.478   8.276   9.941 -0.8324 -0.9341  2.9266
 1547SOL    HW211757   7.378   8.184   9.875  0.0202  0.8538 -1.1648
 1548SOL     OW11758   5.137   2.256  12.928 -0.7525 -0.1982 -0.4833
 1548SOL    HW111759   5.120   2.203  13.007 -0.1925  1.1657  0.5967
 1548SOL    HW211760   5.199   2.204  12.878 -3.1512 -2.3603 -1.4260
 1549SOL     OW11761   5.522   4.037   4.697 -0.2623 -0.1399  0.2565
 1549SOL    HW111762   5.541   4.101   4.766  1.5973 -1.3822  0.9651
 1549SOL    HW211763   5.539   3.952   4.737  0.4157 -0.9197 -1.5828
 1550SOL     OW11764  12.694   3.438   4.564 -0.0964 -0.0034 -0.2466
 1550SOL    HW111765  12.613   3.428   4.614  0.4964  0.6178  0.8543
 1550SOL    HW211766  12.673   3.401   4.478 -1.1065 -1.1634  0.4623
 1551SOL     OW11767   0.877   1.015   2.266  0.9364 -1.0768 -0.1343
 1551SOL    HW111768   0.843   0.993   2.179  0.2745  1.0837 -0.4928
 1551SOL    HW211769   0.944   1.081   2.249 -0.0346  0.2691  1.0291
 1552SOL     OW11770   3.994   6.542   1.852 -0.0516  0.4649  0.8278
 1552SOL    HW111771   4.082   6.505   1.853  0.7944  2.0947 -1.8763
 1552SOL    HW211772   3.937   6.467   1.836  1.1905 -0.2778 -0.3655
 1553SOL     OW11773   7.857   3.822   2.439 -0.2421  0.6129 -0.6636
 1553SOL    HW111774   7.949   3.798   2.427  0.4549  2.4363  0.6186
 1553SOL    HW211775   7.825   3.839   2.351  0.8193  0.5316 -1.0792
 1554SOL     OW11776   1.942   1.093   2.424  0.4603 -0.2646 -0.0980
 1554SOL    HW111777   2.018   1.133   2.383 -0.6043  1.5373 -0.4612
 1554SOL    HW211778   1.886   1.168   2.448  0.1560 -1.3242  2.9219
 1555SOL     OW11779  12.213  11.220   0.620  0.3525  0.2401 -0.0047
 1555SOL    HW111780  12.296  11.183   0.590  0.8238  1.8177 -0.7777
 1555SOL    HW211781  12.171  11.252   0.540  0.3045  1.9513  0.6466
 1556SOL     OW11782  10.604   7.953  11.971  0.0222  0.2357  0.3075
 1556SOL    HW111783  10.551   7.876  11.950 -0.4737  0.4804  0.6371
 1556SOL    HW211784  10.688   7.937  11.927  0.1382 -0.7728  0.8735
 1557SOL     OW11785   7.972   0.758   0.012  0.0901  0.6507 -0.4112
 1557SOL    HW111786   7.878   0.768   0.001  0.2081  1.4940 -0.6571
 1557SOL    HW211787   8.003   0.726  -0.073 -0.1292 -0.8346  0.0367
 1558SOL     OW11788  11.400   3.534   3.232  0.2590  0.3109 -0.4953
 1558SOL    HW111789  11.320   3.576   3.200 -0.9908 -0.6156  1.2312
 1558SOL    HW211790  11.433   3.593   3.300  0.2306  0.0251 -0.2262
 1559SOL     OW11791   5.271   4.874   8.293 -0.0226  0.0667  0.0097
 1559SOL    HW111792   5.196   4.832   8.336 -0.2499  3.4254  3.5023
 1559SOL    HW211793   5.232   4.927   8.223 -1.0773  1.7814  1.7895
 1560SOL     OW11794   9.122  11.033   9.978  0.1268  0.8931 -0.1654
 1560SOL    HW111795   9.062  10.966  10.012 -0.7160  0.8895 -1.5789
 1560SOL    HW211796   9.185  11.047  10.049 -0.9524  0.1645  0.9831
 1561SOL     OW11797  11.297   6.784   8.397 -0.0194  0.1402 -0.4960
 1561SOL    HW111798  11.271   6.718   8.333  0.4545  0.8031 -1.4035
 1561SOL    HW211799  11.367   6.743   8.447 -1.9478 -1.2564  1.2282
 1562SOL     OW11800   2.460   4.548  11.332 -0.1977 -0.2521 -0.3679
 1562SOL    HW111801   2.419   4.619  11.381 -0.2023  0.0079 -0.7499
 1562SOL    HW211802   2.553   4.569  11.333 -0.3370  0.4452 -1.5927
 1563SOL     OW11803   9.170   1.735   8.045  0.2397 -0.3056  0.7567
 1563SOL    HW111804   9.214   1.816   8.072  0.8280 -0.4190  0.1750
 1563SOL    HW211805   9.096   1.765   7.992  0.6312 -0.1526  0.2936
 1564SOL     OW11806   7.685   9.517  11.648  0.1303  0.0572  0.1185
 1564SOL    HW111807   7.730   9.591  11.689  1.1688 -0.1965 -0.5060
 1564SOL    HW211808   7.677   9.543  11.556  0.5695 -0.6330 -0.1191
 1565SOL     OW11809   5.181   9.458   3.429 -0.2099  0.3687  0.7243
 1565SOL    HW111810   5.104   9.401   3.418  0.4206 -0.5927  1.1582
 1565SOL    HW211811   5.214   9.470   3.340  0.4190 -1.0718  0.7222
 1566SOL     OW11812   3.520   5.536   3.424 -0.2087  0.5756 -0.4257
 1566SOL    HW111813   3.554   5.497   3.504 -0.2181  0.1200 -0.6387
 1566SOL    HW211814   3.580   5.609   3.406  0.9275 -0.4581 -1.0121
 1567SOL     OW11815   1.145   0.161  12.432 -0.2757  0.0808  0.8342
 1567SOL    HW111816   1.188   0.118  12.506 -0.7700 -0.5372  0.7707
 1567SOL    HW211817   1.157   0.255  12.449  0.8065 -0.0694  0.9713
 1568SOL     OW11818   8.952  12.031   4.034  0.5431 -0.1621  0.0284
 1568SOL    HW111819   9.026  12.040   4.094 -0.1222 -1.5063  1.1159
 1568SOL    HW211820   8.877  12.065   4.083  0.1542 -0.4017 -0.3866
 1569SOL     OW11821   2.165  11.732   0.495  0.1305  0.6753  0.4334
 1569SOL    HW111822   2.217  11.670   0.546  0.0108 -1.3777 -1.7685
 1569SOL    HW211823   2.229  11.782   0.444  0.1051 -0.0435 -0.3265
 1570SOL     OW11824   5.469   9.204  12.010 -0.0355  0.0218  0.1257
 1570SOL    HW111825   5.416   9.125  11.995  1.2366 -0.6336 -1.2069
 1570SOL    HW211826   5.468   9.216  12.105 -1.1868 -0.9317  0.2565
 1571SOL     OW11827  10.302   3.430   1.217 -0.1413 -0.2084  0.6368
 1571SOL    HW111828  10.309   3.456   1.309  2.0010 -1.3753  0.8853
 1571SOL    HW211829  10.369   3.483   1.173  0.1404 -0.9929  0.1049
 1572SOL     OW11830   4.280   8.216  12.692 -0.1720 -0.3969  0.7020
 1572SOL    HW111831   4.212   8.179  12.748 -1.2966  0.4212 -0.0851
 1572SOL    HW211832   4.358   8.163  12.711 -1.4576 -2.5605  0.2930
 1573SOL     OW11833   2.765   8.158   6.735  0.5392 -0.2148 -0.1222
 1573SOL    HW111834   2.759   8.151   6.830  1.6246  1.0432  0.0633
 1573SOL    HW211835   2.816   8.082   6.709  0.5792 -0.3519  0.3409
 1574SOL     OW11836   9.153   7.277   8.960 -0.2704  0.0984 -0.0445
 1574SOL    HW111837   9.213   7.299   8.890  1.0031 -1.6027  0.4415
 1574SOL    HW211838   9.085   7.224   8.918 -1.6454  2.2280 -0.6406
 1575SOL     OW11839   5.551   4.798   4.403  0.0301  0.6391  0.1662
 1575SOL    HW111840   5.474   4.802   4.346  0.4531  1.5902 -0.3489
 1575SOL    HW211841   5.524   4.740   4.474 -0.5520 -0.4598 -0.9184
 1576SOL     OW11842   4.293   5.519   0.889 -0.2553  0.0079  0.0128
 1576SOL    HW111843   4.385   5.495   0.882 -0.2794  0.3180 -2.0883
 1576SOL    HW211844   4.268   5.545   0.800 -1.9403  1.5394  0.8633
 1577SOL     OW11845   7.589   3.931  11.852  0.0643 -0.4507  0.1578
 1577SOL    HW111846   7.644   4.007  11.832  0.5729 -0.7100  0.5355
 1577SOL    HW211847   7.571   3.892  11.767 -0.2215  0.1047 -0.0419
 1578SOL     OW11848   1.954   7.395   2.007  0.1395 -0.7264  0.2055
 1578SOL    HW111849   1.950   7.489   1.988 -0.4452 -1.0747 -1.5971
 1578SOL    HW211850   1.971   7.354   1.922 -0.6510 -2.3148  0.7688
 1579SOL     OW11851   9.462   9.865   7.504 -0.1535  0.4987 -0.2236
 1579SOL    HW111852   9.458   9.781   7.550  0.1915  0.3575 -0.4464
 1579SOL    HW211853   9.436   9.844   7.414  0.4103  0.5345 -0.4008
 1580SOL     OW11854  11.887   8.203  11.921  0.2766  0.5851 -0.5852
 1580SOL    HW111855  11.826   8.170  11.855 -0.3575  1.4931 -0.4790
 1580SOL    HW211856  11.906   8.128  11.976 -0.6526  0.2471 -0.7035
 1581SOL     OW11857   0.719   6.030  12.377 -0.5106 -0.4979 -0.3005
 1581SOL    HW111858   0.713   5.942  12.340 -1.6625 -0.1684 -0.9702
 1581SOL    HW211859   0.739   6.086  12.302 -0.2926 -0.1330  0.0310
 1582SOL     OW11860  12.180  10.061   7.078  0.5367  0.2390 -0.1408
 1582SOL    HW111861  12.236  10.107   7.016  0.4734 -0.6310 -0.8524
 1582SOL    HW211862  12.091  10.077   7.047  0.5723 -1.4977 -1.2119
 1583SOL     OW11863   1.367  11.868   2.485 -0.1730  0.1803  0.4804
 1583SOL    HW111864   1.390  11.918   2.563 -0.8035  1.0910  0.0992
 1583SOL    HW211865   1.430  11.795   2.484 -0.1455  0.1534  1.8144
 1584SOL     OW11866  12.918   2.353   1.840  0.3203 -0.1681  0.0544
 1584SOL    HW111867  12.916   2.344   1.935  0.5092 -1.3161 -0.0363
 1584SOL    HW211868  12.979   2.286   1.810  1.0250  0.8243 -0.8169
 1585SOL     OW11869   9.810   5.864  10.156 -0.0307  0.6868  0.0144
 1585SOL    HW111870   9.723   5.901  10.144 -0.5619  0.7548  3.2030
 1585SOL    HW211871   9.869   5.939  10.147 -0.3382  0.7850 -1.3613
 1586SOL     OW11872   0.191   5.565   2.764  0.2979  0.0535 -0.4987
 1586SOL    HW111873   0.278   5.585   2.800 -0.4386  1.2554  0.6887
 1586SOL    HW211874   0.154   5.502   2.825 -0.2763  0.7617 -0.1081
 1587SOL     OW11875   1.146   3.884  12.678  0.3982  0.2531  0.3951
 1587SOL    HW111876   1.213   3.867  12.613  0.1164  0.8972 -0.0808
 1587SOL    HW211877   1.077   3.821  12.659  0.6385 -0.0499  0.5376
 1588SOL     OW11878   9.120  10.481   8.032  0.2852 -0.1998 -0.4399
 1588SOL    HW111879   9.213  10.461   8.033  0.6824  1.4899 -0.6810
 1588SOL    HW211880   9.102  10.509   7.943 -0.3678 -0.0829 -0.2802
 1589SOL     OW11881   5.493   0.430   2.215 -0.0212 -0.3837 -0.6416
 1589SOL    HW111882   5.486   0.514   2.170 -3.0450  0.4822  1.1667
 1589SOL    HW211883   5.565   0.442   2.277  0.1100  0.5884 -0.9611
 1590SOL     OW11884  10.566   6.025   9.958  0.6628 -0.0202 -0.3032
 1590SOL    HW111885  10.636   6.026  10.023  1.1835 -0.1494 -0.8588
 1590SOL    HW211886  10.548   6.118   9.941 -0.9572  0.0858  1.5765
 1591SOL     OW11887  11.340  12.379   7.546  0.6997  0.7561 -0.1101
 1591SOL    HW111888  11.324  12.285   7.547 -2.2502  1.1617 -1.3152
 1591SOL    HW211889  11.394  12.393   7.467 -0.3594  0.2499 -0.9446
 1592SOL     OW11890   7.995   6.158   9.886  0.6931 -0.4583  0.4713
 1592SOL    HW111891   8.008   6.065   9.906  0.1023 -0.6586 -0.0528
 1592SOL    HW211892   8.042   6.171   9.803  0.3784 -0.4033  0.3011
 1593SOL     OW11893   0.340   2.347  11.005 -0.0710  0.1166 -0.4492
 1593SOL    HW111894   0.382   2.429  11.032  0.4427  0.1515 -1.3149
 1593SOL    HW211895   0.248   2.359  11.028 -0.0597  1.0688 -0.8452
 1594SOL     OW11896  10.662   3.545   8.794 -0.1216  0.4697 -0.3991
 1594SOL    HW111897  10.755   3.547   8.816 -0.1142 -1.1556 -0.1709
 1594SOL    HW211898  10.617   3.564   8.876 -0.0347 -2.8051  0.5182
 1595SOL     OW11899   2.928   7.654   6.255 -0.0188  0.0656 -0.9998
 1595SOL    HW111900   2.947   7.739   6.215  2.1917  0.7802  1.3306
 1595SOL    HW211901   2.832   7.649   6.259 -0.1866  2.3818 -1.3097
 1596SOL     OW11902   0.579  10.413   9.251 -0.1041  0.3460 -0.0348
 1596SOL    HW111903   0.652  10.461   9.213  0.8655  1.6986  3.1782
 1596SOL    HW211904   0.510  10.478   9.261 -0.2267  0.1185  0.6909
 1597SOL     OW11905  11.582   8.379   7.238  0.6992 -0.1489  0.1298
 1597SOL    HW111906  11.544   8.436   7.171  2.1819 -0.1804 -0.7775
 1597SOL    HW211907  11.564   8.424   7.321 -1.2665 -0.1699 -0.2526
 1598SOL     OW11908   0.161   6.638   8.028  0.7063 -0.0251  0.5235
 1598SOL    HW111909   0.123   6.718   7.991 -2.1116 -1.5043 -0.1570
 1598SOL    HW211910   0.114   6.626   8.111  0.9508 -1.0272  0.5288
 1599SOL     OW11911  11.783   8.635   3.894  0.1907 -0.1720 -0.3528
 1599SOL    HW111912  11.835   8.610   3.818  0.3884  2.1640 -1.0486
 1599SOL    HW211913  11.715   8.567   3.900  0.0393 -0.3074 -2.7487
 1600SOL     OW11914   5.731  10.003   7.911  0.4266  0.5084 -0.0243
 1600SOL    HW111915   5.723   9.964   7.823  0.6674 -1.1624  0.6572
 1600SOL    HW211916   5.796  10.072   7.900  0.2207  0.5333 -1.2360
 1601SOL     OW11917   7.710   3.295   3.030  0.1787  0.0943  1.2417
 1601SOL    HW111918   7.663   3.373   3.060 -1.6479 -0.7837  0.8164
 1601SOL    HW211919   7.651   3.254   2.968  1.5140 -1.1358  0.7354
 1602SOL     OW11920  11.873   6.324   0.812 -0.4007  0.2098  0.4639
 1602SOL    HW111921  11.860   6.400   0.869 -3.1532  0.2156 -0.0216
 1602SOL    HW211922  11.789   6.313   0.768  0.9303 -1.1751 -1.9212
 1603SOL     OW11923   3.330   2.261   1.775  0.3801 -0.0445  0.2401
 1603SOL    HW111924   3.270   2.328   1.742  0.2055 -0.0365  0.5691
 1603SOL    HW211925   3.336   2.278   1.869 -2.8884 -2.9215  1.1777
 1604SOL     OW11926   6.352   3.495   1.090 -0.0116 -0.1014 -0.4517
 1604SOL    HW111927   6.311   3.572   1.129 -0.5571 -2.1369  3.4770
 1604SOL    HW211928   6.279   3.434   1.075  0.7754 -1.1772 -0.0451
 1605SOL     OW11929   6.585   2.847   1.189  0.0380  0.0970 -1.1900
 1605SOL    HW111930   6.502   2.800   1.195 -0.8409  1.2263 -3.2879
 1605SOL    HW211931   6.583   2.888   1.102  1.2263  3.0829  0.0615
 1606SOL     OW11932   8.693  11.713   0.689 -0.1813  0.0062 -0.2376
 1606SOL    HW111933   8.640  11.661   0.749  1.3530  0.8210  1.9227
 1606SOL    HW211934   8.688  11.802   0.723 -1.4042  1.0601 -2.9063
 1607SOL     OW11935   7.315   9.566   1.476 -0.4621 -0.1725 -0.3765
 1607SOL    HW111936   7.284   9.644   1.429 -1.6507 -0.6290 -0.4057
 1607SOL    HW211937   7.384   9.598   1.533  0.3796  0.5591 -1.7631
 1608SOL     OW11938   3.219   9.163   2.296 -0.3319 -0.3137  0.0866
 1608SOL    HW111939   3.213   9.194   2.386  0.2621 -0.1974  0.0939
 1608SOL    HW211940   3.308   9.127   2.290 -0.9873 -2.0010  0.0776
 1609SOL     OW11941   1.062  12.729   2.500  0.1132  0.0491  0.6694
 1609SOL    HW111942   0.971  12.749   2.525  0.0595 -0.0771  0.5749
 1609SOL    HW211943   1.111  12.806   2.528 -0.1327  0.4316  0.0688
 1610SOL     OW11944  12.705   7.337   2.832  0.1934  0.4073 -0.0940
 1610SOL    HW111945  12.652   7.263   2.802  0.4353 -0.2081  0.9264
 1610SOL    HW211946  12.795   7.307   2.821  0.2961  0.5866  0.2445
 1611SOL     OW11947   4.900  12.045   4.079  0.0599  0.4571  0.0878
 1611SOL    HW111948   4.960  11.972   4.064 -0.0674  0.0802  1.3136
 1611SOL    HW211949   4.956  12.123   4.081  0.5868  0.0620  1.6842
 1612SOL     OW11950   3.334   8.993   0.616 -0.1302  0.6839  0.1299
 1612SOL    HW111951   3.309   8.983   0.708 -2.2383  0.3902 -0.4290
 1612SOL    HW211952   3.379   8.911   0.594 -2.3179 -0.6066  0.1393
 1613SOL     OW11953  10.161   5.769   9.379  0.1494 -0.3701  0.4028
 1613SOL    HW111954  10.183   5.795   9.289 -0.3055 -2.5908 -0.4158
 1613SOL    HW211955  10.182   5.846   9.432 -1.5996  1.8160 -1.8402
 1614SOL     OW11956   1.563   9.329   1.402 -0.0642 -0.6450  0.7857
 1614SOL    HW111957   1.485   9.358   1.356  1.0429  2.8188  0.8207
 1614SOL    HW211958   1.609   9.275   1.339 -0.1380  1.3752 -1.1031
 1615SOL     OW11959   1.237  12.144   6.124 -0.0019  0.2075 -0.2984
 1615SOL    HW111960   1.268  12.054   6.127 -0.9574 -0.1119  0.7013
 1615SOL    HW211961   1.177  12.147   6.050 -2.2892 -0.8104  1.4029
 1616SOL     OW11962   8.404   9.424   5.746 -1.0208  0.0844 -1.2194
 1616SOL    HW111963   8.422   9.351   5.804  0.0566  1.6159  0.4808
 1616SOL    HW211964   8.482   9.430   5.690 -0.4007  0.8305 -0.3131
 1617SOL     OW11965   9.051   9.129   0.063 -0.4350 -0.4274  0.3628
 1617SOL    HW111966   9.139   9.166   0.055 -0.5061  0.3543  2.5998
 1617SOL    HW211967   8.996   9.186   0.009 -0.2171  1.6689  2.2383
 1618SOL     OW11968   0.017   3.855   3.268 -0.1012 -0.1441 -0.1988
 1618SOL    HW111969  -0.075   3.839   3.248 -0.1250 -2.3853  1.3587
 1618SOL    HW211970   0.016   3.928   3.328 -0.7637  0.4670 -0.9259
 1619SOL     OW11971  11.480   8.081   4.619  0.3036  0.1338 -0.6058
 1619SOL    HW111972  11.508   8.044   4.702 -0.3853 -1.8651 -1.2086
 1619SOL    HW211973  11.394   8.120   4.637  0.9240  1.2900 -0.0237
 1620SOL     OW11974   2.358   8.172   0.924 -0.4686  0.0071 -0.5133
 1620SOL    HW111975   2.341   8.112   0.851 -1.8812  1.2652 -1.2773
 1620SOL    HW211976   2.412   8.241   0.886 -1.0827  0.5850 -0.3641
 1621SOL     OW11977   2.437   3.904   4.266  0.1172  0.1415  0.4280
 1621SOL    HW111978   2.436   3.978   4.205  0.4472 -0.7635 -0.7205
 1621SOL    HW211979   2.347   3.871   4.267 -0.1738  0.9379  1.4397
 1622SOL     OW11980  10.119   8.945  11.417 -0.0200 -0.2747 -0.7322
 1622SOL    HW111981  10.206   8.945  11.376 -0.6076 -1.0925 -2.0285
 1622SOL    HW211982  10.059   8.917  11.348 -1.3523  0.3982  0.1040
 1623SOL     OW11983   0.652  11.412   6.346 -0.3472 -0.2239 -0.0699
 1623SOL    HW111984   0.686  11.447   6.428 -0.8503  1.2747 -0.4737
 1623SOL    HW211985   0.566  11.376   6.369 -1.4433  2.1036 -0.2808
 1624SOL     OW11986   6.091   2.016   0.344 -0.5589 -0.0560  0.4375
 1624SOL    HW111987   6.126   1.949   0.402 -1.4802 -0.1321  0.9210
 1624SOL    HW211988   6.072   2.090   0.401  3.3129  1.8822 -0.4582
 1625SOL     OW11989   6.169   0.983   6.142 -0.2047  0.0450  0.5058
 1625SOL    HW111990   6.151   1.047   6.073 -2.7606  0.4225  1.3842
 1625SOL    HW211991   6.228   1.028   6.202  2.8044 -0.6042 -1.7586
 1626SOL     OW11992   5.745  12.748   6.295 -0.0085 -0.1349  0.1433
 1626SOL    HW111993   5.837  12.775   6.297 -0.0416 -0.0282  0.2842
 1626SOL    HW211994   5.745  12.665   6.247  0.3587 -0.9190  1.4588
 1627SOL     OW11995   1.223   6.219   8.290  0.2857 -0.2889  0.0185
 1627SOL    HW111996   1.130   6.202   8.271 -0.2401  2.2638 -0.0673
 1627SOL    HW211997   1.221   6.271   8.370  1.5798  0.4834 -0.4238
 1628SOL     OW11998   0.847   1.986   5.404 -0.3236  0.1908  0.1591
 1628SOL    HW111999   0.881   1.927   5.337 -0.0256  0.3207  0.1967
 1628SOL    HW212000   0.816   1.927   5.473  0.5294  0.0918  0.4651
 1629SOL     OW12001   7.811   6.783  10.317  0.3395 -0.2117  0.1584
 1629SOL    HW112002   7.793   6.770  10.224  1.2971 -1.8120  0.1600
 1629SOL    HW212003   7.730   6.757  10.361 -0.0908  0.4809 -0.2035
 1630SOL     OW12004   9.129   9.025   8.081 -0.1880  0.0878  0.0735
 1630SOL    HW112005   9.094   9.110   8.053 -2.4449 -0.2979  1.3979
 1630SOL    HW212006   9.136   8.974   8.000  1.3789  1.5324 -0.7704
 1631SOL     OW12007   3.019   5.531   1.421 -0.0684  0.4730 -0.2739
 1631SOL    HW112008   3.026   5.615   1.376 -0.3581  1.2523  1.0841
 1631SOL    HW212009   2.928   5.504   1.409  0.3807 -0.4171 -1.9805
 1632SOL     OW12010   8.009   7.796   8.771 -0.3022  0.0982  0.0554
 1632SOL    HW112011   8.058   7.716   8.750 -1.3787 -0.3471 -0.8894
 1632SOL    HW212012   7.987   7.834   8.686  1.5675  2.3249  0.4829
 1633SOL     OW12013   5.971   4.710   1.239  0.0429 -0.4668  0.6416
 1633SOL    HW112014   5.992   4.742   1.151 -1.3455  0.5930  0.6546
 1633SOL    HW212015   6.052   4.722   1.288  0.1279  1.3298  0.1408
 1634SOL     OW12016   5.830   5.669   8.896 -0.6839  0.3247  0.4546
 1634SOL    HW112017   5.833   5.651   8.802 -2.2104 -0.5361  0.5379
 1634SOL    HW212018   5.788   5.592   8.934 -0.1959  0.7105  1.8313
 1635SOL     OW12019   4.819   3.047  10.901 -0.2422 -0.1047 -0.1445
 1635SOL    HW112020   4.768   3.117  10.942  2.1751  2.3288 -1.0289
 1635SOL    HW212021   4.859   3.000  10.973  0.5240  1.4077  0.4662
 1636SOL     OW12022   0.022   4.069   5.956  0.0389  0.4793 -0.0523
 1636SOL    HW112023   0.099   4.018   5.934 -0.1081  0.2854 -0.1219
 1636SOL    HW212024  -0.011   4.101   5.872  0.9300  1.8710  0.0994
 1637SOL     OW12025   6.798   1.209   6.423  0.1544 -0.5337  0.0012
 1637SOL    HW112026   6.800   1.291   6.473  2.0538 -0.6799  0.2384
 1637SOL    HW212027   6.736   1.154   6.470 -1.1064  0.7153 -0.1119
 1638SOL     OW12028   8.046  11.907  10.006 -0.1491  0.0654 -0.7327
 1638SOL    HW112029   8.022  11.980   9.949  2.4463  0.8642 -0.9139
 1638SOL    HW212030   8.141  11.902  10.000 -0.1904 -3.1148 -0.4141
 1639SOL     OW12031   7.408   2.948   9.146 -0.5478  0.2455  0.4950
 1639SOL    HW112032   7.386   2.885   9.215  1.6684 -0.5682  0.5686
 1639SOL    HW212033   7.397   2.900   9.064  2.6274 -0.9136  0.6019
 1640SOL     OW12034  10.049  12.587   9.146  0.0289 -0.3061  0.2861
 1640SOL    HW112035   9.955  12.596   9.135 -0.3138 -2.6756  0.7989
 1640SOL    HW212036  10.065  12.606   9.239  0.0527  0.0439  0.2107
 1641SOL     OW12037   4.847   1.922   0.202  0.1021  0.0938 -0.2520
 1641SOL    HW112038   4.859   2.014   0.177 -1.1952  0.2880 -0.2287
 1641SOL    HW212039   4.918   1.876   0.158 -0.7173  0.7659 -2.3762
 1642SOL     OW12040   5.962   4.144   9.893 -0.0047  0.2816 -0.1601
 1642SOL    HW112041   6.049   4.144   9.934 -0.1978  0.4607  0.2532
 1642SOL    HW212042   5.965   4.219   9.833  0.8560 -0.9667 -1.7416
 1643SOL     OW12043   4.310   9.294   4.362  0.6225  0.1368 -0.2131
 1643SOL    HW112044   4.291   9.201   4.349  0.6445  0.2339 -1.0079
 1643SOL    HW212045   4.265   9.338   4.290  0.3356  0.7796  0.3484
 1644SOL     OW12046   4.563  11.476   0.562  0.1981 -0.9132  0.7591
 1644SOL    HW112047   4.642  11.432   0.593  0.2802 -1.4065 -0.1015
 1644SOL    HW212048   4.551  11.550   0.621  0.1531 -2.0017  2.1576
 1645SOL     OW12049   5.127  12.962   9.471 -0.0489 -0.0879  0.1345
 1645SOL    HW112050   5.062  12.999   9.531  0.5386 -0.4179  0.9990
 1645SOL    HW212051   5.182  13.036   9.447 -1.0547  0.3097 -1.0477
 1646SOL     OW12052   1.402   9.653  10.203 -0.5249  0.2210  0.2735
 1646SOL    HW112053   1.492   9.681  10.190  0.0850 -2.4900 -2.1971
 1646SOL    HW212054   1.350   9.711  10.147  0.1505 -0.3996 -1.0415
 1647SOL     OW12055  10.770   5.830   8.520  0.0834 -0.2281 -0.1563
 1647SOL    HW112056  10.821   5.845   8.600  2.2277  1.0085 -1.6353
 1647SOL    HW212057  10.730   5.744   8.532  1.6675 -0.7704  1.5985
 1648SOL     OW12058   7.311   6.404  12.712  0.0610 -0.3845  0.8458
 1648SOL    HW112059   7.282   6.358  12.633  0.4047  0.1355  0.4064
 1648SOL    HW212060   7.234   6.405  12.769 -0.4492 -0.0284  0.1676
 1649SOL     OW12061   0.577   2.830   5.914 -0.4388 -0.1614  0.2874
 1649SOL    HW112062   0.621   2.910   5.945 -0.2771 -0.1092 -0.0649
 1649SOL    HW212063   0.492   2.861   5.882 -0.0351  0.0089 -0.6529
 1650SOL     OW12064   8.759  11.018   8.611 -0.6276 -0.0333 -0.0539
 1650SOL    HW112065   8.785  10.928   8.634  1.6019  0.6686  0.4478
 1650SOL    HW212066   8.806  11.036   8.530 -0.2906  0.9879  0.3554
 1651SOL     OW12067  10.644   5.009   5.714  0.0691 -0.4504  0.6463
 1651SOL    HW112068  10.641   5.049   5.801  0.3023  0.5132  0.2255
 1651SOL    HW212069  10.614   5.078   5.654 -0.6660 -1.2822  0.0105
 1652SOL     OW12070   2.042   6.094   3.169  0.2608 -0.0333  0.5379
 1652SOL    HW112071   2.037   6.189   3.159  0.5796 -0.1063 -0.3348
 1652SOL    HW212072   1.953   6.063   3.155 -0.0990  0.2358  2.0485
 1653SOL     OW12073   9.845  11.638  10.227  0.2241 -0.8280 -0.1232
 1653SOL    HW112074   9.787  11.591  10.168  0.1976 -0.1775 -0.6276
 1653SOL    HW212075   9.892  11.570  10.274 -0.7615 -1.3668  0.1123
 1654SOL     OW12076   1.116   4.940   8.804 -0.1019 -0.2170 -0.1156
 1654SOL    HW112077   1.070   5.023   8.805 -2.1491 -1.0462  4.5471
 1654SOL    HW212078   1.051   4.877   8.772 -0.2864 -0.5810  0.9140
 1655SOL     OW12079  10.613   2.738   7.163 -0.2060  0.2244  0.3821
 1655SOL    HW112080  10.676   2.749   7.091 -0.5905  3.0428  0.3548
 1655SOL    HW212081  10.661   2.763   7.241 -0.5442 -0.2222  0.7345
 1656SOL     OW12082  12.324   1.903   3.995 -0.2219 -0.1461  0.0116
 1656SOL    HW112083  12.312   1.809   4.005  1.1225 -0.2221  1.1891
 1656SOL    HW212084  12.289   1.940   4.076  1.4649  0.1345  0.6462
 1657SOL     OW12085   1.241   4.448   1.461  0.4849  0.4127  0.2868
 1657SOL    HW112086   1.222   4.490   1.377 -1.5055  0.6832  0.8139
 1657SOL    HW212087   1.182   4.491   1.522  0.6892 -0.9533  1.4880
 1658SOL     OW12088   5.277   2.753  10.629 -0.2625  0.1988 -0.5231
 1658SOL    HW112089   5.275   2.722  10.720 -0.9638  0.3977 -0.4681
 1658SOL    HW212090   5.255   2.846  10.635 -2.1454 -0.1714 -1.0458
 1659SOL     OW12091   4.221   5.369  10.573  0.3498 -0.3413  0.2503
 1659SOL    HW112092   4.289   5.307  10.546  0.2215 -0.7142  0.7650
 1659SOL    HW212093   4.156   5.315  10.617 -0.3992 -0.0210 -0.4420
 1660SOL     OW12094   0.853   0.783   3.863  0.0395  0.1689  0.3929
 1660SOL    HW112095   0.877   0.711   3.805 -1.0518  0.1001  0.0058
 1660SOL    HW212096   0.882   0.862   3.815  0.9740  0.0248  0.6899
 1661SOL     OW12097   5.107   5.932   8.342 -0.0652  0.2101 -0.0452
 1661SOL    HW112098   5.141   5.863   8.398  0.7393 -0.3499 -1.2087
 1661SOL    HW212099   5.104   6.010   8.399  0.4167 -0.4173  0.8524
 1662SOL     OW12100   3.922   6.656  11.294  0.5181 -0.2986  0.6921
 1662SOL    HW112101   3.916   6.703  11.211 -1.1032  0.1671  1.0250
 1662SOL    HW212102   3.981   6.583  11.277  2.4386  1.3528 -0.0758
 1663SOL     OW12103   2.683   9.513   3.863 -0.7574  0.1958 -0.5327
 1663SOL    HW112104   2.717   9.530   3.776 -0.6699 -0.6320 -0.6657
 1663SOL    HW212105   2.621   9.585   3.879 -0.9859  0.2003 -1.3876
 1664SOL     OW12106   3.105   2.485  12.663  0.0335  0.1119  0.3480
 1664SOL    HW112107   3.039   2.551  12.682  0.3058  0.5075 -0.0700
 1664SOL    HW212108   3.063   2.402  12.686 -0.5432  0.3745  0.2527
 1665SOL     OW12109  11.377   6.778  12.634  0.1297 -0.0011 -0.1586
 1665SOL    HW112110  11.415   6.696  12.601  0.1001  0.4988 -1.4872
 1665SOL    HW212111  11.351   6.826  12.555 -0.2081  1.1253  0.6155
 1666SOL     OW12112   1.931  11.928  11.915 -0.6241 -0.4683 -0.0742
 1666SOL    HW112113   1.857  11.890  11.867  0.4675 -0.1357 -2.1500
 1666SOL    HW212114   1.983  11.972  11.848  0.8294  0.3464  1.5085
 1667SOL     OW12115   7.327  12.525   2.091  0.2643  0.4737  0.2792
 1667SOL    HW112116   7.371  12.536   2.007 -0.8760  0.0196 -0.4109
 1667SOL    HW212117   7.391  12.552   2.157  2.0436 -1.4533 -0.5773
 1668SOL     OW12118  12.683   9.364   6.712 -0.3203  0.0257  0.2335
 1668SOL    HW112119  12.699   9.283   6.761 -3.7121 -2.0287 -1.6748
 1668SOL    HW212120  12.754   9.367   6.647 -1.4509 -2.9820 -1.3519
 1669SOL     OW12121   3.349   0.854   2.382  0.3879 -0.0930  0.3122
 1669SOL    HW112122   3.381   0.768   2.355 -0.3953 -0.1576 -0.4638
 1669SOL    HW212123   3.335   0.901   2.300  1.9154  1.2203  0.7481
 1670SOL     OW12124   0.367  11.748   7.802  0.1221 -0.4862  0.1169
 1670SOL    HW112125   0.307  11.780   7.735  1.5826  3.2899  0.3695
 1670SOL    HW212126   0.328  11.776   7.885  1.3758  0.6708  0.3619
 1671SOL     OW12127   3.337   4.663   5.075  0.2930  0.3123  0.1042
 1671SOL    HW112128   3.243   4.644   5.076  0.2740  0.2424 -1.4606
 1671SOL    HW212129   3.376   4.588   5.120 -0.4772  1.0170  2.0606
 1672SOL     OW12130  11.234   0.583   7.080  0.2761  0.3102 -0.1752
 1672SOL    HW112131  11.163   0.528   7.113  0.8081 -0.2850  0.0098
 1672SOL    HW212132  11.314   0.538   7.108  0.7399  1.5639  0.6577
 1673SOL     OW12133   5.494   9.719  10.784  0.0580  0.6954 -0.0168
 1673SOL    HW112134   5.492   9.639  10.731 -1.4154  0.6777  0.0260
 1673SOL    HW212135   5.529   9.691  10.868 -1.5857 -0.2034  0.4115
 1674SOL     OW12136   3.302   2.044   5.120  0.0308 -0.0968 -0.2391
 1674SOL    HW112137   3.362   2.014   5.188  0.7399  2.4851  0.3895
 1674SOL    HW212138   3.359   2.082   5.053 -0.7683 -0.6075 -1.2302
 1675SOL     OW12139   8.391  10.638   5.837 -0.5610  0.4398 -0.0543
 1675SOL    HW112140   8.307  10.593   5.828  0.0390 -0.5124 -1.1210
 1675SOL    HW212141   8.370  10.731   5.829 -1.6123  0.2631  0.5195
 1676SOL     OW12142   3.429   6.757   3.083  0.2563 -0.1756  0.3970
 1676SOL    HW112143   3.460   6.670   3.058 -1.0629 -0.2541 -1.0835
 1676SOL    HW212144   3.334   6.752   3.073  0.3023  2.1690 -2.2942
 1677SOL     OW12145  11.202  11.763   9.890  0.0375 -0.4540  0.3252
 1677SOL    HW112146  11.229  11.796   9.976 -0.9282  0.1725  0.4060
 1677SOL    HW212147  11.153  11.683   9.909 -1.8320  0.6779  0.5616
 1678SOL     OW12148  12.532   1.228   4.044 -0.0995 -0.1331  0.1207
 1678SOL    HW112149  12.591   1.153   4.047 -1.4637 -1.2511  0.0091
 1678SOL    HW212150  12.589   1.304   4.055  1.4537 -1.1084 -0.7850
 1679SOL     OW12151   0.265  12.575   4.601 -0.2348  0.1329 -0.3007
 1679SOL    HW112152   0.258  12.591   4.695  1.2329 -0.1051 -0.1307
 1679SOL    HW212153   0.279  12.480   4.594  0.5612  0.2761 -0.6941
 1680SOL     OW12154  11.363  11.514   0.286 -0.5732  0.5759  0.5020
 1680SOL    HW112155  11.373  11.421   0.304  0.0319  0.7552  1.1168
 1680SOL    HW212156  11.281  11.520   0.237  0.8617 -0.6264 -2.2899
 1681SOL     OW12157   2.537   6.000   8.211 -0.8151  0.3701  0.6457
 1681SOL    HW112158   2.599   6.054   8.162 -3.0573  2.5929  0.0141
 1681SOL    HW212159   2.524   5.922   8.157 -1.1464  1.4919 -0.9707
 1682SOL     OW12160  11.763   5.854  10.793 -0.4692  0.0812 -0.0043
 1682SOL    HW112161  11.736   5.908  10.720  0.5707 -1.0356 -1.2741
 1682SOL    HW212162  11.780   5.768  10.754  1.7545 -0.1163  1.1947
 1683SOL     OW12163   2.066  12.136   6.307  0.5056  0.1725 -0.1628
 1683SOL    HW112164   2.070  12.069   6.374 -1.2173 -1.1653 -1.3129
 1683SOL    HW212165   2.002  12.200   6.340  0.0329 -0.2273 -0.2928
 1684SOL     OW12166   3.133   7.694   9.652  0.1370 -0.7985  0.3938
 1684SOL    HW112167   3.189   7.617   9.642 -1.0264 -1.5898 -0.1723
 1684SOL    HW212168   3.117   7.724   9.562 -0.1317 -0.4114  0.5690
 1685SOL     OW12169   9.039   5.405   5.433  0.1252  0.0468  0.0294
 1685SOL    HW112170   9.057   5.400   5.340 -2.3559  0.1675 -0.5429
 1685SOL    HW212171   9.047   5.315   5.464 -2.1717 -0.6070 -1.0490
 1686SOL     OW12172   9.877   6.694   3.312 -0.1077  0.3877 -0.4253
 1686SOL    HW112173   9.781   6.686   3.315  0.0466 -1.6689  0.4909
 1686SOL    HW212174   9.902   6.714   3.402  0.3067  1.8696 -0.8352
 1687SOL     OW12175  10.982   6.346  12.430  0.6382 -0.2406 -0.4744
 1687SOL    HW112176  11.001   6.421  12.486  0.7715  1.0082 -2.0984
 1687SOL    HW212177  10.928   6.288  12.484 -1.0421  1.8875  0.2778
 1688SOL     OW12178   5.134   9.347   1.543 -0.0324 -0.0629  0.1704
 1688SOL    HW112179   5.132   9.309   1.455  0.4920  2.6932 -1.1279
 1688SOL    HW212180   5.083   9.427   1.535  0.7033  0.6510  2.1932
 1689SOL     OW12181   7.559  10.239   5.848 -0.6468  0.0451  0.1182
 1689SOL    HW112182   7.615  10.285   5.911 -1.7957  0.7256  0.6729
 1689SOL    HW212183   7.476  10.226   5.895 -1.0976 -0.5711 -0.8221
 1690SOL     OW12184  10.188   5.044   5.294 -1.0367  0.1048  0.5725
 1690SOL    HW112185  10.153   5.082   5.375 -4.4947 -1.6149  0.0764
 1690SOL    HW212186  10.163   5.106   5.226  1.4698  1.3184  0.6250
 1691SOL     OW12187   5.902  10.652   5.477 -0.6042 -0.5117 -0.5286
 1691SOL    HW112188   5.815  10.645   5.514 -1.4296  2.2387 -1.6942
 1691SOL    HW212189   5.935  10.736   5.509  1.5736 -1.3951 -0.2770
 1692SOL     OW12190   8.675   7.010   4.450  0.1097  0.2871  0.0949
 1692SOL    HW112191   8.666   6.959   4.369  1.5104 -1.3748  0.9191
 1692SOL    HW212192   8.696   7.098   4.420  0.2897 -0.2195 -1.3760
 1693SOL     OW12193   8.521   6.326  10.399 -0.1975 -0.4582 -0.1619
 1693SOL    HW112194   8.426   6.327  10.411 -0.2070 -1.2132 -0.1731
 1693SOL    HW212195   8.551   6.405  10.445 -0.9861  0.7538 -1.6102
 1694SOL     OW12196   2.194  12.345   0.733 -0.2923  0.0386  0.2111
 1694SOL    HW112197   2.111  12.374   0.694  0.2609  1.2738 -0.0839
 1694SOL    HW212198   2.260  12.404   0.696  0.6370 -0.5233  0.9321
 1695SOL     OW12199   5.673   4.100   9.293 -0.4089 -0.0813  0.1012
 1695SOL    HW112200   5.650   4.021   9.343 -1.0887 -0.1774 -0.3653
 1695SOL    HW212201   5.702   4.066   9.208 -2.0640  0.2392 -0.6123
 1696SOL     OW12202  12.761   6.376   9.218  0.4585  0.2735 -0.0734
 1696SOL    HW112203  12.723   6.460   9.194  1.9889  1.3510  1.0803
 1696SOL    HW212204  12.801   6.391   9.304  0.5534 -1.7093  0.2779
 1697SOL     OW12205   2.706   3.230   4.740 -0.0312  0.3358 -0.3986
 1697SOL    HW112206   2.698   3.207   4.833 -0.6983  0.3495 -0.4482
 1697SOL    HW212207   2.644   3.172   4.696 -0.9063  1.4228 -0.6506
 1698SOL     OW12208   5.749   8.933  11.015  0.2215  0.1550 -0.2451
 1698SOL    HW112209   5.694   8.871  10.968 -0.9508  0.8838  0.1145
 1698SOL    HW212210   5.694   9.011  11.026  1.2057  0.7892  0.4409
 1699SOL     OW12211   7.235   5.548  10.597  0.1553 -0.3000 -0.3774
 1699SOL    HW112212   7.214   5.634  10.561  1.3057  0.2757  0.2332
 1699SOL    HW212213   7.284   5.504  10.528 -1.8954 -1.1805 -1.3483
 1700SOL     OW12214   0.410  11.749  10.818  0.0743  0.5199 -0.2377
 1700SOL    HW112215   0.352  11.812  10.774 -1.2644 -0.5609 -0.0728
 1700SOL    HW212216   0.455  11.801  10.884  0.2207  1.6396 -1.1720
 1701SOL     OW12217   4.851   2.563   4.657 -0.3156  0.5462  0.1383
 1701SOL    HW112218   4.765   2.530   4.685  0.2376  0.4869  1.8659
 1701SOL    HW212219   4.878   2.503   4.588  0.0544 -1.9420  2.2586
 1702SOL     OW12220   9.683   8.519  11.696  0.5454 -0.1627  0.6766
 1702SOL    HW112221   9.615   8.518  11.629  1.1071  0.3249  0.0794
 1702SOL    HW212222   9.765   8.521  11.647  0.9590  1.6464  1.3300
 1703SOL     OW12223   1.381   5.912  12.659 -0.2026 -0.1388 -0.0286
 1703SOL    HW112224   1.378   5.833  12.712  0.2886  0.3489  0.7453
 1703SOL    HW212225   1.471   5.915  12.625  0.9287  1.8111  2.7227
 1704SOL     OW12226  12.728   2.090   6.895  0.2104  0.0444 -0.0761
 1704SOL    HW112227  12.764   2.114   6.809  0.0725  1.2961  0.1976
 1704SOL    HW212228  12.770   2.006   6.915  0.1294 -0.3549 -1.4238
 1705SOL     OW12229   5.081   1.472   2.184  0.4001  0.1328  0.3842
 1705SOL    HW112230   5.110   1.382   2.171 -1.5634 -0.5677  0.4278
 1705SOL    HW212231   5.004   1.464   2.242  0.0359  1.8106  0.1928
 1706SOL     OW12232  10.103   6.229   8.516  0.1067  0.0548  0.3870
 1706SOL    HW112233  10.174   6.168   8.491 -0.4135 -0.6324  0.5503
 1706SOL    HW212234  10.042   6.225   8.443  0.0503  0.3563  0.4197
 1707SOL     OW12235   2.525   6.238   5.759  0.6686 -0.6469 -0.3078
 1707SOL    HW112236   2.536   6.330   5.736 -1.6713  0.1750  1.4576
 1707SOL    HW212237   2.517   6.193   5.675 -0.7588  1.1682 -1.2256
 1708SOL     OW12238   4.165   5.967  12.324  0.1953  0.0876 -0.2208
 1708SOL    HW112239   4.070   5.960  12.317  0.1169 -0.3388  0.9399
 1708SOL    HW212240   4.190   5.896  12.384  1.3432 -0.3435 -1.1591
 1709SOL     OW12241   2.825   9.936   8.265 -0.2749  0.8833  0.0889
 1709SOL    HW112242   2.824   9.997   8.339 -0.7715  1.6144 -0.5068
 1709SOL    HW212243   2.909   9.951   8.222  0.3816 -0.1285  0.9555
 1710SOL     OW12244   8.573   9.908   6.109  0.1913 -0.7529  0.6158
 1710SOL    HW112245   8.478   9.908   6.098  0.1051 -1.4779  1.2591
 1710SOL    HW212246   8.601   9.827   6.066  0.5243 -0.5162  0.3857
 1711SOL     OW12247   6.364   5.726   2.707  0.2130  0.4348 -0.0901
 1711SOL    HW112248   6.410   5.689   2.632 -0.0681 -0.4500  0.1615
 1711SOL    HW212249   6.432   5.772   2.756  1.4011 -2.6607  1.4449
 1712SOL     OW12250  11.709  11.666   2.389 -0.0064  0.2610  0.0506
 1712SOL    HW112251  11.715  11.721   2.311  1.1671  0.5361  0.3237
 1712SOL    HW212252  11.746  11.719   2.459 -1.2320  0.0942  0.8527
 1713SOL     OW12253   6.234   9.749   2.135  0.5337  0.3948  0.0575
 1713SOL    HW112254   6.296   9.779   2.201 -0.4478  0.5697  0.9442
 1713SOL    HW212255   6.148   9.762   2.176 -0.0064 -2.2408 -0.0535
 1714SOL     OW12256   2.921   2.146   7.260  0.1247  0.2472 -1.0844
 1714SOL    HW112257   2.996   2.204   7.247 -0.0812  0.6657 -0.4809
 1714SOL    HW212258   2.929   2.117   7.351 -0.5999  0.5381 -0.9171
 1715SOL     OW12259   8.345  11.070   6.050 -0.0821  0.5301  0.1756
 1715SOL    HW112260   8.348  11.165   6.040  1.6400  0.4539 -0.2103
 1715SOL    HW212261   8.389  11.053   6.133 -0.8610  0.0844  0.5114
 1716SOL     OW12262   4.034  12.210   5.324 -0.3540 -0.0801  0.0430
 1716SOL    HW112263   3.946  12.176   5.339 -0.1275 -0.9508 -0.5639
 1716SOL    HW212264   4.020  12.291   5.274 -0.7998 -0.3113 -0.2083
 1717SOL     OW12265   4.085  12.695  12.646 -0.2825  0.0951 -0.2311
 1717SOL    HW112266   4.014  12.755  12.622 -0.3944 -0.1637 -0.5557
 1717SOL    HW212267   4.076  12.623  12.584  0.2503  0.0502 -0.2571
 1718SOL     OW12268   2.805   9.320   3.048 -0.2042 -0.2351  0.0683
 1718SOL    HW112269   2.867   9.343   2.979 -0.7943  0.5529 -0.2061
 1718SOL    HW212270   2.799   9.399   3.102 -1.5504 -0.0398 -0.3529
 1719SOL     OW12271   2.882   8.995   8.494  0.3569  0.4193  0.4255
 1719SOL    HW112272   2.885   9.012   8.588 -1.2051  0.5093  0.4860
 1719SOL    HW212273   2.860   9.080   8.456  0.8083  0.3440 -0.0029
 1720SOL     OW12274   2.635   5.518   5.683 -0.5317 -0.4206 -0.2458
 1720SOL    HW112275   2.644   5.590   5.621 -2.0711  0.8434  0.8947
 1720SOL    HW212276   2.599   5.446   5.632 -0.8107  0.2616 -1.0280
 1721SOL     OW12277   5.852   3.999   5.244  0.1507 -0.1127  0.5773
 1721SOL    HW112278   5.800   4.039   5.174 -0.3088 -0.6219  0.6212
 1721SOL    HW212279   5.801   4.014   5.324 -0.7815 -2.0029  0.4174
 1722SOL     OW12280  12.623  10.803   5.642  0.3765  0.4196 -0.2869
 1722SOL    HW112281  12.575  10.881   5.615  1.0998  1.2657  0.7989
 1722SOL    HW212282  12.714  10.831   5.649  0.9086 -0.9213 -1.3909
 1723SOL     OW12283   0.640  10.541   1.490  0.0958 -0.4348  0.0067
 1723SOL    HW112284   0.591  10.527   1.571  1.4542  1.0703  1.1622
 1723SOL    HW212285   0.580  10.516   1.421 -1.3347 -1.1815  1.4548
 1724SOL     OW12286   1.840   2.201   7.276 -0.0355  0.5778  0.1517
 1724SOL    HW112287   1.872   2.210   7.186 -0.4309 -1.4227 -0.2226
 1724SOL    HW212288   1.887   2.270   7.324  0.5575  1.3668 -1.4651
 1725SOL     OW12289   7.499  10.181   0.108  0.3467 -0.1483  0.1778
 1725SOL    HW112290   7.457  10.128   0.041  0.5462  0.9797 -0.8630
 1725SOL    HW212291   7.449  10.262   0.111  0.9470  0.2210  0.6833
 1726SOL     OW12292   5.774   8.624   2.196 -0.0232  0.3055  0.1925
 1726SOL    HW112293   5.819   8.665   2.270 -0.0428 -0.5000  0.6628
 1726SOL    HW212294   5.833   8.554   2.169 -1.2124 -1.1446  1.1868
 1727SOL     OW12295  10.847   2.763   8.231  0.2324  0.1259  0.2551
 1727SOL    HW112296  10.885   2.844   8.265  0.4428 -0.2581  0.9570
 1727SOL    HW212297  10.917   2.724   8.178  1.1347 -0.9328  2.1115
 1728SOL     OW12298   4.930   5.478   0.103  0.3860  0.3240  0.2515
 1728SOL    HW112299   4.866   5.504   0.037  1.9929  2.4355 -0.5886
 1728SOL    HW212300   4.904   5.525   0.183 -1.1952 -1.7487  1.0544
 1729SOL     OW12301   9.910   0.948   6.762  0.0694 -0.1044 -0.2685
 1729SOL    HW112302  10.005   0.948   6.756  0.0134 -1.0969 -1.8538
 1729SOL    HW212303   9.881   0.978   6.676 -1.0196 -2.1901 -0.7082
 1730SOL     OW12304  12.101   6.958   0.721 -0.2153  0.3122  0.3184
 1730SOL    HW112305  12.177   6.900   0.715 -0.1470  0.2332  1.6761
 1730SOL    HW212306  12.026   6.899   0.729 -0.4072  0.3969 -0.6786
 1731SOL     OW12307   8.594   2.695  11.366  0.4258  0.1748  0.0353
 1731SOL    HW112308   8.535   2.681  11.440  0.3438 -1.4546 -0.2991
 1731SOL    HW212309   8.680   2.710  11.406  0.1479  0.5845  0.4813
 1732SOL     OW12310   9.806   4.051   3.158 -0.2377  0.4946  0.2042
 1732SOL    HW112311   9.749   3.999   3.215  1.2380 -0.4760  0.8396
 1732SOL    HW212312   9.801   4.140   3.194  0.6668 -0.1000  1.8808
 1733SOL     OW12313   7.506   3.261   5.412  0.0182  0.6591 -0.5319
 1733SOL    HW112314   7.470   3.298   5.331 -2.5121  0.8557  0.5789
 1733SOL    HW212315   7.555   3.334   5.452 -1.2483  1.5127 -0.4724
 1734SOL     OW12316   2.021   9.011   1.555 -0.5882  0.2471  0.2463
 1734SOL    HW112317   1.983   8.926   1.536 -1.0539  1.0830 -3.2042
 1734SOL    HW212318   1.966   9.047   1.625 -1.9673 -1.2374 -0.0297
 1735SOL     OW12319  12.300   2.642   9.092 -0.0937 -0.0862 -0.3417
 1735SOL    HW112320  12.367   2.575   9.107  0.5224  0.2617 -1.3764
 1735SOL    HW212321  12.217   2.596   9.099  0.2929 -0.7755 -0.1995
 1736SOL     OW12322   0.549   6.685   2.062 -0.0690 -0.3321  0.1634
 1736SOL    HW112323   0.475   6.735   2.027 -1.2503 -0.0323  2.8272
 1736SOL    HW212324   0.509   6.619   2.119  1.6712 -0.6899  1.0463
 1737SOL     OW12325  10.445   1.023   6.342 -0.0362 -0.1485 -0.6209
 1737SOL    HW112326  10.482   0.969   6.272 -1.3362 -0.2399 -1.2607
 1737SOL    HW212327  10.393   0.963   6.394 -0.1003  0.1599 -0.3269
 1738SOL     OW12328   5.934   3.801   0.411  0.0631  0.1867 -0.1339
 1738SOL    HW112329   5.910   3.849   0.490 -2.0184 -1.0420  0.0669
 1738SOL    HW212330   6.012   3.751   0.435 -0.9649 -0.7446  1.4301
 1739SOL     OW12331   0.512   2.967   1.862 -0.1989  0.0571 -0.0574
 1739SOL    HW112332   0.518   2.897   1.927  0.4450 -1.0015 -1.2029
 1739SOL    HW212333   0.571   2.939   1.792 -1.6164  0.6502 -1.5503
 1740SOL     OW12334   4.715   3.536  11.619 -0.0903 -0.0257  0.1829
 1740SOL    HW112335   4.773   3.569  11.687 -0.4129 -1.9370  1.4461
 1740SOL    HW212336   4.627   3.560  11.648 -0.1950 -0.4111  0.1855
 1741SOL     OW12337   4.675   4.087   9.073  0.2563  0.2092  0.5349
 1741SOL    HW112338   4.697   4.161   9.129  2.1860  1.3308 -1.5611
 1741SOL    HW212339   4.581   4.097   9.057 -0.0876  0.5442  2.5250
 1742SOL     OW12340   3.865   5.633   0.214 -0.1668  0.2964  0.1847
 1742SOL    HW112341   3.907   5.705   0.167 -0.5787 -0.4199 -1.3455
 1742SOL    HW212342   3.793   5.605   0.157 -0.1272 -1.2112  0.8156
 1743SOL     OW12343   5.002   1.176   8.775  0.1278 -0.6604  0.6673
 1743SOL    HW112344   5.036   1.155   8.862  0.9380 -1.4353  0.1697
 1743SOL    HW212345   5.073   1.226   8.734 -0.4588  0.1575  0.6264
 1744SOL     OW12346   6.646   0.231   7.470  0.3124 -0.7391  0.0576
 1744SOL    HW112347   6.588   0.256   7.542  0.8063  0.5718  0.0340
 1744SOL    HW212348   6.596   0.254   7.391  0.4588 -0.5367  0.0221
 1745SOL     OW12349  10.955  12.855   7.558  0.5319 -0.0499 -0.7025
 1745SOL    HW112350  10.892  12.913   7.602  0.1423 -0.3404 -0.8635
 1745SOL    HW212351  11.041  12.887   7.585  0.3385  0.9630 -1.2689
 1746SOL     OW12352   9.667   3.154  12.102 -0.4756  0.3757  0.4183
 1746SOL    HW112353   9.736   3.128  12.041 -1.0755  2.0954 -1.1026
 1746SOL    HW212354   9.709   3.220  12.158 -0.3144 -0.1607  0.9374
 1747SOL     OW12355   9.931   6.603  12.152  0.7638  0.5749 -0.3403
 1747SOL    HW112356   9.908   6.543  12.081  0.5357 -2.9079  2.3993
 1747SOL    HW212357  10.026   6.603  12.154  0.7942  1.3823 -1.1172
 1748SOL     OW12358   1.379   3.111   0.255  0.3247 -0.1899  0.3790
 1748SOL    HW112359   1.467   3.091   0.221 -0.0495 -0.7311 -0.2985
 1748SOL    HW212360   1.381   3.079   0.346  0.9039  0.0381  0.4537
 1749SOL     OW12361  12.281  10.532   6.518  0.0992 -0.4900  0.1702
 1749SOL    HW112362  12.282  10.587   6.440 -0.3176  1.0269  1.1932
 1749SOL    HW212363  12.352  10.469   6.504  0.2680 -0.0136 -1.2545
 1750SOL     OW12364   0.190   3.304   6.545  0.1903 -0.0709  0.0251
 1750SOL    HW112365   0.180   3.390   6.505  2.4108  0.1767 -0.0850
 1750SOL    HW212366   0.282   3.282   6.533 -0.2005 -2.2261  0.5586
 1751SOL     OW12367   7.226   6.994   7.208 -0.0279  0.0901  0.1055
 1751SOL    HW112368   7.178   6.920   7.244 -0.4639  0.2643 -0.1067
 1751SOL    HW212369   7.285   7.021   7.279  0.0735 -0.4011  0.2114
 1752SOL     OW12370   9.430   7.299   8.146 -0.4227 -0.1641 -0.2386
 1752SOL    HW112371   9.397   7.385   8.118  1.4073  0.0727 -1.9128
 1752SOL    HW212372   9.472   7.316   8.231  0.7350  0.8487 -0.9719
 1753SOL     OW12373   6.070   0.788   7.420 -0.1391  0.0817 -0.1916
 1753SOL    HW112374   6.124   0.771   7.497  0.5745 -1.3424 -0.9772
 1753SOL    HW212375   6.109   0.866   7.381 -1.3501  1.6769  1.5855
 1754SOL     OW12376   8.501   6.808   8.858  0.4214 -0.1778  0.1261
 1754SOL    HW112377   8.457   6.858   8.927  0.2261 -1.1716  0.7437
 1754SOL    HW212378   8.435   6.746   8.827  0.2596  0.7634 -1.5201
 1755SOL     OW12379   8.278   0.675   3.249 -0.4285  0.3463  0.2682
 1755SOL    HW112380   8.315   0.745   3.196 -1.4029 -0.6360 -1.8062
 1755SOL    HW212381   8.350   0.647   3.306  0.2528  2.3273  0.4337
 1756SOL     OW12382   7.398  11.773   3.996  0.4695 -0.1451  0.3886
 1756SOL    HW112383   7.379  11.830   4.071  1.3287  0.3849  0.2121
 1756SOL    HW212384   7.314  11.732   3.976 -0.3173  1.4979  0.1526
 1757SOL     OW12385  11.509   2.022   2.842 -0.0725 -0.1484 -0.0055
 1757SOL    HW112386  11.449   2.079   2.793 -0.9681 -1.3488 -0.3590
 1757SOL    HW212387  11.537   2.076   2.916 -0.4504  0.9410 -0.6264
 1758SOL     OW12388   9.399   7.555   2.660 -0.4752 -0.5712 -0.0894
 1758SOL    HW112389   9.381   7.539   2.753 -1.8664 -0.4114 -0.3199
 1758SOL    HW212390   9.384   7.471   2.618  1.7475 -1.0869  0.0096
 1759SOL     OW12391   6.856   2.582  12.142 -0.8173  0.4984 -0.0299
 1759SOL    HW112392   6.863   2.598  12.236 -1.4679 -0.0838  0.1249
 1759SOL    HW212393   6.856   2.669  12.103 -1.4617  0.7785  0.5740
 1760SOL     OW12394  11.833  11.377   5.530  0.2716 -0.0682  0.1640
 1760SOL    HW112395  11.888  11.356   5.455  1.3285  0.3921  0.7855
 1760SOL    HW212396  11.891  11.424   5.590 -0.5738 -0.3471  1.2330
 1761SOL     OW12397  11.436   4.104   4.322  0.1812 -0.6953 -0.3479
 1761SOL    HW112398  11.491   4.165   4.371  1.0571 -1.1597 -0.7071
 1761SOL    HW212399  11.499   4.054   4.269 -0.7396 -0.0221 -2.1562
 1762SOL     OW12400   7.748   4.340   5.307 -0.4439 -0.0945  0.2536
 1762SOL    HW112401   7.741   4.414   5.247 -2.6244 -1.8063 -1.8382
 1762SOL    HW212402   7.668   4.345   5.360 -0.2955 -0.5885  0.5256
 1763SOL     OW12403   8.882   4.254   6.001 -0.0783 -0.0812 -0.2235
 1763SOL    HW112404   8.892   4.318   5.931 -0.3525  0.3156  0.1007
 1763SOL    HW212405   8.883   4.305   6.082  0.4504 -0.5580  0.0785
 1764SOL     OW12406  12.250  11.780   6.187 -0.3955  0.0987  0.1295
 1764SOL    HW112407  12.314  11.850   6.171  1.3906 -1.5237 -0.2365
 1764SOL    HW212408  12.252  11.768   6.282 -0.9907  0.7592  0.2372
 1765SOL     OW12409   2.361  11.116   3.520 -0.1053  0.4941  0.2144
 1765SOL    HW112410   2.285  11.063   3.546  1.3832 -2.8447 -1.6131
 1765SOL    HW212411   2.434  11.079   3.569  1.2558 -0.3491 -2.2695
 1766SOL     OW12412   7.091   7.544   0.401 -0.1376  0.0536  0.0982
 1766SOL    HW112413   7.064   7.557   0.492 -2.0793 -1.6202 -0.1579
 1766SOL    HW212414   7.135   7.459   0.401  3.3808  1.7199  0.0653
 1767SOL     OW12415   6.763   6.082   3.833  0.2196 -0.2338 -0.2883
 1767SOL    HW112416   6.763   6.066   3.928 -2.3408 -1.6492 -0.4511
 1767SOL    HW212417   6.757   6.177   3.826 -1.6823 -0.1782  1.0798
 1768SOL     OW12418   4.117   9.783   1.194  0.5870 -0.6699 -0.4325
 1768SOL    HW112419   4.053   9.717   1.169 -0.4534  0.4531 -0.8363
 1768SOL    HW212420   4.103   9.795   1.288  1.5765 -1.8242 -0.1113
 1769SOL     OW12421   2.761   7.966   4.532 -0.2591 -0.1796 -0.2813
 1769SOL    HW112422   2.758   7.905   4.606 -0.1285 -1.1285 -1.0456
 1769SOL    HW212423   2.681   7.949   4.483 -1.1761  1.6062  0.5130
 1770SOL     OW12424   7.378   7.875   4.753 -0.5480  0.3109  0.3413
 1770SOL    HW112425   7.454   7.817   4.744  0.5051  1.3806  1.7483
 1770SOL    HW212426   7.400   7.952   4.700 -1.7632 -0.3701 -1.2093
 1771SOL     OW12427   0.117   8.305   1.175 -0.0194  0.2894 -0.2025
 1771SOL    HW112428   0.026   8.322   1.199  0.0016  0.9266 -0.5328
 1771SOL    HW212429   0.113   8.234   1.111 -0.2133 -0.2339  0.3840
 1772SOL     OW12430  10.005   4.870   3.357  0.3861 -0.2809  0.4534
 1772SOL    HW112431  10.082   4.815   3.369  0.6435  0.1491  0.8064
 1772SOL    HW212432   9.977   4.852   3.267  1.5546  0.3821 -0.0683
 1773SOL     OW12433  10.892   7.623   1.696 -0.6741 -0.0836  0.2692
 1773SOL    HW112434  10.984   7.646   1.692 -0.9844  1.6977  1.5503
 1773SOL    HW212435  10.890   7.528   1.693  1.0691 -0.1253 -1.3343
 1774SOL     OW12436   3.053   2.910   2.708  0.1637 -0.4850 -0.4915
 1774SOL    HW112437   3.029   2.918   2.801  1.5139  0.7379 -0.2022
 1774SOL    HW212438   3.038   2.997   2.672 -0.4703 -0.9920 -1.4759
 1775SOL     OW12439  12.016   1.913   8.707 -0.4316 -0.1103 -0.4215
 1775SOL    HW112440  12.098   1.886   8.664 -0.5194  0.0149 -0.6678
 1775SOL    HW212441  11.952   1.848   8.679  0.3117 -2.4074  2.5823
 1776SOL     OW12442   9.432   4.928   4.256 -0.0275 -0.1096 -0.4721
 1776SOL    HW112443   9.496   4.932   4.327 -1.2960 -0.7175  0.7662
 1776SOL    HW212444   9.477   4.883   4.185  0.2059 -2.7288  1.2185
 1777SOL     OW12445   5.245   6.299  10.791  0.4050  0.1758 -0.0661
 1777SOL    HW112446   5.327   6.275  10.747  0.5378  0.5554 -0.0317
 1777SOL    HW212447   5.208   6.368  10.736 -0.9400 -1.4047 -1.2246
 1778SOL     OW12448   2.809   5.742   2.398 -0.1772 -0.7628  0.0177
 1778SOL    HW112449   2.714   5.736   2.390 -0.2085 -0.5593  0.2529
 1778SOL    HW212450   2.828   5.713   2.488  0.1121 -2.2959 -0.5035
 1779SOL     OW12451  10.868   2.855   1.993  0.6199 -0.1927 -0.3551
 1779SOL    HW112452  10.914   2.805   2.061  1.1460  1.0482  0.2478
 1779SOL    HW212453  10.837   2.934   2.038 -1.8501 -0.8034 -0.8258
 1780SOL     OW12454   0.858   2.884   3.628  0.6785 -0.6917 -0.4692
 1780SOL    HW112455   0.861   2.908   3.720  0.4134 -0.5283 -0.5016
 1780SOL    HW212456   0.765   2.875   3.608  0.7829 -2.1678 -0.3572
 1781SOL     OW12457   4.477   7.377  12.566  0.2115  0.2895  0.5947
 1781SOL    HW112458   4.465   7.469  12.590  0.0337  0.2867  0.5184
 1781SOL    HW212459   4.390   7.338  12.577  0.4865 -0.0826  1.5463
 1782SOL     OW12460   0.306   1.511   1.489 -0.5540 -0.1535 -0.7829
 1782SOL    HW112461   0.332   1.427   1.452 -0.7252 -0.0997 -1.0207
 1782SOL    HW212462   0.319   1.574   1.419 -0.0887  0.0761 -0.4956
 1783SOL     OW12463  12.544   9.967  11.221 -0.4338 -0.2557  0.2690
 1783SOL    HW112464  12.554   9.898  11.156  0.0775  1.4554 -1.5697
 1783SOL    HW212465  12.508   9.923  11.298 -2.5163 -2.1165 -1.6513
 1784SOL     OW12466   5.759   9.257   5.255  0.2959  0.5263  0.0657
 1784SOL    HW112467   5.752   9.212   5.171 -1.3530 -0.7509  0.8231
 1784SOL    HW212468   5.756   9.186   5.320  0.7944  1.5301  1.2279
 1785SOL     OW12469  10.741   3.638   7.629  0.5578 -0.9833  0.2039
 1785SOL    HW112470  10.775   3.616   7.543 -1.1849 -0.3959 -0.6892
 1785SOL    HW212471  10.802   3.704   7.663 -0.4583  1.2970 -2.0461
 1786SOL     OW12472   9.232   4.751   4.287 -0.0620 -0.0446  0.2591
 1786SOL    HW112473   9.293   4.824   4.294 -1.1457  0.8517  0.5609
 1786SOL    HW212474   9.187   4.766   4.203 -1.4543  0.5850  1.0882
 1787SOL     OW12475   3.655   0.851  11.082 -0.0895  0.1927  0.2347
 1787SOL    HW112476   3.586   0.853  11.016  0.5712  0.6621 -0.4638
 1787SOL    HW212477   3.621   0.905  11.153 -0.6360  0.0317  0.1029
 1788SOL     OW12478   1.222   1.588   6.255  0.3332 -0.4148 -0.5436
 1788SOL    HW112479   1.244   1.663   6.309  1.7077  0.9377 -2.7844
 1788SOL    HW212480   1.301   1.572   6.203 -1.0754 -1.1085 -2.6509
 1789SOL     OW12481  10.335   4.021   4.099 -0.1367  0.1358  0.2085
 1789SOL    HW112482  10.398   4.021   4.171  2.2453 -1.0645 -1.7326
 1789SOL    HW212483  10.294   3.935   4.103 -1.1364  0.6180  0.9685
 1790SOL     OW12484   6.598  10.617   1.894  0.1849 -0.1284  0.2163
 1790SOL    HW112485   6.599  10.546   1.958 -0.5515 -0.3523 -0.0199
 1790SOL    HW212486   6.527  10.674   1.922  0.5670  0.3551  0.2196
 1791SOL     OW12487   0.061   8.242   3.973 -0.2422 -0.2262 -0.6827
 1791SOL    HW112488   0.135   8.223   4.031  0.0769 -1.3644 -1.4282
 1791SOL    HW212489   0.028   8.326   4.004  0.7310 -0.1778  0.3110
 1792SOL     OW12490   8.621   8.199   3.460  0.4552  0.0273 -0.3604
 1792SOL    HW112491   8.633   8.155   3.544 -0.8800 -0.5281 -0.4404
 1792SOL    HW212492   8.535   8.171   3.430  1.0356 -0.0338 -2.0803
 1793SOL     OW12493   5.144   6.191   5.992  0.5893  0.1189  0.0145
 1793SOL    HW112494   5.156   6.250   6.067  0.6857 -0.8849  0.7978
 1793SOL    HW212495   5.089   6.242   5.932  0.6459  1.0075  0.6778
 1794SOL     OW12496   6.230   1.280   9.368  0.0791 -0.2918 -0.0303
 1794SOL    HW112497   6.321   1.305   9.355 -0.0752  1.2194  1.4790
 1794SOL    HW212498   6.200   1.252   9.282  1.1599  1.9207 -1.2007
 1795SOL     OW12499   7.311  10.044   4.511  0.4035  0.0128 -0.3867
 1795SOL    HW112500   7.361  10.038   4.592 -0.0753 -1.0404 -0.1545
 1795SOL    HW212501   7.241  10.106   4.530  0.1684 -0.3896  0.0873
 1796SOL     OW12502   6.140  11.868   7.474 -0.0315 -0.2421  0.3183
 1796SOL    HW112503   6.080  11.938   7.500 -0.5918 -0.6836  0.2367
 1796SOL    HW212504   6.189  11.904   7.400 -0.4928 -0.0261  0.1173
 1797SOL     OW12505   0.395   1.451  10.081 -0.0687  0.2314 -0.0590
 1797SOL    HW112506   0.416   1.374  10.135 -0.0133  2.1609  2.8917
 1797SOL    HW212507   0.463   1.515  10.104 -1.4699  1.9811 -0.6045
 1798SOL     OW12508   9.319   8.273  10.710  0.4078 -0.0269 -0.4927
 1798SOL    HW112509   9.253   8.217  10.751  2.3810 -1.4119  1.0152
 1798SOL    HW212510   9.296   8.273  10.617 -0.1605 -2.7730 -0.4553
 1799SOL     OW12511   6.578  12.849   5.320 -0.0436 -0.1347  0.1295
 1799SOL    HW112512   6.546  12.934   5.292 -0.0802 -0.3869 -0.6330
 1799SOL    HW212513   6.518  12.821   5.389 -0.3365  0.2290  0.0216
 1800SOL     OW12514   3.908  10.031   9.181  0.5883  0.4851 -0.7907
 1800SOL    HW112515   3.829  10.085   9.176 -1.0591 -1.8202 -0.8727
 1800SOL    HW212516   3.941  10.043   9.270 -0.8092  0.2219 -0.2238
 1801SOL     OW12517   8.177   2.307   7.406 -0.4723 -0.1991  0.2307
 1801SOL    HW112518   8.102   2.285   7.462 -0.8280 -1.9277 -0.8749
 1801SOL    HW212519   8.246   2.247   7.433  0.2579  0.8040  0.6458
 1802SOL     OW12520   3.945  11.253  10.920  0.2371  0.0251 -0.4291
 1802SOL    HW112521   3.865  11.282  10.963  0.6435  0.2302  0.1965
 1802SOL    HW212522   4.009  11.320  10.942  1.7404 -2.1834  2.6338
 1803SOL     OW12523   9.158   8.581   5.499 -0.0521  0.0825 -0.0146
 1803SOL    HW112524   9.118   8.543   5.421  0.4125  0.4333 -0.4303
 1803SOL    HW212525   9.210   8.655   5.466 -0.9548  1.1045  0.7860
 1804SOL     OW12526   3.895   0.121   3.071 -0.0557  0.0225 -0.1552
 1804SOL    HW112527   3.828   0.097   3.007 -0.4223  0.0533  0.2123
 1804SOL    HW212528   3.939   0.039   3.092  1.1468  0.2428 -1.6363
 1805SOL     OW12529   8.282  10.775   7.858  0.1479  0.5941 -0.0658
 1805SOL    HW112530   8.271  10.856   7.807 -1.4641  1.5959  1.7729
 1805SOL    HW212531   8.377  10.761   7.859  0.3933  1.9045 -1.2512
 1806SOL     OW12532  11.502   0.987   8.582  0.1115 -0.3401  0.6142
 1806SOL    HW112533  11.514   1.016   8.672  1.3095  0.4369  0.2171
 1806SOL    HW212534  11.536   1.058   8.528  0.9904 -1.4983 -0.4202
 1807SOL     OW12535  11.035   9.281  12.364 -0.4360  0.4362 -0.0972
 1807SOL    HW112536  10.976   9.343  12.406  0.0106  0.4701  0.4922
 1807SOL    HW212537  11.109   9.273  12.425 -0.4208 -0.5585 -0.2358
 1808SOL     OW12538   5.271  10.335   6.394 -0.5138 -0.1332  0.4011
 1808SOL    HW112539   5.194  10.358   6.343 -0.0372  0.1766 -0.2004
 1808SOL    HW212540   5.330  10.410   6.384  0.3090 -0.8201 -0.0567
 1809SOL     OW12541   2.204   7.873   3.017 -0.4883 -0.0840  0.5225
 1809SOL    HW112542   2.224   7.960   3.053  0.2621  0.0098 -0.0837
 1809SOL    HW212543   2.235   7.878   2.926 -1.1238 -0.7466  0.2669
 1810SOL     OW12544  11.089   2.393   1.576  0.4384 -0.0294  0.4183
 1810SOL    HW112545  10.994   2.404   1.575  0.5371  1.5178  2.3445
 1810SOL    HW212546  11.102   2.299   1.566 -1.2805 -0.2393 -0.1208
 1811SOL     OW12547   8.127  10.648   1.261  0.3484  0.3434 -0.4596
 1811SOL    HW112548   8.138  10.555   1.241 -0.0961  0.6270 -2.1259
 1811SOL    HW212549   8.078  10.649   1.344  0.0195 -0.8971 -0.6231
 1812SOL     OW12550   7.986   4.913   4.909 -0.1856  0.1968 -0.1367
 1812SOL    HW112551   7.895   4.941   4.908 -0.5074 -0.7977 -1.3606
 1812SOL    HW212552   7.983   4.821   4.933  0.4123 -0.0736 -1.0439
 1813SOL     OW12553   6.855   7.470   7.218  0.5761 -0.5503  0.4923
 1813SOL    HW112554   6.777   7.416   7.230 -0.2773  0.0312 -1.8548
 1813SOL    HW212555   6.823   7.560   7.219  1.5380 -0.1951  1.4294
 1814SOL     OW12556   1.710   8.497   4.241  0.1793  0.5252  0.2390
 1814SOL    HW112557   1.781   8.526   4.184  0.9975  2.2134  1.9743
 1814SOL    HW212558   1.659   8.576   4.257 -1.3170 -0.3861  0.1007
 1815SOL     OW12559   8.341  10.155   1.618  0.4254  0.4149  0.3546
 1815SOL    HW112560   8.310  10.217   1.684  2.0472  1.2053  0.4240
 1815SOL    HW212561   8.375  10.210   1.547 -0.6679 -0.4202 -0.8498
 1816SOL     OW12562   6.507   4.304   5.598 -0.1416 -0.2838  0.0612
 1816SOL    HW112563   6.518   4.332   5.689  1.3784 -2.0627  0.5018
 1816SOL    HW212564   6.596   4.306   5.561 -0.4951 -1.0828 -0.8806
 1817SOL     OW12565   9.441   2.405   2.682  0.0787  0.8569 -0.4277
 1817SOL    HW112566   9.518   2.461   2.694 -0.0092  0.9029 -0.0621
 1817SOL    HW212567   9.372   2.448   2.733  0.2187 -0.0116  0.5237
 1818SOL     OW12568   5.065  12.331   7.501 -0.1034 -0.2874 -0.4840
 1818SOL    HW112569   5.127  12.402   7.519  1.3286 -1.6691  0.2219
 1818SOL    HW212570   5.023  12.314   7.585  0.5509 -1.1641 -0.3199
 1819SOL     OW12571  10.997   1.305   2.081 -0.4634  0.1585 -0.3050
 1819SOL    HW112572  11.072   1.249   2.104 -0.6985 -0.5478 -1.1866
 1819SOL    HW212573  11.017   1.389   2.120  0.2293 -0.3559  0.4886
 1820SOL     OW12574   5.485  11.873   7.269 -0.6263 -0.3189 -0.8220
 1820SOL    HW112575   5.464  11.908   7.356  1.5458  0.1295 -0.4094
 1820SOL    HW212576   5.527  11.946   7.223  0.4167 -1.2371 -1.3735
 1821SOL     OW12577  12.346   6.562   7.566 -0.2958  0.5684 -0.2449
 1821SOL    HW112578  12.324   6.625   7.634 -0.5896  1.5807 -1.2372
 1821SOL    HW212579  12.288   6.586   7.493  1.8727  1.2744 -1.8127
 1822SOL     OW12580   6.051  11.696  11.205  0.1925  0.4781  0.2224
 1822SOL    HW112581   6.127  11.752  11.188 -0.4003  1.3316  0.3271
 1822SOL    HW212582   5.976  11.753  11.192 -0.3953  0.7961  3.9152
 1823SOL     OW12583  11.559   8.921   1.490 -0.6132 -0.6826 -0.0841
 1823SOL    HW112584  11.529   8.919   1.581 -0.5565 -1.0771 -0.0703
 1823SOL    HW212585  11.590   9.010   1.477 -2.4294 -0.0455 -0.3157
 1824SOL     OW12586   6.999   6.584   1.362  0.4030  0.1089 -0.6015
 1824SOL    HW112587   7.040   6.539   1.289 -0.5364  1.1834 -1.8275
 1824SOL    HW212588   6.910   6.549   1.366  0.5057 -0.0845  0.1632
 1825SOL     OW12589   3.821  11.571   0.278  0.5670 -0.0932 -0.1656
 1825SOL    HW112590   3.796  11.487   0.241  0.6037 -0.1972  0.0457
 1825SOL    HW212591   3.889  11.604   0.219  1.2950 -0.6863  0.3306
 1826SOL     OW12592  10.086   9.990   2.627  0.7426 -0.5185 -0.0231
 1826SOL    HW112593  10.111  10.042   2.703 -0.4924  0.0770 -0.0049
 1826SOL    HW212594  10.165   9.989   2.572  1.2807  0.0165  0.7115
 1827SOL     OW12595   2.056   1.139   7.192 -0.0084 -0.2038  0.3091
 1827SOL    HW112596   2.100   1.124   7.108 -0.4857  0.7924 -0.1358
 1827SOL    HW212597   2.012   1.224   7.181 -0.3967 -0.2479  1.4321
 1828SOL     OW12598  11.733   0.944   4.509 -0.2323 -0.3231 -0.1397
 1828SOL    HW112599  11.769   0.857   4.526  0.2170 -0.1618 -0.2421
 1828SOL    HW212600  11.775   1.000   4.574 -3.4839 -0.8044  2.6803
 1829SOL     OW12601  10.576   5.089   9.744 -0.2988 -0.0593 -0.2521
 1829SOL    HW112602  10.548   5.136   9.822 -0.0619 -0.1093 -0.1368
 1829SOL    HW212603  10.589   4.999   9.773  1.7980  0.3193  0.1439
 1830SOL     OW12604   1.846   4.864  12.645 -0.3443 -0.1302 -0.0102
 1830SOL    HW112605   1.846   4.956  12.621  1.1364  0.1025  0.7722
 1830SOL    HW212606   1.755   4.846  12.671 -0.8538  0.8515 -0.9991
 1831SOL     OW12607   7.473   6.529   4.384 -0.1756  0.7159 -0.3197
 1831SOL    HW112608   7.533   6.581   4.331 -1.0373  1.9303 -0.1294
 1831SOL    HW212609   7.431   6.592   4.443 -0.0120 -0.4433  1.1019
 1832SOL     OW12610   5.123  11.919   9.998  0.5176 -0.5998  0.2662
 1832SOL    HW112611   5.134  11.985   9.929 -0.3458 -0.0444  0.6383
 1832SOL    HW212612   5.178  11.846   9.970  0.9187 -0.0164 -0.5313
 1833SOL     OW12613   7.721  10.914  10.347  0.5706 -0.4169 -0.2831
 1833SOL    HW112614   7.628  10.928  10.332  0.5571 -0.4104 -0.1910
 1833SOL    HW212615   7.760  10.921  10.260  0.2590 -2.2363 -0.6180
 1834SOL     OW12616   0.262   3.035  10.520 -0.4918  0.0735 -0.1930
 1834SOL    HW112617   0.237   3.104  10.581 -0.6591 -1.1037  1.1311
 1834SOL    HW212618   0.331   2.987  10.565 -2.1014 -2.1646  0.0814
 1835SOL     OW12619   5.493   3.450   9.734  0.2469 -0.1392  0.1418
 1835SOL    HW112620   5.556   3.417   9.798  1.4416  0.7781 -0.5284
 1835SOL    HW212621   5.437   3.374   9.715  1.8161 -1.3058 -0.0434
 1836SOL     OW12622   3.129   2.502   9.438 -0.2070 -0.2189  0.5893
 1836SOL    HW112623   3.220   2.518   9.417 -0.6416  0.8114 -0.5681
 1836SOL    HW212624   3.089   2.474   9.356 -0.7337 -1.7015  1.3029
 1837SOL     OW12625  12.373   5.533   8.807  0.0277 -0.3049  0.3436
 1837SOL    HW112626  12.322   5.584   8.870 -1.5046 -0.6502 -0.5456
 1837SOL    HW212627  12.397   5.596   8.739  3.1147  0.4504  1.9696
 1838SOL     OW12628   5.397   8.675   8.711  0.0853  0.1790 -0.3045
 1838SOL    HW112629   5.302   8.665   8.704 -0.3579  2.0593  1.8686
 1838SOL    HW212630   5.429   8.655   8.623 -2.4676  1.0346 -1.5426
 1839SOL     OW12631   1.180   8.523   1.286  0.1567  0.0255 -0.1814
 1839SOL    HW112632   1.143   8.472   1.214  0.2150 -0.6600  0.2631
 1839SOL    HW212633   1.265   8.484   1.301  0.2298  0.3040  0.1269
 1840SOL     OW12634   7.758   6.561   6.463  0.8915 -0.0530 -0.6631
 1840SOL    HW112635   7.669   6.547   6.431  0.0176 -2.5348  2.3242
 1840SOL    HW212636   7.747   6.619   6.539  1.6697 -0.9000  0.1284
 1841SOL     OW12637  11.846  12.790   1.978 -0.6698 -0.1018  0.0345
 1841SOL    HW112638  11.801  12.750   1.904 -0.1707 -0.2586 -0.1865
 1841SOL    HW212639  11.827  12.884   1.969 -4.5509 -0.4954  2.3666
 1842SOL     OW12640   7.733   7.505   1.611 -0.6932  0.7632 -0.2183
 1842SOL    HW112641   7.739   7.600   1.617  0.8709  0.8762 -2.2976
 1842SOL    HW212642   7.683   7.489   1.531 -1.4779 -0.1985  0.4348
 1843SOL     OW12643   7.556  12.119   5.555 -0.0146  0.1169 -0.0732
 1843SOL    HW112644   7.522  12.182   5.491 -0.0695  0.0034 -0.1546
 1843SOL    HW212645   7.650  12.136   5.558  0.1168 -0.4624 -0.8173
 1844SOL     OW12646   9.838   1.694  11.774 -0.1300 -0.1443 -0.0737
 1844SOL    HW112647   9.840   1.621  11.713 -2.3139  0.0139 -0.4316
 1844SOL    HW212648   9.894   1.666  11.847  1.4084 -0.9029 -1.5037
 1845SOL     OW12649  11.521   0.514   3.961 -0.0282 -0.1796 -0.1522
 1845SOL    HW112650  11.466   0.579   4.003  0.5600  0.6130 -0.5741
 1845SOL    HW212651  11.469   0.481   3.888  0.0397  0.5342 -0.5251
 1846SOL     OW12652  12.346  10.685   0.118  0.3800  0.4556  0.1938
 1846SOL    HW112653  12.295  10.605   0.134 -0.0145  0.4978 -0.7340
 1846SOL    HW212654  12.292  10.756   0.153  0.7772  0.3135  1.1095
 1847SOL     OW12655  11.634  10.831  12.323 -0.0685 -0.1156  0.2180
 1847SOL    HW112656  11.589  10.748  12.344 -2.8705  0.5468 -2.4170
 1847SOL    HW212657  11.676  10.815  12.239  1.1558  0.5530  0.6882
 1848SOL     OW12658   7.261   1.605  11.692  0.1870  0.1536 -0.1309
 1848SOL    HW112659   7.282   1.692  11.725 -0.5692  0.7307 -1.1412
 1848SOL    HW212660   7.314   1.595  11.613 -1.1171  0.4782 -1.0866
 1849SOL     OW12661   6.617  11.179   1.918 -0.7436  0.0442 -0.4204
 1849SOL    HW112662   6.627  11.271   1.894 -0.1019 -0.0045 -0.3573
 1849SOL    HW212663   6.648  11.130   1.842  2.1991 -0.1132  0.7375
 1850SOL     OW12664  10.380  11.422   8.901 -0.1650 -0.0885 -0.1670
 1850SOL    HW112665  10.329  11.471   8.965  0.6055 -0.0777  0.4472
 1850SOL    HW212666  10.347  11.452   8.816 -1.9575 -0.8994  0.2007
 1851SOL     OW12667   9.166   0.593   1.475  0.5056  0.2822 -0.3393
 1851SOL    HW112668   9.243   0.640   1.444 -0.3339  1.8992 -0.1365
 1851SOL    HW212669   9.200   0.529   1.538  1.7941 -0.0855 -1.3747
 1852SOL     OW12670   5.515   6.015   7.585 -0.2261 -0.2785 -0.2820
 1852SOL    HW112671   5.534   5.924   7.607  0.7197 -0.8437 -3.0424
 1852SOL    HW212672   5.600   6.059   7.590 -0.6361  0.4163  0.7883
 1853SOL     OW12673  10.507   9.981   8.613 -0.5193 -0.4682 -0.2464
 1853SOL    HW112674  10.416   9.955   8.598 -0.5714 -0.1715 -0.4586
 1853SOL    HW212675  10.539   9.921   8.680 -1.0995 -0.0788  0.3841
 1854SOL     OW12676  10.941  12.269   9.131 -0.8584 -0.3942 -0.4570
 1854SOL    HW112677  10.946  12.282   9.226  2.3592  0.2819 -0.6196
 1854SOL    HW212678  10.928  12.357   9.096  1.6157 -0.0794 -0.7316
 1855SOL     OW12679   7.683   8.467   0.354 -0.3303  0.6085 -0.1151
 1855SOL    HW112680   7.763   8.483   0.404 -0.6219  0.5164  0.3922
 1855SOL    HW212681   7.657   8.378   0.379  0.2620  0.0162 -1.4769
 1856SOL     OW12682  11.137   9.811   1.756 -0.3528 -0.0457  0.8042
 1856SOL    HW112683  11.159   9.803   1.849 -3.4586 -0.2047  1.6309
 1856SOL    HW212684  11.084   9.891   1.751 -3.9343 -2.2323  0.1192
 1857SOL     OW12685  12.379  11.899  11.910 -0.3433 -0.5116  0.0857
 1857SOL    HW112686  12.335  11.825  11.868  1.7739 -0.3471 -2.6654
 1857SOL    HW212687  12.455  11.859  11.953  1.8896  0.0708 -2.9879
 1858SOL     OW12688  12.425   7.287   6.831 -0.1231 -0.0000  0.7525
 1858SOL    HW112689  12.507   7.326   6.864 -0.6321  0.1694  1.8683
 1858SOL    HW212690  12.406   7.217   6.893 -0.8519  0.0013  0.5375
 1859SOL     OW12691   0.137   3.425   7.642  0.0151  0.6535  0.1582
 1859SOL    HW112692   0.201   3.391   7.705 -1.8622  0.7351  2.2216
 1859SOL    HW212693   0.154   3.519   7.639  1.2301  0.4305 -0.8522
 1860SOL     OW12694   0.834   1.070  10.287 -0.1838 -0.0777  0.7524
 1860SOL    HW112695   0.884   1.124  10.348 -0.2652  0.6822  0.1630
 1860SOL    HW212696   0.881   1.078  10.204 -1.1731  0.5158  0.2294
 1861SOL     OW12697   4.340  10.870  10.191  0.5727  0.8644  0.2913
 1861SOL    HW112698   4.413  10.831  10.144 -0.0705 -0.0161 -0.0026
 1861SOL    HW212699   4.357  10.965  10.188  0.9323  0.7781 -1.0559
 1862SOL     OW12700   7.231   4.571   7.229  0.0915 -0.6431  0.5813
 1862SOL    HW112701   7.316   4.605   7.199 -0.1135  0.3540  1.1043
 1862SOL    HW212702   7.250   4.535   7.315 -0.2686  0.8633  1.3298
 1863SOL     OW12703   3.498   7.328   5.947 -0.0831  0.3505  0.0476
 1863SOL    HW112704   3.463   7.409   5.910 -3.4726 -1.0274 -0.1348
 1863SOL    HW212705   3.477   7.261   5.882 -2.0876 -1.4320  2.3347
 1864SOL     OW12706   7.823   1.983   2.986  0.2595 -0.2432  0.0129
 1864SOL    HW112707   7.799   1.924   2.915 -0.7561  1.6889 -1.3411
 1864SOL    HW212708   7.851   2.064   2.942 -0.7122  1.1463  1.7964
 1865SOL     OW12709   9.288   6.906   4.301  0.1304  0.0487 -0.0930
 1865SOL    HW112710   9.292   6.811   4.292 -0.6197 -0.0675  0.6346
 1865SOL    HW212711   9.209   6.931   4.253 -0.0161  0.2263  0.2371
 1866SOL     OW12712   1.912   1.055   4.666 -0.9189 -0.0102 -0.2412
 1866SOL    HW112713   1.888   1.147   4.682 -0.6688 -0.0175  0.1974
 1866SOL    HW212714   1.908   1.014   4.753  0.8500  0.0324 -0.1077
 1867SOL     OW12715   9.370   4.997  12.967 -0.0096  1.0555  0.6444
 1867SOL    HW112716   9.420   5.067  12.925  1.0045  1.5070  2.5113
 1867SOL    HW212717   9.426   4.966  13.038 -0.7609 -1.1386  0.3692
 1868SOL     OW12718  10.545  12.937   0.634 -0.2849 -0.5738  0.1811
 1868SOL    HW112719  10.581  12.853   0.606 -0.6948 -0.5475 -0.4485
 1868SOL    HW212720  10.451  12.920   0.645 -0.6503  0.1656 -1.4922
 1869SOL     OW12721   8.345  12.444   8.236  0.2608  0.1770  0.9433
 1869SOL    HW112722   8.365  12.514   8.173 -0.0490 -0.5129  0.0607
 1869SOL    HW212723   8.413  12.453   8.303  0.3529  1.1852  0.7331
 1870SOL     OW12724   2.117   6.512   0.722  0.2931  0.4128 -0.2569
 1870SOL    HW112725   2.024   6.508   0.702  0.3585 -0.4170 -0.4161
 1870SOL    HW212726   2.122   6.551   0.809 -0.2032  0.4620 -0.2524
 1871SOL     OW12727   5.137   5.139  12.120  0.0060 -0.0081  0.2884
 1871SOL    HW112728   5.198   5.140  12.046 -0.6350 -0.7179 -0.2569
 1871SOL    HW212729   5.175   5.076  12.181 -0.2303 -0.5290 -0.0972
 1872SOL     OW12730   9.919  10.852  11.813  0.0735 -0.1573 -0.1982
 1872SOL    HW112731   9.903  10.783  11.877 -1.5735  0.3193 -0.0253
 1872SOL    HW212732   9.884  10.931  11.855  2.0242  0.8301 -0.3401
 1873SOL     OW12733   4.420   1.574   5.137 -0.3562 -0.3126  0.6385
 1873SOL    HW112734   4.470   1.540   5.211  0.4008 -1.9469 -0.5534
 1873SOL    HW212735   4.405   1.497   5.081  0.6739  1.1359 -1.7945
 1874SOL     OW12736   5.838   6.038   3.463 -0.3952 -0.2456  0.0960
 1874SOL    HW112737   5.903   5.968   3.474  0.9924  1.3124  2.8903
 1874SOL    HW212738   5.776   6.025   3.535  0.6695  2.0554  1.5674
 1875SOL     OW12739   2.562   5.842   0.047  0.0128  0.7083  0.9703
 1875SOL    HW112740   2.577   5.757   0.005  0.0840  0.6484  1.1180
 1875SOL    HW212741   2.504   5.823   0.120 -3.2039  1.3143 -1.2090
 1876SOL     OW12742  11.460   4.191  10.348 -0.7296 -0.1424  0.4166
 1876SOL    HW112743  11.518   4.266  10.333  1.9176 -1.8410  1.4854
 1876SOL    HW212744  11.460   4.180  10.443 -1.2415 -1.3918  0.2829
 1877SOL     OW12745   5.400   3.097   6.280 -0.5819  0.0027  0.6049
 1877SOL    HW112746   5.387   3.038   6.353  0.4299 -0.5035  0.3971
 1877SOL    HW212747   5.314   3.137   6.265 -0.8472 -0.0591  1.9032
 1878SOL     OW12748   3.517  11.368   2.677  0.4762 -0.0590 -0.0237
 1878SOL    HW112749   3.602  11.399   2.707 -0.5383  1.2391  1.6595
 1878SOL    HW212750   3.512  11.398   2.586  0.6637  2.4583  0.7222
 1879SOL     OW12751   1.175   6.135   7.801  0.4836 -0.0983  0.5930
 1879SOL    HW112752   1.247   6.188   7.835  0.3101 -0.2973  1.2941
 1879SOL    HW212753   1.174   6.152   7.707 -0.0695  1.7440  0.8920
 1880SOL     OW12754  10.210   5.428  10.877  0.4902  0.3080 -0.3538
 1880SOL    HW112755  10.195   5.361  10.810  1.6816  0.3059 -0.6438
 1880SOL    HW212756  10.303   5.448  10.870 -0.1593  3.3881 -1.5683
 1881SOL     OW12757   8.730  12.143   9.571  0.2710 -0.1193 -0.2316
 1881SOL    HW112758   8.764  12.215   9.518 -1.2325  1.4893  0.8809
 1881SOL    HW212759   8.801  12.124   9.633 -0.1521  2.2162  1.1273
 1882SOL     OW12760   3.064   9.944   0.579  0.3889  0.3111  0.2986
 1882SOL    HW112761   3.036   9.960   0.670  2.1490 -0.6908  1.0697
 1882SOL    HW212762   3.000   9.991   0.526 -1.8154 -0.6397  1.9692
 1883SOL     OW12763   9.245   4.461   1.755 -0.1689  0.3241 -0.1739
 1883SOL    HW112764   9.189   4.487   1.828 -0.4067 -0.8349  0.0805
 1883SOL    HW212765   9.281   4.377   1.782  1.2402  0.7747 -0.5938
 1884SOL     OW12766   7.940   4.921   7.278  0.1208  0.1370 -0.5463
 1884SOL    HW112767   8.015   4.922   7.337 -0.1497  1.2464 -0.1980
 1884SOL    HW212768   7.973   4.955   7.196  0.1919 -0.1996 -0.6617
 1885SOL     OW12769   1.869   8.687   4.151 -0.0864  0.5177 -0.5889
 1885SOL    HW112770   1.934   8.733   4.098  0.5097  0.9516  0.5027
 1885SOL    HW212771   1.911   8.675   4.236 -0.4800 -1.4344 -0.6109
 1886SOL     OW12772   0.584   7.288   2.573  0.2762 -0.2474  0.0221
 1886SOL    HW112773   0.633   7.223   2.623 -0.3411 -0.8628 -0.1544
 1886SOL    HW212774   0.651   7.347   2.538  0.9321 -1.2721 -0.5034
 1887SOL     OW12775   7.900   5.484   3.809  0.8629 -0.0759  0.2958
 1887SOL    HW112776   7.969   5.419   3.817  0.4908 -0.5370 -0.1548
 1887SOL    HW212777   7.919   5.529   3.727  0.6287 -0.2058  0.1688
 1888SOL     OW12778  12.851   5.837   9.059  0.0084  0.0596  0.5326
 1888SOL    HW112779  12.766   5.823   9.100 -0.1600 -0.1099  0.1205
 1888SOL    HW212780  12.850   5.782   8.981 -0.5495  2.0556 -0.9396
 1889SOL     OW12781  12.671  10.007   6.616  0.3796  0.1772  0.0101
 1889SOL    HW112782  12.587  10.054   6.611  0.8139  1.2907  1.9644
 1889SOL    HW212783  12.697   9.996   6.525 -1.0594  1.3604 -0.6031
 1890SOL     OW12784   3.649   9.690   2.584 -1.2583 -0.1762  0.1648
 1890SOL    HW112785   3.668   9.762   2.523  1.7715 -1.6633 -0.8528
 1890SOL    HW212786   3.568   9.652   2.551 -1.4005  1.0431 -1.0018
 1891SOL     OW12787   5.250   1.643   6.935  0.0714 -0.0589 -0.4741
 1891SOL    HW112788   5.229   1.736   6.924 -0.9917 -0.2708 -0.3124
 1891SOL    HW212789   5.304   1.641   7.014  1.7779  0.6327 -1.5639
 1892SOL     OW12790   4.022   5.078   7.972  0.3570  0.4503  0.0262
 1892SOL    HW112791   4.089   5.015   7.948  0.8987  1.1580 -0.3515
 1892SOL    HW212792   3.985   5.107   7.889  2.1921  2.8573 -0.0536
 1893SOL     OW12793  10.683   2.284  11.994 -0.5385 -0.0558 -0.0605
 1893SOL    HW112794  10.668   2.291  11.900 -1.0560  0.5396  0.0627
 1893SOL    HW212795  10.777   2.301  12.004 -0.5826  0.4369 -0.4206
 1894SOL     OW12796   8.790   8.277   7.919  0.5237  0.5220  0.2802
 1894SOL    HW112797   8.810   8.245   8.007 -1.0985 -0.6280  0.2772
 1894SOL    HW212798   8.731   8.212   7.882  2.8929 -0.2207 -2.5730
 1895SOL     OW12799   6.548   5.709   7.735 -0.4102  0.3619  0.2400
 1895SOL    HW112800   6.456   5.707   7.760 -0.6488  1.6249 -0.4417
 1895SOL    HW212801   6.552   5.771   7.662  1.2856  2.0809  1.6566
 1896SOL     OW12802   3.342   8.654   0.757 -0.2941  0.5128 -0.5670
 1896SOL    HW112803   3.376   8.700   0.680  1.3849 -0.1939 -0.2906
 1896SOL    HW212804   3.254   8.627   0.732  0.3166  0.0561 -2.3643
 1897SOL     OW12805  12.661  10.803  12.670 -0.3665  0.0626 -0.7577
 1897SOL    HW112806  12.694  10.881  12.714 -0.9215  0.4761 -1.0606
 1897SOL    HW212807  12.735  10.743  12.669 -0.6216 -0.4030  1.7243
 1898SOL     OW12808  12.463   2.997   1.277 -0.0977 -0.0006  0.3504
 1898SOL    HW112809  12.459   2.906   1.307  0.3548 -0.7042 -1.5279
 1898SOL    HW212810  12.495   3.046   1.352  1.1627 -1.6493  0.9606
 1899SOL     OW12811   8.179  10.910   1.886  0.3412 -0.3638 -0.1332
 1899SOL    HW112812   8.233  10.834   1.910  0.6539  0.1813  0.9820
 1899SOL    HW212813   8.196  10.973   1.956  1.9266  1.6676 -2.1793
 1900SOL     OW12814  10.752   1.171   8.298 -0.2439 -0.1340  0.6692
 1900SOL    HW112815  10.775   1.085   8.263 -1.2196  0.0133 -0.3911
 1900SOL    HW212816  10.759   1.161   8.393  4.1173 -0.0907  0.5202
 1901SOL     OW12817   3.601   9.050   5.181 -0.2937  0.0615 -0.4329
 1901SOL    HW112818   3.691   9.024   5.159 -0.8228 -2.4581  0.0446
 1901SOL    HW212819   3.608   9.086   5.269  0.0433 -2.0974  0.5022
 1902SOL     OW12820   3.201  10.532   2.177  0.2609 -0.3527  0.5333
 1902SOL    HW112821   3.257  10.477   2.122  1.1945  2.7460 -1.9704
 1902SOL    HW212822   3.114  10.495   2.167  0.8704 -1.5237 -0.8641
 1903SOL     OW12823  10.446   9.411  11.313  0.0988  0.1662 -0.7266
 1903SOL    HW112824  10.523   9.375  11.269 -0.5750 -1.6025 -0.5523
 1903SOL    HW212825  10.381   9.341  11.308 -1.4179  1.5168 -0.6367
 1904SOL     OW12826   2.816   3.995  12.082  0.4284 -0.4644  0.3555
 1904SOL    HW112827   2.890   3.950  12.123  0.5566 -1.3459 -0.7774
 1904SOL    HW212828   2.750   3.999  12.151  0.7367 -1.6599  0.7577
 1905SOL     OW12829   4.152   9.691  11.803  0.7637  0.0278 -0.2481
 1905SOL    HW112830   4.220   9.665  11.864  1.1774 -0.9538 -1.0777
 1905SOL    HW212831   4.071   9.690  11.854  0.9710 -1.6298  0.1180
 1906SOL     OW12832  12.899  11.028   5.960  0.4468  0.2890  0.1304
 1906SOL    HW112833  12.964  11.078   6.011  0.0212 -0.7086  1.7239
 1906SOL    HW212834  12.914  10.937   5.984 -0.4819 -0.1188 -0.7431
 1907SOL     OW12835   3.587  12.183  11.112  0.6440 -0.5428  0.1961
 1907SOL    HW112836   3.648  12.253  11.136  0.9585 -1.0357  0.8664
 1907SOL    HW212837   3.533  12.221  11.042  1.3499  0.0864 -0.0180
 1908SOL     OW12838   0.655   8.440   4.536  0.1996  0.0980  0.0390
 1908SOL    HW112839   0.654   8.458   4.630 -1.0103 -1.6688  0.4358
 1908SOL    HW212840   0.582   8.492   4.502 -0.2436 -0.3158  0.3345
 1909SOL     OW12841   9.169  10.108   7.295  0.3334 -0.1256 -0.0322
 1909SOL    HW112842   9.085  10.136   7.331  0.0774 -1.3690  0.3852
 1909SOL    HW212843   9.231  10.121   7.367  0.2438 -0.4747  0.1095
 1910SOL     OW12844  11.351  10.780   5.794  0.0629 -0.2553 -0.1440
 1910SOL    HW112845  11.427  10.722   5.798 -0.6336 -1.1741  0.3033
 1910SOL    HW212846  11.384  10.862   5.757  0.6657 -1.5911 -2.8209
 1911SOL     OW12847   7.709  10.908   0.003 -0.2145 -0.1620  0.0254
 1911SOL    HW112848   7.804  10.910   0.002 -0.2130 -0.2195  0.0277
 1911SOL    HW212849   7.687  10.836   0.062 -0.2534 -1.5550 -1.6229
 1912SOL     OW12850   8.102  12.497  11.128  0.0090  0.1010 -0.7326
 1912SOL    HW112851   8.016  12.499  11.169  0.2661 -0.8575 -0.1168
 1912SOL    HW212852   8.160  12.537  11.192 -0.1823  2.2075 -1.7715
 1913SOL     OW12853   9.100   8.134  11.861  0.0932 -0.2482 -0.4033
 1913SOL    HW112854   9.176   8.079  11.876  0.9223  0.4916 -1.6630
 1913SOL    HW212855   9.133   8.223  11.869 -0.7461  0.0776 -0.4662
 1914SOL     OW12856   5.263   5.277   3.451 -0.0022 -0.3838 -0.1905
 1914SOL    HW112857   5.197   5.212   3.424 -1.0892  1.1593 -1.4472
 1914SOL    HW212858   5.323   5.282   3.376 -2.0613  2.6810 -1.8350
 1915SOL     OW12859  11.311   5.829   1.287 -0.3603 -0.1577 -0.5098
 1915SOL    HW112860  11.264   5.762   1.339 -1.1618  0.5659 -0.2750
 1915SOL    HW212861  11.389   5.849   1.338 -0.3677 -0.5590 -0.3382
 1916SOL     OW12862   8.379   5.679  11.821  0.2617  0.2196 -0.4746
 1916SOL    HW112863   8.380   5.711  11.912  2.8265 -3.3425  0.9972
 1916SOL    HW212864   8.288   5.653  11.806 -0.0119 -0.1987  1.5760
 1917SOL     OW12865   1.131  12.326  10.831 -0.2638  0.7043 -0.0152
 1917SOL    HW112866   1.185  12.403  10.815 -0.5777  0.6316 -1.5093
 1917SOL    HW212867   1.073  12.321  10.756  0.0430 -1.2366 -0.1695
 1918SOL     OW12868   7.220  10.000   7.124  0.1923  0.7754 -0.3052
 1918SOL    HW112869   7.161  10.057   7.074 -2.9379 -1.1069  0.9658
 1918SOL    HW212870   7.215  10.034   7.213  0.6680  0.2872 -0.0887
 1919SOL     OW12871   1.088  11.796   8.525  0.2435  0.2916  0.3406
 1919SOL    HW112872   1.102  11.761   8.436 -0.3445 -0.4105  0.5086
 1919SOL    HW212873   1.160  11.857   8.539  2.2131 -1.9689  0.6007
 1920SOL     OW12874   2.543   6.626   8.637 -0.2779  0.3614  0.0811
 1920SOL    HW112875   2.624   6.590   8.600 -0.1702  0.0373  0.6319
 1920SOL    HW212876   2.572   6.692   8.700 -0.4302  0.0313  0.5034
 1921SOL     OW12877   1.910   8.849   2.635  0.0343  0.2473  0.0525
 1921SOL    HW112878   1.901   8.867   2.728  1.3523  0.0389  0.2405
 1921SOL    HW212879   1.971   8.776   2.630  1.0186  1.1090 -1.0238
 1922SOL     OW12880   1.453  12.741   5.415 -0.2056  0.6080 -0.1399
 1922SOL    HW112881   1.523  12.677   5.428  0.3141  1.3622  0.9006
 1922SOL    HW212882   1.382  12.691   5.373  0.6319 -0.3561 -0.4457
 1923SOL     OW12883   4.539  12.733   2.689  0.2834  0.3413  0.2111
 1923SOL    HW112884   4.502  12.821   2.687 -1.9741 -0.5612 -1.3476
 1923SOL    HW212885   4.587  12.725   2.606  0.6997  0.1734  0.4643
 1924SOL     OW12886  11.241   5.805   4.954  0.1634  0.0724 -0.4502
 1924SOL    HW112887  11.244   5.719   4.911  0.8628 -0.6772  1.0361
 1924SOL    HW212888  11.148   5.826   4.958  0.0264 -0.2581 -1.4796
 1925SOL     OW12889   8.571   5.915   9.135 -0.0298 -0.2509 -0.2711
 1925SOL    HW112890   8.613   5.976   9.074  0.6514  0.0158  0.4303
 1925SOL    HW212891   8.573   5.961   9.219  1.9003 -1.8121  0.6200
 1926SOL     OW12892   0.887  10.619  12.658  0.1254  0.0191  0.0374
 1926SOL    HW112893   0.905  10.562  12.733 -1.0627 -2.8749 -1.6751
 1926SOL    HW212894   0.960  10.604  12.599 -0.3084  0.0997 -0.5262
 1927SOL     OW12895   3.649   4.882   2.766  0.3650 -0.3089  0.4699
 1927SOL    HW112896   3.595   4.864   2.843  0.5457  2.1347  1.2427
 1927SOL    HW212897   3.738   4.866   2.795  0.6037  2.3398  1.4239
 1928SOL     OW12898   5.382   1.344   1.974  0.0685  0.0732  0.0653
 1928SOL    HW112899   5.306   1.399   1.954  0.9881  1.4324  0.2057
 1928SOL    HW212900   5.395   1.292   1.895 -0.8308  0.0231 -0.0651
 1929SOL     OW12901   1.887   7.426  10.158  0.3833  0.4617  0.4516
 1929SOL    HW112902   1.859   7.359  10.220 -0.1804 -0.4388 -0.7378
 1929SOL    HW212903   1.827   7.417  10.084  1.7519  0.7063 -0.7361
 1930SOL     OW12904   7.790  11.901   9.710  0.2388 -0.6000 -0.2631
 1930SOL    HW112905   7.734  11.978   9.713  0.3383 -0.5456  0.3187
 1930SOL    HW212906   7.838  11.903   9.792  1.1853 -0.5877 -0.8068
 1931SOL     OW12907   5.239   8.332   9.768 -1.1282 -0.0549  0.4546
 1931SOL    HW112908   5.227   8.259   9.829 -0.3569 -0.5255  0.0555
 1931SOL    HW212909   5.150   8.360   9.747 -1.4114  0.0094  1.6672
 1932SOL     OW12910   7.221  11.995   3.321 -0.5188  0.0002  0.0707
 1932SOL    HW112911   7.155  12.064   3.317 -1.2173 -0.6800 -2.8968
 1932SOL    HW212912   7.303  12.040   3.300 -0.4541  0.3748  1.0539
 1933SOL     OW12913   9.716  10.665  11.610 -0.0752 -0.3893 -0.2157
 1933SOL    HW112914   9.804  10.632  11.594  0.2944  0.0377  0.8447
 1933SOL    HW212915   9.726  10.760  11.615 -0.5793 -0.3438 -0.0099
 1934SOL     OW12916   6.237   8.447   3.901  0.0781  0.1301  0.1096
 1934SOL    HW112917   6.275   8.490   3.824  1.0956  0.5460  0.8149
 1934SOL    HW212918   6.286   8.364   3.908  0.1531  0.2013  0.4439
 1935SOL     OW12919  12.160   2.729   0.912  0.3703  0.3274  0.0696
 1935SOL    HW112920  12.252   2.754   0.902  0.7549 -1.4694 -1.5549
 1935SOL    HW212921  12.163   2.634   0.926 -1.1595  0.5193  2.0469
 1936SOL     OW12922   4.968  10.830   4.597  0.0073  0.1474  0.1643
 1936SOL    HW112923   4.930  10.749   4.562  0.8555 -0.2605  0.1648
 1936SOL    HW212924   5.042  10.849   4.540  0.9318 -0.0955  1.2316
 1937SOL     OW12925   3.641  11.359   4.769  0.5246  0.5486 -0.1806
 1937SOL    HW112926   3.559  11.344   4.816  0.3455  0.3200 -0.5569
 1937SOL    HW212927   3.702  11.389   4.836  0.5198 -0.5826  0.3534
 1938SOL     OW12928  12.201   4.793   7.231 -0.0428 -0.2458 -0.7060
 1938SOL    HW112929  12.267   4.798   7.162 -0.5923 -1.0363 -1.3016
 1938SOL    HW212930  12.246   4.825   7.309  0.9513 -0.4892 -1.1627
 1939SOL     OW12931   1.277  12.034   0.004 -0.2368  0.3253 -0.4498
 1939SOL    HW112932   1.340  12.010   0.072 -0.9074 -1.2403 -0.3516
 1939SOL    HW212933   1.300  12.124  -0.019  1.1453  0.2579  0.5636
 1940SOL     OW12934   1.661   3.040  10.503  0.0969  0.4916 -0.0188
 1940SOL    HW112935   1.566   3.049  10.498 -0.0764 -0.7472  0.6754
 1940SOL    HW212936   1.694   3.083  10.424 -0.9246  2.2671  0.4735
 1941SOL     OW12937   7.698  10.875   3.253  0.2903  0.0812 -0.0155
 1941SOL    HW112938   7.776  10.836   3.293  0.8652 -0.7362 -1.8183
 1941SOL    HW212939   7.625  10.829   3.294  0.7085  0.8786  1.7235
 1942SOL     OW12940   6.354  11.958   7.276 -0.5739 -0.2129  0.2476
 1942SOL    HW112941   6.429  11.913   7.237 -0.5573  0.4659 -0.5280
 1942SOL    HW212942   6.390  12.042   7.306 -0.4422 -0.9572  2.3276
 1943SOL     OW12943   0.240   8.713   2.718 -0.0478 -0.3269 -0.5614
 1943SOL    HW112944   0.211   8.664   2.795 -0.8100 -1.3580 -1.4688
 1943SOL    HW212945   0.315   8.663   2.686 -0.9942 -1.1136 -1.6488
 1944SOL     OW12946   2.641  12.007  12.890  0.3096 -0.4639 -0.3189
 1944SOL    HW112947   2.579  12.043  12.826 -0.4736  0.4235  0.8938
 1944SOL    HW212948   2.721  11.992  12.840 -0.1908  0.4631 -1.4549
 1945SOL     OW12949   3.155   5.143   4.716 -0.7687  0.7558  0.2966
 1945SOL    HW112950   3.211   5.065   4.710 -1.4938  0.2816 -0.5051
 1945SOL    HW212951   3.115   5.150   4.629  0.5904  3.0269 -0.2211
 1946SOL     OW12952   7.421  10.153   3.843  0.0127 -0.0002  0.0440
 1946SOL    HW112953   7.400  10.086   3.908 -0.5906  0.2017  0.0659
 1946SOL    HW212954   7.366  10.131   3.768 -0.7590  0.9059  0.3310
 1947SOL     OW12955   4.473   6.452   4.362  0.2210 -0.1586 -0.6362
 1947SOL    HW112956   4.555   6.449   4.313 -0.4314 -0.3346 -1.7306
 1947SOL    HW212957   4.413   6.503   4.307 -0.0043  1.2105  0.7902
 1948SOL     OW12958   5.811   3.157   3.766 -0.2030  0.0308 -0.3223
 1948SOL    HW112959   5.771   3.227   3.817  0.4986 -0.3220  0.7535
 1948SOL    HW212960   5.853   3.202   3.693  1.1662  0.8966  0.9352
 1949SOL     OW12961  11.124  10.201   7.007 -0.5528  0.0770  0.3175
 1949SOL    HW112962  11.039  10.212   7.050  0.7208 -1.0853  3.4819
 1949SOL    HW212963  11.170  10.283   7.022 -1.8319  1.7390 -3.6584
 1950SOL     OW12964   2.885   5.685   0.125 -0.6477 -0.1118 -0.2383
 1950SOL    HW112965   2.797   5.657   0.101 -0.9194 -0.6976  1.3275
 1950SOL    HW212966   2.935   5.603   0.130 -1.0177 -0.2502  2.6710
 1951SOL     OW12967   8.623   9.567   0.251 -0.0232  0.9786  0.2461
 1951SOL    HW112968   8.582   9.497   0.199 -0.0745 -0.2536  1.8366
 1951SOL    HW212969   8.550   9.608   0.297  0.2153  0.5932  0.9915
 1952SOL     OW12970  12.673   9.005   4.418  0.4238 -0.2672 -0.2023
 1952SOL    HW112971  12.596   9.058   4.397  0.9909  0.1453 -1.3224
 1952SOL    HW212972  12.646   8.915   4.401  0.2135 -0.1181 -0.6854
 1953SOL     OW12973   2.717   8.935  12.629  0.7636 -0.0776 -0.0015
 1953SOL    HW112974   2.676   8.873  12.688  0.8764 -0.0132  0.1456
 1953SOL    HW212975   2.796   8.890  12.598  1.3289  0.3233  0.7981
 1954SOL     OW12976   7.266   2.545   7.145 -0.3580 -0.1859 -0.0672
 1954SOL    HW112977   7.335   2.515   7.086  0.1845  0.1569  0.3815
 1954SOL    HW212978   7.204   2.472   7.149 -0.8547  0.0950 -1.7263
 1955SOL     OW12979   3.004   5.748   6.251 -0.1510 -0.4917  0.3064
 1955SOL    HW112980   3.088   5.778   6.286  0.8637 -1.1903 -1.3915
 1955SOL    HW212981   2.956   5.716   6.327 -0.3533  3.1288  1.8627
 1956SOL     OW12982   8.482   6.691  10.258 -0.4340  0.1848  0.1044
 1956SOL    HW112983   8.439   6.776  10.269  0.5041  0.7789 -0.7136
 1956SOL    HW212984   8.410   6.629  10.245 -1.0527  1.3155 -2.2968
 1957SOL     OW12985  12.356  11.809   0.903 -0.3737 -0.0819 -0.0958
 1957SOL    HW112986  12.272  11.782   0.942  0.7500 -1.2480  1.6642
 1957SOL    HW212987  12.397  11.727   0.875  0.9808  0.2599  0.8058
 1958SOL     OW12988   9.757   2.376  11.540 -0.3526 -0.0877  0.0807
 1958SOL    HW112989   9.715   2.311  11.597 -2.1430  0.8576 -0.1262
 1958SOL    HW212990   9.832   2.406  11.591 -0.0535 -1.5810  0.5859
 1959SOL     OW12991   8.184  12.027   2.755 -0.4428 -0.3281  0.4685
 1959SOL    HW112992   8.225  11.955   2.709  2.6981  2.4452 -1.5439
 1959SOL    HW212993   8.119  12.061   2.693 -0.9346 -0.5897  0.8386
 1960SOL     OW12994   6.781   1.717  11.462  0.1550  0.1505  0.7268
 1960SOL    HW112995   6.709   1.776  11.486 -0.4356 -0.1783 -0.1615
 1960SOL    HW212996   6.842   1.772  11.414 -0.1964  0.1478  0.2619
 1961SOL     OW12997   2.185   1.861   9.519 -0.3236  0.4549 -0.1620
 1961SOL    HW112998   2.193   1.766   9.522 -0.9323  0.3933 -0.4354
 1961SOL    HW212999   2.170   1.881   9.426 -0.4023  0.7969 -0.0763
 1962SOL     OW13000   8.613   2.113   5.324  0.1606  0.3774 -0.2087
 1962SOL    HW113001   8.600   2.032   5.275  0.8297  0.4654 -0.5392
 1962SOL    HW213002   8.586   2.182   5.262  0.2967  0.4491 -0.1875
 1963SOL     OW13003   3.924   4.649   1.330  0.1262 -0.3262  1.1271
 1963SOL    HW113004   4.016   4.661   1.349  0.4549 -0.5677 -0.1867
 1963SOL    HW213005   3.922   4.587   1.256 -1.0438  0.1230  0.7448
 1964SOL     OW13006   2.048   2.854   8.205  0.2236 -0.0886 -0.6725
 1964SOL    HW113007   1.977   2.804   8.164 -1.8750 -0.0276  2.4546
 1964SOL    HW213008   2.104   2.788   8.244  0.0182 -0.1071 -0.4014
 1965SOL     OW13009   4.614   8.199  11.945  0.2924  0.4501 -0.4627
 1965SOL    HW113010   4.602   8.289  11.976 -0.3096  0.9141 -1.9520
 1965SOL    HW213011   4.544   8.149  11.987  2.3758 -0.0770  2.8307
 1966SOL     OW13012   1.865  12.330  11.165 -0.3899  0.0949 -0.0921
 1966SOL    HW113013   1.813  12.392  11.115  1.1166  1.2493 -0.2896
 1966SOL    HW213014   1.935  12.382  11.204  0.0361 -1.2267  1.0160
 1967SOL     OW13015   2.076   8.724   8.695 -0.4364 -0.4451  0.4431
 1967SOL    HW113016   2.056   8.631   8.703 -0.9062 -0.3744  0.1020
 1967SOL    HW213017   2.005   8.760   8.642 -0.1828  0.0820  0.4518
 1968SOL     OW13018   9.088  12.710   0.901  0.1177 -0.1739  0.8388
 1968SOL    HW113019   9.149  12.641   0.875 -0.4026 -0.5387  0.5404
 1968SOL    HW213020   9.141  12.788   0.911  1.1148 -1.0593  3.3108
 1969SOL     OW13021   0.542  10.233   4.510 -0.1897  0.0924 -0.0665
 1969SOL    HW113022   0.515  10.173   4.442 -1.7821  0.9310 -0.2238
 1969SOL    HW213023   0.564  10.177   4.585 -0.2354 -0.7329 -0.6601
 1970SOL     OW13024   5.940   1.516  12.677 -0.5287 -0.0768  0.4629
 1970SOL    HW113025   5.847   1.493  12.689 -0.3329 -0.3280  1.6921
 1970SOL    HW213026   5.947   1.605  12.710 -0.1774 -0.3801  1.2430
 1971SOL     OW13027   4.268   5.085   1.792  0.3930  0.4044 -0.2634
 1971SOL    HW113028   4.239   5.019   1.855 -1.2645  2.3115  1.1110
 1971SOL    HW213029   4.355   5.111   1.823 -0.2411  1.0432  1.0473
 1972SOL     OW13030  12.883  12.113   7.480 -0.4943  0.3671  0.4856
 1972SOL    HW113031  12.913  12.087   7.393 -1.7483 -0.2706  0.2206
 1972SOL    HW213032  12.844  12.200   7.467 -0.4019  0.4055  0.4696
 1973SOL     OW13033   0.584   6.043   7.014  0.4914  0.8135 -0.3422
 1973SOL    HW113034   0.493   6.065   7.032  0.6892  1.1663  0.2379
 1973SOL    HW213035   0.617   6.116   6.963  0.1856  0.2339 -1.4017
 1974SOL     OW13036   9.932  10.356  10.695 -0.4438 -0.1730  0.6004
 1974SOL    HW113037   9.843  10.322  10.710 -0.0963 -2.4617 -1.7815
 1974SOL    HW213038   9.989  10.282  10.716  0.9501  1.2397  1.9887
 1975SOL     OW13039   2.147   9.490   1.019  0.0739 -0.0234 -0.4648
 1975SOL    HW113040   2.057   9.506   0.990  0.3373  0.7024 -0.9140
 1975SOL    HW213041   2.141   9.483   1.114 -0.7602 -2.0910 -0.6190
 1976SOL     OW13042   5.592   5.503   4.795 -0.2257 -0.1308  0.0614
 1976SOL    HW113043   5.555   5.573   4.849 -0.8104  0.0220 -0.5282
 1976SOL    HW213044   5.518   5.470   4.744  0.5618  0.7788 -1.7896
 1977SOL     OW13045   9.563   6.680   8.973 -0.3144 -0.2628 -0.0940
 1977SOL    HW113046   9.471   6.683   8.999  0.5129  1.0782  3.1571
 1977SOL    HW213047   9.593   6.770   8.982  1.9152 -1.0902  1.6564
 1978SOL     OW13048   8.800   3.706   5.837  0.3235  0.3763 -0.4398
 1978SOL    HW113049   8.805   3.802   5.830 -0.6460  0.7206  2.3102
 1978SOL    HW213050   8.887   3.680   5.865 -0.2492  0.9321  2.1194
 1979SOL     OW13051   2.720   1.950   7.882  0.4856  0.8590  0.3223
 1979SOL    HW113052   2.755   2.020   7.937  3.1056  0.9835 -1.3482
 1979SOL    HW213053   2.777   1.949   7.806 -0.4467 -2.0876 -0.4488
 1980SOL     OW13054   9.217  12.494  11.154 -0.1093  0.0330 -0.1387
 1980SOL    HW113055   9.285  12.453  11.207 -0.3066 -1.2666 -0.8592
 1980SOL    HW213056   9.249  12.489  11.065 -0.0088  1.7552 -0.2268
 1981SOL     OW13057   0.039   6.227   2.327 -0.3965 -0.3988 -0.0164
 1981SOL    HW113058  -0.054   6.225   2.307 -0.9271 -0.2542  2.1248
 1981SOL    HW213059   0.043   6.219   2.423  1.8411 -1.7790 -0.1323
 1982SOL     OW13060   1.316   1.181   5.322 -0.2775 -0.2803  0.2301
 1982SOL    HW113061   1.314   1.096   5.277  0.6647  0.4340 -1.2442
 1982SOL    HW213062   1.224   1.209   5.325 -0.4077 -0.5382 -0.9351
 1983SOL     OW13063   7.115   4.175  10.748  0.0067 -0.2063  0.4738
 1983SOL    HW113064   7.111   4.226  10.667  1.6107 -0.2594  0.3353
 1983SOL    HW213065   7.025   4.143  10.760 -0.4235  0.4031 -0.8870
 1984SOL     OW13066   1.938  11.792  12.571 -0.0626 -0.0638 -0.3431
 1984SOL    HW113067   1.947  11.857  12.640 -2.2182  0.7042 -0.6819
 1984SOL    HW213068   1.945  11.843  12.490 -0.4035 -0.4719 -0.6302
 1985SOL     OW13069   6.151   0.728   3.419  0.7076 -0.0476  0.6797
 1985SOL    HW113070   6.201   0.754   3.497  0.6397  2.9499 -0.1581
 1985SOL    HW213071   6.205   0.757   3.346 -1.0194  0.8775 -0.2846
 1986SOL     OW13072   4.361   3.511   3.319  0.0839  0.2216 -0.0796
 1986SOL    HW113073   4.378   3.514   3.413 -0.0837  0.7638 -0.0587
 1986SOL    HW213074   4.271   3.543   3.310  0.4250  1.1260 -0.4906
 1987SOL     OW13075   0.865  10.732  12.201 -0.3260 -0.1456  0.3356
 1987SOL    HW113076   0.821  10.767  12.278  0.0185  0.1119  0.4231
 1987SOL    HW213077   0.840  10.640  12.197  0.4651 -0.4229  1.3433
 1988SOL     OW13078   7.469   2.710  10.203 -0.1658 -0.3535  0.8128
 1988SOL    HW113079   7.523   2.642  10.244  1.2979 -0.1507 -0.6589
 1988SOL    HW213080   7.399   2.727  10.266  1.1410 -1.0892  2.5399
 1989SOL     OW13081  10.680  11.096   0.735  0.4346  0.4774  0.2383
 1989SOL    HW113082  10.654  11.184   0.708  1.9284  1.0616  0.5959
 1989SOL    HW213083  10.651  11.089   0.826 -1.3682 -0.1375 -0.3434
 1990SOL     OW13084   4.188   9.936   9.399  0.5005  0.1599 -0.3795
 1990SOL    HW113085   4.272   9.891   9.404  1.0082  1.1799  1.8840
 1990SOL    HW213086   4.131   9.888   9.460 -0.3003  0.0014 -1.2338
 1991SOL     OW13087   9.787   4.601   1.721  0.0970 -0.6133  0.6156
 1991SOL    HW113088   9.750   4.675   1.770 -0.2736 -0.7845  0.5949
 1991SOL    HW213089   9.845   4.557   1.783  2.7372  1.4307 -0.1823
 1992SOL     OW13090  12.146   7.666   4.046  0.2241  0.9900  0.0905
 1992SOL    HW113091  12.074   7.729   4.045 -1.7502 -1.0491 -2.8091
 1992SOL    HW213092  12.215   7.707   3.994 -0.6188  1.2403 -0.8573
 1993SOL     OW13093   0.680   5.121   9.167  0.0033 -0.0723 -0.0384
 1993SOL    HW113094   0.657   5.047   9.111 -0.1986  0.9814 -1.3948
 1993SOL    HW213095   0.726   5.182   9.109  0.7381  0.6012  1.1962
 1994SOL     OW13096   2.858   4.618   3.375  0.1060 -0.3010 -0.8415
 1994SOL    HW113097   2.788   4.674   3.341  0.3817 -0.3443 -1.4832
 1994SOL    HW213098   2.935   4.641   3.323  0.0638 -1.7321 -1.5797
 1995SOL     OW13099   9.064   3.735   0.275  0.0793  0.3580 -0.2651
 1995SOL    HW113100   8.980   3.733   0.230  1.0074  2.0746 -2.2681
 1995SOL    HW213101   9.128   3.716   0.207  1.3509 -1.1438  1.2647
 1996SOL     OW13102  10.136   2.814   2.067  0.0920  0.2416 -0.4858
 1996SOL    HW113103  10.184   2.816   2.149  3.2341 -1.6168 -2.0874
 1996SOL    HW213104  10.114   2.722   2.053  1.1072  0.2224 -2.4041
 1997SOL     OW13105   0.656   9.463   9.784 -0.1238 -0.3635 -0.2086
 1997SOL    HW113106   0.732   9.520   9.788 -0.4665  0.2303 -1.5121
 1997SOL    HW213107   0.676   9.391   9.844  1.3344 -0.0626 -0.3062
 1998SOL     OW13108   1.006  11.804   2.990  0.4453  0.0529  0.0527
 1998SOL    HW113109   1.003  11.717   3.030 -1.5623 -0.2125 -0.5651
 1998SOL    HW213110   1.091  11.807   2.946  0.8840 -1.2834  0.7545
 1999SOL     OW13111   2.938  10.489   2.116 -0.3957 -0.0806  0.2062
 1999SOL    HW113112   2.929  10.395   2.128 -0.1032 -0.1008  0.2781
 1999SOL    HW213113   2.923  10.503   2.023  0.3717 -0.2971  0.0482
 2000SOL     OW13114   2.593   7.552   4.727 -0.3529  0.0309  0.2865
 2000SOL    HW113115   2.618   7.461   4.741  1.8023  0.5533  0.1353
 2000SOL    HW213116   2.561   7.554   4.636 -1.9008 -0.8212  0.7696
 2001SOL     OW13117   3.886  11.995   1.712  0.3761 -0.5069  0.1698
 2001SOL    HW113118   3.884  11.932   1.640 -1.3431 -0.8072  0.4517
 2001SOL    HW213119   3.871  11.943   1.791 -1.0600  0.2158  0.4114
 2002SOL     OW13120   7.490   3.109   5.054 -0.3580  0.4220  0.3400
 2002SOL    HW113121   7.485   3.202   5.029  0.2413  0.4975  0.4794
 2002SOL    HW213122   7.568   3.077   5.008 -0.9621 -0.1921 -0.2672
 2003SOL     OW13123   8.503  11.574   3.640  0.0902 -0.2402  0.2312
 2003SOL    HW113124   8.518  11.480   3.648 -0.4171 -0.4226 -0.8514
 2003SOL    HW213125   8.545  11.598   3.558  0.6942  0.5948  0.7601
 2004SOL     OW13126   9.853   5.037  12.734 -0.0900  0.0174 -0.1487
 2004SOL    HW113127   9.806   4.990  12.665  0.5914 -1.3287  0.2515
 2004SOL    HW213128   9.850   4.978  12.809  2.2261 -0.1662 -0.1150
 2005SOL     OW13129   7.142   4.421  12.680 -0.0885 -0.0825  0.3772
 2005SOL    HW113130   7.067   4.476  12.705 -0.0328  0.0603  0.2307
 2005SOL    HW213131   7.103   4.348  12.633  0.0547  1.6249 -2.6831
 2006SOL     OW13132   3.174  10.233   5.037 -0.8723  0.3110  0.4650
 2006SOL    HW113133   3.226  10.192   4.969 -1.0789 -0.8724  0.9906
 2006SOL    HW213134   3.123  10.161   5.075  0.7938  0.4515  3.2931
 2007SOL     OW13135   5.909   3.608   2.782 -0.0091  0.4114  0.0654
 2007SOL    HW113136   5.948   3.652   2.858  1.1936  1.8953 -1.3257
 2007SOL    HW213137   5.827   3.654   2.767 -0.4817 -0.1887  0.6911
 2008SOL     OW13138   7.985   4.391   4.226  0.4343  0.3470  0.6864
 2008SOL    HW113139   7.922   4.323   4.251  1.5708 -1.4617 -1.1307
 2008SOL    HW213140   7.930   4.468   4.208 -1.2066 -0.9260 -0.0516
 2009SOL     OW13141   8.694   8.534   0.786  0.2753  0.5555  0.3180
 2009SOL    HW113142   8.762   8.560   0.848 -0.3305 -0.2000  1.3148
 2009SOL    HW213143   8.655   8.617   0.758  1.1294  0.9515  0.2742
 2010SOL     OW13144  12.761   4.743   8.165 -0.6991  0.1081 -0.4259
 2010SOL    HW113145  12.687   4.751   8.225 -0.8829 -0.6145 -0.5555
 2010SOL    HW213146  12.747   4.660   8.120  1.2970 -1.1246  1.0660
 2011SOL     OW13147  10.655   1.902   1.679 -0.7953  0.3680  0.5736
 2011SOL    HW113148  10.732   1.952   1.652 -0.5434 -0.9632 -1.3869
 2011SOL    HW213149  10.674   1.877   1.770  1.4797 -0.5226 -0.0576
 2012SOL     OW13150  11.186   4.382   5.179  0.2767  0.4527  0.0645
 2012SOL    HW113151  11.267   4.335   5.196  0.5534  0.1135 -1.9023
 2012SOL    HW213152  11.119   4.314   5.174 -0.0238  0.6646  0.9628
 2013SOL     OW13153   6.508   1.154   5.164  0.1479 -0.4654  0.0810
 2013SOL    HW113154   6.525   1.100   5.087  1.9024 -0.1287  0.1847
 2013SOL    HW213155   6.488   1.241   5.129 -1.9555 -0.9536 -0.0580
 2014SOL     OW13156  10.696   8.858   3.986 -0.3961  0.1139  0.1032
 2014SOL    HW113157  10.624   8.904   3.944 -0.7464  1.4053  1.9954
 2014SOL    HW213158  10.752   8.830   3.914 -2.8621 -1.1651 -1.4486
 2015SOL     OW13159   2.064  12.083  10.623  0.2225  0.6095  0.0600
 2015SOL    HW113160   2.090  12.165  10.664  0.5473  0.5113  0.0551
 2015SOL    HW213161   1.969  12.080  10.633  0.0473  1.5818 -1.0496
 2016SOL     OW13162   7.800   6.596  12.414 -0.1684 -0.1029 -0.8026
 2016SOL    HW113163   7.738   6.542  12.464 -1.2003  1.4399 -0.3187
 2016SOL    HW213164   7.745   6.665  12.376  1.1712  0.9985 -0.8115
 2017SOL     OW13165  11.425   4.983   3.987  0.0424  0.1078  0.9110
 2017SOL    HW113166  11.505   5.010   3.942  0.7672 -2.7292  0.2725
 2017SOL    HW213167  11.371   5.061   3.989  1.9852  1.5909 -0.5205
 2018SOL     OW13168   8.705   6.588   2.785  0.0587  0.0646  0.5397
 2018SOL    HW113169   8.714   6.560   2.694 -0.1996 -0.0057  0.5353
 2018SOL    HW213170   8.742   6.516   2.836 -1.0562 -0.5254  0.5522
 2019SOL     OW13171   1.424  11.602   7.742 -0.3145  0.0909 -0.0905
 2019SOL    HW113172   1.480  11.624   7.816  1.1872  0.0955 -1.1876
 2019SOL    HW213173   1.484  11.575   7.673 -1.7301 -0.8603 -1.0095
 2020SOL     OW13174  12.335   6.203   9.067 -0.0347 -0.3677 -0.4777
 2020SOL    HW113175  12.341   6.294   9.096  0.4704 -1.3432  2.9864
 2020SOL    HW213176  12.259   6.169   9.113 -0.1561 -1.7581 -1.6387
 2021SOL     OW13177   2.380   7.613   7.837  1.0521  0.2903 -0.2084
 2021SOL    HW113178   2.308   7.553   7.858  0.6096  0.7533 -0.3803
 2021SOL    HW213179   2.384   7.612   7.741  1.2127  0.3421 -0.2023
 2022SOL     OW13180   3.732   2.277  10.046 -0.2306  0.1445  0.0424
 2022SOL    HW113181   3.785   2.354  10.071 -0.5716  0.4845 -0.2638
 2022SOL    HW213182   3.651   2.286  10.097 -0.3708  0.1182 -0.1756
 2023SOL     OW13183   2.903   0.858  12.491  0.2724 -0.2142  0.8014
 2023SOL    HW113184   2.878   0.842  12.582  1.6001  0.5977  1.3391
 2023SOL    HW213185   2.888   0.952  12.478  0.5547 -0.2320  0.3296
 2024SOL     OW13186  10.208   0.383   5.460 -0.3390 -0.4671 -0.1848
 2024SOL    HW113187  10.271   0.445   5.424  0.2819 -1.2155 -0.3971
 2024SOL    HW213188  10.149   0.364   5.386 -0.6583  0.0134 -0.0626
 2025SOL     OW13189   1.278   3.603   4.073  0.2469  0.3490  0.5064
 2025SOL    HW113190   1.201   3.651   4.105 -1.6743 -1.2065 -1.4823
 2025SOL    HW213191   1.351   3.662   4.089 -1.3718  2.0201  2.2617
 2026SOL     OW13192   7.724   3.616   6.826 -0.3218  0.1548  0.2491
 2026SOL    HW113193   7.818   3.608   6.842 -0.4471  0.3050  1.1127
 2026SOL    HW213194   7.694   3.526   6.813  0.0633  0.1660 -0.8172
 2027SOL     OW13195  10.537   1.398  11.189  0.6201 -0.6179  0.2019
 2027SOL    HW113196  10.442   1.403  11.183  0.5562 -1.1297  0.7119
 2027SOL    HW213197  10.566   1.489  11.188  0.0185 -0.3790  1.5479
 2028SOL     OW13198   5.757  11.113  10.310 -0.2693  0.2306  0.1756
 2028SOL    HW113199   5.802  11.091  10.228  1.7966  1.8285  0.8103
 2028SOL    HW213200   5.802  11.061  10.376 -0.5584  0.4986  0.5820
 2029SOL     OW13201   9.553   3.786   7.894 -0.8314  0.0514 -0.0316
 2029SOL    HW113202   9.493   3.835   7.951 -0.4835 -0.4189  0.7577
 2029SOL    HW213203   9.608   3.852   7.853 -0.8356  0.3731  0.4784
 2030SOL     OW13204   1.324   6.754  10.976 -0.0714 -0.6401  0.9010
 2030SOL    HW113205   1.307   6.791  10.889 -1.0036  0.4712  1.5299
 2030SOL    HW213206   1.251   6.785  11.030  1.0561 -0.3918  2.3512
 2031SOL     OW13207   1.879   9.860  10.260 -0.3920  0.2021  0.3119
 2031SOL    HW113208   1.828   9.815  10.193  0.9770 -1.6207  0.4096
 2031SOL    HW213209   1.915   9.790  10.315 -1.5461  1.6084  3.0760
 2032SOL     OW13210   2.468  12.327   5.259  0.5451 -0.0337 -0.0688
 2032SOL    HW113211   2.463  12.232   5.271  0.3071  0.2254  2.1610
 2032SOL    HW213212   2.378  12.358   5.270  0.9697  0.6725  1.6660
 2033SOL     OW13213   5.533   2.381   1.684 -0.4515  0.8219 -0.0988
 2033SOL    HW113214   5.610   2.357   1.633  0.2433 -2.4108  2.1613
 2033SOL    HW213215   5.521   2.475   1.668  2.4826  0.9227 -2.3770
 2034SOL     OW13216   3.827   9.451   2.018 -0.4928 -0.1804  0.1005
 2034SOL    HW113217   3.920   9.433   2.012  0.1979  0.9037  4.1051
 2034SOL    HW213218   3.809   9.513   1.948  1.5455 -1.1310 -1.3370
 2035SOL     OW13219   7.774   4.530  10.593  0.0567  0.1068 -0.5701
 2035SOL    HW113220   7.758   4.594  10.663  0.5685  1.1197 -1.3524
 2035SOL    HW213221   7.849   4.479  10.624  0.7484  1.0310 -0.6926
 2036SOL     OW13222   9.622   4.181   2.808  0.5219  0.2249 -0.2019
 2036SOL    HW113223   9.643   4.100   2.856 -0.1538  0.7143  0.9695
 2036SOL    HW213224   9.686   4.184   2.737  0.4960 -1.3988 -0.3467
 2037SOL     OW13225   5.080  10.468  11.900  0.6867  0.1814 -0.4685
 2037SOL    HW113226   5.004  10.448  11.953  0.5292  0.5870 -0.5366
 2037SOL    HW213227   5.149  10.490  11.963  1.1662 -1.5221 -0.3437
 2038SOL     OW13228   9.417  11.846   8.417  0.1198  0.0913 -0.1589
 2038SOL    HW113229   9.430  11.855   8.512 -0.1127  0.6533 -0.1777
 2038SOL    HW213230   9.505  11.831   8.382  0.2471  0.2148  0.1069
 2039SOL     OW13231   4.406   0.554  12.065  0.0632 -0.3750 -0.0062
 2039SOL    HW113232   4.476   0.540  12.129  1.7214  0.5049 -1.5557
 2039SOL    HW213233   4.399   0.472  12.018 -0.4876 -0.6980  0.6077
 2040SOL     OW13234  10.962   3.533  12.006  0.3415 -0.4193  0.5765
 2040SOL    HW113235  10.872   3.523  11.976  0.1962  0.7550  0.5595
 2040SOL    HW213236  11.010   3.463  11.962 -0.2990 -0.1528 -0.5983
 2041SOL     OW13237   9.116   9.574  11.989 -0.1922 -0.3372 -0.1323
 2041SOL    HW113238   9.201   9.595  11.952 -0.6468  1.3140 -0.3219
 2041SOL    HW213239   9.087   9.497  11.940 -0.4688  1.3474 -2.8793
 2042SOL     OW13240   2.562   1.478   6.289 -0.5922  0.9059 -0.2378
 2042SOL    HW113241   2.543   1.546   6.354 -0.5094  0.6487  0.0554
 2042SOL    HW213242   2.557   1.524   6.205 -1.3018  1.1115 -0.0915
 2043SOL     OW13243   4.506  11.572   1.044  0.5750  0.1620 -0.4256
 2043SOL    HW113244   4.602  11.569   1.049  0.9049  1.0156 -3.8549
 2043SOL    HW213245   4.483  11.512   0.973 -0.9883  2.8381 -2.3821
 2044SOL     OW13246   4.759   2.805   9.912 -0.1044  0.3969  0.3580
 2044SOL    HW113247   4.827   2.738   9.920  0.2381  0.6758 -0.1287
 2044SOL    HW213248   4.807   2.888   9.919 -0.5536  0.5895  1.1654
 2045SOL     OW13249   5.660   6.373  12.594  0.3413 -0.1324 -0.0833
 2045SOL    HW113250   5.735   6.366  12.654  0.7585  2.4312 -0.2047
 2045SOL    HW213251   5.593   6.418  12.645 -0.2494 -0.2471 -0.7450
 2046SOL     OW13252  12.121  10.783  10.477  0.1001  0.1494 -0.4030
 2046SOL    HW113253  12.160  10.746  10.398  0.1020  0.3099 -0.4774
 2046SOL    HW213254  12.195  10.796  10.537  0.2980  1.2588 -0.8579
 2047SOL     OW13255   1.378  10.441   2.657  0.0551 -0.6554 -0.2803
 2047SOL    HW113256   1.470  10.418   2.650 -0.1225 -1.1899 -0.8890
 2047SOL    HW213257   1.377  10.518   2.715  0.9181 -0.3580 -0.6518
 2048SOL     OW13258   8.391   6.621   2.271  0.1772  0.0869 -0.2050
 2048SOL    HW113259   8.354   6.696   2.223  1.4407  0.1765 -1.0721
 2048SOL    HW213260   8.414   6.558   2.203 -1.3286 -1.3563  0.5418
 2049SOL     OW13261   5.705   5.748  10.435 -0.1808 -0.1997 -0.4108
 2049SOL    HW113262   5.732   5.679  10.495 -0.8941  1.8992  2.5444
 2049SOL    HW213263   5.610   5.757  10.449 -0.2515  0.7801 -1.3596
 2050SOL     OW13264   3.571   7.614   6.742  0.2896  0.5118  0.1768
 2050SOL    HW113265   3.521   7.633   6.821 -1.2036 -2.7914  0.2180
 2050SOL    HW213266   3.572   7.697   6.693 -0.8578  1.9982  2.5085
 2051SOL     OW13267   3.904   8.100   5.854 -0.1363 -0.6535 -0.0448
 2051SOL    HW113268   3.900   8.195   5.856 -0.9348 -0.5553 -2.4055
 2051SOL    HW213269   3.814   8.072   5.873 -1.1238 -0.6347 -3.8633
 2052SOL     OW13270   2.502   6.013   3.875  0.2911 -0.0358  0.0416
 2052SOL    HW113271   2.408   6.016   3.861  0.4192  2.6881 -0.8568
 2052SOL    HW213272   2.539   6.052   3.795  2.0539  0.6429  1.1352
 2053SOL     OW13273   8.068   1.157   6.183  0.2471 -0.1542  0.1327
 2053SOL    HW113274   8.043   1.249   6.192  0.2534 -0.2539  1.3767
 2053SOL    HW213275   8.013   1.124   6.112  0.9003  1.0207 -0.9822
 2054SOL     OW13276   7.934   3.751   7.980  0.1356  0.4331 -0.2647
 2054SOL    HW113277   8.016   3.794   8.002  0.5509  0.0282 -0.9511
 2054SOL    HW213278   7.910   3.788   7.895  0.6805 -0.8979 -1.0302
 2055SOL     OW13279   0.410  12.613   1.271  0.7169  0.6273 -0.7249
 2055SOL    HW113280   0.346  12.543   1.282  1.4941 -0.4987 -2.8288
 2055SOL    HW213281   0.420  12.650   1.359 -1.9541  0.1247 -0.1287
 2056SOL     OW13282   6.619   0.820   7.979  0.6245  0.0167  0.0457
 2056SOL    HW113283   6.584   0.829   8.068  2.2157 -0.6330  0.7714
 2056SOL    HW213284   6.615   0.909   7.943 -1.4072  0.0399  0.1751
 2057SOL     OW13285   2.776   0.950   7.550 -0.4965  0.3296  0.0558
 2057SOL    HW113286   2.708   1.017   7.539 -0.8507  0.1857  1.2457
 2057SOL    HW213287   2.728   0.868   7.549 -0.3034  0.2073  0.5817
 2058SOL     OW13288   4.543   4.369  12.504  0.9376  0.0441 -0.2660
 2058SOL    HW113289   4.483   4.439  12.476  0.8588  0.1965  0.2679
 2058SOL    HW213290   4.486   4.304  12.545  1.0338 -0.2491 -0.5937
 2059SOL     OW13291   6.622   1.102   2.638  0.0415  0.3574 -0.5300
 2059SOL    HW113292   6.700   1.058   2.673 -1.9653 -2.2706  1.0457
 2059SOL    HW213293   6.644   1.120   2.547  2.5542 -0.0801 -0.0943
 2060SOL     OW13294   5.271  12.591   4.971 -0.3455  0.4845  0.4600
 2060SOL    HW113295   5.261  12.675   5.016  1.5996  1.2779 -0.4856
 2060SOL    HW213296   5.187  12.579   4.925 -0.7852  1.7315  0.8924
 2061SOL     OW13297   8.531   3.073   4.833 -0.0670 -0.3537  0.0355
 2061SOL    HW113298   8.602   3.022   4.873 -0.4801 -1.6441 -0.8000
 2061SOL    HW213299   8.570   3.111   4.755 -0.1846 -0.7854 -0.2407
 2062SOL     OW13300   1.569   2.701   9.116 -0.3663  0.7237  0.0305
 2062SOL    HW113301   1.536   2.719   9.205  1.7873 -0.1194  1.0749
 2062SOL    HW213302   1.494   2.664   9.070 -0.9103 -1.3612  2.3502
 2063SOL     OW13303   3.228  11.213   6.154 -0.0126 -0.4480  0.0357
 2063SOL    HW113304   3.217  11.135   6.207 -0.0945 -0.2487  0.3147
 2063SOL    HW213305   3.322  11.232   6.158  0.2527 -1.3653 -1.2277
 2064SOL     OW13306   5.743   0.059   4.481  0.0279 -0.0973 -0.3681
 2064SOL    HW113307   5.761   0.146   4.445  1.0492  0.1945  0.7747
 2064SOL    HW213308   5.703   0.076   4.566 -2.0644 -0.7756 -1.1428
 2065SOL     OW13309   4.173   3.722  11.033  0.0544 -0.1322  0.4072
 2065SOL    HW113310   4.084   3.734  11.065  0.6445 -0.2361  2.1640
 2065SOL    HW213311   4.191   3.801  10.982 -0.6926  0.3467  0.8803
 2066SOL     OW13312   5.291  11.217   3.434 -0.0234 -0.3481 -0.1667
 2066SOL    HW113313   5.229  11.241   3.366  0.5846  0.5398 -0.4173
 2066SOL    HW213314   5.368  11.270   3.417  0.8531 -1.4944  0.0837
 2067SOL     OW13315   6.780   1.915  10.166  0.4867  0.4101 -0.3453
 2067SOL    HW113316   6.691   1.914  10.201  0.4318 -0.3405 -0.4756
 2067SOL    HW213317   6.829   1.859  10.225  0.3876 -0.9014 -1.4476
 2068SOL     OW13318   5.623   0.816   5.704 -0.2974  0.1991  0.0511
 2068SOL    HW113319   5.567   0.739   5.714  1.4373 -1.5262 -2.1628
 2068SOL    HW213320   5.683   0.812   5.779 -0.6616 -0.2299  0.3236
 2069SOL     OW13321   4.395  12.521  11.905 -0.2702 -0.4957 -0.2300
 2069SOL    HW113322   4.355  12.437  11.928  0.2843 -0.2027  2.0866
 2069SOL    HW213323   4.387  12.574  11.984  1.1435  0.9549 -0.9902
 2070SOL     OW13324   1.833   0.814   8.690 -0.4605  0.1358  0.1284
 2070SOL    HW113325   1.739   0.831   8.691 -0.2217  1.4986  0.8916
 2070SOL    HW213326   1.859   0.813   8.782  0.3721  0.3212 -0.0942
 2071SOL     OW13327   2.450  12.753   5.296  0.0807 -0.0269 -0.4930
 2071SOL    HW113328   2.469  12.717   5.210  2.6511  0.8653 -0.3895
 2071SOL    HW213329   2.423  12.843   5.279 -2.4331 -0.6938 -0.4851
 2072SOL     OW13330   4.064   3.748   1.451  0.3521 -0.1226 -0.5112
 2072SOL    HW113331   4.156   3.761   1.474  0.3865 -0.0614 -0.6816
 2072SOL    HW213332   4.023   3.832   1.471  0.8355  0.7712 -2.9263
 2073SOL     OW13333  12.343   9.595   3.719  0.0824  0.1659  0.0949
 2073SOL    HW113334  12.292   9.587   3.638  0.7729 -1.2586 -0.2202
 2073SOL    HW213335  12.279   9.624   3.784 -0.8853 -0.4088 -0.5697
 2074SOL     OW13336   7.040   8.227   8.341  0.4263  0.1312  0.0816
 2074SOL    HW113337   7.100   8.154   8.354 -0.3432 -0.9941 -2.0520
 2074SOL    HW213338   7.096   8.303   8.329  1.2716 -0.2165  1.6312
 2075SOL     OW13339   2.926   6.203  11.190  0.1193 -0.5608  0.2986
 2075SOL    HW113340   2.981   6.265  11.236 -1.0126  1.0628 -0.4394
 2075SOL    HW213341   2.885   6.151  11.259 -0.7039  1.0893  1.1153
 2076SOL     OW13342   3.721   5.600   4.338  0.6636  0.5049  0.2603
 2076SOL    HW113343   3.663   5.647   4.398  1.2584  0.6412  0.7393
 2076SOL    HW213344   3.721   5.653   4.258 -0.2800  0.2209  0.0658
 2077SOL     OW13345   2.396  12.110  11.765  0.0940 -0.1214 -0.1080
 2077SOL    HW113346   2.339  12.185  11.780 -0.6515 -0.8525  0.8681
 2077SOL    HW213347   2.462  12.116  11.833  3.1043  2.3468 -2.8849
 2078SOL     OW13348   1.663  12.869   1.798 -0.2870 -0.7726 -0.0105
 2078SOL    HW113349   1.626  12.785   1.825 -1.1067 -0.4413 -0.0771
 2078SOL    HW213350   1.643  12.875   1.704  1.5670 -1.4136 -0.4877
 2079SOL     OW13351   5.690   2.340   7.889  0.4094 -0.5257  0.7779
 2079SOL    HW113352   5.770   2.356   7.939  0.3080 -1.3558  1.2308
 2079SOL    HW213353   5.640   2.279   7.944 -1.5714  1.6859  1.6233
 2080SOL     OW13354   2.393   3.335   3.788 -0.7689 -0.0623  0.4011
 2080SOL    HW113355   2.358   3.286   3.713 -0.1151 -0.4482  0.3412
 2080SOL    HW213356   2.454   3.398   3.749  2.0957 -2.4082  0.7673
 2081SOL     OW13357   5.509   1.963   1.115  0.7687  0.1656  0.0833
 2081SOL    HW113358   5.467   2.046   1.096  1.1742  0.1376 -0.9993
 2081SOL    HW213359   5.436   1.900   1.122  0.4172  0.6859  1.4881
 2082SOL     OW13360   1.112   9.351   4.159 -0.0784  0.3321  0.3015
 2082SOL    HW113361   1.137   9.433   4.117  0.0817  0.0975 -0.0667
 2082SOL    HW213362   1.169   9.344   4.236 -1.3426  1.4713  1.4018
 2083SOL     OW13363   8.744   1.546   2.354  0.3024  0.5227 -0.4643
 2083SOL    HW113364   8.796   1.560   2.433  0.6383  1.3876 -0.8239
 2083SOL    HW213365   8.709   1.458   2.363 -0.8248  1.1032  1.3194
 2084SOL     OW13366  11.207   7.847   7.068 -0.0862  0.3369  0.1053
 2084SOL    HW113367  11.234   7.912   7.003 -0.0038  0.5489  0.3492
 2084SOL    HW213368  11.217   7.763   7.023  1.6870  0.3536  0.4111
 2085SOL     OW13369   9.037   5.682   6.227  0.6562  0.0487  0.0282
 2085SOL    HW113370   9.083   5.739   6.166 -1.5572  2.0897  0.0884
 2085SOL    HW213371   9.049   5.723   6.312  0.9275 -0.8689  0.4353
 2086SOL     OW13372  12.462   1.662   3.363 -0.2816  0.1313  0.4480
 2086SOL    HW113373  12.552   1.651   3.393 -0.9336 -0.0537  2.4790
 2086SOL    HW213374  12.434   1.575   3.334  0.3458  0.3038 -0.7280
 2087SOL     OW13375  11.326   1.453   0.219  0.1541 -0.2219 -0.4015
 2087SOL    HW113376  11.253   1.408   0.176 -0.3742 -0.0785  0.3247
 2087SOL    HW213377  11.284   1.508   0.285  0.9092  0.0563 -0.1460
 2088SOL     OW13378   5.263  10.039   6.981 -0.0185  0.7689  0.4947
 2088SOL    HW113379   5.203   9.968   7.002 -0.2592 -0.4032 -3.4191
 2088SOL    HW213380   5.210  10.100   6.930  1.2332  1.5946  0.1439
 2089SOL     OW13381   7.636   1.398   5.129 -0.6866 -0.1014 -0.4327
 2089SOL    HW113382   7.582   1.476   5.145 -0.1201 -0.2013  2.6120
 2089SOL    HW213383   7.574   1.325   5.134 -0.8197  0.0026 -0.5708
 2090SOL     OW13384  12.292   2.597   9.401 -0.6573  0.0313 -0.2046
 2090SOL    HW113385  12.337   2.526   9.355 -0.4839  0.3989 -0.6137
 2090SOL    HW213386  12.287   2.568   9.492 -2.6548 -1.5320 -0.7681
 2091SOL     OW13387  11.474   8.891   5.966  0.0133  0.1575 -0.0297
 2091SOL    HW113388  11.498   8.838   5.889 -1.6370 -0.6261 -0.0585
 2091SOL    HW213389  11.495   8.981   5.940 -1.0747 -0.0152 -1.6718
 2092SOL     OW13390  12.930   2.062  12.332  0.7549  0.4228  0.7629
 2092SOL    HW113391  12.947   2.123  12.260  1.6193 -1.0374 -0.3358
 2092SOL    HW213392  12.844   2.026  12.312  1.6549 -1.1857 -0.5407
 2093SOL     OW13393   4.243   4.382   8.310  0.6972 -0.0559 -0.5424
 2093SOL    HW113394   4.173   4.418   8.365  0.4839 -0.8122 -0.3061
 2093SOL    HW213395   4.306   4.453   8.302  1.1626 -0.1844  1.4386
 2094SOL     OW13396  12.642   7.441   8.679  0.2314  0.2151 -0.0935
 2094SOL    HW113397  12.615   7.459   8.768 -3.4621 -0.8961 -0.8252
 2094SOL    HW213398  12.563   7.455   8.626  1.4343 -2.0910 -2.7662
 2095SOL     OW13399   3.448  10.667   9.512 -0.4208  0.5754  0.1055
 2095SOL    HW113400   3.481  10.609   9.443 -0.1631  1.6974 -0.7414
 2095SOL    HW213401   3.516  10.665   9.579  1.1073  2.2616 -1.2804
 2096SOL     OW13402   8.762   1.807   3.698  0.5937 -0.1063  0.0950
 2096SOL    HW113403   8.718   1.766   3.772 -0.9775  2.5981  0.7828
 2096SOL    HW213404   8.838   1.851   3.737 -0.1288  1.1651  0.0937
 2097SOL     OW13405   1.342   7.757  11.687 -0.0828 -0.6100 -0.0283
 2097SOL    HW113406   1.289   7.696  11.635  1.2801 -2.1100  0.2326
 2097SOL    HW213407   1.347   7.836  11.634 -4.0675  0.3580  0.7390
 2098SOL     OW13408  12.044   1.085  12.331  0.4322 -0.1794  0.2328
 2098SOL    HW113409  12.093   1.105  12.410  0.9458 -1.3882  0.2361
 2098SOL    HW213410  12.047   1.166  12.279  0.1464  0.5956  1.4022
 2099SOL     OW13411   7.762   7.035  11.772 -0.0197 -0.7281  0.2675
 2099SOL    HW113412   7.766   6.940  11.777 -3.1774 -1.2589 -2.9157
 2099SOL    HW213413   7.695   7.060  11.836 -0.3729 -0.8823 -0.0350
 2100SOL     OW13414  10.337   1.520  10.525  0.5264 -0.0677 -0.0575
 2100SOL    HW113415  10.282   1.516  10.447  0.4293  0.7071 -0.0350
 2100SOL    HW213416  10.364   1.429  10.540  0.3659 -0.2558 -0.8567
 2101SOL     OW13417  11.315   2.449   1.073 -0.0856 -1.0131 -0.2891
 2101SOL    HW113418  11.319   2.363   1.115  0.5266 -0.9498 -0.1960
 2101SOL    HW213419  11.377   2.502   1.123 -0.4083 -0.5363 -0.3900
 2102SOL     OW13420   3.097  10.832  11.510  0.1235 -0.0895  0.2620
 2102SOL    HW113421   3.012  10.825  11.466 -0.1450 -1.4783  0.9520
 2102SOL    HW213422   3.159  10.792  11.449  0.5144  1.8079 -0.6921
 2103SOL     OW13423   6.947   3.045   2.204  0.1002  0.1341  0.0193
 2103SOL    HW113424   6.979   3.023   2.291 -0.4182 -2.9212 -0.4463
 2103SOL    HW213425   7.022   3.032   2.146 -0.1180 -0.0109 -0.2371
 2104SOL     OW13426  11.658   2.339   6.806 -0.2343 -0.5096 -0.7708
 2104SOL    HW113427  11.605   2.317   6.882 -1.6808 -1.8630 -2.1046
 2104SOL    HW213428  11.693   2.426   6.826 -1.8781 -0.1394  0.7473
 2105SOL     OW13429   0.875   5.149  10.935 -0.2722  0.2604  0.0701
 2105SOL    HW113430   0.913   5.102  11.009  1.0785  0.1895 -0.6227
 2105SOL    HW213431   0.927   5.119  10.860 -1.9507 -0.0839 -0.9970
 2106SOL     OW13432  10.944   8.243   0.290  0.3521  0.1950 -0.3118
 2106SOL    HW113433  10.939   8.300   0.213  1.0674  0.0197 -0.4973
 2106SOL    HW213434  10.889   8.167   0.268 -1.3547  1.1842  0.2964
 2107SOL     OW13435   5.558   2.638   7.985  0.6024  0.2263 -0.1493
 2107SOL    HW113436   5.609   2.680   8.054  0.6147  1.4154 -0.8512
 2107SOL    HW213437   5.592   2.548   7.981  0.3973  0.0391  1.5555
 2108SOL     OW13438   5.838   0.542  11.196  0.3093  0.0691 -0.5138
 2108SOL    HW113439   5.826   0.541  11.101 -0.5631  1.5304 -0.4466
 2108SOL    HW213440   5.927   0.508  11.209  0.5899  0.2081 -1.8745
 2109SOL     OW13441   0.044   0.983   3.240  0.4013 -0.0777 -0.0299
 2109SOL    HW113442  -0.010   1.062   3.242  1.6420  0.7874  0.1819
 2109SOL    HW213443   0.055   0.960   3.332  0.3637 -0.2819 -0.0757
 2110SOL     OW13444  11.605   3.587   1.442 -0.3410 -0.3045 -0.1546
 2110SOL    HW113445  11.672   3.655   1.446  0.1256 -0.7442 -0.4242
 2110SOL    HW213446  11.654   3.505   1.442 -0.8931 -0.6354 -0.0376
 2111SOL     OW13447   7.010   3.984   3.525  0.0918 -0.2129 -0.0930
 2111SOL    HW113448   7.002   3.908   3.582 -0.1634 -0.6673 -0.7281
 2111SOL    HW213449   6.969   4.055   3.575  1.9345 -0.0490  1.2661
 2112SOL     OW13450   9.279   2.708  11.869  0.1087  0.0251  0.1280
 2112SOL    HW113451   9.208   2.772  11.863  1.4273  1.4086 -2.5610
 2112SOL    HW213452   9.352   2.757  11.908  0.1407 -0.8905  1.2725
 2113SOL     OW13453  11.910   3.304   2.886 -0.5711  1.1049  0.7311
 2113SOL    HW113454  11.815   3.299   2.872 -0.3980  2.0050 -1.0970
 2113SOL    HW213455  11.947   3.248   2.818  0.2556  2.5848 -0.0802
 2114SOL     OW13456   4.727   5.997  10.458 -0.7388  0.2294  0.1899
 2114SOL    HW113457   4.645   6.045  10.447 -1.4661 -0.5143  1.9578
 2114SOL    HW213458   4.718   5.953  10.542  1.1044 -0.6442 -0.0133
 2115SOL     OW13459   2.651   7.051   3.030 -0.2396 -0.4147  0.5526
 2115SOL    HW113460   2.609   7.076   2.948 -0.5256 -1.5909  0.3289
 2115SOL    HW213461   2.625   6.960   3.044  0.9473 -0.6722  1.2332
 2116SOL     OW13462   0.260   7.725   8.076  0.2143 -0.0415  0.1317
 2116SOL    HW113463   0.353   7.747   8.076  0.0315  0.7743  0.3192
 2116SOL    HW213464   0.256   7.636   8.040  1.0265  0.0840 -0.2932
 2117SOL     OW13465   9.101   4.322   0.866 -0.2181 -0.1285 -0.1927
 2117SOL    HW113466   9.074   4.413   0.857 -0.1204  0.3107  2.9997
 2117SOL    HW213467   9.022   4.271   0.848 -1.4863  0.8498  2.1887
 2118SOL     OW13468  10.139  11.544  11.760 -0.5502 -0.4152  0.4595
 2118SOL    HW113469  10.166  11.475  11.821  0.3040 -1.2671 -0.8293
 2118SOL    HW213470  10.190  11.621  11.786 -0.0371 -0.8327  0.6888
 2119SOL     OW13471   3.816  11.728  10.448  0.1563 -0.0575 -0.0832
 2119SOL    HW113472   3.768  11.752  10.369 -2.4451 -0.2327  1.3346
 2119SOL    HW213473   3.748  11.705  10.512  1.9719  1.9848  2.8544
 2120SOL     OW13474   5.419   0.818  10.863 -0.3141 -0.0612  0.1549
 2120SOL    HW113475   5.423   0.856  10.775  1.3372 -1.0730 -0.2479
 2120SOL    HW213476   5.385   0.730  10.850  0.8946 -0.5777  0.3708
 2121SOL     OW13477   3.837  11.620   6.109 -0.3344  0.4503  0.1418
 2121SOL    HW113478   3.828  11.551   6.043 -1.1916  1.7250 -1.1637
 2121SOL    HW213479   3.927  11.612   6.140 -0.1889 -0.7726 -0.5163
 2122SOL     OW13480   2.069   1.911   8.884  0.5689 -0.0660 -0.4922
 2122SOL    HW113481   2.002   1.883   8.822  0.4429 -0.9471  0.0279
 2122SOL    HW213482   2.035   1.993   8.921  0.7045  0.5305 -1.6589
 2123SOL     OW13483  10.589   3.150   9.063  0.0709 -0.0775 -0.1517
 2123SOL    HW113484  10.559   3.101   8.987  0.6219 -1.6752  0.5999
 2123SOL    HW213485  10.681   3.124   9.073 -0.2112 -0.5663  1.5082
 2124SOL     OW13486   3.026   2.236   4.483  0.4954 -0.3551  0.0341
 2124SOL    HW113487   2.941   2.200   4.508 -0.0392  0.2072 -0.9420
 2124SOL    HW213488   3.088   2.164   4.499  0.0308 -0.4169  1.8073
 2125SOL     OW13489   0.470   1.670   3.150 -0.1494 -0.6938  0.1571
 2125SOL    HW113490   0.384   1.709   3.167 -1.2159 -2.1981 -1.4534
 2125SOL    HW213491   0.512   1.666   3.236 -0.6543  2.3114  0.6372
 2126SOL     OW13492   2.095  11.565   1.469 -0.0937 -0.7687 -0.2039
 2126SOL    HW113493   2.025  11.627   1.490 -0.4830 -1.0190 -0.7498
 2126SOL    HW213494   2.157  11.574   1.541 -0.5693 -0.3681  0.1610
 2127SOL     OW13495   5.885   7.043   2.277  0.2348  0.4411 -0.4832
 2127SOL    HW113496   5.795   7.026   2.249 -0.2482  0.8900  0.7114
 2127SOL    HW213497   5.885   7.135   2.305  0.4283 -0.1572  1.7088
 2128SOL     OW13498   6.262   1.661   3.013 -0.0792  0.5307 -0.6140
 2128SOL    HW113499   6.254   1.569   3.034  0.8880  0.4300 -0.6590
 2128SOL    HW213500   6.187   1.702   3.055 -0.1176 -0.1696  0.0146
 2129SOL     OW13501   2.979   3.610   1.248  0.1652  0.6254 -0.4199
 2129SOL    HW113502   3.061   3.574   1.214  0.0170 -0.7526  0.5816
 2129SOL    HW213503   2.989   3.705   1.241  1.9616  0.4995 -0.0609
 2130SOL     OW13504   5.862   8.701   6.042  0.0064  0.0278  0.2390
 2130SOL    HW113505   5.929   8.671   6.104 -2.1067 -1.0329  2.1563
 2130SOL    HW213506   5.827   8.781   6.082 -0.5510  0.0285 -0.2401
 2131SOL     OW13507   9.469  10.711   8.227 -0.3259 -0.1599 -0.6669
 2131SOL    HW113508   9.437  10.794   8.193  0.3697  0.6839  0.6747
 2131SOL    HW213509   9.435  10.706   8.316 -1.1351 -1.7731 -1.0263
 2132SOL     OW13510   3.381  10.566   3.364 -0.3803  0.1933  0.5279
 2132SOL    HW113511   3.336  10.597   3.286  0.1582  1.5530  0.7236
 2132SOL    HW213512   3.331  10.604   3.437  0.0157  0.2266  0.7885
 2133SOL     OW13513   4.696  11.905  10.652 -0.3123  0.5033  0.9620
 2133SOL    HW113514   4.772  11.912  10.594 -0.0492 -0.5434  1.1705
 2133SOL    HW213515   4.731  11.923  10.740 -0.3760  0.3954  1.0098
 2134SOL     OW13516   0.737   5.110  12.722  0.2506 -0.2824 -0.3548
 2134SOL    HW113517   0.734   5.169  12.797  1.1308 -0.6557 -0.0180
 2134SOL    HW213518   0.827   5.079  12.719  0.5399  0.5952 -2.2467
 2135SOL     OW13519   1.985  12.910   8.712  0.4238 -0.0437 -0.6262
 2135SOL    HW113520   1.973  12.845   8.643  1.1547  0.2014 -0.9860
 2135SOL    HW213521   2.055  12.875   8.767  0.8906  0.4901 -0.8814
 2136SOL     OW13522   2.677   0.743  10.971 -0.0293  0.5711 -0.3496
 2136SOL    HW113523   2.629   0.709  10.896  1.4523  0.6343 -1.3602
 2136SOL    HW213524   2.640   0.697  11.046 -1.6052  0.5726 -1.0793
 2137SOL     OW13525   4.212   9.366   7.359  0.4536  0.1614 -0.2734
 2137SOL    HW113526   4.293   9.315   7.354  0.5509  0.2563  0.2690
 2137SOL    HW213527   4.193   9.372   7.453 -0.8761 -0.9414 -0.4546
 2138SOL     OW13528   6.360   8.746   5.090  0.2814 -0.1224  0.8584
 2138SOL    HW113529   6.371   8.715   5.000  1.8653  0.7511  0.7238
 2138SOL    HW213530   6.394   8.835   5.090  0.3497 -0.1158  2.3416
 2139SOL     OW13531   1.880   3.583   6.144 -0.0565 -0.1087 -0.3173
 2139SOL    HW113532   1.903   3.538   6.225 -0.5504  1.2954  0.6488
 2139SOL    HW213533   1.805   3.535   6.110 -0.5331 -0.0824  0.6568
 2140SOL     OW13534   5.891  10.221   0.882 -0.1660 -0.3041  0.2327
 2140SOL    HW113535   5.930  10.308   0.871 -1.2949  0.2855  0.8024
 2140SOL    HW213536   5.856  10.199   0.796 -1.8498  0.7957  0.5945
 2141SOL     OW13537   6.548   5.984   8.536  0.1538  0.0524 -0.0753
 2141SOL    HW113538   6.534   6.023   8.450 -0.1369 -0.4472 -0.2573
 2141SOL    HW213539   6.616   6.039   8.576 -0.6433  1.0948 -0.0923
 2142SOL     OW13540   4.718   2.196   6.837 -0.1234 -0.0990 -0.2416
 2142SOL    HW113541   4.627   2.204   6.812 -0.1065  0.3747 -0.1644
 2142SOL    HW213542   4.716   2.184   6.932 -0.0777  0.6445 -0.1407
 2143SOL     OW13543   6.725   7.061  12.452  0.4473 -0.1205  0.3244
 2143SOL    HW113544   6.774   7.029  12.528  1.0785 -1.7001 -0.6964
 2143SOL    HW213545   6.650   7.106  12.490  2.0453  1.3745  1.9227
 2144SOL     OW13546   9.094   3.932   1.129 -0.4938 -0.1815  0.0277
 2144SOL    HW113547   9.086   3.883   1.046  0.8044  0.5139 -0.5434
 2144SOL    HW213548   9.160   3.884   1.178  1.2385  1.2477 -0.7857
 2145SOL     OW13549   4.709  11.347   5.539 -0.1477  0.1649 -0.0604
 2145SOL    HW113550   4.744  11.385   5.459 -0.9282 -0.8230 -0.8941
 2145SOL    HW213551   4.623  11.387   5.549 -0.7940 -1.0168 -0.7076
 2146SOL     OW13552   2.028   8.450  12.135  0.1733 -0.1968  0.2367
 2146SOL    HW113553   2.049   8.373  12.083  0.5890  0.8283 -1.2109
 2146SOL    HW213554   2.114   8.486  12.159 -0.0194 -0.8069  1.8893
 2147SOL     OW13555   4.166   2.217   0.162 -0.1315  0.8834 -0.6089
 2147SOL    HW113556   4.229   2.265   0.108  1.0430 -1.1176 -1.0954
 2147SOL    HW213557   4.086   2.215   0.109  0.4985  0.3677 -1.5493
 2148SOL     OW13558  11.289   5.474   6.245 -0.4245 -0.4984  0.2371
 2148SOL    HW113559  11.270   5.381   6.251 -0.0782 -0.7269 -1.7152
 2148SOL    HW213560  11.289   5.493   6.151  0.2027  1.3203  0.5676
 2149SOL     OW13561  12.966   2.591   8.593  0.6777  0.7043 -0.0840
 2149SOL    HW113562  12.943   2.602   8.685  0.9376 -0.8997  0.1932
 2149SOL    HW213563  12.965   2.680   8.558  1.1339  1.4130  1.5926
 2150SOL     OW13564  10.021   6.289   4.221  0.3377  0.0827  0.2688
 2150SOL    HW113565  10.112   6.313   4.234  0.7268 -1.7464  1.1957
 2150SOL    HW213566  10.017   6.260   4.129  0.2228  1.8947 -0.3468
 2151SOL     OW13567  11.427  10.528   4.902  0.1115  0.5046 -0.0537
 2151SOL    HW113568  11.337  10.555   4.882  0.3973  1.1593 -0.5036
 2151SOL    HW213569  11.427  10.512   4.996 -0.2024  1.6073  0.1493
 2152SOL     OW13570   6.849   1.689  10.369  0.5492  0.2873 -0.4149
 2152SOL    HW113571   6.787   1.648  10.429  2.3575 -1.6489  0.2414
 2152SOL    HW213572   6.885   1.763  10.417 -0.6453  0.9654 -0.5248
 2153SOL     OW13573   5.618  12.486  10.342 -0.4664  0.1646  0.2112
 2153SOL    HW113574   5.688  12.422  10.351 -0.7532 -0.5903 -2.1466
 2153SOL    HW213575   5.538  12.436  10.357 -0.5812  0.9863  2.7380
 2154SOL     OW13576   3.773   3.376   7.661  0.0560  0.6137 -0.2513
 2154SOL    HW113577   3.735   3.293   7.633  1.7087 -1.1485  2.2976
 2154SOL    HW213578   3.831   3.401   7.589  1.7138 -2.0049  0.0427
 2155SOL     OW13579   6.012   2.330   1.621 -0.3956  0.1719 -0.2067
 2155SOL    HW113580   6.047   2.261   1.564 -0.4819  0.4614 -0.6233
 2155SOL    HW213581   6.089   2.367   1.664 -0.5689 -2.1577  2.3803
 2156SOL     OW13582  11.766   3.987   9.201  0.1939  0.4793  0.4896
 2156SOL    HW113583  11.843   3.976   9.144 -1.1932 -0.8432 -1.2284
 2156SOL    HW213584  11.716   3.907   9.190 -1.3028  1.1839  1.8202
 2157SOL     OW13585   1.049   3.359   7.130 -0.1546  0.5876 -0.1132
 2157SOL    HW113586   0.984   3.386   7.066  0.7694 -2.0312 -2.3704
 2157SOL    HW213587   1.030   3.267   7.148 -1.1387  1.4230  4.5426
 2158SOL     OW13588   3.649   3.467   8.146  0.5069  0.1785  0.3304
 2158SOL    HW113589   3.674   3.375   8.158 -2.3246 -0.6809  0.2808
 2158SOL    HW213590   3.660   3.484   8.053  0.7969 -0.1894  0.2977
 2159SOL     OW13591  10.585   0.769   0.536 -0.1604  0.0612  0.1512
 2159SOL    HW113592  10.596   0.675   0.521 -0.1601 -0.2217  1.8283
 2159SOL    HW213593  10.491   0.780   0.548 -0.1699  0.3011 -0.1335
 2160SOL     OW13594   7.685   0.173   0.481 -0.0854 -0.1168  0.1394
 2160SOL    HW113595   7.733   0.240   0.531  3.0556 -2.6910  0.9919
 2160SOL    HW213596   7.716   0.184   0.391 -2.2573  1.6209 -0.4934
 2161SOL     OW13597  10.837   6.504   6.331  0.1557  0.1030 -0.0923
 2161SOL    HW113598  10.783   6.458   6.395  0.7828 -0.0142  0.3546
 2161SOL    HW213599  10.897   6.438   6.297 -1.8809 -0.5488 -2.7964
 2162SOL     OW13600   0.540   5.240   0.185 -0.3939  0.1634 -0.5971
 2162SOL    HW113601   0.479   5.168   0.175  0.1363 -0.2732 -0.7244
 2162SOL    HW213602   0.512   5.285   0.264 -0.4853 -0.4155 -0.2996
 2163SOL     OW13603   4.594   0.529   2.398  0.2778 -0.2618  0.6139
 2163SOL    HW113604   4.576   0.440   2.369 -0.5840 -0.3778  1.4466
 2163SOL    HW213605   4.669   0.557   2.346  0.1876 -1.2596 -0.0731
 2164SOL     OW13606   3.595   2.267   5.239 -0.4146 -0.8950 -0.0725
 2164SOL    HW113607   3.563   2.241   5.325  2.1693 -2.6199  0.4813
 2164SOL    HW213608   3.622   2.359   5.250 -1.5380 -0.6131  0.4733
 2165SOL     OW13609   5.176   7.718  12.219  0.3009  0.0904  0.1944
 2165SOL    HW113610   5.225   7.636  12.230  1.2657  0.3791 -1.5633
 2165SOL    HW213611   5.135   7.709  12.133 -0.7670  0.8859  0.6028
 2166SOL     OW13612  11.666   2.268  12.767  0.3407 -0.2233  0.0014
 2166SOL    HW113613  11.663   2.208  12.841  1.0990  1.3150  1.3497
 2166SOL    HW213614  11.677   2.355  12.807 -2.6732  1.1070 -1.7467
 2167SOL     OW13615   0.606   4.404   1.879  0.0426  0.1534  0.3144
 2167SOL    HW113616   0.524   4.403   1.830  0.0754  0.7876  0.2347
 2167SOL    HW213617   0.626   4.312   1.895 -1.1952  0.0028  1.1891
 2168SOL     OW13618   9.656   7.827  10.557  0.4924 -0.2460 -0.2966
 2168SOL    HW113619   9.564   7.848  10.547  0.2745 -1.1164 -0.1704
 2168SOL    HW213620   9.696   7.910  10.585 -0.4255 -0.1028  0.6813
 2169SOL     OW13621  12.441   4.942   0.779 -0.3594 -0.2149 -0.2566
 2169SOL    HW113622  12.468   5.025   0.818 -0.2448 -0.6675  0.6522
 2169SOL    HW213623  12.449   4.956   0.685 -0.6301  0.9016 -0.1251
 2170SOL     OW13624   8.253  12.942   5.243 -0.0622 -0.0480 -0.0908
 2170SOL    HW113625   8.307  12.873   5.282  0.2289 -0.1551 -0.6712
 2170SOL    HW213626   8.286  12.951   5.153 -1.8113 -1.0076 -0.8920
 2171SOL     OW13627  10.956   5.206   5.846  0.1252 -0.5425 -0.2029
 2171SOL    HW113628  11.001   5.124   5.864 -0.9297 -0.8977  1.0524
 2171SOL    HW213629  10.968   5.258   5.926  0.7941  0.5447 -0.9885
 2172SOL     OW13630   6.747  12.474  10.118  0.1074  0.0753  0.3077
 2172SOL    HW113631   6.711  12.545  10.065 -2.2130 -0.3724  1.1749
 2172SOL    HW213632   6.839  12.470  10.093 -0.2623  1.7414 -1.5687
 2173SOL     OW13633   5.227   7.785  11.776  0.4932 -0.1198 -0.0404
 2173SOL    HW113634   5.269   7.704  11.804  0.7368  0.0817  0.1911
 2173SOL    HW213635   5.148   7.757  11.730 -1.1071 -0.4326  2.6879
 2174SOL     OW13636   6.704  12.755   2.873  0.0013  0.2941 -0.2447
 2174SOL    HW113637   6.774  12.799   2.825 -0.0318 -0.7237 -1.2705
 2174SOL    HW213638   6.658  12.702   2.807 -1.1148  0.1670  0.5918
 2175SOL     OW13639   7.397   6.145   1.838 -0.2970  0.1989 -0.0262
 2175SOL    HW113640   7.408   6.176   1.748  0.0062 -2.0293 -0.8200
 2175SOL    HW213641   7.305   6.162   1.858 -0.9230 -1.0908 -1.5476
 2176SOL     OW13642   5.831  12.501  10.626  0.3167  0.0411 -0.3794
 2176SOL    HW113643   5.793  12.478  10.541 -1.3166  1.6342 -0.1282
 2176SOL    HW213644   5.916  12.456  10.627  0.2565 -0.2472 -2.7244
 2177SOL     OW13645   2.913   0.478   8.615  0.0088 -0.1249  0.2239
 2177SOL    HW113646   2.884   0.390   8.637  0.3633 -0.9174 -2.1909
 2177SOL    HW213647   2.986   0.465   8.555 -0.5849  1.7836 -1.0195
 2178SOL     OW13648  12.600  10.566   5.799 -0.0051  0.4387 -0.0847
 2178SOL    HW113649  12.599  10.627   5.725 -1.2031 -1.6282 -1.9222
 2178SOL    HW213650  12.538  10.497   5.774 -0.6707 -0.2410  3.0245
 2179SOL     OW13651   6.459   9.318   3.550 -1.1494 -0.0723 -0.2845
 2179SOL    HW113652   6.538   9.278   3.587  0.2660  0.8358 -2.1439
 2179SOL    HW213653   6.440   9.267   3.471 -1.5227  0.6169 -0.6589
 2180SOL     OW13654   0.670   9.415   3.933  0.2422  0.5305 -0.1183
 2180SOL    HW113655   0.583   9.407   3.972  0.1980 -1.2563 -0.4648
 2180SOL    HW213656   0.721   9.464   3.997 -0.1851 -1.1741  1.6236
 2181SOL     OW13657  10.002   5.316   3.723  0.5483  0.3520 -0.2704
 2181SOL    HW113658   9.909   5.299   3.708  0.9207 -0.0829 -2.3902
 2181SOL    HW213659  10.043   5.303   3.638  2.6174  0.2433  0.6796
 2182SOL     OW13660   3.408   6.419   9.514 -0.0563 -0.2685 -0.4057
 2182SOL    HW113661   3.483   6.360   9.512 -0.5389 -0.9461  0.6515
 2182SOL    HW213662   3.357   6.396   9.436 -0.8832 -2.1495  0.6315
 2183SOL     OW13663   1.382   4.231   5.250  0.2606  0.6475 -0.0374
 2183SOL    HW113664   1.450   4.272   5.195  1.3089 -0.6032  0.2890
 2183SOL    HW213665   1.301   4.241   5.199  1.0165  0.4988 -1.3011
 2184SOL     OW13666   2.943   0.314   0.178  0.0940  0.3921 -0.0404
 2184SOL    HW113667   2.926   0.237   0.125  0.5189  0.6045 -0.4959
 2184SOL    HW213668   2.857   0.354   0.192 -0.1069 -0.0779  0.0742
 2185SOL     OW13669   9.042   8.169  12.317  0.0239 -0.0650 -0.3541
 2185SOL    HW113670   9.097   8.233  12.272 -0.1414 -0.2117 -0.7682
 2185SOL    HW213671   8.957   8.174  12.273 -1.3973  2.4831  2.3137
 2186SOL     OW13672   4.079   1.344   2.297  0.4024 -0.1841  0.6031
 2186SOL    HW113673   4.071   1.254   2.329  2.3494 -1.2328 -1.4829
 2186SOL    HW213674   4.000   1.388   2.326 -0.2744 -2.3747  2.3158
 2187SOL     OW13675   0.818   4.441   2.092 -0.2956  0.4216  0.1588
 2187SOL    HW113676   0.771   4.524   2.088 -0.1074  0.5932  1.1619
 2187SOL    HW213677   0.823   4.420   2.185 -0.3390 -0.7185 -0.0729
 2188SOL     OW13678   8.957  12.465   3.586 -0.8154 -0.3316 -0.3848
 2188SOL    HW113679   8.894  12.415   3.639 -1.9325  0.1597 -1.1945
 2188SOL    HW213680   8.954  12.422   3.500  0.9551 -1.1110 -0.0858
 2189SOL     OW13681   9.401   8.142   6.149  0.0474  0.0961 -0.1868
 2189SOL    HW113682   9.476   8.185   6.107 -0.6549  1.5199 -0.0383
 2189SOL    HW213683   9.373   8.076   6.085  0.2359  0.8743 -1.1054
 2190SOL     OW13684   5.799   9.844   7.073 -0.4147  0.4832 -0.7308
 2190SOL    HW113685   5.795   9.927   7.027  1.1739  0.1595 -1.5380
 2190SOL    HW213686   5.893   9.829   7.087 -0.7744  1.4283  4.2737
 2191SOL     OW13687   6.196  12.348   6.429  0.1817 -0.7945 -0.0878
 2191SOL    HW113688   6.274  12.299   6.406  1.6356  0.8980  0.9465
 2191SOL    HW213689   6.208  12.370   6.522 -1.4421 -0.3558  0.0476
 2192SOL     OW13690  11.638   2.495  12.950  0.2501 -0.0272 -0.2889
 2192SOL    HW113691  11.547   2.507  12.922  0.1200 -3.7338 -2.1573
 2192SOL    HW213692  11.631   2.469  13.042 -0.4032  1.0549 -0.0101
 2193SOL     OW13693   7.508   1.652  10.283  0.5182  0.4029 -0.2075
 2193SOL    HW113694   7.574   1.602  10.329 -0.0471 -0.0615  0.1116
 2193SOL    HW213695   7.537   1.654  10.192  0.5033 -0.5852 -0.2434
 2194SOL     OW13696  10.097  10.935  10.172  0.4195  0.0723 -0.0351
 2194SOL    HW113697  10.134  10.848  10.189  0.9576  0.4156  0.5883
 2194SOL    HW213698  10.050  10.957  10.252  0.2735  0.3548 -0.1963
 2195SOL     OW13699   0.129   2.725   7.887  0.6494 -0.6999  0.2791
 2195SOL    HW113700   0.162   2.717   7.976  0.4689  0.2339  0.4348
 2195SOL    HW213701   0.165   2.649   7.841  2.0816 -0.3200  0.7247
 2196SOL     OW13702  12.327   6.829   9.579 -0.3275  0.0369  0.3596
 2196SOL    HW113703  12.351   6.794   9.665  1.1816  1.0564  0.3963
 2196SOL    HW213704  12.336   6.924   9.588 -0.0594  0.1587 -0.9255
 2197SOL     OW13705  12.156   3.163   9.297  0.2705  0.2288 -0.6588
 2197SOL    HW113706  12.152   3.099   9.226  1.4043  0.6696 -1.1543
 2197SOL    HW213707  12.249   3.184   9.305  0.2932 -0.4994  1.6134
 2198SOL     OW13708   5.671  12.546  12.395  0.0027 -0.4493  0.1935
 2198SOL    HW113709   5.604  12.484  12.422  0.2500 -0.4762  0.7621
 2198SOL    HW213710   5.717  12.569  12.476  1.3976 -1.2647 -0.3261
 2199SOL     OW13711   9.405   6.953   7.427 -0.1492 -0.1667 -0.1949
 2199SOL    HW113712   9.490   6.910   7.423  0.2472  0.5430  0.4602
 2199SOL    HW213713   9.383   6.956   7.520 -0.7037  0.0117 -0.3267
 2200SOL     OW13714   5.226   7.733   1.294  0.0336 -0.3161 -0.5965
 2200SOL    HW113715   5.272   7.815   1.274  0.9246 -0.5020  0.5687
 2200SOL    HW213716   5.223   7.730   1.389 -2.2087 -0.4586 -0.6283
 2201SOL     OW13717   1.188   0.678   3.637  0.2740  0.3281 -0.2247
 2201SOL    HW113718   1.110   0.663   3.691  0.4470  2.6790  0.7901
 2201SOL    HW213719   1.170   0.759   3.590  0.5821 -1.0990 -3.0090
 2202SOL     OW13720   2.260   1.107  10.650 -0.6654  0.0679  0.3028
 2202SOL    HW113721   2.274   1.119  10.744 -0.9121  0.6569  0.2731
 2202SOL    HW213722   2.347   1.089  10.614 -0.6054 -0.3984  0.6740
 2203SOL     OW13723   6.735  12.888  11.152 -0.5767 -0.6332  0.2366
 2203SOL    HW113724   6.647  12.921  11.167  0.2556  2.4742 -0.9142
 2203SOL    HW213725   6.745  12.887  11.057  0.8627 -0.1691  0.3603
 2204SOL     OW13726   2.840   6.855   9.276  0.0232 -0.2181  0.2788
 2204SOL    HW113727   2.792   6.815   9.349  0.3657 -1.4990 -0.1811
 2204SOL    HW213728   2.795   6.825   9.198 -0.2031  0.9710 -0.0639
 2205SOL     OW13729   5.163   2.986   5.874  0.1733 -0.1512  0.3481
 2205SOL    HW113730   5.102   2.915   5.889  0.6142 -0.4052  0.9604
 2205SOL    HW213731   5.235   2.945   5.826 -0.5790  0.3559 -1.2862
 2206SOL     OW13732   2.367   5.841   7.417 -0.8128 -0.4315  0.9508
 2206SOL    HW113733   2.380   5.886   7.333 -0.4336 -0.7078  0.8611
 2206SOL    HW213734   2.402   5.902   7.482 -0.0298 -0.7235  0.8027
 2207SOL     OW13735   3.247   0.116   7.576 -0.3600 -0.8092  0.4148
 2207SOL    HW113736   3.260   0.063   7.497  1.0429  0.5033 -0.2892
 2207SOL    HW213737   3.335   0.147   7.598 -0.8121 -0.6879  2.1857
 2208SOL     OW13738   8.742   5.440  12.713 -0.2706 -0.4538 -0.2040
 2208SOL    HW113739   8.690   5.416  12.637 -2.0326  0.7523  0.5662
 2208SOL    HW213740   8.773   5.528  12.694  1.3834 -1.0588 -0.5447
 2209SOL     OW13741   3.596   4.577   2.201 -0.1452 -0.2748 -0.4323
 2209SOL    HW113742   3.666   4.641   2.217  0.1864 -0.3451 -1.5320
 2209SOL    HW213743   3.635   4.493   2.224  0.6450 -0.4880 -2.3616
 2210SOL     OW13744   6.299  10.807   1.407 -0.6069 -0.1339  0.0692
 2210SOL    HW113745   6.289  10.729   1.460 -2.3060 -0.7317 -1.0377
 2210SOL    HW213746   6.393  10.813   1.389 -0.4885 -2.1978 -0.1985
 2211SOL     OW13747   0.223   8.342   7.114  0.2573 -0.4336  0.6921
 2211SOL    HW113748   0.207   8.380   7.028  0.1153  0.9967  1.3034
 2211SOL    HW213749   0.310   8.303   7.108 -0.0981 -1.0891 -0.3316
 2212SOL     OW13750  11.522   5.917  11.428  0.1769 -0.3977  0.2244
 2212SOL    HW113751  11.574   5.836  11.424 -1.4008 -1.4134 -0.9003
 2212SOL    HW213752  11.437   5.890  11.462 -0.5819  0.6605 -0.7385
 2213SOL     OW13753   6.443   1.904   8.601 -0.0190  0.2171  0.0569
 2213SOL    HW113754   6.463   1.969   8.534  2.2249  0.7418  1.1335
 2213SOL    HW213755   6.509   1.835   8.587 -2.9570 -2.5196 -1.7482
 2214SOL     OW13756   3.355   8.779   1.002 -0.2763 -0.1340  0.1144
 2214SOL    HW113757   3.360   8.723   0.925  0.4297 -2.2895  1.6398
 2214SOL    HW213758   3.441   8.771   1.044 -0.4917  1.3225  0.9271
 2215SOL     OW13759  12.215   0.196   2.657 -0.1795 -0.2458  0.7398
 2215SOL    HW113760  12.137   0.242   2.688 -0.5477 -1.3076  1.4357
 2215SOL    HW213761  12.288   0.251   2.686 -0.6365  0.4194  0.6549
 2216SOL     OW13762  11.359   2.071   9.953  0.8112  0.1390 -0.1077
 2216SOL    HW113763  11.366   2.002   9.888  0.6008  0.7008 -0.7384
 2216SOL    HW213764  11.448   2.104   9.964  0.7948  0.2701 -0.3660
 2217SOL     OW13765  12.501  11.160   2.356 -0.0481  0.3596 -1.0582
 2217SOL    HW113766  12.562  11.220   2.398  1.4578 -0.6080 -1.7466
 2217SOL    HW213767  12.557  11.101   2.305 -1.6316  0.1292 -2.6593
 2218SOL     OW13768   6.677   9.692  10.763  0.4403 -0.0163 -0.0155
 2218SOL    HW113769   6.666   9.647  10.847 -1.0885 -0.1373 -0.2512
 2218SOL    HW213770   6.753   9.748  10.776  1.5924 -1.6554  0.7182
 2219SOL     OW13771   1.429   0.842   7.032  0.2521  0.2320 -0.3097
 2219SOL    HW113772   1.492   0.879   6.970  0.7374 -0.1714 -0.0604
 2219SOL    HW213773   1.462   0.755   7.053 -0.3895  0.0083 -0.1752
 2220SOL     OW13774   3.896   5.258   0.575 -0.0555 -0.0065 -0.3480
 2220SOL    HW113775   3.838   5.325   0.540  2.4247  1.7402 -1.4112
 2220SOL    HW213776   3.914   5.286   0.665 -0.5614 -0.3494 -0.1379
 2221SOL     OW13777  12.375   3.481   1.482 -0.5347 -0.4352 -0.6190
 2221SOL    HW113778  12.334   3.473   1.568  0.0323 -0.3790 -0.3377
 2221SOL    HW213779  12.403   3.391   1.461 -0.5336 -0.4222 -0.6730
 2222SOL     OW13780   0.071  11.748   7.880  0.0662  0.1015  0.7321
 2222SOL    HW113781   0.091  11.833   7.918 -0.1034  0.3474  0.2742
 2222SOL    HW213782   0.043  11.694   7.954  2.5966 -0.3269  1.4655
 2223SOL     OW13783   1.959   5.698  12.633 -0.3981  0.0391  0.3365
 2223SOL    HW113784   1.910   5.642  12.573  0.2198 -0.8538  0.6527
 2223SOL    HW213785   1.972   5.780  12.585  1.9407 -1.3523 -1.6374
 2224SOL     OW13786   0.547   9.025  12.002 -0.3575 -0.1865 -0.2653
 2224SOL    HW113787   0.614   9.093  11.998 -1.7363  1.1565 -1.9069
 2224SOL    HW213788   0.538   8.995  11.912 -2.0580 -0.2000 -0.1217
 2225SOL     OW13789   2.687  10.697   9.342 -0.4017 -0.0499 -0.0184
 2225SOL    HW113790   2.741  10.622   9.368 -2.0973 -1.1301  0.6099
 2225SOL    HW213791   2.737  10.774   9.368  1.0026 -0.9835  0.1263
 2226SOL     OW13792  12.576  12.607   5.800 -0.4181 -0.3777  0.0549
 2226SOL    HW113793  12.627  12.586   5.722  1.9944  0.0481  1.4152
 2226SOL    HW213794  12.593  12.534   5.860  2.0066  1.6308  2.0349
 2227SOL     OW13795   6.877   7.772   7.970  0.1742  0.0205 -0.4240
 2227SOL    HW113796   6.787   7.747   7.991 -0.2137  1.3787 -0.3726
 2227SOL    HW213797   6.882   7.767   7.875 -0.1912  0.6743 -0.4818
 2228SOL     OW13798   1.719   4.485   4.381 -0.4929  0.2803  0.1279
 2228SOL    HW113799   1.739   4.436   4.461 -0.6702 -0.2169 -0.1260
 2228SOL    HW213800   1.789   4.551   4.375 -0.3707  0.1989  0.5865
 2229SOL     OW13801  10.179   7.346   1.438  0.2191  0.7093 -0.0891
 2229SOL    HW113802  10.232   7.396   1.500  2.6350 -0.1521 -1.3258
 2229SOL    HW213803  10.100   7.324   1.487  1.4531  1.1532  2.2678
 2230SOL     OW13804  11.222   5.421   6.933 -0.4085 -0.2280 -0.5399
 2230SOL    HW113805  11.241   5.330   6.956 -1.1475  0.2655  2.3467
 2230SOL    HW213806  11.302   5.451   6.890 -0.4046 -2.3733 -2.2407
 2231SOL     OW13807  12.520   2.263   4.213 -0.2567 -0.3037  0.1034
 2231SOL    HW113808  12.545   2.353   4.234 -1.2446 -0.2474  1.1540
 2231SOL    HW213809  12.454   2.271   4.144  0.7544 -0.3208 -0.8867
 2232SOL     OW13810   0.537   9.544   9.106 -0.9111  0.1124 -0.0205
 2232SOL    HW113811   0.599   9.608   9.141 -0.4139 -0.8496  0.9053
 2232SOL    HW213812   0.583   9.504   9.032 -1.1968  0.7590 -0.5576
 2233SOL     OW13813  10.949   3.387   8.510 -0.1436 -0.0798 -0.0814
 2233SOL    HW113814  11.043   3.400   8.521 -0.3642  0.1131  1.9403
 2233SOL    HW213815  10.909   3.461   8.554 -1.2572 -0.4368 -0.4606
 2234SOL     OW13816   6.367   7.700  11.018 -0.7914  0.0867  0.4182
 2234SOL    HW113817   6.379   7.692  11.113 -1.5582  2.9281  0.8336
 2234SOL    HW213818   6.356   7.793  11.003  0.4270 -0.1549 -2.6527
 2235SOL     OW13819   3.643   7.851   5.249  0.6428  0.1465 -0.2808
 2235SOL    HW113820   3.678   7.899   5.173 -0.0146 -1.6018 -1.7537
 2235SOL    HW213821   3.692   7.769   5.249  0.2049 -0.1199  0.8472
 2236SOL     OW13822   8.921  11.555   6.555  1.0159  0.4019 -0.4146
 2236SOL    HW113823   8.904  11.466   6.586  2.1220  0.4656  0.4388
 2236SOL    HW213824   8.925  11.547   6.460 -1.7672  0.0722 -0.5815
 2237SOL     OW13825   1.535  11.523   2.429  0.2001  0.6703  0.2845
 2237SOL    HW113826   1.528  11.564   2.343  1.6137 -0.9324 -0.6712
 2237SOL    HW213827   1.609  11.568   2.471  2.3477 -1.2887 -1.1183
 2238SOL     OW13828  11.605   1.820   6.544  0.0095 -0.0298  0.0427
 2238SOL    HW113829  11.635   1.825   6.453 -3.5587  0.6915 -1.2497
 2238SOL    HW213830  11.657   1.886   6.590  0.3152  1.2505 -2.0079
 2239SOL     OW13831   0.889   6.597   5.066  0.0597  0.0367  0.1286
 2239SOL    HW113832   0.815   6.612   5.125  1.4580  1.9398  1.5101
 2239SOL    HW213833   0.936   6.523   5.104 -0.5494 -0.5064 -0.1674
 2240SOL     OW13834  12.864  12.339   6.496 -0.1067 -0.4607  0.1859
 2240SOL    HW113835  12.931  12.283   6.457  1.5691  2.3654 -1.2466
 2240SOL    HW213836  12.870  12.322   6.590  1.1251 -1.8034 -0.1050
 2241SOL     OW13837   7.173  12.062  12.785  0.0135 -0.4081  0.0619
 2241SOL    HW113838   7.208  12.129  12.725 -2.2000  0.0299 -0.8568
 2241SOL    HW213839   7.209  12.085  12.870  2.1391 -0.2019 -0.8291
 2242SOL     OW13840   7.741  12.930   4.863 -0.4010 -0.0183 -0.5590
 2242SOL    HW113841   7.725  13.011   4.815  1.1243  0.2397 -0.6537
 2242SOL    HW213842   7.775  12.869   4.797 -1.3056 -0.6842 -0.4395
 2243SOL     OW13843   5.945   6.605   6.591 -0.0272  0.6121 -0.3681
 2243SOL    HW113844   6.026   6.620   6.639 -0.0459 -1.4388  0.4224
 2243SOL    HW213845   5.972   6.556   6.513 -0.5479 -1.1342  0.4809
 2244SOL     OW13846   7.807   5.749   6.480  0.1188 -0.0157  0.3276
 2244SOL    HW113847   7.757   5.714   6.405  0.2094 -0.0733  0.2941
 2244SOL    HW213848   7.774   5.700   6.555 -0.2329  0.2980  0.3808
 2245SOL     OW13849  11.186  10.764  12.201 -0.2078 -0.2700 -0.0469
 2245SOL    HW113850  11.240  10.811  12.265 -1.1783  1.6848 -0.5704
 2245SOL    HW213851  11.115  10.824  12.181 -0.8088 -1.4649 -1.7805
 2246SOL     OW13852  10.383  10.535   2.779 -0.4061  0.3706  0.0646
 2246SOL    HW113853  10.371  10.445   2.749 -0.2491 -0.2216  1.7053
 2246SOL    HW213854  10.452  10.570   2.722 -0.1023 -0.7128 -0.2498
 2247SOL     OW13855   1.043   8.833   8.291 -0.1833 -0.4288 -0.5829
 2247SOL    HW113856   1.026   8.764   8.355  0.7756 -0.6909 -0.5894
 2247SOL    HW213857   0.972   8.825   8.227 -2.2967  1.0934  1.4192
 2248SOL     OW13858   4.136   2.880   8.942  0.2389 -0.9673  0.1354
 2248SOL    HW113859   4.191   2.826   9.000  1.6385  0.2440  0.0040
 2248SOL    HW213860   4.074   2.922   9.002 -0.0355 -1.7230  0.3986
 2249SOL     OW13861   6.968   8.803  10.229 -0.4620  0.5784 -0.6670
 2249SOL    HW113862   6.964   8.757  10.313 -2.1391  0.1947 -0.9269
 2249SOL    HW213863   6.881   8.843  10.219  0.3242  2.2558 -1.3274
 2250SOL     OW13864   3.392   4.294   3.711 -0.1331 -0.0753 -0.2144
 2250SOL    HW113865   3.316   4.353   3.706  1.4770  2.3654  1.6583
 2250SOL    HW213866   3.389   4.259   3.800  0.4285 -0.6764 -0.4285
 2251SOL     OW13867  11.737  12.836   6.734  0.3177  0.2283 -0.1731
 2251SOL    HW113868  11.689  12.866   6.811 -0.9134 -1.4444 -0.2493
 2251SOL    HW213869  11.797  12.908   6.714 -1.0610  1.7198  0.8588
 2252SOL     OW13870   3.494   2.501   2.183  0.2147  0.1278  0.0185
 2252SOL    HW113871   3.406   2.483   2.216 -0.4719  1.3849 -1.0497
 2252SOL    HW213872   3.525   2.416   2.153  0.0187 -0.6435  1.8257
 2253SOL     OW13873   0.080  10.514   5.440 -0.3000 -0.0071  0.0680
 2253SOL    HW113874   0.089  10.466   5.357  1.0212 -0.1484  0.2608
 2253SOL    HW213875   0.013  10.466   5.488 -1.4815  0.4001 -1.1212
 2254SOL     OW13876   2.664   0.914   7.944  0.1388 -0.1189 -0.2879
 2254SOL    HW113877   2.621   0.892   8.026  0.3462  0.3980 -0.0360
 2254SOL    HW213878   2.696   1.004   7.957  1.5216 -0.5779 -0.3712
 2255SOL     OW13879   8.261   0.267  12.950 -0.2232  0.1999  0.1170
 2255SOL    HW113880   8.306   0.273  13.035  0.9767 -0.3211 -0.4699
 2255SOL    HW213881   8.223   0.354  12.938 -0.8787  0.1205  1.4377
 2256SOL     OW13882   9.509   7.568   5.921  0.2416  0.1153  0.0252
 2256SOL    HW113883   9.512   7.483   5.875 -1.7987  0.1725 -0.2932
 2256SOL    HW213884   9.437   7.615   5.879 -0.5650  0.8553  2.1541
 2257SOL     OW13885   5.717  11.720   9.787  0.0711  0.3448 -0.0369
 2257SOL    HW113886   5.778  11.653   9.817  0.1761  0.4847  0.0658
 2257SOL    HW213887   5.738  11.797   9.840  2.3147  1.5490 -2.4721
 2258SOL     OW13888  10.273   2.704   0.624  0.3498  0.1009 -0.1249
 2258SOL    HW113889  10.194   2.666   0.660  1.2662 -1.7993 -0.0114
 2258SOL    HW213890  10.292   2.778   0.682 -0.7456 -0.0653  0.4785
 2259SOL     OW13891   1.853  11.893   6.807  0.0203  0.4947 -0.2728
 2259SOL    HW113892   1.831  11.827   6.872 -0.1147 -0.0338 -0.8380
 2259SOL    HW213893   1.816  11.860   6.725 -1.0201  1.8234 -0.3677
 2260SOL     OW13894   0.135   3.413   4.733 -0.0882 -1.0279 -0.4516
 2260SOL    HW113895   0.124   3.423   4.638 -0.3552  3.5017 -0.1703
 2260SOL    HW213896   0.229   3.418   4.747 -0.1449  1.0666 -0.4353
 2261SOL     OW13897   4.559  10.576  11.461 -0.2572  0.1163 -0.3786
 2261SOL    HW113898   4.594  10.523  11.533  0.6760  1.2142 -0.0016
 2261SOL    HW213899   4.614  10.654  11.459 -1.3194  0.8751 -1.2179
 2262SOL     OW13900   9.008   9.120   1.378 -0.2610  0.3874  0.4412
 2262SOL    HW113901   8.933   9.143   1.433 -0.8269  1.9980 -0.9127
 2262SOL    HW213902   9.001   9.179   1.303  2.5183  0.7500  0.3866
 2263SOL     OW13903   5.832   3.402  11.300 -0.0948 -0.1925  0.4716
 2263SOL    HW113904   5.895   3.425  11.231  0.1281  0.4116  0.8659
 2263SOL    HW213905   5.801   3.487  11.332 -2.3853 -0.4574 -0.8563
 2264SOL     OW13906   2.588   9.971  10.236  0.4058 -0.0128  0.1886
 2264SOL    HW113907   2.495   9.958  10.217 -0.0394 -1.4030  2.8597
 2264SOL    HW213908   2.590  10.049  10.292  0.8674  0.1074  0.0063
 2265SOL     OW13909   2.652   6.507   2.292 -0.0435  0.1035  0.0606
 2265SOL    HW113910   2.706   6.431   2.315  0.0401 -0.0885 -0.7445
 2265SOL    HW213911   2.702   6.552   2.223  0.2266  1.2710  0.9788
 2266SOL     OW13912   5.986   7.983   0.246 -0.6516 -0.2994 -0.0729
 2266SOL    HW113913   6.003   7.933   0.325  0.6354  2.1019  1.2810
 2266SOL    HW213914   5.899   7.955   0.218 -0.1940 -2.8663  0.8399
 2267SOL     OW13915   3.125   8.348   6.873 -0.0184 -0.6907  0.5408
 2267SOL    HW113916   3.101   8.268   6.920 -0.7378 -0.3630  0.7435
 2267SOL    HW213917   3.078   8.418   6.919  1.0410 -0.0657  0.7275
 2268SOL     OW13918  11.573  12.592   5.744 -0.2197  0.2873 -0.0849
 2268SOL    HW113919  11.660  12.620   5.717  0.4302 -1.8613 -0.3877
 2268SOL    HW213920  11.560  12.633   5.830  1.3469  0.1401  0.2393
 2269SOL     OW13921   9.084   7.278   0.395  0.2433  0.2590  0.4287
 2269SOL    HW113922   9.044   7.216   0.456  0.1902 -0.3358 -0.1997
 2269SOL    HW213923   9.009   7.328   0.360  0.1714 -0.0450  0.1444
 2270SOL     OW13924   8.307   9.589   7.984  0.2698 -0.0358 -0.0700
 2270SOL    HW113925   8.274   9.499   7.987  2.4770 -0.9162 -0.5381
 2270SOL    HW213926   8.344   9.603   8.071 -1.3383  0.9833  0.4889
 2271SOL     OW13927   2.353  10.659   6.387  0.1485  0.0533 -0.0202
 2271SOL    HW113928   2.296  10.700   6.322 -0.8701 -1.4120 -0.1100
 2271SOL    HW213929   2.383  10.578   6.345 -0.7486 -1.0529  1.3846
 2272SOL     OW13930   8.067   7.823   7.143  0.3139 -0.3767 -0.4739
 2272SOL    HW113931   8.147   7.824   7.195 -0.0156  1.5045  0.0738
 2272SOL    HW213932   7.997   7.816   7.208 -0.0190 -0.1549 -0.8073
 2273SOL     OW13933   4.042  11.062   2.247  0.4263  0.1614 -0.4469
 2273SOL    HW113934   4.064  10.974   2.216  0.9372  0.9407 -2.4513
 2273SOL    HW213935   3.986  11.047   2.324  0.9030 -1.8881 -0.4369
 2274SOL     OW13936  11.452   5.672   7.286 -0.0010  0.2605 -0.6595
 2274SOL    HW113937  11.450   5.670   7.381 -0.7624  1.8930 -0.6059
 2274SOL    HW213938  11.368   5.634   7.260 -0.1100  0.5041 -0.6604
 2275SOL     OW13939   4.924   2.464  12.852 -0.0584  0.1644  0.1331
 2275SOL    HW113940   4.997   2.403  12.868 -0.5431 -0.3989  0.2328
 2275SOL    HW213941   4.856   2.436  12.913 -0.4083  0.6072 -0.0524
 2276SOL     OW13942   6.427   3.715   8.977 -0.3348 -0.6086  0.2417
 2276SOL    HW113943   6.451   3.638   8.924 -1.4861 -1.1469  0.4530
 2276SOL    HW213944   6.331   3.710   8.982 -0.5032  1.2569 -0.3523
 2277SOL     OW13945  10.644   6.183   5.268 -0.1652 -0.1318  0.1173
 2277SOL    HW113946  10.557   6.170   5.231 -0.2782  1.0512 -0.0767
 2277SOL    HW213947  10.695   6.108   5.238 -1.5102 -1.6770  1.5482
 2278SOL     OW13948  10.116   5.614  11.711 -0.2438  0.5325  0.2363
 2278SOL    HW113949  10.112   5.670  11.789  1.0876  0.7646  0.1633
 2278SOL    HW213950  10.025   5.590  11.694 -0.6615  1.3070  1.2647
 2279SOL     OW13951  11.543  12.207   0.549 -0.9263 -0.3593 -0.2201
 2279SOL    HW113952  11.474  12.230   0.486 -1.8799 -1.5892  0.3155
 2279SOL    HW213953  11.620  12.191   0.495 -0.7200  2.0501 -0.7601
 2280SOL     OW13954   5.769   7.274   1.021  0.1564 -0.3716 -0.0386
 2280SOL    HW113955   5.860   7.257   0.997  0.9801 -0.5244  2.7835
 2280SOL    HW213956   5.739   7.192   1.060  0.0385  0.6619  2.2410
 2281SOL     OW13957   6.261   5.798   3.878 -0.5953 -0.0656  0.1165
 2281SOL    HW113958   6.326   5.854   3.835 -1.2262  0.7167  0.1679
 2281SOL    HW213959   6.302   5.711   3.879  1.2144  0.7359  1.7315
 2282SOL     OW13960   8.942   8.016   8.473 -0.2809  0.5013 -0.1579
 2282SOL    HW113961   8.884   7.979   8.407  1.1068 -0.7375 -0.7376
 2282SOL    HW213962   8.996   8.079   8.426 -0.3619  0.8043  0.1465
 2283SOL     OW13963  12.750   3.626   3.896  0.0223  0.4830  0.4698
 2283SOL    HW113964  12.661   3.641   3.863 -0.0685 -1.3661 -0.2830
 2283SOL    HW213965  12.764   3.695   3.960 -1.4818  1.5678 -0.3007
 2284SOL     OW13966   6.986   8.425   7.354 -0.2357  0.2418 -0.5502
 2284SOL    HW113967   6.966   8.441   7.447  0.3473 -0.0501 -0.3687
 2284SOL    HW213968   7.008   8.332   7.351 -0.4498  0.2053 -1.0224
 2285SOL     OW13969   5.672  12.776   5.657 -0.8288  0.2607  0.5185
 2285SOL    HW113970   5.691  12.869   5.670 -0.7562  0.9021 -3.0171
 2285SOL    HW213971   5.757  12.738   5.636 -0.9383 -0.5320  1.4803
 2286SOL     OW13972  12.054   1.675  10.002  0.8146 -0.7578  0.0778
 2286SOL    HW113973  12.132   1.730   9.998 -0.4535  1.1778  0.5751
 2286SOL    HW213974  12.017   1.678   9.914 -0.2631  0.8375  0.5260
 2287SOL     OW13975  11.480   1.235   1.911 -0.1321  0.0179  0.5589
 2287SOL    HW113976  11.492   1.140   1.910  1.9588  0.2471  0.5305
 2287SOL    HW213977  11.448   1.257   1.823  0.2355 -0.5543  0.2822
 2288SOL     OW13978   1.945   5.458   7.072 -0.4245 -0.7978  0.2211
 2288SOL    HW113979   1.994   5.517   7.129 -3.5684  0.8667  1.4637
 2288SOL    HW213980   1.909   5.391   7.130 -0.2217 -1.5957 -0.5376
 2289SOL     OW13981   0.686   6.116   3.457  0.5367  0.3860 -0.7139
 2289SOL    HW113982   0.727   6.202   3.451 -3.2845  2.5959  1.2658
 2289SOL    HW213983   0.614   6.119   3.394  0.1686 -1.3107 -0.4315
 2290SOL     OW13984   4.953  11.584   5.575 -0.3445 -0.4884  0.1459
 2290SOL    HW113985   5.033  11.627   5.607 -0.4903 -0.2122  0.1394
 2290SOL    HW213986   4.984  11.504   5.533  0.0537  0.2661 -1.0441
 2291SOL     OW13987   5.990   5.489   0.979  0.2177  0.2949  0.1537
 2291SOL    HW113988   6.011   5.466   1.070 -0.9877 -0.0616  0.3718
 2291SOL    HW213989   6.071   5.525   0.944  0.1396  2.6298  2.0590
 2292SOL     OW13990  11.614   7.578   8.129 -0.1055  0.0550 -0.4771
 2292SOL    HW113991  11.663   7.568   8.210  0.9507  3.3954 -0.5268
 2292SOL    HW213992  11.586   7.489   8.106  3.2331 -1.6505  1.2450
 2293SOL     OW13993   5.022   7.100  12.930  0.3396 -0.0816 -0.8692
 2293SOL    HW113994   5.116   7.093  12.913  0.8764  0.1412  1.5838
 2293SOL    HW213995   5.017   7.132  13.020 -2.1060  2.2063 -1.7008
 2294SOL     OW13996   3.956   4.140  10.250 -0.0307 -0.3603 -0.5141
 2294SOL    HW113997   4.033   4.086  10.228  0.2946 -0.1411  0.0660
 2294SOL    HW213998   3.892   4.077  10.284 -0.0760 -0.5314 -0.9116
 2295SOL     OW13999   5.350   6.443   7.282  0.0116 -0.7892 -0.8365
 2295SOL    HW114000   5.300   6.476   7.208 -0.1748 -1.1581 -0.8789
 2295SOL    HW214001   5.438   6.478   7.270 -0.4424  0.6153 -0.2831
 2296SOL     OW14002   8.265   7.926   1.219 -0.4834  0.6863 -0.4584
 2296SOL    HW114003   8.350   7.968   1.215 -0.2683  0.3679  0.5533
 2296SOL    HW214004   8.282   7.835   1.196 -0.6635  0.7695 -0.9252
 2297SOL     OW14005   9.609   4.482   8.375  0.2108  0.2532 -0.2401
 2297SOL    HW114006   9.552   4.530   8.315  1.1915  1.3840 -0.3050
 2297SOL    HW214007   9.662   4.550   8.417  0.3404 -0.6222  1.0613
 2298SOL     OW14008   8.322  10.847   1.644  0.2649 -0.7925  0.0120
 2298SOL    HW114009   8.290  10.937   1.640 -0.2446 -0.9751 -0.0242
 2298SOL    HW214010   8.274  10.808   1.718  0.7495 -0.9318  0.2617
 2299SOL     OW14011   1.886   6.850  10.782 -0.0183 -1.0687  0.6835
 2299SOL    HW114012   1.815   6.887  10.730  0.6967  0.7333  0.9345
 2299SOL    HW214013   1.966   6.871  10.733  0.3814 -3.2201  0.3106
 2300SOL     OW14014   2.718  10.861  10.399  0.1928  0.1807 -0.1314
 2300SOL    HW114015   2.727  10.809  10.319 -0.7597 -0.9775  0.5025
 2300SOL    HW214016   2.642  10.916  10.383 -0.2492 -0.3490  0.1340
 2301SOL     OW14017   7.756   2.577   5.764 -0.0093 -0.1935  0.4154
 2301SOL    HW114018   7.799   2.582   5.679 -1.1220 -0.1172 -0.1639
 2301SOL    HW214019   7.674   2.529   5.747 -0.7329  0.7039  1.2364
 2302SOL     OW14020   6.447  11.019   3.744 -0.1920  0.9669 -0.2010
 2302SOL    HW114021   6.395  11.099   3.745 -0.5458  0.7818  2.4568
 2302SOL    HW214022   6.513  11.033   3.812 -0.0816 -0.8777  0.1157
 2303SOL     OW14023   4.245   1.720   7.886 -0.0258  0.0165  0.3439
 2303SOL    HW114024   4.321   1.744   7.938 -0.5746  1.1455  0.6789
 2303SOL    HW214025   4.171   1.725   7.948 -0.2415 -2.3164  0.3458
 2304SOL     OW14026   9.412   7.201   9.349 -0.2297  0.6583 -0.3324
 2304SOL    HW114027   9.407   7.113   9.388  0.4929  1.0882  0.7756
 2304SOL    HW214028   9.322   7.219   9.320 -1.1260  0.7748  2.2193
 2305SOL     OW14029   6.616   7.163  12.024 -0.1400 -0.0302  0.4406
 2305SOL    HW114030   6.548   7.096  12.027 -0.8762  0.4863 -2.0652
 2305SOL    HW214031   6.572   7.243  12.055  0.1737 -0.2652  1.5316
 2306SOL     OW14032   2.246   4.807   1.831 -0.0425  0.2950  0.2378
 2306SOL    HW114033   2.172   4.862   1.859  1.8247  2.6749  0.8659
 2306SOL    HW214034   2.210   4.718   1.828 -2.9441  1.3459  0.3485
 2307SOL     OW14035  11.867   6.305   8.213  0.7197  0.4221 -0.2254
 2307SOL    HW114036  11.883   6.374   8.278  1.6257 -0.9608  1.0907
 2307SOL    HW214037  11.882   6.223   8.261  2.1438 -0.6623 -2.3533
 2308SOL     OW14038  11.230  12.475   6.478  0.4926 -0.1609  0.0544
 2308SOL    HW114039  11.168  12.449   6.410  1.3415 -2.6084  0.1077
 2308SOL    HW214040  11.198  12.432   6.558 -0.0526  2.0203  1.0835
 2309SOL     OW14041   0.003   1.359   6.787  0.2993  0.3877  0.0139
 2309SOL    HW114042  -0.056   1.304   6.839  2.3777 -0.5802  1.4958
 2309SOL    HW214043   0.050   1.411   6.852  0.0077  2.3359 -1.2311
 2310SOL     OW14044   4.969   9.611   3.561 -0.0963  0.5412 -0.2393
 2310SOL    HW114045   4.945   9.677   3.496 -2.1313 -0.1184 -0.2187
 2310SOL    HW214046   5.064   9.598   3.549 -0.4519  0.1016 -3.4097
 2311SOL     OW14047   8.381   3.261   2.794 -0.2039 -0.4419 -0.1144
 2311SOL    HW114048   8.341   3.252   2.708 -0.8369 -1.3033  0.2539
 2311SOL    HW214049   8.328   3.205   2.851 -1.1492  1.7432  1.2842
 2312SOL     OW14050   2.130   0.072   9.375 -0.1934  0.6115 -0.3868
 2312SOL    HW114051   2.068   0.035   9.312  0.9724 -1.0234 -0.6251
 2312SOL    HW214052   2.075   0.111   9.443 -1.5854 -2.4778  0.4094
 2313SOL     OW14053   5.253   2.227   3.659 -0.4772 -0.2321  0.6229
 2313SOL    HW114054   5.208   2.194   3.736 -0.7407  0.7317  0.9021
 2313SOL    HW214055   5.303   2.302   3.691  0.1294 -0.3725  0.0255
 2314SOL     OW14056   0.605  12.670   8.628  0.5365  0.3583  0.2408
 2314SOL    HW114057   0.627  12.747   8.680 -1.6947  0.5158  1.0839
 2314SOL    HW214058   0.526  12.695   8.581  1.9698 -0.1234 -2.6088
 2315SOL     OW14059   2.021  11.201   3.544 -0.6741  0.1055  0.7274
 2315SOL    HW114060   2.092  11.261   3.569 -0.3398  0.2039 -0.4176
 2315SOL    HW214061   2.044  11.172   3.456 -1.8338 -0.2253  0.5199
 2316SOL     OW14062   5.449  11.308   0.822  0.7657  0.3165  0.4835
 2316SOL    HW114063   5.525  11.283   0.874  0.3470  0.2873  1.1032
 2316SOL    HW214064   5.447  11.404   0.827  0.0531  0.2666  1.5375
 2317SOL     OW14065   1.222   4.805   9.090  0.0959  0.3261  0.0731
 2317SOL    HW114066   1.231   4.798   9.185  1.3223 -2.5050 -0.1396
 2317SOL    HW214067   1.143   4.857   9.077 -0.4627  0.2626  2.6172
 2318SOL     OW14068  11.605   4.534   2.733  0.0278  0.4127 -0.3293
 2318SOL    HW114069  11.670   4.509   2.799 -1.0237 -1.3337  0.1239
 2318SOL    HW214070  11.643   4.610   2.689  2.5323 -0.7386 -0.3213
 2319SOL     OW14071   0.148  11.964   4.103 -0.2524 -0.6726  0.2364
 2319SOL    HW114072   0.200  11.908   4.161  1.8320  0.6727 -0.2300
 2319SOL    HW214073   0.139  12.046   4.151  0.0086 -0.1414 -0.6070
 2320SOL     OW14074  11.050   5.673   5.488 -0.1637 -0.3844 -0.1205
 2320SOL    HW114075  11.084   5.584   5.499 -0.4316 -0.3345  1.3142
 2320SOL    HW214076  11.126   5.730   5.503 -0.0200 -0.3532 -0.9122
 2321SOL     OW14077   6.095  12.206   6.089  0.1280 -0.1757  0.9095
 2321SOL    HW114078   6.188  12.230   6.090 -0.2164  1.3027  0.0887
 2321SOL    HW214079   6.055  12.259   6.158 -0.4937  1.0709 -0.3532
 2322SOL     OW14080   0.218   2.014   2.330 -0.4150  0.2256  0.1325
 2322SOL    HW114081   0.290   1.957   2.303 -0.2447  1.2089 -1.6596
 2322SOL    HW214082   0.259   2.085   2.379 -0.1519  0.6739 -0.7091
 2323SOL     OW14083   1.332   8.855   2.166  0.1957 -0.2374  0.2578
 2323SOL    HW114084   1.351   8.860   2.260 -1.6702  0.6264  0.6295
 2323SOL    HW214085   1.277   8.931   2.148 -0.7570 -1.2083 -1.2038
 2324SOL     OW14086   0.723   1.138   4.638 -0.1965  0.1077 -0.0357
 2324SOL    HW114087   0.693   1.204   4.575 -1.1486 -0.1801  0.1095
 2324SOL    HW214088   0.659   1.067   4.631  0.7160 -0.7323 -0.0646
 2325SOL     OW14089   1.213   2.030   0.713 -0.2684 -0.1545 -0.5284
 2325SOL    HW114090   1.171   2.107   0.673  0.3473  1.3561  1.5461
 2325SOL    HW214091   1.304   2.035   0.686 -0.0994  0.2218  0.0784
 2326SOL     OW14092   8.955   4.808   5.762  0.4585 -0.3027 -0.4441
 2326SOL    HW114093   8.919   4.885   5.807  0.5260  0.2399 -1.2997
 2326SOL    HW214094   8.905   4.734   5.798  2.3464 -0.2643  2.5212
 2327SOL     OW14095  12.013   5.129  10.675 -0.2835 -0.1981  0.0120
 2327SOL    HW114096  12.101   5.157  10.651 -0.2296  0.8785  1.3712
 2327SOL    HW214097  11.961   5.144  10.596  0.5229  0.1526 -0.4666
 2328SOL     OW14098   8.490  11.139  11.769 -0.3791 -0.4786 -0.2198
 2328SOL    HW114099   8.558  11.073  11.755 -0.4426 -0.4185 -0.8426
 2328SOL    HW214100   8.410  11.088  11.781 -0.2568 -0.5442  0.3177
 2329SOL     OW14101   6.418   9.074   0.517 -0.2704 -0.2479 -0.6682
 2329SOL    HW114102   6.394   9.065   0.425 -1.6664  0.1544 -0.3645
 2329SOL    HW214103   6.413   9.168   0.535 -0.3980 -0.3616 -0.0764
 2330SOL     OW14104   3.218  10.878  10.928  0.8588  0.1293 -0.3616
 2330SOL    HW114105   3.312  10.896  10.917  0.4858  2.5874 -0.2692
 2330SOL    HW214106   3.188  10.945  10.990 -1.0408 -0.3621 -0.6734
 2331SOL     OW14107   9.963   9.802   9.411  0.2495  0.2630  0.2970
 2331SOL    HW114108   9.933   9.873   9.468  0.9930 -0.8047  2.1054
 2331SOL    HW214109   9.893   9.791   9.347 -0.9489  1.0799  1.4187
 2332SOL     OW14110   2.290   4.494   0.290  0.3465 -0.7839  0.3264
 2332SOL    HW114111   2.383   4.483   0.306  0.3582  1.3669  2.2849
 2332SOL    HW214112   2.256   4.530   0.372 -2.5863 -3.2814  0.3810
 2333SOL     OW14113   8.971  12.153   5.607  0.1465  0.5822 -0.0752
 2333SOL    HW114114   9.032  12.094   5.562  1.9397  0.5439  2.2263
 2333SOL    HW214115   9.025  12.228   5.632 -0.6817  0.4954  2.1576
 2334SOL     OW14116   7.254   6.402   2.884  0.3682 -0.4657 -0.3249
 2334SOL    HW114117   7.188   6.463   2.918  0.7218 -0.4903  0.4322
 2334SOL    HW214118   7.337   6.445   2.902  0.5791 -0.5529 -1.0440
 2335SOL     OW14119   8.258   1.982   0.467 -0.3862  0.1475  0.0080
 2335SOL    HW114120   8.337   1.952   0.421 -0.4188 -3.5493  1.9637
 2335SOL    HW214121   8.291   2.024   0.545 -0.3565  0.6775 -0.2877
 2336SOL     OW14122   1.523  10.715  10.695  0.1866  0.7367  0.0434
 2336SOL    HW114123   1.564  10.643  10.743 -0.3289 -0.2044 -0.9048
 2336SOL    HW214124   1.476  10.673  10.623  0.1974  2.0553 -0.7601
 2337SOL     OW14125   9.137   6.238  10.970 -0.1517  0.3599 -0.2504
 2337SOL    HW114126   9.180   6.278  10.894  1.3125 -0.0287  0.3471
 2337SOL    HW214127   9.083   6.168  10.932 -1.5969  1.8694 -1.1602
 2338SOL     OW14128   7.805   8.080   3.439 -0.4097  0.2721 -0.4729
 2338SOL    HW114129   7.878   8.019   3.449 -0.2804  0.4064 -0.5953
 2338SOL    HW214130   7.727   8.024   3.441 -0.3075  0.1352 -0.2812
 2339SOL     OW14131   7.514  11.135  12.253  0.4100 -0.4701 -0.3631
 2339SOL    HW114132   7.568  11.068  12.294 -0.1580  0.0490  1.3085
 2339SOL    HW214133   7.517  11.115  12.160  3.1245 -0.7089 -0.2972
 2340SOL     OW14134   7.198   4.547   3.516 -0.0347 -0.0233  0.1650
 2340SOL    HW114135   7.193   4.452   3.522 -0.4446  0.0361  0.9380
 2340SOL    HW214136   7.107   4.576   3.519  0.0653  0.3817 -0.4232
 2341SOL     OW14137   9.388   2.985   4.134 -0.2250 -0.4040  0.7577
 2341SOL    HW114138   9.387   2.953   4.044 -1.0027 -3.6942  1.8083
 2341SOL    HW214139   9.298   3.011   4.151  0.1352  1.2262  0.3226
 2342SOL     OW14140  12.369   6.793   3.926  0.3193  0.4804 -0.0969
 2342SOL    HW114141  12.299   6.851   3.953 -0.2581 -0.2827  0.0739
 2342SOL    HW214142  12.347   6.770   3.835 -0.2253 -0.5684  0.2826
 2343SOL     OW14143   3.264  12.570  12.572  0.1097 -0.2784 -0.9891
 2343SOL    HW114144   3.298  12.651  12.535 -0.7793 -0.3774 -2.0697
 2343SOL    HW214145   3.331  12.504  12.553  1.3348  0.3580  0.8242
 2344SOL     OW14146  10.071   6.246   0.897 -0.0290 -0.1324 -0.4659
 2344SOL    HW114147  10.109   6.289   0.820 -1.8031  0.9580 -0.7704
 2344SOL    HW214148  10.064   6.316   0.962  0.6138 -0.8501  0.3919
 2345SOL     OW14149   4.151   6.375   0.052 -0.1088 -0.3680  0.0431
 2345SOL    HW114150   4.156   6.295   0.106  0.6587 -0.2240  0.1909
 2345SOL    HW214151   4.202   6.440   0.100  1.8294 -0.6350 -1.5475
 2346SOL     OW14152   7.347   5.158   2.087 -0.0386 -0.3128 -0.9492
 2346SOL    HW114153   7.404   5.172   2.012  1.5379  1.8463  0.5559
 2346SOL    HW214154   7.259   5.152   2.049  0.7902 -0.2241 -3.0155
 2347SOL     OW14155   2.105  11.933   3.051  0.2698 -0.1061 -0.3176
 2347SOL    HW114156   2.025  11.984   3.066 -0.2792 -0.9335 -0.3537
 2347SOL    HW214157   2.157  11.944   3.131 -1.3594 -2.1999  1.1510
 2348SOL     OW14158   0.368   2.564   8.794 -0.4621  0.2077 -0.3631
 2348SOL    HW114159   0.379   2.637   8.733  0.1531  0.3007 -0.1492
 2348SOL    HW214160   0.337   2.492   8.739  2.8438 -0.6039 -1.4496
 2349SOL     OW14161  12.859   9.070   7.694 -0.3825  0.5534  0.6452
 2349SOL    HW114162  12.829   9.160   7.707  0.8255  0.9718  0.6502
 2349SOL    HW214163  12.936   9.078   7.638  0.5227 -0.3587  1.7231
 2350SOL     OW14164   0.928   4.649   9.228  0.0659  0.3423 -0.2606
 2350SOL    HW114165   1.016   4.625   9.257  0.0806  1.2538  0.4916
 2350SOL    HW214166   0.873   4.576   9.255  0.3350  0.4945  0.7427
 2351SOL     OW14167   5.940   7.798   6.503  0.1503 -0.2003 -0.1224
 2351SOL    HW114168   6.008   7.846   6.550  0.9760 -1.9475  0.5678
 2351SOL    HW214169   5.877   7.865   6.475  1.6157  1.3336  0.1243
 2352SOL     OW14170  10.140   3.436  10.245 -0.4629 -0.0553 -0.2139
 2352SOL    HW114171  10.179   3.437  10.332 -0.1476  0.3790 -0.3590
 2352SOL    HW214172  10.191   3.499  10.195 -0.7256 -0.2072 -0.6791
 2353SOL     OW14173   8.371   1.101   5.422 -0.4827  0.5646 -0.1786
 2353SOL    HW114174   8.382   1.084   5.515 -2.3850 -1.3692 -0.2345
 2353SOL    HW214175   8.459   1.126   5.392  0.8948 -1.7650  1.5569
 2354SOL     OW14176  10.453   3.248   1.849  0.3848 -0.0560  0.1986
 2354SOL    HW114177  10.368   3.206   1.844  0.6245 -0.5810  0.4703
 2354SOL    HW214178  10.437   3.331   1.894 -0.1278  0.2584 -0.5467
 2355SOL     OW14179   5.432   0.765   1.497 -0.2536 -0.4373 -0.0014
 2355SOL    HW114180   5.341   0.792   1.510 -0.2931 -0.8346  0.6229
 2355SOL    HW214181   5.426   0.681   1.452 -0.2347 -0.9232  0.8806
 2356SOL     OW14182  11.424  12.888   0.299  0.1000  0.1355  0.4858
 2356SOL    HW114183  11.370  12.886   0.220  2.5715  2.5337 -1.4695
 2356SOL    HW214184  11.429  12.981   0.321  0.3878 -0.3886  2.8660
 2357SOL     OW14185  11.457   5.985   5.224 -0.0275  0.0568 -0.1374
 2357SOL    HW114186  11.441   5.961   5.133  0.3519  0.7855 -0.4080
 2357SOL    HW214187  11.541   5.945   5.245 -0.0734 -0.0388 -0.1379
 2358SOL     OW14188   1.274   4.920   5.388 -0.1485  0.1075  0.0319
 2358SOL    HW114189   1.283   5.010   5.421  0.9123  0.8060 -1.9469
 2358SOL    HW214190   1.355   4.877   5.416 -1.5959 -1.0035  2.9020
 2359SOL     OW14191   1.545   9.025  12.548 -0.0470  0.2546  0.4445
 2359SOL    HW114192   1.638   9.045  12.541 -0.0844  1.2101  2.1156
 2359SOL    HW214193   1.502   9.099  12.505 -0.0639 -0.5086 -0.9189
 2360SOL     OW14194  11.414   8.780   4.949  0.3721 -0.4787 -0.0810
 2360SOL    HW114195  11.327   8.769   4.910  0.1363 -0.1285  0.3312
 2360SOL    HW214196  11.404   8.855   5.008  1.3864  0.6404 -1.2846
 2361SOL     OW14197   9.081   3.044   4.492 -0.1818 -0.2074 -0.3630
 2361SOL    HW114198   9.092   2.979   4.561  1.1720 -0.4167 -0.7453
 2361SOL    HW214199   9.164   3.091   4.489 -0.7937  0.9047 -0.7499
 2362SOL     OW14200  12.155  12.443   9.855 -0.4073  0.0979  0.2654
 2362SOL    HW114201  12.197  12.510   9.909  1.0480 -0.2357 -0.3929
 2362SOL    HW214202  12.139  12.370   9.915 -2.2260  1.0697  1.0401
 2363SOL     OW14203   2.930  12.167  11.637 -0.1238 -0.7569  0.5825
 2363SOL    HW114204   2.989  12.217  11.581  0.6956 -1.0813  1.1258
 2363SOL    HW214205   2.859  12.228  11.658  1.5106  0.7106  2.3219
 2364SOL     OW14206   3.116   1.304   9.131  0.0678  0.3380  0.3274
 2364SOL    HW114207   3.021   1.314   9.125  0.0257 -0.4399 -0.7555
 2364SOL    HW214208   3.150   1.394   9.138 -0.7352  0.6387  0.3822
 2365SOL     OW14209  10.745   1.409   0.454  0.4714 -0.4668 -0.2743
 2365SOL    HW114210  10.721   1.442   0.368  0.2514 -1.5707 -0.6523
 2365SOL    HW214211  10.683   1.338   0.471  0.8027 -0.5687  0.5945
 2366SOL     OW14212   3.443   3.059   5.886  0.7786 -0.2682  0.4605
 2366SOL    HW114213   3.490   3.090   5.808 -1.5809 -1.2475 -1.4993
 2366SOL    HW214214   3.461   2.965   5.888 -0.9992 -0.6702 -0.3492
 2367SOL     OW14215   2.488   4.181   3.507 -0.7203 -0.1249 -0.1087
 2367SOL    HW114216   2.550   4.127   3.556 -1.5112 -0.0113  1.0325
 2367SOL    HW214217   2.543   4.249   3.467  0.1395 -1.1460 -0.7080
 2368SOL     OW14218   6.437   9.392   7.135 -0.1716 -0.0359  0.1167
 2368SOL    HW114219   6.363   9.369   7.191 -1.6859  1.2933 -1.2214
 2368SOL    HW214220   6.466   9.477   7.167 -0.2077  0.1351 -0.2981
 2369SOL     OW14221  10.733   1.631   9.529  0.1715  0.1496  0.5653
 2369SOL    HW114222  10.729   1.566   9.599 -0.6910 -0.9924 -0.4906
 2369SOL    HW214223  10.669   1.698   9.553 -1.1249 -0.9334  0.2245
 2370SOL     OW14224   1.530   6.107   9.763 -0.8085  0.0647  0.3349
 2370SOL    HW114225   1.580   6.026   9.758  0.1526  0.7270 -1.6140
 2370SOL    HW214226   1.534   6.131   9.856 -0.9461 -1.9674  0.9183
 2371SOL     OW14227   4.644  10.088   8.667  0.1776  0.4186 -0.5819
 2371SOL    HW114228   4.638   9.998   8.634  1.6188 -0.3094  1.0070
 2371SOL    HW214229   4.691  10.135   8.598 -0.6928  0.0111 -1.4819
 2372SOL     OW14230   7.338  12.674   9.489  0.1768 -0.4107 -0.1219
 2372SOL    HW114231   7.253  12.636   9.512  0.2504 -0.5452 -0.0703
 2372SOL    HW214232   7.366  12.625   9.412  0.4103 -0.6681  0.1232
 2373SOL     OW14233  11.267   6.716   6.088 -0.0748 -0.1772  0.2606
 2373SOL    HW114234  11.333   6.674   6.033  0.0458 -0.8758  0.9119
 2373SOL    HW214235  11.316   6.752   6.162 -0.3746 -0.3759  0.5602
 2374SOL     OW14236  12.370  10.728   7.176  0.0875  0.0725 -0.1187
 2374SOL    HW114237  12.315  10.775   7.114 -0.5212  0.3982  0.6433
 2374SOL    HW214238  12.380  10.640   7.139  0.4326  0.5092 -1.0767
 2375SOL     OW14239   9.133   7.465   2.484 -0.1587  0.5561  0.3405
 2375SOL    HW114240   9.077   7.420   2.420  1.6484  0.5065 -1.2778
 2375SOL    HW214241   9.213   7.413   2.487  0.7857  1.9832  0.7252
 2376SOL     OW14242   9.331   1.976   4.415  0.1642 -0.1462 -0.0343
 2376SOL    HW114243   9.260   2.040   4.401  0.0183 -0.5077 -1.0050
 2376SOL    HW214244   9.296   1.917   4.481  0.9121  1.6695  2.1248
 2377SOL     OW14245  10.210  12.644   0.655  0.4314 -0.2377 -0.0271
 2377SOL    HW114246  10.129  12.596   0.638  0.2753  0.0274 -0.0408
 2377SOL    HW214247  10.277  12.597   0.606 -0.1900  1.1658 -2.4262
 2378SOL     OW14248   8.187  12.458   1.559 -0.4790  0.1276 -0.1389
 2378SOL    HW114249   8.155  12.368   1.560  0.2826 -0.1478 -0.3903
 2378SOL    HW214250   8.164  12.490   1.472 -1.2068  0.3558  0.1237
 2379SOL     OW14251  10.459   1.757  10.410  0.7078  0.5394  0.3721
 2379SOL    HW114252  10.479   1.668  10.379 -1.1145 -0.1205  0.8989
 2379SOL    HW214253  10.500   1.762  10.497  1.3867  0.4593  0.0581
 2380SOL     OW14254   4.601   1.274   3.723 -0.0221  0.0936  0.0058
 2380SOL    HW114255   4.619   1.189   3.763  0.6823  0.1392 -0.2058
 2380SOL    HW214256   4.686   1.307   3.697 -0.4617 -0.1961 -2.0736
 2381SOL     OW14257   3.138   1.231   6.626  0.7507  0.1237  0.5217
 2381SOL    HW114258   3.063   1.176   6.604 -0.4047  0.6266  2.9411
 2381SOL    HW214259   3.189   1.179   6.688  0.4944  1.1032  1.5953
 2382SOL     OW14260   6.546   1.721   6.209 -0.5748  0.1331  0.2806
 2382SOL    HW114261   6.487   1.697   6.137  0.9840 -1.0251 -0.6828
 2382SOL    HW214262   6.634   1.709   6.172  0.2601  0.4857  2.0861
 2383SOL     OW14263   2.861  12.298   4.152 -0.6830  0.1206  0.1329
 2383SOL    HW114264   2.798  12.365   4.177 -0.4803  1.6966 -3.0797
 2383SOL    HW214265   2.813  12.239   4.094  0.5372  1.1141 -2.0356
 2384SOL     OW14266   0.360   1.913   4.884  0.3673  0.0567 -0.6229
 2384SOL    HW114267   0.302   1.851   4.840 -0.3756 -0.3976  0.9161
 2384SOL    HW214268   0.448   1.885   4.860  0.0035 -0.5461 -1.3052
 2385SOL     OW14269   5.831   3.389   1.083  0.1503  0.2419  0.4887
 2385SOL    HW114270   5.899   3.445   1.120  0.9334 -0.4417  0.1147
 2385SOL    HW214271   5.767   3.379   1.153  0.7116  0.4363  1.0405
 2386SOL     OW14272  12.095  10.949   0.724  0.3409  0.4513 -0.3413
 2386SOL    HW114273  12.102  11.034   0.681 -0.9412  0.8343  0.1446
 2386SOL    HW214274  12.013  10.912   0.691  0.8352 -0.5638 -0.4722
 2387SOL     OW14275   8.709   5.516  11.902 -0.0691  0.2296  0.4947
 2387SOL    HW114276   8.800   5.486  11.904  0.1230  0.7413 -0.0599
 2387SOL    HW214277   8.699   5.556  11.815 -1.2765 -1.1671 -0.0544
 2388SOL     OW14278  11.788   8.086  12.291 -0.7837  0.4021 -0.2418
 2388SOL    HW114279  11.851   8.132  12.346  0.0222 -2.7952  1.7148
 2388SOL    HW214280  11.840   8.050  12.219 -0.9783  0.5263 -0.4467
 2389SOL     OW14281   5.163   6.358   2.993  0.4616  0.2959 -0.2880
 2389SOL    HW114282   5.208   6.298   3.052 -0.1183 -0.9485 -1.0682
 2389SOL    HW214283   5.083   6.311   2.967  1.3498  0.1484 -3.1350
 2390SOL     OW14284   5.482  10.226  12.291 -0.4073 -0.1254  0.2728
 2390SOL    HW114285   5.394  10.214  12.254  0.5884 -0.3646 -2.1181
 2390SOL    HW214286   5.480  10.174  12.372 -2.8493  0.9343  1.0224
 2391SOL     OW14287   9.361   7.112   7.934 -0.1338  0.2346  0.1124
 2391SOL    HW114288   9.448   7.075   7.917 -0.1345  0.3895 -0.2356
 2391SOL    HW214289   9.376   7.180   8.000  0.0261  0.3313 -0.0228
 2392SOL     OW14290  10.545   5.260   0.423  0.4744 -0.2584 -0.0045
 2392SOL    HW114291  10.571   5.280   0.333 -0.3147  0.5801 -0.0640
 2392SOL    HW214292  10.558   5.342   0.471 -0.9663 -0.1106  0.1920
 2393SOL     OW14293   5.652   2.287   3.311 -0.3407  0.2713  0.4390
 2393SOL    HW114294   5.594   2.328   3.376  0.0848  0.8867  0.4348
 2393SOL    HW214295   5.593   2.258   3.242 -0.6462  0.9054  0.4264
 2394SOL     OW14296   1.465   1.472   3.028 -0.7596 -0.3571 -0.2524
 2394SOL    HW114297   1.510   1.534   2.970 -1.1687 -2.5408 -3.1214
 2394SOL    HW214298   1.388   1.520   3.058 -0.5873  0.8678 -1.6241
 2395SOL     OW14299  10.163   6.472   1.076 -0.2595  0.0380 -0.5019
 2395SOL    HW114300  10.132   6.526   1.149 -0.4833 -0.5278 -0.1730
 2395SOL    HW214301  10.258   6.483   1.077 -0.3090  0.5049 -0.5033
 2396SOL     OW14302   8.538   7.257   7.940 -0.2167 -0.5871 -0.2481
 2396SOL    HW114303   8.547   7.166   7.970  2.2691 -0.0463  0.8253
 2396SOL    HW214304   8.444   7.275   7.948 -0.3315 -1.9147  3.0496
 2397SOL     OW14305   7.546   6.766   5.933  0.3338 -0.2103 -0.0729
 2397SOL    HW114306   7.580   6.692   5.983  0.3314 -1.6765 -2.0812
 2397SOL    HW214307   7.543   6.839   5.995  3.6758 -0.9476  1.1180
 2398SOL     OW14308   8.941  12.511   4.500  0.6422 -0.3761 -0.4143
 2398SOL    HW114309   8.926  12.486   4.591  1.2398  1.2601  0.1781
 2398SOL    HW214310   8.950  12.428   4.454  0.0904 -1.2508  0.9650
 2399SOL     OW14311  12.362   7.706   3.324 -0.0319 -0.4708  0.3844
 2399SOL    HW114312  12.336   7.628   3.373  0.1568 -0.2693  0.8048
 2399SOL    HW214313  12.319   7.779   3.370  0.1844 -0.2769  0.2790
 2400SOL     OW14314  10.484   0.531  11.165  0.1177 -0.1237  0.2649
 2400SOL    HW114315  10.487   0.476  11.243 -1.1204 -0.1307  0.3280
 2400SOL    HW214316  10.515   0.617  11.194  0.6618 -0.3926  0.5028
 2401SOL     OW14317   9.683  12.119   0.956 -0.5534  0.2550 -0.3529
 2401SOL    HW114318   9.750  12.179   0.990  0.8264 -0.8552 -1.0463
 2401SOL    HW214319   9.616  12.117   1.025  0.1652  1.3098  0.4015
 2402SOL     OW14320   8.684  12.168   7.892  0.1522  0.5993  0.3062
 2402SOL    HW114321   8.640  12.232   7.948  1.2458  0.6401  1.1489
 2402SOL    HW214322   8.717  12.220   7.819 -1.7799  0.4569 -0.7282
 2403SOL     OW14323   8.403   0.531   1.302  0.0095  0.3511  0.1291
 2403SOL    HW114324   8.448   0.561   1.223  1.6274 -1.3475  0.3184
 2403SOL    HW214325   8.420   0.598   1.367  0.9232  0.5255 -0.2731
 2404SOL     OW14326  12.266   0.444   9.058 -0.2871 -0.2668 -0.2478
 2404SOL    HW114327  12.316   0.481   8.985  0.8359 -0.7868  0.2357
 2404SOL    HW214328  12.195   0.507   9.072  0.3470  0.6114 -0.8120
 2405SOL     OW14329  10.972   6.544   8.530 -0.5241 -0.0906 -0.1399
 2405SOL    HW114330  10.921   6.480   8.579 -0.2021  0.1760  0.5584
 2405SOL    HW214331  11.054   6.499   8.509 -1.3312 -0.7911 -1.9564
 2406SOL     OW14332   7.335   8.189   1.313 -0.2324 -0.5796  0.0718
 2406SOL    HW114333   7.303   8.278   1.330  2.0334  0.3170 -0.0471
 2406SOL    HW214334   7.366   8.157   1.398  0.5306 -0.5685 -0.1937
 2407SOL     OW14335   6.070  10.344   5.214  0.0892 -0.1312 -0.3164
 2407SOL    HW114336   6.134  10.391   5.161 -1.1901  0.6653 -1.1979
 2407SOL    HW214337   6.002  10.409   5.234 -0.1456 -0.7876  1.1355
 2408SOL     OW14338  10.611   3.178   1.132  0.5936 -0.3736 -0.1349
 2408SOL    HW114339  10.702   3.163   1.107  0.6667 -1.1454  0.5576
 2408SOL    HW214340  10.587   3.101   1.183  0.4501  1.0613  2.1481
 2409SOL     OW14341   8.672   6.947   2.065 -0.2174  0.0701 -0.1047
 2409SOL    HW114342   8.668   6.981   2.155  1.0324 -1.3873  0.5448
 2409SOL    HW214343   8.587   6.970   2.027 -0.5466  1.2509  1.2433
 2410SOL     OW14344   0.223   1.242   3.147 -0.1532  0.0947 -0.3718
 2410SOL    HW114345   0.169   1.234   3.068  0.2334 -1.8064 -0.5007
 2410SOL    HW214346   0.290   1.306   3.125  0.0733 -0.5638 -1.6709
 2411SOL     OW14347   1.159   5.200   1.821  0.4122  0.1531 -0.5557
 2411SOL    HW114348   1.132   5.111   1.799 -0.7201  0.4444 -0.4146
 2411SOL    HW214349   1.092   5.256   1.781 -0.5805  0.7948  1.7924
 2412SOL     OW14350   3.731   4.757   7.502  0.8545 -0.0249  0.2786
 2412SOL    HW114351   3.810   4.761   7.448  0.4252 -1.8575 -0.5501
 2412SOL    HW214352   3.764   4.754   7.592  1.6642  0.4735  0.0180
 2413SOL     OW14353  12.939   6.301   7.404 -0.5458  0.1108  0.1784
 2413SOL    HW114354  13.021   6.288   7.451 -0.7563  1.0601  0.8446
 2413SOL    HW214355  12.961   6.358   7.331 -0.4126 -0.5359 -0.2947
 2414SOL     OW14356   0.216   9.792   3.175 -0.2899 -0.4330  0.0883
 2414SOL    HW114357   0.226   9.788   3.270  0.1956  1.1271  0.1334
 2414SOL    HW214358   0.296   9.751   3.141 -0.7190 -1.5073  0.3184
 2415SOL     OW14359  10.890   3.903   2.607  0.0042 -0.0809  0.3304
 2415SOL    HW114360  10.961   3.919   2.545  1.0100  0.2049  1.5057
 2415SOL    HW214361  10.872   3.989   2.645  1.6908 -0.7124  2.7780
 2416SOL     OW14362   6.247  11.818  10.455  0.0571 -0.1855  0.1003
 2416SOL    HW114363   6.239  11.869  10.374  2.5506 -0.6033 -0.4836
 2416SOL    HW214364   6.198  11.737  10.438 -0.5141  0.2787 -0.4924
 2417SOL     OW14365   8.837   2.356   2.043 -0.0238  0.4509  0.3642
 2417SOL    HW114366   8.766   2.294   2.030  2.9421 -3.0598 -0.6737
 2417SOL    HW214367   8.851   2.396   1.956  0.0405  0.2217  0.2688
 2418SOL     OW14368   0.088  11.540   2.154  0.0702  0.1170  0.3910
 2418SOL    HW114369   0.102  11.445   2.157  0.9687  0.2577  0.9177
 2418SOL    HW214370   0.111  11.571   2.241  1.3221  1.0141 -0.2285
 2419SOL     OW14371   2.346   8.487   3.778  0.2777 -0.0580  0.0336
 2419SOL    HW114372   2.290   8.564   3.788 -1.3737 -1.2487  0.2436
 2419SOL    HW214373   2.350   8.473   3.683  1.9051  1.1702 -0.1338
 2420SOL     OW14374   0.996   7.983   0.937  0.2497  0.1645  0.6424
 2420SOL    HW114375   1.079   8.029   0.943 -0.5487  1.4792  2.4043
 2420SOL    HW214376   1.012   7.898   0.979  1.2436 -0.5132 -1.0137
 2421SOL     OW14377   0.998   0.661   0.534  0.0442 -0.2219 -0.0569
 2421SOL    HW114378   1.089   0.635   0.547  0.2151  0.1233 -0.4979
 2421SOL    HW214379   1.004   0.748   0.494 -0.4857 -0.0485  0.2322
 2422SOL     OW14380   8.508   1.909   0.334  0.0610 -0.9993 -0.3808
 2422SOL    HW114381   8.513   1.816   0.313  1.8223 -1.0667  0.1728
 2422SOL    HW214382   8.598   1.939   0.331 -0.2781  0.3021  1.1939
 2423SOL     OW14383  10.061   5.347   4.873 -0.4010  0.1274  0.6451
 2423SOL    HW114384  10.062   5.353   4.778  0.4605 -1.0578  0.5602
 2423SOL    HW214385  10.006   5.271   4.891 -1.5586  1.0534  1.1630
 2424SOL     OW14386   5.194   4.309   8.215  0.5807 -0.4623  0.0766
 2424SOL    HW114387   5.194   4.215   8.197 -0.4301 -0.8469  1.8265
 2424SOL    HW214388   5.204   4.315   8.311 -2.8134  1.0337  0.4723
 2425SOL     OW14389   6.165   2.143   9.515  0.2629  0.8377  0.2161
 2425SOL    HW114390   6.229   2.214   9.505  1.2863 -0.3539 -3.0157
 2425SOL    HW214391   6.089   2.172   9.463 -0.3226  0.6166  0.9345
 2426SOL     OW14392  12.821   6.912  12.129 -0.0245  0.3290 -0.5018
 2426SOL    HW114393  12.855   7.001  12.139  1.9329 -0.3018 -0.9919
 2426SOL    HW214394  12.810   6.901  12.034  3.0922 -1.0099 -0.8241
 2427SOL     OW14395  10.559   3.997  12.306 -0.1365  0.2605  0.4965
 2427SOL    HW114396  10.655   3.997  12.306 -0.1107 -0.0789  1.8515
 2427SOL    HW214397  10.535   4.040  12.388 -1.2102  2.5164 -0.9112
 2428SOL     OW14398  10.394   0.053   8.630 -0.1810 -0.1874 -0.1879
 2428SOL    HW114399  10.438   0.041   8.714  0.1289  0.9191 -0.1792
 2428SOL    HW214400  10.324   0.116   8.648 -0.0491  0.1360 -0.7792
 2429SOL     OW14401   4.822   5.297   3.251 -0.1478  0.2246 -0.5064
 2429SOL    HW114402   4.862   5.377   3.217 -1.4805  0.5582 -1.4173
 2429SOL    HW214403   4.886   5.228   3.233  0.6462  0.9544 -0.5123
 2430SOL     OW14404   2.504  10.598   5.401 -0.0729 -0.5515 -0.1254
 2430SOL    HW114405   2.448  10.655   5.453  1.3536 -1.7397  2.9149
 2430SOL    HW214406   2.453  10.581   5.321 -2.0388  1.9830  0.4489
 2431SOL     OW14407   9.560   3.220   5.285  0.1350  0.5285 -0.0758
 2431SOL    HW114408   9.482   3.256   5.328  0.0316 -2.5163  2.6089
 2431SOL    HW214409   9.633   3.246   5.341  0.4585 -0.5218  0.0109
 2432SOL     OW14410  12.148   8.692   9.529 -0.6706  0.3996 -0.1173
 2432SOL    HW114411  12.132   8.618   9.472  2.7177  0.2363 -1.0480
 2432SOL    HW214412  12.189   8.654   9.607  2.2751  1.2512 -1.1255
 2433SOL     OW14413  10.558   0.524   0.199  0.6514  0.1308  0.3182
 2433SOL    HW114414  10.526   0.457   0.139 -0.3955  0.7272  0.1797
 2433SOL    HW214415  10.627   0.568   0.150  0.3106  0.1274 -0.1796
 2434SOL     OW14416  10.211   1.793  11.427 -0.6812 -0.0205 -0.6000
 2434SOL    HW114417  10.247   1.705  11.428 -0.3137  0.1182  1.1848
 2434SOL    HW214418  10.242   1.830  11.344  1.5802 -0.6163 -0.0832
 2435SOL     OW14419   9.046   6.974   7.179 -0.4348 -0.0544  0.1441
 2435SOL    HW114420   9.029   6.918   7.255 -0.6414 -1.5090 -0.9294
 2435SOL    HW214421   9.001   7.056   7.199 -1.3945 -0.7968  1.1304
 2436SOL     OW14422  10.129   7.001  10.071  0.3147 -0.1914 -0.3344
 2436SOL    HW114423  10.204   7.033  10.020  0.7371 -0.6313  0.0039
 2436SOL    HW214424  10.135   7.049  10.154 -0.2093  0.3140 -0.5787
 2437SOL     OW14425   5.720   9.255   9.451  0.0195  0.3457  0.3566
 2437SOL    HW114426   5.667   9.216   9.382  0.2831  1.1817 -0.3331
 2437SOL    HW214427   5.659   9.308   9.502  0.0977  0.9931 -0.2024
 2438SOL     OW14428   0.346   0.888   0.476  0.1811  0.1777  0.1231
 2438SOL    HW114429   0.336   0.973   0.433 -0.4620  0.4046  0.7052
 2438SOL    HW214430   0.334   0.825   0.406 -0.9616  0.5433 -0.0384
 2439SOL     OW14431   3.907  12.631   4.202  0.3808 -0.0628 -0.2307
 2439SOL    HW114432   3.878  12.548   4.241  1.9455  0.6160  2.6241
 2439SOL    HW214433   3.954  12.676   4.273  1.5707  2.2714 -2.3528
 2440SOL     OW14434   9.038   1.613   1.289  0.2706 -0.4982  0.1800
 2440SOL    HW114435   8.981   1.539   1.311 -0.3484 -0.4146 -1.0030
 2440SOL    HW214436   9.071   1.644   1.373 -1.2604 -0.7017  0.9017
 2441SOL     OW14437   1.056   4.983   2.761  0.0660  0.4379  0.2404
 2441SOL    HW114438   1.136   4.931   2.770 -1.6221 -2.5543 -0.4446
 2441SOL    HW214439   1.056   5.012   2.670  0.1980  0.1136  0.1356
 2442SOL     OW14440   9.338   9.319   3.391 -0.0981 -0.2504  0.6931
 2442SOL    HW114441   9.384   9.245   3.350  0.0426 -0.1741  0.7129
 2442SOL    HW214442   9.352   9.306   3.485 -0.2873 -0.3374  0.7100
 2443SOL     OW14443   3.937   0.870   4.141  0.1292  0.2367  0.2813
 2443SOL    HW114444   3.997   0.804   4.106  0.1376 -0.2358  1.1717
 2443SOL    HW214445   3.855   0.822   4.156 -0.1198  0.6190  0.1679
 2444SOL     OW14446   4.299   9.090   2.485 -0.2206 -0.0071  0.7002
 2444SOL    HW114447   4.290   9.182   2.460  0.2939  0.1200  0.9762
 2444SOL    HW214448   4.278   9.088   2.578 -1.0728 -0.3079  0.5081
 2445SOL     OW14449   2.062   0.849  12.581  0.2585 -0.6720  0.4098
 2445SOL    HW114450   2.157   0.836  12.589  0.2666 -0.5889  0.4481
 2445SOL    HW214451   2.033   0.867  12.671  0.3745  0.4486  0.2360
 2446SOL     OW14452   4.614   4.414   0.504  0.4938  0.2760 -0.2468
 2446SOL    HW114453   4.651   4.424   0.417 -1.1597  0.6572 -0.9388
 2446SOL    HW214454   4.602   4.320   0.514 -0.4520  0.3203 -0.9316
 2447SOL     OW14455   1.480   0.573   7.009  0.6562  0.2271  0.4570
 2447SOL    HW114456   1.474   0.479   7.027  0.4003  0.0963 -0.2746
 2447SOL    HW214457   1.456   0.582   6.917 -0.0733  1.0917  0.7049
 2448SOL     OW14458   8.540   9.685   8.482 -0.2227 -0.5135 -0.1214
 2448SOL    HW114459   8.506   9.654   8.566 -1.4145  0.8818 -0.0405
 2448SOL    HW214460   8.520   9.779   8.481  2.4918  0.1609 -0.6741
 2449SOL     OW14461   3.394  11.766  11.445 -0.0166  0.0108  0.1964
 2449SOL    HW114462   3.440  11.682  11.450 -1.1684 -0.6154  0.6696
 2449SOL    HW214463   3.421  11.803  11.361  0.3271 -0.9476 -0.1301
 2450SOL     OW14464   3.445   3.233  10.083 -0.1021  0.3819  0.6516
 2450SOL    HW114465   3.504   3.294  10.039  0.3849 -0.2649  0.3964
 2450SOL    HW214466   3.443   3.156  10.027 -2.2739  0.8754 -0.0588
 2451SOL     OW14467   7.780   7.685   8.866 -0.5934  0.2640  0.4399
 2451SOL    HW114468   7.805   7.596   8.845 -0.8780 -0.0965  1.5442
 2451SOL    HW214469   7.850   7.740   8.830  0.3728 -0.5117  1.1025
 2452SOL     OW14470   4.983   3.667   4.394  0.4418  0.0334 -0.1534
 2452SOL    HW114471   5.045   3.594   4.396  1.2339  0.7096  0.2098
 2452SOL    HW214472   4.969   3.690   4.486 -0.0746  0.1189 -0.2487
 2453SOL     OW14473   9.959   6.171  11.981  0.5854  0.2612 -0.2685
 2453SOL    HW114474   9.893   6.152  12.048  0.7973 -0.5074 -0.2654
 2453SOL    HW214475   9.955   6.096  11.922  1.8212 -0.0499  0.0276
 2454SOL     OW14476   1.322   4.605   4.465  0.3299 -0.4193  0.3972
 2454SOL    HW114477   1.266   4.683   4.464 -0.2416 -0.8231 -0.4025
 2454SOL    HW214478   1.403   4.634   4.425  0.8458  0.2559  1.8453
 2455SOL     OW14479  11.817  12.023   3.665 -0.2343 -0.1033 -0.4815
 2455SOL    HW114480  11.909  12.047   3.676 -0.1695 -0.5863  0.1359
 2455SOL    HW214481  11.820  11.935   3.626 -0.4083 -0.5797  0.5441
 2456SOL     OW14482   2.552   3.857   0.425  0.0907 -0.8394  0.0922
 2456SOL    HW114483   2.489   3.881   0.357  0.9706 -0.3113 -0.5677
 2456SOL    HW214484   2.499   3.844   0.503 -0.7298  0.6804 -0.1625
 2457SOL     OW14485   1.444   3.902   1.628  0.0933 -0.0534 -0.1873
 2457SOL    HW114486   1.469   3.844   1.700 -0.1302 -0.1012 -0.1484
 2457SOL    HW214487   1.427   3.842   1.555 -0.2753 -0.0488 -0.1076
 2458SOL     OW14488   7.985   0.683   4.980  0.2278  0.0463 -0.3462
 2458SOL    HW114489   7.999   0.619   5.049 -0.3645  1.6443  1.3325
 2458SOL    HW214490   7.998   0.768   5.022 -1.3395  1.1331 -1.8934
 2459SOL     OW14491   2.440   9.666   7.901  0.2108 -0.0172 -0.3404
 2459SOL    HW114492   2.444   9.698   7.991 -0.4036  1.2161 -0.7389
 2459SOL    HW214493   2.532   9.666   7.872  0.3007  0.6326 -0.0744
 2460SOL     OW14494   7.013   8.545   7.964 -0.3685  0.4130 -0.2038
 2460SOL    HW114495   7.068   8.540   7.885  0.3375  1.8473  0.1635
 2460SOL    HW214496   6.995   8.454   7.986  0.7946 -0.0643 -1.0931
 2461SOL     OW14497   8.843   7.425   6.163  0.4043 -0.0813 -0.3137
 2461SOL    HW114498   8.792   7.439   6.083  1.3806 -2.0958 -1.3843
 2461SOL    HW214499   8.916   7.486   6.155  0.0387  0.3281 -0.5447
 2462SOL     OW14500  10.283   7.686   4.368  0.0768 -0.0460  0.2741
 2462SOL    HW114501  10.328   7.613   4.410  0.8331  1.3341  2.0023
 2462SOL    HW214502  10.353   7.741   4.334 -0.2424  1.5865  2.0562
 2463SOL     OW14503   0.514   9.587  11.365 -0.4433 -0.0508 -0.1451
 2463SOL    HW114504   0.595   9.604  11.412 -0.9246  1.6009  0.1825
 2463SOL    HW214505   0.462   9.533  11.424  1.1453 -2.9260 -1.1864
 2464SOL     OW14506   8.065   0.172  10.866 -0.1722  0.1086  0.7909
 2464SOL    HW114507   8.050   0.079  10.851 -1.0543 -0.0531  2.4111
 2464SOL    HW214508   7.977   0.211  10.864  0.3032  1.2423 -1.6248
 2465SOL     OW14509   3.389   9.365  12.040  0.3310  0.1297  0.5764
 2465SOL    HW114510   3.338   9.357  11.959  1.3550 -0.3444 -0.0459
 2465SOL    HW214511   3.435   9.448  12.031 -0.8972  0.9318  1.4863
 2466SOL     OW14512   5.124  11.103   6.918 -0.1774 -0.2508  0.3084
 2466SOL    HW114513   5.198  11.065   6.966 -0.9820 -0.4893  1.3955
 2466SOL    HW214514   5.164  11.172   6.865  0.7762 -0.0586  1.2293
 2467SOL     OW14515   5.007  10.160   5.675  0.0689  0.3004 -0.2919
 2467SOL    HW114516   4.920  10.119   5.678 -0.7122  1.7602 -1.3553
 2467SOL    HW214517   4.999  10.238   5.730  0.7338  0.4017 -0.3268
 2468SOL     OW14518   2.927   3.992   0.338 -0.0152  0.1796 -0.0786
 2468SOL    HW114519   3.019   3.984   0.315 -0.5233 -1.0505 -1.9193
 2468SOL    HW214520   2.898   3.902   0.354 -0.3644  0.7370  3.0711
 2469SOL     OW14521   1.893   9.873   7.185  0.2956  0.2327 -0.4077
 2469SOL    HW114522   1.818   9.858   7.242  1.4124 -2.7771  0.4476
 2469SOL    HW214523   1.868   9.833   7.101 -0.2286  2.1056 -1.2003
 2470SOL     OW14524  12.869   4.706   1.177 -0.5377  1.0170 -0.7142
 2470SOL    HW114525  12.958   4.697   1.210 -1.0220  2.7621  1.2993
 2470SOL    HW214526  12.849   4.621   1.137  1.7075  0.3127 -0.4538
 2471SOL     OW14527  10.331   2.915   9.661  0.3012  0.2297  0.4122
 2471SOL    HW114528  10.378   2.840   9.623  0.7736  1.0731 -0.7048
 2471SOL    HW214529  10.297   2.881   9.744  3.4111 -0.2850  1.6194
 2472SOL     OW14530   3.859   2.701   7.031 -0.6398  0.8320  0.5723
 2472SOL    HW114531   3.814   2.626   7.071 -0.5459  0.1912 -0.4898
 2472SOL    HW214532   3.948   2.697   7.065  0.1606 -1.2025 -1.5765
 2473SOL     OW14533   3.911   9.731   2.297 -0.1580  0.4548 -0.7089
 2473SOL    HW114534   3.843   9.767   2.240  1.8596  1.1240 -2.8714
 2473SOL    HW214535   3.990   9.780   2.274  0.8147  0.7984  2.7959
 2474SOL     OW14536   6.675   4.348   7.616  0.0385  0.2849 -0.0658
 2474SOL    HW114537   6.676   4.260   7.655  0.1004  0.2989 -0.0362
 2474SOL    HW214538   6.588   4.355   7.575 -0.2623  0.4948  0.5883
 2475SOL     OW14539   1.036  12.681   6.786  0.8759  0.0296 -0.0677
 2475SOL    HW114540   1.041  12.733   6.867  2.2943 -2.1210  1.3300
 2475SOL    HW214541   1.018  12.745   6.718 -0.5315  1.9392  1.9335
 2476SOL     OW14542   0.609   6.202  11.199 -0.1011 -0.3825  0.1063
 2476SOL    HW114543   0.548   6.226  11.269  1.0392 -0.7462  1.2739
 2476SOL    HW214544   0.673   6.273  11.197  0.4274 -0.8506  0.1132
 2477SOL     OW14545   1.294   6.044   3.086 -0.0214 -0.3690 -0.2779
 2477SOL    HW114546   1.371   6.096   3.108  1.1291 -0.8292 -2.7989
 2477SOL    HW214547   1.279   5.989   3.162 -0.2899  2.3999  1.8323
 2478SOL     OW14548   2.409   9.141   0.255 -0.9995 -0.1346 -0.0425
 2478SOL    HW114549   2.501   9.135   0.229 -1.2251 -0.9512 -0.6751
 2478SOL    HW214550   2.393   9.235   0.261 -0.1766  0.0219 -0.0878
 2479SOL     OW14551   7.732   4.910   4.233 -0.1871  0.0168 -0.2373
 2479SOL    HW114552   7.757   4.904   4.325 -0.7090 -0.6183 -0.1298
 2479SOL    HW214553   7.638   4.891   4.233  0.3326 -2.9882 -1.2082
 2480SOL     OW14554   6.953   6.031   5.620  0.0086 -0.0111  0.0777
 2480SOL    HW114555   6.940   5.948   5.574 -1.5212  0.3159 -0.1653
 2480SOL    HW214556   6.914   6.018   5.706 -0.0856  0.3962  0.1016
 2481SOL     OW14557   8.920   1.222   6.249 -1.1238  0.3972 -0.0558
 2481SOL    HW114558   8.859   1.196   6.318 -2.4405  0.8991 -0.9760
 2481SOL    HW214559   8.885   1.304   6.216 -0.5627  0.1455 -1.3508
 2482SOL     OW14560   0.613   8.372   2.377 -0.0823 -0.7514  0.2519
 2482SOL    HW114561   0.654   8.359   2.292 -2.2073 -1.1476 -0.7632
 2482SOL    HW214562   0.616   8.467   2.391 -4.3152  0.1592 -2.8627
 2483SOL     OW14563  12.334   5.938   0.433  0.1031  0.1021 -0.1087
 2483SOL    HW114564  12.343   5.850   0.470  3.7813 -0.5338 -2.0948
 2483SOL    HW214565  12.403   5.989   0.475  0.0128  1.1724 -1.1986
 2484SOL     OW14566   3.444   7.556   1.093  0.0344 -0.5258  0.0383
 2484SOL    HW114567   3.500   7.486   1.060 -0.9135 -1.5575  0.5615
 2484SOL    HW214568   3.357   7.536   1.058  0.1310  1.6927 -1.7537
 2485SOL     OW14569   6.660  12.157   3.172  0.3583 -0.3489 -0.5674
 2485SOL    HW114570   6.666  12.109   3.255 -1.9029  1.1917  0.5885
 2485SOL    HW214571   6.732  12.220   3.176  1.1170 -1.2016 -0.4480
 2486SOL     OW14572  10.251   7.701   1.790  0.0425 -0.7444 -0.0970
 2486SOL    HW114573  10.213   7.788   1.799 -0.3901 -1.0791  1.8813
 2486SOL    HW214574  10.341   7.716   1.760 -0.0928  0.3569  0.0108
 2487SOL     OW14575  11.538   9.239   7.689  0.0893 -0.1847  0.3127
 2487SOL    HW114576  11.507   9.318   7.644  0.6595  0.3941  0.9173
 2487SOL    HW214577  11.632   9.254   7.701  0.2308 -1.0409  0.2679
 2488SOL     OW14578   6.182   6.725   4.258 -0.1948 -0.7563 -0.0499
 2488SOL    HW114579   6.128   6.650   4.237 -1.0466 -0.4090  0.8395
 2488SOL    HW214580   6.177   6.781   4.180 -0.3183 -1.1699 -0.3422
 2489SOL     OW14581   8.463   2.918  12.749 -0.0117  0.2281  0.1273
 2489SOL    HW114582   8.368   2.911  12.743  0.0155 -0.2869  0.3067
 2489SOL    HW214583   8.496   2.852  12.688  0.2430 -2.1157  2.6164
 2490SOL     OW14584   0.999   7.001   3.951  0.0813 -0.4552 -0.2241
 2490SOL    HW114585   0.965   6.932   4.008  1.0952  0.1202  1.1429
 2490SOL    HW214586   0.923   7.054   3.930 -0.2808 -0.5097  0.8634
 2491SOL     OW14587  12.232  11.024   7.660  0.4535  0.8371  0.6635
 2491SOL    HW114588  12.277  10.987   7.584 -0.9081 -1.8888  1.0687
 2491SOL    HW214589  12.298  11.023   7.729  0.0231 -3.0752  1.2376
 2492SOL     OW14590  10.825   2.474   1.578 -0.0348  0.6813  0.7737
 2492SOL    HW114591  10.755   2.531   1.609 -0.2278  0.5310  0.6171
 2492SOL    HW214592  10.780   2.409   1.524  0.5548  2.7456 -2.4769
 2493SOL     OW14593  10.516   0.750   9.574  0.3405  0.4719  0.1226
 2493SOL    HW114594  10.497   0.837   9.537  1.1959  1.3567  1.6490
 2493SOL    HW214595  10.448   0.693   9.537 -2.1276  2.4169  1.3297
 2494SOL     OW14596  10.133   8.850  12.169 -0.1489  0.1628  0.2266
 2494SOL    HW114597  10.219   8.892  12.168 -0.6142  1.1345 -0.0948
 2494SOL    HW214598  10.090   8.882  12.090 -0.5669 -0.8537  0.0196
 2495SOL     OW14599   2.350   5.182   2.425  0.3617 -0.4915  0.4860
 2495SOL    HW114600   2.258   5.185   2.453  0.3873 -2.2942  0.8846
 2495SOL    HW214601   2.399   5.168   2.507  0.9664 -0.0051  0.2166
 2496SOL     OW14602   8.401   9.993   7.443  0.2464 -0.4205 -0.2035
 2496SOL    HW114603   8.474   9.995   7.505  0.2367  0.9711 -0.2098
 2496SOL    HW214604   8.435  10.034   7.364 -0.7101  0.8533  0.0148
 2497SOL     OW14605   7.700   4.526   3.832 -0.2949 -0.0431 -0.1503
 2497SOL    HW114606   7.766   4.492   3.772  0.4159 -0.1444  0.6681
 2497SOL    HW214607   7.618   4.516   3.785  0.3381  0.8799 -1.5442
 2498SOL     OW14608   9.693   5.577  12.277 -0.0128  0.2777 -0.3346
 2498SOL    HW114609   9.664   5.497  12.231 -1.9060  1.3527 -1.1211
 2498SOL    HW214610   9.760   5.614  12.220  0.6828 -0.5734 -0.1019
 2499SOL     OW14611   8.426  11.496   7.520 -0.1081 -0.2451  0.2454
 2499SOL    HW114612   8.385  11.489   7.606  0.6306  1.3133  0.7519
 2499SOL    HW214613   8.469  11.582   7.520 -0.8955  0.2157 -2.0295
 2500SOL     OW14614   8.732   9.319   3.980  0.2404  0.2696  0.3155
 2500SOL    HW114615   8.640   9.313   4.007  0.6221  1.5028  2.0273
 2500SOL    HW214616   8.768   9.232   3.997 -0.6640 -0.3517 -0.7574
 2501SOL     OW14617   4.684   5.199  11.265 -0.0714 -0.1885  0.4764
 2501SOL    HW114618   4.635   5.122  11.295 -0.2893 -0.3199 -0.2016
 2501SOL    HW214619   4.775   5.179  11.286 -0.3282  0.2799  2.2254
 2502SOL     OW14620   8.810   1.046   0.613  0.6196 -0.0564 -0.3790
 2502SOL    HW114621   8.753   1.122   0.601  0.5757  0.0915  0.6521
 2502SOL    HW214622   8.889   1.081   0.655 -0.2817 -0.8414  2.1855
 2503SOL     OW14623   4.537  11.431   4.975  0.4984 -0.7136 -0.0531
 2503SOL    HW114624   4.487  11.465   4.901 -1.7306 -2.0125  0.7840
 2503SOL    HW214625   4.572  11.509   5.019 -2.5897  0.4566  0.5385
 2504SOL     OW14626  10.737   8.568  11.523  0.3545 -0.3305 -0.0673
 2504SOL    HW114627  10.731   8.655  11.563 -0.7844  0.9073 -2.6760
 2504SOL    HW214628  10.648   8.549  11.494  1.3989  0.1054 -4.1800
 2505SOL     OW14629   4.354   2.957  10.308 -0.6426  0.3504  0.2512
 2505SOL    HW114630   4.423   3.011  10.346  0.1398  0.0470 -0.6952
 2505SOL    HW214631   4.277   3.013  10.309 -0.1994  0.9772  0.5885
 2506SOL     OW14632   3.647   0.370   6.441  0.0351  0.2653 -0.2573
 2506SOL    HW114633   3.565   0.420   6.446  0.8768  1.7751 -0.9019
 2506SOL    HW214634   3.708   0.419   6.496  0.0493 -1.9110  1.8248
 2507SOL     OW14635   9.463   8.086   2.742 -0.1631  0.2498  0.4213
 2507SOL    HW114636   9.537   8.025   2.750  0.2162  0.4838 -1.0886
 2507SOL    HW214637   9.446   8.114   2.832  0.1731 -1.4587  1.0568
 2508SOL     OW14638  11.034  12.059  10.867 -0.1889  0.4449  0.1865
 2508SOL    HW114639  11.077  12.144  10.867 -1.8803  1.3541  0.3330
 2508SOL    HW214640  10.956  12.072  10.923 -1.3812 -0.6937 -1.1336
 2509SOL     OW14641   6.809  12.250   9.390  0.0989  0.0465  0.7052
 2509SOL    HW114642   6.798  12.316   9.322 -2.0698 -0.7728  0.1702
 2509SOL    HW214643   6.751  12.277   9.461 -1.8481 -1.8584 -0.0493
 2510SOL     OW14644   9.376   7.282   6.638  0.0444  0.2389  0.4332
 2510SOL    HW114645   9.362   7.356   6.698  0.0966  1.1950 -0.7020
 2510SOL    HW214646   9.293   7.272   6.592 -0.2354 -0.9791  1.1531
 2511SOL     OW14647   9.558   3.986  11.336 -0.6777  0.0572  0.3261
 2511SOL    HW114648   9.566   4.080  11.322 -1.0940  0.4292  2.2404
 2511SOL    HW214649   9.464   3.969  11.338 -0.6204 -0.2408  0.7780
 2512SOL     OW14650   8.080   6.003   8.854 -0.2549  0.5669  0.8145
 2512SOL    HW114651   8.057   6.036   8.941 -0.6416  1.3714  0.4127
 2512SOL    HW214652   7.996   5.978   8.815 -0.1955  1.1617  0.2936
 2513SOL     OW14653   2.458  11.405   8.878 -0.5279 -0.1199  0.1960
 2513SOL    HW114654   2.481  11.369   8.963 -1.0489 -0.7242  0.0855
 2513SOL    HW214655   2.509  11.486   8.872 -0.3432 -0.1670  0.9961
 2514SOL     OW14656   4.182   5.811   8.852  0.2268 -0.5120  0.2470
 2514SOL    HW114657   4.117   5.832   8.784  1.3721  2.1694 -0.1673
 2514SOL    HW214658   4.141   5.841   8.933 -0.1906 -1.5298  0.4240
 2515SOL     OW14659  10.468   7.717   6.101 -0.8856 -0.0264  0.7278
 2515SOL    HW114660  10.391   7.762   6.067  0.0905  0.3139 -1.1886
 2515SOL    HW214661  10.435   7.633   6.132 -1.9941 -0.0178 -0.3550
 2516SOL     OW14662   6.938   2.387   6.244 -0.0234 -0.1875 -0.2486
 2516SOL    HW114663   6.940   2.376   6.149  0.2411  0.4152 -0.3171
 2516SOL    HW214664   7.008   2.450   6.262 -0.3590  0.0326  0.2986
 2517SOL     OW14665  12.435   1.215  10.182  0.4064 -0.0497  0.1414
 2517SOL    HW114666  12.495   1.188  10.251  0.2779 -0.4970  0.0799
 2517SOL    HW214667  12.403   1.133  10.144  1.5602  0.1868 -1.4133
 2518SOL     OW14668  11.283   2.005   4.303 -0.0841 -0.4342 -0.1000
 2518SOL    HW114669  11.280   2.087   4.352  0.2215 -0.0558 -0.6993
 2518SOL    HW214670  11.377   1.990   4.287 -0.1925 -0.4238 -0.7726
 2519SOL     OW14671   4.053  11.717   3.415  0.3005 -0.5273 -0.1480
 2519SOL    HW114672   3.959  11.702   3.405  0.3806 -0.5370 -0.9630
 2519SOL    HW214673   4.077  11.773   3.341  0.4024  1.9710  1.6871
 2520SOL     OW14674   2.453   0.486   2.523 -0.3020  0.0579  0.0356
 2520SOL    HW114675   2.478   0.572   2.489 -1.1970  0.1828 -0.3539
 2520SOL    HW214676   2.525   0.460   2.580 -0.4034  1.4505  0.8381
 2521SOL     OW14677  11.845   6.415   2.791  0.4837 -0.1465  0.4070
 2521SOL    HW114678  11.882   6.334   2.755 -0.4858 -0.3429 -0.1674
 2521SOL    HW214679  11.901   6.485   2.756 -0.5774 -0.2933 -1.7783
 2522SOL     OW14680  11.309  10.522  12.178 -0.3314 -0.2922  0.2350
 2522SOL    HW114681  11.382  10.517  12.117  1.0236  0.8045  1.6748
 2522SOL    HW214682  11.272  10.609  12.165 -0.0687 -0.0734  0.9080
 2523SOL     OW14683   1.937   9.533   3.164 -0.8806 -0.2976  0.1305
 2523SOL    HW114684   1.957   9.619   3.127  0.4699 -0.5116  0.3267
 2523SOL    HW214685   1.905   9.552   3.252 -0.9138  0.0179  0.0545
 2524SOL     OW14686   1.456  12.863  12.400  0.0804  0.0226 -0.0021
 2524SOL    HW114687   1.487  12.783  12.360 -0.8976 -0.6634  0.5665
 2524SOL    HW214688   1.513  12.876  12.476 -0.3558 -0.6680  0.4527
 2525SOL     OW14689  11.031  10.598   0.659  0.0558  0.7409  0.2776
 2525SOL    HW114690  11.002  10.579   0.570  1.3774  0.2227 -0.0583
 2525SOL    HW214691  11.056  10.513   0.695 -0.8271  0.8884  1.2953
 2526SOL     OW14692   0.508   7.176   5.450 -0.6590  0.3097  0.0475
 2526SOL    HW114693   0.592   7.196   5.491  0.1328 -2.0363 -0.2839
 2526SOL    HW214694   0.453   7.252   5.470  1.2246  1.4820  1.0935
 2527SOL     OW14695   6.395   5.177   4.872  0.1114 -0.1350  0.1466
 2527SOL    HW114696   6.366   5.093   4.835 -0.1931  0.1576 -0.2778
 2527SOL    HW214697   6.465   5.152   4.933  0.0325 -0.6987  0.0199
 2528SOL     OW14698  11.374  11.879  10.694  0.4306 -0.4119 -0.0644
 2528SOL    HW114699  11.457  11.832  10.683  1.0202  0.8440 -1.2362
 2528SOL    HW214700  11.380  11.915  10.783  0.8724 -0.8410  0.0873
 2529SOL     OW14701   5.852   8.223   9.775  0.0888 -0.4143  0.4006
 2529SOL    HW114702   5.893   8.309   9.784  0.9764 -0.8248  0.3945
 2529SOL    HW214703   5.795   8.216   9.852  1.1073 -0.3967  1.1907
 2530SOL     OW14704  11.632   8.050   3.140 -0.1125  0.3024 -0.1217
 2530SOL    HW114705  11.710   8.005   3.109 -0.5933 -2.7953  2.6379
 2530SOL    HW214706  11.560   8.007   3.095 -0.4492  0.4988  0.2264
 2531SOL     OW14707  11.794  10.986   1.245  0.8177 -0.2622  0.1205
 2531SOL    HW114708  11.812  11.041   1.321  2.4210 -1.0689  0.3555
 2531SOL    HW214709  11.850  10.909   1.256 -2.6881 -2.9809  0.8423
 2532SOL     OW14710  11.242   7.419   4.786  0.0959 -0.3987  0.1987
 2532SOL    HW114711  11.301   7.470   4.842  1.2635 -1.8228  0.3416
 2532SOL    HW214712  11.300   7.382   4.719 -0.8924 -0.6898 -0.5092
 2533SOL     OW14713   0.588  11.332   0.745 -0.6819  0.1651  0.0452
 2533SOL    HW114714   0.678  11.328   0.777 -0.3640 -2.3133 -0.9376
 2533SOL    HW214715   0.543  11.387   0.808  1.5111  1.5472  0.5240
 2534SOL     OW14716   5.114   7.170   0.743  0.8002  0.0990  0.0503
 2534SOL    HW114717   5.073   7.109   0.804  1.2430  0.6228  0.8926
 2534SOL    HW214718   5.119   7.253   0.791  2.9936  0.0108  0.0881
 2535SOL     OW14719   8.031   2.537   1.547 -0.2370 -0.2472 -0.1921
 2535SOL    HW114720   7.973   2.496   1.613  1.0793 -2.0397 -0.0802
 2535SOL    HW214721   8.119   2.520   1.580  0.4038  0.3275 -1.5837
 2536SOL     OW14722   5.572  11.560   1.229  0.6194  0.5483  0.0541
 2536SOL    HW114723   5.543  11.638   1.181 -0.6631 -0.8986 -1.6734
 2536SOL    HW214724   5.525  11.563   1.312  1.0709  1.9124  0.2818
 2537SOL     OW14725  10.439   8.618   7.176 -0.4538  0.1387 -0.0225
 2537SOL    HW114726  10.482   8.553   7.121  0.2406  0.9705 -0.4761
 2537SOL    HW214727  10.491   8.620   7.256  0.2962  1.0522 -0.5204
 2538SOL     OW14728   5.478  11.152   1.611 -0.0382 -0.3506 -0.0586
 2538SOL    HW114729   5.387  11.182   1.621 -0.1756 -0.3309 -1.1818
 2538SOL    HW214730   5.510  11.141   1.700 -0.8075  0.6930  0.3678
 2539SOL     OW14731   3.010   9.337  12.486 -0.2298  0.0343  0.3440
 2539SOL    HW114732   2.972   9.337  12.398  0.4066 -1.2354  0.0435
 2539SOL    HW214733   2.939   9.305  12.542 -0.2598 -0.3341  0.1004
 2540SOL     OW14734   2.626   1.548   5.432  0.3003  0.1519  0.3518
 2540SOL    HW114735   2.662   1.478   5.486 -1.4993  0.5447  2.1744
 2540SOL    HW214736   2.538   1.517   5.409  0.8605  0.1667 -2.1238
 2541SOL     OW14737   2.174   1.189   3.105  0.0248 -0.2191 -0.5417
 2541SOL    HW114738   2.231   1.258   3.071 -1.8002  0.2907 -2.7977
 2541SOL    HW214739   2.109   1.236   3.158 -0.5427 -0.3235 -1.1378
 2542SOL     OW14740   8.313   7.188   3.930 -0.1642  0.4747 -0.5921
 2542SOL    HW114741   8.388   7.128   3.938 -0.3524  0.4346  1.3348
 2542SOL    HW214742   8.328   7.254   3.997 -1.1581  1.2856 -1.1442
 2543SOL     OW14743   2.981  11.048  12.265  0.3530 -0.7845  0.8514
 2543SOL    HW114744   2.968  10.989  12.340 -4.1206 -1.2873 -0.0544
 2543SOL    HW214745   2.915  11.116  12.277  0.6137  0.0354 -1.8256
 2544SOL     OW14746   0.259  10.041   3.783  0.2866 -0.5339 -0.3578
 2544SOL    HW114747   0.317  10.117   3.773 -1.8211  1.0519 -1.3054
 2544SOL    HW214748   0.230  10.021   3.694 -1.8237 -0.2403  0.2116
 2545SOL     OW14749   9.710   6.907  11.823 -0.0448  0.6326 -0.2931
 2545SOL    HW114750   9.673   6.867  11.901 -0.9223  1.9996  0.0239
 2545SOL    HW214751   9.728   6.833  11.765  0.4032 -0.3820  1.0899
 2546SOL     OW14752   7.971   8.470   3.341  0.3156  0.2420 -0.2437
 2546SOL    HW114753   7.958   8.451   3.248 -0.0876  1.4056 -0.4348
 2546SOL    HW214754   8.064   8.490   3.348  0.7882 -1.8090 -0.0120
 2547SOL     OW14755  12.916   0.523  11.524 -1.1757 -0.3655 -0.1464
 2547SOL    HW114756  12.830   0.545  11.559 -1.7327  0.1980 -1.7755
 2547SOL    HW214757  12.931   0.587  11.454  1.0200  0.1725  0.7435
 2548SOL     OW14758  11.136   7.016  12.227 -0.3567 -0.3690  0.3693
 2548SOL    HW114759  11.151   6.975  12.142 -1.4043 -0.5683  0.2603
 2548SOL    HW214760  11.210   7.075  12.240  0.6797 -1.5767  0.0842
 2549SOL     OW14761   9.460   2.853  11.569 -0.2166  0.4647 -0.4253
 2549SOL    HW114762   9.498   2.939  11.556 -1.5577  1.0659 -0.5128
 2549SOL    HW214763   9.381   2.869  11.622  1.3126 -1.0889  2.5639
 2550SOL     OW14764   1.684   3.343   0.036 -0.1901 -0.0060  0.3482
 2550SOL    HW114765   1.653   3.379  -0.047 -1.0606 -0.9694  0.2484
 2550SOL    HW214766   1.672   3.415   0.098 -0.2500  0.4699 -0.2035
 2551SOL     OW14767   7.097   3.411  11.640 -0.4622 -0.2331  0.4939
 2551SOL    HW114768   7.022   3.462  11.609  0.8561  1.9225  0.6581
 2551SOL    HW214769   7.090   3.413  11.735 -0.6415 -0.7348  0.4919
 2552SOL     OW14770   1.540   6.310  12.021  0.3374 -0.4044  0.1531
 2552SOL    HW114771   1.633   6.316  11.996  0.0308  0.2588 -0.9167
 2552SOL    HW214772   1.537   6.240  12.086  1.4189 -1.2574 -0.6723
 2553SOL     OW14773  12.206   0.265   4.579 -0.6169  0.3850 -0.4157
 2553SOL    HW114774  12.151   0.301   4.649  0.7005  1.0371  0.3281
 2553SOL    HW214775  12.214   0.337   4.516  1.5856  1.3224  0.8174
 2554SOL     OW14776   3.005   4.574  10.962 -0.6416 -0.0720  0.7042
 2554SOL    HW114777   2.971   4.500  10.912  0.8485 -1.5330  1.7481
 2554SOL    HW214778   3.043   4.632  10.896 -2.1641 -0.0218 -0.1673
 2555SOL     OW14779   9.753  11.051   0.245 -0.0990 -0.4963 -0.0044
 2555SOL    HW114780   9.828  11.003   0.210  0.0792 -1.4899  1.6203
 2555SOL    HW214781   9.786  11.092   0.325 -0.1774  2.6244 -1.4078
 2556SOL     OW14782   4.465   7.436   9.111 -0.0953  0.2663  0.5219
 2556SOL    HW114783   4.415   7.419   9.031 -0.9327 -0.3483  1.1632
 2556SOL    HW214784   4.455   7.357   9.163  1.0027  0.3986  0.9633
 2557SOL     OW14785   6.899   0.927   6.090 -0.1554 -0.2767 -0.6823
 2557SOL    HW114786   6.989   0.948   6.064 -0.6136  0.4237 -1.7849
 2557SOL    HW214787   6.899   0.832   6.099  0.4120 -0.4138 -1.8845
 2558SOL     OW14788   5.754  12.424   7.532 -0.4001  0.4581  0.5159
 2558SOL    HW114789   5.804  12.413   7.451 -0.0852  0.1888  0.7410
 2558SOL    HW214790   5.761  12.518   7.552  1.7824  0.1336  1.6348
 2559SOL     OW14791   8.360   1.469   6.033  0.1904 -0.0357 -0.0793
 2559SOL    HW114792   8.333   1.501   5.947 -0.9262 -1.3786 -0.2482
 2559SOL    HW214793   8.279   1.455   6.080  0.7709 -0.0488  0.9476
 2560SOL     OW14794   4.840   5.622  12.693 -0.0860  0.5405  0.5109
 2560SOL    HW114795   4.828   5.569  12.772 -0.3707  0.3564  0.3440
 2560SOL    HW214796   4.912   5.579  12.646  1.6704  1.9368  1.7597
 2561SOL     OW14797   3.656  11.701   9.035  0.1934  0.1048  0.1951
 2561SOL    HW114798   3.594  11.739   8.972  1.3024  0.4466 -0.7351
 2561SOL    HW214799   3.676  11.614   9.000  0.0583 -0.1044  0.6271
 2562SOL     OW14800   1.171   5.448   3.745 -0.3987  0.3668  0.2575
 2562SOL    HW114801   1.235   5.407   3.687  0.8796  0.7951  1.3340
 2562SOL    HW214802   1.089   5.401   3.727  0.7296 -1.8085  0.5560
 2563SOL     OW14803   0.739   4.360   7.168 -0.2826  0.0718 -0.0221
 2563SOL    HW114804   0.723   4.299   7.240  1.2765 -0.4723 -0.1033
 2563SOL    HW214805   0.770   4.305   7.096  0.3792  0.8516 -0.3561
 2564SOL     OW14806   5.747   7.585   4.649  0.0349 -0.4592 -0.0727
 2564SOL    HW114807   5.839   7.608   4.649 -0.7216  3.2092  0.3517
 2564SOL    HW214808   5.721   7.587   4.557 -0.1879  1.6974 -0.0158
 2565SOL     OW14809  11.939   7.931  11.230 -0.6462 -0.2096 -0.4852
 2565SOL    HW114810  11.861   7.941  11.175  0.8206  2.7600 -2.2953
 2565SOL    HW214811  11.965   8.020  11.251  1.2849 -1.1735  1.6081
 2566SOL     OW14812   7.198   9.855   2.034  0.1191 -0.3193  0.0584
 2566SOL    HW114813   7.187   9.760   2.035  1.6366 -0.6557 -2.8320
 2566SOL    HW214814   7.124   9.888   1.984 -0.7479  0.1398  1.5925
 2567SOL     OW14815   4.355   6.156   1.419 -0.6307 -0.3498  0.1184
 2567SOL    HW114816   4.276   6.194   1.458 -1.2343 -1.2631 -0.1827
 2567SOL    HW214817   4.422   6.168   1.486 -1.2267 -0.3097  0.7274
 2568SOL     OW14818  12.792   7.099   1.974 -0.0329  0.3130  0.0204
 2568SOL    HW114819  12.732   7.028   1.997  1.3913 -1.2263 -0.7559
 2568SOL    HW214820  12.739   7.161   1.924 -0.6899 -1.7504 -2.0044
 2569SOL     OW14821  10.299   0.201   0.946 -0.3949  0.0012 -0.2093
 2569SOL    HW114822  10.208   0.193   0.917 -0.6906 -0.2621  0.7652
 2569SOL    HW214823  10.320   0.114   0.982  0.5587 -0.2442 -1.2958
 2570SOL     OW14824  10.937   8.687   0.375 -0.5097  0.4802  0.6881
 2570SOL    HW114825  11.031   8.675   0.361 -0.4334  0.5261  1.1674
 2570SOL    HW214826  10.923   8.666   0.467 -1.4403 -2.5540 -0.0240
 2571SOL     OW14827   4.327   0.789  10.804  0.0543 -0.2638 -0.0491
 2571SOL    HW114828   4.410   0.796  10.852  0.0762 -2.1421  0.2586
 2571SOL    HW214829   4.260   0.798  10.871  0.0384 -0.3498 -0.0536
 2572SOL     OW14830   7.660   2.679   1.942 -0.0096 -0.4696  0.6374
 2572SOL    HW114831   7.601   2.731   1.889 -1.5153 -1.6707  1.0633
 2572SOL    HW214832   7.690   2.739   2.010  0.7803  0.6661 -0.6636
 2573SOL     OW14833   2.832   8.117  12.495  0.4852 -0.3795  0.2239
 2573SOL    HW114834   2.900   8.065  12.452 -0.2523  0.4354 -2.0362
 2573SOL    HW214835   2.758   8.115  12.435  0.3543  3.1248  0.0726
 2574SOL     OW14836   5.717   9.043   3.425 -0.2087  0.2511  0.5484
 2574SOL    HW114837   5.650   9.065   3.490 -0.1025 -0.7205  1.0041
 2574SOL    HW214838   5.783   8.995   3.474  0.6703  0.9114  0.0304
 2575SOL     OW14839   3.712  12.362   5.940 -0.6837  0.0810  0.3730
 2575SOL    HW114840   3.693  12.269   5.930 -0.7850  0.2653 -1.4706
 2575SOL    HW214841   3.636  12.406   5.901  0.5206  0.8938 -1.1577
 2576SOL     OW14842   9.314   7.977   6.950  0.1394 -0.4614  1.0219
 2576SOL    HW114843   9.360   8.056   6.919  0.4706 -0.9847  0.1394
 2576SOL    HW214844   9.234   8.010   6.990  0.1042  0.3086  0.3393
 2577SOL     OW14845   1.303  11.290   9.632 -0.3791 -0.0430 -0.5431
 2577SOL    HW114846   1.272  11.202   9.656 -1.6377  0.8545  1.3630
 2577SOL    HW214847   1.234  11.348   9.662  1.7529  1.8517  0.9323
 2578SOL     OW14848   8.770   4.209   8.920 -0.5616  0.1728  0.3073
 2578SOL    HW114849   8.711   4.194   8.845  0.9328 -0.3284 -0.8267
 2578SOL    HW214850   8.832   4.275   8.889  0.6309 -0.6980  0.7704
 2579SOL     OW14851   8.521   6.712   4.341  0.1523  0.3366 -0.0607
 2579SOL    HW114852   8.515   6.646   4.272  0.0215 -0.4867  0.7268
 2579SOL    HW214853   8.530   6.662   4.422  0.8684  1.2918  0.4789
 2580SOL     OW14854   9.347   6.640   3.541  0.2671  0.3769 -0.1048
 2580SOL    HW114855   9.303   6.724   3.526 -1.2994 -0.5055 -0.6980
 2580SOL    HW214856   9.346   6.629   3.636  1.5561  1.5473  0.0765
 2581SOL     OW14857   6.686   8.660  10.235 -0.0974 -0.2420 -0.2377
 2581SOL    HW114858   6.649   8.575  10.211 -1.0128  0.2651 -0.7094
 2581SOL    HW214859   6.704   8.702  10.150 -2.2101  1.0916 -0.1001
 2582SOL     OW14860   3.765   0.434   4.530  0.1700  0.0351  0.5134
 2582SOL    HW114861   3.809   0.476   4.456 -0.0989 -1.1885 -0.3598
 2582SOL    HW214862   3.814   0.354   4.545 -1.0289 -0.7645  0.2851
 2583SOL     OW14863   0.346   6.397  12.454 -0.1424  0.2144  0.1468
 2583SOL    HW114864   0.349   6.471  12.395 -0.9643 -0.7876 -1.2151
 2583SOL    HW214865   0.368   6.321  12.400  3.3523 -0.3346  2.0278
 2584SOL     OW14866   4.989   9.678   8.357 -1.0553 -0.3679 -0.1280
 2584SOL    HW114867   5.064   9.694   8.300 -1.7822 -0.6853 -1.1940
 2584SOL    HW214868   4.978   9.760   8.405 -1.2348  0.3953 -1.4184
 2585SOL     OW14869   8.466  11.779   9.686  0.5041  0.1860 -0.7613
 2585SOL    HW114870   8.496  11.690   9.704  0.4433  0.1994 -0.5934
 2585SOL    HW214871   8.396  11.769   9.621 -0.6381 -0.0261  0.4788
 2586SOL     OW14872   0.213  12.300   2.323 -0.0335  0.2618 -0.3140
 2586SOL    HW114873   0.182  12.364   2.260  0.0360  0.2537 -0.3567
 2586SOL    HW214874   0.293  12.339   2.360 -0.1574  0.3346 -0.1215
 2587SOL     OW14875  12.263   8.164   1.717  0.3305 -0.0357 -0.5980
 2587SOL    HW114876  12.308   8.249   1.710 -0.5790  0.4950 -0.1355
 2587SOL    HW214877  12.257   8.132   1.627 -1.1842  1.3912 -1.0559
 2588SOL     OW14878   7.795   4.571   2.542 -0.1226  0.5297 -0.2804
 2588SOL    HW114879   7.769   4.481   2.526  1.3167  0.5072 -3.4523
 2588SOL    HW214880   7.782   4.585   2.636 -0.7105 -2.8271  0.2419
 2589SOL     OW14881   6.090   9.574  11.843  0.7721 -0.3456  0.2536
 2589SOL    HW114882   6.033   9.522  11.900 -0.0030 -0.6607 -0.7622
 2589SOL    HW214883   6.176   9.531  11.849  1.0295  0.3441  2.0713
 2590SOL     OW14884  11.854   8.434  10.137  0.7545  0.3641 -0.1782
 2590SOL    HW114885  11.812   8.348  10.140  0.5865  0.2638 -2.7925
 2590SOL    HW214886  11.809   8.485  10.205 -0.3991 -1.0761  0.1954
 2591SOL     OW14887  12.944  10.084  10.294 -0.2887  0.2789  0.2061
 2591SOL    HW114888  12.955  10.127  10.209 -0.3523  2.3075  1.1765
 2591SOL    HW214889  12.904  10.000  10.273  3.9917 -1.4869 -2.2414
 2592SOL     OW14890   6.642   1.278   1.161  0.1436 -0.0956 -0.6425
 2592SOL    HW114891   6.663   1.218   1.089  0.5095  0.8721 -1.3672
 2592SOL    HW214892   6.634   1.363   1.119  1.6651  0.7305  0.6389
 2593SOL     OW14893   5.611   0.604   1.988 -0.5775  0.3299 -0.1349
 2593SOL    HW114894   5.601   0.605   1.892 -3.9748 -3.5174 -0.1204
 2593SOL    HW214895   5.587   0.692   2.016 -0.6347  1.2351 -2.7628
 2594SOL     OW14896  10.409   9.147  10.134  0.4851 -0.1182 -0.6960
 2594SOL    HW114897  10.480   9.130  10.196  1.4011 -0.9039 -1.9211
 2594SOL    HW214898  10.430   9.231  10.095 -0.4992  0.7540  0.5467
 2595SOL     OW14899   6.208   2.056   3.756  0.0957 -0.7428 -0.2030
 2595SOL    HW114900   6.124   2.032   3.795  0.9857 -0.0936  2.3358
 2595SOL    HW214901   6.194   2.050   3.662 -2.7842 -0.6254  0.1450
 2596SOL     OW14902   2.471   0.626   7.758  0.0821 -0.4184 -0.4893
 2596SOL    HW114903   2.562   0.607   7.782 -0.3724 -0.3308  1.5175
 2596SOL    HW214904   2.423   0.547   7.785 -0.6327  0.1415 -0.0930
 2597SOL     OW14905   6.668  10.729  12.148 -0.6619  0.4699 -0.3766
 2597SOL    HW114906   6.620  10.811  12.164  0.8147  0.9606  1.8908
 2597SOL    HW214907   6.616  10.662  12.192 -0.3164  0.6766  0.3505
 2598SOL     OW14908   6.480   5.429   1.105 -0.1338 -0.3667  0.4146
 2598SOL    HW114909   6.493   5.524   1.097 -1.0740 -0.2479  0.2422
 2598SOL    HW214910   6.504   5.395   1.019  0.0137 -0.2712  0.4162
 2599SOL     OW14911   4.427   1.787  11.935  0.5967 -0.4544  0.3232
 2599SOL    HW114912   4.505   1.828  11.898 -0.2170  0.0202 -0.8930
 2599SOL    HW214913   4.379   1.753  11.860 -0.5038 -0.5172  1.0302
 2600SOL     OW14914   1.142   6.481   6.031  0.0786 -0.3660 -0.0929
 2600SOL    HW114915   1.107   6.570   6.034  1.0431  0.0693 -0.8134
 2600SOL    HW214916   1.157   6.457   6.122  1.2396  0.8276  0.0650
 2601SOL     OW14917  11.027  11.208  11.476  0.1553 -0.0320 -0.6707
 2601SOL    HW114918  11.101  11.238  11.423  0.6200  1.3221  0.6460
 2601SOL    HW214919  10.958  11.271  11.458  1.3167  2.4517  2.5441
 2602SOL     OW14920   2.372   0.600   0.607  0.3129 -0.1192  1.0846
 2602SOL    HW114921   2.294   0.647   0.577 -3.2050 -2.9761  4.6247
 2602SOL    HW214922   2.396   0.644   0.689  0.8579 -0.8198  1.3107
 2603SOL     OW14923   8.187  11.543   3.587  0.1431  0.2962 -0.3998
 2603SOL    HW114924   8.188  11.509   3.497 -0.4068 -0.4182 -0.1459
 2603SOL    HW214925   8.278  11.566   3.605  0.5655 -1.1572 -0.5517
 2604SOL     OW14926   2.025  10.057   7.726  0.0297 -0.2202  0.0606
 2604SOL    HW114927   2.102  10.088   7.678 -0.6601  0.6642 -0.4948
 2604SOL    HW214928   1.981   9.997   7.666 -0.0856 -0.1837  0.1078
 2605SOL     OW14929   7.337   2.966   2.984 -0.0563 -0.0730  0.5830
 2605SOL    HW114930   7.304   2.947   2.896 -1.5489 -0.0462  1.1149
 2605SOL    HW214931   7.432   2.959   2.976 -0.0876  0.9522 -1.2807
 2606SOL     OW14932  12.853   2.005   0.287  0.0998 -0.2291  0.0385
 2606SOL    HW114933  12.902   2.031   0.365 -1.1667 -0.3939  0.9248
 2606SOL    HW214934  12.804   1.928   0.314 -1.8624  0.8179 -0.2792
 2607SOL     OW14935   4.539   0.425   0.121 -0.1275  0.2258  0.0211
 2607SOL    HW114936   4.605   0.447   0.187 -0.0896 -1.6623  0.6455
 2607SOL    HW214937   4.544   0.330   0.112 -1.7309  0.2070 -1.0312
 2608SOL     OW14938  12.407   1.399   3.512  0.1257 -0.9770 -0.0756
 2608SOL    HW114939  12.496   1.382   3.543  0.3157  1.4275  0.9065
 2608SOL    HW214940  12.412   1.392   3.417  1.5843 -0.1120 -0.0847
 2609SOL     OW14941   2.060   4.095   3.450 -0.4097  0.5999  1.0514
 2609SOL    HW114942   2.003   4.095   3.527  0.4138  2.8013  1.7399
 2609SOL    HW214943   2.119   4.168   3.464  1.2920 -0.3660 -0.6081
 2610SOL     OW14944   8.373  10.716   6.103  0.4223 -0.1446  0.1712
 2610SOL    HW114945   8.370  10.625   6.131  1.0251 -0.2637 -0.1427
 2610SOL    HW214946   8.402  10.712   6.012 -0.7492  0.2807 -0.2499
 2611SOL     OW14947  11.622  10.253   4.533 -0.1973 -0.4115  0.5267
 2611SOL    HW114948  11.669  10.245   4.617  1.4693 -0.3352 -0.3453
 2611SOL    HW214949  11.585  10.342   4.535  0.7742  0.0044  0.7421
 2612SOL     OW14950  12.440   3.422   0.014  0.4124 -0.0746 -0.1191
 2612SOL    HW114951  12.518   3.409  -0.039  0.1105  0.4811 -0.7039
 2612SOL    HW214952  12.420   3.515   0.006 -2.0126 -0.6622 -2.4118
 2613SOL     OW14953   3.663   2.738   2.224  0.3052 -0.6136 -0.2987
 2613SOL    HW114954   3.665   2.757   2.131  1.7512 -0.0994 -0.1872
 2613SOL    HW214955   3.609   2.659   2.232  1.2240 -1.4126 -1.7097
 2614SOL     OW14956   9.518   0.086   6.572  0.4461  0.3165  0.1697
 2614SOL    HW114957   9.497   0.002   6.530  1.1609 -0.1981  0.7974
 2614SOL    HW214958   9.434   0.125   6.593  0.1011 -0.0967 -0.4197
 2615SOL     OW14959  11.417   8.566   1.947 -0.1872  0.1828 -0.2829
 2615SOL    HW114960  11.358   8.622   1.897 -1.2480  0.2812  1.0137
 2615SOL    HW214961  11.407   8.596   2.038  0.8255 -0.7247  0.1514
 2616SOL     OW14962   3.444   0.836   9.760  0.1826 -0.5937  0.5213
 2616SOL    HW114963   3.538   0.848   9.751  0.2502 -0.9993  0.6642
 2616SOL    HW214964   3.425   0.854   9.852 -0.2985  2.1614 -0.0285
 2617SOL     OW14965   5.789   8.723  11.228  0.9403 -0.0084 -0.4548
 2617SOL    HW114966   5.823   8.767  11.306 -1.6453  0.8034  0.3026
 2617SOL    HW214967   5.784   8.791  11.161 -0.8639  0.3502  0.0087
 2618SOL     OW14968   0.659   4.643   3.089  0.0225 -0.3746 -0.0725
 2618SOL    HW114969   0.745   4.620   3.053  0.4300  0.4909  0.2957
 2618SOL    HW214970   0.631   4.566   3.138  1.2741 -0.1688  1.0284
 2619SOL     OW14971   7.884  12.946   6.858 -0.7326 -0.1754 -0.2221
 2619SOL    HW114972   7.952  12.954   6.791 -1.6801  0.1365 -1.1652
 2619SOL    HW214973   7.929  12.905   6.933  1.1583  2.4438  0.1978
 2620SOL     OW14974   1.572   7.902   1.045 -0.2295  0.2936  0.2536
 2620SOL    HW114975   1.650   7.914   0.990  0.4396 -0.5681  0.9731
 2620SOL    HW214976   1.539   7.816   1.021 -1.2360  0.8208 -0.3432
 2621SOL     OW14977   7.478   3.725   5.645  0.0819  0.0915  0.1173
 2621SOL    HW114978   7.416   3.659   5.674  1.0696 -0.8461  0.1696
 2621SOL    HW214979   7.429   3.778   5.582 -2.1260  2.2010  3.3443
 2622SOL     OW14980   1.133   7.608   0.310 -0.5143 -0.1960  0.4990
 2622SOL    HW114981   1.184   7.572   0.383 -0.2443  0.0070  0.4125
 2622SOL    HW214982   1.130   7.702   0.327  2.2958  0.3465 -1.4141
 2623SOL     OW14983  10.903   2.211  11.698 -0.2286  0.1964  0.5380
 2623SOL    HW114984  10.929   2.136  11.644 -0.2715  0.9656 -0.5859
 2623SOL    HW214985  10.809   2.197  11.715 -0.8249  1.1175 -1.6267
 2624SOL     OW14986   2.516   4.374  12.736  0.1122 -0.2377  0.3954
 2624SOL    HW114987   2.513   4.399  12.644 -2.1167  3.5837  1.2762
 2624SOL    HW214988   2.602   4.401  12.766  0.8483 -1.4954 -0.4959
 2625SOL     OW14989   0.794   1.192   0.509 -0.2699 -0.3817 -0.0365
 2625SOL    HW114990   0.850   1.141   0.567  1.8921 -0.1965 -1.8100
 2625SOL    HW214991   0.806   1.283   0.537 -1.6619 -0.5183  1.1207
 2626SOL     OW14992   5.972  12.750   3.598 -0.3352 -0.4765  0.3176
 2626SOL    HW114993   5.960  12.656   3.588  4.1118 -1.3327  0.7252
 2626SOL    HW214994   6.033  12.773   3.528  1.2373  1.3467  2.1626
 2627SOL     OW14995   7.112  11.392   6.643 -0.2923  0.2803 -0.1844
 2627SOL    HW114996   7.083  11.409   6.733 -0.2042 -1.2256  0.1570
 2627SOL    HW214997   7.207  11.398   6.646 -0.1640 -1.3527  0.2298
 2628SOL     OW14998   1.657   4.342   7.253  0.0755  0.1408  0.6678
 2628SOL    HW114999   1.664   4.256   7.294  0.8172 -0.3109 -0.3556
 2628SOL    HW215000   1.747   4.367   7.231 -0.2299  0.6297 -0.1152
 2629SOL     OW15001   4.516   7.969   4.308 -0.4292 -0.3960 -0.0360
 2629SOL    HW115002   4.609   7.978   4.327 -0.4806  0.6265 -0.1954
 2629SOL    HW215003   4.472   8.018   4.378 -0.7371  0.9388 -1.1017
 2630SOL     OW15004  12.089   2.509   2.840 -0.7050 -0.3610  0.2172
 2630SOL    HW115005  12.156   2.517   2.908 -0.6712  0.5151  0.0999
 2630SOL    HW215006  12.117   2.434   2.787 -0.4205 -0.6914  0.8228
 2631SOL     OW15007   6.509   9.347   8.292  0.3635  0.3315 -0.8817
 2631SOL    HW115008   6.517   9.432   8.335 -0.0277 -0.1269  0.1280
 2631SOL    HW215009   6.439   9.303   8.339  0.1444 -0.3256 -1.7912
 2632SOL     OW15010   8.343  10.652   3.137  0.7207  0.2043  0.2379
 2632SOL    HW115011   8.260  10.605   3.146  0.6109 -0.1450 -1.8913
 2632SOL    HW215012   8.376  10.660   3.226 -0.7278 -1.2490  0.9718
 2633SOL     OW15013   7.333   6.661   8.427  0.0954 -0.2338  0.4430
 2633SOL    HW115014   7.408   6.658   8.368 -0.4122  0.4579 -0.2598
 2633SOL    HW215015   7.361   6.614   8.505  0.8442 -1.0133 -0.2850
 2634SOL     OW15016   2.652   5.587   6.322  0.3459  0.3387 -1.1419
 2634SOL    HW115017   2.641   5.502   6.280  0.2698  1.1728 -2.9379
 2634SOL    HW215018   2.617   5.576   6.410 -1.2026 -1.0524 -1.8816
 2635SOL     OW15019   4.813   9.234   9.354  0.0892 -0.0219 -0.7043
 2635SOL    HW115020   4.847   9.316   9.391  2.0774 -1.3151  0.5493
 2635SOL    HW215021   4.869   9.216   9.279  1.1171 -1.2528  0.2983
 2636SOL     OW15022   5.662   5.519   6.635  0.3828 -0.3669 -0.8882
 2636SOL    HW115023   5.748   5.553   6.610  1.7792 -3.4269 -0.6830
 2636SOL    HW215024   5.660   5.525   6.731  1.1703 -1.9111 -0.7504
 2637SOL     OW15025   7.205   1.913   6.797 -0.3755  0.0400 -0.0357
 2637SOL    HW115026   7.201   1.823   6.764 -0.5025 -0.3256  0.9483
 2637SOL    HW215027   7.296   1.926   6.822 -0.7549 -0.6035  1.8809
 2638SOL     OW15028   6.492   8.572   7.543 -0.3154 -0.3991  0.4555
 2638SOL    HW115029   6.570   8.622   7.568  0.4216 -0.3357 -1.7784
 2638SOL    HW215030   6.473   8.518   7.620  1.7687 -0.2345  1.1556
 2639SOL     OW15031  12.253  11.499   4.885 -0.1839  0.1315 -0.1908
 2639SOL    HW115032  12.215  11.570   4.833  0.9608  1.8510  1.1963
 2639SOL    HW215033  12.315  11.456   4.826  0.1654  1.2250 -0.6445
 2640SOL     OW15034   8.965   4.863   4.466  0.3197  0.1070  0.5176
 2640SOL    HW115035   9.024   4.825   4.401 -1.7559 -0.2091 -1.3185
 2640SOL    HW215036   8.877   4.841   4.434 -0.8435 -1.0318  4.0500
 2641SOL     OW15037   1.566   7.041  10.398  0.2614  0.6549  0.2804
 2641SOL    HW115038   1.642   7.083  10.357  1.5225 -0.8554  0.9661
 2641SOL    HW215039   1.601   7.000  10.477 -1.0344 -1.0457  0.0333
 2642SOL     OW15040  12.530   1.453   0.612  0.3114  0.5964  0.0350
 2642SOL    HW115041  12.524   1.395   0.536  1.2858 -1.1538  1.2217
 2642SOL    HW215042  12.441   1.461   0.644  0.2788 -1.2190  0.4951
 2643SOL     OW15043   1.382   7.441  11.714 -0.4997  0.3188 -0.3276
 2643SOL    HW115044   1.363   7.504  11.783  0.3159  0.4224 -0.1862
 2643SOL    HW215045   1.379   7.356  11.758 -2.6984  0.1261 -0.7417
 2644SOL     OW15046  11.443   2.518   6.422  0.2580  0.0289 -0.3891
 2644SOL    HW115047  11.501   2.552   6.490 -1.9034  1.7146  0.7813
 2644SOL    HW215048  11.489   2.533   6.340  1.2511  1.7986  0.4449
 2645SOL     OW15049   4.102   0.036   8.350 -0.3545 -0.5284 -0.4902
 2645SOL    HW115050   4.007   0.050   8.346 -0.2246  0.1152 -1.7682
 2645SOL    HW215051   4.138   0.122   8.368 -0.0084 -0.7721 -0.0153
 2646SOL     OW15052   2.320   0.146   1.698 -0.0967  0.3996  0.3763
 2646SOL    HW115053   2.412   0.148   1.723  0.1557  0.0054 -0.4915
 2646SOL    HW215054   2.308   0.225   1.645 -0.2658  0.4453  0.4785
 2647SOL     OW15055   9.044   6.991   1.524  0.3939  0.6246 -0.3727
 2647SOL    HW115056   8.991   7.062   1.561  0.0201  0.7534 -1.1387
 2647SOL    HW215057   9.115   6.978   1.587 -0.7351  0.2134  0.8514
 2648SOL     OW15058   2.349   6.389   0.621  0.2187  0.2572  0.1856
 2648SOL    HW115059   2.262   6.426   0.637  0.1714 -0.1151  0.8169
 2648SOL    HW215060   2.377   6.354   0.706  1.5429  1.5209  0.3183
 2649SOL     OW15061  12.296   5.767   3.001 -0.0975  0.3214  0.0082
 2649SOL    HW115062  12.317   5.692   3.057 -0.5898 -0.5377 -0.9138
 2649SOL    HW215063  12.306   5.843   3.057  0.1898 -0.4569  1.0380
 2650SOL     OW15064   0.141  12.485   8.297 -0.3685  0.0964  0.6045
 2650SOL    HW115065   0.089  12.542   8.240  0.1004 -0.7891 -0.7607
 2650SOL    HW215066   0.232  12.513   8.281 -0.2021 -0.4478  0.5859
 2651SOL     OW15067   3.877  10.505  11.326 -0.4442 -0.2203  0.8018
 2651SOL    HW115068   3.804  10.487  11.386 -1.7595 -1.5166 -1.0777
 2651SOL    HW215069   3.845  10.479  11.240  1.2001  1.9789 -0.6076
 2652SOL     OW15070   9.511   6.995  11.088  0.2819 -0.3759  0.3102
 2652SOL    HW115071   9.434   7.046  11.112 -0.1285 -0.8680  0.0615
 2652SOL    HW215072   9.578   7.021  11.151  0.5416  1.5609 -0.7013
 2653SOL     OW15073   6.492   0.298   7.247  0.5887  0.0492  0.3155
 2653SOL    HW115074   6.537   0.215   7.234  0.6930  0.2284 -0.4822
 2653SOL    HW215075   6.490   0.339   7.161  1.0216  1.1256  0.7952
 2654SOL     OW15076   2.365  12.411  10.203 -0.0940 -0.4348  0.2232
 2654SOL    HW115077   2.309  12.402  10.126  0.7114 -0.9321 -0.3279
 2654SOL    HW215078   2.444  12.454  10.170  0.1561 -0.4274  0.8232
 2655SOL     OW15079  10.603   3.480  10.894 -0.3837 -0.8462  0.3310
 2655SOL    HW115080  10.625   3.563  10.852 -1.3919 -1.4011 -1.4205
 2655SOL    HW215081  10.585   3.502  10.985  0.2495  0.6939  0.1113
 2656SOL     OW15082   5.418   2.138   4.736  0.6340 -0.3081  0.0089
 2656SOL    HW115083   5.392   2.113   4.647  1.1587  2.9567 -1.2182
 2656SOL    HW215084   5.512   2.120   4.739  1.1090  1.6668 -1.0357
 2657SOL     OW15085   4.678   0.640  11.136  0.1530 -0.4399 -0.2410
 2657SOL    HW115086   4.636   0.556  11.150 -2.0379  0.5457 -0.4173
 2657SOL    HW215087   4.625   0.682  11.068  1.4614  0.8964 -0.4890
 2658SOL     OW15088   8.533   9.747   4.989 -0.3447 -0.4129  0.1527
 2658SOL    HW115089   8.564   9.658   4.998 -0.0168 -0.2317  0.8387
 2658SOL    HW215090   8.575   9.779   4.909 -0.5298 -0.8934 -0.1420
 2659SOL     OW15091   5.887   5.732   1.689 -0.4893  0.1039  0.7625
 2659SOL    HW115092   5.963   5.753   1.743 -0.1618 -0.5018  0.5466
 2659SOL    HW215093   5.815   5.722   1.751 -0.9715  3.0282  0.8212
 2660SOL     OW15094  10.794   2.697   3.875 -0.2207 -0.4663 -0.0999
 2660SOL    HW115095  10.784   2.602   3.877 -0.7536 -0.4936 -1.8675
 2660SOL    HW215096  10.705   2.730   3.860  0.2600  0.1398 -1.9627
 2661SOL     OW15097   2.005   7.139   5.957  0.6770  0.9069  0.3008
 2661SOL    HW115098   1.938   7.197   5.993  0.3886  0.4984  0.4291
 2661SOL    HW215099   1.961   7.092   5.886 -0.4351 -2.2809  2.8551
 2662SOL     OW15100   1.768   6.888   1.463  0.0415 -0.4938 -0.0155
 2662SOL    HW115101   1.684   6.928   1.487  1.0320  0.8873  1.3431
 2662SOL    HW215102   1.759   6.796   1.489 -1.5011 -0.6889 -1.1352
 2663SOL     OW15103   8.070   0.262   0.750 -0.1294  0.3233  0.4210
 2663SOL    HW115104   7.976   0.275   0.748 -0.2208 -0.3467 -1.5298
 2663SOL    HW215105   8.106   0.339   0.705  0.2483  0.4912  1.0029
 2664SOL     OW15106   8.665   8.245  11.675 -0.3850 -0.1654 -0.5650
 2664SOL    HW115107   8.612   8.215  11.749 -0.2860 -3.3708 -1.6440
 2664SOL    HW215108   8.619   8.323  11.642 -1.7385 -0.0759  1.3655
 2665SOL     OW15109   5.091  11.385   2.582  0.6853  0.8669  0.1234
 2665SOL    HW115110   5.006  11.420   2.609  0.2150  1.0424 -1.4862
 2665SOL    HW215111   5.136  11.364   2.664  0.0770  3.1025  1.0855
 2666SOL     OW15112   1.054   8.034   3.114 -0.1370 -0.2032  1.0834
 2666SOL    HW115113   1.032   8.068   3.201  0.1578  0.4549  0.9044
 2666SOL    HW215114   1.144   8.003   3.122  0.0327  0.2424  0.9002
 2667SOL     OW15115   6.295   8.232   2.805  0.0387  0.0104  0.2610
 2667SOL    HW115116   6.220   8.243   2.864 -0.5764  0.6112 -0.5972
 2667SOL    HW215117   6.256   8.236   2.717  0.9702 -0.5638 -0.1920
 2668SOL     OW15118   8.919   5.700   0.903 -0.5996 -0.2747 -0.9167
 2668SOL    HW115119   8.935   5.784   0.859  0.4397 -0.2370 -0.4920
 2668SOL    HW215120   8.840   5.715   0.954  0.5203  1.0429  0.5393
 2669SOL     OW15121   4.664   3.282   7.499 -0.3953  0.4530  0.5706
 2669SOL    HW115122   4.616   3.349   7.450 -1.0007  0.5657  1.2964
 2669SOL    HW215123   4.599   3.246   7.560  0.3257  0.2879  1.2564
 2670SOL     OW15124  11.698   5.297  11.884 -0.6092 -0.3391 -0.2082
 2670SOL    HW115125  11.780   5.305  11.836  0.2955  0.6688  1.3973
 2670SOL    HW215126  11.700   5.208  11.920 -0.8774 -0.7828 -1.2492
 2671SOL     OW15127   1.356   2.680   0.129 -0.3040  0.0513  0.0261
 2671SOL    HW115128   1.282   2.720   0.176 -1.8358  0.5022 -2.5466
 2671SOL    HW215129   1.410   2.755   0.102  1.0794 -0.2682  1.7738
 2672SOL     OW15130   1.167   7.167   1.233  0.3082  0.5339  0.1823
 2672SOL    HW115131   1.096   7.116   1.195  0.8393 -0.4983  0.5319
 2672SOL    HW215132   1.136   7.190   1.320 -0.2092  1.4223 -0.2200
 2673SOL     OW15133  10.039   9.442   8.366  0.0621  0.4522 -0.9400
 2673SOL    HW115134  10.081   9.497   8.300 -1.7798  1.5652 -1.2670
 2673SOL    HW215135  10.001   9.504   8.429  1.6392 -0.5748  1.1512
 2674SOL     OW15136   4.554   0.095  11.524  0.2133  0.0102  1.0259
 2674SOL    HW115137   4.506   0.036  11.582 -1.4751 -0.9824 -1.2049
 2674SOL    HW215138   4.487   0.154  11.490  0.9559  0.0132 -0.5174
 2675SOL     OW15139  11.933   0.829  11.928  0.0077 -0.2514 -0.4813
 2675SOL    HW115140  12.000   0.765  11.904 -1.9183 -2.3466 -0.5888
 2675SOL    HW215141  11.927   0.823  12.023 -0.5613 -0.6625 -0.5385
 2676SOL     OW15142   8.466  10.408   5.017  0.0369  0.1558 -0.5392
 2676SOL    HW115143   8.531  10.399   4.947 -1.4707 -1.4052 -1.8298
 2676SOL    HW215144   8.466  10.322   5.060 -0.0948  0.6411  0.4649
 2677SOL     OW15145   6.953   6.638  10.816 -0.2313  0.1775  0.3692
 2677SOL    HW115146   6.932   6.730  10.799 -0.9693  0.3623  2.0756
 2677SOL    HW215147   7.044   6.629  10.790  0.0849  1.6089  0.8944
 2678SOL     OW15148   9.431   3.721   9.104 -0.8215  0.3330 -0.1941
 2678SOL    HW115149   9.386   3.716   9.020  0.4908  1.9619 -1.0504
 2678SOL    HW215150   9.388   3.795   9.149 -1.5090 -0.5216  0.5882
 2679SOL     OW15151  11.872   2.866   6.189  0.0567 -0.2289  0.4086
 2679SOL    HW115152  11.937   2.931   6.217 -0.9410  0.1275  2.0205
 2679SOL    HW215153  11.924   2.787   6.171  1.0129  0.2067  1.1284
 2680SOL     OW15154   8.831   0.569   3.212  0.1706  0.4830 -0.3088
 2680SOL    HW115155   8.861   0.515   3.139 -0.2507 -0.3951  0.1521
 2680SOL    HW215156   8.781   0.509   3.268  0.2415  1.2003  0.5530
 2681SOL     OW15157   6.753   5.719   4.950 -0.0002 -0.5275  0.0152
 2681SOL    HW115158   6.802   5.802   4.952  0.4495 -0.7863 -0.2702
 2681SOL    HW215159   6.739   5.698   5.043  1.5428 -1.1010  0.1462
 2682SOL     OW15160   4.404   0.284   8.376 -0.0345  0.9655 -0.1968
 2682SOL    HW115161   4.363   0.259   8.293 -0.0271  2.3239 -0.6226
 2682SOL    HW215162   4.478   0.224   8.385  0.5957  1.4781 -1.6998
 2683SOL     OW15163   8.888  12.731   3.008 -0.2837 -0.2823 -0.5743
 2683SOL    HW115164   8.867  12.688   2.925  0.0598  0.6689 -1.1702
 2683SOL    HW215165   8.945  12.669   3.053 -2.0668 -1.6783 -0.1452
 2684SOL     OW15166   0.289   2.426   6.934 -0.1727  0.0343 -0.4176
 2684SOL    HW115167   0.228   2.399   7.003  0.7304  2.6077  1.5174
 2684SOL    HW215168   0.374   2.394   6.962 -0.2398 -1.9757 -2.2172
 2685SOL     OW15169   8.926   8.652   2.358  0.4796  0.0953  0.5188
 2685SOL    HW115170   8.978   8.632   2.281 -1.5106 -3.4849 -0.1427
 2685SOL    HW215171   8.917   8.747   2.358  1.8571  0.3404 -2.7530
 2686SOL     OW15172   8.643  11.591   3.166 -0.0695 -0.1649  0.9613
 2686SOL    HW115173   8.707  11.591   3.094 -0.1794  2.0779  0.8100
 2686SOL    HW215174   8.576  11.653   3.139 -0.5594  0.0703  2.6075
 2687SOL     OW15175   2.363   9.915   8.808  0.6819  0.2214 -0.3850
 2687SOL    HW115176   2.393   9.980   8.745 -1.6403  0.4413 -1.3573
 2687SOL    HW215177   2.277   9.947   8.836  0.8344 -0.8656  1.4820
 2688SOL     OW15178  10.618  11.924   4.036  0.3760 -0.3688  0.1475
 2688SOL    HW115179  10.581  12.003   4.074  1.2251 -0.1602  0.5591
 2688SOL    HW215180  10.597  11.931   3.942  0.6550  0.4730  0.1362
 2689SOL     OW15181   2.186   2.992   0.536 -0.3276  0.1274  0.5230
 2689SOL    HW115182   2.215   3.082   0.553  0.9329  0.4065 -2.4143
 2689SOL    HW215183   2.206   2.945   0.616  0.3748  2.1460  1.6142
 2690SOL     OW15184   6.340   4.389  12.204  0.2095 -0.5644  0.3555
 2690SOL    HW115185   6.302   4.403  12.290 -1.4623  2.2989 -0.7001
 2690SOL    HW215186   6.395   4.467  12.189 -0.4610 -0.4034 -1.5546
 2691SOL     OW15187   5.487   4.211   1.422  0.4183 -0.1463  0.0890
 2691SOL    HW115188   5.533   4.219   1.339  1.2550  0.1441  0.5697
 2691SOL    HW215189   5.543   4.256   1.485  0.1710 -1.0165  0.9542
 2692SOL     OW15190   6.001   3.042   8.828 -0.5277 -0.6117 -0.3337
 2692SOL    HW115191   6.042   3.078   8.749 -0.7979  1.9457  0.5985
 2692SOL    HW215192   6.074   3.033   8.890 -0.7536  0.2803  0.0770
 2693SOL     OW15193  10.757   0.015   5.016 -0.0979  0.3944 -0.0501
 2693SOL    HW115194  10.773   0.058   5.100  3.3779  1.6480 -1.1764
 2693SOL    HW215195  10.819  -0.059   5.015 -2.6816 -1.9429 -0.1058
 2694SOL     OW15196   8.159  10.866   9.164 -0.2071  0.1539 -0.5156
 2694SOL    HW115197   8.207  10.942   9.196  0.3883 -0.5820  0.3804
 2694SOL    HW215198   8.085  10.857   9.223  0.4209 -0.6944  0.1763
 2695SOL     OW15199   8.480   0.382   8.960 -0.2550 -0.2521  0.1161
 2695SOL    HW115200   8.422   0.457   8.974  0.8819  0.4952  0.9713
 2695SOL    HW215201   8.506   0.356   9.049  1.7595  0.2684 -0.2848
 2696SOL     OW15202   0.587   3.757   6.502  0.1583  0.9750  0.1090
 2696SOL    HW115203   0.587   3.718   6.589  0.4713 -0.0489 -0.3246
 2696SOL    HW215204   0.625   3.844   6.514  1.4601  0.3390  0.7871
 2697SOL     OW15205   7.335  11.928   8.402  0.5196 -0.1876 -0.4756
 2697SOL    HW115206   7.274  11.997   8.427  1.0345 -0.2853  1.2350
 2697SOL    HW215207   7.411  11.974   8.368  0.5111  0.0540 -0.1718
 2698SOL     OW15208   5.312   6.410  10.357 -0.6250  0.4261  0.3575
 2698SOL    HW115209   5.302   6.492  10.309 -2.4625 -0.2796 -0.5789
 2698SOL    HW215210   5.392   6.371  10.323  0.4171  1.9137  1.0007
 2699SOL     OW15211  11.744   7.882   6.830 -0.1094  0.4931 -0.0240
 2699SOL    HW115212  11.699   7.843   6.904 -0.4021  1.8252  0.5191
 2699SOL    HW215213  11.736   7.976   6.843 -0.1612  0.7625 -1.7435
 2700SOL     OW15214   3.971   6.515   2.190  0.2509 -0.5483 -0.1378
 2700SOL    HW115215   4.006   6.604   2.187 -0.5316 -0.2570 -1.0079
 2700SOL    HW215216   4.048   6.459   2.193  0.8049  0.1725  2.8285
 2701SOL     OW15217   1.379  11.061   4.489  0.7027 -0.0230 -0.1007
 2701SOL    HW115218   1.464  11.086   4.525  1.1852 -0.9308 -0.5934
 2701SOL    HW215219   1.394  10.977   4.447 -0.1553  0.3648 -1.2422
 2702SOL     OW15220   3.708   0.699   6.141 -0.2163  0.0241 -0.4497
 2702SOL    HW115221   3.768   0.758   6.188  1.5844 -2.9088  1.2247
 2702SOL    HW215222   3.740   0.700   6.051 -0.4146  1.7292 -0.5490
 2703SOL     OW15223  10.973   0.842   6.920  0.0020  0.6428  0.4799
 2703SOL    HW115224  10.968   0.915   6.981 -1.0073  0.3848  0.7206
 2703SOL    HW215225  10.905   0.781   6.949  1.2656 -0.7168  0.6932
 2704SOL     OW15226   5.401   8.954   8.968 -0.0862  0.4802 -0.5248
 2704SOL    HW115227   5.473   8.923   9.023  0.6588  0.7134 -1.3582
 2704SOL    HW215228   5.350   9.010   9.026 -1.1793 -1.8013  0.8726
 2705SOL     OW15229  10.097   1.872   6.709 -0.4281  0.8184 -0.0292
 2705SOL    HW115230  10.109   1.963   6.734  0.2836  1.0010 -1.0010
 2705SOL    HW215231  10.072   1.828   6.790  0.1499  1.7004  0.6377
 2706SOL     OW15232   6.595   3.867  11.371 -0.0459  0.4284 -0.1712
 2706SOL    HW115233   6.579   3.942  11.314  0.4127  1.6075  1.1937
 2706SOL    HW215234   6.564   3.895  11.457  0.0999 -0.9658  0.3561
 2707SOL     OW15235  10.365   0.075   6.407  0.3203 -0.0457  0.2768
 2707SOL    HW115236  10.394   0.002   6.351 -1.4436 -1.2114  0.8055
 2707SOL    HW215237  10.378   0.153   6.353  0.1419 -0.9865 -1.1895
 2708SOL     OW15238  10.018   4.855   4.195  0.1834  0.2820 -0.1184
 2708SOL    HW115239  10.069   4.834   4.117  1.0439  0.5007  0.3680
 2708SOL    HW215240   9.927   4.843   4.169  0.4622  0.3847 -1.1607
 2709SOL     OW15241   0.836   4.244  12.120 -0.2366  0.3485  0.5707
 2709SOL    HW115242   0.765   4.188  12.089  0.3637  0.6332 -1.4725
 2709SOL    HW215243   0.909   4.225  12.061  0.9972  0.9539  1.8517
 2710SOL     OW15244   2.871  12.118   4.417 -0.2951  0.4626 -0.2072
 2710SOL    HW115245   2.835  12.119   4.506  0.2147  0.1784  0.0030
 2710SOL    HW215246   2.890  12.210   4.398 -1.8953  0.7421 -0.6454
 2711SOL     OW15247   0.811  10.068   7.430  0.8784 -0.4827 -0.0228
 2711SOL    HW115248   0.732  10.110   7.396 -1.4697 -3.8937  0.7375
 2711SOL    HW215249   0.840  10.010   7.360  0.8736 -1.4933  0.7856
 2712SOL     OW15250   1.177   7.466   2.759  0.7051  0.3193 -0.5995
 2712SOL    HW115251   1.245   7.399   2.759  0.7796  0.3843 -1.6046
 2712SOL    HW215252   1.096   7.418   2.744  0.5507  0.2721  0.3398
 2713SOL     OW15253  10.570   5.015   8.391  0.0558 -0.0440 -0.1519
 2713SOL    HW115254  10.644   4.956   8.375  0.8017  0.7898  0.1303
 2713SOL    HW215255  10.584   5.048   8.480  0.4543  1.6382 -0.8041
 2714SOL     OW15256   1.887  10.412   7.763  0.4754  0.0083  0.1351
 2714SOL    HW115257   1.960  10.472   7.746  0.5924 -0.5923 -1.6648
 2714SOL    HW215258   1.855  10.438   7.849  1.3991  1.7411  0.0097
 2715SOL     OW15259  10.738  12.099   7.747 -0.9907  0.1842  0.4358
 2715SOL    HW115260  10.813  12.126   7.693 -1.7355  0.3716 -0.5362
 2715SOL    HW215261  10.774  12.091   7.835  0.4168 -0.7558 -0.1761
 2716SOL     OW15262   5.910   3.256   0.431 -0.2321 -0.1830  0.0310
 2716SOL    HW115263   5.900   3.289   0.520 -0.2356  2.7003 -0.9373
 2716SOL    HW215264   5.865   3.320   0.376  1.1358 -1.0010 -2.1973
 2717SOL     OW15265   2.548   2.506  12.190  0.1358 -0.1618  0.7084
 2717SOL    HW115266   2.483   2.576  12.183 -0.6615 -0.9355  0.3211
 2717SOL    HW215267   2.609   2.537  12.257  0.7347  1.6590 -0.5899
 2718SOL     OW15268   3.466   0.774   1.927 -0.6397  0.1287  0.4357
 2718SOL    HW115269   3.474   0.702   1.865 -1.2950 -1.1243  1.7544
 2718SOL    HW215270   3.372   0.794   1.928 -0.6039  0.2803  0.8575
 2719SOL     OW15271  10.387   9.121   4.521 -0.2254 -0.0984  0.0964
 2719SOL    HW115272  10.318   9.118   4.588 -2.0368  0.1581 -1.6465
 2719SOL    HW215273  10.382   9.210   4.486  1.0499 -0.0669 -0.0249
 2720SOL     OW15274  10.127  12.378   3.196  0.3753  0.2168 -0.0931
 2720SOL    HW115275  10.151  12.327   3.273 -3.7699  0.6498  1.7236
 2720SOL    HW215276  10.194  12.355   3.131  1.9134 -3.1217  2.3486
 2721SOL     OW15277   6.621   6.161   5.754  0.1956 -0.0607 -0.1083
 2721SOL    HW115278   6.544   6.105   5.737 -1.0022  1.7826 -1.1539
 2721SOL    HW215279   6.584   6.240   5.792  1.7974  0.2738  0.8055
 2722SOL     OW15280   2.419   6.865   7.764 -0.6097  0.3425  0.2096
 2722SOL    HW115281   2.472   6.796   7.726  1.4236  2.0926 -0.3227
 2722SOL    HW215282   2.425   6.852   7.858  0.2971  0.1589  0.1329
 2723SOL     OW15283  11.543   4.642  10.850 -0.4803  0.0335 -0.7519
 2723SOL    HW115284  11.456   4.662  10.816 -0.5526 -0.3324 -0.7842
 2723SOL    HW215285  11.604   4.680  10.786 -0.6137 -0.8346 -1.4073
 2724SOL     OW15286   8.221   4.031   2.564  0.3164 -0.0610  0.1241
 2724SOL    HW115287   8.222   3.956   2.623  0.9845  0.1003  0.3251
 2724SOL    HW215288   8.134   4.070   2.576  0.7203  0.4623  1.6339
 2725SOL     OW15289   7.179  11.143   1.313  0.3737  0.4228 -0.0925
 2725SOL    HW115290   7.129  11.170   1.236  0.3157 -0.7816 -0.4890
 2725SOL    HW215291   7.179  11.048   1.310  1.1425  0.3742  0.9123
 2726SOL     OW15292  12.083   9.686   4.230 -0.0578  0.1754  0.2256
 2726SOL    HW115293  12.029   9.691   4.309 -0.6345  0.6918 -0.1794
 2726SOL    HW215294  12.037   9.743   4.167 -0.7774 -1.8234 -1.1631
 2727SOL     OW15295   6.375   9.301   7.544 -0.5046 -0.0258 -0.6883
 2727SOL    HW115296   6.305   9.235   7.543 -0.0234 -0.5413 -0.5708
 2727SOL    HW215297   6.426   9.284   7.465  0.5608 -0.8197  0.1502
 2728SOL     OW15298   0.385   0.371   0.218  0.3852 -0.0951  0.2986
 2728SOL    HW115299   0.428   0.452   0.188 -0.4352 -0.1316 -1.0376
 2728SOL    HW215300   0.456   0.307   0.222  0.7468  0.2588 -0.3018
 2729SOL     OW15301   9.730   9.404  10.966 -0.2843 -0.0835 -0.0396
 2729SOL    HW115302   9.756   9.349  10.891  0.7799 -0.3495  0.5031
 2729SOL    HW215303   9.648   9.365  10.996  0.8047 -1.8797  0.7779
 2730SOL     OW15304   2.390   1.975   7.165  0.2936  0.4582  0.2037
 2730SOL    HW115305   2.328   1.923   7.216  0.0844  0.0376 -0.4729
 2730SOL    HW215306   2.376   2.065   7.196 -0.1231  0.2684  0.5876
 2731SOL     OW15307   0.190   0.898   6.001  0.5924  0.3358  0.6405
 2731SOL    HW115308   0.228   0.820   5.961  1.8658  1.7629 -1.0787
 2731SOL    HW215309   0.154   0.867   6.084  1.3557 -1.9960  0.1743
 2732SOL     OW15310   4.349   4.967   4.186 -0.5783  0.0997 -0.4392
 2732SOL    HW115311   4.398   5.033   4.234 -0.4629 -0.0096 -0.4052
 2732SOL    HW215312   4.351   4.890   4.243 -1.8274  0.4559  0.1243
 2733SOL     OW15313   3.278   5.103  10.946  0.3268  0.1683 -0.3437
 2733SOL    HW115314   3.226   5.086  10.868 -1.3841  1.1457  0.5108
 2733SOL    HW215315   3.312   5.192  10.933  0.2673  0.2282 -0.0948
 2734SOL     OW15316   9.459   7.086   2.113 -0.0833  0.3180 -0.3004
 2734SOL    HW115317   9.532   7.030   2.140 -1.1360 -0.6051  0.7206
 2734SOL    HW215318   9.469   7.166   2.164  1.3786  1.0817 -1.6973
 2735SOL     OW15319  10.210  12.828   4.663  0.1718 -0.8919  0.4103
 2735SOL    HW115320  10.261  12.749   4.682  0.3846 -1.5732 -2.5359
 2735SOL    HW215321  10.267  12.880   4.607  0.3149  1.8151  2.8722
 2736SOL     OW15322  11.422   5.564   2.631  0.0594  0.6585 -0.1666
 2736SOL    HW115323  11.343   5.580   2.580  0.2163  1.7434 -0.0907
 2736SOL    HW215324  11.402   5.598   2.718  0.2349 -0.0497  0.1574
 2737SOL     OW15325  11.906   9.078   1.662  0.2528 -0.2447 -0.3218
 2737SOL    HW115326  11.816   9.109   1.658  0.3444 -0.0265 -0.7181
 2737SOL    HW215327  11.912   9.012   1.593  0.8488  0.9400 -1.4270
 2738SOL     OW15328   2.675   6.251  12.413  0.6771  0.0889  0.5183
 2738SOL    HW115329   2.597   6.306  12.416 -0.1958 -1.0493 -0.4575
 2738SOL    HW215330   2.699   6.239  12.505  0.0401  0.9010  0.8003
 2739SOL     OW15331  11.637   1.095  12.305 -0.1666 -0.6973 -0.8975
 2739SOL    HW115332  11.637   1.127  12.214 -2.1295 -1.2474 -1.1371
 2739SOL    HW215333  11.642   1.175  12.358  2.5442 -0.4307 -1.4239
 2740SOL     OW15334   0.056   2.205   4.667 -0.3500  0.5243 -0.1307
 2740SOL    HW115335   0.096   2.162   4.591 -0.0862 -1.3936  1.0279
 2740SOL    HW215336  -0.029   2.164   4.676  0.7387 -1.4680  2.2750
 2741SOL     OW15337   3.129  10.179   3.822  0.2269  0.3070 -0.3474
 2741SOL    HW115338   3.105  10.090   3.846  0.9594  0.1443 -0.1851
 2741SOL    HW215339   3.222  10.173   3.800 -0.2877  0.4997 -2.8984
 2742SOL     OW15340   1.758  11.003   0.196  0.1550 -0.7796  0.1790
 2742SOL    HW115341   1.692  10.955   0.246  0.0558 -1.5046 -0.6330
 2742SOL    HW215342   1.838  10.953   0.208  0.2312 -0.7036 -0.0162
 2743SOL     OW15343   3.369   7.655   7.623  0.2697 -0.9709  0.0398
 2743SOL    HW115344   3.303   7.588   7.606 -0.0146 -0.8960  0.7928
 2743SOL    HW215345   3.452   7.610   7.612  0.1400 -0.8221 -1.9091
 2744SOL     OW15346   7.314   4.263   1.118 -0.1549  0.0591  0.0927
 2744SOL    HW115347   7.286   4.235   1.031 -0.0101  0.6065 -0.1316
 2744SOL    HW215348   7.254   4.334   1.141 -0.1140 -0.0014  0.3927
 2745SOL     OW15349   6.565   1.732   2.086 -0.0855 -0.0857 -0.4050
 2745SOL    HW115350   6.548   1.688   2.002 -1.6597  0.0774 -0.1899
 2745SOL    HW215351   6.635   1.794   2.065 -0.7678  0.2904 -1.7370
 2746SOL     OW15352   2.245   0.627  12.301 -0.2232  0.0879  0.5525
 2746SOL    HW115353   2.306   0.697  12.325  1.9532 -1.3182 -0.5885
 2746SOL    HW215354   2.251   0.622  12.205 -0.6792 -1.3571  0.5810
 2747SOL     OW15355   4.349   3.160   8.674 -0.2880 -0.3865 -0.4622
 2747SOL    HW115356   4.432   3.145   8.628 -0.2958  0.5665 -0.8246
 2747SOL    HW215357   4.332   3.254   8.662  0.1017  0.1073  2.1292
 2748SOL     OW15358   9.870   2.175  10.571 -0.4207  0.2202  0.4566
 2748SOL    HW115359   9.827   2.253  10.605  0.1647  0.1043  1.5216
 2748SOL    HW215360   9.849   2.106  10.634  0.2040 -0.1445  0.2816
 2749SOL     OW15361   7.240   2.796  10.783  0.3018  0.0536  0.5339
 2749SOL    HW115362   7.233   2.707  10.748 -0.2165 -0.1612  1.1642
 2749SOL    HW215363   7.152   2.816  10.814  0.4269  0.7752  0.4342
 2750SOL     OW15364   7.752   9.496   6.635  0.5928  0.1963 -0.4482
 2750SOL    HW115365   7.798   9.482   6.552  1.7812 -1.6002  0.4308
 2750SOL    HW215366   7.821   9.526   6.695  0.0796 -0.0511  0.2698
 2751SOL     OW15367  10.158   4.286   7.550  0.1913  0.2779 -0.4381
 2751SOL    HW115368  10.123   4.288   7.461 -0.4488 -1.2404 -0.2461
 2751SOL    HW215369  10.228   4.221   7.548  0.5030  0.5844  0.0696
 2752SOL     OW15370   2.355   3.881   8.189 -0.1522 -0.3746 -0.2995
 2752SOL    HW115371   2.345   3.795   8.230  2.3187 -0.5486  0.0732
 2752SOL    HW215372   2.378   3.861   8.098 -3.0569 -0.0064 -1.2066
 2753SOL     OW15373  11.669   9.083   9.928 -0.0154 -0.1002  0.7058
 2753SOL    HW115374  11.646   8.991   9.915 -0.3274 -0.3831  2.8794
 2753SOL    HW215375  11.633   9.128   9.852  1.4566 -1.9288 -1.2185
 2754SOL     OW15376   1.287   2.924   3.418  0.5669 -0.0826 -0.5562
 2754SOL    HW115377   1.348   2.856   3.390  1.4912  0.4881  0.0444
 2754SOL    HW215378   1.342   2.999   3.441 -0.2379  0.0122  1.2760
 2755SOL     OW15379   0.503   6.841   0.526 -0.2079 -0.0037 -0.1161
 2755SOL    HW115380   0.518   6.882   0.441  0.7794 -0.1765 -0.0338
 2755SOL    HW215381   0.450   6.763   0.506 -0.8221  0.4875 -0.4451
 2756SOL     OW15382   9.451  11.569   5.840  0.7875 -0.1801  0.3269
 2756SOL    HW115383   9.447  11.505   5.911 -0.7320  0.4461  0.8330
 2756SOL    HW215384   9.479  11.519   5.764 -0.8087 -1.5604  0.5966
 2757SOL     OW15385   3.250   1.961   2.078 -0.5603  0.3916 -0.3444
 2757SOL    HW115386   3.252   2.056   2.062  2.8000  0.3360 -1.0797
 2757SOL    HW215387   3.246   1.953   2.173  1.1507  1.3998 -0.1354
 2758SOL     OW15388   9.405  10.706   8.484 -0.0489  0.1744  0.7876
 2758SOL    HW115389   9.314  10.682   8.497  0.2528 -1.4928  0.0424
 2758SOL    HW215390   9.455  10.632   8.519  1.0093  0.9108  0.8790
 2759SOL     OW15391   5.032   6.187   8.479  0.4381  0.2171  0.0852
 2759SOL    HW115392   5.079   6.256   8.525 -0.5755  1.0356 -0.0653
 2759SOL    HW215393   4.995   6.132   8.549 -0.1434  0.7927  0.2323
 2760SOL     OW15394   7.359  10.403   2.943  0.4700  0.1264  0.6932
 2760SOL    HW115395   7.393  10.369   3.026 -1.6310  2.0331  2.4674
 2760SOL    HW215396   7.424  10.467   2.915  0.7418  0.1687  1.3991
 2761SOL     OW15397   6.395  11.570   4.259  0.2644  0.3435 -0.3208
 2761SOL    HW115398   6.308  11.542   4.291 -0.2080  0.9039 -1.0859
 2761SOL    HW215399   6.419  11.642   4.316  0.7908 -0.5847  0.6727
 2762SOL     OW15400   9.436   3.450  11.030  0.0662 -0.4464 -0.1081
 2762SOL    HW115401   9.495   3.520  11.058 -0.2027 -0.1481 -0.2744
 2762SOL    HW215402   9.381   3.491  10.964 -1.3681 -0.2916  1.1453
 2763SOL     OW15403   1.331  11.988   1.157 -0.5530 -0.4724  0.4494
 2763SOL    HW115404   1.363  12.077   1.166 -0.0763 -0.8810  4.3971
 2763SOL    HW215405   1.315  11.978   1.063  3.4329  2.3091 -0.7896
 2764SOL     OW15406   3.226   9.425   0.682 -0.5339  0.0113 -0.5773
 2764SOL    HW115407   3.300   9.443   0.738  1.2577 -2.2357 -2.0316
 2764SOL    HW215408   3.234   9.488   0.610  1.0592 -1.3277 -1.6252
 2765SOL     OW15409  10.300  11.899   2.840 -1.0170  0.2519 -0.0142
 2765SOL    HW115410  10.353  11.819   2.834 -0.3353  0.7460 -0.9725
 2765SOL    HW215411  10.211  11.868   2.855 -0.6873 -0.6620  0.1334
 2766SOL     OW15412  12.295  10.483   3.476  0.4890  0.0289 -0.3199
 2766SOL    HW115413  12.339  10.498   3.560  0.7497  1.6469 -0.7076
 2766SOL    HW215414  12.364  10.446   3.420  1.1626  1.7173 -0.6610
 2767SOL     OW15415   2.838   0.118  10.493  0.0875 -0.2765  0.2961
 2767SOL    HW115416   2.796   0.122  10.579 -2.0831  2.7051 -0.7484
 2767SOL    HW215417   2.772   0.080  10.435  0.5727  0.0659 -0.5059
 2768SOL     OW15418   3.644  12.858   8.265  0.0054 -0.2659 -0.1683
 2768SOL    HW115419   3.658  12.764   8.273  0.0406 -0.1428  1.5841
 2768SOL    HW215420   3.603  12.869   8.180 -1.6689 -2.0826  0.3346
 2769SOL     OW15421  10.013   2.926  11.679  0.0084 -0.2057 -0.2604
 2769SOL    HW115422  10.021   2.853  11.618 -0.8124  0.3499 -1.0565
 2769SOL    HW215423  10.018   3.004  11.623  1.1370  0.3732  0.6006
 2770SOL     OW15424   5.832   9.684   3.953 -0.4266  0.1762  0.8862
 2770SOL    HW115425   5.786   9.614   3.999 -0.9964 -0.2612 -0.2807
 2770SOL    HW215426   5.925   9.663   3.963 -0.5718 -0.3610  1.1285
 2771SOL     OW15427  10.636   6.149   6.151 -0.2812  0.3520  0.5381
 2771SOL    HW115428  10.556   6.187   6.187 -0.8166 -0.0222 -0.2186
 2771SOL    HW215429  10.618   6.055   6.148 -0.3823  0.3932 -0.9665
 2772SOL     OW15430  11.856  10.353   3.951 -1.1001 -0.0331  0.1715
 2772SOL    HW115431  11.925  10.367   3.886 -1.0736 -2.0661 -0.3009
 2772SOL    HW215432  11.784  10.408   3.921 -1.1252 -0.9940 -1.6881
 2773SOL     OW15433   6.606   8.999   1.524 -0.3399 -0.8460 -0.1576
 2773SOL    HW115434   6.610   8.970   1.433 -0.4104 -0.7560 -0.1897
 2773SOL    HW215435   6.662   9.077   1.526 -1.6454  0.1285 -0.4951
 2774SOL     OW15436   6.119   8.439   2.153  0.3508  0.0513  0.0932
 2774SOL    HW115437   6.122   8.533   2.139 -1.4503  0.2847  0.9308
 2774SOL    HW215438   6.046   8.409   2.098 -0.4254 -0.4931  1.3538
 2775SOL     OW15439   2.515  12.956   0.571  0.2805  0.1425  0.7986
 2775SOL    HW115440   2.538  12.887   0.508 -0.1449  0.6071  0.1313
 2775SOL    HW215441   2.556  13.035   0.536  0.2414  0.3580  1.2345
 2776SOL     OW15442  11.049   9.200  12.118 -0.2927 -0.5825 -0.0875
 2776SOL    HW115443  11.059   9.250  12.199  0.4663  0.9984 -1.1139
 2776SOL    HW215444  11.129   9.217  12.069 -0.9158 -1.1937 -1.3572
 2777SOL     OW15445   8.890   3.666  10.819 -0.5295 -0.0946  0.7343
 2777SOL    HW115446   8.902   3.747  10.769  0.5697 -0.3117  0.6231
 2777SOL    HW215447   8.796   3.663  10.838 -0.8984  0.2409 -0.9039
 2778SOL     OW15448   0.216   8.250   0.072 -0.2845  0.5482 -0.3503
 2778SOL    HW115449   0.166   8.287  -0.001 -0.3872  0.2461 -0.4372
 2778SOL    HW215450   0.280   8.317   0.094 -0.7149  0.9346 -0.2517
 2779SOL     OW15451  11.407  12.270  12.372  0.3174 -0.0271 -0.3583
 2779SOL    HW115452  11.358  12.351  12.363 -2.3469 -1.4542  0.1570
 2779SOL    HW215453  11.498  12.297  12.371 -0.4467  3.1237  1.2149
 2780SOL     OW15454   4.244   8.418   9.388  0.0950 -0.4231  0.3693
 2780SOL    HW115455   4.218   8.328   9.406 -0.2550 -0.6935 -1.3752
 2780SOL    HW215456   4.326   8.429   9.437 -0.4400 -1.2940  1.5120
 2781SOL     OW15457   6.890  11.838  11.083 -0.3484  0.0341  0.0939
 2781SOL    HW115458   6.943  11.916  11.102 -0.9824  0.9052 -1.5733
 2781SOL    HW215459   6.814  11.871  11.036 -1.6334 -1.3927  1.0702
 2782SOL     OW15460   4.194   8.768   7.371  0.6639 -0.4698 -0.7162
 2782SOL    HW115461   4.272   8.746   7.320  0.6740 -0.6315 -0.6307
 2782SOL    HW215462   4.193   8.864   7.373  0.9177 -0.4687 -0.6272
 2783SOL     OW15463   0.365  11.559   5.082 -0.0921 -0.2553 -0.6798
 2783SOL    HW115464   0.325  11.563   4.995  0.1582  0.8801 -0.7536
 2783SOL    HW215465   0.381  11.650   5.106 -2.7286 -0.2790  1.7799
 2784SOL     OW15466  11.185   9.558   2.585  0.0653 -0.3499 -0.1738
 2784SOL    HW115467  11.185   9.640   2.634  2.4430  0.7687 -1.8370
 2784SOL    HW215468  11.181   9.490   2.652  1.3755  1.1214  1.4876
 2785SOL     OW15469   3.864   3.844   0.845  0.3796  0.1811 -0.0043
 2785SOL    HW115470   3.801   3.907   0.878  0.3503  0.2095 -0.1167
 2785SOL    HW215471   3.856   3.769   0.904  0.4222  0.2850  0.1361
 2786SOL     OW15472   2.051   7.083   0.961  0.2909  0.0490  0.3748
 2786SOL    HW115473   1.974   7.139   0.952  1.4197  1.5975  0.0439
 2786SOL    HW215474   2.022   7.011   1.016 -1.9724 -0.4896 -1.3720
 2787SOL     OW15475   2.227   8.038   1.593 -0.0282 -0.3308  0.4750
 2787SOL    HW115476   2.182   8.123   1.594 -1.1301 -0.9050  1.0415
 2787SOL    HW215477   2.320   8.061   1.582 -0.3427  0.9222  0.2143
 2788SOL     OW15478   7.710   5.261   7.273  0.3617  0.6101 -0.5493
 2788SOL    HW115479   7.756   5.311   7.340  0.2321  0.3914 -0.2996
 2788SOL    HW215480   7.775   5.252   7.202  1.3766 -1.2764  0.5342
 2789SOL     OW15481   7.767   2.913   6.463 -0.1580  0.0602 -0.1927
 2789SOL    HW115482   7.781   2.918   6.368  1.2179 -1.4216 -0.1160
 2789SOL    HW215483   7.734   2.824   6.478 -0.5216  0.3343  0.7001
 2790SOL     OW15484   6.099   6.769   8.849  0.2478 -0.7832  0.7232
 2790SOL    HW115485   6.162   6.697   8.856  3.1102  1.2753 -1.1634
 2790SOL    HW215486   6.109   6.818   8.931 -0.8387 -1.7827  1.4961
 2791SOL     OW15487   0.005  10.003   2.069 -0.2887 -0.0599  0.2301
 2791SOL    HW115488  -0.016   9.968   2.155 -0.2047  0.8745  0.6363
 2791SOL    HW215489   0.011  10.097   2.081  0.3815  0.0309 -0.6593
 2792SOL     OW15490   7.555   3.932   0.887  0.0825 -0.0984 -0.1984
 2792SOL    HW115491   7.636   3.975   0.862 -1.2162  1.3731 -2.1945
 2792SOL    HW215492   7.486   3.996   0.868 -1.7240 -2.0671 -0.7086
 2793SOL     OW15493   0.311  10.846   2.265 -0.5237  0.1686 -0.1433
 2793SOL    HW115494   0.357  10.922   2.302  0.4384 -0.4726  0.0124
 2793SOL    HW215495   0.359  10.826   2.185 -0.4713 -0.5686  0.0666
 2794SOL     OW15496  11.389  10.550  12.962 -0.0280 -0.0283  0.1311
 2794SOL    HW115497  11.479  10.547  12.928  0.1134  0.7079  0.4387
 2794SOL    HW215498  11.335  10.564  12.885  0.2086  0.6061  0.0770
 2795SOL     OW15499  10.141   3.872   4.849  0.3394 -0.5811 -0.6946
 2795SOL    HW115500  10.110   3.861   4.760 -0.2785 -0.2334 -0.5307
 2795SOL    HW215501  10.131   3.966   4.866 -0.3183 -0.7620  0.0041
 2796SOL     OW15502   2.891   6.678  12.759 -0.2948  0.0860 -0.0181
 2796SOL    HW115503   2.986   6.685  12.744 -0.2492  1.1924  0.7151
 2796SOL    HW215504   2.860   6.623  12.686  1.0775 -1.3856  0.4428
 2797SOL     OW15505   1.543   5.599   5.144  0.5286 -0.0910  0.3127
 2797SOL    HW115506   1.546   5.676   5.201  0.5311 -0.5618  0.9664
 2797SOL    HW215507   1.461   5.556   5.166  0.2673  0.0140 -0.4446
 2798SOL     OW15508  10.938   7.706   1.033  0.2224  0.2523  0.2500
 2798SOL    HW115509  10.907   7.772   1.095 -0.2823 -0.9748  1.3496
 2798SOL    HW215510  10.859   7.677   0.987  0.2234 -0.5428  0.7370
 2799SOL     OW15511   7.118   5.308   8.906  0.1818  0.4637 -0.2114
 2799SOL    HW115512   7.176   5.369   8.861  0.9657 -0.1809 -0.1063
 2799SOL    HW215513   7.093   5.244   8.839  1.3056 -0.4639  0.2133
 2800SOL     OW15514   9.351   2.460  11.325  0.1744  0.0240 -0.2919
 2800SOL    HW115515   9.342   2.377  11.372 -0.6230  0.3517  0.1624
 2800SOL    HW215516   9.347   2.436  11.233 -0.4826 -0.4026 -0.1609
 2801SOL     OW15517   3.595   7.900   4.426 -0.2001  0.0265  0.2299
 2801SOL    HW115518   3.590   7.834   4.356 -0.6979 -0.0584  0.3404
 2801SOL    HW215519   3.688   7.908   4.445  0.1839  1.4877 -1.8235
 2802SOL     OW15520  10.015   0.997   4.516  0.0869  0.9264  0.4818
 2802SOL    HW115521   9.933   0.983   4.469 -0.8696  1.4342  1.9284
 2802SOL    HW215522   9.989   1.015   4.607  1.7731  1.4698  0.9131
 2803SOL     OW15523   2.748   4.980   2.733 -0.2317  0.6513 -0.1716
 2803SOL    HW115524   2.736   5.043   2.803 -0.2859 -0.1716  0.5745
 2803SOL    HW215525   2.837   4.948   2.744 -0.1223  0.7694 -0.6935
 2804SOL     OW15526   8.464  11.886   4.311  0.1073 -0.0937  0.4283
 2804SOL    HW115527   8.386  11.896   4.366 -0.4892 -1.3660 -0.1577
 2804SOL    HW215528   8.529  11.845   4.368 -0.3390 -0.9243  0.3585
 2805SOL     OW15529   9.743  12.066   0.447 -0.7583  0.1552 -0.5839
 2805SOL    HW115530   9.795  12.146   0.460 -0.1167 -0.2761 -0.4303
 2805SOL    HW215531   9.802  12.007   0.400 -1.3916 -0.0604 -1.1193
 2806SOL     OW15532   4.553   6.190   3.040  0.3457  0.3255  0.4410
 2806SOL    HW115533   4.531   6.161   2.951  0.8679 -1.2346  0.7913
 2806SOL    HW215534   4.476   6.168   3.092  0.5840 -0.1006  0.6269
 2807SOL     OW15535   3.299   4.387   4.523  0.2334 -0.2050 -0.1068
 2807SOL    HW115536   3.334   4.430   4.446 -0.3389  1.0616  0.3235
 2807SOL    HW215537   3.215   4.430   4.539 -0.2115 -1.2638  0.5276
 2808SOL     OW15538   7.284   3.611  10.604 -0.0236 -0.4905  0.0994
 2808SOL    HW115539   7.223   3.655  10.663  1.4976 -0.4199  1.7081
 2808SOL    HW215540   7.238   3.533  10.575 -1.6419  0.6100 -0.4228
 2809SOL     OW15541   1.434   6.229   3.620  0.3530  0.0439  0.1408
 2809SOL    HW115542   1.375   6.302   3.599 -0.1299 -0.1191  0.8973
 2809SOL    HW215543   1.518   6.272   3.636  0.6677  0.2080 -1.7068
 2810SOL     OW15544   6.706   2.065   6.041  0.4892 -0.0935  0.2370
 2810SOL    HW115545   6.775   2.131   6.037 -1.1368  1.7033  0.0517
 2810SOL    HW215546   6.660   2.084   6.123 -0.4822 -0.4880 -0.2030
 2811SOL     OW15547  12.441   8.957   2.688  0.2185  0.5863 -0.4387
 2811SOL    HW115548  12.535   8.945   2.701  0.2335  1.7987  0.8490
 2811SOL    HW215549  12.407   8.869   2.673  1.5481  0.1299 -0.8708
 2812SOL     OW15550   6.938   0.093   6.493 -0.6028  0.6154 -0.3229
 2812SOL    HW115551   6.923   0.054   6.406 -0.2307 -0.3839  0.0530
 2812SOL    HW215552   7.029   0.072   6.514 -0.9022  0.2327  0.6233
 2813SOL     OW15553   5.381   0.258   4.018 -0.2619 -1.0538 -1.0779
 2813SOL    HW115554   5.341   0.215   3.943 -2.6836  0.0899 -0.5575
 2813SOL    HW215555   5.451   0.312   3.980  0.2678 -2.4460 -2.1607
 2814SOL     OW15556   8.084   7.625   4.481 -0.1017 -0.2351  0.4751
 2814SOL    HW115557   8.159   7.572   4.452  0.1538 -1.3406  2.9633
 2814SOL    HW215558   8.122   7.689   4.541 -0.8574  0.8530 -0.1667
 2815SOL     OW15559   1.444   3.968   3.667 -0.2851 -0.6212  0.0487
 2815SOL    HW115560   1.423   3.929   3.583 -3.2746 -2.3278  1.3990
 2815SOL    HW215561   1.519   3.918   3.699  0.9789  0.1486 -1.5694
 2816SOL     OW15562  10.699   5.077   1.763  0.3440  0.5004  0.1545
 2816SOL    HW115563  10.678   5.115   1.677  1.2045  1.2463  0.2641
 2816SOL    HW215564  10.714   5.153   1.819 -0.5776  0.0238  1.0745
 2817SOL     OW15565   9.066  11.147  12.907  0.2605 -0.5369  0.5227
 2817SOL    HW115566   9.078  11.213  12.839 -1.8338  0.5674  1.1323
 2817SOL    HW215567   9.025  11.073  12.862  2.0336 -1.2293 -0.0368
 2818SOL     OW15568   7.690  12.329   8.687  0.1685  0.2876  1.0710
 2818SOL    HW115569   7.704  12.301   8.596  1.9402 -0.5919  1.5755
 2818SOL    HW215570   7.595  12.324   8.698 -0.1680  1.0929 -0.9266
 2819SOL     OW15571   8.223   7.372   2.822 -0.1789  0.7258 -0.4012
 2819SOL    HW115572   8.240   7.373   2.728  0.6583 -4.3731 -0.6048
 2819SOL    HW215573   8.129   7.387   2.830 -0.0187  2.8953 -1.7883
 2820SOL     OW15574   4.538   7.402   9.934 -0.3102  0.4438 -0.2995
 2820SOL    HW115575   4.509   7.396  10.025 -1.2663  1.4845 -0.5169
 2820SOL    HW215576   4.572   7.315   9.914  1.0185  0.5277  1.4103
 2821SOL     OW15577   0.015  10.241  10.081  0.0223 -0.0720  0.0067
 2821SOL    HW115578  -0.055  10.224  10.018  1.6685 -1.5230 -1.5274
 2821SOL    HW215579   0.056  10.322  10.051 -0.1538  0.0771  0.1576
 2822SOL     OW15580   9.511   1.672   0.481 -1.2511 -0.5352  0.5363
 2822SOL    HW115581   9.559   1.754   0.470  0.9638 -1.8773 -0.2604
 2822SOL    HW215582   9.466   1.659   0.397  1.5091 -1.9755 -0.8373
 2823SOL     OW15583   4.428  12.751   6.707 -0.1144 -0.2130  0.0792
 2823SOL    HW115584   4.378  12.832   6.716 -0.2003 -0.3518  0.8726
 2823SOL    HW215585   4.490  12.769   6.636  0.2414  0.7464  0.6165
 2824SOL     OW15586   7.766   6.487  11.131  0.2166 -0.0157  1.2554
 2824SOL    HW115587   7.790   6.499  11.039 -2.8918  1.7076  0.5409
 2824SOL    HW215588   7.801   6.564  11.175 -1.9292  1.3999  0.6174
 2825SOL     OW15589   0.106  12.599   1.080 -0.4022  0.4135  0.1458
 2825SOL    HW115590   0.104  12.565   1.169 -2.4860 -0.7943 -0.2941
 2825SOL    HW215591   0.084  12.692   1.090  0.5577  0.5661  0.9632
 2826SOL     OW15592   9.777   7.046   9.218  0.0163  0.4497 -0.5399
 2826SOL    HW115593   9.693   7.091   9.204  0.6012  1.7485 -0.0313
 2826SOL    HW215594   9.809   7.027   9.130 -0.4700  0.6104 -0.7518
 2827SOL     OW15595  10.621   5.486  11.455 -0.2349 -0.2550  0.0788
 2827SOL    HW115596  10.568   5.516  11.529 -0.2205 -0.2994  0.1082
 2827SOL    HW215597  10.574   5.409  11.423  0.3375 -0.8835  0.7246
 2828SOL     OW15598   8.123   1.977   1.079 -0.0064 -0.2807 -0.2872
 2828SOL    HW115599   8.037   2.018   1.086  0.0346  0.1098 -1.6967
 2828SOL    HW215600   8.107   1.884   1.092 -0.5113 -0.1185  0.2837
 2829SOL     OW15601   6.651   2.184   7.216  0.4101 -0.3492 -1.0248
 2829SOL    HW115602   6.712   2.158   7.146  0.2727  0.6708 -1.5377
 2829SOL    HW215603   6.589   2.112   7.222  0.9884 -0.8759 -1.2966
 2830SOL     OW15604   3.110  10.253   9.749  0.3343  0.4358  0.1162
 2830SOL    HW115605   3.171  10.324   9.730 -1.8015  2.5994  0.8642
 2830SOL    HW215606   3.128  10.230   9.841  1.4373 -0.4824 -0.3042
 2831SOL     OW15607  10.781  11.257   7.367  0.2511  0.0707 -0.1566
 2831SOL    HW115608  10.686  11.270   7.366  0.3390  0.6906 -0.6404
 2831SOL    HW215609  10.791  11.161   7.370 -0.3915 -0.0198  3.2375
 2832SOL     OW15610   9.398   5.968   8.818 -0.1270  0.1866 -0.0490
 2832SOL    HW115611   9.311   5.966   8.779  0.0457 -1.7884 -0.4331
 2832SOL    HW215612   9.454   6.007   8.750 -0.1103 -1.8053 -1.2610
 2833SOL     OW15613   1.226   7.162  11.590  0.2747  0.1198 -0.2128
 2833SOL    HW115614   1.196   7.200  11.508 -1.4574  0.4483  0.5246
 2833SOL    HW215615   1.265   7.235  11.638 -0.8979  0.4906  0.2194
 2834SOL     OW15616  11.899  12.906  12.454  0.2741 -0.2036 -0.0402
 2834SOL    HW115617  11.940  12.951  12.528  0.1718 -1.2364  0.6545
 2834SOL    HW215618  11.879  12.976  12.392  1.0646  0.5834  0.5702
 2835SOL     OW15619   9.895   3.708   9.848 -0.3803  0.4077 -0.4072
 2835SOL    HW115620   9.949   3.784   9.870 -0.9652  0.7177  0.0069
 2835SOL    HW215621   9.957   3.638   9.830  0.1506  0.6545  0.4036
 2836SOL     OW15622   0.038   5.391   6.188  0.4124  0.0747 -0.1922
 2836SOL    HW115623  -0.035   5.398   6.249  0.4617 -2.4842  0.2649
 2836SOL    HW215624   0.110   5.438   6.229  0.5914 -1.9841  2.0470
 2837SOL     OW15625   1.162   4.250   9.103 -0.1409 -0.4675  0.5424
 2837SOL    HW115626   1.183   4.291   9.019 -3.8134  0.0004 -0.3019
 2837SOL    HW215627   1.155   4.323   9.165 -2.4264 -0.1492  0.0057
 2838SOL     OW15628  10.171  11.418   5.706 -0.0737  0.2112 -0.1974
 2838SOL    HW115629  10.236  11.386   5.769 -0.3862  1.0624  0.5925
 2838SOL    HW215630  10.222  11.444   5.630  0.2534 -1.4628 -0.5937
 2839SOL     OW15631   3.970   8.350  10.474  0.6640 -0.2265  0.3590
 2839SOL    HW115632   3.984   8.437  10.435  2.7320 -0.3876  0.5909
 2839SOL    HW215633   4.032   8.294  10.427  1.8879 -0.8105  2.5536
 2840SOL     OW15634   5.798   5.092   4.730  0.1051 -0.6626  0.0628
 2840SOL    HW115635   5.782   5.179   4.766 -0.0536  0.0044 -1.5366
 2840SOL    HW215636   5.817   5.037   4.806 -1.8321  0.2960  1.3126
 2841SOL     OW15637   5.790   3.154  10.547  0.2933  0.0155 -0.0835
 2841SOL    HW115638   5.805   3.243  10.515  0.2260 -0.1117 -0.4793
 2841SOL    HW215639   5.750   3.166  10.633 -0.5883  0.3917 -0.5209
 2842SOL     OW15640   7.900   9.057   4.256 -0.0928  0.0419  0.0542
 2842SOL    HW115641   7.856   9.130   4.213  0.7826  1.0300  0.8017
 2842SOL    HW215642   7.955   9.097   4.322 -1.0619 -1.4081  1.8486
 2843SOL     OW15643   1.467   9.413   1.859  0.0657 -0.2257 -0.2242
 2843SOL    HW115644   1.540   9.381   1.805  0.5856  0.9367 -0.2393
 2843SOL    HW215645   1.418   9.470   1.800  0.3437  0.6494  0.3818
 2844SOL     OW15646   3.050   8.179   2.815  0.6368  0.3653 -0.2061
 2844SOL    HW115647   3.027   8.090   2.839 -1.0378  0.7935 -0.0727
 2844SOL    HW215648   3.081   8.218   2.897 -1.0283  0.5941  0.3670
 2845SOL     OW15649   8.065   8.923   8.392 -0.1984  0.0644  0.3789
 2845SOL    HW115650   8.044   8.861   8.322  1.2735  0.3828 -0.4022
 2845SOL    HW215651   8.144   8.886   8.433 -0.7788  0.1212  1.5890
 2846SOL     OW15652   0.126   9.701   7.651  0.1799 -0.1050 -0.7327
 2846SOL    HW115653   0.131   9.709   7.556 -0.4668 -2.9188 -1.0933
 2846SOL    HW215654   0.049   9.648   7.666 -0.0308  0.7340  1.4387
 2847SOL     OW15655  10.812  12.693   8.745 -0.0297 -0.0335 -0.1748
 2847SOL    HW115656  10.858  12.661   8.668 -0.7349 -0.6364 -0.3641
 2847SOL    HW215657  10.725  12.717   8.713 -0.3079 -0.2248  0.4110
 2848SOL     OW15658  12.821   0.908   4.275  0.1486  0.2761  0.1108
 2848SOL    HW115659  12.786   0.940   4.193  0.5944  1.5062  0.3786
 2848SOL    HW215660  12.788   0.818   4.282 -0.2049  0.2835 -1.2097
 2849SOL     OW15661   7.506   9.470   8.423  0.2917 -0.6982  0.1954
 2849SOL    HW115662   7.588   9.511   8.450  0.6578 -1.6102  0.4899
 2849SOL    HW215663   7.515   9.458   8.329 -0.3734  1.1041 -0.1443
 2850SOL     OW15664   7.136   4.001   3.127  0.1630 -0.5223 -0.7203
 2850SOL    HW115665   7.124   3.915   3.166 -1.3569 -0.2744 -0.5971
 2850SOL    HW215666   7.049   4.028   3.099  0.8112  0.4229 -1.9472
 2851SOL     OW15667   0.942   6.787   0.879 -0.0246 -0.0614 -0.2519
 2851SOL    HW115668   0.862   6.744   0.847  2.1144 -3.2005 -1.8574
 2851SOL    HW215669   0.929   6.794   0.973 -2.1154 -0.5622 -0.4430
 2852SOL     OW15670  10.841  11.827   7.122  0.0592  0.7872  0.5104
 2852SOL    HW115671  10.818  11.913   7.158 -1.0637  1.0530 -0.7883
 2852SOL    HW215672  10.934  11.834   7.104  0.3030  1.2138  1.7790
 2853SOL     OW15673   4.336   1.336   8.403  0.5277  0.0713 -0.0113
 2853SOL    HW115674   4.373   1.423   8.392  0.7821  0.0605  0.7677
 2853SOL    HW215675   4.403   1.277   8.368  0.1160  0.2052 -1.0822
 2854SOL     OW15676   8.462   2.740  10.810  0.2459 -0.0702  0.4405
 2854SOL    HW115677   8.379   2.787  10.807 -0.4586 -1.2642  0.6165
 2854SOL    HW215678   8.437   2.648  10.818  1.4958 -0.9043 -3.4632
 2855SOL     OW15679  11.802  11.292   7.407 -0.2889 -0.1825 -0.3650
 2855SOL    HW115680  11.865  11.364   7.420 -0.3230 -0.0883 -0.7174
 2855SOL    HW215681  11.734  11.309   7.472 -1.0834  0.9907 -1.4382
 2856SOL     OW15682   0.843   1.366   1.004  0.3177 -0.0231  0.3286
 2856SOL    HW115683   0.784   1.294   0.981  0.4921 -0.2300  0.5292
 2856SOL    HW215684   0.872   1.346   1.092  0.7051  0.0691  0.2228
 2857SOL     OW15685  10.500  10.240   5.869  0.5496 -0.9561 -0.1183
 2857SOL    HW115686  10.431  10.189   5.911  0.1685 -2.9310 -2.9059
 2857SOL    HW215687  10.455  10.290   5.800  1.5429 -0.1418 -0.2095
 2858SOL     OW15688   7.306   0.043   5.522 -0.4221 -0.0953 -0.0064
 2858SOL    HW115689   7.221   0.081   5.540 -0.6919  0.0430 -1.5217
 2858SOL    HW215690   7.287  -0.047   5.495 -0.0315 -0.2811  0.3201
 2859SOL     OW15691   8.235   8.754   7.042  0.0013 -0.4798 -0.0349
 2859SOL    HW115692   8.275   8.829   6.999 -0.2114 -0.4194 -0.1305
 2859SOL    HW215693   8.307   8.708   7.085  0.0383  0.1706  0.6151
 2860SOL     OW15694   2.156   8.533   6.948 -0.0378 -0.4887 -0.3809
 2860SOL    HW115695   2.161   8.491   6.862 -0.5458 -0.9448 -0.1906
 2860SOL    HW215696   2.109   8.616   6.931  0.8333 -0.0562 -0.7273
 2861SOL     OW15697  11.057   0.559   5.427 -0.1601  0.2657 -0.2019
 2861SOL    HW115698  11.121   0.526   5.490 -1.5636 -1.6343  0.3134
 2861SOL    HW215699  11.016   0.634   5.470 -0.9885 -0.9127  1.1239
 2862SOL     OW15700   0.943   8.048   4.540 -0.0366 -0.6411  0.0066
 2862SOL    HW115701   0.993   7.971   4.512  1.5418  0.3949 -0.1136
 2862SOL    HW215702   0.995   8.088   4.609 -0.3263  0.8548 -0.5871
 2863SOL     OW15703   8.009   1.318   7.641  0.3178  0.0950  0.0702
 2863SOL    HW115704   7.966   1.289   7.722  0.2835 -1.0068 -0.3239
 2863SOL    HW215705   8.008   1.414   7.646 -0.7141  0.0614  0.8352
 2864SOL     OW15706  12.307   7.844   6.654 -0.5638 -0.0365 -0.3693
 2864SOL    HW115707  12.288   7.917   6.595 -0.9765  0.5333  0.4431
 2864SOL    HW215708  12.221   7.805   6.671 -1.5045  3.0725  4.0091
 2865SOL     OW15709  12.557   7.375   8.053  0.4244 -0.2076  0.1905
 2865SOL    HW115710  12.568   7.334   7.967 -0.9791 -1.3142  0.5055
 2865SOL    HW215711  12.495   7.318   8.099  1.4426  0.1223  2.0933
 2866SOL     OW15712   0.842  12.394   0.877 -0.6881 -0.4666 -0.3726
 2866SOL    HW115713   0.761  12.441   0.896 -0.7831 -0.9950  0.5987
 2866SOL    HW215714   0.855  12.405   0.783 -0.4265  1.9069 -0.1108
 2867SOL     OW15715   5.156   5.003   3.410  0.8087  0.2286  0.1434
 2867SOL    HW115716   5.235   5.006   3.356  1.9188  0.5985  1.7154
 2867SOL    HW215717   5.172   4.930   3.471 -0.0521  0.3210  0.4916
 2868SOL     OW15718   9.120   9.753  12.210  0.0924 -0.4553  0.0977
 2868SOL    HW115719   9.192   9.812  12.188 -0.9280  0.4433 -0.9197
 2868SOL    HW215720   9.098   9.709  12.128 -1.7170  0.6534 -0.0694
 2869SOL     OW15721   5.829   3.289   5.768 -0.1870 -0.3040  0.0371
 2869SOL    HW115722   5.907   3.344   5.777 -0.7618  0.3056  1.8814
 2869SOL    HW215723   5.779   3.330   5.698  0.2875  0.3968  0.0971
 2870SOL     OW15724   4.266   3.702   2.902  0.0616 -0.2600  0.1109
 2870SOL    HW115725   4.183   3.748   2.909 -0.1227 -0.3421 -1.2059
 2870SOL    HW215726   4.332   3.768   2.922 -0.2724  0.1762 -0.1958
 2871SOL     OW15727   6.521   6.800   7.447 -0.5969 -0.0771  0.5156
 2871SOL    HW115728   6.595   6.860   7.456 -2.3445  2.2158  0.6184
 2871SOL    HW215729   6.503   6.771   7.536  0.8100 -1.5603  0.3625
 2872SOL     OW15730   9.008   6.394  11.976 -0.0452  0.5061  0.1646
 2872SOL    HW115731   8.959   6.466  12.016 -3.9726 -1.1231 -1.1269
 2872SOL    HW215732   9.059   6.357  12.048 -2.3538  1.1888  2.3317
 2873SOL     OW15733   9.331  11.005   7.408  0.6199 -0.4100 -0.0013
 2873SOL    HW115734   9.394  10.936   7.431  1.8413  0.2691 -1.1359
 2873SOL    HW215735   9.364  11.040   7.325 -1.7593 -0.5835 -1.0854
 2874SOL     OW15736  12.544   3.604   8.485  0.2646  0.8756  0.1240
 2874SOL    HW115737  12.450   3.622   8.484  0.0602  0.1814  2.0292
 2874SOL    HW215738  12.572   3.629   8.573  1.6481  0.0901 -0.0582
 2875SOL     OW15739  10.838  10.796   3.958 -0.3223 -0.0824 -0.4252
 2875SOL    HW115740  10.877  10.765   3.876  0.2094  0.8011 -0.5241
 2875SOL    HW215741  10.777  10.865   3.930  0.4294  0.7636 -0.0389
 2876SOL     OW15742   3.154   4.640  11.803 -0.2603 -0.4538 -0.1692
 2876SOL    HW115743   3.058   4.641  11.800 -0.2784  0.2072  0.4898
 2876SOL    HW215744   3.176   4.552  11.832 -0.6747 -0.5249 -0.0643
 2877SOL     OW15745  12.887  12.703   4.541  0.3904 -0.2758 -0.7050
 2877SOL    HW115746  12.816  12.712   4.605 -0.8388  1.5786 -2.2133
 2877SOL    HW215747  12.867  12.622   4.494  0.3186 -0.7088  0.0476
 2878SOL     OW15748   1.140  12.649  11.408 -0.2145 -0.0283 -0.1228
 2878SOL    HW115749   1.180  12.587  11.469  0.8147 -0.0610 -0.8159
 2878SOL    HW215750   1.119  12.596  11.330 -0.1456  0.3150 -0.3763
 2879SOL     OW15751   4.311   9.708   8.531 -0.5733 -0.2534  0.2963
 2879SOL    HW115752   4.366   9.764   8.587  0.4704  0.6843 -1.5797
 2879SOL    HW215753   4.338   9.619   8.554  1.8603  0.1673 -0.5653
 2880SOL     OW15754   7.987   0.858  12.110  0.1489  0.2161  0.2017
 2880SOL    HW115755   7.906   0.812  12.087  1.0541 -1.1736 -0.3475
 2880SOL    HW215756   7.969   0.950  12.091 -1.9209  0.2480  1.8537
 2881SOL     OW15757   9.435   0.487   1.111 -0.4984  0.5211  0.0865
 2881SOL    HW115758   9.371   0.432   1.067  0.0266  0.2277 -0.3172
 2881SOL    HW215759   9.445   0.563   1.054  0.7080 -0.1857 -0.6927
 2882SOL     OW15760  10.025  11.996  11.832 -0.6008 -0.5351 -0.7357
 2882SOL    HW115761  10.104  11.991  11.886 -0.4684 -0.8232 -0.9591
 2882SOL    HW215762  10.027  11.917  11.778 -2.1187 -1.6314  0.7204
 2883SOL     OW15763   5.090   3.244   5.632 -0.9166  0.6964  0.0775
 2883SOL    HW115764   5.067   3.336   5.647 -0.3322  0.7805  0.5139
 2883SOL    HW215765   5.184   3.241   5.647 -1.0128 -0.0754  0.5701
 2884SOL     OW15766   5.022   1.610   7.753 -0.0371  0.0877 -0.3650
 2884SOL    HW115767   4.955   1.619   7.685 -0.5353  0.7444  0.1932
 2884SOL    HW215768   5.047   1.518   7.750 -2.7689 -0.8284  1.0411
 2885SOL     OW15769   1.047   6.006   0.939  0.5420  0.1462  0.1892
 2885SOL    HW115770   1.102   6.006   0.861  0.5435  1.1563  0.1755
 2885SOL    HW215771   1.100   5.960   1.005  1.3730  0.9709  0.1310
 2886SOL     OW15772   4.900   1.461  11.436  0.4085 -0.3431  0.1394
 2886SOL    HW115773   4.995   1.478  11.435  0.4131 -0.1943 -1.7011
 2886SOL    HW215774   4.862   1.540  11.398 -0.3728 -0.7916 -0.0310
 2887SOL     OW15775   7.866   7.930  10.417 -0.3193 -0.0836 -0.0824
 2887SOL    HW115776   7.949   7.957  10.456 -0.3731 -1.4094  1.0184
 2887SOL    HW215777   7.871   7.834  10.415 -0.8390 -0.1158 -2.2254
 2888SOL     OW15778   4.921   9.759  12.001  0.0395  0.0559  0.3490
 2888SOL    HW115779   4.921   9.837  12.057  1.8128 -0.3821  1.0266
 2888SOL    HW215780   4.871   9.785  11.924  0.7142  1.9233  0.4855
 2889SOL     OW15781   3.057  12.927  10.727  0.9369 -0.4694  0.2750
 2889SOL    HW115782   3.053  12.892  10.816  1.9210  2.1251  1.4315
 2889SOL    HW215783   2.975  12.975  10.716  2.0285  1.6878  0.9832
 2890SOL     OW15784   2.061   8.235   7.091 -0.4354 -0.2523  0.1648
 2890SOL    HW115785   2.093   8.203   7.007  1.3118  0.7217  0.4219
 2890SOL    HW215786   2.032   8.156   7.137 -0.9076 -0.8514 -1.1083
 2891SOL     OW15787   1.959   9.884   1.961  0.0320  0.1924 -0.4244
 2891SOL    HW115788   1.876   9.908   1.919 -0.8290 -3.1245 -0.9340
 2891SOL    HW215789   1.981   9.799   1.922  3.3550  0.6170  0.2219
 2892SOL     OW15790   3.043  11.424   5.185 -0.5931 -0.7529  0.3765
 2892SOL    HW115791   2.975  11.393   5.125 -0.3304 -0.0063 -0.3239
 2892SOL    HW215792   2.996  11.481   5.246 -1.2100 -2.9604  2.1063
 2893SOL     OW15793   9.743   8.386   7.689 -0.0519 -0.2326 -0.1603
 2893SOL    HW115794   9.767   8.376   7.597  0.4977 -1.9769  0.1341
 2893SOL    HW215795   9.690   8.308   7.708 -2.3903  1.3776  0.3483
 2894SOL     OW15796   1.273   3.788   8.022 -0.5135 -0.6415 -0.5546
 2894SOL    HW115797   1.259   3.695   8.038 -0.1588 -0.7440 -0.8470
 2894SOL    HW215798   1.330   3.816   8.094  1.1265 -1.1158 -1.6253
 2895SOL     OW15799   6.604   2.691   9.474  0.0169 -0.6708 -0.6315
 2895SOL    HW115800   6.694   2.666   9.491 -0.1479 -0.5944  0.3690
 2895SOL    HW215801   6.551   2.631   9.526 -0.5428 -1.0592 -1.6058
 2896SOL     OW15802   2.433   2.231   3.974 -0.0579  0.4264 -0.0220
 2896SOL    HW115803   2.493   2.282   4.028 -0.8740  0.8532  0.4994
 2896SOL    HW215804   2.378   2.184   4.037  0.9179 -1.4583 -0.4707
 2897SOL     OW15805  12.708   3.094  12.000 -0.3205  0.2609 -0.0652
 2897SOL    HW115806  12.676   3.018  12.049 -1.3466  0.5308 -0.2896
 2897SOL    HW215807  12.629   3.145  11.982  0.3536  1.3625  0.0460
 2898SOL     OW15808   9.523  11.361  11.765  0.0743 -0.0604 -0.0161
 2898SOL    HW115809   9.562  11.365  11.852  0.7614  1.3301 -0.3615
 2898SOL    HW215810   9.509  11.453  11.741  0.7381 -0.3787 -1.7288
 2899SOL     OW15811   0.596  12.450   1.457  0.2234  0.0079  0.1555
 2899SOL    HW115812   0.593  12.537   1.497  0.4492  0.2842 -0.3992
 2899SOL    HW215813   0.510  12.439   1.417  0.6342  0.5589 -0.9258
 2900SOL     OW15814   4.045   7.295   1.620 -0.8113  0.0002 -0.6313
 2900SOL    HW115815   4.069   7.373   1.570  0.7499 -1.2311 -1.8760
 2900SOL    HW215816   4.121   7.277   1.675 -0.4836 -1.5228 -1.5232
 2901SOL     OW15817   5.005   8.438   8.143  0.1468 -0.1372 -0.5278
 2901SOL    HW115818   4.991   8.347   8.119  0.4907 -0.5118  0.6510
 2901SOL    HW215819   5.100   8.451   8.134  0.2289 -0.1740  0.2256
 2902SOL     OW15820   6.139   6.282   7.746  0.2553  0.2169  0.0238
 2902SOL    HW115821   6.229   6.301   7.721  0.5255 -0.2860  0.5867
 2902SOL    HW215822   6.147   6.222   7.821 -0.5165  1.6813  1.3382
 2903SOL     OW15823   5.659   3.087   0.919  0.3385 -0.5457 -0.0996
 2903SOL    HW115824   5.584   3.038   0.885  0.7333 -1.2113 -0.0187
 2903SOL    HW215825   5.640   3.178   0.896 -0.0752 -0.8156 -0.8638
 2904SOL     OW15826  10.348   7.885  12.427 -0.1962  0.3619  0.2712
 2904SOL    HW115827  10.342   7.897  12.333 -0.3048  1.3804  0.3975
 2904SOL    HW215828  10.267   7.921  12.462 -2.1976 -3.7525  0.4897
 2905SOL     OW15829   6.486  12.502   7.014  0.4154 -0.1589  0.8599
 2905SOL    HW115830   6.501  12.414   7.048  0.0985 -0.3728  0.4471
 2905SOL    HW215831   6.564  12.551   7.039  0.5714 -0.5437  1.1332
 2906SOL     OW15832  11.721   3.125  10.165 -0.0241 -0.0595 -0.0658
 2906SOL    HW115833  11.649   3.087  10.215 -0.4964  0.5508 -0.2883
 2906SOL    HW215834  11.799   3.102  10.217 -0.5389  0.9533  1.2092
 2907SOL     OW15835   7.620   2.910  12.357 -0.1910 -0.5787 -0.0838
 2907SOL    HW115836   7.607   2.831  12.305  0.7749 -1.6229  1.1961
 2907SOL    HW215837   7.531   2.943  12.372 -0.5982 -1.3239 -0.7492
 2908SOL     OW15838  10.378   2.512   6.188  0.1121  0.8745 -0.4389
 2908SOL    HW115839  10.327   2.585   6.222 -0.6135 -0.5248  1.7457
 2908SOL    HW215840  10.432   2.484   6.262  0.9544 -0.2887 -1.4437
 2909SOL     OW15841   3.317   6.335   7.753 -0.5709  0.6452  0.2451
 2909SOL    HW115842   3.227   6.310   7.730 -0.7178  0.8551  0.5927
 2909SOL    HW215843   3.328   6.423   7.717  0.7177 -0.6987 -3.0680
 2910SOL     OW15844   5.089   4.093   1.355  0.3328 -0.3678 -0.7412
 2910SOL    HW115845   5.078   4.146   1.275 -0.6410  0.3659 -0.1407
 2910SOL    HW215846   5.016   4.031   1.353 -1.4255  1.5028  0.9495
 2911SOL     OW15847   3.328   3.082   9.889 -0.0768  0.4145 -0.2314
 2911SOL    HW115848   3.312   2.995   9.926 -0.9677  1.1307  1.1769
 2911SOL    HW215849   3.397   3.069   9.824  2.4490 -0.7856  2.4476
 2912SOL     OW15850   8.806   6.291   7.328  0.1107  0.2005 -0.1423
 2912SOL    HW115851   8.875   6.309   7.265  0.2945 -0.0604 -0.0196
 2912SOL    HW215852   8.785   6.199   7.315  1.1556 -0.2538  1.1404
 2913SOL     OW15853   9.131   0.995   2.470 -0.4525 -0.0360  0.4892
 2913SOL    HW115854   9.051   0.974   2.421  0.7938 -0.5450 -1.4413
 2913SOL    HW215855   9.162   1.077   2.432 -0.1039  0.2194  1.3022
 2914SOL     OW15856   4.381  11.902   6.256 -0.7160 -0.0639  0.1531
 2914SOL    HW115857   4.341  11.881   6.340 -1.7791 -0.4721 -0.4244
 2914SOL    HW215858   4.413  11.817   6.223  0.4940  0.2266  0.5196
 2915SOL     OW15859   8.694  12.487   6.315  0.5378 -0.1321 -0.0963
 2915SOL    HW115860   8.680  12.498   6.409  0.2387  0.6400 -0.2231
 2915SOL    HW215861   8.758  12.416   6.308  1.0157  0.2104  0.7101
 2916SOL     OW15862   7.876   5.934   0.478  0.0141  0.1775 -0.2219
 2916SOL    HW115863   7.831   5.978   0.405  0.7952  0.1927 -0.7076
 2916SOL    HW215864   7.837   5.973   0.556  0.5655  1.6588 -0.6373
 2917SOL     OW15865  12.907   2.052   2.231 -0.1566 -0.6889  0.0564
 2917SOL    HW115866  12.910   2.138   2.190 -1.3419  0.8287  2.8986
 2917SOL    HW215867  12.992   2.043   2.274 -0.4597 -0.4315  0.7102
 2918SOL     OW15868  12.313   0.937  12.441  0.2605 -0.8146 -0.6067
 2918SOL    HW115869  12.240   0.896  12.396 -1.3884  0.3142  0.9293
 2918SOL    HW215870  12.289   0.936  12.534  1.0970  1.6597 -0.2831
 2919SOL     OW15871   1.155   9.776   0.632 -0.0499 -0.5581 -0.2021
 2919SOL    HW115872   1.149   9.810   0.721 -1.3259  0.3969 -0.6195
 2919SOL    HW215873   1.168   9.682   0.643  0.9618 -0.2950  0.9802
 2920SOL     OW15874   3.463  11.352   9.267  0.5753  0.4084 -0.2240
 2920SOL    HW115875   3.431  11.293   9.199 -2.0167  1.5355 -0.1306
 2920SOL    HW215876   3.459  11.300   9.348 -2.1390  0.7005 -0.0614
 2921SOL     OW15877   2.448   8.756   3.028 -0.1364 -0.3653 -0.2537
 2921SOL    HW115878   2.539   8.779   3.046 -0.6730  2.2789 -0.6167
 2921SOL    HW215879   2.440   8.758   2.932 -0.8824  0.8182 -0.1857
 2922SOL     OW15880   1.586   0.956   6.744  0.4044  0.4716  0.3650
 2922SOL    HW115881   1.544   0.902   6.677  1.0244  2.0317 -1.3706
 2922SOL    HW215882   1.533   1.035   6.749  0.2559  0.3076  1.9002
 2923SOL     OW15883   2.122   9.347   1.835 -1.2726  0.2511 -1.2244
 2923SOL    HW115884   2.189   9.340   1.766 -1.3457  0.2413 -1.2951
 2923SOL    HW215885   2.172   9.353   1.916 -1.1780  0.5118 -1.2989
 2924SOL     OW15886   6.836   4.756   5.778  0.5171  0.1812 -0.0135
 2924SOL    HW115887   6.866   4.846   5.790 -1.1264  0.7717  0.0171
 2924SOL    HW215888   6.908   4.711   5.734  1.3456  1.5303 -0.0625
 2925SOL     OW15889   7.534   3.677   0.751  0.8561 -0.4449 -0.1321
 2925SOL    HW115890   7.512   3.768   0.771 -1.5770 -1.0226  0.1080
 2925SOL    HW215891   7.576   3.645   0.831  1.5343  0.3924 -0.1365
 2926SOL     OW15892  11.053   0.618   2.132 -0.1777 -0.1294 -0.1074
 2926SOL    HW115893  10.987   0.554   2.159  0.3569 -0.3427  0.7372
 2926SOL    HW215894  11.086   0.654   2.214  1.1125 -0.4075 -0.4811
 2927SOL     OW15895   3.639   3.728   2.774 -0.3568  0.2617 -0.7127
 2927SOL    HW115896   3.583   3.791   2.819  0.1958  0.4010 -0.2066
 2927SOL    HW215897   3.727   3.744   2.809  0.1070  0.4540 -1.9327
 2928SOL     OW15898   9.027   8.696   9.128 -0.1046  0.4926 -0.1725
 2928SOL    HW115899   9.089   8.726   9.195  0.8684  1.2098 -1.3325
 2928SOL    HW215900   9.063   8.730   9.046 -1.6899  0.3272 -0.9758
 2929SOL     OW15901   7.561  11.920   7.727  0.1509  0.2888 -0.6309
 2929SOL    HW115902   7.466  11.923   7.715 -0.3413 -1.2861  2.0742
 2929SOL    HW215903   7.575  11.856   7.796  3.2873 -0.1041 -1.4548
 2930SOL     OW15904  12.539   0.833   8.978 -0.5657  0.6615  0.0580
 2930SOL    HW115905  12.615   0.774   8.977 -0.3794  0.8496  1.3361
 2930SOL    HW215906  12.577   0.921   8.972 -0.6633  0.7586  0.7506
 2931SOL     OW15907   2.429   9.162   6.888  0.0232 -0.9426  0.7314
 2931SOL    HW115908   2.385   9.111   6.820 -1.0013 -1.5804  1.8308
 2931SOL    HW215909   2.502   9.107   6.917  0.9486 -0.3374 -0.3557
 2932SOL     OW15910   0.697   6.960   1.870  0.0925 -0.5484  0.4170
 2932SOL    HW115911   0.677   7.050   1.846  0.0361 -0.7895 -0.4853
 2932SOL    HW215912   0.715   6.963   1.964  1.7035  0.6842  0.1184
 2933SOL     OW15913  10.195   5.744   1.608  0.2180  0.2016  0.2551
 2933SOL    HW115914  10.253   5.745   1.684 -0.3615 -1.3301  0.7486
 2933SOL    HW215915  10.251   5.768   1.534  0.8237  1.5414  1.1066
 2934SOL     OW15916   0.440   2.629   9.334 -0.0273  0.5435  0.2022
 2934SOL    HW115917   0.438   2.725   9.337 -0.7586  0.5418  0.0391
 2934SOL    HW215918   0.373   2.606   9.269  0.8191 -0.0464 -0.4780
 2935SOL     OW15919  11.722   3.854  11.030  0.3002  0.2547  0.0687
 2935SOL    HW115920  11.701   3.943  11.058 -0.2775  0.3401 -0.6050
 2935SOL    HW215921  11.787   3.823  11.094 -0.3650  0.7281  0.9898
 2936SOL     OW15922  10.694   4.626   4.689  0.0004 -0.3744  0.2431
 2936SOL    HW115923  10.788   4.612   4.676 -0.1429 -1.1283 -0.0226
 2936SOL    HW215924  10.670   4.568   4.761 -0.2151  0.0077  0.4843
 2937SOL     OW15925   3.589  11.058   8.267  0.2308 -0.2868  0.3918
 2937SOL    HW115926   3.509  11.006   8.262  0.8728 -1.2064 -2.5409
 2937SOL    HW215927   3.659  10.994   8.281  0.7558  0.0637 -0.5032
 2938SOL     OW15928   6.728   8.514   6.416 -0.6060  0.2771 -0.1632
 2938SOL    HW115929   6.788   8.460   6.469 -0.9681  0.3623  0.3408
 2938SOL    HW215930   6.644   8.468   6.421 -0.6590  0.3217 -0.6138
 2939SOL     OW15931  12.250  12.335   3.555  0.1228  0.2828 -0.1116
 2939SOL    HW115932  12.217  12.424   3.561  1.4432  0.8803 -1.2243
 2939SOL    HW215933  12.333  12.337   3.604  0.6154 -0.0804 -0.9094
 2940SOL     OW15934  11.182   0.265   1.792  0.0412 -0.0649 -0.5706
 2940SOL    HW115935  11.188   0.178   1.832 -2.5994  0.1754  0.5521
 2940SOL    HW215936  11.184   0.326   1.866 -0.7438  0.6622 -1.1226
 2941SOL     OW15937   8.324   5.934   0.275 -0.1402 -0.4546 -0.1836
 2941SOL    HW115938   8.263   5.971   0.338 -1.0659  0.6321 -1.6526
 2941SOL    HW215939   8.270   5.882   0.216  0.6534 -1.1723 -0.3030
 2942SOL     OW15940   1.290   0.685   9.061  0.0918 -0.8304 -0.7816
 2942SOL    HW115941   1.212   0.679   9.115  1.2121  0.8769  1.1839
 2942SOL    HW215942   1.276   0.762   9.006  0.5750 -0.1997 -0.0427
 2943SOL     OW15943   8.932  12.952  10.958  0.8516  0.8693  0.4705
 2943SOL    HW115944   9.006  12.900  10.926  0.8736  1.1698  0.0363
 2943SOL    HW215945   8.874  12.962  10.883  0.1640  0.2916  0.9083
 2944SOL     OW15946  10.146   4.679  10.461  0.1489 -0.0086  0.1766
 2944SOL    HW115947  10.224   4.653  10.509  0.0186  0.0843  0.4449
 2944SOL    HW215948  10.128   4.768  10.492  0.0606  0.0502 -0.0424
 2945SOL     OW15949   1.475   5.547   9.327 -0.6210  0.7044  0.2065
 2945SOL    HW115950   1.420   5.491   9.383  0.7768 -0.1121  0.8377
 2945SOL    HW215951   1.552   5.565   9.381 -0.4105  2.1074 -0.5193
 2946SOL     OW15952   0.644   9.810  12.535 -0.4953 -0.2296  0.4114
 2946SOL    HW115953   0.615   9.873  12.602 -0.1442  0.9539 -0.5233
 2946SOL    HW215954   0.725   9.847  12.501  0.8729 -2.2744  1.2914
 2947SOL     OW15955   8.176   0.302  10.270 -0.4475  0.0431 -0.5091
 2947SOL    HW115956   8.131   0.229  10.227 -0.0089  0.5911 -1.9423
 2947SOL    HW215957   8.267   0.274  10.275 -0.1196  0.7851 -1.8150
 2948SOL     OW15958   0.520  10.567   7.510 -0.5943  0.1758 -0.3906
 2948SOL    HW115959   0.562  10.568   7.596  1.6476  0.0969 -1.4080
 2948SOL    HW215960   0.547  10.649   7.469 -1.3545  0.0615 -1.1561
 2949SOL     OW15961   0.582   2.354   8.677 -0.1713 -0.6590  0.0941
 2949SOL    HW115962   0.668   2.313   8.668  0.2853 -0.2467  2.1111
 2949SOL    HW215963   0.579   2.419   8.607  1.1098 -0.7621 -0.0830
 2950SOL     OW15964  12.223   8.915   0.540  0.3618  0.2397 -0.1289
 2950SOL    HW115965  12.280   8.855   0.589 -1.0766 -1.9035 -0.9441
 2950SOL    HW215966  12.146   8.862   0.519 -0.6903  2.2233 -1.4797
 2951SOL     OW15967   3.157   8.945   6.482  0.0501  0.0723 -0.2004
 2951SOL    HW115968   3.097   8.914   6.550  2.8681 -0.4924  2.2144
 2951SOL    HW215969   3.168   8.869   6.424 -0.3691 -0.3190  0.2262
 2952SOL     OW15970  12.013  10.373  10.798  0.4728 -0.0020 -0.2040
 2952SOL    HW115971  12.000  10.294  10.746  2.1176 -0.7161  0.4029
 2952SOL    HW215972  12.108  10.380  10.807  0.4808  2.8477 -1.4188
 2953SOL     OW15973  10.017  11.279   1.675 -0.3408  0.2332 -0.0607
 2953SOL    HW115974  10.057  11.222   1.609  0.2927  1.6778 -0.9688
 2953SOL    HW215975   9.928  11.243   1.686 -0.4628 -0.0399 -1.7048
 2954SOL     OW15976   1.723   8.191   2.216  0.3022 -0.1803  0.6041
 2954SOL    HW115977   1.796   8.234   2.259  0.7211 -0.9811  0.6971
 2954SOL    HW215978   1.680   8.141   2.285  2.0514 -2.9506 -0.1806
 2955SOL     OW15979   3.398   6.306   3.328 -0.4316 -0.1391 -0.6074
 2955SOL    HW115980   3.491   6.291   3.346 -0.4400 -1.6020 -1.6328
 2955SOL    HW215981   3.353   6.237   3.377 -1.2238  1.9832  1.8723
 2956SOL     OW15982   9.606  10.600   9.477 -0.2408 -0.1694 -0.2057
 2956SOL    HW115983   9.578  10.658   9.548 -0.4683  0.6704 -0.9663
 2956SOL    HW215984   9.701  10.612   9.472 -0.5612  2.1339 -2.0345
 2957SOL     OW15985   4.360  11.603   2.447  0.7714 -0.2450 -0.0453
 2957SOL    HW115986   4.420  11.625   2.376  1.2884 -1.6927 -0.1001
 2957SOL    HW215987   4.395  11.522   2.484  0.3920  0.3642  1.7456
 2958SOL     OW15988   3.239   3.706   2.860  0.4165 -0.3042  0.1889
 2958SOL    HW115989   3.254   3.628   2.806 -0.2813 -1.7027  1.9185
 2958SOL    HW215990   3.144   3.720   2.855  0.2334 -0.8706  1.5280
 2959SOL     OW15991   7.503  12.565   4.024  0.1909 -0.1823  0.9254
 2959SOL    HW115992   7.508  12.470   4.032  0.3513 -0.2978 -0.3852
 2959SOL    HW215993   7.415  12.581   3.988  0.3077  0.1370  0.7838
 2960SOL     OW15994   8.688   8.436   1.096  0.5532 -0.2275 -0.4466
 2960SOL    HW115995   8.645   8.373   1.154  0.7292  0.0306 -0.0260
 2960SOL    HW215996   8.776   8.401   1.083  0.4730 -0.3499 -0.6589
 2961SOL     OW15997   6.584  10.973   1.038 -0.0901  0.1181 -0.4814
 2961SOL    HW115998   6.635  10.990   1.117 -1.0842  0.7035  0.0613
 2961SOL    HW215999   6.525  10.901   1.062  0.1286 -0.2171 -0.9369
 2962SOL     OW16000   9.168   4.027   0.171 -0.2779  0.2245  0.2800
 2962SOL    HW116001   9.180   4.122   0.183 -1.1044  0.2649  0.8728
 2962SOL    HW216002   9.158   3.993   0.260 -0.9847 -0.2724  0.0169
 2963SOL     OW16003   7.574   1.600   9.300  0.2709  0.0730 -0.1857
 2963SOL    HW116004   7.543   1.661   9.368 -0.7383 -1.5573  0.8739
 2963SOL    HW216005   7.568   1.514   9.341  1.4200 -0.7903 -1.7489
 2964SOL     OW16006  12.943  10.704   8.411 -0.0831  0.8095 -0.7617
 2964SOL    HW116007  12.999  10.627   8.399 -1.7162 -0.6003  0.1304
 2964SOL    HW216008  12.983  10.772   8.358  1.4443 -0.6502 -1.5644
 2965SOL     OW16009   8.442   4.896   6.872 -0.0210  0.2258 -0.2160
 2965SOL    HW116010   8.538   4.902   6.871 -0.0532  1.5387  1.0318
 2965SOL    HW216011   8.423   4.832   6.941 -0.0470 -0.0395 -0.4681
 2966SOL     OW16012   0.374   8.599  10.821  0.0223 -0.0923 -0.1414
 2966SOL    HW116013   0.391   8.666  10.887  0.1289 -2.1651  2.0692
 2966SOL    HW216014   0.285   8.568  10.839  0.4654 -1.4859 -0.1962
 2967SOL     OW16015   0.328  10.454   4.179  0.1967  0.9985  0.2396
 2967SOL    HW116016   0.411  10.437   4.223 -0.7875  1.7887  2.5314
 2967SOL    HW216017   0.298  10.537   4.216 -1.6915  0.6329 -0.4032
 2968SOL     OW16018   3.829  10.000   5.846 -0.0257 -0.3928  0.0296
 2968SOL    HW116019   3.797   9.925   5.896  0.7692 -0.9663 -0.2815
 2968SOL    HW216020   3.751  10.041   5.810 -0.5764 -0.1882  1.4307
 2969SOL     OW16021   6.839   7.198   9.253 -0.1508 -0.0571  0.1479
 2969SOL    HW116022   6.846   7.293   9.254  0.2291 -0.0897  0.6440
 2969SOL    HW216023   6.767   7.180   9.191 -0.6582  0.5754  0.5447
 2970SOL     OW16024   4.014   5.339   1.627  0.3650 -0.3220 -0.0515
 2970SOL    HW116025   4.021   5.418   1.681  0.2042 -0.4989  0.2299
 2970SOL    HW216026   4.104   5.306   1.622  0.5179  0.1655 -0.6071
 2971SOL     OW16027   7.209  12.052  12.127 -0.0585 -0.2985  0.5458
 2971SOL    HW116028   7.157  12.131  12.137  0.3559 -0.1313  1.4584
 2971SOL    HW216029   7.227  12.046  12.033  0.8549  1.3168  0.5862
 2972SOL     OW16030   5.079   6.758   4.179  0.2904 -0.1901  0.1018
 2972SOL    HW116031   5.048   6.839   4.140  0.0997 -0.7282 -0.8830
 2972SOL    HW216032   5.146   6.726   4.119 -0.1554 -1.1364  0.0925
 2973SOL     OW16033  10.989  10.426   4.994  0.1035  0.6802  0.0063
 2973SOL    HW116034  11.067  10.480   5.009  0.4761  0.6463 -1.6522
 2973SOL    HW216035  10.917  10.482   5.022  0.4162  2.4285 -2.3531
 2974SOL     OW16036  10.571   9.430  10.921 -0.2235 -0.3163 -0.2482
 2974SOL    HW116037  10.517   9.508  10.922  0.4938  0.1953 -0.3982
 2974SOL    HW216038  10.650   9.456  10.874 -0.3807 -1.4088 -1.1624
 2975SOL     OW16039   4.112  11.271   7.973  0.0356 -0.7139 -0.3461
 2975SOL    HW116040   4.060  11.191   7.974 -1.7737  0.3768 -1.3718
 2975SOL    HW216041   4.136  11.287   8.064  0.8875 -2.6619 -0.1863
 2976SOL     OW16042   2.061  11.356   8.586 -0.7342 -0.4012  0.4381
 2976SOL    HW116043   2.156  11.355   8.600 -0.6533  0.0066 -0.0465
 2976SOL    HW216044   2.028  11.420   8.649 -0.4959  0.6405 -0.4602
 2977SOL     OW16045   7.191   4.231   8.874 -0.4987  0.2032 -0.1771
 2977SOL    HW116046   7.223   4.322   8.869 -0.6230  0.2391 -0.3338
 2977SOL    HW216047   7.170   4.219   8.966 -1.0972  0.5501 -0.2581
 2978SOL     OW16048   1.919   1.066   9.181 -0.4468 -0.3996 -0.0359
 2978SOL    HW116049   1.937   1.046   9.272 -2.9900 -2.6612  0.1101
 2978SOL    HW216050   1.855   1.137   9.184 -0.4211 -0.3755 -0.0586
 2979SOL     OW16051   2.569  10.834  12.221 -0.7483  0.1851 -0.6227
 2979SOL    HW116052   2.505  10.898  12.193  0.1409  1.5369  0.3176
 2979SOL    HW216053   2.597  10.864  12.307  0.2394 -1.0621 -0.4731
 2980SOL     OW16054   4.075   1.483   2.750  0.4824 -0.4039  0.0958
 2980SOL    HW116055   4.115   1.407   2.708 -0.0091  0.3150 -1.7602
 2980SOL    HW216056   3.985   1.484   2.718  0.0724  0.1852  1.1961
 2981SOL     OW16057   5.611  12.345   3.599  0.2948  0.3068 -0.6113
 2981SOL    HW116058   5.604  12.268   3.543 -0.6271  0.2874 -0.4866
 2981SOL    HW216059   5.566  12.414   3.552 -0.8624  0.1848  0.2643
 2982SOL     OW16060   4.985   7.301  11.827 -0.4415  0.2901  0.0124
 2982SOL    HW116061   5.071   7.321  11.790  0.2706 -1.8822  0.3414
 2982SOL    HW216062   4.924   7.354  11.776  1.0006  1.3078 -0.7422
 2983SOL     OW16063   7.812   8.615  10.342  0.2733 -0.3956 -0.1879
 2983SOL    HW116064   7.834   8.707  10.325  0.4108 -0.7819 -2.4752
 2983SOL    HW216065   7.793   8.612  10.436 -0.3808  2.0885 -0.1564
 2984SOL     OW16066   7.245  12.757   5.317 -0.3797 -0.1724 -0.0732
 2984SOL    HW116067   7.277  12.744   5.228  2.0747  0.8257  0.5952
 2984SOL    HW216068   7.276  12.680   5.365 -2.4022 -1.1205 -0.1986
 2985SOL     OW16069   9.989  10.965   0.194 -0.0619 -0.2729 -0.2430
 2985SOL    HW116070  10.060  11.025   0.173 -0.5877  0.7444  0.7467
 2985SOL    HW216071   9.992  10.898   0.126  0.6600  0.7813 -1.2806
 2986SOL     OW16072  12.605   1.381   8.767  0.7785 -0.5391 -0.3501
 2986SOL    HW116073  12.550   1.303   8.757 -0.3473  0.3484 -1.3814
 2986SOL    HW216074  12.684   1.360   8.718  0.3440 -0.9068 -0.9100
 2987SOL     OW16075   9.881   9.373   2.063 -0.0329  0.1579  0.3702
 2987SOL    HW116076   9.803   9.427   2.076  0.0853 -0.1158  2.5057
 2987SOL    HW216077   9.949   9.435   2.039 -0.7037  0.4880 -0.7762
 2988SOL     OW16078   8.587   6.192   8.737  0.1662 -1.1469 -0.0602
 2988SOL    HW116079   8.663   6.218   8.685 -0.4052 -1.2531 -0.9694
 2988SOL    HW216080   8.512   6.213   8.682 -0.5040 -0.4148  1.1035
 2989SOL     OW16081   5.110   4.247   9.012 -0.1646 -0.3511  0.0691
 2989SOL    HW116082   5.134   4.328   9.057 -0.0708  0.3617 -1.2111
 2989SOL    HW216083   5.030   4.218   9.056 -0.9138  1.1255 -0.2590
 2990SOL     OW16084  12.318  12.828   0.690 -0.5360 -0.6066  0.1665
 2990SOL    HW116085  12.368  12.779   0.625 -0.2195 -1.4940  1.0563
 2990SOL    HW216086  12.293  12.763   0.756  0.7056  0.5678  1.8730
 2991SOL     OW16087   9.993   0.091   7.349 -0.0285  0.3503  0.1436
 2991SOL    HW116088  10.062   0.131   7.297  0.1946 -0.1442  0.0569
 2991SOL    HW216089   9.981   0.004   7.311 -0.7410  0.4531  0.1156
 2992SOL     OW16090  12.184   9.041  12.147  0.0902 -0.1128 -0.0752
 2992SOL    HW116091  12.135   9.059  12.067 -0.1990  1.7699  0.4529
 2992SOL    HW216092  12.149   8.958  12.179 -1.1504  0.0674 -0.8943
 2993SOL     OW16093   5.602   7.920   1.333  0.1067  0.6808  0.6664
 2993SOL    HW116094   5.545   7.845   1.323 -0.6235  1.2609  0.3953
 2993SOL    HW216095   5.689   7.888   1.309 -0.0442 -0.2774  1.3388
 2994SOL     OW16096   3.676   1.813   6.011  0.1212  0.4170 -0.0276
 2994SOL    HW116097   3.611   1.794   5.943  0.4836  3.4767 -1.3609
 2994SOL    HW216098   3.743   1.747   5.999 -0.2045  0.4090 -2.1634
 2995SOL     OW16099   9.543   7.442   9.356  0.0246 -0.2634  0.0440
 2995SOL    HW116100   9.498   7.358   9.364 -0.7261  0.1044 -0.2152
 2995SOL    HW216101   9.632   7.419   9.329  0.0307 -1.0064  0.6742
 2996SOL     OW16102   1.597  11.152   4.612  0.3346 -0.1373 -0.4912
 2996SOL    HW116103   1.651  11.091   4.561 -0.5508  1.6234 -3.8297
 2996SOL    HW216104   1.642  11.236   4.605  0.1316  0.2137  1.7192
 2997SOL     OW16105   1.203  11.679  12.643 -0.0930  0.2457 -0.2773
 2997SOL    HW116106   1.258  11.669  12.565  0.5319 -1.0855  0.3090
 2997SOL    HW216107   1.246  11.749  12.694  1.2745 -0.9777  0.3124
 2998SOL     OW16108   4.635  10.375  12.440 -0.6769 -0.4596 -0.3207
 2998SOL    HW116109   4.578  10.335  12.505 -0.8400 -0.1066 -0.2460
 2998SOL    HW216110   4.721  10.378  12.482 -0.5412 -1.2068 -0.5191
 2999SOL     OW16111   7.926   5.678   4.869 -0.6373 -0.5932 -0.2052
 2999SOL    HW116112   7.982   5.605   4.895  1.9761  0.7809 -1.5276
 2999SOL    HW216113   7.922   5.672   4.773  0.5139  1.4819 -0.4593
 3000SOL     OW16114   0.895   4.859  11.079  0.4651 -0.4192 -0.8896
 3000SOL    HW116115   0.987   4.880  11.094  0.8201 -1.5446 -1.3965
 3000SOL    HW216116   0.848   4.916  11.140  1.5282 -0.3052 -0.1332
 3001SOL     OW16117  10.068  10.573  12.746  0.0972  0.1769 -0.6974
 3001SOL    HW116118  10.079  10.656  12.699  0.2361  0.7616  0.3479
 3001SOL    HW216119  10.128  10.579  12.820  0.5872 -1.1396 -0.9616
 3002SOL     OW16120   3.780   1.714   2.988 -0.0642 -0.2110 -0.9782
 3002SOL    HW116121   3.737   1.754   3.064  1.4748 -1.5271  0.6881
 3002SOL    HW216122   3.800   1.788   2.931  0.9582  1.2355  1.0921
 3003SOL     OW16123   2.487  10.562   8.254  0.4513 -0.2130  0.0936
 3003SOL    HW116124   2.446  10.508   8.321 -1.0564 -0.1726 -0.7465
 3003SOL    HW216125   2.561  10.603   8.298  1.1778 -2.3288  0.9648
 3004SOL     OW16126   2.769   0.090   4.154 -0.2921 -0.2879  0.2949
 3004SOL    HW116127   2.850   0.130   4.125 -0.8797  0.0080 -1.0067
 3004SOL    HW216128   2.793   0.039   4.232  0.5288  2.3674  1.9069
 3005SOL     OW16129   0.022   7.709  10.584 -0.0822 -0.5737  0.1792
 3005SOL    HW116130  -0.044   7.759  10.536  0.5746  0.2491  0.1070
 3005SOL    HW216131   0.018   7.621  10.546  1.4136  0.3913 -2.4552
 3006SOL     OW16132  11.273   9.216   4.622  0.4780  0.1882  0.4207
 3006SOL    HW116133  11.225   9.253   4.548  0.0194 -0.0219  0.6086
 3006SOL    HW216134  11.340   9.160   4.581 -1.1785 -1.7217  0.1403
 3007SOL     OW16135   4.658   8.835   0.307 -0.0720  0.3353 -0.2724
 3007SOL    HW116136   4.748   8.866   0.313 -0.5053  1.7770 -0.9711
 3007SOL    HW216137   4.627   8.834   0.398  0.4841  0.2798 -0.0768
 3008SOL     OW16138   6.277   8.875  10.141  0.1007 -0.4433  0.3434
 3008SOL    HW116139   6.191   8.845  10.169 -0.5929  1.3423  0.2157
 3008SOL    HW216140   6.331   8.873  10.221 -0.7671  0.8388  0.9815
 3009SOL     OW16141  11.440  12.631   3.418  0.1204  0.1668 -0.1934
 3009SOL    HW116142  11.375  12.591   3.360  0.1319 -0.2897  0.1057
 3009SOL    HW216143  11.464  12.561   3.479  1.1817  0.2198 -0.5482
 3010SOL     OW16144  11.318   6.574   8.690  0.3199  0.1191  0.2550
 3010SOL    HW116145  11.391   6.630   8.662  1.0577 -0.4518  0.9978
 3010SOL    HW216146  11.344   6.486   8.664  1.4961 -0.6153  3.4035
 3011SOL     OW16147   9.521  11.311   5.431 -0.1015 -0.3384 -0.2387
 3011SOL    HW116148   9.491  11.276   5.348  2.5116 -0.5586 -1.1757
 3011SOL    HW216149   9.596  11.257   5.454 -0.3974  0.1004  1.9914
 3012SOL     OW16150   6.419   0.817  10.979  0.0261 -0.0982  0.2042
 3012SOL    HW116151   6.495   0.781  11.023 -0.9998 -1.9310  0.5722
 3012SOL    HW216152   6.454   0.887  10.923  1.6312  0.7259  2.1401
 3013SOL     OW16153   6.323   2.970   6.075 -0.2887  0.2324  0.5611
 3013SOL    HW116154   6.404   3.015   6.095  0.5244 -0.2580 -1.4180
 3013SOL    HW216155   6.268   2.984   6.153  1.4375  1.0666  1.6974
 3014SOL     OW16156   4.274  10.485  12.415  0.1853 -0.1374  0.3622
 3014SOL    HW116157   4.197  10.540  12.402 -0.0827 -0.5189  0.3189
 3014SOL    HW216158   4.250  10.400  12.378  0.9948  0.0282 -0.5956
 3015SOL     OW16159   4.452  10.457   5.538  0.2915 -0.5030 -0.2155
 3015SOL    HW116160   4.517  10.387   5.535  0.6177 -0.1751 -1.7928
 3015SOL    HW216161   4.497  10.529   5.583  1.0802 -0.2557 -1.3456
 3016SOL     OW16162   1.925   0.091   4.077 -0.4593  0.1095 -0.7588
 3016SOL    HW116163   1.912   0.091   4.171 -1.0199  2.1793 -0.7728
 3016SOL    HW216164   1.913   0.000   4.050  0.5530 -0.6538  1.2451
 3017SOL     OW16165   4.418  11.106   5.506 -0.0031 -0.0256  0.0393
 3017SOL    HW116166   4.324  11.089   5.513  0.0042 -0.6722 -1.0949
 3017SOL    HW216167   4.424  11.199   5.484 -0.4064 -0.0834 -0.3379
 3018SOL     OW16168   2.746   3.725   0.587 -0.3132 -0.1983  0.0486
 3018SOL    HW116169   2.789   3.768   0.661 -1.3224 -1.6670  1.5534
 3018SOL    HW216170   2.681   3.789   0.556  0.1397  0.4406  0.4033
 3019SOL     OW16171   6.042   1.526   1.587  0.2257  0.1168 -0.1881
 3019SOL    HW116172   5.996   1.598   1.544 -0.3995 -1.5394 -2.4732
 3019SOL    HW216173   5.975   1.459   1.600  1.4036 -1.3055 -1.1470
 3020SOL     OW16174   9.344  10.742   1.384 -0.3225  0.2328  0.2285
 3020SOL    HW116175   9.413  10.776   1.327 -2.1519  1.7611 -1.1826
 3020SOL    HW216176   9.319  10.658   1.344  0.9768 -0.5764  1.0274
 3021SOL     OW16177  10.270   5.259   6.173  0.1045 -0.1050 -0.3405
 3021SOL    HW116178  10.264   5.319   6.098 -1.0658  0.4687  0.1873
 3021SOL    HW216179  10.336   5.298   6.230 -0.9533  0.9537  0.2063
 3022SOL     OW16180   5.070   7.709   0.932  0.9817  0.3197 -0.3047
 3022SOL    HW116181   5.077   7.658   1.013  1.6130  0.7631 -0.0761
 3022SOL    HW216182   4.975   7.718   0.919  0.8380 -1.0709 -0.4676
 3023SOL     OW16183   4.149   7.090   0.823  1.0914 -0.1315 -0.2678
 3023SOL    HW116184   4.091   7.127   0.756 -1.0835 -1.5824  0.7162
 3023SOL    HW216185   4.211   7.161   0.842 -1.4204  2.1979 -0.1287
 3024SOL     OW16186   0.089  11.531  12.795  0.3200  0.8557 -0.6510
 3024SOL    HW116187   0.056  11.606  12.844  2.8570  1.8294 -0.2923
 3024SOL    HW216188   0.163  11.565  12.745  3.3870 -1.8247  1.5996
 3025SOL     OW16189  10.882   4.209   3.609 -0.1069 -0.0952 -0.1794
 3025SOL    HW116190  10.957   4.263   3.633 -0.3902  0.0459  0.4015
 3025SOL    HW216191  10.911   4.119   3.628  0.1902 -0.1113 -0.6918
 3026SOL     OW16192   6.622   7.158   1.828 -0.7473  0.2399 -0.2230
 3026SOL    HW116193   6.613   7.066   1.805  0.4634 -0.0755  0.4604
 3026SOL    HW216194   6.548   7.201   1.785 -2.3994 -1.3066  0.9140
 3027SOL     OW16195  10.556   2.161   4.315 -0.1441 -0.4932  0.3986
 3027SOL    HW116196  10.592   2.127   4.234  0.2765 -1.3717  0.9426
 3027SOL    HW216197  10.601   2.245   4.328  0.1457 -0.5834 -0.0131
 3028SOL     OW16198   7.953   9.090  12.970 -0.6477  0.0454  0.0437
 3028SOL    HW116199   7.888   9.142  13.017  0.1469  0.5087  0.6517
 3028SOL    HW216200   8.036   9.112  13.011 -0.0226 -0.1082 -1.0925
 3029SOL     OW16201   7.132   9.433   2.678 -0.1602 -0.0706  0.6148
 3029SOL    HW116202   7.134   9.528   2.667 -0.4402 -0.2805 -1.6136
 3029SOL    HW216203   7.126   9.398   2.589  2.5704 -2.2585  1.1145
 3030SOL     OW16204  11.332   2.620  12.125 -0.3363 -0.1661  0.3477
 3030SOL    HW116205  11.359   2.591  12.038  0.2391 -2.5429  1.2486
 3030SOL    HW216206  11.407   2.667  12.160  0.0483 -0.6280  0.1569
 3031SOL     OW16207   9.202  10.970   3.420  0.4189 -0.4206 -0.2240
 3031SOL    HW116208   9.157  10.896   3.462 -0.5914 -0.2973 -1.0459
 3031SOL    HW216209   9.177  10.964   3.328  0.3966  0.8919 -0.3258
 3032SOL     OW16210   7.103   3.147  11.167  0.1094  0.1778 -0.7743
 3032SOL    HW116211   7.040   3.183  11.104  0.1316  1.2776 -0.1825
 3032SOL    HW216212   7.050   3.094  11.226 -0.0562 -0.0357 -1.1087
 3033SOL     OW16213   4.013   6.640   4.339 -0.5965 -0.4157 -0.5252
 3033SOL    HW116214   4.049   6.710   4.393 -0.7287 -1.4004  0.8867
 3033SOL    HW216215   3.920   6.635   4.364 -0.5088 -1.3272 -0.3257
 3034SOL     OW16216   8.137   4.618  10.005 -0.2101 -0.2048  0.2494
 3034SOL    HW116217   8.070   4.656  10.061  0.2548  1.1708 -0.0986
 3034SOL    HW216218   8.104   4.628   9.916 -0.8768 -2.2459  0.2110
 3035SOL     OW16219   7.882   6.391   2.224 -0.6623  0.4405 -0.1405
 3035SOL    HW116220   7.903   6.467   2.279  0.4617  0.0195  0.0438
 3035SOL    HW216221   7.867   6.320   2.286  1.0624 -0.1500 -0.3380
 3036SOL     OW16222   6.194   1.705   4.068  0.1568  0.6106  0.1999
 3036SOL    HW116223   6.129   1.731   4.133 -0.0725  0.8859 -0.1456
 3036SOL    HW216224   6.150   1.713   3.984  0.3857  0.0383  0.0208
 3037SOL     OW16225   0.177   8.863  12.756 -0.0582  0.7169  0.3632
 3037SOL    HW116226   0.177   8.895  12.846  1.8642  1.0481  0.3005
 3037SOL    HW216227   0.223   8.931  12.706 -1.0933  0.5465 -0.8924
 3038SOL     OW16228   7.777   2.091   4.793  0.4461 -0.6592  0.0369
 3038SOL    HW116229   7.781   2.007   4.839 -2.8256 -0.2839  1.2508
 3038SOL    HW216230   7.683   2.111   4.787  0.9954  1.8147 -2.2944
 3039SOL     OW16231   6.772   8.097   7.475 -0.0865 -0.7353  0.1432
 3039SOL    HW116232   6.835   8.025   7.474 -1.3441 -1.8846 -0.2143
 3039SOL    HW216233   6.755   8.116   7.383 -0.9599 -1.1140  0.2089
 3040SOL     OW16234   7.002   8.969   9.981 -0.3230 -0.0464 -0.2401
 3040SOL    HW116235   7.034   8.918   9.907 -1.0281  1.4997 -1.6960
 3040SOL    HW216236   6.985   8.905  10.050  0.3458 -1.5426 -1.4131
 3041SOL     OW16237   3.341   2.157   7.913 -0.2051  0.0497  0.0754
 3041SOL    HW116238   3.352   2.117   7.827 -2.0766 -0.3884  0.0089
 3041SOL    HW216239   3.263   2.211   7.904 -0.6432 -0.2971  1.5957
 3042SOL     OW16240   3.391   1.465   8.005 -0.3900  0.0173 -0.1063
 3042SOL    HW116241   3.427   1.472   7.917 -1.0728  2.0895 -0.2786
 3042SOL    HW216242   3.433   1.535   8.054 -3.1504  1.7632 -0.0038
 3043SOL     OW16243   4.378   1.274  11.511  0.4313  0.5702 -0.0578
 3043SOL    HW116244   4.409   1.190  11.544 -0.1837  0.5731  0.5625
 3043SOL    HW216245   4.415   1.281  11.423 -0.4235 -0.8691 -0.5621
 3044SOL     OW16246   3.898  12.946   0.382 -0.0013 -0.6362 -0.5415
 3044SOL    HW116247   3.964  12.969   0.317  2.2033 -1.9432  1.0759
 3044SOL    HW216248   3.891  12.850   0.377 -0.7479 -0.6437  0.2623
 3045SOL     OW16249  12.357   6.354   9.377  0.4251 -0.6691  0.4560
 3045SOL    HW116250  12.264   6.363   9.356  0.9604  1.2371 -1.4420
 3045SOL    HW216251  12.385   6.442   9.399  2.3356 -0.6041 -1.7828
 3046SOL     OW16252  11.110   2.796   9.512  0.8801 -0.2861  0.0093
 3046SOL    HW116253  11.078   2.826   9.597 -0.6086 -1.2834 -0.1694
 3046SOL    HW216254  11.166   2.721   9.533  1.3984  0.1482  0.1822
 3047SOL     OW16255   8.783   4.421   8.096 -0.0274 -0.1520  0.1914
 3047SOL    HW116256   8.727   4.493   8.124 -1.4267 -0.5146 -1.5051
 3047SOL    HW216257   8.817   4.449   8.011 -0.6276 -1.4852 -0.5193
 3048SOL     OW16258   4.225   0.041  10.488 -0.4475 -1.0466  0.1151
 3048SOL    HW116259   4.312   0.030  10.527 -0.4497 -0.5412  0.2752
 3048SOL    HW216260   4.228   0.128  10.448 -1.0817 -0.7676  0.6488
 3049SOL     OW16261   8.711   3.006   3.129 -0.0468 -0.4693  0.4397
 3049SOL    HW116262   8.694   2.994   3.222 -0.5021 -0.8701  0.3093
 3049SOL    HW216263   8.741   3.097   3.121 -1.8496  0.1809  0.7285
 3050SOL     OW16264   8.958  11.537   7.298 -0.1685 -0.6267  0.3187
 3050SOL    HW116265   9.023  11.513   7.364  0.2164 -0.9236 -0.1642
 3050SOL    HW216266   8.996  11.613   7.253  0.3754 -1.4973 -0.7268
 3051SOL     OW16267   1.355   9.680  12.315  0.0894  0.4013 -0.0283
 3051SOL    HW116268   1.313   9.602  12.279 -1.4404  1.2802 -0.2366
 3051SOL    HW216269   1.414   9.647  12.383  0.7535 -1.0476 -1.2587
 3052SOL     OW16270  12.472   0.050   1.513  0.6177  0.1478  0.1392
 3052SOL    HW116271  12.404   0.010   1.459  1.2668 -1.0236  0.1372
 3052SOL    HW216272  12.432   0.130   1.548 -0.9602 -0.8290  0.6613
 3053SOL     OW16273   1.556   9.290   1.006  0.2710 -0.3418  0.0940
 3053SOL    HW116274   1.618   9.277   1.078 -0.6122  0.5303  1.0470
 3053SOL    HW216275   1.489   9.224   1.019  0.2655 -0.3793 -0.1171
 3054SOL     OW16276   3.731   5.741   0.444 -0.0133 -0.1306 -0.6852
 3054SOL    HW116277   3.779   5.726   0.526  1.3332 -0.6823 -1.5398
 3054SOL    HW216278   3.787   5.703   0.376 -1.4416 -0.3296 -1.7965
 3055SOL     OW16279   7.057  12.377  10.415  0.0720 -0.2134  0.0233
 3055SOL    HW116280   7.068  12.324  10.336  1.5341 -2.1027  1.3939
 3055SOL    HW216281   7.146  12.396  10.444 -0.4224  2.4287  0.0293
 3056SOL     OW16282   1.084   5.087   2.508  0.0151 -0.0928 -0.5292
 3056SOL    HW116283   1.048   5.148   2.444  0.4882 -0.2113 -0.9102
 3056SOL    HW216284   1.119   5.015   2.456 -0.0080 -0.4104 -0.1131
 3057SOL     OW16285   8.165   9.331   6.799  0.2066 -0.0045 -0.5031
 3057SOL    HW116286   8.100   9.400   6.789 -0.4710 -0.7869 -1.9586
 3057SOL    HW216287   8.121   9.252   6.766  1.8767 -0.5512 -1.5833
 3058SOL     OW16288   4.455   7.504   1.993 -0.2316  0.4794  0.2537
 3058SOL    HW116289   4.491   7.479   1.908 -1.6920 -1.2174  0.0716
 3058SOL    HW216290   4.528   7.547   2.038  1.7130 -1.7902 -0.4906
 3059SOL     OW16291   5.154  10.585   1.692 -0.4273  0.4367  0.0143
 3059SOL    HW116292   5.151  10.534   1.611 -1.0217  0.6320 -0.0897
 3059SOL    HW216293   5.131  10.674   1.665  1.1754  0.9068  0.0897
 3060SOL     OW16294   0.627   2.719   8.147 -0.5905  0.2694  0.5368
 3060SOL    HW116295   0.645   2.625   8.153  0.0472  0.3528  0.0407
 3060SOL    HW216296   0.589   2.730   8.060  1.3768  0.7688 -0.3101
 3061SOL     OW16297   2.814   2.288  10.490 -0.2490  0.2104  0.5065
 3061SOL    HW116298   2.835   2.301  10.583  1.2191  2.1547 -0.0415
 3061SOL    HW216299   2.895   2.308  10.444 -1.0890 -0.2755 -1.2529
 3062SOL     OW16300  10.037   6.215   5.640 -0.4368 -0.0259  0.4207
 3062SOL    HW116301  10.083   6.156   5.581 -0.0934  0.6341  0.0228
 3062SOL    HW216302   9.949   6.178   5.647  0.0594 -1.1486  0.9751
 3063SOL     OW16303   5.364   2.272   2.632 -0.2564  0.2699  0.0928
 3063SOL    HW116304   5.422   2.254   2.706  1.0807 -1.0329 -1.2022
 3063SOL    HW216305   5.284   2.224   2.652  0.1155 -0.1180  0.6839
 3064SOL     OW16306  12.928  11.218  12.199 -0.2079  0.0865 -0.4536
 3064SOL    HW116307  12.859  11.156  12.221  2.0086 -2.6307 -0.5332
 3064SOL    HW216308  13.004  11.189  12.249  1.9291  0.5125 -3.1592
 3065SOL     OW16309   9.081   6.492  11.058  0.5142  0.3317 -0.4393
 3065SOL    HW116310   9.082   6.542  10.977 -2.0182  0.7347 -0.2926
 3065SOL    HW216311   9.083   6.400  11.030  1.6225  0.4617 -0.8408
 3066SOL     OW16312   9.048   6.111   4.993 -0.4102 -0.2101  0.4074
 3066SOL    HW116313   9.096   6.182   5.036 -0.9296  0.9579 -0.8439
 3066SOL    HW216314   8.974   6.094   5.051  0.4128 -0.6512  1.3632
 3067SOL     OW16315   2.845   1.077  10.668 -0.2519  0.1307 -0.7283
 3067SOL    HW116316   2.821   0.992  10.632  2.0234 -0.9052 -0.0115
 3067SOL    HW216317   2.929   1.098  10.627 -0.2050  1.4932 -0.0163
 3068SOL     OW16318   4.898   7.211   1.551 -0.1735 -0.0013  0.1300
 3068SOL    HW116319   4.967   7.238   1.611 -0.9011  0.6085  0.7295
 3068SOL    HW216320   4.839   7.159   1.605 -0.7428  0.3998 -0.0897
 3069SOL     OW16321   3.389  10.428   1.698 -0.2336 -0.1222 -0.6589
 3069SOL    HW116322   3.442  10.508   1.696  2.2290 -1.6220 -0.7097
 3069SOL    HW216323   3.416  10.384   1.778 -0.1635 -1.7109 -1.5075
 3070SOL     OW16324   5.351   2.080  12.832 -0.7619 -0.0445  0.2169
 3070SOL    HW116325   5.428   2.092  12.889 -1.5819  0.1629  1.3137
 3070SOL    HW216326   5.378   2.117  12.748  0.5510 -0.5371  0.3967
 3071SOL     OW16327  11.855   6.548   7.378 -0.0018  0.5568 -0.3343
 3071SOL    HW116328  11.901   6.579   7.300  1.9252  1.2658  1.0321
 3071SOL    HW216329  11.891   6.461   7.395  0.6377  0.9853  0.5629
 3072SOL     OW16330  12.508   7.813   2.554  0.4370 -0.5897 -0.2620
 3072SOL    HW116331  12.570   7.740   2.549  0.5479 -0.6417  1.4784
 3072SOL    HW216332  12.444   7.786   2.620  0.3688  0.8023  0.2632
 3073SOL     OW16333   1.191   5.198   6.626 -0.1352  0.2679  0.0501
 3073SOL    HW116334   1.151   5.141   6.561 -0.3542 -0.8199  1.1024
 3073SOL    HW216335   1.283   5.204   6.600 -0.5118  1.0830 -1.1943
 3074SOL     OW16336   3.340   6.202  11.320  0.0459  0.9690  0.2461
 3074SOL    HW116337   3.388   6.196  11.403  0.6117 -0.6372 -0.1715
 3074SOL    HW216338   3.255   6.238  11.344  0.3224  0.8504  1.4719
 3075SOL     OW16339   4.366   1.215   7.205 -0.3895 -0.6809 -0.2751
 3075SOL    HW116340   4.352   1.164   7.125  1.1637 -2.0048  0.2260
 3075SOL    HW216341   4.286   1.266   7.216 -1.4763 -2.0188 -1.5607
 3076SOL     OW16342  10.565   0.983   3.808 -0.4233 -0.2769  0.3582
 3076SOL    HW116343  10.583   1.074   3.784 -1.7442  0.3419  1.5454
 3076SOL    HW216344  10.588   0.933   3.730  1.9858  0.8551  0.2686
 3077SOL     OW16345   3.611   2.506  12.309 -0.5386 -0.2419  0.1748
 3077SOL    HW116346   3.581   2.581  12.257 -0.1416  0.1067  0.4405
 3077SOL    HW216347   3.648   2.545  12.388 -0.8410 -0.7541  0.5732
 3078SOL     OW16348   8.653   8.009   9.351 -0.2572  0.1209  0.0945
 3078SOL    HW116349   8.616   7.930   9.389 -0.3762 -0.7840 -1.7716
 3078SOL    HW216350   8.580   8.053   9.308  0.5994 -1.7250 -3.6916
 3079SOL     OW16351  10.715  11.385   9.694  0.6399  0.1700 -0.6658
 3079SOL    HW116352  10.700  11.426   9.779  0.5909 -1.4802  0.1652
 3079SOL    HW216353  10.753  11.454   9.640  1.2550  1.0930  0.8926
 3080SOL     OW16354  12.626   1.060   4.862  0.5294  0.7834  0.4285
 3080SOL    HW116355  12.652   1.002   4.791 -0.7993 -0.5955  1.0103
 3080SOL    HW216356  12.708   1.081   4.907  0.9064 -2.3275  1.4299
 3081SOL     OW16357   3.943   5.703   6.055  0.2409 -0.0148 -0.0671
 3081SOL    HW116358   3.862   5.701   6.105  0.1269  3.6209  0.1792
 3081SOL    HW216359   3.917   5.734   5.968  1.0222 -1.8502 -0.9981
 3082SOL     OW16360  11.577   7.845  10.638 -0.1114 -0.6383  0.4891
 3082SOL    HW116361  11.669   7.855  10.611  0.0764 -0.0140  1.3089
 3082SOL    HW216362  11.545   7.935  10.644 -0.1866 -0.7499  2.1407
 3083SOL     OW16363  11.509   1.124   7.691 -0.0971  0.6774 -0.3324
 3083SOL    HW116364  11.506   1.165   7.778 -1.0554 -1.0597  0.5045
 3083SOL    HW216365  11.520   1.031   7.709  1.2607  0.4370 -2.1550
 3084SOL     OW16366   3.882   0.061   1.532  0.5892 -0.0835  0.4188
 3084SOL    HW116367   3.814   0.119   1.498  0.8542  1.0651  1.7988
 3084SOL    HW216368   3.932   0.035   1.454  0.0048  0.9325 -0.3115
 3085SOL     OW16369   7.344   7.362   1.378 -0.5040  0.4476  0.8558
 3085SOL    HW116370   7.251   7.367   1.397 -0.8560 -0.2633 -0.5496
 3085SOL    HW216371   7.361   7.269   1.364  0.0628  0.7145 -0.4290
 3086SOL     OW16372   1.791   6.607  11.147  0.2760  0.8621 -0.1735
 3086SOL    HW116373   1.757   6.522  11.172  0.8068  0.4810 -0.7194
 3086SOL    HW216374   1.728   6.670  11.182  0.9779  0.3767  2.1015
 3087SOL     OW16375  10.217   2.762   6.699  0.3427  0.0978 -0.1624
 3087SOL    HW116376  10.143   2.768   6.760 -0.6370  0.7040 -1.3720
 3087SOL    HW216377  10.204   2.835   6.639  3.0629  1.4947  0.7729
 3088SOL     OW16378   6.361   8.513   0.458  0.4192  0.2942 -0.1441
 3088SOL    HW116379   6.357   8.448   0.387 -0.9111  0.5282 -0.2915
 3088SOL    HW216380   6.290   8.489   0.516  0.9701  0.6306  0.6811
 3089SOL     OW16381  11.418   9.432   4.697 -0.7019  0.1205  0.3896
 3089SOL    HW116382  11.373   9.349   4.679 -1.8447  1.2150 -2.2376
 3089SOL    HW216383  11.509   9.415   4.671 -0.9130 -0.3474 -0.0701
 3090SOL     OW16384  10.383   8.495   4.248 -0.0127 -0.3245 -0.5805
 3090SOL    HW116385  10.290   8.507   4.265  0.1421  0.2863 -0.1358
 3090SOL    HW216386  10.397   8.536   4.163  0.1184  0.9086  0.0105
 3091SOL     OW16387   6.586   4.660   5.092 -0.0561  0.3220  0.4132
 3091SOL    HW116388   6.616   4.584   5.142 -0.6739  0.4370  0.9604
 3091SOL    HW216389   6.662   4.719   5.092  0.9034 -0.8405 -1.1688
 3092SOL     OW16390  12.330   7.503  11.326  0.1167 -0.1037 -0.2987
 3092SOL    HW116391  12.323   7.450  11.247 -2.4735 -0.9850  0.4261
 3092SOL    HW216392  12.328   7.440  11.398 -2.1570  0.8154  0.5520
 3093SOL     OW16393   0.002   2.903   9.939 -0.0693  0.1736 -0.3014
 3093SOL    HW116394   0.070   2.937   9.998 -1.1362  0.3047  0.8845
 3093SOL    HW216395  -0.045   2.981   9.910 -0.1535  0.0225 -0.5679
 3094SOL     OW16396   7.471  10.353   9.837 -0.6869  0.4376  0.1945
 3094SOL    HW116397   7.425  10.361   9.920  0.9452  0.6017  1.1334
 3094SOL    HW216398   7.564  10.348   9.861 -0.1713  0.3947 -1.6127
 3095SOL     OW16399   3.964   0.863  11.045 -0.2963  0.4112  0.3873
 3095SOL    HW116400   3.870   0.857  11.030  0.2129 -3.4602 -2.9469
 3095SOL    HW216401   3.986   0.781  11.088  1.8998 -0.4954 -2.2139
 3096SOL     OW16402   4.289   6.440  11.906  0.3076  0.6373  0.0681
 3096SOL    HW116403   4.271   6.350  11.934 -1.3234  0.4837 -1.3490
 3096SOL    HW216404   4.212   6.466  11.856  1.3890  2.2920 -0.8401
 3097SOL     OW16405   9.272   8.106   5.779  0.1764  0.2029 -0.3632
 3097SOL    HW116406   9.335   8.050   5.733 -0.5899 -0.2073 -0.9366
 3097SOL    HW216407   9.309   8.193   5.773  1.3928 -0.2272  0.5449
 3098SOL     OW16408  11.435   3.219   5.805  0.2053 -0.1139 -0.0839
 3098SOL    HW116409  11.387   3.173   5.873 -0.2771  0.2482 -0.1770
 3098SOL    HW216410  11.520   3.240   5.845 -0.7412  1.7617  1.0824
 3099SOL     OW16411   5.917  11.558  12.044 -0.1338  0.7677 -0.2422
 3099SOL    HW116412   5.861  11.492  12.004  0.9865 -0.1585 -0.3450
 3099SOL    HW216413   6.005  11.536  12.014  0.5229  1.0689  1.3587
 3100SOL     OW16414   7.377   1.928   1.676 -0.0991  0.1683 -0.6011
 3100SOL    HW116415   7.399   2.021   1.685  0.3074  0.0245 -0.0425
 3100SOL    HW216416   7.421   1.900   1.596 -0.7148  0.5941 -1.0998
 3101SOL     OW16417   0.681   7.757   5.052 -0.1831  0.5262 -0.2584
 3101SOL    HW116418   0.725   7.838   5.078  1.5731  0.2454 -2.1915
 3101SOL    HW216419   0.607   7.750   5.113  1.2048  2.1268  1.7332
 3102SOL     OW16420   0.282   1.196   8.340 -0.1517 -0.2988  0.0415
 3102SOL    HW116421   0.217   1.155   8.397 -0.9085  0.8334  0.0248
 3102SOL    HW216422   0.324   1.262   8.394 -1.6619  1.5693 -0.9654
 3103SOL     OW16423   5.612  11.509   4.016  0.1783 -0.1053  0.1177
 3103SOL    HW116424   5.678  11.479   4.079 -0.2322  2.6963  2.0319
 3103SOL    HW216425   5.652  11.586   3.975 -1.6942  1.4259  1.0521
 3104SOL     OW16426  10.906   1.819   3.494  0.7779 -0.2506 -0.0194
 3104SOL    HW116427  10.930   1.727   3.487 -2.2014 -1.1132 -0.0934
 3104SOL    HW216428  10.861   1.826   3.578 -0.7431  0.6854 -0.8813
 3105SOL     OW16429   9.499  12.819   8.684  0.3512  0.1152 -0.2146
 3105SOL    HW116430   9.484  12.852   8.772  0.2355 -0.1874 -0.1201
 3105SOL    HW216431   9.539  12.893   8.637 -0.3679  0.5648 -0.1470
 3106SOL     OW16432  11.246   3.194   6.049 -0.2378 -0.5663 -0.0055
 3106SOL    HW116433  11.225   3.284   6.075 -0.8824 -0.0099 -2.2917
 3106SOL    HW216434  11.162   3.149   6.053 -0.2236 -0.6353 -0.4432
 3107SOL     OW16435   6.386  12.384   0.429 -0.0455  0.5181  0.5269
 3107SOL    HW116436   6.334  12.339   0.496  0.5166 -0.0274  0.6072
 3107SOL    HW216437   6.325  12.398   0.356 -0.2875 -0.1788  0.5916
 3108SOL     OW16438   1.683  12.963   4.665 -0.1872  0.1300  0.2925
 3108SOL    HW116439   1.673  12.941   4.572  0.8936 -0.4069  0.2799
 3108SOL    HW216440   1.758  13.022   4.668  0.9648 -1.3060  0.9818
 3109SOL     OW16441   4.753   1.027   0.820  0.4040  0.4427 -0.3732
 3109SOL    HW116442   4.728   1.112   0.858 -0.6751 -0.0359  0.0066
 3109SOL    HW216443   4.703   1.021   0.739 -1.9153 -1.1257  1.0641
 3110SOL     OW16444   5.986  11.864   8.442  0.2562  0.1126  0.2866
 3110SOL    HW116445   6.074  11.826   8.450  0.1679  0.0474  0.9883
 3110SOL    HW216446   5.937  11.826   8.515 -0.4017  0.0312 -0.1922
 3111SOL     OW16447   4.677   4.482   3.214  0.6285 -0.3720  0.0206
 3111SOL    HW116448   4.653   4.442   3.297 -0.1454  0.8892  0.4265
 3111SOL    HW216449   4.769   4.458   3.201  0.8393 -0.3584  1.3721
 3112SOL     OW16450   5.726   1.034  12.827 -0.0123  1.0570 -0.0218
 3112SOL    HW116451   5.806   1.066  12.786  1.0521  0.3359  1.3957
 3112SOL    HW216452   5.718   1.084  12.908  0.6116 -0.8100  1.2683
 3113SOL     OW16453   9.760   0.398   7.604 -0.2063  0.1674  0.8211
 3113SOL    HW116454   9.761   0.375   7.697  1.8656  1.5458  1.1938
 3113SOL    HW216455   9.684   0.456   7.595 -1.2860 -1.1185  1.3104
 3114SOL     OW16456   9.918   4.593   3.852  0.7774 -0.2583 -0.0059
 3114SOL    HW116457   9.862   4.671   3.846  0.7783 -0.3422 -1.2531
 3114SOL    HW216458   9.860   4.520   3.832  0.8720 -0.5575  0.7702
 3115SOL     OW16459   6.130   7.642  11.445 -0.0373 -0.6366  0.4371
 3115SOL    HW116460   6.102   7.716  11.499  0.7345 -0.9130  1.2289
 3115SOL    HW216461   6.201   7.601  11.494  0.1354 -1.3876 -0.4058
 3116SOL     OW16462   0.918  10.181   4.784  0.7946 -0.6635 -0.5449
 3116SOL    HW116463   0.985  10.239   4.821 -0.3682  1.0581 -0.9725
 3116SOL    HW216464   0.863  10.240   4.732 -1.1219 -1.9722 -0.0894
 3117SOL     OW16465   7.431   9.270   6.751 -0.3068  0.1410 -0.1581
 3117SOL    HW116466   7.418   9.362   6.770 -0.6740  0.4018 -1.5171
 3117SOL    HW216467   7.509   9.268   6.695 -1.7194 -0.0283 -2.2712
 3118SOL     OW16468  10.243   0.543   6.098 -0.6372  0.4053  0.0207
 3118SOL    HW116469  10.281   0.462   6.133  0.3995  0.4407 -0.9686
 3118SOL    HW216470  10.149   0.533   6.112 -0.6085 -1.2988 -0.7158
 3119SOL     OW16471   7.096   3.015   0.194 -0.3750  0.1483 -0.3326
 3119SOL    HW116472   7.022   3.065   0.159 -2.3452 -1.0690  1.7723
 3119SOL    HW216473   7.080   2.925   0.166  0.4851 -0.0829 -0.1123
 3120SOL     OW16474   9.515   8.165   3.931 -0.2022 -0.4453  0.0618
 3120SOL    HW116475   9.454   8.216   3.984  0.1883  0.5690 -0.4194
 3120SOL    HW216476   9.585   8.227   3.910 -0.8770 -0.4053 -2.5429
 3121SOL     OW16477   3.960   1.786  12.713 -0.3213  0.2692 -1.2237
 3121SOL    HW116478   3.873   1.817  12.738  0.5681  1.2803  0.8979
 3121SOL    HW216479   3.972   1.818  12.623 -1.8587  0.7085 -1.3019
 3122SOL     OW16480   7.514  10.026   2.984 -0.1462  0.0806 -0.1608
 3122SOL    HW116481   7.542  10.117   3.000  0.0401  0.3425 -1.8434
 3122SOL    HW216482   7.418  10.032   2.979 -0.0355  0.7775 -3.2675
 3123SOL     OW16483  10.007   4.508   2.519  0.3956 -0.4066  0.3614
 3123SOL    HW116484  10.038   4.521   2.608  0.6222  1.2214  0.0750
 3123SOL    HW216485  10.038   4.421   2.495  2.3008  0.0176  1.0934
 3124SOL     OW16486  10.559   4.821   9.825 -0.4492  0.0618  0.2350
 3124SOL    HW116487  10.555   4.753   9.758  2.7954 -0.7598  0.7031
 3124SOL    HW216488  10.492   4.796   9.889 -1.9784 -0.4511 -1.4994
 3125SOL     OW16489   3.850  12.873   2.261  0.0413 -0.4702  0.1089
 3125SOL    HW116490   3.776  12.812   2.255 -1.2658  1.1876 -2.0940
 3125SOL    HW216491   3.888  12.856   2.347 -3.4440 -0.8230  1.7571
 3126SOL     OW16492   6.654  11.731   2.135  0.1546 -0.1039  0.3266
 3126SOL    HW116493   6.738  11.755   2.095  0.4883 -1.6484  0.0449
 3126SOL    HW216494   6.659  11.766   2.224  1.6445 -1.2674  0.7405
 3127SOL     OW16495   5.242   1.807   8.285  0.2688 -0.1692 -0.2103
 3127SOL    HW116496   5.280   1.838   8.203  1.8397 -0.6021  0.3173
 3127SOL    HW216497   5.316   1.799   8.345 -0.8611  0.2598  1.3063
 3128SOL     OW16498  11.705   3.469  12.467  0.0732 -0.2113  0.7182
 3128SOL    HW116499  11.666   3.431  12.546 -0.8776  0.3326  0.5304
 3128SOL    HW216500  11.666   3.556  12.460 -0.7213 -0.6562 -0.9301
 3129SOL     OW16501   2.328   7.331  11.950  0.0053  0.4480 -0.2237
 3129SOL    HW116502   2.356   7.411  11.995  0.6779 -0.8181  1.7177
 3129SOL    HW216503   2.270   7.362  11.881  0.8677  2.6702 -0.0282
 3130SOL     OW16504  12.120  10.330   1.460 -0.6961  0.9207 -0.5665
 3130SOL    HW116505  12.178  10.316   1.386 -1.8223  1.0000 -1.4893
 3130SOL    HW216506  12.040  10.367   1.422 -1.6234  0.1532  0.5602
 3131SOL     OW16507   3.746   8.799   4.880  0.3940 -0.3706 -0.5033
 3131SOL    HW116508   3.693   8.877   4.894 -1.1734 -1.3870 -0.4629
 3131SOL    HW216509   3.688   8.739   4.834  1.5606 -1.5084 -0.5520
 3132SOL     OW16510  12.007   4.475   4.165 -0.1892  0.5201 -0.4360
 3132SOL    HW116511  12.072   4.544   4.177 -0.5611  0.7118  0.6258
 3132SOL    HW216512  12.057   4.401   4.130  0.3398  1.0878 -0.9103
 3133SOL     OW16513   9.571   5.499   4.112 -0.1526 -0.9437  0.3480
 3133SOL    HW116514   9.537   5.561   4.177  0.7734 -1.1452  1.0414
 3133SOL    HW216515   9.493   5.452   4.082 -0.8570  0.4557 -0.1020
 3134SOL     OW16516   4.949   9.066   8.174 -0.2996  0.0895  0.4696
 3134SOL    HW116517   4.936   9.148   8.221  0.1578 -0.9488  2.5441
 3134SOL    HW216518   4.898   9.002   8.224  0.8841 -1.2263  0.0662
 3135SOL     OW16519   4.239   2.731  12.529  0.6630 -0.2414 -0.1363
 3135SOL    HW116520   4.154   2.770  12.549  0.0762 -2.2269  1.5151
 3135SOL    HW216521   4.291   2.803  12.493 -0.8147  1.6764  1.3925
 3136SOL     OW16522   2.573   0.104   1.806 -0.2020 -0.4552 -0.2310
 3136SOL    HW116523   2.586   0.040   1.875  0.8902  0.3105  0.2979
 3136SOL    HW216524   2.650   0.094   1.749  0.0236  0.4200 -0.0995
 3137SOL     OW16525   3.492  10.079   2.898  0.0635 -0.0479 -0.0050
 3137SOL    HW116526   3.443  10.151   2.858  1.9605  0.4067 -1.6827
 3137SOL    HW216527   3.556  10.053   2.831 -1.7023 -4.6397 -0.2741
 3138SOL     OW16528   8.433   1.925   3.466 -0.0816 -0.3141 -0.5297
 3138SOL    HW116529   8.528   1.916   3.469  0.2987  2.0492 -2.3360
 3138SOL    HW216530   8.415   1.956   3.377 -2.5338 -0.5216 -0.1725
 3139SOL     OW16531  10.452   4.017   8.066 -0.6453 -0.0733  0.0873
 3139SOL    HW116532  10.378   4.042   8.121 -2.0998  0.3959 -1.9258
 3139SOL    HW216533  10.493   4.100   8.042  0.1744 -0.2929  0.6957
 3140SOL     OW16534   1.649   3.552   6.408 -0.3456  0.0838  0.3697
 3140SOL    HW116535   1.673   3.615   6.476 -0.5597  0.1051  0.4263
 3140SOL    HW216536   1.732   3.519   6.376 -0.2453  0.0043  0.7062
 3141SOL     OW16537   4.294  11.015   6.908  0.0453  0.5096  0.3037
 3141SOL    HW116538   4.325  10.974   6.827  0.3518 -0.2962  0.8266
 3141SOL    HW216539   4.367  11.072   6.935 -0.0970  0.8599 -0.0280
 3142SOL     OW16540   7.762  12.228   8.401 -0.2281 -0.3122 -0.8125
 3142SOL    HW116541   7.763  12.280   8.321  0.8280 -1.7357 -1.7688
 3142SOL    HW216542   7.852  12.200   8.413 -0.5239 -0.8102  0.4304
 3143SOL     OW16543  10.102   7.677   3.440 -0.6642  0.1068 -0.1824
 3143SOL    HW116544  10.081   7.731   3.365 -0.9485 -2.1214 -1.8018
 3143SOL    HW216545  10.043   7.707   3.509 -0.8661  1.7519 -1.0405
 3144SOL     OW16546   4.663   6.837   6.816  0.1989  0.0752 -0.1983
 3144SOL    HW116547   4.726   6.826   6.745 -1.1226  2.2599 -1.8787
 3144SOL    HW216548   4.615   6.755   6.819 -0.1516  0.1282 -2.3799
 3145SOL     OW16549   2.035   4.572   3.133 -0.3694 -0.2587 -0.1561
 3145SOL    HW116550   1.978   4.627   3.187 -0.9325 -0.1746 -0.8243
 3145SOL    HW216551   1.975   4.524   3.076  0.2004 -0.5782 -0.4930
 3146SOL     OW16552   0.442   3.226   6.507 -0.6899 -0.5690 -0.1350
 3146SOL    HW116553   0.456   3.179   6.425  0.8349 -0.7062  0.1741
 3146SOL    HW216554   0.463   3.162   6.575  1.5491  0.5211  0.2866
 3147SOL     OW16555   3.806  11.806  11.188 -0.2573 -0.2695 -0.0165
 3147SOL    HW116556   3.828  11.781  11.098  1.5395  2.3557 -0.4111
 3147SOL    HW216557   3.887  11.842  11.223 -1.6443  1.3738  1.6871
 3148SOL     OW16558   2.973  12.832   2.542  0.1683 -0.2776 -0.0321
 3148SOL    HW116559   2.992  12.925   2.531 -0.5756  0.2918  2.7221
 3148SOL    HW216560   2.896  12.816   2.487  1.5192  0.1558 -2.1711
 3149SOL     OW16561  11.480   1.553   2.004 -0.5906 -0.3271 -0.1213
 3149SOL    HW116562  11.523   1.570   1.920 -1.2489  0.1724 -0.3734
 3149SOL    HW216563  11.536   1.597   2.069 -0.0935 -0.6919 -0.2990
 3150SOL     OW16564   1.799   7.092  10.260 -0.0547 -0.2864  0.0588
 3150SOL    HW116565   1.817   7.090  10.166 -0.7271 -2.2673 -0.0932
 3150SOL    HW216566   1.844   7.014  10.294  0.8683  0.8510  1.5414
 3151SOL     OW16567   7.848   4.989  12.108 -0.3065  0.1590 -0.4782
 3151SOL    HW116568   7.853   5.072  12.156 -0.9475 -0.7601  1.2604
 3151SOL    HW216569   7.756   4.962  12.116 -0.5109  0.1004 -2.5165
 3152SOL     OW16570   8.424  11.545  12.410  0.1239  0.1018 -0.3304
 3152SOL    HW116571   8.437  11.475  12.474 -0.0874 -0.9691 -1.4134
 3152SOL    HW216572   8.383  11.616  12.459  0.6518 -0.4103  0.8717
 3153SOL     OW16573  10.600   4.760   2.313  0.0416 -0.5051 -0.3683
 3153SOL    HW116574  10.573   4.686   2.258  2.2909 -2.1389  0.5597
 3153SOL    HW216575  10.589   4.728   2.403 -0.8716  1.0933  0.1344
 3154SOL     OW16576   1.227   0.801   5.952 -0.1994  0.0920  0.2687
 3154SOL    HW116577   1.194   0.796   6.042  1.7590  2.1289  1.1973
 3154SOL    HW216578   1.305   0.855   5.958  0.9774 -1.1027 -2.4295
 3155SOL     OW16579  12.056   3.886   9.046  0.3046  0.2557 -0.1699
 3155SOL    HW116580  12.132   3.886   8.988  0.8225 -1.8091  0.4278
 3155SOL    HW216581  11.981   3.874   8.988  0.7966 -1.5063 -0.4934
 3156SOL     OW16582   3.928   1.906  10.437 -0.1252 -0.7694  0.0247
 3156SOL    HW116583   3.945   1.812  10.430 -3.0363 -1.4231  0.5816
 3156SOL    HW216584   3.894   1.931  10.351  4.9686  1.0383 -1.9099
 3157SOL     OW16585   6.696   8.383   7.200  0.1624  0.0934  0.3241
 3157SOL    HW116586   6.696   8.288   7.209  0.1036  0.1217  0.6416
 3157SOL    HW216587   6.776   8.403   7.150 -0.9212 -0.2864 -1.6624
 3158SOL     OW16588  10.955   6.107   4.325  0.1189  0.2063 -0.1044
 3158SOL    HW116589  10.927   6.078   4.412 -0.2973  1.9760  0.3997
 3158SOL    HW216590  11.032   6.053   4.305  0.4146 -0.0124  1.5052
 3159SOL     OW16591   6.944  11.161   3.284 -0.3347  0.0125  0.2199
 3159SOL    HW116592   6.973  11.088   3.338  0.9381  0.7390  0.5403
 3159SOL    HW216593   6.857  11.135   3.254  0.2067 -1.7699  0.0798
 3160SOL     OW16594   1.802   6.000   2.082  0.0690 -0.0436 -0.2339
 3160SOL    HW116595   1.716   6.026   2.049 -0.0289  1.4688  1.0932
 3160SOL    HW216596   1.864   6.051   2.029  0.0423  0.3948  0.1542
 3161SOL     OW16597   2.819  11.351  10.468  0.1788  0.2743 -0.0889
 3161SOL    HW116598   2.741  11.311  10.429 -1.2528  1.7155  1.1490
 3161SOL    HW216599   2.831  11.432  10.418 -0.4168  1.0901  1.0481
 3162SOL     OW16600   3.458   8.703   8.719  0.5478  0.2283 -0.1143
 3162SOL    HW116601   3.448   8.684   8.812  0.8754 -0.5586 -0.2390
 3162SOL    HW216602   3.449   8.799   8.713  0.6661  0.2969  0.7404
 3163SOL     OW16603   9.613   5.954   8.008  0.4108  0.0976  0.8272
 3163SOL    HW116604   9.530   5.910   7.989  1.6726 -1.6876 -0.8953
 3163SOL    HW216605   9.642   5.916   8.091  1.5426 -2.5645 -0.6919
 3164SOL     OW16606   9.130  12.118   0.002  0.1419 -0.3479 -0.2529
 3164SOL    HW116607   9.114  12.119  -0.092  0.2048  1.9207 -0.2880
 3164SOL    HW216608   9.092  12.200   0.033  0.3592 -0.9340  1.6730
 3165SOL     OW16609   8.200   8.199   1.286  0.1924 -0.2476 -0.3402
 3165SOL    HW116610   8.207   8.106   1.267  1.0902 -0.3494  0.4010
 3165SOL    HW216611   8.193   8.203   1.382 -0.8273  0.4047 -0.4234
 3166SOL     OW16612   6.494  11.204   5.784  0.3443  0.0044 -0.6060
 3166SOL    HW116613   6.545  11.160   5.715 -1.7964 -2.1135 -0.9612
 3166SOL    HW216614   6.444  11.271   5.737 -0.8397 -1.1951 -1.1149
 3167SOL     OW16615   2.465   2.780   6.318 -0.0216 -0.3504  0.7541
 3167SOL    HW116616   2.480   2.686   6.309  2.7072  0.0266  0.5382
 3167SOL    HW216617   2.444   2.809   6.229  0.9874 -0.5249  0.4365
 3168SOL     OW16618   2.918   1.842  10.044 -0.4940 -0.4748  0.1703
 3168SOL    HW116619   2.922   1.825  10.138 -2.4836 -2.2478  0.0320
 3168SOL    HW216620   2.843   1.790  10.014  1.1505 -1.3896 -2.7077
 3169SOL     OW16621   1.371   7.045   2.309 -0.1411  0.1345 -0.0064
 3169SOL    HW116622   1.348   7.094   2.230 -3.0103 -0.7616  0.1448
 3169SOL    HW216623   1.421   6.970   2.278 -1.6721 -0.4842 -1.0959
 3170SOL     OW16624   0.415  12.699  12.025  0.2522 -0.0930 -0.3247
 3170SOL    HW116625   0.384  12.662  11.943  0.6938 -0.2905 -0.4075
 3170SOL    HW216626   0.466  12.629  12.065  0.3915  0.1424 -0.0845
 3171SOL     OW16627   8.442   7.903   2.461 -0.2480  0.2858  0.4431
 3171SOL    HW116628   8.518   7.883   2.517 -0.5150  0.8008  1.0040
 3171SOL    HW216629   8.427   7.997   2.475 -0.9178  0.2098  0.2504
 3172SOL     OW16630   5.992   1.312   6.814 -0.3198  0.3965  0.1823
 3172SOL    HW116631   5.968   1.295   6.723  0.5047  0.4384 -0.0453
 3172SOL    HW216632   6.046   1.237   6.839 -1.8197 -0.4320  1.1470
 3173SOL     OW16633   3.523   3.924   0.929  0.3552  0.8310  0.0103
 3173SOL    HW116634   3.457   3.857   0.915 -1.1036  2.0841  0.6252
 3173SOL    HW216635   3.547   3.953   0.841  0.6387 -0.1165 -0.2370
 3174SOL     OW16636   8.749   1.599   1.904 -0.3449  0.1379 -0.7587
 3174SOL    HW116637   8.677   1.660   1.887 -0.8787 -0.8062 -2.0262
 3174SOL    HW216638   8.805   1.605   1.827 -0.4802 -1.0643 -0.9689
 3175SOL     OW16639   1.315   9.150   2.975 -0.6202  0.2696 -0.3074
 3175SOL    HW116640   1.304   9.067   3.020 -1.1720 -0.0863 -1.0767
 3175SOL    HW216641   1.410   9.156   2.959 -0.5896 -0.2590 -0.3411
 3176SOL     OW16642  11.060   1.732  10.418  0.3700  0.3040  0.1253
 3176SOL    HW116643  11.117   1.679  10.362  0.5697  2.0694 -1.4351
 3176SOL    HW216644  11.097   1.723  10.505  1.3197 -0.8400 -0.3642
 3177SOL     OW16645   3.572   4.482   6.425  0.1969 -0.2556 -0.1386
 3177SOL    HW116646   3.626   4.449   6.497  0.0329 -0.1253  0.0468
 3177SOL    HW216647   3.567   4.409   6.363 -0.8522 -0.8879  0.6555
 3178SOL     OW16648   2.523   8.111   5.876  0.4017 -0.2647  0.0229
 3178SOL    HW116649   2.583   8.045   5.841 -2.8701 -2.6480 -1.6391
 3178SOL    HW216650   2.549   8.192   5.832  3.0014 -0.8593  0.2555
 3179SOL     OW16651   0.651  11.840   9.068 -0.1184  0.0353  0.0886
 3179SOL    HW116652   0.677  11.927   9.097 -1.5110  0.2762  0.7214
 3179SOL    HW216653   0.623  11.796   9.149  0.7682 -1.0777 -0.1882
 3180SOL     OW16654  11.832   1.421   7.775  0.0845  0.2118  0.3345
 3180SOL    HW116655  11.768   1.439   7.706  0.8888 -0.2180 -0.5477
 3180SOL    HW216656  11.784   1.433   7.857 -0.0401  4.2049 -0.1616
 3181SOL     OW16657   1.989   7.252   3.383 -0.1694  0.0672 -0.3759
 3181SOL    HW116658   2.005   7.322   3.446  2.1518 -0.6264 -0.0946
 3181SOL    HW216659   1.914   7.203   3.419  1.8493 -1.0993  2.6693
 3182SOL     OW16660   3.151  12.968   5.868  0.3260  0.2105 -0.4385
 3182SOL    HW116661   3.112  13.053   5.848 -1.3139 -0.4992 -0.4633
 3182SOL    HW216662   3.154  12.965   5.964 -1.4208 -0.4311 -0.3733
 3183SOL     OW16663   8.858  10.293   9.938  0.4158  0.2812 -0.1852
 3183SOL    HW116664   8.779  10.240   9.944  0.5161  0.1637  0.0662
 3183SOL    HW216665   8.903  10.280  10.021 -0.2840  1.9039  0.5004
 3184SOL     OW16666   1.820  11.343  12.009  0.6669 -0.1510  0.0955
 3184SOL    HW116667   1.801  11.417  12.067  2.5567  0.8671 -0.5048
 3184SOL    HW216668   1.777  11.365  11.927 -0.4450 -0.7034  0.5114
 3185SOL     OW16669   8.582   4.917   8.358  0.5170  0.1205 -0.3335
 3185SOL    HW116670   8.579   4.910   8.453 -2.3026 -0.4532 -0.3725
 3185SOL    HW216671   8.672   4.939   8.338  1.1906  0.2206  2.4640
 3186SOL     OW16672   5.601   4.880  12.436 -0.5446 -0.2310  0.4921
 3186SOL    HW116673   5.611   4.788  12.460 -0.6178 -0.1416  0.8754
 3186SOL    HW216674   5.689   4.908  12.410 -0.6719 -0.6169 -0.3979
 3187SOL     OW16675   5.712  11.529   6.138  0.1883 -0.6026  0.2954
 3187SOL    HW116676   5.648  11.463   6.112  0.3133  0.1521 -2.1493
 3187SOL    HW216677   5.760  11.550   6.058  0.8025  1.7515  1.1828
 3188SOL     OW16678   2.464   2.673   7.173 -0.4340  0.8915 -1.1483
 3188SOL    HW116679   2.473   2.628   7.088  1.7861 -1.0810 -0.0063
 3188SOL    HW216680   2.545   2.723   7.182  0.5589 -0.8681  0.7431
 3189SOL     OW16681  12.685   4.617   7.355 -0.5576 -0.1847  0.2321
 3189SOL    HW116682  12.701   4.642   7.264 -1.2944 -1.9397 -0.4250
 3189SOL    HW216683  12.727   4.531   7.364 -1.5616 -0.5980  1.1767
 3190SOL     OW16684   2.822  12.721   1.962  0.3586  0.0761  0.2363
 3190SOL    HW116685   2.814  12.808   2.000 -1.4280 -0.6041  1.5419
 3190SOL    HW216686   2.884  12.675   2.019  1.3649  0.4789 -0.5000
 3191SOL     OW16687   1.379   2.420  10.147  0.0325  0.1692  0.2163
 3191SOL    HW116688   1.408   2.339  10.189  1.6705  1.0073  0.7654
 3191SOL    HW216689   1.412   2.414  10.057  0.9969  0.6299  0.5279
 3192SOL     OW16690   8.755   5.075  10.515 -0.4775  0.1599  0.5875
 3192SOL    HW116691   8.672   5.041  10.483 -0.2666 -1.9161  2.0302
 3192SOL    HW216692   8.799   4.999  10.553 -0.0019  1.9753  4.1543
 3193SOL     OW16693   5.597   3.254  12.359 -0.2202  0.2586  0.7106
 3193SOL    HW116694   5.538   3.180  12.373  0.0122 -0.0261  0.1881
 3193SOL    HW216695   5.600   3.298  12.444  0.8046 -1.1783  1.4628
 3194SOL     OW16696   8.266   1.105  10.684  0.5296  0.4324  0.2628
 3194SOL    HW116697   8.314   1.052  10.621  0.1174 -0.0836  0.3763
 3194SOL    HW216698   8.304   1.192  10.677  0.7423  0.2832 -0.4261
 3195SOL     OW16699   9.621   5.847   6.034  0.5733 -0.6898 -0.1123
 3195SOL    HW116700   9.619   5.756   6.003  1.0604 -0.2836 -1.4018
 3195SOL    HW216701   9.713   5.872   6.030  0.1969  0.6262 -2.2101
 3196SOL     OW16702   9.489   0.397   8.450 -0.1645  0.2764  0.3248
 3196SOL    HW116703   9.471   0.467   8.512 -0.1146 -0.2795  0.9880
 3196SOL    HW216704   9.451   0.319   8.492  0.1556 -0.1638 -0.1971
 3197SOL     OW16705  10.280   0.522   0.453  0.0631 -0.3684 -0.8576
 3197SOL    HW116706  10.364   0.491   0.419 -0.8697 -1.1973 -2.5452
 3197SOL    HW216707  10.275   0.613   0.425  1.9262  0.9271  2.4006
 3198SOL     OW16708  11.281  12.708  12.164 -0.6140  0.1488  0.1884
 3198SOL    HW116709  11.233  12.723  12.082  0.8143  1.0281 -0.5396
 3198SOL    HW216710  11.347  12.778  12.165  0.7949 -1.1432  1.0148
 3199SOL     OW16711   8.767   6.878   1.290  0.2359  0.1196 -0.0095
 3199SOL    HW116712   8.819   6.859   1.368  1.1377  0.7304 -0.4510
 3199SOL    HW216713   8.796   6.964   1.262  1.5485 -0.9865 -2.3033
 3200SOL     OW16714   1.968   5.669   0.136 -0.0845 -0.2757 -0.7000
 3200SOL    HW116715   1.949   5.704   0.049 -1.4444 -1.5370 -0.9574
 3200SOL    HW216716   2.062   5.681   0.146  0.2909 -0.9233 -2.7579
 3201SOL     OW16717   6.569   5.301   0.598  0.1953  0.1135 -0.1002
 3201SOL    HW116718   6.588   5.236   0.666  1.3167  1.1884  0.6524
 3201SOL    HW216719   6.652   5.316   0.554 -0.4030 -0.1536 -1.3693
 3202SOL     OW16720   4.954   7.413  12.197 -0.3447  0.6381  0.5375
 3202SOL    HW116721   4.994   7.495  12.169 -0.3231  1.1251  1.9388
 3202SOL    HW216722   4.866   7.437  12.225 -0.6314  0.0420  0.1662
 3203SOL     OW16723  11.569   9.815   2.549 -0.3518  0.7999  0.3688
 3203SOL    HW116724  11.552   9.782   2.460  0.6212 -1.3386  0.9030
 3203SOL    HW216725  11.545   9.907   2.546 -2.4715  0.2709 -1.5214
 3204SOL     OW16726   5.656   6.241   4.410 -0.7237  0.5746  0.0004
 3204SOL    HW116727   5.621   6.159   4.375 -0.6894  0.6056 -0.1046
 3204SOL    HW216728   5.743   6.217   4.443 -0.2879  0.7925 -0.9676
 3205SOL     OW16729  12.167   3.547   4.632 -0.1016  0.8865 -0.0596
 3205SOL    HW116730  12.124   3.498   4.562  0.5227  0.8115 -0.4024
 3205SOL    HW216731  12.144   3.638   4.615  1.3121  1.0517 -1.3096
 3206SOL     OW16732   6.660   0.477   9.735  0.6499  0.4070 -0.5872
 3206SOL    HW116733   6.741   0.506   9.778 -0.2569  1.0404  0.7631
 3206SOL    HW216734   6.612   0.557   9.717 -0.9727 -0.0485  1.3325
 3207SOL     OW16735  11.533   4.858   2.890 -0.1194  0.1199 -0.1286
 3207SOL    HW116736  11.617   4.858   2.937  0.4240  0.7087 -1.0678
 3207SOL    HW216737  11.508   4.951   2.886 -0.7434 -0.0390  0.0001
 3208SOL     OW16738   4.082   0.835   8.071  0.4452 -0.0514  0.0280
 3208SOL    HW116739   4.146   0.904   8.086  0.7799 -0.1344 -0.9920
 3208SOL    HW216740   4.108   0.765   8.132  0.1765  0.6534  0.9704
 3209SOL     OW16741   0.409   2.343   6.648 -0.1986  0.1579 -0.4098
 3209SOL    HW116742   0.425   2.430   6.613 -0.4426  0.7704  0.9622
 3209SOL    HW216743   0.374   2.357   6.735 -2.3842 -1.2858 -0.9771
 3210SOL     OW16744   8.804   7.281   2.084 -0.1231 -0.3567  0.4184
 3210SOL    HW116745   8.836   7.219   2.019 -0.6556 -0.4762  0.2684
 3210SOL    HW216746   8.710   7.288   2.067 -0.1446  0.1431  0.7267
 3211SOL     OW16747   1.067   3.399   1.092 -0.3244  0.5587 -0.6324
 3211SOL    HW116748   1.110   3.452   1.025  0.1296 -0.6893 -1.3694
 3211SOL    HW216749   0.977   3.432   1.095  0.2366  2.1594 -0.1866
 3212SOL     OW16750  12.161   8.582   2.349 -0.6801 -0.1797 -0.3340
 3212SOL    HW116751  12.239   8.609   2.397 -0.6301  0.4745 -0.7790
 3212SOL    HW216752  12.140   8.656   2.292 -1.2802 -0.5817 -0.6500
 3213SOL     OW16753   9.394   3.452   3.454  0.2101  0.4686 -0.5939
 3213SOL    HW116754   9.482   3.422   3.475 -0.5745 -1.0472  0.7593
 3213SOL    HW216755   9.402   3.548   3.447  1.7125  0.4932  0.8562
 3214SOL     OW16756   3.102   7.795   0.750  0.4494 -0.2964 -0.1853
 3214SOL    HW116757   3.127   7.773   0.840  0.2669  0.2210 -0.0014
 3214SOL    HW216758   3.121   7.889   0.742 -1.9796  0.2982  0.1795
 3215SOL     OW16759   9.289   3.813  11.613 -0.4506 -0.0347  0.8046
 3215SOL    HW116760   9.220   3.877  11.630  0.1133  1.1909 -1.0951
 3215SOL    HW216761   9.243   3.733  11.590 -1.2502  0.6239  0.0349
 3216SOL     OW16762   5.675   4.932   6.799 -0.3372  0.2487 -0.0863
 3216SOL    HW116763   5.730   5.007   6.823  0.0261  0.8480 -2.5665
 3216SOL    HW216764   5.614   4.923   6.873  2.1509  0.4146  2.1242
 3217SOL     OW16765   3.444   5.647   9.394 -0.0033 -0.0383  0.3156
 3217SOL    HW116766   3.446   5.561   9.353 -0.4738  0.1711 -0.1659
 3217SOL    HW216767   3.362   5.649   9.443 -1.4386  1.1283 -1.9595
 3218SOL     OW16768   6.509   4.387  11.676 -0.3288  0.1090 -0.1985
 3218SOL    HW116769   6.491   4.465  11.728 -0.3045  0.6375 -0.9751
 3218SOL    HW216770   6.600   4.365  11.696 -0.7420 -0.5434  1.0778
 3219SOL     OW16771   3.118   7.336   3.541 -0.3016 -0.1983 -0.6438
 3219SOL    HW116772   3.091   7.421   3.576 -1.5711 -0.3116 -1.3129
 3219SOL    HW216773   3.103   7.275   3.613 -1.0172 -0.1186 -0.7187
 3220SOL     OW16774   0.052   9.926   9.479  0.5300 -0.5900 -0.0698
 3220SOL    HW116775   0.079   9.883   9.560  0.6573  0.3192  0.3839
 3220SOL    HW216776  -0.043   9.923   9.480  0.3511  2.0552  1.6537
 3221SOL     OW16777   4.991   5.298   5.735 -0.1680 -0.4560  0.1353
 3221SOL    HW116778   5.014   5.249   5.814 -2.0059 -0.6733  0.5778
 3221SOL    HW216779   4.909   5.258   5.705 -0.8813  1.3011 -0.4040
 3222SOL     OW16780  11.214   3.326   8.236 -0.5962 -0.6362 -0.2796
 3222SOL    HW116781  11.160   3.313   8.159  0.8079  0.3031 -1.4762
 3222SOL    HW216782  11.288   3.266   8.224 -0.4003 -0.5397  0.3778
 3223SOL     OW16783  10.566  11.387   0.661  0.4616  0.3360 -0.2271
 3223SOL    HW116784  10.620  11.462   0.687 -0.7046  0.9751  0.4255
 3223SOL    HW216785  10.490  11.390   0.720 -1.4521  0.8237 -2.5612
 3224SOL     OW16786   7.303   1.078  10.120 -0.5595 -0.0298 -0.1772
 3224SOL    HW116787   7.268   1.063  10.208  0.9498  1.1150  0.6825
 3224SOL    HW216788   7.314   1.173  10.115 -1.3353  0.0111 -1.9295
 3225SOL     OW16789   1.213   0.161   8.665  0.5448 -0.1489 -0.1400
 3225SOL    HW116790   1.242   0.176   8.755  0.8941 -0.6844 -0.1549
 3225SOL    HW216791   1.227   0.244   8.620  0.5158  0.0722  0.2646
 3226SOL     OW16792  10.641   4.332   6.598 -0.2697 -0.3583 -0.5883
 3226SOL    HW116793  10.716   4.369   6.553 -0.3585  1.5282  0.6963
 3226SOL    HW216794  10.676   4.256   6.645  1.1531  1.1181  0.8788
 3227SOL     OW16795  10.434   0.264   0.021  0.5870  0.7984  0.0561
 3227SOL    HW116796  10.399   0.208  -0.049 -2.0473 -0.0304  1.9130
 3227SOL    HW216797  10.525   0.236   0.031 -0.3418 -2.5058  0.2144
 3228SOL     OW16798   3.998   3.499   4.327 -0.5317  0.1189 -0.4271
 3228SOL    HW116799   3.978   3.463   4.241  0.2546  1.0426 -1.0168
 3228SOL    HW216800   3.915   3.535   4.358 -1.0329 -1.0245 -0.3706
 3229SOL     OW16801   4.304   9.219   3.483  0.1664  0.0898 -0.4437
 3229SOL    HW116802   4.221   9.175   3.464  1.2145 -0.7720 -3.5246
 3229SOL    HW216803   4.340   9.241   3.398  3.3419  0.0363  0.7453
 3230SOL     OW16804   6.921   7.678   5.576  0.0421  0.2394  0.0889
 3230SOL    HW116805   6.858   7.618   5.537 -0.4359  0.9325 -0.2303
 3230SOL    HW216806   6.994   7.623   5.603 -1.1627 -0.7512  1.4879
 3231SOL     OW16807   0.860   4.718   8.929 -0.0986  0.3687  0.4629
 3231SOL    HW116808   0.886   4.798   8.974  1.2961  0.6760 -0.8070
 3231SOL    HW216809   0.896   4.648   8.985  1.0933  0.7242  0.1751
 3232SOL     OW16810   0.121   5.691   9.887  0.2133  0.5288  0.1096
 3232SOL    HW116811   0.158   5.605   9.906  0.6217  0.4693 -0.9229
 3232SOL    HW216812   0.040   5.694   9.939  1.0100  0.1802  1.4247
 3233SOL     OW16813  10.336  10.077   4.235  0.0414 -0.1944  0.1437
 3233SOL    HW116814  10.302   9.995   4.272 -0.3451  0.0391  0.3169
 3233SOL    HW216815  10.416  10.051   4.188  0.3118 -0.5662  0.7878
 3234SOL     OW16816   6.929   0.167   7.464 -0.2424 -0.2147 -0.0302
 3234SOL    HW116817   6.963   0.248   7.501  0.0857 -0.1235 -0.5183
 3234SOL    HW216818   6.835   0.171   7.480 -0.1819  0.1007  0.2543
 3235SOL     OW16819   6.403   3.482   6.233  0.6576  0.1188  0.1112
 3235SOL    HW116820   6.375   3.572   6.213 -1.6461 -0.0469  2.1706
 3235SOL    HW216821   6.325   3.440   6.270  1.4040 -3.0298 -1.5275
 3236SOL     OW16822   4.520   8.292   1.563 -0.3294 -0.3733 -0.8378
 3236SOL    HW116823   4.426   8.284   1.548 -0.5372 -1.7063  0.8034
 3236SOL    HW216824   4.559   8.217   1.517 -0.4388 -1.5425  0.8733
 3237SOL     OW16825   3.224   2.673   7.603  0.1355  0.0630  0.4789
 3237SOL    HW116826   3.266   2.730   7.667  1.6139  1.3676 -1.5364
 3237SOL    HW216827   3.296   2.626   7.561 -0.8082 -0.9807 -0.0332
 3238SOL     OW16828  10.385   8.635   6.287 -0.4197 -0.0472  0.4026
 3238SOL    HW116829  10.442   8.569   6.327  2.8233  2.1084 -0.3309
 3238SOL    HW216830  10.305   8.632   6.340  0.1134 -3.4879  1.2817
 3239SOL     OW16831   9.415  12.039   2.807  0.9596 -0.1896  0.0332
 3239SOL    HW116832   9.493  12.088   2.836 -0.2962  1.9407  0.0053
 3239SOL    HW216833   9.392  12.079   2.723 -1.6602  1.1261  1.2645
 3240SOL     OW16834   9.344  11.605  12.523  0.8522  0.3429 -0.0973
 3240SOL    HW116835   9.387  11.550  12.589  1.0715  0.7113  0.0713
 3240SOL    HW216836   9.253  11.608  12.550  0.1331 -2.4288 -1.7743
 3241SOL     OW16837   6.290   7.257  11.430 -0.4354  0.2120  0.3103
 3241SOL    HW116838   6.223   7.283  11.493 -1.2487 -1.5397  0.2203
 3241SOL    HW216839   6.300   7.163  11.442  0.6171  0.1181 -1.0178
 3242SOL     OW16840   7.040  10.740   4.339 -0.2788 -0.9509  0.2687
 3242SOL    HW116841   7.089  10.724   4.419 -1.7029  1.7410  1.8073
 3242SOL    HW216842   7.107  10.760   4.274  0.8231 -0.6628  1.4542
 3243SOL     OW16843  10.100   1.087   5.086 -0.2056  0.4204 -0.0152
 3243SOL    HW116844  10.159   1.083   5.011 -0.5589 -1.5098 -0.2425
 3243SOL    HW216845  10.051   1.005   5.083 -1.8764  1.3163  1.0146
 3244SOL     OW16846   2.782   9.040   5.789  0.0142 -0.3605  0.2151
 3244SOL    HW116847   2.809   9.092   5.713 -0.7407  1.2847  1.0078
 3244SOL    HW216848   2.851   9.056   5.854 -1.7238  2.3574  1.5893
 3245SOL     OW16849   2.059  11.165  11.951 -0.0839 -0.6333  0.0875
 3245SOL    HW116850   2.137  11.219  11.939 -0.3876 -0.2228 -0.0676
 3245SOL    HW216851   1.993  11.224  11.986 -0.8752 -0.5161 -1.4731
 3246SOL     OW16852   4.467   6.936   0.307  0.5289 -0.1556  0.2605
 3246SOL    HW116853   4.429   6.972   0.387  0.5578 -0.7655  0.5549
 3246SOL    HW216854   4.415   6.974   0.237  1.8315  2.1047  0.3963
 3247SOL     OW16855  12.711  10.584  11.486 -0.9403 -0.0838  0.3075
 3247SOL    HW116856  12.802  10.579  11.515 -0.1779 -0.0245 -1.9158
 3247SOL    HW216857  12.670  10.506  11.522  0.3247 -0.7770  0.3013
 3248SOL     OW16858   2.625   0.882  12.882 -0.0145  1.2418  0.0572
 3248SOL    HW116859   2.539   0.914  12.908 -1.3018  0.3652 -2.8517
 3248SOL    HW216860   2.610   0.794  12.848  2.5920 -0.3275  2.4638
 3249SOL     OW16861  10.860   9.917   2.116 -0.2789  0.0301 -0.3008
 3249SOL    HW116862  10.946   9.874   2.118  0.1992  0.9448  1.6844
 3249SOL    HW216863  10.838   9.922   2.023  1.7087 -0.4534 -0.8536
 3250SOL     OW16864   8.510   4.968   9.360 -0.1288  0.2017  0.0486
 3250SOL    HW116865   8.513   5.060   9.331 -1.8974  0.3262  0.1534
 3250SOL    HW216866   8.576   4.924   9.307  1.5622  1.7286  0.7873
 3251SOL     OW16867  11.653   2.060   0.290  0.5023  0.0265  0.4090
 3251SOL    HW116868  11.574   2.090   0.335 -0.5766 -1.2478 -0.5502
 3251SOL    HW216869  11.694   2.000   0.353  0.2321  0.0010  0.5629
 3252SOL     OW16870   6.250   5.112   9.591  0.5883 -0.2458  0.0184
 3252SOL    HW116871   6.307   5.050   9.546  0.9196 -0.4367  0.6994
 3252SOL    HW216872   6.173   5.061   9.614  0.3154 -0.0915 -0.5228
 3253SOL     OW16873   0.321   8.505   8.661 -0.6085 -0.0264  0.1208
 3253SOL    HW116874   0.306   8.415   8.689 -1.2693  0.2463  0.6811
 3253SOL    HW216875   0.328   8.555   8.743 -0.2497  0.4271 -0.1831
 3254SOL     OW16876   0.495   9.336   5.125  0.0136  0.0938 -1.1337
 3254SOL    HW116877   0.495   9.249   5.087  0.3604  0.1495 -1.2692
 3254SOL    HW216878   0.426   9.334   5.191  0.8123 -0.6559 -0.2898
 3255SOL     OW16879   9.536   9.267   6.706  0.3432 -0.0025 -0.0324
 3255SOL    HW116880   9.594   9.331   6.665 -0.1066  0.2476 -0.2900
 3255SOL    HW216881   9.486   9.319   6.770 -0.1299 -0.0679 -0.3502
 3256SOL     OW16882   0.049   2.474  12.886 -0.5176  0.3217  0.3077
 3256SOL    HW116883   0.038   2.441  12.796  2.3140  2.0783 -0.8037
 3256SOL    HW216884  -0.022   2.538  12.896 -0.4666  0.6093 -0.9449
 3257SOL     OW16885   5.701  11.099   9.790 -0.1960 -0.0351  0.1989
 3257SOL    HW116886   5.765  11.105   9.860 -0.8112 -1.5635  0.9500
 3257SOL    HW216887   5.748  11.057   9.717  0.5252  1.8181 -0.4700
 3258SOL     OW16888  11.408   6.904   3.227  0.2406 -0.0525 -0.4357
 3258SOL    HW116889  11.419   6.906   3.322 -1.0579 -1.8416 -0.1925
 3258SOL    HW216890  11.313   6.915   3.215  0.4876  0.9915 -1.5910
 3259SOL     OW16891  10.805   3.929   5.654  0.1925 -0.4286 -0.3383
 3259SOL    HW116892  10.831   3.988   5.583 -2.3156 -0.0406 -1.0092
 3259SOL    HW216893  10.850   3.963   5.731  2.0705 -0.1735 -1.4857
 3260SOL     OW16894   9.369  12.677   3.956  0.2147 -0.6523  0.5095
 3260SOL    HW116895   9.311  12.695   3.882 -0.3499 -1.3162  0.7773
 3260SOL    HW216896   9.359  12.753   4.013  1.3383  0.2936 -0.4991
 3261SOL     OW16897   7.667   0.680   0.080  0.3611 -0.6018  0.6841
 3261SOL    HW116898   7.640   0.643  -0.003 -0.6996 -0.9756  1.1857
 3261SOL    HW216899   7.682   0.605   0.137 -0.8084 -0.3095  1.4037
 3262SOL     OW16900   7.126  11.797   6.239 -0.2669 -0.0462 -0.2405
 3262SOL    HW116901   7.193  11.735   6.211 -0.7394 -1.8856  2.3267
 3262SOL    HW216902   7.170  11.853   6.304 -0.6882  0.0872 -0.0655
 3263SOL     OW16903   6.450   5.106   9.869 -0.2909  0.0280  0.0109
 3263SOL    HW116904   6.519   5.154   9.823  0.4854 -0.2381  0.8838
 3263SOL    HW216905   6.448   5.021   9.826 -1.2631  0.5985 -1.1422
 3264SOL     OW16906   7.661  11.676  12.910  0.2206  0.4959 -0.3730
 3264SOL    HW116907   7.691  11.632  12.831  3.0120  2.5017 -0.5951
 3264SOL    HW216908   7.592  11.736  12.880  0.3200  0.2795 -1.0365
 3265SOL     OW16909   0.140   3.834   8.598  0.1836 -0.3466 -0.4996
 3265SOL    HW116910   0.174   3.908   8.547 -0.5780  0.3315 -0.0358
 3265SOL    HW216911   0.215   3.805   8.650  0.0546  1.2087  0.5932
 3266SOL     OW16912   0.937   0.023   5.260 -0.5015  0.1993 -0.2624
 3266SOL    HW116913   0.981  -0.019   5.334 -0.3686  1.4267  0.3883
 3266SOL    HW216914   0.844   0.009   5.277 -0.4802  0.6357  0.2486
 3267SOL     OW16915   1.276   4.710  11.448  0.0416 -0.4354  0.4844
 3267SOL    HW116916   1.259   4.710  11.354 -0.2915  1.2493  0.5292
 3267SOL    HW216917   1.193   4.684  11.488 -0.4495  0.9704  0.3983
 3268SOL     OW16918   1.854   2.059   9.462 -0.0215  0.5201  0.2601
 3268SOL    HW116919   1.809   1.990   9.510  0.5315  0.2094  0.3342
 3268SOL    HW216920   1.814   2.058   9.375 -1.0625  1.1179  0.7106
 3269SOL     OW16921   6.559  12.540  12.534 -0.3831 -0.2194  0.5149
 3269SOL    HW116922   6.553  12.489  12.614 -1.2504  0.2829  0.7900
 3269SOL    HW216923   6.490  12.606  12.543  0.5362  0.8338  0.0572
 3270SOL     OW16924  12.902   8.049   2.661 -0.1391 -0.4155  0.1866
 3270SOL    HW116925  12.857   8.133   2.661  0.4899 -0.0618  0.7133
 3270SOL    HW216926  12.838   7.987   2.696  0.0066  0.2252  1.6762
 3271SOL     OW16927  12.262  11.593  10.839 -0.4220 -0.3584 -0.0267
 3271SOL    HW116928  12.203  11.519  10.826 -0.7300  0.1598 -1.8278
 3271SOL    HW216929  12.348  11.560  10.813 -0.7329  0.1674 -1.8387
 3272SOL     OW16930   7.704   7.518   3.070 -0.8114 -0.2901  0.1665
 3272SOL    HW116931   7.675   7.499   2.981  0.4250 -1.2163 -0.0683
 3272SOL    HW216932   7.640   7.580   3.104 -2.9875 -2.1401 -0.3511
 3273SOL     OW16933  12.763   6.308  12.342 -0.1429 -0.0709  0.7510
 3273SOL    HW116934  12.858   6.304  12.345 -0.1781 -1.7262  0.9269
 3273SOL    HW216935  12.743   6.340  12.254  0.5452  2.5038  1.4458
 3274SOL     OW16936   3.690   6.910  12.257 -0.2164  0.2042 -0.4742
 3274SOL    HW116937   3.769   6.861  12.280  1.1429  0.9266 -3.0874
 3274SOL    HW216938   3.620   6.845  12.257  0.9002 -1.0350 -0.5809
 3275SOL     OW16939   9.511  10.624  10.120 -0.0137 -0.2562 -0.0276
 3275SOL    HW116940   9.471  10.670  10.194 -0.2220 -0.6271  0.0920
 3275SOL    HW216941   9.605  10.630  10.136 -0.0797 -1.0067  0.6777
 3276SOL     OW16942   6.864  10.536   1.301 -0.5167 -0.1581  0.1398
 3276SOL    HW116943   6.859  10.470   1.231 -1.5112  0.9815 -0.9153
 3276SOL    HW216944   6.933  10.504   1.359 -1.3721 -2.4423  0.0054
 3277SOL     OW16945  12.527   9.003   1.851 -0.5078 -0.8464  0.0049
 3277SOL    HW116946  12.434   8.986   1.866 -0.9552  1.8756  0.8232
 3277SOL    HW216947  12.564   9.014   1.939  0.5609 -1.5866 -0.3227
 3278SOL     OW16948   3.816   3.769   0.575  0.3571 -0.6282  0.5617
 3278SOL    HW116949   3.817   3.784   0.669 -0.9542 -0.3569  0.5547
 3278SOL    HW216950   3.884   3.826   0.540  0.4618 -0.3064  1.2890
 3279SOL     OW16951   9.668   4.280   4.011  0.1509  0.5076  0.0461
 3279SOL    HW116952   9.718   4.263   4.091 -0.1709 -0.2059  0.1018
 3279SOL    HW216953   9.584   4.313   4.042 -0.3098 -0.6159  0.0546
 3280SOL     OW16954   7.033   0.976   9.286 -0.3843 -0.0338 -0.4404
 3280SOL    HW116955   7.021   1.063   9.247  1.6285 -0.1844 -1.5475
 3280SOL    HW216956   7.099   0.990   9.355 -0.8710 -0.5067  0.1296
 3281SOL     OW16957   1.677   4.359   4.651  0.1793  0.2499 -0.1321
 3281SOL    HW116958   1.647   4.268   4.657 -1.5686  0.7472 -0.5511
 3281SOL    HW216959   1.596   4.411   4.648  1.1290  1.8356  0.1991
 3282SOL     OW16960   7.662  10.158   5.351 -0.3755 -0.2460  0.3476
 3282SOL    HW116961   7.678  10.068   5.322  0.0596  0.3301 -1.3200
 3282SOL    HW216962   7.749  10.198   5.352 -0.8345  1.0453 -2.2197
 3283SOL     OW16963   9.330   1.636   3.633  0.4813  0.0944 -0.3138
 3283SOL    HW116964   9.424   1.655   3.639  0.3612  0.7874 -0.5091
 3283SOL    HW216965   9.297   1.700   3.570 -0.0309 -0.4978 -0.6572
 3284SOL     OW16966   1.715  11.964   7.150  0.0215 -0.1683  0.1416
 3284SOL    HW116967   1.737  11.934   7.062 -0.5273 -0.0084 -0.0588
 3284SOL    HW216968   1.648  11.902   7.180  0.9450 -0.8373  0.8573
 3285SOL     OW16969  12.921   1.975  12.579  0.2477  0.6974 -0.1924
 3285SOL    HW116970  12.944   1.997  12.489 -2.1312 -0.1068 -1.0895
 3285SOL    HW216971  12.857   2.041  12.605 -0.9293 -0.4490 -0.0315
 3286SOL     OW16972   1.749   7.649   3.533  0.4901  0.9953  0.1567
 3286SOL    HW116973   1.831   7.662   3.580  0.4289  0.4507  0.4224
 3286SOL    HW216974   1.687   7.708   3.575  0.3448  0.2554  1.0031
 3287SOL     OW16975  12.310   7.214   9.281  0.0474  0.2513  0.4333
 3287SOL    HW116976  12.298   7.235   9.374 -0.0177 -0.7544  0.6676
 3287SOL    HW216977  12.403   7.190   9.274 -0.4763 -2.1759  0.8033
 3288SOL     OW16978   5.888  11.219   3.043  0.8657  0.5200  0.2696
 3288SOL    HW116979   5.945  11.264   3.105  0.9574 -0.8867  1.2394
 3288SOL    HW216980   5.938  11.141   3.017 -0.7359 -0.9388  1.4180
 3289SOL     OW16981  11.734   6.241  12.190 -0.0225 -0.4379  0.0382
 3289SOL    HW116982  11.814   6.201  12.223  1.5533 -0.2688 -3.1721
 3289SOL    HW216983  11.764   6.300  12.120 -2.8920  0.3755 -0.6402
 3290SOL     OW16984   8.724   5.136   8.989  0.0027  0.2276 -0.0308
 3290SOL    HW116985   8.689   5.046   8.991 -0.4647  0.4158  1.6190
 3290SOL    HW216986   8.694   5.171   8.905 -0.9622 -0.7300 -0.1103
 3291SOL     OW16987   9.918  12.783   0.639 -0.2233  0.1334  1.0075
 3291SOL    HW116988  10.004  12.820   0.622  0.1857 -0.9034  0.7252
 3291SOL    HW216989   9.856  12.847   0.604  0.4883 -0.0355 -0.6317
 3292SOL     OW16990   6.588  10.849   8.806  0.4313  0.1859  0.2752
 3292SOL    HW116991   6.682  10.827   8.806 -0.0040 -2.0994  2.3496
 3292SOL    HW216992   6.580  10.920   8.869  0.6323 -0.5877  1.2033
 3293SOL     OW16993   1.987   8.801   6.362  0.2646 -0.2529 -1.1093
 3293SOL    HW116994   1.956   8.885   6.328 -0.5271 -1.3334 -3.2876
 3293SOL    HW216995   1.907   8.753   6.384  0.7091 -0.3853  0.2967
 3294SOL     OW16996   4.971   1.864   9.323  0.0323  0.3384 -0.2112
 3294SOL    HW116997   4.985   1.946   9.275  0.3809  0.0629 -0.5893
 3294SOL    HW216998   4.915   1.888   9.396 -1.1912  0.6196 -1.2216
 3295SOL     OW16999   4.237   7.516   6.410  0.1514  0.3343 -0.3117
 3295SOL    HW117000   4.145   7.510   6.386  0.1674  1.3577 -0.6486
 3295SOL    HW217001   4.247   7.603   6.448  0.9503  0.1787 -0.1409
 3296SOL     OW17002  11.033   1.027  10.644  0.0223 -0.1871  0.8491
 3296SOL    HW117003  10.985   0.949  10.618  0.7510 -0.5290  0.5065
 3296SOL    HW217004  10.972   1.099  10.630 -0.6915 -0.6998  1.2638
 3297SOL     OW17005   9.249   3.121   0.149 -0.2962 -0.0369  0.2693
 3297SOL    HW117006   9.164   3.135   0.108 -0.9166 -1.3539  1.0641
 3297SOL    HW217007   9.305   3.089   0.079 -0.8621 -0.5709  0.0603
 3298SOL     OW17008   8.099   6.980  10.773  0.5076  0.1353 -0.0747
 3298SOL    HW117009   8.157   6.929  10.716  0.8471  0.5277 -0.0888
 3298SOL    HW217010   8.044   7.030  10.713 -0.9905 -1.4494 -0.0970
 3299SOL     OW17011   9.489   4.407   2.462 -0.8931 -0.2023  0.0902
 3299SOL    HW117012   9.471   4.323   2.503 -1.4374  0.3329  1.0001
 3299SOL    HW217013   9.563   4.443   2.512  0.4685 -0.8557 -1.3796
 3300SOL     OW17014   7.751   8.800   5.691 -0.0020  0.4560 -0.1142
 3300SOL    HW117015   7.819   8.746   5.731 -0.5065  0.2651  0.5189
 3300SOL    HW217016   7.781   8.816   5.602  0.2285 -0.7570 -0.2732
 3301SOL     OW17017   0.238  10.386   6.990 -0.2121  0.0825  0.1484
 3301SOL    HW117018   0.194  10.463   6.954 -0.8882  0.2368  1.2433
 3301SOL    HW217019   0.301  10.421   7.053  1.0787 -0.1743 -0.9597
 3302SOL     OW17020   6.199  10.120   7.859 -0.1687  0.2460  0.4941
 3302SOL    HW117021   6.185  10.032   7.823 -0.8195  1.0227 -1.2743
 3302SOL    HW217022   6.290  10.119   7.890  0.8401 -0.2167 -2.1956
 3303SOL     OW17023   7.257  10.133  11.829 -0.6523  0.0437 -0.1623
 3303SOL    HW117024   7.314  10.060  11.802 -0.6289  0.0613 -0.1597
 3303SOL    HW217025   7.288  10.208  11.778 -0.7357  0.0312 -0.2330
 3304SOL     OW17026   0.490  11.376   1.280  0.1678  0.2339  0.2225
 3304SOL    HW117027   0.434  11.360   1.355 -0.5658  0.2871 -0.3073
 3304SOL    HW217028   0.548  11.300   1.276 -1.3548 -0.9200 -0.5490
 3305SOL     OW17029   9.293   8.373   5.686 -0.4669 -0.6524  0.3654
 3305SOL    HW117030   9.247   8.443   5.641 -0.3740 -1.7645 -1.5538
 3305SOL    HW217031   9.367   8.416   5.729 -0.3317  0.4136 -0.8679
 3306SOL     OW17032  12.799   6.206   5.707 -0.1316  0.2643  0.2687
 3306SOL    HW117033  12.763   6.229   5.792 -1.9920  0.9059 -0.6344
 3306SOL    HW217034  12.885   6.248   5.705  1.2151 -2.0870  2.8586
 3307SOL     OW17035  11.702   0.993  10.109 -0.2200 -0.4446  0.2040
 3307SOL    HW117036  11.652   0.948  10.040  1.1803  0.9607 -1.8483
 3307SOL    HW217037  11.712   1.082  10.077  1.4019 -0.0147  1.7641
 3308SOL     OW17038   3.762  10.413  12.139 -0.7142  0.1370 -0.5713
 3308SOL    HW117039   3.817  10.490  12.146 -1.1292  0.2583  2.6188
 3308SOL    HW217040   3.779  10.379  12.051  3.5214  0.8184 -0.1898
 3309SOL     OW17041  11.732   1.796   3.442  0.3522 -0.0187 -0.4147
 3309SOL    HW117042  11.727   1.791   3.538 -1.1476 -0.1726 -0.4754
 3309SOL    HW217043  11.671   1.728   3.411 -0.6931  1.3251 -1.4479
 3310SOL     OW17044   7.460   6.068   1.246 -1.0464 -0.7545  0.5774
 3310SOL    HW117045   7.433   6.036   1.160 -1.8320  1.4085 -0.0250
 3310SOL    HW217046   7.398   6.137   1.267  0.2740  0.0454  2.0417
 3311SOL     OW17047   2.658   9.403  11.572  0.2024 -0.2472  0.3028
 3311SOL    HW117048   2.628   9.355  11.494 -0.9864 -0.5335  0.8999
 3311SOL    HW217049   2.753   9.395  11.571  0.4971  2.1214 -2.6240
 3312SOL     OW17050   8.336   8.521   9.450  0.4544  0.8954  0.5881
 3312SOL    HW117051   8.315   8.453   9.515 -1.6727  0.1935 -0.7597
 3312SOL    HW217052   8.362   8.596   9.503  0.2217 -0.1033  2.2162
 3313SOL     OW17053   6.406   0.960   6.698  0.0194 -0.4085 -0.5696
 3313SOL    HW117054   6.368   0.883   6.656  1.4836 -1.0879 -0.7155
 3313SOL    HW217055   6.461   0.999   6.630  2.4704 -1.5480  0.6137
 3314SOL     OW17056   9.610   6.989   7.825  0.7327 -0.2917  0.3610
 3314SOL    HW117057   9.656   6.999   7.742  1.4196 -2.7242  0.3684
 3314SOL    HW217058   9.678   6.959   7.886 -0.0910 -0.1409  1.3748
 3315SOL     OW17059   0.277   2.066   6.183  1.1014 -0.3352 -0.2915
 3315SOL    HW117060   0.321   1.986   6.155  2.1393  0.4429 -0.9445
 3315SOL    HW217061   0.334   2.103   6.249  1.9976  1.1904 -1.8432
 3316SOL     OW17062   6.567  12.214  10.006 -0.1365 -0.3970  0.0887
 3316SOL    HW117063   6.580  12.279  10.074  1.2185  0.1098 -0.6149
 3316SOL    HW217064   6.569  12.130  10.053 -0.0804 -0.0228  0.7723
 3317SOL     OW17065   6.677   1.994   4.447 -0.3436 -0.1166 -0.2142
 3317SOL    HW117066   6.692   1.962   4.358 -2.6020  1.2588 -1.1976
 3317SOL    HW217067   6.714   2.083   4.447 -2.5675  0.8851 -0.6972
 3318SOL     OW17068  12.514  10.191   4.512  0.0617  0.5274 -0.1484
 3318SOL    HW117069  12.563  10.111   4.529 -2.3694 -0.8579  0.7982
 3318SOL    HW217070  12.548  10.254   4.576  2.0125  0.3036 -0.9210
 3319SOL     OW17071   0.495  11.139   4.084 -0.4749  0.2099  0.1055
 3319SOL    HW117072   0.561  11.150   4.016 -0.7238  0.2086 -0.1380
 3319SOL    HW217073   0.418  11.106   4.037 -0.7234  0.4412  0.3516
 3320SOL     OW17074   0.727  10.326  10.630  0.3389  0.1227 -0.1600
 3320SOL    HW117075   0.721  10.335  10.535  0.5483  0.0235 -0.1837
 3320SOL    HW217076   0.642  10.291  10.656 -0.5097  2.1496 -0.0677
 3321SOL     OW17077   7.546  10.553  10.283  0.3278 -0.6356  0.2168
 3321SOL    HW117078   7.556  10.575  10.191 -1.2199 -1.6638 -0.2294
 3321SOL    HW217079   7.627  10.584  10.324  0.7026  0.5347 -1.3333
 3322SOL     OW17080   1.999  11.007   1.300  0.1203  0.1173 -0.2544
 3322SOL    HW117081   1.907  10.991   1.280  0.6863 -0.6263 -2.6615
 3322SOL    HW217082   2.012  11.100   1.281  0.1092 -0.0611 -1.2262
 3323SOL     OW17083   0.353  10.527   6.041  0.4333 -0.0418 -0.2898
 3323SOL    HW117084   0.423  10.522   6.106  0.5498 -1.2788 -0.4867
 3323SOL    HW217085   0.272  10.532   6.093  0.6565  2.2261 -0.0515
 3324SOL     OW17086  12.845   5.409   2.542  0.4799 -0.0491 -0.6721
 3324SOL    HW117087  12.907   5.390   2.612 -2.2981  0.5726  2.2409
 3324SOL    HW217088  12.867   5.498   2.514 -0.0799  0.8496  1.5612
 3325SOL     OW17089   7.771   9.649  12.326 -0.6505  0.3730  0.3181
 3325SOL    HW117090   7.849   9.696  12.297  1.0637  0.0852  3.8819
 3325SOL    HW217091   7.726   9.710  12.384 -1.7121 -0.3351  0.2663
 3326SOL     OW17092   7.029   3.774   0.608 -0.3559  0.2592  0.1477
 3326SOL    HW117093   7.059   3.766   0.518  0.9195 -0.2906  0.5989
 3326SOL    HW217094   6.983   3.693   0.625 -0.9056  0.5116 -0.1082
 3327SOL     OW17095   8.645   8.714   6.539 -0.2476 -0.7108 -0.0018
 3327SOL    HW117096   8.628   8.750   6.452 -0.2116  1.1205  0.7114
 3327SOL    HW217097   8.566   8.735   6.589 -0.5391 -2.3205  0.2615
 3328SOL     OW17098   6.447   6.091   1.522  0.4733 -0.0804 -0.4911
 3328SOL    HW117099   6.404   6.071   1.439 -0.5368  1.8967 -0.4894
 3328SOL    HW217100   6.537   6.115   1.497  0.4139 -0.2802 -0.9147
 3329SOL     OW17101   5.999   4.086   1.218 -0.4753 -0.5585 -0.1988
 3329SOL    HW117102   6.075   4.143   1.231 -1.0097 -0.0355  0.7521
 3329SOL    HW217103   6.024   4.004   1.259 -0.4701 -0.3467  0.2248
 3330SOL     OW17104   2.741   1.423  12.376 -0.4775  0.0010 -0.2269
 3330SOL    HW117105   2.675   1.356  12.398  0.6279 -0.8425  0.6168
 3330SOL    HW217106   2.689   1.500  12.354 -1.7719 -0.8555 -0.3224
 3331SOL     OW17107   6.162   2.495   2.304  0.3098  0.0318 -0.0820
 3331SOL    HW117108   6.252   2.526   2.313  0.6147 -0.2211 -1.9403
 3331SOL    HW217109   6.121   2.555   2.242 -0.7807  0.0671  0.6395
 3332SOL     OW17110   3.096   9.190   0.675  0.0342  0.0015  0.4560
 3332SOL    HW117111   3.165   9.124   0.666 -0.0087  0.1593 -1.2263
 3332SOL    HW217112   3.143   9.271   0.695  0.0735 -0.5224  2.7689
 3333SOL     OW17113   4.635   7.553   6.996 -0.2032 -0.3305  0.5152
 3333SOL    HW117114   4.562   7.510   6.952 -1.9773  0.6660  2.3127
 3333SOL    HW217115   4.597   7.632   7.035  1.9545  0.4867  1.0974
 3334SOL     OW17116   6.735   5.702   7.933 -0.0525  0.1875  0.6810
 3334SOL    HW117117   6.660   5.696   7.874 -0.1668  1.1678  0.7014
 3334SOL    HW217118   6.754   5.612   7.958 -1.1969 -0.0784  0.6408
 3335SOL     OW17119   5.913  12.864   6.061  0.0588 -0.0466  0.2922
 3335SOL    HW117120   5.893  12.956   6.051  1.7354  0.3551  0.2540
 3335SOL    HW217121   5.829  12.819   6.052 -0.8175  1.4768  0.5554
 3336SOL     OW17122   4.887   5.278  12.714  0.9712  0.4369 -0.3834
 3336SOL    HW117123   4.980   5.301  12.721  1.2117 -0.2451 -1.1768
 3336SOL    HW217124   4.869   5.224  12.792  1.4738 -0.1648 -0.6748
 3337SOL     OW17125   9.850   2.987   1.144 -0.2992 -0.5323  0.3565
 3337SOL    HW117126   9.804   2.939   1.075 -0.1956 -1.0616  0.6513
 3337SOL    HW217127   9.885   3.064   1.100 -1.6297 -0.0201  0.1619
 3338SOL     OW17128  12.372   2.539  12.779 -0.0017  0.3484 -0.4333
 3338SOL    HW117129  12.392   2.632  12.765  0.6456  0.4831  1.1918
 3338SOL    HW217130  12.290   2.525  12.731  0.5933  1.3950 -1.8388
 3339SOL     OW17131   6.235   6.438   5.804 -0.3917 -0.0662  0.3427
 3339SOL    HW117132   6.330   6.432   5.797 -0.1697  3.2775 -2.6356
 3339SOL    HW217133   6.202   6.374   5.742  0.1104  0.8117 -0.8676
 3340SOL     OW17134   8.447   8.983   6.028 -0.3778 -0.5389 -0.0257
 3340SOL    HW117135   8.477   9.028   5.949  0.8382  0.4717  0.9645
 3340SOL    HW217136   8.525   8.942   6.064 -0.7548 -0.3627  1.0348
 3341SOL     OW17137   4.333  12.633   1.799  0.2153  0.5340  0.4482
 3341SOL    HW117138   4.409  12.575   1.799 -1.3231 -1.6329  1.5039
 3341SOL    HW217139   4.302  12.631   1.709 -0.8926 -1.9346  0.7948
 3342SOL     OW17140   9.536   4.192  10.489 -0.2356 -0.0361  0.1263
 3342SOL    HW117141   9.440   4.186  10.494 -0.2082 -2.2746 -0.8221
 3342SOL    HW217142   9.561   4.245  10.564 -2.3158  2.0665 -0.5409
 3343SOL     OW17143   1.025   0.559   5.322 -0.1346 -0.2977 -0.3424
 3343SOL    HW117144   1.025   0.476   5.274  2.5839  0.0061 -1.0651
 3343SOL    HW217145   1.008   0.625   5.255 -0.8429 -0.1767 -0.0421
 3344SOL     OW17146   3.764   8.537  11.493  0.2422  0.4157  0.2351
 3344SOL    HW117147   3.726   8.464  11.444 -0.9343  1.2302 -0.1240
 3344SOL    HW217148   3.791   8.599  11.427  1.3262  0.2773  0.5370
 3345SOL     OW17149   5.191   7.623   5.842 -0.5615 -0.2126 -0.2493
 3345SOL    HW117150   5.223   7.713   5.837  1.1892 -0.7934 -0.1118
 3345SOL    HW217151   5.270   7.569   5.847 -1.5307 -1.8382 -1.3805
 3346SOL     OW17152  12.787   8.111   0.741  0.4508  0.3042  0.0163
 3346SOL    HW117153  12.714   8.050   0.754 -0.1405  1.0521  0.2296
 3346SOL    HW217154  12.745   8.196   0.725  1.2815  1.0635  1.6760
 3347SOL     OW17155   4.300   3.499  11.119  0.4361 -0.4115  0.6171
 3347SOL    HW117156   4.257   3.571  11.074  1.9859  0.3899  0.3228
 3347SOL    HW217157   4.240   3.474  11.189 -0.1452  1.1922  0.7380
 3348SOL     OW17158   8.034   7.959   9.830  0.2448  0.1400  0.3922
 3348SOL    HW117159   8.050   8.042   9.874  0.1860 -0.0290  0.7369
 3348SOL    HW217160   8.018   7.896   9.901  0.4812 -0.2068  0.1441
 3349SOL     OW17161   6.306   2.315   7.878  0.0491 -0.2585  0.0813
 3349SOL    HW117162   6.264   2.329   7.793 -0.5808  0.3483  0.4827
 3349SOL    HW217163   6.250   2.361   7.941  1.3632  0.6491  0.6370
 3350SOL     OW17164   5.184   2.385  11.546 -0.0627 -0.1550 -0.4124
 3350SOL    HW117165   5.236   2.332  11.486  0.8247  0.6828 -0.3956
 3350SOL    HW217166   5.192   2.474  11.513 -3.8921 -0.2528 -2.1969
 3351SOL     OW17167   6.218  12.398   6.694 -0.0783  0.0153 -0.0117
 3351SOL    HW117168   6.297  12.452   6.692  0.1697 -0.3409  0.2202
 3351SOL    HW217169   6.221  12.352   6.777  0.6785 -1.7952 -0.9877
 3352SOL     OW17170   3.555   1.270   5.008 -0.3329 -0.1726  0.1893
 3352SOL    HW117171   3.640   1.302   5.039  0.0059  0.1281 -0.9893
 3352SOL    HW217172   3.577   1.200   4.946 -0.8339  1.1674 -1.5852
 3353SOL     OW17173   8.355   8.987   6.887 -0.2600  0.0430 -0.3662
 3353SOL    HW117174   8.380   9.059   6.946  0.7023 -1.2661  0.8970
 3353SOL    HW217175   8.428   8.979   6.826  1.2766 -1.9430  1.5681
 3354SOL     OW17176   4.074  11.789   9.702 -0.0504 -0.2884 -0.0719
 3354SOL    HW117177   4.064  11.728   9.774  1.3317 -0.2648  0.1503
 3354SOL    HW217178   4.107  11.737   9.629 -1.5129 -0.3308 -0.7528
 3355SOL     OW17179  11.096   3.818   0.652 -0.9925 -0.0419 -0.2208
 3355SOL    HW117180  11.112   3.817   0.558  1.1035 -1.0186  0.0762
 3355SOL    HW217181  11.149   3.745   0.686  1.0577  2.2944  2.0613
 3356SOL     OW17182  11.106   7.334  12.371  0.4067  0.1161 -0.1836
 3356SOL    HW117183  11.137   7.245  12.352 -1.6331 -0.6604 -0.1375
 3356SOL    HW217184  11.045   7.354  12.300 -1.2910  0.3220  1.2560
 3357SOL     OW17185   2.663   4.227   4.057 -0.5749 -0.1659  0.5680
 3357SOL    HW117186   2.704   4.255   4.139 -0.8654  5.0973 -0.7096
 3357SOL    HW217187   2.736   4.216   3.997 -0.4355  3.7036 -0.2457
 3358SOL     OW17188   2.365   3.849   5.547  0.3944 -0.4016 -0.2804
 3358SOL    HW117189   2.311   3.885   5.617  0.4083 -1.0641  0.0788
 3358SOL    HW217190   2.374   3.756   5.568  2.2546 -0.1812  0.0597
 3359SOL     OW17191  11.990   3.935   3.302 -0.1101 -0.2084 -0.1663
 3359SOL    HW117192  11.974   4.012   3.247 -1.1420 -0.4506 -0.2367
 3359SOL    HW217193  12.029   3.871   3.242 -0.6164 -0.2432 -0.4664
 3360SOL     OW17194  10.707   8.897   8.686 -0.2318 -0.7043  0.2925
 3360SOL    HW117195  10.646   8.904   8.612  0.0688  1.8865  0.2049
 3360SOL    HW217196  10.652   8.867   8.759 -0.5981 -2.9876 -0.8225
 3361SOL     OW17197   3.820   3.794  12.746 -0.1755 -0.0316 -0.2525
 3361SOL    HW117198   3.894   3.783  12.686 -0.9598  0.5371 -1.3642
 3361SOL    HW217199   3.798   3.887  12.740  0.5212  0.3274  1.9162
 3362SOL     OW17200   0.361   7.622   2.123  0.1041 -0.1131  0.3564
 3362SOL    HW117201   0.308   7.691   2.084 -0.0178 -0.5880 -0.3400
 3362SOL    HW217202   0.412   7.667   2.191 -0.6741  0.4719  0.5723
 3363SOL     OW17203   0.702   3.457   0.669  0.1413 -0.8635 -0.9779
 3363SOL    HW117204   0.748   3.530   0.711 -1.1973  0.6161 -1.9606
 3363SOL    HW217205   0.754   3.437   0.592  0.3571 -0.7299 -0.8672
 3364SOL     OW17206   3.508   3.585  10.321  0.2723 -0.6978 -0.3555
 3364SOL    HW117207   3.442   3.519  10.298  0.9660 -1.5144 -0.0190
 3364SOL    HW217208   3.585   3.562  10.269  0.2105  0.4489 -0.9940
 3365SOL     OW17209  11.777   7.958   1.466 -0.1725 -0.1633 -0.2878
 3365SOL    HW117210  11.696   7.907   1.464 -0.8903  0.9723 -0.9259
 3365SOL    HW217211  11.749   8.049   1.469  1.0691  0.3001 -1.5491
 3366SOL     OW17212   6.941   2.234  11.594  0.2058 -0.6712  0.0731
 3366SOL    HW117213   6.870   2.254  11.533 -0.4586 -0.3303  0.9441
 3366SOL    HW217214   7.013   2.205  11.538 -0.2215  0.1163 -0.9138
 3367SOL     OW17215   9.496   1.118   6.970 -0.0414  0.3187  0.5875
 3367SOL    HW117216   9.527   1.032   6.941  1.2645  1.1242 -0.4544
 3367SOL    HW217217   9.551   1.181   6.925  0.1347  1.7053  2.5999
 3368SOL     OW17218  10.463  12.172   6.299  0.2001  0.1321 -0.2536
 3368SOL    HW117219  10.436  12.160   6.208 -0.2443 -0.8711  0.0048
 3368SOL    HW217220  10.431  12.095   6.345 -0.6734  1.1915  1.0062
 3369SOL     OW17221  12.469  11.129   4.571 -0.0351  0.3155  0.1621
 3369SOL    HW117222  12.402  11.180   4.527  0.7905  1.3072  0.0246
 3369SOL    HW217223  12.489  11.058   4.510 -0.2292  0.6055 -0.2382
 3370SOL     OW17224   3.971   5.553   1.803 -0.1753 -0.0089  0.0419
 3370SOL    HW117225   3.876   5.541   1.807 -0.1973  0.4775  2.0090
 3370SOL    HW217226   3.984   5.628   1.746 -1.0942  0.8742  0.9654
 3371SOL     OW17227   4.951  10.102   6.215  0.1735  0.0084  0.4026
 3371SOL    HW117228   4.983  10.192   6.214 -0.6677  0.3362 -1.2596
 3371SOL    HW217229   5.028  10.048   6.233  0.8845  0.9997  0.3828
 3372SOL     OW17230   7.559   6.826   7.213 -0.0870  0.7088 -0.1647
 3372SOL    HW117231   7.507   6.862   7.142 -1.1336 -0.3376  0.0491
 3372SOL    HW217232   7.605   6.751   7.175  0.4320  0.9736 -0.0761
 3373SOL     OW17233   2.558   3.369   7.633  0.2683 -0.8219 -0.0663
 3373SOL    HW117234   2.567   3.329   7.720 -1.4779 -2.1073 -0.4327
 3373SOL    HW217235   2.474   3.338   7.601  0.0324  1.1191 -1.4881
 3374SOL     OW17236   7.820   0.355   0.660 -0.6727 -0.5102 -0.3381
 3374SOL    HW117237   7.776   0.390   0.737  0.6929 -2.0924  1.2470
 3374SOL    HW217238   7.846   0.432   0.610  2.2334  0.9005  2.9731
 3375SOL     OW17239   6.909   2.778  12.354 -1.0991  0.6281  0.1089
 3375SOL    HW117240   7.001   2.752  12.347 -0.5877  1.8304  1.6248
 3375SOL    HW217241   6.883   2.799  12.265 -0.2564 -0.8278 -0.5031
 3376SOL     OW17242   2.835   2.703   1.919 -0.3849  0.6131 -0.1592
 3376SOL    HW117243   2.885   2.636   1.872  0.9271  2.2796 -1.2749
 3376SOL    HW217244   2.745   2.692   1.888 -0.1904 -0.6078 -0.3348
 3377SOL     OW17245   7.703   6.629  10.675 -0.4135  0.5088 -0.1475
 3377SOL    HW117246   7.629   6.585  10.717  0.2301 -0.9653 -0.5179
 3377SOL    HW217247   7.718   6.707  10.729 -0.4436 -0.6463  1.5950
 3378SOL     OW17248  11.303   6.351   2.806  0.0068  0.6719  0.5165
 3378SOL    HW117249  11.305   6.264   2.765 -3.7745  1.3377 -1.5797
 3378SOL    HW217250  11.336   6.409   2.738  0.6250  1.1102  1.1792
 3379SOL     OW17251   3.344   1.179   7.774 -0.0003  0.1470 -0.0056
 3379SOL    HW117252   3.282   1.220   7.834 -1.8681 -0.5949 -1.2934
 3379SOL    HW217253   3.317   1.210   7.688 -1.0143 -2.9659 -0.9671
 3380SOL     OW17254   8.487   1.876   5.170 -0.2170  0.1324  0.3176
 3380SOL    HW117255   8.487   1.792   5.123  0.2578  0.1373  0.3085
 3380SOL    HW217256   8.450   1.856   5.256  1.2463 -0.3851  0.8446
 3381SOL     OW17257   2.168   3.145  11.929  0.4913  0.1203 -0.1499
 3381SOL    HW117258   2.170   3.056  11.893 -0.0266  0.5181 -1.1979
 3381SOL    HW217259   2.216   3.198  11.866 -2.0347  1.1770 -1.3603
 3382SOL     OW17260   5.062   9.050   8.775 -0.5327 -0.4756  0.0861
 3382SOL    HW117261   5.148   9.057   8.733 -0.3995 -2.3656 -0.0244
 3382SOL    HW217262   5.002   9.036   8.702 -0.8708  0.3053  0.2087
 3383SOL     OW17263   9.343   1.210   9.360  0.0534  0.1943 -0.1361
 3383SOL    HW117264   9.342   1.303   9.336 -1.2352 -0.1735 -1.7561
 3383SOL    HW217265   9.295   1.167   9.289  2.0753 -1.9467 -0.3256
 3384SOL     OW17266  11.276   3.073  11.459  0.2331  0.2286  0.3770
 3384SOL    HW117267  11.300   3.143  11.399  1.6596 -0.6354 -0.1241
 3384SOL    HW217268  11.359   3.047  11.500 -0.2388 -1.1714  0.5104
 3385SOL     OW17269   5.027   0.346   3.482  0.1345  0.0745 -0.0829
 3385SOL    HW117270   5.108   0.358   3.433 -0.1608  0.4369 -0.4925
 3385SOL    HW217271   4.991   0.264   3.449  0.2724 -0.0217  0.0071
 3386SOL     OW17272  10.494   1.650   7.854  0.4077 -0.9419 -0.2726
 3386SOL    HW117273  10.489   1.684   7.943 -1.1868 -3.2417  0.6390
 3386SOL    HW217274  10.404   1.623   7.834  0.6933 -0.3934 -2.6680
 3387SOL     OW17275   9.424   2.630   3.980 -0.0578 -0.8134  0.1571
 3387SOL    HW117276   9.463   2.717   3.967 -2.0309 -0.1403 -1.9471
 3387SOL    HW217277   9.414   2.595   3.892  1.4296 -3.6300  0.9734
 3388SOL     OW17278   9.137   8.690   4.596  0.4468 -0.0789 -0.6356
 3388SOL    HW117279   9.143   8.729   4.683  0.2068 -3.3456  0.9927
 3388SOL    HW217280   9.106   8.761   4.540 -0.0430  1.9801  2.0541
 3389SOL     OW17281   5.075   4.831  12.235 -0.5495  0.2068  0.3332
 3389SOL    HW117282   5.166   4.838  12.265 -0.4050  1.3970 -0.3193
 3389SOL    HW217283   5.082   4.796  12.146 -0.9274 -2.4231  1.2442
 3390SOL     OW17284  10.857   2.095   8.262  0.0514  0.1553 -0.3544
 3390SOL    HW117285  10.831   2.010   8.226 -0.8485 -0.1852  1.0255
 3390SOL    HW217286  10.777   2.146   8.263  0.2655  0.4896  0.2264
 3391SOL     OW17287   0.356  11.733   1.522 -0.1083  0.2568  0.0525
 3391SOL    HW117288   0.437  11.704   1.481 -0.4606  0.0539 -0.5193
 3391SOL    HW217289   0.371  11.721   1.616  0.4051 -0.0798 -0.0659
 3392SOL     OW17290   9.987  12.135   4.929  0.1994  0.8503 -0.0687
 3392SOL    HW117291   9.984  12.058   4.986  2.3472  0.8681  0.1367
 3392SOL    HW217292  10.080  12.146   4.908 -0.4899  0.5244 -4.0548
 3393SOL     OW17293  11.229  12.139   2.221 -0.6755  0.4301 -0.0468
 3393SOL    HW117294  11.237  12.068   2.284 -0.2972 -0.1386 -0.7111
 3393SOL    HW217295  11.247  12.097   2.136 -0.0937  1.3907 -0.4077
 3394SOL     OW17296   6.893  12.262  12.441  0.5131  0.2992 -0.1788
 3394SOL    HW117297   6.806  12.268  12.402 -0.1029  0.2723  1.1061
 3394SOL    HW217298   6.899  12.339  12.497  1.8159  0.9407 -1.1555
 3395SOL     OW17299   9.976  11.860   8.926  0.2219 -0.0614 -0.3604
 3395SOL    HW117300  10.051  11.913   8.952  0.0601  0.2442 -0.5085
 3395SOL    HW217301  10.011  11.772   8.916  0.8139  0.2842 -1.5320
 3396SOL     OW17302   9.566   6.373   6.642 -0.2216 -0.0880  0.3730
 3396SOL    HW117303   9.642   6.315   6.649  0.7582  1.2358  1.2206
 3396SOL    HW217304   9.549   6.379   6.548 -1.2009 -2.7435  0.3058
 3397SOL     OW17305   5.710   2.349   1.476 -0.7024  0.2748 -0.6754
 3397SOL    HW117306   5.722   2.318   1.386  1.3991 -0.3717 -0.2301
 3397SOL    HW217307   5.788   2.319   1.522 -1.2204  1.5361  1.1263
 3398SOL     OW17308  12.874  12.714   8.243  0.0558 -0.4467 -0.1521
 3398SOL    HW117309  12.836  12.793   8.281  1.6449  0.7710 -0.9749
 3398SOL    HW217310  12.798  12.660   8.222 -1.1022  0.9299  0.2674
 3399SOL     OW17311   3.409  12.216   5.376 -0.3447 -0.0340 -0.3437
 3399SOL    HW117312   3.354  12.177   5.444  0.1553 -0.7151 -0.3100
 3399SOL    HW217313   3.421  12.146   5.312  1.2779 -0.2460  0.1396
 3400SOL     OW17314   7.600   6.270   9.038 -0.2885  0.5352  0.3956
 3400SOL    HW117315   7.696   6.275   9.031 -0.2635  0.4933  0.6959
 3400SOL    HW217316   7.579   6.180   9.015 -0.2721  0.5865  0.1713
 3401SOL     OW17317  12.287   3.849   5.812  0.0792 -0.2129 -0.3449
 3401SOL    HW117318  12.245   3.838   5.726  1.1619  0.1252 -0.9299
 3401SOL    HW217319  12.245   3.926   5.850 -0.6451 -0.5637 -0.4126
 3402SOL     OW17320   0.423   3.861   2.159  0.1848 -0.5508 -0.2446
 3402SOL    HW117321   0.401   3.792   2.222 -0.0990 -0.0791  0.1808
 3402SOL    HW217322   0.431   3.940   2.212  0.7619 -0.3013 -0.6966
 3403SOL     OW17323   9.638   3.412   5.889 -0.0155  0.1255  0.2972
 3403SOL    HW117324   9.675   3.327   5.864  0.5038  0.8257 -1.4529
 3403SOL    HW217325   9.570   3.429   5.824 -0.9803  0.5047  1.3720
 3404SOL     OW17326   4.127   3.496   3.048 -0.3640 -0.0820 -0.3049
 3404SOL    HW117327   4.110   3.544   3.129 -0.9220  0.1721 -0.5741
 3404SOL    HW217328   4.159   3.562   2.987 -2.5216  0.2629 -1.1420
 3405SOL     OW17329   8.250   2.407   1.888  0.7570 -0.5639  0.0936
 3405SOL    HW117330   8.159   2.435   1.877  1.1291  0.7242  0.1405
 3405SOL    HW217331   8.245   2.312   1.890 -0.3999 -0.5933 -1.6575
 3406SOL     OW17332   0.178  11.614   9.288 -0.0829  0.1349  0.3495
 3406SOL    HW117333   0.099  11.607   9.341 -1.0707  0.8153 -0.9769
 3406SOL    HW217334   0.236  11.545   9.321 -1.2720 -0.4557  1.2563
 3407SOL     OW17335   6.964   5.284   6.056  0.4337  0.5497  0.0945
 3407SOL    HW117336   6.976   5.265   6.149  1.0955 -0.8328 -0.2406
 3407SOL    HW217337   7.013   5.215   6.011 -2.8970 -1.1470 -1.3204
 3408SOL     OW17338   4.515  12.617   0.645  0.0127 -0.2122 -0.5360
 3408SOL    HW117339   4.595  12.618   0.592 -1.2424 -0.1030 -2.5447
 3408SOL    HW217340   4.546  12.599   0.734  2.2281 -0.4809 -1.2784
 3409SOL     OW17341   4.882  10.437   5.681  0.6018 -0.2007  0.1451
 3409SOL    HW117342   4.900  10.394   5.597  0.0268 -0.1608 -0.0067
 3409SOL    HW217343   4.786  10.436   5.687  0.6006  0.6561  0.3549
 3410SOL     OW17344  10.933   5.911   9.298  0.2137 -0.0353  0.0471
 3410SOL    HW117345  10.842   5.893   9.275 -0.0230  1.7165 -0.5160
 3410SOL    HW217346  10.951   5.852   9.371 -0.5452 -2.2611 -1.4362
 3411SOL     OW17347   5.532   3.671   6.889  0.2096 -0.0619 -0.0681
 3411SOL    HW117348   5.603   3.690   6.828 -0.6953  1.5200 -0.6961
 3411SOL    HW217349   5.456   3.655   6.833 -0.4134  0.4223  0.6128
 3412SOL     OW17350   7.877   0.072   7.366  0.2555  0.0485 -0.3450
 3412SOL    HW117351   7.951   0.054   7.423  0.1941 -0.2748 -0.3639
 3412SOL    HW217352   7.810   0.010   7.393 -0.5617  1.3252  0.6770
 3413SOL     OW17353  12.222  12.277   2.987  0.0764  0.1463 -0.4404
 3413SOL    HW117354  12.208  12.280   3.082 -0.9218 -1.1833 -0.5265
 3413SOL    HW217355  12.278  12.201   2.973 -2.2629 -1.5602 -1.1381
 3414SOL     OW17356   1.784   1.216  12.936  0.2801  0.7164 -0.1610
 3414SOL    HW117357   1.704   1.263  12.914  0.1310  0.5985  0.1355
 3414SOL    HW217358   1.853   1.266  12.893 -0.1702 -0.5345 -2.5055
 3415SOL     OW17359   8.613  10.491   8.895  0.1651  0.4351 -0.0610
 3415SOL    HW117360   8.529  10.446   8.886 -0.1814  1.1018 -0.1991
 3415SOL    HW217361   8.642  10.505   8.805  0.2170  0.5910 -0.0198
 3416SOL     OW17362   8.713  12.783   6.311 -0.5536 -0.0055 -0.2403
 3416SOL    HW117363   8.673  12.706   6.271 -1.4409  1.1296 -1.6457
 3416SOL    HW217364   8.643  12.824   6.363 -0.0304 -0.2430  0.6769
 3417SOL     OW17365   4.003  11.352  10.609 -0.4858  0.2790 -0.3179
 3417SOL    HW117366   3.981  11.311  10.693 -2.3273  0.9838 -0.4057
 3417SOL    HW217367   4.074  11.413  10.630  1.3413 -1.8739  0.0723
 3418SOL     OW17368   1.637   3.722   7.933 -0.0087  0.3765 -1.0046
 3418SOL    HW117369   1.573   3.761   7.873  0.5749 -0.0275 -1.9184
 3418SOL    HW217370   1.584   3.688   8.005 -0.5264  3.0259 -0.0380
 3419SOL     OW17371   8.493   3.942   3.093  0.3385 -0.1278  0.3310
 3419SOL    HW117372   8.548   3.913   3.166 -0.3897 -2.3756  0.0771
 3419SOL    HW217373   8.405   3.911   3.115 -0.1546  0.3607 -0.8432
 3420SOL     OW17374   6.094   7.446   8.289 -0.2633  0.1471  0.3117
 3420SOL    HW117375   6.005   7.434   8.256  0.1757 -0.4558 -0.6919
 3420SOL    HW217376   6.130   7.516   8.236 -0.0857  0.3009  0.6308
 3421SOL     OW17377   1.315   9.551  10.847  0.3619 -0.2949 -0.8293
 3421SOL    HW117378   1.275   9.631  10.813 -0.6781 -0.5798 -0.3253
 3421SOL    HW217379   1.287   9.547  10.938  1.9602 -0.2729 -0.3044
 3422SOL     OW17380   9.865   6.688   4.920 -0.3260  0.2583 -0.3008
 3422SOL    HW117381   9.790   6.629   4.913 -0.1399 -0.1050  0.5581
 3422SOL    HW217382   9.826   6.774   4.936 -0.5780 -0.1269  1.4214
 3423SOL     OW17383  10.894   1.287   9.864 -0.6699  0.4583 -0.0125
 3423SOL    HW117384  10.987   1.306   9.876 -0.1684 -2.3374  1.2747
 3423SOL    HW217385  10.849   1.358   9.911  0.6910  2.4822 -1.5917
 3424SOL     OW17386   9.397  12.427   9.152  0.0140 -0.1543 -0.0809
 3424SOL    HW117387   9.477  12.414   9.203  0.3019 -0.4418 -0.6029
 3424SOL    HW217388   9.327  12.423   9.217  0.3572 -0.8083  0.2626
 3425SOL     OW17389   9.434  10.449   5.363 -0.0442  0.2069  0.6584
 3425SOL    HW117390   9.416  10.528   5.414  0.9314  0.7786  0.1536
 3425SOL    HW217391   9.525  10.459   5.336  0.2552 -1.3451  1.0164
 3426SOL     OW17392   9.849   1.775   5.361 -0.1306  0.0293  0.4861
 3426SOL    HW117393   9.864   1.705   5.297  1.9700  0.3775  0.5255
 3426SOL    HW217394   9.770   1.818   5.331 -0.0498 -0.7871 -0.9968
 3427SOL     OW17395   9.536  10.773   2.617 -0.8499  0.5859 -0.2233
 3427SOL    HW117396   9.602  10.744   2.554 -0.6868 -1.0966  0.6943
 3427SOL    HW217397   9.453  10.748   2.577 -0.7032 -1.5036  0.6737
 3428SOL     OW17398   1.519   9.963  10.663 -0.1905  0.3056 -0.3441
 3428SOL    HW117399   1.448  10.022  10.685  0.2894  0.9080 -0.3954
 3428SOL    HW217400   1.599  10.012  10.684  0.2742  0.5245 -2.4305
 3429SOL     OW17401   1.047   2.030   4.425 -0.2600 -0.4797  0.1757
 3429SOL    HW117402   1.142   2.016   4.433 -0.0643  0.4538 -0.3721
 3429SOL    HW217403   1.035   2.122   4.448 -0.5867  0.3569 -2.8898
 3430SOL     OW17404   5.757   8.253  12.963  0.1957  0.3494  0.5139
 3430SOL    HW117405   5.761   8.322  12.897 -2.0764 -0.5140 -0.6311
 3430SOL    HW217406   5.770   8.172  12.914  1.2005 -0.1596  1.5850
 3431SOL     OW17407  11.473   1.817   7.300  0.4345  0.2640 -0.0675
 3431SOL    HW117408  11.402   1.859   7.253 -0.3827 -3.0356 -2.0533
 3431SOL    HW217409  11.475   1.727   7.267  3.5253 -0.6791  2.1838
 3432SOL     OW17410   6.473   3.937   0.823 -0.0313 -0.3825  0.2036
 3432SOL    HW117411   6.421   3.874   0.873  0.3240 -0.4125  0.5351
 3432SOL    HW217412   6.562   3.928   0.858  0.0876  0.0547  0.0124
 3433SOL     OW17413  12.813   4.838   9.225  0.5506  0.1438 -0.4359
 3433SOL    HW117414  12.735   4.884   9.196  0.6078  0.9139  0.5895
 3433SOL    HW217415  12.870   4.836   9.148  0.4286  1.5461 -0.5827
 3434SOL     OW17416   9.710   7.945  12.749 -0.1292  0.1193  0.3819
 3434SOL    HW117417   9.802   7.966  12.737  0.1096  0.0955  1.9905
 3434SOL    HW217418   9.706   7.850  12.750 -0.2035  0.1185  0.1575
 3435SOL     OW17419   3.886   6.563   9.483  0.5962  0.0148  0.0648
 3435SOL    HW117420   3.940   6.640   9.502  3.2123 -1.9700  1.3020
 3435SOL    HW217421   3.887   6.513   9.565 -1.1792 -1.2836 -0.6527
 3436SOL     OW17422   3.213   8.612   0.434 -0.0851  0.3592 -0.4829
 3436SOL    HW117423   3.190   8.680   0.372  2.1233  1.1587 -0.5196
 3436SOL    HW217424   3.190   8.530   0.391  0.7998  0.9296 -2.1060
 3437SOL     OW17425   8.337   1.138   6.331  0.1049  0.0575 -0.4581
 3437SOL    HW117426   8.254   1.144   6.283 -1.1349  0.5399  1.6396
 3437SOL    HW217427   8.380   1.223   6.315 -0.8591  0.6913  0.2565
 3438SOL     OW17428   9.938   0.365   5.881 -0.0674  0.0419  0.0449
 3438SOL    HW117429   9.927   0.403   5.968  0.1008 -0.6531  0.3798
 3438SOL    HW217430   9.958   0.273   5.898 -1.4094 -0.4195 -0.7637
 3439SOL     OW17431   5.410   1.296   1.470  0.2504  0.3697  0.3052
 3439SOL    HW117432   5.321   1.332   1.462  0.3084  0.3515 -0.5907
 3439SOL    HW217433   5.465   1.372   1.485 -0.0402  0.2625  2.1441
 3440SOL     OW17434   2.539  10.137  12.387  0.2327 -0.0917 -0.1199
 3440SOL    HW117435   2.491  10.089  12.319 -0.6872  0.1879  0.3154
 3440SOL    HW217436   2.584  10.206  12.340 -1.2939  0.8005 -0.3439
 3441SOL     OW17437   9.647   2.200   8.979  0.2993 -0.2210  0.2325
 3441SOL    HW117438   9.688   2.216   8.894 -0.2018 -1.0525 -0.1742
 3441SOL    HW217439   9.694   2.124   9.015 -0.1243 -0.4720  0.2670
 3442SOL     OW17440   7.260   3.308  12.498 -0.1154 -0.1483  0.8039
 3442SOL    HW117441   7.342   3.351  12.522 -0.4423  1.2186 -0.3936
 3442SOL    HW217442   7.210   3.304  12.580  0.0075  1.6127  0.9846
 3443SOL     OW17443   5.770   0.166   0.279 -0.0429 -0.4100 -0.4747
 3443SOL    HW117444   5.791   0.236   0.341 -0.5584  0.6175 -1.4205
 3443SOL    HW217445   5.802   0.086   0.321  1.2725  0.4787  0.2818
 3444SOL     OW17446   4.796  11.362   0.642 -0.5332 -0.0558 -0.1330
 3444SOL    HW117447   4.888  11.377   0.619 -0.8642 -0.4647 -1.7759
 3444SOL    HW217448   4.798  11.347   0.737  1.0195  0.4790 -0.0528
 3445SOL     OW17449  11.675   4.830   5.866  0.7617  0.1128  0.2466
 3445SOL    HW117450  11.701   4.837   5.774  0.8353  1.6201  0.3547
 3445SOL    HW217451  11.612   4.901   5.878  2.6948  1.6526  1.9907
 3446SOL     OW17452  12.295   6.756   3.166 -0.0968  0.4651  0.3040
 3446SOL    HW117453  12.202   6.735   3.162 -0.2262  0.7819  1.3062
 3446SOL    HW217454  12.302   6.817   3.239  1.0731 -0.5044  1.0286
 3447SOL     OW17455  10.155   6.890  12.028 -0.2680 -0.0184 -0.7561
 3447SOL    HW117456  10.238   6.874  12.072 -0.7871 -0.8892 -0.0509
 3447SOL    HW217457  10.136   6.808  11.981 -1.6351 -0.5830  0.6609
 3448SOL     OW17458   6.323   4.823  12.231  0.5821 -0.3755  0.3426
 3448SOL    HW117459   6.251   4.866  12.185  0.2567 -1.4576 -0.1718
 3448SOL    HW217460   6.392   4.890  12.236  0.5807 -0.1799 -1.5953
 3449SOL     OW17461  11.438   0.537   7.607 -0.5660  0.5859 -1.0826
 3449SOL    HW117462  11.382   0.547   7.685 -1.0567  1.9171 -1.5757
 3449SOL    HW217463  11.377   0.539   7.534 -0.1140 -0.7733 -1.5148
 3450SOL     OW17464   0.906   8.988   4.361 -0.0444 -0.5175  0.0631
 3450SOL    HW117465   0.919   8.938   4.442  1.6902 -0.9785 -0.4558
 3450SOL    HW217466   0.954   8.940   4.294  0.4157  1.0262 -0.7759
 3451SOL     OW17467  11.374   7.365   9.976  0.3333  0.5906  0.0971
 3451SOL    HW117468  11.372   7.406  10.062  1.7568 -2.0550  1.4957
 3451SOL    HW217469  11.464   7.334   9.966 -0.1600 -0.4148 -1.7130
 3452SOL     OW17470   7.676   9.985  11.206  0.2608  0.1377  0.0209
 3452SOL    HW117471   7.715  10.072  11.199 -0.1861  0.5590  2.2346
 3452SOL    HW217472   7.598   9.990  11.151 -1.1716  2.0247  2.0546
 3453SOL     OW17473   0.077  12.955   8.088  0.2527 -0.0223  0.8126
 3453SOL    HW117474   0.091  13.003   8.170 -0.8428 -0.2165  1.1374
 3453SOL    HW217475  -0.018  12.956   8.076  0.4250  0.4154 -0.7192
 3454SOL     OW17476  12.025   8.374   8.855  0.2044  0.2291 -0.7818
 3454SOL    HW117477  12.119   8.369   8.840  0.4791 -0.2648  0.8870
 3454SOL    HW217478  11.986   8.328   8.780  1.2752  0.4645 -1.5027
 3455SOL     OW17479   3.355  11.595   0.620 -0.6362  0.3150  0.3063
 3455SOL    HW117480   3.386  11.560   0.703 -1.0360 -0.4509  0.1359
 3455SOL    HW217481   3.334  11.518   0.567  0.7014  0.7598 -0.9349
 3456SOL     OW17482  11.014   6.917   4.626  0.3938 -0.2121  0.0756
 3456SOL    HW117483  10.998   6.871   4.544  1.5670 -1.6757  0.6083
 3456SOL    HW217484  10.990   7.008   4.609 -1.9537 -0.9858 -1.0387
 3457SOL     OW17485   7.714  10.254   4.355  0.4072  0.1984 -1.1428
 3457SOL    HW117486   7.643  10.210   4.308  1.0851 -1.6629 -0.5269
 3457SOL    HW217487   7.739  10.192   4.424  1.1521  1.7649  0.0563
 3458SOL     OW17488   6.538  10.520  12.589 -0.2791  0.0231  0.1750
 3458SOL    HW117489   6.604  10.479  12.644  0.7493  1.1124 -0.2129
 3458SOL    HW217490   6.517  10.453  12.523  0.5490 -0.2868  0.2141
 3459SOL     OW17491   1.507  10.399  10.583  0.1099 -0.3913  0.0267
 3459SOL    HW117492   1.454  10.321  10.599 -1.1719  0.7410  1.6343
 3459SOL    HW217493   1.510  10.444  10.667  0.0429  1.7626 -1.0558
 3460SOL     OW17494  10.571  12.221   4.469 -0.2217 -0.0164 -0.4605
 3460SOL    HW117495  10.520  12.225   4.550  1.2665  0.9971  0.4679
 3460SOL    HW217496  10.605  12.309   4.458  1.8427 -0.7916 -0.6791
 3461SOL     OW17497   5.330   2.511   3.677  0.3360  0.2753  0.0481
 3461SOL    HW117498   5.237   2.519   3.655  0.6478  2.1810 -0.7742
 3461SOL    HW217499   5.340   2.567   3.754  0.2169 -2.5133  2.2347
 3462SOL     OW17500  12.816  11.703   2.169 -0.4183  0.0843  0.2038
 3462SOL    HW117501  12.748  11.638   2.150  0.3649 -0.8558  0.5323
 3462SOL    HW217502  12.892  11.651   2.194  0.4335  1.1183 -0.1744
 3463SOL     OW17503   8.400   6.903   1.403 -0.2843 -0.0168 -0.1036
 3463SOL    HW117504   8.381   6.992   1.375  0.8593  0.4854  0.6433
 3463SOL    HW217505   8.459   6.868   1.336  1.0226  0.5716  0.6922
 3464SOL     OW17506   4.386   2.912   6.360 -0.2905  0.1006 -0.1428
 3464SOL    HW117507   4.360   2.950   6.276  3.5697  1.5584 -0.9103
 3464SOL    HW217508   4.438   2.981   6.402 -0.1872 -1.4221  2.4194
 3465SOL     OW17509   2.723   9.338   5.600 -0.2895 -0.1266 -0.0117
 3465SOL    HW117510   2.700   9.387   5.522 -0.7402 -1.7861 -0.9868
 3465SOL    HW217511   2.641   9.300   5.631 -0.1711  0.7407  1.4716
 3466SOL     OW17512   9.193   7.179   3.516 -0.1467 -0.3462 -0.0463
 3466SOL    HW117513   9.194   7.083   3.523 -0.6655 -0.2640  1.5526
 3466SOL    HW217514   9.285   7.204   3.510 -0.0445 -0.9849 -1.5407
 3467SOL     OW17515   3.946   5.024   8.423 -0.1112  0.1746 -0.0745
 3467SOL    HW117516   3.896   5.105   8.415  0.1072  0.4005  0.7157
 3467SOL    HW217517   3.948   4.987   8.335 -1.2848  0.3848 -0.2057
 3468SOL     OW17518   6.454  10.604   9.656 -0.1410 -0.1342 -0.1615
 3468SOL    HW117519   6.530  10.638   9.703 -0.4502 -0.1085  0.3395
 3468SOL    HW217520   6.450  10.656   9.576  0.8312 -0.6886 -0.5747
 3469SOL     OW17521   9.022  12.706   4.115  0.2798  0.1373  0.1221
 3469SOL    HW117522   9.035  12.793   4.078  1.3828  0.0937  0.3769
 3469SOL    HW217523   9.044  12.716   4.207 -1.7025  0.0668  0.6377
 3470SOL     OW17524   9.641   9.897   6.533  0.1558 -0.2332  0.1572
 3470SOL    HW117525   9.731   9.895   6.498 -0.5265 -1.1453 -1.7206
 3470SOL    HW217526   9.619   9.805   6.546 -1.0585 -0.1353 -1.0242
 3471SOL     OW17527   4.883   4.468   7.894 -0.2869 -0.4966 -0.0631
 3471SOL    HW117528   4.804   4.453   7.843  0.6840 -0.3949 -1.6856
 3471SOL    HW217529   4.876   4.558   7.924 -1.3119 -0.8540  0.8284
 3472SOL     OW17530  11.798  12.906  10.936 -0.5975  0.0217 -0.6176
 3472SOL    HW117531  11.750  12.915  10.854 -0.3305 -0.5087 -0.8308
 3472SOL    HW217532  11.791  12.992  10.977 -0.4750  0.3756 -1.3295
 3473SOL     OW17533   9.895   4.034   0.008 -0.2683  0.2080  0.1999
 3473SOL    HW117534   9.897   4.105   0.072  0.3173 -1.5114  2.2332
 3473SOL    HW217535   9.983   3.996   0.012 -0.7810 -1.0879 -0.2462
 3474SOL     OW17536   7.701   0.249   8.864 -0.0060  0.2364 -0.7271
 3474SOL    HW117537   7.656   0.167   8.847  1.2153 -0.3778 -1.0953
 3474SOL    HW217538   7.792   0.233   8.838  0.7569  0.9993  1.2199
 3475SOL     OW17539   1.436   0.596   3.914 -0.2608  0.4080 -0.2237
 3475SOL    HW117540   1.490   0.520   3.936  0.8958  1.7591  1.8786
 3475SOL    HW217541   1.463   0.620   3.826 -0.1055 -1.1384 -0.6232
 3476SOL     OW17542   4.608   6.032  12.481  0.1317  0.0464  0.3034
 3476SOL    HW117543   4.673   6.025  12.411  0.1028  0.9104  0.1841
 3476SOL    HW217544   4.628   5.959  12.539  1.7885  0.8164  0.7526
 3477SOL     OW17545   3.902   0.187  10.427 -0.1213 -0.3273 -0.4712
 3477SOL    HW117546   3.949   0.225  10.501 -1.1472  1.4518 -0.6689
 3477SOL    HW217547   3.971   0.166  10.364  0.7148 -1.3425  0.7182
 3478SOL     OW17548   3.682   2.530   2.997  0.0860 -0.4573 -0.2886
 3478SOL    HW117549   3.636   2.584   2.932 -1.1752 -3.2780 -1.9786
 3478SOL    HW217550   3.774   2.551   2.985 -0.3735  1.6765 -0.4439
 3479SOL     OW17551  10.830  11.904   8.228 -0.0342  0.0103  0.4002
 3479SOL    HW117552  10.740  11.904   8.261  0.1625  2.2441  1.0909
 3479SOL    HW217553  10.875  11.970   8.281  2.1008 -1.2293  0.2466
 3480SOL     OW17554  12.638   5.052   5.068  0.1178  0.5157 -0.2914
 3480SOL    HW117555  12.689   5.128   5.041  1.3923 -0.4671 -0.7558
 3480SOL    HW217556  12.665   4.983   5.008  0.4493 -0.8073  1.3155
 3481SOL     OW17557  10.371   1.338   1.125  0.2767 -0.1680 -0.6538
 3481SOL    HW117558  10.438   1.392   1.082  1.5679 -0.5407  0.7568
 3481SOL    HW217559  10.377   1.363   1.217 -2.9247  1.1828 -0.6775
 3482SOL     OW17560   3.455   6.472   1.507  0.2234  0.4380 -0.4453
 3482SOL    HW117561   3.442   6.440   1.596  0.2749  0.5016 -0.4148
 3482SOL    HW217562   3.371   6.457   1.463  0.3641 -0.0881 -0.5380
 3483SOL     OW17563  12.804   2.153   8.457 -0.7849  0.0617  0.3420
 3483SOL    HW117564  12.750   2.078   8.431 -1.4522  0.6315  0.0485
 3483SOL    HW217565  12.888   2.115   8.483 -0.5504 -0.6482 -1.3389
 3484SOL     OW17566  11.275   2.520   0.141 -0.3601  0.2625 -0.0513
 3484SOL    HW117567  11.324   2.451   0.187  0.6138  0.5696 -0.5789
 3484SOL    HW217568  11.325   2.600   0.158 -1.1593  0.7433  0.0793
 3485SOL     OW17569   1.162   9.828  10.114  0.0396  0.1300 -0.2332
 3485SOL    HW117570   1.089   9.890  10.110  0.5790  0.9307  1.3124
 3485SOL    HW217571   1.131   9.750  10.068 -1.4592  0.7760 -0.3631
 3486SOL     OW17572   9.112   8.565   0.494 -0.0152 -0.2455  0.2240
 3486SOL    HW117573   9.058   8.633   0.534 -0.4478 -0.0588 -0.6695
 3486SOL    HW217574   9.198   8.575   0.536 -0.4004  0.0878  0.9399
 3487SOL     OW17575  10.955   2.546   5.398  0.7891  0.7492 -0.0073
 3487SOL    HW117576  10.889   2.578   5.336 -0.2464 -2.0077 -0.5153
 3487SOL    HW217577  11.039   2.563   5.355  0.1807  0.6952 -1.2655
 3488SOL     OW17578  11.719   5.820   8.205  0.0485  0.2411  0.3679
 3488SOL    HW117579  11.699   5.851   8.117 -0.6810  1.0041  0.7803
 3488SOL    HW217580  11.778   5.887   8.240  0.4147 -0.1105  0.4280
 3489SOL     OW17581   8.691   5.877   8.684 -0.2264 -0.2908  0.0542
 3489SOL    HW117582   8.774   5.900   8.727  1.0044  2.0359 -3.1060
 3489SOL    HW217583   8.646   5.961   8.672 -1.1985 -1.0010 -1.6848
 3490SOL     OW17584   8.241   5.754   4.576 -0.3378  0.7484  0.0891
 3490SOL    HW117585   8.244   5.777   4.483  1.2367  1.3566  0.2488
 3490SOL    HW217586   8.304   5.813   4.617 -2.2060  1.6388  1.8415
 3491SOL     OW17587   1.179  12.498  12.743  0.0661  0.5100 -0.4607
 3491SOL    HW117588   1.152  12.483  12.652 -0.0292  0.2754 -0.3957
 3491SOL    HW217589   1.097  12.517  12.789  0.1493  0.9297 -0.4803
 3492SOL     OW17590   2.558   3.639   3.277  0.5572 -0.0193  0.2057
 3492SOL    HW117591   2.463   3.639   3.287  0.4542 -1.0026 -0.5746
 3492SOL    HW217592   2.572   3.642   3.182  1.2695 -1.0627  0.2643
 3493SOL     OW17593  10.045   5.054   4.410  0.3710 -0.2194  0.0831
 3493SOL    HW117594  10.125   5.021   4.451  0.8587  1.0647  0.2038
 3493SOL    HW217595  10.018   4.984   4.351 -0.1593 -2.0073  2.2849
 3494SOL     OW17596  11.161  10.561   8.728  0.2085  0.1597  0.0085
 3494SOL    HW117597  11.095  10.542   8.795  0.0749 -1.7371 -0.5956
 3494SOL    HW217598  11.243  10.529   8.766  0.1632 -0.7450 -0.6184
 3495SOL     OW17599   5.761  11.685   3.577 -0.0126  0.7123  0.6618
 3495SOL    HW117600   5.734  11.593   3.579 -2.0398  1.2259 -0.1960
 3495SOL    HW217601   5.812  11.697   3.656  1.6233 -1.5019  0.0341
 3496SOL     OW17602   2.250   0.402   1.596  0.0735  0.1491 -0.5198
 3496SOL    HW117603   2.203   0.447   1.666  0.3572 -0.9310  0.3978
 3496SOL    HW217604   2.339   0.438   1.599 -0.1975  0.8987 -1.0769
 3497SOL     OW17605   2.318   2.247   1.015 -0.5828  0.0423  0.2858
 3497SOL    HW117606   2.332   2.275   0.925 -2.8755  1.4150  0.2747
 3497SOL    HW217607   2.317   2.328   1.066  2.3466 -0.7884  1.9132
 3498SOL     OW17608  11.834   8.364   3.093  0.3716 -0.2094  0.0654
 3498SOL    HW117609  11.835   8.277   3.052 -0.5794 -0.4523  0.5298
 3498SOL    HW217610  11.921   8.399   3.076  0.0929 -0.3858 -1.9728
 3499SOL     OW17611  11.141   2.372   3.439 -0.3575  0.0005  0.0837
 3499SOL    HW117612  11.195   2.390   3.515 -0.8174 -0.2437  0.4727
 3499SOL    HW217613  11.162   2.282   3.414  0.5096  0.3956 -0.6804
 3500SOL     OW17614   6.204   4.497   6.211 -0.6907 -0.1086  0.0008
 3500SOL    HW117615   6.160   4.577   6.183  0.9812  1.1150  0.7196
 3500SOL    HW217616   6.197   4.438   6.136 -1.7714  0.7617 -0.6129
 3501SOL     OW17617   1.479   7.208  10.696 -0.5276 -0.1347 -0.2555
 3501SOL    HW117618   1.570   7.179  10.690 -0.2001  0.6256  0.7978
 3501SOL    HW217619   1.428   7.127  10.690  0.2177 -0.6031 -0.4902
 3502SOL     OW17620   0.604  10.991   2.313  0.0356  0.3980 -0.6022
 3502SOL    HW117621   0.577  10.962   2.400 -0.5894  1.3535 -0.4618
 3502SOL    HW217622   0.689  10.949   2.299  0.2986  0.4827  0.6127
 3503SOL     OW17623   8.843   5.453   2.618 -0.0751 -0.3509  0.0275
 3503SOL    HW117624   8.811   5.406   2.541  1.1249 -0.2031 -0.5997
 3503SOL    HW217625   8.889   5.386   2.669 -0.5526 -0.3743  0.4273
 3504SOL     OW17626   2.536   0.873   5.997  0.0344  0.2240 -0.2238
 3504SOL    HW117627   2.499   0.948   6.044  1.1587  0.5913  0.1252
 3504SOL    HW217628   2.461   0.818   5.975 -0.6295  0.5985  1.0351
 3505SOL     OW17629   4.636   8.542   6.230  0.3286 -0.4119 -0.0989
 3505SOL    HW117630   4.705   8.503   6.178  0.9693 -0.8219  1.0235
 3505SOL    HW217631   4.626   8.631   6.195  1.3327 -0.3971 -0.3561
 3506SOL     OW17632  11.025  10.321   5.261  0.5289  0.3275 -0.3740
 3506SOL    HW117633  11.028  10.271   5.180 -1.3153  1.6183 -1.3027
 3506SOL    HW217634  11.069  10.265   5.325  2.1314 -0.6890 -2.2443
 3507SOL     OW17635   1.223  12.167   9.361 -0.3185  0.2194  0.3179
 3507SOL    HW117636   1.317  12.154   9.351 -0.3117  0.3355  0.2309
 3507SOL    HW217637   1.194  12.091   9.412 -0.4270 -0.6331 -0.9622
 3508SOL     OW17638   1.739   6.770   6.053  0.6291  0.4243  0.3464
 3508SOL    HW117639   1.746   6.768   6.149  0.1472 -0.1021  0.3765
 3508SOL    HW217640   1.787   6.693   6.024 -0.7289 -0.4181  0.2778
 3509SOL     OW17641   1.544   4.612   5.259  0.0083 -0.2257  0.1877
 3509SOL    HW117642   1.613   4.652   5.207 -0.4949  1.4972  0.7696
 3509SOL    HW217643   1.474   4.593   5.196  0.2108 -0.0765 -0.0819
 3510SOL     OW17644  11.863   0.836   0.138 -0.4610 -0.0277  0.1479
 3510SOL    HW117645  11.827   0.827   0.049 -2.0378  1.7466  0.5486
 3510SOL    HW217646  11.850   0.928   0.160  1.6897  0.0242  1.5196
 3511SOL     OW17647   1.489  12.818   1.567  0.5640  0.1865 -0.5373
 3511SOL    HW117648   1.417  12.871   1.533  0.4652  1.1174  1.0504
 3511SOL    HW217649   1.451  12.769   1.640  1.1009 -0.7335 -0.8611
 3512SOL     OW17650   7.536   1.180  12.934 -0.7415 -0.4364 -0.0363
 3512SOL    HW117651   7.624   1.154  12.905  0.0608 -1.2365  2.8246
 3512SOL    HW217652   7.481   1.104  12.917 -0.4122 -0.6862  0.0125
 3513SOL     OW17653   0.182   4.324  10.882  0.7015 -0.4141 -0.4273
 3513SOL    HW117654   0.089   4.336  10.861  0.7037  1.7958  0.6101
 3513SOL    HW217655   0.185   4.241  10.928 -1.0315  0.1805  0.8796
 3514SOL     OW17656   2.123   8.251   2.057  0.2657 -0.1032 -0.0808
 3514SOL    HW117657   2.045   8.262   2.003  0.2249 -0.1809 -0.0377
 3514SOL    HW217658   2.150   8.340   2.079  1.1215  0.0103 -1.4273
 3515SOL     OW17659   8.146   6.479  12.200 -0.0884  0.2049  0.3689
 3515SOL    HW117660   8.121   6.546  12.264 -0.9040  2.3474 -1.9763
 3515SOL    HW217661   8.062   6.448  12.165  0.3445  0.3017 -0.7884
 3516SOL     OW17662   0.575  10.489  12.304  0.2913 -0.0720 -0.6692
 3516SOL    HW117663   0.667  10.502  12.277  0.6978 -0.0068  0.6658
 3516SOL    HW217664   0.581  10.465  12.396 -1.0169 -0.7332 -0.7470
 3517SOL     OW17665   0.813  12.867   4.048 -0.2160 -0.3725  0.1384
 3517SOL    HW117666   0.719  12.861   4.066  0.0933 -0.6262  1.8962
 3517SOL    HW217667   0.854  12.821   4.122  1.2742 -0.6584 -0.8280
 3518SOL     OW17668   2.310   4.458   6.202  0.1083  0.1714  0.5655
 3518SOL    HW117669   2.348   4.373   6.176  0.7564  0.5767  0.1577
 3518SOL    HW217670   2.297   4.504   6.120 -1.0967  0.1353  0.7148
 3519SOL     OW17671   2.017   5.435   0.520 -0.8329  0.2260  0.2696
 3519SOL    HW117672   1.984   5.393   0.598  1.7349 -0.5816  1.0279
 3519SOL    HW217673   2.111   5.445   0.536 -0.3827  0.9367 -2.3027
 3520SOL     OW17674   0.980   3.733   1.075 -0.2842 -0.0063  0.0591
 3520SOL    HW117675   1.067   3.733   1.034  0.1181 -0.2175  0.8827
 3520SOL    HW217676   0.998   3.716   1.168 -0.9574  2.8767  0.7898
 3521SOL     OW17677   1.349   2.944   2.746  0.2833  0.2389 -0.2529
 3521SOL    HW117678   1.441   2.931   2.723  0.3472  1.5441 -0.8433
 3521SOL    HW217679   1.303   2.871   2.706  0.7919  0.8203 -1.9486
 3522SOL     OW17680   0.431   1.096   5.719  0.2183 -0.2582 -0.2166
 3522SOL    HW117681   0.427   1.101   5.815  0.8589  0.7821 -0.2355
 3522SOL    HW217682   0.354   1.044   5.695 -2.0976  2.5030  0.6366
 3523SOL     OW17683   5.381   3.316   0.013 -0.6571 -0.1449 -0.4154
 3523SOL    HW117684   5.473   3.296  -0.006 -0.1252  1.5966  0.1712
 3523SOL    HW217685   5.332   3.271  -0.056  0.7904  0.7513 -2.1100
 3524SOL     OW17686  10.583   0.763  10.552 -0.4255 -0.1655  0.1610
 3524SOL    HW117687  10.520   0.694  10.574  1.3208 -1.4777  1.3673
 3524SOL    HW217688  10.600   0.750  10.459 -1.6462 -0.0229 -0.0948
 3525SOL     OW17689   3.585   2.545  10.551 -0.1801 -0.2607 -0.4420
 3525SOL    HW117690   3.587   2.454  10.582 -0.7434 -0.3408 -0.6396
 3525SOL    HW217691   3.614   2.596  10.626 -0.1623 -0.5777 -0.2298
 3526SOL     OW17692   6.530   9.232   4.824  0.6979 -0.0921 -0.4947
 3526SOL    HW117693   6.530   9.149   4.873  1.4180 -0.7617 -1.5936
 3526SOL    HW217694   6.617   9.236   4.785  0.0809  0.3261 -1.8696
 3527SOL     OW17695   7.154   9.340   1.565  0.9310  0.0177 -0.2948
 3527SOL    HW117696   7.093   9.381   1.626 -0.0989 -0.2392 -1.1278
 3527SOL    HW217697   7.197   9.413   1.521  0.6475  0.1928 -0.2776
 3528SOL     OW17698   2.594  10.182  11.606  0.9545  0.0656 -0.2062
 3528SOL    HW117699   2.571  10.239  11.532  0.3947 -0.9173 -0.8104
 3528SOL    HW217700   2.619  10.243  11.676  1.5418  1.0160 -1.2102
 3529SOL     OW17701  10.336  10.532  11.837 -0.5029  0.3219  0.3566
 3529SOL    HW117702  10.270  10.583  11.789 -0.7594 -0.3629 -0.0319
 3529SOL    HW217703  10.336  10.447  11.793  1.9996  0.8859 -0.9266
 3530SOL     OW17704   6.336   7.333  10.343 -0.2202  0.0559  0.3167
 3530SOL    HW117705   6.272   7.321  10.273 -1.0604  2.6174  0.5465
 3530SOL    HW217706   6.300   7.284  10.417 -2.3925  2.0252  0.6649
 3531SOL     OW17707   4.825   3.217   2.486  0.0920 -0.1739  0.5123
 3531SOL    HW117708   4.821   3.311   2.468 -0.7813 -0.5045 -1.2484
 3531SOL    HW217709   4.775   3.206   2.567  0.8493  0.9532  1.1621
 3532SOL     OW17710   9.231   2.545   9.013 -0.1681  0.0461 -0.6697
 3532SOL    HW117711   9.183   2.513   9.090 -0.8371  0.7925 -0.7646
 3532SOL    HW217712   9.259   2.466   8.968 -1.2058 -0.4232 -0.5341
 3533SOL     OW17713   3.417   4.661  12.660 -0.2039 -0.0362  0.1996
 3533SOL    HW117714   3.398   4.748  12.695 -0.3384  0.2425 -0.5657
 3533SOL    HW217715   3.469   4.676  12.582  1.3667 -0.7186  1.0648
 3534SOL     OW17716   5.254  10.671   7.347  0.0084 -0.4429 -0.1481
 3534SOL    HW117717   5.305  10.629   7.278  0.1184  3.6490 -2.8810
 3534SOL    HW217718   5.304  10.748   7.371 -1.5603 -0.0794  2.3130
 3535SOL     OW17719   0.312   8.298   3.704  0.0743  0.2302  0.0692
 3535SOL    HW117720   0.348   8.356   3.772  0.9313  0.3989 -0.5145
 3535SOL    HW217721   0.217   8.305   3.714  0.1840  0.5061  1.0341
 3536SOL     OW17722   0.303   9.404   5.329 -0.1358 -0.0073  0.5148
 3536SOL    HW117723   0.216   9.363   5.332 -0.7779  1.3135  0.8972
 3536SOL    HW217724   0.286   9.496   5.346  1.3474  0.2978  0.4645
 3537SOL     OW17725  10.946   8.447  10.363  0.2515 -0.1435 -0.1550
 3537SOL    HW117726  10.998   8.470  10.287  1.8076  0.7897  1.1196
 3537SOL    HW217727  10.916   8.358  10.346  1.2356 -0.2450 -1.4923
 3538SOL     OW17728   9.785   9.002   8.232  0.3845 -0.0493  0.3433
 3538SOL    HW117729   9.865   9.054   8.241  0.5890 -0.5000  1.1804
 3538SOL    HW217730   9.814   8.911   8.240  0.0212 -0.3161 -1.0588
 3539SOL     OW17731   4.571  12.445  11.153  0.2186 -0.3512  0.3684
 3539SOL    HW117732   4.549  12.538  11.150  1.1824 -0.0560  1.5728
 3539SOL    HW217733   4.517  12.410  11.225 -0.5216 -0.8528 -0.4062
 3540SOL     OW17734  12.104   0.224   0.430  0.3119  0.4794 -0.1419
 3540SOL    HW117735  12.098   0.149   0.489  0.0050  0.7467  0.1722
 3540SOL    HW217736  12.109   0.186   0.342 -0.7374  0.1028 -0.0476
 3541SOL     OW17737   1.414   2.058   0.492  0.2394  0.3868 -0.2724
 3541SOL    HW117738   1.323   2.066   0.465 -0.0377  0.4508  0.6596
 3541SOL    HW217739   1.437   1.967   0.472  0.9562  1.1300 -3.4051
 3542SOL     OW17740   5.473   3.509   1.042 -0.0283  0.1665  0.3576
 3542SOL    HW117741   5.509   3.437   1.095  0.1466 -0.5822 -0.7397
 3542SOL    HW217742   5.397   3.471   0.999 -0.0325  0.6926 -0.1049
 3543SOL     OW17743   9.285   1.069  11.208 -0.8750  0.0125 -0.6319
 3543SOL    HW117744   9.240   1.126  11.270 -3.6662 -1.9926 -0.6042
 3543SOL    HW217745   9.255   1.100  11.122  0.9042  1.1127 -0.9124
 3544SOL     OW17746  11.261   4.632   1.371 -0.0865  0.0166 -0.1285
 3544SOL    HW117747  11.174   4.663   1.346 -0.5276 -0.2632  1.0048
 3544SOL    HW217748  11.255   4.536   1.366  0.6221  0.0171 -1.5036
 3545SOL     OW17749   5.571   5.011   0.943  0.2130  0.4785  0.2272
 3545SOL    HW117750   5.577   5.084   0.881 -0.4658  0.9734  0.7387
 3545SOL    HW217751   5.516   4.947   0.899 -0.1277  0.7552  0.2490
 3546SOL     OW17752   3.014   2.913   3.540 -0.0759 -0.1651 -0.4903
 3546SOL    HW117753   3.079   2.913   3.470 -0.0701 -0.6804 -0.4829
 3546SOL    HW217754   3.060   2.947   3.616  0.2257 -0.6783 -0.4450
 3547SOL     OW17755  11.832   7.171   3.690 -0.4788  0.4034  0.5349
 3547SOL    HW117756  11.784   7.252   3.704 -0.9333 -0.0434  1.6682
 3547SOL    HW217757  11.922   7.199   3.674 -0.4818  1.1123  1.6608
 3548SOL     OW17758  10.270   1.081   4.384  0.0218 -0.0190 -0.2946
 3548SOL    HW117759  10.274   1.064   4.290 -0.0511 -1.4317 -0.0633
 3548SOL    HW217760  10.186   1.046   4.412 -0.1811  0.8414  0.2306
 3549SOL     OW17761   1.798   4.470   2.973  0.4294 -0.1583 -0.3846
 3549SOL    HW117762   1.754   4.553   2.994  0.3559 -0.1269 -0.6527
 3549SOL    HW217763   1.760   4.407   3.034  0.9368  0.1345  0.2402
 3550SOL     OW17764   7.432   9.288   3.119  0.9867  0.3208 -0.7209
 3550SOL    HW117765   7.374   9.307   3.045 -0.3274  1.0548  0.4587
 3550SOL    HW217766   7.452   9.195   3.109  1.0300  0.4497 -2.1172
 3551SOL     OW17767  10.715   0.354   9.641 -0.0762  0.4636  0.4383
 3551SOL    HW117768  10.769   0.421   9.600  3.1583 -1.6672  0.8662
 3551SOL    HW217769  10.764   0.328   9.719 -2.6181 -0.4694  1.8276
 3552SOL     OW17770   6.117   5.958  12.545  0.1072 -0.3315  0.3569
 3552SOL    HW117771   6.168   6.032  12.512  0.0971 -0.2062  0.6188
 3552SOL    HW217772   6.120   5.967  12.640 -1.2567  0.2594  0.3730
 3553SOL     OW17773   6.347   2.328   1.246 -0.3984  0.0201  0.1094
 3553SOL    HW117774   6.372   2.387   1.175 -0.9787 -0.9802 -0.9741
 3553SOL    HW217775   6.400   2.355   1.321  0.4447  0.9153 -0.7937
 3554SOL     OW17776   8.281  10.318   1.808 -0.3391 -0.2661  0.1279
 3554SOL    HW117777   8.375  10.339   1.805  0.0014 -1.5440  0.9722
 3554SOL    HW217778   8.262  10.308   1.901 -0.8683 -1.8178 -0.1150
 3555SOL     OW17779   3.198   3.972   4.602 -0.6038 -1.0741 -0.4792
 3555SOL    HW117780   3.156   3.917   4.537  2.1242 -1.2494 -2.2440
 3555SOL    HW217781   3.162   4.060   4.587 -0.6731 -1.2903 -1.6348
 3556SOL     OW17782   9.481  12.490   3.442  0.2179 -0.3764 -0.3449
 3556SOL    HW117783   9.401  12.507   3.492  0.6983  0.3011  0.2101
 3556SOL    HW217784   9.458  12.416   3.385 -0.8748 -0.0390 -0.3700
 3557SOL     OW17785   3.304   0.774  10.338  0.4549 -0.0752  0.0101
 3557SOL    HW117786   3.258   0.700  10.299  1.1532 -0.3494 -0.3067
 3557SOL    HW217787   3.389   0.739  10.364  0.2829  0.2811  1.1226
 3558SOL     OW17788   0.253   3.446  11.923  0.1535 -0.0372 -0.9184
 3558SOL    HW117789   0.250   3.523  11.867 -0.5105 -0.4092 -1.4063
 3558SOL    HW217790   0.304   3.382  11.873 -1.6314 -0.8695 -1.7791
 3559SOL     OW17791  11.921   7.679   1.792  0.6054 -0.6398 -0.3657
 3559SOL    HW117792  11.923   7.692   1.697  0.3761 -0.9297 -0.4128
 3559SOL    HW217793  11.851   7.614   1.806  0.7152 -0.6841 -0.0095
 3560SOL     OW17794   7.717   6.140   5.615 -0.4306 -0.5936  0.3800
 3560SOL    HW117795   7.812   6.140   5.599 -0.7491 -0.8300 -1.8374
 3560SOL    HW217796   7.703   6.216   5.672  1.4545 -2.6285  3.8939
 3561SOL     OW17797  12.139  10.830   4.578  0.6720 -0.4555 -0.1420
 3561SOL    HW117798  12.095  10.746   4.587 -0.6499  0.3921  1.8357
 3561SOL    HW217799  12.221  10.809   4.532 -0.1568 -2.5984 -0.7776
 3562SOL     OW17800   2.872  10.900  11.079  0.0360 -0.9113  0.0468
 3562SOL    HW117801   2.826  10.881  10.997 -0.9216 -0.4620  0.4622
 3562SOL    HW217802   2.828  10.977  11.114  1.9787  0.3634 -0.1742
 3563SOL     OW17803   9.039   8.657   9.610  0.2674  0.1267 -0.1702
 3563SOL    HW117804   9.022   8.571   9.572 -1.6493  0.5303 -0.3652
 3563SOL    HW217805   9.131   8.675   9.591  0.5850 -1.6727 -0.5148
 3564SOL     OW17806   4.513  10.597   8.170 -0.1801 -0.5963  0.2866
 3564SOL    HW117807   4.433  10.545   8.179 -0.0477 -1.3102 -1.9413
 3564SOL    HW217808   4.579  10.535   8.137  1.1697  0.0929  1.5462
 3565SOL     OW17809   0.750  10.383   5.329  0.2212  0.3594 -0.2229
 3565SOL    HW117810   0.790  10.309   5.375  1.6504  0.4127 -1.3474
 3565SOL    HW217811   0.795  10.460   5.364 -1.4325  0.8044  1.1334
 3566SOL     OW17812  12.247   8.456  10.667 -0.3705 -0.1110 -0.1921
 3566SOL    HW117813  12.202   8.448  10.582 -1.5349 -2.6611  0.5648
 3566SOL    HW217814  12.183   8.424  10.731  0.8317  0.8455  1.5522
 3567SOL     OW17815   0.326  11.124   5.777  0.5742 -0.5915 -0.0835
 3567SOL    HW117816   0.263  11.108   5.706  0.2988 -1.6355  0.3760
 3567SOL    HW217817   0.326  11.043   5.828 -0.1549  0.5405  1.8333
 3568SOL     OW17818   1.067   0.220   4.893 -0.7401  0.4396 -0.0185
 3568SOL    HW117819   1.100   0.287   4.833 -1.4669  0.6243 -0.2309
 3568SOL    HW217820   1.130   0.148   4.887  0.0465  1.0946  0.2015
 3569SOL     OW17821   2.729   7.633   5.607  0.4809  0.0203 -0.4706
 3569SOL    HW117822   2.767   7.717   5.582 -0.3475  0.6629  0.3443
 3569SOL    HW217823   2.691   7.649   5.693  0.4369 -1.2399 -0.2322
 3570SOL     OW17824   0.933  11.483   6.794  0.2009 -0.4039 -0.2596
 3570SOL    HW117825   0.867  11.420   6.823 -0.7039  0.9445  0.7532
 3570SOL    HW217826   0.927  11.554   6.858  1.4692  0.5238 -1.1337
 3571SOL     OW17827   4.705   4.736   5.088  0.2034 -0.0381  0.0585
 3571SOL    HW117828   4.615   4.716   5.065  0.1749  0.1682 -0.0117
 3571SOL    HW217829   4.726   4.677   5.160 -0.4524  0.8984  1.0453
 3572SOL     OW17830   6.880  12.815   2.232  0.1935 -0.8713  0.3871
 3572SOL    HW117831   6.859  12.897   2.188  1.6939  0.1175  1.4292
 3572SOL    HW217832   6.972  12.799   2.210  0.4567 -1.2752  1.7039
 3573SOL     OW17833   2.018   0.340   6.348  0.1811 -0.2494  0.3676
 3573SOL    HW117834   2.036   0.252   6.381  0.6755 -0.1993  0.2367
 3573SOL    HW217835   2.083   0.396   6.391  0.6999 -0.1513 -0.5392
 3574SOL     OW17836  11.414   8.401   2.877  0.0025  0.2610 -0.7478
 3574SOL    HW117837  11.338   8.347   2.902  0.7043 -0.4741 -0.1418
 3574SOL    HW217838  11.464   8.410   2.958  1.4573 -0.7286 -1.5092
 3575SOL     OW17839   5.752  12.207  12.636  0.7850  0.2237 -0.6243
 3575SOL    HW117840   5.820  12.273  12.645 -0.1907  1.2823 -0.6982
 3575SOL    HW217841   5.710  12.227  12.552  0.4465 -0.4532 -0.6239
 3576SOL     OW17842  11.693   3.641   6.518 -0.1120  0.0515 -0.6874
 3576SOL    HW117843  11.648   3.720   6.489  0.4508  1.0432  1.0320
 3576SOL    HW217844  11.637   3.569   6.487 -0.1179  1.0177 -3.1720
 3577SOL     OW17845   6.627  11.805   3.123  0.0854 -0.2919  0.0656
 3577SOL    HW117846   6.560  11.809   3.055  1.5265 -2.7839 -1.6583
 3577SOL    HW217847   6.579  11.789   3.204 -1.5578  1.0007 -0.6137
 3578SOL     OW17848   8.697  10.821   4.947 -0.4743  0.1442  0.2411
 3578SOL    HW117849   8.681  10.754   4.880  2.3707 -0.3502 -0.0722
 3578SOL    HW217850   8.653  10.899   4.913 -0.8707 -0.6349 -1.1580
 3579SOL     OW17851   1.097   3.223   9.905  0.0667  0.3667 -0.8597
 3579SOL    HW117852   1.086   3.282   9.980 -0.7282  0.4162 -0.9990
 3579SOL    HW217853   1.137   3.276   9.837 -0.7310  0.7784 -1.0146
 3580SOL     OW17854   6.403   8.188   0.710  0.0660  0.1042  0.5207
 3580SOL    HW117855   6.441   8.199   0.797 -1.0612  0.6087  0.9569
 3580SOL    HW217856   6.309   8.200   0.722 -0.0418  0.9377 -0.8877
 3581SOL     OW17857   6.541   3.910   5.300  0.7481  0.3743  0.0764
 3581SOL    HW117858   6.495   3.833   5.265 -0.6994  1.0424  0.4085
 3581SOL    HW217859   6.607   3.874   5.358 -1.9191 -0.6764  2.7291
 3582SOL     OW17860  11.585   3.947   1.749 -0.5078  0.3608  0.2269
 3582SOL    HW117861  11.561   3.854   1.754  2.5257 -0.5257  0.8530
 3582SOL    HW217862  11.608   3.969   1.840 -0.1950  1.4186 -0.1051
 3583SOL     OW17863   3.843   0.203   6.253 -0.1939  0.3276 -0.0899
 3583SOL    HW117864   3.747   0.194   6.254 -0.3443  1.6286  1.2715
 3583SOL    HW217865   3.858   0.298   6.246  0.9712  0.2178  0.6688
 3584SOL     OW17866   7.882  12.243  11.271  0.6237 -0.0008 -0.1551
 3584SOL    HW117867   7.854  12.329  11.238 -1.9454 -1.2479 -1.4972
 3584SOL    HW217868   7.948  12.213  11.208  0.1252  0.1873 -0.7752
 3585SOL     OW17869   6.064   6.036  11.571  0.1191  0.7283  0.9970
 3585SOL    HW117870   6.055   6.013  11.478 -0.0379  1.9923  0.6834
 3585SOL    HW217871   5.976   6.060  11.599 -0.1393 -1.0940  1.9109
 3586SOL     OW17872   9.046   4.503   2.652 -0.2048 -0.7656 -0.4181
 3586SOL    HW117873   8.976   4.474   2.711 -1.0911  2.1288  0.1290
 3586SOL    HW217874   9.037   4.598   2.649  1.9910 -0.5174 -2.5799
 3587SOL     OW17875   9.638   7.950   1.336 -0.3494 -0.3715  0.0829
 3587SOL    HW117876   9.719   7.960   1.387 -1.1734  1.2592  1.1623
 3587SOL    HW217877   9.610   8.040   1.319 -0.6834 -0.8945 -2.3699
 3588SOL     OW17878   2.420  12.764  12.279 -0.1187  0.2948 -0.1117
 3588SOL    HW117879   2.393  12.856  12.290 -0.9668 -0.1907  2.9899
 3588SOL    HW217880   2.508  12.761  12.318  0.4209 -0.0133 -1.3195
 3589SOL     OW17881   7.338  10.622   5.475 -0.0469  0.5689  1.0217
 3589SOL    HW117882   7.390  10.697   5.504 -1.4324  2.3207 -0.7625
 3589SOL    HW217883   7.399  10.548   5.475  1.7457  1.9900  1.4345
 3590SOL     OW17884   2.544   8.019  12.112  0.0048 -0.5412  0.2270
 3590SOL    HW117885   2.517   8.063  12.031 -2.4147  1.8298  2.1621
 3590SOL    HW217886   2.620   7.967  12.086  0.2522  1.2470 -3.2562
 3591SOL     OW17887  11.102   1.411   0.955  0.0676 -0.2080 -0.7219
 3591SOL    HW117888  11.080   1.329   0.999 -0.1012  0.8593  1.3162
 3591SOL    HW217889  11.045   1.476   0.996  0.6811  1.0533 -1.7961
 3592SOL     OW17890   4.138   4.839   2.678  0.1458  0.5627  0.3514
 3592SOL    HW117891   4.162   4.752   2.647  0.3818  0.8797 -0.3860
 3592SOL    HW217892   4.058   4.826   2.729  0.5475 -0.1722  0.8111
 3593SOL     OW17893   7.487   5.824   9.857 -0.2291 -0.0793 -0.4308
 3593SOL    HW117894   7.415   5.867   9.903  0.3001 -0.0445  0.3867
 3593SOL    HW217895   7.564   5.876   9.879 -0.3508  1.9699 -3.9671
 3594SOL     OW17896   6.689   5.030   7.311 -0.1150  0.1984  0.0535
 3594SOL    HW117897   6.662   4.938   7.319 -0.9439  0.4556  0.2107
 3594SOL    HW217898   6.720   5.053   7.399 -0.4800  0.2503  0.1697
 3595SOL     OW17899  11.777   3.639  10.016 -0.4025  0.6937 -0.1252
 3595SOL    HW117900  11.687   3.665   9.995 -0.5088  0.3716 -0.0845
 3595SOL    HW217901  11.820   3.720  10.044 -1.0395  0.6272  1.1073
 3596SOL     OW17902   5.907   2.101   3.210  0.1150  0.0232 -0.4607
 3596SOL    HW117903   5.856   2.182   3.217 -1.4825 -0.7166 -2.6076
 3596SOL    HW217904   5.986   2.127   3.163 -0.4317  0.3524 -1.2209
 3597SOL     OW17905   7.971  11.569   6.408 -0.1979 -0.2325 -0.4044
 3597SOL    HW117906   8.064  11.581   6.430  0.1999  2.6828 -2.9674
 3597SOL    HW217907   7.924  11.612   6.480  0.6145  0.6472 -0.3671
 3598SOL     OW17908   2.077   7.602   7.682 -0.3921 -0.5685 -0.1755
 3598SOL    HW117909   2.003   7.592   7.621 -0.6806 -1.0602  0.2451
 3598SOL    HW217910   2.100   7.512   7.706  1.5933 -0.5722 -1.7535
 3599SOL     OW17911   4.355  11.163   3.881 -0.5387 -0.3469 -0.2847
 3599SOL    HW117912   4.312  11.114   3.951  0.9078 -1.5718 -0.2049
 3599SOL    HW217913   4.364  11.252   3.915 -1.0416 -0.6044  0.5455
 3600SOL     OW17914   8.178   0.151   1.850  0.1889 -0.5263 -0.1752
 3600SOL    HW117915   8.219   0.121   1.769  1.3513  0.1185  0.1484
 3600SOL    HW217916   8.200   0.244   1.856 -0.0153 -0.5223  0.7967
 3601SOL     OW17917   4.673   4.730   1.050  0.6588 -0.0208 -0.7622
 3601SOL    HW117918   4.730   4.712   0.974  0.7567 -1.1812 -0.4280
 3601SOL    HW217919   4.588   4.696   1.024 -0.0805  2.1269 -1.4477
 3602SOL     OW17920   2.734   7.865   1.025 -0.0004  0.2657  0.1827
 3602SOL    HW117921   2.768   7.954   1.028  1.0063 -0.1255  0.6279
 3602SOL    HW217922   2.643   7.874   1.055  0.0581  1.1548  0.1251
 3603SOL     OW17923  10.566   6.611   9.556  0.0776 -0.0278  1.0047
 3603SOL    HW117924  10.653   6.647   9.539 -0.2642  0.5207  0.3779
 3603SOL    HW217925  10.530   6.667   9.625  0.4915 -0.6957  1.7716
 3604SOL     OW17926   2.881   7.120   0.150  0.1836 -0.1654  0.2240
 3604SOL    HW117927   2.876   7.074   0.066 -1.4602 -0.7563  0.5995
 3604SOL    HW217928   2.869   7.212   0.127 -2.4447 -0.4974 -0.0795
 3605SOL     OW17929   1.828  11.981   3.897 -0.4987  0.1656  0.3824
 3605SOL    HW117930   1.787  12.014   3.977 -1.9648 -1.1112  0.2113
 3605SOL    HW217931   1.798  11.891   3.890  0.4412 -0.0760 -1.0749
 3606SOL     OW17932   5.349   4.308   5.798 -0.9092  0.1803  0.0271
 3606SOL    HW117933   5.412   4.364   5.843 -0.1024 -0.3208 -0.4593
 3606SOL    HW217934   5.266   4.355   5.804 -0.2017  1.5546 -0.5889
 3607SOL     OW17935   2.112   3.453  11.310 -0.1772  0.4923  0.5709
 3607SOL    HW117936   2.197   3.483  11.342 -0.1125 -0.2470  1.1242
 3607SOL    HW217937   2.063   3.430  11.389 -0.4866 -0.1355  0.2087
 3608SOL     OW17938   7.247   8.786  10.239  0.4415 -0.1997 -0.1918
 3608SOL    HW117939   7.300   8.865  10.239 -0.4426  0.4242  0.8338
 3608SOL    HW217940   7.157   8.818  10.233  0.0595 -1.1091  0.5537
 3609SOL     OW17941   6.729   4.995   7.619 -0.1985 -0.5145  0.3154
 3609SOL    HW117942   6.768   4.940   7.688 -1.7302 -1.8912  0.1516
 3609SOL    HW217943   6.649   5.031   7.660 -1.1700 -1.4157 -0.7163
 3610SOL     OW17944   9.178   5.950   9.113  0.3072  0.4993 -0.0778
 3610SOL    HW117945   9.271   5.971   9.116  0.1995  1.4061 -1.7966
 3610SOL    HW217946   9.174   5.855   9.112  1.2596  0.4541 -0.7028
 3611SOL     OW17947   5.470  10.903  10.805 -0.2836 -0.3153 -0.4708
 3611SOL    HW117948   5.399  10.840  10.817 -0.0940 -0.7703 -1.5797
 3611SOL    HW217949   5.427  10.979  10.765 -0.4460  0.1290  0.5201
 3612SOL     OW17950   7.363   6.155  12.001  0.0607  0.3824  0.1095
 3612SOL    HW117951   7.287   6.138  12.057 -0.9975 -2.1850 -1.9070
 3612SOL    HW217952   7.363   6.250  11.988 -0.4933  0.8834  3.1805
 3613SOL     OW17953  10.971   2.006   2.382  0.7360 -0.0688 -0.3573
 3613SOL    HW117954  10.937   1.963   2.303 -2.1186  2.1620 -0.5061
 3613SOL    HW217955  10.922   1.965   2.454 -0.1199  1.0625 -0.2654
 3614SOL     OW17956   8.942   2.199   7.163 -0.2333  0.4667  0.2117
 3614SOL    HW117957   8.857   2.241   7.150  0.3306  1.1823 -1.5069
 3614SOL    HW217958   8.952   2.141   7.087  1.3132  1.2978 -0.2552
 3615SOL     OW17959   8.055   5.892  10.888 -0.0463 -0.4919 -0.0970
 3615SOL    HW117960   8.062   5.912  10.795  2.7156 -1.8140 -0.2718
 3615SOL    HW217961   8.021   5.803  10.892  3.1318 -1.8607 -0.1439
 3616SOL     OW17962   9.140   8.138   9.383 -0.6341  0.0363  0.0362
 3616SOL    HW117963   9.163   8.170   9.296 -1.0802 -2.9785 -1.3208
 3616SOL    HW217964   9.223   8.131   9.429 -0.0730 -0.5608 -1.0279
 3617SOL     OW17965   2.348   4.313   4.281  0.0701 -0.0397 -0.4246
 3617SOL    HW117966   2.330   4.393   4.231 -2.1090  0.0471  0.3956
 3617SOL    HW217967   2.401   4.344   4.355 -0.1478  0.5233 -0.4956
 3618SOL     OW17968   2.998   5.346   9.359 -0.4495 -0.3106 -0.0967
 3618SOL    HW117969   3.037   5.421   9.315 -0.6582 -0.3709 -0.3906
 3618SOL    HW217970   2.922   5.324   9.305 -0.2511 -0.8840 -0.1480
 3619SOL     OW17971   2.314  11.196  10.281 -0.6823  0.1375  0.7510
 3619SOL    HW117972   2.272  11.191  10.195 -0.2240 -1.3522  0.5800
 3619SOL    HW217973   2.246  11.230  10.339 -1.1401  0.7270 -0.1133
 3620SOL     OW17974   3.689   3.997   1.949 -0.2941  0.4523 -0.0069
 3620SOL    HW117975   3.617   3.983   2.010  0.1789  1.5032  0.8410
 3620SOL    HW217976   3.661   4.072   1.896 -0.7817 -0.5707 -1.2384
 3621SOL     OW17977   4.701   3.814   9.819 -0.0573  0.0614 -0.2054
 3621SOL    HW117978   4.648   3.754   9.768  0.8002 -0.9185  0.0239
 3621SOL    HW217979   4.640   3.853   9.881 -0.7667 -0.0107 -0.8427
 3622SOL     OW17980   4.893  11.073   0.341 -0.1255  0.1472  0.3025
 3622SOL    HW117981   4.834  11.025   0.283  1.6524 -1.4820 -0.2470
 3622SOL    HW217982   4.892  11.163   0.308 -1.0413 -0.2161 -0.6864
 3623SOL     OW17983   5.828  12.861   8.802 -0.4063  0.0235 -0.3237
 3623SOL    HW117984   5.887  12.811   8.859  0.4860  1.2487 -0.1350
 3623SOL    HW217985   5.852  12.952   8.818 -1.6807  0.4888 -1.0146
 3624SOL     OW17986   1.745   5.994   3.833 -0.1780  0.2159 -0.3110
 3624SOL    HW117987   1.735   6.087   3.851  1.2417  0.2418  0.4714
 3624SOL    HW217988   1.740   5.987   3.738 -1.0217  0.9909 -0.3305
 3625SOL     OW17989   0.138   7.645   1.845 -0.0508  0.0585 -0.4300
 3625SOL    HW117990   0.123   7.684   1.758  1.7469  1.1485 -0.2943
 3625SOL    HW217991   0.161   7.554   1.826  2.7937  0.8549 -1.3952
 3626SOL     OW17992   3.546   0.064   6.536  0.2468 -0.2842 -0.1071
 3626SOL    HW117993   3.568   0.132   6.473 -1.5424 -1.4462 -2.1313
 3626SOL    HW217994   3.595  -0.013   6.507 -0.6804 -0.8636 -0.1789
 3627SOL     OW17995   7.455  10.093  10.608 -1.0078  0.4751 -0.2053
 3627SOL    HW117996   7.409  10.045  10.676  1.5555  0.3269  1.6044
 3627SOL    HW217997   7.462  10.183  10.642  0.0142  0.4804 -0.3804
 3628SOL     OW17998   1.154  11.927   5.473  0.0275 -0.4335  0.6004
 3628SOL    HW117999   1.238  11.888   5.493  0.5832  0.8868  0.9780
 3628SOL    HW218000   1.113  11.868   5.410  0.4219 -2.0511  1.8090
 3629SOL     OW18001   4.567   9.581   5.857 -0.1140  0.3629 -0.1514
 3629SOL    HW118002   4.472   9.582   5.869 -0.1500  0.9081 -0.4572
 3629SOL    HW218003   4.599   9.522   5.925 -0.7505 -0.5578 -0.6291
 3630SOL     OW18004   3.420   3.764  10.083 -0.1005  0.5881  0.1727
 3630SOL    HW118005   3.397   3.738  10.172 -0.5013  1.9977  0.5068
 3630SOL    HW218006   3.335   3.774  10.038  0.1054 -0.4681 -0.4970
 3631SOL     OW18007  11.070  12.631  11.374  0.0583  0.3016  0.5336
 3631SOL    HW118008  11.109  12.665  11.454  0.1406 -0.6718  0.9250
 3631SOL    HW218009  11.012  12.561  11.404 -0.2893  0.2620 -0.2200
 3632SOL     OW18010  10.107   6.641   0.656 -0.7712 -0.4101  0.2296
 3632SOL    HW118011  10.115   6.692   0.737  0.5977  1.7849 -1.1850
 3632SOL    HW218012  10.013   6.636   0.640 -1.0307 -0.2498  1.5626
 3633SOL     OW18013   0.417   6.190  12.282  0.5687 -0.1040  0.4349
 3633SOL    HW118014   0.477   6.220  12.214 -0.8221 -0.3374 -0.9533
 3633SOL    HW218015   0.410   6.095  12.267 -0.2027 -0.0641  0.5085
 3634SOL     OW18016  11.822   3.140  12.825 -0.5655 -0.3559  0.3830
 3634SOL    HW118017  11.740   3.179  12.857 -0.1617  1.1614 -0.3621
 3634SOL    HW218018  11.793   3.071  12.766 -1.3141 -0.2439  0.5978
 3635SOL     OW18019   1.562   5.784  12.911  0.2180  0.1805  0.1591
 3635SOL    HW118020   1.611   5.859  12.878 -0.2597  1.2129  1.6936
 3635SOL    HW218021   1.505   5.820  12.979 -0.0988 -1.5601  0.8802
 3636SOL     OW18022   1.915  11.807  10.752 -0.1744  0.1519 -0.2122
 3636SOL    HW118023   1.934  11.793  10.845 -1.0493 -0.3001 -0.0949
 3636SOL    HW218024   1.974  11.878  10.726  0.5068 -0.1311  0.5329
 3637SOL     OW18025   8.474   2.336   2.280 -0.1957 -0.0795 -0.2324
 3637SOL    HW118026   8.395   2.281   2.284 -0.2685  0.0979  1.0160
 3637SOL    HW218027   8.510   2.318   2.193 -0.4591 -1.7689 -0.0289
 3638SOL     OW18028  10.279   0.939  10.052 -0.0342  0.1010  0.0360
 3638SOL    HW118029  10.295   0.930   9.958 -1.2555 -0.0424 -0.1738
 3638SOL    HW218030  10.329   0.867  10.091  2.0297  1.2619 -0.2817
 3639SOL     OW18031   5.435   2.773   3.567  0.1648  0.2455 -0.0221
 3639SOL    HW118032   5.388   2.711   3.622 -0.2054  0.9756  0.5048
 3639SOL    HW218033   5.444   2.851   3.621  0.9635  0.5261 -0.5322
 3640SOL     OW18034   8.479  11.510   1.794 -0.5219  0.0914  0.0796
 3640SOL    HW118035   8.428  11.453   1.852 -0.5308  0.8960  0.8819
 3640SOL    HW218036   8.435  11.502   1.709 -2.7111  1.5896  0.9679
 3641SOL     OW18037   1.536  11.091   2.727 -0.3525 -0.1744  0.0892
 3641SOL    HW118038   1.540  11.159   2.795 -1.7167  1.1367 -1.0815
 3641SOL    HW218039   1.547  11.138   2.645 -0.7992 -1.4585 -0.7310
 3642SOL     OW18040   3.679   9.255   9.015  0.0638 -0.0028 -0.3333
 3642SOL    HW118041   3.739   9.214   8.953  0.6739 -0.8043  0.7455
 3642SOL    HW218042   3.737   9.295   9.081 -0.5688 -1.1667  0.9651
 3643SOL     OW18043  11.092  12.792  10.109 -0.3373  0.3370  0.1813
 3643SOL    HW118044  11.187  12.804  10.119 -0.5779  2.1431  0.6807
 3643SOL    HW218045  11.062  12.765  10.196 -0.6611  2.9923  0.9860
 3644SOL     OW18046  12.671   0.430   8.428  0.3145  0.0051 -0.0818
 3644SOL    HW118047  12.612   0.390   8.491 -0.6783 -1.6334 -1.9551
 3644SOL    HW218048  12.742   0.466   8.481 -1.1636 -0.0263  2.0474
 3645SOL     OW18049  11.797   9.373   8.441 -0.3883  0.3747 -0.1282
 3645SOL    HW118050  11.772   9.281   8.444 -1.3071  0.6315  1.6375
 3645SOL    HW218051  11.885   9.374   8.480 -0.8436  0.3491  0.9405
 3646SOL     OW18052   1.725   5.472   3.872  0.1138 -0.3861 -0.3475
 3646SOL    HW118053   1.691   5.560   3.857  0.4827 -0.5903 -2.6949
 3646SOL    HW218054   1.780   5.481   3.950 -2.6964  0.6078  1.6487
 3647SOL     OW18055   2.877   4.611   5.843 -0.6848  0.1821 -0.3124
 3647SOL    HW118056   2.923   4.678   5.791 -2.1962 -0.2419 -2.3340
 3647SOL    HW218057   2.865   4.538   5.782 -2.3046 -0.4647  0.7195
 3648SOL     OW18058   9.552   0.830  12.144 -0.0334  0.0264 -0.5673
 3648SOL    HW118059   9.586   0.916  12.168  1.1294 -0.5111 -0.2213
 3648SOL    HW218060   9.484   0.812  12.208  2.6820 -1.1766  2.2667
 3649SOL     OW18061  10.001  10.390   1.321  0.3576  0.4392 -0.6920
 3649SOL    HW118062   9.933  10.435   1.372  0.1392 -0.1427 -0.4586
 3649SOL    HW218063   9.959  10.368   1.238 -0.6160 -2.2195  0.3949
 3650SOL     OW18064   7.748  11.131   2.124  0.2701  0.5266  0.2281
 3650SOL    HW118065   7.708  11.195   2.064 -3.3831 -2.4574 -0.9049
 3650SOL    HW218066   7.703  11.146   2.207  1.0653  0.8317  0.6154
 3651SOL     OW18067   8.598   6.680   8.236 -0.2332 -0.1747 -0.1700
 3651SOL    HW118068   8.649   6.607   8.201  1.6293  1.6452 -1.4720
 3651SOL    HW218069   8.522   6.686   8.178  0.3581 -0.2057 -0.9657
 3652SOL     OW18070   3.835   0.593   2.077  0.1584 -0.3201 -0.5079
 3652SOL    HW118071   3.777   0.536   2.026  1.4598 -3.2205  1.0376
 3652SOL    HW218072   3.778   0.665   2.105 -2.2939 -2.1105 -0.4752
 3653SOL     OW18073   1.192   8.476  10.996  0.9547 -0.1606 -0.0048
 3653SOL    HW118074   1.218   8.401  11.049  0.6463  0.7758  1.5439
 3653SOL    HW218075   1.108   8.503  11.032  1.0683  0.9375 -0.5102
 3654SOL     OW18076  12.732   2.665   4.812 -0.1624 -0.1029  0.4520
 3654SOL    HW118077  12.644   2.673   4.849 -0.3807 -0.9176  0.1331
 3654SOL    HW218078  12.722   2.603   4.740  0.6567 -0.1228  0.3487
 3655SOL     OW18079  12.347   2.816  10.823  0.5432  0.7164  0.1945
 3655SOL    HW118080  12.425   2.871  10.818 -0.3307  2.0249  0.4792
 3655SOL    HW218081  12.310   2.818  10.735 -0.4959  2.1398  0.6316
 3656SOL     OW18082   5.642   2.001  12.195 -0.0461 -0.1056  1.2608
 3656SOL    HW118083   5.573   2.040  12.142 -1.1891 -0.9080  2.1173
 3656SOL    HW218084   5.671   1.925  12.145 -0.1978 -0.1006  1.1659
 3657SOL     OW18085   1.266   9.946  12.064  0.5486  0.3163  0.4334
 3657SOL    HW118086   1.291   9.979  12.150 -0.6138  0.7485  0.6315
 3657SOL    HW218087   1.292   9.854  12.065 -0.3149  0.0522  1.6332
 3658SOL     OW18088   7.513   8.641   1.458  0.1258  0.0015  0.1654
 3658SOL    HW118089   7.580   8.580   1.489  1.1402  1.1189  0.2279
 3658SOL    HW218090   7.431   8.595   1.474  0.6653 -0.1355  3.0347
 3659SOL     OW18091   5.558   9.462   4.507  0.1468 -0.2515 -0.4605
 3659SOL    HW118092   5.624   9.521   4.542  0.9005  0.0093 -2.2006
 3659SOL    HW218093   5.608   9.387   4.474 -0.7373 -1.5973  1.1040
 3660SOL     OW18094   2.844  12.285   1.707 -0.3410 -0.4367 -0.0479
 3660SOL    HW118095   2.911  12.247   1.764 -0.3631  2.0747  1.8371
 3660SOL    HW218096   2.846  12.379   1.726 -2.1520  0.1820 -2.3806
 3661SOL     OW18097   6.567   7.264   5.056 -0.5974 -0.6275 -0.0402
 3661SOL    HW118098   6.555   7.205   4.982  1.2327 -0.2610 -0.6862
 3661SOL    HW218099   6.488   7.253   5.109 -1.2460 -2.0508 -1.2365
 3662SOL     OW18100   9.899   9.722   4.797  0.2161 -0.0127  0.1103
 3662SOL    HW118101   9.914   9.745   4.888  0.5568  1.8707 -0.3655
 3662SOL    HW218102   9.824   9.775   4.771  0.8604  0.4043 -1.0098
 3663SOL     OW18103   9.922   7.525   0.734 -0.2588  0.5380  0.6202
 3663SOL    HW118104   9.837   7.531   0.779 -1.0910 -0.4475 -0.7445
 3663SOL    HW218105   9.982   7.492   0.800 -1.4860 -1.0631  1.0045
 3664SOL     OW18106   0.973   9.948   2.079 -0.1524  0.1523 -0.0160
 3664SOL    HW118107   0.999  10.040   2.069 -1.2255  0.5017  0.2081
 3664SOL    HW218108   0.899   9.952   2.140  0.3777 -0.9626  0.7204
 3665SOL     OW18109   3.012  10.490  12.355  0.0145  0.7828  0.7096
 3665SOL    HW118110   2.971  10.500  12.269  0.5155  0.1711  0.3800
 3665SOL    HW218111   3.102  10.521  12.342  1.4211 -3.0324 -0.1889
 3666SOL     OW18112   4.075  12.404  11.252  0.4784 -0.1573  0.2419
 3666SOL    HW118113   4.170  12.402  11.263  0.4655 -0.8557  0.2386
 3666SOL    HW218114   4.043  12.456  11.326  0.7637 -0.9733  0.9525
 3667SOL     OW18115   7.840   8.918  12.037  0.8181 -0.1778  0.9394
 3667SOL    HW118116   7.833   8.999  12.087 -0.3571  0.6770 -0.5162
 3667SOL    HW218117   7.922   8.879  12.065  0.6255  0.6833  2.8686
 3668SOL     OW18118  11.017   8.244   7.831 -0.5945  0.5643 -0.0032
 3668SOL    HW118119  10.968   8.185   7.773  0.4025  1.7825 -2.2337
 3668SOL    HW218120  11.016   8.200   7.916 -1.1483 -1.9273 -1.1843
 3669SOL     OW18121  10.378  12.466   8.747 -0.1634 -0.0098 -0.0877
 3669SOL    HW118122  10.439  12.412   8.796  0.5832  1.5833  0.8043
 3669SOL    HW218123  10.300  12.472   8.803  0.7313  1.9034  1.0548
 3670SOL     OW18124  12.225  12.655   4.754 -0.6635  0.2573 -0.1323
 3670SOL    HW118125  12.243  12.640   4.846  1.7674  0.9943 -0.3985
 3670SOL    HW218126  12.267  12.582   4.708 -0.7003  0.5884 -0.7135
 3671SOL     OW18127  12.270   0.805   4.798 -0.3117  0.9339  0.3381
 3671SOL    HW118128  12.233   0.882   4.755 -0.5933  0.6567  0.0791
 3671SOL    HW218129  12.247   0.816   4.890  2.2132  2.6638  0.8718
 3672SOL     OW18130   1.950   4.369   3.352 -0.1949  0.3712  0.1006
 3672SOL    HW118131   2.007   4.295   3.333 -0.7814  0.4793 -2.4376
 3672SOL    HW218132   1.958   4.426   3.275 -0.9619  2.1680  1.2855
 3673SOL     OW18133  11.066   0.886   2.047  0.2406 -0.6728 -0.4964
 3673SOL    HW118134  11.070   0.791   2.053 -0.0229 -0.6123  1.3854
 3673SOL    HW218135  10.995   0.910   2.106  1.4380  0.7838  0.4156
 3674SOL     OW18136  11.149   5.091   3.122  0.4166  0.5027 -0.4266
 3674SOL    HW118137  11.090   5.027   3.162  1.5765 -0.4198 -0.1506
 3674SOL    HW218138  11.112   5.105   3.035  1.7112 -2.8802 -1.7078
 3675SOL     OW18139   6.036   8.541  12.384  0.4688  0.4302 -0.3266
 3675SOL    HW118140   6.125   8.509  12.401  0.3031  0.4819  0.7613
 3675SOL    HW218141   5.980   8.483  12.436 -0.2869 -0.5680 -2.1887
 3676SOL     OW18142   2.519  11.189  12.491  0.3449  0.2628  0.3911
 3676SOL    HW118143   2.517  11.223  12.581  0.9298  0.0833  0.4776
 3676SOL    HW218144   2.428  11.190  12.463 -0.0219 -0.8414  1.4393
 3677SOL     OW18145   8.014   6.275   7.569 -0.3284 -0.0882  0.0246
 3677SOL    HW118146   8.023   6.356   7.619  0.5325  0.6469 -1.2668
 3677SOL    HW218147   7.979   6.302   7.485  1.0893 -0.8687 -0.8565
 3678SOL     OW18148   7.171  11.924   2.711  0.4281  0.2402 -0.4359
 3678SOL    HW118149   7.241  11.933   2.774 -0.6422  1.4277  0.6435
 3678SOL    HW218150   7.093  11.907   2.763 -0.2315 -0.2980 -1.5469
 3679SOL     OW18151   5.924  11.725   0.634 -0.4304  0.2744  0.3045
 3679SOL    HW118152   5.937  11.818   0.613  0.1803 -0.0361 -0.7700
 3679SOL    HW218153   5.907  11.684   0.549 -1.7717 -0.4378  0.8953
 3680SOL     OW18154   4.284  12.740   3.282 -0.3382  0.1134  0.3893
 3680SOL    HW118155   4.361  12.765   3.232 -1.2902  2.8108  0.1268
 3680SOL    HW218156   4.242  12.671   3.230  1.4050 -0.8377  0.1555
 3681SOL     OW18157  12.277   9.118   1.568 -0.2050 -0.0730 -0.2262
 3681SOL    HW118158  12.227   9.037   1.578  0.2762 -0.8616 -3.1983
 3681SOL    HW218159  12.211   9.187   1.567 -1.3197 -0.9955 -3.0085
 3682SOL     OW18160   9.782  12.422   6.115 -0.1050  0.0297  0.3939
 3682SOL    HW118161   9.843  12.420   6.189  1.2475 -0.8811 -0.7041
 3682SOL    HW218162   9.813  12.494   6.060 -2.0766  1.8010  1.4248
 3683SOL     OW18163  11.112   9.096   5.851  0.0361  0.1498 -0.0753
 3683SOL    HW118164  11.085   9.024   5.794 -1.9157  0.4637  0.3890
 3683SOL    HW218165  11.119   9.171   5.793 -1.9782  0.4762  0.0235
 3684SOL     OW18166   6.757  11.396   8.625 -0.4847 -0.2263  0.4817
 3684SOL    HW118167   6.748  11.308   8.588  2.0555 -0.5348  0.3694
 3684SOL    HW218168   6.827  11.437   8.573 -1.6801  1.9284  0.4607
 3685SOL     OW18169   4.263   4.938   6.346 -0.4332 -0.0956 -0.6440
 3685SOL    HW118170   4.196   5.002   6.323 -0.3872 -0.6373 -2.4365
 3685SOL    HW218171   4.216   4.854   6.345 -0.3485 -0.2047  1.0412
 3686SOL     OW18172  12.464   0.429  11.283  0.4599  0.3018 -0.0499
 3686SOL    HW118173  12.412   0.458  11.358  0.8710  0.3797  0.2111
 3686SOL    HW218174  12.455   0.334  11.283 -1.1178  0.4288 -1.0749
 3687SOL     OW18175  10.238   2.851  11.934  0.2656 -0.2949 -0.1923
 3687SOL    HW118176  10.144   2.868  11.945  0.4272  0.7740 -0.4214
 3687SOL    HW218177  10.271   2.842  12.023  0.1444  0.4210 -0.0741
 3688SOL     OW18178   3.049   0.001   1.326  0.2438 -0.2645 -0.7668
 3688SOL    HW118179   3.125  -0.024   1.379  0.8587 -0.4893 -1.7205
 3688SOL    HW218180   2.982   0.025   1.389 -0.0356 -3.2803  0.2315
 3689SOL     OW18181   4.216  12.790  11.862  0.2443 -0.0917 -0.4425
 3689SOL    HW118182   4.134  12.741  11.853  1.0599 -1.3673 -1.2205
 3689SOL    HW218183   4.259  12.751  11.938  0.7994 -0.4558 -0.9343
 3690SOL     OW18184  10.635   8.079   7.576  0.4580 -0.5918 -0.1819
 3690SOL    HW118185  10.641   8.102   7.484 -1.2532 -0.9310 -0.4142
 3690SOL    HW218186  10.627   7.984   7.578  2.2942 -0.7651  0.4533
 3691SOL     OW18187   1.582   4.904   1.117 -0.6033 -0.2796 -0.2502
 3691SOL    HW118188   1.503   4.853   1.136 -0.2932 -1.4480 -1.8803
 3691SOL    HW218189   1.630   4.852   1.052  2.3703 -0.4192  1.8674
 3692SOL     OW18190   4.555   1.954   6.216  0.2079  0.1272  0.1480
 3692SOL    HW118191   4.488   2.015   6.248  1.2213  0.5473  1.5741
 3692SOL    HW218192   4.571   1.982   6.125 -2.4094 -0.7954 -0.6789
 3693SOL     OW18193   1.844   3.592   2.222  0.3568  0.6541  0.1426
 3693SOL    HW118194   1.894   3.512   2.233 -0.0432  0.5348  1.1881
 3693SOL    HW218195   1.872   3.627   2.137  0.7052 -0.4578 -0.2075
 3694SOL     OW18196  11.467   2.926   5.057 -0.6036  0.3501  0.2193
 3694SOL    HW118197  11.416   2.905   4.979  2.3392 -0.9719 -1.4967
 3694SOL    HW218198  11.486   3.020   5.048 -3.0607  1.0310  1.2168
 3695SOL     OW18199   8.597   4.729   9.712 -0.1746  0.5977 -0.0006
 3695SOL    HW118200   8.690   4.720   9.691 -0.5479 -2.0680 -0.8108
 3695SOL    HW218201   8.595   4.792   9.784  2.2203  0.8002 -0.0231
 3696SOL     OW18202   6.253   4.476   3.094 -0.9793  0.1678  0.3472
 3696SOL    HW118203   6.303   4.457   3.173 -0.5869 -1.4500 -0.2358
 3696SOL    HW218204   6.212   4.561   3.110  1.6635  1.4117  1.0097
 3697SOL     OW18205   4.027   4.863   4.994  0.3289  0.3389 -0.2199
 3697SOL    HW118206   4.086   4.802   5.038 -0.2546  0.1213  0.2901
 3697SOL    HW218207   3.974   4.807   4.937  0.5999  0.5290 -0.6612
 3698SOL     OW18208  12.363  12.600   4.131 -0.0510  0.3465 -0.1491
 3698SOL    HW118209  12.362  12.683   4.180  0.3226 -0.8631  2.0298
 3698SOL    HW218210  12.286  12.605   4.075 -2.3115  0.6447  2.7456
 3699SOL     OW18211   9.425   5.086  11.433 -0.0097 -0.0554 -0.4122
 3699SOL    HW118212   9.511   5.100  11.394  0.1616 -0.1098 -0.0620
 3699SOL    HW218213   9.443   5.039  11.514 -0.3044  0.5494  0.0167
 3700SOL     OW18214   5.607   9.238   1.705  0.1900 -0.0832  0.0954
 3700SOL    HW118215   5.539   9.217   1.770  0.4622 -0.7012  0.1800
 3700SOL    HW218216   5.689   9.237   1.754  0.2901  0.4450 -0.0542
 3701SOL     OW18217   0.647   6.267   7.467 -0.2797  0.2804  0.8127
 3701SOL    HW118218   0.594   6.188   7.476 -1.6876  1.3890  3.3424
 3701SOL    HW218219   0.734   6.242   7.500 -0.0967 -0.7083 -0.3581
 3702SOL     OW18220   9.106   1.438   7.980  0.1108 -0.3106  0.1099
 3702SOL    HW118221   9.056   1.419   7.901  1.1155  1.1569 -0.9329
 3702SOL    HW218222   9.046   1.489   8.035  0.8137  2.8478 -1.8096
 3703SOL     OW18223   5.769   5.828   5.691  0.6111  0.1440  0.2338
 3703SOL    HW118224   5.779   5.795   5.780  0.3707 -1.3264 -0.2677
 3703SOL    HW218225   5.857   5.827   5.655  0.2991 -2.8863 -0.7438
 3704SOL     OW18226   5.194  11.680   0.332 -0.0796 -0.4993  0.3259
 3704SOL    HW118227   5.249  11.609   0.366 -1.0099 -0.8423  1.1919
 3704SOL    HW218228   5.146  11.640   0.259  0.6536 -0.2634 -0.2864
 3705SOL     OW18229  10.757   6.961   3.386 -0.8348  0.1265  0.1438
 3705SOL    HW118230  10.795   6.988   3.302 -0.2614 -1.8235 -0.2875
 3705SOL    HW218231  10.736   6.868   3.373 -3.2009  0.4345  1.3201
 3706SOL     OW18232   8.027  10.442  10.458  0.2733 -0.0670 -0.0634
 3706SOL    HW118233   7.999  10.517  10.509  2.6511  0.7313  0.1983
 3706SOL    HW218234   8.027  10.473  10.367 -1.1138 -0.5698 -0.2613
 3707SOL     OW18235  12.184  11.330   5.893 -0.2030  0.0598  0.0574
 3707SOL    HW118236  12.109  11.297   5.942 -0.3614  0.7777  0.3127
 3707SOL    HW218237  12.213  11.407   5.941  1.2964 -0.7272  0.4829
 3708SOL     OW18238   0.752   4.438   8.984  0.1446  0.0184 -0.0761
 3708SOL    HW118239   0.737   4.374   9.054 -3.3674  1.4416  0.7003
 3708SOL    HW218240   0.674   4.432   8.929  0.9172  1.8197 -1.4880
 3709SOL     OW18241   6.593   7.716   8.003  0.7064 -0.0406  0.2386
 3709SOL    HW118242   6.594   7.749   8.093 -0.7433  1.5911 -0.2961
 3709SOL    HW218243   6.539   7.637   8.007 -0.4050  0.7118  0.6146
 3710SOL     OW18244   4.342   8.819   7.947 -0.1117  0.2303 -0.3245
 3710SOL    HW118245   4.436   8.805   7.958 -0.3080 -1.7830 -0.7733
 3710SOL    HW218246   4.329   8.831   7.853 -0.4853 -1.4695 -0.5185
 3711SOL     OW18247  10.278  10.986   4.949 -0.1395  0.3126  0.2552
 3711SOL    HW118248  10.341  11.011   5.017 -1.1732  1.6282  0.7777
 3711SOL    HW218249  10.293  11.049   4.879 -1.2807  1.0643  0.6564
 3712SOL     OW18250   5.309   6.980   6.444 -0.3512  0.4416 -0.1423
 3712SOL    HW118251   5.271   6.894   6.461 -0.0733  0.4358  0.4594
 3712SOL    HW218252   5.268   7.038   6.507  0.5197  0.4659  0.4174
 3713SOL     OW18253   3.969   3.405   8.569  0.5961  0.6239  0.1231
 3713SOL    HW118254   4.034   3.427   8.635  0.4178  1.4927  0.0160
 3713SOL    HW218255   3.980   3.472   8.501 -2.8283  3.1057  1.7536
 3714SOL     OW18256   9.703   8.881   2.673  0.0252  0.3705 -0.2787
 3714SOL    HW118257   9.709   8.952   2.737  1.0207 -0.5361  0.6817
 3714SOL    HW218258   9.610   8.859   2.670  0.0796 -0.4874  1.9563
 3715SOL     OW18259   9.316   3.582   8.883 -0.3885 -0.3177  0.4377
 3715SOL    HW118260   9.367   3.503   8.861 -1.0616 -0.4072 -0.8755
 3715SOL    HW218261   9.244   3.549   8.936 -1.0938 -0.7239 -0.7337
 3716SOL     OW18262   9.035   7.336   5.299 -0.1219 -0.0848 -0.1977
 3716SOL    HW118263   8.975   7.267   5.327  0.1867  0.4325  1.9487
 3716SOL    HW218264   8.978   7.404   5.265 -0.5672 -0.6086 -0.5172
 3717SOL     OW18265   7.229  11.395   5.073  0.5540  0.6057 -0.5160
 3717SOL    HW118266   7.288  11.339   5.124 -2.8076 -1.8249  1.1239
 3717SOL    HW218267   7.273  11.404   4.988  3.4462 -0.5691  0.7086
 3718SOL     OW18268   1.942   2.032   3.519  0.7902  0.1287 -0.3033
 3718SOL    HW118269   1.981   2.108   3.476  1.4586  0.2473  0.4974
 3718SOL    HW218270   1.948   2.051   3.612 -0.3118 -0.2941 -0.1313
 3719SOL     OW18271   6.675  12.900  10.404  0.5748 -0.0652 -0.7723
 3719SOL    HW118272   6.670  12.954  10.483  0.1535 -0.7144 -0.3469
 3719SOL    HW218273   6.648  12.958  10.333  2.2353  0.9184 -0.6520
 3720SOL     OW18274   1.534   8.937   1.802 -0.2833 -0.0723  0.0075
 3720SOL    HW118275   1.578   8.990   1.868  0.5421 -2.3536  1.4081
 3720SOL    HW218276   1.581   8.956   1.721  0.2294  0.9946  0.5298
 3721SOL     OW18277  12.756   5.582   7.095  0.2605 -0.0827 -0.0602
 3721SOL    HW118278  12.795   5.638   7.029  0.0857 -0.7275 -0.7307
 3721SOL    HW218279  12.816   5.508   7.103 -1.1876 -1.5548 -1.7764
 3722SOL     OW18280   3.216  10.775   9.535 -0.0516 -0.1212  0.4153
 3722SOL    HW118281   3.147  10.731   9.485 -0.2517 -1.5308  1.8655
 3722SOL    HW218282   3.298  10.741   9.499 -0.1944 -1.0137  0.8953
 3723SOL     OW18283   5.096  12.155   1.933  0.4141  0.3574  0.1024
 3723SOL    HW118284   5.179  12.108   1.925 -0.6911 -1.4438 -2.1233
 3723SOL    HW218285   5.065  12.134   2.021 -0.0384 -3.3347 -0.7835
 3724SOL     OW18286   1.153   1.268   0.859  0.0935  0.1293 -0.0203
 3724SOL    HW118287   1.206   1.316   0.795  0.0501  0.4739  0.1996
 3724SOL    HW218288   1.212   1.257   0.934 -0.6253  1.8811  0.8414
 3725SOL     OW18289  11.728   1.243   3.298 -0.2585  0.2199 -0.3250
 3725SOL    HW118290  11.771   1.327   3.288 -1.4977  0.7030 -2.1001
 3725SOL    HW218291  11.793   1.179   3.270  1.5123  0.2637  3.1584
 3726SOL     OW18292   4.512   8.567   7.759  0.1540  0.2559  0.1619
 3726SOL    HW118293   4.495   8.547   7.851  1.6423  1.1513  0.6815
 3726SOL    HW218294   4.462   8.647   7.742  0.2970  0.3916  0.3678
 3727SOL     OW18295  11.026   2.204   6.203  0.5050 -0.3541  0.9642
 3727SOL    HW118296  11.107   2.154   6.218  0.1045 -1.1513  0.5326
 3727SOL    HW218297  11.000   2.181   6.114  0.0391  0.2478  0.9427
 3728SOL     OW18298   4.968   5.873  12.610 -0.1455 -0.2934 -0.2593
 3728SOL    HW118299   5.013   5.905  12.532  1.9935 -0.5957  0.7637
 3728SOL    HW218300   4.932   5.788  12.584 -3.4662  1.4721 -2.1674
 3729SOL     OW18301   9.853   4.293   2.703 -0.2675  0.2168 -0.0492
 3729SOL    HW118302   9.923   4.319   2.763 -0.5029 -2.7297  1.6888
 3729SOL    HW218303   9.888   4.218   2.655 -1.5650 -0.0958 -0.5468
 3730SOL     OW18304   8.757  11.047   4.358  0.8541 -0.3231  0.2148
 3730SOL    HW118305   8.713  11.089   4.284  1.1633 -0.7437 -0.2160
 3730SOL    HW218306   8.848  11.037   4.328  1.2380  0.4799  1.0648
 3731SOL     OW18307   7.154   9.130  11.896 -0.0628  0.4963  0.6748
 3731SOL    HW118308   7.116   9.210  11.931 -0.6136  1.0209 -0.9945
 3731SOL    HW218309   7.088   9.062  11.914 -1.1797  1.1081 -0.8409
 3732SOL     OW18310   2.399  11.362  11.156 -0.9365 -0.0768 -0.0581
 3732SOL    HW118311   2.363  11.408  11.080 -2.0800 -1.7564 -0.5966
 3732SOL    HW218312   2.485  11.402  11.170 -2.2629  2.9558  0.2145
 3733SOL     OW18313   9.730  11.444   3.835  0.3056  0.3501 -0.5572
 3733SOL    HW118314   9.767  11.417   3.919 -0.3064  1.2660  0.0311
 3733SOL    HW218315   9.759  11.378   3.773  0.8504 -0.2891  0.3606
 3734SOL     OW18316   7.121  11.807   4.929  0.0995 -0.4572 -0.2665
 3734SOL    HW118317   7.057  11.789   4.998  2.2647  1.3207  2.4818
 3734SOL    HW218318   7.206  11.799   4.973  1.6398  0.6694 -2.7945
 3735SOL     OW18319  10.985  10.567   8.469 -0.2242 -0.0296  0.2280
 3735SOL    HW118320  11.042  10.569   8.546 -1.1870 -2.9765  1.1531
 3735SOL    HW218321  10.904  10.609   8.499  0.2503  1.0980 -0.0185
 3736SOL     OW18322   1.680   5.599  11.718  0.1259  0.0822 -0.1356
 3736SOL    HW118323   1.740   5.623  11.648 -0.4776  0.9551 -0.3767
 3736SOL    HW218324   1.604   5.562  11.672  0.1967 -0.4006  0.1291
 3737SOL     OW18325  12.554   3.235   1.038 -0.4794  0.4607 -0.1672
 3737SOL    HW118326  12.468   3.236   1.080 -0.7192  3.1113 -0.5574
 3737SOL    HW218327  12.534   3.228   0.944 -0.0737 -2.0507 -0.1379
 3738SOL     OW18328  10.759   4.890   2.074  0.6791  0.2746 -0.2320
 3738SOL    HW118329  10.809   4.951   2.127 -2.2261  0.6769  2.2873
 3738SOL    HW218330  10.766   4.806   2.121  0.6145 -0.1415 -0.9504
 3739SOL     OW18331   2.690   4.385   0.548 -0.3382 -0.4307 -0.1116
 3739SOL    HW118332   2.683   4.297   0.583 -3.4308  0.4786  1.9340
 3739SOL    HW218333   2.666   4.377   0.456 -0.7240 -1.6956  0.0898
 3740SOL     OW18334   5.925   8.459  11.653  0.4127 -0.4252  0.7802
 3740SOL    HW118335   5.875   8.434  11.730 -0.1282  0.6441  0.8040
 3740SOL    HW218336   6.011   8.419  11.664 -0.4040 -2.2739  0.7671
 3741SOL     OW18337   1.638  12.472   3.462 -0.1074  0.0056  0.2052
 3741SOL    HW118338   1.606  12.506   3.378 -1.0304 -1.6410 -0.1607
 3741SOL    HW218339   1.733  12.475   3.455 -0.1545  1.7908 -0.0667
 3742SOL     OW18340   4.693   9.447   6.665 -0.8364  0.2177  0.0004
 3742SOL    HW118341   4.714   9.488   6.749  3.2357  0.0186 -0.6849
 3742SOL    HW218342   4.713   9.515   6.601 -1.0037 -0.5787 -0.9102
 3743SOL     OW18343   8.873   6.328   3.448  0.1363  0.2116  0.3035
 3743SOL    HW118344   8.809   6.258   3.432  1.0368 -0.8464  1.1844
 3743SOL    HW218345   8.821   6.408   3.447 -0.6759 -0.2120 -2.6458
 3744SOL     OW18346  11.977   8.000   1.267 -0.0269  0.4159  0.7645
 3744SOL    HW118347  12.003   7.914   1.235  0.1118  0.7916 -0.1433
 3744SOL    HW218348  11.895   7.985   1.313  0.0757 -0.2214  0.7413
 3745SOL     OW18349   2.129  11.690   9.896  0.5297 -0.0081  0.5429
 3745SOL    HW118350   2.034  11.684   9.901  0.6512 -3.3267  1.0159
 3745SOL    HW218351   2.146  11.731   9.811 -1.4110 -2.8060 -1.3761
 3746SOL     OW18352   3.505   4.756   4.868  0.0651  0.5956  0.0280
 3746SOL    HW118353   3.441   4.720   4.929  0.2137  0.3974  0.0690
 3746SOL    HW218354   3.538   4.680   4.820 -1.6187  0.9518 -1.8503
 3747SOL     OW18355  12.301  12.497   7.379  0.0861 -0.0546 -0.2760
 3747SOL    HW118356  12.316  12.475   7.471 -0.7757  0.7015  0.0666
 3747SOL    HW218357  12.206  12.512   7.373 -0.1346 -1.7025 -1.6544
 3748SOL     OW18358   2.262   6.946   3.330  0.6334 -0.0091  0.1227
 3748SOL    HW118359   2.277   6.975   3.240  2.0033  0.4727  0.4872
 3748SOL    HW218360   2.321   6.871   3.341  0.7887  0.1998  0.7424
 3749SOL     OW18361   3.972  11.730   2.696 -0.4084 -0.1256 -0.0171
 3749SOL    HW118362   4.008  11.788   2.763  2.1600  1.3958 -2.5109
 3749SOL    HW218363   3.900  11.779   2.657  0.3092  0.4658 -0.6188
 3750SOL     OW18364  10.533   4.956   0.223  0.1486 -0.4603  0.2869
 3750SOL    HW118365  10.625   4.978   0.226  0.2071 -0.7765  2.4056
 3750SOL    HW218366  10.531   4.860   0.231 -0.3434 -0.5653 -0.8889
 3751SOL     OW18367   1.188   0.906   2.915  0.2122  0.3398 -0.5055
 3751SOL    HW118368   1.271   0.899   2.868  1.1263  3.1304  0.4875
 3751SOL    HW218369   1.202   0.857   2.996  1.2331  1.4751  0.0309
 3752SOL     OW18370  11.164   1.010   5.654 -0.0047  0.1209  0.2467
 3752SOL    HW118371  11.187   0.995   5.746  0.7024 -0.4083 -0.0074
 3752SOL    HW218372  11.129   1.099   5.652  0.9014  0.5066  0.8668
 3753SOL     OW18373   5.363   3.249   5.688 -0.6525 -0.1956 -0.5845
 3753SOL    HW118374   5.411   3.179   5.644 -0.3824 -1.3212  1.3715
 3753SOL    HW218375   5.384   3.238   5.781 -2.2769  1.1878  0.0030
 3754SOL     OW18376   9.345   2.683  10.852 -0.1470 -0.1023 -0.6917
 3754SOL    HW118377   9.417   2.720  10.802 -0.3906  1.6686  0.1934
 3754SOL    HW218378   9.284   2.650  10.786 -0.1629  1.5821 -1.5614
 3755SOL     OW18379   7.783   0.730   2.592  0.1275  0.6044 -0.0351
 3755SOL    HW118380   7.737   0.701   2.514 -1.7380  0.5062  1.0398
 3755SOL    HW218381   7.785   0.826   2.586  0.7275  0.5652 -0.5724
 3756SOL     OW18382   9.410   6.352  10.760 -0.5953 -0.2254  0.4396
 3756SOL    HW118383   9.452   6.438  10.771 -0.7422 -0.0073 -0.5834
 3756SOL    HW218384   9.454   6.295  10.823 -0.1343  0.4723  0.7597
 3757SOL     OW18385   3.924   5.086  12.904  0.0395 -0.1955 -0.1471
 3757SOL    HW118386   3.890   5.081  12.993 -0.3936 -0.4632 -0.3192
 3757SOL    HW218387   3.991   5.018  12.899 -0.1062 -0.3430 -0.0957
 3758SOL     OW18388   6.853   2.789  11.453  0.3063 -0.0750  0.0439
 3758SOL    HW118389   6.875   2.763  11.542  0.1369  2.2629  0.8387
 3758SOL    HW218390   6.785   2.726  11.426 -0.8742  0.1568  2.2228
 3759SOL     OW18391   3.361   7.630   0.289  0.0956 -0.6871  0.1403
 3759SOL    HW118392   3.388   7.541   0.312 -0.9068 -0.7414  1.2360
 3759SOL    HW218393   3.358   7.676   0.373 -1.3753 -0.2145 -0.1322
 3760SOL     OW18394   2.548   0.811   7.295  0.1975 -0.2723  0.9623
 3760SOL    HW118395   2.567   0.758   7.373  1.3864  2.7029  2.8533
 3760SOL    HW218396   2.633   0.837   7.262 -0.3432  0.1746 -0.1330
 3761SOL     OW18397  11.357   0.458   3.748  0.2764  0.6584 -0.0583
 3761SOL    HW118398  11.415   0.533   3.734 -0.0386  0.9328  0.1081
 3761SOL    HW218399  11.377   0.398   3.676  0.6094  0.8502 -0.1271
 3762SOL     OW18400  12.678   1.986   8.705 -0.2539  0.3154  0.5871
 3762SOL    HW118401  12.610   2.021   8.763 -0.2962  0.1746  0.6237
 3762SOL    HW218402  12.755   1.978   8.761 -1.3160 -3.7766  1.8541
 3763SOL     OW18403   5.218   1.718   9.261  0.7300 -0.3102 -0.2345
 3763SOL    HW118404   5.133   1.760   9.274  0.9956  0.1494  0.0438
 3763SOL    HW218405   5.282   1.783   9.291  1.1886 -0.5778 -0.6193
 3764SOL     OW18406   4.172  10.152   1.307 -0.2057  0.0866  0.5010
 3764SOL    HW118407   4.160  10.092   1.233  0.3135  2.4664 -1.6910
 3764SOL    HW218408   4.267  10.160   1.315 -0.2660  0.1080  1.2018
 3765SOL     OW18409  12.577   6.159   7.942 -0.1754 -0.1350 -0.7138
 3765SOL    HW118410  12.565   6.252   7.921  0.1391  0.1379  0.3002
 3765SOL    HW218411  12.656   6.134   7.894 -0.3365  0.0754 -1.0992
 3766SOL     OW18412  11.914   7.174   4.502 -0.4523 -0.2034  0.0800
 3766SOL    HW118413  11.999   7.155   4.463 -1.2754 -0.2575 -1.7831
 3766SOL    HW218414  11.931   7.177   4.596  1.4135 -1.1694 -0.1828
 3767SOL     OW18415   1.553   1.096   8.221 -0.2403 -0.0592  0.1304
 3767SOL    HW118416   1.643   1.093   8.190 -0.5591  0.5011 -0.9013
 3767SOL    HW218417   1.505   1.037   8.163 -0.4938 -0.6144  0.8800
 3768SOL     OW18418  11.406   8.774   9.737 -0.1366 -0.4314 -0.5250
 3768SOL    HW118419  11.351   8.777   9.658 -0.7901  2.6102 -0.0610
 3768SOL    HW218420  11.352   8.814   9.805  1.7549  0.3435  0.5768
 3769SOL     OW18421   8.940  10.518   8.251  0.1281  0.8244 -0.1016
 3769SOL    HW118422   8.999  10.505   8.176 -0.8681  0.5366 -0.8582
 3769SOL    HW218423   8.905  10.431   8.269  0.4100  0.8777  0.7644
 3770SOL     OW18424   1.464   1.504   6.181  0.4428  0.0948 -0.8847
 3770SOL    HW118425   1.540   1.510   6.238 -1.0550 -0.6534  1.3642
 3770SOL    HW218426   1.499   1.489   6.094  2.9141  2.5759 -0.4349
 3771SOL     OW18427   6.507  10.932   5.307 -0.9911  0.0383 -0.2520
 3771SOL    HW118428   6.464  10.924   5.222  0.8195  0.2678 -1.2489
 3771SOL    HW218429   6.533  10.843   5.328  1.2785  0.3149 -1.5085
 3772SOL     OW18430  11.762   3.951   0.097 -0.0451  0.1125 -0.0521
 3772SOL    HW118431  11.851   3.970   0.126  0.5265 -1.3743 -0.7102
 3772SOL    HW218432  11.747   4.010   0.024 -0.6899  2.3541  1.7838
 3773SOL     OW18433   9.673   5.203  11.323  0.2277  0.5020 -0.1082
 3773SOL    HW118434   9.740   5.211  11.256  0.6269 -0.1395  0.2056
 3773SOL    HW218435   9.718   5.162  11.398  0.3615  3.1348  1.3668
 3774SOL     OW18436   2.135   9.014   3.371 -0.6708 -0.0268 -0.1311
 3774SOL    HW118437   2.180   9.062   3.441  0.5738 -0.9178 -0.2919
 3774SOL    HW218438   2.053   8.986   3.411 -1.1057  1.6028  0.1885
 3775SOL     OW18439   6.655  12.011   1.921  0.1208  0.3562  0.8581
 3775SOL    HW118440   6.627  12.091   1.965 -0.6340  0.8848 -0.5385
 3775SOL    HW218441   6.593  11.945   1.950 -1.7805  1.1903 -1.0541
 3776SOL     OW18442  12.488   3.320   7.346  0.5387  0.2415 -0.1403
 3776SOL    HW118443  12.513   3.330   7.438  0.5837  0.5873 -0.1892
 3776SOL    HW218444  12.558   3.362   7.297  0.1864  0.6431 -0.3034
 3777SOL     OW18445   5.829  12.335   3.879 -0.5370  0.6229 -0.4451
 3777SOL    HW118446   5.759  12.398   3.862 -0.2912  0.7541 -0.9916
 3777SOL    HW218447   5.803  12.292   3.960 -1.9713 -0.3356 -1.3838
 3778SOL     OW18448   4.499   9.280   3.221 -0.2306 -0.3660  0.1998
 3778SOL    HW118449   4.546   9.241   3.147 -0.0631  0.1491  0.0291
 3778SOL    HW218450   4.566   9.327   3.270 -0.4591 -0.1321  0.2949
 3779SOL     OW18451  11.101   2.614   6.931  0.7366  0.6133 -0.2065
 3779SOL    HW118452  11.105   2.707   6.912  1.0188  0.2546 -2.1125
 3779SOL    HW218453  11.024   2.583   6.882  1.7292 -0.4492 -1.1422
 3780SOL     OW18454  11.182   8.253   1.076  0.4858 -0.1361 -0.3050
 3780SOL    HW118455  11.241   8.188   1.036  0.7597  0.1874 -0.4288
 3780SOL    HW218456  11.194   8.242   1.170 -0.6037 -1.3190 -0.2617
 3781SOL     OW18457   9.345   3.909   2.336 -0.2159  0.0833 -0.2069
 3781SOL    HW118458   9.290   3.914   2.414  0.6951  0.0087  0.4454
 3781SOL    HW218459   9.394   3.827   2.346 -0.8230 -0.4517 -1.3589
 3782SOL     OW18460   6.033   1.725   6.103  0.4197  0.6898 -0.5875
 3782SOL    HW118461   6.116   1.756   6.066  0.4866  0.1877 -0.8708
 3782SOL    HW218462   5.972   1.798   6.090  0.2040  0.2278 -2.5343
 3783SOL     OW18463   1.197   0.402   4.727  0.2059  0.4012  0.3270
 3783SOL    HW118464   1.254   0.355   4.666 -0.7392  1.2079 -1.2707
 3783SOL    HW218465   1.237   0.488   4.736 -0.6947  0.9659 -0.7918
 3784SOL     OW18466   5.421   1.228   6.796  0.0814 -0.2006  0.1750
 3784SOL    HW118467   5.343   1.242   6.850  0.8302  1.2116  0.9522
 3784SOL    HW218468   5.492   1.218   6.859  0.9208  1.1065 -0.5298
 3785SOL     OW18469  12.736   4.354   5.596  0.2950 -0.7504 -0.0010
 3785SOL    HW118470  12.674   4.372   5.525 -0.2648  0.0499  0.6838
 3785SOL    HW218471  12.733   4.432   5.651  1.7522 -0.7908  0.1730
 3786SOL     OW18472   0.864  10.313   1.589  0.1005 -0.8480 -0.0241
 3786SOL    HW118473   0.911  10.347   1.513 -0.7610 -3.0770 -1.6674
 3786SOL    HW218474   0.829  10.391   1.632  1.7643  0.5701 -1.0966
 3787SOL     OW18475   6.076   3.391   7.614 -0.1305 -0.1979 -0.4958
 3787SOL    HW118476   5.988   3.371   7.645  0.1959 -0.5961  0.1975
 3787SOL    HW218477   6.085   3.486   7.627 -0.5299 -0.1194 -0.7790
 3788SOL     OW18478  12.484   9.805   4.996  0.1939  0.0745 -0.0415
 3788SOL    HW118479  12.481   9.755   4.915 -1.4434 -0.9048  0.5697
 3788SOL    HW218480  12.399   9.848   5.001  0.1992 -0.0179  1.2222
 3789SOL     OW18481   6.759   3.820   4.538 -0.1544  0.2704  0.2415
 3789SOL    HW118482   6.725   3.906   4.513  0.1885  0.2968 -0.1447
 3789SOL    HW218483   6.743   3.815   4.632 -0.6219  0.5519  0.1844
 3790SOL     OW18484   6.089   8.749  10.329  0.2512  0.5777 -0.4576
 3790SOL    HW118485   6.178   8.735  10.361  0.3711  0.4816 -0.8334
 3790SOL    HW218486   6.043   8.667  10.350  0.5944  0.1246 -1.4295
 3791SOL     OW18487  12.909  10.073   4.168 -0.3615 -0.1395  0.4617
 3791SOL    HW118488  12.876  10.036   4.250 -1.1250  1.9698  1.1608
 3791SOL    HW218489  12.938  10.161   4.192  2.5732 -0.6141 -0.8553
 3792SOL     OW18490  12.845   9.571   1.142 -0.2032  0.0257 -0.4533
 3792SOL    HW118491  12.931   9.543   1.175 -0.1896  1.0882  0.5079
 3792SOL    HW218492  12.816   9.637   1.205 -2.2104 -1.0341 -0.1949
 3793SOL     OW18493   1.582   8.738  10.069 -0.2394 -0.3723  0.1451
 3793SOL    HW118494   1.626   8.669  10.018 -0.2425  0.4592 -1.0184
 3793SOL    HW218495   1.640   8.813  10.064 -1.6154  0.6568 -1.1792
 3794SOL     OW18496   1.191  12.334   0.680  0.2276 -0.5131  0.3763
 3794SOL    HW118497   1.107  12.381   0.680 -0.6322 -1.9564  1.8372
 3794SOL    HW218498   1.239  12.371   0.606 -1.9264 -0.0617 -0.8822
 3795SOL     OW18499   8.455   9.591   5.381  0.0243 -0.1551 -0.0247
 3795SOL    HW118500   8.471   9.529   5.452  1.8986  0.4677  0.1549
 3795SOL    HW218501   8.516   9.663   5.397 -1.2664  1.2139 -0.8757
 3796SOL     OW18502   4.798   7.603  12.690  0.3463  0.8005  0.0931
 3796SOL    HW118503   4.890   7.604  12.716 -0.3048 -1.0033  2.8427
 3796SOL    HW218504   4.794   7.537  12.621  1.1196  1.0637 -0.2228
 3797SOL     OW18505  12.497   9.132   1.207 -0.1179  0.1858 -0.8555
 3797SOL    HW118506  12.547   9.209   1.180 -1.8975  1.8902  0.4544
 3797SOL    HW218507  12.408   9.149   1.176 -0.9848 -0.3375  1.1790
 3798SOL     OW18508   6.280   7.303   2.331 -0.3905 -0.2736  0.5067
 3798SOL    HW118509   6.204   7.294   2.388 -0.1991 -0.2123  0.7733
 3798SOL    HW218510   6.339   7.361   2.379  0.2573 -1.1279  0.7740
 3799SOL     OW18511   8.815   4.154   6.753 -0.5023  0.4434  0.4237
 3799SOL    HW118512   8.908   4.174   6.739  0.1527 -2.7593 -0.6836
 3799SOL    HW218513   8.780   4.140   6.665 -1.9534  1.0688  0.8695
 3800SOL     OW18514   8.193   9.830   3.997  0.2772 -0.3169 -0.3506
 3800SOL    HW118515   8.167   9.839   4.089 -0.0635 -2.2282 -0.2255
 3800SOL    HW218516   8.185   9.918   3.962 -0.5062  0.2843  1.2161
 3801SOL     OW18517   1.328   0.672   1.222  0.1014 -0.2073 -0.4757
 3801SOL    HW118518   1.249   0.619   1.214  0.9147 -1.5401 -0.0350
 3801SOL    HW218519   1.375   0.633   1.296  0.5949  1.3312  0.0613
 3802SOL     OW18520   7.249   1.818   8.069  0.0703  0.1840 -0.2293
 3802SOL    HW118521   7.291   1.743   8.027 -0.0996 -0.1944  0.2657
 3802SOL    HW218522   7.245   1.885   8.000  1.1424  0.1035 -0.3913
 3803SOL     OW18523   9.994  11.754   1.327 -0.3127  0.2235 -0.1103
 3803SOL    HW118524   9.952  11.720   1.247  2.8866 -1.0088 -1.4180
 3803SOL    HW218525   9.923  11.799   1.373 -3.0108 -1.5911 -2.1449
 3804SOL     OW18526   5.378  12.715   8.667  0.0645  0.4303 -0.2658
 3804SOL    HW118527   5.320  12.776   8.622  0.5054 -0.3417 -1.9799
 3804SOL    HW218528   5.432  12.769   8.724 -1.5260  1.2844  0.4893
 3805SOL     OW18529   5.762  12.275  10.790 -0.3706  0.1485 -0.3883
 3805SOL    HW118530   5.759  12.341  10.859  1.1103  0.3075 -0.4282
 3805SOL    HW218531   5.761  12.325  10.708  1.0386  0.1713 -0.4160
 3806SOL     OW18532   5.374   6.102   3.659 -0.0682  0.1836  0.1936
 3806SOL    HW118533   5.310   6.169   3.634  0.8809  0.7810 -0.7584
 3806SOL    HW218534   5.323   6.033   3.700 -1.0149  1.7266  1.7337
 3807SOL     OW18535   6.936  11.415   7.722 -0.2639  0.1072 -0.4785
 3807SOL    HW118536   6.940  11.396   7.629 -1.5336 -1.3322 -0.2773
 3807SOL    HW218537   6.993  11.349   7.762 -1.2280 -0.5090 -0.1020
 3808SOL     OW18538   8.728   3.632   9.576  0.1861 -0.1774 -0.0137
 3808SOL    HW118539   8.736   3.537   9.578  2.5812 -0.0965 -1.3707
 3808SOL    HW218540   8.808   3.664   9.618 -1.0466  1.3008  1.3734
 3809SOL     OW18541  10.224  10.112   2.829  0.3868  0.0237 -0.0173
 3809SOL    HW118542  10.307  10.159   2.826 -0.7061  2.1371  0.2401
 3809SOL    HW218543  10.182  10.143   2.910 -1.7048  1.0562 -1.3922
 3810SOL     OW18544   4.632   8.991   6.329 -0.0688  0.3121  0.1733
 3810SOL    HW118545   4.628   8.953   6.417 -0.5661  1.2555  0.5752
 3810SOL    HW218546   4.605   9.082   6.341 -0.7774  0.2867 -1.0571
 3811SOL     OW18547   9.820  12.596   6.840  0.1541 -0.6800 -0.0066
 3811SOL    HW118548   9.726  12.606   6.823 -0.0294 -2.3494 -0.1210
 3811SOL    HW218549   9.843  12.672   6.894 -0.1511  2.6030 -4.0051
 3812SOL     OW18550   8.833   5.018   9.722  0.3610  0.2844  0.0228
 3812SOL    HW118551   8.885   4.939   9.716 -0.3830 -0.2245  0.0837
 3812SOL    HW218552   8.835   5.055   9.633 -1.1983 -1.0825 -0.6507
 3813SOL     OW18553   4.542   2.187  12.636  0.2921 -0.2487  0.0079
 3813SOL    HW118554   4.447   2.172  12.632  0.2085  0.3277 -0.3236
 3813SOL    HW218555   4.578   2.130  12.569  0.1674 -0.3582  0.0320
 3814SOL     OW18556  11.715   1.301   0.608 -0.6935 -0.3594 -0.2103
 3814SOL    HW118557  11.805   1.276   0.629 -0.0993  0.7562 -1.3230
 3814SOL    HW218558  11.670   1.300   0.692  0.4103 -0.7034  0.3969
 3815SOL     OW18559   9.105   6.629   9.560  0.0959  0.2966 -0.0992
 3815SOL    HW118560   9.117   6.614   9.654 -0.1436 -0.2540 -0.1506
 3815SOL    HW218561   9.051   6.555   9.531 -0.9557  1.1513 -0.4098
 3816SOL     OW18562  10.048   7.051   6.785  0.5596 -0.0253  1.0275
 3816SOL    HW118563  10.015   6.961   6.778  0.5673  0.0612 -0.5179
 3816SOL    HW218564  10.127   7.052   6.731 -0.4149  1.3316 -0.4620
 3817SOL     OW18565   7.735   4.926   6.573 -0.1719  0.2683 -0.5239
 3817SOL    HW118566   7.654   4.974   6.555 -0.3719  0.4591  0.7554
 3817SOL    HW218567   7.707   4.834   6.576 -0.1144  0.2228 -1.2426
 3818SOL     OW18568   5.337   1.190   3.182  0.7297 -0.2755  0.7818
 3818SOL    HW118569   5.391   1.268   3.198 -0.5774  0.3414  2.3906
 3818SOL    HW218570   5.401   1.120   3.168  1.9404  1.0714 -0.9406
 3819SOL     OW18571   5.767   6.389   5.595  0.4923  0.3836  0.1902
 3819SOL    HW118572   5.764   6.367   5.688  1.6066  0.0351  0.1585
 3819SOL    HW218573   5.811   6.314   5.554  0.7767  0.9133 -0.4890
 3820SOL     OW18574   5.875  10.537   5.235  0.2812 -0.0585  0.8562
 3820SOL    HW118575   5.868  10.573   5.324  0.0377  1.8247  0.1155
 3820SOL    HW218576   5.844  10.607   5.178 -2.8245 -2.3560 -0.5649
 3821SOL     OW18577   2.682   6.112   4.962 -0.0298 -0.7338 -0.2351
 3821SOL    HW118578   2.593   6.097   4.994 -0.2902  1.4394  0.2212
 3821SOL    HW218579   2.738   6.078   5.031 -0.5936  2.1475  1.8294
 3822SOL     OW18580   3.854  12.104   5.683  0.3677 -0.1003  0.1702
 3822SOL    HW118581   3.938  12.065   5.659  0.7296  0.5253  0.3757
 3822SOL    HW218582   3.845  12.179   5.624  0.2758  0.2254  0.5924
 3823SOL     OW18583   1.168   1.879   2.159 -0.6765 -0.3699  0.4082
 3823SOL    HW118584   1.122   1.961   2.177  0.5927  0.7083 -1.0363
 3823SOL    HW218585   1.150   1.861   2.067  0.8238 -0.5232  0.1225
 3824SOL     OW18586   3.506   0.737   5.111 -0.2884  0.2403  1.1637
 3824SOL    HW118587   3.574   0.793   5.076 -1.5436  1.3830  0.4466
 3824SOL    HW218588   3.429   0.755   5.056 -0.7067 -2.3353  0.7669
 3825SOL     OW18589   9.525   7.618  11.217 -0.7886 -0.3567 -0.7855
 3825SOL    HW118590   9.607   7.637  11.172  0.2575 -1.4477  0.5483
 3825SOL    HW218591   9.524   7.523  11.227 -2.8273 -0.5112 -1.8050
 3826SOL     OW18592  12.543  11.225   1.125 -0.2209  0.0034  0.1322
 3826SOL    HW118593  12.590  11.208   1.044  0.3194 -3.6241  1.0243
 3826SOL    HW218594  12.460  11.263   1.098  0.5340  0.2708 -1.9731
 3827SOL     OW18595   8.977   9.011  10.260  0.1973 -0.0077  0.0369
 3827SOL    HW118596   9.023   8.946  10.207 -1.4332 -0.8785 -0.3652
 3827SOL    HW218597   8.886   8.982  10.260 -0.2172  1.1773  1.5335
 3828SOL     OW18598  12.327  12.674  12.168  0.3490  0.2030 -0.3295
 3828SOL    HW118599  12.297  12.583  12.163  0.0232  0.2921 -0.0420
 3828SOL    HW218600  12.253  12.722  12.205  0.0415  0.8153 -1.6849
 3829SOL     OW18601  12.572   5.726   1.482  0.3435  0.9374 -0.7745
 3829SOL    HW118602  12.566   5.631   1.482  1.6674  0.8302 -0.9528
 3829SOL    HW218603  12.526   5.754   1.403 -1.2113  0.5539 -0.0248
 3830SOL     OW18604   7.890   2.104  11.259 -0.1364  0.0285 -0.3180
 3830SOL    HW118605   7.948   2.100  11.335  2.4515  0.4582 -2.1651
 3830SOL    HW218606   7.882   2.198  11.239 -1.8846  0.0196  0.1327
 3831SOL     OW18607   2.197  12.956   6.858 -0.4967 -0.3133  0.6824
 3831SOL    HW118608   2.256  12.984   6.788 -1.0067 -0.5672  0.1431
 3831SOL    HW218609   2.249  12.965   6.938  0.7290 -1.7858  0.1038
 3832SOL     OW18610   1.936   7.142  10.548 -0.0395  0.1524  0.0970
 3832SOL    HW118611   1.847   7.177  10.538 -0.1285 -0.1835 -0.3207
 3832SOL    HW218612   1.946   7.129  10.643 -0.7015 -0.4744  0.0963
 3833SOL     OW18613   3.000  10.266   3.314 -0.0078 -0.2420 -0.4406
 3833SOL    HW118614   2.959  10.196   3.366 -0.4945  0.8195  0.6586
 3833SOL    HW218615   3.078  10.291   3.365 -0.4261  0.7349 -0.2630
 3834SOL     OW18616  12.682   0.470   9.014  0.2337  0.2613  0.8066
 3834SOL    HW118617  12.667   0.465   8.920 -0.0868 -0.0387  0.8720
 3834SOL    HW218618  12.678   0.564   9.034 -2.0887  0.1892  0.8884
 3835SOL     OW18619   5.077  10.217  12.943 -0.3691  0.1107 -0.0156
 3835SOL    HW118620   5.047  10.295  12.990  0.0354  0.0109  0.4129
 3835SOL    HW218621   5.122  10.165  13.009 -0.8874 -0.6289 -0.2292
 3836SOL     OW18622   8.508   9.777  10.643  0.3898 -0.3386  0.2494
 3836SOL    HW118623   8.451   9.748  10.572  1.3048  0.2332 -0.7446
 3836SOL    HW218624   8.571   9.706  10.654  1.1317  0.1814 -0.5175
 3837SOL     OW18625   0.519   9.791   0.379 -0.2485  0.0128 -0.6454
 3837SOL    HW118626   0.503   9.782   0.285 -0.4426  2.0297 -0.8508
 3837SOL    HW218627   0.443   9.839   0.412  0.2065  0.0520  0.3913
 3838SOL     OW18628   0.352   4.848  11.522  0.5969  0.2149  0.0505
 3838SOL    HW118629   0.274   4.877  11.570  0.6498  0.5862 -0.0850
 3838SOL    HW218630   0.337   4.754  11.506  0.7349  0.0000  1.0880
 3839SOL     OW18631   0.282   3.545  11.113 -0.7920 -0.0186 -0.4068
 3839SOL    HW118632   0.354   3.494  11.151 -0.6751 -0.3967 -1.1269
 3839SOL    HW218633   0.305   3.555  11.021  0.3045  3.2807  0.0955
 3840SOL     OW18634   0.486  11.224   0.188  0.1160 -0.2566 -0.1760
 3840SOL    HW118635   0.572  11.215   0.227 -1.0215 -0.4822  2.4728
 3840SOL    HW218636   0.474  11.143   0.138  1.5223 -0.0765 -0.8386
 3841SOL     OW18637   2.641   3.656   6.035 -0.0144 -0.0373  0.1201
 3841SOL    HW118638   2.576   3.646   5.966 -0.8369 -0.8019  0.9654
 3841SOL    HW218639   2.589   3.658   6.116  0.9113  0.8780  0.7185
 3842SOL     OW18640  10.604   0.097   1.149 -0.9301 -0.1474  0.0498
 3842SOL    HW118641  10.523   0.090   1.198 -0.5429 -0.8709  0.6013
 3842SOL    HW218642  10.597   0.030   1.081 -1.2070  0.4518 -0.5310
 3843SOL     OW18643   8.952  12.744   2.557  0.4454 -0.1234  0.5290
 3843SOL    HW118644   8.904  12.712   2.633  0.2505 -2.9945 -0.6864
 3843SOL    HW218645   8.997  12.822   2.588 -0.2492 -0.7586  3.3693
 3844SOL     OW18646   5.759  12.750  11.558 -0.2341  0.3760  0.3533
 3844SOL    HW118647   5.696  12.687  11.524 -1.6325  0.4997  2.5481
 3844SOL    HW218648   5.706  12.825  11.585  1.4588  3.4856 -3.7727
 3845SOL     OW18649  10.458   3.707   3.144 -0.0611  0.6104  0.9827
 3845SOL    HW118650  10.517   3.716   3.219 -0.8276 -0.8560  1.8266
 3845SOL    HW218651  10.472   3.617   3.114 -1.6719  0.3169  1.0470
 3846SOL     OW18652   1.867  11.916  10.332  0.1567  0.3477 -0.1451
 3846SOL    HW118653   1.926  11.892  10.261 -0.4363  1.1363 -0.9139
 3846SOL    HW218654   1.835  11.832  10.365  1.4995 -0.0922  0.1386
 3847SOL     OW18655   3.255  10.458   7.320 -0.1717  0.4576  0.3696
 3847SOL    HW118656   3.182  10.454   7.259  0.1549 -0.8446  0.0193
 3847SOL    HW218657   3.333  10.463   7.265  0.0571  0.5639  0.7009
 3848SOL     OW18658   0.659  12.543  10.637 -0.4375 -0.1022  0.0260
 3848SOL    HW118659   0.730  12.538  10.572  1.1195 -1.3190  1.7251
 3848SOL    HW218660   0.602  12.469  10.615 -2.8235  2.3218 -2.9614
 3849SOL     OW18661   5.699   2.940   7.576 -0.1505  0.2414 -0.2356
 3849SOL    HW118662   5.783   2.895   7.576  0.4851  1.3885 -0.2023
 3849SOL    HW218663   5.653   2.906   7.653  0.8466  0.6101  0.5358
 3850SOL     OW18664   9.112   9.217   0.532 -0.1416 -0.1051 -0.6236
 3850SOL    HW118665   9.085   9.308   0.536 -2.3173 -0.5593 -2.3672
 3850SOL    HW218666   9.037   9.168   0.568  1.0359 -1.2077  0.4205
 3851SOL     OW18667   2.352   4.046   7.227 -0.0548 -0.1478 -0.0385
 3851SOL    HW118668   2.359   4.072   7.319 -1.1458  0.3494 -0.0700
 3851SOL    HW218669   2.393   4.118   7.179  0.4507 -0.3728  0.0538
 3852SOL     OW18670   6.551  12.895   2.416 -0.1924  0.5457 -0.4660
 3852SOL    HW118671   6.508  12.811   2.401 -0.1398  0.1261  1.5638
 3852SOL    HW218672   6.485  12.961   2.393 -0.4096 -0.0232 -1.5528
 3853SOL     OW18673   4.698  12.071   1.553 -0.1860  0.3256 -0.4528
 3853SOL    HW118674   4.623  12.048   1.608  0.4473 -1.0330 -0.1282
 3853SOL    HW218675   4.774  12.059   1.610  0.3466  0.8745 -1.0321
 3854SOL     OW18676   0.155   4.695   5.738  0.4405  0.2908  0.8042
 3854SOL    HW118677   0.114   4.747   5.808 -1.6934  0.6800 -0.6162
 3854SOL    HW218678   0.231   4.747   5.711  1.4344  0.0263  2.9105
 3855SOL     OW18679   0.245   1.524  11.907 -0.1820  0.0835 -0.4107
 3855SOL    HW118680   0.181   1.454  11.917 -0.2571  0.1124 -0.6810
 3855SOL    HW218681   0.326   1.490  11.945 -0.1375 -0.2612 -0.8099
 3856SOL     OW18682  12.518   4.577   3.099  0.1558 -0.7469  0.2628
 3856SOL    HW118683  12.547   4.578   3.008 -0.3892 -1.1213  0.0792
 3856SOL    HW218684  12.541   4.490   3.131 -0.1997 -0.8284  0.2992
 3857SOL     OW18685   5.555   9.175   9.266  0.6890 -0.5433 -0.2797
 3857SOL    HW118686   5.611   9.155   9.192  1.2251  0.7816 -0.2586
 3857SOL    HW218687   5.467   9.181   9.229  1.0633  0.9773 -1.0010
 3858SOL     OW18688   0.488  11.318   5.706 -0.6205  0.0096 -0.1556
 3858SOL    HW118689   0.469  11.384   5.772 -0.7211 -0.6457  0.4855
 3858SOL    HW218690   0.432  11.244   5.729 -0.8082 -0.1564 -1.0998
 3859SOL     OW18691  12.199   9.986  12.545 -0.2635  0.4933 -0.6105
 3859SOL    HW118692  12.237  10.013  12.462  0.4647  2.0142  0.1876
 3859SOL    HW218693  12.173   9.895  12.531 -0.5276  0.8454 -2.6165
 3860SOL     OW18694   2.846   8.617   2.760 -0.4576  0.3609  0.3939
 3860SOL    HW118695   2.808   8.698   2.727  1.0455  0.8264 -0.3243
 3860SOL    HW218696   2.857   8.562   2.682  0.9639  0.5369  0.4449
 3861SOL     OW18697   3.660   9.305   8.364 -0.1350 -0.3117  0.3901
 3861SOL    HW118698   3.608   9.381   8.391 -1.6902 -1.0454 -0.3987
 3861SOL    HW218699   3.692   9.328   8.276  0.9380  0.1578  0.8935
 3862SOL     OW18700  10.880   1.107   0.773 -0.8489  0.2337  0.0894
 3862SOL    HW118701  10.818   1.169   0.810 -2.6665  0.2799 -2.6820
 3862SOL    HW218702  10.826   1.047   0.721  1.3270  0.0812 -2.2264
 3863SOL     OW18703   3.601   6.222   9.188 -0.2214 -0.2916  0.1444
 3863SOL    HW118704   3.667   6.291   9.199 -2.1278  1.6604  0.0212
 3863SOL    HW218705   3.632   6.151   9.243  1.0207  1.2790  1.6056
 3864SOL     OW18706  10.299   0.356  11.033  0.2465  0.0875  0.1212
 3864SOL    HW118707  10.349   0.433  11.062 -0.9883  0.5983  0.9534
 3864SOL    HW218708  10.246   0.332  11.108 -0.1604 -0.9539 -0.4841
 3865SOL     OW18709   4.998   9.841   9.333 -0.1817  0.0624  0.1105
 3865SOL    HW118710   4.953   9.765   9.295  1.4853 -0.5327 -0.7890
 3865SOL    HW218711   4.969   9.915   9.280 -1.3968 -0.0261  0.6385
 3866SOL     OW18712   5.290   1.840   3.606  0.3715  0.1266 -0.3855
 3866SOL    HW118713   5.227   1.796   3.662  0.6445  0.3629  0.1097
 3866SOL    HW218714   5.310   1.776   3.538  0.6533 -0.4609  0.2468
 3867SOL     OW18715   8.585  10.403   1.917 -0.1073  0.4041 -0.0762
 3867SOL    HW118716   8.610  10.492   1.891 -1.6031  0.4100 -1.7261
 3867SOL    HW218717   8.623  10.347   1.849  0.6672 -0.2360  0.8539
 3868SOL     OW18718  10.891  10.117  11.633 -0.1385 -0.4759  0.1545
 3868SOL    HW118719  10.962  10.148  11.690 -1.1423  1.4595  0.4381
 3868SOL    HW218720  10.870  10.029  11.666  0.5542 -0.1398  1.5774
 3869SOL     OW18721   7.805   4.805   8.311 -0.1697 -0.2136  0.4086
 3869SOL    HW118722   7.782   4.746   8.239  0.6488 -0.0900  0.0325
 3869SOL    HW218723   7.867   4.754   8.364 -0.8503 -0.3454  1.0985
 3870SOL     OW18724   1.349   8.503   0.898  0.5381 -0.2653  0.1645
 3870SOL    HW118725   1.278   8.545   0.851  2.6127  0.7130 -2.3512
 3870SOL    HW218726   1.392   8.574   0.946  1.3491 -0.3495 -0.4210
 3871SOL     OW18727   7.503   8.928   2.415 -0.0236 -0.4367 -0.1215
 3871SOL    HW118728   7.538   8.843   2.441  2.2424  0.6932  0.8367
 3871SOL    HW218729   7.494   8.923   2.320 -0.7537 -2.0025  0.0050
 3872SOL     OW18730   9.954   3.793   1.451 -0.3523  0.9019 -0.6002
 3872SOL    HW118731  10.044   3.767   1.430 -0.2738  0.6126  0.0643
 3872SOL    HW218732   9.938   3.756   1.538 -1.1736  0.8066 -0.7834
 3873SOL     OW18733  12.364   6.281   5.841 -0.0499  0.3801  0.6889
 3873SOL    HW118734  12.439   6.225   5.824 -1.2834 -1.3790  0.8053
 3873SOL    HW218735  12.314   6.279   5.759 -1.3758 -0.7763  1.4783
 3874SOL     OW18736   0.644   3.859   3.034 -0.2836  0.8133 -0.0961
 3874SOL    HW118737   0.729   3.865   3.077 -0.6899  0.7384  0.7403
 3874SOL    HW218738   0.603   3.781   3.072 -0.0769 -0.1115 -1.6943
 3875SOL     OW18739  11.131   9.199   5.325 -0.0921  0.2425 -0.1368
 3875SOL    HW118740  11.050   9.148   5.313 -0.6404  0.9561  0.4497
 3875SOL    HW218741  11.199   9.146   5.283 -0.4209 -1.5645  1.4802
 3876SOL     OW18742   4.731  12.073   2.265 -0.2350  0.2267 -0.0729
 3876SOL    HW118743   4.733  12.008   2.335  0.1273  2.5198  2.2153
 3876SOL    HW218744   4.821  12.078   2.233  0.1615  0.9016  1.0911
 3877SOL     OW18745   2.188  11.759  11.921  0.6091 -0.5759 -0.5946
 3877SOL    HW118746   2.248  11.712  11.980  0.7133  1.4278  0.9862
 3877SOL    HW218747   2.101  11.735  11.952  0.6626  0.2611  0.2530
 3878SOL     OW18748   1.218   9.847   3.632 -0.4660  0.1123  0.4812
 3878SOL    HW118749   1.198   9.915   3.696  0.8751  1.0966 -0.1199
 3878SOL    HW218750   1.162   9.866   3.557 -1.1306 -0.3112  0.8588
 3879SOL     OW18751   8.601   3.458   5.040  0.1155 -0.3290  0.1812
 3879SOL    HW118752   8.532   3.402   5.005 -1.1975  1.3992 -0.1372
 3879SOL    HW218753   8.613   3.525   4.972  0.1925  0.9307  1.3988
 3880SOL     OW18754   3.306   4.177  11.569 -0.6646 -0.3559 -0.9107
 3880SOL    HW118755   3.315   4.243  11.500 -1.2533  1.2209  0.4384
 3880SOL    HW218756   3.229   4.205  11.619 -0.0609 -1.2206  0.5914
 3881SOL     OW18757   9.838   5.016   0.315 -0.1308  0.2894  0.0533
 3881SOL    HW118758   9.878   4.942   0.361 -0.4472  0.7077  1.0229
 3881SOL    HW218759   9.902   5.039   0.247  1.0062  0.5557  1.1848
 3882SOL     OW18760   0.391   5.184   5.301  0.3363 -0.0243 -0.1891
 3882SOL    HW118761   0.435   5.110   5.258  0.3120  0.1207 -0.4654
 3882SOL    HW218762   0.446   5.203   5.377 -0.1595 -0.9299  0.4199
 3883SOL     OW18763   1.600   0.737  11.607  0.1529  0.1466  0.2576
 3883SOL    HW118764   1.539   0.809  11.595  0.2194  0.0555 -0.7290
 3883SOL    HW218765   1.586   0.708  11.697  0.8222  2.0117  1.0120
 3884SOL     OW18766   8.085  11.125   4.380  0.5215 -0.2705 -0.2156
 3884SOL    HW118767   8.098  11.220   4.376 -0.9582 -0.0506 -0.5465
 3884SOL    HW218768   7.996  11.115   4.414 -0.7627 -1.4118 -3.4839
 3885SOL     OW18769   9.643   9.881   4.473 -0.1777  0.1536  0.0305
 3885SOL    HW118770   9.686   9.884   4.558  0.1795  1.7419 -0.1808
 3885SOL    HW218771   9.709   9.841   4.415  0.1307  0.4227  0.1920
 3886SOL     OW18772   2.593   4.975   4.926 -0.0037  0.8736 -0.1848
 3886SOL    HW118773   2.688   4.970   4.912  0.0258 -1.5615  0.3695
 3886SOL    HW218774   2.556   4.923   4.855 -0.7784  0.3331  0.5927
 3887SOL     OW18775   8.043  11.117   5.060  0.2762 -0.2973  0.1661
 3887SOL    HW118776   7.972  11.143   5.002 -1.2584 -0.3257  1.9447
 3887SOL    HW218777   8.119  11.109   5.003 -0.7071  1.5662 -1.5097
 3888SOL     OW18778  11.690   2.174   4.725 -0.1859  0.0213 -0.1276
 3888SOL    HW118779  11.757   2.107   4.738  1.6116  1.9881  1.5698
 3888SOL    HW218780  11.615   2.143   4.775  1.2674  0.0805  2.2471
 3889SOL     OW18781   7.358  12.913  12.388 -0.5681  0.2054  0.0163
 3889SOL    HW118782   7.434  12.866  12.353  0.2268 -0.0515  1.9730
 3889SOL    HW218783   7.283  12.864  12.355  0.2229 -3.1526  2.6612
 3890SOL     OW18784   4.286   0.476   9.393 -0.7677  0.2017  0.1313
 3890SOL    HW118785   4.324   0.439   9.314  0.0644  0.7002  0.2844
 3890SOL    HW218786   4.314   0.418   9.463 -0.5390  0.4013  0.2059
 3891SOL     OW18787  11.625   2.561   3.247 -0.1164  0.1893 -0.1616
 3891SOL    HW118788  11.550   2.583   3.302 -0.0222  0.9563 -0.3284
 3891SOL    HW218789  11.679   2.504   3.301 -0.4120  0.3010  0.2561
 3892SOL     OW18790  10.606  12.865  11.904 -0.1937  0.4070  0.6943
 3892SOL    HW118791  10.536  12.830  11.960 -2.4459  0.3005 -1.9533
 3892SOL    HW218792  10.575  12.953  11.880  0.6508  0.4293 -0.3885
 3893SOL     OW18793   0.939  12.117  11.321  0.0169  0.3143 -0.1735
 3893SOL    HW118794   0.937  12.169  11.240  1.4050  2.0373  0.8336
 3893SOL    HW218795   0.860  12.143  11.368 -0.3468 -0.0409 -0.5818
 3894SOL     OW18796   8.503   2.830  12.355 -0.1042 -0.5313 -0.0417
 3894SOL    HW118797   8.508   2.924  12.369 -0.1703 -0.7550  1.8192
 3894SOL    HW218798   8.423   2.816  12.305  0.7383  0.4982 -1.7500
 3895SOL     OW18799   4.718   9.611   6.878  0.4208  0.6668  0.4368
 3895SOL    HW118800   4.646   9.672   6.896 -0.5493 -0.6998  1.3734
 3895SOL    HW218801   4.796   9.658   6.906 -0.1820  1.8523  0.2219
 3896SOL     OW18802   7.803  11.157   5.969 -0.9038 -0.2656  0.3515
 3896SOL    HW118803   7.759  11.242   5.976  0.4422  0.3755  1.4442
 3896SOL    HW218804   7.896  11.177   5.978 -0.5266 -1.8172  0.1664
 3897SOL     OW18805   3.578  11.089   3.013 -0.0403  0.3487  0.5311
 3897SOL    HW118806   3.609  11.031   3.083 -0.0713  1.0511  1.1295
 3897SOL    HW218807   3.607  11.176   3.038 -1.6821  0.9017  0.6566
 3898SOL     OW18808  11.260   7.802   7.632 -0.6250 -0.4466  0.1864
 3898SOL    HW118809  11.250   7.844   7.547  1.1429  0.4730  0.3978
 3898SOL    HW218810  11.200   7.727   7.629 -0.6548 -0.3836 -1.8273
 3899SOL     OW18811   4.684  10.993   0.157 -0.1782 -0.4522  0.4784
 3899SOL    HW118812   4.659  10.969   0.068  2.1982  0.2563 -0.4688
 3899SOL    HW218813   4.707  10.911   0.199 -0.3979 -0.7086  0.1005
 3900SOL     OW18814   9.400   5.596   0.655 -0.6677  0.3901  0.0409
 3900SOL    HW118815   9.387   5.646   0.574  1.5115  1.2435  0.1389
 3900SOL    HW218816   9.495   5.591   0.664 -0.8431 -2.0349  1.1563
 3901SOL     OW18817  11.975   0.246   4.345 -0.4033  0.0434 -0.1787
 3901SOL    HW118818  12.071   0.251   4.340 -0.4668  0.2074 -1.6826
 3901SOL    HW218819  11.954   0.160   4.307 -0.9457  0.8888 -1.8817
 3902SOL     OW18820   0.184   0.442   4.576  0.0039  0.4225 -0.4149
 3902SOL    HW118821   0.192   0.459   4.670 -0.3866 -0.6107 -0.1812
 3902SOL    HW218822   0.264   0.396   4.553 -0.5328 -0.6026 -0.2765
 3903SOL     OW18823   3.657   4.965  12.083 -0.0142  0.9320  0.0238
 3903SOL    HW118824   3.668   4.870  12.081 -0.7488  0.8352  0.3167
 3903SOL    HW218825   3.733   4.999  12.036 -0.0043  0.1737 -0.5268
 3904SOL     OW18826   2.747  11.896   9.645  0.1866  0.4380 -0.0396
 3904SOL    HW118827   2.741  11.863   9.556 -0.4060  1.5856 -0.4511
 3904SOL    HW218828   2.660  11.931   9.664  0.4794  0.7777  0.7536
 3905SOL     OW18829   5.715  10.782   4.228 -0.1905 -0.4208  0.1952
 3905SOL    HW118830   5.625  10.792   4.261  0.3639 -0.8535  1.9698
 3905SOL    HW218831   5.722  10.689   4.207  0.2420 -0.6818  1.4129
 3906SOL     OW18832   9.460  12.354   5.024 -0.3668 -0.4257  0.0780
 3906SOL    HW118833   9.525  12.424   5.035  0.5012 -1.2561  0.3057
 3906SOL    HW218834   9.497  12.279   5.070 -1.2240 -1.0828 -0.2800
 3907SOL     OW18835  10.777   3.520   5.218  0.6019  0.0223  0.5665
 3907SOL    HW118836  10.768   3.456   5.288  0.7632  0.1638  0.7191
 3907SOL    HW218837  10.689   3.558   5.208  0.4093 -0.5171  0.1871
 3908SOL     OW18838   3.353   5.256  11.466 -0.0290  0.3304 -0.4945
 3908SOL    HW118839   3.432   5.221  11.508  0.0022  0.9555 -0.0207
 3908SOL    HW218840   3.289   5.186  11.475  0.5701 -0.3252 -1.2039
 3909SOL     OW18841  11.633   6.884  12.701  0.3060  0.5337  0.0347
 3909SOL    HW118842  11.569   6.815  12.686  0.6681  0.5103 -1.5678
 3909SOL    HW218843  11.593   6.940  12.768 -0.5468 -0.4994  0.4112
 3910SOL     OW18844   6.455   9.961   5.724 -0.0405  0.3862 -0.4379
 3910SOL    HW118845   6.532   9.951   5.779 -0.3007 -1.9350 -0.3704
 3910SOL    HW218846   6.478  10.030   5.662  1.8042  0.2335  0.0228
 3911SOL     OW18847   7.366   8.290  10.287  0.0327  0.0729  0.2134
 3911SOL    HW118848   7.368   8.383  10.265  0.6637 -0.0300 -0.2025
 3911SOL    HW218849   7.431   8.280  10.357 -0.3941  0.0303  0.6042
 3912SOL     OW18850  10.936   2.916   7.698 -1.3557 -1.3346 -0.2356
 3912SOL    HW118851  10.947   2.981   7.766 -1.6200 -0.8973 -0.6046
 3912SOL    HW218852  10.845   2.924   7.671 -0.7204  0.0386 -2.1693
 3913SOL     OW18853   4.352   5.648   4.674  0.1695 -0.1765 -0.1960
 3913SOL    HW118854   4.411   5.666   4.748 -1.2423  2.2400  0.4605
 3913SOL    HW218855   4.299   5.728   4.666 -1.5900 -1.4405 -2.0964
 3914SOL     OW18856  12.600   0.005  10.268  0.2450 -0.1610  0.2197
 3914SOL    HW118857  12.540   0.012  10.194  0.0476 -2.6196  0.0737
 3914SOL    HW218858  12.548   0.035  10.343 -1.6804 -3.1482  0.2829
 3915SOL     OW18859   1.845   8.423  12.885 -0.3296 -0.3618  0.0348
 3915SOL    HW118860   1.843   8.504  12.936  0.3834 -0.0864 -0.3733
 3915SOL    HW218861   1.783   8.438  12.814  0.1817  0.0271 -0.3355
 3916SOL     OW18862  10.719  10.760   9.190  0.1437 -0.6879  0.0262
 3916SOL    HW118863  10.803  10.741   9.231  0.8837 -0.0715 -1.1624
 3916SOL    HW218864  10.686  10.674   9.161 -0.2048 -1.0802  1.4921
 3917SOL     OW18865  11.673   6.512   4.272 -0.1506 -0.3277  0.0143
 3917SOL    HW118866  11.650   6.603   4.289  1.0462 -0.0226  0.0762
 3917SOL    HW218867  11.763   6.515   4.240 -0.9149 -1.2604 -2.4954
 3918SOL     OW18868   7.644   7.246   8.935 -0.1530 -0.4819  0.4424
 3918SOL    HW118869   7.725   7.293   8.949 -0.5822  0.3466  0.2360
 3918SOL    HW218870   7.670   7.165   8.891  0.4326  0.4726 -1.0563
 3919SOL     OW18871   5.978   2.803  12.706 -0.2859 -0.2070 -0.1098
 3919SOL    HW118872   6.039   2.811  12.632  0.1169 -0.9110  0.1326
 3919SOL    HW218873   5.984   2.711  12.732  0.3694  0.2457  1.4576
 3920SOL     OW18874  10.856   4.660   8.835  0.7772 -0.6487 -0.3609
 3920SOL    HW118875  10.856   4.754   8.853  0.0355  0.0289 -3.2703
 3920SOL    HW218876  10.818   4.620   8.913 -2.1622  1.8471 -0.3044
 3921SOL     OW18877   2.382   8.263  12.548  0.0101  0.1437  0.8038
 3921SOL    HW118878   2.413   8.302  12.466  0.1944 -0.3245  0.6485
 3921SOL    HW218879   2.331   8.332  12.589 -0.8806  0.0764 -0.1507
 3922SOL     OW18880   4.702   9.000   1.853 -0.0193  0.0248 -0.3022
 3922SOL    HW118881   4.657   9.037   1.777  1.6332  0.1496 -1.2615
 3922SOL    HW218882   4.795   9.009   1.832  0.4715 -3.0316  0.2314
 3923SOL     OW18883  10.899   0.306   8.968  0.4314 -0.0830  0.1381
 3923SOL    HW118884  10.900   0.395   8.933  0.5512  0.6580  1.9415
 3923SOL    HW218885  10.924   0.251   8.893 -1.4571  1.1737 -1.5082
 3924SOL     OW18886   3.879   4.010  12.116 -0.0339 -0.9019  0.3249
 3924SOL    HW118887   3.911   3.986  12.203 -0.2626 -0.9817  0.3896
 3924SOL    HW218888   3.796   4.054  12.133  0.3929 -0.0420  0.2015
 3925SOL     OW18889   3.285  12.706   9.469  0.8153 -0.2059 -0.0887
 3925SOL    HW118890   3.361  12.664   9.429  1.0737  1.0002 -0.9439
 3925SOL    HW218891   3.310  12.719   9.561  0.6073 -2.1230  0.2686
 3926SOL     OW18892   2.364   4.466  10.050  0.0826  1.1069 -0.1235
 3926SOL    HW118893   2.437   4.419  10.010  0.5084  0.5004  1.3133
 3926SOL    HW218894   2.340   4.414  10.126  0.1951  2.8825  1.2048
 3927SOL     OW18895  11.669   1.656   4.336  0.2655  0.0204 -0.1945
 3927SOL    HW118896  11.672   1.685   4.245  0.5052  0.2592 -0.1131
 3927SOL    HW218897  11.644   1.735   4.385 -0.0045 -0.1404 -0.0672
 3928SOL     OW18898   1.811   8.581  12.017  0.4014  0.2651 -0.2806
 3928SOL    HW118899   1.897   8.551  12.049  1.0935  1.1039 -1.2843
 3928SOL    HW218900   1.776   8.632  12.090  0.9971  0.3750 -0.0604
 3929SOL     OW18901  10.573   6.444   5.242  0.5243  0.2963  0.0182
 3929SOL    HW118902  10.527   6.415   5.164 -1.4986  1.0037  0.8863
 3929SOL    HW218903  10.575   6.368   5.299  0.0336  0.3734  0.1418
 3930SOL     OW18904   3.191   4.266   8.691 -0.0979  0.5117 -0.3708
 3930SOL    HW118905   3.156   4.184   8.725 -1.2292  0.7622 -0.8770
 3930SOL    HW218906   3.186   4.327   8.765 -0.4341  0.4515 -0.3403
 3931SOL     OW18907   5.894   7.838   3.090  0.1954  0.2169  0.2074
 3931SOL    HW118908   5.946   7.918   3.074 -1.1682  1.4673  1.7244
 3931SOL    HW218909   5.914   7.815   3.181  0.4494 -1.1127 -0.1726
 3932SOL     OW18910  10.404   9.681   5.205  0.5262 -0.4436  0.3998
 3932SOL    HW118911  10.460   9.659   5.280  0.5261 -2.2660 -0.0738
 3932SOL    HW218912  10.465   9.713   5.138  0.8228 -0.9361  0.4279
 3933SOL     OW18913   2.215  12.325  11.017  0.6625 -0.2197 -0.3660
 3933SOL    HW118914   2.136  12.272  11.030  0.2493  0.6884  1.0853
 3933SOL    HW218915   2.185  12.415  11.028  2.0392  0.0985  1.2733
 3934SOL     OW18916   1.432  10.654  10.432  0.5820  0.2919 -0.5037
 3934SOL    HW118917   1.420  10.559  10.430  2.2585 -0.0731  2.2455
 3934SOL    HW218918   1.526  10.666  10.414  0.7706  1.2559  0.9783
 3935SOL     OW18919   2.190   0.162   2.359 -0.6941 -0.4344 -0.6781
 3935SOL    HW118920   2.149   0.171   2.446 -0.7146  0.2803 -0.7562
 3935SOL    HW218921   2.117   0.137   2.302 -1.4752  2.5012 -1.1571
 3936SOL     OW18922   1.156   6.576   9.712 -0.2910  0.4018  0.0566
 3936SOL    HW118923   1.231   6.535   9.670 -1.1511 -0.5320 -0.6056
 3936SOL    HW218924   1.147   6.530   9.796 -1.5819 -1.1975 -0.9161
 3937SOL     OW18925   3.744   9.524  11.896 -0.2291 -0.2482  0.4847
 3937SOL    HW118926   3.789   9.440  11.905 -1.8681 -1.0675  1.5097
 3937SOL    HW218927   3.699   9.536  11.979 -2.4032  0.1828 -0.6736
 3938SOL     OW18928   5.677   3.846   6.313  0.3717 -0.2474 -0.2261
 3938SOL    HW118929   5.600   3.893   6.281  0.4018  0.2155  0.3648
 3938SOL    HW218930   5.736   3.914   6.344 -0.0200 -0.6895  1.6405
 3939SOL     OW18931  12.514   4.752   6.035 -0.5054 -0.6253 -0.7900
 3939SOL    HW118932  12.566   4.766   5.956 -1.4442  1.1256 -1.1584
 3939SOL    HW218933  12.572   4.779   6.106  0.5661 -2.8062 -0.7804
 3940SOL     OW18934   5.708   6.104   9.307  0.0889 -0.6851  0.8135
 3940SOL    HW118935   5.678   6.195   9.301  1.5997 -0.2023 -0.0515
 3940SOL    HW218936   5.729   6.092   9.400 -2.1079 -0.8657  1.3378
 3941SOL     OW18937   3.441  12.930   6.149  0.2651 -0.3936  0.2008
 3941SOL    HW118938   3.454  13.017   6.112  2.0178 -1.6424 -2.3811
 3941SOL    HW218939   3.522  12.912   6.197 -0.0089 -0.6794  0.5627
 3942SOL     OW18940   4.784  11.672   7.457 -0.5316 -0.5908  0.0235
 3942SOL    HW118941   4.860  11.655   7.401  2.1050  2.4000  2.2875
 3942SOL    HW218942   4.728  11.729   7.404 -0.3843 -1.4796 -1.1237
 3943SOL     OW18943   9.762   8.378  10.603  0.0344  0.1423 -0.1613
 3943SOL    HW118944   9.822   8.438  10.648 -0.2544  0.2770  0.0536
 3943SOL    HW218945   9.684   8.431  10.586 -0.9998 -0.6541  1.7611
 3944SOL     OW18946   8.531   2.397   5.234  0.0717  0.5174  0.0451
 3944SOL    HW118947   8.575   2.411   5.318 -1.6933  0.2603  1.0665
 3944SOL    HW218948   8.479   2.477   5.221 -1.6372 -0.4535  0.5220
 3945SOL     OW18949  12.539   5.246   9.093 -0.0184 -0.0670 -0.6145
 3945SOL    HW118950  12.559   5.238   9.187 -0.2420  0.7902 -0.4841
 3945SOL    HW218951  12.496   5.164   9.071 -1.1353  0.2378  0.3433
 3946SOL     OW18952   6.446   0.528   5.920  0.0566  0.4036 -0.2145
 3946SOL    HW118953   6.515   0.592   5.901 -1.7036  2.4028 -0.2189
 3946SOL    HW218954   6.414   0.553   6.007 -2.0043  0.8265 -1.0494
 3947SOL     OW18955   6.624  12.069   5.800  0.8732  0.3344 -0.2134
 3947SOL    HW118956   6.711  12.031   5.810  0.6494  0.0736  0.9883
 3947SOL    HW218957   6.615  12.086   5.706  1.5365 -1.2935 -0.6077
 3948SOL     OW18958   7.565   4.299   2.241  0.1182  0.1730  0.0760
 3948SOL    HW118959   7.559   4.371   2.178  1.4465 -0.0920 -0.3940
 3948SOL    HW218960   7.580   4.222   2.187 -2.9435 -0.7935  0.4480
 3949SOL     OW18961   8.126   5.725   1.838 -0.2525 -0.5606  0.0723
 3949SOL    HW118962   8.120   5.820   1.833 -1.2653 -0.2972  3.5356
 3949SOL    HW218963   8.213   5.704   1.806  0.4782  1.6872  0.4603
 3950SOL     OW18964  11.651  10.047  11.669 -0.4654  0.1001 -0.8401
 3950SOL    HW118965  11.575   9.995  11.693 -0.1427  0.2058  0.5527
 3950SOL    HW218966  11.690  10.002  11.595 -0.2409 -1.6191  0.2654
 3951SOL     OW18967   8.144   8.910  12.563 -0.0270  0.3594 -0.5458
 3951SOL    HW118968   8.109   8.978  12.620 -3.6215  0.3871 -2.4881
 3951SOL    HW218969   8.124   8.828  12.609 -0.8012  0.4759 -0.6491
 3952SOL     OW18970   5.932  11.379   1.102 -0.4514  0.1287 -0.2612
 3952SOL    HW118971   5.924  11.359   1.009  0.8677 -0.1552 -0.3435
 3952SOL    HW218972   6.010  11.330   1.130 -1.4102 -0.6394  1.2363
 3953SOL     OW18973   5.551  11.628   8.362 -0.0008  0.1214  0.0682
 3953SOL    HW118974   5.476  11.681   8.385  0.8945  0.6588  1.9468
 3953SOL    HW218975   5.517  11.539   8.357 -0.5581  0.1722  2.1819
 3954SOL     OW18976  12.373   9.245   9.842 -0.0881  0.2366 -0.5106
 3954SOL    HW118977  12.407   9.334   9.854  0.5772 -0.3194  2.2535
 3954SOL    HW218978  12.441   9.188   9.878 -1.7992 -1.2077  0.5790
 3955SOL     OW18979   6.309   7.716   4.725  0.2632  0.1166 -0.4608
 3955SOL    HW118980   6.352   7.660   4.660  1.2264 -0.0291  0.2908
 3955SOL    HW218981   6.340   7.804   4.704  0.0704  0.1520 -0.5967
 3956SOL     OW18982  10.968   3.434   5.834 -0.2975 -0.3189 -0.9863
 3956SOL    HW118983  11.049   3.385   5.822  0.2164  0.2508  0.0406
 3956SOL    HW218984  10.971   3.502   5.766 -0.2429 -0.7191 -1.3840
 3957SOL     OW18985   1.324   4.624   2.716  0.1348 -0.3235  0.4137
 3957SOL    HW118986   1.301   4.707   2.757  0.3586 -0.4509  0.8061
 3957SOL    HW218987   1.307   4.637   2.623  0.6460  0.3334  0.4062
 3958SOL     OW18988   1.998   3.246   0.868 -0.4746 -0.2776  0.1987
 3958SOL    HW118989   1.963   3.300   0.797 -0.7479 -0.0927  0.4669
 3958SOL    HW218990   1.987   3.156   0.838 -0.5761 -0.2003  0.0018
 3959SOL     OW18991   5.613   6.200  11.819  0.1952 -0.4305  0.3698
 3959SOL    HW118992   5.524   6.218  11.850  0.0280  1.2407 -0.8896
 3959SOL    HW218993   5.600   6.159  11.733  0.5945  0.6601 -0.2373
 3960SOL     OW18994  10.679   8.884   1.627 -0.5483 -0.0762 -0.1165
 3960SOL    HW118995  10.730   8.954   1.587  2.6337 -1.2275  1.5705
 3960SOL    HW218996  10.672   8.817   1.559  1.8021 -0.5756  0.0318
 3961SOL     OW18997   5.192   7.007   8.546  0.0347  0.2934 -0.1265
 3961SOL    HW118998   5.238   6.992   8.464 -1.2881  0.2329 -0.8883
 3961SOL    HW218999   5.144   7.088   8.533 -0.4726  0.0969  0.4535
 3962SOL     OW19000   5.602   0.234  11.425  0.3172 -0.1297  0.5393
 3962SOL    HW119001   5.584   0.328  11.425 -1.0194 -0.3457 -0.8978
 3962SOL    HW219002   5.694   0.227  11.401  0.7873  0.8361  1.9603
 3963SOL     OW19003   2.401   7.840   4.169 -0.2390 -0.1325  0.2948
 3963SOL    HW119004   2.312   7.820   4.142 -0.2828 -0.1708  0.4677
 3963SOL    HW219005   2.414   7.931   4.143  0.2062 -0.5765 -1.1470
 3964SOL     OW19006  12.312   4.135   7.246 -0.4607 -0.4310  0.4697
 3964SOL    HW119007  12.296   4.095   7.331 -0.4080  0.6342  0.9826
 3964SOL    HW219008  12.330   4.227   7.264  0.1274 -0.3023 -0.6388
 3965SOL     OW19009   8.115   8.081  12.173  0.5768 -0.3846  0.4417
 3965SOL    HW119010   8.194   8.130  12.154  0.2038 -0.1996 -0.6808
 3965SOL    HW219011   8.138   8.026  12.248  1.2729  0.8324  1.1437
 3966SOL     OW19012   9.484  10.515   7.542  0.5932 -1.0181  0.1904
 3966SOL    HW119013   9.530  10.514   7.626  0.1975 -1.2966  0.4086
 3966SOL    HW219014   9.515  10.437   7.497  1.0082 -0.7230 -0.0344
 3967SOL     OW19015   3.391  11.952  12.084  0.3724 -0.4087  0.0722
 3967SOL    HW119016   3.315  11.910  12.042 -0.4417  1.0137  0.0392
 3967SOL    HW219017   3.355  11.991  12.163  0.6098  1.9062 -0.8857
 3968SOL     OW19018  10.095   1.053   5.724 -0.4140 -0.3571 -0.5476
 3968SOL    HW119019  10.088   1.137   5.677 -0.3478 -0.6657 -1.1190
 3968SOL    HW219020  10.179   1.017   5.696  1.0531  0.7687  2.0309
 3969SOL     OW19021   7.160   0.933  11.874 -0.3011 -0.0044  0.2899
 3969SOL    HW119022   7.212   0.962  11.949  2.2300 -0.5851 -1.1246
 3969SOL    HW219023   7.155   1.010  11.817 -3.1931  0.7793  1.4618
 3970SOL     OW19024  10.107   1.021   2.583  0.0504  0.1489 -0.6610
 3970SOL    HW119025  10.065   1.010   2.668 -0.1289  0.3595 -0.7221
 3970SOL    HW219026  10.200   1.001   2.600 -0.1418 -0.7534 -0.6251
 3971SOL     OW19027   9.923   4.846   7.929 -0.5675 -0.0583  0.4163
 3971SOL    HW119028  10.001   4.902   7.926  0.0430 -0.8798  0.5909
 3971SOL    HW219029   9.888   4.858   8.017 -0.1377 -0.3284  0.6310
 3972SOL     OW19030   0.819   3.704   0.741  0.1428 -0.2233  0.3128
 3972SOL    HW119031   0.911   3.723   0.719  0.6007 -1.7673  0.7839
 3972SOL    HW219032   0.796   3.770   0.805  0.9695  0.1106  0.2848
 3973SOL     OW19033   7.337   0.320   6.532 -0.2245  0.2408  0.2757
 3973SOL    HW119034   7.269   0.255   6.546  0.3135 -0.4012 -0.0124
 3973SOL    HW219035   7.397   0.308   6.606  0.7971 -0.8067 -0.6755
 3974SOL     OW19036   1.308   3.321   8.668  0.4922  1.1544  0.1180
 3974SOL    HW119037   1.218   3.300   8.691 -0.0467  3.1677  0.0452
 3974SOL    HW219038   1.361   3.257   8.716 -1.0025 -1.4884 -1.5474
 3975SOL     OW19039  12.247  10.879   5.441 -0.3545 -0.3562 -0.4192
 3975SOL    HW119040  12.286  10.792   5.450 -0.1839 -0.2321  0.0525
 3975SOL    HW219041  12.198  10.892   5.522  1.3819  0.8623  0.5242
 3976SOL     OW19042  11.168   8.508  11.985  0.0373  0.3915 -0.2842
 3976SOL    HW119043  11.187   8.582  11.927  2.3861 -1.5044 -2.1938
 3976SOL    HW219044  11.145   8.436  11.926 -1.7173 -0.5678  1.4599
 3977SOL     OW19045   9.885  12.419   1.014  0.4178  0.0785  0.3280
 3977SOL    HW119046   9.887  12.447   0.922  0.0582  0.2537  0.3717
 3977SOL    HW219047   9.832  12.486   1.058  1.5184  0.6250  0.8742
 3978SOL     OW19048   9.902   2.134  11.670 -0.0555 -0.3687 -0.1447
 3978SOL    HW119049   9.973   2.070  11.666 -0.9623 -1.5036  0.9883
 3978SOL    HW219050   9.831   2.094  11.618  0.4316  1.2348 -2.1787
 3979SOL     OW19051   2.912  12.853   0.669 -0.4242  0.2679  0.0591
 3979SOL    HW119052   2.835  12.840   0.614  0.0371 -0.0942 -0.5161
 3979SOL    HW219053   2.899  12.793   0.742 -0.0806 -0.7579 -0.6999
 3980SOL     OW19054   9.816   0.099   6.901 -0.5769  0.1585  0.1268
 3980SOL    HW119055   9.841   0.012   6.932  0.0038  0.5355  0.7515
 3980SOL    HW219056   9.859   0.159   6.962 -0.3328  0.9021 -0.7590
 3981SOL     OW19057   7.461  12.549  11.969 -0.7061 -0.0633  0.0085
 3981SOL    HW119058   7.486  12.607  12.041  0.7798 -0.7845  0.1041
 3981SOL    HW219059   7.455  12.606  11.893  0.3938  0.2975  0.1717
 3982SOL     OW19060   2.840   2.693   8.587 -0.0151  0.0756 -0.1732
 3982SOL    HW119061   2.894   2.767   8.616 -0.6529  1.9773 -3.2493
 3982SOL    HW219062   2.850   2.694   8.491 -2.6944 -1.7314 -0.5615
 3983SOL     OW19063   0.088   5.430   8.437  0.1923  0.7707 -0.0555
 3983SOL    HW119064   0.067   5.424   8.344  0.0885 -0.7774  0.0347
 3983SOL    HW219065   0.181   5.454   8.439  0.3385  0.2589 -0.5724
 3984SOL     OW19066   2.835   1.303   6.100 -0.4629 -0.3422  0.1109
 3984SOL    HW119067   2.856   1.216   6.133 -0.8608 -0.5170 -0.0909
 3984SOL    HW219068   2.884   1.363   6.157 -1.9752 -0.5729  1.7378
 3985SOL     OW19069   4.512   8.425   9.470 -0.6988 -0.1484  0.4213
 3985SOL    HW119070   4.577   8.488   9.502 -0.9852 -0.2392  1.2042
 3985SOL    HW219071   4.553   8.386   9.393 -0.4743  0.9178 -0.0236
 3986SOL     OW19072   1.621   3.920   2.989 -0.0018  0.2698 -0.2358
 3986SOL    HW119073   1.550   3.861   3.011 -0.3379  1.1200  1.0683
 3986SOL    HW219074   1.581   4.007   2.986  1.0870  0.8701  1.3032
 3987SOL     OW19075   1.340   8.753   1.307 -0.0893 -0.0638 -0.0089
 3987SOL    HW119076   1.276   8.699   1.261 -0.2186 -0.8749  1.0912
 3987SOL    HW219077   1.353   8.710   1.391 -0.8089  2.0402  1.2587
 3988SOL     OW19078   6.967  10.156  11.155 -0.2180 -0.1812  0.3279
 3988SOL    HW119079   6.951  10.198  11.071  1.7807 -0.0102 -0.0090
 3988SOL    HW219080   6.993  10.066  11.133 -3.5436 -1.4567  0.9998
 3989SOL     OW19081   6.753  12.550   7.035 -0.3159  0.2008 -0.2075
 3989SOL    HW119082   6.813  12.625   7.040 -0.6023  0.4105  0.1737
 3989SOL    HW219083   6.753  12.525   6.943 -0.7046  1.0784 -0.4639
 3990SOL     OW19084   7.359  11.808   5.037  0.2169  0.3600 -0.4889
 3990SOL    HW119085   7.409  11.876   4.991  1.0343 -0.1217 -0.3203
 3990SOL    HW219086   7.392  11.726   5.001 -0.3057  0.0286 -0.2175
 3991SOL     OW19087  11.614   8.382   7.969  0.1005  0.5018 -0.1541
 3991SOL    HW119088  11.585   8.390   7.878  1.5210  0.0457 -0.6727
 3991SOL    HW219089  11.670   8.459   7.983  0.4755  0.1893  0.0888
 3992SOL     OW19090   3.814  12.130   3.070 -0.4131 -0.4677  0.3774
 3992SOL    HW119091   3.726  12.143   3.105 -0.3066  1.1964  0.1279
 3992SOL    HW219092   3.800  12.098   2.981 -0.7305 -1.2659  0.7021
 3993SOL     OW19093   4.215   7.268   2.906 -0.4335 -0.6995  0.1885
 3993SOL    HW119094   4.262   7.232   2.830  1.4540  1.3870  0.2691
 3993SOL    HW219095   4.233   7.207   2.977 -0.4572 -1.5589 -0.5259
 3994SOL     OW19096   1.748   0.129  12.399  0.8012 -0.1441 -0.2597
 3994SOL    HW119097   1.680   0.188  12.432 -1.3556 -0.9398 -2.8349
 3994SOL    HW219098   1.795   0.180  12.334  0.5498 -0.5309 -0.7482
 3995SOL     OW19099   9.811   7.351   9.342 -0.1993  0.1498 -0.3782
 3995SOL    HW119100   9.851   7.419   9.397 -1.6383  0.0588  0.8278
 3995SOL    HW219101   9.768   7.292   9.403 -0.3122 -0.9941 -1.5109
 3996SOL     OW19102   9.525   8.982   3.013  0.2206 -0.2452  0.0712
 3996SOL    HW119103   9.444   8.990   3.064 -0.1765 -0.4921 -0.5125
 3996SOL    HW219104   9.503   8.921   2.942  1.0228 -0.5987  0.1117
 3997SOL     OW19105   0.679   1.667   1.776  0.0165 -0.4252  0.0779
 3997SOL    HW119106   0.678   1.683   1.681 -0.1560  0.3136  0.1989
 3997SOL    HW219107   0.588   1.647   1.798 -0.1968  0.7686  0.3063
 3998SOL     OW19108  12.002   6.065   4.758 -0.0943 -0.3394  0.3730
 3998SOL    HW119109  12.065   5.994   4.775 -0.2255 -0.5552 -0.0272
 3998SOL    HW219110  11.925   6.020   4.722 -0.6766 -0.1355  1.3162
 3999SOL     OW19111   4.189  12.198   1.061  1.1219  0.0447 -0.1365
 3999SOL    HW119112   4.102  12.230   1.037  0.1990 -1.4666  1.0180
 3999SOL    HW219113   4.237  12.276   1.088 -0.3334  0.7530  0.5167
 4000SOL     OW19114   6.299   9.023   2.215  0.0650  0.2383 -0.0342
 4000SOL    HW119115   6.213   8.979   2.213 -0.5537  1.2492  1.9020
 4000SOL    HW219116   6.323   9.031   2.123 -1.0183 -1.7626 -0.5565
 4001SOL     OW19117   7.773  10.277   8.537  0.0972 -0.6498 -0.2655
 4001SOL    HW119118   7.696  10.292   8.482 -1.4029 -3.3663  0.9068
 4001SOL    HW219119   7.847  10.283   8.476 -1.1279  0.6108 -1.7134
 4002SOL     OW19120   5.558  12.229   0.284 -0.0815  0.1982 -0.2765
 4002SOL    HW119121   5.520  12.315   0.302 -1.6566 -0.1863 -1.5189
 4002SOL    HW219122   5.487  12.179   0.245  1.6096 -0.6805 -2.4739
 4003SOL     OW19123   5.609   3.164   7.961 -0.1551 -0.3693  0.7250
 4003SOL    HW119124   5.539   3.139   8.022  0.3048 -0.4668  1.2242
 4003SOL    HW219125   5.641   3.248   7.995 -0.1786 -0.2173  0.3699
 4004SOL     OW19126   0.190   0.848  10.247  1.0362  0.1528  0.2468
 4004SOL    HW119127   0.262   0.900  10.282  0.6449  0.5917  0.4241
 4004SOL    HW219128   0.158   0.899  10.172  0.1201  0.6105  0.9169
 4005SOL     OW19129   1.812   8.658   7.884 -0.0435 -0.0035  0.1029
 4005SOL    HW119130   1.849   8.638   7.798 -2.3775  0.3483 -1.0754
 4005SOL    HW219131   1.718   8.647   7.872 -0.4770  0.6467  2.4780
 4006SOL     OW19132   5.092   3.142   2.428 -0.4944  0.3921 -0.0622
 4006SOL    HW119133   5.146   3.183   2.496  0.6246  0.6421 -1.0779
 4006SOL    HW219134   5.010   3.191   2.429 -0.0456  1.1540  0.3194
 4007SOL     OW19135   8.838   7.537   1.754 -0.9685  0.5545 -0.3016
 4007SOL    HW119136   8.884   7.554   1.673 -0.9795 -1.4413 -0.7602
 4007SOL    HW219137   8.775   7.609   1.761 -0.0559  1.4875 -1.3343
 4008SOL     OW19138   6.733   7.649   4.093  0.5826 -0.1552  0.0949
 4008SOL    HW119139   6.714   7.560   4.121  2.2620 -0.9126 -1.0315
 4008SOL    HW219140   6.724   7.646   3.997  3.8960 -0.0349 -0.3249
 4009SOL     OW19141   1.996   1.282   9.854 -0.0617  0.2560  0.1210
 4009SOL    HW119142   2.015   1.215   9.920 -4.3644  1.2043  2.7506
 4009SOL    HW219143   2.015   1.365   9.899 -2.2270  0.8995 -0.0155
 4010SOL     OW19144   6.625   5.458   4.217 -0.4805  0.3466  0.1282
 4010SOL    HW119145   6.608   5.524   4.284 -0.1199 -0.9278  1.5478
 4010SOL    HW219146   6.538   5.431   4.187 -0.8106 -1.0365  2.1470
 4011SOL     OW19147  10.233  10.393  10.974  0.2971  0.8171  0.1304
 4011SOL    HW119148  10.164  10.457  10.966 -1.1487 -0.8837 -2.6162
 4011SOL    HW219149  10.308  10.432  10.928  0.3380  1.5606  0.7989
 4012SOL     OW19150   3.766   3.800   8.450  0.2070 -0.1615 -0.2072
 4012SOL    HW119151   3.750   3.854   8.528  1.6723 -0.1265  0.1172
 4012SOL    HW219152   3.751   3.859   8.377 -2.7324 -0.6085 -0.0825
 4013SOL     OW19153   9.085  10.507  11.615  0.0508  0.0083 -0.2373
 4013SOL    HW119154   9.102  10.537  11.526 -0.5176  0.3137 -0.2460
 4013SOL    HW219155   9.084  10.587  11.667  1.3378 -0.2463  0.2109
 4014SOL     OW19156   3.289   9.845  10.375 -0.5514 -0.4339 -0.2598
 4014SOL    HW119157   3.225   9.905  10.413  0.0664 -0.2910  0.5770
 4014SOL    HW219158   3.355   9.833  10.444 -0.2451 -1.4350 -0.7093
 4015SOL     OW19159   0.709  11.173   5.662  0.4056 -0.0029 -0.4228
 4015SOL    HW119160   0.630  11.224   5.681 -0.9583 -1.7650 -1.0934
 4015SOL    HW219161   0.737  11.142   5.748 -1.6774 -2.1546 -0.4121
 4016SOL     OW19162  10.874   3.595   3.106  0.0926  0.4454 -0.0183
 4016SOL    HW119163  10.787   3.565   3.081 -1.1359  1.5757  2.5922
 4016SOL    HW219164  10.904   3.532   3.170  0.3454  1.1165  0.5398
 4017SOL     OW19165   1.024   4.391   6.232  0.9292  0.4076 -0.5221
 4017SOL    HW119166   1.066   4.320   6.184  0.3607 -0.5693  0.3801
 4017SOL    HW219167   0.932   4.365   6.238  0.7828  1.0274  0.1479
 4018SOL     OW19168   1.887   2.834  10.383 -0.3483  0.0927  0.5834
 4018SOL    HW119169   1.806   2.885  10.379 -0.6928 -0.4960 -0.4510
 4018SOL    HW219170   1.882   2.776  10.307  0.3943 -0.9308  1.2945
 4019SOL     OW19171   4.941  11.672   0.828 -0.8811  0.0564  0.1587
 4019SOL    HW119172   4.908  11.702   0.743 -0.7304  1.9744  0.7260
 4019SOL    HW219173   4.863  11.663   0.883 -0.8567  0.2278  0.2225
 4020SOL     OW19174  10.889   7.066   3.899 -0.1569 -0.0282  0.1560
 4020SOL    HW119175  10.796   7.075   3.878 -0.8843 -0.7620  2.7305
 4020SOL    HW219176  10.926   7.019   3.824 -2.4095 -2.0435  0.2016
 4021SOL     OW19177   1.474   3.958   9.162 -0.2196 -0.0704  0.7204
 4021SOL    HW119178   1.420   3.893   9.119 -0.0958  0.2943 -0.0033
 4021SOL    HW219179   1.536   3.907   9.215  1.0829 -0.6343 -1.2558
 4022SOL     OW19180  12.489   6.132  10.677  0.1313  0.2432 -0.2156
 4022SOL    HW119181  12.423   6.155  10.612 -0.8359  0.5745  0.8547
 4022SOL    HW219182  12.472   6.191  10.750  0.8038 -0.5370  0.5933
 4023SOL     OW19183   9.969   1.602  12.461 -0.3297 -0.2973  0.1391
 4023SOL    HW119184   9.942   1.678  12.410 -0.9203 -0.8020 -0.3085
 4023SOL    HW219185  10.049   1.571  12.420  0.1470  0.3273  0.5788
 4024SOL     OW19186  11.581   1.064  11.377 -0.0055  0.0447  0.3657
 4024SOL    HW119187  11.640   1.084  11.450 -1.7486  0.2209  1.8000
 4024SOL    HW219188  11.510   1.129  11.385 -0.8806 -0.7445 -0.7061
 4025SOL     OW19189  10.787   0.242   6.415 -0.0064  0.8353 -0.3545
 4025SOL    HW119190  10.846   0.277   6.348 -2.4657  0.0653 -3.1732
 4025SOL    HW219191  10.719   0.308   6.423 -0.9620 -0.1179 -0.3796
 4026SOL     OW19192   5.593   0.724   1.723  0.0057  0.2205 -0.5705
 4026SOL    HW119193   5.540   0.739   1.645  1.1462 -0.5632 -1.5272
 4026SOL    HW219194   5.679   0.701   1.690  0.0637 -1.9401  0.8695
 4027SOL     OW19195   0.621   3.625  10.783 -0.5562 -0.3629 -0.2708
 4027SOL    HW119196   0.621   3.667  10.697 -3.2479  1.0695  0.2922
 4027SOL    HW219197   0.635   3.697  10.845  0.1223 -1.1703  0.5406
 4028SOL     OW19198   0.199   0.492  11.666 -0.7741  0.1832  0.4521
 4028SOL    HW119199   0.107   0.501  11.642 -1.0291 -2.3433  0.2305
 4028SOL    HW219200   0.200   0.427  11.736  0.7760  0.9427  1.1938
 4029SOL     OW19201   7.867   5.637   2.672 -0.3641  0.5328  0.4809
 4029SOL    HW119202   7.811   5.700   2.718 -1.6396  1.5104 -2.2263
 4029SOL    HW219203   7.809   5.564   2.652 -0.0566  0.5094 -0.3332
 4030SOL     OW19204   3.432  11.900  10.346 -0.3449 -0.5395  0.2605
 4030SOL    HW119205   3.525  11.880  10.337 -0.7106 -1.8170 -1.2347
 4030SOL    HW219206   3.410  11.871  10.434  0.1681 -2.7500 -0.2665
 4031SOL     OW19207  11.892   7.205   7.995  0.1190 -0.2967  0.0800
 4031SOL    HW119208  11.804   7.225   7.966 -0.6478 -1.4540  1.4430
 4031SOL    HW219209  11.891   7.224   8.089  1.9864  1.7460 -0.2338
 4032SOL     OW19210   5.502  12.276   5.419  0.2162  0.1769  0.4994
 4032SOL    HW119211   5.533  12.350   5.471  1.7380 -1.2327  1.7191
 4032SOL    HW219212   5.563  12.272   5.345  1.5270 -1.1200  1.5974
 4033SOL     OW19213  11.796   5.375   3.700 -0.2047 -0.1241 -0.2032
 4033SOL    HW119214  11.814   5.463   3.732  2.1959  0.0562 -1.8333
 4033SOL    HW219215  11.843   5.369   3.617 -1.6685 -2.4031 -0.9536
 4034SOL     OW19216  11.527   7.419   3.215 -0.1775  0.8261  0.1405
 4034SOL    HW119217  11.565   7.344   3.170 -0.3464  1.9775 -2.0332
 4034SOL    HW219218  11.445   7.437   3.170 -1.3877  0.8537  2.2040
 4035SOL     OW19219  10.506   7.128   6.370  0.2878  0.0638 -0.0387
 4035SOL    HW119220  10.598   7.102   6.369 -0.0140 -1.1470 -1.6469
 4035SOL    HW219221  10.492   7.166   6.456  2.0274 -0.7111  0.6284
 4036SOL     OW19222   8.026   6.885   8.388  0.0124 -0.2833  0.0195
 4036SOL    HW119223   8.007   6.841   8.471  0.4391  1.6021  1.1663
 4036SOL    HW219224   8.117   6.912   8.395  0.9194 -2.3268 -2.2035
 4037SOL     OW19225   3.273   8.590   3.664  0.4404 -0.1266 -0.2011
 4037SOL    HW119226   3.243   8.622   3.749  0.7164 -1.4934  0.4240
 4037SOL    HW219227   3.368   8.601   3.665  0.5661 -1.1564  0.1167
 4038SOL     OW19228   5.022   2.296   9.166  0.1667 -0.5907 -0.5602
 4038SOL    HW119229   4.940   2.298   9.215 -0.4390 -3.0300 -1.3059
 4038SOL    HW219230   5.081   2.243   9.219 -0.0821 -2.1882 -1.8000
 4039SOL     OW19231   6.293   0.061   7.378 -0.0755 -0.0233 -0.1447
 4039SOL    HW119232   6.320   0.140   7.424  0.0082  0.2482 -0.6580
 4039SOL    HW219233   6.373   0.010   7.366  0.7118  1.6933 -3.4721
 4040SOL     OW19234   6.991  12.300   5.072  0.0257 -0.1242  0.1451
 4040SOL    HW119235   6.977  12.326   4.981 -0.6785 -0.1945  0.2250
 4040SOL    HW219236   7.046  12.222   5.066 -0.7273 -0.6379 -0.2774
 4041SOL     OW19237   7.510   5.387   6.459  0.2965 -0.6578  0.3557
 4041SOL    HW119238   7.580   5.417   6.402 -0.0572  0.2150  0.3721
 4041SOL    HW219239   7.489   5.299   6.427  1.3356 -0.8940  0.3062
 4042SOL     OW19240  10.446   6.788  10.962 -0.2308 -0.2989 -0.7556
 4042SOL    HW119241  10.478   6.715  10.910 -0.5434 -1.2538  0.3435
 4042SOL    HW219242  10.360   6.808  10.926 -0.7724 -1.4531 -0.1657
 4043SOL     OW19243   7.274   5.268  11.306  0.4016 -0.1998 -0.1931
 4043SOL    HW119244   7.215   5.322  11.360 -0.9177 -0.6612 -1.1158
 4043SOL    HW219245   7.308   5.329  11.241  0.8932  0.0556  0.3005
 4044SOL     OW19246  11.023   0.158   3.690  0.4942 -0.5045  0.2602
 4044SOL    HW119247  11.081   0.092   3.727  1.4056 -0.8647 -1.6846
 4044SOL    HW219248  10.962   0.109   3.635 -0.6956  0.0194  1.0923
 4045SOL     OW19249   8.486   4.632  12.582  0.2371 -0.1822 -0.0681
 4045SOL    HW119250   8.505   4.580  12.504 -3.0146 -0.1373 -1.0804
 4045SOL    HW219251   8.461   4.568  12.649 -1.4789 -0.1030 -0.5835
 4046SOL     OW19252   6.526   1.426   5.046 -0.4613  0.2781  0.0779
 4046SOL    HW119253   6.473   1.448   4.969 -0.6832  0.8712  0.3884
 4046SOL    HW219254   6.571   1.508   5.068  0.3712 -0.1457 -0.0129
 4047SOL     OW19255   4.179   8.220   4.126 -0.0399  0.1927  0.2147
 4047SOL    HW119256   4.228   8.302   4.120 -1.4102  0.9519 -1.0852
 4047SOL    HW219257   4.244   8.152   4.109  1.2719  0.9009  1.9974
 4048SOL     OW19258   1.088   1.420   4.326  0.1498  0.7805  0.5882
 4048SOL    HW119259   1.020   1.456   4.385 -0.5268  0.3625  0.0759
 4048SOL    HW219260   1.051   1.339   4.294  1.1484  0.2549  0.7331
 4049SOL     OW19261   6.193  10.191   3.264  0.3058  0.2881 -0.0305
 4049SOL    HW119262   6.275  10.226   3.230  1.2393 -0.4852  1.3512
 4049SOL    HW219263   6.185  10.229   3.351  0.3370 -1.3493  0.7203
 4050SOL     OW19264   2.957   3.487   7.859  0.0543  0.0318  0.0138
 4050SOL    HW119265   2.942   3.399   7.826 -1.9310  0.0998  0.6386
 4050SOL    HW219266   2.916   3.545   7.794 -2.2141  0.2493  1.5107
 4051SOL     OW19267  11.722   7.685   4.980  0.4787 -0.7213  0.2324
 4051SOL    HW119268  11.682   7.730   5.053  0.8307 -0.1771  0.0963
 4051SOL    HW219269  11.762   7.607   5.019  1.0223 -0.2238  0.6969
 4052SOL     OW19270   4.979   4.849   8.083 -0.5578 -0.5615 -0.2102
 4052SOL    HW119271   5.059   4.796   8.087 -0.5309 -0.5004  0.0622
 4052SOL    HW219272   4.931   4.826   8.162 -1.1313 -1.0978 -0.7029
 4053SOL     OW19273   4.131   7.357   0.109 -0.4149  0.0205 -0.1026
 4053SOL    HW119274   4.189   7.308   0.051 -0.5039 -1.4214  0.9721
 4053SOL    HW219275   4.187   7.420   0.153  0.0521 -0.3398 -0.1772
 4054SOL     OW19276   2.939   2.610   1.578  0.4538  0.0123 -0.0027
 4054SOL    HW119277   2.909   2.699   1.594 -0.3701 -0.3008  0.2998
 4054SOL    HW219278   2.917   2.593   1.486 -0.8137 -0.3807  0.3438
 4055SOL     OW19279   5.602  10.707   3.333  0.7568 -0.7079  0.2440
 4055SOL    HW119280   5.656  10.628   3.327 -1.2371 -2.1009 -0.4002
 4055SOL    HW219281   5.544  10.690   3.407  0.3093  0.1615  0.1036
 4056SOL     OW19282   1.042   7.732   0.661 -0.4366  0.5875 -0.2849
 4056SOL    HW119283   0.990   7.744   0.581 -0.7863  1.8212  0.1107
 4056SOL    HW219284   0.986   7.678   0.717 -0.0944 -0.4840 -0.9422
 4057SOL     OW19285  10.009   3.501  10.986  0.2455  0.6946  0.4129
 4057SOL    HW119286  10.027   3.594  10.996  0.8683  0.7038 -0.6473
 4057SOL    HW219287  10.095   3.460  10.981  0.0082  0.3341 -1.3119
 4058SOL     OW19288   7.199  12.318   8.827  0.1332  0.0692  0.0756
 4058SOL    HW119289   7.141  12.264   8.880  1.1823 -0.6463  0.5045
 4058SOL    HW219290   7.150  12.400   8.815 -1.5216 -0.9669 -0.6679
 4059SOL     OW19291   9.398   1.145   6.122  0.1866 -0.6032  0.9859
 4059SOL    HW119292   9.335   1.185   6.182  1.7262 -0.4288  2.5640
 4059SOL    HW219293   9.452   1.218   6.091 -0.0894 -0.8077 -0.0358
 4060SOL     OW19294  11.752   6.971   0.971  0.6529  0.3987 -0.5324
 4060SOL    HW119295  11.692   7.036   1.008 -0.1324 -0.2340 -0.6578
 4060SOL    HW219296  11.744   6.982   0.876 -0.7596 -0.9525 -0.6189
 4061SOL     OW19297  11.418   6.910   3.490 -0.7287 -0.5191 -0.2585
 4061SOL    HW119298  11.352   6.929   3.558 -0.1425 -2.6854  0.9941
 4061SOL    HW219299  11.493   6.963   3.516 -1.1932  0.2434 -0.4200
 4062SOL     OW19300   8.810   5.175  12.198 -0.2182  0.0564 -0.4746
 4062SOL    HW119301   8.853   5.244  12.249  0.2090 -0.7103  0.2365
 4062SOL    HW219302   8.848   5.093  12.232 -1.2426 -0.5724 -0.7921
 4063SOL     OW19303   6.313  10.674   3.914  0.0859  0.2005 -0.2078
 4063SOL    HW119304   6.396  10.658   3.868  0.3354  0.2513  0.2192
 4063SOL    HW219305   6.325  10.630   3.999  0.0070  0.9560  0.1952
 4064SOL     OW19306   5.335  10.190   1.704 -0.2593  0.1696 -0.0245
 4064SOL    HW119307   5.391  10.113   1.694  1.0917  1.0876  0.1786
 4064SOL    HW219308   5.339  10.210   1.797  0.0537  0.9542 -0.2035
 4065SOL     OW19309   3.386  11.647  11.827 -0.6142  0.2740 -0.3218
 4065SOL    HW119310   3.478  11.675  11.832 -0.8396  0.9388  0.2229
 4065SOL    HW219311   3.353  11.689  11.748 -0.7099  0.8502  0.0165
 4066SOL     OW19312   9.080   5.545  11.514 -0.3247 -0.4165 -0.5013
 4066SOL    HW119313   8.991   5.513  11.531 -0.3876 -0.7348 -1.3772
 4066SOL    HW219314   9.091   5.536  11.419 -0.4771  2.4946 -0.8806
 4067SOL     OW19315  12.558   6.458   2.335 -0.1074 -0.2543  0.4645
 4067SOL    HW119316  12.589   6.455   2.426 -0.0613 -1.4389  0.4302
 4067SOL    HW219317  12.584   6.373   2.299  0.9390  0.6410 -1.0130
 4068SOL     OW19318   3.046   1.092   2.571 -0.0774  0.1794  0.1485
 4068SOL    HW119319   3.141   1.101   2.580 -0.0028 -0.8522  0.4530
 4068SOL    HW219320   3.013   1.180   2.588  0.7763  0.4063  0.7052
 4069SOL     OW19321   4.401   1.724   4.137  0.0226 -0.9346 -0.5949
 4069SOL    HW119322   4.353   1.666   4.079 -0.6560 -1.5641  0.5510
 4069SOL    HW219323   4.369   1.702   4.225  0.5035  0.4660 -0.0407
 4070SOL     OW19324   5.070   9.471  11.637 -0.7259  0.5462 -0.4105
 4070SOL    HW119325   5.123   9.542  11.674 -1.4567  0.7980  0.1900
 4070SOL    HW219326   5.133   9.410  11.601 -0.0746  1.5270 -0.9905
 4071SOL     OW19327   7.263   9.067   1.979 -0.3927 -0.3457 -0.2505
 4071SOL    HW119328   7.275   9.162   1.981 -0.6926 -0.2204 -2.2462
 4071SOL    HW219329   7.187   9.053   1.922  0.8024 -1.8525 -1.5715
 4072SOL     OW19330  11.323   6.237   4.116 -0.2937  0.1545  0.6739
 4072SOL    HW119331  11.352   6.325   4.140  2.6187  0.1345 -1.9861
 4072SOL    HW219332  11.386   6.179   4.158  0.6268 -0.2729 -1.1845
 4073SOL     OW19333   6.756   2.296  12.942 -0.5195  0.1415 -0.6009
 4073SOL    HW119334   6.673   2.317  12.985 -0.2917  1.2441 -0.6696
 4073SOL    HW219335   6.821   2.350  12.988 -0.2066  1.0418 -2.0408
 4074SOL     OW19336  10.352  10.367   3.143 -0.5949  0.1330  0.1706
 4074SOL    HW119337  10.397  10.327   3.068 -1.1971  1.3173 -0.8683
 4074SOL    HW219338  10.375  10.459   3.138 -0.8072  0.2641  1.3561
 4075SOL     OW19339   2.993   4.605   6.230 -0.0409 -0.7497  0.0841
 4075SOL    HW119340   2.908   4.588   6.191 -0.3502 -0.9692  0.8379
 4075SOL    HW219341   2.994   4.699   6.247 -0.3370 -0.8295  0.5444
 4076SOL     OW19342   2.753   9.746   8.723 -0.3167  0.1597 -0.2449
 4076SOL    HW119343   2.673   9.763   8.672  0.0182 -1.4276 -1.3787
 4076SOL    HW219344   2.751   9.652   8.740  0.3475  0.4131  1.4552
 4077SOL     OW19345   9.249   5.352   8.510  0.3395  0.5195  0.1451
 4077SOL    HW119346   9.182   5.317   8.451  1.4025  1.5493 -1.7977
 4077SOL    HW219347   9.253   5.290   8.582 -1.0300 -0.8206 -0.8724
 4078SOL     OW19348  10.379  10.051   0.124  0.4135 -0.5349 -0.9487
 4078SOL    HW119349  10.436  10.123   0.096 -0.1118  0.6260  0.7805
 4078SOL    HW219350  10.313  10.045   0.055  0.4911  0.6339 -1.1572
 4079SOL     OW19351   2.557   4.373   2.879  0.0567 -0.2187  0.2910
 4079SOL    HW119352   2.580   4.448   2.823  0.6451 -0.2367  0.5026
 4079SOL    HW219353   2.470   4.394   2.911 -0.5914 -0.5452 -1.1991
 4080SOL     OW19354  10.489   5.855  10.838  0.1822  0.3606 -0.0176
 4080SOL    HW119355  10.562   5.916  10.842  0.4903 -0.0676  2.3274
 4080SOL    HW219356  10.529   5.769  10.850 -0.5299 -0.0328 -0.4157
 4081SOL     OW19357   9.495  11.563   3.650 -0.4016 -0.0902  0.2048
 4081SOL    HW119358   9.521  11.614   3.728 -1.2601 -0.7158  0.9246
 4081SOL    HW219359   9.466  11.479   3.685  2.9221 -1.9407 -1.1019
 4082SOL     OW19360  11.729   1.002   5.973  0.4687 -0.0014  0.2252
 4082SOL    HW119361  11.694   1.091   5.972  1.7131  0.5462  1.7287
 4082SOL    HW219362  11.653   0.946   5.988  0.0361  1.0510  2.2069
 4083SOL     OW19363   4.451   2.316   1.965  0.0166  0.1728 -0.0731
 4083SOL    HW119364   4.417   2.403   1.985  2.2308  1.1098 -0.1369
 4083SOL    HW219365   4.490   2.325   1.878  0.9648 -0.6716  0.2537
 4084SOL     OW19366  10.058  11.151  11.377 -0.1602 -0.0493  0.3892
 4084SOL    HW119367  10.152  11.139  11.364 -0.3547 -0.5493 -0.6775
 4084SOL    HW219368  10.050  11.231  11.429  0.7868  0.9843 -0.9902
 4085SOL     OW19369   8.146   5.119   2.848 -0.3386 -0.5830  0.4295
 4085SOL    HW119370   8.058   5.156   2.849 -1.1817 -2.4919  0.6795
 4085SOL    HW219371   8.147   5.057   2.920  0.9842 -1.1147 -0.0152
 4086SOL     OW19372   8.115   3.399   2.057  0.4721 -0.3555  0.6837
 4086SOL    HW119373   8.158   3.320   2.025  1.1245  0.6077 -0.9647
 4086SOL    HW219374   8.110   3.387   2.152  2.4405 -1.4774  0.6989
 4087SOL     OW19375   9.467  12.359   3.728 -0.1697  0.1864  0.4154
 4087SOL    HW119376   9.465  12.451   3.699  0.1998 -0.2785 -1.2112
 4087SOL    HW219377   9.534  12.318   3.673 -0.7614 -1.1934  0.6722
 4088SOL     OW19378   2.343   9.037  10.943 -0.1621 -0.0943  0.3372
 4088SOL    HW119379   2.352   9.054  11.037  1.2802  0.7681  0.0826
 4088SOL    HW219380   2.412   8.973  10.923  0.1141  0.3726 -0.2651
 4089SOL     OW19381   5.922   8.879   3.538  0.4353  0.0556 -0.0603
 4089SOL    HW119382   5.934   8.897   3.631 -1.8611 -0.0446  0.3150
 4089SOL    HW219383   6.010   8.862   3.505  1.3607  0.6143  1.9669
 4090SOL     OW19384  11.294  12.103   6.253 -0.1496  0.7870 -0.5346
 4090SOL    HW119385  11.264  12.188   6.220 -0.4705  1.2385  0.8458
 4090SOL    HW219386  11.363  12.077   6.192 -2.1500  0.5109 -2.8756
 4091SOL     OW19387  10.322   3.081   3.753  0.1626 -0.0093  0.6040
 4091SOL    HW119388  10.283   2.994   3.738 -1.8625  0.4865  2.4954
 4091SOL    HW219389  10.337   3.084   3.848  0.1727  1.7023  0.5708
 4092SOL     OW19390  11.544   4.984  11.256  0.3414  0.1107 -0.0241
 4092SOL    HW119391  11.581   5.001  11.169 -1.1621 -0.4123 -0.7849
 4092SOL    HW219392  11.489   5.061  11.274  0.8409  0.3375  0.5972
 4093SOL     OW19393   2.865   6.852   9.962 -0.1143 -0.2394  0.0422
 4093SOL    HW119394   2.960   6.841   9.967 -0.3283 -2.0630  0.9365
 4093SOL    HW219395   2.837   6.785   9.899 -0.6639  1.6394 -1.8347
 4094SOL     OW19396   4.794  10.589   4.311 -0.0738 -0.5298  0.2400
 4094SOL    HW119397   4.822  10.507   4.351  0.5397 -0.8608 -0.8245
 4094SOL    HW219398   4.875  10.633   4.287 -0.4093 -0.7438 -1.4050
 4095SOL     OW19399   3.174   8.344   2.170  0.3494  0.2131 -0.3633
 4095SOL    HW119400   3.156   8.258   2.209  0.9778 -0.3459 -1.2777
 4095SOL    HW219401   3.216   8.393   2.240 -0.0914 -0.1893  0.1959
 4096SOL     OW19402  10.725  11.999   3.559  0.0603 -0.2021 -0.2028
 4096SOL    HW119403  10.781  12.039   3.492  0.3223  1.6538  1.0853
 4096SOL    HW219404  10.719  11.907   3.532 -0.0936  0.5248 -2.9378
 4097SOL     OW19405   6.381   8.069   8.194 -0.1872 -0.3433 -0.1011
 4097SOL    HW119406   6.328   8.055   8.116 -0.9375 -0.2792  0.3849
 4097SOL    HW219407   6.353   7.999   8.254  1.3168 -1.2146 -0.3511
 4098SOL     OW19408   8.540   3.260   4.265 -0.4519  0.6696  0.5148
 4098SOL    HW119409   8.620   3.301   4.233  1.5336 -2.8042  0.5846
 4098SOL    HW219410   8.545   3.267   4.360 -0.0294  0.1698  0.5339
 4099SOL     OW19411  12.235   5.257   5.085 -0.2597  0.1364  0.4888
 4099SOL    HW119412  12.183   5.335   5.067 -0.0611  0.0569 -0.4848
 4099SOL    HW219413  12.245   5.255   5.180  1.7491  2.6244  0.4385
 4100SOL     OW19414   7.741   8.616   7.842 -0.0183 -0.1516 -0.1438
 4100SOL    HW119415   7.778   8.704   7.842 -2.7429  1.1111  0.8812
 4100SOL    HW219416   7.790   8.570   7.910  0.5181  0.9963  0.2762
 4101SOL     OW19417  11.340  12.465   8.639  0.3082 -0.9180  0.1711
 4101SOL    HW119418  11.393  12.457   8.719  2.9038 -0.9646 -1.4362
 4101SOL    HW219419  11.332  12.559   8.625  0.5249 -0.9116  0.0820
 4102SOL     OW19420   0.049   9.324   9.285  0.4682  0.6438  0.0279
 4102SOL    HW119421   0.023   9.266   9.356 -0.7722  2.8715  1.4925
 4102SOL    HW219422  -0.033   9.342   9.238  0.7577  1.4929 -0.1612
 4103SOL     OW19423   2.705  10.075  12.122  0.2720  0.2508  0.2788
 4103SOL    HW119424   2.630  10.069  12.064  0.8081  1.1044 -0.5237
 4103SOL    HW219425   2.702  10.164  12.157  0.4127  0.0030  0.9343
 4104SOL     OW19426   9.990   3.062   3.140  0.2992 -0.6846 -0.2343
 4104SOL    HW119427  10.043   3.038   3.216  1.1328 -0.7400 -0.8206
 4104SOL    HW219428   9.946   2.981   3.115  0.7077 -0.8739 -0.3416
 4105SOL     OW19429   7.856  12.861  10.102  0.3079 -0.9252  0.1975
 4105SOL    HW119430   7.763  12.840  10.098 -0.0253  0.3066  0.7606
 4105SOL    HW219431   7.889  12.809  10.175 -0.6991  1.0698  2.1964
 4106SOL     OW19432   4.859   4.474   7.253  0.1156 -0.1022  0.1960
 4106SOL    HW119433   4.769   4.497   7.278  0.3157  2.0195 -0.7977
 4106SOL    HW219434   4.875   4.524   7.173  2.3587  0.0104  0.6401
 4107SOL     OW19435   9.869   6.078   6.342 -0.2784  0.3930 -0.0631
 4107SOL    HW119436   9.826   6.002   6.302 -0.8378  0.3128  0.6634
 4107SOL    HW219437   9.961   6.069   6.317 -0.6426  0.4621 -1.4764
 4108SOL     OW19438   3.946  10.280   1.968 -0.2768  0.1711 -0.0370
 4108SOL    HW119439   3.953  10.196   2.014 -0.6082  0.8959  1.3853
 4108SOL    HW219440   3.893  10.261   1.891 -0.4056 -0.9170  0.3033
 4109SOL     OW19441   2.202  11.804   6.720  0.3091 -0.1126  0.4103
 4109SOL    HW119442   2.132  11.853   6.677  0.2686  0.3477  0.9834
 4109SOL    HW219443   2.282  11.833   6.676  0.0769 -1.3594 -0.9101
 4110SOL     OW19444   0.779   7.366   4.067 -0.3666 -0.8618 -0.1146
 4110SOL    HW119445   0.702   7.339   4.018 -0.0390 -1.0027 -0.5617
 4110SOL    HW219446   0.763   7.458   4.089 -0.3154 -0.6672 -0.8843
 4111SOL     OW19447  11.874   9.266   0.036 -0.0512 -0.3834  0.3084
 4111SOL    HW119448  11.849   9.186   0.081 -0.6833  0.4099  1.4428
 4111SOL    HW219449  11.963   9.250   0.005 -0.5246 -1.8697 -0.3957
 4112SOL     OW19450   5.492   1.569   1.387 -0.6305  0.1428  0.1702
 4112SOL    HW119451   5.458   1.658   1.391  0.6537  0.6925 -0.4678
 4112SOL    HW219452   5.487   1.545   1.294 -1.2182 -0.5740  0.3710
 4113SOL     OW19453   3.663   1.985   9.212 -0.2082  0.3695  0.0484
 4113SOL    HW119454   3.648   2.015   9.122 -3.1337  1.6297  0.8582
 4113SOL    HW219455   3.692   1.894   9.201  0.8943  0.8953 -2.1599
 4114SOL     OW19456   4.618   4.813   6.319 -0.8642  0.1537 -0.1942
 4114SOL    HW119457   4.604   4.764   6.238  1.1288  0.6481 -0.8940
 4114SOL    HW219458   4.572   4.896   6.305 -1.5567 -0.2424 -0.3075
 4115SOL     OW19459   8.418   1.120  11.730  0.4074  0.1958  0.0514
 4115SOL    HW119460   8.415   1.138  11.636  0.2710  0.8748  0.1744
 4115SOL    HW219461   8.359   1.185  11.769 -0.0537 -0.5030  0.5515
 4116SOL     OW19462   8.130   5.268   9.276  0.6196 -0.4027  0.1234
 4116SOL    HW119463   8.145   5.175   9.292  0.6040 -0.4284 -0.0136
 4116SOL    HW219464   8.071   5.271   9.201  0.7479 -0.2782  0.0264
 4117SOL     OW19465   2.692   1.042   4.338  0.0786 -0.0046 -0.1568
 4117SOL    HW119466   2.680   1.024   4.245 -0.6986  1.3398 -0.3399
 4117SOL    HW219467   2.671   0.959   4.382  0.3508 -0.6154 -1.1591
 4118SOL     OW19468   2.415   0.829   9.639 -0.4097 -0.1837  0.5246
 4118SOL    HW119469   2.394   0.771   9.712  1.4100 -1.0806  0.3997
 4118SOL    HW219470   2.424   0.770   9.564 -1.3903  0.6307 -0.2627
 4119SOL     OW19471  12.597   9.656   9.689  0.8642  0.6278  0.2588
 4119SOL    HW119472  12.663   9.600   9.729  0.2831 -0.5443 -0.3708
 4119SOL    HW219473  12.590   9.624   9.599 -1.6314 -0.3290  0.7165
 4120SOL     OW19474  10.172   2.491   7.556 -0.2267  0.4522 -0.3331
 4120SOL    HW119475  10.248   2.487   7.497 -0.3612  0.0900 -0.4819
 4120SOL    HW219476  10.210   2.481   7.643 -0.2080 -0.9672 -0.4763
 4121SOL     OW19477   1.074   0.342   3.765  0.2937 -0.1112 -0.0840
 4121SOL    HW119478   1.034   0.255   3.757  3.7218 -1.9062  0.6763
 4121SOL    HW219479   1.077   0.358   3.859  0.3543  0.5065 -0.1912
 4122SOL     OW19480   7.432   5.156   5.929  0.6033  0.5077  0.1700
 4122SOL    HW119481   7.514   5.108   5.925  1.1947  1.4409  0.7775
 4122SOL    HW219482   7.415   5.167   6.023 -0.3089  0.1775  0.0564
 4123SOL     OW19483   6.249   5.467  10.471 -0.5863  0.0367 -0.3834
 4123SOL    HW119484   6.197   5.532  10.519  0.8140  0.3875  0.7314
 4123SOL    HW219485   6.242   5.493  10.380 -2.8781 -0.3162 -0.3668
 4124SOL     OW19486   6.059   0.449  10.146  0.0005  0.0995 -1.0289
 4124SOL    HW119487   6.154   0.457  10.156  0.1098 -0.9182 -1.1263
 4124SOL    HW219488   6.025   0.537  10.161  0.7563  0.0472  1.2677
 4125SOL     OW19489   1.199   9.814   5.002 -0.1004 -0.3472 -0.2444
 4125SOL    HW119490   1.126   9.806   4.941  1.2719 -1.0271 -1.8742
 4125SOL    HW219491   1.275   9.783   4.953  1.1293 -0.6338  1.7155
 4126SOL     OW19492  11.916   4.012   3.776 -0.4829  0.0531 -0.3432
 4126SOL    HW119493  11.857   4.015   3.851 -0.0686 -0.1587 -0.0042
 4126SOL    HW219494  11.972   3.936   3.792  1.4074  1.5529  0.5011
 4127SOL     OW19495   8.497   8.251   9.299 -0.0875 -0.3315 -0.1163
 4127SOL    HW119496   8.561   8.322   9.301  0.2086 -0.6229  1.2381
 4127SOL    HW219497   8.430   8.276   9.362 -0.8339 -0.4884 -0.8240
 4128SOL     OW19498  12.858   9.510   6.410  0.1770  0.0516  0.0699
 4128SOL    HW119499  12.877   9.528   6.501  0.0796  0.4362  0.0147
 4128SOL    HW219500  12.771   9.548   6.395  0.6749  1.0068 -0.4830
 4129SOL     OW19501   4.124   5.823  10.127  0.0612  0.4523  0.1557
 4129SOL    HW119502   4.105   5.803  10.218  0.4438  0.9277  0.3409
 4129SOL    HW219503   4.172   5.906  10.129  2.5954 -0.8889 -0.2390
 4130SOL     OW19504   0.526   7.756  10.843  0.1929 -0.0083 -0.3259
 4130SOL    HW119505   0.521   7.663  10.869  0.5850  0.1644  0.4027
 4130SOL    HW219506   0.448   7.795  10.882 -0.8145 -0.3167 -1.9416
 4131SOL     OW19507   7.262   9.736  10.242 -0.0213 -0.2729 -0.4457
 4131SOL    HW119508   7.236   9.810  10.297  0.8417 -0.4700  0.2460
 4131SOL    HW219509   7.180   9.688  10.227 -0.4233  0.2925 -0.1011
 4132SOL     OW19510   8.765   4.664   7.920 -0.1215 -0.2455  0.3971
 4132SOL    HW119511   8.699   4.649   7.852  0.6166  0.2014 -0.4445
 4132SOL    HW219512   8.730   4.735   7.973 -1.7793 -2.0790  1.9520
 4133SOL     OW19513   1.012   7.371   5.042 -0.6619  0.3475  0.8923
 4133SOL    HW119514   0.996   7.277   5.045  0.5526  0.1007  0.2701
 4133SOL    HW219515   0.925   7.409   5.027 -1.1575 -0.6647  1.0792
 4134SOL     OW19516   2.462  10.137   5.674  0.1767 -0.0276  0.0231
 4134SOL    HW119517   2.446  10.228   5.648 -0.2662 -0.8486 -2.9563
 4134SOL    HW219518   2.375  10.098   5.676  0.5145 -0.8107 -0.4988
 4135SOL     OW19519   7.130   2.672   2.919  0.0697 -0.7806 -0.3133
 4135SOL    HW119520   7.203   2.648   2.862  1.5710  1.2004  0.6536
 4135SOL    HW219521   7.074   2.728   2.866  0.8960  0.1900 -0.1745
 4136SOL     OW19522   1.982   2.429   4.352 -0.1946  0.2035 -0.4927
 4136SOL    HW119523   1.983   2.517   4.317  1.5329  0.9785  1.2738
 4136SOL    HW219524   1.894   2.417   4.386 -1.1108  0.3735 -2.6536
 4137SOL     OW19525   5.971   3.282   9.153  0.1477  0.3870  0.1381
 4137SOL    HW119526   5.947   3.190   9.148 -1.2354  0.6469  1.3305
 4137SOL    HW219527   6.006   3.294   9.242  1.7206  0.7328 -0.4810
 4138SOL     OW19528   4.321   0.986   9.436  0.0823 -0.7648  0.4518
 4138SOL    HW119529   4.383   0.943   9.496  0.9591 -0.9756 -0.5830
 4138SOL    HW219530   4.287   0.915   9.381  1.4156 -0.2069 -1.1620
 4139SOL     OW19531  12.472   9.119   7.732 -0.2386  0.2096  0.6286
 4139SOL    HW119532  12.465   9.084   7.643 -0.0636  1.6138  0.0428
 4139SOL    HW219533  12.532   9.193   7.724 -0.8219  0.8316  1.7776
 4140SOL     OW19534   1.690   3.144   5.365 -0.2686 -0.3621 -0.0034
 4140SOL    HW119535   1.716   3.236   5.365  1.0614 -0.7103 -0.6504
 4140SOL    HW219536   1.641   3.133   5.283 -2.4768  0.2605  1.1480
 4141SOL     OW19537   8.529  11.611   6.989  0.8173  0.4723  0.0262
 4141SOL    HW119538   8.487  11.582   7.070  0.2315 -2.7532 -1.2658
 4141SOL    HW219539   8.538  11.706   6.999  1.4235  0.1657  4.1072
 4142SOL     OW19540   5.677   1.455  12.694  0.3995 -0.3475  0.5620
 4142SOL    HW119541   5.672   1.453  12.599  0.9185 -1.0660  0.5418
 4142SOL    HW219542   5.598   1.502  12.722  0.7480  0.7646 -0.2598
 4143SOL     OW19543   3.690  11.500  12.364 -0.2070 -0.1592  0.1357
 4143SOL    HW119544   3.770  11.551  12.356  0.7274 -1.6513 -0.4617
 4143SOL    HW219545   3.624  11.552  12.317  1.1770 -0.3972 -2.2639
 4144SOL     OW19546   0.873   6.451   8.324 -0.0625 -1.0127 -0.2344
 4144SOL    HW119547   0.904   6.542   8.323  0.6804 -1.2342  0.9699
 4144SOL    HW219548   0.833   6.439   8.238 -1.5921  0.9331  0.1267
 4145SOL     OW19549   1.437  10.852   3.359 -0.2683  0.2375  0.0796
 4145SOL    HW119550   1.379  10.823   3.429  2.1881 -0.3202  2.0404
 4145SOL    HW219551   1.479  10.772   3.326 -0.8407  0.5754 -1.5699
 4146SOL     OW19552   6.462   1.068   5.915  0.0853 -0.3308 -0.1129
 4146SOL    HW119553   6.512   1.003   5.964 -1.7314 -0.9127  1.0724
 4146SOL    HW219554   6.525   1.137   5.895  1.5097 -1.3628  0.6708
 4147SOL     OW19555   1.084   8.394   6.512 -0.1684  0.0467  0.0394
 4147SOL    HW119556   1.071   8.489   6.512  0.6915  0.1833  1.1909
 4147SOL    HW219557   1.142   8.378   6.437  0.2399  0.5170  0.2483
 4148SOL     OW19558   6.215   3.676   7.900  0.1759 -0.5917  0.2325
 4148SOL    HW119559   6.202   3.583   7.916  0.3582 -0.5990  0.3425
 4148SOL    HW219560   6.167   3.720   7.970 -2.3529 -0.5161 -1.4036
 4149SOL     OW19561   3.224   4.019   7.482  0.4408 -0.4539  0.1965
 4149SOL    HW119562   3.159   3.951   7.500  1.2398 -1.1566  0.5080
 4149SOL    HW219563   3.205   4.088   7.545 -0.9093  0.0043 -0.6739
 4150SOL     OW19564   3.149   1.852  11.108  0.0474  0.0736 -0.3444
 4150SOL    HW119565   3.134   1.925  11.168 -1.0695  0.8427 -1.4915
 4150SOL    HW219566   3.211   1.886  11.044  0.3434 -0.3458 -0.2795
 4151SOL     OW19567   3.944   8.501   1.475 -0.1824 -0.2561  0.7382
 4151SOL    HW119568   4.020   8.559   1.467  0.1147 -0.6444  0.7342
 4151SOL    HW219569   3.918   8.508   1.567  0.4923 -0.9116  0.9865
 4152SOL     OW19570   0.999   8.654   4.308  0.5193  0.3215  0.0554
 4152SOL    HW119571   1.071   8.591   4.303  0.8799  0.6901  0.4873
 4152SOL    HW219572   1.036   8.735   4.273  0.6343  0.7827  1.2029
 4153SOL     OW19573   4.725  12.658   4.180 -0.8272 -0.2584 -0.1709
 4153SOL    HW119574   4.705  12.587   4.118  2.8063 -0.6312 -1.1650
 4153SOL    HW219575   4.781  12.717   4.130  0.4201  0.6107  2.1498
 4154SOL     OW19576  11.648   0.945   3.235 -0.3536 -0.0047  0.4699
 4154SOL    HW119577  11.605   1.011   3.290 -0.0047 -0.2439  1.0278
 4154SOL    HW219578  11.741   0.961   3.247 -0.2598 -0.9050  0.9719
 4155SOL     OW19579   5.169  10.660   1.385  0.1217 -0.2684 -0.0028
 4155SOL    HW119580   5.091  10.700   1.346 -0.5349 -1.0164  0.5131
 4155SOL    HW219581   5.227  10.642   1.310  0.4958  1.6981 -0.2499
 4156SOL     OW19582   7.038  10.307   8.452  0.6162 -0.1243  0.0717
 4156SOL    HW119583   7.048  10.262   8.536  0.2256  0.4730  0.4471
 4156SOL    HW219584   7.118  10.286   8.404  0.5818 -0.9644  0.3531
 4157SOL     OW19585  11.874   9.508   5.115 -0.1890  0.0067 -0.3825
 4157SOL    HW119586  11.875   9.584   5.173 -0.4582  0.5368 -1.0633
 4157SOL    HW219587  11.957   9.464   5.131  0.3723  0.9546 -0.6434
 4158SOL     OW19588   9.562   3.888   6.968  0.1917 -0.6161  0.5555
 4158SOL    HW119589   9.532   3.800   6.945  0.1950 -0.4476 -0.0949
 4158SOL    HW219590   9.655   3.878   6.986  0.4857 -0.5043 -0.8456
 4159SOL     OW19591   4.456   4.780  11.932 -0.0216 -0.1148  0.2731
 4159SOL    HW119592   4.483   4.692  11.959 -2.6829 -0.5004  2.1049
 4159SOL    HW219593   4.460   4.832  12.012 -1.0187  0.7161 -0.1903
 4160SOL     OW19594   7.173   8.636   2.516  1.2012 -0.3527  0.1540
 4160SOL    HW119595   7.193   8.700   2.447  0.7279  2.1589  2.2320
 4160SOL    HW219596   7.171   8.687   2.597 -0.2712 -2.8411  1.8066
 4161SOL     OW19597  10.964   2.241   2.501 -0.0262  0.1544  0.1878
 4161SOL    HW119598  10.959   2.147   2.487  2.3991 -0.1991  1.1833
 4161SOL    HW219599  10.972   2.251   2.596  0.9232  1.2535  0.0224
 4162SOL     OW19600  10.447   3.205   8.413  0.0226  0.1780 -0.4681
 4162SOL    HW119601  10.498   3.258   8.475  2.0944 -1.0499 -1.0121
 4162SOL    HW219602  10.465   3.115   8.438 -0.7032 -0.3100 -1.6304
 4163SOL     OW19603  10.324   8.664   4.013  0.2930 -0.3808 -0.2023
 4163SOL    HW119604  10.298   8.733   3.952 -0.2385 -0.2843  0.1248
 4163SOL    HW219605  10.243   8.640   4.058  0.3227 -1.7128 -0.8033
 4164SOL     OW19606  12.788   6.041  11.821  0.2515  0.5607 -0.6195
 4164SOL    HW119607  12.770   6.039  11.727 -0.1448  0.7662 -0.5500
 4164SOL    HW219608  12.868   5.990  11.831  0.7953  1.3038 -1.1743
 4165SOL     OW19609   3.720   2.382   1.591 -0.5342 -0.3679 -0.1346
 4165SOL    HW119610   3.731   2.394   1.497  1.0753 -2.3343 -0.2713
 4165SOL    HW219611   3.628   2.361   1.602 -0.7156 -0.2387 -1.2819
 4166SOL     OW19612   3.324  10.198   9.458  0.9077 -0.1460  0.2085
 4166SOL    HW119613   3.244  10.239   9.491  1.9450  0.4725  2.1090
 4166SOL    HW219614   3.299  10.162   9.373 -0.6837  2.3780 -0.5067
 4167SOL     OW19615   5.694   0.376   3.511  0.6260  0.5257  0.6013
 4167SOL    HW119616   5.684   0.384   3.417  0.2422 -3.4812  0.1297
 4167SOL    HW219617   5.607   0.397   3.546  0.0752 -0.3205 -0.2111
 4168SOL     OW19618   8.715   8.214  11.374  0.5559 -0.7489 -0.0643
 4168SOL    HW119619   8.768   8.173  11.305  0.5906 -2.3389  0.8423
 4168SOL    HW219620   8.777   8.230  11.446  0.7345  1.8268 -0.7005
 4169SOL     OW19621   2.047   7.260   7.775 -0.3489  0.5497 -0.2842
 4169SOL    HW119622   1.961   7.243   7.736 -1.0459  1.4760  0.7866
 4169SOL    HW219623   2.107   7.201   7.729 -1.5922 -0.2599 -0.8994
 4170SOL     OW19624   5.825   3.583   7.343 -0.3860 -0.1079  0.2013
 4170SOL    HW119625   5.803   3.572   7.436 -0.7953  0.1128  0.1328
 4170SOL    HW219626   5.748   3.626   7.306 -0.3094 -0.3851 -0.2827
 4171SOL     OW19627  12.508   6.980  10.212  0.4761 -0.7306 -0.7032
 4171SOL    HW119628  12.532   6.912  10.275 -0.9557 -0.3786  0.2629
 4171SOL    HW219629  12.432   6.945  10.166 -0.5168  0.3246  0.0660
 4172SOL     OW19630   0.229  11.616   9.675  0.0323  0.0514 -0.0954
 4172SOL    HW119631   0.270  11.703   9.672  3.5776 -1.4706 -1.2560
 4172SOL    HW219632   0.226  11.587   9.584 -1.8228 -0.8105  0.1913
 4173SOL     OW19633  10.464  10.638   5.240  0.4026 -0.3593  0.0014
 4173SOL    HW119634  10.541  10.693   5.258  0.7209 -0.5915 -0.6185
 4173SOL    HW219635  10.497  10.548   5.245  1.1326 -0.4996 -3.9515
 4174SOL     OW19636   7.205   9.926   5.815 -0.1218  0.2168 -0.1909
 4174SOL    HW119637   7.180  10.014   5.789 -2.7073 -0.3749 -0.0454
 4174SOL    HW219638   7.208   9.876   5.733 -2.7143 -0.3845 -0.0254
 4175SOL     OW19639   2.624   2.261   1.075 -0.1393  0.0345 -0.0377
 4175SOL    HW119640   2.629   2.191   1.011  1.8295  1.1220 -1.1744
 4175SOL    HW219641   2.650   2.220   1.158  0.4428 -0.7132 -0.5808
 4176SOL     OW19642   9.743   1.188  12.716  0.4140  0.7677  0.3800
 4176SOL    HW119643   9.650   1.186  12.694  0.5425 -2.5381 -0.3493
 4176SOL    HW219644   9.746   1.175  12.811  0.1336  0.8315  0.3963
 4177SOL     OW19645   0.394   9.012   5.707  0.6174 -0.2260  0.0755
 4177SOL    HW119646   0.319   8.991   5.651  0.6207  0.0527 -0.0350
 4177SOL    HW219647   0.380   8.961   5.786 -0.2068  0.5618  0.4625
 4178SOL     OW19648   2.519   8.627   0.627  0.1465 -0.1787  0.1842
 4178SOL    HW119649   2.455   8.640   0.556  0.3183  0.1073  0.0786
 4178SOL    HW219650   2.528   8.714   0.666 -0.2673 -0.4255  0.8288
 4179SOL     OW19651   6.915   3.723   9.632  0.4794  0.2467 -0.2248
 4179SOL    HW119652   6.923   3.814   9.659  1.6518 -0.0308  0.4266
 4179SOL    HW219653   6.840   3.722   9.573  0.0044  1.4997  0.3258
 4180SOL     OW19654   1.292   7.771  11.011  0.4173  0.1034 -0.2484
 4180SOL    HW119655   1.327   7.802  11.095 -0.6011  1.7254 -0.3970
 4180SOL    HW219656   1.279   7.850  10.959 -1.5424 -0.6080 -0.9245
 4181SOL     OW19657   4.129   7.366   6.952  0.4761 -0.1148  0.0264
 4181SOL    HW119658   4.055   7.383   7.010 -0.4479 -2.4718 -0.3652
 4181SOL    HW219659   4.111   7.418   6.874 -1.0962 -1.0693 -0.2851
 4182SOL     OW19660   8.055   2.535  10.551  0.3857 -0.3576  0.0097
 4182SOL    HW119661   8.056   2.572  10.640  1.6823 -3.3907  1.4390
 4182SOL    HW219662   8.126   2.581  10.506 -2.0254  3.2022 -0.5410
 4183SOL     OW19663   1.238   8.617   0.149  0.0408  0.1401 -0.3651
 4183SOL    HW119664   1.266   8.564   0.225 -1.0893  1.0513  0.7355
 4183SOL    HW219665   1.183   8.557   0.098 -0.6368  0.0072  0.4892
 4184SOL     OW19666  10.581   1.776   5.503 -0.0115  0.0465 -0.1556
 4184SOL    HW119667  10.654   1.823   5.543 -0.1805 -0.5840  0.9277
 4184SOL    HW219668  10.619   1.692   5.477 -0.4100 -0.3855  0.6487
 4185SOL     OW19669   4.111  10.235   4.921 -0.7140 -0.6435 -0.5833
 4185SOL    HW119670   4.075  10.293   4.854 -0.3941  1.5634  1.0347
 4185SOL    HW219671   4.165  10.173   4.872 -1.8000 -0.1731 -2.4895
 4186SOL     OW19672   5.480   9.519   7.277  0.3793 -0.0165  0.1729
 4186SOL    HW119673   5.558   9.476   7.311  0.2943 -2.3371 -2.2196
 4186SOL    HW219674   5.512   9.577   7.208  0.0464 -1.4371 -1.2438
 4187SOL     OW19675   3.092   5.003   3.320  1.0365  0.5488  0.0022
 4187SOL    HW119676   3.068   5.095   3.308  1.4726  0.5235 -1.2485
 4187SOL    HW219677   3.032   4.971   3.387  2.4130  2.3278  2.2106
 4188SOL     OW19678   0.309   8.196   5.987 -0.2940  0.0949 -0.0239
 4188SOL    HW119679   0.322   8.241   6.071  2.0228 -3.5911  1.8667
 4188SOL    HW219680   0.221   8.159   5.992  0.3845 -1.4702  1.6901
 4189SOL     OW19681  10.683  12.265   9.264 -0.1530  0.2062 -0.2431
 4189SOL    HW119682  10.621  12.318   9.213 -1.1538 -0.1369  0.5752
 4189SOL    HW219683  10.706  12.320   9.339 -0.6785 -0.2433  0.2585
 4190SOL     OW19684  12.798   5.282   0.152  0.1419 -0.2574  0.0324
 4190SOL    HW119685  12.807   5.304   0.059 -0.8032  1.1955  0.2636
 4190SOL    HW219686  12.707   5.300   0.172  1.0512  2.7021  2.0387
 4191SOL     OW19687   3.852   4.614   8.444  0.0294 -0.4814  0.1158
 4191SOL    HW119688   3.774   4.584   8.492 -1.6400  2.1140 -0.7338
 4191SOL    HW219689   3.816   4.658   8.367  2.2964  1.4711  0.0719
 4192SOL     OW19690   3.805   5.748   6.460  0.1656 -0.2550  0.4315
 4192SOL    HW119691   3.891   5.782   6.437  0.6780 -2.5180 -1.2548
 4192SOL    HW219692   3.744   5.815   6.428  1.2053  0.4366 -0.1719
 4193SOL     OW19693   7.640   7.910   7.303  0.0529 -0.0236  0.0606
 4193SOL    HW119694   7.657   7.942   7.214  1.3753  0.0204  0.3006
 4193SOL    HW219695   7.618   7.818   7.292 -3.4328  0.7440 -0.6119
 4194SOL     OW19696  10.845   7.647  12.741 -0.2817 -0.0545 -0.2471
 4194SOL    HW119697  10.783   7.658  12.814  1.4242  0.4177  1.1815
 4194SOL    HW219698  10.791   7.610  12.670 -2.2099  0.4130  0.8935
 4195SOL     OW19699   9.299   8.831  12.732 -0.0795  0.5047  0.2930
 4195SOL    HW119700   9.337   8.886  12.800 -0.8136  0.0097  1.1172
 4195SOL    HW219701   9.373   8.809  12.675  0.5328  0.9804  0.8887
 4196SOL     OW19702  11.609  11.170   0.224  0.0270 -0.8751  0.0987
 4196SOL    HW119703  11.642  11.118   0.151  2.7135 -0.6577  1.0424
 4196SOL    HW219704  11.685  11.184   0.281 -0.5879  3.4902  0.2647
 4197SOL     OW19705   2.717   0.203   9.876  0.3072 -0.4337 -0.0411
 4197SOL    HW119706   2.647   0.207   9.811 -0.2443 -1.4523  0.4543
 4197SOL    HW219707   2.744   0.294   9.889  1.4390 -0.3091 -2.7188
 4198SOL     OW19708  10.904   5.076   5.591 -0.0264  0.2279 -0.3042
 4198SOL    HW119709  10.924   5.138   5.662  0.4094 -0.7603  0.4639
 4198SOL    HW219710  10.832   5.024   5.625 -0.1758  0.1052 -0.8106
 4199SOL     OW19711   1.759   8.634   0.832 -0.1550 -0.4459  0.0609
 4199SOL    HW119712   1.723   8.602   0.914  2.4025 -3.5778  0.1576
 4199SOL    HW219713   1.800   8.718   0.854  0.1324 -1.0350  1.9220
 4200SOL     OW19714  11.704  11.382   3.208  0.1298 -0.3775 -0.3537
 4200SOL    HW119715  11.746  11.311   3.159  0.7598  0.1963 -0.6565
 4200SOL    HW219716  11.768  11.405   3.275 -0.4529 -0.7037  0.3219
 4201SOL     OW19717   9.322  12.291  11.298  0.6516 -0.0148  0.1076
 4201SOL    HW119718   9.415  12.272  11.282  0.5189 -1.2041  0.6272
 4201SOL    HW219719   9.311  12.280  11.392  0.0404  0.4320  0.0954
 4202SOL     OW19720   3.624  10.028   6.583  0.7391 -0.1396 -0.2433
 4202SOL    HW119721   3.551  10.061   6.635 -0.3813 -0.5817 -1.4750
 4202SOL    HW219722   3.657  10.106   6.537 -0.4140 -0.2917 -1.3785
 4203SOL     OW19723  10.421   0.093  10.894  0.1835 -0.1101  0.2014
 4203SOL    HW119724  10.467   0.111  10.976  1.2925  0.1636 -0.4546
 4203SOL    HW219725  10.421   0.177  10.848  1.1188 -0.6368 -0.8098
 4204SOL     OW19726   9.215  12.744   3.295  0.4230  0.0712  0.0365
 4204SOL    HW119727   9.234  12.692   3.373  1.5601 -0.2889 -0.4555
 4204SOL    HW219728   9.229  12.835   3.323 -0.4814  0.0468  0.5993
 4205SOL     OW19729   0.932   4.740   7.650 -0.0383  0.1984 -0.3043
 4205SOL    HW119730   0.884   4.664   7.684  1.0708 -1.5653 -2.3949
 4205SOL    HW219731   0.878   4.772   7.578 -0.0302  0.7712 -0.0543
 4206SOL     OW19732   4.311   8.339   8.083 -0.0769 -0.2573  0.1708
 4206SOL    HW119733   4.246   8.408   8.096 -0.2261 -0.0963 -1.3048
 4206SOL    HW219734   4.265   8.270   8.035  0.5604 -0.6061  0.0384
 4207SOL     OW19735   3.227   8.151   5.845  0.0274 -0.3327 -0.2140
 4207SOL    HW119736   3.172   8.210   5.793  0.2207 -0.1466 -0.2103
 4207SOL    HW219737   3.306   8.202   5.863 -0.3698 -0.0958  0.9631
 4208SOL     OW19738   9.193   1.618  11.966  0.4115  0.7554 -0.1431
 4208SOL    HW119739   9.149   1.687  11.916  0.8399  0.3883 -1.0410
 4208SOL    HW219740   9.163   1.631  12.056 -2.1480  0.0519 -0.8281
 4209SOL     OW19741   4.507   1.199   1.504  0.0456 -0.5734  0.0729
 4209SOL    HW119742   4.415   1.174   1.516  0.1202 -0.4091  1.0863
 4209SOL    HW219743   4.553   1.116   1.491 -0.4004 -0.5746 -1.6236
 4210SOL     OW19744   4.023   9.334   8.140  1.3852  0.3273 -0.6365
 4210SOL    HW119745   3.979   9.289   8.213  1.2441  0.6003 -0.5529
 4210SOL    HW219746   3.954   9.350   8.076  1.3722  0.7216 -0.5224
 4211SOL     OW19747   7.222  10.208   9.288 -0.7149  0.0715  0.0313
 4211SOL    HW119748   7.248  10.141   9.225  0.6082 -0.5359  1.1660
 4211SOL    HW219749   7.249  10.291   9.247 -1.3614 -0.1652 -0.8997
 4212SOL     OW19750   4.848   3.878   7.233  0.5068 -0.4926 -0.3686
 4212SOL    HW119751   4.936   3.870   7.195  0.2632  1.3415 -1.4083
 4212SOL    HW219752   4.849   3.819   7.308  2.1297 -1.6450 -1.2404
 4213SOL     OW19753   9.817  12.598   5.906 -0.0658 -0.1322  0.0711
 4213SOL    HW119754   9.888  12.655   5.935  1.7005 -1.5687 -1.1904
 4213SOL    HW219755   9.813  12.612   5.811 -0.0768 -1.5489 -0.1568
 4214SOL     OW19756   7.426  11.142   5.443 -0.2655  0.0491  0.4224
 4214SOL    HW119757   7.442  11.052   5.469 -0.6363 -0.7750 -1.9883
 4214SOL    HW219758   7.342  11.165   5.485 -0.7740 -1.1416  0.0751
 4215SOL     OW19759   1.486  11.078  12.144 -0.2664 -0.1523 -0.0585
 4215SOL    HW119760   1.442  11.046  12.222 -1.5061  1.1545 -0.1838
 4215SOL    HW219761   1.446  11.029  12.072 -0.3005 -0.1684 -0.0290
 4216SOL     OW19762  10.897  10.438   4.733  0.3537 -0.0731  0.3348
 4216SOL    HW119763  10.975  10.453   4.787  1.0825  1.1345 -0.9974
 4216SOL    HW219764  10.825  10.477   4.783  1.2326  2.3057 -0.1206
 4217SOL     OW19765   9.270   4.560   6.322 -0.3648 -0.1786  0.2959
 4217SOL    HW119766   9.219   4.479   6.327  0.0605 -0.4390  0.4915
 4217SOL    HW219767   9.212   4.627   6.356 -1.4396 -0.0490 -1.6691
 4218SOL     OW19768   2.129   7.943  10.091 -0.4124  0.2743 -0.4135
 4218SOL    HW119769   2.119   8.019  10.149 -0.1109 -0.4454  0.6064
 4218SOL    HW219770   2.212   7.903  10.118 -0.9661 -0.8789 -0.3977
 4219SOL     OW19771   9.830   6.580   0.625  0.3904 -0.2139  0.4771
 4219SOL    HW119772   9.822   6.485   0.620  1.8694 -0.2860 -1.5927
 4219SOL    HW219773   9.777   6.604   0.702  1.2317 -2.8329  2.0172
 4220SOL     OW19774   3.539   7.755   1.544 -0.0184 -0.3201  0.5155
 4220SOL    HW119775   3.473   7.730   1.479 -0.8739  0.6667  0.9810
 4220SOL    HW219776   3.546   7.678   1.600  1.3381 -1.5095 -1.1755
 4221SOL     OW19777   3.323   3.265   3.115  0.7991 -0.2075  0.2615
 4221SOL    HW119778   3.417   3.259   3.099  1.1216  2.1126  0.8041
 4221SOL    HW219779   3.316   3.274   3.210  0.2754  1.8942  0.0818
 4222SOL     OW19780  12.855  11.212   3.295 -0.0672 -0.3341  0.1651
 4222SOL    HW119781  12.775  11.227   3.346 -1.4845  0.3434 -2.0775
 4222SOL    HW219782  12.926  11.245   3.350 -1.2379 -1.3688  2.4219
 4223SOL     OW19783   2.719   1.418   4.348  0.4484  0.0596  0.0015
 4223SOL    HW119784   2.738   1.325   4.338 -0.4987 -0.9168  4.9254
 4223SOL    HW219785   2.633   1.430   4.307  0.3497 -1.3026 -0.2344
 4224SOL     OW19786   7.822   5.082   6.861  0.5711 -0.5207  0.6484
 4224SOL    HW119787   7.753   5.035   6.909 -0.1611 -0.2735 -0.1288
 4224SOL    HW219788   7.872   5.013   6.818  0.7656 -0.7008  1.1613
 4225SOL     OW19789   4.371   2.816   6.672 -0.3776 -0.0678  0.1746
 4225SOL    HW119790   4.445   2.776   6.718 -1.9929 -0.6845  2.3769
 4225SOL    HW219791   4.411   2.886   6.620  1.7410 -0.3380  1.2989
 4226SOL     OW19792  11.244  10.632   7.401  0.5202  0.4677  0.0127
 4226SOL    HW119793  11.190  10.600   7.474  1.4457 -2.7602 -0.5708
 4226SOL    HW219794  11.308  10.690   7.443  1.1882 -1.4890  1.8843
 4227SOL     OW19795  11.996   1.841   0.819 -0.3311 -0.0110 -0.1217
 4227SOL    HW119796  12.000   1.927   0.777  2.4716  0.3454  0.6614
 4227SOL    HW219797  11.944   1.855   0.898 -0.4830  0.7900 -0.3522
 4228SOL     OW19798   6.728   1.662   7.252  0.0719 -0.8109  0.1722
 4228SOL    HW119799   6.778   1.744   7.257 -0.4536 -0.4483 -0.3957
 4228SOL    HW219800   6.666   1.676   7.180  0.8838 -2.2098 -0.8662
 4229SOL     OW19801   1.184   9.551   2.577  0.0281  0.4549 -0.5038
 4229SOL    HW119802   1.225   9.468   2.552  2.7587  1.9512 -1.3237
 4229SOL    HW219803   1.209   9.612   2.508  2.5885  3.2238  2.5268
 4230SOL     OW19804   6.977   0.868   9.045  0.0437 -0.0812  0.2862
 4230SOL    HW119805   6.894   0.911   9.026  0.6996  0.9709 -0.3173
 4230SOL    HW219806   7.002   0.900   9.131 -0.4539 -0.8693  0.7354
 4231SOL     OW19807   4.735   4.905   8.937 -0.6995  0.7049 -0.2560
 4231SOL    HW119808   4.646   4.872   8.946  0.4890 -2.9684 -0.0822
 4231SOL    HW219809   4.786   4.854   9.001  1.6344  2.2515 -0.7436
 4232SOL     OW19810  12.518  12.394   0.777  0.4360 -0.5758 -0.0289
 4232SOL    HW119811  12.598  12.392   0.830  0.1831 -1.4589  0.3253
 4232SOL    HW219812  12.447  12.398   0.840  0.1971  1.8573 -0.3469
 4233SOL     OW19813  10.218   3.931   8.786  0.2484 -0.2021 -0.1656
 4233SOL    HW119814  10.234   3.838   8.776 -2.2900 -0.8705  1.0434
 4233SOL    HW219815  10.271   3.957   8.862 -0.6198 -1.1893  0.8121
 4234SOL     OW19816   2.967   2.294   1.405 -0.1361 -0.0770  0.2316
 4234SOL    HW119817   2.909   2.367   1.384  1.8603  1.1743 -1.2976
 4234SOL    HW219818   2.946   2.227   1.340  0.2656  0.4621 -0.4620
 4235SOL     OW19819   5.995   0.513   0.642  0.1026 -0.0769  0.0924
 4235SOL    HW119820   6.040   0.508   0.726 -0.3323  1.2439  0.4263
 4235SOL    HW219821   6.063   0.540   0.580 -0.1774  1.8773  0.5871
 4236SOL     OW19822   5.400   0.042   0.479 -0.6893 -0.2475 -0.0636
 4236SOL    HW119823   5.305   0.057   0.481 -0.4128  2.1677  2.7209
 4236SOL    HW219824   5.433   0.105   0.415 -0.8720 -0.1777 -0.0907
 4237SOL     OW19825   8.312   3.441   0.415  0.4687 -0.0930  0.1046
 4237SOL    HW119826   8.257   3.364   0.430  0.8569 -0.5644 -0.8339
 4237SOL    HW219827   8.282   3.476   0.331  1.1244  0.0531 -0.0727
 4238SOL     OW19828   0.765   1.713   8.558  0.2151  0.3900  0.0323
 4238SOL    HW119829   0.708   1.730   8.633 -0.0598  1.5663 -0.4213
 4238SOL    HW219830   0.837   1.661   8.593 -0.0745  0.6632  1.0452
 4239SOL     OW19831   4.542   1.463   0.706  0.2381  0.0864  0.2376
 4239SOL    HW119832   4.464   1.480   0.653 -0.1874  2.9130  1.5915
 4239SOL    HW219833   4.610   1.519   0.669  0.5484  0.4436  1.3020
 4240SOL     OW19834   0.305  12.873   4.264 -0.6779  0.1271 -0.7090
 4240SOL    HW119835   0.232  12.881   4.326  0.5378  0.5451  0.7568
 4240SOL    HW219836   0.314  12.961   4.227 -0.3477  0.3178 -0.1875
 4241SOL     OW19837   1.332   7.559   3.505  0.1991  0.8279  0.4819
 4241SOL    HW119838   1.374   7.521   3.428 -0.4397  0.7268  0.1814
 4241SOL    HW219839   1.239   7.548   3.490  0.0104  2.0607  0.6099
 4242SOL     OW19840  12.955  10.591  12.200 -0.1032 -0.3613  0.4558
 4242SOL    HW119841  12.967  10.654  12.129 -1.5896  0.7069  1.1083
 4242SOL    HW219842  12.974  10.506  12.160  1.4304  0.4309 -0.5791
 4243SOL     OW19843   6.712  11.576   6.869 -0.0707 -0.3527  0.1626
 4243SOL    HW119844   6.775  11.647   6.877 -2.0823  1.5388  0.2190
 4243SOL    HW219845   6.676  11.584   6.781  0.0728 -1.6784 -0.0359
 4244SOL     OW19846   1.898   2.351   2.591  0.2796 -0.1839  0.4804
 4244SOL    HW119847   1.835   2.282   2.572  0.2798  0.4035 -2.0424
 4244SOL    HW219848   1.981   2.317   2.558  0.5444  0.4695  0.4503
 4245SOL     OW19849   3.566   9.543   8.460 -0.8395 -0.4905 -0.0981
 4245SOL    HW119850   3.562   9.605   8.387 -0.0853  0.1876  0.4155
 4245SOL    HW219851   3.480   9.549   8.502  0.5402  3.7453  2.7453
 4246SOL     OW19852   6.345   6.446   6.666  0.1124 -0.4444 -0.1012
 4246SOL    HW119853   6.340   6.540   6.682  1.3365 -0.3720 -0.0545
 4246SOL    HW219854   6.432   6.421   6.697 -0.4041 -1.7029  0.4229
 4247SOL     OW19855   4.544   1.763  10.137  0.0233 -0.2552 -0.1451
 4247SOL    HW119856   4.544   1.706  10.060 -1.0094  0.7116 -0.8992
 4247SOL    HW219857   4.453   1.793  10.144  0.3357  0.4897  0.8353
 4248SOL     OW19858   0.077   9.289   2.362 -0.1382  0.6639 -0.0582
 4248SOL    HW119859   0.030   9.220   2.410  0.5663  0.1176 -0.1385
 4248SOL    HW219860   0.163   9.251   2.345 -0.0763  1.2004 -0.9639
 4249SOL     OW19861   1.280  10.546   1.831  0.6584 -0.2672  0.6095
 4249SOL    HW119862   1.360  10.507   1.796  0.2995 -1.3205  0.9010
 4249SOL    HW219863   1.310  10.599   1.905  1.2301  0.5588 -0.1998
 4250SOL     OW19864  11.014   2.931  10.459  0.4003  0.0841  0.0695
 4250SOL    HW119865  10.962   2.896  10.387  1.7087 -0.5162 -0.6043
 4250SOL    HW219866  11.021   3.025  10.440  1.2736 -0.1670 -0.9599
 4251SOL     OW19867  10.398   4.538   1.178 -0.1132 -0.2526  0.2475
 4251SOL    HW119868  10.449   4.514   1.255 -1.8158 -0.2536  1.4305
 4251SOL    HW219869  10.423   4.629   1.160  3.8138 -1.5412 -2.1868
 4252SOL     OW19870   1.841   8.027   0.669  0.0939 -0.0674 -0.2927
 4252SOL    HW119871   1.815   7.959   0.607  0.6559 -1.2544  0.7306
 4252SOL    HW219872   1.927   8.056   0.639  0.1386 -0.2773 -0.3690
 4253SOL     OW19873   1.358   1.171   3.674  0.2650 -0.4179 -0.3319
 4253SOL    HW119874   1.322   1.172   3.762  1.3215 -1.6852  0.1398
 4253SOL    HW219875   1.451   1.193   3.686  0.4248 -0.6421 -1.1261
 4254SOL     OW19876   6.902   3.784   8.964 -0.1712  0.0696  0.0267
 4254SOL    HW119877   6.992   3.816   8.957 -0.9403  2.7743  1.3773
 4254SOL    HW219878   6.906   3.716   9.031  0.8918 -0.0364 -0.1210
 4255SOL     OW19879  12.674   9.352  12.176  0.1701  0.3018 -0.5661
 4255SOL    HW119880  12.619   9.276  12.161  0.2557 -0.0432  0.7604
 4255SOL    HW219881  12.630   9.423  12.129 -1.9605  0.2519  1.1844
 4256SOL     OW19882   2.581   6.277   3.181 -0.0520 -0.3325 -0.4783
 4256SOL    HW119883   2.512   6.215   3.204  0.1199 -0.1883  0.4922
 4256SOL    HW219884   2.658   6.245   3.227  0.2214  0.1895 -0.5658
 4257SOL     OW19885  11.115   1.028  10.902 -0.0803  0.4131 -0.0715
 4257SOL    HW119886  11.209   1.044  10.910 -0.3438  2.4135 -0.4535
 4257SOL    HW219887  11.094   1.046  10.811 -1.1602  2.2406  0.4727
 4258SOL     OW19888   0.849   2.811   2.957  0.1734 -0.1401 -0.1376
 4258SOL    HW119889   0.790   2.738   2.978  0.5406 -0.1571  0.9141
 4258SOL    HW219890   0.935   2.780   2.986 -0.0419  1.6620  2.7668
 4259SOL     OW19891  10.703  10.839   4.376 -0.0192 -0.3303  0.7180
 4259SOL    HW119892  10.668  10.761   4.332  0.0481 -0.8435  1.5584
 4259SOL    HW219893  10.633  10.904   4.370 -0.9747 -1.1946  1.9706
 4260SOL     OW19894   1.526   4.846   2.459  0.5532 -0.7376 -0.0410
 4260SOL    HW119895   1.560   4.757   2.473  2.1154 -0.2280 -0.3928
 4260SOL    HW219896   1.554   4.868   2.370 -0.3452 -0.1070 -0.1751
 4261SOL     OW19897   6.555  10.045   0.149  0.2013  0.1866 -0.3901
 4261SOL    HW119898   6.608  10.055   0.228 -0.2709  2.7332 -0.2916
 4261SOL    HW219899   6.614  10.072   0.078  0.0950 -0.3913 -0.6988
 4262SOL     OW19900   6.945   0.847   9.737  0.8261  0.5120  0.0563
 4262SOL    HW119901   6.979   0.900   9.809  0.0734 -1.1373  1.7250
 4262SOL    HW219902   7.013   0.782   9.721  0.0731 -0.5218  0.8886
 4263SOL     OW19903   0.372   8.788   5.487  0.1548  0.8448  0.3025
 4263SOL    HW119904   0.345   8.878   5.469  0.7020  0.6802 -1.5445
 4263SOL    HW219905   0.372   8.745   5.401 -0.5672 -1.0698  1.1849
 4264SOL     OW19906  12.920  12.202   4.929 -0.3880  0.2327  0.4445
 4264SOL    HW119907  12.884  12.188   5.017 -3.6285  0.3936 -0.7318
 4264SOL    HW219908  12.844  12.206   4.872  1.6257 -1.5407 -2.6870
 4265SOL     OW19909   4.953   1.128   9.939  0.2410  0.1501 -0.0660
 4265SOL    HW119910   4.886   1.178   9.894  0.3421  0.2118 -0.1483
 4265SOL    HW219911   4.915   1.041   9.951  1.3323 -0.8578 -3.0562
 4266SOL     OW19912  12.749   1.920   8.261 -0.1351  0.1988 -0.4945
 4266SOL    HW119913  12.810   1.982   8.221  0.9214 -0.7753 -0.4375
 4266SOL    HW219914  12.794   1.836   8.257 -1.3411 -0.4866 -0.1329
 4267SOL     OW19915   2.367  11.599   7.278  0.0837  0.4527  0.9650
 4267SOL    HW119916   2.312  11.526   7.306  0.1661  0.8596  2.3045
 4267SOL    HW219917   2.410  11.569   7.198 -3.1393  0.6060 -1.0089
 4268SOL     OW19918   0.995   6.909   4.650 -0.3075 -0.6874 -0.9758
 4268SOL    HW119919   0.923   6.966   4.621 -1.6479 -1.9688 -0.3319
 4268SOL    HW219920   0.959   6.821   4.642  1.6456 -1.4611 -1.7743
 4269SOL     OW19921  12.451   7.626   5.618 -0.2022 -0.3954  0.0943
 4269SOL    HW119922  12.447   7.669   5.533 -1.1197 -0.9167 -0.1493
 4269SOL    HW219923  12.360   7.623   5.647  0.0005 -1.0038  0.6896
 4270SOL     OW19924  10.302   7.398   4.575 -0.4945 -0.7602 -0.5025
 4270SOL    HW119925  10.253   7.328   4.531 -0.3979 -0.5831 -0.8922
 4270SOL    HW219926  10.356   7.437   4.506  1.3307 -1.9239  0.1860
 4271SOL     OW19927   5.900   1.027   7.093  0.2429  0.0982  0.0595
 4271SOL    HW119928   5.911   0.977   7.013 -0.0001  0.2692 -0.0818
 4271SOL    HW219929   5.875   0.962   7.159  0.3611 -0.0296 -0.0226
 4272SOL     OW19930   8.368   9.620   6.784 -0.4777 -0.2595 -0.2104
 4272SOL    HW119931   8.344   9.707   6.755 -1.8192 -0.9795 -1.3611
 4272SOL    HW219932   8.452   9.632   6.828 -0.5946  1.5801 -0.4138
 4273SOL     OW19933   6.066   0.547   8.390 -0.3903  0.3999 -0.5946
 4273SOL    HW119934   6.101   0.615   8.447  1.1970 -1.5813  0.9605
 4273SOL    HW219935   6.143   0.509   8.348 -1.0994 -1.1004 -0.6081
 4274SOL     OW19936   1.444  10.036  12.860  0.0701  0.1184  0.3621
 4274SOL    HW119937   1.510  10.061  12.796 -0.6887 -1.0723 -0.9282
 4274SOL    HW219938   1.476   9.954  12.898 -0.2183  0.0245  0.4056
 4275SOL     OW19939   7.445   1.224   8.229  0.0142 -0.2583 -0.1840
 4275SOL    HW119940   7.479   1.197   8.315 -1.3029  1.9632  1.1277
 4275SOL    HW219941   7.350   1.215   8.238 -0.1595  0.4108 -1.2637
 4276SOL     OW19942   2.148   2.742   4.380 -0.2663 -0.4347  0.2642
 4276SOL    HW119943   2.178   2.715   4.292  0.0533  1.4063 -0.2295
 4276SOL    HW219944   2.068   2.792   4.364  0.4769  1.0115  0.8702
 4277SOL     OW19945   6.927   7.178   3.639  0.3289  0.0195 -0.1605
 4277SOL    HW119946   6.986   7.113   3.679 -0.0325 -1.3614 -1.7455
 4277SOL    HW219947   6.984   7.230   3.582  0.4061  0.2712  0.1442
 4278SOL     OW19948   5.696  11.053   6.088 -0.0044  0.3843 -0.2069
 4278SOL    HW119949   5.642  10.994   6.034  0.5484 -0.4140  0.0918
 4278SOL    HW219950   5.721  11.123   6.028 -2.8058  1.7544  0.0763
 4279SOL     OW19951  12.867  11.094   8.273 -0.3951  0.0040  0.1962
 4279SOL    HW119952  12.929  11.061   8.337 -0.1775  0.0432  0.0083
 4279SOL    HW219953  12.918  11.155   8.219 -0.5499 -0.1067 -0.0777
 4280SOL     OW19954   7.747  12.863   3.702 -0.3308 -0.7372  0.9251
 4280SOL    HW119955   7.743  12.887   3.794 -2.6818 -1.0663  0.9711
 4280SOL    HW219956   7.751  12.767   3.703 -0.7368 -0.7602  0.7016
 4281SOL     OW19957  10.143   7.736   6.147  0.1944 -0.1638  0.7267
 4281SOL    HW119958  10.143   7.780   6.062 -2.9526 -0.4103  0.4848
 4281SOL    HW219959  10.141   7.643   6.126 -0.6062 -0.2260  1.0353
 4282SOL     OW19960   6.586   6.353  11.716 -0.5760  0.4050  0.0725
 4282SOL    HW119961   6.541   6.433  11.688 -0.1976 -0.1005 -2.1831
 4282SOL    HW219962   6.533   6.282  11.681  0.5480 -0.2601 -0.3352
 4283SOL     OW19963   3.358   5.752   1.091 -0.2571 -0.2817 -0.2825
 4283SOL    HW119964   3.279   5.699   1.102 -0.7365  0.7862  1.9392
 4283SOL    HW219965   3.344   5.829   1.146  1.5105  0.9139 -1.3967
 4284SOL     OW19966  12.034  10.290  12.920 -0.3768 -0.1384  0.5496
 4284SOL    HW119967  12.053  10.253  12.834 -1.3273 -1.0415  0.7103
 4284SOL    HW219968  12.042  10.216  12.980 -1.2353  0.1355  1.0216
 4285SOL     OW19969   2.742   4.428   3.098  0.4707 -0.1001 -0.1886
 4285SOL    HW119970   2.670   4.428   3.034 -1.7826 -0.1890  2.1748
 4285SOL    HW219971   2.800   4.498   3.069 -1.1305  0.7099 -1.6082
 4286SOL     OW19972  12.173   2.936   2.006 -0.0230 -0.4009  0.0951
 4286SOL    HW119973  12.207   2.931   1.916 -0.7982 -0.0582 -0.2326
 4286SOL    HW219974  12.104   2.870   2.009 -0.3345 -0.0688  0.2833
 4287SOL     OW19975  12.835   8.080   3.391  0.0269  0.8420 -0.2738
 4287SOL    HW119976  12.767   8.035   3.340 -1.4930  1.2050  1.3631
 4287SOL    HW219977  12.911   8.023   3.383 -0.7855 -0.1661 -1.2370
 4288SOL     OW19978  12.871  11.359   3.004  0.2406 -0.4282  0.2798
 4288SOL    HW119979  12.810  11.407   2.948 -0.1193  0.4356  1.3993
 4288SOL    HW219980  12.816  11.294   3.049  0.3718 -0.5014  0.3347
 4289SOL     OW19981   8.698   6.623   1.870  0.1468  0.2050  0.1009
 4289SOL    HW119982   8.720   6.530   1.862 -0.9919 -0.3206  2.1599
 4289SOL    HW219983   8.640   6.641   1.796  0.3264 -0.7463 -0.2817
 4290SOL     OW19984   8.162  12.160   1.530 -0.2954 -0.0729 -0.4068
 4290SOL    HW119985   8.199  12.076   1.502  0.9109  0.0466  0.7168
 4290SOL    HW219986   8.092  12.178   1.468  0.2803 -1.2861 -1.4415
 4291SOL     OW19987   9.506   8.947  12.919  0.0400  0.0065  0.0681
 4291SOL    HW119988   9.507   9.043  12.917  0.1065  0.0523  1.3894
 4291SOL    HW219989   9.491   8.925  13.011 -0.5011 -1.2575 -0.2980
 4292SOL     OW19990  11.196   9.214   5.616 -0.2383  0.1352 -0.3235
 4292SOL    HW119991  11.281   9.179   5.589  0.4320  2.1098 -0.9425
 4292SOL    HW219992  11.152   9.239   5.534  0.6936  3.6599  0.0877
 4293SOL     OW19993   9.180   6.522  12.803  0.3736  0.2871 -0.4705
 4293SOL    HW119994   9.256   6.483  12.760  2.2128  2.0428  0.9633
 4293SOL    HW219995   9.180   6.613  12.772 -0.0609  0.7808  0.9146
 4294SOL     OW19996   0.450   3.366   2.679 -0.5272  0.7245 -0.7478
 4294SOL    HW119997   0.435   3.354   2.772  2.2872  0.1265 -0.2836
 4294SOL    HW219998   0.532   3.414   2.674 -0.9254  1.3062 -2.9424
 4295SOL     OW19999   4.260   5.170   2.164  0.5060  0.4202  0.6405
 4295SOL    HW120000   4.331   5.140   2.220 -0.3470 -0.7263  1.1518
 4295SOL    HW220001   4.183   5.173   2.221 -0.6239 -1.7926 -0.6172
 4296SOL     OW20002   6.182   3.042   7.574 -0.1678 -0.4003 -0.6782
 4296SOL    HW120003   6.211   3.111   7.516 -0.1238 -0.7679 -1.0950
 4296SOL    HW220004   6.250   3.036   7.641  0.1260 -0.4582 -0.9860
 4297SOL     OW20005   8.591  12.596  11.746 -0.3010  0.4358  0.0825
 4297SOL    HW120006   8.677  12.557  11.733 -0.3083  0.3467  0.3051
 4297SOL    HW220007   8.539  12.527  11.788 -0.6844  0.2494 -0.6814
 4298SOL     OW20008   3.498   5.931   0.641 -0.1458  0.4767 -0.2209
 4298SOL    HW120009   3.492   5.980   0.723  1.9153  0.4991 -0.0479
 4298SOL    HW220010   3.520   5.996   0.575  2.3518 -0.0983 -0.0326
 4299SOL     OW20011   1.485   5.141   0.978  0.4222  0.0496 -0.0807
 4299SOL    HW120012   1.497   5.078   1.049 -0.5880  0.2922  0.3229
 4299SOL    HW220013   1.469   5.087   0.900 -1.9183 -0.2452  0.5283
 4300SOL     OW20014   7.848   3.152   2.187 -0.1512 -0.2847  0.6298
 4300SOL    HW120015   7.893   3.181   2.108 -1.2397  0.5745  0.2914
 4300SOL    HW220016   7.787   3.224   2.207 -1.3436 -1.3833  1.0723
 4301SOL     OW20017  12.017   5.185   9.337  0.1420 -0.2394 -0.8478
 4301SOL    HW120018  11.988   5.148   9.421 -0.3739 -0.3674 -1.0815
 4301SOL    HW220019  12.000   5.279   9.345  1.6461  0.0138 -0.1736
 4302SOL     OW20020   6.455   5.597   6.788 -0.6337 -0.1991  0.5338
 4302SOL    HW120021   6.438   5.507   6.760 -1.1789  0.3271 -0.9540
 4302SOL    HW220022   6.369   5.630   6.815 -0.7511  0.3199 -0.3948
 4303SOL     OW20023   5.195   1.825  10.368  0.0862 -0.2702 -0.1938
 4303SOL    HW120024   5.195   1.820  10.272 -2.6671  0.6593 -0.3252
 4303SOL    HW220025   5.109   1.790  10.394  0.8294 -0.6431  1.9664
 4304SOL     OW20026  12.097   1.915  11.008  0.1787 -0.8556 -0.5019
 4304SOL    HW120027  12.148   1.996  11.003  1.7058 -1.5487  2.1042
 4304SOL    HW220028  12.135   1.859  10.940 -0.2339  0.2137 -1.6616
 4305SOL     OW20029   2.377  11.883   0.353  0.2935 -0.2734 -0.3481
 4305SOL    HW120030   2.364  11.956   0.414 -1.4467 -0.4638 -0.4554
 4305SOL    HW220031   2.377  11.924   0.267 -0.1194 -0.3310 -0.3765
 4306SOL     OW20032   3.514   4.993   0.058  0.2327 -0.0578  0.3002
 4306SOL    HW120033   3.448   5.000   0.127 -1.3691  0.7066 -1.2352
 4306SOL    HW220034   3.575   5.064   0.077 -0.0912  0.0391  1.0242
 4307SOL     OW20035  12.466   8.923   6.252 -0.0423  0.1314 -0.1823
 4307SOL    HW120036  12.493   8.842   6.295  0.3565  0.0434 -0.6014
 4307SOL    HW220037  12.538   8.946   6.194 -0.1884  0.7442 -0.1298
 4308SOL     OW20038  12.524   8.289   7.927 -1.0261  1.1007  0.4873
 4308SOL    HW120039  12.480   8.359   7.974 -0.5184  3.1903 -1.9393
 4308SOL    HW220040  12.525   8.318   7.836 -0.4672 -1.9283 -0.5933
 4309SOL     OW20041   1.496  12.223   7.223 -0.3259 -0.3473  0.0558
 4309SOL    HW120042   1.496  12.133   7.191 -3.1431 -0.7148  0.8434
 4309SOL    HW220043   1.410  12.258   7.199 -0.5212  1.0676  2.4455
 4310SOL     OW20044   7.523   7.001   3.045 -0.5558  0.0750  0.5608
 4310SOL    HW120045   7.493   7.063   3.112  1.6845  1.1204  0.7038
 4310SOL    HW220046   7.533   6.918   3.092 -0.2129  0.4947  1.2493
 4311SOL     OW20047  11.120   8.420  12.676 -0.3144  0.1137  0.1413
 4311SOL    HW120048  11.113   8.417  12.581 -2.1194  1.3189  0.1981
 4311SOL    HW220049  11.067   8.346  12.707  0.3963 -0.3731  0.2446
 4312SOL     OW20050   0.530   0.412   6.415 -0.4932  0.4429  0.1536
 4312SOL    HW120051   0.515   0.487   6.472 -0.7843  0.1947  0.4083
 4312SOL    HW220052   0.612   0.374   6.446 -0.9179  0.0033  0.7445
 4313SOL     OW20053   1.916   7.364   3.931  0.5480 -0.2634 -0.1452
 4313SOL    HW120054   1.859   7.439   3.950  0.2870 -0.4946 -0.0098
 4313SOL    HW220055   1.877   7.291   3.979  0.0670 -0.7844 -1.2920
 4314SOL     OW20056  12.710  12.859   1.558  0.3259 -0.0983 -0.2820
 4314SOL    HW120057  12.728  12.940   1.510 -0.6683 -0.7232 -1.7481
 4314SOL    HW220058  12.625  12.874   1.600  0.1806 -0.3507 -0.4851
 4315SOL     OW20059  11.331  10.128   0.826 -0.0133 -0.1199 -0.3825
 4315SOL    HW120060  11.348  10.222   0.824 -0.3944 -0.0612 -1.2580
 4315SOL    HW220061  11.415  10.088   0.850  0.3430  0.3993 -0.7567
 4316SOL     OW20062   8.062  12.004   6.752 -0.6681 -0.7506 -0.0077
 4316SOL    HW120063   8.084  11.944   6.824 -0.9660 -0.4221  0.3652
 4316SOL    HW220064   8.023  11.948   6.685 -0.9961 -0.9710  0.3612
 4317SOL     OW20065   3.154  10.338   9.154 -0.7598  0.6310  0.4402
 4317SOL    HW120066   3.137  10.325   9.247  1.0004  0.9152  0.8464
 4317SOL    HW220067   3.068  10.332   9.112 -1.5335  0.1189  2.0287
 4318SOL     OW20068  11.789   7.917   5.557  0.1395 -0.3047 -0.1772
 4318SOL    HW120069  11.883   7.929   5.573  0.3538  0.8064 -1.9921
 4318SOL    HW220070  11.761   7.856   5.625  1.8866  0.3960  1.2718
 4319SOL     OW20071   8.086   7.197   6.204  0.0529 -0.1633 -0.3215
 4319SOL    HW120072   8.164   7.251   6.217  0.9598 -1.0276 -1.8512
 4319SOL    HW220073   8.068   7.204   6.110 -1.5482 -0.2284 -0.0475
 4320SOL     OW20074  12.104   1.549   4.161  0.3721 -0.2072  0.1192
 4320SOL    HW120075  12.066   1.485   4.101  0.5146  0.1379 -0.3491
 4320SOL    HW220076  12.184   1.578   4.117  1.5618 -1.4281  1.4078
 4321SOL     OW20077   4.498   8.496   4.092  0.3818 -0.0717 -0.3983
 4321SOL    HW120078   4.403   8.510   4.085  0.5678  0.7888 -1.4530
 4321SOL    HW220079   4.522   8.534   4.176 -0.3542 -1.2935  0.4157
 4322SOL     OW20080   2.001  11.681   3.071  0.3476 -0.4018 -0.4299
 4322SOL    HW120081   1.974  11.695   3.162 -0.9483  0.2644 -0.8988
 4322SOL    HW220082   2.025  11.768   3.039 -1.3274 -0.2376 -1.3616
 4323SOL     OW20083   7.578   7.235  12.604  0.2697  0.0679  0.2967
 4323SOL    HW120084   7.545   7.170  12.541 -0.2954  1.0053 -0.4024
 4323SOL    HW220085   7.673   7.235  12.590  0.3085 -0.8012  0.4998
 4324SOL     OW20086   9.647   4.589   5.638 -0.1998 -1.0221  0.2535
 4324SOL    HW120087   9.710   4.518   5.652 -0.9501 -1.7034  0.2083
 4324SOL    HW220088   9.692   4.667   5.671  1.2895 -1.2137 -1.2236
 4325SOL     OW20089   6.603   0.118  12.777  0.6770  0.3836  0.5160
 4325SOL    HW120090   6.620   0.042  12.721  0.9915  0.3619  0.6441
 4325SOL    HW220091   6.672   0.116  12.843  0.9020  0.9867  0.3058
 4326SOL     OW20092   4.909   9.506   3.104 -0.3332 -0.0397 -0.0165
 4326SOL    HW120093   4.911   9.579   3.043 -2.4937 -0.2751 -0.4188
 4326SOL    HW220094   4.924   9.429   3.049  1.2736 -0.0031  0.3130
 4327SOL     OW20095   0.102   7.746   9.785  0.7830 -0.0673 -0.1262
 4327SOL    HW120096   0.150   7.748   9.703  2.0456  1.7244  0.5876
 4327SOL    HW220097   0.169   7.760   9.852 -0.1721 -1.6941  1.2710
 4328SOL     OW20098  11.793   0.730   0.754  0.3255 -0.2036 -0.0614
 4328SOL    HW120099  11.731   0.687   0.813 -0.0787  1.4611  0.8125
 4328SOL    HW220100  11.741   0.750   0.676  0.2481 -0.4135 -0.0644
 4329SOL     OW20101   1.101   6.412   6.642  0.2621 -0.5492  0.1359
 4329SOL    HW120102   1.147   6.489   6.676 -2.3336  2.9117 -3.2940
 4329SOL    HW220103   1.123   6.410   6.549 -1.2011 -2.8928 -0.2433
 4330SOL     OW20104  12.959   9.352  11.814  0.0048  0.0797  0.2611
 4330SOL    HW120105  12.986   9.316  11.898  1.3305 -0.0805 -0.2014
 4330SOL    HW220106  13.039   9.349  11.760 -1.2905 -1.7545 -1.6840
 4331SOL     OW20107   1.081   9.747   4.754 -0.3132  0.2106  0.3462
 4331SOL    HW120108   1.006   9.803   4.775  1.4651  1.8855  2.7126
 4331SOL    HW220109   1.043   9.660   4.743 -2.6461  1.0747  1.0089
 4332SOL     OW20110   4.070   9.158   1.961  0.0627  0.4404  0.0137
 4332SOL    HW120111   4.158   9.138   1.930 -0.1635 -0.8398  0.1476
 4332SOL    HW220112   4.065   9.254   1.957  1.3500  0.5214 -0.2661
 4333SOL     OW20113  11.740   2.989  12.273  0.3423 -0.3061  0.1591
 4333SOL    HW120114  11.710   2.973  12.184 -0.5210  1.2400  0.1371
 4333SOL    HW220115  11.757   2.902  12.309  2.6506 -0.9251 -2.1406
 4334SOL     OW20116  10.660   9.037   4.680 -0.4714  0.0345 -0.3569
 4334SOL    HW120117  10.708   9.116   4.703  0.2373 -0.3924 -0.3491
 4334SOL    HW220118  10.591   9.067   4.621  0.4900  0.5027 -1.2582
 4335SOL     OW20119  10.394   0.808   5.234  0.1313 -0.2697 -0.0104
 4335SOL    HW120120  10.448   0.851   5.168 -0.7906 -0.6560 -1.0290
 4335SOL    HW220121  10.367   0.879   5.293  1.0779  0.0491  0.0579
 4336SOL     OW20122   5.669  11.928   6.949 -0.6403  0.3372  0.1614
 4336SOL    HW120123   5.691  11.909   7.041  2.4832  0.3888 -0.4760
 4336SOL    HW220124   5.689  11.847   6.902  0.3355  1.1232 -0.8185
 4337SOL     OW20125   0.008   2.081  11.540  0.1339  0.4793  0.5708
 4337SOL    HW120126  -0.017   2.135  11.614 -0.2749 -0.7392  1.3566
 4337SOL    HW220127  -0.074   2.067  11.492  0.5182  1.8735 -0.5704
 4338SOL     OW20128   7.450   9.464   0.178  0.2477 -0.4104  0.2851
 4338SOL    HW120129   7.452   9.445   0.084 -1.1756 -1.8380  0.5009
 4338SOL    HW220130   7.537   9.437   0.210  0.5086 -0.5374 -0.5127
 4339SOL     OW20131   4.105   5.314  12.701 -0.0081 -0.1550 -0.1184
 4339SOL    HW120132   4.045   5.326  12.775 -0.6442 -1.4816 -0.3895
 4339SOL    HW220133   4.179   5.266  12.739  1.1023  1.8005  0.2988
 4340SOL     OW20134   2.662  10.613  10.240 -0.1209 -0.0293  0.2339
 4340SOL    HW120135   2.578  10.569  10.258 -0.1659  0.7534  2.1609
 4340SOL    HW220136   2.728  10.551  10.272  0.1557 -1.0561 -2.1224
 4341SOL     OW20137   2.651   2.162  12.491  0.1104 -0.1818 -0.1287
 4341SOL    HW120138   2.580   2.207  12.445  0.4524 -1.0523 -1.5718
 4341SOL    HW220139   2.629   2.170  12.584 -1.0027  0.9792 -0.4702
 4342SOL     OW20140   0.375  11.324   1.502 -0.0433  0.8256 -0.0767
 4342SOL    HW120141   0.279  11.320   1.494 -0.1609  0.4956  1.2060
 4342SOL    HW220142   0.390  11.375   1.581  0.7827 -0.7231  0.8198
 4343SOL     OW20143  10.658   9.137   3.166  0.5727 -0.6366  0.0340
 4343SOL    HW120144  10.741   9.134   3.215  0.9955  0.2111 -0.6130
 4343SOL    HW220145  10.666   9.066   3.102  1.0766 -0.1471 -0.4534
 4344SOL     OW20146   9.636   8.507   8.109 -0.3449 -0.3929 -0.0857
 4344SOL    HW120147   9.710   8.566   8.095 -0.2364 -0.6706 -0.7062
 4344SOL    HW220148   9.641   8.444   8.038 -1.4182 -0.1782 -0.3799
 4345SOL     OW20149   5.685   6.930   5.657 -0.1603 -0.3854 -0.0452
 4345SOL    HW120150   5.766   6.880   5.645  1.5237  2.1045  0.0613
 4345SOL    HW220151   5.634   6.880   5.721  0.9009 -2.4370 -0.7139
 4346SOL     OW20152   0.611   1.050  10.579  0.4222  0.1648 -0.2729
 4346SOL    HW120153   0.640   1.076  10.666 -1.1155  1.2234 -0.0312
 4346SOL    HW220154   0.650   0.963  10.565  1.0462  0.1684  1.2714
 4347SOL     OW20155   5.420   4.819   9.742 -0.4776  0.0383 -0.0912
 4347SOL    HW120156   5.450   4.843   9.830  1.0014  2.0106 -1.0431
 4347SOL    HW220157   5.498   4.782   9.700 -0.7256  0.6089 -1.0692
 4348SOL     OW20158   3.836   9.641  11.657 -0.7738 -0.1228  0.0107
 4348SOL    HW120159   3.898   9.589  11.607 -0.3015 -0.4555  0.9138
 4348SOL    HW220160   3.827   9.594  11.740 -1.4722  0.4554  0.2733
 4349SOL     OW20161   9.181  11.712   1.622  0.4995 -0.4887  0.0512
 4349SOL    HW120162   9.207  11.622   1.642  0.0108 -0.8900 -1.0469
 4349SOL    HW220163   9.260  11.764   1.639  1.1679 -1.2964 -0.5144
 4350SOL     OW20164   1.904  11.244   6.781 -0.1159  0.2516  0.4606
 4350SOL    HW120165   1.935  11.174   6.838 -0.2531 -0.3703 -0.1959
 4350SOL    HW220166   1.819  11.212   6.749 -0.3950  0.9302  0.5156
 4351SOL     OW20167   5.575   5.929   2.222  0.8201 -0.0451 -0.0262
 4351SOL    HW120168   5.661   5.917   2.183  0.5278  1.8209 -1.3286
 4351SOL    HW220169   5.525   5.852   2.194  1.2155  0.2808 -1.7155
 4352SOL     OW20170   4.742   7.401  12.505 -0.1183 -0.6323  0.0351
 4352SOL    HW120171   4.654   7.384  12.539 -0.4286  0.9595  0.0912
 4352SOL    HW220172   4.727   7.438  12.418  0.5492 -1.4221 -0.4272
 4353SOL     OW20173   1.061   6.495  12.153 -0.3444 -0.5856  0.4050
 4353SOL    HW120174   1.150   6.465  12.131 -0.5913  0.7458 -3.0340
 4353SOL    HW220175   1.062   6.504  12.248  2.3918 -2.9965  0.7617
 4354SOL     OW20176   6.420   7.974   9.558  0.9370  0.0472 -0.1643
 4354SOL    HW120177   6.512   7.948   9.564  1.4078  1.2740 -1.5881
 4354SOL    HW220178   6.417   8.039   9.488 -0.7404  1.2643  0.9266
 4355SOL     OW20179   3.387   1.758   4.027  0.2419  0.2865  0.1830
 4355SOL    HW120180   3.365   1.786   3.938 -0.6999 -1.7270 -0.2631
 4355SOL    HW220181   3.376   1.663   4.026  1.9081  0.0101  1.9940
 4356SOL     OW20182   1.204   7.901   4.948 -0.8343 -0.3178  0.2765
 4356SOL    HW120183   1.153   7.820   4.951 -1.3845  0.0205  0.3792
 4356SOL    HW220184   1.292   7.874   4.924 -1.1887 -0.8648 -0.4295
 4357SOL     OW20185   8.447   0.154   4.003 -0.3834 -0.2335 -0.0836
 4357SOL    HW120186   8.385   0.143   3.931 -1.6686 -0.9002  1.0725
 4357SOL    HW220187   8.429   0.081   4.062  1.6886 -0.5770  0.1945
 4358SOL     OW20188   4.492   0.251  10.506  0.6473 -0.3673  0.4672
 4358SOL    HW120189   4.422   0.281  10.565  1.4673  1.0210  0.7830
 4358SOL    HW220190   4.466   0.283  10.420  0.3459 -0.8272  0.3843
 4359SOL     OW20191   7.598   4.220  11.988 -0.5374 -0.8240 -0.2781
 4359SOL    HW120192   7.571   4.194  12.076  1.1865  1.9251  1.2368
 4359SOL    HW220193   7.534   4.286  11.962 -0.0394 -0.3236 -0.2653
 4360SOL     OW20194  12.473   5.798   1.252  0.5583  0.2358 -0.0814
 4360SOL    HW120195  12.543   5.799   1.186  0.7415  0.9369  0.1082
 4360SOL    HW220196  12.420   5.875   1.232  0.5597  0.4034  0.5276
 4361SOL     OW20197  10.057   8.190  10.106 -0.1903 -0.0930 -0.2451
 4361SOL    HW120198  10.108   8.125  10.154  0.6519  2.2351  2.2330
 4361SOL    HW220199   9.966   8.159  10.113  0.1294 -0.7269  1.3768
 4362SOL     OW20200   6.922  11.264   0.198 -0.0289  0.0635  0.4952
 4362SOL    HW120201   6.988  11.198   0.219 -0.2782 -0.7486 -1.1213
 4362SOL    HW220202   6.971  11.346   0.193  1.0052 -0.6035 -1.2462
 4363SOL     OW20203   1.272  10.734   2.172  0.0440 -0.0385 -0.1296
 4363SOL    HW120204   1.325  10.760   2.097 -0.2361 -0.2285 -0.3933
 4363SOL    HW220205   1.336  10.726   2.244  0.6101 -1.5331 -0.7374
 4364SOL     OW20206  10.845   3.769   9.723  0.4342 -0.0335 -0.5091
 4364SOL    HW120207  10.848   3.729   9.636  1.8412  0.7213 -0.8394
 4364SOL    HW220208  10.918   3.729   9.770 -0.0761 -0.1418  0.2106
 4365SOL     OW20209   6.827  10.739   3.718 -0.0676 -0.2383  0.5989
 4365SOL    HW120210   6.816  10.820   3.669  1.6509 -0.0647  0.4557
 4365SOL    HW220211   6.738  10.715   3.744 -0.6234  1.6042  0.5351
 4366SOL     OW20212   1.509   9.245   2.084  0.2427  0.3019 -0.2845
 4366SOL    HW120213   1.434   9.194   2.052 -1.1350  0.3460  2.5487
 4366SOL    HW220214   1.503   9.328   2.038 -0.4261 -0.3031 -1.3339
 4367SOL     OW20215   3.744   6.265   6.098  0.3884  0.1332  0.5865
 4367SOL    HW120216   3.810   6.300   6.039 -1.2239  3.8555  0.7092
 4367SOL    HW220217   3.744   6.170   6.081  2.7097  0.5359 -2.4515
 4368SOL     OW20218   0.731   1.730   8.179 -0.5873  0.3611 -0.7095
 4368SOL    HW120219   0.681   1.713   8.099  1.9493  1.4617 -2.6990
 4368SOL    HW220220   0.785   1.652   8.190 -1.7732 -0.2993  0.7002
 4369SOL     OW20221  11.396   4.770   1.911 -0.3984 -0.0638 -0.0256
 4369SOL    HW120222  11.397   4.681   1.876  1.5002  0.1756 -0.7171
 4369SOL    HW220223  11.313   4.806   1.882 -1.6342 -1.8883  1.0717
 4370SOL     OW20224   7.978   2.879  10.151  0.1773  0.0528  0.2451
 4370SOL    HW120225   7.902   2.832  10.117 -1.8253  1.7494  2.1361
 4370SOL    HW220226   8.019   2.817  10.212 -1.2319 -0.0286  1.1659
 4371SOL     OW20227   6.347  12.628   1.427  0.0056  0.3681  0.5141
 4371SOL    HW120228   6.370  12.626   1.335 -0.9782 -2.7951  0.2247
 4371SOL    HW220229   6.431  12.621   1.473  0.3025 -2.9896 -0.3296
 4372SOL     OW20230   0.734   2.259   6.277  0.1609 -0.1611  0.4836
 4372SOL    HW120231   0.792   2.194   6.236  1.8342  1.8717 -0.5485
 4372SOL    HW220232   0.710   2.317   6.205 -0.7014  0.7824  1.5156
 4373SOL     OW20233  12.264   5.623  11.390 -0.9800 -0.6250  0.1878
 4373SOL    HW120234  12.277   5.613  11.295  1.8646 -0.3277  0.4759
 4373SOL    HW220235  12.223   5.540  11.417 -0.6244 -1.2499 -1.0989
 4374SOL     OW20236  10.930   8.017   0.824 -0.2049  0.1867 -0.1711
 4374SOL    HW120237  10.863   7.968   0.777 -0.1924  1.2086 -1.2804
 4374SOL    HW220238  11.010   7.966   0.814 -0.0999  0.6106 -1.6709
 4375SOL     OW20239   1.765   1.667   0.299  0.3475  0.3188 -0.5891
 4375SOL    HW120240   1.725   1.640   0.217 -0.0268 -0.0749 -0.2796
 4375SOL    HW220241   1.697   1.654   0.365  0.2984  1.5798 -0.3555
 4376SOL     OW20242  12.001   7.357  11.652  0.0896  0.7916  0.0173
 4376SOL    HW120243  11.938   7.318  11.593  0.2183  2.6024 -1.4028
 4376SOL    HW220244  12.080   7.304  11.642  0.1451  1.1242 -1.5530
 4377SOL     OW20245  12.346   8.849   9.884  0.2281  0.7860 -0.2630
 4377SOL    HW120246  12.312   8.930   9.846  1.5845  0.4403 -2.3747
 4377SOL    HW220247  12.440   8.866   9.895  0.2162  0.1241  1.0405
 4378SOL     OW20248  12.756   1.174   2.993  0.0316  0.0434 -0.3391
 4378SOL    HW120249  12.798   1.195   3.077  0.0035 -1.3491  0.0584
 4378SOL    HW220250  12.675   1.224   2.994 -0.8613 -1.2925  1.3297
 4379SOL     OW20251   6.066   1.117   8.879 -0.3363 -0.4748  0.1662
 4379SOL    HW120252   5.989   1.078   8.837 -1.1032  1.3562 -0.2368
 4379SOL    HW220253   6.077   1.201   8.835  1.0707 -0.0965  1.1841
 4380SOL     OW20254   2.716  10.878   9.929  0.2933  0.2355 -0.2458
 4380SOL    HW120255   2.668  10.898   9.849  0.2999  0.9321 -0.0801
 4380SOL    HW220256   2.687  10.944   9.992 -0.6919 -1.0723  0.7351
 4381SOL     OW20257   1.179   5.665   2.604  0.1026  0.1734 -0.2698
 4381SOL    HW120258   1.271   5.682   2.585 -0.2781  0.7386 -1.8011
 4381SOL    HW220259   1.142   5.751   2.623 -0.0616 -0.0871  0.6155
 4382SOL     OW20260   9.461   5.709   1.740  0.3682 -0.0440 -0.2368
 4382SOL    HW120261   9.374   5.719   1.703 -0.1435 -0.2951  0.8450
 4382SOL    HW220262   9.520   5.704   1.664 -0.6412 -0.6494 -1.0055
 4383SOL     OW20263   0.483   2.831   7.151 -0.1122  0.1595  0.5782
 4383SOL    HW120264   0.418   2.813   7.220 -0.7152  0.4154  0.0880
 4383SOL    HW220265   0.530   2.749   7.140 -0.4008 -0.0537  0.8983
 4384SOL     OW20266  10.151  10.421  12.120  0.1263  0.1212 -0.7368
 4384SOL    HW120267  10.140  10.341  12.171 -0.8243  0.2102 -0.7943
 4384SOL    HW220268  10.104  10.405  12.039  0.1844  0.6290 -0.8758
 4385SOL     OW20269  11.068   3.328   4.498 -0.0098  0.3262 -0.3070
 4385SOL    HW120270  11.012   3.342   4.574  1.0992  0.0012  0.6058
 4385SOL    HW220271  11.108   3.414   4.481  1.2942 -0.0315  0.7820
 4386SOL     OW20272   7.244   8.729   0.229  0.4004  0.3024  0.2546
 4386SOL    HW120273   7.243   8.697   0.139 -2.5488  1.3517 -0.1886
 4386SOL    HW220274   7.156   8.712   0.262  0.1182  3.4961  1.5505
 4387SOL     OW20275  11.335   5.282   1.311 -0.5738 -0.0961 -0.4448
 4387SOL    HW120276  11.384   5.214   1.356 -1.0552  0.1562  0.4836
 4387SOL    HW220277  11.263   5.304   1.371 -0.9134  0.6282 -1.0971
 4388SOL     OW20278  10.259   1.844   2.230  0.0098  0.6068 -0.0101
 4388SOL    HW120279  10.294   1.810   2.148  3.2920  0.4467  1.2888
 4388SOL    HW220280  10.263   1.769   2.290 -2.9613  0.5236  0.2447
 4389SOL     OW20281   3.465  11.769   4.822  0.3165 -0.0267  0.2614
 4389SOL    HW120282   3.451  11.853   4.778 -0.8911 -0.5493 -0.4064
 4389SOL    HW220283   3.518  11.791   4.899  3.6127  0.7806 -2.0125
 4390SOL     OW20284   4.221  11.423   2.003  0.1327 -1.0498 -0.0717
 4390SOL    HW120285   4.252  11.413   1.913  0.5171 -0.4286 -0.0130
 4390SOL    HW220286   4.267  11.355   2.052  0.5488 -0.8634 -0.1969
 4391SOL     OW20287   4.018   5.975   5.227 -0.0608  0.2647 -0.4276
 4391SOL    HW120288   4.079   5.902   5.220 -1.6522 -1.3292  1.2056
 4391SOL    HW220289   3.953   5.959   5.159 -1.7184 -1.2589  1.4081
 4392SOL     OW20290   0.804  12.910   1.270 -0.5602 -0.2461 -0.3570
 4392SOL    HW120291   0.713  12.886   1.250 -0.3331 -1.3727 -0.1251
 4392SOL    HW220292   0.834  12.840   1.327  0.2636  0.4635  0.0882
 4393SOL     OW20293   9.107   1.251  11.935  0.7940  0.5765  0.0466
 4393SOL    HW120294   9.167   1.251  12.009  1.5240  1.9855 -0.5076
 4393SOL    HW220295   9.069   1.339  11.934 -0.8295 -0.0814  0.0009
 4394SOL     OW20296   0.745   9.686   4.730 -0.3121  0.3217  0.8927
 4394SOL    HW120297   0.793   9.764   4.757 -0.5209  0.3027  1.3169
 4394SOL    HW220298   0.659   9.719   4.702 -0.7289  0.1534  1.9322
 4395SOL     OW20299   3.651  11.530   8.303 -0.1335  0.4720  0.0207
 4395SOL    HW120300   3.710  11.484   8.242 -0.5345  0.7464 -0.5828
 4395SOL    HW220301   3.699  11.609   8.326  0.2918  0.0651  0.5726
 4396SOL     OW20302   3.704   3.928   9.800 -0.5131 -0.3220 -0.0956
 4396SOL    HW120303   3.784   3.956   9.755  0.0993 -0.2450  1.0046
 4396SOL    HW220304   3.676   4.005   9.850 -0.8936 -0.5620  0.0674
 4397SOL     OW20305   2.773   2.676   6.011  0.1276 -0.5645 -0.2294
 4397SOL    HW120306   2.741   2.624   5.938  0.7566 -0.5328 -0.5321
 4397SOL    HW220307   2.828   2.743   5.971  0.8813 -0.8440  0.3038
 4398SOL     OW20308  11.803  11.067  11.839 -0.6602 -0.2205 -0.3424
 4398SOL    HW120309  11.804  11.160  11.815  1.4950 -0.0092  0.3540
 4398SOL    HW220310  11.714  11.052  11.871 -0.8042  1.8595  0.4109
 4399SOL     OW20311   6.756   2.572   4.186 -0.0056  0.5283  0.0025
 4399SOL    HW120312   6.804   2.510   4.131  0.0521 -1.5606  2.2157
 4399SOL    HW220313   6.698   2.618   4.126  0.4348 -1.2057 -1.8646
 4400SOL     OW20314   6.078   3.008  11.278 -0.2463 -0.0004  0.2004
 4400SOL    HW120315   6.056   3.078  11.340 -0.0458 -0.6195  0.9958
 4400SOL    HW220316   6.010   3.013  11.210 -0.4516  0.7156  0.4565
 4401SOL     OW20317   6.710  11.128  11.739  0.2562  0.0128  0.2542
 4401SOL    HW120318   6.791  11.180  11.742  1.2155 -1.3617 -0.4504
 4401SOL    HW220319   6.725  11.065  11.669 -0.8856 -1.1562  1.0076
 4402SOL     OW20320   3.603   7.804  10.380  0.1405  0.3066  0.8484
 4402SOL    HW120321   3.543   7.818  10.453  0.0531  1.0624  0.6397
 4402SOL    HW220322   3.564   7.731  10.332 -0.0460  0.1029  1.3028
 4403SOL     OW20323   3.537   1.920   1.008  0.2899 -0.2617 -0.1790
 4403SOL    HW120324   3.566   1.873   1.086 -1.7939 -0.1352  0.7301
 4403SOL    HW220325   3.475   1.985   1.040  0.1904  0.5153 -1.8343
 4404SOL     OW20326  11.766   6.193   0.361  0.2510 -0.5248  0.3742
 4404SOL    HW120327  11.794   6.146   0.439  0.0625 -0.2436  0.6114
 4404SOL    HW220328  11.714   6.266   0.394  1.7719  0.7425  0.1255
 4405SOL     OW20329   5.951  10.857   4.372 -0.0930 -0.5092 -0.1358
 4405SOL    HW120330   5.992  10.830   4.289 -0.2071  0.8835 -0.6712
 4405SOL    HW220331   5.858  10.869   4.350 -0.5490 -2.1550  0.7123
 4406SOL     OW20332  11.180   0.951   8.891  0.1020  0.0272 -0.3169
 4406SOL    HW120333  11.126   1.030   8.887  0.8459  0.6923  1.7031
 4406SOL    HW220334  11.147   0.902   8.966  1.8455  0.1597  0.5998
 4407SOL     OW20335   7.151   0.256   5.102 -0.8052  0.0452  0.3472
 4407SOL    HW120336   7.111   0.171   5.123  2.0609 -2.3185 -2.6123
 4407SOL    HW220337   7.078   0.311   5.075 -2.7052 -1.6993  1.6252
 4408SOL     OW20338   2.345  12.114   9.106  0.1384  0.4828  0.5593
 4408SOL    HW120339   2.285  12.188   9.095 -1.8547 -1.1662 -0.7316
 4408SOL    HW220340   2.404  12.119   9.031 -0.3601  0.4902  0.1587
 4409SOL     OW20341   7.882   3.663   9.843 -0.1390  0.4012  0.0221
 4409SOL    HW120342   7.881   3.607   9.765 -0.4031  1.2860 -0.6305
 4409SOL    HW220343   7.888   3.752   9.808 -2.6117  0.9957  0.9033
 4410SOL     OW20344   1.584   1.608   0.808  0.1089  0.0218 -0.0595
 4410SOL    HW120345   1.662   1.664   0.806  1.1750 -1.3814  0.7389
 4410SOL    HW220346   1.575   1.576   0.718 -0.3888  1.2625 -0.4766
 4411SOL     OW20347   4.120   4.545  11.660 -0.2001  0.3841 -0.0590
 4411SOL    HW120348   4.025   4.550  11.662 -0.2017  0.0972  1.4453
 4411SOL    HW220349   4.140   4.455  11.684  0.4618  0.5787  0.1388
 4412SOL     OW20350  10.055   6.700  12.904 -0.4013  0.4663 -0.4015
 4412SOL    HW120351  10.096   6.785  12.923  1.1936  0.0612 -1.7838
 4412SOL    HW220352   9.961   6.717  12.911 -0.2167  2.7967 -2.1723
 4413SOL     OW20353   1.919  12.150   6.039  0.5247 -0.4901  0.2177
 4413SOL    HW120354   1.957  12.222   5.988 -0.7633  0.5981  0.7292
 4413SOL    HW220355   1.970  12.148   6.120 -0.2316  0.7019  0.7393
 4414SOL     OW20356  10.110   5.895   7.990 -0.3594 -0.6697  0.2585
 4414SOL    HW120357  10.023   5.936   7.995 -0.5890 -1.2920  1.6495
 4414SOL    HW220358  10.157   5.930   8.065  0.6704 -0.2101 -0.5817
 4415SOL     OW20359   2.326  10.449   1.987 -0.0779  0.7385  0.0035
 4415SOL    HW120360   2.400  10.440   2.048 -0.3788  0.5001  0.3380
 4415SOL    HW220361   2.249  10.440   2.042 -0.3551  0.3415 -0.4470
 4416SOL     OW20362   2.292  12.176   6.921 -0.2432  0.3805  0.1219
 4416SOL    HW120363   2.387  12.180   6.925 -0.2869  3.0401  0.2346
 4416SOL    HW220364   2.271  12.191   6.829 -0.5889 -1.4405 -0.1444
 4417SOL     OW20365   7.004   3.130   8.301  0.4408  0.0943  0.9653
 4417SOL    HW120366   7.092   3.093   8.297 -0.1498 -1.3930  1.0822
 4417SOL    HW220367   7.005   3.201   8.237  1.6845  0.0117  0.8718
 4418SOL     OW20368  11.522  11.640   1.092 -0.2807  0.0370  0.8711
 4418SOL    HW120369  11.501  11.691   1.014 -1.9274 -2.6513 -0.5972
 4418SOL    HW220370  11.450  11.657   1.152 -1.1988 -1.0256  0.1036
 4419SOL     OW20371   3.450  12.391   9.450  0.3067 -0.1159  0.5028
 4419SOL    HW120372   3.491  12.476   9.432  0.7245 -0.2427  0.8269
 4419SOL    HW220373   3.370  12.391   9.398  1.4921 -0.5072 -1.4099
 4420SOL     OW20374   5.872   9.463   7.332 -0.4344  0.2294 -0.0502
 4420SOL    HW120375   5.797   9.445   7.389 -0.5620  1.4018  0.1758
 4420SOL    HW220376   5.942   9.488   7.392 -0.0040 -0.3808 -0.2942
 4421SOL     OW20377   3.873  12.850   6.643 -0.3452  0.6848 -0.5551
 4421SOL    HW120378   3.853  12.937   6.680 -0.4119 -0.2408  1.7336
 4421SOL    HW220379   3.959  12.860   6.602  0.1803  1.5591  0.7100
 4422SOL     OW20380  10.953   9.185  11.029  0.7153  0.1821  0.2797
 4422SOL    HW120381  11.031   9.227  10.993 -0.6803  0.8386 -2.2413
 4422SOL    HW220382  10.901   9.257  11.065 -0.1982  0.2853 -1.1253
 4423SOL     OW20383  12.425   5.035   8.211 -0.5855  0.2488  0.1801
 4423SOL    HW120384  12.429   5.087   8.130  0.3665  0.3864  0.2994
 4423SOL    HW220385  12.480   5.084   8.273  1.3688 -1.4818 -0.0639
 4424SOL     OW20386   3.781   5.094   1.831 -0.2082 -1.0060 -0.2606
 4424SOL    HW120387   3.709   5.148   1.864  0.1358 -0.7133  0.0212
 4424SOL    HW220388   3.857   5.120   1.884 -0.2730 -2.5558  0.6641
 4425SOL     OW20389   7.819   3.085  10.184 -0.0180 -0.2801  0.1304
 4425SOL    HW120390   7.876   3.008  10.188  2.0327  1.2170  1.4151
 4425SOL    HW220391   7.801   3.097  10.091  1.4268 -1.0568 -0.2795
 4426SOL     OW20392   6.431   8.318  12.938 -0.0388  0.9095 -0.0352
 4426SOL    HW120393   6.527   8.315  12.929  0.0659 -0.0138  1.1738
 4426SOL    HW220394   6.398   8.291  12.852  0.8049 -0.0634 -0.0748
 4427SOL     OW20395  10.609   5.116   8.996 -0.6902 -0.2127  0.4845
 4427SOL    HW120396  10.584   5.030   9.030  3.7344 -1.4085  1.3251
 4427SOL    HW220397  10.612   5.172   9.074 -1.1537  0.0935  0.2932
 4428SOL     OW20398   2.132   6.718   3.943  0.0168  0.1225 -0.8157
 4428SOL    HW120399   2.181   6.767   4.009 -0.1419 -1.2183  0.3514
 4428SOL    HW220400   2.054   6.771   3.926 -0.1069  0.3438  0.3351
 4429SOL     OW20401  11.299  12.540   8.070  0.4943  0.1420 -0.0216
 4429SOL    HW120402  11.280  12.497   7.987  0.7053 -0.3683  0.1885
 4429SOL    HW220403  11.392  12.563   8.064  0.7938 -0.8454  0.4773
 4430SOL     OW20404   4.912   1.116   1.860 -0.1662 -0.6082  0.7595
 4430SOL    HW120405   4.953   1.031   1.842 -0.3419 -0.2416 -1.8085
 4430SOL    HW220406   4.821   1.104   1.832  0.5884  1.3249 -3.1450
 4431SOL     OW20407   1.695   9.692  10.135  0.5214  0.3414 -0.2302
 4431SOL    HW120408   1.669   9.616  10.187 -2.2482  1.3253  0.0216
 4431SOL    HW220409   1.685   9.664  10.044 -0.8389  0.4250 -0.1377
 4432SOL     OW20410   8.446   9.759   1.879  0.4066  0.2206 -0.6162
 4432SOL    HW120411   8.534   9.786   1.903  1.1989 -0.5585 -2.4416
 4432SOL    HW220412   8.394   9.772   1.958  3.0984 -3.9561  2.2708
 4433SOL     OW20413   9.478  10.602   7.122 -0.1299 -0.0473  0.5287
 4433SOL    HW120414   9.420  10.675   7.102 -0.4718 -0.7780 -1.2738
 4433SOL    HW220415   9.505  10.617   7.213 -0.1780  2.3107  0.1998
 4434SOL     OW20416   2.419   7.548  12.112  0.6909 -0.1620 -0.3810
 4434SOL    HW120417   2.512   7.537  12.131  0.8772 -0.7127 -1.5079
 4434SOL    HW220418   2.412   7.637  12.076  0.1952  1.2551  2.8043
 4435SOL     OW20419   3.743  10.707   6.350 -0.3632  0.1078 -0.1003
 4435SOL    HW120420   3.730  10.791   6.306 -0.8569  0.4374  0.6440
 4435SOL    HW220421   3.741  10.642   6.280  2.1825  0.8580 -0.9787
 4436SOL     OW20422  12.220   6.288  12.906 -0.1119  0.2120 -0.1826
 4436SOL    HW120423  12.182   6.208  12.871 -1.1294  0.0473  1.2604
 4436SOL    HW220424  12.303   6.297  12.859 -0.7499 -0.7695 -1.5608
 4437SOL     OW20425   0.510   3.069   7.892  0.3554 -0.3162 -0.4038
 4437SOL    HW120426   0.482   3.012   7.964  1.8812  0.5662  0.9696
 4437SOL    HW220427   0.587   3.025   7.856  0.5819  0.0602 -0.3885
 4438SOL     OW20428   5.867  11.355   0.847  0.2321 -0.1136 -0.8138
 4438SOL    HW120429   5.829  11.288   0.789 -1.0729 -0.6676  0.6231
 4438SOL    HW220430   5.824  11.436   0.821 -0.1047 -0.3002 -0.8384
 4439SOL     OW20431   2.987   5.265   2.120  0.1215  0.0954  0.3457
 4439SOL    HW120432   3.017   5.352   2.095 -1.7101  0.9758  1.0145
 4439SOL    HW220433   2.892   5.267   2.107  0.0682 -1.9849 -0.0958
 4440SOL     OW20434   1.699   2.516   7.800 -0.0126  0.2832  0.1692
 4440SOL    HW120435   1.646   2.490   7.724  0.5319 -0.3371 -0.0043
 4440SOL    HW220436   1.635   2.531   7.870 -0.3783 -1.1466  0.1660
 4441SOL     OW20437   4.846   3.773  12.070  0.0273 -0.2666 -0.0641
 4441SOL    HW120438   4.941   3.778  12.064  0.0932  0.6475  1.3322
 4441SOL    HW220439   4.828   3.681  12.091  0.6178 -0.3353  0.1422
 4442SOL     OW20440   0.658   7.675   7.230 -0.0624 -0.2584  0.5685
 4442SOL    HW120441   0.629   7.729   7.304  1.3187  0.4062  0.6430
 4442SOL    HW220442   0.752   7.665   7.243 -0.3187 -3.1299  0.8330
 4443SOL     OW20443   9.068   8.600   5.235 -0.1130 -0.1369  0.2730
 4443SOL    HW120444   9.030   8.676   5.279  1.2340  0.1500  0.9873
 4443SOL    HW220445   9.158   8.626   5.215 -0.1597 -0.9108 -1.0852
 4444SOL     OW20446   8.268   6.410   7.319  0.0339  0.2102 -0.4654
 4444SOL    HW120447   8.319   6.438   7.243  1.1110  0.2397  0.2328
 4444SOL    HW220448   8.333   6.403   7.390 -1.2330  2.3252  1.0225
 4445SOL     OW20449   8.002   2.476  12.391 -0.0346 -0.3754 -0.4790
 4445SOL    HW120450   7.909   2.498  12.385  0.0134 -0.0524 -0.1052
 4445SOL    HW220451   8.008   2.387  12.357 -0.7598 -1.0831  1.1157
 4446SOL     OW20452   5.790  12.471  12.741 -0.3211 -0.4696  0.2747
 4446SOL    HW120453   5.702  12.488  12.773 -0.3733 -0.0441 -0.0744
 4446SOL    HW220454   5.811  12.547  12.687 -0.9894 -1.9916 -2.2902
 4447SOL     OW20455   2.696   7.618   5.005  0.0149 -0.1118 -1.1090
 4447SOL    HW120456   2.620   7.561   5.008 -1.4891  1.7830 -0.8100
 4447SOL    HW220457   2.770   7.560   4.988 -1.4729 -2.0355 -1.3043
 4448SOL     OW20458   6.203   5.254  11.553 -0.3458 -0.2204  0.4540
 4448SOL    HW120459   6.235   5.211  11.632 -0.2230 -2.8301 -0.8997
 4448SOL    HW220460   6.191   5.183  11.490 -1.3396  1.6290 -1.5947
 4449SOL     OW20461   8.071   0.426   7.350 -0.0854  0.6180 -0.0167
 4449SOL    HW120462   8.116   0.369   7.412  0.4694  1.4492  0.3617
 4449SOL    HW220463   8.081   0.383   7.265 -0.7718 -0.4872  0.4388
 4450SOL     OW20464   1.967  12.467  11.650  0.2321 -0.0444 -0.5225
 4450SOL    HW120465   1.877  12.437  11.641  0.8332 -2.0804 -0.3130
 4450SOL    HW220466   1.966  12.523  11.728 -0.4501 -1.9871  0.9313
 4451SOL     OW20467   7.420   5.554   9.935 -0.3712  0.0046  0.4005
 4451SOL    HW120468   7.452   5.644   9.942 -0.9898  0.3726 -1.1280
 4451SOL    HW220469   7.335   5.555   9.980 -0.0060 -0.0320  1.1047
 4452SOL     OW20470   1.931   1.789  10.821 -0.0328 -0.0374  0.3099
 4452SOL    HW120471   1.920   1.735  10.743 -0.1387  0.8727 -0.3323
 4452SOL    HW220472   1.962   1.729  10.888  0.8445 -0.7068 -0.6527
 4453SOL     OW20473   0.981   1.548   3.191  0.2393 -0.3668  0.7478
 4453SOL    HW120474   1.048   1.602   3.234  2.0818  1.0942 -3.3667
 4453SOL    HW220475   1.030   1.473   3.157 -0.3852  0.0955 -1.3011
 4454SOL     OW20476   0.312   9.691   6.493  1.0008  0.0889 -0.1884
 4454SOL    HW120477   0.251   9.751   6.535  1.0801 -0.5741  0.9015
 4454SOL    HW220478   0.378   9.674   6.559  2.2457  0.5724 -1.2559
 4455SOL     OW20479  10.337  12.591  10.718 -0.4035  0.6751 -0.0779
 4455SOL    HW120480  10.375  12.611  10.804 -1.2121  0.5091  0.3342
 4455SOL    HW220481  10.318  12.676  10.680  0.8695  0.7735 -0.5279
 4456SOL     OW20482   5.072   3.288   1.576 -0.1379  0.5338 -0.1452
 4456SOL    HW120483   5.076   3.193   1.567 -0.8442  0.5874 -1.2839
 4456SOL    HW220484   5.018   3.316   1.503  1.8987  2.0210 -1.1889
 4457SOL     OW20485   8.478   4.671   9.464  0.0930 -0.2357  0.0485
 4457SOL    HW120486   8.503   4.752   9.419  0.8676 -1.3519 -1.6132
 4457SOL    HW220487   8.521   4.677   9.550  1.1792  0.5441 -0.5279
 4458SOL     OW20488   5.057   8.474   9.231  0.4890 -0.4057 -0.1280
 4458SOL    HW120489   4.990   8.450   9.167  1.3814 -1.8270 -0.5888
 4458SOL    HW220490   5.008   8.504   9.307 -0.7359 -2.1659 -0.1558
 4459SOL     OW20491   8.259   7.345   6.687  0.4853 -0.6089  0.3714
 4459SOL    HW120492   8.205   7.422   6.707  0.7357 -0.0203 -1.0419
 4459SOL    HW220493   8.342   7.361   6.731 -0.1272 -1.0345  1.7190
 4460SOL     OW20494   3.849   4.322   2.554  0.3195 -0.4437  0.3400
 4460SOL    HW120495   3.813   4.407   2.577 -1.9913 -0.4318 -2.7109
 4460SOL    HW220496   3.941   4.340   2.531 -0.2079  1.3226 -0.5504
 4461SOL     OW20497   8.648  10.237  10.801 -0.4084 -0.0463 -0.1865
 4461SOL    HW120498   8.708  10.163  10.814 -0.7072 -0.0419  1.5225
 4461SOL    HW220499   8.571  10.199  10.761 -0.9709 -0.9144  1.6041
 4462SOL     OW20500  11.203   6.256   1.835  0.6485  0.1644 -0.0900
 4462SOL    HW120501  11.219   6.335   1.887  1.5690 -1.8320  2.8888
 4462SOL    HW220502  11.285   6.208   1.839 -0.4850 -1.8643 -0.0570
 4463SOL     OW20503   8.202  10.291   3.586 -0.4392 -0.5053  0.1227
 4463SOL    HW120504   8.146  10.259   3.515 -1.8798 -1.5774  1.6705
 4463SOL    HW220505   8.214  10.215   3.643  0.6835  0.3410  1.0580
 4464SOL     OW20506   8.281   2.307   0.556  0.2360 -0.3333  0.6522
 4464SOL    HW120507   8.322   2.384   0.518 -0.1356 -0.4793 -0.0523
 4464SOL    HW220508   8.189   2.331   0.567 -0.9686 -2.0235 -3.6062
 4465SOL     OW20509   8.496  11.276  10.687  0.1096 -0.0632 -0.0114
 4465SOL    HW120510   8.403  11.274  10.665  0.4801  1.7360 -2.0030
 4465SOL    HW220511   8.505  11.348  10.749  0.4700  1.3845 -1.6788
 4466SOL     OW20512   1.195   5.031  12.453  0.3011 -0.2398  0.3584
 4466SOL    HW120513   1.239   5.115  12.441  3.1071 -1.7233 -0.7815
 4466SOL    HW220514   1.129   5.028  12.384  1.3166  0.3789 -0.6816
 4467SOL     OW20515   4.303   8.511   1.247  0.2500 -0.4385 -0.0784
 4467SOL    HW120516   4.219   8.555   1.241  0.3293  0.0679  1.8632
 4467SOL    HW220517   4.298   8.441   1.181 -1.8013 -0.6051  0.1760
 4468SOL     OW20518  12.764   0.282   4.553  0.1456 -0.6113  0.3525
 4468SOL    HW120519  12.711   0.203   4.548  1.0143 -1.1236 -2.7522
 4468SOL    HW220520  12.716   0.348   4.503  0.1224  0.4523  1.7019
 4469SOL     OW20521   9.926   7.136   0.406 -0.4731 -0.3176  0.6042
 4469SOL    HW120522   9.999   7.090   0.364  1.1982  1.3339  1.4925
 4469SOL    HW220523   9.879   7.068   0.454  2.5492 -1.0822  2.8287
 4470SOL     OW20524   8.999  12.918  11.769  0.0516 -0.1730 -0.2288
 4470SOL    HW120525   9.054  12.896  11.694 -0.6983 -0.2857 -0.7500
 4470SOL    HW220526   8.909  12.913  11.736 -0.4926 -3.0482  1.3475
 4471SOL     OW20527   1.153   0.860   7.083  0.2030 -0.2502 -0.5904
 4471SOL    HW120528   1.239   0.876   7.046 -0.2867  0.5449 -1.4471
 4471SOL    HW220529   1.125   0.946   7.117 -0.2247 -0.5100 -0.2637
 4472SOL     OW20530   8.556   7.675   8.163 -0.3543 -0.1838  1.0042
 4472SOL    HW120531   8.572   7.580   8.166 -0.2010 -0.1676  0.8124
 4472SOL    HW220532   8.572   7.705   8.252  3.3325  0.2126  0.4039
 4473SOL     OW20533   6.676  12.742   8.888 -0.3964 -0.3175 -0.3119
 4473SOL    HW120534   6.719  12.662   8.857 -0.4080  0.1786 -1.6315
 4473SOL    HW220535   6.597  12.750   8.834 -0.0856  0.9096 -0.6050
 4474SOL     OW20536   8.499  10.887   5.460  0.3686  0.2653  0.8062
 4474SOL    HW120537   8.454  10.807   5.431  1.6485 -0.6109  1.1880
 4474SOL    HW220538   8.428  10.942   5.494 -0.4072 -1.2333  1.7470
 4475SOL     OW20539   9.959   3.182  11.463  0.6222  0.2439  0.3690
 4475SOL    HW120540  10.035   3.192  11.521  0.0752  0.3021  1.0919
 4475SOL    HW220541   9.893   3.241  11.499 -0.2397 -0.8099  0.5812
 4476SOL     OW20542   1.206   5.748  12.320  0.1689  0.2386  0.0208
 4476SOL    HW120543   1.151   5.695  12.377  0.2038  1.7963  1.5812
 4476SOL    HW220544   1.161   5.832  12.313  0.9214  0.5850 -1.0420
 4477SOL     OW20545   7.742   6.087   7.363  0.0298  0.4275 -0.2042
 4477SOL    HW120546   7.658   6.043   7.348 -1.5772  3.5644 -1.2712
 4477SOL    HW220547   7.785   6.086   7.278  0.2309  0.4892 -0.1037
 4478SOL     OW20548   9.741   0.021   4.902  0.6846 -0.7133  0.7314
 4478SOL    HW120549   9.821   0.042   4.854 -0.7911  1.4010 -0.9783
 4478SOL    HW220550   9.730   0.094   4.963  0.1911 -1.1144  1.1288
 4479SOL     OW20551   3.971   0.362   2.565  0.2100  0.5001  0.4581
 4479SOL    HW120552   3.940   0.426   2.629  0.0888  1.3767 -0.4612
 4479SOL    HW220553   3.918   0.378   2.487  1.8814  0.9995 -0.6400
 4480SOL     OW20554   8.934   3.811   7.696 -0.2858  0.5188 -0.3939
 4480SOL    HW120555   8.854   3.763   7.721  0.5825 -0.7292  0.0943
 4480SOL    HW220556   8.955   3.863   7.773 -0.4832  0.6655 -0.4363
 4481SOL     OW20557   6.550   5.091   8.168  0.0733  0.2988 -0.0887
 4481SOL    HW120558   6.630   5.104   8.220 -0.2106  2.1516 -0.0748
 4481SOL    HW220559   6.582   5.060   8.083  0.8016  1.0149 -0.0867
 4482SOL     OW20560   4.110   2.968   1.035  0.3240 -0.2583  0.6278
 4482SOL    HW120561   4.051   3.026   1.084 -0.1597 -0.0844 -0.1477
 4482SOL    HW220562   4.150   2.912   1.102  0.1092  0.3578  1.2845
 4483SOL     OW20563   4.514   9.392   2.529 -0.3336  0.1974 -0.0163
 4483SOL    HW120564   4.427   9.432   2.536 -0.4719 -0.0801 -0.1246
 4483SOL    HW220565   4.573   9.466   2.516 -0.4853  0.4334  0.6316
 4484SOL     OW20566   6.469   3.819   2.579 -0.5160 -0.0180 -0.6386
 4484SOL    HW120567   6.434   3.876   2.510 -0.4401 -0.2444 -0.8633
 4484SOL    HW220568   6.440   3.731   2.555  0.9066 -0.3403 -1.3010
 4485SOL     OW20569   9.203   1.396  12.597  0.2805  0.2596  0.1011
 4485SOL    HW120570   9.120   1.444  12.599 -0.2942 -0.7371  0.5990
 4485SOL    HW220571   9.184   1.312  12.638  1.4668 -0.1059 -0.0525
 4486SOL     OW20572   3.307   7.648   9.419 -0.0346 -0.4690 -0.7207
 4486SOL    HW120573   3.400   7.657   9.399 -0.1985  0.8719 -0.9425
 4486SOL    HW220574   3.293   7.553   9.425  0.8843 -0.8158 -2.9452
 4487SOL     OW20575  10.292  12.617   5.072  0.0040 -0.1812 -0.0099
 4487SOL    HW120576  10.292  12.632   5.167 -1.1296  1.5936 -0.2299
 4487SOL    HW220577  10.310  12.703   5.035  0.2729 -0.8242 -1.4200
 4488SOL     OW20578  10.609   5.230   5.318  0.3208 -0.1287  0.3755
 4488SOL    HW120579  10.692   5.261   5.355 -0.2580  2.3701 -0.2037
 4488SOL    HW220580  10.553   5.217   5.394  1.0401 -1.2532  0.7338
 4489SOL     OW20581   4.088   7.448   2.441  0.6801  0.3879  1.1853
 4489SOL    HW120582   4.131   7.450   2.527  1.0147  0.1134  1.0268
 4489SOL    HW220583   4.072   7.540   2.420 -0.1302  0.4227  1.8977
 4490SOL     OW20584   8.484  12.057  11.436  0.0048 -0.1107  0.1725
 4490SOL    HW120585   8.402  12.012  11.457 -0.1519 -0.1508 -0.5287
 4490SOL    HW220586   8.548  11.986  11.424 -0.4132 -0.2206 -1.6987
 4491SOL     OW20587   8.638   3.673   1.526 -0.6490  0.2410 -0.3674
 4491SOL    HW120588   8.646   3.769   1.532  2.9458  0.0747  0.0898
 4491SOL    HW220589   8.699   3.649   1.455 -2.3330 -1.6854 -1.2479
 4492SOL     OW20590   1.960   5.137   4.248 -0.3459 -0.0718  0.1054
 4492SOL    HW120591   1.881   5.086   4.231  0.7204 -1.4551 -0.9230
 4492SOL    HW220592   2.009   5.085   4.312  0.8347 -0.5076 -1.0830
 4493SOL     OW20593   1.744   0.521   7.969 -0.3205 -0.8326 -0.4690
 4493SOL    HW120594   1.779   0.545   7.883 -0.0465 -1.7950 -0.6365
 4493SOL    HW220595   1.678   0.587   7.987 -1.4284 -1.4374 -2.1007
 4494SOL     OW20596   7.623  12.349   0.604  0.0644  0.0574 -0.1981
 4494SOL    HW120597   7.561  12.403   0.653  0.5359  1.5316 -1.1484
 4494SOL    HW220598   7.606  12.370   0.512  1.9938  0.5620 -0.4820
 4495SOL     OW20599   4.146   9.822   3.091  0.5629  0.0015  0.5484
 4495SOL    HW120600   4.231   9.859   3.117  0.4450  1.2573 -0.6880
 4495SOL    HW220601   4.091   9.898   3.074 -0.1260 -0.7533 -0.7878
 4496SOL     OW20602   3.922   0.688  12.131 -0.5910 -0.2987  0.5429
 4496SOL    HW120603   3.982   0.669  12.059  0.0361  1.2740  0.5908
 4496SOL    HW220604   3.873   0.607  12.145  0.4720 -1.1544 -0.5076
 4497SOL     OW20605   3.110   3.192   1.242 -0.2394 -0.9190 -0.0480
 4497SOL    HW120606   3.118   3.235   1.327  0.6760 -1.6233  0.2341
 4497SOL    HW220607   3.194   3.208   1.199 -0.0297 -2.0464 -0.1007
 4498SOL     OW20608   8.702   8.795  11.862 -0.3921 -0.2402 -0.0643
 4498SOL    HW120609   8.715   8.731  11.931 -1.0600 -0.8153 -0.4604
 4498SOL    HW220610   8.663   8.871  11.906  0.0766 -0.2310  0.3419
 4499SOL     OW20611   6.152   9.272  11.506 -1.1751 -0.2089  0.3018
 4499SOL    HW120612   6.129   9.295  11.596  1.2999  2.6825  0.3239
 4499SOL    HW220613   6.134   9.351  11.456  1.4156 -0.3168 -0.9428
 4500SOL     OW20614  11.064   7.257   3.546  0.2818  0.4942  0.3347
 4500SOL    HW120615  11.115   7.332   3.578 -0.6888  1.2987  0.0596
 4500SOL    HW220616  10.975   7.275   3.576  0.2059 -1.0865  1.1627
 4501SOL     OW20617   0.138  10.498   1.397 -0.4243  0.7554  0.0047
 4501SOL    HW120618   0.097  10.412   1.398  0.5881  0.2654  1.0811
 4501SOL    HW220619   0.091  10.548   1.464  0.5035  0.2885  1.0256
 4502SOL     OW20620   1.566  11.208   8.950  0.1317 -0.2355  0.0475
 4502SOL    HW120621   1.606  11.202   9.036 -0.6445 -2.4422  0.3025
 4502SOL    HW220622   1.510  11.286   8.955  1.1086  0.4335  1.0509
 4503SOL     OW20623   5.310   7.776   1.557 -0.1019 -0.1871  0.0530
 4503SOL    HW120624   5.402   7.755   1.575 -0.3566 -1.5851 -0.1536
 4503SOL    HW220625   5.307   7.872   1.558  1.2018 -0.1229  0.8150
 4504SOL     OW20626   8.072   5.946  10.062 -0.0099  0.1321 -0.1379
 4504SOL    HW120627   8.109   5.976  10.145  1.2835 -3.4545  0.7727
 4504SOL    HW220628   8.036   5.860  10.081 -0.3811 -0.5102 -3.1673
 4505SOL     OW20629   2.562   1.253   1.955  0.5135 -0.0533  0.0216
 4505SOL    HW120630   2.506   1.329   1.970 -0.1597 -0.3267 -1.0201
 4505SOL    HW220631   2.527   1.185   2.012  0.8635  0.2910  0.6518
 4506SOL     OW20632  11.722   2.014   3.310  0.4395 -0.3715 -0.2987
 4506SOL    HW120633  11.798   2.060   3.345  0.0990 -0.0126 -0.0272
 4506SOL    HW220634  11.714   1.936   3.365 -0.3426  0.3965  0.7124
 4507SOL     OW20635   5.706   5.202   3.155  0.0876 -0.3322  0.6411
 4507SOL    HW120636   5.688   5.239   3.069  0.0599 -0.9745  0.3621
 4507SOL    HW220637   5.793   5.236   3.179  0.2851 -0.4980  0.1680
 4508SOL     OW20638   4.505   9.727   9.900 -0.1390 -0.3819  0.2499
 4508SOL    HW120639   4.561   9.663   9.857  1.4170  1.5481 -0.7399
 4508SOL    HW220640   4.565   9.795   9.931 -1.6087  0.0687  2.3012
 4509SOL     OW20641   9.575   8.806   8.547  0.3833  0.0586 -0.0688
 4509SOL    HW120642   9.554   8.715   8.572  1.9261  0.0499  1.3732
 4509SOL    HW220643   9.561   8.808   8.453 -0.5490 -1.4421 -0.0048
 4510SOL     OW20644  10.972   7.258  11.647 -0.8569 -0.3392 -0.4361
 4510SOL    HW120645  11.009   7.236  11.733 -2.7281  1.3391  0.8776
 4510SOL    HW220646  10.984   7.179  11.594  2.1834 -0.7518  0.6744
 4511SOL     OW20647   5.905   6.259   4.100  0.0068 -0.1546 -0.1013
 4511SOL    HW120648   5.948   6.333   4.059 -1.9515  0.7043 -0.7389
 4511SOL    HW220649   5.817   6.290   4.120 -1.6729 -2.9270 -2.4262
 4512SOL     OW20650   7.790   0.181   3.686  0.1361  0.2473 -0.2943
 4512SOL    HW120651   7.883   0.157   3.680 -0.0475 -0.5782  0.0011
 4512SOL    HW220652   7.744   0.108   3.643 -0.5062 -0.4855  1.5577
 4513SOL     OW20653  10.219   9.277   4.189  0.0363 -0.0002 -0.0059
 4513SOL    HW120654  10.268   9.281   4.271  0.1538  1.0815 -0.1140
 4513SOL    HW220655  10.186   9.366   4.177 -0.8883 -0.4089 -0.5859
 4514SOL     OW20656   3.262   0.862   0.801 -0.2451  0.1577  0.1360
 4514SOL    HW120657   3.276   0.769   0.787 -0.6369  0.2927 -1.3674
 4514SOL    HW220658   3.340   0.892   0.849  0.2803 -0.7668 -0.1254
 4515SOL     OW20659   0.777   3.347   2.757 -0.3370 -0.1428  0.3138
 4515SOL    HW120660   0.745   3.421   2.808 -0.2344 -0.0526  0.2465
 4515SOL    HW220661   0.857   3.319   2.802 -0.3031 -0.1289  0.2621
 4516SOL     OW20662   4.312   9.018   5.180  0.1452  0.0316 -0.3780
 4516SOL    HW120663   4.328   9.017   5.275  0.8694 -0.9737 -0.4946
 4516SOL    HW220664   4.293   9.110   5.160 -1.2213  0.0660  0.9313
 4517SOL     OW20665   9.773  11.992   4.360 -0.3204 -0.1189 -0.0055
 4517SOL    HW120666   9.733  11.938   4.428  0.1179 -0.1235  0.2514
 4517SOL    HW220667   9.796  12.074   4.404 -0.3582  0.0155 -0.2316
 4518SOL     OW20668  11.253   7.257   2.056  0.4070 -0.1362  0.0418
 4518SOL    HW120669  11.288   7.276   2.143 -1.5078  1.3723  0.5536
 4518SOL    HW220670  11.255   7.162   2.049  1.6072 -0.2177  1.2903
 4519SOL     OW20671   1.055   1.777  12.049  0.5059 -0.3149 -0.1132
 4519SOL    HW120672   0.977   1.721  12.057  0.3669  0.0531  1.4889
 4519SOL    HW220673   1.113   1.747  12.119  0.9727  0.6964 -0.0552
 4520SOL     OW20674   9.890   5.603   1.161 -0.6020  0.4045 -0.3003
 4520SOL    HW120675   9.902   5.509   1.168  1.0852  0.4971 -1.3987
 4520SOL    HW220676   9.922   5.637   1.245  1.7357  0.1884 -1.0510
 4521SOL     OW20677   3.792  11.413   8.100  0.1071 -0.4085 -0.1243
 4521SOL    HW120678   3.874  11.458   8.078 -0.2131  2.1032  2.9996
 4521SOL    HW220679   3.820  11.338   8.152  0.4820 -1.3541 -1.6382
 4522SOL     OW20680   9.514   2.464  10.318  0.5568  0.1727  0.1957
 4522SOL    HW120681   9.601   2.427  10.308 -0.0613 -1.8015  1.7158
 4522SOL    HW220682   9.486   2.440  10.406 -1.0284  1.8935  0.2358
 4523SOL     OW20683   4.796   3.342  10.571 -0.0654  0.6369 -0.0153
 4523SOL    HW120684   4.854   3.416  10.553 -0.4267  0.4822 -2.0712
 4523SOL    HW220685   4.708   3.377  10.559 -0.3178  0.2739  0.7034
 4524SOL     OW20686   6.070   4.084   7.948 -0.0173  0.3993 -0.1316
 4524SOL    HW120687   6.032   4.157   7.996  0.9378  1.1205 -0.4439
 4524SOL    HW220688   6.058   4.008   8.006 -0.8865  0.8186  0.2503
 4525SOL     OW20689   4.496   1.767  12.869 -0.7659  0.5909  0.3617
 4525SOL    HW120690   4.411   1.801  12.841 -0.7518  0.0183 -0.3938
 4525SOL    HW220691   4.560   1.814  12.815 -0.5619  1.2782  1.1706
 4526SOL     OW20692  11.628   6.920   4.951  0.0397  0.2086  0.1037
 4526SOL    HW120693  11.610   6.829   4.974 -0.3093  1.1290  4.2644
 4526SOL    HW220694  11.545   6.965   4.966  0.7249  1.5049  0.1560
 4527SOL     OW20695  10.938   6.762  12.901 -0.1042  0.0638 -0.0682
 4527SOL    HW120696  10.887   6.681  12.895 -0.5183  0.3431 -0.4065
 4527SOL    HW220697  11.026   6.734  12.925 -0.2029 -0.5029 -0.3612
 4528SOL     OW20698   1.800   0.881   2.452  0.4440 -0.3220  0.7871
 4528SOL    HW120699   1.811   0.821   2.378 -0.3951 -1.0223  1.2105
 4528SOL    HW220700   1.854   0.956   2.430 -1.2385  0.3338 -1.4523
 4529SOL     OW20701   6.885   5.848  10.630 -0.5809  0.5815  0.1231
 4529SOL    HW120702   6.832   5.814  10.702 -0.2889 -1.8700 -0.7322
 4529SOL    HW220703   6.832   5.833  10.552  0.5487 -0.1145 -0.5377
 4530SOL     OW20704   3.572   0.796  12.524  0.1564  0.4408  0.3879
 4530SOL    HW120705   3.531   0.853  12.458  0.7277  2.9581  2.0464
 4530SOL    HW220706   3.658   0.774  12.487  0.1053  1.0541 -0.1115
 4531SOL     OW20707   9.697  12.569   1.836 -0.4807 -0.7595 -0.2405
 4531SOL    HW120708   9.700  12.592   1.929  0.1590  1.7913 -0.8187
 4531SOL    HW220709   9.604  12.570   1.813 -0.5406  0.4205 -0.0046
 4532SOL     OW20710   4.989   6.363   8.834 -0.6053 -0.1560 -0.0858
 4532SOL    HW120711   4.959   6.282   8.792  0.5391 -0.0021 -1.2603
 4532SOL    HW220712   5.029   6.333   8.916 -0.3458 -0.7765 -0.4266
 4533SOL     OW20713  11.265   0.568   1.050  0.3187 -0.4684 -0.0620
 4533SOL    HW120714  11.332   0.517   1.096  0.0531 -2.2132 -1.4807
 4533SOL    HW220715  11.199   0.504   1.025 -0.3234  0.6712 -1.4224
 4534SOL     OW20716   1.068   1.651   0.629  0.1753 -0.4655  0.4120
 4534SOL    HW120717   0.975   1.653   0.609  0.3546 -2.7876 -1.1980
 4534SOL    HW220718   1.074   1.614   0.717 -0.4278 -0.1516  0.5843
 4535SOL     OW20719  10.731   0.184   8.721  0.3896 -0.0725  0.8417
 4535SOL    HW120720  10.816   0.148   8.695 -1.6938 -2.5807 -3.5203
 4535SOL    HW220721  10.694   0.118   8.779  0.0550 -0.7924 -0.1613
 4536SOL     OW20722   5.948   7.107   8.647 -1.1076 -0.0212  0.0424
 4536SOL    HW120723   5.946   7.192   8.690 -0.4365 -0.3198  0.6787
 4536SOL    HW220724   5.926   7.126   8.556 -1.0901  0.8109  0.2055
 4537SOL     OW20725   9.948   9.196   9.769  0.6376 -0.1899 -0.2724
 4537SOL    HW120726   9.868   9.248   9.763  0.5984  0.1660  2.1570
 4537SOL    HW220727  10.019   9.259   9.768  0.7217 -0.2700  0.3520
 4538SOL     OW20728   6.494   5.319  10.848  0.3276  0.3623  0.1310
 4538SOL    HW120729   6.476   5.301  10.756 -0.3901  1.3614  0.0625
 4538SOL    HW220730   6.417   5.287  10.895 -0.2959  1.8400  0.1507
 4539SOL     OW20731   8.206   4.587  12.662 -0.4535 -0.0606 -0.1358
 4539SOL    HW120732   8.268   4.560  12.729 -0.8638  1.0705  0.7155
 4539SOL    HW220733   8.148   4.511  12.651 -0.1371 -0.3984  0.4959
 4540SOL     OW20734   6.739   6.224   1.771 -0.0164 -0.4325  0.5624
 4540SOL    HW120735   6.735   6.311   1.732 -1.6870 -0.3070  0.9327
 4540SOL    HW220736   6.825   6.190   1.745  1.4002  1.9405  1.7591
 4541SOL     OW20737  10.781  12.849  12.722  0.3617 -0.0486 -0.9078
 4541SOL    HW120738  10.814  12.822  12.636  0.4588 -0.8822 -0.6110
 4541SOL    HW220739  10.858  12.848  12.778 -0.0008 -1.1655 -0.4110
 4542SOL     OW20740   2.163  10.408  12.892 -0.2205 -1.4925 -0.4710
 4542SOL    HW120741   2.090  10.441  12.946  1.3611  0.9069  0.3545
 4542SOL    HW220742   2.221  10.364  12.955  0.3719 -0.9576 -0.6362
 4543SOL     OW20743   6.864  11.786   6.251 -0.0625  0.5124 -0.1969
 4543SOL    HW120744   6.829  11.716   6.196  0.8093 -1.0347  1.0886
 4543SOL    HW220745   6.959  11.778   6.241  0.0464  1.9847 -0.5387
 4544SOL     OW20746  11.904  11.461   3.797  1.2082  0.1838  0.0945
 4544SOL    HW120747  11.836  11.396   3.779  0.4458  1.3661 -1.4942
 4544SOL    HW220748  11.944  11.477   3.712  2.2028  0.9144  0.6855
 4545SOL     OW20749   9.249   1.389  10.597  0.1376  0.0897 -0.0954
 4545SOL    HW120750   9.197   1.469  10.593  0.5283  0.3342 -0.3071
 4545SOL    HW220751   9.263   1.365  10.506 -2.5755 -1.9376 -0.0949
 4546SOL     OW20752   1.206   0.387   5.906  0.2948 -0.7537  0.1630
 4546SOL    HW120753   1.191   0.307   5.855 -0.1110 -0.1492 -0.7054
 4546SOL    HW220754   1.301   0.391   5.915  0.5751  0.0750 -2.2394
 4547SOL     OW20755   4.386   8.334   7.644 -0.1201  0.0140 -0.0999
 4547SOL    HW120756   4.458   8.397   7.651  1.2809 -1.5126 -0.2080
 4547SOL    HW220757   4.414   8.273   7.575 -1.9467 -0.0998 -0.7944
 4548SOL     OW20758   5.661   1.179  10.236  0.0464  0.1200  0.0726
 4548SOL    HW120759   5.689   1.096  10.274  1.4605  0.2452 -0.6066
 4548SOL    HW220760   5.678   1.244  10.304 -1.5604 -0.1727  0.8049
 4549SOL     OW20761  12.754   8.407   6.535 -0.0093 -0.1061  0.1463
 4549SOL    HW120762  12.714   8.409   6.622 -0.8867 -0.9183 -0.2145
 4549SOL    HW220763  12.739   8.494   6.500 -1.5798 -0.4105 -0.0062
 4550SOL     OW20764  12.834   5.490   8.618 -0.7725  0.2444  0.1046
 4550SOL    HW120765  12.787   5.407   8.632  1.0862 -0.8523  0.1908
 4550SOL    HW220766  12.900   5.469   8.551  0.7816  1.1979  1.2711
 4551SOL     OW20767   0.708  11.211   0.349  0.4262  0.1466 -0.3119
 4551SOL    HW120768   0.772  11.141   0.340 -0.8485 -1.0671 -0.2015
 4551SOL    HW220769   0.672  11.200   0.437 -2.4439 -1.4932 -1.5299
 4552SOL     OW20770  11.687   4.635  12.419  0.1812 -0.4479 -0.6829
 4552SOL    HW120771  11.722   4.678  12.341 -0.1494 -0.5668 -0.8985
 4552SOL    HW220772  11.755   4.573  12.445  0.8315  0.4617 -0.1470
 4553SOL     OW20773   7.507   0.080  12.580  0.1157  0.0039  0.4835
 4553SOL    HW120774   7.533   0.160  12.534  0.6779 -0.1852  0.4609
 4553SOL    HW220775   7.450   0.034  12.519  3.1233 -1.6781 -1.3072
 4554SOL     OW20776   6.546   9.907   2.019 -0.3417  0.3823 -0.6069
 4554SOL    HW120777   6.619   9.864   2.063 -0.8144 -0.8370 -0.9675
 4554SOL    HW220778   6.582   9.940   1.937  0.0651  0.8311 -0.2529
 4555SOL     OW20779  10.876  12.238  10.367 -0.3705  0.4063 -0.7765
 4555SOL    HW120780  10.824  12.309  10.406  1.5748  0.0982  2.8233
 4555SOL    HW220781  10.811  12.173  10.341 -1.9891  1.7605 -0.3284
 4556SOL     OW20782   3.094  12.725  10.130 -0.7353 -0.0246 -0.3824
 4556SOL    HW120783   3.168  12.773  10.168 -0.5334 -0.7090  0.1155
 4556SOL    HW220784   3.027  12.729  10.198 -1.5065  1.3567 -1.1773
 4557SOL     OW20785   1.939  12.037   2.079  0.1087  0.4654  0.6949
 4557SOL    HW120786   1.977  12.072   1.999 -1.1842 -1.1415 -0.7197
 4557SOL    HW220787   2.013  11.998   2.126  0.4290 -2.4074 -1.8714
 4558SOL     OW20788   1.034   7.310   7.001 -0.2483 -0.1228  0.0414
 4558SOL    HW120789   1.065   7.355   6.922 -0.4872  0.2259  0.1445
 4558SOL    HW220790   1.080   7.352   7.073 -1.0633  0.5031  0.2078
 4559SOL     OW20791   4.522  12.579  11.493 -0.4182 -0.5516 -0.0632
 4559SOL    HW120792   4.471  12.642  11.441 -0.0593 -0.6439 -0.5282
 4559SOL    HW220793   4.543  12.508  11.432 -0.3797 -0.8787  0.3258
 4560SOL     OW20794   3.369   3.825  12.150  0.1872 -0.0435 -0.2484
 4560SOL    HW120795   3.363   3.730  12.138  1.3217 -0.2647  0.6852
 4560SOL    HW220796   3.281   3.857  12.134 -0.6763 -1.4941  1.2900
 4561SOL     OW20797   9.671   2.956   9.134  0.1840  0.8103 -0.1570
 4561SOL    HW120798   9.744   2.894   9.128 -0.1057  0.5087 -0.6843
 4561SOL    HW220799   9.712   3.040   9.156  0.6847  0.6369 -0.4049
 4562SOL     OW20800  12.447   4.457   6.027  0.3882 -0.6635 -0.2712
 4562SOL    HW120801  12.459   4.552   6.029  0.6849 -0.6973 -0.4635
 4562SOL    HW220802  12.485   4.427   6.110 -0.5071 -0.5234  0.2002
 4563SOL     OW20803   6.772   0.216   2.967 -0.0030  0.1642  0.6041
 4563SOL    HW120804   6.859   0.182   2.945 -0.9957 -3.2189  1.3142
 4563SOL    HW220805   6.721   0.138   2.991 -2.8770  2.1527  1.4981
 4564SOL     OW20806   6.661  11.630   3.735 -0.1187 -0.4888 -0.6466
 4564SOL    HW120807   6.612  11.675   3.804  0.8494  0.2041 -0.3895
 4564SOL    HW220808   6.603  11.560   3.706 -0.5882 -0.7308  0.8023
 4565SOL     OW20809   2.146   4.535   2.450  0.3919  0.0494 -0.1894
 4565SOL    HW120810   2.067   4.522   2.503  0.5200 -0.1485 -0.0424
 4565SOL    HW220811   2.121   4.598   2.383  0.4056  0.7965  0.4887
 4566SOL     OW20812  12.135   0.194   8.165  0.1646  0.5213 -0.5478
 4566SOL    HW120813  12.073   0.212   8.094  1.1893  0.0711 -1.5848
 4566SOL    HW220814  12.100   0.116   8.208  1.4416 -1.5031 -2.9267
 4567SOL     OW20815   1.818  11.677   9.889  0.3260  0.0360 -0.0104
 4567SOL    HW120816   1.807  11.755   9.834  0.6016 -0.2675 -0.5066
 4567SOL    HW220817   1.853  11.610   9.829 -0.6507 -0.7019  0.2229
 4568SOL     OW20818   6.156   4.547   6.629  0.1741  0.2529  0.1397
 4568SOL    HW120819   6.089   4.604   6.592  1.5416  1.3960 -0.7206
 4568SOL    HW220820   6.174   4.585   6.715 -0.0456  0.1355  0.2391
 4569SOL     OW20821   4.299   7.620   4.517  0.1044 -0.2414 -0.1490
 4569SOL    HW120822   4.358   7.546   4.530 -0.5230 -0.4951  1.3696
 4569SOL    HW220823   4.357   7.693   4.493  1.0549 -0.4709  1.3652
 4570SOL     OW20824   1.351   6.877   1.989 -0.5211  0.2585 -0.0214
 4570SOL    HW120825   1.262   6.857   2.018 -0.8505  0.5175 -0.8197
 4570SOL    HW220826   1.407   6.828   2.049 -1.1957  0.1513  0.5379
 4571SOL     OW20827   7.176   3.734   2.834  0.5042  0.6975  0.0558
 4571SOL    HW120828   7.249   3.756   2.776  0.5169  0.4017 -0.0437
 4571SOL    HW220829   7.098   3.767   2.789  0.6894  2.1707  0.7622
 4572SOL     OW20830  12.547   9.808  12.260  0.4268 -0.0515  0.1017
 4572SOL    HW120831  12.530   9.873  12.328  1.9622  1.2028 -0.6500
 4572SOL    HW220832  12.634   9.831  12.226  0.8963 -2.3164 -0.4094
 4573SOL     OW20833   3.130   1.048   0.650  0.3798 -0.0275  0.2317
 4573SOL    HW120834   3.199   0.985   0.671 -0.5314 -0.3002  2.6421
 4573SOL    HW220835   3.051   0.995   0.641 -0.2309  0.6485  1.4101
 4574SOL     OW20836   6.215  11.944   1.684  0.2548  0.5944  0.2650
 4574SOL    HW120837   6.265  11.889   1.744 -0.9006 -0.6431  0.1356
 4574SOL    HW220838   6.219  11.898   1.600 -0.8273  0.6378  0.1747
 4575SOL     OW20839   8.517  10.164   2.013 -0.1089 -0.1285  0.1179
 4575SOL    HW120840   8.544  10.252   1.987  0.0811  0.0158  0.7882
 4575SOL    HW220841   8.422  10.170   2.024  0.1763  0.7142  2.7573
 4576SOL     OW20842   0.784   4.434   2.353 -0.3839  0.0712 -0.1980
 4576SOL    HW120843   0.710   4.488   2.382 -0.2037  1.6872 -2.4387
 4576SOL    HW220844   0.847   4.439   2.424 -0.7548  2.1414  0.0405
 4577SOL     OW20845   2.059   0.788   0.886  0.1726  0.2129 -0.2239
 4577SOL    HW120846   2.114   0.866   0.894 -0.9209  0.9128  0.8975
 4577SOL    HW220847   2.074   0.757   0.797  2.1436  0.5300 -0.0438
 4578SOL     OW20848   2.990   4.130   3.629 -0.2348  0.0141 -0.0683
 4578SOL    HW120849   3.045   4.150   3.552 -0.5703 -1.7770 -0.8352
 4578SOL    HW220850   2.904   4.111   3.592 -0.3917 -0.9147  0.7352
 4579SOL     OW20851  12.086  11.994   6.828 -0.2800  0.3449 -0.2396
 4579SOL    HW120852  12.148  11.931   6.791  0.9217  1.1790  0.3032
 4579SOL    HW220853  12.041  11.945   6.897 -0.4962 -0.3687 -0.8672
 4580SOL     OW20854  12.555   1.627  12.800  0.5073  0.0318  0.2214
 4580SOL    HW120855  12.623   1.692  12.784  0.2126  0.1571 -0.5670
 4580SOL    HW220856  12.593   1.567  12.864  2.3082 -1.3502 -2.0158
 4581SOL     OW20857   8.601  11.262   8.232 -0.0868  0.2709 -0.3672
 4581SOL    HW120858   8.578  11.265   8.324 -0.4707 -0.4698 -0.4312
 4581SOL    HW220859   8.682  11.313   8.225 -0.0728  0.3517  0.3697
 4582SOL     OW20860   8.837   7.680   4.716 -0.5395  0.3824  0.4502
 4582SOL    HW120861   8.833   7.746   4.647 -0.6701  0.4750  0.5442
 4582SOL    HW220862   8.839   7.597   4.669 -1.8648  0.3840  0.3302
 4583SOL     OW20863   4.621   6.437   4.582 -0.1196  0.4392 -0.0285
 4583SOL    HW120864   4.553   6.447   4.515 -0.1526 -0.0777 -0.0730
 4583SOL    HW220865   4.697   6.481   4.545  0.3001 -1.0777 -1.0500
 4584SOL     OW20866   6.105   3.326   9.844  1.0312  0.3542 -0.0176
 4584SOL    HW120867   6.098   3.420   9.827  0.2552  0.4979  0.9896
 4584SOL    HW220868   6.162   3.293   9.774  0.0471  1.3028 -1.3106
 4585SOL     OW20869   9.691   7.703   3.895 -0.7107  0.4337  0.2908
 4585SOL    HW120870   9.601   7.672   3.903 -0.9128  0.8486 -0.3801
 4585SOL    HW220871   9.726   7.655   3.820 -0.2364 -0.0341  0.7993
 4586SOL     OW20872   6.523   4.280   4.854  0.6185 -0.3183  0.3985
 4586SOL    HW120873   6.603   4.331   4.865  0.4592 -0.5309  3.1781
 4586SOL    HW220874   6.549   4.190   4.877 -0.6821 -0.1039  3.1477
 4587SOL     OW20875   6.673   4.289   7.112 -0.1261 -0.2229  0.0124
 4587SOL    HW120876   6.586   4.259   7.135 -0.7983 -0.4160 -2.4675
 4587SOL    HW220877   6.705   4.335   7.190 -1.9188 -1.2061  1.3909
 4588SOL     OW20878   9.597   7.698   6.644  0.1202 -0.2903  0.2007
 4588SOL    HW120879   9.581   7.620   6.697 -2.6408 -0.2887 -0.5109
 4588SOL    HW220880   9.515   7.746   6.645  0.7565  1.0146 -2.0047
 4589SOL     OW20881   2.220   3.496  10.533  0.2052 -0.5120 -0.8189
 4589SOL    HW120882   2.146   3.505  10.473 -0.6101  0.9924  0.3584
 4589SOL    HW220883   2.202   3.415  10.581  1.1382 -2.0385 -2.8775
 4590SOL     OW20884  10.375   5.706   3.575 -0.0261  0.2289  0.2753
 4590SOL    HW120885  10.390   5.650   3.651 -0.9563  0.4484  0.6383
 4590SOL    HW220886  10.288   5.744   3.590  1.2529  3.1460  0.9012
 4591SOL     OW20887  10.196  11.179   9.060  0.0880 -0.6748  0.5870
 4591SOL    HW120888  10.166  11.269   9.072 -1.4047 -1.1815  0.7931
 4591SOL    HW220889  10.159  11.152   8.976 -0.6624 -1.5546  1.1854
 4592SOL     OW20890  10.828   2.295   1.814 -0.2815 -0.0548 -0.6226
 4592SOL    HW120891  10.907   2.309   1.867 -1.0206  0.3471  0.4156
 4592SOL    HW220892  10.814   2.379   1.770 -0.2129 -0.0804 -0.6934
 4593SOL     OW20893   6.218   7.044  12.691  0.9219  0.0786 -0.6595
 4593SOL    HW120894   6.203   7.135  12.716  0.5456  0.5304 -2.3786
 4593SOL    HW220895   6.185   6.993  12.765 -1.3745  1.2836 -0.7506
 4594SOL     OW20896   0.808  10.641  10.197  0.0128 -0.0878 -0.1607
 4594SOL    HW120897   0.844  10.559  10.231  0.5405 -0.4244 -1.4691
 4594SOL    HW220898   0.754  10.675  10.269  1.4786 -0.4957  1.1904
 4595SOL     OW20899   4.258   1.774   1.506 -0.3985  0.2380  0.9464
 4595SOL    HW120900   4.250   1.809   1.595 -0.1177 -0.8349  1.4113
 4595SOL    HW220901   4.304   1.691   1.517 -2.2814 -0.9925  0.0597
 4596SOL     OW20902   7.251   8.015   0.173  0.4641 -0.5363  0.0770
 4596SOL    HW120903   7.308   8.079   0.215  1.6273 -1.2693 -0.3019
 4596SOL    HW220904   7.273   7.932   0.216 -0.7252 -0.7602  0.2885
 4597SOL     OW20905   1.148  11.459   4.681  0.1855 -0.2783  0.3623
 4597SOL    HW120906   1.125  11.436   4.591 -0.9477  0.5276  0.4265
 4597SOL    HW220907   1.089  11.531   4.704 -0.2670 -1.1456  2.1042
 4598SOL     OW20908   1.187   8.271   9.992 -0.2336 -0.5645 -0.1372
 4598SOL    HW120909   1.270   8.288   9.948  0.0447  0.3882  0.7061
 4598SOL    HW220910   1.210   8.215  10.066 -0.3855 -0.5252 -0.0598
 4599SOL     OW20911   4.992  10.173  12.326 -0.1032  0.1023  0.0594
 4599SOL    HW120912   5.062  10.238  12.336 -0.8961  1.0062 -0.0292
 4599SOL    HW220913   4.960  10.158  12.415  0.6052 -0.7737  0.1684
 4600SOL     OW20914   5.765   7.855   4.833 -0.3621 -0.4244 -0.2355
 4600SOL    HW120915   5.670   7.864   4.824 -0.8945 -2.6425  2.0198
 4600SOL    HW220916   5.784   7.770   4.793  0.9345  0.5101 -1.7377
 4601SOL     OW20917  10.512   6.715  10.126  0.0462 -0.1379  0.0104
 4601SOL    HW120918  10.422   6.706  10.156 -0.3886  0.8275 -0.9357
 4601SOL    HW220919  10.544   6.795  10.168  0.6056 -0.6875  0.6525
 4602SOL     OW20920   3.223  10.284   5.719  0.1594  0.2695  0.1337
 4602SOL    HW120921   3.306  10.331   5.715 -0.0122  0.5601  0.0057
 4602SOL    HW220922   3.235  10.221   5.790  0.6803 -0.0588 -0.2341
 4603SOL     OW20923   8.863   8.853   1.237  0.2774  0.3377 -0.4104
 4603SOL    HW120924   8.939   8.842   1.294 -0.1649 -0.3846  0.0590
 4603SOL    HW220925   8.889   8.810   1.155  0.1306 -0.4968 -0.0229
 4604SOL     OW20926   5.653   0.419   2.452 -0.3026  0.3061  0.1901
 4604SOL    HW120927   5.599   0.478   2.504  2.1648  1.5357  1.4990
 4604SOL    HW220928   5.743   0.447   2.467  0.7379 -1.0515 -2.6112
 4605SOL     OW20929  11.492   6.659   9.389  0.8027  0.0554  0.1592
 4605SOL    HW120930  11.457   6.748   9.390 -1.1727 -0.6706  0.4910
 4605SOL    HW220931  11.415   6.604   9.376  1.7429 -1.7037  1.6682
 4606SOL     OW20932   8.523   8.172   2.902 -0.3847  0.2516  0.6390
 4606SOL    HW120933   8.474   8.183   2.984 -0.5385 -1.0139  0.7431
 4606SOL    HW220934   8.574   8.253   2.893 -2.7658  1.8089  0.3216
 4607SOL     OW20935  10.738  11.148  12.629 -0.9967 -0.2331 -0.0027
 4607SOL    HW120936  10.663  11.143  12.688 -1.1428 -0.1922 -0.1842
 4607SOL    HW220937  10.700  11.146  12.541 -0.9476  2.0240 -0.1260
 4608SOL     OW20938   9.161   6.816   8.674 -0.2724  0.5902 -0.1687
 4608SOL    HW120939   9.123   6.874   8.608  0.2121  0.1955 -0.8038
 4608SOL    HW220940   9.251   6.847   8.684  0.6104 -1.1994 -1.9216
 4609SOL     OW20941  11.191  10.948   1.658  0.1489 -0.2863  0.3636
 4609SOL    HW120942  11.272  10.897   1.655 -0.6254 -1.5787  0.5585
 4609SOL    HW220943  11.125  10.885   1.688 -1.3442  0.1502 -1.7610
 4610SOL     OW20944   9.339  11.070   5.595 -0.3522  0.3019  0.7529
 4610SOL    HW120945   9.245  11.056   5.583 -0.5862  0.2386  2.3956
 4610SOL    HW220946   9.375  11.070   5.506 -1.9558  0.7979  0.0676
 4611SOL     OW20947   7.515   2.718   4.809  0.1790 -0.2072  0.2074
 4611SOL    HW120948   7.560   2.634   4.817  0.3772 -0.1026  0.1958
 4611SOL    HW220949   7.500   2.747   4.899 -1.1505 -0.9189  0.2519
 4612SOL     OW20950   0.844   8.400  11.263  0.0058 -0.5097  0.3597
 4612SOL    HW120951   0.770   8.340  11.271 -0.5627  0.4302  3.8130
 4612SOL    HW220952   0.921   8.345  11.280  0.1414 -1.2955 -2.3152
 4613SOL     OW20953   7.094   1.672   0.940  0.1862  0.4204  0.3939
 4613SOL    HW120954   7.046   1.597   0.905 -1.7499  2.2836 -1.2347
 4613SOL    HW220955   7.100   1.655   1.034  0.3361 -2.0011  0.0152
 4614SOL     OW20956  12.256   5.548  12.454 -0.0949 -0.9631 -0.5719
 4614SOL    HW120957  12.243   5.628  12.505  0.8851 -1.2803  0.2038
 4614SOL    HW220958  12.303   5.577  12.376 -2.8371 -0.2426 -2.0917
 4615SOL     OW20959   3.471   2.197   8.701  0.1106 -0.0733  0.1535
 4615SOL    HW120960   3.539   2.231   8.643  0.1131 -0.5755 -0.1459
 4615SOL    HW220961   3.389   2.230   8.664  0.2055  0.7051  0.6349
 4616SOL     OW20962   3.413  10.959  11.472 -0.7824 -0.6037 -0.6993
 4616SOL    HW120963   3.483  10.898  11.450 -1.9714 -1.0759 -3.7420
 4616SOL    HW220964   3.412  10.962  11.567  3.1502 -0.7532 -0.5036
 4617SOL     OW20965   8.566   5.471   6.522 -0.1608 -0.5101  0.2553
 4617SOL    HW120966   8.532   5.407   6.585 -2.8965  1.6760  1.1905
 4617SOL    HW220967   8.503   5.470   6.450  0.2708  0.4860 -0.1623
 4618SOL     OW20968   7.359   5.861   1.842 -0.0295  0.2961 -0.1805
 4618SOL    HW120969   7.266   5.864   1.864 -0.2876 -1.2515 -0.9119
 4618SOL    HW220970   7.384   5.953   1.831 -1.7563  0.7051 -1.0936
 4619SOL     OW20971   5.791   4.428   4.908  0.3586  0.2564  0.0582
 4619SOL    HW120972   5.764   4.513   4.944 -0.6629  0.8623 -1.9462
 4619SOL    HW220973   5.710   4.392   4.871  0.8744 -1.4175  0.4756
 4620SOL     OW20974   9.449  12.210   7.349 -0.4969  0.4188  0.2463
 4620SOL    HW120975   9.434  12.299   7.380  0.3713  0.2612  1.1788
 4620SOL    HW220976   9.416  12.154   7.420  1.2795  0.0471  0.8369
 4621SOL     OW20977   6.387   8.893   2.831  0.4544  0.2708  0.6818
 4621SOL    HW120978   6.309   8.900   2.777  0.3520  0.6697  0.8812
 4621SOL    HW220979   6.450   8.953   2.792 -0.1706  1.8212  1.9444
 4622SOL     OW20980   6.028   1.149   2.518 -0.4624  0.0150 -0.1546
 4622SOL    HW120981   6.046   1.139   2.612  1.3205 -0.0170 -0.4738
 4622SOL    HW220982   6.033   1.243   2.503 -1.4423  0.0860 -0.1112
 4623SOL     OW20983  12.324   2.239  11.774 -0.1939 -0.3774 -0.6280
 4623SOL    HW120984  12.291   2.329  11.781  0.5437 -0.1229 -0.2849
 4623SOL    HW220985  12.322   2.206  11.864  2.0795  0.2388 -0.3045
 4624SOL     OW20986   3.892   0.454   6.195 -0.3042  0.3073  0.2453
 4624SOL    HW120987   3.822   0.511   6.164 -0.2534 -0.6978 -1.8874
 4624SOL    HW220988   3.972   0.504   6.180 -0.4518  1.0847  1.8228
 4625SOL     OW20989   2.663   0.362  10.904 -0.3035  0.2367  0.0863
 4625SOL    HW120990   2.700   0.446  10.874  0.3433 -1.4458 -4.7504
 4625SOL    HW220991   2.578   0.385  10.942  0.4934  3.1573  0.3340
 4626SOL     OW20992  11.651   9.535   2.428 -0.1197 -0.0759  0.1527
 4626SOL    HW120993  11.611   9.617   2.400 -0.3296 -0.7969 -1.7872
 4626SOL    HW220994  11.597   9.506   2.501  1.9782  3.1564  3.3633
 4627SOL     OW20995   7.211   7.964   4.260 -0.7226 -0.0599 -0.0691
 4627SOL    HW120996   7.180   7.975   4.350 -0.4938  0.4553 -0.0492
 4627SOL    HW220997   7.200   7.871   4.242  1.4706 -0.6421  1.3296
 4628SOL     OW20998   4.265   0.409   0.968  0.0534 -0.4087  0.2696
 4628SOL    HW120999   4.176   0.420   0.934 -0.9927  0.9071  3.1700
 4628SOL    HW221000   4.263   0.326   1.014 -0.0379  0.1388  1.2786
 4629SOL     OW21001  12.641   0.674   6.966  0.7827 -0.1830 -0.1550
 4629SOL    HW121002  12.702   0.606   6.997  1.5442 -0.3079 -1.8101
 4629SOL    HW221003  12.562   0.660   7.017  2.3003  0.3948  2.5676
 4630SOL     OW21004   6.980   4.235   5.153  0.4738 -0.5512 -0.3705
 4630SOL    HW121005   6.885   4.234   5.160  0.4591 -0.6536 -0.5762
 4630SOL    HW221006   7.007   4.148   5.183  0.5370 -0.3562  0.1480
 4631SOL     OW21007  12.598  11.528   7.803  0.2772  0.4871 -0.1884
 4631SOL    HW121008  12.536  11.582   7.852  0.5263  1.4217 -0.8707
 4631SOL    HW221009  12.544  11.481   7.739  0.1220  0.2839  0.0885
 4632SOL     OW21010   5.647  12.896   5.140 -0.2853  0.0468 -0.3899
 4632SOL    HW121011   5.597  12.817   5.158 -0.2877  0.0802 -0.2547
 4632SOL    HW221012   5.668  12.889   5.046  0.7520 -0.7107 -0.1173
 4633SOL     OW21013   5.692   7.174   3.550 -0.4207  0.5864 -0.3325
 4633SOL    HW121014   5.615   7.179   3.493  0.4328 -0.0565 -1.5796
 4633SOL    HW221015   5.765   7.155   3.491  0.2321 -2.0651  1.1757
 4634SOL     OW21016   3.962  12.868   2.509  0.2118  0.3056 -0.1030
 4634SOL    HW121017   3.971  12.898   2.599 -1.5384 -1.4558  0.7477
 4634SOL    HW221018   3.896  12.798   2.513  1.8229 -1.5344 -2.3495
 4635SOL     OW21019   7.161  10.307  10.222 -0.6733  0.4715 -0.0930
 4635SOL    HW121020   7.169  10.336  10.131 -0.9491  0.7010 -0.0458
 4635SOL    HW221021   7.099  10.235  10.219 -0.3902  0.2285 -0.1389
 4636SOL     OW21022   4.921   5.558   0.568 -0.2473  0.3322 -0.1949
 4636SOL    HW121023   4.910   5.605   0.485 -0.4727  0.6404  0.0062
 4636SOL    HW221024   4.941   5.626   0.632 -0.8196  0.1878  0.1474
 4637SOL     OW21025   1.748  10.865  10.087  0.2135  0.3131 -0.6849
 4637SOL    HW121026   1.756  10.941  10.030 -1.2425  1.2026  0.2193
 4637SOL    HW221027   1.817  10.876  10.152 -1.8420  2.6544  1.3151
 4638SOL     OW21028   4.505   7.054   5.686 -0.2256 -0.4315  0.4549
 4638SOL    HW121029   4.555   7.078   5.764 -0.9351 -0.2175  0.8471
 4638SOL    HW221030   4.418   7.033   5.719 -0.1856 -1.5894 -0.1247
 4639SOL     OW21031   9.123   0.528  11.017  0.3489 -0.4508 -0.3806
 4639SOL    HW121032   9.210   0.535  11.057  0.2838  2.3598 -0.5352
 4639SOL    HW221033   9.140   0.524  10.923  0.3325  0.1941 -0.4160
 4640SOL     OW21034   9.812   8.923   1.617  0.5000 -0.1482 -0.6076
 4640SOL    HW121035   9.770   8.889   1.538  1.5663 -0.0499 -1.2407
 4640SOL    HW221036   9.750   8.904   1.687 -1.2878  1.3555 -1.6881
 4641SOL     OW21037   7.798  10.388   0.341  1.0127  0.6865  0.0360
 4641SOL    HW121038   7.795  10.361   0.249  3.2380 -1.0118  0.3941
 4641SOL    HW221039   7.734  10.331   0.384  1.1363  0.3558 -0.2114
 4642SOL     OW21040  11.626  10.844   6.481  0.2306 -0.3300 -0.9926
 4642SOL    HW121041  11.590  10.757   6.463 -0.4865 -0.0727 -0.8449
 4642SOL    HW221042  11.599  10.896   6.406  0.1047 -0.0762 -0.7703
 4643SOL     OW21043   2.322  11.488  12.301 -0.1379  0.4998 -0.5342
 4643SOL    HW121044   2.237  11.525  12.278  0.7181  2.5392 -0.6420
 4643SOL    HW221045   2.385  11.534  12.245  1.2031  0.2756  0.7006
 4644SOL     OW21046  11.349   7.805   1.632 -0.3628 -0.3473 -0.0276
 4644SOL    HW121047  11.293   7.748   1.578 -0.2971 -1.9345  1.4896
 4644SOL    HW221048  11.319   7.791   1.721  0.7725  0.7522  0.5583
 4645SOL     OW21049   5.511   5.399   8.392 -0.3548  0.0263  0.3892
 4645SOL    HW121050   5.510   5.427   8.483 -2.1331  2.1257 -0.1862
 4645SOL    HW221051   5.428   5.355   8.378  0.2152 -0.9487 -0.0569
 4646SOL     OW21052   5.919   9.916   0.080 -0.1604  0.4309  0.5351
 4646SOL    HW121053   5.947   9.895  -0.009 -0.0433  1.2150  0.3849
 4646SOL    HW221054   5.834   9.958   0.069 -1.0771 -1.2283  0.9349
 4647SOL     OW21055   8.267   5.069  12.213 -0.0014  0.0459 -0.0382
 4647SOL    HW121056   8.350   5.070  12.262 -0.9675  0.6461  1.6636
 4647SOL    HW221057   8.233   4.981  12.225 -1.2376  0.7637  2.2274
 4648SOL     OW21058   2.939   5.562  10.832 -0.5484 -0.1155 -0.3182
 4648SOL    HW121059   3.011   5.568  10.770 -1.2417  0.0209 -1.1242
 4648SOL    HW221060   2.964   5.490  10.891  0.5198  0.3361 -0.2002
 4649SOL     OW21061   9.633   6.522   4.843  0.6595  0.2792  0.0518
 4649SOL    HW121062   9.605   6.575   4.769  1.6804  2.1110  0.9157
 4649SOL    HW221063   9.601   6.434   4.822 -0.2270  0.9947 -1.9059
 4650SOL     OW21064   4.390   2.449  10.539  0.2591 -0.2860 -0.5740
 4650SOL    HW121065   4.358   2.507  10.608  0.0462  1.3970 -1.9882
 4650SOL    HW221066   4.354   2.487  10.458  1.5039 -1.4446 -1.7239
 4651SOL     OW21067  10.405   6.298   5.643  0.0787 -0.2186 -0.8968
 4651SOL    HW121068  10.481   6.352   5.621  0.4858 -0.0054  0.8835
 4651SOL    HW221069  10.442   6.226   5.693 -1.0221  0.8109  1.5375
 4652SOL     OW21070   8.471   1.918   1.043 -0.2284  0.2583 -0.2936
 4652SOL    HW121071   8.475   1.940   1.136 -0.4288 -0.3169 -0.1447
 4652SOL    HW221072   8.437   1.829   1.041  0.2652  0.0760 -0.8978
 4653SOL     OW21073   3.366  12.653  10.867 -0.0429  0.1527 -0.8327
 4653SOL    HW121074   3.282  12.652  10.820 -1.6202  2.7033  1.6051
 4653SOL    HW221075   3.418  12.719  10.822 -0.6401  0.9188 -0.4121
 4654SOL     OW21076   0.672   5.960   3.696  0.6412 -0.0155 -0.5905
 4654SOL    HW121077   0.759   5.961   3.736  0.6838 -1.0526 -0.6292
 4654SOL    HW221078   0.683   6.009   3.614  1.0862  0.2244 -0.3885
 4655SOL     OW21079   3.532   1.829   0.052 -0.0222  0.1369  0.1549
 4655SOL    HW121080   3.608   1.886   0.040  0.9462 -1.3901 -1.4053
 4655SOL    HW221081   3.516   1.830   0.147  3.1576 -0.9493  0.8131
 4656SOL     OW21082  10.037   2.156   8.195  0.2349  0.3707  0.3236
 4656SOL    HW121083  10.063   2.110   8.115  0.9925 -0.0455  0.8051
 4656SOL    HW221084  10.087   2.238   8.192  1.7163 -0.4549  1.2786
 4657SOL     OW21085   4.133   1.775   6.210  0.1155 -0.4824  0.1329
 4657SOL    HW121086   4.047   1.788   6.169  0.0896 -1.2404 -0.0765
 4657SOL    HW221087   4.157   1.861   6.243 -0.8295 -0.2950  0.3864
 4658SOL     OW21088   4.101   8.524   2.747 -0.1452 -0.7730  0.2291
 4658SOL    HW121089   4.146   8.545   2.665 -2.5612 -3.0293 -1.8496
 4658SOL    HW221090   4.080   8.609   2.785  3.0790  0.3586 -0.1850
 4659SOL     OW21091  10.440   3.375   6.288 -0.6190 -0.4353  0.3597
 4659SOL    HW121092  10.446   3.296   6.234  0.9754 -0.9940  1.2662
 4659SOL    HW221093  10.347   3.395   6.291 -1.0007 -1.8886 -0.4477
 4660SOL     OW21094  11.420   7.785   8.840 -0.0274 -0.4473 -0.2231
 4660SOL    HW121095  11.439   7.842   8.765  0.5576 -0.6750 -0.2441
 4660SOL    HW221096  11.453   7.699   8.815  1.9317 -0.1215  1.0418
 4661SOL     OW21097   8.578   8.721   3.211  0.0719 -0.3841 -0.0808
 4661SOL    HW121098   8.555   8.731   3.119  0.7952  1.1540 -0.1193
 4661SOL    HW221099   8.507   8.766   3.258 -0.5988 -1.6515  0.1741
 4662SOL     OW21100   5.703  10.891  11.452  0.3114 -0.0619 -0.6089
 4662SOL    HW121101   5.745  10.953  11.513 -0.9729 -0.3098  0.5793
 4662SOL    HW221102   5.663  10.826  11.509  0.0493 -0.9612 -1.7932
 4663SOL     OW21103   3.262   6.472  12.334 -0.1507  0.2691 -0.1707
 4663SOL    HW121104   3.290   6.556  12.300  0.6660 -0.2390 -0.8026
 4663SOL    HW221105   3.172   6.486  12.363 -0.1361  1.2627 -0.5814
 4664SOL     OW21106   3.308   6.350   1.052  0.3018 -0.6015  0.4131
 4664SOL    HW121107   3.316   6.273   1.109 -0.8304 -1.2171 -0.2022
 4664SOL    HW221108   3.385   6.346   0.996 -0.8751 -2.7334 -1.2296
 4665SOL     OW21109  10.864   9.219   6.419  0.0551 -0.5913  0.1097
 4665SOL    HW121110  10.941   9.164   6.433  1.1664  0.8304 -0.1900
 4665SOL    HW221111  10.899   9.307   6.412 -1.6321  0.1065  0.0700
 4666SOL     OW21112  11.067  11.680   2.435 -0.5219  0.0165  0.0967
 4666SOL    HW121113  11.121  11.624   2.379 -1.9864 -1.3566 -0.0260
 4666SOL    HW221114  11.083  11.648   2.524  0.8724  1.3879  0.3631
 4667SOL     OW21115  10.793   6.474   4.606 -0.1386  0.2267 -0.5522
 4667SOL    HW121116  10.699   6.467   4.588 -0.7440  2.1121  1.4651
 4667SOL    HW221117  10.798   6.501   4.698  2.3970  0.0642 -0.5801
 4668SOL     OW21118  11.479   1.524   1.079 -0.3329  0.4345 -0.1025
 4668SOL    HW121119  11.482   1.469   1.001  0.5483  1.1937 -0.6206
 4668SOL    HW221120  11.448   1.465   1.148  1.2586 -0.9287 -0.4847
 4669SOL     OW21121   9.759  10.425   9.960 -0.6233  0.0798  0.4658
 4669SOL    HW121122   9.779  10.381  10.043 -1.3933  1.3935  1.3766
 4669SOL    HW221123   9.755  10.518   9.982 -2.6304  0.3092 -0.6748
 4670SOL     OW21124  10.980  10.701   5.796 -0.3263  0.0887  0.3648
 4670SOL    HW121125  10.908  10.656   5.751  0.2706  0.4468 -0.9875
 4670SOL    HW221126  11.028  10.744   5.726  1.3274 -0.3090  1.2232
 4671SOL     OW21127   8.549   0.172   6.235  0.4263 -0.1908  0.2187
 4671SOL    HW121128   8.472   0.225   6.210 -1.1076 -1.1083  2.6390
 4671SOL    HW221129   8.537   0.089   6.189 -0.2477 -0.4406  0.8193
 4672SOL     OW21130   4.772  12.030  11.397 -0.4386  0.1667  0.6526
 4672SOL    HW121131   4.844  12.091  11.411  0.0760 -0.1628 -0.5123
 4672SOL    HW221132   4.775  11.972  11.474  0.2475  0.4297  0.8295
 4673SOL     OW21133   7.310  11.079   6.690  0.4874  0.1733  0.9874
 4673SOL    HW121134   7.396  11.046   6.716  1.6831  1.2851 -1.2082
 4673SOL    HW221135   7.281  11.132   6.764  2.2832  0.7573  1.3382
 4674SOL     OW21136  10.954   4.231   2.877  0.5676  0.2859  0.1137
 4674SOL    HW121137  10.979   4.283   2.801 -0.5212  1.2548  0.3969
 4674SOL    HW221138  10.975   4.287   2.952  0.7426 -0.2820  0.4990
 4675SOL     OW21139  11.616  12.348   4.508  0.7188 -0.5254 -0.6021
 4675SOL    HW121140  11.705  12.384   4.517  0.8969 -0.7272 -1.4484
 4675SOL    HW221141  11.587  12.378   4.422 -1.7184  3.1289  1.2623
 4676SOL     OW21142   0.182  10.070   2.699  0.0587 -0.4697 -0.1015
 4676SOL    HW121143   0.235  10.002   2.739 -0.1210 -0.5517 -0.0024
 4676SOL    HW221144   0.110  10.023   2.658  0.4563 -0.4257 -0.8755
 4677SOL     OW21145  10.038   2.591   3.727  0.0414 -0.8843 -0.8307
 4677SOL    HW121146  10.114   2.582   3.670  0.1183 -0.1682 -0.8510
 4677SOL    HW221147   9.994   2.670   3.696  0.0363 -0.5339  0.0406
 4678SOL     OW21148   5.174   2.943  11.973  0.1782  0.2659  0.0060
 4678SOL    HW121149   5.108   2.888  12.015  0.0056  0.6282  0.2203
 4678SOL    HW221150   5.194   3.010  12.039  0.5492  0.3266 -0.1646
 4679SOL     OW21151   1.479   9.058  10.550 -0.8153 -0.2826  0.2871
 4679SOL    HW121152   1.544   9.017  10.494  0.1567 -0.1309  1.2849
 4679SOL    HW221153   1.413   8.990  10.564 -0.9461 -0.4038 -0.8136
 4680SOL     OW21154   2.681  11.956   0.877  0.8754  0.5595  0.1708
 4680SOL    HW121155   2.740  11.960   0.802  0.6740  0.0757 -0.0180
 4680SOL    HW221156   2.593  11.949   0.838  0.8046 -0.1524  0.4444
 4681SOL     OW21157   7.170  12.690  10.294 -0.5339 -0.7732  0.1911
 4681SOL    HW121158   7.080  12.710  10.319 -1.1486 -1.4014 -1.3417
 4681SOL    HW221159   7.215  12.774  10.292 -1.3139 -0.3536  0.1774
 4682SOL     OW21160   3.232   8.510   3.977  0.2393  0.0538  0.2500
 4682SOL    HW121161   3.170   8.581   3.962  0.8306  0.3091 -1.0904
 4682SOL    HW221162   3.305   8.551   4.022 -0.1153 -0.0533  0.9461
 4683SOL     OW21163   6.014   5.453   4.420  0.0006  0.3142  0.4127
 4683SOL    HW121164   6.019   5.545   4.447  0.0498  0.3173  0.3940
 4683SOL    HW221165   6.052   5.405   4.494  0.9972  0.3948 -0.0271
 4684SOL     OW21166   4.763   3.168   0.858  0.3555  0.4111  0.0870
 4684SOL    HW121167   4.682   3.137   0.816  0.8909  0.5098 -1.0501
 4684SOL    HW221168   4.743   3.167   0.951 -0.1461 -1.9347  0.0101
 4685SOL     OW21169   2.345   2.453   6.124 -0.6640  0.2805  0.0519
 4685SOL    HW121170   2.328   2.360   6.109  0.7728 -0.0397  0.2414
 4685SOL    HW221171   2.259   2.495   6.120 -1.4046 -1.1449  0.6127
 4686SOL     OW21172   4.503   6.984   7.810 -0.4887  0.4941  0.0533
 4686SOL    HW121173   4.443   7.058   7.814 -0.5362  0.4161  0.8976
 4686SOL    HW221174   4.569   7.010   7.745  0.6550  2.1593  1.7875
 4687SOL     OW21175   3.379  11.794   3.766  0.1216 -0.5761  0.6751
 4687SOL    HW121176   3.457  11.776   3.714  0.1540 -1.2636  0.9558
 4687SOL    HW221177   3.316  11.830   3.703  1.5210  2.5641  0.8975
 4688SOL     OW21178   3.129   9.826   3.445 -0.2927  0.4316  0.4749
 4688SOL    HW121179   3.192   9.872   3.390 -0.9139  1.8298  0.8989
 4688SOL    HW221180   3.050   9.879   3.440 -1.8555 -1.8281 -0.9237
 4689SOL     OW21181  10.505   5.256  10.083  0.7914  0.8387  0.1424
 4689SOL    HW121182  10.519   5.312  10.007  0.0544 -1.8066 -2.1125
 4689SOL    HW221183  10.446   5.305  10.139 -1.3719  1.6285 -2.6251
 4690SOL     OW21184   3.117   0.381  10.088  0.1117  1.0077  0.2952
 4690SOL    HW121185   3.183   0.433  10.042  1.7369 -1.8320 -0.8397
 4690SOL    HW221186   3.165   0.340  10.160 -0.8675  0.2827  0.5461
 4691SOL     OW21187   7.219   8.210   4.127 -0.2204  0.0810  0.2151
 4691SOL    HW121188   7.196   8.135   4.183  0.1284 -0.9069 -0.9345
 4691SOL    HW221189   7.300   8.184   4.083  0.5399  1.6060  0.6252
 4692SOL     OW21190   4.189  10.460   7.990 -0.3883  0.7410  0.0081
 4692SOL    HW121191   4.241  10.409   7.929 -0.9510  3.0647 -2.6343
 4692SOL    HW221192   4.229  10.443   8.076  2.3140 -0.4629 -1.3620
 4693SOL     OW21193   8.833   0.398   2.984  0.0420  0.2224  0.1169
 4693SOL    HW121194   8.814   0.306   2.968  1.1027 -0.0735  0.5096
 4693SOL    HW221195   8.899   0.421   2.919 -0.5135  0.8329 -0.2513
 4694SOL     OW21196   8.264   2.257   7.988  0.1524  0.0793 -0.3681
 4694SOL    HW121197   8.220   2.221   7.910  1.4379 -0.5372 -0.8409
 4694SOL    HW221198   8.217   2.219   8.062 -1.8002  1.5252 -0.7777
 4695SOL     OW21199  11.703  10.657   7.944  0.0098 -0.7015 -0.0289
 4695SOL    HW121200  11.718  10.703   8.026  0.3433  1.9296 -1.4484
 4695SOL    HW221201  11.790  10.650   7.904 -0.3608 -0.3901 -0.9148
 4696SOL     OW21202  12.163   6.495   8.157  0.1535 -0.2454 -0.0435
 4696SOL    HW121203  12.116   6.544   8.090  0.1599  0.4084  0.4287
 4696SOL    HW221204  12.125   6.523   8.240  2.2039  1.2899  0.4660
 4697SOL     OW21205  11.041   1.103   4.387 -0.1708  0.4657 -0.0048
 4697SOL    HW121206  10.966   1.107   4.446 -0.3682 -0.5966 -0.1750
 4697SOL    HW221207  11.003   1.091   4.300  0.1980 -3.5019  0.2279
 4698SOL     OW21208   8.078   6.184   0.262 -0.1856 -0.7043  0.0647
 4698SOL    HW121209   8.049   6.273   0.282 -2.5498 -1.1934 -0.8984
 4698SOL    HW221210   8.160   6.196   0.214  0.2812  0.8526  1.1593
 4699SOL     OW21211  11.164   1.549   5.385  0.2563 -0.0815 -0.0944
 4699SOL    HW121212  11.155   1.644   5.376  0.9045 -0.1454 -1.6460
 4699SOL    HW221213  11.117   1.528   5.466 -1.6123  1.3167 -0.7485
 4700SOL     OW21214   6.938   6.412   0.184 -0.3630  0.0814 -0.9189
 4700SOL    HW121215   6.942   6.442   0.275 -2.1596  1.0247 -1.1073
 4700SOL    HW221216   6.845   6.419   0.160 -0.4433 -2.9172 -1.9336
 4701SOL     OW21217   5.146   7.712   3.401 -0.2589 -0.3340 -0.3874
 4701SOL    HW121218   5.093   7.780   3.442 -0.8694 -0.2501 -1.2698
 4701SOL    HW221219   5.084   7.642   3.381 -0.3372  0.2486 -2.5138
 4702SOL     OW21220   9.716  11.983  12.502 -0.1728  0.0096  0.1217
 4702SOL    HW121221   9.623  11.965  12.507 -0.5922  2.0556  0.6257
 4702SOL    HW221222   9.753  11.946  12.583 -1.3545  3.1311  2.2695
 4703SOL     OW21223   0.054   8.968  10.819  0.6806  1.0203 -0.3583
 4703SOL    HW121224   0.080   8.920  10.897  1.7623  0.8062 -0.8235
 4703SOL    HW221225  -0.041   8.977  10.825  0.6218 -0.0488  0.3725
 4704SOL     OW21226  10.046   4.436   2.221  0.8520  0.4177 -0.3707
 4704SOL    HW121227   9.972   4.402   2.171  1.5562  1.2449 -2.0630
 4704SOL    HW221228  10.070   4.364   2.280 -1.5231  0.2757  0.5595
 4705SOL     OW21229   9.870   5.554   8.523 -0.1055  0.1566 -0.0177
 4705SOL    HW121230   9.872   5.552   8.427 -1.0117  1.0297 -0.0724
 4705SOL    HW221231   9.873   5.647   8.545  1.1124 -0.0575  0.8582
 4706SOL     OW21232  11.350   1.170   0.308  0.0791  0.0983 -0.3553
 4706SOL    HW121233  11.315   1.251   0.271  1.1425 -0.0351 -1.7491
 4706SOL    HW221234  11.329   1.175   0.401  0.0143  1.9251 -0.4315
 4707SOL     OW21235   1.474  12.670   1.946 -0.1666  0.7877 -0.0200
 4707SOL    HW121236   1.381  12.675   1.967  0.0259  1.6438  0.6599
 4707SOL    HW221237   1.518  12.716   2.017  0.8020  0.2062 -0.2162
 4708SOL     OW21238   6.509   3.781   9.983 -0.2100  0.0917 -0.1123
 4708SOL    HW121239   6.497   3.693   9.946 -0.3200  0.5883 -1.2999
 4708SOL    HW221240   6.603   3.789   9.996 -0.2501 -0.3974  0.5065
 4709SOL     OW21241   0.358   8.803  11.001  0.0346 -0.4704  0.2839
 4709SOL    HW121242   0.272   8.798  11.043  0.0785  1.3009  0.6646
 4709SOL    HW221243   0.421   8.801  11.073  0.2180  0.1712  0.1468
 4710SOL     OW21244   3.299  11.682  12.436 -1.0313 -0.6545  0.3199
 4710SOL    HW121245   3.368  11.682  12.370 -1.8599 -0.2872 -0.5717
 4710SOL    HW221246   3.323  11.611  12.496  1.2105  0.7423  1.2198
 4711SOL     OW21247   5.154  11.221  11.813  0.2102  0.6537  0.1492
 4711SOL    HW121248   5.100  11.197  11.889 -0.3947  3.3911  0.7069
 4711SOL    HW221249   5.112  11.300  11.778  2.1029  1.0930 -1.3160
 4712SOL     OW21250   3.962   6.060   6.305 -0.1112 -0.1244  0.6255
 4712SOL    HW121251   4.019   5.992   6.270 -1.7644  0.0264 -2.7566
 4712SOL    HW221252   4.012   6.098   6.378  2.8012 -1.8703 -0.2886
 4713SOL     OW21253  10.307   0.252  12.469 -0.2967  0.1258 -0.4571
 4713SOL    HW121254  10.247   0.180  12.488 -0.1954 -0.5452 -2.4331
 4713SOL    HW221255  10.252   0.330  12.471 -1.2865 -0.4643 -2.1447
 4714SOL     OW21256   0.003   1.793   4.760  0.4210 -0.1788 -0.1929
 4714SOL    HW121257   0.088   1.755   4.737  0.5040 -0.4140  0.4594
 4714SOL    HW221258  -0.014   1.760   4.849 -1.4060 -1.9878 -1.1482
 4715SOL     OW21259  12.610  12.116   6.500  0.3184 -0.0789  0.3169
 4715SOL    HW121260  12.626  12.146   6.410  0.9989 -0.5143  0.2847
 4715SOL    HW221261  12.694  12.080   6.528 -0.1014 -0.6593  0.8519
 4716SOL     OW21262   4.951   5.156  11.596 -0.0093 -0.2809  0.4208
 4716SOL    HW121263   4.877   5.097  11.610 -1.3243  0.5768 -2.2637
 4716SOL    HW221264   4.947   5.178  11.503  0.2673  4.1182  1.2362
 4717SOL     OW21265  11.645   1.838  10.923 -0.4070  0.5873  0.1480
 4717SOL    HW121266  11.567   1.888  10.899 -1.1076 -0.9489 -0.9824
 4717SOL    HW221267  11.706   1.903  10.957 -1.8552  1.9579  0.2596
 4718SOL     OW21268   1.317   5.225  11.874  0.4707 -0.2399 -0.0445
 4718SOL    HW121269   1.324   5.317  11.851  2.2961 -0.4114 -0.3813
 4718SOL    HW221270   1.334   5.178  11.792 -1.1510 -0.8983 -0.0319
 4719SOL     OW21271  11.024   7.716   4.211  0.3178 -0.0392  0.6210
 4719SOL    HW121272  11.108   7.757   4.188  1.0573 -0.7715  1.9161
 4719SOL    HW221273  10.962   7.751   4.147  1.3299  1.5427  0.4606
 4720SOL     OW21274   0.408   3.867  12.461 -0.1435 -0.8149 -0.3576
 4720SOL    HW121275   0.494   3.896  12.433 -0.3082 -0.8729 -0.9477
 4720SOL    HW221276   0.400   3.778  12.425 -0.9747 -0.3135 -1.5049
 4721SOL     OW21277   3.313   8.754   7.560  0.5088  0.3676 -0.2586
 4721SOL    HW121278   3.283   8.839   7.593 -0.6596 -0.2579  0.3373
 4721SOL    HW221279   3.262   8.740   7.481  1.4561  0.6784 -0.9468
 4722SOL     OW21280   1.307   5.486   3.177 -0.2163  0.2489  0.1741
 4722SOL    HW121281   1.353   5.531   3.248 -0.1078  0.0266  0.2460
 4722SOL    HW221282   1.361   5.409   3.159 -0.0888  0.4582 -0.3450
 4723SOL     OW21283  10.411   4.178   0.151  0.2719  0.2024 -0.6790
 4723SOL    HW121284  10.469   4.247   0.118 -0.2198  0.7528 -0.4171
 4723SOL    HW221285  10.427   4.103   0.094  2.0862 -0.0376  0.0922
 4724SOL     OW21286   6.317  11.130   2.583 -0.1697  0.0198  0.1304
 4724SOL    HW121287   6.333  11.093   2.496 -0.8464  1.9967 -0.9059
 4724SOL    HW221288   6.404  11.135   2.623 -0.0241 -2.3796  0.2619
 4725SOL     OW21289  12.444   0.025   8.493  0.6972  0.2807  0.0710
 4725SOL    HW121290  12.380  -0.045   8.506 -0.1892  1.1358  0.3915
 4725SOL    HW221291  12.392   0.105   8.484  1.7661  1.5214  3.4638
 4726SOL     OW21292   0.628   7.322   2.920 -0.0685  0.3758 -0.1381
 4726SOL    HW121293   0.659   7.379   2.850  1.9815 -0.9225 -0.3883
 4726SOL    HW221294   0.647   7.370   3.001 -0.4758  0.9875 -0.4017
 4727SOL     OW21295   7.796   6.416   5.171  0.2030 -0.1255  0.1748
 4727SOL    HW121296   7.816   6.342   5.228  0.8226 -0.0636  0.0452
 4727SOL    HW221297   7.871   6.474   5.180 -0.1445  0.3516  0.0475
 4728SOL     OW21298  11.196  10.953  12.827  0.3960  0.3081  0.5370
 4728SOL    HW121299  11.219  11.043  12.849  1.2595  0.3627 -0.4985
 4728SOL    HW221300  11.134  10.961  12.754  1.2284  0.0698 -0.2199
 4729SOL     OW21301   9.629   3.256   6.772  0.7418 -0.4339 -0.0002
 4729SOL    HW121302   9.626   3.264   6.867  0.4969 -2.7717  0.2480
 4729SOL    HW221303   9.722   3.247   6.751  0.7330 -0.8579  0.1314
 4730SOL     OW21304   2.358   2.343   7.155  0.0256 -0.1917  0.3166
 4730SOL    HW121305   2.336   2.417   7.098  0.0834 -0.9006 -0.6614
 4730SOL    HW221306   2.447   2.361   7.185 -0.2751  0.5540  0.7935
 4731SOL     OW21307   1.423   8.136   1.361  0.2389 -1.1912 -0.5233
 4731SOL    HW121308   1.378   8.145   1.445 -0.1177 -3.3065 -0.4193
 4731SOL    HW221309   1.426   8.224   1.325 -1.2757 -0.5236  0.8649
 4732SOL     OW21310   9.104  10.050   5.721 -0.5170 -0.1032 -0.4447
 4732SOL    HW121311   9.149  10.134   5.725  0.0844 -0.4710  2.8965
 4732SOL    HW221312   9.030  10.066   5.661  0.3044  2.3812 -0.9311
 4733SOL     OW21313   2.553   4.961  12.315 -0.2328 -0.0324  0.4692
 4733SOL    HW121314   2.571   4.941  12.224  1.3677 -1.1814  0.9954
 4733SOL    HW221315   2.520   5.051  12.314 -1.7217 -0.5346 -1.3684
 4734SOL     OW21316   8.702  10.965  11.689 -0.0533  0.8855 -0.2780
 4734SOL    HW121317   8.714  10.885  11.740 -1.8468 -0.1347 -1.3672
 4734SOL    HW221318   8.789  11.004  11.685  0.5874 -0.2286  1.5124
 4735SOL     OW21319   3.996   4.430   7.256 -0.4032  0.2870 -0.3293
 4735SOL    HW121320   4.029   4.501   7.201  0.3743 -1.0986 -1.7575
 4735SOL    HW221321   3.981   4.358   7.194  0.1933 -1.2460  1.2266
 4736SOL     OW21322   0.587  11.200   4.822 -0.0833  0.0581  0.2440
 4736SOL    HW121323   0.648  11.204   4.748 -0.7292 -0.9743 -0.3753
 4736SOL    HW221324   0.584  11.108   4.845 -0.1789  0.3227  1.3339
 4737SOL     OW21325   2.894   2.367   7.910 -0.0909  0.1834 -0.2861
 4737SOL    HW121326   2.842   2.412   7.844 -0.8600 -0.2312  0.0226
 4737SOL    HW221327   2.891   2.425   7.986 -1.0090 -0.3157  0.0825
 4738SOL     OW21328   1.493   1.696   7.983 -0.1005  0.6298 -0.3672
 4738SOL    HW121329   1.485   1.778   7.933  1.3509 -0.2620 -2.2119
 4738SOL    HW221330   1.533   1.635   7.921  2.2446 -0.4616  2.0434
 4739SOL     OW21331   6.248   2.035   9.123  1.0204 -0.4572 -0.4530
 4739SOL    HW121332   6.165   2.074   9.094  0.7093 -0.8301 -0.0772
 4739SOL    HW221333   6.306   2.043   9.047  0.7150  0.0234 -0.6411
 4740SOL     OW21334   8.588   9.314   1.863 -0.0132 -0.3696 -0.4540
 4740SOL    HW121335   8.643   9.389   1.840  0.6838 -0.8192 -0.2709
 4740SOL    HW221336   8.562   9.330   1.953  1.8914 -1.3663  0.3310
 4741SOL     OW21337   3.997   1.927   1.127  0.0658  0.2951  0.1887
 4741SOL    HW121338   4.074   1.981   1.110  0.5224 -0.8207 -1.4597
 4741SOL    HW221339   4.004   1.905   1.220  0.4920  2.0566  0.6182
 4742SOL     OW21340  11.508   7.871  11.090 -0.2021 -0.4245 -0.5128
 4742SOL    HW121341  11.489   7.781  11.115 -1.6341  0.6030  2.5413
 4742SOL    HW221342  11.447   7.889  11.018 -1.2984 -1.3000  0.1681
 4743SOL     OW21343   4.127   2.177   1.167 -0.4092 -0.3262  0.3133
 4743SOL    HW121344   4.130   2.218   1.080 -0.0333  1.9091  1.3173
 4743SOL    HW221345   4.042   2.202   1.202 -0.1342 -0.3426  0.9973
 4744SOL     OW21346   0.203   0.914   8.133  0.2550 -0.0737 -0.0339
 4744SOL    HW121347   0.135   0.909   8.200 -0.0448  0.3067 -0.3123
 4744SOL    HW221348   0.234   1.004   8.136  0.5178 -0.1574 -0.1395
 4745SOL     OW21349   8.385   7.374   7.190 -0.1789 -0.0682  0.3049
 4745SOL    HW121350   8.463   7.339   7.147  2.9866  0.8913  4.5359
 4745SOL    HW221351   8.387   7.468   7.170  0.9547  0.2745  1.7956
 4746SOL     OW21352   4.064   4.247   5.933 -0.2363  0.0619 -0.2811
 4746SOL    HW121353   4.108   4.163   5.942 -0.8233 -0.5236 -2.3666
 4746SOL    HW221354   4.086   4.294   6.013 -0.3142 -2.2436  1.1800
 4747SOL     OW21355   1.826  12.047   8.258  0.2771 -0.1109  0.2773
 4747SOL    HW121356   1.758  11.983   8.281 -0.3326  0.6877  0.7689
 4747SOL    HW221357   1.894  12.034   8.324 -1.8437  2.7550  3.3173
 4748SOL     OW21358   9.003   5.048   7.197 -0.1527 -0.1588  0.0374
 4748SOL    HW121359   8.949   5.035   7.119  0.1927 -0.2497 -0.1881
 4748SOL    HW221360   9.066   5.116   7.172 -0.4668  0.2908  0.4562
 4749SOL     OW21361   0.553   2.950   0.400  0.0829 -0.0353  0.4316
 4749SOL    HW121362   0.580   2.885   0.335  0.3307  0.3764  0.1144
 4749SOL    HW221363   0.622   3.016   0.397  0.1856 -0.1023  1.2507
 4750SOL     OW21364   5.796   7.901   8.947 -0.1761 -0.5021  0.2053
 4750SOL    HW121365   5.886   7.868   8.950  0.1521 -0.1118 -2.7074
 4750SOL    HW221366   5.753   7.848   8.880 -1.0259  1.7319 -1.1224
 4751SOL     OW21367   3.481   3.222   1.516 -0.0043 -0.0187  0.2867
 4751SOL    HW121368   3.489   3.312   1.484 -0.0369  0.1914  0.8634
 4751SOL    HW221369   3.571   3.189   1.518  0.0496  0.1428  0.4866
 4752SOL     OW21370  11.099   7.272   2.414  0.1257 -0.6337 -0.2391
 4752SOL    HW121371  11.183   7.229   2.430  0.2674 -0.6781 -1.0712
 4752SOL    HW221372  11.093   7.339   2.483  0.4027 -1.2503  0.3961
 4753SOL     OW21373   8.500   0.322   9.222 -0.1359  0.0067 -0.6010
 4753SOL    HW121374   8.589   0.348   9.246 -0.3087  1.6503 -1.6058
 4753SOL    HW221375   8.447   0.342   9.299  0.1208  0.4693 -0.5473
 4754SOL     OW21376   1.391  11.650   0.985 -0.4583 -0.0719 -0.5827
 4754SOL    HW121377   1.379  11.675   0.894  0.3860 -1.8420 -1.2272
 4754SOL    HW221378   1.307  11.671   1.027 -1.1049  0.1229 -1.9243
 4755SOL     OW21379  10.022  11.161  11.943  0.0219  0.4968 -0.1916
 4755SOL    HW121380   9.947  11.110  11.915 -0.2469  1.1012 -0.6056
 4755SOL    HW221381  10.094  11.098  11.950 -1.0270 -0.5305  2.4848
 4756SOL     OW21382  12.118   6.792   8.227 -0.0331 -0.2301  0.0529
 4756SOL    HW121383  12.047   6.813   8.167 -0.5731 -2.6612 -0.2423
 4756SOL    HW221384  12.197   6.792   8.173 -0.5007 -2.2970 -0.7169
 4757SOL     OW21385   2.907  12.438  11.444  0.1038 -0.1166 -0.6052
 4757SOL    HW121386   2.833  12.447  11.384 -0.1703 -0.4201 -0.3168
 4757SOL    HW221387   2.867  12.434  11.531  0.5649  1.5864 -0.2711
 4758SOL     OW21388   6.183   1.589   9.213 -0.4251 -0.1858  0.3089
 4758SOL    HW121389   6.178   1.532   9.290 -0.7488  0.3182  0.6598
 4758SOL    HW221390   6.198   1.676   9.248  1.6523 -0.2474 -0.2931
 4759SOL     OW21391   8.924  11.252   7.326 -0.6467 -0.0146  0.9375
 4759SOL    HW121392   8.879  11.334   7.309  0.6619  0.6848  0.7195
 4759SOL    HW221393   8.940  11.215   7.239 -0.1582  0.1073  0.9736
 4760SOL     OW21394   3.273   5.687  11.361  0.2351  0.2868 -0.1779
 4760SOL    HW121395   3.190   5.693  11.407  0.1904 -0.4985 -0.1514
 4760SOL    HW221396   3.257   5.726  11.275  0.3955  2.0491  0.5428
 4761SOL     OW21397   5.467   1.734   9.931  0.0342  0.4896  0.1298
 4761SOL    HW121398   5.548   1.686   9.914  0.9500  1.6914  0.9113
 4761SOL    HW221399   5.406   1.668   9.962  0.2392 -0.6919 -1.8193
 4762SOL     OW21400   5.937  10.969   5.873 -0.3675 -0.0748 -0.4917
 4762SOL    HW121401   6.003  10.968   5.804 -1.6530 -1.9715 -1.7807
 4762SOL    HW221402   5.924  11.062   5.894  1.7721  0.3977 -1.0597
 4763SOL     OW21403  11.668   3.520   4.399  0.1301 -0.0438 -0.0370
 4763SOL    HW121404  11.730   3.521   4.326  0.8304 -0.9160  0.5270
 4763SOL    HW221405  11.707   3.460   4.462 -0.3425  0.8734  1.1586
 4764SOL     OW21406  11.867   7.115  12.390  0.0351  0.7431 -0.1943
 4764SOL    HW121407  11.927   7.070  12.450 -0.1531 -0.2106 -0.7013
 4764SOL    HW221408  11.903   7.098  12.303 -0.9505  0.1843 -0.5035
 4765SOL     OW21409   9.641  11.585   6.564 -0.6669  0.1628 -0.9023
 4765SOL    HW121410   9.696  11.652   6.524 -1.0118 -0.3504 -2.3002
 4765SOL    HW221411   9.620  11.620   6.650  0.8817  0.8925 -0.7831
 4766SOL     OW21412   1.350  11.168  10.018 -0.0797 -0.1096 -0.0982
 4766SOL    HW121413   1.299  11.141   9.943  2.2806 -2.3125 -1.0811
 4766SOL    HW221414   1.420  11.103  10.024  1.4853  1.6053  2.2839
 4767SOL     OW21415   8.763   3.306  10.995  0.5070  0.5604 -0.2228
 4767SOL    HW121416   8.825   3.329  11.064  0.1294  0.7831  0.0449
 4767SOL    HW221417   8.680   3.344  11.023  0.1604 -0.0422 -0.3941
 4768SOL     OW21418   6.056   1.653   5.579 -0.2334  0.0535  0.8750
 4768SOL    HW121419   5.964   1.668   5.598 -1.0471 -2.4793 -0.4764
 4768SOL    HW221420   6.068   1.559   5.595  1.3854 -0.2382 -1.4845
 4769SOL     OW21421   0.459   9.305   4.084  0.1967  0.0706 -0.9158
 4769SOL    HW121422   0.476   9.211   4.076 -0.8553 -0.3707  1.1947
 4769SOL    HW221423   0.401   9.312   4.160  1.7992  2.5906  0.2016
 4770SOL     OW21424   9.186   7.526  11.274 -0.2678 -0.0776 -0.2834
 4770SOL    HW121425   9.272   7.531  11.316 -0.6240  1.0612  0.3579
 4770SOL    HW221426   9.142   7.454  11.318  0.1958 -0.3661 -0.2896
 4771SOL     OW21427   9.953   1.491  10.538  0.5671 -0.2368 -0.9101
 4771SOL    HW121428   9.981   1.497  10.629  1.4751  1.3422 -1.2621
 4771SOL    HW221429   9.992   1.410  10.506  1.0749 -0.2897 -0.1695
 4772SOL     OW21430   3.129   2.135   2.506  0.3866 -0.3414 -0.2582
 4772SOL    HW121431   3.039   2.133   2.472 -0.1292  0.4900  1.0120
 4772SOL    HW221432   3.119   2.135   2.601  1.7388 -0.1701 -0.1013
 4773SOL     OW21433   5.267   1.669   0.361  0.4190 -0.2532  0.0204
 4773SOL    HW121434   5.250   1.761   0.343  0.0983 -0.4326 -0.6217
 4773SOL    HW221435   5.215   1.649   0.439 -0.2390 -0.1236 -0.3780
 4774SOL     OW21436   1.450   3.471   5.936  0.3163  0.0795 -0.0185
 4774SOL    HW121437   1.458   3.533   5.863 -0.5200  0.3138  0.0880
 4774SOL    HW221438   1.395   3.401   5.901  2.3670 -1.3405 -0.6130
 4775SOL     OW21439  10.251   2.097   9.462 -0.6120 -0.1026  0.3489
 4775SOL    HW121440  10.193   2.085   9.388  0.0952 -1.2830 -0.0506
 4775SOL    HW221441  10.214   2.043   9.531 -1.2198  0.9227  0.8449
 4776SOL     OW21442   4.239   7.639  10.797 -0.1660 -0.0807  0.5600
 4776SOL    HW121443   4.303   7.568  10.802 -1.0253 -0.9429 -0.2044
 4776SOL    HW221444   4.154   7.595  10.795 -0.6622  0.8110 -2.1842
 4777SOL     OW21445   5.702   3.212   5.267 -0.5109  0.2482 -0.7101
 4777SOL    HW121446   5.792   3.230   5.239 -0.8469  0.8916 -1.4114
 4777SOL    HW221447   5.648   3.268   5.211 -1.3845 -0.4965 -0.6308
 4778SOL     OW21448  12.515   3.344   7.991 -0.1141  0.6190  0.4161
 4778SOL    HW121449  12.509   3.289   7.912 -0.6290  2.2344 -0.7333
 4778SOL    HW221450  12.607   3.340   8.016  0.2277  0.6727 -0.7436
 4779SOL     OW21451   0.258   3.578   2.553 -0.2100  0.1018  0.3765
 4779SOL    HW121452   0.291   3.498   2.594  0.3086 -0.3783 -0.9291
 4779SOL    HW221453   0.283   3.648   2.614  0.9143 -0.5399  0.6795
 4780SOL     OW21454   8.534   9.071   7.499 -0.5042  0.1939 -0.2299
 4780SOL    HW121455   8.603   9.104   7.441  1.4610 -0.7978  1.4364
 4780SOL    HW221456   8.523   9.140   7.565 -1.9614  0.8407 -1.1031
 4781SOL     OW21457   5.254   4.379  12.082  0.1254 -0.1648 -0.5638
 4781SOL    HW121458   5.227   4.296  12.121 -0.0890  0.2695  0.2352
 4781SOL    HW221459   5.176   4.434  12.087  0.5332  0.3900 -0.2266
 4782SOL     OW21460   7.900   5.631   9.846  0.2676  0.3090 -0.5099
 4782SOL    HW121461   7.842   5.665   9.778 -1.0873  0.1794  0.5326
 4782SOL    HW221462   7.881   5.537   9.848  1.4110  0.0501 -0.9620
 4783SOL     OW21463   8.081   3.516   4.310 -0.5489  0.2605 -0.0357
 4783SOL    HW121464   8.112   3.509   4.220  0.4953  1.3620  0.2181
 4783SOL    HW221465   8.127   3.592   4.346 -1.3737  0.1845  1.2597
 4784SOL     OW21466  12.596   8.170   6.011 -0.1470 -0.1876  0.4957
 4784SOL    HW121467  12.552   8.225   6.075  2.7547  1.5664  1.1337
 4784SOL    HW221468  12.672   8.135   6.057 -0.2454 -2.3684 -0.8260
 4785SOL     OW21469  12.106   4.738   9.073 -0.1382 -0.0106  0.0889
 4785SOL    HW121470  12.085   4.819   9.120 -0.2613  1.0074 -1.6004
 4785SOL    HW221471  12.022   4.709   9.037 -0.3811 -1.8097  1.9656
 4786SOL     OW21472   0.932   3.315   2.550  0.2927  0.1231  0.0187
 4786SOL    HW121473   0.917   3.393   2.497  2.0943  0.9655  0.6667
 4786SOL    HW221474   0.868   3.322   2.621 -1.1176 -0.2418 -1.1605
 4787SOL     OW21475   8.848   6.277   2.589  0.7507 -0.2531  1.0725
 4787SOL    HW121476   8.880   6.197   2.549  2.2770  0.6427  0.4050
 4787SOL    HW221477   8.898   6.285   2.670  1.8595  0.8643  0.3095
 4788SOL     OW21478   4.702   2.648   4.233  0.4156  0.1057  0.1491
 4788SOL    HW121479   4.726   2.707   4.304 -0.5188 -1.0709  1.4927
 4788SOL    HW221480   4.739   2.563   4.258 -1.5257 -0.7707  0.2360
 4789SOL     OW21481  11.735   5.412   4.618 -0.0816  0.3621 -0.2018
 4789SOL    HW121482  11.692   5.352   4.678 -0.0379  0.7600  0.2387
 4789SOL    HW221483  11.726   5.372   4.532  1.6630 -1.2611  0.3089
 4790SOL     OW21484   0.358   0.693   2.195  0.0516 -0.5538 -0.5748
 4790SOL    HW121485   0.306   0.659   2.122 -0.0304 -0.7068 -0.4461
 4790SOL    HW221486   0.303   0.679   2.272 -0.1684  0.2741 -0.5750
 4791SOL     OW21487   3.858  11.515  11.104 -0.2538  0.2372  0.2911
 4791SOL    HW121488   3.872  11.574  11.030  0.0842 -0.2257 -0.0192
 4791SOL    HW221489   3.934  11.528  11.160 -0.7043  0.8885  0.7758
 4792SOL     OW21490   0.909  11.442  10.444 -0.3557 -0.0587  0.0010
 4792SOL    HW121491   0.905  11.405  10.356 -0.3135 -1.0267  0.3908
 4792SOL    HW221492   0.957  11.524  10.433  0.0438 -0.3845 -0.8177
 4793SOL     OW21493   5.868   5.008   8.296  0.1716  0.3886  0.1957
 4793SOL    HW121494   5.788   4.956   8.303  0.4442  0.1003  1.4027
 4793SOL    HW221495   5.841   5.088   8.251 -0.2942 -0.6937 -1.5487
 4794SOL     OW21496  12.286   8.329  11.571  0.4534  0.2286  0.5674
 4794SOL    HW121497  12.340   8.303  11.646 -1.9495 -1.8251  1.7660
 4794SOL    HW221498  12.206   8.365  11.610 -0.8067 -0.7699 -0.9521
 4795SOL     OW21499  12.938  10.768   7.829 -0.6652 -0.0760 -0.0410
 4795SOL    HW121500  12.921  10.862   7.821 -0.1510 -0.0179 -0.4741
 4795SOL    HW221501  12.899  10.730   7.751 -0.0860 -0.1141 -0.3157
 4796SOL     OW21502  11.428  10.488   5.175 -0.5280  0.3688  0.3906
 4796SOL    HW121503  11.379  10.545   5.235 -0.3343 -0.5290  1.4197
 4796SOL    HW221504  11.517  10.523   5.175 -0.7628  0.9983 -0.2024
 4797SOL     OW21505   8.055  11.478  10.397 -0.4746  0.0014 -0.1683
 4797SOL    HW121506   8.134  11.426  10.409 -2.1159 -3.2533 -2.1500
 4797SOL    HW221507   8.052  11.497  10.304 -0.5447  2.8767  0.3119
 4798SOL     OW21508   2.306   2.843   8.823 -0.0210  0.3719  0.2817
 4798SOL    HW121509   2.249   2.887   8.886  0.9648  0.4931  1.1122
 4798SOL    HW221510   2.385   2.822   8.872 -0.3330 -2.1404 -0.1273
 4799SOL     OW21511   1.920   4.909   4.935 -0.1110 -0.1135 -0.6521
 4799SOL    HW121512   2.014   4.897   4.951 -0.3086 -0.2750  0.4638
 4799SOL    HW221513   1.916   4.977   4.868  0.7910  0.5749 -0.0367
 4800SOL     OW21514  11.647   6.037   4.000 -0.5615  0.0152 -0.3873
 4800SOL    HW121515  11.563   6.069   3.966 -1.7242  0.2865  2.4290
 4800SOL    HW221516  11.642   6.055   4.094  1.4639 -2.6239  0.3260
 4801SOL     OW21517   8.847   9.859   6.881 -0.3793 -0.2362 -0.5221
 4801SOL    HW121518   8.880   9.772   6.854  3.0108  1.3987 -2.3093
 4801SOL    HW221519   8.867   9.864   6.974  0.2977 -1.0229 -0.6068
 4802SOL     OW21520  10.505   0.363   0.945 -0.2328  0.2509  0.1936
 4802SOL    HW121521  10.435   0.299   0.939  0.9062 -0.9292 -1.2811
 4802SOL    HW221522  10.543   0.349   1.031 -0.3973 -0.6239  0.1262
 4803SOL     OW21523   7.858   7.521   9.487  0.0507 -0.1028 -0.7457
 4803SOL    HW121524   7.934   7.484   9.530  0.5504  1.9433  0.2595
 4803SOL    HW221525   7.816   7.447   9.443  1.9409 -1.4766 -0.3347
 4804SOL     OW21526   7.950   5.314   2.812  0.3393  0.1642  0.2273
 4804SOL    HW121527   7.933   5.390   2.867  1.7764 -0.1340  1.1525
 4804SOL    HW221528   7.902   5.331   2.731 -0.6153  1.3132  1.0108
 4805SOL     OW21529   8.528   7.504  11.289 -0.0307  0.1073  0.2023
 4805SOL    HW121530   8.437   7.484  11.309  0.3771  0.4891  2.7145
 4805SOL    HW221531   8.578   7.446  11.346  1.2597  1.3489  0.3812
 4806SOL     OW21532   4.350   0.170   9.468  0.1514 -0.2955 -0.4304
 4806SOL    HW121533   4.387   0.149   9.382  0.8136 -1.2889  0.0795
 4806SOL    HW221534   4.372   0.094   9.522  1.5156  1.1890  1.1712
 4807SOL     OW21535   7.674   0.512   5.111 -0.1353 -0.1456  0.8543
 4807SOL    HW121536   7.716   0.439   5.066 -0.6743 -0.0117  0.1300
 4807SOL    HW221537   7.626   0.559   5.043 -1.4615 -0.2869  1.6594
 4808SOL     OW21538  12.537   3.669  11.350 -0.2129 -0.1199 -0.3943
 4808SOL    HW121539  12.542   3.600  11.284 -1.5249  0.2680 -0.9401
 4808SOL    HW221540  12.558   3.750  11.302 -1.3836  0.1912 -0.4059
 4809SOL     OW21541   8.971   7.121   1.925 -0.3913 -0.0043 -0.1953
 4809SOL    HW121542   9.038   7.107   1.993 -2.7987  0.6444  2.5359
 4809SOL    HW221543   8.940   7.033   1.905  1.1903 -0.3154 -1.5025
 4810SOL     OW21544   5.944   9.391  12.020 -0.0588 -0.5980 -0.5014
 4810SOL    HW121545   5.915   9.403  12.111  0.0687 -0.3652 -0.4894
 4810SOL    HW221546   5.880   9.331  11.982 -0.5965 -0.0537 -0.4880
 4811SOL     OW21547   0.376   2.624   8.333 -0.3096 -0.0909 -0.7202
 4811SOL    HW121548   0.312   2.557   8.358 -0.5193 -0.5003 -2.2418
 4811SOL    HW221549   0.458   2.594   8.372 -0.6663 -0.5574 -0.3157
 4812SOL     OW21550  10.555  11.763   8.891 -0.1939 -0.1187  0.1568
 4812SOL    HW121551  10.521  11.715   8.966 -0.2852 -1.0952 -0.4906
 4812SOL    HW221552  10.575  11.850   8.925 -1.0472 -0.2770  1.1024
 4813SOL     OW21553   4.000  12.364   8.805 -0.0481  0.2722 -0.0326
 4813SOL    HW121554   3.934  12.413   8.756 -0.2638 -0.1604 -0.1845
 4813SOL    HW221555   3.985  12.273   8.780  0.6971  0.1820 -0.1680
 4814SOL     OW21556   6.541  11.447   1.700 -0.3522 -0.5380  0.1487
 4814SOL    HW121557   6.521  11.519   1.760  0.7442  1.7069 -1.9766
 4814SOL    HW221558   6.631  11.422   1.721  0.0198  0.2271 -0.4453
 4815SOL     OW21559   6.125   8.309  11.762 -0.0694  0.1321  0.0376
 4815SOL    HW121560   6.125   8.356  11.845  0.9743 -0.4049  0.3625
 4815SOL    HW221561   6.078   8.227  11.780 -1.4942  0.8196 -0.4121
 4816SOL     OW21562  12.361   2.144  12.368 -0.6944  0.1497 -1.1150
 4816SOL    HW121563  12.313   2.064  12.349 -0.5683 -0.4294  0.7307
 4816SOL    HW221564  12.295   2.212  12.372 -1.2109 -0.3883  0.0097
 4817SOL     OW21565  11.667   7.404   3.699 -0.3494  0.2689  0.3771
 4817SOL    HW121566  11.619   7.449   3.629  0.4029  0.9593  0.2937
 4817SOL    HW221567  11.640   7.448   3.779 -0.2227  0.3340  0.3836
 4818SOL     OW21568  11.108   9.886  10.174 -0.3198 -0.6292  0.0909
 4818SOL    HW121569  11.046   9.930  10.116 -1.2333 -1.1959  0.6075
 4818SOL    HW221570  11.181   9.861  10.117 -0.9035 -0.6070 -0.6802
 4819SOL     OW21571   3.464  12.380   4.021  0.3009 -0.0106  0.2001
 4819SOL    HW121572   3.387  12.380   3.963  0.7161  0.6387 -0.3572
 4819SOL    HW221573   3.536  12.410   3.966  0.7200  0.5634  1.0333
 4820SOL     OW21574   0.671  11.820  10.493  0.0704 -0.3544  0.0391
 4820SOL    HW121575   0.765  11.827  10.506  0.0728 -1.9216  1.0849
 4820SOL    HW221576   0.641  11.758  10.560 -1.4682 -1.0698 -1.2265
 4821SOL     OW21577   1.637  12.664   0.766 -0.5406  0.3195 -0.2225
 4821SOL    HW121578   1.687  12.717   0.704  1.1342 -1.0185 -0.0721
 4821SOL    HW221579   1.677  12.680   0.851 -0.7646 -0.2893  0.0079
 4822SOL     OW21580   8.378  10.034   4.914 -0.1727  0.7999  0.2413
 4822SOL    HW121581   8.406   9.990   4.834 -0.1272  0.4895  0.4236
 4822SOL    HW221582   8.324  10.107   4.885 -0.5427  0.4106 -0.0601
 4823SOL     OW21583   4.212   2.600  12.811 -0.6732  0.4379 -0.4966
 4823SOL    HW121584   4.217   2.613  12.717  1.7931  0.2650 -0.4584
 4823SOL    HW221585   4.122   2.574  12.828 -0.7019 -1.4227 -3.0482
 4824SOL     OW21586  12.218   3.569   0.287 -0.1118 -0.3141  0.0097
 4824SOL    HW121587  12.217   3.616   0.370 -2.2223 -1.7996  0.9125
 4824SOL    HW221588  12.269   3.490   0.305  2.0346  0.7335 -1.0479
 4825SOL     OW21589   1.234   5.136   6.880 -0.0606  0.5346  0.0018
 4825SOL    HW121590   1.295   5.206   6.902  1.9696 -0.8857 -0.7707
 4825SOL    HW221591   1.214   5.149   6.788 -0.2883  0.5316  0.0498
 4826SOL     OW21592   5.077   0.519   0.213  0.4239  0.4927 -0.0734
 4826SOL    HW121593   5.100   0.526   0.306  0.1597  1.8940 -0.0958
 4826SOL    HW221594   5.137   0.453   0.179  0.1049 -0.5139  1.2162
 4827SOL     OW21595  10.545  11.764   4.296 -0.8786 -0.3445  0.0374
 4827SOL    HW121596  10.452  11.787   4.292 -1.0786 -1.1882 -0.3623
 4827SOL    HW221597  10.580  11.790   4.212 -1.3551 -2.4468 -0.8846
 4828SOL     OW21598   8.362   2.465   6.715 -0.3856 -0.4152 -0.1448
 4828SOL    HW121599   8.434   2.507   6.762 -1.7576  0.7322  1.0466
 4828SOL    HW221600   8.394   2.377   6.694  0.9931 -0.2784  1.2324
 4829SOL     OW21601   6.953   2.132  10.255 -0.4616  0.0165  0.5147
 4829SOL    HW121602   7.047   2.136  10.276 -0.9326 -1.2603  3.3279
 4829SOL    HW221603   6.948   2.068  10.184  0.7623 -0.4698  0.8355
 4830SOL     OW21604   9.237  11.285   6.677 -0.0278  0.2135  0.1387
 4830SOL    HW121605   9.327  11.253   6.681  0.8090  2.0482 -1.9846
 4830SOL    HW221606   9.189  11.216   6.631  0.4878 -0.3446  0.4211
 4831SOL     OW21607   5.341   1.043  11.024  0.3565 -0.8172 -0.0382
 4831SOL    HW121608   5.367   0.976  10.960 -0.9338 -0.2197 -1.2449
 4831SOL    HW221609   5.420   1.094  11.039  1.3720 -2.5564  0.8920
 4832SOL     OW21610  10.109   2.486  10.115 -0.2552  0.3254  0.3965
 4832SOL    HW121611  10.111   2.493  10.210  1.0309  1.1258  0.3382
 4832SOL    HW221612  10.197   2.455  10.091  1.0608  4.2807 -0.7491
 4833SOL     OW21613   7.781   5.838   7.490 -0.6173  0.0570 -0.2028
 4833SOL    HW121614   7.819   5.894   7.422  1.1427 -1.2733 -0.3912
 4833SOL    HW221615   7.707   5.796   7.447 -0.4289  0.3501 -0.8391
 4834SOL     OW21616   6.091   4.063  11.555 -0.6797 -0.2560 -0.4663
 4834SOL    HW121617   6.032   4.018  11.616  0.0262 -0.2589  0.2345
 4834SOL    HW221618   6.118   3.994  11.494 -1.0958 -0.3431 -0.5562
 4835SOL     OW21619  10.340  11.123  10.653  0.1498 -0.2564  0.7088
 4835SOL    HW121620  10.416  11.180  10.653  1.2025 -1.5869 -0.6034
 4835SOL    HW221621  10.296  11.140  10.570  1.2785 -2.2766 -0.3885
 4836SOL     OW21622   0.020  10.062   0.830  0.6601  0.3868  0.1725
 4836SOL    HW121623   0.018  10.138   0.772  1.0786  0.0222 -0.3340
 4836SOL    HW221624   0.110  10.060   0.863  0.8637 -0.3138 -0.4017
 4837SOL     OW21625   3.072   7.997   0.180  0.0830  0.3406  0.3512
 4837SOL    HW121626   2.983   7.965   0.196  0.8514 -1.9851  0.4388
 4837SOL    HW221627   3.092   8.050   0.257 -0.3095 -1.3949  1.7444
 4838SOL     OW21628   4.177  11.905   4.519 -0.0379 -0.1352  0.3999
 4838SOL    HW121629   4.193  11.862   4.435  0.8008 -0.4888  0.7321
 4838SOL    HW221630   4.156  11.833   4.578  0.2800  0.0192  0.7016
 4839SOL     OW21631   8.662   8.571   8.721 -0.1724  0.5113 -0.3261
 4839SOL    HW121632   8.688   8.647   8.774 -1.0772  0.2081  0.5870
 4839SOL    HW221633   8.718   8.576   8.643  0.4492  1.5702  0.1615
 4840SOL     OW21634   0.930  11.071  11.440 -0.2661  0.0786 -0.5348
 4840SOL    HW121635   0.945  11.023  11.521  0.1374 -0.5710 -0.9873
 4840SOL    HW221636   0.938  11.163  11.465 -3.7485  0.1459  0.9564
 4841SOL     OW21637   5.395   7.873   2.058 -0.4291  0.6103 -0.0164
 4841SOL    HW121638   5.366   7.782   2.056 -0.7861  0.7331 -1.0450
 4841SOL    HW221639   5.470   7.873   2.117  0.3013 -0.5819 -0.8776
 4842SOL     OW21640  10.944   0.097   2.641 -0.3220 -0.1232 -0.1236
 4842SOL    HW121641  10.887   0.160   2.599  0.2636  1.5918  1.5239
 4842SOL    HW221642  11.025   0.144   2.657 -0.0439 -1.0861  1.6268
 4843SOL     OW21643   0.021   6.590  11.959 -0.1504  0.3163 -0.1843
 4843SOL    HW121644   0.104   6.577  11.913 -0.4431 -0.6078 -0.4863
 4843SOL    HW221645  -0.036   6.632  11.895 -0.7487 -1.5178 -0.9267
 4844SOL     OW21646   5.374   6.944   8.355 -0.0656  0.3812 -0.3260
 4844SOL    HW121647   5.425   6.869   8.324 -0.3831 -0.5550  1.3327
 4844SOL    HW221648   5.414   7.019   8.311 -0.4305 -0.8194 -2.8949
 4845SOL     OW21649   9.393  11.493   1.298 -0.1373 -0.2708  0.2191
 4845SOL    HW121650   9.460  11.432   1.327 -0.1765 -0.7027 -0.5607
 4845SOL    HW221651   9.436  11.578   1.296 -0.5125  0.0683  2.9010
 4846SOL     OW21652   6.861  12.494   4.233 -0.1590 -0.3741 -0.2400
 4846SOL    HW121653   6.806  12.469   4.308 -0.5867  0.3891 -0.2837
 4846SOL    HW221654   6.846  12.426   4.168 -2.4431  0.6771 -0.9321
 4847SOL     OW21655  10.259  12.950   3.941 -0.5841  0.2192  0.6641
 4847SOL    HW121656  10.350  12.922   3.934 -0.7860 -0.7502  1.6281
 4847SOL    HW221657  10.245  12.963   4.035 -1.7653 -0.8773  0.6756
 4848SOL     OW21658   7.623  12.077   1.544 -0.0173  0.9861 -0.6929
 4848SOL    HW121659   7.572  12.050   1.620 -1.8290  2.1684 -1.4206
 4848SOL    HW221660   7.563  12.066   1.470  1.2921  1.0296 -1.8061
 4849SOL     OW21661   9.492   1.839   5.446 -0.0965 -0.1560 -0.0047
 4849SOL    HW121662   9.412   1.788   5.459 -0.5454  0.9485  1.9082
 4849SOL    HW221663   9.503   1.842   5.350 -1.8758 -0.9935 -0.2774
 4850SOL     OW21664   5.020   3.884   8.948  0.3089 -0.3384 -0.1307
 4850SOL    HW121665   5.004   3.806   9.001 -0.4724 -0.1392 -0.0679
 4850SOL    HW221666   5.078   3.938   9.001 -1.2010  0.2854  0.9453
 4851SOL     OW21667  12.419  11.557   9.916  0.0259 -0.6997 -0.0862
 4851SOL    HW121668  12.463  11.515   9.842  0.9226 -1.4609  0.8492
 4851SOL    HW221669  12.460  11.643   9.923  1.6211 -1.4916  0.9306
 4852SOL     OW21670   5.015  10.961  10.126 -0.0373  0.0003  0.2517
 4852SOL    HW121671   5.058  11.043  10.101 -2.8180  1.2070 -0.9810
 4852SOL    HW221672   5.037  10.950  10.218  2.0326  1.0171 -0.0482
 4853SOL     OW21673   8.759   6.538   1.081 -1.1024 -0.2889 -0.3181
 4853SOL    HW121674   8.741   6.458   1.032 -0.7673 -0.3296 -0.3758
 4853SOL    HW221675   8.673   6.580   1.090 -1.3227 -0.7848 -0.0475
 4854SOL     OW21676   7.955   3.520   0.157 -0.3305 -0.1485 -0.2819
 4854SOL    HW121677   7.900   3.560   0.090 -2.4108 -2.2754  0.0427
 4854SOL    HW221678   7.914   3.544   0.240 -0.6264 -1.4762 -0.0187
 4855SOL     OW21679   1.512   6.626   6.580 -0.5544 -0.0044 -0.3381
 4855SOL    HW121680   1.430   6.653   6.538  0.5558  1.3004 -1.7609
 4855SOL    HW221681   1.580   6.646   6.516  0.9023 -1.0002  0.8319
 4856SOL     OW21682  12.573   4.641   1.478  0.0916 -0.4832 -0.0959
 4856SOL    HW121683  12.508   4.619   1.412 -0.8900  0.0306  0.6751
 4856SOL    HW221684  12.651   4.591   1.452 -0.8435 -1.7493 -0.5837
 4857SOL     OW21685   5.910   0.411   9.255  0.0222 -0.2869  0.1030
 4857SOL    HW121686   6.002   0.394   9.278 -0.0177  0.4978  0.9131
 4857SOL    HW221687   5.884   0.482   9.314 -1.6398 -1.7276  1.1953
 4858SOL     OW21688   3.531  10.257   5.138 -0.6602  0.0323 -0.0818
 4858SOL    HW121689   3.560  10.185   5.082 -1.0396  0.9927 -1.5822
 4858SOL    HW221690   3.528  10.220   5.226  1.0946 -1.2283 -0.4956
 4859SOL     OW21691  11.396   1.305  11.411  0.0792 -0.4903 -0.0543
 4859SOL    HW121692  11.305   1.330  11.426 -0.7054 -3.1513  0.2071
 4859SOL    HW221693  11.434   1.297  11.498  0.0788 -0.9488 -0.0934
 4860SOL     OW21694   6.111  10.376  12.456  0.3897 -0.3874 -0.2815
 4860SOL    HW121695   6.075  10.464  12.468 -1.2807 -1.0465 -0.2631
 4860SOL    HW221696   6.170  10.364  12.531  2.0710  1.3554 -1.2268
 4861SOL     OW21697   4.025  10.157   0.226 -0.0216 -0.1632  0.1131
 4861SOL    HW121698   4.106  10.114   0.252 -0.8440 -1.2697  0.9764
 4861SOL    HW221699   3.999  10.111   0.145  0.2286  0.2191 -0.1868
 4862SOL     OW21700   7.282  11.413   1.912  0.1044 -0.5933 -0.1121
 4862SOL    HW121701   7.230  11.448   1.983 -0.0342  0.2594 -0.6203
 4862SOL    HW221702   7.271  11.476   1.840  1.0256 -0.9144 -0.5567
 4863SOL     OW21703   3.814  10.784  10.933  0.6016  0.4625 -0.0209
 4863SOL    HW121704   3.835  10.735  10.854  3.0359  0.0192  0.7895
 4863SOL    HW221705   3.741  10.840  10.909 -0.4920 -1.5817 -1.7708
 4864SOL     OW21706   8.264   6.822  11.192  0.2402 -0.3466  0.3422
 4864SOL    HW121707   8.266   6.917  11.183 -0.2323 -0.0803  2.5210
 4864SOL    HW221708   8.356   6.797  11.197  0.3761 -0.0534 -0.5153
 4865SOL     OW21709   8.476   1.177   9.608  0.0939 -0.2430 -0.7326
 4865SOL    HW121710   8.481   1.085   9.633  0.1172 -0.3764 -1.2119
 4865SOL    HW221711   8.558   1.194   9.562 -0.5006 -0.3764 -1.8874
 4866SOL     OW21712  10.126   3.067   9.355  0.5431  0.2454 -0.1150
 4866SOL    HW121713  10.169   2.981   9.357 -1.6356 -0.9014  0.7524
 4866SOL    HW221714  10.139   3.098   9.265  2.4757 -0.3681 -0.0839
 4867SOL     OW21715   4.129   1.094   1.270  0.0686  0.0210 -0.4640
 4867SOL    HW121716   4.141   1.017   1.325  0.0740 -0.5607 -1.2588
 4867SOL    HW221717   4.218   1.124   1.251  0.0491  0.8688  0.7143
 4868SOL     OW21718  10.681  12.931   0.918  0.4080  0.2516 -0.3381
 4868SOL    HW121719  10.713  13.020   0.933 -1.8195  1.1609 -0.4851
 4868SOL    HW221720  10.624  12.939   0.841  2.9421 -2.0805 -2.6727
 4869SOL     OW21721  12.088   2.887   8.175  0.0937  0.3328 -0.3362
 4869SOL    HW121722  12.016   2.826   8.160 -1.0044  1.1747  1.1230
 4869SOL    HW221723  12.086   2.947   8.100 -1.0031  0.5851 -0.1147
 4870SOL     OW21724   9.320   7.700   2.183  0.7236  0.6072 -0.1140
 4870SOL    HW121725   9.401   7.721   2.230  0.5887 -0.5041  0.6528
 4870SOL    HW221726   9.273   7.783   2.178  0.2456  0.5701  2.7075
 4871SOL     OW21727  11.384   7.056   4.892 -0.5693 -0.3854  0.1887
 4871SOL    HW121728  11.443   7.055   4.816  0.4961 -1.0213  0.9940
 4871SOL    HW221729  11.301   7.025   4.857 -0.2340 -0.1986 -0.8254
 4872SOL     OW21730   5.028   1.102   6.116  0.3764  0.2017  0.2377
 4872SOL    HW121731   4.982   1.020   6.100  0.4078 -0.2140  2.0095
 4872SOL    HW221732   4.987   1.137   6.195  0.4757  1.8190 -0.3954
 4873SOL     OW21733   5.426   2.708   0.891  0.0077 -0.1216  0.9534
 4873SOL    HW121734   5.514   2.707   0.929  0.0025  1.3747  1.0681
 4873SOL    HW221735   5.428   2.641   0.822  1.4809  0.4487  0.4133
 4874SOL     OW21736  10.948   3.573   1.113 -0.0891 -0.5761  0.5426
 4874SOL    HW121737  10.894   3.508   1.159 -0.7460 -0.1729  0.3524
 4874SOL    HW221738  11.027   3.580   1.166 -0.5467 -0.6145  1.2423
 4875SOL     OW21739   4.322   2.382   0.005 -0.3204  0.1667  0.2567
 4875SOL    HW121740   4.406   2.368  -0.038  0.2561 -0.0292  1.3887
 4875SOL    HW221741   4.287   2.461  -0.035  1.3428  1.4028  1.1132
 4876SOL     OW21742   2.929  10.881  11.762 -1.0411  1.3476  0.1063
 4876SOL    HW121743   2.906  10.970  11.787  0.4010  1.5472  0.8802
 4876SOL    HW221744   2.999  10.892  11.697 -0.9714  0.7943  0.0820
 4877SOL     OW21745   2.058   1.634   7.246 -0.0999 -0.3292 -0.1747
 4877SOL    HW121746   2.139   1.625   7.296  0.3321 -0.1647 -0.8190
 4877SOL    HW221747   2.082   1.693   7.174 -0.4588 -1.2469 -1.0724
 4878SOL     OW21748  11.517   7.100   1.095  0.1783 -0.7654 -0.1715
 4878SOL    HW121749  11.500   7.156   1.019  1.0330  0.4933  0.5320
 4878SOL    HW221750  11.533   7.161   1.167 -0.3564 -1.9251  0.9843
 4879SOL     OW21751   6.169   4.068   5.028 -0.5357 -0.3323  0.3353
 4879SOL    HW121752   6.196   4.081   4.937  0.3845  1.0423  0.7821
 4879SOL    HW221753   6.251   4.054   5.076 -0.9467 -0.1962  1.0926
 4880SOL     OW21754  10.223   6.134   7.798 -0.5816  0.0221  0.0479
 4880SOL    HW121755  10.252   6.097   7.881  1.1687  1.6443  0.2191
 4880SOL    HW221756  10.203   6.057   7.744 -0.9831 -1.0773  1.6621
 4881SOL     OW21757   4.216   3.719   5.557 -0.0115  0.0038  0.2784
 4881SOL    HW121758   4.178   3.797   5.517  2.5215  1.0625 -0.2652
 4881SOL    HW221759   4.280   3.688   5.493  0.8419 -1.0196  1.5699
 4882SOL     OW21760   5.568  10.402   9.416 -0.1830 -0.3291  0.0914
 4882SOL    HW121761   5.548  10.448   9.334 -1.7149  0.3839  0.8246
 4882SOL    HW221762   5.570  10.309   9.391  0.0559 -0.0806 -0.8748
 4883SOL     OW21763   6.150   5.538   7.055  0.1825  0.1268 -0.0849
 4883SOL    HW121764   6.168   5.566   7.145 -1.6904 -0.6015  0.5724
 4883SOL    HW221765   6.192   5.452   7.048  2.3229  1.1475 -0.7284
 4884SOL     OW21766   2.293   5.464   0.591  0.7820  0.3490  0.1960
 4884SOL    HW121767   2.283   5.377   0.551 -1.3697  1.4494 -1.8482
 4884SOL    HW221768   2.366   5.453   0.653 -1.1645 -3.6349  2.1363
 4885SOL     OW21769   6.474   8.548   6.073  0.3577 -0.2658  0.2233
 4885SOL    HW121770   6.404   8.521   6.133 -0.2531 -0.3556 -0.5194
 4885SOL    HW221771   6.491   8.640   6.096 -0.1942 -0.1608  0.2325
 4886SOL     OW21772  10.089  10.786  10.614  0.2586  0.7070 -0.1953
 4886SOL    HW121773  10.145  10.806  10.689  0.7648 -0.8525 -0.1043
 4886SOL    HW221774  10.139  10.721  10.564 -0.8160  0.4255 -0.9418
 4887SOL     OW21775   6.630   5.602  11.797 -0.1838 -0.1535  0.5918
 4887SOL    HW121776   6.691   5.585  11.725  0.2006 -0.0330  0.8851
 4887SOL    HW221777   6.685   5.609  11.875 -0.1378  3.4089  0.3963
 4888SOL     OW21778   8.579   9.302   1.320 -0.4816 -0.1783  0.3734
 4888SOL    HW121779   8.563   9.353   1.241 -0.8595 -0.9978 -0.0979
 4888SOL    HW221780   8.653   9.245   1.298 -1.4620 -1.3971  0.1005
 4889SOL     OW21781   1.060   1.024  12.197  0.3923 -0.3081 -0.4398
 4889SOL    HW121782   1.008   0.959  12.148  1.7992 -1.2698 -0.7192
 4889SOL    HW221783   1.027   1.018  12.287 -0.5417 -0.2939 -0.7738
 4890SOL     OW21784   0.641  12.791  12.546  0.1756 -0.0816  0.3010
 4890SOL    HW121785   0.561  12.834  12.576  0.7984 -0.3471  2.5201
 4890SOL    HW221786   0.703  12.863  12.533 -0.3248  0.1038 -1.2035
 4891SOL     OW21787   5.076   3.710  10.645  0.4203  0.2592 -0.2397
 4891SOL    HW121788   5.129   3.758  10.709  1.1932 -1.4651  0.5048
 4891SOL    HW221789   5.004   3.674  10.697 -1.7703  2.8147 -1.2933
 4892SOL     OW21790   1.309   4.351   1.787 -0.2502  0.1177 -0.3426
 4892SOL    HW121791   1.214   4.349   1.788 -0.2478 -1.0355  1.3174
 4892SOL    HW221792   1.334   4.292   1.716 -0.7971 -1.1874  0.5089
 4893SOL     OW21793   4.210   7.207   9.950  0.4294  0.0815  0.0935
 4893SOL    HW121794   4.183   7.221   9.859 -1.9333 -3.2311  0.1295
 4893SOL    HW221795   4.289   7.154   9.944  1.9637  2.2328  0.0701
 4894SOL     OW21796   7.689  12.560  11.750  0.7612  0.2103  0.2431
 4894SOL    HW121797   7.649  12.483  11.709  1.6588 -0.1253 -0.0203
 4894SOL    HW221798   7.640  12.634  11.715  0.0926 -0.2109  0.2589
 4895SOL     OW21799   0.322   4.491   3.433 -0.1643 -0.7299 -0.2183
 4895SOL    HW121800   0.242   4.514   3.387 -0.3145  2.5996  1.4528
 4895SOL    HW221801   0.293   4.448   3.513 -0.2024 -0.8868 -0.3163
 4896SOL     OW21802   9.884  12.854   1.752  0.4591 -0.3906  0.0631
 4896SOL    HW121803   9.934  12.882   1.676  0.8828  0.8540  0.7703
 4896SOL    HW221804   9.924  12.771   1.778  0.0737 -1.0155 -1.2674
 4897SOL     OW21805  12.125   2.357  10.912 -0.7823 -0.3258 -0.2032
 4897SOL    HW121806  12.198   2.295  10.910 -0.0110  0.0875  4.5774
 4897SOL    HW221807  12.048   2.302  10.925 -0.6360 -0.4759  0.0300
 4898SOL     OW21808   9.291  11.161   3.598  0.0793  0.2308 -0.1645
 4898SOL    HW121809   9.205  11.195   3.623 -0.0675  0.4048 -0.8853
 4898SOL    HW221810   9.272  11.090   3.536  0.4613  0.4669 -0.5554
 4899SOL     OW21811  11.707   6.876  11.680 -0.3101  0.3708  0.3528
 4899SOL    HW121812  11.718   6.830  11.764 -1.3884 -0.8081 -0.1163
 4899SOL    HW221813  11.705   6.969  11.704 -0.6235  0.0567  1.6392
 4900SOL     OW21814  10.942   4.676   8.441  0.0846 -0.1466 -0.8017
 4900SOL    HW121815  11.007   4.745   8.430  0.8173 -0.2492  2.0830
 4900SOL    HW221816  10.993   4.594   8.435 -0.2891 -0.3448 -1.3525
 4901SOL     OW21817   1.636   6.345   0.750 -0.3500 -0.8496  0.2360
 4901SOL    HW121818   1.548   6.363   0.716 -0.7722 -0.1051  1.5981
 4901SOL    HW221819   1.669   6.431   0.776 -0.0209 -1.3308  1.5202
 4902SOL     OW21820   0.224  11.943   8.732  0.0939 -0.5227  0.3795
 4902SOL    HW121821   0.295  11.884   8.754 -0.1298 -0.0770  2.5647
 4902SOL    HW221822   0.252  11.987   8.652  2.2598 -0.3814  1.1705
 4903SOL     OW21823   4.516   3.389   4.792  0.2118  0.2798  0.1234
 4903SOL    HW121824   4.536   3.369   4.700  0.3526  0.5871  0.0848
 4903SOL    HW221825   4.426   3.361   4.804 -0.2723  1.5033 -0.4937
 4904SOL     OW21826  11.655  10.131   5.946  0.3347 -0.1655  0.1953
 4904SOL    HW121827  11.663  10.210   5.891 -1.3950  0.7749  1.1977
 4904SOL    HW221828  11.676  10.161   6.034 -0.2113 -0.8641  0.5702
 4905SOL     OW21829  12.178   4.932   3.843 -0.3666  0.1758  0.4735
 4905SOL    HW121830  12.185   5.028   3.848  0.9300  0.1604 -0.6733
 4905SOL    HW221831  12.119   4.916   3.770  0.3871  0.0963 -0.1271
 4906SOL     OW21832   5.946   8.288   1.506 -0.1778  0.0646 -0.1116
 4906SOL    HW121833   5.959   8.303   1.413 -0.1552 -1.1352 -0.3245
 4906SOL    HW221834   6.026   8.322   1.547  0.3588 -0.4920 -0.6630
 4907SOL     OW21835   5.307   6.638   9.725  0.2077  0.3592 -0.1677
 4907SOL    HW121836   5.381   6.669   9.673  0.3411  1.4612  0.6444
 4907SOL    HW221837   5.347   6.596   9.801  0.0066  1.4394  0.5448
 4908SOL     OW21838   4.514  10.860   0.955 -0.1276  0.1497 -0.7883
 4908SOL    HW121839   4.492  10.915   1.030  1.0075  1.1206 -1.1305
 4908SOL    HW221840   4.591  10.810   0.982 -0.8178 -0.8908 -0.6778
 4909SOL     OW21841  10.442   3.576   6.894  0.1827 -0.2900  0.0660
 4909SOL    HW121842  10.505   3.553   6.962  2.2642  0.0186 -1.6348
 4909SOL    HW221843  10.372   3.511   6.903  0.6804 -0.6079  2.0829
 4910SOL     OW21844  12.030   6.671   1.652 -0.3981  0.0868 -0.3798
 4910SOL    HW121845  11.957   6.609   1.656  0.3832 -0.8187  0.5737
 4910SOL    HW221846  12.108   6.616   1.641  0.1901  1.0012 -0.9029
 4911SOL     OW21847   6.052   4.394  10.298 -0.4325  0.5709 -0.1947
 4911SOL    HW121848   6.016   4.314  10.259  0.2367  0.6757 -1.0406
 4911SOL    HW221849   5.981   4.427  10.353 -0.4793 -0.9852  0.7415
 4912SOL     OW21850  11.863   1.512   6.593  0.0148 -0.0743 -0.1790
 4912SOL    HW121851  11.811   1.447   6.640 -0.9957 -0.6697 -2.0467
 4912SOL    HW221852  11.906   1.563   6.663  0.2334 -2.2076  1.3498
 4913SOL     OW21853   9.822  12.516  11.683  0.7258  0.7546  0.2035
 4913SOL    HW121854   9.797  12.424  11.697  2.7344  0.5278  3.2094
 4913SOL    HW221855   9.763  12.546  11.613 -0.7621 -2.4657 -0.1319
 4914SOL     OW21856   7.914   5.296   3.163 -0.0846  0.5098  0.6123
 4914SOL    HW121857   7.959   5.326   3.084  1.8973 -0.5634  1.2632
 4914SOL    HW221858   7.984   5.272   3.223 -1.5418 -0.6776  1.9379
 4915SOL     OW21859  11.959   7.087   6.193  0.1519 -0.5475 -0.3374
 4915SOL    HW121860  11.912   7.005   6.209 -0.9829  0.4940  2.2902
 4915SOL    HW221861  11.890   7.149   6.169  0.4791  0.4323  1.1623
 4916SOL     OW21862   2.928  11.624   9.257 -0.0154  0.0133 -0.2106
 4916SOL    HW121863   3.000  11.623   9.194  0.6646  0.8808  0.5180
 4916SOL    HW221864   2.855  11.581   9.211  1.1528 -1.5323 -0.7136
 4917SOL     OW21865   5.212  12.312   6.165  0.5308 -0.8352  0.0260
 4917SOL    HW121866   5.283  12.339   6.223 -0.1329 -0.9671  0.9269
 4917SOL    HW221867   5.181  12.229   6.203 -0.6188 -0.3731  0.1262
 4918SOL     OW21868  12.112   1.886   0.471 -0.2691 -0.3166  0.5996
 4918SOL    HW121869  12.080   1.961   0.521 -1.0883  0.0047 -0.3892
 4918SOL    HW221870  12.205   1.881   0.493 -0.2699  0.8120  0.9021
 4919SOL     OW21871   6.613   9.425   9.952 -0.2016  0.1061 -0.2764
 4919SOL    HW121872   6.627   9.429  10.046  2.2006  1.7399 -0.6155
 4919SOL    HW221873   6.694   9.389   9.917 -1.0319 -0.4170 -1.7474
 4920SOL     OW21874   6.512   0.211   9.126  0.6607  0.3738  0.3390
 4920SOL    HW121875   6.460   0.209   9.206  0.9666 -0.3418  0.5212
 4920SOL    HW221876   6.548   0.123   9.117 -1.0663 -0.2187 -1.7141
 4921SOL     OW21877  11.748   6.109   9.741 -0.5416 -0.1437  0.9304
 4921SOL    HW121878  11.798   6.099   9.822 -0.7772 -2.6101  0.8536
 4921SOL    HW221879  11.814   6.107   9.671 -0.5515 -2.6458  0.8754
 4922SOL     OW21880  10.479   5.316  12.549 -0.0829  0.0292 -0.3460
 4922SOL    HW121881  10.475   5.293  12.642 -0.1234 -0.9078 -0.5611
 4922SOL    HW221882  10.389   5.336  12.525 -0.1941 -0.4399 -0.3404
 4923SOL     OW21883  10.015  10.988   6.848 -0.0200  0.0826  0.1403
 4923SOL    HW121884   9.976  11.028   6.926  0.1748  1.2485 -0.3472
 4923SOL    HW221885  10.100  10.955   6.878 -0.7248 -1.1628  0.8560
 4924SOL     OW21886   1.069   1.659   2.316 -0.1269 -0.3494  0.2099
 4924SOL    HW121887   1.041   1.715   2.389 -1.9217  0.6509 -1.1638
 4924SOL    HW221888   1.118   1.716   2.258 -0.4571 -0.6242 -0.3518
 4925SOL     OW21889   6.957   2.156   4.260  0.1109 -0.0834  0.5670
 4925SOL    HW121890   6.955   2.065   4.231  0.4478 -0.4342  1.6086
 4925SOL    HW221891   7.046   2.185   4.241 -0.0482  0.0996  0.0670
 4926SOL     OW21892  12.035   8.174  11.306  0.3134  0.8214  0.2066
 4926SOL    HW121893  12.123   8.156  11.339  0.3257  1.4821  0.5336
 4926SOL    HW221894  12.043   8.258  11.262  0.2288  0.0896 -1.2481
 4927SOL     OW21895   5.935   8.782   7.061  0.0032  0.0782 -0.3939
 4927SOL    HW121896   5.927   8.725   7.137 -1.0192  0.3598 -0.2710
 4927SOL    HW221897   5.850   8.775   7.017  0.1845  0.7925 -0.8696
 4928SOL     OW21898  12.934   0.130   7.237 -0.4329 -0.0922  0.0055
 4928SOL    HW121899  12.942   0.177   7.320 -1.9666  0.2772 -0.0158
 4928SOL    HW221900  12.864   0.176   7.191 -1.0674 -1.5725 -0.5786
 4929SOL     OW21901   5.357   4.110  10.347  0.1871  0.1146  0.1412
 4929SOL    HW121902   5.359   4.106  10.252  2.2121  0.2233  0.1366
 4929SOL    HW221903   5.296   4.041  10.373 -0.5361  0.2105 -1.2275
 4930SOL     OW21904   6.877   5.797   1.046 -0.2131 -0.4137  0.4953
 4930SOL    HW121905   6.858   5.704   1.060  1.7729 -0.7576  1.1575
 4930SOL    HW221906   6.953   5.816   1.101 -0.6233  1.6471  0.4525
 4931SOL     OW21907   4.707  10.971   5.220 -0.0925 -0.5721  0.1263
 4931SOL    HW121908   4.637  11.017   5.173 -0.3962 -0.3085  0.8275
 4931SOL    HW221909   4.787  10.995   5.173 -0.4502 -0.7677 -0.5994
 4932SOL     OW21910  10.838   8.539   9.689 -0.1535 -0.4603 -0.4543
 4932SOL    HW121911  10.840   8.593   9.610 -1.4981 -0.4847 -0.5408
 4932SOL    HW221912  10.750   8.553   9.724  0.8207  0.5809  1.7814
 4933SOL     OW21913   2.132   0.630   1.321 -0.2330  0.0075  0.0807
 4933SOL    HW121914   2.061   0.665   1.373  0.0066  0.5907  0.0261
 4933SOL    HW221915   2.202   0.695   1.329  0.4483 -0.7589  0.4762
 4934SOL     OW21916   8.627  10.643   5.154  0.6127  0.4018  0.4699
 4934SOL    HW121917   8.549  10.606   5.111 -0.2383  1.7330  0.8061
 4934SOL    HW221918   8.677  10.682   5.083  0.7718 -0.0899  0.3066
 4935SOL     OW21919   3.942   3.804   5.626  0.1373  0.3637 -1.4084
 4935SOL    HW121920   4.004   3.877   5.617 -0.3253  0.7949 -1.1578
 4935SOL    HW221921   3.856   3.846   5.632 -0.1780 -0.2277 -1.7081
 4936SOL     OW21922  10.305   2.994   2.455  0.0285  0.2067  0.1206
 4936SOL    HW121923  10.267   3.002   2.542  0.3060 -1.0912  0.3666
 4936SOL    HW221924  10.362   2.918   2.459 -0.2981 -0.1529 -1.3185
 4937SOL     OW21925  12.103   8.824   7.706  0.1822 -0.0263 -0.0994
 4937SOL    HW121926  12.144   8.828   7.619  1.7910 -1.9476  0.5040
 4937SOL    HW221927  12.141   8.898   7.753 -0.6419  0.9828 -0.9635
 4938SOL     OW21928   5.055   7.859   9.570 -0.0452  0.1848  0.1432
 4938SOL    HW121929   5.140   7.848   9.614  0.4442 -1.1721 -1.0774
 4938SOL    HW221930   5.038   7.953   9.576  0.9523  0.3203  1.4776
 4939SOL     OW21931  10.210  11.727   6.197  0.1393 -0.2785  0.5020
 4939SOL    HW121932  10.139  11.779   6.160  0.0338  0.0294  1.1224
 4939SOL    HW221933  10.182  11.707   6.286  1.4287  1.0743  1.2653
 4940SOL     OW21934   4.437   1.320   8.948  0.5088  0.3720  0.4146
 4940SOL    HW121935   4.452   1.345   8.857 -0.6108 -0.6767 -0.0892
 4940SOL    HW221936   4.360   1.263   8.945  0.7951 -0.1487  1.9482
 4941SOL     OW21937   8.525   0.235   2.616 -0.2377  0.0096 -0.0727
 4941SOL    HW121938   8.463   0.183   2.565 -1.2599  0.3688  0.7671
 4941SOL    HW221939   8.538   0.314   2.564  0.6301 -0.6802 -0.9267
 4942SOL     OW21940   1.529   5.371   7.174  0.1283  0.0393  0.0942
 4942SOL    HW121941   1.469   5.379   7.100  0.0668 -0.2432  0.1151
 4942SOL    HW221942   1.474   5.383   7.251  0.3590  1.4240  0.0790
 4943SOL     OW21943   5.057   1.458  11.171 -0.1742  0.1871 -0.2480
 4943SOL    HW121944   5.035   1.365  11.177 -0.9652 -0.0543 -4.2841
 4943SOL    HW221945   5.151   1.462  11.186 -0.3990 -0.9443  1.7831
 4944SOL     OW21946   6.346   2.040   5.065  0.2140  0.1653  0.5093
 4944SOL    HW121947   6.296   2.119   5.045 -0.8862 -0.8171 -0.7816
 4944SOL    HW221948   6.355   1.995   4.981  1.8834 -0.5096  0.9923
 4945SOL     OW21949   9.902   8.524   5.673  0.6794  0.6080  0.8466
 4945SOL    HW121950   9.875   8.549   5.585  2.5402  1.3187  0.4357
 4945SOL    HW221951   9.971   8.586   5.696  1.7485 -0.9067  1.9242
 4946SOL     OW21952   1.202   1.246   7.985  0.0003 -0.0330  0.6457
 4946SOL    HW121953   1.140   1.240   7.912  0.2457  2.6934  0.0916
 4946SOL    HW221954   1.152   1.218   8.061 -0.8606 -1.0475 -0.2466
 4947SOL     OW21955  10.012   7.555   4.992 -0.4559 -0.0156 -0.1276
 4947SOL    HW121956   9.976   7.637   5.026 -1.8781  0.0697 -1.7191
 4947SOL    HW221957  10.045   7.578   4.905 -1.0945 -1.1720 -0.6912
 4948SOL     OW21958  11.357   1.167   7.077 -0.2041 -0.0067  0.2098
 4948SOL    HW121959  11.353   1.251   7.031  1.5646  0.0582  0.1072
 4948SOL    HW221960  11.450   1.155   7.095 -0.5473 -1.4992  1.0700
 4949SOL     OW21961  10.339   7.143  11.985 -0.3203  0.2387  0.0796
 4949SOL    HW121962  10.269   7.085  12.015  0.1438 -0.2428  0.2336
 4949SOL    HW221963  10.389   7.164  12.064 -0.9590  1.5148  0.1763
 4950SOL     OW21964   2.671   8.348   2.721 -0.1810  0.2577 -0.1603
 4950SOL    HW121965   2.719   8.404   2.660 -0.0200  0.8767  0.5234
 4950SOL    HW221966   2.674   8.261   2.681  1.6652  0.2450 -0.0555
 4951SOL     OW21967  12.544   4.133   4.778 -0.3227  0.4624 -0.0199
 4951SOL    HW121968  12.510   4.084   4.703 -2.7450 -0.6563  1.6956
 4951SOL    HW221969  12.494   4.215   4.777  0.4043  0.9095 -0.2191
 4952SOL     OW21970   4.743   2.887   1.863 -0.3346  0.2201  0.3432
 4952SOL    HW121971   4.727   2.826   1.934  2.2659  1.2540  1.9403
 4952SOL    HW221972   4.688   2.962   1.883 -1.7133 -0.5598 -0.3297
 4953SOL     OW21973   8.281   8.092   2.106 -0.2776 -0.2407 -0.2268
 4953SOL    HW121974   8.259   8.162   2.044  2.1385  0.4997 -0.3487
 4953SOL    HW221975   8.340   8.133   2.169 -0.0123 -1.8132  0.6067
 4954SOL     OW21976  11.381   4.796   2.271 -0.2141  0.4428 -0.3870
 4954SOL    HW121977  11.404   4.889   2.279  1.2166 -0.0121  1.4085
 4954SOL    HW221978  11.426   4.767   2.192  1.7897  0.6508  0.6119
 4955SOL     OW21979   7.989   5.986   8.018 -0.4794 -0.4077  0.2159
 4955SOL    HW121980   7.988   5.897   7.983 -3.4282 -0.5844  0.4966
 4955SOL    HW221981   7.982   6.042   7.941  0.7921 -0.3901  0.0835
 4956SOL     OW21982   4.936   6.226   8.218  0.1318  0.3077 -0.6652
 4956SOL    HW121983   4.851   6.261   8.247  0.1432  0.2063 -0.5104
 4956SOL    HW221984   4.986   6.216   8.299  0.2906  0.3634 -0.7580
 4957SOL     OW21985   1.829   4.484   5.335 -0.0615 -0.1387 -0.5820
 4957SOL    HW121986   1.810   4.499   5.242 -0.7782 -0.7910 -0.5528
 4957SOL    HW221987   1.743   4.484   5.377  0.3564  3.2251  0.6080
 4958SOL     OW21988  12.715   5.247   8.643 -0.0524  0.5072 -0.2646
 4958SOL    HW121989  12.677   5.275   8.726 -1.1217 -0.9187 -0.2426
 4958SOL    HW221990  12.744   5.157   8.658 -0.7944  0.0084 -1.5641
 4959SOL     OW21991  10.752   6.880   2.482 -0.1578 -0.7117  0.0964
 4959SOL    HW121992  10.816   6.950   2.472  0.3626 -1.4554 -2.9488
 4959SOL    HW221993  10.805   6.800   2.483 -0.7729 -1.1943  2.9800
 4960SOL     OW21994   2.924   8.993   3.637  0.4773  0.4494  0.3206
 4960SOL    HW121995   2.959   8.926   3.578  1.9695 -0.4399  2.1292
 4960SOL    HW221996   2.942   9.076   3.593 -0.1985 -0.2447 -1.3375
 4961SOL     OW21997  12.446  11.643   8.276 -0.1009 -0.4529  0.1034
 4961SOL    HW121998  12.402  11.720   8.314  1.6491  0.3989  0.5256
 4961SOL    HW221999  12.533  11.643   8.317  0.2445 -2.1794 -0.5461
 4962SOL     OW22000   2.602  12.573   9.854 -0.0553 -0.0182  0.2997
 4962SOL    HW122001   2.535  12.524   9.807 -1.1382  1.0706  0.6473
 4962SOL    HW222002   2.581  12.665   9.836 -0.3936  0.4393  2.6694
 4963SOL     OW22003   4.942   7.556   3.133 -0.2269  0.1582  0.1080
 4963SOL    HW122004   4.884   7.481   3.147  1.7361 -1.8577 -1.7150
 4963SOL    HW222005   4.931   7.578   3.041  1.5557 -0.0274 -0.1826
 4964SOL     OW22006   5.430  12.593   3.501  0.0837 -0.1529  0.2981
 4964SOL    HW122007   5.419  12.659   3.433  1.0992 -0.5332 -0.2542
 4964SOL    HW222008   5.341  12.560   3.517 -0.0755 -0.6682 -1.4811
 4965SOL     OW22009   0.249  12.544   3.888 -0.7300  0.1054  0.0004
 4965SOL    HW122010   0.231  12.463   3.935 -0.9826  0.7936  1.1313
 4965SOL    HW222011   0.222  12.613   3.948  0.5826  1.0622 -0.4643
 4966SOL     OW22012  12.356   7.468  10.024  0.2282  0.6691 -0.0363
 4966SOL    HW122013  12.298   7.536  10.057  1.8648  1.0875  2.2474
 4966SOL    HW222014  12.433   7.515   9.992  1.2854 -0.0192  1.3636
 4967SOL     OW22015   9.529  12.173  12.745  0.3261  0.0858 -0.3413
 4967SOL    HW122016   9.623  12.189  12.737  0.0228  1.2368 -2.7777
 4967SOL    HW222017   9.509  12.192  12.837  2.1760  1.6397 -0.1933
 4968SOL     OW22018  10.344   4.945   7.108 -0.1270  0.2677  0.0566
 4968SOL    HW122019  10.415   4.986   7.060 -1.2774  1.0459 -1.0378
 4968SOL    HW222020  10.386   4.875   7.159  1.4887  1.1237 -0.0495
 4969SOL     OW22021   0.551  10.869   5.508 -0.1836 -0.5302 -0.0429
 4969SOL    HW122022   0.516  10.794   5.555 -1.4038  1.3705  2.3455
 4969SOL    HW222023   0.475  10.907   5.463 -0.0688  0.4377  0.5396
 4970SOL     OW22024   8.501  12.593   7.233  0.0768  0.3263 -0.6427
 4970SOL    HW122025   8.476  12.683   7.250  2.7612  0.9836  0.2782
 4970SOL    HW222026   8.432  12.540   7.272 -2.3366  1.8990 -2.4910
 4971SOL     OW22027   4.981   3.392   9.003  0.0837  0.2129 -0.1273
 4971SOL    HW122028   5.026   3.320   9.045  1.4991 -0.2240 -2.2208
 4971SOL    HW222029   4.896   3.356   8.976  0.1269 -0.1766  0.2567
 4972SOL     OW22030   6.817  10.944   4.198  0.2750 -0.0744  0.1218
 4972SOL    HW122031   6.823  10.999   4.120  1.6260  0.4711  0.5825
 4972SOL    HW222032   6.773  10.864   4.167  0.2900  0.3551 -1.0656
 4973SOL     OW22033   4.437   7.414   6.620 -0.1878  0.1710 -0.5019
 4973SOL    HW122034   4.362   7.434   6.564 -0.8279  0.1474  0.3214
 4973SOL    HW222035   4.407   7.435   6.709  0.2351 -1.3393  0.0285
 4974SOL     OW22036  10.100   3.554   5.201  0.2555 -0.2588 -0.0575
 4974SOL    HW122037  10.061   3.494   5.265  0.7871  0.2423  0.7567
 4974SOL    HW222038  10.087   3.641   5.238  1.6969 -0.0419  0.0155
 4975SOL     OW22039   1.385   8.254   4.730 -0.4148  0.0786 -0.4598
 4975SOL    HW122040   1.353   8.278   4.817  0.7903 -0.1114  0.0621
 4975SOL    HW222041   1.384   8.335   4.680  2.5488  1.1098  0.9333
 4976SOL     OW22042   2.671  12.953   6.811 -0.4483 -0.8249  0.2369
 4976SOL    HW122043   2.765  12.946   6.824 -0.4148 -0.7074  0.0694
 4976SOL    HW222044   2.639  12.863   6.821  0.1551 -1.5704 -3.2337
 4977SOL     OW22045   9.303   8.034   3.814 -0.4374  0.2858 -0.1782
 4977SOL    HW122046   9.314   8.056   3.721 -1.9066  0.4237 -0.3432
 4977SOL    HW222047   9.373   8.081   3.858 -1.5086  2.6871 -0.8965
 4978SOL     OW22048   6.810   1.462   6.538  0.5821 -0.7909 -0.1847
 4978SOL    HW122049   6.878   1.485   6.475  1.3660 -1.1731  0.4975
 4978SOL    HW222050   6.851   1.474   6.624 -1.2619  2.2957  0.4076
 4979SOL     OW22051   5.972   2.225  10.913 -0.4202 -0.4275 -0.1111
 4979SOL    HW122052   6.053   2.181  10.887 -0.0773  1.2561 -2.1027
 4979SOL    HW222053   5.915   2.220  10.836 -1.2856  0.5220  0.4347
 4980SOL     OW22054   7.242   3.981   2.336  0.4146  0.4349  0.2482
 4980SOL    HW122055   7.317   3.994   2.394 -0.3352  1.1879  1.0930
 4980SOL    HW222056   7.183   4.053   2.358 -0.6288 -0.2486 -0.2613
 4981SOL     OW22057   6.779   5.331   0.432  0.0054  0.2947 -0.0270
 4981SOL    HW122058   6.764   5.372   0.346  0.3874 -0.2564 -0.3572
 4981SOL    HW222059   6.852   5.272   0.418  1.3005  1.5543  1.1243
 4982SOL     OW22060   2.213   5.642   5.170 -0.2761 -0.0003  0.3476
 4982SOL    HW122061   2.134   5.589   5.157 -0.2266  0.0706 -0.2819
 4982SOL    HW222062   2.273   5.584   5.217 -0.3022 -0.4429 -0.1464
 4983SOL     OW22063   8.758   4.761  11.923 -0.0351 -0.0722 -0.1460
 4983SOL    HW122064   8.717   4.757  12.009 -1.4078  0.6663 -0.7345
 4983SOL    HW222065   8.770   4.854  11.907 -1.5449 -0.0768 -1.5232
 4984SOL     OW22066  12.014   0.092   8.548 -0.1015 -0.4477 -0.4244
 4984SOL    HW122067  12.081   0.086   8.617 -0.9144  1.1995  0.5587
 4984SOL    HW222068  11.990   0.184   8.545 -2.6885 -1.0378 -0.3885
 4985SOL     OW22069   7.340   6.694  11.747  0.5776  0.1310  0.1406
 4985SOL    HW122070   7.287   6.695  11.827  1.1225 -0.3303  0.5194
 4985SOL    HW222071   7.347   6.785  11.721 -1.5132  0.0939 -0.6651
 4986SOL     OW22072   3.979   0.829   8.941 -0.9427 -0.2877  0.5799
 4986SOL    HW122073   3.986   0.743   8.983  2.0739 -0.4480  0.0267
 4986SOL    HW222074   3.886   0.840   8.923 -1.4548 -3.3469  0.8405
 4987SOL     OW22075  11.493   7.762   7.960  0.1273 -0.1188  0.0305
 4987SOL    HW122076  11.551   7.707   8.013  0.0674 -0.1698  0.0434
 4987SOL    HW222077  11.543   7.843   7.946  0.0441 -0.0105  0.3705
 4988SOL     OW22078  10.978   2.555   1.289  0.1506 -0.0989 -0.3385
 4988SOL    HW122079  10.971   2.494   1.363  0.8732  0.5360  0.2523
 4988SOL    HW222080  10.981   2.497   1.212 -0.4039 -0.7704  0.1227
 4989SOL     OW22081  11.098   9.323   8.679  0.0509 -0.6281 -0.9296
 4989SOL    HW122082  11.076   9.235   8.710 -3.4971  0.7260  0.9037
 4989SOL    HW222083  11.045   9.335   8.600  0.2025  0.0272 -0.9335
 4990SOL     OW22084  11.551  12.751   6.528  0.7644  0.3121  0.9612
 4990SOL    HW122085  11.576  12.782   6.615 -2.0462  0.5087  1.8089
 4990SOL    HW222086  11.456  12.740   6.533  0.3441  1.2954 -2.3962
 4991SOL     OW22087   7.099   8.476   8.848  0.3551  0.0464  0.1182
 4991SOL    HW122088   7.150   8.429   8.915 -0.8472  1.6004  2.2491
 4991SOL    HW222089   7.015   8.431   8.846  0.6562 -0.5032 -1.0120
 4992SOL     OW22090   5.698  12.760  10.967 -0.6230  0.1623 -0.1797
 4992SOL    HW122091   5.716  12.761  11.061  1.2696 -1.2697 -0.4765
 4992SOL    HW222092   5.742  12.839  10.934 -1.6943  0.9297  0.1592
 4993SOL     OW22093  12.149   1.765   1.112  0.4180  0.2907 -0.4647
 4993SOL    HW122094  12.147   1.708   1.035  0.1334 -0.5253  0.1271
 4993SOL    HW222095  12.069   1.817   1.107  0.6236  0.5610 -0.9532
 4994SOL     OW22096   8.853  12.641   1.520  0.1267 -0.3765 -0.1954
 4994SOL    HW122097   8.826  12.585   1.448 -0.2845 -1.1996  0.5846
 4994SOL    HW222098   8.890  12.582   1.585 -1.7068  0.0096  1.3084
 4995SOL     OW22099   3.206   7.001   2.334 -0.2096  0.6123  0.3595
 4995SOL    HW122100   3.196   6.922   2.387 -0.1627  0.4758  0.1669
 4995SOL    HW222101   3.176   6.976   2.247  1.6973  0.1884 -0.2351
 4996SOL     OW22102   1.356  11.080   0.230 -0.2541 -0.8653 -0.3315
 4996SOL    HW122103   1.418  11.029   0.282  0.1219 -0.2577 -0.1824
 4996SOL    HW222104   1.287  11.104   0.291  0.6632  0.6719  0.1533
 4997SOL     OW22105   4.011   3.120   4.255  0.4369 -0.4256 -0.2068
 4997SOL    HW122106   4.016   3.083   4.167  0.7172 -0.6153 -0.1121
 4997SOL    HW222107   4.095   3.164   4.268  0.5836 -0.8003  0.1398
 4998SOL     OW22108   4.114   1.860   0.490  0.1967 -0.3818  0.3070
 4998SOL    HW122109   4.208   1.857   0.510  0.4395  1.4529 -0.4250
 4998SOL    HW222110   4.108   1.908   0.408 -1.2518 -2.3562 -0.8326
 4999SOL     OW22111  10.006  12.102  10.694  0.0197 -0.0715  0.3463
 4999SOL    HW122112  10.098  12.093  10.721 -0.1290  0.2359  0.9691
 4999SOL    HW222113  10.006  12.180  10.637  0.3727 -0.8565 -0.7551
 5000SOL     OW22114   5.813   5.042   7.590 -0.6212  0.1198  0.0263
 5000SOL    HW122115   5.719   5.052   7.605 -0.6987  0.0036 -0.3604
 5000SOL    HW222116   5.822   4.953   7.557 -0.5857  0.6415 -1.4559
 5001SOL     OW22117  11.410   2.746   7.833  0.5203  0.1899  0.2773
 5001SOL    HW122118  11.414   2.651   7.820  1.7870  0.2954 -0.2643
 5001SOL    HW222119  11.411   2.782   7.744 -2.0227  0.6949  0.3873
 5002SOL     OW22120   8.543   7.379   0.690  0.1591 -0.6494 -0.2451
 5002SOL    HW122121   8.584   7.316   0.749  2.3174 -0.2231 -1.2055
 5002SOL    HW222122   8.552   7.463   0.735  3.0994 -0.0905 -1.6577
 5003SOL     OW22123   9.351   9.059   9.476 -0.1819  0.2291 -0.5220
 5003SOL    HW122124   9.379   9.014   9.556  2.1131 -0.5585 -1.6841
 5003SOL    HW222125   9.285   9.001   9.437  0.0479 -0.2934 -0.1390
 5004SOL     OW22126  11.797  12.946  10.139 -1.0045 -0.0113  0.6892
 5004SOL    HW122127  11.830  13.026  10.181 -1.0441  0.4399 -0.1231
 5004SOL    HW222128  11.813  12.877  10.204  0.5124  0.3795  0.7833
 5005SOL     OW22129   4.803   8.697   1.780 -0.9730  0.0404 -0.6745
 5005SOL    HW122130   4.852   8.740   1.710  0.9294  1.1947  1.2349
 5005SOL    HW222131   4.836   8.607   1.782  2.0019  1.0102  1.1553
 5006SOL     OW22132   1.265   6.551   1.098  0.1758 -0.5468  0.6225
 5006SOL    HW122133   1.221   6.635   1.104  0.0515 -0.5942  0.4057
 5006SOL    HW222134   1.343   6.560   1.153 -0.4313 -0.6834  1.5267
 5007SOL     OW22135   7.781  11.015   3.885  0.1203  0.0341  0.4036
 5007SOL    HW122136   7.794  11.104   3.852  0.9340  0.8296  2.6894
 5007SOL    HW222137   7.710  10.980   3.831  0.9355  1.4113 -1.7172
 5008SOL     OW22138   6.766   3.803   3.666 -0.1528 -0.1691 -0.3690
 5008SOL    HW122139   6.698   3.766   3.723  0.5432 -0.5357  0.2444
 5008SOL    HW222140   6.842   3.814   3.723  0.5684 -0.5504 -1.2185
 5009SOL     OW22141   2.053  10.444   9.896 -0.8784 -0.6314 -0.1407
 5009SOL    HW122142   2.109  10.471   9.822  0.9776 -2.4828  0.4921
 5009SOL    HW222143   2.104  10.377   9.941 -2.7157 -0.8022  1.8337
 5010SOL     OW22144   6.019   7.450   9.483  0.3870  0.4582  0.7303
 5010SOL    HW122145   5.993   7.512   9.415  1.0411 -0.1531 -0.0907
 5010SOL    HW222146   5.937   7.407   9.509  0.1959  0.4054  0.0466
 5011SOL     OW22147  11.797   8.072   7.467 -0.1022 -0.3598 -0.1158
 5011SOL    HW122148  11.814   8.052   7.559 -0.4387 -0.2573 -0.0298
 5011SOL    HW222149  11.753   7.994   7.434 -1.6469  0.3002  0.2847
 5012SOL     OW22150   3.137   9.932   0.183 -0.2086  0.0033  1.0416
 5012SOL    HW122151   3.195   9.979   0.124 -1.5499 -0.4487 -0.7016
 5012SOL    HW222152   3.084  10.001   0.225  0.2451  0.2710  1.1800
 5013SOL     OW22153   4.008   0.344   3.624 -0.3098  0.3671  0.4133
 5013SOL    HW122154   3.931   0.360   3.679 -2.0274  0.6498 -1.9374
 5013SOL    HW222155   4.009   0.250   3.610 -1.1238  0.5022 -0.7035
 5014SOL     OW22156   6.649  11.837  11.776  0.4584  0.3563 -0.1552
 5014SOL    HW122157   6.560  11.815  11.749 -0.3384  1.9626  0.9947
 5014SOL    HW222158   6.701  11.831  11.696 -0.3982 -1.8511 -0.6145
 5015SOL     OW22159   7.875   7.842   1.196  0.3788 -0.1179 -0.1200
 5015SOL    HW122160   7.820   7.912   1.230  0.6169  0.4876 -0.9637
 5015SOL    HW222161   7.918   7.806   1.273 -1.4191 -0.8219  0.6145
 5016SOL     OW22162   7.375   2.321   9.280  0.2364 -0.2605 -0.6530
 5016SOL    HW122163   7.301   2.281   9.326  0.5080  1.0348  0.9976
 5016SOL    HW222164   7.338   2.352   9.197 -1.2379  0.8872  0.3851
 5017SOL     OW22165   4.475   5.812   1.204  0.6587 -0.5076  0.0659
 5017SOL    HW122166   4.550   5.816   1.263  0.9613  0.2747 -0.3584
 5017SOL    HW222167   4.401   5.844   1.256  1.0886  1.0011 -0.2239
 5018SOL     OW22168   7.505   6.560   7.826  0.1981 -0.1080 -0.0941
 5018SOL    HW122169   7.593   6.596   7.827 -0.4027  1.4783 -0.6547
 5018SOL    HW222170   7.502   6.505   7.747  1.0797 -1.3606  0.6960
 5019SOL     OW22171   8.385   3.702   2.486  0.0378 -0.1453  0.5228
 5019SOL    HW122172   8.478   3.685   2.503  0.6591  2.1479 -0.2524
 5019SOL    HW222173   8.350   3.731   2.571  0.3422  0.2026  0.5307
 5020SOL     OW22174  11.544  11.770   8.059 -0.0578  0.2090  0.5420
 5020SOL    HW122175  11.460  11.729   8.035  0.0072 -0.8055  1.9975
 5020SOL    HW222176  11.561  11.741   8.148  1.6316  0.7904  0.4410
 5021SOL     OW22177   4.370   8.395   0.996 -0.0265 -0.8587  0.5095
 5021SOL    HW122178   4.412   8.368   0.915 -0.6401 -1.6772  0.4479
 5021SOL    HW222179   4.440   8.395   1.061  0.7861  1.2263 -0.2797
 5022SOL     OW22180   3.788   4.184   9.194 -0.2933 -0.2216 -0.3007
 5022SOL    HW122181   3.790   4.117   9.263 -0.1439 -1.2763 -1.2966
 5022SOL    HW222182   3.868   4.168   9.144 -0.6245  0.2417 -0.9845
 5023SOL     OW22183   0.951  12.573   7.257 -0.2564 -0.7594 -0.5104
 5023SOL    HW122184   0.898  12.504   7.216 -0.9721  0.5391 -1.8562
 5023SOL    HW222185   0.899  12.652   7.248  0.8021  0.0807  0.4801
 5024SOL     OW22186   0.204   9.510   6.173 -0.3140  0.3434 -0.0376
 5024SOL    HW122187   0.246   9.499   6.087 -0.5029 -0.6606 -0.0144
 5024SOL    HW222188   0.221   9.601   6.196  1.3183  0.1587 -0.3282
 5025SOL     OW22189  11.887   6.510   9.468 -0.5419 -0.0723 -0.0233
 5025SOL    HW122190  11.896   6.596   9.509  0.3766  0.1128 -0.5920
 5025SOL    HW222191  11.812   6.470   9.512 -1.0300  1.0478  0.1836
 5026SOL     OW22192   8.501   6.928   3.350 -0.1604  0.0521 -0.1304
 5026SOL    HW122193   8.533   6.985   3.420 -0.1213 -0.1180 -0.0112
 5026SOL    HW222194   8.419   6.968   3.322  0.2827  0.6463 -0.6184
 5027SOL     OW22195   5.350   0.283  11.681  0.0497  0.0603  0.0410
 5027SOL    HW122196   5.434   0.256  11.718 -0.6705 -1.1033  0.9027
 5027SOL    HW222197   5.332   0.217  11.613  0.3017  0.8957 -0.8564
 5028SOL     OW22198   1.299   3.250   5.839  0.1265  0.1657  0.8013
 5028SOL    HW122199   1.205   3.251   5.857  0.0752  1.4031  0.5512
 5028SOL    HW222200   1.326   3.160   5.859 -1.3829 -0.6478 -0.5541
 5029SOL     OW22201   6.522   7.113   4.808  0.0795  0.1907 -0.1939
 5029SOL    HW122202   6.609   7.150   4.789 -0.4249  1.4350 -0.1867
 5029SOL    HW222203   6.540   7.023   4.834  1.3733  0.4112 -0.2266
 5030SOL     OW22204  12.264  10.508  11.780 -0.0534 -0.4951 -0.1528
 5030SOL    HW122205  12.196  10.451  11.743 -0.1915  0.8509 -2.1691
 5030SOL    HW222206  12.345  10.458  11.769 -0.6472 -2.3937  2.8609
 5031SOL     OW22207   2.624   3.871   6.769 -0.1130  0.1011  0.0658
 5031SOL    HW122208   2.702   3.920   6.794 -0.6119 -0.1622  2.3922
 5031SOL    HW222209   2.567   3.936   6.728  0.8589  0.5234 -0.6577
 5032SOL     OW22210   7.033   5.356   2.480 -0.1948 -1.0033 -0.5826
 5032SOL    HW122211   7.078   5.317   2.554 -0.1701 -1.3368 -0.7695
 5032SOL    HW222212   7.078   5.438   2.464 -1.5903  0.1646  1.1609
 5033SOL     OW22213  10.020   2.408   5.454  0.1484  0.4702  0.6800
 5033SOL    HW122214   9.949   2.405   5.518 -0.2626  0.7054  0.2433
 5033SOL    HW222215   9.982   2.452   5.378  0.8693  0.9367  0.5760
 5034SOL     OW22216   4.863  11.742  12.352  0.5511  0.5265  0.7058
 5034SOL    HW122217   4.887  11.656  12.388  1.0918  1.0431  1.6249
 5034SOL    HW222218   4.946  11.784  12.332  0.2801  0.7351 -0.0244
 5035SOL     OW22219   1.728   0.078   8.176 -0.7327  0.1379 -0.0309
 5035SOL    HW122220   1.810   0.117   8.208  0.0972 -0.0673 -1.7616
 5035SOL    HW222221   1.756   0.012   8.113 -2.2228  1.2554 -1.9873
 5036SOL     OW22222   1.123  10.057  10.567  0.2068  0.3792  0.5639
 5036SOL    HW122223   1.128   9.979  10.511  2.9706 -0.2286  1.5046
 5036SOL    HW222224   1.064  10.032  10.638 -0.5361 -0.0980 -0.2037
 5037SOL     OW22225  12.744   9.619  11.507  0.0642 -0.3228  0.2389
 5037SOL    HW122226  12.653   9.631  11.532  0.4162  2.4167  0.5308
 5037SOL    HW222227  12.783   9.568  11.579 -1.1556 -1.4274  0.1551
 5038SOL     OW22228   4.810   6.570   9.581  0.3366  0.2525  0.4447
 5038SOL    HW122229   4.795   6.534   9.669 -0.5097 -1.4385 -0.3481
 5038SOL    HW222230   4.783   6.661   9.588  0.3243  0.1584  1.9563
 5039SOL     OW22231  10.582   6.407   8.157 -0.5986  0.0571 -0.0808
 5039SOL    HW122232  10.547   6.474   8.099 -1.4976  0.3297  0.7479
 5039SOL    HW222233  10.627   6.456   8.226 -1.3712 -0.1605  0.6016
 5040SOL     OW22234   6.428   4.328   0.440  0.3708 -0.1976  0.8098
 5040SOL    HW122235   6.497   4.267   0.464 -0.5524 -1.0030  1.5228
 5040SOL    HW222236   6.351   4.273   0.427 -0.4819  0.8068  1.4322
 5041SOL     OW22237   9.811   6.791   1.768  0.2421 -0.2605 -0.2701
 5041SOL    HW122238   9.754   6.715   1.754 -1.9625  1.1533  0.6143
 5041SOL    HW222239   9.815   6.802   1.863 -1.3923  2.0437 -0.3957
 5042SOL     OW22240   1.525  10.199   3.555  0.1243  0.2061 -0.0935
 5042SOL    HW122241   1.523  10.242   3.641 -1.1670 -2.0718  1.1133
 5042SOL    HW222242   1.442  10.224   3.514 -1.2697 -2.0041  1.1695
 5043SOL     OW22243   0.108   3.447  12.280  0.2922  0.2930 -0.1451
 5043SOL    HW122244   0.039   3.513  12.281 -0.1507 -0.0357 -2.9748
 5043SOL    HW222245   0.069   3.372  12.326 -0.8957  0.4665 -0.8280
 5044SOL     OW22246   3.003   1.959   7.014 -0.1554 -0.2168 -0.1338
 5044SOL    HW122247   2.930   2.009   7.051 -1.1627 -0.8076 -1.2751
 5044SOL    HW222248   2.967   1.871   7.001  0.4738 -0.2795 -1.5647
 5045SOL     OW22249   9.078   3.394   2.367  0.3139 -0.8903 -0.0370
 5045SOL    HW122250   9.055   3.454   2.297  0.1467 -1.8771 -0.8483
 5045SOL    HW222251   9.057   3.441   2.448  1.3980  0.6284 -0.6040
 5046SOL     OW22252   6.539   5.297  11.633  0.1905  0.5379  0.1278
 5046SOL    HW122253   6.561   5.210  11.600  2.2116  1.0782 -0.1308
 5046SOL    HW222254   6.543   5.353  11.555 -0.5290  0.9666  0.3875
 5047SOL     OW22255   7.692   7.823   4.245 -0.2431 -0.1304 -0.0783
 5047SOL    HW122256   7.667   7.733   4.264  0.2511 -0.4440 -0.8439
 5047SOL    HW222257   7.615   7.862   4.204  0.0992 -0.7449 -1.3629
 5048SOL     OW22258   0.533   1.275  12.250  0.2866 -0.5025 -0.0945
 5048SOL    HW122259   0.584   1.242  12.176 -0.0819 -0.5190 -0.3417
 5048SOL    HW222260   0.596   1.281  12.322  0.4085 -1.5137 -0.1096
 5049SOL     OW22261   2.783   6.665   9.768  0.7942 -0.5947  0.5320
 5049SOL    HW122262   2.716   6.597   9.758  1.6527 -1.2019 -1.7335
 5049SOL    HW222263   2.863   6.617   9.788  0.8530  0.0178  1.8484
 5050SOL     OW22264   4.860  10.632  10.115  0.2064 -0.6080 -0.2594
 5050SOL    HW122265   4.834  10.723  10.101  0.7845  0.1715  2.8350
 5050SOL    HW222266   4.780  10.590  10.149  0.6915 -0.3704  1.2809
 5051SOL     OW22267  11.974  12.782   3.889  0.0459 -0.5615 -0.0372
 5051SOL    HW122268  11.911  12.773   3.817  0.0931 -1.5687  0.0435
 5051SOL    HW222269  11.979  12.877   3.904 -1.2046 -0.4462 -0.2617
 5052SOL     OW22270   2.733   2.343   5.968 -0.4231  0.2115  0.0972
 5052SOL    HW122271   2.737   2.397   5.889 -2.4268  0.6063  0.1935
 5052SOL    HW222272   2.688   2.263   5.939 -0.5481  0.0660  0.6854
 5053SOL     OW22273   9.567   6.908   5.584 -0.0994  0.5958 -0.4623
 5053SOL    HW122274   9.575   6.923   5.490 -0.2965  1.4428 -0.3518
 5053SOL    HW222275   9.606   6.986   5.624  1.8746 -0.6474  0.2038
 5054SOL     OW22276   4.066   2.389   2.446 -0.5678  0.0843  0.1060
 5054SOL    HW122277   4.024   2.474   2.429 -1.9861 -0.6241 -0.0918
 5054SOL    HW222278   4.038   2.334   2.373 -0.3994 -0.8115  0.7056
 5055SOL     OW22279   7.393   2.758   7.775  0.1812  0.4141 -0.6665
 5055SOL    HW122280   7.408   2.745   7.681  0.3839 -1.1597 -0.4306
 5055SOL    HW222281   7.376   2.671   7.809 -0.8218  1.0835  0.6158
 5056SOL     OW22282   3.377   6.737   4.178 -0.3105  0.3375  0.0670
 5056SOL    HW122283   3.376   6.706   4.088  1.0576  0.4683 -0.0168
 5056SOL    HW222284   3.286   6.759   4.198 -0.7329 -0.3667 -1.0400
 5057SOL     OW22285   1.061   7.537   3.462 -0.0238 -0.6278 -0.2777
 5057SOL    HW122286   0.987   7.594   3.443 -0.9120 -0.7300  2.3937
 5057SOL    HW222287   1.022   7.459   3.501  1.4390 -0.2679  2.1342
 5058SOL     OW22288   9.499   0.994   0.321 -0.2815  0.1035  0.0914
 5058SOL    HW122289   9.568   0.938   0.285 -0.6846 -0.4691  0.2092
 5058SOL    HW222290   9.494   0.970   0.413 -0.2903  0.5090  0.2001
 5059SOL     OW22291  11.211   6.995   1.495  0.6729 -0.3445  0.0620
 5059SOL    HW122292  11.123   6.957   1.496 -0.2806  1.7664  1.2438
 5059SOL    HW222293  11.221   7.030   1.406  0.5977 -1.1074 -0.2607
 5060SOL     OW22294   6.886  10.144   7.774 -0.1950 -0.0838 -0.1595
 5060SOL    HW122295   6.801  10.146   7.729 -1.6835 -1.8380  2.2952
 5060SOL    HW222296   6.870  10.190   7.856  1.5606  0.4252 -0.0775
 5061SOL     OW22297  12.507   9.118   5.205 -0.2590 -0.0792  0.4381
 5061SOL    HW122298  12.462   9.097   5.123  0.1303  0.5357  0.0578
 5061SOL    HW222299  12.497   9.040   5.259  1.1231 -1.2719 -0.9215
 5062SOL     OW22300   6.218   6.698   5.758  0.4285  0.5373  0.7696
 5062SOL    HW122301   6.196   6.617   5.804  2.4194  0.5212  1.7942
 5062SOL    HW222302   6.228   6.672   5.667  0.9502 -0.3680  1.0744
 5063SOL     OW22303   1.393   6.398   0.654 -0.3004 -0.2979 -0.4012
 5063SOL    HW122304   1.337   6.438   0.720  2.2250  0.2185  1.6147
 5063SOL    HW222305   1.399   6.464   0.585 -0.0886  0.7830  0.6037
 5064SOL     OW22306   1.689   3.952   8.966  0.3635 -0.2093 -0.8690
 5064SOL    HW122307   1.727   4.018   9.024  0.3398 -0.3961 -0.6402
 5064SOL    HW222308   1.752   3.880   8.967 -0.2475 -0.7438 -0.0621
 5065SOL     OW22309   9.002   6.600   0.135 -0.0309  0.2884  0.3265
 5065SOL    HW122310   9.045   6.672   0.090  0.8260 -0.2574  0.2489
 5065SOL    HW222311   9.039   6.601   0.223  0.0715 -0.1175  0.2900
 5066SOL     OW22312   3.467   3.075   7.005  0.1503  0.1750  0.6052
 5066SOL    HW122313   3.535   3.037   6.949 -0.3385 -0.0575  0.1544
 5066SOL    HW222314   3.455   3.010   7.074  0.6764  0.4106  0.9250
 5067SOL     OW22315   5.696   7.256   5.634  0.3078 -0.2004 -0.5427
 5067SOL    HW122316   5.758   7.246   5.562  0.1616  1.9275 -1.0174
 5067SOL    HW222317   5.726   7.193   5.700  2.1967 -0.1378 -1.2859
 5068SOL     OW22318   5.502   7.200  10.910 -0.2551 -0.2328  0.2537
 5068SOL    HW122319   5.408   7.200  10.923 -0.5681 -0.9431 -1.6867
 5068SOL    HW222320   5.514   7.199  10.815  1.7138  0.1827  0.4363
 5069SOL     OW22321  12.024   6.350   7.416  0.1732  0.0900 -0.6037
 5069SOL    HW122322  11.998   6.258   7.418  1.3320 -0.2425 -0.0246
 5069SOL    HW222323  12.112   6.350   7.452  0.8579  1.2004 -2.1674
 5070SOL     OW22324   3.485   2.904   1.783  0.4064  0.6146 -0.9133
 5070SOL    HW122325   3.408   2.867   1.825  1.1140 -0.0038 -0.1130
 5070SOL    HW222326   3.452   2.977   1.731 -1.1177 -1.4841 -3.0540
 5071SOL     OW22327  11.276   1.648   9.075  0.0216 -0.5014  0.1807
 5071SOL    HW122328  11.315   1.694   9.000  1.4994  0.2815  1.3661
 5071SOL    HW222329  11.317   1.562   9.074 -0.2661 -0.6370 -0.1357
 5072SOL     OW22330   9.949   0.841  11.841  0.0330 -0.7850  0.3319
 5072SOL    HW122331  10.041   0.816  11.851  0.2999  0.1477  0.2835
 5072SOL    HW222332   9.918   0.787  11.768 -0.0047 -2.5041  1.5453
 5073SOL     OW22333   2.679   6.667   6.048  0.0557  0.1415  0.6362
 5073SOL    HW122334   2.699   6.574   6.058 -3.8958 -0.7784  1.7274
 5073SOL    HW222335   2.618   6.671   5.974 -0.0477  1.8347  0.7693
 5074SOL     OW22336   8.327   7.364   3.327 -0.6585  0.1681  0.0575
 5074SOL    HW122337   8.344   7.292   3.266  1.2466 -0.3242  1.0768
 5074SOL    HW222338   8.411   7.376   3.372 -0.9839  2.9127  0.0593
 5075SOL     OW22339   6.720   1.475   7.452 -0.7619 -0.1253 -0.1884
 5075SOL    HW122340   6.660   1.508   7.518  0.7419  1.4330  0.4741
 5075SOL    HW222341   6.722   1.544   7.385  1.0349  0.3752  0.3176
 5076SOL     OW22342   1.225   0.847   6.212 -0.7393  0.1823  0.4238
 5076SOL    HW122343   1.151   0.822   6.267 -0.7579 -0.4772  0.1094
 5076SOL    HW222344   1.204   0.936   6.184 -2.2446 -0.5667 -1.0053
 5077SOL     OW22345  12.663  10.947   0.528 -0.4525 -0.0350 -0.1580
 5077SOL    HW122346  12.598  10.981   0.589  0.5033 -0.8297  1.3638
 5077SOL    HW222347  12.612  10.900   0.462 -1.5378  1.2100 -0.2467
 5078SOL     OW22348   1.066   3.748   8.934 -0.4064 -0.3940 -0.3882
 5078SOL    HW122349   1.003   3.803   8.888  0.5452  0.0024 -1.2859
 5078SOL    HW222350   1.076   3.671   8.878 -1.0037 -1.0296  0.3709
 5079SOL     OW22351   3.568   4.391   7.991  0.6640 -0.5113  0.0060
 5079SOL    HW122352   3.559   4.326   8.061 -0.9840  0.7564  1.0514
 5079SOL    HW222353   3.656   4.428   8.003  0.8955 -1.2273  0.5786
 5080SOL     OW22354   1.999   3.191  10.903  0.0145  0.1368  0.3098
 5080SOL    HW122355   2.010   3.098  10.888 -0.2261  0.0241  0.8050
 5080SOL    HW222356   2.047   3.208  10.984  0.6392  0.5754 -0.1404
 5081SOL     OW22357   7.865   4.280   7.846 -0.0408  0.0795  0.2305
 5081SOL    HW122358   7.802   4.352   7.838  0.6381  0.7736  0.8091
 5081SOL    HW222359   7.843   4.238   7.929 -0.2677 -0.2014  0.0255
 5082SOL     OW22360  11.872   8.667   9.049  0.3011  0.6698  0.0732
 5082SOL    HW122361  11.958   8.694   9.081  0.6899  1.7677 -1.7478
 5082SOL    HW222362  11.873   8.691   8.957 -1.1822 -1.2801 -0.5053
 5083SOL     OW22363   5.133   8.843   6.030  0.2891 -0.3218  0.2715
 5083SOL    HW122364   5.162   8.913   6.089  0.6246 -0.9333  0.8436
 5083SOL    HW222365   5.208   8.826   5.974  0.0706  0.0501 -0.1442
 5084SOL     OW22366   5.261   1.244   6.142 -0.5464 -0.0354 -0.0191
 5084SOL    HW122367   5.221   1.327   6.115  0.4820  0.4360 -0.1902
 5084SOL    HW222368   5.188   1.186   6.160 -1.2891  0.3649 -1.5947
 5085SOL     OW22369  11.884   7.414   0.363  0.3036 -0.2228 -0.0982
 5085SOL    HW122370  11.861   7.420   0.270 -0.9285 -0.0928  0.1931
 5085SOL    HW222371  11.815   7.465   0.408 -1.1749 -3.0909  1.1557
 5086SOL     OW22372   1.991   4.344   2.858 -0.3921  0.1046 -0.8394
 5086SOL    HW122373   1.945   4.279   2.805 -1.5956  0.6273 -0.4708
 5086SOL    HW222374   1.921   4.392   2.903  0.5612  0.0066  0.8413
 5087SOL     OW22375  11.779  11.188   0.729  0.3862  0.7903 -0.0717
 5087SOL    HW122376  11.769  11.161   0.821  1.0518  0.6582 -0.0294
 5087SOL    HW222377  11.830  11.269   0.733  2.6911 -0.5450 -0.4110
 5088SOL     OW22378   9.681   6.087  12.140  0.0920 -0.0362 -0.0256
 5088SOL    HW122379   9.622   6.049  12.075  1.8526 -1.6293 -0.7965
 5088SOL    HW222380   9.633   6.161  12.176 -1.6262 -0.1444 -1.9233
 5089SOL     OW22381   6.190   8.434   1.168  0.3543 -0.6929 -0.3819
 5089SOL    HW122382   6.135   8.371   1.214 -0.6052 -0.0820 -0.6570
 5089SOL    HW222383   6.133   8.469   1.099  0.8006  0.6019 -0.1281
 5090SOL     OW22384   4.387  10.842   2.565 -0.5068 -0.2745 -0.1631
 5090SOL    HW122385   4.417  10.754   2.544  1.7734  0.6848 -1.2237
 5090SOL    HW222386   4.339  10.871   2.487 -0.0648 -0.0900 -0.3695
 5091SOL     OW22387  12.843  12.899   2.578  0.0751  0.3172  0.0391
 5091SOL    HW122388  12.759  12.870   2.543  0.3298  1.8052 -1.9718
 5091SOL    HW222389  12.859  12.983   2.535  2.1021  0.5828  1.1887
 5092SOL     OW22390  11.805  10.490   6.210  0.4422 -0.4883  0.2630
 5092SOL    HW122391  11.876  10.460   6.153  0.6240  0.1298  0.1558
 5092SOL    HW222392  11.760  10.558   6.159  1.3807  0.9836  1.3198
 5093SOL     OW22393   1.160   9.962   5.776  0.7223 -0.2156  0.3756
 5093SOL    HW122394   1.255   9.972   5.777  0.6825  0.3355 -0.6230
 5093SOL    HW222395   1.135   9.982   5.686 -0.0111 -3.3953 -0.2475
 5094SOL     OW22396   2.547   8.775  11.044  0.3145 -0.6962 -0.4320
 5094SOL    HW122397   2.578   8.706  10.985  2.0710 -0.0276 -0.3746
 5094SOL    HW222398   2.585   8.855  11.007 -0.8053  0.1019  0.0996
 5095SOL     OW22399   3.872   9.656   9.202  0.5494  0.1464 -0.6589
 5095SOL    HW122400   3.843   9.664   9.293  1.0139 -1.9996 -0.2796
 5095SOL    HW222401   3.962   9.687   9.202  0.4429  0.4629 -0.4724
 5096SOL     OW22402   5.944   4.151   6.680  1.2006  0.7781  0.4641
 5096SOL    HW122403   6.031   4.116   6.699  0.1080 -0.9642  2.5975
 5096SOL    HW222404   5.948   4.242   6.709  1.8462  0.2472  2.1442
 5097SOL     OW22405   7.945   3.805   3.913  0.3705  0.7694  0.2319
 5097SOL    HW122406   7.935   3.752   3.834  0.3453  0.1055  0.6700
 5097SOL    HW222407   7.856   3.818   3.945  0.2660  2.2082 -0.5906
 5098SOL     OW22408  12.642   0.251   5.953  0.3472 -0.2076 -0.0997
 5098SOL    HW122409  12.587   0.253   6.032 -0.6272 -1.3692 -0.7301
 5098SOL    HW222410  12.660   0.343   5.935 -1.1758  0.1970  0.2826
 5099SOL     OW22411   9.794   6.676  12.968 -0.3901  0.1665 -0.1783
 5099SOL    HW122412   9.704   6.704  12.953 -0.0952  1.1893 -0.0753
 5099SOL    HW222413   9.794   6.583  12.943 -1.0625  0.5763 -1.7907
 5100SOL     OW22414   7.401  10.434  11.073  0.0492 -0.2464  0.5292
 5100SOL    HW122415   7.331  10.426  11.139  0.2959 -3.0049  0.5558
 5100SOL    HW222416   7.355  10.461  10.994 -0.0937  4.4954  1.9438
 5101SOL     OW22417   8.326   3.415   4.121  0.4904 -0.2418  0.5433
 5101SOL    HW122418   8.368   3.498   4.098 -2.8376  2.2365  2.4055
 5101SOL    HW222419   8.390   3.368   4.174  2.9519  0.4119 -1.6337
 5102SOL     OW22420   2.954   0.743   0.159  0.6269  0.0699  0.3690
 5102SOL    HW122421   2.870   0.715   0.195  1.7765 -0.3482  2.9080
 5102SOL    HW222422   2.948   0.839   0.156  0.0785  0.0435  0.5429
 5103SOL     OW22423   8.159  12.920   4.768 -0.6583  0.1941  0.4807
 5103SOL    HW122424   8.084  12.940   4.824 -1.5956  1.6413 -1.1968
 5103SOL    HW222425   8.126  12.928   4.679  1.6819  1.7127 -0.3354
 5104SOL     OW22426   1.982   0.325  11.222  0.4931 -0.2095 -0.2750
 5104SOL    HW122427   1.943   0.325  11.309  0.6347  0.6241 -0.2020
 5104SOL    HW222428   1.912   0.356  11.164  0.4181 -0.7008 -0.4476
 5105SOL     OW22429   9.949   1.247   0.627  0.9899 -0.2093  0.5247
 5105SOL    HW122430   9.923   1.279   0.714  0.4466 -0.1680  0.3518
 5105SOL    HW222431  10.042   1.226   0.636  1.5777  2.0710  0.4520
 5106SOL     OW22432   4.398  11.416  12.424  0.2451  0.5181 -0.3819
 5106SOL    HW122433   4.304  11.427  12.407  0.4470  0.9439 -1.2345
 5106SOL    HW222434   4.415  11.472  12.500 -0.3880 -0.3753  0.4678
 5107SOL     OW22435   7.215   9.076   4.802 -0.1312 -0.4208  0.1448
 5107SOL    HW122436   7.251   8.988   4.794  0.0366 -0.2052 -1.8754
 5107SOL    HW222437   7.181   9.096   4.715 -1.5881  0.9206  0.9750
 5108SOL     OW22438   3.913   1.241   0.851  0.6302 -0.1558  0.1578
 5108SOL    HW122439   3.844   1.214   0.790  0.4579 -0.3199  0.4251
 5108SOL    HW222440   3.970   1.165   0.859  0.5099 -0.2233  0.3987
 5109SOL     OW22441   8.526  12.540   0.491 -0.2682 -0.3271  0.2733
 5109SOL    HW122442   8.465  12.573   0.425  0.8679  0.4289 -0.4465
 5109SOL    HW222443   8.550  12.453   0.460 -1.3604 -0.8373  0.8340
 5110SOL     OW22444   3.201   0.840   1.920 -0.8976  0.4592  0.1611
 5110SOL    HW122445   3.144   0.763   1.931 -1.4851  1.0405  1.3427
 5110SOL    HW222446   3.149   0.913   1.953 -0.0531  1.2606 -0.2373
 5111SOL     OW22447  11.294   9.273   0.550 -0.3758 -0.1811 -0.0685
 5111SOL    HW122448  11.375   9.278   0.499  0.1149  0.9995  0.7872
 5111SOL    HW222449  11.293   9.354   0.602 -1.1067 -1.1160  1.4220
 5112SOL     OW22450   5.328  11.833   3.124 -0.2520 -0.7007  0.3604
 5112SOL    HW122451   5.374  11.758   3.087 -0.1036 -0.5195  0.1721
 5112SOL    HW222452   5.398  11.892   3.152 -0.3476 -1.1797  1.6580
 5113SOL     OW22453   3.715   2.444   9.551  0.2750  0.1256 -0.0063
 5113SOL    HW122454   3.774   2.449   9.476 -1.8723 -0.6157 -1.8312
 5113SOL    HW222455   3.689   2.535   9.568  0.5442  0.2663 -0.3514
 5114SOL     OW22456   4.266   6.238   0.447 -0.4801 -0.1413 -0.4783
 5114SOL    HW122457   4.221   6.182   0.511 -3.0849  1.5651 -0.6995
 5114SOL    HW222458   4.319   6.297   0.501 -1.2460  0.1163  0.0037
 5115SOL     OW22459   1.901   5.356   5.480  0.2396 -0.5869  0.0391
 5115SOL    HW122460   1.919   5.263   5.473  0.8107 -0.4247 -0.8086
 5115SOL    HW222461   1.806   5.363   5.468  0.2289 -1.0368 -0.1576
 5116SOL     OW22462  12.052   0.253   1.939 -0.1939  0.0948 -0.0922
 5116SOL    HW122463  12.138   0.214   1.956 -0.6447 -0.6668  0.5360
 5116SOL    HW222464  12.013   0.196   1.873  1.1194  2.4298 -3.1071
 5117SOL     OW22465   9.856   0.806   2.171  0.4685  0.1340  0.8320
 5117SOL    HW122466   9.866   0.715   2.143  1.1500  0.4344  0.0713
 5117SOL    HW222467   9.887   0.806   2.262  1.7164 -0.1547  0.4230
 5118SOL     OW22468   3.261   2.183   9.265 -0.5629  0.4916  0.4537
 5118SOL    HW122469   3.310   2.149   9.189 -0.8075 -0.2508  0.6222
 5118SOL    HW222470   3.178   2.212   9.228 -0.5475  0.4489  0.3833
 5119SOL     OW22471   4.567   9.063   7.681  0.0571  0.0861  0.2266
 5119SOL    HW122472   4.662   9.061   7.677  0.0532  0.0370  0.1374
 5119SOL    HW222473   4.539   8.985   7.633 -0.0040 -0.7798  1.6234
 5120SOL     OW22474   0.470   1.965   6.548  0.0524 -0.6615  0.0977
 5120SOL    HW122475   0.473   1.881   6.502  0.3046 -0.3441 -0.4752
 5120SOL    HW222476   0.486   2.030   6.479  0.9862 -0.2126  0.7191
 5121SOL     OW22477   0.153   7.394   6.500 -0.0190  0.1252  0.3107
 5121SOL    HW122478   0.090   7.343   6.449  0.5963  1.6345 -2.1249
 5121SOL    HW222479   0.101   7.464   6.541 -0.3613 -0.4898  0.9461
 5122SOL     OW22480   3.344  11.671   6.556  0.4515  0.1268 -0.0762
 5122SOL    HW122481   3.300  11.624   6.626  0.0683  1.6245  0.7488
 5122SOL    HW222482   3.380  11.603   6.499 -1.5642 -1.1334  0.0791
 5123SOL     OW22483   0.062   8.498   8.578 -0.3254 -0.1645  0.1861
 5123SOL    HW122484   0.151   8.518   8.608  0.6127 -1.3171 -1.6362
 5123SOL    HW222485   0.009   8.572   8.608  0.9044 -0.2137  2.6964
 5124SOL     OW22486   5.534  12.011   5.249 -0.2218 -0.5654  0.0312
 5124SOL    HW122487   5.577  12.072   5.309 -1.5527 -0.1172  0.5943
 5124SOL    HW222488   5.508  12.064   5.174 -1.3720 -0.4010  0.5164
 5125SOL     OW22489   5.494  12.144  10.769  0.4005  0.1339 -0.0360
 5125SOL    HW122490   5.570  12.181  10.724  0.9102  0.9095  1.3754
 5125SOL    HW222491   5.492  12.189  10.854 -0.7043 -1.0118  0.5927
 5126SOL     OW22492   1.282   6.962   3.441  0.1824  0.0329 -0.0929
 5126SOL    HW122493   1.224   6.987   3.369 -1.6783 -0.3657  1.2045
 5126SOL    HW222494   1.288   6.866   3.433 -0.3940 -0.0619  0.5149
 5127SOL     OW22495  11.291   8.095  12.478 -0.4773  0.2083 -0.0134
 5127SOL    HW122496  11.314   8.169  12.535  0.8009 -2.2433  2.9875
 5127SOL    HW222497  11.371   8.077  12.429 -0.4695  0.2334 -0.0102
 5128SOL     OW22498   1.618   4.774  12.760  0.7703  0.4176  0.6090
 5128SOL    HW122499   1.594   4.858  12.800 -0.4535  1.1909 -1.5859
 5128SOL    HW222500   1.578   4.708  12.817 -0.4360  1.4294  0.9735
 5129SOL     OW22501   6.123   3.566   5.281 -0.0449 -0.0278  0.2214
 5129SOL    HW122502   6.095   3.653   5.311  2.2439  1.5337 -1.8826
 5129SOL    HW222503   6.066   3.547   5.207  0.0138  0.0679  0.1513
 5130SOL     OW22504   4.736   6.529   3.759 -0.4387  0.3274 -0.7584
 5130SOL    HW122505   4.662   6.589   3.765  0.4260  1.3221  0.7530
 5130SOL    HW222506   4.809   6.577   3.797  0.1106 -1.9505  1.3738
 5131SOL     OW22507   5.220   7.326   4.088 -0.1879 -0.3240  0.0788
 5131SOL    HW122508   5.304   7.281   4.090 -0.6904 -1.2609  0.8532
 5131SOL    HW222509   5.241   7.414   4.058  1.3364 -0.0098  1.8631
 5132SOL     OW22510  10.055   6.815  12.534 -0.2082 -0.2230  0.4145
 5132SOL    HW122511   9.989   6.865  12.487  0.7260 -0.9824 -1.8727
 5132SOL    HW222512  10.012   6.732  12.557  0.2549 -1.3636 -2.4361
 5133SOL     OW22513   1.086   8.132   2.086 -0.1657  0.6797 -0.5699
 5133SOL    HW122514   1.164   8.085   2.055 -0.2776  0.8272 -1.0690
 5133SOL    HW222515   1.122   8.209   2.130  0.1810 -1.0741  2.5206
 5134SOL     OW22516   2.498   8.904   7.331 -0.1682  0.7356 -0.3202
 5134SOL    HW122517   2.555   8.862   7.266  0.5396  3.0680 -1.3091
 5134SOL    HW222518   2.419   8.928   7.282 -1.1911 -0.6548  0.5698
 5135SOL     OW22519   2.914   6.791   7.628 -0.1678  0.1263  0.0192
 5135SOL    HW122520   2.939   6.711   7.581 -0.4018 -0.5486  1.0057
 5135SOL    HW222521   2.870   6.844   7.562  1.5949  0.2570 -1.1141
 5136SOL     OW22522   5.127  10.703   4.807  0.3980 -0.2472  1.1065
 5136SOL    HW122523   5.091  10.778   4.855  0.1912 -0.0670  0.6723
 5136SOL    HW222524   5.180  10.743   4.738 -0.2345 -0.4969  0.4712
 5137SOL     OW22525   9.059   2.440   9.483  0.8147  0.1840 -0.4262
 5137SOL    HW122526   8.965   2.435   9.497  1.0347 -1.2082  0.8368
 5137SOL    HW222527   9.095   2.448   9.572  1.8567  1.6499 -0.9387
 5138SOL     OW22528   0.914   8.105   0.342  0.1327  0.3156  0.3738
 5138SOL    HW122529   0.977   8.098   0.270 -0.3545 -0.3316  0.0047
 5138SOL    HW222530   0.888   8.197   0.342 -0.7767  0.0785 -1.0638
 5139SOL     OW22531   0.212  10.753  11.617 -0.5336  0.2612  0.0802
 5139SOL    HW122532   0.263  10.684  11.659  1.2795  0.9308 -0.9198
 5139SOL    HW222533   0.227  10.831  11.672  0.4018  0.7068 -0.7741
 5140SOL     OW22534  10.121   9.676   7.659 -0.0266 -0.2380 -0.0940
 5140SOL    HW122535  10.149   9.596   7.615  0.0171  0.4370 -1.3413
 5140SOL    HW222536  10.029   9.661   7.679 -0.4065 -0.0825 -1.6019
 5141SOL     OW22537   6.660   2.472  10.381  0.0212  0.3079  0.4914
 5141SOL    HW122538   6.593   2.465  10.313 -2.0765  3.3197  2.0131
 5141SOL    HW222539   6.709   2.550  10.357  0.6392  0.1799  1.3276
 5142SOL     OW22540   1.195   4.526   5.879  0.5346 -0.7924 -0.1364
 5142SOL    HW122541   1.139   4.604   5.883  3.3073  1.3019  0.9595
 5142SOL    HW222542   1.201   4.496   5.969  0.5739 -1.4986 -0.3665
 5143SOL     OW22543  10.951   2.375   3.228  0.0356 -0.2586  0.7213
 5143SOL    HW122544  11.025   2.389   3.288  0.2040 -0.9364  0.6750
 5143SOL    HW222545  10.935   2.281   3.232 -0.2667 -0.2346  0.0666
 5144SOL     OW22546   7.234   1.997   2.380 -0.0281 -0.1888  0.1805
 5144SOL    HW122547   7.255   1.959   2.295 -0.7854 -0.5238  0.1340
 5144SOL    HW222548   7.184   1.929   2.425  0.2315  0.0414  0.8409
 5145SOL     OW22549  12.592  12.546   8.627 -0.4427 -0.2881 -0.1740
 5145SOL    HW122550  12.498  12.557   8.614 -0.1778 -0.5790 -2.7676
 5145SOL    HW222551  12.620  12.484   8.560  1.6924  0.1986  0.1650
 5146SOL     OW22552   7.782   4.813   9.584  0.1614  0.4802  0.0945
 5146SOL    HW122553   7.704   4.868   9.584  1.0908  1.8778  1.3170
 5146SOL    HW222554   7.818   4.823   9.495 -0.1069  1.2364  0.0642
 5147SOL     OW22555  11.052  12.281  11.232  0.2618 -0.1906  0.2648
 5147SOL    HW122556  11.018  12.303  11.319  0.1051 -0.7898  0.3560
 5147SOL    HW222557  10.985  12.313  11.172  0.1322 -0.2321  0.3857
 5148SOL     OW22558   9.456   3.307  12.933  0.3671 -0.0963  0.0443
 5148SOL    HW122559   9.373   3.325  12.977 -0.2373 -2.0986 -0.1468
 5148SOL    HW222560   9.489   3.392  12.906 -0.9076  0.8695  1.4076
 5149SOL     OW22561   7.726  11.371  10.468 -0.2667 -0.3228  0.4533
 5149SOL    HW122562   7.755  11.284  10.494 -0.0657 -0.8705 -1.4530
 5149SOL    HW222563   7.806  11.418  10.445 -0.1032  1.2276  3.5932
 5150SOL     OW22564   6.123   8.801   1.821 -0.7698 -0.2286  0.2025
 5150SOL    HW122565   6.214   8.770   1.822 -0.3327  0.8472 -1.6239
 5150SOL    HW222566   6.071   8.722   1.812 -0.0748 -0.9053  1.7172
 5151SOL     OW22567   5.957   9.941   4.332 -0.2768 -0.1007 -0.5904
 5151SOL    HW122568   5.997   9.986   4.407 -3.4207  2.0938 -0.0481
 5151SOL    HW222569   5.972   9.848   4.349 -0.0617  0.3736  2.2989
 5152SOL     OW22570   5.686   2.322  10.186 -0.1003  0.2720  0.2818
 5152SOL    HW122571   5.734   2.332  10.104 -1.6584 -0.4286 -0.7727
 5152SOL    HW222572   5.685   2.410  10.224  0.5735  0.6252 -0.4802
 5153SOL     OW22573   2.636  11.810  10.224 -0.1660 -0.3008  0.3989
 5153SOL    HW122574   2.625  11.719  10.250 -1.9733 -0.8871 -2.0492
 5153SOL    HW222575   2.549  11.849  10.237  0.8046  1.4079  2.3283
 5154SOL     OW22576   4.691  10.629   0.991  0.0340  0.2493  0.0771
 5154SOL    HW122577   4.638  10.582   1.056 -1.6069  1.1647 -0.5652
 5154SOL    HW222578   4.726  10.559   0.935  0.4730 -0.4542  1.1889
 5155SOL     OW22579   6.496   1.681   9.130 -0.1212 -0.5903 -0.2025
 5155SOL    HW122580   6.516   1.619   9.199  0.5055 -0.0513  0.1035
 5155SOL    HW222581   6.403   1.701   9.142  0.2486  0.4050  1.2397
 5156SOL     OW22582   1.549   6.465   4.788 -0.3722 -0.5010  0.5245
 5156SOL    HW122583   1.636   6.486   4.824 -1.6320  0.7796  3.0682
 5156SOL    HW222584   1.562   6.381   4.743  1.9778 -0.8221  1.6131
 5157SOL     OW22585   4.401   5.526  11.611  0.2665 -0.0505  0.2222
 5157SOL    HW122586   4.433   5.441  11.641  0.4569 -0.2142 -0.4296
 5157SOL    HW222587   4.310   5.529  11.640 -0.2338 -1.1706 -1.1506
 5158SOL     OW22588  11.393  10.473   9.864  0.0838  0.1743 -0.4621
 5158SOL    HW122589  11.306  10.483   9.824  0.0824 -0.0548 -0.5179
 5158SOL    HW222590  11.451  10.524   9.807  0.3502 -1.4215 -1.6904
 5159SOL     OW22591   3.750   2.944   4.034 -0.5053  0.2886 -0.4464
 5159SOL    HW122592   3.742   2.890   4.112 -1.1265 -0.7987 -1.2278
 5159SOL    HW222593   3.826   2.908   3.988 -1.1697 -0.2334 -1.1769
 5160SOL     OW22594   9.541   7.779   2.304  0.4057  0.4846  0.1601
 5160SOL    HW122595   9.500   7.804   2.387 -1.9060 -0.3989 -0.6440
 5160SOL    HW222596   9.629   7.750   2.328 -1.0542 -2.3611  2.7569
 5161SOL     OW22597   9.001   6.288   7.161  0.7355  0.3393  0.7502
 5161SOL    HW122598   9.030   6.369   7.120 -1.4384  0.4568 -0.7735
 5161SOL    HW222599   8.977   6.231   7.088 -0.4640 -0.5867  1.8017
 5162SOL     OW22600  10.575  10.060   6.685 -0.6984  0.6980 -0.5339
 5162SOL    HW122601  10.540   9.974   6.662 -0.4757  0.4949 -0.1179
 5162SOL    HW222602  10.614  10.048   6.771 -2.8941  1.8047  0.7016
 5163SOL     OW22603   5.678   4.156   2.595 -1.0519 -0.0179 -0.0325
 5163SOL    HW122604   5.660   4.075   2.642 -1.6595 -1.4252 -2.5319
 5163SOL    HW222605   5.770   4.148   2.568 -0.6845  0.8125  0.9168
 5164SOL     OW22606  11.870   7.242   8.462 -0.5948  0.4320  0.5244
 5164SOL    HW122607  11.888   7.149   8.474  2.0602  0.8410  0.3188
 5164SOL    HW222608  11.903   7.283   8.542  0.5822  1.4013 -0.4152
 5165SOL     OW22609  10.086   1.493  12.105  0.1068 -0.0402  0.5292
 5165SOL    HW122610  10.126   1.503  12.191  0.4600  1.0184  0.2553
 5165SOL    HW222611  10.114   1.571  12.056 -1.9895  0.5626  0.2047
 5166SOL     OW22612  11.211   5.551   6.490  0.6544  0.0311 -0.1118
 5166SOL    HW122613  11.271   5.624   6.506  0.0554  0.8938 -1.5729
 5166SOL    HW222614  11.209   5.543   6.394 -0.0296 -1.2823 -0.0049
 5167SOL     OW22615   1.311   6.933   0.996  0.2411  0.4182 -0.1360
 5167SOL    HW122616   1.391   6.928   1.049  0.6191 -0.0167 -0.7350
 5167SOL    HW222617   1.244   6.893   1.051  0.7148 -0.3869 -0.1153
 5168SOL     OW22618   0.893   4.604   0.233 -0.2749 -0.2398  0.5522
 5168SOL    HW122619   0.939   4.684   0.258 -0.9879  0.0270  1.0173
 5168SOL    HW222620   0.897   4.549   0.311 -0.4521 -0.3562  0.4789
 5169SOL     OW22621   9.312  10.271  10.372  0.0690  0.3159 -0.0599
 5169SOL    HW122622   9.327  10.201  10.436  1.1070 -0.6690 -1.3230
 5169SOL    HW222623   9.237  10.319  10.406  0.3945 -0.3625  1.7310
 5170SOL     OW22624   8.958  11.816  12.823  0.6254  0.1552  0.3725
 5170SOL    HW122625   9.050  11.821  12.846  0.7386 -0.2639  0.0390
 5170SOL    HW222626   8.923  11.744  12.876 -0.2444  2.2185  2.7955
 5171SOL     OW22627   3.398   8.203   7.541 -0.2056 -0.2832 -0.1395
 5171SOL    HW122628   3.366   8.252   7.617  0.7855  1.4636 -0.7968
 5171SOL    HW222629   3.486   8.175   7.566 -0.3427 -0.7788 -0.1969
 5172SOL     OW22630   3.637   5.259   2.665 -0.6896  0.4041  0.0688
 5172SOL    HW122631   3.631   5.339   2.613 -1.8986 -0.1387 -0.6815
 5172SOL    HW222632   3.599   5.191   2.609 -0.5870 -0.5081  1.0647
 5173SOL     OW22633  10.801   6.391   3.252  0.1021 -0.0065  0.1996
 5173SOL    HW122634  10.770   6.468   3.204  0.8944 -0.8649 -1.7991
 5173SOL    HW222635  10.844   6.337   3.186  1.6185 -1.0978  1.9614
 5174SOL     OW22636   4.634  10.935  10.286 -0.3073  0.3963 -0.0489
 5174SOL    HW122637   4.559  10.970  10.334 -0.1447  0.6813 -0.0002
 5174SOL    HW222638   4.598  10.913  10.200 -0.2057  1.6506 -0.4451
 5175SOL     OW22639  10.105   1.654   0.997  0.1185  0.4748  0.4161
 5175SOL    HW122640  10.148   1.714   1.058 -1.1180  0.9467  0.8585
 5175SOL    HW222641  10.108   1.699   0.913 -0.4909  1.0197  0.6742
 5176SOL     OW22642  11.878   9.155   2.925  0.0450  0.0002  0.2470
 5176SOL    HW122643  11.901   9.168   2.833 -0.0160 -1.7491 -0.0634
 5176SOL    HW222644  11.819   9.227   2.946 -1.4605 -0.5713 -1.6853
 5177SOL     OW22645   5.764   2.389   2.874  0.4994  0.2795 -0.5538
 5177SOL    HW122646   5.810   2.416   2.954  1.9074 -2.5007 -0.2782
 5177SOL    HW222647   5.834   2.363   2.815 -0.6163  0.1911 -1.8737
 5178SOL     OW22648  10.505  12.872   2.987  0.6209  0.3870  0.5230
 5178SOL    HW122649  10.560  12.905   3.058  0.7491  0.5528  0.3468
 5178SOL    HW222650  10.545  12.907   2.907  1.3172 -0.9401  0.2529
 5179SOL     OW22651  10.822  12.807   1.760 -0.0477  0.1516  0.2866
 5179SOL    HW122652  10.902  12.773   1.798 -0.7907 -1.3288  0.5975
 5179SOL    HW222653  10.847  12.833   1.671  0.9266  0.4657  0.6351
 5180SOL     OW22654   1.398   2.362   8.869  0.6191 -0.2384 -0.1755
 5180SOL    HW122655   1.377   2.302   8.797  1.0513 -1.5963  0.7905
 5180SOL    HW222656   1.482   2.332   8.902  1.0513  1.1811  0.0934
 5181SOL     OW22657   9.393  11.163   3.061  0.0050 -0.3375 -0.3529
 5181SOL    HW122658   9.389  11.073   3.029 -0.7868 -0.0503 -1.0925
 5181SOL    HW222659   9.479  11.194   3.033  1.5984 -1.7654  2.4840
 5182SOL     OW22660   2.345   8.165   7.714 -0.0202  0.0002  0.2408
 5182SOL    HW122661   2.410   8.132   7.777  0.0341 -1.3464 -0.4702
 5182SOL    HW222662   2.317   8.087   7.666 -0.3701  0.9272 -1.1233
 5183SOL     OW22663   9.530   5.768   2.003  0.2190  0.1411  0.1085
 5183SOL    HW122664   9.500   5.747   1.914 -0.1120 -0.4614  0.3625
 5183SOL    HW222665   9.582   5.692   2.029  0.6325  0.4845  0.2873
 5184SOL     OW22666  11.252  11.543   2.304  0.0079 -0.0550  0.0354
 5184SOL    HW122667  11.226  11.606   2.237  0.8222 -0.3254 -0.5514
 5184SOL    HW222668  11.347  11.550   2.309  0.2179 -1.7650 -0.6206
 5185SOL     OW22669   4.632   2.778   6.812 -0.3764  0.2580 -0.7588
 5185SOL    HW122670   4.625   2.827   6.894  0.1221  0.6678 -0.9591
 5185SOL    HW222671   4.688   2.703   6.833  0.8537  1.0764 -1.0449
 5186SOL     OW22672   1.069   1.191   2.325 -0.7414 -0.5383 -0.2565
 5186SOL    HW122673   1.101   1.176   2.414 -0.4183  0.5421 -0.1707
 5186SOL    HW222674   1.025   1.276   2.330  0.3091  0.0951 -1.3830
 5187SOL     OW22675  12.239   2.930   3.618 -0.0840 -0.0297  0.0188
 5187SOL    HW122676  12.264   2.838   3.621  0.9047  0.2167 -0.3520
 5187SOL    HW222677  12.304   2.975   3.671  0.1928  0.6044 -0.8359
 5188SOL     OW22678   0.466   4.480   0.296  0.0812  0.2054  0.0979
 5188SOL    HW122679   0.487   4.479   0.389 -1.3537  2.0450  0.4982
 5188SOL    HW222680   0.437   4.569   0.279 -1.0374 -0.4653 -1.8031
 5189SOL     OW22681   2.029   2.243   4.149  1.5895 -0.4113 -0.3794
 5189SOL    HW122682   2.117   2.219   4.179  0.6090 -0.6851  2.5739
 5189SOL    HW222683   2.001   2.312   4.210 -1.1769 -2.0614  0.3706
 5190SOL     OW22684   1.309   0.698   9.526  0.0554  0.2981 -0.2745
 5190SOL    HW122685   1.240   0.671   9.587 -0.1867 -0.3161 -0.8117
 5190SOL    HW222686   1.378   0.632   9.538 -0.0023  0.1646 -0.6883
 5191SOL     OW22687   2.928   2.739   1.280  0.2362 -0.0896  0.2338
 5191SOL    HW122688   2.908   2.832   1.279 -1.0919 -0.3192  1.6953
 5191SOL    HW222689   2.875   2.702   1.210  1.2432  0.3026 -0.7696
 5192SOL     OW22690   5.036   9.108   5.589  0.5771 -0.3627 -0.3813
 5192SOL    HW122691   5.098   9.036   5.600  1.6771  0.7039  0.7930
 5192SOL    HW222692   4.950   9.068   5.601  1.1266 -1.6084 -0.4774
 5193SOL     OW22693   8.623   4.931   9.873  0.1560 -0.2422  0.2123
 5193SOL    HW122694   8.679   4.970   9.807  0.3103  1.0734  1.0841
 5193SOL    HW222695   8.590   5.005   9.924 -0.4363 -1.1710  1.2360
 5194SOL     OW22696  11.157  11.112   8.970 -0.8744 -0.0336 -0.1225
 5194SOL    HW122697  11.252  11.105   8.972 -0.8909 -0.3851 -0.4683
 5194SOL    HW222698  11.127  11.059   9.044 -0.7861  0.4895  0.2986
 5195SOL     OW22699   2.480   1.882   6.530 -0.0871 -0.2128  0.2392
 5195SOL    HW122700   2.447   1.792   6.529 -2.3055  0.5518  0.3562
 5195SOL    HW222701   2.510   1.897   6.440 -0.3500 -0.8344  0.0399
 5196SOL     OW22702   6.643   2.910   5.628  0.1116  0.1311 -0.4684
 5196SOL    HW122703   6.583   2.959   5.572 -0.9082 -0.2522  0.2572
 5196SOL    HW222704   6.588   2.880   5.700  0.7551 -1.8924 -0.7722
 5197SOL     OW22705  12.397   0.663   4.447 -0.7765  0.1311  0.4714
 5197SOL    HW122706  12.310   0.704   4.443 -1.4681 -1.3600 -0.9068
 5197SOL    HW222707  12.444   0.702   4.373 -0.7274 -0.0379  0.4142
 5198SOL     OW22708   9.629   0.223   3.804 -0.4899  0.4841 -0.2564
 5198SOL    HW122709   9.651   0.269   3.885  0.1219 -0.5535  0.1980
 5198SOL    HW222710   9.594   0.290   3.746  0.6854  1.5708  0.2577
 5199SOL     OW22711   5.947   4.688   5.357 -0.3315  0.0371  0.4506
 5199SOL    HW122712   6.017   4.623   5.361 -0.8718 -0.5384  0.6834
 5199SOL    HW222713   5.868   4.637   5.339 -0.4831  0.8203 -1.3347
 5200SOL     OW22714  10.031  11.838   2.854 -0.2497 -0.0548  0.2489
 5200SOL    HW122715   9.970  11.852   2.782  1.4493  0.6015 -1.1309
 5200SOL    HW222716   9.994  11.765   2.904 -0.6478 -1.6405 -2.2221
 5201SOL     OW22717   4.969   1.161   4.021 -0.0751  0.2837  0.2783
 5201SOL    HW122718   5.050   1.183   4.067  0.1516  0.1792 -0.0687
 5201SOL    HW222719   4.991   1.084   3.969 -0.4077  0.2316  0.2102
 5202SOL     OW22720   4.006   8.313   3.911  0.1196 -0.2768 -0.3295
 5202SOL    HW122721   4.037   8.228   3.880  1.7957  0.4563 -0.7715
 5202SOL    HW222722   3.970   8.356   3.834  0.6530 -0.0064 -0.4312
 5203SOL     OW22723   9.093   2.565  10.829  0.1176 -0.0663 -0.2672
 5203SOL    HW122724   9.111   2.554  10.922 -0.1427 -2.3469 -0.4370
 5203SOL    HW222725   9.035   2.641  10.824  0.9432  0.7022  1.3147
 5204SOL     OW22726  11.459   5.616  11.658 -0.1950 -0.4413 -0.0178
 5204SOL    HW122727  11.393   5.575  11.601  0.1856 -0.6846 -0.2858
 5204SOL    HW222728  11.418   5.697  11.688 -0.4288 -0.3495 -0.5797
 5205SOL     OW22729  11.139   3.227   8.922  0.1784 -0.2209  0.0811
 5205SOL    HW122730  11.185   3.164   8.976 -0.7629 -0.6539  0.3881
 5205SOL    HW222731  11.065   3.179   8.886 -0.4757  0.6612  0.2084
 5206SOL     OW22732   2.403   8.544   9.609  0.2963  0.1573 -0.4177
 5206SOL    HW122733   2.320   8.552   9.562 -0.0797 -2.0975 -0.2829
 5206SOL    HW222734   2.394   8.463   9.659  1.3161  1.5545  2.2647
 5207SOL     OW22735   2.866  10.181   5.726 -0.0308 -0.1404  0.1211
 5207SOL    HW122736   2.858  10.251   5.791 -1.4068  0.5346 -0.7280
 5207SOL    HW222737   2.886  10.103   5.777 -0.4342  0.4926  1.2830
 5208SOL     OW22738   8.166   4.859   3.605  0.2155  0.2923 -0.2866
 5208SOL    HW122739   8.122   4.923   3.549  0.4314  0.6818 -0.0095
 5208SOL    HW222740   8.158   4.777   3.557 -1.7473  0.1353  0.2302
 5209SOL     OW22741   4.639   7.887   6.822  0.8658  0.3405 -1.1245
 5209SOL    HW122742   4.551   7.858   6.845  0.7086  1.3236 -0.4250
 5209SOL    HW222743   4.632   7.982   6.815  2.3222  0.6927  1.1212
 5210SOL     OW22744   3.981   7.265  10.972  0.4940  0.1911 -0.6572
 5210SOL    HW122745   3.916   7.333  10.955  0.1962  0.2953  0.7796
 5210SOL    HW222746   3.944   7.215  11.045  1.8095 -0.0467 -0.1420
 5211SOL     OW22747   6.514  12.825   3.269 -0.4404 -0.0326  0.3988
 5211SOL    HW122748   6.486  12.900   3.322  0.7546  0.6333  0.1262
 5211SOL    HW222749   6.580  12.781   3.322  0.1578  0.1495 -0.1872
 5212SOL     OW22750   1.203   4.926   6.072 -0.1218  0.3753 -0.0508
 5212SOL    HW122751   1.263   4.864   6.113  1.0547  1.0947 -0.6290
 5212SOL    HW222752   1.174   4.983   6.143  0.1813  0.2642  0.1620
 5213SOL     OW22753   3.338   7.772   2.284  0.0117  0.1734  0.3706
 5213SOL    HW122754   3.309   7.709   2.218 -0.0974  0.1982  0.3947
 5213SOL    HW222755   3.292   7.853   2.261  0.6631  0.4300 -0.0617
 5214SOL     OW22756   8.611   5.467   2.787  0.0701  0.7908  0.3606
 5214SOL    HW122757   8.609   5.562   2.792  0.2477  0.8713 -0.6844
 5214SOL    HW222758   8.689   5.447   2.735  0.2923  0.0499  0.9581
 5215SOL     OW22759  10.201  12.715   8.137 -0.6127  0.2289 -0.6758
 5215SOL    HW122760  10.297  12.725   8.137 -0.3484 -1.6249 -2.2046
 5215SOL    HW222761  10.181  12.669   8.218 -0.4936  2.3041  0.6026
 5216SOL     OW22762   4.187   9.987   1.025 -0.2878  0.3241  0.3781
 5216SOL    HW122763   4.171   9.916   1.087 -1.4385  0.3131  0.1025
 5216SOL    HW222764   4.099  10.013   0.995  0.1739  1.1253 -0.3494
 5217SOL     OW22765  12.518   1.760   1.940 -0.5045 -0.2067  0.2858
 5217SOL    HW122766  12.566   1.831   1.982 -2.9938  1.4648  0.4975
 5217SOL    HW222767  12.519   1.782   1.847  0.5377 -1.0789  0.0782
 5218SOL     OW22768   4.922   6.815   2.317 -0.3818 -0.0727  0.1139
 5218SOL    HW122769   4.894   6.814   2.226  2.1739 -0.8525 -0.7325
 5218SOL    HW222770   5.016   6.801   2.314 -0.1025  0.5923  2.8584
 5219SOL     OW22771   7.879   6.015   6.428 -0.5572 -0.4713  0.0256
 5219SOL    HW122772   7.915   6.063   6.354  0.2180 -0.1080  0.6293
 5219SOL    HW222773   7.890   5.923   6.405 -1.2554 -0.3751 -0.7531
 5220SOL     OW22774   9.518   6.848   8.182  0.1493  0.0146  0.1574
 5220SOL    HW122775   9.444   6.909   8.192  0.8550  0.9136  0.0062
 5220SOL    HW222776   9.509   6.815   8.092  1.2061  1.8913 -0.6989
 5221SOL     OW22777   7.501   9.128   0.360  0.0126 -0.0879  0.1904
 5221SOL    HW122778   7.473   9.100   0.447  1.1764 -1.3866  0.1695
 5221SOL    HW222779   7.424   9.112   0.305 -1.7196  3.2704  1.3564
 5222SOL     OW22780  12.533   1.734  12.534  0.2417  0.3221  0.1757
 5222SOL    HW122781  12.628   1.722  12.533  0.0934 -1.0288 -0.8641
 5222SOL    HW222782  12.504   1.692  12.615  0.4167 -0.3849 -0.1218
 5223SOL     OW22783   5.809   7.256  10.756 -0.3237  0.0456  0.1434
 5223SOL    HW122784   5.891   7.252  10.707 -0.7033  1.0471 -0.6091
 5223SOL    HW222785   5.770   7.170  10.745  0.4508 -0.3223  0.2074
 5224SOL     OW22786   6.004   6.487   4.437  0.4436  0.0732 -0.6060
 5224SOL    HW122787   5.908   6.495   4.438  0.4116 -0.3571  0.1348
 5224SOL    HW222788   6.034   6.554   4.498  0.5200 -0.8819  0.4261
 5225SOL     OW22789   3.669   2.022   2.274 -0.1312  0.3326 -0.7579
 5225SOL    HW122790   3.751   1.990   2.235  1.2979  1.1327  1.3919
 5225SOL    HW222791   3.630   1.945   2.314  1.9629  0.6264  2.1221
 5226SOL     OW22792   1.170   5.697   0.259 -0.0430 -0.1400  0.1478
 5226SOL    HW122793   1.176   5.687   0.354 -2.6407 -0.3441  0.3757
 5226SOL    HW222794   1.087   5.744   0.245 -0.1878 -0.9114 -2.0385
 5227SOL     OW22795   1.706   9.202   7.171 -0.3072 -0.1619  0.1290
 5227SOL    HW122796   1.657   9.283   7.157  1.3624  0.6943 -1.3052
 5227SOL    HW222797   1.680   9.145   7.099  2.8765  1.4702 -2.6034
 5228SOL     OW22798   3.511   8.854   2.900 -0.5627 -0.0065  0.2915
 5228SOL    HW122799   3.456   8.776   2.912 -0.9054 -0.2317 -2.1648
 5228SOL    HW222800   3.462   8.907   2.837  0.9837  0.8854 -0.1921
 5229SOL     OW22801   3.611   1.201   9.810 -0.0576  0.2847  0.2671
 5229SOL    HW122802   3.684   1.152   9.771 -0.7704 -0.1530 -0.5410
 5229SOL    HW222803   3.654   1.267   9.864  0.9392 -0.8075  0.8650
 5230SOL     OW22804   8.768   3.559   9.182 -0.0763  0.1851 -0.1876
 5230SOL    HW122805   8.844   3.592   9.230  0.3783  0.1162 -0.8404
 5230SOL    HW222806   8.709   3.634   9.177  0.1037  0.3417  0.0177
 5231SOL     OW22807   8.456   5.932   8.391 -0.2738 -0.5289  0.1326
 5231SOL    HW122808   8.431   5.993   8.322 -1.1533  0.7892  1.5419
 5231SOL    HW222809   8.539   5.894   8.362 -0.1422  0.7123 -1.1795
 5232SOL     OW22810   5.007   0.207  11.625 -0.2236 -0.3584 -0.5284
 5232SOL    HW122811   5.068   0.166  11.686 -0.3934 -1.7703 -1.2832
 5232SOL    HW222812   5.063   0.249  11.560 -0.0544  0.5420  0.1676
 5233SOL     OW22813   1.193  11.414   5.594 -0.3797  0.3893  0.4877
 5233SOL    HW122814   1.269  11.467   5.615 -1.0297  1.2469  0.7208
 5233SOL    HW222815   1.217  11.368   5.513  0.0478  1.3548  0.0503
 5234SOL     OW22816   9.247   0.141   1.590  0.8140 -0.1848  0.1805
 5234SOL    HW122817   9.255   0.082   1.665 -0.2610 -0.7895 -0.1535
 5234SOL    HW222818   9.182   0.206   1.617  1.6734  0.6227  0.3847
 5235SOL     OW22819   8.498   0.387   6.765 -0.2521  0.5349 -0.1561
 5235SOL    HW122820   8.592   0.388   6.748 -0.6092  0.0794 -2.4606
 5235SOL    HW222821   8.477   0.476   6.792  0.7489  0.7948 -0.1897
 5236SOL     OW22822   4.317   7.983   0.767  0.6089 -0.2007 -0.5470
 5236SOL    HW122823   4.261   8.059   0.752  1.6907  0.9676  1.0108
 5236SOL    HW222824   4.369   7.976   0.687 -0.3522 -0.0758 -1.1992
 5237SOL     OW22825   1.777   2.413  10.351  0.5995  0.1675 -0.2638
 5237SOL    HW122826   1.866   2.445  10.370 -0.1102  1.0447  1.7950
 5237SOL    HW222827   1.725   2.441  10.426 -1.7221  0.7861 -2.0145
 5238SOL     OW22828  12.841   3.090   4.556  0.3907  0.3117  0.0470
 5238SOL    HW122829  12.752   3.097   4.522  0.3855 -0.5029 -0.1393
 5238SOL    HW222830  12.848   3.160   4.620 -0.5084  0.1604  0.3303
 5239SOL     OW22831  10.421   4.907  10.194 -0.0510  0.0370 -0.6612
 5239SOL    HW122832  10.503   4.938  10.154 -0.9155  2.6000 -0.6554
 5239SOL    HW222833  10.440   4.907  10.288  0.4997 -1.2662 -0.7540
 5240SOL     OW22834   2.444   4.347   4.557 -0.0589  0.3844  0.4553
 5240SOL    HW122835   2.445   4.368   4.651 -0.8769 -2.0392  1.0735
 5240SOL    HW222836   2.438   4.251   4.554 -1.1493  0.4579 -2.0719
 5241SOL     OW22837  11.375  10.710   1.176 -0.4710  0.5251 -0.2058
 5241SOL    HW122838  11.419  10.759   1.107  1.2764 -0.9829 -0.2527
 5241SOL    HW222839  11.283  10.705   1.149 -0.0023  0.8052 -1.9209
 5242SOL     OW22840   5.639   6.890   4.781  0.2244 -0.1299  0.1553
 5242SOL    HW122841   5.700   6.905   4.854  0.1959  0.8413 -0.0111
 5242SOL    HW222842   5.641   6.972   4.731 -0.8660 -0.2529 -0.1120
 5243SOL     OW22843  12.561   9.876  10.049 -0.5411  0.4256 -0.1413
 5243SOL    HW122844  12.618   9.813  10.092 -0.1337  0.1853 -1.0228
 5243SOL    HW222845  12.492   9.823  10.009 -0.7323  0.6193 -0.0709
 5244SOL     OW22846   5.048   8.428   6.985  0.1050 -0.0005 -0.2481
 5244SOL    HW122847   4.958   8.436   7.018 -0.1633  2.2204 -1.2604
 5244SOL    HW222848   5.047   8.348   6.933 -1.2554 -0.1175 -0.0989
 5245SOL     OW22849   5.747   3.589  10.919  0.3772  0.4102  0.0909
 5245SOL    HW122850   5.678   3.524  10.913 -0.2856  1.1064 -0.0284
 5245SOL    HW222851   5.821   3.550  10.873 -0.0635 -0.1838 -0.1254
 5246SOL     OW22852   0.580   7.180   3.642 -0.0626  1.0262 -0.3134
 5246SOL    HW122853   0.653   7.147   3.694  0.6393  1.7479 -0.8312
 5246SOL    HW222854   0.530   7.101   3.619 -0.7151  0.7122  1.8823
 5247SOL     OW22855   5.061   8.648   6.222  0.4199  0.3399  0.6428
 5247SOL    HW122856   4.999   8.706   6.267 -0.4251 -0.1735  0.1733
 5247SOL    HW222857   5.087   8.697   6.144  1.6375  1.0966  1.4829
 5248SOL     OW22858   6.988  12.161  11.600 -0.1656 -0.0795 -0.3236
 5248SOL    HW122859   7.033  12.245  11.609 -0.0597 -0.0530 -1.0190
 5248SOL    HW222860   6.978  12.149  11.505 -0.9969 -0.4193 -0.2026
 5249SOL     OW22861  12.131   4.816   5.503  0.4257 -0.0578  0.2789
 5249SOL    HW122862  12.210   4.868   5.487  0.4012  0.5868  2.0628
 5249SOL    HW222863  12.080   4.868   5.565 -1.2520 -0.6446 -0.5406
 5250SOL     OW22864   5.994   0.733  10.211  0.2155 -0.0646  0.3446
 5250SOL    HW122865   5.968   0.749  10.301  0.6549 -0.2373  0.5028
 5250SOL    HW222866   6.014   0.820  10.176 -0.0370  0.0105  0.3838
 5251SOL     OW22867   3.185  10.480   7.043  0.3991 -0.3239  0.7900
 5251SOL    HW122868   3.173  10.514   6.954 -1.2379 -0.3884  0.9607
 5251SOL    HW222869   3.280  10.473   7.053  0.7828  2.5420  0.1205
 5252SOL     OW22870   7.086   3.017   9.830 -0.0768 -0.7729 -0.0639
 5252SOL    HW122871   7.069   3.020   9.736  1.9655 -1.5790 -0.5243
 5252SOL    HW222872   7.033   2.945   9.862 -1.3972  0.0105 -0.4296
 5253SOL     OW22873   5.829   9.295   7.121  0.1809  0.4145 -0.0474
 5253SOL    HW122874   5.853   9.378   7.163  2.0955 -0.0496 -0.1226
 5253SOL    HW222875   5.895   9.233   7.152  0.8194 -0.2852 -2.6253
 5254SOL     OW22876   9.186  11.679   9.969  0.0798 -0.3120  0.1993
 5254SOL    HW122877   9.178  11.702   9.876 -0.0473 -0.3879  0.1921
 5254SOL    HW222878   9.217  11.588   9.969 -0.4727 -0.4991  0.2319
 5255SOL     OW22879   7.451  11.267   2.421 -0.1514  0.0080  0.4275
 5255SOL    HW122880   7.362  11.270   2.456 -0.6372 -0.9685 -0.6675
 5255SOL    HW222881   7.468  11.174   2.406 -0.1569  0.3891 -2.3559
 5256SOL     OW22882   7.352  10.978   3.200  0.0748 -0.4688 -0.3490
 5256SOL    HW122883   7.406  11.007   3.126 -0.8567  0.2254 -0.7981
 5256SOL    HW222884   7.311  10.897   3.169  2.2507 -2.0699  0.6978
 5257SOL     OW22885   5.527   9.946   3.621 -0.0125  0.8847 -0.1740
 5257SOL    HW122886   5.564   9.909   3.701 -0.0888  0.4512 -0.3349
 5257SOL    HW222887   5.557  10.037   3.620 -0.2544  0.9712  0.4893
 5258SOL     OW22888  10.573  12.359   8.956 -0.1828  0.3194  0.1356
 5258SOL    HW122889  10.554  12.413   9.033  1.0463 -0.9235  1.3712
 5258SOL    HW222890  10.667  12.371   8.940 -0.4612  0.7314 -1.3353
 5259SOL     OW22891   4.032   4.132  10.963 -0.2752  0.2657 -0.3575
 5259SOL    HW122892   4.075   4.111  11.046 -0.6355  1.4157  0.1312
 5259SOL    HW222893   4.062   4.063  10.903  0.5591 -0.1678  0.5261
 5260SOL     OW22894   6.831   4.253   2.411 -0.8803 -0.7920 -0.5045
 5260SOL    HW122895   6.827   4.206   2.495 -1.0054 -1.2320 -0.7520
 5260SOL    HW222896   6.821   4.345   2.435 -1.8766 -0.9829 -0.1137
 5261SOL     OW22897   8.226   9.271  11.189 -0.3381  0.0370  0.2402
 5261SOL    HW122898   8.295   9.332  11.161 -0.6554  0.4015  0.2446
 5261SOL    HW222899   8.257   9.237  11.273  0.4827 -0.8394 -0.4011
 5262SOL     OW22900   0.991   8.336   3.120  0.3490 -0.7326  0.3239
 5262SOL    HW122901   1.041   8.257   3.140  1.0881  0.1332  2.1931
 5262SOL    HW222902   1.023   8.401   3.183 -0.5391  0.9377 -0.8622
 5263SOL     OW22903   8.137   9.998   4.653 -0.3758  0.3905  0.3985
 5263SOL    HW122904   8.098   9.957   4.576 -0.7627  0.5064  0.5266
 5263SOL    HW222905   8.221   9.954   4.664 -0.1810  0.5823 -0.2664
 5264SOL     OW22906   0.017   0.507   2.159 -0.2522  0.2657 -0.1325
 5264SOL    HW122907   0.053   0.453   2.228 -1.8034  0.2423  0.7032
 5264SOL    HW222908  -0.049   0.451   2.116  0.2317  0.4951 -1.2118
 5265SOL     OW22909   3.191  11.830   5.212  0.1753 -0.3146 -0.1293
 5265SOL    HW122910   3.137  11.873   5.278  0.6194  1.2326 -0.7193
 5265SOL    HW222911   3.128  11.790   5.151 -0.2354 -1.3853  0.9533
 5266SOL     OW22912  12.730   6.472   8.267  0.4523  0.1526 -0.1265
 5266SOL    HW122913  12.734   6.506   8.356  0.6399  1.1039 -0.4820
 5266SOL    HW222914  12.656   6.519   8.227 -1.1029 -1.8882  0.1631
 5267SOL     OW22915  10.311   3.772   3.535 -0.2054  0.4449  0.5292
 5267SOL    HW122916  10.340   3.718   3.609 -0.2450 -0.1469  0.1149
 5267SOL    HW222917  10.382   3.765   3.471 -0.6614  0.0639  0.0577
 5268SOL     OW22918   0.933   8.878   6.966  0.0743  0.1730 -0.5678
 5268SOL    HW122919   0.886   8.798   6.989 -1.1543  0.9998 -0.0828
 5268SOL    HW222920   0.983   8.900   7.045  1.6043 -0.8934 -1.1993
 5269SOL     OW22921   6.624  10.400  11.174 -0.2625 -0.3926 -0.1093
 5269SOL    HW122922   6.717  10.396  11.197  0.0419  0.5385 -1.0988
 5269SOL    HW222923   6.611  10.325  11.117 -1.0911 -2.8960  3.0852
 5270SOL     OW22924  12.089   7.074   3.392 -0.1891 -0.4935  0.4631
 5270SOL    HW122925  12.093   7.073   3.488 -1.4696  1.2995  0.5728
 5270SOL    HW222926  12.135   7.154   3.367 -0.0918 -0.8171 -0.4138
 5271SOL     OW22927   8.952  11.839   6.708 -0.0737 -0.3046  0.2972
 5271SOL    HW122928   9.038  11.844   6.748  0.5189  1.3678 -1.0733
 5271SOL    HW222929   8.944  11.748   6.680  1.1036 -0.5538  0.7337
 5272SOL     OW22930   5.382   5.066   9.646  0.5581 -0.2835 -0.4331
 5272SOL    HW122931   5.471   5.073   9.609  2.0333  0.3397  2.8435
 5272SOL    HW222932   5.379   4.978   9.683 -0.7871 -0.8201 -1.7490
 5273SOL     OW22933  11.027  10.246   8.420 -0.0748 -0.0008 -0.2602
 5273SOL    HW122934  11.094  10.244   8.352  0.3467 -1.4148  0.1615
 5273SOL    HW222935  10.986  10.332   8.411 -0.0179 -0.1405 -2.2802
 5274SOL     OW22936  11.222  11.101   1.909 -0.3330 -0.4983  0.0601
 5274SOL    HW122937  11.193  11.073   1.822  3.2896 -0.8242 -1.1932
 5274SOL    HW222938  11.316  11.084   1.910 -0.1610 -0.1535  3.9662
 5275SOL     OW22939   3.733   3.048   9.373 -0.2024  0.3800  0.7700
 5275SOL    HW122940   3.766   3.080   9.457  0.4778 -0.9326  1.0358
 5275SOL    HW222941   3.751   2.954   9.375 -0.1485  0.3268 -0.8623
 5276SOL     OW22942  11.034  11.188   3.291  0.3628 -0.1631  0.2099
 5276SOL    HW122943  11.028  11.097   3.263  1.7670 -0.0000 -0.7016
 5276SOL    HW222944  11.090  11.230   3.226 -0.1502  1.3348  0.6834
 5277SOL     OW22945   4.078  11.911  12.776 -0.5790  0.4486  0.4620
 5277SOL    HW122946   4.111  11.821  12.769  1.1385  1.0045  0.9978
 5277SOL    HW222947   4.149  11.959  12.818 -1.4869  2.0595  0.2148
 5278SOL     OW22948  12.425  10.179   3.166 -0.6018  0.1458  0.0598
 5278SOL    HW122949  12.358  10.130   3.117  1.2095 -1.8300 -0.6028
 5278SOL    HW222950  12.493  10.196   3.102 -0.1201  1.4542  0.8997
 5279SOL     OW22951   2.950   4.861   5.510  0.9309 -0.2956 -0.7634
 5279SOL    HW122952   2.913   4.948   5.492  0.2703 -0.5215 -0.4991
 5279SOL    HW222953   3.042   4.869   5.482  1.5937  1.2533  1.5937
 5280SOL     OW22954   6.639   6.158   1.153 -0.1309 -0.0549 -0.3233
 5280SOL    HW122955   6.706   6.201   1.101 -0.8506  0.6165 -0.7093
 5280SOL    HW222956   6.581   6.228   1.182 -0.0025 -0.4650  1.0180
 5281SOL     OW22957   4.866  11.161  11.234  0.1934 -0.0409 -0.6144
 5281SOL    HW122958   4.788  11.134  11.282  0.8500 -2.2040 -0.6550
 5281SOL    HW222959   4.840  11.159  11.142 -0.3174  1.4992 -0.5249
 5282SOL     OW22960  12.210   7.988   8.902  0.0556 -0.4355 -0.1501
 5282SOL    HW122961  12.290   7.952   8.940  0.4355  2.7079  2.4354
 5282SOL    HW222962  12.139   7.958   8.960 -0.2559 -0.8141 -0.7168
 5283SOL     OW22963   4.267   8.239   1.447 -0.6427  0.0639 -0.0440
 5283SOL    HW122964   4.279   8.195   1.363 -0.9826 -0.4045  0.1485
 5283SOL    HW222965   4.203   8.308   1.429  1.2163  1.7203 -0.7729
 5284SOL     OW22966   5.241   3.668   3.335 -0.0978 -0.3367 -0.5682
 5284SOL    HW122967   5.159   3.635   3.298 -0.1771 -0.2103 -0.5061
 5284SOL    HW222968   5.237   3.763   3.321  1.2214 -0.5553 -3.0074
 5285SOL     OW22969  11.530   7.282   2.792 -0.5046 -0.1531  0.9227
 5285SOL    HW122970  11.601   7.237   2.837  1.0808  0.6554 -0.6379
 5285SOL    HW222971  11.451   7.234   2.818  0.8842 -2.8550  0.5450
 5286SOL     OW22972   3.139   9.198   1.504  0.3449  0.0558 -0.5176
 5286SOL    HW122973   3.104   9.182   1.416  0.7037  0.6157 -0.7689
 5286SOL    HW222974   3.222   9.149   1.505  0.4072  0.1597 -0.5427
 5287SOL     OW22975   4.934   0.080   3.412 -0.8470 -0.0941 -0.2909
 5287SOL    HW122976   4.844   0.075   3.445 -0.7253 -0.8774 -0.0612
 5287SOL    HW222977   4.924   0.106   3.320 -1.3581 -0.9646 -0.4892
 5288SOL     OW22978   5.879   8.641   2.468 -0.6186  0.6545  0.6477
 5288SOL    HW122979   5.937   8.637   2.544 -1.0156  1.0251  0.9652
 5288SOL    HW222980   5.803   8.689   2.497 -0.6778  0.9965 -0.0505
 5289SOL     OW22981  10.885   1.958  11.947 -0.0313 -0.4250  0.1969
 5289SOL    HW122982  10.790   1.970  11.954 -0.3904 -2.5648 -0.2624
 5289SOL    HW222983  10.901   1.873  11.988  1.5883 -0.4346 -0.4039
 5290SOL     OW22984  11.350  11.807   7.821 -0.1962 -0.2268 -0.2658
 5290SOL    HW122985  11.271  11.846   7.784 -0.6767 -0.6913  0.2505
 5290SOL    HW222986  11.418  11.872   7.806 -0.5934  0.0159 -1.0617
 5291SOL     OW22987   9.246  10.148   8.096 -0.0287 -0.2398 -0.3470
 5291SOL    HW122988   9.152  10.163   8.080 -0.0437  0.1224  0.0401
 5291SOL    HW222989   9.250  10.123   8.189  0.4520  1.7992  0.2316
 5292SOL     OW22990   7.696  12.162   0.310  0.7210  0.4245 -0.2667
 5292SOL    HW122991   7.620  12.220   0.311  0.7738  0.4943 -0.3624
 5292SOL    HW222992   7.766  12.214   0.270  1.1799  0.8215  1.0029
 5293SOL     OW22993   2.393   3.181   0.348  0.0526  0.1335  0.3978
 5293SOL    HW122994   2.299   3.175   0.364 -0.1077  1.4211  0.1089
 5293SOL    HW222995   2.429   3.211   0.431 -0.3134  3.2616 -0.4454
 5294SOL     OW22996  12.243   3.258   6.100 -0.2116  0.6640  0.2842
 5294SOL    HW122997  12.323   3.205   6.104  0.8652  2.1085 -0.9898
 5294SOL    HW222998  12.201   3.245   6.185 -0.0027 -2.1745  0.0645
 5295SOL     OW22999   1.053   0.572   6.791 -0.5970  0.0947 -0.1036
 5295SOL    HW123000   0.972   0.546   6.834 -1.0497 -0.1723 -1.0917
 5295SOL    HW223001   1.121   0.519   6.833 -0.8031  0.8645  1.2536
 5296SOL     OW23002   2.337   8.582   5.615 -0.2338  0.2511 -0.3176
 5296SOL    HW123003   2.334   8.646   5.685 -1.1129  0.5796 -0.6363
 5296SOL    HW223004   2.394   8.620   5.549  1.1978 -0.3844  0.5029
 5297SOL     OW23005   7.937   6.962   3.939  0.0658  0.3831 -0.1483
 5297SOL    HW123006   7.883   7.041   3.928 -0.1314  0.3154  0.2965
 5297SOL    HW223007   7.876   6.890   3.921  0.0923  0.3146  0.0436
 5298SOL     OW23008   8.670  11.680   3.438 -0.2169 -0.4951  0.1795
 5298SOL    HW123009   8.653  11.675   3.344  1.3191 -1.2298 -0.0929
 5298SOL    HW223010   8.620  11.756   3.468 -1.0928 -0.5332 -1.1354
 5299SOL     OW23011  12.337   9.628   1.351 -0.5366 -0.0202  0.1098
 5299SOL    HW123012  12.375   9.540   1.351 -1.3275 -0.3714 -0.8737
 5299SOL    HW223013  12.399   9.681   1.302 -1.3228 -0.6270 -1.6327
 5300SOL     OW23014   2.972   1.112   3.088  0.1282 -0.3197  0.3044
 5300SOL    HW123015   2.963   1.178   3.019  0.0943  1.9545  2.3497
 5300SOL    HW223016   3.049   1.061   3.062  0.3690  0.7241 -1.1979
 5301SOL     OW23017   5.610   8.850   8.730  0.2412 -0.1169  1.0765
 5301SOL    HW123018   5.538   8.789   8.720  1.2530 -1.2355  0.3347
 5301SOL    HW223019   5.604   8.908   8.655  1.2696 -1.4968 -0.1299
 5302SOL     OW23020   3.199   0.514   5.342 -0.2595 -0.3185  0.2055
 5302SOL    HW123021   3.288   0.527   5.374 -0.2776  1.2607 -0.3011
 5302SOL    HW223022   3.184   0.419   5.349  1.2174 -0.5239  0.8864
 5303SOL     OW23023   2.767  10.587   0.776 -0.1356  0.0679 -0.0924
 5303SOL    HW123024   2.795  10.626   0.859 -1.0135  1.0283 -0.2333
 5303SOL    HW223025   2.675  10.563   0.790 -0.0854 -0.4303 -0.5607
 5304SOL     OW23026  11.302   8.214  10.040 -0.4363  0.6389  0.3553
 5304SOL    HW123027  11.240   8.272   9.997 -0.8767  0.0880  0.2373
 5304SOL    HW223028  11.277   8.126  10.011  0.5986  0.4311  0.0477
 5305SOL     OW23029   1.535   9.216   8.450 -0.1118 -0.1967  0.3661
 5305SOL    HW123030   1.622   9.176   8.444 -0.0541  0.1006 -1.2737
 5305SOL    HW223031   1.506   9.197   8.539  1.9328  0.3297  1.2056
 5306SOL     OW23032   5.656   5.976  12.793 -0.0376  0.3212  0.2421
 5306SOL    HW123033   5.608   6.032  12.732  1.0976  1.4639  0.3591
 5306SOL    HW223034   5.638   5.887  12.763 -0.3220  0.8190 -1.1299
 5307SOL     OW23035  12.586   1.031  11.683  0.5227  0.2496 -0.5201
 5307SOL    HW123036  12.516   0.977  11.646  0.9688 -0.3794 -0.4526
 5307SOL    HW223037  12.540   1.107  11.720 -0.3835 -1.1801  1.4594
 5308SOL     OW23038   9.133  12.144   8.060 -0.0658  0.1740 -0.1699
 5308SOL    HW123039   9.111  12.079   7.993 -0.9741  0.9072 -0.6000
 5308SOL    HW223040   9.161  12.092   8.135 -0.2687 -0.6975 -0.6791
 5309SOL     OW23041  11.579  12.335  12.939 -0.1807  0.3185 -0.7745
 5309SOL    HW123042  11.624  12.402  12.990  0.4884  0.1306 -1.1131
 5309SOL    HW223043  11.601  12.252  12.982 -0.2747  0.2306 -0.8943
 5310SOL     OW23044   1.512  10.808  12.405 -0.3151  0.2206  0.1750
 5310SOL    HW123045   1.492  10.785  12.496  0.2992 -1.5817 -0.1117
 5310SOL    HW223046   1.426  10.814  12.363 -0.5707  0.3519  0.7069
 5311SOL     OW23047   7.790   0.740   7.554 -0.4180  0.1508  0.1075
 5311SOL    HW123048   7.819   0.802   7.487 -0.0040  0.5882  0.6873
 5311SOL    HW223049   7.696   0.757   7.564 -0.2125  1.0267  0.6195
 5312SOL     OW23050   5.010   9.835  10.827 -0.1513 -0.5615  0.1022
 5312SOL    HW123051   5.017   9.883  10.744 -0.8788 -0.5644  0.0293
 5312SOL    HW223052   5.009   9.903  10.894  0.7292 -0.5741  0.1300
 5313SOL     OW23053   0.167   2.085   8.320 -0.1604  0.0716  0.4425
 5313SOL    HW123054   0.166   2.147   8.393  2.2752  1.2868 -0.4080
 5313SOL    HW223055   0.134   2.003   8.357 -0.6240  1.0885  2.4364
 5314SOL     OW23056   9.744   9.658   0.226 -0.1388 -0.0353 -0.1269
 5314SOL    HW123057   9.815   9.653   0.290  0.2175 -0.9513 -0.5796
 5314SOL    HW223058   9.673   9.607   0.264  0.1273 -0.7079 -0.5258
 5315SOL     OW23059   1.460   8.831   6.552 -0.2195  0.5123 -0.1180
 5315SOL    HW123060   1.437   8.911   6.505  0.3014  1.0739  0.5742
 5315SOL    HW223061   1.475   8.859   6.642  1.7569 -0.0472 -0.2357
 5316SOL     OW23062   2.195   6.986  12.592 -0.3515  0.2027 -0.7116
 5316SOL    HW123063   2.105   6.967  12.564 -0.7344 -0.5093  0.8890
 5316SOL    HW223064   2.234   6.900  12.608  0.6525  0.5041 -1.4422
 5317SOL     OW23065   6.492  10.761   8.321  0.2563 -0.0095 -0.2637
 5317SOL    HW123066   6.521  10.816   8.393  0.5810 -1.4323  0.7303
 5317SOL    HW223067   6.403  10.736   8.344 -1.2308  2.7501 -2.3610
 5318SOL     OW23068   5.007   0.003   6.215 -0.6441 -0.2303  0.3197
 5318SOL    HW123069   5.042   0.066   6.152 -0.7176 -0.6943 -0.1819
 5318SOL    HW223070   5.023   0.045   6.300  0.1549  0.0558  0.0450
 5319SOL     OW23071  11.504   0.756   3.112 -0.1266  0.1073  0.0458
 5319SOL    HW123072  11.562   0.806   3.170  0.3091  0.0222 -0.3112
 5319SOL    HW223073  11.420   0.755   3.158  0.1248  0.3207  0.5227
 5320SOL     OW23074   3.048   1.855   7.257  0.4419  0.3149 -0.3803
 5320SOL    HW123075   2.955   1.832   7.263  0.4713  0.0046 -0.9711
 5320SOL    HW223076   3.053   1.915   7.182  1.0200 -1.5041 -1.8923
 5321SOL     OW23077   9.392   1.393   5.078  0.2539  0.5827 -0.0490
 5321SOL    HW123078   9.313   1.431   5.117 -0.4821 -0.1746 -0.7588
 5321SOL    HW223079   9.371   1.300   5.068  1.3012  0.3451 -0.1116
 5322SOL     OW23080  10.355   0.826   0.815  0.4370  0.1034 -1.2593
 5322SOL    HW123081  10.448   0.818   0.837  0.5905 -0.2398 -2.0219
 5322SOL    HW223082  10.324   0.736   0.807 -0.0215  0.2163 -0.7640
 5323SOL     OW23083  12.206  11.042   6.534  0.1058  0.2566  0.1859
 5323SOL    HW123084  12.233  11.081   6.451  0.0025 -1.1253 -0.5315
 5323SOL    HW223085  12.163  10.960   6.509  1.4266 -0.9588  1.6828
 5324SOL     OW23086   8.556  12.911  10.852  0.3996  0.1648 -0.2823
 5324SOL    HW123087   8.590  12.899  10.940 -1.6335  0.1147  0.5617
 5324SOL    HW223088   8.462  12.927  10.865 -0.1619 -0.9371 -2.4886
 5325SOL     OW23089   4.273   1.566   3.973 -0.4957 -0.0492 -0.7027
 5325SOL    HW123090   4.181   1.590   3.962 -0.3409  0.7180 -0.3990
 5325SOL    HW223091   4.273   1.471   3.972 -1.1008 -0.0668 -2.2369
 5326SOL     OW23092   9.979   9.546   5.390 -0.1608 -0.0043  0.6401
 5326SOL    HW123093  10.047   9.596   5.435 -0.5023  0.7415  0.3449
 5326SOL    HW223094   9.898   9.567   5.438 -1.0578  2.9985 -1.8383
 5327SOL     OW23095   9.511   4.398  12.043 -0.1991  0.2133  0.5904
 5327SOL    HW123096   9.581   4.440  11.993 -2.1418  2.3639 -0.5098
 5327SOL    HW223097   9.500   4.453  12.120  0.5627 -1.2205  1.7620
 5328SOL     OW23098   4.774   1.872   6.490 -0.1160 -0.5189 -0.4295
 5328SOL    HW123099   4.725   1.938   6.540  1.8633 -0.2183  1.2249
 5328SOL    HW223100   4.852   1.918   6.460  1.3272 -2.0739  0.7671
 5329SOL     OW23101   9.714   4.740  10.799  0.0968 -0.4356  0.4370
 5329SOL    HW123102   9.648   4.674  10.819 -0.8791  0.3241 -0.2093
 5329SOL    HW223103   9.678   4.822  10.832 -0.0224  0.2630 -1.3061
 5330SOL     OW23104   6.370   1.823   4.366  0.5284 -0.2772  0.3593
 5330SOL    HW123105   6.286   1.806   4.407  0.0292  4.0742  1.6679
 5330SOL    HW223106   6.432   1.769   4.415 -1.0235 -0.7588  1.8857
 5331SOL     OW23107  11.305  10.155  11.641  0.2696  0.1570  0.4817
 5331SOL    HW123108  11.218  10.158  11.681  0.9451 -0.3097  2.0513
 5331SOL    HW223109  11.289  10.165  11.547 -1.3593  1.4335  0.8614
 5332SOL     OW23110   3.982  12.406  10.980 -0.4035 -0.3452  0.0773
 5332SOL    HW123111   4.065  12.396  10.933 -1.0275 -3.0047 -0.6475
 5332SOL    HW223112   3.998  12.363  11.065 -1.1873 -1.5241 -0.3402
 5333SOL     OW23113   2.699   1.059   0.306 -0.1706  0.0044  0.2175
 5333SOL    HW123114   2.664   1.085   0.221  0.2197  1.5417  0.4991
 5333SOL    HW223115   2.791   1.039   0.288 -0.5418 -1.5674 -0.0556
 5334SOL     OW23116   4.088   9.722   9.551 -0.2153  0.4844 -0.4006
 5334SOL    HW123117   4.121   9.750   9.636 -0.2884 -0.8986  0.1091
 5334SOL    HW223118   4.010   9.670   9.571  1.4719 -2.5482 -0.9694
 5335SOL     OW23119   3.784   3.632  11.696 -0.0115  0.3540  0.7928
 5335SOL    HW123120   3.835   3.595  11.767  1.1101  0.3959  0.0409
 5335SOL    HW223121   3.846   3.689  11.650  0.1507 -1.7685 -1.8607
 5336SOL     OW23122   1.831  11.207   8.689  0.4306 -0.1348  0.5570
 5336SOL    HW123123   1.778  11.262   8.747 -0.3767  1.3885 -1.5085
 5336SOL    HW223124   1.902  11.265   8.661  0.4933 -0.6544 -0.3833
 5337SOL     OW23125   4.352   8.128  10.608  0.2976  0.5496 -0.2514
 5337SOL    HW123126   4.338   8.036  10.629 -0.3522  0.7819  0.3774
 5337SOL    HW223127   4.352   8.132  10.513 -0.5764  0.0265 -0.2800
 5338SOL     OW23128   3.007  11.781   6.300 -0.0533  0.2249  0.4885
 5338SOL    HW123129   3.033  11.772   6.392  1.9801 -0.1267 -0.0593
 5338SOL    HW223130   3.088  11.764   6.251 -1.6270 -2.2632 -1.4932
 5339SOL     OW23131  11.142   2.990   2.577  0.1761  0.0752 -0.9493
 5339SOL    HW123132  11.182   3.070   2.543  0.2184 -0.7559 -3.0221
 5339SOL    HW223133  11.199   2.964   2.649  0.1734  1.8612 -0.2601
 5340SOL     OW23134   2.045   2.786   1.126 -0.0802  0.1089  0.3533
 5340SOL    HW123135   2.090   2.864   1.157 -0.8908  0.3619  0.9344
 5340SOL    HW223136   1.954   2.799   1.152 -0.4640 -0.4646 -0.6441
 5341SOL     OW23137   1.102  12.866   5.089 -0.2975  0.4138  0.0270
 5341SOL    HW123138   1.056  12.940   5.127  0.0955  1.1164 -0.8179
 5341SOL    HW223139   1.038  12.825   5.031 -0.3924  0.3503  0.1784
 5342SOL     OW23140   5.925   7.426   7.624 -0.1043  0.5431 -0.1164
 5342SOL    HW123141   5.853   7.484   7.601 -0.5703  0.2500  0.5611
 5342SOL    HW223142   5.930   7.432   7.720  0.1767 -0.1306 -0.0876
 5343SOL     OW23143   6.039   7.104   2.926 -0.1918 -0.0752 -0.0530
 5343SOL    HW123144   6.016   7.192   2.958  1.6737  0.9923 -1.4328
 5343SOL    HW223145   6.105   7.073   2.988 -1.0545 -0.6513  0.5950
 5344SOL     OW23146   6.649   6.867  12.252  0.1979  0.3671 -0.0578
 5344SOL    HW123147   6.653   6.939  12.316  1.0455  0.3520 -0.0749
 5344SOL    HW223148   6.741   6.847  12.234  0.1095  2.0672 -3.2063
 5345SOL     OW23149  11.901  12.545  10.087  0.0281  0.0291 -0.2114
 5345SOL    HW123150  11.832  12.521  10.026 -0.0723  0.7736 -0.4006
 5345SOL    HW223151  11.856  12.591  10.158  0.4110  1.2329 -0.7293
 5346SOL     OW23152   7.809   6.176   9.417 -0.2761  0.1496  0.6108
 5346SOL    HW123153   7.839   6.186   9.327 -1.5027  1.6911  0.3188
 5346SOL    HW223154   7.864   6.106   9.453  1.0251  0.2893 -0.9641
 5347SOL     OW23155   7.290  11.010  10.798  0.4141  0.7293  0.3998
 5347SOL    HW123156   7.279  11.002  10.893 -1.7619  1.0668  0.2368
 5347SOL    HW223157   7.317  11.100  10.784  0.7395  0.6780  0.6874
 5348SOL     OW23158   3.559  10.693  12.113 -0.2552  0.2429  0.5907
 5348SOL    HW123159   3.605  10.636  12.051 -1.4842 -0.2892  0.1179
 5348SOL    HW223160   3.510  10.632  12.168  0.7288  0.7246  2.0323
 5349SOL     OW23161   1.803   5.139   1.854  0.1515  0.1687 -0.0631
 5349SOL    HW123162   1.736   5.110   1.791 -1.0498  2.1656  0.1833
 5349SOL    HW223163   1.764   5.121   1.939  1.1593 -1.1946  0.1382
 5350SOL     OW23164   4.297   7.660   0.620 -0.3741 -0.4182 -0.2548
 5350SOL    HW123165   4.258   7.685   0.536 -1.2860 -0.6650  0.0828
 5350SOL    HW223166   4.236   7.694   0.686 -0.4465 -1.5089  0.2658
 5351SOL     OW23167   3.736   2.965   0.905 -0.3222 -0.4437  0.7476
 5351SOL    HW123168   3.810   3.023   0.885 -2.0825  0.9910 -2.4498
 5351SOL    HW223169   3.677   2.976   0.831 -2.4782 -3.6811  1.7771
 5352SOL     OW23170   6.171   0.833   0.427  0.6172 -0.1545 -0.1767
 5352SOL    HW123171   6.210   0.894   0.490  2.2438 -1.8229  0.5252
 5352SOL    HW223172   6.076   0.841   0.441  0.9014  0.2186  1.8035
 5353SOL     OW23173  10.358   4.286   2.006  0.0614 -0.1676  0.2292
 5353SOL    HW123174  10.342   4.378   1.986  0.4722  0.0974  1.0454
 5353SOL    HW223175  10.450   4.272   1.983 -0.4718 -0.8940 -1.6652
 5354SOL     OW23176   0.731   4.074   8.167 -0.1999 -0.6160 -0.0857
 5354SOL    HW123177   0.728   4.002   8.103 -1.1007  0.7982 -1.7314
 5354SOL    HW223178   0.699   4.035   8.248  1.2295 -2.5528 -0.3651
 5355SOL     OW23179  11.867   2.296   7.816 -0.1802  0.2929  0.3242
 5355SOL    HW123180  11.890   2.262   7.730  0.5315 -1.6804  1.2169
 5355SOL    HW223181  11.837   2.219   7.864  2.2959  0.6719  2.7520
 5356SOL     OW23182  10.055   5.685   7.029  0.0355  0.2150 -0.0167
 5356SOL    HW123183  10.125   5.644   7.080 -0.3616  0.6624  0.9077
 5356SOL    HW223184  10.031   5.763   7.079 -0.1158  0.8763 -1.0797
 5357SOL     OW23185   9.946   6.289   1.889  0.3096 -0.3156 -0.6014
 5357SOL    HW123186   9.887   6.224   1.851 -0.9257 -0.5792  1.6112
 5357SOL    HW223187   9.971   6.252   1.974  0.4843  1.5683  0.2185
 5358SOL     OW23188   4.796   5.151  11.981 -0.3234 -0.2717  0.2819
 5358SOL    HW123189   4.787   5.205  11.903 -1.8799  0.1289  0.7075
 5358SOL    HW223190   4.783   5.211  12.054  2.6060 -0.3346  0.9632
 5359SOL     OW23191   1.933   3.420   2.521  0.5294 -0.6885  0.0295
 5359SOL    HW123192   2.004   3.386   2.574  1.7113  0.4840 -0.7311
 5359SOL    HW223193   1.948   3.384   2.433  0.3610 -0.2154 -0.2009
 5360SOL     OW23194   8.294   7.260   9.328  0.3322  0.1437 -0.0992
 5360SOL    HW123195   8.380   7.296   9.348 -0.6649  1.3768  2.3472
 5360SOL    HW223196   8.237   7.337   9.321 -0.7154 -0.6840 -1.1012
 5361SOL     OW23197   0.632   0.328  10.940  0.5749 -0.6345 -0.1680
 5361SOL    HW123198   0.701   0.342  10.875  0.5447 -1.5758 -0.4089
 5361SOL    HW223199   0.564   0.391  10.916  1.3524  0.3463  0.1091
 5362SOL     OW23200   9.486   2.942   9.906  0.2691 -0.0414  0.1567
 5362SOL    HW123201   9.554   2.877   9.886 -0.0448 -0.1499 -0.5795
 5362SOL    HW223202   9.458   2.974   9.820  0.9870  1.6772  0.5238
 5363SOL     OW23203   2.761   1.476   8.437  0.0932  0.4064 -0.3279
 5363SOL    HW123204   2.822   1.539   8.400  1.0446 -1.4563 -2.0870
 5363SOL    HW223205   2.785   1.393   8.397 -2.2958 -0.7676  0.5071
 5364SOL     OW23206   9.172   9.235   2.163  0.0255 -0.0792  0.5597
 5364SOL    HW123207   9.158   9.147   2.199  2.3495 -0.5588  0.4489
 5364SOL    HW223208   9.125   9.293   2.222  0.0809 -1.2448  1.7953
 5365SOL     OW23209   4.783   3.113   2.999 -0.6537  0.8483  0.3121
 5365SOL    HW123210   4.770   3.177   3.070  1.5516  1.0300  0.6148
 5365SOL    HW223211   4.878   3.104   2.992 -0.7777  1.1374 -2.9432
 5366SOL     OW23212   3.438   8.634   4.140  0.4741 -0.3309 -0.1358
 5366SOL    HW123213   3.455   8.720   4.101 -0.8494  0.3203  0.6737
 5366SOL    HW223214   3.517   8.615   4.191  0.2352  1.0408  0.7853
 5367SOL     OW23215   7.296   0.882   2.312  0.0810  0.6457 -0.4357
 5367SOL    HW123216   7.205   0.871   2.284 -1.0700  2.9608  2.0037
 5367SOL    HW223217   7.309   0.814   2.378  0.3999 -0.0628 -1.1910
 5368SOL     OW23218   8.574   1.025   1.117 -0.3865  0.2473 -0.0030
 5368SOL    HW123219   8.599   1.067   1.199 -1.6754  1.3037 -0.1055
 5368SOL    HW223220   8.635   1.061   1.052 -0.5017  0.7831  0.1837
 5369SOL     OW23221  11.542   4.800   0.805 -0.0643  0.4992 -0.0065
 5369SOL    HW123222  11.498   4.820   0.888  3.3545  0.6284  1.9743
 5369SOL    HW223223  11.578   4.884   0.776  1.2938 -0.0395  0.0445
 5370SOL     OW23224  11.766   1.457   5.650  0.3576  0.0713 -0.5312
 5370SOL    HW123225  11.773   1.453   5.555  0.2437 -0.3445 -0.5270
 5370SOL    HW223226  11.854   1.475   5.680  0.4874 -0.2767 -0.6958
 5371SOL     OW23227   0.171   6.326  12.682  0.7516 -0.5658  0.4124
 5371SOL    HW123228   0.231   6.362  12.616 -1.4459  1.0079 -0.8226
 5371SOL    HW223229   0.164   6.233  12.659  0.9067 -0.2744 -0.8883
 5372SOL     OW23230   5.982   4.327   9.665 -0.0652 -0.2670  0.0781
 5372SOL    HW123231   5.947   4.293   9.584 -0.0346  1.7661 -0.8475
 5372SOL    HW223232   6.069   4.361   9.642 -0.2203  0.7118  0.8453
 5373SOL     OW23233   0.404   8.953   2.924 -0.4206 -0.1457 -0.0583
 5373SOL    HW123234   0.498   8.958   2.904 -0.6941  0.6865 -1.2072
 5373SOL    HW223235   0.396   8.875   2.979  1.3410  1.3079  2.4958
 5374SOL     OW23236   6.944   7.410   4.244 -0.4885  0.3909  0.3562
 5374SOL    HW123237   6.984   7.466   4.311  1.4964 -0.2340 -0.2179
 5374SOL    HW223238   6.990   7.434   4.163 -1.2805 -0.4086 -0.3532
 5375SOL     OW23239   8.276  12.671   1.844 -0.2076  0.1329  0.3045
 5375SOL    HW123240   8.303  12.739   1.781  0.0004 -0.0754  0.1686
 5375SOL    HW223241   8.260  12.594   1.790  1.2491 -0.4339  0.6241
 5376SOL     OW23242   0.361   4.495   9.910  0.2149  0.3154 -0.5193
 5376SOL    HW123243   0.423   4.541   9.968 -0.7605 -1.1622  1.8578
 5376SOL    HW223244   0.279   4.545   9.919  0.2184  0.4370 -1.1392
 5377SOL     OW23245  11.227   0.481   9.317 -0.3086  0.5172  0.3406
 5377SOL    HW123246  11.316   0.493   9.351  0.2664  4.4925 -1.8586
 5377SOL    HW223247  11.221   0.388   9.297  2.7391 -0.1796  2.1026
 5378SOL     OW23248  12.349   5.405   4.756  0.6886 -0.3693  0.3443
 5378SOL    HW123249  12.437   5.414   4.794  0.5607 -0.2047  0.6069
 5378SOL    HW223250  12.364   5.379   4.665  1.0339  1.0204 -0.0070
 5379SOL     OW23251   7.617  11.451   0.141  0.0376  0.3774 -0.6262
 5379SOL    HW123252   7.654  11.539   0.132 -0.2575  0.4072 -1.6254
 5379SOL    HW223253   7.546  11.448   0.076  0.8001 -1.0072 -1.4310
 5380SOL     OW23254  12.399   8.628   6.078 -0.0969  0.1194  0.2303
 5380SOL    HW123255  12.338   8.611   6.149  1.2026 -2.3347  0.8737
 5380SOL    HW223256  12.343   8.652   6.004 -1.6551  0.2381  1.3927
 5381SOL     OW23257   3.600   3.680  12.871 -0.0345 -0.0299 -0.0948
 5381SOL    HW123258   3.521   3.681  12.818  1.2082  0.3738 -2.0506
 5381SOL    HW223259   3.670   3.705  12.810  1.5962 -0.3367  1.5606
 5382SOL     OW23260   5.685   0.544   4.403 -0.3068  0.3478  0.3537
 5382SOL    HW123261   5.740   0.473   4.436 -1.5118 -1.5650 -1.4870
 5382SOL    HW223262   5.640   0.578   4.481  0.8791 -0.3668  1.3865
 5383SOL     OW23263   6.273   8.500   7.354 -0.6987 -0.1793  0.5235
 5383SOL    HW123264   6.281   8.471   7.262 -2.6425  1.0180 -0.0793
 5383SOL    HW223265   6.360   8.534   7.376 -0.0556 -0.9552 -0.6958
 5384SOL     OW23266   5.293   8.951   5.589 -0.2676 -0.1810  0.2514
 5384SOL    HW123267   5.250   8.866   5.602  0.0044 -0.4421 -0.5313
 5384SOL    HW223268   5.386   8.931   5.586 -0.2258  0.0987 -0.3133
 5385SOL     OW23269  11.409   4.135  11.172 -0.8955  0.4886 -0.2356
 5385SOL    HW123270  11.405   4.231  11.176 -0.4645  0.4797  0.9420
 5385SOL    HW223271  11.474   4.112  11.238 -0.5379 -0.5922 -0.9436
 5386SOL     OW23272   4.349   0.846   4.734  0.5393  0.0240  0.3669
 5386SOL    HW123273   4.269   0.800   4.709 -0.1866  1.7426 -0.6311
 5386SOL    HW223274   4.380   0.800   4.812 -0.0898 -2.1589 -0.5995
 5387SOL     OW23275  10.441   6.085   3.979 -0.1716 -0.1247  0.7887
 5387SOL    HW123276  10.469   6.146   3.912 -0.5261 -0.3948  0.3889
 5387SOL    HW223277  10.475   6.000   3.950 -0.7870 -0.3341  0.6630
 5388SOL     OW23278   4.083   3.806   5.228  0.5433 -0.0827  0.4923
 5388SOL    HW123279   4.108   3.729   5.177  2.1516  1.9707 -2.1147
 5388SOL    HW223280   4.061   3.871   5.162  0.9336  2.2276  2.5160
 5389SOL     OW23281   3.800   9.665   0.349  0.8006 -0.0552  0.1232
 5389SOL    HW123282   3.728   9.676   0.287 -2.0220  0.6871  3.2227
 5389SOL    HW223283   3.783   9.581   0.391  1.6119  0.2274  1.0576
 5390SOL     OW23284   3.409   5.541  11.801  0.1421 -0.3475 -0.3411
 5390SOL    HW123285   3.409   5.515  11.709  0.1466  0.9921 -0.7304
 5390SOL    HW223286   3.317   5.556  11.822  0.1702 -0.3770 -0.1931
 5391SOL     OW23287  12.409  10.058   9.207  0.3578  0.1198 -0.4281
 5391SOL    HW123288  12.386  10.096   9.123  0.8326  1.5877  0.0732
 5391SOL    HW223289  12.362  10.111   9.271  2.2074  0.8850  0.3801
 5392SOL     OW23290   8.897   9.153   5.471 -0.8427 -0.0974 -0.1261
 5392SOL    HW123291   8.935   9.137   5.385 -0.9847  0.9282 -0.3882
 5392SOL    HW223292   8.907   9.247   5.485 -1.1687 -0.1921  0.8153
 5393SOL     OW23293   5.075   9.567   4.331 -0.5267 -0.0047  0.3874
 5393SOL    HW123294   5.148   9.544   4.388  0.3479 -1.3026 -1.1633
 5393SOL    HW223295   5.111   9.633   4.272 -0.6608 -0.4508 -0.2094
 5394SOL     OW23296   4.961   6.875   2.044  0.0613  0.5304  0.8116
 5394SOL    HW123297   4.885   6.928   2.020  0.8714  2.7685  2.7861
 5394SOL    HW223298   5.036   6.932   2.027  1.0503 -0.2910  2.2509
 5395SOL     OW23299   3.097  12.449   5.366  0.2955  0.5532 -0.1062
 5395SOL    HW123300   3.092  12.524   5.425 -0.0090 -0.0651  0.6758
 5395SOL    HW223301   3.190  12.441   5.345  0.4143  0.7688  0.3162
 5396SOL     OW23302   4.012   2.372  12.480 -0.2696  0.3749 -0.1215
 5396SOL    HW123303   4.084   2.430  12.456  1.0128 -1.6383 -1.4953
 5396SOL    HW223304   4.006   2.310  12.407 -4.3898  1.2639 -0.7744
 5397SOL     OW23305   3.605   3.211  12.006 -0.5033  0.3587  0.1017
 5397SOL    HW123306   3.524   3.182  12.048 -0.6976 -0.2070 -0.6375
 5397SOL    HW223307   3.597   3.179  11.915  0.6486  0.0892  0.0878
 5398SOL     OW23308   8.681  10.934   7.817 -0.6892  0.2693  0.7154
 5398SOL    HW123309   8.742  10.995   7.859  2.2211 -1.3324 -0.8945
 5398SOL    HW223310   8.690  10.952   7.724 -3.1718  0.3008  0.4231
 5399SOL     OW23311   8.735   6.113   8.464 -0.0856 -0.3637  0.0841
 5399SOL    HW123312   8.665   6.050   8.447  0.5375 -1.0828  0.1622
 5399SOL    HW223313   8.786   6.116   8.383  0.1261 -0.2615  0.2210
 5400SOL     OW23314   5.071  12.845   0.765  0.5339 -0.2251  0.2237
 5400SOL    HW123315   5.080  12.768   0.822  1.2015 -1.3913 -1.3805
 5400SOL    HW223316   5.099  12.918   0.819  1.6472 -1.3619  1.2471
 5401SOL     OW23317   2.953   9.530   1.148  0.2196  0.3428 -0.2474
 5401SOL    HW123318   2.949   9.449   1.097  1.5010 -0.0732  0.2813
 5401SOL    HW223319   3.009   9.509   1.222  0.2910  1.6275  0.0869
 5402SOL     OW23320  10.461   0.906   4.926 -0.0422 -0.1074 -0.7666
 5402SOL    HW123321  10.482   0.881   4.836  0.7812  1.0137 -0.9147
 5402SOL    HW223322  10.390   0.970   4.917  0.7622  0.8298 -0.7338
 5403SOL     OW23323   3.868  12.933   5.030  0.5333  0.2634 -0.1322
 5403SOL    HW123324   3.931  12.900   4.966 -0.1914 -0.5883 -0.4202
 5403SOL    HW223325   3.788  12.950   4.980 -0.5701 -1.9408  0.7603
 5404SOL     OW23326   1.846   6.207   5.238 -0.2948 -1.1540  0.3678
 5404SOL    HW123327   1.847   6.299   5.262  0.4567 -0.1607 -2.9758
 5404SOL    HW223328   1.929   6.173   5.273  0.7637  0.1995 -0.6796
 5405SOL     OW23329   7.271   4.580   0.585 -0.6045 -0.8419 -0.4849
 5405SOL    HW123330   7.322   4.657   0.610 -0.2928 -1.3962  0.6228
 5405SOL    HW223331   7.185   4.596   0.624 -0.4852 -1.1376 -0.1001
 5406SOL     OW23332  10.415   7.473   5.686  0.3990 -0.4791  0.5854
 5406SOL    HW123333  10.390   7.384   5.662 -0.9332  0.2576 -0.9239
 5406SOL    HW223334  10.349   7.528   5.646  2.4379  1.3602 -0.4775
 5407SOL     OW23335   4.690  11.554   8.251  1.1345  0.1295  0.4410
 5407SOL    HW123336   4.737  11.584   8.173 -2.1485 -1.1233 -2.2703
 5407SOL    HW223337   4.673  11.462   8.235  1.9024 -0.6696  3.6084
 5408SOL     OW23338   0.967   6.345   2.943  0.1056 -0.1767  0.1140
 5408SOL    HW123339   1.003   6.289   2.875  0.9705  1.3563 -0.7401
 5408SOL    HW223340   1.000   6.307   3.025 -1.7101 -2.5930 -0.1775
 5409SOL     OW23341   9.390   9.623   5.120  0.2379  0.5574  0.2074
 5409SOL    HW123342   9.345   9.694   5.166  0.3344  0.9421 -0.2879
 5409SOL    HW223343   9.481   9.631   5.147  0.5439  1.5967 -1.0293
 5410SOL     OW23344   3.313  11.346   3.778  0.2186  0.0677  0.1892
 5410SOL    HW123345   3.361  11.424   3.805  1.0217 -0.4824  0.3704
 5410SOL    HW223346   3.236  11.345   3.836 -0.1379  1.0526 -0.2359
 5411SOL     OW23347   0.877  11.281   2.100  0.1791  0.4152  0.7223
 5411SOL    HW123348   0.796  11.299   2.148 -1.8522 -1.1995 -1.7971
 5411SOL    HW223349   0.908  11.368   2.072 -0.7838  1.0551  1.5922
 5412SOL     OW23350  10.970   2.042  10.959  0.1051  0.2394  0.3693
 5412SOL    HW123351  10.987   2.020  11.050 -0.9247 -2.0892  0.0726
 5412SOL    HW223352  10.907   2.114  10.964 -3.3010 -2.5361  1.7028
 5413SOL     OW23353   3.848   5.317  10.853  0.2591  0.4633 -0.2460
 5413SOL    HW123354   3.894   5.243  10.893 -2.1144 -0.9698  0.0309
 5413SOL    HW223355   3.776   5.336  10.913 -0.0103  2.0831 -1.0380
 5414SOL     OW23356  10.844   8.655  11.133  0.2859 -0.0961 -0.1484
 5414SOL    HW123357  10.877   8.691  11.050  0.1721  0.1466 -0.0916
 5414SOL    HW223358  10.758   8.618  11.110 -0.7032  1.8209  0.2541
 5415SOL     OW23359   6.318  10.367   9.751 -0.6467  0.0481 -0.1149
 5415SOL    HW123360   6.277  10.344   9.668  1.2064  0.6168 -1.2589
 5415SOL    HW223361   6.351  10.456   9.737  1.0873 -0.4276  0.6274
 5416SOL     OW23362   5.884   8.933  10.360 -0.1030  0.5998  0.6042
 5416SOL    HW123363   5.963   8.880  10.367  0.5663  1.6735  1.4589
 5416SOL    HW223364   5.859   8.951  10.451 -1.7887 -0.3633  0.3707
 5417SOL     OW23365   2.919  10.500   1.838  0.4364  0.3087  1.0251
 5417SOL    HW123366   2.944  10.408   1.849 -1.7219 -0.4533  0.2675
 5417SOL    HW223367   2.985  10.536   1.779  0.2895 -1.3011 -0.2057
 5418SOL     OW23368   2.293   8.980   2.658  0.3472  0.9802  0.1056
 5418SOL    HW123369   2.326   9.044   2.596  2.8775 -0.4117 -0.1315
 5418SOL    HW223370   2.198   8.986   2.652  0.4611  0.9726 -3.8330
 5419SOL     OW23371   9.094   5.659   2.911 -0.0214  0.0231  0.0493
 5419SOL    HW123372   9.050   5.599   2.972 -0.5893 -0.3895 -0.7446
 5419SOL    HW223373   9.171   5.689   2.959 -0.4520 -0.2891  0.9708
 5420SOL     OW23374   0.339  10.489  11.026  0.6363  0.5396  0.1041
 5420SOL    HW123375   0.260  10.540  11.042  0.0164 -0.4477  0.2404
 5420SOL    HW223376   0.311  10.415  10.974  1.5677  0.4316 -0.2735
 5421SOL     OW23377  10.585   7.501   2.768  0.6871  0.1441  0.3137
 5421SOL    HW123378  10.541   7.574   2.811  0.7460  1.3647 -1.5700
 5421SOL    HW223379  10.654   7.541   2.716  1.0159 -1.2910 -0.4311
 5422SOL     OW23380   6.571   4.071  12.417 -0.4928 -0.3799  0.0021
 5422SOL    HW123381   6.535   3.997  12.369 -1.8505 -0.0018  0.4141
 5422SOL    HW223382   6.613   4.125  12.350 -1.5657 -0.3223 -0.6501
 5423SOL     OW23383   2.333   1.340   8.972  0.1390 -0.0153  0.1099
 5423SOL    HW123384   2.304   1.299   9.054  0.3794 -2.4661 -0.9496
 5423SOL    HW223385   2.390   1.275   8.931  2.8015  2.4561 -0.4868
 5424SOL     OW23386   0.684   6.856   6.055 -0.0591  0.5885 -0.4257
 5424SOL    HW123387   0.696   6.919   6.126  2.1878 -1.2760  0.9948
 5424SOL    HW223388   0.607   6.805   6.081  1.3695 -0.8081  1.4136
 5425SOL     OW23389   5.266  12.752   7.441  0.3364  0.0737 -0.0917
 5425SOL    HW123390   5.217  12.835   7.439 -1.0995 -0.7220  0.3635
 5425SOL    HW223391   5.331  12.761   7.371  0.8859  1.9603  0.5937
 5426SOL     OW23392  10.866   0.101   4.135 -0.0007  0.4737 -0.1935
 5426SOL    HW123393  10.838   0.187   4.168  1.3602  0.4099  1.2271
 5426SOL    HW223394  10.845   0.040   4.205 -0.3256 -0.2536 -0.9160
 5427SOL     OW23395   0.663  10.860   1.939 -0.1386  0.1683 -0.4481
 5427SOL    HW123396   0.652  10.954   1.954  0.9558  0.1003  1.0601
 5427SOL    HW223397   0.667  10.822   2.027 -2.3908 -1.5689 -0.9836
 5428SOL     OW23398   1.895   0.571   2.606 -0.8785  0.1261  0.2054
 5428SOL    HW123399   1.865   0.603   2.521  0.2436  0.1857 -0.1861
 5428SOL    HW223400   1.859   0.634   2.669  0.3841  1.5598 -0.4537
 5429SOL     OW23401  12.017   6.735   5.784 -0.2910  0.2607 -0.3039
 5429SOL    HW123402  12.101   6.690   5.791 -1.8567 -3.2199 -1.6120
 5429SOL    HW223403  11.990   6.751   5.874  0.1273 -2.0124  0.2646
 5430SOL     OW23404   7.470   6.328   4.027 -0.1208  0.0471  0.1469
 5430SOL    HW123405   7.518   6.311   4.108 -0.1229 -0.7332 -0.0085
 5430SOL    HW223406   7.438   6.242   4.000  0.0104  0.2755 -0.7597
 5431SOL     OW23407  12.158   0.105   3.124 -1.0413 -0.0174  0.4077
 5431SOL    HW123408  12.095   0.043   3.087  0.3036 -0.8800 -0.5013
 5431SOL    HW223409  12.164   0.082   3.216 -0.8434 -1.0111  0.1574
 5432SOL     OW23410   3.684   3.008  10.523  0.0401  0.0103  0.2574
 5432SOL    HW123411   3.622   3.017  10.450 -1.9181 -0.7493  1.7522
 5432SOL    HW223412   3.732   2.928  10.504  0.3884  0.4392 -0.7643
 5433SOL     OW23413   4.009  10.506   2.119  0.4969 -0.5014  0.2118
 5433SOL    HW123414   3.984  10.574   2.057  1.3021 -0.6202 -0.2519
 5433SOL    HW223415   3.989  10.424   2.075  1.5536 -0.5966 -0.1224
 5434SOL     OW23416   2.347   1.795   1.897 -0.0076  0.1786 -0.8868
 5434SOL    HW123417   2.254   1.777   1.907 -0.2362  1.2873 -0.8554
 5434SOL    HW223418   2.368   1.857   1.967  1.2714 -1.6908  0.4774
 5435SOL     OW23419   4.290   5.994   0.073  0.5130  0.3609 -0.3935
 5435SOL    HW123420   4.261   6.076   0.114 -1.7323  0.2659 -1.6232
 5435SOL    HW223421   4.380   5.983   0.103  0.7131  2.9932  0.2502
 5436SOL     OW23422   2.378  12.747   6.157  0.3551  0.7138  0.5770
 5436SOL    HW123423   2.357  12.697   6.078  1.8820  2.7965 -1.2865
 5436SOL    HW223424   2.316  12.820   6.156  0.0716  0.5025  1.6194
 5437SOL     OW23425   5.061   3.617   2.922  0.2530 -0.5707  0.3668
 5437SOL    HW123426   4.997   3.584   2.859  0.9338 -2.3285  0.5411
 5437SOL    HW223427   5.034   3.577   3.005  0.6462 -0.0271  0.7595
 5438SOL     OW23428   4.557  10.296   0.318  0.2868  0.0156 -0.4067
 5438SOL    HW123429   4.554  10.211   0.276 -0.2025 -0.3234  0.3001
 5438SOL    HW223430   4.611  10.350   0.259 -1.0631 -0.1931 -1.8818
 5439SOL     OW23431  11.051   2.338   0.229  0.0878  0.0121 -0.5535
 5439SOL    HW123432  10.965   2.370   0.257  1.9648  2.7104  3.0240
 5439SOL    HW223433  11.084   2.407   0.171  1.0221  0.7295  0.7609
 5440SOL     OW23434   6.355   9.867   2.344 -0.6680 -0.3018  0.2055
 5440SOL    HW123435   6.390   9.942   2.393  1.2832 -1.5107  0.7246
 5440SOL    HW223436   6.285   9.833   2.400  0.8418 -1.0267  1.7290
 5441SOL     OW23437   3.557   2.544   5.953  0.2565 -0.4433 -0.0105
 5441SOL    HW123438   3.513   2.617   5.997  0.1975 -1.4085  1.6364
 5441SOL    HW223439   3.540   2.469   6.010  0.7615 -1.6346 -1.3834
 5442SOL     OW23440   7.445   6.232   1.583 -0.0040 -0.7383  0.0376
 5442SOL    HW123441   7.378   6.225   1.515 -3.5555  0.8330  2.9635
 5442SOL    HW223442   7.473   6.324   1.579  0.9910 -1.0539 -0.3138
 5443SOL     OW23443  11.225   5.634   4.720 -0.0537  0.6827 -0.0733
 5443SOL    HW123444  11.138   5.627   4.759  0.9936  1.4066  2.5941
 5443SOL    HW223445  11.214   5.698   4.650 -1.5220  1.3646  0.7228
 5444SOL     OW23446   1.525   5.011   6.359  0.1161  0.0071  0.3594
 5444SOL    HW123447   1.601   5.044   6.311  0.5939  0.2287  1.2552
 5444SOL    HW223448   1.561   4.945   6.418 -0.5859 -0.8652 -0.1650
 5445SOL     OW23449   8.641   7.192   9.987  0.3481  0.4793 -0.5482
 5445SOL    HW123450   8.713   7.172   9.927  0.7995  1.8604 -0.5002
 5445SOL    HW223451   8.614   7.107  10.022  0.2033 -0.3545 -2.5422
 5446SOL     OW23452   3.402   1.304   8.879 -0.1910 -0.1143  0.0977
 5446SOL    HW123453   3.452   1.332   8.956  0.2534  0.7462 -0.4881
 5446SOL    HW223454   3.335   1.372   8.868  0.6452  0.5254 -1.1087
 5447SOL     OW23455   1.587   0.663   3.344  0.6030  0.1487  0.5447
 5447SOL    HW123456   1.602   0.744   3.295  1.6894 -0.9321 -1.0151
 5447SOL    HW223457   1.657   0.663   3.410  0.0392  0.9003  1.1611
 5448SOL     OW23458   9.803  11.394   2.334 -0.1079 -0.4171  0.4302
 5448SOL    HW123459   9.718  11.418   2.295 -0.4212  0.6397  1.6815
 5448SOL    HW223460   9.800  11.299   2.342 -0.1781 -0.6478 -1.7270
 5449SOL     OW23461   0.044   8.770  12.224 -0.1802 -0.7454  0.3626
 5449SOL    HW123462   0.138   8.769  12.244 -0.1651  0.4201  0.4041
 5449SOL    HW223463   0.005   8.821  12.295 -0.8009 -0.9061  0.1418
 5450SOL     OW23464   9.310   4.019   5.489 -0.5837 -0.3779  0.0924
 5450SOL    HW123465   9.384   4.039   5.547  0.5227 -0.2748 -1.2997
 5450SOL    HW223466   9.322   3.926   5.467  0.6331  0.2342 -2.1183
 5451SOL     OW23467  12.281   2.860   2.904  0.3010 -0.7093  0.4308
 5451SOL    HW123468  12.302   2.803   2.830 -1.8684 -1.4800  0.3354
 5451SOL    HW223469  12.366   2.894   2.933  1.2959 -1.1175 -1.7958
 5452SOL     OW23470  12.849   3.450   5.672  0.3956 -0.1019  0.3885
 5452SOL    HW123471  12.865   3.356   5.682 -2.7805 -0.8242 -0.1016
 5452SOL    HW223472  12.782   3.469   5.738 -1.4115  1.0101 -1.6403
 5453SOL     OW23473   8.439   4.145   1.619 -0.0251  0.6928 -0.1274
 5453SOL    HW123474   8.401   4.186   1.541  0.3314 -0.3536 -0.8743
 5453SOL    HW223475   8.367   4.144   1.682 -0.7788  0.2344 -0.9599
 5454SOL     OW23476   5.217   0.143   9.173 -0.0210  0.0111  0.4902
 5454SOL    HW123477   5.202   0.234   9.149  0.5882 -0.3895 -1.6291
 5454SOL    HW223478   5.148   0.095   9.126 -0.3677 -0.6375  1.6218
 5455SOL     OW23479   1.258   6.871   2.628 -0.6448  0.6208  0.3257
 5455SOL    HW123480   1.211   6.927   2.566 -3.0807 -0.5078  1.0036
 5455SOL    HW223481   1.238   6.910   2.714 -0.1346  0.2411  0.6178
 5456SOL     OW23482   8.363   5.521  10.087 -0.0962  0.7600  0.1037
 5456SOL    HW123483   8.339   5.474  10.167 -0.4623  0.1717 -0.3439
 5456SOL    HW223484   8.438   5.575  10.112  0.5075 -0.2787  0.5605
 5457SOL     OW23485  10.393   5.920   4.209  0.1778  0.9464  0.1167
 5457SOL    HW123486  10.419   5.887   4.123 -1.1124 -0.2311  0.1414
 5457SOL    HW223487  10.452   5.876   4.270  0.0718  0.5618 -0.0524
 5458SOL     OW23488   0.986   6.121   3.810 -0.3428 -0.0495  0.2515
 5458SOL    HW123489   1.055   6.078   3.760  0.6300  1.5932  0.0844
 5458SOL    HW223490   0.932   6.050   3.844  1.9541 -1.4947  1.1393
 5459SOL     OW23491   8.198   5.296   5.866 -0.5686 -0.4961  0.3549
 5459SOL    HW123492   8.165   5.207   5.851  0.4507 -1.2061  2.0336
 5459SOL    HW223493   8.135   5.334   5.927 -0.5416 -0.3595  0.2979
 5460SOL     OW23494   8.877  11.399   3.050 -0.9681 -0.1340 -0.4569
 5460SOL    HW123495   8.848  11.489   3.035  0.5343  0.4274 -0.1728
 5460SOL    HW223496   8.947  11.407   3.115 -1.0274 -1.5452 -0.1952
 5461SOL     OW23497   5.532   8.075   4.602 -0.1999 -0.2880 -0.1052
 5461SOL    HW123498   5.566   8.040   4.519 -0.3146  1.5239 -0.9813
 5461SOL    HW223499   5.440   8.096   4.582 -0.0009  0.9262  0.2094
 5462SOL     OW23500   1.532   1.167  11.932  0.5140  0.2228  0.2811
 5462SOL    HW123501   1.471   1.093  11.933 -1.1435  1.4304 -1.8759
 5462SOL    HW223502   1.606   1.138  11.986 -1.1206 -2.0386  1.4752
 5463SOL     OW23503   7.117   2.484   3.911 -0.1833 -0.1045  0.0076
 5463SOL    HW123504   7.030   2.445   3.917  0.0258 -0.7661 -0.9045
 5463SOL    HW223505   7.103   2.578   3.919 -0.8027 -0.2950  1.3873
 5464SOL     OW23506   0.926  10.935   1.413  0.2414 -0.5215  0.0529
 5464SOL    HW123507   0.857  10.887   1.458  0.9847 -0.3030  1.4885
 5464SOL    HW223508   0.886  11.019   1.389 -0.2366 -0.7432  0.0699
 5465SOL     OW23509   5.696   7.910   0.935  0.5438  0.0621  0.2230
 5465SOL    HW123510   5.625   7.847   0.927  0.3462  0.4158 -1.0614
 5465SOL    HW223511   5.771   7.858   0.966 -0.0829 -0.4331  0.9440
 5466SOL     OW23512   4.668   5.467   9.633 -0.8353  0.0374 -0.1291
 5466SOL    HW123513   4.601   5.404   9.606 -0.8732 -0.6372  1.4147
 5466SOL    HW223514   4.741   5.450   9.574 -1.0502 -1.0828 -0.1041
 5467SOL     OW23515   2.900   2.649   9.433 -0.0959 -0.1538  0.8164
 5467SOL    HW123516   2.902   2.669   9.340 -1.6105 -0.4769  0.6896
 5467SOL    HW223517   2.970   2.585   9.446 -0.5683 -0.9089 -0.3006
 5468SOL     OW23518   2.418   3.006   4.097  1.2384 -0.0237  0.0770
 5468SOL    HW123519   2.473   3.022   4.174 -1.0214 -2.8495  2.4836
 5468SOL    HW223520   2.434   2.915   4.074 -1.8345 -0.7692  0.4806
 5469SOL     OW23521   3.555  10.412   0.659 -0.5645  0.3741 -0.6310
 5469SOL    HW123522   3.585  10.489   0.707  0.1410 -0.2969  0.0362
 5469SOL    HW223523   3.557  10.342   0.723 -3.1637  0.1813 -0.6777
 5470SOL     OW23524   5.088   5.915   0.834  0.0543  0.6319  0.0030
 5470SOL    HW123525   5.054   5.917   0.745  0.6610  3.3791 -0.2616
 5470SOL    HW223526   5.183   5.908   0.824  0.0656 -0.1168  0.4964
 5471SOL     OW23527   1.811   7.970   6.868 -0.0095 -0.4599  0.1089
 5471SOL    HW123528   1.812   8.061   6.895  2.1431 -0.5584  0.6074
 5471SOL    HW223529   1.773   7.923   6.941  0.2019 -0.0954  0.4570
 5472SOL     OW23530  10.582   7.886   9.028  0.0339 -0.7880  0.3521
 5472SOL    HW123531  10.671   7.905   8.997 -0.3393 -0.6221 -0.6637
 5472SOL    HW223532  10.552   7.815   8.972 -1.5999  1.2143 -1.5186
 5473SOL     OW23533   4.738   6.850   9.334 -0.2962  0.0114 -0.2810
 5473SOL    HW123534   4.749   6.868   9.241 -0.4250 -0.4893 -0.3968
 5473SOL    HW223535   4.647   6.874   9.352 -1.4621 -3.2343 -1.1191
 5474SOL     OW23536   1.799   7.505   9.198  0.4935  0.3088  0.0472
 5474SOL    HW123537   1.831   7.415   9.203  1.7788  0.6399 -1.3872
 5474SOL    HW223538   1.870   7.553   9.155 -0.2852  1.9544  0.5132
 5475SOL     OW23539   8.698   5.624   1.067  0.3104  0.4328  0.2141
 5475SOL    HW123540   8.632   5.566   1.106  0.6588  0.6300  1.1166
 5475SOL    HW223541   8.776   5.610   1.120  1.0923  0.0114 -1.0023
 5476SOL     OW23542   7.063  12.393   1.364 -0.3945  0.4221 -0.9158
 5476SOL    HW123543   7.034  12.414   1.275 -0.4486  1.8692 -0.5777
 5476SOL    HW223544   7.122  12.465   1.387  1.8235 -1.3266 -0.7834
 5477SOL     OW23545   1.375   4.362   2.517 -0.0738  0.4446 -0.0190
 5477SOL    HW123546   1.312   4.291   2.533 -0.2073  0.3318 -0.9989
 5477SOL    HW223547   1.457   4.318   2.498  0.4362  0.5980  1.6883
 5478SOL     OW23548   9.370   4.866   5.443 -0.3036  0.1929 -0.2166
 5478SOL    HW123549   9.448   4.814   5.421 -0.3541 -0.5866  1.3033
 5478SOL    HW223550   9.300   4.801   5.454 -0.8447  0.7661 -0.2314
 5479SOL     OW23551   9.614   3.314   7.031  0.0845 -0.2826  0.0522
 5479SOL    HW123552   9.576   3.388   7.079 -0.3400 -0.5866  0.1900
 5479SOL    HW223553   9.589   3.237   7.083 -2.6749 -0.9207 -2.0235
 5480SOL     OW23554   2.191   5.572   3.632 -0.1621 -0.1811 -0.8439
 5480SOL    HW123555   2.217   5.661   3.655 -0.9597  0.0901 -0.9654
 5480SOL    HW223556   2.149   5.538   3.711  0.3145 -0.5259 -0.7325
 5481SOL     OW23557   2.560   4.877   1.790 -0.4599  0.0321  0.0790
 5481SOL    HW123558   2.467   4.893   1.777 -0.5931 -0.6761  0.1189
 5481SOL    HW223559   2.564   4.812   1.860  0.0721  0.1350  0.1526
 5482SOL     OW23560   4.791   7.219  10.113  0.4875 -0.2103 -0.2715
 5482SOL    HW123561   4.848   7.173  10.174  0.4140 -0.2209 -0.2103
 5482SOL    HW223562   4.805   7.175  10.029  0.0458 -0.6711 -0.1105
 5483SOL     OW23563  10.484  10.189   3.421  0.9560  0.2945 -0.0225
 5483SOL    HW123564  10.410  10.249   3.419  2.9534  2.9760 -0.0125
 5483SOL    HW223565  10.498  10.171   3.514 -1.0218 -2.1830 -0.1126
 5484SOL     OW23566   9.753   9.749  11.042 -0.6520 -0.2565  0.0996
 5484SOL    HW123567   9.800   9.756  10.959 -0.7090  0.7036  0.1371
 5484SOL    HW223568   9.700   9.828  11.047 -0.0722  0.0893  1.4051
 5485SOL     OW23569   2.010  12.414   0.159  0.1382  0.1209  0.3250
 5485SOL    HW123570   1.936  12.365   0.195  0.8658  0.1419  1.9516
 5485SOL    HW223571   2.028  12.482   0.225 -0.7058  2.5051 -1.7439
 5486SOL     OW23572   1.322   7.988  10.821  0.3903 -0.3802  0.0536
 5486SOL    HW123573   1.247   8.015  10.768 -1.5443 -1.5645  2.0534
 5486SOL    HW223574   1.351   8.068  10.864 -1.2020 -0.2899  1.0058
 5487SOL     OW23575   4.415   9.032  10.711 -0.7052  0.3991 -0.0408
 5487SOL    HW123576   4.453   8.984  10.638 -1.0048  0.1500 -0.0347
 5487SOL    HW223577   4.488   9.080  10.749 -0.4606  0.1792 -0.2311
 5488SOL     OW23578  12.170   7.131   3.663 -0.1129  0.2610 -0.0555
 5488SOL    HW123579  12.157   7.054   3.717 -2.3759  1.2564  0.9297
 5488SOL    HW223580  12.265   7.147   3.667 -0.1368  0.3199  3.7309
 5489SOL     OW23581  12.606  10.385  11.724 -0.1293 -0.4057  0.1604
 5489SOL    HW123582  12.670  10.314  11.721 -0.4886 -0.7442  0.4124
 5489SOL    HW223583  12.595  10.404  11.817  1.4625  1.3635  0.0480
 5490SOL     OW23584   3.370   6.235   7.371  0.0883 -0.0455  0.1819
 5490SOL    HW123585   3.319   6.316   7.362  0.6634  0.4566  1.2352
 5490SOL    HW223586   3.444   6.260   7.427  0.9629 -0.9940 -0.5131
 5491SOL     OW23587   1.950   1.957   6.682 -0.3726  0.5066  0.7818
 5491SOL    HW123588   1.880   1.939   6.744 -0.9918  2.2264  0.6297
 5491SOL    HW223589   2.031   1.935   6.729 -0.9644 -0.8951  1.1779
 5492SOL     OW23590   1.141  11.966   1.413  0.2435  0.4100  0.4375
 5492SOL    HW123591   1.234  11.986   1.423  0.2344  0.8382 -0.2719
 5492SOL    HW223592   1.137  11.912   1.334 -0.1734  0.9136  0.1064
 5493SOL     OW23593   9.662   4.217   4.447  0.6813 -1.1779 -0.4843
 5493SOL    HW123594   9.725   4.237   4.516  0.6685 -0.2706 -0.7206
 5493SOL    HW223595   9.583   4.266   4.472  0.7872 -0.5715 -1.3100
 5494SOL     OW23596   0.494   5.744   3.881 -0.1832 -0.2249  0.4583
 5494SOL    HW123597   0.467   5.717   3.793  1.8455  1.5163 -0.8345
 5494SOL    HW223598   0.503   5.839   3.875  0.5491 -0.1175  2.4014
 5495SOL     OW23599   5.475   3.079  11.979 -0.3966  0.1301 -0.0107
 5495SOL    HW123600   5.432   3.163  11.998 -0.5446  0.1708 -0.5177
 5495SOL    HW223601   5.562   3.104  11.948 -0.8185  0.1584 -1.2355
 5496SOL     OW23602   4.162  12.893   8.596  0.1902  0.5494 -0.1261
 5496SOL    HW123603   4.102  12.884   8.521 -1.5140 -0.0354  1.2335
 5496SOL    HW223604   4.128  12.831   8.661  1.9822  0.6037  0.9170
 5497SOL     OW23605   7.410   5.122   0.585 -0.0458 -0.5802 -0.2105
 5497SOL    HW123606   7.449   5.155   0.504 -3.0544 -0.4516 -1.7252
 5497SOL    HW223607   7.413   5.196   0.646 -1.0028  0.5136 -1.4516
 5498SOL     OW23608  11.821  12.000  12.884 -0.1917 -0.2334  0.1409
 5498SOL    HW123609  11.726  11.987  12.878 -0.1171 -0.2516 -1.2370
 5498SOL    HW223610  11.841  11.983  12.976 -1.5747  0.1487  0.5418
 5499SOL     OW23611   6.439  10.807   2.826  0.4321  0.3031  0.0065
 5499SOL    HW123612   6.512  10.869   2.836  0.8119 -0.0343 -0.6198
 5499SOL    HW223613   6.476  10.735   2.775 -0.4663  0.3472 -0.7219
 5500SOL     OW23614   6.924  12.937   8.740  0.0275  0.1013  0.6287
 5500SOL    HW123615   6.898  12.894   8.821 -2.1136  0.5655  0.2456
 5500SOL    HW223616   6.854  12.916   8.678  1.1534  0.5131 -0.8445
 5501SOL     OW23617   0.388   7.772  10.276 -0.3867 -0.3797  0.2045
 5501SOL    HW123618   0.423   7.797  10.362 -0.1549  0.9557 -0.2610
 5501SOL    HW223619   0.460   7.725  10.233  0.6513  1.6774 -0.4474
 5502SOL     OW23620  12.707  12.119   5.964  0.3732 -0.2682  0.0114
 5502SOL    HW123621  12.748  12.036   5.987  0.2950 -0.2096  0.3722
 5502SOL    HW223622  12.668  12.104   5.878  2.4973  0.1448 -1.1027
 5503SOL     OW23623  12.515   2.029   8.419 -0.2508  0.1271 -0.2266
 5503SOL    HW123624  12.519   1.934   8.436 -0.8726  0.1943  0.3342
 5503SOL    HW223625  12.548   2.038   8.330 -0.9710 -0.7199 -0.6068
 5504SOL     OW23626  10.356   3.632   5.312  0.1415  0.4169 -0.2245
 5504SOL    HW123627  10.351   3.724   5.286 -1.0421  0.8437  1.3734
 5504SOL    HW223628  10.279   3.592   5.273  0.8839 -0.0398 -1.2879
 5505SOL     OW23629   0.168   4.490   6.434 -0.1912  0.4555 -0.3337
 5505SOL    HW123630   0.233   4.420   6.436  1.0690  1.5925  0.9494
 5505SOL    HW223631   0.083   4.445   6.440  0.4919 -1.0093 -1.1563
 5506SOL     OW23632   7.048   5.351   6.327  0.0231  0.2492  0.1823
 5506SOL    HW123633   7.094   5.424   6.367  1.1130 -0.4163  0.1903
 5506SOL    HW223634   6.997   5.312   6.398 -2.5159  2.3869 -0.3025
 5507SOL     OW23635   5.216   1.320   8.692  0.4426 -0.0161  0.4013
 5507SOL    HW123636   5.253   1.293   8.776  0.3481 -0.5505  0.2744
 5507SOL    HW223637   5.278   1.286   8.627 -0.7540 -1.8168  0.1252
 5508SOL     OW23638   4.468   0.178  11.023  0.2762 -0.2229  0.2677
 5508SOL    HW123639   4.391   0.130  10.992  0.6529 -0.6177 -0.0808
 5508SOL    HW223640   4.542   0.134  10.980  0.8219 -0.7475  1.6621
 5509SOL     OW23641   9.381   5.340   2.984 -0.2544  0.3177  0.1451
 5509SOL    HW123642   9.385   5.308   3.074 -0.0534  2.3691  0.9316
 5509SOL    HW223643   9.462   5.391   2.974 -0.2111  0.0070 -1.2433
 5510SOL     OW23644  11.483   4.519   7.559  0.3108  0.7176  0.8687
 5510SOL    HW123645  11.424   4.594   7.548  0.3703  0.9767  2.2373
 5510SOL    HW223646  11.426   4.443   7.554  0.2413  0.8261 -0.4924
 5511SOL     OW23647   8.206   7.802   3.320 -0.2954  0.2863 -0.5178
 5511SOL    HW123648   8.146   7.816   3.247  1.7703  1.7304 -2.0610
 5511SOL    HW223649   8.272   7.742   3.285  0.8784  1.2201  0.0402
 5512SOL     OW23650   2.029   0.611   3.176 -0.2703 -0.2963  0.0451
 5512SOL    HW123651   2.118   0.590   3.206 -0.5246  0.0766  1.0832
 5512SOL    HW223652   2.040   0.687   3.119  0.0445 -0.0753  0.3981
 5513SOL     OW23653   5.201   1.188   3.821 -0.3048  0.0605  0.0133
 5513SOL    HW123654   5.191   1.208   3.727  1.7881  0.4053 -0.1865
 5513SOL    HW223655   5.186   1.094   3.827  0.8714 -0.2230 -0.9363
 5514SOL     OW23656   5.335   8.709   3.565 -0.3800  0.2440  0.2866
 5514SOL    HW123657   5.392   8.781   3.539  1.3883 -1.6640 -1.4511
 5514SOL    HW223658   5.391   8.632   3.564 -2.0425 -1.1433  2.6998
 5515SOL     OW23659  11.886   3.097   3.203  0.2345 -0.6826 -0.1752
 5515SOL    HW123660  11.797   3.062   3.214 -1.1397  0.8308 -4.4261
 5515SOL    HW223661  11.933   3.027   3.156 -0.3332  0.2763 -2.2949
 5516SOL     OW23662   6.929   1.881   1.129 -0.8081 -0.8850  0.0429
 5516SOL    HW123663   7.008   1.934   1.136 -0.4171 -1.3962 -0.5420
 5516SOL    HW223664   6.957   1.792   1.150 -1.0739 -1.1987 -0.9212
 5517SOL     OW23665   5.552   2.031  11.707 -0.8153 -0.2774 -0.2826
 5517SOL    HW123666   5.609   2.006  11.634 -0.1394 -1.9206  0.7531
 5517SOL    HW223667   5.468   2.052  11.666 -0.2049 -0.3361 -1.6020
 5518SOL     OW23668   8.386   4.916   4.283 -0.0115  0.3167  0.2104
 5518SOL    HW123669   8.336   4.996   4.266 -1.8769 -0.4782  1.5795
 5518SOL    HW223670   8.386   4.908   4.379  0.6615 -0.9900  0.1174
 5519SOL     OW23671   9.398  12.545   0.373 -0.6874 -0.4033  0.1668
 5519SOL    HW123672   9.418  12.620   0.429  2.1522 -1.6535  1.0059
 5519SOL    HW223673   9.418  12.469   0.427 -0.8218 -1.7144 -1.5605
 5520SOL     OW23674   0.303   7.883   9.937  0.1270  0.1561 -0.4991
 5520SOL    HW123675   0.386   7.837   9.950  0.7306  0.9071 -1.5863
 5520SOL    HW223676   0.318   7.971   9.973 -0.8176 -0.2443  0.9878
 5521SOL     OW23677   3.149   5.094   6.075 -0.1073  0.2120  0.6192
 5521SOL    HW123678   3.079   5.146   6.035  0.1635  0.6293  0.6890
 5521SOL    HW223679   3.162   5.133   6.161  1.0132  0.8878  0.1715
 5522SOL     OW23680  12.001   5.038   6.758 -0.2256 -0.0800  0.3430
 5522SOL    HW123681  12.084   5.006   6.723 -0.2906  0.5103 -0.3636
 5522SOL    HW223682  11.987   4.986   6.837 -1.2458 -3.1879 -1.6866
 5523SOL     OW23683   2.549   9.236   2.075 -0.1122  0.4800  0.3853
 5523SOL    HW123684   2.618   9.233   2.141  0.2005  1.7651  0.1517
 5523SOL    HW223685   2.589   9.281   2.000 -1.3341  1.7000  0.4346
 5524SOL     OW23686   8.966   7.302  11.638  0.1143 -0.1136 -0.2088
 5524SOL    HW123687   8.965   7.353  11.557  0.6291  1.3426  0.6627
 5524SOL    HW223688   9.056   7.307  11.669  0.7220 -3.3125 -1.0974
 5525SOL     OW23689   8.574   5.105   7.315  0.2380 -0.2557 -0.0247
 5525SOL    HW123690   8.535   5.168   7.376  0.1697 -0.6782  0.3728
 5525SOL    HW223691   8.593   5.156   7.237  0.0362  0.2261  0.2370
 5526SOL     OW23692  10.366   1.965   1.322  0.0242  0.3739  0.1385
 5526SOL    HW123693  10.404   1.898   1.378 -2.5340 -0.1462  1.3572
 5526SOL    HW223694  10.340   2.035   1.381  0.8435  1.6258 -0.9024
 5527SOL     OW23695   5.528  12.585   4.873 -0.1972  0.0084 -0.1880
 5527SOL    HW123696   5.438  12.574   4.902 -0.2564  0.5815 -0.1435
 5527SOL    HW223697   5.522  12.643   4.797  0.2791  1.5196  0.8894
 5528SOL     OW23698   8.925  12.820   3.392  0.0043  0.2290 -0.2702
 5528SOL    HW123699   8.966  12.878   3.328 -2.0240  1.2937 -0.6865
 5528SOL    HW223700   8.839  12.801   3.356 -0.4765 -0.6826  1.2674
 5529SOL     OW23701   6.492   2.419   8.440  0.2713  0.2715 -0.7024
 5529SOL    HW123702   6.584   2.431   8.464  0.1796  2.4921 -1.2247
 5529SOL    HW223703   6.444   2.435   8.522  0.3109 -0.7799 -0.4557
 5530SOL     OW23704   0.302   1.305   1.750 -0.1326  0.1022 -0.1130
 5530SOL    HW123705   0.210   1.320   1.772  0.0459  1.3649 -0.1448
 5530SOL    HW223706   0.350   1.355   1.815  0.6678 -2.6282  1.5654
 5531SOL     OW23707   5.672   4.822   4.075 -0.4420 -0.5948  0.1522
 5531SOL    HW123708   5.601   4.882   4.054  0.9172  1.1022  0.1970
 5531SOL    HW223709   5.737   4.876   4.120  0.5251 -2.2695  0.8722
 5532SOL     OW23710   5.902   4.186   6.279  0.2612  0.1902 -0.1653
 5532SOL    HW123711   5.942   4.248   6.339 -0.1952  2.4901 -2.0458
 5532SOL    HW223712   5.968   4.173   6.211 -0.0520 -0.5660 -0.3304
 5533SOL     OW23713   4.974   5.864   0.140  0.2377 -0.0343  0.1185
 5533SOL    HW123714   4.982   5.917   0.061 -0.4200 -1.4731 -0.9626
 5533SOL    HW223715   5.057   5.875   0.185  0.9345  0.1780 -1.1813
 5534SOL     OW23716   1.088   3.525   9.853  0.3484 -0.1795  0.4241
 5534SOL    HW123717   0.994   3.504   9.852 -0.2767  2.2771  0.2657
 5534SOL    HW223718   1.114   3.528   9.761  1.0975 -2.6501  0.4960
 5535SOL     OW23719  11.965   7.230   8.868  0.0488  0.2891 -0.0112
 5535SOL    HW123720  11.887   7.280   8.889  0.8750  1.4398  0.3804
 5535SOL    HW223721  12.012   7.221   8.951  1.5781  1.8212 -0.6497
 5536SOL     OW23722  10.955  10.776   3.221 -0.6806  0.1653  0.7832
 5536SOL    HW123723  10.862  10.791   3.236 -0.4962 -0.2296  2.4902
 5536SOL    HW223724  10.963  10.681   3.212 -0.4364  0.2013  0.5965
 5537SOL     OW23725   3.480   8.537   8.201 -0.0115 -0.8492  0.0673
 5537SOL    HW123726   3.489   8.619   8.248 -1.1480 -1.0731  0.7109
 5537SOL    HW223727   3.524   8.552   8.118  2.1340 -0.4759  1.2022
 5538SOL     OW23728   9.920   7.317   2.311  0.3782  0.5011  0.0856
 5538SOL    HW123729   9.825   7.329   2.300  0.2499 -0.1368  0.4280
 5538SOL    HW223730   9.957   7.342   2.227 -0.2305 -0.6180 -0.5474
 5539SOL     OW23731   5.145   4.306   9.508 -0.2884 -0.4260 -0.0336
 5539SOL    HW123732   5.098   4.224   9.525  0.7985 -0.7661  1.4846
 5539SOL    HW223733   5.106   4.369   9.568  1.3822 -0.8058  1.5264
 5540SOL     OW23734   7.369  11.873   8.905  0.1990  0.6114  0.4771
 5540SOL    HW123735   7.366  11.880   9.000 -2.7135 -1.6604  0.6881
 5540SOL    HW223736   7.406  11.786   8.888  1.1795  1.1975 -0.5215
 5541SOL     OW23737   2.494   6.585   1.383 -0.2306  0.4389  0.1571
 5541SOL    HW123738   2.574   6.557   1.428  0.5486 -0.0946 -1.4822
 5541SOL    HW223739   2.431   6.599   1.454  0.7196 -1.0355  1.3754
 5542SOL     OW23740   4.473  12.548   2.886  0.2937 -0.1505  0.1187
 5542SOL    HW123741   4.389  12.521   2.849 -2.2504  2.1761  3.5503
 5542SOL    HW223742   4.502  12.620   2.830  0.9154 -1.9092 -1.9627
 5543SOL     OW23743   0.014   2.464  11.881  0.3613 -0.5004 -0.2529
 5543SOL    HW123744  -0.013   2.533  11.821  0.9489 -0.8105 -0.8943
 5543SOL    HW223745  -0.022   2.489  11.966  0.1935  0.3533 -0.5732
 5544SOL     OW23746   5.998   8.033   1.257 -1.2582 -0.4807 -0.2614
 5544SOL    HW123747   6.087   8.004   1.277 -1.1939  0.4315  0.8905
 5544SOL    HW223748   5.941   7.979   1.311 -1.1733  1.0224  1.4318
 5545SOL     OW23749   0.156  11.764   0.037  0.2104  0.0869  0.0866
 5545SOL    HW123750   0.061  11.772   0.041  0.0702 -0.3664 -1.5531
 5545SOL    HW223751   0.185  11.838  -0.016  0.5429 -0.8520 -1.1040
 5546SOL     OW23752   6.442   9.321   1.513  0.1596 -0.3939  0.2783
 5546SOL    HW123753   6.380   9.385   1.548 -0.0390 -0.5609  0.2317
 5546SOL    HW223754   6.528   9.355   1.537  0.0279 -0.4936  0.9156
 5547SOL     OW23755   0.295  12.669   0.714  0.0331  0.4137  0.6900
 5547SOL    HW123756   0.316  12.671   0.620 -0.3695 -1.3651  0.5277
 5547SOL    HW223757   0.232  12.740   0.725 -0.1834  0.4349 -0.4790
 5548SOL     OW23758   5.193   3.199   6.891  0.5024 -0.2429  0.2815
 5548SOL    HW123759   5.152   3.194   6.804  1.1425  1.5825 -0.1656
 5548SOL    HW223760   5.138   3.143   6.946  0.0147 -1.3526 -1.2540
 5549SOL     OW23761   0.535  10.759   0.189  0.0238 -0.2682  0.6735
 5549SOL    HW123762   0.628  10.745   0.208 -0.2406 -0.1982  2.1227
 5549SOL    HW223763   0.508  10.679   0.143  1.2779  0.6045 -1.7662
 5550SOL     OW23764   6.945   5.911   1.391 -0.1136 -0.6916  0.1143
 5550SOL    HW123765   7.003   5.861   1.334  0.6521 -0.8857  1.0449
 5550SOL    HW223766   6.879   5.848   1.420 -0.3209 -0.6661 -0.2819
 5551SOL     OW23767   6.813   1.485   0.221 -0.0655 -0.2192 -0.2831
 5551SOL    HW123768   6.810   1.404   0.270  1.7982 -0.3596 -0.3582
 5551SOL    HW223769   6.850   1.461   0.136  3.5787  1.1140  0.7414
 5552SOL     OW23770   5.213   9.244   9.901  0.0919 -0.3535  0.3769
 5552SOL    HW123771   5.171   9.317   9.857 -0.4031 -0.6335  0.3767
 5552SOL    HW223772   5.145   9.177   9.907  0.1713 -0.3483  1.5078
 5553SOL     OW23773   2.631  10.839   1.893 -0.3214  0.6444 -0.2928
 5553SOL    HW123774   2.623  10.751   1.856 -2.1370  0.8650 -0.5108
 5553SOL    HW223775   2.680  10.888   1.828  0.2394 -0.0498 -0.4151
 5554SOL     OW23776  11.957  11.033  11.608  0.8340  0.0670  0.3843
 5554SOL    HW123777  11.917  11.023  11.694  1.6981  3.4066  1.3171
 5554SOL    HW223778  11.888  11.068  11.552  1.1019  1.0032  0.6268
 5555SOL     OW23779   1.437  11.525   5.623 -0.4771  0.2077  0.2729
 5555SOL    HW123780   1.513  11.468   5.638 -0.3549  0.2116 -0.2941
 5555SOL    HW223781   1.406  11.548   5.710  0.5761  0.7337  0.5195
 5556SOL     OW23782   3.067   3.808  10.694 -0.2356  0.3725  0.2015
 5556SOL    HW123783   3.141   3.748  10.690  0.3436  1.0717  0.0556
 5556SOL    HW223784   3.004   3.766  10.753  0.2313 -0.2864  0.2344
 5557SOL     OW23785   0.162   7.460   1.001 -0.0614  0.0164 -0.2050
 5557SOL    HW123786   0.154   7.444   1.095 -1.2838 -0.1505 -0.3177
 5557SOL    HW223787   0.244   7.508   0.991  0.5873 -0.8412  0.8306
 5558SOL     OW23788   9.124   8.536   0.187  0.2208  0.1323 -0.4425
 5558SOL    HW123789   9.178   8.591   0.130  0.9674 -1.2246 -1.0889
 5558SOL    HW223790   9.136   8.574   0.274  3.3637 -0.8505 -0.3014
 5559SOL     OW23791   0.026   0.059   3.223  0.1760 -0.0006  0.4196
 5559SOL    HW123792  -0.005   0.059   3.132 -0.3810  0.2776  0.6057
 5559SOL    HW223793   0.118   0.032   3.217  0.1654  0.0953 -0.2330
 5560SOL     OW23794   6.949  11.758  10.475 -0.5531  0.3263 -0.2872
 5560SOL    HW123795   6.984  11.694  10.537 -0.3285  2.0279  1.4466
 5560SOL    HW223796   6.888  11.708  10.421 -2.1675 -0.9527  2.4867
 5561SOL     OW23797  10.801   1.071   2.951  0.1573 -0.2225  0.5494
 5561SOL    HW123798  10.761   1.010   2.889  1.0760 -0.4944  0.2030
 5561SOL    HW223799  10.842   1.015   3.017 -0.5215  0.0626  1.2279
 5562SOL     OW23800   6.489   2.782  10.978 -0.0394 -0.1344  0.5134
 5562SOL    HW123801   6.574   2.740  10.991  0.4464  1.2722  2.2058
 5562SOL    HW223802   6.428   2.730  11.031 -0.1757 -0.8687 -0.3378
 5563SOL     OW23803  12.509   3.978   2.272 -0.3525 -0.0908 -0.8100
 5563SOL    HW123804  12.514   3.962   2.177 -2.2523  2.6383 -1.4898
 5563SOL    HW223805  12.595   3.952   2.305 -0.3912 -3.4157 -2.7931
 5564SOL     OW23806   8.653   7.216   0.893 -0.1342 -0.2388  0.0952
 5564SOL    HW123807   8.652   7.125   0.863 -3.8996 -0.0698 -0.8078
 5564SOL    HW223808   8.692   7.211   0.981  3.2431 -2.0366 -1.3333
 5565SOL     OW23809   6.708   4.445   9.432  0.3546  0.2260  0.2593
 5565SOL    HW123810   6.689   4.355   9.457  0.9300  0.0676  0.1386
 5565SOL    HW223811   6.779   4.438   9.369  0.9532  0.8177  0.8513
 5566SOL     OW23812   4.760  12.312  10.999  0.3809  0.2743 -0.2723
 5566SOL    HW123813   4.684  12.355  11.038 -0.0210  0.5886 -1.3601
 5566SOL    HW223814   4.802  12.267  11.072  0.0722  1.4442  0.6534
 5567SOL     OW23815   4.622  10.917   4.293 -1.3876  0.1663  0.0464
 5567SOL    HW123816   4.640  10.828   4.323 -1.6992 -0.1099 -0.5475
 5567SOL    HW223817   4.526  10.925   4.299 -1.2975  0.7174  0.7846
 5568SOL     OW23818   7.982   8.183   6.073  0.2017 -0.0854  0.0931
 5568SOL    HW123819   7.935   8.256   6.113  1.5800  0.5152  0.6835
 5568SOL    HW223820   7.963   8.190   5.980  1.3505  1.8213 -0.0356
 5569SOL     OW23821   5.949  12.541   6.139 -0.2738 -0.8709 -0.2479
 5569SOL    HW123822   5.991  12.626   6.154  1.1759 -1.6824  0.5617
 5569SOL    HW223823   5.903  12.551   6.055 -1.1612  1.0661  0.4271
 5570SOL     OW23824   5.205   3.344   0.236  0.2194  0.4357  0.1153
 5570SOL    HW123825   5.160   3.259   0.229 -0.4935  0.7782  0.4272
 5570SOL    HW223826   5.256   3.351   0.156  1.3232 -0.8738  0.6633
 5571SOL     OW23827   8.632   0.947   8.025 -0.4464  1.1502  0.3811
 5571SOL    HW123828   8.650   0.931   8.118 -0.0245 -0.8704  0.0111
 5571SOL    HW223829   8.716   0.974   7.989 -0.5068  1.5096  0.5115
 5572SOL     OW23830  12.601   3.834   7.791 -0.1882  0.0938 -0.3458
 5572SOL    HW123831  12.559   3.850   7.706 -0.0822 -1.1773 -0.6566
 5572SOL    HW223832  12.643   3.748   7.781 -1.0402 -0.5660  1.3154
 5573SOL     OW23833   8.325   0.508   0.192  0.0107 -0.2805 -0.7112
 5573SOL    HW123834   8.333   0.572   0.263 -1.7482 -0.1453 -0.5952
 5573SOL    HW223835   8.350   0.556   0.113 -1.4299  0.6218 -0.6453
 5574SOL     OW23836   4.948   8.168   3.750 -0.2670 -0.0329 -0.2957
 5574SOL    HW123837   4.954   8.146   3.843  3.8442  1.4785 -0.0012
 5574SOL    HW223838   4.969   8.086   3.705  1.1349 -0.0192  0.2821
 5575SOL     OW23839   9.452   3.712   6.010 -0.3664 -0.6128  0.6661
 5575SOL    HW123840   9.506   3.763   6.070 -1.3540  0.0524  1.0157
 5575SOL    HW223841   9.455   3.761   5.928 -0.1298 -0.7807  0.5748
 5576SOL     OW23842   8.350  10.278   2.936 -0.1139 -0.6059  0.0842
 5576SOL    HW123843   8.387  10.363   2.962 -0.0367 -0.6294  0.0519
 5576SOL    HW223844   8.426  10.222   2.921 -0.1778 -0.8617  0.7091
 5577SOL     OW23845   7.774  12.155  10.192 -0.2419  0.0681  0.6648
 5577SOL    HW123846   7.862  12.183  10.220  0.5841 -0.6063 -1.0835
 5577SOL    HW223847   7.759  12.073  10.239  1.2784 -1.2478 -1.0246
 5578SOL     OW23848   1.185  10.207   1.537  0.2579  0.1011 -0.3936
 5578SOL    HW123849   1.207  10.277   1.476 -0.0611 -0.2884 -0.9690
 5578SOL    HW223850   1.269  10.165   1.557  0.7140  1.7428  1.3611
 5579SOL     OW23851  11.488   2.593  11.140 -0.1848 -0.3030 -0.3249
 5579SOL    HW123852  11.495   2.558  11.229 -0.7718  0.3213 -0.0283
 5579SOL    HW223853  11.448   2.522  11.090 -0.3575 -0.4601  0.0319
 5580SOL     OW23854  12.509   5.340   3.757 -0.3213 -0.5202  0.0000
 5580SOL    HW123855  12.473   5.283   3.826 -0.5243 -0.7970 -0.3258
 5580SOL    HW223856  12.571   5.284   3.710 -1.7289 -1.0386 -1.3717
 5581SOL     OW23857   1.539   0.986   1.927 -1.1035 -0.2967 -0.2819
 5581SOL    HW123858   1.553   1.022   1.840  2.7163  0.5581  0.4833
 5581SOL    HW223859   1.484   1.050   1.972 -1.5475  0.1919 -1.4938
 5582SOL     OW23860   1.802   8.912   4.432  0.4359  0.3397  0.0874
 5582SOL    HW123861   1.893   8.934   4.453  0.9216 -0.2354 -1.2794
 5582SOL    HW223862   1.777   8.847   4.497  0.9238  0.6545  0.6016
 5583SOL     OW23863  10.713   8.527   9.223  0.7243  0.3217  0.4394
 5583SOL    HW123864  10.622   8.502   9.241  0.5714  0.1764 -0.4603
 5583SOL    HW223865  10.751   8.449   9.182  1.3046  0.3259  0.9625
 5584SOL     OW23866   8.448  11.037   9.635  0.0883  0.5727  0.5787
 5584SOL    HW123867   8.382  10.982   9.593 -0.9562  2.4953 -0.4540
 5584SOL    HW223868   8.443  11.014   9.728  0.1107 -1.4210  0.1336
 5585SOL     OW23869   0.914  11.760   7.995  0.8490 -0.0327 -0.0540
 5585SOL    HW123870   0.899  11.833   7.935  0.5780 -0.8710 -1.0580
 5585SOL    HW223871   0.879  11.789   8.079 -0.1585  0.6125 -0.6827
 5586SOL     OW23872  10.512   8.088   5.665 -0.1999  0.0482  0.0452
 5586SOL    HW123873  10.588   8.123   5.618  1.3460 -1.6575  1.1528
 5586SOL    HW223874  10.533   8.101   5.757 -1.9671  0.9011  0.3642
 5587SOL     OW23875   2.879   5.710   7.448 -0.0812  0.0232 -0.4317
 5587SOL    HW123876   2.925   5.661   7.516 -0.1415 -1.1194 -1.1775
 5587SOL    HW223877   2.874   5.799   7.481 -0.2901 -0.5444  1.1515
 5588SOL     OW23878   5.291   4.395   7.079  0.0033 -0.0719  0.0198
 5588SOL    HW123879   5.236   4.316   7.078  0.5035 -0.4250 -0.7447
 5588SOL    HW223880   5.244   4.458   7.026 -0.3754  0.1269  0.5931
 5589SOL     OW23881  10.970   5.071   0.763 -0.2561  0.6262 -0.1954
 5589SOL    HW123882  11.002   5.161   0.749 -0.8978  0.9293  0.2296
 5589SOL    HW223883  11.045   5.025   0.800  0.1105  0.9583 -0.5052
 5590SOL     OW23884   5.351   7.441   1.679  0.5100 -0.3684 -0.4435
 5590SOL    HW123885   5.369   7.387   1.602 -0.0743 -1.5842  0.2618
 5590SOL    HW223886   5.382   7.528   1.653  0.8865 -0.8755 -1.8294
 5591SOL     OW23887   1.979   6.424   4.034 -0.7406 -0.1269 -0.4088
 5591SOL    HW123888   1.996   6.474   3.954 -0.3973 -1.9735 -1.5412
 5591SOL    HW223889   2.066   6.398   4.065 -0.9680 -0.9915 -0.4840
 5592SOL     OW23890   6.969  12.622  12.441  0.1294  0.2255 -0.2910
 5592SOL    HW123891   6.948  12.572  12.519 -2.2973  0.5035 -0.6850
 5592SOL    HW223892   7.027  12.566  12.391 -1.8894 -1.9422 -0.3688
 5593SOL     OW23893   9.587   2.240   3.089 -0.0893 -0.2498  0.1993
 5593SOL    HW123894   9.600   2.329   3.122  0.9327 -0.4121  0.2522
 5593SOL    HW223895   9.527   2.251   3.015 -1.7746  0.2038  1.5731
 5594SOL     OW23896  10.044   9.708   2.504 -0.0207 -1.0874 -0.2746
 5594SOL    HW123897   9.964   9.759   2.521  0.8712  0.5303 -0.6886
 5594SOL    HW223898  10.078   9.687   2.590 -0.9409 -1.8957 -0.0903
 5595SOL     OW23899   4.829  12.087   4.403 -0.0705 -0.0567 -0.6557
 5595SOL    HW123900   4.855  12.127   4.320  1.4195 -2.5129 -1.5000
 5595SOL    HW223901   4.881  12.007   4.408  0.5046  0.3692  3.0826
 5596SOL     OW23902   7.940   6.324  12.488  0.1390 -0.1536  0.2364
 5596SOL    HW123903   7.897   6.365  12.414  2.3638  1.1475 -0.4218
 5596SOL    HW223904   8.030   6.311  12.459  0.3576 -2.3778  1.6847
 5597SOL     OW23905   1.286   4.898   7.608 -0.0764  0.2552  0.4507
 5597SOL    HW123906   1.317   4.822   7.658 -1.5015 -0.6531 -0.0006
 5597SOL    HW223907   1.223   4.863   7.546  1.0683  1.4653 -1.5374
 5598SOL     OW23908   4.510   0.325   1.759 -0.7666 -0.0733  0.0882
 5598SOL    HW123909   4.561   0.400   1.789 -1.2319  0.9381 -1.5242
 5598SOL    HW223910   4.576   0.259   1.736 -0.3344  0.0387  0.9593
 5599SOL     OW23911   6.729   1.274   0.851  0.6362  0.2391  0.3287
 5599SOL    HW123912   6.714   1.186   0.885  1.2329  0.0383  0.0824
 5599SOL    HW223913   6.734   1.264   0.756  1.5574  0.3953  0.3471
 5600SOL     OW23914   3.939   4.913   8.175  0.0647 -0.5530  0.2267
 5600SOL    HW123915   3.860   4.861   8.167 -0.5676  0.1689  1.5314
 5600SOL    HW223916   3.934   4.975   8.102 -0.5692 -0.5159  0.3001
 5601SOL     OW23917   2.512  12.485   2.535  0.0175 -0.4559  1.0792
 5601SOL    HW123918   2.515  12.570   2.579  0.8344 -0.0492  0.2800
 5601SOL    HW223919   2.602  12.469   2.508 -0.0409 -1.8019  1.6090
 5602SOL     OW23920   7.606   7.526   0.843 -0.1562  0.1537 -0.3134
 5602SOL    HW123921   7.578   7.616   0.860  0.3693  0.6147 -1.7650
 5602SOL    HW223922   7.691   7.534   0.800 -1.1459 -0.9087 -2.6215
 5603SOL     OW23923   6.744   1.523  10.013  0.4375  0.0348 -0.0583
 5603SOL    HW123924   6.672   1.561  10.061  0.7599  1.2508 -0.5015
 5603SOL    HW223925   6.765   1.588   9.945  0.7254 -1.1145 -1.1184
 5604SOL     OW23926   7.080   9.613   8.492  0.4342 -0.2926  0.2600
 5604SOL    HW123927   7.077   9.709   8.499 -0.6354 -0.0930 -1.9515
 5604SOL    HW223928   6.988   9.586   8.500  0.7930 -1.2198  1.4892
 5605SOL     OW23929   3.335   9.208  12.468 -0.3904  0.3738 -0.2910
 5605SOL    HW123930   3.420   9.235  12.433 -0.5211  1.4147  0.1486
 5605SOL    HW223931   3.283   9.185  12.391  0.1385  0.1605 -0.5922
 5606SOL     OW23932   0.587   7.102   6.328 -0.0609  0.1174 -0.6818
 5606SOL    HW123933   0.516   7.161   6.300 -1.1430 -0.9073 -0.1814
 5606SOL    HW223934   0.667   7.153   6.314 -1.0088  2.2115  0.9564
 5607SOL     OW23935   3.559   1.923  10.343  0.8269  0.5168  0.8643
 5607SOL    HW123936   3.595   1.940  10.430  0.7707  1.6920  0.6865
 5607SOL    HW223937   3.517   2.006  10.319  1.1734  0.3343 -0.4347
 5608SOL     OW23938   1.034  11.902  11.155 -0.2641 -0.0198  0.8767
 5608SOL    HW123939   0.952  11.940  11.185 -0.2415  0.3405  0.4939
 5608SOL    HW223940   1.083  11.976  11.118 -0.7964 -0.6109 -1.1502
 5609SOL     OW23941   7.900   1.101  11.189  0.3003  0.2121 -0.0281
 5609SOL    HW123942   7.967   1.132  11.249 -0.1012  1.1633 -0.0595
 5609SOL    HW223943   7.901   1.164  11.117 -0.8590  0.4332  0.1362
 5610SOL     OW23944   1.226   3.065   8.392 -0.2777 -0.5093 -0.5391
 5610SOL    HW123945   1.213   3.160   8.386  0.6153 -0.3368  0.0604
 5610SOL    HW223946   1.253   3.039   8.304  0.3074 -0.0559 -0.5067
 5611SOL     OW23947   2.546   4.594  10.351  0.2671 -0.0001  0.1501
 5611SOL    HW123948   2.613   4.575  10.416  1.8315 -0.6196 -1.5746
 5611SOL    HW223949   2.466   4.557  10.388  1.7880 -3.7208  0.1653
 5612SOL     OW23950   3.797  10.703  12.881  1.4456 -0.3892 -0.5798
 5612SOL    HW123951   3.728  10.720  12.818 -0.3432 -1.1082  1.0844
 5612SOL    HW223952   3.794  10.609  12.896 -0.1065  0.0121  2.5076
 5613SOL     OW23953   9.952   2.905   2.304  0.7497  0.1957 -0.4546
 5613SOL    HW123954   9.993   2.819   2.309  0.9700  0.2919 -0.6031
 5613SOL    HW223955  10.018   2.966   2.337  0.0764  0.1501  1.0351
 5614SOL     OW23956  10.908   4.212   8.686  0.2183  0.5472 -0.3039
 5614SOL    HW123957  10.947   4.299   8.701 -0.9500  1.0232  0.0894
 5614SOL    HW223958  10.975   4.151   8.716  0.3488  1.3612  1.1407
 5615SOL     OW23959   3.720   8.985   8.095  0.4803  0.2180 -0.0305
 5615SOL    HW123960   3.755   8.917   8.036  0.4532 -0.4439  0.6982
 5615SOL    HW223961   3.768   8.973   8.177  0.8264  1.4152 -0.0385
 5616SOL     OW23962  11.045  10.770   8.288 -0.1032 -0.6921  0.3742
 5616SOL    HW123963  11.140  10.759   8.279 -0.1738 -1.8674  0.9282
 5616SOL    HW223964  11.020  10.710   8.359 -0.8367  1.8399  2.3907
 5617SOL     OW23965   0.037   2.336  11.382  0.2183  0.4626  0.5158
 5617SOL    HW123966   0.028   2.277  11.457  0.2944  1.3199  1.2089
 5617SOL    HW223967   0.047   2.277  11.307  0.3942 -0.4056  1.2029
 5618SOL     OW23968  12.404   3.720  10.887  0.1257 -0.4515  0.0743
 5618SOL    HW123969  12.371   3.773  10.960  0.2985  1.8645 -1.4143
 5618SOL    HW223970  12.399   3.779  10.812  2.5810 -1.8191 -1.2554
 5619SOL     OW23971   6.942  10.309   1.091  0.9308  0.0847 -0.5695
 5619SOL    HW123972   6.848  10.300   1.107  1.2530  0.0605  1.5780
 5619SOL    HW223973   6.948  10.335   0.999 -1.0485 -1.8511 -1.3339
 5620SOL     OW23974   6.684   0.686  10.593 -0.0493 -0.4009 -0.4928
 5620SOL    HW123975   6.678   0.781  10.583  0.7412 -0.2376  0.4368
 5620SOL    HW223976   6.742   0.658  10.522  3.0256  0.3562  1.5346
 5621SOL     OW23977  11.449  10.378   3.315  0.1128  0.1169  0.3420
 5621SOL    HW123978  11.482  10.420   3.236  0.8227 -0.4151  0.3465
 5621SOL    HW223979  11.369  10.427   3.337  0.7133  1.2141  0.1397
 5622SOL     OW23980   2.114  11.869   2.330 -0.4400 -0.3007  0.2335
 5622SOL    HW123981   2.134  11.831   2.415 -2.2294 -0.2830  0.6937
 5622SOL    HW223982   2.040  11.928   2.347  0.7828  1.6466 -0.8675
 5623SOL     OW23983   8.369   5.823   4.122 -0.1277 -0.0980 -0.4112
 5623SOL    HW123984   8.318   5.768   4.182 -0.3942  0.0273 -0.5211
 5623SOL    HW223985   8.304   5.882   4.083  0.3146  1.1080  0.5878
 5624SOL     OW23986   2.256  12.424   4.699 -0.7114 -0.4667  0.1029
 5624SOL    HW123987   2.228  12.353   4.757 -1.7959  0.5874  0.9266
 5624SOL    HW223988   2.195  12.495   4.717 -0.7999  0.0601 -2.0346
 5625SOL     OW23989   4.567   5.386   6.582 -0.1809  0.4035 -0.0192
 5625SOL    HW123990   4.475   5.407   6.565 -0.4265  0.0412  0.8228
 5625SOL    HW223991   4.616   5.436   6.516 -0.9696  0.7240 -0.3666
 5626SOL     OW23992  11.440   1.479   0.659  0.3623  0.6311 -0.2037
 5626SOL    HW123993  11.443   1.390   0.624 -0.8038  0.4125  0.2124
 5626SOL    HW223994  11.347   1.502   0.659  0.6500  1.8583 -0.3145
 5627SOL     OW23995   3.079   4.587   7.518  0.3031  0.3228 -0.3491
 5627SOL    HW123996   2.997   4.540   7.533  0.1413  0.2872 -1.2392
 5627SOL    HW223997   3.091   4.641   7.596  0.1061 -0.6255  0.3546
 5628SOL     OW23998   4.800  12.759   0.796 -0.0002 -0.6867  0.0016
 5628SOL    HW123999   4.732  12.824   0.778 -1.0420 -1.9260 -0.7515
 5628SOL    HW224000   4.830  12.780   0.885  0.8441  1.7620 -0.8034
 5629SOL     OW24001  11.760   9.379   6.237  0.1250  0.0979  0.2642
 5629SOL    HW124002  11.800   9.464   6.221  1.6251 -0.3844  1.2540
 5629SOL    HW224003  11.834   9.320   6.255 -1.0079 -0.8681  2.0497
 5630SOL     OW24004   9.300   1.540   4.359 -0.1772  0.7558  0.2407
 5630SOL    HW124005   9.354   1.619   4.351  2.4515 -0.9416  0.0981
 5630SOL    HW224006   9.326   1.502   4.443  0.6847 -1.3602 -0.9251
 5631SOL     OW24007  10.245   6.726   9.448 -0.6018  0.0817  0.2921
 5631SOL    HW124008  10.301   6.671   9.392 -0.3128  0.9806 -0.3146
 5631SOL    HW224009  10.194   6.663   9.499  0.0575 -0.7569 -0.0528
 5632SOL     OW24010   6.157   5.438  11.961  0.1476 -0.6088 -0.1580
 5632SOL    HW124011   6.244   5.471  11.938 -0.7196  1.5727 -0.6195
 5632SOL    HW224012   6.163   5.420  12.055  0.4473  2.0146  0.4124
 5633SOL     OW24013   1.947   8.526   2.885 -0.0695  0.3300 -0.4228
 5633SOL    HW124014   1.856   8.552   2.899 -0.0384  0.4723 -0.4856
 5633SOL    HW224015   1.942   8.434   2.861 -0.3424  0.7889 -2.2558
 5634SOL     OW24016   7.360   0.042   8.012  0.2398  0.3898  0.0780
 5634SOL    HW124017   7.329  -0.039   7.972 -0.8785  1.6508 -1.7708
 5634SOL    HW224018   7.296   0.061   8.081 -0.0321  0.1900 -0.1182
 5635SOL     OW24019   5.011   7.675   8.249  0.3534 -0.7656 -0.2455
 5635SOL    HW124020   5.064   7.747   8.214 -0.1818 -0.7398 -1.0386
 5635SOL    HW224021   4.943   7.662   8.183  0.2275 -1.7583  0.0708
 5636SOL     OW24022   8.400   4.510   8.993 -0.1356  0.5348 -0.1309
 5636SOL    HW124023   8.398   4.473   9.082 -0.6347 -0.2878 -0.4716
 5636SOL    HW224024   8.474   4.570   8.994 -0.6938  1.2490  1.1253
 5637SOL     OW24025   5.257   7.064   1.899 -0.2105 -0.4027  0.4737
 5637SOL    HW124026   5.351   7.058   1.880 -0.0755  2.2806 -0.0049
 5637SOL    HW224027   5.219   6.988   1.853  1.5353 -0.6354 -0.6950
 5638SOL     OW24028  10.366   9.600   5.741  0.0214  0.0904 -0.5050
 5638SOL    HW124029  10.437   9.579   5.802 -0.1055  1.5383  0.1931
 5638SOL    HW224030  10.365   9.696   5.738 -1.6281  0.0892 -0.8216
 5639SOL     OW24031   0.298   5.475   2.516  0.3368  0.7740 -0.4417
 5639SOL    HW124032   0.222   5.429   2.482  0.3805  0.4896 -0.1589
 5639SOL    HW224033   0.264   5.528   2.588  0.6690 -0.6410  0.8017
 5640SOL     OW24034  10.086   1.636   3.600 -0.2501 -0.2212  0.2989
 5640SOL    HW124035  10.068   1.563   3.540 -1.0780  0.1637  0.0727
 5640SOL    HW224036  10.000   1.665   3.630  0.1394 -0.2121  1.4603
 5641SOL     OW24037   6.091   2.107  11.652 -0.0003 -0.0740  0.5609
 5641SOL    HW124038   6.084   2.145  11.565 -0.1234  0.4548  0.7944
 5641SOL    HW224039   6.053   2.173  11.710 -1.0281 -0.9273  0.8874
 5642SOL     OW24040   3.694   9.881  11.620 -0.0502 -0.5106 -0.0557
 5642SOL    HW124041   3.744   9.800  11.621 -1.2407 -1.2937 -1.0314
 5642SOL    HW224042   3.759   9.951  11.627  1.0885 -1.5103 -0.4852
 5643SOL     OW24043  10.605  11.848  10.761 -0.2415 -0.0799  0.0855
 5643SOL    HW124044  10.697  11.848  10.788 -0.7106 -1.0975  1.8550
 5643SOL    HW224045  10.568  11.926  10.802  0.2294  1.5346 -2.3614
 5644SOL     OW24046   9.250  12.900   9.705 -0.2241 -0.2954 -0.1534
 5644SOL    HW124047   9.189  12.891   9.779 -0.3467 -2.0462 -0.4283
 5644SOL    HW224048   9.310  12.970   9.732  0.7187 -1.9009  2.3635
 5645SOL     OW24049  10.369   7.700  11.293 -0.3438 -0.1908  0.2373
 5645SOL    HW124050  10.275   7.713  11.306  0.1051  1.7593  2.0197
 5645SOL    HW224051  10.400   7.662  11.375  0.6679  0.8173  0.3527
 5646SOL     OW24052  12.950   9.081   3.103  0.0526  0.1969  0.1081
 5646SOL    HW124053  12.895   9.036   3.040 -0.7897 -1.8345  2.1819
 5646SOL    HW224054  13.031   9.099   3.055 -0.2954 -1.8582 -1.3860
 5647SOL     OW24055  10.486   4.041   4.351  0.1076  0.1009  0.0922
 5647SOL    HW124056  10.550   3.971   4.351 -0.9117 -0.8567  0.1885
 5647SOL    HW224057  10.439   4.031   4.434 -1.7927 -0.7773 -1.0198
 5648SOL     OW24058  12.545   8.599  11.164  0.2157 -0.3093  0.4165
 5648SOL    HW124059  12.566   8.588  11.072  2.3350 -0.7162  0.9105
 5648SOL    HW224060  12.506   8.516  11.191 -0.4183 -0.1833 -0.0927
 5649SOL     OW24061   0.529   8.509  12.617 -1.0145  0.8284 -0.4180
 5649SOL    HW124062   0.609   8.505  12.668 -0.0942 -0.2306 -1.8531
 5649SOL    HW224063   0.494   8.597  12.632  1.2007  1.8482 -0.8723
 5650SOL     OW24064   6.505   8.788   6.219 -0.1753  0.5845  0.0557
 5650SOL    HW124065   6.477   8.765   6.308 -0.7215 -3.9225 -1.0602
 5650SOL    HW224066   6.431   8.836   6.183 -1.4651 -0.5929  1.0001
 5651SOL     OW24067  11.954  12.417   6.285 -0.3933  0.1205  0.0383
 5651SOL    HW124068  11.984  12.410   6.376 -2.0735 -0.0498  0.6182
 5651SOL    HW224069  11.998  12.495   6.251 -2.2876  2.2402  2.1044
 5652SOL     OW24070  12.010   8.864   4.367  0.0918  0.2809 -0.1140
 5652SOL    HW124071  11.929   8.865   4.418 -0.4447 -0.2833 -0.9300
 5652SOL    HW224072  12.000   8.789   4.307  0.7189  0.8848 -1.0051
 5653SOL     OW24073   0.798   3.354   1.890 -0.3420  0.5446  0.6976
 5653SOL    HW124074   0.815   3.430   1.833 -0.1930  1.0394  1.3862
 5653SOL    HW224075   0.703   3.344   1.887 -0.3208  0.4669  0.2323
 5654SOL     OW24076   9.741   7.199   7.441  0.2978  0.4179 -0.0328
 5654SOL    HW124077   9.727   7.169   7.351  0.7517 -1.1659  0.3877
 5654SOL    HW224078   9.656   7.235   7.467 -0.9199 -2.2238  0.0016
 5655SOL     OW24079  10.456   3.877   0.141 -0.4860  0.0406  0.8859
 5655SOL    HW124080  10.422   3.826   0.214 -0.6419 -0.5594  0.4047
 5655SOL    HW224081  10.393   3.863   0.070 -0.1747  0.3623  0.5382
 5656SOL     OW24082   9.121  11.028  10.972  0.1416  0.3194 -0.8450
 5656SOL    HW124083   9.100  11.022  11.065  2.6550  0.2621 -0.2188
 5656SOL    HW224084   9.064  11.098  10.939  0.9260  2.0777  1.2955
 5657SOL     OW24085   4.855   1.120   8.241 -0.2403  0.2105 -0.1764
 5657SOL    HW124086   4.890   1.046   8.290 -1.0468 -0.9494 -1.2828
 5657SOL    HW224087   4.796   1.080   8.177  0.2554  1.7266 -1.6260
 5658SOL     OW24088   9.641   1.945  12.390 -0.7147 -0.4529  0.1491
 5658SOL    HW124089   9.578   1.977  12.456 -0.8666 -1.1659  0.3562
 5658SOL    HW224090   9.588   1.892  12.331 -0.7827  1.0514 -1.1920
 5659SOL     OW24091   1.119  11.653   3.826 -0.1216 -0.5187 -0.0533
 5659SOL    HW124092   1.155  11.665   3.738 -0.7894 -1.7095 -0.5176
 5659SOL    HW224093   1.180  11.593   3.869  0.5203  0.5167  0.5198
 5660SOL     OW24094   0.221   2.798  12.102 -0.3623  0.4339 -0.2022
 5660SOL    HW124095   0.290   2.733  12.097 -0.1996  0.6242 -0.4431
 5660SOL    HW224096   0.151   2.756  12.153 -1.0446 -0.6534 -1.9561
 5661SOL     OW24097  11.128   1.273  11.530  0.3164  0.1975 -0.1922
 5661SOL    HW124098  11.102   1.327  11.604 -2.1604 -0.9232 -0.1345
 5661SOL    HW224099  11.067   1.297  11.460  1.0873 -0.4300 -1.1019
 5662SOL     OW24100  12.451   6.601   4.093 -0.2503  0.5251  0.7497
 5662SOL    HW124101  12.439   6.666   4.024  1.3035  1.0656  0.9462
 5662SOL    HW224102  12.542   6.573   4.085 -0.4006 -0.3634  1.7696
 5663SOL     OW24103   3.799   5.655   7.356 -0.6234  0.2340  0.3266
 5663SOL    HW124104   3.777   5.645   7.264 -2.2175 -1.8213  0.8470
 5663SOL    HW224105   3.878   5.603   7.368  0.0182  1.1204 -0.0124
 5664SOL     OW24106   4.637   1.366   9.363 -0.1884  0.2995  0.3710
 5664SOL    HW124107   4.661   1.419   9.287 -0.3466 -0.4327 -0.1924
 5664SOL    HW224108   4.670   1.416   9.438 -1.3648  1.7821 -0.0572
 5665SOL     OW24109   8.575   3.190   9.403 -0.1331  0.1089  0.1253
 5665SOL    HW124110   8.549   3.282   9.408 -0.5545 -0.0315  0.5364
 5665SOL    HW224111   8.671   3.192   9.395 -0.2841  0.6656 -2.2808
 5666SOL     OW24112   6.322   2.513   0.314 -0.2832 -0.3490 -0.2341
 5666SOL    HW124113   6.308   2.441   0.252 -1.0362 -0.5578  0.1664
 5666SOL    HW224114   6.400   2.487   0.363 -0.0239 -0.4596 -0.6942
 5667SOL     OW24115   6.970   6.495  12.498 -0.6036 -0.4183 -0.7462
 5667SOL    HW124116   7.015   6.579  12.508  0.1669 -0.9914  0.9864
 5667SOL    HW224117   6.884   6.509  12.539  0.0279 -0.8216  0.7862
 5668SOL     OW24118  12.582   4.268   2.871 -0.8339 -0.1360 -0.0844
 5668SOL    HW124119  12.578   4.355   2.833 -0.4681 -0.3674 -0.6722
 5668SOL    HW224120  12.506   4.222   2.835 -0.4009 -0.4044 -0.6850
 5669SOL     OW24121   2.872   3.658  11.783 -0.3481 -0.3877  0.1954
 5669SOL    HW124122   2.890   3.714  11.708  0.9142 -0.2885  0.5643
 5669SOL    HW224123   2.797   3.604  11.755 -0.3979  0.1967 -0.8282
 5670SOL     OW24124   0.544  12.744  10.137 -0.2622  0.2093 -0.2400
 5670SOL    HW124125   0.543  12.704  10.050  2.9853  0.8859 -0.6991
 5670SOL    HW224126   0.562  12.837  10.120  0.0761  0.4176  1.1486
 5671SOL     OW24127   0.984  11.592   1.914 -0.0169  0.8513 -0.0019
 5671SOL    HW124128   1.035  11.579   1.994 -0.6682  1.2151  0.4893
 5671SOL    HW224129   0.965  11.686   1.914  0.2329  0.9023 -0.7428
 5672SOL     OW24130  11.072   3.511  12.726 -1.1804 -0.2569 -0.4187
 5672SOL    HW124131  11.074   3.467  12.811  1.2790 -1.9614 -1.2408
 5672SOL    HW224132  11.018   3.589  12.741 -0.3080 -0.1080  2.8902
 5673SOL     OW24133   2.509   6.005   8.497 -0.5194 -0.0813  0.1395
 5673SOL    HW124134   2.473   6.093   8.493  0.9544  0.5546  0.4013
 5673SOL    HW224135   2.516   5.977   8.406  1.1405  0.9885 -0.0912
 5674SOL     OW24136   8.968  10.907   8.019  0.9192  0.0738 -0.0658
 5674SOL    HW124137   8.944  10.830   7.967 -0.3207 -0.7865  1.6572
 5674SOL    HW224138   8.977  10.977   7.955  1.4937 -1.3542 -1.6344
 5675SOL     OW24139   6.879   3.163   3.919  0.0290 -0.0692  0.7801
 5675SOL    HW124140   6.930   3.186   3.996  1.4778 -0.7716  0.0620
 5675SOL    HW224141   6.907   3.224   3.851 -2.0764  1.3188  1.0494
 5676SOL     OW24142   8.785   5.315   8.496  0.5251 -0.3085  0.5300
 5676SOL    HW124143   8.721   5.385   8.489  0.3431 -0.5057  0.2207
 5676SOL    HW224144   8.864   5.350   8.454  1.6883  1.1608  3.6251
 5677SOL     OW24145  12.365  10.581   0.424  0.0331  0.5426 -0.4620
 5677SOL    HW124146  12.380  10.531   0.504  0.1486  0.0801 -0.7729
 5677SOL    HW224147  12.431  10.549   0.362 -0.5538  0.3466 -0.9983
 5678SOL     OW24148   9.118   5.194  10.252 -0.1914  0.1527  0.5125
 5678SOL    HW124149   9.048   5.219  10.312 -2.4915  0.4371 -2.0987
 5678SOL    HW224150   9.117   5.098  10.254 -0.2474  0.1622  0.9492
 5679SOL     OW24151   0.674  11.581   1.740 -0.2403 -0.0057  0.8831
 5679SOL    HW124152   0.697  11.620   1.825  0.5562  0.1378  0.6126
 5679SOL    HW224153   0.726  11.631   1.676  0.7966 -1.4831  0.5307
 5680SOL     OW24154   8.302   1.426   0.885  0.1780 -0.1413 -0.3774
 5680SOL    HW124155   8.384   1.471   0.864  0.5462  0.4226  1.9739
 5680SOL    HW224156   8.331   1.344   0.927 -0.3653  0.8182  2.0187
 5681SOL     OW24157  12.839  11.980  10.692 -0.0726  0.2201 -0.3514
 5681SOL    HW124158  12.748  12.000  10.673 -0.9137 -2.9357 -0.2420
 5681SOL    HW224159  12.863  12.039  10.764 -1.7122  1.6756 -0.9404
 5682SOL     OW24160  12.155   2.789   5.226  0.0756 -0.2597  0.6529
 5682SOL    HW124161  12.164   2.854   5.156  2.1839  0.2809  1.3668
 5682SOL    HW224162  12.187   2.708   5.188  0.1898 -0.2125  0.6468
 5683SOL     OW24163   9.557   2.327   0.259 -0.3692 -0.1549 -0.3429
 5683SOL    HW124164   9.633   2.277   0.229  1.4073  1.8386  0.6294
 5683SOL    HW224165   9.554   2.310   0.353  0.2562  1.4919 -0.0029
 5684SOL     OW24166   2.567   3.536   4.019 -0.0340 -0.1703 -0.4860
 5684SOL    HW124167   2.483   3.559   4.059 -0.4716  0.1289 -1.5568
 5684SOL    HW224168   2.555   3.447   3.987  0.2902 -0.3745 -0.0661
 5685SOL     OW24169   4.288   1.648   7.171 -0.6194 -0.4102 -0.9867
 5685SOL    HW124170   4.375   1.671   7.203 -0.9677  0.7024 -0.7819
 5685SOL    HW224171   4.304   1.608   7.085  0.2039 -1.9239 -0.1671
 5686SOL     OW24172   9.186  11.356  10.157 -0.3457  0.1184  0.2569
 5686SOL    HW124173   9.198  11.263  10.176  0.7114  0.0030 -0.8583
 5686SOL    HW224174   9.191  11.362  10.061  1.8682  1.6023  0.4068
 5687SOL     OW24175   7.783   7.475  10.711 -0.5183 -0.2759 -0.1929
 5687SOL    HW124176   7.831   7.409  10.660 -0.6203 -0.3072 -0.2504
 5687SOL    HW224177   7.847   7.510  10.772 -0.1721  0.3623 -0.9187
 5688SOL     OW24178   7.104   3.840   7.725 -0.2452 -0.0069  0.4407
 5688SOL    HW124179   7.063   3.778   7.664 -1.5801  0.8069  0.4866
 5688SOL    HW224180   7.131   3.913   7.671 -0.6312  0.3272  0.6967
 5689SOL     OW24181  11.472   3.680  11.192  0.2530 -0.5931 -0.7958
 5689SOL    HW124182  11.512   3.728  11.263 -0.6072  1.9680 -1.9306
 5689SOL    HW224183  11.378   3.692  11.205  0.0788 -0.1387 -2.2840
 5690SOL     OW24184  11.941   9.556  11.807  0.3366  0.7008  0.5516
 5690SOL    HW124185  11.916   9.594  11.723  0.2944  1.2096  0.7905
 5690SOL    HW224186  11.871   9.584  11.867  0.0923 -0.0918  0.6414
 5691SOL     OW24187   4.945   2.036  11.919 -0.0982  0.7332  0.1605
 5691SOL    HW124188   4.914   1.948  11.941  1.7714 -0.3936 -1.4522
 5691SOL    HW224189   4.966   2.076  12.004 -0.3480 -0.6116  0.8793
 5692SOL     OW24190  10.885   8.300   2.352 -0.5501 -0.2550  0.0136
 5692SOL    HW124191  10.838   8.378   2.381  1.9992  1.3983 -0.0229
 5692SOL    HW224192  10.936   8.328   2.276  0.7004 -1.8488  0.1938
 5693SOL     OW24193   0.104  12.634   9.022  0.0717  0.3709  0.3033
 5693SOL    HW124194   0.199  12.634   9.015  0.1416  2.6494  0.4440
 5693SOL    HW224195   0.074  12.686   8.948 -1.3481 -2.6409 -1.4593
 5694SOL     OW24196   3.711   6.014   6.005  0.5024  0.9502  0.1316
 5694SOL    HW124197   3.743   5.991   5.918  0.6778 -1.7124  0.8108
 5694SOL    HW224198   3.617   5.998   6.001  0.2895  2.1925  0.0436
 5695SOL     OW24199   0.684  12.150   6.621  0.1417  0.1701 -0.4774
 5695SOL    HW124200   0.771  12.168   6.656 -0.0249 -0.5516  0.3375
 5695SOL    HW224201   0.626  12.209   6.669  0.0983  0.2071 -0.5754
 5696SOL     OW24202   4.013   9.493   5.057 -0.3816  0.3482 -0.0628
 5696SOL    HW124203   4.049   9.522   4.974  0.8665 -1.1224 -0.0780
 5696SOL    HW224204   3.923   9.527   5.058 -0.0709  1.2803 -1.5134
 5697SOL     OW24205   6.538   8.889  12.698 -0.3459 -0.1810  0.1662
 5697SOL    HW124206   6.536   8.883  12.602  0.6294  0.3262  0.0978
 5697SOL    HW224207   6.621   8.848  12.722 -0.7384 -0.5977  0.8275
 5698SOL     OW24208  10.227  12.608   8.935  0.5497  0.0388 -0.0787
 5698SOL    HW124209  10.154  12.631   8.993 -0.3325  0.0674 -1.1606
 5698SOL    HW224210  10.298  12.585   8.994 -0.3864 -0.1630  1.0097
 5699SOL     OW24211   1.953   2.022  10.678  0.5860 -0.1953 -0.3157
 5699SOL    HW124212   1.859   2.034  10.667  0.7770  1.2712 -0.5018
 5699SOL    HW224213   1.961   1.951  10.743 -0.7403  2.2524  2.8027
 5700SOL     OW24214   3.313  10.207  11.219 -0.3813  0.3518 -0.3863
 5700SOL    HW124215   3.398  10.174  11.189  0.9573  2.3589  0.9771
 5700SOL    HW224216   3.281  10.138  11.278  1.1467  0.2703  0.4170
 5701SOL     OW24217   1.361   7.457   7.839 -0.3562  0.4671 -0.2362
 5701SOL    HW124218   1.268   7.477   7.849 -0.2392  2.1323 -1.8986
 5701SOL    HW224219   1.406   7.528   7.886  0.0792 -0.1057  0.2207
 5702SOL     OW24220  10.154   9.774   5.476 -0.2528 -0.1099 -0.1296
 5702SOL    HW124221  10.231   9.741   5.431  0.5345  1.2952  0.1282
 5702SOL    HW224222  10.168   9.869   5.481 -0.5260 -0.1503  2.6726
 5703SOL     OW24223  12.569  11.410   0.071  0.0789 -0.2264 -0.1744
 5703SOL    HW124224  12.641  11.416   0.008 -0.1696  0.0117 -0.4370
 5703SOL    HW224225  12.584  11.483   0.131  0.0704 -0.1928 -0.2129
 5704SOL     OW24226   9.205   0.991   5.575  0.1578  0.1683 -0.2173
 5704SOL    HW124227   9.221   0.998   5.669  1.3565  0.3478 -0.4245
 5704SOL    HW224228   9.215   0.898   5.556  0.9597  0.2804 -0.3465
 5705SOL     OW24229   0.363  12.554   7.038  0.0231  0.5745 -0.1205
 5705SOL    HW124230   0.304  12.487   7.002  0.3857 -0.1732  0.6337
 5705SOL    HW224231   0.309  12.633   7.043 -0.8973 -0.0698  0.4524
 5706SOL     OW24232   4.188   3.466   1.465  0.1942  0.3577 -0.4151
 5706SOL    HW124233   4.215   3.540   1.412  2.7493 -0.4852 -0.4461
 5706SOL    HW224234   4.184   3.392   1.403 -1.5871  0.2732 -0.2558
 5707SOL     OW24235   9.167   5.284   0.876 -0.0264  0.1568 -0.3587
 5707SOL    HW124236   9.202   5.371   0.897  0.9374  0.2068 -2.0185
 5707SOL    HW224237   9.072   5.294   0.882  0.0798  1.2941 -0.3918
 5708SOL     OW24238  12.523  10.899   3.008 -0.1193 -0.1224  0.3608
 5708SOL    HW124239  12.554  10.847   2.934  0.5585  1.1880 -0.3121
 5708SOL    HW224240  12.485  10.978   2.969  1.8951  1.4880  1.3916
 5709SOL     OW24241  12.632  10.794   5.061  0.6087 -0.2086 -0.5163
 5709SOL    HW124242  12.545  10.817   5.030  0.9777 -0.2939 -1.6715
 5709SOL    HW224243  12.685  10.873   5.046  0.6657 -0.0479  0.4762
 5710SOL     OW24244   1.366  11.901  12.757  0.3571 -0.0484  0.3838
 5710SOL    HW124245   1.356  11.941  12.843 -0.8057  1.3041 -0.3393
 5710SOL    HW224246   1.368  11.975  12.696 -0.2453 -1.0258 -0.8663
 5711SOL     OW24247   5.898   9.268  10.945  0.3923  0.3547  0.2487
 5711SOL    HW124248   5.947   9.188  10.926 -2.6123 -1.3034 -1.2842
 5711SOL    HW224249   5.950   9.313  11.012  2.6913 -2.3903  0.4936
 5712SOL     OW24250   1.999   7.971   3.849  0.3282  0.1105 -0.3670
 5712SOL    HW124251   2.043   8.050   3.818 -1.6079  1.0438 -0.8472
 5712SOL    HW224252   1.947   7.999   3.924 -1.1891 -0.4700 -1.1724
 5713SOL     OW24253  10.578   8.925  12.390 -0.2846 -0.0335  0.0210
 5713SOL    HW124254  10.635   8.973  12.329 -0.3826 -0.6267 -0.5432
 5713SOL    HW224255  10.615   8.944  12.476  0.2337  0.3109 -0.2674
 5714SOL     OW24256   6.358  10.116   2.031 -0.6398 -0.3790  0.8235
 5714SOL    HW124257   6.322  10.139   2.117 -2.8335  0.6573 -0.2908
 5714SOL    HW224258   6.367  10.021   2.034 -1.5377 -0.4549  1.9114
 5715SOL     OW24259  10.037   8.565   2.324 -0.0328  0.1366  0.0068
 5715SOL    HW124260   9.951   8.529   2.343 -0.0505  0.6538  1.0289
 5715SOL    HW224261  10.091   8.490   2.300 -0.4693 -0.3468  0.5302
 5716SOL     OW24262   3.357  12.115   2.027 -0.3489 -0.1125  0.3690
 5716SOL    HW124263   3.335  12.024   2.003  0.1721 -0.0005 -0.6133
 5716SOL    HW224264   3.413  12.107   2.104 -1.2907 -0.5521  1.0280
 5717SOL     OW24265   7.015   4.243  12.457  0.7747  0.2527 -0.3501
 5717SOL    HW124266   7.060   4.213  12.378  0.7900  0.8478 -0.5717
 5717SOL    HW224267   6.977   4.328  12.433  2.5064  1.4352  0.8884
 5718SOL     OW24268   5.103   6.880  10.354 -0.8122 -0.2299  0.1553
 5718SOL    HW124269   5.057   6.957  10.320  0.6539  0.6129 -0.0322
 5718SOL    HW224270   5.055   6.805  10.319 -2.3236  0.5845  0.4100
 5719SOL     OW24271  10.552   4.648   5.428  0.3686  0.2025  0.2487
 5719SOL    HW124272  10.602   4.617   5.503  0.5961  1.5165  0.6686
 5719SOL    HW224273  10.611   4.708   5.383 -1.0145  2.3622  1.1593
 5720SOL     OW24274   0.240   0.344   8.870  0.5196  0.1919  0.1346
 5720SOL    HW124275   0.155   0.338   8.915  0.0580 -0.1480 -0.7537
 5720SOL    HW224276   0.221   0.396   8.792  1.0304 -0.2761 -0.3063
 5721SOL     OW24277   0.341   2.113  12.927 -0.1635  0.4819 -0.5422
 5721SOL    HW124278   0.342   2.049  12.856 -1.2667 -0.2586  0.0723
 5721SOL    HW224279   0.269   2.085  12.984  0.5365  1.1789  0.7534
 5722SOL     OW24280   9.795   6.067  10.719  0.0741  0.3686  0.3017
 5722SOL    HW124281   9.718   6.084  10.664  1.2835  0.7708 -1.3227
 5722SOL    HW224282   9.804   5.971  10.719  0.9963  0.4056 -1.6166
 5723SOL     OW24283  11.016  11.449   2.173  0.4073  0.6023 -0.3714
 5723SOL    HW124284  11.082  11.443   2.242 -0.4606 -0.0809  0.4239
 5723SOL    HW224285  10.979  11.360   2.168 -0.6392  1.0410 -0.6196
 5724SOL     OW24286   2.756   4.122   8.945  0.1160  0.7122  0.0421
 5724SOL    HW124287   2.834   4.070   8.925  0.6784  1.6222 -0.1930
 5724SOL    HW224288   2.706   4.123   8.864  0.0212  0.3987  0.0967
 5725SOL     OW24289  12.436   7.389   6.548 -0.8613  0.4996  0.0744
 5725SOL    HW124290  12.455   7.482   6.533  0.3252  0.3625  0.6476
 5725SOL    HW224291  12.373   7.389   6.620 -0.2511  0.8263  0.6083
 5726SOL     OW24292   4.880   1.677   0.902  0.3318  0.0093 -0.0160
 5726SOL    HW124293   4.832   1.625   0.966 -0.0579  0.6938  0.2613
 5726SOL    HW224294   4.969   1.642   0.904  0.3798  0.1554  1.0526
 5727SOL     OW24295   8.223   5.515   9.261  0.3263 -0.2944  0.6734
 5727SOL    HW124296   8.176   5.433   9.249  0.6928 -0.2768 -1.1104
 5727SOL    HW224297   8.245   5.517   9.355  0.9348 -2.5426  0.6178
 5728SOL     OW24298   1.416   5.350   6.924  0.3822 -0.0866 -0.1629
 5728SOL    HW124299   1.497   5.308   6.898  0.6804  0.8356 -0.7701
 5728SOL    HW224300   1.418   5.435   6.881 -0.8340  0.0154 -0.0543
 5729SOL     OW24301   7.597   1.255   7.217  0.0429 -1.1547  0.0931
 5729SOL    HW124302   7.594   1.169   7.175  0.6956 -1.7402  1.2037
 5729SOL    HW224303   7.543   1.247   7.295 -3.9606  0.9048 -2.1719
 5730SOL     OW24304   6.185  11.882   5.122 -0.5283 -0.9482  0.1320
 5730SOL    HW124305   6.205  11.852   5.034  0.7184  0.2534 -0.0348
 5730SOL    HW224306   6.271  11.896   5.162 -1.0689 -1.4276  1.5378
 5731SOL     OW24307   2.641  10.699  10.890  0.2940  0.2940  0.2805
 5731SOL    HW124308   2.573  10.642  10.927  0.6907  0.5864  1.5165
 5731SOL    HW224309   2.593  10.775  10.857 -0.1246 -0.2276 -0.3430
 5732SOL     OW24310   7.946   5.292  12.718  0.1654 -0.4480 -0.1275
 5732SOL    HW124311   7.937   5.386  12.701 -0.5207 -0.3975  0.4575
 5732SOL    HW224312   8.016   5.286  12.783  1.0323 -0.4437 -1.0428
 5733SOL     OW24313   3.805   1.840   1.962 -0.2813 -0.1241  0.3946
 5733SOL    HW124314   3.822   1.879   2.048 -0.3453 -0.4748  0.5644
 5733SOL    HW224315   3.883   1.788   1.944 -0.2482 -0.0152  0.2167
 5734SOL     OW24316   0.181  12.965   2.343  0.5182  0.0067 -0.4466
 5734SOL    HW124317   0.174  12.879   2.384  3.4065 -0.6121 -0.9707
 5734SOL    HW224318   0.276  12.982   2.341  0.0393  3.2817 -0.2276
 5735SOL     OW24319   6.700   7.477   5.921 -0.4760 -0.6010 -0.1944
 5735SOL    HW124320   6.754   7.434   5.854 -1.1398 -0.9829 -0.4938
 5735SOL    HW224321   6.660   7.551   5.874  1.7221  1.2330  0.6465
 5736SOL     OW24322   6.045  11.598   8.575  0.2743  0.4335  0.5008
 5736SOL    HW124323   6.052  11.568   8.485 -0.4751 -0.8039  0.8319
 5736SOL    HW224324   6.046  11.518   8.627 -2.1505  0.9102  1.4033
 5737SOL     OW24325  12.446   8.889   5.095 -0.0613  0.5638  0.2266
 5737SOL    HW124326  12.405   8.817   5.143  0.6005 -1.7194 -2.3732
 5737SOL    HW224327  12.516   8.848   5.045  1.6403  3.3934  0.0595
 5738SOL     OW24328   2.803  12.176  11.089 -0.0262  0.1180  0.4392
 5738SOL    HW124329   2.837  12.133  11.168  0.7267  0.5011  0.3372
 5738SOL    HW224330   2.709  12.162  11.092 -0.0918  0.6949  1.7584
 5739SOL     OW24331   4.606   0.160   2.877 -0.5469 -0.2605 -0.0857
 5739SOL    HW124332   4.625   0.195   2.790 -1.0622 -1.1573 -0.5740
 5739SOL    HW224333   4.523   0.114   2.866 -0.7294 -0.1923  0.9413
 5740SOL     OW24334   5.960   9.506   8.686 -0.4020  0.1310  0.3798
 5740SOL    HW124335   5.954   9.428   8.740 -0.3544 -1.1411 -1.3635
 5740SOL    HW224336   5.888   9.497   8.623  0.7358  0.5102 -1.0374
 5741SOL     OW24337  12.489   4.654  12.875 -0.4751  0.4924 -0.2083
 5741SOL    HW124338  12.542   4.638  12.953 -1.6422 -0.5005  0.4088
 5741SOL    HW224339  12.514   4.585  12.814  0.0275  0.9334 -0.5122
 5742SOL     OW24340   0.811  12.205  10.000 -0.1162 -0.3104  0.1832
 5742SOL    HW124341   0.780  12.288  10.037 -1.5094  0.4297 -2.4338
 5742SOL    HW224342   0.789  12.210   9.907  2.3721 -2.4409 -0.6349
 5743SOL     OW24343  10.193   2.375  11.026 -0.5032  0.1312 -0.2093
 5743SOL    HW124344  10.273   2.408  11.068 -0.8165  0.7290 -0.0788
 5743SOL    HW224345  10.181   2.431  10.950  0.9310 -1.9097 -2.0566
 5744SOL     OW24346   5.467  10.056   7.912 -0.0279  0.0422  0.0153
 5744SOL    HW124347   5.452  10.148   7.932 -1.3519 -0.4287  1.3885
 5744SOL    HW224348   5.560  10.051   7.889 -0.5660  2.2333 -3.4301
 5745SOL     OW24349   9.526  10.193   3.845  0.5287  0.4630  0.1779
 5745SOL    HW124350   9.550  10.163   3.932  2.1532  0.1335 -0.3487
 5745SOL    HW224351   9.476  10.120   3.807  1.2976 -0.0877  0.2179
 5746SOL     OW24352   8.303   2.871  10.088  0.4907 -0.2346 -0.1418
 5746SOL    HW124353   8.230   2.815  10.114 -0.1498  0.9633  0.7947
 5746SOL    HW224354   8.287   2.954  10.135  2.3686  0.1166 -0.0279
 5747SOL     OW24355  10.844   0.797   7.484  0.7326  0.3333 -0.1802
 5747SOL    HW124356  10.868   0.710   7.453  0.6523 -0.4183  1.7632
 5747SOL    HW224357  10.849   0.852   7.405 -1.5827 -1.8217 -1.9988
 5748SOL     OW24358   0.378   6.019  12.536  0.0519 -0.3689 -0.0453
 5748SOL    HW124359   0.381   5.927  12.510 -0.0375 -1.0254  2.1219
 5748SOL    HW224360   0.449   6.060  12.487  1.4025 -2.0092  0.4298
 5749SOL     OW24361  12.560   8.306   5.451  0.4131  0.3531  0.1952
 5749SOL    HW124362  12.560   8.326   5.545  1.3255  0.3530  0.2056
 5749SOL    HW224363  12.650   8.282   5.432 -0.3185 -2.5274 -0.0978
 5750SOL     OW24364   4.878   7.379   7.073 -0.4320 -0.1157 -0.0123
 5750SOL    HW124365   4.801   7.434   7.059  0.5114  1.0193 -1.0473
 5750SOL    HW224366   4.910   7.360   6.984  0.7479 -0.1586  0.4073
 5751SOL     OW24367   3.139   4.026   8.826  0.1051 -0.0946 -0.9071
 5751SOL    HW124368   3.152   3.944   8.778 -1.7475  0.0194 -1.6861
 5751SOL    HW224369   3.074   4.005   8.893 -1.6623  1.0436 -2.1632
 5752SOL     OW24370   5.967   0.768  10.474  0.3583  0.1397 -0.5577
 5752SOL    HW124371   5.983   0.807  10.560  0.6336 -0.7424 -0.1912
 5752SOL    HW224372   5.975   0.673  10.489 -1.4562 -0.1514 -1.1446
 5753SOL     OW24373   0.784   7.389  11.641 -0.7528 -0.2080  0.0805
 5753SOL    HW124374   0.802   7.461  11.702 -1.1501 -0.6174  0.6993
 5753SOL    HW224375   0.747   7.432  11.564 -3.4363  0.1226  1.4084
 5754SOL     OW24376   9.677   4.280   7.422  0.4902 -0.9012 -0.4428
 5754SOL    HW124377   9.616   4.313   7.357 -1.1791 -1.9553  0.5279
 5754SOL    HW224378   9.697   4.356   7.477  1.8196 -0.0325 -2.0206
 5755SOL     OW24379   8.758  11.666  11.794 -0.0325 -0.0015  0.6094
 5755SOL    HW124380   8.749  11.586  11.742 -0.9751  1.1452 -1.0619
 5755SOL    HW224381   8.670  11.701  11.801  0.5379  1.6246  0.0949
 5756SOL     OW24382  12.706   2.929   6.628  0.1759 -0.1676  0.6480
 5756SOL    HW124383  12.657   2.855   6.593  0.5858  0.1331 -0.6027
 5756SOL    HW224384  12.749   2.894   6.707 -0.8217 -0.8359  0.9095
 5757SOL     OW24385   9.604  10.887   2.224  0.6721 -0.1553 -0.3632
 5757SOL    HW124386   9.573  10.797   2.217 -0.0561  0.0088  0.5221
 5757SOL    HW224387   9.532  10.941   2.191  1.6243  0.0684 -2.1873
 5758SOL     OW24388   8.007   2.112   0.473  0.3303 -0.0362  0.1180
 5758SOL    HW124389   8.093   2.100   0.432 -0.4858  0.2456 -1.8136
 5758SOL    HW224390   8.009   2.054   0.549  1.7352 -1.0880 -0.6584
 5759SOL     OW24391  12.197   0.916   2.976  0.3237 -0.2593 -0.2336
 5759SOL    HW124392  12.261   0.949   3.039  0.4560 -0.4255 -0.2796
 5759SOL    HW224393  12.250   0.895   2.898  0.0066  1.1785 -0.8917
 5760SOL     OW24394  10.124   3.886   3.705  0.9610 -0.4713  0.5311
 5760SOL    HW124395  10.160   3.886   3.616  0.2907  0.5448  0.2465
 5760SOL    HW224396  10.143   3.973   3.739  0.9076 -0.7380  1.2636
 5761SOL     OW24397   9.734   1.956   0.676 -0.1022 -0.0183 -0.7835
 5761SOL    HW124398   9.776   1.876   0.644 -0.2283 -0.3875 -0.0377
 5761SOL    HW224399   9.676   1.982   0.605  1.0583  0.2684 -1.6601
 5762SOL     OW24400   8.292   0.681   0.392 -0.1305  1.0511 -0.5160
 5762SOL    HW124401   8.216   0.738   0.404 -1.4288 -0.7464  0.2810
 5762SOL    HW224402   8.327   0.669   0.481  0.5292  1.1180 -0.7594
 5763SOL     OW24403  11.030   4.190   9.476 -0.0644  0.1061 -0.2538
 5763SOL    HW124404  10.949   4.238   9.456  0.1163  0.7394  0.4912
 5763SOL    HW224405  11.100   4.243   9.437  0.0276 -0.2368 -0.5570
 5764SOL     OW24406   6.184   0.214   1.902  0.1809 -0.1584  0.1126
 5764SOL    HW124407   6.204   0.129   1.942  1.1857 -0.3181 -0.6865
 5764SOL    HW224408   6.239   0.217   1.824  0.2518  1.2819  0.1945
 5765SOL     OW24409   6.626  10.683   7.832  0.3242 -0.1307  0.1803
 5765SOL    HW124410   6.649  10.633   7.754 -0.6367  2.4988 -1.9264
 5765SOL    HW224411   6.706  10.728   7.857  0.1057  0.7713 -0.6992
 5766SOL     OW24412  10.244   7.739   1.190  0.5483 -0.4112 -0.4753
 5766SOL    HW124413  10.156   7.742   1.227  1.0791  0.8890  0.7633
 5766SOL    HW224414  10.274   7.650   1.208 -0.4170 -0.8018 -0.7103
 5767SOL     OW24415  10.904   9.404  10.269  0.6564  0.4267  0.2778
 5767SOL    HW124416  10.913   9.314  10.237 -3.3735  0.0150 -0.2682
 5767SOL    HW224417  10.942   9.402  10.356  1.0863 -1.6987  0.0983
 5768SOL     OW24418   6.687   7.580  12.473 -0.2920 -0.5121  0.8416
 5768SOL    HW124419   6.730   7.653  12.429 -0.4803 -1.5275 -1.1571
 5768SOL    HW224420   6.748   7.553  12.541 -0.1553  1.3749  1.5031
 5769SOL     OW24421   2.779   4.197   1.009 -0.4590  0.0414 -0.0618
 5769SOL    HW124422   2.747   4.155   0.929  2.1136  1.5871 -2.0487
 5769SOL    HW224423   2.779   4.290   0.990  2.7965  0.2989  0.6167
 5770SOL     OW24424   9.247   8.875   5.834  0.4032 -0.1308 -0.0328
 5770SOL    HW124425   9.285   8.789   5.821  0.5498 -0.3937  1.8102
 5770SOL    HW224426   9.156   8.858   5.860  0.7454  0.1782  1.4614
 5771SOL     OW24427   9.826  12.104   1.263 -0.4130  0.2215 -0.3608
 5771SOL    HW124428   9.793  12.032   1.317 -0.8393  1.4013  1.0264
 5771SOL    HW224429   9.906  12.069   1.223 -1.2281 -1.3994 -0.6799
 5772SOL     OW24430   9.771  11.134   7.343  1.1942  0.0489  0.4867
 5772SOL    HW124431   9.724  11.108   7.423 -1.4094  1.6068 -0.4374
 5772SOL    HW224432   9.856  11.165   7.375  0.4494  0.0937  2.5923
 5773SOL     OW24433   1.782   4.693   2.247 -0.6453  0.2372  1.1057
 5773SOL    HW124434   1.766   4.605   2.281 -0.1915 -0.3875 -0.2161
 5773SOL    HW224435   1.873   4.712   2.271  0.1320 -0.7625 -0.8189
 5774SOL     OW24436  10.870   7.827   4.544  0.0877 -0.0418  0.2941
 5774SOL    HW124437  10.923   7.756   4.507  0.3016 -0.1510  0.7983
 5774SOL    HW224438  10.922   7.860   4.617 -0.0540  0.5783  0.1184
 5775SOL     OW24439  12.561   0.818   5.028 -0.5811  0.4629  0.3799
 5775SOL    HW124440  12.572   0.725   5.008  1.5197  0.1795  2.3827
 5775SOL    HW224441  12.600   0.863   4.954 -0.4040 -0.2923 -0.0022
 5776SOL     OW24442   6.814   0.910  10.428  0.7336 -0.0894 -0.6727
 5776SOL    HW124443   6.880   0.888  10.494  1.1612 -1.7403 -1.5990
 5776SOL    HW224444   6.828   0.847  10.357 -1.9996 -0.7029 -0.8002
 5777SOL     OW24445  11.121   1.795   6.881 -0.0301  0.2125 -0.3936
 5777SOL    HW124446  11.095   1.741   6.805  0.0688 -1.7768  0.8988
 5777SOL    HW224447  11.189   1.852   6.847  0.2502 -0.8512 -1.7531
 5778SOL     OW24448   0.098  12.306   9.512 -0.0209 -1.1980 -0.2350
 5778SOL    HW124449   0.015  12.337   9.546  0.1129 -0.5090 -0.5177
 5778SOL    HW224450   0.127  12.375   9.452 -0.2312 -2.3277 -1.7159
 5779SOL     OW24451   9.078   9.940  10.956  0.0902 -0.5325 -0.1242
 5779SOL    HW124452   9.107   9.867  11.010 -0.0434 -0.9472 -0.6029
 5779SOL    HW224453   9.123   9.927  10.872 -2.6440 -2.1561 -1.4973
 5780SOL     OW24454   2.521   8.942  11.980 -0.3221  0.3679 -0.0530
 5780SOL    HW124455   2.478   8.968  11.898 -1.5895  0.4403  0.6067
 5780SOL    HW224456   2.606   8.908  11.953 -1.0351 -0.3618 -1.4727
 5781SOL     OW24457   5.732   1.962  11.532 -0.4754 -0.5725 -0.0878
 5781SOL    HW124458   5.762   1.873  11.546 -1.1623 -0.8511 -0.3103
 5781SOL    HW224459   5.765   1.986  11.445  2.0356  0.4082  1.0515
 5782SOL     OW24460   7.838   4.104   6.120 -0.0504 -0.0780  0.2334
 5782SOL    HW124461   7.820   4.177   6.178  0.6876  0.2301  0.0825
 5782SOL    HW224462   7.783   4.033   6.153 -2.8670  1.2611 -1.2232
 5783SOL     OW24463   3.258   8.881   1.685  0.1240  0.6520  0.5063
 5783SOL    HW124464   3.185   8.909   1.629  0.1772  1.8584  1.0045
 5783SOL    HW224465   3.303   8.813   1.634  0.4333  1.9963 -1.1050
 5784SOL     OW24466  11.123  10.641   1.543 -0.5959  0.2385  0.2329
 5784SOL    HW124467  11.078  10.662   1.624 -1.7169  0.1449 -0.3454
 5784SOL    HW224468  11.062  10.668   1.474  1.6608  3.5165 -0.7142
 5785SOL     OW24469   0.548   3.018   4.442 -0.1978  0.5417  0.1986
 5785SOL    HW124470   0.620   2.958   4.460  1.4268  2.1449 -0.6678
 5785SOL    HW224471   0.475   2.983   4.493  0.2538 -2.8797 -1.2388
 5786SOL     OW24472  10.306  12.350  11.228  0.1035  0.4122 -0.1280
 5786SOL    HW124473  10.320  12.416  11.296 -0.3333  1.0880 -0.6677
 5786SOL    HW224474  10.269  12.400  11.155  1.0837 -0.1959 -1.0637
 5787SOL     OW24475   9.376   9.492   0.698 -0.3593  0.0840 -0.3298
 5787SOL    HW124476   9.311   9.487   0.767  1.1732 -1.9477  1.1196
 5787SOL    HW224477   9.359   9.415   0.644 -0.7283  0.9485 -1.4704
 5788SOL     OW24478   6.462   6.395   0.325 -0.0173 -0.3162 -0.4913
 5788SOL    HW124479   6.404   6.469   0.305  1.0780  0.5065 -0.6864
 5788SOL    HW224480   6.402   6.326   0.352 -1.1476  0.3286 -1.2137
 5789SOL     OW24481   3.069   4.529   4.553 -0.4143  0.2802 -0.9750
 5789SOL    HW124482   3.002   4.461   4.548 -0.4464  0.2177  0.1883
 5789SOL    HW224483   3.036   4.591   4.618  2.2891 -1.6125  2.4970
 5790SOL     OW24484   4.093   7.267   6.105 -0.3598  0.2690  0.2923
 5790SOL    HW124485   4.113   7.337   6.042  0.1577  0.8455  1.0733
 5790SOL    HW224486   4.034   7.308   6.168 -1.3008 -0.4550 -0.0928
 5791SOL     OW24487   7.862   3.433   7.197 -0.2886  0.0985 -0.1746
 5791SOL    HW124488   7.791   3.493   7.220 -0.7429  0.1887 -1.6855
 5791SOL    HW224489   7.820   3.367   7.141  0.4101 -1.0493  0.6235
 5792SOL     OW24490   2.767   1.772   5.417 -0.0718 -0.1400  0.2068
 5792SOL    HW124491   2.723   1.687   5.409  1.7981 -1.0382 -1.2274
 5792SOL    HW224492   2.744   1.819   5.337 -1.9940  1.2354  1.4727
 5793SOL     OW24493  11.106   5.515  10.948  0.2616 -0.4278 -0.5352
 5793SOL    HW124494  11.115   5.580  10.878 -2.7519 -0.2733 -0.9400
 5793SOL    HW224495  11.014   5.521  10.973  0.9198 -1.4959  2.5000
 5794SOL     OW24496  11.624   8.934   2.699  0.0175  0.1018  0.7800
 5794SOL    HW124497  11.629   8.945   2.604  2.4673 -1.0364  0.7060
 5794SOL    HW224498  11.668   8.851   2.716  0.9853  0.9836  3.0066
 5795SOL     OW24499   9.288  11.927  11.464  0.1830 -0.2729 -0.7544
 5795SOL    HW124500   9.377  11.898  11.484  0.4141  1.3475  0.7940
 5795SOL    HW224501   9.243  11.847  11.437  1.1065 -1.8927  2.0593
 5796SOL     OW24502   9.663  12.771   6.201  0.1251  0.1685  0.3968
 5796SOL    HW124503   9.605  12.728   6.138  1.4389  0.6553 -1.2083
 5796SOL    HW224504   9.718  12.701   6.236 -0.5710 -0.0938  0.9947
 5797SOL     OW24505   7.220   3.238   3.468  0.4135 -0.1316 -0.2415
 5797SOL    HW124506   7.279   3.280   3.406  0.3165 -0.6509 -0.6992
 5797SOL    HW224507   7.220   3.145   3.443 -1.5478  0.0363 -1.0660
 5798SOL     OW24508  10.470   4.441   5.125  0.0595  0.3044 -0.2408
 5798SOL    HW124509  10.416   4.504   5.173 -0.4937  0.4537 -1.0418
 5798SOL    HW224510  10.527   4.495   5.070  0.2078  0.1209 -0.2701
 5799SOL     OW24511   8.374   1.335   2.204 -0.0824  0.4450 -0.0050
 5799SOL    HW124512   8.329   1.295   2.130  1.9730 -2.3914  0.0835
 5799SOL    HW224513   8.333   1.421   2.215 -2.3646 -0.1958 -2.5834
 5800SOL     OW24514   3.712   1.821   4.036  0.2775  0.0914 -0.1938
 5800SOL    HW124515   3.692   1.736   4.076 -2.0574  0.8113  0.3248
 5800SOL    HW224516   3.673   1.817   3.949 -0.8625  1.0036  0.2526
 5801SOL     OW24517  10.349   0.612   7.757  0.1371  0.2970 -0.0651
 5801SOL    HW124518  10.407   0.619   7.832  1.5502  0.1751 -1.0971
 5801SOL    HW224519  10.290   0.539   7.778  2.0847 -1.3544 -0.0485
 5802SOL     OW24520   6.466   0.612   7.141  0.2574  0.3943 -0.1463
 5802SOL    HW124521   6.461   0.551   7.068 -0.2559 -0.1299  0.3185
 5802SOL    HW224522   6.377   0.646   7.152  0.0791 -0.3480  0.9033
 5803SOL     OW24523   5.326  12.492   2.363 -0.8562 -0.4369  0.4040
 5803SOL    HW124524   5.404  12.484   2.308 -0.1628  0.4916  1.2173
 5803SOL    HW224525   5.265  12.544   2.311 -0.2417  0.3530  0.4661
 5804SOL     OW24526   8.025   3.025   3.328 -0.9641  0.3867 -0.1301
 5804SOL    HW124527   8.031   3.117   3.354 -1.2051  0.4670 -0.3565
 5804SOL    HW224528   8.103   2.984   3.367 -0.5179  0.8150 -0.5518
 5805SOL     OW24529   1.497   2.100   6.941  0.8146  0.1178  0.6210
 5805SOL    HW124530   1.444   2.173   6.972  0.4324 -0.5968  1.6884
 5805SOL    HW224531   1.475   2.027   6.999  1.5438 -0.7221 -0.1200
 5806SOL     OW24532   7.986   7.193   5.955 -0.1511 -0.1648  0.0755
 5806SOL    HW124533   7.997   7.214   5.862  0.4679  0.5458  0.3001
 5806SOL    HW224534   7.926   7.118   5.956 -1.0862  0.5332 -0.8514
 5807SOL     OW24535   8.785  12.431  11.455  0.1290 -0.3215  0.1483
 5807SOL    HW124536   8.805  12.488  11.529 -2.1113 -0.8985  1.2682
 5807SOL    HW224537   8.861  12.372  11.449  0.5633  0.0487  1.6586
 5808SOL     OW24538  11.510   4.345   7.248 -0.0911 -0.4048 -0.2841
 5808SOL    HW124539  11.527   4.289   7.173 -0.1655  1.0055 -1.3898
 5808SOL    HW224540  11.552   4.428   7.227  0.2514 -0.0905  1.4263
 5809SOL     OW24541   5.118   2.416  12.554 -0.1314 -0.0849  0.1352
 5809SOL    HW124542   5.060   2.341  12.540 -1.3460  0.8232  0.1329
 5809SOL    HW224543   5.206   2.380  12.546 -0.6954 -1.3452 -0.7165
 5810SOL     OW24544   0.109   5.111   4.423 -0.8615  0.2170 -0.2521
 5810SOL    HW124545   0.201   5.134   4.433 -1.8868  4.7973  0.5718
 5810SOL    HW224546   0.095   5.107   4.328  0.2718 -1.6165 -0.4039
 5811SOL     OW24547   6.440  11.980   0.707 -0.4720 -0.3624  0.0581
 5811SOL    HW124548   6.455  11.908   0.646  2.2984 -0.0548  0.2304
 5811SOL    HW224549   6.368  11.950   0.762 -1.6575 -1.5205 -2.0013
 5812SOL     OW24550   9.205   1.997   5.015  0.0030  0.0268  0.1259
 5812SOL    HW124551   9.133   1.939   4.993 -2.1812  2.6005 -0.0402
 5812SOL    HW224552   9.221   2.047   4.935  1.3709  0.1210  0.4387
 5813SOL     OW24553   0.783   1.048   5.735  0.1855  0.1770  0.2590
 5813SOL    HW124554   0.866   1.066   5.778  0.6480  0.0203 -0.5320
 5813SOL    HW224555   0.771   0.953   5.746  1.9571 -0.5191 -2.6701
 5814SOL     OW24556   8.500   3.220   1.882  0.3374 -0.3801  0.6130
 5814SOL    HW124557   8.557   3.258   1.815 -1.8440  1.2293 -0.4590
 5814SOL    HW224558   8.509   3.279   1.957 -0.8834  0.6805 -0.0406
 5815SOL     OW24559   5.083   4.460   1.648  0.5136 -0.3570  0.6495
 5815SOL    HW124560   5.063   4.533   1.706  0.4583  0.4296 -0.3250
 5815SOL    HW224561   5.178   4.449   1.656  1.0018  1.6493 -1.1898
 5816SOL     OW24562   8.896   7.114   1.195 -0.5520 -0.2691  0.1123
 5816SOL    HW124563   8.947   7.124   1.275 -0.5173  0.1032  0.0422
 5816SOL    HW224564   8.961   7.121   1.124 -0.8394  1.2454 -0.0186
 5817SOL     OW24565   1.066   1.924   5.073  0.6120 -0.0019  0.0176
 5817SOL    HW124566   1.114   2.000   5.107  0.7251  0.1779 -0.5326
 5817SOL    HW224567   0.980   1.959   5.050  0.7375  0.0095 -0.4419
 5818SOL     OW24568   9.000   0.461  12.849  0.2013  0.8555  0.7985
 5818SOL    HW124569   9.000   0.556  12.843  0.5601  0.8584  0.8070
 5818SOL    HW224570   9.053   0.432  12.774 -1.9058  0.5522 -0.6636
 5819SOL     OW24571   5.134   6.301   5.737 -0.1326 -0.0650  0.0665
 5819SOL    HW124572   5.045   6.310   5.701 -0.3634 -0.1504  0.6118
 5819SOL    HW224573   5.159   6.211   5.714  0.2615  0.3152 -1.0747
 5820SOL     OW24574   2.241  10.511  11.426 -0.0488  0.1282 -0.1887
 5820SOL    HW124575   2.215  10.603  11.430  0.1198  0.1918 -0.5574
 5820SOL    HW224576   2.331  10.510  11.458  0.2840  0.2302 -1.0941
 5821SOL     OW24577  11.975   1.704   2.049  0.5561  0.2403  0.4491
 5821SOL    HW124578  12.009   1.614   2.041 -1.9140 -0.7747  0.4991
 5821SOL    HW224579  11.984   1.724   2.143  0.8973 -0.0358  0.4786
 5822SOL     OW24580  12.652   1.439   2.217  0.3053  0.1816  0.1523
 5822SOL    HW124581  12.564   1.474   2.231 -0.0187 -1.0723  1.4208
 5822SOL    HW224582  12.680   1.479   2.134 -2.2448 -0.9121 -1.3669
 5823SOL     OW24583  12.264   6.426   4.154  0.1678 -0.1960  0.3683
 5823SOL    HW124584  12.294   6.516   4.143 -1.6945  0.3958 -0.2349
 5823SOL    HW224585  12.332   6.373   4.112  1.4571  0.8790  1.0243
 5824SOL     OW24586   4.041   5.633  12.229  0.2979 -0.9745 -0.0282
 5824SOL    HW124587   4.017   5.695  12.159  0.1499 -1.7277 -0.6637
 5824SOL    HW224588   4.051   5.549  12.183  0.6327 -1.3893  0.7980
 5825SOL     OW24589   3.506   8.231   2.478 -0.0789 -0.3784  0.2797
 5825SOL    HW124590   3.552   8.310   2.504 -0.9749  0.5726 -0.9007
 5825SOL    HW224591   3.569   8.182   2.425 -0.5050  1.1615 -1.7797
 5826SOL     OW24592   0.406   1.352   5.107 -0.3591 -0.0814 -0.5128
 5826SOL    HW124593   0.457   1.277   5.137  0.2021  0.9622  1.2929
 5826SOL    HW224594   0.471   1.418   5.086 -0.8827  1.0514  1.2024
 5827SOL     OW24595  11.147   2.238   9.998  0.6484  0.8744 -0.6056
 5827SOL    HW124596  11.220   2.177  10.008 -0.2003 -0.1303 -0.4914
 5827SOL    HW224597  11.140   2.251   9.903  0.9957  1.0127 -0.6154
 5828SOL     OW24598   3.165   4.730   9.813 -0.1757 -0.4710 -0.3597
 5828SOL    HW124599   3.226   4.802   9.798  1.2945 -1.4685  0.5714
 5828SOL    HW224600   3.143   4.699   9.725 -1.4955  1.5867 -0.8280
 5829SOL     OW24601   7.812  12.643   6.197 -0.4304 -0.3285 -0.2269
 5829SOL    HW124602   7.856  12.606   6.273  1.1177  1.1015 -0.3575
 5829SOL    HW224603   7.723  12.607   6.200 -0.5286 -0.0677  2.4474
 5830SOL     OW24604  11.732   9.339   5.716  0.2859 -0.0267  0.0231
 5830SOL    HW124605  11.783   9.414   5.687 -0.9455  1.0618  0.5209
 5830SOL    HW224606  11.784   9.263   5.692  0.8653  0.9165 -1.9250
 5831SOL     OW24607   8.004   9.648   5.883  0.1832  0.0986  0.1244
 5831SOL    HW124608   8.037   9.738   5.892  2.0149 -0.5861  0.6118
 5831SOL    HW224609   7.911   9.659   5.863  0.2384  2.0926  0.7417
 5832SOL     OW24610   1.769   5.914   6.083 -0.4882  0.3993 -1.0059
 5832SOL    HW124611   1.836   5.874   6.027 -0.4816 -0.2087 -0.5722
 5832SOL    HW224612   1.698   5.850   6.084 -0.7521  0.6910 -0.8249
 5833SOL     OW24613   3.890  10.522  10.986 -0.0157 -0.1932  0.0296
 5833SOL    HW124614   3.881  10.615  10.965  1.2080 -0.1506 -0.3434
 5833SOL    HW224615   3.984  10.506  10.987 -0.1720 -1.1822  1.2125
 5834SOL     OW24616   9.767   6.339   6.225  0.6046 -0.2388  0.3930
 5834SOL    HW124617   9.743   6.299   6.142 -1.8729  0.2774  0.7934
 5834SOL    HW224618   9.803   6.266   6.277  1.7328 -0.6561 -0.9231
 5835SOL     OW24619   9.528  11.766  12.870 -0.2234 -0.6771 -0.2941
 5835SOL    HW124620   9.447  11.816  12.862  0.0211 -0.1884  0.1857
 5835SOL    HW224621   9.547  11.765  12.964 -0.2592 -1.7388 -0.2876
 5836SOL     OW24622  10.575   4.616   9.646  0.6635 -0.1888 -0.4257
 5836SOL    HW124623  10.626   4.555   9.698 -0.1195 -1.1237 -0.7202
 5836SOL    HW224624  10.574   4.578   9.558  2.8701  1.9038 -1.4590
 5837SOL     OW24625   5.376   2.984   4.927 -0.0308 -0.0063  0.1916
 5837SOL    HW124626   5.436   2.926   4.974  0.0766 -0.4923 -0.5352
 5837SOL    HW224627   5.351   3.050   4.992  2.6183  1.2413  0.0604
 5838SOL     OW24628   7.923  12.877   0.316  0.7765  0.4643 -0.0402
 5838SOL    HW124629   7.977  12.838   0.385  2.6443  2.2505 -0.4016
 5838SOL    HW224630   7.905  12.805   0.256  0.9141 -0.6441  1.1961
 5839SOL     OW24631   1.942   8.732   1.305  0.2890  0.0628  0.3710
 5839SOL    HW124632   1.987   8.694   1.230  1.4883 -0.2175  1.2044
 5839SOL    HW224633   1.869   8.782   1.267  0.7356 -0.2576 -0.9464
 5840SOL     OW24634   0.657   1.302   6.233 -0.0847 -0.0736 -0.4412
 5840SOL    HW124635   0.704   1.365   6.289 -1.1789  0.1373  0.2653
 5840SOL    HW224636   0.631   1.232   6.293  0.0179 -0.5878 -0.9885
 5841SOL     OW24637  10.820   9.687  10.406  0.6816 -0.0031  0.0948
 5841SOL    HW124638  10.817   9.644  10.321  2.4549  1.9939 -1.0467
 5841SOL    HW224639  10.908   9.671  10.438  0.5425  0.6395  0.8214
 5842SOL     OW24640   3.413  12.834   5.480  0.1860 -0.2862 -0.0258
 5842SOL    HW124641   3.359  12.830   5.401 -0.4371  2.1542  0.2035
 5842SOL    HW224642   3.497  12.868   5.451  0.5988 -1.1613  0.1047
 5843SOL     OW24643   2.273   9.069   0.750  0.1926 -0.7011 -0.3186
 5843SOL    HW124644   2.332   9.037   0.682  0.8191 -0.1298 -0.0468
 5843SOL    HW224645   2.318   9.144   0.788 -1.0872  0.3040 -0.6979
 5844SOL     OW24646   4.720   5.838   6.292 -0.2354  0.0505  0.7397
 5844SOL    HW124647   4.735   5.932   6.279  0.4210 -0.0993  0.3207
 5844SOL    HW224648   4.780   5.814   6.363 -0.4528 -0.0376  0.8923
 5845SOL     OW24649   4.831   5.988   0.341 -0.6219  0.0689  0.2608
 5845SOL    HW124650   4.845   5.963   0.250 -1.0078 -2.0641  0.7340
 5845SOL    HW224651   4.893   6.059   0.357  0.3452 -0.3926 -1.2967
 5846SOL     OW24652   7.763  11.237   0.619 -0.4364  0.6478  0.2339
 5846SOL    HW124653   7.687  11.198   0.663 -0.5252 -0.7640 -1.0595
 5846SOL    HW224654   7.726  11.294   0.552 -0.3161  1.7029  1.0495
 5847SOL     OW24655  10.624   0.246  11.788 -0.5771 -0.2867 -0.1691
 5847SOL    HW124656  10.630   0.259  11.882  0.4819 -1.1035 -0.1117
 5847SOL    HW224657  10.530   0.242  11.770 -0.8101 -2.2281  1.1625
 5848SOL     OW24658  12.649  12.642   2.555 -0.2160 -0.2504  0.9159
 5848SOL    HW124659  12.604  12.642   2.471  1.1967 -1.6855  0.1052
 5848SOL    HW224660  12.579  12.640   2.620 -1.4313  3.5132 -0.0555
 5849SOL     OW24661   1.698   6.474  12.279  0.2076  0.0931 -0.1543
 5849SOL    HW124662   1.635   6.402  12.271  0.9280 -0.4059 -1.6711
 5849SOL    HW224663   1.784   6.431  12.277  0.6235  0.8617  0.6992
 5850SOL     OW24664  12.455   0.390  11.700 -0.2493 -0.8461  0.5641
 5850SOL    HW124665  12.400   0.425  11.770 -0.5970  0.5218 -0.3480
 5850SOL    HW224666  12.497   0.313  11.738  0.6275  0.6081  2.6924
 5851SOL     OW24667   7.616   2.310  11.799 -0.1523  0.1742 -0.4137
 5851SOL    HW124668   7.590   2.402  11.805 -0.5702  0.3115 -3.1164
 5851SOL    HW224669   7.655   2.291  11.884 -3.5896  1.6924  1.7326
 5852SOL     OW24670   0.402   9.835   2.252  0.0092  0.7779  0.4993
 5852SOL    HW124671   0.441   9.915   2.286 -0.7048  1.2501  0.2131
 5852SOL    HW224672   0.325   9.820   2.308  0.6673 -0.2388  1.1692
 5853SOL     OW24673  12.477   5.274   1.098  0.0421 -0.3469 -0.0476
 5853SOL    HW124674  12.496   5.366   1.078 -1.7101 -0.4465 -2.5532
 5853SOL    HW224675  12.562   5.231   1.095  0.9393  1.1757  1.4703
 5854SOL     OW24676  10.503  11.755   7.215 -1.0991 -0.2118  0.2283
 5854SOL    HW124677  10.506  11.825   7.150 -1.0403  1.2600  1.7547
 5854SOL    HW224678  10.412  11.724   7.212 -0.7074 -1.3451 -1.6883
 5855SOL     OW24679   5.530   8.380   8.090 -0.6670 -1.1234  0.3165
 5855SOL    HW124680   5.606   8.435   8.108  0.9498 -3.0433 -0.3088
 5855SOL    HW224681   5.516   8.387   7.996 -1.4159 -0.6102  0.4600
 5856SOL     OW24682  12.787  10.911   1.891 -0.0045 -0.0956  0.2873
 5856SOL    HW124683  12.708  10.916   1.945  1.9165 -0.1443  3.3616
 5856SOL    HW224684  12.774  10.833   1.837 -1.7632 -0.4820  1.1871
 5857SOL     OW24685   2.508   9.691   3.681  0.0669 -0.2783 -0.0672
 5857SOL    HW124686   2.450   9.743   3.736  0.3062 -1.5153  1.4081
 5857SOL    HW224687   2.458   9.612   3.661  0.7441 -0.7504  0.0761
 5858SOL     OW24688  12.206  11.060  10.457 -0.4952 -0.6723  0.3211
 5858SOL    HW124689  12.189  10.982  10.404  0.8195 -0.4948 -0.3945
 5858SOL    HW224690  12.298  11.052  10.483 -0.7955 -0.1604  1.6083
 5859SOL     OW24691   9.057   7.782   7.531 -0.0990  0.3630  0.1347
 5859SOL    HW124692   9.064   7.832   7.613 -2.0623  0.6903  0.1420
 5859SOL    HW224693   9.087   7.843   7.464 -1.8015  1.3678  0.2262
 5860SOL     OW24694   0.514   9.836   7.521 -0.4770  0.0305  0.3305
 5860SOL    HW124695   0.489   9.824   7.612  1.3520 -1.7330  0.6556
 5860SOL    HW224696   0.436   9.874   7.480 -1.4589  0.5370  2.5239
 5861SOL     OW24697  10.729  11.321   4.416  0.0747  0.1076  0.4730
 5861SOL    HW124698  10.696  11.292   4.331  0.2242  0.7498  0.1908
 5861SOL    HW224699  10.721  11.417   4.414  1.2349  0.2243  0.6981
 5862SOL     OW24700   1.134   7.060   2.449  0.4418  0.0925 -0.4125
 5862SOL    HW124701   1.089   7.144   2.437 -0.2000 -0.4667 -2.1839
 5862SOL    HW224702   1.218   7.071   2.405  0.8832  0.1787  0.4171
 5863SOL     OW24703   2.046   4.902   0.920 -0.3050 -0.8044  0.1905
 5863SOL    HW124704   2.038   4.806   0.919 -1.5131 -0.7186 -0.6971
 5863SOL    HW224705   2.017   4.929   0.833 -1.0179  0.4385  0.7879
 5864SOL     OW24706   8.180  12.005   7.045  0.4288 -0.3036  0.0860
 5864SOL    HW124707   8.175  12.056   7.126 -1.2264 -0.8822  0.3963
 5864SOL    HW224708   8.182  12.070   6.975  2.3931  0.2195  0.5571
 5865SOL     OW24709  11.417  12.396   5.309  0.2567 -0.2131 -0.5548
 5865SOL    HW124710  11.420  12.468   5.373 -0.9012  1.8151 -2.6206
 5865SOL    HW224711  11.325  12.369   5.309  0.2603 -0.2264 -1.2964
 5866SOL     OW24712  12.719  12.632   8.850 -0.2292 -0.2201  0.3704
 5866SOL    HW124713  12.755  12.546   8.872  0.2165  0.2183  1.4208
 5866SOL    HW224714  12.681  12.620   8.763  3.5604 -0.4274 -1.4817
 5867SOL     OW24715  10.920   7.021   6.044  0.0533 -0.3451  0.0756
 5867SOL    HW124716  10.934   6.935   6.084 -1.0623 -0.7158 -0.2852
 5867SOL    HW224717  10.854   7.006   5.977  0.5187  0.6294 -0.6324
 5868SOL     OW24718   1.314   0.403   9.183  0.2745  0.4651 -0.5507
 5868SOL    HW124719   1.308   0.498   9.175  2.0235  0.7829  1.1670
 5868SOL    HW224720   1.257   0.381   9.256 -0.1538  0.1714 -0.9670
 5869SOL     OW24721  10.829   7.297  10.524 -0.6646  0.4185  0.2184
 5869SOL    HW124722  10.844   7.236  10.452 -0.4498 -0.8235  1.2713
 5869SOL    HW224723  10.738   7.284  10.548 -0.2487 -0.5390  1.3537
 5870SOL     OW24724   2.769   7.583   3.540 -0.3008 -0.7435 -0.2510
 5870SOL    HW124725   2.705   7.619   3.602  1.2125 -3.2751  3.1191
 5870SOL    HW224726   2.732   7.499   3.514 -0.5246 -0.0721 -2.3085
 5871SOL     OW24727  12.912  11.648   1.540  0.1722  0.1238  0.2532
 5871SOL    HW124728  12.879  11.657   1.629  0.7009 -2.5522  0.8177
 5871SOL    HW224729  12.846  11.593   1.496  0.3740  0.6480 -0.7273
 5872SOL     OW24730   7.719   7.864   2.551  0.1382 -0.2181  0.2239
 5872SOL    HW124731   7.634   7.828   2.576  0.4875 -0.7637  0.6179
 5872SOL    HW224732   7.712   7.876   2.456  0.0988 -1.5315  0.0473
 5873SOL     OW24733   8.232   9.763   8.439  0.0404  0.0128  0.3369
 5873SOL    HW124734   8.141   9.790   8.424 -0.2929 -1.3022 -0.1680
 5873SOL    HW224735   8.283   9.817   8.378 -0.5199 -0.0169 -0.1692
 5874SOL     OW24736   6.853   2.657   3.246  0.5088  0.3651 -0.6574
 5874SOL    HW124737   6.907   2.684   3.172  0.0681  0.6815 -0.8647
 5874SOL    HW224738   6.912   2.663   3.322  0.5485  1.5146 -0.7571
 5875SOL     OW24739   0.019   2.316   7.998  0.0561  0.9850  0.4741
 5875SOL    HW124740   0.019   2.361   8.083 -0.0863  1.1249  0.4018
 5875SOL    HW224741   0.004   2.386   7.934  0.4333  0.9173  0.3105
 5876SOL     OW24742   8.584   5.214   0.351 -0.5414 -0.0412  0.0084
 5876SOL    HW124743   8.674   5.238   0.328  0.0523 -1.4852  0.7148
 5876SOL    HW224744   8.538   5.211   0.267  0.2285  0.0435 -0.4317
 5877SOL     OW24745   2.753   4.744   1.546 -0.0512 -0.0077 -0.0941
 5877SOL    HW124746   2.843   4.727   1.574 -1.0140 -0.2859  3.3371
 5877SOL    HW224747   2.741   4.690   1.468  2.4763 -0.5861 -0.1738
 5878SOL     OW24748  11.474   7.282   9.660 -0.1744  0.1848  0.0634
 5878SOL    HW124749  11.403   7.219   9.670  0.6697 -0.8808 -0.3980
 5878SOL    HW224750  11.532   7.242   9.595  2.0266 -0.1002  2.0611
 5879SOL     OW24751  12.544   4.421  12.610  0.6020 -0.0799 -0.1212
 5879SOL    HW124752  12.494   4.353  12.655 -1.3807  0.0508 -1.9886
 5879SOL    HW224753  12.629   4.380  12.593  0.1191 -1.4016  0.4561
 5880SOL     OW24754   5.539   2.761  12.751  0.3896 -0.4233 -0.0246
 5880SOL    HW124755   5.482   2.714  12.812  0.4019 -0.9152 -0.3824
 5880SOL    HW224756   5.479   2.799  12.687  0.5400 -4.1641 -2.7080
 5881SOL     OW24757   2.876   4.989   4.891 -0.2397 -0.2573 -0.7723
 5881SOL    HW124758   2.918   4.998   4.805  2.8571 -0.3165  0.6092
 5881SOL    HW224759   2.891   5.073   4.934 -0.0707 -0.8657  0.3871
 5882SOL     OW24760   2.944   2.744   7.294  0.0772  0.4105 -0.0580
 5882SOL    HW124761   2.919   2.792   7.373 -0.8141 -1.9194  1.1585
 5882SOL    HW224762   2.864   2.740   7.242 -0.6432 -1.9652  1.1053
 5883SOL     OW24763  12.512   4.090   8.307 -0.3374  0.0040  0.9595
 5883SOL    HW124764  12.426   4.057   8.281 -0.2115  0.3357  0.0888
 5883SOL    HW224765  12.571   4.014   8.299 -0.3551  0.0336  0.5545
 5884SOL     OW24766   1.275   9.092   1.714 -0.2401  0.0632  0.3755
 5884SOL    HW124767   1.249   9.059   1.628 -1.9112  1.3855  0.3185
 5884SOL    HW224768   1.363   9.056   1.728  0.7873  1.1197 -2.6195
 5885SOL     OW24769   1.518   9.691   6.775 -0.1895 -0.5645 -0.1864
 5885SOL    HW124770   1.439   9.657   6.733 -0.5401 -0.5038  0.4205
 5885SOL    HW224771   1.490   9.715   6.863  0.2452  0.5104 -0.3226
 5886SOL     OW24772   4.754   9.962  10.541  0.7002  0.1265 -0.1479
 5886SOL    HW124773   4.839   9.920  10.556  0.4215 -0.4443 -0.1512
 5886SOL    HW224774   4.738  10.013  10.621 -0.3835 -2.2245  1.2180
 5887SOL     OW24775   0.104   9.664   7.339  0.5242 -0.0707 -0.3688
 5887SOL    HW124776   0.097   9.569   7.351  1.5989 -0.2131 -0.7172
 5887SOL    HW224777   0.042   9.684   7.270  0.9563 -0.6755 -0.9498
 5888SOL     OW24778  12.692   0.973   1.529  0.1172  0.4751  0.1271
 5888SOL    HW124779  12.772   1.025   1.538 -0.4752  1.3001  0.8293
 5888SOL    HW224780  12.631   1.031   1.485 -0.5364  0.3735  0.8699
 5889SOL     OW24781   8.123  12.048   9.726  0.7225  0.2698 -0.8502
 5889SOL    HW124782   8.065  12.091   9.789  0.8164 -0.6533 -0.1124
 5889SOL    HW224783   8.079  12.059   9.642 -0.1552  0.2219 -0.4096
 5890SOL     OW24784   4.664  10.993   3.858 -0.8803 -0.0770  0.2204
 5890SOL    HW124785   4.609  10.916   3.867  2.9458 -3.5584 -2.4712
 5890SOL    HW224786   4.721  10.991   3.935 -0.5552 -0.1460 -0.0192
 5891SOL     OW24787   9.557   3.928   8.731 -0.3074 -0.0794 -0.1180
 5891SOL    HW124788   9.468   3.950   8.760 -0.2095 -0.6470  0.6667
 5891SOL    HW224789   9.595   4.011   8.702  0.3162  1.0478  3.4409
 5892SOL     OW24790   8.963   5.126   7.846 -0.1951 -0.3199  0.1016
 5892SOL    HW124791   8.942   5.043   7.803 -1.5181  0.2550 -0.4080
 5892SOL    HW224792   9.059   5.129   7.847 -0.1313 -1.1370 -1.2737
 5893SOL     OW24793   7.210   0.056   4.673 -0.2143  0.0862 -0.6096
 5893SOL    HW124794   7.157   0.129   4.640 -0.3211  0.8108  1.0817
 5893SOL    HW224795   7.297   0.093   4.687 -0.7901  0.5492  2.3110
 5894SOL     OW24796   6.402   5.850   0.315  0.3225 -0.1805  0.4772
 5894SOL    HW124797   6.491   5.824   0.292 -0.2009 -0.6268 -1.2428
 5894SOL    HW224798   6.365   5.774   0.361  0.9240  0.1407  1.5116
 5895SOL     OW24799  11.430   1.941  11.866  0.4008  0.2929  0.7467
 5895SOL    HW124800  11.412   2.031  11.892  0.2277  0.2510  0.7710
 5895SOL    HW224801  11.357   1.890  11.901 -0.1511  0.3226 -0.3285
 5896SOL     OW24802   6.501   2.640  12.068  0.1248  0.4617  0.4582
 5896SOL    HW124803   6.595   2.623  12.068  0.0675 -0.0968 -1.6142
 5896SOL    HW224804   6.478   2.652  11.976 -1.4262  3.1488  1.0746
 5897SOL     OW24805  11.405   3.597   3.551 -0.1323  0.1342  0.0446
 5897SOL    HW124806  11.373   3.564   3.635  0.3059 -0.9089 -0.1883
 5897SOL    HW224807  11.490   3.635   3.571  0.7939 -1.6952 -0.1926
 5898SOL     OW24808   2.719   6.271   2.927 -0.3773  0.1133  0.3802
 5898SOL    HW124809   2.662   6.212   2.876 -0.3187  1.5664 -1.5098
 5898SOL    HW224810   2.665   6.298   3.001 -1.3732 -0.2355 -0.1939
 5899SOL     OW24811   1.202   7.883   1.580  0.7049  0.1682  0.0804
 5899SOL    HW124812   1.259   7.849   1.648  0.9098 -0.7611 -0.5452
 5899SOL    HW224813   1.214   7.824   1.506 -0.7215  0.2100 -0.2180
 5900SOL     OW24814  10.325   0.846   1.691 -0.1358 -0.2094  0.1322
 5900SOL    HW124815  10.336   0.752   1.708  0.6708 -0.1723 -0.1127
 5900SOL    HW224816  10.302   0.851   1.598  0.7357 -0.1274 -0.0925
 5901SOL     OW24817   7.527   7.935  12.117  0.5714 -0.0807 -0.2596
 5901SOL    HW124818   7.582   7.973  12.186  1.7909  1.2448 -1.8868
 5901SOL    HW224819   7.445   7.912  12.162  1.2208  0.9641  1.5654
 5902SOL     OW24820  10.360   4.688  12.746  0.5298  0.0936  0.3709
 5902SOL    HW124821  10.447   4.719  12.720 -0.1159  1.3107 -0.4164
 5902SOL    HW224822  10.366   4.681  12.842  1.4054  0.4364  0.3575
 5903SOL     OW24823  10.458  10.979   8.274  0.1451 -0.2411  0.1279
 5903SOL    HW124824  10.413  11.051   8.229  2.0005  0.8687 -0.0641
 5903SOL    HW224825  10.455  10.906   8.212  1.6249  0.8990 -1.3875
 5904SOL     OW24826  11.116   1.476   2.738  0.4038  0.3705  0.1325
 5904SOL    HW124827  11.075   1.503   2.656  1.0225  0.8303 -0.0414
 5904SOL    HW224828  11.059   1.511   2.807  1.0848  2.0026 -0.0941
 5905SOL     OW24829   3.666   0.446  12.132  0.5150 -0.3139 -0.3451
 5905SOL    HW124830   3.729   0.436  12.061  1.2204  2.6255 -0.2483
 5905SOL    HW224831   3.645   0.356  12.158  3.3206 -1.4444 -1.5594
 5906SOL     OW24832  12.571   1.591  11.504 -0.2910 -0.3604  0.3035
 5906SOL    HW124833  12.652   1.543  11.482 -0.3860 -0.3194 -0.1474
 5906SOL    HW224834  12.569   1.591  11.599  1.1864  1.2131  0.3953
 5907SOL     OW24835   3.062  12.557   9.520  0.3247 -0.1494 -0.3214
 5907SOL    HW124836   3.002  12.609   9.467  0.5860 -0.9929 -1.4926
 5907SOL    HW224837   3.139  12.614   9.532 -0.1876  0.4654  0.1315
 5908SOL     OW24838   7.946  10.889  11.849  0.1944  0.2769 -0.0413
 5908SOL    HW124839   7.900  10.951  11.904  1.7040  2.1100 -0.7482
 5908SOL    HW224840   7.924  10.803  11.886 -1.9493  1.1867  0.9550
 5909SOL     OW24841   4.244   0.334   0.573 -0.1624 -0.5560 -0.2867
 5909SOL    HW124842   4.274   0.420   0.543 -0.8169  0.1454  0.9763
 5909SOL    HW224843   4.179   0.353   0.641  1.7468 -2.0024  2.1391
 5910SOL     OW24844   9.175   1.579   2.358 -0.4428 -0.5926  0.3661
 5910SOL    HW124845   9.268   1.561   2.346  0.0994  1.7723  0.4329
 5910SOL    HW224846   9.172   1.672   2.380 -2.8577 -0.5227 -0.0111
 5911SOL     OW24847   0.864   5.364   2.864  0.1002  0.3057 -0.2023
 5911SOL    HW124848   0.866   5.405   2.951  1.7771 -0.2894  0.0610
 5911SOL    HW224849   0.955   5.343   2.845 -0.3525 -0.3666 -1.7446
 5912SOL     OW24850   1.985   0.982   6.037  0.0284 -0.3405 -0.6815
 5912SOL    HW124851   1.947   0.997   5.950  1.4559  0.9417 -1.1376
 5912SOL    HW224852   1.957   1.057   6.089 -0.5430 -0.9370 -0.1041
 5913SOL     OW24853   9.713  12.331   9.174 -0.8067 -0.1023  0.1633
 5913SOL    HW124854   9.732  12.388   9.099 -3.8208 -0.5462 -1.0946
 5913SOL    HW224855   9.742  12.244   9.146  0.6411  0.1903  0.6929
 5914SOL     OW24856  10.236   1.352   4.444  0.1632  0.1568 -0.6953
 5914SOL    HW124857  10.228   1.272   4.394 -2.2603  0.6346 -1.2179
 5914SOL    HW224858  10.280   1.413   4.386 -0.8112  0.1026 -1.5159
 5915SOL     OW24859   0.843   6.675   4.637  0.1335 -0.1084 -0.3292
 5915SOL    HW124860   0.814   6.704   4.724 -0.5671  1.1709 -0.9564
 5915SOL    HW224861   0.776   6.612   4.610  0.7332 -1.0445  0.3383
 5916SOL     OW24862   8.184   9.448   1.365  0.1629  0.3840  0.3869
 5916SOL    HW124863   8.152   9.535   1.342  2.3483  1.0300 -0.4736
 5916SOL    HW224864   8.264   9.437   1.313 -0.4421 -2.4606 -0.1190
 5917SOL     OW24865   7.897   6.523  10.177 -0.0382  0.1981 -0.0703
 5917SOL    HW124866   7.893   6.428  10.185 -1.0233  0.2993  0.8637
 5917SOL    HW224867   7.901   6.555  10.267 -1.1571  1.0801 -0.3051
 5918SOL     OW24868  10.659  12.698   7.409  0.2727 -0.2578  0.1962
 5918SOL    HW124869  10.598  12.632   7.376 -0.6327  1.1779 -1.1402
 5918SOL    HW224870  10.665  12.680   7.503 -1.3493 -1.1364  0.1701
 5919SOL     OW24871  11.665   8.277   3.615 -0.2456  0.2552 -0.3861
 5919SOL    HW124872  11.758   8.261   3.604 -0.4121 -0.7781 -0.4235
 5919SOL    HW224873  11.634   8.306   3.529 -0.2717 -1.1259 -0.8729
 5920SOL     OW24874   5.484   2.585   6.181 -0.4807 -0.2185 -0.1945
 5920SOL    HW124875   5.410   2.640   6.205 -0.9878 -0.4523 -1.1928
 5920SOL    HW224876   5.530   2.569   6.264 -0.6721  1.1755  0.1977
 5921SOL     OW24877  12.448  10.298   6.460 -0.2713  0.0806 -0.6981
 5921SOL    HW124878  12.385  10.262   6.523  1.1739 -1.2377  0.0523
 5921SOL    HW224879  12.443  10.238   6.385  0.6646 -0.5319 -0.2884
 5922SOL     OW24880   5.911   2.246   6.574 -0.4832 -0.1709  0.1454
 5922SOL    HW124881   5.964   2.290   6.641 -0.3787  1.6057 -1.0365
 5922SOL    HW224882   5.829   2.225   6.618  0.4198 -1.1739  1.4531
 5923SOL     OW24883   9.775   2.633   8.993  0.1779 -0.3845 -0.2252
 5923SOL    HW124884   9.838   2.680   9.048 -0.5455 -0.2531  0.4942
 5923SOL    HW224885   9.758   2.693   8.920 -1.2897  0.8311  1.0451
 5924SOL     OW24886   2.174   6.662   7.704  0.0745 -1.1977  0.0660
 5924SOL    HW124887   2.231   6.649   7.779  1.4769  1.3670 -0.4466
 5924SOL    HW224888   2.207   6.601   7.638  0.2151 -1.9128  0.7804
 5925SOL     OW24889   2.976   5.381   6.733 -0.0981  0.5808  0.1190
 5925SOL    HW124890   2.935   5.330   6.663 -0.4497 -0.1017  0.8084
 5925SOL    HW224891   2.939   5.469   6.723 -1.1511  0.1715  0.2376
 5926SOL     OW24892  10.459   8.610  12.149  0.0028 -0.2139 -0.4221
 5926SOL    HW124893  10.476   8.556  12.226 -0.2359 -0.6252 -0.6536
 5926SOL    HW224894  10.527   8.584  12.087  1.3571  1.4335  0.2875
 5927SOL     OW24895   2.248   1.892  10.951  0.0232  0.0194  0.2513
 5927SOL    HW124896   2.265   1.971  10.899 -0.0729  1.5267  2.3683
 5927SOL    HW224897   2.171   1.853  10.911 -0.1455  1.2068 -0.6353
 5928SOL     OW24898  12.245   6.499   8.727  0.0403  0.1876 -0.1562
 5928SOL    HW124899  12.256   6.543   8.811  1.3300 -1.4147  0.5671
 5928SOL    HW224900  12.265   6.567   8.662 -0.8190  1.4070  0.7977
 5929SOL     OW24901   0.278   6.711  12.510 -0.2685 -0.0964  0.3722
 5929SOL    HW124902   0.184   6.695  12.515 -0.5155  0.8252 -0.7731
 5929SOL    HW224903   0.287   6.805  12.528  0.2935  0.0708 -0.7161
 5930SOL     OW24904   0.716  10.587   0.853  0.7159 -0.6461  0.1366
 5930SOL    HW124905   0.791  10.627   0.809  0.9142 -0.4292  0.6635
 5930SOL    HW224906   0.650  10.656   0.857  0.9783 -0.4318  0.8521
 5931SOL     OW24907   5.346   7.842   7.814  0.1485 -0.1393 -0.2114
 5931SOL    HW124908   5.395   7.924   7.826 -0.1457  0.1805 -1.1211
 5931SOL    HW224909   5.414   7.775   7.806  0.4039  0.1061 -0.1146
 5932SOL     OW24910   4.000   8.090   7.343 -0.4674  0.6678  0.1723
 5932SOL    HW124911   3.955   8.006   7.356 -1.3577  1.3563  1.9055
 5932SOL    HW224912   4.070   8.089   7.409 -0.5430  1.3303  0.2655
 5933SOL     OW24913   6.278   6.404   5.367  0.0647 -0.6850  0.4710
 5933SOL    HW124914   6.362   6.424   5.326  0.3889 -0.4991  1.2225
 5933SOL    HW224915   6.279   6.309   5.379  0.5159 -0.5959  1.2107
 5934SOL     OW24916   7.728  10.309   4.053  0.0266 -0.6601 -0.0269
 5934SOL    HW124917   7.776  10.356   4.121 -0.2284 -1.9457  1.0854
 5934SOL    HW224918   7.772  10.225   4.046 -0.5299 -0.9000 -0.8138
 5935SOL     OW24919  11.100  11.030   5.216  0.0283 -0.2916  0.0389
 5935SOL    HW124920  11.192  11.042   5.237  0.0608 -0.4229 -0.0318
 5935SOL    HW224921  11.055  11.040   5.300  0.0429  0.4559 -0.0416
 5936SOL     OW24922   3.626  12.072   6.384  0.2692 -0.2516 -0.4661
 5936SOL    HW124923   3.551  12.013   6.375  1.2895 -1.4017 -1.8974
 5936SOL    HW224924   3.702  12.013   6.388  1.0641  0.8086  2.2972
 5937SOL     OW24925  10.885   3.374   1.344 -0.1900 -0.2231 -0.4927
 5937SOL    HW124926  10.957   3.373   1.408 -0.6494  0.0473  0.0422
 5937SOL    HW224927  10.892   3.289   1.300  0.0701 -0.4681  0.0004
 5938SOL     OW24928   0.225   6.061   0.188 -0.7565 -0.3873  0.0870
 5938SOL    HW124929   0.206   6.000   0.117  0.2649  0.0035 -0.5449
 5938SOL    HW224930   0.273   6.009   0.252 -1.5966 -0.7170  0.4645
 5939SOL     OW24931   8.198  11.130   0.171  0.2724  0.8282  0.0479
 5939SOL    HW124932   8.175  11.148   0.080 -0.2913 -0.5661 -0.0985
 5939SOL    HW224933   8.186  11.036   0.181  2.4069  0.5965  0.9787
 5940SOL     OW24934   3.289   7.744   3.892  0.4558  0.1343 -0.4630
 5940SOL    HW124935   3.239   7.757   3.973  3.3257  0.7683  1.3418
 5940SOL    HW224936   3.227   7.766   3.822 -1.9513  0.1788  1.5388
 5941SOL     OW24937   3.629   6.679   2.832  0.0895  0.2534 -0.0278
 5941SOL    HW124938   3.662   6.755   2.879 -0.3393 -0.0830  0.8249
 5941SOL    HW224939   3.579   6.716   2.759 -1.2671  0.8251  1.1476
 5942SOL     OW24940  10.680   6.159   8.131 -0.2685  0.5417 -0.5775
 5942SOL    HW124941  10.645   6.246   8.149 -1.5309  0.0368 -0.4932
 5942SOL    HW224942  10.654   6.106   8.207  1.2332  0.2794 -0.2138
 5943SOL     OW24943  12.101   6.485   2.302 -0.1528  0.2493  0.0142
 5943SOL    HW124944  12.026   6.432   2.328 -1.1357  2.4444  2.0726
 5943SOL    HW224945  12.062   6.558   2.254  0.8398  0.6264 -0.2257
 5944SOL     OW24946   3.105  12.287   1.806 -0.4884  0.0779 -0.2970
 5944SOL    HW124947   3.183  12.280   1.751  0.7725  1.4754  1.2073
 5944SOL    HW224948   3.087  12.198   1.834  1.0172 -0.1999 -0.1286
 5945SOL     OW24949  11.479   6.684   4.007 -0.0529  0.1036 -0.1070
 5945SOL    HW124950  11.453   6.662   3.917  0.0454  1.2290 -0.4205
 5945SOL    HW224951  11.490   6.779   4.006  1.2710 -0.0256  0.7623
 5946SOL     OW24952   0.037   2.048   1.136 -0.1823 -0.0111  0.0740
 5946SOL    HW124953   0.052   2.001   1.218 -0.4487 -1.3261 -0.6028
 5946SOL    HW224954  -0.053   2.028   1.113  0.4647 -1.3304 -1.5386
 5947SOL     OW24955   3.401  10.062   5.952 -0.1563 -0.0255  0.1636
 5947SOL    HW124956   3.479  10.077   6.005  0.0401  0.7555 -0.3234
 5947SOL    HW224957   3.401   9.968   5.934  0.3280 -0.1271  0.6864
 5948SOL     OW24958  12.567   2.585   3.918  0.6917 -0.0167  0.1282
 5948SOL    HW124959  12.480   2.622   3.905  0.6516 -0.8000 -2.5863
 5948SOL    HW224960  12.628   2.654   3.890  0.7457 -0.6899 -1.5338
 5949SOL     OW24961   8.725   7.711   3.505  0.0329 -0.0424  0.5259
 5949SOL    HW124962   8.728   7.755   3.421 -3.7353 -0.6416 -0.0991
 5949SOL    HW224963   8.656   7.756   3.554  0.1157 -1.5443  2.1548
 5950SOL     OW24964   1.110  12.599   9.530  0.2463  0.2506 -0.0297
 5950SOL    HW124965   1.141  12.541   9.460 -1.5445  0.2535 -0.8962
 5950SOL    HW224966   1.022  12.567   9.550 -0.4462  2.0904  0.1024
 5951SOL     OW24967   6.038  12.844  12.289  0.1185 -0.3701 -0.1758
 5951SOL    HW124968   6.027  12.914  12.353 -1.8954 -0.2867 -0.5611
 5951SOL    HW224969   6.018  12.885  12.205  1.4078 -0.8197 -0.7300
 5952SOL     OW24970   9.443  12.041   6.413 -0.1354  0.0245  0.3573
 5952SOL    HW124971   9.360  12.089   6.417  0.1843  0.5231  1.1473
 5952SOL    HW224972   9.452  12.018   6.320 -1.4007 -0.4774  0.3342
 5953SOL     OW24973   0.797   5.101   1.859  0.3496  0.0132 -0.9616
 5953SOL    HW124974   0.760   5.190   1.856  0.5812  0.1134 -0.8962
 5953SOL    HW224975   0.889   5.113   1.838  0.3768 -0.2177 -0.9773
 5954SOL     OW24976   7.781   5.842   2.872 -0.0966  0.1453  0.0538
 5954SOL    HW124977   7.792   5.907   2.803 -0.8770 -0.9695 -1.1470
 5954SOL    HW224978   7.689   5.816   2.867 -0.4394  0.7006  2.1338
 5955SOL     OW24979   0.605   7.827   8.892 -0.5390  0.3726 -0.1303
 5955SOL    HW124980   0.684   7.872   8.861  0.4275 -1.1422  0.0627
 5955SOL    HW224981   0.606   7.838   8.987  0.9756 -1.9502  0.1932
 5956SOL     OW24982   0.244  10.044   6.066 -0.0694  0.0648  0.0920
 5956SOL    HW124983   0.192   9.965   6.083  1.3833 -0.8347  0.4836
 5956SOL    HW224984   0.323  10.033   6.119 -0.1938  2.1898  0.8090
 5957SOL     OW24985   9.207   9.693  10.397  0.1884 -0.7437 -0.3241
 5957SOL    HW124986   9.156   9.661  10.323 -0.0865 -0.4820 -0.2515
 5957SOL    HW224987   9.150   9.680  10.473 -0.6329  1.4195 -0.4910
 5958SOL     OW24988   7.327   9.939   7.899  0.1336  0.4648  0.3356
 5958SOL    HW124989   7.359  10.018   7.855  1.0918 -0.0596  0.0573
 5958SOL    HW224990   7.232   9.951   7.904 -0.1624  0.1851 -2.6588
 5959SOL     OW24991   2.771  11.032   0.614 -0.1475  0.3234 -0.6604
 5959SOL    HW124992   2.764  11.096   0.543  0.5629 -0.3315 -1.3392
 5959SOL    HW224993   2.684  10.995   0.622 -0.3229  0.6726 -0.9382
 5960SOL     OW24994   1.585   0.643  11.877  0.0508  0.4076 -0.4071
 5960SOL    HW124995   1.503   0.691  11.871 -0.6987 -0.8415 -0.5271
 5960SOL    HW224996   1.617   0.660  11.965  0.8245  2.6690 -1.0508
 5961SOL     OW24997   0.812  12.789   0.520  0.1230 -0.0688  0.0540
 5961SOL    HW124998   0.878  12.821   0.582 -0.3114  2.9255 -0.8680
 5961SOL    HW224999   0.733  12.779   0.572  0.1413  0.9424  0.2968
 5962SOL     OW25000   5.629   7.774   2.800  0.5676  0.1830  0.8788
 5962SOL    HW125001   5.591   7.836   2.861  0.6384  2.3779 -1.1343
 5962SOL    HW225002   5.554   7.730   2.760  0.4557 -0.1235  1.4253
 5963SOL     OW25003  10.533   9.013   4.336 -0.4360 -0.1214  0.2345
 5963SOL    HW125004  10.475   9.061   4.395 -0.6100 -0.6069  0.4566
 5963SOL    HW225005  10.480   8.941   4.303 -0.6319  0.6422 -1.2123
 5964SOL     OW25006   9.188   4.391  12.116 -0.1436  0.1374  0.2944
 5964SOL    HW125007   9.155   4.453  12.051 -1.7146 -0.5525  0.4042
 5964SOL    HW225008   9.226   4.320  12.064 -1.3841 -0.4046  0.0917
 5965SOL     OW25009   7.114  10.349   2.855 -0.0901  0.0156 -0.1897
 5965SOL    HW125010   7.203  10.382   2.866 -0.0200 -0.3982  0.5422
 5965SOL    HW225011   7.099  10.294   2.932 -0.6669 -0.6197 -0.7386
 5966SOL     OW25012   9.771   9.726   9.693 -0.4244 -0.2140  0.1313
 5966SOL    HW125013   9.725   9.775   9.624 -0.4561  3.1201  2.3001
 5966SOL    HW225014   9.727   9.640   9.694 -2.9126  0.9032 -1.5206
 5967SOL     OW25015   3.890   1.418  10.504  0.1412 -0.3046  0.1047
 5967SOL    HW125016   3.948   1.376  10.567  0.6702 -0.7696 -0.6773
 5967SOL    HW225017   3.804   1.380  10.521  0.1829 -0.0989  0.8300
 5968SOL     OW25018   6.763   2.898  11.080  0.0438  0.2824 -0.9533
 5968SOL    HW125019   6.759   2.803  11.093  0.1192  0.1916 -1.5758
 5968SOL    HW225020   6.692   2.932  11.134  0.2000 -0.1012 -0.4953
 5969SOL     OW25021  11.047   3.424   3.638  0.5379 -0.1321 -0.2667
 5969SOL    HW125022  11.044   3.472   3.720 -1.1092  0.2368 -0.5007
 5969SOL    HW225023  10.980   3.356   3.648 -0.1696  0.3376 -1.5240
 5970SOL     OW25024   2.313   4.759   7.608 -0.1249  0.8959 -0.1341
 5970SOL    HW125025   2.401   4.759   7.647 -1.0221  0.5174  2.0146
 5970SOL    HW225026   2.259   4.808   7.670 -1.7124 -0.0802 -0.6989
 5971SOL     OW25027  12.058   8.135   9.560 -0.2767 -0.1050  0.2424
 5971SOL    HW125028  12.076   8.221   9.596 -0.9634  0.0316  0.2597
 5971SOL    HW225029  12.067   8.075   9.634 -1.0729  0.1034  0.5145
 5972SOL     OW25030   6.539  12.018   8.488  0.0892 -0.1675  0.4341
 5972SOL    HW125031   6.585  11.943   8.525 -0.1941 -0.5936 -0.0644
 5972SOL    HW225032   6.449  11.988   8.476 -0.0064  0.2207  0.1412
 5973SOL     OW25033  12.596  12.612   1.175  0.1549  0.0081 -0.1986
 5973SOL    HW125034  12.644  12.558   1.238  1.2175  1.1880  0.0373
 5973SOL    HW225035  12.517  12.638   1.223  0.2436 -0.3082  0.1276
 5974SOL     OW25036   7.723  12.589   8.653 -0.2261 -0.3893 -0.2664
 5974SOL    HW125037   7.718  12.494   8.661 -1.4482 -0.3125  0.0904
 5974SOL    HW225038   7.762  12.619   8.735 -0.7847 -0.5234  0.0566
 5975SOL     OW25039   3.827  10.247   1.715 -0.3061  0.0899 -0.4475
 5975SOL    HW125040   3.754  10.262   1.654 -1.4791 -1.7747  0.4219
 5975SOL    HW225041   3.848  10.154   1.705  1.4986  0.4208 -0.1352
 5976SOL     OW25042   6.047   8.592   3.631  0.4021 -0.5528 -0.5327
 5976SOL    HW125043   6.099   8.513   3.645  2.9641  1.1889  0.8026
 5976SOL    HW225044   6.018   8.618   3.719 -0.3303  0.0291 -0.9313
 5977SOL     OW25045   0.797   8.625  11.645  0.1853  0.4485  0.7737
 5977SOL    HW125046   0.845   8.564  11.702  0.7009  0.5083  0.4137
 5977SOL    HW225047   0.817   8.594  11.556  0.4453  1.1380  0.5883
 5978SOL     OW25048   8.631   9.011   3.061 -0.0280  0.0030  0.2414
 5978SOL    HW125049   8.590   8.966   3.135 -1.0795 -2.5280 -1.7312
 5978SOL    HW225050   8.719   9.034   3.092 -1.2294  1.2445  3.0063
 5979SOL     OW25051   3.515  10.782   0.601  0.2096  0.2836  0.0331
 5979SOL    HW125052   3.516  10.732   0.683  1.1087 -0.0465 -0.1735
 5979SOL    HW225053   3.477  10.867   0.626  1.1127  0.4399  0.9475
 5980SOL     OW25054  12.557   3.555   0.335 -0.0899  0.0920 -0.4948
 5980SOL    HW125055  12.487   3.509   0.289 -0.2062  0.9195 -1.1534
 5980SOL    HW225056  12.637   3.511   0.307 -0.1904  0.3639 -1.2292
 5981SOL     OW25057  11.884   5.333   7.865 -0.5853 -0.9641  0.3831
 5981SOL    HW125058  11.847   5.351   7.951 -1.0666  2.4352 -0.3918
 5981SOL    HW225059  11.979   5.334   7.879 -0.6264  0.6120  0.7824
 5982SOL     OW25060   4.641   0.915   0.568 -0.6727  0.5633  0.6860
 5982SOL    HW125061   4.588   0.979   0.521  1.0714  2.1073  0.7072
 5982SOL    HW225062   4.584   0.884   0.639 -1.9075  1.2864  0.0474
 5983SOL     OW25063   7.850   0.148   1.336  0.0032  0.1065 -0.2187
 5983SOL    HW125064   7.939   0.170   1.309 -0.5491  1.2039 -1.2045
 5983SOL    HW225065   7.829   0.213   1.404 -0.1767  0.0722 -0.2417
 5984SOL     OW25066  12.214   8.576   5.356 -0.1083 -0.1766 -0.8176
 5984SOL    HW125067  12.232   8.575   5.262  0.6950 -0.0695 -0.6680
 5984SOL    HW225068  12.120   8.595   5.361 -0.0055  0.6391 -1.5795
 5985SOL     OW25069   7.521   6.088   4.734 -0.0515  0.4107 -0.2269
 5985SOL    HW125070   7.576   6.139   4.675  1.0486  0.3233  0.6842
 5985SOL    HW225071   7.509   6.144   4.810 -1.7948  0.6876 -0.6707
 5986SOL     OW25072  10.996  12.204   3.497  0.8327  0.3682  0.3321
 5986SOL    HW125073  11.041  12.176   3.577  0.2407 -0.4534  0.3963
 5986SOL    HW225074  11.007  12.131   3.436  0.0825  0.3958  0.1556
 5987SOL     OW25075  11.243   4.425  11.886  0.3266 -0.1296 -0.2174
 5987SOL    HW125076  11.276   4.506  11.925  0.0920  0.1850 -0.6658
 5987SOL    HW225077  11.303   4.357  11.916  1.1817  0.3837 -0.7415
 5988SOL     OW25078   0.190  12.404   6.887 -0.7741  0.2424 -0.0064
 5988SOL    HW125079   0.132  12.476   6.911 -0.1299  1.1615 -1.0747
 5988SOL    HW225080   0.209  12.419   6.794 -2.0031 -2.2836 -0.7840
 5989SOL     OW25081   9.224   7.412   1.806  0.2452  0.3284  0.4232
 5989SOL    HW125082   9.201   7.402   1.898  0.0528  1.6910  0.5298
 5989SOL    HW225083   9.203   7.503   1.785  0.8325  0.1977 -0.8108
 5990SOL     OW25084   9.967   2.050  12.229 -0.2415 -0.3613  0.1531
 5990SOL    HW125085   9.970   2.051  12.133  0.6617 -1.0631  0.1549
 5990SOL    HW225086  10.058   2.043  12.256 -0.2936  2.0328  1.1417
 5991SOL     OW25087  11.605   5.605   3.874 -0.3845 -0.3361 -0.6035
 5991SOL    HW125088  11.696   5.635   3.883 -1.1534  1.6041  2.8978
 5991SOL    HW225089  11.554   5.686   3.866 -1.8905 -1.3925 -2.9071
 5992SOL     OW25090   2.294  11.925   7.052  0.3545  0.0161 -0.0264
 5992SOL    HW125091   2.260  11.983   6.984  1.3826  0.8187  0.1201
 5992SOL    HW225092   2.355  11.868   7.006 -0.3884 -0.7320 -0.1054
 5993SOL     OW25093  11.930  10.580   0.242 -0.2466  0.3523 -0.4425
 5993SOL    HW125094  11.898  10.498   0.204  0.6510 -0.9978  1.4877
 5993SOL    HW225095  11.852  10.621   0.280 -0.6543  0.2241 -1.1369
 5994SOL     OW25096   8.507   8.237   7.300  0.3267 -0.3971  0.1724
 5994SOL    HW125097   8.504   8.176   7.226  0.1899 -0.1092 -0.0643
 5994SOL    HW225098   8.415   8.256   7.319  0.3713 -0.1387  0.1363
 5995SOL     OW25099  12.266  12.613   6.808  0.3511 -0.2495 -0.4510
 5995SOL    HW125100  12.252  12.543   6.743 -0.5787 -0.3777 -0.1183
 5995SOL    HW225101  12.321  12.572   6.875 -0.9706 -0.9879  0.2284
 5996SOL     OW25102   8.548   2.451   1.571 -0.3323 -0.0634  0.3324
 5996SOL    HW125103   8.508   2.434   1.486  0.9280  2.0021 -0.7720
 5996SOL    HW225104   8.632   2.492   1.549 -0.0995  0.7594  2.5719
 5997SOL     OW25105   9.251  11.403   3.985 -0.2093  0.4584 -0.0809
 5997SOL    HW125106   9.286  11.341   3.923  0.0755  0.1462  0.3881
 5997SOL    HW225107   9.213  11.349   4.054 -0.5714  0.7987 -0.0089
 5998SOL     OW25108   1.433   2.887   8.869  0.3762 -0.3059 -0.6130
 5998SOL    HW125109   1.509   2.847   8.827 -0.1319 -1.8697 -0.1283
 5998SOL    HW225110   1.386   2.813   8.908 -0.2641  0.8589  0.9250
 5999SOL     OW25111   2.139  11.245   1.468  0.3433  0.3836 -0.1388
 5999SOL    HW125112   2.126  11.336   1.440  1.5426 -0.1219 -2.6648
 5999SOL    HW225113   2.234  11.234   1.468  0.3582 -0.1940  2.7577
 6000SOL     OW25114   1.178   2.797   1.441  0.0132 -0.0762 -0.5760
 6000SOL    HW125115   1.101   2.830   1.395 -1.2705 -2.1787 -0.0858
 6000SOL    HW225116   1.156   2.806   1.534 -0.6905 -2.6402 -0.3895
 6001SOL     OW25117   7.451  10.865  11.641 -0.4539 -0.4790  0.1421
 6001SOL    HW125118   7.414  10.900  11.721  0.8505 -0.7487  0.8978
 6001SOL    HW225119   7.543  10.850  11.662  0.0260 -0.1140 -1.5557
 6002SOL     OW25120  10.485   6.602   8.013 -0.3672  0.6865 -0.0085
 6002SOL    HW125121  10.405   6.615   7.962 -0.0078 -0.4895 -0.9080
 6002SOL    HW225122  10.544   6.672   7.982 -0.8530  1.2447  0.2995
 6003SOL     OW25123   5.135   2.264   0.794  0.1775 -0.0278 -0.4592
 6003SOL    HW125124   5.047   2.284   0.825  0.4818  0.9715 -0.1995
 6003SOL    HW225125   5.173   2.349   0.773  1.6550 -0.2753  1.0272
 6004SOL     OW25126   6.701  11.704   7.309 -0.4427  0.0507  0.3656
 6004SOL    HW125127   6.650  11.626   7.286  1.0583 -0.8390 -0.1144
 6004SOL    HW225128   6.706  11.703   7.404  1.0821 -1.5249  0.3253
 6005SOL     OW25129  12.880   8.431   6.989 -0.2755 -0.0247 -0.0713
 6005SOL    HW125130  12.824   8.427   7.067  1.0190  1.3697  1.0053
 6005SOL    HW225131  12.900   8.524   6.979  1.4215 -0.4145 -0.7085
 6006SOL     OW25132   6.641   5.836  10.476  0.2586 -0.4638  0.8076
 6006SOL    HW125133   6.605   5.925  10.477  0.7433 -0.1873 -1.4569
 6006SOL    HW225134   6.587   5.787  10.538 -0.4618  1.2375  1.5746
 6007SOL     OW25135  11.744   6.253   6.037  1.1169  0.1948 -0.3286
 6007SOL    HW125136  11.720   6.255   5.944  0.4909 -0.0827 -0.1770
 6007SOL    HW225137  11.753   6.345   6.061 -1.8623  0.4624  0.1166
 6008SOL     OW25138   1.370   2.596  11.639 -0.2086  0.2383  0.2916
 6008SOL    HW125139   1.281   2.587  11.673  0.3159 -0.8794  1.4513
 6008SOL    HW225140   1.390   2.511  11.600  0.5167  0.3292  0.4614
 6009SOL     OW25141  10.046   2.485   7.037 -0.2043  0.0444 -0.4288
 6009SOL    HW125142  10.024   2.402   6.994  1.8070 -2.1762  2.4835
 6009SOL    HW225143   9.980   2.495   7.105  0.6917 -0.3078  0.5271
 6010SOL     OW25144   0.418  11.128  11.937  0.1853 -0.4640 -0.0234
 6010SOL    HW125145   0.488  11.132  11.872  0.0783 -1.7957 -0.2478
 6010SOL    HW225146   0.447  11.188  12.007  0.2312  1.0935 -1.3097
 6011SOL     OW25147   9.622   8.174   7.834  0.2865  0.5680  0.0304
 6011SOL    HW125148   9.586   8.092   7.800 -0.3710  0.9548 -0.2165
 6011SOL    HW225149   9.704   8.148   7.877 -1.5159 -0.7471  2.9926
 6012SOL     OW25150   0.365  12.925   9.083 -0.7890  0.3137  0.2782
 6012SOL    HW125151   0.340  12.941   9.174 -0.1249  1.6339  0.2556
 6012SOL    HW225152   0.372  13.013   9.045 -0.1896 -0.1923 -0.8136
 6013SOL     OW25153   9.625  11.682   4.343 -0.2194 -0.5601 -0.1357
 6013SOL    HW125154   9.538  11.678   4.303 -0.2410 -2.5585 -0.0242
 6013SOL    HW225155   9.625  11.763   4.392 -2.5198 -1.1051  0.9091
 6014SOL     OW25156  10.819   1.829   8.733  0.4600 -0.3885  0.2911
 6014SOL    HW125157  10.754   1.817   8.664  1.6462 -1.9968 -0.6335
 6014SOL    HW225158  10.775   1.801   8.814  0.3951 -3.0060 -0.5485
 6015SOL     OW25159   9.349  10.942   8.251 -0.2059 -0.2469  0.1763
 6015SOL    HW125160   9.344  11.006   8.180 -1.0154  0.8584  1.1783
 6015SOL    HW225161   9.259  10.910   8.260 -0.3878  0.5770  1.5162
 6016SOL     OW25162   9.697   3.268   1.327 -0.1870  0.0394 -0.1592
 6016SOL    HW125163   9.792   3.266   1.315 -0.1097 -0.7329  0.4937
 6016SOL    HW225164   9.683   3.332   1.397 -0.0213 -0.8101  0.6739
 6017SOL     OW25165   8.257   5.403   6.398 -0.5217  0.3450 -0.6182
 6017SOL    HW125166   8.187   5.343   6.372 -1.0933  0.6140  0.2647
 6017SOL    HW225167   8.297   5.362   6.475 -0.1035  0.4913 -0.7553
 6018SOL     OW25168   8.318   9.361   9.185  0.3047  0.0175 -0.1051
 6018SOL    HW125169   8.374   9.337   9.259  1.4583  0.4979 -0.7797
 6018SOL    HW225170   8.239   9.308   9.196 -0.2307  1.1860  2.2818
 6019SOL     OW25171   0.601   5.098   3.399  0.0000 -0.4544  0.4697
 6019SOL    HW125172   0.505   5.105   3.398  0.0681  0.6475  0.3604
 6019SOL    HW225173   0.619   5.011   3.364 -0.9179  0.3863 -2.3786
 6020SOL     OW25174   8.092   7.542   0.989  0.1046 -0.1989 -0.4365
 6020SOL    HW125175   8.094   7.493   1.071  1.3630 -0.3420 -0.5245
 6020SOL    HW225176   8.183   7.542   0.959 -0.1017  1.0048 -1.1477
 6021SOL     OW25177   0.093   9.542  11.497  0.2077 -0.4498  0.5809
 6021SOL    HW125178   0.024   9.601  11.528 -0.8037 -0.8633 -0.7658
 6021SOL    HW225179   0.054   9.497  11.421  3.0921  1.7801 -2.5171
 6022SOL     OW25180   4.848   3.424  10.108  0.1722  0.6790 -0.2383
 6022SOL    HW125181   4.852   3.519  10.095 -0.7501  0.7768  0.1251
 6022SOL    HW225182   4.766   3.410  10.154  1.0836 -0.1464  1.1843
 6023SOL     OW25183   1.837   4.435  11.878 -0.3979 -0.0999 -0.0646
 6023SOL    HW125184   1.862   4.466  11.791 -0.9485  0.4855 -0.0248
 6023SOL    HW225185   1.754   4.480  11.896  1.1667  2.1954  2.0323
 6024SOL     OW25186   4.836   5.193   0.382 -0.7188 -0.6445  0.2385
 6024SOL    HW125187   4.818   5.265   0.444 -0.7332 -0.7712  0.3813
 6024SOL    HW225188   4.749   5.167   0.351 -0.6488  0.1256 -0.6373
 6025SOL     OW25189   5.724   1.904   6.269 -0.4757 -0.2534  0.1872
 6025SOL    HW125190   5.799   1.955   6.298  0.2595 -1.4204  0.4280
 6025SOL    HW225191   5.744   1.880   6.179 -1.4379  0.9680 -0.3883
 6026SOL     OW25192  10.636   6.218  10.909  0.3792 -0.0765 -0.3916
 6026SOL    HW125193  10.698   6.279  10.869  0.2035  1.6276  1.7602
 6026SOL    HW225194  10.552   6.263  10.903  0.1376 -0.3662  0.6811
 6027SOL     OW25195  12.363   1.073   6.877  0.2288  0.2212 -0.5838
 6027SOL    HW125196  12.374   1.018   6.955  2.5036 -0.8159 -1.5314
 6027SOL    HW225197  12.354   1.162   6.912 -1.0101 -0.4259  0.8954
 6028SOL     OW25198   8.202   1.424   5.220 -0.1464  0.0830  0.6153
 6028SOL    HW125199   8.190   1.445   5.313 -0.2209 -1.0158  0.8604
 6028SOL    HW225200   8.140   1.481   5.175  0.4950  1.2507  1.1594
 6029SOL     OW25201   8.889   0.880   9.330  0.3251 -0.8112  0.3691
 6029SOL    HW125202   8.905   0.787   9.342  2.8892 -0.5474 -0.5323
 6029SOL    HW225203   8.852   0.888   9.243 -0.1055 -0.9873  0.5333
 6030SOL     OW25204   9.207  12.089  12.228 -0.5613  0.8182  0.0562
 6030SOL    HW125205   9.230  12.171  12.273 -1.7635  1.9849 -1.3643
 6030SOL    HW225206   9.151  12.043  12.290  1.5283  0.1820  1.5921
 6031SOL     OW25207   7.172  10.218   8.700 -0.1560 -0.2100 -0.1444
 6031SOL    HW125208   7.262  10.185   8.702 -0.2242 -0.4618 -0.9434
 6031SOL    HW225209   7.179  10.307   8.735  0.1358 -0.7920  1.3669
 6032SOL     OW25210  11.446   4.398   2.467 -0.5388  0.7566 -0.6761
 6032SOL    HW125211  11.535   4.422   2.443 -0.8922  1.0727 -1.7314
 6032SOL    HW225212  11.451   4.377   2.560  1.2715 -2.3387 -1.3317
 6033SOL     OW25213   1.035   7.965  10.118  0.1373  0.4952  0.3965
 6033SOL    HW125214   1.108   8.011  10.160  0.5904  1.2316 -1.1364
 6033SOL    HW225215   0.991   8.032  10.066  0.8079 -0.7135 -1.8986
 6034SOL     OW25216  10.583   5.595   3.367  0.2323  0.1595 -0.1675
 6034SOL    HW125217  10.656   5.628   3.315  1.3889 -1.7161  0.1718
 6034SOL    HW225218  10.589   5.643   3.450  0.1518  1.0729 -0.6779
 6035SOL     OW25219   5.940  11.463   2.635 -0.1197  0.3392  0.1801
 6035SOL    HW125220   6.023  11.449   2.589  0.7673  0.9508  1.5171
 6035SOL    HW225221   5.877  11.410   2.587  1.1906 -0.7026 -0.4625
 6036SOL     OW25222   2.450   5.123   7.012  0.3420 -0.2632 -0.7088
 6036SOL    HW125223   2.501   5.162   7.082 -1.3454 -1.0990  1.1017
 6036SOL    HW225224   2.389   5.191   6.985  0.2709 -0.2784 -0.5878
 6037SOL     OW25225   0.237   9.753   4.405 -0.3092  0.4391  0.8256
 6037SOL    HW125226   0.229   9.808   4.327  0.8377  0.3587  0.6239
 6037SOL    HW225227   0.310   9.694   4.385 -2.3123 -2.0914  0.5127
 6038SOL     OW25228   6.705  11.640   1.133  0.6568  0.1797  0.2090
 6038SOL    HW125229   6.740  11.551   1.129 -2.3644 -1.1367  0.6704
 6038SOL    HW225230   6.647  11.647   1.057 -2.5393  0.0925  2.4430
 6039SOL     OW25231  12.709  12.086  11.837 -0.3644  0.0244  0.3206
 6039SOL    HW125232  12.723  12.148  11.908  1.1386  0.0203  0.0640
 6039SOL    HW225233  12.787  12.029  11.839  1.1964  1.7444 -3.0384
 6040SOL     OW25234   7.749   6.232   0.082 -1.0484 -0.1431 -0.3302
 6040SOL    HW125235   7.796   6.250   0.000 -0.4877  0.3124  0.0858
 6040SOL    HW225236   7.670   6.284   0.076 -1.8825 -1.4498 -1.3519
 6041SOL     OW25237   5.367   1.288   9.706  0.1209  0.2128  0.1792
 6041SOL    HW125238   5.327   1.202   9.695 -0.1646  0.4472 -0.6805
 6041SOL    HW225239   5.388   1.293   9.799 -1.1853 -0.2122  0.5137
 6042SOL     OW25240   7.142   8.289   9.060 -0.2739  0.1272  0.0413
 6042SOL    HW125241   7.118   8.233   9.133 -0.8982  1.7768  1.1751
 6042SOL    HW225242   7.181   8.230   8.996  0.3576 -1.3649  1.7202
 6043SOL     OW25243   6.729   0.335   5.027  0.2263 -0.1871 -0.0812
 6043SOL    HW125244   6.670   0.386   5.083 -0.8067 -0.1924 -1.1277
 6043SOL    HW225245   6.796   0.398   4.999 -0.8239  0.5450 -1.0487
 6044SOL     OW25246   0.362   7.341   2.052  0.1565 -0.0512 -0.5591
 6044SOL    HW125247   0.351   7.422   2.102  0.8788  0.1034 -0.6542
 6044SOL    HW225248   0.454   7.318   2.063 -0.2593 -1.4452  0.3576
 6045SOL     OW25249   4.720   1.875   9.085  0.3617 -0.6787 -0.3898
 6045SOL    HW125250   4.748   1.907   9.000 -2.4392 -2.3641 -2.1228
 6045SOL    HW225251   4.779   1.803   9.105  3.1387  1.7079  0.8683
 6046SOL     OW25252   0.649   4.404  11.760  0.1853  0.5845 -0.0053
 6046SOL    HW125253   0.674   4.465  11.830  1.0198 -0.7191  0.8838
 6046SOL    HW225254   0.554   4.412  11.754  0.1820  1.2780  0.7658
 6047SOL     OW25255  12.854   2.047   1.487 -0.1202  0.1868 -0.2188
 6047SOL    HW125256  12.899   2.126   1.456  2.3367 -0.7585  0.7600
 6047SOL    HW225257  12.788   2.080   1.548 -0.6064  1.5899 -1.4319
 6048SOL     OW25258   3.605   4.666  11.626 -0.3616  0.0021  0.1700
 6048SOL    HW125259   3.583   4.693  11.537  0.6294 -0.0471 -0.1031
 6048SOL    HW225260   3.700   4.677  11.631 -0.5301  1.1654  1.6054
 6049SOL     OW25261   2.656   4.794   3.350 -0.2427  0.4900  0.2483
 6049SOL    HW125262   2.599   4.730   3.306 -0.7038  1.6214 -0.8513
 6049SOL    HW225263   2.678   4.856   3.282  1.7183  0.5025  0.8552
 6050SOL     OW25264   8.754   0.309   6.096  0.0430 -0.1509 -0.1477
 6050SOL    HW125265   8.696   0.262   6.156 -0.9402  0.4505 -0.5959
 6050SOL    HW225266   8.840   0.270   6.110 -0.2748 -0.4042  1.2404
 6051SOL     OW25267   1.398   1.801   7.628 -0.4843 -0.2469 -0.8576
 6051SOL    HW125268   1.308   1.817   7.598 -1.1380 -1.3351  0.3957
 6051SOL    HW225269   1.408   1.706   7.622 -0.2709 -0.4110  1.1839
 6052SOL     OW25270   4.099   3.877  10.137  0.1396  0.5538 -0.4951
 6052SOL    HW125271   4.086   3.786  10.110 -1.5156 -0.9042  4.2295
 6052SOL    HW225272   4.051   3.928  10.071 -2.4888 -2.3909 -1.1039
 6053SOL     OW25273   0.474   6.478  11.753 -0.1334  0.1187  0.6580
 6053SOL    HW125274   0.526   6.417  11.700 -1.0322 -0.3190  0.2731
 6053SOL    HW225275   0.514   6.474  11.839  1.0728  0.5056  0.1468
 6054SOL     OW25276   5.010   3.135  12.640  0.0758  0.1406  0.2852
 6054SOL    HW125277   5.010   3.113  12.546  1.9874 -0.0481  0.2749
 6054SOL    HW225278   4.926   3.177  12.655 -1.4608 -2.2648 -0.9208
 6055SOL     OW25279   0.903   7.627   2.958  0.0771  0.0697 -0.3462
 6055SOL    HW125280   0.986   7.672   2.977 -0.3421  1.4485 -1.6007
 6055SOL    HW225281   0.842   7.661   3.024 -0.1241  1.0685 -1.0187
 6056SOL     OW25282   0.736   6.654   3.598  0.4756  0.3834 -0.1340
 6056SOL    HW125283   0.723   6.742   3.564 -1.4524  0.4278  0.5889
 6056SOL    HW225284   0.776   6.667   3.684  0.7672  0.5180 -0.2902
 6057SOL     OW25285   9.250  11.868   2.448 -0.4812  0.4748 -0.0177
 6057SOL    HW125286   9.336  11.827   2.463 -0.7626  0.1888  0.8533
 6057SOL    HW225287   9.258  11.908   2.362  0.2689 -0.2237 -0.2872
 6058SOL     OW25288   8.489   5.589   7.649  0.3450 -0.0053  0.3363
 6058SOL    HW125289   8.552   5.658   7.628 -0.5514  0.9814  0.7804
 6058SOL    HW225290   8.530   5.539   7.720  2.0144 -1.4096 -1.5069
 6059SOL     OW25291  11.244   9.882   5.649  0.1531  0.2191  0.7323
 6059SOL    HW125292  11.324   9.935   5.656  0.7734 -0.6723  0.6240
 6059SOL    HW225293  11.243   9.852   5.558  0.9455 -1.6428  1.2921
 6060SOL     OW25294   4.955   1.667  12.228  0.1901  0.0993 -0.3999
 6060SOL    HW125295   5.050   1.667  12.217  0.2680  0.9134  0.1643
 6060SOL    HW225296   4.941   1.646  12.320 -0.2864 -2.2303 -0.9312
 6061SOL     OW25297   6.626   7.363   2.022  0.2835  0.2817  0.2618
 6061SOL    HW125298   6.530   7.364   2.024  0.2822 -0.4144  1.3279
 6061SOL    HW225299   6.647   7.298   1.955  0.0776  2.7544 -2.4096
 6062SOL     OW25300   4.977   8.142  12.199  0.6977 -0.2244 -0.0727
 6062SOL    HW125301   4.994   8.060  12.152 -0.5093 -0.5766  0.0895
 6062SOL    HW225302   5.042   8.142  12.270  0.6893 -1.0513 -0.0518
 6063SOL     OW25303  12.468   8.179   4.638  0.6431  0.2979 -0.1048
 6063SOL    HW125304  12.542   8.158   4.695  1.3728 -0.0030 -1.1336
 6063SOL    HW225305  12.446   8.269   4.659 -0.0502 -0.2488  1.6720
 6064SOL     OW25306  12.357   4.996   5.507 -0.1215  0.1884 -0.2739
 6064SOL    HW125307  12.348   5.088   5.531  1.2338  0.2388  0.1218
 6064SOL    HW225308  12.432   4.965   5.559 -0.3358 -1.0379 -0.6709
 6065SOL     OW25309  10.803   5.238   4.848  0.2503 -0.1774  0.4144
 6065SOL    HW125310  10.851   5.206   4.772  1.1317 -0.4113  1.0619
 6065SOL    HW225311  10.863   5.228   4.921 -1.1571 -1.5799  1.4684
 6066SOL     OW25312  10.073   6.185   7.194 -0.3023 -0.2135  0.8075
 6066SOL    HW125313  10.156   6.216   7.158  0.1688 -0.9273  1.2877
 6066SOL    HW225314  10.007   6.225   7.137  0.4433 -2.2503 -1.6697
 6067SOL     OW25315   6.439   4.054   8.536  0.0523  0.1690 -0.3835
 6067SOL    HW125316   6.477   4.122   8.480  1.0370  0.5473  0.7158
 6067SOL    HW225317   6.514   4.007   8.572 -0.4767  0.6443  1.4720
 6068SOL     OW25318   9.614   4.112   1.553 -0.3082 -0.9497  0.0487
 6068SOL    HW125319   9.653   4.033   1.517 -0.3058 -1.1663  0.5285
 6068SOL    HW225320   9.679   4.181   1.536 -0.3892 -1.0056 -0.5321
 6069SOL     OW25321  12.010  12.133  10.473 -0.4590 -0.2248 -0.3421
 6069SOL    HW125322  12.049  12.206  10.520  0.6590  0.1872 -1.8302
 6069SOL    HW225323  12.052  12.134  10.387 -1.4622 -1.7445 -0.9044
 6070SOL     OW25324   9.304  12.631  10.558  0.3619 -0.1074  1.1730
 6070SOL    HW125325   9.389  12.660  10.592 -0.0189 -0.3587  2.3715
 6070SOL    HW225326   9.299  12.538  10.582  0.4866 -0.5778 -0.4340
 6071SOL     OW25327   5.686   2.228   1.863 -0.4975  0.2101  0.1148
 6071SOL    HW125328   5.768   2.277   1.864  0.5181 -1.4143 -0.1289
 6071SOL    HW225329   5.697   2.165   1.792 -2.0237  0.0354  0.0069
 6072SOL     OW25330   9.336   0.629  11.873  0.7104 -0.5461  0.2576
 6072SOL    HW125331   9.393   0.697  11.837  0.0151 -0.5287 -0.8778
 6072SOL    HW225332   9.256   0.676  11.899 -0.4973 -1.1009 -2.1873
 6073SOL     OW25333   5.547   7.997  11.956 -0.1042 -0.0543  0.6377
 6073SOL    HW125334   5.531   7.909  11.988 -0.9916 -0.2067 -0.1663
 6073SOL    HW225335   5.640   8.011  11.969  0.0966 -1.2052  0.5330
 6074SOL     OW25336  10.295  11.532  12.421  0.4416  0.0388 -0.1044
 6074SOL    HW125337  10.366  11.512  12.360  0.3496  0.7349 -0.4439
 6074SOL    HW225338  10.246  11.602  12.379 -0.7421 -0.7520 -0.1040
 6075SOL     OW25339   6.308   5.782   1.626 -0.8960 -0.2874  0.0059
 6075SOL    HW125340   6.380   5.843   1.640 -1.0292 -0.4211  1.5242
 6075SOL    HW225341   6.315   5.755   1.535 -0.5368  1.6100 -0.5534
 6076SOL     OW25342   8.065   5.713   9.038 -0.2766 -0.2010  0.1484
 6076SOL    HW125343   8.109   5.700   8.954  0.3449 -1.2716  0.6248
 6076SOL    HW225344   8.100   5.644   9.094 -0.9234  0.3067  1.1965
 6077SOL     OW25345   1.479   0.216   9.850 -0.4872 -0.1611  0.1129
 6077SOL    HW125346   1.497   0.304   9.884 -0.8387  0.1016 -0.3790
 6077SOL    HW225347   1.385   0.206   9.859 -0.5890 -0.0827 -0.8012
 6078SOL     OW25348   8.254   1.686   6.704 -0.5176 -0.2909 -0.0003
 6078SOL    HW125349   8.346   1.668   6.721 -0.2077 -0.8653 -2.0434
 6078SOL    HW225350   8.212   1.678   6.790  1.3565  0.3433  1.0457
 6079SOL     OW25351   0.200   1.412  10.495 -0.1001 -0.2320 -0.0164
 6079SOL    HW125352   0.276   1.450  10.451 -1.0050 -1.4824 -2.8863
 6079SOL    HW225353   0.234   1.335  10.540  0.3031 -1.2611 -1.9620
 6080SOL     OW25354   4.196   1.205   8.918  0.5481  0.3558 -0.0596
 6080SOL    HW125355   4.114   1.233   8.879 -0.1905 -0.0063  1.1824
 6080SOL    HW225356   4.208   1.115   8.888  1.0494  0.7428 -1.0821
 6081SOL     OW25357   7.027   0.002   7.109 -0.3214  0.2359  0.2332
 6081SOL    HW125358   6.983  -0.061   7.051  0.8596  0.2405 -0.7072
 6081SOL    HW225359   6.962   0.070   7.124 -0.9229 -0.1749 -0.4420
 6082SOL     OW25360   0.638   6.942  12.962 -0.0625 -0.2861 -0.3375
 6082SOL    HW125361   0.600   6.865  12.919 -1.7011  0.3209 -0.0410
 6082SOL    HW225362   0.685   6.906  13.037 -3.2260 -0.9083  1.5350
 6083SOL     OW25363   3.226  10.117   4.554 -0.5161  0.1405  0.4245
 6083SOL    HW125364   3.164  10.184   4.526 -1.0661 -1.6709 -3.2816
 6083SOL    HW225365   3.309  10.143   4.515 -0.4026 -0.6192  0.1458
 6084SOL     OW25366   0.186   1.744  12.071  0.1953  1.1352 -0.0073
 6084SOL    HW125367   0.193   1.672  12.008 -1.4014  1.6251 -0.8124
 6084SOL    HW225368   0.231   1.712  12.149 -0.9657 -1.0138 -0.1228
 6085SOL     OW25369   1.032   0.060   4.430  0.5330 -0.4070  0.0005
 6085SOL    HW125370   1.123   0.064   4.401  0.8078  0.1541  0.9148
 6085SOL    HW225371   1.036   0.026   4.519 -0.1809 -0.6788 -0.0627
 6086SOL     OW25372   4.686   7.110   0.003  0.4219  0.1192 -0.1355
 6086SOL    HW125373   4.682   7.172  -0.070 -0.5186  1.0914  0.7009
 6086SOL    HW225374   4.766   7.135   0.051 -0.7718  1.8145  1.1034
 6087SOL     OW25375   3.011   0.528   7.057  0.0720 -0.2891 -0.1190
 6087SOL    HW125376   2.952   0.471   7.008 -1.0049  0.1656  0.5986
 6087SOL    HW225377   2.983   0.519   7.148 -0.3992  1.6230 -0.0101
 6088SOL     OW25378  10.211   3.523   1.694 -0.4391  0.2924 -0.7631
 6088SOL    HW125379  10.186   3.430   1.689 -2.1283  0.7218 -0.8404
 6088SOL    HW225380  10.263   3.529   1.774 -0.4803 -0.6860 -0.6481
 6089SOL     OW25381   9.419  12.498   5.511  0.6306  0.2886 -0.4568
 6089SOL    HW125382   9.438  12.538   5.596  2.8125 -0.5031 -0.5031
 6089SOL    HW225383   9.505  12.490   5.469 -0.4269  1.1568 -2.9947
 6090SOL     OW25384   3.223   0.595   0.711 -0.3759  0.2682  0.3897
 6090SOL    HW125385   3.211   0.502   0.732 -0.7068  0.6272  1.8425
 6090SOL    HW225386   3.240   0.595   0.616 -1.5791 -1.1677  0.1300
 6091SOL     OW25387   9.962   3.622   1.184 -0.0804  0.3420  0.2577
 6091SOL    HW125388   9.891   3.686   1.195 -0.5042  0.1274 -1.1202
 6091SOL    HW225389  10.042   3.672   1.196 -0.4395  0.5772  1.9083
 6092SOL     OW25390   8.364   1.020   2.367 -0.1807  0.1566 -0.0397
 6092SOL    HW125391   8.346   1.114   2.380  1.4979  0.3417  1.3007
 6092SOL    HW225392   8.385   0.988   2.455  1.4045 -0.9872 -0.8106
 6093SOL     OW25393   6.570   3.376   4.651 -0.4287 -0.2727 -0.0066
 6093SOL    HW125394   6.543   3.430   4.725 -0.7465 -0.8117  0.2783
 6093SOL    HW225395   6.605   3.438   4.587 -2.4241  0.4821 -0.4398
 6094SOL     OW25396   8.409   6.463   1.394  0.5159 -0.1877 -0.2853
 6094SOL    HW125397   8.497   6.493   1.417 -0.4031  2.9719 -0.4903
 6094SOL    HW225398   8.410   6.456   1.299  0.2457  1.0182 -0.3885
 6095SOL     OW25399   9.640   3.154   2.925 -0.2086  0.1911 -0.1538
 6095SOL    HW125400   9.648   3.144   2.830 -3.7869  3.3317 -1.0551
 6095SOL    HW225401   9.730   3.166   2.955  1.1205 -1.5496 -2.9999
 6096SOL     OW25402   9.313   8.686   2.606 -0.8021 -0.7127  0.0328
 6096SOL    HW125403   9.365   8.607   2.596  1.2118  0.3748  1.2469
 6096SOL    HW225404   9.274   8.700   2.520  0.3650 -1.9645 -0.7423
 6097SOL     OW25405   2.437   4.862   5.437 -0.6211 -0.0867  0.2339
 6097SOL    HW125406   2.392   4.779   5.425 -0.6069 -0.0953  0.2393
 6097SOL    HW225407   2.438   4.902   5.350  1.6633 -1.2395 -0.3636
 6098SOL     OW25408   3.779   3.118   6.968 -0.2312 -0.1776 -0.3514
 6098SOL    HW125409   3.791   3.106   7.062  0.0370 -1.3868 -0.5275
 6098SOL    HW225410   3.786   3.030   6.931  0.8209  0.4088 -1.6318
 6099SOL     OW25411   2.783   5.264   4.591  0.5464  0.4448 -0.2607
 6099SOL    HW125412   2.800   5.343   4.642  0.6851 -0.1654  0.6671
 6099SOL    HW225413   2.692   5.242   4.611  1.2396 -1.0411  1.5440
 6100SOL     OW25414   0.795  11.617  12.633 -0.2634 -0.1475 -0.2174
 6100SOL    HW125415   0.783  11.645  12.724  0.3854 -0.6704  0.0374
 6100SOL    HW225416   0.853  11.683  12.596 -0.9759  0.3742 -0.4149
 6101SOL     OW25417  11.723   6.681   5.463  0.1930 -0.1084  0.3229
 6101SOL    HW125418  11.741   6.638   5.547  1.0981  0.2833  0.3375
 6101SOL    HW225419  11.717   6.608   5.401 -1.1708 -0.4527  0.8273
 6102SOL     OW25420  12.162   4.490   5.115  1.4457  0.5721 -0.0323
 6102SOL    HW125421  12.207   4.406   5.109 -0.7274 -0.7723  1.2624
 6102SOL    HW225422  12.231   4.552   5.139  2.8671 -1.1014  0.4253
 6103SOL     OW25423   8.155   8.059   4.757 -0.7412  0.5907  0.2527
 6103SOL    HW125424   8.144   7.964   4.753  1.7332  0.2027  1.0341
 6103SOL    HW225425   8.148   8.087   4.665 -3.1853 -0.0573  0.1827
 6104SOL     OW25426   0.077   8.532  12.747  0.1400 -0.1939 -0.5216
 6104SOL    HW125427   0.063   8.485  12.665  0.5152  0.1742 -0.8066
 6104SOL    HW225428   0.058   8.469  12.816  0.1478 -0.6055 -0.8983
 6105SOL     OW25429   7.598   5.699   5.915 -0.6114 -0.6156 -0.5301
 6105SOL    HW125430   7.594   5.756   5.839 -0.9135 -0.4180 -0.3712
 6105SOL    HW225431   7.513   5.655   5.916 -1.2678  0.5967  0.6122
 6106SOL     OW25432   4.596   8.397   1.805  0.0092 -0.1384  0.5062
 6106SOL    HW125433   4.580   8.367   1.715 -0.1235 -0.8019  0.7468
 6106SOL    HW225434   4.514   8.379   1.851  0.3673 -0.6052  0.9685
 6107SOL     OW25435   1.918   4.447  10.373  0.2385 -0.4074  0.1028
 6107SOL    HW125436   1.898   4.377  10.310 -1.2543 -0.2991  0.4223
 6107SOL    HW225437   1.897   4.527  10.326  1.1034 -0.2033  0.0460
 6108SOL     OW25438   7.544   9.762   1.525  0.0056 -0.5221 -0.6395
 6108SOL    HW125439   7.600   9.825   1.570 -1.0380  1.2819 -1.7090
 6108SOL    HW225440   7.569   9.771   1.432  0.9286 -2.8862 -0.6826
 6109SOL     OW25441  11.316   3.977   9.395 -0.0119  0.1347 -0.2155
 6109SOL    HW125442  11.228   3.977   9.357 -0.5966  0.4032  1.0642
 6109SOL    HW225443  11.375   3.979   9.320 -1.0997  0.4541 -1.0919
 6110SOL     OW25444  10.328   7.167   5.695 -0.1315 -0.0682  0.2442
 6110SOL    HW125445  10.317   7.072   5.692  1.8832 -0.3385  0.0898
 6110SOL    HW225446  10.327   7.194   5.603  2.7570 -0.4693 -0.0026
 6111SOL     OW25447   1.387   7.433  10.059 -0.1740  0.0323 -0.3719
 6111SOL    HW125448   1.428   7.507  10.014 -1.6238  0.4974 -0.9849
 6111SOL    HW225449   1.293   7.444  10.044 -0.5917 -0.7501  1.3419
 6112SOL     OW25450  12.891   4.226   9.512 -0.0052 -0.2792 -0.0292
 6112SOL    HW125451  12.978   4.186   9.505  0.0382 -0.1265 -0.3791
 6112SOL    HW225452  12.873   4.259   9.424  0.1725  0.9113  0.3687
 6113SOL     OW25453   9.489   0.414   0.694  0.3294  0.4005 -0.0703
 6113SOL    HW125454   9.468   0.321   0.696  0.8274  0.2597 -0.8517
 6113SOL    HW225455   9.411   0.458   0.727  0.2478 -0.3169  0.7019
 6114SOL     OW25456   7.477   7.340   9.170 -0.2468 -0.5319 -0.2987
 6114SOL    HW125457   7.526   7.331   9.089  0.9738 -0.5931  0.4210
 6114SOL    HW225458   7.540   7.318   9.239 -1.0168  0.2952  0.7125
 6115SOL     OW25459  11.473   1.064   4.200  0.2683 -0.1426 -0.0848
 6115SOL    HW125460  11.394   1.064   4.147  0.5410 -0.6388 -0.5003
 6115SOL    HW225461  11.540   1.024   4.144  0.6961 -0.1692  0.4326
 6116SOL     OW25462   6.141   2.473   8.671  0.4399  0.8031  0.4624
 6116SOL    HW125463   6.118   2.537   8.603  1.6885  1.7134  0.8653
 6116SOL    HW225464   6.179   2.399   8.622 -0.9835  0.3525 -0.0014
 6117SOL     OW25465   3.664   9.585   7.478  0.0512  0.3599 -0.4311
 6117SOL    HW125466   3.604   9.529   7.528 -0.2937  0.6790 -0.4827
 6117SOL    HW225467   3.725   9.619   7.543  0.5397 -0.4264 -0.4677
 6118SOL     OW25468   9.377  11.878   8.031  0.5817 -0.3651  0.4132
 6118SOL    HW125469   9.342  11.893   8.119  1.6170 -1.2452  0.9988
 6118SOL    HW225470   9.454  11.935   8.026 -0.3788  0.9243 -0.5562
 6119SOL     OW25471   4.231   0.443   6.312  0.8412  0.4251 -0.1388
 6119SOL    HW125472   4.283   0.477   6.240  1.8727 -0.8045 -0.0200
 6119SOL    HW225473   4.214   0.351   6.288 -1.5559  0.8489 -0.3139
 6120SOL     OW25474   4.332   0.230  11.442 -0.4021 -0.1504  0.1056
 6120SOL    HW125475   4.253   0.190  11.478 -1.1563  0.3286 -0.9853
 6120SOL    HW225476   4.309   0.252  11.352  1.3570 -1.1041 -0.6298
 6121SOL     OW25477   8.137   1.961   5.934  0.1903  0.1289 -0.0148
 6121SOL    HW125478   8.186   2.043   5.942  1.3332 -0.5112 -0.1200
 6121SOL    HW225479   8.098   1.947   6.020  3.2897 -1.1865  1.3290
 6122SOL     OW25480   4.331   0.088   3.084  0.1302 -0.4486 -0.4792
 6122SOL    HW125481   4.302   0.109   3.173  2.1901 -0.5411  0.2699
 6122SOL    HW225482   4.316   0.169   3.034  0.8120  0.3000  0.4784
 6123SOL     OW25483   9.561   2.994   9.452 -0.7146  0.8139 -0.6583
 6123SOL    HW125484   9.557   3.078   9.406 -0.0159  0.6380 -1.0633
 6123SOL    HW225485   9.555   2.928   9.383  1.2654  0.5428 -0.6535
 6124SOL     OW25486   5.157  11.543   7.496 -0.0889  0.5368  0.4391
 6124SOL    HW125487   5.246  11.522   7.466 -0.0718 -0.1063  0.9012
 6124SOL    HW225488   5.146  11.489   7.575 -1.0052  0.3811  0.2092
 6125SOL     OW25489   2.955   9.558  10.948  0.3573  0.0636 -0.5109
 6125SOL    HW125490   2.914   9.491  11.003  1.3974 -0.8922 -0.8510
 6125SOL    HW225491   3.038   9.576  10.992  0.3800  0.6436 -0.7939
 6126SOL     OW25492  10.174   5.112   1.536  0.4893  0.2130 -0.0965
 6126SOL    HW125493  10.232   5.129   1.462 -0.4999  1.0798 -0.6864
 6126SOL    HW225494  10.197   5.178   1.601  0.0481  0.6623 -0.3974
 6127SOL     OW25495   8.841   5.680   1.884 -0.4711  0.2688 -0.0797
 6127SOL    HW125496   8.824   5.771   1.857 -1.2445  0.2241  0.2299
 6127SOL    HW225497   8.916   5.653   1.831  0.8797  1.6505  1.0308
 6128SOL     OW25498   8.100   5.022   5.986 -0.3073 -0.0997 -0.5174
 6128SOL    HW125499   8.032   5.029   5.919 -1.8201 -1.1462  0.8318
 6128SOL    HW225500   8.145   4.940   5.966  0.1839  0.2943 -1.0592
 6129SOL     OW25501  12.347   1.463  11.388  0.0858 -0.0817 -0.1849
 6129SOL    HW125502  12.331   1.371  11.407 -0.1438 -0.2571 -1.1919
 6129SOL    HW225503  12.442   1.473  11.399  0.3948 -0.8765 -1.8077
 6130SOL     OW25504   6.519   1.726   7.090  0.4275  0.5369 -0.0607
 6130SOL    HW125505   6.481   1.664   7.027 -3.6179  1.5234  1.0935
 6130SOL    HW225506   6.543   1.802   7.038  0.8870 -0.1470 -0.8702
 6131SOL     OW25507   2.964   2.239  11.379  0.8784  0.5728 -0.1411
 6131SOL    HW125508   2.951   2.273  11.467 -0.4801 -1.0157  0.3364
 6131SOL    HW225509   2.890   2.273  11.329 -0.4674 -1.4290  0.3289
 6132SOL     OW25510  11.305   8.489   1.147 -0.0570 -0.2886  0.0161
 6132SOL    HW125511  11.396   8.483   1.118 -0.6927 -0.3570 -2.1628
 6132SOL    HW225512  11.266   8.406   1.118 -1.2002  0.4474 -0.5850
 6133SOL     OW25513  10.033  10.849   2.864 -0.3311  0.1175 -0.2443
 6133SOL    HW125514  10.122  10.874   2.841  0.1201 -0.4604  0.7788
 6133SOL    HW225515  10.022  10.762   2.824 -0.0434 -0.2718  0.4936
 6134SOL     OW25516   6.218   7.552   6.723 -0.1667  0.0831 -0.1971
 6134SOL    HW125517   6.229   7.573   6.816 -0.8183 -0.0547 -0.0847
 6134SOL    HW225518   6.298   7.584   6.682  0.3031 -0.2005  0.4684
 6135SOL     OW25519  12.790  10.797   8.085  0.0141  0.4462 -0.0525
 6135SOL    HW125520  12.874  10.803   8.132 -0.1832 -2.7243  0.9074
 6135SOL    HW225521  12.815  10.784   7.994  0.6014 -0.6545  0.2516
 6136SOL     OW25522  10.858   0.852   9.791  0.6725  0.1720 -1.0146
 6136SOL    HW125523  10.802   0.929   9.794  0.3783 -0.0122 -1.6969
 6136SOL    HW225524  10.825   0.796   9.862 -0.7467 -0.4312 -2.1195
 6137SOL     OW25525   9.348   9.011  10.664  0.5091  0.2314 -0.4036
 6137SOL    HW125526   9.396   9.093  10.676  1.8633 -0.1374 -2.7118
 6137SOL    HW225527   9.400   8.962  10.600 -2.1221 -0.9215 -1.7846
 6138SOL     OW25528   7.013   5.584   0.699 -0.3200  0.6151 -0.0219
 6138SOL    HW125529   6.939   5.573   0.759 -1.3722  1.2769 -1.1490
 6138SOL    HW225530   6.973   5.588   0.612  0.9933  1.5411 -0.6128
 6139SOL     OW25531   3.321  11.364   0.473 -0.4643  0.3745 -0.2933
 6139SOL    HW125532   3.257  11.338   0.538  1.3767 -0.1065  1.4166
 6139SOL    HW225533   3.328  11.288   0.414 -1.9009  0.6932 -0.9112
 6140SOL     OW25534   2.591   3.479   0.705 -1.0781 -0.3353  0.0593
 6140SOL    HW125535   2.672   3.504   0.660 -1.1650 -1.7533 -0.9439
 6140SOL    HW225536   2.597   3.522   0.791 -0.0829  0.9818 -0.6267
 6141SOL     OW25537   1.780  10.110  11.756 -0.0430 -0.7946  0.0181
 6141SOL    HW125538   1.852  10.170  11.740 -1.3759  0.7575 -0.3860
 6141SOL    HW225539   1.821  10.033  11.796  2.2913 -1.3870 -3.1482
 6142SOL     OW25540  10.459   9.539   1.463 -0.3452 -0.3986  0.0371
 6142SOL    HW125541  10.547   9.564   1.435 -0.1725  1.2874  1.8134
 6142SOL    HW225542  10.415   9.622   1.479 -1.9642 -1.2293  0.0901
 6143SOL     OW25543   3.094  12.665   5.507  0.4362  0.6776 -0.1973
 6143SOL    HW125544   3.182  12.700   5.523  0.7099  0.3111 -0.8797
 6143SOL    HW225545   3.035  12.729   5.548  1.0777 -0.3814  2.6004
 6144SOL     OW25546   2.574   1.313  10.567 -0.4979 -0.8753  0.0653
 6144SOL    HW125547   2.532   1.238  10.526 -0.7730  0.2147 -1.7695
 6144SOL    HW225548   2.666   1.308  10.539 -0.9609  0.6191 -1.9899
 6145SOL     OW25549  10.181   9.161  11.822 -0.1225 -0.0636 -0.2436
 6145SOL    HW125550  10.204   9.131  11.734 -1.1275  0.3872 -0.6774
 6145SOL    HW225551  10.134   9.087  11.861 -0.4994  0.0691 -0.4372
 6146SOL     OW25552  12.061  10.414   7.157 -0.1010  0.3302  0.2187
 6146SOL    HW125553  11.990  10.439   7.216  0.1017  0.9904  0.1910
 6146SOL    HW225554  12.030  10.440   7.070 -0.8436 -1.5838 -0.1255
 6147SOL     OW25555   5.734   9.060   8.037 -0.0780  0.7239 -0.2018
 6147SOL    HW125556   5.673   8.987   8.020 -0.6371  1.6438 -2.3841
 6147SOL    HW225557   5.705   9.094   8.122 -1.5934  0.1302 -0.4343
 6148SOL     OW25558   3.604   9.998   7.022 -0.3440  0.2516 -0.2107
 6148SOL    HW125559   3.616   9.930   7.089 -1.9290  0.2830  0.1466
 6148SOL    HW225560   3.511  10.019   7.026 -0.2571  1.0312 -1.7054
 6149SOL     OW25561   4.107   7.382   4.147  0.0443 -0.3356 -0.2401
 6149SOL    HW125562   4.114   7.422   4.234 -0.3460 -1.7085  0.4593
 6149SOL    HW225563   4.027   7.330   4.151  0.9633 -1.8488 -0.8132
 6150SOL     OW25564  10.620   7.339   6.010  0.2784  0.2051 -0.3540
 6150SOL    HW125565  10.690   7.315   6.071  0.7964  0.9472 -0.6375
 6150SOL    HW225566  10.643   7.428   5.982 -1.5310  1.0663  0.6666
 6151SOL     OW25567   1.759   9.396   6.713  0.2415 -0.1087 -0.0539
 6151SOL    HW125568   1.700   9.323   6.693 -1.8883  0.9448  1.9010
 6151SOL    HW225569   1.711   9.474   6.685  1.6104  0.6967 -0.2607
 6152SOL     OW25570   3.845   7.264   1.078  0.3471 -0.0879 -0.2601
 6152SOL    HW125571   3.848   7.172   1.052 -1.0290 -0.4084  0.6359
 6152SOL    HW225572   3.928   7.300   1.045  0.6310 -1.4791 -1.1783
 6153SOL     OW25573   4.397   7.363   8.201 -0.7057 -0.2550  0.1535
 6153SOL    HW125574   4.307   7.331   8.209 -0.6202 -0.6957 -0.5592
 6153SOL    HW225575   4.432   7.317   8.125 -0.9642  2.4333 -1.7471
 6154SOL     OW25576   8.378   8.464   8.070 -0.0602 -0.0625 -0.3315
 6154SOL    HW125577   8.345   8.545   8.031 -0.8678 -0.0922  0.2504
 6154SOL    HW225578   8.322   8.395   8.033  1.1220 -0.4628 -1.4243
 6155SOL     OW25579   1.038   6.545   0.644 -0.5319 -0.0453 -0.0106
 6155SOL    HW125580   1.078   6.524   0.728 -1.6828  0.3754  0.6615
 6155SOL    HW225581   1.009   6.460   0.609  0.1510 -0.2460 -0.1008
 6156SOL     OW25582   2.198  11.408   7.342  0.4544 -0.3171  0.6571
 6156SOL    HW125583   2.141  11.352   7.394 -0.1480 -0.9245 -0.6091
 6156SOL    HW225584   2.159  11.407   7.255  0.3813  2.1380  0.5991
 6157SOL     OW25585   6.381   3.684   5.265  0.4436  0.0541  0.1233
 6157SOL    HW125586   6.405   3.696   5.357 -0.0125 -1.3253  0.4454
 6157SOL    HW225587   6.313   3.617   5.266 -0.3162  0.7589 -1.1459
 6158SOL     OW25588   3.306   0.364   5.061 -0.0796  0.2472 -0.6942
 6158SOL    HW125589   3.235   0.422   5.033  0.0528  1.2863  0.9964
 6158SOL    HW225590   3.375   0.423   5.090  1.9996 -0.6867 -3.2554
 6159SOL     OW25591   5.437   0.810   2.057 -0.0867 -0.0451  0.1801
 6159SOL    HW125592   5.410   0.901   2.052  0.0923 -0.0436 -1.0746
 6159SOL    HW225593   5.383   0.765   1.991  1.6319 -0.3651 -1.0618
 6160SOL     OW25594  11.689   8.585   4.485  0.0259 -0.2193  0.1036
 6160SOL    HW125595  11.770   8.550   4.523  0.0155  0.9685  1.3139
 6160SOL    HW225596  11.702   8.578   4.391  2.0274  0.9213  0.2191
 6161SOL     OW25597   2.477   8.113   1.542 -0.2263 -0.1864 -0.4860
 6161SOL    HW125598   2.535   8.037   1.542 -0.4536 -0.3899 -2.3305
 6161SOL    HW225599   2.521   8.177   1.598  1.4130 -0.5937 -1.2657
 6162SOL     OW25600   8.912  10.550   0.078  0.0209  0.6147 -0.4216
 6162SOL    HW125601   8.899  10.628   0.024  0.3224  0.0142 -1.3846
 6162SOL    HW225602   8.985  10.504   0.036  1.2977  0.8880  1.3761
 6163SOL     OW25603   9.501   3.374  10.194 -0.3785 -0.1097  0.2432
 6163SOL    HW125604   9.580   3.401  10.145 -0.0692 -0.8822  0.3067
 6163SOL    HW225605   9.481   3.449  10.249  0.3623  0.0706  0.2810
 6164SOL     OW25606   1.084  11.330   4.138  0.7285  0.5577 -0.2590
 6164SOL    HW125607   1.109  11.389   4.067  0.8308 -0.7641 -1.3543
 6164SOL    HW225608   0.991  11.314   4.125  0.2127  2.0465  1.2570
 6165SOL     OW25609   2.682  10.830   3.822  0.2436  0.0442 -0.3346
 6165SOL    HW125610   2.763  10.850   3.869  0.3895  0.3911 -0.7327
 6165SOL    HW225611   2.627  10.787   3.888  0.7134 -0.1144 -0.0370
 6166SOL     OW25612   3.566   0.048   9.301  0.0208  0.1381  0.1829
 6166SOL    HW125613   3.599  -0.025   9.353 -0.2459 -0.0315  0.1199
 6166SOL    HW225614   3.641   0.105   9.288 -0.1260  0.7283  1.6692
 6167SOL     OW25615  10.907   4.733   7.969 -0.5500 -0.3618 -0.1748
 6167SOL    HW125616  10.953   4.767   8.046 -0.6944 -1.7612  0.5504
 6167SOL    HW225617  10.829   4.690   8.004 -0.8370 -0.6541 -1.1423
 6168SOL     OW25618   6.531  10.238  12.075 -0.2643  0.4511  0.8632
 6168SOL    HW125619   6.625  10.247  12.090 -0.1229 -0.6158  0.7294
 6168SOL    HW225620   6.501  10.326  12.054  0.7239  0.7854  0.8019
 6169SOL     OW25621   0.048   3.833   2.248 -0.8590 -0.8705  0.2734
 6169SOL    HW125622   0.086   3.843   2.161  0.8465  1.0430  1.1587
 6169SOL    HW225623   0.061   3.741   2.270  0.3841 -0.9538 -0.7338
 6170SOL     OW25624   9.347  11.096   9.514 -0.5236 -0.3354  0.0148
 6170SOL    HW125625   9.288  11.040   9.464 -1.6391  0.5952  0.2415
 6170SOL    HW225626   9.423  11.041   9.532  0.2509 -0.5112 -3.2381
 6171SOL     OW25627   4.773  10.665  11.900 -0.2484 -0.4931  0.2482
 6171SOL    HW125628   4.821  10.719  11.837 -1.5599 -0.2585 -0.5820
 6171SOL    HW225629   4.754  10.725  11.972  0.6575 -0.5792  0.5719
 6172SOL     OW25630   2.530   8.755   9.699 -0.0725 -0.2054 -0.1419
 6172SOL    HW125631   2.488   8.684   9.650 -0.3430 -1.7558  2.1972
 6172SOL    HW225632   2.616   8.764   9.657  0.2417 -2.4265 -0.0911
 6173SOL     OW25633   2.383   9.842   3.464  0.0771  0.0216 -0.1165
 6173SOL    HW125634   2.313   9.785   3.431  0.7727 -0.9552  0.0575
 6173SOL    HW225635   2.435   9.785   3.521  0.7123  0.8777  0.1767
 6174SOL     OW25636   7.517   0.603   4.108  0.0259  0.2017 -0.8596
 6174SOL    HW125637   7.528   0.678   4.050 -0.3592  0.5380 -0.5069
 6174SOL    HW225638   7.527   0.527   4.051 -1.2611  0.5245 -1.5477
 6175SOL     OW25639  12.044   2.490   8.310  0.2280 -0.3777 -0.0745
 6175SOL    HW125640  12.047   2.543   8.230 -2.5260  0.7170  0.4236
 6175SOL    HW225641  11.985   2.418   8.289  0.1468 -0.5501  0.7110
 6176SOL     OW25642   0.447   4.534   2.896  0.3419  0.2917 -0.2133
 6176SOL    HW125643   0.398   4.556   2.817 -0.9738 -0.9226  0.2071
 6176SOL    HW225644   0.406   4.585   2.965 -0.4398 -0.7836  0.1541
 6177SOL     OW25645   3.004   9.788   8.893 -0.3308  0.0857 -0.5171
 6177SOL    HW125646   2.963   9.804   8.808 -0.0445 -3.1861 -1.3807
 6177SOL    HW225647   2.930   9.776   8.953 -0.6782 -1.9190 -1.2714
 6178SOL     OW25648   6.590  10.946   6.070  0.3875 -0.1442 -0.6256
 6178SOL    HW125649   6.630  10.994   5.997  0.3461  2.5369  1.0004
 6178SOL    HW225650   6.638  10.976   6.147 -2.7472  0.9404  1.0440
 6179SOL     OW25651   8.916   6.617  10.546  0.0702  0.0913  0.3182
 6179SOL    HW125652   8.991   6.664  10.510  0.7705 -0.3030  1.2131
 6179SOL    HW225653   8.924   6.529  10.510  0.8627 -0.3495  1.5064
 6180SOL     OW25654  10.732   4.004   9.160 -0.1408  0.0165 -0.1234
 6180SOL    HW125655  10.817   4.000   9.205 -0.1395  0.4580 -0.0894
 6180SOL    HW225656  10.706   4.096   9.164  0.2649  0.2416 -1.7971
 6181SOL     OW25657   9.077   3.558   7.169 -0.2249  0.6054 -0.9527
 6181SOL    HW125658   9.000   3.509   7.138 -1.1526  1.0220  0.5565
 6181SOL    HW225659   9.124   3.496   7.224 -0.9770  1.1030  0.3168
 6182SOL     OW25660   6.350   1.250   3.030 -0.5723 -0.3844 -0.2612
 6182SOL    HW125661   6.384   1.312   3.095  0.7320 -0.0923 -1.1795
 6182SOL    HW225662   6.309   1.305   2.963 -0.6159 -0.5932 -0.4061
 6183SOL     OW25663   2.611  10.361   2.723 -0.4502 -0.0488  0.4445
 6183SOL    HW125664   2.555  10.283   2.717 -0.9492  0.3039  0.5236
 6183SOL    HW225665   2.691  10.329   2.764 -0.6429 -0.5285  0.4531
 6184SOL     OW25666   9.096   7.579   0.913  0.4598 -0.0976  0.2109
 6184SOL    HW125667   9.045   7.591   0.993 -0.2092 -0.2021 -0.1910
 6184SOL    HW225668   9.133   7.490   0.921  1.3228  0.3034  0.9035
 6185SOL     OW25669   7.598   7.565  12.130 -0.1675  0.5733  0.4392
 6185SOL    HW125670   7.543   7.541  12.204 -1.7577 -1.2458 -1.2145
 6185SOL    HW225671   7.629   7.481  12.095  1.4922  1.4384 -0.2759
 6186SOL     OW25672  11.452   2.176   9.257 -0.1201 -0.1149 -0.2553
 6186SOL    HW125673  11.457   2.203   9.166  1.5543 -0.1926 -0.2191
 6186SOL    HW225674  11.475   2.254   9.307  1.4721 -0.6760 -0.0319
 6187SOL     OW25675   5.933   0.279  10.302  0.2674  0.5815 -0.3491
 6187SOL    HW125676   5.974   0.348  10.251 -1.1899  0.5382 -1.6433
 6187SOL    HW225677   5.969   0.198  10.267 -0.0548  0.5860 -0.6915
 6188SOL     OW25678  12.158   9.891   2.793  0.3925 -0.4334  0.6588
 6188SOL    HW125679  12.197   9.966   2.839 -0.1102  1.3926 -1.7025
 6188SOL    HW225680  12.067   9.889   2.822 -0.0214  0.9392 -0.4927
 6189SOL     OW25681   0.568   3.819   1.162 -0.4784  0.2212 -0.2804
 6189SOL    HW125682   0.522   3.743   1.196  0.0837  0.4254  1.0133
 6189SOL    HW225683   0.522   3.894   1.202  0.4001  0.4539  0.3276
 6190SOL     OW25684  11.513   0.646  10.864 -0.4475  0.1611  0.1675
 6190SOL    HW125685  11.481   0.702  10.934 -1.6381 -1.5567  1.0815
 6190SOL    HW225686  11.499   0.557  10.896  1.8267 -0.7125 -0.9907
 6191SOL     OW25687   7.611   5.408  12.947  0.8030  0.2344 -0.2907
 6191SOL    HW125688   7.665   5.347  12.998  0.5618  0.6367  0.4551
 6191SOL    HW225689   7.617   5.376  12.857 -1.6563 -2.6569  0.4324
 6192SOL     OW25690   2.966  10.055   9.642 -0.3676  0.7620  0.7214
 6192SOL    HW125691   3.025  10.126   9.670  0.8639 -0.6228  1.8082
 6192SOL    HW225692   2.918  10.031   9.721 -1.0831  0.6432  0.2608
 6193SOL     OW25693  10.336   3.569  10.116 -0.0180 -0.7181 -0.7124
 6193SOL    HW125694  10.394   3.636  10.079 -1.2894  0.5007 -0.5595
 6193SOL    HW225695  10.371   3.486  10.082  2.8094 -0.2178  0.6617
 6194SOL     OW25696   6.095  11.092   9.045  0.3122 -0.2227  0.1440
 6194SOL    HW125697   6.112  11.040   9.124 -2.4080  0.1732  1.0674
 6194SOL    HW225698   6.030  11.042   8.997  0.7773  0.3276 -1.0997
 6195SOL     OW25699   4.039   1.290  10.683 -0.6226 -0.3727 -0.4174
 6195SOL    HW125700   4.101   1.220  10.664  0.1554  0.0595  0.4373
 6195SOL    HW225701   4.079   1.338  10.756 -0.8176  1.3582 -1.3983
 6196SOL     OW25702   0.115  12.676   8.050 -0.0748  0.5794  0.1752
 6196SOL    HW125703   0.163  12.756   8.031  1.2064  0.0346  0.9439
 6196SOL    HW225704   0.065  12.696   8.129  3.2927 -0.4330  2.8152
 6197SOL     OW25705   4.097   2.744  10.805 -0.4712 -0.3507 -0.2653
 6197SOL    HW125706   4.106   2.800  10.882 -0.2903 -0.6167 -0.0932
 6197SOL    HW225707   4.020   2.691  10.823 -0.6221 -0.1860 -0.4144
 6198SOL     OW25708   6.597  11.419   4.584 -0.0571 -0.1983 -0.0528
 6198SOL    HW125709   6.513  11.397   4.543  0.0907  0.6100 -0.8331
 6198SOL    HW225710   6.639  11.479   4.521  2.0688 -2.2620 -0.7667
 6199SOL     OW25711   9.769   6.924   8.059 -0.2746  0.2575  0.0724
 6199SOL    HW125712   9.691   6.911   8.112 -0.2983  1.2976  0.3173
 6199SOL    HW225713   9.818   6.842   8.067 -1.9789 -0.9362 -1.2006
 6200SOL     OW25714  10.048   0.308   5.237 -0.1687 -0.3432  0.5037
 6200SOL    HW125715  10.037   0.276   5.148 -0.8687 -0.5778  0.6657
 6200SOL    HW225716   9.965   0.287   5.280  0.5211 -1.1441  1.4872
 6201SOL     OW25717  10.918  12.402   4.231  0.2288  0.3430 -0.0774
 6201SOL    HW125718  10.856  12.333   4.206 -0.3561  0.0892  1.9320
 6201SOL    HW225719  11.003  12.370   4.202 -0.4327  0.3995 -2.2979
 6202SOL     OW25720   1.324   1.100   5.626 -0.1125 -0.2082 -0.4517
 6202SOL    HW125721   1.344   1.007   5.631  1.5210  0.0685 -1.3744
 6202SOL    HW225722   1.350   1.126   5.538 -1.9528  0.8306 -0.7482
 6203SOL     OW25723   0.328   3.644   6.093  0.3059 -0.2774  0.1370
 6203SOL    HW125724   0.240   3.614   6.116  0.6170 -0.8688  0.5894
 6203SOL    HW225725   0.344   3.718   6.152  0.6474 -1.0521  1.0334
 6204SOL     OW25726  12.291   1.162   0.624  0.6291 -0.2849 -0.3005
 6204SOL    HW125727  12.304   1.229   0.691  0.2775  0.2165 -0.7281
 6204SOL    HW225728  12.279   1.080   0.674 -2.6895  0.5018  0.4462
 6205SOL     OW25729   6.642   4.183   0.549  0.5490  0.1566 -0.0912
 6205SOL    HW125730   6.703   4.156   0.618 -1.3785 -0.7814  1.3261
 6205SOL    HW225731   6.597   4.102   0.524 -0.1313  0.8229 -1.0839
 6206SOL     OW25732   1.198   6.878   4.951 -0.3013 -0.2767  0.7286
 6206SOL    HW125733   1.185   6.961   4.906 -2.6869 -0.5092  0.8837
 6206SOL    HW225734   1.187   6.812   4.883 -0.9835 -0.5252  1.0685
 6207SOL     OW25735   5.470   2.082  11.988 -0.3195 -0.1806  0.3282
 6207SOL    HW125736   5.391   2.077  11.935  0.4645  0.7156 -0.9896
 6207SOL    HW225737   5.540   2.050  11.930  0.6236  1.1634  0.6745
 6208SOL     OW25738   8.938   9.818   5.071 -0.5501 -0.2956 -0.1620
 6208SOL    HW125739   8.958   9.847   4.981 -0.8248 -0.0123 -0.1323
 6208SOL    HW225740   9.020   9.833   5.119 -0.8322  0.9487 -0.0230
 6209SOL     OW25741   3.074   8.681  11.376 -0.5643  0.3495 -0.1723
 6209SOL    HW125742   3.068   8.709  11.467  1.2059 -0.9535  0.3924
 6209SOL    HW225743   3.041   8.756  11.326 -1.9869  0.9263  1.5166
 6210SOL     OW25744   6.188  12.673   7.970 -0.3844  0.3383 -0.0595
 6210SOL    HW125745   6.096  12.661   7.946 -0.3719  1.5755 -0.7998
 6210SOL    HW225746   6.221  12.736   7.906  0.9774 -0.0755  0.2177
 6211SOL     OW25747   2.831  12.569   1.726  0.0260  0.0386  0.1453
 6211SOL    HW125748   2.849  12.628   1.799 -2.6565  2.3497 -0.8583
 6211SOL    HW225749   2.899  12.589   1.662  0.4879  0.3528  0.7247
 6212SOL     OW25750  11.528  10.480   9.137  0.5301 -0.3405 -0.3145
 6212SOL    HW125751  11.596  10.424   9.175 -0.8226 -1.4197  0.6419
 6212SOL    HW225752  11.451  10.423   9.133 -0.6355  1.1838 -0.2555
 6213SOL     OW25753  11.994   6.759   3.697 -0.0431 -0.1397 -0.1330
 6213SOL    HW125754  12.073   6.727   3.742 -0.2697  1.4241  1.5277
 6213SOL    HW225755  11.990   6.852   3.721 -2.9249 -0.3846  0.7044
 6214SOL     OW25756   5.791   3.439   3.789 -0.5407 -0.0482  0.3542
 6214SOL    HW125757   5.721   3.473   3.732 -1.6625  0.1345  1.7887
 6214SOL    HW225758   5.872   3.464   3.745 -1.3361 -1.2379 -1.9448
 6215SOL     OW25759   9.487   6.966   2.520 -0.1661  0.2320  0.5047
 6215SOL    HW125760   9.501   6.932   2.608 -0.1848 -0.9763  0.0628
 6215SOL    HW225761   9.430   6.901   2.478  1.2281 -0.1221 -0.9381
 6216SOL     OW25762  11.717   4.859   5.603 -0.0517 -0.7457  0.1293
 6216SOL    HW125763  11.668   4.931   5.563 -0.1835 -0.2084  1.2378
 6216SOL    HW225764  11.795   4.850   5.547  1.2959  1.9947  1.3507
 6217SOL     OW25765   3.280  12.538   4.411  0.3032  0.0176  0.9453
 6217SOL    HW125766   3.224  12.479   4.362 -1.9837  2.8486 -0.1057
 6217SOL    HW225767   3.306  12.488   4.489 -2.7207 -1.8477  0.8857
 6218SOL     OW25768   7.314   3.918   0.243 -0.1980  0.5025  0.2826
 6218SOL    HW125769   7.353   3.921   0.331 -1.2052 -0.1220  0.7645
 6218SOL    HW225770   7.274   4.004   0.231 -1.7379 -0.0403  1.2468
 6219SOL     OW25771   0.177   7.435   9.953 -0.5544  0.3256 -0.3274
 6219SOL    HW125772   0.208   7.495  10.021 -1.2596 -1.1742  1.3839
 6219SOL    HW225773   0.105   7.387   9.994 -0.1637 -1.5229 -1.7010
 6220SOL     OW25774   9.116   4.341   6.326  0.2700  0.4005  0.1759
 6220SOL    HW125775   9.128   4.252   6.357 -2.9387  0.9950  3.9061
 6220SOL    HW225776   9.110   4.332   6.230 -0.5172 -3.4591  0.4153
 6221SOL     OW25777   4.308   2.001   5.894 -0.2429  0.4800 -0.1020
 6221SOL    HW125778   4.217   1.972   5.900 -0.3530  0.7775 -0.2748
 6221SOL    HW225779   4.301   2.097   5.890  0.0767  0.5013 -0.1193
 6222SOL     OW25780  10.361   6.018   2.547  0.3641 -0.6338 -0.4968
 6222SOL    HW125781  10.384   5.989   2.459  2.2773 -3.7033  0.8602
 6222SOL    HW225782  10.436   6.071   2.575 -0.9950  1.8186 -1.2141
 6223SOL     OW25783  11.662  11.311  12.280  0.1423  0.1215 -1.0294
 6223SOL    HW125784  11.608  11.258  12.339 -1.8039  2.2653 -0.7327
 6223SOL    HW225785  11.722  11.359  12.338 -1.7384  2.1921 -0.6486
 6224SOL     OW25786   3.232   2.267   8.248 -0.1960  0.7109 -0.0687
 6224SOL    HW125787   3.311   2.318   8.265 -0.3252  1.2287 -0.9486
 6224SOL    HW225788   3.171   2.295   8.317 -0.0610  1.3038 -0.1799
 6225SOL     OW25789   2.409  12.785   7.073  0.0725 -0.0841 -0.1578
 6225SOL    HW125790   2.490  12.761   7.029  0.2846  0.8423 -0.2922
 6225SOL    HW225791   2.340  12.743   7.022  0.4779 -1.1511  0.1479
 6226SOL     OW25792   8.313   8.008   0.724 -0.1792  0.4103 -0.0296
 6226SOL    HW125793   8.248   8.033   0.659 -0.1260  1.1853  0.2067
 6226SOL    HW225794   8.262   7.993   0.804 -0.6424 -3.3637 -0.8717
 6227SOL     OW25795  10.417   4.344   3.464  0.9091 -0.6425 -0.4021
 6227SOL    HW125796  10.464   4.428   3.459  1.6157 -0.9161  1.0192
 6227SOL    HW225797  10.470   4.291   3.524 -1.2121 -0.9726  1.2925
 6228SOL     OW25798   1.073   4.599   0.547 -0.1266  0.0435 -0.1980
 6228SOL    HW125799   1.051   4.518   0.500  2.3401 -0.2536 -1.0112
 6228SOL    HW225800   1.006   4.661   0.519 -1.6392 -1.4722 -0.1541
 6229SOL     OW25801   1.455   2.159  10.158  0.3676 -0.6086 -0.3932
 6229SOL    HW125802   1.438   2.173  10.065  0.8725 -0.2638 -0.4441
 6229SOL    HW225803   1.421   2.072  10.177 -0.7664 -0.2288 -0.6322
 6230SOL     OW25804   2.245   3.876   1.746 -0.1747 -0.1141  0.0069
 6230SOL    HW125805   2.195   3.937   1.801 -0.8036 -0.7165  0.1130
 6230SOL    HW225806   2.336   3.893   1.769 -0.1892  2.0499 -1.2550
 6231SOL     OW25807   9.169   3.306  10.881  0.0730  0.0032 -0.7266
 6231SOL    HW125808   9.166   3.373  10.813  0.2856 -0.9545 -1.7021
 6231SOL    HW225809   9.157   3.354  10.963  0.3567  1.2431 -1.3946
 6232SOL     OW25810   1.890   0.059   0.249 -0.0143  0.1087  0.3119
 6232SOL    HW125811   1.794   0.062   0.254  0.0482  0.8551  1.1637
 6232SOL    HW225812   1.915   0.147   0.220  0.4797  0.2981  1.2950
 6233SOL     OW25813   7.099   6.989   1.144  0.0740  0.2518 -0.3976
 6233SOL    HW125814   7.128   6.930   1.074 -0.0320 -1.4814  0.9662
 6233SOL    HW225815   7.152   6.964   1.220 -1.7082  0.1679  0.8850
 6234SOL     OW25816   6.472   0.969   9.603 -0.0872  0.4088 -0.0147
 6234SOL    HW125817   6.379   0.984   9.588 -0.2761 -0.8051 -0.1449
 6234SOL    HW225818   6.516   1.023   9.537 -0.7834 -1.0799 -1.7661
 6235SOL     OW25819  10.635  12.948   3.217 -0.4771  0.2261  0.0141
 6235SOL    HW125820  10.707  13.004   3.246 -0.8031  0.9974 -0.6040
 6235SOL    HW225821  10.556  12.993   3.250 -0.7682  0.3803 -0.8647
 6236SOL     OW25822   7.748   6.211  11.065 -0.4396  0.6014 -0.1331
 6236SOL    HW125823   7.657   6.184  11.075  0.1299 -1.2068  0.4121
 6236SOL    HW225824   7.746   6.305  11.084 -2.0759  0.4833  0.4966
 6237SOL     OW25825   9.213   4.889   7.313 -0.2553 -0.3808 -0.1978
 6237SOL    HW125826   9.141   4.952   7.306  0.2580  0.3205  0.6346
 6237SOL    HW225827   9.210   4.841   7.230 -1.7959 -0.5077 -0.1062
 6238SOL     OW25828   2.184   7.490   3.998  0.5657 -0.0625 -0.1653
 6238SOL    HW125829   2.159   7.563   4.055  0.2347 -0.3580  0.0724
 6238SOL    HW225830   2.102   7.442   3.983  0.6008  0.1528 -1.0923
 6239SOL     OW25831   1.009   4.305   4.358 -0.0353  0.0896  0.3981
 6239SOL    HW125832   1.020   4.275   4.449 -0.8304 -1.1904  0.1101
 6239SOL    HW225833   0.929   4.261   4.329 -0.6830  1.7425 -0.4343
 6240SOL     OW25834   4.416   9.320   0.537 -0.0722  0.1090 -0.2081
 6240SOL    HW125835   4.498   9.271   0.523 -0.3287  0.2594 -2.7737
 6240SOL    HW225836   4.442   9.395   0.589  0.8177 -1.3815  1.6112
 6241SOL     OW25837   9.048   2.951   1.717 -0.1490  0.0382 -0.0706
 6241SOL    HW125838   9.021   2.949   1.625  1.5747  1.3636 -0.6694
 6241SOL    HW225839   8.978   2.905   1.763 -1.0051 -0.7890 -2.0457
 6242SOL     OW25840   7.255  11.047   2.818 -0.5821  0.3591 -0.1439
 6242SOL    HW125841   7.283  10.955   2.817  0.3392  0.6226 -1.6589
 6242SOL    HW225842   7.329  11.094   2.858 -0.5887  0.5675 -0.3740
 6243SOL     OW25843  12.554   9.269   8.928 -0.1682 -0.8440  0.0483
 6243SOL    HW125844  12.555   9.249   8.834 -2.0986  0.8403 -0.4006
 6243SOL    HW225845  12.475   9.227   8.960 -1.1103  0.9854  0.2646
 6244SOL     OW25846   9.967   9.008  10.680 -0.0138 -0.5010  0.4210
 6244SOL    HW125847  10.043   8.984  10.734 -1.9535 -1.9578  2.7150
 6244SOL    HW225848   9.930   8.924  10.653 -1.0015  0.1772 -0.4124
 6245SOL     OW25849   0.257   5.324  12.767 -0.1108  0.6823 -0.0068
 6245SOL    HW125850   0.316   5.334  12.842  0.9772 -1.9903 -0.4051
 6245SOL    HW225851   0.295   5.252  12.716 -1.8317  1.2019 -2.1606
 6246SOL     OW25852   8.167   5.479   2.129 -0.8494  0.3011  0.2385
 6246SOL    HW125853   8.085   5.437   2.156  0.8825 -1.8921  2.4392
 6246SOL    HW225854   8.186   5.542   2.198 -0.4251  0.4658 -0.0232
 6247SOL     OW25855   5.220  12.752  10.626  0.3769 -0.2930 -0.0357
 6247SOL    HW125856   5.260  12.798  10.699 -0.0334  0.6810 -0.4076
 6247SOL    HW225857   5.217  12.661  10.654 -1.6886  0.3136  2.0719
 6248SOL     OW25858   1.003   2.329   1.878  0.1207 -0.0942  0.4413
 6248SOL    HW125859   0.950   2.318   1.799  0.1488 -0.3401  0.4562
 6248SOL    HW225860   1.039   2.418   1.871 -1.4888  0.6795  1.1422
 6249SOL     OW25861   0.497  10.477   0.563 -0.5193 -0.3168 -0.4189
 6249SOL    HW125862   0.410  10.480   0.523 -0.0126 -0.6964 -1.6141
 6249SOL    HW225863   0.536  10.562   0.542 -1.1330  0.4863  1.4672
 6250SOL     OW25864   4.515   0.507   1.447  0.2874 -0.3009 -0.0931
 6250SOL    HW125865   4.444   0.552   1.492  1.0433 -0.8660  1.7632
 6250SOL    HW225866   4.505   0.532   1.355 -1.5513  0.5991  0.3062
 6251SOL     OW25867   8.284   1.796   5.735 -0.2757  0.5944  0.0123
 6251SOL    HW125868   8.238   1.850   5.799  1.0124  1.7597 -0.0038
 6251SOL    HW225869   8.285   1.848   5.655 -2.1113 -0.9614 -1.1148
 6252SOL     OW25870  10.192  12.772   2.798 -0.0708  0.1600  0.2843
 6252SOL    HW125871  10.206  12.867   2.799 -1.4021  0.3695  0.9322
 6252SOL    HW225872  10.150  12.753   2.881  1.6604 -1.2749  0.8974
 6253SOL     OW25873   7.332   2.922   6.209  0.2454 -0.4841 -0.0995
 6253SOL    HW125874   7.244   2.955   6.227 -0.7242 -3.1196  0.4016
 6253SOL    HW225875   7.377   2.996   6.167 -1.7081  1.4100  0.9172
 6254SOL     OW25876   4.393   6.469   7.481  0.0069 -0.1333  0.1513
 6254SOL    HW125877   4.456   6.532   7.445  0.3980 -0.6843 -0.1280
 6254SOL    HW225878   4.427   6.448   7.568  0.3308 -0.5964 -0.0840
 6255SOL     OW25879   6.683   0.646   5.809 -0.0581 -0.2551 -0.5290
 6255SOL    HW125880   6.726   0.573   5.854  1.9809  2.0955  1.6339
 6255SOL    HW225881   6.752   0.683   5.754 -0.1159  1.7832  0.6966
 6256SOL     OW25882   4.398  11.718   4.037  0.0014  0.1868 -0.5367
 6256SOL    HW125883   4.492  11.709   4.022 -0.2125 -1.1406 -1.3016
 6256SOL    HW225884   4.364  11.753   3.955 -0.3044 -0.4409 -0.6851
 6257SOL     OW25885   3.313   4.777   0.550  0.3643  0.3354 -0.2834
 6257SOL    HW125886   3.363   4.768   0.469  2.3136  0.9187  0.7878
 6257SOL    HW225887   3.340   4.701   0.602 -0.8716 -0.0371 -0.1619
 6258SOL     OW25888   1.265   6.549   0.822  0.1076 -0.7278 -0.2357
 6258SOL    HW125889   1.332   6.617   0.818  1.3295 -1.7372  1.4160
 6258SOL    HW225890   1.254   6.532   0.916 -1.5957 -1.4352 -0.5309
 6259SOL     OW25891   2.581   3.426   5.011  0.4542 -0.6043  0.2406
 6259SOL    HW125892   2.649   3.490   4.991  0.3747 -0.3966  0.6229
 6259SOL    HW225893   2.619   3.342   4.986  0.4204 -0.3783 -0.6151
 6260SOL     OW25894   2.105   5.630  11.043  0.4523 -0.5339  0.4266
 6260SOL    HW125895   2.053   5.564  11.090  1.5523 -1.0039  1.0146
 6260SOL    HW225896   2.195   5.613  11.069  0.7497  1.4383  0.8651
 6261SOL     OW25897   0.320   9.723   3.438  0.4498  0.1786  0.4926
 6261SOL    HW125898   0.412   9.699   3.447  0.8862  2.0641  1.7270
 6261SOL    HW225899   0.272   9.643   3.459  1.7916 -0.8124 -0.0637
 6262SOL     OW25900   1.802   6.202   3.409 -0.2151 -0.0003  0.7851
 6262SOL    HW125901   1.754   6.214   3.491 -1.2602 -0.1162  0.2094
 6262SOL    HW225902   1.818   6.291   3.377  1.7672  0.1293  1.9584
 6263SOL     OW25903   2.330   6.075   4.760  0.3020 -0.1268  0.0779
 6263SOL    HW125904   2.353   6.118   4.843 -0.8249 -0.1322  0.4083
 6263SOL    HW225905   2.289   6.144   4.708  1.5187  0.0217 -0.7202
 6264SOL     OW25906   2.402   8.893   0.015 -0.0171 -0.6042  0.0819
 6264SOL    HW125907   2.472   8.842  -0.025  1.3934  0.1713  1.4440
 6264SOL    HW225908   2.336   8.900  -0.053  1.9030 -0.0224 -1.8356
 6265SOL     OW25909  10.100   4.711   2.236  0.0705 -0.0864 -0.1179
 6265SOL    HW125910  10.025   4.765   2.209 -1.1145 -1.1990  0.8333
 6265SOL    HW225911  10.061   4.629   2.265  1.8061 -1.3027 -1.0874
 6266SOL     OW25912   7.887   4.184  11.365 -0.0567  0.3205  0.1989
 6266SOL    HW125913   7.839   4.266  11.373  1.8884  1.3568  2.4702
 6266SOL    HW225914   7.978   4.212  11.348  0.5710 -1.3642  0.6232
 6267SOL     OW25915   6.394   3.946   6.747  0.0938 -0.0449  0.0767
 6267SOL    HW125916   6.405   3.977   6.657 -0.5989 -1.6827 -0.6098
 6267SOL    HW225917   6.458   3.996   6.797  0.3824  1.0299 -1.2897
 6268SOL     OW25918   8.989   8.361   5.108  0.2267  0.8914 -0.4871
 6268SOL    HW125919   8.928   8.403   5.048 -0.1493  1.4694  0.2754
 6268SOL    HW225920   9.025   8.433   5.160 -1.7630  0.1957  2.0797
 6269SOL     OW25921   2.814   9.259   9.463  0.2298 -0.0650  0.2564
 6269SOL    HW125922   2.871   9.229   9.533  0.3007  1.9048  1.0986
 6269SOL    HW225923   2.871   9.263   9.386  1.2418  1.6631  1.0362
 6270SOL     OW25924   0.391   4.987  11.298  0.1102  0.2799 -0.0775
 6270SOL    HW125925   0.300   5.003  11.274 -0.4080  0.6755  1.9735
 6270SOL    HW225926   0.386   4.939  11.381  1.7803 -1.4924 -0.9165
 6271SOL     OW25927   8.073   5.074   3.436 -0.2936  0.3537 -0.1356
 6271SOL    HW125928   8.003   5.057   3.374 -1.6502 -2.6609  1.9459
 6271SOL    HW225929   8.127   5.141   3.395 -1.9493 -0.3330 -3.7722
 6272SOL     OW25930   0.597   9.222   5.423 -0.1420  0.4798  0.1878
 6272SOL    HW125931   0.621   9.298   5.371 -0.8314  1.9225  1.8672
 6272SOL    HW225932   0.679   9.196   5.466  0.1412  0.1265 -0.5580
 6273SOL     OW25933   8.931   6.895   9.704 -0.7747  0.4833  0.2495
 6273SOL    HW125934   8.871   6.833   9.662  0.6919 -2.5779  2.2708
 6273SOL    HW225935   8.979   6.936   9.632 -2.4671  0.0245 -1.2071
 6274SOL     OW25936   2.065   3.118   8.870 -0.1899  0.2077  0.0423
 6274SOL    HW125937   1.992   3.057   8.875 -1.2941  1.4215 -0.5475
 6274SOL    HW225938   2.094   3.113   8.779 -0.9946  1.3080 -0.2992
 6275SOL     OW25939   7.244   8.368  10.828  0.5573  0.2578 -0.4123
 6275SOL    HW125940   7.304   8.437  10.800  0.4107  0.2252 -0.8048
 6275SOL    HW225941   7.280   8.337  10.911  1.3689 -0.1168 -0.9022
 6276SOL     OW25942   6.424   1.924   7.308  0.1149 -0.0048  0.9518
 6276SOL    HW125943   6.346   1.899   7.259  0.5976  0.0658  0.1206
 6276SOL    HW225944   6.495   1.875   7.267  0.6573  0.6763  1.0480
 6277SOL     OW25945   0.119   3.178   1.034 -0.9854 -0.1350  0.7859
 6277SOL    HW125946   0.080   3.179   0.947  0.5510  2.5915 -0.0186
 6277SOL    HW225947   0.078   3.253   1.078  0.6030  0.5336  1.1857
 6278SOL     OW25948  11.733   9.036   0.420 -0.3284 -0.1734  0.2913
 6278SOL    HW125949  11.780   9.116   0.399 -1.1727  0.0715 -0.7518
 6278SOL    HW225950  11.669   9.062   0.486 -1.7695  0.4381 -1.2777
 6279SOL     OW25951  11.056   3.056   4.540  0.0019  0.3564  0.1583
 6279SOL    HW125952  11.041   3.137   4.492 -0.8486 -0.3778 -0.8725
 6279SOL    HW225953  11.145   3.064   4.574  0.5448  1.0115 -1.3512
 6280SOL     OW25954  11.481   2.438   9.611  0.4341 -0.0907 -0.4816
 6280SOL    HW125955  11.483   2.529   9.580 -0.5573 -0.4618 -1.6969
 6280SOL    HW225956  11.425   2.392   9.548 -0.2899 -1.2333  0.9269
 6281SOL     OW25957   6.161   8.566   5.967 -0.3537 -0.5009  0.0350
 6281SOL    HW125958   6.078   8.556   5.920 -0.4817 -0.6304  0.2893
 6281SOL    HW225959   6.137   8.611   6.048 -0.1893 -0.6315  0.1562
 6282SOL     OW25960   7.603  12.724   7.404 -0.2979 -0.0549 -0.2090
 6282SOL    HW125961   7.603  12.628   7.410 -1.1937 -0.1904 -1.8856
 6282SOL    HW225962   7.521  12.751   7.444 -1.2600 -0.2124 -1.9634
 6283SOL     OW25963   0.297   4.340   7.379 -0.4558 -0.0496 -0.2257
 6283SOL    HW125964   0.297   4.248   7.405  2.2276  0.0748  0.5169
 6283SOL    HW225965   0.377   4.376   7.418  0.2988  1.8204 -3.1467
 6284SOL     OW25966   0.817  12.452  11.832 -0.5326  0.7541  0.1130
 6284SOL    HW125967   0.811  12.545  11.850 -0.2067  0.7963 -0.0049
 6284SOL    HW225968   0.827  12.411  11.919 -1.3898  0.7699  0.2271
 6285SOL     OW25969   1.096   7.531   1.398 -0.0605  0.4930 -0.8806
 6285SOL    HW125970   1.166   7.588   1.429 -2.7555  2.9186  1.3175
 6285SOL    HW225971   1.044   7.586   1.339 -2.3424  0.1711  0.7228
 6286SOL     OW25972   9.035   1.625   3.370  0.4759 -0.0728  0.5603
 6286SOL    HW125973   9.091   1.675   3.430  1.6641 -1.2288  0.4606
 6286SOL    HW225974   9.000   1.554   3.424  0.5379 -0.3838  0.1960
 6287SOL     OW25975  12.898   3.637  12.262 -0.2752  0.6616  0.7035
 6287SOL    HW125976  12.952   3.664  12.188  2.2271 -0.7635  1.8730
 6287SOL    HW225977  12.809   3.629  12.225  0.6351  1.1470 -1.8094
 6288SOL     OW25978   3.211  10.711   0.996 -0.1931 -0.3740 -0.8369
 6288SOL    HW125979   3.292  10.758   1.014 -0.0257 -1.2047  0.8765
 6288SOL    HW225980   3.142  10.773   1.019  0.0090 -0.3723 -0.1960
 6289SOL     OW25981   0.652   8.167   9.823 -0.1776 -0.3367  0.1223
 6289SOL    HW125982   0.625   8.085   9.782 -1.7264  0.9886 -1.6757
 6289SOL    HW225983   0.668   8.226   9.749  0.8703  1.0060  1.3780
 6290SOL     OW25984   1.284   9.263   3.921 -0.3444  0.0046 -0.0928
 6290SOL    HW125985   1.253   9.333   3.864  0.5105  0.6138  0.1628
 6290SOL    HW225986   1.270   9.297   4.010  0.8613  0.2432  0.0349
 6291SOL     OW25987   6.356   3.206   6.577  0.0014 -0.1482 -0.0627
 6291SOL    HW125988   6.437   3.255   6.563  1.4113 -2.4702 -0.5834
 6291SOL    HW225989   6.379   3.143   6.646 -2.3734  1.1882  2.1260
 6292SOL     OW25990  11.620   7.875  11.781  0.6574 -0.3202 -0.4308
 6292SOL    HW125991  11.617   7.920  11.696  0.8336  0.0335 -0.2527
 6292SOL    HW225992  11.713   7.858  11.796  0.7123  0.4013  0.0919
 6293SOL     OW25993  11.340   2.103  11.421 -0.0477  0.3112 -0.5336
 6293SOL    HW125994  11.250   2.094  11.453  0.5463 -1.1468  0.8751
 6293SOL    HW225995  11.394   2.073  11.494  1.5544  0.4743 -1.6068
 6294SOL     OW25996   6.374   6.467  10.284  0.6306  0.1171 -0.2070
 6294SOL    HW125997   6.312   6.405  10.245  0.5577 -0.5589  0.9216
 6294SOL    HW225998   6.456   6.417  10.292  0.4977  0.0526  0.9610
 6295SOL     OW25999   4.004   1.591   3.049 -0.1714  0.2515  1.0767
 6295SOL    HW126000   4.050   1.581   2.966  1.1070 -4.2183  2.0576
 6295SOL    HW226001   3.915   1.618   3.025  0.3185 -0.2678 -1.6490
 6296SOL     OW26002   8.492   0.944  12.915  0.5789  0.0646  0.1441
 6296SOL    HW126003   8.504   0.852  12.889 -1.4616  0.0940 -1.0313
 6296SOL    HW226004   8.428   0.940  12.986  0.0795  0.6179 -0.2703
 6297SOL     OW26005   0.253   8.446   2.114 -0.4539  0.3417  0.0558
 6297SOL    HW126006   0.258   8.354   2.139  0.3804  0.3748  0.0534
 6297SOL    HW226007   0.243   8.445   2.019  1.2977  0.2456 -0.1669
 6298SOL     OW26008   9.882   8.665  11.976 -0.1439  0.2223  0.1050
 6298SOL    HW126009   9.969   8.656  11.939 -0.7199 -0.4943 -1.1391
 6298SOL    HW226010   9.897   8.682  12.069  1.3136 -0.0664 -0.0578
 6299SOL     OW26011   9.668   3.316  10.722  0.2952 -0.1330  0.0703
 6299SOL    HW126012   9.617   3.241  10.752 -1.3176  1.2469  0.9697
 6299SOL    HW226013   9.714   3.346  10.800  3.0352 -1.6299 -0.8098
 6300SOL     OW26014   0.476   9.582   6.320  0.5769  0.0464 -0.2288
 6300SOL    HW126015   0.425   9.603   6.398 -0.9904  0.8956 -1.4131
 6300SOL    HW226016   0.423   9.614   6.247  1.4382 -1.7415 -1.7355
 6301SOL     OW26017   1.184  12.202  12.316 -0.2934 -0.4124  0.4313
 6301SOL    HW126018   1.175  12.289  12.277  1.3022 -0.7839 -0.8609
 6301SOL    HW226019   1.260  12.210  12.374  1.5042 -1.5108 -1.6143
 6302SOL     OW26020  10.068   6.958  10.717 -0.5358  0.6850  0.4048
 6302SOL    HW126021  10.122   6.918  10.649  1.6086  2.7786  0.7494
 6302SOL    HW226022   9.979   6.929  10.697  0.4116 -1.1849 -1.4624
 6303SOL     OW26023   4.683  10.201   3.516 -0.3779  0.0224 -0.2233
 6303SOL    HW126024   4.698  10.106   3.515  1.5693  0.2800 -0.0881
 6303SOL    HW226025   4.636  10.217   3.597 -1.0637 -0.8690 -0.4333
 6304SOL     OW26026   4.873   7.934   5.403  0.3714  0.0008 -0.8289
 6304SOL    HW126027   4.966   7.924   5.380  0.3714  0.6716 -1.1567
 6304SOL    HW226028   4.868   8.021   5.442  0.1297 -0.6070  0.5490
 6305SOL     OW26029   7.667   8.725   0.069  0.2330 -0.0746  0.0290
 6305SOL    HW126030   7.741   8.715   0.009  0.0741 -1.5458  0.0373
 6305SOL    HW226031   7.703   8.772   0.144  1.0939 -0.4922 -0.1053
 6306SOL     OW26032   8.967   9.594   9.995 -0.1375 -0.0417  0.3241
 6306SOL    HW126033   8.877   9.562  10.006 -0.6434  1.1684 -0.1190
 6306SOL    HW226034   9.013   9.522   9.953 -1.8969  0.6451 -3.1849
 6307SOL     OW26035  12.958   4.563   8.457  0.0662  0.2278  0.2597
 6307SOL    HW126036  12.883   4.526   8.411  1.2301 -3.7077  1.1273
 6307SOL    HW226037  12.952   4.658   8.442 -3.9696 -0.0869 -1.1696
 6308SOL     OW26038   7.859   8.301   2.201  0.1273 -0.4230  0.3722
 6308SOL    HW126039   7.878   8.232   2.138  1.6549 -0.1101  0.4416
 6308SOL    HW226040   7.933   8.362   2.193 -0.9370  0.9595  0.6466
 6309SOL     OW26041  11.738   8.479   6.840  0.0705  0.1725  1.0480
 6309SOL    HW126042  11.738   8.485   6.745 -2.2711 -3.3061  0.6451
 6309SOL    HW226043  11.671   8.542   6.868  0.3031  0.7366  0.3776
 6310SOL     OW26044  12.291   4.184   8.745  0.6845  0.0963  0.2942
 6310SOL    HW126045  12.331   4.205   8.661  1.8013 -0.4299  0.6842
 6310SOL    HW226046  12.358   4.135   8.793 -0.1546 -0.1560  1.2527
 6311SOL     OW26047   6.806   0.125   4.522 -0.2902 -0.3783  0.0106
 6311SOL    HW126048   6.828   0.136   4.615  1.4688  0.2925 -0.4424
 6311SOL    HW226049   6.742   0.054   4.521  1.6422 -2.2921  1.5388
 6312SOL     OW26050   4.926   5.928   5.327  0.1345  0.2851 -0.2332
 6312SOL    HW126051   4.858   5.972   5.276  0.4847  0.1672 -0.8064
 6312SOL    HW226052   4.977   5.880   5.263  0.9576  0.6176  0.1567
 6313SOL     OW26053   7.034  10.604  12.845  0.6731  0.2106  0.2809
 6313SOL    HW126054   7.060  10.574  12.758 -0.1042  0.1748  0.0501
 6313SOL    HW226055   6.955  10.656  12.830  1.5651  1.7593  0.7575
 6314SOL     OW26056   1.302   5.322   4.730  0.0631  0.4455  0.1460
 6314SOL    HW126057   1.269   5.408   4.755  0.6046  0.7883 -0.2968
 6314SOL    HW226058   1.346   5.336   4.646  0.4750 -0.1906  0.2452
 6315SOL     OW26059   3.134   0.888  11.353 -0.1327 -0.3532  0.5940
 6315SOL    HW126060   3.046   0.873  11.386 -0.6111  0.8112 -0.1140
 6315SOL    HW226061   3.137   0.842  11.269 -1.7398  3.4358 -1.7856
 6316SOL     OW26062   6.524   0.698   9.649  1.1609 -0.5258  0.1280
 6316SOL    HW126063   6.495   0.788   9.633 -0.7237 -1.0223  0.4929
 6316SOL    HW226064   6.464   0.644   9.597 -0.6669 -1.7872  3.2769
 6317SOL     OW26065   2.531   9.810   0.340 -0.0041 -0.4755 -0.4969
 6317SOL    HW126066   2.602   9.822   0.403 -0.3040 -0.7420 -0.1000
 6317SOL    HW226067   2.468   9.879   0.362 -0.4312 -1.0031 -0.0445
 6318SOL     OW26068   9.219   7.707   8.307 -0.1591 -0.0222 -0.1653
 6318SOL    HW126069   9.193   7.775   8.244 -0.8970 -1.3616 -1.3605
 6318SOL    HW226070   9.314   7.716   8.313 -0.2067  0.8923 -0.5756
 6319SOL     OW26071   9.228   3.098  11.840  0.4841 -0.0971 -0.3198
 6319SOL    HW126072   9.231   3.075  11.747  0.9164  0.3465 -0.4185
 6319SOL    HW226073   9.320   3.096  11.868  0.6161  1.9893 -0.4526
 6320SOL     OW26074  11.950   5.985   8.048  0.0517 -0.1687  0.1473
 6320SOL    HW126075  11.868   5.964   8.005 -0.4887  1.5968  0.2266
 6320SOL    HW226076  12.005   6.023   7.979 -0.2799  1.2910  0.6376
 6321SOL     OW26077   5.590  10.634   5.901 -0.3308  0.2508 -0.3404
 6321SOL    HW126078   5.670  10.662   5.946  1.2640 -1.4263 -1.9864
 6321SOL    HW226079   5.588  10.539   5.911 -0.7294 -0.0154 -2.4552
 6322SOL     OW26080   2.377   2.452   2.807  0.1301 -0.2992 -0.2828
 6322SOL    HW126081   2.312   2.477   2.742  0.1148 -0.1857 -0.2246
 6322SOL    HW226082   2.438   2.526   2.809  0.1881 -0.3478 -0.2431
 6323SOL     OW26083   8.458   6.216  10.903  0.1411 -0.0325 -0.3868
 6323SOL    HW126084   8.450   6.268  10.823  0.5125  0.6941  0.0346
 6323SOL    HW226085   8.438   6.126  10.876  2.7730 -0.2696 -1.8618
 6324SOL     OW26086   8.341  10.684   2.513  0.4616 -0.0386 -0.1707
 6324SOL    HW126087   8.400  10.657   2.583  0.6000  2.9071  0.9867
 6324SOL    HW226088   8.396  10.685   2.434  0.7329 -1.7028 -0.0373
 6325SOL     OW26089   1.409   7.363   9.685 -0.2330  0.5378 -0.3197
 6325SOL    HW126090   1.339   7.314   9.727  1.8854 -1.4288  1.1507
 6325SOL    HW226091   1.433   7.311   9.608 -0.8225  1.5861 -1.2446
 6326SOL     OW26092   3.917   0.311   2.870  0.0558 -0.7457 -0.5438
 6326SOL    HW126093   3.967   0.385   2.903 -0.8131 -0.1552 -0.5066
 6326SOL    HW226094   3.933   0.240   2.932 -0.6413  0.0025  0.5121
 6327SOL     OW26095  12.210   1.525   5.244 -0.2509  0.0141 -0.2368
 6327SOL    HW126096  12.237   1.534   5.335  0.1623 -2.0788 -0.1127
 6327SOL    HW226097  12.279   1.473   5.202 -0.4096  0.9588 -1.7735
 6328SOL     OW26098   9.377   5.610  12.394 -0.0135  0.4050 -0.2886
 6328SOL    HW126099   9.442   5.674  12.366  0.4893  0.9780  1.9629
 6328SOL    HW226100   9.326   5.655  12.461  0.5775 -1.5623  1.6232
 6329SOL     OW26101  10.344   6.773   0.550  0.3257  0.0530 -0.2246
 6329SOL    HW126102  10.341   6.768   0.454  1.4653 -2.8115 -0.2167
 6329SOL    HW226103  10.262   6.733   0.579  1.0677 -1.4716 -0.0844
 6330SOL     OW26104   8.083   9.087   0.503 -0.7310 -0.4214  0.0377
 6330SOL    HW126105   8.158   9.080   0.444 -0.4248 -1.7786  0.5544
 6330SOL    HW226106   8.010   9.110   0.445  0.2607  2.2247 -0.3030
 6331SOL     OW26107   4.064   9.229   4.061 -0.1372  0.4019  0.0841
 6331SOL    HW126108   4.148   9.267   4.034 -0.2697  0.8815  0.3510
 6331SOL    HW226109   4.028   9.291   4.124 -1.1153  0.6316 -0.6888
 6332SOL     OW26110   5.926   8.847   2.889  0.1497 -0.3660  0.2953
 6332SOL    HW126111   5.946   8.928   2.842  1.1220 -0.9763 -0.3729
 6332SOL    HW226112   5.837   8.860   2.923  0.3159  0.9946  0.2536
 6333SOL     OW26113   9.064   0.985  11.865  0.3008  0.0812 -0.0534
 6333SOL    HW126114   9.155   0.971  11.893  0.7954  1.9362 -0.5998
 6333SOL    HW226115   9.049   1.079  11.879 -0.8882  0.1918 -1.7986
 6334SOL     OW26116  11.589  11.498   5.695 -0.3343 -0.4054 -0.1719
 6334SOL    HW126117  11.521  11.562   5.674 -0.0671 -0.2138 -0.4698
 6334SOL    HW226118  11.593  11.441   5.618 -1.5105 -1.6209  0.6405
 6335SOL     OW26119   4.683   7.648   2.064  0.1863  0.6124  0.2214
 6335SOL    HW126120   4.728   7.577   2.111  0.0994  0.6821  0.4122
 6335SOL    HW226121   4.744   7.673   1.994  0.5461  0.8559  0.6166
 6336SOL     OW26122  12.867  10.876   8.629  0.5954 -0.0031 -0.1388
 6336SOL    HW126123  12.832  10.943   8.570  1.2464 -0.3191 -0.8977
 6336SOL    HW226124  12.905  10.810   8.571  0.7119 -0.6211  0.6218
 6337SOL     OW26125   6.652   4.969   4.213 -0.2522  0.2425  0.0679
 6337SOL    HW126126   6.708   5.033   4.257 -0.9253 -0.4261  2.0142
 6337SOL    HW226127   6.565   4.984   4.250  0.0230 -3.5868  2.8852
 6338SOL     OW26128   7.896  11.116   7.860  0.7202 -0.2105 -0.2998
 6338SOL    HW126129   7.832  11.051   7.829  0.4832 -0.7056  1.1379
 6338SOL    HW226130   7.925  11.161   7.781 -0.2032 -1.0857 -1.1663
 6339SOL     OW26131   6.995  10.093   3.480 -0.1133 -0.0318  0.2352
 6339SOL    HW126132   6.916  10.050   3.447  0.5620 -0.1782 -1.2734
 6339SOL    HW226133   7.029  10.142   3.405  1.1148  0.2115  0.9240
 6340SOL     OW26134  12.807   4.570   9.900  0.4003 -0.2911  0.0591
 6340SOL    HW126135  12.852   4.644   9.860 -0.9858 -0.1334 -1.2953
 6340SOL    HW226136  12.833   4.495   9.846 -0.9336 -0.1936 -0.7452
 6341SOL     OW26137   5.365   1.422   8.263 -0.1224 -0.4065 -0.5847
 6341SOL    HW126138   5.301   1.479   8.220 -0.4698 -0.7642 -0.5458
 6341SOL    HW226139   5.394   1.361   8.195  0.1058 -0.3084 -0.5785
 6342SOL     OW26140   6.900   1.249   8.919 -0.1687 -0.5111 -0.6846
 6342SOL    HW126141   6.983   1.225   8.959 -0.0763  0.5081 -0.2414
 6342SOL    HW226142   6.835   1.192   8.962  0.0410  0.0027  0.3511
 6343SOL     OW26143   5.523   6.965   3.251  0.0504 -0.1111  0.5631
 6343SOL    HW126144   5.619   6.969   3.250  0.0749 -0.3309  1.6294
 6343SOL    HW226145   5.496   7.043   3.299 -0.3628  0.5564 -0.7066
 6344SOL     OW26146  10.883   0.695   1.300 -0.2914 -0.2774  0.7907
 6344SOL    HW126147  10.808   0.694   1.241  0.7105 -0.9796 -0.5213
 6344SOL    HW226148  10.960   0.699   1.242  0.6984  1.7507  2.1065
 6345SOL     OW26149   0.988   9.230   5.724  0.0756  0.0387  0.4266
 6345SOL    HW126150   1.033   9.162   5.674 -1.4734 -0.3277 -0.5532
 6345SOL    HW226151   0.912   9.186   5.761 -1.0298  1.2235 -0.3385
 6346SOL     OW26152  12.102  11.033   1.027  0.4322  0.3617 -0.4522
 6346SOL    HW126153  12.102  11.011   0.934  1.8715  1.9223 -0.8768
 6346SOL    HW226154  12.026  11.091   1.038 -0.2187 -0.4777 -0.4674
 6347SOL     OW26155   4.750  11.071   7.901  0.0988  0.1250 -0.2707
 6347SOL    HW126156   4.714  11.044   7.985  1.1388  0.0607  0.1660
 6347SOL    HW226157   4.775  11.162   7.913 -1.0979  0.5662 -0.9747
 6348SOL     OW26158   4.650   5.832  12.664  0.6806 -0.1341  0.3768
 6348SOL    HW126159   4.710   5.764  12.693  0.1555  0.1910  2.3725
 6348SOL    HW226160   4.674   5.909  12.717 -0.8605  0.2715  0.5155
 6349SOL     OW26161   3.302  10.239   0.472 -0.0650 -0.2784 -0.0548
 6349SOL    HW126162   3.346  10.166   0.429 -0.0216  0.2213 -0.8729
 6349SOL    HW226163   3.222  10.201   0.508  1.0812 -1.2557  1.6487
 6350SOL     OW26164   3.739   3.130  11.251  0.0116  0.1069 -0.8088
 6350SOL    HW126165   3.648   3.106  11.235 -0.1436 -1.0680  1.4280
 6350SOL    HW226166   3.781   3.048  11.278  1.2815  0.9724 -0.0406
 6351SOL     OW26167   8.696   5.652   7.062  0.5106 -0.1345  0.2326
 6351SOL    HW126168   8.680   5.676   7.154 -2.9663  3.5750 -1.0587
 6351SOL    HW226169   8.751   5.722   7.028 -0.6453  0.1862 -1.1000
 6352SOL     OW26170  10.758   0.622   9.682  0.0820 -0.2209 -0.0062
 6352SOL    HW126171  10.800   0.695   9.729  1.4580 -0.8655 -0.1691
 6352SOL    HW226172  10.677   0.659   9.648 -0.0139  0.7973  1.2369
 6353SOL     OW26173   7.174   0.062   6.156 -0.7689 -0.8942 -1.0626
 6353SOL    HW126174   7.194   0.141   6.206  0.4119 -2.6571  1.4255
 6353SOL    HW226175   7.228   0.069   6.077  1.6297 -0.5706  0.5291
 6354SOL     OW26176   1.833   2.714   1.568 -0.3770 -0.3761  0.4993
 6354SOL    HW126177   1.906   2.775   1.584 -1.1298  1.2702 -1.7397
 6354SOL    HW226178   1.872   2.642   1.520 -0.0675  0.1781 -0.1036
 6355SOL     OW26179   6.585   8.850  11.659  0.0418  0.3370  0.2333
 6355SOL    HW126180   6.526   8.908  11.611 -0.9042 -1.4057 -0.8115
 6355SOL    HW226181   6.559   8.859  11.750  0.0603  1.6794  0.1237
 6356SOL     OW26182  10.260   2.257   7.953  0.5207  0.2436 -0.3175
 6356SOL    HW126183  10.324   2.232   8.019 -0.0190  1.1717  0.5786
 6356SOL    HW226184  10.217   2.175   7.928  2.3426 -0.4828 -1.2923
 6357SOL     OW26185  11.352   9.780   8.920 -0.0340 -0.2653  0.3644
 6357SOL    HW126186  11.403   9.826   8.853  1.7625 -1.4709  0.8575
 6357SOL    HW226187  11.311   9.708   8.873 -2.0539  1.1510 -0.2011
 6358SOL     OW26188   4.336  12.839   4.920 -0.5727 -0.2374  1.0605
 6358SOL    HW126189   4.350  12.883   5.004  1.2266  1.5790 -0.1140
 6358SOL    HW226190   4.405  12.873   4.863 -2.4688 -0.4563 -1.5370
 6359SOL     OW26191   7.213   1.432   2.221  0.0217 -0.0937  0.6298
 6359SOL    HW126192   7.169   1.373   2.282 -0.1669 -0.7288 -0.0968
 6359SOL    HW226193   7.145   1.459   2.160  0.3357  0.0323  0.3308
 6360SOL     OW26194   0.941   5.532   2.634 -0.4914 -0.0155  0.1502
 6360SOL    HW126195   1.021   5.579   2.613 -0.3248 -1.0345 -1.6580
 6360SOL    HW226196   0.969   5.462   2.693  0.0161 -0.5135 -0.6602
 6361SOL     OW26197   1.272   7.193   3.885  0.1482 -0.0596  0.4371
 6361SOL    HW126198   1.246   7.101   3.891 -1.2925  0.2168 -0.9573
 6361SOL    HW226199   1.329   7.197   3.808  0.4910  0.1775  0.6961
 6362SOL     OW26200   2.249   3.908   3.554 -0.3197  0.4119 -0.3569
 6362SOL    HW126201   2.301   3.952   3.487 -1.0859 -0.4775 -1.5642
 6362SOL    HW226202   2.164   3.952   3.553  0.2860  1.7911  1.5399
 6363SOL     OW26203   7.309   4.963  11.833  0.3220  0.6414  0.0237
 6363SOL    HW126204   7.350   5.040  11.872  0.7190  0.9294 -0.9480
 6363SOL    HW226205   7.277   4.993  11.748 -2.4582  0.6019  0.9400
 6364SOL     OW26206   0.353  11.523   0.639 -0.3814  0.7435 -0.4822
 6364SOL    HW126207   0.329  11.477   0.559  1.2286  0.0083 -0.5887
 6364SOL    HW226208   0.327  11.464   0.710  1.8942 -0.5655 -0.6230
 6365SOL     OW26209   5.118   1.122  11.990  0.2480 -0.3098  0.6121
 6365SOL    HW126210   5.190   1.137  12.050  0.6469  2.2833 -0.3548
 6365SOL    HW226211   5.157   1.074  11.917  0.9587  0.7646  0.2582
 6366SOL     OW26212  11.252   2.524   1.372 -0.3440 -0.0011  0.2762
 6366SOL    HW126213  11.206   2.474   1.440 -1.3669  0.1278 -0.3002
 6366SOL    HW226214  11.186   2.538   1.304  0.9292 -1.0864 -1.2649
 6367SOL     OW26215   2.545   0.751  12.424  0.3886 -0.3576  0.1090
 6367SOL    HW126216   2.628   0.753  12.378 -0.8728 -0.1391 -2.2940
 6367SOL    HW226217   2.482   0.787  12.362 -1.6255 -1.0560  1.6315
 6368SOL     OW26218   1.791   5.591   1.590  0.2070 -0.0418 -0.8607
 6368SOL    HW126219   1.806   5.637   1.507  1.5764 -0.4155 -0.8398
 6368SOL    HW226220   1.785   5.661   1.655  0.3580  0.1963 -1.0996
 6369SOL     OW26221   9.740   1.634   6.832  0.4880 -0.0719 -0.4732
 6369SOL    HW126222   9.649   1.662   6.835  0.3257 -0.6267 -0.1620
 6369SOL    HW226223   9.740   1.554   6.780  1.1318  1.1398 -2.4398
 6370SOL     OW26224   3.691   6.740   6.012 -0.2506  0.4306  0.3062
 6370SOL    HW126225   3.769   6.740   5.956  0.0938  0.1800  0.7765
 6370SOL    HW226226   3.679   6.831   6.036 -0.6732  0.6087 -0.5405
 6371SOL     OW26227  10.765   0.904   4.347  0.3037 -0.0848  0.1956
 6371SOL    HW126228  10.693   0.924   4.286  0.0377 -1.6313 -0.0449
 6371SOL    HW226229  10.820   0.843   4.299  0.8657 -0.2270  1.0105
 6372SOL     OW26230  10.317   7.548   2.413 -0.0950  0.1158  0.5621
 6372SOL    HW126231  10.222   7.540   2.424 -0.6760  2.0777 -1.9530
 6372SOL    HW226232  10.341   7.472   2.360 -0.1074 -0.6578  1.6172
 6373SOL     OW26233   6.557   0.877   6.097 -0.1022 -0.0618  0.2234
 6373SOL    HW126234   6.496   0.810   6.126  0.7089 -2.7981 -3.6386
 6373SOL    HW226235   6.643   0.848   6.128  0.2984 -1.1404 -1.7461
 6374SOL     OW26236   9.400   1.033  11.471  0.1985 -0.0563 -0.2228
 6374SOL    HW126237   9.393   1.071  11.384 -2.0449  0.3855  0.1073
 6374SOL    HW226238   9.363   1.099  11.530 -0.7578 -1.3876  0.7405
 6375SOL     OW26239  11.205   9.185   2.347  0.5465 -0.0115  0.3231
 6375SOL    HW126240  11.235   9.239   2.420  0.1548  1.4368 -0.5362
 6375SOL    HW226241  11.254   9.104   2.355  1.6745  0.7312  1.2773
 6376SOL     OW26242  11.725   3.001   7.293 -0.2563  0.1224 -0.4106
 6376SOL    HW126243  11.812   3.027   7.322 -0.1504  0.4897 -1.0399
 6376SOL    HW226244  11.731   2.999   7.197 -0.5602 -1.1622 -0.4243
 6377SOL     OW26245   4.717  12.896  12.153  0.6561 -0.0202 -0.0056
 6377SOL    HW126246   4.707  12.975  12.206  3.6143 -0.0307  0.7095
 6377SOL    HW226247   4.693  12.924  12.064 -1.7537  0.6878  0.7894
 6378SOL     OW26248  12.130  10.803   2.207 -0.5327 -0.2267 -0.2605
 6378SOL    HW126249  12.068  10.786   2.136  3.0987 -2.1237 -3.3533
 6378SOL    HW226250  12.110  10.736   2.272 -2.0990 -0.3601 -0.8261
 6379SOL     OW26251  10.527   0.239   2.384 -0.6741  0.6496 -0.5993
 6379SOL    HW126252  10.551   0.191   2.304 -0.0848  1.2882 -0.8167
 6379SOL    HW226253  10.476   0.176   2.435 -0.0176 -0.1749 -0.9303
 6380SOL     OW26254   6.723   7.705   6.332 -0.0481  0.1847  0.1047
 6380SOL    HW126255   6.811   7.672   6.313  0.1746  0.9007 -0.1186
 6380SOL    HW226256   6.670   7.676   6.258 -0.4065 -1.7053  1.0257
 6381SOL     OW26257   8.965   1.266   0.009 -0.1089  0.0146  0.1489
 6381SOL    HW126258   8.883   1.217   0.007  0.7219 -1.6534  2.6569
 6381SOL    HW226259   8.967   1.313  -0.074 -2.3602 -1.9390 -1.1244
 6382SOL     OW26260  12.548  11.210   7.587  0.4758  0.5215 -0.3411
 6382SOL    HW126261  12.500  11.152   7.528 -0.4350 -0.5693  1.3805
 6382SOL    HW226262  12.483  11.273   7.616  0.0919 -0.7144  1.6847
 6383SOL     OW26263   0.624   3.316   8.909 -0.0006  0.2559  0.2653
 6383SOL    HW126264   0.577   3.354   8.835 -0.0748 -0.4295 -0.0452
 6383SOL    HW226265   0.707   3.365   8.912  0.7615 -0.8348 -1.3651
 6384SOL     OW26266  10.672  12.953   6.771  0.3977  0.4645 -0.3912
 6384SOL    HW126267  10.597  12.901   6.800  0.3160  0.8513  0.0988
 6384SOL    HW226268  10.654  12.972   6.679 -0.6304  1.4576 -0.0032
 6385SOL     OW26269   5.127   4.272   4.138 -0.0997 -0.8586  0.6144
 6385SOL    HW126270   5.090   4.304   4.056 -2.2004  0.2348  1.8992
 6385SOL    HW226271   5.198   4.333   4.158  1.2615 -1.8387 -0.9143
 6386SOL     OW26272  10.115   9.007   9.060 -0.4885 -0.1119  0.5267
 6386SOL    HW126273  10.160   8.953   8.996 -0.6090  0.8041 -0.3465
 6386SOL    HW226274  10.038   8.956   9.084 -1.2272  0.1532 -1.1591
 6387SOL     OW26275   2.217  12.629   5.370  0.3974  0.0825 -0.0311
 6387SOL    HW126276   2.308  12.655   5.358  0.8769 -0.2836  2.3122
 6387SOL    HW226277   2.221  12.535   5.388 -0.5912 -0.1962 -1.1809
 6388SOL     OW26278  12.750   0.178   4.144 -0.1058 -0.5999 -0.1067
 6388SOL    HW126279  12.730   0.271   4.154 -0.1304 -0.6102 -0.0644
 6388SOL    HW226280  12.728   0.158   4.053  1.4061 -0.1725 -0.6097
 6389SOL     OW26281   6.115   3.431   7.940  0.1608 -0.1365  0.2398
 6389SOL    HW126282   6.195   3.406   7.986 -0.2153 -1.2475  0.3229
 6389SOL    HW226283   6.083   3.349   7.901 -1.8518 -0.0933  1.6418
 6390SOL     OW26284   0.453   3.529   0.555  0.2009  0.4179  0.0334
 6390SOL    HW126285   0.534   3.514   0.604  2.2003  2.8239 -2.2379
 6390SOL    HW226286   0.385   3.485   0.607  2.9655 -2.1978  1.8029
 6391SOL     OW26287   5.906  11.559  12.902 -0.0816  0.0910  0.2566
 6391SOL    HW126288   5.825  11.553  12.851 -1.0549  0.7062  1.6511
 6391SOL    HW226289   5.888  11.626  12.968  2.2261  1.5445 -0.4850
 6392SOL     OW26290  11.731   0.219   9.789  0.5990  0.1681 -0.5698
 6392SOL    HW126291  11.734   0.131   9.827  1.5494  0.3954 -0.0573
 6392SOL    HW226292  11.751   0.277   9.863 -0.2171  0.8292 -0.8594
 6393SOL     OW26293   6.699   5.741   6.047 -0.1414  0.2785  0.5673
 6393SOL    HW126294   6.777   5.688   6.064 -0.3917 -0.0570  0.6810
 6393SOL    HW226295   6.626   5.680   6.056 -0.3659  0.3811 -0.4329
 6394SOL     OW26296   2.554   2.743   3.481  0.5602  0.1426 -0.9255
 6394SOL    HW126297   2.582   2.757   3.390 -0.4804 -0.7778 -1.4164
 6394SOL    HW226298   2.580   2.652   3.499  0.7666  0.3264 -0.2935
 6395SOL     OW26299   4.062   8.887  10.312 -0.1982 -0.2256  0.2448
 6395SOL    HW126300   4.134   8.921  10.260  0.6446  0.1941  1.6319
 6395SOL    HW226301   4.087   8.904  10.402 -1.0521 -1.9808  0.8737
 6396SOL     OW26302  11.552   3.003   2.654 -0.2655  0.0277 -0.2222
 6396SOL    HW126303  11.597   2.947   2.717  0.5743  0.3788 -0.4875
 6396SOL    HW226304  11.603   2.994   2.573 -0.5808  0.5549 -0.4903
 6397SOL     OW26305  10.941   1.564   6.431 -0.3661  0.1430 -0.1591
 6397SOL    HW126306  10.862   1.609   6.401 -1.0368  0.6428  2.1145
 6397SOL    HW226307  11.012   1.599   6.378 -1.5262  0.4493 -1.5383
 6398SOL     OW26308  11.681   0.436   9.311  0.4542 -0.9419  0.4177
 6398SOL    HW126309  11.603   0.435   9.367  1.0396  1.3450  1.4382
 6398SOL    HW226310  11.675   0.357   9.258 -3.5930  0.0771 -0.9771
 6399SOL     OW26311  11.758   0.386  10.643  0.7922  0.0282 -0.7668
 6399SOL    HW126312  11.836   0.369  10.696 -0.1259  0.4366  0.7803
 6399SOL    HW226313  11.753   0.482  10.639 -0.3181  0.0357  0.2606
 6400SOL     OW26314   8.681   1.398   2.096  0.3155 -0.1032 -0.2299
 6400SOL    HW126315   8.728   1.465   2.047 -0.8468  0.5403 -0.4905
 6400SOL    HW226316   8.607   1.444   2.136 -0.8609 -1.3337 -0.9007
 6401SOL     OW26317   5.613   6.378   5.880 -0.1270  0.1059 -0.2836
 6401SOL    HW126318   5.554   6.350   5.950  0.0686 -1.4720 -0.7190
 6401SOL    HW226319   5.699   6.343   5.905  0.5451  1.9028  0.0574
 6402SOL     OW26320  10.091   1.049   0.020  0.4560 -0.1771 -0.3114
 6402SOL    HW126321  10.085   1.114   0.090  1.2424 -0.6881  0.2404
 6402SOL    HW226322  10.072   0.965   0.063 -1.4294 -0.2533 -1.1823
 6403SOL     OW26323  10.393   7.709   3.430  0.1972 -0.5373  0.4281
 6403SOL    HW126324  10.307   7.688   3.394  0.3993 -0.0997 -0.3508
 6403SOL    HW226325  10.436   7.625   3.441  0.2438 -0.6713 -0.6932
 6404SOL     OW26326  12.100  11.573   8.198 -0.7474 -0.2823  0.1323
 6404SOL    HW126327  12.111  11.564   8.293 -1.6688  0.9751  0.3809
 6404SOL    HW226328  12.105  11.667   8.182  2.6274 -0.5945 -1.5324
 6405SOL     OW26329   1.509   6.925   6.080  0.3773 -0.2988 -0.0472
 6405SOL    HW126330   1.567   6.849   6.083  1.8621  0.7874 -0.2555
 6405SOL    HW226331   1.561   6.997   6.116 -0.3501  1.0215 -1.5300
 6406SOL     OW26332   2.249   4.329   3.784 -0.1001  0.1333 -1.0145
 6406SOL    HW126333   2.187   4.256   3.793  0.5546 -0.5865 -2.0455
 6406SOL    HW226334   2.333   4.292   3.813 -0.0082  0.8876 -0.2930
 6407SOL     OW26335   0.466   6.580   2.860 -0.0514  0.4611  0.2113
 6407SOL    HW126336   0.454   6.671   2.834 -0.7916  1.1640  2.7391
 6407SOL    HW226337   0.545   6.580   2.913  0.3001 -0.5101 -0.2881
 6408SOL     OW26338   3.614   6.063   8.422  0.0915  0.4400 -0.2268
 6408SOL    HW126339   3.554   6.128   8.386  0.7453  1.1428 -0.0742
 6408SOL    HW226340   3.646   6.015   8.346  0.6061  1.1773 -0.4904
 6409SOL     OW26341   8.143   1.966   7.331  0.1441 -0.3650  0.3485
 6409SOL    HW126342   8.232   1.947   7.301  0.5273  0.7223  0.7462
 6409SOL    HW226343   8.132   1.914   7.410 -0.0774 -1.5500 -0.4411
 6410SOL     OW26344   7.684   7.859  11.760 -0.3187 -0.3323 -0.1656
 6410SOL    HW126345   7.750   7.798  11.792  0.1864  0.5570  0.5573
 6410SOL    HW226346   7.605   7.838  11.811  0.0751  0.1110  0.6529
 6411SOL     OW26347   9.945   8.744   0.120 -1.1408  0.1223 -0.5136
 6411SOL    HW126348   9.951   8.831   0.159 -0.0600 -0.8036  1.4974
 6411SOL    HW226349   9.994   8.751   0.038  1.0580  0.8393  0.7893
 6412SOL     OW26350   1.322   0.977  12.049  0.1802  0.4252  0.0073
 6412SOL    HW126351   1.330   0.943  12.139 -0.5312 -0.6600 -0.3205
 6412SOL    HW226352   1.230   0.961  12.026  0.8561 -1.3482 -1.6895
 6413SOL     OW26353   2.898   8.526   0.109  0.4564 -0.2876  0.1077
 6413SOL    HW126354   2.948   8.509   0.189 -0.5352 -1.6914  0.4513
 6413SOL    HW226355   2.892   8.441   0.066 -0.7026  0.0734 -0.4688
 6414SOL     OW26356   5.034   4.093   2.787  0.2113  0.0274 -0.0795
 6414SOL    HW126357   5.086   4.020   2.822  0.6527 -0.5284 -1.8058
 6414SOL    HW226358   5.009   4.143   2.865  1.1566 -1.1262  1.0250
 6415SOL     OW26359   8.030   3.900  10.073 -0.9894  0.0201  0.0957
 6415SOL    HW126360   8.067   3.836  10.012  0.1391  0.9507 -0.2304
 6415SOL    HW226361   8.033   3.983  10.026 -1.6668  0.4748  0.8145
 6416SOL     OW26362   8.628  12.113   2.925  0.3656 -0.1617 -0.2403
 6416SOL    HW126363   8.573  12.146   2.996 -1.1554  1.7968 -2.2121
 6416SOL    HW226364   8.707  12.166   2.929  0.3425 -0.1452  0.0408
 6417SOL     OW26365  10.434   3.609  11.522 -0.1441 -0.6157 -0.5893
 6417SOL    HW126366  10.406   3.680  11.466 -1.4928 -0.9791 -0.4094
 6417SOL    HW226367  10.368   3.605  11.592 -1.1663 -3.1687 -1.5814
 6418SOL     OW26368   1.486   6.852   8.718 -0.2718 -0.4125  0.1457
 6418SOL    HW126369   1.504   6.944   8.739 -0.7596 -0.4769  0.9087
 6418SOL    HW226370   1.493   6.807   8.802  1.7853 -1.4094 -0.4952
 6419SOL     OW26371   5.135   7.034   9.459  0.1390  0.0434  0.2683
 6419SOL    HW126372   5.133   7.103   9.393  0.1502 -0.4045 -0.2108
 6419SOL    HW226373   5.217   6.987   9.442  0.5294  0.4027  1.1057
 6420SOL     OW26374   1.007   2.431   1.373 -0.6112  0.0850 -0.0640
 6420SOL    HW126375   0.912   2.436   1.377 -0.6508  1.2527 -1.7375
 6420SOL    HW226376   1.031   2.476   1.292  1.3294 -0.7500 -0.0191
 6421SOL     OW26377   9.672   1.501   1.031  0.1359  0.0590  0.0460
 6421SOL    HW126378   9.732   1.506   1.106 -0.5874  0.4366  0.6109
 6421SOL    HW226379   9.656   1.593   1.007 -2.0495  0.1061  1.4133
 6422SOL     OW26380   8.847  10.621   3.065 -0.2556 -0.1283  0.0553
 6422SOL    HW126381   8.815  10.532   3.082 -2.4215  0.4667 -0.6808
 6422SOL    HW226382   8.830  10.668   3.147  0.7519 -0.3261  0.3925
 6423SOL     OW26383  12.299  12.778   6.116 -0.1306 -0.2138  0.4014
 6423SOL    HW126384  12.340  12.692   6.128  0.2806 -0.4144 -1.8559
 6423SOL    HW226385  12.356  12.839   6.164  1.3646 -0.8513 -0.4828
 6424SOL     OW26386   1.802   6.065  10.229  0.1687 -0.2301  0.2984
 6424SOL    HW126387   1.744   5.989  10.219  1.8840 -1.4428 -0.9271
 6424SOL    HW226388   1.763   6.114  10.301 -1.4381 -1.8649  0.6378
 6425SOL     OW26389   6.238   2.286   5.655  0.0625  0.2013 -0.0211
 6425SOL    HW126390   6.292   2.235   5.716  1.6849  1.3422 -0.4491
 6425SOL    HW226391   6.256   2.377   5.677 -1.7696  0.6470 -0.1564
 6426SOL     OW26392   5.182   9.428  12.373  0.5050  0.3179  0.2519
 6426SOL    HW126393   5.222   9.498  12.425  2.2944 -1.6995  1.7771
 6426SOL    HW226394   5.238   9.352  12.388 -0.8850 -1.2639 -1.9862
 6427SOL     OW26395   8.651  12.137  11.168 -0.0958 -0.4583  0.0288
 6427SOL    HW126396   8.586  12.124  11.237  0.1335 -2.2103 -0.0258
 6427SOL    HW226397   8.735  12.127  11.213  0.2555  2.6046  0.2640
 6428SOL     OW26398   6.215   7.993   9.750  0.4007 -0.3724  0.2874
 6428SOL    HW126399   6.250   8.032   9.830 -0.0238 -0.7158  0.6444
 6428SOL    HW226400   6.279   8.015   9.683  1.7643 -1.7166  1.0866
 6429SOL     OW26401   9.950  12.386   6.753  1.0752 -1.0644 -0.3004
 6429SOL    HW126402  10.032  12.410   6.796 -0.1327 -2.2837  3.0089
 6429SOL    HW226403   9.895  12.463   6.761  2.1729  0.3085 -3.8542
 6430SOL     OW26404  11.988  12.552  12.477  0.2280 -0.7251 -0.2280
 6430SOL    HW126405  11.962  12.466  12.441 -1.5188  0.2983 -1.6132
 6430SOL    HW226406  11.905  12.598  12.489  1.1479  0.8577  0.2779
 6431SOL     OW26407   0.564   3.737  10.504 -0.2349 -0.2333 -0.1863
 6431SOL    HW126408   0.604   3.823  10.487 -0.4719  0.6911  3.2295
 6431SOL    HW226409   0.487   3.736  10.448  0.7190  1.0002 -1.6199
 6432SOL     OW26410   3.420  11.568   3.312  0.1092  0.4116 -0.1237
 6432SOL    HW126411   3.389  11.478   3.311  2.4787 -0.4549  0.3347
 6432SOL    HW226412   3.371  11.611   3.241 -1.0340 -1.1962 -0.3607
 6433SOL     OW26413   1.862   9.329   6.230 -0.0945 -0.2571 -0.0969
 6433SOL    HW126414   1.770   9.354   6.222 -0.1862 -0.3951  0.4471
 6433SOL    HW226415   1.891   9.373   6.311  0.3886 -0.0022 -0.4051
 6434SOL     OW26416   1.604   8.522   4.983  0.7001 -0.2685  0.4066
 6434SOL    HW126417   1.539   8.581   4.945 -0.5145 -0.5725  1.9132
 6434SOL    HW226418   1.688   8.562   4.963  0.0789  0.0852 -1.6896
 6435SOL     OW26419   6.098  12.533   1.484 -0.1110 -0.4231  0.2503
 6435SOL    HW126420   6.186  12.552   1.451 -1.0367  0.9848 -1.6522
 6435SOL    HW226421   6.096  12.570   1.572  2.0319 -3.0061  1.5127
 6436SOL     OW26422   8.090  12.379   5.045  0.1940  0.3786  0.8838
 6436SOL    HW126423   8.159  12.441   5.069 -1.1712  1.5937  1.8053
 6436SOL    HW226424   8.039  12.425   4.979 -0.8403  0.2572  1.5843
 6437SOL     OW26425   3.613   1.780   8.513  0.4367 -0.0341  0.0925
 6437SOL    HW126426   3.688   1.721   8.511  0.6021  0.1242  1.0646
 6437SOL    HW226427   3.631   1.843   8.443 -0.1352 -1.5549 -1.4974
 6438SOL     OW26428   4.867   4.777  10.204 -0.1169 -0.1189  0.0137
 6438SOL    HW126429   4.859   4.872  10.209 -0.0085 -0.1274  0.3199
 6438SOL    HW226430   4.925   4.753  10.277 -1.1278 -0.5472  0.6895
 6439SOL     OW26431  10.985   4.607   4.682  0.4602  0.2883  0.0491
 6439SOL    HW126432  10.991   4.524   4.635 -1.1183  0.5797 -0.7613
 6439SOL    HW226433  11.001   4.585   4.773  0.3451 -0.8586 -0.1985
 6440SOL     OW26434   6.892   8.990   8.096 -0.4437  0.3230 -0.6275
 6440SOL    HW126435   6.937   9.072   8.118  1.1615 -0.8160  0.5598
 6440SOL    HW226436   6.829   8.978   8.167  0.6678 -0.4015  0.2751
 6441SOL     OW26437   8.195   8.519   9.046 -0.0937 -0.1212 -0.3122
 6441SOL    HW126438   8.149   8.499   9.128 -0.2649 -0.4886 -0.4935
 6441SOL    HW226439   8.135   8.490   8.978  0.7654 -1.4464 -0.5424
 6442SOL     OW26440  11.413   1.737   3.112  0.5274 -0.0631 -0.2984
 6442SOL    HW126441  11.409   1.828   3.083  0.9687  0.6833  1.8149
 6442SOL    HW226442  11.334   1.725   3.164  0.1542 -1.1086 -1.0627
 6443SOL     OW26443   2.930   6.900   4.026  0.0615  0.5075 -0.3148
 6443SOL    HW126444   2.953   6.911   3.934 -3.4068  0.7578 -1.2949
 6443SOL    HW226445   2.895   6.811   4.031 -3.0390  1.6061 -0.1800
 6444SOL     OW26446  12.499   2.817   4.377  0.3147  0.0660 -0.0678
 6444SOL    HW126447  12.530   2.884   4.438 -0.7022  2.5696 -2.1281
 6444SOL    HW226448  12.403   2.826   4.378 -0.1416 -3.2734  1.5369
 6445SOL     OW26449  11.674   4.107   8.531 -0.0229  0.1704  0.1153
 6445SOL    HW126450  11.659   4.200   8.517  0.1080  0.3851  1.2769
 6445SOL    HW226451  11.768   4.101   8.550  0.5885 -0.5784 -2.6374
 6446SOL     OW26452   9.566   3.633   1.236 -0.3375  0.0342 -0.0330
 6446SOL    HW126453   9.599   3.581   1.310 -0.3883 -1.1086 -0.7883
 6446SOL    HW226454   9.556   3.570   1.165  2.6454  1.5531 -2.0348
 6447SOL     OW26455   2.188   3.389   8.562 -0.4336  0.3184  0.8962
 6447SOL    HW126456   2.102   3.417   8.531 -0.0950  0.2732 -0.1378
 6447SOL    HW226457   2.225   3.467   8.603 -1.9489 -0.3165  3.7079
 6448SOL     OW26458   5.693   9.060   5.430 -0.5283 -0.0668 -0.2021
 6448SOL    HW126459   5.744   8.988   5.467 -0.7371 -0.4236 -0.6042
 6448SOL    HW226460   5.605   9.023   5.417 -1.7685  1.2862  3.1405
 6449SOL     OW26461  11.668   5.949  10.550  0.2257 -0.0224  0.0366
 6449SOL    HW126462  11.574   5.949  10.565  0.2282 -0.4358  0.0738
 6449SOL    HW226463  11.687   6.036  10.514 -0.3487 -0.3119 -1.0245
 6450SOL     OW26464   5.341   1.716   1.061  0.4016 -0.0655 -0.0273
 6450SOL    HW126465   5.267   1.722   1.000  1.2516  0.1312 -1.0691
 6450SOL    HW226466   5.336   1.627   1.096 -0.1781 -0.1416 -0.2867
 6451SOL     OW26467  10.751   2.683  10.091 -0.1148 -0.1581 -0.3408
 6451SOL    HW126468  10.778   2.606  10.141 -0.7146  0.7500  1.4591
 6451SOL    HW226469  10.689   2.729  10.148 -0.6522  1.0740 -1.8295
 6452SOL     OW26470  11.942   7.959   8.486 -0.0902  0.0789  0.7370
 6452SOL    HW126471  12.002   7.910   8.542  0.5382  0.7696  0.6807
 6452SOL    HW226472  11.959   7.926   8.398  1.2303  1.2396  0.5185
 6453SOL     OW26473   4.936   7.806   2.117  0.2510  0.1461 -0.2825
 6453SOL    HW126474   5.020   7.829   2.158 -0.8671  1.9371  1.1936
 6453SOL    HW226475   4.897   7.742   2.177  0.2324 -0.0979 -0.5546
 6454SOL     OW26476   7.540   5.325   0.427 -0.4848  0.1006  0.2453
 6454SOL    HW126477   7.525   5.419   0.431 -1.7354 -0.0288 -0.7655
 6454SOL    HW226478   7.625   5.312   0.469 -0.5650  1.6018  0.9299
 6455SOL     OW26479   3.413   3.197  12.738  0.3891 -0.1626  0.1045
 6455SOL    HW126480   3.508   3.190  12.745  0.5077  0.1632 -0.9921
 6455SOL    HW226481   3.398   3.279  12.692 -0.4620  0.1204  0.8476
 6456SOL     OW26482   0.795   2.748   9.722 -0.2863  0.3961  0.2423
 6456SOL    HW126483   0.767   2.837   9.745  1.0303  0.8763  0.0938
 6456SOL    HW226484   0.838   2.715   9.802 -1.0411 -0.2377  0.3986
 6457SOL     OW26485  12.349  12.862   7.436  0.5003 -0.1657  0.3143
 6457SOL    HW126486  12.274  12.902   7.480  0.7082 -1.1683  1.6485
 6457SOL    HW226487  12.384  12.800   7.500  0.3502 -2.2951 -1.5312
 6458SOL     OW26488   6.427   2.770   7.991 -0.1945  0.0249  0.4679
 6458SOL    HW126489   6.405   2.863   7.996  0.9637  0.2600  1.3353
 6458SOL    HW226490   6.468   2.760   7.905 -1.2658  0.0778 -0.0810
 6459SOL     OW26491   7.376   0.873   6.465  0.0386 -0.0868  0.3405
 6459SOL    HW126492   7.434   0.857   6.390 -1.2301 -0.0277 -0.6868
 6459SOL    HW226493   7.405   0.956   6.501  0.0024  0.4186 -0.7517
 6460SOL     OW26494  10.133   5.299   6.895  0.0725 -0.1049  0.1120
 6460SOL    HW126495  10.098   5.315   6.982 -0.5764  0.3182 -0.2215
 6460SOL    HW226496  10.131   5.204   6.885 -1.0839 -0.0915  0.0683
 6461SOL     OW26497   7.838   5.963   3.102 -0.2372 -0.8628 -0.3227
 6461SOL    HW126498   7.750   5.948   3.138 -1.6718  1.1086 -2.6563
 6461SOL    HW226499   7.830   5.934   3.011  1.8667 -1.5021 -0.3398
 6462SOL     OW26500   5.268   4.874   6.952 -0.2761  0.7160 -0.1854
 6462SOL    HW126501   5.247   4.846   6.863  1.2310 -1.3997  0.0679
 6462SOL    HW226502   5.291   4.967   6.943  0.3632  0.4145 -2.0889
 6463SOL     OW26503  11.268  12.841   1.271 -0.4570  0.4323 -0.5971
 6463SOL    HW126504  11.277  12.931   1.301  0.1287  0.2190 -0.1240
 6463SOL    HW226505  11.214  12.848   1.192 -0.5772  1.1721 -0.4619
 6464SOL     OW26506   6.904   7.710  11.900  0.0380  0.7169  0.1081
 6464SOL    HW126507   6.942   7.652  11.966  0.6559  0.4928 -0.4332
 6464SOL    HW226508   6.871   7.785  11.950 -0.3807  0.1042  0.7678
 6465SOL     OW26509   0.283   7.606  11.626  0.0354  0.3615  0.0909
 6465SOL    HW126510   0.212   7.551  11.591  1.0804  0.1725 -1.8627
 6465SOL    HW226511   0.356   7.545  11.638  0.6391  0.9902 -0.3465
 6466SOL     OW26512   8.831   9.620   6.237  0.0773 -0.1738 -0.4317
 6466SOL    HW126513   8.826   9.714   6.226  0.3889 -0.1157 -0.1070
 6466SOL    HW226514   8.912   9.594   6.191  0.1181 -0.2480 -0.3193
 6467SOL     OW26515   8.257   3.297   0.074 -0.1658 -0.1632 -0.2194
 6467SOL    HW126516   8.172   3.262   0.101 -0.1579 -0.3675 -0.4587
 6467SOL    HW226517   8.243   3.324  -0.017 -0.2076  0.5653 -0.0058
 6468SOL     OW26518   4.780   0.174   9.339 -0.8050  0.1994  0.0373
 6468SOL    HW126519   4.828   0.097   9.371 -2.0298 -0.2804  0.7952
 6468SOL    HW226520   4.839   0.248   9.355 -0.4531 -0.3225  1.2758
 6469SOL     OW26521   3.864   3.642   5.376  0.7114  0.0267 -0.1937
 6469SOL    HW126522   3.923   3.686   5.314  1.3188  0.8411  0.9172
 6469SOL    HW226523   3.813   3.713   5.415 -1.7503 -0.7423 -1.8104
 6470SOL     OW26524  12.956   7.611   3.565 -0.0242 -0.1823 -0.2302
 6470SOL    HW126525  13.039   7.646   3.596 -0.7492  3.0322 -1.4446
 6470SOL    HW226526  12.894   7.683   3.577 -1.7934 -1.1505 -2.7133
 6471SOL     OW26527   1.061   0.762   2.258 -0.2796 -0.0358 -0.2756
 6471SOL    HW126528   1.067   0.852   2.292  1.7610 -0.4298  0.6071
 6471SOL    HW226529   1.140   0.753   2.204 -1.7136 -0.5573 -2.3920
 6472SOL     OW26530  10.412  12.521   9.640  0.7077 -0.1132  0.4104
 6472SOL    HW126531  10.429  12.491   9.730 -0.4559 -2.2913 -0.0329
 6472SOL    HW226532  10.497  12.513   9.596  0.9792 -0.4045  0.9677
 6473SOL     OW26533  12.703   8.293  12.694  0.8038  0.0035 -0.0541
 6473SOL    HW126534  12.718   8.204  12.724  0.5708  0.6813  2.2194
 6473SOL    HW226535  12.619   8.318  12.733  0.7532  1.1482 -0.8432
 6474SOL     OW26536   0.580   1.741   3.500  0.6646 -0.2342 -0.4531
 6474SOL    HW126537   0.613   1.769   3.585  1.1057 -0.1771 -0.6423
 6474SOL    HW226538   0.575   1.822   3.448 -2.2355  0.2154  0.3622
 6475SOL     OW26539   2.813   1.319  10.451  0.1417  0.0595 -0.5186
 6475SOL    HW126540   2.880   1.386  10.466  0.5441 -0.7001  1.4812
 6475SOL    HW226541   2.862   1.238  10.442 -0.3865 -0.1114 -2.1369
 6476SOL     OW26542  12.259   0.260   9.815  0.2279 -0.2899  0.7073
 6476SOL    HW126543  12.304   0.217   9.742 -1.1573  0.2885 -0.5654
 6476SOL    HW226544  12.216   0.189   9.862  0.1671 -0.5649  0.2415
 6477SOL     OW26545  11.878   6.149   5.363 -0.7613  0.7476 -0.0450
 6477SOL    HW126546  11.906   6.164   5.272 -1.2446  1.7384 -0.0441
 6477SOL    HW226547  11.950   6.098   5.402 -1.1395 -0.8862 -1.3376
 6478SOL     OW26548   2.761   4.633   9.107  0.1796  0.0404  0.2346
 6478SOL    HW126549   2.829   4.588   9.157 -0.4182 -1.6124 -0.3682
 6478SOL    HW226550   2.734   4.569   9.041 -1.3133  0.9921 -0.1183
 6479SOL     OW26551   4.935   0.887   9.522  0.1861  0.6305 -0.3495
 6479SOL    HW126552   4.886   0.968   9.536 -0.8135  0.4535 -2.4594
 6479SOL    HW226553   5.020   0.915   9.488  0.1928  0.8190 -0.1781
 6480SOL     OW26554   1.758   9.585   5.268 -0.5755  0.6523 -0.6662
 6480SOL    HW126555   1.729   9.538   5.346 -1.4823 -1.7226 -2.3241
 6480SOL    HW226556   1.850   9.606   5.285 -0.0338 -2.0012  0.0985
 6481SOL     OW26557   7.169   6.603   0.698  0.3579 -0.0458 -0.0377
 6481SOL    HW126558   7.077   6.631   0.690  0.6004  1.4601  1.7061
 6481SOL    HW226559   7.173   6.561   0.784  1.1260 -0.8675 -0.4716
 6482SOL     OW26560   3.420  11.422   8.482  0.3461  0.0747 -0.5861
 6482SOL    HW126561   3.448  11.338   8.521 -1.1450 -0.9479 -1.6195
 6482SOL    HW226562   3.492  11.445   8.423  1.1171 -0.0691  0.2740
 6483SOL     OW26563   0.589  11.921   2.387 -0.1634  0.0407  0.1091
 6483SOL    HW126564   0.545  11.844   2.422 -0.2017  0.8906  2.0466
 6483SOL    HW226565   0.679  11.915   2.421 -0.5519  1.5471  1.5225
 6484SOL     OW26566   7.027   1.245  12.740  0.0801  0.1957 -0.3943
 6484SOL    HW126567   7.115   1.267  12.770  0.1209  2.1703 -1.7516
 6484SOL    HW226568   7.038   1.223  12.648 -0.3088 -3.8889  0.3458
 6485SOL     OW26569  11.573   2.323   0.196 -0.0164  0.0822  0.0749
 6485SOL    HW126570  11.484   2.299   0.168 -0.0771 -0.4510  0.6953
 6485SOL    HW226571  11.612   2.240   0.225  0.1253  0.5663  1.3072
 6486SOL     OW26572   2.252   5.854  12.091 -0.2032 -0.4194 -0.3233
 6486SOL    HW126573   2.246   5.817  12.003 -0.6982  2.0845 -1.4196
 6486SOL    HW226574   2.167   5.896  12.106  0.6376  1.1093  0.4025
 6487SOL     OW26575   9.157   1.773   6.444 -0.0079 -0.0067  0.4046
 6487SOL    HW126576   9.250   1.797   6.439 -0.0121 -0.2269 -2.8765
 6487SOL    HW226577   9.110   1.855   6.428 -0.4554  0.1154  2.1174
 6488SOL     OW26578  10.634   8.486   9.952  0.5235 -0.4599  0.7649
 6488SOL    HW126579  10.586   8.497   9.870 -0.2495  0.3559  1.2955
 6488SOL    HW226580  10.568   8.502  10.020  2.1696  4.5660  1.5895
 6489SOL     OW26581  12.490   4.043   9.473 -0.5745 -0.9816  0.3706
 6489SOL    HW126582  12.419   4.108   9.479  0.1814 -0.1006 -0.0382
 6489SOL    HW226583  12.568   4.090   9.504 -0.3288 -2.2352  1.7641
 6490SOL     OW26584   2.217   9.718   0.210 -0.0971  0.3234 -0.1791
 6490SOL    HW126585   2.131   9.706   0.170  0.4888 -0.1247 -1.3489
 6490SOL    HW226586   2.198   9.737   0.302 -1.4174 -0.7216 -0.2036
 6491SOL     OW26587   3.749  11.028   6.400  0.0441  0.0693 -0.2550
 6491SOL    HW126588   3.810  11.092   6.436 -0.6542  0.1693  0.8260
 6491SOL    HW226589   3.787  11.001   6.317  0.7579  1.2801 -0.3392
 6492SOL     OW26590   5.010   3.627   1.855 -0.5226  0.2781  0.0725
 6492SOL    HW126591   5.020   3.541   1.895 -1.1222  1.0802  2.0319
 6492SOL    HW226592   4.945   3.614   1.786 -0.0800 -0.9599 -0.1381
 6493SOL     OW26593   3.451  10.720   7.269 -0.3588  0.1504 -0.1154
 6493SOL    HW126594   3.488  10.643   7.226 -0.2430  0.9275 -1.4508
 6493SOL    HW226595   3.373  10.741   7.218 -0.4390  0.8683  0.2900
 6494SOL     OW26596  11.410  11.537  10.084  0.2989 -0.3997 -0.2305
 6494SOL    HW126597  11.385  11.446  10.067  0.7084 -0.5419 -0.1041
 6494SOL    HW226598  11.444  11.535  10.174 -1.2720  0.2130  0.4024
 6495SOL     OW26599   5.674   2.644   0.221 -0.2060 -0.1281  0.6932
 6495SOL    HW126600   5.605   2.589   0.185  0.5120 -1.5227  1.3867
 6495SOL    HW226601   5.641   2.670   0.308 -0.7376  0.9488  0.1911
 6496SOL     OW26602   5.795   2.454   3.130 -0.5058 -0.3594  0.1777
 6496SOL    HW126603   5.738   2.393   3.176 -1.1844  0.2958  0.2314
 6496SOL    HW226604   5.862   2.477   3.194 -1.7517  0.9697  1.0634
 6497SOL     OW26605   7.691   4.816  10.606 -0.0007 -0.0323 -0.7028
 6497SOL    HW126606   7.650   4.898  10.634 -0.1288 -0.5265  0.6005
 6497SOL    HW226607   7.697   4.763  10.685 -0.7940 -1.6815 -1.6748
 6498SOL     OW26608   7.021   1.226   7.928 -0.1238  0.9023 -0.3029
 6498SOL    HW126609   7.004   1.319   7.942  1.6357  1.3873 -1.0370
 6498SOL    HW226610   7.116   1.218   7.937 -0.2882 -0.8864  0.0480
 6499SOL     OW26611   2.086   4.802   2.892  0.7706  0.2366 -0.3544
 6499SOL    HW126612   2.101   4.799   2.986  0.7743 -1.0626 -0.3681
 6499SOL    HW226613   1.991   4.810   2.882  0.5288 -1.8572 -0.1954
 6500SOL     OW26614   8.849   8.757   3.366  0.4414  0.1846  0.2759
 6500SOL    HW126615   8.885   8.739   3.279  0.4839 -0.8805  0.4987
 6500SOL    HW226616   8.754   8.757   3.353  0.4068 -0.9694  0.3840
 6501SOL     OW26617   1.752   2.444   2.281 -0.3045  0.0189  0.5496
 6501SOL    HW126618   1.798   2.363   2.301 -1.2003 -0.5223  0.4979
 6501SOL    HW226619   1.802   2.483   2.210  0.0162 -0.6041  0.4229
 6502SOL     OW26620   3.086   4.592   1.199  0.5038 -0.1059  0.3037
 6502SOL    HW126621   3.067   4.498   1.198  0.7002 -0.1453 -0.8824
 6502SOL    HW226622   3.043   4.626   1.121  0.4675  0.7950  0.6972
 6503SOL     OW26623   5.019   9.060   9.904 -0.0979 -0.0922 -0.2933
 6503SOL    HW126624   4.924   9.058   9.915 -0.4478 -0.9033 -2.7572
 6503SOL    HW226625   5.040   8.973   9.869  1.5671  0.1061  0.1318
 6504SOL     OW26626   2.507  10.028   3.216  0.0180 -0.6206  0.1788
 6504SOL    HW126627   2.418  10.061   3.207  0.8192  1.9947  0.8726
 6504SOL    HW226628   2.513   9.999   3.306 -0.5117 -2.2099 -0.2671
 6505SOL     OW26629   6.379   7.198   6.756  0.1259  0.5296  0.7310
 6505SOL    HW126630   6.384   7.132   6.825 -2.1087 -0.3911  0.1092
 6505SOL    HW226631   6.286   7.220   6.750  0.3592  1.2141 -1.3763
 6506SOL     OW26632   9.061  10.061   5.193  0.2034  0.2643 -0.1417
 6506SOL    HW126633   9.107  10.008   5.259  0.4221  1.9054  1.0966
 6506SOL    HW226634   9.117  10.138   5.182 -0.3869  0.5226 -1.4688
 6507SOL     OW26635   5.054  11.779   1.086 -0.4005  0.0573  0.4077
 6507SOL    HW126636   4.979  11.813   1.135 -0.1463 -0.8763  1.4816
 6507SOL    HW226637   5.016  11.723   1.019 -0.6672 -0.8219  1.2720
 6508SOL     OW26638   3.956   2.569   9.957  0.0756 -0.1178  0.1723
 6508SOL    HW126639   4.011   2.644   9.978  0.4157  0.9471 -3.6648
 6508SOL    HW226640   4.017   2.496   9.946  0.5383  0.4767 -1.6163
 6509SOL     OW26641   6.027   8.370   7.611 -0.5964  0.3054 -0.0314
 6509SOL    HW126642   6.115   8.335   7.623 -0.3477  1.1911  0.8528
 6509SOL    HW226643   6.038   8.465   7.614 -1.3560  0.4933 -1.5712
 6510SOL     OW26644   7.699   7.921   6.115 -0.0954 -0.6233  0.3249
 6510SOL    HW126645   7.622   7.950   6.164 -0.0253  0.2113 -0.0356
 6510SOL    HW226646   7.772   7.932   6.175 -0.1625 -0.7395  0.4283
 6511SOL     OW26647   6.651   0.604   9.103  0.5561  0.1589 -0.4028
 6511SOL    HW126648   6.719   0.617   9.168 -0.9431  0.8091  1.1209
 6511SOL    HW226649   6.611   0.520   9.128  0.3396  0.1379 -0.8185
 6512SOL     OW26650   0.185   5.012  11.702  0.1495  0.0147  0.7076
 6512SOL    HW126651   0.134   4.941  11.739  0.6492 -0.1741  1.0451
 6512SOL    HW226652   0.238   5.045  11.775 -1.5048  2.0632  1.0990
 6513SOL     OW26653   1.471   3.039   1.714 -0.0945 -0.5110 -0.6212
 6513SOL    HW126654   1.431   3.039   1.801  0.3697 -0.4005 -0.4067
 6513SOL    HW226655   1.530   2.963   1.714  0.4953 -0.0594 -0.5625
 6514SOL     OW26656  11.676   7.174  11.153 -0.3647 -0.0928  0.0794
 6514SOL    HW126657  11.710   7.222  11.078 -0.5129 -0.3253 -0.1397
 6514SOL    HW226658  11.602   7.124  11.118  0.3018 -1.1409  0.1090
 6515SOL     OW26659   7.227   4.941   5.150  0.0920 -0.0237 -0.0626
 6515SOL    HW126660   7.300   4.983   5.194 -0.7739  0.4903  0.9212
 6515SOL    HW226661   7.256   4.851   5.136  1.2146  0.3800 -0.4273
 6516SOL     OW26662   9.171   9.507  12.466  0.0748  0.7016  0.1721
 6516SOL    HW126663   9.256   9.528  12.428  0.2939 -1.5661 -0.7651
 6516SOL    HW226664   9.123   9.464  12.395 -0.4957 -1.2927  1.6738
 6517SOL     OW26665   1.762   9.148   7.672  0.3143  0.0182  0.1253
 6517SOL    HW126666   1.719   9.210   7.614 -0.6753  0.1104  0.9224
 6517SOL    HW226667   1.787   9.200   7.749  0.5825 -0.3299  0.2784
 6518SOL     OW26668  11.182   3.315  10.061 -0.0743  0.6092  0.3517
 6518SOL    HW126669  11.098   3.283  10.094  0.1756 -0.0943  0.3155
 6518SOL    HW226670  11.245   3.249  10.088  0.8247  2.1209  2.2187
 6519SOL     OW26671  12.386  12.859   4.664 -0.2745 -0.1326  0.2246
 6519SOL    HW126672  12.336  12.804   4.724  0.8957 -2.5409 -0.9043
 6519SOL    HW226673  12.446  12.907   4.721 -0.5345 -0.8669  1.1561
 6520SOL     OW26674  10.623   1.565   4.732  0.1377  0.4082 -0.4472
 6520SOL    HW126675  10.639   1.486   4.680 -0.1075 -0.9436  1.4157
 6520SOL    HW226676  10.655   1.543   4.819 -2.2626  1.4004  0.7863
 6521SOL     OW26677   6.541   0.580   7.877 -0.4303 -0.0101 -0.5475
 6521SOL    HW126678   6.574   0.661   7.915  0.3623 -1.0001  0.9839
 6521SOL    HW226679   6.495   0.607   7.797  0.0979  1.8848 -0.2443
 6522SOL     OW26680  12.872   4.695   5.269  0.0029  0.0409  0.1088
 6522SOL    HW126681  12.877   4.721   5.360 -0.9264  0.1408  0.1393
 6522SOL    HW226682  12.877   4.777   5.220 -0.4925  0.0670  0.1059
 6523SOL     OW26683   1.475   2.040   8.813  0.0220 -0.3107  0.3863
 6523SOL    HW126684   1.431   1.956   8.801  2.0552 -1.8168  2.6969
 6523SOL    HW226685   1.568   2.020   8.809  0.6319  2.3008 -1.4453
 6524SOL     OW26686  11.626  11.320   7.952  0.2092  0.0324  0.0496
 6524SOL    HW126687  11.649  11.409   7.979  0.3404 -0.4532  1.6556
 6524SOL    HW226688  11.540  11.329   7.911  1.5088  1.3227 -2.6685
 6525SOL     OW26689  10.883   2.270  10.121  0.2085 -0.3147  0.4455
 6525SOL    HW126690  10.934   2.297  10.045 -0.7509 -0.1243 -0.1434
 6525SOL    HW226691  10.920   2.185  10.146  0.7581 -0.2138 -0.0009
 6526SOL     OW26692   3.992   8.228   1.918  0.1138 -0.5692  0.1150
 6526SOL    HW126693   3.999   8.318   1.885 -0.6965 -0.9675 -1.2475
 6526SOL    HW226694   4.049   8.226   1.994  0.1079  1.1157  0.2128
 6527SOL     OW26695  10.688   5.488   9.101 -0.6901  0.1874  0.1446
 6527SOL    HW126696  10.672   5.546   9.027  0.3284  1.1371  0.6390
 6527SOL    HW226697  10.761   5.433   9.072  0.4543  1.3006  0.8025
 6528SOL     OW26698   5.828   5.442   7.233  0.7582  0.2244  0.1475
 6528SOL    HW126699   5.874   5.373   7.186  2.7786  1.4944  0.1180
 6528SOL    HW226700   5.873   5.523   7.207 -0.8911  1.4664  0.9078
 6529SOL     OW26701   9.232   6.234   9.436 -0.0632  0.5608  0.1402
 6529SOL    HW126702   9.307   6.176   9.422 -0.9051 -0.0201 -2.7658
 6529SOL    HW226703   9.271   6.319   9.455  1.2959 -0.0557  0.2564
 6530SOL     OW26704   4.513   2.826   5.874 -0.4399 -0.0765 -0.3062
 6530SOL    HW126705   4.578   2.825   5.803 -0.4617 -0.6159 -0.3230
 6530SOL    HW226706   4.558   2.786   5.948 -0.6975 -0.2994 -0.2684
 6531SOL     OW26707   6.567   5.763   7.172 -0.1878  0.2304  0.1862
 6531SOL    HW126708   6.545   5.761   7.079 -1.7916 -0.1843  0.5400
 6531SOL    HW226709   6.569   5.671   7.198 -2.4172  0.3741  1.0967
 6532SOL     OW26710   4.555   3.635   7.675 -0.0187 -0.6293 -0.3775
 6532SOL    HW126711   4.465   3.603   7.666 -0.8140  1.0314  0.9150
 6532SOL    HW226712   4.572   3.683   7.594 -0.5108 -0.4987 -0.4085
 6533SOL     OW26713  11.995   5.216  11.750 -0.0081  0.4587  0.3884
 6533SOL    HW126714  11.931   5.198  11.681 -0.1340 -0.2104  0.6721
 6533SOL    HW226715  12.045   5.291  11.717 -0.5393  0.6029 -0.1035
 6534SOL     OW26716   9.436   2.356   4.039 -0.5267 -0.6768 -0.4333
 6534SOL    HW126717   9.429   2.450   4.027 -0.1902 -0.7053 -0.8734
 6534SOL    HW226718   9.395   2.319   3.961 -0.1286 -0.8914 -0.5394
 6535SOL     OW26719   5.091  10.958   5.633  0.0783 -0.1703 -0.0084
 6535SOL    HW126720   5.005  11.000   5.628 -0.2407 -0.9278 -1.2155
 6535SOL    HW226721   5.071  10.865   5.642  0.7793 -0.1915  1.6545
 6536SOL     OW26722   9.041   5.560   2.140 -0.1741 -0.5848 -0.1736
 6536SOL    HW126723   9.102   5.497   2.102  3.1235  1.9468  0.4874
 6536SOL    HW226724   9.031   5.532   2.231 -0.8965 -1.5932 -0.5457
 6537SOL     OW26725   7.762   1.587   8.275  0.2796  0.6138  0.3283
 6537SOL    HW126726   7.700   1.614   8.343  0.1549  2.0281 -0.3000
 6537SOL    HW226727   7.773   1.493   8.288 -1.6177  0.4052  0.7632
 6538SOL     OW26728   2.063   4.641  11.807 -0.2955  0.3947 -0.4463
 6538SOL    HW126729   2.058   4.561  11.755  0.4386  0.5240 -0.7210
 6538SOL    HW226730   2.147   4.635  11.852  0.7761  2.0047 -2.1254
 6539SOL     OW26731   6.549   1.700   4.751 -0.0108 -0.0049 -0.3484
 6539SOL    HW126732   6.482   1.636   4.774 -1.4292  1.5155 -0.0727
 6539SOL    HW226733   6.571   1.680   4.660 -1.1377 -0.2891 -0.5786
 6540SOL     OW26734  12.216   8.929  11.659 -0.0853  0.2056  0.5642
 6540SOL    HW126735  12.224   8.855  11.600 -0.4484 -1.1077  2.0939
 6540SOL    HW226736  12.194   9.003  11.602  0.8299 -0.7180 -1.0607
 6541SOL     OW26737  12.703   9.103   6.144 -0.1747 -0.0553  0.1901
 6541SOL    HW126738  12.623   9.155   6.146  1.3667  2.4740  0.0119
 6541SOL    HW226739  12.769   9.159   6.184  1.9607 -1.2151 -1.5127
 6542SOL     OW26740   3.822   0.389   6.912  0.0234 -0.3740 -0.0745
 6542SOL    HW126741   3.757   0.446   6.871  1.1763  0.4259 -0.8584
 6542SOL    HW226742   3.838   0.426   6.998  0.2715  0.1087 -0.3256
 6543SOL     OW26743   1.344   9.340   9.073  0.1729  0.2436 -0.0410
 6543SOL    HW126744   1.401   9.264   9.071  0.2204  0.2895 -0.5032
 6543SOL    HW226745   1.402   9.415   9.057  0.0481  0.3303 -0.0910
 6544SOL     OW26746   9.265   0.747   4.900 -0.0696 -0.3885 -0.1700
 6544SOL    HW126747   9.242   0.674   4.842 -1.8766  0.6441 -0.8215
 6544SOL    HW226748   9.183   0.770   4.943  0.5842  0.9205  0.4242
 6545SOL     OW26749   3.225  10.983   6.345  0.1391  0.5738 -0.2952
 6545SOL    HW126750   3.236  11.033   6.426 -3.1272  1.2305 -0.1271
 6545SOL    HW226751   3.253  10.895   6.368 -0.2533  0.8548  1.4345
 6546SOL     OW26752  12.168   3.820   5.576  0.2413  0.0991 -0.2362
 6546SOL    HW126753  12.158   3.735   5.620 -1.1739  0.7968  0.8834
 6546SOL    HW226754  12.140   3.804   5.486 -1.3901 -0.3308  0.3223
 6547SOL     OW26755  10.891   5.375   6.052  0.3238 -0.1439 -0.6059
 6547SOL    HW126756  10.840   5.318   6.109  0.9944 -1.9090 -1.6961
 6547SOL    HW226757  10.904   5.455   6.103  0.2484 -1.3520  1.3955
 6548SOL     OW26758   9.848  10.292   0.145  0.0833  0.0977 -0.4441
 6548SOL    HW126759   9.784  10.268   0.211 -0.3630  1.5694 -0.3179
 6548SOL    HW226760   9.933  10.275   0.186 -0.1970 -0.2949 -0.0152
 6549SOL     OW26761   0.149   8.645   6.519  0.4547 -0.1244  0.4626
 6549SOL    HW126762   0.083   8.579   6.539 -0.4871  0.6980  0.1832
 6549SOL    HW226763   0.147   8.654   6.424  1.3085 -0.4080  0.4066
 6550SOL     OW26764   5.932   5.851  10.306 -0.1990  0.0108 -0.7316
 6550SOL    HW126765   5.950   5.768  10.261 -0.2130 -1.1066  1.2277
 6550SOL    HW226766   5.858   5.832  10.363  1.5859  0.4920  1.9099
 6551SOL     OW26767  11.982   7.482  12.409  0.3654  0.3344  0.1383
 6551SOL    HW126768  11.960   7.549  12.473  1.3526  0.8142  0.0024
 6551SOL    HW226769  12.072   7.456  12.432  0.3470 -0.2432 -0.4060
 6552SOL     OW26770   2.768   2.077  11.737 -0.1925  0.1992 -0.9485
 6552SOL    HW126771   2.741   2.149  11.795 -2.1189 -0.5563 -0.8199
 6552SOL    HW226772   2.858   2.058  11.762 -0.4768  0.9117  0.7655
 6553SOL     OW26773  12.721   8.288   1.826  0.1828 -0.8213 -0.0342
 6553SOL    HW126774  12.733   8.366   1.879 -1.1254  0.8377 -2.0299
 6553SOL    HW226775  12.791   8.293   1.761  0.5643 -1.7653  0.2839
 6554SOL     OW26776   0.122   3.440   4.417  0.4025  0.5416 -0.5213
 6554SOL    HW126777   0.076   3.427   4.335 -0.7614  1.0253  0.0372
 6554SOL    HW226778   0.215   3.438   4.393  0.1227 -0.8373 -1.6063
 6555SOL     OW26779   0.295   6.334   0.235 -0.9821 -0.7773 -0.2105
 6555SOL    HW126780   0.364   6.345   0.169 -1.7401 -0.4638 -0.9634
 6555SOL    HW226781   0.249   6.255   0.208 -1.1605 -0.7696  0.0700
 6556SOL     OW26782   8.582   5.780  12.419 -0.4719  0.6940  0.7505
 6556SOL    HW126783   8.642   5.824  12.358 -0.4401  0.0619  0.3204
 6556SOL    HW226784   8.631   5.704  12.450 -0.8725  0.4377  0.7579
 6557SOL     OW26785   7.763   9.283   5.878  0.1011 -0.6767  0.2510
 6557SOL    HW126786   7.747   9.206   5.825  3.3914 -0.9755 -0.5405
 6557SOL    HW226787   7.847   9.266   5.922  1.4538  2.7166 -0.6530
 6558SOL     OW26788   8.813   0.321   4.937 -0.1303 -0.0997  0.2914
 6558SOL    HW126789   8.728   0.295   4.973 -0.2683 -1.3148 -0.8412
 6558SOL    HW226790   8.869   0.244   4.950  1.2919  1.1843  2.3844
 6559SOL     OW26791   6.865   9.295   3.462  0.0405  0.1779 -0.1359
 6559SOL    HW126792   6.879   9.298   3.557 -2.0215 -0.3826  0.2318
 6559SOL    HW226793   6.799   9.226   3.450  0.0744  0.4238 -1.9606
 6560SOL     OW26794   0.082   0.568   3.683  0.3316  0.3039 -0.1887
 6560SOL    HW126795   0.012   0.620   3.643 -0.0593 -1.9340 -2.6812
 6560SOL    HW226796   0.076   0.483   3.641  2.3412 -1.1188  2.1184
 6561SOL     OW26797   3.057  12.700   0.422 -0.4441 -0.1886  0.0250
 6561SOL    HW126798   3.029  12.765   0.357  0.3128 -0.1492 -0.2809
 6561SOL    HW226799   3.029  12.735   0.506  0.2748  0.7352 -0.1017
 6562SOL     OW26800   1.308   7.093  11.178 -0.6569  0.3940  0.1250
 6562SOL    HW126801   1.325   7.184  11.153 -0.6811  0.6289  0.9317
 6562SOL    HW226802   1.213   7.089  11.191 -0.6529  0.2601  0.1119
 6563SOL     OW26803   1.279   3.566   0.399 -0.3606 -0.7195  0.7095
 6563SOL    HW126804   1.302   3.581   0.307  0.9012 -0.1971  1.0871
 6563SOL    HW226805   1.202   3.621   0.413 -0.0619 -0.1446  0.1795
 6564SOL     OW26806   2.229   6.386  12.167  0.4732 -0.1589  0.5114
 6564SOL    HW126807   2.140   6.420  12.155 -0.0477 -0.8590  2.1219
 6564SOL    HW226808   2.219   6.313  12.228  2.1927 -0.0331  1.0086
 6565SOL     OW26809   2.614   2.116   0.825 -0.2679  0.0313 -0.4064
 6565SOL    HW126810   2.554   2.180   0.786  1.1787 -0.0271 -3.0186
 6565SOL    HW226811   2.558   2.047   0.860 -1.7612  0.8796 -1.0441
 6566SOL     OW26812   2.370   0.789   6.957  0.7829 -0.1514 -0.9225
 6566SOL    HW126813   2.355   0.772   6.864  0.7577  0.6452 -1.0754
 6566SOL    HW226814   2.460   0.762   6.972  0.1550 -2.2509 -0.6735
 6567SOL     OW26815   4.767   0.770   3.247  0.2973 -0.0290 -0.6183
 6567SOL    HW126816   4.724   0.840   3.296  1.7233 -0.4883  1.4299
 6567SOL    HW226817   4.821   0.815   3.183  0.0038  0.6890 -0.3768
 6568SOL     OW26818   6.900   4.546  12.113 -0.5925 -0.4786 -0.7010
 6568SOL    HW126819   6.964   4.485  12.077 -0.1758 -0.9213  0.7148
 6568SOL    HW226820   6.883   4.513  12.201  0.0446  1.7174  0.3201
 6569SOL     OW26821   9.186   2.549   1.529  0.4276 -0.0487 -0.1428
 6569SOL    HW126822   9.150   2.497   1.601  0.9122  0.1590  0.2615
 6569SOL    HW226823   9.218   2.483   1.466 -1.5306 -0.2436 -0.9960
 6570SOL     OW26824   9.121   6.501   8.164 -0.0793  0.0360 -0.1648
 6570SOL    HW126825   9.199   6.543   8.198 -0.6018  1.4874 -0.7060
 6570SOL    HW226826   9.089   6.560   8.095 -0.9651 -1.1279 -0.7962
 6571SOL     OW26827   4.774   2.436  10.667 -0.0645  0.3945 -0.5701
 6571SOL    HW126828   4.840   2.427  10.735 -0.9772  1.3388  0.4706
 6571SOL    HW226829   4.724   2.513  10.691 -1.5658 -0.3006 -1.3124
 6572SOL     OW26830   2.710   3.754   4.043  0.2855  0.1223 -0.0755
 6572SOL    HW126831   2.653   3.830   4.026  0.5546  0.0099 -1.6172
 6572SOL    HW226832   2.653   3.679   4.030  0.4928  0.0273 -0.4263
 6573SOL     OW26833  11.192   3.582  10.158  0.0921 -0.2806 -0.2769
 6573SOL    HW126834  11.178   3.493  10.125  0.2270 -0.1925 -0.5773
 6573SOL    HW226835  11.108   3.608  10.196 -0.4092  0.0275 -1.5340
 6574SOL     OW26836  11.297  11.365   8.575 -0.1121 -0.0858 -0.6638
 6574SOL    HW126837  11.340  11.450   8.586  0.3322 -0.1150 -2.0054
 6574SOL    HW226838  11.210  11.386   8.541  0.5262 -0.1817 -2.4811
 6575SOL     OW26839   2.458   9.733   0.080  0.0947  0.3414  0.8903
 6575SOL    HW126840   2.367   9.726   0.109 -0.3213  0.0319 -0.4111
 6575SOL    HW226841   2.503   9.778   0.151 -1.0346  0.3321  1.6336
 6576SOL     OW26842   0.518  10.616  11.467  0.3551  0.3343  0.2141
 6576SOL    HW126843   0.479  10.559  11.401  2.4765 -0.4430 -0.4656
 6576SOL    HW226844   0.459  10.610  11.542 -0.6820 -0.9550 -0.6568
 6577SOL     OW26845  11.392   1.423   7.753 -0.1122  0.5182  0.6973
 6577SOL    HW126846  11.465   1.484   7.742 -0.1395  0.6534  1.2390
 6577SOL    HW226847  11.391   1.404   7.847  0.8774 -1.5294  0.3634
 6578SOL     OW26848   5.069   1.068   0.997  0.8055 -0.2663  0.6356
 6578SOL    HW126849   5.034   1.149   1.035  1.0443  0.4824 -0.7025
 6578SOL    HW226850   5.159   1.063   1.031  1.1956  0.6748 -0.2107
 6579SOL     OW26851   0.727   8.931   6.681 -0.0990  0.3972  0.2211
 6579SOL    HW126852   0.731   8.840   6.653 -3.7829  0.2160 -0.2135
 6579SOL    HW226853   0.691   8.928   6.769 -0.0843  1.4256  0.2802
 6580SOL     OW26854   3.112   7.558   4.802  0.0928 -0.5267  0.1849
 6580SOL    HW126855   3.205   7.544   4.785  0.2438 -0.1346  0.6715
 6580SOL    HW226856   3.079   7.601   4.724  0.5165  0.1620  0.3800
 6581SOL     OW26857   2.914  10.674   9.059 -0.0990  0.5014  0.1390
 6581SOL    HW126858   2.849  10.709   8.997  0.0706  3.0223  1.2781
 6581SOL    HW226859   2.998  10.692   9.017 -0.0141 -1.7545 -0.8150
 6582SOL     OW26860   5.364   9.414  11.859  0.0435  0.4707 -0.0859
 6582SOL    HW126861   5.438   9.471  11.880  0.7140 -0.5507  0.3438
 6582SOL    HW226862   5.377   9.336  11.912 -1.3884  0.2987  0.0538
 6583SOL     OW26863   4.321   5.690   8.267  0.1579 -0.5156 -0.5825
 6583SOL    HW126864   4.322   5.602   8.229 -0.2961 -1.4155  1.3689
 6583SOL    HW226865   4.405   5.697   8.313 -0.8277 -0.9650  1.3878
 6584SOL     OW26866   9.554   8.344   1.679  0.3248  0.5140  0.3542
 6584SOL    HW126867   9.628   8.376   1.729  0.7763  2.0532 -1.2117
 6584SOL    HW226868   9.478   8.364   1.734  0.8939  0.9169  1.0130
 6585SOL     OW26869   7.976   2.869   5.653  0.3841  0.4373 -0.4116
 6585SOL    HW126870   8.014   2.951   5.687  0.7227 -0.0173  0.3167
 6585SOL    HW226871   7.884   2.873   5.679  0.5998  0.1760  0.4113
 6586SOL     OW26872   0.359   6.341   7.210 -0.0627  0.1700 -0.1655
 6586SOL    HW126873   0.298   6.405   7.245 -0.1811  2.2491 -3.7062
 6586SOL    HW226874   0.446   6.374   7.235 -0.1943 -0.7433  1.6630
 6587SOL     OW26875   8.089   4.882   4.500 -0.1065  0.3998  0.3872
 6587SOL    HW126876   8.181   4.892   4.525  0.3940 -0.5804 -0.9455
 6587SOL    HW226877   8.076   4.945   4.429  0.2885 -1.1652 -1.1584
 6588SOL     OW26878   2.929   3.132   6.769 -0.4144 -0.1507  0.3030
 6588SOL    HW126879   2.922   3.099   6.679 -3.3889  1.8168 -0.3472
 6588SOL    HW226880   2.942   3.226   6.758 -0.8723  0.1257  1.9320
 6589SOL     OW26881   3.201   7.463   7.242 -0.4308 -0.2113  0.3283
 6589SOL    HW126882   3.252   7.384   7.226  1.3697  1.5463 -4.1525
 6589SOL    HW226883   3.127   7.457   7.182 -0.9648  0.9572  0.8332
 6590SOL     OW26884   7.964   0.999   9.766  0.1385 -0.3885  0.2938
 6590SOL    HW126885   7.976   1.075   9.708 -1.9310  1.3915  2.0127
 6590SOL    HW226886   8.024   1.015   9.839 -1.1481  0.2808  1.2386
 6591SOL     OW26887   0.685   2.488  11.187 -0.0040 -0.5122  0.0655
 6591SOL    HW126888   0.646   2.484  11.274  0.2667 -0.5229  0.1866
 6591SOL    HW226889   0.628   2.548  11.138 -0.7534 -1.2930 -0.0613
 6592SOL     OW26890  12.202   7.601  10.445 -0.5670 -0.3861  0.4902
 6592SOL    HW126891  12.287   7.581  10.406 -1.0579  0.4553 -1.1130
 6592SOL    HW226892  12.149   7.522  10.429 -0.9207  0.1339 -1.1000
 6593SOL     OW26893   8.087  11.488  11.289  0.1093  0.0519  0.8682
 6593SOL    HW126894   7.996  11.490  11.260  0.8073  2.9115 -1.5541
 6593SOL    HW226895   8.091  11.552  11.360  0.1403 -0.5416  1.4119
 6594SOL     OW26896   8.198   9.854   9.714  0.3104  0.2509  0.2484
 6594SOL    HW126897   8.174   9.881   9.803  1.7138 -1.1729  1.1254
 6594SOL    HW226898   8.291   9.875   9.708  0.3894 -0.3183 -0.6159
 6595SOL     OW26899   7.737   8.754   1.737  0.4004 -0.2101  0.2461
 6595SOL    HW126900   7.777   8.698   1.670  2.1902 -0.8157  1.7397
 6595SOL    HW226901   7.669   8.699   1.775 -0.0705 -0.1630 -0.5114
 6596SOL     OW26902   9.597   4.494   4.259  0.0048  0.5184  0.4318
 6596SOL    HW126903   9.549   4.430   4.311 -0.6622  0.7447  0.1046
 6596SOL    HW226904   9.654   4.538   4.321 -0.8114  0.8099  0.9875
 6597SOL     OW26905   3.481   2.590   1.739  0.1099  0.3036  0.5026
 6597SOL    HW126906   3.497   2.527   1.810 -1.8145 -0.2484  0.5118
 6597SOL    HW226907   3.549   2.656   1.749 -0.0116  0.1544  2.7727
 6598SOL     OW26908   4.849   2.213   9.367  0.3887  0.5794  0.2440
 6598SOL    HW126909   4.884   2.155   9.435 -1.8249 -0.8823  0.2504
 6598SOL    HW226910   4.759   2.230   9.395 -0.2905  0.6642 -1.8452
 6599SOL     OW26911  11.011   9.145   4.484  0.0885 -0.4455  0.2870
 6599SOL    HW126912  10.974   9.101   4.561  0.5908  1.1598  1.4978
 6599SOL    HW226913  10.995   9.084   4.412 -1.3541 -1.5403  1.4580
 6600SOL     OW26914   4.502  10.085   2.542 -0.0503 -0.0275  0.0438
 6600SOL    HW126915   4.431  10.145   2.518  1.2015  0.4076 -2.9498
 6600SOL    HW226916   4.544  10.128   2.617  0.6070  2.7913 -1.7839
 6601SOL     OW26917   2.693   3.452   8.435 -1.0975 -0.1414 -0.0155
 6601SOL    HW126918   2.673   3.410   8.351 -0.7191 -1.4012  0.4891
 6601SOL    HW226919   2.789   3.450   8.439 -1.1249 -0.3719  0.5774
 6602SOL     OW26920  10.709   9.931   5.655 -0.2250 -0.5361  0.3471
 6602SOL    HW126921  10.746  10.014   5.626 -1.0319 -0.1356  0.4465
 6602SOL    HW226922  10.772   9.865   5.625 -0.4801 -0.0496 -1.3490
 6603SOL     OW26923   7.267  10.867   7.786 -0.1102  0.2597  0.2100
 6603SOL    HW126924   7.263  10.785   7.835 -2.8576 -0.8075 -1.5414
 6603SOL    HW226925   7.317  10.846   7.707 -0.6187  0.2987 -0.1311
 6604SOL     OW26926   2.600   7.319   4.299 -0.4869  0.0928  0.1123
 6604SOL    HW126927   2.585   7.357   4.212  1.0948  1.1535  0.2703
 6604SOL    HW226928   2.538   7.246   4.304 -1.6520  0.9270 -1.3116
 6605SOL     OW26929   7.986   4.780   8.842 -1.0869  0.1872  0.2948
 6605SOL    HW126930   7.901   4.762   8.883 -0.7349 -1.0208  0.5086
 6605SOL    HW226931   8.001   4.706   8.784 -0.2950  0.5291  0.0494
 6606SOL     OW26932   3.026   0.951   8.312  0.0146  0.7632  0.5636
 6606SOL    HW126933   2.933   0.964   8.296 -0.4107 -0.5276  1.6801
 6606SOL    HW226934   3.043   0.863   8.278  0.8935  1.0932  0.1383
 6607SOL     OW26935   4.976   2.340   3.367 -0.4857  0.2242  0.2792
 6607SOL    HW126936   4.999   2.261   3.318  0.3805  1.0209 -0.6222
 6607SOL    HW226937   4.883   2.328   3.388 -0.4301 -0.9230 -0.0421
 6608SOL     OW26938  11.324   9.495   9.513 -0.3885 -0.2878  0.1678
 6608SOL    HW126939  11.229   9.507   9.511 -0.3095  0.4919  0.5327
 6608SOL    HW226940  11.354   9.529   9.428 -0.4778 -0.9733 -0.1403
 6609SOL     OW26941   0.956   0.675   8.365  0.2714  0.2231  0.0384
 6609SOL    HW126942   0.913   0.618   8.428  0.4263  0.8730  0.7500
 6609SOL    HW226943   0.899   0.673   8.288 -0.0786 -0.3455  0.3097
 6610SOL     OW26944   0.217  12.633   0.012  0.1919  0.0607  0.2588
 6610SOL    HW126945   0.297  12.584   0.032  0.5043  1.4600  2.8338
 6610SOL    HW226946   0.151  12.595   0.069 -0.2972  0.6943  0.1225
 6611SOL     OW26947   6.196   2.987   0.603 -0.6305  0.3058  0.2096
 6611SOL    HW126948   6.137   2.976   0.529 -0.1012  0.3048 -0.2187
 6611SOL    HW226949   6.257   2.914   0.598  1.1510  1.7768 -1.0158
 6612SOL     OW26950   2.225   1.447   9.991  0.3520  0.1643 -0.7239
 6612SOL    HW126951   2.308   1.413  10.026  0.4147 -1.3193 -2.1685
 6612SOL    HW226952   2.168   1.454  10.067  1.2906 -0.3941  0.0640
 6613SOL     OW26953   2.123  12.822   3.123 -0.6107  0.4976  0.1410
 6613SOL    HW126954   2.151  12.823   3.214 -0.0062 -0.1113 -0.0319
 6613SOL    HW226955   2.143  12.910   3.090  4.9213 -0.8430 -1.1011
 6614SOL     OW26956   8.152   1.649   9.340  0.7286  0.4984 -0.0085
 6614SOL    HW126957   8.121   1.676   9.254  0.9402  0.1559 -0.1936
 6614SOL    HW226958   8.228   1.593   9.322  0.5295  0.0930  0.3829
 6615SOL     OW26959   5.506  11.997  12.419  0.1454 -0.3036 -0.0405
 6615SOL    HW126960   5.419  12.012  12.381  0.3170 -0.1754 -0.3898
 6615SOL    HW226961   5.490  11.941  12.495 -0.0155 -2.1934 -1.3885
 6616SOL     OW26962  12.071  10.591   2.477 -0.0165 -0.0234 -0.1817
 6616SOL    HW126963  11.994  10.617   2.528  0.3445 -0.9622  0.8887
 6616SOL    HW226964  12.041  10.516   2.425  0.1730 -0.4042  0.2532
 6617SOL     OW26965   6.574   1.936   6.926 -0.1278  0.6397  0.1976
 6617SOL    HW126966   6.619   2.018   6.906  1.4282  0.0809  1.2115
 6617SOL    HW226967   6.503   1.931   6.862  1.4329  1.4330 -1.7178
 6618SOL     OW26968  11.745   8.555   6.591  1.3172  0.2839  0.4665
 6618SOL    HW126969  11.757   8.540   6.497  0.8457 -0.5486  0.5292
 6618SOL    HW226970  11.727   8.649   6.598 -0.1821  0.0973 -0.4539
 6619SOL     OW26971   1.454  12.610  11.657 -0.1362 -0.6537 -0.1512
 6619SOL    HW126972   1.524  12.592  11.720  0.7282 -0.8195 -1.1285
 6619SOL    HW226973   1.442  12.705  11.660  0.9029 -0.4896 -0.7534
 6620SOL     OW26974   4.960   7.647   0.306 -0.5394  0.2989  0.0725
 6620SOL    HW126975   4.893   7.637   0.374  0.8490 -0.3320  1.4071
 6620SOL    HW226976   5.039   7.609   0.344 -0.2814 -2.6645 -2.9135
 6621SOL     OW26977   2.784   2.638   7.849 -0.1144  0.5034  0.0762
 6621SOL    HW126978   2.818   2.614   7.763 -0.7450  0.0248 -0.0479
 6621SOL    HW226979   2.856   2.685   7.891  0.9832 -1.1435  0.1147
 6622SOL     OW26980   3.578   2.167   1.833  0.4141 -0.4475 -0.6114
 6622SOL    HW126981   3.611   2.090   1.788 -0.6492 -1.1845 -0.1751
 6622SOL    HW226982   3.495   2.186   1.789 -0.2003 -0.6425  0.4287
 6623SOL     OW26983   1.801   7.994   0.947  0.1695  0.9221 -0.2341
 6623SOL    HW126984   1.837   8.083   0.953  1.6781  0.5520 -2.5935
 6623SOL    HW226985   1.765   7.988   0.859 -0.7789 -0.5553  0.2059
 6624SOL     OW26986  11.434  12.693   2.966 -0.1455  0.3516  0.4321
 6624SOL    HW126987  11.399  12.760   2.907 -1.4404  0.6370  1.4723
 6624SOL    HW226988  11.405  12.610   2.928 -2.8866  0.5966  1.7261
 6625SOL     OW26989  11.400   5.332  10.557  0.5471 -0.3516  0.0598
 6625SOL    HW126990  11.375   5.296  10.642 -1.5485  1.2270  0.2023
 6625SOL    HW226991  11.331   5.396  10.537  0.5837 -1.1422 -3.1374
 6626SOL     OW26992   5.838   1.350  10.563  0.4755  0.5204  0.2578
 6626SOL    HW126993   5.909   1.325  10.503 -0.3973 -0.6472 -0.3349
 6626SOL    HW226994   5.878   1.412  10.623  1.4944  1.4271 -1.2895
 6627SOL     OW26995   5.669   2.439   4.233  0.0348 -0.1094  0.3615
 6627SOL    HW126996   5.642   2.430   4.325  1.0030 -1.8288  0.5254
 6627SOL    HW226997   5.587   2.435   4.184 -0.5283  1.1644  1.1484
 6628SOL     OW26998  11.777   1.020   5.041 -0.1741 -0.3111  0.1482
 6628SOL    HW126999  11.714   0.958   5.079 -0.8295 -0.2300 -0.7777
 6628SOL    HW227000  11.841   0.964   4.997 -0.1730 -0.3582  0.2082
 6629SOL     OW27001   1.316   2.335   1.506 -0.0469 -0.4939 -0.1072
 6629SOL    HW127002   1.253   2.280   1.458  0.9783  0.1582 -2.3451
 6629SOL    HW227003   1.352   2.393   1.439  2.2541 -0.2078  1.2968
 6630SOL     OW27004   9.948   6.135   8.730  0.1762 -0.1290 -0.4318
 6630SOL    HW127005  10.007   6.084   8.785  0.0373  0.8750  0.7092
 6630SOL    HW227006  10.006   6.180   8.668  0.5787  0.3954  0.3004
 6631SOL     OW27007   8.319   3.151   3.178 -0.1628  0.7121 -0.6538
 6631SOL    HW127008   8.254   3.198   3.229  1.0093  1.0819  0.5510
 6631SOL    HW227009   8.390   3.214   3.165  0.9353 -0.3381  0.0099
 6632SOL     OW27010   2.798  12.622   1.127  0.0787 -0.5154  0.5702
 6632SOL    HW127011   2.854  12.672   1.067  1.4513 -1.7637  0.7473
 6632SOL    HW227012   2.709  12.638   1.096  0.5784  0.8678 -0.2381
 6633SOL     OW27013   3.884   2.568  10.951 -0.1171  0.2096  0.4523
 6633SOL    HW127014   3.844   2.523  11.025  0.1377 -0.0899  0.4095
 6633SOL    HW227015   3.976   2.541  10.953  0.0801  0.8619  0.5298
 6634SOL     OW27016   1.552   4.332   7.874  0.7872 -0.2313 -0.4586
 6634SOL    HW127017   1.537   4.424   7.894 -0.3515 -0.2046 -1.3795
 6634SOL    HW227018   1.626   4.307   7.930  1.8072  1.5125 -0.9680
 6635SOL     OW27019   4.217   8.574   1.517 -0.1959 -0.0031  0.4502
 6635SOL    HW127020   4.282   8.543   1.455 -0.7219 -0.5948  0.1856
 6635SOL    HW227021   4.253   8.656   1.551  0.3635  0.0262 -0.1992
 6636SOL     OW27022   5.545  11.732   6.399 -0.0529  0.4077  0.2278
 6636SOL    HW127023   5.481  11.662   6.412 -0.7296  0.7135 -1.2735
 6636SOL    HW227024   5.564  11.764   6.488 -0.4525 -1.0226  0.8603
 6637SOL     OW27025  11.728   0.264   4.748  0.0214 -0.3108 -0.5666
 6637SOL    HW127026  11.718   0.267   4.843 -1.7745 -0.9091 -0.6995
 6637SOL    HW227027  11.701   0.175   4.724 -1.4736  0.4268 -1.7850
 6638SOL     OW27028   0.262   6.386   8.508  0.2941  0.1104 -0.0764
 6638SOL    HW127029   0.355   6.378   8.489  1.0015  1.3345  2.4112
 6638SOL    HW227030   0.225   6.299   8.491  1.6147 -0.1092 -2.1579
 6639SOL     OW27031   8.699   2.206   7.407 -0.2141 -0.3623  0.1111
 6639SOL    HW127032   8.713   2.141   7.338 -1.1932  0.9591 -1.4159
 6639SOL    HW227033   8.629   2.169   7.461  0.0906 -1.1181 -0.0086
 6640SOL     OW27034   2.259  10.670   5.517 -0.2269 -0.2583  0.6872
 6640SOL    HW127035   2.197  10.679   5.444  0.0852 -1.3013  0.2669
 6640SOL    HW227036   2.205  10.675   5.595 -0.6412  0.3412  0.3688
 6641SOL     OW27037  12.177  11.466   9.755  0.0097 -0.4759 -0.0315
 6641SOL    HW127038  12.267  11.495   9.771 -0.1912  0.6076 -0.8057
 6641SOL    HW227039  12.128  11.546   9.736 -0.8852 -1.1573 -0.7059
 6642SOL     OW27040   3.182   6.584  12.019  0.2087  1.0383 -0.2727
 6642SOL    HW127041   3.181   6.665  11.969  0.1861  0.8447 -0.5832
 6642SOL    HW227042   3.210   6.611  12.107 -3.2404  1.9879  0.6737
 6643SOL     OW27043   0.113   8.238   9.981 -0.0670  0.6094 -0.5467
 6643SOL    HW127044   0.076   8.169   9.926 -0.6068 -1.4590  2.2177
 6643SOL    HW227045   0.197   8.203  10.010 -1.0603  0.2461  2.2083
 6644SOL     OW27046   9.372  10.379  12.596 -0.0385 -0.1742  0.2297
 6644SOL    HW127047   9.347  10.387  12.504  1.4981 -0.1303 -0.2182
 6644SOL    HW227048   9.435  10.307  12.598  1.1171  0.8050  0.9565
 6645SOL     OW27049  10.829   6.052   0.809  0.6610  0.0028 -0.0392
 6645SOL    HW127050  10.747   6.016   0.776  0.4849  0.1956  0.1795
 6645SOL    HW227051  10.845   6.004   0.890 -0.3248  1.3624  1.0224
 6646SOL     OW27052  10.420   5.595   5.660  0.5166 -0.0430  0.0788
 6646SOL    HW127053  10.458   5.513   5.628 -0.1149 -0.0058 -0.8100
 6646SOL    HW227054  10.485   5.630   5.721  0.9832 -0.9907  0.1397
 6647SOL     OW27055   2.023   9.832   9.464 -0.8298 -0.7546  0.3542
 6647SOL    HW127056   1.961   9.904   9.469  0.3570  0.2444  2.6958
 6647SOL    HW227057   2.087   9.860   9.399 -0.4572  0.2952  1.1384
 6648SOL     OW27058   0.897   7.760   3.804 -0.0763 -0.8483  0.1553
 6648SOL    HW127059   0.821   7.711   3.773 -2.2007  0.6844  2.5215
 6648SOL    HW227060   0.861   7.825   3.864  2.7041  2.6264 -1.5544
 6649SOL     OW27061   3.999   5.640  12.862 -0.2546 -0.2123 -0.4666
 6649SOL    HW127062   3.966   5.617  12.776 -0.0972  1.5911 -1.0582
 6649SOL    HW227063   3.959   5.577  12.921 -1.7239 -0.4380 -1.6432
 6650SOL     OW27064   1.667  11.221   9.202  0.0680  0.0798 -0.3636
 6650SOL    HW127065   1.667  11.315   9.216  0.5655  0.1731 -0.9264
 6650SOL    HW227066   1.738  11.188   9.257 -0.2528 -0.0003  0.0081
 6651SOL     OW27067  12.475   2.684   5.010 -0.2556  0.3405 -0.2118
 6651SOL    HW127068  12.454   2.777   5.002  1.3719  0.7509 -0.1720
 6651SOL    HW227069  12.401   2.647   5.057  0.6632  2.3793  3.2176
 6652SOL     OW27070  11.061   6.280   6.572 -0.1422  0.5321  0.1953
 6652SOL    HW127071  11.045   6.230   6.493  0.4278 -1.7723  1.4409
 6652SOL    HW227072  11.141   6.241   6.609 -0.4426  1.4553  1.9386
 6653SOL     OW27073  10.545   4.434   2.552 -0.3385 -0.3294  0.1410
 6653SOL    HW127074  10.528   4.438   2.458 -3.1600  0.8816  0.5916
 6653SOL    HW227075  10.520   4.345   2.577  0.5326 -0.6920 -0.2514
 6654SOL     OW27076   6.409   5.983   5.768  0.3673  1.2499  0.0134
 6654SOL    HW127077   6.380   6.016   5.853  1.3035  0.8197  0.5249
 6654SOL    HW227078   6.405   5.888   5.776 -2.8662  1.1194 -1.6506
 6655SOL     OW27079   9.723   3.915   1.380  0.3544 -0.2583  0.0275
 6655SOL    HW127080   9.679   3.855   1.440 -0.5025 -1.8597 -2.0678
 6655SOL    HW227081   9.816   3.893   1.389  0.1157 -1.4596 -0.1780
 6656SOL     OW27082   6.804   6.058   8.572  0.3514  0.2083 -0.3450
 6656SOL    HW127083   6.786   5.969   8.543  1.9656 -0.0817 -0.5383
 6656SOL    HW227084   6.789   6.056   8.667 -3.3522  0.7564 -0.7671
 6657SOL     OW27085   6.971   1.811  11.313 -0.1879  0.1561  0.1707
 6657SOL    HW127086   6.948   1.902  11.297 -1.1848 -0.3787 -1.7679
 6657SOL    HW227087   7.063   1.813  11.340  0.8492  1.5373 -3.0116
 6658SOL     OW27088   4.452   8.801   2.711  0.1962 -0.1636 -0.2904
 6658SOL    HW127089   4.528   8.765   2.758 -0.5347  1.0454  1.9630
 6658SOL    HW227090   4.377   8.759   2.753 -0.4704  0.6165 -0.6891
 6659SOL     OW27091  11.914  12.458   9.735  0.2238 -0.4360 -0.5222
 6659SOL    HW127092  12.002  12.477   9.768  0.1518  1.1156 -1.1234
 6659SOL    HW227093  11.913  12.496   9.647 -0.6453 -1.5785 -1.0200
 6660SOL     OW27094  10.614  11.926   6.079  0.3139  0.7514 -0.2762
 6660SOL    HW127095  10.534  11.972   6.052 -0.7588 -0.0857  1.2925
 6660SOL    HW227096  10.666  11.992   6.124 -0.0674  1.0070 -0.2088
 6661SOL     OW27097   8.494   8.139   8.499  0.5841  0.1371 -0.0916
 6661SOL    HW127098   8.536   8.064   8.457  0.6264  0.6271 -0.9422
 6661SOL    HW227099   8.562   8.178   8.553  1.1225  0.6594 -1.1076
 6662SOL     OW27100   3.959   9.272   9.671 -0.5312 -0.2613  0.3014
 6662SOL    HW127101   4.007   9.253   9.751  0.0100 -0.2827 -0.0280
 6662SOL    HW227102   3.867   9.268   9.698 -0.4072 -1.8065  0.6015
 6663SOL     OW27103  11.113   0.270  12.249  0.3334  0.5315 -0.2590
 6663SOL    HW127104  11.030   0.274  12.200 -0.3047 -0.9883  0.6094
 6663SOL    HW227105  11.124   0.177  12.269  2.2490  0.7201 -0.3100
 6664SOL     OW27106   3.825   1.680  10.775 -0.4637  0.3581  0.0905
 6664SOL    HW127107   3.810   1.674  10.869 -0.3792 -0.9064  0.0418
 6664SOL    HW227108   3.833   1.773  10.758 -0.6130  0.6122  1.3151
 6665SOL     OW27109  11.371  11.576  10.463  0.4025  0.5607 -0.1273
 6665SOL    HW127110  11.300  11.639  10.475  0.0659  0.2645 -0.5033
 6665SOL    HW227111  11.328  11.499  10.425  1.0355  0.6066 -0.9592
 6666SOL     OW27112   0.783  11.831   0.668  0.1265 -0.3227  0.2699
 6666SOL    HW127113   0.697  11.798   0.696 -0.4257  0.8044 -0.0288
 6666SOL    HW227114   0.819  11.873   0.747  0.6671 -1.2872  0.5502
 6667SOL     OW27115   1.741   7.228   4.087 -0.3449  0.2809  0.4635
 6667SOL    HW127116   1.779   7.140   4.097 -1.8568 -0.4284  0.2288
 6667SOL    HW227117   1.697   7.245   4.170  0.6357  1.2034  0.8213
 6668SOL     OW27118   1.992  12.968  10.556 -1.1350 -0.2322  0.5055
 6668SOL    HW127119   2.014  12.951  10.465  0.2387 -1.6119  1.0388
 6668SOL    HW227120   1.906  12.926  10.569  0.9322 -4.9709  1.0631
 6669SOL     OW27121  11.771   5.143  10.794  0.3800  0.2217 -0.1146
 6669SOL    HW127122  11.859   5.141  10.757  0.3588 -1.4754 -0.1514
 6669SOL    HW227123  11.712   5.148  10.718  0.4245 -0.1566 -0.1795
 6670SOL     OW27124   9.317  11.375   5.611 -0.3231 -0.2176 -0.4119
 6670SOL    HW127125   9.395  11.335   5.573 -0.8305 -0.9446 -0.7153
 6670SOL    HW227126   9.264  11.400   5.536 -0.0284  1.0471 -0.2301
 6671SOL     OW27127  12.153   7.606   4.362 -0.4101 -0.2658 -0.1456
 6671SOL    HW127128  12.140   7.701   4.360  0.6490 -0.0543  1.1545
 6671SOL    HW227129  12.088   7.571   4.302 -1.7053  1.1914  0.3502
 6672SOL     OW27130   6.022   3.431   8.349  0.1220 -0.3643  0.6733
 6672SOL    HW127131   5.948   3.409   8.405  0.4111  1.2168  1.7596
 6672SOL    HW227132   6.017   3.369   8.276 -1.4571 -1.1612  1.4103
 6673SOL     OW27133   7.023   4.421   0.780  0.3146  0.3462 -0.3976
 6673SOL    HW127134   6.949   4.481   0.778  0.0116 -0.0347 -1.0906
 6673SOL    HW227135   7.048   4.417   0.872 -1.0433 -0.1369 -0.0225
 6674SOL     OW27136   2.345   1.675  12.126 -0.4893  0.0128  0.2825
 6674SOL    HW127137   2.334   1.721  12.210 -0.6789  1.6874 -0.6229
 6674SOL    HW227138   2.367   1.585  12.151  1.8300  0.9950  2.1708
 6675SOL     OW27139   5.297   5.852  12.873 -0.1347  0.5756  0.4975
 6675SOL    HW127140   5.314   5.893  12.788  2.2223 -2.0126 -0.4548
 6675SOL    HW227141   5.316   5.921  12.937  1.1146  1.7418 -1.0268
 6676SOL     OW27142   9.539   3.838  10.793  0.5963  0.4035 -0.0449
 6676SOL    HW127143   9.592   3.886  10.856  0.7058 -0.5170  0.5857
 6676SOL    HW227144   9.602   3.793  10.737  0.5726 -1.6279  1.4194
 6677SOL     OW27145   9.885   8.374  11.923 -0.2982 -0.1816 -0.2364
 6677SOL    HW127146   9.839   8.392  12.005 -0.4021 -1.5788  0.0429
 6677SOL    HW227147   9.848   8.436  11.861 -1.8591 -0.5712  0.2387
 6678SOL     OW27148   6.530   3.321  11.216 -0.2875  0.1447  0.6871
 6678SOL    HW127149   6.610   3.373  11.225  0.0446 -0.5329  1.8364
 6678SOL    HW227150   6.559   3.231  11.228 -1.3175 -0.0639  1.7603
 6679SOL     OW27151   0.407   3.863  11.095  0.0567 -0.2590 -0.3004
 6679SOL    HW127152   0.393   3.784  11.147  1.1204  0.0980  0.5637
 6679SOL    HW227153   0.478   3.909  11.140 -0.1492  0.9000 -1.1238
 6680SOL     OW27154   5.013  11.725   4.717 -0.4740  0.2684  0.5189
 6680SOL    HW127155   5.038  11.674   4.794  2.7789 -1.5171 -1.4772
 6680SOL    HW227156   4.950  11.669   4.671  0.9144 -0.7742 -0.2110
 6681SOL     OW27157   4.473  10.315   3.406 -0.1554 -0.4744 -0.1181
 6681SOL    HW127158   4.432  10.357   3.481 -0.6094  1.4847 -1.3781
 6681SOL    HW227159   4.558  10.286   3.438 -0.3750  0.2185  1.1616
 6682SOL     OW27160   4.323  11.667  11.140  1.0168 -0.2891  0.0699
 6682SOL    HW127161   4.342  11.612  11.216 -1.9452 -0.4690  0.7984
 6682SOL    HW227162   4.310  11.754  11.176  1.0425 -0.0620 -0.4509
 6683SOL     OW27163   7.790   4.740   9.039  0.1837  0.3867 -0.2746
 6683SOL    HW127164   7.753   4.652   9.031 -1.4858  1.1582 -1.3164
 6683SOL    HW227165   7.789   4.757   9.133 -3.4233  0.8461 -0.2641
 6684SOL     OW27166   8.802   4.836   1.834 -0.5672  0.3344 -0.4159
 6684SOL    HW127167   8.768   4.911   1.884 -0.9363  0.3394 -0.6664
 6684SOL    HW227168   8.725   4.802   1.788 -0.2857  0.1527 -0.7504
 6685SOL     OW27169   2.185   2.095   2.202 -0.1223 -0.1349  0.7918
 6685SOL    HW127170   2.124   2.068   2.269  1.4746  2.0808  3.3596
 6685SOL    HW227171   2.139   2.163   2.153  0.0672  1.3179  2.5238
 6686SOL     OW27172   0.112   9.418   4.361  0.0917 -0.3005 -0.0185
 6686SOL    HW127173   0.039   9.360   4.386  0.3378 -0.0095  1.4589
 6686SOL    HW227174   0.094   9.500   4.406  1.5028 -0.3285  0.6526
 6687SOL     OW27175   8.148   3.097   2.574 -0.4033 -0.1012 -0.5533
 6687SOL    HW127176   8.203   3.025   2.608  0.4248 -0.2335 -2.0986
 6687SOL    HW227177   8.090   3.055   2.512  0.1922  0.5659 -1.5873
 6688SOL     OW27178   7.121   3.145   0.439 -0.3759  0.1164  0.0653
 6688SOL    HW127179   7.113   3.113   0.349  2.6429 -0.4523 -0.0805
 6688SOL    HW227180   7.175   3.224   0.432 -0.4854  0.3311  1.3629
 6689SOL     OW27181   7.485   1.238   5.949  0.1506  0.1111 -0.1017
 6689SOL    HW127182   7.411   1.246   6.009 -0.6827 -0.5086 -1.0099
 6689SOL    HW227183   7.511   1.328   5.932 -0.7059  0.3682 -0.1293
 6690SOL     OW27184  10.958   5.225   4.610 -0.2888 -0.8591 -0.1348
 6690SOL    HW127185  10.979   5.170   4.534 -1.2458  0.8758 -1.7488
 6690SOL    HW227186  10.896   5.290   4.576  0.3885  0.9053  1.7861
 6691SOL     OW27187  11.220   0.023   7.260  0.3678  0.0370  0.4671
 6691SOL    HW127188  11.204  -0.063   7.298 -0.5319  0.3669  0.8548
 6691SOL    HW227189  11.305   0.049   7.295  0.2497 -0.3248  1.0349
 6692SOL     OW27190   9.910   9.978   7.063 -0.5300  0.0824 -0.2239
 6692SOL    HW127191   9.854  10.054   7.048  1.4804  2.0688  1.5125
 6692SOL    HW227192   9.958   9.967   6.980 -0.8002  0.7651 -0.4768
 6693SOL     OW27193   5.955   2.547   8.855 -0.3224 -0.5120 -0.3469
 6693SOL    HW127194   6.009   2.555   8.777  0.9772 -0.3832  0.5289
 6693SOL    HW227195   5.895   2.475   8.836 -1.0539  0.4907 -2.0147
 6694SOL     OW27196   0.750   9.336  12.302 -0.6765 -0.3104  0.0377
 6694SOL    HW127197   0.843   9.348  12.322 -0.7646 -0.1470  0.3659
 6694SOL    HW227198   0.710   9.313  12.386 -0.9619 -0.1868 -0.0610
 6695SOL     OW27199  11.483   9.523   7.929  0.7275 -0.0699 -0.1785
 6695SOL    HW127200  11.408   9.509   7.872  2.8236 -1.5411 -2.7692
 6695SOL    HW227201  11.512   9.612   7.909  0.6345 -0.0751 -0.3384
 6696SOL     OW27202   0.419   2.402   7.398 -0.1163  0.2680  0.0883
 6696SOL    HW127203   0.479   2.475   7.417  0.8992 -0.4422 -0.2713
 6696SOL    HW227204   0.351   2.440   7.343 -0.1645  1.1636  0.7468
 6697SOL     OW27205   1.997   4.294   9.521  0.3393  0.2656 -0.5145
 6697SOL    HW127206   2.065   4.233   9.494 -1.6086 -2.1953 -0.1499
 6697SOL    HW227207   1.974   4.267   9.610 -2.0231  0.1303 -1.1044
 6698SOL     OW27208   4.944   5.943  11.700  0.5250  0.0230  0.4025
 6698SOL    HW127209   5.025   5.895  11.716  1.3624  0.8398 -1.2102
 6698SOL    HW227210   4.899   5.893  11.632  0.4363  0.4480  0.1479
 6699SOL     OW27211   4.450   3.917  11.531  0.5516  0.2398 -0.5062
 6699SOL    HW127212   4.499   3.911  11.449 -0.8130 -2.0787 -1.2626
 6699SOL    HW227213   4.425   3.826  11.550 -0.3492  0.8973  1.7548
 6700SOL     OW27214   8.229   9.636  10.988 -0.3702  0.6007 -0.4463
 6700SOL    HW127215   8.175   9.665  10.914  0.0717 -0.6990 -1.3244
 6700SOL    HW227216   8.311   9.683  10.978 -0.2070  0.2151 -0.9675
 6701SOL     OW27217   4.717   0.338  10.839  0.0324 -0.2064  0.5052
 6701SOL    HW127218   4.650   0.386  10.887 -1.7810  0.9313 -2.8372
 6701SOL    HW227219   4.799   0.384  10.860 -0.6857  0.3785  2.2057
 6702SOL     OW27220   1.307   9.684   4.556  0.5110 -0.1511  0.1743
 6702SOL    HW127221   1.246   9.657   4.488  0.2941  2.6385 -0.8927
 6702SOL    HW227222   1.251   9.706   4.631  0.3300  0.6513 -0.1805
 6703SOL     OW27223   8.506   0.051   0.062 -0.4012 -0.3156 -0.3606
 6703SOL    HW127224   8.451   0.129   0.053 -0.4454 -0.3643 -0.5260
 6703SOL    HW227225   8.589   0.085   0.095 -0.6107 -0.2746  0.1316
 6704SOL     OW27226   5.341   7.889   2.888 -0.9108  0.0502  0.2152
 6704SOL    HW127227   5.365   7.976   2.919 -0.2493 -0.0192 -0.0986
 6704SOL    HW227228   5.296   7.849   2.963  1.4872 -0.4688  1.4770
 6705SOL     OW27229   0.723   9.419   0.580 -0.1487  0.0863  0.0545
 6705SOL    HW127230   0.676   9.383   0.655 -1.0715 -1.2566 -1.1095
 6705SOL    HW227231   0.661   9.415   0.508  0.9670  0.5809 -0.9777
 6706SOL     OW27232   2.340   2.653  12.108 -0.1387  0.1873 -0.8300
 6706SOL    HW127233   2.332   2.746  12.128  0.5759  0.4706 -1.7901
 6706SOL    HW227234   2.251   2.626  12.083 -0.4958  0.4253  0.1155
 6707SOL     OW27235   5.504   3.813   2.151  0.1534 -0.1203  0.4046
 6707SOL    HW127236   5.494   3.718   2.154 -0.7650 -0.0233  0.9049
 6707SOL    HW227237   5.492   3.842   2.241 -2.9017  0.7325 -0.1347
 6708SOL     OW27238   0.420   6.838   2.850 -0.3092 -0.3145  0.0221
 6708SOL    HW127239   0.474   6.917   2.855  1.8036 -1.7665  2.3878
 6708SOL    HW227240   0.368   6.839   2.930 -0.5110 -1.1169 -0.0896
 6709SOL     OW27241   3.986   2.874   3.773  0.3124 -0.3840 -0.5954
 6709SOL    HW127242   3.969   2.946   3.713 -0.6540 -0.1319 -0.0388
 6709SOL    HW227243   4.020   2.804   3.717  0.3721  0.1808 -1.2769
 6710SOL     OW27244   3.235  12.281   3.474  0.0519  0.2055  0.3042
 6710SOL    HW127245   3.272  12.194   3.467 -0.7110 -0.1761  0.8289
 6710SOL    HW227246   3.209  12.289   3.566 -1.7977  0.1629 -0.1684
 6711SOL     OW27247   7.148   1.183  11.753 -0.1197 -0.9844 -0.1502
 6711SOL    HW127248   7.235   1.219  11.770  1.2080 -3.4551 -1.0954
 6711SOL    HW227249   7.090   1.258  11.756  2.1170  0.8583  0.0156
 6712SOL     OW27250   1.723   1.115   9.900  1.0373  0.5816 -1.2280
 6712SOL    HW127251   1.755   1.058   9.830  1.9706 -0.2616 -0.1524
 6712SOL    HW227252   1.796   1.176   9.916  0.5789  1.1873 -1.4210
 6713SOL     OW27253  10.547  12.492   3.101  0.1063 -0.3904  0.3231
 6713SOL    HW127254  10.524  12.531   3.017  0.3493  0.5248  0.6706
 6713SOL    HW227255  10.511  12.551   3.167  0.8925 -0.4871  0.8644
 6714SOL     OW27256   5.336  10.419  10.741  0.2426 -0.1618  0.4704
 6714SOL    HW127257   5.309  10.333  10.773  1.8269 -1.1803 -0.7630
 6714SOL    HW227258   5.388  10.401  10.663 -0.5761  2.0150 -0.6809
 6715SOL     OW27259   6.593   9.476   2.054 -0.3371  0.3046 -0.3988
 6715SOL    HW127260   6.616   9.392   2.013  1.2051  0.7277 -0.4618
 6715SOL    HW227261   6.643   9.476   2.136 -0.5665  1.0250 -0.2595
 6716SOL     OW27262  10.064   8.914   1.715 -0.0545  0.0959  0.2872
 6716SOL    HW127263   9.981   8.921   1.668  0.6522  0.4963 -0.9547
 6716SOL    HW227264  10.105   9.000   1.702  0.4869 -0.0405  1.0376
 6717SOL     OW27265   5.513  11.879  12.700 -0.2772 -0.4658 -0.4858
 6717SOL    HW127266   5.448  11.824  12.743  1.6098 -1.5346  1.1753
 6717SOL    HW227267   5.513  11.960  12.750 -0.7378 -0.2394 -0.8523
 6718SOL     OW27268   2.247   4.317   3.461  0.0817  0.0734  0.3687
 6718SOL    HW127269   2.316   4.259   3.492  0.9814  0.4065 -0.9303
 6718SOL    HW227270   2.282   4.405   3.474 -0.5704  0.2797  0.7526
 6719SOL     OW27271   5.704  12.659   2.248 -0.1982  0.4719 -0.0533
 6719SOL    HW127272   5.765  12.694   2.313 -0.2658 -0.1818  0.3746
 6719SOL    HW227273   5.678  12.734   2.196  1.6453  0.6493 -0.7959
 6720SOL     OW27274   7.738   1.932   3.577  0.5900  0.6552 -0.0077
 6720SOL    HW127275   7.673   1.863   3.587  0.8690  0.3653 -0.2050
 6720SOL    HW227276   7.689   2.013   3.596  0.6644  0.2894  1.9464
 6721SOL     OW27277   0.396   1.446   9.383 -0.2886 -0.3771  0.3514
 6721SOL    HW127278   0.422   1.524   9.334  1.5768 -0.8674  0.4921
 6721SOL    HW227279   0.368   1.480   9.468 -0.8346  0.2424 -0.0701
 6722SOL     OW27280   6.488   7.097   2.578  0.1359 -0.3930  0.0971
 6722SOL    HW127281   6.513   7.067   2.490  0.3719 -0.3261  0.1415
 6722SOL    HW227282   6.510   7.190   2.578 -1.1301 -0.0751 -0.2411
 6723SOL     OW27283  10.628   1.184   3.313 -0.5386  0.5372 -0.0934
 6723SOL    HW127284  10.616   1.200   3.220 -0.2903  1.0064 -0.0467
 6723SOL    HW227285  10.546   1.212   3.353 -0.5128  0.6634 -0.1305
 6724SOL     OW27286   9.412   6.594  10.510  0.5095  0.6579  0.1053
 6724SOL    HW127287   9.325   6.604  10.470  0.9101 -2.1910 -1.8614
 6724SOL    HW227288   9.472   6.632  10.445  0.8804 -0.0155  0.0404
 6725SOL     OW27289   2.062   9.815   1.649  0.5000 -0.0797  0.1331
 6725SOL    HW127290   2.130   9.753   1.674  2.1108 -0.0932 -3.7265
 6725SOL    HW227291   2.104   9.901   1.655 -0.2471  0.2573  0.8594
 6726SOL     OW27292   2.794   8.424   7.501  0.1621 -0.0909  0.4507
 6726SOL    HW127293   2.802   8.419   7.596  0.8537 -0.6355  0.3676
 6726SOL    HW227294   2.703   8.399   7.483  0.3912 -1.2768  0.8797
 6727SOL     OW27295   3.045   4.702   3.653  0.2315 -0.1686 -0.5812
 6727SOL    HW127296   2.971   4.646   3.631 -0.5580  0.3635  0.6129
 6727SOL    HW227297   3.011   4.791   3.648  0.5874  0.0512  0.6367
 6728SOL     OW27298   4.438   6.019   9.989  0.3695  0.1928 -0.6607
 6728SOL    HW127299   4.415   6.087  10.053  0.7883  0.2028 -0.5132
 6728SOL    HW227300   4.475   6.067   9.915 -0.0350  0.1750 -0.8752
 6729SOL     OW27301  10.135   6.056   6.606 -0.5297 -0.1484 -0.4863
 6729SOL    HW127302  10.085   6.064   6.687  1.3417 -1.4598  0.8740
 6729SOL    HW227303  10.105   5.973   6.568  0.1344 -0.6104 -0.0078
 6730SOL     OW27304  12.942  11.382   0.958 -0.3574 -0.2056  0.1144
 6730SOL    HW127305  12.934  11.320   1.030 -1.4807  1.2176  1.2710
 6730SOL    HW227306  12.981  11.460   0.997  2.1245 -0.5052 -1.5612
 6731SOL     OW27307   2.523   0.239   2.702  0.1589  0.4499 -0.0353
 6731SOL    HW127308   2.583   0.304   2.664  1.2272  0.1844  1.1500
 6731SOL    HW227309   2.571   0.157   2.697 -1.3033 -0.3654 -1.7891
 6732SOL     OW27310   6.218   5.534   1.688 -0.1073  0.0532 -0.0768
 6732SOL    HW127311   6.219   5.628   1.705 -0.0180 -0.0207  0.3215
 6732SOL    HW227312   6.310   5.508   1.687 -0.1256 -0.0038 -0.3335
 6733SOL     OW27313  12.763   2.146  12.751 -0.5649  0.5581 -0.3719
 6733SOL    HW127314  12.751   2.099  12.834  1.1835  0.5702 -0.0650
 6733SOL    HW227315  12.685   2.201  12.743 -1.9991 -1.2901 -0.0162
 6734SOL     OW27316   1.333   3.879   0.259  0.2990 -0.5197 -0.1584
 6734SOL    HW127317   1.310   3.925   0.179 -0.0853 -1.3511 -0.5410
 6734SOL    HW227318   1.366   3.794   0.228  3.0189  0.2459  0.3946
 6735SOL     OW27319   6.962   7.564   3.566 -0.6260  0.0474  0.2251
 6735SOL    HW127320   7.004   7.498   3.511  1.6818  1.5959 -0.0056
 6735SOL    HW227321   7.021   7.574   3.641 -1.1219  1.5582  0.4545
 6736SOL     OW27322   9.071   2.187   6.240 -0.0143 -0.1097 -0.2271
 6736SOL    HW127323   9.042   2.264   6.290 -0.5081  0.9399 -2.0397
 6736SOL    HW227324   9.045   2.113   6.294 -4.2306  0.7926 -0.6405
 6737SOL     OW27325  10.990  12.823   5.056 -0.3504 -0.1202 -0.7075
 6737SOL    HW127326  10.976  12.735   5.021  1.2003 -0.5285 -0.4024
 6737SOL    HW227327  11.014  12.809   5.148  2.3274  0.3661 -1.2351
 6738SOL     OW27328   7.189   2.705   9.158 -0.1369 -0.5929  0.2082
 6738SOL    HW127329   7.153   2.774   9.102  0.4206  0.0696  0.6423
 6738SOL    HW227330   7.116   2.681   9.216 -0.1291  0.1941  0.5720
 6739SOL     OW27331   3.562   2.524   5.427 -0.2608  0.0391  0.2695
 6739SOL    HW127332   3.653   2.508   5.399  0.2978  1.6946  1.0129
 6739SOL    HW227333   3.571   2.575   5.508 -1.8604  0.2444  0.3373
 6740SOL     OW27334   3.897   1.653  10.390 -0.2014  0.4586 -0.4609
 6740SOL    HW127335   3.821   1.653  10.332  0.6204  1.3712 -1.6203
 6740SOL    HW227336   3.896   1.568  10.433 -1.3041  0.0648 -1.2291
 6741SOL     OW27337  11.648   9.980  10.899 -0.0837 -0.1586 -0.3594
 6741SOL    HW127338  11.692  10.054  10.941  1.8208 -0.6372 -1.3743
 6741SOL    HW227339  11.682   9.903  10.945 -1.6813 -0.4686  0.3718
 6742SOL     OW27340  12.461   2.344   8.439 -0.1836  0.2743  0.1876
 6742SOL    HW127341  12.439   2.293   8.517  0.7715 -2.9073 -1.4522
 6742SOL    HW227342  12.547   2.382   8.458 -0.5878  0.7307  1.1677
 6743SOL     OW27343   4.634   8.273   7.066 -0.5777 -0.0080 -0.5885
 6743SOL    HW127344   4.634   8.212   6.992 -0.1538 -1.1122  0.2942
 6743SOL    HW227345   4.595   8.223   7.138  0.5841  0.4554  0.3946
 6744SOL     OW27346  10.298   1.141   9.627  0.1460 -0.7680 -0.0497
 6744SOL    HW127347  10.331   1.169   9.713  0.6082 -0.4982 -0.3084
 6744SOL    HW227348  10.221   1.197   9.612  0.9310  0.2457 -0.4603
 6745SOL     OW27349   8.846   4.220   8.461 -0.1862  0.1217  0.3210
 6745SOL    HW127350   8.836   4.304   8.506 -0.2180  0.9545 -1.1590
 6745SOL    HW227351   8.814   4.237   8.372 -0.4398 -1.5432  0.0668
 6746SOL     OW27352   9.889   2.571   4.743  0.3377  0.3128  0.0475
 6746SOL    HW127353   9.835   2.588   4.666 -1.7005  1.7520  1.6536
 6746SOL    HW227354   9.951   2.644   4.746  0.0047  0.5967  0.0888
 6747SOL     OW27355   6.257   5.235   0.742  0.5097 -0.3834 -0.1243
 6747SOL    HW127356   6.184   5.174   0.741 -0.0797  0.3033  0.0411
 6747SOL    HW227357   6.216   5.322   0.748  1.2028  0.2606 -3.2872
 6748SOL     OW27358  11.219   1.536   4.843 -0.0492  0.2562 -0.2271
 6748SOL    HW127359  11.136   1.532   4.795 -1.0552  0.6709  1.3923
 6748SOL    HW227360  11.286   1.543   4.775 -1.3408  0.0511 -1.5754
 6749SOL     OW27361  10.283   7.341   8.644  0.1063 -0.3546  0.0196
 6749SOL    HW127362  10.307   7.264   8.695 -1.4031  0.0280  1.3582
 6749SOL    HW227363  10.210   7.313   8.589  0.8857 -0.4109 -1.0150
 6750SOL     OW27364   9.914   3.636   7.721 -0.6548  0.0185 -0.3690
 6750SOL    HW127365   9.865   3.712   7.690  0.2975  1.5020  1.5655
 6750SOL    HW227366   9.999   3.643   7.678 -0.6660 -0.1315 -0.4175
 6751SOL     OW27367   4.409   6.342   4.071  0.4746 -0.0311 -0.1440
 6751SOL    HW127368   4.352   6.410   4.105 -1.5328 -2.0043  0.7006
 6751SOL    HW227369   4.462   6.315   4.145 -0.3228 -0.8564  0.1551
 6752SOL     OW27370   3.407   0.507   6.473  0.5997  0.0601 -0.3807
 6752SOL    HW127371   3.389   0.491   6.566  0.7332  2.6916  0.1791
 6752SOL    HW227372   3.337   0.566   6.445  0.4914 -0.7930 -2.0107
 6753SOL     OW27373   4.342  10.485   3.593 -0.4534 -0.4180 -0.3755
 6753SOL    HW127374   4.433  10.502   3.619 -0.4721  0.9661 -1.0983
 6753SOL    HW227375   4.290  10.519   3.665 -0.4185 -1.4267  0.1481
 6754SOL     OW27376   5.077   1.403   9.936 -0.0771  0.0733 -0.3295
 6754SOL    HW127377   5.066   1.308   9.943  2.1483 -0.2477 -0.6144
 6754SOL    HW227378   4.988   1.438   9.942 -0.8858 -1.9830  0.3685
 6755SOL     OW27379   3.258  10.959  11.701  0.0614  0.0071 -0.7364
 6755SOL    HW127380   3.209  10.935  11.622  0.2819 -0.2186 -0.8074
 6755SOL    HW227381   3.241  10.887  11.762  1.2172 -0.6420 -1.1634
 6756SOL     OW27382   0.784   2.696   1.288  0.1802 -0.1294  0.0439
 6756SOL    HW127383   0.753   2.623   1.341 -0.1974 -1.0174 -1.3328
 6756SOL    HW227384   0.704   2.737   1.254  0.4022  0.6771  0.4710
 6757SOL     OW27385  12.103  10.570   3.051 -0.0713 -0.8834  0.2751
 6757SOL    HW127386  12.042  10.597   3.121 -0.6238 -1.7139  0.1325
 6757SOL    HW227387  12.186  10.612   3.074 -1.0059  1.3837 -0.2526
 6758SOL     OW27388  12.005   5.930   2.923  0.1767 -0.1800  0.9686
 6758SOL    HW127389  12.060   5.987   2.977  0.8055  2.1234 -1.8320
 6758SOL    HW227390  12.064   5.900   2.853 -1.2954 -0.4824 -0.1919
 6759SOL     OW27391   1.617   3.511  12.800 -0.3514  0.2340 -0.4010
 6759SOL    HW127392   1.567   3.567  12.740 -0.6456 -0.1680 -0.5385
 6759SOL    HW227393   1.685   3.568  12.835  0.3107  0.2844 -1.7109
 6760SOL     OW27394   6.539   8.447  10.344 -0.3707  0.3187 -0.3366
 6760SOL    HW127395   6.454   8.453  10.387 -0.3074 -0.2560 -0.1193
 6760SOL    HW227396   6.585   8.526  10.372  0.3613 -0.8925  2.2498
 6761SOL     OW27397   1.708   7.199  11.664  0.0265  0.4206  0.1668
 6761SOL    HW127398   1.676   7.289  11.673  0.4372  0.3885  2.9081
 6761SOL    HW227399   1.637   7.145  11.698 -0.4937 -0.3944 -2.1109
 6762SOL     OW27400   3.171   2.411   2.803  0.4550  0.3552 -0.0665
 6762SOL    HW127401   3.143   2.490   2.848 -1.3106 -1.2742  1.9273
 6762SOL    HW227402   3.266   2.408   2.815  0.6198  2.3512 -0.5957
 6763SOL     OW27403  10.159   8.368   6.602  0.0788 -0.0418  0.2856
 6763SOL    HW127404  10.077   8.325   6.578  1.6539 -2.2338 -1.6035
 6763SOL    HW227405  10.158   8.369   6.698 -0.1473 -4.4470  0.5295
 6764SOL     OW27406   0.804   9.330   4.936  0.0555  0.3772 -0.0937
 6764SOL    HW127407   0.745   9.292   5.002  0.5977  0.5508  0.5009
 6764SOL    HW227408   0.805   9.424   4.956  0.8432  0.3209  0.1563
 6765SOL     OW27409   5.295   4.302   1.052  0.0906  0.1603 -0.5394
 6765SOL    HW127410   5.216   4.308   1.106  1.2933  1.3718  1.1867
 6765SOL    HW227411   5.345   4.229   1.089  1.0964  1.2316  0.2712
 6766SOL     OW27412   0.132   4.562   0.982 -0.1713 -0.8563 -0.1106
 6766SOL    HW127413   0.181   4.479   0.980  1.8067  0.2308 -2.0861
 6766SOL    HW227414   0.072   4.556   0.908  0.9969 -0.0282 -1.1692
 6767SOL     OW27415   0.897   9.182  11.140 -0.0430 -0.3162  0.0388
 6767SOL    HW127416   0.924   9.194  11.049  0.4625 -0.0973  0.2153
 6767SOL    HW227417   0.844   9.259  11.159  0.2679 -0.1061  0.0785
 6768SOL     OW27418   0.287   1.614  11.203  0.0378  0.1301  0.4049
 6768SOL    HW127419   0.252   1.599  11.290  0.1863  0.0186  0.4453
 6768SOL    HW227420   0.380   1.598  11.211 -0.0742 -0.7436  0.0234
 6769SOL     OW27421   3.018   5.679   4.656 -0.8566 -0.2097 -0.0102
 6769SOL    HW127422   2.951   5.715   4.598  0.3284  0.9315 -0.7495
 6769SOL    HW227423   3.001   5.719   4.741 -2.0330 -1.1546  0.2272
 6770SOL     OW27424   9.917  11.828   5.795  0.4114 -0.9013 -0.1004
 6770SOL    HW127425   9.860  11.902   5.815 -0.3724 -1.4598 -0.2167
 6770SOL    HW227426   9.885  11.757   5.852  0.7551 -1.3322 -0.4319
 6771SOL     OW27427   3.520   0.988   6.309  0.0850 -0.1958 -0.0945
 6771SOL    HW127428   3.581   1.013   6.239 -0.2973  0.0750 -0.3351
 6771SOL    HW227429   3.518   0.893   6.307 -1.9299 -0.1841 -2.2181
 6772SOL     OW27430   9.620   6.842  12.067  0.3483  0.0855 -0.1334
 6772SOL    HW127431   9.536   6.797  12.075 -0.4309  1.3205 -1.0669
 6772SOL    HW227432   9.679   6.792  12.124 -1.1634 -0.4042  1.0671
 6773SOL     OW27433   6.184   3.618   2.682  0.2865 -0.4228  0.1390
 6773SOL    HW127434   6.160   3.681   2.614  1.1371  0.2685  0.4681
 6773SOL    HW227435   6.100   3.585   2.714 -0.2771  1.8152  1.1605
 6774SOL     OW27436   6.248   3.986   5.795 -0.8042 -0.5456 -0.2669
 6774SOL    HW127437   6.200   4.069   5.787  1.4560  0.7591 -1.2113
 6774SOL    HW227438   6.299   3.996   5.875  0.3430 -0.5118 -0.9861
 6775SOL     OW27439   2.618   8.929   4.289 -0.3325  0.3073  0.1237
 6775SOL    HW127440   2.551   8.891   4.233 -0.2142  0.6888 -0.2831
 6775SOL    HW227441   2.573   8.945   4.372 -0.7669  0.6060 -0.1616
 6776SOL     OW27442   9.414   6.445   3.363  0.1814 -0.0797 -0.8986
 6776SOL    HW127443   9.324   6.416   3.351 -0.2493 -0.0619  1.7843
 6776SOL    HW227444   9.408   6.519   3.423  2.0452 -0.8569  0.3508
 6777SOL     OW27445   9.953   9.559   3.948  0.4568 -0.6390  0.6424
 6777SOL    HW127446  10.040   9.560   3.987  1.0554 -3.0730 -0.4489
 6777SOL    HW227447   9.968   9.577   3.855 -0.2439 -0.8017  0.4877
 6778SOL     OW27448   9.485   6.196  11.877 -0.1712  0.4896  0.3410
 6778SOL    HW127449   9.425   6.270  11.879 -0.3767  0.4084 -1.4787
 6778SOL    HW227450   9.433   6.125  11.839 -0.1724 -0.8147  2.5824
 6779SOL     OW27451   6.845   1.999  10.992 -0.3206  0.2136 -0.4330
 6779SOL    HW127452   6.939   1.994  10.975 -0.3180 -1.3504 -0.1018
 6779SOL    HW227453   6.820   1.910  11.016 -1.5404  0.9396  1.2564
 6780SOL     OW27454   3.840   7.645   2.244 -0.2241  0.4687 -0.2104
 6780SOL    HW127455   3.894   7.674   2.317  0.1155  0.0016 -0.2730
 6780SOL    HW227456   3.898   7.650   2.168 -0.6489  1.1917 -0.4954
 6781SOL     OW27457   6.077  12.758  12.689  0.6868 -0.0573 -0.0292
 6781SOL    HW127458   6.140  12.691  12.715  1.1539  0.2879 -0.2716
 6781SOL    HW227459   6.104  12.836  12.737  0.0319 -0.0869  0.3954
 6782SOL     OW27460   3.176  11.127   5.344  0.4409 -0.8693  0.5062
 6782SOL    HW127461   3.168  11.207   5.291  1.1123 -0.7037  0.6492
 6782SOL    HW227462   3.089  11.088   5.340 -0.8028  1.3410  2.7475
 6783SOL     OW27463   3.939   4.731  12.252  0.0939 -0.4826  0.6094
 6783SOL    HW127464   4.008   4.736  12.318  0.2397  0.6330  0.4045
 6783SOL    HW227465   3.862   4.769  12.295 -0.0294 -0.5037  0.4087
 6784SOL     OW27466   6.329   1.560   9.503  0.3085 -0.2454  0.0631
 6784SOL    HW127467   6.353   1.582   9.593 -0.5449  1.0122  0.0163
 6784SOL    HW227468   6.244   1.517   9.511 -0.2966  0.8631 -0.2009
 6785SOL     OW27469   0.273   5.294   3.639 -0.3504  0.3983 -0.3794
 6785SOL    HW127470   0.218   5.268   3.713  1.2641 -1.0637  0.3790
 6785SOL    HW227471   0.311   5.377   3.666 -0.2183  0.1570  0.1889
 6786SOL     OW27472   4.852   5.740   0.793  0.4703  0.5535  0.0896
 6786SOL    HW127473   4.915   5.784   0.850  0.7433 -0.9085  0.9731
 6786SOL    HW227474   4.774   5.728   0.848 -0.6018  2.3057 -0.9774
 6787SOL     OW27475   8.846  10.842   0.029 -0.1777 -0.5339  0.5431
 6787SOL    HW127476   8.836  10.935   0.007  0.6717 -0.1625  1.6187
 6787SOL    HW227477   8.894  10.842   0.112  1.9898 -1.9589 -0.6135
 6788SOL     OW27478   4.468  11.495  11.985  0.0648  0.8035  0.0558
 6788SOL    HW127479   4.467  11.587  11.956  1.7137  0.4832 -1.1224
 6788SOL    HW227480   4.377  11.467  11.976 -0.1536  1.8198 -1.3384
 6789SOL     OW27481  12.144   6.159   9.990 -0.1958  0.1824 -0.5662
 6789SOL    HW127482  12.165   6.252  10.000 -1.0459  0.1852  1.6000
 6789SOL    HW227483  12.172   6.119  10.072  1.9748 -1.8952 -2.1570
 6790SOL     OW27484   0.136   4.438   5.850  0.4655 -0.5208  0.3973
 6790SOL    HW127485   0.198   4.388   5.797  2.3438  0.8487  1.1901
 6790SOL    HW227486   0.100   4.503   5.790 -0.9930 -1.9100 -0.3040
 6791SOL     OW27487   7.903   5.041  11.234 -0.3192 -0.0734 -0.3271
 6791SOL    HW127488   7.815   5.051  11.199 -0.6296  1.5894  0.8616
 6791SOL    HW227489   7.929   5.128  11.262  1.9776 -0.3810 -1.2061
 6792SOL     OW27490   7.904   8.714  12.286  0.5582 -0.4764 -0.2050
 6792SOL    HW127491   7.918   8.677  12.374 -0.1262 -1.3202 -0.4334
 6792SOL    HW227492   7.989   8.751  12.262  0.9166 -0.7673  0.5704
 6793SOL     OW27493   7.328  10.543  10.027 -0.4293  0.4474 -0.0548
 6793SOL    HW127494   7.265  10.586  10.085  0.4020  1.2548  0.2698
 6793SOL    HW227495   7.408  10.596  10.034 -0.3578  0.7066 -2.0821
 6794SOL     OW27496   7.346   4.298   2.596  0.3708  0.4040 -0.1585
 6794SOL    HW127497   7.277   4.320   2.534 -0.5983  1.3751  1.1879
 6794SOL    HW227498   7.341   4.367   2.662  1.8357 -0.1872  0.6130
 6795SOL     OW27499   8.094   6.480   8.699  0.1977  0.8374  0.0402
 6795SOL    HW127500   8.013   6.483   8.750  0.5685 -0.9239  0.7890
 6795SOL    HW227501   8.120   6.388   8.700  1.8558  1.2573 -0.7715
 6796SOL     OW27502   8.731   6.612  10.198  0.8862  0.0347  0.4921
 6796SOL    HW127503   8.765   6.676  10.135 -2.1162  0.3769 -0.9481
 6796SOL    HW227504   8.639   6.636  10.209 -0.1749 -3.5449  0.5013
 6797SOL     OW27505   8.578   1.486   0.894 -0.2712 -0.1421 -0.2538
 6797SOL    HW127506   8.590   1.576   0.925  0.3475  1.0563 -3.5535
 6797SOL    HW227507   8.631   1.433   0.954 -0.1052  1.7303  1.3738
 6798SOL     OW27508   9.491   2.483  11.010  0.4056  0.3292  0.3558
 6798SOL    HW127509   9.453   2.565  10.978 -0.4276 -0.1813 -0.0031
 6798SOL    HW227510   9.545   2.452  10.938 -0.1983 -0.0142  0.0457
 6799SOL     OW27511  11.608  10.318   0.460 -0.1009  0.3010 -0.3551
 6799SOL    HW127512  11.657  10.309   0.378 -1.0929  2.3599 -1.2469
 6799SOL    HW227513  11.519  10.340   0.433 -0.5734  0.5444  1.2810
 6800SOL     OW27514   0.491  11.525   8.984  0.4674 -0.3254  0.2116
 6800SOL    HW127515   0.430  11.544   8.913  1.3839 -1.3476 -0.9055
 6800SOL    HW227516   0.463  11.580   9.056 -1.9551 -0.9626 -0.1603
 6801SOL     OW27517   8.631   5.717   4.118 -0.1329 -0.3420  0.1811
 6801SOL    HW127518   8.658   5.726   4.209  0.7292 -2.6775  0.2280
 6801SOL    HW227519   8.535   5.722   4.121 -0.0644  1.8651  0.8420
 6802SOL     OW27520  12.955   2.880   4.688  0.2253  0.2706 -0.0358
 6802SOL    HW127521  12.919   2.936   4.620  0.3513 -0.0459 -0.3704
 6802SOL    HW227522  12.879   2.838   4.728  0.0607  1.3166  0.8017
 6803SOL     OW27523   8.868   1.117   4.024  0.2460  0.1471  0.0731
 6803SOL    HW127524   8.806   1.142   3.955 -1.3460  0.9511  1.7043
 6803SOL    HW227525   8.931   1.059   3.981 -0.2093  1.2533 -2.2176
 6804SOL     OW27526  10.516  10.258   2.566  0.0589  0.0447  0.2005
 6804SOL    HW127527  10.422  10.278   2.569  0.2465  0.9215  0.6379
 6804SOL    HW227528  10.525  10.177   2.617 -0.5151 -0.2847 -0.2166
 6805SOL     OW27529   5.947   5.783   0.670  0.5597 -0.7992  0.0272
 6805SOL    HW127530   5.981   5.847   0.607 -0.6199  0.1316  0.2961
 6805SOL    HW227531   5.898   5.721   0.616 -0.5012  0.0325 -0.0099
 6806SOL     OW27532   4.149   4.439   3.896 -0.0338 -0.3625 -0.0707
 6806SOL    HW127533   4.231   4.486   3.913 -0.6038  0.2804  1.0013
 6806SOL    HW227534   4.087   4.508   3.871 -0.9479 -0.4583  1.7779
 6807SOL     OW27535   1.042   4.079  11.058 -0.3399 -0.4808 -0.3292
 6807SOL    HW127536   1.073   4.026  10.985  1.0876  1.0010 -0.8648
 6807SOL    HW227537   1.121   4.107  11.103 -1.0713  0.5729  0.3624
 6808SOL     OW27538   0.903  12.044   9.730  0.5786  0.3866 -0.4972
 6808SOL    HW127539   0.920  12.137   9.744  1.6615  0.2189 -0.6577
 6808SOL    HW227540   0.829  12.042   9.669 -1.9227  1.1422  2.2534
 6809SOL     OW27541   0.314  12.927   7.984 -0.2892  0.1992 -0.2759
 6809SOL    HW127542   0.225  12.951   8.011 -0.0675  0.7745 -0.0501
 6809SOL    HW227543   0.351  13.008   7.949  0.1095 -0.0675 -0.4786
 6810SOL     OW27544   5.095  10.894  10.649  0.2287  0.8392 -0.2776
 6810SOL    HW127545   5.149  10.971  10.667  1.3445  0.2297 -0.8758
 6810SOL    HW227546   5.015  10.909  10.699  1.2499  1.4353  1.2810
 6811SOL     OW27547   2.797   7.523   7.445 -0.5169  0.0621 -0.0520
 6811SOL    HW127548   2.713   7.531   7.491  0.1021  0.6744  1.0293
 6811SOL    HW227549   2.801   7.602   7.390 -1.4706 -0.9053 -1.5801
 6812SOL     OW27550   7.646   6.953  10.002  0.2678  0.5690  0.3360
 6812SOL    HW127551   7.553   6.944  10.022  0.0252  0.3252 -0.8106
 6812SOL    HW227552   7.681   6.864  10.008  0.0176  0.3485 -1.0238
 6813SOL     OW27553   1.436   9.670   0.830  0.5001 -0.4741  0.3225
 6813SOL    HW127554   1.496   9.648   0.759 -0.0908  0.9661 -0.6872
 6813SOL    HW227555   1.449   9.764   0.844  0.4157 -0.6905  1.9498
 6814SOL     OW27556   9.886   6.863   2.028  0.1212 -0.2032  0.6434
 6814SOL    HW127557   9.808   6.826   2.069  0.1407 -2.0534 -0.8648
 6814SOL    HW227558   9.879   6.957   2.043 -2.1742 -0.3721  0.9281
 6815SOL     OW27559  10.213   0.308   6.798 -0.0632  0.0714  0.2005
 6815SOL    HW127560  10.175   0.220   6.788 -2.3532  1.0285 -0.1342
 6815SOL    HW227561  10.225   0.318   6.893 -1.8429  0.1767  0.4373
 6816SOL     OW27562   8.178   7.976   1.757 -0.1521  0.5552 -0.8280
 6816SOL    HW127563   8.224   8.043   1.808 -0.5867  0.9355 -0.9385
 6816SOL    HW227564   8.215   7.983   1.669  0.4689  0.0187 -0.6222
 6817SOL     OW27565  11.267   6.665  11.038 -0.2308 -0.5788  0.1587
 6817SOL    HW127566  11.316   6.729  11.089  1.0165  0.4939 -2.2393
 6817SOL    HW227567  11.191   6.713  11.005 -0.3050 -0.8675 -0.1030
 6818SOL     OW27568   3.736   7.776   3.822  0.5758 -0.1341  0.4666
 6818SOL    HW127569   3.660   7.718   3.824  0.5513 -0.0928  2.0478
 6818SOL    HW227570   3.789   7.744   3.749 -0.2569 -1.0752  0.2529
 6819SOL     OW27571   5.256  11.134   4.718 -0.0489 -1.1101  0.1445
 6819SOL    HW127572   5.260  11.214   4.666  3.2828 -0.6499  0.8930
 6819SOL    HW227573   5.193  11.154   4.788 -0.0859  0.4376 -0.2936
 6820SOL     OW27574   5.571  10.201   7.338  0.2311 -0.3680 -0.3163
 6820SOL    HW127575   5.556  10.172   7.248  0.4682  2.8762 -1.5210
 6820SOL    HW227576   5.662  10.178   7.356  0.6545  0.2785 -1.5039
 6821SOL     OW27577  11.491   2.793   8.328  0.0502  0.4221  0.2308
 6821SOL    HW127578  11.488   2.719   8.388 -1.3265  0.0954 -0.2130
 6821SOL    HW227579  11.447   2.763   8.249  0.0625  1.4987 -0.2075
 6822SOL     OW27580   9.214   9.303   4.814 -0.3823 -0.0258 -0.0581
 6822SOL    HW127581   9.241   9.268   4.729  1.4380 -0.7528  0.7758
 6822SOL    HW227582   9.295   9.328   4.857 -1.1153 -0.9930  2.0236
 6823SOL     OW27583   3.238   7.829   2.940 -0.1277 -0.3560 -0.0693
 6823SOL    HW127584   3.281   7.866   3.017  4.1829 -0.7057 -2.0057
 6823SOL    HW227585   3.261   7.736   2.942  0.2127 -0.3415 -1.8303
 6824SOL     OW27586  10.524   6.596   5.928 -0.7659 -0.3341 -0.5283
 6824SOL    HW127587  10.474   6.545   5.992 -1.1991 -1.0597 -1.4249
 6824SOL    HW227588  10.461   6.618   5.860  0.0957 -1.2526 -1.6814
 6825SOL     OW27589   7.561   9.242  12.763  0.2934  0.0510  0.7845
 6825SOL    HW127590   7.479   9.238  12.811  0.3426  0.3357  0.8926
 6825SOL    HW227591   7.588   9.151  12.754 -0.2766 -0.0779  0.3314
 6826SOL     OW27592  12.704   1.908  12.369  0.2086  0.1696 -0.0997
 6826SOL    HW127593  12.676   1.817  12.357  0.5343  0.2389 -1.6549
 6826SOL    HW227594  12.710   1.919  12.463 -2.9330 -0.4682  0.2921
 6827SOL     OW27595   0.050   7.347   1.645 -0.0074 -0.1150 -0.2209
 6827SOL    HW127596   0.080   7.350   1.735 -0.7845 -0.6624  0.0716
 6827SOL    HW227597   0.077   7.262   1.613 -3.0160 -1.5953  0.7499
 6828SOL     OW27598   1.750   1.114   4.390 -0.5405  0.0863 -0.2724
 6828SOL    HW127599   1.802   1.189   4.418  0.0997 -0.8450  1.1296
 6828SOL    HW227600   1.806   1.068   4.328 -0.1202 -0.3095  0.3909
 6829SOL     OW27601   1.718   4.934   3.158  0.2557  0.5812  0.0067
 6829SOL    HW127602   1.779   5.005   3.136  1.0832  0.3575  1.4660
 6829SOL    HW227603   1.662   4.971   3.226 -0.2781  0.2863 -0.2654
 6830SOL     OW27604   6.452  11.537   3.136  0.3107 -0.0570 -0.0513
 6830SOL    HW127605   6.382  11.596   3.108  0.0891 -0.2660  0.0724
 6830SOL    HW227606   6.427  11.451   3.102  0.4864 -0.1395  0.0279
 6831SOL     OW27607   8.439   4.414   9.579  0.4119 -0.5973  0.3708
 6831SOL    HW127608   8.454   4.469   9.502  0.5815  1.0345  1.5081
 6831SOL    HW227609   8.387   4.469   9.638  1.5337 -1.2229  2.0227
 6832SOL     OW27610  11.164   8.400   5.748  0.1060 -0.0741 -0.1952
 6832SOL    HW127611  11.195   8.476   5.699 -0.3286  0.6672  0.6432
 6832SOL    HW227612  11.142   8.434   5.834  0.5669 -1.2894  0.4373
 6833SOL     OW27613   2.043   7.353   3.652  0.1650  0.4967 -0.4055
 6833SOL    HW127614   1.990   7.332   3.729 -1.3997  1.2662 -1.2131
 6833SOL    HW227615   2.131   7.368   3.687 -0.8904  2.8642  1.5709
 6834SOL     OW27616   0.224   4.116   5.114  0.5592  0.0978  0.3111
 6834SOL    HW127617   0.168   4.079   5.046  1.5897  2.2544 -1.8569
 6834SOL    HW227618   0.288   4.046   5.132  1.5653  0.1184 -2.5601
 6835SOL     OW27619   1.548   6.639   4.601 -0.1215  0.2119  0.4783
 6835SOL    HW127620   1.537   6.717   4.656 -0.8489 -0.3894  1.2098
 6835SOL    HW227621   1.556   6.567   4.663 -0.3255 -0.4079 -0.1993
 6836SOL     OW27622   0.010   9.701   3.014 -0.1715 -0.7598 -0.5085
 6836SOL    HW127623   0.084   9.755   3.044  0.1263 -0.2215 -2.0714
 6836SOL    HW227624   0.051   9.622   2.979 -0.4993 -1.3559  0.4454
 6837SOL     OW27625   8.910   0.813   6.643 -0.3240  0.0550  1.2903
 6837SOL    HW127626   8.853   0.737   6.640 -1.4976  0.9090  1.2819
 6837SOL    HW227627   8.856   0.885   6.610  1.0828  0.7031  0.2610
 6838SOL     OW27628   2.061   4.661   1.983 -0.2511  0.0807 -0.7403
 6838SOL    HW127629   2.091   4.570   1.981  0.6508  0.3457  0.0766
 6838SOL    HW227630   2.045   4.680   2.075  0.8736  1.1413 -0.7346
 6839SOL     OW27631   6.448   8.124   7.127 -0.6198 -0.4792  0.0584
 6839SOL    HW127632   6.512   8.088   7.189 -0.3013 -0.7473 -0.4109
 6839SOL    HW227633   6.466   8.078   7.045 -0.3318  0.5996 -0.5161
 6840SOL     OW27634   7.182  12.932   0.351  0.2136 -0.2205 -0.3140
 6840SOL    HW127635   7.236  12.969   0.281  0.6654  0.8775  0.5739
 6840SOL    HW227636   7.107  12.992   0.357 -1.1133 -1.6542 -1.4456
 6841SOL     OW27637   5.529  12.810   3.860 -0.2326  0.1689  0.1625
 6841SOL    HW127638   5.442  12.846   3.878  0.3206  1.0259  1.2392
 6841SOL    HW227639   5.547  12.837   3.770 -0.6011  0.9913  0.3265
 6842SOL     OW27640  10.793  11.237   2.087  0.0360 -0.1561  0.3490
 6842SOL    HW127641  10.749  11.179   2.149  0.4887 -0.7755  0.1042
 6842SOL    HW227642  10.883  11.205   2.083  0.2812  0.5418  0.1748
 6843SOL     OW27643   6.125   8.654  11.304 -0.1454  0.1492  0.4269
 6843SOL    HW127644   6.190   8.584  11.300 -0.4176 -0.1207  0.6371
 6843SOL    HW227645   6.041   8.608  11.307 -0.3702  0.4991 -0.2947
 6844SOL     OW27646   4.162  10.530  12.092  0.7878  0.5690  0.9994
 6844SOL    HW127647   4.141  10.443  12.124 -3.2367 -0.3507 -3.0011
 6844SOL    HW227648   4.098  10.587  12.135 -0.7776  0.3062 -0.8377
 6845SOL     OW27649   6.654   2.565  12.345 -0.4720 -0.3562 -0.1067
 6845SOL    HW127650   6.632   2.477  12.312  1.4447 -0.5675 -0.9440
 6845SOL    HW227651   6.579   2.619  12.318 -0.4139 -1.1760 -2.1482
 6846SOL     OW27652   3.509   5.063   8.691  0.4997 -0.3968 -0.2155
 6846SOL    HW127653   3.496   5.126   8.762  0.8709 -1.5590  0.9300
 6846SOL    HW227654   3.422   5.047   8.656  0.2441 -0.1521  0.3005
 6847SOL     OW27655   3.985   6.134  10.764 -0.6778  0.3365  0.1238
 6847SOL    HW127656   3.940   6.156  10.846  0.3358  0.8291  0.5676
 6847SOL    HW227657   3.945   6.052  10.736  0.6784 -1.2275  2.4572
 6848SOL     OW27658   7.730   0.877   9.938  0.2465 -0.0262  0.0253
 6848SOL    HW127659   7.769   0.939   9.876  0.3533 -1.4641 -1.4231
 6848SOL    HW227660   7.705   0.802   9.884 -3.6593  0.3701  0.9957
 6849SOL     OW27661   1.249   1.967   2.708  0.1839 -0.1496 -0.0971
 6849SOL    HW127662   1.164   1.977   2.665  0.0533 -0.5381  0.0596
 6849SOL    HW227663   1.265   2.051   2.751  0.5517  0.4277 -1.3074
 6850SOL     OW27664   0.949   3.713   5.437  0.3270 -0.3023  0.2069
 6850SOL    HW127665   0.957   3.618   5.425  2.4317 -0.1035 -0.2289
 6850SOL    HW227666   0.866   3.724   5.485 -0.1328 -2.3154 -0.0511
 6851SOL     OW27667   5.566   0.544   6.956  0.2336 -0.0252  0.1765
 6851SOL    HW127668   5.476   0.565   6.934  0.5660  1.1861 -0.0784
 6851SOL    HW227669   5.601   0.502   6.878 -0.7548 -2.7366  1.0631
 6852SOL     OW27670  10.284  12.760   7.347 -0.1246 -0.1230  0.3968
 6852SOL    HW127671  10.208  12.766   7.404  1.5058  0.8369  2.6074
 6852SOL    HW227672  10.319  12.672   7.362  0.2162  0.0745  0.7822
 6853SOL     OW27673   2.827   9.665   5.867 -0.0417  0.0979 -0.1374
 6853SOL    HW127674   2.841   9.727   5.938  0.6995 -1.5389  1.2226
 6853SOL    HW227675   2.821   9.719   5.788 -2.9993  2.1554  1.3316
 6854SOL     OW27676   4.053   6.475  10.458 -0.1493 -0.0297  0.7214
 6854SOL    HW127677   3.959   6.487  10.461 -0.1805 -0.2032  0.4916
 6854SOL    HW227678   4.087   6.530  10.529 -0.5396 -1.1556  1.8265
 6855SOL     OW27679   6.070   7.353  10.565 -0.3323  0.1937 -0.0974
 6855SOL    HW127680   6.160   7.362  10.596 -0.3299 -0.1163 -0.0111
 6855SOL    HW227681   6.026   7.432  10.597  0.1283  0.8087 -0.9370
 6856SOL     OW27682   0.185   9.840   1.954 -0.1353  0.4448  0.2486
 6856SOL    HW127683   0.145   9.763   1.994 -1.0830  0.7101 -0.1454
 6856SOL    HW227684   0.137   9.914   1.992  0.6424  0.8322  0.4888
 6857SOL     OW27685   7.812  11.337   9.987  0.1590 -0.1419  0.0146
 6857SOL    HW127686   7.782  11.426   9.970  1.5312  0.8349  2.2154
 6857SOL    HW227687   7.732  11.286   9.996 -0.7806  1.4994  1.6469
 6858SOL     OW27688   2.575   3.742   4.449 -0.1739  0.0346 -0.7209
 6858SOL    HW127689   2.615   3.671   4.400 -1.8482 -0.7295 -1.0706
 6858SOL    HW227690   2.504   3.774   4.392 -2.8491 -1.5481  1.4474
 6859SOL     OW27691   6.537   0.087   0.922 -0.3258  0.3920  0.3160
 6859SOL    HW127692   6.573  -0.001   0.930 -0.8972  0.2029  0.8537
 6859SOL    HW227693   6.483   0.098   1.000 -1.1135  0.8227 -0.2822
 6860SOL     OW27694   5.828  12.334   7.813 -0.2668  0.2387  0.0286
 6860SOL    HW127695   5.798  12.319   7.724 -1.0431 -2.0360  0.5957
 6860SOL    HW227696   5.770  12.281   7.867  1.1442  0.3385  1.7429
 6861SOL     OW27697   2.586   2.169  12.762 -0.0683  0.5360 -0.0422
 6861SOL    HW127698   2.671   2.136  12.793 -0.3448 -1.7689 -1.5138
 6861SOL    HW227699   2.553   2.220  12.836  2.2336  0.8619  0.8687
 6862SOL     OW27700  11.564   8.962   5.426  0.6570  0.2918  0.7865
 6862SOL    HW127701  11.543   9.046   5.467  0.2456  0.9366 -0.6529
 6862SOL    HW227702  11.656   8.948   5.446  0.7941  1.2115  0.8517
 6863SOL     OW27703   1.550   5.256   5.699  0.1235  0.1176  0.0241
 6863SOL    HW127704   1.465   5.284   5.732 -0.2363 -1.6392  0.7008
 6863SOL    HW227705   1.592   5.336   5.670 -2.4524  0.8559 -2.0127
 6864SOL     OW27706   1.165   6.108   6.599 -0.0961  0.1519  0.6493
 6864SOL    HW127707   1.196   6.148   6.518  1.1564  0.6005  1.3283
 6864SOL    HW227708   1.136   6.020   6.572  0.3643  0.2638 -0.2700
 6865SOL     OW27709  11.111   3.367   2.638 -0.0913  0.0457 -0.1206
 6865SOL    HW127710  11.055   3.444   2.627  1.3410  1.1227 -0.2837
 6865SOL    HW227711  11.117   3.354   2.732 -1.1051 -0.4890 -0.1129
 6866SOL     OW27712   1.998   5.807   8.118  0.0242 -0.0680 -0.1190
 6866SOL    HW127713   2.046   5.746   8.062  0.4038  0.2738 -0.1696
 6866SOL    HW227714   2.029   5.894   8.091 -1.9210  0.3018 -1.4196
 6867SOL     OW27715  11.861   1.780   6.295 -0.0027 -0.1965 -0.2480
 6867SOL    HW127716  11.811   1.699   6.306 -2.0788  0.9909 -0.3333
 6867SOL    HW227717  11.863   1.795   6.201  0.6258 -0.2972 -0.2515
 6868SOL     OW27718   7.150   3.886  11.837 -0.4886  0.5324 -0.1748
 6868SOL    HW127719   7.056   3.899  11.826 -0.5744 -0.5476 -0.9042
 6868SOL    HW227720   7.156   3.817  11.903 -0.2968 -0.9071 -1.6387
 6869SOL     OW27721   0.319   0.668   3.638  0.2727  0.2571 -0.5183
 6869SOL    HW127722   0.294   0.695   3.550 -0.7081  0.9626 -0.0374
 6869SOL    HW227723   0.240   0.630   3.676  0.2164  1.4307  0.6175
 6870SOL     OW27724  11.418   1.893   6.239  0.0597 -0.0624  0.0317
 6870SOL    HW127725  11.494   1.942   6.207  1.2307 -1.3880  0.7265
 6870SOL    HW227726  11.432   1.804   6.208 -0.0662 -0.8121  2.0280
 6871SOL     OW27727   7.439   0.640   0.972  0.0582 -0.3631  0.5921
 6871SOL    HW127728   7.530   0.669   0.979 -0.0681  0.2852 -0.3311
 6871SOL    HW227729   7.441   0.572   0.904 -0.3197  0.4953 -0.3085
 6872SOL     OW27730  11.450   3.592   9.144  0.6955  0.2405  0.2115
 6872SOL    HW127731  11.377   3.554   9.095 -0.3457  2.7136 -0.2702
 6872SOL    HW227732  11.444   3.551   9.231 -0.9182 -0.0030  0.0104
 6873SOL     OW27733  11.707   9.664   6.698  0.0607  0.3842 -0.0904
 6873SOL    HW127734  11.718   9.603   6.625 -1.3170 -2.6127  2.0091
 6873SOL    HW227735  11.612   9.678   6.703 -0.2200 -1.6002  2.5392
 6874SOL     OW27736   7.034   2.891  10.363  0.3384 -0.2667 -0.2002
 6874SOL    HW127737   7.107   2.841  10.400  0.2147  0.0568  0.5019
 6874SOL    HW227738   6.995   2.833  10.298  0.8001 -0.7016 -0.0935
 6875SOL     OW27739   7.445   0.380   2.605  0.4864  0.0744  0.0026
 6875SOL    HW127740   7.358   0.377   2.645  1.4539 -1.0140  2.2167
 6875SOL    HW227741   7.438   0.325   2.527 -0.4335 -1.3239  1.0308
 6876SOL     OW27742   6.434  11.853   2.946  0.4471  0.2651  0.4847
 6876SOL    HW127743   6.415  11.934   2.993 -1.4146  2.0952 -3.0215
 6876SOL    HW227744   6.362  11.794   2.969  0.2073  0.6821  0.8051
 6877SOL     OW27745  10.142   7.614   4.052 -0.2574 -0.3915 -0.2130
 6877SOL    HW127746  10.138   7.708   4.035  0.5744 -0.5162 -1.1274
 6877SOL    HW227747  10.203   7.606   4.125 -0.1496 -0.2438 -0.2861
 6878SOL     OW27748  11.442   9.324   0.106  0.4214  0.7501  0.1279
 6878SOL    HW127749  11.469   9.287   0.022  0.0346 -0.3409  0.4755
 6878SOL    HW227750  11.385   9.397   0.083 -0.2499  0.0263 -0.5596
 6879SOL     OW27751   6.431  12.270   5.820  0.2253 -0.1181 -0.1975
 6879SOL    HW127752   6.377  12.218   5.879 -0.7476 -0.6657 -1.5395
 6879SOL    HW227753   6.480  12.206   5.769  0.4661  0.3260 -0.5340
 6880SOL     OW27754   7.126  12.053   0.577 -0.0348 -1.0803  0.1986
 6880SOL    HW127755   7.198  12.106   0.611 -1.5180  0.3311  1.2913
 6880SOL    HW227756   7.158  12.022   0.492  0.9038  1.6991 -0.5777
 6881SOL     OW27757   5.935   7.131   8.119 -0.3524  0.6467  0.1094
 6881SOL    HW127758   6.000   7.082   8.068  1.8586  0.5230  2.8662
 6881SOL    HW227759   5.853   7.117   8.071  1.0081 -1.9276 -1.7267
 6882SOL     OW27760   3.961   2.190  12.901  0.2107 -0.5730 -0.5184
 6882SOL    HW127761   3.974   2.153  12.814 -0.7811 -1.8130 -0.1761
 6882SOL    HW227762   3.877   2.155  12.930  0.0590  0.5931  0.5599
 6883SOL     OW27763   0.067   4.203  10.597  0.2442 -0.0671  0.1055
 6883SOL    HW127764   0.019   4.192  10.679 -1.3539  0.6106 -0.6901
 6883SOL    HW227765   0.147   4.151  10.609 -1.3579 -2.5364  0.9549
 6884SOL     OW27766   7.299   6.495   0.494  0.4640  0.0995  0.7903
 6884SOL    HW127767   7.247   6.416   0.481  3.3031 -1.8551  0.2305
 6884SOL    HW227768   7.254   6.542   0.564 -2.5605 -0.8221 -0.3615
 6885SOL     OW27769   7.449   2.569   9.939  0.1876 -0.0027 -0.5314
 6885SOL    HW127770   7.354   2.560   9.928  0.2143 -0.4445 -0.4308
 6885SOL    HW227771   7.462   2.570  10.034  0.2772  0.1206 -0.5451
 6886SOL     OW27772   9.266  11.677   5.605  0.1387  0.0809 -0.0426
 6886SOL    HW127773   9.314  11.594   5.610  0.2970  0.1833  0.1623
 6886SOL    HW227774   9.313  11.728   5.539 -0.7913 -0.5258 -1.2096
 6887SOL     OW27775   4.731   8.585   0.209 -0.8696 -0.1938  0.0233
 6887SOL    HW127776   4.703   8.674   0.232 -0.1172 -0.3849  1.8375
 6887SOL    HW227777   4.793   8.561   0.278  1.0544 -1.1179 -1.9480
 6888SOL     OW27778   3.964   2.570   5.577 -0.0368  0.1872  0.1137
 6888SOL    HW127779   4.045   2.613   5.548  0.2682 -0.5704 -0.1859
 6888SOL    HW227780   3.993   2.498   5.632 -0.4863 -0.2917 -0.2596
 6889SOL     OW27781   7.675   4.967   0.570 -0.1304  0.1280 -0.0644
 6889SOL    HW127782   7.613   4.899   0.543  0.9035 -1.0214  0.3162
 6889SOL    HW227783   7.661   4.977   0.664  0.1424 -0.0266 -0.0046
 6890SOL     OW27784  10.593  11.336   2.926  0.0365  0.1194 -0.1729
 6890SOL    HW127785  10.518  11.336   2.866 -0.1164 -1.0963 -0.0181
 6890SOL    HW227786  10.594  11.423   2.964 -0.4750  0.5889 -1.1946
 6891SOL     OW27787  11.122   0.016   4.521  0.5454  0.2360  0.0391
 6891SOL    HW127788  11.210  -0.008   4.551  0.8637  0.7428 -0.4829
 6891SOL    HW227789  11.129   0.019   4.426  0.5085  2.2749  0.0544
 6892SOL     OW27790  10.791   7.859   5.147  0.3117 -0.0642  0.3785
 6892SOL    HW127791  10.860   7.842   5.211  0.9479  0.8206 -0.0481
 6892SOL    HW227792  10.712   7.824   5.187  1.1197 -1.7303  0.5828
 6893SOL     OW27793   3.508   6.395  12.382  0.5440  0.6580  0.5404
 6893SOL    HW127794   3.543   6.484  12.388  1.3749  0.4596 -0.7885
 6893SOL    HW227795   3.415   6.407  12.366  0.2902  1.2381  2.2660
 6894SOL     OW27796   6.873   5.402   4.245 -0.4745 -0.6684  0.5213
 6894SOL    HW127797   6.781   5.422   4.229 -0.0199  0.7045 -0.5509
 6894SOL    HW227798   6.899   5.464   4.314 -0.5102 -1.5152  1.3153
 6895SOL     OW27799  12.754  10.345   8.754 -0.7668 -0.0644  0.5152
 6895SOL    HW127800  12.707  10.348   8.837 -1.8918  0.9348 -0.1392
 6895SOL    HW227801  12.820  10.414   8.761 -1.3885  0.5660  0.2884
 6896SOL     OW27802   7.033   9.753   1.543  1.1050  0.1567 -0.2813
 6896SOL    HW127803   6.991   9.839   1.546 -0.5934 -0.6152 -0.8369
 6896SOL    HW227804   6.995   9.711   1.466  3.3135 -0.4173 -1.1246
 6897SOL     OW27805   7.428   1.113   6.559 -0.1525 -0.0481 -0.3662
 6897SOL    HW127806   7.513   1.142   6.591  0.1658  0.3425 -1.5277
 6897SOL    HW227807   7.364   1.164   6.610  0.2634 -0.7914  0.9468
 6898SOL     OW27808   4.637   9.199   6.512  0.6906  0.3851  0.3964
 6898SOL    HW127809   4.655   9.275   6.567 -2.7434  1.1600  0.6652
 6898SOL    HW227810   4.654   9.123   6.568  2.6136  0.9576  0.6364
 6899SOL     OW27811   6.157   3.103  12.636  0.0436  0.3545  0.4000
 6899SOL    HW127812   6.115   3.140  12.713  0.1180  0.2484  0.4931
 6899SOL    HW227813   6.088   3.053  12.592  0.1265 -0.0045  0.6742
 6900SOL     OW27814  12.092  11.380  10.780 -0.2553 -0.1918  0.0672
 6900SOL    HW127815  12.017  11.437  10.796 -0.4190 -0.1667 -0.7483
 6900SOL    HW227816  12.076  11.343  10.693  0.9754  0.2776 -0.3742
 6901SOL     OW27817   3.500   1.140   4.170 -0.0487 -0.2315 -0.4512
 6901SOL    HW127818   3.568   1.085   4.208  0.1621  0.0072 -0.4813
 6901SOL    HW227819   3.495   1.111   4.079 -0.5649 -0.8136 -0.2460
 6902SOL     OW27820  11.024   0.917  12.184 -0.0189 -0.4615  0.3329
 6902SOL    HW127821  11.005   0.914  12.090  1.7984  1.4267 -0.1889
 6902SOL    HW227822  10.978   0.996  12.215  0.3533 -0.4105  0.7635
 6903SOL     OW27823   8.413  11.882   0.982 -0.1303  0.7329  0.3211
 6903SOL    HW127824   8.476  11.864   1.051 -0.8421  1.2060  1.1128
 6903SOL    HW227825   8.387  11.795   0.950  0.9477  0.5337 -0.0615
 6904SOL     OW27826  11.321   1.784   0.530  0.2144  0.0687  0.0687
 6904SOL    HW127827  11.322   1.872   0.566 -0.5920  0.9651 -1.9712
 6904SOL    HW227828  11.405   1.775   0.485 -0.8083  0.8920 -2.1056
 6905SOL     OW27829  10.701   0.911   2.756 -0.0308  0.0070  0.3068
 6905SOL    HW127830  10.632   0.844   2.760 -1.0994  1.1240  1.1368
 6905SOL    HW227831  10.706   0.934   2.664  1.7552 -2.5855 -0.3578
 6906SOL     OW27832  10.602  11.550   2.589 -0.1353  0.0588  0.6817
 6906SOL    HW127833  10.529  11.519   2.536  0.0411 -0.2876  0.6444
 6906SOL    HW227834  10.657  11.599   2.528 -0.9200  1.3113  0.9375
 6907SOL     OW27835   5.812  10.256  12.021 -0.2439  0.8686 -0.5175
 6907SOL    HW127836   5.795  10.235  12.113  0.2434  1.1588 -0.3622
 6907SOL    HW227837   5.806  10.351  12.016 -0.0629  0.8689 -0.7481
 6908SOL     OW27838   6.885   4.495   2.528  0.6383  0.1277 -0.0139
 6908SOL    HW127839   6.940   4.564   2.490  0.3587  0.2519 -0.1919
 6908SOL    HW227840   6.932   4.469   2.607  0.9532  0.2383 -0.1609
 6909SOL     OW27841   8.426   9.227   0.268  0.2120 -0.1670 -0.0055
 6909SOL    HW127842   8.483   9.241   0.192  0.7789 -0.0439  0.4351
 6909SOL    HW227843   8.469   9.158   0.318 -0.2114 -0.3182  0.1511
 6910SOL     OW27844   6.327   1.243   7.958 -0.3287  0.0078  0.1297
 6910SOL    HW127845   6.284   1.328   7.946 -0.7948 -0.2991 -0.4381
 6910SOL    HW227846   6.372   1.227   7.875 -0.5370 -0.4614  0.1024
 6911SOL     OW27847   4.355   5.002   2.593 -0.0621 -0.0908  0.3154
 6911SOL    HW127848   4.339   5.072   2.656 -1.0364  0.0661 -0.0915
 6911SOL    HW227849   4.287   4.936   2.613  0.7695 -0.8845  0.6228
 6912SOL     OW27850  10.962   4.200  11.955  0.1886 -0.5147  0.2115
 6912SOL    HW127851  10.904   4.251  12.012 -0.4327 -1.7941  0.7650
 6912SOL    HW227852  11.029   4.263  11.926 -1.4234  1.0047 -0.4151
 6913SOL     OW27853   3.912  12.581   0.681 -0.4606  0.2458  0.1811
 6913SOL    HW127854   3.988  12.632   0.709 -0.9895  2.6758 -2.3363
 6913SOL    HW227855   3.881  12.538   0.761  2.6162  0.3613  1.5773
 6914SOL     OW27856   4.689   4.230   9.554  0.5827  0.3002 -0.7111
 6914SOL    HW127857   4.618   4.256   9.494  1.4088  0.5061 -1.6232
 6914SOL    HW227858   4.644   4.189   9.628 -0.5684  1.5514 -0.6803
 6915SOL     OW27859   0.843   5.681  12.547 -0.2273 -0.8270  0.1115
 6915SOL    HW127860   0.871   5.649  12.633  1.8182 -1.8457 -0.8550
 6915SOL    HW227861   0.876   5.771  12.543 -0.9752 -0.5249  0.6642
 6916SOL     OW27862   6.615   9.855   9.995  0.0107 -0.1687  0.1202
 6916SOL    HW127863   6.614   9.950   9.985 -3.0188  0.1018  1.8831
 6916SOL    HW227864   6.601   9.821   9.907 -1.3105  1.1278 -0.2002
 6917SOL     OW27865   2.396   5.135  12.045  0.7297 -0.1207  0.4228
 6917SOL    HW127866   2.351   5.214  12.013  2.4726  1.1810  1.0030
 6917SOL    HW227867   2.390   5.140  12.140 -3.3562 -3.3364  0.5976
 6918SOL     OW27868   6.744   7.384  11.766 -0.2809  0.1097 -0.1656
 6918SOL    HW127869   6.744   7.292  11.738 -1.0035  0.3971 -1.1635
 6918SOL    HW227870   6.834   7.413  11.754 -0.3452 -0.0911 -1.1841
 6919SOL     OW27871   0.907   8.049   1.434 -0.0781  0.0483  0.5721
 6919SOL    HW127872   0.880   8.117   1.496  0.3704  0.4315  0.3483
 6919SOL    HW227873   0.915   8.094   1.350  1.7684  0.0778  0.7185
 6920SOL     OW27874  11.672  10.388   2.551 -0.6637  0.1222  0.1532
 6920SOL    HW127875  11.725  10.411   2.475 -0.1603 -0.9218  0.1728
 6920SOL    HW227876  11.733  10.342   2.609 -0.9749  1.1093  1.3065
 6921SOL     OW27877  11.133   2.477   5.615 -0.0954 -0.3068 -0.7261
 6921SOL    HW127878  11.052   2.510   5.576 -0.7262  1.1713  1.6669
 6921SOL    HW227879  11.200   2.540   5.589 -0.1178 -0.3692 -0.9432
 6922SOL     OW27880   7.632   0.970   5.998 -0.6513  0.3264  0.1269
 6922SOL    HW127881   7.678   0.979   5.914 -1.4314  0.5820 -0.2826
 6922SOL    HW227882   7.614   1.060   6.025  0.4862  0.2818  1.0831
 6923SOL     OW27883   7.920   1.491   3.917  0.5674  0.0230 -0.3499
 6923SOL    HW127884   7.960   1.577   3.904  1.8442 -0.3933  0.6446
 6923SOL    HW227885   7.993   1.433   3.938 -0.0963 -1.6057 -2.2092
 6924SOL     OW27886   7.737   0.776  10.917  0.6160  0.0366 -0.8140
 6924SOL    HW127887   7.660   0.822  10.951  0.9769  0.9529 -1.2043
 6924SOL    HW227888   7.810   0.836  10.932  1.5568 -1.4698  1.0069
 6925SOL     OW27889   5.849   1.714  11.626  0.5405  0.0706 -0.3200
 6925SOL    HW127890   5.924   1.771  11.642  0.0631  1.1958 -1.8633
 6925SOL    HW227891   5.871   1.667  11.545  0.6229 -1.4666  0.5440
 6926SOL     OW27892   1.469   2.016   3.962  0.2027  0.1416  0.1171
 6926SOL    HW127893   1.492   1.923   3.966  0.5934  0.1710 -1.1049
 6926SOL    HW227894   1.541   2.060   4.007  1.1785  0.0136 -1.2746
 6927SOL     OW27895   3.083   0.812   3.282 -0.4689  0.1827 -0.0560
 6927SOL    HW127896   2.987   0.815   3.287 -0.3997  1.4414  2.9391
 6927SOL    HW227897   3.105   0.720   3.290 -1.4009 -0.1151 -0.7384
 6928SOL     OW27898   5.604   1.724   2.973  0.1332 -0.1995 -0.4327
 6928SOL    HW127899   5.660   1.651   2.998 -2.1233 -1.9305 -0.1256
 6928SOL    HW227900   5.542   1.733   3.045 -0.0214  1.6573 -0.7437
 6929SOL     OW27901   7.451   6.651  12.621  0.2406  0.8391  0.4157
 6929SOL    HW127902   7.391   6.583  12.651 -0.7758  0.6912 -1.7188
 6929SOL    HW227903   7.522   6.652  12.686 -0.0227 -1.7983  0.8499
 6930SOL     OW27904   0.573   0.978   4.844 -0.2901 -0.4471  0.1676
 6930SOL    HW127905   0.521   0.972   4.924 -0.6132 -2.5822 -0.1522
 6930SOL    HW227906   0.655   0.932   4.865  0.5462  0.8737 -0.0725
 6931SOL     OW27907   2.691   5.169   8.628 -0.1684  0.3065  0.6881
 6931SOL    HW127908   2.701   5.168   8.532  1.7257  1.9434  0.7905
 6931SOL    HW227909   2.772   5.131   8.660 -0.9678 -0.6118  1.6807
 6932SOL     OW27910   9.920   1.941   1.231  0.3319 -0.2680  0.4687
 6932SOL    HW127911  10.005   1.903   1.252 -0.0482 -0.3537  2.0356
 6932SOL    HW227912   9.867   1.867   1.202  1.2509  0.0548 -2.2412
 6933SOL     OW27913  11.694   5.634   9.061 -0.2335  0.0453  0.4165
 6933SOL    HW127914  11.749   5.670   9.131 -1.4515  1.4304  0.7072
 6933SOL    HW227915  11.742   5.655   8.981 -0.1609  0.9309  0.6820
 6934SOL     OW27916   8.676   2.422   8.666 -0.2226 -0.7536 -0.7801
 6934SOL    HW127917   8.740   2.352   8.673  0.9613  0.4398  1.3332
 6934SOL    HW227918   8.727   2.499   8.641 -1.2638 -0.2951 -1.5790
 6935SOL     OW27919   8.055   5.954  11.816 -0.2011 -0.1164  0.1500
 6935SOL    HW127920   8.044   6.010  11.893 -4.7827 -1.5578  0.8087
 6935SOL    HW227921   8.119   5.888  11.843  1.8257  2.0280  0.9290
 6936SOL     OW27922   2.276   2.996   6.041  0.4259  0.1376 -0.1176
 6936SOL    HW127923   2.239   2.966   6.124  1.4684  0.5941  0.5358
 6936SOL    HW227924   2.360   2.951   6.034 -0.8627 -2.1540 -2.3860
 6937SOL     OW27925  10.400  12.697   6.573  0.4001  0.3674 -0.0382
 6937SOL    HW127926  10.321  12.661   6.613 -0.0029  1.7594  0.4847
 6937SOL    HW227927  10.470  12.638   6.599 -0.2322 -0.0397  0.7670
 6938SOL     OW27928   0.220   1.981   3.019 -0.0532 -0.2921 -0.2665
 6938SOL    HW127929   0.230   1.901   3.071  0.2648  0.4846  0.9055
 6938SOL    HW227930   0.126   1.993   3.011 -0.1108 -0.2767  0.3703
 6939SOL     OW27931   4.095   1.103  11.029 -0.0130  0.6685 -0.1034
 6939SOL    HW127932   4.017   1.153  11.001 -0.6482 -0.6404 -0.7602
 6939SOL    HW227933   4.070   1.012  11.016  1.7446  0.2320 -0.5935
 6940SOL     OW27934   2.994   8.500   6.358  0.2860 -0.4528  0.5300
 6940SOL    HW127935   3.048   8.455   6.293 -0.3557 -2.9051  1.5522
 6940SOL    HW227936   3.053   8.517   6.431  0.7191  1.1999 -0.1613
 6941SOL     OW27937   6.608   4.687   4.314  0.1128  0.2775 -0.0595
 6941SOL    HW127938   6.528   4.708   4.362 -0.7940  0.3208 -1.5058
 6941SOL    HW227939   6.633   4.769   4.273 -0.0475 -0.0995 -0.9339
 6942SOL     OW27940   3.153   5.289   4.378 -0.1867 -0.0634 -0.3045
 6942SOL    HW127941   3.074   5.254   4.420 -1.6586  2.4654 -0.7338
 6942SOL    HW227942   3.147   5.258   4.288 -0.5346 -0.1418 -0.2590
 6943SOL     OW27943   2.209   2.863   1.432  0.3205  0.2339 -0.0578
 6943SOL    HW127944   2.120   2.891   1.455 -0.3178 -0.6931 -1.2971
 6943SOL    HW227945   2.247   2.938   1.386  0.0998  0.5443  0.2612
 6944SOL     OW27946   7.928   4.601   8.429  0.1532  0.3541  0.1062
 6944SOL    HW127947   7.899   4.513   8.454  1.9882 -0.8516 -1.8009
 6944SOL    HW227948   7.984   4.629   8.502 -1.1756  0.4051  1.1644
 6945SOL     OW27949   8.200   2.833   2.639 -0.4157  0.1365  0.3448
 6945SOL    HW127950   8.223   2.748   2.600  1.1959  0.6887  0.0154
 6945SOL    HW227951   8.250   2.835   2.721  1.5581  1.7443 -0.8115
 6946SOL     OW27952   0.873  11.427   1.065 -0.0301 -0.1619 -0.4157
 6946SOL    HW127953   0.944  11.478   1.028  0.1075  0.5230  0.7614
 6946SOL    HW227954   0.842  11.372   0.992  2.1963 -1.0629 -0.7490
 6947SOL     OW27955   8.397   4.155   4.783  0.1161  0.0900 -0.0258
 6947SOL    HW127956   8.457   4.091   4.821  0.5430  0.4331 -0.1232
 6947SOL    HW227957   8.427   4.165   4.692 -0.5598 -0.3157 -0.3074
 6948SOL     OW27958  10.826   7.471   3.363  0.3437  0.1459  0.7133
 6948SOL    HW127959  10.860   7.383   3.350 -1.4908 -0.3375 -1.5547
 6948SOL    HW227960  10.733   7.464   3.344  0.1118  2.5492  0.6108
 6949SOL     OW27961   9.463  11.766  10.910  0.5073 -0.9827  0.4192
 6949SOL    HW127962   9.370  11.748  10.921  0.4783 -0.9692  0.1987
 6949SOL    HW227963   9.505  11.681  10.918  0.3719 -1.1586 -0.6437
 6950SOL     OW27964   8.989   9.753   0.933 -0.5326  0.0523 -0.4818
 6950SOL    HW127965   9.018   9.799   1.012  0.1705  0.1671 -0.7953
 6950SOL    HW227966   8.901   9.722   0.954 -0.7899  1.0267 -0.0523
 6951SOL     OW27967   8.586   0.964   7.618 -0.3844  0.0254 -0.0635
 6951SOL    HW127968   8.515   0.993   7.561 -1.0412  0.6096  1.0219
 6951SOL    HW227969   8.544   0.903   7.680  0.4160 -1.0092 -0.5033
 6952SOL     OW27970   4.725   5.279   3.786 -0.0738  0.2200  0.0098
 6952SOL    HW127971   4.745   5.185   3.792  1.2396  0.3896 -1.0458
 6952SOL    HW227972   4.787   5.321   3.846  0.2412  0.4910 -0.4923
 6953SOL     OW27973   3.378   4.436   0.424 -0.3613 -0.0236  0.2067
 6953SOL    HW127974   3.425   4.355   0.406 -0.6366 -0.7849  2.5651
 6953SOL    HW227975   3.343   4.425   0.512  1.2367  3.4400  1.4555
 6954SOL     OW27976   3.828   3.376   1.037 -0.4288 -0.4932  0.9268
 6954SOL    HW127977   3.839   3.316   0.963  0.4000  0.3013  0.3654
 6954SOL    HW227978   3.777   3.327   1.101  1.4684 -2.3545  1.1233
 6955SOL     OW27979   7.682   2.119   6.048 -0.6481 -0.1424 -0.6394
 6955SOL    HW127980   7.681   2.054   6.117  0.6448  0.1271 -0.3310
 6955SOL    HW227981   7.590   2.140   6.032 -0.9950  1.7278  2.8654
 6956SOL     OW27982   7.998   1.365   2.456 -0.2243 -0.3473 -0.3947
 6956SOL    HW127983   7.974   1.371   2.364 -1.7593  1.7403  0.0608
 6956SOL    HW227984   8.058   1.439   2.470 -0.4890 -0.2733  0.4166
 6957SOL     OW27985  11.534   1.480  12.689  0.0797 -0.1401 -0.3015
 6957SOL    HW127986  11.549   1.494  12.782 -0.3677  1.4362 -0.4282
 6957SOL    HW227987  11.443   1.452  12.683 -0.0525  0.2782 -0.2937
 6958SOL     OW27988  10.212   7.079   9.737  0.4681 -0.1217 -0.0857
 6958SOL    HW127989  10.183   7.078   9.646  1.9666 -1.0402 -0.5891
 6958SOL    HW227990  10.225   6.987   9.759  0.5110  0.1157  0.9351
 6959SOL     OW27991   0.020   4.330  10.152 -0.8131 -0.2338 -0.2232
 6959SOL    HW127992  -0.068   4.295  10.165 -0.7120  0.3052  2.7499
 6959SOL    HW227993   0.054   4.340  10.241  1.3197  1.9476 -1.1813
 6960SOL     OW27994   7.791   3.838  10.275  0.1653 -0.1164 -0.2522
 6960SOL    HW127995   7.798   3.759  10.222  0.2183 -0.6340  0.5155
 6960SOL    HW227996   7.872   3.885  10.259  0.3559 -0.4631 -0.3152
 6961SOL     OW27997   0.475   9.641   6.701  0.3145 -0.1702  0.5629
 6961SOL    HW127998   0.552   9.594   6.671  0.1612 -0.3308  0.4193
 6961SOL    HW227999   0.493   9.660   6.794 -0.3817 -2.1126  1.1526
 6962SOL     OW28000   1.564   0.044   6.348  0.0150  0.3107  0.3568
 6962SOL    HW128001   1.508   0.069   6.422 -0.6465  1.0557 -0.3800
 6962SOL    HW228002   1.546   0.110   6.281  0.6320 -0.3343 -0.4597
 6963SOL     OW28003  11.834   3.533   9.141 -0.3227 -0.0316  0.2213
 6963SOL    HW128004  11.855   3.487   9.059  1.7608 -0.8038  1.1128
 6963SOL    HW228005  11.920   3.557   9.177 -1.1366 -0.2046  2.4373
 6964SOL     OW28006   3.297  10.324  12.595  0.0093 -0.0922 -0.1687
 6964SOL    HW128007   3.267  10.333  12.685  1.3419 -0.7449  0.3779
 6964SOL    HW228008   3.390  10.345  12.598  0.1728 -0.5399 -1.3091
 6965SOL     OW28009   1.956   6.483   7.821  0.1542  0.1301 -0.1326
 6965SOL    HW128010   2.037   6.527   7.845 -0.4470  2.4802 -2.0194
 6965SOL    HW228011   1.965   6.465   7.727 -1.5723  0.6526 -0.4317
 6966SOL     OW28012   1.208   1.919   0.215 -0.0124  0.8775  0.0752
 6966SOL    HW128013   1.252   1.863   0.280 -1.7829  0.7774  1.2636
 6966SOL    HW228014   1.195   1.862   0.139  3.2405  1.3489 -0.9939
 6967SOL     OW28015   6.904  11.602   3.588  0.3525 -0.0317  0.3194
 6967SOL    HW128016   6.831  11.571   3.641 -1.1052  3.2591  0.4649
 6967SOL    HW228017   6.875  11.589   3.497 -0.7007  1.6510  0.3710
 6968SOL     OW28018   2.677   2.181   5.319 -0.0763 -0.4899 -0.0005
 6968SOL    HW128019   2.679   2.267   5.362  1.1886 -0.7353  0.4853
 6968SOL    HW228020   2.677   2.118   5.391  3.2960 -0.9325 -0.2064
 6969SOL     OW28021   6.432   4.872   1.128 -0.3876  0.2131  0.5029
 6969SOL    HW128022   6.451   4.838   1.041 -1.4034  1.3148 -0.1839
 6969SOL    HW228023   6.465   4.962   1.126 -2.0614  0.8687  0.5805
 6970SOL     OW28024   5.362   3.017  12.363  0.0243  0.0554  0.2739
 6970SOL    HW128025   5.453   2.987  12.355  0.1956  0.5893  0.1883
 6970SOL    HW228026   5.340   3.050  12.276 -1.4990 -3.4220 -0.8555
 6971SOL     OW28027   0.679   2.234   3.414 -0.4737 -0.6465  0.3955
 6971SOL    HW128028   0.644   2.259   3.500 -0.6361  0.0371  0.1423
 6971SOL    HW228029   0.601   2.218   3.361 -0.4969  1.7146 -0.4162
 6972SOL     OW28030   7.451   4.573  10.161  0.3790  0.2109  0.4302
 6972SOL    HW128031   7.525   4.520  10.134  0.0386 -0.2353  0.3738
 6972SOL    HW228032   7.468   4.593  10.253 -0.1624 -1.1252  0.8320
 6973SOL     OW28033   9.302   3.578   2.578 -0.4169  0.3282 -0.7775
 6973SOL    HW128034   9.349   3.647   2.530  1.9334 -0.9931 -0.5293
 6973SOL    HW228035   9.278   3.515   2.511 -2.8040  1.3944 -1.0447
 6974SOL     OW28036   6.715  11.607  10.429  0.1404  0.1352  0.5769
 6974SOL    HW128037   6.763  11.528  10.401 -1.6457 -0.4824 -0.9804
 6974SOL    HW228038   6.649  11.574  10.489  0.1782  0.6363  0.8943
 6975SOL     OW28039  12.017  11.935   4.467  0.3930  0.0245  0.1559
 6975SOL    HW128040  12.004  11.954   4.560 -1.6339  0.7669 -0.2245
 6975SOL    HW228041  11.989  11.844   4.457 -1.0554  0.4586  0.0161
 6976SOL     OW28042   0.070   3.131   1.613 -0.3318  0.4305  0.6021
 6976SOL    HW128043   0.159   3.141   1.648 -0.1395  0.7598  0.0324
 6976SOL    HW228044   0.075   3.168   1.525 -0.7724 -0.5212  0.1660
 6977SOL     OW28045   4.890  12.083   6.056  0.2706  0.4513 -0.6141
 6977SOL    HW128046   4.925  12.153   6.000  0.3909 -0.4257 -1.6562
 6977SOL    HW228047   4.820  12.126   6.106  1.2548  1.6567 -0.2018
 6978SOL     OW28048   0.326  12.319   8.926 -0.4464  0.0052 -0.0937
 6978SOL    HW128049   0.360  12.398   8.883  1.5214 -0.4220  0.5642
 6978SOL    HW228050   0.378  12.248   8.888  0.3912 -0.5335  1.9392
 6979SOL     OW28051   2.884   6.372   4.091 -0.3669  0.1832  0.0109
 6979SOL    HW128052   2.847   6.287   4.068 -1.8937  0.7060  0.3785
 6979SOL    HW228053   2.901   6.366   4.185  0.9292 -0.1961 -0.2332
 6980SOL     OW28054  11.474   7.634   9.094  0.1166  0.0105 -0.4941
 6980SOL    HW128055  11.480   7.553   9.043 -0.0081 -0.4419  0.1937
 6980SOL    HW228056  11.381   7.652   9.100  0.1776  0.5963 -1.2396
 6981SOL     OW28057   7.381   9.003   4.378  0.3260 -0.2121  0.5273
 6981SOL    HW128058   7.446   9.071   4.359 -0.5863  1.0021  1.5471
 6981SOL    HW228059   7.371   8.956   4.295  1.6411  0.3053  0.0361
 6982SOL     OW28060  11.751   5.394   9.322  0.1884 -0.3696 -0.2468
 6982SOL    HW128061  11.770   5.488   9.313  0.9832 -0.6208 -1.3875
 6982SOL    HW228062  11.783   5.372   9.409 -0.2234  0.4576  0.1335
 6983SOL     OW28063   8.061   4.489  10.445 -0.1584 -0.6405  0.0053
 6983SOL    HW128064   8.047   4.456  10.534 -0.0536  0.4274  0.4443
 6983SOL    HW228065   8.131   4.435  10.410  1.9123  0.7927  1.6766
 6984SOL     OW28066   0.256   4.550   7.107  0.1192 -0.2168  0.4899
 6984SOL    HW128067   0.263   4.590   7.193  1.2829  2.2483 -0.6456
 6984SOL    HW228068   0.343   4.515   7.090  0.3853  0.7802 -0.3056
 6985SOL     OW28069   1.814   1.582   2.502 -0.2291  0.1232 -0.2193
 6985SOL    HW128070   1.857   1.616   2.581 -1.6354  0.7767  0.2931
 6985SOL    HW228071   1.769   1.657   2.465  0.4489 -0.1655 -1.7156
 6986SOL     OW28072   9.402   3.660  12.827 -0.7145  0.0183  0.3047
 6986SOL    HW128073   9.395   3.673  12.922 -2.0503 -1.5978  0.4702
 6986SOL    HW228074   9.369   3.742  12.790  0.5611  0.9794  1.2046
 6987SOL     OW28075   1.498   7.751   6.785 -0.2840 -0.2152  0.1823
 6987SOL    HW128076   1.569   7.763   6.847  0.5736  0.5633 -0.9131
 6987SOL    HW228077   1.523   7.676   6.732  1.4776  1.9961 -2.4067
 6988SOL     OW28078  12.803  10.894   2.868  0.6617 -0.6764  0.0423
 6988SOL    HW128079  12.726  10.855   2.910  0.6946  1.7015  2.5128
 6988SOL    HW228080  12.871  10.891   2.935  1.4274  1.1783 -0.6052
 6989SOL     OW28081   2.435  10.464   5.856 -0.1817 -0.2004 -0.3717
 6989SOL    HW128082   2.517  10.482   5.903  0.1021 -1.5644 -0.2845
 6989SOL    HW228083   2.412  10.375   5.882 -2.2313  0.4898  0.3433
 6990SOL     OW28084   9.717   7.264   2.617 -0.2409 -0.1855  0.5748
 6990SOL    HW128085   9.645   7.218   2.660 -1.0917  1.8638  1.4546
 6990SOL    HW228086   9.712   7.236   2.525 -1.7930 -0.5289  0.7396
 6991SOL     OW28087   3.136   8.134   2.336  0.2083 -0.1445  0.3397
 6991SOL    HW128088   3.117   8.205   2.398  0.0783  1.0466 -1.0039
 6991SOL    HW228089   3.071   8.067   2.357 -0.2132  0.4754  1.0983
 6992SOL     OW28090   3.822  12.548   1.568  0.5629 -0.5409 -0.1536
 6992SOL    HW128091   3.794  12.632   1.532 -2.8403 -2.5192 -2.6850
 6992SOL    HW228092   3.744  12.513   1.612  1.8621 -2.4063  0.8244
 6993SOL     OW28093   4.637   8.292   9.272 -0.1124 -0.6386  0.2885
 6993SOL    HW128094   4.557   8.268   9.225  0.0696  0.7819 -0.8102
 6993SOL    HW228095   4.701   8.226   9.244 -0.2576 -0.3496 -0.7705
 6994SOL     OW28096   5.060   4.770   8.426  0.2673 -0.5105 -0.0042
 6994SOL    HW128097   4.970   4.792   8.403  0.9537  1.3187 -1.1968
 6994SOL    HW228098   5.053   4.724   8.510 -1.7756 -0.6950 -0.2253
 6995SOL     OW28099  11.180   7.135   3.338  0.2558  0.6606 -0.2396
 6995SOL    HW128100  11.135   7.164   3.417 -1.0550 -0.8556 -0.3943
 6995SOL    HW228101  11.128   7.172   3.266  0.5611  0.7774 -0.4002
 6996SOL     OW28102  12.777   8.851   5.551  0.2455 -0.5131 -0.1973
 6996SOL    HW128103  12.796   8.758   5.561 -0.6772 -0.9751 -2.2653
 6996SOL    HW228104  12.837   8.880   5.482  2.4217  1.1490  2.1823
 6997SOL     OW28105   2.440   5.542   2.867  0.4075 -0.4173 -0.1727
 6997SOL    HW128106   2.498   5.467   2.854  1.0485 -0.0776  0.6558
 6997SOL    HW228107   2.354   5.510   2.840  0.5672 -1.6302  0.6619
 6998SOL     OW28108   8.150   2.537   1.229  0.1550 -0.3468  0.3070
 6998SOL    HW128109   8.158   2.581   1.144 -1.3591 -1.6050 -0.5361
 6998SOL    HW228110   8.132   2.608   1.291  2.1304  0.6951 -0.2334
 6999SOL     OW28111   2.069  12.179   3.638  0.3276  0.4813 -0.7275
 6999SOL    HW128112   1.988  12.228   3.622 -0.0656  0.6888  1.5392
 6999SOL    HW228113   2.046  12.088   3.619 -0.2120  0.6344 -0.8271
 7000SOL     OW28114   7.606  11.635   2.395 -0.1215  0.5488 -0.0382
 7000SOL    HW128115   7.527  11.624   2.449  0.1269 -0.5913  0.1113
 7000SOL    HW228116   7.614  11.730   2.384 -1.0482  0.7208  0.6325
 7001SOL     OW28117   2.572  10.989   4.188 -0.0092 -0.1391 -0.1626
 7001SOL    HW128118   2.661  11.023   4.178 -0.1950 -0.1504 -2.2441
 7001SOL    HW228119   2.517  11.052   4.141 -0.8143 -1.3172 -0.8477
 7002SOL     OW28120   4.703   7.529  11.320  0.1349  0.2702  0.3631
 7002SOL    HW128121   4.761   7.587  11.270 -0.5026  1.1768  0.6467
 7002SOL    HW228122   4.741   7.528  11.408 -1.2704  2.4261  1.0902
 7003SOL     OW28123  11.440   5.783  12.168  0.1582 -0.0680 -0.4617
 7003SOL    HW128124  11.450   5.700  12.121 -0.4735  0.3674 -1.3974
 7003SOL    HW228125  11.452   5.850  12.101  0.4236  0.6065  0.2415
 7004SOL     OW28126   4.603   7.391   4.855 -0.0483 -0.3055 -0.4528
 7004SOL    HW128127   4.541   7.324   4.883 -1.1803  1.2695  1.0724
 7004SOL    HW228128   4.616   7.445   4.933  1.2657  0.9027 -1.4560
 7005SOL     OW28129  11.713   4.768   2.657  0.6382 -0.2457 -0.4350
 7005SOL    HW128130  11.660   4.814   2.722  0.7570 -0.2439 -0.3395
 7005SOL    HW228131  11.803   4.774   2.690  0.7614  0.1638 -0.8360
 7006SOL     OW28132   1.209  12.386  10.278  0.2613 -0.0654 -0.1953
 7006SOL    HW128133   1.240  12.299  10.255  0.9462  0.8384 -3.1041
 7006SOL    HW228134   1.286  12.432  10.310  1.0207  0.7262 -2.8960
 7007SOL     OW28135  12.413   8.103  12.934  0.2073  0.5966  0.1611
 7007SOL    HW128136  12.480   8.168  12.957  1.4143 -0.7427  0.5584
 7007SOL    HW228137  12.457   8.019  12.944 -1.9614 -0.4310  1.8162
 7008SOL     OW28138   5.577   2.760   7.390  0.0202  0.0501 -0.5029
 7008SOL    HW128139   5.506   2.817   7.421  0.5350  1.3729 -1.6478
 7008SOL    HW228140   5.644   2.766   7.457 -0.6623 -0.6999  0.2732
 7009SOL     OW28141   1.511   7.801   1.985 -0.2334 -0.1178  0.2099
 7009SOL    HW128142   1.425   7.762   1.999 -0.2916 -0.6003 -1.2563
 7009SOL    HW228143   1.564   7.729   1.950  0.2305  0.6203 -0.6537
 7010SOL     OW28144   4.915  11.693   0.545 -0.1481  0.0160 -0.0018
 7010SOL    HW128145   4.885  11.615   0.498 -0.3053  0.6080 -0.9135
 7010SOL    HW228146   5.009  11.694   0.532 -0.3216  0.8426 -1.3958
 7011SOL     OW28147   9.633   2.524   2.921  0.3182 -0.2078  0.2059
 7011SOL    HW128148   9.653   2.609   2.882  1.6703 -0.9907 -0.8659
 7011SOL    HW228149   9.712   2.500   2.970  0.1838 -1.1082  0.0094
 7012SOL     OW28150   6.148   4.751   2.231 -0.3512 -0.4433 -0.5617
 7012SOL    HW128151   6.163   4.775   2.323 -0.0578 -1.8543 -0.2293
 7012SOL    HW228152   6.076   4.808   2.203 -1.5455 -1.1029  1.0341
 7013SOL     OW28153   5.279   0.189  10.140  0.0093  0.3183  0.1095
 7013SOL    HW128154   5.284   0.102  10.179  0.5698  0.6515  0.7837
 7013SOL    HW228155   5.253   0.172  10.049 -3.9148 -0.3557  1.1693
 7014SOL     OW28156   2.822  10.602  10.520  0.2936 -0.0197 -0.0258
 7014SOL    HW128157   2.886  10.632  10.585  1.0746 -1.1830 -0.2172
 7014SOL    HW228158   2.777  10.681  10.492  1.0498  0.7120  0.7682
 7015SOL     OW28159   9.283   9.675  10.011  0.4207  0.1900 -0.0303
 7015SOL    HW128160   9.259   9.710   9.925 -0.0836  2.0859  0.8329
 7015SOL    HW228161   9.373   9.706  10.024 -0.1280  1.5282  0.8605
 7016SOL     OW28162   6.785   4.953   1.917  0.0996 -0.6086 -0.1376
 7016SOL    HW128163   6.835   4.979   1.840 -1.3730  1.1460 -0.5620
 7016SOL    HW228164   6.850   4.947   1.987  1.2314 -0.7389 -1.1738
 7017SOL     OW28165   0.418   1.343   6.104  0.2395 -0.8438 -0.7038
 7017SOL    HW128166   0.502   1.340   6.150  0.5462  1.4367 -1.0162
 7017SOL    HW228167   0.402   1.252   6.078  2.3050 -1.4317 -0.1172
 7018SOL     OW28168  11.007   4.605   0.358  0.1622  0.5400 -0.2416
 7018SOL    HW128169  11.092   4.574   0.390 -0.4204 -0.6279  0.2571
 7018SOL    HW228170  10.964   4.642   0.435 -1.1738 -2.1237  0.4237
 7019SOL     OW28171   0.921   5.227  12.402 -0.1603 -0.5678 -0.2289
 7019SOL    HW128172   0.912   5.146  12.351 -0.4814 -0.7666  0.1458
 7019SOL    HW228173   0.923   5.296  12.336  0.3396 -0.8925 -0.5677
 7020SOL     OW28174   0.131   6.786   8.466  0.4565 -0.2999 -0.3533
 7020SOL    HW128175   0.053   6.823   8.426  0.2005 -0.7388 -0.2662
 7020SOL    HW228176   0.173   6.859   8.511 -0.0186 -0.1135 -0.2161
 7021SOL     OW28177   2.446   3.578  12.393  0.4778  0.3118  0.0153
 7021SOL    HW128178   2.405   3.520  12.457  1.1610 -0.1178  0.0783
 7021SOL    HW228179   2.380   3.590  12.325  0.6873 -1.4265 -0.5391
 7022SOL     OW28180   1.325   9.800   3.334 -0.4493  0.8832 -0.2577
 7022SOL    HW128181   1.301   9.709   3.353 -0.9960  1.3460  1.4549
 7022SOL    HW228182   1.245   9.839   3.299 -0.4875  0.9432 -0.1032
 7023SOL     OW28183   9.007   2.955  12.218  0.0379  0.3962 -0.0486
 7023SOL    HW128184   9.087   3.002  12.197 -0.5153  1.2880 -0.2149
 7023SOL    HW228185   8.981   2.989  12.304 -0.8137  1.0258 -0.5409
 7024SOL     OW28186  10.022  11.121   1.176  0.4984  0.5704 -0.4808
 7024SOL    HW128187  10.116  11.116   1.189  0.6454  3.5147  0.1932
 7024SOL    HW228188   9.993  11.195   1.230 -2.4267 -1.0209  0.3479
 7025SOL     OW28189   6.813   5.208   2.630 -0.2847 -0.2773  0.0505
 7025SOL    HW128190   6.868   5.273   2.586 -0.0823  1.2440  2.3239
 7025SOL    HW228191   6.873   5.139   2.656 -0.0695 -0.2522 -0.3714
 7026SOL     OW28192   1.677   9.572   3.926  0.3161 -0.1421 -0.1468
 7026SOL    HW128193   1.713   9.516   3.857  1.3579  0.0707  0.2113
 7026SOL    HW228194   1.595   9.605   3.889 -0.0014 -1.3795 -0.6139
 7027SOL     OW28195   7.547   0.271   1.350 -0.3454  0.0360  0.1730
 7027SOL    HW128196   7.506   0.355   1.330 -0.8889  0.0409  1.2853
 7027SOL    HW228197   7.601   0.253   1.273  1.3075  2.3297  0.6832
 7028SOL     OW28198   0.734   2.445   1.394  0.0298  0.5885  0.6250
 7028SOL    HW128199   0.693   2.374   1.345 -0.7086  1.3070  0.1729
 7028SOL    HW228200   0.734   2.415   1.485  0.5898 -0.3761  0.3178
 7029SOL     OW28201  10.384   6.141   6.778 -0.1373 -0.5689 -0.2481
 7029SOL    HW128202  10.334   6.067   6.812  0.9281 -1.1855  0.0406
 7029SOL    HW228203  10.389   6.125   6.684  0.6432 -1.2297 -0.1036
 7030SOL     OW28204   5.921   6.783  12.406 -0.1022  0.2794  0.2128
 7030SOL    HW128205   5.959   6.705  12.367  1.4779  0.5839  1.0706
 7030SOL    HW228206   5.983   6.810  12.474 -2.2760  0.2696  2.3778
 7031SOL     OW28207  12.501   0.464   8.235  0.2019 -0.0317  0.0926
 7031SOL    HW128208  12.496   0.556   8.209  2.2388  0.0308 -0.2070
 7031SOL    HW228209  12.563   0.463   8.308  1.5913 -1.3525 -1.0444
 7032SOL     OW28210  10.790  12.428  10.014  0.3469  0.2339 -0.6502
 7032SOL    HW128211  10.799  12.509   9.964 -0.8561  0.1820 -0.9683
 7032SOL    HW228212  10.838  12.444  10.096 -0.4567  1.5148 -0.4153
 7033SOL     OW28213   0.068  10.749   5.305  0.0527  0.3024  0.5607
 7033SOL    HW128214   0.083  10.674   5.362  0.9361  1.5559  2.0586
 7033SOL    HW228215  -0.001  10.799   5.348  1.4133  1.7827  1.1484
 7034SOL     OW28216  11.483   0.616   6.082 -0.7767  0.1790 -0.7692
 7034SOL    HW128217  11.550   0.597   6.018  1.5704  0.4417  1.4473
 7034SOL    HW228218  11.474   0.534   6.132 -2.6371 -0.0634 -1.4096
 7035SOL     OW28219   1.187  12.468  12.228  0.1486 -0.1570  0.2620
 7035SOL    HW128220   1.269  12.510  12.256 -0.3842  0.9844  0.1810
 7035SOL    HW228221   1.176  12.497  12.138  0.1059 -1.0458 -0.0236
 7036SOL     OW28222   6.213   7.119  12.423  0.5228  0.8940 -0.3576
 7036SOL    HW128223   6.240   7.058  12.354 -0.3376  0.8062 -0.6187
 7036SOL    HW228224   6.264   7.092  12.500  1.6655  1.1460 -1.0115
 7037SOL     OW28225   9.111   1.973   0.862  0.2576  0.0272 -0.6057
 7037SOL    HW128226   9.057   1.935   0.931  0.4184  1.0924  0.1311
 7037SOL    HW228227   9.143   1.898   0.813  1.2618 -0.8620  1.3062
 7038SOL     OW28228  11.318   4.529   4.782 -0.6502  0.2971  0.2024
 7038SOL    HW128229  11.291   4.570   4.700  0.4250  1.6288  0.4799
 7038SOL    HW228230  11.318   4.435   4.763 -2.0780  0.4744 -0.7918
 7039SOL     OW28231  10.219  11.997  10.272 -0.4046 -0.1560  0.3253
 7039SOL    HW128232  10.292  11.984  10.211  0.5274  0.3037  1.2984
 7039SOL    HW228233  10.193  12.088  10.258 -0.4573 -0.1707  0.3289
 7040SOL     OW28234   3.046  10.668   9.357 -0.0234  0.4652  0.4167
 7040SOL    HW128235   3.013  10.682   9.268  0.5152  1.6927  0.3960
 7040SOL    HW228236   2.991  10.596   9.391 -1.7289  1.4469 -0.1301
 7041SOL     OW28237   4.094   2.728   3.564  0.0658  0.1737  0.1572
 7041SOL    HW128238   4.116   2.814   3.527  0.5072 -0.2872 -0.6574
 7041SOL    HW228239   4.141   2.665   3.510 -0.6403 -0.6263  0.4500
 7042SOL     OW28240   5.775  10.103   0.395  0.1106  0.1172  0.1671
 7042SOL    HW128241   5.738  10.130   0.310  0.9826 -1.3205 -0.7130
 7042SOL    HW228242   5.739  10.015   0.409  1.3941 -0.3973  0.3765
 7043SOL     OW28243  12.655   2.518  12.910 -0.0999  0.2331 -0.2715
 7043SOL    HW128244  12.559   2.519  12.914 -0.1773  1.6126 -1.5364
 7043SOL    HW228245  12.675   2.482  12.824  0.5766 -1.0799  0.4101
 7044SOL     OW28246   7.612  12.837  11.665  0.5504 -0.1244 -0.1937
 7044SOL    HW128247   7.690  12.873  11.622  1.7441 -2.7289 -0.4098
 7044SOL    HW228248   7.603  12.888  11.745  0.1524  2.7638 -1.9415
 7045SOL     OW28249  12.302  10.046  10.129  0.0180  0.0666 -0.2688
 7045SOL    HW128250  12.222   9.993  10.128  0.0291  0.0584 -0.6164
 7045SOL    HW228251  12.371   9.985  10.156  0.1604 -0.2805 -1.3852
 7046SOL     OW28252   8.181  11.445   4.331 -0.4719  0.2013  0.2104
 7046SOL    HW128253   8.272  11.469   4.316 -0.1748 -1.7749 -1.6539
 7046SOL    HW228254   8.130  11.517   4.294  0.3223  0.5514 -0.2088
 7047SOL     OW28255   0.143   1.449   5.473  0.3772  0.2469  0.1102
 7047SOL    HW128256   0.174   1.495   5.551  0.3115  3.7663 -1.7665
 7047SOL    HW228257   0.211   1.384   5.456  0.9266  0.1078  2.4223
 7048SOL     OW28258   5.485   2.299   2.131  0.5637  0.0029  0.2180
 7048SOL    HW128259   5.425   2.239   2.174  2.3079 -2.2403 -0.2841
 7048SOL    HW228260   5.470   2.383   2.174 -1.6976 -0.8357  1.2342
 7049SOL     OW28261   9.761   1.282   9.556  0.0932 -0.2433 -0.3351
 7049SOL    HW128262   9.845   1.328   9.554 -0.5032  0.9095  0.1281
 7049SOL    HW228263   9.770   1.214   9.489  1.2654  0.0835 -0.5395
 7050SOL     OW28264   1.017  10.626   5.984  0.4000 -0.0859  0.2128
 7050SOL    HW128265   1.022  10.657   6.074  0.4976 -0.0889  0.2087
 7050SOL    HW228266   0.924  10.608   5.969  0.5146 -1.0787  0.6364
 7051SOL     OW28267   9.037   6.977   5.692  0.2508  0.0064  0.3132
 7051SOL    HW128268   9.113   6.945   5.642  0.5111  2.2536 -0.8442
 7051SOL    HW228269   9.075   7.011   5.773  0.1829 -0.8556  0.7226
 7052SOL     OW28270   2.443   4.393   0.040 -0.1004 -0.2700 -0.0549
 7052SOL    HW128271   2.469   4.379  -0.051 -1.7873 -1.4954 -0.3780
 7052SOL    HW228272   2.356   4.355   0.047 -0.5373  0.9332  1.7681
 7053SOL     OW28273   0.585   8.084  12.374 -0.2709 -0.0139 -0.1143
 7053SOL    HW128274   0.513   8.032  12.409 -1.7743  1.6183 -0.6278
 7053SOL    HW228275   0.609   8.039  12.293 -0.8731 -0.4583 -0.0549
 7054SOL     OW28276  10.518   8.722  10.832 -0.3273 -0.1864 -0.3428
 7054SOL    HW128277  10.445   8.675  10.790  1.7516 -1.1948 -3.1174
 7054SOL    HW228278  10.545   8.664  10.904 -2.5416  0.4949  1.1388
 7055SOL     OW28279   5.945  12.573  11.670 -0.7791  0.0950  0.1209
 7055SOL    HW128280   5.880  12.628  11.626  0.2929  1.1008 -0.2982
 7055SOL    HW228281   5.978  12.628  11.741 -0.3583 -0.3721  0.2914
 7056SOL     OW28282  10.948   6.873   0.187  0.0201 -0.6348 -0.6655
 7056SOL    HW128283  10.927   6.830   0.104  0.6938 -2.2033 -0.0484
 7056SOL    HW228284  11.021   6.824   0.222 -0.2421  0.0119  0.8744
 7057SOL     OW28285  10.898   5.215   1.193  0.7034 -0.2105 -0.2179
 7057SOL    HW128286  10.992   5.221   1.173  0.3232 -0.1559 -2.1809
 7057SOL    HW228287  10.893   5.232   1.287  2.5999  0.3949 -0.1731
 7058SOL     OW28288  11.208   3.438   1.731  0.4523  0.3781  0.1720
 7058SOL    HW128289  11.177   3.514   1.780  0.2772  1.6063 -1.7255
 7058SOL    HW228290  11.130   3.382   1.722  0.5232  0.0679  1.3672
 7059SOL     OW28291   4.728  11.131  11.690  0.4773  0.2438 -0.1684
 7059SOL    HW128292   4.658  11.183  11.727  1.6164  0.4415  1.8170
 7059SOL    HW228293   4.683  11.070  11.631 -1.3640  0.3623  1.0146
 7060SOL     OW28294   1.575   3.563   5.282 -0.0017 -0.0911  0.6202
 7060SOL    HW128295   1.489   3.533   5.311 -0.0151  0.1864  0.8718
 7060SOL    HW228296   1.558   3.616   5.204  0.0357 -0.8529  0.0819
 7061SOL     OW28297   5.348   6.945   0.323  0.1348 -0.0151 -0.2285
 7061SOL    HW128298   5.443   6.951   0.337  0.3138 -2.1519 -0.1927
 7061SOL    HW228299   5.310   6.992   0.397  1.1610  0.5662 -0.0482
 7062SOL     OW28300  10.040   3.987  11.664 -0.2878  0.1697  0.1212
 7062SOL    HW128301  10.098   3.945  11.601 -1.9889 -1.8946 -0.1737
 7062SOL    HW228302   9.995   4.055  11.613  1.8929  1.9585  0.4066
 7063SOL     OW28303   2.739   5.917   1.526  0.4918  0.2403  0.1893
 7063SOL    HW128304   2.668   5.854   1.537  0.5293 -0.1350 -1.3886
 7063SOL    HW228305   2.800   5.898   1.597 -0.9284  0.5379  1.5542
 7064SOL     OW28306  11.202   5.745   2.488  0.1540  0.4925  0.6176
 7064SOL    HW128307  11.253   5.818   2.454 -0.3638 -0.4112 -2.4774
 7064SOL    HW228308  11.206   5.679   2.418 -0.2913 -2.0231  2.8015
 7065SOL     OW28309   7.387   2.867   8.474 -0.0792 -0.0217 -0.4720
 7065SOL    HW128310   7.467   2.902   8.513 -0.1481 -0.8452  0.4654
 7065SOL    HW228311   7.317   2.917   8.515 -0.0628  0.4588 -1.0284
 7066SOL     OW28312  12.729  11.879   7.514  0.3711  0.3563 -0.3034
 7066SOL    HW128313  12.726  11.975   7.515 -0.0796  0.4021  2.7109
 7066SOL    HW228314  12.820  11.858   7.495  0.4890  1.3677 -0.9198
 7067SOL     OW28315   2.659   9.940   7.104 -0.0639 -0.2505  0.1346
 7067SOL    HW128316   2.678   9.988   7.184 -0.0240 -0.8728  0.5060
 7067SOL    HW228317   2.701   9.855   7.117  0.6241 -0.0890 -0.8733
 7068SOL     OW28318   4.698  12.435   2.827  0.4105  0.0808  0.6240
 7068SOL    HW128319   4.704  12.350   2.871 -0.7675 -1.2116 -1.5155
 7068SOL    HW228320   4.607  12.462   2.841  0.4600  0.4087  0.3213
 7069SOL     OW28321   0.627   3.827   3.629 -0.6570 -1.0831  0.2981
 7069SOL    HW128322   0.563   3.811   3.560 -1.1346 -0.2598  0.5392
 7069SOL    HW228323   0.651   3.739   3.660 -0.8686 -1.4362 -0.5147
 7070SOL     OW28324   8.185   4.366   6.186  0.0504 -0.1000 -0.1635
 7070SOL    HW128325   8.151   4.298   6.244  0.1113  0.2455  0.2909
 7070SOL    HW228326   8.207   4.438   6.245 -1.6347  0.9978 -0.7892
 7071SOL     OW28327   7.148   8.168   3.304 -0.0357  0.7962  0.5296
 7071SOL    HW128328   7.227   8.141   3.258 -0.3273  0.2886  0.3089
 7071SOL    HW228329   7.087   8.095   3.290 -0.7763  1.4832  0.1051
 7072SOL     OW28330  11.142   5.708   1.499 -0.0149  0.1438 -0.1995
 7072SOL    HW128331  11.064   5.743   1.456 -0.7589 -1.4617 -0.2451
 7072SOL    HW228332  11.121   5.709   1.592 -0.0213 -0.0856 -0.1964
 7073SOL     OW28333  10.681  10.328  12.911  0.5597 -0.5052 -0.1344
 7073SOL    HW128334  10.634  10.251  12.880 -0.7798 -0.7675  2.3319
 7073SOL    HW228335  10.689  10.316  13.005  2.0084  1.4973  0.0793
 7074SOL     OW28336   8.033   5.977   3.309  1.0273  0.2377  0.0023
 7074SOL    HW128337   7.972   6.050   3.303 -0.4286 -0.8139  1.1389
 7074SOL    HW228338   8.011   5.920   3.236  0.3589 -0.3204  0.6196
 7075SOL     OW28339   7.232   3.319   5.940  0.0427 -0.1244 -0.0353
 7075SOL    HW128340   7.266   3.306   5.851  0.8740 -0.6371  0.3470
 7075SOL    HW228341   7.138   3.332   5.928  0.0321 -0.9176 -0.9334
 7076SOL     OW28342   9.536   9.033   2.482 -0.0460  0.5400  0.1048
 7076SOL    HW128343   9.505   9.121   2.502 -0.8812  0.2746  0.0338
 7076SOL    HW228344   9.630   9.043   2.467  0.2355  1.1113  1.9806
 7077SOL     OW28345  10.454   4.413  11.200 -0.1516  0.0800 -0.1542
 7077SOL    HW128346  10.508   4.405  11.279 -0.0918  0.6220 -0.1322
 7077SOL    HW228347  10.497   4.357  11.136  0.4838  0.5465 -0.1547
 7078SOL     OW28348  12.034   7.835   0.106 -0.4005 -0.5724 -0.3923
 7078SOL    HW128349  12.091   7.758   0.105  0.5652  0.0684 -2.8571
 7078SOL    HW228350  12.088   7.904   0.145 -0.7924 -0.7903  0.5676
 7079SOL     OW28351   2.199   3.962   4.902  0.1398  0.8169  0.4877
 7079SOL    HW128352   2.194   3.871   4.932 -1.4033 -0.3532 -2.7727
 7079SOL    HW228353   2.122   4.005   4.939  0.1672  0.4351  0.9976
 7080SOL     OW28354   2.498   5.364   7.760 -0.3582 -0.0527 -0.2059
 7080SOL    HW128355   2.433   5.333   7.697 -0.5087  0.4944 -0.3254
 7080SOL    HW228356   2.528   5.447   7.723 -0.8507  0.5513  0.7268
 7081SOL     OW28357   3.909   6.750   0.796  0.1866  0.2305  0.0199
 7081SOL    HW128358   3.958   6.740   0.714  0.1164  1.6051 -0.2209
 7081SOL    HW228359   3.875   6.663   0.815 -2.3341  0.3388 -3.0373
 7082SOL     OW28360   9.619  12.625  11.996  0.2121 -0.1607  0.1363
 7082SOL    HW128361   9.553  12.556  12.008 -0.7901  0.3962 -1.8023
 7082SOL    HW228362   9.702  12.578  11.993 -0.1470 -0.9855  1.5555
 7083SOL     OW28363   2.771   4.593  12.474 -0.5252 -0.1524  0.2831
 7083SOL    HW128364   2.840   4.656  12.495 -0.9446  0.3166  0.2705
 7083SOL    HW228365   2.729   4.574  12.559 -1.1439  0.4758  0.1313
 7084SOL     OW28366   8.228   1.535   3.400 -0.4953 -0.1403  0.1064
 7084SOL    HW128367   8.311   1.534   3.447 -1.7418  0.5748  2.4840
 7084SOL    HW228368   8.198   1.444   3.403  0.5968 -0.6101 -1.6489
 7085SOL     OW28369   0.474   8.483   8.434 -0.4137  0.1566  0.7452
 7085SOL    HW128370   0.418   8.491   8.511 -0.4209  0.9693  0.6693
 7085SOL    HW228371   0.479   8.389   8.417 -1.8536  0.0713  0.6825
 7086SOL     OW28372   3.705   7.490   0.301  0.1784 -0.1389 -0.1289
 7086SOL    HW128373   3.728   7.570   0.348  0.6154  0.7893 -1.8060
 7086SOL    HW228374   3.615   7.470   0.329  0.2963  0.5701  0.7949
 7087SOL     OW28375   9.254   9.559   8.658 -0.5875  0.4938 -0.2565
 7087SOL    HW128376   9.188   9.609   8.610 -0.5891 -0.4084 -1.2479
 7087SOL    HW228377   9.297   9.507   8.590 -0.6157 -0.8686  0.7402
 7088SOL     OW28378  10.438   8.245   4.972  0.1325 -0.3947 -0.4144
 7088SOL    HW128379  10.425   8.311   4.903  0.1773  0.2528  0.1852
 7088SOL    HW228380  10.396   8.166   4.937 -0.1919  0.0293 -1.0195
 7089SOL     OW28381   7.592   0.248   4.949  0.0291  0.6807 -0.2704
 7089SOL    HW128382   7.679   0.252   4.989 -0.2398  0.8937  0.3148
 7089SOL    HW228383   7.532   0.256   5.023 -0.5244 -1.2711 -0.4545
 7090SOL     OW28384  10.945   4.629   7.181 -0.2957 -0.0241 -0.3634
 7090SOL    HW128385  10.948   4.585   7.096 -1.8249 -0.3259 -0.2870
 7090SOL    HW228386  11.030   4.672   7.188 -0.6137  1.1865 -2.6944
 7091SOL     OW28387   2.637   6.210   6.971  0.0140  0.0577 -0.3130
 7091SOL    HW128388   2.709   6.153   6.944  0.3381  0.6634 -0.7493
 7091SOL    HW228389   2.567   6.150   6.994  0.5464 -0.5337 -0.2089
 7092SOL     OW28390  11.004   6.821   9.162  0.3642  0.2258  0.8863
 7092SOL    HW128391  10.910   6.800   9.161 -0.4750  3.4378  1.7945
 7092SOL    HW228392  11.031   6.813   9.071 -0.1980 -2.7228  0.8718
 7093SOL     OW28393   7.801   5.195   0.471  0.0273 -0.0621  0.2740
 7093SOL    HW128394   7.895   5.183   0.486  0.0370  0.9632  1.1011
 7093SOL    HW228395   7.764   5.107   0.483  1.0073 -0.7320 -1.2727
 7094SOL     OW28396  11.062   8.957   9.808 -0.7858 -0.4537  0.2863
 7094SOL    HW128397  10.967   8.961   9.808 -0.7591  0.8226 -0.3057
 7094SOL    HW228398  11.084   8.904   9.731 -1.0119 -1.4679  0.9016
 7095SOL     OW28399   1.677   4.965   3.712  0.1865 -0.2713 -0.3614
 7095SOL    HW128400   1.717   5.034   3.659  0.9889  0.0925  0.6585
 7095SOL    HW228401   1.700   4.989   3.802  2.0580 -2.7869 -0.0482
 7096SOL     OW28402   6.606   1.353  12.847  0.0520 -0.2679 -0.4748
 7096SOL    HW128403   6.544   1.373  12.917  1.4188 -0.1047  0.7558
 7096SOL    HW228404   6.681   1.410  12.866  0.4073 -0.1311 -2.1618
 7097SOL     OW28405   7.480   9.321   1.727 -0.1881 -0.3871 -0.8482
 7097SOL    HW128406   7.415   9.347   1.662 -0.7091 -0.3049 -0.2998
 7097SOL    HW228407   7.483   9.394   1.789  1.9672  0.5778 -1.9869
 7098SOL     OW28408   7.443  10.833   9.827 -0.4970  0.0453  0.1859
 7098SOL    HW128409   7.495  10.880   9.762  2.1063 -1.3216  1.1048
 7098SOL    HW228410   7.415  10.901   9.889  2.9624  0.6369  1.3607
 7099SOL     OW28411   5.628   5.215   2.862  0.0518 -0.1323 -0.1733
 7099SOL    HW128412   5.542   5.197   2.900 -0.6225 -0.2869 -1.6976
 7099SOL    HW228413   5.614   5.210   2.768  1.4144  1.2983 -0.4981
 7100SOL     OW28414   1.087  11.231   1.097 -0.1787 -0.6902 -0.0553
 7100SOL    HW128415   1.168  11.279   1.080  0.4833 -1.2465  1.3828
 7100SOL    HW228416   1.042  11.282   1.165 -1.1902 -0.2433 -1.0231
 7101SOL     OW28417   5.793  12.264   0.865  0.2113  0.2760  0.0378
 7101SOL    HW128418   5.712  12.241   0.912  1.0030 -1.7507  0.5436
 7101SOL    HW228419   5.853  12.292   0.934 -0.1330  2.1245 -0.3773
 7102SOL     OW28420  11.117   1.835   0.716  0.4267 -0.2836  0.2230
 7102SOL    HW128421  11.138   1.761   0.659  0.4054  0.3828 -0.6748
 7102SOL    HW228422  11.120   1.799   0.804  0.5712 -1.3174 -0.1897
 7103SOL     OW28423  11.680  12.599   7.691  0.1472  0.6505  0.2078
 7103SOL    HW128424  11.741  12.666   7.659  0.8547 -1.0740 -2.4266
 7103SOL    HW228425  11.656  12.550   7.612 -0.0062 -2.4515  2.0357
 7104SOL     OW28426   3.589   2.385  11.333  0.5039 -0.2697  0.2292
 7104SOL    HW128427   3.675   2.347  11.353  1.1142  1.3477  0.8573
 7104SOL    HW228428   3.536   2.366  11.410  0.9188  0.4157  0.7004
 7105SOL     OW28429   3.202  10.454  11.951 -0.0921 -0.3534  0.0061
 7105SOL    HW128430   3.289  10.416  11.937 -0.3286 -1.8387  2.1729
 7105SOL    HW228431   3.199  10.474  12.044 -1.7301  0.6231 -0.2192
 7106SOL     OW28432  10.630   4.115   2.236 -0.1053  0.3643  0.3519
 7106SOL    HW128433  10.584   4.032   2.225 -0.2096  0.2403  1.5869
 7106SOL    HW228434  10.614   4.163   2.155  0.3837 -1.0236 -0.5951
 7107SOL     OW28435   1.250   8.041   1.884 -0.4150  0.5379  0.7528
 7107SOL    HW128436   1.227   8.101   1.813 -0.3555  1.2541  1.3192
 7107SOL    HW228437   1.197   7.963   1.869 -1.2537  1.1357  0.5661
 7108SOL     OW28438   6.689   0.121   9.550  0.1205 -0.4332 -0.1536
 7108SOL    HW128439   6.686   0.121   9.646 -2.0096  0.9230 -0.1755
 7108SOL    HW228440   6.656   0.207   9.525  0.8393 -0.6909 -2.1283
 7109SOL     OW28441   2.450  10.094   1.915  0.2897 -0.2972 -0.6533
 7109SOL    HW128442   2.523  10.154   1.899 -0.5287  0.2917 -2.4026
 7109SOL    HW228443   2.468  10.057   2.002  1.3615  1.6869  0.0236
 7110SOL     OW28444  12.938   0.121  10.634 -0.2137  0.3356 -0.5940
 7110SOL    HW128445  12.986   0.176  10.573 -0.5555  1.1214 -0.1794
 7110SOL    HW228446  12.956   0.159  10.720 -0.2597 -0.3565 -0.2708
 7111SOL     OW28447   5.435   0.061  11.884  0.1673  0.1701 -0.1581
 7111SOL    HW128448   5.388   0.104  11.956  1.9083 -0.0425  1.1748
 7111SOL    HW228449   5.492   0.129  11.850  1.3385 -0.4350  0.5152
 7112SOL     OW28450  11.874  12.393  11.724 -0.8136  0.2521  0.5375
 7112SOL    HW128451  11.838  12.318  11.771  0.0417 -0.3573  0.2448
 7112SOL    HW228452  11.903  12.358  11.640 -1.7670  1.2109 -0.2135
 7113SOL     OW28453   2.508   1.029   7.021 -0.2752 -0.6465 -0.1828
 7113SOL    HW128454   2.453   0.956   6.995 -0.9563  0.0070 -0.6232
 7113SOL    HW228455   2.568   0.992   7.086 -0.8091 -1.5150 -0.1670
 7114SOL     OW28456   8.021   5.324   7.450  0.1909  0.1282  0.3257
 7114SOL    HW128457   8.063   5.280   7.376  1.0557 -0.0356  0.8931
 7114SOL    HW228458   8.079   5.398   7.469  0.5550 -0.4367  1.4946
 7115SOL     OW28459   7.592  11.295   7.522  0.1510  0.5085 -0.8963
 7115SOL    HW128460   7.540  11.375   7.532 -0.4992  0.1271 -1.1554
 7115SOL    HW228461   7.531  11.232   7.483  0.5298 -0.2431 -0.2937
 7116SOL     OW28462  12.598   8.089   5.190  0.1632  0.4370 -0.4548
 7116SOL    HW128463  12.669   8.142   5.227 -0.2523  0.1555  0.7970
 7116SOL    HW228464  12.642   8.031   5.129  1.1232 -0.1062  0.6960
 7117SOL     OW28465   5.911   6.925  12.137  0.2128 -0.5295 -0.2149
 7117SOL    HW128466   5.923   6.895  12.227  2.1011 -1.1940 -0.6310
 7117SOL    HW228467   5.955   7.010  12.134  1.5375 -1.1933 -0.8268
 7118SOL     OW28468   9.558   2.292   8.014  0.0199  0.3805  0.5625
 7118SOL    HW128469   9.646   2.324   8.033 -0.3343  1.6660  0.1503
 7118SOL    HW228470   9.518   2.361   7.962 -1.1159 -0.3500  0.4218
 7119SOL     OW28471   7.788   5.215   2.396 -0.0217 -0.4203 -0.0720
 7119SOL    HW128472   7.872   5.171   2.382  0.3817  0.9833 -2.6896
 7119SOL    HW228473   7.723   5.148   2.378  0.5614 -0.9050 -0.4165
 7120SOL     OW28474   2.029   4.426   0.611  0.6200 -0.0551 -0.3501
 7120SOL    HW128475   2.041   4.368   0.536  0.2422 -0.6936  0.0695
 7120SOL    HW228476   1.940   4.458   0.604  0.5202 -0.2628 -0.0834
 7121SOL     OW28477  11.668  11.728   1.652  0.7374 -0.9853  0.3726
 7121SOL    HW128478  11.679  11.821   1.671  0.8317 -0.7814 -0.6367
 7121SOL    HW228479  11.584  11.705   1.692 -0.0194 -0.1024 -0.6830
 7122SOL     OW28480   2.187   9.195   1.347 -0.4288 -0.8958 -0.5001
 7122SOL    HW128481   2.201   9.142   1.426  2.5674 -0.0408 -0.3246
 7122SOL    HW228482   2.206   9.136   1.275  2.0717 -0.4034 -0.3306
 7123SOL     OW28483   7.985   2.906   3.679  0.0867 -1.5098 -0.0149
 7123SOL    HW128484   8.013   2.915   3.770 -1.5738 -0.4389  0.4179
 7123SOL    HW228485   8.064   2.928   3.628  0.4506  0.1300  1.1655
 7124SOL     OW28486  12.037   8.376   6.407  0.0966  0.1939 -0.0922
 7124SOL    HW128487  12.064   8.284   6.401  2.3486  0.8448 -0.9302
 7124SOL    HW228488  11.945   8.372   6.435  0.0701 -2.2985 -0.2876
 7125SOL     OW28489   4.624  12.669  12.455  0.2414 -0.1352 -0.0946
 7125SOL    HW128490   4.632  12.654  12.361  0.1587 -0.2814 -0.0792
 7125SOL    HW228491   4.594  12.585  12.490 -1.6486  0.4610 -0.1942
 7126SOL     OW28492   0.907   6.832   1.776 -0.6260  0.0347  0.0844
 7126SOL    HW128493   0.945   6.798   1.857  1.2826  0.5003 -0.5422
 7126SOL    HW228494   0.825   6.873   1.803 -0.9949 -1.5136  1.4499
 7127SOL     OW28495  11.389   3.137   2.839  0.0662  0.3810 -0.3483
 7127SOL    HW128496  11.317   3.074   2.837 -0.7633  1.3013 -0.1661
 7127SOL    HW228497  11.447   3.109   2.769 -0.3508 -0.5084 -0.3572
 7128SOL     OW28498   4.631   7.816  12.052 -0.0836  0.6384 -0.0881
 7128SOL    HW128499   4.571   7.765  12.105 -1.3801  1.9248 -0.2419
 7128SOL    HW228500   4.680   7.868  12.115 -0.3637  0.8553 -0.0462
 7129SOL     OW28501   0.456   4.304   8.257  0.4070 -0.4536  0.3806
 7129SOL    HW128502   0.505   4.318   8.339 -0.9813  1.2609  0.9745
 7129SOL    HW228503   0.475   4.214   8.233  3.1715 -0.1412  1.0278
 7130SOL     OW28504   5.518   2.437   5.617 -0.8175 -0.2644 -0.0879
 7130SOL    HW128505   5.536   2.346   5.639 -2.3009 -0.7164 -0.6820
 7130SOL    HW228506   5.506   2.437   5.522 -0.3713  0.6394 -0.1556
 7131SOL     OW28507   7.950  10.944   2.073 -0.1205 -0.6320 -0.3879
 7131SOL    HW128508   8.008  10.940   2.149  0.7585  1.0147 -0.9201
 7131SOL    HW228509   7.875  10.995   2.103  0.5514  0.6398 -0.7699
 7132SOL     OW28510  10.238   7.612   2.780 -0.5543 -0.1771  0.2117
 7132SOL    HW128511  10.238   7.532   2.727  0.1028  0.0606 -0.1575
 7132SOL    HW228512  10.168   7.665   2.743  0.3872  0.3076 -0.9353
 7133SOL     OW28513   5.048   8.564   1.213  0.2545  0.3745 -0.3609
 7133SOL    HW128514   4.969   8.618   1.220 -0.3462 -0.4877 -0.3594
 7133SOL    HW228515   5.078   8.577   1.123 -0.2981  0.1539 -0.5821
 7134SOL     OW28516   0.434   4.878   1.462 -0.4698 -0.3654 -0.2033
 7134SOL    HW128517   0.454   4.800   1.514  2.0007  0.3172 -0.0092
 7134SOL    HW228518   0.438   4.950   1.525 -2.0428  0.0173 -0.5068
 7135SOL     OW28519   4.656  12.389   0.441 -0.2556  0.3910  0.5326
 7135SOL    HW128520   4.696  12.472   0.469  1.6485  0.3687 -1.8481
 7135SOL    HW228521   4.668  12.387   0.347 -0.8842 -2.3140  0.4395
 7136SOL     OW28522   8.375   1.212  12.313 -0.1643 -0.2556  0.2047
 7136SOL    HW128523   8.300   1.173  12.357 -0.0730  0.5621  1.1019
 7136SOL    HW228524   8.407   1.279  12.373  1.4510 -0.7632 -0.0346
 7137SOL     OW28525   8.554  10.748  10.812 -0.3362 -0.1336  0.5786
 7137SOL    HW128526   8.529  10.808  10.742  0.6816 -1.3925 -0.9645
 7137SOL    HW228527   8.639  10.712  10.783 -0.5062 -1.6459  1.8184
 7138SOL     OW28528   2.474   3.033  10.572 -0.1118  0.0686 -1.0596
 7138SOL    HW128529   2.382   3.018  10.591 -0.7740  2.6017 -1.9123
 7138SOL    HW228530   2.490   2.980  10.493 -0.7559 -0.5764 -0.7715
 7139SOL     OW28531   8.619   6.418   0.505  0.2699 -0.0821  0.3377
 7139SOL    HW128532   8.546   6.358   0.490 -1.1334  1.4468  0.8500
 7139SOL    HW228533   8.659   6.430   0.419 -0.7788 -0.0744 -0.1548
 7140SOL     OW28534  10.838   5.459   5.815 -0.5684  0.2782  0.1001
 7140SOL    HW128535  10.892   5.399   5.764  1.7371  1.5571  0.9319
 7140SOL    HW228536  10.858   5.439   5.906 -0.4198  1.6852  0.4047
 7141SOL     OW28537   7.665  11.770  12.170  0.0546 -0.1988 -0.2509
 7141SOL    HW128538   7.612  11.848  12.185  0.3580  0.0872 -0.6428
 7141SOL    HW228539   7.627  11.731  12.092  0.8988  0.4350 -0.9974
 7142SOL     OW28540   0.679   6.825   2.721 -0.2178  0.4608 -0.1001
 7142SOL    HW128541   0.605   6.836   2.660 -1.0009 -0.0012  0.7388
 7142SOL    HW228542   0.741   6.770   2.673  0.1036  1.7536 -1.2374
 7143SOL     OW28543   7.892   5.571   3.530 -0.4426  0.3363 -0.4100
 7143SOL    HW128544   7.874   5.665   3.537  0.4390  0.5290 -0.6588
 7143SOL    HW228545   7.892   5.554   3.436  0.8888  0.3952 -0.4333
 7144SOL     OW28546   7.903  10.049   6.692 -0.3239  0.0622  0.3589
 7144SOL    HW128547   7.893  10.062   6.786 -2.7365  1.1654  0.0292
 7144SOL    HW228548   7.870   9.961   6.676 -1.1213  0.3402  0.4213
 7145SOL     OW28549   8.438  12.378   6.383  0.1058  0.4899  0.1239
 7145SOL    HW128550   8.480  12.461   6.406 -2.0338  1.4525  0.7116
 7145SOL    HW228551   8.452  12.369   6.288  2.2999  0.3369  0.4094
 7146SOL     OW28552   9.986   7.329  11.754 -0.0145  0.5687 -0.0368
 7146SOL    HW128553  10.011   7.342  11.846  3.8242 -1.3439 -0.6133
 7146SOL    HW228554   9.948   7.240  11.752 -0.4187  0.7423 -0.2809
 7147SOL     OW28555  11.960   3.329   6.493 -0.1338 -0.7759  0.1487
 7147SOL    HW128556  11.869   3.316   6.519  0.0080 -0.9946  0.5468
 7147SOL    HW228557  12.011   3.300   6.569  0.2638 -0.5187 -0.0151
 7148SOL     OW28558   3.303  11.634   1.168  0.3806 -0.8995  0.2200
 7148SOL    HW128559   3.348  11.719   1.175  0.1332 -0.8504  1.6958
 7148SOL    HW228560   3.371  11.573   1.139  1.0118 -0.5089  0.8293
 7149SOL     OW28561   6.819   6.781   7.707 -0.0884 -0.2234  0.0204
 7149SOL    HW128562   6.732   6.744   7.719  0.0678 -0.2232  1.3404
 7149SOL    HW228563   6.878   6.709   7.730  0.2827 -0.3547 -1.2707
 7150SOL     OW28564   6.680   7.127   0.346 -0.1062 -0.8270  0.7662
 7150SOL    HW128565   6.671   7.032   0.353  1.0410 -0.8458  2.3692
 7150SOL    HW228566   6.721   7.154   0.428  3.5249  0.5333 -1.2515
 7151SOL     OW28567   0.513   6.381   1.556 -0.3652  0.6071  0.0489
 7151SOL    HW128568   0.436   6.418   1.512  1.0001  2.6275 -0.7997
 7151SOL    HW228569   0.502   6.405   1.648 -1.5246 -0.5999  0.2614
 7152SOL     OW28570   2.545  11.874   8.231  0.4889 -0.4871  0.3479
 7152SOL    HW128571   2.554  11.883   8.136  0.3248 -2.1069  0.1625
 7152SOL    HW228572   2.474  11.935   8.254  0.8126  0.2313 -0.4862
 7153SOL     OW28573  10.758   5.647  11.262 -0.0619 -0.0959 -0.2300
 7153SOL    HW128574  10.741   5.582  11.330  0.1122 -0.7398 -0.7922
 7153SOL    HW228575  10.711   5.725  11.291 -2.0615 -1.1090 -0.5890
 7154SOL     OW28576   3.798  10.605   9.463 -0.2835 -0.3181  0.0290
 7154SOL    HW128577   3.790  10.684   9.410  2.7074 -0.0514 -0.1917
 7154SOL    HW228578   3.842  10.542   9.405 -1.4013 -1.7046  0.6407
 7155SOL     OW28579   8.804   7.207   3.076 -0.1082 -0.0799  0.1844
 7155SOL    HW128580   8.899   7.197   3.080 -0.0658  0.2994  0.1210
 7155SOL    HW228581   8.772   7.120   3.051  0.2299 -0.1686  0.0573
 7156SOL     OW28582  12.488  10.895   3.953  0.3224  0.1437  0.0583
 7156SOL    HW128583  12.482  10.808   3.992  1.3691  0.4747  1.0323
 7156SOL    HW228584  12.422  10.946   3.999  0.7005  0.2182  0.5281
 7157SOL     OW28585  12.011   8.255   1.914  0.2394 -0.3682  0.2064
 7157SOL    HW128586  11.973   8.230   1.998 -2.3848  1.4680 -0.3269
 7157SOL    HW228587  12.071   8.326   1.935  1.1952 -1.3002  0.7236
 7158SOL     OW28588  11.441   6.222   9.078 -0.5667 -0.1541  0.2335
 7158SOL    HW128589  11.420   6.306   9.037 -1.6941  0.2349  1.5541
 7158SOL    HW228590  11.502   6.244   9.149 -1.2325 -0.3880  0.8831
 7159SOL     OW28591   9.264   6.768  11.134  0.3207  0.1080  0.1876
 7159SOL    HW128592   9.352   6.735  11.115 -0.2332 -0.0938 -2.5389
 7159SOL    HW228593   9.244   6.735  11.221  2.4790 -0.8696  0.3791
 7160SOL     OW28594  12.758   0.151  11.713  0.4708 -0.3943 -0.5197
 7160SOL    HW128595  12.791   0.239  11.733  1.0256 -0.5538 -0.7096
 7160SOL    HW228596  12.828   0.111  11.661 -0.3266 -0.5058 -1.5177
 7161SOL     OW28597   3.359   1.727   4.621  0.0425 -0.1133  0.1411
 7161SOL    HW128598   3.349   1.643   4.576  0.4937 -0.3223  0.4102
 7161SOL    HW228599   3.299   1.721   4.696  0.3948 -0.3824  0.4091
 7162SOL     OW28600  12.014  10.426   9.548  0.0493  0.0441 -0.0721
 7162SOL    HW128601  11.979  10.494   9.490 -1.8856 -1.0569 -0.2680
 7162SOL    HW228602  11.989  10.344   9.507  0.8267 -0.7897  1.0580
 7163SOL     OW28603   6.970  11.114  12.826  0.1830  0.2456  0.4600
 7163SOL    HW128604   6.915  11.084  12.898  0.6334  0.0254  0.7153
 7163SOL    HW228605   6.952  11.208  12.820  1.4937  0.6293  2.0582
 7164SOL     OW28606   6.001   5.392   9.295  0.0532 -0.2172  0.1417
 7164SOL    HW128607   6.086   5.358   9.320  0.6214 -0.4127 -1.8763
 7164SOL    HW228608   6.001   5.391   9.199 -1.8992  0.5653  0.0668
 7165SOL     OW28609   6.656   9.374   0.633 -0.3400 -0.0198 -0.2950
 7165SOL    HW128610   6.745   9.363   0.602 -1.0042 -0.4735 -2.1806
 7165SOL    HW228611   6.650   9.318   0.710  0.8550 -0.4001 -0.4654
 7166SOL     OW28612   4.540   7.516   7.889  0.5243 -0.1422 -0.4998
 7166SOL    HW128613   4.490   7.435   7.883 -1.9702  1.1284  1.1384
 7166SOL    HW228614   4.578   7.528   7.801 -1.3569 -1.6629 -1.5944
 7167SOL     OW28615   3.639   6.582   1.174  0.2144 -0.6382 -0.4640
 7167SOL    HW128616   3.720   6.532   1.186 -0.9097 -2.9541 -1.8137
 7167SOL    HW228617   3.605   6.594   1.262  2.0703  0.5465  0.1502
 7168SOL     OW28618   6.126   6.060   6.825  0.3857  0.0833  0.4465
 7168SOL    HW128619   6.062   6.069   6.895  0.0455  0.3543  0.1036
 7168SOL    HW228620   6.174   6.143   6.826  1.4336 -0.5042  1.3769
 7169SOL     OW28621   2.095   9.605   4.474  0.2537  0.1009  0.3866
 7169SOL    HW128622   2.113   9.558   4.555 -0.0547 -2.3300 -0.8622
 7169SOL    HW228623   2.001   9.594   4.460 -0.1139  2.3622  0.7415
 7170SOL     OW28624  11.480   7.204   3.464  0.5600  0.5115 -0.3458
 7170SOL    HW128625  11.475   7.289   3.508  1.5174  0.5162 -0.2280
 7170SOL    HW228626  11.408   7.205   3.402  0.1590  1.1453  0.1207
 7171SOL     OW28627  10.420   0.246   9.064  0.0764 -0.6856 -0.0066
 7171SOL    HW128628  10.511   0.227   9.042 -0.0277 -1.4357  0.1729
 7171SOL    HW228629  10.410   0.216   9.154 -0.0591  0.4282  0.3686
 7172SOL     OW28630   1.297   5.957   8.501  0.5716  0.0700  0.1561
 7172SOL    HW128631   1.229   5.992   8.559  0.7874  1.3018 -0.3018
 7172SOL    HW228632   1.320   6.030   8.443  2.7312 -0.0927  0.6990
 7173SOL     OW28633   6.260  12.875  11.265  0.0349  0.4305 -0.0796
 7173SOL    HW128634   6.217  12.792  11.281 -1.4401  1.0830 -0.5138
 7173SOL    HW228635   6.249  12.924  11.346  0.5018  0.3823  0.0168
 7174SOL     OW28636  10.433  10.217  10.746 -0.1092  0.4762 -1.1092
 7174SOL    HW128637  10.503  10.165  10.785 -2.1755 -0.2633  1.9432
 7174SOL    HW228638  10.469  10.306  10.742  1.2041  0.0177 -0.2855
 7175SOL     OW28639   3.272   3.662   8.321 -0.2041 -0.0555  0.3218
 7175SOL    HW128640   3.338   3.702   8.265  0.1713  0.1422  0.8995
 7175SOL    HW228641   3.315   3.583   8.355 -0.3617 -0.0754  0.4767
 7176SOL     OW28642   3.399  10.213  12.219  0.3717  0.8119 -0.6765
 7176SOL    HW128643   3.315  10.197  12.263  1.1438 -0.4464  0.4225
 7176SOL    HW228644   3.403  10.145  12.151  0.8430  0.3698 -0.2091
 7177SOL     OW28645   9.531  10.778   0.703 -0.2456  0.6014  0.0940
 7177SOL    HW128646   9.503  10.869   0.716 -0.0293  0.5248  1.2431
 7177SOL    HW228647   9.626  10.784   0.690 -0.1974  0.5258  0.4032
 7178SOL     OW28648   5.449   3.875   5.779  0.4073  0.1659 -0.3205
 7178SOL    HW128649   5.443   3.925   5.861  0.5093  1.1537 -0.9047
 7178SOL    HW228650   5.512   3.923   5.726  0.5161 -0.6012 -0.8981
 7179SOL     OW28651   5.268   6.308   7.807 -0.0754  0.0676  0.2741
 7179SOL    HW128652   5.361   6.301   7.785 -0.0996 -1.7247  0.5570
 7179SOL    HW228653   5.267   6.344   7.896  0.3401  0.3155  0.1806
 7180SOL     OW28654   5.393   7.071   1.011 -0.4064 -0.2304 -0.6761
 7180SOL    HW128655   5.423   7.139   0.950  0.2322  0.3106  0.2212
 7180SOL    HW228656   5.303   7.054   0.984 -0.2547  0.2592 -1.5468
 7181SOL     OW28657   1.001  12.367   7.917  0.5149 -0.2310 -0.7254
 7181SOL    HW128658   0.976  12.327   8.000  0.7563  0.5175 -0.2760
 7181SOL    HW228659   1.093  12.392   7.929  0.4826  0.1027 -1.1289
 7182SOL     OW28660   0.643   1.281   5.861  0.0387 -0.0625  0.4958
 7182SOL    HW128661   0.639   1.376   5.865 -0.6998  0.0261 -1.3555
 7182SOL    HW228662   0.710   1.256   5.925 -0.3863  1.6200  1.6445
 7183SOL     OW28663  10.240  11.905   1.412 -0.0284  0.8095  0.0823
 7183SOL    HW128664  10.170  11.849   1.380  0.8039 -0.7396  0.8410
 7183SOL    HW228665  10.321  11.856   1.394  0.5525  0.2614  3.4912
 7184SOL     OW28666   7.314  10.365  12.457  0.0341 -0.2748  0.2082
 7184SOL    HW128667   7.268  10.353  12.374 -0.5203 -1.0738  0.6110
 7184SOL    HW228668   7.387  10.304  12.453 -0.7507 -1.2814  0.8268
 7185SOL     OW28669   4.033  10.916   2.804 -0.0713  0.5933 -0.1589
 7185SOL    HW128670   4.024  10.821   2.793 -2.4221  0.7892 -0.4744
 7185SOL    HW228671   4.127  10.931   2.810  0.3122 -1.9312  1.4701
 7186SOL     OW28672   0.886   4.717   3.671 -0.7530  0.6133  0.1299
 7186SOL    HW128673   0.824   4.652   3.703 -0.7406  0.0667 -0.9009
 7186SOL    HW228674   0.967   4.698   3.719 -0.5609 -0.5755 -0.6003
 7187SOL     OW28675   7.330  12.881   4.009  0.3252  0.0731 -0.0293
 7187SOL    HW128676   7.342  12.849   4.098  1.3460 -1.5267 -0.6911
 7187SOL    HW228677   7.251  12.837   3.978  0.4706 -0.0631 -0.2071
 7188SOL     OW28678   2.139   8.319   2.650  0.6683  0.6773 -0.4764
 7188SOL    HW128679   2.232   8.315   2.673  0.4252 -2.4461  0.4108
 7188SOL    HW228680   2.094   8.283   2.726 -1.1162  0.4971 -1.5584
 7189SOL     OW28681   5.484   2.803  11.995  0.1868  0.6301  0.4961
 7189SOL    HW128682   5.418   2.779  11.930 -0.2874 -1.2471  1.5823
 7189SOL    HW228683   5.454   2.888  12.030  0.0014  1.2448 -1.0869
 7190SOL     OW28684   7.175  11.929   6.927  0.4161 -0.6977 -0.2978
 7190SOL    HW128685   7.157  11.929   7.021  1.3554 -0.2359 -0.1059
 7190SOL    HW228686   7.089  11.944   6.886 -0.0407 -1.1424  0.4651
 7191SOL     OW28687   8.101   0.122   9.675 -0.0731  0.2886  0.1789
 7191SOL    HW128688   8.081   0.064   9.749 -1.4961 -0.1024 -0.4612
 7191SOL    HW228689   8.017   0.163   9.653 -0.4692 -1.8086 -3.0218
 7192SOL     OW28690   1.109   9.495   1.467 -0.0278  0.0415  0.1859
 7192SOL    HW128691   1.065   9.414   1.442 -0.2371  0.4269 -0.6991
 7192SOL    HW228692   1.151   9.526   1.387 -0.0419  0.8716  0.4890
 7193SOL     OW28693  11.309  12.773  11.779 -0.7508 -0.0422 -0.3128
 7193SOL    HW128694  11.354  12.827  11.714 -0.9597  1.1718  0.5147
 7193SOL    HW228695  11.224  12.755  11.741 -0.3037 -0.6811 -1.0429
 7194SOL     OW28696   9.377   7.985   0.639 -0.3398  0.3676  0.6252
 7194SOL    HW128697   9.379   7.999   0.733 -0.3625  0.5168  0.6031
 7194SOL    HW228698   9.386   8.072   0.601 -0.1986  0.2938  0.4879
 7195SOL     OW28699   4.688   8.721  10.763  0.1837  0.5774 -0.3455
 7195SOL    HW128700   4.748   8.769  10.820  0.6015 -0.5335  0.1669
 7195SOL    HW228701   4.669   8.640  10.810 -0.4295  0.1771 -1.2408
 7196SOL     OW28702   0.990   6.333   7.335 -0.5593 -0.2457  0.4110
 7196SOL    HW128703   0.957   6.422   7.351 -0.2450 -0.3075  1.4376
 7196SOL    HW228704   0.917   6.288   7.294 -1.1295  0.1514  0.9712
 7197SOL     OW28705   4.250  10.151   9.204 -0.5937 -0.0572 -0.2074
 7197SOL    HW128706   4.188  10.193   9.144  0.5374 -0.2714 -1.5803
 7197SOL    HW228707   4.196  10.094   9.259 -1.6109 -0.2382 -1.3605
 7198SOL     OW28708  12.276   6.634   2.721 -0.0769 -0.1328 -0.1842
 7198SOL    HW128709  12.258   6.619   2.628  2.8853 -1.6621 -0.6182
 7198SOL    HW228710  12.371   6.646   2.725  0.1595 -2.0921  2.8338
 7199SOL     OW28711   7.841  10.913   6.738 -0.4508  0.4577 -0.0652
 7199SOL    HW128712   7.809  10.932   6.826  0.4402  0.6393  0.2372
 7199SOL    HW228713   7.813  10.987   6.685 -0.9577  0.3645  0.0679
 7200SOL     OW28714  12.853   0.940  12.345  0.5471  0.0106  0.8682
 7200SOL    HW128715  12.784   0.943  12.279  0.5419 -1.3170  0.7994
 7200SOL    HW228716  12.926   0.989  12.305  0.6860 -1.0999 -0.3202
 7201SOL     OW28717   5.142   3.426   8.286  0.0825  0.2803 -0.1650
 7201SOL    HW128718   5.064   3.423   8.340 -0.2795 -0.6100 -0.7102
 7201SOL    HW228719   5.133   3.352   8.225  1.1170  0.4367 -0.5470
 7202SOL     OW28720   3.174   3.676  11.583 -0.0676  0.3496  0.1348
 7202SOL    HW128721   3.220   3.758  11.597 -1.2155  1.1174 -0.4355
 7202SOL    HW228722   3.214   3.615  11.645  0.6592  1.3806  0.7086
 7203SOL     OW28723   2.711   1.286   5.555  0.2808  0.1174  0.8621
 7203SOL    HW128724   2.654   1.227   5.506 -0.4533  2.5440 -1.4854
 7203SOL    HW228725   2.739   1.236   5.631  1.7753 -4.1843 -2.1002
 7204SOL     OW28726   5.760   7.127   4.071  0.3471 -0.3083 -0.3280
 7204SOL    HW128727   5.756   7.172   3.987  0.8083  0.6969  0.1736
 7204SOL    HW228728   5.852   7.134   4.097  0.4617 -1.6639 -0.2885
 7205SOL     OW28729  12.683   5.544  11.928 -0.0311  0.5884 -0.2257
 7205SOL    HW128730  12.773   5.548  11.958 -0.0241 -0.0666 -0.1374
 7205SOL    HW228731  12.653   5.635  11.929  0.7855  0.8822 -0.7566
 7206SOL     OW28732   6.062   1.786   2.728  0.1643 -0.5391 -0.3496
 7206SOL    HW128733   6.002   1.712   2.737  1.2124 -1.3677  0.0512
 7206SOL    HW228734   6.111   1.768   2.648  0.5929 -0.4048 -0.1207
 7207SOL     OW28735  10.199   7.043  12.650  0.2571 -0.2591 -0.1500
 7207SOL    HW128736  10.112   7.082  12.654  0.1500 -0.4296 -0.6642
 7207SOL    HW228737  10.188   6.967  12.592  0.8818  0.0819 -0.7266
 7208SOL     OW28738   8.525  10.476   7.126 -0.0795  0.4165  0.2513
 7208SOL    HW128739   8.434  10.492   7.101  0.0040 -0.3929 -0.6475
 7208SOL    HW228740   8.519  10.426   7.208 -0.5428 -1.5009 -0.8849
 7209SOL     OW28741   8.574   7.646  10.773 -0.1743  0.1182  0.2856
 7209SOL    HW128742   8.538   7.644  10.684 -0.8807  1.5193  0.5127
 7209SOL    HW228743   8.656   7.596  10.767 -0.2444  0.1398 -1.1274
 7210SOL     OW28744   1.211   9.069   4.539 -0.7088  0.5581  0.1586
 7210SOL    HW128745   1.157   9.146   4.556 -0.3613  0.7836  0.2488
 7210SOL    HW228746   1.169   9.026   4.465 -1.3268  0.4325  0.5696
 7211SOL     OW28747  11.112   6.397   7.004  0.1165  0.1453  0.2108
 7211SOL    HW128748  11.101   6.460   6.934  0.8876 -0.0519 -0.1021
 7211SOL    HW228749  11.073   6.438   7.081 -0.9340  0.2695 -0.3747
 7212SOL     OW28750   3.799  12.814  11.773  0.2059  0.3640 -0.1667
 7212SOL    HW128751   3.818  12.751  11.843  0.6060  0.4384 -0.2053
 7212SOL    HW228752   3.795  12.899  11.817  2.0089  0.6326 -0.4310
 7213SOL     OW28753   1.005   9.501  12.483 -0.4113 -0.3654 -0.4261
 7213SOL    HW128754   0.930   9.494  12.542  0.0639  1.3920  0.4516
 7213SOL    HW228755   1.065   9.562  12.527  0.5460 -0.0199 -2.1183
 7214SOL     OW28756   2.350  11.116   5.274  0.1501 -0.4755  0.2891
 7214SOL    HW128757   2.311  11.066   5.346  0.1842 -1.5970 -0.4525
 7214SOL    HW228758   2.428  11.066   5.249  0.2710  0.0277 -0.3758
 7215SOL     OW28759   9.458   3.252   0.308  0.2220 -0.4503  0.4594
 7215SOL    HW128760   9.414   3.333   0.334 -0.2319 -0.9362  1.2283
 7215SOL    HW228761   9.405   3.218   0.237  1.6910  1.0913 -1.4876
 7216SOL     OW28762   7.577  11.459   7.043 -0.6276 -0.3499  0.3043
 7216SOL    HW128763   7.523  11.512   6.984 -0.1444  0.3056  0.4366
 7216SOL    HW228764   7.665  11.462   7.005  0.0154  1.2817  1.7854
 7217SOL     OW28765   9.698   2.625   3.813  0.1458 -0.1352  0.4460
 7217SOL    HW128766   9.633   2.597   3.748 -0.8155 -0.1301  1.3719
 7217SOL    HW228767   9.740   2.701   3.773  0.4601 -0.8729 -0.6899
 7218SOL     OW28768  11.139  12.166  12.535 -0.1059 -0.8999 -0.0948
 7218SOL    HW128769  11.226  12.166  12.495 -0.3512  0.0790 -0.6518
 7218SOL    HW228770  11.111  12.257  12.532 -0.4941 -0.9333  1.5659
 7219SOL     OW28771  11.902   7.987   5.249 -0.3854 -0.5773 -0.2070
 7219SOL    HW128772  11.955   7.908   5.263 -0.2965 -0.4366  0.2835
 7219SOL    HW228773  11.950   8.056   5.294 -2.4316 -0.9979  2.9302
 7220SOL     OW28774   1.452   2.695   3.421  0.4081  0.0222 -0.4649
 7220SOL    HW128775   1.530   2.643   3.401 -0.2516 -0.9284 -0.6111
 7220SOL    HW228776   1.465   2.724   3.511  0.3580 -1.1870 -0.0557
 7221SOL     OW28777  11.042   6.251   7.411  0.0131 -0.6655  0.0118
 7221SOL    HW128778  10.969   6.283   7.464  0.1012  0.5700 -0.5843
 7221SOL    HW228779  11.089   6.192   7.470  1.1557  2.0327  2.0241
 7222SOL     OW28780  11.696  10.962   9.320  0.3733 -0.0148  0.0225
 7222SOL    HW128781  11.686  11.045   9.273  0.5282  0.0081  0.0286
 7222SOL    HW228782  11.688  10.895   9.252 -3.0724 -0.1926  0.4181
 7223SOL     OW28783  10.490   9.461   3.940  0.5391  0.0722 -0.1017
 7223SOL    HW128784  10.502   9.370   3.965 -0.2588 -0.0965 -0.3117
 7223SOL    HW228785  10.480   9.508   4.023 -1.0069 -0.3247 -0.0410
 7224SOL     OW28786   8.931   1.137   1.876 -0.3708 -0.1191 -0.5184
 7224SOL    HW128787   8.963   1.219   1.913  3.6335 -2.1956  1.2562
 7224SOL    HW228788   8.984   1.123   1.797 -0.1950 -1.4859 -0.1862
 7225SOL     OW28789   7.268  11.982   4.188 -0.4016 -0.5183  0.1933
 7225SOL    HW128790   7.226  11.963   4.104  0.7173 -0.6590 -0.3539
 7225SOL    HW228791   7.219  12.057   4.223 -0.6253 -0.2030 -0.7710
 7226SOL     OW28792   5.010   4.347   3.899 -0.0379 -0.1140  0.0473
 7226SOL    HW128793   5.000   4.307   3.813  1.0059 -0.8704  0.2591
 7226SOL    HW228794   4.921   4.367   3.927 -0.2945  1.8259 -1.9595
 7227SOL     OW28795   0.910   4.030  11.301 -0.2088  0.1491 -0.6622
 7227SOL    HW128796   0.975   3.965  11.329  4.1713  4.9003  1.7342
 7227SOL    HW228797   0.938   4.056  11.213  0.4029  1.3750 -0.1119
 7228SOL     OW28798   2.749   2.278   7.100  0.5258 -0.6073  0.3832
 7228SOL    HW128799   2.702   2.332   7.163  0.7497 -0.2789  0.2696
 7228SOL    HW228800   2.790   2.209   7.152 -0.5537 -1.2428  0.4248
 7229SOL     OW28801   5.734   9.230   5.658  0.2098  0.5282  0.7475
 7229SOL    HW128802   5.713   9.191   5.743 -0.0525 -0.2285  0.3339
 7229SOL    HW228803   5.708   9.165   5.593  0.7047  0.9681  0.0890
 7230SOL     OW28804   3.858   2.589   6.008  0.1176 -0.2595  0.3532
 7230SOL    HW128805   3.775   2.604   5.964 -1.1309  1.1635  2.9472
 7230SOL    HW228806   3.878   2.673   6.051  1.8321 -1.1649  1.4556
 7231SOL     OW28807   5.097   2.097   4.255 -0.5771  0.1627 -0.2487
 7231SOL    HW128808   5.166   2.148   4.213  1.0160 -0.5592  1.3811
 7231SOL    HW228809   5.046   2.062   4.182 -0.9171  2.8908 -1.4420
 7232SOL     OW28810   1.603   6.098   2.564 -0.4527  0.0230 -0.1536
 7232SOL    HW128811   1.604   6.024   2.503  0.6549  0.4772 -0.7102
 7232SOL    HW228812   1.692   6.103   2.597 -0.2831  1.6103 -0.7671
 7233SOL     OW28813   5.935   5.327   4.159  0.2400 -0.7011  0.2436
 7233SOL    HW128814   5.997   5.318   4.087  0.4805 -2.0165  0.5915
 7233SOL    HW228815   5.982   5.381   4.223  0.1632  0.1659 -0.4170
 7234SOL     OW28816   2.301   2.055  11.557 -0.3210 -0.2804  0.1429
 7234SOL    HW128817   2.253   2.039  11.638 -0.6687 -1.2231 -0.2268
 7234SOL    HW228818   2.392   2.066  11.584 -0.2161 -1.8960  0.5752
 7235SOL     OW28819   4.179   7.755   8.994  0.3472 -0.3176  0.2056
 7235SOL    HW128820   4.147   7.802   9.071  2.3537  0.4754  0.6205
 7235SOL    HW228821   4.113   7.688   8.978  0.0362 -0.7586  2.8573
 7236SOL     OW28822   3.744   1.058   0.607 -0.4912  0.8799 -0.2036
 7236SOL    HW128823   3.790   1.000   0.669  0.4496  1.5445 -0.2572
 7236SOL    HW228824   3.659   1.017   0.595  0.2329 -0.6330 -0.4187
 7237SOL     OW28825  11.618   3.328   8.121 -0.4706  0.6597  0.4232
 7237SOL    HW128826  11.579   3.264   8.181 -0.1135 -0.2086 -0.2522
 7237SOL    HW228827  11.570   3.317   8.039 -0.3328  1.1894  0.2671
 7238SOL     OW28828   5.148   5.980   9.055 -0.1337  0.6284 -0.0178
 7238SOL    HW128829   5.174   5.909   9.115 -0.0446  1.6268  1.1640
 7238SOL    HW228830   5.171   5.947   8.968 -1.9595 -1.6537  0.2362
 7239SOL     OW28831   2.406  10.131   1.544 -0.2415 -0.7768  0.5731
 7239SOL    HW128832   2.419  10.226   1.538 -1.6616 -0.4733  1.6972
 7239SOL    HW228833   2.394  10.102   1.454 -0.3661  0.2205  0.2584
 7240SOL     OW28834  12.254  11.132   2.461  0.0641 -0.8082  0.8232
 7240SOL    HW128835  12.195  11.206   2.475 -0.0846 -0.6898 -0.3283
 7240SOL    HW228836  12.332  11.170   2.422  0.5040 -1.0979  1.4083
 7241SOL     OW28837  10.051   2.118  10.979  0.1744 -0.0087 -0.6029
 7241SOL    HW128838  10.045   2.060  11.055 -1.0827  1.7148  0.6781
 7241SOL    HW228839  10.106   2.191  11.008  1.5225 -0.3518 -2.1093
 7242SOL     OW28840   3.153   1.944  10.241  0.0298  0.1440 -0.0251
 7242SOL    HW128841   3.146   1.985  10.155  3.4636 -2.5295 -1.8627
 7242SOL    HW228842   3.225   1.990  10.284  0.7116 -0.7574 -0.1538
 7243SOL     OW28843   9.581   0.075   9.340  0.2282  0.3032 -0.1680
 7243SOL    HW128844   9.550  -0.015   9.346 -2.0619  1.0737  0.7739
 7243SOL    HW228845   9.584   0.094   9.246 -1.0728 -0.2022 -0.3284
 7244SOL     OW28846   6.232   5.074   2.100  0.3974 -0.3531 -0.0409
 7244SOL    HW128847   6.144   5.050   2.130  0.2270 -2.4217 -1.9076
 7244SOL    HW228848   6.231   5.170   2.096 -1.4110 -0.2868  0.9187
 7245SOL     OW28849  11.995   3.419  12.451 -0.2315  0.6607 -0.3429
 7245SOL    HW128850  11.964   3.330  12.433  0.2112  0.1458  1.2678
 7245SOL    HW228851  11.915   3.470  12.465 -0.5225  0.7448 -2.1196
 7246SOL     OW28852  11.248   8.527   9.040  0.1810  0.2555 -0.0290
 7246SOL    HW128853  11.192   8.452   9.062  0.3663 -0.0788 -0.6742
 7246SOL    HW228854  11.246   8.530   8.945  0.6319  0.7312 -0.0232
 7247SOL     OW28855   4.848   8.962   3.212  0.1863 -0.5028 -0.7436
 7247SOL    HW128856   4.836   9.037   3.271 -0.8404 -0.4861 -0.9592
 7247SOL    HW228857   4.843   8.885   3.269  0.2457 -0.4467 -0.6621
 7248SOL     OW28858   8.939  10.821   1.478  0.4407 -0.4044  0.1247
 7248SOL    HW128859   9.016  10.877   1.467  2.0155 -2.1985  1.3209
 7248SOL    HW228860   8.947  10.754   1.411 -0.5435 -0.1882 -0.2375
 7249SOL     OW28861  10.581   9.812   0.773 -0.4441 -0.6412 -0.0581
 7249SOL    HW128862  10.552   9.829   0.684  1.8600 -0.5477 -0.8594
 7249SOL    HW228863  10.599   9.899   0.810 -2.5355 -0.5902  0.9782
 7250SOL     OW28864   9.545   5.994   5.713  0.9158 -0.4529  0.1067
 7250SOL    HW128865   9.506   5.974   5.628  0.3457  0.6151  0.1013
 7250SOL    HW228866   9.493   5.942   5.775  1.4039 -1.3208 -0.1909
 7251SOL     OW28867  12.576  11.945  12.519  0.2757 -0.2593 -0.0561
 7251SOL    HW128868  12.526  12.004  12.463 -2.7495 -1.4461  1.1654
 7251SOL    HW228869  12.635  12.003  12.568 -0.4333  1.3576 -1.0283
 7252SOL     OW28870   5.657   6.738   7.683 -0.7969  0.1447 -0.2188
 7252SOL    HW128871   5.673   6.709   7.772  2.0111  1.4010 -0.2158
 7252SOL    HW228872   5.706   6.820   7.675 -1.4932  0.4134 -2.7297
 7253SOL     OW28873   2.646   5.028  11.614 -0.0978  0.2752  0.5715
 7253SOL    HW128874   2.656   5.063  11.703 -2.3501  0.3928  0.8330
 7253SOL    HW228875   2.562   4.982  11.616  1.4201 -2.8574 -0.5212
 7254SOL     OW28876   5.186   5.140  12.536 -0.1805  0.5942  0.1296
 7254SOL    HW128877   5.215   5.227  12.563 -1.0817  1.1680 -0.6595
 7254SOL    HW228878   5.094   5.153  12.511 -0.4490 -0.6786  0.4207
 7255SOL     OW28879   5.748  10.000   5.934 -0.0331  0.0637  0.5879
 7255SOL    HW128880   5.663  10.041   5.950 -0.2266  1.0605 -2.4292
 7255SOL    HW228881   5.729   9.930   5.872  1.1557 -0.7263  1.0898
 7256SOL     OW28882   8.468   8.683   5.629  0.2459  0.0774 -0.2369
 7256SOL    HW128883   8.488   8.629   5.553  0.4007 -0.9577  0.5141
 7256SOL    HW228884   8.553   8.715   5.658  0.2731 -0.1568 -0.0529
 7257SOL     OW28885   4.043  12.074  10.908 -0.5559 -0.4334  0.1427
 7257SOL    HW128886   4.007  12.102  10.993 -2.2529 -1.2977 -0.2382
 7257SOL    HW228887   4.135  12.100  10.911 -0.9964  1.1744  1.5253
 7258SOL     OW28888   3.996   8.082   8.768 -0.2384  0.4643 -0.0240
 7258SOL    HW128889   3.967   8.171   8.787  0.5901  0.3972  1.7457
 7258SOL    HW228890   4.076   8.093   8.717  0.6733  0.8051  1.4205
 7259SOL     OW28891   9.669   4.693  10.541  0.3093  0.0338 -0.1702
 7259SOL    HW128892   9.694   4.715  10.630  0.6970  0.5954 -0.4135
 7259SOL    HW228893   9.752   4.676  10.496  0.0706 -1.3479 -0.1541
 7260SOL     OW28894   5.484   7.248   2.244 -0.6697 -0.1703 -0.6653
 7260SOL    HW128895   5.546   7.179   2.220  1.9215  1.1499  1.6762
 7260SOL    HW228896   5.408   7.201   2.277 -0.6086 -1.8556 -2.6770
 7261SOL     OW28897   8.668   6.242   1.235  0.3568 -0.1325  0.0052
 7261SOL    HW128898   8.669   6.169   1.174 -2.4669  0.3348 -0.7391
 7261SOL    HW228899   8.673   6.320   1.181 -0.4159  0.2597  0.4714
 7262SOL     OW28900   4.867   3.351   7.235  0.0685 -0.1593 -0.0396
 7262SOL    HW128901   4.900   3.308   7.156  0.8048 -2.0725  1.2258
 7262SOL    HW228902   4.918   3.313   7.306 -0.4398  1.6375  1.3730
 7263SOL     OW28903   9.470   6.582   8.269 -0.9210 -0.2098  0.2460
 7263SOL    HW128904   9.534   6.652   8.255 -0.4234 -0.8767 -0.9272
 7263SOL    HW228905   9.433   6.600   8.356  1.8394 -0.5966  1.5990
 7264SOL     OW28906   8.834   2.146   1.722  0.6387 -0.1487  0.0909
 7264SOL    HW128907   8.844   2.112   1.811  1.8645 -0.6010 -0.1975
 7264SOL    HW228908   8.918   2.129   1.680 -0.2362 -0.8930 -1.4758
 7265SOL     OW28909   7.285   7.094   8.164 -0.7870  0.1851  0.1279
 7265SOL    HW128910   7.313   7.175   8.122  0.8556  0.8730  2.3594
 7265SOL    HW228911   7.352   7.030   8.140 -0.5553  0.2397  0.6160
 7266SOL     OW28912   7.347  11.243   4.013 -0.5087  0.8240 -0.4218
 7266SOL    HW128913   7.308  11.231   3.926 -2.0142  0.0711  0.3258
 7266SOL    HW228914   7.432  11.284   3.995 -1.7424  2.8492 -2.0955
 7267SOL     OW28915   0.758  12.667   2.606  0.7917 -0.1708 -0.1760
 7267SOL    HW128916   0.698  12.724   2.558 -0.6623 -0.5456  1.1355
 7267SOL    HW228917   0.751  12.582   2.561  0.0530 -0.3023  0.1644
 7268SOL     OW28918   7.500   0.546   3.246 -0.1214 -0.5238  0.4495
 7268SOL    HW128919   7.521   0.558   3.339  1.4373 -1.1164  0.2042
 7268SOL    HW228920   7.586   0.540   3.203 -0.8218 -0.1603 -1.0425
 7269SOL     OW28921  11.520   2.500   5.266  0.0182  0.4390  0.5274
 7269SOL    HW128922  11.467   2.573   5.237  0.0859  0.2734 -0.0314
 7269SOL    HW228923  11.599   2.540   5.303  0.3885  0.6492 -0.4373
 7270SOL     OW28924   4.983   1.657  12.534  0.1025 -0.3581 -0.2831
 7270SOL    HW128925   5.050   1.589  12.524  1.4257  1.0662 -1.9046
 7270SOL    HW228926   5.001   1.697  12.619  0.3758 -0.9105 -0.0744
 7271SOL     OW28927   9.779   0.438   3.053 -0.2433  0.6725  0.2742
 7271SOL    HW128928   9.774   0.344   3.035  0.4916  0.5448  0.7249
 7271SOL    HW228929   9.703   0.475   3.007  0.0429 -0.0023 -0.7776
 7272SOL     OW28930   2.817   8.697   6.304  0.2490  0.1348 -0.5124
 7272SOL    HW128931   2.747   8.638   6.275 -0.0029  0.4066 -0.4534
 7272SOL    HW228932   2.880   8.639   6.346 -0.3006 -0.0099  0.1219
 7273SOL     OW28933  10.278   7.895   4.053  0.3452 -0.1372 -0.3117
 7273SOL    HW128934  10.281   7.973   4.108  2.4702 -0.2220 -0.2462
 7273SOL    HW228935  10.255   7.929   3.966  0.1070  0.3912 -0.0504
 7274SOL     OW28936   5.465   7.689  11.610 -0.5784 -0.0403 -0.5286
 7274SOL    HW128937   5.559   7.675  11.612 -0.5243  0.3375  1.2987
 7274SOL    HW228938   5.452   7.776  11.648 -1.6453  0.0719 -1.1024
 7275SOL     OW28939   0.498   8.664   5.690 -0.5968 -0.1024  0.0103
 7275SOL    HW128940   0.550   8.589   5.664 -0.5457 -0.3299  0.7386
 7275SOL    HW228941   0.485   8.714   5.609  2.3377  0.9672  0.0717
 7276SOL     OW28942   4.909   9.386   0.146  0.1041 -0.3820  0.0715
 7276SOL    HW128943   4.963   9.427   0.079 -0.4668  1.0418  0.4587
 7276SOL    HW228944   4.972   9.352   0.210  0.6660 -1.9325 -1.2283
 7277SOL     OW28945   7.337  11.543  10.661  0.1361 -0.4812  0.2157
 7277SOL    HW128946   7.376  11.601  10.595 -0.9663 -1.2317 -1.1679
 7277SOL    HW228947   7.398  11.544  10.734  1.8672 -0.3008 -1.1805
 7278SOL     OW28948   3.848   3.574   3.873  0.2967 -0.5776  0.6111
 7278SOL    HW128949   3.932   3.584   3.918 -0.3061  0.3644  1.5720
 7278SOL    HW228950   3.871   3.567   3.780  1.4170 -0.0257  0.8324
 7279SOL     OW28951   7.420   6.521   8.664 -0.1102  0.1254 -0.1735
 7279SOL    HW128952   7.430   6.428   8.644  1.0746 -0.0794  1.2145
 7279SOL    HW228953   7.475   6.535   8.741  0.0890  2.0835 -0.6202
 7280SOL     OW28954   0.721   2.541   4.781  0.8196  0.0030 -0.4819
 7280SOL    HW128955   0.662   2.605   4.822  0.7218 -0.2191 -0.2743
 7280SOL    HW228956   0.662   2.474   4.747  0.9340 -0.0577 -0.5592
 7281SOL     OW28957  10.871   3.419   9.794  0.0152  0.6353  0.0560
 7281SOL    HW128958  10.784   3.437   9.828  0.1404  0.2284  0.6053
 7281SOL    HW228959  10.857   3.367   9.715 -0.1982 -0.7560  0.9881
 7282SOL     OW28960   3.925  12.033   0.021 -0.6590 -0.0733  0.2090
 7282SOL    HW128961   3.921  12.128   0.012  1.9876  0.2391  1.3794
 7282SOL    HW228962   3.956  12.001  -0.064 -1.4893  0.0917 -0.1635
 7283SOL     OW28963   3.751  11.207   5.538 -0.4138 -0.6047 -0.6350
 7283SOL    HW128964   3.660  11.185   5.560 -0.1538  0.9591  2.4451
 7283SOL    HW228965   3.784  11.129   5.493 -2.7797 -1.8568 -0.3749
 7284SOL     OW28966  11.455  10.186   9.488  0.0195  0.2312 -0.1022
 7284SOL    HW128967  11.462  10.197   9.583 -1.0731  1.3075 -0.1222
 7284SOL    HW228968  11.544  10.197   9.456  0.4853 -0.6518  0.8381
 7285SOL     OW28969  12.586   9.346   4.931  0.0186 -0.3663 -0.3982
 7285SOL    HW128970  12.517   9.280   4.926 -0.6438  0.4058 -2.2673
 7285SOL    HW228971  12.666   9.299   4.907 -0.1915 -0.8020 -0.2643
 7286SOL     OW28972   9.906   1.690   6.603 -0.5754 -0.2183 -0.0120
 7286SOL    HW128973   9.826   1.710   6.653  0.4335 -0.3245  1.7384
 7286SOL    HW228974   9.973   1.745   6.643  0.3731 -0.6040 -1.0315
 7287SOL     OW28975   5.775   1.707   2.362 -0.2587  0.4623  0.1143
 7287SOL    HW128976   5.697   1.740   2.405 -0.5724  2.1431 -1.6133
 7287SOL    HW228977   5.754   1.710   2.268  1.4980 -0.0323 -0.3338
 7288SOL     OW28978  10.502   3.929   5.545 -0.7963  0.0093  0.6961
 7288SOL    HW128979  10.595   3.922   5.565 -0.4419 -0.3237 -0.9416
 7288SOL    HW228980  10.463   3.853   5.587  0.1103 -1.3578 -0.8077
 7289SOL     OW28981   2.568  11.908   4.609  0.4511  0.3931 -0.2859
 7289SOL    HW128982   2.478  11.897   4.576  0.6284  0.5591 -0.8354
 7289SOL    HW228983   2.578  12.003   4.618  0.2298  0.3304  0.7591
 7290SOL     OW28984   2.177   1.279   5.732  0.6925  0.6685 -0.0325
 7290SOL    HW128985   2.168   1.366   5.693 -0.2907  0.7769  0.3982
 7290SOL    HW228986   2.192   1.221   5.658  0.5962  1.1082 -0.3990
 7291SOL     OW28987   2.415   0.687   1.585 -0.7423 -0.7193 -1.3943
 7291SOL    HW128988   2.324   0.711   1.600 -0.0406  1.7587 -0.4743
 7291SOL    HW228989   2.448   0.661   1.671  0.0417  1.0053 -1.1273
 7292SOL     OW28990   3.699   4.960   4.254  0.0500 -0.0459  0.1772
 7292SOL    HW128991   3.608   4.974   4.228 -0.1093  0.8266  1.1270
 7292SOL    HW228992   3.713   4.866   4.244 -0.9215 -0.1669 -0.0938
 7293SOL     OW28993   8.655   4.200   4.174 -0.0187 -0.1176 -0.1723
 7293SOL    HW128994   8.563   4.183   4.152  0.1546 -1.3136 -0.0363
 7293SOL    HW228995   8.703   4.183   4.093  0.0900  0.4224 -0.2209
 7294SOL     OW28996   0.252   9.708   1.542 -0.3060  0.6363 -0.2126
 7294SOL    HW128997   0.298   9.752   1.613  1.7240 -1.4142 -0.1516
 7294SOL    HW228998   0.287   9.748   1.463 -2.8875  3.2390 -0.2382
 7295SOL     OW28999   2.276   4.752  10.686  0.4977 -0.2017  0.0483
 7295SOL    HW129000   2.246   4.724  10.600  2.5474 -1.8950 -0.2147
 7295SOL    HW229001   2.286   4.847  10.679 -1.3428 -0.0291 -0.8652
 7296SOL     OW29002   0.641  11.909   5.315 -0.1071  0.0794  0.0861
 7296SOL    HW129003   0.601  11.902   5.402  2.4346  0.8029  1.4200
 7296SOL    HW229004   0.680  11.996   5.314 -2.9133  1.5529 -3.2023
 7297SOL     OW29005   1.373   8.757   4.913  0.1627 -0.5732 -0.5417
 7297SOL    HW129006   1.297   8.734   4.860 -1.0178 -1.0880  1.3094
 7297SOL    HW229007   1.339   8.771   5.001  1.9107  1.2849 -0.0655
 7298SOL     OW29008   9.276   4.784   3.321 -0.3194  0.2568 -0.0726
 7298SOL    HW129009   9.221   4.774   3.243  2.3411 -0.4162 -2.0086
 7298SOL    HW229010   9.279   4.696   3.360 -1.1431  0.4575  0.4780
 7299SOL     OW29011   7.189   7.254   6.095 -0.0540  0.2468 -0.4082
 7299SOL    HW129012   7.236   7.197   6.034 -0.8629  0.3105 -1.1148
 7299SOL    HW229013   7.235   7.338   6.090  1.4328 -0.4219  0.9865
 7300SOL     OW29014  11.083  11.496   6.662  0.0398 -0.0566  0.1174
 7300SOL    HW129015  11.014  11.434   6.686  0.2681 -0.6466 -0.7202
 7300SOL    HW229016  11.061  11.576   6.710 -1.5020 -0.0804 -0.4976
 7301SOL     OW29017   1.134  10.150   0.280 -0.0254  0.0032  0.5995
 7301SOL    HW129018   1.203  10.214   0.296 -0.4218  0.8348 -0.8263
 7301SOL    HW229019   1.159  10.074   0.331  2.0444  0.2284 -0.0163
 7302SOL     OW29020   6.184   6.681   6.715 -0.1562 -0.3236 -0.0427
 7302SOL    HW129021   6.185   6.681   6.810 -0.1757 -0.5312 -0.0402
 7302SOL    HW229022   6.199   6.772   6.690 -0.8860 -0.1437  0.1628
 7303SOL     OW29023   9.116   2.980   6.927  0.5031  0.1145 -0.2604
 7303SOL    HW129024   9.028   2.979   6.963  0.4752  1.3369 -0.2531
 7303SOL    HW229025   9.111   3.039   6.852  1.3884  0.4818 -0.0496
 7304SOL     OW29026  12.358   0.359   0.450  0.1171  0.3959  0.1410
 7304SOL    HW129027  12.418   0.290   0.479  1.2129  1.1462 -0.3157
 7304SOL    HW229028  12.271   0.325   0.474  0.7808 -0.1229  2.0106
 7305SOL     OW29029  12.091   4.248  12.396 -0.3501  0.2764 -0.1863
 7305SOL    HW129030  12.042   4.328  12.378 -0.2513  0.1911 -0.8748
 7305SOL    HW229031  12.182   4.272  12.384 -0.3464 -0.0563 -0.9497
 7306SOL     OW29032   2.847   4.428   0.252 -0.8774  0.0861  0.2329
 7306SOL    HW129033   2.865   4.438   0.158  1.0186  3.3418  0.7860
 7306SOL    HW229034   2.754   4.447   0.261 -0.8468  0.8810 -0.9079
 7307SOL     OW29035   4.773  12.727   4.657  0.2660  0.6827 -0.2786
 7307SOL    HW129036   4.819  12.666   4.715  0.3419 -0.0483 -1.0921
 7307SOL    HW229037   4.842  12.776   4.614  0.2575  0.3625 -0.6642
 7308SOL     OW29038   6.265   7.525   0.778  0.0349 -0.0870  0.4697
 7308SOL    HW129039   6.320   7.600   0.803  0.5616 -0.1719 -0.4009
 7308SOL    HW229040   6.207   7.513   0.853  1.6493 -0.4262  1.7270
 7309SOL     OW29041   1.425   1.108   9.821 -0.4611 -0.4650  0.1602
 7309SOL    HW129042   1.401   1.159   9.743  0.7732  0.4133  0.3253
 7309SOL    HW229043   1.517   1.127   9.834 -0.4023 -1.4131  1.2608
 7310SOL     OW29044   2.736   4.092   2.225 -0.7162 -0.0654  0.4109
 7310SOL    HW129045   2.771   4.171   2.184  1.4332 -1.8064 -1.3760
 7310SOL    HW229046   2.806   4.062   2.282 -0.3119 -2.0819 -1.0253
 7311SOL     OW29047   0.509   2.409   5.321  0.3833  0.0268  0.2991
 7311SOL    HW129048   0.508   2.478   5.387  2.0500 -1.0807  1.5897
 7311SOL    HW229049   0.533   2.454   5.240 -0.1561  1.1955  0.7668
 7312SOL     OW29050   6.208   0.331   5.794  0.2047  0.3998 -0.2398
 7312SOL    HW129051   6.262   0.401   5.829 -1.1666  1.3357  0.0975
 7312SOL    HW229052   6.192   0.274   5.869  1.0366 -0.1097 -0.4360
 7313SOL     OW29053   0.201  11.978  10.957  0.5043 -0.1761  0.1513
 7313SOL    HW129054   0.204  12.007  11.048  0.1628  0.1684  0.0538
 7313SOL    HW229055   0.113  12.001  10.927 -0.0040 -1.8746  0.2482
 7314SOL     OW29056  12.533   3.471   1.752  0.4080  0.8915  0.1285
 7314SOL    HW129057  12.515   3.444   1.842 -1.3542 -0.1574 -0.4824
 7314SOL    HW229058  12.448   3.467   1.708  1.4438 -0.0746 -1.9682
 7315SOL     OW29059   8.400   7.536   4.367  0.1525  0.8016 -0.3718
 7315SOL    HW129060   8.490   7.571   4.367  0.9411 -0.8915 -2.8737
 7315SOL    HW229061   8.386   7.504   4.456  1.2372  2.8777  0.6145
 7316SOL     OW29062   8.163   4.200   9.142  0.2020  0.4819  0.4472
 7316SOL    HW129063   8.129   4.156   9.064 -1.2254 -1.2480  1.9456
 7316SOL    HW229064   8.224   4.137   9.180  0.1587  0.9056  1.2327
 7317SOL     OW29065   6.477   5.728   6.314 -0.1975  0.6135 -0.2157
 7317SOL    HW129066   6.566   5.720   6.348 -0.1483 -0.6261 -0.6096
 7317SOL    HW229067   6.427   5.765   6.387 -0.1524 -2.1559  1.3315
 7318SOL     OW29068   1.848   5.333  11.568  0.2459  0.4959  0.2698
 7318SOL    HW129069   1.754   5.341  11.555 -0.0044 -0.9890  0.9507
 7318SOL    HW229070   1.865   5.239  11.563  1.8270  0.7919 -0.6522
 7319SOL     OW29071   4.162   5.594   9.231  0.1179 -0.2696 -0.3956
 7319SOL    HW129072   4.220   5.551   9.168 -0.8707 -1.0089 -0.8369
 7319SOL    HW229073   4.209   5.589   9.315 -0.1352 -2.6881 -0.3290
 7320SOL     OW29074   9.753   9.537   6.837 -0.0724 -0.0937 -0.0958
 7320SOL    HW129075   9.782   9.456   6.796  0.7770 -0.7865  1.7299
 7320SOL    HW229076   9.795   9.607   6.786 -0.6543 -0.7863 -1.5625
 7321SOL     OW29077   8.934  11.624   9.565  0.1282  0.1252  0.1418
 7321SOL    HW129078   8.869  11.694   9.565 -0.2052 -0.1627 -0.6399
 7321SOL    HW229079   8.885  11.547   9.536  0.4440 -0.4772  1.1685
 7322SOL     OW29080   5.070   5.443   8.527  0.0646  0.1600 -0.0479
 7322SOL    HW129081   5.066   5.348   8.512  2.2260  0.0849 -0.4614
 7322SOL    HW229082   5.087   5.480   8.441  0.0325  0.8681  0.2431
 7323SOL     OW29083   6.040   1.341   7.569  0.0500 -0.0843  0.0652
 7323SOL    HW129084   6.077   1.291   7.496  0.1939 -2.1328  1.4498
 7323SOL    HW229085   6.021   1.427   7.533 -1.8010 -1.5963 -2.9513
 7324SOL     OW29086   0.117  12.764   3.572  0.7940  0.0018 -0.2866
 7324SOL    HW129087   0.094  12.702   3.503  1.9601 -1.2163  0.3646
 7324SOL    HW229088   0.064  12.736   3.647  1.3027 -0.2000  0.0021
 7325SOL     OW29089   2.663   7.184   5.355  0.1734 -0.5982 -0.7913
 7325SOL    HW129090   2.597   7.205   5.288 -0.1930  0.3716 -0.1541
 7325SOL    HW229091   2.616   7.129   5.418  0.2579 -0.7353 -0.8477
 7326SOL     OW29092   9.303  10.009   1.414 -0.2676 -0.8050  0.0739
 7326SOL    HW129093   9.255  10.039   1.337  0.7833  0.2182 -0.2126
 7326SOL    HW229094   9.305  10.086   1.472 -0.1317 -1.2436  0.6630
 7327SOL     OW29095   2.510   3.311  11.234 -0.3759 -0.1998 -0.9422
 7327SOL    HW129096   2.554   3.246  11.180  1.8021  0.1248  0.3315
 7327SOL    HW229097   2.485   3.265  11.314 -1.3530 -0.1066 -1.1833
 7328SOL     OW29098   3.173   6.908  11.606  0.5798  0.0640 -1.0766
 7328SOL    HW129099   3.080   6.894  11.623  0.0422  3.3924 -0.5859
 7328SOL    HW229100   3.191   6.858  11.527 -1.7228 -0.3343 -1.4171
 7329SOL     OW29101   4.472   2.110   9.335 -0.5670  0.1878  0.5289
 7329SOL    HW129102   4.376   2.115   9.337 -0.5580  0.7244 -0.2957
 7329SOL    HW229103   4.501   2.200   9.349 -0.1985  0.1632 -0.0599
 7330SOL     OW29104  10.927   4.763   5.963 -0.0509  0.2783 -0.0381
 7330SOL    HW129105  10.951   4.713   5.886 -1.4938 -1.5844  0.6341
 7330SOL    HW229106  10.832   4.750   5.972  0.0596  0.4402  2.0029
 7331SOL     OW29107  12.231  12.134   0.525  0.0067  0.2628  0.4779
 7331SOL    HW129108  12.234  12.040   0.542 -0.1095  0.5269  2.2176
 7331SOL    HW229109  12.313  12.168   0.563  0.2561  0.8241 -0.5147
 7332SOL     OW29110   1.206   0.397   6.912  0.7951 -0.2672  0.1380
 7332SOL    HW129111   1.158   0.339   6.971  2.2105 -0.0400  1.5603
 7332SOL    HW229112   1.277   0.343   6.878  1.1385  0.1669  0.1585
 7333SOL     OW29113   8.134  11.928   8.798  0.3190 -0.2114  0.0430
 7333SOL    HW129114   8.057  11.938   8.741  1.0447 -0.8373 -1.0751
 7333SOL    HW229115   8.104  11.872   8.869 -0.1345 -0.8701 -0.6534
 7334SOL     OW29116   6.017   0.129   4.201 -0.6528 -0.5080  0.4017
 7334SOL    HW129117   6.006   0.071   4.126  3.1895 -0.3504 -0.5187
 7334SOL    HW229118   5.987   0.215   4.170  0.5786 -0.5173 -0.9552
 7335SOL     OW29119  11.296  10.683   8.265 -0.3277 -0.1295 -0.6542
 7335SOL    HW129120  11.368  10.745   8.278 -0.4482  0.0563 -0.8826
 7335SOL    HW229121  11.314  10.642   8.181  0.8588 -1.8825  0.3810
 7336SOL     OW29122   8.257   7.450  11.412 -0.5134 -0.2440 -0.2573
 7336SOL    HW129123   8.185   7.459  11.350 -0.8796 -1.9195 -0.1164
 7336SOL    HW229124   8.248   7.362  11.448 -0.2396  0.6026  2.1042
 7337SOL     OW29125   5.327   2.460  10.842 -0.0107  0.0978  0.6886
 7337SOL    HW129126   5.325   2.366  10.863  0.0026 -0.6086 -2.0613
 7337SOL    HW229127   5.395   2.468  10.776 -0.1218  2.0473  0.7558
 7338SOL     OW29128  10.107   2.023  11.533 -0.3274  0.2861 -0.2502
 7338SOL    HW129129  10.147   1.945  11.495 -0.0506  0.2403  0.1281
 7338SOL    HW229130  10.172   2.092  11.519 -0.2306  0.2728  0.1194
 7339SOL     OW29131   0.373   5.813  11.056 -0.6318  0.0942  0.3371
 7339SOL    HW129132   0.351   5.733  11.106 -0.4418 -0.2951 -0.1945
 7339SOL    HW229133   0.429   5.782  10.985 -0.9197  0.6441 -0.1348
 7340SOL     OW29134   1.533   6.727   1.532  0.2990 -0.0245 -0.1228
 7340SOL    HW129135   1.487   6.643   1.532 -1.5501  0.8920  1.3272
 7340SOL    HW229136   1.484   6.780   1.595  1.5442  2.0687 -0.8290
 7341SOL     OW29137   6.365   8.328   5.654 -0.3179 -0.2643  0.4665
 7341SOL    HW129138   6.306   8.253   5.647 -0.4229 -0.1028 -0.5083
 7341SOL    HW229139   6.400   8.340   5.565  3.0242 -1.8170  1.4000
 7342SOL     OW29140   3.176   2.547  11.274  0.3916 -0.8669  0.2823
 7342SOL    HW129141   3.173   2.452  11.280  0.4303 -0.8699  0.2558
 7342SOL    HW229142   3.150   2.567  11.184  1.2190 -0.8975  0.0326
 7343SOL     OW29143   4.951  12.826   6.512  0.0478  0.0732 -0.1597
 7343SOL    HW129144   4.907  12.760   6.458  1.2985  1.3983 -3.0073
 7343SOL    HW229145   4.932  12.799   6.602 -3.7182 -1.2891 -1.1431
 7344SOL     OW29146   4.606  10.683   3.561 -0.2608 -0.4361 -0.5655
 7344SOL    HW129147   4.597  10.642   3.475  2.9877 -0.6372 -0.9312
 7344SOL    HW229148   4.639  10.613   3.617 -1.8248 -0.1684  0.7514
 7345SOL     OW29149   8.559   8.157  10.583  0.0429  0.0232  0.5177
 7345SOL    HW129150   8.509   8.111  10.651 -2.3237 -1.3138 -1.9028
 7345SOL    HW229151   8.630   8.096  10.561  0.0410 -0.1263  0.9141
 7346SOL     OW29152  12.476  11.494   2.527 -0.0942  0.5449 -0.5061
 7346SOL    HW129153  12.457  11.438   2.602  0.3035 -2.5112 -2.5223
 7346SOL    HW229154  12.565  11.525   2.541  0.3069 -0.7466 -0.1328
 7347SOL     OW29155  11.690   2.515   4.497  0.7943  0.0412 -0.1303
 7347SOL    HW129156  11.784   2.504   4.486  0.8022 -0.6454  0.5458
 7347SOL    HW229157  11.661   2.556   4.415  1.9096  1.7646  0.2953
 7348SOL     OW29158   7.992   8.459   1.756  0.2457 -0.1309  0.0322
 7348SOL    HW129159   7.908   8.492   1.786 -0.6307 -1.6225 -0.6368
 7348SOL    HW229160   8.046   8.537   1.742 -1.0806  0.8601  0.3109
 7349SOL     OW29161   4.685   6.363   8.249  0.6962 -0.1870 -0.2729
 7349SOL    HW129162   4.599   6.328   8.274 -0.2859  2.3618  0.2287
 7349SOL    HW229163   4.679   6.375   8.154  0.5551 -0.1885 -0.2652
 7350SOL     OW29164  11.785  12.507   8.924 -0.6086 -0.8255 -0.1028
 7350SOL    HW129165  11.731  12.570   8.877  1.2615 -0.3293 -1.7184
 7350SOL    HW229166  11.771  12.528   9.017 -3.0251 -0.6677 -0.4288
 7351SOL     OW29167  10.961  11.682   1.424  0.4902 -0.8365  0.2972
 7351SOL    HW129168  10.904  11.753   1.393  0.7343 -0.5717  0.4473
 7351SOL    HW229169  10.901  11.616   1.459  0.2617 -0.6942  0.1769
 7352SOL     OW29170   8.336   7.834   8.016 -0.3324 -0.4856  0.2663
 7352SOL    HW129171   8.361   7.903   8.077 -0.2922  0.1953 -0.5049
 7352SOL    HW229172   8.413   7.778   8.009  0.6593  0.9676 -1.2339
 7353SOL     OW29173  12.870   3.047  11.144 -0.3800 -0.1794 -0.0832
 7353SOL    HW129174  12.784   3.045  11.186 -0.8244 -0.5471 -0.9799
 7353SOL    HW229175  12.854   3.013  11.056  0.7978 -0.8404 -0.0627
 7354SOL     OW29176   7.933   2.897   6.752 -0.8922 -0.1923  0.4110
 7354SOL    HW129177   7.938   2.802   6.762 -0.9794 -0.3453 -0.8363
 7354SOL    HW229178   7.913   2.910   6.660 -1.0560  1.0401  0.6077
 7355SOL     OW29179  10.275   2.075   5.316  0.3793  0.0975  0.0587
 7355SOL    HW129180  10.205   2.095   5.379  1.1560  1.9220  0.4095
 7355SOL    HW229181  10.228   2.045   5.238 -0.9338  2.1094 -0.0294
 7356SOL     OW29182   8.472  10.310   6.590 -0.4458  0.2650  0.1965
 7356SOL    HW129183   8.537  10.362   6.543  0.5827  0.4273  1.6979
 7356SOL    HW229184   8.484  10.221   6.557  0.9222  0.1982  0.7709
 7357SOL     OW29185  10.434   8.244   7.683  0.0499 -0.2693 -0.2102
 7357SOL    HW129186  10.411   8.236   7.591  1.5214 -0.6976 -0.5661
 7357SOL    HW229187  10.512   8.190   7.693  0.0999  0.0313  1.2220
 7358SOL     OW29188   4.593  10.451  12.185  0.2245  0.2222 -0.0111
 7358SOL    HW129189   4.603  10.411  12.271 -2.0199 -2.3870 -0.8473
 7358SOL    HW229190   4.570  10.542  12.204 -0.7412 -0.4137  2.1603
 7359SOL     OW29191   1.220   1.721   4.451 -0.5630  0.0022  0.0075
 7359SOL    HW129192   1.255   1.634   4.432 -0.4044  0.0653  0.0149
 7359SOL    HW229193   1.182   1.750   4.368 -0.2349  0.1057 -0.1074
 7360SOL     OW29194  12.223   3.722   0.510  0.4378  0.1329  0.2708
 7360SOL    HW129195  12.266   3.671   0.579  0.4213 -1.0315 -0.5412
 7360SOL    HW229196  12.130   3.723   0.536  0.0037 -2.3446 -0.8537
 7361SOL     OW29197   5.841   3.803   4.137  0.6085  0.1775 -0.1845
 7361SOL    HW129198   5.882   3.721   4.109  0.8665 -0.2167  1.2553
 7361SOL    HW229199   5.821   3.849   4.055  1.8696 -0.6209 -0.9721
 7362SOL     OW29200   8.142   4.262   1.909  0.1397 -0.6711 -0.4643
 7362SOL    HW129201   8.055   4.294   1.882 -0.6316 -2.0699  0.2101
 7362SOL    HW229202   8.160   4.306   1.992  1.0398  1.1628 -1.5662
 7363SOL     OW29203  12.656   3.062   2.136 -0.4949  0.0562 -0.3446
 7363SOL    HW129204  12.618   3.017   2.211 -0.4609 -1.6240 -1.2854
 7363SOL    HW229205  12.662   3.154   2.164 -3.1281  0.0116  0.6423
 7364SOL     OW29206   2.208   3.403  12.082 -0.5766 -0.4561  0.2633
 7364SOL    HW129207   2.226   3.489  12.121  0.6966  0.9328 -3.0075
 7364SOL    HW229208   2.122   3.413  12.041 -0.6793 -0.9456  0.3495
 7365SOL     OW29209   3.798   0.216   1.307  0.6451  0.5276 -0.3048
 7365SOL    HW129210   3.770   0.216   1.215  0.2376  3.5226 -0.2882
 7365SOL    HW229211   3.889   0.244   1.304  1.4809 -1.9217  0.1211
 7366SOL     OW29212   4.117   8.479  12.719 -0.4000 -0.3791 -0.3735
 7366SOL    HW129213   4.190   8.458  12.776 -0.2276  1.1880  0.0454
 7366SOL    HW229214   4.151   8.467  12.630  0.5478  0.7774 -0.1936
 7367SOL     OW29215   1.382   1.385   2.147 -0.1960  0.2199  0.6552
 7367SOL    HW129216   1.306   1.434   2.179  1.6120  2.2178  2.2448
 7367SOL    HW229217   1.404   1.428   2.064 -1.1401 -0.8201 -0.1716
 7368SOL     OW29218   7.483   4.640   2.339 -0.5713  0.5401  0.6698
 7368SOL    HW129219   7.564   4.691   2.349  0.4951 -0.8915 -0.2405
 7368SOL    HW229220   7.477   4.589   2.420 -0.6276  0.7338  0.7879
 7369SOL     OW29221   6.254   0.117  11.755 -0.0174  0.0117 -0.3470
 7369SOL    HW129222   6.344   0.110  11.788  0.0068 -1.6711 -0.6704
 7369SOL    HW229223   6.212   0.180  11.814  1.0749  0.0043  0.4787
 7370SOL     OW29224   9.166   4.388   6.012  0.2295 -0.1303 -0.1392
 7370SOL    HW129225   9.174   4.349   5.925  0.2761 -0.5816  0.0671
 7370SOL    HW229226   9.156   4.482   5.995  1.1048 -0.1028 -0.6036
 7371SOL     OW29227   1.585   3.473  10.645  0.0521  0.0554  0.4999
 7371SOL    HW129228   1.669   3.489  10.603  0.7913 -1.6055  1.3030
 7371SOL    HW229229   1.554   3.561  10.669 -1.0790  1.3527 -4.5545
 7372SOL     OW29230  11.502   0.260  12.457 -0.2294  0.1285  0.2705
 7372SOL    HW129231  11.550   0.267  12.539  2.0310  0.1613 -0.9787
 7372SOL    HW229232  11.504   0.167  12.435 -0.6836  0.1454  0.1384
 7373SOL     OW29233  10.034   3.631   6.616 -0.0061 -0.2530  0.1557
 7373SOL    HW129234  10.127   3.630   6.597 -0.6403 -0.4145 -3.6717
 7373SOL    HW229235  10.012   3.540   6.635  0.2675 -0.6786 -1.4269
 7374SOL     OW29236  12.951   2.309   2.111 -0.3055 -0.0973  0.2035
 7374SOL    HW129237  13.040   2.277   2.096 -0.2270  0.5286 -0.7794
 7374SOL    HW229238  12.958   2.365   2.188  0.1640 -0.0356  0.1220
 7375SOL     OW29239   0.920  11.228   9.004  0.7409  0.7674 -0.4493
 7375SOL    HW129240   0.881  11.152   9.046  0.0740  1.5057  0.3162
 7375SOL    HW229241   0.885  11.228   8.915 -0.2259  0.8457 -0.0825
 7376SOL     OW29242   9.913  12.897   3.284  0.2360 -0.2002  0.0667
 7376SOL    HW129243   9.849  12.969   3.290  0.0271 -0.4375  0.8177
 7376SOL    HW229244   9.970  12.909   3.360  0.6003 -0.4551 -0.1636
 7377SOL     OW29245   8.761   8.301   1.908 -0.2451 -0.0196 -0.6817
 7377SOL    HW129246   8.719   8.215   1.905 -0.8565  0.3036 -1.7446
 7377SOL    HW229247   8.690   8.364   1.897  0.2538  0.6165 -0.3782
 7378SOL     OW29248   2.073  12.195   3.311 -0.4794  0.0748  0.1679
 7378SOL    HW129249   2.098  12.263   3.374  0.8016  0.5984 -0.8646
 7378SOL    HW229250   2.023  12.132   3.363 -0.5188  1.1060  1.4424
 7379SOL     OW29251  10.177   6.751   6.852 -0.3067 -0.3742 -0.1197
 7379SOL    HW129252  10.110   6.796   6.903  0.6004 -0.4790  1.1981
 7379SOL    HW229253  10.217   6.689   6.914  1.7795  0.4840 -0.5483
 7380SOL     OW29254   0.830  10.729  11.437 -0.6326 -0.4935 -0.0315
 7380SOL    HW129255   0.902  10.666  11.434 -1.5326 -1.7064  2.1376
 7380SOL    HW229256   0.864  10.803  11.487 -0.5443 -0.5841  0.0408
 7381SOL     OW29257   5.701   5.162  10.462 -0.4715 -0.4362  0.1090
 7381SOL    HW129258   5.717   5.206  10.545  0.8416 -1.7538  0.6043
 7381SOL    HW229259   5.760   5.206  10.401 -0.6554 -0.1756  0.1167
 7382SOL     OW29260   3.687   2.571  12.573  0.2048 -0.0073  0.3640
 7382SOL    HW129261   3.745   2.499  12.599  0.5686  0.9252  2.2508
 7382SOL    HW229262   3.600   2.542  12.600 -0.1419 -0.9710 -1.5719
 7383SOL     OW29263  10.713  10.724   8.870  0.2887 -0.6476  0.2768
 7383SOL    HW129264  10.629  10.734   8.914 -0.3022  1.3220 -1.1977
 7383SOL    HW229265  10.759  10.806   8.887  0.6650 -0.4730 -1.4062
 7384SOL     OW29266  10.578  12.188   9.534  0.5571  0.2864 -0.4773
 7384SOL    HW129267  10.592  12.175   9.628  1.9035  1.2150 -0.5142
 7384SOL    HW229268  10.611  12.276   9.518 -1.1678  0.7828 -1.5526
 7385SOL     OW29269   0.144   9.502   1.243  0.1819  0.0593 -0.3256
 7385SOL    HW129270   0.215   9.452   1.203  0.5533  0.4402 -0.1586
 7385SOL    HW229271   0.183   9.588   1.261 -0.2129  0.1510  0.1089
 7386SOL     OW29272   6.631   4.786   7.239 -0.3268 -0.3465  0.8335
 7386SOL    HW129273   6.671   4.725   7.177  2.2724  0.1335  1.9006
 7386SOL    HW229274   6.596   4.730   7.309 -0.5857 -0.7256  0.4099
 7387SOL     OW29275   4.595   4.419   8.385 -0.3463 -0.5049  0.0643
 7387SOL    HW129276   4.618   4.413   8.478  1.5562 -0.6729 -0.3678
 7387SOL    HW229277   4.597   4.328   8.354  1.1607 -0.3055 -0.5542
 7388SOL     OW29278   5.596  11.938   8.720 -0.0142 -0.2863 -0.2310
 7388SOL    HW129279   5.501  11.936   8.707 -0.0232 -1.8483 -0.1628
 7388SOL    HW229280   5.629  11.871   8.660  0.9115 -0.6252  0.6419
 7389SOL     OW29281  12.592  10.842   4.760 -0.4068 -0.3794 -0.6697
 7389SOL    HW129282  12.659  10.835   4.693  0.7405 -1.7785  0.5614
 7389SOL    HW229283  12.638  10.878   4.836 -1.4434  0.2297 -0.3127
 7390SOL     OW29284   8.926   8.952   4.857  0.0146 -0.1209  0.1958
 7390SOL    HW129285   9.017   8.964   4.829 -0.3059 -0.1370 -0.8609
 7390SOL    HW229286   8.928   8.875   4.913  1.2658  1.8417  3.1322
 7391SOL     OW29287   1.201   2.480  11.172 -0.2842  0.4232 -0.5450
 7391SOL    HW129288   1.268   2.440  11.227  0.8005  2.7109 -0.0922
 7391SOL    HW229289   1.118   2.446  11.207  0.4940 -0.1370  0.8452
 7392SOL     OW29290   0.237   5.217   8.730  0.1425  0.0676  0.1513
 7392SOL    HW129291   0.204   5.128   8.736 -0.0052 -0.2320 -3.3185
 7392SOL    HW229292   0.166   5.271   8.767 -1.9523 -0.9595 -2.1064
 7393SOL     OW29293   2.598  11.571   8.239  0.1309 -0.2106  0.5815
 7393SOL    HW129294   2.690  11.568   8.265 -0.1938 -0.5870  1.7570
 7393SOL    HW229295   2.574  11.663   8.250  0.3911 -0.0842  0.1398
 7394SOL     OW29296  12.183   0.834   9.012  0.1044  0.9551  0.3003
 7394SOL    HW129297  12.143   0.888   8.943 -0.0103  1.6245  0.8768
 7394SOL    HW229298  12.218   0.758   8.966  1.0523  1.9370 -0.6727
 7395SOL     OW29299   9.817   5.307   0.383  0.7285 -0.6067 -0.7083
 7395SOL    HW129300   9.855   5.360   0.314  1.0302 -1.4085 -1.1701
 7395SOL    HW229301   9.849   5.219   0.366  1.6710 -0.6563  1.0503
 7396SOL     OW29302   6.398  11.233  11.151  0.2297 -0.3817 -0.1608
 7396SOL    HW129303   6.314  11.244  11.196 -0.2296  0.0999 -1.0788
 7396SOL    HW229304   6.445  11.314  11.170  0.1550 -0.3063 -0.2903
 7397SOL     OW29305   7.734   8.681   0.531 -0.2830 -0.3966  0.2999
 7397SOL    HW129306   7.777   8.688   0.446 -0.9756 -1.7739 -0.1935
 7397SOL    HW229307   7.654   8.733   0.521 -0.8439 -1.3304 -0.2393
 7398SOL     OW29308  11.793   0.974   1.434 -0.2179 -0.0758  0.0937
 7398SOL    HW129309  11.783   0.882   1.459 -0.6776  0.0043  0.2265
 7398SOL    HW229310  11.716   1.017   1.473 -1.2426 -0.0280 -1.8689
 7399SOL     OW29311   1.144  11.625   5.970  0.2220 -0.0287 -0.4014
 7399SOL    HW129312   1.129  11.531   5.959  1.9565 -0.5042  0.7169
 7399SOL    HW229313   1.161  11.635   6.064  0.1728  1.3889 -0.5241
 7400SOL     OW29314   9.327   1.120  10.702  0.2335 -0.2206  0.7384
 7400SOL    HW129315   9.309   1.183  10.633 -0.4851 -0.9904  0.1984
 7400SOL    HW229316   9.409   1.149  10.742 -0.2022  1.1682  0.6501
 7401SOL     OW29317   3.838   9.263  12.546 -0.0121 -0.4633  0.1639
 7401SOL    HW129318   3.864   9.344  12.504  2.1007 -0.5972  1.0971
 7401SOL    HW229319   3.914   9.237  12.598 -1.6862 -1.4694  2.2758
 7402SOL     OW29320   7.491  10.057  11.024 -0.2130 -0.2429  0.1421
 7402SOL    HW129321   7.455  10.145  11.030 -0.0020 -0.1105 -0.4358
 7402SOL    HW229322   7.556  10.063  10.953 -1.6697 -1.3666 -1.3408
 7403SOL     OW29323   3.852   0.094   6.826 -0.4313 -0.1355  0.6606
 7403SOL    HW129324   3.844   0.186   6.801 -1.5045 -0.5965 -0.8560
 7403SOL    HW229325   3.854   0.095   6.921  1.1276  1.5484  0.6645
 7404SOL     OW29326  10.781  12.558   1.888 -0.0639 -0.2450 -0.3177
 7404SOL    HW129327  10.801  12.584   1.978  0.6106 -0.7978 -0.2963
 7404SOL    HW229328  10.789  12.638   1.837  0.2152 -0.0564  0.0167
 7405SOL     OW29329   6.912  10.118   9.167  0.0636  0.5640 -0.2257
 7405SOL    HW129330   6.906  10.206   9.129 -2.7266  0.4185 -0.3565
 7405SOL    HW229331   6.962  10.067   9.104 -0.7619  1.3997 -1.5999
 7406SOL     OW29332  12.075   8.186   7.441  0.1672  0.2985 -0.5558
 7406SOL    HW129333  12.005   8.251   7.431  0.4224  0.7989  0.6636
 7406SOL    HW229334  12.029   8.102   7.440 -0.4379  0.6077  0.0359
 7407SOL     OW29335   9.285   7.058  12.435 -0.2393  0.4887  0.1100
 7407SOL    HW129336   9.233   6.996  12.486 -0.9302 -0.2472 -1.4548
 7407SOL    HW229337   9.256   7.144  12.466  0.4528  0.0917  2.0288
 7408SOL     OW29338   8.891   1.923  12.400  0.0713 -0.7316 -0.0605
 7408SOL    HW129339   8.802   1.917  12.435 -0.3274 -1.2026 -1.1079
 7408SOL    HW229340   8.886   1.880  12.314  0.8868  0.7834 -0.9054
 7409SOL     OW29341  11.754  12.720   1.753  0.4181  0.3903 -0.3666
 7409SOL    HW129342  11.676  12.765   1.720 -0.9500  0.0719  2.1354
 7409SOL    HW229343  11.772  12.652   1.688 -0.1295  1.7553 -2.0123
 7410SOL     OW29344   2.918   4.430  10.068  0.2691 -0.1631 -0.6746
 7410SOL    HW129345   2.862   4.359  10.099  1.2661 -0.7929 -0.2409
 7410SOL    HW229346   2.971   4.390   9.999  0.0813  0.4639 -1.1919
 7411SOL     OW29347  12.939   9.512   4.113  0.1429 -1.0847 -0.0244
 7411SOL    HW129348  12.916   9.420   4.102  0.2133 -1.2034  0.7458
 7411SOL    HW229349  13.003   9.512   4.184  0.4597 -0.4825 -0.3021
 7412SOL     OW29350   6.151   2.745   6.832  0.3910  0.2336  0.6401
 7412SOL    HW129351   6.055   2.742   6.837  0.3778  0.5422  0.5911
 7412SOL    HW229352   6.179   2.745   6.924  0.3646 -0.4406  0.6491
 7413SOL     OW29353   2.796   8.448   4.827  0.1590 -0.6925 -0.5966
 7413SOL    HW129354   2.794   8.454   4.923 -1.5332  0.7533 -0.6577
 7413SOL    HW229355   2.828   8.360   4.809  3.1316 -0.1361  1.2286
 7414SOL     OW29356  12.546   0.207   0.572 -0.0511  0.4337  0.0540
 7414SOL    HW129357  12.566   0.131   0.518  2.8837  1.3243 -0.2543
 7414SOL    HW229358  12.512   0.171   0.654 -0.4661 -1.0796 -0.7557
 7415SOL     OW29359   2.661   7.626   6.318 -0.0254 -0.0064  0.0433
 7415SOL    HW129360   2.624   7.595   6.236  0.1408  1.1633 -0.4898
 7415SOL    HW229361   2.642   7.556   6.381 -1.1343 -0.4202 -0.7273
 7416SOL     OW29362   2.486   4.735   8.475 -0.0949  0.1850  0.4080
 7416SOL    HW129363   2.525   4.782   8.401  0.2522 -0.6466  0.0567
 7416SOL    HW229364   2.436   4.664   8.435  1.5583 -1.3966  0.9922
 7417SOL     OW29365  10.034   2.391   8.505  0.6463 -0.6794 -0.3060
 7417SOL    HW129366  10.004   2.425   8.589  0.3705 -1.9717  0.1536
 7417SOL    HW229367  10.091   2.318   8.528  0.4426 -1.1522 -1.2421
 7418SOL     OW29368   6.633  12.872   4.466  0.3791  0.0970 -0.5949
 7418SOL    HW129369   6.676  12.834   4.389  0.3558 -2.6211  0.5934
 7418SOL    HW229370   6.545  12.894   4.436  0.6844  0.0598 -1.5765
 7419SOL     OW29371   0.995  11.690   0.947 -0.2949  0.4376 -0.2095
 7419SOL    HW129372   1.003  11.680   0.852 -2.1069 -0.1560 -0.3350
 7419SOL    HW229373   0.902  11.707   0.962 -0.1870 -0.2429  1.5195
 7420SOL     OW29374   9.672  12.259  12.213  0.5222 -0.2194  0.3429
 7420SOL    HW129375   9.659  12.257  12.308  0.3343  1.2530  0.3660
 7420SOL    HW229376   9.764  12.237  12.200  0.8447  0.7321  0.9564
 7421SOL     OW29377   2.816   9.537   3.596 -0.0163  0.0724 -0.6413
 7421SOL    HW129378   2.760   9.575   3.527 -0.6484 -0.2727 -0.3223
 7421SOL    HW229379   2.878   9.607   3.617  1.5330 -0.4789 -2.9920
 7422SOL     OW29380   7.629   9.686  10.501 -0.0597 -0.0085  0.4448
 7422SOL    HW129381   7.584   9.764  10.468  0.7660 -0.0256 -0.7849
 7422SOL    HW229382   7.673   9.715  10.581 -0.0849  0.6901  0.2110
 7423SOL     OW29383   9.457   4.214   7.157 -0.2198  0.5210  0.1784
 7423SOL    HW129384   9.370   4.175   7.158 -0.8434  1.8499  0.7271
 7423SOL    HW229385   9.514   4.147   7.196 -0.8060 -0.7171 -1.0275
 7424SOL     OW29386  10.538   2.064   8.779  0.2701 -0.2306 -0.0740
 7424SOL    HW129387  10.488   2.125   8.834  0.8391 -0.7295  1.0246
 7424SOL    HW229388  10.611   2.116   8.746  0.6956 -0.2604  0.7751
 7425SOL     OW29389   8.767   6.469   0.275 -0.7247 -0.0495 -0.1403
 7425SOL    HW129390   8.736   6.556   0.300 -0.6485  0.2563 -1.0542
 7425SOL    HW229391   8.860   6.481   0.256 -0.5894 -0.4508  0.2741
 7426SOL     OW29392   0.767   0.520  12.576 -0.5775  0.4384  0.4649
 7426SOL    HW129393   0.825   0.476  12.638 -2.2388 -3.2284 -0.3057
 7426SOL    HW229394   0.679   0.496  12.604 -1.6546  3.0621 -0.3477
 7427SOL     OW29395   0.388   5.713  12.354  0.2816 -0.2022 -0.2888
 7427SOL    HW129396   0.399   5.686  12.445  3.0333 -1.4926 -0.9021
 7427SOL    HW229397   0.310   5.667  12.324 -1.5816  1.4234  1.7618
 7428SOL     OW29398   5.592  11.162   2.733  0.2608  0.2480  0.4953
 7428SOL    HW129399   5.546  11.210   2.664  0.2642 -0.1165  0.2344
 7428SOL    HW229400   5.644  11.228   2.778 -0.5344  0.6726  0.8115
 7429SOL     OW29401   9.653   1.917   2.171 -0.3598 -0.0587 -0.4452
 7429SOL    HW129402   9.583   1.888   2.231 -0.0146 -0.6940 -0.3401
 7429SOL    HW229403   9.628   1.882   2.086 -0.8055  0.7731 -0.6720
 7430SOL     OW29404  10.534   8.948  11.549  0.0177  0.1381  0.6000
 7430SOL    HW129405  10.532   8.890  11.472  0.5753 -1.1150  1.5048
 7430SOL    HW229406  10.593   9.020  11.523 -0.7861  0.4041 -0.5808
 7431SOL     OW29407   3.139   8.570   1.996 -0.3823  0.3007  0.1875
 7431SOL    HW129408   3.133   8.509   2.070 -0.2708  1.6486  1.3480
 7431SOL    HW229409   3.176   8.518   1.925  0.4051 -0.7943  1.3644
 7432SOL     OW29410   7.547   0.497  12.866  0.3203  0.2485 -0.4793
 7432SOL    HW129411   7.600   0.468  12.792 -1.7100 -1.0268 -1.4940
 7432SOL    HW229412   7.513   0.417  12.904 -2.2630  1.0514 -0.9376
 7433SOL     OW29413   4.764   6.894   3.231  0.3284  0.0941  0.4816
 7433SOL    HW129414   4.675   6.887   3.196  0.9302 -2.1368 -0.8703
 7433SOL    HW229415   4.820   6.878   3.155  1.9277  1.6911  1.2502
 7434SOL     OW29416  12.805   1.948   7.619  0.4397 -0.4407  0.2790
 7434SOL    HW129417  12.833   2.025   7.570 -1.6843  0.6492  0.6631
 7434SOL    HW229418  12.841   1.961   7.707 -1.1199  0.9339  0.7646
 7435SOL     OW29419   9.032   4.247   7.943 -0.4249  0.2842  1.1371
 7435SOL    HW129420   8.966   4.313   7.921 -1.0659 -0.8533 -0.5010
 7435SOL    HW229421   9.080   4.233   7.862  1.0868  0.2098  2.0014
 7436SOL     OW29422  12.407  10.199   4.265  0.1551  0.5257  0.6855
 7436SOL    HW129423  12.450  10.177   4.348  0.0071  0.6137  0.7861
 7436SOL    HW229424  12.314  10.195   4.285  0.0346 -1.8421 -0.0684
 7437SOL     OW29425   3.217  10.541   6.770 -0.0670 -0.3759  0.6994
 7437SOL    HW129426   3.185  10.631   6.765 -1.4008 -0.7678  1.4799
 7437SOL    HW229427   3.191  10.502   6.687  0.1975 -0.1379  0.5040
 7438SOL     OW29428   7.496  10.653  12.810  0.3163  0.0181 -0.4923
 7438SOL    HW129429   7.474  10.745  12.823 -2.2018 -0.2093 -2.5031
 7438SOL    HW229430   7.419  10.605  12.841 -0.0549 -1.1523 -2.9850
 7439SOL     OW29431   9.250   9.044  10.920 -0.2029  0.2654  0.0681
 7439SOL    HW129432   9.288   9.023  10.835 -0.2385 -0.4471  0.2184
 7439SOL    HW229433   9.192   8.970  10.939 -0.7581  0.7730  0.3803
 7440SOL     OW29434   6.553   6.416   2.079  0.3221  0.5418 -0.4346
 7440SOL    HW129435   6.537   6.507   2.103  0.6312  0.4812  0.0060
 7440SOL    HW229436   6.494   6.400   2.005 -1.5594  0.3573  1.0489
 7441SOL     OW29437   0.712  11.868   6.633 -0.1473  0.7497  0.1183
 7441SOL    HW129438   0.699  11.963   6.639  1.1841  0.9587 -0.0855
 7441SOL    HW229439   0.632  11.831   6.670 -0.4792  1.9544  0.6589
 7442SOL     OW29440   3.566   3.787   4.688 -0.2723 -0.0427 -1.1279
 7442SOL    HW129441   3.626   3.773   4.762 -0.1721 -1.0690 -1.3890
 7442SOL    HW229442   3.520   3.704   4.678 -1.6269  0.6717 -1.0531
 7443SOL     OW29443   7.809   7.716   6.661  0.2888  0.1371 -0.6763
 7443SOL    HW129444   7.804   7.716   6.566  1.4621  0.8563 -0.7602
 7443SOL    HW229445   7.843   7.803   6.684  2.9026 -0.9902  0.1758
 7444SOL     OW29446   8.188   6.975   3.808  0.3113  0.1904 -0.4195
 7444SOL    HW129447   8.106   6.955   3.853 -0.0816 -0.0021 -1.2009
 7444SOL    HW229448   8.212   7.062   3.839 -0.9204  0.8447 -1.1975
 7445SOL     OW29449   8.230   4.919   1.440  0.0479  0.1467  0.0069
 7445SOL    HW129450   8.192   5.004   1.417  0.5292  0.7550  1.3413
 7445SOL    HW229451   8.159   4.856   1.424 -0.7135  0.9490  0.1372
 7446SOL     OW29452   4.912   0.365  10.266  0.1818 -0.2866 -0.8072
 7446SOL    HW129453   4.965   0.306  10.213 -0.1782  1.9113 -3.8880
 7446SOL    HW229454   4.823   0.333  10.257  0.2524 -0.5674 -0.5372
 7447SOL     OW29455   9.664   8.693  11.455  0.2756  0.4402 -0.6949
 7447SOL    HW129456   9.615   8.764  11.496  0.3611  0.8955 -1.3667
 7447SOL    HW229457   9.745   8.734  11.426 -0.0364  0.2613 -1.8432
 7448SOL     OW29458   4.480   0.433   8.092 -0.1141  0.3841  0.3182
 7448SOL    HW129459   4.401   0.410   8.140  1.0106 -0.0552  2.0662
 7448SOL    HW229460   4.461   0.518   8.052 -2.3395 -0.8637 -1.4905
 7449SOL     OW29461  12.962   1.247   7.437  0.2341  0.1000  0.2875
 7449SOL    HW129462  12.977   1.261   7.344 -0.8823  0.1774  0.1060
 7449SOL    HW229463  12.966   1.335   7.475 -3.3514  0.6862 -0.3387
 7450SOL     OW29464   8.240   7.967  12.752 -0.3086 -0.6352 -0.7177
 7450SOL    HW129465   8.180   8.031  12.791  1.4403 -0.0671  1.2020
 7450SOL    HW229466   8.183   7.910  12.700 -2.1648  1.3664 -1.0441
 7451SOL     OW29467  10.791   5.934   1.629 -0.1308  0.1960 -0.5729
 7451SOL    HW129468  10.861   5.993   1.655  2.0103 -2.5829  0.4737
 7451SOL    HW229469  10.744   5.915   1.710 -0.6349  0.2324 -0.8492
 7452SOL     OW29470   3.821   8.075   0.805  0.0413 -0.2979 -0.0523
 7452SOL    HW129471   3.748   8.078   0.867  0.6637  0.5467  0.6599
 7452SOL    HW229472   3.897   8.103   0.856  0.7490 -0.5325 -0.9515
 7453SOL     OW29473   9.116   7.823  10.224  0.2111  0.1496 -0.0983
 7453SOL    HW129474   9.183   7.879  10.185 -0.0802  0.0233 -0.7916
 7453SOL    HW229475   9.037   7.876  10.224  0.1989  0.1320  0.2783
 7454SOL     OW29476   9.010   7.478   8.116  0.0228 -0.3501  0.4633
 7454SOL    HW129477   9.022   7.386   8.091  0.1198 -0.6041  1.4186
 7454SOL    HW229478   9.088   7.522   8.084  0.3948 -0.7696  0.7769
 7455SOL     OW29479   5.505   2.502  11.803 -0.2275 -0.5557  0.1815
 7455SOL    HW129480   5.538   2.496  11.893  2.3464 -2.7067 -0.7867
 7455SOL    HW229481   5.436   2.436  11.799  0.1142 -0.9412  0.4352
 7456SOL     OW29482   6.752   2.003   3.885  0.1079 -0.5183 -0.2193
 7456SOL    HW129483   6.687   2.007   3.955  1.5997  0.6870  1.1916
 7456SOL    HW229484   6.712   2.051   3.812 -0.2215  1.0911  0.9641
 7457SOL     OW29485   0.679   6.589   5.473 -0.1564  0.2040  0.2228
 7457SOL    HW129486   0.624   6.540   5.535 -0.3983 -0.6341 -0.6336
 7457SOL    HW229487   0.687   6.676   5.512  1.3791 -0.8370  2.5059
 7458SOL     OW29488   7.180  10.659   7.455 -0.4074 -0.0861  0.1376
 7458SOL    HW129489   7.120  10.663   7.530 -1.1574 -1.1278 -0.3807
 7458SOL    HW229490   7.132  10.610   7.388 -0.0088  1.3733 -1.2797
 7459SOL     OW29491   2.298   8.311   8.746 -0.3874  0.1489  0.2755
 7459SOL    HW129492   2.304   8.284   8.654 -2.2242 -0.2731  0.2487
 7459SOL    HW229493   2.332   8.400   8.747 -1.3891  0.5829 -1.0389
 7460SOL     OW29494   1.215   6.738   7.413 -0.3241 -0.1351 -0.2856
 7460SOL    HW129495   1.193   6.798   7.484 -0.9066 -1.2455  0.5048
 7460SOL    HW229496   1.308   6.753   7.396 -0.5235  1.1616 -0.2974
 7461SOL     OW29497   9.338   3.039   5.525  0.6150 -0.1527  0.6480
 7461SOL    HW129498   9.304   3.112   5.474  0.5550  0.3515  1.3929
 7461SOL    HW229499   9.273   2.970   5.515  0.8949 -0.2762 -0.4318
 7462SOL     OW29500  12.455   0.017   6.234 -0.0220  0.2119 -0.2658
 7462SOL    HW129501  12.435   0.086   6.171 -1.4848  0.8286  0.8046
 7462SOL    HW229502  12.501   0.061   6.306  0.3831 -0.2136 -0.2560
 7463SOL     OW29503   0.109   2.579  12.267 -0.5176 -0.1386 -0.0921
 7463SOL    HW129504   0.063   2.555  12.348  0.9047 -3.4926 -0.1041
 7463SOL    HW229505   0.042   2.575  12.199 -1.5181  1.7406  0.6987
 7464SOL     OW29506   4.363   2.730   8.199 -0.3398  0.0718 -0.1558
 7464SOL    HW129507   4.283   2.780   8.186 -0.2073 -0.0251 -1.5523
 7464SOL    HW229508   4.433   2.795   8.188 -0.1762 -0.3271 -1.6666
 7465SOL     OW29509   0.901   1.786   6.838 -0.1648 -0.5218 -0.2646
 7465SOL    HW129510   0.986   1.778   6.795 -1.3554  0.6041 -3.0656
 7465SOL    HW229511   0.857   1.857   6.791 -1.9980  0.1711  2.2890
 7466SOL     OW29512   7.954   4.646  12.956  0.1757 -0.9753 -0.6003
 7466SOL    HW129513   7.876   4.700  12.967  1.7970  1.0986  1.5289
 7466SOL    HW229514   7.993   4.676  12.874  0.3156  0.1250 -0.1399
 7467SOL     OW29515   8.472   5.708   9.018 -0.1768  0.0850 -0.3608
 7467SOL    HW129516   8.516   5.780   9.063 -0.5669  0.4531 -0.5629
 7467SOL    HW229517   8.447   5.745   8.933 -0.2171 -0.3433 -0.5349
 7468SOL     OW29518   2.520  12.022   3.394  0.0368 -0.5586  0.2724
 7468SOL    HW129519   2.462  12.039   3.468  0.1474 -0.3993  0.3230
 7468SOL    HW229520   2.472  12.057   3.318  0.4346  0.3604  0.4298
 7469SOL     OW29521  11.477   9.239   3.857  0.0654  0.2830 -0.5539
 7469SOL    HW129522  11.446   9.150   3.839 -0.7300  0.4295  0.0131
 7469SOL    HW229523  11.518   9.233   3.943 -1.6476  0.8101  0.3565
 7470SOL     OW29524   2.605   3.744  12.527 -0.4915  0.2873  0.4125
 7470SOL    HW129525   2.562   3.682  12.468 -0.2064  0.3814  0.0985
 7470SOL    HW229526   2.560   3.734  12.610  0.5729 -1.4931  0.8221
 7471SOL     OW29527   5.865   0.157   9.897 -0.5281 -0.4137 -0.2234
 7471SOL    HW129528   5.913   0.129   9.975 -1.0588 -1.2395 -0.1770
 7471SOL    HW229529   5.774   0.158   9.925 -0.4425  4.4233  0.7044
 7472SOL     OW29530  11.631   8.817   4.192 -0.3081  0.9925 -0.4300
 7472SOL    HW129531  11.664   8.813   4.102  0.6923  0.4745 -0.0576
 7472SOL    HW229532  11.619   8.725   4.217 -3.2722  1.1292 -0.9411
 7473SOL     OW29533   3.782   7.311   8.967 -0.3163  0.6949  0.1187
 7473SOL    HW129534   3.816   7.350   9.047 -0.5930 -0.4656  0.8273
 7473SOL    HW229535   3.719   7.375   8.934  1.3451  2.1649 -0.3674
 7474SOL     OW29536   6.188   4.213   3.094 -0.0713  0.4713 -0.0165
 7474SOL    HW129537   6.180   4.173   3.007 -2.4676  3.1907 -1.2202
 7474SOL    HW229538   6.218   4.302   3.076 -1.4319  1.3568  1.8489
 7475SOL     OW29539   8.518   7.417   2.937  0.1605 -0.0765  0.8252
 7475SOL    HW129540   8.496   7.494   2.884  0.8718 -0.6386 -0.3121
 7475SOL    HW229541   8.501   7.343   2.879 -0.5692 -0.7960  1.9286
 7476SOL     OW29542   3.270   2.253   2.042  0.4617  0.1329  0.4458
 7476SOL    HW129543   3.283   2.295   2.127 -1.4124 -1.2061  1.4787
 7476SOL    HW229544   3.179   2.273   2.020 -0.1279 -2.2826  0.4131
 7477SOL     OW29545  11.111  10.220   6.242  0.3665 -0.8613  0.1990
 7477SOL    HW129546  11.161  10.258   6.170 -1.1125 -1.0399 -0.9664
 7477SOL    HW229547  11.095  10.129   6.215 -2.5536 -0.2028 -0.6320
 7478SOL     OW29548   1.905   1.096   5.790 -0.2421  0.1507  0.4988
 7478SOL    HW129549   1.839   1.030   5.770 -0.8665  1.2551 -1.2834
 7478SOL    HW229550   1.880   1.172   5.738  0.1973  2.0048  2.8290
 7479SOL     OW29551   4.449  10.542   3.215  0.1775  0.0949 -0.0542
 7479SOL    HW129552   4.509  10.591   3.272 -1.7869  1.2173  1.1404
 7479SOL    HW229553   4.421  10.467   3.269 -1.3442  0.9150  0.3429
 7480SOL     OW29554   7.432   7.816   4.448 -0.4567 -0.5620  0.4668
 7480SOL    HW129555   7.508   7.786   4.499  0.8551  0.1931 -0.9543
 7480SOL    HW229556   7.420   7.907   4.473 -0.5216 -0.5156  0.2730
 7481SOL     OW29557  11.881   2.715  12.678 -0.0219  0.5199 -0.0246
 7481SOL    HW129558  11.952   2.780  12.678 -0.5670  1.1509  1.1380
 7481SOL    HW229559  11.905   2.654  12.748  0.8585 -1.0008 -1.5850
 7482SOL     OW29560   5.356   1.565   2.156 -0.2445  0.1073 -0.3133
 7482SOL    HW129561   5.260   1.574   2.160 -0.2752 -0.2351 -0.2172
 7482SOL    HW229562   5.370   1.488   2.101  0.0056  0.7979 -1.2549
 7483SOL     OW29563  11.315   0.090   7.992  0.1000  0.4585  0.1747
 7483SOL    HW129564  11.359   0.145   7.928  0.8941  0.8467  1.0250
 7483SOL    HW229565  11.258   0.033   7.940 -0.5795  1.9112 -0.7377
 7484SOL     OW29566   2.306  12.103   2.355 -0.8175  0.0967 -0.2164
 7484SOL    HW129567   2.259  12.022   2.373 -0.2562 -0.3913 -0.8845
 7484SOL    HW229568   2.328  12.098   2.262  0.1005  0.5447 -0.0359
 7485SOL     OW29569   5.900  10.771  10.009 -0.4387  0.0591  0.0160
 7485SOL    HW129570   5.904  10.731  10.096  0.1068  2.0795  0.9829
 7485SOL    HW229571   5.912  10.865  10.025 -2.4440  0.7552 -2.0450
 7486SOL     OW29572   1.087   3.936   5.353 -0.0135 -0.0666 -0.1820
 7486SOL    HW129573   1.021   3.873   5.382  1.2646 -1.2505  0.2710
 7486SOL    HW229574   1.036   4.009   5.319 -1.5593 -0.9726  0.0529
 7487SOL     OW29575   9.059   4.078   8.845 -0.6298  0.0796 -0.0216
 7487SOL    HW129576   9.051   4.068   8.750 -0.2229 -1.1624  0.0555
 7487SOL    HW229577   9.103   4.162   8.856 -1.9162  0.9012 -0.8663
 7488SOL     OW29578   5.871   2.880  11.090  0.2952 -0.4096 -0.1746
 7488SOL    HW129579   5.858   2.975  11.088  1.9911 -0.1002  1.0043
 7488SOL    HW229580   5.822   2.851  11.167  1.4025 -0.1437  0.6700
 7489SOL     OW29581   8.026   5.659  11.018  0.0420 -0.4617 -0.3955
 7489SOL    HW129582   8.004   5.616  10.936 -0.6810 -0.0594 -0.4232
 7489SOL    HW229583   7.964   5.623  11.082 -1.2290  1.1769 -0.6197
 7490SOL     OW29584   9.135   6.699   2.083 -0.3028  0.2210  0.0646
 7490SOL    HW129585   9.199   6.644   2.128 -0.6157 -0.9862 -0.9209
 7490SOL    HW229586   9.106   6.646   2.009 -2.4082  0.7612  0.4539
 7491SOL     OW29587   6.363   3.191   8.588  0.0224  0.1742 -0.8635
 7491SOL    HW129588   6.381   3.226   8.501 -1.5938 -0.0131 -1.3060
 7491SOL    HW229589   6.306   3.256   8.629 -0.0577 -0.2264 -0.3292
 7492SOL     OW29590   8.713   0.804   4.412 -0.1919  0.1671 -0.1682
 7492SOL    HW129591   8.708   0.834   4.321 -1.9088 -0.8172 -0.4502
 7492SOL    HW229592   8.768   0.726   4.408  0.8348  0.8594 -0.1077
 7493SOL     OW29593   5.861   4.697   3.909 -0.2967 -0.0115 -0.2162
 7493SOL    HW129594   5.812   4.753   3.969  0.0730  0.4077 -0.3035
 7493SOL    HW229595   5.878   4.617   3.959  3.3082  1.7039  1.6912
 7494SOL     OW29596   7.140   8.331  11.886 -0.2298 -0.3151  0.2991
 7494SOL    HW129597   7.152   8.387  11.809 -0.2996  0.4376  0.8260
 7494SOL    HW229598   7.210   8.266  11.880  1.8324  1.6990  1.3222
 7495SOL     OW29599  12.170  11.887  12.307 -0.1158  0.1921 -0.4718
 7495SOL    HW129600  12.203  11.945  12.238  0.6880 -1.5266 -1.6027
 7495SOL    HW229601  12.235  11.818  12.313 -1.5878 -1.2145  0.0154
 7496SOL     OW29602   4.331  12.650  12.716 -0.7167 -0.2407 -0.8086
 7496SOL    HW129603   4.318  12.654  12.811 -0.0471 -0.2217 -0.7158
 7496SOL    HW229604   4.246  12.674  12.679 -0.7326  0.6266 -0.2183
 7497SOL     OW29605  10.031   1.279  11.963 -0.2748  0.0758  0.0657
 7497SOL    HW129606  10.111   1.231  11.986 -0.2400  0.7813  1.5147
 7497SOL    HW229607  10.041   1.364  12.005 -1.2302  0.6485 -0.8147
 7498SOL     OW29608   8.602   7.942   0.723 -0.2661  0.1492 -0.2904
 7498SOL    HW129609   8.616   8.029   0.760 -1.3539 -0.7980  2.6163
 7498SOL    HW229610   8.509   7.925   0.734  0.4044 -2.6729  2.6404
 7499SOL     OW29611   0.596  10.163   0.285 -0.0911 -0.7648 -0.5176
 7499SOL    HW129612   0.510  10.121   0.286  0.9154 -2.9975 -0.7387
 7499SOL    HW229613   0.643  10.119   0.214  2.0272 -1.3479  1.1600
 7500SOL     OW29614   9.787  10.985   8.889  0.0018  0.0604  0.3544
 7500SOL    HW129615   9.845  11.056   8.916  1.9804 -1.2572 -0.2182
 7500SOL    HW229616   9.772  10.999   8.795 -0.7186  0.4496  0.5192
 7501SOL     OW29617   7.059  11.338   9.478 -0.6296 -0.3081  0.1155
 7501SOL    HW129618   7.045  11.432   9.464 -0.8951 -0.0097  2.0783
 7501SOL    HW229619   7.035  11.324   9.569 -0.2374 -2.2350 -0.0430
 7502SOL     OW29620   5.369   5.544  10.538 -0.3250  0.1499  0.0227
 7502SOL    HW129621   5.379   5.617  10.598 -1.0286  0.7411 -0.5644
 7502SOL    HW229622   5.353   5.468  10.595  1.9753  0.1203  0.7153
 7503SOL     OW29623   3.042   8.001   9.502 -0.7028 -0.2720 -0.3899
 7503SOL    HW129624   3.025   7.914   9.464 -0.8860 -0.9863  1.2594
 7503SOL    HW229625   3.135   8.016   9.485 -0.1007 -1.8197  1.2459
 7504SOL     OW29626   4.809   0.371   3.683  0.3853 -0.3627 -0.3585
 7504SOL    HW129627   4.743   0.328   3.630  1.0977 -3.1151  0.8277
 7504SOL    HW229628   4.881   0.390   3.622  0.6338 -2.2053 -0.6733
 7505SOL     OW29629   1.376   5.434   4.491  0.2885 -0.1742  0.3403
 7505SOL    HW129630   1.422   5.429   4.407  0.0800 -0.2607  0.2320
 7505SOL    HW229631   1.304   5.494   4.476  0.3123 -0.1071  0.4883
 7506SOL     OW29632   7.103   2.841   7.726 -0.1413  0.1580 -0.6597
 7506SOL    HW129633   7.083   2.749   7.746 -0.9346  0.4648 -0.0168
 7506SOL    HW229634   7.199   2.843   7.719 -0.0983 -0.6771 -0.4785
 7507SOL     OW29635  10.660   9.303   8.732  0.1555 -0.2165 -0.0548
 7507SOL    HW129636  10.697   9.302   8.644 -1.3472  0.1072 -0.7270
 7507SOL    HW229637  10.586   9.364   8.727  0.4940  0.4050  1.6381
 7508SOL     OW29638   3.365   7.908   2.705  0.3364 -0.1300  0.2184
 7508SOL    HW129639   3.326   7.888   2.790 -1.4641 -0.9101 -0.7379
 7508SOL    HW229640   3.364   7.825   2.658  1.0269  0.3506 -0.6844
 7509SOL     OW29641  12.734   4.129   1.792 -0.0752 -0.2557 -0.2694
 7509SOL    HW129642  12.800   4.198   1.781 -1.0578  0.7099 -0.2369
 7509SOL    HW229643  12.735   4.081   1.709  0.9428 -0.5148 -0.1236
 7510SOL     OW29644   1.729  12.663   2.641 -0.5032 -0.4247  0.4199
 7510SOL    HW129645   1.740  12.635   2.550 -1.1821  0.0913  0.1709
 7510SOL    HW229646   1.818  12.684   2.671 -0.2654 -0.6883 -0.0866
 7511SOL     OW29647   4.971   2.577   0.225 -0.0062  0.4554 -0.1313
 7511SOL    HW129648   4.944   2.625   0.146  2.6105  2.7044  0.1679
 7511SOL    HW229649   5.066   2.565   0.213 -0.1238 -2.4005  1.0901
 7512SOL     OW29650  12.484   3.787   0.727  0.1814  0.0460  0.1802
 7512SOL    HW129651  12.450   3.698   0.738 -1.4611  0.1534 -2.9411
 7512SOL    HW229652  12.438   3.838   0.794 -1.4325 -0.9129 -0.1277
 7513SOL     OW29653   4.587   7.857   2.898 -0.3066 -0.1797  0.3118
 7513SOL    HW129654   4.633   7.799   2.959  2.1569 -0.8635 -2.0582
 7513SOL    HW229655   4.600   7.945   2.934  2.2221 -0.4420  0.1725
 7514SOL     OW29656  10.602   3.787   6.745  0.5408  0.0296 -0.0772
 7514SOL    HW129657  10.528   3.774   6.804 -1.6047 -0.0634 -2.5988
 7514SOL    HW229658  10.611   3.703   6.699  1.5954  0.3449 -0.4736
 7515SOL     OW29659   6.435   9.121  10.316  0.3722 -0.5870 -0.2759
 7515SOL    HW129660   6.368   9.189  10.310 -0.2744 -1.0410  1.3327
 7515SOL    HW229661   6.388   9.039  10.303  1.2083 -0.7984 -2.6140
 7516SOL     OW29662  11.854  11.069  12.237 -0.4495  0.2074 -0.4699
 7516SOL    HW129663  11.795  11.012  12.287 -0.4629  1.6812  1.3108
 7516SOL    HW229664  11.795  11.134  12.198 -0.1990  0.6085 -0.1890
 7517SOL     OW29665   5.448   1.961   0.761  0.3145 -0.0501  0.7016
 7517SOL    HW129666   5.498   1.980   0.840  0.5961  0.9802  0.3028
 7517SOL    HW229667   5.492   2.011   0.692  0.4317 -1.3978 -0.2312
 7518SOL     OW29668   1.583   6.549   2.749  0.1164  0.6713  0.0844
 7518SOL    HW129669   1.523   6.604   2.698  0.2164  0.6126 -0.0960
 7518SOL    HW229670   1.670   6.567   2.712 -0.1861 -2.1389 -2.2798
 7519SOL     OW29671   8.005  12.866   2.444 -0.0353  0.7478 -0.4279
 7519SOL    HW129672   8.086  12.825   2.473  0.6441  1.0518 -1.8007
 7519SOL    HW229673   7.952  12.874   2.523  1.7540  1.6833  0.7392
 7520SOL     OW29674  11.610   9.080   5.787  0.7955  0.6053 -0.0545
 7520SOL    HW129675  11.684   9.040   5.832  1.0936 -0.6594 -1.5668
 7520SOL    HW229676  11.607   9.170   5.819  3.0184  0.7010  0.0075
 7521SOL     OW29677   0.599   2.804  12.659  0.5123 -0.2025  0.0417
 7521SOL    HW129678   0.553   2.720  12.654  2.7339 -1.4577 -1.0708
 7521SOL    HW229679   0.598   2.827  12.752 -3.0074  0.3461  0.0286
 7522SOL     OW29680  12.295   6.597  10.173  0.3965  0.1506  0.3713
 7522SOL    HW129681  12.297   6.525  10.236 -1.5467 -0.4591 -0.2148
 7522SOL    HW229682  12.274   6.556  10.089  0.0874  1.2873 -0.1332
 7523SOL     OW29683   4.335  12.268   7.194 -0.1368  0.3405  0.6295
 7523SOL    HW129684   4.374  12.326   7.260 -0.2181 -1.6931  2.5694
 7523SOL    HW229685   4.368  12.301   7.111  2.4950  1.1557  1.8787
 7524SOL     OW29686   7.029  10.794   7.652 -0.3570  0.0666  0.3390
 7524SOL    HW129687   6.993  10.713   7.688 -0.4762  0.0615  0.2056
 7524SOL    HW229688   7.100  10.816   7.712 -1.2569  0.6477  1.2304
 7525SOL     OW29689   9.354   5.528   0.924  0.2702  0.0728  0.1783
 7525SOL    HW129690   9.429   5.572   0.962  0.0973  0.0727  0.5190
 7525SOL    HW229691   9.362   5.544   0.830  0.9759 -0.3541  0.1558
 7526SOL     OW29692   2.836   8.144   1.027  0.1172  0.2324 -0.8373
 7526SOL    HW129693   2.930   8.158   1.016  0.1309 -0.2122 -1.3542
 7526SOL    HW229694   2.802   8.229   1.055  0.3889  0.9388 -2.5109
 7527SOL     OW29695  12.467   0.562   8.587  0.1716 -0.0941 -0.0453
 7527SOL    HW129696  12.536   0.598   8.643  0.9894 -1.4636 -0.1162
 7527SOL    HW229697  12.450   0.631   8.523 -1.6214  1.9988  2.4938
 7528SOL     OW29698   3.121   9.029   3.266  0.2153 -0.4085 -0.1720
 7528SOL    HW129699   3.142   8.980   3.345 -0.4697  2.0190  1.6694
 7528SOL    HW229700   3.196   9.087   3.253 -0.2272  0.0952 -0.5385
 7529SOL     OW29701   6.126   7.300   6.737 -0.3011  0.2427  0.3820
 7529SOL    HW129702   6.147   7.381   6.690 -0.3681  0.4256  0.6675
 7529SOL    HW229703   6.090   7.329   6.821  0.7556 -0.0654  0.9756
 7530SOL     OW29704   8.569   6.369   4.545 -0.2091  0.5913  0.4558
 7530SOL    HW129705   8.487   6.395   4.588  1.5780 -0.8012  5.4199
 7530SOL    HW229706   8.630   6.440   4.563  0.3225  0.5993 -1.1994
 7531SOL     OW29707   7.328   7.060   5.948  0.0326 -0.4910  0.3765
 7531SOL    HW129708   7.334   7.087   5.856  2.2823 -3.2955 -0.4496
 7531SOL    HW229709   7.244   7.014   5.953  0.5267 -1.5676 -0.7065
 7532SOL     OW29710   0.694   5.328   0.541 -0.1248  0.4474  0.0633
 7532SOL    HW129711   0.774   5.318   0.489  0.0280 -1.6661  0.5933
 7532SOL    HW229712   0.623   5.323   0.477  0.0891 -1.4444 -0.0991
 7533SOL     OW29713   5.691   2.044   5.636 -0.1899 -0.8197  0.6801
 7533SOL    HW129714   5.712   1.962   5.592  0.3079 -0.1032 -0.4629
 7533SOL    HW229715   5.604   2.067   5.604  1.4007  1.3839 -2.7483
 7534SOL     OW29716   7.139   9.045   5.084  0.3042 -0.1355  0.1765
 7534SOL    HW129717   7.094   9.015   5.005  0.7678  1.8831 -0.9274
 7534SOL    HW229718   7.200   8.975   5.106 -0.6888 -1.2510 -0.5333
 7535SOL     OW29719   5.709   2.577   6.909  0.0096 -0.2607  0.1874
 7535SOL    HW129720   5.773   2.570   6.980 -0.0877 -1.5332  0.1711
 7535SOL    HW229721   5.691   2.671   6.902  2.2119  0.1904 -0.1134
 7536SOL     OW29722   8.784   7.428   4.016  0.1267 -0.6983 -0.6090
 7536SOL    HW129723   8.831   7.464   3.941  1.2915 -2.4733 -0.7983
 7536SOL    HW229724   8.696   7.465   4.010  0.5735  0.2113 -2.0869
 7537SOL     OW29725   4.878   2.085   4.462 -0.2169  0.3856  0.0256
 7537SOL    HW129726   4.936   2.130   4.400 -0.8598  1.2923  0.0546
 7537SOL    HW229727   4.857   2.152   4.527 -0.5402 -0.2064  0.5364
 7538SOL     OW29728  11.936   8.281  12.768  0.6559 -0.2396 -0.1594
 7538SOL    HW129729  12.014   8.296  12.821  0.9752 -3.8891  0.6575
 7538SOL    HW229730  11.958   8.206  12.714 -2.0444 -0.9704 -0.3950
 7539SOL     OW29731  10.763   7.829   8.159  0.1247 -0.5408  0.4058
 7539SOL    HW129732  10.739   7.748   8.205  0.5112 -0.9332 -0.0699
 7539SOL    HW229733  10.775   7.802   8.068 -1.0582  0.3120 -0.0214
 7540SOL     OW29734   0.923   6.976  11.033 -0.6548 -0.2615 -0.3769
 7540SOL    HW129735   0.994   7.021  10.987 -1.7217 -0.2421 -2.1115
 7540SOL    HW229736   0.960   6.891  11.057  0.1029 -0.0716 -0.8424
 7541SOL     OW29737  12.434   8.848   8.751  0.1689  0.1443 -0.0779
 7541SOL    HW129738  12.338   8.852   8.746  0.1887  4.5415 -3.3799
 7541SOL    HW229739  12.456   8.897   8.830 -0.2639 -0.8664  0.6848
 7542SOL     OW29740   3.849  12.185  12.155  0.2905 -0.0381 -0.1140
 7542SOL    HW129741   3.928  12.210  12.203  0.0066 -0.8531  0.8137
 7542SOL    HW229742   3.816  12.267  12.118  2.1163  0.1775 -1.3951
 7543SOL     OW29743   8.885  11.562   0.589  0.3838 -0.3053 -0.1740
 7543SOL    HW129744   8.970  11.593   0.621  0.4389 -0.4855 -0.1452
 7543SOL    HW229745   8.822  11.623   0.626  0.5797  0.3877 -0.9493
 7544SOL     OW29746   6.660   2.577   7.432 -0.1761  0.2720 -0.3368
 7544SOL    HW129747   6.708   2.503   7.394 -0.5926 -0.6592  0.8737
 7544SOL    HW229748   6.724   2.622   7.487 -0.4085 -0.4329  0.5515
 7545SOL     OW29749   8.139   5.646  11.768  0.1031 -0.0834  0.6210
 7545SOL    HW129750   8.143   5.554  11.740  0.2259 -0.2042  1.0278
 7545SOL    HW229751   8.051   5.656  11.805 -0.1022  0.1081  0.0861
 7546SOL     OW29752   9.787  10.727   2.472 -0.1247  0.1940 -0.0295
 7546SOL    HW129753   9.783  10.705   2.379  1.6650 -0.7645  0.0710
 7546SOL    HW229754   9.799  10.822   2.473 -0.3401  0.2409 -0.7734
 7547SOL     OW29755  10.931  10.693   0.907 -0.4021  0.1868 -0.2708
 7547SOL    HW129756  10.997  10.653   0.850 -1.2639 -0.8407 -0.5736
 7547SOL    HW229757  10.880  10.750   0.850 -0.8049 -0.2866 -0.3951
 7548SOL     OW29758   4.547  11.648  10.608 -0.7104 -0.0201  0.3244
 7548SOL    HW129759   4.538  11.634  10.514 -1.0136 -1.7134  0.5844
 7548SOL    HW229760   4.575  11.739  10.616 -2.9817  0.9085 -1.2820
 7549SOL     OW29761   1.964   3.699   8.669  0.5302  0.5410 -0.1898
 7549SOL    HW129762   1.895   3.733   8.612  1.0402  1.2797 -0.3909
 7549SOL    HW229763   2.045   3.712   8.619  1.0605  1.7800  0.9128
 7550SOL     OW29764  12.199   4.646   7.569 -0.6205 -0.5858 -0.8131
 7550SOL    HW129765  12.181   4.553   7.559  1.4059 -1.1558  0.1824
 7550SOL    HW229766  12.271   4.663   7.509 -0.2343  0.0667 -0.1849
 7551SOL     OW29767   0.310   6.928   0.907  0.4145  0.2126 -0.3963
 7551SOL    HW129768   0.395   6.950   0.871  1.6153 -1.4893  1.1985
 7551SOL    HW229769   0.283   6.849   0.860  1.3994 -1.2717  1.3800
 7552SOL     OW29770   3.102  10.219   6.196  0.1802 -0.5127  0.0274
 7552SOL    HW129771   3.076  10.306   6.224 -0.4073 -0.4318 -0.7374
 7552SOL    HW229772   3.183  10.232   6.146  0.8325 -0.5754  1.0317
 7553SOL     OW29773  12.769  11.641  11.405  0.1737  0.2238  0.4421
 7553SOL    HW129774  12.832  11.672  11.470  0.6100 -0.9371  0.6035
 7553SOL    HW229775  12.822  11.590  11.343 -0.1246  1.8626 -1.2267
 7554SOL     OW29776   4.279  11.722   4.884  0.5783 -0.9822 -0.0314
 7554SOL    HW129777   4.373  11.711   4.900  0.8139 -0.3832 -0.9189
 7554SOL    HW229778   4.274  11.798   4.825 -0.3966 -1.5481 -0.7028
 7555SOL     OW29779  12.517   3.172   7.779 -0.8464 -0.4330 -0.0190
 7555SOL    HW129780  12.431   3.149   7.744 -1.9143  0.2972  1.9758
 7555SOL    HW229781  12.552   3.089   7.811 -1.2149 -0.5809  0.0071
 7556SOL     OW29782   9.280   6.686   8.911  0.6652  0.2164  0.7855
 7556SOL    HW129783   9.304   6.686   8.818 -0.7947 -0.7361  0.3544
 7556SOL    HW229784   9.254   6.776   8.929  1.6287  0.5683  0.4661
 7557SOL     OW29785   3.904   1.690   0.473  0.1549  0.1461  0.1365
 7557SOL    HW129786   3.985   1.737   0.495 -0.3036  0.6081  0.8892
 7557SOL    HW229787   3.895   1.624   0.542 -0.1965  0.2150  0.1615
 7558SOL     OW29788  12.088  11.735   7.646 -0.0281 -0.1990 -0.0992
 7558SOL    HW129789  12.140  11.815   7.646 -2.1295  1.2689 -0.0395
 7558SOL    HW229790  12.019  11.750   7.581 -0.8869 -1.6601  0.4025
 7559SOL     OW29791   5.499   0.238   4.263 -0.1747  0.5278 -0.0806
 7559SOL    HW129792   5.437   0.234   4.191  0.2021 -0.3179 -0.3671
 7559SOL    HW229793   5.574   0.185   4.235 -0.4355 -0.6516  1.3079
 7560SOL     OW29794   3.163   2.917   3.319  0.1513 -0.1665 -0.1367
 7560SOL    HW129795   3.229   2.985   3.335 -0.3632  0.2288  0.3110
 7560SOL    HW229796   3.148   2.920   3.224 -0.9276  1.3351  0.0626
 7561SOL     OW29797   5.147   2.087  10.511 -0.6834  0.3619 -0.0504
 7561SOL    HW129798   5.102   2.171  10.504  0.6907  1.0794 -0.7744
 7561SOL    HW229799   5.188   2.074  10.426  0.6800 -0.1050  0.6357
 7562SOL     OW29800   8.893  10.204   6.880  0.2762 -0.1919 -0.3868
 7562SOL    HW129801   8.808  10.161   6.873 -2.2608  3.9882  1.1960
 7562SOL    HW229802   8.913  10.203   6.973  1.3964 -0.0085 -0.6075
 7563SOL     OW29803   3.409   6.395   4.475  0.0754  0.4274  0.3950
 7563SOL    HW129804   3.354   6.428   4.404  0.1305 -0.0502  0.1276
 7563SOL    HW229805   3.375   6.439   4.554 -0.9470 -0.1608  0.2963
 7564SOL     OW29806   3.738   5.054   5.513  0.5863  0.0224 -0.4609
 7564SOL    HW129807   3.750   5.149   5.516 -0.0381  0.0832  0.2794
 7564SOL    HW229808   3.652   5.041   5.475 -0.6437 -0.1166  2.1285
 7565SOL     OW29809   8.535   6.759   7.190  0.1979 -0.2062 -0.3970
 7565SOL    HW129810   8.564   6.672   7.161  0.0969 -0.0202 -1.0652
 7565SOL    HW229811   8.606   6.790   7.245 -0.2247 -1.1476  0.7192
 7566SOL     OW29812   8.003   9.192   1.205  0.0525 -0.6730  0.1551
 7566SOL    HW129813   7.928   9.243   1.175 -1.2737 -0.4720  3.3778
 7566SOL    HW229814   8.078   9.251   1.196 -0.6885  0.2221 -0.3020
 7567SOL     OW29815  10.219   9.599   4.015  0.3161 -0.2778 -0.3112
 7567SOL    HW129816  10.289   9.604   4.080  0.4980  0.1307 -0.5381
 7567SOL    HW229817  10.243   9.664   3.949 -0.3826 -0.0008 -0.2918
 7568SOL     OW29818  11.730  11.785   5.028 -0.0812  0.2052  0.2010
 7568SOL    HW129819  11.695  11.770   5.116  3.7479  1.9920  2.2945
 7568SOL    HW229820  11.804  11.725   5.021  0.0879  0.5555 -1.5923
 7569SOL     OW29821   7.936   4.347  11.725 -0.5189  0.0284  0.7649
 7569SOL    HW129822   7.912   4.419  11.783 -0.9949 -0.2103  0.8708
 7569SOL    HW229823   8.024   4.369  11.694 -1.2552  1.4307 -0.4450
 7570SOL     OW29824   8.827  11.331  12.865 -0.0926 -0.1616  0.2391
 7570SOL    HW129825   8.821  11.337  12.769  1.4913 -2.1903 -0.0439
 7570SOL    HW229826   8.830  11.422  12.894 -1.0495  0.5041 -1.5928
 7571SOL     OW29827   9.338  11.277   2.055  0.2782  0.2277 -0.1264
 7571SOL    HW129828   9.248  11.308   2.062 -0.0059 -0.9088  2.0846
 7571SOL    HW229829   9.371  11.318   1.975 -2.8313 -0.9585 -2.2307
 7572SOL     OW29830   9.138   0.402   4.687  0.4283  0.0508  0.3413
 7572SOL    HW129831   9.195   0.443   4.622 -0.2960  3.6760  1.7765
 7572SOL    HW229832   9.111   0.320   4.646  4.1810 -0.4295 -1.6271
 7573SOL     OW29833   3.703   0.904   2.645  0.3402 -0.1389 -0.4044
 7573SOL    HW129834   3.673   0.815   2.627 -0.5070  0.4117 -1.9480
 7573SOL    HW229835   3.713   0.944   2.558 -0.6449  1.6749  0.2566
 7574SOL     OW29836   9.982   7.408   2.059  0.5719 -0.9947  0.6347
 7574SOL    HW129837   9.995   7.482   1.999  0.4195 -0.2419  1.5061
 7574SOL    HW229838   9.918   7.353   2.014 -0.6363  0.2816  0.6997
 7575SOL     OW29839   9.705   9.892   0.101 -0.2410 -0.2792  0.4472
 7575SOL    HW129840   9.711   9.861   0.011  2.3593 -2.0507  1.1178
 7575SOL    HW229841   9.699   9.812   0.154 -3.1414  0.7346  1.8786
 7576SOL     OW29842   4.659  10.275   5.542  0.2713 -0.5289  0.5818
 7576SOL    HW129843   4.717  10.279   5.465 -0.6738 -0.3786 -0.1368
 7576SOL    HW229844   4.674  10.188   5.578  0.8812 -0.5233  0.3639
 7577SOL     OW29845   4.125  10.603  11.390 -0.1715  0.2509  0.0224
 7577SOL    HW129846   4.133  10.693  11.358 -1.1273 -0.0934 -1.2505
 7577SOL    HW229847   4.037  10.576  11.366 -0.5252 -0.4617  1.9497
 7578SOL     OW29848   2.508   4.691   5.140  0.5086  0.0383  0.7373
 7578SOL    HW129849   2.532   4.778   5.171 -0.6538  0.1025  1.5346
 7578SOL    HW229850   2.425   4.705   5.094 -0.7137 -0.8749  2.5184
 7579SOL     OW29851   4.443   0.250   3.652  0.1433 -0.8159 -0.2041
 7579SOL    HW129852   4.377   0.181   3.642 -0.0051 -0.8006  0.6313
 7579SOL    HW229853   4.506   0.233   3.581 -0.6042 -0.9920 -0.8442
 7580SOL     OW29854  11.195  12.035   9.778 -0.3632  0.1755 -0.0002
 7580SOL    HW129855  11.267  12.051   9.717  0.2083 -0.7643  0.4112
 7580SOL    HW229856  11.220  11.956   9.825 -2.0150 -0.6011 -0.3583
 7581SOL     OW29857   9.487   3.243  11.821  0.3128 -0.1609  0.5870
 7581SOL    HW129858   9.493   3.220  11.728  0.9015  0.7087  0.3945
 7581SOL    HW229859   9.563   3.200  11.861  1.0368  0.8346  0.3429
 7582SOL     OW29860   7.945   1.147   3.157 -0.0114 -0.2888 -0.0189
 7582SOL    HW129861   7.898   1.228   3.180  1.1833  0.6611 -0.8244
 7582SOL    HW229862   7.897   1.078   3.204 -2.9429  0.4294 -1.6626
 7583SOL     OW29863  10.376  12.447   0.567 -0.0535 -0.5580 -0.3532
 7583SOL    HW129864  10.422  12.426   0.648 -2.3370 -0.1798  1.1308
 7583SOL    HW229865  10.408  12.382   0.504  1.9768 -0.6968  0.7197
 7584SOL     OW29866   8.066   1.008  10.848 -0.9801 -0.1524 -0.2722
 7584SOL    HW129867   8.134   1.049  10.795  0.1731  0.1805  1.3605
 7584SOL    HW229868   8.007   1.079  10.872 -0.4447  0.0775  0.4049
 7585SOL     OW29869   3.471   0.558   9.371  0.7311  0.2621 -0.2254
 7585SOL    HW129870   3.523   0.545   9.450  0.0818  0.6508  0.2690
 7585SOL    HW229871   3.454   0.469   9.339  4.1664  0.0954 -2.0716
 7586SOL     OW29872   0.142   5.086   4.981 -0.5530  0.0302 -0.1627
 7586SOL    HW129873   0.144   4.990   4.986 -0.2863 -0.0192 -1.0985
 7586SOL    HW229874   0.129   5.114   5.072  0.8683 -0.8473  0.3392
 7587SOL     OW29875   3.346   7.743   8.979  0.5503 -0.4444 -0.0776
 7587SOL    HW129876   3.402   7.821   8.970 -0.8270  0.4716 -1.1835
 7587SOL    HW229877   3.405   7.670   8.962  1.3553  0.4991 -1.5679
 7588SOL     OW29878   2.142   5.000   0.562 -0.0792  0.3245 -0.2936
 7588SOL    HW129879   2.161   4.950   0.483  0.7635 -0.1662  0.1984
 7588SOL    HW229880   2.059   4.963   0.594 -0.1950  0.2235 -0.7120
 7589SOL     OW29881  12.045   7.114   1.343 -0.0913 -0.1684 -0.0752
 7589SOL    HW129882  12.020   7.026   1.373 -0.0678 -0.3116 -0.4761
 7589SOL    HW229883  12.127   7.133   1.390 -0.2235 -0.2611  0.1936
 7590SOL     OW29884   6.320   4.205  12.487 -0.2469 -0.0526 -0.2922
 7590SOL    HW129885   6.267   4.146  12.541 -0.9843  0.9989  0.1721
 7590SOL    HW229886   6.390   4.150  12.453 -0.6057 -1.0714  0.5610
 7591SOL     OW29887  10.742   3.791   5.962 -0.2236 -0.0007 -0.3390
 7591SOL    HW129888  10.750   3.739   6.042  1.0366  0.1642 -0.3361
 7591SOL    HW229889  10.702   3.731   5.899  1.5455 -1.1312 -0.4524
 7592SOL     OW29890  11.066   6.262   3.283 -0.1759 -0.0535  0.2982
 7592SOL    HW129891  11.004   6.267   3.210  1.5357  1.1119 -1.1919
 7592SOL    HW229892  11.016   6.225   3.355 -2.1408 -0.6616 -1.2807
 7593SOL     OW29893   7.721   3.133   0.195 -0.5543 -0.3907 -0.3213
 7593SOL    HW129894   7.634   3.155   0.228 -0.1073  1.6188 -0.3730
 7593SOL    HW229895   7.722   3.164   0.104  1.0904  2.3710  0.5105
 7594SOL     OW29896   8.386   9.819   3.528  0.4356 -0.3813 -0.1653
 7594SOL    HW129897   8.446   9.757   3.486 -0.7399 -1.7267  0.0447
 7594SOL    HW229898   8.313   9.764   3.559 -0.4221  1.0571  0.4643
 7595SOL     OW29899   2.789   6.150   3.297  1.2074  0.6526  0.3379
 7595SOL    HW129900   2.857   6.197   3.344  1.5927 -0.7093  1.2159
 7595SOL    HW229901   2.749   6.093   3.363  0.2462  0.3098 -0.5022
 7596SOL     OW29902  12.174   7.796   8.299  0.2846  0.1535  0.1009
 7596SOL    HW129903  12.187   7.810   8.205 -2.5909  2.1929 -0.1502
 7596SOL    HW229904  12.203   7.878   8.339 -1.7042  0.6980  0.5345
 7597SOL     OW29905   8.610   0.847   3.905 -0.2827  0.1149 -0.8802
 7597SOL    HW129906   8.693   0.807   3.877  0.6048  1.8585 -0.9126
 7597SOL    HW229907   8.619   0.858   4.000 -0.5657  0.1040 -0.8511
 7598SOL     OW29908   2.716   0.679   0.193  0.3037  0.0953 -0.4953
 7598SOL    HW129909   2.718   0.668   0.288 -2.0956 -1.3179 -0.5313
 7598SOL    HW229910   2.623   0.691   0.173  0.6900 -0.3220 -2.7335
 7599SOL     OW29911   2.187  10.947   3.614  0.5407 -0.4357 -0.3498
 7599SOL    HW129912   2.226  10.859   3.613 -1.2073 -1.3684  1.9438
 7599SOL    HW229913   2.101  10.935   3.575  0.0807  0.1183  0.4655
 7600SOL     OW29914  12.833   8.646  12.073  0.5917 -0.3172  0.4946
 7600SOL    HW129915  12.824   8.553  12.094  0.8172 -0.1373  1.4660
 7600SOL    HW229916  12.899   8.678  12.135 -1.0714  0.9573  1.6992
 7601SOL     OW29917  12.128   6.369   5.254  0.1682  0.2938 -0.1762
 7601SOL    HW129918  12.112   6.437   5.189 -0.7443  0.6502  0.3996
 7601SOL    HW229919  12.083   6.292   5.220 -1.0393  0.7148  0.4243
 7602SOL     OW29920   2.010   1.219   8.296 -0.2020 -0.0594  0.2937
 7602SOL    HW129921   2.036   1.254   8.381  0.5525 -0.4005  0.2196
 7602SOL    HW229922   1.940   1.277   8.266 -0.8157 -0.2186  1.3557
 7603SOL     OW29923  11.276   5.512   5.725 -0.3028 -0.1333  0.4632
 7603SOL    HW129924  11.298   5.452   5.796 -0.8360 -0.6847  0.1755
 7603SOL    HW229925  11.310   5.597   5.753  0.5182 -0.5818  0.8448
 7604SOL     OW29926  11.408  11.113   9.080 -0.7975 -0.4344  0.3336
 7604SOL    HW129927  11.459  11.032   9.072 -1.0942 -0.6564  0.7088
 7604SOL    HW229928  11.456  11.165   9.144  0.0078  0.1626 -0.7088
 7605SOL     OW29929   6.654   9.107   3.430 -0.9859 -0.5558  0.3200
 7605SOL    HW129930   6.567   9.073   3.407 -1.5827  1.1885 -0.1002
 7605SOL    HW229931   6.648   9.127   3.523 -1.6142  1.1610 -0.0653
 7606SOL     OW29932   7.164   4.317   5.457 -0.0742  0.2875 -0.1897
 7606SOL    HW129933   7.155   4.234   5.505  0.3972  0.3802  0.0732
 7606SOL    HW229934   7.100   4.375   5.498 -0.2289  0.1284 -0.2037
 7607SOL     OW29935   9.984   0.386   7.390  0.6919 -0.9202  0.6788
 7607SOL    HW129936   9.949   0.338   7.315  1.7897 -1.7326  0.6667
 7607SOL    HW229937   9.915   0.378   7.457  0.9561 -2.8114  0.7830
 7608SOL     OW29938   5.895   7.816   7.734  0.1512  0.7301  0.0462
 7608SOL    HW129939   5.911   7.910   7.746  0.1956  0.7609 -0.2350
 7608SOL    HW229940   5.962   7.773   7.786 -0.5376  0.8486  1.0457
 7609SOL     OW29941  11.043   5.712   8.615  0.4656 -0.2514 -0.1964
 7609SOL    HW129942  11.032   5.805   8.598  2.8312 -0.0983 -1.2682
 7609SOL    HW229943  11.097   5.709   8.694  2.1042 -0.6011 -1.2735
 7610SOL     OW29944   7.250   6.665  10.981  0.2153 -0.2926 -0.1920
 7610SOL    HW129945   7.253   6.633  10.891  1.7037  0.3000 -0.3736
 7610SOL    HW229946   7.158   6.689  10.994  0.1019  0.2628 -1.7768
 7611SOL     OW29947   8.649   7.177   8.776  0.0939 -0.0435 -0.1623
 7611SOL    HW129948   8.724   7.219   8.734  0.2627  0.1934  0.3612
 7611SOL    HW229949   8.684   7.094   8.808  0.2958  0.3177  0.5907
 7612SOL     OW29950   8.401  10.012  12.340 -0.1290 -0.1206 -0.8929
 7612SOL    HW129951   8.387   9.967  12.424  0.4026 -0.3289 -0.9150
 7612SOL    HW229952   8.495  10.009  12.327 -0.1437  0.5209 -1.1666
 7613SOL     OW29953  11.591   0.622  12.607  0.5633 -0.1201  0.3636
 7613SOL    HW129954  11.627   0.547  12.559 -0.3821  1.2485 -2.8168
 7613SOL    HW229955  11.496   0.616  12.591  0.4857  1.7844 -0.1586
 7614SOL     OW29956   2.576   2.658   1.658  0.3680 -0.0372 -0.1309
 7614SOL    HW129957   2.660   2.693   1.628  0.2800  1.7809  1.5214
 7614SOL    HW229958   2.581   2.564   1.640  1.8818  0.3432 -1.9938
 7615SOL     OW29959   9.378   3.429  12.344 -0.7737  0.0523 -0.3544
 7615SOL    HW129960   9.428   3.490  12.398 -0.3493  0.4658 -1.2083
 7615SOL    HW229961   9.444   3.373  12.303 -1.2144 -2.3624  1.9677
 7616SOL     OW29962   9.096   3.048   9.818  0.9075  0.2774 -0.3889
 7616SOL    HW129963   9.032   3.082   9.755  0.0135 -0.5437  0.0481
 7616SOL    HW229964   9.150   3.123   9.841  0.2111  0.9438 -0.9066
 7617SOL     OW29965   0.181   6.176   5.496  0.2182  0.0174  0.3600
 7617SOL    HW129966   0.272   6.200   5.479  1.4923 -3.5535  1.4414
 7617SOL    HW229967   0.146   6.151   5.411  0.4450  0.6969  0.0614
 7618SOL     OW29968   3.138   2.726   3.763 -0.2657  0.4228 -0.1847
 7618SOL    HW129969   3.048   2.750   3.741 -0.2181 -0.3173 -1.2574
 7618SOL    HW229970   3.187   2.808   3.756 -0.7980  0.7724  0.1017
 7619SOL     OW29971   0.165  12.360   9.164 -0.6565 -0.0028  0.2656
 7619SOL    HW129972   0.176  12.269   9.189 -2.2318 -0.5577 -0.8589
 7619SOL    HW229973   0.225  12.373   9.091 -0.2202 -0.0517  0.6137
 7620SOL     OW29974   8.086  12.892   1.247  0.0850  0.4042 -0.5649
 7620SOL    HW129975   8.054  12.912   1.158  0.2785 -0.6845 -0.8921
 7620SOL    HW229976   8.177  12.919   1.246  1.0234 -2.4533 -1.7454
 7621SOL     OW29977   1.311   9.709   9.383  0.0986 -0.0697 -0.3276
 7621SOL    HW129978   1.286   9.801   9.377 -2.2568 -0.5294  1.0159
 7621SOL    HW229979   1.244   9.662   9.333  0.9927 -1.0889 -0.6073
 7622SOL     OW29980   7.255   9.183  12.701  0.1553 -0.2172 -0.0049
 7622SOL    HW129981   7.277   9.268  12.663  1.6208 -0.0298  1.1897
 7622SOL    HW229982   7.164   9.192  12.729  0.6037  1.3395  1.0726
 7623SOL     OW29983   8.680   0.640   0.146  0.3413 -0.8211  0.4617
 7623SOL    HW129984   8.695   0.732   0.125  2.3002 -1.1285  0.2835
 7623SOL    HW229985   8.586   0.634   0.165 -0.2358  0.7968 -1.5334
 7624SOL     OW29986   7.500   3.474  10.875 -0.7151 -0.2753 -0.6128
 7624SOL    HW129987   7.513   3.490  10.969  0.6048  0.8971 -0.9651
 7624SOL    HW229988   7.433   3.538  10.849 -0.3346  0.1048 -0.6670
 7625SOL     OW29989  12.743   9.364   9.305  0.7182  0.1731 -0.2069
 7625SOL    HW129990  12.725   9.338   9.395  1.7654  0.3510  0.0718
 7625SOL    HW229991  12.660   9.352   9.259 -0.3965  1.9727  1.2025
 7626SOL     OW29992  10.879  10.682   5.091 -0.4043 -0.4317  0.5545
 7626SOL    HW129993  10.878  10.774   5.064 -0.2155 -0.7572 -0.6148
 7626SOL    HW229994  10.802  10.644   5.049 -0.2823 -0.8836  0.7408
 7627SOL     OW29995   7.091   4.641   9.594 -0.2168 -0.4884  0.3079
 7627SOL    HW129996   7.118   4.707   9.530  0.1365  1.7433  2.5849
 7627SOL    HW229997   7.000   4.664   9.614 -0.8396 -2.1389 -0.4622
 7628SOL     OW29998   4.368   7.997   7.441  0.3160 -0.1135 -0.0548
 7628SOL    HW129999   4.414   7.933   7.496  2.2384  0.9942 -0.2889
 7628SOL    HW230000   4.296   8.029   7.496  0.0798 -1.5537  0.5019
 7629SOL     OW30001   0.690   9.382   4.692  0.3990  0.0591  0.0082
 7629SOL    HW130002   0.721   9.353   4.778  0.6923  2.1258  0.6605
 7629SOL    HW230003   0.754   9.347   4.630  0.1974 -1.4349  0.5891
 7630SOL     OW30004   5.772  12.108   6.300 -0.0930  1.0129  0.2248
 7630SOL    HW130005   5.843  12.165   6.271 -0.1780  0.0330 -2.0961
 7630SOL    HW230006   5.693  12.145   6.261 -0.3716  0.2407  0.0379
 7631SOL     OW30007   8.021   4.901  10.775 -0.3373  0.0108  0.2110
 7631SOL    HW130008   8.095   4.842  10.763 -1.6858 -1.5748 -0.9021
 7631SOL    HW230009   8.037   4.945  10.858  0.6061 -2.1479  1.2236
 7632SOL     OW30010   5.785   5.618  11.062 -1.0011  0.3092  0.3517
 7632SOL    HW130011   5.787   5.526  11.036 -0.0105  0.7548 -1.2721
 7632SOL    HW230012   5.852   5.625  11.130 -0.6733 -0.0524  0.0686
 7633SOL     OW30013   8.431   1.908   6.409  0.3355  0.0462 -0.2766
 7633SOL    HW130014   8.448   1.817   6.388  1.4028  0.6037 -2.0645
 7633SOL    HW230015   8.403   1.947   6.326 -0.7493  1.2261  0.5862
 7634SOL     OW30016   6.278   7.236   0.766  0.3586 -0.2804 -0.3659
 7634SOL    HW130017   6.278   7.331   0.778  0.1717 -0.4071  0.6779
 7634SOL    HW230018   6.279   7.224   0.671  0.5650  0.7636 -0.5037
 7635SOL     OW30019   0.049  10.681   2.723 -1.0680  0.5762  0.3066
 7635SOL    HW130020  -0.024  10.630   2.687 -0.3090 -0.2869 -0.0355
 7635SOL    HW230021   0.076  10.633   2.801  1.1900 -0.9353 -1.2993
 7636SOL     OW30022   3.958   7.392  12.510  0.5191 -0.0750 -0.3254
 7636SOL    HW130023   3.975   7.483  12.537  1.0528 -0.2921  0.0712
 7636SOL    HW230024   3.863   7.381  12.521  0.7047 -0.1364  1.4029
 7637SOL     OW30025  12.442   6.067   7.085 -0.3273 -0.5192 -0.7245
 7637SOL    HW130026  12.521   6.023   7.053  0.0826 -0.8422  0.6265
 7637SOL    HW230027  12.419   6.129   7.017  2.3196  1.0741 -0.3064
 7638SOL     OW30028  11.003   3.165  11.483  0.3172 -0.3606 -0.2760
 7638SOL    HW130029  10.982   3.100  11.417  0.7374  0.4393 -1.2417
 7638SOL    HW230030  11.098   3.158  11.494  0.2547 -0.4621  0.2208
 7639SOL     OW30031   9.872  10.922   1.261  0.6853  0.1364  0.1841
 7639SOL    HW130032   9.927  10.846   1.247  0.2722 -0.1973  0.3254
 7639SOL    HW230033   9.924  10.996   1.231  1.0167 -0.2222 -0.1332
 7640SOL     OW30034   5.565   9.849   1.035  0.0046  0.4657  0.3766
 7640SOL    HW130035   5.568   9.851   1.131 -1.3848  0.3278  0.4559
 7640SOL    HW230036   5.592   9.760   1.012 -1.5814 -0.1720  0.7941
 7641SOL     OW30037   5.341   9.349   0.749 -0.1671 -0.5877 -0.1773
 7641SOL    HW130038   5.333   9.375   0.841  1.4037 -0.3410 -0.0829
 7641SOL    HW230039   5.385   9.264   0.753 -0.8661 -0.9823 -0.6815
 7642SOL     OW30040  10.404  12.086   0.170 -0.3260  0.4416 -0.1734
 7642SOL    HW130041  10.372  11.996   0.170  0.7735  0.0309  0.9001
 7642SOL    HW230042  10.369  12.123   0.089 -0.2857 -1.1402 -0.9667
 7643SOL     OW30043   3.710   9.248   9.801  0.2251 -0.1678  0.7462
 7643SOL    HW130044   3.701   9.267   9.895 -1.1212  0.4150  0.5074
 7643SOL    HW230045   3.649   9.177   9.785  0.9945 -0.7810  0.4370
 7644SOL     OW30046   1.896   8.117   7.977  0.6823  0.5529 -0.4904
 7644SOL    HW130047   1.917   8.050   7.911  2.3078  1.8335 -1.3514
 7644SOL    HW230048   1.817   8.159   7.944  1.8246  1.6022 -2.0448
 7645SOL     OW30049   2.406  10.981   9.497  0.1799 -1.1374 -0.4090
 7645SOL    HW130050   2.423  11.010   9.408 -0.3658 -1.9410 -0.7919
 7645SOL    HW230051   2.334  11.036   9.527  2.4751  1.4389  0.7790
 7646SOL     OW30052   2.885   2.584   5.457  0.5996  0.0479  0.0809
 7646SOL    HW130053   2.865   2.675   5.438 -0.3621 -0.2344 -0.2948
 7646SOL    HW230054   2.945   2.558   5.387  0.4301  0.2317 -0.1352
 7647SOL     OW30055   7.287  12.040   3.684  0.8301  0.0518  0.1218
 7647SOL    HW130056   7.256  11.986   3.611 -0.4179 -0.1179  0.7638
 7647SOL    HW230057   7.359  11.989   3.722 -0.7372 -1.5532  1.1307
 7648SOL     OW30058   2.116   3.530   3.128  0.2852  0.1597  0.0901
 7648SOL    HW130059   2.055   3.481   3.183  0.3380 -0.3053 -0.2634
 7648SOL    HW230060   2.180   3.466   3.099 -0.2976  0.1660 -1.3230
 7649SOL     OW30061   1.617   5.865  11.465  0.2980 -0.1557 -0.2411
 7649SOL    HW130062   1.694   5.834  11.417  1.8827  2.8445  0.1573
 7649SOL    HW230063   1.563   5.907  11.398  0.0132 -0.3907 -0.1643
 7650SOL     OW30064   9.554  12.610   5.995  0.5653 -0.5989 -0.1060
 7650SOL    HW130065   9.634  12.571   5.959 -0.5069 -3.9664  0.8483
 7650SOL    HW230066   9.522  12.546   6.058 -3.0117  0.5148 -0.5812
 7651SOL     OW30067  12.967   0.677   5.738 -0.4452  0.0307 -0.0638
 7651SOL    HW130068  13.038   0.635   5.689 -1.1897 -2.2235  0.6486
 7651SOL    HW230069  12.915   0.722   5.671  0.7032  0.3066 -0.7993
 7652SOL     OW30070   5.469   8.746   7.248 -0.1632 -0.4586 -0.3247
 7652SOL    HW130071   5.423   8.676   7.293  0.2208 -1.5252 -1.5541
 7652SOL    HW230072   5.537   8.773   7.310  1.2064 -2.8013 -0.6940
 7653SOL     OW30073   7.296   7.464   1.678  0.4447 -0.1914 -0.0946
 7653SOL    HW130074   7.264   7.554   1.669 -0.6608 -0.4396  1.0884
 7653SOL    HW230075   7.237   7.412   1.624  1.6087 -0.1421 -1.4802
 7654SOL     OW30076  12.571   3.736  10.301  0.4252  0.5206  0.1008
 7654SOL    HW130077  12.575   3.640  10.300 -1.3509  0.2858  3.0807
 7654SOL    HW230078  12.485   3.756  10.264 -0.4268  0.6936  2.0397
 7655SOL     OW30079   3.135  11.574  12.212  0.5234 -0.2301  0.0390
 7655SOL    HW130080   3.171  11.497  12.256 -1.1041 -2.3441 -2.0612
 7655SOL    HW230081   3.099  11.541  12.130 -0.3780  2.7803 -0.9335
 7656SOL     OW30082   4.640   2.795   7.070  0.0074  0.1459  0.0834
 7656SOL    HW130083   4.695   2.728   7.108  0.0316 -0.3247 -0.7507
 7656SOL    HW230084   4.555   2.783   7.112  0.1086 -0.1826  0.1967
 7657SOL     OW30085   9.696  11.532   0.099  1.0082  0.1711 -0.4462
 7657SOL    HW130086   9.717  11.441   0.119  2.3503  0.4067 -0.6424
 7657SOL    HW230087   9.680  11.572   0.185 -1.6770 -0.6614 -0.4619
 7658SOL     OW30088   1.514   8.893   0.826  0.3133  0.0395  0.4976
 7658SOL    HW130089   1.485   8.844   0.904 -0.5696  0.2993  0.3356
 7658SOL    HW230090   1.605   8.917   0.846  0.1094  0.0687  1.4342
 7659SOL     OW30091   9.214   7.715   7.200  0.3272 -0.1890 -0.1895
 7659SOL    HW130092   9.133   7.755   7.232 -0.0816 -1.5860  0.5711
 7659SOL    HW230093   9.188   7.629   7.167  1.7310 -1.4804  1.8062
 7660SOL     OW30094   6.408   1.441   3.222  0.8047  0.2840  0.0389
 7660SOL    HW130095   6.399   1.450   3.317  1.4803  3.3625 -0.0794
 7660SOL    HW230096   6.496   1.473   3.203  0.3167  0.7467 -1.6898
 7661SOL     OW30097  10.140  12.235   2.291  0.5922 -0.5318  0.0458
 7661SOL    HW130098  10.164  12.269   2.377  2.6415 -3.2969  0.7264
 7661SOL    HW230099  10.059  12.187   2.306  1.0362 -1.1531  0.5276
 7662SOL     OW30100  12.456   7.532   9.250 -0.1608 -0.1293 -0.7600
 7662SOL    HW130101  12.482   7.508   9.161 -0.8728 -0.7809 -0.7986
 7662SOL    HW230102  12.375   7.485   9.265 -0.8047  1.0858 -0.2736
 7663SOL     OW30103   1.514   4.597  10.942  0.3930  0.0959  0.0140
 7663SOL    HW130104   1.447   4.530  10.927  1.2007 -0.9390  0.8358
 7663SOL    HW230105   1.568   4.561  11.013  2.2045  0.5761 -1.0505
 7664SOL     OW30106   4.464   7.078   9.896 -0.2526  0.2425  0.1452
 7664SOL    HW130107   4.549   7.042   9.921 -0.9289 -0.5118  1.4945
 7664SOL    HW230108   4.441   7.032   9.815 -0.0111 -0.6207  0.5523
 7665SOL     OW30109   2.022   1.282   3.609  0.0197 -0.3891  0.0842
 7665SOL    HW130110   2.025   1.331   3.526  0.8007  0.4342  0.5804
 7665SOL    HW230111   1.995   1.194   3.584 -1.0931  0.1903 -0.8845
 7666SOL     OW30112   7.368   0.612   7.913 -0.0037  0.4320  0.1189
 7666SOL    HW130113   7.303   0.547   7.884 -1.6079  2.4559 -1.0720
 7666SOL    HW230114   7.377   0.596   8.007 -0.9869 -0.9714  0.0094
 7667SOL     OW30115   9.657   4.431  11.643 -0.3864 -0.0239 -0.2860
 7667SOL    HW130116   9.741   4.399  11.675 -0.6798  1.0651  1.7259
 7667SOL    HW230117   9.679   4.481  11.564  0.6777 -0.7749 -0.4854
 7668SOL     OW30118   1.200   0.923   5.178 -0.1557  0.1266 -0.7156
 7668SOL    HW130119   1.255   0.873   5.238 -0.4688 -1.1655 -1.4781
 7668SOL    HW230120   1.112   0.885   5.189 -0.6272  1.2103 -0.5628
 7669SOL     OW30121   8.191   0.045   7.171  0.5246  0.7146 -0.3209
 7669SOL    HW130122   8.246   0.124   7.173  2.3674 -0.4609 -1.5264
 7669SOL    HW230123   8.106   0.076   7.139  1.0465  2.2883 -0.2862
 7670SOL     OW30124   5.024   8.919  11.886  0.0852 -0.2270 -0.1523
 7670SOL    HW130125   5.048   8.965  11.805  1.7851 -2.2851 -0.9062
 7670SOL    HW230126   5.105   8.917  11.937 -0.1164 -1.7325  0.1546
 7671SOL     OW30127   7.115  12.070   6.371 -0.1314 -0.5296 -0.1263
 7671SOL    HW130128   7.205  12.101   6.370  0.0213 -0.9714 -0.5940
 7671SOL    HW230129   7.105  12.028   6.456 -0.3647  0.8318  0.5483
 7672SOL     OW30130   3.044   1.300   5.387 -0.3670 -0.3423 -0.6289
 7672SOL    HW130131   2.968   1.303   5.328  0.8163 -3.2078 -2.4995
 7672SOL    HW230132   3.047   1.388   5.425 -2.6406  0.9386 -3.0083
 7673SOL     OW30133   8.697   2.122   6.283  0.0256 -0.5179 -0.3489
 7673SOL    HW130134   8.729   2.033   6.268  2.5611 -0.1640  2.0669
 7673SOL    HW230135   8.625   2.111   6.345  0.9956 -0.8694  0.7441
 7674SOL     OW30136   6.944   3.232   7.217  0.3848 -0.4187  0.2731
 7674SOL    HW130137   6.853   3.211   7.200 -0.1865  1.9843 -0.0574
 7674SOL    HW230138   6.981   3.251   7.131  1.5382 -2.3586  0.2740
 7675SOL     OW30139   8.571  10.627   4.194  0.1021  0.2387  0.0983
 7675SOL    HW130140   8.523  10.700   4.234  1.3514  1.2201 -0.0977
 7675SOL    HW230141   8.570  10.559   4.261 -0.6679  0.6221  0.4908
 7676SOL     OW30142  10.123  12.868  12.944 -0.5058  0.0511 -0.2098
 7676SOL    HW130143  10.065  12.860  12.868 -0.2512 -0.3349 -0.3692
 7676SOL    HW230144  10.122  12.781  12.984 -0.8080  0.3080  0.3609
 7677SOL     OW30145   7.244   7.342  10.186  0.2893 -0.0643  0.2033
 7677SOL    HW130146   7.166   7.378  10.144  0.9749  2.2113  0.7082
 7677SOL    HW230147   7.307   7.414  10.184  2.3650 -1.7960 -0.1121
 7678SOL     OW30148   8.417  11.831   8.744 -0.0686 -0.7532  0.5946
 7678SOL    HW130149   8.471  11.901   8.781 -0.2956 -0.1001 -0.2865
 7678SOL    HW230150   8.330  11.871   8.734  0.3232 -0.4234 -2.0097
 7679SOL     OW30151   8.408   9.287   4.384 -0.0019  0.3297  0.3806
 7679SOL    HW130152   8.481   9.258   4.438  0.8213  2.5007  0.5549
 7679SOL    HW230153   8.430   9.378   4.363 -0.9438 -0.0197 -2.4981
 7680SOL     OW30154  11.949  10.028   6.913 -0.0413 -0.2620 -0.0024
 7680SOL    HW130155  11.892  10.030   6.991 -1.2865  1.2935 -0.8916
 7680SOL    HW230156  11.902   9.972   6.851  0.3609 -0.5259 -0.0697
 7681SOL     OW30157   8.839   0.539   4.409  0.1554  0.5594 -0.1652
 7681SOL    HW130158   8.858   0.570   4.498 -1.9945  2.1068 -0.1611
 7681SOL    HW230159   8.838   0.444   4.417  2.6487  0.5251  0.8211
 7682SOL     OW30160   9.336   0.421  11.702 -0.6324  0.0382  0.3972
 7682SOL    HW130161   9.431   0.409  11.711 -0.5051 -0.0863 -0.8962
 7682SOL    HW230162   9.319   0.509  11.737  0.0089  0.1846  0.3502
 7683SOL     OW30163   6.620   7.349  12.770  0.4488  0.1756  0.1641
 7683SOL    HW130164   6.564   7.389  12.704  0.5988 -1.9414 -1.3693
 7683SOL    HW230165   6.693   7.409  12.781 -0.1795  1.1252 -0.7252
 7684SOL     OW30166   0.473  12.181   8.745 -0.1236  0.3789 -0.0152
 7684SOL    HW130167   0.500  12.271   8.726 -0.6161  0.4748 -0.2551
 7684SOL    HW230168   0.426  12.152   8.667 -0.0716 -0.0512  0.1061
 7685SOL     OW30169   4.170   6.559   1.005 -0.3623 -0.2197  0.5577
 7685SOL    HW130170   4.229   6.520   1.069  1.3440  0.6976 -0.4164
 7685SOL    HW230171   4.149   6.486   0.946  0.8266 -0.2728  0.1769
 7686SOL     OW30172   3.443   9.239   9.199 -0.1295 -0.5907  0.2034
 7686SOL    HW130173   3.525   9.259   9.155 -0.3144 -1.0316 -0.3636
 7686SOL    HW230174   3.390   9.318   9.187  0.1948 -0.3225  0.5320
 7687SOL     OW30175   0.213   1.571   5.706  0.0634  0.8240 -0.3341
 7687SOL    HW130176   0.183   1.510   5.773  0.4784 -0.5842 -1.3747
 7687SOL    HW230177   0.179   1.656   5.733 -2.0015 -0.1483  0.2885
 7688SOL     OW30178   0.905  10.800   5.670  0.2052 -0.1106 -0.2272
 7688SOL    HW130179   0.918  10.708   5.693  0.3627  0.2337  1.1967
 7688SOL    HW230180   0.993  10.838   5.675 -0.1593  0.6215  1.7776
 7689SOL     OW30181   0.498   6.874   2.515  0.3992  0.0344  0.3469
 7689SOL    HW130182   0.421   6.849   2.464  0.0618  0.2422  0.7490
 7689SOL    HW230183   0.569   6.878   2.451  0.5290 -2.1246  0.2545
 7690SOL     OW30184   4.463   0.570   0.849  0.2630 -0.0975 -0.5900
 7690SOL    HW130185   4.419   0.587   0.765  0.1551  1.7968 -0.1941
 7690SOL    HW230186   4.403   0.513   0.897  0.1298 -0.8475 -1.6006
 7691SOL     OW30187   0.041   7.431   2.163 -0.4209  0.0345 -0.4518
 7691SOL    HW130188   0.089   7.514   2.153  0.4578 -0.4542 -0.3716
 7691SOL    HW230189   0.085   7.386   2.235  0.7909 -1.6220 -2.1245
 7692SOL     OW30190   4.137   3.561  11.595 -0.2849 -0.5154  0.0562
 7692SOL    HW130191   4.068   3.497  11.582  0.3255 -0.8943 -1.5648
 7692SOL    HW230192   4.180   3.534  11.676 -3.5110  1.1945  2.5533
 7693SOL     OW30193   7.952   8.886   0.670 -0.0838  0.4058 -0.4255
 7693SOL    HW130194   7.992   8.964   0.633 -0.7128  1.4704  1.0177
 7693SOL    HW230195   7.873   8.872   0.619  0.7793 -0.2002 -1.6431
 7694SOL     OW30196   7.188   5.953   9.062  0.2985  0.3509  0.0886
 7694SOL    HW130197   7.166   5.937   9.154  0.5327  0.7664  0.2168
 7694SOL    HW230198   7.283   5.958   9.060  0.3091  0.0691 -0.2247
 7695SOL     OW30199   6.688  10.055  10.252 -0.2083  0.2072  0.2338
 7695SOL    HW130200   6.682  10.097  10.166  2.1432 -0.6343 -0.4388
 7695SOL    HW230201   6.708   9.964  10.232 -2.6982 -0.7488  1.6926
 7696SOL     OW30202   8.794   0.238  10.172  0.1960 -0.3166 -0.1192
 7696SOL    HW130203   8.746   0.313  10.208 -2.2026 -1.7641 -0.0885
 7696SOL    HW230204   8.821   0.267  10.085  0.3741  0.9879  0.3432
 7697SOL     OW30205   4.463   3.968   6.132 -0.0910 -0.7397 -0.6246
 7697SOL    HW130206   4.539   3.913   6.151 -0.2442 -1.7034 -2.5780
 7697SOL    HW230207   4.408   3.960   6.209  2.7577  1.9265  2.0042
 7698SOL     OW30208   4.164   4.687   7.234  0.8685  0.1801 -0.3466
 7698SOL    HW130209   4.235   4.673   7.296  2.5720 -1.3843 -2.5246
 7698SOL    HW230210   4.202   4.739   7.164 -0.0651 -0.7818 -1.6268
 7699SOL     OW30211   7.091   6.318  10.158 -0.2895  0.5978  0.1403
 7699SOL    HW130212   6.999   6.344  10.146 -0.7501 -0.9347  0.1673
 7699SOL    HW230213   7.119   6.365  10.237 -1.1969  0.7095  0.4048
 7700SOL     OW30214   6.610   4.975   0.511 -0.6605 -0.1750 -0.3351
 7700SOL    HW130215   6.690   4.923   0.509  0.1573  1.0680 -1.0964
 7700SOL    HW230216   6.617   5.033   0.436 -1.3973  1.2388  0.6426
 7701SOL     OW30217   5.835  12.696   3.116  0.2886  0.7301 -0.0601
 7701SOL    HW130218   5.741  12.705   3.101 -0.0278 -0.4255  1.1358
 7701SOL    HW230219   5.853  12.751   3.192  0.0369 -1.1716  1.4430
 7702SOL     OW30220  12.916   0.385  11.847 -0.1696  0.5617  0.0076
 7702SOL    HW130221  13.000   0.342  11.862  0.0468  0.7010 -0.7725
 7702SOL    HW230222  12.895   0.427  11.931  0.2944  0.1185  0.3502
 7703SOL     OW30223  11.557  11.408   0.072 -0.3878  0.0107  0.0370
 7703SOL    HW130224  11.565  11.325   0.119  0.2695 -0.6245 -1.1540
 7703SOL    HW230225  11.507  11.464   0.131 -1.1998 -1.3538  0.7091
 7704SOL     OW30226   2.170   8.134  10.477  0.1308  0.3338 -0.6628
 7704SOL    HW130227   2.149   8.155  10.386 -0.4955 -1.6105 -1.0119
 7704SOL    HW230228   2.263   8.111  10.475  0.1781  0.5356 -0.7765
 7705SOL     OW30229   4.143   2.374   4.404  0.2591 -0.0684  0.1232
 7705SOL    HW130230   4.104   2.450   4.361 -0.6557 -0.6681 -0.1214
 7705SOL    HW230231   4.070   2.314   4.418  0.8427 -0.5874  1.0062
 7706SOL     OW30232   9.725   2.499  11.991 -0.3097 -0.8464  0.1600
 7706SOL    HW130233   9.748   2.408  11.972  2.9047  0.0205 -0.6405
 7706SOL    HW230234   9.760   2.549  11.918  0.5741  1.3227  1.9391
 7707SOL     OW30235   0.300  10.230   5.329 -0.4329  0.4132  0.2672
 7707SOL    HW130236   0.368  10.255   5.266  0.9133 -0.7524  1.2003
 7707SOL    HW230237   0.224  10.283   5.304  0.6773  1.4652 -1.0599
 7708SOL     OW30238   0.490   2.509  11.394  0.2377 -0.5895 -0.3774
 7708SOL    HW130239   0.464   2.581  11.452  0.7123  0.1764 -1.1035
 7708SOL    HW230240   0.455   2.430  11.437 -0.3820  0.0759  0.3707
 7709SOL     OW30241   6.532   8.130   2.423  0.4086 -0.4245 -0.3750
 7709SOL    HW130242   6.574   8.081   2.493  0.7102 -0.9956 -0.9381
 7709SOL    HW230243   6.456   8.172   2.464  0.7302 -0.5303  0.3411
 7710SOL     OW30244  12.075   7.918  11.932  0.3363  0.1875  0.7466
 7710SOL    HW130245  12.033   7.947  11.851  0.7394  0.3594  0.5932
 7710SOL    HW230246  12.004   7.911  11.995 -0.2116 -1.3140  0.0072
 7711SOL     OW30247   6.894   1.872   7.254  0.9026  0.3448  0.6068
 7711SOL    HW130248   6.974   1.910   7.217  1.5764 -0.1495  1.5244
 7711SOL    HW230249   6.873   1.929   7.328  0.0870  0.7881  0.0447
 7712SOL     OW30250   0.161   0.660   1.999  0.9009 -0.4423  0.6337
 7712SOL    HW130251   0.172   0.607   1.920 -0.7429 -0.3730  0.3162
 7712SOL    HW230252   0.127   0.599   2.064  0.2694 -0.0674  0.6619
 7713SOL     OW30253   3.970   9.003   5.768 -0.3688  0.5353 -0.4697
 7713SOL    HW130254   3.949   8.917   5.804 -0.2709  0.7112  0.0019
 7713SOL    HW230255   4.010   9.051   5.840  0.5750  0.6096 -1.0349
 7714SOL     OW30256   4.857   3.672   9.982 -0.0343  0.2438 -0.9168
 7714SOL    HW130257   4.931   3.732   9.981  0.3286 -0.1737  0.1915
 7714SOL    HW230258   4.781   3.728   9.968  0.3269  0.9273 -0.2380
 7715SOL     OW30259  11.361  11.437   7.091 -0.3141  0.0657 -0.0064
 7715SOL    HW130260  11.445  11.470   7.060  1.0131 -2.0284  1.1074
 7715SOL    HW230261  11.321  11.397   7.014 -1.0731  2.3800 -0.9059
 7716SOL     OW30262   2.016  11.048   0.856  0.4638 -0.1509 -0.0374
 7716SOL    HW130263   1.977  10.961   0.866 -2.2970  0.8133 -1.2685
 7716SOL    HW230264   2.108  11.037   0.880 -0.3443 -2.8253  2.3696
 7717SOL     OW30265   8.320   7.739   2.272 -0.1946  0.2364 -0.2480
 7717SOL    HW130266   8.388   7.742   2.204  2.2233 -0.7131  1.9724
 7717SOL    HW230267   8.355   7.791   2.344 -1.7707 -0.3946  1.0370
 7718SOL     OW30268  10.859   7.235  10.810 -0.1919  0.4154  0.0576
 7718SOL    HW130269  10.806   7.226  10.731 -0.3858  2.1746 -0.0387
 7718SOL    HW230270  10.795   7.249  10.880 -0.0712 -1.8646  0.6986
 7719SOL     OW30271   3.223   8.942   5.040  0.2208 -0.4250 -0.0292
 7719SOL    HW130272   3.265   8.864   5.076  1.5876 -1.1891 -2.9435
 7719SOL    HW230273   3.190   8.914   4.954  0.0458  1.9878 -0.8335
 7720SOL     OW30274   1.200  11.838   8.077 -0.4842 -1.0172  0.4117
 7720SOL    HW130275   1.126  11.831   8.017 -0.2716 -2.4221  0.2762
 7720SOL    HW230276   1.169  11.798   8.158 -0.4675  0.0580  0.9726
 7721SOL     OW30277   3.929  10.002   6.773  0.0624 -0.3010 -0.8643
 7721SOL    HW130278   3.876   9.931   6.738  0.6942 -1.0252 -0.3754
 7721SOL    HW230279   3.865  10.063   6.811 -0.4477 -2.9929  3.2744
 7722SOL     OW30280  10.605   3.820  11.668 -0.6029  0.0788  0.2472
 7722SOL    HW130281  10.657   3.739  11.661  0.0717  0.3159  1.9538
 7722SOL    HW230282  10.610   3.859  11.581 -1.2632 -1.8873 -0.7486
 7723SOL     OW30283   7.488   6.314   3.682  0.0729 -0.9283  0.0620
 7723SOL    HW130284   7.470   6.222   3.701 -0.0298 -0.5311  2.1658
 7723SOL    HW230285   7.416   6.361   3.725  1.3141  0.2307  0.9303
 7724SOL     OW30286   5.193   6.343   4.247  0.1843  0.3621 -0.4017
 7724SOL    HW130287   5.243   6.313   4.171 -0.7960  0.8882 -1.2798
 7724SOL    HW230288   5.185   6.266   4.303  0.6588 -0.1089 -0.9765
 7725SOL     OW30289   8.314   9.756   7.193  0.3237 -0.0832 -0.5957
 7725SOL    HW130290   8.274   9.825   7.245  0.8430  1.4247 -2.1291
 7725SOL    HW230291   8.363   9.704   7.257 -0.3455  0.7591  0.6384
 7726SOL     OW30292   1.177  10.308  10.824 -0.3160  0.6816 -0.0932
 7726SOL    HW130293   1.095  10.284  10.866 -0.8092 -1.1230 -1.9010
 7726SOL    HW230294   1.155  10.383  10.769 -0.3002  1.3248  0.7573
 7727SOL     OW30295   6.860   7.892  12.728 -0.6588  0.4431 -0.0158
 7727SOL    HW130296   6.829   7.813  12.773 -1.7318  0.4512 -0.7107
 7727SOL    HW230297   6.796   7.959  12.750 -0.9433  0.5700 -1.1401
 7728SOL     OW30298   5.386   1.899   7.373 -0.3604 -0.0462 -0.9279
 7728SOL    HW130299   5.408   1.967   7.436 -0.6529  0.9960 -1.9270
 7728SOL    HW230300   5.360   1.946   7.294 -0.1142 -1.3220 -1.7988
 7729SOL     OW30301   8.715   3.348   3.359  0.4618  0.0863  0.0427
 7729SOL    HW130302   8.726   3.343   3.264 -1.8304 -2.6411 -0.2149
 7729SOL    HW230303   8.801   3.374   3.392  1.9258 -0.9455 -2.6281
 7730SOL     OW30304   2.401   8.157   4.858 -0.0091 -0.1919  0.2537
 7730SOL    HW130305   2.374   8.088   4.918  0.4618 -1.0315 -0.4829
 7730SOL    HW230306   2.323   8.175   4.805 -0.0209 -0.4177  0.1951
 7731SOL     OW30307   8.591   1.424   7.155 -0.2082  0.2300 -0.4361
 7731SOL    HW130308   8.669   1.478   7.150  1.0255 -1.5606 -1.8132
 7731SOL    HW230309   8.581   1.388   7.067 -2.1265 -0.2521 -0.0791
 7732SOL     OW30310  12.314   7.039   2.289 -0.3645  0.6980 -0.3014
 7732SOL    HW130311  12.299   6.944   2.297 -1.2220  0.8097 -0.4801
 7732SOL    HW230312  12.264   7.078   2.361  0.9710  0.9486  0.5171
 7733SOL     OW30313   1.058  12.814   5.752 -0.2270 -0.2296  0.5259
 7733SOL    HW130314   0.994  12.775   5.810 -0.4012  0.0760  0.5431
 7733SOL    HW230315   1.118  12.743   5.730  1.6366  0.2370  3.4586
 7734SOL     OW30316  12.077   7.202  11.906  0.6473 -0.5525 -0.0144
 7734SOL    HW130317  11.996   7.223  11.860  1.1306 -1.1510 -1.1872
 7734SOL    HW230318  12.134   7.277  11.890  0.4194 -0.2443  0.5971
 7735SOL     OW30319   7.975   7.570   2.139 -0.0291  0.0709  0.0928
 7735SOL    HW130320   8.060   7.550   2.179 -0.3876 -0.8883  0.4074
 7735SOL    HW230321   7.980   7.663   2.117  1.1809 -0.0263 -0.0945
 7736SOL     OW30322   5.509  11.375   6.093  0.5366  0.0407 -0.0726
 7736SOL    HW130323   5.474  11.293   6.059  0.6728 -1.1156  2.3273
 7736SOL    HW230324   5.438  11.438   6.080  0.2256 -0.5693 -1.4945
 7737SOL     OW30325   1.865   4.181   2.166 -0.0555  0.4371  0.2212
 7737SOL    HW130326   1.832   4.257   2.215 -1.0456  0.8463 -1.0364
 7737SOL    HW230327   1.815   4.181   2.084  0.7381 -0.9127 -0.2990
 7738SOL     OW30328   9.552  12.069   9.523  0.9384  0.2751  0.2030
 7738SOL    HW130329   9.506  12.048   9.443 -0.1141 -1.3950  1.1975
 7738SOL    HW230330   9.589  12.156   9.507 -3.3681  2.2349 -0.3244
 7739SOL     OW30331   7.302   6.896   0.497  0.1591 -0.2354  0.3285
 7739SOL    HW130332   7.263   6.921   0.413 -0.4686  0.2251  0.7451
 7739SOL    HW230333   7.392   6.926   0.492  0.0241  0.1107 -0.0420
 7740SOL     OW30334  11.694   5.527   6.510  0.1295  0.4910  0.0105
 7740SOL    HW130335  11.622   5.575   6.469  1.3448  2.6228  0.2326
 7740SOL    HW230336  11.765   5.531   6.446  0.9368  0.8875  0.9050
 7741SOL     OW30337   4.419   5.669  10.674 -0.5190 -0.3472  0.2704
 7741SOL    HW130338   4.421   5.581  10.712 -0.8020 -0.0469  1.0090
 7741SOL    HW230339   4.340   5.709  10.710 -0.1380  0.3722  0.3361
 7742SOL     OW30340   3.772   3.146  12.222 -0.2799  0.0908  0.0656
 7742SOL    HW130341   3.839   3.211  12.246  0.6641 -0.7375 -0.2515
 7742SOL    HW230342   3.754   3.162  12.130 -0.7125  0.4729  0.2122
 7743SOL     OW30343   6.121   1.368   8.755  0.6364 -0.3708  0.0551
 7743SOL    HW130344   6.044   1.422   8.737 -0.4267 -0.8060  2.8744
 7743SOL    HW230345   6.177   1.423   8.809  0.0790 -1.5760  1.9655
 7744SOL     OW30346  12.887   3.781   6.205  0.5476 -0.6268 -0.4303
 7744SOL    HW130347  12.806   3.773   6.156  0.4577  0.3495 -0.4585
 7744SOL    HW230348  12.860   3.812   6.292  0.9660  0.9233 -0.8211
 7745SOL     OW30349   9.976   7.512   8.437  0.2024 -0.0969  0.2771
 7745SOL    HW130350   9.991   7.511   8.532 -1.2054  1.5066  0.5669
 7745SOL    HW230351  10.064   7.521   8.399  0.6321  1.4031  1.5265
 7746SOL     OW30352   9.198  10.579  12.393 -0.3287 -0.0016  0.1582
 7746SOL    HW130353   9.116  10.552  12.436 -0.2170  1.8448  1.6814
 7746SOL    HW230354   9.232  10.649  12.449  0.6139  1.5378 -2.2042
 7747SOL     OW30355   0.259   0.468   6.919  0.1785 -0.5485 -0.2239
 7747SOL    HW130356   0.306   0.405   6.973  2.0189  0.5272 -0.4831
 7747SOL    HW230357   0.167   0.444   6.928  0.5766 -1.4231  2.0337
 7748SOL     OW30358   2.169   7.580   3.470 -0.1962 -0.1518  0.5206
 7748SOL    HW130359   2.239   7.524   3.438 -1.0248 -0.8545 -0.0917
 7748SOL    HW230360   2.211   7.666   3.482  0.7529 -0.5497  0.1352
 7749SOL     OW30361   3.270   3.926  12.797  0.4586 -0.2704 -0.3903
 7749SOL    HW130362   3.300   3.967  12.878  1.3708 -1.8526  0.1173
 7749SOL    HW230363   3.175   3.917  12.809  0.4452  0.3596  0.0807
 7750SOL     OW30364   8.734  10.729   5.396 -0.0226  0.4811  0.1745
 7750SOL    HW130365   8.664  10.784   5.428  0.5077  1.6390 -0.5865
 7750SOL    HW230366   8.704  10.700   5.309 -0.1450 -0.1499  0.4214
 7751SOL     OW30367   9.941   4.130  11.440 -0.0271  0.1905  0.2051
 7751SOL    HW130368   9.891   4.052  11.415 -0.2717  0.8019 -1.3321
 7751SOL    HW230369  10.032   4.105  11.430 -0.1131  0.2912 -0.9924
 7752SOL     OW30370   0.252  11.034   6.737 -0.7808  0.5274 -0.0806
 7752SOL    HW130371   0.316  11.096   6.704 -0.4554  1.5565  2.2981
 7752SOL    HW230372   0.284  11.010   6.824 -0.3422 -3.7967 -1.2056
 7753SOL     OW30373   7.178   5.801   0.777 -0.2081  0.1436  0.2297
 7753SOL    HW130374   7.187   5.857   0.700 -0.1299 -0.7218 -0.4079
 7753SOL    HW230375   7.115   5.734   0.750 -1.7890  0.9925  1.6155
 7754SOL     OW30376  11.224   8.883  11.606  0.8636  0.8967 -0.4346
 7754SOL    HW130377  11.319   8.894  11.608  0.7029  2.4957 -0.2973
 7754SOL    HW230378  11.189   8.972  11.615 -0.6663  0.2227  0.6842
 7755SOL     OW30379   0.003   8.006   9.824  0.1336  0.5318  0.1839
 7755SOL    HW130380  -0.087   7.974   9.827  0.5931 -1.0940 -1.5483
 7755SOL    HW230381   0.051   7.938   9.777  2.0927  1.8021  0.2343
 7756SOL     OW30382   2.973  11.340   4.183  0.4888  0.0789  0.2050
 7756SOL    HW130383   2.958  11.428   4.149  0.0700 -0.1978 -0.3441
 7756SOL    HW230384   3.057  11.346   4.228  2.1331 -0.0289 -2.6244
 7757SOL     OW30385   3.479   4.573  12.040 -0.4567 -0.1542 -0.0456
 7757SOL    HW130386   3.421   4.532  11.976 -0.7291  0.0320  0.0788
 7757SOL    HW230387   3.530   4.501  12.077 -0.6399 -0.3245 -0.1244
 7758SOL     OW30388  12.552   5.753   7.492  0.4360 -0.1138  0.7410
 7758SOL    HW130389  12.492   5.679   7.483 -0.6240  0.4837  2.4760
 7758SOL    HW230390  12.599   5.737   7.574  1.0551  0.5508  0.5287
 7759SOL     OW30391   5.103   4.382   5.883  0.5152 -0.0719 -0.4444
 7759SOL    HW130392   5.031   4.395   5.820  0.2436 -1.5165 -0.4508
 7759SOL    HW230393   5.072   4.427   5.962  0.9542  1.9514 -1.3580
 7760SOL     OW30394   5.617  12.407  11.830  0.1759  0.0994 -0.1790
 7760SOL    HW130395   5.628  12.427  11.923  0.2664  0.1621 -0.2037
 7760SOL    HW230396   5.701  12.370  11.803 -0.6369 -2.3390  0.3919
 7761SOL     OW30397   9.582   8.595   1.341  0.5129  0.3026 -0.2183
 7761SOL    HW130398   9.675   8.605   1.324  1.0451 -1.0827  1.6315
 7761SOL    HW230399   9.561   8.664   1.404  0.8018 -0.7282  1.0310
 7762SOL     OW30400   2.885   2.662   3.486 -0.2966 -0.6248  0.4141
 7762SOL    HW130401   2.912   2.753   3.501 -0.5612 -0.1218 -1.7194
 7762SOL    HW230402   2.959   2.609   3.514  0.2656  0.3175  0.7422
 7763SOL     OW30403   1.215  12.117   3.760 -0.6061 -0.1395 -0.0172
 7763SOL    HW130404   1.281  12.068   3.712 -1.0108 -0.1164 -0.5975
 7763SOL    HW230405   1.145  12.054   3.776 -1.6159  0.4995 -1.7169
 7764SOL     OW30406   4.492  12.291  11.657  0.0196 -0.5711  0.2658
 7764SOL    HW130407   4.449  12.376  11.644 -1.1505 -0.4911  3.7429
 7764SOL    HW230408   4.436  12.228  11.613  0.4278  0.3169 -1.6058
 7765SOL     OW30409   5.931   4.298   8.494 -0.2735  0.5012  0.2375
 7765SOL    HW130410   6.012   4.254   8.466 -0.8263  0.0958 -0.7849
 7765SOL    HW230411   5.947   4.321   8.586  0.1971 -1.5034  0.7224
 7766SOL     OW30412   8.292   0.559   9.020  0.1798  0.5279 -0.5324
 7766SOL    HW130413   8.303   0.612   9.098  0.0801  1.3988 -1.0984
 7766SOL    HW230414   8.210   0.512   9.035 -1.0953  2.4657 -1.0940
 7767SOL     OW30415   6.467   1.006   4.844  0.7987 -0.4888  0.3863
 7767SOL    HW130416   6.376   1.029   4.863  0.1447 -1.8870 -0.8456
 7767SOL    HW230417   6.496   1.074   4.783  0.2673 -0.5581  0.0468
 7768SOL     OW30418  12.657   1.322   9.219 -0.7429  0.0012 -0.0314
 7768SOL    HW130419  12.592   1.384   9.252 -1.4323 -1.2185  1.0500
 7768SOL    HW230420  12.707   1.370   9.154 -0.5458  2.0043  1.5193
 7769SOL     OW30421   2.614   3.300   7.004  0.8031  0.6016  0.3528
 7769SOL    HW130422   2.546   3.309   6.938 -0.8578  0.2055  1.9290
 7769SOL    HW230423   2.645   3.390   7.020 -0.1898  0.9321  0.4526
 7770SOL     OW30424   7.189   9.594  12.529 -0.5933 -0.0231  0.0273
 7770SOL    HW130425   7.164   9.532  12.598 -2.4873  0.8697  0.2153
 7770SOL    HW230426   7.252   9.653  12.571  1.0178 -1.5923 -0.0757
 7771SOL     OW30427   7.267   8.649   5.237  0.3799  0.6828  0.0640
 7771SOL    HW130428   7.346   8.598   5.219  1.4368  2.0316  0.6740
 7771SOL    HW230429   7.195   8.587   5.224  1.6002 -1.0801  1.1204
 7772SOL     OW30430  11.252   3.288   7.475 -0.0025  0.5969  0.2752
 7772SOL    HW130431  11.343   3.273   7.503  0.2066  1.3809  0.0481
 7772SOL    HW230432  11.199   3.260   7.549  0.5590  3.6221  1.9950
 7773SOL     OW30433   9.628  10.945   9.804  0.4815  0.0489 -0.0997
 7773SOL    HW130434   9.542  10.927   9.844  1.1106 -0.7263  0.9542
 7773SOL    HW230435   9.661  11.020   9.853  2.6615 -2.8260  3.2581
 7774SOL     OW30436   7.153   9.723   0.485  0.4388  0.6318 -0.1512
 7774SOL    HW130437   7.196   9.701   0.567 -0.2487 -0.6903 -0.1042
 7774SOL    HW230438   7.218   9.771   0.435  1.5343 -0.2273  0.4108
 7775SOL     OW30439  12.478   0.177   7.293  0.3317 -0.2249  0.8116
 7775SOL    HW130440  12.390   0.171   7.256  0.6254  1.4122 -0.2654
 7775SOL    HW230441  12.464   0.184   7.387 -0.7296  0.3837  0.6251
 7776SOL     OW30442   2.485   3.857   8.818  0.0610 -0.4301  0.1336
 7776SOL    HW130443   2.399   3.846   8.859 -0.3415  1.3947 -0.1356
 7776SOL    HW230444   2.470   3.835   8.726 -0.6851  1.9544 -0.3654
 7777SOL     OW30445   0.947  12.482   5.703  0.1401 -0.4916  0.4125
 7777SOL    HW130446   1.016  12.433   5.749 -0.0740 -0.6874  0.5231
 7777SOL    HW230447   0.923  12.552   5.765 -1.0162 -1.4815  1.1331
 7778SOL     OW30448   2.200   2.779   7.248 -0.1198 -0.6198 -0.0027
 7778SOL    HW130449   2.148   2.740   7.318 -1.1779 -2.8446 -1.9014
 7778SOL    HW230450   2.284   2.733   7.254 -0.5035 -1.4298 -0.6855
 7779SOL     OW30451   9.302   9.070   5.177 -0.3153  0.3468 -0.0066
 7779SOL    HW130452   9.389   9.032   5.160  0.2555  2.0429 -1.0490
 7779SOL    HW230453   9.317   9.164   5.178 -2.0528  0.6413  0.4734
 7780SOL     OW30454   6.183   3.305  11.844 -0.1470 -0.2658  0.7948
 7780SOL    HW130455   6.136   3.311  11.927 -0.3426 -1.3413  0.7784
 7780SOL    HW230456   6.133   3.241  11.793  0.6587 -0.5410  0.3272
 7781SOL     OW30457  12.775   0.543   6.509  0.0984  0.0953 -0.1363
 7781SOL    HW130458  12.688   0.559   6.546  0.7235  0.0894  1.3999
 7781SOL    HW230459  12.808   0.630   6.486 -0.4084  0.0730 -0.9813
 7782SOL     OW30460   0.089   1.986   6.942  0.2739  0.1352  0.1740
 7782SOL    HW130461   0.121   2.016   7.027  0.0195 -0.5711  0.5238
 7782SOL    HW230462   0.150   2.026   6.879 -0.3790  1.8476  0.5636
 7783SOL     OW30463   7.922   9.481   1.867  0.1149  0.1150 -0.0111
 7783SOL    HW130464   7.977   9.433   1.929  0.6702 -0.7949 -1.1934
 7783SOL    HW230465   7.949   9.450   1.781 -0.8456  1.1592 -0.7117
 7784SOL     OW30466  10.351  11.112   7.607  0.2747  0.1264 -0.1676
 7784SOL    HW130467  10.294  11.036   7.616 -0.3078  0.4964 -0.6397
 7784SOL    HW230468  10.396  11.119   7.691 -2.0345  1.1599  1.0610
 7785SOL     OW30469   8.659  10.182   4.638  0.2187  0.1817  0.3247
 7785SOL    HW130470   8.740  10.148   4.599  0.4980  0.9021  0.2510
 7785SOL    HW230471   8.590  10.124   4.606  0.7286 -0.5411  0.5174
 7786SOL     OW30472   3.844   9.682  10.437 -0.0246 -0.4499 -0.0596
 7786SOL    HW130473   3.859   9.761  10.488 -1.0290 -1.2578  1.5563
 7786SOL    HW230474   3.845   9.712  10.346 -0.6956  1.4763  0.5174
 7787SOL     OW30475   5.855  10.470   0.618  0.0564 -0.0734  0.1190
 7787SOL    HW130476   5.938  10.448   0.660  0.6090  1.0267 -0.3568
 7787SOL    HW230477   5.874  10.467   0.524 -0.7155 -0.8297 -0.0202
 7788SOL     OW30478   9.134   4.887  12.260  0.1931 -0.1970 -0.3863
 7788SOL    HW130479   9.125   4.972  12.218  1.8892  0.6694  0.8561
 7788SOL    HW230480   9.200   4.841  12.208  0.1308 -0.2944 -0.3808
 7789SOL     OW30481   6.556  11.858   6.513 -0.6235  0.1717 -0.1341
 7789SOL    HW130482   6.543  11.877   6.420  1.2792 -1.9399 -0.9338
 7789SOL    HW230483   6.629  11.914   6.539 -0.0664 -0.4250 -0.3888
 7790SOL     OW30484   6.026   1.835   4.238 -0.0580 -0.3539 -0.5120
 7790SOL    HW130485   5.947   1.855   4.288 -0.0323  1.8152 -1.2337
 7790SOL    HW230486   6.079   1.915   4.245  0.1637 -0.1464 -3.5463
 7791SOL     OW30487   5.838   5.094   2.557  0.5102  0.6927 -0.4266
 7791SOL    HW130488   5.914   5.120   2.506  1.7542 -0.9751  0.4594
 7791SOL    HW230489   5.875   5.053   2.636 -1.2527 -1.4593 -0.6164
 7792SOL     OW30490   2.827   8.746   0.724 -0.2963  0.0867  0.1531
 7792SOL    HW130491   2.875   8.821   0.689 -0.0371 -1.4308 -3.0991
 7792SOL    HW230492   2.735   8.769   0.713 -0.2452  0.5706  0.7084
 7793SOL     OW30493   9.625   4.819   7.309 -0.1171  0.3770 -0.5306
 7793SOL    HW130494   9.699   4.769   7.277  0.6516  1.6732 -0.8469
 7793SOL    HW230495   9.557   4.808   7.243  0.2511  0.2427 -0.8878
 7794SOL     OW30496   6.569  10.088   2.878 -0.3131 -0.0992 -0.5956
 7794SOL    HW130497   6.561  10.056   2.968  0.5661 -0.5580 -0.6668
 7794SOL    HW230498   6.479  10.091   2.845 -0.8757  1.9790  0.9216
 7795SOL     OW30499   9.638   6.629   3.875 -0.4664  0.0654 -0.0572
 7795SOL    HW130500   9.706   6.582   3.922 -0.1814  0.6882  0.1682
 7795SOL    HW230501   9.605   6.693   3.938 -0.6396  0.3656 -0.4458
 7796SOL     OW30502   6.928   2.326   0.861 -0.1762  0.4842  0.6588
 7796SOL    HW130503   6.963   2.402   0.815  3.0083 -0.0879  1.9050
 7796SOL    HW230504   6.941   2.346   0.954 -2.4659 -0.2225  1.2090
 7797SOL     OW30505   1.079  10.166   1.222  0.4205  0.3262 -0.0993
 7797SOL    HW130506   1.039  10.083   1.251  0.6476  1.0246  2.4782
 7797SOL    HW230507   1.006  10.217   1.188  0.0004 -0.3310 -0.2110
 7798SOL     OW30508   6.995   3.454   0.102 -0.2692  0.0592 -0.3142
 7798SOL    HW130509   6.944   3.414   0.032 -1.0187 -1.5805  1.0839
 7798SOL    HW230510   7.080   3.410   0.097 -1.6755 -3.5083  2.4311
 7799SOL     OW30511   4.500   2.755   3.132  0.1263  0.3814  0.4305
 7799SOL    HW130512   4.472   2.708   3.054  1.1000  0.5424 -0.0282
 7799SOL    HW230513   4.482   2.847   3.112  0.6663  0.4523  0.2690
 7800SOL     OW30514  11.109   7.247   4.997 -0.1547 -0.4093 -0.1378
 7800SOL    HW130515  11.035   7.197   4.964 -1.7097  1.8415 -0.2659
 7800SOL    HW230516  11.136   7.302   4.924  1.7783 -1.2920 -0.1320
 7801SOL     OW30517   5.156  11.073   3.235  0.1760  0.0873  0.1735
 7801SOL    HW130518   5.152  10.983   3.266  0.1578  0.1908  0.4746
 7801SOL    HW230519   5.228  11.074   3.172 -0.5141 -0.3818 -0.6406
 7802SOL     OW30520  11.472   0.146   7.350 -0.4450  0.4902  0.0494
 7802SOL    HW130521  11.441   0.206   7.282  2.7372  0.4646 -1.6441
 7802SOL    HW230522  11.488   0.202   7.426 -0.3385  1.2682 -0.5361
 7803SOL     OW30523   6.099  11.741   9.488 -0.2584  0.5712 -0.1557
 7803SOL    HW130524   6.159  11.735   9.563 -2.5662 -1.0234  1.6928
 7803SOL    HW230525   6.087  11.650   9.460  0.1653  1.1028 -2.2095
 7804SOL     OW30526   1.476  12.751   3.807  0.4284 -0.3499 -0.1891
 7804SOL    HW130527   1.501  12.824   3.750  0.1576  0.6690  0.9473
 7804SOL    HW230528   1.444  12.684   3.748 -0.4398  0.9123 -1.2074
 7805SOL     OW30529   6.391   4.048   6.477 -0.3205 -0.5677 -0.0012
 7805SOL    HW130530   6.423   3.961   6.452 -0.3406 -0.4245 -0.5419
 7805SOL    HW230531   6.296   4.043   6.465 -0.3089 -0.4340 -0.1506
 7806SOL     OW30532   8.405   1.552   1.986 -0.3028  0.0359 -0.0236
 7806SOL    HW130533   8.448   1.600   2.057  0.0143  0.1842 -0.3126
 7806SOL    HW230534   8.423   1.604   1.908  0.1863 -0.6395 -0.3673
 7807SOL     OW30535   6.848   7.518  12.687 -0.1017 -0.1893  0.6501
 7807SOL    HW130536   6.828   7.584  12.754 -0.3903 -0.5103  0.8891
 7807SOL    HW230537   6.939   7.493  12.704 -0.1625 -0.2464  0.9108
 7808SOL     OW30538   5.822   1.688   3.944 -0.3115 -0.1800  0.6612
 7808SOL    HW130539   5.767   1.708   3.868  2.0099  1.7720 -0.6182
 7808SOL    HW230540   5.798   1.754   4.009  1.5871  1.7916 -0.5288
 7809SOL     OW30541   4.711   9.020   1.535 -0.0117  0.7662  0.6587
 7809SOL    HW130542   4.652   8.945   1.539  0.0962  0.6131 -0.3513
 7809SOL    HW230543   4.796   8.984   1.561  0.3293  0.2065 -1.1496
 7810SOL     OW30544   4.736   2.864   9.603 -0.5485  0.2123 -0.0163
 7810SOL    HW130545   4.667   2.800   9.622  0.1773 -0.7912 -0.6924
 7810SOL    HW230546   4.694   2.948   9.619 -2.2271 -0.3244 -1.2960
 7811SOL     OW30547   6.875  12.116   9.935 -0.2836 -0.0853 -0.4900
 7811SOL    HW130548   6.852  12.123   9.843  0.6787 -1.8076 -0.8993
 7811SOL    HW230549   6.957  12.165   9.944 -1.6841  2.3800  0.0866
 7812SOL     OW30550  10.599   8.161   9.135  0.2941 -0.0229 -0.3045
 7812SOL    HW130551  10.524   8.172   9.194  0.0600 -1.4403 -0.3066
 7812SOL    HW230552  10.577   8.084   9.082  1.2762  0.1874 -1.0465
 7813SOL     OW30553   6.449   4.793  12.566  0.0673 -0.5393  0.1308
 7813SOL    HW130554   6.458   4.700  12.542  0.2092 -0.1911 -1.2713
 7813SOL    HW230555   6.521   4.836  12.520  1.6994 -0.0483  2.9095
 7814SOL     OW30556   3.969   9.268   9.013 -0.3952  0.0422 -0.5881
 7814SOL    HW130557   4.033   9.335   9.037  0.3730 -1.0800  0.5999
 7814SOL    HW230558   3.931   9.300   8.931  1.3468  0.9697 -1.0851
 7815SOL     OW30559   8.192   4.486   0.592  0.2884  0.0002  0.5515
 7815SOL    HW130560   8.155   4.561   0.639  1.4073  0.0746  1.3579
 7815SOL    HW230561   8.128   4.467   0.524 -0.5164  1.0348  0.9803
 7816SOL     OW30562   3.871   1.677   8.467 -0.2129 -0.2414 -0.3888
 7816SOL    HW130563   3.911   1.592   8.450  1.8936  0.9446 -1.8452
 7816SOL    HW230564   3.921   1.713   8.540 -0.2071  0.2823 -0.6470
 7817SOL     OW30565   0.483  11.875   8.865  0.2543  0.1865  0.3890
 7817SOL    HW130566   0.549  11.876   8.934 -0.2587  2.4248  0.9287
 7817SOL    HW230567   0.408  11.919   8.903 -0.3027  0.8057 -1.3446
 7818SOL     OW30568   9.659   9.074   6.516  0.0557 -0.1649 -0.0208
 7818SOL    HW130569   9.628   9.076   6.426 -1.6798 -0.3406  0.5402
 7818SOL    HW230570   9.626   9.155   6.555  2.2958  0.8126  0.0470
 7819SOL     OW30571   6.503   1.905   0.782 -0.2530 -0.3163  0.2203
 7819SOL    HW130572   6.572   1.879   0.844 -0.3101 -0.9244  0.0326
 7819SOL    HW230573   6.423   1.909   0.835  0.0084  0.9591  0.5640
 7820SOL     OW30574   2.703   0.476   0.705  0.4832  0.1152 -0.0384
 7820SOL    HW130575   2.676   0.534   0.777 -2.0510 -1.0115  0.0451
 7820SOL    HW230576   2.732   0.396   0.749  0.3291 -0.0467 -0.2323
 7821SOL     OW30577   0.831   9.454   8.547 -0.0600 -0.0166  0.2510
 7821SOL    HW130578   0.918   9.462   8.586  0.0984 -1.1123  0.1304
 7821SOL    HW230579   0.776   9.512   8.600  0.4160 -0.5093  1.3021
 7822SOL     OW30580   7.485  12.277   7.189  0.3396  0.1759  0.0288
 7822SOL    HW130581   7.406  12.225   7.206 -0.7562  1.8254  0.2656
 7822SOL    HW230582   7.484  12.292   7.094  0.8469 -0.5231 -0.0880
 7823SOL     OW30583   7.657   0.373   3.796 -0.1629 -0.0822 -0.3192
 7823SOL    HW130584   7.580   0.385   3.741 -0.1617  1.3345 -0.0414
 7823SOL    HW230585   7.709   0.307   3.750  0.1169  1.4437 -2.3305
 7824SOL     OW30586   7.651   1.326   9.071  0.1486  0.2298 -0.4232
 7824SOL    HW130587   7.597   1.249   9.052  1.0907 -0.7700  0.7083
 7824SOL    HW230588   7.597   1.378   9.130 -0.7416  0.7780 -1.6795
 7825SOL     OW30589   1.955  10.565   0.319 -0.3792 -0.4789 -0.1883
 7825SOL    HW130590   1.923  10.655   0.322 -0.1920 -0.4206  0.0513
 7825SOL    HW230591   2.048  10.573   0.299 -0.3877 -0.6262 -0.2972
 7826SOL     OW30592   8.238  12.926   9.012 -0.3512  0.0405 -0.6568
 7826SOL    HW130593   8.248  13.000   8.951 -0.5261 -0.1972 -0.9742
 7826SOL    HW230594   8.307  12.865   8.988 -0.8957 -0.4029 -1.1247
 7827SOL     OW30595  12.513   0.322   1.297 -0.0820  0.0189 -0.2856
 7827SOL    HW130596  12.567   0.382   1.348 -0.0197 -0.6347  0.4463
 7827SOL    HW230597  12.423   0.343   1.322 -0.1519  0.7299 -1.0828
 7828SOL     OW30598   0.877   4.781   2.911  0.1025  0.8237 -0.6114
 7828SOL    HW130599   0.919   4.834   2.843 -2.3807  1.9769 -1.3448
 7828SOL    HW230600   0.886   4.833   2.991 -1.0304  1.6973 -1.0339
 7829SOL     OW30601   3.075   1.433   3.615 -0.7133  0.0930 -0.0139
 7829SOL    HW130602   3.056   1.367   3.682  0.6323 -0.2208  0.0942
 7829SOL    HW230603   3.163   1.410   3.584 -1.0390  0.6303 -1.4222
 7830SOL     OW30604   5.225   3.684   6.043  1.0064 -0.0599 -0.1690
 7830SOL    HW130605   5.159   3.643   5.987  0.2680  1.1694 -0.2558
 7830SOL    HW230606   5.309   3.660   6.005  0.6198 -1.6080 -0.0991
 7831SOL     OW30607   7.540   7.389   1.766 -0.0425  0.0503 -0.4632
 7831SOL    HW130608   7.595   7.452   1.720 -0.3449 -0.8108 -2.0808
 7831SOL    HW230609   7.451   7.409   1.737 -0.0351 -1.9070 -2.1000
 7832SOL     OW30610  10.105   8.697   3.017  0.6651 -0.3251  0.0058
 7832SOL    HW130611  10.027   8.742   2.985  0.1818 -1.3972 -0.3652
 7832SOL    HW230612  10.176   8.729   2.962  0.2386 -0.3929 -0.5956
 7833SOL     OW30613   8.821   8.632   3.703  0.0930 -0.1587 -0.1251
 7833SOL    HW130614   8.911   8.654   3.679  0.8731 -1.6569  1.2369
 7833SOL    HW230615   8.776   8.621   3.619  0.7556  2.0522 -0.8321
 7834SOL     OW30616   5.960   3.487   5.072 -0.3663  0.6812 -0.0563
 7834SOL    HW130617   5.946   3.408   5.124  0.7766  1.1410  0.9758
 7834SOL    HW230618   6.022   3.460   5.004  0.7204  0.8865  0.8305
 7835SOL     OW30619   0.684   7.368   7.193  0.3224 -0.7899  0.6875
 7835SOL    HW130620   0.653   7.382   7.282  0.4079  1.7275  0.3917
 7835SOL    HW230621   0.776   7.394   7.194  0.7336 -2.1394  0.1615
 7836SOL     OW30622  10.089  11.495   5.424  0.7737 -0.1587 -0.8727
 7836SOL    HW130623  10.154  11.492   5.353  0.3712  1.9663 -1.3897
 7836SOL    HW230624  10.013  11.449   5.389  1.4372 -1.3555 -0.8199
 7837SOL     OW30625  10.647   1.561  12.928  0.1828 -0.3527 -0.6087
 7837SOL    HW130626  10.618   1.472  12.908 -0.0758 -0.3712 -0.1720
 7837SOL    HW230627  10.585   1.617  12.881 -0.6615 -0.3910  0.4085
 7838SOL     OW30628   7.174   5.210   0.862  0.4553  0.4555 -0.2735
 7838SOL    HW130629   7.255   5.263   0.863  0.4316  0.5134 -1.2705
 7838SOL    HW230630   7.194   5.137   0.920  1.1013  0.6559 -0.2252
 7839SOL     OW30631   7.465   5.689   9.628  0.0487  0.4190  0.3977
 7839SOL    HW130632   7.489   5.731   9.711  0.0372 -1.2046  1.2566
 7839SOL    HW230633   7.376   5.721   9.610  0.0941  0.8752  0.9473
 7840SOL     OW30634  11.226   7.687   5.157  1.0030  0.2221 -0.2016
 7840SOL    HW130635  11.216   7.593   5.141 -0.1668  0.3224 -0.1338
 7840SOL    HW230636  11.317   7.706   5.134  1.9891 -1.3726  1.9760
 7841SOL     OW30637   6.769   6.614  11.042  0.4164  0.2260  0.1111
 7841SOL    HW130638   6.848   6.587  10.995  0.1550 -1.4249  0.5265
 7841SOL    HW230639   6.715   6.535  11.044 -1.7122  1.5782 -1.0316
 7842SOL     OW30640   6.037   1.726   6.985 -0.3290  0.6764  0.4007
 7842SOL    HW130641   5.968   1.666   6.957  0.4387  0.1426 -0.3936
 7842SOL    HW230642   6.017   1.744   7.077 -1.8807  1.0459  0.0096
 7843SOL     OW30643   1.827   2.808   7.350 -0.3100 -0.1806  0.4156
 7843SOL    HW130644   1.788   2.885   7.392  0.2933 -0.5898  1.7711
 7843SOL    HW230645   1.910   2.796   7.394  0.7831 -0.1407 -1.5051
 7844SOL     OW30646   7.017   1.434   1.757 -0.0578 -0.0607 -0.2226
 7844SOL    HW130647   7.035   1.522   1.726 -0.6802  0.3593  0.5697
 7844SOL    HW230648   6.933   1.441   1.801 -0.3100 -1.1449 -0.5108
 7845SOL     OW30649   7.874   8.632   1.520 -0.3587 -0.7512  0.4674
 7845SOL    HW130650   7.818   8.674   1.455 -0.1515 -1.2804 -0.0550
 7845SOL    HW230651   7.944   8.592   1.470  0.2725 -0.4555  1.0834
 7846SOL     OW30652   8.778   3.192   6.044 -0.0364 -0.3629  0.0252
 7846SOL    HW130653   8.721   3.118   6.022 -0.4098 -0.0918  0.0711
 7846SOL    HW230654   8.853   3.182   5.986 -0.0127 -0.8613  0.1329
 7847SOL     OW30655   8.269   3.267   9.162  0.0755 -0.2944 -0.1905
 7847SOL    HW130656   8.232   3.329   9.225  0.0568 -1.2028  0.7263
 7847SOL    HW230657   8.324   3.209   9.214 -0.6332 -1.6253 -0.8466
 7848SOL     OW30658  11.770   4.837   3.028 -0.0675  0.2676  0.1919
 7848SOL    HW130659  11.815   4.777   3.088 -0.3463  2.5637  2.8941
 7848SOL    HW230660  11.841   4.887   2.986  0.0802 -0.5503 -0.5644
 7849SOL     OW30661  12.064  11.958   9.823  0.2831  0.2855 -0.3284
 7849SOL    HW130662  12.132  11.928   9.883  0.2004  1.7788  0.5521
 7849SOL    HW230663  11.999  11.887   9.823  1.5740 -0.9526 -0.8197
 7850SOL     OW30664   0.852  10.656   2.338  0.6139 -0.2665  0.0427
 7850SOL    HW130665   0.934  10.705   2.334  0.2685  0.2916 -0.3762
 7850SOL    HW230666   0.871  10.573   2.294  1.1384 -0.4175  0.5468
 7851SOL     OW30667   7.397   3.722   6.144  0.1468 -0.4981  0.2943
 7851SOL    HW130668   7.442   3.648   6.186  0.8911 -1.3804 -1.8884
 7851SOL    HW230669   7.466   3.787   6.131  0.5958 -1.3074 -1.8371
 7852SOL     OW30670   9.188  11.494   8.700 -0.5036  0.9692  0.3822
 7852SOL    HW130671   9.152  11.575   8.665 -2.4178  1.2209  2.6694
 7852SOL    HW230672   9.228  11.519   8.783 -1.9499 -0.4960  1.5902
 7853SOL     OW30673   8.850   3.332   3.993 -0.1082 -0.6270  0.3365
 7853SOL    HW130674   8.843   3.316   3.898  0.1516  1.8153 -0.1452
 7853SOL    HW230675   8.889   3.251   4.027  0.6855 -1.2215 -1.7915
 7854SOL     OW30676   1.167   2.619   5.312 -0.6298  0.3606  0.2685
 7854SOL    HW130677   1.089   2.576   5.277  0.3897  0.4305 -2.3701
 7854SOL    HW230678   1.238   2.557   5.295  0.3330  1.5732 -0.3442
 7855SOL     OW30679   4.860   4.154   4.621 -0.3478 -0.6719  0.6374
 7855SOL    HW130680   4.892   4.157   4.531 -1.6021 -2.0282  0.0971
 7855SOL    HW230681   4.923   4.099   4.667 -0.7239 -1.5577  0.1091
 7856SOL     OW30682   9.834   0.164   4.151  0.0145 -0.3123 -0.2276
 7856SOL    HW130683   9.901   0.156   4.083 -1.7493 -1.8143 -1.9074
 7856SOL    HW230684   9.760   0.207   4.107 -1.1342 -1.2182  0.7397
 7857SOL     OW30685   9.236   0.902   4.135 -0.4192  0.5863  0.2754
 7857SOL    HW130686   9.224   0.925   4.043 -0.6051 -0.2259  0.0916
 7857SOL    HW230687   9.298   0.968   4.168  0.1286  0.5183 -0.5808
 7858SOL     OW30688   8.458   1.406   3.733 -0.1756  0.1587 -0.0734
 7858SOL    HW130689   8.450   1.380   3.825 -2.9874 -1.1639 -0.5700
 7858SOL    HW230690   8.500   1.330   3.691 -1.0075 -0.2403 -0.2126
 7859SOL     OW30691  11.674  11.383  12.003  0.2860  0.3715 -0.4424
 7859SOL    HW130692  11.594  11.431  11.981 -0.3800 -1.4291 -2.3160
 7859SOL    HW230693  11.666  11.365  12.096 -1.9887 -0.4987 -0.7243
 7860SOL     OW30694   2.056   2.081   4.772  0.6372 -0.1333 -0.1203
 7860SOL    HW130695   1.987   2.033   4.819  0.6859  1.8306  2.1994
 7860SOL    HW230696   2.136   2.033   4.793  0.2557 -1.2734 -1.1582
 7861SOL     OW30697   3.133   4.559   9.018  0.4229  0.2792  0.2370
 7861SOL    HW130698   3.104   4.518   8.937  2.3665 -0.6658 -0.0408
 7861SOL    HW230699   3.072   4.527   9.085  0.4914 -1.2412 -0.3792
 7862SOL     OW30700  12.959  12.304   1.808 -0.4801 -0.4556 -0.3978
 7862SOL    HW130701  12.889  12.311   1.873  0.2831 -1.5675  0.5849
 7862SOL    HW230702  13.016  12.234   1.841  0.3799 -0.4824 -1.8504
 7863SOL     OW30703   8.857   0.450   3.870  0.5615 -0.0845  0.2508
 7863SOL    HW130704   8.937   0.503   3.874  0.0961  0.6920 -0.3698
 7863SOL    HW230705   8.842   0.422   3.960  1.3369  0.0577  0.4343
 7864SOL     OW30706   9.846   3.576   6.025 -0.0304 -0.0706  0.1096
 7864SOL    HW130707   9.834   3.671   6.033  1.3585  0.1342  0.1544
 7864SOL    HW230708   9.774   3.547   5.970 -0.3277  1.0636 -0.1344
 7865SOL     OW30709   6.538   5.387   5.279 -0.0712 -0.1632 -0.0990
 7865SOL    HW130710   6.564   5.428   5.196  2.0369 -2.0619 -0.4787
 7865SOL    HW230711   6.444   5.370   5.268  0.0024  0.2880 -1.8239
 7866SOL     OW30712   1.741   5.328  12.835 -0.5823  0.1712 -0.0348
 7866SOL    HW130713   1.807   5.343  12.902  0.6767 -0.0059 -1.1996
 7866SOL    HW230714   1.715   5.416  12.807  0.3035  0.2386 -0.6588
 7867SOL     OW30715   2.334  12.912   8.498  0.4526  0.8665 -0.5176
 7867SOL    HW130716   2.429  12.918   8.494  0.5427  2.0530  1.7788
 7867SOL    HW230717   2.306  12.997   8.531 -1.3697  0.3020 -0.5027
 7868SOL     OW30718   0.320   6.788   4.862  0.7124  0.4652 -0.1206
 7868SOL    HW130719   0.390   6.769   4.800 -0.1528 -1.7209 -0.5318
 7868SOL    HW230720   0.294   6.878   4.842  0.9736  0.0809 -2.4286
 7869SOL     OW30721  12.065   3.827   8.368 -0.7253  0.0407  0.0058
 7869SOL    HW130722  12.065   3.842   8.463  0.6823  1.0827 -0.1232
 7869SOL    HW230723  12.010   3.749   8.356 -0.6690 -0.3011  1.6987
 7870SOL     OW30724  12.174   9.868   8.218 -0.7005  0.5679 -0.6689
 7870SOL    HW130725  12.166   9.781   8.256 -0.7116  0.7208 -0.3242
 7870SOL    HW230726  12.155   9.855   8.125  1.5057 -0.1896 -1.0757
 7871SOL     OW30727  10.598  11.662   7.898  0.2409  0.7106  0.4085
 7871SOL    HW130728  10.566  11.720   7.829  1.1028  2.3815  1.3662
 7871SOL    HW230729  10.529  11.663   7.965  0.6083  1.3036  0.7873
 7872SOL     OW30730   4.335  11.420  11.725 -0.5563  0.7409  0.9094
 7872SOL    HW130731   4.247  11.438  11.759 -1.5196  0.5675 -1.3303
 7872SOL    HW230732   4.356  11.496  11.671  0.2515  0.3445  0.6524
 7873SOL     OW30733   3.483   4.095  12.054  0.4133  0.0483  0.0950
 7873SOL    HW130734   3.494   4.000  12.065 -0.4226 -0.0778 -0.0712
 7873SOL    HW230735   3.493   4.109  11.960 -0.8112 -0.0880 -0.0809
 7874SOL     OW30736   5.553   4.143  11.236  0.2798 -0.0708  0.3982
 7874SOL    HW130737   5.586   4.171  11.321  1.9936 -1.4572  0.2519
 7874SOL    HW230738   5.562   4.047  11.237  0.5575 -0.1135 -1.4167
 7875SOL     OW30739   4.826   1.353  12.479  0.0570 -0.3757 -0.0178
 7875SOL    HW130740   4.777   1.281  12.517  0.3815 -0.6092 -0.0416
 7875SOL    HW230741   4.762   1.401  12.427  0.2713 -1.9088 -1.8167
 7876SOL     OW30742   2.877   2.470   2.869 -0.4419  0.0702 -0.2801
 7876SOL    HW130743   2.869   2.423   2.952  0.0298  1.9028  0.8529
 7876SOL    HW230744   2.955   2.524   2.879 -0.5155  0.5200 -1.8277
 7877SOL     OW30745  10.566   1.718   7.468 -0.2907 -0.1143  0.6294
 7877SOL    HW130746  10.556   1.638   7.415 -2.6800  0.6004 -0.1238
 7877SOL    HW230747  10.543   1.690   7.557 -2.7208 -0.0458  0.1104
 7878SOL     OW30748   4.714  12.676   1.122 -0.2681 -0.3997 -0.6003
 7878SOL    HW130749   4.805  12.701   1.106 -0.2552  2.0563  2.4057
 7878SOL    HW230750   4.717  12.620   1.199 -1.2448 -1.3685 -1.2344
 7879SOL     OW30751   8.647  10.923  12.171  0.9376  0.0382  0.3069
 7879SOL    HW130752   8.629  10.968  12.253 -0.9410 -1.7631  1.0057
 7879SOL    HW230753   8.620  10.984  12.103 -0.9412  0.2684  1.1954
 7880SOL     OW30754   8.359   5.501   4.640  0.4385  0.0731 -0.2707
 7880SOL    HW130755   8.362   5.596   4.648 -0.8725  0.0223  1.4135
 7880SOL    HW230756   8.439   5.471   4.683  0.8819  0.4053 -0.8553
 7881SOL     OW30757  10.508   9.001   3.811  0.3653  0.3781  0.3950
 7881SOL    HW130758  10.452   9.070   3.776  0.4337  1.3352  2.0847
 7881SOL    HW230759  10.454   8.922   3.804 -0.2655  0.8461 -0.2434
 7882SOL     OW30760   4.477   5.360   4.022  0.5807 -0.6036 -0.0415
 7882SOL    HW130761   4.525   5.322   3.949 -0.6956  0.0579 -1.2717
 7882SOL    HW230762   4.543   5.374   4.090  1.8578 -0.8966 -1.1899
 7883SOL     OW30763   8.610   2.290   1.195  0.2554 -0.3065  0.1266
 7883SOL    HW130764   8.602   2.382   1.172 -1.3751 -0.1544  1.1227
 7883SOL    HW230765   8.618   2.244   1.111 -0.6387  0.6009 -0.4670
 7884SOL     OW30766  12.191   2.472  11.725  0.7124 -0.4141  0.1454
 7884SOL    HW130767  12.108   2.517  11.711  0.3707 -0.8537  0.7124
 7884SOL    HW230768  12.244   2.496  11.649  0.6006  1.0519  0.5064
 7885SOL     OW30769  11.929   4.346   9.427 -0.3694  0.2157  0.2968
 7885SOL    HW130770  11.969   4.433   9.423  0.8490 -0.3314  0.3220
 7885SOL    HW230771  11.929   4.314   9.337  2.6627 -1.2546  0.7002
 7886SOL     OW30772   9.882   1.868   8.311 -0.0719 -0.2675  0.2105
 7886SOL    HW130773   9.868   1.910   8.225  2.0119  0.0849 -0.0051
 7886SOL    HW230774   9.811   1.902   8.365 -0.6509  0.5671 -1.0087
 7887SOL     OW30775   5.512   2.799   1.929  0.4017 -0.3548  0.3262
 7887SOL    HW130776   5.475   2.855   1.997 -0.7972  1.0379 -1.3552
 7887SOL    HW230777   5.439   2.783   1.869  1.1752 -2.3012 -0.1796
 7888SOL     OW30778   2.628  12.651  12.513 -0.5405  0.3691 -0.4418
 7888SOL    HW130779   2.562  12.657  12.581 -1.1082 -0.6126 -0.8747
 7888SOL    HW230780   2.598  12.579  12.457  1.2206 -0.5378 -0.2900
 7889SOL     OW30781  11.195   1.838  11.996 -0.9872 -0.6438 -0.3014
 7889SOL    HW130782  11.142   1.808  11.922 -0.7913 -0.6979 -0.4211
 7889SOL    HW230783  11.207   1.759  12.050  0.0419 -0.9296 -0.9283
 7890SOL     OW30784  10.934   1.340   8.192  0.5292 -0.1503  0.8448
 7890SOL    HW130785  10.893   1.260   8.224  0.0997 -1.0216 -1.5999
 7890SOL    HW230786  10.897   1.409   8.246 -1.1872 -1.3408  1.2840
 7891SOL     OW30787   2.577   6.992   5.573 -0.2026  0.4647  0.2794
 7891SOL    HW130788   2.483   6.972   5.581 -0.3515 -0.2006 -2.2723
 7891SOL    HW230789   2.621   6.924   5.623 -1.0588  0.3998  0.9678
 7892SOL     OW30790   1.176  10.019   5.209  0.0643  0.3602  0.7221
 7892SOL    HW130791   1.217   9.932   5.203  2.4567  1.4528  0.0316
 7892SOL    HW230792   1.092  10.009   5.163 -0.1644 -1.7983  1.4901
 7893SOL     OW30793   9.334  11.239  11.633 -0.0871  0.1980  0.0028
 7893SOL    HW130794   9.330  11.146  11.652 -1.9746  0.2193 -0.0638
 7893SOL    HW230795   9.418  11.268  11.669 -0.2189 -1.1872  1.5395
 7894SOL     OW30796  11.507   7.984  12.245 -0.4857  0.0088  0.5276
 7894SOL    HW130797  11.594   8.018  12.266  0.6374 -2.9697  1.3191
 7894SOL    HW230798  11.506   7.977  12.150  0.6740 -0.9912  0.5561
 7895SOL     OW30799   1.675   3.499   8.684 -0.4162 -0.0156  0.0198
 7895SOL    HW130800   1.600   3.550   8.713  0.7087 -0.2485  3.8183
 7895SOL    HW230801   1.652   3.408   8.705  0.1077 -0.3691 -0.8574
 7896SOL     OW30802  12.862   6.591   0.240  0.3027 -0.1206  0.1229
 7896SOL    HW130803  12.810   6.656   0.193 -0.8581 -2.0396 -1.4470
 7896SOL    HW230804  12.809   6.568   0.316 -0.1273 -0.5158 -0.2959
 7897SOL     OW30805   6.607  10.628  10.155  0.2164  0.2851 -0.1694
 7897SOL    HW130806   6.515  10.627  10.127 -0.0014  1.8590  0.4354
 7897SOL    HW230807   6.602  10.631  10.250  0.9293 -1.0310 -0.0717
 7898SOL     OW30808  10.829   1.166   4.917 -0.2615 -0.4932 -0.0824
 7898SOL    HW130809  10.808   1.214   4.997  0.5090  0.5868 -0.5043
 7898SOL    HW230810  10.805   1.076   4.936  0.5751 -0.3831  1.6202
 7899SOL     OW30811   7.724   4.520   6.163  0.3681  0.3395 -0.1539
 7899SOL    HW130812   7.726   4.433   6.203 -1.7596  0.3365  0.0307
 7899SOL    HW230813   7.641   4.523   6.115  1.9505  1.0321 -3.0648
 7900SOL     OW30814   6.003  10.653  10.850 -0.2823  0.0435  0.5728
 7900SOL    HW130815   5.941  10.605  10.794  0.7113 -0.7168  0.0706
 7900SOL    HW230816   6.030  10.588  10.915  0.7375  0.0332  0.1619
 7901SOL     OW30817   1.293   9.331   4.355 -0.4697  0.1614  0.3450
 7901SOL    HW130818   1.380   9.319   4.394 -0.1826 -0.8589 -0.5623
 7901SOL    HW230819   1.234   9.342   4.429  0.2877 -0.1590  1.0100
 7902SOL     OW30820   6.972   9.764   9.482 -0.0281  0.9657 -0.6230
 7902SOL    HW130821   7.026   9.750   9.559 -0.5408  1.3118 -0.1851
 7902SOL    HW230822   6.935   9.851   9.495  0.5161  1.3654 -1.6638
 7903SOL     OW30823   4.196   1.551  10.074 -0.1121 -0.3927 -0.5034
 7903SOL    HW130824   4.139   1.615  10.033  2.4138  0.9527 -2.1432
 7903SOL    HW230825   4.209   1.584  10.163  0.1606  0.7135 -0.9409
 7904SOL     OW30826   3.356   0.779   4.188 -0.1487  0.3991  0.3965
 7904SOL    HW130827   3.352   0.790   4.093 -0.8871 -1.8570  0.0959
 7904SOL    HW230828   3.371   0.685   4.200  1.5686  0.8659  2.5155
 7905SOL     OW30829   6.254   6.024   4.906 -0.5649 -0.2275  0.5592
 7905SOL    HW130830   6.287   5.935   4.915 -0.1972 -0.2297 -0.7255
 7905SOL    HW230831   6.160   6.017   4.923 -0.3786 -0.6782  1.4603
 7906SOL     OW30832   7.497   5.925   0.292 -0.0802  0.2066 -0.0002
 7906SOL    HW130833   7.417   5.877   0.267 -0.7239  0.6503  1.1120
 7906SOL    HW230834   7.474   5.966   0.376  1.8810 -1.0691  1.2289
 7907SOL     OW30835   1.878  10.466   7.035 -0.7736 -0.4502 -0.1092
 7907SOL    HW130836   1.969  10.476   7.061 -0.3969  0.3777 -1.6237
 7907SOL    HW230837   1.867  10.528   6.962 -3.0887  0.9570  1.3203
 7908SOL     OW30838   2.227   5.017  12.919  0.0598 -0.2888  0.2244
 7908SOL    HW130839   2.188   4.995  12.834 -1.1198 -1.6276  1.0715
 7908SOL    HW230840   2.245   4.932  12.960  0.3235  0.3361  1.4532
 7909SOL     OW30841   0.037  10.324   4.218 -0.3097 -0.1617  0.0640
 7909SOL    HW130842   0.007  10.396   4.162 -2.4702 -1.2342 -0.2677
 7909SOL    HW230843   0.132  10.334   4.222 -0.2445  0.8648 -2.5065
 7910SOL     OW30844   2.044   4.123   7.313 -0.0127 -0.1092  0.2324
 7910SOL    HW130845   1.998   4.171   7.382 -2.4003 -1.6720 -0.1254
 7910SOL    HW230846   2.050   4.033   7.346  1.7987 -0.2109 -0.2623
 7911SOL     OW30847  11.666   4.379   5.961  0.0469  0.2897 -0.1251
 7911SOL    HW130848  11.615   4.358   5.882 -1.1266 -1.2560  0.9775
 7911SOL    HW230849  11.748   4.414   5.928  0.6173 -2.5660 -2.1477
 7912SOL     OW30850  10.005  11.207   0.710  0.1616  0.1541 -0.1276
 7912SOL    HW130851  10.067  11.208   0.637  0.8448  0.1623  0.4470
 7912SOL    HW230852  10.010  11.118   0.745 -0.1834  0.1432 -0.1009
 7913SOL     OW30853  11.741  11.084   0.473 -0.3978  0.3386 -0.5435
 7913SOL    HW130854  11.756  11.138   0.551  1.5795  0.4158 -0.9177
 7913SOL    HW230855  11.689  11.011   0.504  0.7070  0.1426  0.9823
 7914SOL     OW30856   1.164   3.202   3.349  0.1277 -0.1174 -0.0756
 7914SOL    HW130857   1.215   3.254   3.411 -0.5538 -1.6543  1.9253
 7914SOL    HW230858   1.192   3.112   3.366 -2.7038 -0.9479  0.6351
 7915SOL     OW30859   8.811  10.451  10.805 -0.6280  0.6951  0.1177
 7915SOL    HW130860   8.839  10.461  10.896  0.6451 -0.0348 -0.1717
 7915SOL    HW230861   8.737  10.390  10.809  0.0981 -0.1792  0.5774
 7916SOL     OW30862   6.369  10.572  10.068 -0.0235 -0.2938  0.0033
 7916SOL    HW130863   6.297  10.516  10.096  0.1623 -0.8981 -0.7052
 7916SOL    HW230864   6.331  10.626   9.998  0.9159 -2.6551 -2.4796
 7917SOL     OW30865   8.580  12.314   0.797  0.4566  0.0554 -0.5612
 7917SOL    HW130866   8.503  12.365   0.770  0.1126 -0.7757 -1.1716
 7917SOL    HW230867   8.546  12.251   0.860  0.6733 -0.1799 -0.6800
 7918SOL     OW30868   1.897   7.869   4.163 -0.1586  0.4521 -0.2015
 7918SOL    HW130869   1.802   7.880   4.165 -0.1875  0.2187 -0.2491
 7918SOL    HW230870   1.929   7.946   4.115 -0.5030 -0.5298 -2.0846
 7919SOL     OW30871   5.117   9.426   9.710 -0.4448 -0.1250 -0.0367
 7919SOL    HW130872   5.028   9.460   9.700 -0.7561 -1.0909 -0.7528
 7919SOL    HW230873   5.110   9.334   9.687  0.4401 -0.6195  1.5430
 7920SOL     OW30874   8.032   3.651   6.141 -0.3617  0.2925 -0.1862
 7920SOL    HW130875   8.111   3.681   6.185 -0.0181  1.3757 -1.4994
 7920SOL    HW230876   7.970   3.632   6.212  0.4308  1.2597  0.7752
 7921SOL     OW30877   4.453   8.490   7.054 -0.5036 -0.6368 -0.4209
 7921SOL    HW130878   4.398   8.459   6.983 -0.9891  0.1206 -0.3869
 7921SOL    HW230879   4.512   8.417   7.073 -0.8673 -1.1100 -1.0912
 7922SOL     OW30880  10.389  10.802   4.364  0.0386  0.5156 -0.3716
 7922SOL    HW130881  10.302  10.830   4.393 -0.0831  0.3472 -0.5745
 7922SOL    HW230882  10.417  10.870   4.302 -0.4731 -0.0641 -1.2589
 7923SOL     OW30883  11.475   0.634   9.665 -0.4440  0.2501 -0.0665
 7923SOL    HW130884  11.418   0.711   9.669 -0.6370  0.1144 -0.1870
 7923SOL    HW230885  11.563   0.669   9.663 -0.5451  0.6015 -3.0656
 7924SOL     OW30886   3.901   1.871   6.545  0.2387  0.1563 -0.1646
 7924SOL    HW130887   3.828   1.853   6.486  1.1590  0.3298 -1.4000
 7924SOL    HW230888   3.937   1.784   6.565 -0.6601  0.0200  0.9508
 7925SOL     OW30889   4.645   4.686   5.587 -0.0858  0.3242 -0.7955
 7925SOL    HW130890   4.685   4.658   5.504  0.1340  0.3315 -0.6936
 7925SOL    HW230891   4.667   4.779   5.594  1.1826 -0.0077 -0.0112
 7926SOL     OW30892  12.019  10.876   7.204  0.0449  0.2049  0.1370
 7926SOL    HW130893  12.091  10.888   7.142 -1.2195  0.5318 -1.3351
 7926SOL    HW230894  11.943  10.859   7.149 -1.2434  1.0091  1.5877
 7927SOL     OW30895   4.462   0.475  10.944  0.4111  0.1538 -0.0757
 7927SOL    HW130896   4.492   0.439  11.028 -0.3275 -0.5131 -0.0888
 7927SOL    HW230897   4.425   0.561  10.966  1.5122  0.6134  0.0637
 7928SOL     OW30898   4.801   0.903  10.750  0.1657 -0.6962 -0.0021
 7928SOL    HW130899   4.738   0.964  10.710 -1.6565 -1.4940  1.4952
 7928SOL    HW230900   4.857   0.877  10.678  0.3190  1.8726 -0.9303
 7929SOL     OW30901  11.174  11.397   3.607 -0.0820 -0.0224  0.2980
 7929SOL    HW130902  11.135  11.483   3.594 -0.7449 -0.4349 -0.5563
 7929SOL    HW230903  11.222  11.405   3.689 -1.5380  0.6581  1.1366
 7930SOL     OW30904   0.536   5.299   5.526  0.2546  0.3523  0.1393
 7930SOL    HW130905   0.592   5.376   5.514  0.4928  0.0359 -0.8597
 7930SOL    HW230906   0.493   5.314   5.611  0.9311  1.1760  0.3523
 7931SOL     OW30907   8.407  12.468   2.345  0.1109  0.0778  0.2593
 7931SOL    HW130908   8.369  12.393   2.299  1.1385 -1.3446  1.6389
 7931SOL    HW230909   8.427  12.530   2.275 -0.3287 -1.1226 -0.9916
 7932SOL     OW30910   1.427   6.917   2.953  0.5405  0.2384  0.0215
 7932SOL    HW130911   1.480   6.923   2.874  2.0898 -2.2756  0.7698
 7932SOL    HW230912   1.361   6.851   2.933  0.9483 -0.4277  0.7890
 7933SOL     OW30913   5.857   4.704   6.828 -0.2235 -0.4402 -0.4995
 7933SOL    HW130914   5.816   4.621   6.802  0.0932 -0.9681  0.6189
 7933SOL    HW230915   5.785   4.767   6.826 -0.5211 -0.7843 -1.1378
 7934SOL     OW30916   0.414   7.477   0.483 -0.1710 -0.6690 -0.1115
 7934SOL    HW130917   0.499   7.440   0.460 -0.4814 -0.9888 -0.7826
 7934SOL    HW230918   0.402   7.455   0.575 -0.0782 -1.7198 -0.3405
 7935SOL     OW30919   7.664   8.681   3.115 -0.3311  0.3857  0.3233
 7935SOL    HW130920   7.677   8.615   3.047  0.6543  0.0852  0.7889
 7935SOL    HW230921   7.682   8.635   3.197 -2.1003  0.5744  0.8710
 7936SOL     OW30922   9.935   0.556   1.115 -0.1492 -0.1433  0.0217
 7936SOL    HW130923   9.936   0.624   1.048  0.7417 -0.7465 -0.5901
 7936SOL    HW230924  10.015   0.506   1.101 -1.0606 -1.6975  0.0561
 7937SOL     OW30925   9.719  10.041   5.939  0.1176  0.0911  0.4380
 7937SOL    HW130926   9.736   9.951   5.966 -0.0353 -0.5612 -1.4674
 7937SOL    HW230927   9.715  10.091   6.021  1.2233 -1.4386  1.4722
 7938SOL     OW30928  11.580   2.407   0.462 -0.6070  0.5271 -0.3984
 7938SOL    HW130929  11.582   2.413   0.367  2.4683 -0.6884 -0.5253
 7938SOL    HW230930  11.540   2.322   0.480 -0.4516  0.3975 -0.6597
 7939SOL     OW30931   5.788   8.986   4.616  0.0416  0.1978  0.0195
 7939SOL    HW130932   5.877   9.016   4.628  0.0665  0.3635 -0.5602
 7939SOL    HW230933   5.780   8.971   4.521 -0.1209 -1.1241  0.2261
 7940SOL     OW30934   4.582  12.926  12.577 -0.3961  0.2819 -0.9843
 7940SOL    HW130935   4.625  12.999  12.532 -0.0538 -0.1734 -1.4068
 7940SOL    HW230936   4.593  12.852  12.517  1.3098 -0.6822  0.4522
 7941SOL     OW30937   7.524   0.296   8.103  0.3909 -0.4707 -0.0991
 7941SOL    HW130938   7.435   0.284   8.137  0.9262  0.4104  1.7621
 7941SOL    HW230939   7.569   0.345   8.172  2.3583 -0.9895 -0.9522
 7942SOL     OW30940   9.244  12.177   6.183  0.7875 -0.9829  0.2714
 7942SOL    HW130941   9.217  12.269   6.185  0.1178 -1.1270 -1.1756
 7942SOL    HW230942   9.200  12.138   6.259 -0.5841 -0.5411 -0.2676
 7943SOL     OW30943  12.675   7.350   1.018  0.0124 -0.2247  0.3516
 7943SOL    HW130944  12.630   7.325   0.938 -0.1924 -0.3502  0.5045
 7943SOL    HW230945  12.742   7.283   1.030 -0.6070 -0.7756  0.8200
 7944SOL     OW30946   7.826   7.203   3.811  0.1406 -0.1104 -0.2584
 7944SOL    HW130947   7.914   7.239   3.815  0.6365 -1.2118 -0.9080
 7944SOL    HW230948   7.816   7.173   3.720 -0.9126  0.0170 -0.2033
 7945SOL     OW30949   9.322   6.611   4.271 -0.2575 -0.2098 -0.1482
 7945SOL    HW130950   9.243   6.578   4.227 -0.1272 -0.4111 -0.2346
 7945SOL    HW230951   9.376   6.533   4.283  0.2199  0.0300 -0.6913
 7946SOL     OW30952   3.667   7.741   8.748 -0.5297 -0.3367 -0.1113
 7946SOL    HW130953   3.612   7.668   8.778  0.9516 -1.6837 -0.5743
 7946SOL    HW230954   3.635   7.816   8.798 -2.4113 -1.1820  0.0438
 7947SOL     OW30955  12.403   8.044   8.309 -0.4646  0.6277 -0.0532
 7947SOL    HW130956  12.382   8.100   8.384 -2.3456  1.9937 -1.4921
 7947SOL    HW230957  12.366   8.091   8.234 -1.3118 -2.1090 -1.4762
 7948SOL     OW30958   2.493  10.072  11.075 -0.1160  0.4942  0.0651
 7948SOL    HW130959   2.446  10.074  10.992  1.8771 -1.3437 -1.2346
 7948SOL    HW230960   2.425  10.067  11.142 -1.7898 -1.5283 -1.6564
 7949SOL     OW30961   6.147   1.934   7.239 -0.5876  0.4327  0.3256
 7949SOL    HW130962   6.072   1.879   7.214 -0.7007  0.2706  0.9930
 7949SOL    HW230963   6.107   2.011   7.279 -0.5377  2.1633 -2.6555
 7950SOL     OW30964  12.705   7.956   8.812  0.0502 -1.0379  0.2375
 7950SOL    HW130965  12.623   7.960   8.861 -0.6570  1.3724 -0.9661
 7950SOL    HW230966  12.738   7.867   8.827 -2.1065 -1.6612  1.7902
 7951SOL     OW30967   7.594   1.965  10.295  0.9639  0.3163 -0.1720
 7951SOL    HW130968   7.617   2.056  10.313  0.2871  0.4204  0.2493
 7951SOL    HW230969   7.630   1.947  10.209 -1.2070  1.8550 -1.5051
 7952SOL     OW30970   7.867  11.870   7.799  0.5033 -0.3568 -0.2968
 7952SOL    HW130971   7.881  11.963   7.812 -1.2665 -0.1191  0.2062
 7952SOL    HW230972   7.924  11.827   7.862  1.5421  0.3539 -0.7251
 7953SOL     OW30973   1.849  12.784   2.002  0.0033 -0.2103 -0.5913
 7953SOL    HW130974   1.842  12.808   1.909 -0.8767 -2.0703 -1.0563
 7953SOL    HW230975   1.883  12.695   2.001 -2.3229 -1.2022  0.7215
 7954SOL     OW30976  12.644   1.864   4.212  0.3591 -0.3568 -0.1204
 7954SOL    HW130977  12.672   1.868   4.303 -0.4640 -2.1905  0.2695
 7954SOL    HW230978  12.723   1.841   4.163  0.7961  0.6017  0.1067
 7955SOL     OW30979   4.593  12.470   7.176  0.1404 -0.1830 -0.0554
 7955SOL    HW130980   4.585  12.393   7.120  1.9343  0.4496 -1.2686
 7955SOL    HW230981   4.645  12.440   7.251 -2.4264 -1.0802  1.5178
 7956SOL     OW30982  12.339   6.654   4.811 -0.2020  0.0411 -0.3310
 7956SOL    HW130983  12.412   6.712   4.787 -0.8221  0.7646 -0.5419
 7956SOL    HW230984  12.264   6.689   4.761 -0.9000 -0.1117  0.5802
 7957SOL     OW30985   3.449   1.677   8.884  0.0847 -0.3229 -0.6719
 7957SOL    HW130986   3.496   1.664   8.967 -2.6775 -0.2856  1.0580
 7957SOL    HW230987   3.460   1.770   8.865 -1.9267  0.4960  1.5853
 7958SOL     OW30988   7.396  11.153   3.549  0.2240  0.0580  0.4125
 7958SOL    HW130989   7.335  11.183   3.617 -1.0710 -2.8022  0.6644
 7958SOL    HW230990   7.346  11.088   3.499  2.1621 -0.2151 -1.3015
 7959SOL     OW30991   4.806   9.123   1.261 -0.5165  0.0006  0.0649
 7959SOL    HW130992   4.714   9.147   1.274  0.1685  2.4068  1.1419
 7959SOL    HW230993   4.852   9.167   1.333  1.7410  0.7780 -1.7572
 7960SOL     OW30994  12.294   1.678   2.564  0.0872  0.1981  0.0201
 7960SOL    HW130995  12.222   1.739   2.548  0.3334  1.5435  3.2775
 7960SOL    HW230996  12.368   1.715   2.516 -1.0167 -0.6798 -2.5708
 7961SOL     OW30997   2.124  12.754  11.256  0.5720 -0.5052  0.9304
 7961SOL    HW130998   2.095  12.845  11.249  0.8030 -0.5358 -0.7594
 7961SOL    HW230999   2.216  12.760  11.279  0.8583 -0.2765 -0.2392
 7962SOL     OW31000   0.559   6.420  12.715  0.3469  0.0635 -0.5235
 7962SOL    HW131001   0.603   6.353  12.663 -1.4544 -0.4599 -1.4626
 7962SOL    HW231002   0.492   6.456  12.657 -1.4937 -0.2581  1.2540
 7963SOL     OW31003   0.632   0.632   6.685  0.1580 -0.3382  0.3072
 7963SOL    HW131004   0.690   0.615   6.610 -0.0878 -1.7308  0.4214
 7963SOL    HW231005   0.651   0.723   6.708  2.0767 -0.6528  0.1421
 7964SOL     OW31006   5.849   4.223   0.152  0.1566 -0.0104  0.7648
 7964SOL    HW131007   5.889   4.279   0.086 -0.0021 -0.0400  0.6432
 7964SOL    HW231008   5.860   4.272   0.234  0.1408  0.1370  0.6800
 7965SOL     OW31009  10.634   1.031  10.588  0.1680  0.4498 -0.2049
 7965SOL    HW131010  10.623   1.021  10.493  0.9049 -0.3547 -0.2167
 7965SOL    HW231011  10.641   0.942  10.621 -1.5209  0.6405  0.8177
 7966SOL     OW31012   5.367  10.611   9.511 -0.1982 -0.1272  0.8770
 7966SOL    HW131013   5.410  10.545   9.457 -0.4417 -0.2633  0.8485
 7966SOL    HW231014   5.382  10.581   9.601  1.7765  1.0511  0.9920
 7967SOL     OW31015   2.902   1.331   4.792  0.0322 -0.0612  0.2020
 7967SOL    HW131016   2.939   1.299   4.710  1.8728 -0.3222  1.0771
 7967SOL    HW231017   2.975   1.331   4.853 -0.6695  2.5959  1.1926
 7968SOL     OW31018  10.545   8.878   5.094 -0.2631  0.8254  0.1370
 7968SOL    HW131019  10.548   8.862   5.000  2.8367  0.3386  0.1939
 7968SOL    HW231020  10.579   8.967   5.104  0.9400  0.3102  0.8424
 7969SOL     OW31021   2.244   3.234   0.630  0.0354  0.2545  0.2870
 7969SOL    HW131022   2.260   3.212   0.722 -0.6538 -2.6100 -0.2095
 7969SOL    HW231023   2.177   3.303   0.633 -1.3452 -1.0660  1.9570
 7970SOL     OW31024   9.392   3.039   0.807 -0.4070 -0.2394  0.5777
 7970SOL    HW131025   9.358   3.010   0.722  1.2586 -0.2589 -0.1244
 7970SOL    HW231026   9.465   3.098   0.785 -0.4242  0.3460  1.9978
 7971SOL     OW31027   5.173  10.677   6.212 -0.3327 -0.1393 -0.3441
 7971SOL    HW131028   5.123  10.595   6.213 -0.6110 -0.0220 -1.7670
 7971SOL    HW231029   5.218  10.676   6.127  1.2301  0.2809  0.4403
 7972SOL     OW31030   5.930   6.318   5.820  0.3589  0.1041  0.4044
 7972SOL    HW131031   5.979   6.251   5.772  0.0221  0.4660 -0.4713
 7972SOL    HW231032   5.923   6.284   5.908  1.9776 -0.0811  0.5064
 7973SOL     OW31033   5.230   0.535   3.361  0.0803 -0.1397  0.1505
 7973SOL    HW131034   5.168   0.607   3.371 -1.9441 -1.8278  0.3764
 7973SOL    HW231035   5.316   0.575   3.376 -0.9773  2.1482  0.5226
 7974SOL     OW31036   1.087   1.418   3.523  0.0246  0.8198 -0.1725
 7974SOL    HW131037   1.000   1.434   3.487  0.0291 -0.5444 -0.8894
 7974SOL    HW231038   1.072   1.400   3.616 -0.4963  0.4252 -0.3273
 7975SOL     OW31039  12.665   9.013   5.767 -0.0989 -0.5831 -0.0017
 7975SOL    HW131040  12.706   8.976   5.688  0.4125 -0.4309  0.1870
 7975SOL    HW231041  12.701   8.961   5.839  1.7965  1.1722  0.4253
 7976SOL     OW31042   1.709   8.112   0.152 -0.2845  0.1352 -0.0758
 7976SOL    HW131043   1.648   8.111   0.226 -0.7199 -1.3571 -0.4235
 7976SOL    HW231044   1.787   8.155   0.186 -1.4026  1.8352  0.4648
 7977SOL     OW31045  10.502   1.668   4.466  0.4871 -0.7178  0.2046
 7977SOL    HW131046  10.535   1.637   4.550 -0.1915 -1.1545  0.3195
 7977SOL    HW231047  10.480   1.760   4.482 -0.2012 -0.9541  0.6845
 7978SOL     OW31048   9.162   7.027   2.421 -0.1630  0.2297  0.6674
 7978SOL    HW131049   9.187   6.937   2.403  0.1128 -0.1829  2.8253
 7978SOL    HW231050   9.244   7.071   2.443 -0.1555  1.3037 -1.2792
 7979SOL     OW31051  12.232   3.196   1.974  0.5972  0.3669  0.4157
 7979SOL    HW131052  12.206   3.104   1.966 -0.7281  0.7621  0.0508
 7979SOL    HW231053  12.201   3.223   2.060  3.3360 -0.2188  1.7083
 7980SOL     OW31054  10.297  11.667   1.768  0.6868 -0.9189  0.0292
 7980SOL    HW131055  10.333  11.633   1.849 -0.6325 -0.2086  0.9564
 7980SOL    HW231056  10.326  11.606   1.701  0.8958 -2.1329  1.1929
 7981SOL     OW31057  11.000   3.305   0.051  0.2615  0.4922 -0.3667
 7981SOL    HW131058  10.906   3.302   0.036  0.4746  0.8718 -1.9341
 7981SOL    HW231059  11.031   3.217   0.026  0.6472  1.1948 -2.6037
 7982SOL     OW31060   3.701   1.913   8.765 -0.0952  0.5094  0.8093
 7982SOL    HW131061   3.613   1.918   8.803 -0.1269  1.8075  0.6119
 7982SOL    HW231062   3.687   1.874   8.679 -0.6192  1.5230  0.4163
 7983SOL     OW31063   4.647   3.548   7.005 -0.6308  0.2833 -0.3895
 7983SOL    HW131064   4.732   3.569   7.043  0.0371 -1.1312 -1.0365
 7983SOL    HW231065   4.603   3.632   6.995 -0.5367  0.8107  2.7526
 7984SOL     OW31066   9.388   8.335   7.787 -0.2734 -0.2141  0.0942
 7984SOL    HW131067   9.469   8.308   7.829 -1.1086 -1.4246  1.0063
 7984SOL    HW231068   9.378   8.275   7.713 -0.3855 -0.1158  0.0286
 7985SOL     OW31069   3.860   0.016  12.504 -0.1558  0.5526  0.1056
 7985SOL    HW131070   3.813  -0.055  12.460 -1.4735  1.2735  0.3025
 7985SOL    HW231071   3.800   0.047  12.571  0.4664  1.7292  0.1487
 7986SOL     OW31072   9.720   0.562   3.809  0.5915  0.5365  0.1179
 7986SOL    HW131073   9.728   0.593   3.719  2.9015  1.1528  0.4707
 7986SOL    HW231074   9.810   0.557   3.841 -0.1375 -0.0562  2.2788
 7987SOL     OW31075   6.910   2.940   9.295  0.2591 -0.0011  0.3705
 7987SOL    HW131076   6.945   2.852   9.302  1.4662  0.4629  0.3659
 7987SOL    HW231077   6.817   2.931   9.315 -0.6087 -1.9284 -3.5364
 7988SOL     OW31078  11.403  12.759   1.844  0.2343 -0.2248 -0.4553
 7988SOL    HW131079  11.314  12.794   1.845 -0.0117 -0.8469 -0.0634
 7988SOL    HW231080  11.450  12.814   1.780  0.5056  2.3109  1.7717
 7989SOL     OW31081   2.588  11.647   9.216  0.0405 -0.3713 -0.9249
 7989SOL    HW131082   2.621  11.712   9.155 -0.0737  0.4361 -0.1389
 7989SOL    HW231083   2.498  11.631   9.188 -0.2696  0.5825 -0.4964
 7990SOL     OW31084   1.277   9.701   5.865 -0.6900 -0.0170 -0.0753
 7990SOL    HW131085   1.343   9.723   5.799 -0.6773 -0.8450 -0.3444
 7990SOL    HW231086   1.304   9.617   5.900  0.8007  1.5271  2.9085
 7991SOL     OW31087  11.759  11.483   5.894  0.0521  0.1183  0.2895
 7991SOL    HW131088  11.698  11.485   5.820  1.0061  1.7285 -0.5021
 7991SOL    HW231089  11.761  11.391   5.920 -1.0413 -0.3313 -1.0582
 7992SOL     OW31090  12.494   9.735   8.559 -0.3433 -0.0682 -0.2943
 7992SOL    HW131091  12.518   9.643   8.567 -0.2437 -0.0012  0.2061
 7992SOL    HW231092  12.563   9.782   8.607 -0.9502  0.1931  0.3426
 7993SOL     OW31093   2.317   0.046   5.247 -0.0940  0.3824  0.2843
 7993SOL    HW131094   2.367   0.104   5.304  1.2420 -0.0615 -0.3928
 7993SOL    HW231095   2.336   0.078   5.158 -0.4144 -0.2631 -0.0208
 7994SOL     OW31096   5.821   9.503   2.690 -0.3242  0.5146 -0.5293
 7994SOL    HW131097   5.768   9.565   2.640  0.1969 -0.2473 -2.0895
 7994SOL    HW231098   5.900   9.551   2.712 -0.4227  0.7642 -0.7199
 7995SOL     OW31099   2.876   7.173  11.601  0.2947  0.1432 -0.0002
 7995SOL    HW131100   2.857   7.224  11.522 -2.1913 -0.7961 -0.0876
 7995SOL    HW231101   2.904   7.087  11.568  1.1099  0.3342  0.1650
 7996SOL     OW31102   7.397   1.439  12.652  0.1006 -0.3654 -0.4433
 7996SOL    HW131103   7.464   1.464  12.716  0.6432 -0.6779 -0.8783
 7996SOL    HW231104   7.363   1.522  12.619  0.8856 -0.1910 -0.8420
 7997SOL     OW31105  11.247  11.281   3.144  0.2650  0.4113 -0.3149
 7997SOL    HW131106  11.335  11.262   3.112  1.0799 -0.9841  2.4433
 7997SOL    HW231107  11.249  11.374   3.166  1.3750  0.2119  0.5172
 7998SOL     OW31108  11.231   4.640   9.779 -0.1145 -0.4589  0.0567
 7998SOL    HW131109  11.143   4.663   9.810 -0.5625 -2.1304  0.1020
 7998SOL    HW231110  11.255   4.563   9.830  0.7776 -0.8792 -0.9617
 7999SOL     OW31111  12.414   8.239   5.049  0.1514  0.4251 -0.0818
 7999SOL    HW131112  12.344   8.188   5.010  0.3851 -0.2989  0.4096
 7999SOL    HW231113  12.450   8.182   5.118  1.7375  0.4411 -0.8399
 8000SOL     OW31114   7.188   1.639   5.504 -0.3410 -0.3135 -0.0945
 8000SOL    HW131115   7.147   1.630   5.590 -0.4996 -1.2667 -0.2642
 8000SOL    HW231116   7.234   1.557   5.491 -0.5761 -0.2964 -1.0594
 8001SOL     OW31117   7.497  10.671   6.246  0.7773 -0.0648 -0.6867
 8001SOL    HW131118   7.573  10.613   6.238  0.4560 -0.4910 -0.6664
 8001SOL    HW231119   7.445  10.633   6.316  0.1294 -0.2459 -1.2552
 8002SOL     OW31120   7.346  11.659   6.220 -0.0521  0.2705  0.1289
 8002SOL    HW131121   7.375  11.686   6.308 -0.0512 -0.5740  0.4007
 8002SOL    HW231122   7.400  11.711   6.160  0.9361 -0.1340  0.6345
 8003SOL     OW31123   6.549   8.837   4.366 -0.5948 -0.1145  0.2174
 8003SOL    HW131124   6.606   8.910   4.340  0.0493 -0.6196  0.1908
 8003SOL    HW231125   6.461   8.868   4.348 -0.3893  1.0007  1.0063
 8004SOL     OW31126   4.773   8.829   9.878 -0.3896  0.2745 -0.0669
 8004SOL    HW131127   4.836   8.850   9.809 -1.2740  1.0091 -0.6764
 8004SOL    HW231128   4.765   8.910   9.929 -0.4012  0.0063  0.3617
 8005SOL     OW31129  12.615   2.984  10.220 -0.2559  0.2026 -0.0062
 8005SOL    HW131130  12.557   3.054  10.250 -3.2327 -1.3030 -1.7604
 8005SOL    HW231131  12.618   2.995  10.125  2.2850  0.1009  0.0111
 8006SOL     OW31132  11.892   5.112   9.903 -0.8746  0.1623 -0.7112
 8006SOL    HW131133  11.977   5.109   9.860 -0.3094  0.1779  0.3546
 8006SOL    HW231134  11.900   5.053   9.978 -0.6524  2.5674  1.3205
 8007SOL     OW31135  11.027   6.453   5.443  0.2620  0.4910 -0.4701
 8007SOL    HW131136  11.091   6.499   5.389  1.9921 -0.7222  0.4154
 8007SOL    HW231137  10.988   6.388   5.384  2.9913 -1.6431 -0.1676
 8008SOL     OW31138   6.247   2.409  12.507  0.4783 -0.7237  0.2918
 8008SOL    HW131139   6.255   2.459  12.589  0.3305 -3.3024  2.0167
 8008SOL    HW231140   6.158   2.372  12.511  1.2619 -2.7601  0.1895
 8009SOL     OW31141   7.527  10.551   6.762 -0.4949  0.4364 -0.3968
 8009SOL    HW131142   7.577  10.567   6.682 -1.9179  1.6745 -1.0625
 8009SOL    HW231143   7.551  10.623   6.820  0.3264 -0.3126  0.2241
 8010SOL     OW31144  10.590   9.679  11.573  0.6679 -0.0301 -0.3998
 8010SOL    HW131145  10.563   9.622  11.645 -0.3668 -0.1696 -0.8873
 8010SOL    HW231146  10.509   9.712  11.536  1.1733 -0.1544 -1.6644
 8011SOL     OW31147   1.696   8.632  11.746 -0.0132  0.0041  0.0582
 8011SOL    HW131148   1.682   8.726  11.761 -0.6475 -0.1537  0.5205
 8011SOL    HW231149   1.720   8.597  11.832  0.6216 -0.1881 -0.1990
 8012SOL     OW31150   2.861   6.641   3.039 -0.5010 -0.2833 -0.2274
 8012SOL    HW131151   2.850   6.735   3.021 -0.3907  0.1626  1.8007
 8012SOL    HW231152   2.884   6.603   2.954  2.4850  2.0139 -0.6224
 8013SOL     OW31153   9.101   0.527   2.394 -0.2941 -0.2777  0.3508
 8013SOL    HW131154   9.034   0.460   2.385 -0.9970  0.4276  0.1454
 8013SOL    HW231155   9.181   0.488   2.359 -0.6034 -1.1156  0.5707
 8014SOL     OW31156   8.309  10.127   4.106 -0.0923  0.2160  0.5934
 8014SOL    HW131157   8.376  10.185   4.071  0.6791  0.4426  2.3434
 8014SOL    HW231158   8.238  10.131   4.042  0.2213  2.5478  0.2905
 8015SOL     OW31159  11.788   2.750   5.581 -0.4447 -0.7502 -0.5025
 8015SOL    HW131160  11.744   2.666   5.590  0.1563 -0.8844  1.6481
 8015SOL    HW231161  11.730   2.813   5.623  1.2994 -0.9430  2.4376
 8016SOL     OW31162   6.437   5.592   8.115 -0.7421 -0.0503 -0.0830
 8016SOL    HW131163   6.382   5.517   8.135 -2.0529  1.1286  0.8595
 8016SOL    HW231164   6.521   5.572   8.156 -0.9845 -1.1126 -0.0865
 8017SOL     OW31165   8.169   0.331   4.390 -0.0298 -0.8664  0.2515
 8017SOL    HW131166   8.254   0.289   4.404 -0.1901 -1.2843  0.0187
 8017SOL    HW231167   8.165   0.346   4.296 -0.7563 -2.0760  0.0570
 8018SOL     OW31168  11.290   2.870   8.034 -0.6849  0.0836 -0.0160
 8018SOL    HW131169  11.268   2.951   7.988  0.9335  0.4039 -0.2992
 8018SOL    HW231170  11.326   2.813   7.966  0.2454 -0.0332  0.5538
 8019SOL     OW31171   5.120   1.354   1.513 -0.1373  0.5175  0.1733
 8019SOL    HW131172   5.071   1.288   1.464  1.9385 -1.3788  0.4774
 8019SOL    HW231173   5.072   1.363   1.595  0.3265 -1.8502  0.7839
 8020SOL     OW31174   8.167  12.069   0.624  0.4898 -0.5984 -0.1087
 8020SOL    HW131175   8.109  12.021   0.564  0.8866 -0.9287 -0.2266
 8020SOL    HW231176   8.241  12.010   0.638  0.4861 -0.4473  0.5616
 8021SOL     OW31177   7.961   7.393   7.454 -0.2912 -0.2991  0.2339
 8021SOL    HW131178   7.980   7.426   7.542 -1.1720  0.1049  0.2748
 8021SOL    HW231179   7.930   7.303   7.469 -0.1326 -0.3431  0.3045
 8022SOL     OW31180  11.363   8.178   3.405  0.7485 -0.4282  0.6641
 8022SOL    HW131181  11.340   8.200   3.315 -0.1050  2.7154  1.5406
 8022SOL    HW231182  11.457   8.196   3.411  0.2676  2.3510  1.0709
 8023SOL     OW31183   6.969   4.910   6.065 -0.1292  0.1455  0.1825
 8023SOL    HW131184   7.005   4.977   6.006  0.2361  0.0625  0.3095
 8023SOL    HW231185   6.913   4.960   6.126 -1.2149  0.1258 -0.7661
 8024SOL     OW31186   0.990   8.835   1.513  0.1887  0.3218  0.1559
 8024SOL    HW131187   0.961   8.760   1.460  0.5573 -0.0264  0.4479
 8024SOL    HW231188   1.023   8.796   1.594 -1.5530  0.9182  1.2012
 8025SOL     OW31189   4.870  10.159   6.640  0.0415 -0.0951 -0.1148
 8025SOL    HW131190   4.856  10.245   6.600 -0.1753 -0.8118 -1.6440
 8025SOL    HW231191   4.952  10.128   6.602 -0.2078 -0.8385 -0.0622
 8026SOL     OW31192   8.974   5.473   3.074 -0.2911 -0.4590  0.1946
 8026SOL    HW131193   8.889   5.435   3.095 -0.0011 -0.9280  0.5402
 8026SOL    HW231194   9.025   5.400   3.037  0.0798 -0.2802  0.3410
 8027SOL     OW31195  10.986  10.265  10.348 -0.2526  0.3794 -0.0946
 8027SOL    HW131196  10.892  10.261  10.365 -0.0869  0.1360  0.8634
 8027SOL    HW231197  11.019  10.323  10.416  0.3016  0.3811 -0.3659
 8028SOL     OW31198   5.542   5.661   8.269 -0.1506 -0.0955  0.3675
 8028SOL    HW131199   5.576   5.702   8.349  2.5577 -2.0834  0.3660
 8028SOL    HW231200   5.516   5.573   8.297 -0.8772 -0.2101 -0.6260
 8029SOL     OW31201  10.998  10.066   5.967  0.7450 -0.3283 -0.2030
 8029SOL    HW131202  10.987   9.978   6.001 -1.6838  0.5688  1.6210
 8029SOL    HW231203  10.914  10.088   5.927  0.0389  2.2463  2.3297
 8030SOL     OW31204  11.311  11.476   2.640 -0.5738 -0.1604  0.3607
 8030SOL    HW131205  11.368  11.470   2.564  0.5605  0.1274  1.1538
 8030SOL    HW231206  11.227  11.441   2.611  0.0917 -0.8595 -0.7649
 8031SOL     OW31207  12.731   0.242   2.223 -0.4661 -0.0557  0.1740
 8031SOL    HW131208  12.709   0.191   2.145 -0.3039  1.5915 -1.0156
 8031SOL    HW231209  12.666   0.312   2.225 -0.7319 -0.3173  1.8049
 8032SOL     OW31210  11.006   1.495   7.952 -0.1309 -0.1846 -0.1705
 8032SOL    HW131211  10.967   1.464   8.034  1.3327  1.7545  1.3606
 8032SOL    HW231212  10.935   1.542   7.909 -0.6192 -0.2069  0.5782
 8033SOL     OW31213   4.321   1.765   5.437 -0.0191 -0.8087  0.1843
 8033SOL    HW131214   4.282   1.804   5.516  0.3226 -2.0184  0.9762
 8033SOL    HW231215   4.298   1.672   5.442  1.2896 -1.1815 -0.3503
 8034SOL     OW31216   7.494  10.924   9.434  0.6572 -0.0405  0.2718
 8034SOL    HW131217   7.537  10.968   9.508  0.4677 -1.2443  1.1289
 8034SOL    HW231218   7.534  10.963   9.356  1.2366  0.8829  1.0103
 8035SOL     OW31219   0.569   0.079   7.532 -0.4592 -0.3280  0.3389
 8035SOL    HW131220   0.524   0.156   7.565 -0.8824 -0.6584  0.5539
 8035SOL    HW231221   0.498   0.018   7.510 -0.1222 -0.8272  0.6146
 8036SOL     OW31222   2.971   8.566  10.165  0.2088  0.3129 -0.3642
 8036SOL    HW131223   2.912   8.611  10.225 -0.0571  0.5843 -0.8273
 8036SOL    HW231224   2.946   8.473  10.172 -0.0205  0.3800 -0.2878
 8037SOL     OW31225   1.657  12.634   4.987  0.1528  0.1950  0.2893
 8037SOL    HW131226   1.607  12.684   4.922  1.9898  0.9873 -0.5775
 8037SOL    HW231227   1.663  12.546   4.950  0.3545  0.3895 -0.1445
 8038SOL     OW31228   3.668  11.234   5.241 -0.0674 -0.0961  0.1612
 8038SOL    HW131229   3.614  11.281   5.304 -0.6691  2.3908 -2.0174
 8038SOL    HW231230   3.608  11.172   5.200 -0.2445 -0.1430  0.4886
 8039SOL     OW31231  11.291   2.320  10.759 -0.5881  0.3246  0.5948
 8039SOL    HW131232  11.215   2.339  10.815  0.6877 -1.3220  3.0990
 8039SOL    HW231233  11.268   2.239  10.714 -1.1852  1.0728 -0.4957
 8040SOL     OW31234   6.686   7.731   0.262 -0.2655 -0.2636  0.0120
 8040SOL    HW131235   6.639   7.792   0.320 -1.2417 -0.3559 -0.6484
 8040SOL    HW231236   6.646   7.744   0.176  0.2643 -1.0593 -0.3698
 8041SOL     OW31237   3.008   8.609   8.287 -0.0179 -0.0635  0.2552
 8041SOL    HW131238   3.048   8.628   8.202 -2.5819 -0.4929 -1.1514
 8041SOL    HW231239   2.928   8.661   8.288 -0.7266 -1.1036  1.8110
 8042SOL     OW31240   4.692  11.024   5.798  0.1070 -0.8401  0.3867
 8042SOL    HW131241   4.645  10.950   5.838  0.1250  0.0421  2.1116
 8042SOL    HW231242   4.692  11.092   5.865  1.5495  0.1466 -0.5596
 8043SOL     OW31243   8.918  12.732   4.770 -0.6411  0.1434  0.4745
 8043SOL    HW131244   8.872  12.649   4.762 -1.2400  0.5160  0.0128
 8043SOL    HW231245   8.982  12.731   4.698 -0.8481  0.2093  0.2896
 8044SOL     OW31246   2.803   8.478   2.526  0.3910 -0.0499 -0.2046
 8044SOL    HW131247   2.779   8.528   2.448  1.2514 -1.0130 -1.1118
 8044SOL    HW231248   2.869   8.416   2.496  0.8034 -0.3952  1.3115
 8045SOL     OW31249   1.202   2.013   3.030 -0.5365 -0.2433 -0.2175
 8045SOL    HW131250   1.258   2.069   2.976  1.9645 -2.6289 -0.3207
 8045SOL    HW231251   1.234   2.025   3.119 -0.5411 -0.8471 -0.1269
 8046SOL     OW31252   5.944  11.995   9.573  0.1264 -0.1038  0.1052
 8046SOL    HW131253   5.862  11.948   9.581  0.9165 -1.1689  4.3555
 8046SOL    HW231254   6.010  11.927   9.559  0.5604  0.5832 -1.4818
 8047SOL     OW31255   0.988   8.135   4.259 -0.3066  0.1734  0.2602
 8047SOL    HW131256   0.968   8.228   4.250 -2.0690 -0.3606 -2.7566
 8047SOL    HW231257   0.939   8.107   4.336 -1.9700  1.2494 -0.3628
 8048SOL     OW31258   3.108   1.179   8.879 -0.0639 -0.2946  0.5227
 8048SOL    HW131259   3.119   1.240   8.952  1.6212 -1.7581  1.5704
 8048SOL    HW231260   3.150   1.099   8.908  0.9490 -0.8601 -2.1764
 8049SOL     OW31261  12.031   3.527   3.087 -0.7411  0.0717 -0.5258
 8049SOL    HW131262  12.091   3.601   3.081 -1.4635  0.6393 -0.8357
 8049SOL    HW231263  12.000   3.513   2.998  0.7937 -1.8136 -0.8187
 8050SOL     OW31264   2.181   7.080   1.989  0.6738 -0.0230 -0.2679
 8050SOL    HW131265   2.155   7.147   1.926 -0.2414  0.0623  0.1811
 8050SOL    HW231266   2.274   7.094   2.003  0.2322  2.0697  0.8741
 8051SOL     OW31267   2.743  11.776   4.453 -0.2819 -0.4461  0.5219
 8051SOL    HW131268   2.700  11.824   4.524 -0.6560 -0.3743  0.2508
 8051SOL    HW231269   2.779  11.698   4.494 -2.3497 -1.5120  0.4220
 8052SOL     OW31270  12.552   8.998   0.748  0.0225  0.0486 -0.2237
 8052SOL    HW131271  12.489   8.958   0.688  0.1595 -1.9304  0.8752
 8052SOL    HW231272  12.501   9.019   0.826  0.1462  1.2480 -0.4419
 8053SOL     OW31273   1.117   9.535   9.588 -0.2005 -0.1423  0.4172
 8053SOL    HW131274   1.180   9.598   9.553 -0.7715  0.1345 -0.1144
 8053SOL    HW231275   1.086   9.575   9.669 -0.9481  0.5136 -0.1797
 8054SOL     OW31276   5.263   6.687  12.605 -0.0639 -0.0582 -0.5048
 8054SOL    HW131277   5.343   6.732  12.578  0.0254  0.8110  1.0516
 8054SOL    HW231278   5.195   6.755  12.603  0.1913  0.4160  2.4486
 8055SOL     OW31279   2.350   2.570  12.791 -0.2158 -0.2365 -0.0007
 8055SOL    HW131280   2.327   2.480  12.769  2.0559 -0.7115 -0.7835
 8055SOL    HW231281   2.392   2.563  12.877  0.4760 -0.0463 -0.3122
 8056SOL     OW31282  10.729   3.190   8.195 -0.3776 -0.2924  0.1692
 8056SOL    HW131283  10.752   3.283   8.198  0.3980 -0.4901  1.0406
 8056SOL    HW231284  10.808   3.146   8.226 -0.4354 -1.3086 -1.0487
 8057SOL     OW31285   2.486   5.707  11.984 -0.1870 -0.3362 -0.0809
 8057SOL    HW131286   2.489   5.656  12.065  1.2292  0.4920  0.4167
 8057SOL    HW231287   2.474   5.797  12.013 -0.5321 -0.1273 -0.8470
 8058SOL     OW31288  12.920  11.822  12.689  0.8317  0.4207 -0.1604
 8058SOL    HW131289  12.924  11.915  12.668  0.1647  0.9910  2.0163
 8058SOL    HW231290  12.895  11.780  12.607  0.5089  2.2265 -1.0263
 8059SOL     OW31291  10.079   5.369   8.266 -0.9922  0.1947 -0.7426
 8059SOL    HW131292  10.043   5.450   8.303  0.4203  0.0534  1.0776
 8059SOL    HW231293  10.167   5.394   8.237 -0.9062 -0.4702 -1.0588
 8060SOL     OW31294   6.766   9.570  11.016  0.1863  0.0553  0.6437
 8060SOL    HW131295   6.734   9.528  11.096 -1.3239  0.9784  0.5770
 8060SOL    HW231296   6.843   9.619  11.043 -0.7483  0.9808  1.7404
 8061SOL     OW31297   8.813   5.196   0.219 -0.0810 -0.2054 -0.0012
 8061SOL    HW131298   8.873   5.252   0.169  3.2677 -2.1483  1.4466
 8061SOL    HW231299   8.827   5.108   0.183 -0.5016 -1.0227  1.7206
 8062SOL     OW31300   9.807   5.125  11.571  0.5450  0.3380 -0.8637
 8062SOL    HW131301   9.897   5.093  11.582  0.8238  1.2460 -0.3733
 8062SOL    HW231302   9.791   5.180  11.648  0.5630  2.4092 -2.2465
 8063SOL     OW31303   5.529  11.010   1.841  0.1241  0.2967  0.1375
 8063SOL    HW131304   5.523  10.928   1.889 -1.8982  1.1351  1.4266
 8063SOL    HW231305   5.582  11.067   1.897  1.3126 -0.0058 -0.6379
 8064SOL     OW31306   2.364   7.184   7.901  0.5920  0.0521 -0.6598
 8064SOL    HW131307   2.324   7.097   7.894  0.1914  0.2371 -0.6893
 8064SOL    HW231308   2.413   7.194   7.819  0.3088  0.0153 -0.8360
 8065SOL     OW31309   8.291  10.978   7.670 -0.0981  0.3365  0.1702
 8065SOL    HW131310   8.333  10.964   7.585 -1.0465 -0.4061 -0.1874
 8065SOL    HW231311   8.203  11.007   7.649 -0.3193  0.2093  0.9072
 8066SOL     OW31312   7.210   7.722  11.087 -0.3087 -0.2963  0.0466
 8066SOL    HW131313   7.123   7.702  11.121 -0.7234 -0.5652 -1.1411
 8066SOL    HW231314   7.262   7.740  11.165 -1.0782 -1.4792  0.8626
 8067SOL     OW31315   1.540   2.086   9.368  0.3119  0.2882  0.6511
 8067SOL    HW131316   1.525   2.090   9.273  0.8531  0.0664  0.5522
 8067SOL    HW231317   1.458   2.052   9.403  0.3579 -0.3205  0.1858
 8068SOL     OW31318  12.910  11.901  11.284 -0.0076 -0.6404 -0.4346
 8068SOL    HW131319  12.847  11.849  11.236 -1.0651  1.0612 -0.9781
 8068SOL    HW231320  12.984  11.912  11.224 -0.8061  0.4638 -1.2362
 8069SOL     OW31321   1.055   0.880   4.489 -0.0752 -0.1941  0.1858
 8069SOL    HW131322   0.998   0.835   4.426  2.0585 -3.1275  0.1521
 8069SOL    HW231323   1.028   0.847   4.574  0.0658  0.2376  0.4032
 8070SOL     OW31324   5.888   5.359   2.015 -0.2712  0.6279 -0.2325
 8070SOL    HW131325   5.916   5.449   2.031  0.9003  0.7185 -2.3642
 8070SOL    HW231326   5.952   5.326   1.951 -0.5311 -1.7964  0.6571
 8071SOL     OW31327   9.090   1.604   6.890 -0.4980 -0.1868  0.2183
 8071SOL    HW131328   9.023   1.602   6.959 -0.2520 -0.7788  0.4529
 8071SOL    HW231329   9.075   1.523   6.841 -0.1973 -0.1310  0.0382
 8072SOL     OW31330   1.849   3.636   1.906 -0.4899  0.1393  0.0712
 8072SOL    HW131331   1.799   3.558   1.930 -0.8164  0.6929  1.3322
 8072SOL    HW231332   1.934   3.603   1.878 -0.1978 -0.6302  1.7428
 8073SOL     OW31333  11.388   2.154   8.141 -0.1397  0.2693  0.0674
 8073SOL    HW131334  11.333   2.194   8.075 -0.4440  0.8539  0.6597
 8073SOL    HW231335  11.434   2.227   8.182  0.0460 -0.0783  0.4952
 8074SOL     OW31336  12.121   4.534   5.578  0.0938  0.8556 -0.7222
 8074SOL    HW131337  12.136   4.532   5.673 -2.6801 -0.3139 -0.2007
 8074SOL    HW231338  12.125   4.627   5.556  1.5515  1.0915  0.3534
 8075SOL     OW31339   4.360   7.467   6.886 -0.8058 -0.2812  0.1555
 8075SOL    HW131340   4.345   7.562   6.877  0.1564 -0.2292 -1.2094
 8075SOL    HW231341   4.272   7.431   6.899 -1.1060  0.8591  1.6052
 8076SOL     OW31342   1.984   1.453   4.041 -0.2077  0.6873 -0.1614
 8076SOL    HW131343   1.991   1.502   3.959 -0.8538  1.1622  0.0514
 8076SOL    HW231344   2.064   1.401   4.046 -0.0618  0.8273 -0.9816
 8077SOL     OW31345  10.711  12.097   1.447 -0.1918  0.1089 -0.1273
 8077SOL    HW131346  10.666  12.060   1.522 -2.3884  4.7591  1.2175
 8077SOL    HW231347  10.642  12.109   1.381  0.3831  1.5545 -0.5009
 8078SOL     OW31348   6.783   2.315   8.786 -0.0091 -0.2688 -0.2909
 8078SOL    HW131349   6.782   2.336   8.693  0.3107  0.1578 -0.1980
 8078SOL    HW231350   6.778   2.399   8.831  0.2718 -0.4397  0.0769
 8079SOL     OW31351   6.596   6.761   9.084  0.1209 -0.2035  0.0731
 8079SOL    HW131352   6.582   6.855   9.089  1.3671  0.1800 -2.2107
 8079SOL    HW231353   6.629   6.737   9.171 -0.9740  1.2910  0.9383
 8080SOL     OW31354   2.227  10.051   3.257 -0.1500  0.1815 -0.1432
 8080SOL    HW131355   2.173  10.103   3.316 -1.1258  0.0732 -0.9229
 8080SOL    HW231356   2.225   9.963   3.294 -0.5275  0.1746 -0.1773
 8081SOL     OW31357   6.540  10.176   7.782  0.0569 -0.3048  0.0095
 8081SOL    HW131358   6.514  10.088   7.811 -2.7267  1.0991  2.2110
 8081SOL    HW231359   6.581  10.215   7.859  2.1558  0.1300 -1.2281
 8082SOL     OW31360  11.289   7.973   8.415  0.3797 -0.0713 -0.0519
 8082SOL    HW131361  11.286   7.939   8.504  0.9628  1.3382  0.5368
 8082SOL    HW231362  11.199   7.996   8.394  0.4747  1.1757  0.8375
 8083SOL     OW31363  12.429   4.858  10.171  0.2962 -0.0079  0.2216
 8083SOL    HW131364  12.507   4.898  10.208 -0.8226  1.7839  0.7335
 8083SOL    HW231365  12.359   4.876  10.234 -0.7171 -0.8659 -0.5979
 8084SOL     OW31366  10.135   7.269   8.157 -0.0627  0.3200 -0.1245
 8084SOL    HW131367  10.050   7.236   8.128  0.1990  1.2807 -2.2042
 8084SOL    HW231368  10.183   7.284   8.075  1.6232  1.0151  0.9547
 8085SOL     OW31369   3.090  11.483   3.954  0.3375  0.0082 -0.0115
 8085SOL    HW131370   3.068  11.545   3.885 -2.2724 -0.8842 -0.0974
 8085SOL    HW231371   3.139  11.535   4.018 -0.1472  1.6884 -0.9347
 8086SOL     OW31372   3.242   1.378   5.880 -0.2462  0.4626 -0.1083
 8086SOL    HW131373   3.160   1.365   5.832  0.0084  0.3495 -0.5201
 8086SOL    HW231374   3.237   1.319   5.955 -0.7541  0.8157  0.1405
 8087SOL     OW31375  11.433   3.309   3.541 -0.4424 -0.7656 -0.0468
 8087SOL    HW131376  11.414   3.402   3.543 -1.3341 -0.9560  0.5553
 8087SOL    HW231377  11.444   3.284   3.633  3.4616 -0.5521 -0.2618
 8088SOL     OW31378   0.759   4.027   3.724 -0.6023 -0.3584  0.0221
 8088SOL    HW131379   0.845   3.989   3.706 -0.0040  0.7206  0.4998
 8088SOL    HW231380   0.697   3.956   3.708  0.3765 -1.1432 -0.3580
 8089SOL     OW31381   1.988   5.439   5.248  0.0598 -0.7542 -0.3852
 8089SOL    HW131382   2.004   5.384   5.325  0.4997 -0.6327 -0.3868
 8089SOL    HW231383   1.927   5.506   5.279  1.1740  0.0162  0.1951
 8090SOL     OW31384   7.539  11.236   7.826 -0.5489 -0.0704 -0.3297
 8090SOL    HW131385   7.564  11.246   7.734  0.6249 -0.6190 -0.0906
 8090SOL    HW231386   7.460  11.288   7.835 -0.5134  0.2326 -1.5830
 8091SOL     OW31387   7.085   9.064   1.603 -0.5060 -0.1003 -0.1884
 8091SOL    HW131388   7.117   9.151   1.579 -1.2249  0.1002 -0.4629
 8091SOL    HW231389   7.051   9.075   1.693  0.3467 -0.3575  0.1714
 8092SOL     OW31390   1.649  10.662   2.217  0.1177 -0.1760  0.0413
 8092SOL    HW131391   1.605  10.746   2.201 -1.2119 -0.7578  0.5365
 8092SOL    HW231392   1.706  10.650   2.141 -1.1669  0.2231 -1.0137
 8093SOL     OW31393   0.318   5.059  11.941  0.2697 -0.0841 -0.0547
 8093SOL    HW131394   0.399   5.049  11.990  0.7262  0.6240 -0.6359
 8093SOL    HW231395   0.249   5.050  12.006  0.8514  0.6872  0.7001
 8094SOL     OW31396   2.181  10.113   4.807  0.3381 -0.0984 -0.0409
 8094SOL    HW131397   2.126  10.043   4.770  0.9729 -0.4042 -0.4266
 8094SOL    HW231398   2.120  10.169   4.855 -0.4314  0.0125 -1.1156
 8095SOL     OW31399   8.550   8.302   8.168  0.0874 -0.5307  0.5924
 8095SOL    HW131400   8.482   8.368   8.161 -0.2829 -0.9012  0.6466
 8095SOL    HW231401   8.630   8.351   8.185 -0.2477 -0.1214  1.0197
 8096SOL     OW31402   6.353   6.046   6.050  0.4721  0.2739 -0.0004
 8096SOL    HW131403   6.328   6.042   6.142 -0.6608 -1.9809 -0.3365
 8096SOL    HW231404   6.448   6.032   6.050  0.7133  1.7255  0.8731
 8097SOL     OW31405  10.522   8.104   8.010 -0.2779 -0.0348 -0.4723
 8097SOL    HW131406  10.523   8.195   7.982 -1.7731  0.2350  0.2646
 8097SOL    HW231407  10.536   8.054   7.930  1.3976  0.8307 -0.7621
 8098SOL     OW31408  10.800  12.017   9.061  0.3579  0.1171 -0.3882
 8098SOL    HW131409  10.840  12.104   9.063  1.2911 -0.3035  1.5602
 8098SOL    HW231410  10.760  12.007   9.147 -2.9932 -0.0007 -1.7830
 8099SOL     OW31411   2.640  12.210   0.125 -0.6543 -0.2766 -0.2134
 8099SOL    HW131412   2.642  12.123   0.087  1.6392 -0.8995  1.1329
 8099SOL    HW231413   2.651  12.195   0.219  0.0243  1.4474  0.0209
 8100SOL     OW31414   4.590   7.017  12.680  0.4021 -0.4273 -0.3523
 8100SOL    HW131415   4.507   7.019  12.729  0.4994  0.3621 -0.2159
 8100SOL    HW231416   4.657   7.024  12.748  0.6220 -1.8925 -0.3864
 8101SOL     OW31417   6.231   5.539  10.103  0.0021  0.7474 -0.4460
 8101SOL    HW131418   6.242   5.448  10.130 -1.1337  0.7285  0.0100
 8101SOL    HW231419   6.283   5.546  10.022 -1.0758 -0.7024 -1.3168
 8102SOL     OW31420   1.222   0.678   4.771 -0.1503  0.2269  0.2263
 8102SOL    HW131421   1.129   0.694   4.754 -0.2506 -0.9058 -0.4188
 8102SOL    HW231422   1.232   0.692   4.865 -0.7538  1.3370  0.1421
 8103SOL     OW31423   7.687   6.026   7.040  0.0197 -0.1232  0.3915
 8103SOL    HW131424   7.743   6.104   7.035 -0.1898  0.1284  1.6290
 8103SOL    HW231425   7.716   5.971   6.967 -0.6836  1.6447 -1.2863
 8104SOL     OW31426  12.466   2.160   4.484 -0.0404  0.7645  0.1646
 8104SOL    HW131427  12.501   2.127   4.402  0.8880  0.2104  0.7666
 8104SOL    HW231428  12.416   2.087   4.520 -0.8169  1.1511 -0.1028
 8105SOL     OW31429   2.147  10.314   1.542 -0.1351  0.0873 -0.0093
 8105SOL    HW131430   2.163  10.318   1.447  0.0123  0.5505  0.0333
 8105SOL    HW231431   2.234  10.327   1.580 -0.3344  0.8255  0.2021
 8106SOL     OW31432   7.980   2.563   9.948 -0.4485 -0.0440  0.6149
 8106SOL    HW131433   8.016   2.508  10.018  1.1692 -0.8212 -0.7636
 8106SOL    HW231434   8.057   2.598   9.903 -1.4100 -0.4648 -1.4764
 8107SOL     OW31435   5.001   3.300   5.070  0.0281 -0.4368  0.1421
 8107SOL    HW131436   4.951   3.239   5.124 -0.2016  0.0446  0.4792
 8107SOL    HW231437   4.972   3.387   5.099 -2.2487 -0.0977 -2.6288
 8108SOL     OW31438   1.724  12.930   1.393 -0.1627  0.3519  0.3008
 8108SOL    HW131439   1.774  12.987   1.451 -0.3987 -0.1478  1.0298
 8108SOL    HW231440   1.638  12.925   1.435 -0.9357  1.4469 -1.0921
 8109SOL     OW31441   0.011   6.323   4.750 -0.2058 -0.4404  0.6463
 8109SOL    HW131442  -0.051   6.272   4.698 -0.5691 -2.7485  3.0921
 8109SOL    HW231443   0.086   6.336   4.692 -0.9350 -2.0668 -0.7594
 8110SOL     OW31444   2.807   7.258   9.184  0.6128 -0.1040  0.1483
 8110SOL    HW131445   2.901   7.274   9.196  0.2980  1.4469  0.6589
 8110SOL    HW231446   2.786   7.194   9.252  1.2221 -0.2089  0.2499
 8111SOL     OW31447   2.497   0.394   4.045  0.0188  0.7473  0.1551
 8111SOL    HW131448   2.449   0.367   3.968  0.7716 -1.2854  0.3338
 8111SOL    HW231449   2.475   0.486   4.057 -1.3138  0.6847 -1.5630
 8112SOL     OW31450  10.825   0.143   3.293 -0.0427 -0.1780 -0.3305
 8112SOL    HW131451  10.874   0.224   3.285 -0.8309  0.3812  0.2430
 8112SOL    HW231452  10.799   0.140   3.385 -0.1634 -0.9988 -0.3822
 8113SOL     OW31453   9.318  12.814   8.003  0.5417  0.2358  0.7348
 8113SOL    HW131454   9.402  12.848   8.033  0.5477  0.2297  0.7229
 8113SOL    HW231455   9.318  12.722   8.032  1.1749 -0.1963 -0.5655
 8114SOL     OW31456   0.091   4.155   6.358 -0.0294 -0.0824  0.1876
 8114SOL    HW131457   0.170   4.208   6.350 -0.3360  1.1371  3.4600
 8114SOL    HW231458   0.092   4.125   6.449 -2.7364 -0.9927  0.0126
 8115SOL     OW31459  11.514  10.509   0.642  0.0444 -0.4376  1.1579
 8115SOL    HW131460  11.555  10.437   0.594 -0.2088 -1.8229  2.8963
 8115SOL    HW231461  11.486  10.571   0.574  1.4735 -1.3297 -0.3010
 8116SOL     OW31462   1.615   5.879   5.478  0.0059 -0.4210  0.2177
 8116SOL    HW131463   1.684   5.813   5.489  0.0143 -0.3771  0.4442
 8116SOL    HW231464   1.559   5.867   5.555  0.5231  0.4509  0.7512
 8117SOL     OW31465   2.731   7.942   2.297 -0.3061 -0.7521  0.6728
 8117SOL    HW131466   2.815   7.962   2.339 -0.4850  1.6360  0.0303
 8117SOL    HW231467   2.668   7.996   2.344 -1.5001 -2.2911  0.9466
 8118SOL     OW31468   1.995   0.464   6.100 -0.3546 -0.0569 -0.5150
 8118SOL    HW131469   1.910   0.505   6.115  0.8952  1.8854  2.0739
 8118SOL    HW231470   2.012   0.413   6.180  1.5721  0.9724 -0.1907
 8119SOL     OW31471   3.501   0.205   0.741  0.1387  0.0489  0.4066
 8119SOL    HW131472   3.452   0.216   0.823  0.2050 -0.4670  0.5237
 8119SOL    HW231473   3.561   0.279   0.739  0.1730  0.0371  0.8561
 8120SOL     OW31474   0.392  11.722   2.210 -1.0840 -0.2105 -0.3601
 8120SOL    HW131475   0.356  11.739   2.297 -0.9222 -2.1245  0.1334
 8120SOL    HW231476   0.321  11.746   2.150 -0.6860  2.5412  0.1372
 8121SOL     OW31477   1.760   2.423   3.678  0.3916  0.0141  0.0191
 8121SOL    HW131478   1.813   2.349   3.710  1.1777  1.3958  2.1896
 8121SOL    HW231479   1.785   2.433   3.586  0.5458 -2.1514 -0.2164
 8122SOL     OW31480  10.466   1.096   1.385  0.5875 -0.5112 -0.7899
 8122SOL    HW131481  10.396   1.032   1.368  0.2172 -0.2441 -0.3130
 8122SOL    HW231482  10.504   1.067   1.468 -0.0752  0.2975 -0.1807
 8123SOL     OW31483   3.033   9.307   2.160  0.6146 -0.6254 -0.4132
 8123SOL    HW131484   2.975   9.370   2.201 -0.0798 -1.5647  0.0656
 8123SOL    HW231485   3.084   9.270   2.232  3.0506  1.3557 -0.9686
 8124SOL     OW31486   1.913   3.138   0.036  0.0798  0.2472  0.0631
 8124SOL    HW131487   1.971   3.133  -0.040 -0.0118  1.0096 -0.0661
 8124SOL    HW231488   1.840   3.192   0.006 -0.2330  0.0815  0.5191
 8125SOL     OW31489   1.150  10.645   3.462  0.0571 -0.2061 -0.0621
 8125SOL    HW131490   1.088  10.705   3.421  0.1816 -0.8572 -1.2599
 8125SOL    HW231491   1.164  10.577   3.396 -3.1309 -3.8215  2.5492
 8126SOL     OW31492   9.537   6.466   0.368  0.0339 -0.0884 -0.4614
 8126SOL    HW131493   9.461   6.520   0.348 -0.1206  0.5128  1.5787
 8126SOL    HW231494   9.538   6.459   0.463  2.7351  0.2263 -0.3786
 8127SOL     OW31495   0.932   7.316   3.527  0.3651 -0.7465  0.1749
 8127SOL    HW131496   0.907   7.224   3.518  1.3387 -0.8922 -1.5782
 8127SOL    HW231497   0.977   7.321   3.611 -0.9277 -1.5442  0.9481
 8128SOL     OW31498  10.365  11.220  11.491  0.1833 -0.3619  0.2667
 8128SOL    HW131499  10.380  11.138  11.444  0.7685 -1.5706  2.4060
 8128SOL    HW231500  10.370  11.195  11.583  0.0475  2.0474  0.9811
 8129SOL     OW31501   6.965   6.118  11.906  0.6045  0.5030 -0.1329
 8129SOL    HW131502   7.016   6.038  11.900 -1.2014 -0.7119 -0.0906
 8129SOL    HW231503   6.978   6.149  11.996 -0.0775 -0.7471  0.4181
 8130SOL     OW31504   3.386  12.848   7.004  0.4488 -0.1351  0.0352
 8130SOL    HW131505   3.347  12.909   7.066  0.8580 -0.1291  0.2963
 8130SOL    HW231506   3.404  12.900   6.926 -2.0714 -0.6001 -0.9517
 8131SOL     OW31507   2.276   8.312   1.439  0.1462  0.6128 -0.1369
 8131SOL    HW131508   2.346   8.247   1.445 -0.0607  0.5344  2.3763
 8131SOL    HW231509   2.292   8.357   1.356  0.1549 -2.7425 -2.1425
 8132SOL     OW31510  10.103   6.961   0.302 -0.0034 -0.2963  0.2319
 8132SOL    HW131511  10.044   6.901   0.256 -1.6409 -0.2286  2.1310
 8132SOL    HW231512  10.186   6.913   0.308 -1.3351 -2.6128  1.9804
 8133SOL     OW31513   6.129   5.865   2.393 -0.3890 -0.4551 -0.3794
 8133SOL    HW131514   6.101   5.862   2.485  1.7516  1.1345  0.4114
 8133SOL    HW231515   6.069   5.926   2.351 -1.0918 -0.8200  0.0804
 8134SOL     OW31516   1.877   0.850   5.181 -0.6161  0.2816  0.0957
 8134SOL    HW131517   1.840   0.772   5.222 -0.0284  0.2272  0.5455
 8134SOL    HW231518   1.969   0.828   5.169 -0.2343  1.2437  1.0997
 8135SOL     OW31519   3.917   2.615   2.422  0.0732 -0.1167 -0.4185
 8135SOL    HW131520   3.845   2.629   2.360 -0.4089 -0.7341 -0.0031
 8135SOL    HW231521   3.912   2.690   2.482  0.0301  0.0487 -0.6262
 8136SOL     OW31522   9.506   2.101   8.252 -0.1623  0.0477 -0.3813
 8136SOL    HW131523   9.571   2.143   8.195  0.1401 -0.2496 -0.2613
 8136SOL    HW231524   9.490   2.165   8.322  2.9343 -1.2927  1.8114
 8137SOL     OW31525   8.967  10.950   4.975 -0.2969  0.9832 -0.2132
 8137SOL    HW131526   8.898  10.884   4.971  1.3695 -0.8408 -0.0153
 8137SOL    HW231527   8.979  10.979   4.885 -0.9973  1.0012 -0.3069
 8138SOL     OW31528   2.985  12.066   9.934 -0.5983 -0.0890 -0.8292
 8138SOL    HW131529   2.938  12.140   9.974 -2.1573 -1.9271  0.9196
 8138SOL    HW231530   2.944  11.988   9.972  0.9249 -1.8844 -2.6808
 8139SOL     OW31531   7.468   0.131   9.508  0.6453 -0.3465  0.0072
 8139SOL    HW131532   7.485   0.214   9.462  0.7860  0.9683  2.2999
 8139SOL    HW231533   7.553   0.087   9.511  0.8247 -0.0196 -0.2057
 8140SOL     OW31534   0.547   5.631  10.506  0.4290 -0.1844  0.5608
 8140SOL    HW131535   0.491   5.680  10.447  0.8456  1.6356  1.5906
 8140SOL    HW231536   0.495   5.556  10.533 -0.9186  0.6241  0.2766
 8141SOL     OW31537   4.231   4.491   2.014 -0.1257  0.7352  0.2094
 8141SOL    HW131538   4.283   4.558   1.969 -0.8174  1.0206 -0.1800
 8141SOL    HW231539   4.225   4.419   1.952 -2.8571  1.9378 -1.1153
 8142SOL     OW31540   2.649   4.433   8.909  0.0352 -0.0636  0.1921
 8142SOL    HW131541   2.612   4.345   8.897  0.1117 -0.1656  0.7178
 8142SOL    HW231542   2.613   4.484   8.835 -0.5189 -0.3697  0.2473
 8143SOL     OW31543  11.912   7.519   4.239  0.2990  0.0689 -0.2641
 8143SOL    HW131544  11.856   7.564   4.175 -2.0162 -0.2926  1.3686
 8143SOL    HW231545  11.911   7.428   4.209 -0.9685 -0.1432  0.3514
 8144SOL     OW31546   3.268   0.837  11.599  0.8385 -0.5199  0.1309
 8144SOL    HW131547   3.212   0.859  11.525 -0.2604 -2.2224  0.3959
 8144SOL    HW231548   3.291   0.921  11.637  0.2418  0.3224 -1.2878
 8145SOL     OW31549   9.772   8.725   7.963  0.3341  0.5838  0.4365
 8145SOL    HW131550   9.719   8.802   7.981 -0.1666  0.0744  1.1744
 8145SOL    HW231551   9.767   8.715   7.868  0.0522  1.2026  0.3795
 8146SOL     OW31552  12.935   8.828   1.381  0.0631  0.1973  0.0322
 8146SOL    HW131553  12.881   8.757   1.416 -0.8908  1.8135  2.0196
 8146SOL    HW231554  13.014   8.826   1.434  0.0114  0.6631  0.1260
 8147SOL     OW31555   6.372   0.803   3.254  0.2341 -0.0135  0.1952
 8147SOL    HW131556   6.359   0.882   3.201 -1.5616 -0.4064 -0.0327
 8147SOL    HW231557   6.433   0.830   3.323 -1.1220  1.9122  0.7305
 8148SOL     OW31558   7.460   6.629   0.323  0.2074 -0.0180  0.3821
 8148SOL    HW131559   7.374   6.622   0.365 -0.4626  4.1296  0.0686
 8148SOL    HW231560   7.519   6.656   0.394  0.4028  0.9717 -0.1534
 8149SOL     OW31561   5.860   3.183  11.084 -0.3089  0.0010  0.6651
 8149SOL    HW131562   5.769   3.209  11.097 -0.4617 -1.2970  2.6117
 8149SOL    HW231563   5.905   3.264  11.058 -1.7562  0.9677  1.0622
 8150SOL     OW31564  10.427   8.658   1.059  0.2679 -0.2136 -0.2374
 8150SOL    HW131565  10.362   8.724   1.033 -0.1345 -0.6908 -0.4680
 8150SOL    HW231566  10.421   8.655   1.155 -3.0733 -3.1471 -0.3282
 8151SOL     OW31567   7.076   5.133   8.312  0.0595  0.8264  0.4597
 8151SOL    HW131568   7.126   5.153   8.233 -0.5555  0.1000 -0.1348
 8151SOL    HW231569   7.072   5.037   8.315 -1.4778  0.8585  0.3528
 8152SOL     OW31570   6.219   9.806   5.376 -0.1279  0.4620 -1.2755
 8152SOL    HW131571   6.128   9.813   5.405  0.2528  0.8774 -0.1189
 8152SOL    HW231572   6.248   9.720   5.408 -0.0571  0.4178 -1.4583
 8153SOL     OW31573  10.186   0.553   2.177 -0.2738  0.0625 -0.1832
 8153SOL    HW131574  10.094   0.549   2.203 -0.1916 -0.2025  0.0701
 8153SOL    HW231575  10.231   0.499   2.241 -0.0593 -0.5636 -0.8418
 8154SOL     OW31576   3.196   6.411   7.271 -0.5786  0.1859  0.0525
 8154SOL    HW131577   3.238   6.434   7.187 -2.2658  1.1827 -0.5728
 8154SOL    HW231578   3.130   6.346   7.248 -0.9059  0.3010  0.6434
 8155SOL     OW31579   3.667   9.343   5.388  0.4180 -0.5263 -0.4563
 8155SOL    HW131580   3.577   9.340   5.423  0.1728 -0.5013 -1.0759
 8155SOL    HW231581   3.715   9.398   5.450 -0.1541  0.0031 -0.4783
 8156SOL     OW31582  11.471   1.026   2.211  1.0693  0.4497 -0.0310
 8156SOL    HW131583  11.532   1.100   2.218  0.9386  0.6450 -0.9119
 8156SOL    HW231584  11.486   0.991   2.123 -1.3072  1.5752 -0.9534
 8157SOL     OW31585   5.173   7.187   3.009 -0.1063 -0.0605 -0.8144
 8157SOL    HW131586   5.215   7.151   2.932 -0.4740 -0.6242 -0.7537
 8157SOL    HW231587   5.207   7.135   3.082  1.4535  1.4568 -0.3714
 8158SOL     OW31588   4.492   1.960   0.727 -0.4334  0.1844  0.3915
 8158SOL    HW131589   4.475   1.943   0.820  0.8738  0.0017  0.6171
 8158SOL    HW231590   4.587   1.969   0.722 -0.3287 -1.3244 -1.1638
 8159SOL     OW31591  10.026   7.287   6.193 -0.3639  0.2361  0.0514
 8159SOL    HW131592  10.014   7.371   6.238  1.5285  0.6865 -0.2239
 8159SOL    HW231593  10.005   7.307   6.101 -5.1941 -0.8993  0.6147
 8160SOL     OW31594  11.476   7.909   2.953 -0.0767 -0.3381 -0.2923
 8160SOL    HW131595  11.543   7.922   2.886 -0.2692  2.4151 -0.0836
 8160SOL    HW231596  11.401   7.958   2.921 -0.7773 -0.4512  1.0968
 8161SOL     OW31597   2.229  10.708   2.996 -0.5096 -0.1198 -0.0473
 8161SOL    HW131598   2.181  10.626   2.983 -0.8969  0.1572 -0.3743
 8161SOL    HW231599   2.320  10.681   3.007 -0.4415 -0.4993 -1.4619
 8162SOL     OW31600   3.626   7.767   3.125  0.5156 -0.4539  0.3162
 8162SOL    HW131601   3.710   7.775   3.172  2.0210 -0.9391 -2.1076
 8162SOL    HW231602   3.650   7.772   3.033 -2.3388  0.8542 -0.4722
 8163SOL     OW31603   7.992   3.742   8.712  0.0114 -0.3293  0.9900
 8163SOL    HW131604   8.081   3.778   8.713 -0.3803  0.6558  1.0688
 8163SOL    HW231605   8.000   3.658   8.757  0.8808 -0.1956  1.1037
 8164SOL     OW31606  10.618   5.350   0.961  0.0350 -0.0773 -0.7120
 8164SOL    HW131607  10.635   5.276   0.903 -0.3680 -1.0475  0.3835
 8164SOL    HW231608  10.558   5.406   0.911  1.0264 -0.0200 -1.8930
 8165SOL     OW31609  10.290   8.246   9.551  0.2341  0.4757  0.3299
 8165SOL    HW131610  10.307   8.182   9.620  0.8416 -0.1917 -0.4340
 8165SOL    HW231611  10.365   8.240   9.492 -2.0625 -1.8874 -2.6414
 8166SOL     OW31612   2.786  10.447   8.807  0.1909  0.2332  0.0312
 8166SOL    HW131613   2.728  10.420   8.736  1.4760 -3.5343  0.2302
 8166SOL    HW231614   2.832  10.523   8.772 -2.6489  1.5541 -1.2031
 8167SOL     OW31615  12.254   6.162   9.607 -0.2303 -0.8140  0.0643
 8167SOL    HW131616  12.296   6.141   9.690 -1.1844 -0.7622  0.5735
 8167SOL    HW231617  12.323   6.154   9.542  1.3667  2.1530  1.2002
 8168SOL     OW31618   9.837   4.639   6.215 -0.3604  0.2846 -0.2308
 8168SOL    HW131619   9.930   4.630   6.235 -0.5069  1.5530  1.1372
 8168SOL    HW231620   9.827   4.594   6.131  1.5567  0.4887 -0.6168
 8169SOL     OW31621   1.753   8.173   3.045  0.1412  0.4332  0.3416
 8169SOL    HW131622   1.742   8.258   3.087  0.2400  0.4949  0.2441
 8169SOL    HW231623   1.784   8.115   3.114  0.3016  0.5341  0.3551
 8170SOL     OW31624  10.103   9.800  12.698 -0.6908  0.1136  0.6505
 8170SOL    HW131625  10.074   9.837  12.781 -3.1713 -0.9846  0.3780
 8170SOL    HW231626  10.091   9.870  12.634 -1.7620  0.0435  0.7518
 8171SOL     OW31627   9.876   9.295   3.942 -0.2212 -0.4631  0.0348
 8171SOL    HW131628   9.955   9.251   3.912 -0.7280 -0.5973 -1.1833
 8171SOL    HW231629   9.903   9.384   3.962  0.0927 -0.2827 -1.1546
 8172SOL     OW31630   8.577   8.769   4.660  0.1550  0.5440  0.5139
 8172SOL    HW131631   8.536   8.733   4.581 -0.1415  1.5025  0.2219
 8172SOL    HW231632   8.652   8.711   4.676 -0.1802 -0.0667 -0.0693
 8173SOL     OW31633   2.574   6.495  10.619 -0.1529 -0.2199  0.5873
 8173SOL    HW131634   2.633   6.485  10.545  0.3196  0.0473  0.9210
 8173SOL    HW231635   2.548   6.406  10.642 -3.3198 -0.2114 -2.2667
 8174SOL     OW31636   9.492   0.073  10.252 -0.3894  0.0101  0.0878
 8174SOL    HW131637   9.407   0.050  10.214  0.3689 -0.5503 -1.3634
 8174SOL    HW231638   9.491   0.033  10.339 -1.2645 -0.7574 -0.2518
 8175SOL     OW31639  11.655   1.672   0.646  0.0956 -0.1803  0.2411
 8175SOL    HW131640  11.674   1.710   0.561 -0.4789 -0.2657  0.0716
 8175SOL    HW231641  11.582   1.612   0.630  0.1305 -0.3652  0.7487
 8176SOL     OW31642   5.092   4.725  11.952  0.2090  0.3984 -0.0974
 8176SOL    HW131643   5.062   4.777  11.877  0.1621 -0.1478 -0.4648
 8176SOL    HW231644   5.014   4.678  11.982  0.2524  0.5319  0.2256
 8177SOL     OW31645   9.834   7.119   2.035  0.4688  0.1717  0.2272
 8177SOL    HW131646   9.795   7.078   2.112  0.0279 -1.6636 -0.8933
 8177SOL    HW231647   9.770   7.185   2.008 -0.5447 -0.8446  0.0562
 8178SOL     OW31648  10.070  12.424  11.548  0.0645  0.2691 -0.1646
 8178SOL    HW131649  10.090  12.517  11.564 -1.7488  0.3324  2.2055
 8178SOL    HW231650   9.990  12.426  11.495 -0.0016  0.0622 -0.0715
 8179SOL     OW31651   0.034   6.033   7.245 -0.1502  0.1370  0.5118
 8179SOL    HW131652   0.107   6.007   7.302  1.2042  0.7897 -0.8567
 8179SOL    HW231653  -0.010   6.102   7.294 -0.4188 -0.8697  1.7469
 8180SOL     OW31654   3.687   8.665   2.115 -0.6383 -0.1156  0.3262
 8180SOL    HW131655   3.642   8.655   2.032  0.2370 -2.4426  0.0632
 8180SOL    HW231656   3.641   8.736   2.159 -1.5294  0.7206 -1.8534
 8181SOL     OW31657   6.381  12.040   7.947  0.2378 -0.2411 -0.3390
 8181SOL    HW131658   6.367  12.134   7.938 -1.1677 -0.3736  0.2107
 8181SOL    HW231659   6.349  12.003   7.865  1.4275 -0.2096 -0.8425
 8182SOL     OW31660   9.722   6.687   2.599  0.4580 -0.7753  0.0224
 8182SOL    HW131661   9.728   6.605   2.550 -2.0905 -0.4159 -1.0391
 8182SOL    HW231662   9.806   6.730   2.585  0.4963 -1.5479 -2.5266
 8183SOL     OW31663   3.897   1.841   7.719  0.3530 -0.3003 -0.2616
 8183SOL    HW131664   3.865   1.930   7.729 -0.0733 -0.7274  3.4717
 8183SOL    HW231665   3.993   1.849   7.721  0.3137  0.0754  0.4455
 8184SOL     OW31666  11.480   5.231  11.680 -0.0742  0.4659  0.4991
 8184SOL    HW131667  11.559   5.252  11.729  0.2093 -1.7099  1.0927
 8184SOL    HW231668  11.505   5.157  11.625 -1.6742 -0.2454  0.6688
 8185SOL     OW31669   8.972   0.898   4.744 -0.8881 -0.0667 -0.4656
 8185SOL    HW131670   8.898   0.837   4.750 -1.1106  0.2230 -0.2341
 8185SOL    HW231671   9.043   0.846   4.707 -1.2624 -0.3044 -0.8711
 8186SOL     OW31672   4.725   8.232   3.931  0.0085 -0.3747  0.2973
 8186SOL    HW131673   4.717   8.163   3.865  2.2998  0.6673 -1.1608
 8186SOL    HW231674   4.681   8.195   4.009 -1.0046 -2.4395 -1.1541
 8187SOL     OW31675   6.213   7.058   4.966 -0.1030  0.1613  0.0370
 8187SOL    HW131676   6.248   7.037   5.053  1.7420  0.5919 -0.5602
 8187SOL    HW231677   6.223   6.976   4.917 -0.6377  0.0741  0.0733
 8188SOL     OW31678  11.548   0.953   0.913  0.7393 -0.0578 -0.6855
 8188SOL    HW131679  11.471   0.973   0.966  0.6327  0.0668 -0.8855
 8188SOL    HW231680  11.545   0.859   0.901  1.3028 -0.2255  0.3521
 8189SOL     OW31681   2.242   0.161   0.032 -0.1966  1.1238  0.5012
 8189SOL    HW131682   2.270   0.251   0.013 -1.3689  1.4297  0.1722
 8189SOL    HW231683   2.184   0.138  -0.040  3.1485 -1.3998 -1.6673
 8190SOL     OW31684   1.716   0.249   0.782  0.0021 -0.6287 -0.1856
 8190SOL    HW131685   1.776   0.179   0.807  0.3576 -0.7678 -1.3716
 8190SOL    HW231686   1.632   0.225   0.822  0.7325 -0.3868  1.5618
 8191SOL     OW31687   7.982  10.813   3.045  0.3813 -0.3728 -0.0171
 8191SOL    HW131688   8.067  10.804   3.002  0.2988  1.9145 -0.8135
 8191SOL    HW231689   8.003  10.852   3.130  0.1817 -0.4665  0.0739
 8192SOL     OW31690   3.014   1.483   6.631 -0.0099  0.3564  0.6764
 8192SOL    HW131691   3.030   1.389   6.619  2.4254  0.5002  1.9917
 8192SOL    HW231692   3.047   1.501   6.719 -1.0480  2.3553  0.7169
 8193SOL     OW31693  12.733  10.317   3.977 -0.2842 -0.1154  0.1573
 8193SOL    HW131694  12.736  10.274   3.892  0.0224  0.7709 -0.2910
 8193SOL    HW231695  12.818  10.360   3.986 -1.0621  1.5678 -0.0495
 8194SOL     OW31696   7.478   0.660  11.811  0.2577  0.8560 -0.1734
 8194SOL    HW131697   7.567   0.684  11.785  1.4807 -2.0231  0.9530
 8194SOL    HW231698   7.467   0.699  11.898  0.4695  1.0994 -0.2551
 8195SOL     OW31699   0.189  10.581   3.636  0.7373  0.1748 -0.1946
 8195SOL    HW131700   0.108  10.544   3.602 -0.6424  2.5704  0.2956
 8195SOL    HW231701   0.256  10.551   3.574 -0.8624  0.0493 -1.9644
 8196SOL     OW31702   9.867   0.297  10.292  0.3806 -0.4691 -0.0528
 8196SOL    HW131703   9.864   0.370  10.230  1.8106 -0.4568 -0.1210
 8196SOL    HW231704   9.824   0.225  10.246 -1.7436  0.4830  0.2877
 8197SOL     OW31705   2.713   1.524   1.627 -0.5320 -0.0675 -0.6388
 8197SOL    HW131706   2.785   1.574   1.665 -0.4550  0.3699 -1.3299
 8197SOL    HW231707   2.639   1.537   1.687 -0.1052 -0.3280 -0.0491
 8198SOL     OW31708   5.492   0.238   0.294  0.1739  0.2547 -0.0618
 8198SOL    HW131709   5.568   0.188   0.265 -1.0032 -1.4332 -0.4216
 8198SOL    HW231710   5.481   0.306   0.227 -0.0550 -1.0205 -1.3719
 8199SOL     OW31711   2.421  10.960   6.539  0.0333  0.5583  0.1822
 8199SOL    HW131712   2.367  10.915   6.474  1.4489 -1.5868  0.3986
 8199SOL    HW231713   2.506  10.972   6.495 -0.0406  2.3070  0.4464
 8200SOL     OW31714   3.914   7.479  11.336  0.3048 -0.3105  0.0299
 8200SOL    HW131715   3.949   7.416  11.399 -1.7795 -0.1845  1.4038
 8200SOL    HW231716   3.854   7.533  11.387  0.5690  1.5689 -1.5277
 8201SOL     OW31717   7.895   1.865  10.791 -0.0554  0.0410  0.0531
 8201SOL    HW131718   7.806   1.832  10.797 -0.4169  0.9669 -0.0748
 8201SOL    HW231719   7.885   1.956  10.765  0.9401  0.0815 -0.2308
 8202SOL     OW31720   3.557   4.562  12.428 -0.6187  0.0858  0.1304
 8202SOL    HW131721   3.514   4.482  12.459 -1.2872  0.2521 -0.3590
 8202SOL    HW231722   3.606   4.534  12.351 -3.1035  0.6547 -1.7607
 8203SOL     OW31723   4.943   8.297   9.748  0.0943  0.1948 -0.0334
 8203SOL    HW131724   4.899   8.255   9.821 -1.0927  0.6763 -0.4298
 8203SOL    HW231725   4.941   8.391   9.770  0.7705  0.2396 -0.1480
 8204SOL     OW31726   6.892   9.719   9.778  0.4255  0.1786  0.2664
 8204SOL    HW131727   6.967   9.659   9.770  0.3398  0.1335 -0.2682
 8204SOL    HW231728   6.931   9.803   9.800  0.5516 -0.0603  0.9726
 8205SOL     OW31729   4.841   5.126  10.730  0.4202  0.0643  0.2635
 8205SOL    HW131730   4.923   5.090  10.765  1.5578  1.7173 -0.5529
 8205SOL    HW231731   4.822   5.202  10.785  0.3889  0.6958 -0.5972
 8206SOL     OW31732   7.636   2.525   7.931  0.2554  0.0096  0.4634
 8206SOL    HW131733   7.668   2.591   7.993 -0.6858  2.0058 -1.0766
 8206SOL    HW231734   7.541   2.536   7.932  0.2652  0.8018 -2.0027
 8207SOL     OW31735   2.694   2.994   4.208 -0.3561  0.1656  0.0806
 8207SOL    HW131736   2.761   2.988   4.277  0.0832 -1.1510 -0.4292
 8207SOL    HW231737   2.736   2.957   4.131 -0.0411  3.6500 -1.6065
 8208SOL     OW31738   4.734  11.105   7.466 -0.0711  0.2550  0.6280
 8208SOL    HW131739   4.812  11.151   7.497 -0.3765  1.6614 -0.5899
 8208SOL    HW231740   4.713  11.147   7.383  0.4844 -3.0537 -1.3877
 8209SOL     OW31741   1.788  10.292   2.285 -0.2746 -0.3030  0.2647
 8209SOL    HW131742   1.786  10.269   2.192 -2.1909 -0.7457  0.3756
 8209SOL    HW231743   1.786  10.208   2.331 -0.7717 -0.0653  0.6883
 8210SOL     OW31744   8.201   7.486   1.276  0.0286  0.4399  0.4390
 8210SOL    HW131745   8.110   7.492   1.306  0.0586  0.4107  0.5337
 8210SOL    HW231746   8.217   7.392   1.267 -0.3777  0.4740 -0.8570
 8211SOL     OW31747   6.389  10.602   7.485  0.7376  0.0396  0.4027
 8211SOL    HW131748   6.295  10.594   7.500  0.6473 -0.6692 -0.4725
 8211SOL    HW231749   6.423  10.513   7.499  0.9040 -0.2695 -1.6794
 8212SOL     OW31750   7.195   3.035   2.101 -0.9114  0.8384 -0.2564
 8212SOL    HW131751   7.220   3.123   2.073  0.2573  0.4361 -0.5387
 8212SOL    HW231752   7.209   2.981   2.023 -1.3455  0.3511  0.0023
 8213SOL     OW31753   2.613   9.515   1.229  0.6744 -0.1679  0.4332
 8213SOL    HW131754   2.595   9.423   1.252  0.7287 -0.7098 -1.4863
 8213SOL    HW231755   2.642   9.511   1.138  1.9921  1.6361  0.7206
 8214SOL     OW31756  11.818   9.840   7.773 -0.1701 -0.4969 -0.1466
 8214SOL    HW131757  11.896   9.891   7.793 -1.4158  2.3838 -2.0533
 8214SOL    HW231758  11.825   9.821   7.679 -0.9066 -1.8079  0.0413
 8215SOL     OW31759   2.550  10.428  10.543 -0.3665  0.6947  0.1333
 8215SOL    HW131760   2.543  10.338  10.575  1.7070  0.7049  0.7509
 8215SOL    HW231761   2.626  10.464  10.589 -1.6999  3.0825  0.6361
 8216SOL     OW31762   6.030  12.248   1.488 -0.1800 -0.5071 -0.9216
 8216SOL    HW131763   6.115  12.221   1.456 -0.5467  1.1212 -3.5455
 8216SOL    HW231764   6.027  12.343   1.473 -1.0773  0.1826  2.5837
 8217SOL     OW31765   4.708   4.123   2.323 -0.0358  0.1006  0.4964
 8217SOL    HW131766   4.761   4.046   2.305  2.6967  1.3075  2.5454
 8217SOL    HW231767   4.688   4.160   2.237  3.6112  0.1985 -0.4944
 8218SOL     OW31768  10.530   8.505   2.203 -0.1461 -0.1340 -0.2519
 8218SOL    HW131769  10.519   8.498   2.298  2.6886 -2.9798  0.0416
 8218SOL    HW231770  10.601   8.569   2.192  1.1940 -1.5367 -0.1820
 8219SOL     OW31771   2.912   0.833   9.489 -0.4964 -0.2899  0.0047
 8219SOL    HW131772   2.925   0.766   9.557 -1.3534 -0.0590  0.4117
 8219SOL    HW231773   2.820   0.824   9.465 -0.6338  0.7613  0.0882
 8220SOL     OW31774   4.318   4.125   8.435 -0.4977  0.3140 -0.5613
 8220SOL    HW131775   4.413   4.117   8.428 -0.6046 -0.1043 -1.9529
 8220SOL    HW231776   4.297   4.204   8.384 -1.0676 -0.8205 -2.1584
 8221SOL     OW31777  12.945   3.627   2.519  0.7542 -0.4298 -0.0218
 8221SOL    HW131778  13.027   3.587   2.548  1.0835  1.0635  1.2259
 8221SOL    HW231779  12.948   3.621   2.424  2.7948  0.4500 -0.0770
 8222SOL     OW31780   3.561   6.820   0.564 -0.1013  0.2380 -0.3146
 8222SOL    HW131781   3.479   6.779   0.589 -0.1108 -0.7955 -1.8469
 8222SOL    HW231782   3.544   6.857   0.477  0.5019  1.7587  0.1899
 8223SOL     OW31783   5.582   4.178   0.773  0.1742  0.4340  0.2832
 8223SOL    HW131784   5.489   4.167   0.789  0.1049  1.7671  0.8868
 8223SOL    HW231785   5.586   4.239   0.699  0.5722  0.3142  0.2046
 8224SOL     OW31786  11.192   7.084   9.583  0.3636 -0.5182 -0.4066
 8224SOL    HW131787  11.255   7.057   9.650 -0.0235  0.8137  0.5237
 8224SOL    HW231788  11.128   7.138   9.630  0.5467  1.1636 -2.0013
 8225SOL     OW31789   7.470   1.647  12.217  0.2488 -0.2380  0.2972
 8225SOL    HW131790   7.534   1.637  12.288  1.4056 -0.1408 -0.7064
 8225SOL    HW231791   7.522   1.666  12.140 -1.1659  3.0816  0.0094
 8226SOL     OW31792   7.686   1.707  12.064  0.1578  0.0846 -0.2993
 8226SOL    HW131793   7.713   1.787  12.107 -2.8305  0.8188  0.4585
 8226SOL    HW231794   7.695   1.726  11.970  2.3906  0.1214 -0.1193
 8227SOL     OW31795  11.657   0.775   8.795  0.4091 -0.1233  0.9103
 8227SOL    HW131796  11.571   0.739   8.815 -1.1112  2.2150 -0.9896
 8227SOL    HW231797  11.670   0.843   8.862  0.8231 -0.4834  1.2046
 8228SOL     OW31798   9.718   7.268  10.085 -0.3954 -0.6682 -0.2439
 8228SOL    HW131799   9.744   7.355  10.115  2.3241 -2.0668  1.9142
 8228SOL    HW231800   9.623   7.269  10.086 -0.4309  1.6796  1.5451
 8229SOL     OW31801   7.104   3.420   1.080 -0.0393 -0.2736 -0.0349
 8229SOL    HW131802   7.168   3.408   1.151  0.5527  0.8558 -0.3467
 8229SOL    HW231803   7.133   3.500   1.036 -1.5789  0.1654 -0.2965
 8230SOL     OW31804   0.724   7.865   8.303  0.4437  0.0311  0.3521
 8230SOL    HW131805   0.697   7.907   8.385 -0.1937  0.8405 -0.2597
 8230SOL    HW231806   0.787   7.799   8.331 -0.5426 -0.4290  1.6065
 8231SOL     OW31807  12.926   4.696   0.289 -0.2860 -0.3190 -0.5199
 8231SOL    HW131808  12.979   4.635   0.239  1.2600  1.8665 -1.7287
 8231SOL    HW231809  12.939   4.781   0.246 -3.3552  0.6866  0.2358
 8232SOL     OW31810   0.227   3.236  10.707 -0.4087 -0.2499  0.0087
 8232SOL    HW131811   0.170   3.257  10.781  0.2861 -2.5127  1.2837
 8232SOL    HW231812   0.312   3.275  10.730 -0.8189  1.2712 -0.8852
 8233SOL     OW31813   0.230   6.516   1.914  0.2151  0.0629  0.0636
 8233SOL    HW131814   0.191   6.468   1.988 -0.7251  0.5046 -0.1258
 8233SOL    HW231815   0.176   6.595   1.906  0.6908  0.3159 -0.7096
 8234SOL     OW31816  10.790  11.903   5.864 -0.6520  0.7020  0.0858
 8234SOL    HW131817  10.863  11.922   5.923 -0.4612  2.2984 -0.5853
 8234SOL    HW231818  10.714  11.892   5.922 -0.0895  0.1224  0.7278
 8235SOL     OW31819   3.859   4.437   5.851  0.1881 -0.0493 -0.5295
 8235SOL    HW131820   3.789   4.380   5.883  0.2667 -1.0622 -2.0251
 8235SOL    HW231821   3.940   4.397   5.883  0.2378 -0.7759 -1.5041
 8236SOL     OW31822   8.425   7.259   4.862 -0.2256  0.8553 -0.0221
 8236SOL    HW131823   8.338   7.232   4.889  0.1444  0.8834  1.2747
 8236SOL    HW231824   8.438   7.219   4.777 -0.1245 -2.2167  1.3117
 8237SOL     OW31825   2.266   0.749   5.600 -0.0869 -0.2142  0.4363
 8237SOL    HW131826   2.361   0.752   5.587  0.1041  1.3672  1.8785
 8237SOL    HW231827   2.237   0.840   5.591 -1.2640 -0.4727  1.3321
 8238SOL     OW31828  12.113   3.218   2.216  0.3138  0.1607 -0.4532
 8238SOL    HW131829  12.119   3.163   2.294  1.2670 -0.7155 -1.1034
 8238SOL    HW231830  12.032   3.268   2.227  0.8419  0.6732  1.4664
 8239SOL     OW31831   1.027   4.773   4.142  0.1743  0.5718  0.1900
 8239SOL    HW131832   1.057   4.727   4.063 -1.0423 -0.4582  0.2935
 8239SOL    HW231833   1.025   4.865   4.116  0.9270  0.3861 -0.6027
 8240SOL     OW31834   3.426   7.993   1.653 -0.2969  0.4033  0.7765
 8240SOL    HW131835   3.483   7.934   1.604 -3.0784 -1.2039 -0.7889
 8240SOL    HW231836   3.371   7.935   1.706 -1.1232  1.8108  1.5211
 8241SOL     OW31837   1.591   1.282   1.869 -0.6168  0.0764 -0.0200
 8241SOL    HW131838   1.556   1.240   1.791 -0.7673 -1.0490  0.6397
 8241SOL    HW231839   1.514   1.318   1.914 -0.9563 -2.0159  1.2027
 8242SOL     OW31840   9.147   9.032   0.938 -0.0128 -0.0740  0.2789
 8242SOL    HW131841   9.239   9.026   0.963  0.5493 -0.0309 -1.6559
 8242SOL    HW231842   9.105   8.957   0.982  1.1889 -0.8604  0.1188
 8243SOL     OW31843   2.914  10.074   8.922 -0.0779 -0.0625  0.4044
 8243SOL    HW131844   2.825  10.109   8.917 -0.0722  0.0722  1.1028
 8243SOL    HW231845   2.905   9.992   8.970  0.3759  0.7630  1.9815
 8244SOL     OW31846  12.655  11.689   4.228 -0.0544  0.0377 -0.2861
 8244SOL    HW131847  12.733  11.729   4.266 -1.3777  2.2605  0.2751
 8244SOL    HW231848  12.642  11.737   4.146 -2.8678  2.4874  1.3963
 8245SOL     OW31849   9.125  12.002   9.322 -0.1977  0.0220  0.2459
 8245SOL    HW131850   9.073  12.063   9.270  1.1047  0.8594 -0.1129
 8245SOL    HW231851   9.097  11.916   9.292  0.2769  0.4779 -1.6380
 8246SOL     OW31852  12.202   9.953   4.097  0.2862  0.0810 -0.5301
 8246SOL    HW131853  12.267   9.925   4.033  0.7439 -1.1615  0.4388
 8246SOL    HW231854  12.124   9.902   4.077  0.6312 -0.7827  0.2794
 8247SOL     OW31855   7.122  10.726   4.070  0.5215 -0.5691 -0.0211
 8247SOL    HW131856   7.178  10.658   4.032  0.3204 -0.9911  0.4145
 8247SOL    HW231857   7.035  10.708   4.035  0.5546 -0.2335 -0.2847
 8248SOL     OW31858  10.833   4.894   8.611  0.5288 -0.3636 -0.3109
 8248SOL    HW131859  10.866   4.808   8.585 -0.2784 -0.9249  0.4820
 8248SOL    HW231860  10.865   4.906   8.700 -0.4067 -0.3954  0.0389
 8249SOL     OW31861   6.572   2.101   1.384  0.2113  0.0772 -0.0204
 8249SOL    HW131862   6.526   2.036   1.331 -0.6665  0.6490  0.0264
 8249SOL    HW231863   6.503   2.141   1.438  0.7127  1.1754 -0.1761
 8250SOL     OW31864  11.614   6.024   6.974  0.2350  0.0091 -0.4922
 8250SOL    HW131865  11.658   6.073   7.043  1.8999 -0.1190 -1.4087
 8250SOL    HW231866  11.609   5.934   7.008  1.3273 -0.1190 -0.6186
 8251SOL     OW31867   8.327   4.628   4.871  0.5682  0.0471 -0.4025
 8251SOL    HW131868   8.246   4.649   4.825  1.0632 -0.6651 -1.6501
 8251SOL    HW231869   8.336   4.696   4.937 -0.4337  0.7997 -1.0183
 8252SOL     OW31870   7.520   6.490   2.830 -0.3748 -0.2634  0.0227
 8252SOL    HW131871   7.503   6.579   2.860  0.1549 -0.3380  0.5713
 8252SOL    HW231872   7.518   6.495   2.735  0.3219  0.4699  0.0404
 8253SOL     OW31873  11.663  10.268   8.836  0.5544  0.0562  0.2321
 8253SOL    HW131874  11.649  10.246   8.928  1.0353  0.2702  0.3587
 8253SOL    HW231875  11.593  10.223   8.789  0.3881 -0.1606  0.6895
 8254SOL     OW31876  11.231  12.436   4.461  0.0218  0.2878  0.4649
 8254SOL    HW131877  11.302  12.445   4.525 -0.7541  0.0001  1.3924
 8254SOL    HW231878  11.187  12.521   4.461  0.5266  0.5621 -0.3274
 8255SOL     OW31879  10.217   1.311   8.940 -0.2858  0.0707 -0.1360
 8255SOL    HW131880  10.209   1.228   8.987  0.2876 -0.8965 -1.6783
 8255SOL    HW231881  10.311   1.326   8.932 -0.2781 -0.7752 -2.5438
 8256SOL     OW31882  12.718   2.264  10.765 -0.2784 -0.0318 -0.2893
 8256SOL    HW131883  12.761   2.178  10.760  1.6970  0.9823 -2.2282
 8256SOL    HW231884  12.675   2.275  10.681  1.4603  1.7853 -1.0223
 8257SOL     OW31885  11.306   8.330   9.644 -0.0718 -0.0834  0.4342
 8257SOL    HW131886  11.343   8.328   9.556 -1.7139 -0.2934 -0.2796
 8257SOL    HW231887  11.335   8.248   9.684 -0.6695 -0.7697 -0.4990
 8258SOL     OW31888   6.075   7.816   5.857  0.2761  0.5908  0.4924
 8258SOL    HW131889   6.089   7.908   5.882  0.2902  1.0907 -1.2304
 8258SOL    HW231890   6.049   7.820   5.765  1.2457 -1.1891  0.0910
 8259SOL     OW31891  12.336   6.173  12.213 -0.0700 -0.0975 -0.6372
 8259SOL    HW131892  12.377   6.116  12.278  0.0885 -1.3851 -1.8144
 8259SOL    HW231893  12.366   6.261  12.236 -3.2727  0.2068  3.5549
 8260SOL     OW31894   5.537   5.866   1.583 -0.3683  0.1132  0.1379
 8260SOL    HW131895   5.601   5.804   1.549 -1.6740 -1.3316  0.2397
 8260SOL    HW231896   5.459   5.814   1.601 -0.1505  0.9122  4.4174
 8261SOL     OW31897  11.775   1.998   9.916 -0.7563  0.5635  0.2690
 8261SOL    HW131898  11.851   1.994   9.974 -1.1548 -0.5566  0.7462
 8261SOL    HW231899  11.811   2.030   9.833 -0.3497  3.1393  1.3485
 8262SOL     OW31900   7.740   1.794   5.434 -0.2316  0.3118 -0.1849
 8262SOL    HW131901   7.745   1.802   5.339 -1.1496 -2.4590 -0.5621
 8262SOL    HW231902   7.828   1.815   5.465 -0.1361  2.0691 -1.5199
 8263SOL     OW31903   0.787   1.602   5.231  0.3295  0.5712  0.0617
 8263SOL    HW131904   0.699   1.616   5.196  0.8689  1.7535 -0.9192
 8263SOL    HW231905   0.845   1.618   5.156  1.4246  0.8755  0.9442
 8264SOL     OW31906   6.253   1.246  12.547  0.5395  0.9869  0.4578
 8264SOL    HW131907   6.343   1.277  12.557  1.3118 -0.2974 -1.7387
 8264SOL    HW231908   6.250   1.166  12.599  0.7065  0.9739  0.4507
 8265SOL     OW31909  10.518   6.472  11.062 -0.1539  0.0606  0.9055
 8265SOL    HW131910  10.609   6.470  11.090 -0.1366  0.0813  0.8485
 8265SOL    HW231911  10.480   6.391  11.097  0.7569 -1.7657 -2.0040
 8266SOL     OW31912   4.373   6.978  10.381 -0.5628 -0.4338 -0.4489
 8266SOL    HW131913   4.374   7.028  10.463 -0.2599 -1.0194 -0.0798
 8266SOL    HW231914   4.403   7.039  10.315 -3.1483  0.8034 -0.5997
 8267SOL     OW31915  12.227   7.864  10.348  0.2119  0.1655 -0.4831
 8267SOL    HW131916  12.225   7.788  10.407  0.8107  1.1563  0.8628
 8267SOL    HW231917  12.140   7.866  10.309  0.2591 -1.3383 -0.7264
 8268SOL     OW31918   6.958   0.453  10.764 -0.6628 -0.2916 -0.5527
 8268SOL    HW131919   6.939   0.416  10.678 -1.0265  1.2276 -1.1631
 8268SOL    HW231920   7.048   0.484  10.758 -1.1816  1.2135 -0.9363
 8269SOL     OW31921  12.685   1.923   2.096 -0.1128 -0.5543  0.3629
 8269SOL    HW131922  12.742   1.981   2.144  0.6359 -0.2851 -0.8177
 8269SOL    HW231923  12.733   1.840   2.090 -0.6233 -0.9040  0.9156
 8270SOL     OW31924   9.125   6.677  11.380  0.2124  0.0878  0.5294
 8270SOL    HW131925   9.048   6.696  11.327 -0.0273  0.8836  1.1386
 8270SOL    HW231926   9.100   6.600  11.431 -0.5178  0.8266  1.3365
 8271SOL     OW31927  11.689   4.484   2.452  0.1693 -0.1645  0.2265
 8271SOL    HW131928  11.663   4.566   2.493  1.5578  1.0923 -1.3151
 8271SOL    HW231929  11.778   4.469   2.483 -1.0001 -2.7311  2.8733
 8272SOL     OW31930   8.784   0.417  12.640  0.1329 -0.1170  0.2566
 8272SOL    HW131931   8.866   0.374  12.666 -0.3008 -0.6137  0.8167
 8272SOL    HW231932   8.790   0.424  12.545  0.4620 -0.9034  0.2108
 8273SOL     OW31933   5.437  11.445  11.863  0.0319 -0.0499 -0.0150
 8273SOL    HW131934   5.519  11.396  11.858 -0.9761 -1.6375 -2.2356
 8273SOL    HW231935   5.409  11.434  11.954  1.8376 -0.1397  0.5800
 8274SOL     OW31936   0.040   9.143   9.475 -0.2064  0.0812 -0.0430
 8274SOL    HW131937   0.079   9.077   9.533  2.1266 -0.6256 -2.2365
 8274SOL    HW231938  -0.045   9.107   9.450  1.2012 -2.4661 -1.5599
 8275SOL     OW31939   0.774   0.889   7.901  0.3452  0.8010  0.4272
 8275SOL    HW131940   0.785   0.817   7.963 -2.4248 -1.5814 -1.5889
 8275SOL    HW231941   0.711   0.947   7.943 -0.2392  0.0837  0.5639
 8276SOL     OW31942   5.481  10.723   1.924 -0.0431  0.5934  0.1642
 8276SOL    HW131943   5.547  10.677   1.873 -0.7108 -0.0076 -0.1638
 8276SOL    HW231944   5.494  10.691   2.014  0.1239  0.4921  0.1051
 8277SOL     OW31945   0.649   2.579   7.416  0.2428  0.0636  0.5529
 8277SOL    HW131946   0.701   2.607   7.340 -1.0549  0.5303 -0.2002
 8277SOL    HW231947   0.639   2.657   7.469 -0.2984  0.1571  0.3188
 8278SOL     OW31948   0.764   8.056  11.833  0.2864 -0.3541  0.2132
 8278SOL    HW131949   0.843   8.010  11.861  0.3309 -0.7934 -0.5899
 8278SOL    HW231950   0.790   8.100  11.751  0.3574  1.4344  1.1471
 8279SOL     OW31951   2.120   2.113   0.649  0.1078  0.0654  0.2023
 8279SOL    HW131952   2.097   2.198   0.688  1.6445  0.4053  0.4264
 8279SOL    HW231953   2.067   2.108   0.569  0.0104  1.2556  0.1759
 8280SOL     OW31954   2.441   1.837   5.494 -0.0663  0.5489  0.0185
 8280SOL    HW131955   2.437   1.780   5.571  1.5215  1.1443  0.5821
 8280SOL    HW231956   2.411   1.782   5.422  0.4225 -0.6929  0.7275
 8281SOL     OW31957   4.964   1.224   4.503  0.1773 -0.4904 -0.5745
 8281SOL    HW131958   5.050   1.263   4.488 -0.6236  1.0825 -1.3132
 8281SOL    HW231959   4.904   1.299   4.503 -1.0504 -1.4170  1.1656
 8282SOL     OW31960   8.812   2.268   2.948  0.1056  0.2582  0.7937
 8282SOL    HW131961   8.776   2.326   3.015 -3.4153 -0.0791 -0.5939
 8282SOL    HW231962   8.824   2.324   2.871  0.6315 -0.0579  0.6375
 8283SOL     OW31963   1.392   9.694   4.860 -0.1958  0.1349 -0.0044
 8283SOL    HW131964   1.360   9.606   4.841  0.0718 -0.0143  0.2223
 8283SOL    HW231965   1.467   9.681   4.919 -0.5792  0.5463  0.5914
 8284SOL     OW31966   8.379   2.815   8.317  0.0005 -0.3724  0.3951
 8284SOL    HW131967   8.381   2.842   8.225 -0.7812  1.5447  0.8848
 8284SOL    HW231968   8.438   2.740   8.322  0.3875 -0.2410 -1.5817
 8285SOL     OW31969   9.266   7.251   5.422 -0.4297  0.3843 -0.1461
 8285SOL    HW131970   9.204   7.294   5.363  0.8577 -1.4417 -2.9809
 8285SOL    HW231971   9.349   7.298   5.409 -0.1667  0.0826  0.3883
 8286SOL     OW31972   7.245  10.868  12.108 -0.4870  0.4113 -0.1388
 8286SOL    HW131973   7.170  10.815  12.137  0.7011 -1.4715 -0.3143
 8286SOL    HW231974   7.322  10.818  12.137  0.7189  1.4850 -1.3480
 8287SOL     OW31975   9.306  10.925   7.809 -0.4220 -0.6045 -0.3903
 8287SOL    HW131976   9.268  10.893   7.727 -0.8664  0.1152 -0.4771
 8287SOL    HW231977   9.374  10.862   7.830 -0.5859 -1.0310 -1.0954
 8288SOL     OW31978   4.783  12.937  10.869 -0.0804 -0.4002  0.5038
 8288SOL    HW131979   4.753  12.850  10.842  4.2882 -1.9267 -0.2419
 8288SOL    HW231980   4.769  12.992  10.792 -1.2737 -0.8342  0.3827
 8289SOL     OW31981  12.018   1.572   0.753  0.4792  0.3080  0.4650
 8289SOL    HW131982  11.983   1.658   0.772 -1.7099 -0.1692 -1.0367
 8289SOL    HW231983  11.952   1.511   0.786  0.6843 -0.6975 -0.8823
 8290SOL     OW31984  12.227   4.116   6.761 -0.5180 -0.0428  0.0452
 8290SOL    HW131985  12.302   4.061   6.784  0.2133  1.2591  0.8774
 8290SOL    HW231986  12.264   4.188   6.712 -1.5411 -0.5209 -1.5050
 8291SOL     OW31987   5.833   0.665  12.004 -0.3155  0.3260 -0.0779
 8291SOL    HW131988   5.908   0.614  12.036 -1.3405 -1.9140 -1.0471
 8291SOL    HW231989   5.766   0.600  11.984 -1.8733  2.1105 -1.0005
 8292SOL     OW31990   6.259   5.054  10.598  0.4341 -0.1642  0.3301
 8292SOL    HW131991   6.220   4.982  10.647 -1.2633  0.8436  0.5726
 8292SOL    HW231992   6.213   5.053  10.513 -0.5617  1.3488  0.7980
 8293SOL     OW31993   0.557   3.823   2.429  0.5217  0.5272 -0.3103
 8293SOL    HW131994   0.479   3.797   2.478  1.2337 -1.0510  0.0417
 8293SOL    HW231995   0.628   3.816   2.493  0.9387  2.1957 -0.5588
 8294SOL     OW31996   1.827   7.033   2.227 -0.8602 -0.1079  0.4259
 8294SOL    HW131997   1.844   7.126   2.244 -0.7614 -0.3269  1.6606
 8294SOL    HW231998   1.747   7.032   2.175  0.2517  0.7405 -1.4061
 8295SOL     OW31999   5.554   8.615  12.511  0.4448  0.2183 -0.2646
 8295SOL    HW132000   5.593   8.568  12.584  1.1503  1.8666  0.4750
 8295SOL    HW232001   5.510   8.690  12.551 -1.9380 -0.5651 -1.2623
 8296SOL     OW32002   8.531   0.623   3.382 -0.0118 -0.0174 -0.3830
 8296SOL    HW132003   8.496   0.617   3.471 -0.2645  1.0381 -0.3907
 8296SOL    HW232004   8.594   0.695   3.386  1.4990 -1.2699 -0.6056
 8297SOL     OW32005   2.351   3.187   3.566 -0.2602 -0.4240 -0.5171
 8297SOL    HW132006   2.426   3.147   3.523  0.7046  0.4306  0.3400
 8297SOL    HW232007   2.275   3.140   3.530  0.5407 -0.1813 -2.6253
 8298SOL     OW32008   0.998  11.146   4.908 -0.0199  0.5719  0.0393
 8298SOL    HW132009   0.980  11.079   4.842 -1.1039  1.3807 -0.5214
 8298SOL    HW232010   0.944  11.121   4.983  0.4847  0.1705  0.2693
 8299SOL     OW32011  10.937  11.321   3.495 -0.4098 -0.3127 -0.1921
 8299SOL    HW132012  11.020  11.365   3.514 -1.2941  1.9661 -1.1615
 8299SOL    HW232013  10.955  11.267   3.419  0.3028 -0.2313 -0.0899
 8300SOL     OW32014  10.961   8.371   4.837 -0.5835 -0.0883 -0.3785
 8300SOL    HW132015  11.004   8.290   4.867  0.9445  0.2609 -1.5052
 8300SOL    HW232016  10.886   8.381   4.896  1.3222 -0.2944  2.2839
 8301SOL     OW32017   3.235   6.247   5.386  0.2625 -0.6900 -0.3714
 8301SOL    HW132018   3.163   6.227   5.327  0.6230 -0.1711 -1.0114
 8301SOL    HW232019   3.308   6.193   5.355  0.4332 -0.4707 -0.3625
 8302SOL     OW32020   7.667   6.546   6.084 -0.1102 -0.4118 -0.0998
 8302SOL    HW132021   7.618   6.474   6.043 -0.7759  1.2117 -2.3844
 8302SOL    HW232022   7.758   6.521   6.075 -0.3560 -1.3197 -0.1536
 8303SOL     OW32023   6.472   7.331  11.212 -0.2276  0.1847 -0.1899
 8303SOL    HW132024   6.503   7.415  11.245 -2.3663  0.9409  0.0580
 8303SOL    HW232025   6.431   7.289  11.288 -3.4707  1.0911 -1.2701
 8304SOL     OW32026   9.895   4.375   5.362  0.4247 -0.0107 -0.0786
 8304SOL    HW132027   9.826   4.309   5.370  0.4571 -0.4473 -2.6644
 8304SOL    HW232028   9.849   4.459   5.373 -0.4554 -0.3146 -1.2741
 8305SOL     OW32029  10.365   1.092   2.071 -0.2172 -0.0472  0.4507
 8305SOL    HW132030  10.410   1.049   1.998 -1.3807  0.5535 -0.6536
 8305SOL    HW232031  10.318   1.021   2.115  0.6388 -0.4435  0.7499
 8306SOL     OW32032  12.857  10.243   2.391 -0.3125 -0.2544 -0.3938
 8306SOL    HW132033  12.880  10.288   2.309 -0.3539 -0.2528 -0.4049
 8306SOL    HW232034  12.762  10.253   2.398 -0.0655  1.8049  0.8537
 8307SOL     OW32035   9.438   3.402  11.466 -0.0329  0.2028  0.0628
 8307SOL    HW132036   9.475   3.472  11.412  1.2640  1.2073  2.1355
 8307SOL    HW232037   9.349   3.432  11.487 -0.4243 -0.0387 -1.1860
 8308SOL     OW32038   3.104   7.697   8.240  0.1811  0.1358  0.2549
 8308SOL    HW132039   3.196   7.720   8.255  0.0480  1.8661 -1.2709
 8308SOL    HW232040   3.054   7.771   8.273 -0.9515 -1.7990  3.3775
 8309SOL     OW32041   2.862  11.549   2.128  1.0029 -0.1518  0.1297
 8309SOL    HW132042   2.795  11.481   2.115  0.3141  0.5868 -0.2682
 8309SOL    HW232043   2.894  11.568   2.040  2.1893 -0.9143  0.3643
 8310SOL     OW32044   8.239   1.317  11.816 -0.0762  0.2031 -0.0675
 8310SOL    HW132045   8.298   1.313  11.892  0.1651  1.0582 -0.1968
 8310SOL    HW232046   8.236   1.410  11.793 -2.6410  0.4175  0.8200
 8311SOL     OW32047   9.262   6.972   9.158  0.8112  0.4436 -0.1939
 8311SOL    HW132048   9.334   6.972   9.222 -0.9117 -0.0001  1.8743
 8311SOL    HW232049   9.209   7.048   9.182  0.3918  0.5608 -1.4415
 8312SOL     OW32050   5.735  11.515   9.460 -0.0250 -0.0488 -0.0373
 8312SOL    HW132051   5.735  11.464   9.541  0.9003 -0.4954 -0.2985
 8312SOL    HW232052   5.737  11.449   9.391  2.5972  0.2633 -0.3762
 8313SOL     OW32053   4.066   9.819   4.616 -0.7062 -0.0729 -0.0321
 8313SOL    HW132054   4.005   9.893   4.618  0.1460  0.6758 -0.8074
 8313SOL    HW232055   4.080   9.803   4.523 -0.6486 -1.0254  0.1363
 8314SOL     OW32056   8.826   9.841   1.605  0.4944 -0.1624 -0.1551
 8314SOL    HW132057   8.762   9.876   1.667  0.1811  1.0480 -1.1183
 8314SOL    HW232058   8.789   9.757   1.578 -0.3417  0.1931 -0.1541
 8315SOL     OW32059   8.254   7.154   7.042 -0.4990 -0.3512  0.0460
 8315SOL    HW132060   8.258   7.229   7.102 -1.6042 -1.1789  1.2186
 8315SOL    HW232061   8.322   7.095   7.074 -1.0912 -0.7941  0.5319
 8316SOL     OW32062   7.794  11.682   3.427  0.6238  0.2711  0.4589
 8316SOL    HW132063   7.707  11.696   3.463  0.4945 -1.5551  0.9927
 8316SOL    HW232064   7.788  11.711   3.336 -0.7448 -0.3863  0.3094
 8317SOL     OW32065   6.795   0.785   2.439 -1.0430 -0.2899  0.2095
 8317SOL    HW132066   6.881   0.809   2.405 -1.5784 -0.4081 -1.2864
 8317SOL    HW232067   6.747   0.867   2.443 -0.9399 -0.2514  0.8799
 8318SOL     OW32068   7.261  12.442   6.321 -0.3961 -0.3040  0.1573
 8318SOL    HW132069   7.203  12.398   6.259 -1.6714  0.4041  0.8109
 8318SOL    HW232070   7.338  12.386   6.326 -1.7903 -2.2767  0.6662
 8319SOL     OW32071  11.859   1.599   2.763  0.4239  0.4560  0.2861
 8319SOL    HW132072  11.911   1.529   2.802  0.0314  1.4288  2.7350
 8319SOL    HW232073  11.900   1.680   2.795 -0.1870  1.3308 -1.0459
 8320SOL     OW32074   3.668  12.636   6.144  0.3482  0.1664 -0.0659
 8320SOL    HW132075   3.751  12.642   6.096  0.3727 -0.6404 -0.1389
 8320SOL    HW232076   3.602  12.631   6.075  0.3050 -0.0047 -0.0123
 8321SOL     OW32077  10.093   3.542   5.735 -0.1812 -0.2248  0.3727
 8321SOL    HW132078  10.104   3.566   5.827  0.0683 -1.6381  0.7270
 8321SOL    HW232079  10.002   3.565   5.715  0.0657  1.0660  0.6515
 8322SOL     OW32080   9.282  10.984   0.490 -0.4278 -0.7549  0.1336
 8322SOL    HW132081   9.338  10.982   0.412  0.7554  1.7332  0.8465
 8322SOL    HW232082   9.206  11.035   0.462  0.2762  0.6673  0.7214
 8323SOL     OW32083   1.676   4.103   6.915  0.0097  0.1798 -0.0128
 8323SOL    HW132084   1.665   4.021   6.867 -0.5677 -0.0645  0.5142
 8323SOL    HW232085   1.734   4.156   6.861 -1.1342  0.1703 -1.2909
 8324SOL     OW32086  12.009   2.387   2.271 -0.4033 -0.1303 -0.4056
 8324SOL    HW132087  12.005   2.460   2.332  0.0570  0.9736 -1.6441
 8324SOL    HW232088  11.927   2.391   2.222  0.8940  1.5707 -2.6305
 8325SOL     OW32089   1.741   7.192   3.166  0.2366 -0.1058  0.3501
 8325SOL    HW132090   1.718   7.245   3.243 -1.1548 -1.7156  1.1274
 8325SOL    HW232091   1.823   7.149   3.191 -1.0415 -1.9341  1.7524
 8326SOL     OW32092   9.904   7.758   6.480  0.0769 -0.0532  0.6860
 8326SOL    HW132093   9.863   7.717   6.556  0.0982  1.7901  1.7494
 8326SOL    HW232094   9.833   7.808   6.439 -0.1261 -1.6118 -1.0072
 8327SOL     OW32095   1.104   5.696   5.358 -0.0295 -0.6241 -0.1410
 8327SOL    HW132096   1.095   5.731   5.447 -1.1570  0.0476 -0.5007
 8327SOL    HW232097   1.029   5.638   5.347  0.2174 -0.8649 -0.5865
 8328SOL     OW32098   9.632  10.264   8.049 -0.0333  0.1975 -0.3476
 8328SOL    HW132099   9.718  10.228   8.029  1.0429  2.7489 -0.5990
 8328SOL    HW232100   9.621  10.337   7.988 -0.4787  2.6445  2.4574
 8329SOL     OW32101   9.300  10.772  12.543 -0.0266 -0.0418  0.5572
 8329SOL    HW132102   9.388  10.797  12.516 -0.2582  1.0381  0.7529
 8329SOL    HW232103   9.281  10.826  12.619 -0.7632 -0.4487  0.6797
 8330SOL     OW32104   0.120  10.174   3.408  0.5022  0.0907  0.1080
 8330SOL    HW132105   0.144  10.091   3.450  0.0764  0.8550  1.9499
 8330SOL    HW232106   0.059  10.149   3.339  0.3960 -1.1307  0.6174
 8331SOL     OW32107  10.100   4.399   3.839 -0.1827 -0.3212 -0.3434
 8331SOL    HW132108  10.027   4.460   3.853 -0.3362  0.2019 -2.9168
 8331SOL    HW232109  10.148   4.436   3.765  1.9146 -1.4120  0.3823
 8332SOL     OW32110   7.837   1.930  12.513 -0.7270 -0.5271  0.3046
 8332SOL    HW132111   7.753   1.899  12.549 -0.9163 -1.3178 -0.7729
 8332SOL    HW232112   7.863   1.862  12.452 -0.5321  0.8874 -1.2411
 8333SOL     OW32113  11.873   5.096   2.002 -0.4155 -0.2438  0.8709
 8333SOL    HW132114  11.934   5.105   2.076  1.8121  1.2614 -0.9928
 8333SOL    HW232115  11.879   5.180   1.956 -3.1011 -0.4887 -0.0821
 8334SOL     OW32116   1.162   6.811  12.797  0.2870  0.4432  0.1496
 8334SOL    HW132117   1.168   6.730  12.848 -3.3066  0.8743  1.5690
 8334SOL    HW232118   1.203   6.877  12.853  0.9707  0.0410  0.1336
 8335SOL     OW32119   7.182   1.926   9.275 -0.2404  0.1450  0.3178
 8335SOL    HW132120   7.244   1.861   9.310  2.4374  1.1325 -2.2142
 8335SOL    HW232121   7.164   1.897   9.186  2.0429  3.3129 -1.3840
 8336SOL     OW32122   0.697   0.546   9.893  0.3271 -0.3820 -0.1913
 8336SOL    HW132123   0.728   0.544   9.803  0.4760 -0.1131 -0.1443
 8336SOL    HW232124   0.608   0.581   9.887  0.6835  0.5512 -0.1311
 8337SOL     OW32125   4.401  11.224   8.865  0.1356 -0.8694  0.1744
 8337SOL    HW132126   4.331  11.172   8.825  0.1373  0.2029 -1.3016
 8337SOL    HW232127   4.459  11.248   8.792  0.3007  0.9077  0.8282
 8338SOL     OW32128   9.792  11.730   6.393 -0.2326 -0.2185 -0.0116
 8338SOL    HW132129   9.869  11.781   6.417 -0.3794 -0.3039  0.6843
 8338SOL    HW232130   9.790  11.731   6.298  1.5114 -1.5022 -0.1164
 8339SOL     OW32131   8.960   7.363  11.092 -0.0122  0.0878  0.4267
 8339SOL    HW132132   8.871   7.376  11.124 -0.1244  0.2703  0.0376
 8339SOL    HW232133   9.009   7.336  11.170 -0.3044  0.4398  0.7394
 8340SOL     OW32134   7.698  11.725   0.220 -0.0844  0.3395 -0.1540
 8340SOL    HW132135   7.631  11.789   0.243 -0.3403 -0.1192  0.4111
 8340SOL    HW232136   7.697  11.721   0.124 -2.0085 -0.8407 -0.1254
 8341SOL     OW32137   4.509  12.241   2.206  0.1852  0.6320 -0.1159
 8341SOL    HW132138   4.574  12.171   2.215  0.4625  0.5519 -2.2407
 8341SOL    HW232139   4.545  12.314   2.257  0.9115 -0.0695  0.4076
 8342SOL     OW32140  11.544   4.946   8.920 -0.0134 -0.0930 -0.0129
 8342SOL    HW132141  11.583   4.861   8.899 -1.4243 -0.3835 -1.6686
 8342SOL    HW232142  11.523   4.985   8.835 -1.9198  0.6954  0.7715
 8343SOL     OW32143  11.119   0.318   4.715 -0.2756  0.3265 -0.1253
 8343SOL    HW132144  11.130   0.240   4.770 -1.0816 -0.0113 -0.4162
 8343SOL    HW232145  11.079   0.284   4.635 -2.6836  1.3230  0.5863
 8344SOL     OW32146   0.516   0.090   9.646  0.0563 -0.0186  0.4123
 8344SOL    HW132147   0.435   0.040   9.651 -0.0528 -0.0719 -1.2941
 8344SOL    HW232148   0.584   0.030   9.678 -0.2406 -0.8633 -0.4895
 8345SOL     OW32149   7.894   9.753   1.912  0.0673 -0.1388 -0.3209
 8345SOL    HW132150   7.926   9.663   1.900  0.0818 -0.2578  0.5802
 8345SOL    HW232151   7.972   9.808   1.904  0.0641 -0.2037 -0.8402
 8346SOL     OW32152   0.769   2.025   8.225  0.1844 -0.3325  0.3544
 8346SOL    HW132153   0.678   2.057   8.222  0.7657  1.4330  0.5006
 8346SOL    HW232154   0.764   1.937   8.188 -1.6244 -0.3541  0.5550
 8347SOL     OW32155  12.638   8.849   1.138 -0.1093 -0.0015  0.0607
 8347SOL    HW132156  12.605   8.766   1.172  1.3690 -0.3439  0.7336
 8347SOL    HW232157  12.615   8.914   1.205  2.1746 -0.5597  1.5207
 8348SOL     OW32158   2.288  12.617   1.924  0.0154 -0.9472 -0.0559
 8348SOL    HW132159   2.280  12.703   1.965 -1.1547 -1.4659  0.8323
 8348SOL    HW232160   2.251  12.629   1.836 -1.9566 -0.9979  0.7335
 8349SOL     OW32161   2.039  10.597   9.512  0.1849  0.2195 -0.1398
 8349SOL    HW132162   2.096  10.556   9.577 -0.0217 -1.8289 -1.1741
 8349SOL    HW232163   2.036  10.689   9.537  0.2351 -0.4577  2.6524
 8350SOL     OW32164   3.582   9.557   7.983 -0.3327 -0.0285 -0.2846
 8350SOL    HW132165   3.539   9.475   8.009  1.8160 -0.9859  0.4194
 8350SOL    HW232166   3.664   9.530   7.942 -0.6221  1.7197 -2.2054
 8351SOL     OW32167   1.278   6.990   0.012 -0.3586 -0.1994  0.2771
 8351SOL    HW132168   1.311   7.020  -0.072 -0.6713 -2.0324 -0.5446
 8351SOL    HW232169   1.259   7.070   0.060 -0.9550  0.9109 -1.7053
 8352SOL     OW32170   6.866  11.266   8.183 -0.1665  0.8862 -0.2226
 8352SOL    HW132171   6.883  11.260   8.089 -1.9160 -0.0687 -0.5199
 8352SOL    HW232172   6.930  11.208   8.223 -0.5344 -0.0894 -1.0030
 8353SOL     OW32173   0.668  10.084   0.553  0.1306  0.5836 -0.2305
 8353SOL    HW132174   0.648  10.130   0.471  1.7575  0.6177 -0.6441
 8353SOL    HW232175   0.584  10.082   0.600 -1.2820 -0.8820 -2.5658
 8354SOL     OW32176  12.130   6.794  11.433 -0.2482 -0.7330 -0.6130
 8354SOL    HW132177  12.181   6.816  11.511 -0.8833  2.1603 -0.8936
 8354SOL    HW232178  12.193   6.758  11.371  0.7950 -0.3709  0.2161
 8355SOL     OW32179  10.119   8.806   2.267  0.2126  0.0244  0.1248
 8355SOL    HW132180  10.094   8.714   2.261 -1.7322  0.5087  0.2271
 8355SOL    HW232181  10.196   8.813   2.210 -1.2262 -1.1302 -2.1211
 8356SOL     OW32182  11.102   4.864   2.033  0.0384  0.1710  0.6024
 8356SOL    HW132183  11.074   4.781   2.072  1.6228 -0.0775  1.2646
 8356SOL    HW232184  11.069   4.930   2.093  1.5499 -0.1624  1.8569
 8357SOL     OW32185   5.870   0.663   7.238  0.6567 -0.2581 -0.4515
 8357SOL    HW132186   5.912   0.723   7.300  0.6319 -0.7491  0.0471
 8357SOL    HW232187   5.870   0.578   7.282  0.5495 -0.5988 -1.0853
 8358SOL     OW32188  10.552  10.640  10.164 -0.6039 -0.4481 -0.2211
 8358SOL    HW132189  10.528  10.548  10.170  1.1064 -1.0522 -1.5425
 8358SOL    HW232190  10.613  10.654  10.236 -0.4376 -0.5065 -0.3494
 8359SOL     OW32191  11.772   2.383   2.096 -0.2793  0.2063 -0.1798
 8359SOL    HW132192  11.771   2.415   2.005 -0.4891 -0.0441 -0.2655
 8359SOL    HW232193  11.715   2.306   2.095  0.2603 -0.2014  0.0169
 8360SOL     OW32194   4.305   2.285   5.959  0.0042  0.1537  0.3649
 8360SOL    HW132195   4.225   2.334   5.979 -0.1538 -0.0533  0.2399
 8360SOL    HW232196   4.363   2.349   5.919 -0.1294  0.2849  0.3811
 8361SOL     OW32197  11.562   7.357  11.359  0.4313  0.1809 -0.4637
 8361SOL    HW132198  11.631   7.378  11.423 -1.1024 -0.5060  1.5245
 8361SOL    HW232199  11.609   7.320  11.284  2.3643  1.5878 -0.0360
 8362SOL     OW32200   4.021  10.241   8.633 -0.0821  0.4296  0.0946
 8362SOL    HW132201   4.074  10.177   8.680  1.8696  3.0144  1.6776
 8362SOL    HW232202   3.935  10.238   8.676 -0.8126 -2.5164 -1.3044
 8363SOL     OW32203   5.763   2.871   8.426 -0.6922  0.6552 -0.1965
 8363SOL    HW132204   5.739   2.829   8.508  1.9963  1.0114  0.8817
 8363SOL    HW232205   5.745   2.804   8.359  0.0071 -0.8598  1.0506
 8364SOL     OW32206   0.432   9.426   1.823  0.0229 -0.3399 -0.5021
 8364SOL    HW132207   0.410   9.447   1.732 -0.0232  0.5397 -0.2934
 8364SOL    HW232208   0.363   9.467   1.875  0.5244 -0.0959 -0.0183
 8365SOL     OW32209   8.939  10.047   4.574  0.3230  0.0615  0.1238
 8365SOL    HW132210   8.953  10.109   4.503 -1.8704  0.6405  0.1286
 8365SOL    HW232211   8.940   9.961   4.532  1.2848  0.2243 -0.2095
 8366SOL     OW32212  12.256   7.618   1.829 -0.8474  0.5479 -0.2905
 8366SOL    HW132213  12.349   7.600   1.841 -0.8294  0.3347 -0.7330
 8366SOL    HW232214  12.219   7.536   1.795 -1.3041  0.4510  0.4158
 8367SOL     OW32215   9.969   0.394   9.527  0.0793  0.6650 -0.4800
 8367SOL    HW132216  10.032   0.339   9.481  0.1224  0.1129  0.2167
 8367SOL    HW232217  10.022   0.459   9.572  0.2219 -0.1519  0.5799
 8368SOL     OW32218  12.038  12.081   0.325  0.2180  0.0511 -0.1080
 8368SOL    HW132219  12.076  12.066   0.238  0.2976 -0.8425  0.0759
 8368SOL    HW232220  12.108  12.122   0.375  1.7363 -3.3801  0.8486
 8369SOL     OW32221  12.067  11.440   9.420 -0.4439 -0.1612  0.1704
 8369SOL    HW132222  11.998  11.500   9.449 -1.4733 -1.0128 -0.4402
 8369SOL    HW232223  12.058  11.364   9.477 -0.2664 -0.4378 -0.1682
 8370SOL     OW32224   4.294   2.986   5.373 -0.4262 -0.1293 -0.4333
 8370SOL    HW132225   4.374   3.036   5.353 -0.1388 -0.5177 -0.2700
 8370SOL    HW232226   4.222   3.045   5.349 -0.0902  0.1902 -0.6659
 8371SOL     OW32227   0.257   8.813   9.317  0.2642 -0.1969 -0.4163
 8371SOL    HW132228   0.191   8.754   9.354 -1.5664  1.9923  0.0555
 8371SOL    HW232229   0.254   8.890   9.374  2.1272  0.6107 -1.3406
 8372SOL     OW32230   3.794  10.848  11.927  0.1551  0.6349 -0.4082
 8372SOL    HW132231   3.747  10.924  11.962 -1.0702  0.0715 -0.7909
 8372SOL    HW232232   3.880  10.852  11.970 -0.5657  1.1384  1.0694
 8373SOL     OW32233   9.289   0.383   3.860  0.0303  0.3525 -0.0785
 8373SOL    HW132234   9.221   0.439   3.822  2.0172  1.9126 -1.5103
 8373SOL    HW232235   9.370   0.411   3.818  1.7636 -0.7150  2.3424
 8374SOL     OW32236   4.153   1.549   5.204 -0.1848  0.0325  0.0231
 8374SOL    HW132237   4.246   1.525   5.198  0.6634  3.0905 -0.8570
 8374SOL    HW232238   4.124   1.555   5.113 -1.1924 -0.5859  0.2882
 8375SOL     OW32239  11.171   6.808   9.623 -0.1997 -0.0948 -0.2526
 8375SOL    HW132240  11.092   6.837   9.577 -0.1148 -0.5228 -0.6727
 8375SOL    HW232241  11.222   6.888   9.635 -1.0360  0.3256  0.7209
 8376SOL     OW32242   9.260   0.784   8.850  0.0310 -0.1215 -0.2038
 8376SOL    HW132243   9.190   0.734   8.892 -1.2710  1.0336 -0.9191
 8376SOL    HW232244   9.235   0.875   8.862  0.8117  0.2900 -1.5077
 8377SOL     OW32245   1.343   6.479   9.569  0.0010  0.2169  0.5348
 8377SOL    HW132246   1.413   6.413   9.567 -0.2494 -0.0380  0.1193
 8377SOL    HW232247   1.361   6.534   9.493 -0.0743  0.3380  0.6050
 8378SOL     OW32248   2.878  10.198   7.725  0.3178 -0.1366  0.2432
 8378SOL    HW132249   2.876  10.292   7.744  1.1332 -0.0167 -0.2162
 8378SOL    HW232250   2.970  10.178   7.713  0.1013 -0.8704 -0.2954
 8379SOL     OW32251   7.591   7.688   4.663 -0.1462 -0.8211  0.0747
 8379SOL    HW132252   7.674   7.735   4.670  0.6777 -2.1065 -0.7194
 8379SOL    HW232253   7.616   7.599   4.641 -1.7976 -0.6945 -2.8939
 8380SOL     OW32254   7.003   9.270  12.079  0.6256 -0.0938 -0.1808
 8380SOL    HW132255   7.046   9.269  12.165  0.8859  1.0841 -0.2747
 8380SOL    HW232256   6.910   9.263  12.098  0.7164 -0.3666  0.1676
 8381SOL     OW32257   4.482   4.626  11.207 -0.3872  0.1254  0.3721
 8381SOL    HW132258   4.476   4.642  11.113 -0.4550 -0.1038  0.3379
 8381SOL    HW232259   4.562   4.574  11.218 -0.5363 -0.0964  0.4082
 8382SOL     OW32260   0.097   1.299  10.045  0.0539 -0.1845 -0.3032
 8382SOL    HW132261   0.154   1.343   9.983 -0.2620 -0.8496 -1.0737
 8382SOL    HW232262   0.155   1.273  10.117  0.0077  3.0497  1.1144
 8383SOL     OW32263   1.045  12.839   9.753 -0.1709  0.4037  0.2398
 8383SOL    HW132264   1.051  12.763   9.695 -1.3931  1.0858 -0.8107
 8383SOL    HW232265   0.955  12.839   9.784 -0.1122  1.2800  0.4331
 8384SOL     OW32266   1.210   0.633   0.930 -0.1520 -0.1105  0.1645
 8384SOL    HW132267   1.241   0.648   0.841 -2.9016  0.2568 -0.8421
 8384SOL    HW232268   1.182   0.541   0.931  0.3378 -0.2597  0.8250
 8385SOL     OW32269   5.927  10.678   4.037 -0.2673 -0.0881  0.2694
 8385SOL    HW132270   5.928  10.586   4.062 -0.0784 -0.4498 -0.9857
 8385SOL    HW232271   5.834  10.698   4.023 -0.3880  0.1609  1.3651
 8386SOL     OW32272   7.665  12.618   7.792  0.0333 -0.2750  0.2724
 8386SOL    HW132273   7.595  12.669   7.833 -0.3612  1.4181 -2.3043
 8386SOL    HW232274   7.737  12.680   7.780  0.0610 -0.6081 -1.6845
 8387SOL     OW32275   7.687   4.662  12.716 -0.3273 -0.4329  0.0725
 8387SOL    HW132276   7.773   4.689  12.746  0.4253 -3.5289  1.1365
 8387SOL    HW232277   7.673   4.711  12.635  3.0459 -0.7509 -0.8629
 8388SOL     OW32278  11.756   8.836   4.554 -0.0066  0.2579  0.1151
 8388SOL    HW132279  11.713   8.753   4.531 -0.7954  0.5533  0.5008
 8388SOL    HW232280  11.748   8.842   4.649 -1.2260  1.4425 -0.0293
 8389SOL     OW32281   6.988   6.160   4.322  0.8002 -0.2017 -0.4905
 8389SOL    HW132282   7.036   6.117   4.393  0.2164 -1.4711 -0.8412
 8389SOL    HW232283   7.055   6.179   4.256  1.7079  2.6299  1.0411
 8390SOL     OW32284   6.723   5.764   1.993  0.1372 -0.8270 -0.5422
 8390SOL    HW132285   6.729   5.750   2.087 -1.8365  3.6819  0.5353
 8390SOL    HW232286   6.633   5.795   1.979  1.0588  0.9551 -3.4649
 8391SOL     OW32287   6.749  11.087  11.229 -0.1177 -0.2831 -0.0887
 8391SOL    HW132288   6.755  11.138  11.148  1.0321  0.1528  0.2398
 8391SOL    HW232289   6.834  11.042  11.235 -0.7030 -1.3907  0.1897
 8392SOL     OW32290   6.598   9.323   3.909 -0.6661 -0.2370  0.0041
 8392SOL    HW132291   6.505   9.308   3.924 -0.4302 -1.5849  0.2060
 8392SOL    HW232292   6.622   9.390   3.973 -1.4260 -0.1081  0.1597
 8393SOL     OW32293   6.630   5.460   1.368 -0.0722 -0.3167 -0.2491
 8393SOL    HW132294   6.626   5.473   1.462 -0.5223 -1.6631 -0.0629
 8393SOL    HW232295   6.541   5.475   1.337  0.3404  1.4980 -0.6910
 8394SOL     OW32296   0.566   5.453  11.137  0.4453 -0.4547  0.0349
 8394SOL    HW132297   0.662   5.449  11.141  0.3784 -1.3678  1.4517
 8394SOL    HW232298   0.542   5.387  11.073  0.7693  0.4301 -1.0480
 8395SOL     OW32299  12.819   8.421   3.174 -0.2113 -0.2857  0.2777
 8395SOL    HW132300  12.835   8.342   3.226 -4.6829 -0.7391  1.4418
 8395SOL    HW232301  12.792   8.487   3.239  1.0444  1.4693 -0.9004
 8396SOL     OW32302  12.756   9.398  10.046 -0.2702 -0.4085 -0.1768
 8396SOL    HW132303  12.799   9.342  10.111 -0.1503 -0.6125 -0.4342
 8396SOL    HW232304  12.789   9.367   9.962 -0.7335 -0.4078 -0.3605
 8397SOL     OW32305  10.376   1.554   5.674 -0.2929  0.4015 -0.2531
 8397SOL    HW132306  10.291   1.522   5.703 -0.7263  0.7610 -1.0900
 8397SOL    HW232307  10.365   1.570   5.580  0.2320  1.8954 -0.0978
 8398SOL     OW32308   9.401   4.766   5.013 -0.4155  0.3319 -0.1276
 8398SOL    HW132309   9.338   4.837   5.004 -0.5875  0.1822 -0.1012
 8398SOL    HW232310   9.433   4.752   4.924 -2.3369 -1.3490 -0.6237
 8399SOL     OW32311   9.919   6.807   6.876 -0.5468 -0.1303  0.1199
 8399SOL    HW132312   9.919   6.718   6.841  2.0162  0.5559 -1.8709
 8399SOL    HW232313   9.868   6.858   6.813 -0.0077  0.2278 -0.0316
 8400SOL     OW32314  10.522  12.182  11.368  0.5601 -0.1099  0.4729
 8400SOL    HW132315  10.436  12.186  11.409  0.2685 -1.0428 -0.0259
 8400SOL    HW232316  10.581  12.151  11.437  0.8739  2.1925  1.3379
 8401SOL     OW32317   9.284   0.078   4.985 -0.1589 -0.3162  0.0553
 8401SOL    HW132318   9.223   0.007   5.004 -0.6260 -0.4408 -1.7025
 8401SOL    HW232319   9.357   0.036   4.940  0.5018  0.0520  0.7580
 8402SOL     OW32320   4.454   4.583   0.976 -0.3744 -0.4091 -0.3252
 8402SOL    HW132321   4.468   4.515   1.043  1.1273  0.5145  0.3544
 8402SOL    HW232322   4.460   4.537   0.893 -1.8591 -1.5160  0.1286
 8403SOL     OW32323   0.141   3.848   1.724 -0.2578 -0.5597 -0.2932
 8403SOL    HW132324   0.047   3.834   1.722 -0.4488  0.6005 -0.2964
 8403SOL    HW232325   0.165   3.838   1.816  0.2560 -4.3876 -0.6735
 8404SOL     OW32326   9.649   9.611   5.144 -0.6426 -0.9343 -0.1364
 8404SOL    HW132327   9.665   9.520   5.118 -1.8686 -0.9853 -0.8347
 8404SOL    HW232328   9.735   9.646   5.164 -0.2014 -2.4222  0.7225
 8405SOL     OW32329  11.467  10.210   1.202  0.0601 -0.6526  0.2580
 8405SOL    HW132330  11.474  10.295   1.247  3.6471  0.2023 -1.5517
 8405SOL    HW232331  11.492  10.146   1.268  1.2055  0.1576  0.6466
 8406SOL     OW32332   8.645   6.770   2.540 -0.6629 -0.1725  0.1115
 8406SOL    HW132333   8.555   6.756   2.567 -0.6697 -0.6748 -0.1544
 8406SOL    HW232334   8.681   6.681   2.531 -0.5625 -0.0198 -1.1651
 8407SOL     OW32335   6.040   5.569  12.858  0.2286 -0.5333  0.0634
 8407SOL    HW132336   6.074   5.514  12.929 -0.8128  0.0301  1.0259
 8407SOL    HW232337   6.118   5.597  12.810  0.9687 -0.7435  1.1144
 8408SOL     OW32338   5.973   0.497   5.967 -0.3672 -0.2738 -0.4747
 8408SOL    HW132339   6.044   0.484   6.030 -0.8754 -1.5600 -0.1313
 8408SOL    HW232340   6.011   0.551   5.898  0.8872 -0.7637 -0.1883
 8409SOL     OW32341  11.426  11.947   0.286 -0.0198  0.0573 -0.3867
 8409SOL    HW132342  11.426  11.864   0.335  0.4048  0.2648 -0.0276
 8409SOL    HW232343  11.336  11.956   0.255  0.0038 -0.7104 -0.7194
 8410SOL     OW32344   8.528   1.750   8.019  0.4293 -1.0232 -0.5331
 8410SOL    HW132345   8.500   1.678   8.075  0.8395 -0.7302  0.0603
 8410SOL    HW232346   8.616   1.725   7.990  2.1852  0.8538  2.6611
 8411SOL     OW32347   9.249   6.225  11.532  0.4184  0.2428 -0.6747
 8411SOL    HW132348   9.176   6.209  11.591  0.9854  1.1400  0.2910
 8411SOL    HW232349   9.208   6.247  11.448 -0.4341 -4.3867 -1.7245
 8412SOL     OW32350   5.866   3.664  11.774 -0.1898 -0.7131 -0.0212
 8412SOL    HW132351   5.890   3.646  11.865 -1.4609 -0.7342  0.3341
 8412SOL    HW232352   5.858   3.578  11.733 -0.2413 -0.7306  0.0260
 8413SOL     OW32353   5.817   1.041   5.453 -0.0552  0.7328 -0.5777
 8413SOL    HW132354   5.825   0.947   5.464 -1.5319  0.4406 -1.6615
 8413SOL    HW232355   5.871   1.061   5.376  2.7836  1.3308  1.3977
 8414SOL     OW32356   7.065   1.687  12.395 -0.3252  0.2154  0.1885
 8414SOL    HW132357   7.148   1.704  12.349 -0.6734  0.0538 -0.5179
 8414SOL    HW232358   7.087   1.696  12.488  0.5092  0.0799  0.0168
 8415SOL     OW32359  11.935   4.732   0.331  0.0178  0.2485  0.5054
 8415SOL    HW132360  11.895   4.758   0.413  0.8357 -0.1617  1.0486
 8415SOL    HW232361  12.025   4.711   0.354 -0.2158 -1.6291 -0.1658
 8416SOL     OW32362   5.719   9.077   5.902 -0.2257 -0.1804 -0.5966
 8416SOL    HW132363   5.632   9.038   5.915  1.0863 -2.3782  2.8391
 8416SOL    HW232364   5.767   9.058   5.982  3.5712  0.7543 -2.3901
 8417SOL     OW32365   0.435  11.687   9.199 -0.4314 -0.1536  0.6405
 8417SOL    HW132366   0.341  11.675   9.213 -1.1614  3.5140 -0.0342
 8417SOL    HW232367   0.462  11.746   9.269  1.2180 -0.5017  0.3359
 8418SOL     OW32368   6.699  12.892  12.618 -0.1720 -0.0335 -0.4236
 8418SOL    HW132369   6.790  12.874  12.642 -0.4883 -0.2354  0.6420
 8418SOL    HW232370   6.651  12.813  12.643 -0.8078  0.4714 -0.0229
 8419SOL     OW32371   2.300   4.100  11.789 -0.3723  0.1235  0.3521
 8419SOL    HW132372   2.302   4.017  11.740  1.1366  1.2291 -1.6169
 8419SOL    HW232373   2.220   4.143  11.760 -0.5785 -0.1595  0.4995
 8420SOL     OW32374   7.898  11.203   4.579  0.7081  0.1356  0.6008
 8420SOL    HW132375   7.953  11.282   4.583  0.6678  0.2360 -0.5676
 8420SOL    HW232376   7.864  11.194   4.668  2.2318  0.3442  1.2428
 8421SOL     OW32377  10.833   2.554   2.355  0.0680  0.4456  0.5328
 8421SOL    HW132378  10.817   2.520   2.267 -3.0854  0.3011  1.0261
 8421SOL    HW232379  10.881   2.485   2.400 -0.8230 -0.7359 -0.2725
 8422SOL     OW32380   2.929   4.869   6.285 -0.2862  0.2024  0.1015
 8422SOL    HW132381   3.012   4.915   6.296 -0.5007  1.1475 -1.7163
 8422SOL    HW232382   2.874   4.900   6.357  0.4039  0.8428  0.3626
 8423SOL     OW32383   8.640   4.264   2.103  0.0945  0.8696  0.1496
 8423SOL    HW132384   8.714   4.317   2.075 -0.6202  1.9419  0.2425
 8423SOL    HW232385   8.563   4.318   2.085 -0.5919  0.2527  1.1309
 8424SOL     OW32386   1.174   3.489   2.488  0.5539  0.4035  0.2131
 8424SOL    HW132387   1.128   3.448   2.561 -1.7209  0.8903 -0.8747
 8424SOL    HW232388   1.222   3.416   2.447 -1.5076 -0.7726 -0.2626
 8425SOL     OW32389   9.940   4.192   0.537 -0.0053  0.3390 -0.0844
 8425SOL    HW132390   9.957   4.116   0.592 -1.5957 -1.0812 -1.4447
 8425SOL    HW232391   9.853   4.223   0.565 -0.3956  0.1983 -1.1198
 8426SOL     OW32392   3.634   2.817   2.661  0.2951  0.4518  0.2512
 8426SOL    HW132393   3.632   2.817   2.565  0.9167 -0.5532  0.2252
 8426SOL    HW232394   3.689   2.893   2.683  0.8285  0.2075 -0.2164
 8427SOL     OW32395   7.152   2.722   2.428 -0.4161 -0.4212 -0.4338
 8427SOL    HW132396   7.092   2.795   2.410  0.1922  0.2537  0.1729
 8427SOL    HW232397   7.095   2.651   2.459 -0.9005  0.2573  0.2836
 8428SOL     OW32398  11.945   9.534   0.037 -0.1095 -0.0203 -0.4646
 8428SOL    HW132399  11.902   9.449   0.047  0.3206 -0.1562  0.2709
 8428SOL    HW232400  11.974   9.535  -0.054  4.8200 -3.1049  0.6545
 8429SOL     OW32401  10.640   2.581   0.505  0.5813 -0.2336 -0.2083
 8429SOL    HW132402  10.668   2.633   0.581  1.1039 -2.3228  1.1260
 8429SOL    HW232403  10.552   2.552   0.527  0.3507 -0.0475 -0.8680
 8430SOL     OW32404   6.520   0.231   8.267 -0.3995 -0.0446 -0.6964
 8430SOL    HW132405   6.452   0.181   8.312 -1.9102  0.6715 -2.1125
 8430SOL    HW232406   6.597   0.222   8.324 -1.2993 -1.9108  0.3159
 8431SOL     OW32407   0.791   0.184   6.892 -0.0270  0.4538 -0.3610
 8431SOL    HW132408   0.799   0.165   6.985 -1.3862 -0.0281 -0.3144
 8431SOL    HW232409   0.701   0.160   6.870 -0.5258  2.8696 -1.2583
 8432SOL     OW32410   5.190   1.081   9.459 -0.4127 -0.1537 -0.3399
 8432SOL    HW132411   5.171   1.163   9.413 -1.1306  0.2712  0.6811
 8432SOL    HW232412   5.149   1.091   9.545 -1.9163 -2.2236 -0.7366
 8433SOL     OW32413   0.589   8.375  10.556  0.1375 -0.7115 -0.1893
 8433SOL    HW132414   0.600   8.282  10.577  1.3562 -1.0553 -2.1329
 8433SOL    HW232415   0.657   8.393  10.492 -0.8680  1.2274 -0.7757
 8434SOL     OW32416   4.269   1.382   3.718  0.1411 -0.9380  0.0031
 8434SOL    HW132417   4.327   1.417   3.651  1.1829 -2.3060  0.1429
 8434SOL    HW232418   4.328   1.343   3.783 -0.9034 -2.3388  0.1676
 8435SOL     OW32419   0.467   8.063  10.549 -0.4852  0.5818  0.4291
 8435SOL    HW132420   0.510   7.977  10.554  1.0754  0.8868 -3.7159
 8435SOL    HW232421   0.377   8.046  10.575  0.1288 -1.9834  1.2227
 8436SOL     OW32422   5.475   0.004   8.555 -0.2052 -0.0682 -0.4272
 8436SOL    HW132423   5.554  -0.028   8.512 -0.0899 -2.6896  1.4486
 8436SOL    HW232424   5.405  -0.053   8.523 -0.7031  0.0534  0.3963
 8437SOL     OW32425  10.615  12.106   5.313 -0.0777  0.3013 -0.6093
 8437SOL    HW132426  10.684  12.162   5.277  0.8844 -1.0603 -0.9378
 8437SOL    HW232427  10.617  12.124   5.407  1.2130 -0.2109 -0.5150
 8438SOL     OW32428  10.336   0.937   8.434 -0.0156  0.2846 -0.3808
 8438SOL    HW132429  10.406   0.886   8.474  2.0056  1.7801 -1.7890
 8438SOL    HW232430  10.279   0.961   8.506  1.2650 -0.4574  0.9257
 8439SOL     OW32431   6.726   3.339   4.350  0.6700  0.2339  0.2599
 8439SOL    HW132432   6.637   3.309   4.332  1.2682 -2.2987  1.0356
 8439SOL    HW232433   6.717   3.399   4.424 -0.4130  0.2859  0.1016
 8440SOL     OW32434   5.665   3.731   6.043 -0.0704  0.3372 -0.4142
 8440SOL    HW132435   5.739   3.770   6.090 -0.2328  1.3075 -0.9418
 8440SOL    HW232436   5.588   3.774   6.079 -0.3226 -0.1042 -0.4193
 8441SOL     OW32437   4.960   9.975   3.812  0.2088 -0.5380  0.4839
 8441SOL    HW132438   4.929   9.960   3.723  2.3521  2.2131 -0.8726
 8441SOL    HW232439   5.031   9.912   3.825  0.1570 -0.6715  0.1121
 8442SOL     OW32440   9.727  10.938  12.440  0.0592  0.3775 -0.2237
 8442SOL    HW132441   9.775  11.021  12.447 -0.6253  0.7740 -0.0785
 8442SOL    HW232442   9.642  10.957  12.480  0.4197 -0.8181  1.1943
 8443SOL     OW32443  12.799   3.940   5.270 -0.2439 -0.0549  0.8126
 8443SOL    HW132444  12.727   3.902   5.321 -0.6987  0.4477  0.5639
 8443SOL    HW232445  12.801   4.032   5.299 -1.5823  0.6852 -1.2064
 8444SOL     OW32446   5.597   3.206   4.477  0.1832 -0.1492 -0.1253
 8444SOL    HW132447   5.518   3.245   4.442  0.1916  0.5209  0.5935
 8444SOL    HW232448   5.620   3.138   4.414 -0.3133  0.4223 -0.9344
 8445SOL     OW32449   4.381   2.360   7.877 -0.6362  0.5957 -0.6867
 8445SOL    HW132450   4.423   2.428   7.930  1.1864 -0.1184 -1.1301
 8445SOL    HW232451   4.395   2.389   7.787 -0.0316 -0.2335 -0.8731
 8446SOL     OW32452  12.219   0.999   6.303 -0.2356 -0.5029  0.4358
 8446SOL    HW132453  12.250   1.090   6.309  0.2493 -0.6863  0.7550
 8446SOL    HW232454  12.298   0.947   6.289 -0.5970 -0.8081 -0.5297
 8447SOL     OW32455  10.541   9.522   1.950 -0.0570  0.1752 -0.0506
 8447SOL    HW132456  10.539   9.513   1.854 -1.7556 -1.4653  0.0511
 8447SOL    HW232457  10.632   9.539   1.971  0.1838  1.6534 -2.0301
 8448SOL     OW32458   1.681   8.015   1.425  0.0117 -0.4917  0.4983
 8448SOL    HW132459   1.716   8.096   1.462  0.6589 -0.2637 -0.5832
 8448SOL    HW232460   1.602   8.042   1.379 -0.1093 -0.5701  0.6618
 8449SOL     OW32461   3.747   2.330  11.071  0.6104 -0.1897 -0.2017
 8449SOL    HW132462   3.787   2.356  11.154 -1.1751  1.7446  0.1708
 8449SOL    HW232463   3.653   2.339  11.086  0.2440  1.8417 -2.8485
 8450SOL     OW32464  11.954   3.111  11.766 -0.0085 -0.0621  0.4049
 8450SOL    HW132465  12.045   3.103  11.795 -0.3671  1.8006  2.3245
 8450SOL    HW232466  11.952   3.188  11.710 -0.0931 -1.2325 -1.2530
 8451SOL     OW32467   8.111  10.735   4.451 -0.3443 -0.8687 -0.1205
 8451SOL    HW132468   8.051  10.698   4.387 -1.4399  1.1614 -0.3688
 8451SOL    HW232469   8.149  10.811   4.407  0.2796 -0.4980  1.0148
 8452SOL     OW32470   9.387   6.157  12.764 -0.0562 -0.1570  0.0052
 8452SOL    HW132471   9.342   6.232  12.725 -1.6115 -0.1479  1.6728
 8452SOL    HW232472   9.438   6.119  12.692  0.1215  1.9908 -1.0832
 8453SOL     OW32473   5.550   8.117   5.906  0.4060  0.2216  0.0941
 8453SOL    HW132474   5.535   8.024   5.887 -0.4705  0.3444  0.1075
 8453SOL    HW232475   5.623   8.118   5.968  0.5566 -0.4474 -0.0670
 8454SOL     OW32476   4.465   4.082  12.152 -0.4223 -0.1442 -0.7279
 8454SOL    HW132477   4.512   4.132  12.085  0.4557  0.1715  0.1079
 8454SOL    HW232478   4.394   4.139  12.180  1.4794  1.3389  1.3232
 8455SOL     OW32479   4.160   7.530  11.514 -0.3687 -0.6048 -0.0593
 8455SOL    HW132480   4.173   7.499  11.424  2.3209 -0.9696  0.3763
 8455SOL    HW232481   4.241   7.576  11.535 -1.8931  1.6316  1.3889
 8456SOL     OW32482   2.489   1.169   8.475 -0.3162  0.2777 -0.0376
 8456SOL    HW132483   2.480   1.263   8.459 -1.3128  0.7447  2.7156
 8456SOL    HW232484   2.542   1.162   8.554  0.1725 -1.5207 -0.4686
 8457SOL     OW32485  12.723   5.242   6.906  0.3862  0.2062  0.0253
 8457SOL    HW132486  12.778   5.302   6.855  0.4766  0.0313 -0.0850
 8457SOL    HW232487  12.644   5.230   6.853  0.0301  0.8358  0.4075
 8458SOL     OW32488   6.651   2.679   2.449  0.1820  0.1634 -0.2158
 8458SOL    HW132489   6.653   2.621   2.524  1.7214  0.8957  0.3378
 8458SOL    HW232490   6.640   2.621   2.374 -3.6959 -0.4602  0.6148
 8459SOL     OW32491   8.068   0.795   5.659  0.4287 -0.1122 -0.5101
 8459SOL    HW132492   7.989   0.773   5.708  0.8828  0.9824  0.7587
 8459SOL    HW232493   8.094   0.712   5.618 -0.6065 -0.7992  0.1657
 8460SOL     OW32494  12.776   4.721  11.775 -0.0502 -0.2341 -0.1692
 8460SOL    HW132495  12.782   4.754  11.685 -1.8613  0.2875 -0.1379
 8460SOL    HW232496  12.693   4.756  11.808 -0.1042 -1.5816  1.2259
 8461SOL     OW32497   0.938   9.815   4.181 -0.3872 -0.5458 -0.6100
 8461SOL    HW132498   0.871   9.882   4.191  0.1411 -0.1434  0.4256
 8461SOL    HW232499   1.019   9.864   4.168  0.0758 -0.9584  0.6052
 8462SOL     OW32500   1.529   5.295   8.141  0.1137 -0.3950  0.3268
 8462SOL    HW132501   1.583   5.370   8.164  1.0843 -0.5207 -1.3693
 8462SOL    HW232502   1.440   5.321   8.165  0.5290  0.9999  0.4378
 8463SOL     OW32503  12.322   3.218   1.205 -0.0644  0.0887  0.5438
 8463SOL    HW132504  12.354   3.136   1.244 -2.2750 -1.3085 -0.4053
 8463SOL    HW232505  12.245   3.192   1.154  0.5924  2.3882 -1.8432
 8464SOL     OW32506   1.785  11.970   9.059 -0.2718  0.5727 -0.0525
 8464SOL    HW132507   1.733  11.897   9.091  0.0690  0.2844 -0.1616
 8464SOL    HW232508   1.868  11.932   9.031  0.2608  1.1139  0.7312
 8465SOL     OW32509   7.581   3.206   9.558 -0.1612  0.5410  0.1677
 8465SOL    HW132510   7.547   3.296   9.566 -2.0967 -0.0954 -0.3984
 8465SOL    HW232511   7.504   3.151   9.560  0.9648 -1.1116 -0.0158
 8466SOL     OW32512   4.563   0.010   7.709 -0.1226 -0.2069  0.0930
 8466SOL    HW132513   4.655   0.038   7.713 -0.3854  1.7062 -3.2888
 8466SOL    HW232514   4.568  -0.085   7.701  1.4484 -0.2741  1.2830
 8467SOL     OW32515   1.999   0.598   1.071 -0.0971  0.3561 -0.0222
 8467SOL    HW132516   2.032   0.640   0.992  3.0487 -0.6464  0.6436
 8467SOL    HW232517   2.046   0.640   1.143 -0.9277 -0.5491  1.0941
 8468SOL     OW32518   4.872   8.225  11.287 -0.1396  0.1551 -0.7446
 8468SOL    HW132519   4.957   8.248  11.325  0.1791  0.0669 -1.3806
 8468SOL    HW232520   4.858   8.134  11.312  0.3430 -0.0837 -1.3142
 8469SOL     OW32521   9.490   7.745   4.365 -0.3802 -0.1699 -0.2943
 8469SOL    HW132522   9.528   7.762   4.279  1.6746 -2.2884  0.1105
 8469SOL    HW232523   9.406   7.703   4.346  0.2514 -1.0138 -1.2923
 8470SOL     OW32524   0.902   4.998   2.112  0.1752 -0.1034 -0.1985
 8470SOL    HW132525   0.853   5.024   2.034 -0.1635  0.2196  0.1203
 8470SOL    HW232526   0.951   5.076   2.137 -0.4891  0.1065  0.4920
 8471SOL     OW32527   9.936  11.282   3.693  0.1909  0.4564 -0.1180
 8471SOL    HW132528   9.942  11.192   3.726  0.8451  1.0815  1.6034
 8471SOL    HW232529  10.021  11.321   3.715  0.5559  1.0481 -2.3300
 8472SOL     OW32530  12.416   9.153  12.230 -0.1566  0.2873 -0.1064
 8472SOL    HW132531  12.396   9.163  12.323  0.0851 -1.5569  0.1742
 8472SOL    HW232532  12.344   9.100  12.196  1.4970 -2.0532 -0.1787
 8473SOL     OW32533   2.054   5.773   1.814  0.1693 -0.4982  0.1595
 8473SOL    HW132534   1.962   5.796   1.829  0.1545 -0.9702  0.8663
 8473SOL    HW232535   2.095   5.854   1.786 -0.4272 -0.2425  0.0118
 8474SOL     OW32536   4.840   3.146   8.850  0.1420 -0.5055 -0.1828
 8474SOL    HW132537   4.752   3.120   8.874  0.0721 -0.3652 -0.2815
 8474SOL    HW232538   4.883   3.065   8.823  0.4297 -0.7701  1.0255
 8475SOL     OW32539   6.830   5.235   3.354 -0.2137  0.0045 -0.2741
 8475SOL    HW132540   6.776   5.209   3.429  1.0432 -0.0916  0.6367
 8475SOL    HW232541   6.848   5.153   3.309  2.0704 -0.5479  1.4547
 8476SOL     OW32542   1.290  11.793  10.773 -0.3071  0.3717  0.0504
 8476SOL    HW132543   1.341  11.806  10.693 -0.4491 -0.7089 -0.2401
 8476SOL    HW232544   1.354  11.801  10.843  0.4750 -1.7273 -0.3492
 8477SOL     OW32545   3.481  11.949   7.995  0.0027  0.8665 -0.1515
 8477SOL    HW132546   3.546  11.972   7.928 -0.3673 -0.7667 -1.1202
 8477SOL    HW232547   3.436  12.032   8.014  0.4328  1.4667 -1.5919
 8478SOL     OW32548  11.405   4.237  11.701  0.2503 -0.0892 -0.0038
 8478SOL    HW132549  11.344   4.301  11.666 -1.0856 -0.3240  1.7814
 8478SOL    HW232550  11.491   4.278  11.691 -0.4575  1.4520 -0.0012
 8479SOL     OW32551  12.271   3.568  11.744 -0.3013 -0.2214  0.1443
 8479SOL    HW132552  12.216   3.645  11.731 -0.1791 -0.1559  0.0204
 8479SOL    HW232553  12.222   3.514  11.805 -0.6776 -0.3347 -0.2526
 8480SOL     OW32554   8.810  11.277  11.845 -0.0137  0.5210 -0.0973
 8480SOL    HW132555   8.891  11.227  11.837 -0.8314 -0.7715 -0.6155
 8480SOL    HW232556   8.781  11.289  11.755  1.2158  3.8053 -0.1742
 8481SOL     OW32557   5.033   1.037   0.650 -0.2187 -0.0850 -0.3047
 8481SOL    HW132558   4.979   0.960   0.668  0.7992 -1.1074 -1.4482
 8481SOL    HW232559   5.001   1.103   0.711 -0.0404 -1.9020  1.9116
 8482SOL     OW32560   1.004   6.958   7.639 -0.1459  0.5570 -0.0424
 8482SOL    HW132561   1.049   7.042   7.633 -2.1306  1.6471 -0.4209
 8482SOL    HW232562   1.056   6.907   7.701  1.2490  1.9566 -0.0244
 8483SOL     OW32563   7.502   2.540   1.611 -0.4265  0.1024  0.3306
 8483SOL    HW132564   7.503   2.562   1.518 -0.7328 -0.4357  0.1959
 8483SOL    HW232565   7.433   2.474   1.619 -0.2581 -0.0089  0.9045
 8484SOL     OW32566   5.704   4.670   6.513 -0.0491 -1.0203  0.1369
 8484SOL    HW132567   5.699   4.763   6.493  0.2845 -0.7298  1.3271
 8484SOL    HW232568   5.668   4.627   6.436 -1.3852  0.1404  0.0793
 8485SOL     OW32569   8.709   5.471   6.837  0.4303 -0.2836  0.2990
 8485SOL    HW132570   8.748   5.534   6.777  1.2735 -0.2900  0.8303
 8485SOL    HW232571   8.689   5.522   6.916 -1.1885 -0.1518 -0.1680
 8486SOL     OW32572   2.960   2.410   3.671 -0.3524 -0.3891  0.1590
 8486SOL    HW132573   2.968   2.331   3.726  1.5363 -0.3263  0.0173
 8486SOL    HW232574   2.941   2.480   3.733 -1.0582 -0.7649  0.3905
 8487SOL     OW32575   5.409   7.607   7.264 -0.2528 -0.2909  0.3240
 8487SOL    HW132576   5.484   7.635   7.316  2.0663 -0.5991 -2.5858
 8487SOL    HW232577   5.376   7.687   7.223 -2.2649  0.0011  2.3433
 8488SOL     OW32578   9.622   0.209  12.819  0.1442 -0.4234  0.2717
 8488SOL    HW132579   9.661   0.200  12.907  1.2512 -0.7918 -0.2400
 8488SOL    HW232580   9.697   0.213  12.760 -0.6029 -1.0564 -0.7461
 8489SOL     OW32581   3.969  12.613   6.233 -0.3160  0.6531  0.0859
 8489SOL    HW132582   3.959  12.585   6.142 -1.6577  0.7341  0.1759
 8489SOL    HW232583   4.040  12.560   6.268 -1.1057 -0.8341 -0.4593
 8490SOL     OW32584   2.335   9.613   1.291 -0.0046 -0.5015 -0.0093
 8490SOL    HW132585   2.390   9.571   1.225 -1.2770  0.3515 -1.6682
 8490SOL    HW232586   2.398   9.657   1.349  1.1017  0.3248 -1.7582
 8491SOL     OW32587   3.751   1.546  11.909 -0.4879  0.3730  0.1630
 8491SOL    HW132588   3.800   1.505  11.981 -0.9718  1.0376  0.8808
 8491SOL    HW232589   3.815   1.602  11.865 -0.1595 -0.1285 -0.0069
 8492SOL     OW32590   6.069   8.887   4.852  0.3153  0.2799 -0.0537
 8492SOL    HW132591   6.117   8.807   4.830  0.1357  0.4989 -1.3547
 8492SOL    HW232592   6.081   8.944   4.775 -0.0984  1.2471  0.5747
 8493SOL     OW32593  12.598   7.252   7.813  0.5607  0.2352 -0.0047
 8493SOL    HW132594  12.540   7.180   7.788  0.8454  0.0729 -0.1980
 8493SOL    HW232595  12.553   7.331   7.781  1.1018  0.0060 -1.3965
 8494SOL     OW32596   2.081   5.513   4.639 -0.2558  0.2466 -0.3578
 8494SOL    HW132597   2.030   5.441   4.676  0.2491 -0.6653 -1.3954
 8494SOL    HW232598   2.103   5.568   4.715 -0.8296 -0.5608  0.4132
 8495SOL     OW32599  10.361   8.449   8.029  0.1550  0.1276 -0.5118
 8495SOL    HW132600  10.314   8.523   7.990  1.0270  0.8681 -0.2023
 8495SOL    HW232601  10.295   8.402   8.078 -0.5941  0.2171 -1.3979
 8496SOL     OW32602  12.333  10.850   7.849  0.2873  0.1204 -0.1500
 8496SOL    HW132603  12.375  10.866   7.933 -0.3644  0.7303  0.0673
 8496SOL    HW232604  12.248  10.892   7.856  0.5749  0.9655 -1.4350
 8497SOL     OW32605   8.962   6.286   9.281 -0.2108  0.5080  0.5941
 8497SOL    HW132606   8.922   6.337   9.352  0.3069  0.5340  0.8728
 8497SOL    HW232607   9.053   6.274   9.308  0.5128  2.1108 -0.9315
 8498SOL     OW32608   6.252  10.256  12.677  0.0940 -0.0773  0.1526
 8498SOL    HW132609   6.182  10.197  12.706 -0.3964  0.6018  0.3733
 8498SOL    HW232610   6.319  10.249  12.744 -0.4679  0.4922  0.7865
 8499SOL     OW32611   2.650   8.574  10.907  0.3473 -0.0443  0.2027
 8499SOL    HW132612   2.702   8.597  10.829 -0.6124  1.3565 -0.0608
 8499SOL    HW232613   2.569   8.539  10.871 -0.5875  1.6950  0.5037
 8500SOL     OW32614   7.284   7.865   6.691  0.2726  0.3870 -0.5678
 8500SOL    HW132615   7.353   7.798   6.698  1.2695  1.3844 -0.6139
 8500SOL    HW232616   7.276   7.900   6.779  0.6565  1.0747 -0.8009
 8501SOL     OW32617   3.873  12.339   1.373  0.6279 -0.2887  0.6014
 8501SOL    HW132618   3.850  12.413   1.429 -0.1468  0.3847 -0.5610
 8501SOL    HW232619   3.848  12.367   1.285  1.6689 -1.3725 -0.0711
 8502SOL     OW32620   1.359   2.746   3.135  0.1988 -0.3611  0.3028
 8502SOL    HW132621   1.380   2.729   3.226  2.1707  1.0299  0.1795
 8502SOL    HW232622   1.341   2.660   3.097  3.2177 -1.4854  1.1332
 8503SOL     OW32623   5.465   5.944   6.369 -0.0847 -0.2263 -0.1995
 8503SOL    HW132624   5.377   5.931   6.334  0.3497 -1.7385 -0.8093
 8503SOL    HW232625   5.522   5.941   6.292  0.6074 -0.5560  0.3084
 8504SOL     OW32626   9.358   4.130   1.508  0.0763 -0.4768  0.0142
 8504SOL    HW132627   9.449   4.150   1.530  0.3693  0.4664 -1.8271
 8504SOL    HW232628   9.346   4.038   1.533  1.3040 -0.3954  0.9463
 8505SOL     OW32629   8.610   7.964  11.583  0.1232  0.0035 -0.0364
 8505SOL    HW132630   8.517   7.967  11.607  0.3879  0.8937  0.9059
 8505SOL    HW232631   8.640   8.054  11.590  0.6666  0.0234 -2.0001
 8506SOL     OW32632   6.641  12.963   3.053 -0.3141  0.5920  0.3981
 8506SOL    HW132633   6.577  12.940   3.121  0.7496 -0.3588  1.1157
 8506SOL    HW232634   6.642  12.886   2.995  1.8779 -0.4692  1.7362
 8507SOL     OW32635   5.082   1.669   9.875 -0.2246 -0.2391 -0.4397
 8507SOL    HW132636   5.111   1.579   9.889  2.8011  0.5069 -1.2207
 8507SOL    HW232637   5.115   1.717   9.950 -1.1921  0.3881 -0.3929
 8508SOL     OW32638   5.043   4.822   5.193  0.1078 -0.0762  0.0038
 8508SOL    HW132639   5.114   4.885   5.182 -0.4469  0.3543 -1.4059
 8508SOL    HW232640   5.018   4.829   5.285  1.4394  0.2288  0.3642
 8509SOL     OW32641   1.812   4.113  11.330  0.1005  0.0119 -0.1457
 8509SOL    HW132642   1.788   4.062  11.407 -0.5334  1.3821  0.6141
 8509SOL    HW232643   1.751   4.084  11.262 -1.0055  0.5315  0.5987
 8510SOL     OW32644   7.149   8.591   4.832 -0.2191 -0.4678 -0.0726
 8510SOL    HW132645   7.230   8.634   4.859  1.2628 -3.0670 -0.0440
 8510SOL    HW232646   7.147   8.602   4.737  0.7124 -1.2043 -0.1919
 8511SOL     OW32647   8.236  10.079  12.084  0.1082 -0.5834 -0.2543
 8511SOL    HW132648   8.210  10.000  12.037  2.0415 -1.1780 -0.3963
 8511SOL    HW232649   8.314  10.109  12.038  0.8914 -0.0441  1.3703
 8512SOL     OW32650   9.104  12.183   6.707 -0.3824 -0.2366  0.4920
 8512SOL    HW132651   9.047  12.235   6.763  0.6340  1.2589  0.1942
 8512SOL    HW232652   9.168  12.145   6.766  0.6662  1.3092  0.3774
 8513SOL     OW32653   3.147   5.447  10.022 -0.1030  0.0844 -0.2037
 8513SOL    HW132654   3.201   5.415   9.949 -0.5380  0.2150 -0.5878
 8513SOL    HW232655   3.171   5.391  10.096  0.3248 -0.0652 -0.4503
 8514SOL     OW32656  11.273   5.165   6.221  0.3830 -0.1678  0.4098
 8514SOL    HW132657  11.239   5.203   6.140 -0.9067 -1.7346  0.1699
 8514SOL    HW232658  11.261   5.071   6.211  0.5931 -0.4420  2.2520
 8515SOL     OW32659   4.974   0.133   5.802 -0.0360 -0.3236 -0.1907
 8515SOL    HW132660   5.006   0.180   5.879  0.2134  0.5028 -0.7823
 8515SOL    HW232661   4.890   0.096   5.830  0.2887 -0.4735  0.6306
 8516SOL     OW32662   3.614  10.550   5.331  0.5151 -0.3062 -0.3965
 8516SOL    HW132663   3.568  10.591   5.404  1.0564  0.8167 -0.6563
 8516SOL    HW232664   3.697  10.597   5.325  1.0149 -1.2360 -0.9337
 8517SOL     OW32665  12.749   4.263   7.815 -0.7575  0.2977 -0.3473
 8517SOL    HW132666  12.712   4.189   7.863 -1.0351  0.8967  0.3675
 8517SOL    HW232667  12.839   4.236   7.797 -0.6981 -0.0070  0.3631
 8518SOL     OW32668   9.413  10.266   8.692 -0.1867 -0.2460  0.7282
 8518SOL    HW132669   9.410  10.290   8.599  0.8404 -0.5046  0.6175
 8518SOL    HW232670   9.324  10.283   8.724 -0.4880  0.0762 -0.2419
 8519SOL     OW32671   8.957   2.174   2.219  0.2476 -0.2323 -0.4310
 8519SOL    HW132672   9.053   2.172   2.213  0.2828  1.3223 -0.9423
 8519SOL    HW232673   8.932   2.253   2.170 -1.2150 -0.0305  0.5847
 8520SOL     OW32674  10.361   5.195   4.216 -0.1939  0.2366  0.0254
 8520SOL    HW132675  10.378   5.241   4.134  0.0585  0.6657  0.3130
 8520SOL    HW232676  10.370   5.102   4.195  1.9535  0.3939  0.0165
 8521SOL     OW32677   3.457   8.766   8.342  0.7861 -1.0282  0.3486
 8521SOL    HW132678   3.463   8.705   8.416 -2.0654 -1.0459  0.6832
 8521SOL    HW232679   3.473   8.852   8.380  0.7573 -1.1844  0.7155
 8522SOL     OW32680   8.080   9.992   9.231 -0.2724 -0.1299 -0.5160
 8522SOL    HW132681   8.166   9.951   9.230  0.4149  1.2331 -1.7009
 8522SOL    HW232682   8.062  10.009   9.323  0.2565 -1.3539 -0.1741
 8523SOL     OW32683   2.214   5.556  11.622  0.7602  0.2278  0.1427
 8523SOL    HW132684   2.175   5.476  11.659  0.4814  0.2406 -0.1126
 8523SOL    HW232685   2.295   5.568  11.670  0.0452  0.6668  1.2866
 8524SOL     OW32686  10.537   8.615   4.616 -0.3352 -0.1764  0.5341
 8524SOL    HW132687  10.613   8.559   4.601 -0.0126  0.2527  0.5404
 8524SOL    HW232688  10.469   8.555   4.647  0.2124 -0.4645  1.2149
 8525SOL     OW32689   3.586  11.158   0.695  0.6594  0.1636  0.1819
 8525SOL    HW132690   3.517  11.132   0.635 -1.0823  0.7989  1.7971
 8525SOL    HW232691   3.667  11.146   0.646 -0.4062 -2.5621 -1.1094
 8526SOL     OW32692   4.621   0.375  11.160  0.3574 -0.3528 -0.6771
 8526SOL    HW132693   4.704   0.341  11.193  0.0272 -0.4761  0.0479
 8526SOL    HW232694   4.567   0.298  11.144  0.1123 -0.2468 -0.3922
 8527SOL     OW32695  11.743   9.538  12.520  0.4218  0.3639  0.5192
 8527SOL    HW132696  11.678   9.494  12.575 -1.0158  0.7988 -0.7542
 8527SOL    HW232697  11.796   9.467  12.483  0.2057 -0.0611  1.0179
 8528SOL     OW32698   8.598   0.746   8.961 -0.1918  0.0184 -0.0029
 8528SOL    HW132699   8.636   0.663   8.989  0.8196  0.7680  0.9565
 8528SOL    HW232700   8.517   0.754   9.012 -0.4851 -0.5456 -0.3783
 8529SOL     OW32701  10.266   3.688  10.351  0.0321 -0.2262  0.5457
 8529SOL    HW132702  10.213   3.759  10.389  0.0928  0.1997 -0.1424
 8529SOL    HW232703  10.247   3.693  10.257  0.6247 -0.6395  0.4050
 8530SOL     OW32704   1.462   9.854   8.963  0.3137  0.0921 -0.7724
 8530SOL    HW132705   1.533   9.902   9.007  0.2449 -0.2444 -0.2825
 8530SOL    HW232706   1.500   9.768   8.945  0.5020  0.3878 -1.8292
 8531SOL     OW32707  11.507   2.768  11.844 -0.1187  0.2236 -0.1084
 8531SOL    HW132708  11.589   2.746  11.801 -0.2666  1.2001 -0.9364
 8531SOL    HW232709  11.452   2.691  11.832 -0.4267  0.7270 -2.3946
 8532SOL     OW32710  11.397   4.488   1.847 -0.0150 -0.1578 -0.3170
 8532SOL    HW132711  11.486   4.453   1.846  0.2251  0.4406 -0.7420
 8532SOL    HW232712  11.356   4.452   1.769 -0.0342 -0.1642 -0.3039
 8533SOL     OW32713   6.558   1.484  12.355  0.2171  0.4262 -0.2475
 8533SOL    HW132714   6.604   1.566  12.367  0.5031  0.3328 -0.7059
 8533SOL    HW232715   6.626   1.421  12.332 -0.1608  0.3386 -1.1621
 8534SOL     OW32716   0.319  11.355   6.082 -0.1566  0.4939  0.2202
 8534SOL    HW132717   0.293  11.303   6.007 -1.8597  1.5119  0.0448
 8534SOL    HW232718   0.382  11.418   6.048 -2.3929  2.2671 -0.8836
 8535SOL     OW32719  11.002   4.661  12.914  0.5827 -0.7194  0.1966
 8535SOL    HW132720  11.090   4.660  12.953  0.8582 -0.0978 -0.3744
 8535SOL    HW232721  11.018   4.660  12.820  0.0189  0.6161  0.0627
 8536SOL     OW32722   3.799   4.288   0.265  0.0536 -0.4216  0.2423
 8536SOL    HW132723   3.871   4.350   0.274 -0.4368  0.4189 -1.3413
 8536SOL    HW232724   3.822   4.236   0.189 -0.7043 -0.5810  0.1219
 8537SOL     OW32725   7.560   3.946   2.049  0.0766 -0.0028  0.0823
 8537SOL    HW132726   7.556   4.030   2.004 -0.7417 -0.2374 -0.3077
 8537SOL    HW232727   7.533   3.965   2.139  0.3991  0.2389  0.1272
 8538SOL     OW32728   0.084  12.773  11.659  0.0115  0.9006  0.7017
 8538SOL    HW132729   0.055  12.751  11.747  1.3370  2.0334  1.4559
 8538SOL    HW232730   0.032  12.849  11.635 -0.7867  0.2250  0.2337
 8539SOL     OW32731  11.327   7.637  11.380 -0.0314 -0.2797  0.8623
 8539SOL    HW132732  11.374   7.567  11.426  0.0708 -1.1079 -0.4489
 8539SOL    HW232733  11.387   7.664  11.310 -0.3257  0.7019  0.9753
 8540SOL     OW32734   8.658  11.045  10.698  0.1432 -0.8613 -0.2110
 8540SOL    HW132735   8.614  11.130  10.700  0.3841 -0.7494  0.4520
 8540SOL    HW232736   8.598  10.988  10.649  0.0954 -0.2519 -0.8784
 8541SOL     OW32737   7.118  12.256   9.656 -0.4925  0.2420 -0.1943
 8541SOL    HW132738   7.082  12.202   9.586  1.5919 -0.7633 -0.5789
 8541SOL    HW232739   7.135  12.194   9.727  0.7806  0.5799 -0.1856
 8542SOL     OW32740  12.665  11.527   5.464 -0.2488  0.4404  0.0012
 8542SOL    HW132741  12.614  11.470   5.407  1.2032 -0.6425 -0.2647
 8542SOL    HW232742  12.636  11.616   5.442  1.1092  0.1835 -3.3192
 8543SOL     OW32743  12.520  10.116  12.064 -0.1427 -0.5159 -0.2180
 8543SOL    HW132744  12.458  10.045  12.045 -0.0401 -0.6103 -0.2005
 8543SOL    HW232745  12.486  10.191  12.014  0.1065 -0.7549 -0.7592
 8544SOL     OW32746  12.652   5.435   3.421 -0.4126 -0.7532 -0.6493
 8544SOL    HW132747  12.734   5.485   3.427 -0.8233  0.0349 -1.4482
 8544SOL    HW232748  12.668   5.358   3.475  0.5881 -0.2388 -0.1725
 8545SOL     OW32749   2.838   1.172   7.272  0.0378  0.8955  0.1716
 8545SOL    HW132750   2.767   1.189   7.334  0.6347 -0.5142  1.2861
 8545SOL    HW232751   2.813   1.222   7.193 -1.8540  0.9391  0.7474
 8546SOL     OW32752   1.001   2.591   1.160  0.2768 -0.1134 -0.3130
 8546SOL    HW132753   1.002   2.628   1.072  0.0873  0.2685 -0.1550
 8546SOL    HW232754   0.913   2.608   1.193  0.2334 -0.5657 -0.1766
 8547SOL     OW32755   8.895   7.465   0.303 -0.6421  0.2188 -0.1921
 8547SOL    HW132756   8.859   7.505   0.224 -1.0962  0.1860 -0.0032
 8547SOL    HW232757   8.818   7.434   0.351 -0.2716 -2.1778 -1.0008
 8548SOL     OW32758   2.032   0.839   6.896 -0.5422  0.2404 -0.0586
 8548SOL    HW132759   2.000   0.782   6.966  2.5048  1.4447  2.5601
 8548SOL    HW232760   2.100   0.787   6.853 -0.7030  0.3954 -0.5048
 8549SOL     OW32761   1.715   2.630   6.724  0.4592  1.3744  0.3509
 8549SOL    HW132762   1.766   2.688   6.668  0.7560  2.0093  1.2589
 8549SOL    HW232763   1.733   2.660   6.813  0.5038 -0.0279  0.8337
 8550SOL     OW32764   5.629   2.770   9.288 -0.4274 -0.4605 -0.2679
 8550SOL    HW132765   5.577   2.816   9.353  1.3711 -1.5339  2.0543
 8550SOL    HW232766   5.685   2.837   9.249  0.4110 -0.2081  1.2958
 8551SOL     OW32767   2.910   4.824   7.466 -0.5450 -0.5361 -0.6114
 8551SOL    HW132768   2.864   4.750   7.428 -1.9390  1.4153 -3.0249
 8551SOL    HW232769   2.847   4.864   7.527  0.8151 -2.1989  2.1050
 8552SOL     OW32770   1.592  10.607   4.516 -0.5229  0.4655 -0.1469
 8552SOL    HW132771   1.653  10.589   4.444  1.6663  1.2655  1.4096
 8552SOL    HW232772   1.573  10.520   4.553  0.5160  0.2753 -0.0227
 8553SOL     OW32773  11.084   6.566   3.245  0.3428 -1.3175 -0.0638
 8553SOL    HW132774  11.025   6.511   3.295  1.2795  0.1855  2.9610
 8553SOL    HW232775  11.162   6.512   3.231  0.8459 -1.1872  1.9491
 8554SOL     OW32776   6.010   9.270   4.890 -0.3404 -0.2887  0.0251
 8554SOL    HW132777   5.984   9.296   4.979 -1.5374 -2.0273  0.2407
 8554SOL    HW232778   6.066   9.194   4.903 -0.2941 -0.3792 -0.6995
 8555SOL     OW32779   5.360   4.656   5.031  0.2496  0.3441  0.6597
 8555SOL    HW132780   5.318   4.736   4.998  1.3415  0.6777  0.0014
 8555SOL    HW232781   5.290   4.592   5.035 -0.0839  0.4167 -1.9191
 8556SOL     OW32782   3.349   7.991   7.213 -0.3594 -0.0089  0.3801
 8556SOL    HW132783   3.373   8.041   7.291 -0.5148 -1.0195  1.1004
 8556SOL    HW232784   3.330   7.903   7.246  0.3061 -0.6664 -0.8826
 8557SOL     OW32785   2.594   3.070   1.282  0.2736 -0.1286 -0.0998
 8557SOL    HW132786   2.547   3.151   1.261  1.8672  0.5882 -1.0749
 8557SOL    HW232787   2.554   3.004   1.227  0.5256  0.5180 -1.0811
 8558SOL     OW32788   3.007   1.504   8.696 -0.1196 -0.4029  0.0304
 8558SOL    HW132789   3.087   1.515   8.749 -0.0763  0.0918 -0.1277
 8558SOL    HW232790   3.027   1.431   8.638  0.8937  0.7956 -1.2031
 8559SOL     OW32791   2.996   0.047   7.630  0.6077 -0.2219 -0.0120
 8559SOL    HW132792   3.084   0.080   7.647  1.4726 -1.3383 -2.0460
 8559SOL    HW232793   2.957   0.113   7.573 -0.4394  0.9669  1.9754
 8560SOL     OW32794   9.894   4.136   6.953  0.0527  0.1184 -0.4560
 8560SOL    HW132795   9.867   4.191   7.026  1.0515  0.2997 -0.2069
 8560SOL    HW232796   9.984   4.112   6.973  0.8322  1.2979 -2.2917
 8561SOL     OW32797   0.964   7.992   3.639  0.1129 -0.0177  0.1740
 8561SOL    HW132798   0.978   8.068   3.696  0.9371 -0.2968  0.3542
 8561SOL    HW232799   0.912   7.932   3.692 -0.7380  0.5059 -0.0488
 8562SOL     OW32800   3.451  10.001  11.525  0.2488  0.1490 -0.5970
 8562SOL    HW132801   3.538   9.962  11.537  0.3210  0.4477 -0.1395
 8562SOL    HW232802   3.400   9.932  11.483  0.2950 -0.5574  0.4722
 8563SOL     OW32803   5.034  10.575   9.912 -0.3967  0.1336  0.1772
 8563SOL    HW132804   5.113  10.602   9.958 -0.1560 -0.2081 -0.0363
 8563SOL    HW232805   4.963  10.610   9.966 -0.0984  1.1341 -0.0555
 8564SOL     OW32806   3.541   5.857   8.798 -0.2543 -0.1369 -0.3269
 8564SOL    HW132807   3.511   5.780   8.847 -0.5709  0.0570 -0.2124
 8564SOL    HW232808   3.507   5.932   8.848  1.6984  0.1473  0.6783
 8565SOL     OW32809  11.698  11.095   5.223 -0.2936 -0.5499  0.0939
 8565SOL    HW132810  11.623  11.104   5.281 -0.6565 -0.4279 -0.3872
 8565SOL    HW232811  11.690  11.168   5.162  0.2808 -0.4696  0.1104
 8566SOL     OW32812   9.753   3.419  10.946 -0.0005 -0.0471  0.4268
 8566SOL    HW132813   9.725   3.489  11.005 -0.5962 -0.7927  1.0388
 8566SOL    HW232814   9.848   3.414  10.958 -0.1830 -0.5592  1.7375
 8567SOL     OW32815   0.777   4.567   7.846  0.5704  0.2286 -0.1469
 8567SOL    HW132816   0.774   4.491   7.904  4.1333 -2.3351 -2.8017
 8567SOL    HW232817   0.830   4.631   7.893  0.5311 -0.3914  0.7748
 8568SOL     OW32818   3.235   3.184   6.928  0.5746  0.7095 -0.3695
 8568SOL    HW132819   3.320   3.155   6.961 -0.1401  0.1566  1.1025
 8568SOL    HW232820   3.180   3.106   6.927 -0.3990  1.3447  0.3816
 8569SOL     OW32821   0.427   6.428   5.716 -0.4565 -0.0162  0.4332
 8569SOL    HW132822   0.502   6.371   5.700 -0.4224  0.2318 -0.3669
 8569SOL    HW232823   0.412   6.423   5.810  1.8582  1.5177  0.9824
 8570SOL     OW32824   8.154   6.858   2.360 -0.1131  0.1280 -0.2808
 8570SOL    HW132825   8.085   6.872   2.296  0.8062 -3.6540 -2.3700
 8570SOL    HW232826   8.115   6.801   2.426  0.3725 -0.2100 -0.2789
 8571SOL     OW32827   4.013   6.485   0.413 -0.1616  0.6878  0.1596
 8571SOL    HW132828   4.082   6.531   0.460  0.7954  0.1300 -0.6604
 8571SOL    HW232829   3.942   6.548   0.407 -0.0223  1.0315  1.6538
 8572SOL     OW32830   3.644  10.016   9.795 -0.8044 -0.8918  0.0209
 8572SOL    HW132831   3.721   9.986   9.745 -0.0220 -1.6531  1.6081
 8572SOL    HW232832   3.617  10.096   9.751  0.2927 -1.1428 -1.1824
 8573SOL     OW32833   7.282  11.895   7.597  0.1725 -0.7673 -0.2066
 8573SOL    HW132834   7.329  11.861   7.522  0.0490  1.9176 -1.6176
 8573SOL    HW232835   7.194  11.914   7.564 -0.6309 -1.7269  1.2693
 8574SOL     OW32836   2.204  11.163   1.117  0.4712 -0.2386  0.3372
 8574SOL    HW132837   2.160  11.225   1.175  1.1879  2.1190 -1.4752
 8574SOL    HW232838   2.287  11.144   1.161  0.8203  1.1709  0.3210
 8575SOL     OW32839   3.203   2.106   3.773 -0.2696 -0.4332 -0.4643
 8575SOL    HW132840   3.138   2.154   3.824 -0.0391 -0.6467  0.0353
 8575SOL    HW232841   3.285   2.119   3.819 -0.0790 -0.7200 -0.7165
 8576SOL     OW32842   3.644   5.966   0.021 -0.3821  0.1184  0.0584
 8576SOL    HW132843   3.600   5.883   0.000 -1.2143  0.8146 -1.0364
 8576SOL    HW232844   3.625   5.979   0.114  0.3301 -1.2437  0.4275
 8577SOL     OW32845   9.687   5.069   3.480 -0.0471  0.4191 -0.0065
 8577SOL    HW132846   9.755   5.136   3.475 -0.6338  1.0913  0.7884
 8577SOL    HW232847   9.607   5.114   3.453  0.1909 -1.0076 -3.5582
 8578SOL     OW32848   9.742  10.527   1.978 -0.0885  0.2720  0.5583
 8578SOL    HW132849   9.699  10.612   1.965  0.2551  0.2579 -0.7750
 8578SOL    HW232850   9.676  10.463   1.953 -0.8367  0.0503  2.8951
 8579SOL     OW32851  11.421   9.533   8.665 -0.6087 -0.1838 -0.1824
 8579SOL    HW132852  11.350   9.525   8.730 -1.1016 -0.7947 -0.7781
 8579SOL    HW232853  11.501   9.519   8.716 -0.6691  3.1147  1.0137
 8580SOL     OW32854   7.856  10.256  10.225 -0.4072 -0.4914 -0.4894
 8580SOL    HW132855   7.764  10.272  10.246  0.1700  0.6486  1.4443
 8580SOL    HW232856   7.892  10.343  10.210  0.5327 -0.8462 -0.3303
 8581SOL     OW32857  12.037   9.622  12.211  0.4180  0.1346  0.0463
 8581SOL    HW132858  12.007   9.537  12.179  0.5275  0.3889 -0.7434
 8581SOL    HW232859  12.062   9.671  12.132 -0.0030  1.0394  0.4589
 8582SOL     OW32860   7.389   2.125   6.620  0.3324  0.0507  0.2053
 8582SOL    HW132861   7.302   2.104   6.587 -0.2890 -2.3967  2.9864
 8582SOL    HW232862   7.444   2.052   6.591  0.4507 -0.5468  1.8025
 8583SOL     OW32863   4.051   3.515   0.730 -0.0746 -0.7783 -0.2263
 8583SOL    HW132864   4.118   3.550   0.672 -0.9008 -0.7950 -1.2202
 8583SOL    HW232865   4.050   3.421   0.713 -1.0128 -0.6512 -0.9480
 8584SOL     OW32866   9.337   9.866   6.483  0.9634  0.3822  1.0561
 8584SOL    HW132867   9.359   9.937   6.543 -2.0189  1.4069  1.1052
 8584SOL    HW232868   9.243   9.853   6.495  0.8163 -1.3892 -1.3185
 8585SOL     OW32869   4.764   5.914   0.585 -0.4321 -0.3932 -0.1336
 8585SOL    HW132870   4.801   5.925   0.497  0.8003  1.4252  0.5402
 8585SOL    HW232871   4.820   5.848   0.626  2.5379  2.5363  0.9748
 8586SOL     OW32872   0.832  10.670   1.857 -0.4696 -0.3018  0.5335
 8586SOL    HW132873   0.912  10.662   1.909 -0.3833 -0.2828  0.4040
 8586SOL    HW232874   0.796  10.755   1.882 -1.7792 -1.3527  2.4639
 8587SOL     OW32875   6.359  10.084   0.682  0.7434  0.4571 -0.1309
 8587SOL    HW132876   6.308  10.008   0.655  0.1751 -0.0358  2.1424
 8587SOL    HW232877   6.449  10.063   0.657  0.7403 -1.3925  1.2313
 8588SOL     OW32878  11.807   8.299   4.096 -0.4568  0.0638  0.9632
 8588SOL    HW132879  11.877   8.285   4.160 -1.4419 -2.1063  1.6559
 8588SOL    HW232880  11.853   8.334   4.019  0.7604  2.6764  2.7299
 8589SOL     OW32881   9.025   3.585   3.985  0.3324  0.1377  0.6042
 8589SOL    HW132882   8.942   3.586   4.032 -0.0775 -1.0368 -0.0423
 8589SOL    HW232883   9.061   3.498   4.002  0.1917 -0.3104 -1.1689
 8590SOL     OW32884   9.144   0.553   5.203  0.1217 -0.6058 -0.2121
 8590SOL    HW132885   9.137   0.471   5.251 -1.3862 -0.0275  0.6097
 8590SOL    HW232886   9.065   0.556   5.149  0.7998 -0.2871 -1.2129
 8591SOL     OW32887   3.289   1.086   5.093  0.3051  0.3466 -0.3480
 8591SOL    HW132888   3.384   1.081   5.102  0.3559  1.8356  0.1726
 8591SOL    HW232889   3.258   1.112   5.179 -0.7717 -1.9070  0.0003
 8592SOL     OW32890   9.614  10.749   6.698  0.2952  0.3667  0.0438
 8592SOL    HW132891   9.638  10.696   6.623  0.4216  0.6837 -0.1447
 8592SOL    HW232892   9.568  10.689   6.757  2.4178 -0.5211  0.8789
 8593SOL     OW32893   1.670   4.422   5.633  0.5413  0.7080 -0.2625
 8593SOL    HW132894   1.607   4.483   5.595 -0.1865 -0.9393 -1.8482
 8593SOL    HW232895   1.622   4.382   5.706  0.6155  1.1563  0.0413
 8594SOL     OW32896  11.260  11.025   4.952 -0.0020 -0.4237  0.7341
 8594SOL    HW132897  11.294  10.959   5.011  1.1181  0.4948  1.1384
 8594SOL    HW232898  11.312  11.015   4.872 -1.8458 -2.0062 -0.3649
 8595SOL     OW32899   3.622  10.460   1.181  0.1798 -0.3840  0.2220
 8595SOL    HW132900   3.692  10.423   1.235  0.6983 -0.2798 -0.3665
 8595SOL    HW232901   3.630  10.555   1.194 -0.2723 -0.3983  0.6563
 8596SOL     OW32902   1.522   1.318  12.888  0.8464 -0.3438  0.2799
 8596SOL    HW132903   1.482   1.377  12.824  0.8039  0.1691  0.7692
 8596SOL    HW232904   1.448   1.279  12.935  0.8944  0.0364  0.6802
 8597SOL     OW32905  10.074   6.658  11.795 -0.0104 -0.2984  0.2086
 8597SOL    HW132906  10.132   6.657  11.871  0.7317  0.8767 -0.2969
 8597SOL    HW232907  10.010   6.590  11.812  0.8193 -0.8295  1.3527
 8598SOL     OW32908   9.525   2.751   1.103 -0.6327  0.2017  0.0349
 8598SOL    HW132909   9.533   2.792   1.189 -2.7420  1.0933 -0.1395
 8598SOL    HW232910   9.582   2.803   1.046  0.8523 -0.4530  0.8748
 8599SOL     OW32911   8.438   1.591   5.061  0.5761 -0.3521 -0.3721
 8599SOL    HW132912   8.364   1.619   5.007 -1.3824 -3.2345  0.6339
 8599SOL    HW232913   8.508   1.573   4.998  0.2121  1.5934 -1.4153
 8600SOL     OW32914   4.978  10.908  12.062  0.5332  0.3528  0.2325
 8600SOL    HW132915   4.918  10.852  12.110 -0.9852  1.4731 -0.2858
 8600SOL    HW232916   4.950  10.901  11.971  0.2671  1.9407  0.1575
 8601SOL     OW32917   6.437   3.375   2.254 -0.4657 -0.3368  0.5728
 8601SOL    HW132918   6.347   3.388   2.224 -0.6923 -2.6166  0.1205
 8601SOL    HW232919   6.486   3.354   2.175  0.8688  2.3853  0.5602
 8602SOL     OW32920   6.875   4.247   3.960  0.4898  0.0320  0.4692
 8602SOL    HW132921   6.971   4.245   3.961  0.5404  1.6102  0.9043
 8602SOL    HW232922   6.854   4.297   3.881  0.0197 -0.0082  0.5700
 8603SOL     OW32923   2.729   2.924   4.531  0.1687  0.1524 -1.1111
 8603SOL    HW132924   2.653   2.981   4.545 -0.0228 -0.5376  0.8897
 8603SOL    HW232925   2.792   2.952   4.597  0.1425 -1.8094 -0.1960
 8604SOL     OW32926   8.371   4.410   7.007 -0.8251 -0.0222  0.6612
 8604SOL    HW132927   8.289   4.387   6.962 -0.9451  1.0249  0.3120
 8604SOL    HW232928   8.407   4.326   7.035 -0.4938 -0.8249 -1.8340
 8605SOL     OW32929  10.781   6.104   1.894 -0.1842 -0.2797  0.5536
 8605SOL    HW132930  10.721   6.176   1.875  1.4258  1.1971  0.8756
 8605SOL    HW232931  10.767   6.085   1.987 -0.1453  0.0426  0.6232
 8606SOL     OW32932   4.484   5.128   2.334 -0.7980 -0.0008  0.0024
 8606SOL    HW132933   4.469   5.112   2.427  0.7659 -0.4251  0.2064
 8606SOL    HW232934   4.522   5.047   2.301 -1.3323  0.1487 -1.0083
 8607SOL     OW32935   2.693   4.680   6.347 -0.5173  0.3772 -0.1746
 8607SOL    HW132936   2.764   4.722   6.395  0.8838 -0.6241 -1.2752
 8607SOL    HW232937   2.736   4.637   6.272 -2.0632 -1.5297 -0.0624
 8608SOL     OW32938  11.046   0.890   2.699 -0.0172 -0.4999 -0.2100
 8608SOL    HW132939  10.987   0.962   2.722  0.0142 -0.0478 -1.4969
 8608SOL    HW232940  11.132   0.932   2.690  0.3889 -1.0360  0.9438
 8609SOL     OW32941  11.063   4.764  10.612  0.4817 -0.1301 -0.2059
 8609SOL    HW132942  11.066   4.847  10.565  0.4755 -0.9118 -1.6732
 8609SOL    HW232943  10.971   4.752  10.636  0.4943  0.3101  0.0595
 8610SOL     OW32944   3.360  11.027   0.591 -0.7071 -1.0439  0.4464
 8610SOL    HW132945   3.281  11.067   0.627 -0.5062  0.5347 -0.7564
 8610SOL    HW232946   3.347  11.029   0.496  0.9650 -0.3098  0.1986
 8611SOL     OW32947   4.125   1.868  12.093 -0.2300 -0.2063  0.5260
 8611SOL    HW132948   4.071   1.948  12.091 -1.2271 -0.8727  0.0370
 8611SOL    HW232949   4.212   1.897  12.065 -0.9123  0.4756 -1.0001
 8612SOL     OW32950   3.897   7.686   7.588 -0.5095 -0.4662  0.1859
 8612SOL    HW132951   3.906   7.600   7.548 -1.1299 -0.8462  0.8484
 8612SOL    HW232952   3.865   7.742   7.517 -0.3458 -0.8320 -0.1821
 8613SOL     OW32953   0.529   3.154   8.232 -0.2216  1.0103  0.2174
 8613SOL    HW132954   0.464   3.090   8.202  0.7729  0.5809 -1.0902
 8613SOL    HW232955   0.543   3.211   8.157 -1.1074  2.8312  1.3633
 8614SOL     OW32956  11.980   1.964   4.459  0.4358  0.0206  0.1615
 8614SOL    HW132957  12.011   2.055   4.461  1.7247 -0.3050 -1.8265
 8614SOL    HW232958  11.938   1.955   4.374  0.5802 -1.3263  0.2158
 8615SOL     OW32959   2.082   1.270   1.466 -0.1732 -0.8981 -0.2837
 8615SOL    HW132960   2.132   1.347   1.438 -1.3861 -0.1087 -0.3672
 8615SOL    HW232961   2.074   1.282   1.561  1.8455 -2.3034  0.1279
 8616SOL     OW32962   2.401   8.286  12.259  0.6292 -0.1495 -0.7114
 8616SOL    HW132963   2.468   8.302  12.192 -0.3324  0.5204 -1.5384
 8616SOL    HW232964   2.350   8.367  12.261 -0.5361 -0.8765 -0.5298
 8617SOL     OW32965   6.463   2.553   1.100 -0.7571 -0.4126 -0.2576
 8617SOL    HW132966   6.405   2.587   1.031 -0.4853  1.2624  0.3109
 8617SOL    HW232967   6.550   2.557   1.062 -0.7061 -0.3404 -0.1328
 8618SOL     OW32968   3.415   6.108   5.249  0.0343 -0.6002  0.3794
 8618SOL    HW132969   3.419   6.057   5.167 -0.4553 -3.2827  1.8965
 8618SOL    HW232970   3.477   6.064   5.307 -1.8200 -0.7304  2.4049
 8619SOL     OW32971   3.367   3.409   5.440 -0.1005 -0.1842 -0.0026
 8619SOL    HW132972   3.426   3.466   5.391  0.1999 -0.8569 -0.4380
 8619SOL    HW232973   3.279   3.433   5.409 -0.1341  1.2303  1.0723
 8620SOL     OW32974   4.597  10.588   4.746 -0.1665 -0.1521 -0.1080
 8620SOL    HW132975   4.691  10.598   4.755 -0.1404 -0.7815  0.4895
 8620SOL    HW232976   4.586  10.499   4.711 -0.4894  0.4247 -1.5134
 8621SOL     OW32977   0.226   0.193   7.741  0.0485  0.6631  0.0357
 8621SOL    HW132978   0.229   0.286   7.719 -0.3739  0.7834  0.4754
 8621SOL    HW232979   0.318   0.169   7.757 -0.0727  1.7783  3.0764
 8622SOL     OW32980   0.116   3.443   1.125  0.4712 -0.0383  0.4081
 8622SOL    HW132981   0.120   3.533   1.157  1.4960  0.3025 -0.6206
 8622SOL    HW232982   0.207   3.420   1.104  0.1367 -1.0730  0.0084
 8623SOL     OW32983   4.794   7.804   3.768 -0.3562  0.4137  0.0519
 8623SOL    HW132984   4.804   7.714   3.738 -2.2437 -0.0065  0.5558
 8623SOL    HW232985   4.784   7.796   3.863 -1.6249  1.0308 -0.0173
 8624SOL     OW32986   6.886   8.641   0.899 -0.4635 -0.3857 -0.6304
 8624SOL    HW132987   6.887   8.558   0.947 -0.7777  0.4909  0.9647
 8624SOL    HW232988   6.794   8.668   0.901 -0.2889  0.2226 -0.7221
 8625SOL     OW32989   2.537   1.594   3.569 -0.3786 -0.3405 -0.1018
 8625SOL    HW132990   2.449   1.597   3.533 -0.3042 -1.1383 -0.3813
 8625SOL    HW232991   2.583   1.530   3.514 -0.5697 -2.4886  2.0929
 8626SOL     OW32992   9.606   8.328   6.074 -0.1388 -0.3510  0.7762
 8626SOL    HW132993   9.574   8.417   6.088  0.5374  0.7457 -3.2246
 8626SOL    HW232994   9.681   8.319   6.132  0.1177  1.9220  0.8718
 8627SOL     OW32995   9.817   1.700   0.684 -0.2144  0.0135 -0.4837
 8627SOL    HW132996   9.821   1.675   0.592  1.0040 -1.5706 -0.0497
 8627SOL    HW232997   9.908   1.722   0.707 -0.1759 -1.2882  0.7447
 8628SOL     OW32998   8.594   3.953   4.533  0.1784  0.4957  0.2411
 8628SOL    HW132999   8.640   3.905   4.602  1.6189 -1.1019 -1.7136
 8628SOL    HW233000   8.652   4.027   4.515  0.2846  0.3785  0.0993
 8629SOL     OW33001  10.262   3.708   8.191  0.2202 -0.3361  0.5984
 8629SOL    HW133002  10.184   3.762   8.204 -0.4528 -1.0993 -0.1521
 8629SOL    HW233003  10.241   3.653   8.116  1.1106 -1.2491  0.9888
 8630SOL     OW33004  11.156   4.127   2.637 -0.1587 -0.1611 -0.3290
 8630SOL    HW133005  11.125   4.080   2.560 -1.9418 -0.0913  0.3067
 8630SOL    HW233006  11.092   4.108   2.705  1.6462 -0.6817  1.3461
 8631SOL     OW33007   1.821   1.252   3.936 -0.2174  0.3123  0.3284
 8631SOL    HW133008   1.852   1.307   4.008 -0.4373  0.0232  0.6482
 8631SOL    HW233009   1.877   1.174   3.942 -2.1203 -1.0266  2.0362
 8632SOL     OW33010  10.226   7.827   5.824 -0.0726 -0.0291 -0.8936
 8632SOL    HW133011  10.252   7.916   5.850 -1.4951 -0.1229  1.0084
 8632SOL    HW233012  10.304   7.790   5.783  1.7841  0.7786  1.7215
 8633SOL     OW33013  11.114  10.812   5.595 -0.6691 -0.1984 -0.5706
 8633SOL    HW133014  11.194  10.865   5.602 -1.0193  0.1538  1.4378
 8633SOL    HW233015  11.053  10.869   5.548 -0.8109  0.9831  0.9386
 8634SOL     OW33016   6.362  10.074  11.744 -0.0477  0.7256 -0.0694
 8634SOL    HW133017   6.343   9.981  11.744  1.4398  0.3673 -1.7673
 8634SOL    HW233018   6.306  10.110  11.813 -2.1988 -1.0793 -0.7497
 8635SOL     OW33019   8.731   1.451  10.538  0.7911 -0.5118  0.5819
 8635SOL    HW133020   8.684   1.440  10.455 -0.0938 -0.6715  1.0856
 8635SOL    HW233021   8.798   1.516  10.520  1.3242 -1.3317 -0.5436
 8636SOL     OW33022   1.238   6.455   8.506 -0.2631  0.0597  0.4705
 8636SOL    HW133023   1.257   6.547   8.487 -0.6643  0.3993  1.5960
 8636SOL    HW233024   1.173   6.459   8.577  0.4907 -1.0931  1.2605
 8637SOL     OW33025   0.230   9.581  10.446  0.1117 -0.1175  0.2841
 8637SOL    HW133026   0.286   9.510  10.477  0.3937  0.0825  0.2403
 8637SOL    HW233027   0.271   9.660  10.480 -1.0046 -0.0588  1.5630
 8638SOL     OW33028   0.114   1.974   4.106  0.4820 -0.9172 -0.1815
 8638SOL    HW133029   0.063   2.012   4.035  1.5540 -0.9970 -1.0101
 8638SOL    HW233030   0.204   1.976   4.075  0.9190 -1.3600  1.0011
 8639SOL     OW33031   8.480   9.095   5.782  0.5980  0.0197 -0.3945
 8639SOL    HW133032   8.564   9.109   5.739  0.6525 -0.6714 -0.5320
 8639SOL    HW233033   8.417   9.090   5.710  0.6402 -0.8033 -0.3838
 8640SOL     OW33034   9.800   7.641   3.163 -0.6174 -0.7669 -0.2829
 8640SOL    HW133035   9.877   7.656   3.217 -1.0465 -1.1912  0.4628
 8640SOL    HW233036   9.835   7.614   3.078  0.0718 -2.8179  0.5852
 8641SOL     OW33037   9.455   0.750   6.342 -0.1512  0.4002  0.2373
 8641SOL    HW133038   9.444   0.769   6.249  1.0718  2.8349  0.4978
 8641SOL    HW233039   9.416   0.826   6.387  2.9993  1.4376  1.5233
 8642SOL     OW33040  12.686  10.046   0.818  0.0022  0.4028  0.2324
 8642SOL    HW133041  12.688   9.970   0.760  0.1400 -0.4341  1.2924
 8642SOL    HW233042  12.778  10.074   0.824 -0.0379  0.6119 -0.0920
 8643SOL     OW33043   3.182  12.122   0.611 -0.0719 -0.1126  0.0772
 8643SOL    HW133044   3.212  12.044   0.657  0.9702 -0.6073 -1.3486
 8643SOL    HW233045   3.239  12.193   0.642 -0.8065  0.0335  1.1301
 8644SOL     OW33046   8.652   7.470   7.596  0.2426 -0.1950 -0.2093
 8644SOL    HW133047   8.729   7.491   7.544  1.3121 -0.2680  1.2846
 8644SOL    HW233048   8.661   7.524   7.674 -2.4690  1.6298 -1.0010
 8645SOL     OW33049   5.204   3.283   2.644 -0.8056 -0.5543 -0.2800
 8645SOL    HW133050   5.179   3.375   2.646 -0.6375 -0.5148  0.1078
 8645SOL    HW233051   5.197   3.254   2.735 -1.0448 -0.9769 -0.4272
 8646SOL     OW33052   9.695   0.041  11.089  0.2312 -0.1827 -0.5526
 8646SOL    HW133053   9.640   0.093  11.031  2.2478  2.3990 -0.3099
 8646SOL    HW233054   9.775   0.024  11.039 -0.2211 -2.8662 -0.4900
 8647SOL     OW33055  11.920  12.957   4.212 -0.2880  0.4277 -0.0063
 8647SOL    HW133056  11.987  12.899   4.247 -1.6576 -0.9183  0.5258
 8647SOL    HW233057  11.948  12.976   4.123  1.9621  1.8319  0.9335
 8648SOL     OW33058   9.973   4.852   5.392 -0.0138 -0.3469 -0.5226
 8648SOL    HW133059  10.037   4.811   5.449  0.0981 -0.3718 -0.6648
 8648SOL    HW233060  10.025   4.905   5.332 -0.1802  0.2228 -0.1629
 8649SOL     OW33061   6.166   4.155   7.505 -0.2767 -0.2749 -0.6276
 8649SOL    HW133062   6.154   4.248   7.483 -0.3470 -0.1913 -0.2506
 8649SOL    HW233063   6.106   4.109   7.448 -0.9459 -0.0106 -0.1478
 8650SOL     OW33064   8.724   2.557   3.568  0.1771 -0.3463 -0.8828
 8650SOL    HW133065   8.680   2.616   3.629  1.9064  0.1232 -0.0468
 8650SOL    HW233066   8.664   2.482   3.561 -0.3281 -0.1766  0.9595
 8651SOL     OW33067   4.634  10.278  10.433  0.1229  0.1451  0.0750
 8651SOL    HW133068   4.588  10.307  10.512  0.9888  2.3083 -0.1392
 8651SOL    HW233069   4.580  10.208  10.397 -1.4242  0.6062  1.4115
 8652SOL     OW33070   6.369   7.440   0.114  0.3710  0.3454 -0.1337
 8652SOL    HW133071   6.335   7.459   0.027  1.0585  0.0994 -0.4663
 8652SOL    HW233072   6.296   7.399   0.160  0.3707 -0.6805 -1.0101
 8653SOL     OW33073   7.411   2.876   5.564  0.7081  0.0415 -0.0249
 8653SOL    HW133074   7.349   2.948   5.553  1.0447  0.1493 -1.3683
 8653SOL    HW233075   7.365   2.799   5.530  0.8682 -0.0986  0.0727
 8654SOL     OW33076   2.605   1.483   0.974  0.1396  0.6242  0.0344
 8654SOL    HW133077   2.568   1.464   1.060  0.3876 -1.3850 -0.2609
 8654SOL    HW233078   2.694   1.515   0.993  0.4418 -0.4548  0.5312
 8655SOL     OW33079   3.980   1.147  10.257 -0.4535 -0.1740  0.0103
 8655SOL    HW133080   4.000   1.232  10.219 -1.0410  0.3491  0.8256
 8655SOL    HW233081   4.031   1.144  10.338 -2.0819  0.3673  1.1187
 8656SOL     OW33082   1.900   0.907   4.902  0.5530 -0.3277  0.0438
 8656SOL    HW133083   1.879   0.874   4.989  1.7163  1.4738  1.0814
 8656SOL    HW233084   1.947   0.989   4.918  0.2350  0.4032 -2.2985
 8657SOL     OW33085   7.791   7.238   8.070 -0.1366  0.1479 -0.3532
 8657SOL    HW133086   7.853   7.307   8.048 -0.5959  1.0422  1.0369
 8657SOL    HW233087   7.840   7.178   8.127  0.6219 -1.3816 -2.5015
 8658SOL     OW33088  11.556   4.517   5.002 -0.1075 -0.0312  0.0646
 8658SOL    HW133089  11.498   4.530   4.927  0.3194 -1.7024 -0.6113
 8658SOL    HW233090  11.591   4.604   5.021  0.3262  0.3542 -2.1558
 8659SOL     OW33091   9.317   3.564   4.080 -0.8578 -0.2855  0.2180
 8659SOL    HW133092   9.360   3.598   4.002 -0.1881 -1.0343  0.2497
 8659SOL    HW233093   9.266   3.638   4.114 -0.4090  0.3119 -0.3927
 8660SOL     OW33094   7.776  11.639   7.242 -0.4426 -0.0262  0.2328
 8660SOL    HW133095   7.866  11.661   7.265 -0.0338  0.2293 -1.5100
 8660SOL    HW233096   7.763  11.550   7.276  0.0862  0.3557  1.4578
 8661SOL     OW33097   9.681   6.954   4.886  0.4688 -0.3702 -0.7573
 8661SOL    HW133098   9.619   6.932   4.816  0.2335 -0.5786 -0.4867
 8661SOL    HW233099   9.629   7.007   4.947  0.6754 -0.1836 -0.7424
 8662SOL     OW33100  11.321   8.914   0.262 -0.3281 -0.4150 -0.1418
 8662SOL    HW133101  11.316   9.010   0.260  0.8636 -0.3181 -2.7635
 8662SOL    HW233102  11.274   8.885   0.184 -0.9946 -2.0279  0.8029
 8663SOL     OW33103   0.631   0.020   3.455  0.1492 -0.2506 -0.3377
 8663SOL    HW133104   0.609  -0.065   3.416  2.8962 -0.9732 -0.5304
 8663SOL    HW233105   0.618   0.083   3.385  0.3965 -0.8678 -0.9494
 8664SOL     OW33106   8.939   4.748  10.889  0.1631 -0.5001 -0.6334
 8664SOL    HW133107   8.983   4.833  10.893  0.4364 -0.6868  1.6356
 8664SOL    HW233108   8.895   4.747  10.804  1.5586  1.1898 -1.4223
 8665SOL     OW33109   1.132  11.247   3.780  0.0007  0.6093  0.5300
 8665SOL    HW133110   1.136  11.278   3.690 -2.0780 -0.8119 -0.1211
 8665SOL    HW233111   1.050  11.283   3.815  0.0736 -0.0120  1.3881
 8666SOL     OW33112  10.044   8.244   0.260 -0.1284  0.2912 -0.1508
 8666SOL    HW133113  10.003   8.324   0.229 -0.2297  0.8397  1.3432
 8666SOL    HW233114  10.133   8.269   0.285 -0.1855 -0.0242  0.4045
 8667SOL     OW33115   7.786   1.504   2.264 -0.4116  0.3642  0.0183
 8667SOL    HW133116   7.868   1.503   2.215 -1.8018 -0.4638 -2.4535
 8667SOL    HW233117   7.753   1.593   2.253  0.1274  0.7094  1.0471
 8668SOL     OW33118   2.118   0.383  12.763 -0.1629  0.5949  0.7262
 8668SOL    HW133119   2.032   0.419  12.784  0.6069  1.9373  1.6811
 8668SOL    HW233120   2.165   0.455  12.722  0.4135 -0.2238 -0.0864
 8669SOL     OW33121  11.977  10.306   6.884  0.5873  0.0276  0.1308
 8669SOL    HW133122  12.049  10.313   6.821 -0.5375  0.5639 -1.1416
 8669SOL    HW233123  11.952  10.214   6.881  0.5735  0.0379 -0.1908
 8670SOL     OW33124  12.517   4.470   7.062 -0.2867 -0.0940  0.0715
 8670SOL    HW133125  12.569   4.550   7.056 -1.3720  0.5353 -3.1666
 8670SOL    HW233126  12.580   4.399   7.052  0.4124  0.4687  0.4513
 8671SOL     OW33127   8.886   2.952  11.485  0.4003 -0.2141  0.5002
 8671SOL    HW133128   8.939   3.023  11.449 -1.7198  0.9805 -0.4474
 8671SOL    HW233129   8.854   2.986  11.569  0.5807 -0.6511  0.7472
 8672SOL     OW33130   5.706   9.094  12.265 -0.0215  0.2976  0.0677
 8672SOL    HW133131   5.624   9.142  12.257 -0.1210  0.2143  0.5944
 8672SOL    HW233132   5.689   9.028  12.332 -0.0026 -0.7182 -0.8931
 8673SOL     OW33133   3.208   4.113   7.801 -0.5201 -0.0647 -0.3833
 8673SOL    HW133134   3.276   4.052   7.829 -0.8900 -1.2099 -1.8106
 8673SOL    HW233135   3.207   4.182   7.868  0.5962 -1.1077  0.7514
 8674SOL     OW33136   0.537  11.948  11.268 -0.3068 -0.0898 -0.1309
 8674SOL    HW133137   0.554  11.899  11.188  0.0711 -0.3081  0.0805
 8674SOL    HW233138   0.566  11.890  11.339 -1.4770 -0.2712  0.2167
 8675SOL     OW33139   0.036   3.261   8.884 -0.5164 -0.1071  0.6610
 8675SOL    HW133140   0.128   3.288   8.882 -0.3075 -0.8343 -0.7114
 8675SOL    HW233141  -0.009   3.325   8.828 -0.5412 -0.7609 -0.0777
 8676SOL     OW33142  12.360  11.708  12.334 -0.1446 -0.2570  0.3036
 8676SOL    HW133143  12.444  11.684  12.295 -0.8064 -0.5989 -0.9648
 8676SOL    HW233144  12.374  11.702  12.428  1.2578 -0.2830  0.1032
 8677SOL     OW33145  12.264   7.461  12.517 -0.4950  0.3347 -0.6260
 8677SOL    HW133146  12.351   7.426  12.494 -0.9992 -0.4571 -1.3882
 8677SOL    HW233147  12.273   7.556  12.505  0.7809  0.4858  1.0670
 8678SOL     OW33148   6.274   8.746   3.487 -0.4882  0.1148 -0.2935
 8678SOL    HW133149   6.200   8.708   3.534 -1.2952 -0.2138 -1.7576
 8678SOL    HW233150   6.235   8.787   3.410  0.5846  2.2240  0.2153
 8679SOL     OW33151   2.803   6.828   4.742  0.4243  0.3652 -0.5577
 8679SOL    HW133152   2.834   6.847   4.654  0.1296 -0.2187 -0.7964
 8679SOL    HW233153   2.877   6.785   4.785  0.2856 -0.1347 -0.8068
 8680SOL     OW33154   9.422   4.335  10.264  0.1893  0.8727 -0.0864
 8680SOL    HW133155   9.461   4.272  10.324  0.3590 -0.0876 -1.1635
 8680SOL    HW233156   9.496   4.391  10.237  0.6161 -0.1781 -1.1854
 8681SOL     OW33157   9.404   8.642   7.836  0.0196 -0.7796 -0.1009
 8681SOL    HW133158   9.407   8.546   7.831  0.8410 -0.7574 -0.2047
 8681SOL    HW233159   9.466   8.671   7.769  0.3672 -0.1852  0.4665
 8682SOL     OW33160   8.188  12.791   5.887  0.0258 -0.2722 -0.2787
 8682SOL    HW133161   8.124  12.737   5.840 -0.0410  0.1268 -0.6549
 8682SOL    HW233162   8.140  12.824   5.963 -0.6767  1.1862 -1.3098
 8683SOL     OW33163   6.447   7.765   3.040  0.4678  0.5841  0.3381
 8683SOL    HW133164   6.435   7.840   2.981  0.3052 -0.0131 -0.4057
 8683SOL    HW233165   6.389   7.784   3.114  1.2253  1.6946  0.6624
 8684SOL     OW33166   8.004   4.155   8.911 -0.0938 -0.3846 -0.1462
 8684SOL    HW133167   7.993   4.248   8.927 -0.2750 -0.1638 -1.4501
 8684SOL    HW233168   7.933   4.132   8.851  1.1374 -0.8875 -1.4824
 8685SOL     OW33169   3.089   9.906   7.436  0.1275  0.5083  0.1751
 8685SOL    HW133170   3.077   9.971   7.367  0.7496 -0.4057 -0.8431
 8685SOL    HW233171   3.063   9.823   7.394  1.5883 -0.2300  0.6567
 8686SOL     OW33172   0.706   6.567  10.222  0.2737 -0.2514  0.6944
 8686SOL    HW133173   0.685   6.491  10.276 -2.0493  0.0927  0.3405
 8686SOL    HW233174   0.770   6.535  10.159 -1.9699 -2.4381 -0.6188
 8687SOL     OW33175   3.171  12.067   0.252 -0.4108 -0.1818 -0.6085
 8687SOL    HW133176   3.167  11.983   0.298 -1.2763 -1.0225 -2.1217
 8687SOL    HW233177   3.223  12.049   0.173 -0.0804  0.8642 -0.6468
 8688SOL     OW33178   9.480   3.688   7.396 -0.5463 -0.6324  0.3367
 8688SOL    HW133179   9.423   3.727   7.463  0.3050  0.7617  0.3000
 8688SOL    HW233180   9.528   3.620   7.442 -0.5883 -0.2652  0.9305
 8689SOL     OW33181   3.495  10.463   9.315 -0.1175 -0.0991 -0.0979
 8689SOL    HW133182   3.456  10.377   9.331  1.4208 -0.8125  0.0542
 8689SOL    HW233183   3.583  10.443   9.281  0.2268  1.4107 -0.1553
 8690SOL     OW33184   9.890   4.672  10.392  0.1599 -0.2668  0.0169
 8690SOL    HW133185   9.886   4.720  10.309 -0.7184  1.7450  1.1361
 8690SOL    HW233186   9.981   4.680  10.420  0.0905  0.5404  0.0425
 8691SOL     OW33187  11.583   8.699   3.397  0.0877  0.0103  0.3329
 8691SOL    HW133188  11.623   8.622   3.356 -1.6741 -0.4425 -0.6193
 8691SOL    HW233189  11.653   8.736   3.451  1.0594 -2.1055  0.6243
 8692SOL     OW33190  12.708   0.624   8.725 -0.7008  0.1895  0.3248
 8692SOL    HW133191  12.793   0.602   8.763  0.4909  0.4039 -2.0315
 8692SOL    HW233192  12.726   0.698   8.667 -2.5876  0.4962  0.0545
 8693SOL     OW33193   0.441   0.172   6.851 -0.2133 -0.1880  0.1007
 8693SOL    HW133194   0.431   0.230   6.927 -2.2114 -1.1228  0.6183
 8693SOL    HW233195   0.360   0.183   6.802 -0.1994 -1.7516 -0.3303
 8694SOL     OW33196   9.309  11.563   7.252 -0.1009  0.3576 -0.1843
 8694SOL    HW133197   9.273  11.651   7.262 -0.0762  0.5541 -1.5718
 8694SOL    HW233198   9.270  11.513   7.324 -2.4079  0.8113 -1.0108
 8695SOL     OW33199   0.883   3.139  10.221  0.3000  0.1292  0.1345
 8695SOL    HW133200   0.837   3.097  10.294  0.2292  0.3618  0.2235
 8695SOL    HW233201   0.913   3.066  10.166  0.0084 -0.0299  0.1878
 8696SOL     OW33202   1.828   1.486   7.938  0.0182  0.5463 -0.0125
 8696SOL    HW133203   1.747   1.496   7.887  0.0304 -1.2981 -0.4694
 8696SOL    HW233204   1.797   1.478   8.029 -0.5074 -1.6746 -0.3250
 8697SOL     OW33205   3.463   8.437   3.417  0.7373 -0.2055 -0.0795
 8697SOL    HW133206   3.550   8.403   3.394  0.2643 -1.5899  0.1084
 8697SOL    HW233207   3.442   8.394   3.499  0.5757  1.4263  0.7671
 8698SOL     OW33208   8.215  10.523   7.463  0.0620  0.5140  0.0554
 8698SOL    HW133209   8.153  10.586   7.426 -0.5655  0.3483  0.8056
 8698SOL    HW233210   8.167  10.440   7.464  0.4501  0.2914  0.2261
 8699SOL     OW33211   4.252   3.425  10.766  0.3186  0.1929  0.2569
 8699SOL    HW133212   4.194   3.496  10.797 -1.1693 -1.1184  0.6066
 8699SOL    HW233213   4.267   3.372  10.844 -0.3939 -1.0671 -0.4349
 8700SOL     OW33214  11.728  12.718   6.029  0.6850  0.3908  0.3107
 8700SOL    HW133215  11.819  12.714   6.059  0.6524  2.1983  0.8201
 8700SOL    HW233216  11.692  12.632   6.049  2.1352 -0.1903  0.5777
 8701SOL     OW33217   7.144   3.085   1.298 -0.4255  0.0050 -0.1526
 8701SOL    HW133218   7.131   2.992   1.283  1.2988 -0.2239 -0.3676
 8701SOL    HW233219   7.168   3.091   1.390 -2.2907  0.4731  0.3605
 8702SOL     OW33220   0.659   3.258   7.224  0.4972  0.0260 -0.2801
 8702SOL    HW133221   0.660   3.162   7.228  0.7038  0.0174 -0.4680
 8702SOL    HW233222   0.716   3.278   7.149  0.0219  0.2771 -0.5750
 8703SOL     OW33223   1.125   3.122   4.260 -0.1075 -0.0228  0.2814
 8703SOL    HW133224   1.140   3.039   4.305  2.6737 -0.6474 -1.5771
 8703SOL    HW233225   1.156   3.108   4.171 -1.2263  2.5054 -0.6099
 8704SOL     OW33226   2.202   1.933   3.876  0.2654  0.3577  0.2964
 8704SOL    HW133227   2.193   1.904   3.967  0.5200 -1.3463 -0.1955
 8704SOL    HW233228   2.270   1.876   3.839  1.2563  2.0133 -0.5742
 8705SOL     OW33229   8.795  11.271   9.336  0.3444 -0.2742 -0.1517
 8705SOL    HW133230   8.747  11.329   9.396 -1.1538 -0.5091 -1.0818
 8705SOL    HW233231   8.735  11.198   9.319 -0.0457  0.6461 -3.3364
 8706SOL     OW33232   7.834   9.947   9.124  0.0885  1.1903  0.0712
 8706SOL    HW133233   7.790  10.006   9.185  0.4240  0.9535  0.5498
 8706SOL    HW233234   7.926   9.948   9.152  0.0196  0.0777  0.3850
 8707SOL     OW33235  11.646   4.759   7.426  0.2424  0.6543  0.1888
 8707SOL    HW133236  11.652   4.682   7.482  0.4320 -0.0833 -0.8060
 8707SOL    HW233237  11.735   4.771   7.393  0.0012  0.6529 -0.4817
 8708SOL     OW33238   6.342   6.394  11.051 -0.6641  0.8568  0.4411
 8708SOL    HW133239   6.268   6.417  11.107 -1.0048  0.9540 -0.0419
 8708SOL    HW233240   6.302   6.370  10.967 -0.2873 -0.9962  0.7590
 8709SOL     OW33241   9.821   0.815   2.674 -0.7009 -0.1767 -0.2534
 8709SOL    HW133242   9.744   0.791   2.725 -0.6584  1.4394  0.6281
 8709SOL    HW233243   9.860   0.888   2.722  0.6766 -0.1443 -1.3553
 8710SOL     OW33244   9.502   6.865  10.259 -0.2662  0.5629 -0.0634
 8710SOL    HW133245   9.558   6.861  10.337 -0.2076  1.2815 -0.0590
 8710SOL    HW233246   9.563   6.877  10.186 -0.3013 -0.3910 -0.2561
 8711SOL     OW33247   5.112  11.979   4.750 -0.2789 -0.2977 -0.7853
 8711SOL    HW133248   5.106  11.884   4.747 -0.2985 -0.3724  0.9347
 8711SOL    HW233249   5.032  12.009   4.705 -1.0415 -1.1065 -0.0011
 8712SOL     OW33250   3.580   1.030  11.931  0.2400  0.3331 -0.1015
 8712SOL    HW133251   3.493   1.050  11.896  0.3642  1.5380  0.2307
 8712SOL    HW233252   3.590   0.936  11.918 -0.7430  0.3291 -0.9803
 8713SOL     OW33253   8.786   7.265   3.393 -0.1127  0.2239 -0.0318
 8713SOL    HW133254   8.851   7.195   3.383 -2.1089 -1.5832 -1.0607
 8713SOL    HW233255   8.751   7.280   3.305 -1.2373  1.0068  0.5161
 8714SOL     OW33256  12.280  11.769   5.276  0.1880  0.0551  0.1126
 8714SOL    HW133257  12.320  11.692   5.236  0.7352  0.8627 -0.9530
 8714SOL    HW233258  12.270  11.831   5.203 -1.7316  0.4068  0.6131
 8715SOL     OW33259   4.598  10.347   4.232  0.6969 -0.0038 -0.0577
 8715SOL    HW133260   4.649  10.370   4.310 -0.7422 -0.4596  1.0842
 8715SOL    HW233261   4.549  10.269   4.259  0.2323 -0.2271 -1.4764
 8716SOL     OW33262   9.971   0.810   0.089 -0.3291 -0.0176  0.0857
 8716SOL    HW133263   9.879   0.836   0.090 -0.2803  0.2522  2.0324
 8716SOL    HW233264   9.969   0.718   0.063 -1.4401 -0.7300  2.3459
 8717SOL     OW33265   8.283   5.302   3.073 -0.3755  0.2156  0.6405
 8717SOL    HW133266   8.361   5.246   3.068 -0.9151 -0.5969  1.1445
 8717SOL    HW233267   8.228   5.272   3.000 -0.6490  0.1144  0.8890
 8718SOL     OW33268   9.190   0.970   9.696  0.3712  0.2851 -0.0184
 8718SOL    HW133269   9.237   0.903   9.648  1.8791  3.1094 -2.8638
 8718SOL    HW233270   9.102   0.935   9.707  0.7465 -1.6744 -2.4074
 8719SOL     OW33271  10.294   5.237   8.051  0.5435  0.4465  0.2071
 8719SOL    HW133272  10.351   5.245   7.975  1.7988 -0.4134  0.9989
 8719SOL    HW233273  10.325   5.305   8.112 -0.4665  1.1477 -0.0488
 8720SOL     OW33274   6.745   9.935   3.672 -0.1482 -0.0396  0.2979
 8720SOL    HW133275   6.780   9.850   3.700 -0.1775 -0.1166  0.1023
 8720SOL    HW233276   6.724   9.923   3.579  0.0903  0.2627  0.2051
 8721SOL     OW33277   8.577  11.708   7.996 -0.2331 -0.3328  0.0354
 8721SOL    HW133278   8.538  11.719   8.082 -0.2601  1.0001 -0.1232
 8721SOL    HW233279   8.630  11.787   7.983 -0.2046 -0.5229 -1.1480
 8722SOL     OW33280   9.999   3.604   8.724 -0.3722 -0.2028  0.3617
 8722SOL    HW133281   9.992   3.658   8.645 -1.5196  0.8244  1.1207
 8722SOL    HW233282  10.011   3.515   8.691  0.1460  0.3243 -0.9494
 8723SOL     OW33283   5.875   3.578   8.058 -0.6143  0.0283 -0.1910
 8723SOL    HW133284   5.904   3.667   8.075 -2.2583  0.5426  0.0957
 8723SOL    HW233285   5.956   3.530   8.040  0.2754  1.6677 -0.8511
 8724SOL     OW33286  10.761   7.223   2.385 -0.0829  0.1884  0.3262
 8724SOL    HW133287  10.814   7.145   2.397 -1.8999 -1.1683 -0.0701
 8724SOL    HW233288  10.773   7.273   2.467  2.5631  0.4940 -0.1730
 8725SOL     OW33289   7.488  10.957   6.238  0.0592  0.0785 -0.3597
 8725SOL    HW133290   7.480  10.862   6.243  0.9459 -0.0073 -0.5333
 8725SOL    HW233291   7.476  10.978   6.145  3.2381 -0.2139 -0.9350
 8726SOL     OW33292  12.359   4.667   5.159 -0.2653  0.3399  0.0822
 8726SOL    HW133293  12.348   4.759   5.183 -0.9484  0.5453 -0.9513
 8726SOL    HW233294  12.412   4.630   5.229 -1.0834  1.2116  1.1969
 8727SOL     OW33295  12.525   4.943   3.736  0.0507  0.3230 -0.0773
 8727SOL    HW133296  12.578   4.972   3.662 -1.0631  1.6433 -0.3923
 8727SOL    HW233297  12.446   4.906   3.696  0.0221 -0.1597  0.4159
 8728SOL     OW33298   2.307   9.402   0.235 -0.5999  0.0290 -0.0563
 8728SOL    HW133299   2.280   9.487   0.202 -2.0975 -0.7056 -0.8115
 8728SOL    HW233300   2.240   9.378   0.299 -0.5110 -0.8213 -0.2673
 8729SOL     OW33301   7.715  12.963   5.653 -0.4849  0.1068 -0.1740
 8729SOL    HW133302   7.691  12.871   5.658 -0.9484  0.2442  0.2265
 8729SOL    HW233303   7.768  12.970   5.574 -0.7767 -0.4270 -0.4210
 8730SOL     OW33304   1.321  11.372  11.552  0.0919 -0.6342  0.0395
 8730SOL    HW133305   1.354  11.316  11.623  0.6199  1.2215  1.3201
 8730SOL    HW233306   1.227  11.378  11.569  0.2446 -0.0441  0.7149
 8731SOL     OW33307   7.941   4.567   3.149 -0.1236 -0.3547  0.2677
 8731SOL    HW133308   7.935   4.479   3.188 -0.9689 -0.2672  0.3487
 8731SOL    HW233309   7.999   4.555   3.074 -0.9583 -1.1907 -0.2688
 8732SOL     OW33310   7.244  11.429   7.329 -0.0363  0.0375  0.2362
 8732SOL    HW133311   7.318  11.395   7.278 -0.1838  0.9057 -0.5735
 8732SOL    HW233312   7.193  11.479   7.267  0.1829  1.7717  1.3964
 8733SOL     OW33313   6.800   7.131  11.154  0.5396 -0.0657 -0.4907
 8733SOL    HW133314   6.785   7.043  11.120  0.1223 -0.5488  0.9063
 8733SOL    HW233315   6.883   7.158  11.115  0.3092 -0.7597 -1.5131
 8734SOL     OW33316   0.638   2.565  10.837 -0.0829 -0.7887  0.2841
 8734SOL    HW133317   0.727   2.592  10.860 -0.4823 -0.6652  1.7369
 8734SOL    HW233318   0.584   2.594  10.910 -1.2349 -1.3829 -0.3082
 8735SOL     OW33319   0.906   8.663   2.247  0.6607  0.0729 -0.1404
 8735SOL    HW133320   0.971   8.606   2.207  1.5999  0.4077  0.8906
 8735SOL    HW233321   0.952   8.746   2.261  0.2270  0.1041  1.2250
 8736SOL     OW33322   7.129   7.786   1.635  0.3599  0.1857 -0.6504
 8736SOL    HW133323   7.097   7.877   1.632  3.2315  1.3282 -0.5056
 8736SOL    HW233324   7.098   7.753   1.719  1.5124  2.0528  0.5975
 8737SOL     OW33325   0.158   0.849   4.031 -0.0724  0.0313 -0.4207
 8737SOL    HW133326   0.229   0.903   3.998  0.4600 -0.1946  0.3268
 8737SOL    HW233327   0.188   0.819   4.117  0.1666 -2.3620 -1.2462
 8738SOL     OW33328   0.712   7.857   4.463 -0.6362 -0.1754 -0.8345
 8738SOL    HW133329   0.737   7.947   4.443  0.7478 -0.3853 -0.1084
 8738SOL    HW233330   0.648   7.866   4.534  0.1517  0.2051 -0.1578
 8739SOL     OW33331   9.283  11.097  10.205 -0.6404  0.0304 -0.1687
 8739SOL    HW133332   9.373  11.120  10.185 -0.4829  0.6495  1.1472
 8739SOL    HW233333   9.281  11.089  10.300 -1.9255 -0.1908 -0.1975
 8740SOL     OW33334  10.318   5.055   0.071 -0.3460  0.4316  0.4546
 8740SOL    HW133335  10.385   5.030   0.135 -0.7243  2.2448  1.6397
 8740SOL    HW233336  10.284   4.972   0.038 -0.1121 -0.6014  2.6081
 8741SOL     OW33337  11.354  10.029   3.475  0.0850  0.8464  0.5511
 8741SOL    HW133338  11.421  10.097   3.474  1.6525 -0.5966 -0.9733
 8741SOL    HW233339  11.359   9.989   3.388 -1.3822 -0.6254  1.0875
 8742SOL     OW33340   6.669  10.759  10.434  0.3762  0.0477 -0.4009
 8742SOL    HW133341   6.599  10.697  10.455  0.8774 -1.0458 -1.8365
 8742SOL    HW233342   6.718  10.768  10.516 -2.0376  1.7352  0.9930
 8743SOL     OW33343   9.774   8.370  11.012 -0.2116  0.2684 -0.4557
 8743SOL    HW133344   9.721   8.384  10.933 -0.2773 -0.6056 -0.5775
 8743SOL    HW233345   9.714   8.327  11.073 -0.3437  1.5072  0.3102
 8744SOL     OW33346   8.309   3.076  10.289 -0.8779  0.4941  0.6535
 8744SOL    HW133347   8.393   3.106  10.255 -1.2219  0.4053 -0.3072
 8744SOL    HW233348   8.332   3.018  10.361  0.0568 -1.6547 -1.2301
 8745SOL     OW33349   8.313   7.089   9.976  0.0440  0.1808  0.1230
 8745SOL    HW133350   8.379   7.022   9.987 -1.1550 -0.9193  0.9505
 8745SOL    HW233351   8.231   7.041   9.965 -0.8956  1.4940  1.0165
 8746SOL     OW33352  12.914   7.225   6.833 -0.1280  0.9586 -0.2153
 8746SOL    HW133353  12.935   7.284   6.761 -1.0683  0.0212 -1.2901
 8746SOL    HW233354  12.958   7.143   6.811  0.4410  0.9658  0.8195
 8747SOL     OW33355   8.946  12.478  11.171  0.0075  0.6179  0.2322
 8747SOL    HW133356   8.952  12.444  11.082 -1.1021  1.1195 -0.0623
 8747SOL    HW233357   9.036  12.479  11.203  0.2168 -1.4130 -0.1658
 8748SOL     OW33358   3.082   0.437   2.475 -0.0465 -0.1588  0.0525
 8748SOL    HW133359   3.175   0.416   2.463 -0.3457 -0.9016 -1.1285
 8748SOL    HW233360   3.068   0.512   2.416  0.0786  0.7813  1.1875
 8749SOL     OW33361   1.983   8.489  12.462 -0.7363 -0.4420  0.0020
 8749SOL    HW133362   1.990   8.466  12.369  0.3118  1.8091 -0.5545
 8749SOL    HW233363   2.064   8.537  12.481 -1.3368 -0.0886  1.8358
 8750SOL     OW33364  10.761   0.996   0.549  0.5220 -0.1770  0.4541
 8750SOL    HW133365  10.826   0.978   0.482 -0.4119  1.5321 -0.9913
 8750SOL    HW233366  10.692   0.931   0.533  0.7451 -0.4077  0.4114
 8751SOL     OW33367  10.997   6.311   9.019 -0.0969 -0.2288 -0.0786
 8751SOL    HW133368  11.054   6.387   9.020  0.2607 -0.4715  1.3350
 8751SOL    HW233369  11.056   6.236   9.020 -0.4313 -0.4948  0.5328
 8752SOL     OW33370   2.148   0.858   5.181  0.4641  0.2170 -0.3108
 8752SOL    HW133371   2.212   0.863   5.109  2.0971  1.2208  1.1221
 8752SOL    HW233372   2.188   0.908   5.252 -1.5928  0.1959  0.9497
 8753SOL     OW33373  10.594   2.019  12.121  0.3886  0.3599  0.0383
 8753SOL    HW133374  10.664   2.012  12.185  1.0814 -0.4069 -0.7720
 8753SOL    HW233375  10.607   2.105  12.081 -1.1904  1.6787  2.1656
 8754SOL     OW33376   9.923   0.217   9.020  0.0702  0.1290  0.2527
 8754SOL    HW133377   9.997   0.233   9.078 -0.6051 -0.4415  1.2877
 8754SOL    HW233378   9.961   0.221   8.932  0.5500  4.3464  0.4519
 8755SOL     OW33379   2.029   3.090  12.201 -0.5398 -0.1274 -0.2536
 8755SOL    HW133380   2.014   3.036  12.279  1.7886  1.6115  1.5576
 8755SOL    HW233381   1.963   3.061  12.138 -2.3559 -1.8355  2.2438
 8756SOL     OW33382  11.302   9.691   7.532 -0.0269  0.0671  0.1963
 8756SOL    HW133383  11.287   9.764   7.591  0.9215  0.2945  0.1797
 8756SOL    HW233384  11.243   9.707   7.458 -0.1785  0.5485  0.4167
 8757SOL     OW33385  12.814   2.072   6.133 -0.1200 -0.1972 -0.0762
 8757SOL    HW133386  12.749   2.054   6.065  1.7224 -2.2429 -1.4381
 8757SOL    HW233387  12.893   2.099   6.085  0.7688 -0.1324  1.3510
 8758SOL     OW33388   2.430   6.597   5.344  0.3459  0.2821  0.2829
 8758SOL    HW133389   2.344   6.630   5.320 -0.1387 -0.9921  0.1927
 8758SOL    HW233390   2.485   6.675   5.350  0.1899  0.8799 -3.6197
 8759SOL     OW33391   7.268  11.516  10.329 -0.3677 -0.1379 -0.5513
 8759SOL    HW133392   7.300  11.595  10.373  0.3006  0.1053 -1.4326
 8759SOL    HW233393   7.321  11.445  10.366 -1.2582 -0.2587  0.5496
 8760SOL     OW33394   7.214   0.490   3.322  0.3356  0.4101  0.3742
 8760SOL    HW133395   7.310   0.485   3.320  0.3191 -2.2528  1.4680
 8760SOL    HW233396   7.187   0.444   3.243 -0.0115 -0.0320  0.7433
 8761SOL     OW33397   1.778   7.763  11.364  0.1103  0.1574 -0.4737
 8761SOL    HW133398   1.795   7.813  11.443  1.6780  1.0481 -1.3300
 8761SOL    HW233399   1.694   7.796  11.332 -1.2071 -1.1178  1.4410
 8762SOL     OW33400  10.827  10.632   3.502  0.0470 -0.6795  0.4295
 8762SOL    HW133401  10.802  10.541   3.521  1.2575 -1.2021 -0.3354
 8762SOL    HW233402  10.816  10.640   3.407 -0.5711  0.1588  0.5629
 8763SOL     OW33403   0.401   5.666  11.709 -0.2899  0.6314  0.0028
 8763SOL    HW133404   0.381   5.634  11.621  0.3985  1.5587 -0.5178
 8763SOL    HW233405   0.377   5.759  11.706  1.1369  1.0275  0.3124
 8764SOL     OW33406   8.669   6.459   6.184  0.2473  0.0515  0.0929
 8764SOL    HW133407   8.722   6.383   6.209  2.5198  1.1280 -1.1403
 8764SOL    HW233408   8.598   6.422   6.131 -0.4787 -1.4605  1.9701
 8765SOL     OW33409  11.177   0.575   9.574  0.6418 -0.5228 -0.1707
 8765SOL    HW133410  11.186   0.664   9.541 -0.6930  0.2447  1.3915
 8765SOL    HW233411  11.262   0.534   9.557  0.9069  0.6590 -1.9360
 8766SOL     OW33412  10.313   3.689  11.147 -0.2648  0.3225 -0.7330
 8766SOL    HW133413  10.254   3.716  11.076  0.6371 -0.1840 -1.6825
 8766SOL    HW233414  10.260   3.628  11.199 -0.8296  0.4502 -1.1395
 8767SOL     OW33415   8.281   6.923   8.979 -0.2516  0.0845  0.7571
 8767SOL    HW133416   8.231   7.001   9.003 -0.3798  0.4715 -0.6831
 8767SOL    HW233417   8.232   6.850   9.016 -0.2298  0.6657  1.9637
 8768SOL     OW33418  11.637   4.690   8.876 -0.0615  0.0797 -0.0894
 8768SOL    HW133419  11.700   4.657   8.939 -1.1454 -0.9328  0.4914
 8768SOL    HW233420  11.687   4.701   8.795  0.7498 -1.1973  0.2205
 8769SOL     OW33421   5.196   4.326   3.036  0.1905  0.0941  0.7011
 8769SOL    HW133422   5.250   4.274   3.095 -1.0509 -1.4022  0.5673
 8769SOL    HW233423   5.114   4.278   3.028  0.0120  0.6293 -1.6577
 8770SOL     OW33424   5.522   6.443  10.176 -0.1024  0.0813 -0.6066
 8770SOL    HW133425   5.555   6.532  10.189 -0.8556  0.3592 -0.5855
 8770SOL    HW233426   5.598   6.395  10.141  0.5462  0.5188  0.1653
 8771SOL     OW33427  12.518   1.502   6.017 -0.5050 -1.0950 -0.1728
 8771SOL    HW133428  12.440   1.467   5.976  0.8640 -1.9620 -2.1826
 8771SOL    HW233429  12.565   1.546   5.947 -0.6154  2.1852  1.6022
 8772SOL     OW33430   7.247   1.641   9.226  0.1096  0.2553 -0.4385
 8772SOL    HW133431   7.329   1.605   9.259 -1.1349 -1.3519  1.1694
 8772SOL    HW233432   7.199   1.564   9.195 -1.8198  0.7140  1.1497
 8773SOL     OW33433   6.582   6.405   0.764  0.1095 -0.2399  0.0158
 8773SOL    HW133434   6.596   6.404   0.859 -1.0073  0.7727  0.2243
 8773SOL    HW233435   6.594   6.314   0.737 -3.3713 -1.4213  1.7706
 8774SOL     OW33436  10.719   7.602   1.246 -0.6409 -0.0163 -0.0711
 8774SOL    HW133437  10.736   7.695   1.262 -0.9685 -0.2705  2.1467
 8774SOL    HW233438  10.627   7.598   1.221 -0.6918  0.2326  0.0724
 8775SOL     OW33439   6.288   2.896   4.379  0.1823  0.2094  0.7213
 8775SOL    HW133440   6.262   2.821   4.326 -0.7577  0.2755  1.0775
 8775SOL    HW233441   6.380   2.910   4.356 -0.2934  0.4853 -1.1861
 8776SOL     OW33442   8.649   7.198   7.590 -0.1125 -0.1289 -0.3924
 8776SOL    HW133443   8.612   7.285   7.602  0.7195  0.1432  0.3059
 8776SOL    HW233444   8.573   7.142   7.575 -0.8330  0.4064  1.0308
 8777SOL     OW33445   3.714   0.068  11.271 -0.0520  0.4105  0.3695
 8777SOL    HW133446   3.715   0.061  11.366  1.1762  1.5744  0.4675
 8777SOL    HW233447   3.640   0.125  11.252  0.3168  1.0058  0.7058
 8778SOL     OW33448   8.402   2.490  10.620  0.1293  0.3097 -0.2467
 8778SOL    HW133449   8.498   2.494  10.614  0.0712 -0.2875 -2.9466
 8778SOL    HW233450   8.385   2.413  10.675  1.1626  0.5780  0.4918
 8779SOL     OW33451   1.914   9.708   3.895 -0.3204  0.4240  0.2533
 8779SOL    HW133452   1.960   9.627   3.871  0.0147  1.6305 -3.9153
 8779SOL    HW233453   1.837   9.679   3.943  0.2186 -2.3048 -0.3849
 8780SOL     OW33454   8.673  11.839   5.270  0.1378  0.0026  0.0736
 8780SOL    HW133455   8.745  11.866   5.327  0.3245 -0.6249  0.1366
 8780SOL    HW233456   8.715  11.813   5.188 -0.0787  0.2915 -0.1334
 8781SOL     OW33457  10.518   4.197  12.796  0.5334  0.4894  0.3048
 8781SOL    HW133458  10.428   4.168  12.785  0.5069  0.4715  0.5714
 8781SOL    HW233459  10.571   4.119  12.775  0.4356 -0.1882  2.3608
 8782SOL     OW33460   4.133   1.968   8.339  0.5063 -0.4996  0.4031
 8782SOL    HW133461   4.091   1.963   8.425 -1.6782 -0.0200 -0.5494
 8782SOL    HW233462   4.128   2.060   8.314  1.8991 -0.4832  0.1027
 8783SOL     OW33463   7.143   0.952   5.215  0.0595 -0.3339 -0.5841
 8783SOL    HW133464   7.236   0.929   5.220  0.4345  1.2535  0.3005
 8783SOL    HW233465   7.134   0.998   5.131  0.4669  1.0475  0.1033
 8784SOL     OW33466  10.440   8.975   5.719  0.3982  0.2240  0.1352
 8784SOL    HW133467  10.526   8.932   5.720  0.7701  0.8626  2.6653
 8784SOL    HW233468  10.459   9.067   5.736 -0.8565  0.0156  3.2119
 8785SOL     OW33469   8.163   0.436   1.723 -0.3822  0.3399  0.0844
 8785SOL    HW133470   8.169   0.435   1.627 -1.6969 -0.8533 -0.0287
 8785SOL    HW233471   8.118   0.517   1.743 -0.5310  0.3718 -0.3540
 8786SOL     OW33472   8.998  10.490   9.833  0.7140 -0.2091 -0.0014
 8786SOL    HW133473   8.950  10.415   9.869  3.0945 -1.1380  1.4909
 8786SOL    HW233474   9.057  10.451   9.769  0.3613  0.7420 -0.9218
 8787SOL     OW33475   2.743   4.673   0.563  0.4398  0.9438 -0.5505
 8787SOL    HW133476   2.697   4.599   0.522  0.9116 -0.2805  1.0332
 8787SOL    HW233477   2.821   4.685   0.509  0.8153 -0.3287 -0.3225
 8788SOL     OW33478  11.312   2.520   0.802  0.4585  0.3276  0.0086
 8788SOL    HW133479  11.400   2.517   0.765 -0.0923 -2.4014 -1.3224
 8788SOL    HW233480  11.322   2.483   0.890  0.5490 -1.0342 -0.5386
 8789SOL     OW33481   0.065   1.554   8.869 -0.3076 -0.4383 -0.2919
 8789SOL    HW133482   0.155   1.526   8.888 -0.0468  1.4373  1.6609
 8789SOL    HW233483   0.014   1.522   8.943 -0.7502  0.6874 -0.0946
 8790SOL     OW33484  10.347   8.195   4.583  0.0680 -0.5129  0.3643
 8790SOL    HW133485  10.407   8.142   4.531  1.2521 -0.2071  1.3904
 8790SOL    HW233486  10.261   8.153   4.572  0.5841 -1.3471 -0.5668
 8791SOL     OW33487  11.226   8.754   1.908  0.4023  0.5674  1.1189
 8791SOL    HW133488  11.132   8.771   1.899  0.2162  0.0062  1.8593
 8791SOL    HW233489  11.260   8.832   1.951 -0.2442 -0.3166  3.4311
 8792SOL     OW33490   0.496   4.668   2.048  0.1186 -0.5533  0.7847
 8792SOL    HW133491   0.509   4.594   2.106  0.2113 -2.1286 -1.1553
 8792SOL    HW233492   0.583   4.688   2.014 -0.2400 -1.2160 -0.5956
 8793SOL     OW33493   5.840   1.135   7.403 -0.8316  0.1880  0.3050
 8793SOL    HW133494   5.816   1.180   7.322 -1.2251  0.5171  0.5983
 8793SOL    HW233495   5.885   1.202   7.454 -1.0725  0.1396  0.5830
 8794SOL     OW33496   1.127   8.395  11.582 -0.0420 -0.6485  0.1288
 8794SOL    HW133497   1.180   8.336  11.636  1.4447  0.2683 -0.2657
 8794SOL    HW233498   1.191   8.444  11.530 -1.3592 -0.5549 -1.4958
 8795SOL     OW33499   7.191   4.872   7.304 -0.3201 -0.6670  0.9274
 8795SOL    HW133500   7.148   4.788   7.289  1.2091 -1.3706  0.1859
 8795SOL    HW233501   7.279   4.849   7.333  0.6286  0.6351 -0.7424
 8796SOL     OW33502   1.987   3.066   8.393 -0.2230  0.3341 -0.4331
 8796SOL    HW133503   1.901   3.099   8.365 -0.5323 -1.0360 -1.2171
 8796SOL    HW233504   2.016   3.011   8.320  1.9957  1.8633 -0.8079
 8797SOL     OW33505   3.979  11.196  10.381  0.1839  0.0104  0.0713
 8797SOL    HW133506   4.024  11.229  10.304  0.7005 -1.3743 -0.2424
 8797SOL    HW233507   4.001  11.259  10.450 -0.0343  1.0940 -0.8132
 8798SOL     OW33508   2.987   2.328   4.839 -0.0900 -0.0202  0.3770
 8798SOL    HW133509   3.003   2.271   4.914 -0.3507 -0.6170 -0.0193
 8798SOL    HW233510   3.072   2.366   4.819  0.9418 -3.1145 -1.6922
 8799SOL     OW33511   0.186   4.094  12.900  0.2339  0.2027  0.6802
 8799SOL    HW133512   0.272   4.134  12.885 -0.6030  1.5003 -1.0472
 8799SOL    HW233513   0.136   4.115  12.821 -1.5124 -0.9814  1.4157
 8800SOL     OW33514   4.591  11.041  12.109 -0.0988  0.6832 -0.9748
 8800SOL    HW133515   4.586  11.132  12.140 -0.2305  0.5417 -0.5780
 8800SOL    HW233516   4.520  11.034  12.045 -0.5653  0.6555 -0.4654
 8801SOL     OW33517   8.540   8.449   3.191 -0.3580 -0.1198  0.2993
 8801SOL    HW133518   8.626   8.431   3.227  1.1284  1.2474 -2.2563
 8801SOL    HW233519   8.524   8.541   3.210 -2.6913 -0.9879  3.2816
 8802SOL     OW33520  10.885   2.915   2.586 -0.2056  0.3045  0.1817
 8802SOL    HW133521  10.980   2.928   2.579 -0.1477  0.5276  1.2340
 8802SOL    HW233522  10.866   2.845   2.524  0.7147 -0.0331  0.2679
 8803SOL     OW33523   1.130   7.738   5.231 -0.4234  0.1422 -0.3391
 8803SOL    HW133524   1.133   7.727   5.136  2.2510  2.5725 -0.6747
 8803SOL    HW233525   1.082   7.820   5.244 -1.3968 -0.5337  0.5216
 8804SOL     OW33526  10.646   5.934   0.228  0.5287  0.0127  0.8169
 8804SOL    HW133527  10.734   5.909   0.257  0.9055  1.9515  1.4786
 8804SOL    HW233528  10.632   6.020   0.266 -0.3152  1.2306 -2.0096
 8805SOL     OW33529  11.250   3.934   8.286 -0.3477 -0.5144 -0.1211
 8805SOL    HW133530  11.198   3.858   8.312 -1.3286  0.1483 -0.0908
 8805SOL    HW233531  11.186   3.996   8.251  0.1821  0.9970  1.4323
 8806SOL     OW33532  12.743   6.911   0.889  0.1305  0.1138 -0.0426
 8806SOL    HW133533  12.768   6.837   0.833  0.3836  0.8271 -0.8985
 8806SOL    HW233534  12.781   6.987   0.846  2.5730  0.4679  2.4529
 8807SOL     OW33535   4.799   4.794   4.386 -0.8023 -0.3584 -0.0743
 8807SOL    HW133536   4.788   4.718   4.328 -0.1874 -0.2855 -0.2877
 8807SOL    HW233537   4.841   4.758   4.464  1.0819  0.0379 -0.8602
 8808SOL     OW33538  12.348  11.197   6.966 -0.1287  0.0086  0.5681
 8808SOL    HW133539  12.415  11.195   7.035  1.3601 -0.9673 -0.8452
 8808SOL    HW233540  12.350  11.286   6.933 -0.7104  0.4314  1.6039
 8809SOL     OW33541   0.712  12.163   4.028  0.5424 -0.5598 -0.3585
 8809SOL    HW133542   0.679  12.106   4.098  0.7533  0.8209  0.9207
 8809SOL    HW233543   0.682  12.122   3.947 -2.2933 -0.6236  0.6223
 8810SOL     OW33544   4.806   5.922  11.320  0.6740  0.2815 -0.2850
 8810SOL    HW133545   4.781   5.885  11.405 -1.2873 -0.7155 -1.2338
 8810SOL    HW233546   4.901   5.912  11.317  0.8824  0.9244  2.0293
 8811SOL     OW33547   1.761   8.806  12.793 -0.0262  0.0150 -0.0183
 8811SOL    HW133548   1.667   8.802  12.775 -0.1658  1.6487  0.2023
 8811SOL    HW233549   1.766   8.826  12.886  0.5848 -1.1825  0.2295
 8812SOL     OW33550   7.465   8.439   2.314 -0.2619  0.6260 -0.0276
 8812SOL    HW133551   7.413   8.364   2.344  0.5581  0.2406  0.4801
 8812SOL    HW233552   7.495   8.481   2.395  0.5183  0.6173 -0.3038
 8813SOL     OW33553   3.201   2.235   6.311  0.5520 -0.3184 -0.1630
 8813SOL    HW133554   3.111   2.230   6.345  1.2203  0.1496  1.8094
 8813SOL    HW233555   3.255   2.243   6.389  2.4507 -1.9304 -1.2340
 8814SOL     OW33556   7.662   9.803   3.651 -0.3818 -0.2360 -0.4609
 8814SOL    HW133557   7.707   9.737   3.599 -2.2252 -0.5044 -1.7925
 8814SOL    HW233558   7.576   9.813   3.609 -0.5913  2.1650  0.3875
 8815SOL     OW33559   9.265  12.284   3.438 -0.0812  0.0384  0.2656
 8815SOL    HW133560   9.333  12.268   3.373 -0.2689  1.3013 -0.2725
 8815SOL    HW233561   9.282  12.220   3.507  1.4657  0.1205  0.0002
 8816SOL     OW33562   4.238   1.871  12.778  0.1574 -0.0693  0.0574
 8816SOL    HW133563   4.152   1.860  12.737 -0.0977  0.1131  0.5321
 8816SOL    HW233564   4.245   1.965  12.793 -0.4205 -0.2753  1.8208
 8817SOL     OW33565   4.243   7.520  12.015  0.0884 -0.5632 -0.1253
 8817SOL    HW133566   4.185   7.501  11.942 -2.5667 -0.0959  1.7155
 8817SOL    HW233567   4.213   7.604  12.049 -0.2032 -1.6871  2.7029
 8818SOL     OW33568   1.008  10.297   6.729 -0.9270  0.0179  0.1090
 8818SOL    HW133569   0.928  10.249   6.746 -1.8617  0.6311 -2.1183
 8818SOL    HW233570   0.991  10.343   6.646  2.0368 -0.5775 -0.9610
 8819SOL     OW33571  12.554  11.718   2.311 -0.2304  0.0004 -0.3858
 8819SOL    HW133572  12.626  11.780   2.327  0.1010 -0.2523 -0.8613
 8819SOL    HW233573  12.537  11.725   2.217 -1.2206  0.4678 -0.1850
 8820SOL     OW33574  12.483   5.119   4.796 -0.3035  0.4072 -0.1581
 8820SOL    HW133575  12.496   5.212   4.774  0.7758 -0.5763 -4.8801
 8820SOL    HW233576  12.393   5.115   4.829 -0.2803  3.1206  0.5083
 8821SOL     OW33577   6.879   1.800   6.634  0.1154  0.0434 -0.2946
 8821SOL    HW133578   6.888   1.848   6.551  1.0561  1.1787  0.4406
 8821SOL    HW233579   6.953   1.740   6.635 -0.9664 -1.3586 -1.1340
 8822SOL     OW33580   6.927   4.821   3.347 -0.1129  0.0345  0.3328
 8822SOL    HW133581   6.975   4.809   3.429 -0.3705 -0.8093  0.3708
 8822SOL    HW233582   6.854   4.760   3.354 -0.6746  0.6514 -0.1194
 8823SOL     OW33583  11.430  10.997  11.593 -0.1202  0.6787  0.0908
 8823SOL    HW133584  11.424  11.092  11.591 -1.9062  0.5833 -0.1522
 8823SOL    HW233585  11.395  10.969  11.509  1.7968 -0.1741 -0.4863
 8824SOL     OW33586  11.727  11.721  11.531  0.2631  0.0284 -0.8952
 8824SOL    HW133587  11.671  11.729  11.454 -0.3487 -0.1676 -0.4815
 8824SOL    HW233588  11.815  11.740  11.499 -0.1471  1.2149 -1.3918
 8825SOL     OW33589  11.101   5.505  11.718 -0.4072  0.1331 -0.1490
 8825SOL    HW133590  11.014   5.528  11.751  0.3368  1.3462  1.1090
 8825SOL    HW233591  11.087   5.486  11.625 -1.7219  2.4781 -0.5333
 8826SOL     OW33592   4.980  10.820   1.280 -0.1897 -0.2324  0.0085
 8826SOL    HW133593   4.956  10.875   1.205  0.5091 -1.0176 -0.8189
 8826SOL    HW233594   4.896  10.787   1.313 -0.6062  1.1932  0.4418
 8827SOL     OW33595   2.002   7.924   1.470 -0.5617 -0.5096  1.0175
 8827SOL    HW133596   2.077   7.973   1.503  0.2580  0.8369 -2.4233
 8827SOL    HW233597   2.039   7.858   1.412 -1.8789  1.2142 -2.0588
 8828SOL     OW33598   5.119  12.827   7.171 -0.0530  0.0951  0.3006
 8828SOL    HW133599   5.125  12.868   7.257 -0.8709 -2.0915  1.4846
 8828SOL    HW233600   5.027  12.837   7.146  0.5031  2.1519 -1.1397
 8829SOL     OW33601  11.682   1.659   4.674 -0.1218  0.0443 -0.0630
 8829SOL    HW133602  11.768   1.652   4.715 -0.6780  0.1592  1.1581
 8829SOL    HW233603  11.695   1.719   4.600  0.6299  0.8387  0.6993
 8830SOL     OW33604   7.783   9.677   9.127  0.3075  0.1733  0.4285
 8830SOL    HW133605   7.838   9.683   9.205  1.3164  0.1255 -0.2579
 8830SOL    HW233606   7.798   9.760   9.081 -0.8320  0.5069  0.6268
 8831SOL     OW33607   4.197   1.142   1.937  0.3774 -0.5306  0.0011
 8831SOL    HW133608   4.204   1.050   1.913  3.4688 -0.0529 -1.4526
 8831SOL    HW233609   4.285   1.165   1.969  0.1566  2.2469 -1.1425
 8832SOL     OW33610   7.414   6.178   3.273 -0.1366 -0.2016  0.3118
 8832SOL    HW133611   7.385   6.137   3.354 -0.9079  0.0053  0.1513
 8832SOL    HW233612   7.352   6.148   3.207  1.1064 -1.2357 -0.4478
 8833SOL     OW33613   8.822  12.170   5.360 -0.2330 -0.3078 -0.1144
 8833SOL    HW133614   8.837  12.141   5.449 -0.1225  2.1026  0.7095
 8833SOL    HW233615   8.884  12.242   5.346 -2.1964  1.3072 -1.0733
 8834SOL     OW33616  11.790   7.492   9.442 -0.2616 -0.0561 -0.3998
 8834SOL    HW133617  11.803   7.398   9.436  1.2515  0.2171 -2.0711
 8834SOL    HW233618  11.852   7.520   9.510 -1.1104 -0.3073  0.4995
 8835SOL     OW33619   5.636   2.667   5.365  0.3674  0.5001 -0.5731
 8835SOL    HW133620   5.654   2.709   5.449  1.5539 -0.2327 -0.4505
 8835SOL    HW233621   5.549   2.627   5.376  0.2715  0.8778  0.1024
 8836SOL     OW33622  11.166   1.399   8.614 -0.1656  0.0400 -0.6630
 8836SOL    HW133623  11.118   1.316   8.613 -1.2087  0.5009  2.5849
 8836SOL    HW233624  11.228   1.390   8.686  0.2719  1.7999 -0.7761
 8837SOL     OW33625   3.798   3.096   1.994 -0.0125  0.5098 -0.1185
 8837SOL    HW133626   3.855   3.063   1.924 -0.8747  0.3854 -0.7861
 8837SOL    HW233627   3.857   3.114   2.067  0.9057  0.5835 -0.8594
 8838SOL     OW33628  10.984   7.234   9.674 -0.1859  0.3144  0.3173
 8838SOL    HW133629  10.980   7.170   9.745 -0.2628 -1.0312 -0.8527
 8838SOL    HW233630  10.909   7.215   9.619 -0.8834  2.1969  0.5321
 8839SOL     OW33631  10.934  12.011  11.391 -0.2063 -0.1190 -0.3370
 8839SOL    HW133632  10.998  12.077  11.367 -0.8444  0.9047  0.6937
 8839SOL    HW233633  10.984  11.929  11.394  0.8197  0.4853 -0.5454
 8840SOL     OW33634   2.176   1.725   7.563 -0.2889 -0.0329  0.1816
 8840SOL    HW133635   2.146   1.779   7.637 -2.0806 -0.1047 -0.4489
 8840SOL    HW233636   2.149   1.636   7.586  1.7522 -0.5455  0.7466
 8841SOL     OW33637   4.458   5.657   5.608  0.1513 -0.0382  0.1296
 8841SOL    HW133638   4.469   5.620   5.521  3.5425  2.5436 -0.7218
 8841SOL    HW233639   4.501   5.595   5.667  0.5281 -0.3335 -0.4537
 8842SOL     OW33640   2.884   4.176   5.621 -0.0888 -0.2016 -0.2161
 8842SOL    HW133641   2.832   4.185   5.701  1.3647  1.2359  0.6193
 8842SOL    HW233642   2.860   4.089   5.587 -1.0394 -0.6843  1.5577
 8843SOL     OW33643   3.235   4.158   1.421  0.6518 -0.2889  0.3479
 8843SOL    HW133644   3.270   4.186   1.337 -0.5281  1.3874  0.3642
 8843SOL    HW233645   3.198   4.071   1.405 -0.7252  0.5345 -1.2353
 8844SOL     OW33646   9.066   7.637   7.892 -0.2787 -0.1821 -0.2125
 8844SOL    HW133647   9.089   7.694   7.818 -0.5820 -2.3849 -2.0916
 8844SOL    HW233648   9.143   7.582   7.905 -1.5576 -2.3959 -1.4844
 8845SOL     OW33649  12.004   2.260   3.504  0.0205 -0.4900 -0.0329
 8845SOL    HW133650  11.987   2.206   3.580  0.8542  0.2991  0.7456
 8845SOL    HW233651  12.012   2.198   3.431 -1.6125 -1.1890  0.3472
 8846SOL     OW33652   4.286   7.753   3.272 -0.1272 -0.2607 -0.4126
 8846SOL    HW133653   4.252   7.820   3.212 -0.7742 -0.6649 -0.4979
 8846SOL    HW233654   4.242   7.770   3.355 -0.2481 -0.5487 -0.4191
 8847SOL     OW33655   1.692  10.517  10.778 -0.2435 -0.4066 -0.4244
 8847SOL    HW133656   1.743  10.466  10.716 -1.3303 -0.4846 -1.2710
 8847SOL    HW233657   1.755  10.541  10.847  0.9575 -0.3914 -1.4917
 8848SOL     OW33658  11.155   1.852   8.141 -0.5219 -0.0494  0.1053
 8848SOL    HW133659  11.240   1.860   8.184 -1.4175  2.5681  1.5795
 8848SOL    HW233660  11.114   1.776   8.184  1.0521 -1.4340 -0.7290
 8849SOL     OW33661  11.311   6.200   0.118 -0.8951  0.5364  0.2986
 8849SOL    HW133662  11.358   6.165   0.194 -1.4310  0.1804  0.4701
 8849SOL    HW233663  11.344   6.148   0.044 -1.1114  0.2022  0.4365
 8850SOL     OW33664   2.532   3.699   6.974  0.0013 -0.1035  0.4725
 8850SOL    HW133665   2.586   3.774   6.949  0.4677 -0.1104  1.3979
 8850SOL    HW233666   2.562   3.628   6.918 -1.0952  0.6072 -1.0800
 8851SOL     OW33667   9.750   2.224   7.309  0.6820 -0.0311 -0.1712
 8851SOL    HW133668   9.823   2.170   7.340  0.5283 -1.2016 -1.7544
 8851SOL    HW233669   9.792   2.296   7.263  0.8570  0.4909  0.7738
 8852SOL     OW33670   4.301   0.333   1.586  0.1466  0.0568 -0.7489
 8852SOL    HW133671   4.285   0.426   1.603 -1.1842 -0.6120  2.2766
 8852SOL    HW233672   4.376   0.312   1.642 -0.8757 -1.1171  0.2083
 8853SOL     OW33673  10.331   3.252   7.320 -0.1591  0.8543  0.3230
 8853SOL    HW133674  10.346   3.262   7.225  0.7560  0.5257  0.4253
 8853SOL    HW233675  10.241   3.283   7.333 -0.1489  1.3176 -0.5894
 8854SOL     OW33676   7.896   8.379  11.026 -0.5792  0.0061 -0.2152
 8854SOL    HW133677   7.945   8.446  10.979 -1.6026 -0.0056 -1.3633
 8854SOL    HW233678   7.843   8.428  11.089  3.5279 -0.1484  3.8773
 8855SOL     OW33679   8.355   7.748   7.211 -0.3506 -0.0447 -0.7949
 8855SOL    HW133680   8.330   7.683   7.145 -1.8546 -0.3430  0.0235
 8855SOL    HW233681   8.370   7.697   7.290 -2.1498  0.5975  0.0258
 8856SOL     OW33682  11.319   1.986   3.117 -0.4507 -0.1765  0.1961
 8856SOL    HW133683  11.309   2.029   3.201 -1.8975  0.4119 -0.2405
 8856SOL    HW233684  11.233   1.996   3.075 -0.4954 -2.4623 -0.4011
 8857SOL     OW33685  10.970   4.992   9.650  0.5115  0.5346 -0.1183
 8857SOL    HW133686  11.046   5.020   9.599  0.3397 -0.4529 -0.9542
 8857SOL    HW233687  10.897   4.998   9.589 -0.4382  2.9768  1.0924
 8858SOL     OW33688   0.522   5.961   7.329 -0.4688  0.4531  0.2498
 8858SOL    HW133689   0.578   5.896   7.371 -0.6483  0.0656 -0.1003
 8858SOL    HW233690   0.577   6.000   7.261 -0.7188 -0.1516 -0.3046
 8859SOL     OW33691   2.306   2.305  12.642  0.0114 -0.5076  0.1900
 8859SOL    HW133692   2.385   2.259  12.614  0.1094  1.0745 -2.5120
 8859SOL    HW233693   2.234   2.251  12.609  0.0736 -0.0775 -0.6761
 8860SOL     OW33694   2.614   6.796   5.396  0.4741 -0.1535 -0.2857
 8860SOL    HW133695   2.600   6.855   5.322  1.1939  0.6125  0.1778
 8860SOL    HW233696   2.625   6.854   5.471  0.3414 -0.9094  0.3245
 8861SOL     OW33697   8.374   3.711   1.958 -0.6138 -1.0289 -0.1451
 8861SOL    HW133698   8.438   3.670   1.900 -0.6545 -0.3398 -0.6820
 8861SOL    HW233699   8.383   3.663   2.041  1.6481 -0.0306  0.2729
 8862SOL     OW33700   9.270   0.669   0.642 -1.0966 -0.0175 -0.0328
 8862SOL    HW133701   9.228   0.731   0.702 -2.5307 -0.2311 -0.7804
 8862SOL    HW233702   9.230   0.687   0.557  0.0414 -0.5270 -0.6932
 8863SOL     OW33703   8.184   5.392   0.547 -0.1220  0.0261 -0.1926
 8863SOL    HW133704   8.101   5.425   0.583  0.8426  1.0488  1.2186
 8863SOL    HW233705   8.222   5.467   0.502  0.1384 -0.3869 -0.6705
 8864SOL     OW33706   8.284   4.796   0.452  0.0428  0.0548  0.9600
 8864SOL    HW133707   8.227   4.848   0.508  0.5727 -0.3783  1.9321
 8864SOL    HW233708   8.241   4.711   0.446  0.2683 -0.0734  1.1674
 8865SOL     OW33709   6.340   0.497   3.454 -0.0380 -0.0938 -0.0201
 8865SOL    HW133710   6.341   0.585   3.416  2.7581  0.3301  0.7924
 8865SOL    HW233711   6.414   0.452   3.414  0.1603 -1.1963  1.4787
 8866SOL     OW33712  11.410  11.662   6.152 -0.8969 -0.3087  0.6587
 8866SOL    HW133713  11.476  11.593   6.154  0.8346  1.2382  0.0060
 8866SOL    HW233714  11.441  11.727   6.215 -0.4877  1.5190 -1.2890
 8867SOL     OW33715   4.428  12.780   8.294  0.0470  0.6024 -0.4055
 8867SOL    HW133716   4.470  12.754   8.212 -0.0288  3.2348 -1.3815
 8867SOL    HW233717   4.495  12.831   8.339 -0.4025  0.4150  0.4939
 8868SOL     OW33718   1.800   8.795   6.669  0.4248 -0.6571 -0.4317
 8868SOL    HW133719   1.782   8.757   6.583  0.7853  0.8368 -1.1986
 8868SOL    HW233720   1.758   8.881   6.666  0.5715 -0.5257  0.8391
 8869SOL     OW33721   9.150   8.294   0.045 -0.0028 -0.1906  0.3241
 8869SOL    HW133722   9.170   8.366   0.105  2.0136 -0.1971 -0.2747
 8869SOL    HW233723   9.065   8.317   0.008 -0.6956  0.4582  2.1949
 8870SOL     OW33724   0.220   3.907  12.071  0.3774 -0.1779 -0.4016
 8870SOL    HW133725   0.221   3.918  12.166 -0.3632 -0.1035 -0.3968
 8870SOL    HW233726   0.208   3.813  12.058  0.0421 -0.1337 -0.4176
 8871SOL     OW33727  10.572   1.114   8.037  0.4350 -0.1616  0.4185
 8871SOL    HW133728  10.601   1.197   8.073  0.1140  0.3824 -0.5482
 8871SOL    HW233729  10.507   1.082   8.099 -0.3355  0.8981  0.1758
 8872SOL     OW33730   1.623   2.617  12.127  0.7189  0.5425  0.3218
 8872SOL    HW133731   1.704   2.622  12.075  0.5109  2.3841  0.1062
 8872SOL    HW233732   1.561   2.572  12.069  0.5317  2.4314 -1.0526
 8873SOL     OW33733  12.102  10.506   4.260  0.0633 -0.3528 -0.2259
 8873SOL    HW133734  12.114  10.416   4.228 -0.7408 -0.1227 -1.2541
 8873SOL    HW233735  12.009  10.511   4.282  0.4713 -0.3002  1.6256
 8874SOL     OW33736   0.329  11.747   4.590  0.0601 -0.1076 -0.0848
 8874SOL    HW133737   0.388  11.682   4.552 -1.2861 -0.3997 -1.7837
 8874SOL    HW233738   0.293  11.705   4.668  0.6803 -0.6171 -0.0676
 8875SOL     OW33739   2.619   1.892   6.269  0.3015 -0.8616 -0.0092
 8875SOL    HW133740   2.627   1.949   6.193  1.3952 -2.2639 -1.0008
 8875SOL    HW233741   2.621   1.803   6.233 -0.0776 -1.5637  1.5890
 8876SOL     OW33742   3.849   8.953   4.480 -0.2565  0.2056  0.4656
 8876SOL    HW133743   3.843   9.016   4.408  1.0839  0.6646  0.7252
 8876SOL    HW233744   3.765   8.959   4.524 -0.6515  0.7973 -0.3506
 8877SOL     OW33745   8.220   1.854   3.650 -0.4702 -0.3215 -0.6022
 8877SOL    HW133746   8.291   1.881   3.593 -1.1604 -0.3305 -1.4881
 8877SOL    HW233747   8.254   1.778   3.697  0.2401 -0.0784 -0.7164
 8878SOL     OW33748   4.904  10.063   4.097  0.3423 -0.3463 -0.1010
 8878SOL    HW133749   4.955  10.052   4.017  0.3443 -0.0592 -0.1407
 8878SOL    HW233750   4.962  10.111   4.157 -0.1777  0.7745 -0.4602
 8879SOL     OW33751  12.585   5.719  11.421 -0.0039  0.2893  0.0085
 8879SOL    HW133752  12.520   5.649  11.414 -0.1362  0.5564 -4.0848
 8879SOL    HW233753  12.533   5.800  11.421  0.2510  0.4572 -0.4846
 8880SOL     OW33754   3.423   5.503  10.003 -0.4590  0.4490 -0.2707
 8880SOL    HW133755   3.332   5.513  10.032 -0.0459  1.9554  0.6172
 8880SOL    HW233756   3.455   5.592   9.994  0.8596 -0.0592 -0.8320
 8881SOL     OW33757   2.817   1.162   1.897  0.0334 -0.1572 -0.3924
 8881SOL    HW133758   2.743   1.218   1.918  0.3194  0.9385 -2.0672
 8881SOL    HW233759   2.858   1.204   1.820  1.0610 -1.9333 -0.8806
 8882SOL     OW33760  12.467   3.161   0.070  0.0813 -0.3199  0.3893
 8882SOL    HW133761  12.561   3.161   0.084  0.3543  1.4693 -1.0688
 8882SOL    HW233762  12.441   3.252   0.079 -1.6258 -0.8468  1.2538
 8883SOL     OW33763   8.532   3.856   1.179 -0.0518 -0.0694 -0.5359
 8883SOL    HW133764   8.514   3.933   1.124 -0.3574  0.1381 -0.1493
 8883SOL    HW233765   8.537   3.783   1.118 -0.4938  0.1440 -0.8319
 8884SOL     OW33766   4.004   6.887   8.467 -0.3016  0.4410  0.1362
 8884SOL    HW133767   3.979   6.837   8.545 -0.0538  1.1258  0.6715
 8884SOL    HW233768   4.070   6.832   8.424 -0.1758  0.2149  0.6061
 8885SOL     OW33769   2.428   7.260  10.910  0.3581  0.0668 -0.3216
 8885SOL    HW133770   2.523   7.271  10.917  0.2557  0.0527  2.4002
 8885SOL    HW233771   2.395   7.350  10.907  0.4495  0.1004 -3.3886
 8886SOL     OW33772   2.950   7.628  12.741  0.4105 -0.0565  0.1680
 8886SOL    HW133773   2.910   7.637  12.827  0.3681 -0.2128  0.1650
 8886SOL    HW233774   3.004   7.707  12.731  0.0943  0.1599  0.1665
 8887SOL     OW33775   8.228  12.748   1.565  0.2494 -0.3435 -0.4601
 8887SOL    HW133776   8.144  12.794   1.562  0.1162 -0.5157  0.4251
 8887SOL    HW233777   8.206  12.656   1.551  0.3838 -0.3059 -0.9673
 8888SOL     OW33778   5.621   0.955   3.493 -0.3079  0.3130  0.4806
 8888SOL    HW133779   5.622   0.860   3.509 -1.1557  0.2167  0.0194
 8888SOL    HW233780   5.600   0.993   3.578  1.6648  0.2038  1.0611
 8889SOL     OW33781   3.748   8.144   4.190  0.0392  0.2667  0.1160
 8889SOL    HW133782   3.680   8.126   4.255 -0.1043  2.0753  0.5314
 8889SOL    HW233783   3.721   8.226   4.149  0.5110 -0.4438 -1.7494
 8890SOL     OW33784   4.237   0.010  10.964 -0.4451  0.2551 -0.1085
 8890SOL    HW133785   4.201  -0.071  10.929  0.0296 -0.1617  0.3474
 8890SOL    HW233786   4.185   0.079  10.924 -0.2173 -0.2283 -1.2603
 8891SOL     OW33787   0.248   2.659   0.721  0.2548  0.2250 -0.5443
 8891SOL    HW133788   0.265   2.720   0.794  1.6490  0.6850 -1.2310
 8891SOL    HW233789   0.244   2.573   0.763 -1.2085  0.6866  0.3685
 8892SOL     OW33790   6.852   1.110  12.057  0.0049  0.1361  0.1424
 8892SOL    HW133791   6.877   1.017  12.060 -0.9381 -0.1912 -1.2983
 8892SOL    HW233792   6.835   1.127  11.965  2.1718  2.3156  0.0507
 8893SOL     OW33793   6.719   8.938   6.178 -0.6639 -0.0826 -0.0454
 8893SOL    HW133794   6.720   8.909   6.087 -0.1835  0.8673 -0.3523
 8893SOL    HW233795   6.647   8.889   6.218 -0.0367 -1.5156 -0.5880
 8894SOL     OW33796   9.283   0.133  12.285 -0.2151 -0.3768  0.6893
 8894SOL    HW133797   9.314   0.087  12.363  0.8015 -0.9757 -0.0459
 8894SOL    HW233798   9.292   0.069  12.214 -0.4408  0.3864 -0.0479
 8895SOL     OW33799  11.568  10.795   6.748 -0.7592  0.2913 -0.1440
 8895SOL    HW133800  11.598  10.804   6.658  0.1027 -1.3188 -0.0537
 8895SOL    HW233801  11.635  10.742   6.791 -1.4582  0.5127  1.2936
 8896SOL     OW33802   3.228  11.620   7.320 -0.1491 -0.7740 -0.0326
 8896SOL    HW133803   3.156  11.587   7.266 -0.3678 -0.6142  0.1608
 8896SOL    HW233804   3.213  11.714   7.326  0.8725 -0.5042 -1.1766
 8897SOL     OW33805   9.204   9.261   6.362  0.0977 -0.1546 -0.1147
 8897SOL    HW133806   9.183   9.354   6.375  1.2196 -0.1488  2.1573
 8897SOL    HW233807   9.247   9.235   6.443 -0.2677 -2.7137 -0.6668
 8898SOL     OW33808   1.811   2.614  12.464  0.1558 -0.3829 -0.0492
 8898SOL    HW133809   1.739   2.665  12.428 -0.7404 -0.7721  1.1402
 8898SOL    HW233810   1.881   2.622  12.399 -0.2037  1.7463 -0.2512
 8899SOL     OW33811   9.355   4.707  11.403 -0.1723  0.1229  0.2374
 8899SOL    HW133812   9.426   4.658  11.363  0.4159  1.3730 -0.3180
 8899SOL    HW233813   9.276   4.679  11.355  0.1203 -0.3872  0.0478
 8900SOL     OW33814   0.083  11.982   9.964 -0.4798  0.0362  0.3907
 8900SOL    HW133815   0.022  12.025   9.904 -2.2891 -2.0119  0.6105
 8900SOL    HW233816   0.031  11.910  10.002  2.0644 -1.7784  0.6597
 8901SOL     OW33817   9.299   3.911   1.681  0.0837  0.1515  0.4060
 8901SOL    HW133818   9.284   3.946   1.769  1.4823 -2.0888  1.6276
 8901SOL    HW233819   9.215   3.872   1.656 -0.7070  1.9360  0.1348
 8902SOL     OW33820   1.820  12.295   1.365  0.3925  0.1298  0.4347
 8902SOL    HW133821   1.767  12.216   1.359  1.0941 -0.3284  0.0923
 8902SOL    HW233822   1.897  12.277   1.312  1.2392  0.4924  1.4889
 8903SOL     OW33823   3.929  11.325   3.189 -0.4650  1.0333 -0.2403
 8903SOL    HW133824   3.938  11.256   3.124 -1.0220  1.0820 -0.3736
 8903SOL    HW233825   4.019  11.343   3.217 -0.2773  0.5727 -0.5306
 8904SOL     OW33826   5.744  12.671   5.992  0.1468 -0.2935 -0.5480
 8904SOL    HW133827   5.691  12.717   5.927  0.3759 -0.5713 -0.9326
 8904SOL    HW233828   5.742  12.579   5.965  0.3860 -0.3850 -0.2645
 8905SOL     OW33829   4.913  12.568   8.057 -0.2867  0.4125  0.3801
 8905SOL    HW133830   4.992  12.586   8.007  0.4342  0.8097  1.6137
 8905SOL    HW233831   4.929  12.482   8.096 -0.5055  0.4502  0.5539
 8906SOL     OW33832   1.715   8.751  12.213 -0.4398 -0.1817  0.3951
 8906SOL    HW133833   1.700   8.728  12.304 -0.4667  0.4834  0.5675
 8906SOL    HW233834   1.688   8.843  12.207  1.0778  0.2666  0.0968
 8907SOL     OW33835  10.262   5.870   1.362 -0.9788 -0.3386 -0.4230
 8907SOL    HW133836  10.288   5.950   1.408 -1.4348 -0.1280 -0.5275
 8907SOL    HW233837  10.323   5.864   1.288 -0.5735 -0.4012 -0.0862
 8908SOL     OW33838   1.308   6.646   5.477  0.1863 -0.0010 -0.0259
 8908SOL    HW133839   1.343   6.577   5.420  0.6715  1.7822 -1.9910
 8908SOL    HW233840   1.231   6.605   5.519  0.2070 -1.6040 -1.4452
 8909SOL     OW33841   3.701   5.508   0.907 -0.2650 -0.0181 -0.1235
 8909SOL    HW133842   3.632   5.456   0.866 -1.0038  1.7699 -1.2786
 8909SOL    HW233843   3.657   5.590   0.932  0.8145  0.0539  1.7519
 8910SOL     OW33844   4.551   1.127   7.393 -0.6975  0.0859  0.2549
 8910SOL    HW133845   4.513   1.047   7.429 -0.4826 -1.4519 -2.5881
 8910SOL    HW233846   4.493   1.150   7.320  0.4570  1.2666 -0.3403
 8911SOL     OW33847  12.841   1.129  12.840 -0.6959  0.1222 -0.7449
 8911SOL    HW133848  12.825   1.190  12.912  1.1930 -0.4046  0.1713
 8911SOL    HW233849  12.832   1.042  12.879  1.8442 -0.1856 -0.7023
 8912SOL     OW33850   6.104   1.481   6.258  0.4723 -0.1582  0.0056
 8912SOL    HW133851   6.041   1.425   6.302  0.9095  0.3257  1.2756
 8912SOL    HW233852   6.050   1.543   6.208 -0.0535 -2.7507 -2.9624
 8913SOL     OW33853   6.057   9.176   3.610  0.3254 -0.1841 -0.0456
 8913SOL    HW133854   6.100   9.145   3.530  2.4135 -0.7082  1.1818
 8913SOL    HW233855   6.010   9.254   3.583 -3.8705 -3.2714 -2.9803
 8914SOL     OW33856   0.794   3.855   7.393  0.3042  0.3171  0.2964
 8914SOL    HW133857   0.818   3.850   7.486  0.6377  2.5828  0.3784
 8914SOL    HW233858   0.873   3.830   7.346  0.6619  0.8171  0.6272
 8915SOL     OW33859   8.924   3.409   1.006  0.3094  0.9072  0.2524
 8915SOL    HW133860   9.001   3.356   1.026 -0.4253 -0.6987 -0.9266
 8915SOL    HW233861   8.958   3.498   0.996  2.0567  0.1946 -0.4791
 8916SOL     OW33862   5.145   1.657   5.816 -0.2965 -0.9013  0.5310
 8916SOL    HW133863   5.212   1.618   5.760 -0.7683 -1.8226  0.5772
 8916SOL    HW233864   5.114   1.584   5.869 -0.1130 -0.1203  1.7504
 8917SOL     OW33865   7.265  10.544   3.862 -0.3124 -0.2541  1.0201
 8917SOL    HW133866   7.337  10.510   3.916  0.1462  1.6670  1.6956
 8917SOL    HW233867   7.202  10.472   3.858  1.1797 -1.6216  1.2747
 8918SOL     OW33868   4.742   0.080   4.088 -0.1966 -0.1554  0.1747
 8918SOL    HW133869   4.657   0.057   4.127  0.0485 -1.3843  0.0329
 8918SOL    HW233870   4.729   0.168   4.053 -1.7685 -0.7279 -0.7894
 8919SOL     OW33871   9.788  11.151   1.722  0.0192  0.3713  0.1900
 8919SOL    HW133872   9.754  11.155   1.811  0.4680  0.7857  0.3460
 8919SOL    HW233873   9.820  11.061   1.712 -1.9187 -0.3275 -0.2669
 8920SOL     OW33874   9.814   3.380   2.064  0.0525  0.4523  0.3646
 8920SOL    HW133875   9.837   3.461   2.017 -0.3757  0.3517 -0.0221
 8920SOL    HW233876   9.760   3.409   2.137  1.0978  0.6575  1.0839
 8921SOL     OW33877   1.794   7.396   5.462 -0.0462  0.1961 -0.3193
 8921SOL    HW133878   1.850   7.372   5.536  0.2023  0.4783 -0.4150
 8921SOL    HW233879   1.854   7.428   5.396 -0.3445  0.7526 -0.3241
 8922SOL     OW33880   1.142  12.655   9.935 -0.8677 -0.1186 -0.2984
 8922SOL    HW133881   1.129  12.733   9.880 -0.4177 -0.2774 -0.6334
 8922SOL    HW233882   1.171  12.691  10.019 -0.7901  0.0859 -0.4094
 8923SOL     OW33883   6.258   7.137   3.498  0.0195  0.3375  0.1118
 8923SOL    HW133884   6.312   7.058   3.510  0.5031  0.4078 -1.3205
 8923SOL    HW233885   6.254   7.177   3.585  0.4662 -0.8219  0.6952
 8924SOL     OW33886   7.457   3.923   8.627 -0.1334 -0.2130 -0.7804
 8924SOL    HW133887   7.414   3.992   8.577  1.8529  0.9770 -0.9397
 8924SOL    HW233888   7.539   3.906   8.580  1.2159  0.0478  1.3305
 8925SOL     OW33889   1.593   8.899   2.958  0.3731 -0.9166  0.8315
 8925SOL    HW133890   1.600   8.991   2.982 -0.3335 -0.9323  1.1257
 8925SOL    HW233891   1.599   8.851   3.040  1.0879 -1.1585  0.6436
 8926SOL     OW33892  11.764   3.174   4.821  0.1102  0.5443 -0.3308
 8926SOL    HW133893  11.687   3.172   4.879 -1.6456  1.5191 -2.4866
 8926SOL    HW233894  11.819   3.244   4.857  0.3594 -0.5595  1.5947
 8927SOL     OW33895  10.360   7.320  11.798 -0.2358  0.3555 -0.4206
 8927SOL    HW133896  10.344   7.399  11.850 -3.9741 -0.2679 -0.3604
 8927SOL    HW233897  10.360   7.249  11.862 -0.9715 -0.0576 -0.8729
 8928SOL     OW33898   0.875   8.848   4.590  0.6496 -0.0854  0.1912
 8928SOL    HW133899   0.915   8.773   4.633 -0.1699 -0.5858  0.1175
 8928SOL    HW233900   0.810   8.809   4.531  0.2866  0.6753  0.0761
 8929SOL     OW33901   8.146   9.171   2.427  0.1664  0.0682 -0.0723
 8929SOL    HW133902   8.166   9.219   2.347  0.5011  0.4680  0.2487
 8929SOL    HW233903   8.178   9.227   2.498  0.5586 -0.6273  0.3051
 8930SOL     OW33904   1.855   9.244  12.138 -0.2924  0.4399 -0.3485
 8930SOL    HW133905   1.807   9.312  12.186  1.7941  1.2634  0.7194
 8930SOL    HW233906   1.942   9.283  12.123  0.3065 -1.2431 -1.5125
 8931SOL     OW33907   1.254   0.240  11.089 -0.5471 -0.0743  0.0807
 8931SOL    HW133908   1.174   0.197  11.059 -0.9889  2.2844 -2.5494
 8931SOL    HW233909   1.323   0.203  11.034 -0.0372 -0.9912  1.2939
 8932SOL     OW33910   9.204  12.627   1.590 -0.2107 -0.5277  0.2694
 8932SOL    HW133911   9.136  12.568   1.623 -0.9845 -0.9777 -1.9363
 8932SOL    HW233912   9.171  12.656   1.505  0.8640  1.8959  0.5738
 8933SOL     OW33913   3.349  11.548   9.434  0.6069  0.0594  0.2712
 8933SOL    HW133914   3.382  11.504   9.356  0.3850 -0.7822  0.6351
 8933SOL    HW233915   3.297  11.481   9.479 -0.1122  0.8257  0.6225
 8934SOL     OW33916   4.476  10.206   7.381 -0.2523  0.1023 -0.1068
 8934SOL    HW133917   4.509  10.273   7.321  1.8105 -0.3830  0.4023
 8934SOL    HW233918   4.443  10.136   7.324  0.7520  0.0868 -0.6808
 8935SOL     OW33919  11.350  11.261   3.473 -0.2574  0.3375  0.2723
 8935SOL    HW133920  11.425  11.312   3.502 -0.6946  0.5520  1.0624
 8935SOL    HW233921  11.275  11.301   3.518 -0.5550 -1.2882  1.2862
 8936SOL     OW33922   4.224  12.151   2.597  0.1700 -0.1359  0.4470
 8936SOL    HW133923   4.185  12.175   2.512 -0.1054  2.1126  1.1375
 8936SOL    HW233924   4.285  12.222   2.616  0.3806 -0.7054  2.0354
 8937SOL     OW33925   6.639  10.590   8.147  0.1726  0.0245 -0.9685
 8937SOL    HW133926   6.628  10.665   8.206 -0.0578 -1.6566  1.2659
 8937SOL    HW233927   6.573  10.602   8.079 -0.9272  1.0649  0.2312
 8938SOL     OW33928   0.755   8.207   7.624  0.5921 -0.1921 -0.7107
 8938SOL    HW133929   0.790   8.193   7.712  1.3117 -0.1669 -0.9844
 8938SOL    HW233930   0.815   8.269   7.583  0.0424  0.1007 -1.0912
 8939SOL     OW33931   8.004   5.180   5.581 -0.2039 -0.7291  0.3260
 8939SOL    HW133932   7.949   5.136   5.646  0.0197  0.1778  1.1452
 8939SOL    HW233933   7.980   5.272   5.587  0.5764 -0.4861 -0.1276
 8940SOL     OW33934   4.133   2.562   3.889  0.0769 -0.0017 -0.5034
 8940SOL    HW133935   4.145   2.474   3.853  0.4491 -0.8900  1.6193
 8940SOL    HW233936   4.212   2.609   3.865 -0.7020  0.2330 -2.8212
 8941SOL     OW33937  11.987  10.355   1.061  0.3034 -0.5973 -0.5174
 8941SOL    HW133938  12.044  10.302   1.005  0.1264  0.2484 -1.5187
 8941SOL    HW233939  11.906  10.304   1.066  1.0022 -1.6731  0.6932
 8942SOL     OW33940   7.323  10.468   7.139  0.2384 -0.3165 -0.1358
 8942SOL    HW133941   7.384  10.430   7.076 -0.6090 -0.1743 -1.0553
 8942SOL    HW233942   7.253  10.505   7.086 -0.0736  0.5629  0.8474
 8943SOL     OW33943   2.106   1.784   2.974 -0.2051  0.2532 -0.0652
 8943SOL    HW133944   2.188   1.768   3.019  0.1080 -0.1261 -0.7459
 8943SOL    HW233945   2.052   1.831   3.037  0.4778  0.3716  0.4376
 8944SOL     OW33946   1.490   6.781   0.153  0.0726  0.0373  0.0978
 8944SOL    HW133947   1.483   6.766   0.059  0.2810  1.3885 -0.1598
 8944SOL    HW233948   1.462   6.872   0.164 -0.4198 -0.2509  1.4116
 8945SOL     OW33949   8.710   0.591   9.145  0.2205 -0.0935 -0.1923
 8945SOL    HW133950   8.700   0.574   9.238  1.0140 -0.1365 -0.1020
 8945SOL    HW233951   8.801   0.564   9.126 -0.1888 -0.8844 -1.1439
 8946SOL     OW33952   1.879   7.663   7.494 -0.6693 -0.3143 -0.1496
 8946SOL    HW133953   1.799   7.711   7.518 -0.6376 -0.2129 -0.2465
 8946SOL    HW233954   1.866   7.638   7.403 -0.6609 -0.4421 -0.1159
 8947SOL     OW33955  11.389   3.549   2.531 -0.2796  0.5209  0.0929
 8947SOL    HW133956  11.442   3.470   2.540  1.7306  1.7215 -0.4450
 8947SOL    HW233957  11.367   3.573   2.621  2.0969  1.2151  0.5533
 8948SOL     OW33958   7.429   0.178   4.735 -0.1498 -0.0969  0.2529
 8948SOL    HW133959   7.523   0.187   4.748 -0.2654  0.1995  0.8946
 8948SOL    HW233960   7.390   0.232   4.803 -0.7809  0.5810 -0.6316
 8949SOL     OW33961  11.036   3.022   0.680 -0.5113  0.4662 -0.8186
 8949SOL    HW133962  11.089   3.031   0.601  1.6584  1.2438  0.6358
 8949SOL    HW233963  11.063   2.938   0.717 -1.4024  0.1799 -0.7951
 8950SOL     OW33964   3.365   3.277   5.039  0.4636 -0.6346  0.2298
 8950SOL    HW133965   3.449   3.321   5.030  0.1279 -0.2460 -1.1171
 8950SOL    HW233966   3.385   3.184   5.028  0.5106 -0.4206 -1.7962
 8951SOL     OW33967   9.005   2.342   4.918  0.4530 -0.3342  0.5902
 8951SOL    HW133968   9.042   2.389   4.844  0.0068 -0.6378  0.1698
 8951SOL    HW233969   9.057   2.371   4.993  0.8847 -0.0000  0.1686
 8952SOL     OW33970   9.316   3.700  10.928 -0.3328  0.7716  0.1034
 8952SOL    HW133971   9.282   3.784  10.960 -2.2366  0.6296 -1.3225
 8952SOL    HW233972   9.390   3.723  10.873 -1.3150  1.6346 -0.9068
 8953SOL     OW33973  12.531   5.023   3.189 -0.2315  0.5845  0.0811
 8953SOL    HW133974  12.553   5.060   3.274 -1.2136  0.7794  0.2618
 8953SOL    HW233975  12.446   5.061   3.167 -1.4910 -1.7936  0.4482
 8954SOL     OW33976  11.994   2.954  10.508 -0.2497  0.2925 -0.1969
 8954SOL    HW133977  12.008   3.035  10.458 -0.4206 -0.1843 -1.0289
 8954SOL    HW233978  11.952   2.895  10.446  0.6846 -0.7484  0.1340
 8955SOL     OW33979   8.967  11.321  10.599  0.0200  0.4043 -0.0178
 8955SOL    HW133980   8.892  11.371  10.567  0.5702  2.1640  1.2334
 8955SOL    HW233981   9.037  11.338  10.536 -0.5686 -1.2134 -1.1690
 8956SOL     OW33982   2.031   1.307   6.797  0.4754 -0.5759 -0.2202
 8956SOL    HW133983   2.083   1.365   6.741  0.8440  0.4587  1.1536
 8956SOL    HW233984   2.051   1.336   6.886 -1.4915 -0.9844  0.3885
 8957SOL     OW33985   5.699   6.517   7.532  0.9955 -0.1012 -0.7638
 8957SOL    HW133986   5.793   6.534   7.524  1.1731 -0.8498 -0.3108
 8957SOL    HW233987   5.670   6.578   7.599  0.8759  1.1079 -1.8708
 8958SOL     OW33988   7.642   1.045   0.860  0.2935 -0.1072 -0.3160
 8958SOL    HW133989   7.614   1.033   0.770  0.3415 -2.3519 -0.0850
 8958SOL    HW233990   7.561   1.046   0.911  0.3600 -1.6135 -0.1421
 8959SOL     OW33991  12.784   9.113  11.348  0.2889  1.2738 -0.0397
 8959SOL    HW133992  12.806   9.067  11.429 -1.1703  0.0504 -0.3087
 8959SOL    HW233993  12.712   9.172  11.373 -0.6129  0.4204 -0.5538
 8960SOL     OW33994  11.620   3.054   4.624  0.0278  0.7133 -0.3946
 8960SOL    HW133995  11.536   3.100   4.620  0.5457  1.5893 -1.9372
 8960SOL    HW233996  11.664   3.091   4.701  0.2988  2.6207 -1.4127
 8961SOL     OW33997  10.461  11.969   1.894 -1.3678 -0.1855  0.4270
 8961SOL    HW133998  10.445  11.955   1.987 -0.0752  0.6083  0.7817
 8961SOL    HW233999  10.554  11.951   1.882 -0.7348  2.8105 -0.0471
 8962SOL     OW34000   0.038   0.067  11.950  0.2648 -0.0558 -0.5646
 8962SOL    HW134001   0.125   0.074  11.989 -0.1546  0.4727  0.3444
 8962SOL    HW234002   0.030   0.146  11.896 -0.6985  1.5050  1.6802
 8963SOL     OW34003   6.599   9.726   9.728 -0.2226  0.3489 -0.0461
 8963SOL    HW134004   6.593   9.787   9.655  0.1501  0.9792  0.4471
 8963SOL    HW234005   6.685   9.686   9.720 -0.5826 -0.3558 -0.5471
 8964SOL     OW34006   0.549   0.231  11.447  0.7427  0.5573  0.0194
 8964SOL    HW134007   0.548   0.301  11.513 -0.5797  0.3726  0.2348
 8964SOL    HW234008   0.619   0.172  11.476  0.6400  0.8385  0.8820
 8965SOL     OW34009   4.567   2.091   2.102 -0.0655 -0.2354 -0.9774
 8965SOL    HW134010   4.531   2.120   2.186 -0.7631 -2.4325 -0.4555
 8965SOL    HW234011   4.525   2.148   2.037  1.2665  2.2175  0.1521
 8966SOL     OW34012  11.009   0.783   6.075 -0.4197 -0.6366  0.6599
 8966SOL    HW134013  11.062   0.726   6.020  0.7041  1.8016 -0.9238
 8966SOL    HW234014  11.064   0.859   6.093 -3.3459  2.2804 -1.4649
 8967SOL     OW34015   3.477   8.388   2.227  0.0449  0.3984  0.1520
 8967SOL    HW134016   3.442   8.423   2.309  0.9919 -0.9194  1.1709
 8967SOL    HW234017   3.485   8.294   2.242 -0.5037  0.0013 -1.7573
 8968SOL     OW34018   1.626   4.898   0.236  0.1150  0.1310 -0.0210
 8968SOL    HW134019   1.632   4.992   0.220 -0.6251  0.0763 -0.6348
 8968SOL    HW234020   1.565   4.866   0.170 -2.5245 -0.2120  2.4196
 8969SOL     OW34021   5.264   3.984   6.397 -0.5366 -0.1384  0.6613
 8969SOL    HW134022   5.319   3.926   6.450  0.5548  0.7602  0.5508
 8969SOL    HW234023   5.209   3.925   6.346 -0.8143 -1.0374  1.9509
 8970SOL     OW34024   5.857  11.484  10.385  0.4257  0.1852 -0.0518
 8970SOL    HW134025   5.907  11.421  10.333 -0.5816 -0.4966 -0.2263
 8970SOL    HW234026   5.774  11.494  10.338  0.7639  2.0538 -0.2983
 8971SOL     OW34027  12.667  12.008   3.450  0.1668  0.2947 -0.2538
 8971SOL    HW134028  12.756  11.978   3.471  0.5036  0.7695 -0.9774
 8971SOL    HW234029  12.621  11.928   3.423  0.9266  0.3053 -1.7110
 8972SOL     OW34030   6.748   0.977   5.326 -0.2718  0.2468  0.4776
 8972SOL    HW134031   6.684   1.045   5.307 -2.0884 -1.4676  0.1060
 8972SOL    HW234032   6.772   0.992   5.417  2.5806  3.8184 -0.6352
 8973SOL     OW34033   5.448   6.646  10.790  0.0804  0.3270 -0.2968
 8973SOL    HW134034   5.524   6.692  10.755 -0.1241  0.3498 -0.7194
 8973SOL    HW234035   5.479   6.559  10.811  0.2082  0.3136 -0.5371
 8974SOL     OW34036   1.632   8.943  10.367  0.1712  0.6719  0.1206
 8974SOL    HW134037   1.690   9.006  10.324 -1.0475  1.4266 -0.4778
 8974SOL    HW234038   1.568   8.919  10.300  0.9082 -1.6689  0.1493
 8975SOL     OW34039   0.546   9.024   1.591 -0.0267 -0.2143 -0.3505
 8975SOL    HW134040   0.478   8.994   1.652  0.2214 -0.0487  0.0096
 8975SOL    HW234041   0.628   8.989   1.627  0.7334  3.3143  1.7962
 8976SOL     OW34042   5.174  11.251   0.786  0.4234  0.3807 -0.4430
 8976SOL    HW134043   5.248  11.275   0.841  0.7923 -0.9039 -0.3309
 8976SOL    HW234044   5.143  11.168   0.822  0.3821 -0.2667 -1.8704
 8977SOL     OW34045   2.099   5.198   2.556 -0.0826 -0.2326  0.4452
 8977SOL    HW134046   2.116   5.160   2.642 -0.0158  1.0055  0.9919
 8977SOL    HW234047   2.004   5.189   2.545 -0.4084  1.4623  1.5715
 8978SOL     OW34048   8.818   2.726   4.799  0.1271 -0.3526 -0.2647
 8978SOL    HW134049   8.909   2.708   4.776 -0.1688  1.1360 -2.9802
 8978SOL    HW234050   8.777   2.639   4.804  1.5707 -1.0188  0.6585
 8979SOL     OW34051   9.127   5.297   2.961 -0.0587  0.2543  0.3047
 8979SOL    HW134052   9.159   5.209   2.981 -0.1308 -0.4447 -2.3877
 8979SOL    HW234053   9.206   5.351   2.960  0.4349 -0.4462 -1.1869
 8980SOL     OW34054  12.611   8.295   8.729 -0.0556 -0.3587 -0.3436
 8980SOL    HW134055  12.580   8.354   8.798  0.7726 -0.4004  0.0762
 8980SOL    HW234056  12.685   8.249   8.769  1.3858  0.6744 -1.7603
 8981SOL     OW34057   6.746   5.059  11.084  0.0219  0.3472  0.2510
 8981SOL    HW134058   6.806   5.133  11.088  2.7303 -1.4653 -2.2725
 8981SOL    HW234059   6.775   5.001  11.155 -1.0042  0.9170  1.1605
 8982SOL     OW34060   9.085   4.264   3.876 -0.2246  0.2997  0.1659
 8982SOL    HW134061   9.105   4.246   3.784 -0.2966  0.4078  0.1294
 8982SOL    HW234062   9.156   4.221   3.925 -1.2104 -1.4219  0.1661
 8983SOL     OW34063  12.189  10.429   2.747  0.1365 -0.3121 -0.3520
 8983SOL    HW134064  12.128  10.404   2.816 -0.9943  1.0473 -0.8187
 8983SOL    HW234065  12.139  10.420   2.666  0.4492  1.0676 -0.7246
 8984SOL     OW34066   3.928   1.190   2.024 -0.1963 -0.8965  0.1068
 8984SOL    HW134067   3.928   1.271   2.075  0.4908 -0.8224 -0.0025
 8984SOL    HW234068   4.008   1.194   1.972 -0.3992 -1.4256 -0.2564
 8985SOL     OW34069   5.126   4.545   6.873  0.1309 -0.5099 -0.6097
 8985SOL    HW134070   5.092   4.459   6.849  0.4704 -0.3250 -1.8051
 8985SOL    HW234071   5.116   4.598   6.794 -2.2387  1.2664  0.7485
 8986SOL     OW34072   2.219   6.012  11.290  0.1413  0.7790  0.2286
 8986SOL    HW134073   2.168   5.972  11.220  1.9897  0.3224 -0.9358
 8986SOL    HW234074   2.213   5.951  11.363 -0.1795  0.2701 -0.2156
 8987SOL     OW34075   6.934   9.870   0.532 -0.1473  0.2237  0.5474
 8987SOL    HW134076   6.879   9.836   0.461 -0.8416 -0.3798  1.3457
 8987SOL    HW234077   7.005   9.806   0.540  0.2824  0.6276 -0.0170
 8988SOL     OW34078   9.154   5.852   3.283 -0.0080  0.5761 -0.5678
 8988SOL    HW134079   9.192   5.814   3.204  0.6813  0.9614 -0.4327
 8988SOL    HW234080   9.216   5.830   3.353 -0.0906  1.1107 -0.3188
 8989SOL     OW34081   3.648   3.070   9.869 -0.2281  0.1140  0.1942
 8989SOL    HW134082   3.606   3.055   9.785 -0.1364 -0.7757  0.2985
 8989SOL    HW234083   3.625   2.993   9.922  0.2648  0.3417  0.7564
 8990SOL     OW34084  10.889   2.845   6.614 -0.2043 -0.2950 -0.4861
 8990SOL    HW134085  10.838   2.918   6.578 -2.2186 -0.6157  1.4885
 8990SOL    HW234086  10.851   2.767   6.574 -0.8694 -0.4863  0.4690
 8991SOL     OW34087  10.285   9.349  12.894 -0.5164 -0.4690 -0.1697
 8991SOL    HW134088  10.249   9.417  12.951  0.2351  1.2283 -1.6119
 8991SOL    HW234089  10.212   9.323  12.839 -0.3412  0.7366 -1.0151
 8992SOL     OW34090   1.808   7.100   9.984 -0.3641  0.7333 -0.3395
 8992SOL    HW134091   1.713   7.113   9.982 -0.4316  0.4613  0.5198
 8992SOL    HW234092   1.841   7.149   9.909 -1.1857  0.8229 -0.6500
 8993SOL     OW34093   8.823   8.372   3.199  0.3894 -0.1261  0.7089
 8993SOL    HW134094   8.817   8.291   3.149  3.3921 -0.3063  0.4313
 8993SOL    HW234095   8.821   8.344   3.290  1.0390 -0.5117  0.6139
 8994SOL     OW34096   4.657  10.030   7.892 -0.6074 -0.1464 -0.0720
 8994SOL    HW134097   4.619  10.032   7.980 -3.6029  1.0214 -1.2301
 8994SOL    HW234098   4.679   9.938   7.877 -1.1601 -0.5573  1.4754
 8995SOL     OW34099   1.980   8.484   8.577 -0.3448 -0.5650 -0.1610
 8995SOL    HW134100   2.039   8.482   8.502  0.5852  0.7318  0.4819
 8995SOL    HW234101   1.949   8.394   8.587  0.9532 -1.1190 -0.9793
 8996SOL     OW34102   7.997   8.470  11.945 -0.0658 -0.5691 -0.5567
 8996SOL    HW134103   7.999   8.411  11.870  0.8237  0.3384 -1.2660
 8996SOL    HW234104   7.915   8.519  11.936 -0.7194 -1.5435 -0.0633
 8997SOL     OW34105   8.822  10.291   5.386 -0.1661 -0.5817 -0.0571
 8997SOL    HW134106   8.895  10.346   5.413 -0.8169  0.6482 -0.7062
 8997SOL    HW234107   8.840  10.269   5.295 -0.0418 -1.2499  0.1211
 8998SOL     OW34108   6.732   6.021   2.649  0.4224  0.7084  0.3734
 8998SOL    HW134109   6.748   5.961   2.576 -1.0455 -0.7210  1.1723
 8998SOL    HW234110   6.806   6.082   2.647  1.0784 -0.0890 -1.4983
 8999SOL     OW34111   2.520   7.835   5.099  0.3397 -0.1659 -0.7049
 8999SOL    HW134112   2.590   7.869   5.045  0.7927 -1.7084 -1.1588
 8999SOL    HW234113   2.550   7.747   5.124 -0.7196 -0.2307  0.4296
 9000SOL     OW34114   0.628   9.616   0.126  0.3278  0.3339 -0.1321
 9000SOL    HW134115   0.604   9.707   0.109  0.8368  0.3463 -0.7987
 9000SOL    HW234116   0.720   9.610   0.100  0.3663 -0.3169  0.1312
 9001SOL     OW34117   2.248   0.865  10.088  0.7649  0.9333  0.7849
 9001SOL    HW134118   2.243   0.900   9.999  0.1355  1.2197  0.9271
 9001SOL    HW234119   2.323   0.806  10.087 -0.3514 -0.5372 -0.4521
 9002SOL     OW34120   5.312   7.628   2.132  0.4423  0.0854  0.1508
 9002SOL    HW134121   5.368   7.571   2.079  0.5296 -0.5344  0.8873
 9002SOL    HW234122   5.292   7.576   2.210 -1.7126  0.0380 -0.3962
 9003SOL     OW34123   4.024   4.348   8.148  0.1084  0.2734  0.0479
 9003SOL    HW134124   4.064   4.313   8.068  0.1145  1.0621 -0.2972
 9003SOL    HW234125   4.099   4.364   8.206  0.1102 -0.2285  0.1926
 9004SOL     OW34126  11.176   4.353  10.960 -0.0630 -0.4085 -0.0373
 9004SOL    HW134127  11.261   4.348  11.004  0.0587 -0.8300 -0.3115
 9004SOL    HW234128  11.187   4.300  10.881 -0.3195  0.2274 -0.5103
 9005SOL     OW34129   7.439  11.982   0.019 -0.8032 -0.9369  0.2008
 9005SOL    HW134130   7.461  11.954   0.108  0.4874  1.7887  0.8542
 9005SOL    HW234131   7.379  12.056   0.031  1.0654  0.8881 -1.0328
 9006SOL     OW34132   9.856  10.425   3.939  0.3627  0.2134  0.0378
 9006SOL    HW134133   9.843  10.376   4.020  3.2323 -0.1278  0.4083
 9006SOL    HW234134   9.803  10.380   3.874 -1.2806 -0.0579  1.4956
 9007SOL     OW34135   7.985  10.652   1.974 -0.3160 -0.2634  0.0533
 9007SOL    HW134136   7.910  10.640   1.916 -0.2267  0.2273 -0.1673
 9007SOL    HW234137   7.977  10.742   2.006  0.4030 -0.0681 -0.2971
 9008SOL     OW34138   8.409  10.686   7.553 -0.4409 -0.2293  0.5718
 9008SOL    HW134139   8.352  10.621   7.512  0.3991 -1.0435  0.6807
 9008SOL    HW234140   8.349  10.741   7.604 -1.1627 -0.8949  0.4600
 9009SOL     OW34141   6.702   3.212  10.917 -0.1861  0.5435 -0.2786
 9009SOL    HW134142   6.636   3.149  10.944 -1.0537  1.0222 -1.2225
 9009SOL    HW234143   6.710   3.199  10.822 -0.7173  2.1429 -0.5770
 9010SOL     OW34144   9.343   9.578   3.279  0.6335  0.0035  0.1084
 9010SOL    HW134145   9.309   9.492   3.304  2.0925 -0.8625 -0.7248
 9010SOL    HW234146   9.267   9.636   3.285 -1.2711 -1.9522 -2.5525
 9011SOL     OW34147   6.033   0.960   9.270 -0.8398 -0.6064 -0.0379
 9011SOL    HW134148   5.975   0.926   9.202 -2.1709 -0.5942  1.0405
 9011SOL    HW234149   6.060   1.046   9.237 -1.7360 -0.4513 -0.4209
 9012SOL     OW34150   7.992   0.502   9.680  0.1373 -0.2820 -0.2394
 9012SOL    HW134151   7.952   0.587   9.657  0.7475 -0.4166 -1.8691
 9012SOL    HW234152   7.922   0.438   9.664  0.3798 -0.3140 -1.1968
 9013SOL     OW34153   1.120   4.192   2.256  0.2146 -0.2901  0.6032
 9013SOL    HW134154   1.163   4.109   2.235  0.2693 -0.3130  0.8074
 9013SOL    HW234155   1.097   4.229   2.170  1.3232  0.0825  0.4454
 9014SOL     OW34156   5.093   6.803   9.028  0.1914 -0.4145 -0.3706
 9014SOL    HW134157   5.166   6.862   9.045  1.1812 -1.4295 -0.9578
 9014SOL    HW234158   5.035   6.851   8.970  0.2205  0.5247  0.3573
 9015SOL     OW34159   1.201  11.829   4.903  0.5262 -0.5116  0.4538
 9015SOL    HW134160   1.123  11.775   4.891  1.0006 -1.4928  1.5201
 9015SOL    HW234161   1.273  11.776   4.868  0.7307  0.4003 -0.5597
 9016SOL     OW34162   9.284  12.278  10.004  0.1481  0.4263 -0.2801
 9016SOL    HW134163   9.313  12.235  10.085  2.1130 -0.4468 -1.3666
 9016SOL    HW234164   9.303  12.371  10.017  1.3147  0.1654 -0.0663
 9017SOL     OW34165   1.045   3.962   8.187  0.2973  0.0196  0.4445
 9017SOL    HW134166   1.075   4.032   8.245  1.0399 -0.9131  1.2203
 9017SOL    HW234167   1.044   4.002   8.100  0.7474  0.9791  0.8686
 9018SOL     OW34168  12.649  10.133  10.241 -0.0682  0.0182 -0.4892
 9018SOL    HW134169  12.651  10.228  10.250 -1.7351  0.1471 -1.0951
 9018SOL    HW234170  12.665  10.118  10.148  0.6806 -0.3367 -0.3098
 9019SOL     OW34171   8.035   8.962   1.357 -0.1811 -0.0204  0.8234
 9019SOL    HW134172   7.955   8.937   1.403 -0.9926  0.5865 -0.2252
 9019SOL    HW234173   8.014   9.046   1.315 -0.1612 -1.4478 -2.2968
 9020SOL     OW34174   6.977  12.877  12.666  0.2207  0.1898  0.0567
 9020SOL    HW134175   7.006  12.958  12.624  0.9383  0.5205  1.1459
 9020SOL    HW234176   7.038  12.810  12.636  3.4980  1.1648  3.6114
 9021SOL     OW34177  10.619   6.789   6.662  0.5780  0.4450 -0.4991
 9021SOL    HW134178  10.586   6.702   6.638  0.4268  0.6707 -1.1264
 9021SOL    HW234179  10.700   6.798   6.612  1.7476 -0.1876  1.1782
 9022SOL     OW34180   7.714  10.806  11.638  0.1804  0.2820  0.0387
 9022SOL    HW134181   7.778  10.856  11.690  1.0173  0.3844 -1.0650
 9022SOL    HW234182   7.766  10.762  11.571 -0.7592 -0.7435 -0.0401
 9023SOL     OW34183   3.811   7.469  11.088  0.1013 -0.1598  0.2094
 9023SOL    HW134184   3.722   7.466  11.123 -0.4274  0.0188 -1.0713
 9023SOL    HW234185   3.867   7.476  11.165 -1.0049 -0.0261  1.0201
 9024SOL     OW34186   4.997  10.832   6.924  0.1968  0.9028  0.2673
 9024SOL    HW134187   5.030  10.900   6.984  0.4055  1.3014 -0.2885
 9024SOL    HW234188   4.949  10.772   6.981  1.0886  0.8157  0.9676
 9025SOL     OW34189   4.242   3.813   2.177 -0.1865  0.0314  0.0472
 9025SOL    HW134190   4.309   3.766   2.227 -0.2048  0.4741  0.5023
 9025SOL    HW234191   4.170   3.751   2.168 -0.4895  0.1892  1.2408
 9026SOL     OW34192   1.480   3.686  10.398 -0.2491 -0.3975  0.1672
 9026SOL    HW134193   1.562   3.637  10.406 -0.4356 -0.5809  1.1707
 9026SOL    HW234194   1.453   3.702  10.489 -0.9880  0.2296 -0.1484
 9027SOL     OW34195   3.513  12.856  10.793 -0.2473  0.3752  0.3820
 9027SOL    HW134196   3.518  12.888  10.703  3.4198 -0.1312  0.2501
 9027SOL    HW234197   3.527  12.933  10.847  0.4120  0.2468  0.3970
 9028SOL     OW34198   2.976   3.587   2.339 -0.4486  0.6404  0.0460
 9028SOL    HW134199   2.892   3.634   2.344 -0.6134  0.3235  0.2770
 9028SOL    HW234200   2.965   3.527   2.265 -0.5987  0.2686  0.3637
 9029SOL     OW34201   5.348   7.370   0.484 -0.0950 -0.4553  0.4694
 9029SOL    HW134202   5.375   7.362   0.576  0.5479  0.5514  0.3783
 9029SOL    HW234203   5.429   7.388   0.437 -0.6050  0.2953 -0.1238
 9030SOL     OW34204   4.963   9.905   8.051 -0.1948 -0.2684 -0.1212
 9030SOL    HW134205   4.915   9.823   8.059  1.0336 -1.0494 -0.4967
 9030SOL    HW234206   5.055   9.879   8.050  0.1908  1.0522 -1.0487
 9031SOL     OW34207  11.323   4.465  12.856 -0.2014  0.6638  0.1818
 9031SOL    HW134208  11.297   4.431  12.770  1.4934  0.8566 -0.4314
 9031SOL    HW234209  11.418   4.473  12.851  0.1902 -1.2029  2.7579
 9032SOL     OW34210   4.181   5.211   8.392  0.1609  0.1571 -0.2310
 9032SOL    HW134211   4.195   5.117   8.404  0.2075  0.3081  1.0447
 9032SOL    HW234212   4.239   5.235   8.321  1.4799 -0.4641  0.5848
 9033SOL     OW34213   1.618   7.848   7.035  0.4837  0.0302 -0.2177
 9033SOL    HW134214   1.620   7.881   7.125 -2.2400 -0.4419  0.0956
 9033SOL    HW234215   1.547   7.897   6.993  0.7920 -0.7366 -1.7125
 9034SOL     OW34216   4.921   3.302   7.536  0.4852 -0.0114  0.7031
 9034SOL    HW134217   4.834   3.298   7.498  0.3998 -0.7864  0.9488
 9034SOL    HW234218   4.939   3.395   7.547  0.9709  0.3178 -2.2057
 9035SOL     OW34219   0.466   2.840   8.918 -0.1158 -0.2417 -0.2654
 9035SOL    HW134220   0.397   2.822   8.982  1.6442 -1.5694  1.3752
 9035SOL    HW234221   0.434   2.801   8.837 -1.9860  0.6344  0.0037
 9036SOL     OW34222   2.583  12.747   9.460 -0.0333 -0.3261 -0.2449
 9036SOL    HW134223   2.503  12.694   9.454  0.9052 -1.8320  0.0911
 9036SOL    HW234224   2.576  12.791   9.545 -0.0089 -1.3171  0.2852
 9037SOL     OW34225   6.073  11.500   0.748  0.0123  0.9395 -0.0739
 9037SOL    HW134226   6.005  11.441   0.780  1.4206 -0.0272  1.2515
 9037SOL    HW234227   6.024  11.577   0.718 -1.6954  0.1167  0.4249
 9038SOL     OW34228   4.444  10.167   1.291  0.0875 -0.2356  0.0662
 9038SOL    HW134229   4.530  10.124   1.293 -0.3241 -1.0732  0.3114
 9038SOL    HW234230   4.431  10.197   1.381  0.3293  0.3301 -0.0817
 9039SOL     OW34231   0.037   9.945   1.072 -0.4461  0.1036  0.5652
 9039SOL    HW134232   0.051   9.964   0.980  1.1933 -1.4572  0.4271
 9039SOL    HW234233   0.096  10.004   1.119 -2.1120  1.7209  0.7581
 9040SOL     OW34234  12.071  12.620   4.518  0.1761  0.0022  0.0276
 9040SOL    HW134235  12.128  12.606   4.594  2.2573  2.3450 -0.9630
 9040SOL    HW234236  12.131  12.623   4.444 -1.5097  0.5361 -1.3558
 9041SOL     OW34237   7.386  11.470   4.589  0.4636 -0.0111  0.5321
 9041SOL    HW134238   7.303  11.516   4.583 -0.3466 -1.1744  2.0470
 9041SOL    HW234239   7.450  11.529   4.549 -1.1769  0.5834 -1.3318
 9042SOL     OW34240   4.649   6.771  12.754 -0.0093 -0.0177  0.2535
 9042SOL    HW134241   4.610   6.698  12.706  0.0922 -0.3418  0.6546
 9042SOL    HW234242   4.616   6.849  12.710 -0.5121 -0.2969  0.1231
 9043SOL     OW34243   5.585   1.931   5.335  0.1980  0.2837 -0.2429
 9043SOL    HW134244   5.537   1.929   5.252  0.4100  1.1639 -0.3938
 9043SOL    HW234245   5.554   2.010   5.379  1.9971  1.2732 -0.6508
 9044SOL     OW34246  11.966   1.640   6.820  0.3666 -0.0077 -0.2439
 9044SOL    HW134247  12.048   1.598   6.848  0.6871  0.3418 -0.6312
 9044SOL    HW234248  11.981   1.733   6.836  0.0989  0.0725 -0.4576
 9045SOL     OW34249   9.189  11.561  10.751 -0.0456 -0.1978 -0.2067
 9045SOL    HW134250   9.234  11.478  10.736  1.8446  1.0955 -2.4040
 9045SOL    HW234251   9.151  11.583  10.666 -1.5426  0.6480  0.6346
 9046SOL     OW34252   9.117   1.881   4.082  0.2250 -0.1360 -0.0007
 9046SOL    HW134253   9.073   1.804   4.118  0.9495 -0.5996 -0.0959
 9046SOL    HW234254   9.083   1.955   4.134  2.3200 -0.9207  2.6800
 9047SOL     OW34255   9.899   8.871   2.132  0.1942  0.5849 -0.4560
 9047SOL    HW134256   9.966   8.859   2.199 -1.2298  0.4255  1.0251
 9047SOL    HW234257   9.919   8.955   2.092  1.1477  0.6457  0.1139
 9048SOL     OW34258   1.767   2.084  11.557  0.0826  0.6077  0.2599
 9048SOL    HW134259   1.722   2.150  11.609 -0.4812  0.5746 -0.1798
 9048SOL    HW234260   1.784   2.013  11.618  1.5577  1.5296  0.9882
 9049SOL     OW34261   1.000   4.449   4.906  0.0817 -0.2754  0.1179
 9049SOL    HW134262   1.018   4.531   4.953  1.1527  1.0777 -2.4220
 9049SOL    HW234263   0.910   4.428   4.928 -0.4577  1.9839  0.3566
 9050SOL     OW34264  11.172   6.878   4.864 -0.0482  0.3176  0.3625
 9050SOL    HW134265  11.181   6.783   4.856  0.3479  0.3417  0.5124
 9050SOL    HW234266  11.120   6.903   4.788  1.5741  0.2352 -0.8175
 9051SOL     OW34267  12.430   3.439  10.017  0.1199 -0.5677 -0.1773
 9051SOL    HW134268  12.496   3.377   9.985  0.8486  0.3175 -0.4005
 9051SOL    HW234269  12.368   3.384  10.065 -0.7598 -1.9200 -2.6284
 9052SOL     OW34270   4.204   4.229   7.993  0.3446 -0.6356  0.0226
 9052SOL    HW134271   4.213   4.137   8.017 -0.0849 -0.5750  0.4351
 9052SOL    HW234272   4.293   4.258   7.974  0.2483 -1.8209 -2.6814
 9053SOL     OW34273   4.922   1.389   0.709  1.0501 -0.7280  0.3054
 9053SOL    HW134274   5.007   1.433   0.713  0.1139  1.1114  1.2244
 9053SOL    HW234275   4.861   1.457   0.682 -0.1822 -1.9567 -0.1020
 9054SOL     OW34276   0.725   2.912   9.414  0.8249 -0.2346 -0.0414
 9054SOL    HW134277   0.737   2.818   9.401 -1.8845 -0.6676  0.0964
 9054SOL    HW234278   0.631   2.924   9.426  0.9717  2.6008 -0.7633
 9055SOL     OW34279   9.739   7.308   9.776 -0.2208  0.5094  0.0160
 9055SOL    HW134280   9.833   7.301   9.794 -0.2756 -0.1206  0.0691
 9055SOL    HW234281   9.698   7.302   9.862 -0.2938  1.1879  0.0336
 9056SOL     OW34282   6.060   9.612   2.815  0.6632 -0.4931  0.3393
 9056SOL    HW134283   6.035   9.621   2.907  1.4630  0.2321  0.5018
 9056SOL    HW234284   6.111   9.691   2.796  1.3183 -1.0806 -0.4569
 9057SOL     OW34285  10.077   6.532   8.389  0.2827 -0.2706  0.2239
 9057SOL    HW134286  10.107   6.512   8.300  0.7872  1.2965  0.0104
 9057SOL    HW234287  10.101   6.454   8.440  1.3098 -0.6059 -0.7177
 9058SOL     OW34288   8.657   5.738  12.090  0.1884  0.5045 -0.0832
 9058SOL    HW134289   8.619   5.824  12.068 -1.1734  0.1053  0.5838
 9058SOL    HW234290   8.664   5.693  12.006 -0.9012  0.5868 -0.2392
 9059SOL     OW34291   0.263   3.601   6.468 -0.5148 -0.5027 -0.1882
 9059SOL    HW134292   0.186   3.655   6.490 -0.4206 -0.0985 -0.8105
 9059SOL    HW234293   0.331   3.664   6.446  0.5242 -0.8114  1.9229
 9060SOL     OW34294   3.674   8.487   5.508 -0.6759 -0.5433 -0.0582
 9060SOL    HW134295   3.631   8.470   5.424 -0.9409 -0.2133  0.0074
 9060SOL    HW234296   3.627   8.563   5.543  0.3772  0.2190 -0.2722
 9061SOL     OW34297   8.732  10.087   8.616  0.8195 -0.0580  0.2038
 9061SOL    HW134298   8.766  10.085   8.527  1.1141 -5.2354  0.1372
 9061SOL    HW234299   8.809  10.078   8.672  0.4027 -1.1286  0.6463
 9062SOL     OW34300   2.203  12.693  10.698  0.1074  0.0928  0.1050
 9062SOL    HW134301   2.184  12.723  10.609  0.8287  0.6600  0.1221
 9062SOL    HW234302   2.225  12.601  10.688  0.5418  0.2394 -0.3621
 9063SOL     OW34303   4.992   5.405   7.669 -0.3978 -0.5515 -0.3704
 9063SOL    HW134304   5.059   5.410   7.737 -0.9969  1.0792  0.1483
 9063SOL    HW234305   4.970   5.312   7.662 -0.5113 -0.7288  1.8545
 9064SOL     OW34306  11.946  11.121   4.869 -0.1510 -0.4318 -0.3874
 9064SOL    HW134307  11.876  11.131   4.804 -1.4812 -0.9297  0.9204
 9064SOL    HW234308  11.949  11.205   4.914  0.0110 -0.4581 -0.3472
 9065SOL     OW34309   0.196   0.139   2.575 -0.0270 -0.1760 -0.2573
 9065SOL    HW134310   0.189   0.118   2.482 -0.0194  2.0990 -0.8258
 9065SOL    HW234311   0.289   0.128   2.595 -0.4151 -3.5776  0.3300
 9066SOL     OW34312   0.697   5.769   8.905  0.3997 -0.5126 -0.0175
 9066SOL    HW134313   0.605   5.770   8.934 -0.1888  0.1286 -1.8155
 9066SOL    HW234314   0.741   5.831   8.963 -0.7820  0.9048 -0.5883
 9067SOL     OW34315  10.086   2.048   8.976  0.0701  0.3931  0.5823
 9067SOL    HW134316  10.063   1.972   8.922 -1.5460  1.3144 -0.0957
 9067SOL    HW234317  10.053   2.027   9.063  1.1517 -0.3686  0.8347
 9068SOL     OW34318   8.238   7.478   2.198  0.2067  0.0017 -0.5822
 9068SOL    HW134319   8.264   7.568   2.179  0.2552 -0.3883 -2.5828
 9068SOL    HW234320   8.318   7.435   2.229  0.2726  0.5336 -0.0021
 9069SOL     OW34321   4.329   8.571  10.129  0.4238  0.2733  0.3905
 9069SOL    HW134322   4.299   8.484  10.105  1.5642 -0.1871  0.5595
 9069SOL    HW234323   4.333   8.569  10.225  0.7095  0.4192  0.3835
 9070SOL     OW34324   2.809  12.524   2.433  0.0503 -0.2221 -0.2227
 9070SOL    HW134325   2.769  12.605   2.402 -1.3772 -0.1008  1.7355
 9070SOL    HW234326   2.865  12.551   2.506 -0.5814 -0.9894  0.5717
 9071SOL     OW34327  11.006   4.274  11.473 -0.1087 -0.1773  0.0537
 9071SOL    HW134328  11.094   4.310  11.480 -0.3704  0.4746  0.0233
 9071SOL    HW234329  10.968   4.317  11.396 -0.3926 -0.5842 -0.0360
 9072SOL     OW34330   0.434   2.739  10.370 -0.4770  0.1111 -0.7474
 9072SOL    HW134331   0.467   2.652  10.390 -2.1432 -0.8927 -2.1524
 9072SOL    HW234332   0.470   2.760  10.284 -1.4634  0.0624 -1.1801
 9073SOL     OW34333  12.000   6.006   9.830  0.6714  0.0972  0.8345
 9073SOL    HW134334  12.020   5.942   9.899  0.3724 -1.0064 -0.0737
 9073SOL    HW234335  12.049   6.084   9.856  2.3966 -1.0246  1.1287
 9074SOL     OW34336   2.083   4.423   4.334  0.4849 -0.0082 -0.0451
 9074SOL    HW134337   2.158   4.445   4.278  0.3030 -1.1455 -0.7689
 9074SOL    HW234338   2.015   4.396   4.273 -0.1426 -0.0828  0.6758
 9075SOL     OW34339   9.577   6.360  10.492 -0.3424  0.3515  0.0539
 9075SOL    HW134340   9.516   6.430  10.513  0.9730  2.0746 -1.5198
 9075SOL    HW234341   9.653   6.404  10.453 -0.0457 -2.0081 -2.4284
 9076SOL     OW34342  12.485   5.330  12.539 -0.1922 -0.0010  0.2087
 9076SOL    HW134343  12.413   5.277  12.504  0.4816 -0.3033 -0.7549
 9076SOL    HW234344  12.495   5.300  12.629  0.4962 -1.8782 -0.4523
 9077SOL     OW34345   3.863   2.751   3.191 -0.2651  0.0593  0.1257
 9077SOL    HW134346   3.953   2.728   3.169  0.0737  0.6376  0.8577
 9077SOL    HW234347   3.846   2.705   3.273 -0.7431 -0.2764 -0.1549
 9078SOL     OW34348   4.219   2.109   1.421  0.7004 -0.6125  0.3832
 9078SOL    HW134349   4.182   2.115   1.333  0.8173  1.4986  0.4320
 9078SOL    HW234350   4.163   2.045   1.467  0.2521 -1.2470 -1.0063
 9079SOL     OW34351   9.835  11.300   8.701 -0.5807  0.2290 -0.2130
 9079SOL    HW134352   9.841  11.275   8.609 -1.8638 -1.3419  0.0814
 9079SOL    HW234353   9.896  11.241   8.745 -0.9283  0.0768  0.0731
 9080SOL     OW34354   5.953  11.441   2.335 -0.1168 -0.1310 -0.5685
 9080SOL    HW134355   5.878  11.413   2.387  0.7006  0.6936  1.1385
 9080SOL    HW234356   5.999  11.360   2.315  0.5540 -0.3743  1.6600
 9081SOL     OW34357   5.597   7.182  12.729  0.7869 -0.1643 -0.3560
 9081SOL    HW134358   5.551   7.210  12.650  2.3147 -1.2529 -1.6855
 9081SOL    HW234359   5.653   7.110  12.701  0.9562 -0.9810  1.8478
 9082SOL     OW34360   8.487   8.073   4.118 -0.4667 -0.4650  0.5925
 9082SOL    HW134361   8.535   8.123   4.052  0.0312  1.2025  2.1123
 9082SOL    HW234362   8.408   8.124   4.133  0.0867 -0.0304  2.2414
 9083SOL     OW34363  11.791   0.068   8.936 -0.2420  0.0594  0.0104
 9083SOL    HW134364  11.816   0.147   8.887 -0.2406  0.8090  1.1723
 9083SOL    HW234365  11.792   0.096   9.028  0.3625 -1.4720  0.4925
 9084SOL     OW34366  12.299  11.065   1.980  0.6094 -0.1093 -0.2190
 9084SOL    HW134367  12.356  11.111   1.918  1.0204  0.0959  0.2992
 9084SOL    HW234368  12.359  11.029   2.045  0.3565 -1.9582 -0.9619
 9085SOL     OW34369   9.798  12.678   7.952  0.2099  0.3727 -0.0475
 9085SOL    HW134370   9.729  12.725   7.905  0.1005  0.9324  0.6496
 9085SOL    HW234371   9.752  12.608   7.999  0.0738  0.8551  0.5597
 9086SOL     OW34372   2.887   4.274   4.682  0.4530 -0.2016  0.2368
 9086SOL    HW134373   2.807   4.246   4.727 -0.2839  2.3206  0.6276
 9086SOL    HW234374   2.869   4.257   4.589  0.0550 -0.9751  0.4453
 9087SOL     OW34375   9.414   9.359   2.072  0.4779  0.1251  0.2208
 9087SOL    HW134376   9.332   9.319   2.103  0.5150  0.8852  1.3650
 9087SOL    HW234377   9.478   9.289   2.077 -0.1821 -0.6354 -1.1970
 9088SOL     OW34378   4.242   3.209   6.343 -0.3321  0.7624  0.1802
 9088SOL    HW134379   4.331   3.174   6.336  0.0425  1.8782 -1.3574
 9088SOL    HW234380   4.198   3.178   6.264 -0.8024  1.5227  0.1277
 9089SOL     OW34381   0.199   6.406   1.126 -0.4427 -0.1025 -0.1593
 9089SOL    HW134382   0.170   6.318   1.104 -0.2157  0.0108 -0.9873
 9089SOL    HW234383   0.155   6.462   1.062  0.5936  0.2024 -0.6388
 9090SOL     OW34384   4.586   7.391   1.772 -0.1169  0.1093 -0.5230
 9090SOL    HW134385   4.591   7.392   1.677 -0.1542 -0.4332 -0.5374
 9090SOL    HW234386   4.660   7.336   1.799 -0.9806 -0.9973 -0.3214
 9091SOL     OW34387   5.303   7.356   2.696  0.6015  0.2402  0.2924
 9091SOL    HW134388   5.386   7.354   2.647 -0.2712  1.4452 -1.3316
 9091SOL    HW234389   5.295   7.268   2.733  2.4534  0.0086  0.2374
 9092SOL     OW34390   3.248   0.164  10.710  0.0287 -0.0144 -0.7863
 9092SOL    HW134391   3.301   0.137  10.785 -0.6772  0.1418 -0.2130
 9092SOL    HW234392   3.178   0.099  10.706  0.0441 -0.0018 -1.2892
 9093SOL     OW34393  12.341   0.652   8.864  0.1388  0.6197 -0.6061
 9093SOL    HW134394  12.411   0.715   8.847  0.3196  0.5249 -0.2069
 9093SOL    HW234395  12.350   0.587   8.794  0.4258  0.6247 -0.5753
 9094SOL     OW34396   0.742   5.922   1.775  0.0520 -0.3574 -0.0157
 9094SOL    HW134397   0.682   5.984   1.732  2.1768  0.1817 -2.4591
 9094SOL    HW234398   0.733   5.841   1.725 -0.8597 -1.2854  1.5819
 9095SOL     OW34399   1.270   1.106   9.144 -0.7028  0.3030  0.5432
 9095SOL    HW134400   1.283   1.058   9.063  3.8630  2.1678 -0.1462
 9095SOL    HW234401   1.282   1.041   9.213 -1.0820 -0.6660 -0.2871
 9096SOL     OW34402   1.697   2.503  11.236  0.0638  0.6602 -0.3069
 9096SOL    HW134403   1.668   2.510  11.327  1.1388 -0.9737  0.1952
 9096SOL    HW234404   1.791   2.488  11.242 -0.0303 -0.6634 -1.6227
 9097SOL     OW34405  11.326   3.373   9.658  0.1732 -0.4657 -0.5274
 9097SOL    HW134406  11.397   3.342   9.602  0.6622  2.0622 -1.4335
 9097SOL    HW234407  11.368   3.432   9.721 -0.6703 -1.6394  1.2174
 9098SOL     OW34408   8.281  11.780  12.561 -0.1380  0.1279 -0.2138
 9098SOL    HW134409   8.244  11.865  12.539 -1.1661 -0.2290  0.0907
 9098SOL    HW234410   8.207  11.719  12.558  0.6606 -0.8612 -0.9094
 9099SOL     OW34411   4.145   6.035   2.391  0.6122  0.5991  0.2573
 9099SOL    HW134412   4.229   6.001   2.358  1.0913  0.6036  1.4123
 9099SOL    HW234413   4.155   6.130   2.386  1.1132  0.6239  1.3769
 9100SOL     OW34414  11.118   3.186   9.573 -0.0484  0.3411 -0.3613
 9100SOL    HW134415  11.101   3.210   9.664  0.2723 -0.0661 -0.1917
 9100SOL    HW234416  11.201   3.229   9.552  1.4803 -1.9827  0.5058
 9101SOL     OW34417   8.495   3.594   7.949 -0.8310  0.1104 -0.4453
 9101SOL    HW134418   8.477   3.500   7.957  1.7219 -0.4331 -0.3503
 9101SOL    HW234419   8.442   3.635   8.018 -0.4419 -1.4773  0.8363
 9102SOL     OW34420   1.397  12.408   2.995 -0.3468 -0.3572 -0.5828
 9102SOL    HW134421   1.403  12.374   3.085 -0.9697  1.0429  0.0150
 9102SOL    HW234422   1.452  12.349   2.944  1.2185 -0.3277  0.9738
 9103SOL     OW34423   0.429   4.292   1.134  0.0740 -0.2879 -0.2741
 9103SOL    HW134424   0.506   4.347   1.122 -0.5300  0.8593  0.7867
 9103SOL    HW234425   0.380   4.299   1.052  0.1647  0.5305 -0.2643
 9104SOL     OW34426   8.353   0.280   3.366 -0.5756  0.1430  0.1684
 9104SOL    HW134427   8.428   0.222   3.378 -0.6783 -0.2223 -0.8616
 9104SOL    HW234428   8.360   0.344   3.437 -0.3296 -0.9828  1.1847
 9105SOL     OW34429   2.415   3.734   1.380  0.1847  0.5434  0.7717
 9105SOL    HW134430   2.470   3.684   1.440 -2.0322 -3.4682 -0.1435
 9105SOL    HW234431   2.329   3.734   1.422 -1.2025 -1.5820 -1.7167
 9106SOL     OW34432  10.909   9.571   2.226  0.2542 -0.4827  0.3261
 9106SOL    HW134433  10.951   9.485   2.215  2.0543  0.4744 -0.7653
 9106SOL    HW234434  10.883   9.596   2.137 -1.7221 -0.5397  0.8321
 9107SOL     OW34435   7.273   2.622   8.481  0.0544  0.5553 -0.6613
 9107SOL    HW134436   7.342   2.682   8.453 -0.5974  1.2677 -0.7922
 9107SOL    HW234437   7.283   2.615   8.576 -0.9286  2.2998 -0.3770
 9108SOL     OW34438  11.213   2.586   0.474 -0.1879  0.6303  0.1574
 9108SOL    HW134439  11.234   2.552   0.561 -1.3826  0.3487  0.3611
 9108SOL    HW234440  11.296   2.587   0.427  0.3431  0.0683  1.0629
 9109SOL     OW34441   9.052   3.695   4.509  0.3346 -0.1610 -0.2043
 9109SOL    HW134442   9.003   3.778   4.510 -0.1841 -0.4561  1.0387
 9109SOL    HW234443   9.061   3.672   4.602  0.8733 -1.2678 -0.5211
 9110SOL     OW34444   9.943   7.476   5.614 -0.2488  0.1275  0.7573
 9110SOL    HW134445   9.894   7.553   5.644 -0.0160  0.0405  1.3729
 9110SOL    HW234446   9.880   7.404   5.621  0.0888 -0.0713  2.0108
 9111SOL     OW34447   8.591   7.236   7.054 -0.4596 -0.5144  0.4799
 9111SOL    HW134448   8.567   7.147   7.077 -0.2043 -1.1356 -1.4505
 9111SOL    HW234449   8.678   7.249   7.092 -0.4000 -1.1794  0.5718
 9112SOL     OW34450   3.241  12.632  11.685  0.0865  0.7405 -0.1133
 9112SOL    HW134451   3.176  12.689  11.726  0.2391  2.2243 -1.8403
 9112SOL    HW234452   3.325  12.667  11.713  0.2209  2.3568 -2.3081
 9113SOL     OW34453   6.269   0.535   8.806  0.5140  0.0387 -0.0870
 9113SOL    HW134454   6.346   0.570   8.762  0.8948  0.2360  0.7120
 9113SOL    HW234455   6.219   0.613   8.831 -0.5731 -0.1128 -1.6614
 9114SOL     OW34456   2.319  11.311   8.650  0.1569  0.3940 -0.2936
 9114SOL    HW134457   2.363  11.314   8.564 -0.3285  0.1410 -0.5540
 9114SOL    HW234458   2.391  11.309   8.713  0.5413 -0.7679 -0.7372
 9115SOL     OW34459   2.464   4.109   7.940  0.5954  0.0312  0.0850
 9115SOL    HW134460   2.446   4.028   7.894  0.1306 -0.2691  0.7795
 9115SOL    HW234461   2.559   4.120   7.933  0.9058 -1.4727  1.4214
 9116SOL     OW34462   7.271   1.960   3.886 -0.4937  0.0277  0.5375
 9116SOL    HW134463   7.181   1.988   3.903 -1.3637 -2.1548 -0.1660
 9116SOL    HW234464   7.272   1.935   3.794  0.2082 -2.0275  1.0546
 9117SOL     OW34465   8.003  10.117  11.065 -0.3196 -0.1145  0.0415
 9117SOL    HW134466   7.961  10.202  11.049 -1.9622 -1.0072 -0.7020
 9117SOL    HW234467   7.990  10.100  11.158 -0.2045  0.3425  0.1403
 9118SOL     OW34468  10.347   9.757   4.837 -0.2452  0.5118 -0.0129
 9118SOL    HW134469  10.284   9.774   4.767 -0.2746  1.2583  0.1815
 9118SOL    HW234470  10.379   9.669   4.820 -0.9622  0.3184 -0.4136
 9119SOL     OW34471   2.835   4.474   7.572 -0.0041 -0.1330 -0.2283
 9119SOL    HW134472   2.830   4.448   7.664 -1.1872  0.3095 -0.1565
 9119SOL    HW234473   2.751   4.449   7.535 -0.9820  2.8524 -0.3091
 9120SOL     OW34474   4.027   4.177   7.794 -0.3541 -0.1682 -0.0692
 9120SOL    HW134475   3.990   4.258   7.762 -0.1709  0.0123  0.1679
 9120SOL    HW234476   4.075   4.202   7.873 -0.6760 -0.5760  0.2642
 9121SOL     OW34477   8.264   4.020   1.875  0.0686 -0.4184 -0.0355
 9121SOL    HW134478   8.210   4.089   1.915  1.8290 -0.3308  2.4167
 9121SOL    HW234479   8.348   4.027   1.920  0.1509 -4.5605  0.8577
 9122SOL     OW34480   9.457   3.920   8.132 -0.1448 -0.1844 -0.1174
 9122SOL    HW134481   9.464   3.913   8.228  1.0275 -2.3903 -0.3079
 9122SOL    HW234482   9.516   3.991   8.109 -0.9983  0.8727  0.8253
 9123SOL     OW34483  10.227   6.813   9.831 -0.1994 -0.0137 -0.3547
 9123SOL    HW134484  10.165   6.762   9.778  1.3437 -0.5174 -1.7544
 9123SOL    HW234485  10.197   6.801   9.921 -1.6976 -0.8259 -0.9232
 9124SOL     OW34486   3.999   2.714   2.703 -0.8405  0.2449 -0.4144
 9124SOL    HW134487   4.007   2.804   2.735 -3.4065  1.1696 -2.0857
 9124SOL    HW234488   4.067   2.666   2.750  3.1585  3.7074 -1.9673
 9125SOL     OW34489   0.926   8.997   6.370 -0.1230  0.5745  0.3852
 9125SOL    HW134490   0.971   8.929   6.420 -0.9784 -0.5897 -0.3893
 9125SOL    HW234491   0.912   9.067   6.434  0.6066 -0.0408  1.2557
 9126SOL     OW34492  10.200   0.388   7.803  0.3893  0.2254  0.2142
 9126SOL    HW134493  10.203   0.379   7.708 -1.8669 -2.1226  0.2762
 9126SOL    HW234494  10.263   0.323   7.835  2.5445  2.2515  0.4292
 9127SOL     OW34495   5.323   0.226   2.353  0.0799 -0.3809 -0.2662
 9127SOL    HW134496   5.367   0.303   2.318  2.2876 -1.7521 -0.6801
 9127SOL    HW234497   5.254   0.206   2.290  0.0745  0.7038 -0.6185
 9128SOL     OW34498   4.970  11.216   6.675  0.4110 -0.2592  0.5050
 9128SOL    HW134499   4.969  11.217   6.579 -2.1326 -0.2325  0.4402
 9128SOL    HW234500   5.015  11.296   6.700 -1.0636  1.0409 -0.7643
 9129SOL     OW34501  11.551   3.647   5.580  0.4995 -0.8052 -0.0329
 9129SOL    HW134502  11.610   3.577   5.552  0.4005 -0.7147 -0.4739
 9129SOL    HW234503  11.584   3.673   5.666  0.0317 -1.9656  0.5226
 9130SOL     OW34504   0.465   2.602  11.098  0.3979 -0.2047  0.1982
 9130SOL    HW134505   0.438   2.596  11.189 -0.4277  0.5837  0.0205
 9130SOL    HW234506   0.444   2.692  11.073  0.4537 -0.4623 -0.8226
 9131SOL     OW34507   5.848   1.902   4.445  0.1001  0.3956  0.0533
 9131SOL    HW134508   5.897   1.984   4.454  0.7029  0.2049 -1.2745
 9131SOL    HW234509   5.758   1.926   4.463  0.3132  1.2926 -0.0289
 9132SOL     OW34510  10.926   7.613   3.562 -0.2957  0.4326 -0.8795
 9132SOL    HW134511  10.869   7.561   3.506  1.6351 -2.6366 -0.2189
 9132SOL    HW234512  10.871   7.641   3.634 -1.7219  0.5085 -1.9616
 9133SOL     OW34513  12.477   2.874   8.676  0.1121  0.4007 -0.0103
 9133SOL    HW134514  12.435   2.831   8.751  2.5533 -0.4877  0.9759
 9133SOL    HW234515  12.422   2.853   8.601  0.1411 -2.8983  0.7593
 9134SOL     OW34516   7.322   4.946   1.679  0.7757 -0.2284  0.1435
 9134SOL    HW134517   7.377   4.872   1.704  1.7334  0.3927 -0.0682
 9134SOL    HW234518   7.374   4.994   1.614  0.4684  1.0000  0.7641
 9135SOL     OW34519   4.260   4.742   4.491  0.3309 -0.2431  0.5297
 9135SOL    HW134520   4.244   4.670   4.429  0.9981  0.0175  0.0432
 9135SOL    HW234521   4.209   4.815   4.455  0.4011 -0.2039  0.5118
 9136SOL     OW34522   0.547  11.664   2.533 -0.2895  0.0526  1.1197
 9136SOL    HW134523   0.546  11.582   2.583  1.3416  0.2623  1.5518
 9136SOL    HW234524   0.607  11.721   2.582  0.5739  0.6088 -0.5305
 9137SOL     OW34525  12.669   3.691   8.029  0.2824 -0.6611 -0.4962
 9137SOL    HW134526  12.696   3.767   7.977  1.9389 -0.0432  1.1460
 9137SOL    HW234527  12.584   3.716   8.066  1.0149  0.6099  0.3876
 9138SOL     OW34528  10.587   3.072   4.664  0.1236 -0.0793 -0.3068
 9138SOL    HW134529  10.555   3.150   4.619  2.4475 -0.3823 -2.7118
 9138SOL    HW234530  10.596   3.006   4.595 -3.4589 -3.2506  1.8656
 9139SOL     OW34531   6.947   7.123   5.696  0.2642 -0.3413  0.2834
 9139SOL    HW134532   6.910   7.209   5.714  1.9472  0.1187  1.8549
 9139SOL    HW234533   6.871   7.065   5.689 -0.8655  1.0970  0.0023
 9140SOL     OW34534   6.466   2.863   2.538 -0.3628 -1.0008 -0.4003
 9140SOL    HW134535   6.474   2.940   2.482 -0.2232 -0.6358  0.1114
 9140SOL    HW234536   6.526   2.799   2.499 -0.4073 -0.8197 -0.7730
 9141SOL     OW34537  12.887  10.692   7.384  0.1793  0.3838 -0.0133
 9141SOL    HW134538  12.826  10.665   7.316 -1.7415  4.1328 -0.0305
 9141SOL    HW234539  12.847  10.663   7.466 -0.0357  0.1954 -0.1841
 9142SOL     OW34540   8.285   0.470  11.236 -0.3751 -0.3277  0.1136
 9142SOL    HW134541   8.304   0.434  11.149  0.2018 -0.8090  0.4278
 9142SOL    HW234542   8.192   0.451  11.250 -0.1944 -1.2828  0.0733
 9143SOL     OW34543   2.691   9.932   6.609 -0.2883 -0.7711  0.4485
 9143SOL    HW134544   2.642   9.849   6.613  0.6809 -1.4567 -0.8656
 9143SOL    HW234545   2.753   9.927   6.681 -0.9441 -0.6869  1.0352
 9144SOL     OW34546  11.445  10.751   3.525 -0.0704 -0.4125 -0.4167
 9144SOL    HW134547  11.365  10.698   3.525 -1.2162  1.2356 -0.2041
 9144SOL    HW234548  11.416  10.838   3.553  1.6906  0.4089 -1.0047
 9145SOL     OW34549   5.699   2.081   2.214 -0.6180 -0.0753  0.7101
 9145SOL    HW134550   5.648   2.047   2.140 -1.1255 -0.0037  1.0188
 9145SOL    HW234551   5.770   2.130   2.174 -0.3205 -0.8473  0.2631
 9146SOL     OW34552  11.911   8.494   5.573  0.4142 -0.0593 -0.3937
 9146SOL    HW134553  12.000   8.496   5.609  0.4727 -0.7829 -0.4957
 9146SOL    HW234554  11.913   8.559   5.503  1.6706 -1.9436 -2.2260
 9147SOL     OW34555   6.048  10.068  12.377  0.0256 -0.6842 -0.4646
 9147SOL    HW134556   5.968  10.113  12.351 -1.5993 -3.0834  0.0261
 9147SOL    HW234557   6.118  10.118  12.336 -1.7112  1.4541 -1.0018
 9148SOL     OW34558  12.536  12.815   8.973  0.0211  0.1352  0.0460
 9148SOL    HW134559  12.495  12.737   9.011 -0.4710  0.0822 -0.5864
 9148SOL    HW234560  12.615  12.782   8.929  1.2868  0.3481  2.0158
 9149SOL     OW34561   3.329   5.006   1.395 -0.0189 -0.2797  0.5224
 9149SOL    HW134562   3.245   5.011   1.440 -0.9355  0.0341 -1.1466
 9149SOL    HW234563   3.367   4.923   1.424 -1.8216 -1.4117 -0.1922
 9150SOL     OW34564  12.255   0.053   3.428  0.3383 -0.2033 -0.1719
 9150SOL    HW134565  12.225   0.143   3.432 -1.5444 -0.6238 -2.5923
 9150SOL    HW234566  12.179   0.001   3.457  1.6072 -1.0348  1.8612
 9151SOL     OW34567   4.464   0.180   7.943  0.0913 -0.1986 -0.0354
 9151SOL    HW134568   4.509   0.154   7.863  0.1796 -0.8883  0.2321
 9151SOL    HW234569   4.520   0.248   7.981  2.0622 -2.4467  1.3566
 9152SOL     OW34570   8.363   6.232   9.745 -0.5182 -0.2376  0.5769
 9152SOL    HW134571   8.367   6.171   9.818 -0.7863  0.1307  0.9044
 9152SOL    HW234572   8.281   6.210   9.700 -1.2368  0.6569  1.3999
 9153SOL     OW34573  12.559   6.292   3.726 -0.1650 -0.0428  0.3397
 9153SOL    HW134574  12.582   6.350   3.798 -0.5078  0.6556 -0.1005
 9153SOL    HW234575  12.638   6.241   3.709  0.2412  0.5209  0.5268
 9154SOL     OW34576   8.257   4.570   2.230  0.2180 -0.1690  0.3807
 9154SOL    HW134577   8.167   4.577   2.260  0.6177  0.8277  1.4062
 9154SOL    HW234578   8.287   4.484   2.261 -0.3165 -0.4342  0.1693
 9155SOL     OW34579  10.674   1.619   8.317  0.0832 -0.1994 -0.1043
 9155SOL    HW134580  10.656   1.590   8.406  3.2091 -1.6470  0.1979
 9155SOL    HW234581  10.715   1.705   8.327  2.3171 -1.2191  0.1413
 9156SOL     OW34582   7.739   6.731   9.664 -0.0936  0.6822  0.1452
 9156SOL    HW134583   7.806   6.663   9.657 -0.3784  0.3116  0.8767
 9156SOL    HW234584   7.748   6.782   9.584  2.0815  1.5729  0.8692
 9157SOL     OW34585   5.167   0.607  11.388 -0.5640  0.1075  0.2219
 9157SOL    HW134586   5.252   0.618  11.430 -0.5572  0.5973  0.0897
 9157SOL    HW234587   5.106   0.652  11.447 -0.6208  0.3901 -0.0483
 9158SOL     OW34588   9.774  10.121   0.421  0.0344 -0.3480  0.3497
 9158SOL    HW134589   9.685  10.155   0.431  0.0846  0.0856 -0.6330
 9158SOL    HW234590   9.767  10.028   0.441 -0.8051 -0.4883 -0.5467
 9159SOL     OW34591  10.366  10.175  12.695  0.3729 -0.1452  0.1847
 9159SOL    HW134592  10.415  10.257  12.696  0.0723  0.0360  1.6761
 9159SOL    HW234593  10.275  10.201  12.685  0.3757 -0.3841 -0.5862
 9160SOL     OW34594   6.346   9.326   2.974 -0.2659 -1.0877 -0.1703
 9160SOL    HW134595   6.419   9.285   2.928  0.2684  0.8969 -1.2251
 9160SOL    HW234596   6.379   9.340   3.063  1.1936  0.8858 -0.9419
 9161SOL     OW34597   4.241   0.182   0.335 -0.6582  0.4389  0.2971
 9161SOL    HW134598   4.330   0.198   0.302 -0.3048  0.1794  1.0988
 9161SOL    HW234599   4.247   0.199   0.428 -1.1237 -0.8992  0.5973
 9162SOL     OW34600  11.251  12.013   1.964 -0.9089 -0.2742  0.2274
 9162SOL    HW134601  11.330  12.064   1.948 -2.5767  2.4620 -0.0281
 9162SOL    HW234602  11.277  11.922   1.947  1.6332  0.6927 -1.8334
 9163SOL     OW34603   4.287   5.994   4.393 -0.6933  0.2319  0.1052
 9163SOL    HW134604   4.255   5.943   4.467 -1.3260  1.1605  0.4997
 9163SOL    HW234605   4.264   5.943   4.316 -2.8199  0.6534  0.3949
 9164SOL     OW34606   4.802   3.275  12.720 -0.3299 -1.2140  0.4990
 9164SOL    HW134607   4.735   3.229  12.771 -2.3619  0.0254 -0.8879
 9164SOL    HW234608   4.812   3.359  12.766 -1.2236 -0.6087 -0.3773
 9165SOL     OW34609   4.818   2.569   0.639  0.1390  0.3913  0.4136
 9165SOL    HW134610   4.903   2.604   0.613  0.8454 -1.2653  0.4083
 9165SOL    HW234611   4.755   2.636   0.612  1.4094  1.5430  0.2216
 9166SOL     OW34612   5.262   8.493  11.435  0.3880  0.0843  0.0837
 9166SOL    HW134613   5.320   8.478  11.510  1.1163 -0.4860 -0.5711
 9166SOL    HW234614   5.295   8.573  11.394  0.6343 -0.1725 -0.2195
 9167SOL     OW34615  10.822   3.469   6.381  0.3499  0.2937  0.0606
 9167SOL    HW134616  10.901   3.427   6.415  0.6046 -1.0360 -1.9861
 9167SOL    HW234617  10.764   3.396   6.357 -0.5908  1.1850 -0.4832
 9168SOL     OW34618   4.170   5.597   1.385  0.7843 -0.0336  0.2300
 9168SOL    HW134619   4.209   5.556   1.308 -2.6931 -0.0188 -1.7373
 9168SOL    HW234620   4.186   5.691   1.374  1.4303 -0.1416  0.2381
 9169SOL     OW34621  10.031   2.208   1.637 -0.1913  0.0792 -0.5855
 9169SOL    HW134622  10.092   2.275   1.606 -1.2221  1.7145  0.7773
 9169SOL    HW234623  10.002   2.164   1.557  0.5003  1.2502 -1.5257
 9170SOL     OW34624   8.466   2.860   3.606  0.0094 -0.1098 -0.2447
 9170SOL    HW134625   8.450   2.912   3.685  0.3690  1.6926 -1.3101
 9170SOL    HW234626   8.495   2.775   3.639 -2.0103 -0.1757  1.5863
 9171SOL     OW34627   4.204  10.036   7.543  0.0947  0.1109 -0.5647
 9171SOL    HW134628   4.298  10.032   7.558  0.1224  2.3914  0.4018
 9171SOL    HW234629   4.168  10.073   7.624 -1.3376  1.3014 -1.6665
 9172SOL     OW34630   1.173   1.118   4.642  0.0588  0.1632 -0.3351
 9172SOL    HW134631   1.138   1.070   4.567 -0.9655 -1.1057  0.8917
 9172SOL    HW234632   1.136   1.073   4.718  2.1364  0.5712  0.9852
 9173SOL     OW34633   7.251   1.031   7.562  0.0829  0.0674 -0.3605
 9173SOL    HW134634   7.201   0.989   7.632  0.6567  2.9355  1.9913
 9173SOL    HW234635   7.187   1.048   7.493 -1.8105  1.7877  1.6910
 9174SOL     OW34636   9.991   7.018   3.816  0.6139 -0.5713  0.3122
 9174SOL    HW134637  10.047   7.006   3.740 -0.5697  2.0327 -1.0971
 9174SOL    HW234638   9.929   6.945   3.813 -1.0070  0.7537 -2.8089
 9175SOL     OW34639   4.857   9.072   1.015  0.3078 -0.0215 -0.2753
 9175SOL    HW134640   4.827   8.982   1.000  1.5593 -0.4181 -0.4563
 9175SOL    HW234641   4.839   9.087   1.108 -1.9323  0.3404 -0.7066
 9176SOL     OW34642   8.823  11.448   8.917  0.1993 -0.1063 -0.6671
 9176SOL    HW134643   8.871  11.531   8.911 -1.6742  0.9791 -1.6432
 9176SOL    HW234644   8.796  11.430   8.827 -0.1189 -1.3633 -0.3318
 9177SOL     OW34645  11.199   3.690  11.276  0.1675 -0.4052 -0.2788
 9177SOL    HW134646  11.123   3.705  11.220 -0.9940 -2.5224  0.6181
 9177SOL    HW234647  11.174   3.725  11.361  0.4386 -0.5823 -0.1240
 9178SOL     OW34648  10.410   6.222   7.397 -0.3726  0.1762 -0.2521
 9178SOL    HW134649  10.423   6.136   7.437  2.5376  1.9855  3.3043
 9178SOL    HW234650  10.326   6.253   7.432 -0.1048 -0.1875  0.7519
 9179SOL     OW34651   8.716   2.933   0.351  0.1868  0.9286 -0.1725
 9179SOL    HW134652   8.806   2.922   0.320  0.2498 -1.8429  0.7583
 9179SOL    HW234653   8.711   2.882   0.432 -2.0381  1.6436  0.2252
 9180SOL     OW34654   4.636   9.713   1.871 -0.4960 -0.1473  0.1809
 9180SOL    HW134655   4.688   9.793   1.872  1.2560 -1.2076 -0.3654
 9180SOL    HW234656   4.548   9.740   1.896 -0.1451  2.0567 -0.7641
 9181SOL     OW34657   5.254   0.369   4.762 -0.1966  0.9145 -0.3253
 9181SOL    HW134658   5.233   0.277   4.743  0.7915  0.5803  0.1162
 9181SOL    HW234659   5.350   0.373   4.754 -0.0257  1.4365  1.5467
 9182SOL     OW34660  12.200  11.438   5.389  0.4521 -0.9231 -0.5978
 9182SOL    HW134661  12.237  11.453   5.476  0.2368  1.6985 -0.8823
 9182SOL    HW234662  12.120  11.387   5.405  1.1435 -1.6957  0.5612
 9183SOL     OW34663   3.841  10.981  12.938 -0.2165  0.1073 -0.0183
 9183SOL    HW134664   3.848  10.891  12.907  0.5857 -0.1435  0.8424
 9183SOL    HW234665   3.932  11.008  12.953 -0.4932  0.7834  0.4802
 9184SOL     OW34666   5.827   6.888  11.696  0.1288 -0.1023 -0.4135
 9184SOL    HW134667   5.891   6.921  11.759 -0.7247 -1.7643  1.4443
 9184SOL    HW234668   5.880   6.844  11.629  1.0173  0.8585 -0.3709
 9185SOL     OW34669  10.977  11.143  10.097 -0.5315 -0.6661  0.6833
 9185SOL    HW134670  10.983  11.196  10.177  0.2489 -1.8019  1.4116
 9185SOL    HW234671  10.956  11.055  10.128  0.9819 -1.3923 -0.2271
 9186SOL     OW34672   6.079   5.309  12.506 -0.2836 -0.0112  0.5308
 9186SOL    HW134673   6.017   5.351  12.566 -0.4231  1.2027 -0.3968
 9186SOL    HW234674   6.034   5.230  12.477 -0.8233  0.1358  0.9454
 9187SOL     OW34675  12.946   1.583  10.645  0.2186  0.3741 -0.4393
 9187SOL    HW134676  12.936   1.528  10.723 -1.0353  0.8297 -0.2632
 9187SOL    HW234677  12.860   1.582  10.604  0.2343  2.0138 -0.5714
 9188SOL     OW34678   2.644   4.415   6.969 -0.7330  0.3117 -0.1732
 9188SOL    HW134679   2.719   4.442   7.022 -1.0694  0.5173  0.2117
 9188SOL    HW234680   2.613   4.334   7.011 -1.9358  1.2766  0.9206
 9189SOL     OW34681   6.613  11.939   7.809 -0.3483  0.0289  0.3033
 9189SOL    HW134682   6.582  11.856   7.844 -0.0446 -0.0606  0.3586
 9189SOL    HW234683   6.575  12.005   7.867  0.0170 -0.1093  0.7047
 9190SOL     OW34684   7.198  10.723   1.629 -0.3699  0.6044 -0.3311
 9190SOL    HW134685   7.216  10.696   1.719 -0.5973 -1.7261 -0.9086
 9190SOL    HW234686   7.280  10.759   1.597  0.0263  0.4392  0.4834
 9191SOL     OW34687   8.499   3.375  10.391  0.8339 -0.0451  0.0915
 9191SOL    HW134688   8.514   3.292  10.346  0.8300  1.5110 -3.0530
 9191SOL    HW234689   8.572   3.430  10.365  1.3022  0.7771  2.8016
 9192SOL     OW34690   5.094   6.612   5.850 -0.3374 -0.3998 -0.0986
 9192SOL    HW134691   5.129   6.588   5.764 -1.8161  0.9340 -1.1272
 9192SOL    HW234692   5.066   6.703   5.840 -2.4513 -0.8389  1.1253
 9193SOL     OW34693   1.671   8.286   4.048 -0.0105  0.2869 -0.1550
 9193SOL    HW134694   1.591   8.301   3.998 -0.8247 -0.5167  0.8618
 9193SOL    HW234695   1.669   8.352   4.117 -0.0119 -0.0259  0.1405
 9194SOL     OW34696   7.282   0.981  11.101 -0.4352 -0.2401 -0.0991
 9194SOL    HW134697   7.194   0.993  11.066 -0.7335 -2.0078 -0.0820
 9194SOL    HW234698   7.284   1.033  11.181 -0.7903  1.3619 -1.0907
 9195SOL     OW34699   1.212  10.790   9.960 -0.1012  0.0512  0.6427
 9195SOL    HW134700   1.232  10.857   9.895 -0.2944 -0.0143  0.5118
 9195SOL    HW234701   1.296  10.768  10.001  0.1510 -0.4866 -0.1410
 9196SOL     OW34702   6.188   0.631   1.577  0.8375 -0.3326  0.2000
 9196SOL    HW134703   6.152   0.574   1.646  0.6918 -1.3476 -0.6827
 9196SOL    HW234704   6.233   0.700   1.625  1.3891 -1.4144  1.3235
 9197SOL     OW34705   6.269   0.210   6.913 -0.3478  0.3444 -0.2223
 9197SOL    HW134706   6.356   0.249   6.920 -0.2528  0.0526  0.3531
 9197SOL    HW234707   6.223   0.263   6.848  0.8272 -0.5823 -1.8570
 9198SOL     OW34708  12.884   1.781   4.105 -0.2079  0.5404  1.0462
 9198SOL    HW134709  12.954   1.845   4.115  0.1231  0.2331  0.7205
 9198SOL    HW234710  12.910   1.729   4.029 -0.9827  0.6706  0.6876
 9199SOL     OW34711   0.474   7.527   6.406  0.0202 -0.6795  0.0566
 9199SOL    HW134712   0.402   7.587   6.423 -0.2810 -1.1337  0.4281
 9199SOL    HW234713   0.431   7.443   6.389  0.3236 -0.4219 -2.3242
 9200SOL     OW34714   8.719   0.302  11.735 -0.2322  0.1055  0.3812
 9200SOL    HW134715   8.734   0.387  11.777  1.5792  0.4755 -0.8784
 9200SOL    HW234716   8.635   0.272  11.770 -1.5305  2.9512  0.0363
 9201SOL     OW34717   3.592   9.993   7.392 -0.1502  0.1214 -0.0837
 9201SOL    HW134718   3.589  10.088   7.382 -0.2199  0.4688  2.4441
 9201SOL    HW234719   3.518   9.960   7.341  0.3027  1.3410 -1.5670
 9202SOL     OW34720  12.453   6.398  10.510  0.1070  0.3749 -0.5702
 9202SOL    HW134721  12.520   6.439  10.565 -0.4564 -1.2786  1.4757
 9202SOL    HW234722  12.502   6.335  10.456  0.4968  1.0657 -1.0390
 9203SOL     OW34723   9.841  12.220   2.639 -0.0393 -0.7657  0.3430
 9203SOL    HW134724   9.912  12.251   2.696  0.4261 -1.2740  0.0441
 9203SOL    HW234725   9.851  12.270   2.558 -0.6307 -0.1283  0.6466
 9204SOL     OW34726   8.033   0.438   5.742  0.3707 -0.2844  0.5153
 9204SOL    HW134727   8.000   0.351   5.719 -1.2238  0.4803 -0.2656
 9204SOL    HW234728   8.079   0.467   5.663 -1.3114  0.5702 -0.2029
 9205SOL     OW34729  11.691   0.315  12.135  0.2816 -0.5470 -0.0045
 9205SOL    HW134730  11.598   0.331  12.152  0.2651  0.1143 -0.6771
 9205SOL    HW234731  11.731   0.317  12.222 -0.0774  0.9215  0.1601
 9206SOL     OW34732  11.022   6.779   6.216  0.1258 -0.0130  0.4939
 9206SOL    HW134733  10.966   6.703   6.201 -0.5757  0.6178 -0.2277
 9206SOL    HW234734  11.100   6.762   6.163  0.7648 -1.0090  1.6932
 9207SOL     OW34735  11.474   2.218   8.590 -0.1087 -0.1935  0.4450
 9207SOL    HW134736  11.403   2.281   8.577 -0.4188 -0.2616  1.6364
 9207SOL    HW234737  11.431   2.143   8.632  0.4958 -0.6404  0.2695
 9208SOL     OW34738   1.298   5.718   6.501 -0.0774 -0.2304  0.3988
 9208SOL    HW134739   1.262   5.635   6.531  0.7581 -0.3474  1.1441
 9208SOL    HW234740   1.222   5.771   6.477 -0.6318 -1.0715  0.2752
 9209SOL     OW34741   5.549   3.004   1.535 -0.2679 -0.4960 -0.1631
 9209SOL    HW134742   5.573   3.086   1.491 -0.0197 -1.1305 -1.2671
 9209SOL    HW234743   5.485   3.029   1.601  1.3577  0.8796  0.9651
 9210SOL     OW34744   5.020   4.384   9.905  0.1942 -0.2507 -0.3628
 9210SOL    HW134745   5.037   4.413   9.815 -0.0984  0.2242 -0.2670
 9210SOL    HW234746   4.950   4.441   9.936 -0.2775 -0.9605 -0.1086
 9211SOL     OW34747   5.251  10.947  12.726  0.1021  0.0579 -0.4356
 9211SOL    HW134748   5.342  10.918  12.728  0.1433  0.1980 -0.2344
 9211SOL    HW234749   5.249  11.018  12.663  0.1913  0.2503 -0.2221
 9212SOL     OW34750  12.809   5.994   0.925 -0.4570 -0.3584  0.1405
 9212SOL    HW134751  12.889   6.010   0.974 -0.5952 -0.4534  0.3950
 9212SOL    HW234752  12.798   6.073   0.872  0.0463 -0.5289 -0.2303
 9213SOL     OW34753   5.661  10.480   0.350 -0.2747 -0.1422  0.3896
 9213SOL    HW134754   5.753  10.465   0.370 -0.2103 -0.2900 -0.0247
 9213SOL    HW234755   5.627  10.394   0.326  0.2564  0.3956 -2.6940
 9214SOL     OW34756   5.465   3.947   6.115  0.5463  0.0586 -0.0679
 9214SOL    HW134757   5.509   4.018   6.068 -0.7613  1.8171  1.2089
 9214SOL    HW234758   5.380   3.940   6.071 -0.7819  1.8756  2.0027
 9215SOL     OW34759   3.580   7.468   2.892 -0.1220 -0.3171  0.3210
 9215SOL    HW134760   3.536   7.459   2.976  0.7174  0.6013  0.8835
 9215SOL    HW234761   3.668   7.435   2.907 -0.2092 -0.9081 -0.4246
 9216SOL     OW34762   5.836   2.632   1.554  0.4478 -0.0667 -0.0073
 9216SOL    HW134763   5.829   2.537   1.541 -0.2966 -0.0510  0.2375
 9216SOL    HW234764   5.929   2.646   1.575  0.4376 -0.8244  0.6135
 9217SOL     OW34765   9.300   1.156   7.455  0.0481 -0.0847 -0.6813
 9217SOL    HW134766   9.369   1.166   7.389  0.0804  0.4006 -0.5745
 9217SOL    HW234767   9.339   1.099   7.522  1.2415  2.0881  0.5793
 9218SOL     OW34768   5.787   3.313   8.468 -1.1559 -0.3401  0.2288
 9218SOL    HW134769   5.773   3.290   8.560 -1.5471 -0.8399  0.0548
 9218SOL    HW234770   5.712   3.274   8.423 -0.2373 -1.3382 -0.4855
 9219SOL     OW34771  11.686   2.990  12.613 -0.4211  0.1008  0.0039
 9219SOL    HW134772  11.620   3.059  12.602 -1.7332 -0.9176  1.1474
 9219SOL    HW234773  11.637   2.908  12.608  1.3963 -0.9430 -3.3896
 9220SOL     OW34774   6.622  10.132   3.401  0.5187 -0.0077 -0.3093
 9220SOL    HW134775   6.694  10.096   3.350 -0.8094 -0.1270 -2.2487
 9220SOL    HW234776   6.589  10.059   3.452  1.1889 -0.1757 -0.1117
 9221SOL     OW34777   5.101   0.889   5.763  0.7687  0.0202 -0.0703
 9221SOL    HW134778   5.159   0.912   5.691  1.0076  1.5921  0.5847
 9221SOL    HW234779   5.078   0.973   5.804 -0.4068 -0.7199  0.8820
 9222SOL     OW34780   6.022  12.946  11.776 -0.0635 -0.3978 -0.1821
 9222SOL    HW134781   6.116  12.942  11.792 -0.2069 -0.5770  0.7076
 9222SOL    HW234782   6.010  13.023  11.721  0.2844  1.6520  2.4247
 9223SOL     OW34783  10.149  10.469   0.470  0.4123  0.0119 -0.0568
 9223SOL    HW134784  10.054  10.459   0.477  0.1495  1.3042 -1.2140
 9223SOL    HW234785  10.180  10.468   0.561 -0.7788  0.1261  0.3729
 9224SOL     OW34786   3.348   7.549   5.881 -0.3139 -0.5419  0.0028
 9224SOL    HW134787   3.280   7.543   5.948 -1.3617 -2.5140 -1.1410
 9224SOL    HW234788   3.304   7.587   5.806  1.1530  2.8384  0.6822
 9225SOL     OW34789   4.805   3.848   9.331 -0.1657  0.1656 -1.0299
 9225SOL    HW134790   4.875   3.870   9.392 -1.9203  0.7515  0.8589
 9225SOL    HW234791   4.846   3.790   9.267  2.5249  2.0846 -1.1960
 9226SOL     OW34792   1.971   9.731   8.589  0.4696 -0.2948  0.1849
 9226SOL    HW134793   1.930   9.672   8.525  1.1747 -0.3302 -0.2521
 9226SOL    HW234794   2.033   9.675   8.637 -1.3550 -0.7052  2.2070
 9227SOL     OW34795   0.767   0.461  12.298  0.1167 -0.1933  0.4395
 9227SOL    HW134796   0.694   0.502  12.252  0.9591  0.4057 -0.4135
 9227SOL    HW234797   0.761   0.493  12.387 -1.3172 -1.0546  0.6747
 9228SOL     OW34798   7.826  10.413  10.800  0.4119 -0.0682 -0.3107
 9228SOL    HW134799   7.789  10.374  10.721  1.2349 -2.4403  0.3950
 9228SOL    HW234800   7.753  10.416  10.862  0.0949  0.5410 -0.7008
 9229SOL     OW34801   2.836   5.584   1.694 -0.3689 -0.3818 -0.2275
 9229SOL    HW134802   2.759   5.586   1.637  0.0594 -0.7359 -0.8228
 9229SOL    HW234803   2.890   5.514   1.659  0.3085 -0.0216  0.0850
 9230SOL     OW34804  12.863   2.968   8.178  0.1794  0.5645  0.2523
 9230SOL    HW134805  12.797   3.037   8.185  0.5639  1.0350 -0.6440
 9230SOL    HW234806  12.946   3.013   8.197  0.5975  0.6799 -1.6616
 9231SOL     OW34807   4.517   2.518   5.624  0.3763  0.4160 -0.1923
 9231SOL    HW134808   4.512   2.439   5.571 -1.8853  0.6887 -0.4948
 9231SOL    HW234809   4.591   2.566   5.589  0.5182 -0.6285 -1.3727
 9232SOL     OW34810   9.900   7.852   2.807  0.3230  0.5271 -0.3058
 9232SOL    HW134811   9.839   7.881   2.739 -2.1576 -2.9992  0.1399
 9232SOL    HW234812   9.961   7.795   2.761 -0.2580 -0.4381  0.0900
 9233SOL     OW34813   6.968   1.229  12.472  0.1164 -0.2277  0.1715
 9233SOL    HW134814   6.894   1.169  12.463  0.5014 -0.5965 -0.6047
 9233SOL    HW234815   6.944   1.305  12.418  0.9240 -0.9693 -1.2740
 9234SOL     OW34816   9.324   8.737   9.409  0.2616 -0.0951 -0.2999
 9234SOL    HW134817   9.330   8.756   9.502  0.0574  0.5559 -0.4131
 9234SOL    HW234818   9.265   8.804   9.374 -1.6163 -1.7327 -0.5064
 9235SOL     OW34819   3.311   6.968   0.989  0.8632 -0.0698 -0.3616
 9235SOL    HW134820   3.319   6.911   1.065  1.5948  0.7969  0.2403
 9235SOL    HW234821   3.398   7.009   0.981  0.0467  1.8528 -0.0191
 9236SOL     OW34822   1.434   9.034   5.631  0.1927  0.0681 -0.2186
 9236SOL    HW134823   1.375   9.038   5.705  0.8709  1.8857  0.2878
 9236SOL    HW234824   1.377   9.040   5.554 -0.3820  0.1761  0.2114
 9237SOL     OW34825   1.163   0.698   8.575 -0.0706 -0.2975  0.0102
 9237SOL    HW134826   1.141   0.785   8.607 -0.5215 -0.5738  0.4694
 9237SOL    HW234827   1.108   0.686   8.498  1.7463  0.7727 -1.5505
 9238SOL     OW34828   6.064  12.155   4.592  0.3962  0.0016  0.0014
 9238SOL    HW134829   6.072  12.127   4.683  1.7893 -1.2988 -0.4942
 9238SOL    HW234830   6.123  12.230   4.585  0.1013  0.2572  0.2207
 9239SOL     OW34831   2.884   8.145   1.658 -0.5376 -0.1047  0.2818
 9239SOL    HW134832   2.889   8.110   1.569  0.4162 -0.0605  0.3058
 9239SOL    HW234833   2.957   8.207   1.663 -1.5795  1.1491  0.5612
 9240SOL     OW34834   6.811   1.761   8.009 -0.1286  0.1003 -0.2382
 9240SOL    HW134835   6.756   1.747   8.086  0.5038 -0.5116  0.1073
 9240SOL    HW234836   6.867   1.835   8.032  2.9290 -2.5107  1.5734
 9241SOL     OW34837   4.579   1.546   5.715  0.5375  0.3616 -0.5480
 9241SOL    HW134838   4.518   1.617   5.734  0.7789  0.0577  1.7437
 9241SOL    HW234839   4.524   1.477   5.678 -0.4749  0.2828  0.9824
 9242SOL     OW34840   8.862   7.912  10.848 -0.3402  0.6701  0.2307
 9242SOL    HW134841   8.834   7.837  10.900 -0.2095 -0.1336 -0.8224
 9242SOL    HW234842   8.957   7.902  10.840 -0.2403  1.2764  0.5739
 9243SOL     OW34843   7.232   7.416   6.482 -0.1906 -0.0065 -0.1839
 9243SOL    HW134844   7.300   7.455   6.426  0.4608  0.4933  0.9002
 9243SOL    HW234845   7.268   7.424   6.571 -2.0214  1.0583  0.5260
 9244SOL     OW34846   6.178   5.074  12.132  0.1791 -0.1355 -0.2246
 9244SOL    HW134847   6.086   5.060  12.109  0.4828 -0.4582 -1.2826
 9244SOL    HW234848   6.226   5.054  12.052  1.0924  1.2279 -0.0503
 9245SOL     OW34849   0.589   7.933   1.186  0.0300 -0.5018 -0.3072
 9245SOL    HW134850   0.513   7.936   1.244 -1.2041 -0.7720 -1.8628
 9245SOL    HW234851   0.641   7.859   1.218 -0.1681 -0.1132  0.9754
 9246SOL     OW34852   0.659   9.334   8.976 -0.0426 -0.2155  0.3068
 9246SOL    HW134853   0.609   9.313   9.055  0.2654  0.9410  0.8301
 9246SOL    HW234854   0.750   9.337   9.004 -0.0672  1.8594  0.3214
 9247SOL     OW34855   6.605   8.216   0.540  0.1017 -0.2575  0.0159
 9247SOL    HW134856   6.693   8.225   0.578  0.0096 -0.3423  0.2521
 9247SOL    HW234857   6.546   8.229   0.614 -0.0583 -1.6448  0.1630
 9248SOL     OW34858  12.228   5.587   9.683 -0.1611 -0.6239 -0.0988
 9248SOL    HW134859  12.266   5.502   9.661 -1.1069 -1.0660 -0.0807
 9248SOL    HW234860  12.219   5.632   9.599  0.2266 -0.5903 -0.1222
 9249SOL     OW34861   8.612  11.173   6.465  0.0123 -1.2385  0.5689
 9249SOL    HW134862   8.524  11.152   6.494  0.3166  0.2434  2.8316
 9249SOL    HW234863   8.602  11.194   6.372 -2.2591 -0.0213  1.0011
 9250SOL     OW34864   1.159  12.242   4.967 -0.2387 -0.5961 -0.3125
 9250SOL    HW134865   1.166  12.316   4.907  0.2975  0.5378  1.0723
 9250SOL    HW234866   1.117  12.173   4.916 -1.3086  0.8512 -1.4911
 9251SOL     OW34867   7.418   5.382  12.204 -0.0798 -0.4046 -0.2046
 9251SOL    HW134868   7.507   5.405  12.175 -0.2539  0.3854 -0.1426
 9251SOL    HW234869   7.412   5.288  12.191  0.1287 -0.2047 -1.9857
 9252SOL     OW34870  12.607  12.028   0.770  0.3790  0.1696 -0.1622
 9252SOL    HW134871  12.664  12.099   0.801  1.3377 -0.8641  0.5010
 9252SOL    HW234872  12.519  12.067   0.770  0.9362  1.5137 -0.3172
 9253SOL     OW34873   0.666  12.806   7.100  0.4202 -0.5078 -0.4630
 9253SOL    HW134874   0.683  12.768   7.186 -3.3565 -0.4380  0.4934
 9253SOL    HW234875   0.662  12.900   7.116 -0.2227 -0.4891 -0.7037
 9254SOL     OW34876   3.878  11.705   8.390 -0.5669  0.2716 -0.4794
 9254SOL    HW134877   3.859  11.795   8.364  0.2565 -0.2799 -3.3215
 9254SOL    HW234878   3.973  11.701   8.397 -0.5634 -0.4669 -0.8294
 9255SOL     OW34879   3.202   2.934   2.095  0.5577  0.6210  0.0697
 9255SOL    HW134880   3.288   2.951   2.134  0.3581  0.5965  0.5178
 9255SOL    HW234881   3.210   2.847   2.057  1.3467  1.3578 -1.5777
 9256SOL     OW34882   8.439  12.957   8.559 -0.3680  0.3830  0.0103
 9256SOL    HW134883   8.477  13.007   8.487 -0.6909 -0.5351 -0.8351
 9256SOL    HW234884   8.372  13.014   8.596 -1.7788  0.0603 -1.9014
 9257SOL     OW34885   5.568   4.938  11.596 -0.2259  0.6680 -0.4453
 9257SOL    HW134886   5.514   4.859  11.601 -0.9438  1.1409 -0.5907
 9257SOL    HW234887   5.655   4.906  11.571 -0.9340  0.0855 -2.3256
 9258SOL     OW34888   9.771   8.936  10.009  0.2233  0.6053  0.1112
 9258SOL    HW134889   9.720   8.889   9.943  0.3529  0.5117  0.0757
 9258SOL    HW234890   9.862   8.928   9.978  0.5843 -1.4874  1.5154
 9259SOL     OW34891   0.600   7.251   1.722  0.0813  0.2383 -0.0269
 9259SOL    HW134892   0.617   7.242   1.628 -0.3153  0.1391 -0.0919
 9259SOL    HW234893   0.572   7.342   1.732 -2.5381 -0.4494 -0.4488
 9260SOL     OW34894   6.687   8.353  12.653 -0.0626  0.6745  0.6387
 9260SOL    HW134895   6.716   8.298  12.725  1.6122  1.3653  0.5481
 9260SOL    HW234896   6.746   8.429  12.655 -0.0447  0.7723 -1.3589
 9261SOL     OW34897  11.356   8.814   3.277  0.2942 -0.2241 -0.5297
 9261SOL    HW134898  11.440   8.802   3.322  0.4101 -1.4325 -1.0254
 9261SOL    HW234899  11.321   8.725   3.267 -2.5113  0.3819  2.2785
 9262SOL     OW34900   5.461   7.880   6.895 -0.1246 -0.4426  0.0326
 9262SOL    HW134901   5.530   7.890   6.829 -0.2616  0.6604  0.0357
 9262SOL    HW234902   5.385   7.925   6.858 -0.6402 -1.0253  0.3430
 9263SOL     OW34903   9.362   2.483   3.753  0.1149 -0.6195 -0.0434
 9263SOL    HW134904   9.293   2.449   3.696 -1.0918  1.1682  0.2850
 9263SOL    HW234905   9.442   2.440   3.723 -0.8932 -1.6047 -1.4135
 9264SOL     OW34906   1.636   5.668  10.022  0.0624 -0.1284  0.1923
 9264SOL    HW134907   1.726   5.638  10.026  0.0338 -0.0680  1.5086
 9264SOL    HW234908   1.584   5.595  10.054 -0.0165  1.1486  3.2601
 9265SOL     OW34909   5.296  10.652   8.829 -0.0920 -0.1235  0.3080
 9265SOL    HW134910   5.343  10.620   8.752  1.2088  2.4217 -0.0601
 9265SOL    HW234911   5.204  10.639   8.808  0.2852 -1.8791 -0.5076
 9266SOL     OW34912   7.797   7.267   0.497  0.2411 -0.3653  0.4204
 9266SOL    HW134913   7.844   7.350   0.497 -0.6977  0.1895  0.6762
 9266SOL    HW234914   7.858   7.204   0.460  1.3002  0.2421  1.1004
 9267SOL     OW34915  10.243   1.614   7.762  0.9070 -0.1365 -0.1226
 9267SOL    HW134916  10.193   1.615   7.843  0.9406  1.1603 -0.0959
 9267SOL    HW234917  10.188   1.662   7.699  0.9021 -1.0701 -0.8511
 9268SOL     OW34918  11.365   8.118   0.902 -0.2718  0.0736 -0.5894
 9268SOL    HW134919  11.363   8.058   0.827 -2.2905  1.1890 -1.5249
 9268SOL    HW234920  11.433   8.182   0.880  0.6644 -0.8308 -0.4052
 9269SOL     OW34921  12.222  10.052   2.038 -0.1395  0.3771  0.1085
 9269SOL    HW134922  12.311  10.087   2.048  0.9093 -2.3411  1.4112
 9269SOL    HW234923  12.225  10.005   1.955 -0.9920  1.7693 -0.7552
 9270SOL     OW34924   3.973   5.106   8.728  0.2880  0.0396 -0.0808
 9270SOL    HW134925   3.889   5.060   8.736 -0.5140  1.3308 -0.7105
 9270SOL    HW234926   4.018   5.060   8.657  0.3590 -0.9922  0.6111
 9271SOL     OW34927   7.292   5.341   3.321  0.0899 -0.5445 -0.2715
 9271SOL    HW134928   7.369   5.388   3.354 -0.2069 -0.2659  0.0244
 9271SOL    HW234929   7.217   5.388   3.358 -0.2422 -0.3901 -1.1178
 9272SOL     OW34930   5.179  12.771  12.424  0.0479 -0.5810 -0.1810
 9272SOL    HW134931   5.092  12.810  12.430  0.0100 -0.6738 -0.1341
 9272SOL    HW234932   5.205  12.787  12.333  1.5447  2.8144  0.6689
 9273SOL     OW34933   4.180  11.240   2.389 -0.3553 -0.3027  0.2134
 9273SOL    HW134934   4.273  11.253   2.368 -0.0301 -1.5833  0.7298
 9273SOL    HW234935   4.150  11.178   2.323 -0.3516 -1.2943  1.1182
 9274SOL     OW34936   5.847   8.360  12.493  0.4603 -0.0877 -0.0870
 9274SOL    HW134937   5.902   8.308  12.551  1.1425  1.2090  0.4692
 9274SOL    HW234938   5.794   8.414  12.552  2.2295  2.3557 -0.6075
 9275SOL     OW34939   8.573  12.901  12.800  0.0064  0.0220  0.2597
 9275SOL    HW134940   8.552  12.912  12.893 -0.3453 -0.4346  0.2380
 9275SOL    HW234941   8.587  12.990  12.768 -0.2078  0.2083  0.6760
 9276SOL     OW34942   9.516   3.062   4.888 -0.0323 -0.4263 -0.3356
 9276SOL    HW134943   9.439   3.009   4.910 -1.2222  1.2353 -0.2280
 9276SOL    HW234944   9.581   3.000   4.856 -1.3365 -1.9235 -0.1746
 9277SOL     OW34945   4.531   0.614   6.415 -0.1569 -0.4171  0.0368
 9277SOL    HW134946   4.512   0.544   6.477  0.0783 -0.9969 -0.5299
 9277SOL    HW234947   4.467   0.602   6.345 -1.6649  1.3849  1.0213
 9278SOL     OW34948   7.748   4.557  12.291 -0.4045 -0.0942 -0.4951
 9278SOL    HW134949   7.783   4.508  12.366 -1.9090  0.5331  0.6636
 9278SOL    HW234950   7.812   4.626  12.276  0.3672 -0.7652 -0.3753
 9279SOL     OW34951   7.423   3.419   0.617 -0.1313  0.6747 -0.4477
 9279SOL    HW134952   7.436   3.371   0.699 -2.0052  0.6401 -0.1136
 9279SOL    HW234953   7.482   3.494   0.623  0.5221  0.1065  0.4552
 9280SOL     OW34954   4.204   0.705  11.650  0.0782  0.3970 -0.2840
 9280SOL    HW134955   4.289   0.666  11.633 -0.9797 -1.8400 -0.8070
 9280SOL    HW234956   4.165   0.650  11.717 -1.8254 -0.0587 -1.6691
 9281SOL     OW34957   2.469   2.181   3.695 -0.7390 -0.1396  0.1069
 9281SOL    HW134958   2.476   2.087   3.677 -0.5525  0.0294 -0.7586
 9281SOL    HW234959   2.467   2.187   3.791  4.0040 -0.7142  0.4468
 9282SOL     OW34960   0.048   7.272  12.843  0.1276  0.5216 -0.4760
 9282SOL    HW134961  -0.022   7.322  12.802  0.1750  0.4825 -0.6026
 9282SOL    HW234962   0.121   7.333  12.850 -0.0866  0.7260  0.1415
 9283SOL     OW34963  11.180  12.510   9.343 -0.4741 -0.5196 -0.1167
 9283SOL    HW134964  11.093  12.533   9.311 -0.1869  0.0791 -0.4920
 9283SOL    HW234965  11.237  12.579   9.310  0.2599 -1.2602 -0.4410
 9284SOL     OW34966   9.527   0.166   1.892  0.0363 -0.0565 -0.0798
 9284SOL    HW134967   9.572   0.175   1.976  0.9790  1.2346 -0.6764
 9284SOL    HW234968   9.558   0.082   1.857  0.0744 -0.3343  0.6190
 9285SOL     OW34969   4.019   4.974   1.601  0.0719 -0.0789 -0.2196
 9285SOL    HW134970   4.094   4.983   1.542 -0.8379  0.9958 -1.2595
 9285SOL    HW234971   4.038   4.894   1.651  0.5221 -1.5082 -2.5192
 9286SOL     OW34972  10.659   1.612  10.856 -0.4630  0.2015  0.1530
 9286SOL    HW134973  10.657   1.551  10.782 -2.0138  2.2180 -1.5921
 9286SOL    HW234974  10.569   1.644  10.863 -0.6452 -0.6043  3.6236
 9287SOL     OW34975   9.806  11.944   8.592  0.3864  0.5185  0.0444
 9287SOL    HW134976   9.841  11.855   8.587 -0.1413  0.3598 -1.3201
 9287SOL    HW234977   9.711  11.932   8.598  0.4068  0.9764  1.5571
 9288SOL     OW34978   6.216   4.862   6.527 -0.7423  0.2673 -0.1196
 9288SOL    HW134979   6.239   4.940   6.475 -0.0433 -0.1789 -0.4951
 9288SOL    HW234980   6.151   4.816   6.475  1.2976 -1.1586 -1.5492
 9289SOL     OW34981  11.047   2.864  11.437 -0.6239  0.1907  0.1142
 9289SOL    HW134982  11.069   2.771  11.448 -0.2586  0.3649  0.9036
 9289SOL    HW234983  11.094   2.908  11.507  0.0560  1.1013 -0.8888
 9290SOL     OW34984   1.705   5.510   6.589  1.0060  0.4273  0.2465
 9290SOL    HW134985   1.711   5.467   6.674 -1.2404 -1.2720 -0.3291
 9290SOL    HW234986   1.791   5.548   6.574  2.5874 -2.2914  1.7077
 9291SOL     OW34987   9.613   1.647   4.576 -0.3669 -0.5624  0.3867
 9291SOL    HW134988   9.625   1.683   4.663 -0.6190 -1.5042  0.8194
 9291SOL    HW234989   9.675   1.574   4.571 -1.4014 -1.4584  0.3338
 9292SOL     OW34990   9.232   9.038   7.574 -0.2978  0.6027  0.2987
 9292SOL    HW134991   9.138   9.053   7.562 -0.5767  1.1363  2.6166
 9292SOL    HW234992   9.258   9.105   7.637  1.1944 -0.8428  1.2722
 9293SOL     OW34993  12.396  10.338  12.433  0.5377 -0.1653 -0.1818
 9293SOL    HW134994  12.358  10.267  12.483  2.3694 -1.6477 -0.7747
 9293SOL    HW234995  12.348  10.338  12.350 -0.6112  0.4656  0.4514
 9294SOL     OW34996   6.504  11.911  11.332  0.0530  0.3869  0.8499
 9294SOL    HW134997   6.470  11.882  11.247 -0.0344  0.5826  0.8194
 9294SOL    HW234998   6.596  11.885  11.331  0.2842  1.2119  0.3216
 9295SOL     OW34999   4.319   2.181   4.955 -0.2307 -0.6852  0.0690
 9295SOL    HW135000   4.352   2.150   4.871 -1.1050 -2.1701  0.2319
 9295SOL    HW235001   4.307   2.275   4.943  0.5647 -0.7222 -1.1477
 9296SOL     OW35002   4.014  12.198   0.380 -0.0272  0.2574  0.0703
 9296SOL    HW135003   4.065  12.192   0.300 -1.1357  0.8222 -0.7144
 9296SOL    HW235004   4.079  12.198   0.451  0.8877 -1.9042 -0.7066
 9297SOL     OW35005   1.449   4.568   1.910 -0.0943  0.1328 -0.2827
 9297SOL    HW135006   1.413   4.506   1.846  1.8454 -1.7520  0.3283
 9297SOL    HW235007   1.543   4.572   1.889  0.2736  0.8206  1.3624
 9298SOL     OW35008   0.086   3.421   7.058  0.4663  0.5069 -0.0277
 9298SOL    HW135009   0.116   3.511   7.047 -0.4169  0.9609  1.0777
 9298SOL    HW235010   0.165   3.368   7.050  0.6122  1.0568 -3.7265
 9299SOL     OW35011   6.944  12.746   8.351 -0.0078 -0.4991 -0.2947
 9299SOL    HW135012   6.984  12.804   8.415 -1.1714  0.1485 -0.1379
 9299SOL    HW235013   6.884  12.801   8.302 -1.8563 -1.7277  0.4775
 9300SOL     OW35014  12.367   2.311  11.172  0.1722 -0.2279 -0.6148
 9300SOL    HW135015  12.420   2.306  11.251 -1.5617  0.4295  0.6431
 9300SOL    HW235016  12.405   2.383  11.122  1.6335 -1.0169 -0.6936
 9301SOL     OW35017   8.166   7.017   1.140 -0.6341  0.3902 -0.2559
 9301SOL    HW135018   8.109   7.087   1.172 -1.0316 -0.1702  0.2722
 9301SOL    HW235019   8.240   7.063   1.101 -1.0621  1.1149 -0.2367
 9302SOL     OW35020   7.233   4.394  10.134  0.1644  0.0104 -0.2192
 9302SOL    HW135021   7.296   4.443  10.187  0.7375  0.4599 -1.2873
 9302SOL    HW235022   7.280   4.316  10.107 -0.9204 -1.4814  1.9241
 9303SOL     OW35023  11.093  10.309  10.094  0.1294 -0.1463  0.1029
 9303SOL    HW135024  11.029  10.304  10.165  0.7529  1.6075  0.8626
 9303SOL    HW235025  11.044  10.341  10.019 -0.0894  0.2430  0.4083
 9304SOL     OW35026  12.457   9.255   8.225 -0.2255  0.5968 -0.6064
 9304SOL    HW135027  12.450   9.183   8.289  1.3786  0.8999 -0.0194
 9304SOL    HW235028  12.510   9.218   8.154  1.1929  1.3689  0.0160
 9305SOL     OW35029   9.305   4.084   0.417 -0.0912  0.3622 -0.0931
 9305SOL    HW135030   9.359   4.007   0.435 -0.7854 -0.6650 -2.1163
 9305SOL    HW235031   9.343   4.153   0.471  1.2163 -1.1193  0.9803
 9306SOL     OW35032   2.686   0.475   3.717  0.4303  0.5789 -0.5618
 9306SOL    HW135033   2.721   0.391   3.746 -0.2320  0.3917 -0.2753
 9306SOL    HW235034   2.628   0.453   3.644 -1.4768  0.4854  0.8920
 9307SOL     OW35035  11.679   0.340   7.052 -0.2308  0.0436  0.1070
 9307SOL    HW135036  11.725   0.261   7.080 -2.1033 -1.2723 -0.3356
 9307SOL    HW235037  11.637   0.316   6.969 -2.9159  0.6031  1.1779
 9308SOL     OW35038   4.144   5.332  12.232 -0.4125  0.3355  0.3692
 9308SOL    HW135039   4.162   5.375  12.316  0.5365  0.8494 -0.0755
 9308SOL    HW235040   4.146   5.239  12.253 -2.4148  0.4671  1.3274
 9309SOL     OW35041   4.339   3.218   7.165 -0.0848 -0.0357 -0.1605
 9309SOL    HW135042   4.431   3.242   7.175  1.1180 -1.6953 -4.5061
 9309SOL    HW235043   4.296   3.298   7.134  0.7294  0.0083 -1.2556
 9310SOL     OW35044  12.792   8.375  11.346  0.1623  0.6230 -0.0825
 9310SOL    HW135045  12.786   8.279  11.355  2.4215  0.5648  1.4502
 9310SOL    HW235046  12.701   8.402  11.331 -0.6934 -1.6582  0.4453
 9311SOL     OW35047  11.724  10.282   7.645 -0.1635  0.6497  0.7301
 9311SOL    HW135048  11.756  10.371   7.655  2.1790 -0.2380  1.9397
 9311SOL    HW235049  11.723  10.267   7.550 -1.4515  2.1919  0.4593
 9312SOL     OW35050   8.120   2.006   3.413 -0.1448 -1.0561  0.3637
 9312SOL    HW135051   8.078   1.920   3.409  0.2650 -1.2378 -0.1263
 9312SOL    HW235052   8.175   2.002   3.491  0.5043 -1.5431 -0.1003
 9313SOL     OW35053   7.268   8.622   3.203 -0.0251 -0.4382  0.4944
 9313SOL    HW135054   7.216   8.560   3.255 -0.2054  0.8084  1.8676
 9313SOL    HW235055   7.280   8.697   3.261 -0.3060  1.0654 -1.3168
 9314SOL     OW35056   2.542   4.061   5.430 -0.0743  0.1981 -0.2953
 9314SOL    HW135057   2.551   4.148   5.468 -0.7342  0.2622 -0.2760
 9314SOL    HW235058   2.476   4.017   5.484  0.1749 -0.2827 -0.3676
 9315SOL     OW35059   6.511   0.698   2.506  0.5822 -0.6257 -0.4901
 9315SOL    HW135060   6.443   0.765   2.508  0.2866 -0.7747 -2.6800
 9315SOL    HW235061   6.568   0.723   2.433  1.0757 -2.1557 -0.6751
 9316SOL     OW35062   1.813   3.645   4.849 -0.4625 -0.6514 -0.3184
 9316SOL    HW135063   1.825   3.602   4.934 -0.0088 -0.5872 -0.3477
 9316SOL    HW235064   1.734   3.605   4.813  0.5767 -2.3182 -0.8746
 9317SOL     OW35065   4.729   0.806   4.699 -0.2167  0.1568 -0.4647
 9317SOL    HW135066   4.699   0.717   4.680  0.5313 -0.3474  0.5894
 9317SOL    HW235067   4.772   0.835   4.619  0.6903 -0.9431 -0.4041
 9318SOL     OW35068  10.932   1.510   2.928 -0.6925  0.4235  0.8447
 9318SOL    HW135069  10.994   1.527   2.998 -0.4490 -2.2961  1.3849
 9318SOL    HW235070  10.874   1.442   2.962 -2.1906  0.8372 -0.6898
 9319SOL     OW35071  12.371   4.616   4.868  0.1948  0.5163  0.3322
 9319SOL    HW135072  12.328   4.696   4.837 -0.5780 -0.1706 -0.4048
 9319SOL    HW235073  12.339   4.606   4.958 -0.9415  0.2074 -0.0854
 9320SOL     OW35074   6.036  11.041   7.951 -0.6667 -0.4188 -0.2188
 9320SOL    HW135075   6.111  11.087   7.913 -0.4517 -0.4183  0.1960
 9320SOL    HW235076   5.959  11.084   7.913 -0.5223  1.4523  1.4173
 9321SOL     OW35077   8.498   5.475   1.230  0.2399  0.5053  0.0784
 9321SOL    HW135078   8.570   5.444   1.286  0.2729 -0.6119 -0.5464
 9321SOL    HW235079   8.456   5.395   1.200 -0.0603  1.1011 -1.1291
 9322SOL     OW35080   3.530   0.495   0.263 -0.1359  0.0411 -0.0371
 9322SOL    HW135081   3.511   0.459   0.177 -2.2524  2.9004 -0.9016
 9322SOL    HW235082   3.574   0.424   0.309 -1.9721 -2.7818 -2.3009
 9323SOL     OW35083   9.912  10.623   5.954  0.2661 -0.5302 -0.2852
 9323SOL    HW135084   9.932  10.716   5.944  0.9103 -0.7698 -1.4248
 9323SOL    HW235085   9.831  10.621   6.004 -0.2723  0.6792 -1.0575
 9324SOL     OW35086   6.384  12.323   7.929 -0.1380  0.1543  0.0778
 9324SOL    HW135087   6.446  12.339   8.000  0.7259  0.5784 -0.7369
 9324SOL    HW235088   6.422  12.369   7.854 -0.4900 -1.1206 -0.9240
 9325SOL     OW35089   2.881   9.085   8.762 -0.4084  0.4224  0.4731
 9325SOL    HW135090   2.890   9.135   8.843  0.3283  0.3891  0.4222
 9325SOL    HW235091   2.787   9.081   8.746 -0.4735  3.2963 -0.4694
 9326SOL     OW35092   3.042   7.193  12.376  0.7588 -0.4462  0.0491
 9326SOL    HW135093   3.050   7.143  12.458  1.4698  0.1209  0.3484
 9326SOL    HW235094   3.063   7.283  12.402 -1.2660  0.1696 -0.3227
 9327SOL     OW35095  10.563   1.861  11.507  0.1987 -0.2754 -0.3891
 9327SOL    HW135096  10.535   1.835  11.595  0.5201 -2.0393 -0.7703
 9327SOL    HW235097  10.495   1.825  11.449  0.2608  0.4277 -0.9047
 9328SOL     OW35098   0.333   0.168   4.196  0.0914  0.6241  0.3511
 9328SOL    HW135099   0.353   0.233   4.128 -0.6723  1.9929  1.3862
 9328SOL    HW235100   0.252   0.200   4.236 -0.8027 -1.4775  0.2992
 9329SOL     OW35101   5.065   0.216   6.047 -0.2703 -0.5152 -0.0834
 9329SOL    HW135102   5.027   0.297   6.082 -1.5803 -0.9759 -0.3650
 9329SOL    HW235103   5.129   0.244   5.982 -1.0596  0.3018 -0.5243
 9330SOL     OW35104   6.779  11.721  11.985  0.5487  0.7401 -0.2572
 9330SOL    HW135105   6.746  11.770  11.909  0.1279  2.3649  0.9243
 9330SOL    HW235106   6.839  11.782  12.028  2.5939 -0.9676 -0.4893
 9331SOL     OW35107   4.469   6.847   8.051 -0.5010  0.3756 -0.5803
 9331SOL    HW135108   4.506   6.896   7.978 -0.7657  0.5539 -0.5973
 9331SOL    HW235109   4.395   6.799   8.013 -0.6018  0.4217 -0.4420
 9332SOL     OW35110   9.820  11.413   8.077 -0.3055  0.1778  0.5379
 9332SOL    HW135111   9.845  11.391   7.988  1.1719 -1.0097  1.1943
 9332SOL    HW235112   9.843  11.335   8.129 -1.3650  0.7312  1.9195
 9333SOL     OW35113   6.106  10.858   4.135 -0.1995  0.2882 -0.4954
 9333SOL    HW135114   6.044  10.791   4.106 -0.1800 -0.5367  1.2157
 9333SOL    HW235115   6.191  10.825   4.109 -0.3036  0.3147 -0.8683
 9334SOL     OW35116  11.950   8.735   8.795  0.0272 -0.2812 -0.4259
 9334SOL    HW135117  12.030   8.714   8.746 -1.0184 -1.8080 -1.5734
 9334SOL    HW235118  11.879   8.699   8.742 -1.4135  0.6597  0.7731
 9335SOL     OW35119   6.637   1.735  12.397  0.2361  0.4001 -0.0526
 9335SOL    HW135120   6.723   1.755  12.435  0.4539 -0.1913 -0.2200
 9335SOL    HW235121   6.578   1.799  12.436  0.3397 -0.5517  1.7763
 9336SOL     OW35122   9.552   3.973   3.577 -0.4708 -0.2203 -0.2273
 9336SOL    HW135123   9.469   3.975   3.531 -0.4171 -0.7209 -0.3524
 9336SOL    HW235124   9.542   4.037   3.648 -0.5961  0.4637 -0.8464
 9337SOL     OW35125   6.741  12.758   1.887 -0.0222 -0.2294 -0.2551
 9337SOL    HW135126   6.835  12.750   1.871  0.0766  0.4250 -0.0171
 9337SOL    HW235127   6.706  12.794   1.805  0.0719  0.3890 -0.0323
 9338SOL     OW35128   8.957  12.385   8.543 -0.0964  0.2061  0.4108
 9338SOL    HW135129   8.898  12.388   8.618 -0.7155 -1.4301  0.0296
 9338SOL    HW235130   9.041  12.356   8.580 -0.0048  0.7868  0.6731
 9339SOL     OW35131   6.037  10.083  10.270  0.1522  0.2836 -0.4751
 9339SOL    HW135132   6.057  10.087  10.177 -1.1330  1.3008 -0.7455
 9339SOL    HW235133   6.117  10.113  10.313  1.3725 -1.8909 -1.1217
 9340SOL     OW35134   9.483   6.775  12.349 -0.1774  0.2028 -0.2401
 9340SOL    HW135135   9.452   6.832  12.279 -0.0694  0.6899  0.1061
 9340SOL    HW235136   9.565   6.815  12.378  0.6930 -0.9498 -1.0080
 9341SOL     OW35137   0.848   2.845   9.119  0.2100  0.0585 -0.3421
 9341SOL    HW135138   0.804   2.927   9.142 -1.2553 -0.6485 -0.5335
 9341SOL    HW235139   0.787   2.801   9.060  1.3050 -0.8509 -0.8271
 9342SOL     OW35140  10.793   7.370   2.626  0.4660 -0.4638 -0.2342
 9342SOL    HW135141  10.848   7.387   2.702  0.3142 -2.5779  0.4025
 9342SOL    HW235142  10.705   7.359   2.662 -0.0812  0.9708 -1.0331
 9343SOL     OW35143   6.221   5.921   4.632 -0.7592 -0.0034  0.4244
 9343SOL    HW135144   6.207   5.975   4.710  1.5010  0.4506  0.5883
 9343SOL    HW235145   6.249   5.984   4.565  0.3764 -0.7749  0.1641
 9344SOL     OW35146   5.162   4.851   1.433 -0.5763 -0.0022 -0.1067
 9344SOL    HW135147   5.202   4.813   1.512 -0.4265 -2.1109 -1.1165
 9344SOL    HW235148   5.219   4.823   1.362 -1.6136  0.4500 -1.1522
 9345SOL     OW35149   7.268   4.640   1.601 -0.9277  0.3402  0.1726
 9345SOL    HW135150   7.234   4.711   1.546 -0.2368  0.3795 -0.2302
 9345SOL    HW235151   7.210   4.638   1.677 -1.3053  0.9523 -0.0870
 9346SOL     OW35152   5.842   8.450   8.525 -0.0148 -0.2684  0.5803
 9346SOL    HW135153   5.781   8.394   8.574 -1.0927 -0.1370 -0.5604
 9346SOL    HW235154   5.873   8.395   8.453 -0.4652  0.3427 -0.0887
 9347SOL     OW35155   3.463   2.926   6.337 -0.2905 -0.3638  0.4394
 9347SOL    HW135156   3.419   2.942   6.421 -0.6125  2.5461 -0.1835
 9347SOL    HW235157   3.507   3.008   6.317 -0.9737 -0.6595 -2.6883
 9348SOL     OW35158  12.441   5.448   8.077  0.3288 -0.0810  0.2081
 9348SOL    HW135159  12.431   5.482   7.988  0.3867  2.1377  0.9884
 9348SOL    HW235160  12.525   5.484   8.107 -0.2173  0.1622  1.5316
 9349SOL     OW35161   6.385   5.933   2.477  0.3087 -0.2590 -0.5180
 9349SOL    HW135162   6.298   5.918   2.440  0.0195  0.6400 -0.2223
 9349SOL    HW235163   6.385   6.025   2.503  1.3776 -0.2281 -0.5817
 9350SOL     OW35164   8.121   5.490   4.906  0.3229  0.2730  0.0038
 9350SOL    HW135165   8.181   5.415   4.909 -0.0040 -0.0887 -1.6629
 9350SOL    HW235166   8.135   5.529   4.820 -0.8563  1.0268  0.1266
 9351SOL     OW35167   7.054   8.142   7.361  0.2037  0.1331 -0.2109
 9351SOL    HW135168   7.021   8.053   7.348 -1.3877  0.6160  0.3242
 9351SOL    HW235169   7.088   8.142   7.451 -1.7768  0.6225  0.5716
 9352SOL     OW35170   0.569   0.812   4.444  0.1771  0.2566 -0.1819
 9352SOL    HW135171   0.520   0.884   4.484  0.0851 -0.2372  0.6045
 9352SOL    HW235172   0.523   0.733   4.472  0.9825 -0.1741 -0.0644
 9353SOL     OW35173   7.131   0.747  12.944  0.2930 -0.1759 -0.6141
 9353SOL    HW135174   7.076   0.814  12.904 -1.5040 -0.7458  0.8018
 9353SOL    HW235175   7.205   0.796  12.981 -1.0698  1.1055  0.5567
 9354SOL     OW35176   9.285   7.480  10.328  0.0660 -0.6208 -0.0957
 9354SOL    HW135177   9.273   7.410  10.392 -0.1521 -0.6599 -0.1794
 9354SOL    HW235178   9.380   7.493  10.325  0.0809 -0.6447  0.2055
 9355SOL     OW35179   3.743   3.985  10.284 -0.2816  0.3944 -0.1104
 9355SOL    HW135180   3.665   3.966  10.335  1.1843  2.8808  3.4103
 9355SOL    HW235181   3.785   3.899  10.272 -2.2565 -0.6541  0.0367
 9356SOL     OW35182   7.029   8.098  11.345  0.5694  0.1681 -0.2442
 9356SOL    HW135183   7.063   8.121  11.431  0.3424  0.9026 -0.3434
 9356SOL    HW235184   6.972   8.171  11.321  2.0461  0.8873 -1.8155
 9357SOL     OW35185   7.065   0.474  12.349 -0.1327 -0.5494  0.3482
 9357SOL    HW135186   7.029   0.385  12.338  1.5587 -1.3227  0.7745
 9357SOL    HW235187   7.159   0.460  12.361  0.9631  1.5457 -3.8637
 9358SOL     OW35188   7.051   2.082   6.450 -0.4768  0.7287 -0.1953
 9358SOL    HW135189   7.023   2.035   6.372  0.4977 -1.2061  0.5508
 9358SOL    HW235190   7.132   2.126   6.424  1.0281 -1.6336  0.1958
 9359SOL     OW35191   1.893   4.514   9.718 -0.2924  0.0526 -0.0779
 9359SOL    HW135192   1.961   4.458   9.755  0.7631  1.4969  0.2528
 9359SOL    HW235193   1.866   4.468   9.637  1.6865 -0.1437 -0.6758
 9360SOL     OW35194  12.333   6.757   8.033  0.1020  0.7138 -0.2798
 9360SOL    HW135195  12.289   6.732   7.952  0.4306 -0.3077 -0.1645
 9360SOL    HW235196  12.388   6.831   8.009 -0.0236  0.6041 -0.9261
 9361SOL     OW35197   7.376   5.203  10.162 -0.0330  0.2436  0.3487
 9361SOL    HW135198   7.417   5.117  10.156  0.0012  0.1637  1.4512
 9361SOL    HW235199   7.282   5.185  10.155  0.0214  0.2272 -0.3784
 9362SOL     OW35200   5.218   6.211  11.981  0.8167  0.6440 -0.0305
 9362SOL    HW135201   5.200   6.118  11.968  2.3449  0.4460 -0.9374
 9362SOL    HW235202   5.307   6.214  12.015  1.0226  1.8063 -0.6097
 9363SOL     OW35203  12.555   6.608   5.789 -0.1655  0.2032  0.3056
 9363SOL    HW135204  12.534   6.570   5.874  2.6432 -0.6756  0.7001
 9363SOL    HW235205  12.567   6.701   5.806 -1.5025  0.3780  0.4377
 9364SOL     OW35206  11.186   9.619  11.183 -0.6242 -0.0920 -0.0531
 9364SOL    HW135207  11.123   9.569  11.132 -0.0537 -1.7269  0.7745
 9364SOL    HW235208  11.192   9.573  11.266 -0.7816  1.9286  1.1534
 9365SOL     OW35209   8.758   1.857  12.746  0.4933  0.3184  0.6121
 9365SOL    HW135210   8.768   1.838  12.653  0.2295 -0.1060  0.6707
 9365SOL    HW235211   8.764   1.772  12.789 -1.3820  0.2485  0.8074
 9366SOL     OW35212   0.534  10.753   6.458  0.6079  0.2517 -0.1389
 9366SOL    HW135213   0.446  10.751   6.495  1.0302 -0.4974  0.8665
 9366SOL    HW235214   0.547  10.844   6.433  0.2454  0.7858  1.4686
 9367SOL     OW35215   0.433  12.263  12.401 -0.2067  0.4648  0.3131
 9367SOL    HW135216   0.499  12.299  12.460  0.9843  0.3863 -0.9064
 9367SOL    HW235217   0.349  12.286  12.441  0.5382  0.4416  1.9949
 9368SOL     OW35218   1.511   3.240   0.594  0.4312  0.3162  0.2875
 9368SOL    HW135219   1.424   3.278   0.603  0.8510  1.8278 -1.5041
 9368SOL    HW235220   1.567   3.312   0.563  2.3196 -0.6245  1.2994
 9369SOL     OW35221   4.702   8.012  10.394 -0.0236  0.3317  0.1719
 9369SOL    HW135222   4.638   7.956  10.436  0.5903 -0.6063 -0.0988
 9369SOL    HW235223   4.662   8.099  10.392 -0.0119  0.4805  2.8151
 9370SOL     OW35224   9.892   9.483   0.004 -0.2168  0.2120 -0.5567
 9370SOL    HW135225   9.834   9.538   0.056  0.4735  0.8537 -0.4540
 9370SOL    HW235226   9.885   9.517  -0.085  0.8801  1.0530 -0.3382
 9371SOL     OW35227   9.583   5.102  10.363 -0.3350  0.5092  0.2756
 9371SOL    HW135228   9.601   5.172  10.299 -0.6144  0.6876  0.3922
 9371SOL    HW235229   9.506   5.132  10.410 -0.8911 -0.2227 -0.1592
 9372SOL     OW35230   2.359   4.013   6.911  0.1080  0.3094 -0.0953
 9372SOL    HW135231   2.408   3.956   6.852  0.2754  1.2188 -0.8617
 9372SOL    HW235232   2.275   3.969   6.922 -0.6759  0.9845 -2.5566
 9373SOL     OW35233  10.932   0.593   3.188  0.2606 -0.0300  0.2449
 9373SOL    HW135234  10.972   0.579   3.274 -0.5624 -0.8161  0.5132
 9373SOL    HW235235  10.996   0.555   3.126  1.3657  1.5031  0.3820
 9374SOL     OW35236   3.219   7.439   7.536  0.7220 -0.0824  0.2630
 9374SOL    HW135237   3.231   7.348   7.562  0.2262  0.1567  1.3668
 9374SOL    HW235238   3.238   7.440   7.442  1.3682 -1.1947  0.3742
 9375SOL     OW35239   3.850   2.421  11.527  0.2926  0.1869 -0.0929
 9375SOL    HW135240   3.815   2.342  11.568 -1.4421  0.6269 -0.6472
 9375SOL    HW235241   3.853   2.486  11.597 -0.4270  0.2654 -0.1308
 9376SOL     OW35242  11.097  12.392  10.249 -0.0528 -0.5031 -0.0855
 9376SOL    HW135243  11.030  12.344  10.298  1.1453 -0.3014  1.8758
 9376SOL    HW235244  11.090  12.360  10.160 -2.5878 -0.6440  0.1086
 9377SOL     OW35245  11.531  11.217   1.350 -0.1595 -0.3541 -0.4298
 9377SOL    HW135246  11.492  11.293   1.307 -3.3148 -0.8959  1.1619
 9377SOL    HW235247  11.517  11.145   1.288 -1.2970 -0.4173 -0.1365
 9378SOL     OW35248   2.463  11.301   9.667  0.5158 -0.0009  0.5013
 9378SOL    HW135249   2.532  11.366   9.650  1.8334 -1.1294  1.2798
 9378SOL    HW235250   2.408  11.340   9.734  1.0778  0.4731  0.6898
 9379SOL     OW35251  11.843   9.962   9.529  0.0646 -0.0687  0.0284
 9379SOL    HW135252  11.806   9.889   9.578  0.6664 -1.7838 -1.9353
 9379SOL    HW235253  11.778   9.981   9.461  0.4026  0.5107 -0.1418
 9380SOL     OW35254   3.393   4.009   6.515 -0.5146 -0.2730  0.0915
 9380SOL    HW135255   3.298   4.001   6.522 -0.2648 -2.3929  2.2789
 9380SOL    HW235256   3.425   3.987   6.602  1.9963  0.6573 -0.5221
 9381SOL     OW35257   8.053  11.112   9.366 -0.2006  0.7249  0.1954
 9381SOL    HW135258   7.966  11.104   9.328 -0.9590 -0.6890  2.0770
 9381SOL    HW235259   8.069  11.207   9.370 -2.1297  1.0697  0.8063
 9382SOL     OW35260   3.320   8.605  11.780  0.1794  0.1157 -0.1974
 9382SOL    HW135261   3.398   8.612  11.835  0.8679 -0.2141 -1.1093
 9382SOL    HW235262   3.272   8.686  11.796  1.1255  0.7000 -0.2444
 9383SOL     OW35263   0.472  12.671   1.542 -0.1150 -0.1184 -0.0968
 9383SOL    HW135264   0.479  12.766   1.547  2.1290 -0.2665  0.5451
 9383SOL    HW235265   0.436  12.644   1.626  1.6901  0.0267  0.7635
 9384SOL     OW35266  11.314  10.884   3.974  0.3930 -0.2902  0.1905
 9384SOL    HW135267  11.362  10.964   3.952  1.5511 -0.9253  0.2943
 9384SOL    HW235268  11.248  10.912   4.037 -0.1444  0.8080 -0.8272
 9385SOL     OW35269  11.158  10.477   6.817 -0.9190 -0.3758  0.6327
 9385SOL    HW135270  11.191  10.407   6.760 -1.2709 -1.8344  2.1505
 9385SOL    HW235271  11.073  10.446   6.847  0.0398 -0.5726  3.4221
 9386SOL     OW35272   2.368   2.313   9.532  0.3050 -0.0397 -0.5787
 9386SOL    HW135273   2.378   2.331   9.626 -1.4109 -1.6648 -0.0175
 9386SOL    HW235274   2.293   2.366   9.505 -1.0831 -1.7476 -0.2750
 9387SOL     OW35275   8.152  12.950  12.537 -0.3423  0.1711  0.5203
 9387SOL    HW135276   8.224  13.006  12.565 -2.2528  2.2503  1.5877
 9387SOL    HW235277   8.153  12.956  12.441  0.8277  0.2123  0.5255
 9388SOL     OW35278   1.485   4.726   5.911 -0.8243 -0.3837  0.6110
 9388SOL    HW135279   1.464   4.747   6.002  1.0565 -0.4306  1.0953
 9388SOL    HW235280   1.577   4.752   5.901 -0.1189 -2.9547 -0.4437
 9389SOL     OW35281  11.461  11.164   8.601 -0.6243 -0.3041  0.0732
 9389SOL    HW135282  11.402  11.236   8.580 -0.7893 -1.1624 -2.8715
 9389SOL    HW235283  11.423  11.124   8.679 -2.0868  1.1286  0.1491
 9390SOL     OW35284   2.872   3.605   4.676  0.3446  0.7583 -0.3129
 9390SOL    HW135285   2.831   3.615   4.590  0.2541  2.1521 -0.1359
 9390SOL    HW235286   2.958   3.567   4.658 -0.3508 -0.6416 -0.8366
 9391SOL     OW35287  10.559   4.685   0.214 -0.0600 -0.1475 -0.2164
 9391SOL    HW135288  10.522   4.674   0.302  0.0699  0.6034 -0.0651
 9391SOL    HW235289  10.644   4.641   0.218 -0.0112 -0.0292  0.0621
 9392SOL     OW35290   2.870  12.702  12.633 -0.2024  0.2320  0.2705
 9392SOL    HW135291   2.784  12.676  12.599  0.3470  0.4466 -1.3367
 9392SOL    HW235292   2.849  12.759  12.707 -1.4402 -0.0059  0.1393
 9393SOL     OW35293   8.289   8.565   5.834 -0.5623 -0.0818 -0.1216
 9393SOL    HW135294   8.341   8.598   5.761 -0.4161 -3.7547 -1.9569
 9393SOL    HW235295   8.353   8.522   5.891 -0.9412  0.8086  0.9962
 9394SOL     OW35296   6.910   6.316   2.425  0.4899  0.2749 -0.1862
 9394SOL    HW135297   6.824   6.357   2.421 -0.2357 -1.1446  0.0640
 9394SOL    HW235298   6.903   6.240   2.367  1.8663  0.6385 -0.8599
 9395SOL     OW35299   6.589   7.189   2.980 -0.9013  0.1776  0.1826
 9395SOL    HW135300   6.651   7.262   2.980 -0.3377 -0.2962 -0.3917
 9395SOL    HW235301   6.593   7.154   3.069 -0.1503 -0.0037  0.0841
 9396SOL     OW35302   1.485  11.803   8.048 -0.0023 -0.3268 -0.3147
 9396SOL    HW135303   1.393  11.827   8.057  0.0601  0.1039 -0.7926
 9396SOL    HW235304   1.526  11.838   8.127 -0.4367 -1.5305  0.4768
 9397SOL     OW35305   0.616   8.505   6.795 -0.4333 -0.7291  0.1884
 9397SOL    HW135306   0.692   8.479   6.848  0.2312  1.8166  0.6135
 9397SOL    HW235307   0.653   8.564   6.729 -1.9348  0.0047 -0.0298
 9398SOL     OW35308  10.886   0.871   3.273  0.2873 -0.7047 -0.3164
 9398SOL    HW135309  10.859   0.779   3.261  0.8018 -0.9150  0.0859
 9398SOL    HW235310  10.977   0.873   3.244  0.2800 -0.3262 -0.3056
 9399SOL     OW35311   3.335   4.753  11.627 -0.2724 -0.0249  0.0728
 9399SOL    HW135312   3.425   4.736  11.653  0.0005 -2.0237 -1.7887
 9399SOL    HW235313   3.285   4.749  11.708  1.1755 -0.0345  0.9998
 9400SOL     OW35314   4.147   4.703   8.250 -0.4013 -0.2206  0.5580
 9400SOL    HW135315   4.148   4.648   8.172 -0.2355  0.1976  0.2652
 9400SOL    HW235316   4.080   4.769   8.234  1.2036  1.2897 -0.2387
 9401SOL     OW35317  11.905   7.689   9.298 -1.1699 -0.5282 -0.1080
 9401SOL    HW135318  11.920   7.748   9.372  0.8696 -0.1494 -0.7666
 9401SOL    HW235319  11.878   7.606   9.339 -1.0143 -0.0440  1.0109
 9402SOL     OW35320   0.161   5.668   5.273 -0.0956 -0.1084  0.0546
 9402SOL    HW135321   0.097   5.718   5.323 -2.0908 -0.0031 -2.4185
 9402SOL    HW235322   0.113   5.593   5.239  1.2681 -0.4541 -1.2271
 9403SOL     OW35323   7.229   0.640  10.266  0.1351  0.6926  0.4050
 9403SOL    HW135324   7.262   0.550  10.265 -1.3089  0.0421 -3.0768
 9403SOL    HW235325   7.304   0.692  10.293  2.0382 -1.2776 -0.7567
 9404SOL     OW35326  12.045   0.977   7.478  0.0502 -0.0059 -0.1618
 9404SOL    HW135327  12.057   1.063   7.438 -0.7615  0.3474  0.3117
 9404SOL    HW235328  12.003   0.996   7.563  1.2637 -0.7561  0.6368
 9405SOL     OW35329   9.268  11.881  12.632  0.1788  0.4874  0.8694
 9405SOL    HW135330   9.239  11.807  12.579 -1.8268  1.6605  0.2104
 9405SOL    HW235331   9.262  11.849  12.722 -0.3205 -0.2595  0.5868
 9406SOL     OW35332   5.361   8.081  12.138  0.3574 -0.3958 -0.5148
 9406SOL    HW135333   5.408   8.047  12.062  3.8303 -0.6422  1.5254
 9406SOL    HW235334   5.383   8.020  12.209 -1.9481  0.3420  0.9531
 9407SOL     OW35335   5.680   2.636   9.636 -0.4898  0.2081 -0.4518
 9407SOL    HW135336   5.655   2.546   9.656 -2.3527  0.8581  0.3509
 9407SOL    HW235337   5.731   2.629   9.554  0.4728 -1.6591  0.2400
 9408SOL     OW35338   5.468   4.994   4.021 -0.2572  0.3915 -0.1990
 9408SOL    HW135339   5.543   5.053   4.012  0.9453 -1.0161  0.0704
 9408SOL    HW235340   5.410   5.017   3.948  0.8778  0.9117 -0.9635
 9409SOL     OW35341   2.912  10.721   9.769 -0.6724 -0.6318  0.1823
 9409SOL    HW135342   2.837  10.682   9.724 -0.9381  0.0631  0.0085
 9409SOL    HW235343   2.879  10.805   9.802  0.3006  0.1309 -0.7443
 9410SOL     OW35344  12.947   4.028   3.958  0.7249 -0.3497 -0.0115
 9410SOL    HW135345  13.007   4.101   3.975  0.8710 -0.1407 -1.3274
 9410SOL    HW235346  12.878   4.038   4.024  1.3336  0.3107  0.5438
 9411SOL     OW35347   3.588   7.693   9.395  0.7769  0.8383  0.0952
 9411SOL    HW135348   3.666   7.638   9.396  0.7311  0.7608  1.3970
 9411SOL    HW235349   3.617   7.776   9.357  1.9143  1.3482  1.9101
 9412SOL     OW35350   1.470   0.792  12.569  0.2380 -0.2626  0.0640
 9412SOL    HW135351   1.403   0.764  12.631 -0.3605 -0.1057 -0.5107
 9412SOL    HW235352   1.522   0.713  12.553 -1.9631 -1.3820 -2.2242
 9413SOL     OW35353   5.846   7.967   2.177 -0.5015  0.2361 -0.5836
 9413SOL    HW135354   5.915   7.908   2.146 -0.4147 -0.4104  0.7786
 9413SOL    HW235355   5.888   8.052   2.186 -0.2190  0.1440 -1.0078
 9414SOL     OW35356  10.274   6.907   3.881 -0.2455  0.0373  0.0652
 9414SOL    HW135357  10.258   6.841   3.949  1.9143 -0.6378 -0.0181
 9414SOL    HW235358  10.264   6.860   3.799  0.0729  0.1095 -0.0168
 9415SOL     OW35359  10.952   9.331  10.538  0.2760  0.0505 -0.5715
 9415SOL    HW135360  11.012   9.356  10.609  1.1848 -0.3807 -1.1721
 9415SOL    HW235361  10.880   9.286  10.583  0.3661  0.6278  0.1676
 9416SOL     OW35362   3.777  12.170   5.313 -1.2322  0.3221  0.4975
 9416SOL    HW135363   3.724  12.092   5.328 -2.8006  1.2886  0.1935
 9416SOL    HW235364   3.798  12.167   5.220 -1.4550  0.3586  0.4457
 9417SOL     OW35365   1.378   2.158   4.661 -0.2774  0.2381  1.0797
 9417SOL    HW135366   1.342   2.074   4.633  1.5134  0.0773 -0.9492
 9417SOL    HW235367   1.447   2.135   4.722 -0.4751  0.3063  1.3319
 9418SOL     OW35368   3.169   9.478   3.738 -0.2325 -0.1204 -0.4682
 9418SOL    HW135369   3.181   9.433   3.654 -1.8564 -0.7718 -0.3723
 9418SOL    HW235370   3.092   9.533   3.726 -1.0827 -0.9544  0.8637
 9419SOL     OW35371   1.309   5.662  10.201  0.7576 -0.3028  0.3730
 9419SOL    HW135372   1.305   5.704  10.286 -0.2565 -0.2826  0.3295
 9419SOL    HW235373   1.240   5.596  10.203 -1.0321  1.3589 -1.2762
 9420SOL     OW35374   8.691  12.336   4.065  0.0041 -0.1802 -0.1657
 9420SOL    HW135375   8.720  12.306   4.151 -0.5044 -0.6098 -0.1376
 9420SOL    HW235376   8.659  12.257   4.022 -1.6102  0.3477  0.0039
 9421SOL     OW35377   8.211   8.004  10.432 -0.0493 -0.3267  0.6977
 9421SOL    HW135378   8.276   7.999  10.502 -0.0539  0.8335  0.7987
 9421SOL    HW235379   8.152   8.075  10.459  0.3430  0.6108 -0.7953
 9422SOL     OW35380   5.898   1.545   2.109  0.4298  0.1922  0.3570
 9422SOL    HW135381   5.813   1.586   2.101  0.6422  0.8817  1.4224
 9422SOL    HW235382   5.961   1.615   2.090  0.7756 -0.5474 -1.4271
 9423SOL     OW35383   0.702  11.420   9.638 -0.2568  0.6884 -0.4078
 9423SOL    HW135384   0.629  11.452   9.692  0.8377  1.3339  0.7389
 9423SOL    HW235385   0.686  11.459   9.551 -1.2797  0.8049 -0.1863
 9424SOL     OW35386   5.960  12.329   6.296  0.5549  0.3770  0.5632
 9424SOL    HW135387   5.945  12.416   6.260  4.1887  0.1404 -2.1185
 9424SOL    HW235388   6.045  12.334   6.339 -0.2496 -1.3355  2.5618
 9425SOL     OW35389   7.536   7.360  10.597 -0.0396 -0.3773 -0.0574
 9425SOL    HW135390   7.612   7.325  10.550  0.0642  0.1822 -0.3165
 9425SOL    HW235391   7.570   7.434  10.646 -0.7621  1.2104 -1.7912
 9426SOL     OW35392   3.294   8.558   4.396  1.1488 -0.2409 -0.8319
 9426SOL    HW135393   3.306   8.605   4.479 -2.6895  2.0877 -1.3488
 9426SOL    HW235394   3.348   8.606   4.334  0.9387  0.5774 -0.4070
 9427SOL     OW35395  10.336   4.443   9.351 -0.5577  0.6366 -0.2501
 9427SOL    HW135396  10.317   4.462   9.259  1.2343 -1.8179 -1.2536
 9427SOL    HW235397  10.431   4.453   9.358 -0.8367  2.3856  1.8170
 9428SOL     OW35398   0.139   6.486  11.055 -0.3446 -0.3498  0.1764
 9428SOL    HW135399   0.226   6.475  11.094 -0.5726  1.1020  1.1757
 9428SOL    HW235400   0.090   6.409  11.083 -0.0079 -0.1426  1.3992
 9429SOL     OW35401   8.282   4.802   8.367  0.2326  0.0969  0.3140
 9429SOL    HW135402   8.360   4.858   8.365 -0.9310  1.8197 -1.4919
 9429SOL    HW235403   8.214   4.857   8.407 -1.0298  0.2253 -1.8233
 9430SOL     OW35404   0.660   2.700   6.264 -0.5879 -0.1978 -0.3609
 9430SOL    HW135405   0.567   2.678   6.265 -0.4233 -1.0940  1.9519
 9430SOL    HW235406   0.663   2.796   6.266 -1.6037 -0.1156  3.0775
 9431SOL     OW35407   6.856  11.723  12.724  0.0680 -0.0764 -0.6932
 9431SOL    HW135408   6.826  11.800  12.772  0.5279  0.2188 -0.8731
 9431SOL    HW235409   6.781  11.664  12.723 -0.6876  0.8751 -1.5995
 9432SOL     OW35410   9.845   9.706   7.752 -0.4791 -0.4514  0.0593
 9432SOL    HW135411   9.794   9.626   7.739 -1.0892 -0.1573  0.5699
 9432SOL    HW235412   9.879   9.698   7.841 -2.3474  0.8228  0.9444
 9433SOL     OW35413   7.708   8.669  12.122 -0.0865 -0.2814  0.0570
 9433SOL    HW135414   7.785   8.684  12.177 -0.1991  1.2140 -0.1498
 9433SOL    HW235415   7.691   8.754  12.080 -0.2311 -1.2582 -2.0045
 9434SOL     OW35416  10.873   7.612   6.518 -0.1568 -0.5165 -0.2190
 9434SOL    HW135417  10.828   7.580   6.596  1.2916 -0.6785  0.5895
 9434SOL    HW235418  10.841   7.702   6.508 -0.5230 -0.5645  0.4273
 9435SOL     OW35419   8.760   5.522  11.027  0.3841 -0.0448  0.1214
 9435SOL    HW135420   8.669   5.507  11.001  0.5220 -0.3480 -0.1926
 9435SOL    HW235421   8.758   5.608  11.070 -0.3742 -0.8588  1.7937
 9436SOL     OW35422   2.017   6.124   1.956  0.0876 -0.7401  0.5016
 9436SOL    HW135423   2.023   6.217   1.980 -2.6872 -0.8773  2.3330
 9436SOL    HW235424   2.097   6.085   1.991  1.5355  0.9671 -0.7072
 9437SOL     OW35425   1.481   1.795  12.444  0.3735 -0.3802 -0.1561
 9437SOL    HW135426   1.456   1.833  12.528 -0.8602  1.5684 -1.3386
 9437SOL    HW235427   1.404   1.746  12.416  1.0250 -1.6162  0.1254
 9438SOL     OW35428   2.769   2.919  11.399  0.1698  0.0987 -0.2956
 9438SOL    HW135429   2.736   2.920  11.489  0.4518 -1.6597 -0.1427
 9438SOL    HW235430   2.702   2.874  11.349 -0.0122  1.1200 -1.0024
 9439SOL     OW35431   2.359   1.903   9.137  0.0452 -0.1320 -0.0141
 9439SOL    HW135432   2.449   1.902   9.167 -0.6148  2.9529  2.5405
 9439SOL    HW235433   2.344   1.993   9.107 -2.1315 -0.6086 -0.5678
 9440SOL     OW35434   4.666   0.489   5.562  0.3102 -0.4408  0.0656
 9440SOL    HW135435   4.713   0.406   5.551  1.1916 -0.0222  0.5060
 9440SOL    HW235436   4.731   0.556   5.539 -0.7217  0.1149 -1.3669
 9441SOL     OW35437   1.032  11.057  10.934 -0.0522  0.1767 -0.5290
 9441SOL    HW135438   1.038  11.036  11.027 -0.7473  0.9087 -0.3101
 9441SOL    HW235439   1.084  10.989  10.891 -1.3833 -1.4009  0.2327
 9442SOL     OW35440   1.415  11.847  11.569 -0.1787  0.4315 -0.4265
 9442SOL    HW135441   1.320  11.847  11.576 -0.2414 -1.5027 -0.7271
 9442SOL    HW235442   1.441  11.757  11.589  1.5549  0.7866 -0.8490
 9443SOL     OW35443   5.865   9.568   4.912 -0.2326  0.6907 -0.2486
 9443SOL    HW135444   5.957   9.564   4.940  0.4312  0.8496 -2.2803
 9443SOL    HW235445   5.839   9.658   4.929 -0.6020  0.2460  1.9143
 9444SOL     OW35446   9.075   0.216  11.296 -0.5930  0.1375  0.2804
 9444SOL    HW135447   9.026   0.244  11.373 -2.5946 -0.7711 -0.5908
 9444SOL    HW235448   9.153   0.271  11.295 -1.4477  1.4501  1.8973
 9445SOL     OW35449   1.131   9.149  11.974 -0.0174  0.1080  0.7479
 9445SOL    HW135450   1.090   9.235  11.966 -1.5859 -0.3569  2.9398
 9445SOL    HW235451   1.060   9.086  11.961  1.1280 -0.9404 -0.9743
 9446SOL     OW35452   1.040  10.112   5.581  0.3678 -0.6153 -0.2871
 9446SOL    HW135453   1.076  10.184   5.529  0.9139  0.0904  1.0254
 9446SOL    HW235454   0.958  10.147   5.617  0.1971 -0.9625 -0.3296
 9447SOL     OW35455   0.672   4.390   0.147  0.0336 -0.1037  0.1657
 9447SOL    HW135456   0.724   4.469   0.163  0.3115 -0.3754  0.6294
 9447SOL    HW235457   0.588   4.410   0.189  0.8952 -0.9716  2.4863
 9448SOL     OW35458   1.289  12.354   3.876  0.2408  0.3317  0.2624
 9448SOL    HW135459   1.313  12.415   3.807 -0.0410 -0.2583 -0.3647
 9448SOL    HW235460   1.282  12.269   3.833 -1.6357  0.2447  0.6464
 9449SOL     OW35461   6.011  10.521   9.934  0.0625 -0.2829 -0.3632
 9449SOL    HW135462   5.977  10.604   9.967 -0.3928 -0.1998 -1.0142
 9449SOL    HW235463   6.051  10.479  10.010  0.6010  0.6835 -0.1067
 9450SOL     OW35464   6.326   2.331   8.882  0.3282  0.0602 -0.6943
 9450SOL    HW135465   6.239   2.291   8.883 -0.1481  0.9458 -2.6287
 9450SOL    HW235466   6.376   2.280   8.946 -1.7268 -0.1239  0.8787
 9451SOL     OW35467  11.869   3.337   6.155 -0.2508 -0.4541  0.0809
 9451SOL    HW135468  11.806   3.281   6.200  0.7273 -1.2062  0.5415
 9451SOL    HW235469  11.821   3.418   6.140 -0.9958 -0.6115  1.3916
 9452SOL     OW35470   5.288   2.271   4.940  0.1647  0.6346 -0.0398
 9452SOL    HW135471   5.334   2.261   4.857  0.5622  0.1180  0.2353
 9452SOL    HW235472   5.208   2.319   4.918 -0.3099 -0.5084 -0.9199
 9453SOL     OW35473   5.408   0.969   9.323  0.1944  0.1590  0.3235
 9453SOL    HW135474   5.464   1.040   9.354  1.7045 -1.6147  1.9252
 9453SOL    HW235475   5.324   0.985   9.366  0.9189  0.2942  1.7487
 9454SOL     OW35476   9.358   1.307  12.882 -0.4123 -0.6162  0.3447
 9454SOL    HW135477   9.324   1.391  12.854 -0.3088 -0.9887 -0.9896
 9454SOL    HW235478   9.412   1.277  12.809 -1.6157 -2.4998  0.1413
 9455SOL     OW35479   1.573  11.245   2.501  0.9460 -0.2222  0.3399
 9455SOL    HW135480   1.656  11.231   2.454  0.1142  0.4012 -1.4007
 9455SOL    HW235481   1.538  11.326   2.463 -0.3859 -0.3742  1.1985
 9456SOL     OW35482   3.821  12.057   2.812 -0.0828  0.1670 -0.4315
 9456SOL    HW135483   3.913  12.032   2.814  0.4145  1.8955  0.9417
 9456SOL    HW235484   3.820  12.139   2.763 -0.9739 -0.1092 -0.8848
 9457SOL     OW35485   1.487   3.881   8.244  0.3599 -0.3236 -0.0433
 9457SOL    HW135486   1.507   3.804   8.193 -0.4132 -0.2935 -0.4091
 9457SOL    HW235487   1.551   3.880   8.316 -0.0770 -1.6851  0.3615
 9458SOL     OW35488  12.871   9.251   4.446 -0.3064  0.4263 -0.4218
 9458SOL    HW135489  12.797   9.192   4.433 -1.1101  1.6425 -1.6911
 9458SOL    HW235490  12.840   9.313   4.512 -0.8752  1.6048 -1.7589
 9459SOL     OW35491   9.676   6.969  10.094 -0.5566 -0.0302  0.2042
 9459SOL    HW135492   9.645   7.057  10.115  1.0413  0.5620  0.2369
 9459SOL    HW235493   9.680   6.966   9.999 -0.8107 -0.1447  0.1963
 9460SOL     OW35494   5.042   6.678   9.788 -0.2078  0.3201  0.4002
 9460SOL    HW135495   5.024   6.751   9.729  0.3975 -0.1947 -0.4411
 9460SOL    HW235496   5.136   6.664   9.781 -0.0126  0.6425  1.9763
 9461SOL     OW35497   3.446   9.902   2.168 -0.0681 -0.2855  0.0119
 9461SOL    HW135498   3.385   9.849   2.117 -0.5856  0.8671 -0.6027
 9461SOL    HW235499   3.393   9.943   2.236  0.3448 -0.6049  0.5440
 9462SOL     OW35500   2.710  12.894   5.674 -0.5536 -0.1728 -0.0178
 9462SOL    HW135501   2.804  12.881   5.676 -0.2007  1.5798 -1.6622
 9462SOL    HW235502   2.684  12.864   5.587 -1.3471  0.2301  0.0703
 9463SOL     OW35503   7.271   3.072   8.306  0.6879  0.2185  0.3213
 9463SOL    HW135504   7.366   3.075   8.309  0.6931  1.8196 -0.2701
 9463SOL    HW235505   7.243   3.129   8.378  0.2466  1.7974 -1.0392
 9464SOL     OW35506   4.191   1.723   4.337 -0.3315 -0.5631 -0.1287
 9464SOL    HW135507   4.108   1.771   4.338 -0.5259 -0.8763  1.8271
 9464SOL    HW235508   4.239   1.757   4.413  1.1609 -0.7192 -0.9599
 9465SOL     OW35509  12.466  12.760   5.279  0.2125 -0.4689 -0.7308
 9465SOL    HW135510  12.435  12.758   5.369 -1.5320  1.6775 -1.1983
 9465SOL    HW235511  12.526  12.835   5.275  0.7856 -0.9377 -1.2246
 9466SOL     OW35512   2.119   8.753   0.515  0.3899  0.5404 -0.3578
 9466SOL    HW135513   2.139   8.703   0.594  1.3520  0.3546 -0.7071
 9466SOL    HW235514   2.027   8.775   0.524  0.3454  0.0498  0.5543
 9467SOL     OW35515   7.304   4.696   8.138  0.2656 -0.0445  0.2214
 9467SOL    HW135516   7.349   4.644   8.071 -0.1067 -0.2826  0.1551
 9467SOL    HW235517   7.280   4.632   8.205  1.4170  0.3218  1.0195
 9468SOL     OW35518  11.428   9.086  12.261  0.1498  0.1020  0.1062
 9468SOL    HW135519  11.523   9.094  12.248  0.0339 -0.4261 -1.3037
 9468SOL    HW235520  11.418   9.005  12.312  0.4022 -0.9203 -1.3852
 9469SOL     OW35521   2.229   5.778   2.666 -0.0274  0.0661  0.2884
 9469SOL    HW135522   2.173   5.724   2.610  1.8749 -0.8624 -0.8405
 9469SOL    HW235523   2.238   5.728   2.746  1.4060 -1.2146 -0.6071
 9470SOL     OW35524   8.612   4.656   8.769 -0.0046 -0.4516  0.3688
 9470SOL    HW135525   8.581   4.575   8.728 -0.5302  0.4822 -1.1985
 9470SOL    HW235526   8.694   4.676   8.723  0.2769 -0.2556  0.9527
 9471SOL     OW35527   3.500   3.936   6.744 -0.3267 -0.0506 -0.9880
 9471SOL    HW135528   3.563   3.865   6.753 -1.4370 -1.1334 -1.5403
 9471SOL    HW235529   3.467   3.950   6.832  2.7773  2.6272 -0.0125
 9472SOL     OW35530  10.144   6.990   2.655  0.2349  0.2423  1.0717
 9472SOL    HW135531  10.138   7.028   2.567 -0.6958 -0.3056  0.8826
 9472SOL    HW235532  10.056   6.958   2.673  0.5916 -0.2911  1.9259
 9473SOL     OW35533   7.989  12.589   7.385 -0.5367  0.0852  0.1671
 9473SOL    HW135534   8.064  12.645   7.401  0.1144 -0.4508 -0.9704
 9473SOL    HW235535   7.916  12.650   7.370 -0.6269  0.6120  2.4005
 9474SOL     OW35536  12.330  11.419  12.671  0.3230 -0.2002  1.0540
 9474SOL    HW135537  12.345  11.463  12.754  1.3638 -0.5069  1.0425
 9474SOL    HW235538  12.407  11.441  12.618  0.8862 -2.0042  1.0456
 9475SOL     OW35539  11.119  10.085   8.136 -0.0003  0.5038 -0.2468
 9475SOL    HW135540  11.204  10.128   8.126 -0.1130  1.0369  0.8309
 9475SOL    HW235541  11.116  10.019   8.067  1.3455  0.3909 -0.2188
 9476SOL     OW35542   4.558  10.890   5.437  0.0864  0.4077  0.6209
 9476SOL    HW135543   4.619  10.920   5.369 -1.4806 -0.1715 -1.1457
 9476SOL    HW235544   4.521  10.971   5.473 -0.0394  0.7149 -0.1773
 9477SOL     OW35545  12.122   9.757   1.424  0.3987  0.1430 -0.0375
 9477SOL    HW135546  12.143   9.838   1.379 -1.8225  0.7147 -0.1275
 9477SOL    HW235547  12.199   9.701   1.410  0.7070  1.0856 -2.6293
 9478SOL     OW35548   0.882   6.225   7.610  0.0884 -0.1994  0.1040
 9478SOL    HW135549   0.903   6.131   7.607  0.5542 -0.1157  0.6956
 9478SOL    HW235550   0.965   6.269   7.594 -0.0856  0.1186  0.0736
 9479SOL     OW35551   9.280   9.490   1.875  0.0210 -0.1969 -0.0714
 9479SOL    HW135552   9.240   9.572   1.907  2.8760  1.3062 -0.0521
 9479SOL    HW235553   9.322   9.452   1.953 -0.0090 -0.8955 -0.3914
 9480SOL     OW35554   8.413   0.806   5.068  0.2953  0.2751 -0.3733
 9480SOL    HW135555   8.408   0.827   5.161  0.6982  0.1578 -0.3245
 9480SOL    HW235556   8.448   0.717   5.066  0.5418  0.3782 -0.6447
 9481SOL     OW35557   0.579  11.988   7.982  0.4475  0.2544 -0.7855
 9481SOL    HW135558   0.516  11.919   8.000  0.6420 -0.3479 -2.2769
 9481SOL    HW235559   0.528  12.069   7.985 -0.0864 -0.0913 -0.5274
 9482SOL     OW35560   0.165   9.715   0.117 -0.1150  0.3886  0.1574
 9482SOL    HW135561   0.149   9.748   0.028  1.0666  1.4354  0.2993
 9482SOL    HW235562   0.124   9.780   0.174  3.1054  2.3660  0.4777
 9483SOL     OW35563   3.858   3.927   1.495  0.4278 -0.1499 -0.1675
 9483SOL    HW135564   3.863   3.928   1.590 -0.4218 -0.9723 -0.0925
 9483SOL    HW235565   3.790   3.991   1.473  0.0826 -0.5151 -0.1694
 9484SOL     OW35566   0.891   3.341   8.617 -0.6633 -0.2917 -0.3228
 9484SOL    HW135567   0.941   3.327   8.697 -1.2354  0.3679  0.1558
 9484SOL    HW235568   0.866   3.253   8.589 -1.0238 -0.4838  0.5818
 9485SOL     OW35569   8.743  12.624   4.143 -0.0748  0.7920  0.6732
 9485SOL    HW135570   8.836  12.645   4.135  0.2906 -0.0139  2.4323
 9485SOL    HW235571   8.735  12.537   4.105  0.0556  0.5044  1.3012
 9486SOL     OW35572   5.195  11.236   0.288 -0.3145  0.0322  0.6631
 9486SOL    HW135573   5.227  11.278   0.368  0.3133  2.2774 -0.6745
 9486SOL    HW235574   5.269  11.184   0.257  0.2888  1.0538  0.3323
 9487SOL     OW35575   3.190  11.897  11.892 -0.5930 -0.2248 -0.1895
 9487SOL    HW135576   3.172  11.989  11.875  0.3502 -0.2335 -1.3584
 9487SOL    HW235577   3.185  11.855  11.807  0.8575 -0.9144  0.0358
 9488SOL     OW35578   5.633   5.740  12.647  0.3110 -0.6215  0.3132
 9488SOL    HW135579   5.663   5.649  12.642  0.5247 -0.5424  0.1522
 9488SOL    HW235580   5.667   5.781  12.568  0.2170 -0.4002  0.3878
 9489SOL     OW35581   8.092   4.966   8.493 -0.7524 -0.0946 -0.1273
 9489SOL    HW135582   8.047   4.965   8.578 -0.7343  1.8249 -0.0564
 9489SOL    HW235583   8.025   4.995   8.431  0.2728  2.7785 -0.0246
 9490SOL     OW35584   6.813   6.080   0.434  0.2474 -0.7406 -0.6201
 9490SOL    HW135585   6.905   6.105   0.429 -0.1184  0.5058 -1.5680
 9490SOL    HW235586   6.765   6.161   0.420 -1.0269 -1.1371  1.1111
 9491SOL     OW35587  12.546  11.488   9.689 -0.1025 -0.0232  0.0963
 9491SOL    HW135588  12.619  11.443   9.647  0.3000 -0.0665  0.8253
 9491SOL    HW235589  12.528  11.563   9.632  0.5735  0.0399 -0.0374
 9492SOL     OW35590   5.865  11.898   9.950  0.1516 -0.0551  0.1505
 9492SOL    HW135591   5.876  11.832  10.019 -1.6196  0.0427  0.5554
 9492SOL    HW235592   5.955  11.923   9.927  0.8265 -1.6428  0.9083
 9493SOL     OW35593   4.556  10.230   6.358 -0.6056 -0.4484  0.0218
 9493SOL    HW135594   4.498  10.286   6.306 -0.3680  0.1531  0.4093
 9493SOL    HW235595   4.644  10.264   6.342 -0.5939  0.2444  1.4241
 9494SOL     OW35596  12.637   4.787  12.469  0.4784  0.2466  0.2670
 9494SOL    HW135597  12.647   4.712  12.528  0.2664  0.6453  0.8171
 9494SOL    HW235598  12.592   4.854  12.522  1.7671  1.2191  0.1906
 9495SOL     OW35599   9.921   8.535  10.792  0.0881  0.1799  0.5052
 9495SOL    HW135600  10.013   8.512  10.805  0.2923  0.7046  0.0506
 9495SOL    HW235601   9.900   8.593  10.865  0.0972  0.0015  0.6497
 9496SOL     OW35602   8.237   2.529   5.774 -0.4148  0.1558 -0.4363
 9496SOL    HW135603   8.155   2.481   5.773 -0.7450  0.7164 -1.2139
 9496SOL    HW235604   8.298   2.475   5.723 -0.1748 -0.4616  0.4915
 9497SOL     OW35605   1.878   8.813  10.496  0.4437 -0.3641  0.4309
 9497SOL    HW135606   1.849   8.903  10.480  1.5395 -0.3929 -2.3706
 9497SOL    HW235607   1.804   8.772  10.541 -1.5517  1.0674 -1.2919
 9498SOL     OW35608   1.118   2.933   4.724  0.0747 -0.1165  0.1034
 9498SOL    HW135609   1.174   2.944   4.647  2.3107 -0.4129  1.6020
 9498SOL    HW235610   1.113   3.020   4.762  2.4535 -0.6134  1.8126
 9499SOL     OW35611  10.250  11.273   8.685  0.0862 -0.3357  0.1279
 9499SOL    HW135612  10.343  11.295   8.688  0.1117 -0.4938  1.6515
 9499SOL    HW235613  10.206  11.355   8.664  0.5230 -0.0397  0.3593
 9500SOL     OW35614   0.554   2.781   2.098  0.2328 -0.1556  0.6229
 9500SOL    HW135615   0.515   2.777   2.186 -0.0753 -0.1402  0.4872
 9500SOL    HW235616   0.514   2.708   2.051  1.0550 -0.7026  0.7559
 9501SOL     OW35617   7.538   3.801   1.137 -0.5655 -0.3077  0.3516
 9501SOL    HW135618   7.538   3.842   1.051  0.4800 -1.2551 -0.1183
 9501SOL    HW235619   7.619   3.830   1.178  0.4604 -2.2159 -0.1845
 9502SOL     OW35620   8.899   2.297   5.439 -0.0113 -0.0331  0.8858
 9502SOL    HW135621   8.979   2.255   5.472  2.5856  2.4489 -1.7158
 9502SOL    HW235622   8.874   2.244   5.364 -1.1939 -1.0796  1.9709
 9503SOL     OW35623   2.776   0.818  10.584 -0.4558  0.2704 -0.3087
 9503SOL    HW135624   2.831   0.751  10.626 -1.0135  0.8955  1.5440
 9503SOL    HW235625   2.705   0.768  10.543 -1.9023 -0.3212  2.6139
 9504SOL     OW35626   6.923   9.902   4.331  0.8756  0.1574  0.3499
 9504SOL    HW135627   7.008   9.927   4.296  0.8254  1.4462  1.0792
 9504SOL    HW235628   6.932   9.913   4.426 -0.2582  0.9306  0.3958
 9505SOL     OW35629   7.706   5.675   8.945  0.3996 -0.0526  0.7675
 9505SOL    HW135630   7.638   5.646   9.005 -0.2981  0.3440  0.1888
 9505SOL    HW235631   7.764   5.730   8.999  0.4036 -0.5795  1.3136
 9506SOL     OW35632  12.955   0.657  10.280  0.0703  0.2100 -0.2154
 9506SOL    HW135633  12.903   0.662  10.200 -0.2210  1.3338  0.0253
 9506SOL    HW235634  13.009   0.736  10.278 -0.0636  0.3389  0.7822
 9507SOL     OW35635   4.976   7.628  10.121  0.0722  0.2566 -0.0179
 9507SOL    HW135636   4.898   7.613  10.067  1.4570 -2.2198 -1.4883
 9507SOL    HW235637   5.033   7.554  10.102  2.2971  1.3380  1.9689
 9508SOL     OW35638   8.040  11.443   4.898 -0.6040 -0.1891 -0.3821
 9508SOL    HW135639   8.058  11.378   4.830  0.4659  0.0294 -0.3272
 9508SOL    HW235640   8.109  11.509   4.887 -0.7930  0.1755  0.5100
 9509SOL     OW35641  10.533   3.876   9.332 -0.2968 -0.4928  0.2112
 9509SOL    HW135642  10.599   3.904   9.268 -1.3237  0.5907 -0.4270
 9509SOL    HW235643  10.480   3.811   9.284 -0.6602 -0.1746  0.1786
 9510SOL     OW35644   7.330   4.349   9.173  0.2899  0.7704 -0.3588
 9510SOL    HW135645   7.380   4.428   9.193  4.1782 -1.6308  0.6057
 9510SOL    HW235646   7.321   4.304   9.256  1.0816 -1.2478 -1.2914
 9511SOL     OW35647   9.801  11.580  11.045  0.2264  0.5586 -0.0418
 9511SOL    HW135648   9.896  11.576  11.035  0.5629 -1.4036  2.6124
 9511SOL    HW235649   9.768  11.513  10.985  0.3343  2.1054 -1.9112
 9512SOL     OW35650   7.679   5.641  11.486 -0.5741  0.1334 -0.3889
 9512SOL    HW135651   7.708   5.589  11.561 -1.6384  1.4918  1.0381
 9512SOL    HW235652   7.613   5.586  11.443 -0.0132 -0.6289 -0.2922
 9513SOL     OW35653   5.275   4.942   2.973 -0.9188 -0.0226  0.5542
 9513SOL    HW135654   5.190   4.912   2.940 -0.8769 -0.5179  0.8933
 9513SOL    HW235655   5.270   4.931   3.068  0.0207 -1.3651  0.4689
 9514SOL     OW35656  10.279   6.005  11.921 -0.2417  0.6191  0.0206
 9514SOL    HW135657  10.367   6.037  11.940 -0.3755  0.3277  1.2614
 9514SOL    HW235658  10.258   6.040  11.835  1.1175  0.6275 -0.3302
 9515SOL     OW35659  11.166   3.312   2.263  0.1477  0.5733 -0.2443
 9515SOL    HW135660  11.119   3.382   2.219  0.2891  0.0969 -1.1800
 9515SOL    HW235661  11.250   3.307   2.219  0.8796  1.0299  1.0394
 9516SOL     OW35662  12.723   6.314   4.120 -0.1485  0.1647  0.6743
 9516SOL    HW135663  12.731   6.365   4.039 -0.1959  1.2613  1.3344
 9516SOL    HW235664  12.716   6.224   4.091 -2.7671  0.7098 -0.7007
 9517SOL     OW35665   4.248   3.200   4.701 -0.1372 -0.1273 -0.2051
 9517SOL    HW135666   4.287   3.143   4.767  0.2648 -0.3054 -0.5919
 9517SOL    HW235667   4.268   3.157   4.617 -1.3295 -0.3336 -0.4078
 9518SOL     OW35668  11.669   7.392  10.181 -0.7514 -0.0583  0.4875
 9518SOL    HW135669  11.671   7.381  10.276  1.2375  1.6135  0.7000
 9518SOL    HW235670  11.635   7.480  10.167  0.8740  0.4929 -0.2147
 9519SOL     OW35671   4.273   1.660  11.239 -0.1840  0.5353  0.0834
 9519SOL    HW135672   4.306   1.749  11.252 -3.6510  2.3925 -2.3461
 9519SOL    HW235673   4.181   1.671  11.218 -0.7450 -3.6887 -0.6053
 9520SOL     OW35674   0.908   2.392  11.048 -0.6084 -0.0545 -0.2213
 9520SOL    HW135675   0.847   2.430  11.111 -0.1394  0.5296 -0.1085
 9520SOL    HW235676   0.930   2.464  10.989  0.1968 -0.1742 -0.0856
 9521SOL     OW35677   7.463   6.852   6.957 -0.3232  0.3108 -0.5098
 9521SOL    HW135678   7.420   6.920   6.906  1.3905  1.2252 -0.8077
 9521SOL    HW235679   7.551   6.845   6.919 -0.2832 -1.7165 -0.1554
 9522SOL     OW35680   8.177   3.905   5.218 -0.4242  0.1321 -1.1143
 9522SOL    HW135681   8.103   3.916   5.277  0.1095 -1.5837 -0.0642
 9522SOL    HW235682   8.227   3.986   5.226 -1.4821  0.7676 -0.8355
 9523SOL     OW35683   3.221   5.692   7.034  0.3091  0.1650 -0.6081
 9523SOL    HW135684   3.146   5.635   7.053  0.2969  0.5226  0.5175
 9523SOL    HW235685   3.295   5.632   7.028  0.3744  0.0290  1.0246
 9524SOL     OW35686   8.157  10.215   4.800 -0.5256 -0.7802  0.5503
 9524SOL    HW135687   8.171  10.137   4.747 -0.5027 -1.6422  1.7835
 9524SOL    HW235688   8.130  10.282   4.737  2.0726 -0.9960 -0.9423
 9525SOL     OW35689   6.376  10.874  10.220 -0.0063 -0.1971 -0.3771
 9525SOL    HW135690   6.291  10.912  10.200 -0.8381 -1.8099 -0.0860
 9525SOL    HW235691   6.436  10.948  10.220 -1.1581  0.7968 -1.9163
 9526SOL     OW35692   5.777   2.027  10.695 -0.7756 -0.6070 -0.2334
 9526SOL    HW135693   5.838   2.101  10.690 -1.3042 -0.1643 -0.2329
 9526SOL    HW235694   5.801   1.971  10.621 -0.2103 -0.5566 -0.0881
 9527SOL     OW35695   8.828  10.920   4.073 -0.4202  0.1675  0.1636
 9527SOL    HW135696   8.879  10.944   4.150  0.4662  0.5298 -0.5104
 9527SOL    HW235697   8.747  10.970   4.080 -0.8811 -0.6921  1.4423
 9528SOL     OW35698   2.895   9.414   8.070 -0.1916  0.2599  0.4534
 9528SOL    HW135699   2.825   9.386   8.011 -0.4929 -1.0008  1.3561
 9528SOL    HW235700   2.974   9.375   8.033  0.0711  1.7451 -0.6073
 9529SOL     OW35701   8.746  10.106   7.361 -0.1410 -0.2182 -0.0485
 9529SOL    HW135702   8.661  10.086   7.321 -0.2787 -0.4910  0.3753
 9529SOL    HW235703   8.752  10.202   7.358 -0.5037 -0.1925  0.0068
 9530SOL     OW35704   2.762   1.407   2.730 -0.3683 -0.1526  0.4026
 9530SOL    HW135705   2.669   1.406   2.756 -0.3640  0.8994  0.4693
 9530SOL    HW235706   2.761   1.439   2.640 -0.0735 -0.3300  0.3350
 9531SOL     OW35707  11.488  12.175  11.160 -0.1562  0.2534  0.0327
 9531SOL    HW135708  11.544  12.104  11.127 -0.5281  0.2710 -0.6578
 9531SOL    HW235709  11.445  12.209  11.082 -1.1941  0.1815  0.5620
 9532SOL     OW35710   4.687   7.557   4.571 -0.0835  0.2652 -0.0456
 9532SOL    HW135711   4.612   7.612   4.549 -1.1811  0.0266  2.7054
 9532SOL    HW235712   4.650   7.485   4.622  1.7468 -1.2425 -0.7037
 9533SOL     OW35713  11.279  10.968   8.684  0.2285 -0.6157  0.1693
 9533SOL    HW135714  11.209  11.005   8.630  1.0191 -0.2323 -0.6189
 9533SOL    HW235715  11.243  10.968   8.773 -0.0010  1.6137  0.1359
 9534SOL     OW35716   0.008   4.704   8.887 -0.0239  0.3830  0.5574
 9534SOL    HW135717  -0.065   4.675   8.832  0.6484  1.0117 -0.7074
 9534SOL    HW235718   0.057   4.624   8.907 -0.6852  0.0495  0.8674
 9535SOL     OW35719   9.442  10.577   3.815  0.2962 -0.3408  0.4728
 9535SOL    HW135720   9.452  10.527   3.897 -0.3643  0.6613  1.1838
 9535SOL    HW235721   9.523  10.559   3.767  0.4143 -1.4611  1.0501
 9536SOL     OW35722  12.875   8.639   1.174 -0.1084  0.0945  0.6803
 9536SOL    HW135723  12.885   8.716   1.231  1.0444  1.1835 -0.9136
 9536SOL    HW235724  12.963   8.605   1.163 -0.4786 -0.8265  0.4805
 9537SOL     OW35725   1.376   9.066   9.104  0.4036 -0.4856 -0.3781
 9537SOL    HW135726   1.396   8.978   9.073 -0.5304 -0.9608  0.3121
 9537SOL    HW235727   1.300   9.093   9.052  0.1904 -0.4177 -0.0335
 9538SOL     OW35728   0.355   9.299   4.337  0.2604  0.5262 -0.6105
 9538SOL    HW135729   0.398   9.382   4.358  2.0285 -0.1769 -1.2467
 9538SOL    HW235730   0.261   9.318   4.342  0.6074  1.9898  1.4494
 9539SOL     OW35731   9.184   8.358   3.058  0.0133 -0.1664 -0.7292
 9539SOL    HW135732   9.195   8.415   2.982  1.3443 -0.0921 -0.4895
 9539SOL    HW235733   9.212   8.411   3.132  0.0190 -0.7040 -0.3399
 9540SOL     OW35734   2.294   5.789   4.949 -0.2999 -0.1446  0.1851
 9540SOL    HW135735   2.293   5.747   5.035 -0.0337 -0.5541 -0.0097
 9540SOL    HW235736   2.204   5.821   4.937  0.1243  1.6832  1.4644
 9541SOL     OW35737   7.798   0.746  10.457 -0.2886  0.1659  0.2913
 9541SOL    HW135738   7.835   0.677  10.402 -1.5276 -0.5870  0.3623
 9541SOL    HW235739   7.852   0.823  10.439  1.5620 -0.9694  0.7225
 9542SOL     OW35740   1.611   9.003   4.910  0.1574  0.3080 -0.5746
 9542SOL    HW135741   1.678   9.068   4.893  0.5366 -0.1304 -0.7591
 9542SOL    HW235742   1.626   8.976   5.001  0.4994 -0.0939 -0.7464
 9543SOL     OW35743   9.422   5.908   9.234  0.6489 -0.3231  0.0925
 9543SOL    HW135744   9.405   5.929   9.326 -2.4521  1.3833 -0.7743
 9543SOL    HW235745   9.464   5.986   9.198 -1.7764  0.6435 -0.7985
 9544SOL     OW35746   9.958   3.772   4.216 -0.2656  0.2504  0.0394
 9544SOL    HW135747   9.888   3.765   4.281  0.1756  2.1467  0.7868
 9544SOL    HW235748   9.951   3.862   4.183  1.6627  0.4353 -0.0086
 9545SOL     OW35749  11.411   8.065   8.012  0.0956  0.1677 -0.0194
 9545SOL    HW135750  11.483   8.082   7.951 -1.1756 -0.2276 -1.7134
 9545SOL    HW235751  11.454   8.047   8.096  1.8587  2.1843 -0.4104
 9546SOL     OW35752  12.268   6.464   1.598  0.2194 -0.3876  0.3533
 9546SOL    HW135753  12.299   6.480   1.687 -0.9735  1.1911  0.5245
 9546SOL    HW235754  12.261   6.369   1.592 -0.0640 -0.5033  2.0790
 9547SOL     OW35755   7.158   2.048   9.858  0.9740  0.1356 -0.1942
 9547SOL    HW135756   7.175   1.966   9.905  2.3328  1.7281  2.3063
 9547SOL    HW235757   7.227   2.107   9.887 -0.6231  2.5475 -1.0112
 9548SOL     OW35758   9.737  11.120   1.407  0.0712 -0.2401 -0.6650
 9548SOL    HW135759   9.732  11.091   1.498  1.2624 -2.0192 -1.0996
 9548SOL    HW235760   9.784  11.050   1.362 -0.4647  0.5916 -2.6656
 9549SOL     OW35761   5.712   4.421   3.281  0.3474 -0.2263  0.3247
 9549SOL    HW135762   5.667   4.465   3.209 -0.4491 -1.6835 -0.1087
 9549SOL    HW235763   5.672   4.458   3.360 -0.3805 -0.2282 -0.0309
 9550SOL     OW35764   7.177   0.222   1.759  0.3431 -0.3392  0.3719
 9550SOL    HW135765   7.267   0.250   1.739 -0.4760  1.5884 -0.9489
 9550SOL    HW235766   7.142   0.292   1.815 -1.2578  0.5945 -1.6509
 9551SOL     OW35767  11.228   6.571   8.252 -0.0822 -0.0320 -0.2549
 9551SOL    HW135768  11.251   6.513   8.179 -1.7119 -0.7761 -0.2043
 9551SOL    HW235769  11.233   6.516   8.330 -1.9104 -0.2353 -0.2358
 9552SOL     OW35770   7.804   2.365   4.903  0.3075  0.0726 -0.0300
 9552SOL    HW135771   7.741   2.389   4.835 -1.9645  0.9053  2.2051
 9552SOL    HW235772   7.828   2.275   4.884  0.2726  0.4668 -2.2422
 9553SOL     OW35773   7.614   7.797   5.354 -0.4697 -0.1108  0.0920
 9553SOL    HW135774   7.605   7.707   5.323 -0.5777 -0.4513  1.0935
 9553SOL    HW235775   7.622   7.790   5.449  3.0940  0.6468  0.0056
 9554SOL     OW35776   3.561   4.564   4.694  0.4569  0.1597 -0.9091
 9554SOL    HW135777   3.537   4.475   4.720 -2.3011  0.9317 -0.5088
 9554SOL    HW235778   3.522   4.575   4.608  1.5144  0.7258 -1.3287
 9555SOL     OW35779   5.390  11.563   1.433  0.2815 -0.0059  0.6409
 9555SOL    HW135780   5.396  11.583   1.527  1.3188 -0.9784  0.8020
 9555SOL    HW235781   5.308  11.515   1.424  0.4404 -0.3817  1.1482
 9556SOL     OW35782  10.792   9.897   2.954 -0.5499 -0.6640  0.0635
 9556SOL    HW135783  10.874   9.855   2.981 -0.5056 -0.9140 -0.4470
 9556SOL    HW235784  10.763   9.846   2.878 -0.6862  0.0011 -0.3437
 9557SOL     OW35785   0.874   2.516   2.081 -0.1596  0.6154  0.2489
 9557SOL    HW135786   0.804   2.522   2.016  0.0488 -0.0002 -0.0453
 9557SOL    HW235787   0.955   2.521   2.030  0.0056  0.4994  0.4962
 9558SOL     OW35788   9.241   4.183   2.428  0.2892 -0.5176 -0.4565
 9558SOL    HW135789   9.290   4.204   2.348  1.8863  0.2073  0.6668
 9558SOL    HW235790   9.211   4.267   2.461  1.1073 -0.6090  0.5891
 9559SOL     OW35791   9.919   4.093   9.479  0.2045  0.1445 -0.1641
 9559SOL    HW135792   9.943   4.174   9.432 -0.3271  2.2710  2.9466
 9559SOL    HW235793  10.001   4.062   9.517 -0.0790  1.0203  1.1973
 9560SOL     OW35794  10.483  10.484  12.469 -0.1141  0.2368 -0.1306
 9560SOL    HW135795  10.479  10.462  12.562  0.8913  0.4870 -0.0109
 9560SOL    HW235796  10.517  10.404  12.427  0.0364  0.3353 -0.1971
 9561SOL     OW35797   9.734   7.547   7.935  0.0458 -0.2882  0.5297
 9561SOL    HW135798   9.778   7.514   8.014 -1.9281 -2.4872  0.8143
 9561SOL    HW235799   9.762   7.488   7.865  1.0802  1.1207 -0.3229
 9562SOL     OW35800  11.788   6.580   0.279 -0.7424 -0.2452  0.0960
 9562SOL    HW135801  11.748   6.519   0.341 -1.1135  1.0613  1.1988
 9562SOL    HW235802  11.816   6.654   0.334  0.5819  0.1395 -1.0623
 9563SOL     OW35803   9.274   8.421  10.330 -0.5069  0.2764 -0.1348
 9563SOL    HW135804   9.243   8.424  10.420  0.4002  1.6698  0.1671
 9563SOL    HW235805   9.327   8.341  10.326 -1.1475 -0.1852  0.3411
 9564SOL     OW35806   4.267   7.572   6.005 -0.2200  0.6227  0.6768
 9564SOL    HW135807   4.339   7.621   5.965  0.7881  0.7511  2.5303
 9564SOL    HW235808   4.206   7.640   6.035 -1.3446  0.5080 -1.1585
 9565SOL     OW35809  11.982   2.792   7.426 -0.1559  0.2397 -0.3429
 9565SOL    HW135810  12.076   2.777   7.426 -0.1234  0.3617  0.7793
 9565SOL    HW235811  11.972   2.878   7.384  0.5145  1.5621  1.9731
 9566SOL     OW35812   3.841  11.275  12.138 -0.0636 -0.2455  0.6545
 9566SOL    HW135813   3.840  11.284  12.233  1.3661 -1.3394  0.8252
 9566SOL    HW235814   3.759  11.313  12.108  0.0676  1.3489  2.2010
 9567SOL     OW35815   1.751  11.104   8.467  0.4128 -0.1488  0.2713
 9567SOL    HW135816   1.775  11.143   8.551 -0.8446  1.2837  0.0050
 9567SOL    HW235817   1.744  11.010   8.485 -1.5415  0.2884  2.2484
 9568SOL     OW35818  10.427   4.610   6.064 -0.3987 -0.3298  0.6884
 9568SOL    HW135819  10.418   4.577   5.975 -1.8114 -0.8018  0.9742
 9568SOL    HW235820  10.415   4.532   6.119 -0.5520  0.1212  1.3067
 9569SOL     OW35821   2.418  11.177  11.629  0.1229 -0.1738 -0.4617
 9569SOL    HW135822   2.391  11.122  11.555 -1.2746  0.0166 -0.1082
 9569SOL    HW235823   2.337  11.211  11.665  0.8647  0.6735  0.4593
 9570SOL     OW35824  12.383   3.990   0.248 -0.1984  0.3575  0.0622
 9570SOL    HW135825  12.364   3.923   0.183  0.1169 -0.3723  0.7028
 9570SOL    HW235826  12.426   3.942   0.319  1.0479  1.4110  0.0507
 9571SOL     OW35827   5.774   8.035  11.645  0.1060 -0.4337  0.2840
 9571SOL    HW135828   5.867   8.020  11.627 -0.1512 -0.2348 -1.3851
 9571SOL    HW235829   5.774   8.096  11.719  1.3917  1.6569 -1.3113
 9572SOL     OW35830   2.118  10.354  12.285  0.1186 -0.2107  0.2744
 9572SOL    HW135831   2.162  10.382  12.365  0.5517 -0.1558  0.0163
 9572SOL    HW235832   2.130  10.427  12.224  0.9888 -0.8187 -0.2989
 9573SOL     OW35833   6.445   8.952  11.148  0.2654 -0.4707  0.0328
 9573SOL    HW135834   6.473   9.040  11.125  1.1848 -0.5849  0.6648
 9573SOL    HW235835   6.350   8.958  11.156  0.3353  0.4943  0.2000
 9574SOL     OW35836  11.680   1.798   3.698 -0.2875 -0.0226 -0.4576
 9574SOL    HW135837  11.678   1.737   3.772  0.8359  1.1240  0.5669
 9574SOL    HW235838  11.669   1.884   3.738 -0.1956  0.5808 -1.6946
 9575SOL     OW35839   8.815   6.434  11.124 -0.1119  0.1464 -0.3070
 9575SOL    HW135840   8.802   6.348  11.085  1.3151 -0.3277  0.1951
 9575SOL    HW235841   8.910   6.449  11.117 -0.3271  1.6568 -0.3381
 9576SOL     OW35842   0.314  12.185   1.532 -0.1352 -0.3291 -0.1192
 9576SOL    HW135843   0.225  12.210   1.555  0.6756  4.5245 -1.2370
 9576SOL    HW235844   0.363  12.192   1.614 -0.0164  1.6889 -0.3230
 9577SOL     OW35845  11.621   5.900   0.026 -0.1079 -0.2917 -0.1064
 9577SOL    HW135846  11.614   5.844   0.103 -0.7385 -0.3992 -0.2349
 9577SOL    HW235847  11.640   5.841  -0.046 -0.9268 -0.3679 -0.2679
 9578SOL     OW35848   4.409  12.007  11.621 -0.4935 -0.1936 -0.2541
 9578SOL    HW135849   4.462  12.002  11.700  0.9713 -2.7441 -1.2625
 9578SOL    HW235850   4.323  11.975  11.647 -0.8620  1.5918  0.8513
 9579SOL     OW35851   7.352   7.167   7.398  0.4493 -0.3725  0.2860
 9579SOL    HW135852   7.293   7.242   7.392  2.5819  1.4816  0.8407
 9579SOL    HW235853   7.437   7.201   7.368  1.2635 -2.9177 -0.5774
 9580SOL     OW35854  12.463  11.230   8.983  0.1126  0.1023  0.2738
 9580SOL    HW135855  12.541  11.182   9.012  1.0229  1.0717 -0.5191
 9580SOL    HW235856  12.410  11.164   8.938  0.2011 -0.6841  1.2595
 9581SOL     OW35857  11.248   0.716   0.760  0.3244 -0.4820 -0.0804
 9581SOL    HW135858  11.258   0.811   0.771 -3.1863 -0.0273  0.3742
 9581SOL    HW235859  11.277   0.679   0.844 -0.3847  0.4405  0.5909
 9582SOL     OW35860  12.939   5.838   6.144 -0.4852 -0.2029  0.2139
 9582SOL    HW135861  13.003   5.906   6.127  1.8650 -2.2273  0.4200
 9582SOL    HW235862  12.974   5.760   6.101 -2.5491 -1.5459  0.7914
 9583SOL     OW35863   5.295   3.432   6.194 -0.2131 -0.2949 -0.7654
 9583SOL    HW135864   5.379   3.450   6.151  0.8441 -1.1396  0.8359
 9583SOL    HW235865   5.241   3.508   6.174  1.3770  0.8751 -0.7984
 9584SOL     OW35866   1.846   5.905   5.253 -0.8495  0.1299 -0.0392
 9584SOL    HW135867   1.818   5.996   5.266 -1.5500  0.1206 -1.3372
 9584SOL    HW235868   1.935   5.902   5.289 -0.7709  1.3632 -0.1003
 9585SOL     OW35869   0.867   1.838  11.566 -0.0900  0.4923  0.0726
 9585SOL    HW135870   0.861   1.746  11.542 -1.8892  0.7610 -0.7044
 9585SOL    HW235871   0.895   1.837  11.658  0.6410 -0.7817 -0.1358
 9586SOL     OW35872   1.351  10.827   6.682  0.4619  0.3374 -0.0258
 9586SOL    HW135873   1.319  10.862   6.765  2.4121  1.8922  0.1589
 9586SOL    HW235874   1.306  10.743   6.672 -0.8683  0.7591  1.8961
 9587SOL     OW35875   7.135   8.634   4.242 -0.3795  0.3074 -0.1901
 9587SOL    HW135876   7.087   8.578   4.303  1.5187 -0.9721  0.2362
 9587SOL    HW235877   7.068   8.684   4.196 -2.2229 -2.6168 -0.9076
 9588SOL     OW35878   5.385  12.527  11.351  0.4424  0.7012  0.5317
 9588SOL    HW135879   5.373  12.618  11.379 -1.6724  0.3794  0.7836
 9588SOL    HW235880   5.333  12.520  11.271  0.7452 -0.2563  0.4105
 9589SOL     OW35881   6.966  10.174   9.722 -0.8699  0.0247 -0.4755
 9589SOL    HW135882   7.012  10.090   9.720 -3.0586 -1.3847  2.1854
 9589SOL    HW235883   7.027  10.235   9.680  2.2052 -2.2288  0.3360
 9590SOL     OW35884  10.817   6.309   7.572  0.1505  0.4827  0.5988
 9590SOL    HW135885  10.745   6.313   7.508  0.5332 -1.0353  0.0394
 9590SOL    HW235886  10.775   6.286   7.654 -0.0322 -0.2660  0.3010
 9591SOL     OW35887   3.246   7.865   7.782 -0.5668  0.3098 -0.0095
 9591SOL    HW135888   3.199   7.812   7.846 -2.4177  0.7321 -0.9305
 9591SOL    HW235889   3.288   7.802   7.724  1.4378 -0.0798  1.7550
 9592SOL     OW35890  10.702   3.190   2.898  0.4885  0.5465  0.2128
 9592SOL    HW135891  10.620   3.235   2.918 -0.3358 -1.2297  1.0105
 9592SOL    HW235892  10.765   3.261   2.883 -0.7694  1.9649  1.3064
 9593SOL     OW35893  12.726   4.986   8.783 -0.7074  0.3373 -0.2820
 9593SOL    HW135894  12.732   5.041   8.861 -0.9060 -0.5551  0.3648
 9593SOL    HW235895  12.675   4.910   8.810  1.7416 -1.4701 -0.4220
 9594SOL     OW35896   8.915   3.274   0.748  0.2343 -0.5723 -0.1136
 9594SOL    HW135897   8.903   3.289   0.842  1.2918 -0.7422  0.0617
 9594SOL    HW235898   9.010   3.273   0.736  0.2902  3.7210 -1.8329
 9595SOL     OW35899   5.820   5.581  12.460  0.1992  0.2194  0.3953
 9595SOL    HW135900   5.827   5.595  12.366 -0.1783 -0.7633  0.2088
 9595SOL    HW235901   5.908   5.594  12.493  0.1601  1.4782  0.0455
 9596SOL     OW35902   9.267   5.200   4.618  0.1776  0.0209  0.0015
 9596SOL    HW135903   9.280   5.106   4.632 -0.5793 -0.5118 -2.4458
 9596SOL    HW235904   9.295   5.240   4.701 -0.7652 -2.4262  1.6224
 9597SOL     OW35905  11.707   3.206   8.400  0.1563 -0.0016  0.5578
 9597SOL    HW135906  11.649   3.249   8.463 -0.0761 -0.7936  0.8954
 9597SOL    HW235907  11.772   3.273   8.379  0.1588  0.3316  1.5394
 9598SOL     OW35908  12.513   4.561   2.278  0.3638  0.1017 -0.0281
 9598SOL    HW135909  12.545   4.527   2.195 -1.8043 -0.6761 -0.6101
 9598SOL    HW235910  12.508   4.484   2.335 -0.9527  0.0636 -0.1513
 9599SOL     OW35911   6.490   7.082   6.377 -0.2874  0.1091  0.5707
 9599SOL    HW135912   6.504   7.174   6.403  0.2428  0.0575  0.4689
 9599SOL    HW235913   6.565   7.035   6.414 -0.1012 -0.1434 -0.1167
 9600SOL     OW35914   2.356  10.505   5.174 -0.2043  0.0881 -0.1453
 9600SOL    HW135915   2.268  10.535   5.153 -0.8750 -1.2250  0.6958
 9600SOL    HW235916   2.380  10.448   5.101  0.5772  1.5916 -1.1188
 9601SOL     OW35917   5.566  12.687  10.114  0.2282 -0.3531 -0.1263
 9601SOL    HW135918   5.471  12.698  10.124  0.4311  4.1849 -0.7384
 9601SOL    HW235919   5.591  12.625  10.182 -2.9739 -0.2469  1.3290
 9602SOL     OW35920   6.052   2.430   5.895  0.4959 -0.0123 -0.1573
 9602SOL    HW135921   6.047   2.516   5.938  0.0720 -0.6762  1.1577
 9602SOL    HW235922   6.143   2.421   5.869  0.9075  0.1428  1.1898
 9603SOL     OW35923   6.395   0.304   9.531  0.3457 -0.3098 -0.7011
 9603SOL    HW135924   6.343   0.249   9.589 -0.0743 -0.0542 -0.8275
 9603SOL    HW235925   6.361   0.393   9.546  0.0372 -0.2773 -1.5362
 9604SOL     OW35926   0.887   6.036   1.995 -0.0186  0.0819  0.5370
 9604SOL    HW135927   0.840   6.119   1.997  1.5312  0.9803  1.4117
 9604SOL    HW235928   0.844   5.986   1.925 -0.8110  1.7004 -0.1876
 9605SOL     OW35929   8.603   1.381  11.725 -0.8581 -0.1567 -0.2089
 9605SOL    HW135930   8.553   1.446  11.775 -1.6483 -1.2334  0.4624
 9605SOL    HW235931   8.543   1.306  11.717  0.1228 -0.9191 -0.6941
 9606SOL     OW35932   7.285  11.669  11.197  0.3552  0.4249 -0.2305
 9606SOL    HW135933   7.263  11.703  11.110  1.2240 -1.3025 -1.1723
 9606SOL    HW235934   7.378  11.648  11.193 -0.2317 -2.6195  0.0272
 9607SOL     OW35935  11.917   2.891   8.698 -0.3560  0.2051  0.0892
 9607SOL    HW135936  11.980   2.819   8.700  0.8584  1.2093 -0.9340
 9607SOL    HW235937  11.953   2.957   8.757 -0.8784  0.4532  0.1446
 9608SOL     OW35938  12.702   9.053   1.622  0.0329  0.2488 -0.2234
 9608SOL    HW135939  12.644   9.038   1.547 -0.7542  0.7559  0.2693
 9608SOL    HW235940  12.660   9.008   1.695  0.9787 -0.5467 -0.1446
 9609SOL     OW35941   2.968   2.666   9.160 -0.3580 -0.4355  0.3588
 9609SOL    HW135942   2.967   2.591   9.101 -0.1983  0.2147 -0.4796
 9609SOL    HW235943   3.053   2.707   9.147 -0.4394 -0.1074  0.8143
 9610SOL     OW35944   1.961   3.086   2.412  0.0903  0.1859 -0.0228
 9610SOL    HW135945   1.881   3.035   2.426  0.6123 -1.4486 -2.3649
 9610SOL    HW235946   2.032   3.029   2.442  0.4548  1.8318  2.5534
 9611SOL     OW35947  12.860  10.760   6.012  0.8237 -0.1613 -0.1399
 9611SOL    HW135948  12.945  10.754   6.057 -0.1075  1.2021  1.9916
 9611SOL    HW235949  12.857  10.683   5.955  3.3770 -0.3710 -0.1140
 9612SOL     OW35950   2.132   2.771   5.854 -0.3439  0.4291 -0.1071
 9612SOL    HW135951   2.217   2.767   5.898 -0.7183  0.8351  0.6834
 9612SOL    HW235952   2.150   2.816   5.771  0.7630 -2.1798 -1.4048
 9613SOL     OW35953   3.018   5.438   7.555 -0.1940  0.0558  0.6444
 9613SOL    HW135954   2.981   5.453   7.468 -1.9456 -0.5205  1.2313
 9613SOL    HW235955   3.038   5.345   7.557  2.4538  0.5486 -0.0380
 9614SOL     OW35956   3.350   2.370   7.524  0.1753  0.1314 -0.1912
 9614SOL    HW135957   3.394   2.286   7.526 -0.2966 -0.1210 -0.3033
 9614SOL    HW235958   3.287   2.367   7.596 -1.0442 -0.2875 -1.2282
 9615SOL     OW35959   1.512   6.262   9.361 -0.0436  0.1087 -0.1399
 9615SOL    HW135960   1.426   6.277   9.321 -0.5664  0.9786  1.2387
 9615SOL    HW235961   1.560   6.211   9.296 -1.6614 -0.5626 -0.8624
 9616SOL     OW35962   8.141   4.343  11.382 -0.2146 -0.6095  0.5822
 9616SOL    HW135963   8.166   4.336  11.475  0.3980 -0.5756  0.4206
 9616SOL    HW235964   8.082   4.418  11.379 -1.3261 -1.4356  1.1738
 9617SOL     OW35965   9.526   5.240   0.155  0.6589 -0.1846 -0.5209
 9617SOL    HW135966   9.432   5.243   0.137  0.8587 -1.4634 -1.9444
 9617SOL    HW235967   9.566   5.296   0.089  0.9336  0.1794 -0.0586
 9618SOL     OW35968   0.781   4.880   3.450  0.2768  0.0193  0.5162
 9618SOL    HW135969   0.721   4.861   3.521  0.2787  0.1566  0.5533
 9618SOL    HW235970   0.834   4.800   3.441 -1.8603 -1.3162 -1.4782
 9619SOL     OW35971   7.636   0.020   8.172  0.4522 -0.1152  0.0723
 9619SOL    HW135972   7.605  -0.066   8.202 -1.1647  0.4389  0.0870
 9619SOL    HW235973   7.676   0.060   8.250 -1.8664  0.4858  1.0357
 9620SOL     OW35974  10.320   7.810   9.552  0.4716 -0.4490 -0.0554
 9620SOL    HW135975  10.249   7.751   9.576 -1.2429  0.8988 -1.5477
 9620SOL    HW235976  10.369   7.762   9.486  0.8574 -1.2890  0.8031
 9621SOL     OW35977   3.683  12.934  11.546  0.3701  0.2435  0.0386
 9621SOL    HW135978   3.745  12.873  11.586 -0.2745 -0.9638 -0.7791
 9621SOL    HW235979   3.696  13.016  11.595  2.7663  0.1144 -0.2351
 9622SOL     OW35980   9.356   6.773  11.592 -0.1532 -0.1570  0.0774
 9622SOL    HW135981   9.292   6.824  11.642  0.4365 -0.6215  1.3687
 9622SOL    HW235982   9.369   6.694  11.645  0.1038 -0.9268 -1.1009
 9623SOL     OW35983   8.287   5.315   4.441  0.1492  0.3256  0.1035
 9623SOL    HW135984   8.196   5.286   4.440  0.1971  0.1195  0.8443
 9623SOL    HW235985   8.292   5.375   4.515  0.7742 -0.2189  0.5202
 9624SOL     OW35986  11.970   7.395   9.903 -0.5447 -0.3206  0.0438
 9624SOL    HW135987  12.005   7.443   9.978  1.7653 -1.7810 -0.0009
 9624SOL    HW235988  11.949   7.308   9.938 -1.4074 -0.3759 -0.5856
 9625SOL     OW35989   4.409  11.332   8.496 -0.0433 -1.1374  0.0576
 9625SOL    HW135990   4.339  11.347   8.559  1.2137  4.0373  0.7494
 9625SOL    HW235991   4.364  11.323   8.412 -1.7679  1.7797  0.5052
 9626SOL     OW35992   4.533   9.770  10.191 -0.0246  0.2838  0.1494
 9626SOL    HW135993   4.565   9.852  10.227  0.4324  0.5123 -0.7481
 9626SOL    HW235994   4.443   9.789  10.163  0.2705  0.6584 -0.5833
 9627SOL     OW35995  11.080  11.565   8.745  0.2359  0.2828  0.3994
 9627SOL    HW135996  11.090  11.505   8.818 -1.6744 -0.6022  0.0108
 9627SOL    HW235997  10.990  11.599   8.754  0.6130  1.6080 -0.4726
 9628SOL     OW35998   1.072   6.851  10.039  0.1806 -0.2572  0.9474
 9628SOL    HW135999   1.165   6.837  10.023  0.3959  1.5843  0.3406
 9628SOL    HW236000   1.069   6.921  10.105 -0.7361  0.6837 -0.0437
 9629SOL     OW36001   9.190   5.070   4.214 -0.0417  0.0985  0.3403
 9629SOL    HW136002   9.266   5.016   4.237  0.2142  0.1001 -0.4796
 9629SOL    HW236003   9.196   5.081   4.119 -1.9505 -1.2378  0.0085
 9630SOL     OW36004   5.704   2.550   7.275  0.7970 -0.1277 -0.4785
 9630SOL    HW136005   5.628   2.608   7.285 -0.4336 -1.6195 -0.7211
 9630SOL    HW236006   5.779   2.604   7.301 -0.4584  1.0575  0.9217
 9631SOL     OW36007  10.490   5.376  10.827  0.3662  0.3861 -0.5493
 9631SOL    HW136008  10.547   5.432  10.880  0.6275 -0.7495  0.4134
 9631SOL    HW236009  10.498   5.290  10.867 -1.9962  0.1626 -0.4281
 9632SOL     OW36010   7.598   3.570   8.111  0.5435  0.4905 -0.6582
 9632SOL    HW136011   7.546   3.648   8.131  0.0421 -0.0902  0.4131
 9632SOL    HW236012   7.674   3.577   8.168  0.5135  0.2290 -0.5815
 9633SOL     OW36013  10.868   8.639   4.963 -0.3462 -0.5238  0.3149
 9633SOL    HW136014  10.840   8.618   4.874 -0.4990  1.6700 -0.1964
 9633SOL    HW236015  10.823   8.721   4.984  1.7759  0.4391  1.3676
 9634SOL     OW36016   9.692   4.762   1.277  0.3714 -0.5258 -0.0785
 9634SOL    HW136017   9.750   4.838   1.286  0.8571 -1.0034  1.0343
 9634SOL    HW236018   9.608   4.791   1.311  0.9248 -0.8723  1.6765
 9635SOL     OW36019   6.216  10.986  11.498  0.0601  0.1059  0.0612
 9635SOL    HW136020   6.299  11.015  11.460  0.6900  0.9747  1.9718
 9635SOL    HW236021   6.222  11.011  11.591 -1.5881 -1.4566  0.6436
 9636SOL     OW36022   9.840  10.395   9.361  0.1512 -0.4160  0.4562
 9636SOL    HW136023   9.851  10.490   9.367 -1.1072 -0.2691  0.8554
 9636SOL    HW236024   9.753  10.379   9.397  0.5122 -1.7729  0.7842
 9637SOL     OW36025   0.104  11.046   3.090 -0.4836 -0.0730  0.6313
 9637SOL    HW136026   0.057  11.012   3.166 -1.1316  0.2584  0.3888
 9637SOL    HW236027   0.071  11.135   3.080  1.1341  0.6148  1.2132
 9638SOL     OW36028   2.290   9.112   3.559 -0.2427  0.4467 -0.5431
 9638SOL    HW136029   2.269   9.094   3.651 -0.9384  0.6076 -0.6639
 9638SOL    HW236030   2.376   9.154   3.562  0.1182 -0.3103 -0.0342
 9639SOL     OW36031   1.480   1.340  11.197  0.1449 -0.7908  0.4546
 9639SOL    HW136032   1.502   1.265  11.143  2.3023 -1.2723  1.8522
 9639SOL    HW236033   1.443   1.404  11.136 -2.9446 -3.3375 -0.5872
 9640SOL     OW36034   4.770  11.640   1.060 -0.3387  0.0960  0.2695
 9640SOL    HW136035   4.807  11.571   1.115 -0.0247  0.1731  0.1561
 9640SOL    HW236036   4.776  11.719   1.113  0.2306  0.2248  0.0190
 9641SOL     OW36037   6.245   3.300   9.588  0.0992  0.2503  0.2758
 9641SOL    HW136038   6.310   3.259   9.532 -0.7823 -1.3264  0.3332
 9641SOL    HW236039   6.292   3.370   9.633  0.8392  1.6058 -2.4101
 9642SOL     OW36040   0.245   3.468   0.746  0.4246 -0.4709  0.0045
 9642SOL    HW136041   0.162   3.429   0.719 -0.2685  0.7668  0.2922
 9642SOL    HW236042   0.221   3.540   0.804  1.7600 -0.9881  1.2677
 9643SOL     OW36043   6.743   0.404   6.839 -0.3790  0.8087 -0.1052
 9643SOL    HW136044   6.760   0.388   6.746  0.9100 -2.3388  0.5445
 9643SOL    HW236045   6.829   0.417   6.878 -0.5294 -1.4267  1.1257
 9644SOL     OW36046  12.501   3.414   7.636 -0.2767 -0.6286  0.2515
 9644SOL    HW136047  12.408   3.422   7.654 -0.3127  0.0260 -0.1752
 9644SOL    HW236048  12.531   3.343   7.692 -0.4848  0.9402  2.4600
 9645SOL     OW36049  10.939   9.776   6.034 -0.0159 -0.5078 -0.1129
 9645SOL    HW136050  11.032   9.763   6.014 -0.5002 -1.6831 -1.8721
 9645SOL    HW236051  10.908   9.689   6.059 -0.8093 -0.3042 -0.3649
 9646SOL     OW36052   6.560   1.039   6.920  0.5638 -0.0114 -0.4724
 9646SOL    HW136053   6.466   1.031   6.905  0.3527  1.1252  0.1181
 9646SOL    HW236054   6.584   1.122   6.879  1.3630 -0.4073 -0.8322
 9647SOL     OW36055   1.170  12.030  12.050 -0.4666 -0.1869 -0.1238
 9647SOL    HW136056   1.160  12.121  12.075 -0.0185  0.2845 -1.5314
 9647SOL    HW236057   1.149  11.980  12.129 -1.3033  1.1031  0.5034
 9648SOL     OW36058   2.686   6.108   0.820 -0.0219 -0.5315  0.0330
 9648SOL    HW136059   2.730   6.135   0.740 -0.2620 -0.1564  0.0228
 9648SOL    HW236060   2.640   6.027   0.797 -0.8733  0.0770 -0.4825
 9649SOL     OW36061   3.330   3.171   3.857 -0.3056 -0.4523  0.2517
 9649SOL    HW136062   3.387   3.176   3.934  4.0247  0.8399 -2.7245
 9649SOL    HW236063   3.302   3.261   3.842 -0.5273 -0.5777 -0.0999
 9650SOL     OW36064   1.636   9.167   5.149 -0.3787  0.0083 -0.0301
 9650SOL    HW136065   1.728   9.141   5.156 -0.5517 -0.1045  3.0046
 9650SOL    HW236066   1.610   9.188   5.238 -2.7361  2.1507 -1.0812
 9651SOL     OW36067   7.466   1.319  12.430  0.3265  0.3044 -0.1488
 9651SOL    HW136068   7.393   1.270  12.392 -2.1862  2.6095  1.3369
 9651SOL    HW236069   7.437   1.339  12.519  2.0727  2.6520 -0.0156
 9652SOL     OW36070  11.535  10.858   8.335 -0.5026  0.2609 -0.1696
 9652SOL    HW136071  11.500  10.818   8.415 -0.7907 -0.9028 -0.8581
 9652SOL    HW236072  11.603  10.797   8.306 -1.7435 -0.3762 -1.8845
 9653SOL     OW36073   1.443   9.671   3.812 -0.0579 -0.2302  0.2720
 9653SOL    HW136074   1.479   9.734   3.750  0.7942 -1.0064 -0.0601
 9653SOL    HW236075   1.414   9.597   3.757 -0.1785 -0.5251  0.7222
 9654SOL     OW36076   8.289  10.966   6.535  0.3425  0.1310  0.4225
 9654SOL    HW136077   8.266  11.056   6.513  1.4266  0.1213 -0.8676
 9654SOL    HW236078   8.206  10.918   6.528 -0.3768  1.1238  1.8041
 9655SOL     OW36079   7.719  11.413   9.065 -0.0201 -0.3515 -0.2618
 9655SOL    HW136080   7.679  11.411   8.978  0.2721  1.0231 -0.4453
 9655SOL    HW236081   7.789  11.348   9.060  0.6043  0.3795 -1.3712
 9656SOL     OW36082   2.518   8.306  11.992 -0.5495  0.0696  0.7103
 9656SOL    HW136083   2.520   8.391  11.949  2.0398 -0.7085 -0.9262
 9656SOL    HW236084   2.471   8.249  11.931 -1.8915  0.1702  1.6027
 9657SOL     OW36085   9.891   6.816   6.561 -1.1024 -0.0578  0.6824
 9657SOL    HW136086   9.866   6.855   6.477 -1.0180  1.5002  1.3507
 9657SOL    HW236087   9.982   6.787   6.548 -1.0751  0.2165  0.2532
 9658SOL     OW36088   6.812   1.407   4.972 -0.1243  0.2238  0.0713
 9658SOL    HW136089   6.793   1.500   4.958 -0.6597  0.3163  1.2833
 9658SOL    HW236090   6.726   1.364   4.973  0.1988 -0.7326 -3.0193
 9659SOL     OW36091   1.235   6.051   3.703  0.1995 -0.4324 -0.5277
 9659SOL    HW136092   1.301   6.104   3.658  0.3670 -0.5216 -0.3846
 9659SOL    HW236093   1.268   6.042   3.792 -0.2924  0.0276 -0.2906
 9660SOL     OW36094   9.717   3.960   3.887  0.2646 -0.4467  0.5900
 9660SOL    HW136095   9.791   3.973   3.945  0.3973  0.6240  0.2034
 9660SOL    HW236096   9.658   3.901   3.935  1.1625 -0.9786  1.0616
 9661SOL     OW36097   9.393   9.766  10.602  0.5711 -0.1048  0.4863
 9661SOL    HW136098   9.428   9.687  10.642 -1.2545 -0.4837  1.4067
 9661SOL    HW236099   9.321   9.736  10.547  0.9183  0.7656 -0.4790
 9662SOL     OW36100   4.006   1.297   0.510 -0.1169 -0.4078  0.3953
 9662SOL    HW136101   4.000   1.210   0.470 -0.5476 -0.0046 -0.4561
 9662SOL    HW236102   4.017   1.280   0.603 -1.1952 -1.3775  0.3775
 9663SOL     OW36103   9.490   1.152   7.234  0.0691 -0.4658  0.5540
 9663SOL    HW136104   9.535   1.233   7.211 -1.3071  0.3320  0.5333
 9663SOL    HW236105   9.446   1.125   7.153 -1.4285  0.0974  1.1477
 9664SOL     OW36106   9.141  10.446   2.399  0.4962  0.0849  0.4323
 9664SOL    HW136107   9.190  10.463   2.479 -0.4112  0.0322  1.0163
 9664SOL    HW236108   9.050  10.438   2.428  0.1076  0.4144 -0.6538
 9665SOL     OW36109   3.861   4.518   6.547  0.2397 -0.8647 -0.3761
 9665SOL    HW136110   3.830   4.608   6.547 -1.3758 -1.3517  1.5728
 9665SOL    HW236111   3.875   4.497   6.455 -1.8911  0.5582 -1.0921
 9666SOL     OW36112   0.649   3.007   7.277  0.7794  0.1111  0.0247
 9666SOL    HW136113   0.587   2.954   7.227 -0.7316  0.3011  1.6084
 9666SOL    HW236114   0.680   2.949   7.347  1.3122  0.4472  0.0701
 9667SOL     OW36115   2.167  10.903   3.937 -0.2406 -0.4089 -0.0322
 9667SOL    HW136116   2.099  10.969   3.930  1.6674  2.1820  3.1059
 9667SOL    HW236117   2.239  10.936   3.884  0.4037 -0.4010  0.8227
 9668SOL     OW36118   5.763   7.651   7.999 -0.3502  0.2164  0.0681
 9668SOL    HW136119   5.683   7.644   7.947 -1.0868  1.7280  0.9276
 9668SOL    HW236120   5.802   7.734   7.972  0.8813 -0.4532 -0.2501
 9669SOL     OW36121   9.050   7.547   6.605 -0.3292 -0.1479 -0.3217
 9669SOL    HW136122   9.021   7.629   6.644  0.9829 -0.6527  1.8421
 9669SOL    HW236123   9.145   7.550   6.609 -0.2467 -1.7946 -0.1684
 9670SOL     OW36124   8.285   2.661  12.884  0.6471  0.4257 -0.4325
 9670SOL    HW136125   8.209   2.716  12.904 -1.2558 -1.9842 -0.6018
 9670SOL    HW236126   8.283   2.593  12.951  1.2887 -0.9822 -1.8019
 9671SOL     OW36127   1.763  12.816  10.555 -0.3291 -0.3340  0.2390
 9671SOL    HW136128   1.739  12.834  10.465  0.0750  0.1247  0.2173
 9671SOL    HW236129   1.686  12.838  10.607 -0.3099  0.1160  0.0761
 9672SOL     OW36130   7.401   7.534  12.378  0.2965  0.6458  0.8452
 9672SOL    HW136131   7.322   7.587  12.366  1.0097  1.7520  0.8811
 9672SOL    HW236132   7.373   7.460  12.432 -1.3466 -0.5103 -1.4218
 9673SOL     OW36133   5.245   9.094   2.538 -0.1315 -0.1494 -0.4234
 9673SOL    HW136134   5.192   9.169   2.509 -2.0667  0.1500  3.2422
 9673SOL    HW236135   5.256   9.040   2.460 -2.4182  1.8266 -2.2531
 9674SOL     OW36136   2.891   4.299   2.101 -0.4526  1.2308  0.9575
 9674SOL    HW136137   2.867   4.350   2.178  1.2304  1.6376  1.2476
 9674SOL    HW236138   2.986   4.291   2.106 -0.4373  0.2198 -0.4359
 9675SOL     OW36139   9.190   5.196  11.086 -0.7431 -0.3827  0.3673
 9675SOL    HW136140   9.180   5.163  11.175 -0.6002 -0.3468  0.3977
 9675SOL    HW236141   9.274   5.243  11.087 -1.4850  1.0116  0.6426
 9676SOL     OW36142  11.476  11.067   8.061  0.0361  0.3754 -0.0557
 9676SOL    HW136143  11.435  11.119   8.130 -1.8973  0.0847 -0.9222
 9676SOL    HW236144  11.570  11.078   8.076 -0.3195  1.5114  1.7050
 9677SOL     OW36145   3.800  10.171  10.745 -0.2291 -0.1990 -0.0804
 9677SOL    HW136146   3.881  10.214  10.717 -0.6501 -0.0487 -1.1259
 9677SOL    HW236147   3.777  10.214  10.827  0.9635 -0.5361  0.4509
 9678SOL     OW36148   3.258   8.176   3.372  0.4621  0.6483  0.0529
 9678SOL    HW136149   3.240   8.260   3.415  0.3267  0.9261 -0.5425
 9678SOL    HW236150   3.353   8.165   3.378  0.4793  0.8424  0.1304
 9679SOL     OW36151   0.915   2.162   1.193 -0.2062  0.2786 -0.9071
 9679SOL    HW136152   0.883   2.084   1.239  1.9492  0.8083  1.7841
 9679SOL    HW236153   0.838   2.216   1.180 -1.7867 -2.2108 -2.8913
 9680SOL     OW36154   1.437   0.127  10.937  0.4203  0.0382  0.2243
 9680SOL    HW136155   1.523   0.154  10.904  0.2044  1.0775  0.4943
 9680SOL    HW236156   1.377   0.143  10.864  0.0816  1.5413  0.8088
 9681SOL     OW36157   2.432   1.947  12.006  0.3770  0.6477  0.2215
 9681SOL    HW136158   2.365   1.996  12.055  0.9405 -0.4264  2.1185
 9681SOL    HW236159   2.407   1.856  12.015  1.4571  0.3108 -0.0684
 9682SOL     OW36160   3.546   5.121   2.149 -0.7996  0.4833 -0.2155
 9682SOL    HW136161   3.453   5.141   2.146 -1.0985 -0.7756  0.1157
 9682SOL    HW236162   3.584   5.173   2.077 -1.5793  1.7543  0.2622
 9683SOL     OW36163   6.724   9.713   8.250  0.1651  0.1580 -0.1342
 9683SOL    HW136164   6.753   9.780   8.188 -1.0021 -0.3563 -1.2908
 9683SOL    HW236165   6.637   9.687   8.218  0.7248 -2.1441  0.0276
 9684SOL     OW36166   4.754   3.543   4.822  0.2348 -0.2833 -0.1298
 9684SOL    HW136167   4.769   3.555   4.916 -0.1779  0.4302 -0.1442
 9684SOL    HW236168   4.679   3.484   4.817 -2.8115  3.1499  0.1370
 9685SOL     OW36169  12.724  11.457  10.117 -0.0729  0.0030  0.2561
 9685SOL    HW136170  12.699  11.412  10.036 -3.0518  0.5614  0.7654
 9685SOL    HW236171  12.711  11.550  10.097 -2.6322  0.0716  1.8069
 9686SOL     OW36172   9.369  10.120  11.572 -0.0157 -0.2665 -0.0136
 9686SOL    HW136173   9.354  10.203  11.615 -0.4264  0.0741 -0.7838
 9686SOL    HW236174   9.398  10.144  11.484 -3.3626 -0.8180 -1.4524
 9687SOL     OW36175   2.858   3.127  12.183  0.4959  0.0621  0.6175
 9687SOL    HW136176   2.897   3.205  12.223 -0.0951  1.1357 -0.8177
 9687SOL    HW236177   2.774   3.117  12.228  0.5967  0.2224  0.8440
 9688SOL     OW36178  12.076   1.517   6.245  0.0676  0.4962 -0.0309
 9688SOL    HW136179  12.134   1.567   6.302  1.6564 -0.0138 -1.1348
 9688SOL    HW236180  12.090   1.553   6.158  0.9256 -1.5263 -0.7789
 9689SOL     OW36181   9.498  12.055   0.297  0.1536 -0.1839 -0.3489
 9689SOL    HW136182   9.563  12.054   0.367 -1.1039  2.5698  0.9958
 9689SOL    HW236183   9.422  12.011   0.334  0.6812 -2.1470 -1.4308
 9690SOL     OW36184   3.918   0.142   0.945 -0.4515 -0.1473 -0.1350
 9690SOL    HW136185   3.846   0.194   0.980 -1.4043 -1.1167 -0.5819
 9690SOL    HW236186   3.881   0.054   0.937  0.2218 -0.2803 -2.0903
 9691SOL     OW36187   5.087   6.417   9.957  0.3330  0.6811  0.0869
 9691SOL    HW136188   5.068   6.488   9.896  0.2899  0.6702  0.0880
 9691SOL    HW236189   5.168   6.444  10.001 -0.1666  1.1482  0.7313
 9692SOL     OW36190   6.527   7.786  12.293  0.3093 -0.0256 -0.0463
 9692SOL    HW136191   6.528   7.858  12.356  0.6983  0.3997 -0.5212
 9692SOL    HW236192   6.500   7.710  12.344 -0.4642  0.5226  0.3898
 9693SOL     OW36193   8.572   1.204   3.563  0.3974  0.0881  0.9657
 9693SOL    HW136194   8.529   1.120   3.549  0.5210  0.0950  0.5018
 9693SOL    HW236195   8.657   1.194   3.520  0.3170  0.5301  0.6982
 9694SOL     OW36196   3.449   2.820  11.991  0.1149  0.3048 -0.3843
 9694SOL    HW136197   3.447   2.800  12.084 -3.1123  1.0976 -0.1547
 9694SOL    HW236198   3.424   2.738  11.948 -1.0463  0.6114 -0.3226
 9695SOL     OW36199   0.569   8.838   5.897  0.2624  0.5068 -0.4573
 9695SOL    HW136200   0.635   8.815   5.963 -1.1935 -1.3247  0.4566
 9695SOL    HW236201   0.580   8.772   5.829  1.6736  2.3139 -2.0992
 9696SOL     OW36202   2.666  10.626   9.690  0.3387  0.2112 -0.7687
 9696SOL    HW136203   2.619  10.552   9.727  0.7156 -0.4288 -1.5275
 9696SOL    HW236204   2.598  10.683   9.654  0.1050 -0.5394 -1.5528
 9697SOL     OW36205  12.258   3.396   1.738  0.1995  0.2708 -0.5357
 9697SOL    HW136206  12.240   3.486   1.767  1.8168  0.3450  0.3144
 9697SOL    HW236207  12.238   3.342   1.814  1.6653  0.1769 -0.2002
 9698SOL     OW36208   6.043   1.097   2.147  0.3367  0.0685  0.2261
 9698SOL    HW136209   6.019   1.056   2.230 -0.3305  0.9462  0.4807
 9698SOL    HW236210   6.052   1.190   2.168  1.4054  0.1374 -0.4297
 9699SOL     OW36211   3.059   7.025  12.653  0.0754 -0.3117  0.5185
 9699SOL    HW136212   3.117   7.092  12.690  0.6405 -0.2605 -0.4306
 9699SOL    HW236213   3.110   6.944  12.657 -0.1713 -0.4620  0.6184
 9700SOL     OW36214  12.384   0.906  10.256 -0.0337  0.3961 -0.0750
 9700SOL    HW136215  12.436   0.912  10.336  1.2443  1.4292 -0.9407
 9700SOL    HW236216  12.410   0.823  10.217 -0.5490 -0.0385  0.4706
 9701SOL     OW36217   6.901  12.166  12.747 -0.2848 -0.3457  0.2602
 9701SOL    HW136218   6.992  12.136  12.748  0.1816  0.9085 -0.9530
 9701SOL    HW236219   6.853  12.097  12.700  0.0862 -0.8762  0.6514
 9702SOL     OW36220   7.951   3.966   1.863 -0.6495 -0.4248 -0.0048
 9702SOL    HW136221   7.871   3.934   1.821 -1.4000  0.6510  0.5478
 9702SOL    HW236222   7.943   4.061   1.859 -0.5413 -0.2783  2.1464
 9703SOL     OW36223  10.264   5.978   9.492 -0.6347 -0.5157  0.8817
 9703SOL    HW136224  10.328   5.971   9.563  0.6010  2.3523  0.1835
 9703SOL    HW236225  10.200   6.041   9.524 -0.9798 -0.4503  0.0870
 9704SOL     OW36226   7.328  12.415  11.730 -0.5841 -0.6190 -0.0962
 9704SOL    HW136227   7.251  12.387  11.779  0.0441 -0.2689  1.1176
 9704SOL    HW236228   7.319  12.510  11.721 -0.2267 -0.5563  0.1741
 9705SOL     OW36229   8.901   6.674  11.246  0.3769 -0.2582  0.3784
 9705SOL    HW136230   8.897   6.754  11.194 -0.5586  1.3458  2.7427
 9705SOL    HW236231   8.859   6.607  11.191  1.1882  0.8318 -1.6596
 9706SOL     OW36232  12.626   1.832  11.324 -0.2280  0.6485  0.2904
 9706SOL    HW136233  12.621   1.746  11.366  0.4586  0.2990 -0.3136
 9706SOL    HW236234  12.535   1.861  11.317 -0.5424 -0.3858 -0.2019
 9707SOL     OW36235   6.052  11.565  12.670 -0.3642 -0.2730 -0.1900
 9707SOL    HW136236   6.018  11.543  12.757 -0.3971  2.1594  0.4789
 9707SOL    HW236237   6.008  11.504  12.611 -1.7278 -0.7953  1.2878
 9708SOL     OW36238  12.260  10.455  10.586 -0.1767  0.0493  0.1182
 9708SOL    HW136239  12.315  10.493  10.655  0.0802  0.2649 -0.1983
 9708SOL    HW236240  12.319  10.396  10.539 -0.3967 -0.2272  0.1889
 9709SOL     OW36241  12.680   2.296   4.955  1.0663 -0.1173 -0.0793
 9709SOL    HW136242  12.609   2.296   4.892  1.0859 -0.7325 -0.1038
 9709SOL    HW236243  12.759   2.316   4.903  1.1583 -1.1265 -0.3419
 9710SOL     OW36244   4.676   9.914   4.198 -0.2178  0.6466 -0.5077
 9710SOL    HW136245   4.735   9.868   4.257 -1.0943  0.5829  0.3357
 9710SOL    HW236246   4.734   9.971   4.147  0.7087 -0.3348 -0.5896
 9711SOL     OW36247   2.731   1.626  12.635  0.0350 -0.0022 -0.1094
 9711SOL    HW136248   2.737   1.543  12.681  1.4067  0.6344  0.9194
 9711SOL    HW236249   2.811   1.630  12.581 -0.8580 -0.1055 -1.5007
 9712SOL     OW36250  10.400   8.966   6.573  0.0022 -0.1124 -0.3954
 9712SOL    HW136251  10.309   8.972   6.543  0.6102 -0.3673 -2.3843
 9712SOL    HW236252  10.453   8.966   6.493  1.8047  0.5371  0.7360
 9713SOL     OW36253   7.849   4.739   1.150  0.7523  0.5063 -0.1866
 9713SOL    HW136254   7.876   4.647   1.156 -1.6702 -0.2067  1.0554
 9713SOL    HW236255   7.755   4.737   1.168  0.3689  3.0969 -1.5994
 9714SOL     OW36256   8.170  10.405   2.624  0.3558 -0.0709  0.2146
 9714SOL    HW136257   8.165  10.500   2.638  1.1108 -0.1219  0.8883
 9714SOL    HW236258   8.131  10.368   2.703  1.3866 -0.3328  0.6066
 9715SOL     OW36259   6.915   6.548   7.183  0.1201 -0.2664 -0.1506
 9715SOL    HW136260   6.826   6.514   7.191 -0.5596  1.5109  0.1478
 9715SOL    HW236261   6.950   6.502   7.106 -0.9903 -1.1049 -0.1861
 9716SOL     OW36262   1.802   2.947  12.346 -0.3348 -0.3977  0.0470
 9716SOL    HW136263   1.753   2.873  12.382 -0.2747 -0.5077 -0.0996
 9716SOL    HW236264   1.843   2.987  12.423  0.3164 -1.0181  0.0255
 9717SOL     OW36265   5.562   5.406   5.303 -0.1958  0.8899  0.2596
 9717SOL    HW136266   5.587   5.460   5.378 -1.1282  1.1578  0.3987
 9717SOL    HW236267   5.542   5.320   5.341  2.6070 -0.0180 -0.1290
 9718SOL     OW36268   5.934  10.612   6.697 -0.0835 -0.5123  0.5239
 9718SOL    HW136269   5.943  10.701   6.730  0.5292 -0.9629  1.5949
 9718SOL    HW236270   5.843  10.607   6.668 -0.3654  0.1983  1.2429
 9719SOL     OW36271   3.332   9.866  11.069 -0.0707  0.4400 -0.5871
 9719SOL    HW136272   3.321   9.789  11.013 -0.2544 -1.8333  2.3669
 9719SOL    HW236273   3.244   9.902  11.076 -0.5462 -0.8119  0.2522
 9720SOL     OW36274  10.435  12.127   0.600 -0.3379  0.4239 -0.2458
 9720SOL    HW136275  10.353  12.079   0.605  0.1016 -0.5409 -1.6961
 9720SOL    HW236276  10.501  12.066   0.635  0.0398  0.4542 -0.8953
 9721SOL     OW36277  12.138   2.831   0.552  0.0355 -0.7115 -0.1833
 9721SOL    HW136278  12.095   2.759   0.506 -1.4260  0.1818 -0.2882
 9721SOL    HW236279  12.067   2.874   0.599  0.4610  1.9309 -1.7850
 9722SOL     OW36280  12.215   7.747   7.595 -0.1887  0.0198  0.4638
 9722SOL    HW136281  12.286   7.740   7.532 -1.8149 -1.4265 -1.3437
 9722SOL    HW236282  12.237   7.683   7.664  1.2171  1.0608  1.0307
 9723SOL     OW36283   7.699  12.453   5.460  0.1147  0.0725 -0.7188
 9723SOL    HW136284   7.762  12.393   5.500 -0.0433 -0.1211 -0.7597
 9723SOL    HW236285   7.713  12.443   5.366 -0.8065 -0.8762 -0.7710
 9724SOL     OW36286  10.569   3.499   4.457  0.7139  0.2080  0.1214
 9724SOL    HW136287  10.619   3.490   4.538  1.2439 -1.2221 -0.3324
 9724SOL    HW236288  10.634   3.523   4.391  0.5380 -0.1424 -0.1779
 9725SOL     OW36289  12.458   4.012   1.584 -0.8329  0.4555 -0.5013
 9725SOL    HW136290  12.453   3.929   1.631 -2.2060  1.7439  1.8232
 9725SOL    HW236291  12.549   4.020   1.557  0.3175  0.0545  2.8867
 9726SOL     OW36292   3.109   2.163   2.762 -0.0489  0.0228  0.1621
 9726SOL    HW136293   3.112   2.255   2.789 -0.5693  0.3641 -0.8733
 9726SOL    HW236294   3.195   2.128   2.787  0.1099  0.7459  0.6844
 9727SOL     OW36295   8.426   4.368  11.825  0.4892 -0.3176 -0.4166
 9727SOL    HW136296   8.485   4.442  11.835  0.5682 -0.3850 -0.3851
 9727SOL    HW236297   8.361   4.379  11.894  1.2107 -0.9563  0.3905
 9728SOL     OW36298   4.315   0.140   1.400 -0.3215 -0.4302  0.1996
 9728SOL    HW136299   4.286   0.053   1.429 -0.3543 -0.8937 -1.1343
 9728SOL    HW236300   4.283   0.200   1.467 -1.0819 -1.3572  0.6921
 9729SOL     OW36301   5.577   4.388   2.050 -0.2787  0.2605  0.1537
 9729SOL    HW136302   5.517   4.313   2.049  0.0646 -0.0146 -0.3445
 9729SOL    HW236303   5.638   4.370   2.121  0.2552 -0.2959 -0.4426
 9730SOL     OW36304  10.816   8.059   4.958 -0.4297  0.0345  0.3557
 9730SOL    HW136305  10.900   8.102   4.975  0.2011 -0.6852 -0.8016
 9730SOL    HW236306  10.803   8.001   5.033  0.4405 -0.3298  0.2372
 9731SOL     OW36307   2.349   4.332  10.267  0.1900 -0.5419  0.1199
 9731SOL    HW136308   2.407   4.262  10.299  0.2918 -0.6288 -0.2525
 9731SOL    HW236309   2.274   4.286  10.230  1.0065 -0.5303 -1.6172
 9732SOL     OW36310   3.356   5.698   1.594  0.1218 -0.0336  0.1829
 9732SOL    HW136311   3.314   5.614   1.611  1.3946 -0.1757  3.4002
 9732SOL    HW236312   3.284   5.761   1.588 -0.7445 -1.0015  0.1866
 9733SOL     OW36313  11.992  10.313   2.550 -0.1435 -0.4319 -0.6910
 9733SOL    HW136314  12.063  10.310   2.486  1.7206 -0.8477  1.2782
 9733SOL    HW236315  11.951  10.227   2.545 -1.2648  0.1649 -2.5835
 9734SOL     OW36316  11.791  11.285   4.067 -0.4152 -0.2961 -0.1376
 9734SOL    HW136317  11.885  11.296   4.080 -0.0835 -0.2491 -2.2953
 9734SOL    HW236318  11.760  11.373   4.046 -0.5523 -0.6479 -1.4986
 9735SOL     OW36319   1.695  12.253   9.116  0.6561 -0.2579 -0.1132
 9735SOL    HW136320   1.730  12.168   9.089  1.1970 -0.5297  1.3458
 9735SOL    HW236321   1.766  12.293   9.166 -0.1443  0.3806  0.5302
 9736SOL     OW36322   9.732   7.033   2.251 -0.0862  0.6097  0.0860
 9736SOL    HW136323   9.756   7.046   2.343 -1.1189  1.4624  0.2468
 9736SOL    HW236324   9.698   6.943   2.248 -0.8990  0.8798  0.7409
 9737SOL     OW36325   5.990   1.552   0.337 -0.3578  0.5195  0.3301
 9737SOL    HW136326   5.926   1.568   0.268 -1.0060  1.1886  1.0717
 9737SOL    HW236327   6.031   1.637   0.353  0.5495  0.1587  0.0561
 9738SOL     OW36328   0.600   6.268   1.202  0.2392  0.3528 -0.6080
 9738SOL    HW136329   0.590   6.192   1.259  0.6333  0.0069 -0.9942
 9738SOL    HW236330   0.656   6.328   1.251  0.0213  0.3482 -0.3501
 9739SOL     OW36331  10.404   7.395   8.980  0.0342  0.0650 -0.0346
 9739SOL    HW136332  10.362   7.479   8.960 -0.3117 -0.3189 -0.9645
 9739SOL    HW236333  10.479   7.391   8.922  0.1187 -0.2140  0.0930
 9740SOL     OW36334   4.583  12.279   3.833 -0.8996 -0.0952 -0.7665
 9740SOL    HW136335   4.610  12.232   3.912 -2.2756  0.5396  0.1314
 9740SOL    HW236336   4.487  12.271   3.832 -0.9777  0.7306 -1.8362
 9741SOL     OW36337   8.757   5.539   3.734  0.1438 -0.2784  0.2332
 9741SOL    HW136338   8.703   5.464   3.708  1.3623 -0.4437 -2.0388
 9741SOL    HW236339   8.693   5.607   3.759 -1.2203 -0.3147 -2.7700
 9742SOL     OW36340   3.667  10.889   9.614 -0.3633  0.3659  0.0176
 9742SOL    HW136341   3.625  10.967   9.652 -1.2496 -0.5742  1.0394
 9742SOL    HW236342   3.667  10.825   9.685  0.5217 -0.5183 -0.7527
 9743SOL     OW36343  10.630   8.829  11.334  0.4763  0.1100 -0.2731
 9743SOL    HW136344  10.595   8.780  11.260  0.5251 -3.1992  1.7029
 9743SOL    HW236345  10.724   8.838  11.314 -0.0998  2.9171 -2.3619
 9744SOL     OW36346  12.385   8.408  12.379  0.0988  0.5349 -0.2878
 9744SOL    HW136347  12.478   8.412  12.403  0.5548 -0.8027 -1.7057
 9744SOL    HW236348  12.341   8.455  12.450  2.0090  2.9957 -0.5979
 9745SOL     OW36349   8.413   5.489   6.912  0.1714  0.0173 -0.0054
 9745SOL    HW136350   8.496   5.533   6.897 -0.3558  1.4963  1.1655
 9745SOL    HW236351   8.359   5.513   6.836  0.8253 -1.0800 -0.8494
 9746SOL     OW36352  11.440   8.848  11.911  0.2358  0.2054  0.4283
 9746SOL    HW136353  11.427   8.828  12.004 -0.2286 -1.1801  0.0755
 9746SOL    HW236354  11.374   8.916  11.893  0.9594  1.1878  1.3153
 9747SOL     OW36355  11.886   9.876   7.491  0.0305  0.5251 -0.5942
 9747SOL    HW136356  11.922   9.836   7.412 -0.5539  0.4711 -0.8367
 9747SOL    HW236357  11.811   9.927   7.460 -0.0919  0.6485 -0.1014
 9748SOL     OW36358   5.989   5.919   2.630 -0.2039  0.5001  0.2585
 9748SOL    HW136359   5.936   5.998   2.640  1.8266  1.7001  2.3467
 9748SOL    HW236360   6.040   5.914   2.710  0.6079 -2.3196 -0.3337
 9749SOL     OW36361   2.526   7.693   8.870  0.0458  0.0835  0.1752
 9749SOL    HW136362   2.613   7.654   8.863  1.1526  2.6491 -2.4257
 9749SOL    HW236363   2.468   7.618   8.886  2.3880 -2.0757 -0.6558
 9750SOL     OW36364   9.805  12.421   9.821 -0.2778  0.2168 -0.1069
 9750SOL    HW136365   9.839  12.406   9.732 -2.1240  0.3285 -0.8768
 9750SOL    HW236366   9.833  12.510   9.842 -0.0343  0.2778 -0.6622
 9751SOL     OW36367   9.295   1.644  11.381  0.5743  0.1306  0.2982
 9751SOL    HW136368   9.344   1.565  11.403  0.0357 -0.0980  0.7083
 9751SOL    HW236369   9.315   1.660  11.289 -0.2220 -1.1562 -0.1292
 9752SOL     OW36370  10.103   6.711   0.928 -0.7067  0.5742  0.7959
 9752SOL    HW136371  10.115   6.619   0.952  1.1690  0.0321 -1.7713
 9752SOL    HW236372  10.142   6.760   1.001  2.1223 -0.8407  0.3437
 9753SOL     OW36373   1.476   3.975   6.721  0.4836 -0.3515 -0.1663
 9753SOL    HW136374   1.448   3.886   6.743  3.0102 -1.1389  0.2023
 9753SOL    HW236375   1.487   3.974   6.626 -0.6522 -0.0422 -0.3105
 9754SOL     OW36376   9.179  11.606   3.828  0.0028 -0.6604 -0.5404
 9754SOL    HW136377   9.204  11.539   3.892  0.3095  0.7231  0.8458
 9754SOL    HW236378   9.228  11.684   3.854  0.8664 -0.2822 -3.0540
 9755SOL     OW36379  11.603   4.094   0.711  0.3959  0.0289  0.3952
 9755SOL    HW136380  11.521   4.046   0.716  0.4476  0.0385  1.7555
 9755SOL    HW236381  11.589   4.159   0.642 -1.1242  0.7210  1.2922
 9756SOL     OW36382   6.703  10.524   4.782 -0.1328 -0.1621  0.4637
 9756SOL    HW136383   6.638  10.474   4.733 -0.8104  0.6108  0.5331
 9756SOL    HW236384   6.711  10.478   4.866  0.1836 -0.8403  0.0702
 9757SOL     OW36385   3.662   6.557   9.287  0.2713 -0.3096  0.5317
 9757SOL    HW136386   3.735   6.554   9.348  0.0234  1.8819  0.9896
 9757SOL    HW236387   3.639   6.465   9.274  1.4897 -0.9215  2.3123
 9758SOL     OW36388   4.156   1.891   2.788 -0.1019  0.4179 -0.2089
 9758SOL    HW136389   4.168   1.979   2.751 -1.6716  1.3253  1.2662
 9758SOL    HW236390   4.237   1.844   2.766  1.4053  2.6756  0.2028
 9759SOL     OW36391   9.084   2.400   3.839 -0.4728  0.3722 -0.2144
 9759SOL    HW136392   9.116   2.447   3.916 -0.5204 -0.5147  0.3629
 9759SOL    HW236393   9.062   2.469   3.776  0.3533  1.0752  0.2496
 9760SOL     OW36394   9.638   4.468  10.170 -0.3106 -0.6860  0.2654
 9760SOL    HW136395   9.703   4.404  10.141  0.2319 -0.0796  0.1134
 9760SOL    HW236396   9.659   4.484  10.262 -0.5502 -0.8447  0.3490
 9761SOL     OW36397   0.223   2.540   4.398  0.4453  0.2552  0.5447
 9761SOL    HW136398   0.267   2.513   4.318  0.3156  0.6428  0.3399
 9761SOL    HW236399   0.205   2.634   4.386  0.2283  0.2682  0.9312
 9762SOL     OW36400  12.251   4.036   8.297  0.2165  0.3949  0.5475
 9762SOL    HW136401  12.185   3.986   8.249  0.3136 -0.5347  1.3437
 9762SOL    HW236402  12.201   4.088   8.360  0.0277  2.2228 -1.0340
 9763SOL     OW36403   7.748   1.778   2.802  0.4996  0.5167 -0.7524
 9763SOL    HW136404   7.761   1.690   2.838 -0.3440  1.1022  1.1441
 9763SOL    HW236405   7.827   1.796   2.752  0.6957 -1.3067 -1.1543
 9764SOL     OW36406   7.161   5.356   8.475  0.1050 -0.0173  0.4186
 9764SOL    HW136407   7.169   5.440   8.429 -1.4638  0.7363  1.4606
 9764SOL    HW236408   7.133   5.295   8.407  1.8566  0.1116 -0.4896
 9765SOL     OW36409   4.105   6.403   4.955  0.1146  0.0180  0.0095
 9765SOL    HW136410   4.137   6.476   5.007 -0.7116  0.6032 -0.2803
 9765SOL    HW236411   4.089   6.333   5.019  1.8486 -0.2769  0.1718
 9766SOL     OW36412   4.769   8.653  10.175  0.5186  0.1878  0.6404
 9766SOL    HW136413   4.696   8.713  10.191  0.4113  0.3929 -0.5363
 9766SOL    HW236414   4.774   8.646  10.080  0.9715 -1.1352  0.7411
 9767SOL     OW36415  12.450   1.714  12.073  0.4160 -0.0603 -0.4160
 9767SOL    HW136416  12.506   1.760  12.010  0.5020 -0.0240 -0.3153
 9767SOL    HW236417  12.511   1.659  12.123  0.6814  1.4971  1.0648
 9768SOL     OW36418   4.145   9.168   5.552 -0.6967 -0.2256 -0.1856
 9768SOL    HW136419   4.070   9.154   5.493 -0.3223 -0.3211 -0.6461
 9768SOL    HW236420   4.115   9.135   5.637 -1.6855  1.0227 -0.0085
 9769SOL     OW36421   3.901   8.733  11.905 -1.1215  0.3636  0.3104
 9769SOL    HW136422   3.856   8.677  11.842  0.2343 -0.7722  0.3135
 9769SOL    HW236423   3.863   8.820  11.890 -3.8437 -0.6228  0.8387
 9770SOL     OW36424   5.194  10.314   7.248  0.0167  0.1547  0.5721
 9770SOL    HW136425   5.209  10.260   7.171  0.5535 -0.1655  0.8925
 9770SOL    HW236426   5.159  10.396   7.213  0.3677  0.0571 -0.0233
 9771SOL     OW36427   1.892   0.581   3.602 -0.4391 -0.6808 -0.3380
 9771SOL    HW136428   1.945   0.562   3.679  1.3486 -0.0809 -1.3601
 9771SOL    HW236429   1.807   0.605   3.636  0.0682 -1.2162  1.3983
 9772SOL     OW36430   2.031   0.701   9.911 -0.4958  0.3951 -0.2709
 9772SOL    HW136431   1.954   0.703   9.968 -1.8274  0.5501 -1.9875
 9772SOL    HW236432   2.092   0.643   9.955 -1.9421 -0.4298  0.7421
 9773SOL     OW36433   7.745   4.123   0.068 -0.0446 -0.0935  0.2831
 9773SOL    HW136434   7.804   4.080   0.130 -1.7876 -0.5332  1.7339
 9773SOL    HW236435   7.666   4.140   0.119 -1.1498  0.5334 -1.5551
 9774SOL     OW36436   9.727   0.886   7.681  0.1406 -0.4646 -0.3004
 9774SOL    HW136437   9.701   0.937   7.758  2.5415 -0.2212  0.4084
 9774SOL    HW236438   9.780   0.814   7.716  0.5622 -0.8601 -1.6629
 9775SOL     OW36439   1.910   7.200  11.832  0.8513 -0.1880 -0.2491
 9775SOL    HW136440   1.970   7.145  11.781 -0.6885 -1.5437 -0.6786
 9775SOL    HW236441   1.832   7.207  11.777  0.3683  1.0367  0.5535
 9776SOL     OW36442  10.912   0.399   3.551 -0.5389  0.5316  0.0867
 9776SOL    HW136443  10.918   0.304   3.564 -0.1650  0.7558  1.8166
 9776SOL    HW236444  10.824   0.422   3.581 -0.1402  0.9045  0.9982
 9777SOL     OW36445   5.673   9.197   3.221  1.0780 -0.0856  0.0623
 9777SOL    HW136446   5.674   9.124   3.284  2.9657 -0.1069  0.0599
 9777SOL    HW236447   5.628   9.268   3.268  2.4217 -0.1060  1.4505
 9778SOL     OW36448   9.303  12.014   5.019  0.2011  1.1055 -0.0613
 9778SOL    HW136449   9.305  11.976   4.931  0.5211  0.5551  0.1809
 9778SOL    HW236450   9.306  11.939   5.078  0.8973  1.5126  0.4317
 9779SOL     OW36451   5.778   7.379   0.140  0.4802 -0.4097  0.6979
 9779SOL    HW136452   5.774   7.308   0.076  1.6670  0.2767 -0.1897
 9779SOL    HW236453   5.872   7.392   0.155  0.3121  1.2379  0.5182
 9780SOL     OW36454  10.568  10.055   0.886 -0.0148 -0.1024  0.4365
 9780SOL    HW136455  10.556  10.131   0.829 -0.9840 -0.1114  0.6036
 9780SOL    HW236456  10.518  10.076   0.964 -1.6916 -1.5740 -0.1668
 9781SOL     OW36457  10.238   7.599   3.747  0.0668  0.3260  0.0252
 9781SOL    HW136458  10.332   7.609   3.730  0.7594 -1.3918  2.2869
 9781SOL    HW236459  10.231   7.513   3.788 -2.2640  1.0926  1.4026
 9782SOL     OW36460   1.867   5.617   2.833  0.0982  0.0648  0.2511
 9782SOL    HW136461   1.961   5.619   2.813 -0.3670 -0.0570 -2.4188
 9782SOL    HW236462   1.855   5.538   2.885  1.4101 -0.2917  0.0499
 9783SOL     OW36463   7.641   8.168  11.981 -0.1651  0.3832 -0.2446
 9783SOL    HW136464   7.683   8.202  12.060 -0.7263 -0.2130  0.3309
 9783SOL    HW236465   7.638   8.073  11.994  1.6858  0.0379 -1.9783
 9784SOL     OW36466   3.505   3.666   6.949  0.3358 -0.4855 -0.1961
 9784SOL    HW136467   3.427   3.717   6.925  0.7684  0.1400 -0.3227
 9784SOL    HW236468   3.472   3.580   6.974 -0.3122 -0.5596 -1.2408
 9785SOL     OW36469   9.941   6.006   2.250  0.6680  0.1869  0.1783
 9785SOL    HW136470   9.886   5.959   2.188  1.8987 -0.6144 -0.3418
 9785SOL    HW236471   9.964   6.088   2.206  2.1568 -0.7023 -0.8065
 9786SOL     OW36472   6.656   4.756   1.247 -0.1741  0.5152 -0.3035
 9786SOL    HW136473   6.570   4.797   1.233  0.3558  2.0498  0.6673
 9786SOL    HW236474   6.665   4.752   1.343  1.5284  2.0003 -0.3476
 9787SOL     OW36475   2.938  10.722   6.492 -0.6148  0.6063  0.1833
 9787SOL    HW136476   2.967  10.803   6.449 -2.7231  1.3456  0.0781
 9787SOL    HW236477   2.992  10.654   6.452 -0.4228  1.6600 -1.4498
 9788SOL     OW36478   9.707   8.899   0.389  0.4148  0.1825  0.6180
 9788SOL    HW136479   9.706   8.810   0.424  0.0552  0.0416  0.2504
 9788SOL    HW236480   9.745   8.952   0.460  2.8641 -0.6058  0.0194
 9789SOL     OW36481  10.742   9.545   0.184  0.1360 -0.3202 -0.6763
 9789SOL    HW136482  10.734   9.565   0.090  1.5757  0.5313 -0.6408
 9789SOL    HW236483  10.740   9.630   0.227  2.3315 -0.4699 -0.1820
 9790SOL     OW36484   0.982   8.746   5.236  0.7666  0.2812  0.5856
 9790SOL    HW136485   0.959   8.780   5.322  1.1198  0.3003  0.6747
 9790SOL    HW236486   1.010   8.656   5.252  1.0661  0.3633  0.5252
 9791SOL     OW36487   3.723   2.261   7.506 -0.0266  0.1012  0.1468
 9791SOL    HW136488   3.792   2.224   7.562 -0.7996  0.4083  1.3509
 9791SOL    HW236489   3.645   2.210   7.527 -0.7560  1.4006  0.7425
 9792SOL     OW36490  12.842   4.075   3.102  0.7186 -1.0286 -0.6435
 9792SOL    HW136491  12.851   4.110   3.190  0.9087 -0.3187 -0.9413
 9792SOL    HW236492  12.932   4.059   3.073  0.7259 -0.1098 -1.1577
 9793SOL     OW36493  10.868  10.354   0.551  0.3561 -0.3602  0.1888
 9793SOL    HW136494  10.926  10.358   0.627 -0.2395  1.7891  0.6103
 9793SOL    HW236495  10.793  10.303   0.580 -0.5183  1.6034  1.6023
 9794SOL     OW36496   7.708   0.211   6.523 -0.0069 -0.2695 -0.1024
 9794SOL    HW136497   7.767   0.230   6.450  1.2095 -1.3532  0.5586
 9794SOL    HW236498   7.639   0.157   6.484  0.8838 -1.2299 -0.3737
 9795SOL     OW36499   7.238   8.807   9.423  0.2292  0.2094  1.1998
 9795SOL    HW136500   7.316   8.843   9.465 -0.2879  0.7835  1.6769
 9795SOL    HW236501   7.242   8.840   9.333  0.5036  0.2901  1.2411
 9796SOL     OW36502  10.311   9.978   1.974 -0.2240 -0.3186 -0.0979
 9796SOL    HW136503  10.366   9.900   1.969 -0.0189 -0.4110  2.5510
 9796SOL    HW236504  10.221   9.944   1.971 -0.1627 -0.4276 -1.1887
 9797SOL     OW36505   3.427   8.932  11.601 -0.2372 -0.1265  0.4843
 9797SOL    HW136506   3.389   9.008  11.556  1.4553  1.4018  1.5073
 9797SOL    HW236507   3.362   8.907  11.666 -1.6583 -0.8386 -1.1285
 9798SOL     OW36508   8.722  10.721  11.796  0.4105 -0.0639  0.0860
 9798SOL    HW136509   8.763  10.670  11.865  0.6048 -0.2861 -0.1930
 9798SOL    HW236510   8.632  10.690  11.793  0.4288 -0.1235  0.1700
 9799SOL     OW36511  12.024   6.909  10.578  0.0099 -0.1289  0.1409
 9799SOL    HW136512  11.954   6.972  10.560  0.2664  0.4264  1.0818
 9799SOL    HW236513  12.071   6.902  10.495 -0.3171  0.5356 -0.1097
 9800SOL     OW36514   9.984   7.598   2.934  0.3841 -0.1779  0.0415
 9800SOL    HW136515   9.960   7.505   2.938 -0.5131  0.0182 -0.4132
 9800SOL    HW236516  10.053   7.601   2.868 -0.4155 -0.3816 -0.8326
 9801SOL     OW36517  11.694   7.994   9.890  0.3134  0.1709  0.3424
 9801SOL    HW136518  11.755   8.063   9.915  0.1605  0.8074 -0.9819
 9801SOL    HW236519  11.608   8.035   9.896  0.3412  0.8183 -2.5033
 9802SOL     OW36520  10.155   1.456   9.404 -0.0522 -0.1062  0.2037
 9802SOL    HW136521  10.155   1.552   9.398  0.7069 -0.1779 -1.1888
 9802SOL    HW236522  10.128   1.426   9.317 -1.1668 -1.1713  0.8809
 9803SOL     OW36523   4.074   7.214   5.028  0.1650  0.0186 -0.4502
 9803SOL    HW136524   4.031   7.271   4.964 -0.4922  0.1228  0.0794
 9803SOL    HW236525   4.073   7.264   5.110 -1.8316 -1.3174  0.4284
 9804SOL     OW36526   5.442   9.979   5.611 -0.6342  0.2499 -0.2830
 9804SOL    HW136527   5.410   9.922   5.541 -0.6297  0.0653 -0.1380
 9804SOL    HW236528   5.375  10.047   5.620  0.7370  2.0106 -2.4618
 9805SOL     OW36529   8.007   8.497   6.925 -0.1766  0.0096  0.2541
 9805SOL    HW136530   7.967   8.413   6.948 -0.9470  0.5270  0.8040
 9805SOL    HW236531   8.100   8.486   6.948 -0.1939 -0.8218 -0.0416
 9806SOL     OW36532  10.452   5.105   8.761 -0.1549 -0.0194 -0.3733
 9806SOL    HW136533  10.503   5.084   8.839  0.8889  1.2849 -0.6589
 9806SOL    HW236534  10.452   5.201   8.758 -1.6940 -0.0185 -1.0078
 9807SOL     OW36535   9.663  11.258   9.667  0.1241  0.4578  0.1255
 9807SOL    HW136536   9.645  11.189   9.730 -2.1900 -0.1566 -1.1069
 9807SOL    HW236537   9.632  11.338   9.708  1.6726  0.6217  1.0526
 9808SOL     OW36538  11.099   6.888   0.672 -0.6914 -0.2363 -0.0436
 9808SOL    HW136539  11.073   6.929   0.755  0.4083  1.4924 -0.4997
 9808SOL    HW236540  11.033   6.916   0.609  0.1589  1.0448 -0.3948
 9809SOL     OW36541   1.634  12.467   7.848 -0.3498 -0.2782  0.0671
 9809SOL    HW136542   1.550  12.501   7.816 -1.9904 -1.9505  2.2232
 9809SOL    HW236543   1.666  12.412   7.777 -1.3259 -0.0208 -0.6011
 9810SOL     OW36544   5.973  12.853   0.042  0.5507  0.5934 -0.2592
 9810SOL    HW136545   6.027  12.888  -0.028  1.5656  1.3261  0.8505
 9810SOL    HW236546   5.898  12.912   0.048  0.9372  1.0721 -0.1162
 9811SOL     OW36547   8.253   1.850   2.301  0.2074  0.4597 -0.0851
 9811SOL    HW136548   8.233   1.924   2.359 -1.2013  1.7666 -2.1055
 9811SOL    HW236549   8.349   1.849   2.295  0.3092  1.2037  1.0700
 9812SOL     OW36550   2.083   6.046   6.178 -0.0879 -0.6017 -0.0304
 9812SOL    HW136551   2.067   6.125   6.125 -0.4093 -0.7120 -0.0975
 9812SOL    HW236552   2.178   6.033   6.172 -0.1250 -0.6416 -0.6233
 9813SOL     OW36553   4.770   4.324   1.338  0.4395  0.8672 -0.6997
 9813SOL    HW136554   4.754   4.416   1.360  0.5458  0.4903  1.1316
 9813SOL    HW236555   4.836   4.295   1.402 -0.4424 -0.7799 -0.4696
 9814SOL     OW36556  12.366  12.956  12.727 -0.1044  0.4193  0.3301
 9814SOL    HW136557  12.453  12.922  12.706  0.4759  1.5561  0.8360
 9814SOL    HW236558  12.324  12.970  12.642 -0.8612 -2.6655  0.0708
 9815SOL     OW36559   3.070  11.386   6.453  0.0570  0.3903 -0.0580
 9815SOL    HW136560   2.976  11.387   6.436  0.1123  0.4072 -0.3785
 9815SOL    HW236561   3.080  11.429   6.537 -0.0226  2.5752 -1.1005
 9816SOL     OW36562   4.884  11.330  10.826 -0.6288 -0.5740  0.2307
 9816SOL    HW136563   4.882  11.424  10.807 -1.1107 -0.4505  0.8422
 9816SOL    HW236564   4.907  11.289  10.743 -1.8084 -0.0037 -0.4128
 9817SOL     OW36565  10.124   6.366   9.023  0.4714  0.0534 -0.6188
 9817SOL    HW136566  10.034   6.383   8.995  1.1654  0.5834 -2.7324
 9817SOL    HW236567  10.138   6.273   9.007  0.0530 -0.2191  0.5337
 9818SOL     OW36568   3.953   8.479  10.705 -0.1830 -0.0271 -0.4282
 9818SOL    HW136569   3.958   8.425  10.626 -0.7508 -0.3456 -0.2516
 9818SOL    HW236570   3.981   8.566  10.677  2.2843 -0.7320 -0.3819
 9819SOL     OW36571  10.660  11.670   8.420 -0.2891 -0.4351 -0.1992
 9819SOL    HW136572  10.612  11.655   8.501  0.9366  0.6520  0.7782
 9819SOL    HW236573  10.632  11.756   8.390  1.0020  0.2164  0.3859
 9820SOL     OW36574  11.034   0.461  10.353 -0.9152  0.2972  0.3252
 9820SOL    HW136575  11.092   0.487  10.282 -2.3889  2.0304 -0.3334
 9820SOL    HW236576  11.042   0.366  10.358  2.4900  0.5071  0.8008
 9821SOL     OW36577   7.571   2.685   2.761  0.0419  0.0580  0.5696
 9821SOL    HW136578   7.637   2.671   2.693  1.2840 -0.6046  1.8741
 9821SOL    HW236579   7.490   2.699   2.712  0.7189 -1.3207 -1.0554
 9822SOL     OW36580   3.717   2.802   4.285  0.2420 -0.2344  0.3921
 9822SOL    HW136581   3.704   2.714   4.320  1.9091 -0.2182  1.1772
 9822SOL    HW236582   3.786   2.839   4.340 -0.4273  1.5710  0.0706
 9823SOL     OW36583   6.661   1.989  10.531  0.7756  0.4170  0.2868
 9823SOL    HW136584   6.753   1.967  10.543  0.1457 -2.6442  0.4617
 9823SOL    HW236585   6.630   2.010  10.619  1.4531  2.4841  0.0870
 9824SOL     OW36586   7.327   8.630   2.161 -0.6373  0.0544 -0.4459
 9824SOL    HW136587   7.381   8.646   2.084 -2.7995  0.2625 -1.9969
 9824SOL    HW236588   7.375   8.565   2.211  1.8734  1.4743 -0.8261
 9825SOL     OW36589   1.127  12.618   4.458  0.2589  0.2444  0.4382
 9825SOL    HW136590   1.154  12.683   4.523 -0.7444 -1.0085  2.2004
 9825SOL    HW236591   1.036  12.641   4.438  0.5254  0.5541 -0.4768
 9826SOL     OW36592   8.752   1.802   9.782 -0.6560 -0.4023 -0.2207
 9826SOL    HW136593   8.729   1.837   9.868  2.1252 -2.8063  1.6884
 9826SOL    HW236594   8.818   1.863   9.748 -1.5572  0.3958 -0.6036
 9827SOL     OW36595   7.674   6.024   4.125 -0.0489 -0.4885 -0.7473
 9827SOL    HW136596   7.768   6.024   4.139 -0.1225 -1.8450 -0.0721
 9827SOL    HW236597   7.644   6.108   4.160  1.0699  0.7148 -2.4937
 9828SOL     OW36598  12.576  10.047   5.606  0.0865  1.3278  0.3715
 9828SOL    HW136599  12.562  10.133   5.567 -1.4775  0.8514 -0.1923
 9828SOL    HW236600  12.490  10.021   5.639  0.2083 -0.5469 -0.6107
 9829SOL     OW36601  10.541   8.417   0.404 -0.2754 -0.4260  0.1138
 9829SOL    HW136602  10.452   8.433   0.436  0.0523 -1.1376  1.4488
 9829SOL    HW236603  10.532   8.341   0.346 -0.7404  0.3600 -0.8737
 9830SOL     OW36604   2.552   2.176   6.299  0.2915 -0.8298  0.0691
 9830SOL    HW136605   2.468   2.141   6.268  0.4941 -0.8693 -0.4533
 9830SOL    HW236606   2.604   2.099   6.318  1.6401 -0.9869 -3.4812
 9831SOL     OW36607   8.621   5.571   6.206 -0.4754  0.1901 -0.0837
 9831SOL    HW136608   8.681   5.512   6.161 -1.1587  1.2494 -2.5568
 9831SOL    HW236609   8.534   5.545   6.175 -0.8525  1.8777 -0.5764
 9832SOL     OW36610   1.077   1.415  12.234 -0.0491  0.2370  0.6567
 9832SOL    HW136611   1.083   1.385  12.325 -1.5570  0.8442  0.9822
 9832SOL    HW236612   1.002   1.474  12.233  0.6316  1.1422 -0.7479
 9833SOL     OW36613   7.041  11.835  12.154 -0.0660  0.2032  0.2423
 9833SOL    HW136614   7.074  11.761  12.103 -0.7727 -0.3548  0.5775
 9833SOL    HW236615   7.106  11.904  12.142  0.6882 -0.5336  0.0665
 9834SOL     OW36616   4.504   9.718   7.198 -0.2600  1.0232 -0.6248
 9834SOL    HW136617   4.507   9.737   7.292 -1.5135 -0.3424 -0.2573
 9834SOL    HW236618   4.436   9.651   7.190  1.0883 -0.2394 -2.2704
 9835SOL     OW36619  10.779   6.987   1.381  0.1181  0.1373  0.6733
 9835SOL    HW136620  10.856   7.034   1.348 -0.2911  0.3954  0.0562
 9835SOL    HW236621  10.705   7.040   1.353 -0.3053 -0.3390  0.8715
 9836SOL     OW36622   8.794   5.844   9.869  0.4780 -0.3909 -0.2824
 9836SOL    HW136623   8.717   5.902   9.872 -0.5554 -1.7462  0.5346
 9836SOL    HW236624   8.757   5.758   9.850  1.7181 -1.2244  0.9760
 9837SOL     OW36625   6.699   2.672   4.762 -0.6352  0.1792 -0.0327
 9837SOL    HW136626   6.728   2.601   4.705 -2.6894  1.2913 -2.6769
 9837SOL    HW236627   6.762   2.743   4.748  0.6939 -0.5985  1.6508
 9838SOL     OW36628   2.359   7.796   9.537  0.0438  0.2325 -0.2175
 9838SOL    HW136629   2.265   7.788   9.550  0.2888  0.4564  1.9762
 9838SOL    HW236630   2.392   7.706   9.544  0.1740  0.3511  0.8033
 9839SOL     OW36631   2.033   4.525   8.622 -0.2506 -0.0338  0.1634
 9839SOL    HW136632   1.975   4.453   8.647 -1.1085  0.1494 -1.1776
 9839SOL    HW236633   2.025   4.530   8.527  0.9219  0.8994  0.0909
 9840SOL     OW36634  11.388   0.001   0.774  0.5214  0.1630  0.0899
 9840SOL    HW136635  11.414   0.063   0.707 -1.2635  0.7014 -0.1527
 9840SOL    HW236636  11.346  -0.071   0.726  0.1977  0.0374  0.5473
 9841SOL     OW36637   6.359   0.801  11.981 -0.3004  0.1145 -0.5038
 9841SOL    HW136638   6.399   0.797  12.068 -0.6634 -0.2589 -0.3513
 9841SOL    HW236639   6.322   0.889  11.976  0.2103  0.3352 -0.5052
 9842SOL     OW36640  12.841   3.153   6.546  0.2854 -0.0382 -0.7538
 9842SOL    HW136641  12.930   3.139   6.575  0.3675 -1.3702 -1.5665
 9842SOL    HW236642  12.795   3.071   6.565 -0.8335  0.6971 -0.1410
 9843SOL     OW36643   5.137   2.661   2.442 -0.0351 -0.2470 -0.5674
 9843SOL    HW136644   5.212   2.631   2.493  1.2761  1.3047 -1.4411
 9843SOL    HW236645   5.083   2.584   2.429  0.2107 -0.9388  2.0548
 9844SOL     OW36646  12.833   4.492   0.910  0.1508 -0.3299  0.8430
 9844SOL    HW136647  12.750   4.456   0.879  0.5674 -0.1172 -0.6232
 9844SOL    HW236648  12.866   4.427   0.973  0.6917 -2.4159 -1.4183
 9845SOL     OW36649   4.835   3.531   5.637 -0.9325 -0.1617  0.1467
 9845SOL    HW136650   4.929   3.525   5.657 -1.3418 -0.0917  2.3210
 9845SOL    HW236651   4.824   3.477   5.558  1.0111  0.3048 -0.4968
 9846SOL     OW36652  11.668   6.381   1.201 -0.8637 -0.6843  0.4792
 9846SOL    HW136653  11.601   6.355   1.138  0.4080 -0.0469 -1.2098
 9846SOL    HW236654  11.627   6.451   1.252 -0.4455  2.2730 -2.8901
 9847SOL     OW36655  12.638   6.801   0.352  0.3021  0.2752 -0.0345
 9847SOL    HW136656  12.641   6.864   0.424 -0.1368 -0.9584  1.0990
 9847SOL    HW236657  12.592   6.847   0.282 -2.0021  0.5408  1.5242
 9848SOL     OW36658   1.233   2.815   5.983  0.0445 -0.1758  0.0050
 9848SOL    HW136659   1.245   2.736   6.037 -0.3705 -0.2506 -0.0095
 9848SOL    HW236660   1.167   2.790   5.919  0.5185 -0.0757 -0.5260
 9849SOL     OW36661   5.989   3.301   1.435 -0.2199  0.0170  0.8859
 9849SOL    HW136662   6.009   3.302   1.529  1.9589  0.1919  0.4703
 9849SOL    HW236663   5.938   3.380   1.421  1.4973  1.3281  1.5639
 9850SOL     OW36664   2.605   1.919  10.376 -0.1354  0.0342  0.0557
 9850SOL    HW136665   2.614   1.994  10.317 -0.1566 -0.7287 -0.9365
 9850SOL    HW236666   2.644   1.949  10.459  0.2484  0.9916 -0.4573
 9851SOL     OW36667   9.844   9.393   0.770 -0.1220  0.1115 -0.1090
 9851SOL    HW136668   9.894   9.330   0.822  0.1669  1.3559  1.1798
 9851SOL    HW236669   9.753   9.363   0.778  0.2884 -1.8481 -2.0231
 9852SOL     OW36670   3.902   6.436   8.791 -0.4973  0.0613  0.3136
 9852SOL    HW136671   3.900   6.486   8.873  0.3787 -0.3991  0.6294
 9852SOL    HW236672   3.819   6.458   8.748 -1.2891 -0.2132  1.6293
 9853SOL     OW36673   4.058   3.334   2.743 -0.4095  0.5173 -0.4321
 9853SOL    HW136674   4.140   3.363   2.783 -1.3594  1.8268  0.6455
 9853SOL    HW236675   3.990   3.382   2.790 -1.9647 -2.0530  0.1298
 9854SOL     OW36676   3.721   4.224   8.950  0.2835  0.2356 -0.3027
 9854SOL    HW136677   3.718   4.130   8.932  1.1604  0.0077  0.6129
 9854SOL    HW236678   3.729   4.229   9.045  4.9160  1.0212 -0.5036
 9855SOL     OW36679   6.359   6.498  10.605 -0.2357 -0.1955  0.8140
 9855SOL    HW136680   6.392   6.416  10.568 -0.9238 -0.2714  0.3490
 9855SOL    HW236681   6.422   6.564  10.578 -0.5821 -0.2972 -0.2801
 9856SOL     OW36682   0.431   0.101   1.655  0.2152  0.1121 -0.1868
 9856SOL    HW136683   0.521   0.113   1.684  0.2983 -1.3248  0.2200
 9856SOL    HW236684   0.436   0.034   1.587 -0.6472 -0.7747  0.5885
 9857SOL     OW36685   6.374   9.033   1.953  0.0889  0.3911 -0.1832
 9857SOL    HW136686   6.429   8.955   1.956 -0.4795 -0.0211 -0.2311
 9857SOL    HW236687   6.382   9.065   1.863  1.0802  0.9563  0.0890
 9858SOL     OW36688   3.355   9.786  11.355 -0.4250 -0.1014 -0.0006
 9858SOL    HW136689   3.377   9.784  11.262 -2.3126 -2.5090 -0.4933
 9858SOL    HW236690   3.261   9.800  11.358 -0.7334 -2.0449  1.3960
 9859SOL     OW36691  11.933   2.670  10.101  0.7639 -0.2043 -0.1158
 9859SOL    HW136692  11.949   2.578  10.077 -0.5708 -0.4098 -0.3005
 9859SOL    HW236693  11.977   2.720  10.032 -0.1014 -0.7504 -1.1031
 9860SOL     OW36694  10.476   4.385   2.289  0.1319 -0.0620  0.0281
 9860SOL    HW136695  10.561   4.348   2.263 -1.1395 -0.9054 -3.4206
 9860SOL    HW236696  10.423   4.309   2.312 -0.3291  0.3008  0.1703
 9861SOL     OW36697   0.615  12.599  12.192  0.4256 -0.5533  0.5601
 9861SOL    HW136698   0.595  12.513  12.155 -0.9563  0.3213 -0.8483
 9861SOL    HW236699   0.546  12.614  12.256 -0.6991  0.4133 -0.8148
 9862SOL     OW36700   2.583  11.119   7.338 -0.2822 -0.1094 -0.0908
 9862SOL    HW136701   2.591  11.207   7.301  1.4431 -0.5177 -0.7510
 9862SOL    HW236702   2.493  11.117   7.372 -0.3310  1.9390  0.0693
 9863SOL     OW36703   3.798   4.453  12.700  1.0002  0.0231 -0.9414
 9863SOL    HW136704   3.720   4.418  12.656  0.8350 -2.1823  0.9610
 9863SOL    HW236705   3.764   4.515  12.764  0.9830  0.5108 -1.4119
 9864SOL     OW36706   9.367  12.135  10.235  0.1970 -0.3314  0.3956
 9864SOL    HW136707   9.291  12.138  10.293  0.3906 -2.1260  0.8016
 9864SOL    HW236708   9.366  12.047  10.198  2.0170 -0.3721  0.3408
 9865SOL     OW36709   0.872  11.671  11.477 -0.1340 -0.4398  0.3193
 9865SOL    HW136710   0.920  11.752  11.456 -1.7671  0.8347  1.2447
 9865SOL    HW236711   0.937  11.616  11.520  1.0079  0.4120 -0.2540
 9866SOL     OW36712   3.664   6.377   5.768 -0.3753  0.4990  0.5390
 9866SOL    HW136713   3.616   6.295   5.774 -0.1943  0.4246  1.0333
 9866SOL    HW236714   3.749   6.358   5.808 -0.0097  0.6885 -0.1298
 9867SOL     OW36715   0.112  10.684  11.954  0.0857 -0.0008 -0.6031
 9867SOL    HW136716   0.167  10.761  11.969 -0.0002 -0.3941  2.1946
 9867SOL    HW236717   0.174  10.612  11.943  0.1935 -0.1741  0.9345
 9868SOL     OW36718  10.011   8.403   3.164 -0.2643 -0.2795 -0.0817
 9868SOL    HW136719   9.960   8.475   3.127 -0.3836 -0.6244 -0.5879
 9868SOL    HW236720   9.971   8.324   3.128  1.1507 -0.5364 -1.1676
 9869SOL     OW36721   1.327   2.549   8.236 -0.7073 -0.2336  0.2483
 9869SOL    HW136722   1.361   2.513   8.318 -2.0926 -1.9285  0.1428
 9869SOL    HW236723   1.247   2.498   8.218 -0.2754 -0.1701 -2.3255
 9870SOL     OW36724   4.517   3.651  12.495 -0.4693 -0.1486 -0.4523
 9870SOL    HW136725   4.522   3.746  12.497  0.2709 -0.1801 -0.3647
 9870SOL    HW236726   4.606   3.623  12.472 -0.2558 -0.8606  1.1187
 9871SOL     OW36727  12.480   6.915   2.554  0.3722 -0.0020 -0.6276
 9871SOL    HW136728  12.545   6.973   2.516 -2.3214  3.0234 -1.0167
 9871SOL    HW236729  12.447   6.864   2.480  2.3639 -1.8314 -0.3705
 9872SOL     OW36730   8.705  12.148   1.291 -0.5308  0.5048  0.0360
 9872SOL    HW136731   8.627  12.201   1.277  0.3931  1.6501 -0.9580
 9872SOL    HW236732   8.771  12.209   1.323  0.0398 -0.3928  0.6095
 9873SOL     OW36733   0.447   9.482   4.613 -0.9543 -0.1604 -0.0762
 9873SOL    HW136734   0.521   9.429   4.644 -0.2299  0.3978 -0.8029
 9873SOL    HW236735   0.478   9.573   4.620 -1.8975  0.1374  0.4297
 9874SOL     OW36736   2.056   6.534   4.929 -0.1296 -0.5325 -0.2235
 9874SOL    HW136737   2.062   6.622   4.893 -2.1091 -0.4963 -0.5732
 9874SOL    HW236738   2.143   6.496   4.915  0.9756  1.5542  0.5331
 9875SOL     OW36739   8.966  10.909   5.387  0.0828  0.6516  0.8902
 9875SOL    HW136740   8.946  10.830   5.437 -0.0613  0.1919  0.1189
 9875SOL    HW236741   8.880  10.948   5.368 -0.1365 -0.8761 -1.7038
 9876SOL     OW36742   4.044   2.018   9.944 -0.4584  0.3577  0.3290
 9876SOL    HW136743   3.949   2.007   9.940 -0.7882  2.9242 -0.9984
 9876SOL    HW236744   4.057   2.113   9.952  1.9934  0.2527 -1.2687
 9877SOL     OW36745   8.318  11.084   9.178 -0.2141  0.0581  0.2461
 9877SOL    HW136746   8.389  11.124   9.127 -0.2190 -0.4887 -0.1886
 9877SOL    HW236747   8.332  11.118   9.267  0.8345 -0.3521  0.2536
 9878SOL     OW36748   9.100   9.063  11.359  1.0355  0.0570  0.7944
 9878SOL    HW136749   9.032   9.065  11.292  1.2047  0.9118  0.6365
 9878SOL    HW236750   9.055   9.091  11.439  0.9380 -0.5218  0.9464
 9879SOL     OW36751  10.298   8.074   3.147  0.4440 -0.4155 -0.5661
 9879SOL    HW136752  10.293   8.167   3.122  0.7769 -0.7528 -2.0146
 9879SOL    HW236753  10.248   8.029   3.079  1.0045 -1.3763 -0.3560
 9880SOL     OW36754  12.034   3.022  12.098 -0.5490  0.1490 -0.1461
 9880SOL    HW136755  12.034   2.926  12.090 -0.5478  0.2550 -1.8461
 9880SOL    HW236756  11.950   3.042  12.140  0.2114 -0.6680  1.8639
 9881SOL     OW36757   2.135   9.420   4.704 -0.7048  0.3637 -0.0285
 9881SOL    HW136758   2.229   9.438   4.701 -0.6651  0.0954 -0.4388
 9881SOL    HW236759   2.129   9.334   4.747 -0.6346 -0.5017 -1.6832
 9882SOL     OW36760   5.779   3.382   3.096  0.2473  0.1923 -0.3267
 9882SOL    HW136761   5.794   3.378   3.002  0.8692  2.7431 -0.4181
 9882SOL    HW236762   5.685   3.393   3.106  0.3942  2.1925 -0.8270
 9883SOL     OW36763  12.857   0.654  12.864 -0.6565 -0.6786  0.1470
 9883SOL    HW136764  12.846   0.599  12.941 -0.9573 -0.3254  0.3574
 9883SOL    HW236765  12.801   0.730  12.880 -0.5471 -0.4953 -0.3160
 9884SOL     OW36766  10.051   5.997   8.948  0.0938  0.0535 -0.0052
 9884SOL    HW136767  10.019   5.908   8.930  0.5793  0.0634 -0.9699
 9884SOL    HW236768   9.990   6.030   9.014 -1.1901 -0.3614 -0.9290
 9885SOL     OW36769  11.033   8.946   4.281  0.4238 -0.1548 -0.0259
 9885SOL    HW136770  11.109   8.992   4.245  1.0490 -0.3367  1.0109
 9885SOL    HW236771  11.068   8.895   4.354 -0.4176 -1.5411 -0.5422
 9886SOL     OW36772   0.995   2.110   3.474 -0.0620  0.0177 -0.1292
 9886SOL    HW136773   0.921   2.086   3.530  0.8941 -0.0226  1.1718
 9886SOL    HW236774   1.000   2.039   3.409  1.0702 -2.0198  2.0159
 9887SOL     OW36775   1.082   2.631   0.238  0.0159  0.1413  0.3195
 9887SOL    HW136776   1.149   2.566   0.219  0.4902  0.9901 -1.0540
 9887SOL    HW236777   1.068   2.624   0.333  0.9115 -1.1070  0.3865
 9888SOL     OW36778   0.199   6.684   8.997 -0.2764 -0.2472  0.1837
 9888SOL    HW136779   0.286   6.707   9.030 -0.5803  1.8207 -0.3644
 9888SOL    HW236780   0.202   6.707   8.905 -2.0733  1.9835  0.6141
 9889SOL     OW36781   3.163   8.686   8.864 -0.4573  0.8655 -1.3263
 9889SOL    HW136782   3.235   8.746   8.843  0.7912 -0.2123 -0.2359
 9889SOL    HW236783   3.134   8.713   8.951  0.7815 -0.6654 -0.3813
 9890SOL     OW36784   9.401  12.242   6.884 -0.2999 -0.3426  0.6564
 9890SOL    HW136785   9.411  12.147   6.883  0.2382 -0.3018  1.3557
 9890SOL    HW236786   9.471  12.274   6.827 -1.0299 -0.3886 -0.3060
 9891SOL     OW36787   6.268   9.057   7.927 -0.3504 -0.2662 -0.3275
 9891SOL    HW136788   6.278   8.978   7.980  0.6973 -0.7020 -1.1333
 9891SOL    HW236789   6.175   9.063   7.910 -0.6034 -0.6040  0.8062
 9892SOL     OW36790   4.129   0.438   9.646  0.1679 -0.0501 -0.5116
 9892SOL    HW136791   4.113   0.525   9.683 -0.6902 -0.5830  0.4169
 9892SOL    HW236792   4.161   0.455   9.558  1.3121  1.2392  0.1137
 9893SOL     OW36793   5.895   1.570   8.740 -0.0709 -0.5904 -0.5334
 9893SOL    HW136794   5.874   1.633   8.810 -2.1985 -0.7165 -0.9922
 9893SOL    HW236795   5.915   1.625   8.664 -0.8660 -0.4634 -0.6523
 9894SOL     OW36796  10.519   1.085   5.586 -0.3001  0.0726 -0.5394
 9894SOL    HW136797  10.501   1.147   5.657  2.2465  0.6515 -0.2917
 9894SOL    HW236798  10.464   1.009   5.605 -0.8587  0.8572  1.1563
 9895SOL     OW36799   7.849   6.186   2.397  0.1598  0.2975 -0.4199
 9895SOL    HW136800   7.754   6.186   2.402  0.1141 -0.0072 -1.3001
 9895SOL    HW236801   7.871   6.112   2.341  1.0019 -0.6890  1.1389
 9896SOL     OW36802   1.158  11.945   9.554  0.5335  1.0037  0.2327
 9896SOL    HW136803   1.219  11.999   9.604  1.0623 -0.4555  1.2310
 9896SOL    HW236804   1.093  11.916   9.618 -0.0531  0.8735 -0.3995
 9897SOL     OW36805  10.449   5.333   6.382  0.3906  0.4149  0.1405
 9897SOL    HW136806  10.384   5.380   6.435  1.2146  1.7131  0.0661
 9897SOL    HW236807  10.524   5.322   6.440 -0.0593 -1.5509  0.3926
 9898SOL     OW36808   4.713   4.567   8.195 -0.0205  0.5262 -0.3296
 9898SOL    HW136809   4.795   4.519   8.195 -0.6900 -0.6678  0.2205
 9898SOL    HW236810   4.650   4.507   8.236 -1.5297  0.7636 -2.1648
 9899SOL     OW36811   9.375   8.652  11.829 -0.0716  0.2645  0.1918
 9899SOL    HW136812   9.330   8.594  11.890 -1.8739  0.0810 -1.2318
 9899SOL    HW236813   9.464   8.659  11.864 -0.3409 -1.8065  1.4396
 9900SOL     OW36814  11.685   5.235   8.554 -0.2968 -0.3548  0.0444
 9900SOL    HW136815  11.620   5.299   8.525 -0.2004  0.0785  0.7707
 9900SOL    HW236816  11.768   5.282   8.552 -0.1070 -0.6966 -0.1963
 9901SOL     OW36817   8.213   4.211   3.272  0.0127  0.4227 -0.5443
 9901SOL    HW136818   8.216   4.287   3.214  0.7859  0.3635 -0.5823
 9901SOL    HW236819   8.195   4.248   3.358  0.8813  0.7012 -0.4761
 9902SOL     OW36820   6.242   2.835   1.108 -0.4722  0.3671 -0.1924
 9902SOL    HW136821   6.276   2.756   1.067  0.4393  0.2301  0.7938
 9902SOL    HW236822   6.263   2.905   1.046 -1.1314 -0.1170 -0.9881
 9903SOL     OW36823   5.818   1.403  12.234  0.5099  0.2144 -0.2932
 9903SOL    HW136824   5.790   1.327  12.184  0.6717  0.1661 -0.3120
 9903SOL    HW236825   5.857   1.366  12.314 -0.3424  0.3087  0.1819
 9904SOL     OW36826   0.895   7.895   7.106  0.2459 -0.1786  0.6076
 9904SOL    HW136827   0.990   7.887   7.104  0.3680  0.8588  1.6008
 9904SOL    HW236828   0.863   7.804   7.103  1.3339 -0.6900  2.7732
 9905SOL     OW36829   3.867  10.083   3.641  0.3292 -0.3153  0.0623
 9905SOL    HW136830   3.885  10.176   3.633 -1.9640  0.1484 -0.4009
 9905SOL    HW236831   3.849  10.054   3.551 -0.8390 -0.7488  0.4121
 9906SOL     OW36832  12.770   7.113  12.894  0.2397  0.5074 -0.0696
 9906SOL    HW136833  12.790   7.060  12.971  0.3065  0.9230  0.2091
 9906SOL    HW236834  12.855   7.123  12.850  0.0748 -0.3291 -0.5964
 9907SOL     OW36835  12.533  11.817   3.668  0.0544 -0.0838 -0.3680
 9907SOL    HW136836  12.587  11.833   3.746 -0.1784  0.4650 -0.3153
 9907SOL    HW236837  12.511  11.904   3.635  0.6492 -0.3085 -1.4042
 9908SOL     OW36838  11.905   1.058   6.336  0.1488  0.2720 -0.0779
 9908SOL    HW136839  11.821   1.013   6.344  0.8787 -1.0071  0.8344
 9908SOL    HW236840  11.883   1.146   6.307 -1.7000  0.6351  2.1400
 9909SOL     OW36841   5.251   2.510   5.163 -0.0106  0.3582  0.2364
 9909SOL    HW136842   5.301   2.538   5.240 -2.4259  0.8891  1.7217
 9909SOL    HW236843   5.294   2.429   5.134  1.4330  0.5768  1.6483
 9910SOL     OW36844   0.872   9.649   0.014  0.6462 -0.2529 -0.1026
 9910SOL    HW136845   0.901   9.721   0.070  2.2026 -0.7937 -0.1822
 9910SOL    HW236846   0.854   9.691  -0.070  0.5247  0.2062  0.1490
 9911SOL     OW36847   2.848  10.243   4.096  0.3130 -0.8835  0.3244
 9911SOL    HW136848   2.754  10.261   4.094  0.1223 -1.7731  0.5979
 9911SOL    HW236849   2.855  10.151   4.069  1.0185 -1.1152  1.2337
 9912SOL     OW36850  11.346   9.232  12.010  0.0537 -0.6050  0.3512
 9912SOL    HW136851  11.401   9.241  12.088  0.2487  0.3162  0.1139
 9912SOL    HW236852  11.392   9.280  11.942 -0.5492 -0.6735 -0.1182
 9913SOL     OW36853  11.437  12.908   7.726 -0.5441 -0.6561  0.5437
 9913SOL    HW136854  11.444  13.002   7.710  1.1698 -0.8240  0.1944
 9913SOL    HW236855  11.417  12.870   7.640  4.4083 -1.1156 -0.6647
 9914SOL     OW36856   4.399  12.866  10.063 -0.5811 -0.0786  0.1422
 9914SOL    HW136857   4.493  12.884  10.074 -0.8989  1.0415  1.3038
 9914SOL    HW236858   4.369  12.935  10.004 -1.1817  1.3238  2.0079
 9915SOL     OW36859   9.851   0.224   4.416 -0.6952  0.1027 -0.3659
 9915SOL    HW136860   9.841   0.196   4.326 -1.3220 -0.3226 -0.1722
 9915SOL    HW236861   9.914   0.163   4.454 -1.7545 -0.8252 -0.0535
 9916SOL     OW36862   1.369  12.269   2.554  0.2698 -0.5926  0.2545
 9916SOL    HW136863   1.354  12.258   2.460  0.2033 -1.1657  0.3243
 9916SOL    HW236864   1.389  12.361   2.565  1.2034 -0.6972 -0.4529
 9917SOL     OW36865  10.302   6.353   0.442  0.3117 -0.3261  0.0215
 9917SOL    HW136866  10.355   6.275   0.430 -0.0532 -0.3167 -2.0146
 9917SOL    HW236867  10.365   6.423   0.460  1.0071 -0.3852 -1.9756
 9918SOL     OW36868   5.403   0.132  12.433 -0.2004 -0.1114  0.5070
 9918SOL    HW136869   5.325   0.148  12.381  0.1108 -0.3283 -0.0408
 9918SOL    HW236870   5.379   0.157  12.522 -0.4992  1.0046  0.1264
 9919SOL     OW36871  10.665   3.987  12.715 -0.2922  0.6218 -0.3823
 9919SOL    HW136872  10.742   4.037  12.740  1.2394 -2.4178  1.6954
 9919SOL    HW236873  10.657   3.920  12.784 -3.5112 -0.5399 -1.6864
 9920SOL     OW36874   1.483   7.646   2.483 -0.3607  0.1002 -0.0337
 9920SOL    HW136875   1.542   7.572   2.469 -1.2201 -0.5474 -0.3314
 9920SOL    HW236876   1.540   7.717   2.512  0.5875 -0.4484 -0.4986
 9921SOL     OW36877  10.725   5.962  10.869  0.0586 -0.0011 -1.0137
 9921SOL    HW136878  10.697   6.049  10.897 -0.2139 -0.5700  0.6260
 9921SOL    HW236879  10.800   5.943  10.926  0.8721 -0.3613 -2.1867
 9922SOL     OW36880   8.250   6.436   7.680 -0.2307  0.1593  0.3598
 9922SOL    HW136881   8.225   6.480   7.599 -1.1157  0.0269  0.5539
 9922SOL    HW236882   8.264   6.507   7.743 -1.3951  0.1858  0.6002
 9923SOL     OW36883   6.879   9.817   4.056 -0.4062  0.0830  0.2652
 9923SOL    HW136884   6.895   9.815   4.151 -1.1275 -1.4966  0.4038
 9923SOL    HW236885   6.965   9.801   4.017 -0.0121  1.2600  0.6214
 9924SOL     OW36886  10.624  12.191   1.756 -0.2684 -0.4786  0.7385
 9924SOL    HW136887  10.616  12.279   1.721 -1.7267 -0.6390  0.6093
 9924SOL    HW236888  10.663  12.203   1.843  2.0026  0.0319 -0.2802
 9925SOL     OW36889  12.491   8.918   6.584  0.4031  0.3147  0.6334
 9925SOL    HW136890  12.498   9.009   6.554 -2.7314  0.0423 -1.3625
 9925SOL    HW236891  12.403   8.891   6.558  0.7135 -2.8822  2.4538
 9926SOL     OW36892   2.694   1.180  10.875  0.5214  0.0068 -0.3949
 9926SOL    HW136893   2.715   1.114  10.941  0.1393 -0.1424 -0.4181
 9926SOL    HW236894   2.736   1.149  10.795 -2.2039 -1.8675 -1.2144
 9927SOL     OW36895   3.062   4.499   7.935  0.4652  0.0412 -0.1609
 9927SOL    HW136896   3.051   4.584   7.892  0.9516 -0.4977 -1.4039
 9927SOL    HW236897   3.157   4.486   7.938  0.3787 -0.7669 -0.6270
 9928SOL     OW36898   3.627   5.999  11.247 -0.1577 -0.1086 -0.2450
 9928SOL    HW136899   3.682   6.076  11.259  1.3158 -1.1011 -0.3308
 9928SOL    HW236900   3.613   5.994  11.153  0.5988 -0.4870 -0.3478
 9929SOL     OW36901  10.431   5.694   9.280  0.1783  0.5699 -0.0986
 9929SOL    HW136902  10.467   5.684   9.192 -0.7828  0.2532 -0.4697
 9929SOL    HW236903  10.352   5.747   9.267 -0.1584  0.2243  0.5248
 9930SOL     OW36904   0.587   5.909   4.172  0.9126 -0.1732 -0.3513
 9930SOL    HW136905   0.586   5.975   4.241 -2.0802  1.2127 -1.5634
 9930SOL    HW236906   0.510   5.855   4.188  0.6867 -0.4088 -2.0019
 9931SOL     OW36907   0.640   8.587   2.041  0.0908  0.3783 -0.3602
 9931SOL    HW136908   0.597   8.502   2.045  0.2987  0.3112  0.9142
 9931SOL    HW236909   0.733   8.566   2.035  0.1739  0.5088  0.4205
 9932SOL     OW36910   0.220  10.662   8.627 -0.0366  0.0428  0.8157
 9932SOL    HW136911   0.166  10.609   8.686 -1.1871  0.3953  0.1239
 9932SOL    HW236912   0.213  10.751   8.661  0.1500  0.0778  0.7625
 9933SOL     OW36913   2.767   9.846  10.091  0.2104  0.6677 -0.6044
 9933SOL    HW136914   2.698   9.889  10.142  1.1687  0.4114  1.0152
 9933SOL    HW236915   2.750   9.753  10.101  1.1729  0.5830  0.4265
 9934SOL     OW36916   2.111   0.148  10.935  0.2355  0.1024 -0.0241
 9934SOL    HW136917   2.147   0.138  11.023 -0.8045 -2.0032  0.2389
 9934SOL    HW236918   2.016   0.143  10.948  0.0888 -0.9717 -1.2991
 9935SOL     OW36919   3.079  10.461  10.714 -0.2106 -0.3278  0.1519
 9935SOL    HW136920   3.017  10.525  10.748  1.9494  0.8690  2.1636
 9935SOL    HW236921   3.041  10.376  10.737 -2.1299  0.2342 -0.7106
 9936SOL     OW36922   8.320   7.363   9.971 -0.1863 -0.0338 -0.2414
 9936SOL    HW136923   8.324   7.271   9.945 -0.8371  0.0166 -0.5424
 9936SOL    HW236924   8.313   7.361  10.066 -0.4888 -0.3131 -0.2667
 9937SOL     OW36925   5.138   2.781   7.959  0.3631 -0.0227 -0.3781
 9937SOL    HW136926   5.054   2.739   7.940  0.0798 -0.4848  1.6814
 9937SOL    HW236927   5.116   2.871   7.980  0.2458 -0.3504  0.9925
 9938SOL     OW36928   3.359   2.993   4.990 -0.3475 -0.4305  0.1653
 9938SOL    HW136929   3.298   2.919   4.982 -0.8716 -0.1968  1.6736
 9938SOL    HW236930   3.439   2.962   4.949 -1.2889 -0.9625 -1.3604
 9939SOL     OW36931  10.311   5.593   7.487 -0.5605 -0.2068 -0.6562
 9939SOL    HW136932  10.341   5.604   7.577 -1.6981 -2.2107  0.0260
 9939SOL    HW236933  10.217   5.578   7.494 -0.9611  1.1432 -2.3416
 9940SOL     OW36934   5.304   6.220   4.040  0.3044  0.2135 -0.0812
 9940SOL    HW136935   5.280   6.136   4.001  0.7117 -0.2456  0.6390
 9940SOL    HW236936   5.290   6.284   3.970  0.0040 -0.4528 -0.6375
 9941SOL     OW36937   0.366   4.294   3.766 -0.0144 -0.0363 -0.0993
 9941SOL    HW136938   0.339   4.375   3.810  1.4253  0.9789 -0.9889
 9941SOL    HW236939   0.454   4.277   3.799 -0.6567 -1.8491  0.8311
 9942SOL     OW36940   2.550   1.203   0.580 -0.6005  0.5473  0.7785
 9942SOL    HW136941   2.589   1.116   0.570 -3.7378 -1.0692  1.2000
 9942SOL    HW236942   2.597   1.243   0.652  3.5024  0.9120 -1.7776
 9943SOL     OW36943   8.688   5.259   8.752  0.1567  0.3149 -0.1022
 9943SOL    HW136944   8.751   5.305   8.696  0.6916 -0.3314 -0.0401
 9943SOL    HW236945   8.603   5.275   8.710  0.0044  3.2285  1.1319
 9944SOL     OW36946   8.555   8.916  11.514 -0.2822  0.2451 -0.3947
 9944SOL    HW136947   8.609   8.837  11.521  0.3380  0.7334  0.6082
 9944SOL    HW236948   8.468   8.884  11.489 -0.0349 -0.7508 -0.0261
 9945SOL     OW36949  10.042   6.881   8.278 -0.1117 -0.3703 -0.2806
 9945SOL    HW136950  10.092   6.847   8.204  0.5799  0.7382 -0.3459
 9945SOL    HW236951  10.023   6.972   8.254 -3.3643 -1.0742 -0.8807
 9946SOL     OW36952   1.990   6.757   4.675 -0.2020 -1.1704 -0.3596
 9946SOL    HW136953   1.924   6.808   4.627 -1.7241 -1.9093  0.8303
 9946SOL    HW236954   2.004   6.806   4.755 -0.3081 -1.6635 -0.0291
 9947SOL     OW36955   8.102   4.586   3.516  0.1316 -0.3912 -0.0175
 9947SOL    HW136956   8.126   4.493   3.522  2.1770  0.0007 -1.4504
 9947SOL    HW236957   8.014   4.585   3.478 -0.3166 -1.7433  0.9613
 9948SOL     OW36958   6.719   8.079   7.202 -0.1926  0.8049  0.4863
 9948SOL    HW136959   6.704   7.987   7.221 -1.3678  1.3088  2.2294
 9948SOL    HW236960   6.743   8.081   7.109 -2.7454 -1.0045 -0.3235
 9949SOL     OW36961  11.309   2.473   6.111 -0.2580 -0.4321  0.3316
 9949SOL    HW136962  11.247   2.493   6.181 -1.0179  0.6245 -0.6072
 9949SOL    HW236963  11.254   2.445   6.038  0.1877  1.8812 -0.9948
 9950SOL     OW36964   8.890   9.417   8.054  0.0260 -0.0855  0.1710
 9950SOL    HW136965   8.861   9.489   8.111  2.6202 -0.0011  1.5333
 9950SOL    HW236966   8.887   9.339   8.110 -0.7873 -0.6831 -0.6763
 9951SOL     OW36967   5.273   8.898   0.319  0.5206  0.1793  0.3453
 9951SOL    HW136968   5.330   8.852   0.381  2.4204  0.5087 -1.0568
 9951SOL    HW236969   5.258   8.984   0.359  0.5517 -0.1077  0.9847
 9952SOL     OW36970   7.739   3.619   5.182  0.1937 -0.0841  0.0506
 9952SOL    HW136971   7.833   3.624   5.166  0.0499  1.1095 -0.5092
 9952SOL    HW236972   7.708   3.709   5.172 -1.2378 -0.6775 -1.2706
 9953SOL     OW36973   8.750  11.307   3.532  0.1401  0.1635  0.0459
 9953SOL    HW136974   8.713  11.230   3.576  1.6235 -0.7266 -0.1724
 9953SOL    HW236975   8.684  11.332   3.468  0.3893 -2.1657 -1.2276
 9954SOL     OW36976   3.641  10.491   0.166 -0.0563 -0.4609  0.3428
 9954SOL    HW136977   3.567  10.533   0.122  0.8849 -0.8365 -1.7113
 9954SOL    HW236978   3.600  10.436   0.233 -1.6351 -0.5251 -0.6232
 9955SOL     OW36979   8.981   3.268   5.050  0.3321  0.0679 -0.0153
 9955SOL    HW136980   9.036   3.232   4.980 -0.1328  1.6456 -1.2435
 9955SOL    HW236981   8.944   3.191   5.093  3.0408 -1.0580  0.5541
 9956SOL     OW36982   0.452   1.012   4.600 -0.4779 -0.3177  0.1564
 9956SOL    HW136983   0.426   1.103   4.586 -1.5837 -0.5075  0.8503
 9956SOL    HW236984   0.497   1.013   4.685 -1.2300 -0.5342  0.5720
 9957SOL     OW36985  11.664   8.283  10.469 -0.0770  0.1704 -0.0904
 9957SOL    HW136986  11.611   8.358  10.493 -1.8864 -0.8177 -0.7976
 9957SOL    HW236987  11.618   8.243  10.395  1.3283 -1.1077 -0.3391
 9958SOL     OW36988   3.382   7.461  12.279  0.1209  0.7153 -0.1572
 9958SOL    HW136989   3.367   7.367  12.288 -1.9722  0.9648 -0.5289
 9958SOL    HW236990   3.406   7.473  12.187 -2.5276  0.8223 -0.8952
 9959SOL     OW36991   3.105  12.624   0.089  0.2504 -0.2187 -0.1403
 9959SOL    HW136992   3.011  12.632   0.104  0.5974  0.0895  2.4127
 9959SOL    HW236993   3.124  12.686   0.019 -1.3787  0.0497 -0.3817
 9960SOL     OW36994   7.918   2.631   5.483  0.5601 -0.8634 -0.3140
 9960SOL    HW136995   7.976   2.695   5.525 -0.0037 -0.3180 -0.3546
 9960SOL    HW236996   7.955   2.620   5.395  0.6152 -0.5332 -0.3353
 9961SOL     OW36997   7.865   0.153   5.994  0.1058  0.1084  0.5002
 9961SOL    HW136998   7.816   0.073   6.011 -0.1671  0.5474  1.9138
 9961SOL    HW236999   7.949   0.139   6.037  0.2874  0.3414  0.2222
 9962SOL     OW37000   6.213  10.884   6.761 -0.4679 -0.2257  0.2843
 9962SOL    HW137001   6.294  10.936   6.761 -0.7919  0.3780  2.3546
 9962SOL    HW237002   6.168  10.911   6.841 -0.8432 -3.4411  1.2879
 9963SOL     OW37003   6.492   9.721  11.925  0.3336  0.1412  0.1135
 9963SOL    HW137004   6.568   9.679  11.884  1.1187 -0.5214  2.1499
 9963SOL    HW237005   6.528   9.796  11.971  0.0383 -0.9852  2.3002
 9964SOL     OW37006   5.563   3.007   4.708 -0.2434  0.0318 -0.2169
 9964SOL    HW137007   5.478   2.997   4.752 -0.8743 -1.2433 -1.6292
 9964SOL    HW237008   5.545   3.069   4.637  0.1294  0.0978 -0.2548
 9965SOL     OW37009   4.701   4.020   7.441 -0.0956  0.3700  0.5500
 9965SOL    HW137010   4.770   4.074   7.404 -0.0716  1.1274  1.6618
 9965SOL    HW237011   4.622   4.046   7.393  0.5841 -1.6984 -1.9304
 9966SOL     OW37012   4.211   3.084  10.540  0.4030 -0.3810 -0.0147
 9966SOL    HW137013   4.300   3.049  10.548  1.0762  1.4203  0.9734
 9966SOL    HW237014   4.174   3.074  10.628  1.2087  2.7362  0.7805
 9967SOL     OW37015   9.033  11.745   9.320 -0.0891  0.1134 -1.1545
 9967SOL    HW137016   9.041  11.673   9.258 -2.0910  0.5075 -1.9678
 9967SOL    HW237017   8.987  11.708   9.395  2.9516 -0.5490  0.5719
 9968SOL     OW37018   0.174   4.002   9.974  0.0430 -0.0534 -0.2249
 9968SOL    HW137019   0.226   4.082   9.964  0.2483 -0.3767 -1.9981
 9968SOL    HW237020   0.157   3.973   9.884 -0.4370 -1.7395  0.3797
 9969SOL     OW37021   1.049   4.799   6.330  0.3649  0.5126  0.1632
 9969SOL    HW137022   0.961   4.821   6.300 -0.2374  0.9508  2.0903
 9969SOL    HW237023   1.083   4.739   6.264 -1.5462 -0.0127 -0.3991
 9970SOL     OW37024  12.327   1.347   4.184  0.3607 -0.5127 -0.4879
 9970SOL    HW137025  12.364   1.383   4.265 -1.5202 -0.7433  0.5229
 9970SOL    HW237026  12.399   1.297   4.146  2.0742  1.6282 -0.2864
 9971SOL     OW37027  11.965   9.408  12.083 -0.2571  0.4831 -0.1380
 9971SOL    HW137028  12.037   9.404  12.021  0.5225  1.3243  0.6819
 9971SOL    HW237029  11.895   9.357  12.042 -0.0478  1.6582 -2.0483
 9972SOL     OW37030   3.312   1.500   4.449  0.1747  0.3378  0.1876
 9972SOL    HW137031   3.244   1.546   4.400  0.1950  0.1789  0.0072
 9972SOL    HW237032   3.274   1.414   4.467  1.1427 -0.5841 -1.8496
 9973SOL     OW37033  11.847  12.608   6.622 -0.4447 -0.4163 -0.2523
 9973SOL    HW137034  11.807  12.690   6.650 -3.6303 -2.0343  0.5132
 9973SOL    HW237035  11.860  12.559   6.703  1.6704 -0.6398 -0.6674
 9974SOL     OW37036   6.698  10.351   0.836  0.1542  0.0534  0.4532
 9974SOL    HW137037   6.650  10.338   0.754  0.6203 -3.3781  0.5594
 9974SOL    HW237038   6.635  10.329   0.905  1.2328 -2.7304  0.6673
 9975SOL     OW37039  11.029   5.658   1.764 -0.0548 -0.7778 -0.7541
 9975SOL    HW137040  11.084   5.632   1.838  0.2904 -2.0592 -1.4209
 9975SOL    HW237041  10.956   5.705   1.803  1.1429  0.3405  0.2202
 9976SOL     OW37042   5.080   2.562   3.578  0.0101 -0.3914 -0.3998
 9976SOL    HW137043   5.027   2.501   3.527  0.8098 -1.5901  0.1582
 9976SOL    HW237044   5.113   2.625   3.514 -0.5062 -0.7806 -1.0528
 9977SOL     OW37045   0.843  11.043  10.589  0.1453 -0.0769  0.2310
 9977SOL    HW137046   0.916  11.067  10.647 -0.2358 -0.1966  0.7710
 9977SOL    HW237047   0.886  11.009  10.510  0.6894  1.7573 -0.3194
 9978SOL     OW37048   5.523   8.194   2.234 -0.5773  0.0984  0.0129
 9978SOL    HW137049   5.566   8.246   2.301  1.7102 -0.2098 -1.1151
 9978SOL    HW237050   5.573   8.112   2.230 -2.4337 -1.1012 -0.1248
 9979SOL     OW37051   1.653  12.387   2.796  0.2166  0.4089 -0.3185
 9979SOL    HW137052   1.611  12.393   2.711  0.9467  1.7006 -0.6175
 9979SOL    HW237053   1.641  12.474   2.835  0.4356  0.0276  0.6393
 9980SOL     OW37054   3.773   7.106   3.962  0.5279  0.0304 -0.0013
 9980SOL    HW137055   3.783   7.143   3.875  1.2605 -0.9240 -0.3428
 9980SOL    HW237056   3.758   7.012   3.946 -0.8917  0.0840  0.8415
 9981SOL     OW37057   5.652   6.616  12.424 -0.2298  0.0835  0.3465
 9981SOL    HW137058   5.635   6.524  12.444 -0.2283 -0.2469 -1.0523
 9981SOL    HW237059   5.748   6.621  12.421 -0.2403  0.0010 -0.1315
 9982SOL     OW37060   9.536   1.158   1.781 -0.0326 -0.2075  0.2372
 9982SOL    HW137061   9.538   1.179   1.874 -0.9148  0.4786  0.1140
 9982SOL    HW237062   9.621   1.118   1.763 -0.0392 -0.7812  1.4359
 9983SOL     OW37063   0.811   6.684   2.163  0.0033  0.3658 -0.2418
 9983SOL    HW137064   0.825   6.594   2.193  0.5292 -0.6117 -3.0834
 9983SOL    HW237065   0.722   6.683   2.127  0.2863  0.7523 -0.9661
 9984SOL     OW37066   5.539   4.750   9.052  0.3172  0.3691 -0.3150
 9984SOL    HW137067   5.535   4.779   8.961  0.6462 -0.5549 -0.6392
 9984SOL    HW237068   5.609   4.802   9.091  0.8546  0.0785 -0.8655
 9985SOL     OW37069  10.476   6.830   6.881 -0.2215 -0.0113  0.7027
 9985SOL    HW137070  10.525   6.792   6.808  0.0976 -0.9756  1.3890
 9985SOL    HW237071  10.385   6.807   6.864 -0.5269  1.9868 -0.7014
 9986SOL     OW37072   9.330   1.914   1.335  0.1883 -0.4308  0.0100
 9986SOL    HW137073   9.376   1.914   1.252  1.5273 -0.1288  0.7215
 9986SOL    HW237074   9.390   1.871   1.396  1.1224  2.9542  1.7557
 9987SOL     OW37075   7.310   1.383   0.376 -0.1352 -0.2219 -0.2056
 9987SOL    HW137076   7.382   1.444   0.361  0.7964 -0.8117  1.5426
 9987SOL    HW237077   7.246   1.432   0.427 -0.0392 -0.2761 -0.0306
 9988SOL     OW37078  12.210   1.513  10.745  0.0028  0.0147  0.0434
 9988SOL    HW137079  12.130   1.465  10.767 -0.5983 -0.2207 -2.3598
 9988SOL    HW237080  12.206   1.523  10.650  2.6581  0.3499 -0.0992
 9989SOL     OW37081   9.849   0.755   8.132  0.2041  0.5920  0.0314
 9989SOL    HW137082   9.760   0.739   8.162  0.3551 -0.2912  0.0368
 9989SOL    HW237083   9.865   0.687   8.066  0.6610  1.1169 -0.4128
 9990SOL     OW37084   4.657   5.575  12.240 -0.1658  0.0071 -0.1124
 9990SOL    HW137085   4.596   5.622  12.296  0.3153 -0.4109  0.7909
 9990SOL    HW237086   4.744   5.598  12.275  0.1272 -0.5497 -0.4538
 9991SOL     OW37087   9.247  10.202   3.920  0.0319  0.1395 -0.2657
 9991SOL    HW137088   9.330  10.229   3.881  0.1309  0.0311 -0.1315
 9991SOL    HW237089   9.200  10.158   3.849  0.8779 -1.4982  0.1564
 9992SOL     OW37090   2.626  12.341   0.875 -0.0343  0.3532  0.1953
 9992SOL    HW137091   2.606  12.411   0.937 -2.5764  0.4894 -0.6701
 9992SOL    HW237092   2.594  12.261   0.917  0.1353  0.1340 -0.0865
 9993SOL     OW37093  11.978   3.981   2.320  0.4032 -0.6088 -0.0306
 9993SOL    HW137094  12.074   3.982   2.313  0.3189  0.3836 -1.6781
 9993SOL    HW237095  11.949   3.942   2.238 -0.6250  0.1021 -0.0168
 9994SOL     OW37096   4.013   6.053   4.542  0.0011 -0.1883  0.0729
 9994SOL    HW137097   3.992   5.965   4.509 -0.1272 -0.0947 -0.0966
 9994SOL    HW237098   4.104   6.046   4.570 -0.9107 -1.3006  3.1422
 9995SOL     OW37099   4.970  12.281   3.531  0.2655  0.0316 -0.0721
 9995SOL    HW137100   4.950  12.191   3.506 -0.6439  0.5331 -1.2262
 9995SOL    HW237101   4.889  12.329   3.517 -0.5112  0.3668  4.2209
 9996SOL     OW37102   8.027   8.753   6.856  0.0606  0.4225 -0.8001
 9996SOL    HW137103   8.007   8.661   6.872 -0.8123  0.8506  0.7781
 9996SOL    HW237104   8.105   8.770   6.908 -0.3142  0.7975 -0.3582
 9997SOL     OW37105  10.762   7.801   6.787 -0.0324  0.6099 -0.1859
 9997SOL    HW137106  10.797   7.825   6.872  2.1280 -0.7904 -0.6129
 9997SOL    HW237107  10.725   7.714   6.800  2.4284 -0.6672 -1.1102
 9998SOL     OW37108   5.019  12.575  10.276 -0.5757 -0.1077 -0.0758
 9998SOL    HW137109   4.992  12.588  10.367 -1.1028 -0.1389 -0.2256
 9998SOL    HW237110   4.959  12.629  10.225  1.5834  2.3226 -0.2370
 9999SOL     OW37111  12.854   0.784   5.477  0.3619 -0.1308 -0.1071
 9999SOL    HW137112  12.809   0.786   5.392  0.5249 -0.8260 -0.2184
 9999SOL    HW237113  12.861   0.875   5.503  0.5682  0.1071 -0.9807
10000SOL     OW37114   3.084   1.049   7.044 -0.2476  0.1777  0.4744
10000SOL    HW137115   3.155   1.081   7.100 -0.0709  0.6760 -0.0334
10000SOL    HW237116   3.069   0.959   7.074  0.1592  0.2864  1.0138
10001SOL     OW37117   4.468  12.229   4.814 -0.1403  0.0899  0.0259
10001SOL    HW137118   4.428  12.224   4.727  0.9763 -1.4329 -0.4469
10001SOL    HW237119   4.398  12.204   4.874 -0.7013  0.3275 -0.5219
10002SOL     OW37120   0.079   0.604   7.256 -0.5117 -0.4796 -0.0586
10002SOL    HW137121   0.160   0.625   7.210 -0.9503 -1.0541 -1.1326
10002SOL    HW237122   0.103   0.536   7.319 -0.3010 -1.1957 -0.9034
10003SOL     OW37123  11.605   6.557   6.633 -0.0091  0.1458 -0.2157
10003SOL    HW137124  11.517   6.533   6.603 -0.2670 -1.8144  1.8375
10003SOL    HW237125  11.636   6.479   6.680  1.9074  1.6039  1.0701
10004SOL     OW37126   0.227   7.846   5.926 -0.2568 -0.3183  0.6579
10004SOL    HW137127   0.282   7.905   5.876 -0.9221  0.1382  0.4500
10004SOL    HW237128   0.137   7.871   5.903 -0.5571 -0.9129  1.1374
10005SOL     OW37129   5.037   1.081  12.789  0.5997  0.0835 -0.0269
10005SOL    HW137130   4.962   1.108  12.841  0.4712 -0.1642 -0.0844
10005SOL    HW237131   5.003   1.014  12.730  1.1396 -0.9758  0.8336
10006SOL     OW37132   0.018  11.668  11.581  0.1225  0.4282 -0.4968
10006SOL    HW137133   0.088  11.658  11.646  0.8943 -1.0037 -1.4977
10006SOL    HW237134   0.053  11.630  11.501 -0.9074  1.9170 -1.7178
10007SOL     OW37135   6.935  10.097  11.786  0.1420 -0.3284 -0.4608
10007SOL    HW137136   6.953  10.009  11.754  0.8665 -0.7192  0.9496
10007SOL    HW237137   7.020  10.129  11.816  0.1313  1.3065 -1.9434
10008SOL     OW37138   6.331  11.723   9.625  0.1328 -0.5373  0.0799
10008SOL    HW137139   6.370  11.806   9.649 -0.4671 -0.3562  0.4675
10008SOL    HW237140   6.405  11.664   9.611  0.5454 -0.2796  1.0613
10009SOL     OW37141   9.982  12.288   5.830 -0.1020  0.2177 -0.3053
10009SOL    HW137142  10.044  12.340   5.779  1.0567 -0.5676  0.2320
10009SOL    HW237143   9.929  12.243   5.764  0.7590 -0.0684 -0.8367
10010SOL     OW37144   2.702  11.163   5.177  0.5358  0.7957  0.6198
10010SOL    HW137145   2.718  11.168   5.083 -0.6033  1.6188  0.4498
10010SOL    HW237146   2.637  11.094   5.187 -1.0389  2.2184  0.5378
10011SOL     OW37147   6.044   3.738   0.731  0.7610  0.1140 -0.4013
10011SOL    HW137148   6.015   3.717   0.642 -0.5239 -0.4376  0.1264
10011SOL    HW237149   6.137   3.715   0.731  0.5732 -0.7468 -1.3405
10012SOL     OW37150  12.668   7.917   3.043 -0.4366 -0.2550 -0.0686
10012SOL    HW137151  12.721   7.918   2.963 -0.6857  2.1300 -0.2566
10012SOL    HW237152  12.695   7.836   3.088  0.8413 -0.8524 -1.7909
10013SOL     OW37153   5.668  12.091   4.767 -0.0553  0.1777 -0.5809
10013SOL    HW137154   5.597  12.092   4.831 -0.0071 -0.8436 -0.4901
10013SOL    HW237155   5.747  12.081   4.819  0.0121 -0.3013 -0.7657
10014SOL     OW37156  12.720   7.982   6.444 -0.3894  0.1251 -0.2694
10014SOL    HW137157  12.794   7.996   6.503 -0.7656 -0.3270  0.3085
10014SOL    HW237158  12.647   8.030   6.484 -0.4681  0.4061 -0.7358
10015SOL     OW37159   6.404   2.666   2.296  0.0889  0.3083  0.4693
10015SOL    HW137160   6.485   2.716   2.284  0.3917 -0.2666  0.0537
10015SOL    HW237161   6.335   2.727   2.270  0.4056  0.7105  0.5522
10016SOL     OW37162   0.559   4.375   0.580  0.2569 -0.4904 -0.3586
10016SOL    HW137163   0.610   4.329   0.646  2.3216  1.5850 -0.3953
10016SOL    HW237164   0.499   4.430   0.630 -0.3801 -1.2326 -0.2884
10017SOL     OW37165   4.653   1.060   6.610 -0.0030  0.5459  0.1450
10017SOL    HW137166   4.575   1.049   6.556  0.1795  1.1286 -0.2434
10017SOL    HW237167   4.721   1.011   6.565  0.1016  0.8715 -0.0541
10018SOL     OW37168   0.814   1.634   0.075 -0.5196 -0.2957 -0.3862
10018SOL    HW137169   0.840   1.581  -0.001 -1.4961 -0.7484 -0.4190
10018SOL    HW237170   0.719   1.621   0.081 -0.6428  0.7997  0.1133
10019SOL     OW37171   0.841   0.937  11.003  0.5171 -0.3036 -0.2104
10019SOL    HW137172   0.847   0.938  11.098  0.0084  0.9739 -0.1696
10019SOL    HW237173   0.895   0.862  10.976 -2.0883 -2.9080  1.2249
10020SOL     OW37174   0.335   7.289   6.304 -0.4474  0.3146 -0.5485
10020SOL    HW137175   0.288   7.295   6.221 -1.6405  2.3260  0.2157
10020SOL    HW237176   0.268   7.305   6.371  0.7478  0.0839  0.7528
10021SOL     OW37177   7.242   4.051   9.573 -0.2274 -0.1799  0.6070
10021SOL    HW137178   7.161   4.035   9.525 -0.0962  1.3543 -0.1873
10021SOL    HW237179   7.221   4.029   9.664 -1.6941  0.6611  0.4992
10022SOL     OW37180   2.471  12.147   4.384 -0.2082 -0.5942  0.2759
10022SOL    HW137181   2.412  12.078   4.411  0.8713 -1.8629 -0.5036
10022SOL    HW237182   2.509  12.179   4.467  0.9496 -2.5036  0.5594
10023SOL     OW37183   2.231   1.111  12.376  0.4307 -0.4857  0.2702
10023SOL    HW137184   2.203   1.190  12.331 -0.9453 -1.0455  0.0825
10023SOL    HW237185   2.160   1.092  12.437  0.8231 -1.4631  0.4374
10024SOL     OW37186   8.161   4.028   3.970 -0.3267 -0.0503  0.2746
10024SOL    HW137187   8.086   3.977   3.939 -0.4532 -0.2985  0.9872
10024SOL    HW237188   8.238   3.979   3.940 -0.4210 -1.5174  2.2589
10025SOL     OW37189   8.469  12.661  12.758  0.1995  0.1088  0.1244
10025SOL    HW137190   8.539  12.712  12.799 -1.0912  2.0575  0.0192
10025SOL    HW237191   8.388  12.705  12.783 -0.8685 -0.7846 -1.5276
10026SOL     OW37192   4.269  12.872   7.375 -1.4308 -0.5108  0.0569
10026SOL    HW137193   4.313  12.865   7.460  0.2048 -1.7819 -0.8509
10026SOL    HW237194   4.303  12.799   7.324 -2.3204  0.2715 -1.7419
10027SOL     OW37195   9.039   9.827   8.972  0.2947 -0.8491  0.2515
10027SOL    HW137196   9.005   9.856   8.888 -0.6141 -2.5520 -0.0224
10027SOL    HW237197   9.126   9.792   8.952  0.8442  0.3806  0.3667
10028SOL     OW37198  12.498   1.881  10.298 -0.3021  0.1239  0.2764
10028SOL    HW137199  12.512   1.976  10.297  1.2407 -0.0811  0.3151
10028SOL    HW237200  12.475   1.860  10.207  2.3047  0.1765 -0.4839
10029SOL     OW37201  12.646   0.664  12.209 -0.4655  0.2316 -0.5225
10029SOL    HW137202  12.559   0.654  12.170 -0.2823 -1.6753 -0.5613
10029SOL    HW237203  12.665   0.757  12.204 -2.5281  0.6861 -0.4674
10030SOL     OW37204   6.043   3.971   8.722  0.1308  0.0260 -0.2325
10030SOL    HW137205   5.992   3.936   8.795  1.4671 -0.6724  0.3891
10030SOL    HW237206   5.980   4.026   8.674 -1.0020 -0.1974  0.9282
10031SOL     OW37207   2.065   0.173   6.033  0.0462 -0.0558 -0.1201
10031SOL    HW137208   2.066   0.268   6.047 -0.2616  0.2699 -2.0757
10031SOL    HW237209   1.972   0.150   6.028  0.1244 -0.3286 -0.3716
10032SOL     OW37210  10.995  10.025   0.179  0.2951  0.2876 -0.0046
10032SOL    HW137211  10.913  10.006   0.133  0.2794 -0.4212  0.2975
10032SOL    HW237212  10.972  10.021   0.272  1.0905 -2.2405  0.1829
10033SOL     OW37213   9.111   2.750   8.870  0.5630 -0.0668  0.4271
10033SOL    HW137214   9.138   2.673   8.921  1.2595 -0.9440 -1.1848
10033SOL    HW237215   9.160   2.823   8.909  2.7619 -1.0689 -0.2864
10034SOL     OW37216   4.757   1.306   5.776 -1.1270 -0.4225  0.0922
10034SOL    HW137217   4.825   1.318   5.709 -0.8627 -1.2945  0.1965
10034SOL    HW237218   4.733   1.395   5.801 -0.4867 -0.0937 -0.4187
10035SOL     OW37219  11.216   5.072   1.472  0.2904 -0.5153 -0.0943
10035SOL    HW137220  11.132   5.028   1.455  0.5961 -1.1638  0.0377
10035SOL    HW237221  11.275   5.001   1.500  0.0732  0.3450  2.8497
10036SOL     OW37222   7.537   2.191   2.951  0.6257 -0.6575 -0.4206
10036SOL    HW137223   7.555   2.284   2.939  0.6392 -0.9904 -4.2133
10036SOL    HW237224   7.558   2.151   2.866 -1.2266 -3.8210  0.4342
10037SOL     OW37225   4.613   1.140  10.630  0.1208 -0.0763 -0.0145
10037SOL    HW137226   4.643   1.129  10.721 -1.9676  1.4750  0.9403
10037SOL    HW237227   4.664   1.213  10.596  1.2600 -0.9686 -0.3259
10038SOL     OW37228   9.542   8.964   0.674  0.4220  0.6510 -0.2206
10038SOL    HW137229   9.460   8.950   0.627 -0.5845 -0.2999  1.7142
10038SOL    HW237230   9.553   8.886   0.729  1.5172  1.6833  1.1253
10039SOL     OW37231  11.488  12.669   4.161  0.1637 -0.7702 -0.6263
10039SOL    HW137232  11.420  12.606   4.137 -0.7335 -0.3317  0.6190
10039SOL    HW237233  11.494  12.728   4.087 -2.3105  0.3984 -0.0025
10040SOL     OW37234   8.102   3.251   0.495  0.4703 -0.5658  0.3068
10040SOL    HW137235   8.012   3.281   0.486  0.1540 -1.9074 -1.4427
10040SOL    HW237236   8.099   3.158   0.474  2.4685 -0.3325 -1.3442
10041SOL     OW37237   1.723   5.794   9.066 -0.2161  0.3989  0.0133
10041SOL    HW137238   1.764   5.708   9.070 -0.1367  0.3819 -1.0060
10041SOL    HW237239   1.748   5.837   9.148  1.0113  0.0222 -0.1497
10042SOL     OW37240   5.989   2.732   7.805  0.0042 -0.3350  0.0818
10042SOL    HW137241   5.905   2.699   7.772  0.4362 -2.4139  0.9175
10042SOL    HW237242   5.965   2.783   7.883 -0.4274 -2.5302  1.4811
10043SOL     OW37243   2.046   0.625   2.296 -0.4075  0.0118 -1.0145
10043SOL    HW137244   2.088   0.704   2.264 -1.2607  0.5332 -0.8760
10043SOL    HW237245   2.093   0.604   2.377 -1.0312  1.1684 -0.3157
10044SOL     OW37246   6.000   4.953   9.368  0.6731 -0.0872  0.2921
10044SOL    HW137247   5.932   4.951   9.301 -0.2922 -0.1766  1.2474
10044SOL    HW237248   5.984   4.874   9.420  2.7318 -1.1830 -0.6004
10045SOL     OW37249   3.994  11.007   0.700  0.0703 -0.4557  0.4775
10045SOL    HW137250   3.952  10.922   0.711  0.1284 -0.6588 -0.7414
10045SOL    HW237251   3.929  11.070   0.731 -0.9150 -0.8093 -0.7849
10046SOL     OW37252  11.142   7.620  10.372 -1.0614  0.4262 -0.2696
10046SOL    HW137253  11.191   7.688  10.418  0.9525 -0.1042 -1.4886
10046SOL    HW237254  11.106   7.566  10.441 -1.2411  1.7320  0.7028
10047SOL     OW37255   2.208  11.304  11.772  0.1327 -0.4114 -0.2289
10047SOL    HW137256   2.224  11.396  11.749  1.6343 -0.3229  0.9424
10047SOL    HW237257   2.144  11.274  11.708  0.9226  0.9521 -1.7537
10048SOL     OW37258  11.890  12.279  11.467  0.1840 -0.4940  0.3439
10048SOL    HW137259  11.837  12.349  11.428 -1.2541 -0.1884  2.6259
10048SOL    HW237260  11.883  12.207  11.405 -0.4188  0.5552 -0.8642
10049SOL     OW37261   7.383   2.756   5.190  0.5022  0.3518 -0.4298
10049SOL    HW137262   7.389   2.843   5.229  1.1453  0.0212  0.2079
10049SOL    HW237263   7.466   2.714   5.209  0.5687 -0.0727 -1.5606
10050SOL     OW37264   0.554   9.326  12.568 -0.2628  0.0888 -0.3585
10050SOL    HW137265   0.526   9.399  12.623 -2.2406 -0.8553 -0.0252
10050SOL    HW237266   0.559   9.251  12.629  0.2249 -0.3910 -0.9721
10051SOL     OW37267   8.581   4.969  11.084 -0.8004  0.5004  0.0625
10051SOL    HW137268   8.622   5.054  11.105 -1.4563  0.7477  0.3652
10051SOL    HW237269   8.608   4.952  10.994 -1.3460  1.4471 -0.2962
10052SOL     OW37270   0.595   8.036   8.583 -0.3576  0.2769  0.0248
10052SOL    HW137271   0.581   8.074   8.669 -0.1780  0.0557  0.1534
10052SOL    HW237272   0.652   7.961   8.599  1.4202  1.4315 -0.5279
10053SOL     OW37273  10.786   6.298   2.658  0.1148 -0.5852  0.5286
10053SOL    HW137274  10.786   6.355   2.581 -1.2932 -0.2074  0.7900
10053SOL    HW237275  10.874   6.308   2.695  0.4493  0.0685 -0.4087
10054SOL     OW37276   9.209  12.536   3.524  0.3009  0.1020  0.6659
10054SOL    HW137277   9.235  12.450   3.490 -2.0619 -0.3279 -0.2821
10054SOL    HW237278   9.116  12.525   3.547  0.3399  2.0041  1.9343
10055SOL     OW37279   1.685  11.881   6.243  0.0023 -0.1040 -0.1998
10055SOL    HW137280   1.684  11.785   6.242  1.5640 -0.1955 -2.8828
10055SOL    HW237281   1.604  11.907   6.200  0.1871 -0.2842 -0.6670
10056SOL     OW37282  11.712  11.531   1.952  0.1151  0.4538  0.0540
10056SOL    HW137283  11.783  11.511   2.012  1.0312 -0.7803 -1.3602
10056SOL    HW237284  11.697  11.448   1.905 -2.7324  0.4595  0.7741
10057SOL     OW37285   9.539  12.364   2.037 -0.3669  1.1246  0.6053
10057SOL    HW137286   9.453  12.387   2.000 -0.2361 -0.9392 -1.1938
10057SOL    HW237287   9.519  12.334   2.126 -1.4523  1.1322  0.3780
10058SOL     OW37288  11.712   1.104   5.676  0.2884  0.3623 -0.4268
10058SOL    HW137289  11.801   1.134   5.694  0.6524  0.0976 -1.6829
10058SOL    HW237290  11.658   1.182   5.685  0.7226  0.6367 -0.1616
10059SOL     OW37291  12.650  10.623  10.620  0.0801  0.2446 -0.0785
10059SOL    HW137292  12.652  10.696  10.558  0.0550 -0.6043 -1.1290
10059SOL    HW237293  12.654  10.545  10.564 -1.1761 -0.5803  0.9293
10060SOL     OW37294   9.990   2.250   7.833  0.4843  0.0086 -0.5021
10060SOL    HW137295   9.958   2.259   7.744  1.8192  2.2128 -0.8428
10060SOL    HW237296  10.013   2.158   7.841 -0.5246 -0.4234 -2.1006
10061SOL     OW37297   4.793   8.986   9.513  0.0732  0.7473  0.5950
10061SOL    HW137298   4.785   9.001   9.419  0.1957  0.7847  0.5903
10061SOL    HW237299   4.880   8.949   9.524 -1.0208 -2.1519  0.3286
10062SOL     OW37300   7.265   9.135   6.547 -0.1831  0.6950  0.3793
10062SOL    HW137301   7.314   9.196   6.602  2.5294  0.6575 -1.8335
10062SOL    HW237302   7.202   9.190   6.500 -0.0692  1.2406  0.8528
10063SOL     OW37303  11.988  12.071   9.579 -0.1193 -0.2426 -0.0043
10063SOL    HW137304  12.069  12.054   9.531 -0.5127 -1.0614 -0.4081
10063SOL    HW237305  11.994  12.014   9.656 -0.0269  0.1643  0.2873
10064SOL     OW37306   8.029  10.271   0.727 -0.2588 -0.0360 -0.1682
10064SOL    HW137307   8.020  10.355   0.772  5.1383  0.9621 -0.3711
10064SOL    HW237308   8.025  10.206   0.797  0.9593  0.8977  0.8159
10065SOL     OW37309   7.673  11.354   1.982  0.2946  0.2421 -0.7104
10065SOL    HW137310   7.673  11.383   1.891  0.6295 -0.0208 -0.7972
10065SOL    HW237311   7.612  11.413   2.026 -0.4524 -0.1154 -1.2524
10066SOL     OW37312   9.139   3.253   8.098 -0.2648  0.0028 -0.2212
10066SOL    HW137313   9.166   3.336   8.058  1.1647 -0.5576 -0.4731
10066SOL    HW237314   9.182   3.186   8.045  0.5219 -0.8071  1.3815
10067SOL     OW37315   7.723   9.994   8.572  0.3200  0.2650 -0.3843
10067SOL    HW137316   7.721  10.090   8.579  1.5979  0.2050  1.5259
10067SOL    HW237317   7.731   9.963   8.662 -0.9557 -1.7135 -0.8814
10068SOL     OW37318   8.746   2.094  11.946 -0.6782  0.0694  0.0972
10068SOL    HW137319   8.802   2.099  11.869  0.0705 -0.0011  0.6234
10068SOL    HW237320   8.684   2.166  11.936 -0.6996 -0.0453 -0.6522
10069SOL     OW37321   1.621   4.206   5.870 -0.4174 -0.4461  0.0029
10069SOL    HW137322   1.552   4.142   5.889 -1.1467  0.1591 -0.4930
10069SOL    HW237323   1.581   4.291   5.890  0.6997 -0.1606  1.1268
10070SOL     OW37324  12.298   4.279  12.762  0.8505  0.5914 -0.1751
10070SOL    HW137325  12.294   4.209  12.697  1.0866  0.6462 -0.2477
10070SOL    HW237326  12.314   4.234  12.845 -0.2920  0.4393 -0.0136
10071SOL     OW37327   5.109  11.903   3.943 -0.6175 -0.0856 -0.2030
10071SOL    HW137328   5.048  11.872   3.876  0.6343 -2.0721 -0.4875
10071SOL    HW237329   5.165  11.965   3.896  0.1195 -1.3070 -0.9801
10072SOL     OW37330   2.190  11.727   5.504 -0.2593  0.2483  0.4860
10072SOL    HW137331   2.126  11.722   5.575  1.8702 -0.7354  2.4449
10072SOL    HW237332   2.158  11.664   5.439 -1.3958 -0.0396  1.2841
10073SOL     OW37333   8.377   1.413   3.071 -0.2980 -0.2794 -0.0796
10073SOL    HW137334   8.464   1.377   3.086 -1.1451 -3.6390 -2.1964
10073SOL    HW237335   8.318   1.355   3.119 -1.7356 -2.0839 -3.6315
10074SOL     OW37336   0.485   2.414  11.785 -0.2442  0.3879  0.5889
10074SOL    HW137337   0.400   2.380  11.756  0.3097 -0.2892 -0.3018
10074SOL    HW237338   0.473   2.509  11.790 -0.4963  0.5216 -1.5480
10075SOL     OW37339  11.312   2.969   3.541  0.5982 -0.0681  0.5492
10075SOL    HW137340  11.346   3.011   3.620 -0.6863  0.4482  0.8650
10075SOL    HW237341  11.301   3.040   3.479 -0.4386 -0.1073  0.6654
10076SOL     OW37342  11.565   8.893  10.948  0.4894  0.3855  0.2480
10076SOL    HW137343  11.635   8.857  10.893 -1.5661 -3.5972 -0.1260
10076SOL    HW237344  11.574   8.846  11.031 -1.1183  0.4783  0.5058
10077SOL     OW37345  12.247  10.411   4.508  0.0157  0.1821  0.7428
10077SOL    HW137346  12.314  10.459   4.458 -0.2181 -0.9651 -0.7570
10077SOL    HW237347  12.169  10.467   4.502 -0.3702 -0.4962 -1.3373
10078SOL     OW37348   4.237   2.007   8.929  0.1222 -0.2322 -0.4674
10078SOL    HW137349   4.276   1.938   8.876  2.7622  2.1425 -1.9018
10078SOL    HW237350   4.209   2.074   8.866 -0.8766  0.7297  0.9256
10079SOL     OW37351   6.226  11.962   7.711  0.3588  0.3769 -0.5481
10079SOL    HW137352   6.220  11.936   7.619  2.4069 -1.4274 -0.2686
10079SOL    HW237353   6.135  11.972   7.739 -0.3575 -0.1459 -2.4753
10080SOL     OW37354  10.452   4.864  12.205  0.2569 -0.4090 -0.2815
10080SOL    HW137355  10.532   4.873  12.256 -0.2064  0.8697  0.2536
10080SOL    HW237356  10.400   4.941  12.227 -0.4283 -0.3631 -1.8717
10081SOL     OW37357   6.922   7.158   6.035  0.1148 -0.3941 -0.0535
10081SOL    HW137358   6.949   7.078   5.990  0.6680 -0.6084  0.6443
10081SOL    HW237359   7.005   7.201   6.057 -0.1686  0.0213  0.1996
10082SOL     OW37360   2.545   7.860  10.031 -0.6406 -0.1472 -0.9205
10082SOL    HW137361   2.467   7.811  10.060 -0.3599  0.0345  0.1627
10082SOL    HW237362   2.612   7.793  10.020 -0.8528 -0.2667 -1.5796
10083SOL     OW37363   4.742  12.250  11.786  0.5287  0.1613 -0.0580
10083SOL    HW137364   4.802  12.298  11.729  2.6334 -1.4606  0.6553
10083SOL    HW237365   4.657  12.255  11.742  1.4117  1.5936 -1.6949
10084SOL     OW37366   1.245   7.902   7.560  0.2506  0.8170 -0.3783
10084SOL    HW137367   1.318   7.887   7.499  1.1779  0.0331  0.8758
10084SOL    HW237368   1.177   7.841   7.531  1.3810 -0.9258  0.4315
10085SOL     OW37369   9.668  11.311  10.416  0.0113 -0.4612  0.0417
10085SOL    HW137370   9.611  11.377  10.378 -1.2999 -1.2773  0.4874
10085SOL    HW237371   9.757  11.341  10.398 -0.5509  0.3034 -1.6519
10086SOL     OW37372   0.352  12.544  12.610 -0.3093 -0.7436 -0.3293
10086SOL    HW137373   0.440  12.510  12.631 -1.3518 -2.6109  1.3641
10086SOL    HW237374   0.343  12.622  12.664 -0.6618 -2.1089  1.6982
10087SOL     OW37375  10.199   5.461   2.515 -0.3218  0.3099 -0.2990
10087SOL    HW137376  10.265   5.513   2.469  1.1457 -0.7978  0.4568
10087SOL    HW237377  10.116   5.504   2.495  0.5647  1.4722 -1.6817
10088SOL     OW37378   4.358   5.131   8.157 -0.2765  0.4331  0.8330
10088SOL    HW137379   4.318   5.049   8.185 -0.1368 -0.4464 -1.3896
10088SOL    HW237380   4.331   5.141   8.066  0.5861  2.3259  0.7483
10089SOL     OW37381   4.874   3.582  10.449 -0.0520 -0.1943  0.1806
10089SOL    HW137382   4.960   3.576  10.409 -0.5758  0.9972 -1.2233
10089SOL    HW237383   4.861   3.675  10.467 -1.4353 -0.1945 -0.6106
10090SOL     OW37384   5.754  10.953   1.346 -0.0361  0.0147 -0.0271
10090SOL    HW137385   5.846  10.943   1.323  0.2474  1.4625  0.3211
10090SOL    HW237386   5.708  10.957   1.262  0.5204  1.4765 -0.3072
10091SOL     OW37387  11.263   7.446  11.956  0.4418  0.4233 -0.6718
10091SOL    HW137388  11.213   7.365  11.968  0.7596  0.5846  3.3110
10091SOL    HW237389  11.329   7.424  11.891 -0.3463 -2.1044 -0.7229
10092SOL     OW37390   0.859   8.113   8.852 -0.0696 -0.0311 -0.2779
10092SOL    HW137391   0.939   8.157   8.824 -0.5771  0.8451 -0.3873
10092SOL    HW237392   0.890   8.037   8.901  0.8262  0.0407 -0.7069
10093SOL     OW37393   5.345   6.307   4.840 -0.0512  0.2670  0.1187
10093SOL    HW137394   5.381   6.225   4.806 -0.4302 -0.4937  1.4852
10093SOL    HW237395   5.267   6.323   4.787  1.0178  0.7622 -1.3933
10094SOL     OW37396   1.399  11.569  12.083  0.4508 -0.5763  0.1750
10094SOL    HW137397   1.324  11.620  12.113 -0.0684 -1.8577  1.1274
10094SOL    HW237398   1.379  11.479  12.107  1.6205 -1.1721 -0.9165
10095SOL     OW37399   1.188   2.712   7.157  0.5345 -0.3293 -0.2174
10095SOL    HW137400   1.184   2.621   7.126  0.4968 -0.2365 -0.4854
10095SOL    HW237401   1.281   2.732   7.159  0.5944 -0.6448  0.6414
10096SOL     OW37402   8.372   1.079  12.694 -0.1013 -0.0850  0.1285
10096SOL    HW137403   8.389   1.042  12.781 -0.5238 -0.8391 -0.1041
10096SOL    HW237404   8.443   1.045  12.639  0.1435  0.3607  0.1617
10097SOL     OW37405   0.209  12.012  10.235 -0.7354  0.0834 -0.1460
10097SOL    HW137406   0.159  12.017  10.154 -0.4537 -0.0288 -0.3277
10097SOL    HW237407   0.296  11.983  10.208 -0.4328  0.7348  0.1072
10098SOL     OW37408  10.353   3.512   3.654  0.2393 -0.0905 -0.1989
10098SOL    HW137409  10.372   3.468   3.571 -2.0531  0.5311 -1.1398
10098SOL    HW237410  10.269   3.475   3.682  0.7885 -0.0117  1.6659
10099SOL     OW37411   6.120   5.400   0.088  0.1566  0.1918 -0.3090
10099SOL    HW137412   6.096   5.312   0.062 -0.9249  0.2184  0.5486
10099SOL    HW237413   6.141   5.393   0.181 -0.0662  0.8675 -0.2017
10100SOL     OW37414   9.402   0.845  12.380 -0.4425 -0.2406 -0.4413
10100SOL    HW137415   9.340   0.838  12.453 -1.0585  0.5621 -0.8684
10100SOL    HW237416   9.488   0.831  12.419 -0.7938 -0.1655  0.3717
10101SOL     OW37417   2.119   1.737  10.062 -0.0273  0.1219 -0.1533
10101SOL    HW137418   2.169   1.664  10.024  0.3194 -0.0324  0.5597
10101SOL    HW237419   2.140   1.812  10.007 -0.2047 -0.2726 -0.7602
10102SOL     OW37420  10.394   7.091  10.040  0.3228  0.6449  0.4901
10102SOL    HW137421  10.353   7.170  10.006  0.5359  0.4224 -0.3149
10102SOL    HW237422  10.446   7.121  10.115  2.3296  1.6981 -1.2323
10103SOL     OW37423   1.681   7.599  10.654  0.4024  0.3197  0.0782
10103SOL    HW137424   1.637   7.594  10.570  0.7622 -0.1674 -0.0846
10103SOL    HW237425   1.644   7.677  10.696 -0.6543 -0.1178 -0.0288
10104SOL     OW37426   9.613  12.618   9.524  0.2550  0.0469 -0.2738
10104SOL    HW137427   9.706  12.634   9.536  0.1388  0.1683  0.5183
10104SOL    HW237428   9.574  12.705   9.520 -0.1038  0.0322  1.8170
10105SOL     OW37429   1.719   9.819   3.023  0.3499  0.4780 -0.1999
10105SOL    HW137430   1.669   9.828   3.104  1.6259  0.4795  0.6221
10105SOL    HW237431   1.657   9.784   2.960 -1.1993  2.2847  0.2250
10106SOL     OW37432   2.106   1.931   1.211  0.0101 -0.3253 -0.3697
10106SOL    HW137433   2.171   1.981   1.261  0.7948  1.1256 -2.6438
10106SOL    HW237434   2.111   1.969   1.123 -2.0478 -2.0050 -1.2776
10107SOL     OW37435   0.802   4.161   7.784 -0.6059  0.1440  0.0718
10107SOL    HW137436   0.829   4.195   7.869  0.9891 -1.1859  0.1536
10107SOL    HW237437   0.720   4.206   7.765  0.3560  2.4937  1.0538
10108SOL     OW37438  11.920   4.375  10.700  0.0908 -0.1889  0.6737
10108SOL    HW137439  11.874   4.346  10.778  0.4716  0.6858  1.2400
10108SOL    HW237440  11.851   4.400  10.639 -0.2043  0.5440  1.2924
10109SOL     OW37441   4.110  12.440   4.906  0.1209  0.0563  0.4576
10109SOL    HW137442   4.186  12.498   4.904  0.7646 -0.7791 -0.0247
10109SOL    HW237443   4.128  12.374   4.839 -0.0251 -1.3876  1.7747
10110SOL     OW37444   6.940   1.109   8.168 -0.1819 -0.2953  0.0250
10110SOL    HW137445   6.970   1.121   8.078  2.2736  0.4332  0.8372
10110SOL    HW237446   6.889   1.188   8.188  1.2995  0.7224 -0.0335
10111SOL     OW37447   6.361   8.323   2.057 -0.0622 -0.3762  0.7230
10111SOL    HW137448   6.354   8.362   1.970  0.9259  0.6888  1.0812
10111SOL    HW237449   6.284   8.355   2.104 -0.5203 -0.8347  0.2821
10112SOL     OW37450  10.167   8.089   1.498  0.1482  0.3212  0.1265
10112SOL    HW137451  10.233   8.028   1.464  0.7222  1.1036 -0.1965
10112SOL    HW237452  10.196   8.175   1.467 -1.2986  0.6313 -0.4350
10113SOL     OW37453   2.255   3.770  10.875 -0.0959 -0.1636  0.2286
10113SOL    HW137454   2.192   3.703  10.848 -0.7119  0.7286 -0.6049
10113SOL    HW237455   2.206   3.828  10.933  0.0838  0.2583 -0.0369
10114SOL     OW37456  10.701  10.871   8.048  0.0606 -0.0797  0.8953
10114SOL    HW137457  10.610  10.843   8.055 -0.4761  1.0947 -0.6809
10114SOL    HW237458  10.696  10.961   8.016  1.7771  0.1742  1.2429
10115SOL     OW37459   4.622   2.351   9.104 -0.2670  0.1793 -0.3836
10115SOL    HW137460   4.684   2.415   9.140 -0.2268  0.4329 -0.8865
10115SOL    HW237461   4.582   2.310   9.181  0.6244 -0.0857 -0.0506
10116SOL     OW37462   3.053   5.432   0.827  0.1250 -0.1467 -0.4945
10116SOL    HW137463   3.127   5.428   0.767 -0.0484  1.8560 -0.9027
10116SOL    HW237464   2.990   5.369   0.793  0.4149  0.2963 -1.8968
10117SOL     OW37465   0.051   8.815   9.032 -0.3169  0.1808 -0.7678
10117SOL    HW137466   0.106   8.868   9.090  0.6989 -0.7005 -0.8937
10117SOL    HW237467  -0.014   8.877   8.998 -0.4054  0.9023  0.6244
10118SOL     OW37468   9.041  12.000   5.196  0.1211 -0.5088 -0.1450
10118SOL    HW137469   9.011  12.091   5.187 -0.6028 -0.8318 -1.3238
10118SOL    HW237470   9.062  11.974   5.106 -0.5688 -1.8025  0.0577
10119SOL     OW37471   9.292   6.649  10.727 -0.5444  0.4254  0.0324
10119SOL    HW137472   9.336   6.612  10.651 -0.4565  0.7842 -0.0955
10119SOL    HW237473   9.360   6.654  10.794 -0.6576 -0.0291  0.1847
10120SOL     OW37474  10.014   7.827  10.852 -0.0188  0.1938 -0.5373
10120SOL    HW137475  10.095   7.825  10.903 -0.3702 -0.3591  0.0199
10120SOL    HW237476   9.999   7.736  10.827  0.2539  0.4858 -1.8202
10121SOL     OW37477   8.976   3.332  11.852  0.0783 -0.4730  0.1144
10121SOL    HW137478   9.070   3.324  11.834 -0.2525 -0.7253 -1.6849
10121SOL    HW237479   8.970   3.330  11.948  2.0549  1.3579  0.3517
10122SOL     OW37480   1.156  11.620  10.471 -0.2146  0.4994  0.0187
10122SOL    HW137481   1.219  11.549  10.462 -0.4237  0.5179 -1.8641
10122SOL    HW237482   1.129  11.616  10.563  0.7160 -1.0262  0.2638
10123SOL     OW37483   9.029   9.114   8.577  0.1933 -0.6671 -0.4754
10123SOL    HW137484   9.007   9.206   8.561  0.2568 -0.5429  0.1303
10123SOL    HW237485   9.056   9.081   8.491 -0.1397 -0.2070 -0.7623
10124SOL     OW37486  11.312  10.609   2.917  0.5316  0.2817  0.0688
10124SOL    HW137487  11.346  10.582   2.831 -0.2921  0.9699 -0.4987
10124SOL    HW237488  11.320  10.705   2.916 -0.7694  0.4188  0.1700
10125SOL     OW37489   5.257  12.733   2.557  0.2379 -0.0486  0.0765
10125SOL    HW137490   5.230  12.723   2.648 -2.0463 -2.6276 -0.7375
10125SOL    HW237491   5.325  12.667   2.545  0.9270  0.6581  0.0025
10126SOL     OW37492   1.213  12.065  10.821 -0.2740  0.5916  0.1420
10126SOL    HW137493   1.206  12.046  10.914  0.4755  1.4531  0.3936
10126SOL    HW237494   1.168  12.149  10.811  0.3496  0.9006 -0.1210
10127SOL     OW37495  10.358   8.708  11.618  0.0723  0.2157 -0.3182
10127SOL    HW137496  10.420   8.636  11.606  1.2173  1.3547 -1.4137
10127SOL    HW237497  10.392   8.757  11.693  0.3298  0.6688 -0.7300
10128SOL     OW37498   6.115  11.582  10.451 -0.4152 -0.3918 -0.4144
10128SOL    HW137499   6.023  11.597  10.428 -0.5256 -0.1011  0.2045
10128SOL    HW237500   6.114  11.504  10.505 -0.5033  0.5013  0.9166
10129SOL     OW37501   5.772   4.541   1.894  0.9701  0.1752  0.3637
10129SOL    HW137502   5.704   4.476   1.912  0.6220  0.7920  1.3142
10129SOL    HW237503   5.843   4.490   1.855  0.0278 -0.4990 -0.5569
10130SOL     OW37504   4.955   4.267   1.533  0.0249  0.5372  0.7151
10130SOL    HW137505   5.003   4.330   1.588  0.4951 -1.0199  2.1851
10130SOL    HW237506   5.023   4.220   1.485 -0.2869  0.7488  0.0554
10131SOL     OW37507  11.382   7.920   6.844  0.0303  0.4673  0.4047
10131SOL    HW137508  11.435   7.996   6.822  0.9333  0.0547  1.0777
10131SOL    HW237509  11.295   7.940   6.808  0.6367  1.1419 -0.7464
10132SOL     OW37510   2.332   8.931   0.514  0.5214  0.0958  0.3577
10132SOL    HW137511   2.253   8.878   0.502 -0.0392  1.2157 -1.2258
10132SOL    HW237512   2.382   8.918   0.434  1.0657  0.8041  0.5713
10133SOL     OW37513  12.661   5.003   6.704 -0.3870  0.6173 -0.0329
10133SOL    HW137514  12.684   5.024   6.614 -1.9606  0.8279 -0.4173
10133SOL    HW237515  12.606   5.076   6.733 -0.2035  0.3739  0.9766
10134SOL     OW37516   0.952   1.014   6.369  0.4758 -0.4079 -0.1140
10134SOL    HW137517   1.023   0.975   6.420  0.6329 -0.6467 -0.5143
10134SOL    HW237518   0.980   1.104   6.354  1.9588 -1.1718 -2.5150
10135SOL     OW37519   0.060  11.815   5.837 -0.3973 -0.5149  0.2200
10135SOL    HW137520   0.029  11.770   5.916 -1.3693  0.9429  0.7094
10135SOL    HW237521   0.001  11.785   5.768  0.9922 -2.4809 -0.2203
10136SOL     OW37522   3.556   3.049   3.727  0.5408 -0.1252 -0.3691
10136SOL    HW137523   3.472   3.080   3.762  0.0311 -0.6165 -1.1181
10136SOL    HW237524   3.579   2.975   3.783  0.8674  0.4886  0.3176
10137SOL     OW37525  12.622  11.431  10.551  0.2147  0.0194  0.2132
10137SOL    HW137526  12.689  11.374  10.515 -0.9137 -0.8172 -0.6592
10137SOL    HW237527  12.547  11.421  10.492 -0.4920  1.3585  0.8174
10138SOL     OW37528   6.544   5.542   3.227  0.1658  0.7720  0.0873
10138SOL    HW137529   6.620   5.502   3.185 -1.2194 -1.4097 -0.5247
10138SOL    HW237530   6.578   5.582   3.306  2.1523  1.0780 -0.8718
10139SOL     OW37531   1.488   0.845  10.816 -0.5658  0.6777 -0.2966
10139SOL    HW137532   1.563   0.877  10.765 -0.3749  0.7529  0.0300
10139SOL    HW237533   1.523   0.773  10.868 -1.3541 -1.2197 -2.2509
10140SOL     OW37534   5.326   9.582   1.205  0.0836  0.2364 -0.5409
10140SOL    HW137535   5.278   9.662   1.227 -1.3206  0.0497 -2.6381
10140SOL    HW237536   5.418   9.607   1.209  0.2621  0.1897  5.4044
10141SOL     OW37537  12.685  11.094   9.356  0.5454  0.2416 -0.0542
10141SOL    HW137538  12.753  11.109   9.291  0.1416  1.8109 -0.1480
10141SOL    HW237539  12.658  11.003   9.342  0.3110  0.6018 -2.2564
10142SOL     OW37540   7.503   6.071   9.678  0.8187 -0.5546 -0.5180
10142SOL    HW137541   7.483   6.153   9.633 -0.3816 -0.3403  0.3648
10142SOL    HW237542   7.418   6.034   9.700  1.3543 -1.6468 -0.1931
10143SOL     OW37543   6.073   5.990  12.148  0.2648 -0.0831  0.2875
10143SOL    HW137544   6.136   6.044  12.195  0.6827  0.1181 -0.4888
10143SOL    HW237545   6.014   6.053  12.105  1.6061 -0.1452 -1.8040
10144SOL     OW37546   6.789   7.375   3.007  0.0833 -0.0392  0.4616
10144SOL    HW137547   6.846   7.452   3.010  0.8310 -0.5784  0.4825
10144SOL    HW237548   6.835   7.309   3.058  0.3974 -1.1107 -1.1349
10145SOL     OW37549   3.825   1.075   9.701  0.5220 -0.0362 -0.3326
10145SOL    HW137550   3.915   1.099   9.677  1.0503 -2.1679 -0.7464
10145SOL    HW237551   3.836   0.995   9.753 -1.0831  0.4714  0.8713
10146SOL     OW37552   3.953   9.456   2.364  0.5100 -0.0797 -0.3292
10146SOL    HW137553   3.933   9.461   2.458  1.2925  0.9977 -0.1991
10146SOL    HW237554   3.921   9.539   2.328 -0.0362 -0.6047 -1.0720
10147SOL     OW37555   1.968  10.896   4.907  0.2378 -0.6801 -0.3155
10147SOL    HW137556   2.035  10.918   4.971  1.7070 -1.3828 -1.5579
10147SOL    HW237557   1.932  10.980   4.879  1.0954 -0.2571 -0.1507
10148SOL     OW37558   0.310  12.020   9.088  0.5194  0.0651  0.5675
10148SOL    HW137559   0.398  12.042   9.117 -0.3882  2.2293  1.8967
10148SOL    HW237560   0.255  12.033   9.165 -1.0793 -0.4364 -0.4432
10149SOL     OW37561   9.035  11.210  12.521  0.5456 -0.0886  0.2213
10149SOL    HW137562   9.125  11.235  12.539  0.8709  0.1294 -1.5004
10149SOL    HW237563   9.034  11.189  12.427 -1.0591 -0.6665  0.3254
10150SOL     OW37564  11.397   4.546   3.299  0.4460 -0.1025 -0.2592
10150SOL    HW137565  11.323   4.489   3.277  0.0541  0.3938 -0.2544
10150SOL    HW237566  11.472   4.487   3.302 -0.0826 -0.7676  0.5991
10151SOL     OW37567  12.789   9.291   2.119 -0.0127  0.0956 -0.0777
10151SOL    HW137568  12.710   9.342   2.137  0.9466  0.8003  2.7358
10151SOL    HW237569  12.759   9.200   2.117 -1.2004  0.4799 -1.4489
10152SOL     OW37570   6.347   6.389   3.474 -0.3113 -0.1509 -0.6141
10152SOL    HW137571   6.436   6.353   3.475  0.9111  2.5410 -0.5978
10152SOL    HW237572   6.316   6.379   3.564  0.3972 -0.2749 -0.3716
10153SOL     OW37573   3.758   0.652  10.264  0.0546 -0.4314 -0.1466
10153SOL    HW137574   3.674   0.630  10.306  0.1397 -0.2947  0.0968
10153SOL    HW237575   3.788   0.730  10.309 -0.1714  0.1086 -0.9150
10154SOL     OW37576   3.603   3.143   3.277 -0.6660  0.0351 -0.0994
10154SOL    HW137577   3.577   3.100   3.196  2.2160  1.8713 -2.2208
10154SOL    HW237578   3.646   3.075   3.328 -2.5469 -1.1616 -0.0149
10155SOL     OW37579   6.010   3.330   2.740 -0.0535  0.1958  0.7576
10155SOL    HW137580   5.970   3.286   2.665  0.9992 -2.3100  1.5495
10155SOL    HW237581   5.964   3.414   2.746 -2.2357 -0.7738 -0.8612
10156SOL     OW37582   1.771   6.167   7.761 -0.2028 -0.1024  0.8870
10156SOL    HW137583   1.760   6.088   7.813  1.5910 -0.4145  0.8705
10156SOL    HW237584   1.819   6.138   7.683 -0.0320  0.8886  0.6042
10157SOL     OW37585  12.824   6.767  10.477 -0.0282  0.0182 -0.2211
10157SOL    HW137586  12.734   6.790  10.451 -0.3973 -0.8869  0.2099
10157SOL    HW237587  12.813   6.700  10.544  0.9866 -1.0841 -1.1152
10158SOL     OW37588   3.212   7.418   2.396  0.0191 -0.3255  0.8566
10158SOL    HW137589   3.205   7.486   2.463  1.7137  1.3229 -0.5063
10158SOL    HW237590   3.125   7.412   2.358 -0.3339  0.5562  1.4979
10159SOL     OW37591   3.986  12.166   6.051 -0.1778 -0.2762 -0.4990
10159SOL    HW137592   3.965  12.086   6.001 -0.9930 -1.1686  1.1690
10159SOL    HW237593   3.910  12.178   6.108  0.6154  0.8415  0.3516
10160SOL     OW37594  10.535   7.450   8.500  0.2065  0.2635 -0.0616
10160SOL    HW137595  10.447   7.422   8.524  0.3456 -0.2632 -0.1410
10160SOL    HW237596  10.591   7.375   8.523  1.5464  2.4354  5.4256
10161SOL     OW37597  11.299   4.574   0.985 -0.4424 -0.2262 -0.1844
10161SOL    HW137598  11.332   4.649   1.035  0.8570 -1.7938  1.4448
10161SOL    HW237599  11.204   4.576   0.998 -0.5001  1.3871 -0.6055
10162SOL     OW37600   4.735  10.759   1.377  0.3316  0.0213 -0.9371
10162SOL    HW137601   4.687  10.686   1.415  1.0253 -0.7842 -1.5421
10162SOL    HW237602   4.679  10.835   1.389 -0.3084 -0.5703 -0.0889
10163SOL     OW37603  10.110   0.076   6.780 -0.5389  0.5297 -0.3441
10163SOL    HW137604  10.129   0.030   6.862  0.5015  1.9927  0.2928
10163SOL    HW237605  10.169   0.038   6.716 -1.1307 -0.4017 -0.3523
10164SOL     OW37606   1.464  12.271   1.146 -0.0067  0.1490  0.5898
10164SOL    HW137607   1.500  12.324   1.217 -0.5153 -0.1987  1.1183
10164SOL    HW237608   1.538  12.218   1.116  0.6191  1.4709 -0.2576
10165SOL     OW37609   6.443   3.454  10.955 -0.1246 -0.2817  0.0545
10165SOL    HW137610   6.496   3.392  11.006  0.5452  0.3768  0.1774
10165SOL    HW237611   6.493   3.535  10.958 -0.9657  0.2482 -0.1600
10166SOL     OW37612   4.655   3.964  11.022 -0.3004 -0.0231 -0.2518
10166SOL    HW137613   4.678   3.872  11.031  0.0284  0.2400  2.0104
10166SOL    HW237614   4.738   4.011  11.025 -0.6129  0.4868  0.9820
10167SOL     OW37615   2.002   7.934   7.529 -0.0289 -0.1974 -0.2290
10167SOL    HW137616   1.965   7.945   7.617 -1.9631  1.6994 -1.2004
10167SOL    HW237617   1.949   7.866   7.488  1.1615 -1.4074  0.1711
10168SOL     OW37618  10.555   8.363   7.880 -0.3816  0.0404  0.1406
10168SOL    HW137619  10.508   8.331   7.803 -1.9949  0.3527  0.9498
10168SOL    HW237620  10.486   8.384   7.943  0.7056  2.6262  0.5931
10169SOL     OW37621   8.830   0.263   2.053  0.7393  0.4313  0.0620
10169SOL    HW137622   8.811   0.297   1.966  1.4224  0.7451  0.0268
10169SOL    HW237623   8.764   0.302   2.110 -0.7942 -1.1120 -0.5741
10170SOL     OW37624  11.982   0.734  12.199 -0.0375  0.3557  0.3821
10170SOL    HW137625  11.981   0.749  12.294  0.1714  2.0332  0.1482
10170SOL    HW237626  12.074   0.720  12.177 -0.0515  0.2795  0.3700
10171SOL     OW37627  10.917   7.863   7.697 -0.4107 -0.1979  0.4361
10171SOL    HW137628  10.994   7.918   7.692 -0.3275 -0.3584 -0.1072
10171SOL    HW237629  10.938   7.798   7.763 -0.0009 -0.3584  0.1526
10172SOL     OW37630   7.526   9.626   2.505  0.0894  0.3775 -0.4596
10172SOL    HW137631   7.514   9.537   2.471 -1.6626 -0.4486  2.0054
10172SOL    HW237632   7.459   9.678   2.460 -0.1862  0.0181 -0.4656
10173SOL     OW37633   4.422  12.943   9.644 -1.0418 -0.1435 -0.1053
10173SOL    HW137634   4.511  12.923   9.673 -0.1797  2.2433 -0.8488
10173SOL    HW237635   4.372  12.953   9.725 -0.2034  0.2037  0.3825
10174SOL     OW37636   0.853   1.952  10.867  0.1745 -0.1014  0.0748
10174SOL    HW137637   0.897   2.001  10.797 -1.2026  1.3503  0.1711
10174SOL    HW237638   0.828   2.019  10.931 -1.5958 -0.9320  0.3099
10175SOL     OW37639  11.625   2.753   6.331 -0.0192  0.4364  0.3789
10175SOL    HW137640  11.592   2.683   6.275  0.9679  0.2373  0.0332
10175SOL    HW237641  11.706   2.782   6.289  0.6071  0.4563  1.5451
10176SOL     OW37642   0.014   8.335  10.675  0.2676 -0.1457 -0.7110
10176SOL    HW137643   0.048   8.302  10.757 -0.0319 -1.1670 -0.9785
10176SOL    HW237644   0.024   8.430  10.680 -0.0218 -0.1743  0.6223
10177SOL     OW37645   4.044   2.541   6.591  0.0996 -0.3005 -0.1898
10177SOL    HW137646   4.084   2.615   6.544  2.6703 -1.5730 -0.1648
10177SOL    HW237647   4.102   2.467   6.572 -1.4081 -1.9106  1.2376
10178SOL     OW37648   5.328   5.668  12.227  0.1721  0.0067  0.5189
10178SOL    HW137649   5.233   5.663  12.213  0.3805 -1.3783 -0.6253
10178SOL    HW237650   5.361   5.582  12.201  1.9091  0.9404 -0.5982
10179SOL     OW37651   4.076  10.757   5.498  0.3086 -0.4902 -0.0063
10179SOL    HW137652   4.155  10.780   5.448 -0.0628  2.3138  0.5422
10179SOL    HW237653   4.107  10.695   5.564  1.3271 -2.1518 -1.9285
10180SOL     OW37654  11.513   9.070   6.653 -0.2527  0.1441 -0.2504
10180SOL    HW137655  11.600   9.072   6.614 -0.9006 -1.3810 -1.8913
10180SOL    HW237656  11.529   9.048   6.745  1.1851  1.8968 -0.0214
10181SOL     OW37657  11.975   0.351   8.546  0.2798  0.0985  0.6456
10181SOL    HW137658  12.036   0.425   8.537 -1.2429  1.4751  1.1106
10181SOL    HW237659  11.892   0.384   8.512 -0.0086 -2.0951 -0.9843
10182SOL     OW37660   3.755   7.131  12.398 -0.5322 -0.1904  0.3596
10182SOL    HW137661   3.748   7.055  12.340  1.8477  0.6021 -1.1096
10182SOL    HW237662   3.815   7.103  12.467 -0.4687  0.0223  0.3905
10183SOL     OW37663   1.758   2.753   8.363 -0.9758  0.1384  0.0304
10183SOL    HW137664   1.838   2.726   8.408 -1.3681  0.5304  0.9879
10183SOL    HW237665   1.789   2.808   8.290 -0.3203 -0.7909 -0.4061
10184SOL     OW37666   6.529   6.482   5.287 -0.5433  0.4739 -0.1530
10184SOL    HW137667   6.552   6.478   5.194 -0.8398  0.6663 -0.2350
10184SOL    HW237668   6.598   6.432   5.331  0.1907  1.2977 -0.3642
10185SOL     OW37669  10.646   2.447   4.118  0.2473  0.4962  0.2005
10185SOL    HW137670  10.559   2.412   4.096  0.1554 -0.6121  2.0308
10185SOL    HW237671  10.629   2.508   4.190  0.9141  0.8748  0.0421
10186SOL     OW37672   8.677  10.614   7.465 -0.6693  0.2822 -0.2388
10186SOL    HW137673   8.721  10.689   7.425  0.6215 -0.8607 -1.0470
10186SOL    HW237674   8.587  10.643   7.479 -0.5335  1.5340 -1.7385
10187SOL     OW37675   1.534   2.203  12.791  0.6942  0.0461 -0.4068
10187SOL    HW137676   1.482   2.284  12.782  1.7152  0.8584  0.6886
10187SOL    HW237677   1.495   2.159  12.866 -1.4328 -1.7690 -2.4210
10188SOL     OW37678  12.337   2.411   8.823  0.2399 -0.0496  0.0729
10188SOL    HW137679  12.252   2.374   8.848 -0.5095 -0.7348 -3.0817
10188SOL    HW237680  12.391   2.335   8.801  1.1255  0.4540  0.4867
10189SOL     OW37681   6.263   9.328  12.969 -0.5442  0.2061  0.1390
10189SOL    HW137682   6.168   9.317  12.975 -0.7701  1.7018 -0.3100
10189SOL    HW237683   6.286   9.289  12.885 -0.3823 -2.1796  1.1964
10190SOL     OW37684  11.925  12.291  12.461  0.2610 -0.0548 -0.0155
10190SOL    HW137685  11.929  12.270  12.554  1.1069 -1.0327 -0.2512
10190SOL    HW237686  11.999  12.244  12.422  0.8352  1.5441 -0.9624
10191SOL     OW37687   3.990   8.359   4.251 -0.0863 -0.0732 -0.1640
10191SOL    HW137688   4.041   8.298   4.198 -0.4064 -0.0676 -0.4788
10191SOL    HW237689   3.910   8.311   4.272 -0.1249  0.0623  0.0024
10192SOL     OW37690   3.329   5.458   8.746 -0.5240 -0.1309  0.1622
10192SOL    HW137691   3.369   5.387   8.797  0.5315  0.8370  0.7250
10192SOL    HW237692   3.355   5.441   8.656  1.1050  0.3983  0.4960
10193SOL     OW37693   5.640   5.517   6.916  0.3139  0.0491 -0.1178
10193SOL    HW137694   5.726   5.558   6.925 -0.1641  1.2787 -0.9081
10193SOL    HW237695   5.590   5.549   6.991  0.3697 -0.2271  0.0390
10194SOL     OW37696  10.626  10.010  10.022 -0.2268 -0.1520 -0.1058
10194SOL    HW137697  10.566  10.024  10.096  0.3856 -0.0900  0.3894
10194SOL    HW237698  10.616   9.917  10.001 -3.1875  0.5529 -2.4210
10195SOL     OW37699   7.808   8.741  11.425  0.6526  0.1003  0.5889
10195SOL    HW137700   7.808   8.708  11.335  0.3447  3.9107 -0.9713
10195SOL    HW237701   7.794   8.663  11.478  1.1462 -2.3881 -2.5955
10196SOL     OW37702   4.931   6.095  10.345  0.4135  0.2730 -0.0830
10196SOL    HW137703   4.872   6.126  10.276 -0.6190 -1.4068 -0.0182
10196SOL    HW237704   4.874   6.048  10.406  1.6819 -0.5456  0.5189
10197SOL     OW37705   9.982  12.606   8.780  0.7652  0.1220  0.3048
10197SOL    HW137706   9.903  12.659   8.794  0.4495 -0.6307  1.4722
10197SOL    HW237707  10.054  12.667   8.796  0.4053  0.3482  1.1174
10198SOL     OW37708   2.168   0.700   4.136  0.2484  0.2825  0.1281
10198SOL    HW137709   2.102   0.680   4.070  2.2223 -2.4256 -1.1879
10198SOL    HW237710   2.152   0.637   4.206  0.9133  0.1777  0.1899
10199SOL     OW37711   8.559   2.513   0.798 -0.4649 -0.4052 -0.1633
10199SOL    HW137712   8.539   2.481   0.710 -1.0248 -1.4881  0.3404
10199SOL    HW237713   8.655   2.521   0.799 -0.5219  0.5034 -1.1551
10200SOL     OW37714   4.674   1.047   8.611  0.0455 -0.2140  0.4015
10200SOL    HW137715   4.737   1.018   8.677 -0.4115 -2.0762  0.0635
10200SOL    HW237716   4.724   1.050   8.530  0.3486  1.0305  0.6212
10201SOL     OW37717   7.385   6.684   1.921  0.1324 -0.0904  0.6070
10201SOL    HW137718   7.303   6.724   1.950 -0.6328 -1.1868  0.0150
10201SOL    HW237719   7.435   6.671   2.001 -0.0596  0.9935  0.9293
10202SOL     OW37720  11.162   0.733   9.105  0.0388  0.0214 -0.5393
10202SOL    HW137721  11.252   0.764   9.105 -0.1142  0.4658 -0.8342
10202SOL    HW237722  11.168   0.643   9.138  0.2980  0.8543  1.8073
10203SOL     OW37723   6.617   7.543   8.402  0.0257  0.0136 -0.2167
10203SOL    HW137724   6.674   7.603   8.450  0.0873  1.0407 -1.5083
10203SOL    HW237725   6.544   7.598   8.372 -0.2196 -0.6837 -0.9345
10204SOL     OW37726  12.272  12.313   5.999 -0.4058  0.1696  0.6799
10204SOL    HW137727  12.186  12.296   6.037 -1.2189 -0.0690 -1.1521
10204SOL    HW237728  12.281  12.408   6.002 -0.8957  0.2249  0.6053
10205SOL     OW37729   2.937   6.323  10.450  0.3612  0.3973  0.4640
10205SOL    HW137730   2.930   6.273  10.532  0.0061  0.6146  0.5700
10205SOL    HW237731   3.003   6.276  10.399  1.1519  0.6910  1.1864
10206SOL     OW37732  11.276  11.760  12.589 -0.4141  0.0267 -0.3540
10206SOL    HW137733  11.310  11.763  12.678  1.2780 -1.1144 -0.9126
10206SOL    HW237734  11.196  11.708  12.595 -0.9875  1.0055  0.6766
10207SOL     OW37735   2.558   6.990   1.834  0.0739  0.4858 -0.3476
10207SOL    HW137736   2.540   7.067   1.888 -0.0189  0.6487 -0.6077
10207SOL    HW237737   2.540   6.916   1.891 -0.0029  0.6577 -0.1481
10208SOL     OW37738   5.735  11.531   8.683 -0.3431 -0.2285 -0.3915
10208SOL    HW137739   5.694  11.456   8.639 -1.9062 -0.1748  0.8877
10208SOL    HW237740   5.829  11.517   8.671 -0.4908 -3.0765  0.7708
10209SOL     OW37741   5.087  12.715   0.354 -0.3834 -0.4641  0.2455
10209SOL    HW137742   5.032  12.637   0.344 -1.1076 -0.1147  1.2574
10209SOL    HW237743   5.151  12.709   0.283 -0.3203 -2.0656  0.3863
10210SOL     OW37744   2.962   1.604   4.742  0.3823 -0.1264 -0.0040
10210SOL    HW137745   2.925   1.521   4.774  1.4071 -1.3029 -1.7113
10210SOL    HW237746   2.918   1.619   4.658  2.1037 -0.3859 -0.9967
10211SOL     OW37747   9.241   2.860   0.259 -0.5406  0.3377  0.0660
10211SOL    HW137748   9.255   2.952   0.236  0.0376  0.4286  0.7672
10211SOL    HW237749   9.329   2.825   0.274 -0.5432 -0.8882 -2.2572
10212SOL     OW37750   3.568   7.377   0.077 -0.1184 -0.1099 -0.3718
10212SOL    HW137751   3.510   7.359   0.151 -1.0453 -0.7942 -1.2519
10212SOL    HW237752   3.639   7.429   0.116  0.4786 -2.0985  1.4101
10213SOL     OW37753   0.124   8.938  10.553  0.2086 -0.5585 -0.1742
10213SOL    HW137754   0.117   9.025  10.515  1.6604 -0.1833  0.3506
10213SOL    HW237755   0.081   8.946  10.638  0.3152 -0.3548 -0.1393
10214SOL     OW37756   1.735   4.399   2.281  0.2136 -0.2661  0.1981
10214SOL    HW137757   1.661   4.354   2.322  0.8947  0.2966  2.1313
10214SOL    HW237758   1.715   4.397   2.188 -1.3455 -1.7172  0.5134
10215SOL     OW37759   4.482  12.811   3.090  0.0844 -0.1533  0.2593
10215SOL    HW137760   4.511  12.794   3.001  2.5092  1.0341  0.7300
10215SOL    HW237761   4.467  12.906   3.093  1.2046  0.0141  1.3812
10216SOL     OW37762  11.643   6.240   0.678 -0.1881 -0.1505 -0.2421
10216SOL    HW137763  11.556   6.207   0.698 -0.7939  0.7751 -1.2324
10216SOL    HW237764  11.691   6.163   0.647 -1.2783 -0.3263 -1.5840
10217SOL     OW37765   1.699   2.859   0.511 -0.2651  0.1299  0.2833
10217SOL    HW137766   1.610   2.894   0.512 -0.2644  0.2963 -1.6529
10217SOL    HW237767   1.697   2.793   0.441  0.6333 -1.2888  1.5500
10218SOL     OW37768  11.799  11.458  12.468  0.1856 -0.6462  0.3308
10218SOL    HW137769  11.894  11.473  12.474  0.1584 -0.3757  0.1099
10218SOL    HW237770  11.772  11.439  12.557  0.2362  0.5071  0.5987
10219SOL     OW37771   3.771   7.699   4.632 -0.4502 -0.3560  0.0049
10219SOL    HW137772   3.683   7.735   4.644 -0.4138 -0.1660 -0.3016
10219SOL    HW237773   3.805   7.744   4.555  0.0591 -0.1496  0.3388
10220SOL     OW37774   7.341   8.822   4.802  0.2668 -0.4541  0.2441
10220SOL    HW137775   7.399   8.807   4.728 -0.7967 -2.7726 -0.2193
10220SOL    HW237776   7.398   8.822   4.878  0.9796 -2.1391 -0.2464
10221SOL     OW37777   8.222   7.626   7.577  0.7084  0.2123  0.2694
10221SOL    HW137778   8.290   7.579   7.527  1.7781  0.2240  1.6432
10221SOL    HW237779   8.190   7.561   7.640 -0.8614  0.0974 -0.5878
10222SOL     OW37780   3.732  10.052   0.185 -0.4474 -0.1338  0.8125
10222SOL    HW137781   3.703   9.961   0.174 -1.1499  0.0497  1.0974
10222SOL    HW237782   3.752  10.060   0.278 -0.1666 -0.0561  0.7468
10223SOL     OW37783  11.022   3.455  11.430  0.1007  0.4832  0.1992
10223SOL    HW137784  11.102   3.468  11.483  0.0193  0.4454  0.3326
10223SOL    HW237785  11.027   3.364  11.403  0.4038  0.6410 -0.2913
10224SOL     OW37786   2.242  12.737   9.243 -0.2171  0.2610  0.5649
10224SOL    HW137787   2.241  12.820   9.290  1.5989  0.1423  0.8830
10224SOL    HW237788   2.201  12.675   9.303  0.9249  0.3805  1.5009
10225SOL     OW37789   0.398   7.770   5.112 -0.6690 -0.0109  0.0312
10225SOL    HW137790   0.367   7.846   5.062 -0.8908 -0.0102  0.1662
10225SOL    HW237791   0.391   7.697   5.051 -0.2985  0.1057 -0.1522
10226SOL     OW37792   7.438   8.565  10.267 -0.8116  0.5915 -0.0832
10226SOL    HW137793   7.483   8.567  10.351 -0.7254  0.1801 -0.1205
10226SOL    HW237794   7.384   8.645  10.267  0.4687  1.4905 -0.3410
10227SOL     OW37795   9.207   6.247   8.753 -0.4311 -0.3427  0.1113
10227SOL    HW137796   9.252   6.309   8.696 -0.6159 -1.1814 -0.9853
10227SOL    HW237797   9.211   6.287   8.840  1.6969 -0.0179 -0.0898
10228SOL     OW37798   0.833   8.551   5.028 -0.1722  0.2496 -0.2554
10228SOL    HW137799   0.792   8.624   5.074  0.8943  1.2604 -0.8664
10228SOL    HW237800   0.909   8.528   5.081 -0.9036 -0.9345  0.3258
10229SOL     OW37801   2.580   2.384   7.586  0.3487  0.5594 -0.4132
10229SOL    HW137802   2.572   2.410   7.677  0.3596 -1.0848  0.0891
10229SOL    HW237803   2.672   2.357   7.576 -0.4575 -2.7859  0.1461
10230SOL     OW37804   5.240   9.120   0.513 -0.6853 -0.0143  0.7242
10230SOL    HW137805   5.313   9.106   0.574 -0.1388  1.3929  0.4399
10230SOL    HW237806   5.248   9.212   0.487 -1.2598 -0.4194 -1.0145
10231SOL     OW37807   7.231  11.524   1.664  0.6519 -0.4378  0.0207
10231SOL    HW137808   7.234  11.618   1.648 -1.8948 -0.4064 -0.6646
10231SOL    HW237809   7.257  11.485   1.581 -0.3260 -0.3191 -0.3463
10232SOL     OW37810   6.450   3.142   1.419  0.8717 -0.1105 -0.0991
10232SOL    HW137811   6.531   3.167   1.376  1.5911  0.2299  1.3627
10232SOL    HW237812   6.388   3.212   1.397  1.3546  0.2858 -0.2138
10233SOL     OW37813  10.179   0.709  11.817 -0.1265 -0.0490 -0.4928
10233SOL    HW137814  10.258   0.740  11.771 -0.2548 -0.4238 -0.9685
10233SOL    HW237815  10.116   0.692  11.747 -0.7342  0.5248 -0.0936
10234SOL     OW37816   3.385   7.324   3.927 -0.0195 -0.3937 -0.8069
10234SOL    HW137817   3.444   7.313   4.002 -1.4264 -2.4141  0.0809
10234SOL    HW237818   3.298   7.328   3.965 -0.6553  0.1798 -2.2541
10235SOL     OW37819   7.854  12.022   7.279  0.4440 -0.0643  0.0291
10235SOL    HW137820   7.880  11.939   7.238 -0.0203 -0.1331 -0.1315
10235SOL    HW237821   7.805  11.995   7.356 -0.1748  0.0585 -0.3215
10236SOL     OW37822   6.160   2.073  11.376  0.6684  0.1227 -0.1385
10236SOL    HW137823   6.191   2.011  11.442  4.2150 -0.9453 -2.5682
10236SOL    HW237824   6.172   2.029  11.293 -2.1392  2.0274 -1.7279
10237SOL     OW37825   3.426  11.204   5.843  0.4268 -0.2810  0.1944
10237SOL    HW137826   3.490  11.211   5.914 -0.9848 -1.4791  1.6427
10237SOL    HW237827   3.480  11.190   5.765  2.0235  1.1201  0.9652
10238SOL     OW37828   8.367   8.971   4.449 -0.1496 -0.6661  0.5446
10238SOL    HW137829   8.392   9.001   4.536  1.7318 -0.6042  0.0186
10238SOL    HW237830   8.371   8.875   4.455  0.4726 -0.6500  0.3906
10239SOL     OW37831   5.370  11.224  12.887  0.6902 -0.2524 -0.5016
10239SOL    HW137832   5.450  11.172  12.878 -0.2356 -1.5802 -1.2404
10239SOL    HW237833   5.386  11.277  12.966  1.9137 -1.1773 -0.0870
10240SOL     OW37834   6.157   1.763  11.913 -0.3472  0.1457 -0.0852
10240SOL    HW137835   6.116   1.792  11.832 -3.7312 -1.7470  0.7669
10240SOL    HW237836   6.172   1.670  11.900  0.3013  0.0796  1.0208
10241SOL     OW37837   3.977   9.267   0.311  0.1069 -0.1998 -0.1746
10241SOL    HW137838   3.947   9.344   0.262 -1.0399  0.3303  1.3086
10241SOL    HW237839   4.046   9.230   0.256  0.8697  2.0225 -0.8194
10242SOL     OW37840  10.301  11.589  11.196  0.2086  0.3000  0.5511
10242SOL    HW137841  10.244  11.520  11.162 -0.0487  0.8549 -0.1688
10242SOL    HW237842  10.351  11.547  11.266 -1.1178 -0.1913  1.2293
10243SOL     OW37843   8.528   0.591   9.595 -0.3803 -0.5645 -0.0037
10243SOL    HW137844   8.537   0.519   9.658 -0.3435 -0.7143 -0.1789
10243SOL    HW237845   8.553   0.669   9.644  1.6174 -0.9137 -0.3810
10244SOL     OW37846   3.382   3.869  11.224 -0.0102  0.0234  0.9266
10244SOL    HW137847   3.326   3.793  11.241  0.8901 -0.8809 -0.0299
10244SOL    HW237848   3.471   3.836  11.237  0.3478  1.2743  1.7957
10245SOL     OW37849  12.793   8.013  12.841 -0.3473 -0.2546 -0.5318
10245SOL    HW137850  12.874   8.064  12.847 -0.7563  0.2602  0.7747
10245SOL    HW237851  12.790   7.985  12.749  1.3145 -0.2986 -0.6013
10246SOL     OW37852   1.085   4.884   8.060 -0.6570  0.4593  0.2994
10246SOL    HW137853   1.075   4.917   8.150 -2.8212  2.2295 -0.5083
10246SOL    HW237854   1.137   4.951   8.016  1.6339 -1.0797  0.4858
10247SOL     OW37855   5.258  12.848   3.929  0.1765  0.0649  0.0110
10247SOL    HW137856   5.212  12.768   3.902 -2.5540  0.3595  3.1607
10247SOL    HW237857   5.188  12.909   3.951  2.1862  2.3627  0.4435
10248SOL     OW37858   7.185  10.324   5.376 -0.4765  0.2555 -0.0451
10248SOL    HW137859   7.096  10.311   5.409 -0.8088  1.9836 -0.1587
10248SOL    HW237860   7.233  10.360   5.450 -0.0912  0.1451 -0.2377
10249SOL     OW37861   1.216   7.798   2.339  0.7953  0.5736 -0.5707
10249SOL    HW137862   1.174   7.858   2.402 -1.8674 -0.4901 -1.2074
10249SOL    HW237863   1.230   7.717   2.389 -1.0333 -0.1674 -1.1862
10250SOL     OW37864  11.504   3.804   6.089 -0.2912 -0.1585  0.2075
10250SOL    HW137865  11.502   3.897   6.108 -1.4055 -0.5834  2.4391
10250SOL    HW237866  11.428   3.789   6.033 -0.1586  0.2477 -0.0839
10251SOL     OW37867   6.930   5.991   3.311  0.1612  0.1651  0.3063
10251SOL    HW137868   6.988   5.947   3.373  1.3482  0.4057 -0.5768
10251SOL    HW237869   6.950   6.084   3.322  1.2238  0.1565 -1.1576
10252SOL     OW37870   0.829   8.960   9.595  0.1180 -0.6925  0.1994
10252SOL    HW137871   0.740   8.960   9.630 -0.1400  0.4990 -0.4044
10252SOL    HW237872   0.866   8.878   9.626 -1.5908 -1.8068 -0.5569
10253SOL     OW37873   7.080   2.680   6.517  0.5552 -0.2732  0.5553
10253SOL    HW137874   7.124   2.641   6.441 -0.3411  0.8929 -0.6004
10253SOL    HW237875   7.116   2.768   6.522  1.0691 -0.5446  1.9016
10254SOL     OW37876  12.800   5.672   5.419 -0.3687  0.8919 -0.4748
10254SOL    HW137877  12.882   5.711   5.450 -0.1463  0.5659 -0.6446
10254SOL    HW237878  12.827   5.607   5.354 -0.7036  0.2332  0.0303
10255SOL     OW37879   0.104   1.339   0.843  0.0547  0.2892  0.5443
10255SOL    HW137880   0.117   1.394   0.920  0.1657  1.4301 -0.2757
10255SOL    HW237881   0.160   1.263   0.858  0.6304  0.8429  1.2448
10256SOL     OW37882   3.470   0.194  11.340  0.4557 -0.2534  0.5003
10256SOL    HW137883   3.528   0.270  11.341  0.1743 -0.0250  0.0351
10256SOL    HW237884   3.425   0.200  11.256  1.5570 -1.7804 -0.2512
10257SOL     OW37885  11.432   2.778   4.805  0.0220  0.8543  0.0960
10257SOL    HW137886  11.527   2.777   4.791  0.2056 -1.3440  1.1423
10257SOL    HW237887  11.396   2.729   4.732 -0.5341  3.0713 -1.2130
10258SOL     OW37888  12.493   2.019   1.360  0.2014  0.1050  0.3691
10258SOL    HW137889  12.564   1.956   1.370 -1.2798 -1.6665  0.1558
10258SOL    HW237890  12.510   2.061   1.276  0.4362 -1.0529 -0.1771
10259SOL     OW37891  12.752   7.952  10.516  0.6693 -0.3355  0.0641
10259SOL    HW137892  12.756   7.928  10.423 -0.0645  0.4414 -0.1825
10259SOL    HW237893  12.764   8.047  10.516  0.2261 -0.2762  0.7224
10260SOL     OW37894   6.443   4.110   4.070 -0.4517  0.3076 -0.5294
10260SOL    HW137895   6.536   4.093   4.085 -0.2633  1.7016  0.0364
10260SOL    HW237896   6.399   4.067   4.143 -0.3513 -1.1921 -1.3260
10261SOL     OW37897   2.107   7.640  10.463  0.3757 -0.6099 -0.4628
10261SOL    HW137898   2.050   7.574  10.503  0.1206 -0.4221 -0.5159
10261SOL    HW237899   2.140   7.598  10.383  2.1562 -1.6025  0.7161
10262SOL     OW37900   3.842   7.511   7.806 -0.3406 -0.5210  0.0789
10262SOL    HW137901   3.885   7.578   7.753 -2.2597 -0.3955 -1.4680
10262SOL    HW237902   3.806   7.558   7.881  0.6181 -0.3111  0.4109
10263SOL     OW37903  11.851   8.466   7.763  0.1135 -0.1463  0.0313
10263SOL    HW137904  11.819   8.511   7.841 -0.7020 -1.0672  0.2404
10263SOL    HW237905  11.940   8.499   7.751 -0.4850  1.6246  0.1003
10264SOL     OW37906   1.366   2.453   3.044  0.2346  0.6219 -0.0419
10264SOL    HW137907   1.396   2.377   2.994  0.4205  1.1041 -0.6777
10264SOL    HW237908   1.270   2.446   3.045  0.2087  0.8172 -0.8112
10265SOL     OW37909   7.329   3.988  10.524 -0.2059  0.0139  0.1806
10265SOL    HW137910   7.377   4.069  10.505 -1.8965  0.6946 -1.5455
10265SOL    HW237911   7.282   3.969  10.443 -0.2339 -2.4691  0.7147
10266SOL     OW37912   0.933   8.764  10.336 -0.6885 -0.3194 -0.6700
10266SOL    HW137913   0.883   8.757  10.417  0.7494  0.3212  0.3065
10266SOL    HW237914   0.873   8.807  10.275 -0.4737  3.2345  1.3277
10267SOL     OW37915   5.178   5.789  11.687 -0.0360  0.2670  0.2115
10267SOL    HW137916   5.208   5.721  11.627 -1.0565 -0.5549  0.6110
10267SOL    HW237917   5.231   5.777  11.766 -0.6111 -0.4267  0.4896
10268SOL     OW37918   6.228   2.554   9.064 -0.3089  0.1957  0.2731
10268SOL    HW137919   6.225   2.508   8.980  0.5498  0.8645 -0.1412
10268SOL    HW237920   6.252   2.644   9.042  1.6098  0.0028  1.3462
10269SOL     OW37921   9.013  12.799  12.882 -0.1481  0.4884 -0.5089
10269SOL    HW137922   9.024  12.755  12.797  1.4538  2.0889 -1.2000
10269SOL    HW237923   8.951  12.869  12.864 -0.0492  0.6363 -0.2741
10270SOL     OW37924  10.339   7.143   1.409  0.7059  0.1063  0.3558
10270SOL    HW137925  10.293   7.227   1.414  0.7515  0.1028  0.9325
10270SOL    HW237926  10.275   7.078   1.438  0.7391 -0.0288  0.1257
10271SOL     OW37927   5.917   5.025   3.676 -0.7514 -0.0267 -0.6112
10271SOL    HW137928   5.938   4.937   3.644 -0.1952 -0.5555  1.1031
10271SOL    HW237929   5.918   5.016   3.772 -1.2875  1.7124 -0.4231
10272SOL     OW37930  11.520   1.197   7.944  0.0300 -0.4685 -0.0435
10272SOL    HW137931  11.501   1.131   8.011 -0.3921  0.9637  1.3200
10272SOL    HW237932  11.580   1.258   7.987 -3.0850  2.5526  0.4183
10273SOL     OW37933   9.006   9.634  12.793 -0.1250  0.0020  0.1266
10273SOL    HW137934   8.990   9.728  12.791 -0.8554 -0.1188 -1.1413
10273SOL    HW237935   9.005   9.608  12.701 -2.5342 -1.6377  0.5238
10274SOL     OW37936   2.790  12.604  11.254  0.1898 -0.3621  0.7377
10274SOL    HW137937   2.878  12.642  11.251 -0.0267  0.0967 -0.8215
10274SOL    HW237938   2.746  12.650  11.325  0.7636  0.4581  0.5759
10275SOL     OW37939   9.694   9.093   2.159 -0.7206 -0.1136 -0.1847
10275SOL    HW137940   9.782   9.084   2.122 -0.7302 -0.8110 -0.0619
10275SOL    HW237941   9.702   9.165   2.222 -0.5659  0.6986 -1.1162
10276SOL     OW37942   5.101  11.566  12.503  0.2270 -0.5342 -0.3062
10276SOL    HW137943   5.056  11.511  12.439 -0.5786 -0.6006  0.2999
10276SOL    HW237944   5.190  11.531  12.507  0.3114 -0.4982 -1.4151
10277SOL     OW37945   4.042   3.187   2.120  0.1481 -0.2537 -0.4335
10277SOL    HW137946   4.034   3.170   2.214 -1.8613  0.5039 -0.4193
10277SOL    HW237947   4.112   3.251   2.112 -0.0470  0.1011  0.6219
10278SOL     OW37948   8.927   1.141   6.666 -0.1935 -0.3592 -0.1257
10278SOL    HW137949   8.914   1.131   6.761  0.4808  1.1462  0.1552
10278SOL    HW237950   9.019   1.118   6.652 -0.4741 -1.2904 -0.5580
10279SOL     OW37951   3.964  11.177   4.567  0.2590  0.4609  0.5563
10279SOL    HW137952   3.925  11.264   4.559 -0.8805  0.0525  1.3669
10279SOL    HW237953   3.971  11.146   4.477 -1.6336  0.4355  0.3797
10280SOL     OW37954   8.709  12.312   4.337  0.3727 -0.4312 -0.0790
10280SOL    HW137955   8.796  12.298   4.374  0.2658 -1.7373 -0.2750
10280SOL    HW237956   8.649  12.277   4.403 -0.0931  1.4405  0.5454
10281SOL     OW37957   3.833  12.301   2.654  0.1820  0.3529  0.2767
10281SOL    HW137958   3.832  12.377   2.712 -1.7217 -0.1335  0.9715
10281SOL    HW237959   3.887  12.327   2.580  1.7138  1.4304  1.6860
10282SOL     OW37960  10.035   3.894   8.205  0.8932  0.0644  0.1928
10282SOL    HW137961   9.947   3.855   8.202  0.4980  0.8198  1.2218
10282SOL    HW237962  10.048   3.930   8.117 -0.9172  2.1686  0.6986
10283SOL     OW37963   7.934   8.016   2.180 -0.2938  0.3687  0.5275
10283SOL    HW137964   8.001   7.962   2.139 -0.9792  0.8613 -1.3131
10283SOL    HW237965   7.854   7.964   2.172 -1.4540  2.4075 -3.3300
10284SOL     OW37966  10.870  10.528   5.317 -0.0513  0.3109 -0.0409
10284SOL    HW137967  10.936  10.464   5.288 -0.3918  0.5706 -1.4628
10284SOL    HW237968  10.880  10.602   5.257 -2.2038 -0.0094 -0.8861
10285SOL     OW37969  10.190   3.365   3.384  0.5630  0.2699 -0.6428
10285SOL    HW137970  10.102   3.378   3.349  0.7267 -0.0989 -1.2252
10285SOL    HW237971  10.177   3.333   3.473  0.0160 -2.0221 -1.4537
10286SOL     OW37972   2.007   3.905  12.354 -0.4123  0.0728  0.4819
10286SOL    HW137973   2.014   3.999  12.336 -0.0146  0.2363  1.4176
10286SOL    HW237974   2.012   3.898  12.449  0.2636 -0.9511  0.3946
10287SOL     OW37975   5.496   4.966  10.425 -0.1695 -0.4174  0.1411
10287SOL    HW137976   5.569   5.028  10.429  0.4271 -1.0921  0.0071
10287SOL    HW237977   5.538   4.880  10.415 -0.9956 -0.6906 -1.3518
10288SOL     OW37978   7.725   7.569   1.101  0.1411 -0.5234 -0.1421
10288SOL    HW137979   7.772   7.509   1.043  0.6661 -2.5432  2.2055
10288SOL    HW237980   7.774   7.651   1.097  0.8619 -1.0103 -1.5705
10289SOL     OW37981  12.923   2.865   0.369 -0.4269 -0.3271 -0.3290
10289SOL    HW137982  12.980   2.836   0.298 -0.0051 -0.0655 -0.1054
10289SOL    HW237983  12.947   2.808   0.443  0.1990  0.3857  0.0270
10290SOL     OW37984   4.407   5.958   8.584 -0.0866  0.1112 -0.0389
10290SOL    HW137985   4.455   6.041   8.593 -0.5781  0.2996  0.9368
10290SOL    HW237986   4.476   5.892   8.578  0.3032  0.4212  0.8773
10291SOL     OW37987   5.560  10.620   8.357  0.2895 -0.0446  0.2174
10291SOL    HW137988   5.478  10.662   8.330 -0.5256 -0.0753  2.4016
10291SOL    HW237989   5.551  10.529   8.327 -0.0622  0.1723 -0.3578
10292SOL     OW37990   0.692   0.705   0.857  0.0454  0.0332  0.0083
10292SOL    HW137991   0.626   0.695   0.788 -1.6342  1.6737  1.2652
10292SOL    HW237992   0.756   0.637   0.838 -1.3914 -0.8997 -1.9713
10293SOL     OW37993   8.951   5.300   3.638 -0.1072  0.1322  0.0271
10293SOL    HW137994   8.949   5.342   3.724 -1.9908  0.5674 -0.1807
10293SOL    HW237995   8.882   5.345   3.588  0.1504 -0.9146 -1.3189
10294SOL     OW37996   5.016   2.987   0.493  0.2122 -0.5206 -0.5221
10294SOL    HW137997   4.968   2.951   0.419 -1.4281 -0.2413  0.3565
10294SOL    HW237998   4.963   3.061   0.522  0.2592 -1.2380  1.5410
10295SOL     OW37999   3.166   6.506  12.911  0.5453 -0.2757 -0.9175
10295SOL    HW138000   3.239   6.535  12.966 -0.4887  0.0808  0.3473
10295SOL    HW238001   3.147   6.581  12.855 -1.0342  1.0166  1.1764
10296SOL     OW38002   4.608   1.703  10.566  0.6504 -0.0357  0.0979
10296SOL    HW138003   4.522   1.744  10.577 -0.0329 -1.1326 -0.9418
10296SOL    HW238004   4.641   1.736  10.483 -0.6794 -2.7764 -1.6545
10297SOL     OW38005  12.949   1.839   4.457 -0.1127  0.0527 -0.1277
10297SOL    HW138006  12.976   1.852   4.548  2.2780 -1.0940 -0.6123
10297SOL    HW238007  12.927   1.927   4.426 -0.8524  0.4854  1.4837
10298SOL     OW38008   6.448   6.437  12.292 -0.2130  0.1287 -0.3724
10298SOL    HW138009   6.411   6.374  12.354  0.2648  0.7842  0.6020
10298SOL    HW238010   6.518   6.389  12.248 -0.9391 -0.5206 -0.8367
10299SOL     OW38011   2.874   7.869   7.899  0.4076 -0.2533 -0.6376
10299SOL    HW138012   2.885   7.814   7.821 -2.0020  2.3946 -3.1105
10299SOL    HW238013   2.905   7.955   7.870 -0.7855  0.8679  1.2720
10300SOL     OW38014   8.311   2.415   3.319 -0.3437 -0.1096 -0.1826
10300SOL    HW138015   8.303   2.510   3.306 -0.6296  0.2674  2.3798
10300SOL    HW238016   8.384   2.405   3.380 -0.7401 -1.4913  0.0924
10301SOL     OW38017   9.629   7.526   1.766 -0.3910  0.4644 -0.2392
10301SOL    HW138018   9.709   7.555   1.723 -0.9640  0.4588 -1.3423
10301SOL    HW238019   9.610   7.594   1.831  1.4643 -0.4247  1.2951
10302SOL     OW38020   9.422   7.854   5.057  0.4192  0.5830  0.6222
10302SOL    HW138021   9.459   7.869   5.144  1.3235  0.8426  0.2105
10302SOL    HW238022   9.436   7.761   5.041 -1.2759  0.1581  1.4214
10303SOL     OW38023  11.080   4.996   5.947  0.1767 -0.0910  0.0189
10303SOL    HW138024  11.153   4.964   6.001  0.4171 -0.1141 -0.3152
10303SOL    HW238025  11.008   4.936   5.966 -0.0671  0.5312  1.1130
10304SOL     OW38026   6.244  12.228   3.786  0.3709  0.2257  0.3758
10304SOL    HW138027   6.324  12.253   3.831  0.2160 -0.9474  1.3430
10304SOL    HW238028   6.274  12.201   3.698  1.3164 -1.7929  1.2367
10305SOL     OW38029   5.062   7.784  10.568  0.6920 -0.2962 -0.3839
10305SOL    HW138030   5.006   7.765  10.493  1.9283 -0.5610 -1.2855
10305SOL    HW238031   5.003   7.789  10.643 -0.5334 -0.3756 -1.3201
10306SOL     OW38032   9.907   1.520   1.146 -0.1532 -0.1866 -0.6148
10306SOL    HW138033   9.978   1.565   1.101 -0.7587 -0.2291 -1.6513
10306SOL    HW238034   9.943   1.434   1.168  0.3859  0.0979 -0.3755
10307SOL     OW38035   8.436  11.703   3.862 -0.6831  0.1705  0.3170
10307SOL    HW138036   8.456  11.676   3.773 -1.1967  0.9629 -0.0512
10307SOL    HW238037   8.516  11.684   3.911  0.2902  1.4493 -0.7050
10308SOL     OW38038   1.975   1.486   6.477  0.1793  0.5920  0.5119
10308SOL    HW138039   2.061   1.477   6.518  1.3942 -0.5925 -2.0550
10308SOL    HW238040   1.943   1.396   6.471  0.0132  0.7312 -0.9899
10309SOL     OW38041   8.134   7.604   2.481 -0.2616  0.6143  0.1315
10309SOL    HW138042   8.188   7.533   2.516 -0.3636  1.2812  1.6846
10309SOL    HW238043   8.188   7.644   2.413 -0.3075 -1.0928 -0.9939
10310SOL     OW38044   2.101   0.233  10.676 -0.2594  0.2574  0.0020
10310SOL    HW138045   2.048   0.170  10.627 -0.9386  0.6091  0.2652
10310SOL    HW238046   2.100   0.201  10.766  0.9943 -0.3921 -0.1938
10311SOL     OW38047   3.478   3.756   4.200  0.0875 -0.3149  0.1068
10311SOL    HW138048   3.433   3.836   4.172 -0.0394 -0.2425  0.5144
10311SOL    HW238049   3.517   3.779   4.284  1.1424 -0.2863 -0.3812
10312SOL     OW38050   8.181   1.413   9.700  0.3525  0.8380  0.6394
10312SOL    HW138051   8.273   1.417   9.727  0.4926  1.7671  0.0783
10312SOL    HW238052   8.166   1.496   9.656  0.5179 -0.9537 -3.2159
10313SOL     OW38053   1.396   6.824   9.446  0.0569 -0.3467  0.2882
10313SOL    HW138054   1.434   6.737   9.462  1.6685 -0.0005 -1.2566
10313SOL    HW238055   1.472   6.883   9.447 -0.8594  0.8657  0.1650
10314SOL     OW38056   8.644  10.097   4.365 -0.1237 -0.2988 -0.4163
10314SOL    HW138057   8.554  10.127   4.378 -0.3754 -1.5478  0.9163
10314SOL    HW238058   8.664  10.121   4.274 -1.6412  0.3829 -0.6051
10315SOL     OW38059   7.837   0.350  10.826 -0.0404  0.0457  0.2062
10315SOL    HW138060   7.750   0.312  10.838  0.1562  0.1188  2.0449
10315SOL    HW238061   7.829   0.439  10.858  0.7452  0.0080  0.5127
10316SOL     OW38062   3.986   3.005   9.729 -0.8653  0.1297 -0.3872
10316SOL    HW138063   3.974   3.011   9.824 -3.1579 -2.8148 -0.3385
10316SOL    HW238064   4.009   2.913   9.714 -0.2105  0.6174 -2.6866
10317SOL     OW38065   5.947   0.099  12.786  0.0966  0.2071 -0.8598
10317SOL    HW138066   5.941   0.188  12.752  0.8215  0.8950  0.7473
10317SOL    HW238067   5.876   0.092  12.850  1.6968  0.5930  1.0475
10318SOL     OW38068  10.431   4.730   3.917 -0.6924 -0.7311 -0.2325
10318SOL    HW138069  10.337   4.718   3.910 -0.4322 -3.1849 -0.4958
10318SOL    HW238070  10.462   4.652   3.964  1.4225 -1.0617 -2.0091
10319SOL     OW38071  10.522   5.240   8.259  0.2127 -0.1016  0.4599
10319SOL    HW138072  10.508   5.154   8.299 -0.0512 -0.0458  0.4941
10319SOL    HW238073  10.616   5.254   8.264  0.1639  0.0152  1.3141
10320SOL     OW38074  11.046   9.277   8.146  0.0610  0.7383 -0.3552
10320SOL    HW138075  11.118   9.324   8.188 -1.7513  2.1847  1.3342
10320SOL    HW238076  11.011   9.338   8.081 -1.0637  1.0139  0.4687
10321SOL     OW38077  11.433   3.611   4.533  0.0573 -0.1017  0.7351
10321SOL    HW138078  11.426   3.554   4.610 -0.1958 -3.2260 -1.3849
10321SOL    HW238079  11.520   3.593   4.498 -1.2510 -2.0826 -1.9020
10322SOL     OW38080  11.093   3.992  12.040 -0.6608 -0.0828  0.1857
10322SOL    HW138081  11.030   4.059  12.013  0.0237  0.5324  0.0705
10322SOL    HW238082  11.153   3.984  11.966 -0.8320 -0.9578  0.1285
10323SOL     OW38083   3.533   6.750   8.911  0.2586  0.2577 -0.2424
10323SOL    HW138084   3.463   6.735   8.975 -0.0536  0.7822 -0.4582
10323SOL    HW238085   3.489   6.742   8.826  0.3993  0.8947 -0.3760
10324SOL     OW38086   1.616   0.399  10.452  0.6243  0.4206 -0.1291
10324SOL    HW138087   1.629   0.307  10.476  1.2733  1.3898  3.9282
10324SOL    HW238088   1.704   0.431  10.431  0.2397 -0.0554 -2.9096
10325SOL     OW38089  12.389   5.904  12.413 -0.1511  0.5568 -0.2341
10325SOL    HW138090  12.309   5.874  12.456  0.2021  0.1121  0.1180
10325SOL    HW238091  12.394   5.851  12.333  0.1439  0.1016  0.0796
10326SOL     OW38092   7.164   0.934   0.304 -0.3928 -0.2630 -0.6344
10326SOL    HW138093   7.203   0.968   0.385  1.7807 -0.7203 -1.4251
10326SOL    HW238094   7.150   0.841   0.323 -0.2933 -0.2779 -0.6318
10327SOL     OW38095  11.896   0.103   6.728 -0.7891  0.3813 -0.0447
10327SOL    HW138096  11.965   0.059   6.679 -2.2891  0.2132 -2.1342
10327SOL    HW238097  11.898   0.193   6.697 -2.0464  0.1717 -0.8145
10328SOL     OW38098   5.949  10.516   3.700  0.5788 -0.2879 -0.6312
10328SOL    HW138099   6.005  10.594   3.696  1.9524 -1.2683 -4.0506
10328SOL    HW238100   5.868  10.543   3.656  0.9199 -0.6254 -1.4962
10329SOL     OW38101   0.452   9.291   5.685 -1.4785 -0.0302 -0.0472
10329SOL    HW138102   0.435   9.200   5.710 -1.4650 -0.3814 -1.2561
10329SOL    HW238103   0.511   9.285   5.610 -0.9367  1.0045  0.2732
10330SOL     OW38104   1.978  10.296  11.841  0.5637 -0.8299 -0.0109
10330SOL    HW138105   2.028  10.263  11.917 -1.3099 -0.2415  1.5483
10330SOL    HW238106   1.950  10.383  11.867 -0.8309 -0.9435 -1.0620
10331SOL     OW38107   6.753   1.461   5.463 -0.3598  0.4277 -0.0432
10331SOL    HW138108   6.760   1.513   5.383  2.5918 -1.3474 -1.0895
10331SOL    HW238109   6.685   1.396   5.444  1.9061 -1.5270 -2.2390
10332SOL     OW38110   6.750   5.716   2.251  0.3624 -0.1284 -0.1799
10332SOL    HW138111   6.713   5.794   2.291  2.6517  1.8551 -1.6340
10332SOL    HW238112   6.782   5.664   2.324 -1.4026  0.1278  0.8311
10333SOL     OW38113   9.319   5.464   6.764  0.3315  0.5415 -0.2138
10333SOL    HW138114   9.320   5.375   6.728  2.2381  0.7139 -0.6808
10333SOL    HW238115   9.230   5.495   6.747  0.1147 -0.6872 -1.5396
10334SOL     OW38116   4.109   3.121   0.155 -0.1378 -0.1486 -0.0958
10334SOL    HW138117   4.072   3.208   0.170  2.6026  1.0012  0.6452
10334SOL    HW238118   4.086   3.100   0.065  0.5981  2.1440 -0.8666
10335SOL     OW38119   8.883  12.102  12.093  0.4369 -0.9213  0.7158
10335SOL    HW138120   8.864  12.153  12.171 -0.0930 -0.4068  0.2614
10335SOL    HW238121   8.880  12.011  12.122  0.7262 -0.7219  1.3897
10336SOL     OW38122   8.011   0.612   2.559  0.1007  0.2511 -0.7845
10336SOL    HW138123   8.049   0.660   2.485 -0.6647  1.5830 -0.3308
10336SOL    HW238124   7.923   0.647   2.569 -0.4053 -1.0901 -0.2734
10337SOL     OW38125   2.870   1.326   9.981 -0.4019  0.1586 -0.2961
10337SOL    HW138126   2.859   1.409  10.026 -0.9363  0.1371 -0.3789
10337SOL    HW238127   2.930   1.276  10.037  0.6864  0.9459 -0.7328
10338SOL     OW38128   0.016   9.644   4.487 -0.1760 -0.4643 -0.2762
10338SOL    HW138129   0.078   9.717   4.495 -0.3998 -0.1116 -1.5623
10338SOL    HW238130  -0.059   9.672   4.539  0.2429 -0.3384  0.2678
10339SOL     OW38131   3.783   2.580  11.810 -0.0584 -0.4714 -0.2920
10339SOL    HW138132   3.708   2.530  11.842 -0.2176  0.6818  1.2645
10339SOL    HW238133   3.850   2.567  11.877 -0.0603  1.2142  0.0737
10340SOL     OW38134  11.663   6.348   7.695  0.1437 -0.2165  0.5855
10340SOL    HW138135  11.731   6.281   7.696 -0.5612 -0.9725  0.0902
10340SOL    HW238136  11.709   6.431   7.704  1.0085 -0.7972  1.5975
10341SOL     OW38137   0.021   6.962   1.837  0.1393 -0.2177  0.0501
10341SOL    HW138138   0.044   6.877   1.874 -0.6966 -1.0723 -1.3315
10341SOL    HW238139  -0.051   6.993   1.891 -1.7042 -1.8823 -1.3105
10342SOL     OW38140   5.056   5.171   8.560 -0.4333 -0.2713  0.3407
10342SOL    HW138141   4.979   5.149   8.613 -1.5914 -0.9606 -1.5205
10342SOL    HW238142   5.123   5.107   8.587 -0.8640 -0.3789  1.1971
10343SOL     OW38143   0.277  11.769   4.229  0.1814  0.3991 -0.2462
10343SOL    HW138144   0.233  11.781   4.314 -0.7084  0.5349 -0.7111
10343SOL    HW238145   0.362  11.732   4.251  0.2011  0.9991  0.7531
10344SOL     OW38146   3.385   5.670   4.432  0.2777 -0.1792  0.3483
10344SOL    HW138147   3.398   5.575   4.431  0.5883 -0.1470 -1.3080
10344SOL    HW238148   3.290   5.681   4.423  0.2099 -0.3336  0.8607
10345SOL     OW38149   1.283   1.788   6.408 -0.1088 -0.3956  0.0919
10345SOL    HW138150   1.317   1.797   6.497  2.7196 -0.3332 -0.8632
10345SOL    HW238151   1.262   1.878   6.381  2.0744  0.0727 -0.2825
10346SOL     OW38152   7.519   2.999   5.296 -0.4586  0.0553 -0.1203
10346SOL    HW138153   7.494   3.080   5.342  2.3475  1.1682 -0.3796
10346SOL    HW238154   7.508   3.020   5.204 -2.0602 -0.7555 -0.1499
10347SOL     OW38155   0.246  10.366   9.372 -0.0994 -0.4739  0.5804
10347SOL    HW138156   0.320  10.375   9.433 -0.3371 -0.0527  0.8144
10347SOL    HW238157   0.187  10.303   9.414  0.7773 -1.9151 -0.2700
10348SOL     OW38158   5.714   6.660   8.510 -0.4205 -0.6655  0.0647
10348SOL    HW138159   5.696   6.752   8.531  0.8341 -0.5873  0.8752
10348SOL    HW238160   5.663   6.611   8.574 -1.0979 -0.5555 -0.3725
10349SOL     OW38161   2.197   3.967   0.571  0.1369 -0.1007  0.1362
10349SOL    HW138162   2.191   4.033   0.501 -1.9696  0.9051  1.1828
10349SOL    HW238163   2.147   3.893   0.538  0.4277 -0.2240 -0.0320
10350SOL     OW38164  11.802  12.176  11.832 -0.3141 -0.3970 -0.0283
10350SOL    HW138165  11.763  12.146  11.914 -0.6416 -0.2389 -0.1244
10350SOL    HW238166  11.786  12.104  11.770  0.5234 -0.7991  0.2181
10351SOL     OW38167   3.184   2.583   9.749 -0.1372 -0.3561  0.3256
10351SOL    HW138168   3.114   2.571   9.686 -0.9142 -1.1134  1.2813
10351SOL    HW238169   3.258   2.533   9.714 -0.5524 -0.7450  0.0027
10352SOL     OW38170  10.900   4.025   3.312  0.2811  0.4057 -0.2498
10352SOL    HW138171  10.975   4.066   3.268  0.0046  0.2238 -0.9142
10352SOL    HW238172  10.831   4.091   3.308  0.6399  0.8925  1.1068
10353SOL     OW38173  10.892  11.643  10.021 -0.2313  0.0204 -0.3342
10353SOL    HW138174  10.894  11.555   9.983 -0.5946 -0.1885  0.1293
10353SOL    HW238175  10.975  11.652  10.066  0.2311  0.2911 -1.2153
10354SOL     OW38176   6.510   9.892  10.657 -0.7206 -0.0973 -0.7084
10354SOL    HW138177   6.586   9.836  10.673 -1.0819  0.0569  1.9437
10354SOL    HW238178   6.436   9.840  10.688 -1.3025  1.0015 -0.2227
10355SOL     OW38179  10.809  10.612  10.288 -0.2563  0.1422 -0.2883
10355SOL    HW138180  10.872  10.587  10.355 -1.1766  2.4627  1.6020
10355SOL    HW238181  10.861  10.624  10.209  1.3652  0.2168  0.7520
10356SOL     OW38182   9.867   8.982   6.115 -0.0382  0.0043  0.5703
10356SOL    HW138183   9.788   8.929   6.103 -0.8168  1.5016 -1.8512
10356SOL    HW238184   9.937   8.919   6.130 -1.3197 -1.5171  0.4427
10357SOL     OW38185  12.734   4.192  11.350 -0.1167 -0.6846  0.1690
10357SOL    HW138186  12.791   4.185  11.274 -0.4242  0.5857 -0.2033
10357SOL    HW238187  12.768   4.127  11.412 -0.2927 -2.2473 -1.2978
10358SOL     OW38188  12.901   6.132   6.698  0.5438  0.3513 -0.5368
10358SOL    HW138189  12.907   6.148   6.792 -1.5026  0.3133 -0.3532
10358SOL    HW238190  12.808   6.112   6.683  1.0345 -0.7647 -2.3967
10359SOL     OW38191   6.932   6.402   8.205 -0.4577  0.3179 -0.4313
10359SOL    HW138192   6.862   6.421   8.143 -2.3803 -1.5920  0.9659
10359SOL    HW238193   6.965   6.317   8.178  1.3115  1.1465 -0.9914
10360SOL     OW38194   6.250   4.580  12.398 -0.2043 -0.3374  0.4647
10360SOL    HW138195   6.198   4.624  12.465 -0.4364  1.5720 -0.8923
10360SOL    HW238196   6.243   4.637  12.321  0.8949 -1.9193 -0.8756
10361SOL     OW38197   5.373   3.540  12.627  0.7388  0.3774 -0.3154
10361SOL    HW138198   5.450   3.488  12.605  0.4809  0.1564 -0.7231
10361SOL    HW238199   5.382   3.559  12.720  1.1119  0.0656 -0.2861
10362SOL     OW38200   7.410   1.842   0.351  0.0102 -0.1730 -0.8038
10362SOL    HW138201   7.503   1.856   0.362 -0.3327  0.6526  1.5034
10362SOL    HW238202   7.373   1.930   0.342 -0.6987 -0.3986 -0.1817
10363SOL     OW38203   7.112  11.931   7.904  0.3999 -0.5186 -0.0640
10363SOL    HW138204   7.023  11.967   7.897  1.0525  1.2856  0.1950
10363SOL    HW238205   7.132  11.937   7.997 -0.1966 -3.6153  0.3590
10364SOL     OW38206   8.357   5.257   1.194 -0.4550  0.5404  0.1024
10364SOL    HW138207   8.312   5.173   1.205 -2.4867  0.9690 -3.3864
10364SOL    HW238208   8.411   5.245   1.116 -0.7640  2.4502 -0.4545
10365SOL     OW38209   5.156   1.528   6.433  0.3901  0.2313 -0.4689
10365SOL    HW138210   5.132   1.436   6.439  0.5302  0.2429  0.4013
10365SOL    HW238211   5.092   1.572   6.490  1.5175  0.4406  0.6639
10366SOL     OW38212   4.429   4.156   3.926  0.4695  0.4707 -0.3564
10366SOL    HW138213   4.405   4.209   3.851  1.1694 -1.8038 -2.3036
10366SOL    HW238214   4.418   4.065   3.897  2.4977 -0.5362  1.6438
10367SOL     OW38215   4.794   7.589   9.376 -0.0761 -0.5826 -0.5027
10367SOL    HW138216   4.743   7.619   9.302  0.8457  0.0441 -0.9067
10367SOL    HW238217   4.730   7.572   9.445 -0.9029 -0.7791 -1.3071
10368SOL     OW38218  10.579   2.840   3.515  0.1241  0.5937  0.5734
10368SOL    HW138219  10.546   2.903   3.578 -0.2905  0.8436  0.1110
10368SOL    HW238220  10.674   2.852   3.515  0.2253 -0.0756  1.8552
10369SOL     OW38221   8.411   8.596  12.402 -0.1868  0.1832 -0.0410
10369SOL    HW138222   8.337   8.656  12.392  0.4143  0.7085 -1.5483
10369SOL    HW238223   8.489   8.652  12.391  0.4079 -0.6280 -0.0345
10370SOL     OW38224   3.068  10.961   0.300  0.2159 -0.2263 -0.1782
10370SOL    HW138225   3.035  10.949   0.389  0.1261 -0.8051 -0.2927
10370SOL    HW238226   3.158  10.994   0.313  0.3661 -0.7498  0.1273
10371SOL     OW38227   6.251   2.797   6.425 -0.2566  0.2940 -0.1975
10371SOL    HW138228   6.243   2.839   6.511 -2.3968  1.1527 -0.7484
10371SOL    HW238229   6.335   2.752   6.428 -1.0186 -1.2662  3.0550
10372SOL     OW38230  12.900   4.143   7.420 -0.5611 -0.0861 -0.1912
10372SOL    HW138231  12.967   4.081   7.391 -0.2776  0.3680 -0.5162
10372SOL    HW238232  12.870   4.108   7.504 -1.1536 -1.2357 -0.8531
10373SOL     OW38233   4.184   6.377  12.763  0.4689 -0.3273  0.2592
10373SOL    HW138234   4.230   6.459  12.743 -0.2903  0.1178  0.3024
10373SOL    HW238235   4.158   6.386  12.854 -0.2497 -0.3083  0.0530
10374SOL     OW38236  12.656  12.313  10.710 -0.3164  0.2221  0.3047
10374SOL    HW138237  12.688  12.373  10.777 -0.0284  0.6957 -0.2474
10374SOL    HW238238  12.722  12.317  10.641 -1.2061  0.6953 -0.5520
10375SOL     OW38239  10.929   5.924   6.617  0.2614 -0.0767  0.1343
10375SOL    HW138240  10.948   5.943   6.709 -1.9757  0.3157  0.5823
10375SOL    HW238241  10.953   5.833   6.606  0.1557 -0.2573  1.2506
10376SOL     OW38242   6.202   4.762  10.657  1.1352 -0.4530 -0.7353
10376SOL    HW138243   6.182   4.670  10.676 -0.0080 -0.1124 -0.2116
10376SOL    HW238244   6.243   4.795  10.737  1.3235 -0.4305 -0.8390
10377SOL     OW38245   8.869  12.526  12.805  0.1362 -0.4107 -0.5655
10377SOL    HW138246   8.849  12.618  12.788 -1.1730 -0.6695 -0.5412
10377SOL    HW238247   8.938  12.505  12.743  0.5502  0.6203 -0.4810
10378SOL     OW38248  10.238   4.071   2.854 -0.2220  0.1605 -0.3834
10378SOL    HW138249  10.282   4.156   2.859  2.0023 -0.7590 -2.3779
10378SOL    HW238250  10.299   4.010   2.896 -0.4412 -0.8808 -1.5424
10379SOL     OW38251   2.004   2.782   2.715  0.3118 -0.2260 -0.1102
10379SOL    HW138252   1.933   2.816   2.768 -0.2157  0.3721 -1.1637
10379SOL    HW238253   1.963   2.717   2.658  0.9763 -1.2987  0.5935
10380SOL     OW38254   7.429   0.862   3.879 -0.0878 -0.4039 -0.3452
10380SOL    HW138255   7.339   0.828   3.875 -0.3827  0.4616 -2.2298
10380SOL    HW238256   7.421   0.947   3.921 -0.1716 -0.2595 -0.6535
10381SOL     OW38257   8.088   9.643   5.112  0.3402  0.4437  0.6953
10381SOL    HW138258   8.171   9.619   5.070 -0.7653 -3.4545  0.2925
10381SOL    HW238259   8.106   9.637   5.206  1.1302  2.4563  0.7195
10382SOL     OW38260   4.951   6.514   6.852  0.4972 -0.0371  0.2564
10382SOL    HW138261   4.867   6.484   6.819  0.6506 -0.9002  0.6418
10382SOL    HW238262   4.980   6.446   6.912  1.5804  0.1362 -0.0409
10383SOL     OW38263   2.822   2.685   0.754 -0.4324  1.0938  0.2473
10383SOL    HW138264   2.752   2.634   0.795  0.2337  0.4844  0.6509
10383SOL    HW238265   2.893   2.683   0.818  0.4146  0.6317 -0.7019
10384SOL     OW38266   8.365  11.342   9.986 -0.0580  0.2569  0.4093
10384SOL    HW138267   8.360  11.304   9.898 -0.7890 -1.7228  1.2304
10384SOL    HW238268   8.292  11.403   9.991 -1.3106 -1.1618  0.2648
10385SOL     OW38269   0.867   0.212   7.789  0.0661 -0.2577 -0.1346
10385SOL    HW138270   0.847   0.306   7.785  1.8535  0.1244 -2.4797
10385SOL    HW238271   0.931   0.199   7.720 -0.2967 -3.2903 -0.0145
10386SOL     OW38272  10.881   6.709  10.480 -0.2319 -0.3834 -0.3371
10386SOL    HW138273  10.816   6.647  10.446  0.5396 -0.6614 -1.3594
10386SOL    HW238274  10.904   6.762  10.404 -0.8204  1.1301  0.5010
10387SOL     OW38275   6.958   9.035   7.837  0.2372 -0.1149 -0.7984
10387SOL    HW138276   6.996   9.121   7.851  0.4414 -0.1595 -1.0627
10387SOL    HW238277   6.894   9.025   7.906 -1.5407  1.2393 -2.1633
10388SOL     OW38278  12.911   0.938   2.690  0.5446  0.0966 -0.3083
10388SOL    HW138279  12.968   0.908   2.761  0.0948  0.6280  0.2945
10388SOL    HW238280  12.825   0.948   2.732  0.3503  0.7307 -0.8517
10389SOL     OW38281   6.520   3.190   4.293 -0.0915 -0.4325 -0.2055
10389SOL    HW138282   6.425   3.203   4.296  0.0734  0.8400 -0.1846
10389SOL    HW238283   6.530   3.102   4.255 -1.2411 -0.0648 -1.4606
10390SOL     OW38284   0.249  11.587   6.450 -0.2927 -0.4297  1.0105
10390SOL    HW138285   0.289  11.667   6.415 -1.2557 -0.1715  0.4805
10390SOL    HW238286   0.164  11.615   6.482 -0.5267 -1.1985  1.0805
10391SOL     OW38287   0.675  11.485   6.963 -0.3628 -0.3224  0.1010
10391SOL    HW138288   0.599  11.539   6.939 -3.0983 -3.0863  1.7489
10391SOL    HW238289   0.640  11.422   7.026  3.1435 -2.4827  0.1364
10392SOL     OW38290   0.912   3.966   6.201  0.5829 -0.6256  0.1865
10392SOL    HW138291   0.954   3.903   6.142 -0.0522 -0.7218 -0.1702
10392SOL    HW238292   0.847   3.914   6.248 -0.3813 -0.1145 -0.5564
10393SOL     OW38293  10.485   0.875   4.246 -0.7332 -0.1331 -0.3040
10393SOL    HW138294  10.482   0.894   4.153 -0.6718  2.4532  0.1652
10393SOL    HW238295  10.395   0.889   4.277 -0.7459 -0.9328  0.0540
10394SOL     OW38296  10.542   2.292  11.081  0.0144 -0.0597 -0.0507
10394SOL    HW138297  10.507   2.254  11.000 -2.9200 -0.4872  1.2946
10394SOL    HW238298  10.491   2.371  11.095  0.4518  0.0073  1.3754
10395SOL     OW38299  10.361  11.521   8.361 -0.0223 -0.0470 -0.2324
10395SOL    HW138300  10.434  11.468   8.390 -0.0561  0.7754  1.4763
10395SOL    HW238301  10.321  11.554   8.442 -0.8456  1.4148 -1.1787
10396SOL     OW38302   8.024   6.945   9.690 -0.2739  0.3311  0.0178
10396SOL    HW138303   8.001   6.967   9.780  3.2727  0.4394  1.0292
10396SOL    HW238304   8.073   6.863   9.698  2.2953  1.6048 -1.3927
10397SOL     OW38305   2.208   1.981  12.802 -0.3796 -0.5496  0.4548
10397SOL    HW138306   2.175   2.029  12.878 -2.0404  1.7734 -1.5915
10397SOL    HW238307   2.175   1.892  12.814 -0.3305 -0.3264  2.5834
10398SOL     OW38308   2.124   6.688   6.489  0.0365 -0.1703 -0.1491
10398SOL    HW138309   2.058   6.644   6.542 -1.7380  2.5327  0.1109
10398SOL    HW238310   2.172   6.618   6.446 -2.4137 -2.3138  0.3727
10399SOL     OW38311   3.976  10.719   1.983  0.4549  0.7550  0.0517
10399SOL    HW138312   4.046  10.775   1.949  1.4114 -1.3964 -1.7805
10399SOL    HW238313   3.908  10.722   1.916 -0.2731  1.1175  0.7921
10400SOL     OW38314   3.152   8.826   0.248  0.1292 -0.1752 -0.4774
10400SOL    HW138315   3.176   8.919   0.249 -1.9773  0.4239 -0.6577
10400SOL    HW238316   3.144   8.804   0.156  0.2883 -0.4367 -0.4291
10401SOL     OW38317   8.018   3.187   6.323  0.3833  0.0200  0.1722
10401SOL    HW138318   8.070   3.119   6.366 -0.5681  0.4497  2.1024
10401SOL    HW238319   7.953   3.138   6.272  0.5010 -0.5328  0.5402
10402SOL     OW38320  12.289   4.648   3.395 -0.2677  0.6058  0.2362
10402SOL    HW138321  12.353   4.706   3.437  1.8349  0.0321 -1.9493
10402SOL    HW238322  12.245   4.702   3.330 -1.8186  0.9005  1.4801
10403SOL     OW38323   5.814   3.915   0.666 -0.2981  0.3679  0.2740
10403SOL    HW138324   5.856   3.892   0.749 -0.2392  1.7216  0.6539
10403SOL    HW238325   5.720   3.918   0.686 -0.4805 -1.2562 -0.2223
10404SOL     OW38326   9.086   4.524   7.360 -0.0791 -0.3054  0.2093
10404SOL    HW138327   9.027   4.590   7.398  1.0386  0.5333  0.5400
10404SOL    HW238328   9.037   4.442   7.367 -1.5039  0.4653 -0.2049
10405SOL     OW38329   8.866   5.326   0.452 -0.0868 -0.1656  0.4002
10405SOL    HW138330   8.833   5.414   0.430  0.9388  0.3766  0.9796
10405SOL    HW238331   8.860   5.278   0.370 -0.8143  0.3919  0.1083
10406SOL     OW38332   3.958   9.008   2.361 -0.7082  0.1863 -0.1914
10406SOL    HW138333   3.943   9.102   2.349 -0.5315  0.7728  3.1129
10406SOL    HW238334   3.872   8.974   2.387 -0.2886 -0.0946  0.8499
10407SOL     OW38335   4.232   0.426  12.630 -0.3423  0.6923 -0.0199
10407SOL    HW138336   4.186   0.344  12.612  1.1672 -0.2850  0.3849
10407SOL    HW238337   4.324   0.401  12.636  0.0154  2.1656  1.5826
10408SOL     OW38338   4.959  11.613   2.996 -0.0938 -0.6654 -0.6041
10408SOL    HW138339   4.994  11.628   2.909  0.6507 -0.1292 -0.2293
10408SOL    HW238340   4.865  11.600   2.983 -0.3248  1.3941 -1.2806
10409SOL     OW38341  11.229   0.172  11.196  0.0228 -0.0260 -0.6880
10409SOL    HW138342  11.137   0.151  11.212  0.0508 -1.7616 -2.4000
10409SOL    HW238343  11.268   0.179  11.283 -1.4669 -0.5960  0.0517
10410SOL     OW38344  10.292   1.734   8.599 -0.5351 -0.5210  0.6290
10410SOL    HW138345  10.260   1.695   8.680  0.1779 -2.1209  0.1703
10410SOL    HW238346  10.212   1.753   8.549 -0.9572  0.1167  1.5239
10411SOL     OW38347   8.708   4.423   6.856  0.5784  0.1920  0.9230
10411SOL    HW138348   8.617   4.400   6.877 -0.3256  1.0626 -1.6839
10411SOL    HW238349   8.744   4.344   6.816  0.7570  0.1029  1.2481
10412SOL     OW38350   0.802   5.461   3.962  0.4272 -0.2692  0.6179
10412SOL    HW138351   0.831   5.453   3.871 -0.4536  1.3852  0.1561
10412SOL    HW238352   0.753   5.381   3.978 -0.3502 -0.0984 -0.7355
10413SOL     OW38353   1.371   4.266  12.442 -0.3112  0.9673 -0.6897
10413SOL    HW138354   1.331   4.224  12.519  1.9267 -0.1220 -0.0464
10413SOL    HW238355   1.303   4.325  12.410 -2.5743 -0.9854  0.1207
10414SOL     OW38356   1.179   9.572   4.019  0.2153  0.4625  0.5593
10414SOL    HW138357   1.235   9.649   4.027  0.8471  0.0711  0.0014
10414SOL    HW238358   1.173   9.557   3.925  0.2174 -0.2530  0.6717
10415SOL     OW38359   3.485   0.655   8.098 -0.0926 -0.1341 -0.3333
10415SOL    HW138360   3.538   0.578   8.120  1.1423  0.1680 -2.0376
10415SOL    HW238361   3.506   0.673   8.006 -2.1720  0.8230 -0.6795
10416SOL     OW38362   2.087   2.587   8.833  0.6213 -0.1759 -0.2810
10416SOL    HW138363   2.005   2.554   8.869  0.9197 -0.7717 -0.1363
10416SOL    HW238364   2.114   2.656   8.893 -0.7558  1.3929 -1.3656
10417SOL     OW38365  10.262  10.839   5.657  0.1342  0.0055  0.3548
10417SOL    HW138366  10.242  10.852   5.564  0.0275 -0.9762  0.2280
10417SOL    HW238367  10.260  10.927   5.694 -1.1888  0.2800 -0.3023
10418SOL     OW38368   7.812   3.517   9.076 -0.3860 -0.0502 -0.0121
10418SOL    HW138369   7.828   3.493   9.167 -1.7924 -0.8015  0.0659
10418SOL    HW238370   7.754   3.448   9.043 -1.5519  1.2954 -0.8719
10419SOL     OW38371  12.713   7.835  10.767 -0.1014  0.4006 -0.3061
10419SOL    HW138372  12.786   7.892  10.790  0.0035  0.5160 -0.8972
10419SOL    HW238373  12.698   7.852  10.674 -1.0025  0.5180 -0.1498
10420SOL     OW38374  11.947   8.551   9.315  0.2889 -0.0423  0.4508
10420SOL    HW138375  12.012   8.592   9.258  0.2031 -0.2750  0.1784
10420SOL    HW238376  11.882   8.516   9.254  0.0835 -0.1035  0.7063
10421SOL     OW38377   4.625   3.774   7.459  0.1351  0.3024 -0.4311
10421SOL    HW138378   4.700   3.732   7.417 -0.0541 -1.4318  0.8512
10421SOL    HW238379   4.654   3.864   7.476  1.6421 -0.1325 -0.5927
10422SOL     OW38380   9.195   8.767   7.575 -0.0171 -0.1081 -0.0877
10422SOL    HW138381   9.198   8.862   7.563 -0.6484 -0.1103 -0.2979
10422SOL    HW238382   9.134   8.736   7.508 -0.1834 -0.6075  0.2878
10423SOL     OW38383   3.271  10.466   9.657 -0.8372  0.7375  0.0410
10423SOL    HW138384   3.240  10.441   9.571 -0.6224 -0.7734  0.3865
10423SOL    HW238385   3.315  10.550   9.643 -1.1465  0.7011 -1.2308
10424SOL     OW38386   8.082  11.351   9.492  0.0377  0.7825  0.0752
10424SOL    HW138387   8.115  11.440   9.504 -0.4320  1.5467 -3.2235
10424SOL    HW238388   7.988  11.357   9.510  0.1400  0.7556  0.6286
10425SOL     OW38389   4.421   0.399   4.675  0.2826 -0.3232 -0.9148
10425SOL    HW138390   4.507   0.412   4.716  1.3713 -0.0685 -3.1513
10425SOL    HW238391   4.438   0.401   4.581 -2.3682  1.1339 -1.4763
10426SOL     OW38392   3.700  10.789   2.171  0.0328  0.4528  0.1428
10426SOL    HW138393   3.757  10.771   2.246  0.0470  0.1927  0.0718
10426SOL    HW238394   3.614  10.806   2.209  0.5607  2.7836  0.3929
10427SOL     OW38395   9.819   0.256   6.366 -0.1257 -0.0374  0.3350
10427SOL    HW138396   9.810   0.160   6.364 -1.7156  0.0413  1.5747
10427SOL    HW238397   9.825   0.277   6.459  0.4559  1.0820  0.0625
10428SOL     OW38398   3.042  11.077   4.315 -0.2978 -0.6122 -0.3545
10428SOL    HW138399   3.085  11.035   4.389 -0.3234 -2.7233 -1.4688
10428SOL    HW238400   3.114  11.101   4.256 -0.4275 -1.5165 -0.9018
10429SOL     OW38401   2.180   7.903   2.665  0.3100  0.0480 -0.4498
10429SOL    HW138402   2.206   7.957   2.591 -1.2443  0.2830 -0.8528
10429SOL    HW238403   2.106   7.950   2.704  1.0402 -0.1086  1.2218
10430SOL     OW38404   4.670   6.423   4.851 -0.4834  0.0595 -0.2811
10430SOL    HW138405   4.578   6.396   4.853  0.0668 -1.8799  0.3185
10430SOL    HW238406   4.684   6.455   4.762 -1.5327 -0.3424 -0.6030
10431SOL     OW38407   2.146  12.305  11.506  0.3513 -0.1117 -0.0623
10431SOL    HW138408   2.090  12.353  11.566  0.9353 -0.6991  0.9797
10431SOL    HW238409   2.198  12.373  11.462 -0.9095  0.4081 -0.8026
10432SOL     OW38410   3.851   8.757  10.620 -0.0019 -0.1267 -0.3329
10432SOL    HW138411   3.841   8.850  10.597 -0.3309 -0.0674  0.0280
10432SOL    HW238412   3.943   8.747  10.643 -0.3147  0.5366  1.3927
10433SOL     OW38413   0.476   6.441   0.002  0.0127  0.9467  0.1233
10433SOL    HW138414   0.397   6.491  -0.020 -0.2532  0.1759 -0.7825
10433SOL    HW238415   0.516   6.421  -0.083  0.5999  0.4122  0.5137
10434SOL     OW38416   6.613   2.939   9.339 -0.1535 -0.0048  0.4680
10434SOL    HW138417   6.599   2.850   9.372 -0.0511 -0.3463 -0.3914
10434SOL    HW238418   6.663   2.983   9.408 -1.5846 -0.1181  1.6126
10435SOL     OW38419  11.981   5.527   5.959  0.6844 -0.4105  0.0573
10435SOL    HW138420  11.895   5.494   5.986  0.8287 -0.4628  0.4562
10435SOL    HW238421  11.961   5.608   5.911  0.5217  0.5744  1.7337
10436SOL     OW38422   6.805   4.581   8.133  0.5245  0.1755  0.1552
10436SOL    HW138423   6.851   4.665   8.129 -1.8868  1.6283  0.8589
10436SOL    HW238424   6.718   4.603   8.167 -0.4122 -2.5361 -0.2549
10437SOL     OW38425  11.689  12.471   9.902  0.0209  0.2624  0.2185
10437SOL    HW138426  11.747  12.474   9.825 -0.3609 -1.3113 -0.1743
10437SOL    HW238427  11.612  12.422   9.872 -0.3102 -0.0362  1.4878
10438SOL     OW38428   6.713   2.369   9.480  0.2845 -0.2604 -0.4260
10438SOL    HW138429   6.672   2.308   9.418  1.1790 -1.2848 -0.0321
10438SOL    HW238430   6.669   2.352   9.563 -0.4015  0.6045 -0.5868
10439SOL     OW38431   9.045   0.128   4.604 -0.1690 -0.4780  0.3056
10439SOL    HW138432   9.089   0.045   4.584  1.2744  0.0707  1.0323
10439SOL    HW238433   9.010   0.116   4.692  0.2716 -0.2466  0.5181
10440SOL     OW38434   8.453   5.768   2.602  1.4140 -0.2571  0.6308
10440SOL    HW138435   8.464   5.808   2.688 -0.1163  0.2279  0.6357
10440SOL    HW238436   8.358   5.769   2.587  1.3991 -2.7610  0.0938
10441SOL     OW38437   6.347   2.209   5.406 -0.4753 -0.1011 -0.2350
10441SOL    HW138438   6.331   2.244   5.494  3.0807  0.0591  0.5018
10441SOL    HW238439   6.395   2.277   5.361 -1.0048 -0.7565 -1.8706
10442SOL     OW38440   7.520   6.124   3.022 -0.2998 -0.7001 -0.0122
10442SOL    HW138441   7.570   6.202   3.000 -1.4405 -0.3464 -1.4796
10442SOL    HW238442   7.518   6.124   3.118 -2.7440  2.7836  0.1275
10443SOL     OW38443   6.094   3.992   4.468  0.8988  0.3412 -0.2419
10443SOL    HW138444   6.017   3.999   4.413  0.3238 -0.7544  0.3830
10443SOL    HW238445   6.149   3.927   4.424  0.3201 -0.7313  0.5738
10444SOL     OW38446   2.208   8.778   8.930  0.1141  0.0257 -0.1034
10444SOL    HW138447   2.173   8.758   8.844  1.5991 -3.2720 -0.1001
10444SOL    HW238448   2.154   8.850   8.963 -2.6802 -0.8584 -2.3902
10445SOL     OW38449  10.954   8.067   6.197 -0.5618  0.3131  0.4192
10445SOL    HW138450  10.883   8.077   6.133 -0.3109  0.2933  0.1361
10445SOL    HW238451  11.029   8.040   6.145 -0.6509 -0.8709  0.8709
10446SOL     OW38452   9.266   1.725   9.837 -0.1426 -0.1377  0.4803
10446SOL    HW138453   9.351   1.755   9.869 -0.6207  0.3570  1.3165
10446SOL    HW238454   9.273   1.731   9.742  0.6687  0.1434  0.5524
10447SOL     OW38455   4.452   0.595   7.557 -0.0699  0.2835  0.4379
10447SOL    HW138456   4.443   0.546   7.475 -0.2318  0.8289  0.1324
10447SOL    HW238457   4.516   0.544   7.607 -0.6341 -0.5385  0.3439
10448SOL     OW38458   3.795   8.181   4.778 -0.1122  0.6394  0.3431
10448SOL    HW138459   3.854   8.152   4.709  0.1500  1.0309  0.4011
10448SOL    HW238460   3.789   8.276   4.767 -1.0266  0.5682  0.1041
10449SOL     OW38461  10.739   1.490   1.282 -0.0678 -0.5775  0.3677
10449SOL    HW138462  10.663   1.546   1.261  0.1200 -0.1209  0.8726
10449SOL    HW238463  10.735   1.420   1.217 -1.2343 -0.8609  0.7118
10450SOL     OW38464  12.303   0.510   9.888 -0.2667  0.0524  0.4974
10450SOL    HW138465  12.295   0.432   9.834 -0.9700  0.7879 -0.5090
10450SOL    HW238466  12.359   0.484   9.961  0.3283 -1.1000 -0.3474
10451SOL     OW38467   6.899   0.696   5.639  0.3835  0.3595  0.7194
10451SOL    HW138468   6.938   0.771   5.684  0.2677  0.8024  0.0919
10451SOL    HW238469   6.951   0.686   5.560  0.4928 -0.3252  0.8726
10452SOL     OW38470   4.239   9.076   1.138  0.2261  0.3029  0.0098
10452SOL    HW138471   4.248   9.124   1.056 -2.0134 -0.3906 -0.7297
10452SOL    HW238472   4.323   9.033   1.151  1.3517  2.1639 -0.7495
10453SOL     OW38473   6.267  11.633  12.524  0.3470  0.1468  0.2690
10453SOL    HW138474   6.187  11.595  12.559 -0.4445  1.5736  0.0754
10453SOL    HW238475   6.337  11.578  12.559 -0.6765 -0.8081  0.8654
10454SOL     OW38476   8.295   5.493   3.460 -0.2144  0.1507 -0.1506
10454SOL    HW138477   8.352   5.444   3.519 -0.1738 -1.1885 -1.2736
10454SOL    HW238478   8.321   5.585   3.472  2.4516 -0.4316 -0.8975
10455SOL     OW38479   0.336   9.220   7.390  0.5854 -0.7979  0.0041
10455SOL    HW138480   0.358   9.133   7.425  1.6057 -1.4519 -2.1139
10455SOL    HW238481   0.359   9.215   7.297 -1.5056  1.0088 -0.6929
10456SOL     OW38482   3.424   5.865   2.694 -0.0298 -0.0218  0.4407
10456SOL    HW138483   3.373   5.944   2.676 -0.0366  0.6987  3.2001
10456SOL    HW238484   3.363   5.793   2.679  0.0229  0.3732 -2.2797
10457SOL     OW38485   9.056   1.171  10.333  0.6869  0.0152  0.1828
10457SOL    HW138486   8.981   1.169  10.393 -0.8099 -1.5060 -1.6089
10457SOL    HW238487   9.025   1.221  10.258  1.2502 -1.0602 -0.8080
10458SOL     OW38488   7.368   0.715   0.208 -0.0320 -0.3258 -0.4142
10458SOL    HW138489   7.277   0.694   0.227  0.1331 -0.3174  0.4164
10458SOL    HW238490   7.408   0.630   0.187 -0.2699 -0.3042 -0.9595
10459SOL     OW38491  12.493  12.401   7.970  0.0746 -0.1804  0.0324
10459SOL    HW138492  12.466  12.475   8.024 -0.9017 -2.9031  3.7341
10459SOL    HW238493  12.581  12.379   8.002  0.1328 -0.9418 -0.6068
10460SOL     OW38494  12.136   9.210  12.414  0.0145  0.5775  0.8423
10460SOL    HW138495  12.153   9.147  12.344  0.8229  0.6239  0.9886
10460SOL    HW238496  12.096   9.158  12.484 -3.0070  0.9190 -0.4875
10461SOL     OW38497   7.089   9.781   4.712  0.4260  0.1135 -0.6043
10461SOL    HW138498   7.157   9.764   4.647  1.5497 -0.8568  0.7511
10461SOL    HW238499   7.053   9.694   4.731 -0.5322  0.5038 -0.5953
10462SOL     OW38500   8.627   2.295   8.149 -0.0828 -0.1726 -0.4845
10462SOL    HW138501   8.570   2.342   8.089 -0.0634  1.2714  0.5627
10462SOL    HW238502   8.606   2.203   8.136 -1.8383  0.2607 -0.9134
10463SOL     OW38503   7.267   2.440   5.726 -0.0380 -0.5307 -0.4604
10463SOL    HW138504   7.230   2.405   5.644 -0.8274 -0.7895 -0.0103
10463SOL    HW238505   7.210   2.513   5.748  0.4447 -0.1779 -0.3717
10464SOL     OW38506   1.074   4.344   4.656  0.4967  0.4914 -0.1212
10464SOL    HW138507   1.073   4.383   4.744 -0.0496  0.0198  0.0852
10464SOL    HW238508   1.070   4.419   4.596 -0.1454  0.7729  0.2660
10465SOL     OW38509   7.515   0.094   9.124 -0.0686 -0.2448 -0.0110
10465SOL    HW138510   7.481   0.184   9.119  0.7129  0.1303  1.0566
10465SOL    HW238511   7.437   0.039   9.118 -0.5756  0.4986 -0.5230
10466SOL     OW38512   0.052  10.591  11.231  0.3666  0.0900  0.1470
10466SOL    HW138513   0.075  10.505  11.196 -0.9121 -0.4964  0.6656
10466SOL    HW238514   0.040  10.646  11.153 -0.5942 -0.6953 -0.2850
10467SOL     OW38515   0.021   5.217   6.465 -0.1784 -0.1558  0.3940
10467SOL    HW138516   0.049   5.243   6.552  1.3379 -3.8651  1.2300
10467SOL    HW238517  -0.066   5.178   6.478  0.0526 -0.7227  0.2925
10468SOL     OW38518  10.311   2.553   2.900 -0.4477 -0.3896 -0.6675
10468SOL    HW138519  10.318   2.504   2.983  1.3060  0.6413 -0.1437
10468SOL    HW238520  10.233   2.517   2.858 -1.1519 -1.2646  1.2244
10469SOL     OW38521   8.920   5.879   7.556 -0.0137  0.1009 -0.0594
10469SOL    HW138522   8.931   5.889   7.461  1.1675 -1.5445 -0.1431
10469SOL    HW238523   8.917   5.969   7.589 -1.6754  0.7239 -1.7475
10470SOL     OW38524   9.650   0.466   5.265 -0.0263  0.5971 -0.1546
10470SOL    HW138525   9.588   0.394   5.282  0.3454  0.4385  0.5700
10470SOL    HW238526   9.612   0.541   5.310 -1.8033  1.6093 -3.0842
10471SOL     OW38527  11.354   1.266   4.854 -0.4296 -0.4726  0.3402
10471SOL    HW138528  11.260   1.276   4.872 -0.7771  0.3113 -1.6400
10471SOL    HW238529  11.373   1.334   4.790  0.9107 -2.2136 -1.2312
10472SOL     OW38530   6.157   7.408   4.078 -0.2913 -0.0727 -0.2942
10472SOL    HW138531   6.225   7.456   4.031 -0.8175  0.7233 -0.2715
10472SOL    HW238532   6.169   7.434   4.170 -1.6022  1.3743 -0.4731
10473SOL     OW38533  11.859   7.499   2.599 -0.1818  0.3115 -0.8172
10473SOL    HW138534  11.766   7.479   2.601 -0.2650  0.5879 -1.5368
10473SOL    HW238535  11.885   7.504   2.691 -1.1585  1.4812 -0.5833
10474SOL     OW38536   0.540   7.494   5.334  0.5765  0.1054  0.2915
10474SOL    HW138537   0.626   7.474   5.299  0.4348 -1.4679  0.7990
10474SOL    HW238538   0.552   7.497   5.429 -0.0557 -0.8228  0.4067
10475SOL     OW38539  11.314   9.304   3.323  0.3844  0.3170  0.3800
10475SOL    HW138540  11.290   9.230   3.268  1.0805  0.0981  0.3514
10475SOL    HW238541  11.304   9.271   3.413  0.8663  0.1165  0.3673
10476SOL     OW38542   6.622   7.427  12.149  0.2529  0.2666  0.7180
10476SOL    HW138543   6.695   7.388  12.198 -0.8287 -0.5325  1.7395
10476SOL    HW238544   6.665   7.481  12.082  1.8582 -2.3167 -0.5146
10477SOL     OW38545   4.167   2.509   3.424  0.1456 -0.1066 -0.4604
10477SOL    HW138546   4.093   2.449   3.432  0.2114 -0.4645 -2.1383
10477SOL    HW238547   4.222   2.488   3.500 -1.4962  0.2801  0.9107
10478SOL     OW38548   2.984   4.932   0.234  0.0307 -0.2851  0.1110
10478SOL    HW138549   3.009   5.023   0.255  0.7129 -0.0518 -1.5908
10478SOL    HW238550   2.995   4.885   0.317  1.3714  0.8382  0.6138
10479SOL     OW38551   2.414   6.899   0.586  0.2010  0.0426 -0.2066
10479SOL    HW138552   2.396   6.847   0.665 -0.0608 -1.1108 -0.9925
10479SOL    HW238553   2.509   6.904   0.581  0.2275 -0.3326 -0.0969
10480SOL     OW38554   1.409   2.701   3.965 -0.3572 -0.2312  0.2342
10480SOL    HW138555   1.366   2.619   3.991  0.3040 -0.4881  0.5500
10480SOL    HW238556   1.488   2.704   4.019  0.1232  0.1309 -0.4774
10481SOL     OW38557  11.141   1.753   5.021  0.8488 -0.1145 -0.2153
10481SOL    HW138558  11.055   1.737   5.061  1.9281 -0.5674  2.1355
10481SOL    HW238559  11.163   1.670   4.979 -0.3227  0.3685 -1.8476
10482SOL     OW38560   0.694  12.012   2.157 -0.6962 -0.1451  0.1395
10482SOL    HW138561   0.673  11.978   2.243  0.2751 -0.3991  0.2906
10482SOL    HW238562   0.651  11.953   2.096 -0.4616 -0.6208  0.4333
10483SOL     OW38563   2.586  12.510   5.921  0.3617  0.1697  0.1587
10483SOL    HW138564   2.528  12.493   5.996 -2.3062 -0.7346 -1.9282
10483SOL    HW238565   2.654  12.444   5.928  0.1910  0.1285  1.7958
10484SOL     OW38566   7.905   4.256   5.060  0.1567 -0.4132 -0.4873
10484SOL    HW138567   7.841   4.287   5.124 -0.8290  0.2937 -1.7598
10484SOL    HW238568   7.990   4.265   5.104 -0.3562  1.3597  0.2359
10485SOL     OW38569   1.807   2.925   9.099  0.3310 -0.1309  0.5161
10485SOL    HW138570   1.844   2.888   9.019 -1.4363 -0.9185  0.0240
10485SOL    HW238571   1.720   2.887   9.105  0.1878  0.4114  2.4963
10486SOL     OW38572   4.978  10.118   9.597 -0.1205 -0.0078  0.0194
10486SOL    HW138573   5.068  10.148   9.609 -0.1820  0.3011 -0.2760
10486SOL    HW238574   4.959  10.138   9.505  0.1987 -1.8995 -0.5220
10487SOL     OW38575  12.503  11.838   3.286  0.6417  0.1650  0.1235
10487SOL    HW138576  12.582  11.865   3.238  0.8514  1.1570  0.9793
10487SOL    HW238577  12.435  11.833   3.219  1.3489 -0.3924 -0.5780
10488SOL     OW38578   8.015   5.152   1.030  0.1490 -0.0233  0.0744
10488SOL    HW138579   7.965   5.105   0.964  0.1304 -1.0665  0.8072
10488SOL    HW238580   8.095   5.179   0.986 -0.0517 -0.3368 -0.4819
10489SOL     OW38581   8.299   2.113   5.332  0.1129  0.3238  0.3518
10489SOL    HW138582   8.213   2.144   5.306  0.0670  0.1085  0.2534
10489SOL    HW238583   8.354   2.192   5.333 -0.4950  0.7863  2.1372
10490SOL     OW38584  11.666   6.125   1.307  0.0817  0.3936 -0.0625
10490SOL    HW138585  11.659   6.196   1.243  0.4885  1.4871  1.0690
10490SOL    HW238586  11.587   6.132   1.360  0.2436  0.1577  0.2131
10491SOL     OW38587  11.750  11.106   4.698 -0.1312 -0.0386 -0.2135
10491SOL    HW138588  11.753  11.014   4.671  1.5077  0.1053 -0.6333
10491SOL    HW238589  11.803  11.152   4.633  0.2700  0.9806  0.7923
10492SOL     OW38590  10.940  12.868   3.917 -0.0095  0.7948  0.3573
10492SOL    HW138591  10.917  12.797   3.977 -1.9602  0.8460 -0.2418
10492SOL    HW238592  10.896  12.945   3.954 -0.4648  1.0194 -0.6240
10493SOL     OW38593   0.623  11.034  10.736  0.5449  0.4560 -0.4801
10493SOL    HW138594   0.693  11.029  10.672  0.7666  0.0059 -0.2075
10493SOL    HW238595   0.664  11.073  10.813  0.4338  0.4241 -0.4044
10494SOL     OW38596  12.392   2.975   2.450 -0.0822  0.3483  0.1058
10494SOL    HW138597  12.298   2.994   2.446 -0.7687 -2.3766  0.7765
10494SOL    HW238598  12.417   2.955   2.360 -0.9867 -2.0346  0.3118
10495SOL     OW38599  10.270   3.219   1.050 -0.1216  0.0598 -0.6362
10495SOL    HW138600  10.194   3.237   0.995 -0.0751 -0.1803 -0.7800
10495SOL    HW238601  10.279   3.297   1.104 -2.8590 -1.3083  2.1803
10496SOL     OW38602  12.422   2.130   6.887 -0.0547 -0.0470  0.2127
10496SOL    HW138603  12.432   2.087   6.802 -0.2477  0.9872 -0.3474
10496SOL    HW238604  12.511   2.157   6.911 -0.1838  0.9896 -0.3944
10497SOL     OW38605   2.296   0.426  12.444 -0.0049  0.1471 -0.5630
10497SOL    HW138606   2.277   0.493  12.379 -0.0801 -1.3421 -2.1204
10497SOL    HW238607   2.388   0.440  12.466  0.0419  0.6138 -1.0245
10498SOL     OW38608   7.548   5.479   6.164  0.1270 -0.0478 -0.0753
10498SOL    HW138609   7.490   5.516   6.098  1.8360 -0.3444 -1.8390
10498SOL    HW238610   7.517   5.389   6.177 -0.4000  0.1074 -0.2380
10499SOL     OW38611   6.476   1.727   2.354  0.1459 -0.0957 -0.0483
10499SOL    HW138612   6.548   1.702   2.411 -0.2398  0.3226  0.6298
10499SOL    HW238613   6.514   1.724   2.266  1.1410  0.5938  0.3346
10500SOL     OW38614   5.475   6.817   7.493  0.4760  0.0838  0.0146
10500SOL    HW138615   5.402   6.758   7.513 -0.7084  1.4758 -0.0706
10500SOL    HW238616   5.544   6.790   7.554 -0.4738 -0.5767  0.8368
10501SOL     OW38617  12.250   6.256   8.225  0.5237  0.3459 -0.0618
10501SOL    HW138618  12.208   6.331   8.184 -1.1309  0.4303  1.6640
10501SOL    HW238619  12.341   6.284   8.237  0.5427  1.0864 -1.6850
10502SOL     OW38620   8.576   4.535   2.307  0.0675  0.2816  0.1696
10502SOL    HW138621   8.545   4.620   2.337 -3.0968 -0.4859 -0.5191
10502SOL    HW238622   8.598   4.549   2.215  1.1757  0.6751  0.4779
10503SOL     OW38623   0.308   1.727   7.839  0.0355 -0.0578 -0.3239
10503SOL    HW138624   0.311   1.819   7.814 -1.6213 -0.2286 -1.3362
10503SOL    HW238625   0.247   1.687   7.776 -1.2193 -1.3439  1.5907
10504SOL     OW38626   9.922   7.352  12.038  0.2127 -0.2030  0.3003
10504SOL    HW138627   9.939   7.444  12.055  0.0230 -0.1639  0.2792
10504SOL    HW238628   9.837   7.351  11.993  0.5041 -0.3385 -0.2593
10505SOL     OW38629  12.309   7.275   8.127  0.3617  0.0834 -0.9343
10505SOL    HW138630  12.295   7.320   8.044 -1.3434  2.3903  0.4839
10505SOL    HW238631  12.233   7.299   8.180 -0.5051 -4.1978  0.1566
10506SOL     OW38632  12.504   6.938   0.138 -0.1530  0.0517  0.2754
10506SOL    HW138633  12.506   7.032   0.119 -0.4490  0.0887  0.4218
10506SOL    HW238634  12.430   6.905   0.088  0.8194 -0.3641 -0.9245
10507SOL     OW38635   1.325   0.716   2.044  0.0704 -0.4572  0.4722
10507SOL    HW138636   1.409   0.691   2.006  0.7897  1.5352  0.6215
10507SOL    HW238637   1.340   0.804   2.079 -1.6068 -0.7340  2.0419
10508SOL     OW38638   6.942   6.821   7.274 -0.2286 -0.5034 -0.0279
10508SOL    HW138639   6.874   6.820   7.342 -3.2627  0.3764 -2.7902
10508SOL    HW238640   6.953   6.729   7.250 -1.5952 -0.5642 -0.5214
10509SOL     OW38641  12.296   6.639  12.247  0.0934 -0.4599  0.2737
10509SOL    HW138642  12.356   6.567  12.268  0.7344 -0.3407 -1.0427
10509SOL    HW238643  12.339   6.686  12.176 -1.8742 -0.7965 -1.2229
10510SOL     OW38644   6.463   2.788   3.658 -0.6364 -0.3244  0.3435
10510SOL    HW138645   6.531   2.855   3.659  0.6593 -1.5509  2.6293
10510SOL    HW238646   6.489   2.727   3.589 -0.2178 -0.0039  0.2198
10511SOL     OW38647   9.147   0.820   0.825 -0.3761  0.0741 -0.3513
10511SOL    HW138648   9.091   0.892   0.795  2.0222  2.3781  0.2361
10511SOL    HW238649   9.123   0.807   0.917 -0.6540  0.3118 -0.3888
10512SOL     OW38650   6.340   1.644   8.333 -0.5066 -0.0919 -0.3499
10512SOL    HW138651   6.346   1.637   8.237 -1.2198 -0.3937 -0.3789
10512SOL    HW238652   6.284   1.720   8.348  1.5442  1.4485 -0.1171
10513SOL     OW38653   7.807   5.866   3.573 -0.1407  0.4170 -0.0826
10513SOL    HW138654   7.893   5.906   3.582  0.4018 -0.4619 -1.0944
10513SOL    HW238655   7.753   5.933   3.532  0.4727  0.4642 -0.8182
10514SOL     OW38656   0.994  10.383   7.039  0.4123 -0.2430 -0.0974
10514SOL    HW138657   1.083  10.362   7.011  0.0649 -2.0581  0.0455
10514SOL    HW238658   0.939  10.317   6.997 -0.8003  0.4271  0.3675
10515SOL     OW38659  12.433   2.707   0.266 -0.2102  0.1023 -0.0022
10515SOL    HW138660  12.454   2.618   0.295 -0.5188  0.9270  3.1483
10515SOL    HW238661  12.337   2.711   0.270 -0.1653  0.7516  0.5622
10516SOL     OW38662   5.304   8.581   7.385  0.0262  0.2889  0.6871
10516SOL    HW138663   5.302   8.490   7.356 -0.9806  0.5602 -0.2108
10516SOL    HW238664   5.215   8.598   7.417  0.4067  0.7545  1.5206
10517SOL     OW38665  12.879   3.522   1.420  0.9788  0.4348 -0.1058
10517SOL    HW138666  12.905   3.565   1.338 -0.1689 -1.2220 -1.4120
10517SOL    HW238667  12.833   3.443   1.392 -1.8326  1.1324  2.0521
10518SOL     OW38668  10.180  12.147   6.720 -0.3260  0.0435  0.1345
10518SOL    HW138669  10.178  12.090   6.796 -0.8863  1.7325  1.4457
10518SOL    HW238670  10.092  12.139   6.682  0.0622 -1.0705 -0.6031
10519SOL     OW38671   0.480   7.855   7.834 -0.0652 -0.0377 -0.2249
10519SOL    HW138672   0.535   7.789   7.790 -0.5252 -0.9265  0.5166
10519SOL    HW238673   0.472   7.824   7.924 -1.5881  0.2008 -0.2519
10520SOL     OW38674   7.652   6.139   6.484  0.0159  0.2112  0.0188
10520SOL    HW138675   7.605   6.100   6.558 -0.4362  0.8785  0.0972
10520SOL    HW238676   7.732   6.087   6.476 -0.4884 -0.6319  0.2113
10521SOL     OW38677   5.373   3.091   9.193  0.3301 -0.2802 -0.4091
10521SOL    HW138678   5.325   3.010   9.179  0.1721 -0.1310 -0.7471
10521SOL    HW238679   5.318   3.159   9.154 -0.4093  0.2418  1.4168
10522SOL     OW38680   8.904   1.904   8.638  0.2368 -0.4285 -0.5774
10522SOL    HW138681   8.970   1.899   8.568  1.6095 -0.4950  0.6692
10522SOL    HW238682   8.890   1.998   8.651  1.4333 -0.3354  0.3088
10523SOL     OW38683   7.858   3.632   1.395 -0.4886  0.0620 -0.2226
10523SOL    HW138684   7.890   3.669   1.477 -0.2534 -1.5755  0.4649
10523SOL    HW238685   7.858   3.537   1.409 -1.6370 -0.2087 -1.6755
10524SOL     OW38686   2.470  11.569   3.153  0.0679  0.0250  0.4914
10524SOL    HW138687   2.533  11.599   3.219  0.2586  0.9594 -0.0972
10524SOL    HW238688   2.523  11.520   3.090 -0.2147 -1.4573  1.3516
10525SOL     OW38689   8.411   7.192  12.635 -0.4352 -0.2853 -0.5368
10525SOL    HW138690   8.373   7.104  12.634 -2.2217  0.4275  0.3039
10525SOL    HW238691   8.506   7.177  12.639 -0.7499 -2.2182  1.7841
10526SOL     OW38692   9.616   0.785   0.182 -0.2884 -0.0754  0.0583
10526SOL    HW138693   9.624   0.757   0.091 -2.6751  0.4378 -0.3603
10526SOL    HW238694   9.620   0.703   0.232 -0.5059 -0.5141 -0.6242
10527SOL     OW38695  12.963   3.231  11.571 -0.0812  0.1462  0.6207
10527SOL    HW138696  12.939   3.237  11.478 -0.9651  0.9833  0.8841
10527SOL    HW238697  13.058   3.221  11.570  0.0574  1.2349 -0.3582
10528SOL     OW38698   1.085   8.362   1.067  0.0085 -0.4142 -0.0585
10528SOL    HW138699   1.036   8.328   1.141  0.6953 -1.8568 -0.2306
10528SOL    HW238700   1.124   8.285   1.026 -0.1099  0.3631 -1.7509
10529SOL     OW38701  10.834  12.714  10.577  0.4317 -0.0220 -0.7015
10529SOL    HW138702  10.892  12.714  10.653 -0.3083  0.2247 -0.1265
10529SOL    HW238703  10.810  12.806  10.565  0.4132 -0.0810 -1.1371
10530SOL     OW38704   1.514  10.904  10.966 -0.2873 -0.3667  0.8445
10530SOL    HW138705   1.576  10.920  10.895  1.1595 -2.6759  1.4699
10530SOL    HW238706   1.567  10.908  11.045 -0.9504 -2.0639  1.4299
10531SOL     OW38707   8.128   3.346   4.666 -0.3892 -0.0144 -0.3920
10531SOL    HW138708   8.207   3.319   4.620  1.1105  1.8364  0.9231
10531SOL    HW238709   8.114   3.437   4.638 -2.2195 -0.3803 -0.7834
10532SOL     OW38710   1.116   7.669  12.567  0.1099  0.6944 -0.2829
10532SOL    HW138711   1.167   7.682  12.487 -4.1297  1.1310 -3.2457
10532SOL    HW238712   1.093   7.757  12.596  0.8896  0.5082  1.0086
10533SOL     OW38713   3.624  11.203   6.046 -0.0548 -0.2938 -0.4844
10533SOL    HW138714   3.704  11.188   5.995  0.6880 -0.1110  0.5874
10533SOL    HW238715   3.653  11.252   6.122 -1.2361 -0.0527 -0.1653
10534SOL     OW38716   1.311   0.103  10.682  0.2937 -0.5860 -0.0710
10534SOL    HW138717   1.312   0.045  10.606  1.8102 -1.6580  0.7246
10534SOL    HW238718   1.322   0.191  10.645  0.2252 -1.0111 -1.1359
10535SOL     OW38719   5.867  10.140   8.494 -0.0907  0.3338  0.3751
10535SOL    HW138720   5.781  10.127   8.534 -0.3985  2.9954  0.7963
10535SOL    HW238721   5.920  10.180   8.563  0.5332  1.5062 -0.7225
10536SOL     OW38722   1.799   5.133  11.981  0.6648 -0.4619  0.3791
10536SOL    HW138723   1.789   5.215  11.933  0.6992 -0.6338  0.0772
10536SOL    HW238724   1.810   5.160  12.073  2.0970 -0.0473  0.1083
10537SOL     OW38725   9.909   8.787   7.557  0.2024  0.5403 -0.1332
10537SOL    HW138726   9.871   8.783   7.469 -0.1977  0.6032  0.0343
10537SOL    HW238727   9.837   8.765   7.615 -0.0925  2.5510  0.3352
10538SOL     OW38728   6.855   4.481   6.594  0.0724  0.2509 -0.3299
10538SOL    HW138729   6.867   4.439   6.680  0.0455 -0.9295 -0.8845
10538SOL    HW238730   6.779   4.435   6.556 -1.4959  2.4068 -0.0022
10539SOL     OW38731   6.609   1.162   8.095 -0.0722 -0.0664  0.1930
10539SOL    HW138732   6.671   1.224   8.134 -0.1077 -0.4247  0.8376
10539SOL    HW238733   6.591   1.100   8.165 -0.0571 -0.7917 -0.4386
10540SOL     OW38734   5.827   9.901  10.077 -0.4801  0.2178 -0.5274
10540SOL    HW138735   5.792   9.880  10.163 -0.8005  2.6522  0.0234
10540SOL    HW238736   5.750   9.918  10.023 -0.2987  2.3531 -0.2118
10541SOL     OW38737  10.627   2.512   3.144 -0.3914 -0.6077  0.0054
10541SOL    HW138738  10.591   2.596   3.115 -0.7336 -0.7156  0.1247
10541SOL    HW238739  10.719   2.531   3.163  0.0413 -0.6623 -1.7934
10542SOL     OW38740  12.033   8.352   0.566  0.4485 -0.1071 -0.3571
10542SOL    HW138741  12.082   8.391   0.494  1.5423 -1.2881 -0.2921
10542SOL    HW238742  12.099   8.337   0.634 -0.3612 -0.0346  0.4692
10543SOL     OW38743   1.965   7.910  11.232 -0.3479  0.5707  0.0643
10543SOL    HW138744   1.911   7.851  11.286  1.8509 -0.5663  1.1735
10543SOL    HW238745   1.998   7.855  11.162  1.0430  0.6616  0.6182
10544SOL     OW38746  10.961   9.497   0.772  0.3379  0.7652  0.1488
10544SOL    HW138747  10.971   9.516   0.865  1.5580  2.5506 -0.2923
10544SOL    HW238748  10.869   9.511   0.754 -0.3430 -1.5009  1.4253
10545SOL     OW38749   3.022   9.601   6.203 -0.3569  0.0044 -0.0284
10545SOL    HW138750   3.082   9.656   6.254  2.1779 -2.6389  0.1448
10545SOL    HW238751   2.990   9.537   6.266 -1.0055 -0.4101 -0.7638
10546SOL     OW38752   5.942   0.407   6.241  0.3334 -0.0468  0.0025
10546SOL    HW138753   5.925   0.363   6.324  0.1998  1.5065  0.8313
10546SOL    HW238754   5.856   0.438   6.211  0.1139 -1.9760 -1.5775
10547SOL     OW38755   0.569   7.626   0.055 -0.6030  0.6003  0.4778
10547SOL    HW138756   0.647   7.586   0.017 -1.1421  1.2959 -1.4898
10547SOL    HW238757   0.527   7.555   0.104  0.0064 -0.4253 -0.4450
10548SOL     OW38758   7.592   2.717   5.399  0.4091  0.4931 -0.3843
10548SOL    HW138759   7.634   2.672   5.472 -2.3003 -2.4646 -0.4239
10548SOL    HW238760   7.567   2.802   5.434  0.9034 -0.1032  1.5117
10549SOL     OW38761   1.151   6.295   8.840  0.3993 -0.4636 -0.4696
10549SOL    HW138762   1.185   6.225   8.784 -1.3307 -1.0588 -0.8447
10549SOL    HW238763   1.131   6.252   8.923  2.6519  0.3543  0.5829
10550SOL     OW38764   6.275   1.470  10.543 -0.2891  0.0163 -0.6576
10550SOL    HW138765   6.269   1.561  10.574 -3.6577 -0.2075 -0.2450
10550SOL    HW238766   6.192   1.455  10.497 -0.1401 -3.0712 -0.1230
10551SOL     OW38767  12.236   0.579   3.484  0.0563  0.4045 -0.4530
10551SOL    HW138768  12.319   0.613   3.518 -0.1177 -0.1184  0.5325
10551SOL    HW238769  12.218   0.632   3.407  2.3106 -0.7533 -1.8819
10552SOL     OW38770   2.865   5.971   6.744  0.1252  0.2484  0.2989
10552SOL    HW138771   2.912   5.984   6.662 -0.0397  0.0879  0.1769
10552SOL    HW238772   2.773   5.965   6.718  0.0318  0.6172  0.5429
10553SOL     OW38773  10.118   6.079   4.649  0.1945 -0.0411  0.0093
10553SOL    HW138774  10.159   6.043   4.570  1.2592  0.1092  0.4650
10553SOL    HW238775  10.040   6.125   4.618 -0.9788 -2.3682 -0.6244
10554SOL     OW38776   5.446   7.524   9.190  0.0583 -0.2596 -0.2733
10554SOL    HW138777   5.390   7.523   9.113  0.9663 -0.9410 -0.9395
10554SOL    HW238778   5.415   7.450   9.243 -1.0054  0.6065  0.3739
10555SOL     OW38779   8.408   3.246   4.575 -1.0105 -0.1014 -0.1325
10555SOL    HW138780   8.367   3.163   4.602  1.4255 -1.9780 -1.7956
10555SOL    HW238781   8.376   3.261   4.486  0.6680 -0.8336 -0.9068
10556SOL     OW38782   3.488   9.263  11.705  0.1440 -0.7571  0.1244
10556SOL    HW138783   3.405   9.281  11.661 -0.7675  0.8418  2.3265
10556SOL    HW238784   3.464   9.218  11.786  1.5626 -1.6496  0.0756
10557SOL     OW38785   4.103  10.062   3.343 -0.3149 -0.1282 -0.1249
10557SOL    HW138786   4.071   9.995   3.404 -0.0981  0.0756  0.2138
10557SOL    HW238787   4.049  10.050   3.265 -1.0591  0.0495  0.3437
10558SOL     OW38788   9.768   0.523   6.746  0.1733  0.5336  0.2570
10558SOL    HW138789   9.712   0.569   6.685 -0.6150 -1.6274 -0.7707
10558SOL    HW238790   9.748   0.430   6.732  0.4145 -0.1173  3.3667
10559SOL     OW38791   3.658   0.553   4.776  0.5317 -0.0976 -0.0747
10559SOL    HW138792   3.625   0.477   4.825  1.6374 -0.9118 -0.5508
10559SOL    HW238793   3.710   0.515   4.705 -0.0070  1.0897 -1.1481
10560SOL     OW38794   1.544  10.790   8.643 -0.2643  0.2089  0.0813
10560SOL    HW138795   1.481  10.733   8.687 -1.0437  1.4456  0.6191
10560SOL    HW238796   1.534  10.874   8.686  1.6933  0.4707  0.0785
10561SOL     OW38797   7.672   4.914   2.558  0.3256 -0.1598 -0.0643
10561SOL    HW138798   7.582   4.914   2.527 -0.6614 -0.0956  2.5679
10561SOL    HW238799   7.722   4.876   2.486 -1.4435  1.6604 -2.4059
10562SOL     OW38800   7.056   2.813   5.361  0.4661  0.4694  0.3610
10562SOL    HW138801   7.082   2.901   5.334  1.6076  0.3009  0.8410
10562SOL    HW238802   7.036   2.821   5.455  1.2638  0.0933  0.5742
10563SOL     OW38803   5.621   0.972   0.419  0.2180 -0.4295 -0.1645
10563SOL    HW138804   5.538   0.945   0.381 -0.3237  1.5308 -0.5237
10563SOL    HW238805   5.597   1.013   0.502  0.6752  1.0960 -0.7480
10564SOL     OW38806  11.608   8.263   0.271 -0.1516 -0.1467 -0.6137
10564SOL    HW138807  11.609   8.224   0.184 -0.6800  1.6038 -1.4541
10564SOL    HW238808  11.515   8.282   0.288  0.0754  0.7001 -0.2500
10565SOL     OW38809   8.312  12.187  11.983  0.8675 -0.1135 -0.3176
10565SOL    HW138810   8.294  12.154  11.894  0.7623 -2.9757  0.6460
10565SOL    HW238811   8.233  12.166  12.032  1.5451 -0.0907  0.8038
10566SOL     OW38812   4.653   3.067   7.034  0.3026 -0.1563  0.4567
10566SOL    HW138813   4.640   3.102   7.123 -0.5925 -0.9003  0.6404
10566SOL    HW238814   4.651   2.972   7.046  1.1690 -0.2663 -0.2372
10567SOL     OW38815   4.970   5.964   3.517  0.2421  0.3724  0.5202
10567SOL    HW138816   5.009   6.043   3.478 -0.1484 -0.4046 -1.5730
10567SOL    HW238817   4.880   5.989   3.537 -0.1506  0.2383 -0.9766
10568SOL     OW38818   7.590  11.879   9.464 -0.7557  0.2366  0.4701
10568SOL    HW138819   7.581  11.838   9.550 -1.2928  0.4991  0.5433
10568SOL    HW238820   7.682  11.867   9.441 -0.7139 -0.2531  0.8711
10569SOL     OW38821   4.366   9.478   3.083 -0.3787  0.6382 -0.0245
10569SOL    HW138822   4.442   9.537   3.074 -0.2918  1.0371  2.5732
10569SOL    HW238823   4.397   9.409   3.142 -1.5675 -0.0894 -0.2364
10570SOL     OW38824   0.843  10.178   4.399 -0.1660 -0.0918  0.2550
10570SOL    HW138825   0.821  10.254   4.453 -0.8039  0.6099 -0.9312
10570SOL    HW238826   0.825  10.103   4.455 -1.2444  0.5937  0.8863
10571SOL     OW38827  12.594   6.768   7.874 -0.2176  0.9681  0.7130
10571SOL    HW138828  12.562   6.678   7.869  0.0420  0.8971  0.3135
10571SOL    HW238829  12.644   6.771   7.956 -0.2025  0.7414  0.7129
10572SOL     OW38830   0.890   2.299   3.898 -0.4655 -0.0441 -0.4233
10572SOL    HW138831   0.891   2.304   3.994  1.9490  2.7554 -0.4662
10572SOL    HW238832   0.871   2.207   3.880  0.0558 -0.9237  2.7730
10573SOL     OW38833  12.269   1.082   7.259  1.2128 -0.0659 -0.1639
10573SOL    HW138834  12.255   1.177   7.262  3.6009  0.3625 -0.1622
10573SOL    HW238835  12.211   1.051   7.189  0.6720  1.4488 -0.4271
10574SOL     OW38836   3.109   8.174   1.027 -0.6925 -0.0792 -0.0700
10574SOL    HW138837   3.204   8.162   1.033 -0.4787  1.4537  0.2610
10574SOL    HW238838   3.099   8.248   0.967 -1.7428 -0.8932 -0.9135
10575SOL     OW38839   3.547  10.782   5.529  0.1058 -0.0323 -0.3723
10575SOL    HW138840   3.470  10.829   5.562  0.9330  0.6039  0.7037
10575SOL    HW238841   3.555  10.811   5.438  1.1552  2.7207  0.5176
10576SOL     OW38842  11.078   0.840  10.387  0.3184  0.2725  0.3993
10576SOL    HW138843  11.028   0.914  10.352 -0.6214 -0.5773 -0.1063
10576SOL    HW238844  11.018   0.799  10.450  0.5326 -0.5097  0.0994
10577SOL     OW38845   2.616   6.360  10.119 -0.2571 -0.5696  0.3205
10577SOL    HW138846   2.568   6.284  10.087 -1.4269  1.2004 -2.4518
10577SOL    HW238847   2.550   6.427  10.133  1.0198  0.8816 -0.2765
10578SOL     OW38848   3.728  10.508   7.456 -0.9156  0.1604  0.1816
10578SOL    HW138849   3.679  10.446   7.402  0.2988 -0.9328  0.2894
10578SOL    HW238850   3.745  10.582   7.398 -2.4290  0.4394  0.0626
10579SOL     OW38851   5.047  11.561   5.190  0.4825  0.7471 -0.7295
10579SOL    HW138852   5.056  11.555   5.285 -0.2494 -0.4953 -0.7134
10579SOL    HW238853   5.135  11.584   5.159  0.9967  0.0519  0.1679
10580SOL     OW38854   3.588   5.014  10.945  0.7951  0.1304 -0.2784
10580SOL    HW138855   3.564   5.054  11.028  1.4735 -0.4884  0.2230
10580SOL    HW238856   3.649   4.944  10.968  2.2447  0.9759 -1.4188
10581SOL     OW38857   7.551   1.758   0.090 -0.1847 -0.2461 -0.2080
10581SOL    HW138858   7.570   1.852   0.090 -0.5844 -0.0798  2.5521
10581SOL    HW238859   7.461   1.751   0.058 -0.5328  0.4375  0.5966
10582SOL     OW38860   4.496   9.403   3.588 -0.6875  0.1543 -0.4093
10582SOL    HW138861   4.591   9.398   3.584 -0.6858 -1.6589  0.7151
10582SOL    HW238862   4.466   9.316   3.562 -1.8460 -0.3752  2.3036
10583SOL     OW38863  11.313   9.127  10.542  0.3685  0.5790  0.2415
10583SOL    HW138864  11.234   9.108  10.594 -0.3037  3.4643  0.4482
10583SOL    HW238865  11.379   9.067  10.577 -1.7860 -2.3954 -0.3532
10584SOL     OW38866   5.966  10.556   9.645  0.4294  0.4753  0.2252
10584SOL    HW138867   5.878  10.518   9.637  0.8740 -0.6635  0.5407
10584SOL    HW238868   6.010  10.500   9.709  1.0308  1.7130  0.9177
10585SOL     OW38869  11.512  10.552   3.097 -0.0380  0.3590 -0.5581
10585SOL    HW138870  11.442  10.582   3.038 -0.6941  2.4957  1.1712
10585SOL    HW238871  11.501  10.605   3.176  0.8329 -2.3111  1.5102
10586SOL     OW38872   8.816   6.773   9.257 -0.0327  0.0978  0.5238
10586SOL    HW138873   8.814   6.684   9.223  1.0543 -0.1768  1.1467
10586SOL    HW238874   8.908   6.799   9.252 -0.4650  1.6065 -0.6770
10587SOL     OW38875   4.982   0.605   4.462  0.0225  0.4708 -0.4583
10587SOL    HW138876   4.899   0.652   4.475 -1.6682 -1.8455 -2.0249
10587SOL    HW238877   5.006   0.576   4.550 -1.6314  0.0301 -0.1040
10588SOL     OW38878   5.865   0.610   2.463 -0.3764  0.3075 -0.2905
10588SOL    HW138879   5.937   0.632   2.403 -1.0903  0.2501 -1.2020
10588SOL    HW238880   5.829   0.694   2.489 -0.1494  0.3303 -0.0526
10589SOL     OW38881   2.821   9.213   8.990  0.1100  0.2986 -0.2214
10589SOL    HW138882   2.752   9.161   9.031  2.2974 -0.8514  2.3533
10589SOL    HW238883   2.880   9.235   9.062  1.6077  2.6319 -2.0112
10590SOL     OW38884   5.253   2.655  11.493 -0.1471 -0.5352  0.2911
10590SOL    HW138885   5.259   2.709  11.572 -1.9905 -0.5572  0.4947
10590SOL    HW238886   5.333   2.602  11.494  0.2399  0.0304  1.7208
10591SOL     OW38887   4.747   3.609   0.538 -1.1204  0.3010  0.1282
10591SOL    HW138888   4.776   3.536   0.482  0.0196  0.4381  0.5278
10591SOL    HW238889   4.706   3.566   0.613 -0.1662  0.0502  0.5188
10592SOL     OW38890   7.662  12.132   9.650  0.4180 -0.4005  0.1119
10592SOL    HW138891   7.566  12.122   9.649  0.0727  2.3332 -0.8601
10592SOL    HW238892   7.684  12.164   9.563  2.2108 -0.6581  0.4331
10593SOL     OW38893   0.075   6.664   5.413 -0.4338 -0.0931 -0.0374
10593SOL    HW138894   0.102   6.735   5.354  2.5771 -1.5690 -0.6565
10593SOL    HW238895   0.152   6.607   5.418 -2.0990 -2.3704  1.8749
10594SOL     OW38896   4.169   9.655   5.618 -0.3702 -0.0309 -0.7900
10594SOL    HW138897   4.183   9.562   5.633 -2.0407 -0.3251 -0.8859
10594SOL    HW238898   4.111   9.682   5.689  0.4727  1.0602 -0.4839
10595SOL     OW38899   6.927   0.719   6.601 -0.3048 -0.1956 -0.0679
10595SOL    HW138900   6.947   0.789   6.539  0.2053 -0.7278 -0.5184
10595SOL    HW238901   7.001   0.659   6.593 -1.7470 -1.9133 -1.3286
10596SOL     OW38902   7.375   0.845   1.698 -0.1628 -0.3103  0.2303
10596SOL    HW138903   7.441   0.863   1.765 -1.2246  2.5888  0.6602
10596SOL    HW238904   7.400   0.760   1.662  2.2208 -0.5601  2.1828
10597SOL     OW38905   5.597  10.573  10.701 -0.0673 -0.4867 -0.0085
10597SOL    HW138906   5.561  10.516  10.634 -0.5545 -0.3501  0.1342
10597SOL    HW238907   5.689  10.582  10.677 -0.1816 -0.6308 -0.5234
10598SOL     OW38908  11.996   5.634   8.327  0.1898  0.7056  0.0085
10598SOL    HW138909  12.069   5.672   8.278  0.1080 -1.3514 -1.9043
10598SOL    HW238910  11.918   5.676   8.291  0.2345  0.2785 -0.6125
10599SOL     OW38911   8.790   5.879  10.904  0.0947 -0.0127  0.2951
10599SOL    HW138912   8.801   5.822  10.980  1.2515 -0.1812  0.0210
10599SOL    HW238913   8.879   5.909  10.883 -0.1849 -0.0378 -1.0398
10600SOL     OW38914   3.300   0.317   2.636  0.5219 -0.3421 -0.3294
10600SOL    HW138915   3.349   0.376   2.579 -1.3233  2.4460  0.7918
10600SOL    HW238916   3.309   0.355   2.723 -2.0823 -0.7859  0.1964
10601SOL     OW38917  12.642  10.364   7.836 -0.3207 -0.6396 -0.1528
10601SOL    HW138918  12.567  10.362   7.777 -1.2739 -1.1423  1.0319
10601SOL    HW238919  12.620  10.430   7.902  0.2225 -0.8682  0.2699
10602SOL     OW38920  11.204   0.472   0.290 -0.2607  0.3957 -0.5930
10602SOL    HW138921  11.115   0.474   0.326  0.5897 -1.8927  1.9920
10602SOL    HW238922  11.251   0.540   0.339  0.0378 -0.3216  0.1539
10603SOL     OW38923   0.599   8.097   6.851 -0.1476  0.0301  0.0261
10603SOL    HW138924   0.686   8.136   6.848 -0.7681  1.5038  0.1285
10603SOL    HW238925   0.542   8.162   6.809 -0.9491 -1.6485 -1.5992
10604SOL     OW38926   9.692  11.435  12.306  0.7197 -0.3614 -0.4620
10604SOL    HW138927   9.731  11.513  12.346 -0.1542  0.8160 -1.7856
10604SOL    HW238928   9.761  11.398  12.252  0.8098  0.1424 -0.6922
10605SOL     OW38929  11.407   9.093  11.041  0.1481  0.3646  0.2628
10605SOL    HW138930  11.475   9.144  11.085 -0.0566  0.0639  0.9535
10605SOL    HW238931  11.450   9.010  11.019 -0.3066 -0.3169  1.8185
10606SOL     OW38932   2.157  10.728   1.839  0.3683  0.2883 -0.1372
10606SOL    HW138933   2.096  10.659   1.811  0.3388 -0.4947  1.7125
10606SOL    HW238934   2.224  10.730   1.771 -0.2586 -0.7560 -0.8112
10607SOL     OW38935   4.703  11.854  11.601  0.3559  0.2662 -1.0868
10607SOL    HW138936   4.729  11.808  11.680 -0.3205  1.2948 -0.2364
10607SOL    HW238937   4.618  11.817  11.578  0.2432  0.4327 -0.9410
10608SOL     OW38938   2.071   8.693   4.350  0.8367 -0.5054 -0.1777
10608SOL    HW138939   2.057   8.612   4.399  0.5429  0.4662  1.4107
10608SOL    HW238940   2.113   8.752   4.412  1.9389  0.2781 -1.5867
10609SOL     OW38941  10.411   5.635   2.363 -0.4597 -0.7067 -0.3440
10609SOL    HW138942  10.343   5.695   2.332 -0.9029 -1.3514 -0.6489
10609SOL    HW238943  10.471   5.627   2.288 -0.1095 -0.2414 -0.1210
10610SOL     OW38944   6.872   2.255   1.150  0.0573 -0.0886 -0.1788
10610SOL    HW138945   6.848   2.198   1.223  4.1917 -2.3469 -0.2882
10610SOL    HW238946   6.843   2.208   1.072 -0.0009 -0.1262 -0.1345
10611SOL     OW38947  10.524  10.674  11.399 -0.1741 -0.3909 -0.5891
10611SOL    HW138948  10.521  10.664  11.495 -0.2913  1.2410 -0.4058
10611SOL    HW238949  10.491  10.762  11.383  0.2675 -0.4861 -2.1204
10612SOL     OW38950   5.080   3.029   7.836  0.3169  0.2547  0.4477
10612SOL    HW138951   5.032   3.023   7.754 -0.3904  0.7501  0.8169
10612SOL    HW238952   5.157   3.083   7.814  0.9353 -0.8680 -0.2347
10613SOL     OW38953  10.607   4.296  10.997  0.0404  0.1576 -1.0181
10613SOL    HW138954  10.600   4.220  10.940 -1.7559  0.7244 -1.6209
10613SOL    HW238955  10.625   4.369  10.938  0.8659  0.3572 -0.5381
10614SOL     OW38956  12.497   7.720   5.889 -0.3016 -0.3152  0.0656
10614SOL    HW138957  12.552   7.713   5.811 -0.1981  0.4014  0.0724
10614SOL    HW238958  12.525   7.646   5.943  1.0210  0.3055  0.2825
10615SOL     OW38959   4.170   1.648  10.337  0.0692  0.2525 -0.2125
10615SOL    HW138960   4.222   1.629  10.415  0.4754 -0.7521 -0.7114
10615SOL    HW238961   4.080   1.652  10.369  0.3031  0.5727  0.4203
10616SOL     OW38962   5.196   1.220   2.940  0.2436  0.2488 -0.3312
10616SOL    HW138963   5.242   1.179   3.013  1.4572  1.6593 -0.2707
10616SOL    HW238964   5.103   1.205   2.959  0.5989 -0.9037  0.5907
10617SOL     OW38965   3.422   3.491   9.137 -0.0056  0.2521 -0.0094
10617SOL    HW138966   3.419   3.461   9.228 -0.1595  0.8148  0.1767
10617SOL    HW238967   3.478   3.428   9.093 -0.2281 -0.2398  0.3963
10618SOL     OW38968   6.986   3.701   0.921  0.0951 -0.4032 -0.0972
10618SOL    HW138969   7.020   3.649   0.848 -0.1103  1.3880 -1.5481
10618SOL    HW238970   6.899   3.728   0.891 -0.4053 -0.4586  1.2672
10619SOL     OW38971  12.479   6.280  10.036 -0.3417 -0.2830 -0.0093
10619SOL    HW138972  12.423   6.234  10.098 -0.2027  0.2183  0.4949
10619SOL    HW238973  12.557   6.303  10.086  0.3878 -1.1052 -0.7457
10620SOL     OW38974   9.634   1.323   6.859  0.0935 -0.2615  0.2400
10620SOL    HW138975   9.709   1.295   6.806  0.4247  1.4649 -0.3000
10620SOL    HW238976   9.579   1.371   6.797 -0.6333 -0.1252  0.9839
10621SOL     OW38977  11.596   3.279   9.971  0.1259 -0.0433  0.1784
10621SOL    HW138978  11.568   3.348  10.030  2.5329  2.0103 -0.8867
10621SOL    HW238979  11.617   3.205  10.028 -2.2435  0.1168  1.3660
10622SOL     OW38980  10.825   8.296  12.048 -0.1318  0.0914  0.2188
10622SOL    HW138981  10.831   8.312  12.142  1.5982 -1.1931  0.3784
10622SOL    HW238982  10.905   8.248  12.027 -0.0308  1.1556 -2.1020
10623SOL     OW38983  11.701   5.042   8.348 -1.0623  0.3246 -0.6509
10623SOL    HW138984  11.692   5.082   8.435 -0.2485 -1.4811  0.3259
10623SOL    HW238985  11.795   5.040   8.331 -1.0582 -1.1010 -0.6426
10624SOL     OW38986   1.939  11.645   3.856 -0.4219  0.1073 -0.5390
10624SOL    HW138987   1.849  11.629   3.826 -0.8194  0.2099  0.5650
10624SOL    HW238988   1.982  11.560   3.847 -1.2737 -0.5255  1.0512
10625SOL     OW38989  11.348  10.920   7.403 -0.4441  0.2715  0.4714
10625SOL    HW138990  11.426  10.949   7.356 -0.1234  0.1066  0.9002
10625SOL    HW238991  11.280  10.982   7.375  0.1252  1.1730  1.0207
10626SOL     OW38992   0.318  10.012   6.356  0.2124  0.3003  0.0167
10626SOL    HW138993   0.225  10.009   6.381  0.2724  1.4016  0.4496
10626SOL    HW238994   0.362  10.049   6.433  0.5690  2.7207 -1.2398
10627SOL     OW38995   2.326  12.826   1.706 -0.6733 -0.0705  0.1961
10627SOL    HW138996   2.374  12.905   1.731  1.5730 -1.2567 -0.1387
10627SOL    HW238997   2.393  12.760   1.692 -2.4153 -1.7949 -0.5531
10628SOL     OW38998   3.197   7.553   2.954  0.0055  0.2195 -0.1310
10628SOL    HW138999   3.116   7.532   3.000 -0.8253 -0.5844 -1.8871
10628SOL    HW239000   3.262   7.565   3.024 -0.7382 -2.7562  1.2257
10629SOL     OW39001   1.105   9.714  12.619  0.3535  0.1002 -0.5540
10629SOL    HW139002   1.198   9.738  12.608 -0.1094  2.1294 -0.4689
10629SOL    HW239003   1.070   9.781  12.678 -1.1830 -0.6271 -0.5969
10630SOL     OW39004   5.142   8.111   9.035 -0.0653 -0.1032 -0.2319
10630SOL    HW139005   5.122   8.128   9.127 -1.2256  1.3735 -0.7367
10630SOL    HW239006   5.064   8.067   9.001  0.4386 -0.8256 -0.4736
10631SOL     OW39007  10.962   9.686   9.731  0.1162  0.2649 -0.0056
10631SOL    HW139008  10.969   9.594   9.756  2.3022  0.2179 -0.5087
10631SOL    HW239009  10.915   9.685   9.647 -0.5825 -0.3010  0.3876
10632SOL     OW39010  12.327  12.738   7.705 -0.0742 -0.0306  0.2108
10632SOL    HW139011  12.249  12.784   7.735  0.7350  0.6313  1.3668
10632SOL    HW239012  12.311  12.646   7.728 -0.1269  0.2423  1.3048
10633SOL     OW39013   0.518   9.976  12.704  0.0557  0.0928 -0.4076
10633SOL    HW139014   0.512   9.936  12.791 -0.1306 -0.3100 -0.6002
10633SOL    HW239015   0.547  10.066  12.720 -0.9893  0.3396  0.1466
10634SOL     OW39016   0.662   1.760   9.567  0.2120 -0.1232 -0.2157
10634SOL    HW139017   0.645   1.851   9.540  0.0382  0.0812  0.5532
10634SOL    HW239018   0.708   1.768   9.651  0.5109 -0.7464 -0.3126
10635SOL     OW39019   7.615  10.993   1.377  0.8005  0.1237  0.3153
10635SOL    HW139020   7.680  10.934   1.338 -0.7297 -0.1970 -1.9513
10635SOL    HW239021   7.658  11.078   1.380  1.2009  0.0252 -1.5963
10636SOL     OW39022  12.644   3.608   0.939  0.9610 -0.4092 -0.1752
10636SOL    HW139023  12.710   3.540   0.953 -0.4299 -1.4829  1.6340
10636SOL    HW239024  12.574   3.563   0.892 -0.0614 -0.3402  1.2260
10637SOL     OW39025   0.113  12.329  11.157 -0.1145  0.0859  0.1697
10637SOL    HW139026   0.170  12.404  11.140  1.6341 -0.6115  2.4675
10637SOL    HW239027   0.025  12.361  11.136  0.4958  2.9716  1.4514
10638SOL     OW39028  11.103  10.760   1.156  0.4593 -0.0065 -0.4493
10638SOL    HW139029  11.057  10.784   1.236  1.1859  0.0625 -0.0464
10638SOL    HW239030  11.034  10.728   1.097 -0.2310  1.0175 -0.2194
10639SOL     OW39031  10.165   5.217   1.935 -0.6386 -0.5094 -0.2394
10639SOL    HW139032  10.073   5.240   1.949  0.1004  1.1481  2.8048
10639SOL    HW239033  10.168   5.122   1.946 -2.0844 -0.7020 -1.2710
10640SOL     OW39034   9.054   4.882  11.348  0.0812  0.0189  0.0616
10640SOL    HW139035   9.138   4.928  11.340 -0.0246  0.0883 -0.7664
10640SOL    HW239036   9.001   4.937  11.406 -0.0640  0.9859 -0.9491
10641SOL     OW39037   9.537   6.694  11.115 -0.1492  0.1283  0.0642
10641SOL    HW139038   9.555   6.672  11.207 -1.4524  0.4988  0.4351
10641SOL    HW239039   9.569   6.783  11.105 -1.2584  0.6016  0.5717
10642SOL     OW39040   2.423   8.820   9.350  0.2772  0.2368  0.0330
10642SOL    HW139041   2.345   8.766   9.334 -0.0685  1.4552 -3.0725
10642SOL    HW239042   2.470   8.821   9.266  2.0152  2.0185  0.9364
10643SOL     OW39043   5.536   9.573   2.849  0.0263  0.1582 -0.0190
10643SOL    HW139044   5.442   9.557   2.855 -0.3612  2.3136  0.4966
10643SOL    HW239045   5.554   9.579   2.756 -0.4325  0.1126 -0.1122
10644SOL     OW39046   2.058   2.438  10.036  0.7992 -0.8901  0.2752
10644SOL    HW139047   2.122   2.392   9.981 -0.1685  0.3152 -2.0014
10644SOL    HW239048   2.022   2.370  10.092  1.6048 -2.2877 -0.8285
10645SOL     OW39049  10.967  10.901  10.197  0.3495  0.1364  0.6873
10645SOL    HW139050  10.882  10.895  10.240 -0.3994  1.2178 -0.5727
10645SOL    HW239051  10.974  10.821  10.146  0.4099 -0.2856  1.3567
10646SOL     OW39052   0.257   7.962   3.078  0.3737 -0.6996 -0.1777
10646SOL    HW139053   0.306   7.921   3.149  0.3075 -0.0607  0.2455
10646SOL    HW239054   0.324   7.991   3.016  0.5981  0.7923  0.7308
10647SOL     OW39055   7.757   4.022   0.601  0.0553 -0.4673  0.1304
10647SOL    HW139056   7.760   4.045   0.694 -2.2118 -1.1747  0.4532
10647SOL    HW239057   7.834   3.969   0.586  0.9761  0.4657  1.3529
10648SOL     OW39058   2.240   4.844   4.880  0.2284 -0.0188 -0.2466
10648SOL    HW139059   2.330   4.837   4.849  1.7271  1.5982  3.2202
10648SOL    HW239060   2.201   4.910   4.822  1.2384 -0.6491 -1.7287
10649SOL     OW39061   6.330  10.571   2.172 -0.1923 -0.0566 -0.4670
10649SOL    HW139062   6.371  10.540   2.252 -0.3103  0.2332 -0.2905
10649SOL    HW239063   6.359  10.662   2.163 -2.3716  0.8462  0.7724
10650SOL     OW39064   6.924   2.315   0.304  0.0556 -0.0574 -0.2950
10650SOL    HW139065   6.875   2.386   0.345  0.9281 -0.0019  0.7035
10650SOL    HW239066   6.857   2.254   0.274 -0.6579  0.5135  0.1050
10651SOL     OW39067  11.185  10.451  12.472  0.0609 -0.0668  0.2938
10651SOL    HW139068  11.265  10.487  12.511 -0.0311 -0.3841  0.7833
10651SOL    HW239069  11.192  10.472  12.379  0.7234 -0.0997  0.3300
10652SOL     OW39070   9.452  11.833   0.965  0.0765  0.3524 -0.1290
10652SOL    HW139071   9.386  11.901   0.950  0.2973  0.7562  0.6757
10652SOL    HW239072   9.504  11.833   0.885 -0.1245  0.9109 -0.2664
10653SOL     OW39073  11.460   3.438  12.624 -0.5734 -0.0586  0.2094
10653SOL    HW139074  11.468   3.486  12.707 -0.3186 -0.0520  0.1818
10653SOL    HW239075  11.375   3.464  12.589 -0.4173  0.4067  0.1721
10654SOL     OW39076  11.120   0.004  12.221 -0.1469  0.0756 -0.3805
10654SOL    HW139077  11.091  -0.070  12.167 -0.8061 -0.3368  0.5323
10654SOL    HW239078  11.107  -0.025  12.311  0.2108  1.0612 -0.0004
10655SOL     OW39079   0.744   7.501  12.355  0.6927 -0.2777 -0.1258
10655SOL    HW139080   0.728   7.592  12.379  0.5210 -0.4857  0.5880
10655SOL    HW239081   0.818   7.474  12.409  0.2701 -0.7725  0.2264
10656SOL     OW39082   2.944   6.829   1.908  0.0857 -1.1331 -0.1697
10656SOL    HW139083   2.896   6.868   1.835 -1.0606 -0.5002  0.8839
10656SOL    HW239084   3.011   6.775   1.866  1.1134  1.1843 -1.6777
10657SOL     OW39085   0.237  10.049   8.156  0.4284 -0.0147  0.0874
10657SOL    HW139086   0.166  10.083   8.211 -0.0847 -0.9351  0.0219
10657SOL    HW239087   0.242  10.109   8.082 -0.5036 -0.1182 -0.0674
10658SOL     OW39088   1.219   5.919   7.546  0.1154  0.0750 -0.1974
10658SOL    HW139089   1.231   5.977   7.471  2.0359  1.8834  1.3652
10658SOL    HW239090   1.133   5.943   7.581  0.4788  1.3581 -0.1284
10659SOL     OW39091   2.129   1.469   7.002  0.6513 -0.1616 -0.0197
10659SOL    HW139092   2.191   1.504   7.065  0.2517  0.5040  0.0133
10659SOL    HW239093   2.066   1.540   6.988  0.8443 -0.2153 -1.3196
10660SOL     OW39094  12.144   8.618   8.498  0.2650  0.5377  0.9385
10660SOL    HW139095  12.105   8.702   8.522  0.9004  0.4311  2.5280
10660SOL    HW239096  12.192   8.591   8.577  2.1930 -0.1027 -0.3641
10661SOL     OW39097   1.063   6.431   1.874  0.1055  0.2238 -0.5787
10661SOL    HW139098   1.034   6.340   1.881  0.1424  0.2391 -0.2512
10661SOL    HW239099   1.021   6.462   1.793  2.1401 -0.8350 -2.1365
10662SOL     OW39100   2.018   4.761   4.091  0.0722  0.3361  0.4730
10662SOL    HW139101   2.094   4.715   4.057  0.3902  1.2591 -0.0972
10662SOL    HW239102   1.943   4.711   4.058  0.3992 -1.3410  2.1106
10663SOL     OW39103  10.949   3.349   8.003 -0.7705  0.4776  0.2479
10663SOL    HW139104  10.894   3.379   7.931 -2.4896 -0.8095  0.9719
10663SOL    HW239105  10.917   3.397   8.080 -1.3401 -0.7254  0.7897
10664SOL     OW39106   0.513  12.220   1.723  0.6174 -0.2068 -0.1767
10664SOL    HW139107   0.570  12.281   1.770 -0.3081  0.3232  0.2899
10664SOL    HW239108   0.572  12.151   1.692  1.5876  0.6116 -0.1935
10665SOL     OW39109   1.863  11.193   5.018  0.0154  0.1941 -0.0497
10665SOL    HW139110   1.866  11.151   4.932  0.4116  2.5113 -1.2464
10665SOL    HW239111   1.909  11.276   5.006 -2.9033  2.2022  1.4639
10666SOL     OW39112  11.175   4.871   8.417 -0.3458  0.3099  0.1247
10666SOL    HW139113  11.263   4.863   8.454 -0.2546 -1.2293 -0.3720
10666SOL    HW239114  11.158   4.965   8.419  0.8602  0.5450  1.2473
10667SOL     OW39115   2.779   2.353  12.309 -0.3065  0.0719 -0.3925
10667SOL    HW139116   2.744   2.283  12.363 -0.6206  0.6032  0.1064
10667SOL    HW239117   2.714   2.366  12.240  0.5043 -1.2046 -1.4548
10668SOL     OW39118   1.958   6.212   4.809  0.2040 -0.5570 -0.7411
10668SOL    HW139119   1.895   6.274   4.846 -0.2431 -0.9756 -0.7856
10668SOL    HW239120   1.906   6.134   4.789  0.6120 -0.6640 -1.4124
10669SOL     OW39121  12.687  11.939   9.510 -0.4119  0.1447  0.6044
10669SOL    HW139122  12.623  11.900   9.451 -0.2551 -0.2724  0.7101
10669SOL    HW239123  12.637  12.002   9.561 -0.4925  0.7406 -0.1832
10670SOL     OW39124   6.642   6.941   0.795 -0.5855 -0.1203  0.1488
10670SOL    HW139125   6.585   6.999   0.845 -0.7484 -0.5632  0.4805
10670SOL    HW239126   6.673   6.995   0.723  1.0784  1.0851  1.6871
10671SOL     OW39127   1.795  11.398  10.739 -0.1313  0.2878  0.1124
10671SOL    HW139128   1.791  11.303  10.735  2.4672  0.1326 -0.0424
10671SOL    HW239129   1.752  11.427  10.658  0.3535 -0.8053 -0.5560
10672SOL     OW39130   0.956  10.561   0.998  0.2336 -0.2105 -0.3223
10672SOL    HW139131   0.892  10.490   0.998 -0.7700  0.5943  2.1081
10672SOL    HW239132   0.988  10.565   1.088  0.4344  2.2159 -0.4252
10673SOL     OW39133   5.968  10.923  12.054 -0.4545 -0.0640 -0.5102
10673SOL    HW139134   5.888  10.896  12.008 -0.2602 -1.8791  0.1149
10673SOL    HW239135   5.939  10.945  12.143 -0.1967 -1.5212 -0.0368
10674SOL     OW39136   4.940   3.839   5.655 -0.0396 -0.3836  0.0841
10674SOL    HW139137   4.999   3.842   5.580 -0.4418 -0.5708 -0.2386
10674SOL    HW239138   4.908   3.749   5.657 -1.2855  0.0193 -0.4932
10675SOL     OW39139   0.208   2.167   2.094 -0.4983  0.4979 -0.5930
10675SOL    HW139140   0.227   2.121   2.175 -0.7215 -0.8498 -1.2818
10675SOL    HW239141   0.196   2.098   2.029 -0.7253  1.5338 -1.6907
10676SOL     OW39142   2.638  10.885  11.607  0.1708  0.1854  0.0145
10676SOL    HW139143   2.596  10.886  11.693  1.7437  0.2368  0.8174
10676SOL    HW239144   2.702  10.956  11.611 -0.3060  0.7486 -1.5193
10677SOL     OW39145   7.593   6.998   6.476  0.1964 -0.4829 -0.1518
10677SOL    HW139146   7.600   6.951   6.560  1.3789  2.0797  1.3040
10677SOL    HW239147   7.507   7.040   6.480  0.6021  0.3451  0.2293
10678SOL     OW39148  11.348   7.725   8.238 -0.5106 -0.4840  0.0286
10678SOL    HW139149  11.318   7.750   8.151 -0.9077 -1.1120 -0.0141
10678SOL    HW239150  11.365   7.809   8.282  1.9152 -0.1358 -1.3890
10679SOL     OW39151   6.908   4.971   9.638 -0.0749  0.1256  0.4301
10679SOL    HW139152   6.866   5.057   9.626 -0.7922 -0.0199  1.6520
10679SOL    HW239153   6.847   4.909   9.600 -0.4017  0.0234  1.0961
10680SOL     OW39154  11.412   7.144   6.901 -0.8521 -0.1064  0.2490
10680SOL    HW139155  11.414   7.239   6.890  3.1362 -0.0360  0.1042
10680SOL    HW239156  11.409   7.109   6.812  1.2699  0.0205  0.0808
10681SOL     OW39157   2.650  12.436   0.262 -0.1123 -0.3119  0.0187
10681SOL    HW139158   2.714  12.414   0.330  0.6320  0.1243 -0.5265
10681SOL    HW239159   2.652  12.361   0.202  0.6044  0.1156 -0.5094
10682SOL     OW39160   6.605   9.760   9.213  0.2215 -0.0969  0.5785
10682SOL    HW139161   6.648   9.846   9.204 -0.7642  0.3253 -0.2564
10682SOL    HW239162   6.667   9.698   9.176  0.6970  0.3242  0.6557
10683SOL     OW39163   6.944   8.187  12.813  0.3141  0.2110 -0.0764
10683SOL    HW139164   6.973   8.193  12.904 -0.3335  2.1289  0.0449
10683SOL    HW239165   7.006   8.241  12.764 -1.5496  2.4899 -0.1332
10684SOL     OW39166   7.945   3.913   6.431  0.1574  0.1090 -0.3078
10684SOL    HW139167   8.018   3.851   6.425  0.0464 -0.0486 -0.0517
10684SOL    HW239168   7.923   3.916   6.524 -1.3015 -1.1947 -0.5690
10685SOL     OW39169  10.630   0.829   8.862  0.1726 -0.2464  0.1740
10685SOL    HW139170  10.687   0.898   8.896  0.0534 -0.5617  1.0521
10685SOL    HW239171  10.640   0.757   8.925 -1.7511 -0.0383  0.7862
10686SOL     OW39172   5.082   5.905  11.319  0.2107 -0.1436 -0.2625
10686SOL    HW139173   5.136   5.828  11.303 -0.1012 -0.5540  0.6081
10686SOL    HW239174   5.124   5.950  11.392  0.0158  0.1478 -0.3249
10687SOL     OW39175   7.586   0.564   3.514  0.2495 -0.3734  0.6409
10687SOL    HW139176   7.519   0.618   3.555 -0.1893 -0.1184 -0.3772
10687SOL    HW239177   7.545   0.478   3.502  0.7914 -0.8285  1.8293
10688SOL     OW39178   7.475   7.381   1.055  0.2001  0.4665  0.7894
10688SOL    HW139179   7.529   7.437   0.999 -0.9829  0.8705  0.0169
10688SOL    HW239180   7.414   7.441   1.097 -0.8874 -0.1767  0.1847
10689SOL     OW39181  10.959   3.859  11.334 -0.2952 -0.7029  0.3086
10689SOL    HW139182  11.022   3.885  11.401  0.0557 -1.9226  0.4769
10689SOL    HW239183  10.873   3.881  11.372 -0.0123  1.5518 -0.1786
10690SOL     OW39184  10.596   6.600   1.602 -0.4271  0.6745  0.1260
10690SOL    HW139185  10.512   6.642   1.581 -1.1459 -0.5831  0.3761
10690SOL    HW239186  10.661   6.652   1.554 -1.1508  2.5733  1.0828
10691SOL     OW39187  11.956   7.736   1.515  0.7030 -0.1122 -0.2317
10691SOL    HW139188  11.879   7.786   1.487 -0.4417  0.3773  3.2743
10691SOL    HW239189  11.929   7.645   1.508 -0.4475  0.0591  1.3450
10692SOL     OW39190  12.238   6.550   3.465 -0.0939 -0.2764 -0.3739
10692SOL    HW139191  12.276   6.487   3.404  0.3732 -2.5074  2.0908
10692SOL    HW239192  12.191   6.612   3.408  2.7536 -0.4275 -3.1799
10693SOL     OW39193  11.076   9.542   9.404 -0.2041 -0.1309 -0.7355
10693SOL    HW139194  11.016   9.474   9.436  0.7410 -2.6201 -3.7713
10693SOL    HW239195  11.026   9.586   9.336  0.1737  0.3003 -0.7323
10694SOL     OW39196  10.862   0.988   7.304  0.7467  0.0938 -0.8791
10694SOL    HW139197  10.946   0.976   7.348  0.7101  0.3354 -0.7444
10694SOL    HW239198  10.883   1.034   7.223  0.8665 -0.6921 -1.3126
10695SOL     OW39199   2.932   3.537   1.512  0.3357  0.1028 -0.2999
10695SOL    HW139200   2.967   3.620   1.543  1.1244 -1.0193  2.0685
10695SOL    HW239201   2.931   3.545   1.417  1.9586  2.2090 -0.2017
10696SOL     OW39202   6.687   2.931   0.100  0.3142  0.5321  0.5895
10696SOL    HW139203   6.710   2.877   0.025  0.5772  0.8905  0.4091
10696SOL    HW239204   6.656   2.869   0.166  0.2756  0.1979  0.2571
10697SOL     OW39205   2.542   6.136  11.059  0.2974  0.0276  0.2878
10697SOL    HW139206   2.467   6.195  11.065 -1.2316 -1.6435 -1.1667
10697SOL    HW239207   2.544   6.090  11.143 -0.4696 -0.0827  0.2531
10698SOL     OW39208  10.205   1.156  12.776  0.0531  0.4551 -0.4756
10698SOL    HW139209  10.271   1.087  12.777 -1.8928 -1.5567 -1.8343
10698SOL    HW239210  10.154   1.142  12.856 -0.1509  0.4991 -0.5957
10699SOL     OW39211   6.784   2.099   7.872  0.1061  0.0031 -0.4262
10699SOL    HW139212   6.842   2.051   7.931 -2.1472 -1.1135  0.9937
10699SOL    HW239213   6.730   2.032   7.831 -1.1130  1.0878 -0.6748
10700SOL     OW39214   6.428   9.127   1.711 -0.3007 -0.0956  0.5221
10700SOL    HW139215   6.478   9.067   1.656 -0.7142 -0.4036  0.4813
10700SOL    HW239216   6.397   9.195   1.651 -1.9795 -1.1986  0.0755
10701SOL     OW39217   4.588   0.189   7.455  0.2317  0.3684  0.2648
10701SOL    HW139218   4.499   0.181   7.492  0.6271  1.0429  1.4029
10701SOL    HW239219   4.586   0.133   7.377 -0.7832 -0.7636  1.0504
10702SOL     OW39220  10.888  10.002   0.460  0.2670 -0.0659 -0.6144
10702SOL    HW139221  10.798  10.031   0.477  0.4476  1.4905 -2.0313
10702SOL    HW239222  10.938  10.034   0.535 -0.2830 -0.5060 -0.0592
10703SOL     OW39223   3.422   2.740   2.387 -0.0483  0.0036 -0.4121
10703SOL    HW139224   3.500   2.778   2.348  0.3404  2.2523  2.2267
10703SOL    HW239225   3.455   2.667   2.441  0.3649  1.1991  1.0153
10704SOL     OW39226  11.455   0.302  12.737 -0.0723 -0.6401  0.2266
10704SOL    HW139227  11.550   0.304  12.729  0.0224  0.6302  1.3390
10704SOL    HW239228  11.433   0.381  12.786 -1.3544 -2.7080  3.2926
10705SOL     OW39229   1.154   5.673   7.464  0.2312  0.3861 -0.3509
10705SOL    HW139230   1.137   5.695   7.372  2.5574 -1.4556 -1.3321
10705SOL    HW239231   1.190   5.753   7.501 -2.8423  1.9021 -0.2808
10706SOL     OW39232  11.114   5.423   1.485  0.1710  0.1654 -0.0943
10706SOL    HW139233  11.025   5.390   1.486 -0.1444  0.8563 -1.7829
10706SOL    HW239234  11.104   5.518   1.478  1.0505  0.3299  0.6610
10707SOL     OW39235   7.448  12.143   9.074 -0.1802 -0.3404 -0.4569
10707SOL    HW139236   7.498  12.122   8.995  0.1060 -2.5244  0.2493
10707SOL    HW239237   7.489  12.092   9.144 -1.5379  0.1386  0.7545
10708SOL     OW39238   5.114   4.620   7.758  0.0094  0.6593  0.2055
10708SOL    HW139239   5.066   4.538   7.770  0.6423  0.3627  0.8116
10708SOL    HW239240   5.046   4.686   7.745 -0.7393  0.6530  3.3349
10709SOL     OW39241   4.456   0.777   6.641  0.2379 -0.5384  0.0071
10709SOL    HW139242   4.516   0.742   6.575 -0.9008 -0.9285 -0.8511
10709SOL    HW239243   4.447   0.869   6.620  2.9400  0.3207  2.0391
10710SOL     OW39244  10.699   6.019   4.912 -0.3568  0.0570 -0.0342
10710SOL    HW139245  10.716   6.103   4.871 -1.6882 -0.3026 -1.4290
10710SOL    HW239246  10.609   6.027   4.945  0.1872 -0.1671  1.5701
10711SOL     OW39247   3.729   7.887   1.702 -0.0974 -0.0352 -0.1545
10711SOL    HW139248   3.678   7.844   1.634 -1.4807  0.4507  0.5445
10711SOL    HW239249   3.743   7.820   1.768  1.0351 -0.4377 -0.7702
10712SOL     OW39250   7.239   0.457  10.705  0.0281 -0.1551 -0.4704
10712SOL    HW139251   7.332   0.475  10.688  0.2916 -0.5994  0.4529
10712SOL    HW239252   7.233   0.362  10.706 -0.2121 -0.1373  0.6058
10713SOL     OW39253  12.285  10.941  10.784  0.2583 -0.3441  0.2561
10713SOL    HW139254  12.219  10.888  10.829  0.9837 -1.4744  0.0375
10713SOL    HW239255  12.347  10.964  10.854  0.3525 -0.4490  0.2083
10714SOL     OW39256   8.505  12.609   4.936  0.5867  0.2936  0.6586
10714SOL    HW139257   8.571  12.603   4.867 -0.2326 -2.3568 -0.0093
10714SOL    HW239258   8.550  12.585   5.016  0.9599  0.8885  0.6336
10715SOL     OW39259   5.648   4.953   6.108 -0.0449 -0.1163 -0.2806
10715SOL    HW139260   5.675   4.973   6.018 -0.6745 -1.0264 -0.6789
10715SOL    HW239261   5.729   4.927   6.152  0.4373  1.2777 -0.3015
10716SOL     OW39262   5.716   7.838   5.843  0.9834  0.1413  0.2867
10716SOL    HW139263   5.644   7.778   5.864 -0.0770  1.2215 -0.1743
10716SOL    HW239264   5.747   7.868   5.929  0.9277 -0.3732  0.4919
10717SOL     OW39265   0.899   0.503   4.220 -0.4675  0.1666  0.6974
10717SOL    HW139266   0.961   0.467   4.283 -0.4732 -0.1902  0.5057
10717SOL    HW239267   0.910   0.598   4.226  1.3024  0.1063 -0.5019
10718SOL     OW39268   2.968   7.966   4.793 -0.3437 -0.1084 -0.5170
10718SOL    HW139269   2.992   7.899   4.729 -0.1234 -0.1713 -0.3684
10718SOL    HW239270   2.888   7.932   4.834 -1.2079  0.5033 -1.6212
10719SOL     OW39271  12.919   2.537  12.472 -0.0747  0.5502  0.2518
10719SOL    HW139272  12.945   2.461  12.523 -0.3583 -0.4249 -0.9791
10719SOL    HW239273  12.827   2.519  12.449  0.2860  0.5340 -1.2680
10720SOL     OW39274   6.878  10.393   3.166 -0.4662 -0.0587  0.3485
10720SOL    HW139275   6.832  10.439   3.096  0.2317 -0.7351 -0.5702
10720SOL    HW239276   6.923  10.321   3.122  0.7206  0.0393  1.3690
10721SOL     OW39277   0.717   3.291   6.617 -0.0456 -0.1947 -0.2638
10721SOL    HW139278   0.703   3.352   6.545 -2.6917  0.1779  0.4681
10721SOL    HW239279   0.658   3.321   6.686 -1.7388 -3.7115  0.0343
10722SOL     OW39280   5.750  11.961   5.077  0.4092  0.2158 -0.2473
10722SOL    HW139281   5.805  12.037   5.058 -0.4376  0.5404 -1.5050
10722SOL    HW239282   5.674  11.998   5.121 -0.3305  0.2139 -1.4815
10723SOL     OW39283   5.685  10.895  12.014  0.0852  0.0411 -0.5926
10723SOL    HW139284   5.668  10.988  12.029 -0.8759  0.1629 -2.2511
10723SOL    HW239285   5.626  10.850  12.075 -0.3067  0.5108 -0.6170
10724SOL     OW39286   9.085   5.092   1.195 -0.1411 -0.0507  0.1960
10724SOL    HW139287   9.159   5.032   1.194 -0.6847 -0.7728  1.4417
10724SOL    HW239288   9.040   5.075   1.112  0.0515 -0.9428  0.2633
10725SOL     OW39289   2.451   2.408  10.242 -0.1518 -0.1336 -0.2773
10725SOL    HW139290   2.439   2.331  10.297  2.3890 -0.0775  0.4404
10725SOL    HW239291   2.367   2.455  10.248 -0.3226 -0.6571  2.7243
10726SOL     OW39292  11.974   6.748   3.116  0.4755 -0.7262 -0.2355
10726SOL    HW139293  11.887   6.786   3.125  0.7198 -0.6771  2.9176
10726SOL    HW239294  12.012   6.792   3.040 -1.9134 -0.1682 -1.1902
10727SOL     OW39295   3.217   1.784   1.211 -0.1126 -0.8204 -0.1087
10727SOL    HW139296   3.194   1.793   1.303  0.5498 -2.8862  0.3217
10727SOL    HW239297   3.200   1.870   1.173 -0.7306 -0.0208  1.8527
10728SOL     OW39298  11.037   8.151  10.993 -0.3629  0.0091 -0.5145
10728SOL    HW139299  10.976   8.152  11.067  1.0948  0.0089  0.7254
10728SOL    HW239300  11.040   8.242  10.963  0.1435  0.3068  0.3890
10729SOL     OW39301   7.410   9.405  12.241 -0.0398 -0.9719 -0.0010
10729SOL    HW139302   7.392   9.321  12.285  0.2630 -0.6348  0.7950
10729SOL    HW239303   7.392   9.471  12.308 -1.5549 -0.3078 -1.0035
10730SOL     OW39304   4.965   2.223   1.572 -0.3845 -0.4105  0.2171
10730SOL    HW139305   4.926   2.303   1.538  1.1822 -0.3034 -1.4721
10730SOL    HW239306   5.035   2.253   1.631 -0.9652 -0.5780  1.0107
10731SOL     OW39307   4.195   8.033   8.005  0.4474 -0.2071 -0.5129
10731SOL    HW139308   4.237   8.028   8.091  0.6769 -1.2653 -0.6723
10731SOL    HW239309   4.190   7.943   7.976  1.6483  0.2516 -2.2396
10732SOL     OW39310   4.020  10.582   8.290  0.1075 -0.0013 -0.2150
10732SOL    HW139311   4.086  10.513   8.284 -0.8460 -0.8489 -1.5836
10732SOL    HW239312   4.002  10.590   8.384  1.3678 -0.4907  0.0893
10733SOL     OW39313   4.778   8.092   0.564  0.3181  0.1544  0.1458
10733SOL    HW139314   4.760   7.998   0.552  1.8581 -0.2495  0.7080
10733SOL    HW239315   4.729   8.116   0.643 -2.0578  0.4690 -1.3291
10734SOL     OW39316   9.504  11.577   2.673  0.1380  0.6244 -0.1094
10734SOL    HW139317   9.570  11.517   2.639 -0.1824 -0.2723  0.7893
10734SOL    HW239318   9.527  11.589   2.765 -0.6534  0.6830  0.0927
10735SOL     OW39319   2.770   9.434   6.088  0.8342  0.4395 -0.1754
10735SOL    HW139320   2.799   9.524   6.070  2.6795  0.1129  0.9301
10735SOL    HW239321   2.733   9.438   6.176  0.3277  0.2108 -0.3704
10736SOL     OW39322   0.958   7.852   1.715  0.7648  0.9336  0.0406
10736SOL    HW139323   1.042   7.837   1.672  0.3593  0.9385 -0.7732
10736SOL    HW239324   0.957   7.946   1.733  0.3317  1.2042 -1.2794
10737SOL     OW39325  10.484   2.070   2.469 -0.4018 -0.9505 -0.0787
10737SOL    HW139326  10.525   2.087   2.553 -1.0616  0.2419  0.0259
10737SOL    HW239327  10.409   2.014   2.489  1.3591 -3.5540 -0.3305
10738SOL     OW39328   4.936   3.357   4.471 -0.1881 -0.3887  0.1305
10738SOL    HW139329   5.000   3.393   4.533  1.2949 -1.0678 -0.9501
10738SOL    HW239330   4.879   3.303   4.525 -0.3106  0.7878  1.2333
10739SOL     OW39331   8.864  10.402   1.590  0.5553  0.8253  0.1989
10739SOL    HW139332   8.875  10.308   1.575  0.7062  0.9289 -0.3849
10739SOL    HW239333   8.771  10.412   1.613  0.1987  0.6808 -1.0780
10740SOL     OW39334   2.403   2.799   4.326  0.2416  0.4230  0.7289
10740SOL    HW139335   2.325   2.762   4.369  0.7012 -0.5951  0.7177
10740SOL    HW239336   2.368   2.867   4.269 -0.8202 -0.8926 -0.2806
10741SOL     OW39337  10.104   8.661   9.507  0.3234 -0.2657 -0.3833
10741SOL    HW139338  10.101   8.596   9.578 -1.9921 -1.1365 -1.1800
10741SOL    HW239339  10.152   8.735   9.544  0.4143 -1.2572  1.6127
10742SOL     OW39340  11.270   0.015   6.643 -0.0331  0.5511  0.8468
10742SOL    HW139341  11.246  -0.077   6.644 -0.9706  0.7828  1.6441
10742SOL    HW239342  11.298   0.032   6.553  0.4640 -0.5749  0.7701
10743SOL     OW39343  10.611   7.633   8.844 -0.1140 -0.5930  0.0386
10743SOL    HW139344  10.614   7.546   8.804  0.6722  0.0583 -1.3903
10743SOL    HW239345  10.609   7.693   8.770  0.6141  0.6571  1.0004
10744SOL     OW39346  12.727   9.546   0.428 -0.3876  0.2387 -0.4218
10744SOL    HW139347  12.711   9.463   0.384  0.9352 -0.2512 -0.0341
10744SOL    HW239348  12.811   9.534   0.473 -0.4670  1.5751  0.1470
10745SOL     OW39349   3.369   3.552  12.087  0.3950 -0.3201 -0.7605
10745SOL    HW139350   3.328   3.556  12.000  0.8227 -1.9720 -1.0825
10745SOL    HW239351   3.462   3.539  12.069  0.6121  0.2067 -0.0467
10746SOL     OW39352   0.041   6.987   3.149  0.2370  0.3449  0.3979
10746SOL    HW139353  -0.033   7.002   3.092 -0.8579 -1.2853  1.3078
10746SOL    HW239354   0.006   6.995   3.238  0.9131 -1.3114  0.8557
10747SOL     OW39355  12.735   5.093   6.466  1.0197  0.0899  0.0162
10747SOL    HW139356  12.706   5.068   6.378  0.6973 -2.5796  0.7982
10747SOL    HW239357  12.693   5.178   6.481 -2.0606 -1.0968 -0.9918
10748SOL     OW39358   6.654  11.033   1.649 -0.0246 -0.5368  0.1387
10748SOL    HW139359   6.685  10.945   1.673 -3.0033 -2.6897 -2.9652
10748SOL    HW239360   6.730  11.073   1.607  1.2847 -1.7532  1.1965
10749SOL     OW39361  12.049  10.369  11.377 -0.7687  0.2793 -0.0990
10749SOL    HW139362  12.066  10.390  11.285  0.0210  0.8095  0.1625
10749SOL    HW239363  12.134  10.378  11.421 -1.3936  1.4418  0.9479
10750SOL     OW39364   6.860   7.763   9.494  0.4473  0.9685 -0.0934
10750SOL    HW139365   6.848   7.676   9.457  0.9983  1.1750 -0.7825
10750SOL    HW239366   6.774   7.787   9.528 -0.7855  1.7035 -3.3645
10751SOL     OW39367   9.073   0.017   2.623  0.0156  0.0691 -0.0079
10751SOL    HW139368   9.068   0.092   2.683 -0.3120 -0.0566  0.1205
10751SOL    HW239369   9.036   0.050   2.541 -2.0919 -0.5422  0.6316
10752SOL     OW39370   7.619   5.133  11.590  0.0597 -0.0026  0.4597
10752SOL    HW139371   7.613   5.162  11.500  1.2745  1.6092  0.8567
10752SOL    HW239372   7.568   5.197  11.640  0.4239 -0.1735  1.0610
10753SOL     OW39373   3.490   5.437   0.725 -0.3317 -0.0685 -0.1014
10753SOL    HW139374   3.397   5.427   0.707 -0.5839 -1.9941  1.8748
10753SOL    HW239375   3.520   5.349   0.748  1.8747  0.5878 -0.1765
10754SOL     OW39376   1.413   4.915   3.692 -0.2819  0.2789 -0.6155
10754SOL    HW139377   1.428   4.822   3.707 -1.1915  0.5644  3.1333
10754SOL    HW239378   1.500   4.951   3.674 -0.1417 -1.4335 -4.2194
10755SOL     OW39379   8.594   5.163   2.739  0.1218  0.2163 -0.0062
10755SOL    HW139380   8.567   5.249   2.770  0.1592  0.6942 -1.2494
10755SOL    HW239381   8.600   5.172   2.644  0.9846 -0.9183 -0.0834
10756SOL     OW39382  11.575   1.436  11.584  0.1506  0.2844 -0.5205
10756SOL    HW139383  11.522   1.498  11.635  1.1899 -0.7618  2.0401
10756SOL    HW239384  11.659   1.432  11.631  0.2894 -2.6903 -0.8165
10757SOL     OW39385   9.852   2.618  11.770 -0.7693 -0.0339 -0.3469
10757SOL    HW139386   9.758   2.626  11.751 -0.5933  1.5777 -0.6691
10757SOL    HW239387   9.894   2.674  11.705  0.4772 -1.2030 -0.5850
10758SOL     OW39388   7.986  11.788   4.438  0.1989  0.5965  0.4461
10758SOL    HW139389   8.004  11.742   4.356  1.0096 -0.2975  1.1027
10758SOL    HW239390   7.894  11.767   4.457 -1.4876  4.2954 -2.3556
10759SOL     OW39391   6.094  11.618   9.970 -0.7127  0.3294 -0.6049
10759SOL    HW139392   6.003  11.588   9.969 -0.4078 -0.7934  1.2537
10759SOL    HW239393   6.146  11.537   9.970  0.2419  0.9276  0.0599
10760SOL     OW39394   2.493   4.273   5.117  0.5452  0.3363 -0.2080
10760SOL    HW139395   2.513   4.189   5.159  1.6585  0.7093  0.0527
10760SOL    HW239396   2.540   4.338   5.170 -0.9990  1.2424  0.1150
10761SOL     OW39397   4.906  12.445   5.107  0.1144 -0.3794 -1.0543
10761SOL    HW139398   4.946  12.373   5.058 -1.2792 -1.3716 -0.7671
10761SOL    HW239399   4.848  12.403   5.170 -0.0213  0.9679 -0.2339
10762SOL     OW39400   0.921   9.178   2.138  0.0642  0.5297  0.4664
10762SOL    HW139401   0.979   9.102   2.137  3.7919  3.0896  0.3617
10762SOL    HW239402   0.907   9.195   2.232  0.5613  0.6456  0.5199
10763SOL     OW39403   4.834  11.839   2.058  0.1672  0.3341  0.3953
10763SOL    HW139404   4.854  11.771   1.993 -1.2982 -1.8708  2.0883
10763SOL    HW239405   4.859  11.800   2.142 -0.1479  2.1565  1.3917
10764SOL     OW39406   4.794   3.996   8.851 -0.3623 -0.0529  0.1073
10764SOL    HW139407   4.740   4.022   8.926  0.5081  0.0027  0.7284
10764SOL    HW239408   4.865   3.945   8.890 -0.1692 -0.4398 -0.7382
10765SOL     OW39409   2.495  12.946  11.640  0.4238  0.6319  0.2312
10765SOL    HW139410   2.569  12.905  11.686  1.8008  2.2514 -0.4173
10765SOL    HW239411   2.521  12.944  11.548 -0.4998  0.9692 -0.0447
10766SOL     OW39412   0.694   0.911   6.379 -0.1210  0.2545  0.5812
10766SOL    HW139413   0.787   0.936   6.373  0.2166 -0.8926  0.8233
10766SOL    HW239414   0.692   0.844   6.447 -0.8326 -1.0752 -0.6947
10767SOL     OW39415   6.922   2.638   7.539  0.3711 -0.0340 -0.2230
10767SOL    HW139416   6.927   2.599   7.626 -0.0479 -1.0217 -0.6209
10767SOL    HW239417   7.007   2.620   7.500  0.6888  0.7332  0.1101
10768SOL     OW39418   1.480   7.793   8.739 -0.2979  0.3119 -0.0163
10768SOL    HW139419   1.560   7.747   8.765  1.0961  2.2467 -0.6127
10768SOL    HW239420   1.471   7.774   8.646  0.0388  0.8556 -0.1667
10769SOL     OW39421   1.616   0.992   2.646  0.2882 -0.3084 -0.6637
10769SOL    HW139422   1.677   0.937   2.597 -0.8411 -1.6545 -0.6556
10769SOL    HW239423   1.565   1.038   2.579  0.3512 -0.3049 -0.7084
10770SOL     OW39424   7.336   1.924   7.484 -0.2353  0.1284 -0.5873
10770SOL    HW139425   7.276   1.995   7.508 -2.0601 -1.5964  0.2604
10770SOL    HW239426   7.328   1.916   7.389 -0.7595  0.4181 -0.5693
10771SOL     OW39427  12.314   9.637   1.946 -0.3310  0.2834  0.4147
10771SOL    HW139428  12.302   9.585   1.867  1.3608  0.4569 -0.0009
10771SOL    HW239429  12.235   9.690   1.953 -0.9034 -0.4022 -0.6441
10772SOL     OW39430   5.652   7.658   2.437 -0.5856  0.2466  0.0976
10772SOL    HW139431   5.735   7.627   2.473 -0.1135  0.2446 -0.9473
10772SOL    HW239432   5.585   7.620   2.494  0.0940 -0.4707  0.4407
10773SOL     OW39433   3.417   9.599   1.726  0.0489  0.7163  0.7259
10773SOL    HW139434   3.385   9.685   1.699 -1.3179  0.2719  0.8695
10773SOL    HW239435   3.403   9.544   1.649 -0.1269  0.3733  1.0029
10774SOL     OW39436   6.503   0.234   5.929  0.4717 -1.3292 -0.1452
10774SOL    HW139437   6.596   0.229   5.908  0.8596 -1.1239  1.3973
10774SOL    HW239438   6.492   0.319   5.970 -0.3480 -1.4683 -0.0542
10775SOL     OW39439   4.409   3.807   2.476  0.4350  0.0604  0.6849
10775SOL    HW139440   4.443   3.744   2.413  1.2116  0.5067  0.6561
10775SOL    HW239441   4.363   3.753   2.541  1.1671 -0.5419  0.7102
10776SOL     OW39442  12.459   0.419   3.997  0.0224  0.0140  0.2702
10776SOL    HW139443  12.377   0.467   3.984 -0.3154  0.0101  2.1713
10776SOL    HW239444  12.508   0.435   3.916 -1.2798  1.1436 -0.3517
10777SOL     OW39445   0.339   4.782   4.805 -0.1303  0.0777 -0.0310
10777SOL    HW139446   0.357   4.695   4.843  0.0704  0.0137 -0.2727
10777SOL    HW239447   0.295   4.829   4.875 -0.7251 -0.3996 -0.0750
10778SOL     OW39448   7.910   4.407   7.108 -0.3899 -0.1520 -0.4227
10778SOL    HW139449   7.979   4.448   7.160  0.5335 -0.5291 -1.3334
10778SOL    HW239450   7.912   4.452   7.024 -1.9650  0.5462 -0.1280
10779SOL     OW39451   9.497  10.974   8.478 -0.0927 -0.1332 -0.8785
10779SOL    HW139452   9.452  11.012   8.402 -0.1846  0.1056 -0.7046
10779SOL    HW239453   9.484  10.879   8.468  1.3311 -0.2467 -2.0808
10780SOL     OW39454   3.632   7.457   5.036  0.7324  0.2236 -0.4177
10780SOL    HW139455   3.694   7.431   4.968  0.0157 -1.6944 -0.3851
10780SOL    HW239456   3.547   7.455   4.993  0.0711 -2.5469  0.8439
10781SOL     OW39457   9.808   5.614   5.193 -0.0941 -0.2196  0.0786
10781SOL    HW139458   9.815   5.595   5.099 -0.6498 -0.6833  0.1261
10781SOL    HW239459   9.727   5.570   5.220  0.5358 -0.8488  0.9669
10782SOL     OW39460  11.968   2.814   3.923  0.2987  0.2960  0.0061
10782SOL    HW139461  12.019   2.741   3.886  1.2635  0.5280  0.8307
10782SOL    HW239462  11.967   2.880   3.854  1.1118  0.2767 -0.0375
10783SOL     OW39463   0.823  12.113   8.310 -0.0520  0.5695 -0.5333
10783SOL    HW139464   0.915  12.121   8.334 -0.0662  0.4136 -0.4203
10783SOL    HW239465   0.807  12.184   8.249  0.2760  0.2825 -0.9602
10784SOL     OW39466  11.241   1.715   3.341 -0.2182 -0.1696  0.2124
10784SOL    HW139467  11.168   1.654   3.350 -0.1770 -0.0364  1.6507
10784SOL    HW239468  11.205   1.800   3.367 -0.0172  0.2444 -0.8333
10785SOL     OW39469  11.790   0.106   6.401  0.7090 -0.4747  0.5424
10785SOL    HW139470  11.819   0.192   6.431  0.9163 -0.2006 -0.4084
10785SOL    HW239471  11.836   0.093   6.318  1.9776 -2.2319  1.4630
10786SOL     OW39472   7.863   9.807   7.111  0.1791  0.0504 -0.2492
10786SOL    HW139473   7.794   9.742   7.097 -1.7355  2.0824 -0.8561
10786SOL    HW239474   7.897   9.789   7.198 -0.0649 -1.9057 -0.5211
10787SOL     OW39475  12.663   5.899   0.347  0.4102  0.7016 -0.0704
10787SOL    HW139476  12.732   5.852   0.300  2.3268  0.3526  2.7664
10787SOL    HW239477  12.711   5.958   0.406 -1.4923 -0.8995  3.4222
10788SOL     OW39478   7.296   3.797   4.348  0.4062  0.3340 -0.3885
10788SOL    HW139479   7.291   3.884   4.387 -1.8809 -0.4078  1.1470
10788SOL    HW239480   7.319   3.739   4.420  0.5260 -0.5145 -1.0890
10789SOL     OW39481   9.442   6.012   5.395 -0.3602 -0.0668 -0.1335
10789SOL    HW139482   9.399   5.934   5.430 -0.5271 -1.0938 -2.3863
10789SOL    HW239483   9.375   6.081   5.399 -0.6112 -0.3563  0.7798
10790SOL     OW39484   9.877  12.139   6.751 -0.2127  0.3118  0.1720
10790SOL    HW139485   9.902  12.228   6.777 -1.8345  0.3974  1.5351
10790SOL    HW239486   9.813  12.151   6.681  0.9344  0.1393 -0.9585
10791SOL     OW39487   0.608   2.647   7.838  0.0524  0.1830 -0.1677
10791SOL    HW139488   0.679   2.591   7.805 -0.9070  0.2862 -2.6298
10791SOL    HW239489   0.653   2.724   7.873  1.2785 -1.1216  1.2812
10792SOL     OW39490  12.326   2.686   5.616 -0.3147 -0.5413  0.4820
10792SOL    HW139491  12.265   2.759   5.605  0.6166  0.2534  0.4399
10792SOL    HW239492  12.285   2.613   5.571 -0.4211  0.4559 -1.1065
10793SOL     OW39493   5.595   1.375   3.293  0.2046 -0.1166  0.5270
10793SOL    HW139494   5.580   1.440   3.363  0.9293 -1.0410  1.5746
10793SOL    HW239495   5.621   1.296   3.340  0.3984 -0.8533 -0.7995
10794SOL     OW39496   0.457   9.975   2.839  0.4491  0.0004  0.2331
10794SOL    HW139497   0.428  10.018   2.920  0.3579 -0.3884  0.4083
10794SOL    HW239498   0.407   9.893   2.837  0.2804  0.1132 -0.3344
10795SOL     OW39499  11.617   7.360  12.073 -0.4145 -0.1497  0.4606
10795SOL    HW139500  11.707   7.368  12.104 -0.6167  1.6092  0.7322
10795SOL    HW239501  11.599   7.267  12.075  0.4334 -0.3565  3.2113
10796SOL     OW39502   4.799   9.389   7.043  0.6066 -0.3243 -0.3530
10796SOL    HW139503   4.799   9.428   7.130 -0.5622  1.3566 -1.0651
10796SOL    HW239504   4.781   9.462   6.984  3.3593 -0.9955 -2.2273
10797SOL     OW39505   0.587   5.381  11.566  0.0952 -0.2655  0.2743
10797SOL    HW139506   0.569   5.357  11.657 -0.2504 -1.5888 -0.1244
10797SOL    HW239507   0.656   5.320  11.538 -0.2690 -0.3185 -0.5460
10798SOL     OW39508   7.969   1.967   2.483  0.1432  0.0537  0.7328
10798SOL    HW139509   7.956   2.058   2.459 -2.8374 -0.1280  1.2487
10798SOL    HW239510   7.973   1.920   2.400  0.8394  0.5385  0.4828
10799SOL     OW39511   5.701   0.961   4.015 -0.3281  0.2057 -0.2330
10799SOL    HW139512   5.745   1.002   4.090  0.8799  0.4051 -1.0209
10799SOL    HW239513   5.623   0.921   4.052 -0.3648  1.2930  0.9390
10800SOL     OW39514   4.381  10.724   8.457  0.6642 -0.1853 -0.2053
10800SOL    HW139515   4.357  10.636   8.429 -0.0999  0.2413 -0.9286
10800SOL    HW239516   4.376  10.777   8.378 -0.1030  0.7517  0.4506
10801SOL     OW39517   7.300  11.037  10.007 -0.4493 -0.1727 -0.5157
10801SOL    HW139518   7.245  11.032  10.085  0.7337  1.3233  0.4588
10801SOL    HW239519   7.310  11.131   9.990  1.9330 -0.3588 -0.5156
10802SOL     OW39520   8.090  12.537  12.899 -0.4472  0.3928 -0.6070
10802SOL    HW139521   8.140  12.456  12.886 -2.0511 -0.3508 -2.8533
10802SOL    HW239522   8.140  12.604  12.853 -1.1864 -0.2424 -2.4102
10803SOL     OW39523  10.573   1.488   6.225 -0.1450  0.1162  0.1888
10803SOL    HW139524  10.523   1.417   6.267  0.5004  0.4009  1.5132
10803SOL    HW239525  10.536   1.495   6.137  0.2925 -2.3984 -0.2745
10804SOL     OW39526  10.864   7.877  11.893  1.0129 -0.5083  0.2518
10804SOL    HW139527  10.940   7.836  11.851  1.3443  1.5198 -1.2744
10804SOL    HW239528  10.899   7.924  11.968  0.3781 -4.4284  3.3655
10805SOL     OW39529   6.474   4.584   5.921  0.1406 -0.1952  0.0319
10805SOL    HW139530   6.539   4.622   5.980  0.6074  1.0585 -1.2399
10805SOL    HW239531   6.438   4.659   5.874 -1.2447 -1.0240 -0.2668
10806SOL     OW39532   8.698   6.866   7.383 -0.6163 -0.2518  0.2668
10806SOL    HW139533   8.664   6.805   7.449  0.2030 -0.2359  0.7217
10806SOL    HW239534   8.793   6.853   7.385 -0.5793 -0.3032 -0.9739
10807SOL     OW39535   5.901  12.129   0.338  0.0055  0.1255  0.0525
10807SOL    HW139536   5.858  12.214   0.336  0.2421  0.2356 -1.8879
10807SOL    HW239537   5.892  12.095   0.249  1.6379 -1.0036  0.2790
10808SOL     OW39538   1.464   0.627   7.598 -0.0041  0.0601 -0.2557
10808SOL    HW139539   1.463   0.571   7.676  0.0668  0.1886 -0.1632
10808SOL    HW239540   1.531   0.588   7.542  1.7160  1.3761  0.7810
10809SOL     OW39541   6.813   8.468   8.904  0.5272 -0.8640 -0.5775
10809SOL    HW139542   6.720   8.486   8.918  0.1470 -2.0267 -1.4700
10809SOL    HW239543   6.855   8.497   8.985 -0.7854 -1.5589  0.3877
10810SOL     OW39544   1.707   7.300  10.521 -0.1454 -0.1257  0.2260
10810SOL    HW139545   1.642   7.232  10.503  0.1294 -0.3937  0.2364
10810SOL    HW239546   1.656   7.382  10.524 -0.5244 -0.3648  0.5154
10811SOL     OW39547   4.305   9.634   5.923  0.1835 -0.0227 -0.0152
10811SOL    HW139548   4.277   9.609   6.011  0.4515  0.2534  0.1493
10811SOL    HW239549   4.225   9.666   5.881 -0.1322 -0.9537 -0.1670
10812SOL     OW39550   1.145   0.003   6.789  0.1804  0.1999  0.9082
10812SOL    HW139551   1.198   0.077   6.762  0.0405  0.9244  2.4814
10812SOL    HW239552   1.158  -0.002   6.884 -2.2188  0.1327  1.2851
10813SOL     OW39553   8.176  10.355   6.304 -0.3675  0.5826  0.4438
10813SOL    HW139554   8.176  10.335   6.210 -2.9122  0.4475  0.4213
10813SOL    HW239555   8.148  10.273   6.346  0.3557  0.7638  1.3105
10814SOL     OW39556  12.253   2.822  11.269 -0.0135  0.0277  0.8910
10814SOL    HW139557  12.285   2.741  11.229 -0.0750 -0.7701  2.3810
10814SOL    HW239558  12.158   2.810  11.274 -0.0594  0.3492  0.7879
10815SOL     OW39559   5.614   9.205   2.073  0.4823 -0.1495  0.1177
10815SOL    HW139560   5.673   9.182   2.002  0.6624  1.4616 -0.2897
10815SOL    HW239561   5.527   9.184   2.040  0.6627 -0.6395 -0.0592
10816SOL     OW39562   5.963   9.395   5.152 -0.2078  0.3583 -0.1586
10816SOL    HW139563   6.056   9.378   5.164 -0.0467  1.8697  1.0210
10816SOL    HW239564   5.921   9.351   5.225 -0.1178  2.0042  0.9234
10817SOL     OW39565   8.257   0.206   1.055  0.1675  0.1077 -0.4134
10817SOL    HW139566   8.288   0.244   0.973 -1.2669  1.0103 -0.5721
10817SOL    HW239567   8.188   0.145   1.028  0.5152 -0.5013  0.0473
10818SOL     OW39568   5.939   5.361  10.339  0.2463  0.1719  0.4984
10818SOL    HW139569   5.954   5.420  10.265  0.6813  1.5996  1.6915
10818SOL    HW239570   5.929   5.419  10.415 -0.4060 -1.2472  1.5369
10819SOL     OW39571   8.238   4.995   9.444  0.0301 -0.0671  0.3607
10819SOL    HW139572   8.198   4.943   9.514 -0.0530 -0.3075  0.1345
10819SOL    HW239573   8.332   4.983   9.456 -0.0010 -1.0860 -0.2999
10820SOL     OW39574  11.031  10.016   2.505 -0.3011 -0.1051  0.3382
10820SOL    HW139575  10.985  10.096   2.529  0.3095  1.3262 -2.7854
10820SOL    HW239576  10.974   9.974   2.440 -0.2811 -1.8943  1.4098
10821SOL     OW39577   5.292   2.287   1.592 -0.2111 -0.3937 -0.1474
10821SOL    HW139578   5.274   2.379   1.571  0.4866 -0.5468 -1.5427
10821SOL    HW239579   5.376   2.289   1.637 -1.3218 -0.1476  2.0432
10822SOL     OW39580  12.120  12.123   3.711  0.3849 -0.2504  0.0659
10822SOL    HW139581  12.112  12.216   3.694  0.9988 -0.1055  0.5255
10822SOL    HW239582  12.194  12.095   3.655  2.5007  0.2497  2.4339
10823SOL     OW39583   9.827   3.802   6.579 -0.0686  0.2498  0.2990
10823SOL    HW139584   9.752   3.750   6.606 -0.1180  0.5138  0.6825
10823SOL    HW239585   9.902   3.762   6.624  0.2151 -0.7562 -1.0265
10824SOL     OW39586   0.243   4.333   0.197  0.0798 -0.0784 -0.7364
10824SOL    HW139587   0.335   4.355   0.212 -0.5365  1.0275  1.9709
10824SOL    HW239588   0.224   4.264   0.261 -1.1086  0.0674 -0.9148
10825SOL     OW39589   3.403  10.050   7.801  0.2373  0.7585  0.1749
10825SOL    HW139590   3.433  10.076   7.714 -0.5216 -0.9842 -0.6731
10825SOL    HW239591   3.447   9.967   7.818 -1.4207 -0.1219  0.3803
10826SOL     OW39592  10.032   1.894   0.385  0.2409  0.8325  0.1433
10826SOL    HW139593   9.973   1.820   0.398  0.4688  0.8236  1.2288
10826SOL    HW239594  10.074   1.877   0.300 -0.8174  0.5034 -0.3260
10827SOL     OW39595   0.650  10.689   9.975  0.0905 -0.0700 -0.1316
10827SOL    HW139596   0.590  10.615   9.972  1.3369 -1.1583  0.5873
10827SOL    HW239597   0.699  10.677  10.056 -0.6815  2.3927  0.8176
10828SOL     OW39598   9.646   3.499   2.818 -0.3605 -0.1847 -0.1772
10828SOL    HW139599   9.568   3.519   2.870  0.1243  0.7847  0.2083
10828SOL    HW239600   9.720   3.517   2.877  0.2138  1.2049 -1.2448
10829SOL     OW39601  12.357   0.794   9.853  0.2623  0.2176 -0.2232
10829SOL    HW139602  12.267   0.826   9.858  0.7619  1.6875 -0.1672
10829SOL    HW239603  12.349   0.699   9.859 -1.3620  0.2554 -1.2401
10830SOL     OW39604   8.357   2.238   6.432  0.2710  0.2158 -0.6586
10830SOL    HW139605   8.435   2.209   6.480  0.3711  1.6545  0.0998
10830SOL    HW239606   8.385   2.315   6.384 -0.4567  0.1971 -1.1339
10831SOL     OW39607   1.431   8.397   1.242 -0.3265 -0.1402  0.0132
10831SOL    HW139608   1.506   8.454   1.255 -0.3233 -0.2494  0.4921
10831SOL    HW239609   1.460   8.335   1.176  0.0772 -0.3047  0.3379
10832SOL     OW39610   9.132   2.504   4.711 -0.4391  0.0462  0.1441
10832SOL    HW139611   9.063   2.547   4.661  0.9225 -0.1547 -2.0036
10832SOL    HW239612   9.212   2.524   4.663  1.2569  1.3597  3.2353
10833SOL     OW39613   9.141   0.013   0.069  0.0261  0.4897  0.2741
10833SOL    HW139614   9.110  -0.029  -0.011 -0.1166  0.6715  0.2347
10833SOL    HW239615   9.090   0.094   0.075  0.5745  0.8408  0.1550
10834SOL     OW39616   7.879   3.522   3.502 -0.1001  0.0240 -0.1712
10834SOL    HW139617   7.896   3.471   3.581  0.8749 -0.2927 -0.5703
10834SOL    HW239618   7.784   3.524   3.495 -0.1953 -0.1204  0.8924
10835SOL     OW39619   1.809   6.202   5.973  0.4369  0.1345  0.0067
10835SOL    HW139620   1.796   6.112   6.004  0.4177  0.3883  0.7467
10835SOL    HW239621   1.904   6.212   5.969  0.4430  0.2028  0.2947
10836SOL     OW39622   4.418   3.738  10.255 -0.1549 -0.0775  0.5917
10836SOL    HW139623   4.430   3.730  10.349  1.0394  0.8599  0.5491
10836SOL    HW239624   4.390   3.651  10.226 -1.3912 -0.1443  1.9074
10837SOL     OW39625   6.729   0.177  12.094  0.0448  0.6626 -0.1776
10837SOL    HW139626   6.701   0.171  12.003 -1.7983  1.8987  0.2678
10837SOL    HW239627   6.736   0.086  12.123 -1.1305  0.2787 -1.0375
10838SOL     OW39628  10.840  11.897  11.919  0.1504 -0.0267  0.1848
10838SOL    HW139629  10.919  11.951  11.921 -0.2842  0.6266  0.0318
10838SOL    HW239630  10.822  11.886  11.826  0.5598 -0.9429  0.1942
10839SOL     OW39631   6.034   1.662   3.774 -0.1211  0.5518 -0.0633
10839SOL    HW139632   6.010   1.712   3.696  2.1222  0.0912 -1.1425
10839SOL    HW239633   5.964   1.679   3.837 -1.2365  2.1305 -1.6536
10840SOL     OW39634   4.991   9.901   0.603 -0.1676 -0.1157 -0.1019
10840SOL    HW139635   4.937   9.980   0.594  1.7440  1.2342 -0.2715
10840SOL    HW239636   5.024   9.905   0.693 -1.2344 -1.5724  0.3966
10841SOL     OW39637   8.137   2.722   4.742 -0.0034  0.5242 -0.2503
10841SOL    HW139638   8.055   2.766   4.768 -0.0148  1.1007 -1.1959
10841SOL    HW239639   8.125   2.632   4.770 -0.8905  0.6430 -0.1896
10842SOL     OW39640  10.370   5.667   8.717 -0.0848 -0.1111  0.4542
10842SOL    HW139641  10.444   5.652   8.658  1.7316  0.0745  2.5556
10842SOL    HW239642  10.338   5.579   8.736  0.3383 -0.2821  0.4023
10843SOL     OW39643   3.882   9.068   0.502  0.1205 -0.1483 -0.4080
10843SOL    HW139644   3.929   9.127   0.443 -0.5957 -0.3500 -1.2038
10843SOL    HW239645   3.790   9.096   0.496  0.0524 -0.0207  0.8038
10844SOL     OW39646   7.460   1.190   0.496  0.1486 -0.1635 -0.5804
10844SOL    HW139647   7.449   1.239   0.578 -0.9801  0.1061 -0.8789
10844SOL    HW239648   7.407   1.238   0.432 -0.5879 -1.4679 -0.9897
10845SOL     OW39649   6.488   3.361   0.822  0.0998 -0.3281  0.2346
10845SOL    HW139650   6.527   3.276   0.803 -1.9078 -1.8307  2.2174
10845SOL    HW239651   6.482   3.364   0.918 -0.8386  1.5712  0.1728
10846SOL     OW39652   2.161   8.615   3.193 -0.3658 -0.1068  0.0486
10846SOL    HW139653   2.198   8.655   3.272 -0.3239 -1.2741  0.6474
10846SOL    HW239654   2.077   8.579   3.222  0.5428 -2.3436  0.1274
10847SOL     OW39655   8.572  11.394   7.946  0.5898 -0.2351 -0.6180
10847SOL    HW139656   8.619  11.469   7.980 -0.1387  0.1450 -0.4233
10847SOL    HW239657   8.515  11.429   7.878 -0.7562 -0.3699  0.4021
10848SOL     OW39658  11.021   5.049   2.206  0.2920  0.2084 -0.3185
10848SOL    HW139659  10.986   5.136   2.185 -0.2969  0.3608  1.2044
10848SOL    HW239660  11.056   5.058   2.294  0.5009 -1.0388 -0.2594
10849SOL     OW39661  12.784   1.435   9.656 -0.7097  0.1108 -0.3501
10849SOL    HW139662  12.708   1.467   9.705 -0.2133  0.6328  0.1055
10849SOL    HW239663  12.747   1.394   9.578 -1.4443  0.5609 -0.2524
10850SOL     OW39664   9.407   2.455  11.748 -0.8231  0.2646 -0.3200
10850SOL    HW139665   9.376   2.473  11.837  2.6350 -0.2627  1.1649
10850SOL    HW239666   9.461   2.531  11.725 -0.4159 -0.3059 -1.3214
10851SOL     OW39667   1.139   9.080  12.506 -0.4287  0.1892  0.1407
10851SOL    HW139668   1.073   9.079  12.575 -0.4142  0.6467  0.1601
10851SOL    HW239669   1.131   9.166  12.466 -0.1700  0.0688 -0.1737
10852SOL     OW39670   7.872  10.904  10.768 -0.0330 -1.0495  0.2220
10852SOL    HW139671   7.872  10.818  10.809  0.3795 -1.7846 -1.2525
10852SOL    HW239672   7.963  10.934  10.774  0.5432 -2.1004 -1.9095
10853SOL     OW39673   0.876   1.226   0.196 -0.4433  0.0385 -0.5647
10853SOL    HW139674   0.853   1.165   0.266  2.6206  0.5685  1.0858
10853SOL    HW239675   0.955   1.189   0.157  0.5876  2.1145 -0.5837
10854SOL     OW39676   5.987   4.053   0.313  0.3411 -0.2268 -0.3514
10854SOL    HW139677   5.930   4.121   0.277 -0.3513  1.5421  3.5095
10854SOL    HW239678   5.942   3.971   0.293 -1.1625  0.7985 -1.3964
10855SOL     OW39679   9.548   1.003   5.822  0.1290 -0.3085 -0.6087
10855SOL    HW139680   9.539   1.096   5.843  0.1115 -0.1160 -1.4632
10855SOL    HW239681   9.632   0.995   5.779  0.0786 -0.6760 -0.6440
10856SOL     OW39682   1.930   1.250   0.697  0.5035 -0.2177  0.3683
10856SOL    HW139683   2.010   1.279   0.740  0.4740  0.6092 -0.0970
10856SOL    HW239684   1.860   1.266   0.761  0.7520 -1.3762  0.9491
10857SOL     OW39685   9.056  12.082   0.400  0.7045 -0.1722  0.2348
10857SOL    HW139686   8.996  12.155   0.418  0.2535 -0.8341  1.5219
10857SOL    HW239687   9.000  12.005   0.398  1.2657 -0.5751 -0.5254
10858SOL     OW39688  11.547   7.636   9.377 -0.1280 -0.3524  0.0606
10858SOL    HW139689  11.540   7.620   9.283  1.8946 -0.4115 -0.1220
10858SOL    HW239690  11.634   7.603   9.401 -0.0759  0.8246  1.6981
10859SOL     OW39691   6.787   1.666  12.156 -0.3458  0.4541 -0.4223
10859SOL    HW139692   6.778   1.726  12.230  0.6684  1.5229 -1.1375
10859SOL    HW239693   6.701   1.667  12.114 -0.8342  0.0811  0.5449
10860SOL     OW39694   5.391   2.613  10.075  0.0223 -0.9465  0.2881
10860SOL    HW139695   5.445   2.691  10.067  0.1878 -0.7536  2.5950
10860SOL    HW239696   5.314   2.642  10.123 -0.3947 -1.9912  0.2893
10861SOL     OW39697   8.936  12.212   5.007  0.1584 -0.0175 -0.1468
10861SOL    HW139698   8.914  12.305   4.997  1.1060  0.2188 -0.1871
10861SOL    HW239699   9.031  12.212   5.021 -0.1220 -0.8141  2.1187
10862SOL     OW39700   2.551   0.226   7.402 -0.4414 -0.3614  0.1621
10862SOL    HW139701   2.594   0.256   7.321 -0.3323 -0.9751 -0.0152
10862SOL    HW239702   2.594   0.276   7.471 -1.7640  1.5119 -0.2757
10863SOL     OW39703   9.990   1.997   5.214  0.3060 -0.7105  0.0762
10863SOL    HW139704   9.951   1.977   5.129 -0.8400 -0.0551  0.4305
10863SOL    HW239705   9.974   1.920   5.267 -0.4758 -0.4610  0.2055
10864SOL     OW39706   0.527   5.364   1.320  0.0807 -0.0709 -0.2560
10864SOL    HW139707   0.582   5.337   1.394 -0.4698 -2.2729 -0.6036
10864SOL    HW239708   0.569   5.444   1.288  1.5116 -0.2001  1.1676
10865SOL     OW39709   6.592   4.089   1.686 -0.1075 -0.3527  0.5790
10865SOL    HW139710   6.681   4.111   1.714 -0.1450 -0.0953  0.5089
10865SOL    HW239711   6.550   4.174   1.675 -0.2286 -0.4595  0.1870
10866SOL     OW39712   0.719   9.120   7.423  0.0583  0.3223  0.2243
10866SOL    HW139713   0.809   9.148   7.402  0.0259  1.3782  1.3788
10866SOL    HW239714   0.678   9.199   7.459 -1.5626  0.0474 -0.9236
10867SOL     OW39715  11.174   7.508   2.572  0.1183 -0.2128 -0.2828
10867SOL    HW139716  11.193   7.570   2.502 -0.5338  0.7238  0.3598
10867SOL    HW239717  11.250   7.512   2.629  1.1242 -1.7260 -1.4145
10868SOL     OW39718   6.854  12.361   7.223  0.0802  0.0069  0.1060
10868SOL    HW139719   6.830  12.440   7.175  0.1006 -0.7806 -1.2364
10868SOL    HW239720   6.927  12.324   7.174  1.0552 -0.0788  1.5707
10869SOL     OW39721   9.060   0.439   0.527 -0.6841  0.0604 -0.4606
10869SOL    HW139722   9.121   0.507   0.552 -1.5200  1.0900 -1.1215
10869SOL    HW239723   9.042   0.391   0.608  1.0823 -0.3758 -0.2805
10870SOL     OW39724   1.687  11.777   9.609 -0.0875 -0.0118  0.0132
10870SOL    HW139725   1.612  11.748   9.661  1.3948 -1.9948  1.2156
10870SOL    HW239726   1.690  11.716   9.535 -0.0073  0.4262 -0.3461
10871SOL     OW39727   4.365   4.128   3.043  0.3410  0.6818  0.4048
10871SOL    HW139728   4.367   4.155   2.951 -1.0453  0.0736  0.1751
10871SOL    HW239729   4.285   4.167   3.077  0.1973 -0.1394  1.0216
10872SOL     OW39730  11.826  11.940   1.520  0.1601  0.1141 -0.2735
10872SOL    HW139731  11.918  11.948   1.495  0.7110 -0.6735  1.3702
10872SOL    HW239732  11.826  11.944   1.615 -1.4288 -0.6369 -0.2094
10873SOL     OW39733  12.937   5.561   6.559  0.6375  0.2785 -0.0576
10873SOL    HW139734  13.011   5.612   6.526  0.5661  0.2838 -0.2158
10873SOL    HW239735  12.973   5.474   6.578  0.3439 -0.2707 -1.8123
10874SOL     OW39736   1.841   3.715   7.704 -0.5050 -0.0310 -0.7408
10874SOL    HW139737   1.770   3.716   7.639 -0.9862  1.4180 -0.2138
10874SOL    HW239738   1.796   3.710   7.788  0.1026 -1.2342 -0.4657
10875SOL     OW39739   8.121   9.875   5.752 -0.3971  0.5101  0.0997
10875SOL    HW139740   8.074   9.824   5.686 -0.2753  0.8240 -0.2359
10875SOL    HW239741   8.205   9.897   5.710 -0.3415  0.7583  0.3371
10876SOL     OW39742   5.167   7.730   3.834 -0.2199 -0.2745 -0.7849
10876SOL    HW139743   5.090   7.729   3.891 -0.7661  0.3195 -1.5048
10876SOL    HW239744   5.230   7.674   3.879  0.1098  1.7130  1.4478
10877SOL     OW39745   7.713   9.144   0.935  0.2057  0.1306  0.1563
10877SOL    HW139746   7.666   9.163   1.016 -1.8297 -2.5054 -0.2691
10877SOL    HW239747   7.774   9.074   0.959  2.3362  1.9032  0.1632
10878SOL     OW39748   8.868  10.103   6.472 -0.1697  0.1174 -0.2479
10878SOL    HW139749   8.818  10.111   6.554  0.3774  1.5507 -0.0256
10878SOL    HW239750   8.806  10.129   6.404 -0.5904 -0.9627 -0.3017
10879SOL     OW39751   4.955  12.907   8.544  0.1334 -0.5229 -0.5895
10879SOL    HW139752   4.914  12.866   8.621 -1.4871 -0.7675 -1.5450
10879SOL    HW239753   4.885  12.912   8.479  1.2929  0.3195 -1.8259
10880SOL     OW39754   3.835   8.854   6.502 -0.3206 -0.5280  0.8252
10880SOL    HW139755   3.816   8.761   6.490 -0.4711 -0.3678 -0.2657
10880SOL    HW239756   3.806   8.873   6.592  1.0079 -1.8380  1.5786
10881SOL     OW39757   1.892   2.268   6.993 -0.2892  0.0491  0.2933
10881SOL    HW139758   1.920   2.259   6.901 -0.2958  2.6066 -0.0156
10881SOL    HW239759   1.966   2.307   7.037 -0.6482 -0.2595  1.1898
10882SOL     OW39760  12.419   7.638   4.628 -0.0187  0.0845 -0.2675
10882SOL    HW139761  12.374   7.592   4.557  1.2053  0.5455 -1.3842
10882SOL    HW239762  12.415   7.730   4.603  0.0088  0.3059  0.5164
10883SOL     OW39763   2.376   2.651   1.460 -0.1216 -0.1664 -0.7418
10883SOL    HW139764   2.443   2.676   1.524  0.6978  0.0071 -1.6535
10883SOL    HW239765   2.322   2.730   1.451  0.0362 -0.0426 -0.6201
10884SOL     OW39766  12.374   5.953   3.864  0.1340  0.0294  0.3951
10884SOL    HW139767  12.280   5.968   3.872 -0.1471 -0.8969 -0.9153
10884SOL    HW239768  12.409   5.969   3.952 -1.0321  1.7767  0.5927
10885SOL     OW39769   9.405   5.471   8.018  0.2138 -0.0080 -0.3361
10885SOL    HW139770   9.456   5.427   7.950  2.7655  2.3263 -0.0980
10885SOL    HW239771   9.320   5.487   7.977  0.9762 -0.4892 -2.2146
10886SOL     OW39772   1.736   1.294   9.025 -0.6823 -0.0387  0.2038
10886SOL    HW139773   1.658   1.293   9.081 -0.1545  1.9204  1.0790
10886SOL    HW239774   1.797   1.351   9.072  0.3563  0.4471 -1.6618
10887SOL     OW39775   8.553  10.371   4.766 -0.2254  0.3264  0.1877
10887SOL    HW139776   8.586  10.302   4.708  1.4944  1.3260 -0.1180
10887SOL    HW239777   8.465  10.389   4.734 -0.3245 -1.0274 -0.3557
10888SOL     OW39778   8.069   4.215   4.484 -0.9792 -0.4145  0.2045
10888SOL    HW139779   8.114   4.284   4.532 -1.1540  1.2087 -1.8218
10888SOL    HW239780   7.976   4.234   4.497 -1.0506  0.7464 -1.5701
10889SOL     OW39781   1.188  11.615   2.768 -0.7185 -0.0377  0.4429
10889SOL    HW139782   1.152  11.571   2.846  0.8539 -1.6102  0.3620
10889SOL    HW239783   1.241  11.686   2.804  1.4069 -1.8033  1.0017
10890SOL     OW39784   6.572   8.516   0.914 -0.1309  0.2847  0.0004
10890SOL    HW139785   6.567   8.612   0.920  4.0157  0.8924 -2.4879
10890SOL    HW239786   6.563   8.498   0.821 -1.5773 -1.9596  0.4964
10891SOL     OW39787   1.216  12.900   1.510 -0.3902 -0.1021 -0.0220
10891SOL    HW139788   1.175  12.870   1.591  0.3169  0.2975  0.4970
10891SOL    HW239789   1.190  12.835   1.444 -1.2583 -0.2401  0.4413
10892SOL     OW39790   9.002   6.203   7.600 -0.3246  0.0841 -0.5325
10892SOL    HW139791   9.095   6.217   7.617 -0.4766  1.1264 -0.5216
10892SOL    HW239792   8.988   6.233   7.511 -0.5943 -0.3832 -0.6538
10893SOL     OW39793   9.043  10.825   6.489 -0.0076  0.3569  0.1145
10893SOL    HW139794   8.958  10.801   6.525 -0.3032 -2.6558 -2.1827
10893SOL    HW239795   9.023  10.869   6.407  0.6603  1.4179  0.5075
10894SOL     OW39796  11.602   5.010   7.720  0.1088 -0.3510  0.1478
10894SOL    HW139797  11.597   5.029   7.626  0.0784 -0.3948  0.1405
10894SOL    HW239798  11.597   5.095   7.763  0.8760 -0.2685  0.0831
10895SOL     OW39799   6.503   1.316  12.556  0.0987  0.4757  0.1631
10895SOL    HW139800   6.547   1.331  12.640 -0.6986  0.7906  0.5432
10895SOL    HW239801   6.523   1.393  12.504  3.9796 -1.4110 -1.5367
10896SOL     OW39802   1.104   5.679  10.829 -0.0332  0.6823 -0.0557
10896SOL    HW139803   1.008   5.670  10.830  0.0371 -0.2842 -0.8697
10896SOL    HW239804   1.124   5.727  10.910 -1.2367  1.2799 -0.0903
10897SOL     OW39805   1.768   5.059   1.213 -0.1230 -0.0271  0.2442
10897SOL    HW139806   1.704   4.994   1.185  0.3590 -0.1893 -0.5257
10897SOL    HW239807   1.754   5.134   1.155 -0.6043  0.5255  1.0565
10898SOL     OW39808   4.958   8.565  11.036 -0.2324 -0.2369  0.5613
10898SOL    HW139809   4.912   8.483  11.018  0.6557 -0.8846  1.1700
10898SOL    HW239810   4.888   8.629  11.051 -0.9799 -0.4116 -1.7864
10899SOL     OW39811   0.410   2.382   2.113 -0.2610 -0.7673  0.3648
10899SOL    HW139812   0.370   2.440   2.179  1.0053  0.5684  0.0170
10899SOL    HW239813   0.339   2.324   2.087 -1.6765  0.7554  0.6074
10900SOL     OW39814   6.378   7.679   1.836  0.2213 -0.1800  0.1603
10900SOL    HW139815   6.335   7.666   1.921  3.2355 -0.1508  1.8168
10900SOL    HW239816   6.442   7.748   1.852 -1.7193  2.7981 -3.2591
10901SOL     OW39817   2.847   9.251   2.538  0.1468  0.4351  0.1435
10901SOL    HW139818   2.878   9.166   2.568  0.5768  0.2113 -0.8929
10901SOL    HW239819   2.798   9.232   2.457 -1.3457  0.9620  0.8769
10902SOL     OW39820   9.234   2.940   9.090 -0.3293  0.0886 -0.8940
10902SOL    HW139821   9.176   3.011   9.064 -1.5904 -1.1240 -1.5386
10902SOL    HW239822   9.178   2.881   9.141  0.6126 -0.5733 -0.5970
10903SOL     OW39823   7.873   0.316   2.187  0.9111  0.8403 -0.4194
10903SOL    HW139824   7.797   0.373   2.173  0.5986  0.5799  0.1779
10903SOL    HW239825   7.846   0.231   2.154  0.7138  0.5982  0.3309
10904SOL     OW39826   8.406  12.798   4.598 -0.2845 -0.1424  0.0328
10904SOL    HW139827   8.313  12.796   4.623 -0.3094  2.1032  0.2730
10904SOL    HW239828   8.413  12.729   4.531 -1.7209 -1.5256  1.2171
10905SOL     OW39829   0.125   5.446   1.854  0.2074 -0.1083  0.1587
10905SOL    HW139830   0.144   5.371   1.911 -0.3413 -0.3727 -0.0032
10905SOL    HW239831   0.095   5.407   1.772 -1.8753  0.2880  0.6758
10906SOL     OW39832   9.746   0.400   3.445 -0.2519  0.2728 -0.2400
10906SOL    HW139833   9.789   0.328   3.491 -1.2963 -0.8495 -0.9519
10906SOL    HW239834   9.669   0.360   3.405  0.5417  1.1992 -2.8710
10907SOL     OW39835   0.927  12.509   9.192 -0.5561 -0.3247 -0.1183
10907SOL    HW139836   0.900  12.452   9.264  1.2604  0.2694  1.1308
10907SOL    HW239837   1.012  12.475   9.165  1.5444  2.7379  1.9770
10908SOL     OW39838   7.435   1.771   6.996 -0.1688  0.6408 -0.3387
10908SOL    HW139839   7.515   1.800   6.952 -0.5980  1.7323 -0.4144
10908SOL    HW239840   7.435   1.676   6.983  0.0410  0.8507 -2.1709
10909SOL     OW39841   6.307   1.897   9.545 -0.2449 -0.9357 -0.1749
10909SOL    HW139842   6.268   1.984   9.536  1.2779 -0.2297 -0.2302
10909SOL    HW239843   6.273   1.848   9.471  1.5606  0.7134 -2.2549
10910SOL     OW39844   7.581   1.578   0.492 -0.0372  0.0693  0.0718
10910SOL    HW139845   7.540   1.664   0.483  0.4273  0.2710 -0.1441
10910SOL    HW239846   7.656   1.593   0.549 -1.3342 -0.6544  2.0879
10911SOL     OW39847   7.343  11.853   5.316  0.1783  0.0907  0.1065
10911SOL    HW139848   7.349  11.820   5.227  2.1584 -1.3401  0.6939
10911SOL    HW239849   7.415  11.811   5.362 -1.9235 -0.8008  2.8941
10912SOL     OW39850  11.068   2.205   8.675 -0.3503  0.4660  0.8177
10912SOL    HW139851  10.998   2.165   8.624  0.4828 -0.6783  0.5410
10912SOL    HW239852  11.065   2.161   8.760 -0.0642  0.5132  0.8538
10913SOL     OW39853   3.832   8.493   3.098 -0.2861 -0.5342  0.3369
10913SOL    HW139854   3.904   8.430   3.103  0.2310 -0.0426 -0.5345
10913SOL    HW239855   3.815   8.519   3.188 -0.2980 -1.6778  0.6751
10914SOL     OW39856   9.649   4.907   4.423 -0.0489  0.2550 -0.2962
10914SOL    HW139857   9.624   4.909   4.515 -0.4916  2.7832 -0.3914
10914SOL    HW239858   9.688   4.821   4.410  1.4642  0.3841  2.6483
10915SOL     OW39859  11.829  11.595  10.100  0.0464 -0.5182 -0.4939
10915SOL    HW139860  11.828  11.681  10.058  0.5757 -0.6005 -0.6770
10915SOL    HW239861  11.922  11.577  10.116 -0.1523  0.8026  3.3266
10916SOL     OW39862   9.360   8.770   4.817  0.9636  0.1407  0.1087
10916SOL    HW139863   9.426   8.803   4.878  0.7312  0.0763  0.3969
10916SOL    HW239864   9.382   8.678   4.805  0.6233 -0.0106  0.6097
10917SOL     OW39865   4.773   5.770   3.751 -0.0140 -0.3221 -0.4207
10917SOL    HW139866   4.690   5.750   3.707 -0.1781  2.0068 -1.3331
10917SOL    HW239867   4.839   5.721   3.703 -0.8343 -2.3211  0.4012
10918SOL     OW39868   7.671   6.578  12.765 -0.2087 -0.5596  0.2461
10918SOL    HW139869   7.761   6.608  12.752  0.1683 -2.7931 -4.3022
10918SOL    HW239870   7.679   6.505  12.827  1.4351 -1.5593 -1.0332
10919SOL     OW39871   6.025   0.065  10.133 -0.1439 -0.3664  0.5447
10919SOL    HW139872   6.107   0.016  10.129  0.5317  0.7225  0.6721
10919SOL    HW239873   5.962   0.004  10.171  0.1277 -1.8461 -1.2239
10920SOL     OW39874   9.922  11.901  12.242  0.2456  0.1061  0.1658
10920SOL    HW139875   9.939  11.991  12.216 -0.6712 -0.0684 -1.1519
10920SOL    HW239876   9.943  11.849  12.164  0.9062 -0.8433  0.9552
10921SOL     OW39877   8.158   9.965   7.338  0.2937  0.0016 -0.3989
10921SOL    HW139878   8.109   9.922   7.408  2.0115 -1.2420  0.1209
10921SOL    HW239879   8.246   9.976   7.374  0.2918  2.7153 -1.0675
10922SOL     OW39880   0.565   7.309  12.484  0.1155  0.0080 -0.3990
10922SOL    HW139881   0.580   7.388  12.431  1.6889 -0.1113 -0.1863
10922SOL    HW239882   0.619   7.323  12.562 -2.0831  0.1441  1.1840
10923SOL     OW39883   8.974   5.052   3.510  0.2343  0.2548 -0.5792
10923SOL    HW139884   8.961   5.128   3.568  1.3112 -0.8740  1.2381
10923SOL    HW239885   8.894   5.047   3.459  0.2398  2.7789 -0.9605
10924SOL     OW39886   9.670   7.891  10.979 -0.2085  0.1839 -0.0984
10924SOL    HW139887   9.739   7.918  10.919 -0.3093  1.2823  0.2465
10924SOL    HW239888   9.710   7.822  11.032  0.8859  1.2772  0.5660
10925SOL     OW39889   0.519   2.642   1.461  0.1242  0.2039  0.0538
10925SOL    HW139890   0.511   2.633   1.367  0.5586 -1.0397  0.1227
10925SOL    HW239891   0.504   2.554   1.496  1.8827  0.2312  1.0054
10926SOL     OW39892   8.050   1.458   9.944  0.0817 -0.1555  0.5686
10926SOL    HW139893   8.090   1.430   9.861  1.9994  0.4726  1.2447
10926SOL    HW239894   8.033   1.551   9.932 -0.3212 -0.2197  0.6323
10927SOL     OW39895   1.045   4.478   3.480  0.0598 -0.3567  0.3606
10927SOL    HW139896   1.127   4.494   3.526 -0.1385 -0.5007  0.7602
10927SOL    HW239897   1.030   4.384   3.488 -0.5816 -0.2059  1.0243
10928SOL     OW39898  12.852  11.366  10.947 -0.0280  0.2163  0.5274
10928SOL    HW139899  12.922  11.378  10.883 -0.1712 -0.3986  0.2480
10928SOL    HW239900  12.807  11.286  10.919 -0.8632  0.6192  0.6918
10929SOL     OW39901   0.756  11.825   2.634  0.6045  0.4178 -0.4303
10929SOL    HW139902   0.728  11.904   2.680 -1.2727  0.3087 -1.2994
10929SOL    HW239903   0.815  11.856   2.565 -0.9082  1.2431 -1.4182
10930SOL     OW39904   9.495   4.960  12.350 -0.1635  0.3443  0.0139
10930SOL    HW139905   9.434   5.030  12.326 -0.2041  0.0800 -0.6631
10930SOL    HW239906   9.559   4.958  12.279  0.0652 -0.0489  0.2246
10931SOL     OW39907   9.747   7.512  10.151  0.6316 -0.2615 -0.0563
10931SOL    HW139908   9.672   7.519  10.210 -0.0164  1.0446 -0.9803
10931SOL    HW239909   9.725   7.570  10.078  1.2466 -2.0979 -1.7658
10932SOL     OW39910   6.259   3.062   9.058  0.0592  0.2752 -0.1838
10932SOL    HW139911   6.302   3.131   9.108  0.2175 -0.8993  1.3814
10932SOL    HW239912   6.205   3.016   9.122  0.7147 -1.6592 -0.9489
10933SOL     OW39913  12.132   5.006  11.906  0.5350  0.0733 -0.4288
10933SOL    HW139914  12.093   4.928  11.867 -1.1939  0.4790  0.4154
10933SOL    HW239915  12.112   5.076  11.844 -1.6764  0.6021  0.7816
10934SOL     OW39916   0.642  12.695   6.522 -0.3376 -0.1046 -0.4771
10934SOL    HW139917   0.613  12.784   6.504 -1.4543  0.3372  2.7554
10934SOL    HW239918   0.715  12.706   6.583  0.7397 -1.4254 -1.4689
10935SOL     OW39919   7.288  12.455  10.216 -0.3929  0.1905  0.2029
10935SOL    HW139920   7.363  12.463  10.158 -0.3992  0.8083  0.2817
10935SOL    HW239921   7.269  12.544  10.244  0.2383 -0.1897  1.9696
10936SOL     OW39922   9.806   4.388   8.047 -0.3480 -0.4356 -0.5092
10936SOL    HW139923   9.889   4.362   8.086  0.9343  0.6874 -2.3609
10936SOL    HW239924   9.766   4.447   8.112  0.3098 -0.9233  0.3594
10937SOL     OW39925   9.668   0.354  12.120 -0.1499  1.0821 -0.0284
10937SOL    HW139926   9.702   0.443  12.111 -0.7694  1.3102 -0.1225
10937SOL    HW239927   9.602   0.346  12.052 -0.7265  0.8552  0.5449
10938SOL     OW39928  12.779  10.416  11.245 -0.7033  0.0030 -0.0262
10938SOL    HW139929  12.867  10.426  11.208  0.3192 -2.6235  1.4151
10938SOL    HW239930  12.783  10.463  11.328 -1.0125  0.7488 -0.4284
10939SOL     OW39931  10.689  12.004   4.696 -0.1013 -0.3976  0.0113
10939SOL    HW139932  10.769  11.952   4.697 -0.2030 -0.5796 -0.8058
10939SOL    HW239933  10.719  12.094   4.694  0.1025 -0.4855 -1.6556
10940SOL     OW39934   5.339   5.659   7.665  0.4009 -0.0291 -0.3274
10940SOL    HW139935   5.356   5.611   7.746  1.1422 -0.6739 -0.8393
10940SOL    HW239936   5.419   5.709   7.650  0.0591  0.4988 -0.3844
10941SOL     OW39937   0.890   1.325   4.852  0.3481 -0.4483 -0.4055
10941SOL    HW139938   0.905   1.258   4.920  0.5367  0.1730  0.1790
10941SOL    HW239939   0.816   1.292   4.802  1.4145 -1.8605 -1.1130
10942SOL     OW39940   5.513   9.667   1.965  0.1919  0.9796 -0.1047
10942SOL    HW139941   5.501   9.762   1.969  2.0037  1.2507 -0.3504
10942SOL    HW239942   5.460   9.639   1.891  1.2845  2.1308 -1.3759
10943SOL     OW39943   5.228   5.596   5.318 -0.0406  0.0603  0.4708
10943SOL    HW139944   5.227   5.564   5.408  0.9128  0.0009  0.4694
10943SOL    HW239945   5.246   5.518   5.265  0.4164  0.2693  0.3149
10944SOL     OW39946   7.706   4.440   6.531  0.4287 -0.1269  0.2067
10944SOL    HW139947   7.717   4.367   6.592 -0.3405  0.9450  1.6585
10944SOL    HW239948   7.612   4.455   6.527  0.5687  0.7114 -0.1959
10945SOL     OW39949  10.906  10.079   1.416 -0.5821 -0.4534  0.0268
10945SOL    HW139950  10.841  10.133   1.462  0.4968  0.7191  0.2291
10945SOL    HW239951  10.972  10.142   1.387  0.5163 -1.6366 -0.0812
10946SOL     OW39952   8.756   7.611  11.828 -0.3176  0.6535  0.5653
10946SOL    HW139953   8.832   7.655  11.790 -0.7404  2.1930  1.3787
10946SOL    HW239954   8.681   7.659  11.792 -0.9024 -0.5494  0.1290
10947SOL     OW39955   3.105   6.093   9.095  0.0658 -0.3071 -0.7106
10947SOL    HW139956   3.096   6.176   9.142  0.5144 -0.3194 -0.6038
10947SOL    HW239957   3.151   6.036   9.156 -0.7429 -0.8131 -0.5631
10948SOL     OW39958   8.675   5.959   0.669  0.4704 -0.2319 -0.3543
10948SOL    HW139959   8.606   5.942   0.605  1.0714  1.6242 -1.5636
10948SOL    HW239960   8.681   6.054   0.673  0.2117 -0.2370  2.7750
10949SOL     OW39961   1.439   6.543  10.011 -0.1867 -0.1533  0.4175
10949SOL    HW139962   1.499   6.583   9.948 -1.3359 -0.3013 -0.8419
10949SOL    HW239963   1.392   6.477   9.960 -0.8674 -0.5760  1.5533
10950SOL     OW39964  12.375  10.933  10.039 -0.1741 -0.4983  0.4564
10950SOL    HW139965  12.359  10.877   9.963  1.5611 -1.0531  0.4748
10950SOL    HW239966  12.318  11.009  10.024  0.9040 -0.0637 -1.9816
10951SOL     OW39967   2.867   7.308   1.703  0.2142 -0.5319 -0.7432
10951SOL    HW139968   2.908   7.247   1.642  0.3360 -0.7702 -0.4261
10951SOL    HW239969   2.876   7.393   1.662  1.2973 -0.5357 -0.5454
10952SOL     OW39970   5.812  11.935  12.688 -0.1355  0.1274 -0.6641
10952SOL    HW139971   5.775  12.022  12.675 -0.9557 -0.2265 -0.8038
10952SOL    HW239972   5.747  11.876  12.649 -0.8358 -0.7304  1.6214
10953SOL     OW39973   3.618  12.949   4.943  0.0984  0.0436  0.0527
10953SOL    HW139974   3.586  12.864   4.915 -0.8413  0.3617  0.1219
10953SOL    HW239975   3.552  13.011   4.912  0.6701  0.7270  0.1711
10954SOL     OW39976   9.411   9.225   7.681  0.2749 -0.4893  0.0779
10954SOL    HW139977   9.481   9.160   7.681  0.8541  0.1227 -0.7016
10954SOL    HW239978   9.449   9.302   7.638 -0.8597 -0.1298 -0.3217
10955SOL     OW39979  12.570   6.651   8.155 -0.7661  0.3280  0.0712
10955SOL    HW139980  12.498   6.651   8.092 -0.2391  2.2184 -0.5876
10955SOL    HW239981  12.529   6.679   8.237 -0.8732  1.0305 -0.2131
10956SOL     OW39982   5.294  12.838  11.281  0.1726 -0.3071  0.0081
10956SOL    HW139983   5.257  12.801  11.362 -0.9978  1.7663  0.4869
10956SOL    HW239984   5.383  12.864  11.304 -0.1402  0.2318  0.6402
10957SOL     OW39985   5.861  11.536   5.126 -0.0689 -0.8087  0.8571
10957SOL    HW139986   5.841  11.584   5.046  1.2460 -0.8545  0.4774
10957SOL    HW239987   5.803  11.574   5.192 -0.0567  0.3228  0.2402
10958SOL     OW39988   9.079  11.762   3.541 -0.0914 -0.2154  0.0238
10958SOL    HW139989   9.080  11.782   3.635  0.7178  0.6123 -0.1463
10958SOL    HW239990   9.158  11.709   3.527  0.4420  0.6620 -0.3796
10959SOL     OW39991   1.416   4.134   8.112 -0.1823 -0.2877  0.1383
10959SOL    HW139992   1.358   4.101   8.043 -0.5291 -0.4972  0.5244
10959SOL    HW239993   1.425   4.061   8.173  1.1426 -0.5290 -0.3156
10960SOL     OW39994   7.740   9.755   2.608 -0.2085 -0.0685  0.0046
10960SOL    HW139995   7.693   9.691   2.555  0.6089 -0.1378 -0.6649
10960SOL    HW239996   7.673   9.794   2.664 -0.8558 -0.9359 -0.1474
10961SOL     OW39997   9.192   6.093  12.362 -0.6842 -0.1565 -0.1906
10961SOL    HW139998   9.251   6.027  12.398 -1.1543 -0.4140  0.1099
10961SOL    HW239999   9.110   6.082  12.411 -0.2853  1.6998  0.9626
10962SOL     OW40000   3.836   1.032   7.659  0.3232  0.0623 -0.4081
10962SOL    HW140001   3.895   1.029   7.735 -0.0151 -0.4614 -0.1583
10962SOL    HW240002   3.772   1.100   7.681 -0.6099 -1.0527  0.4121
10963SOL     OW40003   7.256   1.828  10.115 -0.1961  0.7137 -0.1511
10963SOL    HW140004   7.332   1.778  10.086  0.4177  2.4772 -1.7265
10963SOL    HW240005   7.191   1.761  10.138  0.3718 -0.8581 -2.7579
10964SOL     OW40006  10.686   4.654   9.039 -0.1172 -0.3246 -0.2425
10964SOL    HW140007  10.630   4.731   9.038 -1.3130 -1.1733 -0.1207
10964SOL    HW240008  10.626   4.580   9.049  1.1372 -1.1647  1.6540
10965SOL     OW40009   4.507  11.219   2.051 -0.0827  0.0410  0.6594
10965SOL    HW140010   4.483  11.127   2.046 -0.7479  0.2181  0.4792
10965SOL    HW240011   4.517  11.246   1.959 -0.6925  0.3488  0.6791
10966SOL     OW40012   9.965   7.982   9.339 -0.0379  0.4348 -0.2091
10966SOL    HW140013  10.060   7.995   9.342  0.4637 -2.2534 -1.3789
10966SOL    HW240014   9.943   7.983   9.246 -0.8503 -0.5511 -0.0515
10967SOL     OW40015  12.556   0.093   5.733 -0.2844 -0.3892 -0.1389
10967SOL    HW140016  12.584   0.160   5.671 -1.2551 -0.2807 -0.4933
10967SOL    HW240017  12.559   0.136   5.818  2.0811 -0.8602  0.0610
10968SOL     OW40018  11.434   7.433   1.634  0.3948 -0.3805  0.1112
10968SOL    HW140019  11.427   7.483   1.715 -1.1420  0.4501 -0.4854
10968SOL    HW240020  11.397   7.347   1.654 -0.9824  0.1681  0.0593
10969SOL     OW40021   1.098   7.983  11.079 -0.4769  0.4836 -0.4160
10969SOL    HW140022   1.084   7.933  11.160  2.8275  0.0698  0.0395
10969SOL    HW240023   1.072   7.922  11.009  2.1001 -1.4922  0.1957
10970SOL     OW40024   4.032   9.446   7.577  0.5193  0.1588 -0.2357
10970SOL    HW140025   3.991   9.427   7.661  0.9370 -3.0894 -0.6484
10970SOL    HW240026   4.052   9.540   7.581 -1.3892  0.5687  2.3822
10971SOL     OW40027   1.124  12.093   7.971  0.2794 -0.1073 -0.1156
10971SOL    HW140028   1.154  12.027   8.034  1.6951 -2.3485 -2.8891
10971SOL    HW240029   1.031  12.074   7.959  0.3442 -0.6521  0.2132
10972SOL     OW40030   8.618  10.520   1.637  0.3267 -0.5382 -0.2132
10972SOL    HW140031   8.631  10.580   1.710  0.1941 -0.2611 -0.4141
10972SOL    HW240032   8.556  10.566   1.580  1.4731 -0.1315 -1.1830
10973SOL     OW40033  10.951  11.400   1.646  0.3084 -0.2726  0.2732
10973SOL    HW140034  10.860  11.411   1.619 -0.1200 -0.7869  1.4189
10973SOL    HW240035  10.976  11.313   1.615  0.6856  0.1952 -0.7563
10974SOL     OW40036   6.244   1.513  10.188 -0.0923  0.0129 -0.0799
10974SOL    HW140037   6.222   1.573  10.259 -0.0135  1.0859 -0.9372
10974SOL    HW240038   6.340   1.511  10.187 -0.0277  1.4994 -1.3249
10975SOL     OW40039  11.596   3.348  11.162  0.0758  0.2167 -0.1105
10975SOL    HW140040  11.629   3.438  11.158  0.7958  0.0123  0.9284
10975SOL    HW240041  11.673   3.293  11.152 -0.0958 -0.2698  1.0481
10976SOL     OW40042   0.890   7.460   1.571  0.0266  0.7413  0.3928
10976SOL    HW140043   0.958   7.480   1.507  0.3091 -1.0032  0.0962
10976SOL    HW240044   0.844   7.543   1.584  1.0853  1.5397 -0.7261
10977SOL     OW40045   0.801   4.962   1.138 -0.1044  0.2700 -0.0273
10977SOL    HW140046   0.740   5.026   1.103  0.0660  0.7019  0.4476
10977SOL    HW240047   0.753   4.917   1.207 -0.3642 -0.4213 -0.6375
10978SOL     OW40048  10.259   2.967  11.238  0.1593 -0.6019  0.3679
10978SOL    HW140049  10.268   2.918  11.320  2.7699  0.2808  0.7269
10978SOL    HW240050  10.341   2.949  11.191 -0.0404  1.1458 -0.7395
10979SOL     OW40051   8.876  10.114   5.577  0.6998 -0.1818  0.4130
10979SOL    HW140052   8.870  10.176   5.650 -0.9007 -0.5179  0.6042
10979SOL    HW240053   8.834  10.159   5.504  0.3238 -0.6835  0.3124
10980SOL     OW40054  10.212   0.739  12.123  0.1908  0.4700  0.5226
10980SOL    HW140055  10.295   0.756  12.078  1.4032  0.6428  2.7234
10980SOL    HW240056  10.160   0.693  12.057  2.4169 -0.6281 -0.6255
10981SOL     OW40057   3.138   6.264   0.545  0.6500  0.7770 -0.3989
10981SOL    HW140058   3.211   6.298   0.597  0.9821 -0.0366 -0.3248
10981SOL    HW240059   3.162   6.173   0.526  0.0615  0.7644 -1.1196
10982SOL     OW40060  11.898   1.826  12.184 -0.3083  0.0738  0.3924
10982SOL    HW140061  11.867   1.736  12.188  1.4581 -0.5486  0.7380
10982SOL    HW240062  11.989   1.819  12.155 -0.5033  1.8298 -0.7928
10983SOL     OW40063   1.657   2.316   8.948  0.3643 -0.1098  0.5542
10983SOL    HW140064   1.640   2.269   9.030 -1.0363  2.1209  1.6620
10983SOL    HW240065   1.676   2.406   8.976  2.9937  0.0766 -1.4473
10984SOL     OW40066   1.037   6.159   4.837  0.3119  0.7585 -0.4350
10984SOL    HW140067   0.963   6.122   4.788 -0.0863 -0.0924  0.7684
10984SOL    HW240068   1.114   6.135   4.786  0.0403 -1.4446  0.1099
10985SOL     OW40069   4.828   5.316   7.033  0.3920 -0.2679  0.5463
10985SOL    HW140070   4.796   5.258   7.102 -2.1440  0.1392 -0.1647
10985SOL    HW240071   4.774   5.294   6.957  2.5681 -0.1614 -1.1443
10986SOL     OW40072   9.348  10.472   2.051 -0.1310  0.0457 -0.0283
10986SOL    HW140073   9.281  10.404   2.041 -0.2101 -0.0482  1.0115
10986SOL    HW240074   9.360  10.507   1.963 -0.7688 -0.6763 -0.4151
10987SOL     OW40075   8.317   6.159   7.698 -0.1890 -0.5201  0.7006
10987SOL    HW140076   8.286   6.246   7.675  1.4595  0.2849  1.3169
10987SOL    HW240077   8.269   6.100   7.640 -1.5150  0.7639  0.4396
10988SOL     OW40078   1.960  11.132  10.221 -0.0282  0.0514 -0.1927
10988SOL    HW140079   1.952  11.036  10.221 -0.0502  0.0446 -1.0418
10988SOL    HW240080   2.034  11.149  10.280  1.9181 -0.7003 -2.2730
10989SOL     OW40081   8.862   6.834   5.437  0.2361 -0.2899 -0.0437
10989SOL    HW140082   8.859   6.740   5.456 -0.1410 -0.1746  0.5069
10989SOL    HW240083   8.953   6.859   5.450  0.1431 -0.3758  0.8758
10990SOL     OW40084  12.659   2.842   1.113 -0.7652  0.0218 -0.3978
10990SOL    HW140085  12.594   2.773   1.105 -2.1328  1.2201 -0.0286
10990SOL    HW240086  12.608   2.923   1.123  0.6771  1.4401 -3.1260
10991SOL     OW40087   8.761   8.997  12.124 -0.4513 -0.2209  0.0303
10991SOL    HW140088   8.702   9.004  12.049  0.7569  0.5973 -0.8793
10991SOL    HW240089   8.792   9.086  12.139 -0.5685 -0.3857  1.4514
10992SOL     OW40090   3.149   7.617   1.707  1.4359 -0.5422  0.0829
10992SOL    HW140091   3.156   7.546   1.771  2.1565  0.0055  0.6359
10992SOL    HW240092   3.102   7.579   1.633 -0.0242 -1.0252  1.1965
10993SOL     OW40093   8.957  10.017   4.865 -0.0170 -0.0383  0.2487
10993SOL    HW140094   8.946  10.041   4.773 -2.6334  0.5028  0.6315
10993SOL    HW240095   8.937  10.096   4.913  2.4016 -0.0061  1.3398
10994SOL     OW40096   0.875   5.745   0.671  0.0933 -0.0900 -0.2625
10994SOL    HW140097   0.904   5.656   0.690 -0.6579 -0.3676 -0.3778
10994SOL    HW240098   0.826   5.771   0.749  0.4187  0.2684 -0.1788
10995SOL     OW40099   1.136   9.702   2.003  0.2664  0.3954  0.3297
10995SOL    HW140100   1.109   9.778   2.055  0.0971  2.0411 -2.0104
10995SOL    HW240101   1.055   9.652   1.991 -0.1630  1.2037 -0.2181
10996SOL     OW40102   8.141   5.508  12.362 -0.3490  0.1162 -0.5326
10996SOL    HW140103   8.169   5.423  12.328 -1.9320 -0.2445 -1.0369
10996SOL    HW240104   8.074   5.537  12.301 -2.4485  0.0054  1.5670
10997SOL     OW40105   7.225   1.381  11.412  0.3042  0.3337  0.4121
10997SOL    HW140106   7.202   1.391  11.319  0.1422 -2.4072  0.0707
10997SOL    HW240107   7.144   1.404  11.459 -0.8128 -1.6974 -0.3764
10998SOL     OW40108   9.562   0.478   9.471 -0.7955 -0.4631 -0.0558
10998SOL    HW140109   9.487   0.446   9.521 -0.6749 -2.0405 -0.8213
10998SOL    HW240110   9.524   0.515   9.391 -0.7923 -0.9600 -0.2914
10999SOL     OW40111   8.592  10.704   7.870  0.4442  0.1633 -0.0292
10999SOL    HW140112   8.630  10.789   7.849  1.2075 -0.3330 -0.6884
10999SOL    HW240113   8.649  10.668   7.938  0.4831 -0.0888 -0.1953
11000SOL     OW40114   1.997  12.101   9.729 -0.2333 -0.3312 -0.5257
11000SOL    HW140115   1.946  12.072   9.805 -0.1474  1.6401  0.3384
11000SOL    HW240116   1.933  12.137   9.668 -0.3149 -2.0098 -1.4990
11001SOL     OW40117  12.027   9.278  11.284 -0.6268 -0.3484  0.5928
11001SOL    HW140118  12.084   9.352  11.305  0.3980 -1.4292  1.7538
11001SOL    HW240119  12.060   9.247  11.199 -1.5629  0.9605 -0.2905
11002SOL     OW40120  10.245   0.584   1.346  0.1445  0.1834  0.3322
11002SOL    HW140121  10.152   0.582   1.371  0.0428  0.3150 -0.0295
11002SOL    HW240122  10.246   0.633   1.264  0.8991  3.3502  2.0554
11003SOL     OW40123  10.434   2.269  12.434 -0.1311  0.0924 -0.0054
11003SOL    HW140124  10.468   2.341  12.380 -1.8047  0.9422  0.0049
11003SOL    HW240125  10.499   2.199  12.424  0.7301  1.0259 -1.3208
11004SOL     OW40126   6.990  11.659  11.767 -0.1017 -0.0593 -0.6541
11004SOL    HW140127   6.969  11.606  11.690  0.5849  0.1171 -0.9766
11004SOL    HW240128   7.037  11.600  11.825 -1.2171 -0.3827 -0.0522
11005SOL     OW40129   8.638   0.357  11.105 -0.2428  0.2724  0.1650
11005SOL    HW140130   8.586   0.437  11.098  0.8371  0.9394 -0.7862
11005SOL    HW240131   8.619   0.309  11.025  0.6891  0.6109 -0.2849
11006SOL     OW40132  11.577   9.389  12.724 -0.2830 -0.0016  0.4560
11006SOL    HW140133  11.584   9.459  12.789 -2.0810  1.6692 -1.0196
11006SOL    HW240134  11.501   9.338  12.752  0.7207 -1.1294  1.2453
11007SOL     OW40135  11.797   7.201   3.352  0.0525  0.0852  0.5390
11007SOL    HW140136  11.706   7.205   3.380  0.1246  0.2530  0.7505
11007SOL    HW240137  11.830   7.119   3.388 -0.0302 -0.0045  0.4124
11008SOL     OW40138  10.053   6.798   5.441  0.4248 -0.5080 -0.2320
11008SOL    HW140139  10.011   6.712   5.441 -0.0046 -0.2971 -0.1573
11008SOL    HW240140  10.139   6.781   5.480  0.2879 -0.8782 -0.0810
11009SOL     OW40141   7.864   0.944   3.707 -0.4650 -0.5798 -0.4926
11009SOL    HW140142   7.860   0.878   3.775 -0.7793  0.0559  0.1115
11009SOL    HW240143   7.952   0.981   3.714  0.5883 -2.4704 -2.3309
11010SOL     OW40144   6.782   5.467   0.918 -0.3809 -0.3560 -0.2462
11010SOL    HW140145   6.703   5.522   0.915  1.5821  2.6630 -1.4534
11010SOL    HW240146   6.812   5.474   1.009 -0.6625 -0.2308 -0.1592
11011SOL     OW40147   1.627   7.803   9.049  0.3431 -0.0637 -0.0160
11011SOL    HW140148   1.582   7.870   8.997  0.0679 -2.4279 -3.0952
11011SOL    HW240149   1.669   7.746   8.984  1.1264 -2.5259  2.4403
11012SOL     OW40150   7.785   7.148   2.141 -0.2151 -0.1128  0.0541
11012SOL    HW140151   7.743   7.191   2.216 -1.2543 -1.5114  0.3353
11012SOL    HW240152   7.777   7.210   2.069 -1.5774  0.2340  0.4683
11013SOL     OW40153   2.658   7.217   6.227  0.0424 -0.2283  0.7018
11013SOL    HW140154   2.674   7.130   6.264 -0.4253 -0.5018  0.2671
11013SOL    HW240155   2.739   7.265   6.246  1.3069 -1.4768 -1.1557
11014SOL     OW40156   0.588   6.070   9.230  0.2699  0.1627 -0.0757
11014SOL    HW140157   0.515   6.088   9.170 -0.1474  2.1275  0.9138
11014SOL    HW240158   0.655   6.030   9.176 -0.8081  0.1477 -1.4437
11015SOL     OW40159   0.174  11.907  11.874  0.3245  0.1994  0.0289
11015SOL    HW140160   0.166  11.958  11.955 -1.2780  1.6776 -1.0052
11015SOL    HW240161   0.269  11.904  11.858  0.8385 -1.3722  2.6493
11016SOL     OW40162  10.203   9.233   8.959  0.4015 -0.3389 -0.0521
11016SOL    HW140163  10.288   9.197   8.933 -0.7997 -2.9754 -0.7082
11016SOL    HW240164  10.161   9.161   9.006 -0.6178  1.6762  2.3385
11017SOL     OW40165   9.181   1.953  11.013 -0.1273 -0.4908 -0.0603
11017SOL    HW140166   9.265   1.936  10.971  0.6322 -0.4179  1.3966
11017SOL    HW240167   9.202   1.999  11.094 -1.6101 -0.0103  0.0904
11018SOL     OW40168   2.788   8.703  11.968  0.1355 -0.4185 -0.3232
11018SOL    HW140169   2.857   8.757  12.008 -0.6267 -0.3884  1.0342
11018SOL    HW240170   2.756   8.756  11.894 -0.6891  1.1382  1.0571
11019SOL     OW40171   7.292  11.164   0.227  0.6354  0.6034 -0.3124
11019SOL    HW140172   7.230  11.135   0.293  1.5234  2.0322  1.2306
11019SOL    HW240173   7.363  11.100   0.232 -0.3647 -0.6751 -1.6437
11020SOL     OW40174   4.873  12.433   0.815 -0.1037  0.1407  0.1981
11020SOL    HW140175   4.942  12.445   0.881  0.1689 -0.2491 -0.0065
11020SOL    HW240176   4.828  12.517   0.811 -0.2585  0.1083  1.0318
11021SOL     OW40177   1.257  10.998   3.876 -0.6170 -0.4017 -0.2136
11021SOL    HW140178   1.237  10.987   3.969 -0.7172 -0.4713 -0.2433
11021SOL    HW240179   1.207  11.075   3.849 -0.1432 -0.0434 -0.0749
11022SOL     OW40180   4.260   9.120   0.225  0.5652 -0.1781 -0.1063
11022SOL    HW140181   4.300   9.187   0.281  0.1397 -0.1074  0.1167
11022SOL    HW240182   4.332   9.060   0.205  0.1545 -1.9997  3.1257
11023SOL     OW40183   8.241   7.614  12.342 -0.1789  0.2120 -0.0825
11023SOL    HW140184   8.301   7.675  12.300 -1.3373  1.7969  0.4905
11023SOL    HW240185   8.297   7.557  12.395  0.9322  0.6806 -0.7387
11024SOL     OW40186   0.275  12.927   5.616  0.3346 -0.3215  0.1847
11024SOL    HW140187   0.278  12.944   5.710 -0.1035  1.7568 -0.1111
11024SOL    HW240188   0.361  12.956   5.584 -0.5817  2.0268 -0.4022
11025SOL     OW40189   0.358   2.094   0.367 -0.2223  0.2221 -0.3252
11025SOL    HW140190   0.420   2.061   0.432  1.2024  0.6781 -1.3897
11025SOL    HW240191   0.335   2.018   0.314  0.5840  0.3250 -0.8292
11026SOL     OW40192   6.258   6.161  11.234  0.3181 -0.3840  0.8812
11026SOL    HW140193   6.177   6.180  11.186  1.2322 -0.8510 -0.9121
11026SOL    HW240194   6.286   6.076  11.202  2.3369  0.4501  0.2985
11027SOL     OW40195   8.610   1.297  10.312  0.5218  0.2411  0.7178
11027SOL    HW140196   8.531   1.347  10.293  0.5794  0.6474  1.5203
11027SOL    HW240197   8.615   1.232  10.241  0.1638  1.0262 -0.0514
11028SOL     OW40198   8.475   5.718  12.700  0.0103 -0.1520 -0.3816
11028SOL    HW140199   8.391   5.709  12.655 -0.9291  0.9810  1.0703
11028SOL    HW240200   8.468   5.664  12.778  0.9591 -0.6881 -0.6417
11029SOL     OW40201   0.927   5.280   6.736 -0.2152  0.1911 -0.0969
11029SOL    HW140202   1.014   5.241   6.737 -0.7556 -1.1104  1.6451
11029SOL    HW240203   0.889   5.252   6.653  1.3606  1.6864 -1.3920
11030SOL     OW40204   4.748   4.266   5.942 -0.4182 -0.9377  0.0430
11030SOL    HW140205   4.748   4.202   5.871 -0.7147 -1.4033  0.4611
11030SOL    HW240206   4.656   4.285   5.958 -0.3964  2.6095 -2.7396
11031SOL     OW40207  11.705   8.406   5.372  0.6664  0.5565 -0.2343
11031SOL    HW140208  11.736   8.342   5.436 -0.8670  0.8476  0.8526
11031SOL    HW240209  11.752   8.384   5.292  2.3974 -0.0344  0.8774
11032SOL     OW40210   7.456   9.071   2.663 -0.1332 -0.3605 -0.0838
11032SOL    HW140211   7.448   9.031   2.576  2.3018 -2.8006  0.6696
11032SOL    HW240212   7.380   9.038   2.711  0.2048 -1.6418 -0.3845
11033SOL     OW40213   6.818  12.395   0.777 -0.5531 -0.6520  0.2376
11033SOL    HW140214   6.760  12.469   0.758 -0.7378 -0.8771 -0.1005
11033SOL    HW240215   6.815  12.342   0.697  0.4208 -0.4735  0.0730
11034SOL     OW40216   3.765   6.300   2.191 -1.1519 -0.2837 -0.4541
11034SOL    HW140217   3.812   6.383   2.181  0.1921 -1.0904 -1.0928
11034SOL    HW240218   3.772   6.259   2.104 -1.2297 -1.3487  0.0331
11035SOL     OW40219   7.754   0.533   1.456  0.0501 -0.0686 -0.1030
11035SOL    HW140220   7.767   0.557   1.364 -2.8885  0.6951 -0.4258
11035SOL    HW240221   7.716   0.611   1.495  1.0361 -0.4746  1.7446
11036SOL     OW40222  12.413  10.701  11.307  0.1813 -0.1997 -0.6148
11036SOL    HW140223  12.487  10.705  11.367 -1.0529  0.9200  0.9126
11036SOL    HW240224  12.355  10.636  11.345 -2.0996  2.7270  1.3216
11037SOL     OW40225   1.449  11.054   7.197 -0.2626  0.1090 -0.0148
11037SOL    HW140226   1.498  10.988   7.247 -0.2711  1.8630  2.4820
11037SOL    HW240227   1.399  11.003   7.134  0.7537 -2.1584  0.8859
11038SOL     OW40228  11.639   3.522   5.116  0.5281 -0.0208  0.6497
11038SOL    HW140229  11.583   3.597   5.137 -1.0770 -0.7335 -0.8693
11038SOL    HW240230  11.665   3.536   5.025  0.5679 -1.0899  0.4890
11039SOL     OW40231   7.246   3.654  12.020 -0.5400 -0.2844 -0.2840
11039SOL    HW140232   7.338   3.658  11.995 -0.9187 -0.5370 -1.8532
11039SOL    HW240233   7.244   3.683  12.111  1.2904 -1.7816  0.2997
11040SOL     OW40234   9.349   4.885  10.221 -0.1692  0.3405 -0.1849
11040SOL    HW140235   9.396   4.840  10.290 -0.9912  0.1344  0.2546
11040SOL    HW240236   9.262   4.902  10.258 -1.3386 -1.5900 -1.8256
11041SOL     OW40237   0.049   9.259   8.562  0.2676 -0.2341  0.4574
11041SOL    HW140238   0.041   9.185   8.622 -2.0338 -0.2839  0.1849
11041SOL    HW240239  -0.017   9.242   8.495  0.7731  1.2983 -0.4825
11042SOL     OW40240  10.386  10.336   4.174 -0.0759 -0.0608 -0.8105
11042SOL    HW140241  10.389  10.242   4.195  1.5243 -0.0372 -0.7778
11042SOL    HW240242  10.353  10.378   4.253 -0.8340 -0.5927 -0.8357
11043SOL     OW40243  11.456   0.987   4.458 -0.6448 -1.2306 -0.8461
11043SOL    HW140244  11.446   1.045   4.383 -0.1291 -0.7974 -0.5939
11043SOL    HW240245  11.547   0.958   4.454 -0.6321 -1.2602 -0.4309
11044SOL     OW40246  11.536   9.649  11.720  0.0586 -0.3278 -0.0812
11044SOL    HW140247  11.514   9.738  11.695  0.6625 -0.1797 -0.0963
11044SOL    HW240248  11.612   9.626  11.666  2.0497  0.3731  2.2604
11045SOL     OW40249  12.607  11.827   1.429 -0.1249  0.2881  0.4182
11045SOL    HW140250  12.547  11.807   1.501  1.1430  1.0121  1.7304
11045SOL    HW240251  12.560  11.800   1.351 -0.3097 -3.5773  1.6640
11046SOL     OW40252  11.572  10.083   0.968  0.1129  0.5035  0.5395
11046SOL    HW140253  11.650  10.133   0.943  1.0403 -0.5296  1.2498
11046SOL    HW240254  11.536  10.131   1.043  1.1951 -0.0333  1.4353
11047SOL     OW40255   3.890  12.603   5.930  0.3406 -0.6541  0.1987
11047SOL    HW140256   3.809  12.556   5.908  0.3774 -0.1177 -1.2394
11047SOL    HW240257   3.960  12.545   5.901  0.4025 -0.2131 -0.5883
11048SOL     OW40258   4.499  10.005   9.229 -0.1824 -0.3286 -0.1212
11048SOL    HW140259   4.485   9.944   9.302  0.4691  0.5181  0.7544
11048SOL    HW240260   4.423  10.063   9.232 -0.6843 -0.9464 -0.8009
11049SOL     OW40261   6.750   2.079   2.203 -0.1553 -0.1574 -0.4473
11049SOL    HW140262   6.763   1.993   2.162 -0.4453 -0.5758  0.3126
11049SOL    HW240263   6.697   2.128   2.140  0.6618 -0.2538 -1.2334
11050SOL     OW40264   1.425   4.797   6.179 -0.2617  0.5444  0.1570
11050SOL    HW140265   1.470   4.864   6.231 -2.4989  0.9183  1.7231
11050SOL    HW240266   1.416   4.723   6.238  0.1521 -0.3349 -0.8424
11051SOL     OW40267   5.105   0.018   3.590  0.5042  0.2703 -0.5649
11051SOL    HW140268   5.040   0.028   3.520 -0.3846 -1.9702 -0.1451
11051SOL    HW240269   5.181  -0.021   3.548  1.4518  2.3571 -0.9381
11052SOL     OW40270   5.814   4.715   2.335  0.3208  0.3838 -0.2099
11052SOL    HW140271   5.835   4.701   2.427  0.7512  0.8286 -0.2345
11052SOL    HW240272   5.847   4.638   2.290  2.1600  1.1603 -0.2779
11053SOL     OW40273   6.332  12.205   9.880  0.4160 -0.2425 -0.0622
11053SOL    HW140274   6.337  12.116   9.845  1.2829 -0.7643  1.3494
11053SOL    HW240275   6.420  12.225   9.910 -0.3871 -0.0709  2.4028
11054SOL     OW40276   7.705  12.911   6.108 -0.0370  0.2965  0.3231
11054SOL    HW140277   7.626  12.863   6.083  0.4807 -0.5232  0.2440
11054SOL    HW240278   7.764  12.845   6.144 -0.1839  1.2057  2.4091
11055SOL     OW40279   8.478   0.454   5.634 -0.4017 -0.2841  0.3112
11055SOL    HW140280   8.550   0.488   5.687 -0.2482 -1.0259  0.5873
11055SOL    HW240281   8.521   0.421   5.554 -0.5896  0.4859 -0.1197
11056SOL     OW40282   0.379   3.959   0.327  0.1248  0.2359  0.2339
11056SOL    HW140283   0.445   4.027   0.324  0.1915  0.1523 -0.5784
11056SOL    HW240284   0.416   3.887   0.276 -0.4916  0.1043 -0.0418
11057SOL     OW40285   5.510  10.859   3.095  0.1023  0.1470 -0.2653
11057SOL    HW140286   5.549  10.945   3.080  0.1537  0.0992 -0.3982
11057SOL    HW240287   5.572  10.815   3.153  0.4525 -0.0863 -0.8191
11058SOL     OW40288   1.397   7.230  11.861  0.4677 -0.0807 -0.3316
11058SOL    HW140289   1.446   7.151  11.841  0.5971  0.0058 -0.3593
11058SOL    HW240290   1.352   7.211  11.943  0.2560 -0.2922 -0.4960
11059SOL     OW40291  11.993   5.811  10.013 -0.1991  0.1371  0.4703
11059SOL    HW140292  11.988   5.852  10.100  0.0882 -0.3936  0.7477
11059SOL    HW240293  11.902   5.802   9.986 -0.3701 -0.8318  1.2800
11060SOL     OW40294   5.617  10.965   0.786  0.2450 -0.5886  1.0705
11060SOL    HW140295   5.603  10.998   0.697  0.8797  0.4020  1.3268
11060SOL    HW240296   5.698  10.913   0.779 -0.4184 -1.6289  0.8034
11061SOL     OW40297   8.247   1.297   1.664 -0.0277  0.5407  0.3058
11061SOL    HW140298   8.300   1.247   1.726  1.2108  0.9065 -0.4148
11061SOL    HW240299   8.243   1.241   1.586  2.0477  1.7773 -0.8105
11062SOL     OW40300   4.898  11.601   6.263 -0.4844  0.1861 -0.4891
11062SOL    HW140301   4.855  11.542   6.325 -0.1835  0.5468  0.0679
11062SOL    HW240302   4.876  11.689   6.294  0.1925  0.3727 -0.5209
11063SOL     OW40303  12.932   8.651   7.927 -0.2097  0.3317 -0.1574
11063SOL    HW140304  12.913   8.724   7.869  0.9770  1.0368  0.3123
11063SOL    HW240305  12.985   8.688   7.997 -0.9364 -0.6612  0.9684
11064SOL     OW40306   6.765   1.203   7.489 -0.0426  1.0195 -0.3523
11064SOL    HW140307   6.766   1.299   7.480 -1.5253  1.0833 -0.0919
11064SOL    HW240308   6.761   1.188   7.584 -4.2764  0.8945 -0.3420
11065SOL     OW40309   1.315   2.695   4.580  0.5648 -0.5131 -0.3281
11065SOL    HW140310   1.351   2.776   4.617  0.0815  0.4439 -1.8655
11065SOL    HW240311   1.392   2.637   4.571  0.6224 -1.0634  2.6479
11066SOL     OW40312   8.101   0.860   0.445 -0.6057 -0.3517  1.1842
11066SOL    HW140313   8.118   0.954   0.449  1.7084 -0.4563 -2.0437
11066SOL    HW240314   8.023   0.853   0.389  0.0563 -0.3539  0.2447
11067SOL     OW40315   8.757   7.761   0.551 -0.3345  0.5254 -0.1652
11067SOL    HW140316   8.742   7.786   0.460 -0.1009  1.3974  0.0280
11067SOL    HW240317   8.732   7.838   0.602 -0.5006  0.0302  0.5158
11068SOL     OW40318   4.330  11.685  11.557  0.1488  0.2056 -0.0274
11068SOL    HW140319   4.346  11.640  11.473  3.3838  0.7143  0.1836
11068SOL    HW240320   4.307  11.774  11.532  0.8902  0.3015 -0.4022
11069SOL     OW40321   3.560   7.069   0.964  0.3593  0.4711 -0.1620
11069SOL    HW140322   3.651   7.045   0.978  0.0241 -0.5367  0.4164
11069SOL    HW240323   3.560   7.121   0.884  1.4174  0.3428 -0.2516
11070SOL     OW40324   3.908   6.771   1.978 -0.8992 -0.0122 -0.5518
11070SOL    HW140325   3.972   6.763   2.048  1.1562  0.3437 -2.2872
11070SOL    HW240326   3.914   6.687   1.931 -1.3051  0.2334 -1.0509
11071SOL     OW40327   2.816   2.667   0.101 -0.2467  0.1146 -0.1232
11071SOL    HW140328   2.892   2.696   0.152  1.0734 -0.8075 -1.4800
11071SOL    HW240329   2.840   2.580   0.070 -1.8280 -0.1418 -0.6994
11072SOL     OW40330   5.858   1.246   1.628  0.0173 -1.1112  0.2080
11072SOL    HW140331   5.879   1.233   1.721  1.2395  2.0780  0.4805
11072SOL    HW240332   5.796   1.318   1.627  0.4838 -0.6921 -1.4820
11073SOL     OW40333   7.305   1.862   7.218  0.7352 -0.1898  0.1832
11073SOL    HW140334   7.247   1.788   7.236  1.2748 -0.3161  1.6087
11073SOL    HW240335   7.353   1.836   7.139 -2.1194  0.5717 -1.9280
11074SOL     OW40336   9.983   9.742   8.533  0.3229  0.2892  0.4858
11074SOL    HW140337   9.927   9.764   8.459 -1.5552 -0.8020  1.5045
11074SOL    HW240338   9.938   9.778   8.609  0.9045 -0.7594  1.3602
11075SOL     OW40339  12.706   7.073   6.606  0.0618  0.3464  0.7754
11075SOL    HW140340  12.666   7.159   6.619 -1.8059 -0.4550  0.7850
11075SOL    HW240341  12.712   7.062   6.511 -1.4056 -0.1839  0.7086
11076SOL     OW40342  10.224   0.230   9.446  0.2791 -0.2772 -0.6806
11076SOL    HW140343  10.310   0.192   9.462  0.6243  0.8409  0.2798
11076SOL    HW240344  10.240   0.323   9.436 -0.7128 -0.1799 -1.5162
11077SOL     OW40345   2.711   1.867   8.848  0.2647 -0.3497  0.0061
11077SOL    HW140346   2.806   1.857   8.847  0.3335  0.0682  0.9720
11077SOL    HW240347   2.698   1.962   8.853 -0.2602 -0.1929 -2.9279
11078SOL     OW40348   3.902   4.082   1.223 -0.0400 -0.2591 -0.3519
11078SOL    HW140349   3.818   4.123   1.204 -0.5733 -1.3954 -0.5450
11078SOL    HW240350   3.882   3.989   1.231  1.1636 -0.5202 -0.1474
11079SOL     OW40351   9.874   1.438   9.110  0.3598  0.5830  0.1236
11079SOL    HW140352   9.848   1.386   9.034 -0.5308  1.4064 -0.1572
11079SOL    HW240353   9.920   1.376   9.167  2.2080  0.2369 -1.6306
11080SOL     OW40354   6.047   9.890  11.496 -0.0077 -0.2808 -0.0925
11080SOL    HW140355   6.075   9.972  11.538  0.2354 -0.7828  0.7365
11080SOL    HW240356   6.129   9.846  11.473 -0.1090  0.4978 -2.1704
11081SOL     OW40357   2.795  11.049   0.895  0.4623  0.0934  0.7713
11081SOL    HW140358   2.712  11.095   0.908 -0.3227 -0.6794 -1.1020
11081SOL    HW240359   2.818  11.067   0.804  2.9729  1.2036  1.5475
11082SOL     OW40360  11.293   8.043   9.473 -0.5541  0.6537 -0.2441
11082SOL    HW140361  11.303   8.035   9.568  0.2021  2.3245 -0.1531
11082SOL    HW240362  11.366   7.992   9.437 -0.1149  1.0294  0.1050
11083SOL     OW40363  11.514   3.815   2.890  0.2029 -0.0324  0.2476
11083SOL    HW140364  11.587   3.833   2.831 -0.4697 -2.3804 -1.4307
11083SOL    HW240365  11.555   3.799   2.975  1.3763  1.2437 -0.0392
11084SOL     OW40366   3.721   7.823   0.885  0.4801  0.9106 -0.2501
11084SOL    HW140367   3.761   7.876   0.816  2.7742  0.0221  0.3058
11084SOL    HW240368   3.769   7.741   0.883  1.3935  1.2215  3.0596
11085SOL     OW40369   0.456   4.119   9.290  0.0114  0.6300  0.1571
11085SOL    HW140370   0.385   4.139   9.350  0.2630  1.3416  0.2352
11085SOL    HW240371   0.532   4.104   9.346 -0.7393 -3.6349  0.3262
11086SOL     OW40372   7.799   4.791   3.607  0.0892  0.0841  0.5713
11086SOL    HW140373   7.811   4.704   3.569 -0.6926 -0.5548  1.7335
11086SOL    HW240374   7.734   4.832   3.551  0.3894 -0.0991  0.0728
11087SOL     OW40375   8.755   1.581   5.340  0.2783 -0.3742 -0.4972
11087SOL    HW140376   8.716   1.659   5.379 -0.8263 -0.3422 -1.6449
11087SOL    HW240377   8.849   1.592   5.355 -0.0352 -0.1696  1.7872
11088SOL     OW40378   7.053   6.719   4.716 -0.0155 -0.0718  0.6598
11088SOL    HW140379   6.961   6.694   4.713  0.1133 -0.4923 -0.1073
11088SOL    HW240380   7.100   6.636   4.716  0.4266  0.0905 -2.1661
11089SOL     OW40381   7.232   4.571  11.013  0.1025 -0.0212 -0.1940
11089SOL    HW140382   7.312   4.544  10.967  1.6492  1.7618  1.2666
11089SOL    HW240383   7.183   4.623  10.950  0.4951 -0.4513 -0.8596
11090SOL     OW40384   1.537   6.210   0.397  0.0703  0.3453  0.3599
11090SOL    HW140385   1.620   6.162   0.407 -0.7538 -1.1439  0.3746
11090SOL    HW240386   1.490   6.195   0.479  0.3009  2.3112  0.9099
11091SOL     OW40387  11.465  11.579   1.759  0.2117 -0.2240 -0.5986
11091SOL    HW140388  11.375  11.545   1.753 -0.3094  1.2302 -1.9440
11091SOL    HW240389  11.517  11.517   1.708 -0.0084 -1.0773  0.1817
11092SOL     OW40390   1.358  11.478   6.275  0.0995 -0.2052  0.2162
11092SOL    HW140391   1.328  11.387   6.284  0.3019 -0.3886 -0.9227
11092SOL    HW240392   1.282  11.525   6.242 -0.3536  0.2912  1.8556
11093SOL     OW40393  12.247   6.473   6.022  0.1225  0.3336  0.1362
11093SOL    HW140394  12.214   6.527   5.950 -4.0230 -1.3110  0.4783
11093SOL    HW240395  12.296   6.403   5.978 -0.6280  0.4648 -0.9718
11094SOL     OW40396   5.441   5.395  12.594  0.3542  0.2202  0.1068
11094SOL    HW140397   5.507   5.386  12.526 -0.0092  0.7545 -0.3241
11094SOL    HW240398   5.465   5.475  12.641 -1.0830  1.5839 -1.3223
11095SOL     OW40399   9.651   1.361   7.172 -0.1604  0.0147 -0.1782
11095SOL    HW140400   9.646   1.450   7.205  2.4774  0.3504 -0.4637
11095SOL    HW240401   9.612   1.366   7.084 -0.8279  0.6737  0.1438
11096SOL     OW40402   3.038   8.333   2.586 -0.2481 -0.2198  0.1683
11096SOL    HW140403   3.130   8.353   2.599  0.4149 -3.0419  0.5276
11096SOL    HW240404   3.017   8.270   2.656 -2.2999 -0.0273 -0.2132
11097SOL     OW40405   6.975   2.448   8.401  0.0280  0.3286  0.2100
11097SOL    HW140406   6.940   2.377   8.348 -2.6531  1.4247  0.3411
11097SOL    HW240407   7.064   2.462   8.368 -0.8563 -0.2990 -2.6954
11098SOL     OW40408   1.928   1.667   4.680 -0.7474  0.0413 -0.2942
11098SOL    HW140409   1.863   1.643   4.614 -0.5324 -0.9204 -0.1664
11098SOL    HW240410   2.010   1.675   4.632 -0.6064 -0.5812 -0.1736
11099SOL     OW40411   2.678   5.550   7.328 -0.7945  0.2098 -0.3709
11099SOL    HW140412   2.589   5.554   7.362  0.5024  1.2963  3.3977
11099SOL    HW240413   2.712   5.639   7.341  1.0951 -0.3734 -0.9980
11100SOL     OW40414   7.672   3.944   7.743 -0.2940  0.0757  0.0131
11100SOL    HW140415   7.682   4.000   7.820  0.5107 -2.0041  1.5197
11100SOL    HW240416   7.578   3.930   7.736 -0.3467 -0.1250  0.9585
11101SOL     OW40417   3.519   0.900   8.491 -0.2363 -0.2623  0.1154
11101SOL    HW140418   3.512   0.995   8.481  0.3250 -0.3332 -1.1793
11101SOL    HW240419   3.452   0.864   8.434 -0.5420 -0.6568  0.7086
11102SOL     OW40420   1.711   4.951   9.701 -0.3958  0.1510  0.3124
11102SOL    HW140421   1.674   4.934   9.615 -0.4122  0.8605  0.1751
11102SOL    HW240422   1.795   4.906   9.702 -0.7604 -0.5358  0.2215
11103SOL     OW40423  12.000   0.183   1.413  0.1984 -0.1798  0.6062
11103SOL    HW140424  12.066   0.249   1.397 -0.7109  0.7765  0.6884
11103SOL    HW240425  11.972   0.154   1.326 -1.1110  1.3162  0.4893
11104SOL     OW40426   4.822   6.948  11.820  0.3986  0.1464 -0.7410
11104SOL    HW140427   4.885   6.973  11.752 -1.9541  1.8732 -2.4095
11104SOL    HW240428   4.798   7.030  11.862  1.4309 -0.8259  2.0067
11105SOL     OW40429  11.984   5.033  11.355 -0.0502  0.4510  0.0150
11105SOL    HW140430  12.078   5.037  11.337  0.5874 -0.1807  2.7564
11105SOL    HW240431  11.960   4.943  11.335  0.2475  0.2334  0.6165
11106SOL     OW40432   4.403  12.004   7.278  0.1177  0.3284  0.2341
11106SOL    HW140433   4.377  12.095   7.262 -1.2538 -0.1141 -0.1692
11106SOL    HW240434   4.325  11.953   7.257  0.5829 -0.8795  1.3073
11107SOL     OW40435   6.631   9.422  10.214  0.0741 -0.0688 -0.0535
11107SOL    HW140436   6.693   9.349  10.217 -0.5632 -0.7190 -1.5106
11107SOL    HW240437   6.613   9.443  10.306  0.9455 -1.1630  0.3825
11108SOL     OW40438   0.211   4.118   2.036  0.2361  0.3699 -0.2680
11108SOL    HW140439   0.199   4.211   2.017 -2.2842  0.3789  0.8849
11108SOL    HW240440   0.241   4.115   2.126 -2.1296  0.0971  0.5788
11109SOL     OW40441   3.883  12.164  11.738  0.9277 -0.1417 -0.3558
11109SOL    HW140442   3.804  12.193  11.784  0.0401 -0.7599 -1.4466
11109SOL    HW240443   3.855  12.088  11.688  2.0243  0.1352 -1.4233
11110SOL     OW40444   9.583  12.172   2.349 -0.1388 -0.1713  0.0238
11110SOL    HW140445   9.629  12.256   2.355 -0.5402  0.1040 -0.6374
11110SOL    HW240446   9.649  12.107   2.374 -0.2305  0.4335  2.0011
11111SOL     OW40447   9.139   1.299   5.482 -0.5467 -0.1653  0.5418
11111SOL    HW140448   9.141   1.209   5.516  0.6166 -0.3485  0.0348
11111SOL    HW240449   9.161   1.354   5.556 -0.5590 -0.3541  0.6857
11112SOL     OW40450   7.083   1.541   3.019 -0.8649  0.1211  0.0273
11112SOL    HW140451   7.153   1.547   2.955 -0.0678 -0.8823  0.7683
11112SOL    HW240452   7.117   1.482   3.087 -3.1100 -2.0288 -0.5316
11113SOL     OW40453   9.678   6.192   5.373  0.0353 -0.1917  0.0794
11113SOL    HW140454   9.638   6.263   5.422  1.3578  0.4073  0.3418
11113SOL    HW240455   9.615   6.121   5.376 -2.2365  1.5713 -1.8405
11114SOL     OW40456   2.375   7.094   8.837 -0.0291 -0.1948  0.2229
11114SOL    HW140457   2.440   7.037   8.876  0.8741 -0.1227 -1.1302
11114SOL    HW240458   2.425   7.159   8.787 -1.1076 -0.7934 -1.7703
11115SOL     OW40459  12.279   4.014  12.068  0.1856  0.0119 -0.1101
11115SOL    HW140460  12.329   4.084  12.110 -0.9789  0.5504  0.4345
11115SOL    HW240461  12.245   4.053  11.988 -1.5489  0.5379  0.8270
11116SOL     OW40462   8.390   4.502  12.837  0.2042 -0.3610  0.3539
11116SOL    HW140463   8.374   4.552  12.917 -2.8903  0.1300 -0.4037
11116SOL    HW240464   8.382   4.411  12.863 -1.9791 -0.1823  0.5008
11117SOL     OW40465  12.116   8.938   1.035 -0.1778  0.3578 -0.5045
11117SOL    HW140466  12.022   8.955   1.032 -0.0035  1.3387 -0.9007
11117SOL    HW240467  12.141   8.929   0.943  0.2865  1.1833 -0.4673
11118SOL     OW40468   3.005   7.584   4.423  0.1867 -0.1530 -0.1513
11118SOL    HW140469   2.941   7.570   4.354  1.2103 -1.2841 -0.9101
11118SOL    HW240470   3.090   7.583   4.378  0.7276  3.2835  0.4992
11119SOL     OW40471   0.007   5.885   7.753  0.5026  0.0880 -0.1248
11119SOL    HW140472   0.053   5.843   7.680 -1.8501  1.3385 -2.4542
11119SOL    HW240473   0.011   5.978   7.734 -0.2194  0.4506  1.3412
11120SOL     OW40474  11.890   6.497   6.671  0.1887  0.4687 -0.3045
11120SOL    HW140475  11.900   6.420   6.615  0.7141  0.9354 -0.8659
11120SOL    HW240476  11.979   6.516   6.701  0.2541  1.5784 -1.1537
11121SOL     OW40477   7.598   6.278   4.958  0.7738 -0.5224 -0.2899
11121SOL    HW140478   7.539   6.351   4.939  0.5242 -0.4627  0.6720
11121SOL    HW240479   7.686   6.316   4.953  0.5971  0.2224  1.6764
11122SOL     OW40480   3.583   7.446   9.672  0.3924 -0.6419 -0.1398
11122SOL    HW140481   3.666   7.456   9.625  0.0271 -2.0888 -1.1617
11122SOL    HW240482   3.519   7.424   9.604 -0.5554 -0.8826  0.8047
11123SOL     OW40483   1.330  11.399  10.412  0.2188  0.0682  0.0095
11123SOL    HW140484   1.372  11.318  10.440 -3.0288 -1.3785  1.2932
11123SOL    HW240485   1.290  11.378  10.327 -2.3592 -0.4887  1.2623
11124SOL     OW40486  11.756  11.528   1.195  0.0025 -0.5964 -0.6411
11124SOL    HW140487  11.773  11.550   1.287  0.0105 -1.5231 -0.4144
11124SOL    HW240488  11.683  11.585   1.170 -0.1913 -0.5404  0.0306
11125SOL     OW40489   9.765   4.660   4.403 -0.8629  0.3550 -0.2522
11125SOL    HW140490   9.740   4.621   4.487  1.5555 -1.2654 -0.1843
11125SOL    HW240491   9.860   4.672   4.410 -0.7655  1.1340 -2.3748
11126SOL     OW40492  11.636   3.173   5.089  0.0364  0.7662 -0.1144
11126SOL    HW140493  11.597   3.261   5.083  1.5303  1.4342 -0.4210
11126SOL    HW240494  11.659   3.163   5.181  1.1230  1.2684 -0.3249
11127SOL     OW40495   3.084   8.868   4.290  0.1688 -0.1904 -0.7506
11127SOL    HW140496   2.997   8.885   4.254  0.2621 -1.5658 -1.6986
11127SOL    HW240497   3.076   8.784   4.335  0.3203  1.0054  1.6307
11128SOL     OW40498   6.868  11.284   6.152 -0.7804  0.6842  0.3361
11128SOL    HW140499   6.883  11.300   6.245 -0.7558  1.5296  0.1907
11128SOL    HW240500   6.875  11.370   6.111 -0.5575  0.2866 -0.4836
11129SOL     OW40501   4.995   3.539  12.579  0.2645  0.1576 -0.1753
11129SOL    HW140502   4.950   3.504  12.656  1.8445  1.5899  1.5144
11129SOL    HW240503   5.087   3.516  12.593  0.7952  1.7235 -0.8305
11130SOL     OW40504   7.959   5.673   4.572  0.2364  0.1061 -0.1352
11130SOL    HW140505   8.052   5.697   4.571  0.3911 -0.4793 -0.3885
11130SOL    HW240506   7.916   5.744   4.524  0.6144  0.1429 -0.4263
11131SOL     OW40507  10.911   6.922  12.341  0.3642  0.1526 -0.1390
11131SOL    HW140508  10.963   6.845  12.365 -0.0427  0.2548  1.1491
11131SOL    HW240509  10.976   6.988  12.316  0.7500 -0.3544 -0.4830
11132SOL     OW40510  11.718   0.327  12.711 -0.3437 -0.0816 -0.0543
11132SOL    HW140511  11.768   0.247  12.726 -0.2223  0.3389  1.9285
11132SOL    HW240512  11.766   0.395  12.757 -0.9738  0.9674 -0.9071
11133SOL     OW40513   9.250   8.227   5.053  0.0790  0.1813 -0.5951
11133SOL    HW140514   9.176   8.272   5.012 -1.2710 -0.2045  1.2625
11133SOL    HW240515   9.288   8.175   4.983  0.3881  2.5353 -2.2897
11134SOL     OW40516  12.948   5.421   3.329  0.2842  0.5436 -0.1385
11134SOL    HW140517  12.995   5.365   3.392  0.8193 -0.3675 -1.3174
11134SOL    HW240518  12.976   5.510   3.351  1.3244  0.1437  0.2177
11135SOL     OW40519  12.078   2.217   8.774  0.2184  0.0888  0.4994
11135SOL    HW140520  12.118   2.152   8.832 -1.4600 -1.2741  0.2288
11135SOL    HW240521  11.990   2.182   8.757 -0.0793  1.5297 -1.1550
11136SOL     OW40522   0.561   8.068   5.155  0.3022 -0.2582 -0.3535
11136SOL    HW140523   0.620   8.052   5.082  0.1367 -1.3177 -0.2790
11136SOL    HW240524   0.595   8.013   5.226  0.9909  1.4218  0.6918
11137SOL     OW40525   0.322  10.804   2.916 -0.5230  0.3321  0.2676
11137SOL    HW140526   0.387  10.744   2.879 -0.9561  0.5807 -0.9104
11137SOL    HW240527   0.269  10.749   2.973 -1.5999 -0.6774 -1.6259
11138SOL     OW40528   6.210   0.467   9.851  0.1838 -0.1580  0.4737
11138SOL    HW140529   6.154   0.538   9.820  0.2411 -0.5177 -0.4779
11138SOL    HW240530   6.294   0.510   9.870 -0.4324  0.4168  2.0927
11139SOL     OW40531   6.656   3.834  12.709  0.0629 -0.2632  0.7995
11139SOL    HW140532   6.583   3.788  12.752 -1.1694  0.0792 -0.8456
11139SOL    HW240533   6.625   3.924  12.701  0.1997 -0.3463 -0.8824
11140SOL     OW40534   5.221   5.403  12.432 -0.0798  0.1695 -0.2338
11140SOL    HW140535   5.310   5.408  12.467 -0.2897 -2.3063  0.8795
11140SOL    HW240536   5.232   5.393  12.338  0.9460 -1.4188  0.0174
11141SOL     OW40537   0.764   8.168   0.588  0.1822 -0.4676 -1.1843
11141SOL    HW140538   0.829   8.142   0.523  0.7771 -0.2132 -0.7029
11141SOL    HW240539   0.685   8.185   0.538  0.4901 -0.7678 -1.7801
11142SOL     OW40540   6.898   8.173  11.829 -0.4742 -0.0670  0.0555
11142SOL    HW140541   6.904   8.089  11.784 -1.5031  0.7342 -1.6680
11142SOL    HW240542   6.983   8.184  11.871  0.5578 -0.8552 -1.7284
11143SOL     OW40543   3.540   2.093   7.287 -0.1383 -0.0939 -0.0532
11143SOL    HW140544   3.446   2.086   7.272 -0.4190  1.9104  0.4474
11143SOL    HW240545   3.551   2.075   7.381 -0.4647  2.4031  0.5441
11144SOL     OW40546   9.838  11.282  12.140 -0.4538  0.0644  0.1606
11144SOL    HW140547   9.752  11.247  12.118 -0.6546 -0.7842  2.1007
11144SOL    HW240548   9.892  11.259  12.064 -0.9139 -3.3991  0.7022
11145SOL     OW40549   0.352   4.280   6.387  0.1785 -0.0787 -0.0946
11145SOL    HW140550   0.401   4.250   6.463  0.7972  0.7004 -0.1781
11145SOL    HW240551   0.413   4.272   6.314 -0.4290 -0.8814 -0.5435
11146SOL     OW40552   9.057   1.721  11.110  0.1792 -0.0071  0.6484
11146SOL    HW140553   9.076   1.814  11.101 -0.1421  0.0075  0.0639
11146SOL    HW240554   9.104   1.694  11.188  2.7016  0.0044 -0.7704
11147SOL     OW40555   0.358   8.741   3.086  0.4961 -0.0866 -0.3609
11147SOL    HW140556   0.378   8.650   3.063 -0.7906 -0.5461  0.2463
11147SOL    HW240557   0.265   8.740   3.109  0.5298  1.3388 -0.0752
11148SOL     OW40558  10.365   7.586  11.891 -0.1291 -0.5030  0.0817
11148SOL    HW140559  10.454   7.619  11.885  0.0228 -0.7502  0.8483
11148SOL    HW240560  10.344   7.590  11.984 -0.3332 -1.9402  0.1198
11149SOL     OW40561   3.600   2.341  10.331  0.0870 -0.7267 -0.3688
11149SOL    HW140562   3.613   2.431  10.301 -0.0913 -0.6099 -0.0974
11149SOL    HW240563   3.678   2.322  10.384 -0.1441 -0.5336  0.0449
11150SOL     OW40564   3.224  11.925   6.647  0.4134 -0.0880  0.5255
11150SOL    HW140565   3.245  11.843   6.603  2.5532  0.5684  0.2222
11150SOL    HW240566   3.213  11.989   6.577 -1.3754 -0.0934  0.7528
11151SOL     OW40567   7.755   3.368  11.009 -0.0473  0.3489  0.0390
11151SOL    HW140568   7.805   3.322  10.942  0.0630  1.0374 -0.3621
11151SOL    HW240569   7.682   3.310  11.028 -0.8006  0.6774 -1.6182
11152SOL     OW40570  10.124  12.867   4.978 -0.2929 -0.2862 -0.0551
11152SOL    HW140571  10.138  12.933   4.910  0.8923 -1.9771 -1.5441
11152SOL    HW240572  10.030  12.865   4.991 -0.4305  1.0158 -0.6505
11153SOL     OW40573   4.775   7.630   2.592 -0.0383 -0.1628 -0.2447
11153SOL    HW140574   4.712   7.702   2.593  1.1131  0.8801  1.4773
11153SOL    HW240575   4.727   7.557   2.632 -0.7227  0.0698 -0.6126
11154SOL     OW40576   2.116   3.660   0.703 -0.2114  0.3016  0.0754
11154SOL    HW140577   2.130   3.622   0.616  1.5362  0.0948  0.4233
11154SOL    HW240578   2.024   3.640   0.722 -0.3225 -0.6246 -1.2576
11155SOL     OW40579  10.495   5.201   7.064  0.4867 -0.0434 -0.0165
11155SOL    HW140580  10.515   5.280   7.014 -1.3263  1.2160  1.1049
11155SOL    HW240581  10.561   5.199   7.134  1.2341 -0.1685 -0.7167
11156SOL     OW40582   5.726   6.269   8.355 -0.2217 -0.3669  1.0766
11156SOL    HW140583   5.736   6.176   8.334 -0.1310 -0.3217  0.9227
11156SOL    HW240584   5.699   6.269   8.447  1.4521 -0.4836  1.5937
11157SOL     OW40585   1.838  11.083   3.673  0.5637  0.5173 -0.1941
11157SOL    HW140586   1.925  11.099   3.637  1.6423 -0.1996  1.9372
11157SOL    HW240587   1.815  10.995   3.642  2.2967 -0.8896  2.1726
11158SOL     OW40588   4.362   0.425   4.984  0.1461 -0.1202 -0.3043
11158SOL    HW140589   4.272   0.458   4.985 -1.1187 -3.2620 -0.0705
11158SOL    HW240590   4.356   0.338   4.944  3.0943 -0.4776 -0.2274
11159SOL     OW40591   9.109   6.567   8.590  0.2063  0.1060 -0.3106
11159SOL    HW140592   9.115   6.575   8.495 -0.0825  0.1956 -0.3202
11159SOL    HW240593   9.136   6.653   8.622  0.3471  0.0613 -0.3090
11160SOL     OW40594   5.107   4.101   2.066 -0.5955 -0.2893  0.0501
11160SOL    HW140595   5.036   4.155   2.030  0.5317  0.2307 -1.5207
11160SOL    HW240596   5.064   4.020   2.092 -2.2093  1.0187  1.7233
11161SOL     OW40597  10.208   3.939  10.149 -0.0270 -0.2646  0.0070
11161SOL    HW140598  10.203   4.029  10.181 -0.1900  0.1618 -1.1546
11161SOL    HW240599  10.120   3.919  10.118 -0.3327 -1.3166  1.4818
11162SOL     OW40600   7.806   8.108   0.657  0.4535 -0.4808  0.0921
11162SOL    HW140601   7.755   8.066   0.727  2.8122 -1.1346  1.5213
11162SOL    HW240602   7.799   8.048   0.583  0.4195 -1.3459  0.7804
11163SOL     OW40603  10.734   6.634  12.558 -0.2596  0.1675  0.1308
11163SOL    HW140604  10.702   6.714  12.600 -0.4971  0.6592 -0.9427
11163SOL    HW240605  10.690   6.563  12.604  1.4270  0.4898  2.4225
11164SOL     OW40606   8.040   0.028   7.598 -0.5464  0.4948  0.0534
11164SOL    HW140607   8.069   0.028   7.689  0.1725  0.6436 -0.1715
11164SOL    HW240608   7.962  -0.029   7.597 -0.1486 -0.0708  0.6310
11165SOL     OW40609  11.722   9.888   9.925 -0.3796 -0.1682 -0.8590
11165SOL    HW140610  11.780   9.830   9.974  1.8772  0.6306 -2.4754
11165SOL    HW240611  11.670   9.932   9.993 -0.2349 -2.0455  0.5341
11166SOL     OW40612  10.497   8.802   0.762  0.3504 -0.0828 -0.3814
11166SOL    HW140613  10.549   8.874   0.727  1.7585 -1.5756 -1.5267
11166SOL    HW240614  10.406   8.830   0.753  0.8708  1.6664 -0.4638
11167SOL     OW40615   3.517  10.946   9.193  0.0918 -0.1413  0.2340
11167SOL    HW140616   3.533  11.007   9.121 -2.7261  0.0128 -0.3939
11167SOL    HW240617   3.604  10.926   9.228  1.3455  1.7315 -1.5856
11168SOL     OW40618  10.451  10.940   2.549  0.2080 -0.0628  0.1467
11168SOL    HW140619  10.478  10.871   2.489  0.6783 -0.2006  0.5190
11168SOL    HW240620  10.506  11.015   2.525  1.2853 -0.4825  1.2162
11169SOL     OW40621   6.013  12.184  11.522 -0.1802 -0.2907  0.0055
11169SOL    HW140622   6.071  12.159  11.594 -1.1143 -0.2830  0.7867
11169SOL    HW240623   5.940  12.228  11.565  0.1410  1.4083 -1.1212
11170SOL     OW40624  12.229   1.824   9.265  0.1842 -0.3099 -0.4190
11170SOL    HW140625  12.285   1.828   9.188  0.2115  2.8110 -0.3495
11170SOL    HW240626  12.159   1.763   9.241  1.0866 -0.6933 -2.2443
11171SOL     OW40627   5.101  10.949   0.129 -0.6502 -0.3375  0.2141
11171SOL    HW140628   5.122  11.016   0.194 -0.1323  0.5539 -0.8426
11171SOL    HW240629   5.136  10.868   0.166 -0.4943  0.1264  1.1084
11172SOL     OW40630  11.780   9.338  11.171  0.6037  0.0928  0.1096
11172SOL    HW140631  11.795   9.416  11.118 -0.6499  0.3123  0.0326
11172SOL    HW240632  11.858   9.331  11.227  1.4986  0.4093 -1.0628
11173SOL     OW40633   2.523   8.624   3.913 -0.4465  0.1117 -0.1455
11173SOL    HW140634   2.532   8.683   3.838  0.3288 -0.0300 -0.1798
11173SOL    HW240635   2.499   8.539   3.875  3.1952 -0.8775 -0.6779
11174SOL     OW40636   7.127   3.663  10.356 -0.4330  0.0768  0.3300
11174SOL    HW140637   7.091   3.592  10.304  1.1201  0.0600 -0.7911
11174SOL    HW240638   7.213   3.631  10.384  0.3316  1.5173 -0.2721
11175SOL     OW40639   7.493  11.220   8.944 -0.1514 -0.0460 -0.5809
11175SOL    HW140640   7.399  11.203   8.950 -0.0679 -0.3574 -0.0626
11175SOL    HW240641   7.527  11.145   8.895 -0.1703  0.0539 -0.7455
11176SOL     OW40642   2.029   5.801   0.647 -0.0549 -0.4159  0.0499
11176SOL    HW140643   2.037   5.872   0.709 -1.2581 -0.7272  0.5967
11176SOL    HW240644   2.044   5.842   0.561  1.4450  0.0427  0.5007
11177SOL     OW40645   8.952   1.548   2.561 -0.1202  0.5025 -0.9838
11177SOL    HW140646   9.033   1.505   2.533 -0.2307  0.1049 -0.6992
11177SOL    HW240647   8.967   1.570   2.653 -1.3042 -1.9618 -0.1349
11178SOL     OW40648  12.128   9.727  12.461 -0.6169  0.6851 -0.3663
11178SOL    HW140649  12.081   9.690  12.386  2.5161 -0.3182 -2.0729
11178SOL    HW240650  12.204   9.669  12.471 -0.2724  1.5230  2.8663
11179SOL     OW40651   0.320   1.187  10.205 -0.1086 -0.1511  0.0751
11179SOL    HW140652   0.394   1.151  10.156 -0.5414  0.6910 -1.2612
11179SOL    HW240653   0.319   1.139  10.288  0.3964 -1.9422 -0.9167
11180SOL     OW40654   3.858   9.279  11.939  0.7730 -0.2958  0.6304
11180SOL    HW140655   3.906   9.258  11.859  0.6299  1.8360 -0.0881
11180SOL    HW240656   3.921   9.327  11.993 -0.2019  1.8341  0.0104
11181SOL     OW40657  11.929   9.433   3.569 -0.1988 -0.4257  0.6469
11181SOL    HW140658  11.928   9.519   3.611 -1.5564 -0.2411  0.2691
11181SOL    HW240659  12.015   9.398   3.591 -0.1556  0.4285  2.0070
11182SOL     OW40660   6.953  12.163   0.065 -0.7273 -0.3756  0.4502
11182SOL    HW140661   6.889  12.226   0.096  0.4872  0.9568  0.3507
11182SOL    HW240662   6.936  12.157  -0.029  0.3766  1.3417  0.0940
11183SOL     OW40663   3.506   7.586  10.224  0.1570  0.4716 -0.0013
11183SOL    HW140664   3.442   7.528  10.264  1.4913 -0.8567  0.3038
11183SOL    HW240665   3.549   7.533  10.157  0.2636  1.6338 -0.8926
11184SOL     OW40666   1.269   6.651   4.734 -0.6889 -0.7119  0.0319
11184SOL    HW140667   1.212   6.612   4.800  0.7371 -2.5516  0.2528
11184SOL    HW240668   1.358   6.629   4.762  0.0112 -0.6374 -1.9353
11185SOL     OW40669   7.927   3.881   6.981 -0.1335 -0.4384  0.6874
11185SOL    HW140670   7.931   3.844   7.069 -2.1825  0.2067  1.1110
11185SOL    HW240671   7.932   3.976   6.994  0.7168 -0.3652 -0.0211
11186SOL     OW40672  10.243   8.012   3.786  0.0608 -0.1391  0.1248
11186SOL    HW140673  10.309   8.079   3.806 -1.2783  0.9973  0.8835
11186SOL    HW240674  10.253   7.997   3.692 -0.2596  1.9037 -0.2880
11187SOL     OW40675   9.020   4.902  12.788  0.2364  0.4839 -0.3706
11187SOL    HW140676   8.987   4.978  12.740 -0.0307 -0.6174 -2.0593
11187SOL    HW240677   8.951   4.836  12.778  1.7290 -0.9896 -1.6972
11188SOL     OW40678   2.049   0.288   0.425  0.4585  0.0639 -0.0941
11188SOL    HW140679   1.977   0.247   0.472  0.4647 -0.9115 -0.9117
11188SOL    HW240680   2.117   0.220   0.422  0.6456  0.2892 -1.0679
11189SOL     OW40681  10.039  12.131  11.120 -0.1074  0.3398 -0.3665
11189SOL    HW140682  10.001  12.140  11.207 -0.1787  0.6380 -0.4279
11189SOL    HW240683  10.085  12.213  11.105 -0.8462  0.6589 -0.9692
11190SOL     OW40684   6.422   4.141  11.481  0.6390 -0.5847  0.2368
11190SOL    HW140685   6.457   4.058  11.515  0.0011 -0.4021  1.3555
11190SOL    HW240686   6.448   4.207  11.545 -0.3060 -0.1805  0.2177
11191SOL     OW40687   5.272   9.924   3.532  0.0066  0.0935 -0.1407
11191SOL    HW140688   5.362   9.941   3.559 -0.3267  2.5957 -0.3716
11191SOL    HW240689   5.255   9.834   3.560  1.5929  0.5571  2.6785
11192SOL     OW40690   9.746   7.213   5.072 -0.1949 -0.2729 -0.2988
11192SOL    HW140691   9.837   7.242   5.071 -0.7603  1.8972  1.7393
11192SOL    HW240692   9.701   7.270   5.011 -0.2653 -1.1730 -1.1103
11193SOL     OW40693   4.171   5.863   1.352 -0.0023 -0.1925 -0.7742
11193SOL    HW140694   4.082   5.829   1.351  0.6875 -2.2640  0.9767
11193SOL    HW240695   4.161   5.954   1.381 -1.5576 -0.2472 -1.0344
11194SOL     OW40696   9.223  12.253   8.988  0.0271  0.7556 -0.2139
11194SOL    HW140697   9.290  12.298   9.039  1.1215 -2.3300  1.3515
11194SOL    HW240698   9.143  12.263   9.040  0.4546  0.2222  0.5762
11195SOL     OW40699   4.841  12.064   8.274 -0.2972 -0.2118 -0.4279
11195SOL    HW140700   4.904  12.001   8.310  0.0083  0.7283  0.7642
11195SOL    HW240701   4.851  12.057   8.179  1.6604 -0.0445 -0.2746
11196SOL     OW40702   7.605   2.348   8.699 -0.0164 -0.1193  0.3170
11196SOL    HW140703   7.683   2.294   8.686 -0.4559 -1.0511  1.3842
11196SOL    HW240704   7.532   2.286   8.700 -0.7785  0.7272 -0.5863
11197SOL     OW40705  12.763  11.025   1.006  0.0510  0.0717  0.3063
11197SOL    HW140706  12.709  11.062   0.937  0.9437  0.0096 -0.4448
11197SOL    HW240707  12.700  10.989   1.069 -0.7792  0.6588 -0.1737
11198SOL     OW40708   8.973   5.881   5.765  0.6231  0.1157 -0.0340
11198SOL    HW140709   9.031   5.902   5.692  1.0929 -2.0154 -0.3524
11198SOL    HW240710   8.934   5.796   5.742 -2.8322  1.5011  0.0766
11199SOL     OW40711   6.248   5.002   8.039  0.1568  0.5324 -0.2958
11199SOL    HW140712   6.227   5.095   8.034 -1.8941  0.0761 -1.1626
11199SOL    HW240713   6.305   4.994   8.116 -1.5556  2.1813  1.2421
11200SOL     OW40714   7.801   0.360   6.740 -0.3228  0.3720 -0.2493
11200SOL    HW140715   7.782   0.316   6.657  0.9526 -2.4482  0.8143
11200SOL    HW240716   7.756   0.306   6.806  2.1937 -0.0403  1.2426
11201SOL     OW40717   4.518   0.692   0.405 -0.4331 -0.4608  0.7071
11201SOL    HW140718   4.491   0.771   0.360 -2.0329 -1.4861 -0.2163
11201SOL    HW240719   4.612   0.686   0.389 -0.8827 -0.7009 -2.4803
11202SOL     OW40720  12.315   0.904  11.884  0.1035  0.2129 -0.5851
11202SOL    HW140721  12.372   0.980  11.892  0.7657 -0.3306 -0.0046
11202SOL    HW240722  12.239   0.925  11.938  0.5164  0.2592 -0.0118
11203SOL     OW40723   2.603   2.007   1.297  0.0337  0.5358  0.5636
11203SOL    HW140724   2.572   1.925   1.260 -2.0625  1.1650  0.8287
11203SOL    HW240725   2.698   1.995   1.304  0.0789 -0.9207 -1.6357
11204SOL     OW40726   4.814   5.314  11.753 -0.4868  0.5321  0.2587
11204SOL    HW140727   4.878   5.253  11.718 -0.7319 -1.1358  2.4859
11204SOL    HW240728   4.860   5.361  11.823 -1.5821 -0.5847  1.7882
11205SOL     OW40729   9.794   2.437   1.848 -0.1547  0.3565 -0.7440
11205SOL    HW140730   9.805   2.522   1.891 -1.3711  0.8156 -1.2758
11205SOL    HW240731   9.705   2.410   1.872 -0.3567 -0.0100 -1.8583
11206SOL     OW40732  11.324  10.861   7.667  0.0058  0.1250 -0.4195
11206SOL    HW140733  11.386  10.795   7.700 -0.0015  0.3162 -0.0158
11206SOL    HW240734  11.347  10.871   7.575  1.4094  1.1020 -0.0098
11207SOL     OW40735   6.540  11.009   2.097  0.2168  0.2619 -0.0102
11207SOL    HW140736   6.587  11.068   2.038  0.3153  1.0152  0.7954
11207SOL    HW240737   6.609  10.970   2.151 -0.0922  1.8264  1.5864
11208SOL     OW40738   6.234   0.960   7.266 -0.2362 -0.0207 -0.4070
11208SOL    HW140739   6.215   1.038   7.214  1.1847 -0.9978 -2.5301
11208SOL    HW240740   6.326   0.969   7.290 -0.5407 -0.2018  0.9093
11209SOL     OW40741   5.530  10.343   2.328 -0.4080  0.3362  0.3844
11209SOL    HW140742   5.564  10.391   2.404 -0.3465 -0.9927  1.2205
11209SOL    HW240743   5.593  10.272   2.314 -2.0509 -1.3669  1.1315
11210SOL     OW40744   0.543   4.546   4.628  0.2762 -0.3783  0.4822
11210SOL    HW140745   0.592   4.627   4.644  1.3759 -1.1235  1.0143
11210SOL    HW240746   0.539   4.504   4.714 -0.6108 -0.7143  0.2818
11211SOL     OW40747   8.226   6.259  12.434 -0.0247 -0.2531 -0.4823
11211SOL    HW140748   8.272   6.189  12.388 -1.3463 -1.1112 -0.5676
11211SOL    HW240749   8.253   6.339  12.389  0.4279 -0.8566 -1.3197
11212SOL     OW40750  11.858  12.823   4.506  0.0510  0.5758 -0.0232
11212SOL    HW140751  11.863  12.728   4.494 -0.4342  0.4513  0.6799
11212SOL    HW240752  11.950  12.851   4.511  0.1967  0.1016  0.0541
11213SOL     OW40753   1.282   3.463   9.366 -0.6447 -0.4817  0.1433
11213SOL    HW140754   1.276   3.532   9.300 -1.2643 -1.0997 -0.4659
11213SOL    HW240755   1.243   3.386   9.324 -3.3242 -0.2839  2.0793
11214SOL     OW40756  11.919  12.313   8.321 -0.2500  0.1610  0.1765
11214SOL    HW140757  11.828  12.302   8.293  0.0016 -0.5271 -0.4090
11214SOL    HW240758  11.913  12.346   8.410 -1.0788  1.3663 -0.2915
11215SOL     OW40759  12.924   8.615   4.649 -0.4864 -0.4078 -0.4923
11215SOL    HW140760  12.834   8.584   4.651 -0.9063  0.7410  1.9092
11215SOL    HW240761  12.917   8.706   4.619 -0.1709 -0.2033  0.0459
11216SOL     OW40762  12.686  11.385   2.293 -0.3770 -0.1758 -0.4169
11216SOL    HW140763  12.623  11.432   2.348 -0.9955 -0.8495 -0.5264
11216SOL    HW240764  12.771  11.404   2.332 -0.8880 -1.7016  1.5952
11217SOL     OW40765   4.600   6.903  10.141 -0.5196  0.2151 -0.1801
11217SOL    HW140766   4.596   6.975  10.205 -1.1090  0.4768 -0.5030
11217SOL    HW240767   4.638   6.943  10.063 -2.9840  0.8153 -1.1605
11218SOL     OW40768   9.741   6.438   3.515 -0.7270 -0.0924  0.0664
11218SOL    HW140769   9.667   6.468   3.462  0.4558 -1.7036 -2.7430
11218SOL    HW240770   9.712   6.355   3.552 -0.8221 -0.0315  0.1280
11219SOL     OW40771   5.079   4.906  12.967  0.4722  0.2400  0.0652
11219SOL    HW140772   5.147   4.918  12.900  0.4819 -1.6008 -0.3069
11219SOL    HW240773   5.048   4.995  12.986  1.5905  0.9415 -1.2044
11220SOL     OW40774   2.501   6.056   9.557  0.2293  0.0324  0.0054
11220SOL    HW140775   2.514   6.132   9.500  0.6044  0.0827  0.1530
11220SOL    HW240776   2.563   6.069   9.629  1.1889 -1.0237 -0.5946
11221SOL     OW40777   5.463   9.879   2.200  0.1886  0.2902 -0.6169
11221SOL    HW140778   5.452   9.909   2.109  0.2593 -1.0555 -1.0850
11221SOL    HW240779   5.385   9.911   2.245 -0.1470  0.4561 -1.2971
11222SOL     OW40780  11.953   0.548  12.443 -0.1528  0.1001 -0.0155
11222SOL    HW140781  11.959   0.642  12.461 -2.3760  0.4331 -0.8047
11222SOL    HW240782  11.860   0.532  12.430  0.2319 -2.1668 -0.2623
11223SOL     OW40783   3.520  10.123   5.363 -0.1648  0.1360 -0.3603
11223SOL    HW140784   3.465  10.085   5.431 -0.8206  3.4072  1.1697
11223SOL    HW240785   3.608  10.092   5.382 -0.8988 -2.3382 -0.6814
11224SOL     OW40786  11.345   8.612   8.335 -0.4422  0.0815  0.4993
11224SOL    HW140787  11.388   8.613   8.250 -0.4872  1.7363  0.4708
11224SOL    HW240788  11.252   8.621   8.315 -0.4662  0.3214  0.7149
11225SOL     OW40789   7.163   7.634  12.418  0.0543 -0.2352 -0.1486
11225SOL    HW140790   7.073   7.646  12.388 -0.1287 -0.7615  0.1789
11225SOL    HW240791   7.188   7.719  12.454  0.2523  0.3891 -1.6985
11226SOL     OW40792   0.478   1.281  11.177 -0.5120 -0.6850  0.1194
11226SOL    HW140793   0.519   1.367  11.189  0.4620 -1.0417 -0.5306
11226SOL    HW240794   0.413   1.275  11.247 -1.0115  0.8236 -0.1638
11227SOL     OW40795  10.197  12.640   6.718 -0.0724  0.2631 -0.1370
11227SOL    HW140796  10.155  12.688   6.789  0.5398 -0.6629  0.8838
11227SOL    HW240797  10.247  12.571   6.761  0.6999 -0.0437 -1.4416
11228SOL     OW40798   9.236   9.434   7.119 -0.3352 -0.0363  0.4028
11228SOL    HW140799   9.195   9.505   7.168 -0.4852  0.9135 -1.0311
11228SOL    HW240800   9.179   9.358   7.135 -1.2109  0.6195  0.5100
11229SOL     OW40801   7.506  11.569  10.873  0.7326 -0.0654 -0.2915
11229SOL    HW140802   7.568  11.512  10.827  0.5844 -1.1258  0.7726
11229SOL    HW240803   7.540  11.573  10.963 -0.8273 -0.8414  0.3602
11230SOL     OW40804   7.848  12.093   1.845  0.5004  0.4350 -0.0123
11230SOL    HW140805   7.766  12.049   1.824  1.0426 -0.5789 -0.0390
11230SOL    HW240806   7.880  12.127   1.761  0.8413 -0.4604 -0.2554
11231SOL     OW40807   0.948   7.686   8.354 -0.7899 -0.3289  0.1522
11231SOL    HW140808   0.986   7.747   8.417 -1.4921  0.2362  0.0430
11231SOL    HW240809   0.982   7.716   8.269  0.0044 -0.9742  0.2297
11232SOL     OW40810   2.314  10.406   8.439  0.1766  0.0992  0.1801
11232SOL    HW140811   2.332  10.342   8.508  0.9811 -0.0094 -0.1138
11232SOL    HW240812   2.302  10.489   8.485 -0.6646 -0.2204  0.5479
11233SOL     OW40813   5.855  10.994   6.312 -0.5727 -0.3551  0.1719
11233SOL    HW140814   5.803  11.010   6.233  1.1947 -0.5625 -1.1112
11233SOL    HW240815   5.864  10.899   6.316  0.8105 -0.2741 -0.4250
11234SOL     OW40816   3.383   2.526   0.373 -0.0849  0.1101 -0.8967
11234SOL    HW140817   3.325   2.464   0.328  2.8624 -2.1836 -1.9088
11234SOL    HW240818   3.458   2.472   0.401  0.3580  2.3180  2.8113
11235SOL     OW40819   1.490  10.755   7.019 -0.5501 -0.3618  0.2888
11235SOL    HW140820   1.440  10.682   6.982 -1.0019  0.0671  0.0508
11235SOL    HW240821   1.574  10.716   7.044  0.7548 -0.2232 -3.3386
11236SOL     OW40822   5.858  10.917   2.042  0.3105 -0.2114  0.0905
11236SOL    HW140823   5.948  10.924   2.073  0.1360  0.9793  0.3405
11236SOL    HW240824   5.820  10.847   2.095  0.5677  0.5051  1.2527
11237SOL     OW40825   0.850   2.372   6.530 -0.4886  0.4967  0.7164
11237SOL    HW140826   0.828   2.346   6.440 -1.2382  0.8358  0.7955
11237SOL    HW240827   0.946   2.364   6.534 -0.6657 -3.0944  0.9926
11238SOL     OW40828  10.469   1.544   5.985  0.0858  0.0007 -0.3585
11238SOL    HW140829  10.505   1.595   5.913 -1.0871  2.6751  0.8312
11238SOL    HW240830  10.374   1.549   5.972 -0.1662  0.9207  1.5788
11239SOL     OW40831   9.652   7.090   7.191 -0.0003  0.0781 -0.0134
11239SOL    HW140832   9.660   7.157   7.124 -0.0419  0.7827  0.6718
11239SOL    HW240833   9.566   7.051   7.176 -0.0562  0.3076 -0.2939
11240SOL     OW40834   4.418   5.236   5.964 -0.5731 -0.6266 -0.4284
11240SOL    HW140835   4.371   5.154   5.975  0.9677 -1.3606  1.1938
11240SOL    HW240836   4.413   5.279   6.049  3.5733 -1.8896  0.7244
11241SOL     OW40837   6.371   1.592  11.310  0.0022 -0.4909  0.3987
11241SOL    HW140838   6.443   1.652  11.289  0.1770 -0.6732  0.4795
11241SOL    HW240839   6.413   1.506  11.318 -0.4367 -0.8646 -1.0359
11242SOL     OW40840   4.556   9.156   8.472 -0.1160 -0.6368 -0.3846
11242SOL    HW140841   4.471   9.171   8.432  0.4746 -2.3051 -2.4916
11242SOL    HW240842   4.549   9.068   8.511  0.6205 -0.7846 -0.5632
11243SOL     OW40843   8.444   7.052   0.686  0.1079 -0.0641 -0.1615
11243SOL    HW140844   8.447   7.139   0.648  1.1548 -0.0447 -0.0605
11243SOL    HW240845   8.379   7.005   0.633 -2.2063  1.4180  1.2210
11244SOL     OW40846   5.746  11.838   7.717 -0.1197  0.0355  0.3621
11244SOL    HW140847   5.672  11.823   7.777  0.7141  0.1179  1.4420
11244SOL    HW240848   5.730  11.779   7.644 -1.5980  0.5296  0.2507
11245SOL     OW40849   1.941  11.599   2.827 -0.5803  0.6670 -0.4588
11245SOL    HW140850   1.871  11.535   2.834  0.8543 -1.0146 -0.7306
11245SOL    HW240851   1.967  11.617   2.918 -1.9931  2.0957 -0.2980
11246SOL     OW40852  12.527   5.834   0.042 -0.0501  0.2749  0.5927
11246SOL    HW140853  12.457   5.899   0.051 -0.0222  0.1608  1.7598
11246SOL    HW240854  12.607   5.885   0.030 -0.1294  0.4366  0.7609
11247SOL     OW40855  10.160   6.250   5.887 -0.2542 -0.7224  0.1153
11247SOL    HW140856  10.103   6.238   5.812 -1.4100  0.5192  0.7469
11247SOL    HW240857  10.246   6.220   5.857 -0.7279 -0.4559 -1.6296
11248SOL     OW40858   8.567   2.819   5.025  0.3379  0.4101  0.4830
11248SOL    HW140859   8.623   2.891   5.055  1.4779  0.3926 -1.4456
11248SOL    HW240860   8.625   2.744   5.018 -0.9343 -0.9350  2.9375
11249SOL     OW40861  10.671   1.732   2.228  0.1059 -1.1559  0.1823
11249SOL    HW140862  10.642   1.697   2.144 -0.0236  0.6269 -0.5812
11249SOL    HW240863  10.752   1.778   2.208  1.0758 -2.2660  1.4184
11250SOL     OW40864   6.311   3.123   7.326 -1.1887 -0.6729  0.1170
11250SOL    HW140865   6.242   3.170   7.279  1.1372  3.2680  0.2246
11250SOL    HW240866   6.343   3.057   7.263  0.0563  2.6487 -3.0838
11251SOL     OW40867   3.614  12.878   7.334 -0.3649 -0.5577  0.0036
11251SOL    HW140868   3.658  12.879   7.419 -0.6627 -1.8100  0.1986
11251SOL    HW240869   3.680  12.842   7.274 -0.8210 -1.6389  0.1306
11252SOL     OW40870   8.308  10.110   5.902 -0.2593 -0.5111  0.6951
11252SOL    HW140871   8.215  10.126   5.885 -0.3490 -0.0878  1.5339
11252SOL    HW240872   8.351  10.125   5.818 -0.9377 -0.6111  0.3251
11253SOL     OW40873   3.428   6.088   0.910  0.0202  0.8394 -0.1460
11253SOL    HW140874   3.398   6.059   0.996 -1.2016  3.9708  0.6092
11253SOL    HW240875   3.488   6.160   0.928  1.7828 -0.0926 -1.9203
11254SOL     OW40876   5.526   7.934   0.626 -0.1817 -0.0414 -0.3057
11254SOL    HW140877   5.490   7.985   0.554 -1.3099 -0.7720 -0.2895
11254SOL    HW240878   5.615   7.966   0.636  0.1604 -0.2331 -2.3177
11255SOL     OW40879   6.058   8.782   9.811  0.0795 -0.1763 -0.2242
11255SOL    HW140880   5.969   8.778   9.777  0.4605  0.3398 -1.3186
11255SOL    HW240881   6.052   8.744   9.899 -1.3460  0.5310  0.0002
11256SOL     OW40882  10.399   6.117   8.451 -0.2672 -0.0240 -0.1221
11256SOL    HW140883  10.378   6.040   8.505 -0.6380 -0.4514 -0.8626
11256SOL    HW240884  10.451   6.082   8.379 -1.2921  0.2553 -1.0109
11257SOL     OW40885   8.666   9.676   7.485  0.3116  0.1589  0.3951
11257SOL    HW140886   8.635   9.622   7.558 -1.0429 -0.6128 -0.7167
11257SOL    HW240887   8.737   9.626   7.445 -2.4407 -2.1018 -2.0903
11258SOL     OW40888   5.387   5.875   9.159  0.2367 -0.3461 -0.1352
11258SOL    HW140889   5.386   5.953   9.104  0.0515 -0.8467 -0.8532
11258SOL    HW240890   5.402   5.802   9.098 -0.6098 -0.9778  0.3913
11259SOL     OW40891   1.106  11.516  12.856 -0.0665 -0.4444 -0.6875
11259SOL    HW140892   1.079  11.583  12.919  0.2796 -1.8888  1.0516
11259SOL    HW240893   1.131  11.566  12.778  0.1849  1.4569  0.5481
11260SOL     OW40894  12.033   8.648   0.506 -0.1619 -0.1796  0.4778
11260SOL    HW140895  12.094   8.610   0.443 -0.8838 -0.2233 -0.2111
11260SOL    HW240896  11.974   8.702   0.453 -0.1220  0.6544  1.2505
11261SOL     OW40897   1.085   4.519   6.475  0.3233  0.0281  0.3214
11261SOL    HW140898   1.124   4.601   6.444 -2.7851  1.1600 -1.0165
11261SOL    HW240899   1.080   4.463   6.398 -0.2525 -0.2464  0.5478
11262SOL     OW40900  11.583   8.847   8.787  0.0679 -0.2581 -0.3403
11262SOL    HW140901  11.585   8.795   8.867 -0.5115  0.1134 -0.0689
11262SOL    HW240902  11.517   8.804   8.732  0.6245 -0.6410 -0.7129
11263SOL     OW40903   6.033   6.170   3.198 -0.1288  0.0203  0.1938
11263SOL    HW140904   6.032   6.156   3.293 -0.6066 -1.7009 -0.0175
11263SOL    HW240905   5.964   6.113   3.165  1.2083 -0.8179 -1.3400
11264SOL     OW40906  12.122   0.451   1.746  0.0066  0.0799 -0.3127
11264SOL    HW140907  12.141   0.534   1.791 -1.7864  0.9997 -1.1403
11264SOL    HW240908  12.132   0.384   1.814  0.4550  1.0776  0.6423
11265SOL     OW40909  10.126  12.750  11.487 -0.1747  0.2032  0.5283
11265SOL    HW140910  10.089  12.751  11.576  0.0899  2.7765  0.6843
11265SOL    HW240911  10.055  12.784  11.432 -0.0550 -0.5949 -0.1217
11266SOL     OW40912   0.097   1.548   6.944  0.2114  0.2164  0.2097
11266SOL    HW140913   0.162   1.559   7.014  0.6947  1.5543 -0.4147
11266SOL    HW240914   0.057   1.635   6.934 -1.4092 -0.4854  0.2976
11267SOL     OW40915   6.868   0.698   8.050 -0.0558  0.2744 -0.0162
11267SOL    HW140916   6.789   0.699   7.996 -0.5027  2.2646  0.5999
11267SOL    HW240917   6.838   0.720   8.138  0.9692 -0.6245  0.5763
11268SOL     OW40918   0.491   3.036   6.974  0.0434  0.2256  0.2749
11268SOL    HW140919   0.585   3.042   6.955  0.0602 -0.3348  0.1653
11268SOL    HW240920   0.482   2.960   7.032 -0.1924  1.0649  1.3631
11269SOL     OW40921   9.578  12.611  10.593 -0.0861 -0.1975  0.1073
11269SOL    HW140922   9.614  12.663  10.521 -1.5762 -0.1827 -0.6490
11269SOL    HW240923   9.643  12.541  10.605  0.3487 -0.0174 -1.0314
11270SOL     OW40924  12.215   7.213   2.781  0.1644  0.0057  0.0485
11270SOL    HW140925  12.224   7.119   2.769  1.0078  0.2045 -0.9409
11270SOL    HW240926  12.127   7.233   2.750  0.0764 -0.4194  0.0239
11271SOL     OW40927   4.557   1.260   1.803 -0.0307  0.5958 -0.2622
11271SOL    HW140928   4.596   1.174   1.821 -0.3723  0.3390 -0.7234
11271SOL    HW240929   4.573   1.273   1.709  2.6690  2.3663  0.3273
11272SOL     OW40930   1.791   1.502   4.938  0.6099 -0.0266  0.0511
11272SOL    HW140931   1.836   1.542   5.012  0.0055  0.3680  0.2098
11272SOL    HW240932   1.749   1.575   4.892 -1.2910 -0.5369  0.8720
11273SOL     OW40933   1.644   0.391  11.729  0.2104  0.2054 -0.1070
11273SOL    HW140934   1.557   0.353  11.744  0.0187  0.4881 -0.4937
11273SOL    HW240935   1.643   0.475  11.774  0.2109  0.3015 -0.2840
11274SOL     OW40936  10.002   7.488  10.285  0.1332  0.3832 -0.2443
11274SOL    HW140937   9.919   7.471  10.241 -0.0754  1.1423 -0.1521
11274SOL    HW240938  10.068   7.483  10.215  0.2842 -2.1420 -0.0193
11275SOL     OW40939   2.111   6.653   1.346 -0.5124  0.1842  0.3466
11275SOL    HW140940   2.168   6.651   1.422 -0.4367  2.2578  0.4023
11275SOL    HW240941   2.120   6.566   1.306 -0.8164 -1.0667  2.8513
11276SOL     OW40942   4.696   8.904   2.643  0.2916 -0.0890  0.1071
11276SOL    HW140943   4.605   8.878   2.650  0.3413  0.0116  1.2090
11276SOL    HW240944   4.697   8.969   2.572 -0.4586 -0.2039 -0.0136
11277SOL     OW40945  12.916   3.044   9.001 -0.2695 -0.6012  0.3310
11277SOL    HW140946  12.831   3.032   8.958 -0.4680 -2.0514  1.0650
11277SOL    HW240947  12.954   3.121   8.958 -1.4140 -0.6697 -0.8617
11278SOL     OW40948   0.995   2.391   5.531 -1.0099 -0.0839  0.0539
11278SOL    HW140949   1.025   2.311   5.489 -0.8635 -0.1481  0.2793
11278SOL    HW240950   1.055   2.404   5.605  0.6323  1.6401 -1.4547
11279SOL     OW40951   1.466   0.572   8.838 -0.2881 -0.6287 -0.3247
11279SOL    HW140952   1.413   0.610   8.908  0.7259  0.1847  0.0264
11279SOL    HW240953   1.533   0.638   8.820 -0.1731 -1.0866 -1.6560
11280SOL     OW40954   6.375   7.040   7.318 -0.0736  0.4522 -0.0274
11280SOL    HW140955   6.426   6.981   7.262  0.3506  3.2622 -2.8876
11280SOL    HW240956   6.441   7.096   7.360 -0.5402 -0.1047  1.5253
11281SOL     OW40957   4.178  11.776   1.065  0.4230 -0.5137 -0.5025
11281SOL    HW140958   4.135  11.820   1.139  1.1051  0.7832 -0.8354
11281SOL    HW240959   4.244  11.720   1.106  0.1425 -0.5556 -0.0940
11282SOL     OW40960  11.872   8.256   2.160 -0.2275 -0.2349 -0.5315
11282SOL    HW140961  11.782   8.277   2.134 -0.4100 -0.0527  0.2373
11282SOL    HW240962  11.903   8.335   2.204 -0.3916 -0.9864  1.0078
11283SOL     OW40963   5.013   6.793   6.872 -0.0200  0.0705 -0.1575
11283SOL    HW140964   5.096   6.791   6.824 -1.5826 -0.7394 -3.0149
11283SOL    HW240965   4.974   6.707   6.857 -0.9576  0.0525  2.0195
11284SOL     OW40966   9.191   2.825   5.544  0.0847  0.4862 -0.2606
11284SOL    HW140967   9.099   2.810   5.567  0.1354  0.1597 -0.2643
11284SOL    HW240968   9.240   2.795   5.621  0.0786  3.7779  1.2188
11285SOL     OW40969  10.648  10.109  11.465 -0.3862  0.0195 -0.5282
11285SOL    HW140970  10.604  10.039  11.417 -0.9717 -1.1994  1.6760
11285SOL    HW240971  10.739  10.081  11.471 -0.5844 -0.5059  0.1975
11286SOL     OW40972   2.274  12.368   5.703  0.5933  0.1951 -0.2949
11286SOL    HW140973   2.288  12.274   5.692 -0.2047 -0.1928  1.6618
11286SOL    HW240974   2.351  12.408   5.662  2.0381 -1.4127  0.6931
11287SOL     OW40975   1.036   5.423  10.293 -0.3102 -0.9761  0.4440
11287SOL    HW140976   1.106   5.457  10.349 -1.0665  1.8091 -0.1306
11287SOL    HW240977   0.958   5.474  10.318 -1.4080 -1.8907 -0.9491
11288SOL     OW40978   8.666   8.693  12.652  0.8659 -0.2152 -0.1195
11288SOL    HW140979   8.753   8.679  12.688  0.7734  1.3006  0.7550
11288SOL    HW240980   8.606   8.665  12.721  0.6219 -1.9395 -0.9881
11289SOL     OW40981   3.451   8.102   6.726 -0.3094  0.7732  0.0127
11289SOL    HW140982   3.523   8.137   6.674 -0.3006  2.1271  0.8927
11289SOL    HW240983   3.446   8.009   6.701  2.1941  0.4559  0.4672
11290SOL     OW40984   5.120  12.383   3.212  0.0309 -0.0875 -0.1321
11290SOL    HW140985   5.040  12.429   3.185 -0.1235 -0.1949  0.1418
11290SOL    HW240986   5.146  12.426   3.293  0.6131  0.3725 -0.5523
11291SOL     OW40987   8.764   0.160   3.167 -0.1661 -0.2231  0.1777
11291SOL    HW140988   8.701   0.089   3.175 -0.9321  0.4329  0.0485
11291SOL    HW240989   8.723   0.234   3.211  0.3827  0.3019 -0.1783
11292SOL     OW40990   4.469   7.458   3.477 -0.3542  0.0984 -0.7174
11292SOL    HW140991   4.374   7.458   3.490 -0.4832 -0.6547 -1.6014
11292SOL    HW240992   4.481   7.498   3.390 -0.2219 -3.8579 -2.7285
11293SOL     OW40993   5.950   6.122   1.129  0.0117  0.5193  0.2209
11293SOL    HW140994   5.872   6.131   1.076 -0.9355  0.0252  1.4822
11293SOL    HW240995   5.928   6.054   1.193  1.2463  0.8135  0.9897
11294SOL     OW40996   0.797   5.750   1.232 -0.0152 -0.0409 -0.2446
11294SOL    HW140997   0.804   5.805   1.155 -0.1749 -0.3194 -0.4625
11294SOL    HW240998   0.715   5.777   1.274  0.4184  0.5850  0.2074
11295SOL     OW40999   1.649  11.851   6.589 -0.2365 -0.2598 -0.4819
11295SOL    HW141000   1.576  11.886   6.641  1.6284  1.3161  1.2053
11295SOL    HW241001   1.699  11.928   6.562  1.3385 -1.3392 -0.7779
11296SOL     OW41002   1.825   5.873   2.920 -0.4766 -0.3301 -0.1167
11296SOL    HW141003   1.842   5.781   2.899  0.2629 -0.1603 -0.2591
11296SOL    HW241004   1.842   5.920   2.839 -0.3372 -0.0019  0.1024
11297SOL     OW41005  11.018   6.189  10.163 -0.1257  0.3089 -0.5215
11297SOL    HW141006  11.052   6.116  10.214 -1.3015 -0.8112 -1.2796
11297SOL    HW241007  10.956   6.233  10.223 -0.7754 -0.4202 -0.6414
11298SOL     OW41008   2.041  12.707  10.425 -0.0896  0.4748  0.2384
11298SOL    HW141009   2.044  12.798  10.396  0.5939  0.2050 -0.5567
11298SOL    HW241010   1.949  12.693  10.449 -0.8445  0.5560 -2.3224
11299SOL     OW41011   8.625   6.462   8.022 -0.2008  0.0947 -0.9936
11299SOL    HW141012   8.718   6.439   8.019  0.1707  1.4720 -0.6286
11299SOL    HW241013   8.592   6.434   7.936  0.5133 -0.4972 -1.0960
11300SOL     OW41014  11.266   7.581   6.396  0.1088  0.2868  0.4231
11300SOL    HW141015  11.207   7.654   6.416  0.9847  0.7266  1.4643
11300SOL    HW241016  11.352   7.622   6.386  0.1701 -0.2239 -1.8943
11301SOL     OW41017  10.243  10.541  12.955 -0.0243 -0.4850 -0.1678
11301SOL    HW141018  10.218  10.469  13.013 -0.3371  0.2363  0.6261
11301SOL    HW241019  10.337  10.552  12.969  0.1060 -1.0101 -0.6134
11302SOL     OW41020  10.898   5.401   3.164 -0.0342  0.8459 -0.3008
11302SOL    HW141021  10.977   5.454   3.171  1.0920 -0.3754 -2.4508
11302SOL    HW241022  10.915   5.325   3.219  0.8560  0.0372 -1.6218
11303SOL     OW41023   5.170   7.822  12.599 -0.2233 -0.8843 -0.4356
11303SOL    HW141024   5.254   7.776  12.608 -0.2178 -1.2125 -1.8962
11303SOL    HW241025   5.193   7.914  12.596 -0.1020 -0.8452  1.0608
11304SOL     OW41026  11.436   0.431   7.201  0.4089  0.1697  0.3096
11304SOL    HW141027  11.400   0.480   7.275 -1.2442 -0.9934  0.3318
11304SOL    HW241028  11.531   0.447   7.206  0.0072  2.8339  0.6278
11305SOL     OW41029   1.934   6.930   1.992  0.1255 -0.6100 -0.1414
11305SOL    HW141030   1.880   6.968   2.062  1.1268  0.4126  0.1042
11305SOL    HW241031   2.022   6.961   2.010  0.5714 -1.1228 -1.3296
11306SOL     OW41032   8.329   8.914   0.319  0.0815 -0.8462  0.0395
11306SOL    HW141033   8.301   8.830   0.355  0.3982 -0.5770  0.9313
11306SOL    HW241034   8.420   8.899   0.291  0.8776 -0.2531  2.1419
11307SOL     OW41035   2.213   3.225   6.183  0.2630 -0.3762 -0.3438
11307SOL    HW141036   2.246   3.156   6.125  1.1186 -1.1383  1.0117
11307SOL    HW241037   2.128   3.249   6.145 -0.3098 -2.5381 -0.5658
11308SOL     OW41038   2.917  11.949   2.713 -0.0327  0.5452  0.1022
11308SOL    HW141039   2.831  11.949   2.756  0.3567  0.4576  0.8876
11308SOL    HW241040   2.972  11.893   2.767  0.3368  0.0041 -0.7974
11309SOL     OW41041  11.946   4.748   3.236  0.5765  0.2258  0.1337
11309SOL    HW141042  12.018   4.809   3.218 -1.1778  2.3688  0.0928
11309SOL    HW241043  11.923   4.765   3.327 -0.3851  0.1129 -0.0863
11310SOL     OW41044   2.620  10.004   9.536 -0.0632 -0.2573 -0.5287
11310SOL    HW141045   2.601  10.092   9.503 -1.5142 -0.3818 -0.0976
11310SOL    HW241046   2.703  10.013   9.583 -0.7682  1.1530  0.5053
11311SOL     OW41047  11.688  12.742   3.504  0.5697 -0.1404  0.0355
11311SOL    HW141048  11.686  12.834   3.480 -1.7890  0.1849  1.2181
11311SOL    HW241049  11.608  12.704   3.467 -0.3042 -0.8540  2.4311
11312SOL     OW41050   1.831  11.668   0.164  0.3723  0.7724 -0.2532
11312SOL    HW141051   1.828  11.601   0.231  0.2584  1.5074  0.4916
11312SOL    HW241052   1.744  11.665   0.124  0.2995  0.6163 -0.0850
11313SOL     OW41053  11.231  10.433  10.498  0.1803  0.4812 -0.0108
11313SOL    HW141054  11.237  10.467  10.588 -1.7637  1.2745 -0.1166
11313SOL    HW241055  11.292  10.360  10.496 -1.0628 -0.7914  2.5670
11314SOL     OW41056  11.413  10.363   7.410  0.2211  0.1916  0.1129
11314SOL    HW141057  11.459  10.413   7.343  1.3040  0.8147  1.2744
11314SOL    HW241058  11.335  10.415   7.430 -1.2617 -1.0148 -2.0730
11315SOL     OW41059   2.374   6.766  11.752  0.6666  0.3384  0.3536
11315SOL    HW141060   2.343   6.697  11.812  0.1975  0.7022  0.5409
11315SOL    HW241061   2.346   6.847  11.794 -1.6130  0.5599 -1.3752
11316SOL     OW41062   1.126   0.668   1.557 -0.8242 -0.1080  0.5923
11316SOL    HW141063   1.081   0.584   1.555 -0.2693 -0.3938 -1.1339
11316SOL    HW241064   1.101   0.711   1.476  1.8025 -0.2178 -0.3728
11317SOL     OW41065   5.877   1.020   6.159 -0.1897  0.3305  0.3703
11317SOL    HW141066   5.896   1.010   6.252  0.7910  1.9799  0.3998
11317SOL    HW241067   5.963   1.022   6.117 -0.4472  2.5245 -0.1863
11318SOL     OW41068   6.262   3.385   3.056 -0.0299 -0.1976  0.4003
11318SOL    HW141069   6.302   3.310   3.014  1.0131 -0.2659  1.4557
11318SOL    HW241070   6.256   3.452   2.988 -0.6568 -1.1030 -0.4574
11319SOL     OW41071   2.043   1.789   3.522  0.4255 -0.2371  0.0487
11319SOL    HW141072   1.990   1.863   3.494  1.4224  0.0359 -1.2169
11319SOL    HW241073   1.989   1.712   3.502 -0.7461  0.1103  1.6692
11320SOL     OW41074   4.864  12.181   0.470  0.5053  0.7093 -0.0481
11320SOL    HW141075   4.844  12.087   0.470 -0.8927  0.9774  0.9924
11320SOL    HW241076   4.783  12.223   0.445  1.3033  1.6546 -1.1607
11321SOL     OW41077   7.017  12.266   4.750  0.2123  0.3455  0.1809
11321SOL    HW141078   7.012  12.324   4.674  0.0868 -0.1313 -0.1868
11321SOL    HW241079   7.107  12.232   4.748 -0.3576 -1.2637 -0.9978
11322SOL     OW41080   1.119   9.325   4.588  0.3415  1.0558  0.0685
11322SOL    HW141081   1.177   9.349   4.660  1.0682  0.4510 -0.3014
11322SOL    HW241082   1.049   9.389   4.591  1.6027  2.5023 -0.1548
11323SOL     OW41083   0.064   4.050   7.668 -0.3568  0.5100  0.2794
11323SOL    HW141084   0.074   4.138   7.632 -0.0050  0.3995  0.1055
11323SOL    HW241085  -0.031   4.035   7.668 -0.4217  0.8947  0.3291
11324SOL     OW41086   1.040   0.339   4.047 -0.2910  0.0117  0.1406
11324SOL    HW141087   0.960   0.288   4.038 -0.3617  0.2914 -0.9715
11324SOL    HW241088   1.012   0.421   4.086 -0.2168 -0.6735  1.6894
11325SOL     OW41089   4.848   2.208   0.180  0.2459  0.4024  0.0790
11325SOL    HW141090   4.787   2.253   0.121 -1.7248  0.5048  2.0399
11325SOL    HW241091   4.837   2.253   0.264  1.7508 -0.7429  0.9242
11326SOL     OW41092  12.839   8.662   4.941 -0.1313 -0.4575  0.2810
11326SOL    HW141093  12.873   8.599   5.003  0.8845  0.1176  0.3219
11326SOL    HW241094  12.903   8.665   4.870  0.1228  0.9108  0.5336
11327SOL     OW41095   8.128   6.352   5.986  0.1715 -0.3546  0.1705
11327SOL    HW141096   8.171   6.437   5.997  1.0712 -1.0362  2.4163
11327SOL    HW241097   8.095   6.330   6.073  0.3272 -2.5157 -0.2598
11328SOL     OW41098   6.540   6.334   3.738  0.2624  0.3336 -0.1228
11328SOL    HW141099   6.521   6.284   3.817 -0.4879  0.5859 -0.1396
11328SOL    HW241100   6.504   6.281   3.666 -0.6568  0.9397 -0.1293
11329SOL     OW41101   5.825   3.443   4.296  0.1891 -0.1875 -0.1492
11329SOL    HW141102   5.861   3.404   4.376 -2.0232 -1.6629  0.2037
11329SOL    HW241103   5.856   3.385   4.226  1.5442  0.7043 -0.3190
11330SOL     OW41104   2.399   3.453   9.110  0.2618  0.1628 -0.5538
11330SOL    HW141105   2.324   3.413   9.065 -1.4803  1.6095  0.8692
11330SOL    HW241106   2.373   3.455   9.202  1.3029  2.2698 -0.2412
11331SOL     OW41107   8.972   8.353   5.426  0.4169  0.0590 -0.2270
11331SOL    HW141108   9.021   8.396   5.355  2.1259  0.9238  1.3919
11331SOL    HW241109   9.014   8.267   5.435 -1.0750 -0.8627 -1.4874
11332SOL     OW41110  11.778  12.768  12.092 -0.4313  0.0455  0.2850
11332SOL    HW141111  11.839  12.841  12.079 -1.0938  0.2985 -1.6174
11332SOL    HW241112  11.776  12.722  12.009  0.9403 -2.9979  1.7917
11333SOL     OW41113   3.769   2.355  12.703  0.1164  0.0383 -0.3347
11333SOL    HW141114   3.741   2.272  12.742 -0.3106  0.4706  0.3159
11333SOL    HW241115   3.848   2.334  12.654  1.8585 -0.1990  2.4017
11334SOL     OW41116   7.898  12.511   4.403  0.0364 -0.0934  0.0162
11334SOL    HW141117   7.993  12.506   4.418  0.0220 -1.5047 -0.2610
11334SOL    HW241118   7.888  12.582   4.339  0.7510  1.0509  1.1151
11335SOL     OW41119   0.761  11.582  11.145  0.0359 -0.1657  0.4902
11335SOL    HW141120   0.783  11.611  11.057 -0.3631  1.7309  0.9696
11335SOL    HW241121   0.836  11.529  11.172 -0.5877 -2.2890 -1.5823
11336SOL     OW41122   0.685   8.683   2.665  0.0731  0.0651  0.0803
11336SOL    HW141123   0.614   8.619   2.658  1.1575 -1.3928  1.6208
11336SOL    HW241124   0.667   8.730   2.747  1.0389 -0.5765  0.6834
11337SOL     OW41125  12.249  10.528   5.838  0.4203 -0.2238 -0.4026
11337SOL    HW141126  12.247  10.484   5.923  0.2157  0.8449  0.1596
11337SOL    HW241127  12.292  10.611   5.855  0.4298 -0.0195 -1.3642
11338SOL     OW41128   5.956   8.598  10.577  0.1666 -0.0274  0.0587
11338SOL    HW141129   5.976   8.691  10.590 -0.6060  0.4881 -2.1125
11338SOL    HW241130   6.032   8.562  10.533 -0.2211 -0.0129 -0.6371
11339SOL     OW41131   5.230   4.798   4.693  0.3192 -0.3318  0.4650
11339SOL    HW141132   5.168   4.777   4.763 -1.7229 -0.7543 -1.3347
11339SOL    HW241133   5.282   4.871   4.727 -2.8257  1.7595  1.2692
11340SOL     OW41134  12.747   1.346   7.118 -0.1848  0.0826  0.0631
11340SOL    HW141135  12.822   1.391   7.155 -0.0429  1.4733 -1.7673
11340SOL    HW241136  12.747   1.260   7.160  0.3109  1.2861  2.7029
11341SOL     OW41137   4.365  11.239  10.644 -0.0947  0.2487  0.4811
11341SOL    HW141138   4.319  11.322  10.660  0.5245  0.8118 -0.5585
11341SOL    HW241139   4.337  11.182  10.716 -2.0802  0.7061  0.1156
11342SOL     OW41140   4.467   9.657   6.224  0.3021 -0.3004  0.4645
11342SOL    HW141141   4.498   9.732   6.174 -0.6681  0.5216  1.0678
11342SOL    HW241142   4.380   9.639   6.189 -0.1930 -0.0143  1.5239
11343SOL     OW41143  11.748  12.862   7.081  0.5289 -0.5944 -0.4871
11343SOL    HW141144  11.812  12.799   7.049  0.7488 -1.1672  0.9929
11343SOL    HW241145  11.667  12.811   7.090  0.0372 -0.0470 -1.6554
11344SOL     OW41146   4.261   5.585   7.638  0.1489  0.0556  0.2897
11344SOL    HW141147   4.297   5.572   7.550 -0.3261 -0.4810  0.1679
11344SOL    HW241148   4.186   5.643   7.625  0.3512  0.3418  0.4017
11345SOL     OW41149   9.285  12.447   1.966  0.7771 -0.3404  0.0511
11345SOL    HW141150   9.191  12.430   1.970  0.6898 -0.0754 -0.7271
11345SOL    HW241151   9.300  12.513   2.034 -0.2578  2.3901 -2.2139
11346SOL     OW41152   0.468   8.900   8.594  0.0561  0.0676 -0.6525
11346SOL    HW141153   0.406   8.948   8.539 -0.6912  0.6185  0.6477
11346SOL    HW241154   0.414   8.856   8.659  0.8377 -1.5201 -1.0335
11347SOL     OW41155   6.441   6.082   6.698 -0.3085  0.5744 -0.0093
11347SOL    HW141156   6.503   6.155   6.703 -0.2894  0.5461  0.1971
11347SOL    HW241157   6.402   6.077   6.785 -2.5779  2.2871 -0.8335
11348SOL     OW41158   9.850   3.772   0.236  0.6594 -0.0187 -0.0084
11348SOL    HW141159   9.805   3.734   0.160  1.5458 -1.9292  0.3602
11348SOL    HW241160   9.800   3.850   0.257  0.2404  0.4533 -2.4200
11349SOL     OW41161   8.763   9.419   3.459  0.1382 -0.1109 -0.3137
11349SOL    HW141162   8.715   9.358   3.515 -0.4164 -0.0026 -0.6653
11349SOL    HW241163   8.701   9.443   3.391  0.5560  0.3659 -0.5332
11350SOL     OW41164  12.936   1.196   3.731  0.0864  0.2164 -0.3443
11350SOL    HW141165  13.018   1.160   3.766  0.2981 -0.6530 -1.6812
11350SOL    HW241166  12.919   1.272   3.786  0.8668 -0.5794  1.0714
11351SOL     OW41167   6.900  11.839   6.528  0.1956  0.7679 -0.4076
11351SOL    HW141168   6.875  11.804   6.442  4.7208 -1.0612 -1.2759
11351SOL    HW241169   6.881  11.933   6.522 -0.0250  0.6437 -3.2850
11352SOL     OW41170  10.683  10.642   7.375 -0.7245  0.1125 -0.4773
11352SOL    HW141171  10.647  10.601   7.453  2.7990 -0.4822  0.9888
11352SOL    HW241172  10.638  10.598   7.302 -2.4413 -0.9527  1.1442
11353SOL     OW41173   8.286   0.566   7.371  0.1364 -0.5457 -0.7358
11353SOL    HW141174   8.197   0.535   7.356 -1.0354  1.9621  0.4561
11353SOL    HW241175   8.281   0.661   7.359  2.5781 -0.2897 -0.2672
11354SOL     OW41176   7.863   7.006   1.882 -0.6147  0.1751 -0.1774
11354SOL    HW141177   7.776   7.043   1.900 -1.0384 -0.7672 -0.2552
11354SOL    HW241178   7.847   6.914   1.863  0.4250 -0.0425 -0.0634
11355SOL     OW41179  11.366   3.625  11.701 -0.4480  0.2026  0.0343
11355SOL    HW141180  11.286   3.631  11.753  0.3660  0.4007  1.3305
11355SOL    HW241181  11.432   3.670  11.754  0.2045  1.3988 -1.7076
11356SOL     OW41182   3.803   4.448  11.965  0.3883  0.1535 -0.0387
11356SOL    HW141183   3.783   4.368  11.916  0.0224  1.1022 -1.4875
11356SOL    HW241184   3.863   4.497  11.909  0.6493  0.8870  0.8488
11357SOL     OW41185   8.898  11.054   8.355 -0.5086 -0.5756  0.5368
11357SOL    HW141186   8.879  11.147   8.345 -0.7858 -0.7816 -1.1704
11357SOL    HW241187   8.990  11.045   8.329 -0.6991 -0.8637 -0.0700
11358SOL     OW41188   9.381   9.909   2.489 -0.1732 -0.5688 -0.1333
11358SOL    HW141189   9.330   9.829   2.495 -1.4288  0.2734  1.0589
11358SOL    HW241190   9.326   9.969   2.440 -0.8308  0.6529  1.9461
11359SOL     OW41191   2.229   7.378   2.788 -0.0381 -0.1109  0.3692
11359SOL    HW141192   2.219   7.466   2.752  0.9251 -0.7388 -1.5348
11359SOL    HW241193   2.205   7.319   2.716 -1.8133 -1.4575  1.9409
11360SOL     OW41194   5.153   1.321   7.461  0.3379 -0.6753 -0.1309
11360SOL    HW141195   5.072   1.370   7.447  0.8759 -0.1156 -1.4202
11360SOL    HW241196   5.123   1.233   7.487 -0.7102 -0.7802 -1.5876
11361SOL     OW41197   5.910   3.410  10.479 -0.8921 -0.6891 -1.1084
11361SOL    HW141198   5.888   3.503  10.482  2.1051  0.1715  2.3955
11361SOL    HW241199   5.969   3.402  10.404  1.0237  1.0264  0.0782
11362SOL     OW41200   9.972   5.309   0.956  0.2026  0.3608  0.0848
11362SOL    HW141201  10.007   5.250   0.889 -1.1915 -0.3757 -0.0422
11362SOL    HW241202   9.951   5.389   0.909 -0.3508  0.0050 -0.2884
11363SOL     OW41203   3.952  12.072   4.574 -0.4028 -0.3503  0.1244
11363SOL    HW141204   4.000  11.997   4.541  1.8415  0.5865  1.0840
11363SOL    HW241205   3.864  12.062   4.537  0.5075 -2.0860 -1.7747
11364SOL     OW41206   9.000   9.825   4.418 -0.0517  0.1852 -0.4771
11364SOL    HW141207   9.054   9.770   4.475  0.8319  1.2102 -0.2914
11364SOL    HW241208   9.057   9.845   4.343 -1.3463 -1.5450 -2.0198
11365SOL     OW41209   4.837   8.027   8.989 -0.1697 -0.1731 -0.3299
11365SOL    HW141210   4.800   7.998   9.072  0.7437  2.0353  0.9309
11365SOL    HW241211   4.790   7.977   8.923 -3.1859  0.2446  1.3262
11366SOL     OW41212   0.095   0.934   3.512 -0.5184 -0.0460 -0.0243
11366SOL    HW141213   0.173   0.960   3.562 -0.4326  0.9830 -0.6561
11366SOL    HW241214   0.027   0.925   3.578 -0.2372  0.6058  0.3738
11367SOL     OW41215  12.190  11.314  11.854 -0.2913  0.2215  0.2929
11367SOL    HW141216  12.202  11.381  11.786 -1.3845 -1.3224 -1.5317
11367SOL    HW241217  12.119  11.259  11.821  0.1911 -1.5194  1.9767
11368SOL     OW41218   6.990  12.852  11.273 -0.6815 -0.6810  0.6216
11368SOL    HW141219   6.987  12.881  11.364  0.7999  1.0543  0.1899
11368SOL    HW241220   6.905  12.876  11.237  0.2739  3.1253  0.4077
11369SOL     OW41221   4.036   1.534   5.596 -0.2243  0.8704  0.2050
11369SOL    HW141222   3.956   1.483   5.582 -1.1254  2.1518  0.4779
11369SOL    HW241223   4.098   1.499   5.532 -0.1895 -1.7245  1.5056
11370SOL     OW41224   6.390   3.218  10.093 -0.2922  0.1556 -0.1862
11370SOL    HW141225   6.376   3.123  10.096 -0.9966  0.2198 -0.8551
11370SOL    HW241226   6.378   3.247  10.183 -1.9311 -0.1656 -0.2724
11371SOL     OW41227   6.518  10.932   3.494 -0.1355 -0.0255 -0.5175
11371SOL    HW141228   6.489  10.845   3.468 -0.3972 -0.0368 -0.1889
11371SOL    HW241229   6.494  10.939   3.586  1.1737 -0.1493 -0.1499
11372SOL     OW41230   3.049  11.568   0.380 -0.1410 -0.3766 -0.0591
11372SOL    HW141231   2.980  11.530   0.434  0.2173  0.3322  0.9303
11372SOL    HW241232   3.112  11.496   0.369 -0.2518 -0.5489  0.4059
11373SOL     OW41233  11.577   3.664   0.448 -0.1807 -0.1406  0.2294
11373SOL    HW141234  11.646   3.598   0.460 -1.1413 -1.1768  0.2460
11373SOL    HW241235  11.572   3.709   0.533  1.1620  0.6697 -0.0824
11374SOL     OW41236   8.479   1.645   6.361  0.9928  0.6730 -0.4618
11374SOL    HW141237   8.393   1.605   6.364  0.4188  1.9090  0.4787
11374SOL    HW241238   8.534   1.588   6.414  0.6835  0.0453 -0.8118
11375SOL     OW41239   1.320   8.643  10.167 -0.1056 -0.4637  0.2004
11375SOL    HW141240   1.349   8.578  10.231 -0.3035  0.3025  1.0953
11375SOL    HW241241   1.401   8.681  10.132  0.0764  1.3869  2.3910
11376SOL     OW41242  12.805   9.743   7.490 -0.2922 -0.2471 -0.3420
11376SOL    HW141243  12.717   9.773   7.466 -0.2242  0.6192  0.4558
11376SOL    HW241244  12.861   9.819   7.475  0.4947 -1.0448 -1.6689
11377SOL     OW41245  10.643   1.440  11.956 -0.2719 -0.1429 -1.2948
11377SOL    HW141246  10.629   1.366  12.016 -0.8505 -0.0724 -1.3354
11377SOL    HW241247  10.712   1.410  11.897  1.2761  0.2685  0.2106
11378SOL     OW41248   0.750   3.872   5.608 -0.1045 -0.7878  0.0558
11378SOL    HW141249   0.727   3.953   5.564  0.9073 -0.0483  0.8329
11378SOL    HW241250   0.673   3.851   5.661 -1.2086 -1.5201 -1.7312
11379SOL     OW41251   9.491   4.322   8.886 -0.3928  0.4299  0.0560
11379SOL    HW141252   9.562   4.338   8.824 -1.1381 -0.3029 -1.0288
11379SOL    HW241253   9.526   4.257   8.946  1.4672  3.3898  2.4464
11380SOL     OW41254  11.583   9.801  10.492  0.6443  0.3005 -0.2194
11380SOL    HW141255  11.536   9.739  10.548 -1.3925  0.9321 -1.1461
11380SOL    HW241256  11.596   9.879  10.547 -1.0142  0.7784 -0.4708
11381SOL     OW41257   0.662   9.889   5.042  0.3205  0.0937  0.0491
11381SOL    HW141258   0.583   9.834   5.044  1.0276 -1.0355 -1.0103
11381SOL    HW241259   0.686   9.899   5.134  1.0383 -2.7622  0.2780
11382SOL     OW41260  10.632  12.720   0.491 -0.3509 -0.3402  0.0107
11382SOL    HW141261  10.700  12.761   0.438 -0.2949 -0.4155  0.0239
11382SOL    HW241262  10.680  12.660   0.548 -0.4903 -0.8393 -0.3962
11383SOL     OW41263   9.673   7.397   9.036  0.0130  0.3359 -0.2051
11383SOL    HW141264   9.765   7.374   9.037 -0.1615 -0.9253 -3.0577
11383SOL    HW241265   9.652   7.408   8.943 -2.9624 -0.6071  0.2380
11384SOL     OW41266  12.097  11.033   4.241 -0.6948  0.3391  0.1851
11384SOL    HW141267  12.072  11.125   4.243  0.1647  0.7061 -2.2892
11384SOL    HW241268  12.189  11.032   4.266 -0.6232  0.1993 -0.0755
11385SOL     OW41269   3.877   0.675   3.883 -0.2448 -0.0417  0.9657
11385SOL    HW141270   3.938   0.748   3.874 -1.4158  0.7267 -1.6672
11385SOL    HW241271   3.931   0.604   3.918  2.4624  0.3405 -1.9770
11386SOL     OW41272   7.257   3.970   4.750 -0.0479  0.3474 -0.0997
11386SOL    HW141273   7.229   4.000   4.837  0.0234  1.4725 -0.4457
11386SOL    HW241274   7.353   3.980   4.752  0.3700 -2.7483  0.8126
11387SOL     OW41275   4.144   8.765   0.150  0.9113  0.3763 -0.1565
11387SOL    HW141276   4.212   8.752   0.217 -0.5445  0.0976  1.3224
11387SOL    HW241277   4.187   8.819   0.084  2.6960 -0.1021  0.5335
11388SOL     OW41278   1.179   9.975   4.118 -0.0248  0.9629 -0.2906
11388SOL    HW141279   1.213  10.044   4.175  0.3304 -0.6794  1.5721
11388SOL    HW241280   1.245   9.907   4.120 -1.3550 -0.3770 -0.3002
11389SOL     OW41281   8.431   7.078   4.571 -0.2678  0.2329  0.0222
11389SOL    HW141282   8.389   7.125   4.498  0.3497  0.9160  0.1045
11389SOL    HW241283   8.515   7.049   4.536  0.5140  1.5265  0.7970
11390SOL     OW41284   5.921  12.968   7.564  0.0718  0.0366  0.0618
11390SOL    HW141285   6.005  12.942   7.602 -0.0105  0.1181  0.2988
11390SOL    HW241286   5.939  12.975   7.470  0.1455 -0.6801  0.0150
11391SOL     OW41287   7.737  10.678   2.487 -0.3272  0.1250 -0.2400
11391SOL    HW141288   7.797  10.676   2.412  2.0423 -0.9421  1.5635
11391SOL    HW241289   7.787  10.718   2.557 -2.4535  1.0197  0.8538
11392SOL     OW41290   8.735   0.578  10.897  0.3733  0.1173  0.1066
11392SOL    HW141291   8.708   0.487  10.891 -0.2098  0.1255  1.9139
11392SOL    HW241292   8.726   0.612  10.808 -1.5649 -0.9962 -0.1865
11393SOL     OW41293   0.165   3.048   7.146 -0.3804 -0.0876  0.2041
11393SOL    HW141294   0.239   3.046   7.207 -0.7992  1.0411  0.7693
11393SOL    HW241295   0.093   3.086   7.196 -0.6190  1.2757 -1.0972
11394SOL     OW41296   9.344   0.042   9.186  0.3174  0.0453  0.4576
11394SOL    HW141297   9.311   0.052   9.276  0.0756  0.7012  0.2995
11394SOL    HW241298   9.399  -0.036   9.190  0.9292  0.5008  1.3529
11395SOL     OW41299  12.407   6.237   6.890  0.9456 -0.0545 -0.4167
11395SOL    HW141300  12.411   6.331   6.872 -0.7499  0.9169  3.2406
11395SOL    HW241301  12.327   6.208   6.847  1.4415  0.1483 -1.5107
11396SOL     OW41302   1.500   0.757   6.222  0.3350 -0.0285 -0.7785
11396SOL    HW141303   1.413   0.796   6.213  0.0027 -0.6383 -0.3022
11396SOL    HW241304   1.550   0.793   6.149  0.0859  1.3824 -0.2934
11397SOL     OW41305   7.154   2.589   6.287  0.1137  0.3143  0.1242
11397SOL    HW141306   7.141   2.600   6.193  0.7285  0.0390  0.0057
11397SOL    HW241307   7.244   2.558   6.296 -0.0511  0.0090  0.7808
11398SOL     OW41308   1.032   3.484   1.559 -0.1946 -0.1372 -0.2003
11398SOL    HW141309   0.961   3.421   1.575  0.0014  0.2744  2.9949
11398SOL    HW241310   1.010   3.558   1.615  1.1346  1.3983 -1.6238
11399SOL     OW41311  10.586  11.174   6.036  0.0712  0.6143 -0.0340
11399SOL    HW141312  10.648  11.131   6.095 -0.5927 -0.2236  0.0793
11399SOL    HW241313  10.623  11.261   6.020  1.3131  0.0863 -0.0622
11400SOL     OW41314  12.149   3.920  12.847 -0.5619 -0.1350  0.0760
11400SOL    HW141315  12.178   3.936  12.757  0.1165 -0.6767  0.1809
11400SOL    HW241316  12.120   4.005  12.879  1.2742  0.5462  0.0681
11401SOL     OW41317   4.532   0.954  10.119  0.1770 -0.2328  0.1819
11401SOL    HW141318   4.502   1.042  10.141  0.3741  0.3350 -1.6925
11401SOL    HW241319   4.466   0.895  10.157  0.0862  0.6804  1.5165
11402SOL     OW41320  12.618   4.390  11.491 -0.6716 -0.0367 -0.3063
11402SOL    HW141321  12.616   4.448  11.415  0.3875 -0.8752 -0.9917
11402SOL    HW241322  12.656   4.309  11.459  0.5480 -0.1479  1.2877
11403SOL     OW41323   0.458   1.538   5.595 -0.3999  0.1951  0.2636
11403SOL    HW141324   0.371   1.552   5.631  0.3412  2.4371  1.3573
11403SOL    HW241325   0.453   1.567   5.504 -0.6867  0.7513  0.4564
11404SOL     OW41326   6.053   7.436   1.504  0.1028  0.1037 -0.2661
11404SOL    HW141327   6.019   7.510   1.555 -0.0168 -0.6423  0.7732
11404SOL    HW241328   6.042   7.360   1.562 -0.4663 -0.8632 -1.5834
11405SOL     OW41329  10.961   0.920   0.329  0.3100 -0.7922  0.3043
11405SOL    HW141330  10.923   0.892   0.245  0.0548 -1.0211  0.4940
11405SOL    HW241331  11.018   0.848   0.354  0.2368 -0.8102  0.4212
11406SOL     OW41332   7.545   6.521   1.501 -0.7058 -0.1492 -0.0417
11406SOL    HW141333   7.541   6.616   1.513 -0.7203  0.1447 -1.9962
11406SOL    HW241334   7.635   6.497   1.522  0.0423  0.7398 -2.0377
11407SOL     OW41335   0.965   9.130   6.864  0.4382 -0.0299  0.0089
11407SOL    HW141336   0.937   9.041   6.886 -0.1543 -0.2178 -1.4290
11407SOL    HW241337   0.899   9.186   6.905 -0.9359 -0.3942 -1.6052
11408SOL     OW41338   4.466  11.817  12.677  0.2045 -0.6060 -0.1375
11408SOL    HW141339   4.433  11.727  12.679 -1.2516 -0.0881  0.9847
11408SOL    HW241340   4.417  11.859  12.606 -0.6754 -0.1697  0.7054
11409SOL     OW41341  12.641  10.847   0.053 -0.2512  0.3601  0.2048
11409SOL    HW141342  12.651  10.929   0.004 -0.3360  0.8799  1.0343
11409SOL    HW241343  12.568  10.803   0.010 -0.2200  0.7354 -0.2388
11410SOL     OW41344  10.594   2.896   3.847  0.2972  0.3061 -0.2030
11410SOL    HW141345  10.656   2.961   3.815 -1.2047  2.0502  0.2445
11410SOL    HW241346  10.539   2.944   3.909 -0.9518 -1.3656  0.0593
11411SOL     OW41347   4.947   2.952   6.298 -0.8262  0.2764 -0.2891
11411SOL    HW141348   5.013   3.021   6.285 -0.0795  0.1747  2.3515
11411SOL    HW241349   4.968   2.887   6.231  2.5214 -0.2353  1.0625
11412SOL     OW41350   5.520   7.170   7.217 -0.1309 -0.1350  0.4961
11412SOL    HW141351   5.541   7.233   7.286 -0.5593 -2.2274  2.6728
11412SOL    HW241352   5.567   7.090   7.243 -2.2392 -1.7220 -0.2993
11413SOL     OW41353  10.082   7.221   8.424 -0.0613 -0.0504  0.6174
11413SOL    HW141354  10.106   7.234   8.332 -1.7186 -0.6490  0.0679
11413SOL    HW241355  10.008   7.279   8.438  0.6124  0.5559  1.7988
11414SOL     OW41356   8.844   1.436   7.513 -0.0938 -0.2594 -0.2681
11414SOL    HW141357   8.837   1.340   7.518  1.8460 -0.4166 -0.0533
11414SOL    HW241358   8.911   1.452   7.447  0.5628  0.9085  0.6423
11415SOL     OW41359   6.106   9.297   1.415  0.1540  0.1912 -0.4471
11415SOL    HW141360   6.129   9.359   1.484 -2.6975  1.8589 -0.8171
11415SOL    HW241361   6.084   9.216   1.461  0.6039  0.5261  0.3710
11416SOL     OW41362   7.780   7.285   2.386 -0.2986 -0.4604  0.0523
11416SOL    HW141363   7.736   7.370   2.383 -1.3128 -1.0000 -1.3722
11416SOL    HW241364   7.873   7.305   2.377 -0.5346  0.4994 -0.3295
11417SOL     OW41365  11.461   5.284  12.856 -0.4028  0.1298  0.5126
11417SOL    HW141366  11.514   5.204  12.858  0.6804  0.7982 -0.0596
11417SOL    HW241367  11.466   5.313  12.765 -2.7224 -0.3706  0.1698
11418SOL     OW41368  12.744   8.039   3.915  0.2596  1.0685 -0.0099
11418SOL    HW141369  12.782   8.043   4.003  0.8287  0.9556 -0.2416
11418SOL    HW241370  12.650   8.042   3.929  0.2833 -0.5580  0.7140
11419SOL     OW41371   7.166   7.649  11.785  0.3015  0.6077 -0.6666
11419SOL    HW141372   7.204   7.628  11.871  0.5881 -0.4677 -1.0431
11419SOL    HW241373   7.091   7.706  11.806 -0.5457 -0.8323  0.4395
11420SOL     OW41374   6.187   0.002  12.851 -0.2669 -0.3020  0.5456
11420SOL    HW141375   6.248   0.041  12.914  1.3402  2.5664 -2.4805
11420SOL    HW241376   6.107   0.052  12.861 -0.9325 -1.5424  1.8974
11421SOL     OW41377   6.118   1.924   5.635 -0.1606  0.2128  0.1170
11421SOL    HW141378   6.120   1.830   5.654  0.3202 -0.2772 -2.0773
11421SOL    HW241379   6.058   1.960   5.700  0.4505 -1.4245  1.6857
11422SOL     OW41380   8.531   6.312  11.696  0.3434  0.7317 -0.3913
11422SOL    HW141381   8.509   6.227  11.659  0.3511  0.0764  1.0509
11422SOL    HW241382   8.446   6.351  11.718  0.3934  0.6036  0.0230
11423SOL     OW41383   1.810   7.555   6.013  0.4002  0.6266 -0.0393
11423SOL    HW141384   1.743   7.606   6.056  0.0753 -1.1378  1.7158
11423SOL    HW241385   1.770   7.527   5.931 -0.8174  0.1047  0.7020
11424SOL     OW41386  11.696   3.591   7.671 -0.3963 -0.1728 -0.6162
11424SOL    HW141387  11.645   3.661   7.713 -2.1511 -2.0176  0.5094
11424SOL    HW241388  11.781   3.632   7.653 -0.4044  1.5516  2.3828
11425SOL     OW41389  12.850   4.377   8.175  0.3223 -0.2279 -0.1524
11425SOL    HW141390  12.827   4.285   8.170 -1.6510  0.1507  0.8194
11425SOL    HW241391  12.945   4.379   8.163  0.9603 -2.7434  3.0619
11426SOL     OW41392   0.987   6.047   9.888 -0.3352 -0.5640 -0.1901
11426SOL    HW141393   1.055   6.002   9.838 -0.1141 -2.1975  1.4679
11426SOL    HW241394   1.014   6.037   9.979 -2.3442 -0.4599  0.4647
11427SOL     OW41395   7.121   8.872   1.055  0.2622  0.2741 -0.3930
11427SOL    HW141396   7.042   8.834   1.094  0.0958  2.0448  1.1637
11427SOL    HW241397   7.192   8.841   1.111  0.6183 -0.7994 -1.4121
11428SOL     OW41398  11.913   3.871  10.050  0.5633  0.3668 -0.0932
11428SOL    HW141399  11.873   3.924   9.981  2.1620  2.6559  0.6477
11428SOL    HW241400  11.908   3.925  10.128  0.1335 -1.5902  1.3193
11429SOL     OW41401   8.397   1.508   4.040  0.7163  0.0916  1.1238
11429SOL    HW141402   8.375   1.418   4.065 -0.3166  0.4874  1.6953
11429SOL    HW241403   8.430   1.548   4.120  0.2683  0.4929  1.1140
11430SOL     OW41404   1.201   1.152   0.420 -0.0102  0.0728  0.0077
11430SOL    HW141405   1.231   1.141   0.511  1.4903 -1.4449 -0.6027
11430SOL    HW241406   1.197   1.246   0.407  0.9335  0.3207  1.2941
11431SOL     OW41407  10.709   1.002  10.070 -0.2567  0.6763  0.0387
11431SOL    HW141408  10.717   1.044   9.984  0.2156 -0.2439 -0.3838
11431SOL    HW241409  10.707   0.908  10.050  0.1638  0.4455  1.0602
11432SOL     OW41410  11.841  12.849   9.613  0.0526  1.3219 -0.2603
11432SOL    HW141411  11.901  12.907   9.567 -1.1257  0.6866 -2.7978
11432SOL    HW241412  11.849  12.765   9.568 -0.0512  0.1638  1.7657
11433SOL     OW41413  11.820  11.845   9.283 -0.3463  0.0908 -0.7079
11433SOL    HW141414  11.860  11.924   9.245 -1.0131  0.1856 -1.2367
11433SOL    HW241415  11.763  11.811   9.213 -0.7475 -0.3554 -0.1728
11434SOL     OW41416   4.537   7.426   3.936 -0.4408  0.1128 -0.5805
11434SOL    HW141417   4.618   7.378   3.919 -0.4020 -0.1525  0.3265
11434SOL    HW241418   4.473   7.388   3.876 -0.2804 -0.7261 -0.2236
11435SOL     OW41419   7.991  10.657  10.615 -1.1596 -0.0300  0.0887
11435SOL    HW141420   8.030  10.739  10.586 -1.1191  0.0419  0.3451
11435SOL    HW241421   7.969  10.672  10.707  1.3513 -1.1899  0.9898
11436SOL     OW41422  10.877   8.101   8.826  0.3882  0.1349 -0.0379
11436SOL    HW141423  10.860   8.179   8.879 -1.1354  1.4250 -2.2507
11436SOL    HW241424  10.919   8.135   8.747  0.1772 -1.3637 -0.8204
11437SOL     OW41425  10.017   5.510   0.301  0.1006  0.3495 -0.0889
11437SOL    HW141426   9.937   5.555   0.328  0.0391  0.6126 -0.7032
11437SOL    HW241427  10.068   5.576   0.255  0.6806  0.1856  0.2985
11438SOL     OW41428   1.992   3.470   8.394 -0.3227  0.4213 -0.0811
11438SOL    HW141429   1.962   3.397   8.339 -1.3186  1.8528 -1.5520
11438SOL    HW241430   1.912   3.512   8.424  0.0778  3.0393 -2.2802
11439SOL     OW41431   7.271  11.447   8.371 -0.1611  0.5065  0.2066
11439SOL    HW141432   7.292  11.528   8.419  1.5729  0.5078 -0.4620
11439SOL    HW241433   7.332  11.447   8.297  0.8100 -2.0472  0.9010
11440SOL     OW41434  10.692   2.770   0.686 -0.2522 -0.3914  0.3591
11440SOL    HW141435  10.622   2.836   0.692 -2.0200 -2.2056  0.7715
11440SOL    HW241436  10.751   2.791   0.758 -1.4542  0.0166  1.2551
11441SOL     OW41437   1.830  10.375  10.541  0.1963 -0.1359 -0.1713
11441SOL    HW141438   1.747  10.332  10.561  0.6573 -1.1578 -0.4152
11441SOL    HW241439   1.876  10.315  10.483  1.5368 -0.0663  0.7651
11442SOL     OW41440   5.864   7.705  12.341  0.2236  0.0696 -0.6132
11442SOL    HW141441   5.918   7.676  12.268  1.3837  2.5938 -0.8596
11442SOL    HW241442   5.847   7.797  12.323 -0.9112  0.3298  1.4669
11443SOL     OW41443   7.178   6.813   0.953  0.3909  0.3075 -0.5570
11443SOL    HW141444   7.260   6.803   0.905  0.3680 -0.0638 -0.5188
11443SOL    HW241445   7.122   6.864   0.894  2.0816  4.5897  1.0781
11444SOL     OW41446   9.276  11.309  11.145 -0.1257  0.2069 -0.6372
11444SOL    HW141447   9.289  11.230  11.197 -0.9929  0.4233 -0.0707
11444SOL    HW241448   9.279  11.279  11.054 -1.1049 -0.5994 -0.4231
11445SOL     OW41449   8.506   3.744   0.259 -0.2237  0.8187 -0.1405
11445SOL    HW141450   8.524   3.827   0.302 -0.4348 -0.0732  1.7655
11445SOL    HW241451   8.410   3.738   0.257 -0.2131  0.7187 -0.5083
11446SOL     OW41452   9.405   0.785   3.431 -0.0320 -0.0803  0.7113
11446SOL    HW141453   9.500   0.778   3.424 -0.1143  0.5415 -1.9650
11446SOL    HW241454   9.391   0.860   3.489  1.1123  0.0976  0.7814
11447SOL     OW41455   7.620   6.762   0.507  0.1516 -0.2472 -0.4778
11447SOL    HW141456   7.647   6.829   0.444 -1.3764  0.9882  0.1433
11447SOL    HW241457   7.678   6.775   0.582  0.0547  0.1923 -0.4766
11448SOL     OW41458  11.512   5.258   3.563  0.2366 -0.1088 -0.3626
11448SOL    HW141459  11.440   5.222   3.512  0.5778 -0.0529 -0.8922
11448SOL    HW241460  11.488   5.241   3.654 -0.8261  0.6310 -0.4943
11449SOL     OW41461  12.256   4.550   5.831 -0.0114 -0.2077  0.2007
11449SOL    HW141462  12.346   4.537   5.860  0.1566  1.7990  0.6792
11449SOL    HW241463  12.203   4.523   5.906  0.2552  0.0697  0.4948
11450SOL     OW41464   1.346  11.681   5.826 -0.1666 -0.3065  0.6462
11450SOL    HW141465   1.395  11.750   5.871 -1.2470  0.6812  0.3589
11450SOL    HW241466   1.291  11.641   5.894 -1.2406  0.6815  0.3916
11451SOL     OW41467   2.174   3.778   1.481 -0.4160 -0.3261  0.0374
11451SOL    HW141468   2.197   3.836   1.553 -0.0017 -1.5028  0.8772
11451SOL    HW241469   2.082   3.797   1.463 -0.1235  1.0440 -0.1687
11452SOL     OW41470   4.271   3.218  12.802 -0.4042  0.4675  0.7371
11452SOL    HW141471   4.280   3.244  12.711  1.3495  0.0485  0.7466
11452SOL    HW241472   4.188   3.170  12.806 -0.1192 -0.2247 -0.8296
11453SOL     OW41473  10.477   1.342   8.957 -0.1207 -0.4286  0.5825
11453SOL    HW141474  10.537   1.295   9.015  0.6742  0.0347  0.1657
11453SOL    HW241475  10.500   1.435   8.969  1.0714 -0.3912 -1.4819
11454SOL     OW41476  10.166   7.259   0.949  0.5876  0.3949  0.3016
11454SOL    HW141477  10.260   7.269   0.961  0.9389 -1.2323 -0.6742
11454SOL    HW241478  10.158   7.205   0.870 -1.1709  0.7013  0.2302
11455SOL     OW41479  11.496   4.769   1.297 -0.2082 -0.3195 -0.4603
11455SOL    HW141480  11.492   4.842   1.359 -2.0062  0.4191 -1.3655
11455SOL    HW241481  11.438   4.703   1.333 -1.5622  0.2630 -1.4634
11456SOL     OW41482   0.531   7.075   4.216  0.0599  0.2024 -0.2758
11456SOL    HW141483   0.626   7.072   4.215  0.0574 -0.5567 -2.1725
11456SOL    HW241484   0.508   7.153   4.166 -0.3451  1.5620  1.9204
11457SOL     OW41485   1.593   8.498   5.591 -0.1119 -0.0081  0.2092
11457SOL    HW141486   1.579   8.506   5.497 -0.3522 -1.1970  0.1204
11457SOL    HW241487   1.677   8.453   5.599  0.8862  1.8378  0.6268
11458SOL     OW41488   2.245   0.725   8.664 -0.3519  0.0382 -0.0157
11458SOL    HW141489   2.157   0.709   8.699 -0.7047 -1.5241 -1.4872
11458SOL    HW241490   2.259   0.654   8.601  1.5784  0.8295 -0.5463
11459SOL     OW41491  11.528   3.285   2.598 -0.5407  0.3031  0.8580
11459SOL    HW141492  11.586   3.249   2.531  0.3115  0.7447  1.3461
11459SOL    HW241493  11.443   3.243   2.581  0.0554 -0.7968  0.4864
11460SOL     OW41494  10.067   4.367   1.824 -0.3846 -0.5845  0.1852
11460SOL    HW141495  10.109   4.438   1.873 -1.5832  0.2473  0.0410
11460SOL    HW241496  10.127   4.293   1.834  0.3059  0.0962  1.3383
11461SOL     OW41497   2.951   7.114   0.421  0.0794 -0.1376  0.4788
11461SOL    HW141498   3.045   7.101   0.426  0.0309 -1.0714 -0.5507
11461SOL    HW241499   2.933   7.124   0.327 -0.5515  2.5978  0.8273
11462SOL     OW41500  10.014   9.891   7.500  0.3441 -0.1166  0.0554
11462SOL    HW141501  10.060   9.833   7.560  0.7406  1.1393  1.0006
11462SOL    HW241502   9.926   9.852   7.492  0.1790 -0.1440  1.6978
11463SOL     OW41503   0.619  12.559   9.693 -0.2798  0.3790  0.1540
11463SOL    HW141504   0.594  12.483   9.745 -0.2433  0.9325  1.0029
11463SOL    HW241505   0.561  12.557   9.617 -0.0674 -0.6589  0.0144
11464SOL     OW41506  10.470  11.000   0.603 -0.4100 -0.1109 -0.1506
11464SOL    HW141507  10.490  11.067   0.538 -0.3539  0.8156  0.7983
11464SOL    HW241508  10.533  11.015   0.674 -0.1793 -1.3794 -0.0504
11465SOL     OW41509   3.356   6.970   4.946  0.0493  0.6352 -0.8827
11465SOL    HW141510   3.388   6.883   4.971 -1.1886  0.6631  0.9693
11465SOL    HW241511   3.424   7.004   4.888  1.1148 -1.0989 -0.7434
11466SOL     OW41512   0.942   1.134   5.069  0.3867  0.7065 -0.3123
11466SOL    HW141513   0.847   1.136   5.079  0.2317  0.1094 -1.4473
11466SOL    HW241514   0.971   1.060   5.121 -0.0339 -0.4060 -1.5922
11467SOL     OW41515   7.297   1.094   1.620 -0.4216  0.3536  0.3252
11467SOL    HW141516   7.361   1.164   1.613 -0.2059  0.2909  1.5345
11467SOL    HW241517   7.346   1.019   1.654 -0.9845  0.0935  0.5813
11468SOL     OW41518   4.024   3.984   2.664  0.4688 -0.4690 -0.2981
11468SOL    HW141519   4.035   4.073   2.698  1.3500 -0.6693 -0.0261
11468SOL    HW241520   4.095   3.974   2.600  0.8485 -1.2287  0.2230
11469SOL     OW41521   6.483   4.649   7.478  0.4916  0.2029 -0.2621
11469SOL    HW141522   6.541   4.653   7.555  1.3330  2.3241 -0.9249
11469SOL    HW241523   6.415   4.713   7.497  1.3516  1.6218 -1.7195
11470SOL     OW41524  11.169   4.661   2.303 -0.5552 -0.3048  0.3838
11470SOL    HW141525  11.204   4.592   2.246 -0.8755 -0.6568  0.6134
11470SOL    HW241526  11.236   4.730   2.299 -0.4427 -0.4363 -0.2001
11471SOL     OW41527  10.505   9.158   3.412  0.2600  0.2090  0.6326
11471SOL    HW141528  10.472   9.075   3.377  0.8029 -0.4367  1.5903
11471SOL    HW241529  10.593   9.165   3.376 -0.3437  1.1720 -0.7071
11472SOL     OW41530  10.451   8.723   8.729  0.3334 -0.3000 -0.5744
11472SOL    HW141531  10.477   8.787   8.663 -0.8234 -0.0028 -0.7791
11472SOL    HW241532  10.471   8.638   8.690 -0.6317 -0.1426 -1.4803
11473SOL     OW41533   1.056   9.583   3.365 -0.8290  0.2515 -0.0787
11473SOL    HW141534   0.973   9.549   3.331  0.0419  0.3738 -2.5151
11473SOL    HW241535   1.033   9.619   3.451 -3.0841 -0.6065 -0.2405
11474SOL     OW41536   3.786   7.262   1.409 -0.2621 -0.1644 -0.8212
11474SOL    HW141537   3.702   7.279   1.366 -1.4302 -0.7327  1.1183
11474SOL    HW241538   3.762   7.235   1.498  2.0684  2.0283  0.5855
11475SOL     OW41539   6.491   6.705  12.415 -0.2721  0.0768 -0.3133
11475SOL    HW141540   6.497   6.613  12.389  3.1999  0.0761  0.0770
11475SOL    HW241541   6.546   6.752  12.352  0.7245  1.3906  1.4590
11476SOL     OW41542  10.938   0.008   0.673 -0.2767  0.0512  0.1409
11476SOL    HW141543  10.995  -0.026   0.604  0.5524  1.1702  0.2392
11476SOL    HW241544  10.871  -0.059   0.685 -0.5065 -0.1125 -1.8154
11477SOL     OW41545  11.578   0.356   2.155  0.2370 -0.3128  0.1840
11477SOL    HW141546  11.534   0.367   2.239 -0.1953  1.2407 -0.2206
11477SOL    HW241547  11.662   0.315   2.178 -1.4079 -3.5566  0.9308
11478SOL     OW41548   2.141   4.627  10.901 -0.0857  0.8377  0.0134
11478SOL    HW141549   2.205   4.569  10.942 -1.9912 -2.0839 -0.8354
11478SOL    HW241550   2.189   4.668  10.829  0.5507 -2.6752 -1.7733
11479SOL     OW41551  10.733   7.701   0.836 -0.2898 -0.0634  0.3006
11479SOL    HW141552  10.742   7.777   0.779 -0.9799 -0.7116 -0.7085
11479SOL    HW241553  10.688   7.635   0.782  0.2225 -1.1619  1.1641
11480SOL     OW41554   3.982  10.078  11.238 -0.3724  0.4559  0.6086
11480SOL    HW141555   4.048  10.137  11.275  1.1274  0.4734 -1.8519
11480SOL    HW241556   3.904  10.095  11.290  1.4389  0.5920  3.5351
11481SOL     OW41557  12.162   5.816   8.179 -0.0285 -0.1743 -0.2178
11481SOL    HW141558  12.254   5.837   8.164  0.3974 -2.2417 -0.7155
11481SOL    HW241559  12.115   5.877   8.123  1.1155 -0.3188 -1.3798
11482SOL     OW41560   0.681   6.851   6.356 -0.6870 -0.2547  0.5390
11482SOL    HW141561   0.769   6.841   6.390 -1.0288  0.4478  1.6740
11482SOL    HW241562   0.669   6.945   6.347 -0.4820 -0.3938 -1.9540
11483SOL     OW41563  12.155   2.602  10.487  0.3109 -0.2812  0.5321
11483SOL    HW141564  12.114   2.668  10.432 -0.1501 -2.1952 -1.5618
11483SOL    HW241565  12.247   2.628  10.491 -0.3253  2.0235  2.2296
11484SOL     OW41566  10.221   7.424   3.394 -0.0954  0.7003  0.6794
11484SOL    HW141567  10.264   7.462   3.317  3.6676  2.7955  3.4929
11484SOL    HW241568  10.150   7.485   3.415  0.3747  1.4176  0.2070
11485SOL     OW41569   1.071  11.944   5.882 -0.0867  0.3058 -0.0154
11485SOL    HW141570   0.996  11.886   5.868 -0.4472  0.4411  1.2701
11485SOL    HW241571   1.143  11.885   5.905  0.3919  0.1212 -1.8497
11486SOL     OW41572   6.092  10.466   5.920  0.0488  0.1901 -0.0817
11486SOL    HW141573   6.079  10.552   5.961 -0.3920  0.7608 -1.3827
11486SOL    HW241574   6.180  10.471   5.883  0.0249  0.0783 -0.1543
11487SOL     OW41575   9.533   2.470   6.677 -0.0100  0.5607  0.5788
11487SOL    HW141576   9.588   2.487   6.753  0.5085  0.0695  0.3180
11487SOL    HW241577   9.561   2.534   6.612  0.5272  0.0523  0.3089
11488SOL     OW41578   2.839  11.910  12.640 -0.4371 -0.8609 -0.0318
11488SOL    HW141579   2.919  11.961  12.653  0.9708 -2.3263 -2.1773
11488SOL    HW241580   2.774  11.973  12.608  1.0118 -0.2055 -1.8764
11489SOL     OW41581  12.179   7.969   8.067 -0.0989 -0.0690  0.2281
11489SOL    HW141582  12.148   8.023   8.140 -2.0354 -1.1686  0.3052
11489SOL    HW241583  12.132   8.003   7.991  1.3711  0.6096 -0.4082
11490SOL     OW41584   3.818  10.815  12.359 -0.1271 -0.5971  0.1769
11490SOL    HW141585   3.903  10.859  12.363  0.0164 -0.8415 -0.1428
11490SOL    HW241586   3.759  10.879  12.320  0.0714 -0.6709 -0.2492
11491SOL     OW41587   2.137   6.879   0.765 -0.0726  0.7035  0.5326
11491SOL    HW141588   2.148   6.803   0.822 -1.0411  0.1049 -0.0414
11491SOL    HW241589   2.127   6.952   0.825  0.8426  0.3831  1.0970
11492SOL     OW41590   6.292  12.386   4.934 -0.2670  0.2134  0.4923
11492SOL    HW141591   6.296  12.300   4.891 -1.7137  0.5354 -0.3570
11492SOL    HW241592   6.320  12.447   4.866  1.9835  0.3589  1.4630
11493SOL     OW41593   0.419  12.608  12.351 -0.1236  0.6376  0.0430
11493SOL    HW141594   0.422  12.576  12.441  0.6878 -2.4537 -0.9707
11493SOL    HW241595   0.353  12.554  12.309 -0.3028  1.8640 -1.3286
11494SOL     OW41596   7.583  10.579   2.913 -0.5024  0.6793  0.0897
11494SOL    HW141597   7.588  10.664   2.957 -1.8686 -0.3093  2.3736
11494SOL    HW241598   7.670  10.540   2.924  0.3534  2.0034 -1.5991
11495SOL     OW41599   9.063   7.675   8.809  0.3193 -0.1617  0.0661
11495SOL    HW141600   9.094   7.688   8.898 -0.2244 -0.0998  0.2532
11495SOL    HW241601   9.049   7.764   8.775 -1.0932 -0.1750  0.5156
11496SOL     OW41602   8.785   4.561   9.141  0.3757 -0.0815  0.5893
11496SOL    HW141603   8.856   4.582   9.080 -0.0408  0.0990  0.1538
11496SOL    HW241604   8.793   4.467   9.156  0.1037 -0.2467 -0.2467
11497SOL     OW41605   0.610   4.740   2.716  0.0195  0.2041 -0.2583
11497SOL    HW141606   0.663   4.682   2.662 -1.2060 -1.0027 -0.2339
11497SOL    HW241607   0.634   4.828   2.687  1.6923 -0.2991 -0.5237
11498SOL     OW41608   7.993   2.595   6.794 -0.1562 -0.0717  0.2725
11498SOL    HW141609   7.975   2.502   6.810  0.5241 -0.4881 -1.2048
11498SOL    HW241610   7.970   2.608   6.702  0.1098  1.1307  0.3657
11499SOL     OW41611   7.908   1.408  12.858 -1.3378 -0.1988 -0.6812
11499SOL    HW141612   7.952   1.372  12.781 -0.0765 -1.0857  0.4013
11499SOL    HW241613   7.979   1.421  12.921 -2.4729 -0.4559  0.6856
11500SOL     OW41614  10.301   7.194   3.813 -0.2310  0.0205 -0.3307
11500SOL    HW141615  10.287   7.100   3.819  0.0713 -0.0169 -0.1766
11500SOL    HW241616  10.229   7.233   3.862 -0.5479 -0.1189 -0.6870
11501SOL     OW41617   2.988  11.726   6.602  0.1293  0.3712  0.4145
11501SOL    HW141618   3.062  11.673   6.634  0.5437  0.7029  0.0201
11501SOL    HW241619   2.952  11.767   6.680  0.5212  0.4080  0.5766
11502SOL     OW41620   8.970   1.851   5.033 -0.2359  0.4161  0.1117
11502SOL    HW141621   8.934   1.934   4.998  0.4318  0.4069 -0.6248
11502SOL    HW241622   8.935   1.784   4.973 -0.0933  0.2576  0.2084
11503SOL     OW41623   5.538   6.461   2.929  0.1952  0.2735  0.2966
11503SOL    HW141624   5.500   6.487   2.844 -0.2027 -0.7364  0.1573
11503SOL    HW241625   5.529   6.539   2.983 -1.2225  0.3716 -0.0335
11504SOL     OW41626  12.452   6.009  11.695  0.2587 -0.3523  0.4860
11504SOL    HW141627  12.476   6.091  11.653  2.4350 -1.0994  0.1222
11504SOL    HW241628  12.358   6.017  11.714 -0.2183  1.0685 -2.0680
11505SOL     OW41629   1.465   1.527   1.919 -0.2181  0.4294  0.6641
11505SOL    HW141630   1.468   1.610   1.968 -0.2501  2.0059 -1.8191
11505SOL    HW241631   1.420   1.549   1.838 -0.0578 -2.0194 -0.1650
11506SOL     OW41632   5.765   1.688   7.586 -0.1094  0.6386 -0.5242
11506SOL    HW141633   5.688   1.741   7.567 -0.2854  0.8140  0.6442
11506SOL    HW241634   5.752   1.657   7.675  0.1601 -1.1062 -1.0548
11507SOL     OW41635   2.066   0.810   7.397 -0.3745  0.8453  0.0196
11507SOL    HW141636   2.125   0.841   7.328  1.5534  0.8578  1.5927
11507SOL    HW241637   2.122   0.759   7.456 -1.8752  1.0784  1.7441
11508SOL     OW41638  11.234   9.820   0.174 -0.0145 -0.5218  0.0738
11508SOL    HW141639  11.197   9.908   0.172  0.7452 -0.1256 -3.7637
11508SOL    HW241640  11.319   9.828   0.131  1.2208 -2.7487  1.8683
11509SOL     OW41641   9.827  10.792  12.817 -0.8128  0.2142  0.0518
11509SOL    HW141642   9.760  10.735  12.853 -0.6379  1.0237  1.7561
11509SOL    HW241643   9.908  10.765  12.861 -0.1374 -0.2194 -1.3817
11510SOL     OW41644   0.146   6.040   6.067  0.3465 -0.2657  0.0138
11510SOL    HW141645   0.098   6.116   6.033  1.7762  0.5386 -0.2989
11510SOL    HW241646   0.218   6.029   6.005  0.8860 -1.0873  0.7740
11511SOL     OW41647   2.545   3.241   4.001  0.4189  0.0780 -0.4643
11511SOL    HW141648   2.477   3.265   3.938 -1.3024 -1.6353  0.6356
11511SOL    HW241649   2.528   3.150   4.021  1.8993  0.1382  1.3007
11512SOL     OW41650  11.291   8.305   8.126  0.0676  0.4561 -0.3210
11512SOL    HW141651  11.336   8.237   8.077  0.8758  0.5699  0.2410
11512SOL    HW241652  11.337   8.386   8.104  0.4657  0.5055  0.6290
11513SOL     OW41653  11.412   5.515   7.574 -0.2391 -0.2142  0.1818
11513SOL    HW141654  11.392   5.431   7.532  0.1980 -0.7761  1.0623
11513SOL    HW241655  11.417   5.494   7.667  0.7862  0.6071  0.3253
11514SOL     OW41656   4.156   9.899   2.328  0.1599  0.2911  1.0120
11514SOL    HW141657   4.190   9.949   2.254 -0.2822 -1.3429 -0.3536
11514SOL    HW241658   4.234   9.869   2.375  0.4457  1.1896  1.1240
11515SOL     OW41659  10.558   6.079   1.115 -0.3058 -0.0320 -0.5931
11515SOL    HW141660  10.632   6.129   1.150  1.8761 -3.3537 -0.0425
11515SOL    HW241661  10.502   6.145   1.074  2.4714  2.7785 -0.2375
11516SOL     OW41662   0.384   1.315   3.995  0.1117  0.3202  0.0195
11516SOL    HW141663   0.362   1.262   4.072  0.2417  0.3510  0.0773
11516SOL    HW241664   0.479   1.325   3.999  0.3278 -0.9960 -0.9851
11517SOL     OW41665  10.260  12.502  12.752  0.3960 -0.1986  0.5979
11517SOL    HW141666  10.257  12.594  12.726 -1.6811 -0.3955 -0.0497
11517SOL    HW241667  10.173  12.484  12.788 -0.3495 -2.5799 -1.9660
11518SOL     OW41668   9.942  11.679   6.986  0.5207 -0.1357  0.3972
11518SOL    HW141669   9.983  11.653   7.069 -1.5698 -2.9193  0.7242
11518SOL    HW241670   9.850  11.691   7.008  0.1899  0.6389 -1.2565
11519SOL     OW41671  10.269   4.767   5.771  0.1666  0.1736  0.2567
11519SOL    HW141672  10.249   4.697   5.834  2.1156  0.6638  1.5066
11519SOL    HW241673  10.364   4.765   5.762  0.1456  1.7635 -0.7696
11520SOL     OW41674  11.155   5.108   9.490 -0.1698  0.2740 -0.1929
11520SOL    HW141675  11.230   5.080   9.438 -0.6394  0.8687 -1.2126
11520SOL    HW241676  11.178   5.195   9.521 -0.6430  0.6786 -0.9502
11521SOL     OW41677   2.950  10.290   4.508 -0.2287 -0.0564  0.4099
11521SOL    HW141678   2.993  10.361   4.556  0.8750 -0.4477  0.0195
11521SOL    HW241679   2.978  10.303   4.417 -2.4044  0.7664 -0.2063
11522SOL     OW41680   9.095   2.800  12.735 -0.3175  0.2036 -0.2120
11522SOL    HW141681   9.102   2.837  12.823 -0.1928  0.2185 -0.2283
11522SOL    HW241682   9.175   2.748  12.725  1.2793  2.7331 -1.5177
11523SOL     OW41683   4.234   7.609   7.327  0.3917  1.1034  0.2882
11523SOL    HW141684   4.157   7.659   7.301  0.4973  0.1652 -2.0508
11523SOL    HW241685   4.203   7.550   7.395 -1.6549 -0.8806 -2.1391
11524SOL     OW41686   2.143   5.686   1.516 -0.5837  0.8809 -0.3257
11524SOL    HW141687   2.219   5.738   1.541  1.0649 -1.5001  0.0320
11524SOL    HW241688   2.086   5.688   1.593 -0.5919  2.1818 -0.3584
11525SOL     OW41689   5.478   5.630   5.560 -0.1309 -0.4692  0.2205
11525SOL    HW141690   5.568   5.619   5.529  0.7159  0.2950  2.1678
11525SOL    HW241691   5.439   5.694   5.501  1.9449  2.2277  1.5334
11526SOL     OW41692  11.221   2.212   5.315 -0.3638 -0.0232 -0.2678
11526SOL    HW141693  11.273   2.178   5.243  1.6491  1.5747  0.3117
11526SOL    HW241694  11.220   2.307   5.301 -2.1257  0.0982  0.4303
11527SOL     OW41695   9.486   9.463   7.489  0.2051 -0.1410  0.1639
11527SOL    HW141696   9.545   9.455   7.564 -0.3510  0.1439  0.6373
11527SOL    HW241697   9.543   9.491   7.417  0.4060  1.8399  1.0212
11528SOL     OW41698  12.032   7.274  12.705  0.2947  0.2416 -0.5488
11528SOL    HW141699  12.034   7.273  12.609  0.9490  0.7435 -0.5492
11528SOL    HW241700  12.057   7.184  12.729  0.3984  0.1850 -0.8509
11529SOL     OW41701   7.215  12.261   3.001  0.0685 -0.0104  0.1639
11529SOL    HW141702   7.163  12.197   3.050  1.2509 -0.4363  0.8939
11529SOL    HW241703   7.160  12.283   2.925 -0.5469 -1.5709  0.1203
11530SOL     OW41704  10.632  10.131   8.014 -0.0096  0.0268  0.3313
11530SOL    HW141705  10.568  10.120   8.085 -0.4276 -0.5309 -0.1201
11530SOL    HW241706  10.715  10.148   8.059 -0.1426 -0.9206  0.9781
11531SOL     OW41707   2.580   0.709   5.320  0.1510  0.2330  0.1075
11531SOL    HW141708   2.574   0.795   5.280 -2.0834  0.5304  0.9884
11531SOL    HW241709   2.585   0.726   5.414  1.1142 -0.5866  0.2283
11532SOL     OW41710  10.281   9.438   3.212 -0.6483  0.0420 -0.1213
11532SOL    HW141711  10.310   9.358   3.166  0.4522  0.1882  0.2757
11532SOL    HW241712  10.337   9.441   3.290  0.3201  1.9280 -0.8333
11533SOL     OW41713   5.395   4.281   3.855  0.0674  0.3679  0.1339
11533SOL    HW141714   5.376   4.328   3.936  1.2203  0.1057  0.5796
11533SOL    HW241715   5.368   4.341   3.785 -0.6604  0.7128  0.7025
11534SOL     OW41716   4.523   5.814   4.235 -0.0225  0.9046  0.4112
11534SOL    HW141717   4.429   5.813   4.222 -0.2444  0.0076  1.8180
11534SOL    HW241718   4.539   5.881   4.301  0.3358  1.1270  0.1048
11535SOL     OW41719   9.887   8.533   9.713  0.6331 -0.1272  0.1087
11535SOL    HW141720   9.894   8.570   9.800 -1.1152 -0.9120  0.6369
11535SOL    HW241721   9.976   8.505   9.690  0.8605 -1.4182  2.3367
11536SOL     OW41722   5.574  12.119  12.841  0.2239  0.5808 -0.6523
11536SOL    HW141723   5.614  12.134  12.927  1.4924  0.7792 -1.2382
11536SOL    HW241724   5.640  12.152  12.779 -0.9784  1.1241 -1.6733
11537SOL     OW41725   3.181  11.399   8.341 -0.2442  0.4457  0.0323
11537SOL    HW141726   3.153  11.403   8.433  0.6158  2.9724  0.2686
11537SOL    HW241727   3.275  11.379   8.347  0.6033  3.7243  0.0279
11538SOL     OW41728   1.325   4.146   9.835 -0.0004 -0.0569  0.3784
11538SOL    HW141729   1.328   4.065   9.888 -1.5467 -0.9928 -0.8805
11538SOL    HW241730   1.269   4.205   9.886  1.7782  0.5944  1.7005
11539SOL     OW41731  10.653   7.255   9.938 -0.5405  0.1448 -0.1897
11539SOL    HW141732  10.700   7.336   9.920 -2.0636  1.2299  0.5613
11539SOL    HW241733  10.595   7.244   9.863 -1.7381  0.8254  0.6136
11540SOL     OW41734   9.331   2.780   5.787  0.4523 -0.1059  0.2561
11540SOL    HW141735   9.272   2.768   5.861 -0.5938 -0.6792 -0.6357
11540SOL    HW241736   9.371   2.865   5.802 -1.7882  1.0533  0.1183
11541SOL     OW41737   5.629   8.223   5.645  0.9636  0.4271  0.0674
11541SOL    HW141738   5.579   8.223   5.726  1.1860  0.8116  0.2092
11541SOL    HW241739   5.672   8.138   5.643  0.1416  0.0118 -0.1613
11542SOL     OW41740   8.851   1.358   5.776 -0.1018 -0.1219  0.3243
11542SOL    HW141741   8.834   1.273   5.734 -0.2944 -0.1002  0.3567
11542SOL    HW241742   8.946   1.359   5.790  0.1035  0.3195 -1.0624
11543SOL     OW41743  12.052  10.324  11.721  0.9033 -0.2477 -0.3529
11543SOL    HW141744  12.009  10.258  11.666  0.4860 -1.2267  1.0634
11543SOL    HW241745  11.984  10.350  11.784  1.4924  0.4822 -0.0012
11544SOL     OW41746  10.807   8.382   1.629  0.1794 -0.1553  0.4570
11544SOL    HW141747  10.721   8.402   1.666  0.4877  0.7150  0.7169
11544SOL    HW241748  10.835   8.302   1.674  0.1479  0.3883  1.4526
11545SOL     OW41749   0.423   5.178   8.498  0.9722 -0.1767 -0.5045
11545SOL    HW141750   0.340   5.167   8.545  1.2871  0.0113  0.1085
11545SOL    HW241751   0.475   5.102   8.523  1.3066  0.1496 -0.1901
11546SOL     OW41752  12.432  11.475   3.746  0.4063  0.3636  0.2078
11546SOL    HW141753  12.403  11.458   3.656  1.7217 -1.4104  0.0775
11546SOL    HW241754  12.457  11.567   3.746  0.0785  0.4738 -1.1599
11547SOL     OW41755  12.508   6.693   2.208  0.4933 -0.3578  0.4372
11547SOL    HW141756  12.429   6.700   2.154  0.4643 -0.3763  0.4762
11547SOL    HW241757  12.502   6.605   2.246 -0.8940  0.6169  2.6511
11548SOL     OW41758   9.273   5.937  11.451 -0.1504  0.0390  0.5299
11548SOL    HW141759   9.207   5.921  11.384  0.3398 -0.6434  0.1983
11548SOL    HW241760   9.308   6.024  11.429 -0.8618  0.3659  0.6563
11549SOL     OW41761   9.138   0.762  11.481 -0.1347 -0.3569 -0.2444
11549SOL    HW141762   9.055   0.791  11.444 -0.4446 -0.9968 -0.0604
11549SOL    HW241763   9.199   0.766  11.408 -0.5280 -0.7201 -0.5992
11550SOL     OW41764   1.103   3.649   1.903  0.3702  0.0487 -0.3043
11550SOL    HW141765   1.174   3.658   1.838  0.7674  1.4093  0.2753
11550SOL    HW241766   1.039   3.716   1.877  0.2815  0.2373  0.3837
11551SOL     OW41767   6.864   3.650   6.541 -0.7346 -0.6238 -0.2154
11551SOL    HW141768   6.908   3.581   6.590  0.5681  0.2381 -0.1080
11551SOL    HW241769   6.921   3.667   6.466 -1.5235 -0.3345 -0.7639
11552SOL     OW41770   4.024   1.645   9.308 -0.0931  0.6455 -0.4208
11552SOL    HW141771   4.083   1.721   9.311  0.9456 -0.1414  0.3614
11552SOL    HW241772   4.012   1.621   9.400  1.3953 -1.4298 -0.6768
11553SOL     OW41773   9.825   8.333   1.324  0.2842  0.2291  0.3003
11553SOL    HW141774   9.749   8.290   1.285 -2.0647  3.5741  0.7258
11553SOL    HW241775   9.798   8.354   1.413  1.3225  2.2034  0.2111
11554SOL     OW41776  12.270   3.829   8.897  0.4293  0.3067  0.3098
11554SOL    HW141777  12.246   3.766   8.965  0.8490  0.6153  0.7567
11554SOL    HW241778  12.356   3.861   8.924  1.6988 -1.2630 -1.6135
11555SOL     OW41779   2.501   0.366   9.244 -0.1767  0.0016  0.0393
11555SOL    HW141780   2.421   0.348   9.294  0.4297 -1.4866  0.5241
11555SOL    HW241781   2.471   0.378   9.154 -0.9867 -0.1971  0.2752
11556SOL     OW41782   6.065  10.727   6.386 -0.5223 -0.9367 -0.0725
11556SOL    HW141783   5.970  10.731   6.395 -0.4982 -0.8976  0.1710
11556SOL    HW241784   6.096  10.690   6.469 -0.3378 -1.1056 -0.2132
11557SOL     OW41785   4.763  12.691   0.539  0.3795 -0.2278 -0.9161
11557SOL    HW141786   4.778  12.722   0.628  0.0456 -0.4673 -0.7739
11557SOL    HW241787   4.821  12.744   0.484  0.8553 -0.3368 -0.5173
11558SOL     OW41788  11.330   9.235   6.520  0.0810  0.2275 -0.3683
11558SOL    HW141789  11.386   9.167   6.558 -0.3711 -1.7307 -2.9490
11558SOL    HW241790  11.373   9.259   6.438 -1.1344  1.1400 -0.7717
11559SOL     OW41791  10.900   5.007  12.230  0.3638  0.2570 -0.4959
11559SOL    HW141792  10.960   4.940  12.262  1.2157  0.4961 -1.5522
11559SOL    HW241793  10.915   5.082  12.288  1.4049  0.4555 -0.9936
11560SOL     OW41794   7.969   1.579   7.329 -0.2567 -0.0950 -0.7401
11560SOL    HW141795   7.903   1.648   7.335  0.1022  0.2141 -0.1243
11560SOL    HW241796   8.028   1.608   7.259  0.6867  0.9606  0.4345
11561SOL     OW41797   3.866   7.696   4.064 -0.0724  0.0568  0.4826
11561SOL    HW141798   3.818   7.723   3.985  3.4910 -0.4410 -2.1210
11561SOL    HW241799   3.829   7.611   4.087 -0.4915 -0.3244 -1.4301
11562SOL     OW41800   6.321   0.077   9.298 -0.0094  0.4103  0.3745
11562SOL    HW141801   6.375   0.063   9.376 -0.6581 -0.4929  0.6745
11562SOL    HW241802   6.243   0.023   9.313 -0.6937  1.1728 -0.3567
11563SOL     OW41803   5.342  11.493   2.473  0.0767 -0.2094 -0.2574
11563SOL    HW141804   5.327  11.456   2.386 -1.5200 -0.1472 -0.0376
11563SOL    HW241805   5.325  11.420   2.533 -0.6132  0.1948  0.0620
11564SOL     OW41806  10.207   8.951   4.948 -0.4016  0.0630 -1.1471
11564SOL    HW141807  10.190   8.870   4.995 -2.5873  0.8236 -0.4950
11564SOL    HW241808  10.210   9.018   5.016  1.4170  0.5790 -1.6765
11565SOL     OW41809   6.782   9.584   9.103 -0.5054  0.0333 -0.3477
11565SOL    HW141810   6.877   9.571   9.112 -0.4552  0.7529  0.2644
11565SOL    HW241811   6.764   9.563   9.012  0.2836  0.1186 -0.5336
11566SOL     OW41812  10.383   5.951   2.243 -0.0686 -0.1623  0.3617
11566SOL    HW141813  10.472   5.988   2.239 -0.0049 -0.4048 -0.8661
11566SOL    HW241814  10.349   5.961   2.154 -1.2097 -0.2553  0.7717
11567SOL     OW41815   5.697  10.217   1.628  0.2370  0.1774 -0.2974
11567SOL    HW141816   5.639  10.289   1.603 -0.2068  0.3194  1.0513
11567SOL    HW241817   5.780  10.259   1.649  0.4406  0.1197 -0.9796
11568SOL     OW41818  10.756   4.233   4.970  0.1048  0.0338  0.3629
11568SOL    HW141819  10.776   4.216   4.878 -1.1981  1.4612 -0.2331
11568SOL    HW241820  10.762   4.147   5.012 -0.0376 -0.7801 -1.2100
11569SOL     OW41821   5.316   8.471  10.596 -0.0147 -0.0521 -0.0484
11569SOL    HW141822   5.309   8.520  10.678  1.3994  0.0843  0.0072
11569SOL    HW241823   5.257   8.396  10.609  1.0812 -0.6952  1.6022
11570SOL     OW41824   9.868   2.053   4.963 -0.4883 -0.4863 -1.0076
11570SOL    HW141825   9.776   2.069   4.984 -0.1552 -0.2736  0.3559
11570SOL    HW241826   9.910   2.137   4.978  0.0902 -0.8266 -0.7307
11571SOL     OW41827  12.511   4.788   8.282  0.4919  0.5474 -0.4812
11571SOL    HW141828  12.489   4.873   8.243 -0.1815  0.4272 -0.3897
11571SOL    HW241829  12.455   4.726   8.234  0.2338  0.2964  0.1386
11572SOL     OW41830   1.520   2.087   7.601 -0.3185 -0.1307  0.1453
11572SOL    HW141831   1.573   2.073   7.522 -2.1448 -0.3715 -1.1096
11572SOL    HW241832   1.473   2.005   7.613 -0.2309 -0.0150  1.3739
11573SOL     OW41833   5.414   0.792   8.519  0.4297  0.0977 -0.2855
11573SOL    HW141834   5.497   0.834   8.544  0.1611  0.2408  0.3797
11573SOL    HW241835   5.439   0.726   8.455  1.0462  0.2181 -0.1744
11574SOL     OW41836   7.448   6.176  12.557 -0.2595  0.7304  0.4608
11574SOL    HW141837   7.363   6.161  12.516 -0.3729  1.8993  0.2463
11574SOL    HW241838   7.444   6.126  12.639 -0.5800 -0.4202 -0.2360
11575SOL     OW41839   3.870   0.823   2.343 -0.0495  0.1914 -0.0067
11575SOL    HW141840   3.944   0.770   2.373 -0.1653  0.4080  0.6668
11575SOL    HW241841   3.793   0.768   2.357  0.0772 -0.6134 -2.0363
11576SOL     OW41842   6.650   6.986   2.362  0.0078 -0.0439  0.4629
11576SOL    HW141843   6.664   7.066   2.311 -0.0393 -0.7061 -0.6104
11576SOL    HW241844   6.719   6.989   2.429 -0.9559  1.6715  1.4740
11577SOL     OW41845   8.393   1.126   1.830 -0.4677 -0.0838  0.1395
11577SOL    HW141846   8.328   1.112   1.900 -2.1266  0.5323 -1.2178
11577SOL    HW241847   8.467   1.168   1.875 -2.6479  3.1186  1.1343
11578SOL     OW41848  11.981   2.669  11.325 -0.2893 -0.3275  0.2021
11578SOL    HW141849  12.014   2.623  11.247 -0.3639  0.6208 -0.4095
11578SOL    HW241850  11.900   2.710  11.295  0.4914  1.3729  0.3181
11579SOL     OW41851   0.783   4.838  12.091  0.1482  0.2308  0.1653
11579SOL    HW141852   0.822   4.758  12.127  2.0759  0.9989 -0.0847
11579SOL    HW241853   0.783   4.823  11.996  1.8347  1.0154 -0.0041
11580SOL     OW41854   1.739   8.777   7.033 -0.3887 -0.0729 -0.0002
11580SOL    HW141855   1.763   8.712   6.967  3.7866 -1.3293  2.3966
11580SOL    HW241856   1.677   8.732   7.090  0.3635 -1.0206  0.0901
11581SOL     OW41857   8.382   7.168   8.691  0.1472  0.0516  0.4175
11581SOL    HW141858   8.475   7.168   8.712  0.3792  0.2690 -0.5502
11581SOL    HW241859   8.357   7.075   8.692  0.5917 -0.0841 -0.1767
11582SOL     OW41860  12.265   9.829   8.958 -0.3568 -0.1320  0.2106
11582SOL    HW141861  12.198   9.885   8.997  0.3987  0.4229  0.7661
11582SOL    HW241862  12.307   9.787   9.033 -0.2543 -0.6762 -0.1456
11583SOL     OW41863  10.761   8.531   2.477  0.0688 -0.0031 -0.2714
11583SOL    HW141864  10.677   8.546   2.520  1.3302  0.3388  2.2375
11583SOL    HW241865  10.759   8.587   2.400 -1.6347  0.6934  0.2310
11584SOL     OW41866   5.279   5.009   8.625  0.1836  0.6983  0.1360
11584SOL    HW141867   5.320   5.044   8.546  0.2031 -1.0793 -0.6714
11584SOL    HW241868   5.342   5.029   8.695  1.1199  0.5050 -0.6326
11585SOL     OW41869   6.263   0.582   0.450  1.0909  0.2044 -0.2764
11585SOL    HW141870   6.218   0.665   0.434  0.9585  0.0485 -0.7529
11585SOL    HW241871   6.295   0.589   0.540  0.1367  0.3288  0.0690
11586SOL     OW41872   0.569   5.626   6.934  0.5194 -0.3224 -0.2096
11586SOL    HW141873   0.560   5.535   6.903  0.9857  0.0717 -1.5613
11586SOL    HW241874   0.544   5.679   6.858  3.6370  0.6997 -0.6514
11587SOL     OW41875   0.298  10.290   9.115  0.2401  0.0169 -0.0989
11587SOL    HW141876   0.375  10.339   9.088 -0.2138 -0.0954 -1.6753
11587SOL    HW241877   0.291  10.306   9.209  2.3529 -0.2238  0.1374
11588SOL     OW41878   3.460  12.006   4.693 -0.2435  0.2194 -0.5416
11588SOL    HW141879   3.445  12.044   4.606 -1.2666  0.6725 -0.1833
11588SOL    HW241880   3.509  12.073   4.740  0.2997 -0.0202 -0.7579
11589SOL     OW41881   1.189  12.391   5.781 -0.2532 -0.1513  0.5076
11589SOL    HW141882   1.247  12.450   5.829 -0.8314  0.9745 -0.1588
11589SOL    HW241883   1.249  12.335   5.731  0.3154 -0.5457  1.5918
11590SOL     OW41884   7.732   4.414   0.172 -0.4163  0.1616  0.0208
11590SOL    HW141885   7.670   4.439   0.104 -0.6119 -0.1477  0.0833
11590SOL    HW241886   7.751   4.322   0.153 -1.6844 -0.4015  1.3080
11591SOL     OW41887   6.094   1.188   5.526 -0.4767  0.6133 -0.3969
11591SOL    HW141888   6.003   1.157   5.527 -0.4701  0.5880 -0.5520
11591SOL    HW241889   6.146   1.110   5.547 -0.3363  0.0785 -2.5113
11592SOL     OW41890   9.268  10.331  12.341 -0.2071  0.3686  0.4476
11592SOL    HW141891   9.272  10.426  12.350 -0.2763  0.3569  0.5968
11592SOL    HW241892   9.177  10.309  12.360 -0.2583  0.3021  0.1363
11593SOL     OW41893   9.785  11.357   5.151  0.1049  0.2807  0.0174
11593SOL    HW141894   9.801  11.266   5.124  0.2350 -0.0056  1.0358
11593SOL    HW241895   9.848  11.372   5.222 -0.5769  0.8497  0.5067
11594SOL     OW41896   2.640   7.371   2.574  0.4845 -0.7843  0.2883
11594SOL    HW141897   2.590   7.303   2.530  0.1852  1.3639 -3.0614
11594SOL    HW241898   2.731   7.354   2.551  0.3794  0.0303 -0.8362
11595SOL     OW41899   8.049   4.213   0.182 -0.2837  0.4423 -0.0832
11595SOL    HW141900   8.075   4.305   0.175 -0.7006  0.5925  0.3375
11595SOL    HW241901   8.093   4.171   0.108  0.1878  0.9123 -0.0792
11596SOL     OW41902   8.049   6.924  10.465 -0.1248  0.2185  0.2837
11596SOL    HW141903   7.971   6.875  10.440 -0.0204 -0.4713  1.2556
11596SOL    HW241904   8.023   7.016  10.461 -0.5642  0.0571 -0.7616
11597SOL     OW41905  10.221   9.721   2.170  0.2960  0.8224 -0.0783
11597SOL    HW141906  10.310   9.747   2.146  0.5865  1.0250  1.1335
11597SOL    HW241907  10.180   9.802   2.200 -0.0380  0.5875  0.1070
11598SOL     OW41908   4.201   7.517   3.565  0.0940  0.0009  0.3790
11598SOL    HW141909   4.202   7.612   3.581  0.7811  0.3663 -1.5841
11598SOL    HW241910   4.193   7.479   3.652 -1.3804  1.8722  1.1370
11599SOL     OW41911   1.437   2.874   4.244  0.3776  0.2119  0.0073
11599SOL    HW141912   1.365   2.812   4.229  0.2750  0.1466  0.7632
11599SOL    HW241913   1.407   2.955   4.204 -0.5472  0.4670  1.1798
11600SOL     OW41914   4.761   6.146   8.837 -0.3463  0.0154 -0.1617
11600SOL    HW141915   4.679   6.097   8.837 -1.2049  1.4132 -0.3595
11600SOL    HW241916   4.771   6.177   8.927  0.0524 -0.2770 -0.1011
11601SOL     OW41917   8.101   4.044   7.309  0.1834  0.0490 -0.3459
11601SOL    HW141918   8.081   3.954   7.334 -0.7147 -1.2278 -4.7471
11601SOL    HW241919   8.152   4.036   7.229  1.1316  3.5189 -0.2467
11602SOL     OW41920   8.225   0.386   1.460 -0.6311  0.4295  0.2347
11602SOL    HW141921   8.157   0.354   1.400 -0.8341 -1.4722  1.3922
11602SOL    HW241922   8.266   0.458   1.413 -1.2997 -0.4832 -1.8782
11603SOL     OW41923   5.499   5.001   7.959 -0.3011  0.3123 -0.0822
11603SOL    HW141924   5.479   5.044   7.876 -0.6098  1.0774  0.3804
11603SOL    HW241925   5.417   5.007   8.009 -0.6843 -1.7221 -0.3799
11604SOL     OW41926  10.174  12.680   1.887 -0.2839  0.1581  0.3070
11604SOL    HW141927  10.098  12.631   1.921  0.0645 -0.5196  0.1372
11604SOL    HW241928  10.218  12.617   1.828  0.3812  0.5607  0.3675
11605SOL     OW41929   3.619  10.833   1.591  0.2714 -0.1809  0.3355
11605SOL    HW141930   3.557  10.897   1.557  2.1800  0.8537 -1.4318
11605SOL    HW241931   3.692  10.885   1.624  2.5234 -1.2967 -2.4295
11606SOL     OW41932  11.915   8.657   0.118  0.2462  0.5136 -0.3885
11606SOL    HW141933  11.843   8.595   0.109 -0.0648  0.6208  1.0625
11606SOL    HW241934  11.893   8.708   0.197  2.0908  0.2669  0.3434
11607SOL     OW41935  10.802   6.145   4.099 -0.1657  0.1284 -0.0249
11607SOL    HW141936  10.731   6.203   4.126  1.4666  2.6775 -0.8079
11607SOL    HW241937  10.869   6.157   4.166  0.3435 -0.6097 -0.3868
11608SOL     OW41938   7.303   6.046  12.357 -0.1546  0.0575  0.4028
11608SOL    HW141939   7.325   6.000  12.275 -0.0943  0.2296  0.3232
11608SOL    HW241940   7.295   5.976  12.422  0.2440 -0.0399  0.3479
11609SOL     OW41941   0.840   4.303   8.037 -0.0681  0.3929 -0.0657
11609SOL    HW141942   0.820   4.213   8.062  0.2798 -0.0600 -1.3281
11609SOL    HW241943   0.893   4.337   8.109  0.5149 -0.6957  0.0420
11610SOL     OW41944   4.861   7.880  12.633  0.1986 -0.0137 -0.1058
11610SOL    HW141945   4.903   7.880  12.547  0.0277 -1.6842 -0.2084
11610SOL    HW241946   4.832   7.790  12.646  0.6987  0.0705  1.9463
11611SOL     OW41947  11.589  12.683  12.911 -0.1078 -0.1423 -0.4963
11611SOL    HW141948  11.662  12.652  12.857  0.9173  3.0535 -1.1855
11611SOL    HW241949  11.631  12.723  12.987 -1.3558 -0.9114  0.6344
11612SOL     OW41950   5.620   5.990  10.011  0.0638 -0.1579  0.0582
11612SOL    HW141951   5.622   5.903  10.051 -0.1567 -0.1938 -0.0080
11612SOL    HW241952   5.638   6.050  10.083  1.7185 -0.3459 -0.1668
11613SOL     OW41953   5.984   9.286  12.299 -0.3626  0.1406  0.0184
11613SOL    HW141954   5.970   9.220  12.231 -2.6063  0.4259  0.1323
11613SOL    HW241955   5.970   9.238  12.381 -2.3180  0.7701  0.0932
11614SOL     OW41956  12.116  12.956   4.526 -0.3538 -0.0517 -0.2114
11614SOL    HW141957  12.182  12.922   4.587 -0.2584  0.2169 -0.1619
11614SOL    HW241958  12.116  13.051   4.542 -0.3226  0.0221 -0.6355
11615SOL     OW41959   0.525  12.865  11.824  0.6306 -0.0452 -0.0050
11615SOL    HW141960   0.471  12.794  11.857  2.9843 -0.9486  2.2288
11615SOL    HW241961   0.583  12.824  11.760  1.3195  0.0272  0.5558
11616SOL     OW41962   4.355   8.795  12.508 -0.1396 -0.2491  0.4727
11616SOL    HW141963   4.353   8.756  12.421  0.3132 -1.0237  0.7993
11616SOL    HW241964   4.415   8.739  12.558 -0.4814  0.1194  1.3131
11617SOL     OW41965   4.879   5.101  12.328 -0.5608 -0.4679 -0.6648
11617SOL    HW141966   4.906   5.022  12.374 -0.5796  0.6702  1.4825
11617SOL    HW241967   4.951   5.121  12.269  0.0893 -1.3018 -0.1792
11618SOL     OW41968  11.412  10.252   8.010  0.4968  0.3419  0.1233
11618SOL    HW141969  11.446  10.189   7.947  0.9215  0.4253  0.2660
11618SOL    HW241970  11.488  10.305   8.035  0.1703  0.8402  0.0871
11619SOL     OW41971   6.420   4.380   7.481  0.1452 -0.0669 -0.1178
11619SOL    HW141972   6.462   4.466   7.473 -0.0764 -0.0959 -2.2793
11619SOL    HW241973   6.338   4.396   7.528  0.1160  0.9034 -0.4954
11620SOL     OW41974  12.036   8.205   5.376  0.2267  0.0197  0.2972
11620SOL    HW141975  12.097   8.270   5.412 -0.2768  1.0024 -0.5862
11620SOL    HW241976  11.988   8.251   5.307  0.5546 -1.5702 -1.0712
11621SOL     OW41977   8.782   9.111   0.757  0.4406 -1.1323 -0.0997
11621SOL    HW141978   8.757   9.178   0.694 -0.8066  0.5871  2.0723
11621SOL    HW241979   8.870   9.136   0.786  0.4061 -1.0554 -0.0632
11622SOL     OW41980   8.977   3.618   2.232  0.0615  0.3557  0.1883
11622SOL    HW141981   8.895   3.623   2.182  0.8603  0.4184 -1.1804
11622SOL    HW241982   9.005   3.709   2.243 -0.1349  0.3439  0.8029
11623SOL     OW41983   9.951   8.195  10.433 -0.6314 -0.2395 -0.3462
11623SOL    HW141984   9.918   8.201  10.344  1.0077  1.5189 -0.9034
11623SOL    HW241985   9.896   8.255  10.484 -1.2242 -0.8447 -0.2510
11624SOL     OW41986  11.313   1.058   9.485  0.1444  0.0242  0.5608
11624SOL    HW141987  11.277   1.147   9.479  0.8275  0.2875  0.1388
11624SOL    HW241988  11.251   1.004   9.437  0.1159  0.4090  0.1549
11625SOL     OW41989  12.262   5.647   0.155  0.0848  0.8671 -0.5538
11625SOL    HW141990  12.347   5.661   0.114  0.6695  0.9611  0.6542
11625SOL    HW241991  12.267   5.558   0.190  0.3122  1.4452  0.9370
11626SOL     OW41992   3.126   6.451   3.297  0.6033  0.0673  0.0768
11626SOL    HW141993   3.178   6.370   3.297  1.8943  0.8316  1.5746
11626SOL    HW241994   3.162   6.502   3.224 -0.0141 -0.5759 -0.6871
11627SOL     OW41995   1.955   2.963   1.398 -0.3812 -0.1561 -0.1584
11627SOL    HW141996   1.904   3.023   1.452 -0.1253 -0.8296  0.8618
11627SOL    HW241997   1.889   2.908   1.355 -0.5696 -0.0211 -0.0422
11628SOL     OW41998   1.623   4.569  12.407  0.5973  0.5692  0.4480
11628SOL    HW141999   1.614   4.531  12.320 -0.9924  1.1491  0.3376
11628SOL    HW242000   1.709   4.611  12.405  0.6082  0.5276 -0.8155
11629SOL     OW42001  12.120   7.845  11.047 -0.5008 -0.0328  0.7082
11629SOL    HW142002  12.189   7.806  11.101 -0.1969 -0.7395 -0.1698
11629SOL    HW242003  12.055   7.876  11.110  0.0107 -0.5243  1.4955
11630SOL     OW42004   5.575  12.249   6.137  0.0281 -0.2880 -0.2050
11630SOL    HW142005   5.644  12.299   6.094  0.7779  0.1398  1.4125
11630SOL    HW242006   5.564  12.171   6.082  2.1375 -0.6071 -0.2603
11631SOL     OW42007   5.379   9.113   5.020  0.3268  0.0996 -0.1808
11631SOL    HW142008   5.342   9.035   4.979  0.4678  0.0562 -0.2284
11631SOL    HW242009   5.471   9.112   4.994  0.4911 -0.0971  0.3919
11632SOL     OW42010   6.701  10.364   1.471  0.7095 -0.0327  0.2434
11632SOL    HW142011   6.644  10.322   1.536 -0.7585  1.5528  0.0537
11632SOL    HW242012   6.753  10.426   1.522  0.4276  0.3406  0.0813
11633SOL     OW42013   9.424   7.301   6.203 -0.3090 -0.3213 -0.0420
11633SOL    HW142014   9.355   7.271   6.263 -0.0041  1.8963  1.5675
11633SOL    HW242015   9.438   7.228   6.144 -4.2388 -0.8026 -0.6660
11634SOL     OW42016   2.036   6.658   2.011 -0.3622 -0.8555 -0.3425
11634SOL    HW142017   2.002   6.743   1.984 -0.8882 -1.2748 -1.0540
11634SOL    HW242018   2.085   6.675   2.092 -1.2708 -0.0374  0.0483
11635SOL     OW42019   4.169   9.501  12.596 -0.2244  0.2994 -0.3772
11635SOL    HW142020   4.202   9.559  12.664 -0.8539  0.7024 -0.4055
11635SOL    HW242021   4.152   9.419  12.641 -1.1654  0.7312  0.0846
11636SOL     OW42022   4.377   1.376   7.861  0.0534 -0.4975 -0.0543
11636SOL    HW142023   4.292   1.419   7.855  0.6290  0.7561  0.4907
11636SOL    HW242024   4.395   1.344   7.773 -0.7693 -0.3579 -0.2773
11637SOL     OW42025   2.725   9.875   1.855 -0.1913  0.7079 -0.2040
11637SOL    HW142026   2.678   9.892   1.936 -1.4195 -1.2579 -0.4193
11637SOL    HW242027   2.676   9.923   1.788 -0.9947 -0.0486 -0.1856
11638SOL     OW42028  11.920   2.520   7.518  0.4982  0.2318 -0.3284
11638SOL    HW142029  11.958   2.483   7.598 -0.2325 -0.4520 -0.2763
11638SOL    HW242030  11.948   2.611   7.518  2.6052 -0.3609 -0.5927
11639SOL     OW42031   7.948   3.909   4.960  0.4503 -0.1529 -0.5723
11639SOL    HW142032   8.038   3.942   4.953  1.9984 -3.6178  0.3991
11639SOL    HW242033   7.931   3.869   4.874  0.7489 -1.3995 -0.0693
11640SOL     OW42034   1.411   4.442   3.904  0.6120  0.1802  0.1125
11640SOL    HW142035   1.432   4.353   3.930 -1.4737 -0.3707  0.0753
11640SOL    HW242036   1.489   4.473   3.858  0.8418 -2.1518 -1.2092
11641SOL     OW42037   7.249   5.953   4.183 -0.3232  0.3557 -0.2537
11641SOL    HW142038   7.163   5.941   4.223 -0.1224  0.3277  0.1788
11641SOL    HW242039   7.304   5.985   4.254  0.2526 -0.5325 -0.2929
11642SOL     OW42040  12.103   0.522   0.491 -0.6599  0.4987  0.8919
11642SOL    HW142041  12.101   0.427   0.488 -0.2805  0.5108 -0.5321
11642SOL    HW242042  12.041   0.550   0.424  0.6677  1.2124 -0.0811
11643SOL     OW42043   3.513   6.177   4.970  0.3175 -0.2613 -0.3588
11643SOL    HW142044   3.540   6.089   4.946  1.7292  0.2915 -0.8958
11643SOL    HW242045   3.576   6.203   5.038  0.4403  0.6331 -0.8063
11644SOL     OW42046   4.265   7.988  10.369 -0.0629 -0.5930 -0.0538
11644SOL    HW142047   4.193   8.049  10.353  1.4994  0.9811 -1.6192
11644SOL    HW242048   4.310   7.982  10.284  1.9662 -1.0605  0.9963
11645SOL     OW42049  12.834   6.484   6.268 -0.2808 -0.1241 -0.0328
11645SOL    HW142050  12.918   6.457   6.305 -0.3947 -1.9788 -0.9826
11645SOL    HW242051  12.857   6.552   6.205  0.5221 -0.5612 -0.2362
11646SOL     OW42052  10.984   3.238  12.087  0.5564  0.1110  0.2921
11646SOL    HW142053  11.042   3.177  12.043  1.4081  2.4140 -2.0618
11646SOL    HW242054  11.042   3.291  12.142  0.7055  1.8547 -1.4097
11647SOL     OW42055   3.708   5.754   4.102 -0.0577 -0.5225  0.4171
11647SOL    HW142056   3.717   5.850   4.109  0.4005 -0.5318  0.0058
11647SOL    HW242057   3.676   5.740   4.013 -0.5690 -0.7286  0.6325
11648SOL     OW42058  10.893   1.674  11.992 -0.4849  0.2086 -0.7886
11648SOL    HW142059  10.803   1.655  11.964  0.1648 -2.0175 -1.5635
11648SOL    HW242060  10.906   1.619  12.069 -0.3597  2.0069  0.5586
11649SOL     OW42061   5.680  10.713  12.834  0.2005  0.0926 -0.0205
11649SOL    HW142062   5.601  10.659  12.830 -1.3316  2.1997 -0.0954
11649SOL    HW242063   5.716  10.695  12.921  0.9028 -2.4598 -0.7493
11650SOL     OW42064   9.383   6.128  10.542  0.0780 -0.2669 -0.1571
11650SOL    HW142065   9.444   6.194  10.573  0.2577 -0.3419 -0.3496
11650SOL    HW242066   9.296   6.164  10.563  0.1977 -0.3322  0.4499
11651SOL     OW42067  10.878   2.990   1.493  0.1865  0.3983  0.1190
11651SOL    HW142068  10.902   3.073   1.535 -0.8449 -0.0008  1.5790
11651SOL    HW242069  10.856   2.932   1.565 -3.4163  0.2036 -0.9506
11652SOL     OW42070   7.030   0.721   2.120  0.7624 -0.6407 -0.3445
11652SOL    HW142071   7.009   0.641   2.168  1.1155 -1.7602 -1.9806
11652SOL    HW242072   6.965   0.725   2.050  0.9740  0.3200 -0.5023
11653SOL     OW42073   7.453   6.066  11.761  0.0130  0.2288 -0.7333
11653SOL    HW142074   7.407   6.108  11.833  0.6855  0.9957 -0.7358
11653SOL    HW242075   7.503   6.136  11.720  0.2963 -0.3619 -1.4275
11654SOL     OW42076   6.781   8.587   6.169  0.2316  0.0073  0.6803
11654SOL    HW142077   6.715   8.652   6.146  0.0520  0.3854  2.1570
11654SOL    HW242078   6.772   8.575   6.263  2.0166 -0.2154  0.8704
11655SOL     OW42079   4.866   0.304  11.307 -0.4082  0.1892 -0.5651
11655SOL    HW142080   4.866   0.267  11.219  2.1371  0.8128 -0.9247
11655SOL    HW242081   4.944   0.267  11.348 -0.0321  2.0004  0.4440
11656SOL     OW42082   9.745  10.984  10.174 -0.0657  0.3256  0.5826
11656SOL    HW142083   9.776  10.894  10.175 -3.1927 -0.8865 -0.5111
11656SOL    HW242084   9.703  10.996  10.259 -0.0291  0.6140  0.5602
11657SOL     OW42085   1.839  11.155  10.532 -0.4989 -0.0904  0.3210
11657SOL    HW142086   1.909  11.148  10.597 -1.4053 -1.1388  1.2266
11657SOL    HW242087   1.840  11.070  10.488  0.0829  0.5943 -1.0604
11658SOL     OW42088  12.034   0.583   9.128 -0.0683 -0.4505 -0.3578
11658SOL    HW142089  12.063   0.654   9.185  2.2460 -1.5664 -0.0009
11658SOL    HW242090  12.018   0.510   9.188 -1.1183 -0.6192 -0.8289
11659SOL     OW42091   1.062   8.794   1.922  0.1341  0.2776 -1.0550
11659SOL    HW142092   1.058   8.745   1.840  0.2897 -0.9670 -0.3439
11659SOL    HW242093   1.091   8.730   1.987 -1.1542  0.9226  0.2143
11660SOL     OW42094  11.496   9.822   5.101 -0.3269  0.3978  0.3122
11660SOL    HW142095  11.548   9.777   5.034  0.2385 -1.3643  1.8475
11660SOL    HW242096  11.524   9.913   5.095  0.8692 -0.0038 -0.7974
11661SOL     OW42097  11.973   1.854   7.785  0.4197  0.4289 -0.5462
11661SOL    HW142098  12.000   1.769   7.820  1.8108  0.5686 -1.2175
11661SOL    HW242099  11.944   1.835   7.696 -2.2283  0.2171  0.2816
11662SOL     OW42100   3.086   6.595   3.811  0.2727 -0.4508  0.1995
11662SOL    HW142101   3.177   6.567   3.802  0.6775  0.1178  2.0993
11662SOL    HW242102   3.035   6.517   3.788  1.3130 -1.5908  1.5726
11663SOL     OW42103   0.431   0.630   4.566 -1.1512 -0.0285 -0.1927
11663SOL    HW142104   0.362   0.642   4.631 -0.9116  0.6032 -0.0484
11663SOL    HW242105   0.397   0.562   4.508 -0.5938 -2.0175  1.6550
11664SOL     OW42106   4.420  10.076   0.738 -0.1891  0.4888  0.2912
11664SOL    HW142107   4.425  10.065   0.833 -1.5436  0.9060  0.4291
11664SOL    HW242108   4.327  10.093   0.720  0.0316  0.3475 -1.1160
11665SOL     OW42109   4.775   0.967  11.085 -0.2325  0.5385  0.1051
11665SOL    HW142110   4.719   1.024  11.137 -2.3690  0.0394 -1.5111
11665SOL    HW242111   4.831   1.028  11.036 -2.7472  1.4334 -1.9010
11666SOL     OW42112   0.925   3.825   8.473  0.1193 -0.3107  0.4816
11666SOL    HW142113   0.992   3.834   8.405 -0.1570 -3.3803 -0.3429
11666SOL    HW242114   0.842   3.834   8.426 -0.0726 -2.4613  0.3359
11667SOL     OW42115   2.617   6.162   7.848  0.2321 -0.5252  0.2267
11667SOL    HW142116   2.563   6.231   7.886  0.6175 -0.1503  0.1017
11667SOL    HW242117   2.576   6.143   7.763 -1.2045 -2.0407  1.1843
11668SOL     OW42118  11.167   6.414   1.559  0.0503 -0.0456 -0.1383
11668SOL    HW142119  11.253   6.415   1.516  0.5198  0.2904  0.7923
11668SOL    HW242120  11.177   6.355   1.633 -1.1704 -1.7697 -1.2705
11669SOL     OW42121   3.777   6.208   3.847 -0.2377 -0.7809  0.1941
11669SOL    HW142122   3.839   6.152   3.801  1.3861  0.1542  1.1859
11669SOL    HW242123   3.830   6.277   3.886 -1.9166  0.1316  0.9859
11670SOL     OW42124   4.790   3.298   5.781 -0.5041 -0.3579  0.1230
11670SOL    HW142125   4.800   3.242   5.704 -4.3323 -0.9938 -0.1112
11670SOL    HW242126   4.812   3.386   5.749 -0.2568 -0.8801 -1.2031
11671SOL     OW42127   1.144   4.954  11.066  0.4062 -0.1460 -0.1498
11671SOL    HW142128   1.184   4.981  10.983  1.5827 -1.5491 -0.0692
11671SOL    HW242129   1.150   5.031  11.122 -3.9610  2.2697 -2.4807
11672SOL     OW42130   4.922   2.579   8.481 -0.2034 -0.0113 -0.4349
11672SOL    HW142131   4.940   2.557   8.573 -1.1409  0.6268 -0.0836
11672SOL    HW242132   4.833   2.546   8.466 -2.0063  3.8758  0.3193
11673SOL     OW42133  11.791   3.423  10.264  0.2273 -0.2283  0.3534
11673SOL    HW142134  11.750   3.502  10.226  0.4471 -1.7838 -3.6243
11673SOL    HW242135  11.734   3.352  10.236  1.2368 -1.7049  1.9299
11674SOL     OW42136   9.961   0.987   2.826 -0.1215  0.0933  0.1217
11674SOL    HW142137   9.899   1.041   2.875 -0.5234  0.0311 -0.3026
11674SOL    HW242138  10.038   0.981   2.882  0.0946  1.4475  0.0086
11675SOL     OW42139   8.150  12.115   7.296 -0.1175 -0.1432  0.0549
11675SOL    HW142140   8.147  12.205   7.330  0.1459 -0.1342  0.0573
11675SOL    HW242141   8.062  12.081   7.311 -0.8800  0.8102 -1.8192
11676SOL     OW42142   1.664  10.517   9.753  0.1021  0.5108  0.5038
11676SOL    HW142143   1.695  10.593   9.704 -1.1518  1.0089  0.4468
11676SOL    HW242144   1.599  10.552   9.814 -1.5228 -0.6777 -0.4595
11677SOL     OW42145   1.847   0.498  12.340  0.2110  0.4564  0.5413
11677SOL    HW142146   1.933   0.534  12.320  0.1530  1.5664  2.1240
11677SOL    HW242147   1.864   0.406  12.361  0.3706 -0.6119 -3.4526
11678SOL     OW42148   7.853   6.569   5.770 -0.8257 -0.1470 -0.6572
11678SOL    HW142149   7.777   6.512   5.778 -1.4338  0.5487 -1.3846
11678SOL    HW242150   7.892   6.545   5.686 -0.3190 -0.3987 -0.3558
11679SOL     OW42151   7.404   2.504   6.275 -0.0957  0.1835 -0.1569
11679SOL    HW142152   7.409   2.503   6.179 -0.7982  0.0106 -0.2011
11679SOL    HW242153   7.428   2.415   6.301 -0.2453  0.1324 -0.1935
11680SOL     OW42154   5.501  12.571  10.928 -0.5362 -0.3029  0.4504
11680SOL    HW142155   5.410  12.593  10.950 -1.1833  1.8605 -3.4502
11680SOL    HW242156   5.551  12.648  10.955 -0.1831 -0.6219  0.7197
11681SOL     OW42157   1.875   1.848   4.878 -0.3815 -0.5332 -0.4581
11681SOL    HW142158   1.910   1.786   4.814  2.3729  1.2669 -0.8582
11681SOL    HW242159   1.790   1.874   4.842  0.2956 -0.9161 -2.4575
11682SOL     OW42160  10.601   3.233  11.760 -0.2250 -0.8962 -0.9706
11682SOL    HW142161  10.555   3.194  11.835 -0.3549 -0.4882 -0.8336
11682SOL    HW242162  10.689   3.195  11.763  0.5837  0.9262  0.8449
11683SOL     OW42163   5.419   3.412   4.888  0.1048 -0.4876 -0.4655
11683SOL    HW142164   5.384   3.495   4.857  1.7466  0.3547 -0.1663
11683SOL    HW242165   5.493   3.393   4.830  0.0900 -1.4627 -0.1900
11684SOL     OW42166   7.590   5.113   0.270 -0.5135  0.2043 -0.0747
11684SOL    HW142167   7.677   5.142   0.245 -0.0901  0.5414  1.6401
11684SOL    HW242168   7.553   5.186   0.319 -2.0423  0.3234 -1.3315
11685SOL     OW42169   8.175   8.755   3.043  0.0818 -0.2445  0.0893
11685SOL    HW142170   8.127   8.697   2.983  1.5632 -0.0246 -1.4103
11685SOL    HW242171   8.136   8.841   3.031  0.4143 -0.1871 -0.6705
11686SOL     OW42172   0.195  12.675   3.089  0.6728  0.4547  0.0821
11686SOL    HW142173   0.130  12.666   3.159  0.3537 -0.3250 -0.3011
11686SOL    HW242174   0.210  12.585   3.059  0.1670  0.8461 -1.4162
11687SOL     OW42175   4.016  11.913  11.376 -0.3519  0.2315 -0.0066
11687SOL    HW142176   4.109  11.907  11.356  0.1477  1.7504  1.6056
11687SOL    HW242177   3.996  11.833  11.424  1.0610  1.4215  2.7892
11688SOL     OW42178   0.789   7.641   4.114  0.8121 -0.1677 -0.1158
11688SOL    HW142179   0.860   7.664   4.174 -0.9520  0.9303  1.7103
11688SOL    HW242180   0.750   7.724   4.090 -0.5330 -0.7858 -0.1757
11689SOL     OW42181   1.616  12.703   8.720 -0.9268  0.1927  0.2528
11689SOL    HW142182   1.692  12.752   8.687  1.2178 -0.5705  3.5691
11689SOL    HW242183   1.559  12.771   8.757  0.4584  0.5497  1.8868
11690SOL     OW42184  12.767   4.367   8.703 -0.5744  0.3553  0.2901
11690SOL    HW142185  12.858   4.337   8.692 -0.2279  1.0042  1.2755
11690SOL    HW242186  12.715   4.287   8.693 -0.1619  0.3167 -2.8570
11691SOL     OW42187   8.773  11.674  11.303 -0.4197 -0.0553 -0.6370
11691SOL    HW142188   8.853  11.655  11.254  0.4472 -2.2551  1.4421
11691SOL    HW242189   8.712  11.605  11.277 -0.3735 -0.5119  0.4289
11692SOL     OW42190   2.254   9.130   4.558 -0.1918 -0.7053 -0.1173
11692SOL    HW142191   2.345   9.139   4.532 -0.0668 -0.0402  0.5125
11692SOL    HW242192   2.258   9.121   4.654 -0.7182 -1.7504 -0.1776
11693SOL     OW42193   8.213   8.054   8.565 -0.2979  0.3612 -0.2022
11693SOL    HW142194   8.218   8.007   8.648 -0.7764 -0.3615 -0.5753
11693SOL    HW242195   8.293   8.107   8.562 -0.1461  0.1807  0.5862
11694SOL     OW42196   8.108   5.112  11.619 -0.5942  0.0076  0.0141
11694SOL    HW142197   8.073   5.100  11.707  0.4230  0.0478  0.4344
11694SOL    HW242198   8.162   5.034  11.604  0.1183  0.5293 -0.1402
11695SOL     OW42199   4.710   0.914   2.072  0.0429 -0.2162  0.2110
11695SOL    HW142200   4.797   0.948   2.053 -0.0884 -0.4775 -1.0094
11695SOL    HW242201   4.718   0.871   2.157  0.3566  2.2788  1.5394
11696SOL     OW42202   3.453   8.093   0.626 -0.2571 -0.8724 -0.4611
11696SOL    HW142203   3.363   8.073   0.653 -0.3122 -0.7127 -0.5256
11696SOL    HW242204   3.507   8.028   0.672 -0.0558  1.0402  2.2515
11697SOL     OW42205   8.156   7.780  10.713  0.2487 -0.2439  0.4875
11697SOL    HW142206   8.229   7.774  10.653 -1.2388 -0.1981 -1.4277
11697SOL    HW242207   8.165   7.865  10.756  0.9596  0.0228 -0.1916
11698SOL     OW42208   6.921   1.694   0.477 -0.1048 -0.1480 -0.0748
11698SOL    HW142209   7.013   1.669   0.487 -0.1644 -1.1710 -1.7280
11698SOL    HW242210   6.909   1.704   0.382 -1.6101  0.3753  0.1425
11699SOL     OW42211   7.918   5.206   7.667  0.7737 -0.3870  0.3775
11699SOL    HW142212   7.986   5.229   7.605 -0.0968  1.7129  0.1212
11699SOL    HW242213   7.954   5.231   7.753  0.0940  1.5063  0.1650
11700SOL     OW42214  12.630   1.431  11.019 -0.3330  0.4344 -0.0337
11700SOL    HW142215  12.534   1.422  11.024 -0.3795  0.6856 -0.4094
11700SOL    HW242216  12.653   1.390  10.936  0.1809 -1.8397  1.1629
11701SOL     OW42217   8.825   8.696  10.542  0.1546  0.3735  0.3136
11701SOL    HW142218   8.742   8.742  10.530  1.0331  1.6506 -1.1057
11701SOL    HW242219   8.860   8.685  10.454  0.7613 -1.6142  0.7450
11702SOL     OW42220  12.007  12.095  10.778 -0.3026  0.4043 -0.6913
11702SOL    HW142221  12.001  12.183  10.814  0.2140 -0.6027  2.0532
11702SOL    HW242222  12.101  12.078  10.770 -0.2531 -0.8879  1.6703
11703SOL     OW42223  12.084   6.938   2.946  0.0392  0.5364  0.3748
11703SOL    HW142224  12.027   6.950   2.870  0.0285  0.3728  0.3570
11703SOL    HW242225  12.169   6.973   2.918  0.1253  0.1659  0.1702
11704SOL     OW42226   6.409   3.144   3.003 -0.3201  0.4264 -0.6029
11704SOL    HW142227   6.420   3.084   2.929 -0.5266  0.2383 -0.4820
11704SOL    HW242228   6.331   3.112   3.048  0.8000 -0.5612  0.7273
11705SOL     OW42229   5.612  12.964  12.378  0.3899  0.2963 -0.3182
11705SOL    HW142230   5.612  12.901  12.451  1.3754  0.7547  0.0951
11705SOL    HW242231   5.540  13.023  12.399  1.0374  0.7801  0.6184
11706SOL     OW42232   1.974   7.740   9.647 -0.6329  0.2841 -0.0266
11706SOL    HW142233   1.935   7.693   9.574  0.6370 -0.3528 -0.3115
11706SOL    HW242234   1.902   7.748   9.711 -1.5423  0.1793 -1.0022
11707SOL     OW42235   9.593  11.998  11.511 -0.2166  0.2584 -1.0125
11707SOL    HW142236   9.612  11.973  11.602 -0.6507  0.4541 -0.8685
11707SOL    HW242237   9.607  11.917  11.462  0.3555  0.2317 -0.8246
11708SOL     OW42238   3.888   9.950  10.563 -0.0873  0.2307 -0.0795
11708SOL    HW142239   3.911  10.016  10.497 -0.5712  0.7591  0.2701
11708SOL    HW242240   3.851  10.001  10.636 -0.6134 -0.4428  0.1333
11709SOL     OW42241   4.946   2.605   5.526  0.6124  0.2454  0.3730
11709SOL    HW142242   4.895   2.540   5.479 -0.4154  0.8974  0.5416
11709SOL    HW242243   4.890   2.631   5.600  1.6180  0.2414  1.1570
11710SOL     OW42244   8.970   2.173   7.976  0.2905  0.1312  0.1582
11710SOL    HW142245   8.924   2.249   8.011 -0.0862 -0.0933  0.1614
11710SOL    HW242246   9.051   2.168   8.028  1.2190  1.6065 -1.0803
11711SOL     OW42247  10.878   3.667   4.834  0.0678  0.0398  0.1030
11711SOL    HW142248  10.816   3.596   4.852  1.2558 -0.6359  1.6808
11711SOL    HW242249  10.919   3.686   4.918  1.9120  0.5506 -0.8553
11712SOL     OW42250   9.742   1.376   0.495 -0.6371  0.1811  0.6078
11712SOL    HW142251   9.815   1.337   0.543 -1.3383 -1.8573  0.0990
11712SOL    HW242252   9.680   1.403   0.562 -0.6500 -0.6600  0.9408
11713SOL     OW42253   4.425   7.465  10.196  0.3298  0.6315 -0.1537
11713SOL    HW142254   4.333   7.491  10.187  0.1136  0.2547  0.8945
11713SOL    HW242255   4.471   7.546  10.217 -0.0350  0.5398  1.0661
11714SOL     OW42256  10.712   9.160   6.195  0.2126 -0.0788 -0.4953
11714SOL    HW142257  10.704   9.067   6.218 -0.8706 -0.0893 -0.9034
11714SOL    HW242258  10.773   9.195   6.261 -0.2451 -0.8287  0.3488
11715SOL     OW42259   1.406  11.602   4.545 -0.2196  0.8009  0.3031
11715SOL    HW142260   1.435  11.641   4.627  0.4487 -0.3284  0.6277
11715SOL    HW242261   1.319  11.568   4.563  0.7366 -1.3208  1.2204
11716SOL     OW42262   1.751   4.952   4.240 -0.0137 -0.1550 -0.0300
11716SOL    HW142263   1.708   4.913   4.164 -1.1359 -0.1764  0.6019
11716SOL    HW242264   1.682   4.962   4.305  1.1392 -1.2908  1.4621
11717SOL     OW42265   4.994   5.829   6.361 -0.5101 -0.3266  0.3853
11717SOL    HW142266   5.013   5.886   6.286 -3.9523  1.5112  0.7065
11717SOL    HW242267   5.055   5.858   6.429 -1.4095  2.3977  0.1772
11718SOL     OW42268  12.750   0.854   4.684 -0.4475 -0.2409 -0.5053
11718SOL    HW142269  12.674   0.802   4.659  0.3862 -1.2453 -1.0511
11718SOL    HW242270  12.782   0.813   4.764 -1.4556  1.2425  0.7222
11719SOL     OW42271   7.256   0.010   6.836  0.3024  0.3734 -0.5466
11719SOL    HW142272   7.193   0.051   6.894  0.0421  0.1877 -0.6973
11719SOL    HW242273   7.279  -0.072   6.879 -0.3397 -0.0473 -0.9854
11720SOL     OW42274  12.653   2.239   7.621 -0.2468  0.3040 -0.1312
11720SOL    HW142275  12.660   2.334   7.637 -0.3634  0.3342 -0.2611
11720SOL    HW242276  12.672   2.200   7.706  0.8242  0.4037 -0.3015
11721SOL     OW42277   6.674   8.849   7.787 -0.2499 -0.4288  0.4720
11721SOL    HW142278   6.706   8.807   7.867 -0.1531 -1.0110  0.1360
11721SOL    HW242279   6.610   8.913   7.817  1.1349  0.6969  1.1532
11722SOL     OW42280   4.840   1.573   2.547 -0.1879  0.2543 -0.4924
11722SOL    HW142281   4.920   1.554   2.595 -0.3262  1.2708  0.1561
11722SOL    HW242282   4.819   1.490   2.502  0.0961 -0.6347  0.9566
11723SOL     OW42283   2.312   4.558   3.509 -0.7251 -0.2116 -0.1528
11723SOL    HW142284   2.386   4.590   3.458 -0.3597 -0.5886  0.1456
11723SOL    HW242285   2.287   4.633   3.564  0.1684 -0.4471  0.5895
11724SOL     OW42286   6.227   5.745   4.930  0.3830 -0.1331  0.0763
11724SOL    HW142287   6.285   5.705   4.996  0.1783  1.0384  1.0011
11724SOL    HW242288   6.164   5.676   4.908  2.2255 -1.5459 -1.1499
11725SOL     OW42289  10.255   9.724   1.205  0.2587 -0.0966 -0.4718
11725SOL    HW142290  10.204   9.693   1.279 -0.9484 -1.9088 -1.9688
11725SOL    HW242291  10.324   9.659   1.194  0.4746  0.1963 -0.8750
11726SOL     OW42292   8.177   8.725  12.787  0.1758 -0.5652  0.1362
11726SOL    HW142293   8.233   8.792  12.827 -0.5602 -0.2258  0.6224
11726SOL    HW242294   8.227   8.644  12.796  1.0370 -0.1067 -0.3691
11727SOL     OW42295   1.283   0.927   8.922 -0.4541  0.4496  0.0824
11727SOL    HW142296   1.224   0.928   8.846 -1.1763  0.4372  0.6270
11727SOL    HW242297   1.367   0.957   8.888  0.1259 -2.5015 -1.4333
11728SOL     OW42298   9.195   0.353   7.716 -0.4398  0.3045 -0.5705
11728SOL    HW142299   9.214   0.315   7.802 -2.3490  1.0044  0.2301
11728SOL    HW242300   9.257   0.311   7.656  0.6746 -0.4944  1.0682
11729SOL     OW42301   6.646   5.158   2.859 -0.2594  0.1191 -0.1308
11729SOL    HW142302   6.702   5.199   2.793  1.8870 -2.2660  0.0376
11729SOL    HW242303   6.595   5.230   2.896  0.7270  2.0067 -2.2077
11730SOL     OW42304   1.943   5.289   0.080  0.4246  0.3162 -0.3724
11730SOL    HW142305   1.911   5.347   0.149  0.1192  0.4365 -0.6134
11730SOL    HW242306   2.029   5.259   0.111  0.6646  1.0390 -0.3258
11731SOL     OW42307   1.737   5.361   4.369  0.4723 -0.6235 -0.1305
11731SOL    HW142308   1.735   5.434   4.432 -0.8531  1.3181 -2.2264
11731SOL    HW242309   1.739   5.283   4.423 -1.8149  0.8801  2.4118
11732SOL     OW42310   1.176   9.934   9.465  0.1288 -0.5011  0.1562
11732SOL    HW142311   1.155   9.882   9.543 -1.3748  1.4901  1.1571
11732SOL    HW242312   1.093   9.976   9.441  0.7370 -0.4674 -2.0983
11733SOL     OW42313  12.968   0.337   6.937 -0.2318  0.1432  0.3879
11733SOL    HW142314  12.957   0.377   6.851  3.2719  2.0903  0.6844
11733SOL    HW242315  12.912   0.389   6.995 -0.4682  0.5964 -0.2387
11734SOL     OW42316   3.174   7.640   5.691  0.5919  0.1172  0.1837
11734SOL    HW142317   3.119   7.563   5.673 -0.6962  1.4705 -2.1440
11734SOL    HW242318   3.113   7.703   5.730  0.7206  1.1918 -1.2729
11735SOL     OW42319   7.845   4.297   5.896 -0.1303 -0.1505  0.0258
11735SOL    HW142320   7.830   4.219   5.950 -1.0788 -0.0923 -0.1405
11735SOL    HW242321   7.920   4.340   5.937 -2.0268  1.0030  2.6177
11736SOL     OW42322   1.862   8.402   1.253 -0.3687 -0.4259  0.4478
11736SOL    HW142323   1.899   8.421   1.167 -1.6616 -1.5657 -0.4171
11736SOL    HW242324   1.890   8.312   1.271 -1.2478 -0.6891  0.5564
11737SOL     OW42325   8.392  12.033   8.041 -0.3170  0.3370  0.6366
11737SOL    HW142326   8.479  12.035   8.082 -0.6130  1.2025  1.2596
11737SOL    HW242327   8.333  12.067   8.109 -1.6675 -3.0662  1.3887
11738SOL     OW42328   9.133   7.550   3.595 -0.3637 -0.2312 -0.2879
11738SOL    HW142329   9.052   7.504   3.573  0.3023 -0.5863 -2.1529
11738SOL    HW242330   9.112   7.643   3.582 -0.8253 -0.2127  0.5125
11739SOL     OW42331   1.079   5.094   1.121  0.2038 -0.1699  0.0414
11739SOL    HW142332   0.993   5.075   1.159  1.1063 -0.3457  2.1187
11739SOL    HW242333   1.060   5.133   1.036 -1.9001 -1.1848 -0.0067
11740SOL     OW42334   1.479   8.206   2.084  0.7177 -0.1355  0.4389
11740SOL    HW142335   1.429   8.131   2.116 -1.2993  1.4926  1.3792
11740SOL    HW242336   1.541   8.225   2.154 -0.3533  0.4351  1.2685
11741SOL     OW42337   8.229   2.769   7.526  0.0603  0.4347  0.1099
11741SOL    HW142338   8.192   2.806   7.445 -0.7966  0.8695  0.6888
11741SOL    HW242339   8.277   2.691   7.496 -0.6436  0.3143 -0.7675
11742SOL     OW42340   0.632   7.092   0.575  0.0129 -0.2034  0.2696
11742SOL    HW142341   0.582   7.013   0.554  0.5351 -0.5204  0.2257
11742SOL    HW242342   0.723   7.063   0.582  0.0487  0.1594  1.5652
11743SOL     OW42343  12.869  12.659  11.292 -0.0204 -0.1457  0.2179
11743SOL    HW142344  12.777  12.636  11.280 -0.2089 -0.1510  1.5073
11743SOL    HW242345  12.892  12.621  11.377  1.0016  0.3799  0.1878
11744SOL     OW42346   8.825   5.734  10.638 -0.0174  0.6049 -0.3713
11744SOL    HW142347   8.813   5.716  10.731 -1.3133 -1.3137 -0.8416
11744SOL    HW242348   8.814   5.829  10.630 -3.2560  0.4838  1.0264
11745SOL     OW42349  10.121  10.256   6.306 -0.1834  0.2367 -0.2350
11745SOL    HW142350  10.106  10.321   6.374 -0.7210 -0.0319 -0.0945
11745SOL    HW242351  10.108  10.303   6.224 -1.5455  0.0837 -0.1268
11746SOL     OW42352   3.065  10.922   6.925  0.0594 -0.2715  0.0271
11746SOL    HW142353   3.010  10.868   6.869 -1.3335  1.3432 -0.2517
11746SOL    HW242354   3.060  11.009   6.887  1.5432  0.2530  0.9432
11747SOL     OW42355   0.480   7.916   9.683  0.3671  0.2911 -0.4792
11747SOL    HW142356   0.390   7.894   9.706  0.4072  0.9788  0.3876
11747SOL    HW242357   0.533   7.871   9.749  0.5001  2.0314  0.6831
11748SOL     OW42358  10.677   6.736   5.227  0.1084  0.6319  0.4322
11748SOL    HW142359  10.652   6.645   5.215  1.7384  0.2417 -0.2527
11748SOL    HW242360  10.632   6.782   5.156 -0.1147  0.2559  0.3240
11749SOL     OW42361   1.221   0.906   0.929  0.4009 -0.3437 -0.7907
11749SOL    HW142362   1.315   0.899   0.950 -0.0123 -0.8490  1.0820
11749SOL    HW242363   1.194   0.816   0.914  0.2052 -0.1919 -1.3761
11750SOL     OW42364  12.695   5.783   8.313  0.1587 -0.4514 -0.3111
11750SOL    HW142365  12.741   5.867   8.323 -1.3110  0.4515 -0.8157
11750SOL    HW242366  12.675   5.756   8.403 -0.7009  0.5364 -0.1834
11751SOL     OW42367  11.710   9.407   4.929  0.4972 -0.0190  0.4898
11751SOL    HW142368  11.781   9.423   4.991  2.1434 -0.2531 -1.2327
11751SOL    HW242369  11.685   9.494   4.898  1.4463 -0.0335 -0.3629
11752SOL     OW42370   3.519   9.706   5.447 -0.2938  0.1367  0.2807
11752SOL    HW142371   3.434   9.713   5.404 -0.3931  1.3210  0.6330
11752SOL    HW242372   3.515   9.624   5.496 -1.5243  0.5286  0.8799
11753SOL     OW42373   7.532   6.457   6.304 -0.1556 -0.4697  0.1099
11753SOL    HW142374   7.485   6.532   6.338 -1.0660 -0.8226 -0.3520
11753SOL    HW242375   7.594   6.494   6.240 -0.1042 -0.0561  0.3942
11754SOL     OW42376  10.443   5.023   0.497  0.5162 -0.5665  0.2159
11754SOL    HW142377  10.484   5.109   0.509  1.3348 -0.8926 -0.1672
11754SOL    HW242378  10.473   4.993   0.411 -2.0532 -0.0135 -0.9683
11755SOL     OW42379   1.718   7.491  11.349  0.1726 -0.0571 -0.4838
11755SOL    HW142380   1.691   7.492  11.257 -1.7735  0.4035  0.0413
11755SOL    HW242381   1.738   7.583  11.370  0.1709 -0.0913 -0.3279
11756SOL     OW42382   6.998   9.653  11.164  0.2482 -0.3613 -0.2872
11756SOL    HW142383   7.005   9.685  11.254 -0.6580 -1.6309  0.2551
11756SOL    HW242384   7.087   9.624  11.142  0.5932  0.4636 -0.0180
11757SOL     OW42385   5.297   2.601   6.440  0.0850  0.4603  0.3371
11757SOL    HW142386   5.210   2.600   6.478 -1.5880 -0.9560 -3.1294
11757SOL    HW242387   5.295   2.672   6.376  0.7144 -0.9383 -1.2965
11758SOL     OW42388   8.376  12.048  11.043  0.3601 -0.1130 -0.2974
11758SOL    HW142389   8.370  11.965  11.090  0.4282 -0.3868 -0.7709
11758SOL    HW242390   8.469  12.070  11.046  0.1833  0.5855  0.9132
11759SOL     OW42391   9.078  10.708   8.722 -0.0261  0.4118  0.4480
11759SOL    HW142392   9.112  10.687   8.635  2.2073 -0.7661  1.5271
11759SOL    HW242393   8.983  10.700   8.714  0.2421 -1.6950 -1.3835
11760SOL     OW42394   6.646   0.459  12.132 -0.3162  0.2965  0.2004
11760SOL    HW142395   6.688   0.463  12.046 -0.5615  1.0944  0.1066
11760SOL    HW242396   6.623   0.367  12.144  1.0772 -0.0851  0.0693
11761SOL     OW42397   3.069  11.995   8.861  0.3578  0.3720 -0.0864
11761SOL    HW142398   3.024  12.021   8.942 -0.8792  0.7314 -0.8594
11761SOL    HW242399   3.044  11.904   8.848 -0.4202  0.6598 -0.6757
11762SOL     OW42400  11.347   7.495  10.207 -0.5601  0.4575 -0.3495
11762SOL    HW142401  11.256   7.482  10.237 -0.1469 -0.3206  0.6225
11762SOL    HW242402  11.383   7.560  10.267 -0.0091 -0.4025  0.2666
11763SOL     OW42403  11.393   6.069   3.828  0.3250  0.3521 -0.0737
11763SOL    HW142404  11.368   6.157   3.856 -0.9935 -0.1728  0.5249
11763SOL    HW242405  11.444   6.082   3.749  0.1133  1.6564 -0.0201
11764SOL     OW42406   4.593   3.165   5.897 -0.5058  0.1347  0.2370
11764SOL    HW142407   4.645   3.235   5.858 -0.9134 -0.2521 -1.0537
11764SOL    HW242408   4.604   3.177   5.991  0.2002  1.3448  0.0277
11765SOL     OW42409   8.743  12.017   9.923  0.0962 -0.0377  0.1352
11765SOL    HW142410   8.691  12.096   9.914 -0.7662 -0.6511 -0.4043
11765SOL    HW242411   8.805  12.020   9.850 -0.1070  0.0092 -0.0340
11766SOL     OW42412   0.432   7.380   7.748  0.3808 -0.2739  0.0980
11766SOL    HW142413   0.520   7.358   7.780  0.2200  0.9635  1.4804
11766SOL    HW242414   0.430   7.345   7.659  2.2762 -0.3331  0.0349
11767SOL     OW42415   9.414   7.607  10.682  0.2416  0.4977  0.4634
11767SOL    HW142416   9.506   7.608  10.708  0.3506 -2.8693  0.6411
11767SOL    HW242417   9.396   7.516  10.661 -3.4507  0.7450  1.8064
11768SOL     OW42418  10.778  12.531   8.181  0.0597  0.5545  0.1151
11768SOL    HW142419  10.850  12.577   8.226 -0.4183  0.2098  1.2698
11768SOL    HW242420  10.709  12.525   8.247 -0.2201 -1.0377 -0.2899
11769SOL     OW42421   6.710   4.180   8.161  0.4162  0.5752  0.4498
11769SOL    HW142422   6.767   4.110   8.127  0.9131  1.8731 -1.5877
11769SOL    HW242423   6.622   4.145   8.151  0.5586  0.6850 -1.9236
11770SOL     OW42424   4.532  10.415  10.078 -0.0959 -0.4618  0.3265
11770SOL    HW142425   4.511  10.451  10.164 -1.0209  0.7195 -0.3749
11770SOL    HW242426   4.459  10.442  10.022 -0.4260 -2.7331 -0.4422
11771SOL     OW42427   6.089   4.471   5.281 -0.0374 -0.3259  0.0091
11771SOL    HW142428   6.185   4.471   5.281 -0.0201  0.9320 -1.0765
11771SOL    HW242429   6.065   4.415   5.207 -0.1468 -0.4197  0.1140
11772SOL     OW42430   6.846   2.704   8.676 -0.4444  0.3112 -0.8393
11772SOL    HW142431   6.755   2.726   8.698 -0.0498  0.4080  0.7699
11772SOL    HW242432   6.879   2.782   8.632 -0.5723  1.0049  0.2812
11773SOL     OW42433   3.008  10.904   1.037 -0.3145  0.1276 -0.2497
11773SOL    HW142434   2.950  10.962   0.989 -1.1073 -1.2584 -1.0320
11773SOL    HW242435   3.033  10.954   1.115 -3.1094  0.5320  0.4875
11774SOL     OW42436   4.911   9.636   0.572 -0.1015  0.0505 -0.0766
11774SOL    HW142437   4.934   9.728   0.583 -1.9519  0.8230 -1.9949
11774SOL    HW242438   4.995   9.591   0.564  0.8549  1.4323  1.6329
11775SOL     OW42439   7.136   5.707   8.706  0.6300 -0.1867 -0.0562
11775SOL    HW142440   7.042   5.690   8.696  0.7397 -1.3934  0.6480
11775SOL    HW242441   7.155   5.778   8.646 -0.4773 -0.8437 -1.2248
11776SOL     OW42442   9.339   7.372   0.419 -0.2892  0.5140 -0.2139
11776SOL    HW142443   9.351   7.467   0.427  0.3960  0.4967 -0.9331
11776SOL    HW242444   9.245   7.360   0.415 -0.3527  1.3080 -1.6851
11777SOL     OW42445   7.750   1.928  11.095 -0.2791  0.3776 -0.0671
11777SOL    HW142446   7.794   1.986  11.157 -0.6314  0.8314 -0.2442
11777SOL    HW242447   7.814   1.913  11.026  0.5968 -1.1602  1.0212
11778SOL     OW42448  11.255   3.300   4.191 -0.3620 -0.2825 -0.1671
11778SOL    HW142449  11.287   3.213   4.216  1.0242  0.5670  1.1704
11778SOL    HW242450  11.334   3.352   4.180 -1.1620  0.7407 -1.3399
11779SOL     OW42451   6.379   9.343   0.566 -0.2917 -1.0181  0.2810
11779SOL    HW142452   6.473   9.346   0.546 -0.6721 -0.7333 -1.6060
11779SOL    HW242453   6.371   9.392   0.648  1.3983 -2.4017  1.3514
11780SOL     OW42454   5.174   5.887   8.796 -0.2900  0.4221  0.0519
11780SOL    HW142455   5.203   5.958   8.737  0.3669  0.1885  0.0840
11780SOL    HW242456   5.137   5.821   8.737  1.5181 -0.3771 -0.2548
11781SOL     OW42457   4.001   4.244   4.003 -0.0432  0.5345  0.0506
11781SOL    HW142458   4.052   4.320   3.975 -0.0931  0.9375  1.0013
11781SOL    HW242459   3.970   4.205   3.922  0.1119  1.4455 -0.4638
11782SOL     OW42460  11.671   0.463  12.410 -0.1314  0.2810  0.4240
11782SOL    HW142461  11.588   0.416  12.414 -0.5586  1.0111  0.2046
11782SOL    HW242462  11.662   0.524  12.337  0.3121  0.9001  0.8626
11783SOL     OW42463  12.757   3.062   6.263  0.2173  0.0458 -0.1118
11783SOL    HW142464  12.682   3.014   6.297  1.1846 -0.8882  0.7536
11783SOL    HW242465  12.816   3.072   6.337  1.4100 -0.1366 -1.0005
11784SOL     OW42466  12.074   2.469   9.074 -0.0547  0.1637 -0.1456
11784SOL    HW142467  12.045   2.481   9.165  0.6839 -0.3229  0.1655
11784SOL    HW242468  12.029   2.389   9.046 -1.6337  1.2328 -0.8028
11785SOL     OW42469   2.124   2.864   6.251 -0.4790  0.0735 -0.3525
11785SOL    HW142470   2.039   2.896   6.219  0.1949  2.3809 -0.0622
11785SOL    HW242471   2.127   2.892   6.342  0.1493 -0.9926 -0.0298
11786SOL     OW42472  10.093   4.739   9.916  0.0586  0.2236 -0.1813
11786SOL    HW142473  10.052   4.778   9.994  1.7248  0.7009  0.5095
11786SOL    HW242474  10.039   4.662   9.896 -0.4277  0.1078  1.4346
11787SOL     OW42475   2.374   4.492   2.626 -0.3165 -0.2818 -0.3477
11787SOL    HW142476   2.348   4.533   2.709 -0.9917  3.7220 -2.2933
11787SOL    HW242477   2.293   4.486   2.576  0.6041  1.2868 -2.1466
11788SOL     OW42478  10.886   9.580   2.580  0.5236  0.4934 -0.1889
11788SOL    HW142479  10.977   9.609   2.586  0.7542 -0.4333  1.0339
11788SOL    HW242480  10.892   9.490   2.547  0.0384  0.5017 -0.3039
11789SOL     OW42481  10.711  12.633   5.181 -0.5248 -0.3219 -0.2276
11789SOL    HW142482  10.769  12.621   5.106 -1.0642  0.5376 -0.8126
11789SOL    HW242483  10.641  12.689   5.148 -1.0872 -0.4095  0.7672
11790SOL     OW42484   9.764   8.558   0.173 -0.1234  0.0754 -0.1930
11790SOL    HW142485   9.818   8.637   0.174  0.9872 -0.6593 -0.5035
11790SOL    HW242486   9.811   8.498   0.116 -1.8522 -0.2072 -1.3822
11791SOL     OW42487   9.215   1.973   7.707 -0.2598 -0.1532  0.2594
11791SOL    HW142488   9.247   2.058   7.675  0.3368 -0.4359  0.0915
11791SOL    HW242489   9.292   1.932   7.746  0.3716 -2.0573 -2.6219
11792SOL     OW42490  10.379   9.191   3.649  0.3860  0.1640  0.3609
11792SOL    HW142491  10.410   9.158   3.565  0.8566  1.4603  0.0151
11792SOL    HW242492  10.403   9.283   3.650 -1.5943  0.7279  0.9722
11793SOL     OW42493  10.026  12.692   6.526 -0.4606 -0.4539  0.1545
11793SOL    HW142494   9.982  12.764   6.571  0.3374  0.7210 -0.8562
11793SOL    HW242495  10.086  12.656   6.591  0.0536  0.6440  0.3147
11794SOL     OW42496   6.004   3.112   2.455  0.2871  0.1875  0.2377
11794SOL    HW142497   5.955   3.082   2.531  1.5885 -0.9542  0.6809
11794SOL    HW242498   6.045   3.032   2.421 -0.4292  0.6446 -1.7955
11795SOL     OW42499   6.727   9.140   4.563 -0.4285  0.3232  0.0732
11795SOL    HW142500   6.729   9.213   4.501  0.2335 -0.3147 -0.6927
11795SOL    HW242501   6.819   9.115   4.574 -0.5024  0.6774  1.6506
11796SOL     OW42502  11.855  10.538   2.873 -0.2624  0.0959 -0.3163
11796SOL    HW142503  11.903  10.568   2.950  2.0176 -1.3451 -1.0707
11796SOL    HW242504  11.813  10.456   2.901 -0.3871  0.1755 -0.2732
11797SOL     OW42505   6.124  10.123   5.620  0.0797  0.5406 -0.6878
11797SOL    HW142506   6.086  10.211   5.613  0.9447  0.9948  0.1686
11797SOL    HW242507   6.200  10.126   5.562 -1.0895 -0.3495 -2.3525
11798SOL     OW42508   8.280   3.302   7.036  0.6750  0.8112 -0.4837
11798SOL    HW142509   8.303   3.213   7.062 -0.3033  0.8347  0.5480
11798SOL    HW242510   8.310   3.309   6.945  0.4751 -0.6787 -0.6864
11799SOL     OW42511  11.716   5.305  11.052 -0.0294 -0.2822 -0.3760
11799SOL    HW142512  11.727   5.267  10.965 -1.6489 -2.1107  0.1656
11799SOL    HW242513  11.648   5.372  11.040 -1.5554 -1.7645 -0.2106
11800SOL     OW42514   5.711   5.134   4.032  0.1480 -0.0757 -0.0655
11800SOL    HW142515   5.748   5.211   4.076 -0.1920  0.0270  0.0385
11800SOL    HW242516   5.732   5.147   3.940  0.3217  0.0114 -0.0153
11801SOL     OW42517   5.123   4.705   3.447  0.8579 -0.0691  0.1899
11801SOL    HW142518   5.122   4.609   3.441 -0.5603 -0.0602 -0.1024
11801SOL    HW242519   5.214   4.729   3.434  1.0528 -1.3287 -0.9577
11802SOL     OW42520   3.907   7.501   1.419 -0.0381  0.4321 -0.0145
11802SOL    HW142521   3.890   7.523   1.511 -0.4507  0.8172 -0.1766
11802SOL    HW242522   3.864   7.416   1.407  0.5518  0.0839  0.3097
11803SOL     OW42523   3.588  11.806   2.006 -0.0043  0.1702 -0.0834
11803SOL    HW142524   3.673  11.773   1.976 -0.0115 -1.2028  1.2708
11803SOL    HW242525   3.542  11.829   1.925  0.6968 -1.5256 -1.0351
11804SOL     OW42526   8.868   5.996  11.991  0.6421 -0.4853  0.3098
11804SOL    HW142527   8.878   5.950  12.074  0.2722 -2.4778 -0.6722
11804SOL    HW242528   8.957   6.020  11.966  1.0807 -2.2435  0.0535
11805SOL     OW42529   7.595   4.586  11.449  0.0612  0.5477  0.0484
11805SOL    HW142530   7.632   4.668  11.481  0.8161  1.2797 -2.4397
11805SOL    HW242531   7.524   4.613  11.390 -0.8565 -0.6696  0.5433
11806SOL     OW42532  10.156  10.669   8.318 -0.2204  0.3943  0.1894
11806SOL    HW142533  10.128  10.609   8.387  1.1835  0.0886  0.5210
11806SOL    HW242534  10.225  10.722   8.358 -0.1933  1.0100 -0.6385
11807SOL     OW42535   7.508   8.269   8.387  0.0578 -0.7042  0.2133
11807SOL    HW142536   7.535   8.178   8.379  0.1283 -0.7940  1.3570
11807SOL    HW242537   7.589   8.320   8.380  0.1777 -0.8070  0.8329
11808SOL     OW42538   4.787   4.664  11.563 -0.8375 -0.8888  0.1002
11808SOL    HW142539   4.825   4.599  11.622 -0.3738  0.1437  0.9696
11808SOL    HW242540   4.722   4.710  11.616  0.4436  0.8760  0.2265
11809SOL     OW42541   6.731   2.131  11.875 -0.1217 -0.1547 -0.1090
11809SOL    HW142542   6.652   2.157  11.827 -1.0343 -0.5309  1.1422
11809SOL    HW242543   6.767   2.058  11.824 -2.1879 -1.9064  0.7370
11810SOL     OW42544   3.100   4.466   0.654 -0.3988 -0.2569 -0.4055
11810SOL    HW142545   3.015   4.455   0.697 -0.0934  0.2180  0.3322
11810SOL    HW242546   3.079   4.478   0.561 -1.2657  1.6780 -0.0016
11811SOL     OW42547   7.713   3.626  10.447 -0.3979 -0.6056  0.7877
11811SOL    HW142548   7.746   3.690  10.385 -1.8995 -0.1997  0.3713
11811SOL    HW242549   7.632   3.665  10.481  0.1657 -1.0039  2.6910
11812SOL     OW42550   4.722   0.829   2.326  0.4053  0.4060  0.1198
11812SOL    HW142551   4.782   0.754   2.329 -0.7857 -0.5546  0.8176
11812SOL    HW242552   4.761   0.894   2.384 -0.3845 -1.1346  2.5248
11813SOL     OW42553   9.831  10.706   4.741  0.2056  0.5469 -0.8496
11813SOL    HW142554   9.912  10.709   4.792 -0.5885 -0.1886  0.5112
11813SOL    HW242555   9.820  10.795   4.708  0.2347  1.3217  1.1114
11814SOL     OW42556   6.269   2.999  10.362 -0.2881  0.0982 -0.1089
11814SOL    HW142557   6.178   3.015  10.389 -0.8036 -0.1825 -1.5715
11814SOL    HW242558   6.314   3.082  10.378 -0.9059  0.3768  0.2152
11815SOL     OW42559   3.402   7.614   3.115  0.0313  0.2832  0.0371
11815SOL    HW142560   3.451   7.696   3.122  1.6115 -0.3543 -2.2442
11815SOL    HW242561   3.465   7.547   3.141  0.5614 -0.5562 -2.9920
11816SOL     OW42562   8.843   5.927   1.543 -0.1088 -0.0161  0.5126
11816SOL    HW142563   8.796   5.919   1.626  0.1823 -1.4181  0.5608
11816SOL    HW242564   8.880   6.016   1.545 -0.7038  0.2237  1.5520
11817SOL     OW42565   5.192   9.728   9.764 -0.0450  0.3995  0.1094
11817SOL    HW142566   5.130   9.772   9.706  1.1517 -0.2441 -1.7578
11817SOL    HW242567   5.177   9.634   9.749  0.8713  0.2288  0.1969
11818SOL     OW42568   5.956   2.398   9.116  0.6307  0.5209 -0.4384
11818SOL    HW142569   6.016   2.471   9.103  0.1586  0.8361 -0.8948
11818SOL    HW242570   5.869   2.435   9.098  0.3750 -0.1141 -0.5230
11819SOL     OW42571   4.525  10.364   1.885 -0.0148  0.1932 -0.5216
11819SOL    HW142572   4.437  10.394   1.863  0.2280  1.7296  0.4720
11819SOL    HW242573   4.583  10.418   1.831  0.3898  0.8125  0.5076
11820SOL     OW42574   1.251   3.308  11.468  0.2285 -0.0031  0.1539
11820SOL    HW142575   1.250   3.375  11.535  0.7678 -0.2174  0.3784
11820SOL    HW242576   1.343   3.300  11.443  0.1350 -0.4736 -0.0529
11821SOL     OW42577   1.610   1.833   7.103  0.5528 -0.5370  0.5559
11821SOL    HW142578   1.696   1.870   7.083  0.2359  0.3825  0.8371
11821SOL    HW242579   1.623   1.783   7.183  0.2829  1.9257  2.2761
11822SOL     OW42580  11.648  12.763   5.112 -0.0458 -0.4033 -0.2535
11822SOL    HW142581  11.660  12.858   5.111  1.7493 -0.5648 -2.5376
11822SOL    HW242582  11.555  12.750   5.093  0.1336  0.9227 -2.2848
11823SOL     OW42583   9.644   7.609   0.842  0.2858 -0.1850  0.3700
11823SOL    HW142584   9.550   7.609   0.828  0.3362 -0.2447  0.0076
11823SOL    HW242585   9.669   7.702   0.836  0.2174 -0.1441  0.7077
11824SOL     OW42586   0.539   0.034   2.930  0.3721  0.2751  0.2073
11824SOL    HW142587   0.473   0.091   2.968  0.6306  1.0931 -0.5394
11824SOL    HW242588   0.505  -0.055   2.945 -1.2487  0.6933 -0.7465
11825SOL     OW42589  12.265   3.957   7.504  0.0480  0.0326  0.4932
11825SOL    HW142590  12.219   4.000   7.577 -1.0663  0.7364 -0.5762
11825SOL    HW242591  12.195   3.925   7.448  0.8939 -0.2999 -0.3902
11826SOL     OW42592   1.900   4.260   1.068 -0.0332  1.0450  0.1452
11826SOL    HW142593   1.967   4.241   1.133 -0.0881  0.5233  0.0557
11826SOL    HW242594   1.947   4.257   0.984  0.0063  1.5566  0.1503
11827SOL     OW42595   0.916   2.472   3.019  0.7104 -0.2051 -0.1840
11827SOL    HW142596   0.926   2.529   3.095  1.2756 -1.5452  0.7729
11827SOL    HW242597   0.896   2.386   3.055  0.3339 -0.7412 -1.5820
11828SOL     OW42598   7.371   7.282   9.548 -0.8362 -0.5069  0.0495
11828SOL    HW142599   7.465   7.265   9.547 -0.7833 -0.4686 -2.9521
11828SOL    HW242600   7.365   7.377   9.563 -0.3753 -0.4392 -0.1652
11829SOL     OW42601   1.277   9.828  11.163  0.1520  0.6658 -0.2204
11829SOL    HW142602   1.308   9.870  11.083 -1.1226 -1.5706 -2.0077
11829SOL    HW242603   1.211   9.887  11.198  0.2159  1.3386 -1.2119
11830SOL     OW42604  10.983   4.534   4.967  0.5049  0.5568 -0.3133
11830SOL    HW142605  10.949   4.494   5.047 -0.0167  0.6104 -0.5021
11830SOL    HW242606  11.043   4.469   4.930  1.0414  0.6843  0.3131
11831SOL     OW42607   8.915  11.531   6.265 -0.1949 -0.0090  0.3303
11831SOL    HW142608   8.933  11.560   6.176 -0.0565  3.3092  1.3114
11831SOL    HW242609   8.985  11.467   6.284  0.6277  0.3164 -1.4471
11832SOL     OW42610   0.430   7.932  12.873  0.1989  0.2422  0.6877
11832SOL    HW142611   0.414   7.963  12.962  0.2165  0.4794  0.6086
11832SOL    HW242612   0.510   7.978  12.846  1.6372 -1.6732  1.4543
11833SOL     OW42613   3.201  10.211  10.274  0.4475  0.1301  0.5272
11833SOL    HW142614   3.206  10.120  10.302 -0.7813  0.0806  0.6227
11833SOL    HW242615   3.215  10.262  10.353 -0.0176  0.0122  0.6856
11834SOL     OW42616  12.265   3.116   5.213  0.1999  0.2798 -0.2172
11834SOL    HW142617  12.259   3.093   5.305 -1.1795  0.2637 -0.2976
11834SOL    HW242618  12.215   3.197   5.204 -1.1367 -0.6148 -1.2335
11835SOL     OW42619   8.299   8.430  10.391 -0.1033 -0.0586 -0.5205
11835SOL    HW142620   8.205   8.437  10.409  0.2409 -0.0011  1.4549
11835SOL    HW242621   8.317   8.501  10.329 -1.1186  0.8361  0.1723
11836SOL     OW42622   9.660  12.744   3.768 -0.6587 -0.0975 -0.2660
11836SOL    HW142623   9.715  12.706   3.700  0.2728  0.6913  0.0170
11836SOL    HW242624   9.575  12.757   3.726 -0.3225 -0.3514 -1.0363
11837SOL     OW42625  10.659   5.935  12.923 -0.5223 -0.1307  0.0939
11837SOL    HW142626  10.743   5.907  12.958 -0.1282  0.2941 -0.4974
11837SOL    HW242627  10.610   5.966  12.999  0.0280  0.0497  0.3760
11838SOL     OW42628   2.626   6.671   8.185 -0.1457  0.2507 -0.3714
11838SOL    HW142629   2.639   6.589   8.232  1.6514  0.1952 -0.8931
11838SOL    HW242630   2.696   6.728   8.217 -1.1989  1.5031 -0.2307
11839SOL     OW42631   8.798   3.484   2.940  0.3641 -0.8072  0.3550
11839SOL    HW142632   8.739   3.547   2.983 -0.1950 -1.0107 -0.0929
11839SOL    HW242633   8.746   3.450   2.867  0.8356 -1.4316  0.3055
11840SOL     OW42634   8.249   4.171   5.214  0.2964 -0.3583  0.3488
11840SOL    HW142635   8.216   4.239   5.272 -1.7496 -1.0709  0.0869
11840SOL    HW242636   8.255   4.213   5.128  0.7155 -0.0398  0.5345
11841SOL     OW42637  10.642  10.144   8.871  0.0354  0.3048  0.0948
11841SOL    HW142638  10.713  10.173   8.929  0.2570  0.4386 -0.2438
11841SOL    HW242639  10.588  10.222   8.859  0.2961  0.4222 -0.3256
11842SOL     OW42640   1.464   3.342   9.063 -0.2071 -0.0295  0.3688
11842SOL    HW142641   1.375   3.340   9.098 -0.1730 -1.8452  0.4601
11842SOL    HW242642   1.452   3.333   8.968 -0.1444  0.6470  0.2929
11843SOL     OW42643   2.443  12.695   5.615 -0.1648  0.9703  0.2378
11843SOL    HW142644   2.357  12.729   5.641  0.0570  2.2386 -0.6159
11843SOL    HW242645   2.459  12.733   5.529  1.6587  1.4800  0.7720
11844SOL     OW42646  10.434   9.227   0.237 -0.4805 -0.1222  0.0010
11844SOL    HW142647  10.514   9.233   0.185 -0.8717 -0.6356 -0.6735
11844SOL    HW242648  10.465   9.221   0.328  0.2350 -0.1760 -0.2406
11845SOL     OW42649   4.682   5.280   5.661  0.0783  0.2159  0.2415
11845SOL    HW142650   4.703   5.212   5.725 -0.5999 -0.3262 -0.1027
11845SOL    HW242651   4.729   5.253   5.582  1.9839  1.5624  0.8317
11846SOL     OW42652  11.771   9.822  12.626  0.3826 -0.0785  0.0275
11846SOL    HW142653  11.699   9.839  12.565  2.4594  0.8347 -2.3327
11846SOL    HW242654  11.809   9.739  12.597  1.5648  0.4953 -0.1448
11847SOL     OW42655   2.082   9.786   0.467 -0.5696 -0.3866 -0.2973
11847SOL    HW142656   1.991   9.769   0.442 -0.4199 -1.2454 -0.2734
11847SOL    HW242657   2.077   9.815   0.558 -0.7217 -1.7064  0.1367
11848SOL     OW42658   6.346  10.352   2.902  0.2056 -0.3616  0.3981
11848SOL    HW142659   6.279  10.403   2.857  0.5079  0.3874  0.7787
11848SOL    HW242660   6.345  10.384   2.992  2.4681  1.1924 -0.0444
11849SOL     OW42661   1.682   8.276   3.555 -0.5325 -0.3581  0.0006
11849SOL    HW142662   1.685   8.188   3.593 -0.9357 -0.3907 -0.0379
11849SOL    HW242663   1.739   8.328   3.612  3.5006 -1.5378 -2.4971
11850SOL     OW42664   7.913   6.650   8.350  0.1814  0.3210 -0.2048
11850SOL    HW142665   7.943   6.728   8.305  1.1322  0.6858  1.0088
11850SOL    HW242666   7.838   6.679   8.402 -0.4459  0.0650 -0.9487
11851SOL     OW42667   9.854   9.212   8.651 -0.0962 -0.1571 -0.0090
11851SOL    HW142668   9.817   9.124   8.660 -1.7339  0.4974 -0.1037
11851SOL    HW242669   9.786   9.262   8.607  1.2641  0.8955 -0.9705
11852SOL     OW42670   1.431   3.012   5.943 -0.2473  0.4850  0.4429
11852SOL    HW142671   1.368   2.964   5.890  0.2780 -0.7025  0.8794
11852SOL    HW242672   1.415   2.983   6.033  1.0348  0.0232  0.5417
11853SOL     OW42673   2.645   4.758   2.931 -0.1854 -0.4685 -0.1171
11853SOL    HW142674   2.704   4.824   2.894  0.6203  0.9927  3.3255
11853SOL    HW242675   2.696   4.677   2.931 -0.5071 -0.7424 -2.6964
11854SOL     OW42676   9.896   9.156  11.036 -1.2589  0.1859 -0.3916
11854SOL    HW142677   9.882   9.248  11.061  0.2987  0.1659  0.7561
11854SOL    HW242678   9.814   9.112  11.055 -1.8260  1.2273 -0.3758
11855SOL     OW42679   4.331  12.549   2.431 -0.2356  0.1669  0.1847
11855SOL    HW142680   4.420  12.532   2.399 -0.2609 -0.5097  0.4620
11855SOL    HW242681   4.274  12.515   2.362 -0.2858 -0.7609  0.6701
11856SOL     OW42682   3.935  12.341   7.515  0.1259 -0.4672  0.3037
11856SOL    HW142683   3.876  12.416   7.505 -3.0004 -2.7104  0.5706
11856SOL    HW242684   3.991  12.345   7.438 -0.6291  1.5398 -0.2248
11857SOL     OW42685   8.391  12.237   4.013 -0.1253  0.5925  0.5918
11857SOL    HW142686   8.363  12.230   3.922 -1.7380  1.0328  1.0154
11857SOL    HW242687   8.391  12.147   4.045  1.1683  0.3530 -0.0175
11858SOL     OW42688  11.837   7.660   8.562 -0.1038 -0.3454  0.0704
11858SOL    HW142689  11.903   7.666   8.631  0.0761 -0.4349 -0.0942
11858SOL    HW242690  11.760   7.624   8.605 -0.2302  0.3012  0.3963
11859SOL     OW42691  12.663   7.610   2.927 -0.1456  0.0224  0.0287
11859SOL    HW142692  12.654   7.515   2.919  1.8022 -0.3914  1.7932
11859SOL    HW242693  12.584   7.637   2.975 -0.1107 -0.9233  0.6609
11860SOL     OW42694   0.900   0.498   8.908  0.1972 -0.0672 -0.2237
11860SOL    HW142695   0.917   0.578   8.957 -1.1432  0.1061  0.0029
11860SOL    HW242696   0.868   0.529   8.823  1.8820 -0.3693 -1.0145
11861SOL     OW42697   9.265  11.919   0.307  0.3065 -0.1062  0.1509
11861SOL    HW142698   9.246  11.844   0.363 -1.0516 -0.9784 -1.3740
11861SOL    HW242699   9.182  11.965   0.299  0.4110 -0.1123 -1.2465
11862SOL     OW42700  12.946   8.212   0.263 -0.5212 -0.3215  0.0432
11862SOL    HW142701  12.942   8.244   0.353 -0.3761 -1.3813  0.4477
11862SOL    HW242702  12.869   8.156   0.254 -1.7812  1.5332 -1.2344
11863SOL     OW42703  10.576   4.948   4.495 -0.2540  0.3546 -0.1181
11863SOL    HW142704  10.651   4.954   4.554 -1.3873  2.0661  1.2659
11863SOL    HW242705  10.576   4.858   4.464  0.5984 -0.5289  2.2519
11864SOL     OW42706   4.739   5.382   5.224 -0.4454 -0.0606 -0.0792
11864SOL    HW142707   4.681   5.454   5.248 -2.0376 -0.8405 -1.4313
11864SOL    HW242708   4.699   5.343   5.146  2.8679  0.5729 -2.3477
11865SOL     OW42709  10.162  12.802   1.233 -0.2710 -0.3346  0.6714
11865SOL    HW142710  10.127  12.732   1.178  2.4238  0.3104 -2.1195
11865SOL    HW242711  10.095  12.870   1.229 -0.0327 -0.1201 -2.3655
11866SOL     OW42712   5.169   3.418   4.163 -0.3703  0.4355  0.0182
11866SOL    HW142713   5.077   3.407   4.185 -0.5567 -0.9763 -1.2599
11866SOL    HW242714   5.175   3.507   4.129 -0.9102  1.1016  1.5707
11867SOL     OW42715   6.793   3.790   1.210  0.1243 -0.2862 -0.1578
11867SOL    HW142716   6.839   3.760   1.132  1.1244 -0.6092  0.5487
11867SOL    HW242717   6.709   3.823   1.177  1.7469  2.6403 -1.8303
11868SOL     OW42718  12.712   3.560   2.364  0.0399  0.1740  0.2649
11868SOL    HW142719  12.654   3.513   2.425 -0.4394 -0.0959 -0.3864
11868SOL    HW242720  12.786   3.500   2.352 -1.5796 -1.5162 -2.2859
11869SOL     OW42721   2.339   0.598   5.212  0.2296  0.4878 -0.0099
11869SOL    HW142722   2.421   0.628   5.253  0.7366 -1.4318  0.4535
11869SOL    HW242723   2.270   0.640   5.264  0.8334  3.0055 -1.0523
11870SOL     OW42724   7.100   4.520   0.199  0.0442  0.0001  0.0651
11870SOL    HW142725   7.120   4.465   0.275  0.2727 -0.1781 -0.1233
11870SOL    HW242726   7.013   4.492   0.172  0.2533 -0.4413 -0.1739
11871SOL     OW42727  11.310  10.433   4.383 -0.3377  0.3371 -0.1180
11871SOL    HW142728  11.276  10.371   4.318  1.5484  0.3266 -1.1838
11871SOL    HW242729  11.363  10.494   4.332 -0.0579  1.2758  1.2489
11872SOL     OW42730  12.524   0.909   9.686  0.3088 -0.2918  0.1005
11872SOL    HW142731  12.541   0.996   9.722 -1.1226  0.5851 -1.2046
11872SOL    HW242732  12.455   0.872   9.742  0.4337 -0.3007  0.2478
11873SOL     OW42733  10.227  10.243   1.377  0.1201  0.0319  0.4064
11873SOL    HW142734  10.182  10.315   1.333  0.3632  0.1610  0.3646
11873SOL    HW242735  10.197  10.164   1.332  1.7962  0.2819 -1.2706
11874SOL     OW42736   8.359   1.900  10.866  0.5506 -0.1298  0.4376
11874SOL    HW142737   8.375   1.819  10.916 -2.8520 -0.9821  0.4293
11874SOL    HW242738   8.296   1.948  10.920  2.0260  2.2866  0.1235
11875SOL     OW42739  10.566   0.539   4.237  0.1332  0.4593  0.5065
11875SOL    HW142740  10.498   0.580   4.289  0.0844 -0.0040  0.8155
11875SOL    HW242741  10.556   0.577   4.149 -0.5634  0.3377  0.5289
11876SOL     OW42742   4.972   2.928   6.696 -0.2099 -0.3648 -0.4411
11876SOL    HW142743   5.026   2.995   6.653 -0.3896 -0.2022 -0.4157
11876SOL    HW242744   5.020   2.906   6.776 -1.2910  1.4911  0.8238
11877SOL     OW42745   2.396   0.869   0.788 -0.3295  0.0240  0.2524
11877SOL    HW142746   2.316   0.904   0.829 -0.5045  0.1231 -0.1622
11877SOL    HW242747   2.467   0.907   0.839 -0.4663  2.0352 -0.9174
11878SOL     OW42748   6.091   1.505   7.247  0.0860  0.0383  0.3921
11878SOL    HW142749   6.001   1.479   7.226 -0.6933  2.6874  0.1861
11878SOL    HW242750   6.083   1.565   7.320  1.8515 -0.6066  1.1766
11879SOL     OW42751   2.480   0.561  10.775 -0.8518  0.0718  0.3161
11879SOL    HW142752   2.468   0.609  10.693 -1.5215  1.9927  1.4564
11879SOL    HW242753   2.448   0.473  10.757 -0.5650  0.3161 -1.5907
11880SOL     OW42754  11.059   7.890   0.102 -0.1022  0.1516 -0.2351
11880SOL    HW142755  11.147   7.855   0.116  0.0715  0.8869  0.6238
11880SOL    HW242756  11.067   7.944   0.024  0.3428  0.6268  0.1301
11881SOL     OW42757   4.266   9.188   8.476  0.2135 -0.1537 -0.4689
11881SOL    HW142758   4.225   9.253   8.419  1.8507  0.2185 -1.2751
11881SOL    HW242759   4.215   9.191   8.557  1.1662  3.3255  0.1429
11882SOL     OW42760   4.569   4.247   8.068  0.3075  0.5057 -0.3614
11882SOL    HW142761   4.654   4.247   8.025  0.1518 -2.1490 -0.8490
11882SOL    HW242762   4.518   4.314   8.021  2.0938  2.2420  0.0344
11883SOL     OW42763   7.867   3.295  11.264  0.5314 -0.1614 -0.0757
11883SOL    HW142764   7.833   3.354  11.332 -0.4125 -1.9426  1.0731
11883SOL    HW242765   7.834   3.332  11.182  1.2545  1.7367  0.4463
11884SOL     OW42766   7.074   5.176   2.009 -0.0478  0.0142 -0.2532
11884SOL    HW142767   7.015   5.182   1.934  0.5524  1.0152 -0.6716
11884SOL    HW242768   7.029   5.225   2.078  1.0506  2.4684 -1.1332
11885SOL     OW42769   4.867   6.911   7.831  0.0650 -0.0294  0.1247
11885SOL    HW142770   4.827   6.904   7.744  1.4466  1.4557 -0.6824
11885SOL    HW242771   4.961   6.917   7.814  0.2689  1.8845  1.5739
11886SOL     OW42772   8.781   7.512   6.994 -0.1767 -0.2436  0.1339
11886SOL    HW142773   8.723   7.547   7.062 -1.0886 -0.3174 -0.5804
11886SOL    HW242774   8.735   7.530   6.912  1.5225  1.0377 -0.5925
11887SOL     OW42775   7.005   0.486   8.154 -0.2038  0.1890 -0.0149
11887SOL    HW142776   6.985   0.574   8.121 -1.1794  0.8762  2.2349
11887SOL    HW242777   6.920   0.447   8.173  0.2798 -0.4208  0.9789
11888SOL     OW42778   2.566   9.366   6.349 -0.7452 -0.3569  0.0235
11888SOL    HW142779   2.558   9.350   6.443 -1.0001 -0.9754 -0.1047
11888SOL    HW242780   2.585   9.280   6.311 -2.5877 -0.4724 -0.7228
11889SOL     OW42781  10.469   5.301   8.536  0.0749 -0.2273  0.5886
11889SOL    HW142782  10.507   5.281   8.450 -1.2103  0.7520 -0.2518
11889SOL    HW242783  10.500   5.389   8.557 -0.9440  0.2215  0.3058
11890SOL     OW42784   9.186   6.319  12.157  0.7290  0.5673  0.3964
11890SOL    HW142785   9.205   6.232  12.193 -1.0437  0.1322  0.3852
11890SOL    HW242786   9.208   6.379  12.228 -1.3730 -0.1847  1.7671
11891SOL     OW42787   9.355   5.255  10.440  0.2327 -0.5970  0.1270
11891SOL    HW142788   9.289   5.194  10.406  0.5438 -0.7841 -0.1491
11891SOL    HW242789   9.366   5.320  10.371  1.9269 -1.7854 -0.8030
11892SOL     OW42790  12.712   6.557   9.888 -0.0898 -0.0886  0.2113
11892SOL    HW142791  12.670   6.498   9.825  0.2687  0.7943 -0.8937
11892SOL    HW242792  12.751   6.499   9.953 -0.4123 -1.0424 -0.4248
11893SOL     OW42793   6.351   8.427  12.267 -0.6222  1.0648 -0.4653
11893SOL    HW142794   6.345   8.453  12.175 -0.4969 -0.6163 -0.9888
11893SOL    HW242795   6.445   8.413  12.282 -0.8501 -2.0118 -1.1599
11894SOL     OW42796   5.821   5.926   4.721 -0.0355  0.1374  0.2341
11894SOL    HW142797   5.844   5.863   4.652 -0.1131  1.6160 -1.2053
11894SOL    HW242798   5.854   6.010   4.689  0.1077  0.8581  2.1190
11895SOL     OW42799   3.647   6.259   2.983 -0.3455  0.2196  0.2977
11895SOL    HW142800   3.651   6.190   2.917 -1.3952  0.9277 -0.5658
11895SOL    HW242801   3.658   6.215   3.066 -2.1302 -1.1750 -0.1443
11896SOL     OW42802  12.354   4.244   2.170  0.2148  0.1049  0.3781
11896SOL    HW142803  12.415   4.180   2.206 -0.9537 -0.2945  1.7383
11896SOL    HW242804  12.319   4.202   2.092 -0.0166 -0.6329  0.8670
11897SOL     OW42805   5.794   8.869  10.063 -0.2297  0.7742  0.5426
11897SOL    HW142806   5.827   8.901  10.148  1.1801  0.0316  0.2995
11897SOL    HW242807   5.745   8.790  10.085 -0.3349  0.8817  0.7072
11898SOL     OW42808   7.983  10.197   8.323  0.1344  0.3049  0.1714
11898SOL    HW142809   8.025  10.236   8.246 -0.7368  2.4186  0.6973
11898SOL    HW242810   8.029  10.237   8.397  0.7328 -1.4480  0.8020
11899SOL     OW42811  11.000   4.930   2.765  0.3066 -0.2549  0.5892
11899SOL    HW142812  11.034   5.003   2.816 -0.9738  0.3903  0.5654
11899SOL    HW242813  11.025   4.852   2.814 -0.5398  0.3374  2.0137
11900SOL     OW42814   5.537   5.190   0.714 -0.0764  0.1076  0.0770
11900SOL    HW142815   5.453   5.219   0.680 -0.6191 -2.6776 -1.2223
11900SOL    HW242816   5.549   5.102   0.678  2.2056 -0.6208  2.2838
11901SOL     OW42817   0.275  10.201  12.137 -0.7067  0.4463  0.1972
11901SOL    HW142818   0.334  10.126  12.140  0.2729  1.0502 -2.1492
11901SOL    HW242819   0.194  10.167  12.099  0.2479  0.7868 -2.3353
11902SOL     OW42820  12.660   1.669   1.336 -0.2945  0.6304  0.0187
11902SOL    HW142821  12.694   1.595   1.386 -0.1949  0.0567 -0.8784
11902SOL    HW242822  12.584   1.634   1.290 -0.2752  1.1019 -0.3825
11903SOL     OW42823   1.254   4.819   1.539 -0.2458  0.4193  0.2652
11903SOL    HW142824   1.272   4.878   1.465 -0.0431 -1.6463 -1.4437
11903SOL    HW242825   1.338   4.812   1.584  0.0876  0.4037 -0.3358
11904SOL     OW42826  12.595  10.434  11.031  0.0182 -0.9322 -0.6585
11904SOL    HW142827  12.664  10.471  10.975  0.7897  1.6704  1.8020
11904SOL    HW242828  12.630  10.440  11.119 -4.4977  4.0926  1.3267
11905SOL     OW42829   2.931   5.242   5.006  0.1459  0.2051  0.1092
11905SOL    HW142830   2.933   5.326   4.961  3.9322  0.3721  0.2333
11905SOL    HW242831   2.940   5.264   5.099 -1.5623 -0.3062  0.4188
11906SOL     OW42832   1.215   4.543   8.630  0.5197  0.0924  0.0803
11906SOL    HW142833   1.283   4.595   8.672  0.1945  0.6664 -0.0983
11906SOL    HW242834   1.261   4.487   8.568  0.9232 -0.1985  0.6316
11907SOL     OW42835   1.275   4.705   7.993 -0.4606  0.1253  0.5318
11907SOL    HW142836   1.223   4.625   7.984  0.1386 -0.1315 -0.9654
11907SOL    HW242837   1.215   4.768   8.033 -1.1859 -0.8270  0.9909
11908SOL     OW42838   4.992   5.950   3.233  0.0413 -0.1117  0.0546
11908SOL    HW142839   4.955   5.926   3.318  2.3297  0.4735  1.2895
11908SOL    HW242840   4.944   6.028   3.207 -1.9824 -1.3446 -0.1755
11909SOL     OW42841   0.857   8.403  10.062  0.3974 -0.0971  0.7658
11909SOL    HW142842   0.889   8.443   9.980  1.2546  0.7036  1.4613
11909SOL    HW242843   0.936   8.392  10.115 -0.2533  0.2137  1.8287
11910SOL     OW42844   8.825  11.183   4.896  0.4442 -0.4925 -0.6399
11910SOL    HW142845   8.868  11.156   4.816  0.4897 -1.5715 -0.2724
11910SOL    HW242846   8.883  11.152   4.966 -0.7278 -1.6911 -0.1475
11911SOL     OW42847   8.711   4.764   4.519  0.2232 -0.4648 -0.2115
11911SOL    HW142848   8.657   4.711   4.576 -1.7618 -0.5506 -2.0341
11911SOL    HW242849   8.705   4.853   4.554  0.9934 -0.8755  1.0236
11912SOL     OW42850   9.312   1.896   8.213 -0.0616 -0.5842 -0.0395
11912SOL    HW142851   9.382   1.831   8.207  0.6823  0.2124 -0.1851
11912SOL    HW242852   9.358   1.980   8.217 -1.0187 -0.0206 -0.5911
11913SOL     OW42853  12.233   5.376   0.233  0.4353 -0.0559 -0.1319
11913SOL    HW142854  12.237   5.288   0.269  0.5063 -0.2032 -0.4958
11913SOL    HW242855  12.148   5.380   0.188 -0.4299  0.6865  1.4772
11914SOL     OW42856  10.542   2.565   8.774  0.3234 -0.1756  0.1116
11914SOL    HW142857  10.450   2.573   8.751  0.1394  1.3319  1.2190
11914SOL    HW242858  10.547   2.488   8.830 -0.3297 -0.0510  0.3440
11915SOL     OW42859   8.805   3.370  11.314  0.2518  0.0944 -0.5386
11915SOL    HW142860   8.871   3.369  11.383  0.0010 -0.2679 -0.2991
11915SOL    HW242861   8.791   3.463  11.295  0.0838  0.2126  0.1304
11916SOL     OW42862   8.330   8.222   5.719  0.0113  0.1826 -0.6696
11916SOL    HW142863   8.403   8.200   5.663  1.0205 -0.8038  0.9536
11916SOL    HW242864   8.366   8.287   5.781  0.0205 -1.4168  1.0962
11917SOL     OW42865   8.557   0.274  12.420  0.0472  0.1393 -0.3838
11917SOL    HW142866   8.500   0.197  12.422 -1.1221  0.9798 -0.3361
11917SOL    HW242867   8.646   0.238  12.417 -0.5113 -1.2395 -2.6224
11918SOL     OW42868   6.338   2.524   5.679 -0.0814 -0.2570  0.5442
11918SOL    HW142869   6.265   2.575   5.644 -1.1490 -2.5700 -0.9201
11918SOL    HW242870   6.415   2.555   5.631 -0.6314  0.2317 -0.0401
11919SOL     OW42871   1.541   4.760  10.720 -0.5225  0.3976 -0.2764
11919SOL    HW142872   1.536   4.701  10.796 -1.2660  0.9240  0.0895
11919SOL    HW242873   1.470   4.822  10.732 -1.2803 -0.0915 -1.9192
11920SOL     OW42874  10.067   1.710  12.691  0.1361  0.2891  0.0290
11920SOL    HW142875   9.990   1.668  12.652  0.5511 -0.1384 -0.3475
11920SOL    HW242876  10.134   1.642  12.690  0.0831  0.1878  1.7632
11921SOL     OW42877   9.397   6.409   9.952 -0.0912 -0.0599  0.4510
11921SOL    HW142878   9.331   6.385   9.887 -1.1741  0.5328  1.3014
11921SOL    HW242879   9.478   6.371   9.919  0.1404  2.9817 -2.9872
11922SOL     OW42880  11.704  12.744   2.758  0.5951 -0.2470  0.3787
11922SOL    HW142881  11.654  12.673   2.799 -0.5496 -0.0659 -0.6453
11922SOL    HW242882  11.773  12.699   2.708  0.7739 -0.5557  0.8946
11923SOL     OW42883  12.763   9.426  10.813 -0.0392 -0.6150  0.2827
11923SOL    HW142884  12.842   9.433  10.758 -0.1876  2.1446  0.2844
11923SOL    HW242885  12.793   9.452  10.900 -0.9714  0.8369  0.2027
11924SOL     OW42886   4.365   9.427  12.396 -0.4336 -0.6904 -0.4946
11924SOL    HW142887   4.430   9.497  12.391  0.5120 -1.5452 -0.5669
11924SOL    HW242888   4.300   9.458  12.458  0.0720  0.1706 -0.3929
11925SOL     OW42889   1.270   7.953   3.674 -0.4884 -0.3636  0.6624
11925SOL    HW142890   1.195   8.009   3.654 -1.2183 -1.0970  1.2552
11925SOL    HW242891   1.260   7.931   3.767  0.5927 -0.2935  0.8124
11926SOL     OW42892   4.296   0.790   8.555 -0.5920 -0.0376 -0.1302
11926SOL    HW142893   4.304   0.781   8.460 -0.4904  3.1668 -0.5345
11926SOL    HW242894   4.202   0.805   8.569 -0.6592 -0.8391  0.3546
11927SOL     OW42895   8.187   3.366  12.796 -0.2701 -0.8174  0.3577
11927SOL    HW142896   8.195   3.393  12.704  0.2703  0.3000  0.7152
11927SOL    HW242897   8.104   3.403  12.824 -0.0410 -0.4316  0.5417
11928SOL     OW42898  10.086  11.323   0.997  0.3647  0.3165 -0.2204
11928SOL    HW142899  10.055  11.251   1.052  2.0000 -0.3041 -0.0711
11928SOL    HW242900  10.026  11.324   0.922 -0.9789  0.2081  0.8139
11929SOL     OW42901  11.416   6.075  10.219  0.0914 -0.5709 -0.0825
11929SOL    HW142902  11.490   6.045  10.167  0.7634 -0.5592  0.8325
11929SOL    HW242903  11.421   6.171  10.215  0.9795 -0.5376  1.0895
11930SOL     OW42904   9.358   3.009   0.545 -0.0898  0.0310 -0.3877
11930SOL    HW142905   9.277   3.056   0.524 -1.4983 -0.7233  2.8187
11930SOL    HW242906   9.421   3.041   0.480 -2.1757  2.7975 -1.2699
11931SOL     OW42907   7.088  11.187  10.356 -0.2644  0.4488 -0.1383
11931SOL    HW142908   7.171  11.229  10.380 -0.0695 -0.5792  1.1178
11931SOL    HW242909   7.023  11.228  10.413 -0.0967 -0.7609  0.9889
11932SOL     OW42910   8.117   8.738   5.250 -0.6705 -0.4774 -0.3284
11932SOL    HW142911   8.108   8.665   5.312 -0.6146 -0.2382 -0.0341
11932SOL    HW242912   8.211   8.747   5.236 -0.4414  1.1729  1.6523
11933SOL     OW42913  11.217   2.928   2.837  0.1188 -0.1419 -0.1890
11933SOL    HW142914  11.214   2.953   2.930  0.1962  0.4690 -0.3427
11933SOL    HW242915  11.196   2.835   2.836 -1.3186  0.1470  0.3245
11934SOL     OW42916   5.401   6.881  12.803 -0.3069  0.4114 -0.4256
11934SOL    HW142917   5.457   6.860  12.728 -0.6456  0.6828 -0.7537
11934SOL    HW242918   5.317   6.841  12.782 -0.3838  0.4309 -0.1591
11935SOL     OW42919   7.174  10.980   4.105  0.1297 -0.1115 -0.1930
11935SOL    HW142920   7.123  10.997   4.184  0.0812 -1.3360  0.0640
11935SOL    HW242921   7.156  10.888   4.084  1.7877 -0.4283 -0.4087
11936SOL     OW42922   2.655  12.178   0.410 -0.7942 -0.1986  0.3561
11936SOL    HW142923   2.667  12.087   0.438 -0.5932 -0.3034 -0.0661
11936SOL    HW242924   2.591  12.213   0.472 -1.3326 -0.8023  0.1641
11937SOL     OW42925   1.549   1.517   3.773  0.0700 -0.2343 -0.2780
11937SOL    HW142926   1.644   1.511   3.762  0.2745  2.1757 -0.3788
11937SOL    HW242927   1.528   1.448   3.836  1.7075 -1.5135 -1.0572
11938SOL     OW42928   4.801   8.574   2.431 -0.3887 -0.0207  0.3900
11938SOL    HW142929   4.727   8.632   2.449  0.9132  1.6191  0.7475
11938SOL    HW242930   4.841   8.559   2.517  0.1995 -0.1885  0.0942
11939SOL     OW42931  11.400   2.565   3.378  0.6463 -0.0169 -0.1124
11939SOL    HW142932  11.314   2.550   3.338 -0.0001  3.3580 -0.3258
11939SOL    HW242933  11.394   2.523   3.464 -0.8259 -0.7295 -0.5297
11940SOL     OW42934   3.194   2.021   8.128  0.1426 -0.9076 -0.6431
11940SOL    HW142935   3.189   2.097   8.186 -1.8489 -1.7684  0.4210
11940SOL    HW242936   3.252   2.048   8.057 -0.3521  1.5319 -0.1947
11941SOL     OW42937   7.664   1.712   4.520  0.0496 -0.1124 -0.4379
11941SOL    HW142938   7.594   1.777   4.532 -0.2752 -0.4570 -0.4555
11941SOL    HW242939   7.685   1.683   4.608 -1.5946 -1.8571 -0.5460
11942SOL     OW42940   5.411   5.605   8.614  0.3412  0.6882  0.2405
11942SOL    HW142941   5.356   5.664   8.562 -0.8655 -0.5428  0.0698
11942SOL    HW242942   5.374   5.610   8.702 -1.2092 -1.4381 -0.2229
11943SOL     OW42943   5.523   2.035  10.732  0.8171 -0.0360 -0.0266
11943SOL    HW142944   5.490   2.021  10.643 -0.1811  0.7149  0.2047
11943SOL    HW242945   5.616   2.051  10.721  0.8141 -0.5362 -0.8806
11944SOL     OW42946   8.039   1.083   0.716  0.0361  0.2376 -0.3076
11944SOL    HW142947   8.048   1.089   0.621  2.9300  1.3026 -0.0634
11944SOL    HW242948   8.129   1.089   0.749 -0.5708 -2.6778  2.4189
11945SOL     OW42949   7.567   8.244   1.028 -0.4609  0.1573  0.1860
11945SOL    HW142950   7.472   8.239   1.018 -0.5674 -0.6408  1.4179
11945SOL    HW242951   7.582   8.330   1.068 -0.6854  0.1268  0.3366
11946SOL     OW42952   2.349   1.055   2.814  0.4165 -0.9849  0.4837
11946SOL    HW142953   2.270   1.041   2.866  0.3291  1.2744  1.0795
11946SOL    HW242954   2.333   1.008   2.732 -1.0950 -1.4112  0.9886
11947SOL     OW42955   6.171   5.252   6.991 -1.0667 -0.1462  0.5405
11947SOL    HW142956   6.249   5.293   7.026 -1.2578  0.8152 -0.1285
11947SOL    HW242957   6.187   5.158   6.999  0.0220  0.0453  0.6799
11948SOL     OW42958   5.797  12.072   1.642 -0.4373 -0.4259  0.5538
11948SOL    HW142959   5.847  12.020   1.579  0.3906  1.0920 -0.0911
11948SOL    HW242960   5.758  12.142   1.590  0.1269  0.7769  1.6745
11949SOL     OW42961   6.292   0.755   6.538 -0.6131  0.2282  0.1016
11949SOL    HW142962   6.247   0.785   6.459  1.2831  0.3232 -1.0033
11949SOL    HW242963   6.347   0.682   6.509 -0.4357 -0.2284  1.4952
11950SOL     OW42964   4.510  12.196   3.075 -0.2666 -0.4119  0.5235
11950SOL    HW142965   4.498  12.172   3.166 -1.9494 -0.2443  0.3877
11950SOL    HW242966   4.586  12.147   3.046  0.5810 -0.1056  2.1300
11951SOL     OW42967   8.515   7.596  12.902 -0.1396  0.1022 -0.3119
11951SOL    HW142968   8.557   7.569  12.820 -0.0271  0.2286 -0.2960
11951SOL    HW242969   8.481   7.684  12.883 -1.7100 -0.5850 -0.8043
11952SOL     OW42970  12.428   7.974  10.199  0.2333 -0.2288  0.5327
11952SOL    HW142971  12.395   8.059  10.171  0.5816 -0.5523 -0.9795
11952SOL    HW242972  12.352   7.929  10.236 -0.5562 -0.1657 -0.9411
11953SOL     OW42973   3.957   2.486   2.984 -0.4693  0.6636 -0.7132
11953SOL    HW142974   4.003   2.464   2.903  0.2834 -1.6812  0.2634
11953SOL    HW242975   4.020   2.538   3.033  0.9422 -1.7485  0.2156
11954SOL     OW42976   4.412   7.444   6.203 -0.0782  0.6292 -0.5397
11954SOL    HW142977   4.379   7.494   6.128 -0.1385  1.6086  0.1217
11954SOL    HW242978   4.350   7.463   6.274  0.1241 -0.0683 -0.1609
11955SOL     OW42979   6.514   0.831   9.343  0.8857  0.7520  0.7075
11955SOL    HW142980   6.605   0.861   9.336  0.6288  1.1983 -1.0153
11955SOL    HW242981   6.469   0.876   9.272 -0.3768 -0.6390  0.5960
11956SOL     OW42982  10.877   3.640  11.655 -0.7284  0.3961  0.3787
11956SOL    HW142983  10.812   3.579  11.689  0.3266  0.1811  2.1127
11956SOL    HW242984  10.921   3.591  11.585 -0.1317 -0.7494  1.5070
11957SOL     OW42985   7.475   4.202   3.470 -0.0746 -0.4207 -0.6168
11957SOL    HW142986   7.538   4.146   3.424  0.8886 -0.3160  0.4982
11957SOL    HW242987   7.390   4.169   3.444  0.4690 -2.0567 -0.4506
11958SOL     OW42988  12.285   9.582   4.553 -0.1350 -0.1495  0.5376
11958SOL    HW142989  12.353   9.620   4.499 -0.3120  0.0478  0.4537
11958SOL    HW242990  12.217   9.649   4.558  0.2171  0.1461  1.6449
11959SOL     OW42991   4.298  11.961  12.518  0.4652 -0.3113  0.1425
11959SOL    HW142992   4.356  11.996  12.450 -2.2354  1.2872 -1.5087
11959SOL    HW242993   4.291  12.031  12.583 -1.2264  0.4228 -0.7709
11960SOL     OW42994   2.883  11.804  10.106  0.0415  0.2059 -0.1140
11960SOL    HW142995   2.849  11.762  10.027  0.1884  0.0287 -0.0827
11960SOL    HW242996   2.805  11.826  10.157 -0.0176 -0.5333  0.1311
11961SOL     OW42997   4.000   1.568   4.560 -0.7987 -0.0808  0.4737
11961SOL    HW142998   3.983   1.647   4.611  1.0518  0.6401  0.0422
11961SOL    HW242999   4.015   1.500   4.627  1.4813  0.8274  0.9768
11962SOL     OW43000   0.249   7.474  12.927 -0.1161  0.3415 -0.2655
11962SOL    HW143001   0.319   7.420  12.889 -0.7184 -0.0340 -0.8571
11962SOL    HW243002   0.265   7.470  13.022  0.3942 -0.1244 -0.3637
11963SOL     OW43003   7.830   8.362  12.945 -0.7027 -0.1179  0.2294
11963SOL    HW143004   7.903   8.413  12.982 -0.2900  0.1018 -0.8625
11963SOL    HW243005   7.839   8.276  12.987 -0.2385  0.1174  0.6327
11964SOL     OW43006  11.699   9.120   4.913  0.1170 -0.4886  0.3245
11964SOL    HW143007  11.701   9.204   4.867 -0.2963 -0.5968  0.1015
11964SOL    HW243008  11.608   9.111   4.942  0.1919 -0.7947  0.4656
11965SOL     OW43009   2.395   3.571   9.823  0.2488  0.7442 -0.0994
11965SOL    HW143010   2.304   3.547   9.836  0.1287  1.4163  0.3158
11965SOL    HW243011   2.403   3.587   9.729  0.1013  0.0685 -0.2355
11966SOL     OW43012   3.008   7.030  11.339  0.1505  0.1692 -0.1714
11966SOL    HW143013   3.062   6.953  11.321 -0.1211  0.1085 -0.7602
11966SOL    HW243014   3.068   7.104  11.331  0.4671  0.0070  0.6387
11967SOL     OW43015   6.492   7.234   5.446 -0.5518 -0.1420 -0.5386
11967SOL    HW143016   6.479   7.139   5.437 -1.3149  0.0262 -1.2637
11967SOL    HW243017   6.577   7.250   5.404 -0.5994 -0.4490 -0.7582
11968SOL     OW43018   3.648  10.060   6.083 -0.1118 -0.3328 -0.3026
11968SOL    HW143019   3.690   9.974   6.086  1.5399  0.4543  0.9669
11968SOL    HW243020   3.632  10.082   6.175 -3.4442 -0.5732 -0.6953
11969SOL     OW43021   1.644  11.870  11.421  0.6348 -0.0683  0.2984
11969SOL    HW143022   1.705  11.939  11.449  1.7151 -0.5705 -0.7451
11969SOL    HW243023   1.559  11.900  11.453  1.1023  1.6774  0.0242
11970SOL     OW43024   9.158   5.539  10.795  0.4427  0.4933 -0.2558
11970SOL    HW143025   9.123   5.564  10.710  0.7623  0.3284 -0.4401
11970SOL    HW243026   9.236   5.487  10.774  0.3260  0.1571  0.1295
11971SOL     OW43027   7.112   9.397   5.609  0.7561  0.2148 -0.0682
11971SOL    HW143028   7.044   9.402   5.542 -1.2045  1.9047  1.9004
11971SOL    HW243029   7.193   9.420   5.563 -0.0345 -1.2323 -2.3554
11972SOL     OW43030  11.009   0.345   9.663 -0.0177  0.2441  0.3569
11972SOL    HW143031  10.954   0.291   9.606  0.2158  0.7981 -0.4018
11972SOL    HW243032  11.073   0.384   9.604 -0.5299  1.8144  0.8075
11973SOL     OW43033   1.572  10.778   8.072 -0.1706  0.5794  0.4457
11973SOL    HW143034   1.632  10.751   8.142 -0.3420  0.8928  0.7146
11973SOL    HW243035   1.493  10.726   8.086 -1.7931  3.3493  2.9315
11974SOL     OW43036   9.405   5.207   0.991 -0.6911  0.1795  0.2066
11974SOL    HW143037   9.420   5.122   0.950 -3.2383 -0.2661 -0.0075
11974SOL    HW243038   9.317   5.232   0.962 -0.3835  2.4459  1.0304
11975SOL     OW43039   4.636   9.608   0.488  0.4671 -0.1982 -0.1274
11975SOL    HW143040   4.644   9.527   0.438 -2.7380 -2.4342  2.5661
11975SOL    HW243041   4.727   9.631   0.510  1.7064 -1.1089 -3.6918
11976SOL     OW43042   7.007  11.475   2.341 -0.5476 -0.0557  0.3690
11976SOL    HW143043   7.033  11.383   2.335  0.2207  0.2288 -1.2480
11976SOL    HW243044   6.965  11.483   2.426  2.8997 -1.0038  2.3170
11977SOL     OW43045   4.486   2.516   8.095  0.2793  0.2141 -0.2063
11977SOL    HW143046   4.557   2.576   8.119 -1.8485  2.7034  0.3477
11977SOL    HW243047   4.406   2.567   8.109 -1.7211 -2.8073  0.3054
11978SOL     OW43048   9.552   8.954   5.298  0.1645 -0.3378  0.3182
11978SOL    HW143049   9.588   9.039   5.273 -2.4432  0.5908 -0.6484
11978SOL    HW243050   9.578   8.942   5.389  0.9261  1.3237  0.3461
11979SOL     OW43051   4.715  10.776  12.511 -0.2099  0.1624  0.1733
11979SOL    HW143052   4.670  10.851  12.549 -1.8558 -1.5607  1.8676
11979SOL    HW243053   4.647  10.730  12.461 -0.1362 -1.8450  1.7773
11980SOL     OW43054   5.967   9.149   2.826 -0.2191 -0.3843  0.1604
11980SOL    HW143055   5.886   9.199   2.832 -1.6914 -2.3883 -1.5214
11980SOL    HW243056   6.007   9.157   2.912 -1.6981  1.4247  0.7544
11981SOL     OW43057   1.382   2.142  10.452 -0.2863  0.1706  0.6492
11981SOL    HW143058   1.438   2.187  10.515  1.6794 -0.3670 -0.6246
11981SOL    HW243059   1.336   2.213  10.407  1.3597  0.8600 -0.0433
11982SOL     OW43060  12.276   3.528  12.642  0.4755 -0.1039 -0.4368
11982SOL    HW143061  12.202   3.494  12.693  1.5563 -1.9460 -0.0407
11982SOL    HW243062  12.318   3.591  12.700  1.1836 -1.5524  0.6702
11983SOL     OW43063   1.828   9.902   1.102 -0.2418  0.0705  0.3693
11983SOL    HW143064   1.762   9.843   1.139 -1.7818  0.8977 -0.9091
11983SOL    HW243065   1.887   9.921   1.174 -1.3812 -0.7596  1.5641
11984SOL     OW43066   0.134   9.826  10.920 -0.2762  0.0435 -0.2966
11984SOL    HW143067   0.114   9.795  11.008 -3.2487  0.5644 -0.6819
11984SOL    HW243068   0.157   9.747  10.871 -0.2057 -0.4624  0.5384
11985SOL     OW43069   4.686  11.844   3.758  0.5563 -0.6849  0.4117
11985SOL    HW143070   4.665  11.765   3.708  0.3789  0.0247 -0.6385
11985SOL    HW243071   4.605  11.895   3.760  1.0967  0.2188 -0.2854
11986SOL     OW43072  11.632   8.263   4.918  0.1755 -0.0743  0.2737
11986SOL    HW143073  11.699   8.301   4.974  3.1130 -2.1811 -1.5206
11986SOL    HW243074  11.669   8.269   4.830 -2.3185 -0.7998 -0.9083
11987SOL     OW43075   4.887  12.450  11.355  0.9333 -0.0780  0.2407
11987SOL    HW143076   4.895  12.429  11.448  0.2092 -0.8007  0.1475
11987SOL    HW243077   4.842  12.535  11.354 -0.4194 -0.7631  0.5313
11988SOL     OW43078   8.097   0.544   5.499 -0.1942  0.0710  0.4916
11988SOL    HW143079   8.169   0.491   5.465 -0.0997  0.4014  0.1739
11988SOL    HW243080   8.042   0.561   5.422 -1.8369 -2.0580  1.0968
11989SOL     OW43081   2.278   8.541   2.286  0.2390  0.8568  0.1483
11989SOL    HW143082   2.195   8.545   2.334  0.1969 -0.7197  0.2338
11989SOL    HW243083   2.344   8.530   2.354  0.3336  0.2063 -0.0496
11990SOL     OW43084  11.984  12.047   0.829 -0.1073  0.5190 -0.7816
11990SOL    HW143085  11.945  12.051   0.916 -1.6992 -0.2281 -1.4215
11990SOL    HW243086  12.078  12.052   0.845 -0.3261 -0.2678  1.0389
11991SOL     OW43087   0.620   8.136   3.742  0.1417  0.1151  0.0652
11991SOL    HW143088   0.714   8.147   3.753  0.2911 -0.5824 -0.4818
11991SOL    HW243089   0.596   8.202   3.676  0.2518  0.2562  0.1652
11992SOL     OW43090   5.694   1.090   4.708 -0.3867 -0.1845 -0.0213
11992SOL    HW143091   5.623   1.030   4.730  0.4820 -0.3829  2.4649
11992SOL    HW243092   5.744   1.043   4.641 -3.5510  0.7725 -3.4326
11993SOL     OW43093   1.325   8.157   2.782 -0.4125  0.0276 -0.1239
11993SOL    HW143094   1.387   8.216   2.825 -0.3402  0.3086 -0.6024
11993SOL    HW243095   1.239   8.186   2.812 -0.3167 -0.3373  0.5093
11994SOL     OW43096   9.086   1.402   9.461 -0.8786  0.0556 -0.3107
11994SOL    HW143097   9.034   1.454   9.522  0.3744 -0.2331  1.0512
11994SOL    HW243098   9.021   1.349   9.414 -1.8604 -0.0194  1.0643
11995SOL     OW43099   7.574   6.921   1.186 -0.0087  0.0049 -0.2318
11995SOL    HW143100   7.597   6.953   1.274  0.0675  0.5663 -0.4493
11995SOL    HW243101   7.574   7.000   1.132 -0.2739 -0.3098 -0.6916
11996SOL     OW43102  10.026   2.382  11.322 -0.0366 -0.0041 -0.2485
11996SOL    HW143103   9.959   2.446  11.299 -0.6567 -0.4651  0.2031
11996SOL    HW243104  10.090   2.387  11.251 -0.8955 -0.0249 -1.0470
11997SOL     OW43105   7.683   2.231   4.550  0.4419  1.0537 -0.0911
11997SOL    HW143106   7.688   2.188   4.465  1.6638 -0.3820  0.6678
11997SOL    HW243107   7.705   2.163   4.613 -0.1162  2.1675  1.3710
11998SOL     OW43108   1.573   0.287   4.418 -0.0777 -0.1339  0.1959
11998SOL    HW143109   1.565   0.229   4.342 -1.7526 -1.6388  1.4344
11998SOL    HW243110   1.662   0.321   4.412  0.4718 -1.6560 -1.4261
11999SOL     OW43111   4.163   6.281   7.607  0.7335  0.3099 -0.0359
11999SOL    HW143112   4.188   6.196   7.570 -0.8080  0.2376 -1.0179
11999SOL    HW243113   4.239   6.309   7.657  1.9021 -0.8643 -1.0903
12000SOL     OW43114   6.785   8.971   5.257  0.1939  0.8010  0.2049
12000SOL    HW143115   6.873   8.935   5.261  0.1773  0.2976 -2.3291
12000SOL    HW243116   6.728   8.894   5.256  0.1076  0.6845 -4.0933
12001SOL     OW43117  12.031   1.435   2.379 -0.2441  0.5043 -0.0409
12001SOL    HW143118  11.973   1.360   2.365 -0.2259  0.2910  0.9552
12001SOL    HW243119  11.981   1.510   2.347 -1.4496  0.4493  1.5731
12002SOL     OW43120   5.711   0.075   6.532  0.8878  0.4233 -0.0241
12002SOL    HW143121   5.685   0.014   6.601  2.1706 -0.6898 -0.4635
12002SOL    HW243122   5.677   0.035   6.452  0.8645  0.8145 -0.2087
12003SOL     OW43123   7.657   5.108   2.751 -0.5426  0.0449  0.1276
12003SOL    HW143124   7.661   5.038   2.685  0.0679 -1.7037  1.8991
12003SOL    HW243125   7.747   5.116   2.781 -1.0979 -0.5928  2.0778
12004SOL     OW43126   6.451   8.590  10.626  0.0195  0.0077 -0.2104
12004SOL    HW143127   6.493   8.669  10.592  1.7816 -1.0538 -0.6437
12004SOL    HW243128   6.368   8.585  10.578  1.1361  0.1243 -2.2865
12005SOL     OW43129   1.946   3.442   8.723 -0.2505 -0.1910  0.2256
12005SOL    HW143130   1.855   3.473   8.721 -1.0428 -2.2827  1.1386
12005SOL    HW243131   1.998   3.519   8.701 -2.2116  1.2027  0.2225
12006SOL     OW43132   2.846   6.382   8.852  0.1535  0.2881  0.2374
12006SOL    HW143133   2.846   6.420   8.764  0.1256  1.0646  0.5686
12006SOL    HW243134   2.911   6.312   8.847  1.0944  1.1555 -0.0595
12007SOL     OW43135   1.027  11.367   6.235  0.6457 -0.5601 -0.7591
12007SOL    HW143136   1.026  11.328   6.323 -0.9102 -0.2960 -0.6167
12007SOL    HW243137   1.049  11.459   6.251 -0.0752 -0.4109 -0.5768
12008SOL     OW43138  12.377   4.198   0.051  0.7656 -0.0990 -0.5561
12008SOL    HW143139  12.462   4.234   0.078  0.4120 -0.0560  0.5735
12008SOL    HW243140  12.324   4.202   0.131  1.0180 -4.1080  0.0217
12009SOL     OW43141   3.808  12.259  12.582 -0.7711 -0.2352 -0.2894
12009SOL    HW143142   3.881  12.198  12.578  1.3507  2.0701  0.6785
12009SOL    HW243143   3.769  12.245  12.669  0.8540  0.9589  0.6701
12010SOL     OW43144  12.751   7.437   1.639  0.5454  0.7316  0.6793
12010SOL    HW143145  12.844   7.416   1.630  0.2894 -0.0730 -0.2787
12010SOL    HW243146  12.739   7.515   1.585  0.3665 -0.1031 -0.5257
12011SOL     OW43147   3.248   5.448   1.535 -0.3759  0.3463 -0.1874
12011SOL    HW143148   3.290   5.392   1.470 -2.3879  0.4256 -1.6415
12011SOL    HW243149   3.176   5.490   1.488  1.0283  4.2543  0.7897
12012SOL     OW43150   1.670  11.036   7.510  0.0119 -0.0518 -0.4174
12012SOL    HW143151   1.589  11.000   7.473 -0.6112  1.6825 -0.8786
12012SOL    HW243152   1.733  10.964   7.507  0.1092 -0.0639 -5.1010
12013SOL     OW43153   1.383  11.345   7.329  0.0998 -0.3200  0.0302
12013SOL    HW143154   1.361  11.255   7.351  0.8157 -0.3960  0.4391
12013SOL    HW243155   1.477  11.343   7.308  0.5124  0.6147  1.6204
12014SOL     OW43156   9.537   0.055   7.688 -0.3206 -0.0757 -0.3665
12014SOL    HW143157   9.621   0.075   7.645 -1.0321 -0.4555 -2.0362
12014SOL    HW243158   9.552   0.073   7.780  0.6821  2.8967 -1.0112
12015SOL     OW43159   7.247   2.795   3.706  0.2231  0.2029  0.5982
12015SOL    HW143160   7.289   2.863   3.758  1.9019 -0.7173  0.5114
12015SOL    HW243161   7.242   2.719   3.765 -0.0231 -0.1332  0.1570
12016SOL     OW43162   2.528   5.275  11.564  0.3220  0.0994 -0.1514
12016SOL    HW143163   2.526   5.312  11.653  0.5695  1.6885 -0.7711
12016SOL    HW243164   2.575   5.192  11.574 -1.3097 -0.6964  1.5081
12017SOL     OW43165   2.789   5.547   0.432  0.3691  0.1666 -0.4522
12017SOL    HW143166   2.880   5.576   0.431  1.0456 -1.7973 -1.8982
12017SOL    HW243167   2.741   5.621   0.470  2.6354  0.9120  1.2176
12018SOL     OW43168   6.486   3.214  12.345  0.6936 -0.1774 -0.1656
12018SOL    HW143169   6.415   3.154  12.366  0.7279  0.2825  1.3529
12018SOL    HW243170   6.468   3.292  12.397  2.7247 -0.3352  0.8537
12019SOL     OW43171  12.399   1.546   2.776  0.1256  0.7165  0.2623
12019SOL    HW143172  12.346   1.591   2.710  1.8865  2.1112 -0.2647
12019SOL    HW243173  12.421   1.462   2.736  0.1442  1.0371 -0.4044
12020SOL     OW43174   1.498   8.991   8.206  0.1333  0.0177 -0.0261
12020SOL    HW143175   1.447   8.915   8.178 -0.4685  0.7063 -0.8618
12020SOL    HW243176   1.442   9.035   8.270 -1.5084  2.1114 -2.6909
12021SOL     OW43177   6.718   7.261   4.288  0.0016  0.6536 -0.4311
12021SOL    HW143178   6.795   7.311   4.317 -0.8697  1.3578  0.7796
12021SOL    HW243179   6.702   7.291   4.198 -0.1498  2.1598  0.0654
12022SOL     OW43180   0.990   5.657   6.010  0.0862 -0.0082  0.0743
12022SOL    HW143181   1.051   5.641   6.082 -0.6717 -1.3047  0.4603
12022SOL    HW243182   1.020   5.599   5.940 -0.2757 -0.1216  0.0114
12023SOL     OW43183   0.904  11.847   4.135 -0.2495  0.3429  0.5101
12023SOL    HW143184   0.813  11.874   4.149 -0.3770  1.4210 -1.9189
12023SOL    HW243185   0.902  11.752   4.145 -1.5841  0.3679  0.7281
12024SOL     OW43186   3.252   6.381   9.794 -0.0777 -0.4011 -0.8007
12024SOL    HW143187   3.317   6.451   9.785 -0.5969  0.2957  0.5302
12024SOL    HW243188   3.224   6.362   9.705 -0.9391  2.1002 -1.1499
12025SOL     OW43189   7.446   1.810   5.768  0.2541  0.4923  0.3184
12025SOL    HW143190   7.399   1.819   5.851 -0.9434  2.5738 -0.5089
12025SOL    HW243191   7.389   1.851   5.703 -0.0049 -3.1286 -2.0629
12026SOL     OW43192   6.615   2.099  11.478 -0.1400 -0.2917 -0.8003
12026SOL    HW143193   6.626   2.010  11.510 -0.0439  0.1569  0.4846
12026SOL    HW243194   6.607   2.090  11.383  1.3262 -1.5442 -0.8467
12027SOL     OW43195   8.564   5.915   9.428 -0.0592  0.1538  0.5922
12027SOL    HW143196   8.527   5.842   9.478 -0.0307  1.2585  2.3353
12027SOL    HW243197   8.658   5.898   9.428  0.0092  0.4591  1.5080
12028SOL     OW43198  12.785   8.023   5.757  0.5202  0.2736  0.0744
12028SOL    HW143199  12.699   8.060   5.736 -0.8491 -3.3850 -1.7173
12028SOL    HW243200  12.847   8.074   5.705 -0.6569  2.2850  0.5538
12029SOL     OW43201   9.583   1.440   0.287  0.6280 -0.0578  0.1157
12029SOL    HW143202   9.622   1.415   0.371  0.9639  0.4974  0.1389
12029SOL    HW243203   9.563   1.358   0.244 -0.6462 -0.3731  1.2266
12030SOL     OW43204   3.185   1.554   9.551 -0.0813  0.2314  0.0584
12030SOL    HW143205   3.273   1.553   9.513 -0.0127  1.5361  0.1389
12030SOL    HW243206   3.145   1.472   9.522  1.5110 -0.9004  0.8759
12031SOL     OW43207   4.733   0.145   0.546 -0.0222 -0.6969 -0.1496
12031SOL    HW143208   4.721   0.235   0.574  1.9400  0.7426 -3.4864
12031SOL    HW243209   4.827   0.132   0.542 -0.2484 -2.2985 -1.5223
12032SOL     OW43210   5.481   2.375   1.303 -0.6267 -0.1014 -0.5945
12032SOL    HW143211   5.442   2.457   1.275 -3.6378  0.1230  3.3407
12032SOL    HW243212   5.563   2.400   1.345  0.1386  0.4141 -2.3417
12033SOL     OW43213   7.377   2.803  12.931 -0.5792  0.0936 -0.0001
12033SOL    HW143214   7.425   2.845  12.860 -0.4746  1.2679  0.7257
12033SOL    HW243215   7.374   2.711  12.908 -2.3462  0.6984 -2.5604
12034SOL     OW43216   3.485   2.648   8.890  0.3708 -0.3751 -0.5010
12034SOL    HW143217   3.498   2.677   8.980 -1.4299 -0.7179 -0.0954
12034SOL    HW243218   3.451   2.559   8.897  0.6388 -0.5819 -1.5520
12035SOL     OW43219   8.776  10.961  10.921  0.4644 -0.1046  0.2915
12035SOL    HW143220   8.853  11.017  10.917  1.4972 -1.5104 -1.1978
12035SOL    HW243221   8.725  10.986  10.844  0.1502 -0.1503  0.4850
12036SOL     OW43222  10.152  10.319   7.095  0.1875  0.1662  0.3613
12036SOL    HW143223  10.152  10.415   7.098  0.8504  0.1772  0.3017
12036SOL    HW243224  10.100  10.292   7.171  1.3526  0.5782  1.3541
12037SOL     OW43225   1.382  11.220  11.206  0.2406  0.2594 -0.1778
12037SOL    HW143226   1.463  11.170  11.216 -0.1425 -0.3072  0.1553
12037SOL    HW243227   1.342  11.187  11.126 -0.5255 -0.7331  0.5842
12038SOL     OW43228  11.524  11.275  11.665 -0.8549  0.2601  0.7167
12038SOL    HW143229  11.591  11.337  11.694 -0.2158 -0.7192  1.3855
12038SOL    HW243230  11.443  11.306  11.704 -0.2820 -0.1395  2.2868
12039SOL     OW43231  11.379   0.488   8.907 -0.0937  0.0307 -0.0463
12039SOL    HW143232  11.385   0.431   8.984  0.6584  0.3762  0.1515
12039SOL    HW243233  11.417   0.436   8.836 -0.3053 -0.0833 -0.0792
12040SOL     OW43234   0.382   8.877   1.988 -0.2804  0.2427  0.6355
12040SOL    HW143235   0.416   8.816   1.923 -1.5330 -0.4029  0.5656
12040SOL    HW243236   0.389   8.963   1.945 -3.2537 -0.3873 -1.3850
12041SOL     OW43237   8.791  12.171  12.728 -0.1883 -0.2177  0.2900
12041SOL    HW143238   8.786  12.097  12.667 -0.3034 -0.4534  0.5810
12041SOL    HW243239   8.713  12.224  12.709 -0.8820 -0.9308  1.0420
12042SOL     OW43240   7.785   3.127   9.716  0.2203 -0.2375  0.3369
12042SOL    HW143241   7.737   3.174   9.648  1.3274  0.7410  0.2149
12042SOL    HW243242   7.788   3.036   9.684  2.0772  0.4575 -1.7620
12043SOL     OW43243   1.787   5.378  11.862 -0.4302 -0.1125  0.5438
12043SOL    HW143244   1.781   5.417  11.774 -0.3730 -0.3003  0.4559
12043SOL    HW243245   1.773   5.452  11.921 -2.1332 -0.2418  0.3750
12044SOL     OW43246   6.883   6.111   7.685 -0.0997  0.0264  0.2355
12044SOL    HW143247   6.857   6.064   7.605  0.1506 -0.0584  0.2043
12044SOL    HW243248   6.876   6.204   7.661  0.2897  0.0001  0.0117
12045SOL     OW43249  12.158  12.160   4.786 -0.4729 -0.2711 -0.6820
12045SOL    HW143250  12.215  12.117   4.722 -0.2145  0.1476 -0.7367
12045SOL    HW243251  12.073  12.167   4.742 -0.0204  0.9839 -1.3964
12046SOL     OW43252   4.104   8.128   0.672  0.1745 -0.4422  0.4282
12046SOL    HW143253   4.071   8.218   0.673  1.1491 -0.0385 -0.7487
12046SOL    HW243254   4.104   8.104   0.579  0.1932 -1.5703  0.7002
12047SOL     OW43255   7.159   7.822   1.289 -0.3654  0.0041  0.2461
12047SOL    HW143256   7.136   7.855   1.376  0.8943  0.9649  0.2497
12047SOL    HW243257   7.166   7.901   1.235 -0.6996 -0.5472 -0.6181
12048SOL     OW43258  10.280   1.776   5.482  0.2954  0.1621 -0.0913
12048SOL    HW143259  10.297   1.760   5.389  1.0183 -1.5882  0.3004
12048SOL    HW243260  10.367   1.792   5.520  0.1749 -0.5192  0.5011
12049SOL     OW43261   2.187   9.202   9.252 -0.4726  0.4580 -0.7944
12049SOL    HW143262   2.223   9.284   9.218  1.0348  0.3839  0.5271
12049SOL    HW243263   2.222   9.135   9.193  1.0817  0.4676  0.0350
12050SOL     OW43264   9.225   3.691   0.982 -0.6564  0.8183 -0.5778
12050SOL    HW143265   9.256   3.731   1.063 -0.8469  3.1093 -1.5641
12050SOL    HW243266   9.298   3.698   0.922 -1.0562  0.6465 -1.0939
12051SOL     OW43267   5.583   4.949   7.341 -0.0902  0.3745 -0.5126
12051SOL    HW143268   5.634   5.029   7.330 -0.0521  0.6786  1.4607
12051SOL    HW243269   5.565   4.919   7.252  2.0152  1.2179 -1.2698
12052SOL     OW43270   8.405   4.226  11.467  0.5323  0.5999  0.3005
12052SOL    HW143271   8.485   4.275  11.488  1.2865 -0.4585  0.0172
12052SOL    HW243272   8.380   4.183  11.548  1.6981 -1.0429 -0.1532
12053SOL     OW43273   2.615   4.633   0.284  0.6492  0.2692 -0.3480
12053SOL    HW143274   2.571   4.684   0.352  2.2722  1.2714  0.0141
12053SOL    HW243275   2.678   4.694   0.246  1.8158 -1.1282 -0.7516
12054SOL     OW43276  12.429  10.310   1.944  0.1137 -0.4818 -0.2741
12054SOL    HW143277  12.522  10.300   1.963 -0.1553 -0.1014  1.4846
12054SOL    HW243278  12.425  10.377   1.877  1.0707  0.4248  0.5358
12055SOL     OW43279   1.344   0.347   8.105  0.1607 -0.3510 -0.4496
12055SOL    HW143280   1.249   0.345   8.097  0.2996  0.1628 -2.9466
12055SOL    HW243281   1.361   0.411   8.174 -1.2746 -0.2892 -0.1287
12056SOL     OW43282   0.329   2.390  12.720 -0.9144 -0.1468  0.0788
12056SOL    HW143283   0.310   2.394  12.813 -2.6360 -0.8333 -0.2040
12056SOL    HW243284   0.282   2.313  12.689 -1.3140  0.6958 -1.5377
12057SOL     OW43285  12.611   8.668   5.900 -0.0440  0.5116  0.2459
12057SOL    HW143286  12.534   8.674   5.956  1.1158  0.6847  1.9222
12057SOL    HW243287  12.663   8.746   5.922  0.2832  0.7834 -1.3763
12058SOL     OW43288   0.814  10.574   3.813 -0.6915 -0.2365 -0.1449
12058SOL    HW143289   0.743  10.537   3.864  0.4252  1.0846  2.5885
12058SOL    HW243290   0.778  10.654   3.775 -0.7808  0.2726  0.9847
12059SOL     OW43291   6.141   4.962   4.535  0.1512 -0.1548  0.3752
12059SOL    HW143292   6.052   4.931   4.549  0.6010 -1.4018  0.5482
12059SOL    HW243293   6.133   5.025   4.463 -1.0881  0.9692  1.4475
12060SOL     OW43294   6.082  12.643  11.925 -0.2474 -0.3254  0.6071
12060SOL    HW143295   6.166  12.653  11.881  0.2246 -0.2968  1.4976
12060SOL    HW243296   6.086  12.557  11.966 -0.4560 -0.1235  1.0591
12061SOL     OW43297   4.849   1.887   6.131  0.2862  0.1725 -0.3760
12061SOL    HW143298   4.761   1.913   6.160  0.3297  1.5041 -1.3213
12061SOL    HW243299   4.908   1.924   6.196  0.1183 -2.0608  1.1365
12062SOL     OW43300   5.508  12.506   3.855  0.0840 -0.7014  0.5683
12062SOL    HW143301   5.474  12.498   3.766  1.2172 -0.5209  0.1055
12062SOL    HW243302   5.561  12.586   3.853  1.3111 -1.4767  0.9962
12063SOL     OW43303   1.477   2.051  12.019 -0.5517 -0.2218 -0.2535
12063SOL    HW143304   1.429   2.065  12.101 -0.6469 -0.0300 -0.3406
12063SOL    HW243305   1.410   2.057  11.951 -0.0423  2.9217 -0.6345
12064SOL     OW43306   5.399  12.862   4.185 -0.1230  0.6997  0.0598
12064SOL    HW143307   5.311  12.867   4.223  0.7308  4.9793  2.2330
12064SOL    HW243308   5.385  12.863   4.091 -2.4364  1.5039  0.3458
12065SOL     OW43309   7.583   8.963   6.342  0.0879 -0.6211 -0.3390
12065SOL    HW143310   7.543   9.050   6.340 -0.2729 -0.7846 -2.2498
12065SOL    HW243311   7.675   8.978   6.325 -0.3816 -0.7453 -3.4131
12066SOL     OW43312  12.452   5.233   7.570  0.1768  0.5552  0.2910
12066SOL    HW143313  12.461   5.321   7.607  0.3655 -0.0977  1.8724
12066SOL    HW243314  12.372   5.237   7.518  0.9391  2.0391 -0.8616
12067SOL     OW43315  11.674   4.226   4.456 -0.2560  0.6572 -0.0886
12067SOL    HW143316  11.668   4.265   4.543 -0.3638  2.9423 -1.0552
12067SOL    HW243317  11.766   4.236   4.432 -0.8089  3.1714 -1.5105
12068SOL     OW43318   2.357   0.210   2.933 -0.1052  0.0678 -0.4122
12068SOL    HW143319   2.412   0.227   2.856  1.8880 -0.5103  0.8067
12068SOL    HW243320   2.413   0.158   2.991 -1.7234  0.0744  1.2322
12069SOL     OW43321   0.863   3.836   1.849 -0.0857 -0.2349  0.7035
12069SOL    HW143322   0.828   3.825   1.937 -0.8108  1.2952  0.6505
12069SOL    HW243323   0.820   3.915   1.816  2.2313  0.8348  0.0027
12070SOL     OW43324   7.400   8.028  10.662  0.3551 -0.2530  0.1496
12070SOL    HW143325   7.477   7.996  10.616  0.8097  0.4014  0.4333
12070SOL    HW243326   7.435   8.074  10.739 -0.2105  1.5294 -0.6061
12071SOL     OW43327  10.043   5.941  10.871 -0.0188  0.2464  0.2408
12071SOL    HW143328   9.978   5.885  10.827  0.6352  0.1976 -0.7058
12071SOL    HW243329   9.991   6.011  10.911 -0.5493  2.2161 -3.3901
12072SOL     OW43330  11.204   0.847   2.917  0.0514 -0.3223  0.5531
12072SOL    HW143331  11.292   0.873   2.890 -0.2349 -0.5788 -0.6717
12072SOL    HW243332  11.150   0.862   2.840 -0.9975 -0.1266  1.3105
12073SOL     OW43333   4.391   3.119   5.072 -0.2914 -0.2286 -0.5744
12073SOL    HW143334   4.457   3.102   5.139 -0.6084 -3.4861 -0.9029
12073SOL    HW243335   4.407   3.052   5.005 -1.5460  1.3463 -2.5688
12074SOL     OW43336   8.324  10.646  11.586  0.2147 -0.0749 -0.4551
12074SOL    HW143337   8.348  10.730  11.548  1.2643  0.4517  1.2316
12074SOL    HW243338   8.234  10.658  11.615  0.7702  0.9840  0.9683
12075SOL     OW43339   7.479   8.814   5.713  0.1327  0.6934 -0.2161
12075SOL    HW143340   7.574   8.817   5.704  0.0743  1.9832 -0.5686
12075SOL    HW243341   7.448   8.780   5.629  0.3736 -2.3721  0.8076
12076SOL     OW43342  10.970   9.742  11.900  0.3454 -0.2144  0.4140
12076SOL    HW143343  10.929   9.771  11.819  0.2290 -2.0660 -0.2379
12076SOL    HW243344  11.000   9.823  11.942 -0.4727  0.8600 -0.9754
12077SOL     OW43345   5.949   1.207   8.278  0.0994 -0.9748 -0.3219
12077SOL    HW143346   6.007   1.203   8.202  1.7561 -2.9298  0.9326
12077SOL    HW243347   5.989   1.272   8.336  0.3476 -1.4260  0.0163
12078SOL     OW43348   8.169   3.809   1.652  0.0211  1.1631  0.0094
12078SOL    HW143349   8.228   3.851   1.590  0.1961  0.2398 -0.4753
12078SOL    HW243350   8.106   3.763   1.597 -0.9396  1.8322  0.5254
12079SOL     OW43351   3.182   7.491   2.689 -0.5711 -0.1290  0.1838
12079SOL    HW143352   3.267   7.448   2.698 -0.3836  0.2118  0.0646
12079SOL    HW243353   3.163   7.523   2.777 -0.0491  0.7636 -0.0128
12080SOL     OW43354   5.371   3.535  10.575  0.0241  0.7041 -0.0851
12080SOL    HW143355   5.295   3.480  10.560  1.1138 -0.7074 -0.6709
12080SOL    HW243356   5.352   3.617  10.529 -1.0207  0.2693 -0.4434
12081SOL     OW43357   7.983   4.841   1.363 -0.6724 -0.0980 -0.0006
12081SOL    HW143358   7.923   4.904   1.402  0.1153 -1.2577  3.4119
12081SOL    HW243359   7.938   4.810   1.284 -3.3016  1.0204  0.9674
12082SOL     OW43360  10.437  12.001   3.530 -0.5668  0.8562 -0.3916
12082SOL    HW143361  10.400  11.912   3.533  1.0460  0.0525 -2.1700
12082SOL    HW243362  10.526  11.991   3.564 -1.6550  2.7237  3.6764
12083SOL     OW43363   0.042  11.900   8.436 -0.2326 -0.3577  0.3451
12083SOL    HW143364  -0.000  11.945   8.509 -2.0246  0.6168 -1.2251
12083SOL    HW243365  -0.019  11.907   8.364  0.9071 -2.4322 -0.9440
12084SOL     OW43366  12.412  10.714  11.658 -0.2469  0.1778 -0.1904
12084SOL    HW143367  12.477  10.648  11.632  0.7298  0.9673  0.1736
12084SOL    HW243368  12.362  10.672  11.727  1.1179  0.1776  0.8519
12085SOL     OW43369   9.142   9.171  12.215  0.1309  0.6088  0.6107
12085SOL    HW143370   9.161   9.196  12.306  0.2534 -1.2065  1.1328
12085SOL    HW243371   9.049   9.150  12.215  0.2699 -0.0136  0.4742
12086SOL     OW43372   9.975   3.905   6.171  0.1292 -0.7115  0.1208
12086SOL    HW143373   9.940   3.929   6.085 -1.0423 -0.8914  0.5297
12086SOL    HW243374  10.068   3.887   6.155  0.0432 -0.2488 -1.0048
12087SOL     OW43375   5.574  11.854   6.630  0.4262  0.2660  0.8087
12087SOL    HW143376   5.483  11.883   6.626  0.1757  0.0319  3.0283
12087SOL    HW243377   5.623  11.933   6.655  0.8274  0.3651 -0.2679
12088SOL     OW43378   1.207  12.878  12.933 -0.3931  0.3179  0.0400
12088SOL    HW143379   1.274  12.822  12.894 -0.0310 -0.3153  1.5005
12088SOL    HW243380   1.188  12.838  13.018 -1.0654  1.6997  0.5768
12089SOL     OW43381   5.095  12.105   1.340 -0.8517 -0.3688  0.1520
12089SOL    HW143382   5.132  12.046   1.275 -1.4699 -1.4401  0.7518
12089SOL    HW243383   5.000  12.095   1.330 -0.9804  0.7236  0.1002
12090SOL     OW43384   3.180   2.629   3.246  0.0628  0.2887 -0.1816
12090SOL    HW143385   3.125   2.707   3.249 -1.1453 -0.4568 -1.4763
12090SOL    HW243386   3.160   2.583   3.327 -2.9602 -1.0036 -1.4929
12091SOL     OW43387   2.174   1.706   6.447 -0.0422 -0.3665  0.8979
12091SOL    HW143388   2.186   1.648   6.372 -0.1629 -1.0612  1.3973
12091SOL    HW243389   2.098   1.759   6.425 -0.5734 -1.1255  0.8547
12092SOL     OW43390   8.987  12.184   7.677 -0.3014 -0.1454  0.5408
12092SOL    HW143391   9.039  12.262   7.657 -1.1753  0.3789  0.2212
12092SOL    HW243392   9.025  12.149   7.757  0.8401 -0.0630  0.0618
12093SOL     OW43393   7.960   7.390   2.882  0.0327 -0.3073  0.2879
12093SOL    HW143394   7.943   7.365   2.973 -0.0761  0.4669  0.4909
12093SOL    HW243395   7.872   7.404   2.845  0.0991  0.1829  0.3059
12094SOL     OW43396  10.150   1.843   7.263 -0.3604  0.0275 -0.1690
12094SOL    HW143397  10.198   1.900   7.323 -1.1814  1.6164 -0.9866
12094SOL    HW243398  10.154   1.757   7.305  3.3187 -0.0144 -0.2631
12095SOL     OW43399   0.704  10.023  11.827  0.1288 -0.4290 -0.8183
12095SOL    HW143400   0.686  10.109  11.789 -3.1825 -0.3348  0.6499
12095SOL    HW243401   0.783  10.036  11.879 -1.4332  2.4046  1.0997
12096SOL     OW43402   5.225   4.706   9.580 -0.1437  0.0685 -0.3098
12096SOL    HW143403   5.182   4.789   9.562 -1.9675 -0.4569  1.3524
12096SOL    HW243404   5.292   4.727   9.645 -0.7322  0.2334  0.2538
12097SOL     OW43405   9.051   3.523   9.935 -0.0396  0.3281 -0.7947
12097SOL    HW143406   9.118   3.564   9.990 -0.4377  0.8656 -0.7043
12097SOL    HW243407   9.024   3.446   9.984  0.2986  0.2763 -0.6893
12098SOL     OW43408  12.547   5.039   0.236 -0.3575  0.4656 -0.3832
12098SOL    HW143409  12.596   5.023   0.316  0.7083 -0.2166 -1.1434
12098SOL    HW243410  12.526   5.132   0.238  0.6582  0.6893  0.1388
12099SOL     OW43411   6.418   3.100   8.107  0.1396 -0.1636 -0.1278
12099SOL    HW143412   6.504   3.088   8.067  0.0563 -1.7399  0.1140
12099SOL    HW243413   6.356   3.079   8.037 -0.0365  0.0859 -0.0460
12100SOL     OW43414   8.097   2.393   6.312  0.2242  0.7944  0.2385
12100SOL    HW143415   8.137   2.428   6.391 -0.1489 -0.8775  1.2130
12100SOL    HW243416   8.165   2.340   6.271  0.0688  0.7427  0.0416
12101SOL     OW43417  10.085   7.986  12.492 -0.2528 -0.0276 -0.0925
12101SOL    HW143418  10.074   8.067  12.442 -2.7900 -0.8602 -1.0538
12101SOL    HW243419  10.054   8.008  12.580  1.4683  0.6709  0.3696
12102SOL     OW43420   6.833   5.221   5.723  0.2223  0.1712 -0.3041
12102SOL    HW143421   6.841   5.316   5.731 -0.1240  0.4753 -2.7534
12102SOL    HW243422   6.754   5.200   5.773  0.5979  1.0610  0.7217
12103SOL     OW43423   2.201   8.345   0.228  0.0588  0.4878  0.0019
12103SOL    HW143424   2.253   8.421   0.254 -2.1483  2.5306 -1.1306
12103SOL    HW243425   2.134   8.337   0.296  0.8733 -1.2099  0.6844
12104SOL     OW43426  10.485   5.791   8.094 -0.2042  0.3105 -0.0531
12104SOL    HW143427  10.413   5.842   8.130 -0.2657  0.5249 -0.4651
12104SOL    HW243428  10.453   5.701   8.096  0.8056 -0.0916  2.8965
12105SOL     OW43429  11.481   7.118   7.294  0.1237 -0.2823 -0.0412
12105SOL    HW143430  11.444   7.189   7.242 -0.8269 -0.2270  0.6886
12105SOL    HW243431  11.512   7.055   7.229 -0.6896 -0.0432 -0.6744
12106SOL     OW43432  10.248   0.936   8.036 -0.0417  0.1662  0.0101
12106SOL    HW143433  10.242   0.844   8.059  1.0475  0.0599 -0.0982
12106SOL    HW243434  10.174   0.951   7.976 -0.8131 -0.3835  0.8049
12107SOL     OW43435   1.989  12.413   8.916  0.2640  0.2226  0.1865
12107SOL    HW143436   1.967  12.475   8.985 -0.1229 -1.1286  1.3240
12107SOL    HW243437   2.006  12.331   8.962  3.1658  0.0054 -1.0126
12108SOL     OW43438   9.749   4.885  12.940 -0.2796  0.5005 -0.5412
12108SOL    HW143439   9.815   4.850  13.000 -0.2642  1.4218  0.0100
12108SOL    HW243440   9.681   4.818  12.938  0.8555 -0.6700 -1.4812
12109SOL     OW43441   0.788  10.869   5.406 -0.1387 -0.2963 -0.2231
12109SOL    HW143442   0.822  10.784   5.434 -0.8197 -0.3323  0.5492
12109SOL    HW243443   0.701  10.874   5.446 -0.3027  0.5571 -0.6612
12110SOL     OW43444  11.274   9.516   9.838 -0.6824  0.0467 -0.4295
12110SOL    HW143445  11.183   9.535   9.816 -1.3816 -3.0735 -0.7401
12110SOL    HW243446  11.270   9.435   9.889  1.8393  0.6391  0.8840
12111SOL     OW43447   3.982   6.029   0.335 -0.1619  0.5355 -0.4084
12111SOL    HW143448   3.894   6.037   0.298  0.1674 -0.1363 -1.3827
12111SOL    HW243449   3.985   6.095   0.405 -1.7345 -0.0382  0.2546
12112SOL     OW43450   7.787   6.006  12.720  0.0416  0.3791  0.0173
12112SOL    HW143451   7.794   6.006  12.624 -0.2083 -0.7906 -0.0129
12112SOL    HW243452   7.778   6.098  12.743 -1.8054  0.5511 -1.2243
12113SOL     OW43453   5.026   0.690   1.228 -0.1759  0.2097 -0.3376
12113SOL    HW143454   5.081   0.697   1.150 -1.6944  2.3310 -1.3159
12113SOL    HW243455   4.987   0.603   1.220  2.4025 -1.0770  0.0414
12114SOL     OW43456   1.415  12.211   0.800 -0.1543 -0.2248  0.0970
12114SOL    HW143457   1.351  12.225   0.730 -0.4543  1.1082  0.5962
12114SOL    HW243458   1.498  12.238   0.762  0.0500 -1.5255 -0.4073
12115SOL     OW43459   9.283   2.141   2.233  0.1494  0.2322 -0.1188
12115SOL    HW143460   9.339   2.218   2.241  0.0011  0.3032  0.2542
12115SOL    HW243461   9.236   2.136   2.316 -1.2051  0.7932 -0.8174
12116SOL     OW43462   2.782   7.607  12.375 -0.9417  0.0561  0.0629
12116SOL    HW143463   2.863   7.657  12.386 -0.4156 -0.4980 -1.0536
12116SOL    HW243464   2.712   7.671  12.388 -0.2832  1.2279 -1.6963
12117SOL     OW43465   8.651   1.046  10.157 -0.2425  0.1084  0.5603
12117SOL    HW143466   8.609   1.019  10.239 -1.1312 -0.6377 -0.1198
12117SOL    HW243467   8.594   1.011  10.088  1.1587 -0.3661 -0.4003
12118SOL     OW43468  10.866   7.365   1.153  0.1122 -0.5571  0.2049
12118SOL    HW143469  10.903   7.306   1.219  0.7157 -0.4386 -0.0196
12118SOL    HW243470  10.830   7.438   1.203  0.8373 -0.3176  0.3873
12119SOL     OW43471  12.323   5.987   9.839 -0.4001 -0.6488 -0.0196
12119SOL    HW143472  12.398   6.042   9.814 -0.4990 -1.0847 -1.3309
12119SOL    HW243473  12.263   6.047   9.884  0.3678 -0.1222  0.3218
12120SOL     OW43474   4.109  10.656   2.837  0.3651 -0.1641  0.0763
12120SOL    HW143475   4.194  10.691   2.866 -0.2996  0.0236  1.9541
12120SOL    HW243476   4.085  10.594   2.906 -1.0708 -0.1268 -0.3707
12121SOL     OW43477   0.011   3.861   8.079 -0.7591  0.2597 -0.4667
12121SOL    HW143478   0.041   3.824   8.163  1.0448  1.0702 -0.6983
12121SOL    HW243479   0.018   3.787   8.018 -1.7140 -0.2348  0.0036
12122SOL     OW43480  10.735  11.892  12.166  0.4924  0.2081 -0.3762
12122SOL    HW143481  10.790  11.889  12.087  0.0861  0.4694 -0.6738
12122SOL    HW243482  10.653  11.930  12.136 -0.2825 -1.2596 -0.1866
12123SOL     OW43483  11.394   8.069   9.744 -0.5225 -0.3223  0.5145
12123SOL    HW143484  11.330   8.001   9.766 -0.7246 -0.6724 -1.0532
12123SOL    HW243485  11.417   8.108   9.828 -1.6727 -1.1981  1.2690
12124SOL     OW43486   9.140   5.442   7.928 -0.1662 -0.1470  0.2160
12124SOL    HW143487   9.133   5.348   7.911 -1.9073 -0.3984  1.9360
12124SOL    HW243488   9.049   5.472   7.937  0.2847  1.9587 -1.4036
12125SOL     OW43489   0.294   2.681   0.310  0.0780 -0.1320 -0.3579
12125SOL    HW143490   0.283   2.587   0.291 -1.0191 -0.4193  1.5040
12125SOL    HW243491   0.214   2.721   0.276  0.6705  0.2192 -1.4102
12126SOL     OW43492  11.156   5.040  12.821  0.4457 -0.6647  0.2184
12126SOL    HW143493  11.225   4.976  12.841  0.3520 -1.3173 -1.3635
12126SOL    HW243494  11.182   5.077  12.737 -0.3425  0.2421  0.3539
12127SOL     OW43495   0.109  11.481   1.219  0.4623 -0.3646  0.1459
12127SOL    HW143496   0.109  11.433   1.301  0.2124 -1.3753 -0.4368
12127SOL    HW243497   0.035  11.542   1.226  1.7752  1.1449  1.5592
12128SOL     OW43498   9.870   3.616   1.949  0.6078  0.0316 -0.2122
12128SOL    HW143499   9.927   3.629   1.874  1.7089  1.2593  0.7997
12128SOL    HW243500   9.850   3.704   1.981  0.0279 -0.4493  0.8303
12129SOL     OW43501  12.948   7.061   4.596 -0.5812 -0.2269  0.6509
12129SOL    HW143502  12.930   7.041   4.504 -0.6832  0.9195  0.4012
12129SOL    HW243503  12.889   7.134   4.616  0.0214  0.0684  1.3843
12130SOL     OW43504   1.229   6.746   5.906 -0.3025  0.4820  0.0205
12130SOL    HW143505   1.228   6.653   5.883  3.2675  0.4057 -0.3661
12130SOL    HW243506   1.238   6.791   5.822 -0.0507  1.0635  0.3576
12131SOL     OW43507  10.825   2.456   6.056  0.3160  0.0076 -0.2601
12131SOL    HW143508  10.896   2.439   5.995  0.3530  0.2635 -0.2901
12131SOL    HW243509  10.867   2.461   6.141  0.1696 -1.0975 -0.1064
12132SOL     OW43510   3.800   0.079  11.921 -0.3242  0.4699 -0.2801
12132SOL    HW143511   3.832   0.167  11.900 -1.2503  1.0746  0.7610
12132SOL    HW243512   3.834   0.062  12.009 -1.6036  0.5391  0.2537
12133SOL     OW43513  10.609   5.630   2.176 -0.1080 -0.4884 -0.3435
12133SOL    HW143514  10.664   5.707   2.162  0.7569 -1.1963 -1.0184
12133SOL    HW243515  10.583   5.603   2.088 -0.6465 -0.8001 -0.0954
12134SOL     OW43516   4.143   1.189   9.451 -0.5805  0.2230  0.0188
12134SOL    HW143517   4.196   1.109   9.453 -2.7267 -1.2802  1.7034
12134SOL    HW243518   4.158   1.226   9.364 -1.7059 -3.6026 -2.0124
12135SOL     OW43519   5.670   5.732  10.091  0.3291 -0.0876 -0.2774
12135SOL    HW143520   5.755   5.696  10.119 -0.1865 -0.5972  0.6947
12135SOL    HW243521   5.607   5.693  10.152 -0.2677  2.4409  0.8394
12136SOL     OW43522   3.158   5.530   8.269 -0.2678 -0.0163  0.3489
12136SOL    HW143523   3.224   5.466   8.293 -1.8126 -1.4979  0.8327
12136SOL    HW243524   3.124   5.562   8.352 -0.4490  0.4326  0.1087
12137SOL     OW43525  10.479   1.276   3.741  0.1218  0.1069 -0.0498
12137SOL    HW143526  10.413   1.218   3.705 -0.9297  1.9944 -1.3857
12137SOL    HW243527  10.434   1.325   3.810  1.3858 -1.5800  2.0780
12138SOL     OW43528  11.562   8.190   7.711 -0.1056  0.3708  0.4980
12138SOL    HW143529  11.480   8.218   7.750 -0.4986  0.7059 -0.5347
12138SOL    HW243530  11.549   8.098   7.688 -0.9832  0.9372 -1.5548
12139SOL     OW43531   7.032   5.991   7.053  0.2029 -0.9270 -0.2693
12139SOL    HW143532   7.083   6.050   7.110 -1.1113 -0.1246  0.1332
12139SOL    HW243533   7.018   6.041   6.973 -0.7754 -0.7355  0.0071
12140SOL     OW43534   9.661  10.020  11.926  0.0879 -0.1960 -0.1529
12140SOL    HW143535   9.687  10.057  11.842  0.0607  1.3002  0.4616
12140SOL    HW243536   9.713   9.940  11.934 -0.8717 -1.0956 -2.1542
12141SOL     OW43537   6.573   4.881   6.560  0.2060  0.7103  0.4778
12141SOL    HW143538   6.660   4.855   6.592  0.6547  1.3464 -0.1910
12141SOL    HW243539   6.557   4.822   6.486  0.5215  1.2639 -0.0363
12142SOL     OW43540   9.205   6.053   0.360 -0.7330 -0.0497  0.3048
12142SOL    HW143541   9.115   6.022   0.351 -0.0529 -1.6515 -1.7816
12142SOL    HW243542   9.247   6.028   0.277  1.2194  2.1119  0.5526
12143SOL     OW43543   2.633  12.104   9.955  0.4112  0.0657 -0.2706
12143SOL    HW143544   2.582  12.067  10.027  0.1368 -0.8874 -0.9461
12143SOL    HW243545   2.702  12.154   9.998  0.5510 -0.9016  0.6565
12144SOL     OW43546   9.722   0.506  10.736 -0.5364  1.2483 -0.2805
12144SOL    HW143547   9.691   0.415  10.734 -0.0079  1.0075  1.1922
12144SOL    HW243548   9.715   0.532  10.828 -1.3118  2.9486 -0.7801
12145SOL     OW43549   1.358   0.780  11.816 -0.0478 -0.3666 -0.3462
12145SOL    HW143550   1.292   0.778  11.747  0.5354  1.9270 -1.0490
12145SOL    HW243551   1.369   0.873  11.836  3.7967 -0.4996 -1.1330
12146SOL     OW43552   2.393   6.258   1.627  0.0082  0.1330  0.7613
12146SOL    HW143553   2.418   6.183   1.681  2.3459 -0.8131 -1.4313
12146SOL    HW243554   2.449   6.329   1.658  2.6001 -0.8475 -1.3102
12147SOL     OW43555   8.554   5.008   3.458 -0.1000 -0.8086  0.5883
12147SOL    HW143556   8.621   5.066   3.422 -1.7514  1.1328  0.4610
12147SOL    HW243557   8.579   4.998   3.550  0.7836 -0.7710  0.3647
12148SOL     OW43558   4.051   2.391   6.010  0.8756  0.2212  0.3472
12148SOL    HW143559   3.972   2.443   5.997  1.1065  0.4633 -0.0929
12148SOL    HW243560   4.078   2.409   6.100  0.8641  0.7305  0.2470
12149SOL     OW43561   9.555   9.495   7.048 -0.2017 -0.5557 -0.5165
12149SOL    HW143562   9.495   9.459   6.984  1.1914 -1.4888 -1.3594
12149SOL    HW243563   9.622   9.540   6.996 -0.4778  1.0195  0.4144
12150SOL     OW43564  12.004   1.222   1.901  0.0976 -0.3073  0.0610
12150SOL    HW143565  12.089   1.187   1.876  0.1760 -0.6356  0.7645
12150SOL    HW243566  12.023   1.312   1.928  0.3333 -0.5641  0.7935
12151SOL     OW43567   7.430   4.386   8.404  0.0734 -0.5433 -0.0622
12151SOL    HW143568   7.357   4.395   8.342  1.5399 -1.1742 -1.9811
12151SOL    HW243569   7.427   4.466   8.456 -0.6469  0.5023 -1.6272
12152SOL     OW43570  11.450  11.899  11.621  0.0791 -0.4846  0.2207
12152SOL    HW143571  11.467  11.837  11.693  0.9784 -0.5116 -0.0053
12152SOL    HW243572  11.433  11.843  11.546 -0.5724 -0.4550  0.3424
12153SOL     OW43573  10.885   8.719   8.541  0.0246 -0.0371 -0.4379
12153SOL    HW143574  10.841   8.791   8.586 -0.3359  0.8359 -2.1068
12153SOL    HW243575  10.832   8.703   8.463  0.9210 -1.1174 -0.8560
12154SOL     OW43576   3.791   3.588   2.062  0.1746 -0.7809  0.3884
12154SOL    HW143577   3.871   3.637   2.081  0.4016 -0.3286 -1.5252
12154SOL    HW243578   3.820   3.514   2.009 -0.8058  0.3976 -1.9370
12155SOL     OW43579   1.854   9.544   8.972 -0.6567 -0.1451 -0.3954
12155SOL    HW143580   1.846   9.456   9.009 -0.9929  0.0090 -0.0865
12155SOL    HW243581   1.764   9.576   8.968 -0.4954  0.3883  0.0129
12156SOL     OW43582  11.836  11.463   8.123 -0.0478 -0.1847  0.1266
12156SOL    HW143583  11.919  11.510   8.115  1.4343 -2.4405  1.1051
12156SOL    HW243584  11.791  11.506   8.196  0.7988  0.3158  0.3652
12157SOL     OW43585   9.548  11.412  10.655  0.1788  0.3604  0.2772
12157SOL    HW143586   9.505  11.492  10.625 -0.3106 -1.3851 -4.6192
12157SOL    HW243587   9.636  11.416  10.618  0.7642 -0.6325  1.4649
12158SOL     OW43588   0.736   6.436  11.224  0.4316  0.0546 -0.2002
12158SOL    HW143589   0.744   6.517  11.175  4.0299  0.4968  0.8270
12158SOL    HW243590   0.711   6.463  11.312 -1.5824 -0.3273 -0.6107
12159SOL     OW43591   4.013  12.161   1.885 -0.7892 -0.2258  0.4276
12159SOL    HW143592   4.083  12.104   1.915  0.7310  1.6200  0.5216
12159SOL    HW243593   3.999  12.134   1.794  1.0737  0.3165 -0.0606
12160SOL     OW43594  10.505   7.063  12.502 -0.0364  0.5685  0.5609
12160SOL    HW143595  10.587   7.105  12.529  0.1496  2.2225 -2.2425
12160SOL    HW243596  10.439   7.131  12.516 -0.1204  1.0175 -1.6321
12161SOL     OW43597   4.460   8.768   3.630  0.3048  0.3871 -0.6992
12161SOL    HW143598   4.502   8.808   3.554  1.1501  1.0929  0.1185
12161SOL    HW243599   4.430   8.842   3.683  0.1980 -0.0796 -0.0850
12162SOL     OW43600   8.382   7.546   3.127 -0.1209 -0.4656  0.5964
12162SOL    HW143601   8.425   7.502   3.054  1.1660 -0.9289  1.6024
12162SOL    HW243602   8.330   7.478   3.169  0.3372 -0.5629  1.0068
12163SOL     OW43603   1.538   9.932   8.712 -0.2634 -0.3742 -0.1588
12163SOL    HW143604   1.532   9.875   8.636 -0.3597  0.1466 -0.5458
12163SOL    HW243605   1.557   9.873   8.785  0.3594 -0.8125 -0.6720
12164SOL     OW43606   7.540  11.077   0.416  0.3383  0.0140  0.0512
12164SOL    HW143607   7.467  11.107   0.470  0.8338  0.7937  0.3093
12164SOL    HW243608   7.597  11.154   0.407  0.4067 -0.1671 -1.3678
12165SOL     OW43609  11.341   4.538  10.468 -0.1355  0.6942  0.5224
12165SOL    HW143610  11.316   4.546  10.376  1.4362 -0.2363 -0.0050
12165SOL    HW243611  11.303   4.454  10.496  2.2549 -0.7264 -0.2825
12166SOL     OW43612   5.150   4.404  11.778  0.0734 -0.1911 -0.1241
12166SOL    HW143613   5.169   4.311  11.763  0.1213 -0.3287  0.7483
12166SOL    HW243614   5.185   4.421  11.865  0.1753  0.6816 -0.3321
12167SOL     OW43615   9.048   6.200  11.704  0.3659 -0.4396  0.3061
12167SOL    HW143616   9.059   6.183  11.797  2.2684  0.0109  0.1929
12167SOL    HW243617   8.959   6.235  11.697  0.4639  0.2766  2.0727
12168SOL     OW43618  10.684   4.422  11.756 -0.4343 -0.3719 -0.0556
12168SOL    HW143619  10.705   4.441  11.847 -1.9470  1.0524  0.0507
12168SOL    HW243620  10.731   4.488  11.705 -0.8958 -0.1267 -0.1696
12169SOL     OW43621  11.452   9.578   6.513  0.1476  0.1248 -0.4810
12169SOL    HW143622  11.370   9.589   6.465  0.5003 -1.4074 -1.5035
12169SOL    HW243623  11.424   9.553   6.602 -0.4887  0.8512 -0.4670
12170SOL     OW43624   8.429   0.366   1.706 -0.4564  0.4718 -0.2939
12170SOL    HW143625   8.342   0.406   1.711 -0.6878 -0.0100 -0.4567
12170SOL    HW243626   8.413   0.275   1.681  0.1731  0.7443 -1.8028
12171SOL     OW43627   7.304  10.497  12.901 -0.6096  0.3734  0.0849
12171SOL    HW143628   7.218  10.539  12.897 -1.7323 -1.8546 -0.7315
12171SOL    HW243629   7.314  10.471  12.992 -1.3122 -0.3500 -0.0414
12172SOL     OW43630   7.560   8.523  10.517  0.0654 -1.1994 -0.2652
12172SOL    HW143631   7.643   8.560  10.549  0.3454 -0.3355 -1.8741
12172SOL    HW243632   7.581   8.431  10.500  0.4907 -1.1572 -0.0069
12173SOL     OW43633   0.411   8.321   3.266  0.1777 -0.4553  0.2788
12173SOL    HW143634   0.411   8.226   3.252 -1.7893 -0.4085 -0.3501
12173SOL    HW243635   0.470   8.355   3.200  1.4125 -1.2767  0.9297
12174SOL     OW43636   1.140   8.515   2.925 -0.7891  0.3938 -0.4962
12174SOL    HW143637   1.085   8.519   2.846 -1.7898 -1.0149  0.0972
12174SOL    HW243638   1.083   8.477   2.992  0.5339  0.1067  0.4937
12175SOL     OW43639  12.547   7.289   0.762  0.1177  0.6707 -0.1735
12175SOL    HW143640  12.577   7.302   0.673 -2.3131 -0.8169 -1.3168
12175SOL    HW243641  12.472   7.229   0.754 -1.3823  1.9439  2.6583
12176SOL     OW43642   7.052   7.508  10.108  0.5285  0.6283 -0.9098
12176SOL    HW143643   6.981   7.538  10.051 -1.0805  0.0108  0.7000
12176SOL    HW243644   7.057   7.573  10.178  2.7619  1.5957 -1.8619
12177SOL     OW43645   1.576   7.611   9.553 -0.1749 -0.2482  0.1700
12177SOL    HW143646   1.531   7.695   9.540  0.3079  0.0594  0.4814
12177SOL    HW243647   1.515   7.546   9.516  0.8452  0.4767 -3.1927
12178SOL     OW43648   7.733   2.490   6.639 -0.5214  0.1014 -0.1041
12178SOL    HW143649   7.704   2.411   6.685 -0.2705  0.4105  0.5972
12178SOL    HW243650   7.693   2.562   6.687  1.3015  0.5415  0.8749
12179SOL     OW43651   9.176   7.408  12.739 -0.4521  0.3873 -0.0637
12179SOL    HW143652   9.146   7.412  12.830 -0.4443  1.6880 -0.0910
12179SOL    HW243653   9.241   7.479  12.733 -1.8942  1.6487 -1.5591
12180SOL     OW43654  12.007   0.354  11.238 -0.5873 -0.2087 -0.0019
12180SOL    HW143655  12.025   0.352  11.332 -1.0901  0.4459  0.1085
12180SOL    HW243656  12.081   0.402  11.201 -1.8109  2.0898  0.4040
12181SOL     OW43657   7.578   2.142   2.673  0.9813  0.4470  0.2405
12181SOL    HW143658   7.647   2.207   2.661  0.2793  0.7995 -2.6599
12181SOL    HW243659   7.614   2.062   2.634 -0.2195  0.6753 -1.4468
12182SOL     OW43660   9.665   8.971   7.991  0.7066 -0.6459 -0.2761
12182SOL    HW143661   9.714   8.991   8.071  0.5873 -1.8613  0.1189
12182SOL    HW243662   9.577   9.004   8.008  0.3041 -2.0759  0.6750
12183SOL     OW43663   5.593  11.781   4.289 -0.4876 -0.1910 -0.6412
12183SOL    HW143664   5.567  11.872   4.276  1.7377  0.7680  0.9532
12183SOL    HW243665   5.675  11.773   4.240  0.3099 -0.7385  0.7266
12184SOL     OW43666   8.111   2.392  11.323  0.1170 -0.4279 -0.5176
12184SOL    HW143667   8.082   2.461  11.263 -1.6429 -0.2018  0.5350
12184SOL    HW243668   8.163   2.438  11.389  0.2455 -0.3511 -0.6710
12185SOL     OW43669   5.421   4.166   5.568  0.3838 -0.5633  0.3680
12185SOL    HW143670   5.514   4.154   5.590 -0.2942 -3.7251  2.0493
12185SOL    HW243671   5.390   4.231   5.631  1.3019  0.2746  0.0063
12186SOL     OW43672   0.179   4.133  11.552 -0.6343  0.0343 -0.4398
12186SOL    HW143673   0.266   4.137  11.591 -0.5165 -1.7606 -0.4194
12186SOL    HW243674   0.129   4.202  11.596 -0.1361 -1.0468  1.9604
12187SOL     OW43675   6.277   5.687   0.526 -0.1510 -0.8206 -0.0043
12187SOL    HW143676   6.221   5.696   0.602 -0.1522 -1.6125  0.1059
12187SOL    HW243677   6.343   5.622   0.553  1.2679  0.6137  0.1314
12188SOL     OW43678  10.138  11.869   1.885  0.6116 -0.5920 -0.3589
12188SOL    HW143679  10.200  11.806   1.849  0.5365 -1.5517  1.0910
12188SOL    HW243680  10.191  11.920   1.948  0.3155 -0.2512 -0.3851
12189SOL     OW43681   5.813   7.627  11.517  0.4048  0.5397 -0.5358
12189SOL    HW143682   5.759   7.699  11.548  0.5811  0.6887 -0.5715
12189SOL    HW243683   5.888   7.627  11.576 -0.0185 -0.1723  0.0085
12190SOL     OW43684   6.047  12.724   8.940  0.1754 -0.0111  0.1746
12190SOL    HW143685   6.071  12.633   8.957 -0.0701  0.0253  0.7354
12190SOL    HW243686   6.089  12.745   8.857 -0.3249 -0.8493 -0.3041
12191SOL     OW43687   5.066   3.086   7.114 -0.2068  0.2041  0.7456
12191SOL    HW143688   5.153   3.075   7.153  1.6360 -0.1955 -3.0875
12191SOL    HW243689   5.038   2.997   7.093 -0.7389  0.4716  0.3041
12192SOL     OW43690   6.369  12.424   5.209  0.0879  0.3198 -0.1254
12192SOL    HW143691   6.325  12.404   5.126 -0.0918  0.5270 -0.0784
12192SOL    HW243692   6.460  12.442   5.183  0.2705 -0.6156 -0.1635
12193SOL     OW43693   7.956   3.832  12.913 -0.1008  0.4263  0.5093
12193SOL    HW143694   7.994   3.799  12.832 -1.0331  0.8001 -0.1048
12193SOL    HW243695   8.031   3.862  12.965  0.4949  0.4002 -0.3131
12194SOL     OW43696   3.082   7.262   6.470  0.5370 -0.2948 -0.0619
12194SOL    HW143697   3.101   7.176   6.507  1.2064  0.4062  1.2981
12194SOL    HW243698   3.160   7.314   6.488  0.4529  0.3941 -1.5605
12195SOL     OW43699   6.587   2.716   4.044 -0.3572  0.3958 -0.6368
12195SOL    HW143700   6.513   2.660   4.017  0.5287 -0.8874 -0.4827
12195SOL    HW243701   6.553   2.805   4.037 -1.6965 -0.1350 -1.2689
12196SOL     OW43702   6.833  10.109   4.036  0.2150  0.1806  0.1952
12196SOL    HW143703   6.861  10.018   4.044 -0.9067 -0.2298 -0.3681
12196SOL    HW243704   6.856  10.134   3.947  0.7932  0.5499  0.4454
12197SOL     OW43705   1.483   0.477  12.163 -0.3387 -0.0533  0.0299
12197SOL    HW143706   1.412   0.534  12.133 -0.2120  0.3990  0.5698
12197SOL    HW243707   1.560   0.535  12.165 -0.4278  0.0333  1.6022
12198SOL     OW43708   9.411   2.406   0.518 -0.5393 -0.3915  0.0152
12198SOL    HW143709   9.451   2.493   0.517 -0.8133 -0.2383 -1.5325
12198SOL    HW243710   9.322   2.420   0.549 -0.5438 -0.1378 -0.1155
12199SOL     OW43711   2.717  10.013  12.703 -0.6568 -0.1245  0.3935
12199SOL    HW143712   2.798  10.059  12.680  0.3723 -2.0878 -0.1447
12199SOL    HW243713   2.663  10.018  12.624  0.7164 -2.3751 -0.7615
12200SOL     OW43714   7.450  12.056   1.284 -0.5810 -0.5183 -0.7578
12200SOL    HW143715   7.437  12.044   1.190  2.0205  1.5148 -1.4633
12200SOL    HW243716   7.366  12.090   1.315 -0.7947  1.0803 -2.8415
12201SOL     OW43717  10.232  10.250   4.881 -0.3340  0.1295  0.2097
12201SOL    HW143718  10.185  10.332   4.866 -0.0589  0.3482  0.5111
12201SOL    HW243719  10.288  10.269   4.957 -0.5085 -0.4374  0.4854
12202SOL     OW43720   1.802   0.691   2.241  0.2672  0.3287 -0.5710
12202SOL    HW143721   1.762   0.605   2.228  0.1405  0.4859 -1.2463
12202SOL    HW243722   1.893   0.672   2.261 -0.3687 -0.1228  2.4595
12203SOL     OW43723  11.581   1.979   9.427  0.5508 -0.4954  0.2121
12203SOL    HW143724  11.562   2.031   9.350 -0.3068  0.4562  1.0354
12203SOL    HW243725  11.659   2.019   9.465  0.3428 -0.2774  0.4179
12204SOL     OW43726  10.897   7.581   4.756 -0.4084 -0.2045  0.2354
12204SOL    HW143727  10.871   7.515   4.820 -0.9233  0.8896  1.1943
12204SOL    HW243728  10.882   7.665   4.801  3.5644  0.6071  0.4300
12205SOL     OW43729   8.283   9.968  11.197 -0.1569 -0.1435 -0.3869
12205SOL    HW143730   8.324  10.020  11.267  0.6286  0.8961 -1.5881
12205SOL    HW243731   8.192   9.997  11.196  0.3215  1.3898 -1.1798
12206SOL     OW43732   0.511  11.174  12.304 -0.6696 -0.6673  0.5885
12206SOL    HW143733   0.543  11.144  12.389  0.2942 -2.5940 -0.3791
12206SOL    HW243734   0.521  11.098  12.247 -2.5276  0.1783 -0.9508
12207SOL     OW43735   1.535   3.726   4.168 -0.1334  0.0631 -0.3511
12207SOL    HW143736   1.613   3.780   4.153 -0.3389  0.0132 -1.7011
12207SOL    HW243737   1.527   3.721   4.263  0.9032  0.9466 -0.2048
12208SOL     OW43738   2.995   3.370   4.458  0.1312  0.7429 -0.2306
12208SOL    HW143739   3.014   3.308   4.528 -0.0041  0.5676 -0.3505
12208SOL    HW243740   2.901   3.361   4.443  0.3211  0.1126 -1.0770
12209SOL     OW43741   1.303   4.192   5.697 -0.0557 -0.1981  0.4476
12209SOL    HW143742   1.354   4.180   5.617 -2.3040  1.1929 -1.3605
12209SOL    HW243743   1.328   4.279   5.729 -0.7194  0.1985 -0.0637
12210SOL     OW43744   8.235   4.405  12.013 -0.2237 -0.0136 -0.7066
12210SOL    HW143745   8.155   4.457  12.008  0.1552  0.5162 -1.4585
12210SOL    HW243746   8.217   4.340  12.080 -1.0015  0.5830 -0.3233
12211SOL     OW43747   5.171   6.308  11.728 -0.3597 -0.0915 -0.7066
12211SOL    HW143748   5.240   6.372  11.709 -0.1719 -0.2437 -0.5370
12211SOL    HW243749   5.180   6.290  11.821 -0.6587 -0.0787 -0.6720
12212SOL     OW43750   9.674   3.126   5.817  0.1186  0.5124  0.3908
12212SOL    HW143751   9.583   3.132   5.847  0.0996  0.1332  0.4170
12212SOL    HW243752   9.669   3.075   5.736  0.3412  0.2276  0.5550
12213SOL     OW43753   4.104   7.554   4.364  0.5716 -0.3922 -0.2338
12213SOL    HW143754   4.169   7.581   4.429  0.8610 -2.8928  0.6263
12213SOL    HW243755   4.112   7.619   4.294  0.8441  1.9028  1.7938
12214SOL     OW43756   4.404  12.678   6.258 -0.0778 -0.4404  0.2404
12214SOL    HW143757   4.405  12.615   6.330 -1.8670 -0.4927  0.2806
12214SOL    HW243758   4.479  12.655   6.204  0.4386 -1.3431  1.3064
12215SOL     OW43759  11.103   3.613   1.521  0.0748  0.8226  0.6120
12215SOL    HW143760  11.032   3.677   1.530 -2.4141 -1.5341 -0.9756
12215SOL    HW243761  11.106   3.568   1.605  0.0429  1.2679  0.8548
12216SOL     OW43762   9.405   1.055   5.407 -0.4093  0.3494  0.1080
12216SOL    HW143763   9.356   1.111   5.346  0.8890  0.3201 -1.0052
12216SOL    HW243764   9.338   1.003   5.451 -1.3237 -0.8498 -2.5014
12217SOL     OW43765   4.171   0.926  12.669 -0.2710  0.3035  0.1456
12217SOL    HW143766   4.176   0.967  12.583  0.9229  0.3339  0.2150
12217SOL    HW243767   4.232   0.975  12.724  0.4104 -0.8957  0.5056
12218SOL     OW43768   9.884   5.689  12.072  0.3806  0.5230 -0.2091
12218SOL    HW143769   9.956   5.682  12.010  2.1477  0.0926  1.7493
12218SOL    HW243770   9.881   5.782  12.095  1.6658  0.2769  1.1204
12219SOL     OW43771   4.065   1.867   5.328 -0.3892 -0.3061 -0.0089
12219SOL    HW143772   4.121   1.795   5.298 -2.3529 -2.0491  0.2643
12219SOL    HW243773   4.096   1.888   5.415  2.5659  1.8008 -1.4179
12220SOL     OW43774   3.572  11.947   5.710  0.0817  0.6203 -0.6869
12220SOL    HW143775   3.548  12.037   5.690 -2.0618  0.0093 -1.1579
12220SOL    HW243776   3.655  11.954   5.758 -0.1383  2.8374 -0.5322
12221SOL     OW43777   2.908   6.896   8.683 -0.1565  0.8369  0.2863
12221SOL    HW143778   2.965   6.822   8.704 -0.4854  1.0976  2.2659
12221SOL    HW243779   2.822   6.858   8.670  0.1188  0.6291 -1.1553
12222SOL     OW43780   2.759   2.225   5.078  0.0594  0.5030  0.2613
12222SOL    HW143781   2.850   2.196   5.084 -0.1781 -0.1715  0.6628
12222SOL    HW243782   2.723   2.210   5.166 -0.7710 -0.3737 -0.2099
12223SOL     OW43783   7.223   4.285   7.905 -0.2919  0.8536  0.0990
12223SOL    HW143784   7.279   4.228   7.957 -1.2628  1.1285  1.4960
12223SOL    HW243785   7.138   4.241   7.904 -0.1136  0.4429 -1.9874
12224SOL     OW43786   6.403   0.609   4.814 -0.3008 -0.1672  0.4810
12224SOL    HW143787   6.478   0.667   4.805  0.3897 -0.8518  1.5477
12224SOL    HW243788   6.394   0.597   4.909 -1.7822 -0.0776  0.3770
12225SOL     OW43789  10.389   2.870   5.530  0.1131  0.7219  0.8315
12225SOL    HW143790  10.435   2.798   5.487  0.6883  1.5972 -0.0593
12225SOL    HW243791  10.297   2.857   5.506  0.2804  0.5756  0.2654
12226SOL     OW43792   0.620   6.620   1.789 -0.5258  0.0135 -0.0106
12226SOL    HW143793   0.610   6.645   1.881 -0.9224  0.8994 -0.2886
12226SOL    HW243794   0.535   6.639   1.749 -0.9402 -2.0261 -0.2017
12227SOL     OW43795   9.478   0.086   6.033  0.1650 -0.1196 -0.1790
12227SOL    HW143796   9.451   0.002   5.995 -3.0317  0.0417  1.4408
12227SOL    HW243797   9.438   0.087   6.120  0.5508  2.8727  0.0649
12228SOL     OW43798   7.215  12.589   1.029  0.1302 -0.1352 -0.0306
12228SOL    HW143799   7.161  12.536   0.971 -0.0231 -0.5638  0.4969
12228SOL    HW243800   7.275  12.526   1.071 -0.1018  0.0907  0.6514
12229SOL     OW43801   5.133  10.310  11.663  0.4781  0.3028 -0.0639
12229SOL    HW143802   5.170  10.254  11.595 -1.5043  0.5461 -1.4339
12229SOL    HW243803   5.133  10.256  11.742  0.8468 -0.7523 -0.7694
12230SOL     OW43804   6.947   4.744   1.705 -0.2198 -0.2214  0.2602
12230SOL    HW143805   6.981   4.815   1.760 -1.7103  0.7512 -0.0293
12230SOL    HW243806   7.002   4.668   1.728  2.0813  1.2195 -0.1481
12231SOL     OW43807   6.959   0.902   8.570  0.0509 -0.0186  0.3910
12231SOL    HW143808   6.913   0.818   8.575  1.0699 -0.9688 -3.3745
12231SOL    HW243809   6.891   0.966   8.553 -0.3062 -0.9947 -2.2836
12232SOL     OW43810   9.762  11.854  10.083 -0.4077  0.1898  0.1599
12232SOL    HW143811   9.810  11.848  10.000  0.9931  1.8547  0.7814
12232SOL    HW243812   9.792  11.778  10.133  0.3977  0.3576 -0.0547
12233SOL     OW43813   5.513   4.882   1.954 -0.1298 -0.0800 -0.7022
12233SOL    HW143814   5.501   4.957   2.012  0.3986 -0.6218  0.1467
12233SOL    HW243815   5.598   4.846   1.980 -0.7095 -1.4103 -0.5516
12234SOL     OW43816  10.054   5.095   6.000 -0.3550  0.1052 -0.1786
12234SOL    HW143817   9.974   5.097   6.054 -0.4058 -0.5376 -0.2206
12234SOL    HW243818  10.035   5.029   5.933  0.4802 -0.5809  0.2408
12235SOL     OW43819   3.473   9.600  11.861 -0.1212 -0.1651  0.1592
12235SOL    HW143820   3.432   9.554  11.787  0.6415 -0.3760 -0.1531
12235SOL    HW243821   3.567   9.593  11.843  0.0252  1.8771 -0.1118
12236SOL     OW43822   3.284   8.696   5.650  0.0092 -0.0771 -0.1336
12236SOL    HW143823   3.356   8.759   5.657 -0.1992  0.1267  0.1954
12236SOL    HW243824   3.326   8.611   5.642  0.2820 -0.0850  1.1966
12237SOL     OW43825   1.595  12.458   6.064 -0.3887  0.0402  0.4253
12237SOL    HW143826   1.660  12.495   6.005 -0.3791  0.8481  0.9245
12237SOL    HW243827   1.542  12.533   6.092 -0.7833 -0.4234  0.9460
12238SOL     OW43828   0.041   4.721  12.352 -0.0932 -0.5431 -0.0858
12238SOL    HW143829  -0.038   4.740  12.301  0.3010  1.4521 -0.0316
12238SOL    HW243830   0.110   4.771  12.308  0.2077  1.5184  2.4943
12239SOL     OW43831   9.094  12.593   3.111 -0.1598 -0.1434  1.0214
12239SOL    HW143832   9.156  12.522   3.095 -1.1335 -1.0549  1.1817
12239SOL    HW243833   9.130  12.640   3.187  2.0493  1.3888 -0.8418
12240SOL     OW43834   8.265   4.332   8.251 -0.2952 -0.1498  0.0545
12240SOL    HW143835   8.291   4.406   8.305 -1.0288 -0.2942  0.6249
12240SOL    HW243836   8.226   4.371   8.173  0.7100  0.0599 -0.3515
12241SOL     OW43837  12.816   3.287   7.132  0.4738  0.2899 -0.5700
12241SOL    HW143838  12.854   3.219   7.187 -0.9732 -1.0475 -1.1375
12241SOL    HW243839  12.886   3.352   7.122  1.5908 -0.6522  0.7503
12242SOL     OW43840   5.690   2.494   9.071  0.0833 -0.5030  0.7014
12242SOL    HW143841   5.676   2.589   9.072  0.2256 -0.4833  1.0883
12242SOL    HW243842   5.666   2.467   8.983 -0.0149 -0.1137  0.6068
12243SOL     OW43843   9.083  10.425   1.778 -0.4302  0.1988 -0.0003
12243SOL    HW143844   9.008  10.416   1.719 -1.3265 -0.1298  1.1403
12243SOL    HW243845   9.045  10.462   1.858  0.1423 -2.2010  1.4753
12244SOL     OW43846  12.760  12.095   7.946 -0.0171  0.6118 -0.0366
12244SOL    HW143847  12.728  12.065   8.031 -0.5795  0.2164 -0.3828
12244SOL    HW243848  12.744  12.022   7.887  0.2141  0.9483 -0.5205
12245SOL     OW43849  12.672   2.540   8.445  0.0680 -0.6154  0.2665
12245SOL    HW143850  12.756   2.575   8.474  0.0979  0.9371 -1.5372
12245SOL    HW243851  12.618   2.618   8.429 -1.4012 -1.5593  0.4690
12246SOL     OW43852   9.941  11.161  10.892  0.7962 -0.0807 -0.0139
12246SOL    HW143853   9.923  11.191  10.802  2.4660  0.8440 -0.0684
12246SOL    HW243854   9.865  11.192  10.942 -0.1279 -0.5397 -1.0692
12247SOL     OW43855  12.840   0.830   1.339 -0.2583 -0.0471  1.0138
12247SOL    HW143856  12.798   0.907   1.377  0.2324 -0.1115  1.7121
12247SOL    HW243857  12.908   0.865   1.282 -0.7969  0.0481  0.4294
12248SOL     OW43858   2.419   3.477   1.879 -0.7884  0.0210 -0.3216
12248SOL    HW143859   2.445   3.569   1.866  0.0512 -0.2094 -0.2952
12248SOL    HW243860   2.325   3.482   1.896 -0.4093  1.0645  1.7630
12249SOL     OW43861  12.966   8.954   6.948  0.0619 -0.3922 -0.7390
12249SOL    HW143862  13.058   8.930   6.960  0.1815  1.1106  2.6746
12249SOL    HW243863  12.967   9.022   6.880  1.9972  1.6388  1.1349
12250SOL     OW43864   0.248   2.369  11.687  0.6125  0.0602  0.3179
12250SOL    HW143865   0.227   2.426  11.613  1.8177 -1.6536 -1.4380
12250SOL    HW243866   0.166   2.359  11.734 -0.5463  0.0413 -1.6294
12251SOL     OW43867  11.990   4.737   2.721  0.0894 -0.2298  0.1643
12251SOL    HW143868  12.077   4.701   2.705  0.1676 -0.0175  0.1017
12251SOL    HW243869  12.003   4.804   2.787  0.3086  1.1698 -1.2366
12252SOL     OW43870   7.642  10.518   9.624  0.5322 -0.0214 -0.1559
12252SOL    HW143871   7.710  10.585   9.632  0.2758  0.2322 -0.1033
12252SOL    HW243872   7.667  10.452   9.689 -1.2909  1.8270  2.6014
12253SOL     OW43873   9.400   3.062   2.493 -0.4299  0.3827  0.7640
12253SOL    HW143874   9.431   3.034   2.579 -1.0647  0.1320  0.9116
12253SOL    HW243875   9.308   3.086   2.507  0.0389  2.4880  0.6466
12254SOL     OW43876   0.727   7.928  12.600 -0.5301  0.2918 -0.2530
12254SOL    HW143877   0.706   7.993  12.667  0.6245  0.4082  0.0247
12254SOL    HW243878   0.701   7.968  12.517 -0.2391  0.9258 -0.0437
12255SOL     OW43879   0.911   1.929   8.421 -0.1166 -0.0821 -0.2759
12255SOL    HW143880   0.869   1.970   8.346  0.1269  0.6969  0.0040
12255SOL    HW243881   0.856   1.853   8.441 -1.8297  1.2973  0.5181
12256SOL     OW43882  12.280   5.125   2.212 -0.1810  0.2860 -0.0590
12256SOL    HW143883  12.262   5.048   2.159  0.4426 -0.6176  0.9861
12256SOL    HW243884  12.253   5.100   2.301  1.3489  0.7393  0.5665
12257SOL     OW43885   4.853  12.685   2.818 -0.3834  0.5908 -0.1592
12257SOL    HW143886   4.804  12.746   2.873 -0.4675  0.6140 -0.2588
12257SOL    HW243887   4.828  12.599   2.850  0.1620  0.6155  0.3493
12258SOL     OW43888   9.599   6.710   5.105  0.2003 -0.0268  0.3620
12258SOL    HW143889   9.536   6.739   5.040  1.3750 -0.0379 -0.8287
12258SOL    HW243890   9.561   6.629   5.141 -0.6325  0.1838 -0.0246
12259SOL     OW43891   1.439   8.390   7.878 -0.3742  0.1611 -0.1034
12259SOL    HW143892   1.421   8.385   7.971 -1.2167  1.3503 -0.1924
12259SOL    HW243893   1.471   8.479   7.864  1.6000 -0.5867 -0.6514
12260SOL     OW43894   1.425   8.916   4.541  0.6710 -0.0704 -0.0549
12260SOL    HW143895   1.346   8.970   4.551  0.2803 -0.5169 -0.6117
12260SOL    HW243896   1.475   8.960   4.472  0.3373 -0.4238 -0.5312
12261SOL     OW43897  12.416   4.817  12.101 -0.5205 -0.1051  0.7497
12261SOL    HW143898  12.413   4.911  12.084  3.6110  0.3574  1.5433
12261SOL    HW243899  12.448   4.778  12.020  1.3772 -0.2684  1.5261
12262SOL     OW43900   2.554   6.951   9.286 -0.0391  0.0701 -0.3732
12262SOL    HW143901   2.608   7.016   9.330 -0.7621 -0.3423  1.2090
12262SOL    HW243902   2.501   6.912   9.357 -1.0433 -0.8315 -1.5743
12263SOL     OW43903   8.402   2.933  10.529 -0.1659  0.0687 -0.0838
12263SOL    HW143904   8.348   2.969  10.599  0.6252 -0.6238  0.9147
12263SOL    HW243905   8.485   2.981  10.535  0.1822 -0.5297 -0.0236
12264SOL     OW43906   2.454   7.147   2.044  0.2654 -0.0239  0.6137
12264SOL    HW143907   2.496   7.230   2.022  2.7153 -1.5023 -0.7775
12264SOL    HW243908   2.452   7.146   2.140 -1.5465  2.3574  0.6976
12265SOL     OW43909  10.638  10.387  10.702  0.3545 -0.2681 -0.2815
12265SOL    HW143910  10.630  10.383  10.607  0.9772 -1.1352 -0.3165
12265SOL    HW243911  10.729  10.414  10.717  0.1782  0.1407  0.0681
12266SOL     OW43912   5.490   3.868   4.302  0.3951  0.7035 -0.3987
12266SOL    HW143913   5.471   3.949   4.349 -1.9663  0.8078 -1.3718
12266SOL    HW243914   5.541   3.895   4.226  0.2270  1.1913 -0.3423
12267SOL     OW43915   8.797   8.172  10.870  0.2253  0.1722 -0.5141
12267SOL    HW143916   8.810   8.077  10.867  3.9664  0.5101  0.1555
12267SOL    HW243917   8.772   8.196  10.781  1.7095 -1.2307 -1.3686
12268SOL     OW43918   5.384  12.358  12.865  0.1828 -0.4026 -0.2171
12268SOL    HW143919   5.290  12.346  12.881  0.1062  0.2870 -0.1247
12268SOL    HW243920   5.417  12.270  12.847  0.0699 -1.1228  2.6246
12269SOL     OW43921   5.131   3.177   5.387 -0.1699  0.3501 -0.6433
12269SOL    HW143922   5.106   3.198   5.477  0.4230  2.0408 -0.8386
12269SOL    HW243923   5.049   3.152   5.344 -0.6723  0.8065  0.0383
12270SOL     OW43924   9.096  11.925   8.823  0.0593 -0.7864 -0.5022
12270SOL    HW143925   9.113  12.008   8.867  0.2383 -1.7528  1.3517
12270SOL    HW243926   9.002  11.927   8.802 -0.2784 -0.7308  0.9287
12271SOL     OW43927   9.502   6.872   8.454  0.2526  0.1042  0.1942
12271SOL    HW143928   9.511   6.967   8.456  0.6243  0.0861 -0.3835
12271SOL    HW243929   9.505   6.849   8.361 -1.0400 -0.3669  0.2394
12272SOL     OW43930   6.068   0.000   4.852 -0.1986 -0.1524 -0.2189
12272SOL    HW143931   6.128  -0.070   4.827  0.4384  0.2743  0.0907
12272SOL    HW243932   6.056  -0.012   4.947 -2.8179 -1.9397 -0.6935
12273SOL     OW43933  12.253   5.347   1.275  0.1288  0.1113  0.3156
12273SOL    HW143934  12.328   5.377   1.223  0.4588 -1.1235  0.0342
12273SOL    HW243935  12.290   5.328   1.361  0.4564 -1.7491 -0.1861
12274SOL     OW43936  12.322   1.087   5.763  0.2696 -0.1244  0.1746
12274SOL    HW143937  12.397   1.057   5.815 -0.2335 -1.5635  0.1149
12274SOL    HW243938  12.317   1.026   5.690 -0.3672  0.5519 -0.3653
12275SOL     OW43939  12.776   9.219   5.146 -0.3614  0.3080 -0.1578
12275SOL    HW143940  12.735   9.150   5.199  1.7332  0.2717  1.5178
12275SOL    HW243941  12.710   9.288   5.141 -0.8789  0.0216  1.9526
12276SOL     OW43942  11.313  12.555   2.677  0.8149 -0.3146 -0.6623
12276SOL    HW143943  11.355  12.473   2.652 -0.1910 -0.8810 -0.5337
12276SOL    HW243944  11.257  12.577   2.602  0.3893 -0.2231 -0.3206
12277SOL     OW43945   1.017   7.310   2.427  0.1711 -0.2480 -0.2169
12277SOL    HW143946   1.074   7.383   2.404 -0.9863  1.0741  0.8955
12277SOL    HW243947   0.936   7.325   2.377 -0.5132 -0.0859  0.8997
12278SOL     OW43948  11.358  10.498   2.216  0.5232  0.1499 -0.0340
12278SOL    HW143949  11.267  10.487   2.243  0.4680  0.0230 -0.2686
12278SOL    HW243950  11.382  10.586   2.245  0.0741  0.5013 -0.7082
12279SOL     OW43951   5.410   1.211  10.010  0.2850 -0.7226  0.3317
12279SOL    HW143952   5.501   1.184   9.995  0.5541  0.9979 -1.5766
12279SOL    HW243953   5.417   1.291  10.061 -0.2205 -0.9864  0.8271
12280SOL     OW43954   5.145   8.174   7.183  0.2055 -0.0290  0.1229
12280SOL    HW143955   5.189   8.128   7.254  0.1582  1.3836  1.1076
12280SOL    HW243956   5.137   8.264   7.214  0.6382  0.7582 -1.8842
12281SOL     OW43957   0.072   4.181  12.665  0.2623 -0.0762  0.4034
12281SOL    HW143958   0.103   4.185  12.575 -0.5583 -1.7737  0.0009
12281SOL    HW243959   0.037   4.268  12.683  1.2605  0.5460 -0.5975
12282SOL     OW43960   0.559   6.106   1.665  0.1917  0.2801  0.1663
12282SOL    HW143961   0.466   6.087   1.656  0.0856  0.9663 -0.3106
12282SOL    HW243962   0.567   6.198   1.638  1.1304 -0.0194 -0.6407
12283SOL     OW43963  12.128  11.877  11.171  0.1744 -0.1226 -0.0904
12283SOL    HW143964  12.191  11.881  11.243  1.2941 -0.0408 -1.0374
12283SOL    HW243965  12.127  11.785  11.145 -0.1393 -0.1338 -0.0355
12284SOL     OW43966   0.846   6.355   6.733 -0.7567 -0.6744 -0.6405
12284SOL    HW143967   0.813   6.334   6.646  0.5575 -0.3003 -1.2436
12284SOL    HW243968   0.936   6.383   6.719 -0.6715 -0.1482  0.7880
12285SOL     OW43969   4.531   8.924   4.046  0.3886 -0.1003 -0.3007
12285SOL    HW143970   4.450   8.934   3.996 -0.2188 -1.8697  0.2354
12285SOL    HW243971   4.561   8.835   4.025  2.1623  0.4973 -0.4343
12286SOL     OW43972   8.368   3.206   8.746  0.0346  0.4306 -0.1740
12286SOL    HW143973   8.399   3.243   8.664 -1.1642  0.4568 -0.6306
12286SOL    HW243974   8.373   3.111   8.734  0.3342  0.4324 -0.0809
12287SOL     OW43975   7.871   3.401  11.857  0.7061  0.6734  0.2673
12287SOL    HW143976   7.900   3.342  11.926 -0.8392  0.5044  0.8209
12287SOL    HW243977   7.801   3.353  11.813 -1.2381  2.3719  1.3160
12288SOL     OW43978   9.073   4.320   9.432  0.0138  0.2451 -0.0002
12288SOL    HW143979   8.991   4.370   9.432 -0.3609 -0.3482  0.3292
12288SOL    HW243980   9.107   4.330   9.343 -0.4130  0.5082 -0.1391
12289SOL     OW43981   8.504   5.659   8.449 -0.4352 -0.0529 -0.1876
12289SOL    HW143982   8.549   5.650   8.533  0.8866 -0.4469 -0.9154
12289SOL    HW243983   8.493   5.753   8.437  0.1523  0.0469  0.0344
12290SOL     OW43984   2.591   8.290   3.738  0.1974  0.0225  0.2661
12290SOL    HW143985   2.658   8.358   3.731  0.2716 -0.1289 -0.7532
12290SOL    HW243986   2.606   8.235   3.661 -1.4819  0.3351 -0.3248
12291SOL     OW43987   2.206   5.212   3.028  0.6577 -0.3494 -0.1085
12291SOL    HW143988   2.127   5.239   3.073  0.8768 -1.2402  0.8427
12291SOL    HW243989   2.224   5.124   3.061  1.3220 -0.6818 -1.2796
12292SOL     OW43990   7.125   4.034   5.267 -0.7969 -0.7857 -0.3164
12292SOL    HW143991   7.084   3.949   5.283  2.0367 -2.0888  0.6155
12292SOL    HW243992   7.155   4.063   5.353  1.4867 -0.6509 -1.0867
12293SOL     OW43993   3.307   3.017   1.476 -0.2024  0.2298 -0.2466
12293SOL    HW143994   3.366   3.091   1.464 -1.2039  1.1125  0.1691
12293SOL    HW243995   3.224   3.056   1.503 -0.6744 -1.0617  0.2533
12294SOL     OW43996   4.221   4.830   1.905  0.2121 -0.3065 -0.1927
12294SOL    HW143997   4.185   4.784   1.830  1.5728  0.6666 -1.5032
12294SOL    HW243998   4.308   4.791   1.918  0.0779 -0.3108  0.7360
12295SOL     OW43999   3.349   0.222   2.067 -0.1792  0.0933 -0.1069
12295SOL    HW144000   3.388   0.169   2.136 -0.0862 -0.0565 -0.2733
12295SOL    HW244001   3.343   0.162   1.992  0.3712  0.4531 -0.4416
12296SOL     OW44002   3.411   6.671   9.147 -0.2297  0.1312  0.2390
12296SOL    HW144003   3.355   6.658   9.223 -1.1403 -0.6052 -0.5400
12296SOL    HW244004   3.493   6.706   9.184 -1.0991  0.9929  1.4089
12297SOL     OW44005   0.821   0.503   4.548  0.2343 -0.2090 -0.1172
12297SOL    HW144006   0.876   0.537   4.477 -0.2047 -0.3978 -0.5515
12297SOL    HW244007   0.804   0.412   4.523  0.1990 -0.3209  0.3077
12298SOL     OW44008   5.089   5.419  12.122  0.0162  0.1745 -0.7887
12298SOL    HW144009   5.111   5.418  12.028  1.9199 -0.2750 -0.3889
12298SOL    HW244010   5.093   5.327  12.147  0.1318  0.3543 -0.1468
12299SOL     OW44011   9.914   8.725   3.254 -0.2821  0.6680 -0.6445
12299SOL    HW144012   9.962   8.673   3.189  1.3242  2.4498 -0.9756
12299SOL    HW244013   9.972   8.728   3.330 -0.8205  1.0704 -0.2411
12300SOL     OW44014   9.893   0.898   6.030 -0.1564  0.3046 -0.4442
12300SOL    HW144015   9.857   0.986   6.036 -0.7854 -0.0392  1.6846
12300SOL    HW244016   9.982   0.910   5.999 -0.0742  1.7651  0.2955
12301SOL     OW44017   8.086   4.593  10.976 -0.2070 -0.3658 -0.8350
12301SOL    HW144018   8.171   4.582  11.018 -0.5799  0.4551  0.1919
12301SOL    HW244019   8.098   4.668  10.917 -1.1802  2.5514  2.3211
12302SOL     OW44020   5.642   7.045   2.119 -0.3423  0.7757  0.1938
12302SOL    HW144021   5.634   6.950   2.110  1.9962  0.2803  2.2071
12302SOL    HW244022   5.610   7.080   2.036 -0.9252 -1.7864 -0.7514
12303SOL     OW44023   8.771   0.157  11.207  0.5249 -0.5914 -0.1565
12303SOL    HW144024   8.708   0.092  11.178 -0.6726  0.5612 -0.2387
12303SOL    HW244025   8.729   0.241  11.190  1.6561  0.2019  0.7474
12304SOL     OW44026  12.416   5.218   0.844  0.1742  0.5740  0.1748
12304SOL    HW144027  12.423   5.227   0.939  1.6215 -0.3697  0.1890
12304SOL    HW244028  12.368   5.296   0.815  2.9187  2.8395  1.3022
12305SOL     OW44029   9.544   8.181   1.263  0.4140 -0.6942 -0.4270
12305SOL    HW144030   9.466   8.171   1.208 -0.0919 -0.4165  0.2338
12305SOL    HW244031   9.513   8.228   1.340  1.1016 -1.1660  0.1459
12306SOL     OW44032  12.390   9.920   8.383 -0.5537 -0.2591 -0.2423
12306SOL    HW144033  12.316   9.891   8.330 -0.5851  0.7069 -0.7487
12306SOL    HW244034  12.422   9.841   8.425 -0.8147 -0.9672 -1.3447
12307SOL     OW44035   7.265   4.688   0.011 -0.5840  0.0313 -0.0384
12307SOL    HW144036   7.191   4.659   0.065 -0.1823 -0.7591  0.1166
12307SOL    HW244037   7.299   4.607  -0.028 -1.1050  0.6148 -1.8154
12308SOL     OW44038   0.441   0.804   7.980 -0.1726  0.3768 -0.0209
12308SOL    HW144039   0.499   0.879   7.993  1.8295 -0.8902 -1.1648
12308SOL    HW244040   0.359   0.830   8.022  1.0926  2.3794  1.3884
12309SOL     OW44041  10.992   2.389   9.118 -0.1489 -0.1880  0.5088
12309SOL    HW144042  10.970   2.480   9.135  0.8967  0.1128  0.3092
12309SOL    HW244043  10.910   2.342   9.129 -1.1945  1.0466 -1.5743
12310SOL     OW44044   3.848   6.393  11.644 -0.6334  0.2822 -0.1989
12310SOL    HW144045   3.776   6.345  11.684 -0.7755  0.0081 -0.7721
12310SOL    HW244046   3.805   6.446  11.576 -0.3772  0.6181 -0.0997
12311SOL     OW44047   5.897  12.171   2.164  0.1648  0.0356  0.3493
12311SOL    HW144048   5.935  12.091   2.200 -1.5010 -1.1614 -0.4168
12311SOL    HW244049   5.907  12.162   2.069  2.0107  1.8538  0.3004
12312SOL     OW44050   6.901   7.067   2.451 -0.4064  0.4330 -0.2823
12312SOL    HW144051   6.860   7.142   2.407  0.7020  1.2739  0.0495
12312SOL    HW244052   6.994   7.074   2.427 -0.0655 -0.0639  0.8313
12313SOL     OW44053   4.994  12.348   8.192 -0.2222 -0.2404 -0.2580
12313SOL    HW144054   5.077  12.301   8.200 -1.4743 -2.8355 -1.3199
12313SOL    HW244055   4.976  12.380   8.280  2.3333  1.3073 -0.2029
12314SOL     OW44056   3.681   5.020  12.351  0.0314 -0.3398  0.1248
12314SOL    HW144057   3.654   4.999  12.261 -2.2624  1.4695  0.2892
12314SOL    HW244058   3.723   5.105  12.344  1.6145 -1.0463  0.5692
12315SOL     OW44059  11.313   5.153   9.869 -0.3943 -0.5084  0.6460
12315SOL    HW144060  11.294   5.149   9.775 -0.5705  1.9874  0.4963
12315SOL    HW244061  11.407   5.139   9.875 -0.5240 -1.6464  0.2138
12316SOL     OW44062   7.020   7.160  12.337  0.3846 -0.1219 -0.0931
12316SOL    HW144063   7.026   7.129  12.428 -1.7946 -1.1978 -0.2539
12316SOL    HW244064   6.931   7.194  12.329  0.2847 -0.7081 -1.9999
12317SOL     OW44065   7.061   8.905   7.225 -0.1790 -0.2733  0.5513
12317SOL    HW144066   7.103   8.917   7.139  0.6881  0.8287  1.1007
12317SOL    HW244067   7.008   8.826   7.215  0.8443 -0.8418 -0.6360
12318SOL     OW44068   8.247   6.083   2.745  0.0324  0.2750  0.5179
12318SOL    HW144069   8.333   6.044   2.766 -0.2473 -0.5319  0.2161
12318SOL    HW244070   8.184   6.021   2.780 -0.4318  0.6843  0.4122
12319SOL     OW44071   1.340   2.829  12.100  0.2412  0.1519 -0.3553
12319SOL    HW144072   1.342   2.747  12.051  0.2937  0.8523 -1.5710
12319SOL    HW244073   1.321   2.803  12.190  0.1103 -1.1750 -0.7472
12320SOL     OW44074   2.926   0.692  10.881  0.1744  0.0537 -0.1973
12320SOL    HW144075   2.848   0.713  10.930 -0.3211 -0.8084 -0.5914
12320SOL    HW244076   2.894   0.653  10.799  1.0087 -1.0239 -0.0373
12321SOL     OW44077   7.320  10.461   9.638  0.0132 -0.0948  0.4059
12321SOL    HW144078   7.403  10.453   9.686  1.0707  1.7225 -0.9980
12321SOL    HW244079   7.290  10.549   9.658 -0.5838 -0.0495 -0.6329
12322SOL     OW44080   8.804   5.820   9.423  0.5224 -0.3900  0.1264
12322SOL    HW144081   8.866   5.888   9.398 -0.1459 -0.3033 -1.4444
12322SOL    HW244082   8.855   5.759   9.477  1.8174 -0.0049 -0.6211
12323SOL     OW44083   3.125   4.681   2.551 -0.1587 -0.2920 -0.2637
12323SOL    HW144084   3.096   4.772   2.539 -1.4382 -0.1745  2.8646
12323SOL    HW244085   3.091   4.635   2.474 -3.4004  1.0827  0.1682
12324SOL     OW44086   2.260  11.365   3.555  0.0261 -0.2248  0.1673
12324SOL    HW144087   2.256  11.424   3.479  1.4899  0.7136  0.7737
12324SOL    HW244088   2.310  11.290   3.524  1.7467  0.7309  0.5211
12325SOL     OW44089   8.992   3.720  12.968  0.1604  0.0579 -0.3144
12325SOL    HW144090   8.905   3.747  12.940  0.6995  1.2799 -0.8724
12325SOL    HW244091   9.049   3.793  12.945  1.0044  0.2192  2.0826
12326SOL     OW44092  12.791  11.183   0.065 -0.4803  0.2358 -0.5318
12326SOL    HW144093  12.854  11.118   0.097  0.2177  0.4496 -1.4458
12326SOL    HW244094  12.759  11.225   0.145  2.2214  1.6940 -0.0943
12327SOL     OW44095   2.616   3.390   5.923 -0.2164 -0.3267 -0.0805
12327SOL    HW144096   2.583   3.471   5.884  0.6461 -0.1705 -0.5113
12327SOL    HW244097   2.556   3.372   5.994 -0.3042  0.8178  0.1624
12328SOL     OW44098   0.184   0.943   7.753  0.8882  0.6904 -0.3168
12328SOL    HW144099   0.218   1.015   7.807 -0.4696 -0.0638  1.6445
12328SOL    HW244100   0.089   0.948   7.763  0.7832 -2.2233  1.1218
12329SOL     OW44101   2.364   5.331   1.608  0.0419  0.1075  0.3679
12329SOL    HW144102   2.328   5.243   1.613 -0.6787  0.2940 -0.9228
12329SOL    HW244103   2.338   5.373   1.690 -1.8055 -0.1143 -0.0597
12330SOL     OW44104   5.782   0.982   1.054 -0.5936 -0.3147  0.5763
12330SOL    HW144105   5.788   1.066   1.099 -0.5679 -0.5918  1.0983
12330SOL    HW244106   5.811   1.000   0.965  2.1204 -0.3254  1.3849
12331SOL     OW44107  10.038   3.206   1.965  0.0375  0.7243 -0.0074
12331SOL    HW144108  10.104   3.190   2.032 -0.1605 -0.1818 -0.0262
12331SOL    HW244109   9.984   3.276   2.002 -0.2181  0.0705  0.8809
12332SOL     OW44110   4.085   2.737   5.848 -0.7516 -0.1852  0.1209
12332SOL    HW144111   4.030   2.660   5.862 -2.5139  1.1041  0.4814
12332SOL    HW244112   4.082   2.751   5.753  2.3169 -2.4420 -0.4870
12333SOL     OW44113   7.784  11.661   9.463 -0.6334  0.5985  0.2662
12333SOL    HW144114   7.850  11.638   9.398 -1.0598 -0.8535  0.3211
12333SOL    HW244115   7.701  11.636   9.424 -0.8980 -0.2784  1.3183
12334SOL     OW44116  10.457  11.127   9.432  0.5274  0.4958 -0.2853
12334SOL    HW144117  10.445  11.104   9.524  1.8381  0.6610 -0.0578
12334SOL    HW244118  10.419  11.054   9.384  0.6830 -0.0381  0.3904
12335SOL     OW44119   7.946   4.866   6.733 -0.0012  0.5958  0.9462
12335SOL    HW144120   7.935   4.771   6.739  1.8029  0.2368 -0.3928
12335SOL    HW244121   7.882   4.892   6.666 -0.9624  0.4433  1.7880
12336SOL     OW44122   1.561   4.428   7.629 -0.8132  0.4240  0.1373
12336SOL    HW144123   1.583   4.352   7.575 -0.3146  0.4173  0.3443
12336SOL    HW244124   1.542   4.390   7.715  1.6977  0.6941  0.8910
12337SOL     OW44125  12.398  10.978   7.407 -0.2118 -0.0780 -0.4985
12337SOL    HW144126  12.486  10.942   7.421 -0.7571 -1.4442 -0.3410
12337SOL    HW244127  12.344  10.901   7.389 -1.7134  0.5454  1.1092
12338SOL     OW44128   1.373   7.600  10.802  0.2619 -0.2893 -0.4241
12338SOL    HW144129   1.358   7.641  10.887 -0.1904  0.1629 -0.7165
12338SOL    HW244130   1.301   7.537  10.793 -0.8170  1.0265 -1.3024
12339SOL     OW44131  11.671   6.769   6.492 -0.7847  0.2444 -0.1694
12339SOL    HW144132  11.683   6.675   6.502 -2.5737  0.0644  0.8172
12339SOL    HW244133  11.626   6.795   6.573  1.0408  2.2359  0.2987
12340SOL     OW44134  12.786  11.929   6.644  0.7377  0.0043 -0.3829
12340SOL    HW144135  12.847  11.928   6.718 -0.8937  0.6158  1.0471
12340SOL    HW244136  12.746  11.842   6.645  2.4966 -0.9128 -2.2035
12341SOL     OW44137   4.730   0.792   5.126  0.1611 -0.1372  0.6596
12341SOL    HW144138   4.643   0.774   5.092 -0.1071  0.0141  1.2546
12341SOL    HW244139   4.783   0.808   5.048 -0.5136  0.5482  0.3325
12342SOL     OW44140   1.197   6.181  12.112 -0.6049 -0.4724 -0.5094
12342SOL    HW144141   1.225   6.148  12.026  2.6645 -1.0672  0.6287
12342SOL    HW244142   1.251   6.258  12.126 -0.3065 -0.9778  1.4081
12343SOL     OW44143  10.468  12.444   7.397 -0.6530 -0.2428 -0.2259
12343SOL    HW144144  10.453  12.491   7.315 -1.8219 -0.2868 -0.0525
12343SOL    HW244145  10.442  12.506   7.465 -0.3357 -0.4500  0.0883
12344SOL     OW44146   2.876  12.425  10.256  0.1518 -0.2406  0.3059
12344SOL    HW144147   2.872  12.393  10.347  0.2630 -1.0838  0.0215
12344SOL    HW244148   2.862  12.520  10.264 -0.0850 -0.3335  1.1824
12345SOL     OW44149   3.370  12.043   3.558  0.4844  0.4207 -0.8257
12345SOL    HW144150   3.438  12.010   3.499  1.2268 -0.1904  0.3531
12345SOL    HW244151   3.311  11.968   3.571 -2.3791  1.7549 -4.4061
12346SOL     OW44152  10.588   4.302   5.352 -0.3755 -0.1746 -0.2637
12346SOL    HW144153  10.598   4.358   5.429  2.1128  0.5960 -1.0380
12346SOL    HW244154  10.564   4.362   5.282  0.9094 -0.2518 -0.8021
12347SOL     OW44155   4.895   1.890  10.106 -0.6059 -0.0518  0.1730
12347SOL    HW144156   4.828   1.957  10.096 -1.2768 -0.2106  2.9010
12347SOL    HW244157   4.864   1.835  10.177  0.0698 -3.1704 -1.7489
12348SOL     OW44158   2.615   0.046   3.922 -0.2890 -0.1198  0.0528
12348SOL    HW144159   2.655   0.060   4.007 -1.2494  0.0794  0.4888
12348SOL    HW244160   2.594  -0.047   3.919  0.0320 -0.1889 -0.1023
12349SOL     OW44161  10.617   3.426  12.583 -0.2913  0.3448  0.2280
12349SOL    HW144162  10.543   3.457  12.530 -0.1620  1.3234  0.6009
12349SOL    HW244163  10.589   3.440  12.673  0.0909  0.0950  0.3887
12350SOL     OW44164  10.390  10.121   5.530 -0.1577  0.3224  0.2132
12350SOL    HW144165  10.371  10.085   5.443  1.5761  1.3551 -0.6289
12350SOL    HW244166  10.474  10.165   5.520  0.2198  0.2178  2.5043
12351SOL     OW44167   7.281   5.170   9.596  0.4566 -0.4157 -0.2382
12351SOL    HW144168   7.363   5.212   9.620  0.0846  1.1249 -1.4913
12351SOL    HW244169   7.269   5.100   9.661  3.0071 -1.0410 -0.3562
12352SOL     OW44170   4.709   1.351   8.271 -0.3621 -0.2124  0.2682
12352SOL    HW144171   4.790   1.301   8.261  0.2450  0.7037  0.5207
12352SOL    HW244172   4.646   1.288   8.308 -0.7309 -1.8452 -2.7740
12353SOL     OW44173  12.834  11.614   9.752 -0.3370  0.6373  0.7267
12353SOL    HW144174  12.887  11.537   9.768 -0.6870  0.4694  1.1013
12353SOL    HW244175  12.860  11.644   9.665 -1.4436 -0.9203 -0.1866
12354SOL     OW44176   9.178   1.938  10.244  0.0028 -0.0325  0.3118
12354SOL    HW144177   9.103   1.997  10.252 -0.4099 -0.5122  0.0002
12354SOL    HW244178   9.160   1.886  10.166  0.2589 -0.7327  0.7126
12355SOL     OW44179  11.744  11.749   0.299  0.0536 -0.2900 -0.1918
12355SOL    HW144180  11.831  11.787   0.312  0.0739 -0.5004  0.2957
12355SOL    HW244181  11.695  11.771   0.378 -0.1314 -0.7242 -0.1812
12356SOL     OW44182   2.591   2.595   0.329  0.2894 -0.1651  0.4286
12356SOL    HW144183   2.522   2.661   0.320 -1.5113 -2.1182 -1.1829
12356SOL    HW244184   2.667   2.635   0.288 -1.0012  0.6133 -1.3428
12357SOL     OW44185   8.702   1.390   9.928 -0.2360 -0.0590  0.1319
12357SOL    HW144186   8.634   1.451   9.955  1.1268  1.3339  0.6101
12357SOL    HW244187   8.703   1.395   9.833 -1.2197 -0.6040  0.0792
12358SOL     OW44188   5.513   7.346   2.552 -0.4097 -0.1095 -0.3507
12358SOL    HW144189   5.606   7.354   2.572 -0.3787 -2.2991  0.7072
12358SOL    HW244190   5.510   7.326   2.458 -0.0602  2.5817 -1.0322
12359SOL     OW44191   3.668   1.674  11.026 -0.0847 -0.6752  0.3239
12359SOL    HW144192   3.645   1.753  11.075  0.0112  0.4518 -1.3881
12359SOL    HW244193   3.584   1.629  11.014 -0.2238 -0.5596  0.8177
12360SOL     OW44194   9.967  10.745   8.680 -0.0624 -0.3510  0.5085
12360SOL    HW144195   9.891  10.705   8.639  0.4595 -0.9179  0.0689
12360SOL    HW244196   9.963  10.837   8.653 -0.0558 -0.5865 -0.3392
12361SOL     OW44197  12.372   6.154   3.408 -0.3769  0.5037 -0.3681
12361SOL    HW144198  12.336   6.152   3.496 -1.9400  1.3597 -0.9537
12361SOL    HW244199  12.456   6.199   3.417  0.5020 -1.2771  0.9806
12362SOL     OW44200   2.678   9.115   1.744 -0.0545 -0.2535 -0.1449
12362SOL    HW144201   2.682   9.054   1.670  1.1995 -1.0635  0.5643
12362SOL    HW244202   2.669   9.201   1.703 -0.1580 -0.7583 -1.2180
12363SOL     OW44203   5.303   7.702   7.031  0.0509  0.2392  0.0831
12363SOL    HW144204   5.226   7.681   6.980 -0.0363 -1.8790  0.9735
12363SOL    HW244205   5.352   7.764   6.978 -1.0453 -0.2902 -1.6006
12364SOL     OW44206   6.967  12.561  11.858  0.1436  0.2987  0.2257
12364SOL    HW144207   7.022  12.640  11.856  0.7378 -0.1226 -1.4946
12364SOL    HW244208   6.885  12.590  11.899  0.1829  1.9252 -0.7683
12365SOL     OW44209   1.666   9.844   2.273  0.6039 -0.7781  0.5168
12365SOL    HW144210   1.645   9.772   2.214  1.9783 -0.3921 -0.4776
12365SOL    HW244211   1.658   9.806   2.361 -2.1624 -1.1772  0.1830
12366SOL     OW44212   8.965   5.324   7.451  0.3785 -0.1873 -0.3429
12366SOL    HW144213   8.935   5.388   7.515  1.9395  0.6025 -0.3556
12366SOL    HW244214   8.988   5.247   7.502  0.1543 -0.1038 -0.1191
12367SOL     OW44215   2.495   2.038  11.767  0.0031  0.3457 -0.3818
12367SOL    HW144216   2.590   2.044  11.771  0.0055  1.2729 -1.4870
12367SOL    HW244217   2.468   2.022  11.858  1.2281 -0.4597 -0.1295
12368SOL     OW44218   5.084   3.958   5.415 -0.0692  1.0125  0.0094
12368SOL    HW144219   5.096   3.872   5.376 -1.4602  1.0065 -0.4330
12368SOL    HW244220   5.172   3.996   5.416  0.3995 -0.0128 -0.6953
12369SOL     OW44221   0.628   0.412  11.631  0.4227 -0.0974  0.2703
12369SOL    HW144222   0.616   0.484  11.693 -0.8492  0.4888 -0.6336
12369SOL    HW244223   0.700   0.360  11.669  0.2872  0.7468  1.7527
12370SOL     OW44224   9.304   7.103   6.368 -0.2263  0.0911  0.3737
12370SOL    HW144225   9.242   7.135   6.434 -1.0211 -0.5471 -0.0368
12370SOL    HW244226   9.354   7.035   6.413 -1.9932 -1.6447 -0.1124
12371SOL     OW44227  12.137   4.379   0.473 -0.3873 -0.2130  0.1239
12371SOL    HW144228  12.189   4.458   0.493  0.4757 -0.0874 -2.1968
12371SOL    HW244229  12.051   4.397   0.509  0.0449  1.4245  0.4260
12372SOL     OW44230   2.773  12.523   7.870  0.0123 -0.1250 -0.0085
12372SOL    HW144231   2.718  12.480   7.935  0.6477 -3.3817 -1.4440
12372SOL    HW244232   2.862  12.517   7.907  0.1223 -0.1698 -0.2767
12373SOL     OW44233   9.172  11.716  12.080  0.2120  0.3921 -0.2652
12373SOL    HW144234   9.146  11.695  11.990 -0.3752  0.9400 -0.2319
12373SOL    HW244235   9.216  11.801  12.074 -0.3077  0.6894  0.0294
12374SOL     OW44236   2.016   0.306   9.813 -0.0219 -0.0603 -0.3090
12374SOL    HW144237   2.057   0.373   9.868  1.1411 -0.9701 -0.0264
12374SOL    HW244238   1.989   0.238   9.875  2.0993 -1.5098 -0.8733
12375SOL     OW44239  12.929  12.131  10.923  0.3244 -0.2225 -0.1163
12375SOL    HW144240  12.884  12.170  10.998 -0.5990  0.0947 -0.8063
12375SOL    HW244241  12.953  12.206  10.868  0.9767 -0.4497 -0.1505
12376SOL     OW44242   3.953  11.389   0.447 -0.0868  0.1495 -0.4549
12376SOL    HW144243   3.901  11.448   0.393 -3.1094 -0.7741  1.2400
12376SOL    HW244244   4.006  11.447   0.502 -1.8334  1.2942  0.0917
12377SOL     OW44245  10.639   7.580   7.418  0.2709  0.1884  0.3068
12377SOL    HW144246  10.730   7.572   7.389 -0.1096  0.4994 -1.0380
12377SOL    HW244247  10.619   7.496   7.458  0.3838 -0.8653 -1.7096
12378SOL     OW44248  12.775   1.289   0.366  0.0471  0.0445  0.1270
12378SOL    HW144249  12.848   1.314   0.424  0.5112  0.8695 -0.7875
12378SOL    HW244250  12.723   1.228   0.418  0.9396  0.0858  1.0984
12379SOL     OW44251   8.965   9.716  12.530  0.3986 -0.1592 -0.2325
12379SOL    HW144252   9.027   9.708  12.458 -0.7543 -1.1469 -1.1536
12379SOL    HW244253   8.880   9.732  12.487  0.2235  3.0316  1.0283
12380SOL     OW44254  10.657  11.877  10.493  0.0720  0.0076 -0.1313
12380SOL    HW144255  10.667  11.874  10.588  0.1702  1.1652 -0.0847
12380SOL    HW244256  10.563  11.861  10.478 -0.1888  1.0793  0.2608
12381SOL     OW44257  12.744   4.423   5.188  0.1984  0.4048  0.5458
12381SOL    HW144258  12.829   4.467   5.181 -0.7110  1.9615 -1.8034
12381SOL    HW244259  12.737   4.372   5.108 -1.5791  1.2788  0.1087
12382SOL     OW44260  10.797   9.689   5.237 -0.4854  0.0268 -0.4554
12382SOL    HW144261  10.833   9.603   5.259  0.2776  0.6356  0.7529
12382SOL    HW244262  10.873   9.741   5.210 -0.7521  0.6987  0.0597
12383SOL     OW44263   5.166   5.905   8.061  0.4735 -0.1418 -0.1017
12383SOL    HW144264   5.154   5.909   8.156 -1.3034  0.5136 -0.3116
12383SOL    HW244265   5.123   5.823   8.035  1.4728 -0.6222 -0.3005
12384SOL     OW44266  11.158   2.313  11.040  0.2630  0.5608  0.4135
12384SOL    HW144267  11.195   2.322  11.128  0.5839 -0.7260  0.4337
12384SOL    HW244268  11.153   2.218  11.025 -0.5284  0.7443 -0.6483
12385SOL     OW44269   0.376  12.441  11.128 -0.0454 -0.3206  0.2913
12385SOL    HW144270   0.363  12.459  11.035 -3.6692  0.0880  0.7177
12385SOL    HW244271   0.369  12.345  11.135 -0.7919 -0.2830  0.2033
12386SOL     OW44272   2.296  12.149   6.130 -0.0927  0.5164  0.1846
12386SOL    HW144273   2.216  12.147   6.182 -0.8461  1.0130 -0.9065
12386SOL    HW244274   2.278  12.092   6.055  0.7692  0.2262  0.1860
12387SOL     OW44275   1.837  10.331   3.415  0.9977 -0.4913  0.2687
12387SOL    HW144276   1.864  10.260   3.473  0.7094 -0.1218  0.8634
12387SOL    HW244277   1.864  10.411   3.461 -0.6737 -0.1162  0.6750
12388SOL     OW44278  12.034   2.763   8.453  0.2536  0.0714  0.1124
12388SOL    HW144279  11.963   2.811   8.410  1.7388  1.1637 -1.2175
12388SOL    HW244280  12.023   2.673   8.422  0.4603  0.5701 -1.5214
12389SOL     OW44281  10.928   3.981   5.901 -0.0640 -0.3681 -0.8918
12389SOL    HW144282  10.872   3.903   5.903 -0.6875  0.0719  0.1780
12389SOL    HW244283  10.920   4.017   5.989  1.2191  0.2130 -0.9953
12390SOL     OW44284   2.061   8.659   6.124  0.2357 -0.0269  0.0717
12390SOL    HW144285   2.053   8.731   6.186 -1.6303  0.6997 -0.9126
12390SOL    HW244286   1.993   8.597   6.151 -1.2911  0.7529 -1.7181
12391SOL     OW44287   3.013   8.716  11.634 -0.3662  0.1541 -0.9943
12391SOL    HW144288   2.928   8.758  11.647 -0.6124 -0.6761  0.3269
12391SOL    HW244289   3.075   8.769  11.684 -0.7524 -1.2121  1.0502
12392SOL     OW44290   8.145   3.094   0.985 -0.2526  0.4393  0.6592
12392SOL    HW144291   8.213   3.028   0.974 -0.0402  0.0269  3.6926
12392SOL    HW244292   8.177   3.170   0.937  1.6085 -0.2419  0.7500
12393SOL     OW44293   1.353   2.489   6.493 -0.4263  0.5989  0.1038
12393SOL    HW144294   1.371   2.542   6.571 -0.3499 -0.6519  0.9597
12393SOL    HW244295   1.414   2.415   6.500 -1.4633 -0.3160 -0.3368
12394SOL     OW44296  10.138  11.545   2.082  0.0327  0.6370  0.2130
12394SOL    HW144297  10.224  11.575   2.053 -0.1798  0.1985 -0.9114
12394SOL    HW244298  10.114  11.476   2.020 -0.8997  0.3773  0.8350
12395SOL     OW44299   3.711   7.058  11.531 -0.6130  0.3126  0.0941
12395SOL    HW144300   3.706   7.136  11.476 -1.1196  0.5695  0.4918
12395SOL    HW244301   3.641   7.001  11.500  0.2555 -0.3452 -0.7197
12396SOL     OW44302   9.723   1.093  11.391 -0.2890 -0.4199  0.3962
12396SOL    HW144303   9.739   1.101  11.297  1.0699  0.1308  0.6610
12396SOL    HW244304   9.702   1.000  11.404 -0.0460 -0.5910 -0.3818
12397SOL     OW44305   5.959   6.038   2.275 -0.2060  0.0166  0.1506
12397SOL    HW144306   5.922   6.088   2.348  1.3729  0.4817  0.6715
12397SOL    HW244307   5.942   6.093   2.198 -0.3262  0.3560  0.4166
12398SOL     OW44308  11.870   4.470  11.082 -0.4903  0.1773  0.1509
12398SOL    HW144309  11.879   4.561  11.054  0.7818  0.3285  0.9558
12398SOL    HW244310  11.935   4.460  11.151 -2.3442 -0.6482  1.8607
12399SOL     OW44311  10.398   0.707   5.915 -0.0842 -0.1521 -0.7451
12399SOL    HW144312  10.426   0.629   5.868 -1.0514  0.1242 -1.8231
12399SOL    HW244313  10.330   0.676   5.975 -0.5141 -0.1367 -1.2196
12400SOL     OW44314  12.432   6.701   8.660 -0.6972  0.5315  0.8003
12400SOL    HW144315  12.482   6.781   8.676  0.1088  0.1039  0.4590
12400SOL    HW244316  12.482   6.632   8.704  1.2399 -0.5828 -2.7534
12401SOL     OW44317   0.149   9.683   8.876  0.5843  0.1978  0.1671
12401SOL    HW144318   0.121   9.745   8.809 -0.7363  0.3128  0.7909
12401SOL    HW244319   0.108   9.601   8.850  0.1600  0.2182  0.7635
12402SOL     OW44320   3.968   7.571   6.396 -0.7211 -0.3203 -0.1933
12402SOL    HW144321   3.969   7.667   6.391 -0.4088 -0.2901  0.3620
12402SOL    HW244322   3.889   7.551   6.446 -0.0874 -0.2809  0.8559
12403SOL     OW44323  11.350  12.047   5.358  0.1566 -0.2963 -0.4955
12403SOL    HW144324  11.365  12.028   5.450  0.4390  0.3974 -0.3966
12403SOL    HW244325  11.271  12.100   5.356 -0.0289 -0.5754 -0.6828
12404SOL     OW44326   7.014   3.531   5.757 -0.0279  0.2184  0.4748
12404SOL    HW144327   6.973   3.518   5.843 -0.0755 -0.3679  0.3680
12404SOL    HW244328   6.990   3.453   5.707 -1.0602  1.1323 -0.5055
12405SOL     OW44329  12.309  10.418  11.103  0.0239 -0.0787  0.6829
12405SOL    HW144330  12.297  10.323  11.095 -0.1142 -0.0425  0.4526
12405SOL    HW244331  12.396  10.434  11.066  0.0255 -0.1084  0.6745
12406SOL     OW44332   3.264  10.647   5.595 -0.2150 -0.6458  0.4305
12406SOL    HW144333   3.240  10.612   5.509 -2.9280  1.6198  0.1461
12406SOL    HW244334   3.199  10.612   5.655 -1.0027  1.1733  0.7111
12407SOL     OW44335   7.003   7.861   3.795  0.1545  1.0338  0.5620
12407SOL    HW144336   7.090   7.900   3.784  0.3637 -0.0336 -2.2946
12407SOL    HW244337   7.017   7.768   3.782 -0.7165  0.0674  4.9963
12408SOL     OW44338   0.744   3.643   8.230  0.3000 -0.0762  0.3145
12408SOL    HW144339   0.745   3.548   8.215  2.4796 -0.7595  3.6011
12408SOL    HW244340   0.835   3.670   8.214 -0.0064  1.1905  0.6233
12409SOL     OW44341   8.584  10.606   9.975 -0.0602 -0.1717 -0.0350
12409SOL    HW144342   8.566  10.528  10.027  0.6478 -0.3120  0.0175
12409SOL    HW244343   8.680  10.614   9.977 -0.1926  1.7459  1.4841
12410SOL     OW44344   9.524   9.039   6.256  0.3682  0.4568 -0.6126
12410SOL    HW144345   9.515   9.113   6.195  0.0998 -0.0455 -1.1890
12410SOL    HW244346   9.524   8.962   6.201 -0.5154 -0.0526  0.0629
12411SOL     OW44347   5.049   6.990   3.887  0.2022  0.4045  0.5771
12411SOL    HW144348   5.041   7.016   3.979  0.7081  0.4964  0.6029
12411SOL    HW244349   5.136   6.949   3.882  1.9067  3.7902 -0.6111
12412SOL     OW44350   1.335  10.512   0.609  0.1636 -0.1583 -0.2533
12412SOL    HW144351   1.290  10.571   0.549  0.2039 -1.3107 -1.4818
12412SOL    HW244352   1.265  10.467   0.656  0.0380 -0.8476 -1.0660
12413SOL     OW44353   1.600   0.523   4.717 -0.0371  0.1035 -0.5222
12413SOL    HW144354   1.565   0.435   4.705 -1.6491  0.5021  0.7855
12413SOL    HW244355   1.688   0.510   4.751 -0.0673 -0.9986 -0.8408
12414SOL     OW44356   5.086   9.857  11.758  0.8485  0.3118  0.0992
12414SOL    HW144357   5.000   9.854  11.801  1.5362  0.3418  1.5434
12414SOL    HW244358   5.111   9.765  11.751  0.2969  0.2406 -1.2238
12415SOL     OW44359   8.263   9.966   8.111 -0.1430 -0.0134  0.6084
12415SOL    HW144360   8.317   9.952   8.188  2.3517 -3.2433 -1.4511
12415SOL    HW244361   8.218   9.882   8.098 -1.1629  0.7363 -0.9603
12416SOL     OW44362   1.302   0.996   2.208 -0.0179 -0.4854 -0.5212
12416SOL    HW144363   1.252   1.072   2.177 -0.0214 -0.6036 -0.8048
12416SOL    HW244364   1.386   1.032   2.234  0.1153 -0.4426 -1.0153
12417SOL     OW44365   7.867   6.221   5.334  0.0235  0.7052  0.2710
12417SOL    HW144366   7.827   6.136   5.322  1.4123  0.0490  0.0701
12417SOL    HW244367   7.940   6.205   5.394  1.3592  1.4047 -1.0937
12418SOL     OW44368   2.328   0.295   6.861 -0.2303  0.2179  0.0162
12418SOL    HW144369   2.336   0.214   6.910 -0.9070  0.3098  0.2929
12418SOL    HW244370   2.413   0.306   6.818  0.5102  0.3165  1.4455
12419SOL     OW44371   1.850   0.537   4.841  0.3259 -0.4194 -0.2712
12419SOL    HW144372   1.908   0.592   4.789  0.2492 -2.1302 -2.3332
12419SOL    HW244373   1.908   0.480   4.891  0.4125 -0.2637 -0.1961
12420SOL     OW44374   5.290   1.768   7.762  0.5915 -0.2228  0.2213
12420SOL    HW144375   5.217   1.712   7.787  1.6076 -2.0771 -0.7849
12420SOL    HW244376   5.290   1.838   7.828 -1.9587 -0.2416  0.3243
12421SOL     OW44377   6.567   7.314   1.115 -0.2380  0.1474 -0.1880
12421SOL    HW144378   6.553   7.348   1.203 -1.8365 -0.3012 -0.2441
12421SOL    HW244379   6.591   7.391   1.063  2.9675  0.1262  1.0170
12422SOL     OW44380  10.712  10.899  12.376 -0.2445 -0.5225  0.0160
12422SOL    HW144381  10.681  10.990  12.375 -0.1497 -0.4297  1.6280
12422SOL    HW244382  10.635  10.847  12.352 -0.1344 -0.0093 -1.5469
12423SOL     OW44383  11.803   7.903  10.460  0.0171  0.2915  0.2285
12423SOL    HW144384  11.872   7.840  10.483  0.0848  0.5745  0.8374
12423SOL    HW244385  11.823   7.980  10.515 -1.2063  0.1111  0.9498
12424SOL     OW44386  12.432  12.677   2.722  0.0919  0.2010 -0.3566
12424SOL    HW144387  12.384  12.760   2.716 -0.1745  0.1816  1.1003
12424SOL    HW244388  12.365  12.610   2.707 -0.0884  0.2074  0.3946
12425SOL     OW44389  12.914   2.364   8.854  0.5284  0.5698 -0.2842
12425SOL    HW144390  12.856   2.340   8.782  1.8913 -0.4664 -1.0923
12425SOL    HW244391  12.900   2.457   8.867 -0.2685  0.6198 -1.4021
12426SOL     OW44392   2.778  12.865   8.710 -0.2299  0.0098 -0.4041
12426SOL    HW144393   2.736  12.902   8.632  0.5183  1.8066  0.0111
12426SOL    HW244394   2.704  12.834   8.764 -0.9513  1.5872 -0.4415
12427SOL     OW44395   6.186  12.732   4.504  0.6768 -0.0824  0.4926
12427SOL    HW144396   6.240  12.743   4.426 -0.2864 -1.7208 -0.4782
12427SOL    HW244397   6.130  12.810   4.507  1.4538  0.4945  0.1596
12428SOL     OW44398  10.183   9.894   8.020 -0.7336  0.1483  0.4972
12428SOL    HW144399  10.146   9.983   8.014  1.8124  1.2040 -1.8060
12428SOL    HW244400  10.264   9.905   8.069  0.9897 -0.2994 -2.0961
12429SOL     OW44401   3.608   0.709  10.827 -0.0069  0.2364 -0.4523
12429SOL    HW144402   3.591   0.629  10.878 -2.9081  0.3015 -1.1241
12429SOL    HW244403   3.672   0.682  10.762 -0.5288 -1.4411 -0.3434
12430SOL     OW44404   7.456   6.017   3.721 -0.0624  0.3123  0.0619
12430SOL    HW144405   7.408   6.028   3.803  1.5793  1.1393  0.9776
12430SOL    HW244406   7.481   5.925   3.720 -0.0347  0.3112  0.5424
12431SOL     OW44407  12.158   7.204   4.276  0.4058  0.2456 -0.3223
12431SOL    HW144408  12.081   7.175   4.228  0.7798  1.0130 -1.4507
12431SOL    HW244409  12.216   7.128   4.277 -0.4819 -0.4418  0.8375
12432SOL     OW44410   7.789   8.954   1.509 -0.0096  0.4876  0.6102
12432SOL    HW144411   7.754   9.034   1.469  1.7971  0.5756 -0.9699
12432SOL    HW244412   7.757   8.883   1.453  1.2872  0.4701 -0.1509
12433SOL     OW44413   7.197  12.765  12.186 -0.4766  0.3992  0.0437
12433SOL    HW144414   7.201  12.670  12.198  0.3445  0.5278  0.8947
12433SOL    HW244415   7.230  12.779  12.098  0.0067 -0.0623  0.1437
12434SOL     OW44416   3.203  10.817   4.073 -0.1167 -0.3277 -0.0282
12434SOL    HW144417   3.125  10.805   4.019  0.9584 -1.0524 -1.4969
12434SOL    HW244418   3.182  10.772   4.155 -1.8598  0.9684  0.2954
12435SOL     OW44419   7.109   7.544   4.063 -0.0813  0.0811  0.0646
12435SOL    HW144420   7.111   7.620   4.122  2.0691  0.7989 -0.8371
12435SOL    HW244421   7.189   7.496   4.084 -0.3941 -0.8361 -0.7900
12436SOL     OW44422   9.628   6.799   7.415 -0.2905  0.0917  0.2143
12436SOL    HW144423   9.705   6.838   7.373 -0.4953 -0.1148 -0.3585
12436SOL    HW244424   9.592   6.740   7.349 -0.3090 -0.6490  0.8718
12437SOL     OW44425  12.402   2.899   2.166  0.1061  0.0686 -0.1664
12437SOL    HW144426  12.455   2.845   2.108 -0.2952 -1.0182  0.4410
12437SOL    HW244427  12.325   2.922   2.114 -2.3050 -4.2750  0.9731
12438SOL     OW44428   6.050   4.878  12.770 -0.0896 -0.4892  0.2895
12438SOL    HW144429   5.972   4.841  12.729  0.0281  1.3082 -1.6886
12438SOL    HW244430   6.016   4.943  12.832 -0.2058 -1.9479  1.8223
12439SOL     OW44431   9.898   4.008   5.247  0.1307  0.8540  0.0875
12439SOL    HW144432   9.866   4.059   5.172  1.9335  0.5637 -0.9371
12439SOL    HW244433   9.857   4.049   5.323 -0.0307  2.5641 -0.8696
12440SOL     OW44434   0.009   9.204   0.159  0.3139  0.1834 -0.2914
12440SOL    HW144435  -0.001   9.119   0.202  2.3898 -0.1267 -0.3132
12440SOL    HW244436   0.086   9.244   0.202 -0.8332  2.2428  0.0007
12441SOL     OW44437   7.441   5.479   2.021 -0.0126 -0.8411 -0.5682
12441SOL    HW144438   7.489   5.432   1.954  0.6375  0.5433 -1.1183
12441SOL    HW244439   7.362   5.511   1.977  0.3627 -0.0209 -0.6695
12442SOL     OW44440   3.940   7.762   8.739 -0.3555 -0.3914  0.2564
12442SOL    HW144441   3.956   7.825   8.669 -1.0006 -0.6165 -0.1004
12442SOL    HW244442   3.848   7.773   8.761 -0.8702 -2.1522 -0.7823
12443SOL     OW44443   3.316   7.713   9.846 -0.3805  0.1263  0.2268
12443SOL    HW144444   3.249   7.746   9.786 -0.5358  3.2252  1.9075
12443SOL    HW244445   3.399   7.735   9.804 -0.4399 -0.2853 -0.1164
12444SOL     OW44446  10.104   0.413   3.616  0.3963  0.0021 -0.1279
12444SOL    HW144447  10.049   0.335   3.621  0.0487  0.1907 -0.9496
12444SOL    HW244448  10.175   0.389   3.557  0.0753  0.4276 -0.6992
12445SOL     OW44449   5.449   7.624   2.629  0.2411  0.3756  0.1653
12445SOL    HW144450   5.446   7.566   2.706 -0.1125  2.5536  1.8804
12445SOL    HW244451   5.358   7.635   2.604  0.1804  1.2764  0.7378
12446SOL     OW44452   4.892   0.911   7.792 -0.0345 -0.3393 -0.2131
12446SOL    HW144453   4.859   0.836   7.842  0.5091 -0.5011 -0.0901
12446SOL    HW244454   4.855   0.899   7.704  0.4497 -1.0291 -0.3333
12447SOL     OW44455   4.082  12.932  10.712  0.7469  0.6164  0.4252
12447SOL    HW144456   4.138  12.969  10.643  0.3942  1.7866  0.7503
12447SOL    HW244457   3.995  12.928  10.673  1.2500 -3.0396 -0.7939
12448SOL     OW44458   9.281   3.935  11.067 -0.0343 -0.1393 -0.3583
12448SOL    HW144459   9.284   3.948  11.162 -3.6486  0.3988 -0.1441
12448SOL    HW244460   9.324   4.013  11.031 -1.8511  1.5824  0.9428
12449SOL     OW44461  12.924   1.341  11.568 -0.4086  0.7389  0.3402
12449SOL    HW144462  12.952   1.396  11.642 -0.4368  0.3768  0.6242
12449SOL    HW244463  12.950   1.390  11.490  0.8261  0.5139  0.5953
12450SOL     OW44464   0.132   7.958  10.213 -0.2293  0.1133 -0.2035
12450SOL    HW144465   0.218   7.922  10.235 -0.0681  1.4932  1.7319
12450SOL    HW244466   0.139   8.051  10.235 -1.6559  0.6407 -1.8085
12451SOL     OW44467   1.652  11.553   5.949 -0.6458  0.9478  0.0123
12451SOL    HW144468   1.725  11.507   5.909 -0.2284  2.4170 -1.0177
12451SOL    HW244469   1.578  11.493   5.943  0.5911 -0.8823  1.7849
12452SOL     OW44470   6.012   0.244   0.853 -0.4941  0.4095 -0.8167
12452SOL    HW144471   6.061   0.324   0.874 -0.8380  0.3692  0.1953
12452SOL    HW244472   5.926   0.258   0.893  0.5664 -2.0000  2.8102
12453SOL     OW44473   3.392  10.468   9.929  0.7744  0.0409 -0.7315
12453SOL    HW144474   3.348  10.396   9.975  0.2488  0.5669 -0.4105
12453SOL    HW244475   3.352  10.469   9.842 -0.4792  1.0691 -0.1640
12454SOL     OW44476   4.766  11.092   0.656 -0.2016 -0.1415  0.2671
12454SOL    HW144477   4.820  11.151   0.603  0.5535 -0.2027  0.9476
12454SOL    HW244478   4.701  11.057   0.595 -0.1969  0.8244 -0.3112
12455SOL     OW44479   9.762   0.627  12.145  0.1134 -0.2788 -0.1958
12455SOL    HW144480   9.812   0.642  12.225  2.7312  3.2255 -2.2112
12455SOL    HW244481   9.710   0.707  12.134 -1.5127 -1.3986 -1.2205
12456SOL     OW44482   7.023   3.302   8.102  0.2061 -0.5333  0.1297
12456SOL    HW144483   7.015   3.296   8.007  0.4808 -0.7707  0.1194
12456SOL    HW244484   7.088   3.371   8.117 -1.1490  0.7728  0.1941
12457SOL     OW44485   7.343   9.285   0.002  0.2357  0.4452 -0.2516
12457SOL    HW144486   7.352   9.191   0.014  1.1691  0.5025 -0.4115
12457SOL    HW244487   7.298   9.315   0.082  0.5052 -0.0491  0.0935
12458SOL     OW44488   2.410  12.373   7.224 -0.0715 -0.3974  0.3090
12458SOL    HW144489   2.485  12.340   7.274  0.1187  1.3699  1.2751
12458SOL    HW244490   2.349  12.299   7.221  0.9179 -1.2794  1.1315
12459SOL     OW44491  10.417   0.594   1.637  0.0485 -0.1782 -0.0321
12459SOL    HW144492  10.446   0.630   1.553 -2.9124  1.1931 -0.5841
12459SOL    HW244493  10.491   0.610   1.697  0.7876  2.3571 -1.4730
12460SOL     OW44494  11.168   5.207  12.597 -0.3280  0.1118 -0.4026
12460SOL    HW144495  11.173   5.295  12.635 -2.2618 -0.1705  0.6672
12460SOL    HW244496  11.224   5.210  12.520  3.1728  0.9914  1.9196
12461SOL     OW44497   4.387   9.725   1.152 -0.5804 -0.3267  0.2621
12461SOL    HW144498   4.303   9.772   1.152 -1.2833 -1.4640 -1.6100
12461SOL    HW244499   4.366   9.640   1.112  1.3419 -0.8921  0.3904
12462SOL     OW44500   8.413   1.786   9.039 -0.3046 -0.2945 -0.2601
12462SOL    HW144501   8.393   1.783   8.946 -0.2007 -3.6065 -0.3170
12462SOL    HW244502   8.363   1.860   9.073  0.3145  1.5309 -3.0166
12463SOL     OW44503  10.888   5.991  10.559  0.3105 -0.0759  0.1371
12463SOL    HW144504  10.928   6.005  10.645 -0.7629  0.9623  0.4987
12463SOL    HW244505  10.888   6.078  10.519 -1.4508 -0.0413  0.1221
12464SOL     OW44506   3.196   3.771   0.985 -0.2854  0.4282 -0.3238
12464SOL    HW144507   3.244   3.785   0.903  0.2296 -0.2039 -0.1338
12464SOL    HW244508   3.264   3.758   1.051 -0.6884  1.3076  0.2816
12465SOL     OW44509   1.687  12.114   1.092 -0.3701  0.5624  0.9300
12465SOL    HW144510   1.768  12.120   1.041 -0.4059 -0.4539  0.7383
12465SOL    HW244511   1.668  12.020   1.096 -1.7350  0.8149  0.6732
12466SOL     OW44512  10.369  12.388  10.226  0.3074 -0.0205 -0.0610
12466SOL    HW144513  10.388  12.412  10.316  0.8451 -2.4327  0.5415
12466SOL    HW244514  10.442  12.333  10.199 -0.1761  0.0859 -1.7517
12467SOL     OW44515   0.989   0.825   3.378  0.5028 -0.1950  0.1343
12467SOL    HW144516   1.084   0.833   3.377  0.5817 -0.0784  2.6838
12467SOL    HW244517   0.959   0.894   3.437 -1.0740 -0.8546  0.1726
12468SOL     OW44518   7.513  10.384  12.036 -0.2260 -0.0756  0.6209
12468SOL    HW144519   7.462  10.304  12.043 -1.2130  0.5606  1.0238
12468SOL    HW244520   7.604  10.355  12.037 -0.5261 -1.1002  2.2208
12469SOL     OW44521   7.149   6.307   2.639 -0.0047 -0.1665  0.0332
12469SOL    HW144522   7.135   6.220   2.676 -0.0136  0.3304  1.2735
12469SOL    HW244523   7.191   6.356   2.710 -2.1655  1.5257  0.2288
12470SOL     OW44524   2.052   1.600  11.612 -0.4324  0.3233  0.1225
12470SOL    HW144525   2.145   1.616  11.596 -0.6414  1.6945  0.1723
12470SOL    HW244526   2.031   1.526  11.555  0.7323 -0.1834  0.3024
12471SOL     OW44527   5.206   9.867   3.859 -0.3095 -0.5641  0.3498
12471SOL    HW144528   5.214   9.789   3.914 -1.5592  0.1287  1.5760
12471SOL    HW244529   5.297   9.894   3.842  0.2854 -3.3939 -1.8519
12472SOL     OW44530   8.111  12.713   8.022  0.2268 -0.5153  0.0507
12472SOL    HW144531   8.028  12.665   8.013  0.9712 -2.0620  1.0640
12472SOL    HW244532   8.087  12.794   8.067 -1.1164  0.3094 -2.0152
12473SOL     OW44533   4.050   7.241   9.088  0.5661 -0.2326 -0.3615
12473SOL    HW144534   4.108   7.297   9.035 -0.4200  2.6595  1.3643
12473SOL    HW244535   4.109   7.197   9.149  1.1941  0.8349 -0.1646
12474SOL     OW44536  10.307   9.453   8.516 -0.0311  0.1433 -0.0998
12474SOL    HW144537  10.236   9.427   8.574 -0.6391 -1.0295 -1.3103
12474SOL    HW244538  10.334   9.372   8.473  1.0522  0.8151 -0.7554
12475SOL     OW44539   8.132   2.103   7.756 -0.1065  0.6514 -0.3888
12475SOL    HW144540   8.200   2.040   7.733 -0.7635 -0.5134  0.6457
12475SOL    HW244541   8.050   2.052   7.750 -0.9333  2.0688 -1.8250
12476SOL     OW44542   0.623   0.545   7.566  0.1040 -0.6888 -0.1275
12476SOL    HW144543   0.595   0.574   7.653 -1.2974 -0.4101 -0.6391
12476SOL    HW244544   0.717   0.532   7.574  0.3216  1.1545  0.9303
12477SOL     OW44545   7.380  11.102   4.298  0.1454  0.1505  0.0617
12477SOL    HW144546   7.357  11.070   4.385  0.4985 -0.4094 -0.0499
12477SOL    HW244547   7.445  11.171   4.314  0.0902  0.1591  0.2498
12478SOL     OW44548  11.405  12.070   1.393  0.1860  0.1721 -0.0351
12478SOL    HW144549  11.399  12.164   1.374  1.2074  0.3770  0.5724
12478SOL    HW244550  11.319  12.035   1.369 -0.6031  1.4508  0.7839
12479SOL     OW44551   5.688   0.413   1.771 -0.6697  0.0071  0.0007
12479SOL    HW144552   5.657   0.337   1.722 -1.5114  1.3323 -1.6369
12479SOL    HW244553   5.696   0.482   1.705  0.9869  1.1000  1.2559
12480SOL     OW44554   6.147   8.747   1.196 -0.6998  0.1248  0.3549
12480SOL    HW144555   6.138   8.653   1.183 -1.6929  0.1017  1.0955
12480SOL    HW244556   6.241   8.760   1.213 -0.4205 -0.6124 -0.5095
12481SOL     OW44557   7.648  10.721   8.761 -0.2372 -0.2068  0.3485
12481SOL    HW144558   7.678  10.799   8.714 -1.2341  1.4267  2.2750
12481SOL    HW244559   7.554  10.717   8.744 -0.0226 -1.7653 -0.7205
12482SOL     OW44560   5.033   0.052   3.951 -0.4021 -0.2456  0.4236
12482SOL    HW144561   4.975   0.095   4.013 -0.6765 -0.3435  0.2351
12482SOL    HW244562   5.080   0.124   3.908 -0.6915 -0.1453  0.2731
12483SOL     OW44563   4.091   0.081   5.426  0.0921 -0.7909 -0.2011
12483SOL    HW144564   4.135   0.143   5.368  0.5561 -0.9127  0.0217
12483SOL    HW244565   4.146   0.076   5.503 -0.0627 -1.3063 -0.1177
12484SOL     OW44566   9.980   2.630  12.649 -0.3045  0.2043  1.0266
12484SOL    HW144567  10.022   2.587  12.724 -0.7517 -1.1566  0.5384
12484SOL    HW244568  10.028   2.599  12.573  1.4639  3.1686  0.7986
12485SOL     OW44569  12.901   8.017  11.619  0.0879 -0.2572  0.0341
12485SOL    HW144570  12.993   8.041  11.608  0.1567  0.1660  1.3953
12485SOL    HW244571  12.877   7.975  11.536  1.7748 -1.2554  0.0189
12486SOL     OW44572   3.425   5.077  11.732  0.2544  0.8070 -0.7867
12486SOL    HW144573   3.371   4.999  11.744  0.7695  0.5910  0.1611
12486SOL    HW244574   3.366   5.150  11.752  0.0997  0.6120 -0.5303
12487SOL     OW44575   7.941   6.612   6.174  0.7916  0.4579 -0.7139
12487SOL    HW144576   7.961   6.573   6.259  1.7174  0.8033 -0.7597
12487SOL    HW244577   7.863   6.666   6.190  0.2546 -0.4067 -0.3641
12488SOL     OW44578   9.443   1.813   7.413 -0.6123  0.2079  0.0551
12488SOL    HW144579   9.349   1.815   7.394 -0.6972 -1.0667  0.2452
12488SOL    HW244580   9.480   1.878   7.354 -1.6555  0.9919  0.2320
12489SOL     OW44581   9.090   6.494   4.179  0.2704  0.2913  0.2996
12489SOL    HW144582   9.081   6.487   4.084  0.4341 -1.1003  0.3663
12489SOL    HW244583   9.020   6.554   4.206  0.0172  0.4410 -0.6552
12490SOL     OW44584  12.610  10.215  12.296 -0.3916  0.1722 -0.2121
12490SOL    HW144585  12.604  10.196  12.202  0.1330  0.4515 -0.3094
12490SOL    HW244586  12.596  10.131  12.339 -0.7192  0.0557 -0.5370
12491SOL     OW44587   5.611   6.272  10.882 -0.5083 -0.2760  0.5356
12491SOL    HW144588   5.704   6.287  10.864 -0.5878 -0.9126 -0.4991
12491SOL    HW244589   5.568   6.285  10.798 -1.3449 -0.1048  0.9823
12492SOL     OW44590   1.950   0.940   7.597 -0.2083 -0.0268 -0.4366
12492SOL    HW144591   1.991   0.883   7.532 -0.3237 -0.3928 -0.1950
12492SOL    HW244592   1.877   0.888   7.631 -1.0885  0.7361 -1.1018
12493SOL     OW44593   0.742   8.159   4.770  0.1260  0.1528  0.0861
12493SOL    HW144594   0.657   8.196   4.744 -0.5579 -0.8042  0.8747
12493SOL    HW244595   0.802   8.187   4.701 -0.5963  1.7268  0.0401
12494SOL     OW44596   0.389   5.230  10.027  0.1935  0.1418 -0.2106
12494SOL    HW144597   0.456   5.266   9.969  0.0581 -0.3995 -0.7068
12494SOL    HW244598   0.326   5.188   9.968  0.4219 -1.0263  0.3622
12495SOL     OW44599   0.814   8.926   3.417 -0.5924  0.0785  0.5966
12495SOL    HW144600   0.787   8.908   3.507  0.4873 -2.4598  0.5200
12495SOL    HW244601   0.805   8.842   3.372  1.9556  0.4244 -0.7934
12496SOL     OW44602  11.949   0.328   6.547 -0.6419  0.0037 -0.4897
12496SOL    HW144603  11.868   0.373   6.568  0.6758  2.3127  0.0245
12496SOL    HW244604  12.015   0.372   6.600  0.9289 -1.9522 -0.7065
12497SOL     OW44605   1.835   3.675   9.529  0.5509  0.5047  0.1440
12497SOL    HW144606   1.930   3.668   9.522  0.4422 -0.7338 -0.3151
12497SOL    HW244607   1.802   3.598   9.483 -0.7107  1.4464 -0.6058
12498SOL     OW44608   7.017   6.582   7.522  0.5422  0.0640  0.3409
12498SOL    HW144609   7.018   6.671   7.488  0.2988  0.1959  0.6636
12498SOL    HW244610   7.027   6.592   7.617 -0.7967 -0.1559  0.5318
12499SOL     OW44611   4.635  11.737   4.643 -0.3396 -0.0899  0.1262
12499SOL    HW144612   4.656  11.794   4.717 -0.2428 -2.3165  1.9289
12499SOL    HW244613   4.709  11.676   4.638 -1.9374 -2.1665  0.5063
12500SOL     OW44614   6.231   5.702   6.866  0.2443 -0.4642 -0.6355
12500SOL    HW144615   6.195   5.649   6.937 -0.7952 -0.6636 -1.2913
12500SOL    HW244616   6.197   5.790   6.881  1.3981 -0.1054  0.0491
12501SOL     OW44617   6.635   1.553   2.801  0.1742 -0.2248  0.2248
12501SOL    HW144618   6.696   1.497   2.849 -0.9103 -0.6537  1.1508
12501SOL    HW244619   6.644   1.639   2.843 -1.3127 -0.7694  1.7829
12502SOL     OW44620   6.634   1.568   3.922  0.1762  0.4649  0.3670
12502SOL    HW144621   6.639   1.638   3.857  1.4085 -0.7370 -0.9224
12502SOL    HW244622   6.548   1.528   3.909  0.5672 -0.0147 -0.8272
12503SOL     OW44623   6.757  11.040   4.549 -0.6313  0.9058 -0.0177
12503SOL    HW144624   6.847  11.070   4.536 -1.0761  2.4674  0.2002
12503SOL    HW244625   6.705  11.096   4.491 -1.3131 -1.2701 -1.6094
12504SOL     OW44626  12.221  12.026   1.824 -0.2248  0.0604  0.4951
12504SOL    HW144627  12.246  11.965   1.893 -0.3702 -0.5820 -0.0073
12504SOL    HW244628  12.293  12.090   1.821  2.3901 -2.6732 -2.0424
12505SOL     OW44629   9.156   1.243  11.348  0.4422  0.2783  0.8219
12505SOL    HW144630   9.113   1.321  11.313  1.8798  2.0973  2.8816
12505SOL    HW244631   9.092   1.206  11.410 -1.0523 -1.4580 -1.5862
12506SOL     OW44632   4.087   1.428  11.317 -0.9098 -0.9292  0.0949
12506SOL    HW144633   4.054   1.423  11.406 -0.0949 -1.6025  0.3754
12506SOL    HW244634   4.009   1.439  11.263 -1.3165  0.7482  0.9719
12507SOL     OW44635   8.838  12.495   6.638 -0.2650  0.8564  0.0614
12507SOL    HW144636   8.879  12.457   6.716  0.1512  1.2876  0.0544
12507SOL    HW244637   8.744  12.490   6.656 -0.3435 -1.6762 -0.6208
12508SOL     OW44638  11.755   5.617   7.899 -0.2395  0.0071  0.6096
12508SOL    HW144639  11.816   5.676   7.943 -1.8236  1.3753  1.1142
12508SOL    HW244640  11.761   5.640   7.807 -1.0457  1.2330  0.8317
12509SOL     OW44641   9.471   8.487   7.393  0.1720 -0.1908 -0.8901
12509SOL    HW144642   9.397   8.427   7.384 -0.6494  0.4233  1.1297
12509SOL    HW244643   9.548   8.432   7.380 -0.6074 -0.9732 -2.4015
12510SOL     OW44644   6.763   6.085  12.618 -0.1777  0.5227 -0.2821
12510SOL    HW144645   6.760   5.992  12.642 -0.6675  0.7883  0.7413
12510SOL    HW244646   6.845   6.094  12.570 -0.0516 -0.4151 -0.2624
12511SOL     OW44647  10.878   1.079  11.543  0.2988 -0.3456 -0.3743
12511SOL    HW144648  10.798   1.065  11.492 -0.5199 -0.9542  1.0415
12511SOL    HW244649  10.949   1.057  11.482 -0.5207  1.1257 -1.9684
12512SOL     OW44650   5.290   6.822   9.310  0.4983 -0.4386 -0.0527
12512SOL    HW144651   5.198   6.797   9.312  0.0941  0.6720 -2.0034
12512SOL    HW244652   5.336   6.742   9.287 -0.0204 -0.9214  0.5689
12513SOL     OW44653  11.646   9.915  11.176  0.6525 -0.2949 -0.1813
12513SOL    HW144654  11.575   9.970  11.142 -0.0995 -0.9770  0.2711
12513SOL    HW244655  11.602   9.846  11.225  1.6745  0.1609  1.4468
12514SOL     OW44656  12.677   3.153   8.293  0.5007 -0.3810  0.5337
12514SOL    HW144657  12.657   3.073   8.341 -0.6349 -0.5214 -0.1275
12514SOL    HW244658  12.640   3.224   8.346  0.1282 -0.4451  0.3643
12515SOL     OW44659  11.615   3.309   6.999  0.1331  0.5213 -0.6919
12515SOL    HW144660  11.581   3.314   7.088 -1.3474 -4.0786 -0.7355
12515SOL    HW244661  11.553   3.361   6.947 -0.5754  1.0152  0.5905
12516SOL     OW44662  12.059   1.612   7.833  0.3507 -0.4938 -0.0680
12516SOL    HW144663  12.143   1.574   7.808  0.0514 -0.6075 -0.9099
12516SOL    HW244664  11.994   1.546   7.809 -0.1520  0.3952 -1.2613
12517SOL     OW44665   3.373   5.644   3.737  0.4728 -0.1871  0.3282
12517SOL    HW144666   3.462   5.664   3.768  1.0585  0.8904 -1.8572
12517SOL    HW244667   3.322   5.722   3.757  0.1551 -0.5492  0.9799
12518SOL     OW44668   5.600   8.735  11.827  0.4286 -0.2442 -0.3226
12518SOL    HW144669   5.673   8.776  11.874  0.2307  2.7344 -2.3035
12518SOL    HW244670   5.641   8.687  11.755  0.5413 -1.4308  0.5113
12519SOL     OW44671  10.967   9.473   7.986 -0.1601 -0.0950 -0.2443
12519SOL    HW144672  10.962   9.567   8.002  2.0641 -0.2028  1.5317
12519SOL    HW244673  10.996   9.465   7.896  0.7649  0.9775 -0.0627
12520SOL     OW44674   0.861   7.653   6.698 -0.1435 -0.0516  0.1048
12520SOL    HW144675   0.888   7.619   6.784 -2.3357  0.2325  0.9671
12520SOL    HW244676   0.890   7.744   6.699  1.3436 -0.4958 -0.1853
12521SOL     OW44677   9.290   3.946   9.198 -0.1558 -0.4163  0.0359
12521SOL    HW144678   9.355   3.976   9.262  0.9859 -2.0094 -0.3094
12521SOL    HW244679   9.230   4.020   9.188  0.3179  0.3113  2.0440
12522SOL     OW44680   9.638   3.479   1.493 -0.1142 -0.4456 -0.0418
12522SOL    HW144681   9.577   3.548   1.519  0.5899  0.9503 -1.9321
12522SOL    HW244682   9.716   3.495   1.546  0.8261  1.5866 -1.8759
12523SOL     OW44683   4.439  12.840   7.006  0.6643 -0.0205 -0.1097
12523SOL    HW144684   4.483  12.783   6.942  0.2922  0.2404 -0.6021
12523SOL    HW244685   4.360  12.871   6.961 -0.8345 -1.6463  1.2456
12524SOL     OW44686  11.109   9.410   6.561  0.5569  0.3760  0.1532
12524SOL    HW144687  11.117   9.475   6.491  0.9240  1.3249  1.0476
12524SOL    HW244688  11.177   9.345   6.541  0.3178  0.3609 -0.6419
12525SOL     OW44689  11.867   3.162  12.441 -0.5866 -0.5555 -0.4940
12525SOL    HW144690  11.830   3.132  12.524  1.5213 -0.7746  0.4488
12525SOL    HW244691  11.832   3.101  12.376 -0.0397 -2.2361  0.7013
12526SOL     OW44692   9.901  11.093   2.812  0.2375 -0.6380  0.3042
12526SOL    HW144693   9.839  11.079   2.740 -0.4950 -0.6597  0.9303
12526SOL    HW244694   9.934  11.005   2.832 -1.1846 -0.9599  1.4111
12527SOL     OW44695   7.894   9.275   0.165 -0.0412 -0.1455 -0.6252
12527SOL    HW144696   7.972   9.288   0.220  0.3294  0.2487 -1.2361
12527SOL    HW244697   7.824   9.319   0.213  0.1562 -0.3041 -0.1826
12528SOL     OW44698   0.979   1.111   1.921  0.2055  0.6766 -0.2447
12528SOL    HW144699   1.068   1.085   1.896 -0.0272  0.9115 -1.3934
12528SOL    HW244700   0.932   1.028   1.929  1.0498  0.3647  2.7213
12529SOL     OW44701   4.026   4.432  12.279 -0.1421 -0.2841 -0.3252
12529SOL    HW144702   3.944   4.427  12.231  0.1072 -0.9322 -0.6944
12529SOL    HW244703   4.010   4.498  12.346 -1.1808 -0.8538  0.0193
12530SOL     OW44704  11.336   5.534   9.833 -0.1163  0.2757  0.1829
12530SOL    HW144705  11.330   5.519   9.927  0.1255 -1.5321 -0.0396
12530SOL    HW244706  11.430   5.545   9.817 -0.3102  2.6595  0.3787
12531SOL     OW44707   0.132   1.557  10.116  0.3569  0.7100 -0.5831
12531SOL    HW144708   0.226   1.553  10.101  0.7075  1.3654  1.1477
12531SOL    HW244709   0.100   1.470  10.096  1.5312  0.1442 -0.0751
12532SOL     OW44710   6.721   6.739   1.298 -0.1660 -0.4028 -0.2002
12532SOL    HW144711   6.636   6.744   1.341  0.0685 -0.0604  0.2362
12532SOL    HW244712   6.771   6.811   1.337  0.4576 -0.8614 -0.1402
12533SOL     OW44713   4.719  10.078   8.919  0.2329 -0.5551 -0.3025
12533SOL    HW144714   4.660  10.007   8.945 -1.2217  0.3597 -0.9487
12533SOL    HW244715   4.715  10.078   8.823 -0.1441  0.6544 -0.3014
12534SOL     OW44716   9.688  12.455   4.434  0.9682 -0.1338 -0.1727
12534SOL    HW144717   9.758  12.417   4.486  1.0788 -0.1308 -0.3181
12534SOL    HW244718   9.700  12.418   4.347  0.3496 -0.7057 -0.0281
12535SOL     OW44719   9.371   6.979   7.147 -0.0133 -0.3100  0.1914
12535SOL    HW144720   9.279   6.979   7.118 -0.3109 -0.8061  1.0955
12535SOL    HW244721   9.366   6.982   7.242  0.9549  1.6701  0.2288
12536SOL     OW44722   1.448   2.639   6.709 -0.1482 -0.0232 -0.5030
12536SOL    HW144723   1.413   2.638   6.798  0.7828 -0.2909 -0.1228
12536SOL    HW244724   1.543   2.642   6.721 -0.0117  3.0476 -1.4970
12537SOL     OW44725   8.877   1.266   7.277  0.8886  0.1303 -0.4123
12537SOL    HW144726   8.787   1.245   7.302  1.5834 -0.6293  1.6435
12537SOL    HW244727   8.879   1.254   7.182 -1.4257  1.2263 -0.6757
12538SOL     OW44728   7.366   1.666   8.299 -0.1444 -0.1741 -0.0151
12538SOL    HW144729   7.391   1.611   8.373  2.0736  1.6853  0.7204
12538SOL    HW244730   7.409   1.626   8.224  0.0055 -0.4321  0.2050
12539SOL     OW44731   8.944   3.709   9.739 -0.0457  0.0937 -0.1010
12539SOL    HW144732   8.986   3.779   9.789  1.1884 -0.2417 -0.6282
12539SOL    HW244733   8.937   3.636   9.800 -0.1976  0.2675  0.0915
12540SOL     OW44734   5.909   2.875  10.798 -0.5941 -0.2999 -0.6437
12540SOL    HW144735   5.823   2.845  10.770 -0.1760 -1.3790 -0.7840
12540SOL    HW244736   5.897   2.900  10.890 -1.4936  1.3841 -1.1809
12541SOL     OW44737  11.634   2.024   7.379  0.4393 -0.3780 -0.2607
12541SOL    HW144738  11.729   2.019   7.368  0.2821 -1.5998 -1.4206
12541SOL    HW244739  11.602   1.939   7.348 -0.8893 -0.7910  2.0003
12542SOL     OW44740   9.935   2.569   2.334  0.2885 -0.5484 -1.1336
12542SOL    HW144741   9.916   2.478   2.355 -0.5378 -0.5876 -1.9685
12542SOL    HW244742  10.024   2.583   2.365  0.0970 -1.3664 -0.1597
12543SOL     OW44743  12.073   1.416   9.755 -0.1732 -0.0220 -0.0328
12543SOL    HW144744  12.074   1.400   9.661 -3.1538 -0.9079 -0.0345
12543SOL    HW244745  12.048   1.508   9.764 -1.4286 -0.3257 -0.1746
12544SOL     OW44746   6.004   6.217   2.080  0.2940 -0.3756 -0.1229
12544SOL    HW144747   6.065   6.154   2.043  1.9469 -0.1840  2.0565
12544SOL    HW244748   6.058   6.293   2.103 -1.0473  0.4688  0.3640
12545SOL     OW44749   8.302   3.433  10.567  0.0685 -0.0597 -0.3784
12545SOL    HW144750   8.295   3.526  10.548  1.0244 -0.1194 -1.1260
12545SOL    HW244751   8.382   3.405  10.521 -0.2189 -1.2493 -0.1973
12546SOL     OW44752   4.220  10.060  11.790  0.2769  0.0907 -0.2781
12546SOL    HW144753   4.274   9.983  11.805 -0.4513  0.0440  2.6093
12546SOL    HW244754   4.270  10.113  11.727  1.8041 -1.6833 -0.6384
12547SOL     OW44755   3.169   4.116   4.268  0.0895  0.9020  0.0410
12547SOL    HW144756   3.184   4.177   4.341 -1.3824  0.0459  1.1356
12547SOL    HW244757   3.118   4.166   4.205 -1.6792  0.6924  1.2257
12548SOL     OW44758   0.973   4.961  11.779 -0.7451  0.4591 -0.2758
12548SOL    HW144759   0.907   4.899  11.746 -0.6202  0.4017 -0.4180
12548SOL    HW244760   0.922   5.034  11.812 -0.9506 -0.1939  0.9136
12549SOL     OW44761  11.615   8.237   3.318 -1.0485  0.2714  0.3767
12549SOL    HW144762  11.599   8.299   3.247 -5.0247 -0.4744  0.3683
12549SOL    HW244763  11.623   8.152   3.274  0.4968  0.2652  0.6304
12550SOL     OW44764   4.838   2.614   3.294  0.2083  0.7418 -0.3410
12550SOL    HW144765   4.842   2.692   3.350 -0.6706  2.2258 -2.2284
12550SOL    HW244766   4.930   2.591   3.279  0.4690  1.0545  0.7036
12551SOL     OW44767   9.558  11.255   3.546 -0.2825  0.4926  0.6974
12551SOL    HW144768   9.463  11.263   3.558 -0.2499 -0.4297  1.7439
12551SOL    HW244769   9.571  11.165   3.516  0.1770  0.9960 -0.7004
12552SOL     OW44770   0.016   3.605  11.140 -0.0461 -0.1714 -0.0388
12552SOL    HW144771   0.103   3.565  11.147 -1.1745 -3.1113 -1.2345
12552SOL    HW244772  -0.007   3.596  11.047 -2.1506 -0.7473  0.4899
12553SOL     OW44773   9.185   5.341   2.071 -0.2974 -0.3237 -0.1606
12553SOL    HW144774   9.190   5.288   2.151  1.7951 -1.5180 -1.0147
12553SOL    HW244775   9.140   5.285   2.008 -0.4903 -0.0185 -0.2965
12554SOL     OW44776   7.572   6.135   6.230  0.2812 -0.4314 -0.2677
12554SOL    HW144777   7.596   6.046   6.206 -0.5194 -0.8544  0.4707
12554SOL    HW244778   7.591   6.142   6.323 -1.9919 -0.6651  0.2665
12555SOL     OW44779   1.542   9.587   5.941  0.0309  0.8204 -0.3559
12555SOL    HW144780   1.589   9.658   5.898 -0.3963  2.9267  2.3681
12555SOL    HW244781   1.513   9.624   6.024 -0.5655 -2.4571  1.0694
12556SOL     OW44782   3.041   0.544   1.364 -0.7829  0.2894 -0.4252
12556SOL    HW144783   3.043   0.452   1.336  1.8454 -0.8822  2.9602
12556SOL    HW244784   3.125   0.579   1.335 -0.4751  0.7033  0.9259
12557SOL     OW44785   8.631   8.744  11.150  0.0167  0.2620 -0.2920
12557SOL    HW144786   8.709   8.708  11.191  0.7588  0.8076 -1.1915
12557SOL    HW244787   8.567   8.673  11.153  1.0984 -0.7739 -1.0912
12558SOL     OW44788   3.080   1.147   5.633  0.1943  0.1338  0.2590
12558SOL    HW144789   3.052   1.201   5.559  2.7139  2.6161  0.9241
12558SOL    HW244790   3.005   1.148   5.693  0.5162  4.3076  0.8797
12559SOL     OW44791   9.887  12.764   3.018 -0.6673  0.1192 -0.5366
12559SOL    HW144792   9.975  12.726   3.016  0.4951  2.6292 -0.7682
12559SOL    HW244793   9.883  12.810   3.102 -2.4176 -1.2735  0.2062
12560SOL     OW44794  12.771   2.708   6.410  0.3173 -0.0498  0.3617
12560SOL    HW144795  12.704   2.774   6.395 -0.6913 -1.2118 -0.3388
12560SOL    HW244796  12.846   2.758   6.443 -0.7260  1.3224  0.7466
12561SOL     OW44797   3.822   2.554   4.002  0.5636 -0.3803  0.2351
12561SOL    HW144798   3.889   2.620   4.021  0.9677 -0.8636  0.5038
12561SOL    HW244799   3.808   2.509   4.085  1.4720 -1.7053 -0.2880
12562SOL     OW44800   4.897   1.542   4.715 -0.1953 -0.0419 -0.7550
12562SOL    HW144801   4.880   1.526   4.622 -1.0467 -3.4149 -0.1840
12562SOL    HW244802   4.811   1.564   4.751 -0.1570 -0.1985 -0.5625
12563SOL     OW44803   2.807   8.742   8.996 -0.4211  0.2114  0.3129
12563SOL    HW144804   2.890   8.779   9.026 -0.3657  0.2045  0.1713
12563SOL    HW244805   2.819   8.731   8.901  0.1122 -1.5585  0.5607
12564SOL     OW44806   0.503   0.325   4.775 -0.1984  0.2970  0.3256
12564SOL    HW144807   0.483   0.313   4.682  1.5371  2.0999 -0.3665
12564SOL    HW244808   0.554   0.406   4.778  1.3027 -0.6274  2.6391
12565SOL     OW44809   2.722  12.195   6.002 -0.0969 -0.3299 -0.0228
12565SOL    HW144810   2.741  12.193   6.096 -0.1270 -0.1552 -0.0122
12565SOL    HW244811   2.790  12.250   5.964  0.1593 -0.7390 -0.1643
12566SOL     OW44812   6.026   3.514   1.881  0.0189 -0.3156 -0.3611
12566SOL    HW144813   6.035   3.441   1.820  0.7970 -1.3197  0.8981
12566SOL    HW244814   5.964   3.574   1.838  1.6820 -0.2072 -2.8247
12567SOL     OW44815   0.643   3.191   2.958  0.0597 -0.0445 -0.1255
12567SOL    HW144816   0.693   3.213   2.880  0.3191 -0.5240 -0.0999
12567SOL    HW244817   0.657   3.265   3.018 -1.0891  0.8893 -0.9534
12568SOL     OW44818   5.524   4.847   1.420  0.4130 -0.7032  0.4050
12568SOL    HW144819   5.619   4.836   1.424  0.3613 -0.9997  0.9958
12568SOL    HW244820   5.502   4.901   1.496  0.2768  0.7719 -0.6362
12569SOL     OW44821   3.833  12.493   9.076  0.1571 -0.0268 -0.2540
12569SOL    HW144822   3.873  12.434   9.013 -0.2628  1.1021 -1.6451
12569SOL    HW244823   3.901  12.556   9.096  0.5254 -0.8092  1.0310
12570SOL     OW44824   1.165  12.528  11.946 -0.1088 -0.3697 -0.6757
12570SOL    HW144825   1.255  12.498  11.940 -0.2973 -0.7177 -2.2572
12570SOL    HW244826   1.118  12.475  11.882 -1.6385 -0.8460  0.7771
12571SOL     OW44827  10.647  10.448   8.839  0.2572  0.2168 -0.0430
12571SOL    HW144828  10.635  10.543   8.840 -1.1386  0.2427 -3.8191
12571SOL    HW244829  10.686  10.429   8.753 -0.5469 -2.7046  0.1189
12572SOL     OW44830  10.485   9.507   7.615  0.7088  0.5071  0.2508
12572SOL    HW144831  10.546   9.446   7.656  0.8929  0.2594 -0.3805
12572SOL    HW244832  10.524   9.593   7.631 -1.1219  0.8274  3.9095
12573SOL     OW44833   5.324   2.012   1.641  0.0008 -0.4419 -0.2813
12573SOL    HW144834   5.352   1.983   1.554 -2.8258 -0.0023 -1.4362
12573SOL    HW244835   5.289   2.100   1.627 -0.2384 -0.2503  1.3793
12574SOL     OW44836   4.466   2.513   7.296 -0.3366 -0.8253  0.4864
12574SOL    HW144837   4.385   2.540   7.340 -0.1694 -1.3964  1.1541
12574SOL    HW244838   4.438   2.490   7.208 -0.8213 -0.5310  0.5570
12575SOL     OW44839   0.111   3.415   0.328 -0.2201 -1.2656  0.2360
12575SOL    HW144840   0.085   3.327   0.301 -1.9572 -0.5344 -0.5865
12575SOL    HW244841   0.196   3.403   0.371  0.3293 -3.1076 -1.2810
12576SOL     OW44842   4.794  12.104  10.062 -0.1525  0.0798 -0.2220
12576SOL    HW144843   4.756  12.189  10.085 -1.1826  0.1025 -1.8871
12576SOL    HW244844   4.740  12.041  10.110 -1.9441  0.1560 -2.0308
12577SOL     OW44845  12.010   5.088   4.534 -0.2876  0.4348  0.4088
12577SOL    HW144846  12.005   5.046   4.620  1.6071 -1.8710 -0.5077
12577SOL    HW244847  11.924   5.072   4.495  0.2024 -2.3597  0.2841
12578SOL     OW44848   0.971   2.554   7.337  0.4298 -0.0697  0.7235
12578SOL    HW144849   0.974   2.491   7.266 -0.6988 -0.9997  1.4593
12578SOL    HW244850   1.059   2.554   7.374  0.5955 -0.7500  0.3320
12579SOL     OW44851   9.015   7.258   1.685 -0.0565  0.1593 -0.0684
12579SOL    HW144852   9.102   7.282   1.715 -0.2563  0.9433 -0.0951
12579SOL    HW244853   8.971   7.224   1.763 -0.3317  1.5031  0.3899
12580SOL     OW44854   4.928   2.978  10.037  0.2184  0.4204  0.2133
12580SOL    HW144855   4.992   2.987  10.107 -2.3194  2.2354  2.5218
12580SOL    HW244856   4.929   3.064   9.993  0.1500  0.0774 -0.4763
12581SOL     OW44857   3.439   6.760   2.088 -0.0116  0.4600 -0.2595
12581SOL    HW144858   3.392   6.753   2.170  0.0122 -2.3066 -0.3644
12581SOL    HW244859   3.389   6.821   2.035 -2.1511 -0.5567  0.4998
12582SOL     OW44860   5.963  11.840   1.149  0.0462  0.1920 -0.1619
12582SOL    HW144861   5.903  11.857   1.077  0.4216  2.1010 -0.0773
12582SOL    HW244862   5.933  11.899   1.219 -0.1464 -1.4173  1.1815
12583SOL     OW44863   9.693   2.847   1.857 -0.3798  0.3307 -0.1156
12583SOL    HW144864   9.612   2.796   1.851 -1.0787  1.2635  0.8672
12583SOL    HW244865   9.710   2.855   1.951  0.2047  1.1286 -0.2729
12584SOL     OW44866  11.486   1.054   0.633  0.1941 -0.4348 -0.0119
12584SOL    HW144867  11.410   1.103   0.602  1.7022  1.6668 -0.6339
12584SOL    HW244868  11.471   1.043   0.727 -1.9431 -2.1952 -0.4841
12585SOL     OW44869  11.961   8.999   2.510 -0.1001 -0.2746 -0.4081
12585SOL    HW144870  11.996   8.956   2.588 -1.0868  1.0887  0.8386
12585SOL    HW244871  12.031   8.991   2.445  0.9094 -1.0944  0.7390
12586SOL     OW44872   2.879   7.324   6.672 -0.1581 -0.2845  0.4462
12586SOL    HW144873   2.943   7.292   6.608 -0.5385  1.7690 -1.0468
12586SOL    HW244874   2.883   7.260   6.744  3.4397 -0.3411  0.3732
12587SOL     OW44875   1.568  11.882   8.303  0.4333 -0.3896  0.6011
12587SOL    HW144876   1.559  11.797   8.348 -0.7316  0.9815  3.1911
12587SOL    HW244877   1.597  11.942   8.372  0.0431  1.5874 -0.8775
12588SOL     OW44878   3.054   9.581   5.115 -0.0487  0.1186  0.3941
12588SOL    HW144879   2.973   9.537   5.142  0.0496 -0.5612 -0.3947
12588SOL    HW244880   3.073   9.642   5.187 -0.9834 -0.0743  0.8194
12589SOL     OW44881   1.112   7.097   4.800 -0.2100 -0.4920 -0.0078
12589SOL    HW144882   1.112   7.176   4.746  1.5908  0.0047  0.6465
12589SOL    HW244883   1.096   7.026   4.738 -0.1261  0.2258 -0.8791
12590SOL     OW44884   2.742   7.331  12.608 -0.1896  0.2482 -0.0343
12590SOL    HW144885   2.744   7.406  12.549 -2.5229  0.1313 -0.3398
12590SOL    HW244886   2.834   7.309  12.621  0.4513  0.5476 -3.2632
12591SOL     OW44887   3.725   3.125   4.238 -0.3867  0.2018  0.5025
12591SOL    HW144888   3.815   3.156   4.249 -0.9157  1.7130  0.7271
12591SOL    HW244889   3.727   3.073   4.158  0.9108 -0.7139  1.0910
12592SOL     OW44890   4.913  11.939   2.516 -0.0698 -0.7436 -0.0818
12592SOL    HW144891   4.824  11.917   2.489  0.2916 -2.6787  0.1525
12592SOL    HW244892   4.969  11.896   2.451  0.7115 -0.9737  0.7296
12593SOL     OW44893   6.818   8.679   5.540 -0.5290  0.0173  0.0273
12593SOL    HW144894   6.773   8.700   5.458 -1.6411  0.3372  0.7068
12593SOL    HW244895   6.824   8.584   5.540 -0.6291  0.0085 -0.3618
12594SOL     OW44896  10.625   3.621   0.305  0.2380  0.2185  0.1921
12594SOL    HW144897  10.579   3.681   0.364 -0.1325 -0.9881  1.1743
12594SOL    HW244898  10.705   3.667   0.282 -0.2786  1.3078  0.4871
12595SOL     OW44899   0.176   0.456   5.229 -0.2949 -0.2605 -0.4524
12595SOL    HW144900   0.256   0.404   5.218 -0.5856 -0.9309  0.4827
12595SOL    HW244901   0.176   0.516   5.154  0.4379 -1.0938 -1.1467
12596SOL     OW44902   5.876   5.660  10.784  0.4598  0.1758  0.0607
12596SOL    HW144903   5.865   5.755  10.778  0.4356  0.1382 -0.5638
12596SOL    HW244904   5.846   5.638  10.872 -0.4459  0.6344 -0.1210
12597SOL     OW44905   1.413   0.489   6.139 -0.5098  0.1432  0.0599
12597SOL    HW144906   1.459   0.566   6.172 -2.9278  0.8110  2.2364
12597SOL    HW244907   1.331   0.522   6.102 -1.3386 -1.2798  0.4964
12598SOL     OW44908   4.785   7.574   9.964 -0.4061 -0.0068 -0.1637
12598SOL    HW144909   4.714   7.511   9.971 -0.8691  0.5899  0.7530
12598SOL    HW244910   4.741   7.659   9.963  0.2577  0.3419 -0.4093
12599SOL     OW44911   9.612   9.011   5.815  0.5516  0.8187  0.3952
12599SOL    HW144912   9.697   9.049   5.794  0.4665  0.9187  0.2316
12599SOL    HW244913   9.585   8.967   5.735  0.4631  0.7594  0.4574
12600SOL     OW44914   3.801   7.062   8.420  0.5201  0.1756 -0.1007
12600SOL    HW144915   3.872   7.003   8.444 -0.2715 -0.6667  0.2386
12600SOL    HW244916   3.772   7.033   8.334  0.0901  0.0256  0.0912
12601SOL     OW44917   9.294   7.980   2.399 -0.3306  0.2580 -0.6107
12601SOL    HW144918   9.368   7.923   2.419  0.2368  1.7568  2.1569
12601SOL    HW244919   9.250   7.992   2.483 -1.7470  2.0469 -1.5332
12602SOL     OW44920   4.982   6.380  10.214 -0.0775 -0.3367  0.3615
12602SOL    HW144921   4.921   6.307  10.202  1.0159 -1.0292 -1.3907
12602SOL    HW244922   5.025   6.390  10.129  3.2269 -0.8325  1.8208
12603SOL     OW44923   5.155  11.559  12.791  0.2729  0.0583 -0.1717
12603SOL    HW144924   5.098  11.605  12.729 -1.2348  0.5561  1.5189
12603SOL    HW244925   5.153  11.468  12.762 -0.9559  0.1656 -0.4914
12604SOL     OW44926   1.170   6.864  12.417  0.3160 -0.2175  0.3110
12604SOL    HW144927   1.162   6.794  12.482 -0.0758 -1.1025 -0.6734
12604SOL    HW244928   1.101   6.846  12.354 -0.7637  1.8946  0.7867
12605SOL     OW44929   0.110  10.264   5.984 -0.1956 -0.1186 -0.0237
12605SOL    HW144930   0.144  10.177   6.004  0.7645  0.3887  0.6265
12605SOL    HW244931   0.159  10.293   5.907 -0.7244 -0.2630 -0.4216
12606SOL     OW44932   8.789   1.771   4.852 -0.3907 -0.4520  0.2743
12606SOL    HW144933   8.709   1.734   4.814 -0.2759 -1.5181  1.0325
12606SOL    HW244934   8.778   1.866   4.844 -1.4000 -0.6050 -0.2849
12607SOL     OW44935   6.092  10.047   4.549  0.2394  0.1184  0.7158
12607SOL    HW144936   6.188  10.052   4.556  0.3700  0.9454 -1.0006
12607SOL    HW244937   6.062  10.134   4.574  0.0242  0.1478  0.3642
12608SOL     OW44938  10.211  10.425  10.495  0.2646 -0.4235  0.1666
12608SOL    HW144939  10.250  10.348  10.455  1.1236 -0.1989  0.5676
12608SOL    HW244940  10.158  10.391  10.567  0.8123 -0.6269  0.4770
12609SOL     OW44941  12.684   3.213   9.647  0.0643 -0.5453  0.0538
12609SOL    HW144942  12.642   3.133   9.616 -1.3726 -0.0689  0.6672
12609SOL    HW244943  12.763   3.184   9.691  0.4298 -1.4817 -1.1583
12610SOL     OW44944   0.141   9.720  11.192  0.9371 -0.1507  0.4731
12610SOL    HW144945   0.149   9.636  11.238  1.1408 -0.9971 -1.0469
12610SOL    HW244946   0.231   9.747  11.175  0.8737 -0.6334 -0.7534
12611SOL     OW44947   9.621   6.785   6.595  0.0303  0.2254 -0.2529
12611SOL    HW144948   9.584   6.872   6.610  0.3614  0.6082 -1.5538
12611SOL    HW244949   9.711   6.801   6.567  0.3174 -0.5735  0.1911
12612SOL     OW44950  12.707   3.733  11.034 -0.5819 -0.3542  0.2966
12612SOL    HW144951  12.699   3.639  11.051  0.8104 -0.2188  1.9638
12612SOL    HW244952  12.723   3.772  11.120  0.7140  1.1850 -0.5841
12613SOL     OW44953  10.036   8.548   3.970 -0.7110  0.1666  0.1383
12613SOL    HW144954  10.018   8.486   4.041 -0.9326  0.5691  0.4330
12613SOL    HW244955  10.087   8.497   3.907  0.8066  0.2011  1.2714
12614SOL     OW44956   2.970   7.212   2.321 -1.2283  0.2258 -0.1454
12614SOL    HW144957   2.901   7.147   2.334 -1.5760  0.7919  0.9701
12614SOL    HW244958   3.050   7.160   2.314 -1.4871 -0.3433  0.8218
12615SOL     OW44959  11.929   4.277   2.290 -0.4137 -0.0081 -0.2850
12615SOL    HW144960  11.918   4.182   2.294  0.1477 -0.1248 -1.2591
12615SOL    HW244961  11.991   4.291   2.218 -0.9688  1.1387 -0.5577
12616SOL     OW44962   7.652   5.299  12.670 -0.0573 -0.4309 -0.1884
12616SOL    HW144963   7.658   5.285  12.576  2.7897  1.1475 -0.3629
12616SOL    HW244964   7.709   5.233  12.709 -0.3143 -0.3514  0.3446
12617SOL     OW44965   6.396   1.990  11.005 -0.5592  0.2128  0.5218
12617SOL    HW144966   6.388   1.897  10.985  0.4024  0.3235 -0.4649
12617SOL    HW244967   6.308   2.025  10.988 -0.6121 -0.2961 -0.2981
12618SOL     OW44968   0.426   6.939  10.020  0.0957 -0.0807  0.2128
12618SOL    HW144969   0.388   6.933   9.932 -1.6121  0.9972  0.8242
12618SOL    HW244970   0.377   6.874  10.071 -1.8932  2.1182  1.2912
12619SOL     OW44971   4.339   5.725  12.245 -0.0435 -0.0937 -0.5799
12619SOL    HW144972   4.294   5.641  12.236  1.0899 -0.5878 -2.1117
12619SOL    HW244973   4.395   5.714  12.322  1.0982 -1.2650 -1.5261
12620SOL     OW44974   9.316   1.428   7.100  0.2723 -0.0094  0.0008
12620SOL    HW144975   9.372   1.503   7.080 -0.5713  0.4948 -0.5402
12620SOL    HW244976   9.243   1.465   7.148  1.2918 -0.9408  2.4030
12621SOL     OW44977   8.358  12.870   4.950 -0.5976 -0.3789  0.2209
12621SOL    HW144978   8.410  12.794   4.922 -0.7647 -1.1857  1.9185
12621SOL    HW244979   8.289  12.877   4.885 -0.3513 -1.4661 -0.1845
12622SOL     OW44980   7.252  12.037   8.736  0.0986  0.3919 -0.1295
12622SOL    HW144981   7.280  11.959   8.784 -0.8171  0.9887  1.4783
12622SOL    HW244982   7.321  12.101   8.751  0.2625  0.2777 -0.4002
12623SOL     OW44983   5.069  11.871   3.081 -0.2649 -0.6869 -0.4987
12623SOL    HW144984   5.164  11.869   3.088 -0.3321  1.1490  3.2831
12623SOL    HW244985   5.042  11.779   3.089  1.1329 -0.9587  1.7594
12624SOL     OW44986  10.144   2.527  12.854  0.0829 -0.1150 -0.0634
12624SOL    HW144987  10.184   2.448  12.891 -0.4373  0.4985  1.9576
12624SOL    HW244988  10.106   2.572  12.930  0.2193  1.9965 -1.1709
12625SOL     OW44989  12.671   4.250   2.548 -0.4452 -0.2435  0.2381
12625SOL    HW144990  12.649   4.164   2.586 -1.1959 -0.0913  0.1648
12625SOL    HW244991  12.593   4.274   2.498 -0.2718  0.5244  0.3337
12626SOL     OW44992   4.062   3.559   2.238  0.1088 -0.1756 -0.7369
12626SOL    HW144993   4.106   3.499   2.178  0.9391  0.5219 -0.8486
12626SOL    HW244994   3.993   3.507   2.278  1.5325 -1.5334  0.0331
12627SOL     OW44995  12.253   8.623  10.183 -0.0338  0.1673 -0.0281
12627SOL    HW144996  12.295   8.545  10.218  0.6807  0.1108 -0.9869
12627SOL    HW244997  12.171   8.592  10.145  1.6250 -0.7103 -3.2130
12628SOL     OW44998   6.493  11.368   5.319 -0.6999  0.4154  0.2270
12628SOL    HW144999   6.550  11.297   5.350  0.5394  1.9909  1.7943
12628SOL    HW245000   6.423  11.324   5.271  0.9677 -1.7314 -0.3920
12629SOL     OW45001  11.117   4.129   3.205  0.3962 -0.5442  0.4115
12629SOL    HW145002  11.131   4.217   3.240 -0.0299 -0.3750  0.1572
12629SOL    HW245003  11.185   4.120   3.137  0.3903 -0.3834  0.3842
12630SOL     OW45004   5.633   1.653   2.083 -0.4681  0.1007 -0.0262
12630SOL    HW145005   5.553   1.631   2.130 -0.4336 -2.1936 -0.9034
12630SOL    HW245006   5.620   1.615   1.995 -0.1003  3.2553 -1.5741
12631SOL     OW45007   6.111   3.996   0.043  0.3725 -0.3936 -0.1202
12631SOL    HW145008   6.070   4.081   0.058  0.0616 -0.2282 -1.7066
12631SOL    HW245009   6.193   4.016  -0.002  1.7194 -0.7977  1.9754
12632SOL     OW45010  10.003   6.205   8.269  0.4893 -0.7415  0.3074
12632SOL    HW145011  10.012   6.270   8.200 -0.3529  0.5628  1.3802
12632SOL    HW245012   9.925   6.155   8.244 -1.0587  1.0577  1.2920
12633SOL     OW45013  10.963   2.455   6.287  0.0093 -0.0912 -0.6095
12633SOL    HW145014  11.003   2.374   6.256  2.1215  0.8078 -0.3422
12633SOL    HW245015  11.035   2.516   6.297 -0.9375  0.7026  2.9641
12634SOL     OW45016   6.932   2.953   4.448 -0.1510  0.1884 -0.0046
12634SOL    HW145017   6.967   3.040   4.428  0.6077 -0.3225 -0.9797
12634SOL    HW245018   6.932   2.908   4.364 -1.0557 -0.5789  0.3998
12635SOL     OW45019   1.831   7.877   2.907 -0.4715  0.2711 -0.4033
12635SOL    HW145020   1.736   7.864   2.919 -0.3305 -0.8198 -0.3817
12635SOL    HW245021   1.868   7.860   2.994 -0.0063 -1.9741 -0.9931
12636SOL     OW45022   2.377  12.901   9.092 -0.1208 -0.0734  0.2153
12636SOL    HW145023   2.319  12.841   9.140  0.1985 -0.8065 -0.3082
12636SOL    HW245024   2.409  12.962   9.159 -0.5724 -0.3847  0.7214
12637SOL     OW45025   6.167   7.649   8.100  0.6912  0.3140 -0.5094
12637SOL    HW145026   6.219   7.667   8.021  0.3015  1.1312 -0.5944
12637SOL    HW245027   6.091   7.707   8.092  1.5783  1.8492  1.3774
12638SOL     OW45028   0.748   1.167   3.186  0.0390 -0.3094  0.6033
12638SOL    HW145029   0.690   1.192   3.114  0.2974  0.0613  0.5218
12638SOL    HW245030   0.706   1.204   3.264  0.2010  0.0273  0.5348
12639SOL     OW45031   9.518   6.262   9.640 -0.3115 -0.6365 -0.2531
12639SOL    HW145032   9.520   6.177   9.683  0.2246 -0.3652  0.2877
12639SOL    HW245033   9.605   6.272   9.602  0.6750  0.8526  2.1502
12640SOL     OW45034  10.748  10.440   0.931  0.3455 -0.3853 -0.2643
12640SOL    HW145035  10.818  10.504   0.946 -0.5362  0.4577  0.3822
12640SOL    HW245036  10.754  10.380   1.005  0.0968 -0.0383  0.0401
12641SOL     OW45037   7.680   0.435   4.569  0.3475  0.1227  0.1988
12641SOL    HW145038   7.695   0.456   4.477  0.4648 -0.4762  0.0825
12641SOL    HW245039   7.599   0.482   4.591 -0.6613 -1.1207 -0.6915
12642SOL     OW45040   5.832  11.098   7.761  0.3700  0.1859  0.3586
12642SOL    HW145041   5.796  11.156   7.828 -1.3418 -0.9957  0.5540
12642SOL    HW245042   5.785  11.123   7.681  0.1026 -0.4514  0.3063
12643SOL     OW45043  12.774   9.870   2.952 -0.1930 -0.0409 -0.2366
12643SOL    HW145044  12.816   9.955   2.940  0.7201 -0.6527 -1.6651
12643SOL    HW245045  12.847   9.810   2.971 -0.7516 -0.6203  0.1241
12644SOL     OW45046   8.165   6.526   9.037 -0.0813  0.0998  0.6073
12644SOL    HW145047   8.220   6.593   9.076  0.2059 -0.5062  1.2683
12644SOL    HW245048   8.224   6.453   9.019 -0.7432 -0.7847  1.8760
12645SOL     OW45049   9.304   3.860   5.794  0.1287 -0.7213  0.8453
12645SOL    HW145050   9.354   3.930   5.751 -0.8105 -1.5850 -1.8762
12645SOL    HW245051   9.234   3.905   5.840  0.2208  0.2094  0.1097
12646SOL     OW45052   6.615   1.174   3.230 -0.4800  0.4381  0.4869
12646SOL    HW145053   6.673   1.173   3.154  0.9412  1.7093  1.5091
12646SOL    HW245054   6.558   1.097   3.217 -0.5595  0.8372 -2.0195
12647SOL     OW45055   7.263   7.622   0.891 -0.1604  0.2338 -0.1605
12647SOL    HW145056   7.240   7.530   0.903  0.2076 -0.1866 -2.2669
12647SOL    HW245057   7.336   7.637   0.951 -0.2205 -0.8403  0.1925
12648SOL     OW45058   9.894   1.428  11.681  0.6612 -0.2623  0.1049
12648SOL    HW145059   9.821   1.382  11.723  0.4029  0.9518  1.0222
12648SOL    HW245060   9.891   1.398  11.590  0.2150 -1.6836  0.5563
12649SOL     OW45061   2.325  11.496   0.553 -0.2533 -0.1932  0.3286
12649SOL    HW145062   2.295  11.427   0.493  0.0363  0.5186 -0.6685
12649SOL    HW245063   2.380  11.450   0.616  0.6940 -0.7781 -0.8649
12650SOL     OW45064   9.371  12.586   8.188 -0.0753 -0.6223 -0.1965
12650SOL    HW145065   9.433  12.652   8.221 -0.2779 -0.2735 -0.5047
12650SOL    HW245066   9.413  12.502   8.205  1.1928 -0.3534 -1.8083
12651SOL     OW45067  11.070  11.012   0.978  0.5579  0.3372  0.1110
12651SOL    HW145068  11.119  11.091   1.001 -3.0132  2.4078  1.4630
12651SOL    HW245069  11.094  10.949   1.046 -1.2907  2.5835  3.1072
12652SOL     OW45070   2.803  10.135   1.604 -0.5860  0.1118  0.6043
12652SOL    HW145071   2.883  10.088   1.580 -0.5876  0.2807  0.2616
12652SOL    HW245072   2.809  10.218   1.558 -2.2802 -0.9663 -1.7556
12653SOL     OW45073  11.972   6.759   9.200  0.2534  0.4415 -0.0401
12653SOL    HW145074  11.947   6.819   9.129 -3.2853 -0.3452  0.3282
12653SOL    HW245075  11.896   6.759   9.259  2.4690 -0.0266  3.0593
12654SOL     OW45076  12.923   1.750   2.446 -0.4019 -0.1253 -0.2006
12654SOL    HW145077  12.913   1.771   2.354 -1.0507 -1.7912 -0.5515
12654SOL    HW245078  12.887   1.661   2.455 -2.5083  0.8318  2.0733
12655SOL     OW45079   5.116   5.669  12.793 -0.2106  0.7230 -0.0955
12655SOL    HW145080   5.036   5.720  12.799 -0.6128 -0.0535  1.7094
12655SOL    HW245081   5.185   5.730  12.818 -0.1876  1.4095 -1.7136
12656SOL     OW45082   5.206   6.773  12.234 -0.2862  0.1201 -0.1917
12656SOL    HW145083   5.135   6.801  12.177 -0.9679  0.4334  0.7788
12656SOL    HW245084   5.251   6.705  12.185 -0.9610  0.2601 -1.0220
12657SOL     OW45085  10.564  11.963   2.758  0.0677 -0.2438 -0.1226
12657SOL    HW145086  10.570  12.016   2.678 -0.9602  1.0299  0.5947
12657SOL    HW245087  10.474  11.932   2.759 -0.1051  0.2718  0.8507
12658SOL     OW45088   0.556   1.587   5.056 -0.2249 -0.4352 -0.2228
12658SOL    HW145089   0.594   1.580   4.969  1.7876  0.2100  0.5503
12658SOL    HW245090   0.547   1.681   5.071  1.4038 -0.4450  1.0277
12659SOL     OW45091   8.674   1.035   2.493 -0.1987  0.2206  0.3477
12659SOL    HW145092   8.723   0.977   2.551  2.0180  0.0310 -1.5721
12659SOL    HW245093   8.583   1.025   2.520  0.6121 -0.6579  3.0180
12660SOL     OW45094   2.941   3.344   8.447  0.9266 -0.2890  0.4183
12660SOL    HW145095   3.030   3.314   8.430  0.5099 -0.7273 -1.1617
12660SOL    HW245096   2.892   3.265   8.465  0.4243 -0.3062 -0.9068
12661SOL     OW45097   4.449  11.385   5.712 -0.6138  0.4446  0.3106
12661SOL    HW145098   4.415  11.383   5.623 -3.0282  1.8065  1.1040
12661SOL    HW245099   4.384  11.337   5.764  1.2363 -1.2038  1.2642
12662SOL     OW45100   0.382  10.934  10.454  0.8955 -0.6401  0.1259
12662SOL    HW145101   0.460  10.928  10.398  0.6235 -3.7946 -0.0725
12662SOL    HW245102   0.308  10.926  10.394  0.2276  3.0904  0.2183
12663SOL     OW45103  10.687  10.222   9.829 -0.0335  0.1819 -0.8649
12663SOL    HW145104  10.661  10.148   9.884  2.0619  1.5545  2.2503
12663SOL    HW245105  10.745  10.184   9.764  2.4983 -0.8444  1.7897
12664SOL     OW45106   0.053   5.743   5.557  0.2541  0.4208  0.0759
12664SOL    HW145107   0.079   5.664   5.604  0.3932  0.0983 -0.5304
12664SOL    HW245108   0.084   5.815   5.612  1.0551  0.0525  0.1201
12665SOL     OW45109   3.047   7.569   3.892  0.6340 -0.3812 -0.0637
12665SOL    HW145110   2.993   7.631   3.941  1.5072 -0.2459  0.7605
12665SOL    HW245111   3.075   7.618   3.815  2.2509  0.7008  1.1329
12666SOL     OW45112   5.758   5.920   3.832 -0.4675 -0.4889 -0.3479
12666SOL    HW145113   5.699   5.935   3.758 -1.2186 -1.2891  0.0792
12666SOL    HW245114   5.839   5.963   3.806 -0.9785 -0.0536 -1.2879
12667SOL     OW45115   7.134   7.334   4.711  0.1457  0.5870 -0.4162
12667SOL    HW145116   7.114   7.258   4.658 -0.4449  0.6125 -0.2376
12667SOL    HW245117   7.192   7.301   4.780 -0.2202  0.2699 -0.2577
12668SOL     OW45118   1.335   5.870   0.058 -0.2214  0.3138 -0.4187
12668SOL    HW145119   1.263   5.828   0.104  0.0805 -1.6608 -1.6598
12668SOL    HW245120   1.309   5.962   0.053 -2.0381 -0.1185  0.3040
12669SOL     OW45121   7.887   3.539   0.415  0.3293 -0.2277 -0.4882
12669SOL    HW145122   7.798   3.544   0.449 -0.0910  1.9967 -1.7187
12669SOL    HW245123   7.942   3.571   0.487 -0.1524  0.8379 -0.5806
12670SOL     OW45124   0.465   6.323   1.970  0.0487 -0.5333  0.3243
12670SOL    HW145125   0.487   6.388   2.036 -1.9743  0.2333  0.3298
12670SOL    HW245126   0.380   6.351   1.937  0.6492 -1.3133 -2.0875
12671SOL     OW45127   3.715  11.226  11.698  0.5510  0.4371  0.4935
12671SOL    HW145128   3.792  11.220  11.755  0.4009  0.7272  0.7324
12671SOL    HW245129   3.734  11.167  11.626  0.5209 -0.3376  1.1024
12672SOL     OW45130   6.843   2.875   4.174 -0.3624  0.7820  0.4127
12672SOL    HW145131   6.772   2.899   4.115 -0.2809  2.1269  0.8297
12672SOL    HW245132   6.837   2.779   4.181  0.1894  0.4382 -2.4829
12673SOL     OW45133   7.511   2.070   4.331 -0.0772  0.1189  0.2159
12673SOL    HW145134   7.605   2.069   4.312 -0.5545 -1.2253 -2.5545
12673SOL    HW245135   7.475   2.137   4.273 -0.9318  0.2920  0.9147
12674SOL     OW45136   0.558   4.699   9.914  0.9105 -0.3831 -0.2107
12674SOL    HW145137   0.566   4.652   9.831  0.1775 -0.9985  0.0551
12674SOL    HW245138   0.526   4.786   9.889 -0.0625 -0.8176 -0.5192
12675SOL     OW45139  10.444  12.814   6.867 -0.3572 -0.2211  0.1394
12675SOL    HW145140  10.379  12.864   6.818  1.9904  1.7572 -1.0965
12675SOL    HW245141  10.442  12.853   6.955 -0.2441  0.3998 -0.1298
12676SOL     OW45142   9.098   4.921   8.698  0.1133 -0.0725  0.2063
12676SOL    HW145143   9.110   4.907   8.792  1.8841  1.2317  0.2265
12676SOL    HW245144   9.141   5.005   8.681 -1.6687  0.5668 -1.4894
12677SOL     OW45145   7.451  12.747   3.780 -0.8884 -0.4909 -0.2611
12677SOL    HW145146   7.451  12.809   3.853 -1.7023 -0.5588 -0.1903
12677SOL    HW245147   7.536  12.759   3.738 -0.7860  0.2230  0.1321
12678SOL     OW45148  12.895   1.301   3.236 -0.4305  0.3086 -0.3173
12678SOL    HW145149  12.876   1.284   3.328 -0.3674 -1.0440 -0.5295
12678SOL    HW245150  12.991   1.308   3.233 -0.4643  0.9298 -0.2091
12679SOL     OW45151   8.179   1.121  12.521  0.4786 -0.3054  0.3338
12679SOL    HW145152   8.256   1.104  12.575  0.5890  0.2236  0.3485
12679SOL    HW245153   8.160   1.038  12.478  1.4978 -0.2537 -0.2282
12680SOL     OW45154   8.563   8.332  12.885  0.1221  0.4495  0.3071
12680SOL    HW145155   8.555   8.423  12.857  2.7326 -0.1357 -2.9557
12680SOL    HW245156   8.574   8.337  12.980 -0.9585  3.3704  0.3919
12681SOL     OW45157   7.334  12.123   2.243 -0.0831 -0.3900 -0.2129
12681SOL    HW145158   7.381  12.119   2.327 -1.3058 -1.8394  0.4572
12681SOL    HW245159   7.299  12.035   2.231 -1.4832  0.2777 -1.3468
12682SOL     OW45160  11.022  11.048  12.637  0.1890  0.5022  0.1695
12682SOL    HW145161  11.079  11.071  12.563 -0.7857  0.9733 -0.4461
12682SOL    HW245162  10.945  11.103  12.627 -0.5429 -0.3737  0.8051
12683SOL     OW45163   9.234   9.274   4.218  0.5169  0.3595  0.6276
12683SOL    HW145164   9.208   9.352   4.169  0.5252  0.5234  0.8790
12683SOL    HW245165   9.318   9.248   4.179  0.2269  0.1222  0.1456
12684SOL     OW45166   5.245   5.997  11.524 -0.7890  0.5127  0.1673
12684SOL    HW145167   5.243   5.932  11.594 -1.0367  0.4135  0.0698
12684SOL    HW245168   5.269   6.078  11.567  0.4655  0.1703  0.1355
12685SOL     OW45169   2.866   3.951   5.493 -0.4967  0.4771 -0.3302
12685SOL    HW145170   2.815   3.877   5.525  0.5079  0.6800  1.9667
12685SOL    HW245171   2.943   3.911   5.451 -0.4882  0.2020 -0.0541
12686SOL     OW45172   4.508   5.667  12.450 -0.2470 -0.3913  0.1041
12686SOL    HW145173   4.513   5.725  12.526  1.8597 -1.4030  0.8248
12686SOL    HW245174   4.518   5.579  12.487  0.8743 -0.8948 -1.3163
12687SOL     OW45175   8.462   8.155  11.257 -0.1729  0.1177 -0.1734
12687SOL    HW145176   8.470   8.066  11.222 -1.0034  0.1610 -0.5035
12687SOL    HW245177   8.549   8.176  11.292 -0.2372 -1.2192  0.8669
12688SOL     OW45178   7.096  12.576   8.717  0.0086 -0.3984  0.0755
12688SOL    HW145179   7.117  12.660   8.675 -1.0727  0.5086  1.2658
12688SOL    HW245180   7.038  12.533   8.654  0.2716 -0.0909 -0.3875
12689SOL     OW45181   6.772   6.145  10.046 -0.3447 -0.2785 -1.1906
12689SOL    HW145182   6.838   6.095  10.094  0.0748  2.1092  0.8946
12689SOL    HW245183   6.697   6.086  10.039  0.9481 -2.0097 -1.0235
12690SOL     OW45184   8.425  12.169   4.934 -0.0280 -0.2235  0.0103
12690SOL    HW145185   8.480  12.212   4.868  1.1366 -0.8575  0.5462
12690SOL    HW245186   8.486  12.136   4.999 -1.0621 -0.8487  0.6964
12691SOL     OW45187   6.318  11.217  10.274 -0.5194 -0.0965 -0.4199
12691SOL    HW145188   6.376  11.212  10.199 -0.7348  0.8229 -0.6566
12691SOL    HW245189   6.323  11.308  10.303  2.9130 -1.1732  3.3801
12692SOL     OW45190   8.604   8.370   8.893  0.0737  0.3656  0.2254
12692SOL    HW145191   8.543   8.407   8.956 -0.3794 -0.7008  0.4268
12692SOL    HW245192   8.642   8.447   8.849 -1.4291  1.0408  0.0535
12693SOL     OW45193   0.169  10.460   0.143  0.9306 -0.5369 -0.3791
12693SOL    HW145194   0.209  10.424   0.063  0.7933  0.0647 -0.7222
12693SOL    HW245195   0.077  10.437   0.136  0.4062  1.6689 -1.6539
12694SOL     OW45196  12.525   3.047   4.587 -0.1839 -0.2667  0.4188
12694SOL    HW145197  12.549   3.080   4.673 -3.2814 -1.6886  1.9892
12694SOL    HW245198  12.478   3.119   4.546  1.3318  0.4276 -0.2040
12695SOL     OW45199   9.567   4.090  10.130  0.6664 -0.5037 -0.8010
12695SOL    HW145200   9.542   4.042  10.051 -2.2727 -0.1268 -0.1914
12695SOL    HW245201   9.608   4.170  10.097  0.0401 -0.6385 -1.9455
12696SOL     OW45202  12.289   7.410  10.675 -0.4415  0.3211  0.1583
12696SOL    HW145203  12.253   7.461  10.602  0.1887 -0.1890 -0.5220
12696SOL    HW245204  12.367   7.458  10.701 -0.0226 -0.1133 -0.2754
12697SOL     OW45205   9.705   2.515   6.871  0.7755 -0.1854 -0.1391
12697SOL    HW145206   9.798   2.530   6.856  1.4800  0.2781  3.7155
12697SOL    HW245207   9.674   2.594   6.915 -1.3761 -0.5325 -0.8894
12698SOL     OW45208  10.690   5.612   4.840 -0.0088  0.2000 -0.0935
12698SOL    HW145209  10.750   5.565   4.898  0.5628  1.8852  0.7345
12698SOL    HW245210  10.603   5.593   4.875  0.1664 -0.5974 -0.0640
12699SOL     OW45211   1.684  11.415  11.761 -0.1960  0.3717  0.0025
12699SOL    HW145212   1.604  11.465  11.779 -1.2300 -1.5946  1.2573
12699SOL    HW245213   1.655  11.342  11.707  1.2006  0.8059 -1.4060
12700SOL     OW45214   4.607   4.606   6.084  0.5536  0.1703 -0.3613
12700SOL    HW145215   4.650   4.567   6.008  0.3899 -0.9021  0.0876
12700SOL    HW245216   4.513   4.604   6.063  0.5274  0.1179 -0.2398
12701SOL     OW45217   9.685   6.270   8.300  0.4852 -0.2174  0.2027
12701SOL    HW145218   9.607   6.304   8.257  0.5147 -0.6312 -0.1782
12701SOL    HW245219   9.751   6.338   8.286 -0.1707  0.8164  1.7718
12702SOL     OW45220   0.522   3.255  12.186  0.3346  0.2160 -0.0769
12702SOL    HW145221   0.439   3.302  12.182 -0.2897 -0.7740  0.7691
12702SOL    HW245222   0.503   3.175  12.236  1.4405 -0.7744 -1.1551
12703SOL     OW45223  12.725  11.316   6.696  0.4656 -0.2860 -0.2014
12703SOL    HW145224  12.717  11.297   6.790  1.7564  0.5088  0.1136
12703SOL    HW245225  12.725  11.412   6.692  2.9523 -0.2280 -0.6744
12704SOL     OW45226   1.577   2.018   5.464 -0.1496 -0.5619 -0.2642
12704SOL    HW145227   1.664   2.017   5.423 -0.9378  0.1461 -2.0673
12704SOL    HW245228   1.579   2.094   5.522 -0.0209  0.3646 -1.4427
12705SOL     OW45229  11.089   9.543   6.812  0.3167  0.4462 -0.5890
12705SOL    HW145230  11.084   9.516   6.720 -3.3128  1.8077 -0.9331
12705SOL    HW245231  11.032   9.620   6.818  0.0776  0.1507  2.9086
12706SOL     OW45232   9.326   4.730   4.560 -0.1608 -0.0684  0.1825
12706SOL    HW145233   9.341   4.819   4.592 -1.1774  0.3842 -0.5231
12706SOL    HW245234   9.295   4.742   4.470  0.5716 -1.1924 -0.2387
12707SOL     OW45235   0.913   4.024   2.595 -0.7344 -0.2282 -0.4556
12707SOL    HW145236   0.867   4.073   2.527 -1.9049 -0.9025 -0.1827
12707SOL    HW245237   0.920   4.085   2.668 -1.6936 -0.2792 -0.3093
12708SOL     OW45238   1.247  10.588   6.596 -0.0110 -0.1189  0.7748
12708SOL    HW145239   1.210  10.557   6.513  0.1432  0.7785  0.3546
12708SOL    HW245240   1.307  10.518   6.623  0.6230 -0.0336 -0.3440
12709SOL     OW45241   0.851   0.114   8.712  0.1923 -0.2547 -1.1207
12709SOL    HW145242   0.896   0.171   8.775  0.8411 -3.1631  1.2778
12709SOL    HW245243   0.922   0.076   8.660 -0.0202 -0.4949 -1.2355
12710SOL     OW45244  10.508   9.402   9.873 -0.6818  0.2679  0.0986
12710SOL    HW145245  10.477   9.493   9.879  0.6531  0.7653 -0.1723
12710SOL    HW245246  10.491   9.377   9.782 -1.3351  0.1283  0.2532
12711SOL     OW45247  11.707   4.495   6.681  0.1311 -0.3393  0.3384
12711SOL    HW145248  11.654   4.427   6.722  0.3143 -0.6719  0.0279
12711SOL    HW245249  11.785   4.502   6.736 -0.4118  0.4473  1.0394
12712SOL     OW45250   4.323  12.401   5.432  0.2310 -0.0765 -0.0939
12712SOL    HW145251   4.232  12.374   5.419 -0.0307  0.0285  1.3993
12712SOL    HW245252   4.324  12.493   5.405 -0.1847  0.0218  0.2168
12713SOL     OW45253   2.402   7.137   4.234  0.5659  0.6026 -0.1549
12713SOL    HW145254   2.379   7.090   4.314 -0.3347  0.9690 -0.1803
12713SOL    HW245255   2.382   7.075   4.164  0.0245  0.7711 -0.1558
12714SOL     OW45256  10.821   6.365   2.356  0.0437 -0.0523  0.1999
12714SOL    HW145257  10.895   6.394   2.304  0.7108  0.8937  1.6025
12714SOL    HW245258  10.775   6.303   2.301  0.1871  1.5723 -1.8657
12715SOL     OW45259   9.137   6.826   0.107 -0.4380  0.9123 -0.2554
12715SOL    HW145260   9.136   6.883   0.184 -0.1616  0.9527 -0.2792
12715SOL    HW245261   9.162   6.884   0.035 -2.8264  1.3604 -0.7852
12716SOL     OW45262   7.968   2.668   6.522  0.1274  0.4416 -0.2081
12716SOL    HW145263   8.040   2.611   6.496  0.5373  0.7707  0.1908
12716SOL    HW245264   7.892   2.634   6.474  0.8109  0.9180 -1.6986
12717SOL     OW45265   8.585   1.846   3.193  0.2894 -0.1577  0.3325
12717SOL    HW145266   8.493   1.868   3.208  0.2188 -0.1879 -0.0671
12717SOL    HW245267   8.630   1.930   3.195  0.3499 -0.2023  1.2109
12718SOL     OW45268  11.388   4.523   6.811  0.2123  0.5130  0.0542
12718SOL    HW145269  11.416   4.569   6.731  0.5227 -0.8371 -0.6307
12718SOL    HW245270  11.422   4.434   6.801  0.2980  0.3306  1.7257
12719SOL     OW45271   3.651   9.058   5.469  0.5773  0.2125 -0.2659
12719SOL    HW145272   3.589   9.116   5.513  0.0686  0.3310 -1.1007
12719SOL    HW245273   3.636   8.972   5.509 -0.8341  0.0312 -1.0906
12720SOL     OW45274   4.054   4.302   0.613  0.2335  0.0581  0.8853
12720SOL    HW145275   4.077   4.366   0.681  0.4654  0.5879  0.3162
12720SOL    HW245276   4.129   4.242   0.610  2.3776  2.5571 -1.9116
12721SOL     OW45277   9.510   3.855   4.058 -0.1007 -0.1678  0.4866
12721SOL    HW145278   9.457   3.918   4.106  1.5669  1.5208  0.2411
12721SOL    HW245279   9.536   3.790   4.124  0.6935  1.1300  1.4921
12722SOL     OW45280  11.440   7.394   5.791  0.5704  0.0595  0.0107
12722SOL    HW145281  11.366   7.454   5.801  0.2443 -0.2695 -0.4067
12722SOL    HW245282  11.400   7.308   5.778  1.0091 -0.0172 -0.9092
12723SOL     OW45283   0.014   9.137  12.653 -0.1189 -0.2964 -0.8215
12723SOL    HW145284  -0.033   9.144  12.736  1.4257  0.1368  0.0307
12723SOL    HW245285  -0.051   9.100  12.593 -1.8415  1.1539  0.0612
12724SOL     OW45286   8.731   1.860   5.417 -0.4200  0.1708 -0.4105
12724SOL    HW145287   8.800   1.914   5.455 -0.5072 -0.0460  0.0667
12724SOL    HW245288   8.660   1.922   5.399 -0.0271  0.4246 -1.0909
12725SOL     OW45289   5.038   0.538  12.637  0.4186 -0.1571  0.2810
12725SOL    HW145290   5.108   0.488  12.593 -0.5854 -0.7413 -0.7274
12725SOL    HW245291   4.960   0.484  12.624 -0.5291  1.2637 -0.0408
12726SOL     OW45292  12.063  11.146   1.873 -0.0098  0.0670  0.1253
12726SOL    HW145293  12.088  11.172   1.784  1.2684 -0.9242  0.1589
12726SOL    HW245294  12.145  11.116   1.913 -0.4543  0.9709  1.8332
12727SOL     OW45295   4.762   2.552   2.643 -0.2163  0.3819  0.1917
12727SOL    HW145296   4.727   2.640   2.636 -1.0318  0.0926  0.4809
12727SOL    HW245297   4.827   2.546   2.573 -1.3565  0.6633 -0.9294
12728SOL     OW45298   9.055   2.306  11.872  0.1031 -0.4300 -0.2814
12728SOL    HW145299   8.980   2.315  11.930 -0.3744  0.6437 -1.0350
12728SOL    HW245300   9.125   2.354  11.916  0.1690 -0.8728  0.1044
12729SOL     OW45301   1.171   4.181   1.490 -0.0735 -0.0639 -0.0970
12729SOL    HW145302   1.203   4.257   1.442  0.6250  0.4200  1.0923
12729SOL    HW245303   1.245   4.154   1.545 -0.4875 -1.2820 -0.1097
12730SOL     OW45304  12.219   5.262   1.750 -0.3989 -0.3428  0.1663
12730SOL    HW145305  12.175   5.177   1.749  1.2532 -1.2426  1.1872
12730SOL    HW245306  12.258   5.269   1.837  4.0286 -0.9974 -1.5086
12731SOL     OW45307  10.421   3.111   5.113  0.1118  0.5163  0.2572
12731SOL    HW145308  10.345   3.090   5.058  0.3376 -0.0652  0.1576
12731SOL    HW245309  10.386   3.115   5.202  0.2197 -1.3240  0.4173
12732SOL     OW45310  11.449   9.194   2.970  0.4150  0.2739 -0.0164
12732SOL    HW145311  11.497   9.209   2.889 -1.0684  0.7055 -0.8627
12732SOL    HW245312  11.459   9.276   3.019 -0.4755  0.8369 -0.7507
12733SOL     OW45313   2.116  11.121   2.026 -0.2605 -0.1335 -0.3716
12733SOL    HW145314   2.077  11.145   1.942 -0.4737 -0.9064 -0.4992
12733SOL    HW245315   2.128  11.027   2.021 -0.8868 -0.2878  0.7245
12734SOL     OW45316   2.695   8.699   2.371  0.1137  0.4151  0.1040
12734SOL    HW145317   2.664   8.681   2.282 -1.3747  1.6101  0.3461
12734SOL    HW245318   2.634   8.651   2.428  2.5751 -2.5304  0.5117
12735SOL     OW45319   0.483  11.369   5.422  0.5800 -0.4140 -0.3187
12735SOL    HW145320   0.536  11.352   5.500 -0.0906  0.6138  0.3804
12735SOL    HW245321   0.408  11.310   5.430 -0.6769  1.2844  1.0354
12736SOL     OW45322   7.536   7.208   7.140  0.5720 -0.1959  0.0029
12736SOL    HW145323   7.624   7.170   7.147  0.1960 -1.0848  0.0842
12736SOL    HW245324   7.492   7.152   7.077 -0.5865 -1.0432  1.5080
12737SOL     OW45325   5.603   6.341   1.060  0.9442 -0.0323  0.0318
12737SOL    HW145326   5.625   6.391   1.139 -2.3904  2.0715 -0.1806
12737SOL    HW245327   5.617   6.403   0.988 -0.2686 -0.4188 -0.5584
12738SOL     OW45328   4.275  10.507   2.133 -0.4509  0.4565  0.3552
12738SOL    HW145329   4.287  10.429   2.079 -1.3700 -0.5657  1.5755
12738SOL    HW245330   4.181  10.525   2.128  0.0113  2.8540 -1.6805
12739SOL     OW45331   2.191   1.900   9.879 -0.2370  0.1967 -0.0930
12739SOL    HW145332   2.241   1.834   9.831 -0.5822  0.2647 -0.5485
12739SOL    HW245333   2.144   1.948   9.811 -0.1741  0.7538  0.2569
12740SOL     OW45334   3.785   9.432   2.615  0.3826 -0.3582 -0.1222
12740SOL    HW145335   3.712   9.370   2.608  0.3248 -0.3497  0.3512
12740SOL    HW245336   3.743   9.518   2.610  0.4899 -0.3530 -1.0319
12741SOL     OW45337   8.623   4.577   8.221 -0.4508 -0.1669 -0.1639
12741SOL    HW145338   8.589   4.594   8.133 -0.7533 -0.0789 -0.0333
12741SOL    HW245339   8.545   4.566   8.275 -0.2631 -0.7107  0.0030
12742SOL     OW45340   8.025   6.242   4.900 -0.1420  0.1229  0.2291
12742SOL    HW145341   7.986   6.330   4.908  1.6088  1.0217 -0.5478
12742SOL    HW245342   7.953   6.188   4.867 -0.3772  2.1332 -3.0794
12743SOL     OW45343   7.521   5.545   8.350  0.1142  0.5141 -0.0617
12743SOL    HW145344   7.595   5.510   8.399 -0.8598 -0.0655  1.0422
12743SOL    HW245345   7.556   5.621   8.304  1.4487  0.0912  0.2181
12744SOL     OW45346   4.584   1.768   0.312  0.6945  0.3037  0.7066
12744SOL    HW145347   4.673   1.800   0.315  1.2357 -0.7366 -1.5651
12744SOL    HW245348   4.593   1.672   0.307 -0.4510  0.2187 -0.4273
12745SOL     OW45349   6.251   4.723   7.149 -0.2543  0.1249  0.4192
12745SOL    HW145350   6.309   4.794   7.179 -0.4900  0.0898  0.9617
12745SOL    HW245351   6.163   4.761   7.152 -0.4267 -0.3095  1.1026
12746SOL     OW45352   6.426   2.332   4.681  0.5251 -0.2572  0.1264
12746SOL    HW145353   6.389   2.292   4.602  1.4178 -1.4659  0.2866
12746SOL    HW245354   6.350   2.352   4.735 -0.2019  1.7495 -1.5196
12747SOL     OW45355   1.646   5.168   0.273 -0.1032 -0.1627  0.0481
12747SOL    HW145356   1.725   5.221   0.267 -0.3120  0.3274  1.2341
12747SOL    HW245357   1.590   5.216   0.334 -1.6393 -0.1053 -1.3166
12748SOL     OW45358   1.378  12.095   1.851  0.3374  0.0343  0.4171
12748SOL    HW145359   1.299  12.128   1.809  1.4897  0.9580 -1.1287
12748SOL    HW245360   1.354  12.089   1.944 -1.6276 -0.0370 -0.0445
12749SOL     OW45361   2.785   3.953  11.388  0.0308  0.0950 -0.1656
12749SOL    HW145362   2.752   4.028  11.338  1.3764 -0.3077 -1.7805
12749SOL    HW245363   2.762   3.877  11.334  1.7363 -0.3393 -0.3649
12750SOL     OW45364   9.054   6.200  12.686  0.3703  0.0403  0.5624
12750SOL    HW145365   9.109   6.253  12.630 -1.7551  0.8598 -0.8658
12750SOL    HW245366   9.037   6.120  12.635 -0.3113  0.1089  0.6655
12751SOL     OW45367  11.239   4.684   4.018  0.2417 -0.2336 -0.3173
12751SOL    HW145368  11.310   4.672   3.955 -0.8752  0.3757 -1.7576
12751SOL    HW245369  11.203   4.769   3.997 -0.4642 -0.2174  0.8746
12752SOL     OW45370   2.452   2.947  11.807 -0.4744  0.4253 -0.4663
12752SOL    HW145371   2.451   2.855  11.782  1.2328  0.0262  0.7316
12752SOL    HW245372   2.415   2.948  11.896 -1.1276  1.0023 -0.7346
12753SOL     OW45373   5.930   2.855   5.462 -0.1419  0.4810  0.4092
12753SOL    HW145374   5.942   2.762   5.445  0.1924  0.1085  2.3887
12753SOL    HW245375   5.871   2.859   5.537 -2.0109  1.9717 -1.0326
12754SOL     OW45376   3.530   1.617   9.122  0.2089 -0.3784  0.3060
12754SOL    HW145377   3.553   1.525   9.137  1.2504 -0.4988 -1.6487
12754SOL    HW245378   3.606   1.666   9.152  0.5732 -0.3449 -0.6207
12755SOL     OW45379   3.803  10.398  12.407  0.0310 -0.7693 -0.4642
12755SOL    HW145380   3.878  10.349  12.443 -0.7093 -1.3551  0.3442
12755SOL    HW245381   3.795  10.366  12.317  0.9092 -0.5032 -0.6479
12756SOL     OW45382   1.238   1.125  10.456 -0.2540  0.4810 -0.0042
12756SOL    HW145383   1.159   1.169  10.490 -1.6095 -0.7901 -1.3378
12756SOL    HW245384   1.231   1.035  10.487  0.4046  0.2269 -0.5643
12757SOL     OW45385   0.237   8.808   4.684 -0.7667  0.0034 -0.1194
12757SOL    HW145386   0.187   8.886   4.708 -0.5769  0.0434  0.1432
12757SOL    HW245387   0.311   8.806   4.744 -1.0242 -0.6380  0.1926
12758SOL     OW45388   5.435   1.990   8.952  0.1538  0.7668  0.0112
12758SOL    HW145389   5.357   1.956   8.907 -0.0816  1.4487 -0.1023
12758SOL    HW245390   5.400   2.043   9.024  0.5266 -0.1161  0.8684
12759SOL     OW45391   1.936   4.830   0.602  0.3119  0.1193 -0.5132
12759SOL    HW145392   1.865   4.769   0.585  0.0736 -0.1572  1.2135
12759SOL    HW245393   1.893   4.906   0.642  1.0880 -0.8069  2.3041
12760SOL     OW45394   1.003   4.166  10.183 -0.2859  0.5631  0.0259
12760SOL    HW145395   0.958   4.247  10.162 -1.3271 -0.0319 -0.0632
12760SOL    HW245396   0.947   4.097  10.149  0.1330 -0.2397  0.9211
12761SOL     OW45397   0.898   9.603   0.851 -0.3772 -0.0275 -0.4249
12761SOL    HW145398   0.986   9.567   0.845 -0.0775  0.7645 -0.8079
12761SOL    HW245399   0.879   9.637   0.764  0.0536  2.3715  0.3524
12762SOL     OW45400   7.570  10.821   7.289 -0.0880  0.1445  0.3135
12762SOL    HW145401   7.478  10.801   7.271 -0.6783  1.3288  1.8606
12762SOL    HW245402   7.601  10.745   7.339 -0.5538  0.2580  0.7832
12763SOL     OW45403   9.953   7.232   6.497 -0.3233 -0.0162 -0.2295
12763SOL    HW145404   9.868   7.242   6.453 -1.4696 -0.8109  1.7019
12763SOL    HW245405   9.986   7.147   6.466 -0.1155  0.3719 -1.1165
12764SOL     OW45406   2.429  11.175   2.122 -0.5963 -0.1756 -0.5292
12764SOL    HW145407   2.403  11.087   2.095 -1.0511 -0.7579  1.6111
12764SOL    HW245408   2.347  11.221   2.137 -0.6536 -1.2885  3.9697
12765SOL     OW45409   6.678   5.027   0.255  0.4210  0.1644 -0.4407
12765SOL    HW145410   6.763   5.061   0.283  0.9644 -0.8621 -0.7987
12765SOL    HW245411   6.696   4.936   0.231 -0.6839  0.0860 -0.9870
12766SOL     OW45412  12.962  11.521   0.646 -0.1270  0.2737  0.3223
12766SOL    HW145413  13.050  11.501   0.616  0.3574 -0.7348  2.2875
12766SOL    HW245414  12.906  11.501   0.571  1.3425  1.7876 -1.2605
12767SOL     OW45415   7.686   6.955   8.395  0.5406 -0.2236  0.2528
12767SOL    HW145416   7.655   6.999   8.475  1.8055 -0.2912  0.7958
12767SOL    HW245417   7.743   7.019   8.353  1.6668 -0.9878  0.5783
12768SOL     OW45418  11.216   8.761  10.626  0.0153 -0.3425  0.1665
12768SOL    HW145419  11.200   8.700  10.554 -2.1673  0.2577  0.0758
12768SOL    HW245420  11.272   8.712  10.686  1.7060 -0.9456 -1.7692
12769SOL     OW45421   0.515   4.310   6.613  0.1658  0.3540 -0.1874
12769SOL    HW145422   0.480   4.286   6.699  0.4512  1.3615  0.2192
12769SOL    HW245423   0.571   4.236   6.589  2.4507  1.2719  1.8467
12770SOL     OW45424   7.812   3.231   1.921  0.5315 -0.5284  0.5876
12770SOL    HW145425   7.802   3.324   1.903  2.4302 -0.3925 -0.0055
12770SOL    HW245426   7.724   3.201   1.944  0.0519  1.6189  1.8776
12771SOL     OW45427  10.122  10.151  10.697 -0.1286  0.1390 -0.1059
12771SOL    HW145428  10.214  10.163  10.718 -0.3751  0.6447  0.7699
12771SOL    HW245429  10.086  10.106  10.774 -0.5226 -0.4500 -0.6249
12772SOL     OW45430   8.837   4.572   0.358 -0.2533 -0.0624 -0.3573
12772SOL    HW145431   8.892   4.649   0.348  0.0975 -0.3191 -0.4325
12772SOL    HW245432   8.831   4.535   0.270 -1.3480  0.4952 -0.5382
12773SOL     OW45433   4.331   1.223   6.072 -0.0825  0.1293  0.3866
12773SOL    HW145434   4.396   1.164   6.110  2.1314  0.9795 -1.8205
12773SOL    HW245435   4.293   1.269   6.148  3.9339  1.6072  1.7544
12774SOL     OW45436  10.842   1.744   3.160 -0.0021  0.3110 -0.2724
12774SOL    HW145437  10.888   1.733   3.243  0.8818  1.4571 -0.5828
12774SOL    HW245438  10.777   1.674   3.159 -1.7579  1.7124  2.5090
12775SOL     OW45439   6.804   6.748  11.266  0.4243  0.0262 -0.1105
12775SOL    HW145440   6.791   6.714  11.177 -2.0039  0.4001  0.0286
12775SOL    HW245441   6.715   6.770  11.296  1.4239  2.0580  1.5610
12776SOL     OW45442   8.339   0.188   4.809  0.2294 -0.2324 -0.9672
12776SOL    HW145443   8.305   0.103   4.838 -0.2701  0.8926  2.0844
12776SOL    HW245444   8.429   0.170   4.783  0.5569 -1.5547  0.8555
12777SOL     OW45445  10.852   1.802   5.084 -0.0396  0.0434  0.1326
12777SOL    HW145446  10.894   1.873   5.133 -0.3901  0.3145  0.0486
12777SOL    HW245447  10.764   1.835   5.065 -0.4914 -0.7180  0.7888
12778SOL     OW45448   3.632   3.447   7.317  0.3422 -0.0337 -0.1854
12778SOL    HW145449   3.602   3.505   7.387  0.5254  1.2945 -1.1742
12778SOL    HW245450   3.712   3.407   7.352 -1.3007 -1.9634  1.6285
12779SOL     OW45451  12.002   3.190   3.922 -0.2211  0.2041 -0.2630
12779SOL    HW145452  12.022   3.117   3.863 -0.1044 -0.1241  0.1748
12779SOL    HW245453  11.915   3.219   3.895  0.7315  1.5303 -2.0687
12780SOL     OW45454   0.211   3.020   8.424  0.1444 -0.4494 -0.2510
12780SOL    HW145455   0.222   3.111   8.450 -0.1418 -0.6483  0.5955
12780SOL    HW245456   0.299   2.983   8.426  0.5324  0.2255 -2.3034
12781SOL     OW45457   3.354   6.077   7.866  0.1375 -0.1441  0.0997
12781SOL    HW145458   3.374   6.128   7.944 -0.2497 -2.1003  1.5740
12781SOL    HW245459   3.336   6.142   7.798  0.7650  1.6276  1.5400
12782SOL     OW45460   0.143  10.505   6.230  0.0965  0.0511 -0.3576
12782SOL    HW145461   0.049  10.503   6.214  0.1807 -1.7029 -0.7507
12782SOL    HW245462   0.164  10.419   6.266  1.2369  1.1229  1.7283
12783SOL     OW45463   7.453   9.553   1.823  0.6029 -0.7656  0.0332
12783SOL    HW145464   7.373   9.593   1.790  0.8586 -0.4625 -0.2273
12783SOL    HW245465   7.512   9.626   1.840 -0.1884 -0.7132  3.1641
12784SOL     OW45466   8.352   9.202   5.562 -0.1914 -0.0686  0.1493
12784SOL    HW145467   8.271   9.180   5.515 -0.7198 -2.0539  1.8169
12784SOL    HW245468   8.329   9.277   5.616 -0.5648  0.1044 -0.2418
12785SOL     OW45469   6.539   5.607  12.410  0.0803 -0.2125  0.6458
12785SOL    HW145470   6.585   5.573  12.487 -1.6480  0.5046  2.0773
12785SOL    HW245471   6.507   5.530  12.365  1.3144 -0.6549  0.4832
12786SOL     OW45472   7.070   4.342  11.043  0.1854 -0.4316  0.4601
12786SOL    HW145473   7.116   4.425  11.037  0.8962 -0.9020 -1.3794
12786SOL    HW245474   7.125   4.289  11.101  0.5609 -0.1224  0.3939
12787SOL     OW45475   1.592   6.301   2.368  0.0417  0.0834  0.1734
12787SOL    HW145476   1.568   6.246   2.443  0.4208  0.1706  0.3621
12787SOL    HW245477   1.648   6.369   2.405  1.8117 -0.9584 -0.4699
12788SOL     OW45478   7.957   8.997   6.954 -0.4029 -0.7200  0.0988
12788SOL    HW145479   7.966   8.902   6.943 -1.6566 -0.6349 -2.5505
12788SOL    HW245480   7.992   9.033   6.872 -1.5223  0.9816  0.3281
12789SOL     OW45481  11.691  12.327   0.951 -1.0258  0.2163 -0.2305
12789SOL    HW145482  11.693  12.367   0.864 -1.3797  0.3799 -0.1680
12789SOL    HW245483  11.775  12.350   0.991 -1.2044  0.8695 -0.2127
12790SOL     OW45484  11.303   2.868  10.399 -0.1026 -0.5981  0.7336
12790SOL    HW145485  11.220   2.871  10.447 -1.4135  1.9158 -1.4390
12790SOL    HW245486  11.290   2.799  10.333 -0.5681 -0.1171  0.3078
12791SOL     OW45487   2.260  10.622   8.570 -0.1908  0.0368  0.4254
12791SOL    HW145488   2.210  10.585   8.643 -0.1147  1.5163  1.2635
12791SOL    HW245489   2.239  10.715   8.571  0.8912  0.3214 -0.5851
12792SOL     OW45490   1.601   4.791   2.735 -0.4680 -0.2764  0.1040
12792SOL    HW145491   1.599   4.728   2.663  0.6147  2.1602 -2.2609
12792SOL    HW245492   1.517   4.838   2.728  0.3259  1.0953 -0.7640
12793SOL     OW45493   9.479   1.997   6.944 -0.5003  0.0350  0.0834
12793SOL    HW145494   9.557   2.050   6.925 -0.3068  0.1698  1.1780
12793SOL    HW245495   9.439   2.039   7.020  0.6259 -2.3092  2.1375
12794SOL     OW45496  10.937   1.986  10.192  0.0089 -0.1859  0.4209
12794SOL    HW145497  11.031   1.973  10.206  0.1575 -1.2433 -1.2705
12794SOL    HW245498  10.895   1.921  10.249  0.4420 -1.5999 -0.7957
12795SOL     OW45499   7.227   7.188   5.453 -0.1006 -0.0564 -0.8779
12795SOL    HW145500   7.259   7.199   5.543  0.7627  0.2595 -1.2140
12795SOL    HW245501   7.264   7.262   5.405  0.2213 -0.7301 -1.6992
12796SOL     OW45502  12.446  10.336   5.772  0.1085 -0.0647 -0.1573
12796SOL    HW145503  12.451  10.319   5.678  0.2978  1.9225 -0.5578
12796SOL    HW245504  12.360  10.376   5.784  0.4078  0.4462  0.3465
12797SOL     OW45505   8.050   0.530   8.806  0.2277  1.5743  0.0650
12797SOL    HW145506   8.067   0.619   8.776  0.7957  1.7735  0.9382
12797SOL    HW245507   8.034   0.538   8.900 -0.1929  0.8152  0.0668
12798SOL     OW45508   4.582  11.732  12.413 -0.6975  0.3123  0.0986
12798SOL    HW145509   4.607  11.645  12.444 -2.2091 -1.0114 -2.1450
12798SOL    HW245510   4.666  11.776  12.396  0.0906 -1.0145  0.3891
12799SOL     OW45511  12.809   1.786   3.106  0.6127  0.6832 -0.5365
12799SOL    HW145512  12.800   1.691   3.114  0.8738  0.8031  2.0304
12799SOL    HW245513  12.720   1.817   3.087 -0.8091  0.2355  4.1131
12800SOL     OW45514   0.562   4.181   1.453 -0.0919  0.1811  0.1240
12800SOL    HW145515   0.536   4.271   1.437 -1.8196 -0.5124 -1.2248
12800SOL    HW245516   0.480   4.134   1.468  0.2858 -1.9531 -3.4902
12801SOL     OW45517   2.003  12.898   9.667  0.3526 -0.9871 -0.9343
12801SOL    HW145518   1.938  12.847   9.717 -0.5686  2.4769  1.7565
12801SOL    HW245519   1.950  12.950   9.606  0.7153  0.5357  0.0174
12802SOL     OW45520   5.861   9.364   0.943 -0.2593 -0.2228  0.2117
12802SOL    HW145521   5.938   9.418   0.957  0.3687 -1.5477  2.4028
12802SOL    HW245522   5.801   9.419   0.893  3.0669 -0.0573 -4.1639
12803SOL     OW45523   2.091   0.647  10.221  0.3040 -0.0265 -0.0468
12803SOL    HW145524   2.146   0.598  10.160  0.2430  0.8777 -0.8429
12803SOL    HW245525   2.111   0.739  10.204 -0.4639  0.2709  0.5875
12804SOL     OW45526   3.737   9.784   5.279  0.2635  0.1646  0.3719
12804SOL    HW145527   3.823   9.772   5.320  0.8351 -1.5188 -1.1885
12804SOL    HW245528   3.675   9.761   5.348  1.0844  0.4727  1.2372
12805SOL     OW45529   3.060   6.294   8.076  0.2826 -0.1547 -0.1532
12805SOL    HW145530   2.996   6.324   8.140 -1.1577 -3.0335 -0.0620
12805SOL    HW245531   3.018   6.307   7.991  0.0062 -1.0291 -0.1604
12806SOL     OW45532  10.452  10.844  10.030 -0.8281 -0.6632  0.2594
12806SOL    HW145533  10.479  10.779  10.095 -1.9608  0.1690  1.6146
12806SOL    HW245534  10.516  10.914  10.038 -0.7766 -0.7095  0.2522
12807SOL     OW45535   9.391   0.761  12.796 -0.0744 -0.3756 -0.1832
12807SOL    HW145536   9.391   0.810  12.713  0.7871  1.7580  0.9929
12807SOL    HW245537   9.301   0.766  12.827 -0.4413 -1.3416 -1.0558
12808SOL     OW45538   3.153  11.321   5.818  0.0700 -0.1865  0.4838
12808SOL    HW145539   3.227  11.316   5.879  0.2856 -2.6571  0.1311
12808SOL    HW245540   3.177  11.262   5.746 -0.6410  1.8373 -1.5284
12809SOL     OW45541   8.662   4.486  10.280  0.5735 -0.0107 -0.0835
12809SOL    HW145542   8.713   4.408  10.260  0.0027 -0.0023 -1.7080
12809SOL    HW245543   8.727   4.556  10.288  0.9826 -0.3973  0.0080
12810SOL     OW45544   0.352   2.379   4.805 -0.3544 -0.1809 -1.4575
12810SOL    HW145545   0.318   2.330   4.879  0.7401  0.0866 -0.7577
12810SOL    HW245546   0.352   2.316   4.732 -1.4494 -0.4369 -1.2582
12811SOL     OW45547   6.944   5.163  12.563  0.1418  0.5872 -0.1604
12811SOL    HW145548   6.889   5.234  12.529 -0.3457 -0.6661 -2.1569
12811SOL    HW245549   6.987   5.127  12.485 -1.9232 -3.2384  0.2811
12812SOL     OW45550   7.958   7.785   4.272 -0.0293 -0.1486 -0.1387
12812SOL    HW145551   7.969   7.768   4.365 -0.5049 -0.1311 -0.0759
12812SOL    HW245552   7.865   7.806   4.262 -0.0013 -0.2335 -0.6288
12813SOL     OW45553   8.732  11.834   3.766 -0.3505 -0.4203 -0.0325
12813SOL    HW145554   8.822  11.822   3.738 -0.0665  0.1482  0.6103
12813SOL    HW245555   8.724  11.780   3.845 -0.3278  0.1886  0.3894
12814SOL     OW45556   7.655  11.600   4.532 -0.1241  0.3259  0.1053
12814SOL    HW145557   7.665  11.552   4.450 -2.9420 -2.5034  1.1922
12814SOL    HW245558   7.644  11.691   4.506  1.2102 -0.1299 -2.4192
12815SOL     OW45559   6.501   5.172  11.167 -0.6804 -0.5352  0.2744
12815SOL    HW145560   6.483   5.090  11.212  0.0402 -0.4714  0.6875
12815SOL    HW245561   6.577   5.153  11.112 -0.5278 -0.1542  0.3505
12816SOL     OW45562   0.829  12.387   8.196  0.0946 -0.5976  0.4064
12816SOL    HW145563   0.870  12.464   8.156  0.1454 -1.0869 -0.5121
12816SOL    HW245564   0.860  12.387   8.287  0.1871  0.3950  0.3856
12817SOL     OW45565   8.929   5.509  10.238 -0.0561 -0.2851  0.3172
12817SOL    HW145566   8.905   5.452  10.311  0.0151  0.2593  0.7740
12817SOL    HW245567   9.017   5.480  10.212 -0.7941 -1.6759 -0.7592
12818SOL     OW45568   3.085   9.911   4.693  0.1442  0.7183  0.3303
12818SOL    HW145569   3.104   9.965   4.616 -1.5752  0.8616 -0.0431
12818SOL    HW245570   3.139   9.833   4.683 -0.2721  0.6041 -1.1955
12819SOL     OW45571   1.431   2.386   0.102 -0.6926  0.1891  0.7161
12819SOL    HW145572   1.366   2.357   0.166 -0.1300 -0.6909  0.8977
12819SOL    HW245573   1.441   2.480   0.119  0.0320 -0.1761  2.4400
12820SOL     OW45574  12.637   7.358  10.880 -0.1212  0.1598  0.3910
12820SOL    HW145575  12.554   7.396  10.908 -0.3855  1.2159 -1.6618
12820SOL    HW245576  12.631   7.355  10.784  1.4246 -1.5959  0.2875
12821SOL     OW45577   6.062   3.136   8.511 -0.3152 -0.0288 -0.2499
12821SOL    HW145578   6.109   3.206   8.555  0.6885  0.1997 -1.6312
12821SOL    HW245579   6.030   3.175   8.429 -0.0265 -1.0707 -0.8862
12822SOL     OW45580   0.580   3.110  10.043  0.3763  0.1093 -0.0883
12822SOL    HW145581   0.484   3.105  10.048  0.3733 -3.4727 -0.9414
12822SOL    HW245582   0.609   3.099  10.134 -0.0829 -2.2614 -0.1644
12823SOL     OW45583  12.487   5.208   6.768  0.2706  0.6782  0.0682
12823SOL    HW145584  12.448   5.284   6.725 -2.7628 -0.9336 -0.3282
12823SOL    HW245585  12.415   5.171   6.819  1.2548 -2.5836 -0.7074
12824SOL     OW45586   8.491   4.845   5.936  0.3794  0.1132 -0.2581
12824SOL    HW145587   8.396   4.831   5.928  0.5858 -2.7323  1.1069
12824SOL    HW245588   8.511   4.819   6.026  2.4876  0.6906 -0.5165
12825SOL     OW45589  11.381   8.800   9.444 -0.3900  0.3228  0.1004
12825SOL    HW145590  11.348   8.717   9.411  0.1509  0.7694 -1.6881
12825SOL    HW245591  11.462   8.815   9.396  0.0803  1.3768  1.1659
12826SOL     OW45592   0.075   1.775   7.223 -0.2210  0.0285 -0.2881
12826SOL    HW145593   0.022   1.822   7.287 -0.4708 -1.0729  0.3299
12826SOL    HW245594   0.164   1.803   7.240 -0.4796  1.2255 -0.7600
12827SOL     OW45595   2.098   1.007   0.091  0.5276 -0.5695  0.3688
12827SOL    HW145596   2.135   0.976   0.174  2.4730 -2.1632 -0.9917
12827SOL    HW245597   2.039   0.937   0.064 -1.2829  0.6281  1.0798
12828SOL     OW45598   9.892   7.944   1.514  0.3491  0.6005 -0.0291
12828SOL    HW145599   9.848   7.986   1.588  0.4450  1.2903 -0.3518
12828SOL    HW245600   9.978   7.987   1.510  0.5690  0.1525 -0.1801
12829SOL     OW45601   7.598   9.082  11.296  0.2664 -0.2609 -0.0198
12829SOL    HW145602   7.572   9.166  11.333  0.9775 -1.2870  3.1235
12829SOL    HW245603   7.551   9.077  11.212 -1.6755  2.1971  0.7901
12830SOL     OW45604   2.223  10.475   2.317  0.1492  0.1754  0.5257
12830SOL    HW145605   2.173  10.472   2.235 -1.0558 -1.3998  1.2506
12830SOL    HW245606   2.295  10.414   2.304 -1.6830 -2.4132  1.5287
12831SOL     OW45607   2.189   2.865   5.502 -0.7248 -0.0165  0.2657
12831SOL    HW145608   2.255   2.910   5.554 -2.0690  0.7617  1.3709
12831SOL    HW245609   2.109   2.915   5.516 -2.3510 -2.7608  1.6782
12832SOL     OW45610   7.496  12.584   2.331  0.2770 -0.3446  0.1808
12832SOL    HW145611   7.527  12.601   2.420  0.8562 -0.3361 -0.0191
12832SOL    HW245612   7.401  12.576   2.340  0.2729  0.2089  0.7148
12833SOL     OW45613   3.839   4.156   3.791 -0.2322 -0.1432  0.1351
12833SOL    HW145614   3.795   4.088   3.841  1.7264 -2.0237 -0.5692
12833SOL    HW245615   3.781   4.171   3.716 -0.5826 -1.2146  0.1723
12834SOL     OW45616   1.391   4.334   0.304 -0.2062 -0.7326 -0.1347
12834SOL    HW145617   1.366   4.292   0.386  0.8979 -2.6171 -0.7107
12834SOL    HW245618   1.314   4.323   0.248 -0.0088 -1.8913 -0.2121
12835SOL     OW45619   1.489   1.311   7.996 -0.0264  0.4156  0.3752
12835SOL    HW145620   1.476   1.392   7.945  0.6823  1.7066  2.1523
12835SOL    HW245621   1.412   1.258   7.976 -0.2448  1.2721 -1.2694
12836SOL     OW45622   8.082   2.591  10.812  0.0971 -0.1299 -0.0101
12836SOL    HW145623   8.000   2.640  10.812 -0.6063 -1.2930  0.0619
12836SOL    HW245624   8.111   2.594  10.904  0.9329  1.5296 -0.2810
12837SOL     OW45625   1.376   0.319  10.558  0.2595  0.1703 -0.0703
12837SOL    HW145626   1.448   0.375  10.529  0.4142  0.2369  0.4299
12837SOL    HW245627   1.301   0.347  10.505  0.7169 -0.2404 -0.9446
12838SOL     OW45628   8.971  10.760   7.484  0.3877  0.0172 -0.2145
12838SOL    HW145629   8.932  10.767   7.397  1.0080  3.1997 -0.3577
12838SOL    HW245630   9.062  10.735   7.468  0.2163 -0.4967 -0.3914
12839SOL     OW45631  12.295   3.665   2.656  0.3384  0.2716  0.5431
12839SOL    HW145632  12.320   3.705   2.573  2.7167 -0.4245  0.8304
12839SOL    HW245633  12.210   3.626   2.640  0.8413 -0.0616 -1.6529
12840SOL     OW45634  12.070   4.208  11.111  0.2441 -0.1873  0.1346
12840SOL    HW145635  12.059   4.216  11.016  3.0561 -0.7181 -0.3153
12840SOL    HW245636  12.068   4.299  11.142 -0.5170  0.0048 -0.4317
12841SOL     OW45637   8.959   3.788   6.128  0.0792 -0.2674 -0.2972
12841SOL    HW145638   8.931   3.727   6.060  0.5468 -1.1939  0.3236
12841SOL    HW245639   9.020   3.847   6.084 -1.0285  0.3065 -1.1030
12842SOL     OW45640   2.870   5.212   3.565  0.3902 -0.1321 -0.3097
12842SOL    HW145641   2.842   5.218   3.656  1.3338 -2.1010  0.1519
12842SOL    HW245642   2.904   5.299   3.545  1.3325 -0.0112  1.6198
12843SOL     OW45643  11.331   3.572   0.425  0.3611  0.3249  0.8336
12843SOL    HW145644  11.266   3.634   0.392 -0.5253 -0.3397  1.2714
12843SOL    HW245645  11.415   3.617   0.416  0.3866 -0.1350 -3.2866
12844SOL     OW45646  10.135   2.130   6.789  0.3287 -0.0018 -0.6205
12844SOL    HW145647  10.152   2.223   6.770  2.6083 -0.4118 -0.8300
12844SOL    HW245648  10.153   2.122   6.882 -0.0946 -0.2195 -0.5536
12845SOL     OW45649   5.956   7.377   0.489  1.0582  0.0117 -0.0243
12845SOL    HW145650   5.996   7.372   0.403  1.8363 -0.4766  0.3501
12845SOL    HW245651   5.951   7.286   0.518 -1.8808 -0.1504 -0.7249
12846SOL     OW45652   4.812   0.549   5.961  0.1624 -0.2393  0.3639
12846SOL    HW145653   4.899   0.513   5.975 -0.2251 -0.7748  1.5119
12846SOL    HW245654   4.825   0.619   5.897  1.0973 -1.6670 -1.0777
12847SOL     OW45655   0.209   1.809   2.773  0.6657  0.6887  0.0437
12847SOL    HW145656   0.184   1.759   2.851 -0.2026  0.7180 -0.2137
12847SOL    HW245657   0.141   1.875   2.764  0.1667  0.0096 -1.3647
12848SOL     OW45658   0.256  10.447  11.976  0.3425 -0.2959  0.3586
12848SOL    HW145659   0.199  10.412  11.907  0.4592 -0.2411  0.2348
12848SOL    HW245660   0.283  10.370  12.026 -0.2597 -0.2696  0.7388
12849SOL     OW45661   2.537   7.578   4.441 -0.2564 -0.1154  0.1929
12849SOL    HW145662   2.576   7.496   4.411  1.3481 -0.1953  2.3023
12849SOL    HW245663   2.443   7.567   4.425  0.2223 -0.9663 -2.6202
12850SOL     OW45664   4.130   3.486   8.805 -0.3170  0.2114  0.1132
12850SOL    HW145665   4.204   3.538   8.773 -0.2511  1.9455  2.8148
12850SOL    HW245666   4.170   3.407   8.840  0.0166  0.1867 -0.3068
12851SOL     OW45667   6.064   1.712   2.423  0.4606  0.0113 -0.1466
12851SOL    HW145668   6.101   1.776   2.363  0.8986 -1.0044 -0.9929
12851SOL    HW245669   5.980   1.749   2.450  0.2359  0.4633 -1.4418
12852SOL     OW45670  12.397   0.374   2.729  0.6529 -0.6333 -0.0912
12852SOL    HW145671  12.464   0.363   2.796 -0.1243 -2.3446  0.4541
12852SOL    HW245672  12.432   0.442   2.671  2.6460 -1.1779  0.4113
12853SOL     OW45673   7.063   5.775   7.416 -0.3146 -0.4174 -0.1110
12853SOL    HW145674   7.089   5.804   7.504  0.9143  0.4428 -0.7301
12853SOL    HW245675   6.968   5.788   7.414 -0.0678  2.0278  0.2547
12854SOL     OW45676   9.950   2.862  12.509 -0.3162  0.6824  0.1055
12854SOL    HW145677  10.041   2.874  12.483 -0.4929  0.7958 -0.4898
12854SOL    HW245678   9.948   2.780  12.557 -0.2357 -0.4058 -1.6590
12855SOL     OW45679   3.613   7.161   2.740  0.7031 -0.0566  0.5211
12855SOL    HW145680   3.535   7.192   2.787 -0.3930 -2.1508  0.2346
12855SOL    HW245681   3.603   7.195   2.651 -0.0883 -0.5482  0.4049
12856SOL     OW45682   7.018   7.645   4.415  0.1305 -0.0792  0.2139
12856SOL    HW145683   7.007   7.701   4.338 -0.0376  0.6976  0.7908
12856SOL    HW245684   7.069   7.698   4.477 -0.5614 -0.3221  1.0138
12857SOL     OW45685   5.829   6.734   9.309  0.1459  0.1216 -0.2426
12857SOL    HW145686   5.838   6.648   9.350 -2.8228  0.6234  1.8288
12857SOL    HW245687   5.794   6.715   9.222  3.6325 -0.8352 -1.5934
12858SOL     OW45688  11.824  12.073   0.612 -0.6589 -0.6245 -0.2521
12858SOL    HW145689  11.843  12.006   0.547 -0.1685 -0.2782 -0.4687
12858SOL    HW245690  11.871  12.045   0.690  0.5453  0.0792 -0.6991
12859SOL     OW45691   0.658   1.904  10.316 -0.3620 -0.6865  0.3089
12859SOL    HW145692   0.750   1.878  10.318  0.0632  0.7019 -0.1856
12859SOL    HW245693   0.631   1.904  10.408  0.1360 -1.0602  0.4595
12860SOL     OW45694   9.219  12.286   5.507 -0.4031 -0.1822  0.2686
12860SOL    HW145695   9.180  12.306   5.422 -0.5535 -0.7012  0.2122
12860SOL    HW245696   9.296  12.343   5.512 -0.4705 -0.0497 -0.1525
12861SOL     OW45697   0.339   2.409   0.030 -0.4512  0.1183  0.4662
12861SOL    HW145698   0.414   2.391   0.086 -0.4789 -0.4646  0.3244
12861SOL    HW245699   0.284   2.331   0.038  0.0989 -0.4938 -1.2585
12862SOL     OW45700   9.961   4.127   8.337 -0.0753  0.0935 -0.3422
12862SOL    HW145701   9.877   4.144   8.295 -0.2869  1.0119  0.4350
12862SOL    HW245702   9.998   4.053   8.288 -0.7124  0.5563 -1.5556
12863SOL     OW45703   5.416   8.458   0.618  0.2581 -0.4730  0.2024
12863SOL    HW145704   5.399   8.464   0.712 -1.3370 -0.1908 -0.0722
12863SOL    HW245705   5.395   8.367   0.596  0.3197 -0.4522  0.0578
12864SOL     OW45706   6.613   6.515   4.982  0.1347  0.1323 -0.3372
12864SOL    HW145707   6.693   6.554   5.017 -0.2161  0.9785 -0.4456
12864SOL    HW245708   6.635   6.424   4.965  0.8994  0.2145  0.1919
12865SOL     OW45709   6.978   0.845  10.649  0.1436 -0.5824 -0.7748
12865SOL    HW145710   7.018   0.759  10.637  1.2657 -0.1379 -0.3778
12865SOL    HW245711   6.954   0.848  10.741  1.3817  0.0217 -0.4414
12866SOL     OW45712   1.167   0.362   9.677 -0.2203 -0.4256 -0.1956
12866SOL    HW145713   1.094   0.401   9.724 -0.9132  1.0590 -2.3142
12866SOL    HW245714   1.161   0.268   9.695 -0.9848 -0.0263  1.8305
12867SOL     OW45715   2.666   0.110  11.074 -0.2877 -0.0723 -0.2890
12867SOL    HW145716   2.605   0.124  11.146 -0.3415 -0.3421 -0.2802
12867SOL    HW245717   2.688   0.198  11.043  0.1053  0.0673  0.3640
12868SOL     OW45718   8.070  12.591   1.326  0.1824  0.0949  0.2698
12868SOL    HW145719   7.978  12.567   1.312  0.5256 -0.7651 -0.6249
12868SOL    HW245720   8.075  12.683   1.298 -0.0421 -0.3841 -1.4766
12869SOL     OW45721   3.119   8.120   7.081  0.0325 -0.9752  0.2858
12869SOL    HW145722   3.079   8.035   7.061 -0.1490 -0.7786 -0.2018
12869SOL    HW245723   3.188   8.099   7.144  0.2615 -1.5473 -0.1368
12870SOL     OW45724   7.122   8.126   2.731 -0.3037 -0.4818  0.2648
12870SOL    HW145725   7.118   8.216   2.698  2.5819 -0.3352  0.0885
12870SOL    HW245726   7.114   8.135   2.826 -0.0003 -0.0375  0.2500
12871SOL     OW45727  12.116   3.612   7.800 -0.0948 -0.6349  0.1739
12871SOL    HW145728  12.141   3.538   7.744 -0.2488 -0.5190 -0.0473
12871SOL    HW245729  12.051   3.659   7.750  0.5699  0.0972 -0.0136
12872SOL     OW45730   2.739   7.840   2.656 -0.1047  0.1244 -0.1511
12872SOL    HW145731   2.734   7.811   2.747  2.2638  0.0129 -0.0052
12872SOL    HW245732   2.750   7.759   2.606 -1.2772  0.1967 -0.5560
12873SOL     OW45733   2.999  10.988  12.962 -0.1129 -0.2871 -0.4047
12873SOL    HW145734   3.077  11.036  12.987 -0.0542 -0.1693 -0.8027
12873SOL    HW245735   2.933  11.012  13.027 -0.8962  2.4442 -2.0273
12874SOL     OW45736   0.047   9.827   6.061 -0.1241 -0.0907 -0.3852
12874SOL    HW145737  -0.043   9.804   6.082 -0.5649  1.6324 -0.2509
12874SOL    HW245738   0.100   9.775   6.122 -1.0391 -0.7273 -0.1129
12875SOL     OW45739   5.948   1.917   2.947 -0.4487 -0.4452  0.4892
12875SOL    HW145740   5.964   1.850   3.013  0.4938 -0.8324 -0.1189
12875SOL    HW245741   5.995   1.887   2.869  0.5444  1.2162  0.3978
12876SOL     OW45742   1.251   0.921   3.279 -0.1672  0.4320  0.2970
12876SOL    HW145743   1.239   0.846   3.221 -1.0709  1.9255 -1.5743
12876SOL    HW245744   1.331   0.902   3.328  0.8901 -0.6994 -1.7681
12877SOL     OW45745   8.073  12.750   9.148 -0.0297  0.2553  0.2645
12877SOL    HW145746   8.131  12.813   9.105 -0.4631 -0.4468 -1.4269
12877SOL    HW245747   8.103  12.665   9.117 -0.7072 -0.2476  0.9469
12878SOL     OW45748  12.079   2.174  10.273  0.7333 -0.3721  0.1595
12878SOL    HW145749  12.143   2.130  10.330 -0.3479  0.4949  2.1249
12878SOL    HW245750  12.036   2.238  10.330 -0.5194  0.4382 -1.6211
12879SOL     OW45751   3.739  10.177   1.029 -0.2687  0.0494 -0.1111
12879SOL    HW145752   3.666  10.128   1.068 -1.2849  1.2615 -0.3956
12879SOL    HW245753   3.697  10.252   0.986  1.3142  2.6571  2.4975
12880SOL     OW45754  11.927   4.085   8.637  0.4277  0.5498 -0.0792
12880SOL    HW145755  11.984   4.009   8.650 -0.6840 -0.4602 -0.8352
12880SOL    HW245756  11.893   4.105   8.724 -1.2538 -1.4808 -0.1815
12881SOL     OW45757   1.806   1.316   9.325 -0.8053 -0.5296 -0.1756
12881SOL    HW145758   1.886   1.334   9.276 -0.8356 -0.9538 -0.3878
12881SOL    HW245759   1.833   1.319   9.417 -0.5799 -0.4998 -0.2421
12882SOL     OW45760   6.601   2.619   3.471  0.0830 -0.3241  0.4102
12882SOL    HW145761   6.610   2.672   3.391 -0.1277  0.7000  1.0390
12882SOL    HW245762   6.594   2.529   3.439  0.7142 -0.0139 -0.6874
12883SOL     OW45763  12.055   0.182   2.246  0.5593 -0.1527  0.8851
12883SOL    HW145764  12.041   0.157   2.155  1.8126  1.9831  0.0485
12883SOL    HW245765  11.980   0.238   2.268  1.2534  0.9576  0.4917
12884SOL     OW45766   0.141   0.448   7.476 -1.2187  0.3279  0.2552
12884SOL    HW145767   0.114   0.527   7.524 -0.1046  1.0254 -0.2161
12884SOL    HW245768   0.078   0.381   7.503 -1.1184  0.9001  2.0627
12885SOL     OW45769   5.138   9.921  11.481  0.0649 -0.1408  0.0813
12885SOL    HW145770   5.058   9.916  11.428  0.4551 -0.5407 -0.4818
12885SOL    HW245771   5.107   9.918  11.572 -0.5660 -0.1370 -0.1307
12886SOL     OW45772   9.500   6.401   0.054 -0.2446 -0.2480  0.5676
12886SOL    HW145773   9.455   6.417   0.137  1.0134 -1.3238  1.4883
12886SOL    HW245774   9.505   6.488   0.012 -1.2868  0.2302  1.3925
12887SOL     OW45775   2.966   8.809   6.615 -0.7520 -0.1877 -0.0144
12887SOL    HW145776   3.000   8.721   6.629 -0.6069  0.0831  1.4643
12887SOL    HW245777   2.877   8.807   6.650 -0.8378  0.1908 -0.2040
12888SOL     OW45778  11.983   5.242  11.106  0.1176 -0.1881  0.3577
12888SOL    HW145779  11.896   5.263  11.073 -0.2227 -0.1281  1.2754
12888SOL    HW245780  11.968   5.182  11.179  0.8956 -0.9407 -0.0758
12889SOL     OW45781   7.556  12.063   8.325  0.1590 -0.2255 -0.1040
12889SOL    HW145782   7.614  12.124   8.370 -0.5844  1.2959 -1.1281
12889SOL    HW245783   7.598  12.048   8.240 -1.3628  1.6856 -1.2628
12890SOL     OW45784   0.225   5.830   0.028  0.4807  0.5786 -0.0324
12890SOL    HW145785   0.192   5.740   0.035  0.3420  0.4712 -1.5831
12890SOL    HW245786   0.302   5.822  -0.029 -0.6350  1.6627 -1.7647
12891SOL     OW45787   2.855   8.200   5.107  0.2585 -0.0041  0.0029
12891SOL    HW145788   2.945   8.187   5.077 -0.0827  1.0763 -1.6921
12891SOL    HW245789   2.844   8.295   5.108 -0.4355 -0.0743  1.6485
12892SOL     OW45790   7.826   0.341   7.794 -0.0446  0.1941 -0.5358
12892SOL    HW145791   7.835   0.436   7.799 -1.0808  0.3475 -1.2023
12892SOL    HW245792   7.829   0.322   7.700 -1.3385 -0.2573 -0.4995
12893SOL     OW45793   8.403   2.146   0.157 -0.3358 -0.0714  0.2264
12893SOL    HW145794   8.472   2.205   0.188 -1.1199  0.6239  0.6912
12893SOL    HW245795   8.415   2.066   0.209  0.9886 -0.5004 -0.6933
12894SOL     OW45796   1.034   2.870  10.220 -0.2995 -0.1108 -0.4723
12894SOL    HW145797   0.943   2.883  10.246 -0.2948  1.9581 -1.3047
12894SOL    HW245798   1.071   2.816  10.289 -1.7716  0.2912  0.6911
12895SOL     OW45799  10.921  12.260   1.383 -0.1614 -0.0613  0.2511
12895SOL    HW145800  10.866  12.339   1.385  1.0677  0.9158 -1.5523
12895SOL    HW245801  10.863  12.192   1.348 -0.2457  1.0015 -1.8406
12896SOL     OW45802   7.850  10.556   3.029 -0.7609 -0.5324 -0.1662
12896SOL    HW145803   7.877  10.647   3.016  0.4482 -0.8248  0.2259
12896SOL    HW245804   7.834  10.549   3.123  0.0552 -0.9589 -0.0526
12897SOL     OW45805   9.845   5.680   9.631  0.2453 -0.8553 -0.3419
12897SOL    HW145806   9.870   5.766   9.595  2.6219 -0.6485  1.5890
12897SOL    HW245807   9.842   5.622   9.555 -1.5395  0.8728 -1.7209
12898SOL     OW45808  12.487  12.161  10.282 -0.0954 -0.7195 -0.1474
12898SOL    HW145809  12.550  12.096  10.249  0.6142  0.7370 -1.8529
12898SOL    HW245810  12.487  12.230  10.215 -2.7453 -0.1519  0.3325
12899SOL     OW45811   8.442   7.514   7.425 -0.1256 -0.1577 -0.2678
12899SOL    HW145812   8.430   7.437   7.370 -0.2666 -0.7878  0.6343
12899SOL    HW245813   8.506   7.487   7.491 -0.3138  0.4357  0.1657
12900SOL     OW45814   9.926   5.480   5.621 -0.0564 -0.1288 -0.3378
12900SOL    HW145815  10.005   5.514   5.664  0.1884  0.2414 -1.0695
12900SOL    HW245816   9.945   5.485   5.528 -0.9369 -0.0837 -0.5229
12901SOL     OW45817  12.644  12.601   8.108 -0.7447 -0.4131 -0.1895
12901SOL    HW145818  12.658  12.639   8.021 -2.3938 -0.7184 -0.6126
12901SOL    HW245819  12.697  12.521   8.108  1.1895  0.7837 -0.0000
12902SOL     OW45820   6.854   1.187   9.846  0.0454 -0.1387  0.5970
12902SOL    HW145821   6.895   1.142   9.919 -0.5148 -1.5125  0.0878
12902SOL    HW245822   6.915   1.259   9.825  2.1298 -1.9663 -0.0035
12903SOL     OW45823   6.944  12.969   1.386  0.0200  0.1181 -0.0309
12903SOL    HW145824   6.999  12.976   1.465  0.0446 -0.9369  0.0556
12903SOL    HW245825   7.007  12.963   1.314  0.0288 -0.8088  0.0437
12904SOL     OW45826   7.168   8.535   9.187 -0.5365  0.2231 -0.9211
12904SOL    HW145827   7.160   8.447   9.151  2.5114 -0.7999  0.5848
12904SOL    HW245828   7.088   8.580   9.159 -1.3460 -2.4273 -3.2617
12905SOL     OW45829   2.736   5.564   3.558 -0.2261  0.1417 -0.0625
12905SOL    HW145830   2.704   5.629   3.495  0.3454  1.9050  1.3650
12905SOL    HW245831   2.672   5.565   3.629 -0.3555 -1.0962 -0.1470
12906SOL     OW45832   4.178   1.114  10.477 -0.2389 -0.2163  0.0397
12906SOL    HW145833   4.195   1.024  10.503  0.9960 -0.2096 -0.6602
12906SOL    HW245834   4.264   1.156  10.477 -0.6705  0.7086 -0.5836
12907SOL     OW45835  10.353   0.335   7.059  0.2997 -0.2219 -0.5411
12907SOL    HW145836  10.440   0.365   7.083 -0.3360  0.6407  0.8197
12907SOL    HW245837  10.297   0.412   7.073 -0.9695 -1.2984  0.5103
12908SOL     OW45838   2.556   3.155   3.418  0.1668  0.0855  0.0832
12908SOL    HW145839   2.600   3.071   3.408 -0.1199 -0.2518  1.4882
12908SOL    HW245840   2.625   3.216   3.442  0.7001  0.7049 -2.6426
12909SOL     OW45841   3.031   5.150   8.185 -0.4726  0.2465  0.5998
12909SOL    HW145842   2.937   5.144   8.171 -0.3021  0.7292 -1.0536
12909SOL    HW245843   3.066   5.071   8.145 -0.1127  0.5383  0.3278
12910SOL     OW45844  10.057   0.356  11.291 -0.8029  0.2312 -0.3435
12910SOL    HW145845  10.074   0.263  11.278 -1.6043  0.1671 -1.0266
12910SOL    HW245846  10.022   0.362  11.380  1.0396  0.1466  0.4234
12911SOL     OW45847   2.916   2.046   0.841  0.1996 -0.3688 -0.0952
12911SOL    HW145848   2.827   2.058   0.807 -0.2058 -0.3224  0.9481
12911SOL    HW245849   2.964   2.123   0.810 -0.2454 -0.1580 -0.2699
12912SOL     OW45850   7.604   8.047  10.127  0.7264 -0.2507  0.0581
12912SOL    HW145851   7.552   7.977  10.167  0.6796  0.2908  0.9768
12912SOL    HW245852   7.545   8.087  10.063  0.4194 -0.4392  0.2194
12913SOL     OW45853  10.375   2.387   4.078  0.0317 -0.6970 -0.0393
12913SOL    HW145854  10.312   2.339   4.132 -0.5347 -0.6513 -0.6504
12913SOL    HW245855  10.322   2.454   4.034 -0.1062 -2.5849 -2.9674
12914SOL     OW45856   1.625   0.593   3.650 -0.1204 -0.4387  0.0355
12914SOL    HW145857   1.586   0.557   3.571  0.3915 -0.2107 -0.3265
12914SOL    HW245858   1.618   0.523   3.715  1.1134 -1.3055 -0.7324
12915SOL     OW45859   1.418   8.195   1.649 -0.1407 -0.4964 -0.3651
12915SOL    HW145860   1.440   8.113   1.692 -1.4476 -0.6932 -0.0260
12915SOL    HW245861   1.500   8.224   1.609  1.2439 -0.1012  2.5203
12916SOL     OW45862  12.614   0.949   3.321  0.2648 -0.1193 -0.0870
12916SOL    HW145863  12.667   0.911   3.252  0.1997  0.6026 -0.5471
12916SOL    HW245864  12.677   0.997   3.375  0.0444  1.1606 -0.9216
12917SOL     OW45865   4.774   9.068   9.987 -0.3226  0.2604 -0.8336
12917SOL    HW145866   4.803   9.113  10.066 -0.5429  0.6139 -0.9545
12917SOL    HW245867   4.691   9.110   9.964 -0.9023 -0.6943 -0.5384
12918SOL     OW45868   6.739  12.546   3.650  0.6243  0.1475 -0.2874
12918SOL    HW145869   6.690  12.476   3.694  1.4990 -0.0704  0.3712
12918SOL    HW245870   6.801  12.577   3.716  0.5729  1.2281 -0.7268
12919SOL     OW45871   4.280   2.786   4.426  0.1134  0.1912  0.1516
12919SOL    HW145872   4.223   2.719   4.389  0.2334  0.3662 -0.3556
12919SOL    HW245873   4.345   2.737   4.477 -0.3239 -0.0231  0.5111
12920SOL     OW45874   9.666   8.909   5.538 -0.3695  0.1909  0.6021
12920SOL    HW145875   9.743   8.957   5.567 -0.5225  0.6826  0.2116
12920SOL    HW245876   9.700   8.824   5.510 -0.0873  0.0923  1.2257
12921SOL     OW45877   9.470  10.695   0.944  0.0285  0.3760  0.9150
12921SOL    HW145878   9.406  10.625   0.936 -0.0549  0.6429 -1.2904
12921SOL    HW245879   9.476  10.733   0.856  1.8466  1.5675  1.4914
12922SOL     OW45880  10.056  11.497   8.369  0.3765  0.4792 -0.2327
12922SOL    HW145881  10.107  11.522   8.446 -1.9289  1.2093  1.1585
12922SOL    HW245882  10.116  11.509   8.296  1.7110  3.0199  1.1307
12923SOL     OW45883  12.708   5.735   0.663  0.4485  0.1486 -0.4288
12923SOL    HW145884  12.715   5.656   0.609  0.3356  0.7102 -1.2839
12923SOL    HW245885  12.798   5.758   0.685  0.5456  0.4187 -1.1152
12924SOL     OW45886   4.228   6.880   1.283 -0.0029 -0.0915 -0.1978
12924SOL    HW145887   4.168   6.863   1.211 -0.1009 -0.9191  0.0653
12924SOL    HW245888   4.292   6.808   1.278  0.8050  0.6189 -0.3072
12925SOL     OW45889  12.152  10.177   6.439  0.3753  0.4010 -0.3885
12925SOL    HW145890  12.200  10.099   6.413  1.8857 -0.0871  3.2452
12925SOL    HW245891  12.061  10.149   6.445  0.3437 -0.0778 -2.3577
12926SOL     OW45892  11.820  12.382   3.191  0.3847 -0.1206  0.0976
12926SOL    HW145893  11.725  12.383   3.184  0.1080 -1.5285  2.5390
12926SOL    HW245894  11.850  12.445   3.125 -2.0697 -1.3607 -2.4039
12927SOL     OW45895  10.975   1.237   3.582 -0.9322 -0.2561 -0.7001
12927SOL    HW145896  10.887   1.262   3.610 -1.2268 -2.6208  0.8088
12927SOL    HW245897  10.966   1.146   3.552  1.2020 -1.1367  1.0173
12928SOL     OW45898   4.048   8.569   1.208 -0.0839 -0.0200  0.8948
12928SOL    HW145899   3.989   8.575   1.283 -2.3284  0.0365 -0.7734
12928SOL    HW245900   4.018   8.637   1.148  1.2007 -0.5049 -0.3556
12929SOL     OW45901   5.039   0.726  11.666  0.4682 -0.1918 -0.3900
12929SOL    HW145902   4.973   0.656  11.671  1.1325 -0.7686  1.2134
12929SOL    HW245903   5.119   0.685  11.701  0.4542  1.8101  2.3165
12930SOL     OW45904   0.085  12.910   4.443  0.2716  0.5542 -0.1229
12930SOL    HW145905   0.045  12.957   4.517  2.2105 -0.7364  1.9123
12930SOL    HW245906   0.030  12.833   4.430  0.0786  0.6326  0.2137
12931SOL     OW45907   6.798   5.420   7.963  0.2233 -0.7237 -0.1256
12931SOL    HW145908   6.763   5.335   7.989 -1.4707  0.0419  0.2146
12931SOL    HW245909   6.861   5.442   8.032  1.0959 -1.9105 -0.5052
12932SOL     OW45910   8.929   2.777   5.620  0.0899 -0.0022  0.4534
12932SOL    HW145911   8.928   2.700   5.677  0.1566  0.0696  0.5509
12932SOL    HW245912   8.842   2.815   5.630  0.4391  0.6051  1.3145
12933SOL     OW45913   0.554   4.707  12.565 -0.4906 -0.1887  0.4113
12933SOL    HW145914   0.590   4.796  12.563  0.5810 -0.6210 -0.8934
12933SOL    HW245915   0.605   4.661  12.631 -0.9454  0.1001  0.9792
12934SOL     OW45916  11.120   2.919   6.130  0.4579 -0.1202  0.7473
12934SOL    HW145917  11.146   2.973   6.205 -0.9391  0.7553  0.6310
12934SOL    HW245918  11.042   2.873   6.160  0.2001 -0.1680  0.0103
12935SOL     OW45919  10.251   8.941  10.762  0.2540 -0.1762 -0.1067
12935SOL    HW145920  10.313   8.997  10.810  0.6390 -0.3738 -0.3723
12935SOL    HW245921  10.296   8.918  10.681 -0.6146  0.6260 -0.8483
12936SOL     OW45922  11.875  11.769  12.630 -0.1910  0.3318  0.4900
12936SOL    HW145923  11.782  11.776  12.652 -0.1855 -0.6039  0.8452
12936SOL    HW245924  11.878  11.713  12.552  0.0945  0.0477  0.7009
12937SOL     OW45925   2.448   4.302  12.182  0.2994 -0.1585 -0.0470
12937SOL    HW145926   2.477   4.253  12.105  2.4682 -0.0282  0.6144
12937SOL    HW245927   2.524   4.355  12.206 -0.1764 -0.4825  2.4023
12938SOL     OW45928   5.295   2.808  11.757  0.2233  0.3652  0.3669
12938SOL    HW145929   5.303   2.880  11.694 -1.0031 -0.8270 -1.2225
12938SOL    HW245930   5.255   2.848  11.833 -0.1034  1.4475 -0.3447
12939SOL     OW45931   0.328   4.212  10.341  0.8424  0.0992 -0.2532
12939SOL    HW145932   0.249   4.266  10.350  1.8363  1.4713  0.8219
12939SOL    HW245933   0.296   4.122  10.347 -0.4983  0.6314  1.8581
12940SOL     OW45934   4.824   8.191   5.532 -0.4229  0.3291  0.5220
12940SOL    HW145935   4.757   8.244   5.489 -1.1358 -1.0003 -0.0854
12940SOL    HW245936   4.858   8.246   5.602 -0.7045  1.7894 -0.4538
12941SOL     OW45937   0.198  11.132  10.021  0.2558 -0.5133 -0.2663
12941SOL    HW145938   0.132  11.201  10.018 -0.9686 -1.5432  1.2847
12941SOL    HW245939   0.160  11.064  10.078  2.1765 -1.6435 -0.2270
12942SOL     OW45940  12.164   5.426   5.794  0.3940 -0.2767  0.3364
12942SOL    HW145941  12.085   5.407   5.744 -0.3675  3.0225  0.0663
12942SOL    HW245942  12.134   5.437   5.884  0.1671  2.3292  0.0284
12943SOL     OW45943  10.135   9.687   5.031  0.2629 -0.2530 -0.0903
12943SOL    HW145944  10.162   9.603   5.068 -1.5246 -0.8379 -0.0159
12943SOL    HW245945  10.189   9.698   4.953  1.8689 -0.5191  0.9348
12944SOL     OW45946   6.245  10.954  11.133 -0.1599 -0.4091 -0.2802
12944SOL    HW145947   6.165  10.961  11.185 -0.3926 -1.3860 -0.4937
12944SOL    HW245948   6.254  11.039  11.090 -0.3147  0.1948  0.8388
12945SOL     OW45949   5.410   5.344   3.981  0.1667 -0.2769  0.0995
12945SOL    HW145950   5.424   5.328   4.074  1.9145  0.1900 -0.0431
12945SOL    HW245951   5.415   5.440   3.972 -0.5116 -0.2772 -0.4092
12946SOL     OW45952  12.584   6.882   4.122 -0.2125 -0.0071 -0.1567
12946SOL    HW145953  12.624   6.812   4.174 -0.6366 -0.0953  0.0634
12946SOL    HW245954  12.497   6.848   4.100 -0.8155  0.8444  0.8039
12947SOL     OW45955   2.336   5.145   0.822 -0.3515 -0.5529  0.2511
12947SOL    HW145956   2.340   5.179   0.733 -1.3446  1.1334  0.7979
12947SOL    HW245957   2.337   5.050   0.812 -2.9184 -0.4925 -1.7322
12948SOL     OW45958   1.437  11.258  10.820 -0.3173 -0.5936 -0.1383
12948SOL    HW145959   1.433  11.352  10.805  0.0655 -0.4494  0.5928
12948SOL    HW245960   1.347  11.227  10.805 -0.0960 -0.3981 -2.0439
12949SOL     OW45961   2.396  10.499   6.154  0.0766  0.3255 -0.3274
12949SOL    HW145962   2.320  10.500   6.096 -0.8217  1.6368  0.8029
12949SOL    HW245963   2.383  10.422   6.210 -1.3698  1.4691  0.9913
12950SOL     OW45964   7.687   3.552   5.763  0.0405 -0.7732  0.3119
12950SOL    HW145965   7.627   3.622   5.738  1.4211  0.6482  0.8235
12950SOL    HW245966   7.751   3.594   5.821  0.0543 -2.7908  1.8750
12951SOL     OW45967   8.117  12.691   7.050 -0.0156  0.0767 -0.6793
12951SOL    HW145968   8.031  12.686   7.093  0.1223 -1.8523 -0.5239
12951SOL    HW245969   8.179  12.697   7.123  0.1000 -1.1669 -0.6497
12952SOL     OW45970   1.136   8.195   1.649  0.1479 -0.3376 -0.0687
12952SOL    HW145971   1.228   8.216   1.632 -0.4066  0.5164 -2.2854
12952SOL    HW245972   1.124   8.108   1.611 -0.3483  0.2576 -1.3029
12953SOL     OW45973   2.278   0.936   2.254  0.4133  0.0041 -0.5934
12953SOL    HW145974   2.330   0.871   2.302 -0.7614 -0.8475 -0.4266
12953SOL    HW245975   2.236   0.886   2.184 -0.9737  0.4609 -0.1121
12954SOL     OW45976  12.759   5.544   1.717 -0.2072  0.0176 -0.3639
12954SOL    HW145977  12.821   5.501   1.659  0.5330 -1.7983  1.6381
12954SOL    HW245978  12.774   5.504   1.802 -1.3641  2.4243  1.0854
12955SOL     OW45979   5.400   4.622   5.581  0.3278  0.7090 -0.1214
12955SOL    HW145980   5.427   4.554   5.518  2.2749  0.4179  0.9509
12955SOL    HW245981   5.328   4.666   5.538 -0.7407 -1.7522 -1.0607
12956SOL     OW45982  12.310   2.145   0.489  0.8366  0.0461  0.4174
12956SOL    HW145983  12.253   2.087   0.539 -0.3898 -0.7714 -1.7715
12956SOL    HW245984  12.351   2.089   0.424  1.5535  1.2134 -0.1809
12957SOL     OW45985   3.865   0.870   0.768 -0.5709  0.4415 -0.0091
12957SOL    HW145986   3.958   0.858   0.783 -0.1111  1.4643 -1.7341
12957SOL    HW245987   3.830   0.782   0.756  0.4398  0.1268 -0.7198
12958SOL     OW45988   3.055  10.973   9.321 -0.0271  0.0261  0.5625
12958SOL    HW145989   3.054  10.877   9.323 -0.8598  0.0358  1.5713
12958SOL    HW245990   2.979  10.998   9.374  1.0204  1.2582  1.5258
12959SOL     OW45991  12.596  12.818  12.223  0.1197 -0.6731 -0.3699
12959SOL    HW145992  12.608  12.804  12.317  0.7166  1.6852 -0.0370
12959SOL    HW245993  12.526  12.757  12.199 -1.5185  0.0990  2.0390
12960SOL     OW45994   9.741   4.383   2.981 -0.4084  0.1774 -0.3006
12960SOL    HW145995   9.828   4.345   2.993  0.4385  2.0507 -0.1157
12960SOL    HW245996   9.701   4.331   2.911  0.8182 -0.7689 -0.3223
12961SOL     OW45997   7.340   2.339  12.460 -0.1290  0.0527 -0.1515
12961SOL    HW145998   7.394   2.266  12.430 -0.7398 -0.5562  0.2262
12961SOL    HW245999   7.381   2.366  12.542  1.7401  1.9301 -1.5906
12962SOL     OW46000   2.111   7.457   1.076 -0.1699 -0.8213 -0.1641
12962SOL    HW146001   2.043   7.409   1.123 -2.7608  1.3361 -1.4098
12962SOL    HW246002   2.156   7.509   1.143 -2.6295  0.8858  0.3120
12963SOL     OW46003   9.156   5.562   2.642 -0.0573  0.5494 -0.4972
12963SOL    HW146004   9.133   5.567   2.734 -2.3464 -1.7157 -0.8108
12963SOL    HW246005   9.073   5.576   2.596  1.2099  2.6743 -2.3031
12964SOL     OW46006   3.116   1.667  10.049  0.2640 -0.2154  0.1486
12964SOL    HW146007   3.078   1.657   9.962 -2.1315  0.3726  1.0491
12964SOL    HW246008   3.070   1.742  10.087  2.1361  0.3298  1.4947
12965SOL     OW46009  12.060   6.335   4.797  0.1178  0.0758  0.4388
12965SOL    HW146010  12.038   6.245   4.775  2.7628 -0.4531 -0.4495
12965SOL    HW246011  11.993   6.388   4.755  0.2745 -1.3537 -1.7777
12966SOL     OW46012  11.050   8.533   4.656 -0.4501  0.4576 -0.7441
12966SOL    HW146013  10.966   8.559   4.616 -1.3972  2.3385  2.1261
12966SOL    HW246014  11.025   8.476   4.729  0.8408  0.3815 -0.3400
12967SOL     OW46015   4.987   8.220   6.211 -0.0729 -0.8431 -0.1345
12967SOL    HW146016   5.034   8.181   6.138 -0.3337  0.8488 -1.2523
12967SOL    HW246017   5.050   8.281   6.250 -1.1241  1.2256 -1.4654
12968SOL     OW46018   3.319   9.594  11.558 -0.4247 -0.1050 -0.1355
12968SOL    HW146019   3.264   9.664  11.594 -2.7947 -1.8846 -0.0736
12968SOL    HW246020   3.345   9.627  11.471  1.3904  2.2088  1.1550
12969SOL     OW46021   8.591   0.112  12.023 -0.4543 -0.3414  0.9748
12969SOL    HW146022   8.641   0.178  12.072 -0.8051  0.0795  0.7765
12969SOL    HW246023   8.653   0.041  12.008  0.1250  0.2293  0.6174
12970SOL     OW46024   8.651   5.262   3.760  0.1058 -0.4668 -0.3829
12970SOL    HW146025   8.662   5.175   3.722  0.4761 -0.4336 -0.3558
12970SOL    HW246026   8.615   5.246   3.848  2.4662 -0.7539  0.6031
12971SOL     OW46027  11.266   1.754  11.106  0.0332 -0.8378  0.3368
12971SOL    HW146028  11.318   1.833  11.090  0.1036 -0.9823 -0.1889
12971SOL    HW246029  11.230   1.766  11.194 -1.2344  0.5212 -0.2987
12972SOL     OW46030   4.365   3.108   2.639 -0.0319 -0.1153  0.4353
12972SOL    HW146031   4.288   3.060   2.609  0.3483 -1.2914  1.2478
12972SOL    HW246032   4.367   3.186   2.585 -1.9127  0.0596  0.5505
12973SOL     OW46033   2.717  11.484   9.625  0.1313 -0.1867 -0.3301
12973SOL    HW146034   2.660  11.561   9.626 -0.0043 -0.2334  1.8153
12973SOL    HW246035   2.793  11.512   9.575 -0.6804  0.7348 -1.1043
12974SOL     OW46036   2.377   5.764   0.216  0.4926  0.2641  0.3078
12974SOL    HW146037   2.372   5.851   0.255 -0.0165 -0.1314  1.1574
12974SOL    HW246038   2.339   5.706   0.281 -0.1140 -0.4666 -0.6661
12975SOL     OW46039   7.157   1.659   5.078 -0.1021  0.0070  0.4738
12975SOL    HW146040   7.232   1.704   5.040 -0.2169 -0.2074 -0.0190
12975SOL    HW246041   7.081   1.701   5.038 -0.2069 -0.8268 -0.2465
12976SOL     OW46042  12.062   4.328  11.544  0.6369  0.0671 -0.2765
12976SOL    HW146043  12.148   4.335  11.586  1.1380 -1.1621 -1.0344
12976SOL    HW246044  12.053   4.235  11.523 -0.6782  0.2549 -0.6388
12977SOL     OW46045  10.974   8.653   1.291  0.3334  0.4573  0.5013
12977SOL    HW146046  10.992   8.667   1.197 -0.3359 -1.1458  0.1075
12977SOL    HW246047  11.033   8.582   1.316 -0.7575 -0.3624  0.8216
12978SOL     OW46048   9.530  12.606   6.817 -0.0838 -0.1501 -0.1138
12978SOL    HW146049   9.493  12.694   6.806  1.6073  0.4612 -1.6302
12978SOL    HW246050   9.470  12.561   6.875 -0.6965  2.2179  1.2302
12979SOL     OW46051  11.510   0.785   9.171  0.2081 -0.2028 -0.3049
12979SOL    HW146052  11.522   0.880   9.165 -2.4192  0.2135 -0.5338
12979SOL    HW246053  11.485   0.760   9.082 -0.3397 -0.8824  0.0357
12980SOL     OW46054   4.573   1.741   6.399 -0.1873  0.1265 -0.1597
12980SOL    HW146055   4.659   1.753   6.440 -0.0291 -1.0137 -0.1238
12980SOL    HW246056   4.563   1.817   6.343  0.5584  0.6116  0.3388
12981SOL     OW46057   2.691   7.321  10.922  0.0334 -0.4225 -0.3317
12981SOL    HW146058   2.768   7.376  10.940 -0.4366  1.3098 -2.9229
12981SOL    HW246059   2.721   7.261  10.854 -0.9404  0.6225 -1.7581
12982SOL     OW46060   1.995   3.714   3.816 -0.3692  0.5203  0.2988
12982SOL    HW146061   2.046   3.788   3.784 -0.2571  0.7897  1.0707
12982SOL    HW246062   2.055   3.668   3.876 -0.1832 -0.6239 -0.7208
12983SOL     OW46063   5.061  12.945   0.516 -0.4739  0.0737 -0.1039
12983SOL    HW146064   5.054  12.911   0.605 -1.0495  0.4610  0.0044
12983SOL    HW246065   5.086  12.870   0.463 -0.1368 -0.1620  0.3785
12984SOL     OW46066   5.401  10.859   3.746  0.1974  0.3427  0.4752
12984SOL    HW146067   5.458  10.833   3.819  1.2964  0.3694 -0.3477
12984SOL    HW246068   5.409  10.954   3.743 -0.6111  0.4370  0.9095
12985SOL     OW46069   7.692   0.520   4.305  0.2648 -0.4884 -0.1955
12985SOL    HW146070   7.706   0.491   4.215 -0.7326 -0.9955 -0.2063
12985SOL    HW246071   7.611   0.571   4.302 -0.2128 -1.1714  0.5362
12986SOL     OW46072   3.360   4.017   7.022 -0.2627 -0.3334 -0.3902
12986SOL    HW146073   3.396   4.103   7.042 -2.2515  0.3399  0.5644
12986SOL    HW246074   3.385   3.963   7.097 -1.2017  0.1328  0.2765
12987SOL     OW46075   9.348   1.360  10.358 -0.2793  0.3065 -0.0539
12987SOL    HW146076   9.282   1.410  10.311 -0.3392  0.5431  0.2823
12987SOL    HW246077   9.396   1.314  10.289 -0.5494  0.4271 -0.3259
12988SOL     OW46078   8.051   2.810   9.681 -0.0184 -0.6435  0.1561
12988SOL    HW146079   8.116   2.753   9.721  1.2058 -0.0174 -0.8903
12988SOL    HW246080   8.035   2.773   9.594  0.1867  0.1314 -0.2231
12989SOL     OW46081   8.843  10.689   4.239  1.0341  0.5375  0.1333
12989SOL    HW146082   8.850  10.739   4.157  1.1806 -1.2028 -0.9739
12989SOL    HW246083   8.750  10.666   4.245  1.1439  0.0773  0.0849
12990SOL     OW46084   3.455   5.677   0.485 -0.2530 -0.0391  0.4533
12990SOL    HW146085   3.458   5.761   0.532 -2.5146 -1.2496  3.0016
12990SOL    HW246086   3.545   5.665   0.453  0.3239  2.9615  0.6303
12991SOL     OW46087   7.121   4.507  11.711 -0.0477  0.5587  0.2358
12991SOL    HW146088   7.156   4.465  11.632 -2.0958 -0.7325 -0.0648
12991SOL    HW246089   7.046   4.558  11.680  0.0948  1.3506  1.1465
12992SOL     OW46090   2.091   1.820   0.062 -0.2746  0.4026  0.0158
12992SOL    HW146091   2.021   1.872   0.021 -0.6421 -0.9774 -1.1719
12992SOL    HW246092   2.051   1.735   0.078  0.6258  0.1578  0.9994
12993SOL     OW46093   7.786   3.114   3.603  0.2308 -0.4055  0.0057
12993SOL    HW146094   7.850   3.053   3.637  0.0859 -1.0574 -0.8512
12993SOL    HW246095   7.701   3.082   3.634  0.1966 -0.3334 -0.0100
12994SOL     OW46096   9.430   1.380   0.969 -0.1507  0.1547  0.6270
12994SOL    HW146097   9.389   1.402   1.053 -1.2639  0.5725 -0.0046
12994SOL    HW246098   9.517   1.418   0.973 -0.4169  0.6986  1.3548
12995SOL     OW46099   6.031   2.574   5.330 -0.1231 -0.4777  0.3338
12995SOL    HW146100   6.067   2.559   5.242  2.2889 -0.9254  1.3228
12995SOL    HW246101   5.973   2.499   5.345  0.2274 -0.9314 -0.4811
12996SOL     OW46102   4.961   5.414  10.022  0.1749  0.0304  0.0764
12996SOL    HW146103   4.994   5.352   9.956  3.3105  1.1935  0.3670
12996SOL    HW246104   4.964   5.364  10.104  2.2304  0.3082  0.2315
12997SOL     OW46105   3.945   4.428   5.362 -0.7902  0.2663 -0.5746
12997SOL    HW146106   3.913   4.486   5.431 -0.4897  1.7022 -1.5950
12997SOL    HW246107   3.866   4.384   5.330 -0.9065 -0.5700  0.7780
12998SOL     OW46108   1.963   0.851  10.538  0.5774 -0.7496 -0.3154
12998SOL    HW146109   2.012   0.777  10.574  0.8684 -0.6589 -0.5229
12998SOL    HW246110   1.994   0.926  10.588 -0.3611 -0.8902  0.5064
12999SOL     OW46111   5.869   1.998  11.297 -0.4839 -0.3532  0.0747
12999SOL    HW146112   5.815   1.946  11.237  0.0941 -1.4922  0.5251
12999SOL    HW246113   5.954   2.003  11.254 -0.8215  1.2245 -0.5102
13000SOL     OW46114  11.056   0.319   8.054 -0.1230  0.3347 -0.2994
13000SOL    HW146115  10.998   0.245   8.036 -0.1796  0.0620  0.9565
13000SOL    HW246116  11.013   0.394   8.012 -1.1964  0.0639  0.3032
13001SOL     OW46117  10.940   7.930   9.557 -0.1847  0.1964 -0.7572
13001SOL    HW146118  10.855   7.902   9.522  0.6295 -0.7342 -2.1016
13001SOL    HW246119  10.997   7.932   9.481  1.3699 -0.6770  0.3344
13002SOL     OW46120   7.549  12.490   6.951 -0.2630 -0.1382  0.5114
13002SOL    HW146121   7.542  12.542   7.031 -0.1727  2.5159 -1.0703
13002SOL    HW246122   7.639  12.505   6.921 -0.8550  0.5634 -1.0470
13003SOL     OW46123  11.831   8.746   2.806 -0.3755 -0.3990  0.0377
13003SOL    HW146124  11.797   8.695   2.880  0.3326 -0.0441  0.6205
13003SOL    HW246125  11.903   8.797   2.843  1.2858 -1.6638 -1.2824
13004SOL     OW46126  10.603   9.330  10.116 -0.8759  0.3877 -0.0073
13004SOL    HW146127  10.585   9.354  10.026 -0.7626  0.7556  0.0650
13004SOL    HW246128  10.695   9.302  10.116 -1.1653 -0.5961 -0.1973
13005SOL     OW46129   6.123   6.728   9.689 -0.7819  0.5384 -0.3076
13005SOL    HW146130   6.053   6.694   9.633  0.7250 -2.7153 -0.4718
13005SOL    HW246131   6.133   6.661   9.757  0.9005  1.8313  0.7948
13006SOL     OW46132   6.066  11.851  12.683 -0.1455  0.3928 -0.6204
13006SOL    HW146133   6.051  11.757  12.676  0.5736 -0.0017  1.9017
13006SOL    HW246134   5.978  11.889  12.685 -0.6837 -0.7060  2.4212
13007SOL     OW46135   5.967  12.951   7.305  0.2810 -0.0127  0.1059
13007SOL    HW146136   5.971  13.027   7.246  0.3527 -1.1700 -1.4378
13007SOL    HW246137   6.046  12.902   7.286  1.3507  0.5423  2.6260
13008SOL     OW46138   9.606   8.196   7.025 -0.8870 -0.0354 -0.2698
13008SOL    HW146139   9.578   8.205   6.934 -1.7447  2.9270  0.1846
13008SOL    HW246140   9.596   8.283   7.062  1.1420 -0.7483  2.2281
13009SOL     OW46141   0.112   4.568  11.983  0.8010 -0.4239 -0.2102
13009SOL    HW146142   0.202   4.535  11.987  1.0025  0.1773  0.6773
13009SOL    HW246143   0.073   4.543  12.067  0.4873  0.2354 -0.1482
13010SOL     OW46144   3.219   1.563  11.934 -0.3315  0.1513  0.1113
13010SOL    HW146145   3.279   1.600  11.999 -0.3335 -0.7970  0.6665
13010SOL    HW246146   3.139   1.544  11.982  0.2797 -2.2466  0.2885
13011SOL     OW46147   8.144   8.301   1.577 -0.2154 -0.1706  0.1226
13011SOL    HW146148   8.120   8.220   1.623 -0.0124 -0.3290 -0.0458
13011SOL    HW246149   8.097   8.370   1.623 -2.1443 -0.6215 -1.0782
13012SOL     OW46150   7.130   0.534   6.545 -1.5464 -0.9404  0.5008
13012SOL    HW146151   7.140   0.466   6.611  0.7404 -1.0060  0.1798
13012SOL    HW246152   7.200   0.517   6.482 -1.4020  1.2403 -0.0230
13013SOL     OW46153   8.056   6.999  12.747  0.1339 -0.0769  0.5463
13013SOL    HW146154   8.103   7.057  12.807  2.1860 -1.8233  0.7403
13013SOL    HW246155   8.116   6.986  12.673  0.2890 -2.7838  1.0325
13014SOL     OW46156   6.113   4.439   7.646  0.6027 -0.0512 -0.2429
13014SOL    HW146157   6.057   4.442   7.724 -1.1271 -2.0110 -1.2875
13014SOL    HW246158   6.078   4.507   7.589  0.3991 -0.1109 -0.1921
13015SOL     OW46159   8.701   3.930  12.750 -0.3790  0.1743 -0.1115
13015SOL    HW146160   8.766   3.953  12.685  0.7296 -0.6826  0.6389
13015SOL    HW246161   8.690   4.009  12.803 -0.3287  0.4788 -0.5529
13016SOL     OW46162   2.512  11.762   8.579  0.2072 -0.0459  1.1016
13016SOL    HW146163   2.569  11.706   8.633  0.9742  0.1407  0.4968
13016SOL    HW246164   2.553  11.848   8.583 -0.8498  0.4451  1.8440
13017SOL     OW46165   4.640  10.466   1.216  0.2819 -0.3687  0.5700
13017SOL    HW146166   4.678  10.527   1.279 -0.1481 -0.2299  0.7015
13017SOL    HW246167   4.683  10.383   1.234  0.3820 -0.2584  0.8471
13018SOL     OW46168   7.134   4.751  10.502  0.7234  0.0477  0.4518
13018SOL    HW146169   7.056   4.806  10.508  1.4360  1.0588  0.6482
13018SOL    HW246170   7.204   4.811  10.478  1.7444 -0.5877  1.7387
13019SOL     OW46171   8.680   9.832   1.203 -0.3056 -0.2479 -0.0514
13019SOL    HW146172   8.660   9.870   1.118 -1.8784  1.8918  1.1706
13019SOL    HW246173   8.763   9.872   1.229  0.2579 -1.0263 -0.6105
13020SOL     OW46174   0.829  11.244   0.873 -0.2828 -0.2202 -0.1942
13020SOL    HW146175   0.900  11.240   0.809 -0.7150  0.1964 -0.7120
13020SOL    HW246176   0.797  11.154   0.879  0.9468 -0.6108  0.8122
13021SOL     OW46177  11.586  12.174  10.394 -0.4599  0.1224  0.2882
13021SOL    HW146178  11.550  12.189  10.307 -2.3016  0.6861  1.1055
13021SOL    HW246179  11.510  12.155  10.449  0.7516 -1.2932  1.5787
13022SOL     OW46180   8.629   4.367   4.709  0.2923 -0.1179  0.1509
13022SOL    HW146181   8.723   4.349   4.708  0.1591 -1.0381 -2.0041
13022SOL    HW246182   8.603   4.355   4.800  1.8210 -2.4314  0.3627
13023SOL     OW46183   7.060   2.470   1.466 -0.4817 -0.5189 -0.5991
13023SOL    HW146184   6.975   2.508   1.442 -1.5628 -0.6938  2.5040
13023SOL    HW246185   7.046   2.376   1.460 -0.9421 -0.5821  1.0375
13024SOL     OW46186   9.969   3.416   9.322 -0.4103  0.3022  0.3016
13024SOL    HW146187   9.891   3.450   9.276  0.3749 -0.2802 -1.5528
13024SOL    HW246188   9.977   3.473   9.399 -0.6332  2.7119 -1.3201
13025SOL     OW46189   3.424  12.359   1.019  0.2766 -0.0062  0.1302
13025SOL    HW146190   3.492  12.425   1.024  0.4488 -0.1593 -0.1562
13025SOL    HW246191   3.345  12.402   1.052  0.0769  0.7479 -1.2568
13026SOL     OW46192   3.182   9.410   9.491  0.0911  0.4716  0.1854
13026SOL    HW146193   3.126   9.376   9.422 -1.0133  0.3505  1.1101
13026SOL    HW246194   3.200   9.334   9.547 -0.0441  0.8029  0.6923
13027SOL     OW46195  12.826   1.281  12.356 -0.3479  0.1621  0.4766
13027SOL    HW146196  12.735   1.263  12.378 -0.2674  1.9021  2.5767
13027SOL    HW246197  12.877   1.227  12.416  0.1000 -1.4683 -1.2620
13028SOL     OW46198   5.760   6.346   7.867 -0.1403  0.1726 -0.1766
13028SOL    HW146199   5.672   6.319   7.840  0.0333  0.4221 -1.0562
13028SOL    HW246200   5.746   6.395   7.948 -0.6384 -1.0324  0.4854
13029SOL     OW46201   6.688   2.561  10.063 -0.0627  0.3197 -0.3513
13029SOL    HW146202   6.757   2.497  10.080 -1.4175 -1.3008 -0.6970
13029SOL    HW246203   6.608   2.520  10.098 -0.9331  1.9655 -0.3127
13030SOL     OW46204   6.483   0.490  11.786 -0.3151 -0.0912  0.0273
13030SOL    HW146205   6.527   0.568  11.754 -2.5168  1.0270 -0.4963
13030SOL    HW246206   6.554   0.428  11.805  1.3973  1.3741 -1.2329
13031SOL     OW46207   7.638   4.487   8.970 -0.4876  0.1067  0.2406
13031SOL    HW146208   7.649   4.393   8.965 -2.1821 -0.0971 -0.5382
13031SOL    HW246209   7.617   4.504   9.062  0.1230 -0.2203  0.4448
13032SOL     OW46210   3.784   5.301  12.287 -0.1384  0.1425 -0.3850
13032SOL    HW146211   3.786   5.328  12.195 -0.1353 -0.4640 -0.5669
13032SOL    HW246212   3.876   5.294  12.312 -0.1324 -0.4957 -0.5787
13033SOL     OW46213   8.044   7.669   5.313  0.0819  0.2511  0.0026
13033SOL    HW146214   8.077   7.703   5.395 -1.8565  2.3515  0.0073
13033SOL    HW246215   7.955   7.639   5.333  0.6448 -2.1339 -0.7066
13034SOL     OW46216   1.590   9.923   3.228 -0.2689  0.2999  0.1096
13034SOL    HW146217   1.500   9.912   3.258 -0.3908  0.7435 -0.0786
13034SOL    HW246218   1.643   9.899   3.304 -0.5520  0.3135  0.3146
13035SOL     OW46219  12.771  10.178   9.187 -0.4912  0.2453  0.8022
13035SOL    HW146220  12.835  10.117   9.224 -0.6729 -0.3978  0.0810
13035SOL    HW246221  12.700  10.181   9.252 -1.0063 -1.2042  0.3367
13036SOL     OW46222  11.233   0.361   1.541 -0.3918 -0.7259  0.1305
13036SOL    HW146223  11.221   0.270   1.514  0.0030 -1.0557  1.0516
13036SOL    HW246224  11.226   0.360   1.636 -0.1147  0.1693  0.1744
13037SOL     OW46225  12.849   4.382   9.227  0.3525  0.1724  0.3823
13037SOL    HW146226  12.943   4.395   9.241  0.4654 -0.5281  0.3492
13037SOL    HW246227  12.818   4.465   9.191  0.7401  0.7888  1.4433
13038SOL     OW46228   4.059   0.189   9.702  0.6072 -0.4149  0.3715
13038SOL    HW146229   3.971   0.182   9.741 -0.5939 -0.8135 -2.2216
13038SOL    HW246230   4.065   0.280   9.672 -0.0397 -1.0102 -1.7498
13039SOL     OW46231  10.842   5.100  10.534 -0.1452 -0.6603  0.1126
13039SOL    HW146232  10.825   5.033  10.467 -2.5307  1.5087 -1.6282
13039SOL    HW246233  10.777   5.168  10.517  1.9452  1.9981  1.9932
13040SOL     OW46234   7.261   7.687   4.262 -0.0777 -0.8414  0.2306
13040SOL    HW146235   7.242   7.607   4.311  0.3067 -1.0954 -0.0258
13040SOL    HW246236   7.329   7.731   4.314  0.3692 -1.1377 -0.0937
13041SOL     OW46237  11.486  11.841   5.236  0.4913 -0.6918  0.2740
13041SOL    HW146238  11.406  11.817   5.190  1.0263  1.2093 -1.8182
13041SOL    HW246239  11.468  11.928   5.273  1.4097 -0.4394  0.1594
13042SOL     OW46240   3.842   1.890   0.731  0.3947  0.1694 -0.3226
13042SOL    HW146241   3.932   1.900   0.701  0.2991 -0.2042 -0.7465
13042SOL    HW246242   3.848   1.831   0.806  0.7595  1.9322  1.1098
13043SOL     OW46243  11.465   3.166  12.552  0.4287 -0.0272  0.3791
13043SOL    HW146244  11.403   3.153  12.480  2.7267 -2.1833 -1.3946
13043SOL    HW246245  11.470   3.261  12.561 -1.7779  0.2581 -0.5759
13044SOL     OW46246  12.002   2.378   0.249  0.1197 -0.0963 -0.2835
13044SOL    HW146247  11.988   2.304   0.191  2.0508 -0.4881 -0.3092
13044SOL    HW246248  12.024   2.339   0.333 -3.2750  0.4476  1.0147
13045SOL     OW46249   3.712   7.393  12.792  0.1050  0.5730 -0.2662
13045SOL    HW146250   3.657   7.373  12.868 -0.7410 -0.3284 -1.0922
13045SOL    HW246251   3.705   7.487  12.781 -2.2421  0.3578 -1.0467
13046SOL     OW46252   6.232   3.628  11.965  0.0228  0.3237 -0.3576
13046SOL    HW146253   6.246   3.540  12.000 -1.5170  0.2176  0.0556
13046SOL    HW246254   6.144   3.625  11.927  0.4982  1.2933 -1.5864
13047SOL     OW46255   3.838   5.351  12.004 -0.0131  0.3775 -0.1566
13047SOL    HW146256   3.805   5.411  11.937  0.8577  0.4046 -0.5817
13047SOL    HW246257   3.885   5.283  11.954 -3.5124 -2.4642  0.0433
13048SOL     OW46258   0.034   2.704   0.575  0.3342  0.4474 -0.1158
13048SOL    HW146259  -0.034   2.688   0.641  0.2751  0.5275 -0.1575
13048SOL    HW246260   0.114   2.671   0.614 -0.1363 -1.9805 -1.0263
13049SOL     OW46261  12.891  11.958  12.083 -0.3894  0.0922  0.7112
13049SOL    HW146262  12.906  11.923  11.995  0.2029  2.0143  0.0029
13049SOL    HW246263  12.933  11.894  12.141  2.3127  0.4791 -0.6382
13050SOL     OW46264  11.147   8.422   9.856 -0.1854  0.4198  0.0558
13050SOL    HW146265  11.199   8.415   9.776 -0.1781  0.8003  0.0243
13050SOL    HW246266  11.182   8.499   9.901  1.9886 -1.5703  2.0410
13051SOL     OW46267  10.900   4.899  12.907 -0.0371  0.2255  0.1653
13051SOL    HW146268  10.977   4.925  12.858 -0.0928  0.0021 -0.0406
13051SOL    HW246269  10.915   4.806  12.927 -0.7756 -0.1362 -0.8703
13052SOL     OW46270  10.692   3.052  10.563  0.1607 -0.7914  0.4776
13052SOL    HW146271  10.693   3.071  10.657 -0.3387 -0.0788  0.3453
13052SOL    HW246272  10.718   2.960  10.557 -0.0436 -0.9126  1.3276
13053SOL     OW46273   8.741   4.478  11.323 -0.5949  0.0253  0.1881
13053SOL    HW146274   8.832   4.448  11.314 -0.9111 -1.4178  1.3232
13053SOL    HW246275   8.702   4.417  11.386 -2.5881  0.0813 -0.9101
13054SOL     OW46276   0.196  10.679   7.666 -0.2535  0.4682  1.0457
13054SOL    HW146277   0.110  10.652   7.699 -0.7699  0.5471 -0.1715
13054SOL    HW246278   0.252  10.680   7.744 -1.0029 -0.9413  1.6483
13055SOL     OW46279   8.832   1.182  10.496 -0.6735 -0.4502 -0.0440
13055SOL    HW146280   8.848   1.244  10.567 -1.5357 -2.3344  1.8944
13055SOL    HW246281   8.775   1.230  10.435 -0.8540  0.8547  1.0866
13056SOL     OW46282   8.808  10.185   2.320  0.2325  0.6145  0.3891
13056SOL    HW146283   8.849  10.218   2.400 -1.0343  1.5197  0.7000
13056SOL    HW246284   8.715  10.202   2.332 -0.2973 -1.5553 -0.2069
13057SOL     OW46285   3.710   2.044   0.077  0.6218  0.1698  0.3858
13057SOL    HW146286   3.691   2.123   0.128  0.2591  1.3918 -1.5499
13057SOL    HW246287   3.747   1.983   0.141  1.2868  2.0372  1.8814
13058SOL     OW46288   3.830   8.898   3.239  0.2160  0.3285  0.3160
13058SOL    HW146289   3.787   8.971   3.193 -2.9663 -1.5980 -0.0696
13058SOL    HW246290   3.870   8.846   3.169 -1.1927 -0.4840  0.0766
13059SOL     OW46291  10.405  10.990   7.880  0.0911 -0.3858  0.2804
13059SOL    HW146292  10.319  11.024   7.905  0.5653 -0.1955  1.7247
13059SOL    HW246293  10.464  11.064   7.893  0.4287 -0.3568 -1.1947
13060SOL     OW46294   9.184   5.158  11.374 -0.0933  0.1809 -0.0650
13060SOL    HW146295   9.151   5.166  11.463  0.5616 -1.7719  0.3871
13060SOL    HW246296   9.277   5.137  11.384 -0.0198 -0.1026 -1.1956
13061SOL     OW46297   4.725   9.849   3.129 -0.0665 -0.3577  0.6017
13061SOL    HW146298   4.672   9.907   3.184  1.0546  2.1157 -0.7344
13061SOL    HW246299   4.773   9.908   3.071  1.1840 -2.6708 -0.9061
13062SOL     OW46300  11.110   1.950   2.062  0.3387 -0.2850 -0.0286
13062SOL    HW146301  11.154   1.893   2.126 -0.7474  1.4409  2.4109
13062SOL    HW246302  11.126   2.038   2.095 -1.0617  0.6246 -1.6670
13063SOL     OW46303   6.751   8.650   3.191  0.1855 -0.6005  0.1746
13063SOL    HW146304   6.755   8.742   3.219  1.0614 -0.6573  0.2798
13063SOL    HW246305   6.687   8.649   3.120  1.3005  0.3966 -0.9007
13064SOL     OW46306   6.931   8.286   0.386  0.3596 -0.4940 -0.1356
13064SOL    HW146307   6.967   8.197   0.386  0.7829 -0.3279  0.2662
13064SOL    HW246308   6.986   8.334   0.448  0.1077  0.0387 -0.3189
13065SOL     OW46309  12.318   3.799  10.229 -0.4082 -0.2696 -0.4325
13065SOL    HW146310  12.263   3.757  10.163  0.5899 -1.9559 -0.2397
13065SOL    HW246311  12.264   3.800  10.308 -0.4892 -1.0852 -0.4730
13066SOL     OW46312  11.252   2.671  10.189  0.5151 -0.0851  0.0849
13066SOL    HW146313  11.231   2.684  10.097 -1.1976 -0.2950  0.4163
13066SOL    HW246314  11.266   2.577  10.197  1.3271  0.0139 -0.0712
13067SOL     OW46315   4.817   3.348   6.086  0.3510  0.4302 -1.0153
13067SOL    HW146316   4.791   3.273   6.140  0.0416  1.1085 -0.1974
13067SOL    HW246317   4.879   3.311   6.022  2.0130 -0.1339  0.8095
13068SOL     OW46318  10.788   0.547  10.715  0.4900 -0.0228 -0.4634
13068SOL    HW146319  10.843   0.470  10.697  0.4701 -0.0999 -0.1933
13068SOL    HW246320  10.752   0.571  10.629 -0.8160 -1.3158 -0.3095
13069SOL     OW46321   7.804   1.678   9.887 -0.8120  0.3183 -0.1288
13069SOL    HW146322   7.773   1.661   9.798 -3.5098  0.8027  0.6392
13069SOL    HW246323   7.888   1.723   9.875 -0.0559 -1.4769 -2.3507
13070SOL     OW46324   1.817   9.144   9.288 -0.4040  0.0910 -0.5541
13070SOL    HW146325   1.791   9.227   9.248  1.4919  0.9346 -0.1683
13070SOL    HW246326   1.737   9.108   9.325 -1.1167  2.2516  0.1170
13071SOL     OW46327  10.394   1.392  10.071  0.0942 -0.4558  0.0708
13071SOL    HW146328  10.470   1.374  10.127  0.1405 -1.1390 -0.2057
13071SOL    HW246329  10.376   1.309  10.027 -0.7098 -0.2538  0.0014
13072SOL     OW46330  11.323   4.043   0.168 -0.5752  0.2927  0.6217
13072SOL    HW146331  11.412   4.058   0.200  0.7284 -0.6816 -2.2053
13072SOL    HW246332  11.289   4.130   0.148  0.4067  0.5869  0.1748
13073SOL     OW46333  11.708   0.299   1.110  0.0963 -0.7762 -0.1533
13073SOL    HW146334  11.771   0.232   1.135  1.0979 -0.7378 -2.3357
13073SOL    HW246335  11.762   0.370   1.075 -1.1045 -0.9436 -2.5474
13074SOL     OW46336   4.428   6.731   5.670 -0.0543  0.5287 -0.0412
13074SOL    HW146337   4.451   6.739   5.762 -0.1266 -0.8881  0.1086
13074SOL    HW246338   4.339   6.695   5.670  0.9482 -2.1454 -0.6285
13075SOL     OW46339   0.710   3.051   1.556 -0.2998 -0.8209  0.2630
13075SOL    HW146340   0.644   3.104   1.510 -1.8229 -0.7171  2.3752
13075SOL    HW246341   0.753   3.113   1.615 -0.0790 -1.3681  0.6863
13076SOL     OW46342   9.185  10.581   4.511 -0.3225  0.3967  0.3351
13076SOL    HW146343   9.097  10.619   4.516 -0.7166  0.4239 -3.7315
13076SOL    HW246344   9.169  10.486   4.512 -0.4165  0.4019 -0.4289
13077SOL     OW46345   5.131   7.195   7.429  0.1089 -0.0149  0.0330
13077SOL    HW146346   5.181   7.272   7.402  0.0553  0.4860  1.2666
13077SOL    HW246347   5.187   7.151   7.493  0.3184 -1.2663 -0.9687
13078SOL     OW46348  10.523   1.667   6.801  0.1038  0.4059 -0.2999
13078SOL    HW146349  10.475   1.688   6.721 -0.9283 -1.9341 -0.3770
13078SOL    HW246350  10.610   1.642   6.771 -0.7439 -2.0423 -0.9652
13079SOL     OW46351   8.436   9.111   2.019 -0.2312 -0.0216  0.3158
13079SOL    HW146352   8.403   9.092   1.931 -0.7558 -0.9026  0.6811
13079SOL    HW246353   8.498   9.040   2.038 -0.0578  0.2054  0.6239
13080SOL     OW46354   2.112   3.991   8.982  0.0896  0.5647  0.1541
13080SOL    HW146355   2.025   4.030   8.975  0.5010  1.5264  0.2958
13080SOL    HW246356   2.168   4.044   8.926  0.3487 -0.8306 -0.9666
13081SOL     OW46357   9.649   1.056  11.046 -0.0380 -0.4911 -0.2891
13081SOL    HW146358   9.697   1.019  10.973  2.3983  0.5130  0.7143
13081SOL    HW246359   9.600   1.129  11.008  1.2021  0.0255 -0.9495
13082SOL     OW46360   6.787   4.258  11.034  0.3670 -0.0406 -0.2510
13082SOL    HW146361   6.766   4.235  10.943  0.5869  0.0372 -0.3199
13082SOL    HW246362   6.875   4.293  11.031 -0.1227  1.2317 -0.2053
13083SOL     OW46363   5.355   7.582   3.954 -0.0248  0.6543 -0.3829
13083SOL    HW146364   5.408   7.530   3.893  1.1518  3.5618 -2.0267
13083SOL    HW246365   5.416   7.608   4.023 -0.6758 -0.3295  0.5853
13084SOL     OW46366   9.185   6.172   3.968  0.1143  0.0726 -0.5611
13084SOL    HW146367   9.193   6.090   3.918 -0.1221 -0.4988  0.3185
13084SOL    HW246368   9.101   6.208   3.941 -1.5171 -1.7799  1.5907
13085SOL     OW46369   1.109   6.552   4.931 -0.4036  0.6575  0.3220
13085SOL    HW146370   1.022   6.578   4.964 -0.9237 -1.5634  0.8284
13085SOL    HW246371   1.151   6.512   5.007 -0.1305 -1.0476 -0.7029
13086SOL     OW46372  12.623   7.252   4.944 -0.4641 -0.5382 -0.0696
13086SOL    HW146373  12.701   7.279   4.897 -1.2597  0.5090 -0.8390
13086SOL    HW246374  12.656   7.217   5.027  0.8699 -1.1554 -0.8353
13087SOL     OW46375   8.535   0.531   4.324  0.3519 -0.3057  0.2625
13087SOL    HW146376   8.571   0.450   4.288 -0.7529  0.1721 -2.1209
13087SOL    HW246377   8.610   0.576   4.363  1.9775 -0.3903 -2.4883
13088SOL     OW46378   5.846   0.633   5.666 -0.1548 -0.4520  0.5874
13088SOL    HW146379   5.913   0.685   5.710 -0.8488 -0.2622  1.4497
13088SOL    HW246380   5.794   0.595   5.737 -0.3975 -1.3515 -0.0486
13089SOL     OW46381   0.466   7.952   3.902  0.3791  0.6536 -0.0382
13089SOL    HW146382   0.507   7.993   3.978  1.1268  0.6534 -0.4334
13089SOL    HW246383   0.501   8.001   3.827  0.2040  0.1848 -0.4288
13090SOL     OW46384   8.097   1.503   6.091  0.2177 -0.1457 -0.0274
13090SOL    HW146385   8.087   1.595   6.070  0.2749 -0.2031 -0.3061
13090SOL    HW246386   8.026   1.484   6.153  0.2846  0.1131  0.1276
13091SOL     OW46387  12.199  10.746   3.763 -0.4013 -0.5525 -0.3041
13091SOL    HW146388  12.192  10.794   3.680 -0.3414  0.4129  0.2426
13091SOL    HW246389  12.262  10.677   3.745 -0.0987 -0.1155 -0.9619
13092SOL     OW46390  10.700   7.531   6.788  0.0008  0.1080 -0.0715
13092SOL    HW146391  10.697   7.486   6.872  0.4251 -1.4290 -0.8396
13092SOL    HW246392  10.619   7.505   6.744  0.2241  0.1553 -0.5085
13093SOL     OW46393   6.003  12.278   1.069  0.2753 -0.2656 -0.1513
13093SOL    HW146394   6.008  12.361   1.116  1.4285 -0.8715  0.8520
13093SOL    HW246395   6.037  12.213   1.131  0.5518 -1.2997 -1.3415
13094SOL     OW46396   3.604   6.760   8.354 -0.2120  0.2146  0.1404
13094SOL    HW146397   3.514   6.748   8.324  0.2971 -2.8367 -0.4822
13094SOL    HW246398   3.595   6.782   8.447 -1.6085 -0.0947  0.1128
13095SOL     OW46399   9.391   5.914   3.870  0.6232  0.2562  0.2757
13095SOL    HW146400   9.321   5.848   3.870 -0.7665  1.6259  1.5254
13095SOL    HW246401   9.468   5.868   3.902  0.1152 -1.1291 -0.4272
13096SOL     OW46402   8.625   8.287   0.203  0.3468  0.6675  0.3331
13096SOL    HW146403   8.539   8.325   0.219  0.0834 -0.5848  2.2691
13096SOL    HW246404   8.671   8.297   0.287  1.1449 -0.9870  0.1292
13097SOL     OW46405   8.498   9.120   2.636  0.3972  0.4949 -0.4053
13097SOL    HW146406   8.488   9.206   2.675 -2.8247  0.0740 -0.0336
13097SOL    HW246407   8.446   9.062   2.691  2.4738 -1.7617 -0.6315
13098SOL     OW46408   0.415   0.106   9.918 -0.0879 -0.1544  0.1881
13098SOL    HW146409   0.421   0.200   9.937 -2.0788 -0.1700  1.1908
13098SOL    HW246410   0.370   0.101   9.834 -0.3129 -0.2239  0.3136
13099SOL     OW46411   4.016  11.201   5.646  0.1321 -0.0955  0.2891
13099SOL    HW146412   4.060  11.154   5.575  0.5354  0.2003  0.3399
13099SOL    HW246413   3.930  11.223   5.609 -0.2637 -1.2877  0.4342
13100SOL     OW46414   4.092   2.661   7.963 -0.6410 -0.4864  0.5451
13100SOL    HW146415   4.122   2.570   7.961  0.2111 -0.3183  2.6538
13100SOL    HW246416   4.151   2.708   7.904 -0.6101 -1.1782  0.0190
13101SOL     OW46417  12.521   5.637   0.829  0.3485 -0.4477 -0.3435
13101SOL    HW146418  12.597   5.672   0.782  1.6479 -0.9660  1.3002
13101SOL    HW246419  12.555   5.613   0.915 -1.8918  0.2074  0.7844
13102SOL     OW46420  12.100   7.250   5.717 -0.2975 -0.1384 -0.5781
13102SOL    HW146421  12.009   7.276   5.724 -0.2317  1.1726 -3.3071
13102SOL    HW246422  12.135   7.262   5.805 -3.0297 -2.1576  0.9346
13103SOL     OW46423   9.111  10.403   3.225  0.4087  0.3841 -0.0542
13103SOL    HW146424   9.042  10.371   3.167 -0.8537  1.2159  0.9154
13103SOL    HW246425   9.173  10.331   3.230 -0.3802 -0.3966 -0.9755
13104SOL     OW46426   6.608   2.522   6.196  0.5675  0.5746 -0.1203
13104SOL    HW146427   6.517   2.494   6.208  1.2741 -2.0469 -0.3898
13104SOL    HW246428   6.602   2.597   6.136 -1.5155  1.7177  1.3922
13105SOL     OW46429   7.814  10.637   3.799  0.0485 -0.0448  0.3598
13105SOL    HW146430   7.806  10.546   3.770  0.9725  0.7073 -2.6550
13105SOL    HW246431   7.906  10.647   3.821 -0.0223  0.2029  0.5391
13106SOL     OW46432   9.855   0.480   5.054 -0.1211  0.2570  0.2338
13106SOL    HW146433   9.780   0.458   5.109 -0.1409  3.0514  1.4796
13106SOL    HW246434   9.931   0.467   5.111  0.2211 -0.7418 -0.4239
13107SOL     OW46435   2.946   1.694   2.570  0.2725  0.7521  0.3885
13107SOL    HW146436   2.916   1.603   2.581  0.9694  0.7296  2.6822
13107SOL    HW246437   2.868   1.747   2.585 -0.0073  0.5501 -0.3354
13108SOL     OW46438  11.696   1.939   8.327  1.3452  0.1205 -0.2582
13108SOL    HW146439  11.673   1.927   8.234  0.3555  1.5340 -0.2240
13108SOL    HW246440  11.757   1.867   8.345  1.3891 -0.3284 -1.9388
13109SOL     OW46441   6.569  12.479   9.448 -0.2763 -0.6672 -0.1239
13109SOL    HW146442   6.579  12.574   9.439  1.7408 -0.9637 -2.0148
13109SOL    HW246443   6.631  12.454   9.516 -0.8144 -0.6354  0.3813
13110SOL     OW46444  10.847  11.486   6.240  0.4539  0.2700 -0.4183
13110SOL    HW146445  10.911  11.548   6.204 -0.4920  2.0151  0.7846
13110SOL    HW246446  10.768  11.537   6.252 -0.4455 -1.2555  0.4288
13111SOL     OW46447  10.630  10.511   9.393  0.0888 -0.4722  0.0078
13111SOL    HW146448  10.618  10.513   9.298 -2.3421  0.2307  0.2554
13111SOL    HW246449  10.643  10.602   9.418 -0.3191 -0.5228  0.4328
13112SOL     OW46450   2.221   7.850   8.214 -0.6377  0.0922 -0.1476
13112SOL    HW146451   2.130   7.836   8.188 -0.9226  0.6937  0.4797
13112SOL    HW246452   2.245   7.772   8.264 -0.7165 -0.1946 -0.5606
13113SOL     OW46453  12.131   8.420  12.007 -0.2296 -0.0968 -0.0714
13113SOL    HW146454  12.159   8.512  12.005 -0.4866 -0.0105  0.3555
13113SOL    HW246455  12.047   8.421  12.051  1.2674 -0.9267  3.0757
13114SOL     OW46456   3.899  11.301   1.062  0.1061 -0.0661  0.3677
13114SOL    HW146457   3.989  11.297   1.029  0.5638 -1.0345  1.6726
13114SOL    HW246458   3.907  11.345   1.146 -0.3316 -1.9333  1.4294
13115SOL     OW46459   5.977   1.797   1.539 -0.2010  0.0679 -0.1520
13115SOL    HW146460   6.028   1.848   1.477 -0.2156 -0.0825 -0.2899
13115SOL    HW246461   5.901   1.767   1.489  0.5620 -1.3619 -0.5200
13116SOL     OW46462   1.980   9.586   1.818 -0.3951  0.1304 -0.2692
13116SOL    HW146463   2.008   9.622   1.734 -1.6059 -1.9193 -1.6462
13116SOL    HW246464   2.041   9.515   1.835  0.1396  0.8389  0.8714
13117SOL     OW46465   8.296   1.628   3.791 -0.1626 -0.1820 -0.0123
13117SOL    HW146466   8.272   1.615   3.883 -1.4332  0.0645 -0.2821
13117SOL    HW246467   8.346   1.551   3.768 -1.4699 -1.1850  0.3705
13118SOL     OW46468   2.519   3.211   8.930 -0.5600 -0.5802  0.1004
13118SOL    HW146469   2.526   3.224   8.836 -1.1628 -0.7915  0.0198
13118SOL    HW246470   2.596   3.159   8.953 -0.1040 -0.0327 -0.1736
13119SOL     OW46471   5.454   4.572   1.452  0.2241  0.1150  0.0881
13119SOL    HW146472   5.470   4.658   1.413 -1.8006  0.4254 -0.1696
13119SOL    HW246473   5.537   4.526   1.444  0.5440  0.9791 -2.5067
13120SOL     OW46474   1.080   3.517   7.405 -0.1598  0.5173 -0.5582
13120SOL    HW146475   1.038   3.459   7.468 -1.7013  2.1667  0.0216
13120SOL    HW246476   1.108   3.460   7.333 -0.6070 -1.0517  0.4787
13121SOL     OW46477   3.885   1.170   4.385 -0.2133  0.1639  0.1364
13121SOL    HW146478   3.957   1.229   4.364 -0.4288  0.5206  0.3763
13121SOL    HW246479   3.841   1.154   4.302  0.9530 -1.1718 -0.2694
13122SOL     OW46480   3.166   2.165  12.341 -0.2681 -0.2887 -0.1889
13122SOL    HW146481   3.234   2.229  12.322  0.0556 -0.1825  1.2089
13122SOL    HW246482   3.087   2.201  12.301  0.5504 -0.6394 -2.2366
13123SOL     OW46483   2.945   0.289   4.866 -0.1695  0.6413  1.0065
13123SOL    HW146484   3.005   0.255   4.932 -1.7755 -0.1398  2.1434
13123SOL    HW246485   2.863   0.304   4.914 -0.5899  2.7510 -0.2235
13124SOL     OW46486   7.193   4.498   8.289 -0.5151 -0.0172 -0.9456
13124SOL    HW146487   7.155   4.521   8.374  0.3304 -1.0933 -0.2462
13124SOL    HW246488   7.118   4.489   8.231 -1.2017 -0.2768 -0.0514
13125SOL     OW46489   8.181   6.627   7.492 -0.3490  0.1401 -0.0421
13125SOL    HW146490   8.096   6.660   7.464 -0.1201  0.0594 -0.8460
13125SOL    HW246491   8.218   6.585   7.414 -0.7026 -2.1812  0.9568
13126SOL     OW46492   8.648   2.995   2.183  0.9826  0.1503  0.0680
13126SOL    HW146493   8.560   3.025   2.160  0.1380 -2.2938 -0.2661
13126SOL    HW246494   8.668   3.039   2.265 -1.3526 -0.5317  1.0930
13127SOL     OW46495   9.749   6.250   3.983  0.5589 -0.1413 -1.0369
13127SOL    HW146496   9.661   6.222   3.956  0.5917  0.2190 -1.5480
13127SOL    HW246497   9.762   6.210   4.069  0.2982 -1.0234 -1.4016
13128SOL     OW46498  11.279   2.507   7.771 -0.2430 -0.2976 -0.1652
13128SOL    HW146499  11.295   2.413   7.760  2.2596  0.0676 -0.1949
13128SOL    HW246500  11.256   2.517   7.863 -0.0221 -0.8894 -0.0408
13129SOL     OW46501   1.588  12.629   5.771  0.0175  0.1855  0.1905
13129SOL    HW146502   1.607  12.564   5.703 -1.2183 -0.1424  0.1443
13129SOL    HW246503   1.674  12.650   5.808  0.4333 -1.6508  0.3655
13130SOL     OW46504  10.041   0.758   0.974 -0.1694  0.9062  0.4741
13130SOL    HW146505  10.109   0.787   1.035  1.3488  1.2759 -1.3101
13130SOL    HW246506  10.007   0.839   0.936 -0.3028  0.6434  0.0232
13131SOL     OW46507   7.744   6.333   9.913  0.2362 -0.4280  0.5317
13131SOL    HW146508   7.811   6.265   9.925 -0.8721 -1.5195  0.8051
13131SOL    HW246509   7.696   6.306   9.835  0.0373  0.2802  0.4025
13132SOL     OW46510  12.482   1.123   3.662  0.2227 -0.2790  0.4145
13132SOL    HW146511  12.535   1.198   3.635  0.8138 -0.7243  0.3257
13132SOL    HW246512  12.398   1.161   3.688  0.9602  0.5734  1.6777
13133SOL     OW46513  11.673   0.944   7.319  0.2439 -0.1937  0.2203
13133SOL    HW146514  11.689   0.905   7.405  0.6753  0.3190  0.3773
13133SOL    HW246515  11.612   0.884   7.276  1.7464 -1.6531  0.0225
13134SOL     OW46516   7.028   2.991  10.646 -0.1519 -0.2073  0.1986
13134SOL    HW146517   7.028   2.933  10.570  3.8781 -1.4874  0.9626
13134SOL    HW246518   7.011   2.934  10.721 -2.7351  0.8386  0.5534
13135SOL     OW46519   1.326   4.439  12.231  0.2705 -0.0735  0.3846
13135SOL    HW146520   1.312   4.529  12.200 -0.8377 -0.3856 -0.0747
13135SOL    HW246521   1.421   4.429  12.233  0.4198  1.1443  0.5599
13136SOL     OW46522  12.557   4.970  12.646  0.8065  0.0293 -0.5944
13136SOL    HW146523  12.524   5.037  12.706  0.3397 -0.4643 -0.2936
13136SOL    HW246524  12.632   4.932  12.691 -1.3421 -2.4853  1.1521
13137SOL     OW46525  11.356   2.742  12.491  0.3033 -0.1093  0.0887
13137SOL    HW146526  11.449   2.743  12.514  0.2084 -1.4180  0.6599
13137SOL    HW246527  11.331   2.650  12.501 -0.4427 -0.2819 -2.5552
13138SOL     OW46528   3.898   5.450   2.975 -0.1615  0.4749 -0.5223
13138SOL    HW146529   3.958   5.455   3.049  2.3174 -1.8816 -2.1886
13138SOL    HW246530   3.867   5.360   2.974 -1.7113  0.9713 -1.2545
13139SOL     OW46531   0.924   4.782  12.492 -0.0788 -0.5430  0.1673
13139SOL    HW146532   0.947   4.850  12.430  3.6959 -2.8204 -1.2906
13139SOL    HW246533   0.881   4.714  12.439 -2.4766 -0.0610  1.3242
13140SOL     OW46534   3.776   5.549   7.094 -0.6483  0.7795  0.3190
13140SOL    HW146535   3.736   5.467   7.064  0.1561 -0.2438  1.9197
13140SOL    HW246536   3.824   5.581   7.017 -0.2972 -0.6915 -0.1102
13141SOL     OW46537   3.036  11.697   0.150  0.2955  0.1834  0.2602
13141SOL    HW146538   3.055  11.661   0.236  1.5605  0.1467 -0.0144
13141SOL    HW246539   2.991  11.780   0.168 -0.3344 -0.2916  0.9241
13142SOL     OW46540   4.525   2.109   7.874 -0.0168 -0.3087 -0.1868
13142SOL    HW146541   4.503   2.085   7.784  0.3417  1.7231 -0.8864
13142SOL    HW246542   4.473   2.188   7.890  1.0689  0.2156  0.8410
13143SOL     OW46543   6.374   3.821  10.782  0.0329 -0.3087  0.6978
13143SOL    HW146544   6.294   3.838  10.732 -0.6380  0.3389  1.9434
13143SOL    HW246545   6.440   3.800  10.715 -0.2077  2.7379 -0.6755
13144SOL     OW46546   6.612  11.026   9.511  0.1951  0.5238 -0.0243
13144SOL    HW146547   6.630  11.001   9.602 -0.0254  1.5606  0.3248
13144SOL    HW246548   6.591  10.944   9.467 -1.1271  0.1500  1.2175
13145SOL     OW46549   0.554   3.942   0.660 -0.1664 -0.0996  0.2598
13145SOL    HW146550   0.508   4.022   0.683 -1.1095 -0.5285 -0.1000
13145SOL    HW246551   0.645   3.958   0.687 -0.3228  1.1134  0.1081
13146SOL     OW46552   5.172  10.333   3.947 -0.1257  0.2463  0.0107
13146SOL    HW146553   5.087  10.367   3.978 -1.1408 -1.2939 -0.9291
13146SOL    HW246554   5.170  10.240   3.971  1.1183  0.0855 -0.4527
13147SOL     OW46555   5.982  11.449  11.329 -0.0905 -0.3558  0.5020
13147SOL    HW146556   6.005  11.536  11.296 -1.5491 -0.6970 -1.6105
13147SOL    HW246557   5.964  11.462  11.422  0.6782  1.4007  0.4372
13148SOL     OW46558   0.619   0.555   4.724 -0.2257 -0.6647  0.1919
13148SOL    HW146559   0.543   0.584   4.673 -0.4224 -0.6532  0.4894
13148SOL    HW246560   0.685   0.534   4.658 -0.5826 -0.9484 -0.0821
13149SOL     OW46561   9.154   0.157   3.442 -0.1153 -0.0371 -0.2463
13149SOL    HW146562   9.071   0.202   3.422  0.3953  1.3462  0.6017
13149SOL    HW246563   9.185   0.125   3.357 -1.4501 -0.4777 -0.5922
13150SOL     OW46564   7.254   9.800  10.584  0.5757 -0.2056 -0.2147
13150SOL    HW146565   7.294   9.869  10.637  1.9366 -0.2435 -1.1387
13150SOL    HW246566   7.225   9.734  10.648  1.0743  0.3071  0.5531
13151SOL     OW46567   0.411   8.281   5.100 -0.2545 -0.0607  0.0061
13151SOL    HW146568   0.492   8.231   5.099 -0.4725 -0.5154  1.8505
13151SOL    HW246569   0.344   8.218   5.073 -0.3985 -0.5768  1.4605
13152SOL     OW46570  11.684   9.625   8.435 -0.2981  0.3580 -0.5054
13152SOL    HW146571  11.725   9.544   8.463  0.3854  1.6121  2.6039
13152SOL    HW246572  11.756   9.688   8.430 -1.1302  1.3794 -0.1541
13153SOL     OW46573   7.297   9.314   9.105 -0.1462 -0.5647  0.0633
13153SOL    HW146574   7.202   9.301   9.110 -0.1320 -0.8113 -0.2487
13153SOL    HW246575   7.332   9.262   9.177 -0.2933  0.0907  0.6194
13154SOL     OW46576   5.014  10.759   4.211  0.6695 -0.3108  0.0078
13154SOL    HW146577   5.061  10.800   4.284 -0.9354  3.2782 -0.7455
13154SOL    HW246578   5.042  10.808   4.134 -1.5282 -0.4893 -0.9750
13155SOL     OW46579   2.401   6.260   4.366  0.2262  0.2387  0.0091
13155SOL    HW146580   2.453   6.295   4.438  0.4774  0.4962 -0.2959
13155SOL    HW246581   2.379   6.170   4.393  1.5543 -0.1832 -0.2299
13156SOL     OW46582   2.882   7.650   0.050  0.2690  0.1197  0.2434
13156SOL    HW146583   2.971   7.676   0.077  0.5998  0.2836 -0.9680
13156SOL    HW246584   2.825   7.716   0.089  0.9071  1.4393 -0.9868
13157SOL     OW46585  12.825   0.831   5.207  0.3639  0.0985 -0.2174
13157SOL    HW146586  12.815   0.785   5.124 -1.0631  0.2054 -0.1180
13157SOL    HW246587  12.829   0.924   5.182 -1.7759  0.2616 -0.0728
13158SOL     OW46588   9.856   1.816   3.847  0.3928 -0.5472  0.0052
13158SOL    HW146589   9.792   1.885   3.862 -0.4277 -1.7140  2.4227
13158SOL    HW246590   9.824   1.769   3.770 -0.6590 -0.0302  0.1101
13159SOL     OW46591   4.552   9.756   7.498 -0.1704  0.0251  0.2520
13159SOL    HW146592   4.609   9.683   7.522 -0.5667 -0.0941  0.8383
13159SOL    HW246593   4.475   9.747   7.554 -0.1129  1.0467  0.5283
13160SOL     OW46594  12.563  10.307   8.519 -0.5244 -0.2518  0.2489
13160SOL    HW146595  12.509  10.386   8.515 -1.1553 -0.7074 -0.6530
13160SOL    HW246596  12.630  10.327   8.585 -0.7607  0.9649  0.1460
13161SOL     OW46597   6.918  12.884  12.143 -0.5210  0.2132 -0.1035
13161SOL    HW146598   6.854  12.816  12.165 -0.5036  0.2094 -0.0638
13161SOL    HW246599   7.002  12.846  12.168 -0.6740  1.0338  1.8406
13162SOL     OW46600   9.417   2.544   5.538 -0.0218  0.1741  0.1846
13162SOL    HW146601   9.423   2.588   5.622  2.6877  0.5770 -0.1397
13162SOL    HW246602   9.326   2.515   5.532 -0.3408  0.3161  3.1387
13163SOL     OW46603   7.515   2.807   9.791 -0.0238 -0.4476  0.3118
13163SOL    HW146604   7.501   2.717   9.821  0.8937 -0.5178  0.5769
13163SOL    HW246605   7.550   2.797   9.703 -0.8975 -0.3066 -0.0570
13164SOL     OW46606  11.641  10.524   3.920  0.1850 -0.0110 -0.0846
13164SOL    HW146607  11.708  10.580   3.959  0.5964  1.1714 -2.3109
13164SOL    HW246608  11.578  10.585   3.883 -0.9908 -1.0991  0.0634
13165SOL     OW46609   7.829   7.268   0.961 -0.0335  0.2769 -0.2893
13165SOL    HW146610   7.825   7.326   0.885  0.4273 -2.3625 -2.5324
13165SOL    HW246611   7.739   7.242   0.977 -0.0101 -0.2190 -0.8961
13166SOL     OW46612  10.365   0.890   3.420 -0.4170  0.5971 -0.6512
13166SOL    HW146613  10.323   0.939   3.349 -0.4070 -1.1144 -1.9042
13166SOL    HW246614  10.340   0.799   3.404  1.4569 -0.1204  0.2210
13167SOL     OW46615   1.538  10.966   0.391  0.4107  0.4603  0.0543
13167SOL    HW146616   1.542  10.977   0.486 -1.2000  1.4830  0.0351
13167SOL    HW246617   1.519  10.873   0.379  1.4165  0.1541  0.6793
13168SOL     OW46618  12.194   6.687   0.994 -0.1600  0.6023  0.3008
13168SOL    HW146619  12.257   6.708   1.063  1.9182  2.5499 -1.9982
13168SOL    HW246620  12.224   6.603   0.959 -0.9569 -0.1674  1.3663
13169SOL     OW46621   4.611   2.320   3.237 -0.7234  0.2119  0.1018
13169SOL    HW146622   4.535   2.337   3.181 -0.4654  3.1342  0.4838
13169SOL    HW246623   4.686   2.341   3.182 -0.2372 -1.0118  0.2702
13170SOL     OW46624  12.323   8.080   0.637  0.0824 -0.3391  0.3494
13170SOL    HW146625  12.373   8.047   0.711 -0.2843 -1.4755  0.1182
13170SOL    HW246626  12.254   8.134   0.676  0.0708 -0.6925  0.8168
13171SOL     OW46627   0.043  10.954   0.923 -0.4539  0.4383  0.2687
13171SOL    HW146628  -0.026  11.009   0.960  0.1954  1.5516 -0.1208
13171SOL    HW246629   0.042  10.973   0.830  0.8039  0.9945  0.3447
13172SOL     OW46630   5.336   8.444   3.802  0.1452 -0.2476 -0.0683
13172SOL    HW146631   5.401   8.499   3.758 -0.5828  0.1146 -0.7231
13172SOL    HW246632   5.256   8.455   3.750 -0.3893 -0.8360  0.6043
13173SOL     OW46633  12.404   2.845   6.564 -0.1811 -0.2376 -0.0758
13173SOL    HW146634  12.317   2.809   6.578 -0.0935  0.2132  2.0231
13173SOL    HW246635  12.402   2.931   6.607  1.8348 -1.0388  1.8313
13174SOL     OW46636   4.066  10.821  12.033  0.1029 -0.4365  0.0026
13174SOL    HW146637   4.113  10.855  11.957  0.0866  0.9424  0.5860
13174SOL    HW246638   4.122  10.842  12.107 -0.5137 -0.5449  0.5057
13175SOL     OW46639   7.017   4.049   9.386  0.2572  0.2586  0.5325
13175SOL    HW146640   7.083   3.988   9.353  0.3888  0.6664  0.0435
13175SOL    HW246641   6.934   4.014   9.353  0.4821  1.3171 -1.2789
13176SOL     OW46642   2.390   0.077  12.400  0.3786  0.0043  0.0132
13176SOL    HW146643   2.338   0.135  12.344  0.6122  0.3511  0.1558
13176SOL    HW246644   2.410   0.130  12.477  1.4061  0.0564 -0.2855
13177SOL     OW46645   1.544  12.550  10.547 -0.3740  0.3254 -0.0463
13177SOL    HW146646   1.622  12.495  10.552 -1.1230 -0.8476 -0.7995
13177SOL    HW246647   1.488  12.519  10.618  0.7217  2.7243  2.0593
13178SOL     OW46648  10.779  11.565   6.534 -0.0328 -0.0337  0.1485
13178SOL    HW146649  10.755  11.503   6.465 -2.6653 -0.6623  1.4859
13178SOL    HW246650  10.827  11.513   6.598  0.2190 -0.0308 -0.0378
13179SOL     OW46651   4.553   1.191   5.242  0.7673  0.7056 -0.4128
13179SOL    HW146652   4.605   1.183   5.162  1.8732  1.2276  0.2325
13179SOL    HW246653   4.582   1.273   5.282  0.0520  0.5814  0.4067
13180SOL     OW46654  10.419   1.866  12.481 -0.0865 -0.3185  0.1407
13180SOL    HW146655  10.348   1.891  12.540 -0.4519 -0.2840 -0.3106
13180SOL    HW246656  10.475   1.944  12.478  0.5085 -0.6699  1.2551
13181SOL     OW46657   7.597   5.754   3.675 -0.7834  0.0989  0.1404
13181SOL    HW146658   7.617   5.688   3.741 -1.1984  3.0884  3.5846
13181SOL    HW246659   7.676   5.759   3.622 -0.3170 -2.2848  0.5005
13182SOL     OW46660   4.913   1.428   0.356 -0.1622 -0.8234  0.3986
13182SOL    HW146661   5.004   1.417   0.331  0.0428 -0.2553  0.8853
13182SOL    HW246662   4.890   1.345   0.399 -0.2601 -1.4636 -0.8322
13183SOL     OW46663   0.248   5.146  10.676  0.0406  0.1005  0.0344
13183SOL    HW146664   0.328   5.101  10.646  0.6883  0.4573  1.1631
13183SOL    HW246665   0.249   5.136  10.771 -0.0341  2.0967  0.2829
13184SOL     OW46666  10.278   8.332   3.041 -0.1669 -0.3769  0.8347
13184SOL    HW146667  10.271   8.331   2.946  1.9198  0.1065  0.6316
13184SOL    HW246668  10.189   8.348   3.072 -0.5950  1.3153 -1.0902
13185SOL     OW46669   5.636   5.147  12.220 -0.0937  0.0954 -0.2782
13185SOL    HW146670   5.622   5.119  12.129  0.4044 -0.8475 -0.0748
13185SOL    HW246671   5.724   5.117  12.242  0.8388  2.5620 -0.2825
13186SOL     OW46672   8.835   2.145   6.015 -0.6201  0.1761 -0.2627
13186SOL    HW146673   8.809   2.155   6.106 -2.8658  1.4710 -0.9803
13186SOL    HW246674   8.790   2.065   5.986  0.5468 -0.5571 -0.1223
13187SOL     OW46675   9.070   1.717   8.876 -0.5990 -0.1851 -0.4260
13187SOL    HW146676   9.120   1.799   8.878  0.3023 -0.7200 -0.1940
13187SOL    HW246677   9.002   1.732   8.810 -0.2257  0.6241 -0.6429
13188SOL     OW46678  11.981   2.594  11.595 -0.7790  0.1014 -0.3926
13188SOL    HW146679  11.972   2.642  11.513  0.2682 -0.5646 -0.9190
13188SOL    HW246680  11.951   2.505  11.574 -1.8863  0.2780  0.3428
13189SOL     OW46681   0.323   6.871   8.270 -0.2002  0.4995 -0.4307
13189SOL    HW146682   0.411   6.834   8.274  0.6065  2.1634 -1.5934
13189SOL    HW246683   0.269   6.809   8.319  1.1914 -1.7168 -1.5209
13190SOL     OW46684   3.860  11.514   6.765  0.9781  0.0054  0.1565
13190SOL    HW146685   3.864  11.432   6.717 -0.2536 -1.8108  2.9638
13190SOL    HW246686   3.776  11.552   6.741  1.9446  1.0498 -1.8803
13191SOL     OW46687   7.685  11.669   4.269  0.7185  0.0811 -0.1409
13191SOL    HW146688   7.590  11.659   4.266  0.6347  0.9372 -0.7436
13191SOL    HW246689   7.700  11.763   4.264  1.5963 -0.0182  0.2845
13192SOL     OW46690   4.507   7.835   2.116  0.7030 -0.0267 -0.1142
13192SOL    HW146691   4.572   7.771   2.085  0.8569 -0.3704  0.8852
13192SOL    HW246692   4.533   7.853   2.207  0.2815  0.9795 -0.1795
13193SOL     OW46693   4.581  10.671   7.186  0.2244  0.1549  0.1640
13193SOL    HW146694   4.535  10.720   7.254  0.1803 -0.6555  0.7360
13193SOL    HW246695   4.548  10.582   7.195  2.3787 -0.6251  1.0829
13194SOL     OW46696   1.858   1.480  10.306  0.6205 -0.4843 -0.0553
13194SOL    HW146697   1.833   1.408  10.249  2.1823 -1.5060  0.4644
13194SOL    HW246698   1.940   1.513  10.269  0.1996  0.7128  0.0129
13195SOL     OW46699   2.915   3.682   9.516  0.2435 -0.4735 -0.2974
13195SOL    HW146700   2.898   3.727   9.599 -0.2524 -0.6407 -0.3064
13195SOL    HW246701   2.829   3.669   9.477  0.2958 -2.0675  0.0407
13196SOL     OW46702  10.736   8.107   9.938 -0.2346 -0.2628  0.2562
13196SOL    HW146703  10.802   8.165   9.902 -0.9026  1.1026  1.1603
13196SOL    HW246704  10.739   8.030   9.881 -0.1813  1.1525 -1.7836
13197SOL     OW46705   1.333   0.817  11.113  0.1272 -0.0340 -0.1656
13197SOL    HW146706   1.326   0.721  11.105  1.5106 -0.1482 -0.2489
13197SOL    HW246707   1.391   0.831  11.187 -1.8032  0.8193  1.2651
13198SOL     OW46708   5.379   2.624   4.858 -0.0557 -0.3371  0.1716
13198SOL    HW146709   5.444   2.675   4.905  1.3930 -1.2447 -0.7543
13198SOL    HW246710   5.307   2.614   4.920 -0.7962  3.4530  0.1050
13199SOL     OW46711  10.811   1.404   2.424  0.0308 -0.0818 -0.3915
13199SOL    HW146712  10.854   1.320   2.407  3.3539  1.6468 -1.1754
13199SOL    HW246713  10.816   1.414   2.519  0.5977 -0.3008 -0.3924
13200SOL     OW46714  11.915   7.441   3.922  0.1446  0.8346 -0.0798
13200SOL    HW146715  11.934   7.450   3.829 -1.0075  0.0569 -0.4186
13200SOL    HW246716  11.878   7.525   3.948 -0.6546  0.6707 -0.6364
13201SOL     OW46717  10.603  10.221   7.750  0.4738 -0.1866  1.0733
13201SOL    HW146718  10.631  10.210   7.841 -2.5377  0.7786  2.2362
13201SOL    HW246719  10.508  10.214   7.753  0.2019  0.7531 -1.9102
13202SOL     OW46720   4.813   0.222   5.293 -0.0560 -0.0323  0.1302
13202SOL    HW146721   4.829   0.224   5.388  0.8778 -0.1787 -0.0079
13202SOL    HW246722   4.818   0.313   5.266 -1.0686  0.0937  0.3213
13203SOL     OW46723   3.715   8.871   2.493 -0.1834 -0.1983 -0.0881
13203SOL    HW146724   3.759   8.788   2.474 -1.3118 -0.6640 -0.8004
13203SOL    HW246725   3.630   8.863   2.450 -1.1617  0.4756  1.6450
13204SOL     OW46726   9.725   7.282  11.164 -0.3377 -0.5157 -0.1722
13204SOL    HW146727   9.683   7.314  11.085  0.2433  0.1962 -0.2002
13204SOL    HW246728   9.795   7.225  11.132  2.2973  2.5590 -0.3937
13205SOL     OW46729   8.360   2.272   6.029 -0.0926 -0.6944  0.0088
13205SOL    HW146730   8.269   2.295   6.009 -0.1607  0.1422  1.1504
13205SOL    HW246731   8.405   2.275   5.945 -0.5742  1.5863 -0.2221
13206SOL     OW46732   0.125   8.388   8.074  0.1807  0.0048  0.2475
13206SOL    HW146733   0.080   8.387   8.158  0.8375  0.0519  0.6104
13206SOL    HW246734   0.058   8.413   8.010 -1.3260 -3.7118  0.1419
13207SOL     OW46735  12.331   5.943   6.152  0.6032 -0.1560  0.0029
13207SOL    HW146736  12.385   5.892   6.093  0.4031 -3.0741  2.1094
13207SOL    HW246737  12.262   5.979   6.096  1.6758 -0.8523 -1.8636
13208SOL     OW46738   8.379   9.553  11.779 -0.0645  0.3356 -0.1823
13208SOL    HW146739   8.378   9.458  11.790  0.3231  0.3759  0.2080
13208SOL    HW246740   8.400   9.567  11.687  1.8254  0.0605  0.1734
13209SOL     OW46741   9.050  11.953   7.532  0.2623  0.3014  0.4131
13209SOL    HW146742   9.036  11.972   7.439  0.7743  0.2709  0.3258
13209SOL    HW246743   9.042  12.037   7.576 -2.0892  0.0294  0.6267
13210SOL     OW46744   3.140  10.309  11.052  0.1660  0.0031 -1.0726
13210SOL    HW146745   3.200  10.360  10.997  0.9350 -1.5544 -1.7254
13210SOL    HW246746   3.195  10.278  11.125 -0.6741  1.4236  0.2384
13211SOL     OW46747   8.859   4.202   5.073 -0.4264 -0.9182  0.4628
13211SOL    HW146748   8.935   4.252   5.101  0.6816 -0.3841 -3.0431
13211SOL    HW246749   8.876   4.113   5.105  0.7838 -0.4555  1.1845
13212SOL     OW46750   2.700   4.238  11.117 -0.1302  0.1668 -0.0905
13212SOL    HW146751   2.689   4.302  11.047 -0.7459  0.4075  0.2227
13212SOL    HW246752   2.795   4.229  11.126 -0.0425  0.5980 -0.5304
13213SOL     OW46753  12.022   0.181   6.979 -0.5866  0.0467 -0.1774
13213SOL    HW146754  11.951   0.165   6.917 -1.7680  2.2702  0.4771
13213SOL    HW246755  12.020   0.276   6.993  0.6232 -0.1919  2.0809
13214SOL     OW46756   1.839   2.629   6.069  0.1253 -0.0383  0.0323
13214SOL    HW146757   1.792   2.549   6.046  1.2901 -0.2587 -1.7336
13214SOL    HW246758   1.829   2.686   5.993  1.3208  0.5587  0.2913
13215SOL     OW46759  10.140  12.659   7.103 -0.0411  0.1478 -0.4409
13215SOL    HW146760  10.155  12.565   7.109 -1.6505 -0.1204 -0.0111
13215SOL    HW246761  10.179  12.695   7.182  1.5471  0.0175 -1.1244
13216SOL     OW46762  11.930   3.763   7.617  0.5950  0.4074  0.5178
13216SOL    HW146763  11.971   3.836   7.664 -0.3944 -0.0306  2.1704
13216SOL    HW246764  11.953   3.777   7.525  0.9350  2.4530  0.8638
13217SOL     OW46765   9.904  12.811  11.337 -0.3157 -0.3974  0.2572
13217SOL    HW146766   9.851  12.854  11.404 -1.4253  2.0047 -1.9974
13217SOL    HW246767   9.840  12.774  11.276  0.6691 -1.5189 -0.1382
13218SOL     OW46768  12.481  12.409  11.065  0.1272 -0.4607  0.6506
13218SOL    HW146769  12.515  12.455  10.989  0.2132  1.1217  1.6003
13218SOL    HW246770  12.403  12.364  11.033 -0.1014  0.5589 -0.2979
13219SOL     OW46771   3.653   4.733   6.863  0.7050 -0.0762  0.1111
13219SOL    HW146772   3.652   4.649   6.817  0.5562  0.2689 -0.5351
13219SOL    HW246773   3.566   4.770   6.847  0.6706  0.0734  0.6322
13220SOL     OW46774  12.202   2.484   5.473  0.8188  0.2653 -0.6390
13220SOL    HW146775  12.259   2.418   5.512  0.5384  0.3588 -0.0613
13220SOL    HW246776  12.259   2.533   5.413  1.0733 -0.3713 -0.9285
13221SOL     OW46777   8.367  10.526  10.387 -0.0603 -0.0129  0.5739
13221SOL    HW146778   8.449  10.482  10.366 -0.3592 -0.4275  0.2636
13221SOL    HW246779   8.302  10.456  10.391 -0.5755  0.4111 -0.0949
13222SOL     OW46780   2.472   0.035  10.845 -0.4634  0.4810 -0.5313
13222SOL    HW146781   2.456   0.128  10.863 -0.1434  0.5323 -0.5106
13222SOL    HW246782   2.408  -0.011  10.900 -0.8828  0.6976 -0.8354
13223SOL     OW46783   5.350   4.796   1.240 -0.2931  0.8789  0.4256
13223SOL    HW146784   5.371   4.842   1.158 -0.1784 -2.0094 -1.2961
13223SOL    HW246785   5.423   4.817   1.298  1.0233  0.8986 -1.1462
13224SOL     OW46786   1.499   7.473   8.213 -0.2386 -0.3513  0.4132
13224SOL    HW146787   1.506   7.559   8.171  0.5052 -0.6368 -0.0658
13224SOL    HW246788   1.535   7.485   8.300 -2.6028  0.4719  1.3804
13225SOL     OW46789   2.955   3.275   2.318 -0.2830 -0.4195  0.0916
13225SOL    HW146790   2.932   3.335   2.247  0.3741 -0.4415 -0.1549
13225SOL    HW246791   2.948   3.188   2.280  2.4585 -0.3699 -0.7525
13226SOL     OW46792   9.939  10.201  10.437 -0.1075  0.1486  0.1283
13226SOL    HW146793   9.951  10.130  10.374  1.3778  0.4711 -0.0068
13226SOL    HW246794   9.985  10.170  10.515  0.3097  0.8255  0.1571
13227SOL     OW46795   0.461  10.755   6.802  0.1333 -0.2230 -0.0994
13227SOL    HW146796   0.454  10.681   6.742 -0.5209 -0.7757  0.6367
13227SOL    HW246797   0.395  10.817   6.771  0.3970 -0.1270 -0.4695
13228SOL     OW46798   7.544  12.097  10.915 -0.3705  0.7311 -0.1589
13228SOL    HW146799   7.455  12.119  10.888  0.0521  3.6563  0.5472
13228SOL    HW246800   7.540  12.093  11.010  0.4389  2.1084 -0.0335
13229SOL     OW46801  11.983   6.083   7.356  0.2224 -0.2097 -0.0078
13229SOL    HW146802  11.966   5.998   7.395  2.0530 -0.8346 -0.4942
13229SOL    HW246803  12.068   6.075   7.315 -0.5863  1.1424 -2.1395
13230SOL     OW46804   4.724   4.220  10.517  0.2396 -0.0489 -0.2368
13230SOL    HW146805   4.736   4.233  10.611  1.2888  0.8411 -0.4733
13230SOL    HW246806   4.690   4.304  10.486 -0.0340 -0.3164 -0.6650
13231SOL     OW46807   5.382   5.902   1.953 -0.1248 -0.6636 -0.2926
13231SOL    HW146808   5.336   5.888   1.871 -2.2597 -0.0999  0.7525
13231SOL    HW246809   5.399   5.814   1.987 -1.3526 -0.8790 -0.2154
13232SOL     OW46810   4.458   2.157   1.552  0.3847  0.0308 -0.4496
13232SOL    HW146811   4.466   2.088   1.618 -1.6647  0.2113  0.0615
13232SOL    HW246812   4.368   2.149   1.520  1.3195 -0.0842 -3.3154
13233SOL     OW46813   7.485   0.228   5.600 -0.1259 -0.2756 -0.3302
13233SOL    HW146814   7.421   0.156   5.593  1.6417 -1.8002 -1.9753
13233SOL    HW246815   7.560   0.198   5.549  1.1910  2.2607 -0.0294
13234SOL     OW46816   5.592   2.456   9.347  0.1608 -0.2092 -0.1123
13234SOL    HW146817   5.561   2.369   9.371 -2.4111  0.8015  0.5369
13234SOL    HW246818   5.632   2.444   9.261 -1.5775 -1.7888 -0.7715
13235SOL     OW46819   6.308  12.019  11.944 -0.3798 -0.4001  0.1915
13235SOL    HW146820   6.401  12.012  11.965 -0.6259  0.3265  1.6729
13235SOL    HW246821   6.300  11.977  11.859  1.6813  1.4776 -1.0509
13236SOL     OW46822  11.533   8.261  12.425 -0.2012  0.1744  0.1895
13236SOL    HW146823  11.460   8.307  12.467  1.5294  1.6227  1.7666
13236SOL    HW246824  11.570   8.206  12.495  2.0296  1.7591  0.3609
13237SOL     OW46825   4.788  12.968   1.954 -0.0753  0.0928 -0.3441
13237SOL    HW146826   4.831  12.906   2.013 -2.6640  0.4815  2.1766
13237SOL    HW246827   4.708  12.923   1.925 -1.5072  1.7665  0.7531
13238SOL     OW46828   7.232  12.778   2.577  0.8781  0.0438 -0.0440
13238SOL    HW146829   7.162  12.839   2.554 -1.3735 -2.3930 -0.2652
13238SOL    HW246830   7.223  12.707   2.513  0.3363 -2.6246  2.7455
13239SOL     OW46831   8.206  12.698   3.824 -0.1829 -0.0427  0.4858
13239SOL    HW146832   8.255  12.624   3.859  0.4667 -0.2484 -0.7766
13239SOL    HW246833   8.162  12.663   3.746  0.9480  1.0926 -0.7282
13240SOL     OW46834   8.910   5.024   6.355 -0.2266  0.4832 -0.4658
13240SOL    HW146835   8.886   5.091   6.291  1.6664  0.0632 -1.6893
13240SOL    HW246836   8.992   4.988   6.323  0.0449 -0.7685  1.4565
13241SOL     OW46837   2.847  11.709   5.824  0.5273 -0.6024 -0.3780
13241SOL    HW146838   2.809  11.687   5.739  0.4157 -1.3830 -0.1369
13241SOL    HW246839   2.898  11.631   5.848  0.9155 -0.2176  0.0696
13242SOL     OW46840  11.182   3.281   1.246  0.0761  0.6404  0.5466
13242SOL    HW146841  11.166   3.238   1.162 -0.3610  0.3410  0.7845
13242SOL    HW246842  11.249   3.347   1.226 -0.0541  0.6001 -0.0438
13243SOL     OW46843   3.065   5.999   5.598 -0.3162  0.0627  0.2011
13243SOL    HW146844   3.132   6.004   5.667 -0.6819  2.0176  0.4628
13243SOL    HW246845   2.984   6.024   5.642 -0.5544  1.3750 -0.9362
13244SOL     OW46846   8.808  10.709  10.703  0.3886 -0.2012 -0.3775
13244SOL    HW146847   8.832  10.625  10.742  0.7268  0.4132  0.7611
13244SOL    HW246848   8.888  10.762  10.708  0.3299  0.0411 -1.5549
13245SOL     OW46849   3.879   0.910   2.057  0.5220 -0.1798 -0.2301
13245SOL    HW146850   3.904   1.002   2.046 -1.6707  0.3449 -1.4565
13245SOL    HW246851   3.891   0.892   2.150  0.7110  1.4250  0.0794
13246SOL     OW46852   5.156   1.527   0.136 -0.4331 -0.6414 -0.0332
13246SOL    HW146853   5.226   1.512   0.073 -1.1934 -0.5677 -0.9008
13246SOL    HW246854   5.190   1.492   0.218  0.1523 -1.6991 -0.7126
13247SOL     OW46855   6.577   7.648   1.597 -0.2758 -0.3233  0.1042
13247SOL    HW146856   6.485   7.653   1.569 -0.0530  0.6458 -0.4725
13247SOL    HW246857   6.585   7.712   1.667  0.7002  2.0440 -2.0210
13248SOL     OW46858   7.831   7.224   6.316  0.4389 -0.0806 -0.1915
13248SOL    HW146859   7.796   7.217   6.405  1.3198  2.2209  0.4283
13248SOL    HW246860   7.874   7.141   6.301  1.5297 -0.0304  2.1466
13249SOL     OW46861   0.510   7.435  10.174  0.7363  0.5538  0.0725
13249SOL    HW146862   0.452   7.458  10.247  1.9817  0.3853  1.1570
13249SOL    HW246863   0.498   7.341  10.162  0.6745  0.5457  0.2004
13250SOL     OW46864   4.319   6.180  10.277  0.0390  0.1619 -0.2012
13250SOL    HW146865   4.328   6.259  10.223 -0.5520 -0.2783 -0.9603
13250SOL    HW246866   4.224   6.171  10.290  0.1800  0.6476  1.5189
13251SOL     OW46867   9.246   4.087   9.873  0.3764 -0.2048  0.3080
13251SOL    HW146868   9.337   4.103   9.900  0.6046  0.0940 -0.5847
13251SOL    HW246869   9.215   4.172   9.845  0.6107 -0.7094 -1.6399
13252SOL     OW46870   9.919   3.689   6.336 -0.0256  0.1013  0.8352
13252SOL    HW146871   9.903   3.740   6.416 -1.2479 -1.2280  1.4929
13252SOL    HW246872   9.954   3.753   6.273  1.9698  0.9804  2.7179
13253SOL     OW46873  12.049  12.145   1.461 -0.2921  0.0241  0.2518
13253SOL    HW146874  12.109  12.072   1.443  0.7602  0.5208  1.5430
13253SOL    HW246875  12.060  12.204   1.387  0.0863 -0.3593 -0.0054
13254SOL     OW46876   1.846   1.475   3.212  0.5470 -0.2427 -0.3573
13254SOL    HW146877   1.868   1.554   3.162  2.5494  0.3805  1.3920
13254SOL    HW246878   1.809   1.415   3.147  2.3630  0.7821 -2.4426
13255SOL     OW46879   0.817   6.101   4.692  0.4358 -0.2744  0.7301
13255SOL    HW146880   0.767   6.053   4.626  1.9681 -0.5802 -0.2804
13255SOL    HW246881   0.752   6.152   4.740 -0.7170  0.2190 -1.2546
13256SOL     OW46882   3.988   2.621   8.773 -0.9008  0.2830 -0.1099
13256SOL    HW146883   3.900   2.595   8.797 -0.6121 -1.3857 -0.7276
13256SOL    HW246884   4.041   2.604   8.851 -0.8970 -0.0212 -0.1766
13257SOL     OW46885  12.287  11.245   1.365  0.0981  0.9888 -0.3274
13257SOL    HW146886  12.287  11.259   1.270  1.0547  0.4335 -0.4226
13257SOL    HW246887  12.194  11.244   1.389 -0.2503 -0.6063 -1.5276
13258SOL     OW46888   3.110   0.752   0.384 -0.0488  0.4558 -0.4113
13258SOL    HW146889   3.054   0.788   0.453 -0.4647 -1.5111  0.3735
13258SOL    HW246890   3.050   0.733   0.312 -0.5900 -2.0192  0.5750
13259SOL     OW46891  12.080   4.961   3.585 -0.1275  1.0168 -0.3400
13259SOL    HW146892  12.011   4.906   3.549 -1.0813  0.8513  1.6466
13259SOL    HW246893  12.089   5.032   3.521 -0.7538  0.0196 -1.5818
13260SOL     OW46894   8.257   8.897   9.938 -0.0563 -0.8232 -0.6781
13260SOL    HW146895   8.213   8.812   9.939  1.0713 -1.4360  0.2817
13260SOL    HW246896   8.274   8.916  10.031  0.2777  0.1464 -0.9236
13261SOL     OW46897   2.470  12.400   3.581  0.6013 -0.5326  0.7709
13261SOL    HW146898   2.418  12.320   3.569 -0.8700  0.6428 -1.3736
13261SOL    HW246899   2.543  12.390   3.521  0.1659 -0.0900  0.1592
13262SOL     OW46900   0.821   4.033   0.775 -0.0672 -0.2790 -0.4331
13262SOL    HW146901   0.775   3.994   0.850  1.6936  0.7883  1.2740
13262SOL    HW246902   0.909   4.051   0.807  0.9779 -0.4100 -2.9997
13263SOL     OW46903   1.605   0.740   2.026 -0.1259 -0.1954 -0.1007
13263SOL    HW146904   1.593   0.805   1.957 -2.3703  2.3608  2.3859
13263SOL    HW246905   1.669   0.780   2.085  0.4458 -1.5027  0.1989
13264SOL     OW46906  12.700   4.197  12.534 -0.0368 -0.3670 -0.4064
13264SOL    HW146907  12.753   4.212  12.613 -0.3857 -1.2899  0.0165
13264SOL    HW246908  12.734   4.115  12.498  0.9854  0.6845 -1.9538
13265SOL     OW46909   3.648   2.609   4.708  0.3912 -0.3706  0.1212
13265SOL    HW146910   3.678   2.543   4.771  0.9972  0.0017  0.2342
13265SOL    HW246911   3.715   2.678   4.712 -0.3987  0.4040  0.2415
13266SOL     OW46912   1.455  12.734  10.996 -0.1261 -0.6404 -0.7451
13266SOL    HW146913   1.546  12.751  10.969 -0.2082 -0.7900 -1.1215
13266SOL    HW246914   1.463  12.690  11.080  0.1173  0.4121 -0.1929
13267SOL     OW46915   5.116   9.424   0.626 -0.1350 -0.0223  0.7859
13267SOL    HW146916   5.187   9.390   0.680  1.1342 -0.6099 -1.1469
13267SOL    HW246917   5.145   9.511   0.600 -1.7763  1.2272  2.8250
13268SOL     OW46918   8.600   3.599  12.010 -0.1908 -0.4655 -0.5473
13268SOL    HW146919   8.565   3.633  12.093  2.5486  1.6278 -0.0998
13268SOL    HW246920   8.635   3.513  12.031  0.9925  0.2782  0.6864
13269SOL     OW46921   1.743   8.342   8.185 -0.4758 -0.2744  0.1168
13269SOL    HW146922   1.696   8.422   8.162  0.0711 -0.2211 -0.8787
13269SOL    HW246923   1.675   8.279   8.210 -0.9066  0.4837  0.8925
13270SOL     OW46924   0.524  11.125   9.270 -0.4691  0.1246 -0.2029
13270SOL    HW146925   0.535  11.042   9.222 -1.0246  0.0899 -0.2718
13270SOL    HW246926   0.614  11.154   9.287 -0.2605 -0.9487  0.6207
13271SOL     OW46927   2.738   8.742   7.670  0.6608 -0.3967  0.7061
13271SOL    HW146928   2.662   8.684   7.673  1.0420 -0.8974  0.7516
13271SOL    HW246929   2.796   8.710   7.739 -0.4308  1.9121  2.8160
13272SOL     OW46930   7.378  12.680  11.736  0.5226 -0.2363  0.5867
13272SOL    HW146931   7.322  12.725  11.673  0.3686  0.0066  0.8918
13272SOL    HW246932   7.459  12.731  11.736  0.2815  0.1625  1.0688
13273SOL     OW46933   8.449   7.151   5.763  0.5800  0.3472 -0.1283
13273SOL    HW146934   8.543   7.154   5.746  0.9034 -1.1719  1.2341
13273SOL    HW246935   8.425   7.059   5.755 -0.3775  0.4088  1.5535
13274SOL     OW46936   9.330   4.087   7.470 -0.5311 -0.6915 -0.0301
13274SOL    HW146937   9.373   4.095   7.385 -0.2563  0.2642  0.1850
13274SOL    HW246938   9.402   4.092   7.533 -0.7645 -1.0911  0.2708
13275SOL     OW46939  12.046   2.731  12.057 -0.0671 -0.2626 -0.0234
13275SOL    HW146940  12.133   2.699  12.035  0.3415  0.9759 -0.3271
13275SOL    HW246941  11.991   2.703  11.984  0.1386 -0.8121  0.0334
13276SOL     OW46942   5.859   3.782  10.521  0.4192 -0.1181  0.5200
13276SOL    HW146943   5.894   3.766  10.609  0.9424  2.2743  0.8018
13276SOL    HW246944   5.810   3.863  10.529  0.8930  0.4094 -1.5048
13277SOL     OW46945  10.277   5.076   8.563 -0.3914  0.0044  0.3176
13277SOL    HW146946  10.302   5.152   8.510  0.3117 -0.4177  0.0335
13277SOL    HW246947  10.339   5.077   8.636 -0.6332 -0.0692  0.5219
13278SOL     OW46948  10.558   9.756   7.723 -0.0094 -0.0496 -0.4351
13278SOL    HW146949  10.594   9.819   7.661  1.3980 -0.7137 -0.3386
13278SOL    HW246950  10.472   9.790   7.744  0.5704  1.6590 -0.6474
13279SOL     OW46951   4.763   4.197   2.693  0.6838  0.0988 -0.2294
13279SOL    HW146952   4.689   4.150   2.655 -0.8128  0.0169  2.4870
13279SOL    HW246953   4.841   4.152   2.660 -0.5740 -1.6717 -0.9128
13280SOL     OW46954  10.270   0.935   7.100 -0.4838  0.2325 -0.0620
13280SOL    HW146955  10.278   1.007   7.162 -0.0103  1.1062 -1.1035
13280SOL    HW246956  10.198   0.882   7.134 -0.9992  1.3223  0.6025
13281SOL     OW46957   2.768  11.778   6.936 -0.4386 -0.2876  0.3721
13281SOL    HW146958   2.797  11.687   6.927 -0.6174 -0.2025 -1.3175
13281SOL    HW246959   2.734  11.783   7.025  0.0897 -1.7244  0.6839
13282SOL     OW46960   2.046   1.044   8.071 -0.1037  0.0244 -0.2362
13282SOL    HW146961   2.129   1.021   8.029 -0.1466  0.7301 -0.7340
13282SOL    HW246962   2.071   1.108   8.139 -0.1183 -0.5843  0.3536
13283SOL     OW46963   3.030   7.759  12.442  0.7904 -0.0147  0.3157
13283SOL    HW146964   3.051   7.839  12.394 -1.1689  1.4295  1.7253
13283SOL    HW246965   3.027   7.785  12.534  1.9002 -2.1517  1.0393
13284SOL     OW46966   1.993   0.372   8.840 -0.4012  0.1282 -0.2485
13284SOL    HW146967   1.976   0.310   8.769  0.9484 -0.1722 -0.3394
13284SOL    HW246968   1.968   0.325   8.919  0.3188 -0.4322 -0.3441
13285SOL     OW46969   9.640   7.026  11.350 -0.0162 -0.1079  0.3622
13285SOL    HW146970   9.601   7.048  11.434  0.9916 -0.0949  0.8430
13285SOL    HW246971   9.734   7.023  11.367  0.1531 -0.8754 -0.5827
13286SOL     OW46972   2.996   6.288   7.169 -0.4831  0.2093  0.0914
13286SOL    HW146973   2.917   6.340   7.154  0.3741  1.3987 -0.5013
13286SOL    HW246974   2.999   6.226   7.096 -2.0531 -1.4238  1.3510
13287SOL     OW46975   6.533  11.770   3.911 -0.4403  0.5130 -0.3706
13287SOL    HW146976   6.484  11.757   3.992 -2.8204  1.6691 -1.5457
13287SOL    HW246977   6.603  11.830   3.934 -1.4437  1.2932  0.7241
13288SOL     OW46978   8.479   9.137   4.929 -0.0273  0.3321  0.2091
13288SOL    HW146979   8.548   9.089   4.975 -0.1397 -0.3123 -0.2794
13288SOL    HW246980   8.513   9.226   4.920  0.6777  0.0540  0.0941
13289SOL     OW46981   3.928   4.380   2.012  0.0987  0.4352 -0.4940
13289SOL    HW146982   3.947   4.297   2.056 -1.5784  0.9103  1.3044
13289SOL    HW246983   3.989   4.443   2.051 -1.7212  0.9668  1.7397
13290SOL     OW46984  10.996   4.262   0.509  0.3433  0.1348 -0.1821
13290SOL    HW146985  11.056   4.189   0.525  0.4388  0.3756  0.5994
13290SOL    HW246986  11.006   4.281   0.415  2.0696  0.6465  0.0692
13291SOL     OW46987   4.338   0.565   0.251 -0.5369 -0.6195 -0.0711
13291SOL    HW146988   4.403   0.516   0.202 -0.5467 -0.7854  0.0789
13291SOL    HW246989   4.389   0.614   0.316 -0.4586  0.1808 -0.7312
13292SOL     OW46990  10.892  10.152   4.635 -0.2040 -0.1626  0.2264
13292SOL    HW146991  10.851  10.191   4.558  1.0070 -0.0123 -0.3788
13292SOL    HW246992  10.872  10.213   4.707 -2.6969 -1.1142  0.4263
13293SOL     OW46993   7.313   6.132   0.927  0.2167  0.1345  0.1039
13293SOL    HW146994   7.295   6.094   0.841  0.9473 -0.4248  0.1908
13293SOL    HW246995   7.309   6.058   0.987 -0.0197  0.4798  0.5178
13294SOL     OW46996   1.874   2.648  10.190  0.4577 -0.5916 -0.3973
13294SOL    HW146997   1.880   2.656  10.095  0.1274 -2.3768 -0.6209
13294SOL    HW246998   1.825   2.567  10.203 -0.0163 -0.0715  1.3035
13295SOL     OW46999   6.575  11.128   2.718 -0.5480  0.1954 -0.0624
13295SOL    HW147000   6.628  11.068   2.771  1.0317  1.5476 -0.0394
13295SOL    HW247001   6.631  11.204   2.704 -1.1000  0.1493 -3.1949
13296SOL     OW47002   5.426   2.206   0.379  0.7186  0.0790  0.5840
13296SOL    HW147003   5.472   2.167   0.453  2.5811 -1.4043 -1.2359
13296SOL    HW247004   5.489   2.202   0.307 -1.5294  0.0509 -1.4836
13297SOL     OW47005   2.681   8.971  10.957 -0.3100 -0.2323  0.0054
13297SOL    HW147006   2.687   9.018  10.873  0.4857 -0.4462 -0.0649
13297SOL    HW247007   2.736   9.022  11.017 -0.8163 -0.1229  0.3790
13298SOL     OW47008   2.512   4.293  11.304 -0.0011  0.1765 -0.0460
13298SOL    HW147009   2.584   4.275  11.243 -1.2978 -0.0780 -1.5800
13298SOL    HW247010   2.498   4.388  11.297 -0.4943  0.0745 -0.5970
13299SOL     OW47011  10.528   7.410   3.536  0.3078  0.8638 -0.2400
13299SOL    HW147012  10.451   7.403   3.480 -0.2177  0.2289  0.5469
13299SOL    HW247013  10.587   7.341   3.505 -0.9219 -1.0323  1.3941
13300SOL     OW47014   2.966   0.311   1.818  0.1246 -0.0920 -0.5952
13300SOL    HW147015   2.911   0.264   1.754  0.6071 -0.7990 -0.5080
13300SOL    HW247016   2.904   0.351   1.878 -0.4103  1.8016 -2.3106
13301SOL     OW47017  10.054   6.734   4.274  0.6388  0.5834 -0.2346
13301SOL    HW147018  10.048   6.809   4.215  0.4557  0.0028 -0.9738
13301SOL    HW247019   9.963   6.709   4.290  0.6981 -0.8539 -1.8198
13302SOL     OW47020   0.828   0.385   3.531 -0.0421  0.7681 -0.1934
13302SOL    HW147021   0.867   0.298   3.524 -0.4080  0.7306 -2.1596
13302SOL    HW247022   0.758   0.375   3.595  0.2315 -0.2558 -0.0388
13303SOL     OW47023   5.967   8.671   8.377  0.6683  0.1637  0.0593
13303SOL    HW147024   6.030   8.614   8.333  0.0327 -0.2221 -0.3678
13303SOL    HW247025   5.921   8.613   8.438  2.2878  0.8962  2.0997
13304SOL     OW47026   8.430  10.202   9.111  0.6863  0.4028  0.8238
13304SOL    HW147027   8.342  10.190   9.147  0.2495  0.9719 -0.0409
13304SOL    HW247028   8.416  10.237   9.023  1.7800  1.2212  0.9477
13305SOL     OW47029   5.056   8.391   3.727  0.1440 -0.5329  0.2565
13305SOL    HW147030   4.998   8.461   3.696  0.2703 -0.1141  0.9426
13305SOL    HW247031   4.997   8.317   3.744  0.0352 -0.6753 -0.6762
13306SOL     OW47032   0.533   0.961  11.360 -0.9624  0.2834  0.4671
13306SOL    HW147033   0.627   0.954  11.347 -1.1161  1.1902 -1.4712
13306SOL    HW247034   0.494   0.914  11.286 -1.9919  2.3154 -0.3564
13307SOL     OW47035   9.380  10.221   3.519 -0.7797 -0.4138 -0.6712
13307SOL    HW147036   9.475  10.216   3.530 -0.8865  0.8202  1.1770
13307SOL    HW247037   9.363  10.172   3.438  1.2453 -1.9958 -0.2403
13308SOL     OW47038   4.117   8.886   4.575  0.1207 -0.0148  0.1609
13308SOL    HW147039   4.029   8.910   4.546  0.2008  0.6779  0.4925
13308SOL    HW247040   4.105   8.851   4.663  0.5346  3.1476  1.5883
13309SOL     OW47041   4.497   1.660   8.785  0.1347 -0.1858 -0.5354
13309SOL    HW147042   4.526   1.573   8.758  1.0671 -1.5302  4.0229
13309SOL    HW247043   4.560   1.687   8.852 -1.9427  2.5985  0.4716
13310SOL     OW47044   4.657   2.946   5.584  0.4112 -0.1207  0.3767
13310SOL    HW147045   4.725   3.012   5.598  0.6000 -0.0464 -0.8286
13310SOL    HW247046   4.619   2.968   5.499 -0.2254 -0.9604  0.4305
13311SOL     OW47047   8.363   2.972   6.171  0.0925 -0.1703 -0.4616
13311SOL    HW147048   8.333   2.959   6.081 -4.1410 -2.5150  1.0155
13311SOL    HW247049   8.348   3.065   6.188  0.6134  0.2280 -2.0292
13312SOL     OW47050   7.179   1.081   8.540  0.0943  0.0570  0.4605
13312SOL    HW147051   7.163   1.159   8.592 -2.4352  1.2391 -1.7943
13312SOL    HW247052   7.114   1.018   8.571 -1.4310  0.7702 -1.0741
13313SOL     OW47053   2.669   0.926   0.556  0.3074 -0.1009 -0.2357
13313SOL    HW147054   2.620   0.847   0.532  0.3386  0.2259 -1.4337
13313SOL    HW247055   2.698   0.963   0.472  3.4479 -0.7889  0.4437
13314SOL     OW47056   3.513  10.469   6.814  0.6794 -0.0164 -0.3940
13314SOL    HW147057   3.514  10.461   6.910  1.2590  0.2505 -0.3687
13314SOL    HW247058   3.426  10.504   6.794  0.2311 -0.9115 -0.0470
13315SOL     OW47059   5.563   4.899   0.652 -0.4670  0.4915 -0.2072
13315SOL    HW147060   5.478   4.857   0.652  0.1619 -0.8640  0.7823
13315SOL    HW247061   5.625   4.828   0.667  0.7657  1.5877  0.0971
13316SOL     OW47062   4.876   1.846   0.485 -0.2162  0.5323  0.0496
13316SOL    HW147063   4.834   1.914   0.538 -1.1271  0.8946 -1.0901
13316SOL    HW247064   4.864   1.876   0.395  1.2937 -0.0737 -0.3756
13317SOL     OW47065   3.547   6.460   2.382 -0.5865  0.0214 -0.0894
13317SOL    HW147066   3.637   6.492   2.373 -1.0960  1.7950  0.6714
13317SOL    HW247067   3.557   6.372   2.419  0.8303  0.1046 -0.1940
13318SOL     OW47068  11.648  12.748   8.855 -0.0479 -0.1255  0.2839
13318SOL    HW147069  11.645  12.834   8.898  0.9310  0.3964 -0.6417
13318SOL    HW247070  11.661  12.768   8.762 -0.8959 -1.2583 -0.1088
13319SOL     OW47071   9.492   6.202   7.385 -0.5001 -0.0935  0.3120
13319SOL    HW147072   9.545   6.228   7.309 -1.9217  1.8159 -0.1112
13319SOL    HW247073   9.406   6.183   7.348 -1.2244  0.9214  1.4103
13320SOL     OW47074   5.269  12.520  11.092  0.2958  0.4670 -0.3446
13320SOL    HW147075   5.231  12.437  11.062  1.5661  0.5686 -2.3527
13320SOL    HW247076   5.193  12.576  11.108 -0.4982  0.0712 -2.4753
13321SOL     OW47077  10.001   6.534   6.260  0.6308  0.1374 -0.7423
13321SOL    HW147078   9.977   6.452   6.218  3.1951 -1.9019  1.3914
13321SOL    HW247079  10.088   6.554   6.227  1.2643  0.3309  0.9200
13322SOL     OW47080  11.434   4.464   6.079  0.7730 -0.0056  0.3061
13322SOL    HW147081  11.513   4.412   6.070  0.1616 -1.0064  0.6187
13322SOL    HW247082  11.362   4.403   6.064  0.0421  1.2152 -1.6720
13323SOL     OW47083   1.825   7.341   7.583 -0.3339  0.2540 -0.3024
13323SOL    HW147084   1.821   7.335   7.488 -2.1196  1.6091 -0.3549
13323SOL    HW247085   1.784   7.425   7.604 -0.9223 -0.4831  1.7233
13324SOL     OW47086   0.373   8.375   6.466 -0.3119  0.4849  0.4497
13324SOL    HW147087   0.327   8.438   6.521 -1.5796 -1.0864  1.2715
13324SOL    HW247088   0.464   8.406   6.466 -1.1887  3.4557 -0.9030
13325SOL     OW47089   0.209   2.360   6.276 -0.1725  0.4762  0.0281
13325SOL    HW147090   0.208   2.390   6.367  0.2797  1.2147 -0.2071
13325SOL    HW247091   0.177   2.270   6.281  2.0260 -0.3237  1.2289
13326SOL     OW47092   6.702  10.467   9.413 -0.1077  0.4427  0.5591
13326SOL    HW147093   6.755  10.547   9.406 -1.1457  1.3025  2.0146
13326SOL    HW247094   6.728  10.429   9.497  2.0484 -2.0705 -1.0987
13327SOL     OW47095  11.344   3.012   4.571  0.1845  0.5404  0.0945
13327SOL    HW147096  11.369   2.927   4.605  1.5003 -0.2558 -2.5298
13327SOL    HW247097  11.352   3.003   4.476 -2.1269  2.8478 -0.4458
13328SOL     OW47098   1.122   1.209   8.257 -0.2435  0.1134  0.3135
13328SOL    HW147099   1.113   1.298   8.291 -0.9051  0.5046 -0.8370
13328SOL    HW247100   1.034   1.171   8.267  0.4815 -1.1274  2.6472
13329SOL     OW47101   0.549   4.229   4.336  0.3027 -0.3188  0.1708
13329SOL    HW147102   0.639   4.209   4.308 -0.0605  0.2656 -1.4924
13329SOL    HW247103   0.541   4.184   4.421  1.7460 -1.4229 -0.2205
13330SOL     OW47104   1.297  11.875   6.136  0.1705 -0.0562  0.4097
13330SOL    HW147105   1.367  11.854   6.074 -0.6623 -1.8786  0.0054
13330SOL    HW247106   1.323  11.831   6.217 -0.2140 -0.2575  0.4266
13331SOL     OW47107   3.942  11.432   3.521 -0.1904  0.0160  0.0122
13331SOL    HW147108   3.898  11.509   3.484 -1.0242 -0.2112  0.4868
13331SOL    HW247109   3.878  11.361   3.510  0.8605 -0.7899 -1.1040
13332SOL     OW47110   6.118   5.627   2.780 -0.4141 -0.1078  0.3172
13332SOL    HW147111   6.085   5.685   2.848  0.4562  0.6096  0.1516
13332SOL    HW247112   6.183   5.680   2.733  1.0320 -1.4726  0.7010
13333SOL     OW47113  12.720   8.512   8.273  0.3165 -0.6554 -0.3941
13333SOL    HW147114  12.636   8.504   8.318 -0.1944 -1.7722 -1.5061
13333SOL    HW247115  12.725   8.604   8.249  0.3579 -0.1431  1.4412
13334SOL     OW47116   9.087   8.240   2.795  0.3578  0.5460  0.4782
13334SOL    HW147117   9.083   8.324   2.841 -0.9693  1.2894 -0.8646
13334SOL    HW247118   9.040   8.179   2.852 -1.8070  1.5908 -0.0543
13335SOL     OW47119   7.215  11.137  12.205 -0.4958  0.4143  0.8771
13335SOL    HW147120   7.262  11.143  12.289  0.7147  2.6416  0.0962
13335SOL    HW247121   7.246  11.055  12.167  0.3705  0.3059  1.7699
13336SOL     OW47122   6.842   6.133  11.588  0.5228 -0.1915  0.8040
13336SOL    HW147123   6.765   6.077  11.598  0.6642 -0.5164  0.1074
13336SOL    HW247124   6.872   6.150  11.678  1.1201 -2.1061  0.9997
13337SOL     OW47125   9.910   5.145   9.309 -0.3833  0.6079  0.0158
13337SOL    HW147126   9.824   5.129   9.268 -1.0565  0.2302  1.5225
13337SOL    HW247127   9.894   5.135   9.403  1.6607 -1.0826  0.2517
13338SOL     OW47128   7.356  12.295  12.025  0.3079 -0.0293 -0.3740
13338SOL    HW147129   7.271  12.307  11.983 -0.5226  0.2175  1.2740
13338SOL    HW247130   7.398  12.381  12.020  0.4651 -0.1514 -1.1926
13339SOL     OW47131   6.941   5.238   2.257 -0.7099  1.2313  0.5767
13339SOL    HW147132   6.956   5.247   2.351 -2.1023 -1.9854  1.2407
13339SOL    HW247133   6.853   5.274   2.244 -1.1087  0.3775  0.8225
13340SOL     OW47134  11.323  11.633   5.660 -0.1043  0.1509  0.1577
13340SOL    HW147135  11.265  11.707   5.651 -0.6125 -0.4242 -1.6435
13340SOL    HW247136  11.282  11.578   5.727  0.6849  1.7935  2.0977
13341SOL     OW47137  10.313   3.945  12.047 -0.3095 -0.8668  0.5297
13341SOL    HW147138  10.231   3.991  12.026 -0.7467 -0.4973  2.8023
13341SOL    HW247139  10.363   4.009  12.098  1.1319 -1.3274 -0.2698
13342SOL     OW47140   2.218  12.344   9.987  0.5880 -0.4224  0.8273
13342SOL    HW147141   2.225  12.306   9.900  0.5029 -0.3268  0.7784
13342SOL    HW247142   2.156  12.416   9.977  0.8269 -0.2068  0.8970
13343SOL     OW47143   0.056   0.495   9.790  0.0197  0.0343  0.0273
13343SOL    HW147144  -0.013   0.558   9.773  0.7217  0.5375 -1.0920
13343SOL    HW247145   0.095   0.523   9.873 -0.1030  0.6900 -0.1320
13344SOL     OW47146   0.043   0.415   4.050 -0.0164 -0.4845  0.1469
13344SOL    HW147147   0.052   0.442   4.141  1.1308 -1.6417  0.4056
13344SOL    HW247148  -0.037   0.362   4.048 -0.9291  0.8154  0.1165
13345SOL     OW47149   8.847   0.548   5.096 -0.5731 -0.5798  0.3658
13345SOL    HW147150   8.846   0.483   5.026  2.4539 -0.5624  0.1934
13345SOL    HW247151   8.863   0.631   5.052  0.1063 -0.3907  0.9572
13346SOL     OW47152   3.321   6.961  12.899 -0.0062 -0.3412 -0.3610
13346SOL    HW147153   3.384   7.017  12.853 -0.2345  0.0498 -0.1950
13346SOL    HW247154   3.305   6.889  12.838 -0.9626  0.6073 -1.2685
13347SOL     OW47155   6.569  10.582   4.349  0.6217 -0.2226  0.5150
13347SOL    HW147156   6.580  10.642   4.422  1.7037  0.0889  0.1071
13347SOL    HW247157   6.652  10.584   4.303 -0.5304  0.8716 -1.6967
13348SOL     OW47158   7.390   7.904   8.594  0.2145 -0.8324 -0.3450
13348SOL    HW147159   7.448   7.883   8.521  0.3367  1.0265 -0.8339
13348SOL    HW247160   7.447   7.946   8.658 -0.3217 -0.2485 -0.2412
13349SOL     OW47161  10.656   0.593   7.370  0.3140  0.1564 -0.3015
13349SOL    HW147162  10.743   0.574   7.406  0.6144 -2.0502 -1.9989
13349SOL    HW247163  10.595   0.553   7.431  0.4342  1.6110  0.8354
13350SOL     OW47164   9.640  10.953   7.041 -0.1767 -0.2267  0.3391
13350SOL    HW147165   9.585  10.952   7.120  0.1093  1.2160  0.5750
13350SOL    HW247166   9.593  11.009   6.980 -0.5584 -1.5982 -0.6731
13351SOL     OW47167   5.856  11.087   0.417  0.4361 -0.3511 -0.1883
13351SOL    HW147168   5.877  11.157   0.355 -0.7382 -0.0745 -0.3007
13351SOL    HW247169   5.939  11.041   0.430  1.0951  0.6871 -0.5779
13352SOL     OW47170   4.942   3.870   6.809  0.0991 -0.4922  0.0563
13352SOL    HW147171   4.859   3.909   6.782  0.4098 -1.1633 -2.1192
13352SOL    HW247172   5.007   3.910   6.751  1.0026 -1.3420  0.4462
13353SOL     OW47173   9.759   0.325   7.860 -0.2257 -0.2546 -0.1703
13353SOL    HW147174   9.799   0.245   7.894 -0.0912 -0.3074 -0.4521
13353SOL    HW247175   9.679   0.336   7.911  0.3875  0.1148  0.7428
13354SOL     OW47176   3.879  11.944   0.276  0.1270 -0.5563  0.5792
13354SOL    HW147177   3.895  11.944   0.182 -0.6341 -1.0681  0.4420
13354SOL    HW247178   3.919  12.026   0.307  0.1474 -0.2524 -0.2261
13355SOL     OW47179   7.411   8.636   0.419 -0.0550 -0.1334 -0.2904
13355SOL    HW147180   7.480   8.600   0.363 -0.9756 -1.0127 -0.8993
13355SOL    HW247181   7.346   8.670   0.358 -0.7800 -0.5359  0.2427
13356SOL     OW47182   7.120   3.009  11.856 -0.1430  0.1603 -0.1127
13356SOL    HW147183   7.161   3.025  11.771  0.9552  1.0689  0.5597
13356SOL    HW247184   7.159   3.074  11.914  0.0539 -1.2334  1.3863
13357SOL     OW47185   4.916   9.828   8.560  0.1602 -0.6949 -0.4273
13357SOL    HW147186   4.922   9.742   8.600  2.1239 -1.3117 -1.8750
13357SOL    HW247187   4.824   9.837   8.535  0.1577 -2.9663 -1.4329
13358SOL     OW47188   2.863   4.137   3.885  0.2931  0.1545 -0.4939
13358SOL    HW147189   2.923   4.153   3.813  1.3998  0.5270  0.4670
13358SOL    HW247190   2.862   4.042   3.896 -0.2986  0.0568 -1.3199
13359SOL     OW47191   1.215  10.776   3.087  0.0978 -0.0833  0.1961
13359SOL    HW147192   1.139  10.736   3.128  0.1845  0.8568  1.3126
13359SOL    HW247193   1.289  10.723   3.117 -0.1738 -1.7367 -1.8385
13360SOL     OW47194   8.245   6.289   3.483  0.5156 -0.7069  0.3421
13360SOL    HW147195   8.290   6.361   3.437  2.5306 -1.5730  0.8385
13360SOL    HW247196   8.157   6.323   3.500  1.1342  1.3202 -0.1717
13361SOL     OW47197   9.947   9.419  11.121 -0.3178  0.3012  0.3699
13361SOL    HW147198   9.878   9.423  11.055  0.9338 -2.6801 -1.2934
13361SOL    HW247199  10.026   9.451  11.076  0.1361  0.2906  1.1279
13362SOL     OW47200   3.851   7.386   7.010 -0.6411 -0.0343 -0.0229
13362SOL    HW147201   3.842   7.291   7.022  0.5356 -0.4219 -1.6947
13362SOL    HW247202   3.797   7.406   6.934  1.5045 -0.0033 -1.6616
13363SOL     OW47203   6.488   3.424  12.655 -0.3817 -0.9657  0.3048
13363SOL    HW147204   6.565   3.367  12.653 -0.4965 -1.1126 -1.4877
13363SOL    HW247205   6.512   3.495  12.716  0.9657 -1.2737  0.1607
13364SOL     OW47206   1.598   4.386  12.214  0.6674 -0.3920  0.0086
13364SOL    HW147207   1.676   4.421  12.170  1.1320 -1.4312 -0.0220
13364SOL    HW247208   1.625   4.300  12.246 -0.9069 -1.4523 -1.3494
13365SOL     OW47209   8.028   6.611   9.620 -0.3201  0.4475 -0.1138
13365SOL    HW147210   8.001   6.561   9.697  0.8659  1.8008  1.2772
13365SOL    HW247211   8.099   6.666   9.653  1.6102 -0.3438 -2.6655
13366SOL     OW47212   1.329   7.074   7.395  0.2841  0.0184 -0.0755
13366SOL    HW147213   1.363   7.019   7.466  1.2099 -0.9226 -1.2187
13366SOL    HW247214   1.336   7.163   7.429 -2.2188 -0.5349  2.2234
13367SOL     OW47215   0.955   6.519  11.760  0.1305 -0.1275  0.4758
13367SOL    HW147216   0.886   6.490  11.820  0.1157  0.9930  1.0267
13367SOL    HW247217   0.980   6.606  11.792  1.3611 -0.2510 -0.0946
13368SOL     OW47218  11.582  12.447   5.084 -0.4338 -0.2295  0.5416
13368SOL    HW147219  11.530  12.523   5.059 -1.0190  0.5448  3.7499
13368SOL    HW247220  11.517  12.379   5.105 -0.2097  0.2635  3.1105
13369SOL     OW47221  11.426   5.568   6.020  0.6052 -0.4985  0.3143
13369SOL    HW147222  11.414   5.643   5.961  0.2763  0.7264  1.8786
13369SOL    HW247223  11.519   5.545   6.010  0.6197 -0.1512 -0.4647
13370SOL     OW47224   1.980   6.284   3.693 -0.2631  0.0882  0.5054
13370SOL    HW147225   1.950   6.375   3.705 -0.3360 -0.0413  1.3341
13370SOL    HW247226   1.912   6.231   3.735 -0.1604 -0.3471  0.1248
13371SOL     OW47227   8.649  10.196   9.311  0.1151  0.1970 -0.4254
13371SOL    HW147228   8.647  10.110   9.353  0.1402  0.0162 -0.7851
13371SOL    HW247229   8.569  10.199   9.259  0.1601  0.3508 -0.4846
13372SOL     OW47230   6.249   1.514   8.047 -0.3285  0.2573 -0.1360
13372SOL    HW147231   6.320   1.579   8.040  0.1119 -0.2678 -0.6112
13372SOL    HW247232   6.261   1.474   8.133 -0.6914  0.8943  0.2261
13373SOL     OW47233   8.331   6.322   8.932 -0.0321  0.6280  0.1298
13373SOL    HW147234   8.374   6.304   9.015 -0.2982  0.3462  0.2089
13373SOL    HW247235   8.394   6.374   8.883  1.0583 -1.0523 -0.3596
13374SOL     OW47236   8.703   4.765   3.562 -0.3624 -0.4126 -0.1991
13374SOL    HW147237   8.644   4.784   3.489 -0.2926 -1.8740 -0.6791
13374SOL    HW247238   8.788   4.747   3.520  1.2508  4.0957  0.5950
13375SOL     OW47239   0.539   0.988  12.951  0.0182 -0.4921 -0.0487
13375SOL    HW147240   0.463   0.951  12.906 -0.6735  0.8959 -0.0834
13375SOL    HW247241   0.612   0.973  12.891 -0.8598  1.2008 -1.6343
13376SOL     OW47242  12.626   1.033   0.775  0.0694 -0.0365  0.1249
13376SOL    HW147243  12.597   0.943   0.760  1.7158 -0.3061 -1.8126
13376SOL    HW247244  12.719   1.025   0.797  0.7037  1.2558 -1.8500
13377SOL     OW47245   5.835   5.809   4.080  0.4333 -0.2844  0.3322
13377SOL    HW147246   5.766   5.752   4.114  0.0170  0.0389  0.0454
13377SOL    HW247247   5.797   5.847   4.001  1.3217 -0.8942 -0.4074
13378SOL     OW47248  10.583   2.029   5.734  0.2343 -0.0632  0.5921
13378SOL    HW147249  10.647   2.019   5.664 -0.3463 -3.7065  0.4082
13378SOL    HW247250  10.498   2.033   5.689  0.0491  1.0168  1.0005
13379SOL     OW47251   1.208  12.689   7.965  0.5170 -0.1105  0.3446
13379SOL    HW147252   1.218  12.782   7.987 -1.2238 -0.2283  1.8705
13379SOL    HW247253   1.156  12.689   7.885 -1.4599  0.2819  1.5408
13380SOL     OW47254   1.641   8.574   1.270  0.4579  0.1093 -0.2125
13380SOL    HW147255   1.658   8.664   1.245  0.5055 -0.5019 -2.6306
13380SOL    HW247256   1.724   8.528   1.255 -0.4100 -0.9331 -2.3668
13381SOL     OW47257   7.206   0.210  11.338 -0.0972 -0.0116  0.6067
13381SOL    HW147258   7.159   0.265  11.275  0.5796  1.1068  1.0601
13381SOL    HW247259   7.267   0.269  11.381  2.0593 -1.4827 -0.2565
13382SOL     OW47260  10.292  11.777   4.247 -0.0475 -0.4613 -0.3394
13382SOL    HW147261  10.225  11.729   4.296 -0.7669  0.5642 -0.2872
13382SOL    HW247262  10.248  11.856   4.215  0.7847 -0.4155 -1.4572
13383SOL     OW47263  10.902  11.148   6.624 -0.5643 -0.7224  0.2288
13383SOL    HW147264  10.966  11.089   6.664 -1.6579 -1.7397  0.5290
13383SOL    HW247265  10.881  11.108   6.540  2.3392  1.8261 -1.9352
13384SOL     OW47266   5.999   5.830   7.828 -0.2646  0.7130 -0.1381
13384SOL    HW147267   5.966   5.799   7.912 -2.4262 -1.7684 -1.7436
13384SOL    HW247268   5.983   5.925   7.830 -2.8163  0.3571  1.2649
13385SOL     OW47269   3.419   0.677   2.171 -0.1053 -0.4534  0.3221
13385SOL    HW147270   3.456   0.721   2.095  1.9822 -0.6332  1.1653
13385SOL    HW247271   3.375   0.599   2.135 -0.8905  0.4901 -0.8370
13386SOL     OW47272   3.573   1.800   2.435  0.0925 -0.2882 -0.1569
13386SOL    HW147273   3.484   1.799   2.469  0.5081  1.8149  1.1842
13386SOL    HW247274   3.629   1.778   2.510  0.8166  0.6994 -0.3800
13387SOL     OW47275   7.852   9.912  11.407  0.2428 -0.4553 -0.3671
13387SOL    HW147276   7.816   9.848  11.468 -3.2722  1.9877  0.4051
13387SOL    HW247277   7.780   9.930  11.346  1.3286  2.1703 -1.0107
13388SOL     OW47278   1.624   9.686   4.180  0.0355  0.5045 -0.4770
13388SOL    HW147279   1.646   9.636   4.102  2.4633 -4.2870  2.7814
13388SOL    HW247280   1.705   9.730   4.204 -0.6062  1.6915 -0.4116
13389SOL     OW47281   9.041  10.138   3.448 -0.0966 -0.3438  0.3593
13389SOL    HW147282   9.113  10.149   3.387 -0.4526  0.5328  0.0786
13389SOL    HW247283   8.993  10.062   3.416 -0.7766  0.6037 -0.9806
13390SOL     OW47284   8.129   7.364   3.503  0.0434  0.4231 -0.1352
13390SOL    HW147285   8.115   7.458   3.488  1.3739  0.8085  0.8776
13390SOL    HW247286   8.199   7.340   3.441 -0.0080  0.1922 -0.1060
13391SOL     OW47287   6.819   2.018   1.385  0.2632 -0.3921  0.9364
13391SOL    HW147288   6.829   1.965   1.306  0.9077 -0.7943  1.2707
13391SOL    HW247289   6.727   2.042   1.387 -0.1225 -1.7913  0.9491
13392SOL     OW47290   2.457   1.364  10.100 -0.4430 -0.0745  0.8506
13392SOL    HW147291   2.504   1.389  10.179  1.3005 -0.8342  0.0889
13392SOL    HW247292   2.506   1.290  10.065 -2.8009 -1.6202  0.5533
13393SOL     OW47293   1.445  11.763  10.987 -0.3427  0.2210 -0.2505
13393SOL    HW147294   1.412  11.768  11.077 -0.7243 -1.5598 -0.2397
13393SOL    HW247295   1.532  11.802  10.991 -0.0420 -0.5227  1.0755
13394SOL     OW47296   8.185   9.280   4.807 -0.0604 -0.0979  0.3025
13394SOL    HW147297   8.270   9.317   4.784 -0.7155  1.6121  0.4667
13394SOL    HW247298   8.204   9.218   4.878  1.6718 -3.7522 -3.0261
13395SOL     OW47299   4.487   4.219   9.365 -0.2682  0.4504 -0.0309
13395SOL    HW147300   4.439   4.251   9.288  0.1577  1.4243  0.0870
13395SOL    HW247301   4.470   4.125   9.367  0.9612  0.1372 -2.2135
13396SOL     OW47302   1.345  10.647   1.149  0.2300  0.3737 -0.1942
13396SOL    HW147303   1.360  10.732   1.108 -2.9436  2.2149  2.1047
13396SOL    HW247304   1.250  10.637   1.150  0.4573 -3.8101 -1.3062
13397SOL     OW47305   8.190   3.882   9.821 -0.1021 -0.3521  0.2706
13397SOL    HW147306   8.283   3.896   9.842 -0.6298  0.1498  2.5411
13397SOL    HW247307   8.188   3.797   9.777  1.4344 -0.3939  0.2197
13398SOL     OW47308   8.085   4.615   7.281  0.3218 -0.8739  0.1273
13398SOL    HW147309   8.064   4.680   7.348  0.4095 -0.5130 -0.1909
13398SOL    HW247310   8.175   4.588   7.300  1.0526  0.6340 -0.9584
13399SOL     OW47311   3.574   5.418   3.667  0.2772  0.0336  0.0649
13399SOL    HW147312   3.573   5.323   3.680 -1.5990  0.1059  0.8995
13399SOL    HW247313   3.532   5.452   3.746 -0.2755  1.4535 -0.8180
13400SOL     OW47314   6.779   9.638   1.932  0.2716  0.0656 -0.7458
13400SOL    HW147315   6.720   9.588   1.988  0.8451  1.5567  1.3245
13400SOL    HW247316   6.867   9.613   1.962  0.5814  2.9556  1.1430
13401SOL     OW47317  12.596   0.004   4.824 -0.0775 -1.2779  0.2211
13401SOL    HW147318  12.685   0.009   4.857 -0.6095 -1.4721  1.7938
13401SOL    HW247319  12.541   0.023   4.901 -1.3706  0.9977 -1.1339
13402SOL     OW47320   3.549   2.700   3.540  0.0823 -0.1642  0.0229
13402SOL    HW147321   3.494   2.623   3.523  1.3922 -1.1342  0.0236
13402SOL    HW247322   3.561   2.741   3.455 -2.7062  1.5699  0.3471
13403SOL     OW47323   3.207   7.719  12.164  0.0884 -0.3694 -0.9694
13403SOL    HW147324   3.217   7.640  12.218 -0.5997 -0.1580 -0.5077
13403SOL    HW247325   3.296   7.754  12.155  0.2403 -0.4969 -0.0893
13404SOL     OW47326  11.419   6.935   0.764  0.0356  0.6239 -0.4915
13404SOL    HW147327  11.365   6.956   0.687  1.0863 -0.6709 -1.6516
13404SOL    HW247328  11.496   6.892   0.727  0.1976 -0.7741  1.3510
13405SOL     OW47329   6.228   9.760   3.255  0.0730  0.2341 -0.6365
13405SOL    HW147330   6.224   9.843   3.208 -1.6814  0.6989  0.2576
13405SOL    HW247331   6.321   9.749   3.276  0.2734  2.2935 -0.2317
13406SOL     OW47332  10.590   2.526  10.886  0.0884  0.4723 -0.7572
13406SOL    HW147333  10.536   2.519  10.807 -1.7211 -1.8363  0.5787
13406SOL    HW247334  10.621   2.437  10.902  2.4606  1.3394 -0.1589
13407SOL     OW47335   3.307  12.719   3.653  0.0186  0.2391 -0.1007
13407SOL    HW147336   3.229  12.673   3.685 -1.2282  1.4748 -1.2350
13407SOL    HW247337   3.349  12.753   3.732 -0.9855  0.1664  0.4803
13408SOL     OW47338   3.539   4.509   5.880  0.6684  0.2613 -0.4296
13408SOL    HW147339   3.633   4.522   5.864  0.9742 -2.5114 -1.4261
13408SOL    HW247340   3.498   4.519   5.794 -0.0722  1.7991  0.0551
13409SOL     OW47341   5.868   4.229  12.387 -0.5775 -0.3151 -0.7787
13409SOL    HW147342   5.791   4.186  12.349 -3.7800  5.3877 -2.0033
13409SOL    HW247343   5.928   4.239  12.313 -1.0652 -0.2680 -1.1809
13410SOL     OW47344   7.078   4.948   1.809  0.2050 -0.2690  0.4078
13410SOL    HW147345   7.163   4.944   1.766  0.1103 -1.0168  0.2781
13410SOL    HW247346   7.043   5.034   1.785  0.3716 -0.4690 -0.6004
13411SOL     OW47347   4.979   8.141  10.427  0.3059 -0.0396 -0.1814
13411SOL    HW147348   4.911   8.201  10.397  0.1423 -0.3013 -0.3263
13411SOL    HW247349   4.933   8.061  10.452  0.5688 -0.2583 -0.3888
13412SOL     OW47350   3.755   9.337   6.285  0.1503 -0.1810  0.5004
13412SOL    HW147351   3.714   9.402   6.227 -0.1323 -1.6241 -0.9802
13412SOL    HW247352   3.690   9.267   6.292  1.5414 -1.5980 -0.2712
13413SOL     OW47353   6.718   2.700   0.641 -0.1346 -0.0943 -0.0793
13413SOL    HW147354   6.633   2.743   0.633  0.1855  0.6361  0.3605
13413SOL    HW247355   6.782   2.771   0.630  0.4234 -0.6597 -0.5781
13414SOL     OW47356   2.273   0.796   3.009 -0.0183 -0.0733  0.2182
13414SOL    HW147357   2.204   0.858   2.987  0.3725 -0.0655 -1.0643
13414SOL    HW247358   2.289   0.748   2.927  1.1516 -0.4124  0.6269
13415SOL     OW47359   6.198   3.334   4.639  0.0887 -0.2039 -0.1979
13415SOL    HW147360   6.164   3.413   4.681  0.1611 -0.2211 -0.1092
13415SOL    HW247361   6.136   3.318   4.567  0.9336  0.8094 -1.1828
13416SOL     OW47362   7.296   8.510   0.622  0.0263  0.2413  0.3123
13416SOL    HW147363   7.376   8.509   0.675 -0.3032  3.1498  1.0366
13416SOL    HW247364   7.315   8.572   0.551 -1.0561 -0.2536 -0.4420
13417SOL     OW47365   6.973   8.645   0.316 -0.0263  0.6351 -0.0511
13417SOL    HW147366   6.935   8.663   0.402 -0.3133 -0.7302  0.1350
13417SOL    HW247367   6.975   8.549   0.310  1.6887  0.6872 -0.8263
13418SOL     OW47368   6.745   3.228  11.959  0.3079 -0.0564  0.3730
13418SOL    HW147369   6.684   3.156  11.978 -0.1182 -0.4951 -2.3218
13418SOL    HW247370   6.694   3.307  11.976 -0.1733 -0.4073  0.5985
13419SOL     OW47371   7.737   2.283   5.565 -0.0047 -0.0140 -0.0082
13419SOL    HW147372   7.702   2.199   5.536 -1.2419  0.6619 -0.5080
13419SOL    HW247373   7.661   2.341   5.570  0.9280  1.2792 -0.3525
13420SOL     OW47374   8.743  11.471   1.673 -0.3353  0.1333  0.2364
13420SOL    HW147375   8.658  11.513   1.684 -0.4011 -0.0793  0.5468
13420SOL    HW247376   8.807  11.540   1.688 -0.3716 -0.3405  3.1307
13421SOL     OW47377   6.801   7.352   5.693  0.3433  0.2451  0.0579
13421SOL    HW147378   6.720   7.305   5.669 -0.2038  0.6067  1.1281
13421SOL    HW247379   6.792   7.437   5.649 -0.5981  0.8594  1.3615
13422SOL     OW47380   2.910   7.362  12.055  0.0235 -0.6120  0.4060
13422SOL    HW147381   2.964   7.338  11.979 -0.5135 -1.7612  0.3650
13422SOL    HW247382   2.914   7.286  12.112  0.0604  0.0754  1.3488
13423SOL     OW47383   4.663  11.574   1.998 -0.3432  0.7005  0.5067
13423SOL    HW147384   4.667  11.588   2.092 -0.7420 -3.1104  1.2584
13423SOL    HW247385   4.750  11.595   1.966 -0.1327  1.8110  1.7250
13424SOL     OW47386   6.293   6.996   1.651  0.1547  0.3218 -0.0252
13424SOL    HW147387   6.274   6.948   1.571  1.4209 -1.9066  0.9158
13424SOL    HW247388   6.208   7.004   1.695 -0.3007  0.2582 -0.8612
13425SOL     OW47389  11.126   1.302   0.122  0.1804 -0.5026 -0.1440
13425SOL    HW147390  11.105   1.288   0.030 -2.3870  1.7398 -0.0043
13425SOL    HW247391  11.076   1.236   0.169  3.5151 -3.4527 -0.2830
13426SOL     OW47392   1.433  12.672   9.283 -0.1036 -0.3562 -0.1815
13426SOL    HW147393   1.460  12.647   9.194  0.2570  0.0808 -0.2003
13426SOL    HW247394   1.371  12.604   9.309 -1.9969  0.7189 -1.6420
13427SOL     OW47395  10.224  12.479  10.007 -0.1617  0.0576  0.4203
13427SOL    HW147396  10.215  12.573   9.992  1.3116  0.1819  0.0825
13427SOL    HW247397  10.264  12.473  10.094  0.8903 -0.1699 -0.0551
13428SOL     OW47398   7.704   4.720   3.136 -0.1054 -0.3487  0.4613
13428SOL    HW147399   7.786   4.672   3.145  0.5632  0.6718  0.0601
13428SOL    HW247400   7.667   4.721   3.225 -0.2533 -1.7754  0.4277
13429SOL     OW47401   8.995   5.425   0.107 -0.5700  0.0735  0.0637
13429SOL    HW147402   8.917   5.448   0.057 -0.0211  0.5054 -0.6068
13429SOL    HW247403   9.061   5.403   0.041 -0.4701 -1.4566  0.6426
13430SOL     OW47404  12.589   7.358  11.964 -0.0014 -0.3573 -0.1255
13430SOL    HW147405  12.587   7.271  12.003  1.1509 -0.0755  0.6119
13430SOL    HW247406  12.504   7.397  11.987 -0.1894 -0.9847  0.2439
13431SOL     OW47407   3.490   8.706   3.429 -0.2248  0.4665 -0.1448
13431SOL    HW147408   3.423   8.765   3.395 -0.4673  0.1252 -0.2719
13431SOL    HW247409   3.453   8.618   3.416 -0.2701  0.3159  0.8671
13432SOL     OW47410   9.948   7.813   5.797  0.3760 -0.3370  0.7678
13432SOL    HW147411   9.920   7.850   5.713 -0.9098 -3.4954 -0.3418
13432SOL    HW247412  10.043   7.824   5.798  0.4942 -0.6540 -1.3753
13433SOL     OW47413   2.151   6.164   0.288 -0.1639  0.2272 -0.2813
13433SOL    HW147414   2.130   6.219   0.364  0.5811  0.5806 -0.3245
13433SOL    HW247415   2.196   6.222   0.228  2.0191 -0.7461  0.3102
13434SOL     OW47416   9.790   2.167  11.261 -0.2229  0.0763  0.6422
13434SOL    HW147417   9.885   2.179  11.253 -0.2377 -0.5820 -0.8615
13434SOL    HW247418   9.754   2.254  11.247  0.1184  0.1500  0.2048
13435SOL     OW47419  10.271   6.656   1.509  0.3301 -0.1966 -0.6814
13435SOL    HW147420  10.324   6.721   1.555 -1.4526  0.2699  0.8128
13435SOL    HW247421  10.192   6.647   1.562 -1.1298 -0.8509 -2.8412
13436SOL     OW47422   0.178   0.562   1.728 -0.5848 -0.6711 -0.9803
13436SOL    HW147423   0.259   0.612   1.722 -0.1463 -1.4365 -1.5890
13436SOL    HW247424   0.193   0.485   1.674 -0.8314 -2.0341  0.7965
13437SOL     OW47425   2.411   3.014   7.028  0.0516 -0.4730  0.4524
13437SOL    HW147426   2.430   2.980   7.115 -0.6847 -0.8388  0.4817
13437SOL    HW247427   2.482   3.076   7.010  0.4148 -0.6740  1.1515
13438SOL     OW47428   8.354  12.794  11.245  0.3518 -0.7208  0.2203
13438SOL    HW147429   8.266  12.761  11.261  0.1746  0.6963  2.6516
13438SOL    HW247430   8.410  12.743  11.304  0.7185  0.2222  0.7116
13439SOL     OW47431   0.324   3.355   4.923 -0.5497 -0.4071 -0.3228
13439SOL    HW147432   0.394   3.304   4.963 -0.5639 -0.3789 -0.2625
13439SOL    HW247433   0.245   3.305   4.940 -0.5042 -0.5922 -0.6559
13440SOL     OW47434   4.346   3.776  10.539 -0.2871 -0.2952  0.1011
13440SOL    HW147435   4.393   3.801  10.618  1.6778 -0.6088 -0.9055
13440SOL    HW247436   4.297   3.697  10.565 -0.3029  0.0526  1.1935
13441SOL     OW47437  11.957   6.509   8.369 -0.3044  0.4403 -0.2804
13441SOL    HW147438  11.966   6.476   8.459  2.1690  1.6371 -0.0066
13441SOL    HW247439  11.923   6.598   8.379 -1.0439  0.2028 -0.6184
13442SOL     OW47440  12.606   8.954   3.183 -0.9819 -0.4233  0.0092
13442SOL    HW147441  12.582   9.045   3.171 -1.3788 -0.2706  1.6254
13442SOL    HW247442  12.526   8.905   3.163 -0.0176 -0.7607 -3.8094
13443SOL     OW47443   7.404   5.102   3.382  0.1819  0.4651  0.1018
13443SOL    HW147444   7.371   5.093   3.472  0.2013  0.7095  0.1348
13443SOL    HW247445   7.360   5.180   3.348 -0.1322  0.1366 -0.2414
13444SOL     OW47446  10.723  10.070   5.905  0.4854 -0.0284  0.9977
13444SOL    HW147447  10.643  10.117   5.881  0.1807 -0.4425  1.1691
13444SOL    HW247448  10.702   9.978   5.888  1.7070  0.0156 -1.1176
13445SOL     OW47449   2.482   3.749   5.294  0.5508  0.1949 -0.1842
13445SOL    HW147450   2.504   3.670   5.345 -0.8114 -0.3274 -0.3684
13445SOL    HW247451   2.493   3.821   5.356  0.7225 -0.2503  0.3114
13446SOL     OW47452   3.944   3.112   1.198  0.4754  0.3012 -0.6381
13446SOL    HW147453   3.877   3.159   1.148 -1.1681 -0.2533  0.9169
13446SOL    HW247454   3.904   3.027   1.217  1.1041  0.3964  1.3553
13447SOL     OW47455   1.309  12.128   9.661  0.5659  0.0579 -0.2270
13447SOL    HW147456   1.380  12.164   9.713 -1.0803  2.8697  0.3097
13447SOL    HW247457   1.307  12.182   9.582 -1.0208  0.1583 -0.1590
13448SOL     OW47458   5.743   9.803   5.026  0.2861 -0.0117  0.2359
13448SOL    HW147459   5.826   9.819   5.070  0.4999  0.3030 -0.2754
13448SOL    HW247460   5.697   9.887   5.027 -0.8551 -0.5954  2.1764
13449SOL     OW47461   8.173  11.276   9.028  0.0350  0.2594 -0.0338
13449SOL    HW147462   8.210  11.232   8.951 -1.3095 -1.4619  0.2289
13449SOL    HW247463   8.195  11.218   9.101 -1.2601  0.3187  0.4279
13450SOL     OW47464   2.361   0.283   3.469  0.4488 -0.0605 -0.6330
13450SOL    HW147465   2.376   0.350   3.535 -0.0182 -0.3291 -0.2417
13450SOL    HW247466   2.273   0.249   3.489  1.0597 -1.4687 -0.1963
13451SOL     OW47467   3.840  10.362   3.920 -0.0359 -0.0710  0.3550
13451SOL    HW147468   3.934  10.351   3.913 -0.2195 -2.0060  0.2549
13451SOL    HW247469   3.811  10.381   3.831  0.2872  1.0584  0.4743
13452SOL     OW47470   9.699  11.106   8.201 -0.1337 -0.7833  0.3150
13452SOL    HW147471   9.764  11.176   8.209  1.0885 -1.8116 -0.2332
13452SOL    HW247472   9.616  11.152   8.191  0.8345  0.6809 -1.8908
13453SOL     OW47473   6.788  11.843  11.532 -0.3443  0.0121  0.3851
13453SOL    HW147474   6.810  11.915  11.473  1.0050 -0.4396  0.3123
13453SOL    HW247475   6.774  11.768  11.475 -1.7225  0.1837  0.4646
13454SOL     OW47476   1.545   5.353   2.774  0.4206 -0.3645  0.4111
13454SOL    HW147477   1.453   5.356   2.748  0.5670 -1.2641 -0.2726
13454SOL    HW247478   1.555   5.425   2.835 -0.8683 -0.6026  0.9307
13455SOL     OW47479   4.402   6.222   8.315  0.5838  0.1952  0.1476
13455SOL    HW147480   4.335   6.248   8.377 -0.7842 -1.2904 -0.6226
13455SOL    HW247481   4.353   6.186   8.240  2.2180 -1.4765 -0.2019
13456SOL     OW47482   9.647  11.397   1.025  0.0314 -0.1974  0.4420
13456SOL    HW147483   9.590  11.325   1.050  0.1255 -0.4156  0.0390
13456SOL    HW247484   9.708  11.406   1.099 -0.7877  0.3258  1.0713
13457SOL     OW47485   4.010   8.677   6.242  0.2137  0.4536  0.2957
13457SOL    HW147486   3.944   8.745   6.255  0.0488  0.0214  1.9549
13457SOL    HW247487   4.092   8.724   6.228 -0.3859  0.9933 -1.6303
13458SOL     OW47488   8.161   3.052   7.672  0.1737  0.1759 -0.1628
13458SOL    HW147489   8.128   2.992   7.605 -0.8899  0.8974 -0.2990
13458SOL    HW247490   8.110   3.132   7.661 -0.1063  0.2774  1.5878
13459SOL     OW47491   1.143   4.562   8.995 -0.0751  0.4238  0.3798
13459SOL    HW147492   1.121   4.519   9.078 -0.0212  0.1952  0.2763
13459SOL    HW247493   1.172   4.650   9.021  2.5450 -0.4903  0.8700
13460SOL     OW47494  12.574   4.617  11.307  0.3613  0.2366 -0.0269
13460SOL    HW147495  12.486   4.580  11.297  1.4119 -2.2824 -0.6585
13460SOL    HW247496  12.588   4.666  11.225  0.3347 -1.2038 -0.9309
13461SOL     OW47497  12.826   2.158   9.052 -0.0761  0.1341  0.1976
13461SOL    HW147498  12.855   2.110   8.975 -2.7690  0.4889 -1.1809
13461SOL    HW247499  12.809   2.090   9.117  0.9649 -0.2999  0.0215
13462SOL     OW47500   0.721   1.382   9.294 -0.1152 -0.3680  1.2042
13462SOL    HW147501   0.769   1.460   9.266 -2.2819  0.1802 -1.4353
13462SOL    HW247502   0.777   1.309   9.270  0.4389  0.2886  0.4519
13463SOL     OW47503  12.337   9.908  12.065 -0.7415  0.0898  0.0289
13463SOL    HW147504  12.272   9.881  12.000  0.5833 -0.7423 -1.0202
13463SOL    HW247505  12.368   9.826  12.103 -1.8088  0.5832  2.1029
13464SOL     OW47506   6.210   4.431   9.578 -0.7108  0.0695  0.1490
13464SOL    HW147507   6.240   4.492   9.646 -0.6160  0.3084 -0.1025
13464SOL    HW247508   6.257   4.350   9.596  1.5127  0.9500 -1.2996
13465SOL     OW47509   6.584   6.081   0.241  0.2960 -0.2654  0.4740
13465SOL    HW147510   6.508   6.037   0.278 -0.0931 -0.5796 -0.6380
13465SOL    HW247511   6.653   6.072   0.307 -0.7290  0.3517  1.6617
13466SOL     OW47512   2.691   6.731   9.482  0.6134 -0.1056 -0.0125
13466SOL    HW147513   2.685   6.743   9.576  1.1346 -1.1526  0.1620
13466SOL    HW247514   2.645   6.649   9.465 -1.1493  1.0162 -0.9264
13467SOL     OW47515   0.457   0.721   0.701  0.5192 -1.0865 -0.1344
13467SOL    HW147516   0.373   0.699   0.741  0.5816 -0.2374  0.4894
13467SOL    HW247517   0.434   0.755   0.615  0.0133  1.1940  0.8367
13468SOL     OW47518   9.739  12.034  10.401 -0.7734  0.7048 -0.9334
13468SOL    HW147519   9.715  12.110  10.349  1.1441  2.0917  0.1005
13468SOL    HW247520   9.825  12.008  10.368 -1.0355 -0.5321 -0.7222
13469SOL     OW47521  12.154   7.022   1.850 -0.3075 -0.4867 -0.0586
13469SOL    HW147522  12.204   6.968   1.788  0.1535  1.0253 -1.0802
13469SOL    HW247523  12.221   7.077   1.891 -0.8176 -0.3866  0.6409
13470SOL     OW47524   7.846   0.728   4.599  0.0549 -0.9214  0.6178
13470SOL    HW147525   7.796   0.765   4.672  0.1341 -1.5645  1.0040
13470SOL    HW247526   7.790   0.659   4.565 -0.4441  0.0442 -0.6114
13471SOL     OW47527  12.048   3.141   6.270  0.3692 -0.2766  0.3205
13471SOL    HW147528  12.047   3.160   6.364 -4.2258  0.9474  0.2765
13471SOL    HW247529  11.993   3.208   6.231  0.0740 -2.1732 -2.9283
13472SOL     OW47530  12.512   3.158   1.940 -1.1608  0.2399 -0.9974
13472SOL    HW147531  12.421   3.183   1.959 -1.0992 -0.9944  1.2513
13472SOL    HW247532  12.546   3.127   2.024  0.8255 -0.9185 -2.1642
13473SOL     OW47533  11.441   3.176   0.714  0.9149 -0.2643 -0.0800
13473SOL    HW147534  11.350   3.201   0.695  1.1426 -0.3818 -1.4166
13473SOL    HW247535  11.493   3.252   0.690  1.1309  0.1102  1.4657
13474SOL     OW47536   8.214   5.369   2.737  0.1237  0.2772 -0.1143
13474SOL    HW147537   8.147   5.312   2.776 -0.0282  0.9723  0.6850
13474SOL    HW247538   8.293   5.315   2.735 -0.2018 -0.2069 -0.0727
13475SOL     OW47539   2.245   9.569  10.704  0.5180 -0.1547  0.0628
13475SOL    HW147540   2.233   9.592  10.612 -1.0730  0.3163  0.3587
13475SOL    HW247541   2.288   9.645  10.743 -0.7571  0.5505  0.1325
13476SOL     OW47542   9.100   9.869   8.086  0.5586  0.1008 -0.6326
13476SOL    HW147543   9.055   9.952   8.097 -0.5867 -0.7081  1.3279
13476SOL    HW247544   9.120   9.864   7.993 -1.6741  1.3816 -1.2359
13477SOL     OW47545   9.353  10.533   6.867 -0.4558  0.1758  0.2897
13477SOL    HW147546   9.284  10.474   6.896  0.3146 -1.1644 -0.5063
13477SOL    HW247547   9.380  10.579   6.947 -0.5465 -1.1164  1.0911
13478SOL     OW47548   1.893   7.214  10.827 -0.5179  0.0098  0.6647
13478SOL    HW147549   1.901   7.160  10.905 -0.2370  1.1057  1.4118
13478SOL    HW247550   1.822   7.274  10.846  0.3563  1.0962  0.5926
13479SOL     OW47551   2.473  11.349   6.211 -0.0087  0.0343  0.1023
13479SOL    HW147552   2.379  11.336   6.193 -0.2593 -0.1745  1.4751
13479SOL    HW247553   2.474  11.403   6.291  1.0330 -1.2838  1.0060
13480SOL     OW47554   6.068   5.127  10.371 -0.2942  0.4816 -0.0687
13480SOL    HW147555   6.016   5.052  10.401  1.8015 -0.0784  2.4436
13480SOL    HW247556   6.011   5.202  10.385 -1.8825 -0.4205 -1.2566
13481SOL     OW47557   5.941  11.887   1.986 -0.7554 -0.5180  0.2285
13481SOL    HW147558   6.002  11.818   1.957  0.4164  1.4450 -2.3376
13481SOL    HW247559   5.974  11.912   2.072  0.2259 -1.5476  0.1888
13482SOL     OW47560   2.705   8.774   9.409 -0.1251 -0.7821 -0.0893
13482SOL    HW147561   2.616   8.791   9.379  0.4983  0.6827 -1.1988
13482SOL    HW247562   2.726   8.849   9.465  0.0506 -1.6507  1.0462
13483SOL     OW47563   3.215  11.029   8.372  0.4965 -0.1337 -1.0797
13483SOL    HW147564   3.136  10.975   8.364  0.7545 -0.7514  0.2979
13483SOL    HW247565   3.272  10.999   8.301 -0.3620  0.0962 -1.8926
13484SOL     OW47566   5.319  10.431   9.014  0.2003  0.1069 -0.4756
13484SOL    HW147567   5.379  10.475   9.074 -1.9876  1.2163  1.0051
13484SOL    HW247568   5.308  10.493   8.942 -0.5364  0.6978  0.1339
13485SOL     OW47569   6.162   3.881   2.952 -0.2902  0.1639 -0.5820
13485SOL    HW147570   6.230   3.910   3.012 -2.5855  1.7765  1.4313
13485SOL    HW247571   6.144   3.958   2.897  0.2204 -0.5998 -1.8664
13486SOL     OW47572  11.484  12.020   3.658 -0.0098 -0.3689 -0.2686
13486SOL    HW147573  11.562  12.004   3.606  0.8188  2.1519  0.0814
13486SOL    HW247574  11.416  12.039   3.593  0.0050 -1.1584 -0.5258
13487SOL     OW47575   0.029   5.369  12.525  0.0025  0.0393 -0.6931
13487SOL    HW147576   0.092   5.359  12.597 -1.4996 -1.4498  0.4817
13487SOL    HW247577  -0.034   5.299  12.538 -1.7079  1.2428 -2.0502
13488SOL     OW47578   8.815   1.195   0.362 -0.0559 -0.2640 -0.2317
13488SOL    HW147579   8.876   1.158   0.427 -0.0729  0.6919  0.3451
13488SOL    HW247580   8.857   1.178   0.278 -0.1871 -1.8126 -0.0179
13489SOL     OW47581   9.771   9.350   1.444  0.1128  0.2527  0.1457
13489SOL    HW147582   9.709   9.291   1.403  0.9303 -0.1862 -0.4820
13489SOL    HW247583   9.831   9.375   1.374 -0.7383  2.5922  0.1372
13490SOL     OW47584   8.407   3.325   1.131 -1.0050 -0.5259 -0.3505
13490SOL    HW147585   8.420   3.233   1.155 -0.9059 -0.9010 -1.7593
13490SOL    HW247586   8.474   3.341   1.064  0.0734  1.0588  1.0182
13491SOL     OW47587   8.817   3.208   0.343 -0.5300 -0.2311  0.0225
13491SOL    HW147588   8.779   3.122   0.327 -0.1253 -0.2302 -1.0469
13491SOL    HW247589   8.745   3.260   0.379 -0.7096 -1.0728  0.9096
13492SOL     OW47590   7.670   4.822  11.532 -0.5316 -0.4622  0.3140
13492SOL    HW147591   7.634   4.910  11.518 -0.5465 -0.7768 -1.8200
13492SOL    HW247592   7.765   4.833  11.525 -0.6183 -1.0533 -3.2150
13493SOL     OW47593   8.320  11.108   5.013 -0.1461 -0.3225 -0.1504
13493SOL    HW147594   8.328  11.118   5.108 -0.2483 -0.2638 -0.1474
13493SOL    HW247595   8.407  11.125   4.978  0.4647 -2.5395  0.1287
13494SOL     OW47596  10.931   2.550   3.585 -0.1988 -0.4139  0.1602
13494SOL    HW147597  10.988   2.481   3.553  1.8151  0.9717  0.5990
13494SOL    HW247598  10.987   2.627   3.591 -2.1862  1.1113  0.3524
13495SOL     OW47599   3.775   3.385  11.305 -0.0029  0.2753 -0.0946
13495SOL    HW147600   3.763   3.297  11.270 -1.2988  0.6601 -0.6753
13495SOL    HW247601   3.686   3.416  11.324  0.3782  1.7101 -0.5343
13496SOL     OW47602  10.326  12.798   9.806 -0.3491 -0.2009  0.3934
13496SOL    HW147603  10.407  12.777   9.853 -2.1184 -2.2906  2.7856
13496SOL    HW247604  10.354  12.854   9.734  3.1071 -0.2274  1.5357
13497SOL     OW47605   5.128   0.130   6.769 -0.1674  0.0485 -0.0558
13497SOL    HW147606   5.201   0.148   6.710 -0.8659  0.1522 -0.8941
13497SOL    HW247607   5.116   0.035   6.765 -0.5859  0.1157 -0.5415
13498SOL     OW47608   9.685   7.258   8.666 -0.2289 -0.5615  0.0428
13498SOL    HW147609   9.730   7.342   8.678  0.6496 -0.8137 -1.2829
13498SOL    HW247610   9.608   7.264   8.722  1.4190 -0.1066  2.4170
13499SOL     OW47611   5.968   9.404   6.616  0.6205 -0.0287 -0.1946
13499SOL    HW147612   6.015   9.350   6.679 -1.9187 -3.1495 -0.7047
13499SOL    HW247613   5.961   9.350   6.537 -0.4201  1.8323 -1.4752
13500SOL     OW47614   4.267   3.523   2.677  0.6607  0.6692 -0.0270
13500SOL    HW147615   4.283   3.573   2.757 -0.6667 -1.2757  1.5491
13500SOL    HW247616   4.185   3.560   2.643  0.3272  0.4121  0.4715
13501SOL     OW47617   7.022   9.475   8.185 -0.3525  0.0982  0.0259
13501SOL    HW147618   7.107   9.518   8.175 -0.3973  0.5325  1.2928
13501SOL    HW247619   7.008   9.471   8.280 -1.0891 -1.2814 -0.1122
13502SOL     OW47620   0.913   1.050   9.999 -0.1197 -0.1856 -0.3474
13502SOL    HW147621   0.889   0.958  10.002 -1.0939  0.0804  1.6406
13502SOL    HW247622   1.009   1.050   9.992 -0.0865 -1.3465 -0.0847
13503SOL     OW47623   2.542   0.276   4.503 -0.3231 -0.5765  0.1956
13503SOL    HW147624   2.522   0.239   4.416 -0.1922 -0.9415  0.3195
13503SOL    HW247625   2.638   0.283   4.504 -0.2859 -1.0588  0.5034
13504SOL     OW47626  12.067   7.817   9.078  0.4639 -0.0665 -0.6101
13504SOL    HW147627  12.092   7.750   9.014 -1.1200 -0.1309 -1.2129
13504SOL    HW247628  12.031   7.767   9.151 -0.8093  0.0975 -1.1022
13505SOL     OW47629   5.898  10.714   1.765  0.5979 -0.2713 -0.2961
13505SOL    HW147630   5.921  10.773   1.837  1.3456  0.7266 -1.3217
13505SOL    HW247631   5.863  10.771   1.697  1.4651 -0.9835 -1.3669
13506SOL     OW47632   2.983   5.825  12.654 -0.0102  0.3258 -0.3834
13506SOL    HW147633   3.001   5.906  12.701  0.0663 -0.2141  0.5249
13506SOL    HW247634   2.976   5.758  12.722 -3.2050  0.0770 -0.7902
13507SOL     OW47635   2.754   1.879   2.672  0.0419  0.2395  0.6792
13507SOL    HW147636   2.828   1.910   2.724  0.1399 -0.2173  0.8118
13507SOL    HW247637   2.686   1.858   2.736 -0.5222  1.4734  0.5147
13508SOL     OW47638   0.449   0.593   1.043 -0.0478 -0.5765  0.3238
13508SOL    HW147639   0.430   0.546   1.125  1.0535  1.9344  2.1434
13508SOL    HW247640   0.545   0.596   1.040 -0.0207 -1.7130 -1.8133
13509SOL     OW47641  11.767  12.351   7.852 -0.1251 -0.4316 -0.6484
13509SOL    HW147642  11.841  12.290   7.866  0.3434  0.4240  0.8935
13509SOL    HW247643  11.806  12.426   7.808  0.9372  1.6917  3.3578
13510SOL     OW47644   8.067   8.003   6.462  0.0181  0.1246 -0.4459
13510SOL    HW147645   8.005   8.008   6.535  0.4634 -1.0607  0.0434
13510SOL    HW247646   8.131   7.938   6.490  1.1852  0.9392 -1.1690
13511SOL     OW47647   7.191   1.338   9.885  0.6267  0.4544  0.2520
13511SOL    HW147648   7.117   1.362   9.941 -1.0630 -0.8971 -1.2802
13511SOL    HW247649   7.250   1.413   9.890 -1.4266  2.1587  0.5980
13512SOL     OW47650   6.666   6.122   0.770 -0.1807  0.2198  0.0570
13512SOL    HW147651   6.574   6.103   0.790 -0.9243  2.3261 -1.0667
13512SOL    HW247652   6.699   6.042   0.731 -2.3865  0.2350 -2.1131
13513SOL     OW47653  12.629   2.692  11.322  0.4653 -0.3436  0.1442
13513SOL    HW147654  12.624   2.642  11.403  0.7523 -0.1184  0.3034
13513SOL    HW247655  12.541   2.727  11.310  0.4432 -0.3096  0.4005
13514SOL     OW47656   8.540   7.870   9.893  0.2182  0.0061 -0.1645
13514SOL    HW147657   8.538   7.829   9.979  0.9062  0.7304  0.2082
13514SOL    HW247658   8.550   7.796   9.832  0.6257 -0.4454  0.4321
13515SOL     OW47659   3.159   4.978  10.403 -0.3322  0.1519  0.1880
13515SOL    HW147660   3.166   5.067  10.370 -1.1353 -0.2915 -1.3084
13515SOL    HW247661   3.195   4.924  10.333  0.4412 -0.6982  1.2029
13516SOL     OW47662   6.156  12.079   1.182 -0.0661 -0.5237 -0.8299
13516SOL    HW147663   6.158  11.996   1.134 -1.8579 -0.7447 -0.6084
13516SOL    HW247664   6.221  12.068   1.252 -1.4217 -2.4669  0.2555
13517SOL     OW47665   7.607  11.445  12.429  0.0454  0.2432 -0.6155
13517SOL    HW147666   7.679  11.382  12.426 -0.9943 -1.1448  1.4490
13517SOL    HW247667   7.566  11.438  12.343  1.9378  0.5880 -1.5978
13518SOL     OW47668   9.113   0.782   1.101 -0.0385  0.2793 -0.6874
13518SOL    HW147669   9.027   0.813   1.074 -1.9888 -2.3819  1.7763
13518SOL    HW247670   9.118   0.802   1.194  1.6278 -0.4079 -0.5884
13519SOL     OW47671   1.259   1.545  12.110 -0.3820 -0.3709  0.5292
13519SOL    HW147672   1.182   1.495  12.137 -0.4267  0.1502  1.3772
13519SOL    HW247673   1.324   1.527  12.178  0.7751 -1.9933 -0.9262
13520SOL     OW47674   9.556   9.829   2.721 -0.5141 -0.4063  0.0761
13520SOL    HW147675   9.475   9.878   2.709 -0.4516  0.0430  1.3808
13520SOL    HW247676   9.624   9.883   2.679 -0.8990 -0.9052 -1.2425
13521SOL     OW47677   6.210   6.817   4.817 -0.1883  0.0074  0.1261
13521SOL    HW147678   6.288   6.766   4.793 -0.3914  0.0696 -0.6696
13521SOL    HW247679   6.146   6.798   4.749 -0.9369 -0.1612  0.8535
13522SOL     OW47680   0.543   8.704  10.271  0.5082 -0.0854  0.3565
13522SOL    HW147681   0.559   8.784  10.223 -0.3907  1.0301  1.8187
13522SOL    HW247682   0.538   8.732  10.363 -1.1984 -1.5835  0.7750
13523SOL     OW47683   0.205   0.711  10.986 -0.8023  0.1520  0.2334
13523SOL    HW147684   0.122   0.758  10.995 -0.4234  0.9881 -0.3708
13523SOL    HW247685   0.251   0.727  11.068 -0.5733  1.0917 -0.0596
13524SOL     OW47686   9.283  12.490  12.143 -0.1675 -0.3534 -0.1862
13524SOL    HW147687   9.254  12.439  12.218  0.0970  1.5420  1.3011
13524SOL    HW247688   9.358  12.443  12.108  0.8173 -0.3792  1.8660
13525SOL     OW47689   1.109   6.060   6.864  0.0091  0.2933 -0.0301
13525SOL    HW147690   1.066   5.977   6.844 -1.4833  1.1962 -0.8573
13525SOL    HW247691   1.105   6.109   6.781 -0.9009  1.8935  0.9089
13526SOL     OW47692   7.752   0.982   2.572 -0.1895  0.2742 -0.1871
13526SOL    HW147693   7.755   0.997   2.477 -1.5539 -1.0721 -0.4694
13526SOL    HW247694   7.792   1.061   2.609  1.5248  0.2950 -1.8955
13527SOL     OW47695  10.618   4.186   9.600 -0.0074 -0.7457  0.3201
13527SOL    HW147696  10.587   4.099   9.625  1.0600 -1.0869  0.5015
13527SOL    HW247697  10.642   4.227   9.683  2.5578 -1.4944  0.0060
13528SOL     OW47698   0.713  11.075   7.062 -0.3326 -0.1240 -0.2249
13528SOL    HW147699   0.760  11.065   7.145  0.4535  0.4286 -0.5839
13528SOL    HW247700   0.695  10.986   7.034 -0.4615 -0.3202  0.4604
13529SOL     OW47701   6.791   4.713   9.602 -0.9635 -0.6259  0.2109
13529SOL    HW147702   6.767   4.640   9.545 -0.3440 -0.9778  0.3965
13529SOL    HW247703   6.743   4.697   9.684  0.2718 -1.6142  0.7727
13530SOL     OW47704   4.559  12.888   4.684 -0.2429 -0.4987  0.3138
13530SOL    HW147705   4.644  12.845   4.678  0.2580  0.4758  0.2668
13530SOL    HW247706   4.573  12.976   4.648 -1.3995 -0.5046 -0.2040
13531SOL     OW47707   7.142  11.946  10.547  0.6768 -0.1770 -0.3373
13531SOL    HW147708   7.081  11.880  10.512 -0.0801  0.2918  0.0651
13531SOL    HW247709   7.098  11.979  10.626  1.4660  0.1670 -0.0365
13532SOL     OW47710   8.033   3.520   2.854 -0.1261 -0.1013  0.2673
13532SOL    HW147711   8.068   3.450   2.799  0.2209  0.4585 -0.2466
13532SOL    HW247712   7.961   3.557   2.803  0.4568  0.6861 -0.0208
13533SOL     OW47713   1.205   9.944   0.435 -0.3796  0.1052  1.2292
13533SOL    HW147714   1.206   9.880   0.507  1.3645 -0.6241  0.6186
13533SOL    HW247715   1.194   9.891   0.356  1.9900  0.3832  0.6278
13534SOL     OW47716  12.474   2.786   6.962  0.5643  0.2727  0.7921
13534SOL    HW147717  12.554   2.769   7.013  0.7490  1.1293  0.8108
13534SOL    HW247718  12.452   2.877   6.982 -0.9278 -0.2165  1.4615
13535SOL     OW47719  12.079   6.386   1.180  0.9702 -0.0021  0.5085
13535SOL    HW147720  12.077   6.318   1.247  0.4400 -0.0678  0.4354
13535SOL    HW247721  12.146   6.357   1.118  0.3780 -0.7398  0.1968
13536SOL     OW47722   0.101   4.123   0.799 -0.2778 -0.3191 -0.0194
13536SOL    HW147723   0.118   4.081   0.715  1.2880  1.2021 -0.5266
13536SOL    HW247724   0.006   4.127   0.806 -0.4395 -1.7289 -1.0471
13537SOL     OW47725   1.981   3.893  10.021 -0.1501 -0.5026  0.1747
13537SOL    HW147726   2.065   3.854  10.047  0.6362  1.2404  0.4497
13537SOL    HW247727   1.974   3.876   9.927  1.0961  0.2760 -0.0882
13538SOL     OW47728   5.494  10.177   4.169  0.2238  0.2123  0.4587
13538SOL    HW147729   5.570  10.191   4.112  1.2168  0.8067  1.8751
13538SOL    HW247730   5.531  10.148   4.252 -1.3474 -3.9236 -0.0481
13539SOL     OW47731   1.401   4.180   0.546 -0.4560  0.4668  0.0955
13539SOL    HW147732   1.317   4.208   0.581  0.4752  0.6699  2.3404
13539SOL    HW247733   1.393   4.085   0.538 -0.5750  0.3406  1.3897
13540SOL     OW47734   6.022   4.865   4.160  0.0506  0.2000 -0.4641
13540SOL    HW147735   6.037   4.777   4.196 -1.4117  0.2593  0.3759
13540SOL    HW247736   5.949   4.900   4.211  0.2312  1.6940 -1.1688
13541SOL     OW47737   7.848   6.723   9.217  0.2334  0.1588 -0.4761
13541SOL    HW147738   7.865   6.630   9.232  1.6899  0.6993  1.7294
13541SOL    HW247739   7.935   6.764   9.221 -0.6538  2.0038  2.0116
13542SOL     OW47740  11.397  12.232   6.503  0.7811 -0.6968  0.4973
13542SOL    HW147741  11.356  12.166   6.448  0.3777 -0.0569  0.0167
13542SOL    HW247742  11.363  12.316   6.471  1.5006 -0.2297  0.8998
13543SOL     OW47743   3.979   7.663  12.589  0.5267  0.1530 -0.4254
13543SOL    HW147744   3.976   7.698  12.501  0.6692 -0.2951 -0.6132
13543SOL    HW247745   3.920   7.718  12.640  0.5571  0.5015 -0.7687
13544SOL     OW47746   2.942   1.281   1.687  0.1398  0.2265  0.0602
13544SOL    HW147747   2.881   1.341   1.644 -1.2416 -0.0035  1.6022
13544SOL    HW247748   3.027   1.303   1.649 -0.9065  0.2184 -2.5539
13545SOL     OW47749  10.038   2.341  11.584 -0.4756 -0.2794 -0.2019
13545SOL    HW147750   9.977   2.274  11.616 -0.2428 -0.7302 -0.6970
13545SOL    HW247751  10.025   2.341  11.489 -0.3827  0.2931 -0.2166
13546SOL     OW47752   1.151   5.813   5.595 -0.4486 -0.2148  0.0212
13546SOL    HW147753   1.241   5.843   5.591 -0.4970 -0.1474 -0.5718
13546SOL    HW247754   1.124   5.829   5.686  1.1451 -3.1454  1.1432
13547SOL     OW47755   5.819   1.795   1.775  0.2136 -0.0398 -0.2083
13547SOL    HW147756   5.896   1.794   1.719  0.6355 -1.0700  0.3554
13547SOL    HW247757   5.804   1.702   1.797 -0.7905  0.2045  0.2237
13548SOL     OW47758   3.816   1.307   5.533 -0.2810  0.4293  0.1184
13548SOL    HW147759   3.821   1.341   5.444 -0.3276 -2.1813 -0.9747
13548SOL    HW247760   3.903   1.273   5.551 -0.7060 -0.5598  0.3930
13549SOL     OW47761   9.524   5.813  12.294 -0.3489  0.2311 -0.0982
13549SOL    HW147762   9.523   5.866  12.373  1.2069 -0.7598  0.6511
13549SOL    HW247763   9.603   5.759  12.303 -0.9972 -1.0352 -1.5745
13550SOL     OW47764   4.991   5.736   1.637  0.2639  0.4990 -0.1319
13550SOL    HW147765   5.020   5.802   1.574 -1.5196  1.2217 -0.2589
13550SOL    HW247766   5.044   5.659   1.617  0.5990  1.0943 -1.7032
13551SOL     OW47767  10.952   5.965  12.404 -0.4211 -0.0400 -0.0174
13551SOL    HW147768  10.963   5.871  12.386  1.7911  0.3390 -0.9197
13551SOL    HW247769  10.953   5.971  12.499  2.0346 -0.7304  0.0654
13552SOL     OW47770  10.798  11.681   2.427 -0.1240 -0.0112 -0.7739
13552SOL    HW147771  10.888  11.666   2.399 -0.5677 -1.6903 -1.4242
13552SOL    HW247772  10.805  11.747   2.496  2.0111 -2.4495  1.5676
13553SOL     OW47773   2.362   3.419   6.041  0.3092 -0.0031 -0.5037
13553SOL    HW147774   2.342   3.506   6.073  1.7142 -0.1610  0.9718
13553SOL    HW247775   2.338   3.361   6.113 -1.0855 -0.9182 -1.6555
13554SOL     OW47776   7.168   3.703   6.946  0.1143  0.2446  0.2503
13554SOL    HW147777   7.105   3.631   6.949  0.2852  0.1299  1.2263
13554SOL    HW247778   7.120   3.776   6.908 -0.3812 -0.0658  0.2753
13555SOL     OW47779   3.278  10.470  12.210 -0.1743 -0.0312  0.3630
13555SOL    HW147780   3.319  10.533  12.269  0.8827 -0.4443  0.0871
13555SOL    HW247781   3.332  10.392  12.215  0.6006  0.2716 -1.9331
13556SOL     OW47782  10.880  10.937   1.914 -0.4224 -0.2823  0.4934
13556SOL    HW147783  10.810  10.995   1.883  0.2269  0.1439 -0.1969
13556SOL    HW247784  10.893  10.962   2.005 -1.3314 -0.5358  0.7088
13557SOL     OW47785   5.125  10.862   1.606 -0.6272  0.1815 -0.4812
13557SOL    HW147786   5.104  10.954   1.593  0.8444  0.7298  0.7876
13557SOL    HW247787   5.120  10.823   1.519 -0.1709  1.6917 -1.2032
13558SOL     OW47788  11.112   6.694  12.332  0.0530 -0.4163 -0.0433
13558SOL    HW147789  11.200   6.670  12.303  0.5130  1.4202 -0.3118
13558SOL    HW247790  11.055   6.667  12.261  0.3909 -1.6181  0.1261
13559SOL     OW47791  11.174  10.039  12.250 -0.2046  0.0169 -0.7674
13559SOL    HW147792  11.264  10.009  12.259 -0.3881 -0.7176 -1.2919
13559SOL    HW247793  11.159  10.093  12.328  0.1846 -1.1465  0.1405
13560SOL     OW47794   6.259  11.693   7.237  0.3806  0.2642 -0.1923
13560SOL    HW147795   6.305  11.613   7.212  0.8195  0.1311  1.0074
13560SOL    HW247796   6.171  11.682   7.200  0.7776 -0.2426 -1.0220
13561SOL     OW47797   0.206   7.870   3.918  0.2244 -0.3760  0.7061
13561SOL    HW147798   0.166   7.914   3.843  0.0126 -1.4568  0.1650
13561SOL    HW247799   0.294   7.907   3.923  0.2935 -0.4077 -0.1686
13562SOL     OW47800   5.222  11.565  11.739  0.7304 -0.4016 -0.5632
13562SOL    HW147801   5.293  11.521  11.786  0.5869 -0.5073 -0.4425
13562SOL    HW247802   5.157  11.584  11.806  1.6105  1.7336 -0.2558
13563SOL     OW47803   4.714   4.993  11.620  0.3158  0.0869  0.9631
13563SOL    HW147804   4.683   4.978  11.531 -0.5751  0.9806  1.1080
13563SOL    HW247805   4.635   4.993  11.674  0.9823 -2.5535  2.1111
13564SOL     OW47806  10.988   7.317  10.209  0.7606 -0.2107  0.4769
13564SOL    HW147807  10.937   7.264  10.148  0.7026  0.6548 -0.2437
13564SOL    HW247808  10.967   7.407  10.186  1.4554  0.1386  1.1701
13565SOL     OW47809   4.278  12.024   4.869  0.0701 -0.5405  0.4534
13565SOL    HW147810   4.332  12.029   4.790  0.8762 -1.1169  0.9499
13565SOL    HW247811   4.341  12.018   4.941 -0.6536 -0.5088  1.1018
13566SOL     OW47812   6.247   1.617   1.810 -0.0966  0.3143 -0.2761
13566SOL    HW147813   6.179   1.570   1.760  0.6998 -1.5217  0.2960
13566SOL    HW247814   6.197   1.673   1.870 -1.0719  1.2291 -1.8596
13567SOL     OW47815   0.996  11.321   7.392  0.5847  0.0617 -0.0957
13567SOL    HW147816   0.946  11.239   7.393 -1.8744  1.4342 -0.7679
13567SOL    HW247817   0.994  11.351   7.482  3.0269 -1.3692  0.5344
13568SOL     OW47818  10.695   7.084   4.714  0.0806  0.0611  0.1205
13568SOL    HW147819  10.762   7.135   4.667  0.1631 -0.3012 -0.1605
13568SOL    HW247820  10.741   7.004   4.740  0.1739  0.4580  1.2463
13569SOL     OW47821   3.666   7.194   3.304 -0.5814  0.2819 -0.4103
13569SOL    HW147822   3.677   7.180   3.210  1.3346  0.0304 -0.1878
13569SOL    HW247823   3.657   7.106   3.340 -1.6866  0.3946 -0.3708
13570SOL     OW47824  11.864   7.464   5.069  0.0549 -0.2919  0.1701
13570SOL    HW147825  11.862   7.405   4.993  2.8015 -0.1897 -0.0757
13570SOL    HW247826  11.953   7.457   5.103 -0.3289  1.6979  1.7885
13571SOL     OW47827   4.273   6.424   2.863  0.0853 -0.1105  0.2446
13571SOL    HW147828   4.211   6.452   2.795  1.7115  1.6528 -0.5764
13571SOL    HW247829   4.267   6.328   2.862 -0.8425 -0.0745 -1.4966
13572SOL     OW47830  12.910   3.407  12.733  0.1258  0.3403 -0.6920
13572SOL    HW147831  12.950   3.493  12.717 -0.5001  0.9956  1.0743
13572SOL    HW247832  12.823   3.426  12.766 -0.1926 -1.0038 -0.6779
13573SOL     OW47833  11.214   6.007   3.096 -0.0631 -0.0138  0.3453
13573SOL    HW147834  11.217   6.094   3.135  0.5809 -0.0767  0.4458
13573SOL    HW247835  11.301   5.970   3.112  0.2738  0.0004 -1.2422
13574SOL     OW47836   6.171   7.384  11.951 -0.1020  0.2310 -0.4143
13574SOL    HW147837   6.088   7.396  11.905 -0.3789 -0.4602 -0.1178
13574SOL    HW247838   6.237   7.386  11.883 -0.3210  1.1998 -0.6094
13575SOL     OW47839   4.610   3.334   8.177 -0.1688 -0.2778  0.0965
13575SOL    HW147840   4.553   3.407   8.154  0.2129 -0.5044 -1.7023
13575SOL    HW247841   4.697   3.374   8.184 -0.0739 -0.4420 -0.1574
13576SOL     OW47842   7.225  11.294   2.545 -0.1488  1.4142 -0.5965
13576SOL    HW147843   7.148  11.264   2.496  1.1418 -1.4743 -1.0460
13576SOL    HW247844   7.193  11.305   2.634 -1.0790  0.0471 -0.7236
13577SOL     OW47845   2.521   2.322   0.034  0.2152  0.2147  0.3736
13577SOL    HW147846   2.578   2.328   0.111 -1.6432 -2.9735  2.1836
13577SOL    HW247847   2.440   2.365   0.062  0.0334  0.3622 -0.3808
13578SOL     OW47848   9.654  11.129   3.845 -0.0593  0.0660  0.1914
13578SOL    HW147849   9.741  11.101   3.818  0.0812  2.4568 -2.1980
13578SOL    HW247850   9.603  11.048   3.851  2.1650 -1.3619  1.3849
13579SOL     OW47851   0.336  12.437   0.239  0.3633  0.0266 -0.1617
13579SOL    HW147852   0.368  12.426   0.149  0.7168 -0.1890 -0.0136
13579SOL    HW247853   0.397  12.386   0.292 -1.1664 -1.7586 -0.0225
13580SOL     OW47854  10.788   4.002   1.878 -0.1471 -0.1786  0.3399
13580SOL    HW147855  10.790   3.943   1.953  2.3183 -0.0516  0.4577
13580SOL    HW247856  10.878   4.003   1.846 -0.5571  1.9172 -0.9270
13581SOL     OW47857  11.222   3.813   3.505  0.1760 -0.7801  0.0376
13581SOL    HW147858  11.131   3.803   3.476  0.3422  1.3710 -1.5067
13581SOL    HW247859  11.257   3.725   3.504 -1.6138 -1.5392 -0.3492
13582SOL     OW47860   1.380   3.277   1.613  0.1876 -0.5340  0.6001
13582SOL    HW147861   1.427   3.226   1.679  0.5636 -2.8633 -1.3027
13582SOL    HW247862   1.300   3.228   1.598 -0.0873  0.1791 -0.3502
13583SOL     OW47863  12.075   0.022   0.629 -0.1705 -0.6268  0.1549
13583SOL    HW147864  12.011  -0.047   0.614 -2.3596  0.8293  1.9503
13583SOL    HW247865  12.154  -0.024   0.658 -2.0391 -2.4191  2.9104
13584SOL     OW47866   8.677   1.561   4.529 -0.3184 -0.1618  0.5326
13584SOL    HW147867   8.619   1.616   4.581  0.4060  0.2914  0.8677
13584SOL    HW247868   8.739   1.525   4.593  1.1114  1.0785 -0.1212
13585SOL     OW47869   7.473   3.453   9.323  0.4150 -0.2452  0.4067
13585SOL    HW147870   7.469   3.422   9.413 -2.8440  0.4761  0.6344
13585SOL    HW247871   7.426   3.386   9.273  1.7630 -0.3920 -0.7201
13586SOL     OW47872   8.264   2.063   0.853  0.7675 -0.5132 -0.2946
13586SOL    HW147873   8.214   2.018   0.921  0.3314  0.1637 -0.1595
13586SOL    HW247874   8.213   2.141   0.833  0.9700 -0.6131 -1.2839
13587SOL     OW47875   0.893   2.181   2.456  0.4417 -0.0505 -0.2816
13587SOL    HW147876   0.803   2.157   2.436 -0.7539  1.0704  3.1565
13587SOL    HW247877   0.902   2.271   2.426 -0.5721  0.8128  1.8548
13588SOL     OW47878   2.999   9.329   2.804 -0.5919  0.1642 -0.6660
13588SOL    HW147879   2.985   9.235   2.812 -1.0696  0.1745 -1.3692
13588SOL    HW247880   2.962   9.353   2.719  0.3966  0.8281 -0.9305
13589SOL     OW47881  11.313   2.331   6.596  0.5400 -0.2206 -0.2537
13589SOL    HW147882  11.372   2.256   6.597  0.1596 -0.5184  0.3139
13589SOL    HW247883  11.339   2.380   6.518 -0.2419 -1.7753 -1.5675
13590SOL     OW47884  12.005  11.708   4.992 -0.1782 -0.6750 -0.1021
13590SOL    HW147885  11.973  11.629   5.036  0.1593 -0.2482  0.9449
13590SOL    HW247886  12.021  11.770   5.063 -0.8294  0.4910 -0.9359
13591SOL     OW47887   8.370   3.601  11.230  0.2023 -0.6180 -0.3244
13591SOL    HW147888   8.411   3.546  11.163  2.7222  1.1433 -0.3243
13591SOL    HW247889   8.425   3.591  11.307 -1.6424 -1.1960  1.0015
13592SOL     OW47890  11.946  10.923   5.960 -0.0312  0.1414  0.0949
13592SOL    HW147891  11.957  10.957   5.871  0.9979 -0.6281 -0.0836
13592SOL    HW247892  12.021  10.865   5.974  0.8256  1.6038  2.1025
13593SOL     OW47893   4.336  11.123  10.978  0.0039 -0.0240  0.4074
13593SOL    HW147894   4.375  11.175  11.048  0.8553  1.8538 -1.3717
13593SOL    HW247895   4.408  11.070  10.945 -0.5302 -1.3377  1.2679
13594SOL     OW47896   8.778  12.812  10.729 -0.5081  0.0998 -0.5301
13594SOL    HW147897   8.758  12.719  10.718  0.1606 -0.2985  1.3419
13594SOL    HW247898   8.712  12.845  10.790 -0.3999  0.7251 -0.7352
13595SOL     OW47899   5.866   3.336   8.911  0.1231 -0.0032 -0.0187
13595SOL    HW147900   5.785   3.286   8.921  0.2697 -0.5000 -1.1571
13595SOL    HW247901   5.920   3.310   8.986 -0.0996 -0.9989 -0.1818
13596SOL     OW47902   7.124   4.783  12.763 -0.0570  0.1548  0.2845
13596SOL    HW147903   7.063   4.835  12.815 -0.6228 -1.0952  0.9170
13596SOL    HW247904   7.169   4.728  12.827 -1.6761 -2.3561 -0.5770
13597SOL     OW47905   0.206   0.129   8.575  0.3810  0.2642 -0.0575
13597SOL    HW147906   0.270   0.060   8.555 -0.5619 -0.4638 -0.6374
13597SOL    HW247907   0.259   0.203   8.605  1.5563 -0.1154 -1.0917
13598SOL     OW47908   3.513   4.348   3.448 -0.1063  0.1033 -0.1998
13598SOL    HW147909   3.492   4.319   3.536 -1.3166 -1.4648 -0.9605
13598SOL    HW247910   3.436   4.397   3.419  0.4405  0.9491 -0.2721
13599SOL     OW47911   2.343   1.417   8.159  0.2041  0.0955  0.2220
13599SOL    HW147912   2.364   1.417   8.253  2.1168  1.7318 -0.1257
13599SOL    HW247913   2.426   1.399   8.116 -0.6055 -0.4326 -1.1897
13600SOL     OW47914   5.850   9.354   1.572 -0.3812 -0.0813 -0.1171
13600SOL    HW147915   5.915   9.362   1.642  0.4597 -0.1329 -0.8760
13600SOL    HW247916   5.788   9.426   1.589  0.6032  0.7931 -0.1283
13601SOL     OW47917  10.574   5.541  12.398  0.1994  0.1886 -0.0495
13601SOL    HW147918  10.542   5.487  12.471  0.1368 -0.4823 -0.5553
13601SOL    HW247919  10.648   5.590  12.434 -0.4298  0.5849  0.7150
13602SOL     OW47920  10.128  11.947   7.896  0.6452  0.2457  0.2643
13602SOL    HW147921  10.101  12.024   7.846  0.6509 -0.9361 -1.6617
13602SOL    HW247922  10.173  11.892   7.832  0.0669 -1.6523  1.4114
13603SOL     OW47923   6.791   7.347   8.598 -0.0957 -0.1378  0.1745
13603SOL    HW147924   6.849   7.422   8.582  0.0949 -0.1245  0.9197
13603SOL    HW247925   6.744   7.370   8.678  1.5077 -1.7093  1.6614
13604SOL     OW47926   4.503   8.782  10.567  0.1318 -0.4357 -0.4495
13604SOL    HW147927   4.577   8.741  10.612  0.6222 -0.6412 -1.4009
13604SOL    HW247928   4.451   8.708  10.534 -1.3981 -0.3358  1.5499
13605SOL     OW47929  10.949  11.448   7.259 -0.6914  0.1086  0.2063
13605SOL    HW147930  10.914  11.359   7.267 -0.1990 -0.3767 -2.2930
13605SOL    HW247931  10.873  11.502   7.236 -0.2631 -0.8163 -4.4341
13606SOL     OW47932   3.131  12.391   4.905  0.0867  0.5785  0.4795
13606SOL    HW147933   3.131  12.335   4.828 -2.1127 -0.2460  0.9988
13606SOL    HW247934   3.197  12.352   4.963  0.2301 -0.0874 -0.1152
13607SOL     OW47935  11.055  11.350   2.554 -0.0820 -0.4347 -0.0302
13607SOL    HW147936  10.970  11.317   2.526 -0.7000  1.0535  0.0075
13607SOL    HW247937  11.035  11.428   2.605  1.2135 -1.0892  1.5879
13608SOL     OW47938   0.419   9.701   4.053  1.1652 -0.2659 -0.3919
13608SOL    HW147939   0.499   9.730   4.008  0.6435 -1.2154 -2.0021
13608SOL    HW247940   0.362   9.670   3.983 -1.5306  2.3713  0.4371
13609SOL     OW47941   2.994   0.824   9.807  0.0315 -0.4754  0.3557
13609SOL    HW147942   3.005   0.732   9.781  0.2331  0.1356 -1.8922
13609SOL    HW247943   3.034   0.828   9.894 -0.4400 -2.6072  0.7478
13610SOL     OW47944   0.398   3.704   1.786 -0.0543  0.6976  0.4666
13610SOL    HW147945   0.384   3.623   1.836  0.2976  0.3745  0.0499
13610SOL    HW247946   0.314   3.719   1.742  0.5643 -0.7713 -1.3542
13611SOL     OW47947   0.858   2.169   6.035 -0.1514  0.2867  0.2385
13611SOL    HW147948   0.829   2.087   5.995  0.3171  0.1485  0.1683
13611SOL    HW247949   0.898   2.218   5.963 -1.7725  1.2516 -0.0683
13612SOL     OW47950   2.519   3.427  10.176 -0.1375  0.2234  0.5394
13612SOL    HW147951   2.492   3.359  10.114 -1.4635  1.5763 -0.4167
13612SOL    HW247952   2.592   3.387  10.224 -0.0479 -1.4011 -0.8481
13613SOL     OW47953   3.797   1.375   5.094  0.3001  0.1529  0.3549
13613SOL    HW147954   3.818   1.423   5.173 -0.2566 -0.4833  0.9003
13613SOL    HW247955   3.830   1.430   5.023  1.8785  0.1835  1.0590
13614SOL     OW47956   6.346   4.249   9.743 -0.8864  0.2618 -0.0431
13614SOL    HW147957   6.431   4.292   9.751 -0.2608 -0.8109 -0.6586
13614SOL    HW247958   6.361   4.161   9.779 -1.8497  0.2052  0.2326
13615SOL     OW47959   4.954   3.666   6.500  0.1507 -0.1018  0.1423
13615SOL    HW147960   4.870   3.711   6.495 -0.3402 -0.8440  1.4330
13615SOL    HW247961   5.006   3.706   6.430 -0.3113  2.3714  1.1091
13616SOL     OW47962   1.040   4.206   5.533 -0.1774  0.4308  0.0892
13616SOL    HW147963   1.130   4.192   5.565 -0.3132 -1.0351 -0.1019
13616SOL    HW247964   1.051   4.231   5.441  0.0360  0.1915  0.0488
13617SOL     OW47965   7.602  12.869   5.092  0.4610  0.8629 -0.0169
13617SOL    HW147966   7.517  12.912   5.079  0.2168 -0.1017 -1.9873
13617SOL    HW247967   7.650  12.886   5.011  0.9935 -1.0963 -0.1545
13618SOL     OW47968  11.893   9.761  10.741  0.3115 -0.1270 -0.0755
13618SOL    HW147969  11.875   9.667  10.744 -1.3590  0.1797  0.8226
13618SOL    HW247970  11.831   9.799  10.802  0.4946  1.6397 -0.9265
13619SOL     OW47971   4.651   5.911   3.516  0.4333 -0.3489  0.1253
13619SOL    HW147972   4.568   5.958   3.529  0.1924 -1.1668  1.7524
13619SOL    HW247973   4.698   5.965   3.453 -1.3762  0.0749 -0.9341
13620SOL     OW47974   2.318   7.269   3.381  0.3784  1.2017 -0.1626
13620SOL    HW147975   2.277   7.210   3.318  2.2821 -1.4043  0.8363
13620SOL    HW247976   2.257   7.272   3.455  0.6545 -0.3924  0.1744
13621SOL     OW47977   2.166   7.515  10.222  0.0663 -0.1179  0.0869
13621SOL    HW147978   2.190   7.501  10.130 -0.4344 -2.2762  0.2291
13621SOL    HW247979   2.074   7.487  10.227  0.2670 -0.6148  1.3508
13622SOL     OW47980   3.104   6.640   2.789 -0.1023  0.4494  0.0963
13622SOL    HW147981   3.170   6.709   2.789  0.4685 -0.0693  1.2465
13622SOL    HW247982   3.152   6.561   2.769 -0.8144  0.4003 -1.5768
13623SOL     OW47983  12.728   2.911   2.715  0.4159 -0.1572 -0.4415
13623SOL    HW147984  12.775   2.957   2.785 -1.4602  0.5738  0.3906
13623SOL    HW247985  12.715   2.822   2.748 -1.2177  0.4123  0.5834
13624SOL     OW47986  11.091   0.039   9.074 -0.0118 -0.3602 -0.2986
13624SOL    HW147987  11.096  -0.022   9.147  0.4093  0.1746  0.1271
13624SOL    HW247988  10.997   0.056   9.063 -0.0599 -0.1613  0.3633
13625SOL     OW47989  10.462   2.233  10.836 -0.5656 -0.8679 -0.4021
13625SOL    HW147990  10.414   2.157  10.802 -2.6998 -0.3397  1.2348
13625SOL    HW247991  10.422   2.308  10.792  1.6259 -0.6049 -2.1176
13626SOL     OW47992   1.572   0.375  11.185 -0.5922  0.0301  0.1879
13626SOL    HW147993   1.508   0.362  11.115 -0.4236 -0.0198  0.0427
13626SOL    HW247994   1.557   0.465  11.214 -0.5493  0.1080 -0.0273
13627SOL     OW47995   0.177   3.926   6.243  0.4045 -0.3225 -0.2683
13627SOL    HW147996   0.121   3.997   6.275  0.0988 -0.3722 -0.6881
13627SOL    HW247997   0.118   3.869   6.195  0.5191 -1.2300  0.6288
13628SOL     OW47998   8.963  10.040   0.833  0.0553 -0.0036 -0.1035
13628SOL    HW147999   8.923  10.092   0.902  1.2684  1.0908 -0.1804
13628SOL    HW248000   9.028   9.987   0.878  0.8095  0.6686 -0.3720
13629SOL     OW48001   3.494   4.157   8.153 -0.1561 -0.1628  0.8351
13629SOL    HW148002   3.425   4.211   8.190 -0.7139 -0.9023  0.8946
13629SOL    HW248003   3.554   4.141   8.226 -1.1343 -1.4261  1.3932
13630SOL     OW48004   5.216  11.356   4.564  0.1290 -0.9964  0.5548
13630SOL    HW148005   5.184  11.437   4.524  1.0843  0.2771  2.2656
13630SOL    HW248006   5.164  11.287   4.522 -1.8296  0.6033  0.1835
13631SOL     OW48007   1.281   8.961   5.856  0.8003 -0.0844  0.2093
13631SOL    HW148008   1.194   8.949   5.818  1.4113 -2.5907 -0.6264
13631SOL    HW248009   1.270   9.031   5.920 -1.5804  0.3606 -0.5717
13632SOL     OW48010  12.095   6.394   9.297  0.4340  0.1247  0.0548
13632SOL    HW148011  12.017   6.419   9.347  0.6634  0.1275  0.4167
13632SOL    HW248012  12.065   6.326   9.237  0.0820  0.3601 -0.0375
13633SOL     OW48013   5.729   3.786   2.526  0.0529 -0.0700 -0.2264
13633SOL    HW148014   5.657   3.781   2.463  1.0554  0.3755 -1.4369
13633SOL    HW248015   5.692   3.834   2.600 -0.2467  2.2773 -1.8038
13634SOL     OW48016  10.414   6.450   2.568  1.1839  0.1766 -0.0696
13634SOL    HW148017  10.484   6.502   2.607  0.0950  0.7198  1.2474
13634SOL    HW248018  10.444   6.359   2.577  1.1589  0.3066  1.7456
13635SOL     OW48019   1.408  10.783   1.927  0.0547  0.1521 -0.3122
13635SOL    HW148020   1.444  10.819   2.008  0.5610 -0.8266 -0.0808
13635SOL    HW248021   1.447  10.836   1.858  1.1686 -0.2272 -0.0054
13636SOL     OW48022   6.968   3.011   7.900 -0.1427  0.4129  0.2213
13636SOL    HW148023   7.010   2.990   7.983  0.9669 -1.3172 -0.7215
13636SOL    HW248024   7.009   2.952   7.837  0.5833  3.1307 -2.0070
13637SOL     OW48025   8.741   3.274   3.090  0.4816 -0.2751 -0.1429
13637SOL    HW148026   8.788   3.340   3.038 -0.5174 -0.3084 -1.1320
13637SOL    HW248027   8.649   3.285   3.066 -0.1252  0.1203  2.1195
13638SOL     OW48028   5.987   2.053   6.230  0.0137 -0.9640 -0.2327
13638SOL    HW148029   5.999   2.146   6.250 -1.9604 -0.6640 -0.2569
13638SOL    HW248030   6.000   2.047   6.136  0.4077 -0.7684 -0.1929
13639SOL     OW48031   0.858   1.558   3.653  0.2112  0.6010 -0.2521
13639SOL    HW148032   0.832   1.575   3.744 -1.4795  1.2349 -0.8230
13639SOL    HW248033   0.843   1.640   3.608 -1.8296 -0.4779 -1.6977
13640SOL     OW48034  10.841  12.628   4.044  1.0703 -1.0102 -0.3722
13640SOL    HW148035  10.843  12.581   3.960 -0.9463 -0.8891 -0.5468
13640SOL    HW248036  10.862  12.561   4.109 -0.9781 -2.0524 -0.6840
13641SOL     OW48037   8.127   5.967   1.535  0.9439  0.1469 -0.2307
13641SOL    HW148038   8.175   6.015   1.603  2.1115  1.6041 -1.9816
13641SOL    HW248039   8.190   5.957   1.463 -0.1983 -1.4564 -1.0722
13642SOL     OW48040   4.100   1.788   8.135 -0.1500  0.1426  0.3583
13642SOL    HW148041   4.040   1.715   8.150  1.0745 -0.8061  0.7222
13642SOL    HW248042   4.097   1.838   8.217  0.4450 -0.5597  0.8137
13643SOL     OW48043  11.845   4.900  12.368  0.5279 -0.0800  0.1158
13643SOL    HW148044  11.928   4.935  12.401 -0.4365  1.3050  1.1782
13643SOL    HW248045  11.782   4.919  12.437 -1.4020  2.0560 -2.0592
13644SOL     OW48046   3.958  10.697   9.915 -0.0569  0.4624  0.2867
13644SOL    HW148047   4.026  10.638   9.946  0.1095  0.7088  0.3931
13644SOL    HW248048   3.902  10.642   9.860  2.2958  0.9726 -2.9025
13645SOL     OW48049  12.295   3.729   0.075  0.2965 -0.2882  0.3064
13645SOL    HW148050  12.221   3.761   0.024  1.0000  0.4180 -0.2869
13645SOL    HW248051  12.256   3.672   0.141 -0.8246  0.4917  0.3359
13646SOL     OW48052   7.356   2.380   0.532  0.1643  0.0918 -0.0299
13646SOL    HW148053   7.379   2.414   0.446  0.9196  1.1152  0.5397
13646SOL    HW248054   7.261   2.387   0.536  0.1264  0.0513 -0.7770
13647SOL     OW48055  10.528   7.714   1.763 -0.2536 -0.0201 -0.2358
13647SOL    HW148056  10.595   7.681   1.823 -0.7260 -0.8971 -0.1657
13647SOL    HW248057  10.544   7.808   1.757 -0.2347  0.1008  1.3243
13648SOL     OW48058   1.901   3.392  10.046 -0.3472 -0.0930 -0.1782
13648SOL    HW148059   1.815   3.354  10.063 -0.1945 -0.7021 -0.7492
13648SOL    HW248060   1.883   3.462   9.983 -0.7976  1.6364  1.7487
13649SOL     OW48061  10.838   4.609  11.623 -0.6933  0.0382 -0.0076
13649SOL    HW148062  10.932   4.614  11.608 -0.8559  0.0057 -1.1630
13649SOL    HW248063  10.813   4.698  11.648 -0.0431 -0.4232  2.5848
13650SOL     OW48064   3.994   4.825   7.447  0.3624  0.2310 -0.9004
13650SOL    HW148065   4.069   4.786   7.402 -0.1758  0.3880 -1.9523
13650SOL    HW248066   4.024   4.837   7.537  0.4345 -2.9997 -0.3721
13651SOL     OW48067   2.555   5.764   1.047  0.4456  0.3820 -0.2636
13651SOL    HW148068   2.590   5.675   1.053 -2.1909 -0.7986 -0.9702
13651SOL    HW248069   2.593   5.810   1.122  1.1196 -1.6067  0.6854
13652SOL     OW48070   8.289  10.595   9.126 -0.2902  0.2374  0.3204
13652SOL    HW148071   8.246  10.559   9.048  0.8930 -0.7506  0.0923
13652SOL    HW248072   8.240  10.675   9.145 -0.4656  0.6500 -1.5951
13653SOL     OW48073   9.895   5.479   2.752 -0.6422 -0.0989  0.1372
13653SOL    HW148074   9.864   5.465   2.841  1.5053 -0.1566  0.9337
13653SOL    HW248075   9.940   5.398   2.729 -0.7336  0.1057 -0.8144
13654SOL     OW48076  11.013   8.853   1.747  0.0867 -0.9112 -0.0652
13654SOL    HW148077  11.030   8.937   1.789  0.3210 -0.9728 -0.0365
13654SOL    HW248078  11.044   8.865   1.657  1.1592 -1.3177  0.2294
13655SOL     OW48079   4.472   8.848   8.824 -0.1372 -0.1411  0.1875
13655SOL    HW148080   4.549   8.858   8.880 -0.5444 -1.1363  0.9601
13655SOL    HW248081   4.508   8.846   8.735  0.8332 -1.3603  0.5686
13656SOL     OW48082  10.648  11.044   6.765 -0.1595 -0.7888 -0.6209
13656SOL    HW148083  10.642  11.027   6.671 -0.5590  0.0024 -0.7433
13656SOL    HW248084  10.742  11.047   6.782 -0.0704  0.0286 -1.1820
13657SOL     OW48085  12.246   7.590   7.091 -0.2136  0.9324 -0.0759
13657SOL    HW148086  12.318   7.629   7.042  0.1861 -0.3863 -0.5723
13657SOL    HW248087  12.168   7.635   7.059  0.3607  2.3861  0.4787
13658SOL     OW48088   6.971   5.880   0.152 -0.4100 -0.1011 -0.1958
13658SOL    HW148089   6.958   5.975   0.150  2.5070  0.3739 -0.9154
13658SOL    HW248090   6.964   5.853   0.061 -2.7276 -0.9276  0.1433
13659SOL     OW48091   5.420   3.759   9.721 -0.2176 -0.3126  0.0110
13659SOL    HW148092   5.381   3.671   9.720 -0.4297 -0.2529  1.3742
13659SOL    HW248093   5.351   3.815   9.757  0.2921  0.2313  0.1512
13660SOL     OW48094   1.087  12.658  10.634  0.9295  0.3621  0.0175
13660SOL    HW148095   1.062  12.566  10.633 -0.9271  0.8086  0.8345
13660SOL    HW248096   1.122  12.672  10.722 -3.0589  1.3632  1.6738
13661SOL     OW48097   3.663   7.037   0.082  0.1035 -0.3932 -0.0246
13661SOL    HW148098   3.663   7.131   0.063 -2.3505 -0.4425 -0.5375
13661SOL    HW248099   3.640   7.031   0.175 -2.6149 -0.4770 -0.6211
13662SOL     OW48100  10.901   5.410   1.703 -0.3036  0.4791  0.0389
13662SOL    HW148101  10.832   5.395   1.768  0.7482 -1.6609  0.7436
13662SOL    HW248102  10.951   5.483   1.739 -1.8329  1.7086 -0.2170
13663SOL     OW48103   5.128  10.111   0.224 -0.0427 -0.3567  0.2019
13663SOL    HW148104   5.035  10.128   0.241  0.1432  0.2782  0.6131
13663SOL    HW248105   5.169  10.111   0.310  0.6574  1.3805 -0.0749
13664SOL     OW48106   4.180   4.824   4.033  0.2797 -0.0024  0.6309
13664SOL    HW148107   4.199   4.862   3.947  2.2612  0.1512  1.0838
13664SOL    HW248108   4.183   4.899   4.093 -2.6311  0.1685  0.7280
13665SOL     OW48109   1.954   0.774   2.848 -0.1283  0.0573 -0.3477
13665SOL    HW148110   1.873   0.788   2.898 -0.1176 -0.7303 -0.0956
13665SOL    HW248111   2.003   0.855   2.859 -0.9185  0.5779 -0.5748
13666SOL     OW48112   7.097   6.941  12.111 -0.6429  0.0503  0.2567
13666SOL    HW148113   7.102   7.035  12.129 -0.5041  0.0722  0.1131
13666SOL    HW248114   7.023   6.910  12.163 -0.6724  0.2343  0.3250
13667SOL     OW48115   0.027   0.153  10.962  0.0720 -0.2444  0.3574
13667SOL    HW148116   0.089   0.081  10.965  0.3888 -0.0130 -0.3463
13667SOL    HW248117  -0.056   0.115  10.991  0.3767 -0.7326  0.6017
13668SOL     OW48118  10.475  11.306   7.844  0.0723 -0.4482 -0.0738
13668SOL    HW148119  10.396  11.332   7.797  0.4271 -0.7211 -0.8492
13668SOL    HW248120  10.485  11.372   7.913 -1.7136 -1.2914  1.0859
13669SOL     OW48121   8.612   5.118   1.511 -0.2339  0.0378  0.1449
13669SOL    HW148122   8.530   5.069   1.505  0.2931 -0.8735  0.2007
13669SOL    HW248123   8.663   5.089   1.435  0.8184 -0.9161  1.1728
13670SOL     OW48124   8.782   9.788   8.791 -0.3396  0.4627  0.2222
13670SOL    HW148125   8.731   9.863   8.822 -0.6482 -0.5707  2.3914
13670SOL    HW248126   8.717   9.727   8.756 -0.5986 -0.5635  2.3665
13671SOL     OW48127   2.176  10.155   2.989 -0.0138  0.6735 -0.0966
13671SOL    HW148128   2.195  10.109   3.071  1.2154 -1.1536 -1.3316
13671SOL    HW248129   2.083  10.140   2.974 -0.1596  0.6707  0.7429
13672SOL     OW48130  11.087   1.366   6.591  0.1049  0.0400 -0.4466
13672SOL    HW148131  11.159   1.326   6.543 -1.3341 -1.9304 -1.0631
13672SOL    HW248132  11.032   1.404   6.524 -0.2602  0.1383 -0.0958
13673SOL     OW48133   5.311   8.643   6.787  0.4622 -0.2085 -0.5552
13673SOL    HW148134   5.332   8.585   6.860  0.1955 -1.0563 -1.1324
13673SOL    HW248135   5.372   8.716   6.796  0.7321 -0.5210  0.2503
13674SOL     OW48136   3.909  10.915   1.771  0.2671  0.1244 -1.0169
13674SOL    HW148137   3.907  10.921   1.675  0.7239  1.3265 -0.9667
13674SOL    HW248138   3.817  10.921   1.797  0.0662 -0.9747 -1.3977
13675SOL     OW48139   6.396   2.172   5.844  1.0972 -0.3718  0.1173
13675SOL    HW148140   6.449   2.106   5.799  1.9969  0.2301  0.2692
13675SOL    HW248141   6.412   2.157   5.937 -1.2926 -2.0562  0.3481
13676SOL     OW48142  10.684   4.870  12.343 -0.2068  0.5628  0.0995
13676SOL    HW148143  10.670   4.959  12.374 -0.2430  0.8825 -0.8121
13676SOL    HW248144  10.749   4.878  12.274  0.0275 -0.1604  0.2262
13677SOL     OW48145   8.529   7.450   9.569  0.6362  0.4238 -0.1529
13677SOL    HW148146   8.623   7.465   9.562  0.3447  2.5231 -0.0992
13677SOL    HW248147   8.521   7.365   9.613  2.4810  0.1276 -0.3189
13678SOL     OW48148   5.203   8.243   4.434  0.7025 -0.1243  0.3743
13678SOL    HW148149   5.268   8.307   4.407  0.5452  0.8054  2.0090
13678SOL    HW248150   5.120   8.278   4.401  0.5979  0.6333  1.3907
13679SOL     OW48151   6.305   6.511   4.980 -0.0752 -0.3401 -0.0515
13679SOL    HW148152   6.396   6.529   4.957 -0.6249  0.9948 -1.3914
13679SOL    HW248153   6.276   6.590   5.027 -0.5107 -0.8191  0.5042
13680SOL     OW48154   1.633   0.167   2.203  0.1295 -0.7834  0.4965
13680SOL    HW148155   1.569   0.115   2.253 -1.0323  0.9789  0.9232
13680SOL    HW248156   1.614   0.147   2.112 -1.0306 -0.3137  0.6189
13681SOL     OW48157   1.830   7.953   7.756  0.7950 -0.3728  0.0829
13681SOL    HW148158   1.764   7.991   7.698  0.2041 -0.4045  0.7252
13681SOL    HW248159   1.781   7.923   7.832  1.8623  2.4641  2.0637
13682SOL     OW48160  10.151  10.810   4.186 -0.3523  0.1091  0.3037
13682SOL    HW148161  10.217  10.758   4.140  0.1613 -0.3519  1.5110
13682SOL    HW248162  10.196  10.842   4.264 -1.3223  0.4890  0.7221
13683SOL     OW48163   0.511   9.594   3.695  0.2631 -0.1196  0.4136
13683SOL    HW148164   0.543   9.560   3.779 -1.0662 -0.9381  0.6137
13683SOL    HW248165   0.552   9.537   3.630  1.6749  0.8117  0.4425
13684SOL     OW48166   6.878  11.081   5.891 -0.3485  0.5076 -1.2245
13684SOL    HW148167   6.909  10.991   5.899 -0.2115  0.4826 -1.9928
13684SOL    HW248168   6.923  11.129   5.961 -0.4625 -0.0216 -0.7817
13685SOL     OW48169   0.022  12.362   0.974  0.1827  0.7735 -0.1145
13685SOL    HW148170   0.037  12.388   0.883  0.4972  1.1636  0.0421
13685SOL    HW248171   0.024  12.445   1.022 -1.3719  0.7371  0.0761
13686SOL     OW48172   8.141   2.738   0.393  0.7501  0.2225 -0.4906
13686SOL    HW148173   8.111   2.672   0.455  0.7297  1.2388  0.6200
13686SOL    HW248174   8.063   2.788   0.371  1.1435  1.2589  0.4112
13687SOL     OW48175   3.086   5.888   2.976 -0.4399  0.0284  0.5417
13687SOL    HW148176   3.037   5.969   2.965  0.9869  0.8669  0.0275
13687SOL    HW248177   3.098   5.854   2.887  0.2127  0.0333  0.6234
13688SOL     OW48178   3.217  11.148   8.608 -0.3341  0.3245  0.0029
13688SOL    HW148179   3.219  11.116   8.518  1.6875  0.3199 -0.0051
13688SOL    HW248180   3.147  11.098   8.650 -0.5222 -0.5225 -1.2596
13689SOL     OW48181  10.688   8.389   4.982 -0.2875 -0.2102  0.1847
13689SOL    HW148182  10.726   8.449   5.045  1.2327 -0.7914 -0.1316
13689SOL    HW248183  10.610   8.354   5.025 -1.0090  1.6698  0.5133
13690SOL     OW48184   9.071   6.755  12.210 -0.2597  0.3487 -0.0346
13690SOL    HW148185   9.104   6.731  12.296  1.4629  0.3117 -0.6712
13690SOL    HW248186   9.015   6.682  12.184 -2.1683  1.0876  1.7014
13691SOL     OW48187   8.882   7.908   5.850  0.7021  0.4552 -0.1566
13691SOL    HW148188   8.940   7.947   5.784 -0.3323  1.0969 -0.7127
13691SOL    HW248189   8.931   7.914   5.932  1.4282  0.9540 -0.6158
13692SOL     OW48190   9.984  11.745  11.683  0.1957 -0.1320  0.8004
13692SOL    HW148191  10.060  11.690  11.699  1.2218  0.7212 -0.9113
13692SOL    HW248192   9.916  11.708  11.740  1.0979 -2.5755  0.4292
13693SOL     OW48193  11.046   5.345  10.719  0.0256  0.0196  0.0891
13693SOL    HW148194  11.092   5.367  10.800 -0.1382  0.9728 -0.0585
13693SOL    HW248195  11.019   5.254  10.730 -0.8832  0.4276  1.5411
13694SOL     OW48196  11.027   6.167   2.064  0.0556 -0.1349 -0.1891
13694SOL    HW148197  11.110   6.191   2.104  0.2594 -2.1000  0.6975
13694SOL    HW248198  10.964   6.171   2.136 -0.1209 -1.0202 -0.2836
13695SOL     OW48199   0.184   8.673   4.956  0.1224 -0.0461 -0.1404
13695SOL    HW148200   0.250   8.718   4.903  2.7642 -3.5253 -0.1833
13695SOL    HW248201   0.228   8.658   5.040 -1.1697 -1.2119  0.3691
13696SOL     OW48202   6.399  11.173   6.900  0.2491  0.1970  0.2246
13696SOL    HW148203   6.461  11.200   6.833  1.6999  0.3112  1.5594
13696SOL    HW248204   6.432  11.089   6.933 -0.3769  0.1836  0.8698
13697SOL     OW48205   7.043   5.895   1.703 -0.3249  0.1131  0.1183
13697SOL    HW148206   6.958   5.896   1.659 -0.1821 -1.1609 -0.2264
13697SOL    HW248207   7.103   5.856   1.639  0.6139  1.3172  0.2182
13698SOL     OW48208   0.247   3.050  10.970  0.4822 -0.0464  0.8759
13698SOL    HW148209   0.254   3.136  10.929  1.3301 -1.2108 -1.6411
13698SOL    HW248210   0.169   3.011  10.930  2.0045 -1.6741 -0.7040
13699SOL     OW48211   8.920   2.705  10.290  0.6738 -0.3695 -0.0037
13699SOL    HW148212   8.830   2.693  10.323  0.5949  1.0945  0.4329
13699SOL    HW248213   8.932   2.636  10.226  0.1654 -2.2427  1.7962
13700SOL     OW48214   4.421   4.102  11.026 -0.0939 -0.0864 -0.2020
13700SOL    HW148215   4.505   4.060  11.042  0.9523  1.2567 -1.9269
13700SOL    HW248216   4.356   4.033  11.045  1.3203 -1.0407  1.4756
13701SOL     OW48217   2.922   6.872   2.479 -0.1968  0.0357  0.1543
13701SOL    HW148218   2.949   6.945   2.535  0.4985 -1.2379  1.5396
13701SOL    HW248219   2.904   6.913   2.394  0.6813  1.7449  0.7376
13702SOL     OW48220   2.094   4.448  12.304  0.1659 -0.1234  0.5531
13702SOL    HW148221   2.161   4.504  12.264  1.5578 -1.4394  0.9010
13702SOL    HW248222   2.088   4.478  12.394 -0.7674  0.9125  0.1547
13703SOL     OW48223   0.109   0.040  10.355 -0.2324 -0.3071 -0.3756
13703SOL    HW148224   0.178   0.010  10.295  0.0161 -1.0939  0.2834
13703SOL    HW248225   0.032   0.052  10.300 -1.1078 -4.6137 -0.3911
13704SOL     OW48226  11.570   0.445   7.985  0.7879  0.6318  0.3116
13704SOL    HW148227  11.603   0.358   8.010  0.5210  0.4160 -0.0740
13704SOL    HW248228  11.564   0.493   8.068 -5.3106 -1.7675  1.7570
13705SOL     OW48229   5.262   7.104  12.863 -0.6093  0.3013  0.8642
13705SOL    HW148230   5.323   7.174  12.887 -0.8395  1.3299 -1.2804
13705SOL    HW248231   5.318   7.030  12.841 -0.2890  0.2937  1.6535
13706SOL     OW48232   1.012   3.941  12.109 -0.2084  0.3816 -0.7100
13706SOL    HW148233   0.918   3.932  12.094 -0.4987 -0.8993  1.5457
13706SOL    HW248234   1.021   3.952  12.203  1.8195  2.5753 -1.0448
13707SOL     OW48235   7.996   8.906  10.226  0.0241  0.5710 -0.0970
13707SOL    HW148236   7.908   8.911  10.263 -0.6369 -1.2736 -1.2721
13707SOL    HW248237   7.983   8.907  10.131  1.2983  0.7177 -0.2941
13708SOL     OW48238   5.399  12.817  12.223 -0.1872 -0.7102 -0.4055
13708SOL    HW148239   5.436  12.904  12.236 -1.2522  0.0861 -2.2535
13708SOL    HW248240   5.475  12.758  12.224  0.9092  0.5964 -1.9743
13709SOL     OW48241   6.436   6.102   9.390 -0.8211 -0.3847 -0.2469
13709SOL    HW148242   6.376   6.088   9.463  1.4922 -2.2726  1.4442
13709SOL    HW248243   6.400   6.046   9.320 -2.3773  0.4852 -0.1906
13710SOL     OW48244   8.216  11.409   8.713  0.0186 -0.8657 -0.2136
13710SOL    HW148245   8.257  11.475   8.768  0.7969 -1.3697 -0.1695
13710SOL    HW248246   8.286  11.379   8.655 -0.1623 -2.0914  0.1855
13711SOL     OW48247   7.582   5.616  12.547 -0.6073  0.0016 -0.4550
13711SOL    HW148248   7.510   5.575  12.594  1.0676 -1.4871  0.9723
13711SOL    HW248249   7.628   5.667  12.613  0.8087 -0.7338 -0.8287
13712SOL     OW48250   7.373   9.765  11.366  0.3024 -0.8246  0.4086
13712SOL    HW148251   7.339   9.677  11.383  0.3728 -0.5331  2.3819
13712SOL    HW248252   7.466   9.759  11.387  0.4290 -0.4164 -0.0262
13713SOL     OW48253   2.945   1.105   1.466  0.1135  1.0507 -0.1439
13713SOL    HW148254   2.873   1.125   1.406 -1.0812 -0.6983  0.6199
13713SOL    HW248255   2.920   1.146   1.549  0.5530  1.3850 -0.1730
13714SOL     OW48256   1.246   0.159   0.113  0.2540 -0.5261  0.0779
13714SOL    HW148257   1.262   0.114   0.196 -2.5476 -0.3172  0.8166
13714SOL    HW248258   1.251   0.089   0.047  0.3563 -1.0889  0.6694
13715SOL     OW48259   1.179  10.836   0.182 -0.0188  0.0741  0.2196
13715SOL    HW148260   1.229  10.918   0.185  0.9719 -0.4448 -1.1783
13715SOL    HW248261   1.155  10.826   0.090  0.7139 -1.6981  0.1883
13716SOL     OW48262   3.390   4.246   9.053 -0.2455  0.1396 -0.0659
13716SOL    HW148263   3.367   4.295   9.131  1.4837 -0.7153  1.0491
13716SOL    HW248264   3.407   4.157   9.084  0.4322 -0.2334 -1.4170
13717SOL     OW48265   7.330   0.344  12.508  0.3919 -1.1447  0.2395
13717SOL    HW148266   7.368   0.425  12.473  0.2106 -1.3392 -0.4190
13717SOL    HW248267   7.278   0.373  12.583 -0.8966 -0.4388 -0.8828
13718SOL     OW48268   5.150  10.116  11.855 -0.5673  0.7722  0.1130
13718SOL    HW148269   5.154  10.022  11.872  0.9260  1.0742  1.7269
13718SOL    HW248270   5.062  10.142  11.882 -0.9562 -0.1454 -0.2588
13719SOL     OW48271   2.520  10.534   0.563 -0.6119  0.1620 -0.3738
13719SOL    HW148272   2.499  10.484   0.484  1.3655 -1.1773 -0.1320
13719SOL    HW248273   2.503  10.473   0.634  1.5670 -0.1474 -0.0519
13720SOL     OW48274  10.954   1.645   4.800 -0.8492 -0.0638  0.0547
13720SOL    HW148275  10.957   1.736   4.832  0.1349 -0.5627  1.4884
13720SOL    HW248276  10.906   1.597   4.867 -1.4104 -0.6228 -0.7186
13721SOL     OW48277  11.700   2.048   0.005 -1.0111  0.5531 -0.1961
13721SOL    HW148278  11.686   2.023   0.097 -0.5714 -1.1516 -0.5486
13721SOL    HW248279  11.676   1.969  -0.044 -0.2311  1.0923 -1.4766
13722SOL     OW48280  10.379   6.451   2.249  0.0196 -0.2385 -0.4269
13722SOL    HW148281  10.473   6.463   2.263 -0.0874 -0.3472  0.4657
13722SOL    HW248282  10.339   6.479   2.332 -0.7433 -0.1029 -0.8298
13723SOL     OW48283  12.692   3.903   9.383  0.3979  0.5840 -0.1939
13723SOL    HW148284  12.761   3.881   9.445 -0.0627  2.0148  0.8985
13723SOL    HW248285  12.618   3.928   9.438 -0.3422  0.9911 -1.3318
13724SOL     OW48286   5.289   2.871   1.355 -0.1972 -0.3067  0.2751
13724SOL    HW148287   5.249   2.925   1.424  1.0549 -0.0931  0.8655
13724SOL    HW248288   5.323   2.795   1.402  0.0815 -0.4815 -0.2087
13725SOL     OW48289   0.350   4.149   2.291 -0.1276  0.2841 -0.1960
13725SOL    HW148290   0.360   4.134   2.385  0.1244  3.3598  0.3659
13725SOL    HW248291   0.440   4.157   2.258 -0.0922 -2.8683 -1.2257
13726SOL     OW48292  10.695  11.178   4.166  0.1201 -0.2693 -0.3773
13726SOL    HW148293  10.610  11.213   4.138  0.6385  2.0484  0.6966
13726SOL    HW248294  10.759  11.230   4.118  0.9633 -1.2337 -0.3342
13727SOL     OW48295   8.068   0.705   1.677  0.4775 -0.4194  0.0199
13727SOL    HW148296   8.070   0.739   1.588  1.7974 -1.0959 -0.2362
13727SOL    HW248297   8.129   0.761   1.725 -0.0894 -0.1738  0.4656
13728SOL     OW48298  10.350  10.530   6.903 -0.3448 -0.3025  0.6500
13728SOL    HW148299  10.410  10.603   6.920 -0.1411 -0.4051  0.3705
13728SOL    HW248300  10.263  10.571   6.900 -0.2482 -0.0956  0.6537
13729SOL     OW48301   0.045   1.320   3.479 -0.1379 -0.4029  0.1130
13729SOL    HW148302   0.029   1.278   3.563  0.1875 -0.3818  0.1868
13729SOL    HW248303   0.140   1.319   3.469 -0.1945 -0.8085 -0.4600
13730SOL     OW48304   8.300   9.846   5.108 -0.7636  0.2145  0.1716
13730SOL    HW148305   8.300   9.903   5.031 -1.2384 -0.2430 -0.1667
13730SOL    HW248306   8.390   9.813   5.113 -0.6943  0.3607 -0.1020
13731SOL     OW48307  11.174  12.897   5.987  0.6325 -0.2297  0.1486
13731SOL    HW148308  11.121  12.929   6.060  1.5702 -1.0302  1.2186
13731SOL    HW248309  11.113  12.890   5.914 -0.3167  0.6450  0.8294
13732SOL     OW48310  10.749   9.170   4.205  0.5065  0.0062  0.0446
13732SOL    HW148311  10.674   9.133   4.250 -2.0059  1.9534 -2.2361
13732SOL    HW248312  10.762   9.255   4.245  0.9126  0.0643 -0.1975
13733SOL     OW48313   3.895   9.527   3.570 -0.0543 -0.4123 -0.9182
13733SOL    HW148314   3.954   9.456   3.595  0.3238 -0.4920 -1.9622
13733SOL    HW248315   3.936   9.566   3.492  0.2206  1.5550  0.1432
13734SOL     OW48316   7.467   3.632  11.448  0.1460  0.2812  0.9736
13734SOL    HW148317   7.422   3.574  11.509  0.2182 -0.4746  0.3154
13734SOL    HW248318   7.464   3.586  11.365  1.2726  0.6745  0.7053
13735SOL     OW48319  11.528   9.410  11.857 -0.4345 -0.1907 -0.3210
13735SOL    HW148320  11.560   9.346  11.792  0.7868  0.2234 -0.1533
13735SOL    HW248321  11.515   9.490  11.807  1.9872  0.5825  0.1365
13736SOL     OW48322  12.097   0.688   8.304  0.6940  0.6836 -0.3254
13736SOL    HW148323  12.134   0.610   8.346 -0.0151  0.0712 -0.7977
13736SOL    HW248324  12.011   0.659   8.272 -0.1766  2.0184  0.6686
13737SOL     OW48325   7.079  12.106   0.977 -0.1925 -0.3061 -0.2115
13737SOL    HW148326   7.049  12.193   0.953 -2.3143 -1.3307 -1.5134
13737SOL    HW248327   7.013  12.074   1.039 -1.7304 -2.4093 -2.7241
13738SOL     OW48328  10.367  11.195  10.178 -0.3106  0.4527  0.1532
13738SOL    HW148329  10.344  11.275  10.225 -1.7770 -1.5160  3.1095
13738SOL    HW248330  10.451  11.169  10.216 -0.1930  0.1956 -0.2753
13739SOL     OW48331   0.735  10.985  12.377  0.4024  0.5055 -0.4470
13739SOL    HW148332   0.825  11.014  12.387  0.6743 -0.1778 -0.7993
13739SOL    HW248333   0.697  10.992  12.465  2.0311 -3.0985  0.7731
13740SOL     OW48334   5.672   6.348   9.561 -0.1509 -0.3351  0.2852
13740SOL    HW148335   5.654   6.329   9.654  0.0992  0.9208  0.6082
13740SOL    HW248336   5.760   6.384   9.561 -1.3532  2.9493  0.0752
13741SOL     OW48337   5.741   9.190   0.718 -0.0379 -0.1228 -0.4270
13741SOL    HW148338   5.791   9.217   0.795 -2.1746 -0.2386  1.1184
13741SOL    HW248339   5.784   9.232   0.645  0.2182  2.7362  1.2239
13742SOL     OW48340   8.325  12.896   7.916 -0.2386  0.2673  0.0680
13742SOL    HW148341   8.391  12.867   7.852 -0.2418  1.1263 -0.3464
13742SOL    HW248342   8.303  12.817   7.965  0.6369 -0.1654 -0.2076
13743SOL     OW48343   8.315  10.592   0.593 -0.4223 -1.1326  0.1548
13743SOL    HW148344   8.376  10.663   0.578 -1.1202 -0.4639  0.4099
13743SOL    HW248345   8.274  10.612   0.677 -1.5111 -1.1661 -0.3483
13744SOL     OW48346  11.245   6.083  11.829  0.4121  0.4530  0.0297
13744SOL    HW148347  11.270   6.135  11.906  1.4246 -0.4951  0.3774
13744SOL    HW248348  11.158   6.115  11.806  0.6778  1.7590  0.6902
13745SOL     OW48349   9.567   9.532  10.696  0.0325  0.3186 -0.0614
13745SOL    HW148350   9.635   9.576  10.645 -0.2245 -0.3718 -1.0087
13745SOL    HW248351   9.614   9.494  10.771  0.8930 -1.0842 -1.2683
13746SOL     OW48352   8.180   3.445   9.334  0.4321 -0.4297 -0.1912
13746SOL    HW148353   8.113   3.385   9.369 -0.1344 -0.8516 -1.8788
13746SOL    HW248354   8.186   3.515   9.399 -1.4885 -0.5163  0.1401
13747SOL     OW48355   7.333   1.118   3.948  0.0664 -0.3730 -0.1286
13747SOL    HW148356   7.244   1.091   3.970 -0.2075  1.2076  0.7901
13747SOL    HW248357   7.328   1.149   3.858 -0.6021  0.8885  0.3289
13748SOL     OW48358   1.628   4.336   4.140  0.0822  0.3649 -0.2055
13748SOL    HW148359   1.644   4.359   4.232 -0.3995 -1.3011  0.3344
13748SOL    HW248360   1.710   4.297   4.110  0.2668  0.9872 -0.5109
13749SOL     OW48361   1.025  11.272  10.638  0.2729  0.0655  0.4975
13749SOL    HW148362   0.981  11.320  10.568  3.3226  0.8712 -1.0605
13749SOL    HW248363   1.027  11.332  10.712  1.1374  1.1215 -0.3479
13750SOL     OW48364  11.712   4.858   0.252  0.4430 -0.4158 -0.2674
13750SOL    HW148365  11.722   4.942   0.297  0.2764 -1.1962  1.2820
13750SOL    HW248366  11.790   4.809   0.275 -0.1487 -1.2230  0.0722
13751SOL     OW48367   5.410   5.211   4.955 -0.0495  0.1928  0.6999
13751SOL    HW148368   5.449   5.272   5.017  1.8516  0.3029 -0.5259
13751SOL    HW248369   5.335   5.258   4.918  1.1599  1.6683  0.0483
13752SOL     OW48370   2.592   3.343   0.161 -0.3808 -0.1843 -0.3977
13752SOL    HW148371   2.653   3.326   0.232  0.1248 -0.2812 -0.8438
13752SOL    HW248372   2.632   3.414   0.111 -0.3035 -0.6781 -1.0610
13753SOL     OW48373   2.914   7.556   5.299  0.3378 -0.5712 -0.1547
13753SOL    HW148374   2.895   7.598   5.215  0.8330 -2.1288 -1.0757
13753SOL    HW248375   2.844   7.491   5.310  0.7398 -0.9449  0.2374
13754SOL     OW48376   8.035   9.638  11.432 -0.3312  0.7014  0.0415
13754SOL    HW148377   7.969   9.698  11.398  0.0247  0.7952 -0.4844
13754SOL    HW248378   8.074   9.598  11.354 -0.4004 -0.0340  0.3773
13755SOL     OW48379  10.329   2.800   4.555  0.2033 -0.2116  0.2598
13755SOL    HW148380  10.412   2.842   4.531  1.7469  0.6280  5.5959
13755SOL    HW248381  10.263   2.868   4.543  0.8209  0.2184 -0.8806
13756SOL     OW48382   7.483   0.458   6.835 -0.2411  0.4464 -0.1096
13756SOL    HW148383   7.456   0.369   6.811 -2.1544  0.6648  1.0466
13756SOL    HW248384   7.460   0.512   6.759 -0.3543  0.1774 -0.2678
13757SOL     OW48385   4.425   5.111   8.685  0.0301  0.1500  0.6732
13757SOL    HW148386   4.427   5.031   8.738 -0.0565 -0.8844 -0.8476
13757SOL    HW248387   4.512   5.149   8.695  0.4239 -0.7120  0.5332
13758SOL     OW48388  12.594   2.903   9.636  0.2350  0.1987  0.4802
13758SOL    HW148389  12.571   2.944   9.720 -0.0661 -0.7417  0.8715
13758SOL    HW248390  12.515   2.911   9.583 -0.0290 -0.4151  0.7757
13759SOL     OW48391   5.229   0.554   6.464 -0.6053 -0.0986 -0.8773
13759SOL    HW148392   5.152   0.582   6.415  0.4812  3.3627 -0.8544
13759SOL    HW248393   5.295   0.619   6.444  1.2169 -0.9232  1.8929
13760SOL     OW48394  10.439   7.436   4.320 -0.0838  0.2410  0.3233
13760SOL    HW148395  10.474   7.457   4.233  0.7886 -0.1231  0.5705
13760SOL    HW248396  10.496   7.366   4.352 -1.0580 -0.3862  0.7497
13761SOL     OW48397   9.621   2.485   5.907 -0.1544  0.2265 -0.2359
13761SOL    HW148398   9.713   2.512   5.906  0.1673 -0.7763  0.3932
13761SOL    HW248399   9.588   2.514   5.992 -0.1556 -0.2439 -0.0743
13762SOL     OW48400   7.833  11.143  10.589 -0.0618  0.3335  0.2860
13762SOL    HW148401   7.838  11.047  10.590  3.2910  0.3573 -1.2067
13762SOL    HW248402   7.846  11.169  10.680  1.2552 -0.6511  0.4091
13763SOL     OW48403   0.987  10.630   9.565 -0.2864 -0.3003  0.6983
13763SOL    HW148404   0.956  10.620   9.655 -1.5060 -0.6119  0.2659
13763SOL    HW248405   0.909  10.619   9.511  0.4921 -0.5450 -0.4260
13764SOL     OW48406   0.913   2.898   1.427 -0.3227 -0.6603  0.0730
13764SOL    HW148407   0.848   2.952   1.472 -0.1233  1.0058 -1.5731
13764SOL    HW248408   0.869   2.813   1.415 -2.1473  0.3619 -0.8243
13765SOL     OW48409   6.584   2.746   8.718 -0.0541 -0.8428 -0.0643
13765SOL    HW148410   6.521   2.681   8.749 -1.1686  1.1500  2.1159
13765SOL    HW248411   6.532   2.810   8.670  0.5578 -0.0805  0.2563
13766SOL     OW48412   9.735   9.941  11.304 -0.0186  0.2239 -0.4649
13766SOL    HW148413   9.797   9.960  11.375 -1.6682 -0.2062  1.1567
13766SOL    HW248414   9.721   9.846  11.309 -2.6027  0.5957  0.8230
13767SOL     OW48415  12.296   8.203   2.721  0.3564  0.9057  0.1768
13767SOL    HW148416  12.306   8.260   2.645  1.1349 -1.0400 -1.2607
13767SOL    HW248417  12.377   8.153   2.726 -0.6991 -0.8806  0.6502
13768SOL     OW48418   4.809   3.722  11.061  0.3521  0.4990  0.0055
13768SOL    HW148419   4.767   3.651  11.109  0.4885  0.4295  0.0229
13768SOL    HW248420   4.903   3.707  11.073  0.3770  1.6931  1.5022
13769SOL     OW48421   6.605   4.633  12.398  0.1618  0.4690 -0.4867
13769SOL    HW148422   6.538   4.645  12.331 -1.0705  0.9662  0.7612
13769SOL    HW248423   6.655   4.714  12.397 -1.1887  1.3565  0.5614
13770SOL     OW48424   1.202   0.517   5.592 -0.8477  0.3144  0.2397
13770SOL    HW148425   1.269   0.450   5.606  0.7748  1.7633 -0.1097
13770SOL    HW248426   1.188   0.518   5.498 -1.3106  0.0626  0.3056
13771SOL     OW48427   0.044   6.350   4.199 -0.3564  0.4747  0.5088
13771SOL    HW148428   0.011   6.299   4.273 -0.7169  2.6675  1.9536
13771SOL    HW248429  -0.033   6.362   4.143 -0.1726 -0.8698 -0.0616
13772SOL     OW48430  12.670   8.747   8.086 -0.3754 -0.1410  0.1467
13772SOL    HW148431  12.747   8.795   8.055  0.7197 -0.1976  2.5740
13772SOL    HW248432  12.621   8.812   8.137 -0.9954 -0.5759  0.1119
13773SOL     OW48433   3.798   0.109   8.269  0.0790 -0.5269  0.1243
13773SOL    HW148434   3.758   0.023   8.271 -1.0835 -0.0193 -0.7024
13773SOL    HW248435   3.754   0.158   8.339 -0.5149 -0.0779 -0.5517
13774SOL     OW48436   4.578  12.049   6.014  0.5858  0.0981 -1.0954
13774SOL    HW148437   4.605  11.961   6.043  0.1334  0.1820 -0.3807
13774SOL    HW248438   4.583  12.046   5.919 -1.3572 -1.3562 -1.2067
13775SOL     OW48439  11.896   9.612   9.211 -0.2748  0.2967 -0.4080
13775SOL    HW148440  11.841   9.659   9.274 -0.6874  0.1409 -0.6527
13775SOL    HW248441  11.974   9.589   9.261 -0.9726 -0.5960  0.2959
13776SOL     OW48442   9.268   0.751   9.325 -0.4150 -0.2787  0.0421
13776SOL    HW148443   9.334   0.685   9.306  1.5242  1.4515  0.3412
13776SOL    HW248444   9.300   0.830   9.282 -1.7148  0.9202  1.1671
13777SOL     OW48445  11.665   8.796   4.843 -0.3606 -0.1543 -0.0661
13777SOL    HW148446  11.690   8.863   4.906 -0.1256 -0.1321 -0.1803
13777SOL    HW248447  11.574   8.776   4.863 -1.2148  1.8831 -1.4883
13778SOL     OW48448  10.883   7.515   2.312 -0.4005 -0.9115  0.1366
13778SOL    HW148449  10.856   7.464   2.388  0.0062 -0.8799  0.3062
13778SOL    HW248450  10.813   7.579   2.299 -0.6506 -1.1607  0.2531
13779SOL     OW48451   4.653   4.289  10.778  0.0185  0.2835  0.1068
13779SOL    HW148452   4.600   4.209  10.776  0.5013 -0.0250 -0.5124
13779SOL    HW248453   4.589   4.360  10.765 -0.4557  0.0277  1.0053
13780SOL     OW48454   4.000   7.627   0.351 -0.2860  0.1308  0.2269
13780SOL    HW148455   3.911   7.635   0.316 -0.5591  1.8635  1.1605
13780SOL    HW248456   3.998   7.548   0.405 -0.3207 -1.6230 -2.2089
13781SOL     OW48457   6.560  10.807   6.413 -0.8339  0.0866 -0.1076
13781SOL    HW148458   6.592  10.755   6.338 -1.6070 -1.6817  0.7325
13781SOL    HW248459   6.476  10.767   6.436 -1.0386  1.1771  1.1619
13782SOL     OW48460   1.514   5.593   1.397  0.0846 -0.1454  0.1480
13782SOL    HW148461   1.545   5.514   1.442  1.8718 -0.3553 -1.3165
13782SOL    HW248462   1.585   5.656   1.407 -0.3364  0.4776 -0.6619
13783SOL     OW48463   3.594   7.270   2.479  0.1992 -0.2650 -0.0104
13783SOL    HW148464   3.627   7.210   2.413 -0.5418  0.0105 -0.6451
13783SOL    HW248465   3.652   7.347   2.474 -0.2843  0.0512 -0.8373
13784SOL     OW48466   8.293   5.643   6.276 -0.1235 -0.2633 -0.4258
13784SOL    HW148467   8.329   5.700   6.344 -2.0754  0.9999 -0.3707
13784SOL    HW248468   8.260   5.567   6.324  2.0366 -1.3079 -0.4502
13785SOL     OW48469   1.916   7.636   6.806 -0.2093  0.3823 -0.5000
13785SOL    HW148470   1.849   7.705   6.801 -0.8344 -0.2071 -0.3211
13785SOL    HW248471   1.968   7.659   6.883 -0.0503  0.9717 -0.7735
13786SOL     OW48472  12.362   7.764   5.044  0.3401 -0.3183  0.9458
13786SOL    HW148473  12.343   7.731   4.956  0.7667 -0.0926  0.7634
13786SOL    HW248474  12.412   7.845   5.029  1.4043 -0.8764  1.3927
13787SOL     OW48475  12.377   9.743   6.889  0.3558  0.1843 -0.0290
13787SOL    HW148476  12.438   9.786   6.948 -1.0387 -0.4296  1.9757
13787SOL    HW248477  12.318   9.812   6.860  0.0529  0.2157  0.6415
13788SOL     OW48478  10.197  12.157   7.243 -0.3958  0.0921 -0.6152
13788SOL    HW148479  10.171  12.089   7.181 -2.1139 -0.8858  1.0422
13788SOL    HW248480  10.290  12.141   7.258 -0.5726 -1.3713 -0.9114
13789SOL     OW48481   1.269   6.785   4.136  0.6604  0.2104 -0.3497
13789SOL    HW148482   1.276   6.880   4.124  1.4274  0.2780  0.4558
13789SOL    HW248483   1.343   6.763   4.193  0.9231 -0.9901 -1.1213
13790SOL     OW48484   7.208   2.375  10.340  0.4784 -0.2971  0.3817
13790SOL    HW148485   7.261   2.454  10.347 -0.7276  0.4913  0.8999
13790SOL    HW248486   7.272   2.305  10.327  1.5554  0.7801 -0.3946
13791SOL     OW48487  10.200  11.415   7.290 -0.3913  0.1755 -0.4638
13791SOL    HW148488  10.150  11.350   7.339 -0.4872  1.0828  0.7188
13791SOL    HW248489  10.199  11.384   7.200 -0.3529 -1.4852  0.0762
13792SOL     OW48490   7.666   6.577  12.120  0.4774  0.6343  0.7209
13792SOL    HW148491   7.630   6.517  12.055  3.5300  0.3275 -0.8593
13792SOL    HW248492   7.672   6.524  12.200 -3.7137  1.1418  1.6194
13793SOL     OW48493   5.083   5.387  10.555 -0.0273  0.0642 -0.2936
13793SOL    HW148494   5.044   5.302  10.535  0.2910 -0.2760  0.4933
13793SOL    HW248495   5.158   5.366  10.611  0.7170  0.7818 -0.9905
13794SOL     OW48496   8.804   4.529   2.806  0.8746  0.1868 -0.4027
13794SOL    HW148497   8.772   4.484   2.884 -0.5272  0.9088 -0.5239
13794SOL    HW248498   8.725   4.544   2.754  1.6564  0.5988 -1.5012
13795SOL     OW48499   2.214   4.518   5.924 -0.4635 -0.2126 -0.2412
13795SOL    HW148500   2.176   4.474   5.848 -2.7976  1.0260  0.1133
13795SOL    HW248501   2.258   4.595   5.889 -0.1016 -0.5231 -0.4728
13796SOL     OW48502   2.881   7.379  10.073 -0.7201  0.4702 -0.0564
13796SOL    HW148503   2.896   7.286  10.058  0.6348  0.6206  0.2393
13796SOL    HW248504   2.941   7.423  10.013 -1.8910  1.1758 -0.7354
13797SOL     OW48505   4.443   8.089   4.569 -0.2866 -0.5034 -0.2775
13797SOL    HW148506   4.378   8.127   4.628 -0.1534  0.1278 -0.5240
13797SOL    HW248507   4.518   8.149   4.575 -0.0506 -0.7594 -0.6395
13798SOL     OW48508   8.513   6.197   1.440 -0.6206  0.5425 -0.2645
13798SOL    HW148509   8.455   6.269   1.415  0.8853  1.2444 -1.9047
13798SOL    HW248510   8.582   6.197   1.374  1.5926  0.1271  1.8786
13799SOL     OW48511  12.712   7.286   9.158 -0.2046  0.7400 -0.1458
13799SOL    HW148512  12.657   7.209   9.141  0.4886  0.6570 -2.3780
13799SOL    HW248513  12.678   7.354   9.099  0.8841  1.2569 -0.2139
13800SOL     OW48514   8.484   4.318   2.436  0.1254  0.4692 -0.2439
13800SOL    HW148515   8.517   4.397   2.393  0.0777  1.0992  0.8310
13800SOL    HW248516   8.389   4.328   2.435  0.1605  1.4220  1.6226
13801SOL     OW48517   8.869   8.784   6.714  0.1690 -1.2718 -0.6590
13801SOL    HW148518   8.949   8.747   6.677 -0.1672 -2.1211 -0.5506
13801SOL    HW248519   8.798   8.739   6.669 -0.2489 -1.2004 -0.0901
13802SOL     OW48520  11.180   3.702  12.128 -0.4700  0.0634 -0.1716
13802SOL    HW148521  11.165   3.718  12.035  2.0793  1.6755 -0.3891
13802SOL    HW248522  11.148   3.782  12.171 -1.1427 -0.4490  0.2994
13803SOL     OW48523   5.649   9.743  12.871  0.0005  0.0097 -0.6822
13803SOL    HW148524   5.743   9.722  12.863 -0.0527 -0.1523 -0.9057
13803SOL    HW248525   5.627   9.786  12.788  0.4384  2.3021  0.3032
13804SOL     OW48526   0.741   9.676   6.776 -0.1539 -0.2315  0.0335
13804SOL    HW148527   0.814   9.616   6.796 -1.6324 -2.5851 -1.1806
13804SOL    HW248528   0.722   9.660   6.684 -1.8908  0.7179  0.1974
13805SOL     OW48529  10.979   8.201  12.776  0.2163  0.0596  1.3870
13805SOL    HW148530  10.995   8.111  12.747 -1.1539 -0.2284  1.4621
13805SOL    HW248531  10.888   8.201  12.805 -0.7461  2.1459 -1.2390
13806SOL     OW48532   3.191   8.953   0.906 -0.2742 -0.0778  0.0756
13806SOL    HW148533   3.247   8.883   0.937  1.0903  0.7591 -0.3949
13806SOL    HW248534   3.113   8.949   0.962  0.1693 -1.3684  0.6285
13807SOL     OW48535  10.748   4.512   1.250 -0.2002 -0.2086 -0.4476
13807SOL    HW148536  10.702   4.484   1.329  0.0913  0.7563  0.0780
13807SOL    HW248537  10.680   4.551   1.196 -0.4458 -1.0896 -0.7981
13808SOL     OW48538  10.659  12.807   4.127  0.2940 -0.7938 -0.2072
13808SOL    HW148539  10.617  12.851   4.053 -0.2341 -2.2421 -0.8030
13808SOL    HW248540  10.718  12.744   4.087 -0.7078 -2.2836  0.5567
13809SOL     OW48541   6.522   7.709   2.447 -0.0856  0.3150 -0.1006
13809SOL    HW148542   6.477   7.695   2.364 -0.9736 -2.0616  0.7037
13809SOL    HW248543   6.473   7.780   2.489 -0.6269  0.4302 -0.9125
13810SOL     OW48544   3.872   5.526   3.317  0.5207  0.6938  0.3066
13810SOL    HW148545   3.959   5.511   3.281 -0.2735 -1.2599 -0.9592
13810SOL    HW248546   3.888   5.552   3.408  2.4213  0.3724  0.1084
13811SOL     OW48547   3.868   7.228   7.951  0.2489 -0.1804 -0.0634
13811SOL    HW148548   3.858   7.309   7.903 -1.3382  0.1058  0.6810
13811SOL    HW248549   3.909   7.168   7.889  0.0108  0.7292 -1.1284
13812SOL     OW48550   5.444   1.211  11.769 -0.0237 -0.0314 -0.0528
13812SOL    HW148551   5.356   1.238  11.744 -0.0520  0.2645  0.3603
13812SOL    HW248552   5.497   1.289  11.759 -0.5876  0.9742  3.5850
13813SOL     OW48553   6.042   4.395   1.863 -0.0015  0.2811 -0.2878
13813SOL    HW148554   6.098   4.458   1.908 -0.4238  0.8087 -0.4936
13813SOL    HW248555   6.102   4.327   1.831  0.8810  2.0142 -2.5997
13814SOL     OW48556  12.558   4.367   5.377  0.1596  0.0308 -0.3246
13814SOL    HW148557  12.619   4.375   5.304  0.7948  0.5364  0.2409
13814SOL    HW248558  12.481   4.322   5.340  0.0978  1.0529 -1.5165
13815SOL     OW48559   6.797   4.866  10.034 -0.5314 -0.4319  0.0344
13815SOL    HW148560   6.754   4.856  10.119 -0.6883 -0.6943 -0.0734
13815SOL    HW248561   6.856   4.791  10.029  1.1934  0.8101  0.9043
13816SOL     OW48562   7.708   6.541   4.685 -0.0100 -0.3215  0.4218
13816SOL    HW148563   7.724   6.584   4.600  1.4407  0.3748  1.0083
13816SOL    HW248564   7.777   6.575   4.742 -0.8627 -0.9082  1.8487
13817SOL     OW48565   2.247   0.267  10.398 -0.2205 -0.4923  0.0014
13817SOL    HW148566   2.327   0.223  10.369  1.1854 -0.0291  2.8715
13817SOL    HW248567   2.201   0.201  10.450 -0.2986  0.0797  0.6631
13818SOL     OW48568   9.504   4.199  12.374 -0.1710  0.2685 -0.2857
13818SOL    HW148569   9.567   4.207  12.303 -0.3084 -0.7663 -0.5436
13818SOL    HW248570   9.543   4.248  12.446  1.1190 -0.6485 -0.3266
13819SOL     OW48571   2.124   3.266   7.702 -0.2698  0.5464 -0.3074
13819SOL    HW148572   2.070   3.205   7.752  0.9957  1.3139  2.2104
13819SOL    HW248573   2.084   3.351   7.717  1.2231  1.0490  1.1429
13820SOL     OW48574   9.214  12.354   0.653 -0.1126 -0.1994 -0.6409
13820SOL    HW148575   9.130  12.386   0.619 -0.9821 -0.5461  1.0863
13820SOL    HW248576   9.250  12.428   0.701  0.0989 -0.3772 -0.5281
13821SOL     OW48577   6.295  10.198   1.780 -0.1611  0.3083  0.4248
13821SOL    HW148578   6.306  10.144   1.858  0.5576 -0.1234  0.0373
13821SOL    HW248579   6.232  10.266   1.806 -2.7516 -1.8866  0.3475
13822SOL     OW48580   4.818   9.242  10.664 -0.2251  0.3033 -0.0833
13822SOL    HW148581   4.754   9.217  10.730  1.9786  1.6873  2.8573
13822SOL    HW248582   4.797   9.333  10.643  0.4028  0.5928  0.4910
13823SOL     OW48583   6.913   8.767   8.634 -0.0287 -0.0494  0.1492
13823SOL    HW148584   6.930   8.693   8.575  1.7715 -0.2421  0.8595
13823SOL    HW248585   6.890   8.839   8.575 -0.5034 -0.8227 -0.6336
13824SOL     OW48586   4.081   3.145   7.618  0.0179 -0.2575 -0.0552
13824SOL    HW148587   4.026   3.084   7.569  1.1951 -1.3186 -0.1189
13824SOL    HW248588   4.142   3.180   7.553  0.0518  0.1556  0.1941
13825SOL     OW48589   9.096  12.450  12.675  0.3683  0.2231 -0.0680
13825SOL    HW148590   9.077  12.356  12.665  1.0544  0.0366  0.3561
13825SOL    HW248591   9.180  12.453  12.721  0.0393  1.0490  0.4962
13826SOL     OW48592   1.704   0.682   9.286  0.4900 -0.2717 -0.0922
13826SOL    HW148593   1.708   0.670   9.191 -0.2918  1.3272 -0.3746
13826SOL    HW248594   1.716   0.595   9.322  0.7016 -0.9296 -1.6692
13827SOL     OW48595   7.386  11.738   1.953 -0.4050  0.5108  0.0181
13827SOL    HW148596   7.326  11.796   1.905  0.0963  1.2480  0.2617
13827SOL    HW248597   7.382  11.655   1.905  0.2911  1.3139 -1.4991
13828SOL     OW48598   9.518   8.203  11.522  0.4993 -0.9412  0.1359
13828SOL    HW148599   9.462   8.265  11.569  2.0099  1.1279 -0.6655
13828SOL    HW248600   9.560   8.151  11.591  0.4647  0.0602  0.9249
13829SOL     OW48601  12.584   7.324   6.202 -0.6898  0.2583 -0.1823
13829SOL    HW148602  12.574   7.279   6.119  0.6673 -0.0944 -0.1743
13829SOL    HW248603  12.528   7.276   6.263 -0.2864 -0.6095 -0.4860
13830SOL     OW48604   8.153   7.130   1.521 -0.4270  0.2292 -0.5551
13830SOL    HW148605   8.229   7.142   1.464 -0.3074 -0.6007 -0.5899
13830SOL    HW248606   8.112   7.216   1.525 -0.1699  0.4086 -1.5149
13831SOL     OW48607   6.050   4.804   8.215  0.1104 -0.1310 -0.5767
13831SOL    HW148608   6.095   4.799   8.130 -0.0152  0.1099 -0.6588
13831SOL    HW248609   5.983   4.871   8.202  0.9478  0.8785  0.0983
13832SOL     OW48610   7.267   2.606  11.757 -0.2862 -0.1534  0.5680
13832SOL    HW148611   7.280   2.565  11.672  1.1436  1.4762 -0.0379
13832SOL    HW248612   7.280   2.700  11.742  0.6954  0.1156  2.6876
13833SOL     OW48613   5.030   0.145   8.174 -0.3888 -0.7358 -0.0181
13833SOL    HW148614   5.125   0.149   8.171 -0.2631 -0.8538  2.0281
13833SOL    HW248615   5.004   0.113   8.088  1.4305 -0.9746 -0.5169
13834SOL     OW48616   2.111  12.959  10.319 -0.2440 -0.1901  0.3871
13834SOL    HW148617   2.064  13.022  10.265 -1.9103 -1.3006  0.4935
13834SOL    HW248618   2.183  12.929  10.263 -2.3136 -1.8334 -1.5874
13835SOL     OW48619   7.135   5.554   9.344 -0.2487 -0.2492  0.0277
13835SOL    HW148620   7.086   5.614   9.289  0.4222 -0.0443 -0.3463
13835SOL    HW248621   7.085   5.472   9.341  0.0338 -0.3862 -1.2661
13836SOL     OW48622   6.742   9.771  11.298 -0.3474  0.6746  0.7989
13836SOL    HW148623   6.832   9.804  11.295  1.5902 -3.8758 -2.1810
13836SOL    HW248624   6.734   9.730  11.384  1.0141 -0.1067  0.5719
13837SOL     OW48625   7.392   4.790   9.009  0.0455  0.3207 -0.2853
13837SOL    HW148626   7.389   4.867   9.066  4.0418 -0.4737  1.2752
13837SOL    HW248627   7.467   4.804   8.953  0.8091 -2.3302 -0.0577
13838SOL     OW48628   9.780   7.268   0.879  0.3000  0.3919 -0.5414
13838SOL    HW148629   9.830   7.343   0.848 -0.4664  1.1263 -0.0334
13838SOL    HW248630   9.721   7.303   0.946 -0.8830 -0.4360 -1.0976
13839SOL     OW48631   6.124   6.715   0.517  0.7743  0.1744 -0.0879
13839SOL    HW148632   6.207   6.675   0.489  0.2658 -1.5131  0.7109
13839SOL    HW248633   6.063   6.693   0.446  0.9740  1.4022 -0.6669
13840SOL     OW48634   0.811   3.340  12.620  0.1906  0.8833  0.2084
13840SOL    HW148635   0.830   3.337  12.526  0.5944  2.3289  0.2053
13840SOL    HW248636   0.747   3.271  12.634  0.3309  0.4585 -1.0820
13841SOL     OW48637   9.410  12.433   1.530  0.0107  0.1344  0.4693
13841SOL    HW148638   9.350  12.503   1.557 -2.2036 -1.5232  0.1586
13841SOL    HW248639   9.476  12.478   1.478 -2.0024  1.9055 -0.7616
13842SOL     OW48640   9.956   9.396   5.664 -0.2427 -0.1539 -0.5008
13842SOL    HW148641   9.890   9.390   5.733 -1.3350  0.1352 -1.4991
13842SOL    HW248642   9.982   9.305   5.648  1.7247 -0.1102  1.8361
13843SOL     OW48643   8.405   7.891  10.561 -0.0603  0.0920  0.3305
13843SOL    HW148644   8.438   7.871  10.648 -0.8216 -2.5473  0.1039
13843SOL    HW248645   8.483   7.894  10.506  0.4178  1.6990  1.0350
13844SOL     OW48646   8.610  12.771   9.884  0.0748  0.3135 -0.1859
13844SOL    HW148647   8.543  12.822   9.839 -0.9955 -1.7309 -1.0574
13844SOL    HW248648   8.656  12.724   9.815  0.1464 -0.8938  0.6448
13845SOL     OW48649   6.264   8.824   8.073 -0.1434 -0.0905 -0.6286
13845SOL    HW148650   6.185   8.792   8.116 -0.4799  1.4863 -0.0066
13845SOL    HW248651   6.308   8.745   8.042  0.3544 -1.3925  2.9435
13846SOL     OW48652   0.664   2.477   2.266 -0.1123 -0.1084 -0.0692
13846SOL    HW148653   0.732   2.491   2.200  0.5071  0.4738  0.6740
13846SOL    HW248654   0.606   2.412   2.227  0.2457  0.2133 -1.1795
13847SOL     OW48655   1.897   0.026  11.292  0.1429 -0.1795  0.4656
13847SOL    HW148656   1.889   0.071  11.376  0.7021 -0.9559  0.9540
13847SOL    HW248657   1.894  -0.067  11.315  0.3393 -0.3988 -0.3707
13848SOL     OW48658   0.740   8.944  11.106 -0.8143 -0.1925  0.4823
13848SOL    HW148659   0.695   8.971  11.026 -1.4845  0.7321  1.1595
13848SOL    HW248660   0.781   9.024  11.139 -0.6269 -0.5448  1.1187
13849SOL     OW48661   7.086  10.878   1.936 -0.2045  0.0211 -0.6382
13849SOL    HW148662   7.070  10.910   1.847 -1.2555  1.2397 -0.0536
13849SOL    HW248663   7.118  10.789   1.925  0.1137  0.3127 -2.2479
13850SOL     OW48664   0.132   5.679   3.489 -0.5199  0.4372 -0.3937
13850SOL    HW148665   0.165   5.768   3.496  0.5310  0.1788 -1.5483
13850SOL    HW248666   0.042   5.683   3.522 -0.4646  1.9036 -0.3730
13851SOL     OW48667  12.048  12.652   1.478  0.5142  0.2644  0.1809
13851SOL    HW148668  12.126  12.707   1.464  0.9138 -0.1323  0.8213
13851SOL    HW248669  12.053  12.627   1.570  1.1942 -2.1431 -0.4288
13852SOL     OW48670   4.859   5.607   8.301  0.5107 -0.4510 -0.4000
13852SOL    HW148671   4.824   5.695   8.314 -0.5758 -0.8376 -0.5780
13852SOL    HW248672   4.809   5.552   8.361  2.8198 -0.6283  1.5184
13853SOL     OW48673   5.508  10.601   2.176 -0.0105 -0.4518  0.0750
13853SOL    HW148674   5.522  10.509   2.198  0.2621 -0.6772 -0.9691
13853SOL    HW248675   5.473  10.640   2.256  1.3179 -1.1218  1.0251
13854SOL     OW48676   8.582   2.159   4.458  1.2791 -0.1701  0.1277
13854SOL    HW148677   8.554   2.251   4.461  2.0229  0.0706 -0.0816
13854SOL    HW248678   8.525   2.120   4.392  1.2996  0.2651 -0.1548
13855SOL     OW48679   2.005   8.229   9.023 -0.0934  0.2356 -0.2670
13855SOL    HW148680   2.038   8.318   9.036  1.3949 -0.4855  1.3510
13855SOL    HW248681   2.050   8.198   8.944  0.3802  0.4829 -0.0964
13856SOL     OW48682   2.346   3.584   5.569 -0.0391 -0.3526 -0.0680
13856SOL    HW148683   2.324   3.511   5.627  0.1354  0.7692  1.4658
13856SOL    HW248684   2.285   3.576   5.496 -0.4457 -1.6551  0.4009
13857SOL     OW48685  12.322   0.269   1.618 -0.4234 -0.1478  0.0692
13857SOL    HW148686  12.280   0.332   1.677  0.2937  2.4576 -1.9700
13857SOL    HW248687  12.271   0.275   1.537 -1.2427 -3.4341  0.2316
13858SOL     OW48688  11.988   0.966   6.038  0.0345  0.2989 -0.0024
13858SOL    HW148689  11.896   0.971   6.010 -0.1540  1.5896  0.7687
13858SOL    HW248690  12.038   0.961   5.957 -0.7427 -1.6778 -0.4312
13859SOL     OW48691   9.628   2.443   9.126  0.4010  0.7061  0.0619
13859SOL    HW148692   9.678   2.506   9.074  1.1377  1.0791  1.1860
13859SOL    HW248693   9.627   2.363   9.073  1.0030  1.1190 -0.5850
13860SOL     OW48694   9.221   5.571  11.286  0.2520 -0.2844 -0.2876
13860SOL    HW148695   9.222   5.667  11.283 -0.3086 -0.2829 -0.4663
13860SOL    HW248696   9.268   5.544  11.207  1.7297 -0.1611  0.5166
13861SOL     OW48697   3.650  12.325   2.040  0.0119 -0.6992  0.2707
13861SOL    HW148698   3.620  12.284   2.121 -0.1624 -0.3023  0.4066
13861SOL    HW248699   3.570  12.344   1.991  0.0668 -0.1176  0.4032
13862SOL     OW48700   7.216   4.821   5.806  0.5991 -0.3946  0.2228
13862SOL    HW148701   7.186   4.734   5.835  0.7730 -0.7133 -0.5473
13862SOL    HW248702   7.135   4.869   5.788  0.5103 -0.4990  0.3298
13863SOL     OW48703   3.312   7.141   9.646 -0.3456  0.7150  0.1274
13863SOL    HW148704   3.241   7.077   9.654  0.4053 -0.3587 -1.3416
13863SOL    HW248705   3.385   7.103   9.695  0.3764 -0.0376 -1.4380
13864SOL     OW48706   4.844   4.759   3.968 -0.5456 -0.3439 -0.0608
13864SOL    HW148707   4.826   4.724   3.880 -1.0723  0.0048 -0.0964
13864SOL    HW248708   4.932   4.797   3.961 -0.8919  0.3690 -0.6567
13865SOL     OW48709   9.201   7.001   4.926  0.3135  0.2965  0.4769
13865SOL    HW148710   9.142   6.946   4.874 -0.2119  0.6515  0.6899
13865SOL    HW248711   9.148   7.078   4.948  1.6196  1.8728 -1.5374
13866SOL     OW48712   6.550   4.578   9.768 -0.4826  0.1803 -0.3253
13866SOL    HW148713   6.463   4.548   9.792  0.2052 -0.4016  1.6239
13866SOL    HW248714   6.605   4.500   9.771  0.2454  0.6585 -0.8116
13867SOL     OW48715  10.792   6.831  10.717 -0.1221  0.3487 -0.2562
13867SOL    HW148716  10.806   6.801  10.628 -2.9660  0.2459 -0.7843
13867SOL    HW248717  10.779   6.751  10.768 -1.7862  0.4474 -0.4698
13868SOL     OW48718   1.930   4.071   4.236  0.4318 -0.3700 -0.1717
13868SOL    HW148719   2.009   4.045   4.282 -0.3476  0.0688  1.5299
13868SOL    HW248720   1.880   4.120   4.301 -0.8514  0.1070 -1.4532
13869SOL     OW48721   7.794   2.074   0.294 -0.0285 -1.0370  0.2094
13869SOL    HW148722   7.730   2.122   0.347  0.9637  0.7591 -0.1471
13869SOL    HW248723   7.877   2.083   0.342  0.0963 -2.9906  0.4630
13870SOL     OW48724   7.055   9.535  11.561 -0.2320  0.2172  0.5637
13870SOL    HW148725   7.056   9.584  11.643 -1.3324  2.7064 -0.8088
13870SOL    HW248726   6.966   9.501  11.554  0.2208 -1.1059  0.9747
13871SOL     OW48727   4.298   0.365   2.967  0.2012  0.6289  0.1049
13871SOL    HW148728   4.339   0.418   3.035  0.0627  0.0109  0.6858
13871SOL    HW248729   4.204   0.382   2.976 -0.1554 -1.7966  2.1996
13872SOL     OW48730   5.260   3.347   9.124 -0.0748 -0.2336 -0.1423
13872SOL    HW148731   5.193   3.337   9.192 -0.4081 -2.2441 -0.7350
13872SOL    HW248732   5.296   3.435   9.140 -2.1050  0.4834  0.8322
13873SOL     OW48733   4.718   1.780   6.790  0.4490 -0.4270  0.2573
13873SOL    HW148734   4.640   1.811   6.743  1.2907  0.0859 -0.8721
13873SOL    HW248735   4.697   1.690   6.816 -0.5888 -0.2267  0.1556
13874SOL     OW48736   3.309   4.999   0.233 -0.4146  0.0464 -0.1283
13874SOL    HW148737   3.286   5.080   0.188 -2.0566 -0.8291 -0.9210
13874SOL    HW248738   3.284   5.015   0.324  1.0443  1.0790  0.1439
13875SOL     OW48739  12.761   1.517   3.160 -0.6258  0.4057 -0.1023
13875SOL    HW148740  12.678   1.480   3.130 -1.1020 -0.0772  1.7214
13875SOL    HW248741  12.821   1.442   3.161  0.2080  0.9516 -2.4854
13876SOL     OW48742   0.428  12.713   7.581  0.2186  0.2553 -0.8310
13876SOL    HW148743   0.417  12.729   7.675 -1.0994 -1.6051 -0.6028
13876SOL    HW248744   0.507  12.659   7.575 -2.5560 -4.4381 -0.0145
13877SOL     OW48745   9.429   2.523  12.243 -0.0338  0.1007 -0.2708
13877SOL    HW148746   9.455   2.611  12.216  0.6873  0.0386  0.1858
13877SOL    HW248747   9.407   2.531  12.335 -1.3022  0.0660 -0.5538
13878SOL     OW48748   5.914   1.941   3.785 -0.0028  0.1434  0.6627
13878SOL    HW148749   5.879   1.983   3.864  0.1112 -0.2208  0.9092
13878SOL    HW248750   5.841   1.890   3.750 -0.0892  0.4032  0.4629
13879SOL     OW48751   7.442   3.031   3.358  0.1623 -0.7250 -0.4227
13879SOL    HW148752   7.475   3.116   3.329 -0.1612 -0.7751 -0.9596
13879SOL    HW248753   7.512   2.969   3.336 -0.1226 -0.7795 -1.2258
13880SOL     OW48754  10.664   1.563   4.045  0.4278  0.4558  0.5922
13880SOL    HW148755  10.745   1.588   4.000 -0.6291 -0.3991 -1.9901
13880SOL    HW248756  10.613   1.644   4.049  0.1270  0.3485 -0.7259
13881SOL     OW48757   7.951  12.233   8.784  0.2393 -0.4378 -0.9141
13881SOL    HW148758   7.870  12.281   8.767 -0.3045 -0.8383  0.4345
13881SOL    HW248759   7.952  12.163   8.718 -1.9522 -2.1196  0.6779
13882SOL     OW48760   9.821   9.910   0.937  0.0306  0.0438  0.2778
13882SOL    HW148761   9.748   9.929   0.878  0.1573  0.6783  0.3192
13882SOL    HW248762   9.866   9.835   0.897  1.4857  1.8891 -1.7063
13883SOL     OW48763   9.048  12.953   5.965  0.0683  0.6696 -0.1557
13883SOL    HW148764   9.107  12.921   6.033  2.0196  2.9833 -0.6531
13883SOL    HW248765   8.964  12.911   5.985  1.4288 -1.4810  1.5350
13884SOL     OW48766   2.116   1.837   5.035  0.3320  0.0381 -0.0282
13884SOL    HW148767   2.157   1.888   4.965  1.2898 -2.4087 -1.3821
13884SOL    HW248768   2.022   1.841   5.016  0.5301 -0.0442 -1.0830
13885SOL     OW48769  11.342   6.083   1.142 -0.1220 -0.0290  0.2039
13885SOL    HW148770  11.261   6.129   1.163  0.3687 -0.3314  3.1617
13885SOL    HW248771  11.323   5.991   1.160  0.9144 -0.0678  1.2221
13886SOL     OW48772   9.130   7.889   0.971 -0.0868  0.0427  0.3846
13886SOL    HW148773   9.214   7.863   1.009 -0.3682  0.9815  1.7293
13886SOL    HW248774   9.065   7.853   1.031 -0.5661  0.9864  0.4488
13887SOL     OW48775  12.767   9.569   8.719 -0.4772  0.1822  0.7135
13887SOL    HW148776  12.737   9.566   8.810 -1.3124  0.7800  0.4682
13887SOL    HW248777  12.852   9.525   8.720 -1.1981 -1.2731  1.5006
13888SOL     OW48778   4.942  11.546   8.062  0.5581 -0.5216  0.2322
13888SOL    HW148779   4.989  11.571   8.141 -1.9404  1.9436  1.1129
13888SOL    HW248780   4.947  11.623   8.006 -1.1939 -0.6871 -0.2046
13889SOL     OW48781  11.661   3.347   7.758 -0.4060  0.3240 -0.0691
13889SOL    HW148782  11.665   3.443   7.754  1.5048  0.5748  3.6872
13889SOL    HW248783  11.574   3.328   7.794 -0.8215  0.5705 -0.8993
13890SOL     OW48784   4.073  11.069   6.057 -0.4478 -0.7863 -0.0236
13890SOL    HW148785   4.083  10.989   6.004  0.9022 -1.1625  0.7304
13890SOL    HW248786   4.163  11.101   6.068 -0.8706  0.2043  0.6522
13891SOL     OW48787   7.423   6.969   1.701 -0.0182 -0.0624  0.1165
13891SOL    HW148788   7.343   7.000   1.658  0.3711 -0.3736 -0.8550
13891SOL    HW248789   7.396   6.950   1.791 -1.2644 -1.0673 -0.4399
13892SOL     OW48790   3.435  12.635   5.984 -0.8411 -0.1958  0.2786
13892SOL    HW148791   3.427  12.556   5.930 -3.8885 -0.5776  1.0907
13892SOL    HW248792   3.418  12.707   5.924  0.9855 -0.1854 -0.2695
13893SOL     OW48793  12.876  12.374   3.621 -0.3091  0.2270  0.5101
13893SOL    HW148794  12.786  12.403   3.604 -0.5087 -0.3041  0.6387
13893SOL    HW248795  12.912  12.440   3.681 -0.3123  0.9325 -0.2559
13894SOL     OW48796   8.045   8.405   6.239 -0.1320 -0.8117  0.6148
13894SOL    HW148797   8.067   8.416   6.146 -1.6190 -1.9868  0.0975
13894SOL    HW248798   7.950   8.411   6.243 -0.1768 -1.8751  1.9042
13895SOL     OW48799   6.672   9.593  10.494  0.0263  0.3181 -1.0247
13895SOL    HW148800   6.680   9.617  10.587  0.5997 -2.1443 -0.3552
13895SOL    HW248801   6.578   9.600  10.476 -0.2260 -0.0997  0.0288
13896SOL     OW48802   9.113  11.422  11.694 -0.3587  0.2295 -0.9276
13896SOL    HW148803   9.065  11.418  11.611  0.7667  2.8391 -1.8118
13896SOL    HW248804   9.157  11.337  11.700 -0.7155 -0.1425 -2.8630
13897SOL     OW48805  12.189  11.014   8.101 -0.2516 -0.0226  0.1984
13897SOL    HW148806  12.220  11.092   8.055 -0.5038 -0.0600 -0.0372
13897SOL    HW248807  12.112  11.044   8.150  0.9211  0.4048  1.8841
13898SOL     OW48808   0.747  10.110   0.825  0.8322  0.1938  0.1788
13898SOL    HW148809   0.694  10.190   0.829  1.2779  0.4910  0.2813
13898SOL    HW248810   0.728  10.074   0.739  0.1231  0.0520  0.3858
13899SOL     OW48811   6.564   9.704   2.585  0.2612  0.1116  0.4879
13899SOL    HW148812   6.577   9.718   2.491 -2.9699 -1.2823 -0.3129
13899SOL    HW248813   6.625   9.634   2.608  0.0191 -0.6321 -0.9942
13900SOL     OW48814   6.632   8.264   6.747 -0.1688 -0.0189 -0.1638
13900SOL    HW148815   6.557   8.257   6.688 -0.5997  0.6135  0.2997
13900SOL    HW248816   6.636   8.179   6.791 -1.3866  0.3330  0.7039
13901SOL     OW48817   2.320  11.960  12.736 -0.1568  0.3459  0.1653
13901SOL    HW148818   2.283  12.045  12.714 -0.7785  0.4237  1.4031
13901SOL    HW248819   2.266  11.928  12.809  1.0822 -0.3520  0.8286
13902SOL     OW48820   4.914   7.080  10.351 -0.5603  0.1622  0.2431
13902SOL    HW148821   4.991   7.123  10.388 -0.5798  0.2647  0.1668
13902SOL    HW248822   4.840   7.130  10.385 -0.5046  1.8680 -1.9069
13903SOL     OW48823   7.614  12.459   9.762  0.6483 -0.3816 -0.0307
13903SOL    HW148824   7.638  12.381   9.812  2.8794 -0.9583 -1.7939
13903SOL    HW248825   7.668  12.529   9.798  0.0178 -0.0661  0.3254
13904SOL     OW48826   8.200   9.743   2.179  0.1237  0.0853 -0.2017
13904SOL    HW148827   8.288   9.741   2.141  0.6090 -0.0820  0.8939
13904SOL    HW248828   8.181   9.836   2.192  0.8465  0.0730  1.1063
13905SOL     OW48829   8.542   6.889   0.865 -0.5394 -0.1194  0.1037
13905SOL    HW148830   8.519   6.958   0.802  0.2172 -0.5215 -0.6312
13905SOL    HW248831   8.519   6.807   0.821 -0.7756 -0.3731  0.6890
13906SOL     OW48832   9.950   2.570   6.481  0.0974 -0.2811 -0.0139
13906SOL    HW148833   9.855   2.561   6.479 -0.0177  0.8561 -2.6044
13906SOL    HW248834   9.983   2.482   6.463 -0.5377 -0.2355 -1.5218
13907SOL     OW48835  12.695  10.548   2.048 -0.1541 -0.4695 -0.0682
13907SOL    HW148836  12.787  10.524   2.063 -0.1416  0.1184  0.8358
13907SOL    HW248837  12.696  10.592   1.963  0.1933 -1.5381 -0.6457
13908SOL     OW48838   8.389   0.439   3.599 -0.3427  0.3496  0.2927
13908SOL    HW148839   8.461   0.424   3.660 -1.2103  1.6795  1.7168
13908SOL    HW248840   8.310   0.425   3.652 -1.1559 -1.1641 -1.2523
13909SOL     OW48841   4.260   6.513   0.281  0.1232 -0.0765  0.4304
13909SOL    HW148842   4.266   6.573   0.355  0.9125  0.2109  0.1476
13909SOL    HW248843   4.268   6.426   0.320 -0.1751  0.0363  0.7516
13910SOL     OW48844   1.531   8.504  12.957  0.6881  0.5159 -0.5418
13910SOL    HW148845   1.466   8.546  13.014  1.1943 -0.4310  0.7903
13910SOL    HW248846   1.603   8.482  13.016  0.6158 -1.8403 -1.2518
13911SOL     OW48847   9.745   0.917   9.436 -0.0409 -0.0688 -0.3221
13911SOL    HW148848   9.662   0.935   9.479 -0.1174  1.1520 -0.9578
13911SOL    HW248849   9.787   0.851   9.493 -1.8164 -1.4216 -0.4878
13912SOL     OW48850   1.987   0.460   0.728 -0.2569 -0.0362  0.6234
13912SOL    HW148851   2.047   0.397   0.769  0.2416  0.6201  0.9209
13912SOL    HW248852   1.902   0.442   0.769 -0.4184 -1.3745 -0.2372
13913SOL     OW48853  10.812   9.250   4.740 -0.0730  0.3621 -0.4724
13913SOL    HW148854  10.840   9.310   4.808 -2.9272  1.0628  0.2405
13913SOL    HW248855  10.858   9.168   4.758 -0.6471  0.5644  2.2692
13914SOL     OW48856   4.590   0.563   2.849  0.8992 -0.1744 -0.3553
13914SOL    HW148857   4.523   0.571   2.918  1.3025 -1.1833  0.1741
13914SOL    HW248858   4.552   0.502   2.786  1.0322 -0.2008 -0.4092
13915SOL     OW48859   4.827   7.969   3.152 -0.2546  0.3913  0.6163
13915SOL    HW148860   4.765   7.897   3.150 -0.7276  0.8046  0.0968
13915SOL    HW248861   4.855   7.974   3.244  0.8320 -1.3007  0.4229
13916SOL     OW48862  10.085   2.479   0.166 -0.2389 -0.3037 -0.1287
13916SOL    HW148863  10.050   2.408   0.113  1.6576 -0.1065 -1.7427
13916SOL    HW248864  10.153   2.438   0.220 -1.0807 -0.2087  1.0498
13917SOL     OW48865   5.616   2.935  12.333  0.0199 -0.9916  0.2149
13917SOL    HW148866   5.593   2.855  12.379  0.6360 -0.8218  0.8321
13917SOL    HW248867   5.686   2.910  12.272  0.7512 -0.7884  0.9486
13918SOL     OW48868   2.293   4.401  11.712  0.1869 -0.0679  0.4776
13918SOL    HW148869   2.242   4.410  11.632  0.7912  1.7180  0.2443
13918SOL    HW248870   2.375   4.362  11.685  0.2851  0.2825  0.2640
13919SOL     OW48871   3.407   4.790   8.010  0.3823 -0.2287  0.1386
13919SOL    HW148872   3.386   4.758   7.922  1.1296  0.5557 -0.3322
13919SOL    HW248873   3.494   4.828   8.002 -0.3823  1.7866  0.7122
13920SOL     OW48874   1.885   7.953  11.573 -0.1544  0.2157  0.2351
13920SOL    HW148875   1.935   8.030  11.548 -0.7091 -0.1414 -2.1438
13920SOL    HW248876   1.941   7.907  11.636  1.2680  1.2461 -0.2480
13921SOL     OW48877  11.637   9.688   4.911 -0.2124 -0.3774  0.4478
13921SOL    HW148878  11.556   9.678   4.861  0.4639  0.2388 -0.8244
13921SOL    HW248879  11.699   9.725   4.849  0.9433 -0.4600  1.5082
13922SOL     OW48880   2.986  11.921  11.268  0.2544 -0.1315  0.3269
13922SOL    HW148881   3.082  11.921  11.271  0.2916  1.6378  0.6238
13922SOL    HW248882   2.963  12.014  11.276 -1.4766 -0.4939 -0.1552
13923SOL     OW48883  10.310   5.788   4.630 -1.1331 -0.1669  0.2836
13923SOL    HW148884  10.284   5.863   4.575 -1.2820 -1.4985 -1.5529
13923SOL    HW248885  10.365   5.735   4.573 -2.0673 -2.1009  1.0955
13924SOL     OW48886   6.730   6.402  10.825 -0.6461  0.0109  0.2155
13924SOL    HW148887   6.703   6.331  10.767  1.0859  0.3863 -1.1247
13924SOL    HW248888   6.669   6.398  10.899 -1.5456 -1.8576 -0.5868
13925SOL     OW48889   2.965  10.352  11.885  0.2859 -0.2040  0.3982
13925SOL    HW148890   2.936  10.320  11.971  0.8027  0.1043  0.6909
13925SOL    HW248891   3.054  10.384  11.900 -0.0370  0.9205  0.0065
13926SOL     OW48892   2.728   3.544   0.022 -0.3511  0.0497 -0.4374
13926SOL    HW148893   2.823   3.543   0.035 -0.0202  0.3947 -2.5219
13926SOL    HW248894   2.695   3.600   0.092  1.0685  0.7075 -0.2586
13927SOL     OW48895   8.017  11.805   1.794  0.1060  0.6235  0.2197
13927SOL    HW148896   7.978  11.874   1.741  1.7136  0.8459 -0.7295
13927SOL    HW248897   8.046  11.739   1.731  0.6615  0.1645  0.9423
13928SOL     OW48898   1.850   0.810   0.492 -0.0157  0.4621 -0.0119
13928SOL    HW148899   1.759   0.795   0.517  0.6690 -2.4391  1.1343
13928SOL    HW248900   1.847   0.820   0.397 -1.4926 -0.3350 -0.0837
13929SOL     OW48901   2.969   0.531   2.695  0.6598 -0.2211 -0.0203
13929SOL    HW148902   3.015   0.498   2.618  0.0934 -2.0733  0.4029
13929SOL    HW248903   2.956   0.624   2.676 -0.6447 -0.8590 -2.7746
13930SOL     OW48904  10.721   9.943   2.340 -0.3199 -0.0823 -0.0446
13930SOL    HW148905  10.689   9.852   2.343 -2.0356  0.4470 -0.9867
13930SOL    HW248906  10.782   9.944   2.265  1.1683 -0.8447  1.0970
13931SOL     OW48907   7.332   1.408   6.279  0.0705  0.3474 -0.6936
13931SOL    HW148908   7.289   1.401   6.194  1.1031 -2.7771 -1.0832
13931SOL    HW248909   7.416   1.450   6.260 -0.1795  0.7397 -0.9698
13932SOL     OW48910  10.702   4.823   3.435 -0.1461  0.0899 -0.0840
13932SOL    HW148911  10.767   4.843   3.502 -2.9885 -0.3249  3.0437
13932SOL    HW248912  10.656   4.906   3.420  0.5343  0.2174 -1.7623
13933SOL     OW48913  11.750  12.648   9.150  0.5092  0.5615 -0.1185
13933SOL    HW148914  11.787  12.737   9.152  0.2522  0.7415 -2.0259
13933SOL    HW248915  11.781  12.608   9.231  3.3856  1.3015 -0.7337
13934SOL     OW48916   2.497   4.298   5.584  0.1263 -0.0699 -0.2345
13934SOL    HW148917   2.518   4.379   5.538 -1.2528  0.1465 -0.5270
13934SOL    HW248918   2.404   4.282   5.564  0.5529 -2.1572 -0.8606
13935SOL     OW48919   4.154  11.951   3.568  0.3650 -0.8312 -0.0055
13935SOL    HW148920   4.148  11.866   3.524  1.4042 -1.9974  1.9641
13935SOL    HW248921   4.070  11.960   3.613  0.1258 -0.6527 -0.4855
13936SOL     OW48922   2.984   9.065   3.954 -0.3287  0.9348 -0.4298
13936SOL    HW148923   3.031   9.049   3.872 -0.9155  1.2211 -0.8336
13936SOL    HW248924   3.051   9.092   4.016 -0.1422  2.9133 -1.4297
13937SOL     OW48925   6.343   9.699  11.264 -0.3872 -0.3181 -0.2919
13937SOL    HW148926   6.393   9.779  11.248  1.1720 -1.4435 -1.3649
13937SOL    HW248927   6.330   9.697  11.359  1.5290  0.0726  0.0025
13938SOL     OW48928   2.589   8.183   9.012  0.5398  0.7435  0.0856
13938SOL    HW148929   2.586   8.270   8.971  0.9927  0.0390 -1.5079
13938SOL    HW248930   2.550   8.125   8.947  1.9698 -0.5369  0.3203
13939SOL     OW48931   2.910   2.908   7.904 -0.1699  0.1762 -0.1551
13939SOL    HW148932   2.983   2.945   7.856 -0.1945  3.3201  1.9706
13939SOL    HW248933   2.832   2.942   7.859 -0.2600  0.1680 -0.0048
13940SOL     OW48934   9.741   7.537   7.329 -0.2897 -0.8885 -0.1220
13940SOL    HW148935   9.804   7.489   7.274  0.7058  0.7300 -0.4539
13940SOL    HW248936   9.657   7.521   7.287  0.2465 -0.9613 -1.2266
13941SOL     OW48937   5.247   6.829   6.788 -0.6115  0.2712  0.1606
13941SOL    HW148938   5.342   6.826   6.774 -0.3116  0.3403  1.9418
13941SOL    HW248939   5.232   6.914   6.829 -1.4782  0.3416 -0.2911
13942SOL     OW48940   5.423   5.725  10.744  0.4562  0.3445  0.0111
13942SOL    HW148941   5.448   5.693  10.831 -1.8737 -0.5376  0.4202
13942SOL    HW248942   5.437   5.820  10.749  0.2200  0.3313  1.3987
13943SOL     OW48943   3.316   4.763   9.079 -0.1503 -0.4543 -0.5699
13943SOL    HW148944   3.399   4.747   9.035 -0.0521 -2.2869  0.1921
13943SOL    HW248945   3.254   4.704   9.036  0.3442 -3.7132  2.7297
13944SOL     OW48946   5.844   1.979   7.480  0.2567 -0.0225 -0.1189
13944SOL    HW148947   5.817   1.890   7.500 -0.0377 -0.1576 -1.0754
13944SOL    HW248948   5.803   2.032   7.548  0.3831 -0.5978  0.4200
13945SOL     OW48949   8.756  10.277  12.842  1.1024 -0.0145 -0.3537
13945SOL    HW148950   8.770  10.222  12.765 -0.9151  1.5025 -1.9469
13945SOL    HW248951   8.764  10.367  12.808 -1.5167  0.7417  0.7270
13946SOL     OW48952   1.461  11.363   5.950  0.7710 -0.3938 -0.6969
13946SOL    HW148953   1.379  11.386   5.994  2.0264  1.1402  1.0021
13946SOL    HW248954   1.450  11.272   5.924 -1.5038 -0.1911 -0.6264
13947SOL     OW48955   6.720  12.243   0.994 -0.3894 -0.3174  0.1702
13947SOL    HW148956   6.752  12.303   0.926  1.1224 -2.4380 -1.1054
13947SOL    HW248957   6.635  12.279   1.018  0.5067  2.4314 -0.3591
13948SOL     OW48958   8.622   8.657   2.262 -0.0183  0.2373  0.7402
13948SOL    HW148959   8.684   8.593   2.225  0.0837  0.6804  0.1422
13948SOL    HW248960   8.677   8.725   2.300 -0.0963 -0.5248  2.3465
13949SOL     OW48961  11.539  12.727   7.888 -0.2433 -0.3990  0.2008
13949SOL    HW148962  11.575  12.675   7.816  0.3096 -0.9670  0.8667
13949SOL    HW248963  11.489  12.796   7.846 -0.5849 -1.1895 -0.7216
13950SOL     OW48964   2.112   3.069   1.126  0.0778 -0.0148  0.1067
13950SOL    HW148965   2.159   3.128   1.185  1.9886  0.2159 -1.5154
13950SOL    HW248966   2.027   3.111   1.112 -0.4879 -0.1636  2.7201
13951SOL     OW48967   6.627   8.046   5.552 -0.5110  0.3202  0.0648
13951SOL    HW148968   6.554   7.998   5.591 -1.2693 -0.0201 -1.6640
13951SOL    HW248969   6.600   8.060   5.461  1.8173 -0.3249 -0.8065
13952SOL     OW48970  10.858   5.069   7.232 -0.3556 -0.2781  0.4988
13952SOL    HW148971  10.875   5.035   7.144 -1.3123  0.6372 -0.0507
13952SOL    HW248972  10.945   5.091   7.265 -0.0802  0.5567 -0.7134
13953SOL     OW48973  12.450   6.773   9.100  0.2020  0.0931  0.1329
13953SOL    HW148974  12.385   6.734   9.158  1.0729 -1.8645 -0.1082
13953SOL    HW248975  12.534   6.755   9.142  0.7674 -0.2317 -1.0934
13954SOL     OW48976   8.404  10.142  10.720 -0.2691 -0.4238 -0.1669
13954SOL    HW148977   8.332  10.197  10.687 -1.2557 -1.7145 -0.2443
13954SOL    HW248978   8.383  10.054  10.688 -0.6827 -1.5528  2.9200
13955SOL     OW48979   4.011   3.547   6.307 -0.4239  0.2047 -0.4531
13955SOL    HW148980   4.049   3.633   6.322  2.2903 -0.9128 -0.2292
13955SOL    HW248981   3.959   3.557   6.227 -0.8105  2.1796 -0.0126
13956SOL     OW48982  11.550  12.899   6.151 -0.4065  0.1692  0.0857
13956SOL    HW148983  11.624  12.946   6.189  0.0443 -0.8202  0.4709
13956SOL    HW248984  11.589  12.844   6.083 -0.2769 -2.6070  2.2479
13957SOL     OW48985   8.574  11.309   7.380 -0.3361  0.4020 -0.2948
13957SOL    HW148986   8.533  11.380   7.430 -2.1221  0.3149 -1.5404
13957SOL    HW248987   8.649  11.350   7.338  0.0312  0.9595  0.8551
13958SOL     OW48988   9.626   7.270   1.436 -0.3627 -0.1840 -0.2748
13958SOL    HW148989   9.600   7.202   1.498  1.9964  0.6970  1.8518
13958SOL    HW248990   9.629   7.350   1.488  1.7145  0.6122 -1.5079
13959SOL     OW48991   1.490   3.976  11.896  0.6656  0.0190 -0.2868
13959SOL    HW148992   1.485   3.881  11.904  0.9133 -0.0646 -1.0629
13959SOL    HW248993   1.404   4.007  11.925  0.2161 -0.5166 -1.0128
13960SOL     OW48994   7.251   9.536   6.813 -0.4389  0.0881  0.1485
13960SOL    HW148995   7.304   9.540   6.733  1.7022  1.8348  1.5503
13960SOL    HW248996   7.244   9.627   6.842 -3.7458 -0.1431  0.4127
13961SOL     OW48997  12.110   7.322   2.323 -0.1576  0.2264  0.0146
13961SOL    HW148998  12.113   7.286   2.234 -0.9122  0.9438 -0.3100
13961SOL    HW248999  12.117   7.417   2.311 -2.6927  0.5444  0.5087
13962SOL     OW49000   1.506   6.010  10.415 -0.0691  0.7788 -0.2024
13962SOL    HW149001   1.550   5.981  10.336  1.2165  0.9252  0.4396
13962SOL    HW249002   1.447   6.080  10.385 -0.1327  0.3474 -1.1200
13963SOL     OW49003   6.524   7.867   9.268  0.8217 -0.3637  0.7228
13963SOL    HW149004   6.476   7.898   9.345  0.3411 -0.3516  0.4245
13963SOL    HW249005   6.526   7.943   9.209 -0.3944 -0.8812 -0.0282
13964SOL     OW49006  12.126   3.426  12.224  0.0609  0.8865  0.2712
13964SOL    HW149007  12.093   3.478  12.150 -0.9432 -0.4887 -0.2883
13964SOL    HW249008  12.050   3.414  12.281 -0.4188 -1.9167 -0.7916
13965SOL     OW49009   0.961   3.174   3.148  0.7928 -1.0921 -0.2392
13965SOL    HW149010   0.870   3.187   3.173  0.9315  0.3352 -0.3886
13965SOL    HW249011   1.012   3.210   3.221  1.2003  0.8512 -1.4025
13966SOL     OW49012   6.287   7.283   4.814 -0.2176  0.2333 -0.0069
13966SOL    HW149013   6.225   7.215   4.842 -1.0822  1.4852  1.2256
13966SOL    HW249014   6.370   7.236   4.801 -0.8396 -1.0813  0.6147
13967SOL     OW49015   3.095   8.235  10.011 -0.0091  0.0064  0.1729
13967SOL    HW149016   3.094   8.173   9.938 -2.4172  1.3585 -1.0646
13967SOL    HW249017   3.003   8.258  10.024  0.7217  2.7939  1.0040
13968SOL     OW49018   9.786   1.056   1.708  0.1438  0.3885  0.6306
13968SOL    HW149019   9.777   0.961   1.697 -1.5494  0.3597  1.8857
13968SOL    HW249020   9.876   1.068   1.740  0.8851 -0.6124 -0.9339
13969SOL     OW49021  12.460   7.633   4.141 -0.0588  0.3320  0.2636
13969SOL    HW149022  12.467   7.625   4.046  1.0771 -0.1287  0.3694
13969SOL    HW249023  12.397   7.566   4.166 -1.3610  1.3161 -0.2778
13970SOL     OW49024   0.514  12.014   0.018  0.4500 -0.8742  0.4524
13970SOL    HW149025   0.428  11.993   0.055  0.2611  0.0536  0.5737
13970SOL    HW249026   0.515  11.973  -0.068  0.1144 -1.3812  0.6913
13971SOL     OW49027   4.575   3.830   5.508  0.5965  0.1420 -0.2683
13971SOL    HW149028   4.625   3.820   5.589  1.9292  1.1117 -0.9437
13971SOL    HW249029   4.501   3.887   5.532 -0.2920 -1.3558  0.7490
13972SOL     OW49030  10.978  10.437   9.852  0.3877 -0.4094 -0.3062
13972SOL    HW149031  11.051  10.467   9.797  2.2010 -3.9785 -0.1556
13972SOL    HW249032  10.905  10.426   9.790  1.5706 -1.6477 -1.5826
13973SOL     OW49033   5.856  11.919  11.180 -0.0891  0.2162 -0.3257
13973SOL    HW149034   5.822  12.007  11.195  1.3554  0.6925  0.3534
13973SOL    HW249035   5.915  11.928  11.105  0.8981  0.0816  0.4136
13974SOL     OW49036  12.098   6.143   7.819  0.1640  0.1074 -0.2512
13974SOL    HW149037  12.173   6.088   7.842 -0.9806 -0.9455  1.1906
13974SOL    HW249038  12.136   6.225   7.787  1.9695  0.5466  2.7113
13975SOL     OW49039  11.401  11.259   9.840 -0.3327 -0.3852  0.4607
13975SOL    HW149040  11.422  11.203   9.914  1.0121 -0.0247  0.3779
13975SOL    HW249041  11.326  11.216   9.797  0.7140 -2.1793  0.3322
13976SOL     OW49042  12.847   7.755   6.144 -0.4489 -0.3542  1.0922
13976SOL    HW149043  12.796   7.682   6.108 -0.0715  0.3887 -1.1305
13976SOL    HW249044  12.898   7.717   6.215 -1.5836 -1.8443  1.1471
13977SOL     OW49045   8.171   0.006  12.258  0.2914  0.5169 -0.6066
13977SOL    HW149046   8.229   0.016  12.183 -0.1000  0.1455 -0.9619
13977SOL    HW249047   8.097  -0.046  12.226 -0.2671  1.0170 -0.1722
13978SOL     OW49048   5.839   2.582   6.623 -0.0086 -0.0156  0.2711
13978SOL    HW149049   5.835   2.506   6.681  1.9278 -0.4223 -0.0539
13978SOL    HW249050   5.850   2.657   6.682 -1.2834 -0.0511  0.5629
13979SOL     OW49051   7.679   2.011   0.811 -0.1311  0.6698 -0.3413
13979SOL    HW149052   7.599   2.060   0.791 -0.4595 -0.1100 -0.9683
13979SOL    HW249053   7.688   1.949   0.739  1.3093  1.0694 -0.5324
13980SOL     OW49054   7.430  12.372   3.075 -0.1074  0.1157 -0.5029
13980SOL    HW149055   7.411  12.394   3.167 -0.2032  1.3813 -0.7985
13980SOL    HW249056   7.350  12.330   3.043 -0.8950  1.6037 -0.5800
13981SOL     OW49057   1.980   1.657   1.415 -0.2855 -0.1474 -0.7239
13981SOL    HW149058   2.026   1.729   1.458 -1.5431  0.2537 -0.0316
13981SOL    HW249059   2.050   1.594   1.395  0.8145  1.1370 -1.1679
13982SOL     OW49060   1.845  12.780   9.848  0.0202 -0.4649  0.6690
13982SOL    HW149061   1.786  12.853   9.865  0.2971 -0.2148  0.5725
13982SOL    HW249062   1.788  12.705   9.831 -0.2894  0.0074 -0.4669
13983SOL     OW49063   8.162   0.745  10.597  0.1044 -0.2204  0.0320
13983SOL    HW149064   8.189   0.665  10.551  0.4307 -0.3272  0.3994
13983SOL    HW249065   8.211   0.815  10.554  1.0372 -0.4198  0.7324
13984SOL     OW49066   5.257  10.833  12.074  0.3078 -0.1906  0.5135
13984SOL    HW149067   5.164  10.846  12.093 -0.4666  1.2764 -3.3988
13984SOL    HW249068   5.294  10.921  12.071  1.2239 -0.5831 -0.4443
13985SOL     OW49069   6.576   1.539   9.346  0.2908 -0.5118  0.0502
13985SOL    HW149070   6.496   1.541   9.399  0.1889  0.0368 -0.1198
13985SOL    HW249071   6.636   1.598   9.391  0.3209 -0.3024 -0.2647
13986SOL     OW49072   0.830   9.848  12.798 -0.1048 -0.2821 -0.1866
13986SOL    HW149073   0.837   9.895  12.715 -0.1757 -0.5451 -0.3427
13986SOL    HW249074   0.748   9.879  12.836 -1.5590 -2.1933 -1.5163
13987SOL     OW49075   3.288   5.402   5.652 -0.1212 -0.3637  0.5221
13987SOL    HW149076   3.256   5.385   5.741  2.1501  0.7991  1.6436
13987SOL    HW249077   3.343   5.325   5.632  1.7029  0.6378  1.3766
13988SOL     OW49078   6.557   6.033  11.995  0.0897 -0.1568 -0.4392
13988SOL    HW149079   6.606   6.038  11.914 -0.4591 -0.5179 -0.7990
13988SOL    HW249080   6.553   5.940  12.015  0.0323 -0.0860 -0.1131
13989SOL     OW49081  12.843   2.347   9.777  0.0349  0.5491  0.1830
13989SOL    HW149082  12.937   2.366   9.770 -0.3154  1.9208 -1.4063
13989SOL    HW249083  12.838   2.252   9.774  1.5211  0.2543  3.1631
13990SOL     OW49084   4.962  11.341   0.301  0.3996 -0.0882 -0.2684
13990SOL    HW149085   5.033  11.309   0.244  0.2816  0.5421 -0.7837
13990SOL    HW249086   5.006  11.364   0.383  0.9291  0.9736 -0.8212
13991SOL     OW49087   0.240   0.447   4.870  0.5012  0.0471  0.0531
13991SOL    HW149088   0.237   0.519   4.932  0.6893  0.1212 -0.0243
13991SOL    HW249089   0.323   0.458   4.824  0.2810  0.0926 -0.3327
13992SOL     OW49090   1.861   3.625   3.593  0.3730  0.4457  0.7529
13992SOL    HW149091   1.841   3.532   3.600 -0.1322  0.5829  1.2328
13992SOL    HW249092   1.906   3.646   3.675  2.9952  0.0483 -0.4868
13993SOL     OW49093  11.867   6.500  12.108 -0.0450 -0.1220  0.0011
13993SOL    HW149094  11.903   6.525  12.023 -0.3080 -1.7240 -0.6323
13993SOL    HW249095  11.941   6.505  12.168  0.3140  0.3513 -0.4720
13994SOL     OW49096   4.156   5.510   4.525 -0.1354 -0.4369 -0.5621
13994SOL    HW149097   4.203   5.567   4.586 -1.6700 -1.0166  1.2404
13994SOL    HW249098   4.199   5.526   4.440  3.3669 -1.0120  0.9158
13995SOL     OW49099   3.303   4.848   0.969 -0.1134  0.5470  0.4819
13995SOL    HW149100   3.245   4.924   0.964 -0.8118 -0.0204 -0.3653
13995SOL    HW249101   3.244   4.773   0.964  0.4353 -0.0961  2.6643
13996SOL     OW49102   7.826   4.617   4.227  0.3575  0.5285 -0.0073
13996SOL    HW149103   7.824   4.711   4.208  0.0101  0.8609  1.5229
13996SOL    HW249104   7.735   4.595   4.247  0.6127  0.1384  0.7800
13997SOL     OW49105   5.308   5.586   4.892  0.0229 -0.0981  0.3744
13997SOL    HW149106   5.278   5.665   4.937  0.1373 -0.1123  0.4758
13997SOL    HW249107   5.346   5.532   4.961  0.2371 -0.1015  0.2556
13998SOL     OW49108   9.952   7.780   9.811  0.1217 -0.8088  0.1231
13998SOL    HW149109   9.876   7.726   9.790 -0.7573 -0.3687  1.9405
13998SOL    HW249110  10.017   7.718   9.845 -0.6733 -0.8475  1.6608
13999SOL     OW49111   8.739  10.371   3.095  0.4168 -1.0455 -0.3152
13999SOL    HW149112   8.711  10.287   3.057 -0.7090 -1.0142  0.3847
13999SOL    HW249113   8.686  10.380   3.174 -0.4238  0.9238 -1.0257
14000SOL     OW49114   7.901   6.647   0.916  0.5934  0.5375 -0.1819
14000SOL    HW149115   7.996   6.640   0.907  0.7863  2.5192 -0.2351
14000SOL    HW249116   7.887   6.730   0.962 -1.0727 -0.6676  1.6620
14001SOL     OW49117   4.824   4.355   9.115  0.3635  0.5725 -0.3950
14001SOL    HW149118   4.765   4.397   9.052  0.6055  0.1710 -0.9020
14001SOL    HW249119   4.841   4.423   9.181  1.7686  1.7286 -1.8721
14002SOL     OW49120   1.273   3.920   1.252 -0.3233  0.0686 -0.8058
14002SOL    HW149121   1.190   3.915   1.301  0.3491  1.2402  0.5385
14002SOL    HW249122   1.257   3.870   1.172 -1.0382 -3.2828  1.2355
14003SOL     OW49123   6.428  10.445   4.079 -0.1184 -0.2949  0.2149
14003SOL    HW149124   6.468  10.472   4.161 -0.3699  1.2348 -0.1384
14003SOL    HW249125   6.346  10.403   4.105  0.4464 -1.0599  0.7975
14004SOL     OW49126   7.284   0.194   3.968 -0.4910  0.7541  0.7022
14004SOL    HW149127   7.212   0.202   4.030 -0.8358  0.5365  0.3365
14004SOL    HW249128   7.297   0.100   3.958  0.1124  0.7904  1.0653
14005SOL     OW49129  11.960  10.348   1.859  0.0534 -0.5125  0.2446
14005SOL    HW149130  12.024  10.394   1.805  0.2747 -1.3584 -0.2260
14005SOL    HW249131  11.882  10.404   1.855 -0.3922 -1.1723 -2.0836
14006SOL     OW49132   6.837  12.553   9.621  0.3733 -0.2505  0.4332
14006SOL    HW149133   6.770  12.603   9.575 -0.2201 -2.0479 -0.7553
14006SOL    HW249134   6.827  12.579   9.713 -1.7052 -0.1652  0.2323
14007SOL     OW49135   0.801   4.210   6.284  0.0562  0.4456 -0.6051
14007SOL    HW149136   0.765   4.180   6.367 -0.4098 -0.4203 -1.1103
14007SOL    HW249137   0.838   4.132   6.244  2.6577  1.2864 -0.0706
14008SOL     OW49138   0.456   0.662   6.936  0.0017  0.1729  0.4645
14008SOL    HW149139   0.381   0.609   6.909  1.8516 -2.1059 -0.5305
14008SOL    HW249140   0.517   0.658   6.863  0.6855  2.9371  0.7569
14009SOL     OW49141  12.730   5.059   1.072  0.1342 -0.0680  0.5528
14009SOL    HW149142  12.664   4.992   1.055 -0.7407  1.3223 -2.0001
14009SOL    HW249143  12.800   5.012   1.117 -1.1406 -2.3063  0.3659
14010SOL     OW49144   9.133   7.518   9.701 -0.3578  0.5248  0.3075
14010SOL    HW149145   9.065   7.580   9.729 -0.1906  0.1436  1.6558
14010SOL    HW249146   9.120   7.508   9.607 -2.5346  0.0751  0.5966
14011SOL     OW49147   6.439   6.919   0.064 -0.3019 -0.4059  0.0911
14011SOL    HW149148   6.482   7.000   0.091  0.1016 -0.9897  1.2573
14011SOL    HW249149   6.361   6.948   0.016 -0.1869  0.6669  0.5337
14012SOL     OW49150  11.753  11.808   3.954 -0.6079  0.1008 -0.1224
14012SOL    HW149151  11.681  11.848   3.907  0.5291 -0.9572 -3.0191
14012SOL    HW249152  11.828  11.866   3.938 -0.2701 -0.0844  0.7367
14013SOL     OW49153   1.560   1.223   0.515  0.2727  0.7431  0.2402
14013SOL    HW149154   1.596   1.146   0.560 -1.6072  0.0283  0.6171
14013SOL    HW249155   1.486   1.250   0.569 -0.3888  1.5163 -0.9967
14014SOL     OW49156   4.461   6.113   3.550  0.4059  0.0205 -0.3028
14014SOL    HW149157   4.498   6.198   3.573  0.7734 -0.1766 -0.1543
14014SOL    HW249158   4.368   6.121   3.571  0.6928 -0.1096  1.1487
14015SOL     OW49159   2.466   1.314   2.307 -0.0811  0.0706  0.1927
14015SOL    HW149160   2.432   1.265   2.382 -1.5643  1.3291  0.3652
14015SOL    HW249161   2.395   1.314   2.243  0.7761 -0.0380 -0.7955
14016SOL     OW49162   9.271   4.849  11.037  0.4111 -0.1009  0.1682
14016SOL    HW149163   9.311   4.873  11.121  0.4578 -0.0764  0.1383
14016SOL    HW249164   9.206   4.782  11.061 -0.0876  0.4279  0.3150
14017SOL     OW49165   2.186   8.727   4.124 -0.0366 -0.0526 -0.0685
14017SOL    HW149166   2.163   8.706   4.214 -1.0677 -2.2463 -0.7609
14017SOL    HW249167   2.273   8.768   4.130 -1.1567  2.2671  2.0755
14018SOL     OW49168   8.498   1.998  12.134  0.1204 -0.1333  0.1780
14018SOL    HW149169   8.580   2.013  12.087 -0.9115  0.3028 -1.5731
14018SOL    HW249170   8.476   1.906  12.115  0.3643 -0.3516  0.9261
14019SOL     OW49171   9.770  10.435  12.456 -0.3519 -0.1284  0.2103
14019SOL    HW149172   9.800  10.526  12.449  2.3491 -1.0502 -1.9849
14019SOL    HW249173   9.790  10.411  12.547  0.1262  1.0674  0.4483
14020SOL     OW49174   8.217  11.637  11.017 -0.1483  0.3027 -0.3702
14020SOL    HW149175   8.231  11.612  10.925  1.0528 -0.1567 -0.0799
14020SOL    HW249176   8.141  11.586  11.044  0.6326 -1.0184 -0.5735
14021SOL     OW49177   9.859   1.771   4.502  0.0636  0.0525 -0.2920
14021SOL    HW149178   9.867   1.676   4.512  0.6642  0.1715  0.3830
14021SOL    HW249179   9.901   1.808   4.579 -2.3783  0.8312  0.7827
14022SOL     OW49180   4.470   6.724   6.154 -0.1530 -0.7272  0.3035
14022SOL    HW149181   4.475   6.629   6.157 -0.0780 -0.7151  0.7366
14022SOL    HW249182   4.526   6.753   6.227 -1.7106 -0.4094  1.4387
14023SOL     OW49183   5.736   8.777   6.853 -0.3579  0.2331  0.0641
14023SOL    HW149184   5.718   8.761   6.760 -1.0737  0.1740  0.2078
14023SOL    HW249185   5.660   8.741   6.898  0.9493 -1.6574  0.8338
14024SOL     OW49186   1.651   5.308   5.380  0.2400 -0.7319  0.4509
14024SOL    HW149187   1.642   5.213   5.375  0.6778 -0.7497 -0.0710
14024SOL    HW249188   1.643   5.339   5.290  0.4497 -0.3085  0.5706
14025SOL     OW49189   0.752   9.707   1.296 -0.3108  0.0381  0.5094
14025SOL    HW149190   0.716   9.687   1.210  1.2418  1.1683 -0.4453
14025SOL    HW249191   0.776   9.621   1.332 -0.9169 -0.4399 -0.1908
14026SOL     OW49192  11.092   4.682  10.932  0.0411 -0.0583  0.0511
14026SOL    HW149193  11.154   4.706  11.000 -0.0218 -2.3397  1.0311
14026SOL    HW249194  11.146   4.663  10.855  0.1768  1.7781 -0.3368
14027SOL     OW49195   6.861  10.996  11.974 -0.2948 -0.4567  0.2219
14027SOL    HW149196   6.799  11.037  11.913  0.0458 -1.1837 -0.6314
14027SOL    HW249197   6.947  11.029  11.947 -0.0762 -1.2901 -0.1290
14028SOL     OW49198   0.693   0.101  12.104 -0.2272  0.5928  0.1623
14028SOL    HW149199   0.654   0.035  12.161 -0.3201  1.1400  0.7501
14028SOL    HW249200   0.770   0.132  12.153  1.4453 -1.0204 -1.3131
14029SOL     OW49201   7.192   9.720  11.760 -0.2440  0.3758 -0.1624
14029SOL    HW149202   7.193   9.718  11.856  0.1544  0.3174 -0.1674
14029SOL    HW249203   7.268   9.668  11.734  0.0391  0.9519 -0.5012
14030SOL     OW49204   4.609   3.979   7.161 -0.3009 -0.4779 -0.9898
14030SOL    HW149205   4.617   4.071   7.135  0.2779 -0.2422 -0.0304
14030SOL    HW249206   4.695   3.957   7.197 -0.9353 -0.8847  0.3482
14031SOL     OW49207   8.349   7.549   0.908  0.1201 -0.3139  0.1635
14031SOL    HW149208   8.368   7.516   0.821 -0.3544 -0.3134  0.0550
14031SOL    HW249209   8.421   7.519   0.963 -0.5992 -2.0634  0.2032
14032SOL     OW49210   6.427  12.733   8.117 -0.0997  0.4056 -0.1308
14032SOL    HW149211   6.344  12.709   8.076 -0.2543  2.3177 -1.0559
14032SOL    HW249212   6.406  12.807   8.174  1.0347  1.3440 -0.8657
14033SOL     OW49213  11.956   9.470   7.658  0.0645  0.4971  0.0319
14033SOL    HW149214  11.944   9.529   7.732 -0.3104 -0.4317  0.7349
14033SOL    HW249215  11.976   9.527   7.584 -0.3676  1.4966  0.6705
14034SOL     OW49216   7.461  10.106   9.722 -0.4683  0.5608 -0.0671
14034SOL    HW149217   7.470  10.125   9.628  1.6465  0.3231  0.0245
14034SOL    HW249218   7.454  10.192   9.763  1.7216  0.8964 -0.2462
14035SOL     OW49219   4.882   5.821   2.697 -0.3595  0.0253 -0.0904
14035SOL    HW149220   4.822   5.746   2.704  0.4906 -0.6971 -0.3541
14035SOL    HW249221   4.921   5.828   2.784  0.1581 -0.3580 -0.2875
14036SOL     OW49222  10.807   8.558   3.365 -0.7407 -0.3230 -0.5341
14036SOL    HW149223  10.752   8.491   3.405 -1.0880  0.5344  0.4762
14036SOL    HW249224  10.744   8.616   3.320 -0.8211  1.1942  1.4076
14037SOL     OW49225  11.520   6.722   8.566  0.4733 -0.3779 -0.1531
14037SOL    HW149226  11.584   6.653   8.553  0.4364 -1.1051  2.8294
14037SOL    HW249227  11.572   6.800   8.587  0.4530 -0.4834  0.3068
14038SOL     OW49228   4.232   5.746  11.538 -0.5288  0.2846  0.3170
14038SOL    HW149229   4.188   5.681  11.592  2.0212 -1.7014  0.2133
14038SOL    HW249230   4.310   5.771  11.589  0.2658  0.7707 -1.0618
14039SOL     OW49231   4.143   8.532   7.502  0.2525 -0.1384  0.0985
14039SOL    HW149232   4.172   8.609   7.453  0.4974 -0.9613 -1.0921
14039SOL    HW249233   4.221   8.502   7.549  0.2952  0.0220  0.1288
14040SOL     OW49234  10.629  12.281   5.014  0.2488  0.1899 -0.2627
14040SOL    HW149235  10.714  12.264   4.972  0.9877  0.4840  1.0535
14040SOL    HW249236  10.651  12.303   5.105 -1.2943 -0.4020  0.2910
14041SOL     OW49237   7.718   5.000   7.441  0.1414  0.0950  0.7739
14041SOL    HW149238   7.722   5.094   7.458  0.7733  0.5136 -1.3869
14041SOL    HW249239   7.808   4.976   7.419 -0.1959 -0.8065  0.3135
14042SOL     OW49240   3.431   6.798   0.153 -0.7711  0.0087 -0.2606
14042SOL    HW149241   3.410   6.863   0.220 -1.1349 -0.1456 -0.2194
14042SOL    HW249242   3.428   6.846   0.070 -1.0861  0.0368 -0.2348
14043SOL     OW49243  11.237   4.463   2.123 -0.0630  0.2061  0.1732
14043SOL    HW149244  11.262   4.397   2.187 -0.6151 -1.8762 -1.6550
14043SOL    HW249245  11.280   4.437   2.042 -0.8895  1.6818 -0.7936
14044SOL     OW49246   0.466   5.275  10.962 -0.1088 -0.9026  0.5835
14044SOL    HW149247   0.384   5.235  10.991 -0.5310 -0.8687 -0.5105
14044SOL    HW249248   0.518   5.202  10.931  0.1733 -0.8895  1.0153
14045SOL     OW49249   0.259  12.236   7.728 -0.0149  0.1258  0.0308
14045SOL    HW149250   0.311  12.207   7.803 -0.6228 -1.3066 -0.0638
14045SOL    HW249251   0.324  12.264   7.663  0.5009  1.8298  1.2353
14046SOL     OW49252  10.520   6.863   4.379  0.1956  0.2618 -0.4246
14046SOL    HW149253  10.532   6.849   4.285  0.8551  1.2560 -0.4970
14046SOL    HW249254  10.457   6.935   4.384 -1.3541 -1.0451 -0.0684
14047SOL     OW49255   3.975   6.539   3.055 -0.0633  0.1757  0.1364
14047SOL    HW149256   3.966   6.596   2.978 -0.6906 -0.0561  0.0297
14047SOL    HW249257   3.968   6.451   3.019 -0.9823  0.0746  0.5271
14048SOL     OW49258  10.804  11.482  10.703  0.4481 -0.0943 -0.3748
14048SOL    HW149259  10.888  11.523  10.682  0.1479  0.0980 -1.2115
14048SOL    HW249260  10.793  11.414  10.638  0.8810 -1.4740  0.9410
14049SOL     OW49261  11.213   0.955   7.804  0.2704 -0.0966 -0.4462
14049SOL    HW149262  11.220   0.919   7.716 -1.1413  0.8804 -0.9979
14049SOL    HW249263  11.119   0.951   7.824  0.3871  0.9910  0.4235
14050SOL     OW49264   8.024   6.580   0.052  0.2946  0.4075  0.4676
14050SOL    HW149265   8.040   6.550  -0.037  0.7563 -1.7201  1.2015
14050SOL    HW249266   7.933   6.609   0.053  0.1220 -0.0918 -0.5414
14051SOL     OW49267   2.297  10.703   0.447  0.0441  0.1050  0.4166
14051SOL    HW149268   2.335  10.628   0.491 -0.7604 -0.6780 -0.1834
14051SOL    HW249269   2.282  10.674   0.357  2.1034  1.8276 -0.5603
14052SOL     OW49270   8.102   3.507   0.733  0.4369  0.1087  0.2340
14052SOL    HW149271   8.131   3.422   0.766  0.5671  0.1050  0.1091
14052SOL    HW249272   8.179   3.544   0.690  0.2813  0.1376 -0.0216
14053SOL     OW49273   7.305   1.048   1.203 -0.4325  0.0176 -0.1982
14053SOL    HW149274   7.389   1.077   1.238 -0.7891 -0.3550  1.0532
14053SOL    HW249275   7.275   0.981   1.265 -2.6533  1.6794  0.7171
14054SOL     OW49276   5.996   6.481   3.105  0.3693 -0.0591 -0.4674
14054SOL    HW149277   6.078   6.519   3.135 -1.6841  1.3170  4.5032
14054SOL    HW249278   5.940   6.557   3.086 -1.6219 -0.4606  2.8672
14055SOL     OW49279   9.447   0.568   7.391  0.7426 -0.1726  0.0032
14055SOL    HW149280   9.433   0.649   7.342  1.5216 -0.8987 -1.5134
14055SOL    HW249281   9.467   0.596   7.480 -0.8739  1.1965 -0.0289
14056SOL     OW49282   1.449   1.584   4.242  0.4021  0.4159 -0.0971
14056SOL    HW149283   1.432   1.513   4.304 -0.3643 -0.1322 -0.9084
14056SOL    HW249284   1.422   1.548   4.157 -0.3873  1.8152 -0.4627
14057SOL     OW49285   6.718   2.763  10.436 -0.6318  0.3112  0.1895
14057SOL    HW149286   6.641   2.764  10.494 -0.0881  1.0502  0.9386
14057SOL    HW249287   6.790   2.786  10.494 -0.0231  0.7893 -0.7443
14058SOL     OW49288   8.328  12.462   4.770  0.2911 -0.4602  0.2772
14058SOL    HW149289   8.382  12.389   4.739 -0.5887 -1.4164  0.9355
14058SOL    HW249290   8.382  12.504   4.838  0.3865 -1.1658  0.6559
14059SOL     OW49291   7.735   0.626   2.008  0.0811 -0.3263 -0.6204
14059SOL    HW149292   7.815   0.658   2.049  0.4881 -3.0944  1.0077
14059SOL    HW249293   7.721   0.539   2.046 -4.4412  0.5150  0.2080
14060SOL     OW49294   1.005   1.382  10.292 -0.1081  0.2160 -0.5458
14060SOL    HW149295   0.925   1.382  10.239 -1.6344  2.2979  1.5305
14060SOL    HW249296   0.976   1.361  10.380  1.9821 -0.8386 -0.0468
14061SOL     OW49297   4.722   7.804   8.810 -0.0337 -0.3838 -0.1378
14061SOL    HW149298   4.633   7.837   8.824 -0.0722 -1.1720  1.7753
14061SOL    HW249299   4.713   7.741   8.739 -1.2340 -1.2172  0.7058
14062SOL     OW49300   2.165   0.023   9.855  0.0592 -0.6459  0.2394
14062SOL    HW149301   2.118  -0.008   9.778  0.3597 -0.9808  0.1858
14062SOL    HW249302   2.097   0.052   9.915 -0.3012 -2.3163  0.6804
14063SOL     OW49303   3.614   0.087   8.021  0.4857 -0.3381 -0.5550
14063SOL    HW149304   3.612   0.120   8.111 -1.4610 -0.5842 -0.4729
14063SOL    HW249305   3.527   0.050   8.007 -0.2759  2.1877 -3.4536
14064SOL     OW49306  12.775  11.634  10.856  0.2328 -0.0390  0.1482
14064SOL    HW149307  12.796  11.547  10.890  1.0995  0.4492  0.9010
14064SOL    HW249308  12.842  11.651  10.791 -0.2660 -0.1568 -0.4027
14065SOL     OW49309   7.373   1.799   4.935 -0.3564  0.3101  0.2488
14065SOL    HW149310   7.322   1.808   4.855 -1.6150 -0.0527  0.9874
14065SOL    HW249311   7.391   1.889   4.962  0.9284  0.4404 -0.9427
14066SOL     OW49312   4.599   3.149  11.239  0.0614 -0.2313 -0.8390
14066SOL    HW149313   4.601   3.202  11.319  0.9338  0.0213 -1.0205
14066SOL    HW249314   4.555   3.068  11.264 -0.8425  0.3708 -0.4284
14067SOL     OW49315  10.518   6.550  12.685  0.3178  0.1456 -0.1433
14067SOL    HW149316  10.457   6.610  12.728 -0.5945 -0.5323 -0.4620
14067SOL    HW249317  10.466   6.473  12.664  1.2239 -0.3470 -0.6699
14068SOL     OW49318   4.185   5.831   3.340 -0.0100  0.4764  0.2447
14068SOL    HW149319   4.278   5.821   3.360  0.6501  0.6310 -2.3436
14068SOL    HW249320   4.140   5.781   3.408  2.0435 -0.9391  0.6548
14069SOL     OW49321   8.250   1.572   2.340  0.4416 -0.0200 -0.2649
14069SOL    HW149322   8.269   1.664   2.320  1.3028  0.2055  1.4144
14069SOL    HW249323   8.225   1.572   2.432 -2.3164 -1.1240 -0.9069
14070SOL     OW49324   9.507  12.362  12.964 -1.0757 -0.0835  0.6599
14070SOL    HW149325   9.438  12.405  12.913 -0.9203  0.3492  0.8099
14070SOL    HW249326   9.467  12.346  13.050 -1.2662 -0.6138  0.4733
14071SOL     OW49327   6.390   7.127  10.966 -0.1328  0.5682  0.2728
14071SOL    HW149328   6.413   7.039  10.994  1.5198  0.3170 -1.6022
14071SOL    HW249329   6.418   7.184  11.038 -0.2753 -0.3660  1.0720
14072SOL     OW49330   9.397   7.594   0.739  0.0912  0.5783 -0.4732
14072SOL    HW149331   9.417   7.551   0.656  1.7824 -0.1179  0.2727
14072SOL    HW249332   9.336   7.665   0.715  0.4840  0.3385 -2.2792
14073SOL     OW49333  12.289   4.714   9.413  0.3705 -0.1565  0.0077
14073SOL    HW149334  12.317   4.783   9.475  1.7553 -0.0044 -0.7450
14073SOL    HW249335  12.351   4.721   9.340 -1.9048  0.4433 -1.9845
14074SOL     OW49336   1.077   9.875   5.486 -0.1605 -0.4567  0.4141
14074SOL    HW149337   1.054   9.966   5.508 -1.2598  0.2320 -2.9709
14074SOL    HW249338   1.127   9.882   5.405  1.5390 -2.8244  1.1531
14075SOL     OW49339  10.907   5.947   1.059 -0.2086 -0.6165 -0.7224
14075SOL    HW149340  10.884   5.856   1.077 -1.0019 -0.3420 -0.3147
14075SOL    HW249341  10.921   5.986   1.145  1.1340 -0.5868 -0.9241
14076SOL     OW49342   6.637   5.572   4.459 -0.1461  0.9432  0.3470
14076SOL    HW149343   6.613   5.499   4.516 -0.2434  1.7315  1.3437
14076SOL    HW249344   6.587   5.646   4.493  1.7178  2.0348  0.8543
14077SOL     OW49345  10.513   1.211   3.038 -0.3778 -0.3180  0.2693
14077SOL    HW149346  10.485   1.171   2.955 -0.1650  0.9248 -0.4384
14077SOL    HW249347  10.464   1.294   3.042  0.2832  0.0520  0.9421
14078SOL     OW49348  10.966   8.304   3.499 -0.1029 -0.3800  0.2842
14078SOL    HW149349  11.013   8.387   3.507  0.9419 -1.1074  2.4327
14078SOL    HW249350  10.874   8.329   3.490  0.2473  1.0098  0.4330
14079SOL     OW49351  11.817   3.073   0.216  0.3224 -0.3564  0.4309
14079SOL    HW149352  11.775   3.128   0.150  2.4119  1.3863  0.4504
14079SOL    HW249353  11.853   3.000   0.167 -0.7086 -0.6598  0.1033
14080SOL     OW49354   5.000  12.042   6.353 -0.1502 -0.5838  0.3184
14080SOL    HW149355   5.094  12.033   6.372 -0.0852 -0.4924  0.0504
14080SOL    HW249356   4.997  12.066   6.260 -0.3901  0.7176  0.6420
14081SOL     OW49357   2.744  11.199   2.577  0.3843 -0.3025  0.4693
14081SOL    HW149358   2.722  11.200   2.670 -0.2625  1.7937  0.3296
14081SOL    HW249359   2.673  11.247   2.534  1.7887  0.7042 -0.8381
14082SOL     OW49360   0.266   8.170  12.503 -0.0135 -0.1365  0.0389
14082SOL    HW149361   0.177   8.171  12.467 -0.3629 -2.0017  0.7848
14082SOL    HW249362   0.298   8.082  12.486  1.8923  0.6304 -0.6089
14083SOL     OW49363  10.613   2.333   4.620  0.3503  0.4623  0.0279
14083SOL    HW149364  10.617   2.265   4.552 -1.4977  1.2045 -0.9040
14083SOL    HW249365  10.702   2.369   4.623  0.8615 -0.6497 -0.8656
14084SOL     OW49366   0.515   3.868   7.749  0.2744  0.0002 -0.2542
14084SOL    HW149367   0.451   3.889   7.817 -0.4219 -1.7504 -0.3410
14084SOL    HW249368   0.597   3.856   7.797 -0.2729 -1.5063  0.3463
14085SOL     OW49369   6.425   9.539  12.908  0.1425 -0.0869 -0.3367
14085SOL    HW149370   6.354   9.477  12.924  0.2230  0.2305  1.5333
14085SOL    HW249371   6.412   9.569  12.818 -0.7081 -1.7615 -0.8017
14086SOL     OW49372   6.261   1.097   4.094 -0.4049 -0.1443  0.0744
14086SOL    HW149373   6.345   1.063   4.062 -0.5759 -0.5207  0.0133
14086SOL    HW249374   6.242   1.044   4.171 -0.6213 -0.1115  0.0448
14087SOL     OW49375   7.849   0.266  10.296  0.2106 -0.4734 -0.5395
14087SOL    HW149376   7.852   0.239  10.388  0.8704 -0.8700 -0.6788
14087SOL    HW249377   7.770   0.321  10.291  0.0337 -0.6408  0.2073
14088SOL     OW49378  11.528   8.512   9.113 -0.4528 -0.2151 -0.1226
14088SOL    HW149379  11.545   8.425   9.077 -0.8662  0.8446 -3.1474
14088SOL    HW249380  11.433   8.521   9.111 -0.5160 -0.1071  1.4493
14089SOL     OW49381   0.702   1.135   9.667 -0.0704 -0.2249 -0.0980
14089SOL    HW149382   0.719   1.190   9.743  0.8865 -2.6036  1.5399
14089SOL    HW249383   0.623   1.086   9.689 -0.2781 -0.3350 -1.0357
14090SOL     OW49384   8.506   1.873   2.378 -0.2090  0.4818 -0.4093
14090SOL    HW149385   8.507   1.967   2.398  1.0768  0.4296 -0.1486
14090SOL    HW249386   8.569   1.835   2.439 -1.6011 -0.7427  0.3266
14091SOL     OW49387  12.535   5.077   5.870 -0.0574  0.2970  0.3693
14091SOL    HW149388  12.470   5.142   5.896  1.2518  2.1253 -0.7327
14091SOL    HW249389  12.619   5.118   5.891  0.8112 -0.9654 -0.5292
14092SOL     OW49390   8.136   7.875   2.067  1.0170 -0.3210  0.3953
14092SOL    HW149391   8.181   7.838   1.991 -0.2533  0.7570 -0.9420
14092SOL    HW249392   8.198   7.940   2.101  1.4072 -0.4700 -0.0141
14093SOL     OW49393   2.614   9.099   6.234  0.0555  0.2647  0.1997
14093SOL    HW149394   2.669   9.121   6.159 -0.7513 -0.0687 -0.5204
14093SOL    HW249395   2.650   9.017   6.267  0.5616  0.5362  0.3189
14094SOL     OW49396   5.647   8.474   4.970 -0.2331 -0.3545 -0.6401
14094SOL    HW149397   5.607   8.475   5.057  0.8916 -1.6738 -0.0634
14094SOL    HW249398   5.686   8.560   4.960 -3.5837  1.2488 -1.4806
14095SOL     OW49399   9.868  12.056   4.075  0.3662  0.1328 -0.0195
14095SOL    HW149400   9.893  12.074   4.166  2.8363 -0.0262 -0.5988
14095SOL    HW249401   9.802  12.122   4.055  2.0964  2.2741  0.9372
14096SOL     OW49402   1.525  12.654   7.395 -0.4299  0.2132  0.0422
14096SOL    HW149403   1.497  12.670   7.485  0.5235 -0.8809  0.5414
14096SOL    HW249404   1.444  12.630   7.349 -0.4469 -2.6601  1.4061
14097SOL     OW49405   1.860   4.586   7.334  0.4535 -0.2784  0.2713
14097SOL    HW149406   1.944   4.589   7.379  1.0440  0.8115 -0.8414
14097SOL    HW249407   1.859   4.501   7.290 -0.5502 -1.7937  2.9938
14098SOL     OW49408   3.703   4.448   9.276 -0.3367 -0.0087  0.0871
14098SOL    HW149409   3.712   4.368   9.225 -1.3594  0.6129 -1.1518
14098SOL    HW249410   3.613   4.478   9.258 -0.2788  0.9437  1.2282
14099SOL     OW49411  11.901   7.468   4.572  0.2777  0.1464 -0.4490
14099SOL    HW149412  11.976   7.468   4.513  0.4262  0.1436 -0.2603
14099SOL    HW249413  11.835   7.416   4.527  0.9009 -1.0945  0.0338
14100SOL     OW49414   9.022   1.323   1.058  0.1936 -0.0641 -0.2236
14100SOL    HW149415   9.039   1.375   0.980 -0.0877  0.6177  0.1546
14100SOL    HW249416   9.105   1.280   1.077  0.5413  0.5402 -0.3357
14101SOL     OW49417   1.251   4.082   4.148  0.1070 -0.5375  0.3367
14101SOL    HW149418   1.302   4.095   4.068 -0.2075 -0.3388  0.1674
14101SOL    HW249419   1.161   4.071   4.118  0.0129 -0.6458  0.6520
14102SOL     OW49420   0.166   9.819   2.422 -0.5617  0.4459 -0.6706
14102SOL    HW149421   0.102   9.750   2.439  0.3739 -0.1407  0.6834
14102SOL    HW249422   0.114   9.897   2.404 -1.6372 -0.1185 -0.0858
14103SOL     OW49423   6.811   3.900   8.406  0.0278  0.1068 -0.3758
14103SOL    HW149424   6.817   3.992   8.431 -0.3137  0.5544 -1.8261
14103SOL    HW249425   6.871   3.855   8.465 -2.9024  0.5526  3.3686
14104SOL     OW49426   2.960  10.904   8.392 -0.0413  0.5176  0.0085
14104SOL    HW149427   2.896  10.834   8.381  0.6535  0.0142 -1.0561
14104SOL    HW249428   2.928  10.955   8.466 -0.8220 -0.6403  0.4970
14105SOL     OW49429   9.562   6.917   5.282 -0.0012  0.1588 -0.0046
14105SOL    HW149430   9.519   6.991   5.240 -1.4942 -0.1063  0.9880
14105SOL    HW249431   9.576   6.854   5.211  1.3721  1.3908 -0.8728
14106SOL     OW49432   2.212   8.469   7.481 -0.4649  0.5978 -0.2621
14106SOL    HW149433   2.260   8.389   7.460 -3.2095 -0.5785 -2.6483
14106SOL    HW249434   2.209   8.518   7.399 -3.2293  0.5918 -0.2534
14107SOL     OW49435   0.389   0.083   7.192  0.2255  0.4869 -0.0660
14107SOL    HW149436   0.316   0.108   7.136 -0.6806 -1.5160  0.1647
14107SOL    HW249437   0.353   0.020   7.254  1.6271  1.1986  1.5941
14108SOL     OW49438   0.958   6.269   0.557  0.2985  0.3347 -0.0465
14108SOL    HW149439   0.882   6.213   0.574 -0.2301  1.0980  0.1667
14108SOL    HW249440   1.031   6.208   0.546 -0.3287 -0.4079 -0.1703
14109SOL     OW49441  11.038   0.478   6.807  0.4027  0.5928  0.0779
14109SOL    HW149442  10.995   0.402   6.768  0.4183  0.1171  0.9607
14109SOL    HW249443  11.126   0.448   6.829  0.7154  1.1383 -0.3953
14110SOL     OW49444   9.064  12.567   9.694  0.2397 -0.1694 -0.2675
14110SOL    HW149445   9.024  12.565   9.781 -2.4343  0.8270 -1.3748
14110SOL    HW249446   9.150  12.608   9.708 -1.0048  2.0497  1.5965
14111SOL     OW49447   5.912   0.899   1.771  0.5211 -0.5877  0.2623
14111SOL    HW149448   5.979   0.968   1.776  0.9525 -1.0565  1.4492
14111SOL    HW249449   5.939   0.836   1.838 -0.8949 -0.9915  0.4707
14112SOL     OW49450  12.916   3.708   2.998 -0.3155 -0.5143 -0.8860
14112SOL    HW149451  12.870   3.741   3.076  1.2371 -1.2929  0.4116
14112SOL    HW249452  12.979   3.644   3.033  1.4411  0.1856 -2.6232
14113SOL     OW49453   6.706   1.890   4.192 -0.2300  0.3610  0.2659
14113SOL    HW149454   6.761   1.824   4.149 -0.0679 -0.1004  1.1559
14113SOL    HW249455   6.621   1.881   4.149 -0.5553 -1.2729  1.1713
14114SOL     OW49456  12.012  10.643  11.483 -0.2339  0.2314  0.4460
14114SOL    HW149457  12.063  10.567  11.454 -1.0523 -0.1241 -0.1058
14114SOL    HW249458  12.049  10.717  11.434 -1.1497 -0.2514 -1.0581
14115SOL     OW49459   6.177   3.044   6.290  0.0557 -0.1964  0.3133
14115SOL    HW149460   6.166   2.959   6.333 -2.5929 -0.6045 -0.9886
14115SOL    HW249461   6.089   3.067   6.258  1.3653  1.3184 -2.5510
14116SOL     OW49462   0.114  11.890   4.437 -0.6846 -0.0551 -0.1546
14116SOL    HW149463   0.168  11.855   4.508 -1.1552 -1.3272 -0.3949
14116SOL    HW249464   0.103  11.983   4.458  1.5296  0.2293 -0.0726
14117SOL     OW49465   3.123   5.247   3.728 -0.3190  0.5719 -0.0137
14117SOL    HW149466   3.050   5.265   3.669 -0.1013  0.3051 -0.3727
14117SOL    HW249467   3.155   5.162   3.699  0.4137  0.8897 -0.1532
14118SOL     OW49468   1.920   1.258  10.808 -0.3622  0.5296  0.0296
14118SOL    HW149469   1.997   1.309  10.834  0.3165  0.0930 -1.0610
14118SOL    HW249470   1.846   1.303  10.849  0.4394  1.1092  0.8806
14119SOL     OW49471  12.517   3.342   8.420  0.0900 -0.3340 -0.3510
14119SOL    HW149472  12.524   3.430   8.455  0.5048 -0.3676 -0.3468
14119SOL    HW249473  12.438   3.306   8.460 -0.6316  0.3673 -1.0868
14120SOL     OW49474   5.729   1.733   3.671 -0.1437  0.1447  0.3146
14120SOL    HW149475   5.705   1.646   3.641  0.9855 -0.3160  0.7090
14120SOL    HW249476   5.646   1.782   3.671 -0.9365 -1.1449  0.8647
14121SOL     OW49477   5.937   3.956  11.723  0.3390 -0.5008 -0.3370
14121SOL    HW149478   5.982   3.940  11.807 -0.6234  0.3506  0.3600
14121SOL    HW249479   5.926   3.869  11.685 -0.2821 -1.0291  0.9936
14122SOL     OW49480   9.693   4.675  12.680 -0.2164  0.0089  0.1788
14122SOL    HW149481   9.674   4.682  12.773 -0.1188  0.3655  0.1720
14122SOL    HW249482   9.637   4.604  12.649 -0.2968 -0.0659  0.4940
14123SOL     OW49483   6.971   2.512   5.124 -0.6373 -0.8469  0.3667
14123SOL    HW149484   7.037   2.528   5.056 -0.9825  0.2535  0.2616
14123SOL    HW249485   6.917   2.441   5.089 -0.1476 -1.0376 -0.0114
14124SOL     OW49486   9.002   5.428   5.826  0.0649 -0.4847 -0.3755
14124SOL    HW149487   8.966   5.484   5.757 -1.0737  0.1895  0.7371
14124SOL    HW249488   9.060   5.368   5.779 -3.4120 -2.5308 -2.5446
14125SOL     OW49489  10.912   4.041   2.254  0.0856  0.1366  0.1075
14125SOL    HW149490  10.905   3.964   2.197 -0.7369  1.8410 -2.2363
14125SOL    HW249491  10.822   4.066   2.272  0.2296  2.1348 -1.5434
14126SOL     OW49492   6.812   9.961   3.297  0.2474  0.5554 -0.4564
14126SOL    HW149493   6.812   9.873   3.334 -1.8729  1.1308  1.0913
14126SOL    HW249494   6.816   9.947   3.202 -1.1301 -1.2828 -0.3069
14127SOL     OW49495   6.568   0.813  11.792 -0.1095  0.5142 -0.0937
14127SOL    HW149496   6.656   0.845  11.810 -0.5223  0.9384  1.2951
14127SOL    HW249497   6.532   0.792  11.878 -1.3182  0.2066 -0.6535
14128SOL     OW49498   0.831   2.660   1.819 -0.4429 -0.4698 -0.2818
14128SOL    HW149499   0.773   2.721   1.774 -0.7745 -0.5903 -0.0157
14128SOL    HW249500   0.880   2.617   1.749 -0.7115 -0.4079 -0.5082
14129SOL     OW49501  10.739   0.519   8.260  0.7280 -0.1705 -0.0157
14129SOL    HW149502  10.830   0.544   8.244  1.0157 -1.1608  0.0328
14129SOL    HW249503  10.740   0.424   8.264 -0.4094 -0.2328 -0.6247
14130SOL     OW49504   4.021   9.246   0.721  0.3017  0.4720  0.3054
14130SOL    HW149505   3.952   9.189   0.756 -0.8963  1.3362 -0.5521
14130SOL    HW249506   4.071   9.190   0.662 -0.3131  0.0866  0.1432
14131SOL     OW49507   4.132  11.003   1.907 -0.5005  0.4472  0.4213
14131SOL    HW149508   4.145  11.087   1.862  0.5475  0.0927  0.0228
14131SOL    HW249509   4.058  10.962   1.860 -1.1053  1.1912  0.7074
14132SOL     OW49510   6.401   2.551   8.746 -0.1566  0.0102 -0.6406
14132SOL    HW149511   6.306   2.567   8.748 -0.1974 -0.2735  0.5625
14132SOL    HW249512   6.412   2.469   8.793  0.8919  1.2867  1.5042
14133SOL     OW49513   6.402   7.534   3.466 -0.1269 -0.7880 -0.4036
14133SOL    HW149514   6.469   7.603   3.472 -1.7026  0.6806  2.4028
14133SOL    HW249515   6.428   7.470   3.533 -2.8446  1.2928  3.0044
14134SOL     OW49516   1.469  11.397   2.757 -0.1682  0.1222 -0.1859
14134SOL    HW149517   1.504  11.423   2.671  0.1308  0.5577  0.0629
14134SOL    HW249518   1.390  11.450   2.767 -0.1273  0.1724 -0.1306
14135SOL     OW49519  11.210   4.882   7.540  0.3881 -0.3221  0.0182
14135SOL    HW149520  11.131   4.880   7.594  0.1730  1.2356 -0.1839
14135SOL    HW249521  11.279   4.847   7.596 -0.0782  0.0788  0.8656
14136SOL     OW49522   9.255  10.758   9.109 -0.0538 -0.2928  0.3427
14136SOL    HW149523   9.160  10.771   9.101 -0.4027 -2.9830 -1.0490
14136SOL    HW249524   9.293  10.822   9.050 -0.8539  1.8900  2.0746
14137SOL     OW49525   3.410   4.581   2.565 -0.2784 -0.0992 -0.1702
14137SOL    HW149526   3.343   4.649   2.553  1.6434  1.6711 -1.9576
14137SOL    HW249527   3.397   4.522   2.491 -1.1018 -0.9277  0.6233
14138SOL     OW49528   8.227   5.516   6.707  0.4457  0.6296  0.1564
14138SOL    HW149529   8.142   5.485   6.676 -1.0510  1.3068  3.2214
14138SOL    HW249530   8.233   5.606   6.675  0.8008  0.0859 -1.3976
14139SOL     OW49531   4.716   0.558   1.624  0.1387 -0.5619  0.0842
14139SOL    HW149532   4.768   0.480   1.602  0.6273 -0.6054  1.3258
14139SOL    HW249533   4.634   0.545   1.577  1.2522 -0.4480 -2.0002
14140SOL     OW49534  12.552   1.763   7.108  0.9333 -0.0209  0.0717
14140SOL    HW149535  12.502   1.845   7.113 -0.6260 -0.9504  0.3275
14140SOL    HW249536  12.644   1.791   7.111  0.4455  1.7351 -0.2350
14141SOL     OW49537  11.888   9.647   3.143  0.1043 -0.1097  0.0117
14141SOL    HW149538  11.910   9.714   3.208  2.4229 -0.9874  0.2206
14141SOL    HW249539  11.811   9.682   3.097 -0.0759  1.6614  1.5598
14142SOL     OW49540   2.411   2.530   3.825  0.4095 -0.0808  0.5381
14142SOL    HW149541   2.363   2.447   3.827 -0.3210  0.3231  1.9204
14142SOL    HW249542   2.486   2.516   3.883  0.7768 -0.0484  0.0720
14143SOL     OW49543   4.403   0.947  12.252 -0.0555 -0.2224 -0.0945
14143SOL    HW149544   4.421   0.868  12.202 -0.2361 -0.0426 -0.4515
14143SOL    HW249545   4.475   1.006  12.230 -0.5846  0.1702 -0.8236
14144SOL     OW49546  10.327  11.146   3.285  0.9541 -0.6965 -0.3272
14144SOL    HW149547  10.273  11.092   3.342  0.6231  0.2548  0.2873
14144SOL    HW249548  10.276  11.226   3.272  2.4716  0.5105  0.8010
14145SOL     OW49549   5.210   2.003   8.755  0.4467  0.0300  0.7500
14145SOL    HW149550   5.133   1.949   8.737  1.3102 -0.5295 -1.7238
14145SOL    HW249551   5.181   2.063   8.823 -2.1490 -0.2631  0.0424
14146SOL     OW49552  12.320   4.872   9.904 -0.3375 -0.7948  0.1551
14146SOL    HW149553  12.350   4.866   9.995 -0.1112 -1.2350  0.0495
14146SOL    HW249554  12.342   4.788   9.865  0.1850 -0.3624 -0.5011
14147SOL     OW49555   3.053   8.362   9.311  0.3057  0.3958 -0.1976
14147SOL    HW149556   2.977   8.306   9.292 -0.8449  1.8986 -0.2086
14147SOL    HW249557   3.020   8.451   9.303  1.7617  1.1026  1.1203
14148SOL     OW49558   0.582  11.017   2.884 -0.8308  0.0783 -0.0980
14148SOL    HW149559   0.582  10.924   2.858  1.7330  0.2716 -1.0831
14148SOL    HW249560   0.536  11.061   2.813  0.2947 -0.1730 -1.0150
14149SOL     OW49561   1.185  11.741   4.301  0.4915 -0.0814  0.7930
14149SOL    HW149562   1.105  11.780   4.336 -0.8427 -0.7808 -1.3491
14149SOL    HW249563   1.183  11.651   4.333 -0.2578 -0.4576 -0.2621
14150SOL     OW49564   5.071   0.362   5.611  0.5986 -0.0941 -0.0711
14150SOL    HW149565   5.127   0.348   5.535 -0.0907 -1.3971 -0.3850
14150SOL    HW249566   5.001   0.297   5.601  0.6164 -0.4617  1.7869
14151SOL     OW49567   2.887  10.735   6.159 -0.4814  0.5108 -0.0188
14151SOL    HW149568   2.939  10.702   6.087 -1.0084  1.0105 -0.6429
14151SOL    HW249569   2.838  10.809   6.121 -2.1729 -0.3803  0.3559
14152SOL     OW49570  12.145   8.346   1.414 -0.2602  0.1634  0.2301
14152SOL    HW149571  12.153   8.373   1.506  1.9563  0.4009  0.0140
14152SOL    HW249572  12.234   8.350   1.380 -0.7733 -1.5566 -1.4929
14153SOL     OW49573   6.186  11.938   0.839  0.1473  0.2597 -0.1461
14153SOL    HW149574   6.112  11.959   0.782 -0.0928  0.3298  0.1839
14153SOL    HW249575   6.169  11.849   0.868  0.5269  0.0468 -0.5732
14154SOL     OW49576   9.077   0.742   5.633 -0.3154 -0.2097 -0.7956
14154SOL    HW149577   9.050   0.797   5.706  0.3083 -0.8836 -0.0381
14154SOL    HW249578   9.004   0.681   5.621 -0.4703 -0.0210 -0.8206
14155SOL     OW49579  12.284   2.445   2.027 -0.0044  0.2791 -0.2204
14155SOL    HW149580  12.360   2.395   2.058 -0.4846 -0.5343 -0.3249
14155SOL    HW249581  12.275   2.516   2.090  1.3506  0.8995 -0.6711
14156SOL     OW49582  12.895   0.693  12.410  0.0764 -0.0148 -0.1589
14156SOL    HW149583  12.902   0.788  12.406 -0.5650  0.0359 -0.2002
14156SOL    HW249584  12.981   0.661  12.384 -0.0023  0.5366 -1.1362
14157SOL     OW49585  12.820  12.595   0.769 -0.2626  0.1400  0.1057
14157SOL    HW149586  12.910  12.607   0.736 -0.0474 -1.6539 -0.0408
14157SOL    HW249587  12.788  12.684   0.781  1.6287  0.8407  0.4078
14158SOL     OW49588   1.251   6.213   1.730 -0.0050  0.2850  0.3868
14158SOL    HW149589   1.228   6.125   1.760 -0.3477 -0.4264 -1.7644
14158SOL    HW249590   1.208   6.221   1.644  1.2078  2.0092 -0.1159
14159SOL     OW49591  12.401   8.261   1.331 -0.2819  0.1182 -0.3965
14159SOL    HW149592  12.418   8.249   1.237 -1.6041 -3.4349 -0.3343
14159SOL    HW249593  12.360   8.179   1.358 -2.1533  1.9207  2.8226
14160SOL     OW49594  10.626   4.739  12.046 -0.0945 -0.1830  0.0557
14160SOL    HW149595  10.700   4.793  12.019  0.6521 -1.0343  0.3537
14160SOL    HW249596  10.560   4.801  12.076  0.1040  0.6380 -1.1552
14161SOL     OW49597   1.067   2.967   2.778  0.2117  0.2547  0.3646
14161SOL    HW149598   1.136   2.993   2.838  0.9815  1.2041 -0.8686
14161SOL    HW249599   1.075   2.872   2.771  1.8942  0.4088 -0.2833
14162SOL     OW49600   1.309   9.366   6.974 -0.3733  0.7318 -0.4171
14162SOL    HW149601   1.271   9.279   6.984 -0.5512  0.8807  0.1921
14162SOL    HW249602   1.264   9.421   7.038 -0.5477  1.3701 -1.0635
14163SOL     OW49603   9.441   6.161  11.305  0.1336  0.2680  0.1166
14163SOL    HW149604   9.536   6.174  11.310  0.1115  0.1747  0.8873
14163SOL    HW249605   9.408   6.195  11.388 -0.5982  1.0355 -0.4792
14164SOL     OW49606  10.219   3.200   5.314  0.4340 -0.4878 -0.6191
14164SOL    HW149607  10.161   3.123   5.319  0.5375 -0.5768 -0.7638
14164SOL    HW249608  10.191   3.256   5.386  0.1553 -0.5224 -0.6989
14165SOL     OW49609   8.668  10.567   8.635  0.4531 -0.1669 -0.0761
14165SOL    HW149610   8.746  10.518   8.610  0.7252 -0.6379  1.5683
14165SOL    HW249611   8.657  10.632   8.565  1.1257 -1.3897 -1.3690
14166SOL     OW49612  11.174   2.204  10.375  0.4014  0.1472  0.5581
14166SOL    HW149613  11.196   2.125  10.326  0.0196 -1.2332  2.5237
14166SOL    HW249614  11.160   2.174  10.465  0.0436  2.4252  1.3225
14167SOL     OW49615   2.424   1.363   0.169  0.2491  0.3859 -0.1589
14167SOL    HW149616   2.440   1.376   0.263 -0.7511 -1.7581  0.3616
14167SOL    HW249617   2.488   1.296   0.143 -0.9194 -0.6398 -0.4687
14168SOL     OW49618  10.916   0.258   6.163 -0.3588 -0.4505 -0.2199
14168SOL    HW149619  10.922   0.263   6.068 -0.6264 -3.0147 -0.4373
14168SOL    HW249620  10.843   0.200   6.180 -0.3172 -0.0431  1.5726
14169SOL     OW49621   9.621   1.888   9.317 -0.2142 -0.0712  0.5214
14169SOL    HW149622   9.615   1.798   9.284 -2.0082  0.8275 -1.8993
14169SOL    HW249623   9.697   1.887   9.376  2.3037 -2.2939 -2.4123
14170SOL     OW49624   9.403   5.279   2.395 -0.2895  0.5148  0.2066
14170SOL    HW149625   9.451   5.197   2.385  1.4463  1.4859  0.0228
14170SOL    HW249626   9.355   5.269   2.477  1.0931 -0.1493  0.9851
14171SOL     OW49627   3.059   0.582   9.721  0.5480 -0.7522  0.3776
14171SOL    HW149628   2.977   0.583   9.670  0.3165  0.7527  0.7420
14171SOL    HW249629   3.079   0.489   9.731  0.3523 -1.1140 -2.0436
14172SOL     OW49630  10.172   0.583   4.084 -0.4636 -0.0489  1.0856
14172SOL    HW149631  10.125   0.629   4.014  2.3049  2.2770  0.5501
14172SOL    HW249632  10.220   0.652   4.130  0.1410 -1.8893  3.4333
14173SOL     OW49633   8.565   6.121   1.721 -0.7180  0.2329  0.7437
14173SOL    HW149634   8.484   6.070   1.726  0.9565 -2.9371 -1.3585
14173SOL    HW249635   8.563   6.160   1.633 -0.2245  0.6484  0.9116
14174SOL     OW49636   3.436   1.951   8.840  0.0272  0.3160 -0.2454
14174SOL    HW149637   3.446   2.020   8.774  0.4987  1.2114  0.7359
14174SOL    HW249638   3.355   1.974   8.886 -0.9792 -1.0062 -1.2970
14175SOL     OW49639   0.079   5.900  11.347  0.5363  0.1785 -0.1256
14175SOL    HW149640   0.102   5.900  11.440  2.8525  1.7772 -0.6117
14175SOL    HW249641   0.085   5.809  11.321 -2.1800 -0.6457  1.6502
14176SOL     OW49642  12.337   1.904  11.272 -0.9092 -0.0868 -0.4222
14176SOL    HW149643  12.334   1.815  11.237  0.8514  0.0753 -1.1184
14176SOL    HW249644  12.300   1.958  11.203 -0.4477 -0.1178 -0.6991
14177SOL     OW49645  10.885  10.064   4.977 -0.4958  0.5790  0.1797
14177SOL    HW149646  10.902   9.989   4.920 -2.5942  0.3543 -0.2593
14177SOL    HW249647  10.957  10.124   4.960  0.5431 -0.7780 -0.4341
14178SOL     OW49648   3.312   8.444   7.282 -0.2053  0.4542  0.0712
14178SOL    HW149649   3.406   8.438   7.298  0.1736  1.1081 -1.6381
14178SOL    HW249650   3.279   8.355   7.298  1.0539 -0.2805 -1.1372
14179SOL     OW49651  11.220   0.576   3.060  0.3715  0.0443 -0.2829
14179SOL    HW149652  11.162   0.649   3.039 -0.9080 -0.5431  1.0368
14179SOL    HW249653  11.307   0.604   3.030 -0.5275  1.0418 -2.1014
14180SOL     OW49654  12.725   2.841  12.653  0.1105  0.6195 -0.3494
14180SOL    HW149655  12.648   2.884  12.689  0.2713  0.0698  0.6711
14180SOL    HW249656  12.796   2.905  12.667 -0.0023  0.7906 -0.5507
14181SOL     OW49657  12.555   8.121  11.541 -0.0431 -0.5630  0.3326
14181SOL    HW149658  12.548   8.214  11.564 -0.5264 -0.6337  0.4821
14181SOL    HW249659  12.602   8.120  11.458 -0.8127 -0.1312 -0.1117
14182SOL     OW49660   4.285   2.116  12.479 -0.0535  0.2735 -0.5472
14182SOL    HW149661   4.227   2.048  12.445  1.2209 -1.7783  1.1205
14182SOL    HW249662   4.329   2.152  12.402 -0.9852 -0.5654 -1.4871
14183SOL     OW49663   1.687  12.776  11.345  0.4826 -0.1892  0.3801
14183SOL    HW149664   1.759  12.745  11.400  0.3185  1.3801  1.5295
14183SOL    HW249665   1.652  12.852  11.391 -0.9174  0.0226 -0.9459
14184SOL     OW49666   7.935  12.896  10.896  0.0360  0.0505 -0.0283
14184SOL    HW149667   7.889  12.909  10.978  0.4337  0.1713  0.1769
14184SOL    HW249668   8.006  12.836  10.917 -1.4045 -2.0969 -0.8249
14185SOL     OW49669   4.053   5.439   0.272  0.6179  0.0236 -0.3154
14185SOL    HW149670   3.989   5.506   0.295  0.0208 -0.4237 -0.6511
14185SOL    HW249671   4.038   5.422   0.179 -1.4175 -2.8106  0.3794
14186SOL     OW49672   3.421   5.362   8.514 -0.1283 -0.0747 -0.0751
14186SOL    HW149673   3.381   5.359   8.428 -0.9600 -2.1300  0.3219
14186SOL    HW249674   3.451   5.272   8.530 -1.0226 -0.0456  2.2107
14187SOL     OW49675   7.740  12.452  11.485 -0.1260  0.0003  0.0427
14187SOL    HW149676   7.647  12.471  11.487 -0.0002  0.5961  0.3703
14187SOL    HW249677   7.747  12.363  11.519 -0.5515  0.0391  0.2346
14188SOL     OW49678  12.311  11.807   4.298 -0.4084  0.6336 -0.3459
14188SOL    HW149679  12.264  11.865   4.357 -0.7990  1.3333 -1.3300
14188SOL    HW249680  12.374  11.864   4.254 -0.2640  0.1597 -0.7586
14189SOL     OW49681   8.497  12.751   2.769  0.0724 -0.0807 -0.1248
14189SOL    HW149682   8.548  12.832   2.771  1.0747 -0.7038  1.5643
14189SOL    HW249683   8.407  12.780   2.757  0.6141  1.1626 -1.3927
14190SOL     OW49684   4.830  11.116   5.563  0.7000  0.8304  0.7633
14190SOL    HW149685   4.793  11.201   5.539  0.8238  1.0489  1.3253
14190SOL    HW249686   4.767  11.079   5.625 -1.4908 -1.3101 -2.4271
14191SOL     OW49687   8.881  11.232  11.537 -0.4765  0.2700 -0.2370
14191SOL    HW149688   8.822  11.210  11.464 -1.1718  1.9164 -0.2263
14191SOL    HW249689   8.956  11.274  11.495 -0.0713 -0.3203 -0.1169
14192SOL     OW49690  12.540   7.472   0.332 -0.1898 -0.1013  0.0988
14192SOL    HW149691  12.502   7.559   0.322  0.3393  0.0353 -0.8105
14192SOL    HW249692  12.574   7.450   0.245  0.5606 -0.8036  0.5568
14193SOL     OW49693   0.446  10.117   6.558  0.2350  0.6897 -0.4567
14193SOL    HW149694   0.517  10.171   6.525  0.7641  0.2166 -0.1003
14193SOL    HW249695   0.415  10.163   6.636  0.2833  0.7890 -0.4962
14194SOL     OW49696   5.272   1.594   4.664 -0.3227  0.0968 -0.2881
14194SOL    HW149697   5.326   1.518   4.688 -0.5610 -0.0728 -0.2935
14194SOL    HW249698   5.267   1.646   4.744 -0.5657 -0.1366 -0.1506
14195SOL     OW49699  11.183  11.127   6.870  0.4824 -0.3958 -0.1463
14195SOL    HW149700  11.173  11.221   6.853 -0.7859 -0.4802  0.0416
14195SOL    HW249701  11.217  11.091   6.788 -0.4373  0.0106 -0.7214
14196SOL     OW49702   7.291   4.746   2.933  0.4142 -0.1811 -0.5687
14196SOL    HW149703   7.209   4.758   2.886 -0.5371  0.1575  1.0869
14196SOL    HW249704   7.344   4.821   2.906 -0.5626  0.6649 -0.2138
14197SOL     OW49705   3.287   3.520  12.344 -0.2356  0.3802  0.0278
14197SOL    HW149706   3.329   3.526  12.258  0.0286  0.6649  0.1734
14197SOL    HW249707   3.338   3.454  12.390  0.5181  1.2468  0.4587
14198SOL     OW49708   5.077   8.219   2.109  0.0107  0.2242 -0.1464
14198SOL    HW149709   5.121   8.304   2.105  0.6193 -0.0739 -0.0359
14198SOL    HW249710   5.099   8.186   2.197 -3.6466  1.7409  1.5573
14199SOL     OW49711  12.617   6.737  11.950  0.1008  0.4499  0.2596
14199SOL    HW149712  12.703   6.778  11.934  0.0343  0.9129  1.0391
14199SOL    HW249713  12.609   6.672  11.881  1.6574 -0.5068  0.9175
14200SOL     OW49714   7.064   2.110   0.666  0.1035  0.4560 -0.2546
14200SOL    HW149715   7.034   2.143   0.750  0.2428 -0.4281  0.1513
14200SOL    HW249716   7.089   2.188   0.617  1.1876  0.9122  0.9811
14201SOL     OW49717   0.652  12.782   5.798  0.2768 -0.0324 -0.0791
14201SOL    HW149718   0.740  12.754   5.824  0.1252 -0.5448 -0.1097
14201SOL    HW249719   0.620  12.832   5.873  0.3305 -0.4253  0.2089
14202SOL     OW49720   3.648   8.935   4.224  0.0628 -0.4750  0.3086
14202SOL    HW149721   3.707   8.879   4.173 -0.4038 -0.1141 -0.6563
14202SOL    HW249722   3.698   9.014   4.240  0.1853 -0.5592  0.3479
14203SOL     OW49723   5.028  12.138  11.677  0.2835 -0.1092 -0.0758
14203SOL    HW149724   5.044  12.145  11.583  0.6516 -1.0829 -0.0866
14203SOL    HW249725   4.964  12.208  11.694 -0.2090 -0.2676 -1.1422
14204SOL     OW49726   1.637   0.776   4.400  0.5623  0.1945 -0.2478
14204SOL    HW149727   1.669   0.866   4.392  0.2822  0.2728 -0.4963
14204SOL    HW249728   1.588   0.775   4.483  1.9372 -0.1520  0.5965
14205SOL     OW49729   8.684   1.394   3.293 -0.1600  0.2640 -0.4797
14205SOL    HW149730   8.625   1.441   3.352  0.0122  0.1540 -0.2152
14205SOL    HW249731   8.703   1.312   3.339 -2.6975 -1.3935 -2.1664
14206SOL     OW49732   4.102   7.134   7.308  0.0918  0.1181 -0.1305
14206SOL    HW149733   4.156   7.106   7.382  0.1800 -2.0265 -0.9325
14206SOL    HW249734   4.012   7.124   7.339  0.0890  1.6290  0.4721
14207SOL     OW49735  12.745   2.718   2.217  0.1683 -0.0289 -0.3885
14207SOL    HW149736  12.820   2.676   2.257  1.0591  0.4261 -1.5064
14207SOL    HW249737  12.782   2.769   2.145 -1.3206 -0.6939 -1.6950
14208SOL     OW49738   1.530   6.323  12.468  0.5570 -0.1625 -0.3643
14208SOL    HW149739   1.521   6.238  12.425  0.6037 -0.4152  0.1217
14208SOL    HW249740   1.450   6.334  12.519  1.3173 -0.7361  0.9990
14209SOL     OW49741  12.663  11.931   0.193  0.1002 -0.5838  0.2168
14209SOL    HW149742  12.713  11.909   0.271 -0.5582 -0.2997  0.7182
14209SOL    HW249743  12.703  12.012   0.161  0.2615 -0.6090  0.3548
14210SOL     OW49744   0.674   2.072   0.359 -0.1927  0.4736  0.0458
14210SOL    HW149745   0.750   2.126   0.336  1.2425 -0.6106  1.9589
14210SOL    HW249746   0.649   2.101   0.447 -0.3469 -0.9227  0.4861
14211SOL     OW49747   3.603   2.306   3.614 -0.3363 -0.7460 -0.3509
14211SOL    HW149748   3.652   2.383   3.642  0.0303 -0.6127 -1.3439
14211SOL    HW249749   3.621   2.241   3.683 -0.4809 -0.0322  0.3803
14212SOL     OW49750  12.656   5.557   3.920  0.3135 -0.8577 -0.2100
14212SOL    HW149751  12.741   5.537   3.880  0.4372 -1.1730  0.2050
14212SOL    HW249752  12.593   5.504   3.870  0.4464 -1.1232 -0.0982
14213SOL     OW49753   7.460  10.132   9.420  0.0229  0.0083  0.2653
14213SOL    HW149754   7.392  10.192   9.389 -0.2869 -0.0535  0.8181
14213SOL    HW249755   7.429  10.045   9.395  0.0745  0.0072  0.2016
14214SOL     OW49756   6.429  12.809   8.805 -0.0826 -0.4114 -0.1168
14214SOL    HW149757   6.352  12.773   8.759 -1.5588 -0.8015  2.4656
14214SOL    HW249758   6.407  12.900   8.821 -0.5234 -0.7645  1.5009
14215SOL     OW49759  10.412   3.046   3.155  0.2625  0.2251  0.0846
14215SOL    HW149760  10.483   3.093   3.198 -0.4037  0.6750  0.7235
14215SOL    HW249761  10.358   3.115   3.116  0.5830 -0.1498 -1.0563
14216SOL     OW49762  12.059   0.905   5.376  0.2531  0.1627 -0.5710
14216SOL    HW149763  12.023   0.837   5.319 -0.3329 -2.4804  2.6256
14216SOL    HW249764  11.988   0.969   5.382 -0.6037 -0.7024 -0.9692
14217SOL     OW49765  10.603   5.357   5.754  0.2822  0.6499  0.1224
14217SOL    HW149766  10.595   5.299   5.829  0.2712 -1.0404 -1.1369
14217SOL    HW249767  10.686   5.403   5.767  0.2883  0.3596  1.1321
14218SOL     OW49768   8.682   0.961   6.924  0.0169 -0.1083 -0.3630
14218SOL    HW149769   8.590   0.945   6.946  0.8917 -5.4225  0.7827
14218SOL    HW249770   8.690   0.934   6.833  0.5047  0.1407 -0.3980
14219SOL     OW49771   7.562  12.448   7.413 -0.2863 -0.0067 -0.0408
14219SOL    HW149772   7.615  12.374   7.444 -1.5386 -0.7906  0.3278
14219SOL    HW249773   7.542  12.426   7.322  1.4660  1.1688 -0.7577
14220SOL     OW49774   5.308   7.516   9.608  0.0677  0.3531  0.1595
14220SOL    HW149775   5.317   7.605   9.574 -0.7931  0.9837  1.5174
14220SOL    HW249776   5.228   7.483   9.568  0.4994  0.0872 -0.5110
14221SOL     OW49777   5.509   3.865  11.313  0.3809  0.6600  0.3670
14221SOL    HW149778   5.420   3.832  11.323 -0.0155  1.6291  0.1501
14221SOL    HW249779   5.550   3.848  11.398  0.3380 -0.7592  0.1287
14222SOL     OW49780  10.853   3.366   3.922 -0.6122 -0.1432 -0.0786
14222SOL    HW149781  10.814   3.399   4.003 -1.5524  1.1581 -1.0258
14222SOL    HW249782  10.921   3.430   3.901 -0.7696 -0.1484 -0.6180
14223SOL     OW49783   4.330   8.273   2.657  0.5328 -0.1627 -0.4677
14223SOL    HW149784   4.417   8.301   2.686  0.3232 -0.0781  0.0926
14223SOL    HW249785   4.278   8.353   2.657 -0.2721 -0.6210  1.8726
14224SOL     OW49786   5.874   5.519  10.552  0.1898  0.3807  0.8522
14224SOL    HW149787   5.906   5.549  10.638 -1.3446  0.2595  1.4934
14224SOL    HW249788   5.807   5.454  10.573  1.0972 -1.0529 -0.4846
14225SOL     OW49789   5.900   3.015   5.788  0.8615  0.0113 -0.0082
14225SOL    HW149790   5.900   3.110   5.794  1.9376  0.0323 -0.2710
14225SOL    HW249791   5.825   2.995   5.731 -0.2022  0.6055  1.1251
14226SOL     OW49792   4.598  11.052   7.694 -0.2313  0.0504  0.7329
14226SOL    HW149793   4.655  11.070   7.769  1.1598  0.9985 -0.5267
14226SOL    HW249794   4.648  11.078   7.618 -0.8238 -2.7243 -0.7449
14227SOL     OW49795   8.052   1.446   6.451 -0.5943 -0.1214  0.5389
14227SOL    HW149796   8.141   1.416   6.430 -1.1316 -0.0782 -2.1683
14227SOL    HW249797   8.059   1.541   6.454 -0.7279 -0.0397 -0.9237
14228SOL     OW49798   4.853   3.700   9.582  0.0398  0.4484  0.2548
14228SOL    HW149799   4.784   3.757   9.616 -2.1276 -1.5954 -0.4364
14228SOL    HW249800   4.916   3.760   9.543 -1.8663  2.4186 -0.0362
14229SOL     OW49801  11.956  10.183   2.097 -0.3539 -0.5805  0.4113
14229SOL    HW149802  11.924  10.197   2.007 -0.9188  0.7641  0.7991
14229SOL    HW249803  12.045  10.148   2.085 -0.0175  0.5619 -0.6773
14230SOL     OW49804   1.095   1.513   9.018  0.5728  0.7565 -0.3450
14230SOL    HW149805   1.097   1.568   8.940 -0.8703 -0.4321 -1.2577
14230SOL    HW249806   1.103   1.424   8.985 -0.3544  0.2087  0.8272
14231SOL     OW49807   5.571   2.338   6.825  0.1842  0.5925  0.2000
14231SOL    HW149808   5.614   2.423   6.838  1.2780  0.0346  0.3715
14231SOL    HW249809   5.601   2.284   6.898 -1.7621  0.5109  0.9929
14232SOL     OW49810   2.540   9.848   1.236 -0.1419  0.1464 -0.0060
14232SOL    HW149811   2.633   9.826   1.241 -0.1624 -0.1811 -0.8442
14232SOL    HW249812   2.506   9.832   1.324  0.3122 -1.0187 -0.0255
14233SOL     OW49813   6.878   9.001  10.924  0.4002 -0.4806 -0.7652
14233SOL    HW149814   6.876   9.025  10.831  2.3010 -0.4920 -0.8539
14233SOL    HW249815   6.827   9.069  10.967  1.3866  0.8542 -1.5967
14234SOL     OW49816  11.179   1.778  11.659  0.3377  0.7572 -0.1007
14234SOL    HW149817  11.111   1.715  11.683 -1.4822  2.3718 -0.7367
14234SOL    HW249818  11.130   1.857  11.634  2.5017  2.4163  0.6214
14235SOL     OW49819   6.908   8.485  12.874  0.3227 -0.0975  0.1765
14235SOL    HW149820   6.979   8.454  12.930  1.4133 -0.3696 -1.2865
14235SOL    HW249821   6.951   8.545  12.812 -1.1783  1.7730  0.8531
14236SOL     OW49822  12.730   3.830   2.367 -0.3419  0.1003 -0.4236
14236SOL    HW149823  12.812   3.851   2.321 -0.3378 -0.1701 -0.5426
14236SOL    HW249824  12.717   3.736   2.351  0.7289 -0.5025  1.8235
14237SOL     OW49825   9.102   4.920   2.202  0.1405 -0.1886 -0.3251
14237SOL    HW149826   9.090   4.861   2.276  0.5290  0.4812  0.2953
14237SOL    HW249827   9.036   4.894   2.139 -1.3203  0.2729  0.9509
14238SOL     OW49828   6.363  11.931  11.590 -0.3271  0.4388 -0.1456
14238SOL    HW149829   6.280  11.896  11.557  0.1839 -3.0344  1.6985
14238SOL    HW249830   6.415  11.949  11.512 -0.9387 -2.5495 -1.3836
14239SOL     OW49831   8.825   9.561   3.910  0.1235 -0.2358 -0.1529
14239SOL    HW149832   8.790   9.474   3.930 -0.0577 -0.0964  0.1396
14239SOL    HW249833   8.749   9.609   3.876  0.2960 -0.2892 -0.6307
14240SOL     OW49834   2.416   2.514   2.070 -0.1210 -0.0772 -0.0167
14240SOL    HW149835   2.402   2.440   2.130  0.5652 -0.4150 -0.2636
14240SOL    HW249836   2.502   2.548   2.094 -0.0829  0.1346 -0.4504
14241SOL     OW49837  11.926   9.582   6.086 -0.2282  0.5479 -0.2835
14241SOL    HW149838  12.018   9.573   6.064  0.0198 -1.5252  1.3349
14241SOL    HW249839  11.893   9.649   6.025  1.8114 -0.2632 -2.4068
14242SOL     OW49840   9.950  12.250   0.608  0.6308 -0.2659 -0.1804
14242SOL    HW149841   9.999  12.181   0.563  0.4765 -0.8515  0.5285
14242SOL    HW249842   9.976  12.331   0.564  1.7237 -0.6382 -0.2455
14243SOL     OW49843  11.225   0.613   5.965 -0.4502  0.4631 -0.3423
14243SOL    HW149844  11.172   0.565   6.028 -0.7226  1.9228  0.5839
14243SOL    HW249845  11.308   0.628   6.010  0.1503 -0.3155 -1.1457
14244SOL     OW49846   2.268   0.585   9.489  0.1044  0.3370 -0.1581
14244SOL    HW149847   2.278   0.658   9.428 -0.0449  1.7754  1.4544
14244SOL    HW249848   2.181   0.597   9.527 -0.5472 -1.5789 -0.9238
14245SOL     OW49849   8.721  12.904   7.959  0.0795 -0.1202 -0.2001
14245SOL    HW149850   8.739  12.998   7.958  1.1243 -0.2552  1.5355
14245SOL    HW249851   8.686  12.887   8.046 -4.1969 -0.7340 -1.7706
14246SOL     OW49852   8.973   4.403   9.972  0.0777 -0.0783 -0.3188
14246SOL    HW149853   8.933   4.391  10.058 -0.8397  0.1227 -0.7051
14246SOL    HW249854   9.066   4.386   9.986  0.2607  1.7068  1.1061
14247SOL     OW49855   3.532   4.552   0.046 -0.2955 -0.4420  0.3779
14247SOL    HW149856   3.553   4.625   0.105  1.5144 -1.7787  1.4988
14247SOL    HW249857   3.577   4.574  -0.035 -2.3732  1.1557 -0.4415
14248SOL     OW49858   8.755  10.367  12.251 -0.0358 -0.2001  0.2878
14248SOL    HW149859   8.668  10.395  12.221  0.3098 -0.4166 -0.9797
14248SOL    HW249860   8.802  10.345  12.171  1.9062  1.8516  0.7624
14249SOL     OW49861   0.503  11.091   1.600 -0.0447 -0.1162  0.3359
14249SOL    HW149862   0.480  11.176   1.562 -0.0001  0.1935  0.9839
14249SOL    HW249863   0.595  11.100   1.623 -0.1469 -0.1990  0.7797
14250SOL     OW49864   6.099   4.286   2.174 -0.3209 -0.3840 -0.1214
14250SOL    HW149865   6.115   4.199   2.210  0.1968  0.5674  2.1443
14250SOL    HW249866   6.186   4.327   2.170 -0.7577  0.7112  0.8429
14251SOL     OW49867  10.423   2.996   7.406 -0.3125  0.0993  0.3927
14251SOL    HW149868  10.418   3.025   7.497  2.5688 -0.1685  0.7340
14251SOL    HW249869  10.370   3.059   7.357 -1.1847  0.7747  2.1503
14252SOL     OW49870   1.859   4.210   9.308  0.4104 -0.0541 -0.1790
14252SOL    HW149871   1.905   4.242   9.385  0.3526  0.4718 -0.3579
14252SOL    HW249872   1.766   4.227   9.326  0.1508 -1.9984  0.6039
14253SOL     OW49873   3.814   1.527  11.205  0.1036  0.1916  0.3740
14253SOL    HW149874   3.757   1.571  11.142  0.3786 -0.2918 -0.2190
14253SOL    HW249875   3.759   1.460  11.244  0.1655 -0.0569  0.0403
14254SOL     OW49876   6.344   9.252   4.241  0.0426 -0.2912 -0.0360
14254SOL    HW149877   6.303   9.322   4.292 -0.3654  0.4018 -1.2843
14254SOL    HW249878   6.438   9.266   4.253  0.0133 -1.5107  2.3269
14255SOL     OW49879   4.039   4.217   8.796  1.3789  0.2265 -0.0318
14255SOL    HW149880   3.982   4.218   8.719  1.4705 -0.8864 -0.1284
14255SOL    HW249881   4.032   4.306   8.831 -1.6333 -0.2376  0.8354
14256SOL     OW49882   7.885   1.694  10.150 -0.2307 -0.4904 -0.7258
14256SOL    HW149883   7.828   1.701  10.074  0.4500 -1.3939 -1.3332
14256SOL    HW249884   7.903   1.600  10.159 -1.1912 -0.5411  1.2283
14257SOL     OW49885   0.475   6.318  11.477 -0.5175 -0.6601 -0.2650
14257SOL    HW149886   0.566   6.290  11.478 -0.3820 -0.4685 -2.4740
14257SOL    HW249887   0.425   6.237  11.482 -0.1896 -0.9047 -0.8185
14258SOL     OW49888  12.841   2.493   2.428  0.0113 -0.2346 -0.1908
14258SOL    HW149889  12.914   2.453   2.475 -1.3984 -1.8994  0.6851
14258SOL    HW249890  12.763   2.452   2.465 -1.4650  2.2917 -0.3032
14259SOL     OW49891   3.329   9.526   5.066 -0.0302 -0.1362  0.2346
14259SOL    HW149892   3.359   9.617   5.070 -1.2323  0.3527 -0.9808
14259SOL    HW249893   3.234   9.532   5.070 -0.0879 -1.4685  1.6006
14260SOL     OW49894  10.671   3.040  10.133 -0.2720 -0.5486 -0.7242
14260SOL    HW149895  10.670   3.051  10.038  0.2317 -0.8378 -0.7669
14260SOL    HW249896  10.644   3.126  10.167 -0.7110 -0.5236 -1.1284
14261SOL     OW49897   4.394   4.978  12.757  0.0339  0.0660  1.2148
14261SOL    HW149898   4.331   4.906  12.767  1.4211 -1.0427  2.3559
14261SOL    HW249899   4.480   4.936  12.766  1.1772  1.0366 -2.9245
14262SOL     OW49900   3.643   6.275   9.501  0.1946  0.0343 -0.6173
14262SOL    HW149901   3.622   6.183   9.517  1.3586  0.0592  1.3688
14262SOL    HW249902   3.720   6.274   9.445  0.8640 -0.2460  0.2896
14263SOL     OW49903  12.443   5.811   8.192 -0.6799  0.6606  0.3297
14263SOL    HW149904  12.451   5.723   8.155 -1.0680  0.9103 -0.3670
14263SOL    HW249905  12.531   5.834   8.220 -0.4876  0.2235  0.0882
14264SOL     OW49906   7.337   5.319   6.679 -0.3440  0.3309 -0.0056
14264SOL    HW149907   7.388   5.341   6.601  1.0277  3.0419  1.5257
14264SOL    HW249908   7.259   5.373   6.673  0.3791  1.5443  1.0669
14265SOL     OW49909   5.556   9.503  12.208 -0.2366  0.2100 -0.0347
14265SOL    HW149910   5.614   9.515  12.284 -0.2019  1.3825 -0.2340
14265SOL    HW249911   5.502   9.427  12.231  0.3099  0.0708  0.8259
14266SOL     OW49912   6.333   8.324   8.160  0.3850  0.5723 -0.4728
14266SOL    HW149913   6.259   8.335   8.101  0.4213  1.9884 -0.3092
14266SOL    HW249914   6.338   8.230   8.177 -0.7265  0.3490 -1.2980
14267SOL     OW49915  10.506   5.221  11.460  0.5148 -0.1066  0.0551
14267SOL    HW149916  10.454   5.223  11.540 -1.7960 -0.7490 -1.3418
14267SOL    HW249917  10.549   5.135  11.462  0.5224 -0.0938  0.6305
14268SOL     OW49918   8.940   6.493   2.246 -0.2830  0.4796 -0.6368
14268SOL    HW149919   8.914   6.568   2.193  0.1749 -0.4806 -2.2954
14268SOL    HW249920   9.033   6.507   2.264 -0.0285  0.0210 -1.5155
14269SOL     OW49921  11.074   1.633   6.677  0.4338 -0.1185 -0.5780
14269SOL    HW149922  11.076   1.693   6.603  0.5901  0.5211 -0.0595
14269SOL    HW249923  11.116   1.553   6.644  2.2529  0.8060 -0.6199
14270SOL     OW49924   9.266  11.789   6.072  0.3073  0.0798  0.1950
14270SOL    HW149925   9.345  11.759   6.027  0.0909  0.9486 -0.8082
14270SOL    HW249926   9.225  11.849   6.010  0.6517  2.3445  2.0502
14271SOL     OW49927   9.612   1.804   5.199  0.5971  0.1606 -0.6638
14271SOL    HW149928   9.606   1.864   5.125 -0.5814  1.4600  0.4295
14271SOL    HW249929   9.619   1.717   5.160 -2.8740  0.5021 -2.3670
14272SOL     OW49930   6.603   8.294   6.143 -0.1533 -0.1769 -0.2299
14272SOL    HW149931   6.671   8.267   6.081  0.1444 -0.5066  0.2289
14272SOL    HW249932   6.573   8.379   6.111  1.1732  0.4486  0.1027
14273SOL     OW49933   3.900   2.945  11.958 -0.0580 -0.2635 -0.0242
14273SOL    HW149934   3.947   3.007  11.901 -0.5328 -1.4461 -1.7916
14273SOL    HW249935   3.967   2.907  12.014  0.0913  2.6629  2.0048
14274SOL     OW49936   5.132   5.166   4.695 -0.0858  0.7105  0.8088
14274SOL    HW149937   5.129   5.236   4.761  1.1782  0.3409  1.2998
14274SOL    HW249938   5.073   5.099   4.729  0.1336  0.7560  1.2932
14275SOL     OW49939   8.270   4.485   3.254  0.0702 -0.4744  0.6866
14275SOL    HW149940   8.256   4.526   3.169  2.2600 -0.2480  0.3603
14275SOL    HW249941   8.203   4.522   3.311 -0.9250 -0.0149 -0.7433
14276SOL     OW49942   0.641   8.364   1.494 -0.2724  0.2468  0.2542
14276SOL    HW149943   0.733   8.337   1.494 -0.2370  0.3574 -0.0838
14276SOL    HW249944   0.619   8.372   1.401 -1.0528 -1.2444  0.2837
14277SOL     OW49945   4.459  11.537   4.730 -0.5187  0.8107  0.5608
14277SOL    HW149946   4.535  11.585   4.695 -0.5405  0.2259 -0.3110
14277SOL    HW249947   4.409  11.513   4.653 -1.6080  1.1907  1.1344
14278SOL     OW49948   5.941   2.372   0.543  0.6266 -0.0975 -0.1749
14278SOL    HW149949   5.934   2.422   0.462  1.4745  0.9821  0.3817
14278SOL    HW249950   6.003   2.422   0.596  0.5472 -1.1032  0.9021
14279SOL     OW49951   4.239   1.264   9.203 -0.6720  0.1081 -0.0606
14279SOL    HW149952   4.302   1.203   9.165  0.1775 -0.1565  1.6396
14279SOL    HW249953   4.193   1.302   9.129 -1.3603 -2.7115 -1.2058
14280SOL     OW49954   5.872   8.818   1.198  0.0332  0.8874 -0.5342
14280SOL    HW149955   5.884   8.904   1.157 -0.3432 -0.1299 -2.9435
14280SOL    HW249956   5.961   8.783   1.207  0.0840  0.7592 -1.4069
14281SOL     OW49957   9.185   3.782   6.756  0.5974  0.3199 -0.2654
14281SOL    HW149958   9.130   3.803   6.681 -1.1530  0.4691  1.0245
14281SOL    HW249959   9.225   3.865   6.782  0.5877  0.4084 -0.5361
14282SOL     OW49960  10.200   1.527   1.913  0.1986  0.0351  0.2889
14282SOL    HW149961  10.208   1.621   1.900  4.8431 -0.3208 -1.1508
14282SOL    HW249962  10.170   1.517   2.003 -1.7834  2.7549  0.0561
14283SOL     OW49963   8.315  11.635   2.294 -0.9273 -0.2052  0.2234
14283SOL    HW149964   8.296  11.705   2.357 -0.8548 -0.3990  0.4634
14283SOL    HW249965   8.409  11.643   2.277 -1.1176  0.4591 -0.6059
14284SOL     OW49966   9.867   0.702   6.955  0.6130  0.6698 -0.5680
14284SOL    HW149967   9.905   0.755   6.884  1.1578 -0.6889 -1.3203
14284SOL    HW249968   9.813   0.637   6.910  0.5119  0.1433  0.2982
14285SOL     OW49969   0.265   6.381   2.345  0.4480  0.0421 -0.4313
14285SOL    HW149970   0.277   6.375   2.440  1.9554  1.7212 -0.4593
14285SOL    HW249971   0.200   6.314   2.325 -1.2880  0.8528  2.0150
14286SOL     OW49972  12.764   7.142   8.094 -0.1328 -0.1410 -0.2792
14286SOL    HW149973  12.837   7.087   8.063 -1.3399 -1.1360 -1.5305
14286SOL    HW249974  12.764   7.217   8.035 -0.6538 -0.5986 -0.8797
14287SOL     OW49975   1.282   0.622  12.037  0.0728  0.5853 -0.1068
14287SOL    HW149976   1.214   0.569  11.995  0.8909 -0.4049 -0.2173
14287SOL    HW249977   1.289   0.700  11.981  0.0311  0.0183 -0.9280
14288SOL     OW49978  11.980   5.327   6.319  0.5520  0.3613  0.4476
14288SOL    HW149979  11.963   5.420   6.312 -0.2429  0.1706 -0.3107
14288SOL    HW249980  12.007   5.314   6.410 -1.3185  1.0341  1.1442
14289SOL     OW49981   0.736   7.810   0.237  0.1029 -0.1769 -0.6895
14289SOL    HW149982   0.694   7.896   0.240  1.8750  0.7075  0.7527
14289SOL    HW249983   0.683   7.760   0.176 -2.4329  1.1471  0.2881
14290SOL     OW49984  10.875  12.534   0.052  0.0486  0.6040  0.1755
14290SOL    HW149985  10.963  12.569   0.067  0.2655  0.8441 -1.4743
14290SOL    HW249986  10.889  12.448   0.014 -0.4604  0.2767  0.6990
14291SOL     OW49987   5.314   3.735   0.896 -0.0220 -0.2235 -0.4633
14291SOL    HW149988   5.262   3.702   0.822  1.1563 -0.5184 -1.1926
14291SOL    HW249989   5.326   3.659   0.953  1.8878 -0.9093 -1.6719
14292SOL     OW49990   4.066  10.835  12.723 -0.3148  0.0917  0.6143
14292SOL    HW149991   4.118  10.897  12.775  0.2467  0.0888  0.0685
14292SOL    HW249992   4.126  10.762  12.706 -0.5949 -0.0492  0.2244
14293SOL     OW49993   3.646   9.479   4.683  0.0421  0.0705 -0.2550
14293SOL    HW149994   3.574   9.488   4.745 -0.9938 -2.0269 -1.0297
14293SOL    HW249995   3.697   9.405   4.717 -0.0883 -0.5855 -1.4353
14294SOL     OW49996   9.166   0.143  11.026 -0.5933 -0.5593 -1.2450
14294SOL    HW149997   9.261   0.134  11.024 -0.2987  1.3746  0.6002
14294SOL    HW249998   9.141   0.169  10.937  0.7888  0.4342 -1.3544
14295SOL     OW49999  10.356   8.923   7.186 -0.4065  0.4455 -0.0408
14295SOL    HW150000  10.309   8.910   7.268  0.2762  0.9893  0.4481
14295SOL    HW250001  10.426   8.858   7.188 -0.1755  0.6901 -0.0202
14296SOL     OW50002   9.839  10.799   5.026 -0.2969 -0.1718 -0.8579
14296SOL    HW150003   9.868  10.776   5.114 -2.3231  1.7643  0.4367
14296SOL    HW250004   9.772  10.734   5.004 -1.5689  0.7667  0.1347
14297SOL     OW50005   8.559   8.037  10.174  0.2723  0.1301 -0.2490
14297SOL    HW150006   8.471   8.073  10.186  0.7147  0.9454  0.5900
14297SOL    HW250007   8.544   7.953  10.130 -0.9334  0.1891  0.0195
14298SOL     OW50008   8.520   3.596  12.293 -0.1561 -0.0188  0.7130
14298SOL    HW150009   8.450   3.651  12.327  0.7260  2.6849 -1.4746
14298SOL    HW250010   8.591   3.605  12.356 -1.0227 -1.2022  1.9194
14299SOL     OW50011   6.843  10.114   0.637  0.1722  0.3401 -0.3612
14299SOL    HW150012   6.886  10.192   0.602 -0.7481  0.3373 -1.5957
14299SOL    HW250013   6.898  10.041   0.608 -0.1260  0.3993 -1.1052
14300SOL     OW50014   4.727   2.895   4.006 -0.4061 -0.2005 -0.7175
14300SOL    HW150015   4.717   2.832   4.077 -1.4251  1.0141  0.2542
14300SOL    HW250016   4.637   2.920   3.983 -0.0840  3.1069  1.0003
14301SOL     OW50017   2.752   0.129  10.751 -0.0113 -0.6209 -0.3054
14301SOL    HW150018   2.757   0.221  10.778 -0.8011 -0.6852  0.0997
14301SOL    HW250019   2.683   0.092  10.806  1.0198 -1.7223  0.2861
14302SOL     OW50020  10.967   2.946  10.172 -0.4940 -0.1829  0.5136
14302SOL    HW150021  11.043   2.894  10.144 -0.8841 -1.6308  1.9552
14302SOL    HW250022  10.894   2.912  10.119 -0.1963  1.1887 -0.8520
14303SOL     OW50023   8.364   3.813  11.517 -0.2982  0.0338  0.3790
14303SOL    HW150024   8.276   3.792  11.485 -0.5664  1.9539 -0.2377
14303SOL    HW250025   8.413   3.731  11.507 -0.7222  0.0609 -3.7604
14304SOL     OW50026   5.520   6.874  11.110  0.4067 -0.8587 -0.4681
14304SOL    HW150027   5.585   6.906  11.048  0.8539 -1.2019 -0.1829
14304SOL    HW250028   5.540   6.781  11.121 -1.4324 -1.5060 -1.9882
14305SOL     OW50029   5.326  11.901   8.736  0.0031  0.5450 -0.0471
14305SOL    HW150030   5.319  11.893   8.641  1.3925 -0.4105 -0.0942
14305SOL    HW250031   5.321  11.810   8.768 -0.9033  0.8843  0.8402
14306SOL     OW50032  11.824  10.519   7.592 -0.0022 -0.0507 -0.5738
14306SOL    HW150033  11.910  10.493   7.559 -0.6037 -1.6220 -0.9700
14306SOL    HW250034  11.841  10.600   7.642  1.4796  0.3847 -1.7179
14307SOL     OW50035   3.034   2.108   6.679  0.2698 -0.1597  0.0408
14307SOL    HW150036   3.014   2.069   6.594  1.2865  0.1749 -0.3542
14307SOL    HW250037   2.973   2.182   6.686 -0.2449 -0.5626 -0.1141
14308SOL     OW50038  11.162   2.052   7.439  0.5280  0.8770  0.4000
14308SOL    HW150039  11.086   1.994   7.436  0.3109  1.1515 -2.1503
14308SOL    HW250040  11.153   2.107   7.361  3.8395  0.1995 -0.6349
14309SOL     OW50041   9.559   3.339   2.605  0.0109 -0.3707  0.4210
14309SOL    HW150042   9.464   3.348   2.613 -0.1223 -2.5150  2.5027
14309SOL    HW250043   9.594   3.389   2.679  0.6431  1.4062 -1.0146
14310SOL     OW50044   5.225   2.550   8.063  0.6245 -0.1781 -0.4810
14310SOL    HW150045   5.213   2.631   8.015  1.3662 -1.0161 -2.1546
14310SOL    HW250046   5.290   2.501   8.013  1.2224 -1.2367  1.2311
14311SOL     OW50047   1.816   9.155   6.476  0.4180  0.6267 -0.3605
14311SOL    HW150048   1.900   9.195   6.499  0.9604 -0.4529 -0.4114
14311SOL    HW250049   1.836   9.100   6.400 -0.3713  0.4634 -0.4585
14312SOL     OW50050   3.390   6.547   0.068  0.1780 -0.2756 -0.3124
14312SOL    HW150051   3.421   6.480   0.129  0.2199 -0.5911 -0.6686
14312SOL    HW250052   3.418   6.630   0.106 -0.1275 -0.4427  0.2839
14313SOL     OW50053   0.759   4.461   4.415  0.0015  0.2112  0.6205
14313SOL    HW150054   0.676   4.477   4.370  0.9938 -0.1878 -1.4737
14313SOL    HW250055   0.735   4.407   4.490 -1.6541  0.3034  0.1997
14314SOL     OW50056  12.440   6.397  12.530  0.1160 -0.0810  0.3922
14314SOL    HW150057  12.346   6.409  12.539 -0.0942 -0.9916 -0.3766
14314SOL    HW250058  12.478   6.445  12.604 -0.9010  0.8825  0.3071
14315SOL     OW50059   3.907   4.752   6.099  0.4464  0.6486 -0.1252
14315SOL    HW150060   3.917   4.781   6.190 -0.9256  0.7181  0.0142
14315SOL    HW250061   3.821   4.710   6.096  0.3232  0.9546 -1.4756
14316SOL     OW50062   4.396  10.522  10.283  0.0831 -0.8255  0.4441
14316SOL    HW150063   4.434  10.554  10.365 -0.6351  1.0667  0.0734
14316SOL    HW250064   4.304  10.546  10.288 -0.0087 -0.8546 -0.8506
14317SOL     OW50065   1.693   3.479  12.443  0.5087 -0.1827  0.4474
14317SOL    HW150066   1.745   3.429  12.380 -0.5926 -0.3110 -0.3936
14317SOL    HW250067   1.640   3.414  12.488 -1.3129  0.2142 -1.0178
14318SOL     OW50068   2.589  12.398  11.711  0.7680 -0.3585  0.2713
14318SOL    HW150069   2.518  12.346  11.750  0.0583  0.1896 -0.2487
14318SOL    HW250070   2.628  12.340  11.646 -0.7875  0.1059 -1.1473
14319SOL     OW50071   8.520   7.470   3.490 -0.8163  0.5249  0.4837
14319SOL    HW150072   8.520   7.409   3.564  0.2448  0.9395  0.8451
14319SOL    HW250073   8.534   7.556   3.530  0.0255  0.7251 -0.1989
14320SOL     OW50074   3.309   0.555   5.790  0.2754 -0.2274  0.2030
14320SOL    HW150075   3.219   0.583   5.808  1.5382  3.2229  2.0778
14320SOL    HW250076   3.338   0.612   5.719  1.1300 -1.0315 -0.1103
14321SOL     OW50077   0.372  12.626   0.969  0.6143 -0.2653  0.0378
14321SOL    HW150078   0.338  12.643   0.881  0.0866  1.2440  0.4998
14321SOL    HW250079   0.298  12.586   1.016  0.7068 -0.5251 -0.0372
14322SOL     OW50080   2.098   5.887   4.564 -0.0721 -0.7983  0.0124
14322SOL    HW150081   2.078   5.842   4.482  1.0685  0.0670 -0.7730
14322SOL    HW250082   2.033   5.957   4.570 -0.5153 -1.2220  0.1401
14323SOL     OW50083   1.575  12.428   0.142 -0.5980 -0.6029 -0.4907
14323SOL    HW150084   1.532  12.492   0.198  0.0955 -0.1401 -0.4685
14323SOL    HW250085   1.650  12.397   0.194  1.5453  1.6386 -1.9747
14324SOL     OW50086   7.629   1.600  12.440 -0.8365  0.0370  0.2098
14324SOL    HW150087   7.580   1.528  12.478 -1.6135 -0.1300 -1.0435
14324SOL    HW250088   7.681   1.636  12.512 -2.4926 -0.0338  1.4765
14325SOL     OW50089   9.533  10.234   6.796  0.5357  0.1359 -0.0342
14325SOL    HW150090   9.593  10.298   6.835  1.4234 -0.5339 -0.2719
14325SOL    HW250091   9.540  10.249   6.702  0.2346  0.1257 -0.0608
14326SOL     OW50092   6.073  10.044   9.486 -0.3938 -0.4359 -0.3603
14326SOL    HW150093   6.161  10.009   9.500  0.5032  2.0153  0.7520
14326SOL    HW250094   6.042  10.066   9.574 -1.1244  0.9165 -0.9160
14327SOL     OW50095   4.835   3.300   6.673  0.4252  0.0112  0.1465
14327SOL    HW150096   4.854   3.227   6.731 -0.9077  0.9396  1.8383
14327SOL    HW250097   4.762   3.346   6.715 -1.1321  0.3171 -2.6671
14328SOL     OW50098   6.637  10.425   0.509  0.0456 -0.2593  0.5879
14328SOL    HW150099   6.600  10.355   0.455  2.5723 -0.4711 -1.0193
14328SOL    HW250100   6.572  10.496   0.504 -1.5516 -1.6638  0.4697
14329SOL     OW50101   6.229   3.623   9.377 -0.0782 -0.5378 -0.1342
14329SOL    HW150102   6.245   3.716   9.361  2.1219 -0.7258  0.7278
14329SOL    HW250103   6.297   3.578   9.329  0.7891 -1.5275  1.9139
14330SOL     OW50104   8.365   2.900   8.042 -0.1456 -0.5260  0.3090
14330SOL    HW150105   8.425   2.973   8.059 -1.0593  0.3422 -0.1002
14330SOL    HW250106   8.285   2.941   8.010 -0.8193 -1.6914  0.4226
14331SOL     OW50107  12.236   9.895   2.528 -0.1614  0.0051  0.4149
14331SOL    HW150108  12.240   9.802   2.508  0.8858  0.0397  0.3862
14331SOL    HW250109  12.208   9.899   2.619 -1.5124 -0.2745  0.0375
14332SOL     OW50110   1.982   3.705   7.384  0.2741  0.1523  0.2017
14332SOL    HW150111   2.005   3.631   7.441 -0.5680 -0.0561  0.2900
14332SOL    HW250112   2.050   3.705   7.317  1.0374  0.1293  0.9563
14333SOL     OW50113   4.429   2.987  12.902  0.1287  0.0061 -0.8578
14333SOL    HW150114   4.468   2.939  12.829 -0.7472 -0.2852 -1.1405
14333SOL    HW250115   4.361   3.041  12.861  0.1679  0.4368 -0.3576
14334SOL     OW50116   9.428   6.471   5.873  0.4231  0.5610  0.8274
14334SOL    HW150117   9.495   6.404   5.886 -1.0331 -0.8167  1.5318
14334SOL    HW250118   9.444   6.534   5.943 -0.4709 -1.0193  2.5161
14335SOL     OW50119  11.689  10.156   6.840 -0.1443 -0.0311  0.2463
14335SOL    HW150120  11.615  10.116   6.795  0.3668 -1.6253  0.7880
14335SOL    HW250121  11.673  10.140   6.933 -0.0980  1.3617  0.5244
14336SOL     OW50122   2.061   4.154  10.415  0.6857  0.2924 -0.0160
14336SOL    HW150123   1.972   4.174  10.386  1.0562  1.0637 -0.6712
14336SOL    HW250124   2.091   4.233  10.459  1.4705  0.4963 -0.8767
14337SOL     OW50125   7.673  11.805   8.067 -1.0059 -0.3334 -0.5923
14337SOL    HW150126   7.584  11.773   8.057 -1.1253 -0.5190  0.8774
14337SOL    HW250127   7.663  11.892   8.106 -0.5582 -1.3344  1.9991
14338SOL     OW50128   7.323   8.817   4.153 -0.2572  0.3281 -0.2218
14338SOL    HW150129   7.319   8.744   4.091 -0.3225 -0.6429  0.8947
14338SOL    HW250130   7.250   8.801   4.213  0.4591  0.6593  0.7448
14339SOL     OW50131  10.331   7.840   2.335  0.0730  0.1398 -0.2514
14339SOL    HW150132  10.401   7.804   2.390 -0.3969  1.1131  1.0344
14339SOL    HW250133  10.251   7.820   2.383 -0.3257  1.3137 -0.3962
14340SOL     OW50134   8.137   0.042   4.191 -0.2597 -0.3181 -0.6829
14340SOL    HW150135   8.066   0.106   4.182 -0.7499 -0.5076  1.3101
14340SOL    HW250136   8.114  -0.029   4.132 -1.0566  0.2095 -1.0192
14341SOL     OW50137   2.785   7.747   6.567  0.3473 -0.4155 -0.8155
14341SOL    HW150138   2.766   7.841   6.572  0.8239 -0.2848 -1.3658
14341SOL    HW250139   2.758   7.722   6.479 -0.0936 -0.8717 -0.5540
14342SOL     OW50140   6.051   1.626   7.926 -0.4161 -0.3028  0.7467
14342SOL    HW150141   6.129   1.583   7.962 -0.4357 -0.1412  0.9871
14342SOL    HW250142   6.055   1.715   7.960  0.8292  0.6071 -1.5943
14343SOL     OW50143  12.091   1.379   2.670  0.6231  0.1439  0.4396
14343SOL    HW150144  12.041   1.299   2.658  0.0895  0.2833  1.6055
14343SOL    HW250145  12.048   1.443   2.614  0.3513 -0.0898  0.3768
14344SOL     OW50146   7.964   3.426   5.950 -0.5224 -0.1015  0.2171
14344SOL    HW150147   7.996   3.473   6.027 -0.9191  0.1120  0.2517
14344SOL    HW250148   8.014   3.344   5.950 -0.1348  0.1293  0.3960
14345SOL     OW50149   3.567   5.783   5.170  0.0976  0.2706  0.1360
14345SOL    HW150150   3.491   5.763   5.224 -2.4579  4.6441 -1.3398
14345SOL    HW250151   3.609   5.857   5.215  2.8930 -1.1830  0.1978
14346SOL     OW50152   6.826   0.706   9.292  0.6853 -0.0392  0.1959
14346SOL    HW150153   6.829   0.743   9.381 -0.5170  0.2718  0.1157
14346SOL    HW250154   6.800   0.779   9.237 -0.0345 -0.5898 -0.2044
14347SOL     OW50155  11.118  11.400  12.723 -0.6276  0.1892 -0.3721
14347SOL    HW150156  11.128  11.427  12.631 -0.3311  0.0792 -0.3752
14347SOL    HW250157  11.024  11.392  12.736 -0.6553 -0.4317 -0.8620
14348SOL     OW50158   3.654   7.130   5.223 -0.4733  0.0216  0.0680
14348SOL    HW150159   3.601   7.206   5.243  0.1675  0.0948  1.5892
14348SOL    HW250160   3.717   7.161   5.158  0.3779  1.0711  1.3468
14349SOL     OW50161  11.109   0.747   7.304  0.0341  0.1887  0.0308
14349SOL    HW150162  11.037   0.708   7.255 -0.6311  0.0197  1.1163
14349SOL    HW250163  11.157   0.798   7.238  1.0014 -2.4669 -1.4573
14350SOL     OW50164   0.403   5.912   3.357 -0.5382  0.0155 -0.3577
14350SOL    HW150165   0.368   5.864   3.281 -0.2483 -0.4264 -0.2181
14350SOL    HW250166   0.489   5.942   3.329 -0.8176  0.6699 -0.5272
14351SOL     OW50167   6.026  12.047  12.927  0.3869  0.0839  0.2966
14351SOL    HW150168   6.058  12.001  12.850  1.4720  0.1571  0.6843
14351SOL    HW250169   5.932  12.033  12.926  0.6042 -1.5177 -0.0148
14352SOL     OW50170  12.046   9.596  12.767  0.1185  0.3609 -0.0940
14352SOL    HW150171  12.102   9.644  12.706  1.2722 -0.9932 -0.1436
14352SOL    HW250172  12.019   9.518  12.719 -0.8709  0.4120  0.3491
14353SOL     OW50173   0.186   3.927  12.342  0.0063 -0.0215  0.4056
14353SOL    HW150174   0.121   3.862  12.367 -0.3085 -0.7117 -1.9011
14353SOL    HW250175   0.266   3.898  12.385  0.0837 -2.5112 -1.1603
14354SOL     OW50176   3.152   3.954   3.857  0.5340 -0.3050 -0.1871
14354SOL    HW150177   3.063   3.939   3.889  0.4778 -3.0259 -1.3869
14354SOL    HW250178   3.145   4.031   3.801 -1.0169 -0.3763 -0.1175
14355SOL     OW50179   2.388   5.508  11.047 -0.1027  0.2497 -0.2948
14355SOL    HW150180   2.478   5.498  11.015 -0.0010  1.2398 -0.3755
14355SOL    HW250181   2.392   5.587  11.101 -0.2746 -1.3280  2.1535
14356SOL     OW50182   5.978   2.322   6.283  0.2860 -0.1866  0.6584
14356SOL    HW150183   6.042   2.393   6.277 -1.0535  1.1937  1.8073
14356SOL    HW250184   5.948   2.324   6.374  1.5216 -3.4833  1.2605
14357SOL     OW50185  10.868   9.125   8.867 -0.0113  0.2963 -0.2910
14357SOL    HW150186  10.906   9.077   8.793  0.4006  0.9605 -0.5136
14357SOL    HW250187  10.818   9.196   8.827 -2.3871 -1.1292 -0.0709
14358SOL     OW50188  12.520   6.531  12.809 -0.1454 -0.4830  0.5400
14358SOL    HW150189  12.525   6.542  12.904  0.2697  0.3647  0.4291
14358SOL    HW250190  12.600   6.572  12.776  0.7818 -2.5982 -0.0506
14359SOL     OW50191   5.287   5.500   0.301 -0.5589 -0.3411 -0.8779
14359SOL    HW150192   5.364   5.497   0.358 -3.4452  0.4966  3.5750
14359SOL    HW250193   5.287   5.588   0.264  0.0258  0.1014  0.1306
14360SOL     OW50194   5.065   0.503   0.496  0.1200  0.2270 -0.4760
14360SOL    HW150195   5.031   0.478   0.582  0.2231 -0.3920 -0.6122
14360SOL    HW250196   5.160   0.511   0.510 -0.0100  1.5460 -0.1953
14361SOL     OW50197   6.945   1.075   1.118 -0.0843  0.0253  0.1745
14361SOL    HW150198   6.960   1.030   1.201 -0.6283  0.8188  0.7180
14361SOL    HW250199   7.015   1.140   1.113 -1.4361  1.6439  1.2275
14362SOL     OW50200   0.722   6.082   5.425  0.4885  0.2532 -0.1788
14362SOL    HW150201   0.652   6.049   5.369 -0.6914  2.5623 -0.1560
14362SOL    HW250202   0.765   6.002   5.457 -1.1096 -1.2074 -1.4323
14363SOL     OW50203   1.370   3.161   3.755  0.1123 -0.3124  0.2568
14363SOL    HW150204   1.373   3.168   3.851  1.2689 -0.4699  0.2348
14363SOL    HW250205   1.448   3.112   3.732  0.9216  1.4461 -0.9178
14364SOL     OW50206  12.371   9.477   7.001 -0.3147 -0.4713  0.6033
14364SOL    HW150207  12.358   9.563   6.961 -0.2974  0.4035  2.3665
14364SOL    HW250208  12.465   9.461   6.993 -0.4807 -0.8640 -0.7311
14365SOL     OW50209   5.357   2.976   2.075  0.0725 -0.2437 -0.0931
14365SOL    HW150210   5.290   2.948   2.137  1.0068 -1.6906  0.2875
14365SOL    HW250211   5.353   3.072   2.077 -3.1500 -0.2210 -1.3855
14366SOL     OW50212   2.411   6.940   1.439  0.0148 -0.7135  0.1271
14366SOL    HW150213   2.323   6.925   1.474 -0.9586 -1.4018 -2.4291
14366SOL    HW250214   2.452   6.853   1.440  0.1247 -0.6645 -0.0532
14367SOL     OW50215  11.609   2.016   8.885  0.5146 -0.2999 -0.0512
14367SOL    HW150216  11.569   2.101   8.897  2.0318  0.4111  0.2367
14367SOL    HW250217  11.541   1.953   8.910 -0.3613  0.8443  0.5195
14368SOL     OW50218   2.135   7.354  10.753 -0.0339 -0.0747 -0.6847
14368SOL    HW150219   2.079   7.290  10.796 -1.4103  1.8935  0.6054
14368SOL    HW250220   2.075   7.413  10.707  0.8324  2.2582  0.9671
14369SOL     OW50221  11.769   6.046   8.552  0.0684 -0.0492 -0.0430
14369SOL    HW150222  11.768   5.955   8.582 -0.4920  0.1809  0.6680
14369SOL    HW250223  11.753   6.040   8.458 -1.2814 -0.6237  0.1949
14370SOL     OW50224  11.850   0.006   3.724  0.0756  0.5120  0.7192
14370SOL    HW150225  11.797   0.035   3.650 -1.8932  1.0777  2.2527
14370SOL    HW250226  11.872   0.087   3.771  2.2379  0.2737  0.2341
14371SOL     OW50227   4.900   1.133   9.276  0.1829  0.3818 -0.4322
14371SOL    HW150228   4.867   1.113   9.364  0.6887 -1.4358 -0.6051
14371SOL    HW250229   4.970   1.196   9.290  0.5175 -0.1734  0.5371
14372SOL     OW50230  11.658   0.671   1.970 -0.0503 -0.3348  0.0549
14372SOL    HW150231  11.611   0.731   2.029 -2.1005 -0.1661 -1.6294
14372SOL    HW250232  11.648   0.585   2.012 -1.8284 -0.2840 -0.1674
14373SOL     OW50233   0.981   8.179   5.095  0.1529  0.6735 -0.4694
14373SOL    HW150234   1.016   8.228   5.021  2.1275  1.5309  0.9397
14373SOL    HW250235   1.004   8.232   5.172 -1.6232 -0.2811  0.8061
14374SOL     OW50236   1.031   4.346  10.693  0.0212 -0.4986  0.1587
14374SOL    HW150237   1.052   4.439  10.684  0.4925 -0.3549  2.3314
14374SOL    HW250238   1.095   4.302  10.636  1.0612  0.4088  0.5917
14375SOL     OW50239   3.476   0.462  10.938 -0.1622  0.8936 -0.1327
14375SOL    HW150240   3.419   0.490  11.009  0.4575  0.7371  0.4393
14375SOL    HW250241   3.533   0.395  10.977 -0.9092 -0.4304 -1.1983
14376SOL     OW50242   3.873   1.516   0.662 -0.4625  0.2139  0.1935
14376SOL    HW150243   3.822   1.434   0.666  0.6414 -0.4576  1.1241
14376SOL    HW250244   3.885   1.540   0.754 -0.1832  1.0544 -0.0602
14377SOL     OW50245   3.101  11.639   8.463  0.2383  0.2661  0.0559
14377SOL    HW150246   3.139  11.613   8.379 -2.3165  0.3760 -1.2364
14377SOL    HW250247   3.151  11.717   8.488  1.3451 -0.0208 -1.1261
14378SOL     OW50248   4.684  12.440   9.345  0.2810  0.2565 -0.2315
14378SOL    HW150249   4.707  12.400   9.261  0.8002  0.8416 -0.3796
14378SOL    HW250250   4.752  12.506   9.359  0.7119 -0.4189  1.0631
14379SOL     OW50251   6.215  11.349   3.414 -0.2129 -0.1065 -0.2111
14379SOL    HW150252   6.152  11.396   3.469  0.8479 -0.9894  1.8520
14379SOL    HW250253   6.279  11.416   3.388  0.5228 -0.0783  1.5586
14380SOL     OW50254   6.228   3.316   4.267 -0.1749 -0.1587 -0.1257
14380SOL    HW150255   6.312   3.360   4.255 -0.2343  0.5142  1.5640
14380SOL    HW250256   6.177   3.338   4.189  0.9070  0.1535 -0.7592
14381SOL     OW50257  12.297   7.771  11.265 -0.1631 -0.3277 -0.4336
14381SOL    HW150258  12.329   7.806  11.348  1.4724  1.0876 -1.5849
14381SOL    HW250259  12.316   7.678  11.269 -2.4531 -0.8088  1.7602
14382SOL     OW50260   9.965   0.932   0.710 -0.2886 -0.2662 -0.7761
14382SOL    HW150261   9.887   0.988   0.709 -0.2044 -0.1502 -1.1507
14382SOL    HW250262  10.035   0.988   0.744 -0.8531 -1.0511  1.8241
14383SOL     OW50263   6.150   7.177   6.493  0.0022  0.0861  0.3404
14383SOL    HW150264   6.214   7.110   6.470 -0.7418 -0.1983 -1.0265
14383SOL    HW250265   6.156   7.185   6.588 -0.1262 -2.1875  0.6022
14384SOL     OW50266   5.258  12.638   8.258  0.7403  0.8532  0.0395
14384SOL    HW150267   5.211  12.629   8.176 -0.7284  0.5531  0.8805
14384SOL    HW250268   5.243  12.729   8.284  1.3096  0.9848 -0.0755
14385SOL     OW50269   0.078   1.658  10.377 -0.3870  0.1951  0.2020
14385SOL    HW150270   0.019   1.732  10.359 -1.1761 -0.2611  0.8596
14385SOL    HW250271   0.084   1.612  10.293 -1.0073  0.2186  0.1400
14386SOL     OW50272   7.422   3.101  11.551 -0.5601  0.0021 -0.1898
14386SOL    HW150273   7.333   3.136  11.548 -0.4977  0.1195 -0.7143
14386SOL    HW250274   7.478   3.179  11.553 -0.4920 -0.0484  1.5083
14387SOL     OW50275  11.395   0.732  11.311 -1.3795 -0.5592  0.0858
14387SOL    HW150276  11.336   0.657  11.301 -2.1927  0.1301 -0.4028
14387SOL    HW250277  11.366   0.775  11.391 -1.3852 -0.3570 -0.0230
14388SOL     OW50278   1.860   8.109   4.029 -0.0018 -0.2553  0.0948
14388SOL    HW150279   1.908   8.134   4.108  1.1567 -0.6953 -0.4547
14388SOL    HW250280   1.790   8.175   4.023  0.8951  0.7813  0.5765
14389SOL     OW50281  10.118   5.028  12.465 -0.3101 -0.2278 -0.4824
14389SOL    HW150282  10.107   5.096  12.532  1.8293 -0.7695  0.5146
14389SOL    HW250283  10.089   4.948  12.509  0.1219 -0.4265 -0.5613
14390SOL     OW50284   3.912   7.682   1.211  0.1446  0.1627 -0.1956
14390SOL    HW150285   3.872   7.757   1.257 -2.2503 -1.3286  0.2920
14390SOL    HW250286   3.895   7.607   1.268  1.9867 -0.9148 -0.9600
14391SOL     OW50287   5.580   8.704  10.139 -0.2769 -0.0947  0.3819
14391SOL    HW150288   5.648   8.666  10.196  0.8311  2.1216  0.6355
14391SOL    HW250289   5.502   8.651  10.157  0.7198 -1.1399  1.9594
14392SOL     OW50290   3.012  11.876   4.398  0.3011  0.2993  0.0206
14392SOL    HW150291   2.934  11.822   4.390  1.2205 -1.0281 -0.3199
14392SOL    HW250292   2.984  11.963   4.369 -0.4044 -0.7623 -2.7935
14393SOL     OW50293   8.698   8.242   7.593  0.4702  0.4462 -0.7424
14393SOL    HW150294   8.662   8.153   7.593 -1.5100  1.1791 -0.2339
14393SOL    HW250295   8.792   8.231   7.605  0.3612 -1.5945 -1.4826
14394SOL     OW50296   6.614  12.576   1.500 -0.3788  0.5690  0.3760
14394SOL    HW150297   6.672  12.521   1.448 -0.3969  1.6739 -0.8591
14394SOL    HW250298   6.624  12.543   1.590  0.8357 -0.3681 -0.0759
14395SOL     OW50299   0.934   1.241  11.275  0.2775  0.3196  0.0067
14395SOL    HW150300   0.940   1.337  11.277  0.3664  0.3284 -0.5054
14395SOL    HW250301   1.012   1.214  11.226 -0.4522  0.0651 -1.0437
14396SOL     OW50302  12.402   0.405  12.579  0.1465  0.1972  0.3975
14396SOL    HW150303  12.407   0.344  12.505  0.2699  0.2866  0.3318
14396SOL    HW250304  12.392   0.491  12.538  0.1781  0.2426  0.4854
14397SOL     OW50305   5.813  12.133   1.346  0.6338 -0.0023  1.0554
14397SOL    HW150306   5.768  12.206   1.302  2.2596 -0.4740 -1.6226
14397SOL    HW250307   5.877  12.175   1.403  1.6290  0.7556 -0.5353
14398SOL     OW50308   8.743   5.939   1.814 -0.6752  0.2915 -0.1457
14398SOL    HW150309   8.800   5.993   1.870 -0.9559 -0.0152  0.4399
14398SOL    HW250310   8.664   5.992   1.804 -1.4270 -0.4740  1.3905
14399SOL     OW50311  12.044   6.187   2.506  0.1590 -0.6737 -0.0683
14399SOL    HW150312  11.974   6.160   2.565 -0.1023  0.8102  0.3514
14399SOL    HW250313  12.093   6.253   2.556  0.3556  0.1022 -1.2466
14400SOL     OW50314   5.081  11.626   8.569 -0.4989 -0.0322  0.4527
14400SOL    HW150315   5.134  11.569   8.626  1.6335  0.4977 -0.8699
14400SOL    HW250316   5.053  11.697   8.626  1.2107  0.2495  0.9977
14401SOL     OW50317   7.418   2.140   5.974 -0.0392  0.6698  0.4709
14401SOL    HW150318   7.335   2.176   6.003 -0.6003 -0.3282  0.1691
14401SOL    HW250319   7.394   2.076   5.907  0.8554 -0.6217  1.3375
14402SOL     OW50320   8.063   7.157  12.207 -0.0049 -0.2259  0.5701
14402SOL    HW150321   8.078   7.242  12.248  1.1020 -0.8802  1.5886
14402SOL    HW250322   8.088   7.169  12.116 -1.8804  1.0834  0.1629
14403SOL     OW50323   3.594   9.301  12.396  0.7550  0.2393 -0.4651
14403SOL    HW150324   3.609   9.258  12.312 -1.8362 -2.7174  0.3399
14403SOL    HW250325   3.658   9.262  12.455  1.1387  0.6607 -0.6001
14404SOL     OW50326   7.602  11.378   1.474  0.1480  0.5490  0.2169
14404SOL    HW150327   7.643  11.428   1.403  1.0819  2.0809  1.7542
14404SOL    HW250328   7.508  11.396   1.465  0.2274  0.4962 -0.7881
14405SOL     OW50329   0.448   5.487   7.672 -0.5654  0.2462 -0.2703
14405SOL    HW150330   0.374   5.458   7.726 -0.7151  1.0616 -0.0190
14405SOL    HW250331   0.420   5.470   7.582 -0.6372 -0.4014 -0.1302
14406SOL     OW50332   0.619   5.558   5.661 -0.5608 -0.1762 -0.4116
14406SOL    HW150333   0.608   5.651   5.680  1.8834  0.5770 -2.2221
14406SOL    HW250334   0.706   5.536   5.694  0.0213 -1.0922 -2.4039
14407SOL     OW50335   6.141   0.721   0.117  0.2319  0.3429  0.2299
14407SOL    HW150336   6.233   0.735   0.141  0.5651 -1.3751  0.0897
14407SOL    HW250337   6.130   0.626   0.120 -0.8695  0.3120 -2.1963
14408SOL     OW50338   2.138   5.857   6.497 -0.3079 -0.0971  0.4092
14408SOL    HW150339   2.093   5.836   6.416 -0.7186  0.4460  0.4900
14408SOL    HW250340   2.226   5.886   6.470 -1.0593  1.9732 -0.0285
14409SOL     OW50341   0.018   7.938   0.589  0.4536  0.1098 -0.2742
14409SOL    HW150342  -0.050   7.993   0.628 -0.2617  0.7982 -2.3416
14409SOL    HW250343   0.028   7.865   0.650 -1.5477  0.4212  0.5038
14410SOL     OW50344   7.280   7.599   7.077  0.1354 -0.0803 -0.5763
14410SOL    HW150345   7.225   7.655   7.132  0.4918  0.0953 -0.3950
14410SOL    HW250346   7.298   7.652   6.999  2.1425  0.8965  0.4534
14411SOL     OW50347   6.333   6.486   8.359  0.2608 -0.3215 -0.0394
14411SOL    HW150348   6.356   6.394   8.347 -2.2335 -1.0216 -0.0798
14411SOL    HW250349   6.415   6.534   8.344  1.6500 -2.5132  0.1035
14412SOL     OW50350   4.176   9.913   6.874 -0.5416 -0.2153  0.3299
14412SOL    HW150351   4.090   9.928   6.835 -0.5053 -0.8421 -0.0025
14412SOL    HW250352   4.163   9.842   6.936 -0.2744 -0.2767  0.3167
14413SOL     OW50353   9.536   9.854   1.888 -0.1018 -0.6869 -0.6624
14413SOL    HW150354   9.456   9.820   1.848 -2.0061  1.7654  0.8061
14413SOL    HW250355   9.596   9.867   1.814 -0.4820 -3.7224 -1.6669
14414SOL     OW50356   5.356   1.716   3.381 -0.2584 -0.7412  0.0611
14414SOL    HW150357   5.451   1.714   3.372 -0.0369  0.2751  1.7986
14414SOL    HW250358   5.324   1.734   3.293  1.0980 -1.8398 -0.7002
14415SOL     OW50359   5.979   5.054   3.014  0.1571 -0.3758 -0.3800
14415SOL    HW150360   6.065   5.051   3.057  0.1058 -0.3612 -0.2754
14415SOL    HW250361   5.923   5.000   3.070  0.0039 -0.0688 -0.2386
14416SOL     OW50362  10.714   4.921  11.667 -0.1010  0.2533 -0.2488
14416SOL    HW150363  10.629   4.882  11.685  0.1884 -0.3118 -0.0544
14416SOL    HW250364  10.754   4.932  11.753  0.5271 -0.6874 -0.3963
14417SOL     OW50365   6.216   2.620   3.132  0.0809 -1.1425  0.3211
14417SOL    HW150366   6.258   2.639   3.216 -0.9929 -0.4951  0.7448
14417SOL    HW250367   6.163   2.698   3.114  0.1971 -1.3274 -0.9077
14418SOL     OW50368   5.622   1.487   3.643  0.4935 -0.6800 -0.3269
14418SOL    HW150369   5.535   1.499   3.603 -0.5440  1.7094  2.3242
14418SOL    HW250370   5.609   1.419   3.708 -0.2419  1.4863  1.9457
14419SOL     OW50371   8.199   0.216  10.636  0.1324 -0.2430  0.5493
14419SOL    HW150372   8.174   0.186  10.723 -0.8793  0.1166  0.3977
14419SOL    HW250373   8.117   0.245  10.596  0.4746 -0.9411 -0.7400
14420SOL     OW50374   9.882  11.426   0.768 -0.5805  0.1450  0.4624
14420SOL    HW150375   9.795  11.388   0.784 -2.0612  2.7512 -0.7519
14420SOL    HW250376   9.935  11.353   0.737 -2.3838 -1.4834  0.9987
14421SOL     OW50377   4.798  11.676  11.802 -0.2567  0.4848 -0.0584
14421SOL    HW150378   4.858  11.658  11.875 -0.4098 -0.9856 -0.2643
14421SOL    HW250379   4.720  11.625  11.823  0.0984 -0.8314 -1.7337
14422SOL     OW50380  12.750  10.143   9.538 -0.4935 -0.0138  0.6529
14422SOL    HW150381  12.684  10.207   9.511 -0.6475  0.3723  1.8919
14422SOL    HW250382  12.716  10.059   9.507 -1.3123  0.2459  0.8183
14423SOL     OW50383   8.793   5.154   3.335 -0.7169  0.5071  0.1416
14423SOL    HW150384   8.797   5.246   3.357  2.8922  0.2523  1.1364
14423SOL    HW250385   8.845   5.146   3.255 -0.6550 -0.7112  0.2783
14424SOL     OW50386  10.417   2.310   2.377 -0.0777 -0.2428  0.1506
14424SOL    HW150387  10.348   2.307   2.310 -0.9603  0.0999  1.0144
14424SOL    HW250388  10.429   2.218   2.403 -0.5555 -0.2655  0.3166
14425SOL     OW50389   2.917   8.809  12.502  0.5931  0.2178 -0.3508
14425SOL    HW150390   2.936   8.867  12.429  1.4736  0.1624 -0.1832
14425SOL    HW250391   2.882   8.730  12.462  2.8515 -0.5790 -0.9092
14426SOL     OW50392   2.062   3.367   0.185  0.1156  0.3672  0.0830
14426SOL    HW150393   2.006   3.323   0.121  0.7853 -0.0276 -0.2377
14426SOL    HW250394   2.032   3.458   0.184 -0.4327  0.1895 -0.1824
14427SOL     OW50395  11.413   3.438   1.964 -0.6084  0.3556  0.2194
14427SOL    HW150396  11.372   3.357   1.994  0.7879  0.6939  3.4985
14427SOL    HW250397  11.340   3.494   1.937 -1.7410 -1.2651 -0.1916
14428SOL     OW50398   5.943   2.003   0.070 -0.2236 -0.3671  0.4665
14428SOL    HW150399   5.927   2.098   0.071 -1.8389 -0.5819 -0.5349
14428SOL    HW250400   6.024   1.992   0.120 -0.3883  1.4578  1.2367
14429SOL     OW50401  10.489   6.886   8.519  0.0717 -0.1451  0.3986
14429SOL    HW150402  10.399   6.853   8.516 -0.1481  0.4964 -0.8799
14429SOL    HW250403  10.524   6.854   8.602 -1.4434 -0.1088  1.0731
14430SOL     OW50404   7.873   4.003   0.296 -0.2502 -0.0329 -0.8738
14430SOL    HW150405   7.894   3.956   0.377  2.1582 -0.8243 -1.8758
14430SOL    HW250406   7.953   4.051   0.275 -1.8769  2.8047 -1.1300
14431SOL     OW50407  10.224   8.127   4.254 -0.6141  0.2905 -0.0985
14431SOL    HW150408  10.161   8.194   4.227 -2.5753 -1.1728  0.5717
14431SOL    HW250409  10.173   8.066   4.307  1.3166 -1.1879  0.1914
14432SOL     OW50410   5.330  11.113   4.253 -0.0958 -0.2608  0.1590
14432SOL    HW150411   5.336  11.158   4.169 -0.3872 -0.1094  0.2166
14432SOL    HW250412   5.381  11.167   4.314 -0.5416  0.0585  0.2541
14433SOL     OW50413  11.438   4.803   9.451 -0.6522  0.1795  0.4919
14433SOL    HW150414  11.457   4.772   9.362  2.2645  1.9094  0.3511
14433SOL    HW250415  11.418   4.724   9.501  0.1756 -1.1377 -1.1601
14434SOL     OW50416   3.128  11.352   0.688  0.6807  0.0180 -0.4199
14434SOL    HW150417   3.042  11.372   0.725  0.6984  0.0656 -0.4044
14434SOL    HW250418   3.190  11.369   0.759  0.5127 -2.4718  0.4245
14435SOL     OW50419   8.517   5.627   3.837 -0.3824 -0.1291 -0.4008
14435SOL    HW150420   8.542   5.659   3.924  2.1323 -1.5912 -0.4971
14435SOL    HW250421   8.517   5.704   3.781  0.1132  0.5139  0.4676
14436SOL     OW50422   9.982   7.085  12.099  0.4531  0.4952  0.8175
14436SOL    HW150423  10.008   7.174  12.074 -0.2111  0.7800  1.1146
14436SOL    HW250424  10.039   7.028  12.047 -0.6897  1.0628 -1.1639
14437SOL     OW50425   2.406   8.902   4.765  0.0252  0.2208  0.2025
14437SOL    HW150426   2.495   8.934   4.755  0.1837 -0.0496  0.7209
14437SOL    HW250427   2.415   8.816   4.807 -0.4984  0.4181  0.7457
14438SOL     OW50428   6.245   2.382   1.741  0.3263  0.4276 -0.6270
14438SOL    HW150429   6.290   2.444   1.798  0.2970 -0.3259  0.2513
14438SOL    HW250430   6.315   2.345   1.687  0.4360  0.7922 -0.7334
14439SOL     OW50431   4.602  12.236   9.562  0.2644 -0.0912  0.0403
14439SOL    HW150432   4.592  12.312   9.504  0.0184  0.1592  0.4078
14439SOL    HW250433   4.648  12.270   9.639  1.1791 -0.5675 -0.2819
14440SOL     OW50434  12.524   9.778   2.345  0.1618  0.5618  0.2818
14440SOL    HW150435  12.461   9.735   2.403 -0.8616 -1.5178 -2.1295
14440SOL    HW250436  12.477   9.854   2.311 -0.6827 -0.3062 -0.5802
14441SOL     OW50437   7.940   9.139   7.760  0.1796 -0.1472 -0.6161
14441SOL    HW150438   8.009   9.199   7.732  1.4298 -0.8976  0.7033
14441SOL    HW250439   7.956   9.059   7.710  0.7445 -0.5678  0.2122
14442SOL     OW50440   0.899   7.046   3.570  0.4323 -0.1818 -0.1648
14442SOL    HW150441   0.815   7.016   3.537 -0.0555 -0.2424  1.0946
14442SOL    HW250442   0.946   6.966   3.594 -1.0530 -0.0947  3.6442
14443SOL     OW50443  10.699   3.144   2.546 -0.6124 -0.2320 -0.3637
14443SOL    HW150444  10.766   3.201   2.507 -1.3835  2.1339  1.5858
14443SOL    HW250445  10.622   3.157   2.491 -1.0339  1.3364  0.5507
14444SOL     OW50446   2.811   3.781   5.871  0.3027 -0.1434  0.4148
14444SOL    HW150447   2.739   3.729   5.909 -1.6003  1.3671 -0.9308
14444SOL    HW250448   2.850   3.826   5.946 -0.1714 -0.9527  1.1715
14445SOL     OW50449   7.129   0.630   0.347 -0.5773 -0.0387  0.0139
14445SOL    HW150450   7.065   0.601   0.283  0.1758 -0.0306 -0.7670
14445SOL    HW250451   7.165   0.549   0.382 -1.0898 -0.0436  0.5376
14446SOL     OW50452  11.816   5.346   3.050  0.4064  0.5553 -0.1443
14446SOL    HW150453  11.893   5.293   3.028 -0.7265 -1.1901 -0.1539
14446SOL    HW250454  11.747   5.282   3.063 -1.3731  2.1228 -1.3840
14447SOL     OW50455   8.040   5.284   0.083 -0.0573  0.1925  0.0358
14447SOL    HW150456   8.083   5.233   0.151  2.7919  3.2239  0.7587
14447SOL    HW250457   7.960   5.316   0.124  0.5488  0.2168  1.2342
14448SOL     OW50458   8.119   2.167  11.703 -0.6460  0.1007 -0.6034
14448SOL    HW150459   8.171   2.121  11.637  0.3879  1.9511 -1.1319
14448SOL    HW250460   8.158   2.254  11.709 -3.6974  1.6309 -1.0386
14449SOL     OW50461   1.545   7.639   5.298 -0.1956  0.3357 -0.4378
14449SOL    HW150462   1.549   7.589   5.380 -1.2661 -0.7121 -0.9826
14449SOL    HW250463   1.490   7.585   5.241  0.1602  1.2727 -1.6914
14450SOL     OW50464  11.904   0.737   4.917  0.3783 -0.2689 -0.3688
14450SOL    HW150465  11.818   0.695   4.915  1.3235 -2.4413  1.0489
14450SOL    HW250466  11.941   0.721   4.830 -0.2235 -0.2665 -0.6264
14451SOL     OW50467  12.844  11.409   7.431 -0.0071  0.0052  0.6561
14451SOL    HW150468  12.830  11.320   7.461 -0.7881 -0.0695  0.0889
14451SOL    HW250469  12.858  11.401   7.337 -3.0751  0.7176  0.0420
14452SOL     OW50470   3.743  11.997   7.369 -0.3470  0.2024  0.2185
14452SOL    HW150471   3.764  11.905   7.352 -1.7849 -0.2402  0.6501
14452SOL    HW250472   3.717  12.032   7.284 -0.2205  0.0768  0.1292
14453SOL     OW50473   5.295   9.300   1.745  0.2030 -0.0388  0.1615
14453SOL    HW150474   5.250   9.295   1.661  0.1801  0.3267  0.1520
14453SOL    HW250475   5.311   9.393   1.759  2.2794 -0.2550 -0.5235
14454SOL     OW50476   6.348   0.478   0.702 -0.0102  0.3480 -0.0821
14454SOL    HW150477   6.381   0.388   0.700 -1.7321 -0.3281 -1.6466
14454SOL    HW250478   6.426   0.533   0.697  1.0372 -1.0881 -0.1468
14455SOL     OW50479   0.803   5.883   7.832 -0.2044 -0.1265  0.3258
14455SOL    HW150480   0.718   5.853   7.865  0.0102 -0.3941  0.6376
14455SOL    HW250481   0.864   5.865   7.903 -0.1514  1.5022  0.7338
14456SOL     OW50482   6.195   7.398   1.244 -0.1372  0.1308 -0.3248
14456SOL    HW150483   6.147   7.401   1.327 -1.3947  2.0455 -1.0539
14456SOL    HW250484   6.276   7.352   1.265 -0.2833  0.7989  2.0305
14457SOL     OW50485   7.276  11.274  10.546  0.3491 -0.1127  0.7232
14457SOL    HW150486   7.320  11.356  10.570  0.1327 -0.1510  1.2788
14457SOL    HW250487   7.211  11.262  10.615  0.1532 -0.5806  0.4563
14458SOL     OW50488  11.083  10.651  11.381  0.6460 -0.4927 -0.2323
14458SOL    HW150489  10.994  10.637  11.349  0.3603 -0.9195  0.6992
14458SOL    HW250490  11.072  10.703  11.461  1.2149 -0.6642 -0.0383
14459SOL     OW50491  12.380   4.190   7.600  0.0377 -0.2550  0.0699
14459SOL    HW150492  12.461   4.204   7.550  1.1668 -1.2660  1.5159
14459SOL    HW250493  12.384   4.098   7.627 -3.1386 -1.2708 -2.3651
14460SOL     OW50494   8.233   3.578   8.431 -0.9133 -0.2430 -0.4888
14460SOL    HW150495   8.141   3.555   8.444 -1.1853  1.2059  0.3102
14460SOL    HW250496   8.234   3.620   8.345 -1.0348 -0.1046 -0.4245
14461SOL     OW50497   0.238   6.365   3.603  0.0111 -0.1264 -0.3491
14461SOL    HW150498   0.195   6.334   3.683 -0.4376  2.7483  0.6266
14461SOL    HW250499   0.331   6.367   3.625  0.1522 -1.4399 -0.7148
14462SOL     OW50500   9.600   0.714   3.244 -0.2406 -0.6764 -0.5649
14462SOL    HW150501   9.511   0.711   3.208  0.4156 -1.4302 -2.2175
14462SOL    HW250502   9.615   0.626   3.279 -0.6656 -0.1103  1.1703
14463SOL     OW50503   7.478  10.025   8.408 -0.3534 -0.2298  0.0991
14463SOL    HW150504   7.573  10.030   8.413 -0.0835  3.0576 -3.3407
14463SOL    HW250505   7.461   9.959   8.340 -0.4639 -0.2701  0.1663
14464SOL     OW50506  11.408   6.871   2.653 -0.2118 -0.1779 -0.2596
14464SOL    HW150507  11.405   6.882   2.748  0.1242 -3.0974  0.1910
14464SOL    HW250508  11.491   6.826   2.637 -0.7252 -0.6405 -1.7948
14465SOL     OW50509   4.141   0.443   3.395  0.1225  0.1303  0.0632
14465SOL    HW150510   4.071   0.502   3.369  0.2505 -0.5460 -1.9467
14465SOL    HW250511   4.101   0.385   3.459 -0.7913  0.5694 -0.1004
14466SOL     OW50512   0.054   6.573   0.890  0.3359 -0.3425  0.0702
14466SOL    HW150513   0.056   6.503   0.824  1.8184 -0.7696  0.5425
14466SOL    HW250514  -0.039   6.588   0.906 -0.0230 -1.2131 -1.0860
14467SOL     OW50515   8.059  11.622   5.249  0.9080 -0.1596  0.0708
14467SOL    HW150516   8.114  11.699   5.260  1.3750 -0.6058  0.9683
14467SOL    HW250517   7.994  11.629   5.318  1.5185 -1.0295  0.7544
14468SOL     OW50518   8.179   9.964  10.868  0.1548  0.0630  0.1401
14468SOL    HW150519   8.192  10.025  10.940 -2.5732  0.1454  0.6376
14468SOL    HW250520   8.116  10.007  10.810 -1.3397 -1.9363  0.1705
14469SOL     OW50521   4.011   2.254   8.518  0.4759  0.5475  0.0853
14469SOL    HW150522   4.003   2.279   8.610  2.1680  1.1211  0.1191
14469SOL    HW250523   4.063   2.324   8.479 -2.3371  1.6566 -1.9341
14470SOL     OW50524   5.633   6.250   6.814  0.0579 -0.1921  0.4886
14470SOL    HW150525   5.700   6.230   6.749 -2.0963 -0.3405 -1.8605
14470SOL    HW250526   5.620   6.168   6.861  0.7032 -0.4731  0.1927
14471SOL     OW50527   3.978   8.636   9.704 -0.5419 -0.5094  0.1006
14471SOL    HW150528   3.900   8.685   9.677 -2.3364 -2.8925  0.6635
14471SOL    HW250529   3.968   8.549   9.665  2.3866 -0.6450 -0.6350
14472SOL     OW50530  10.258  11.488   6.050  0.8441  0.0463 -0.4818
14472SOL    HW150531  10.204  11.417   6.084 -0.5860  0.7833 -1.1548
14472SOL    HW250532  10.249  11.558   6.114  1.8888 -0.1906 -0.0513
14473SOL     OW50533   2.776   7.352   4.053 -0.4748 -0.4800 -0.0424
14473SOL    HW150534   2.761   7.261   4.079  0.6112 -1.5004 -2.6945
14473SOL    HW250535   2.707   7.372   3.991  0.4987 -0.2355 -1.0798
14474SOL     OW50536  11.897   1.374   2.930 -0.4321  0.4161  0.0218
14474SOL    HW150537  11.978   1.326   2.949 -1.4768 -0.5624  2.4419
14474SOL    HW250538  11.833   1.305   2.912 -1.0688  1.1204 -0.4542
14475SOL     OW50539   0.107   6.539  11.452 -0.0286  0.7104 -0.2798
14475SOL    HW150540   0.024   6.565  11.412 -0.1639  0.7877  0.0468
14475SOL    HW250541   0.148   6.482  11.387 -0.6964  0.0433 -0.1310
14476SOL     OW50542  11.824   7.914  12.052 -0.0527  0.2860  0.2262
14476SOL    HW150543  11.813   7.827  12.091 -0.0864  1.0272  1.9842
14476SOL    HW250544  11.734   7.943  12.034 -0.1520  0.5184  1.0201
14477SOL     OW50545   8.808   8.732   2.908  0.3143  0.4124 -0.4437
14477SOL    HW150546   8.860   8.809   2.929  1.2251 -0.4517  0.5614
14477SOL    HW250547   8.729   8.767   2.867  0.8482  1.8501 -0.2963
14478SOL     OW50548   2.759   6.159  12.163 -0.6026 -0.9651  0.0154
14478SOL    HW150549   2.733   6.200  12.245  2.4270 -2.0845  1.6847
14478SOL    HW250550   2.710   6.077  12.161 -1.2083 -0.6262  0.2986
14479SOL     OW50551   6.134   4.249   4.749  0.3051 -0.1345  0.2607
14479SOL    HW150552   6.048   4.224   4.781 -0.2457 -0.4291 -1.3683
14479SOL    HW250553   6.151   4.188   4.676  1.7763  0.0808  0.3971
14480SOL     OW50554  12.170   4.298  10.771 -0.2252  0.3309  0.0007
14480SOL    HW150555  12.147   4.205  10.775 -1.9226  0.7529  2.2695
14480SOL    HW250556  12.100   4.338  10.720 -0.7102  0.6232  0.8658
14481SOL     OW50557   8.530  10.253   6.837  0.3020  0.7857  0.3977
14481SOL    HW150558   8.515  10.277   6.746 -0.1700 -0.9292 -0.0143
14481SOL    HW250559   8.570  10.331   6.876  0.2827  1.6396 -1.1956
14482SOL     OW50560   5.507  11.623   9.685  0.3635  0.0285  0.3251
14482SOL    HW150561   5.530  11.532   9.668 -0.2068 -0.2208  0.8516
14482SOL    HW250562   5.590  11.670   9.679  0.7817 -0.6300  0.7825
14483SOL     OW50563   6.415   5.301  10.599 -0.2630  0.1810  0.3519
14483SOL    HW150564   6.357   5.226  10.605 -1.0096  0.8046  1.2943
14483SOL    HW250565   6.369   5.362  10.541 -1.2457  1.2395  2.1655
14484SOL     OW50566  11.024   8.537   6.520 -0.6430  0.7815  0.3033
14484SOL    HW150567  11.045   8.459   6.468  1.8120  1.9313 -0.5713
14484SOL    HW250568  11.057   8.517   6.607 -0.0592  0.8204  0.0921
14485SOL     OW50569   4.872   3.510  12.841 -0.5071 -0.0915 -0.2931
14485SOL    HW150570   4.838   3.600  12.841 -0.4772 -0.0639 -1.4007
14485SOL    HW250571   4.877   3.486  12.934  0.3832  1.3928  0.0808
14486SOL     OW50572   3.625   3.981   0.692  0.0107  0.1337 -0.0012
14486SOL    HW150573   3.688   4.048   0.666  1.1059 -0.1329  1.7854
14486SOL    HW250574   3.656   3.901   0.649  1.5645 -0.2225  1.6879
14487SOL     OW50575   2.710   1.277   4.020 -0.2557 -0.1085 -0.1260
14487SOL    HW150576   2.717   1.335   3.945 -0.3057  0.7653  0.5322
14487SOL    HW250577   2.790   1.293   4.070 -0.4467 -0.3291  0.2549
14488SOL     OW50578   6.650   0.961   7.397  0.0545  0.2656 -0.2959
14488SOL    HW150579   6.664   1.054   7.415 -0.0315  0.2135  0.0438
14488SOL    HW250580   6.689   0.948   7.311  2.1518  0.1248  0.6024
14489SOL     OW50581  12.759   3.203  11.757 -0.3390 -0.0378 -0.1928
14489SOL    HW150582  12.840   3.195  11.707  0.4003  0.6715  0.8381
14489SOL    HW250583  12.769   3.139  11.828 -1.0615 -0.5261 -0.5132
14490SOL     OW50584   1.252   8.920  10.487  0.3615  0.3119 -0.0967
14490SOL    HW150585   1.270   8.938  10.395  0.1677  0.4776 -0.1022
14490SOL    HW250586   1.188   8.986  10.512  0.6328  0.4508  0.2376
14491SOL     OW50587   9.803   5.612   7.826  0.0858 -0.8828 -0.5651
14491SOL    HW150588   9.803   5.698   7.785  1.9167 -0.6386 -0.1546
14491SOL    HW250589   9.832   5.553   7.757  0.4312 -0.9092 -0.3995
14492SOL     OW50590   7.166   0.761  12.255 -0.2608 -0.2859 -0.2240
14492SOL    HW150591   7.153   0.782  12.347 -0.8677 -1.6931  0.0357
14492SOL    HW250592   7.197   0.843  12.216  1.3085 -0.0195  1.4604
14493SOL     OW50593  11.779   5.339   2.273 -0.3739 -0.1350 -0.0546
14493SOL    HW150594  11.779   5.347   2.368  0.0259 -0.7725  0.0006
14493SOL    HW250595  11.835   5.264   2.255 -1.7217 -1.0224 -0.7135
14494SOL     OW50596  12.386   4.411  11.959  0.0453 -0.1150  0.8553
14494SOL    HW150597  12.466   4.436  12.004 -0.0823 -1.0769  1.6542
14494SOL    HW250598  12.364   4.486  11.904  2.0037 -0.2084 -0.1190
14495SOL     OW50599   6.578   7.774   6.927  0.2295 -0.0812 -0.3340
14495SOL    HW150600   6.622   7.797   7.009  0.0074 -0.2495 -0.1680
14495SOL    HW250601   6.599   7.682   6.913 -3.4255 -1.4671  1.9252
14496SOL     OW50602   2.681   6.658   5.038  0.1464 -1.2599 -0.2455
14496SOL    HW150603   2.775   6.660   5.054  0.4684  0.7548 -1.9760
14496SOL    HW250604   2.646   6.729   5.092 -0.0023 -0.3995 -1.4360
14497SOL     OW50605   5.991   0.943   5.840  0.2028 -0.0465  0.1025
14497SOL    HW150606   6.073   0.992   5.843 -0.3875  1.0009 -0.3562
14497SOL    HW250607   5.988   0.908   5.752 -0.1457  0.4630 -0.0912
14498SOL     OW50608   8.201  12.033  12.503  0.3655  0.2228  0.2945
14498SOL    HW150609   8.126  12.050  12.560  0.3460 -0.7715  0.5860
14498SOL    HW250610   8.221  12.118  12.464  0.3213  0.9217  1.7158
14499SOL     OW50611   1.082   2.857   8.136 -0.0944  0.2094 -0.4450
14499SOL    HW150612   1.051   2.875   8.047  1.9976 -0.0328 -1.2685
14499SOL    HW250613   1.022   2.791   8.169  0.5949 -1.6735 -2.6823
14500SOL     OW50614  10.392   1.327   2.620 -0.1015 -0.1710 -0.6765
14500SOL    HW150615  10.427   1.399   2.568 -0.2425  0.3057 -0.1241
14500SOL    HW250616  10.322   1.366   2.672  0.7676 -0.3660  0.7063
14501SOL     OW50617   6.026   6.669   2.510 -0.4545  0.1623  0.0437
14501SOL    HW150618   5.981   6.754   2.509 -0.2525  0.2668 -0.8381
14501SOL    HW250619   5.982   6.618   2.443 -0.1536 -0.2181  0.1339
14502SOL     OW50620   8.114  11.017  10.828  0.2662  0.4275  0.3201
14502SOL    HW150621   8.052  11.036  10.898 -1.0894 -4.3455  0.7056
14502SOL    HW250622   8.188  10.975  10.872  0.8860  0.3069 -0.8000
14503SOL     OW50623  11.625   6.330   5.767 -0.0994 -0.1954 -0.2012
14503SOL    HW150624  11.553   6.392   5.781 -0.3377 -0.5615  0.2227
14503SOL    HW250625  11.684   6.375   5.706 -1.1512 -0.2559 -1.3009
14504SOL     OW50626  10.802   3.599   6.159 -0.3126 -0.2140  0.6590
14504SOL    HW150627  10.840   3.532   6.102  0.8689 -0.0404  1.2129
14504SOL    HW250628  10.828   3.573   6.247 -0.7677  0.3853  0.9780
14505SOL     OW50629   5.546   9.761   0.433 -0.7360  0.3200 -0.1865
14505SOL    HW150630   5.633   9.776   0.468 -1.1000  0.1960  0.7800
14505SOL    HW250631   5.516   9.680   0.474 -1.0144 -0.0627 -1.0958
14506SOL     OW50632   2.657  10.564   6.022 -0.3118 -0.4612  0.0886
14506SOL    HW150633   2.599  10.512   6.078  0.7888 -1.0625  0.7002
14506SOL    HW250634   2.701  10.624   6.082 -0.8225  0.5163 -0.4782
14507SOL     OW50635  11.638   8.743   5.229 -0.3041  0.5141 -0.1652
14507SOL    HW150636  11.592   8.796   5.294 -0.2461  0.8478 -0.3953
14507SOL    HW250637  11.630   8.653   5.262  1.0668  0.8253  1.1444
14508SOL     OW50638  10.702  10.929   7.097  0.6822 -0.5833  0.5355
14508SOL    HW150639  10.715  10.963   7.185 -1.5960  1.2097  0.2630
14508SOL    HW250640  10.772  10.968   7.045  0.3867  0.6138  1.0170
14509SOL     OW50641   1.488   3.532   9.544  0.0609 -0.1373 -0.2416
14509SOL    HW150642   1.447   3.607   9.588 -0.0975 -0.4897  0.2214
14509SOL    HW250643   1.421   3.501   9.484  0.5603  0.8358 -1.3339
14510SOL     OW50644   6.676   4.013   2.337 -0.2077  0.3758  0.0188
14510SOL    HW150645   6.673   4.097   2.383  1.1631 -0.3375  1.4828
14510SOL    HW250646   6.599   3.966   2.370 -0.2178  0.5282  0.2138
14511SOL     OW50647  10.585   4.103  10.805  0.0257 -0.2284 -0.4962
14511SOL    HW150648  10.648   4.071  10.741  0.6256  1.1585 -0.6237
14511SOL    HW250649  10.505   4.118  10.754  0.1715 -0.1632 -0.7058
14512SOL     OW50650   3.519  12.669  11.729 -0.3187  0.4380  0.2879
14512SOL    HW150651   3.541  12.643  11.640  0.2825  0.4878  0.4192
14512SOL    HW250652   3.604  12.680  11.773 -0.5984 -0.3953  1.0932
14513SOL     OW50653   9.118   0.829   2.704  0.1943  0.7059 -0.2916
14513SOL    HW150654   9.150   0.886   2.634  0.3058 -0.2405 -1.0465
14513SOL    HW250655   9.193   0.772   2.724  0.7393  2.0799  1.8394
14514SOL     OW50656   7.249   9.453   0.435  0.1438 -0.3599  0.0490
14514SOL    HW150657   7.329   9.473   0.386 -0.3304 -0.2997 -0.7179
14514SOL    HW250658   7.180   9.500   0.388 -0.6729 -2.0733 -0.5657
14515SOL     OW50659   1.605   5.913   1.539 -0.6681  0.3596  0.2423
14515SOL    HW150660   1.523   5.964   1.542  0.4723  2.2990  0.0226
14515SOL    HW250661   1.632   5.916   1.448 -0.9566 -1.3561  0.0680
14516SOL     OW50662  11.059   8.326   9.048 -0.1088  0.4459 -0.0838
14516SOL    HW150663  11.004   8.276   9.108  1.9056  0.6222  2.0925
14516SOL    HW250664  11.004   8.399   9.020 -1.3798 -0.0532  1.0026
14517SOL     OW50665   3.558   0.654  10.011 -0.0038  0.0306 -0.3049
14517SOL    HW150666   3.571   0.560  10.025  2.1370  0.2220 -0.6231
14517SOL    HW250667   3.626   0.695  10.065 -0.7011  1.3858 -0.4231
14518SOL     OW50668   9.913   3.829  11.131  0.2081 -0.0282 -0.1269
14518SOL    HW150669   9.869   3.837  11.217  0.5133 -0.2333  0.0479
14518SOL    HW250670  10.003   3.806  11.152 -0.1755 -2.1298 -0.5497
14519SOL     OW50671   6.723   4.573   2.839 -0.4885 -0.0609  0.1627
14519SOL    HW150672   6.719   4.610   2.751 -4.1600 -1.0945 -0.2954
14519SOL    HW250673   6.788   4.504   2.834 -0.2086  0.2880 -1.5841
14520SOL     OW50674   2.752   8.469   9.080 -0.0378  0.1172  0.5045
14520SOL    HW150675   2.758   8.564   9.075 -0.9740  0.1679  0.1787
14520SOL    HW250676   2.678   8.446   9.024  0.9668 -0.9198 -0.4619
14521SOL     OW50677   8.163   0.019   6.411  0.1016 -0.7146 -0.1827
14521SOL    HW150678   8.200   0.106   6.424 -1.8139  0.1981 -0.4826
14521SOL    HW250679   8.227  -0.027   6.356  1.8192 -0.0220  1.1571
14522SOL     OW50680   1.749   3.908  10.432  0.2181  0.0628 -0.1882
14522SOL    HW150681   1.839   3.884  10.454  0.2110  0.6994  0.5574
14522SOL    HW250682   1.751   3.924  10.338  1.1089  0.9988 -0.0294
14523SOL     OW50683   6.808   7.205   0.718 -0.2423  0.4131 -0.5601
14523SOL    HW150684   6.875   7.236   0.656  1.5068 -1.0849  0.5006
14523SOL    HW250685   6.742   7.274   0.717  0.6310  1.3080 -2.6899
14524SOL     OW50686   2.174  11.166   5.909  0.0407  0.2843 -0.1944
14524SOL    HW150687   2.120  11.162   5.829  0.8267 -0.8411 -0.7009
14524SOL    HW250688   2.258  11.199   5.879 -0.1121  1.2805  0.4549
14525SOL     OW50689   8.737  11.057   5.383 -0.1241  0.0209 -0.3352
14525SOL    HW150690   8.676  11.118   5.341 -0.9248 -1.1100 -0.8737
14525SOL    HW250691   8.682  11.006   5.443 -0.2824 -2.7321 -2.6425
14526SOL     OW50692   1.904   1.214   6.190  0.2269 -0.0728 -0.3532
14526SOL    HW150693   1.921   1.306   6.169  0.4386 -0.4290 -1.8665
14526SOL    HW250694   1.809   1.204   6.180  0.1058  0.1440  0.5380
14527SOL     OW50695   1.549  11.662   3.486  0.3423  0.4742 -0.1204
14527SOL    HW150696   1.518  11.701   3.404 -0.3752  1.6691  0.6771
14527SOL    HW250697   1.557  11.569   3.467  0.4965  0.7723 -1.6356
14528SOL     OW50698   9.760   8.784   0.986 -0.2632  0.3923  0.1237
14528SOL    HW150699   9.735   8.693   0.969  1.6499  0.1619 -1.7301
14528SOL    HW250700   9.677   8.827   1.007 -1.3685 -1.5088 -0.0869
14529SOL     OW50701   8.177  12.301   2.704  0.5388  0.3761 -0.1491
14529SOL    HW150702   8.175  12.222   2.758  0.3109  1.6217  1.7873
14529SOL    HW250703   8.269  12.312   2.679  0.7315  0.0372  0.4115
14530SOL     OW50704   8.936   8.815  10.748 -0.1252 -0.0825 -0.1258
14530SOL    HW150705   8.895   8.766  10.677 -1.9333  0.7085  0.3044
14530SOL    HW250706   8.867   8.875  10.778  1.5135  1.6207  0.3854
14531SOL     OW50707   0.603   8.389   1.218  0.2572  0.4039  0.3924
14531SOL    HW150708   0.612   8.316   1.158  2.1707  0.5450  0.4329
14531SOL    HW250709   0.512   8.386   1.246  0.0240 -1.3163 -0.4028
14532SOL     OW50710   2.040   6.318   0.505 -0.1004 -0.3323 -0.2028
14532SOL    HW150711   1.971   6.253   0.492  0.6847 -1.2194  0.0231
14532SOL    HW250712   1.999   6.401   0.478 -1.2532 -0.8319 -0.0636
14533SOL     OW50713  10.012  10.138   7.637  0.2721 -0.2661  0.5858
14533SOL    HW150714   9.937  10.194   7.620 -0.1257 -0.0261  2.7565
14533SOL    HW250715   9.995  10.059   7.587 -0.2265  0.7051 -0.8281
14534SOL     OW50716  11.669  10.030   9.336  0.0542  0.2553  0.5617
14534SOL    HW150717  11.601   9.980   9.381  0.0700 -0.6792 -0.4039
14534SOL    HW250718  11.645  10.026   9.243  1.0555  0.4940  0.2760
14535SOL     OW50719   7.964   1.742   8.339 -0.1097 -0.1001 -0.0635
14535SOL    HW150720   7.900   1.673   8.324  1.1020 -1.1948 -0.4007
14535SOL    HW250721   8.040   1.696   8.377  0.6254  1.0895 -0.0416
14536SOL     OW50722  12.049   3.402  10.183 -0.9295  0.2088  0.1115
14536SOL    HW150723  11.967   3.442  10.213 -1.3218 -0.3741 -0.1567
14536SOL    HW250724  12.078   3.459  10.111 -2.1859 -0.6965 -1.1663
14537SOL     OW50725   6.866  11.555   4.051 -0.6583 -0.0542 -0.0244
14537SOL    HW150726   6.951  11.553   4.007 -1.5477 -2.2152 -1.8094
14537SOL    HW250727   6.885  11.591   4.138  2.2230 -1.1877 -0.0769
14538SOL     OW50728   5.894  12.851   5.283 -0.5541  0.3199  0.8177
14538SOL    HW150729   5.822  12.849   5.220 -0.4837  0.9569  0.7161
14538SOL    HW250730   5.877  12.928   5.337  0.6924  1.1994  0.0270
14539SOL     OW50731   6.171   0.347  11.513 -0.9163 -0.4478 -0.2305
14539SOL    HW150732   6.235   0.277  11.497  0.8254  0.5495  1.7984
14539SOL    HW250733   6.103   0.305  11.565 -0.9118 -1.0746 -0.7165
14540SOL     OW50734   3.204   3.089   4.321 -0.6290  0.4196  0.3018
14540SOL    HW150735   3.186   3.024   4.253 -1.4825  1.0256 -0.0642
14540SOL    HW250736   3.299   3.097   4.321 -0.5443 -0.4020 -0.0482
14541SOL     OW50737   9.128  10.369   5.819 -0.2944  0.2198 -0.6679
14541SOL    HW150738   9.032  10.374   5.816 -0.3717 -1.0109 -0.5256
14541SOL    HW250739   9.149  10.361   5.912 -0.0940 -0.2989 -0.7571
14542SOL     OW50740   8.060  11.879  10.883 -0.6344 -0.2672  0.6346
14542SOL    HW150741   8.114  11.811  10.923 -0.3128 -0.7476 -0.5638
14542SOL    HW250742   7.970  11.855  10.904 -0.7631 -2.6905 -2.0305
14543SOL     OW50743   2.586   0.216   3.358 -0.3083  0.0520  0.4100
14543SOL    HW150744   2.616   0.300   3.324 -0.1503 -0.7464 -1.5141
14543SOL    HW250745   2.502   0.236   3.400 -0.1792  1.1874  0.1683
14544SOL     OW50746   8.240   3.506   1.477  0.2980  0.6794  0.0171
14544SOL    HW150747   8.329   3.480   1.454  0.2638  0.7771 -0.2389
14544SOL    HW250748   8.227   3.475   1.566 -0.0933 -1.0840 -0.6074
14545SOL     OW50749   5.874   6.267   6.693  0.4498  0.1056 -0.1613
14545SOL    HW150750   5.887   6.337   6.756  0.5288  0.4543 -0.5638
14545SOL    HW250751   5.962   6.244   6.663  1.0126 -3.1757  3.1330
14546SOL     OW50752  10.379   9.322   2.681 -0.5827  0.2667 -0.0170
14546SOL    HW150753  10.466   9.288   2.701 -1.1439 -1.6294 -0.6322
14546SOL    HW250754  10.327   9.302   2.758 -1.1192 -1.0640 -0.7008
14547SOL     OW50755   9.697   7.628   2.719 -0.3887 -0.0508 -0.3463
14547SOL    HW150756   9.737   7.554   2.765  0.5309  0.0960 -0.8904
14547SOL    HW250757   9.613   7.594   2.688 -0.2074 -0.7015 -0.1419
14548SOL     OW50758   4.589   4.965   8.235 -0.2842 -0.3561 -0.2740
14548SOL    HW150759   4.553   4.889   8.190  1.1826 -1.4581  0.3085
14548SOL    HW250760   4.565   5.040   8.181 -0.6747 -1.3808 -1.5521
14549SOL     OW50761  11.760   6.198  10.460  0.6362  0.1941  0.4219
14549SOL    HW150762  11.814   6.240  10.526  0.9326  1.1557 -0.4031
14549SOL    HW250763  11.690   6.261  10.442  0.6318  0.0036 -0.2688
14550SOL     OW50764   8.314  10.160   2.610 -0.0601 -0.6172 -0.5766
14550SOL    HW150765   8.256  10.235   2.607 -0.1678 -0.7056 -0.7663
14550SOL    HW250766   8.301  10.122   2.697  1.9027  1.0646  0.5470
14551SOL     OW50767   0.535   5.946   5.271  0.2081  0.0047  0.3298
14551SOL    HW150768   0.547   5.852   5.276  0.4202 -0.0679 -1.0381
14551SOL    HW250769   0.455   5.957   5.219 -0.0588  0.5756  0.8504
14552SOL     OW50770   3.099  11.013   8.799 -0.3951  0.1089  0.6442
14552SOL    HW150771   3.158  10.944   8.827 -1.4802 -1.1330 -0.0227
14552SOL    HW250772   3.088  11.069   8.876  0.0063 -0.8181  1.3822
14553SOL     OW50773  11.536   9.734  11.364  0.5471  0.4679  0.4946
14553SOL    HW150774  11.594   9.712  11.436  2.9923  0.9864 -1.2138
14553SOL    HW250775  11.526   9.653  11.315  1.5164  0.8295 -0.3304
14554SOL     OW50776   1.168  11.512   7.378 -0.0430  0.3157  0.1148
14554SOL    HW150777   1.107  11.439   7.359 -0.1193  0.6277 -0.9340
14554SOL    HW250778   1.253  11.480   7.347  0.3205 -0.0731  1.4695
14555SOL     OW50779   3.517  10.638  10.605 -0.1817  0.7942  0.3247
14555SOL    HW150780   3.526  10.551  10.644 -1.8803  0.5038  0.1680
14555SOL    HW250781   3.543  10.699  10.674  0.1423  0.1917  0.7383
14556SOL     OW50782  11.282   8.133   5.428  0.9428 -0.8355  0.2775
14556SOL    HW150783  11.215   8.141   5.496  1.4117  1.3004  0.5480
14556SOL    HW250784  11.352   8.191   5.457  0.9357  0.5654 -2.2771
14557SOL     OW50785   3.447  10.911  11.166  0.5451 -0.0177 -0.3712
14557SOL    HW150786   3.519  10.887  11.225  1.4111 -0.5787 -1.6135
14557SOL    HW250787   3.473  10.876  11.081 -1.7393 -1.2522 -0.6345
14558SOL     OW50788   9.662   8.390   4.005  0.4397  0.5383  0.7090
14558SOL    HW150789   9.749   8.360   4.032  0.8305  1.4130  0.4897
14558SOL    HW250790   9.626   8.433   4.082  1.6722  3.2943 -0.0893
14559SOL     OW50791   1.654   8.974   8.952  0.5408 -0.2205 -0.7299
14559SOL    HW150792   1.669   8.912   8.881 -0.6795  0.3422 -1.5102
14559SOL    HW250793   1.669   9.060   8.911  1.3728  0.0562  0.1148
14560SOL     OW50794   6.036   8.109   5.947  0.2269 -0.1145 -0.1301
14560SOL    HW150795   6.019   8.129   5.855 -0.6080  1.8462  0.3925
14560SOL    HW250796   6.100   8.174   5.974 -0.1837 -0.1120  0.8753
14561SOL     OW50797  11.562   5.471   2.912  0.2965 -0.2768 -0.4741
14561SOL    HW150798  11.653   5.442   2.902  0.5616  0.2763  0.2362
14561SOL    HW250799  11.564   5.564   2.889  0.1141 -0.0146  0.5065
14562SOL     OW50800   1.071  10.982   0.891  0.3192 -0.0604 -0.1109
14562SOL    HW150801   1.032  11.050   0.945 -0.7211  0.6626 -1.7008
14562SOL    HW250802   1.165  10.991   0.906  0.1402  1.0862  0.4270
14563SOL     OW50803   1.718   9.260   5.825  0.7151  0.1461  0.1761
14563SOL    HW150804   1.653   9.297   5.766  0.0458  0.0299  0.8228
14563SOL    HW250805   1.689   9.287   5.912  1.0231 -0.6798  0.5424
14564SOL     OW50806   9.624   7.873   6.426  0.0915  0.8211 -0.1016
14564SOL    HW150807   9.599   7.805   6.489 -0.3620  1.4486  0.4128
14564SOL    HW250808   9.564   7.862   6.353  0.5260  0.1802 -0.3713
14565SOL     OW50809   1.206  11.315   4.893  0.3085  0.7468  0.3573
14565SOL    HW150810   1.133  11.253   4.893  0.0978  0.9601  1.6861
14565SOL    HW250811   1.208  11.351   4.805  0.5854 -1.3136 -0.5262
14566SOL     OW50812   5.755  10.401   9.116  0.2103 -0.0359 -0.8141
14566SOL    HW150813   5.767  10.306   9.117 -1.2158 -0.2896  1.6565
14566SOL    HW250814   5.793  10.429   9.033 -1.9142 -3.0802 -3.0557
14567SOL     OW50815   8.520   7.347   3.745  0.2220 -0.4449  0.2984
14567SOL    HW150816   8.494   7.272   3.798  0.5872  0.3156  1.6006
14567SOL    HW250817   8.548   7.413   3.809  1.3106  0.2684 -0.8672
14568SOL     OW50818   2.573  10.599   2.150 -0.3098  0.2843  0.5858
14568SOL    HW150819   2.640  10.645   2.201  0.4916 -1.2490  0.9854
14568SOL    HW250820   2.616  10.583   2.065 -0.9649  1.1673  0.0695
14569SOL     OW50821   4.367  10.541  11.187 -0.3223 -0.0040 -0.3610
14569SOL    HW150822   4.426  10.616  11.184  0.7843 -0.7590  0.9382
14569SOL    HW250823   4.329  10.544  11.275 -0.1896 -0.9857 -0.2563
14570SOL     OW50824   6.835   2.578   3.599 -0.0428  0.4434  0.8298
14570SOL    HW150825   6.763   2.616   3.548  0.6854 -0.1627 -0.7046
14570SOL    HW250826   6.914   2.600   3.549  0.8211  0.7678  2.2798
14571SOL     OW50827   6.141   9.973   0.532  0.0019 -0.4097  0.2985
14571SOL    HW150828   6.069   9.968   0.595  0.3855 -1.2279  0.6871
14571SOL    HW250829   6.113  10.040   0.469 -1.4319 -1.2193  0.0250
14572SOL     OW50830   5.355   1.247   8.932 -0.0879 -0.0248 -0.0116
14572SOL    HW150831   5.398   1.163   8.913 -0.8406 -0.0965 -1.6075
14572SOL    HW250832   5.372   1.262   9.025  3.3673 -0.0353 -0.5160
14573SOL     OW50833   1.679   4.975  11.712 -0.0763 -0.4853  0.3652
14573SOL    HW150834   1.607   4.963  11.650  0.9514 -0.6037 -0.8388
14573SOL    HW250835   1.755   4.995  11.658  0.6684  0.3566  1.6508
14574SOL     OW50836   3.731   3.916   9.270 -0.2189  0.1215  0.2204
14574SOL    HW150837   3.699   3.935   9.182  0.0344 -1.5269 -0.2480
14574SOL    HW250838   3.820   3.884   9.257 -0.4604 -0.9114  0.9978
14575SOL     OW50839   1.754   5.440   4.825  0.4779  0.2878 -0.1769
14575SOL    HW150840   1.659   5.426   4.826  0.3836  0.9358  0.3105
14575SOL    HW250841   1.787   5.381   4.893  0.3747  0.4250 -0.0077
14576SOL     OW50842   5.504   2.414   5.065 -0.2834  0.1282 -0.2415
14576SOL    HW150843   5.439   2.350   5.039  0.7204 -1.1234  0.2147
14576SOL    HW250844   5.572   2.409   4.997  0.1672  0.1465  0.1988
14577SOL     OW50845   4.032  10.316  12.529  0.0872  0.6993  0.1297
14577SOL    HW150846   4.043  10.275  12.444 -1.6029  1.5961 -0.5567
14577SOL    HW250847   4.081  10.398  12.523  0.6585  0.3788  0.3285
14578SOL     OW50848  10.172   3.442   7.868  0.2224  0.0830 -0.5765
14578SOL    HW150849  10.098   3.455   7.927  0.8740  0.4700  0.1796
14578SOL    HW250850  10.233   3.511   7.890  0.6036  0.0709 -1.5401
14579SOL     OW50851   9.446   5.135   0.627  0.6515  0.3543  0.0705
14579SOL    HW150852   9.389   5.204   0.661  0.0947  0.1934 -0.5254
14579SOL    HW250853   9.495   5.176   0.556 -1.2652 -0.3842 -1.7851
14580SOL     OW50854   5.559  12.652   7.770 -0.3931 -0.2579 -0.6040
14580SOL    HW150855   5.522  12.565   7.757  2.3472 -1.9838  1.9708
14580SOL    HW250856   5.634  12.656   7.711  0.1018 -0.0934  0.0193
14581SOL     OW50857  11.768   0.663   1.663 -0.3400 -0.1111 -0.6751
14581SOL    HW150858  11.713   0.611   1.720 -1.1925  1.1356 -0.3122
14581SOL    HW250859  11.830   0.601   1.625  0.5731 -0.9156  1.9406
14582SOL     OW50860   4.198   9.269   5.125  0.4242 -0.0162  0.9563
14582SOL    HW150861   4.109   9.303   5.117  0.8783  1.4830  1.9474
14582SOL    HW250862   4.243   9.300   5.046  0.1948 -0.3798  0.6821
14583SOL     OW50863   1.205  12.487   4.103 -0.0972 -0.1919  0.2599
14583SOL    HW150864   1.244  12.574   4.091 -2.6871  0.8783 -1.0583
14583SOL    HW250865   1.210  12.446   4.017  0.0154 -0.8867  0.5909
14584SOL     OW50866   1.686   3.159   8.434  0.7431 -0.1826 -0.3610
14584SOL    HW150867   1.633   3.084   8.405 -0.3633 -0.2855  1.7429
14584SOL    HW250868   1.644   3.235   8.394 -0.5179 -0.3550  0.5758
14585SOL     OW50869   6.231   8.998  12.320 -0.0070 -0.7542 -0.0674
14585SOL    HW150870   6.252   9.030  12.232  0.0757 -2.7188 -0.8235
14585SOL    HW250871   6.178   8.919  12.305 -1.0416 -0.4421  1.6824
14586SOL     OW50872   7.719  12.072   8.106 -0.1401  0.2680 -0.3334
14586SOL    HW150873   7.814  12.060   8.099 -0.1853 -0.3116 -0.0071
14586SOL    HW250874   7.692  12.096   8.017  0.3467  0.7421 -0.3629
14587SOL     OW50875   1.013   7.030   7.358  0.1296  0.0437 -0.6476
14587SOL    HW150876   1.007   6.987   7.443  0.7744  1.3057  0.0549
14587SOL    HW250877   1.102   7.065   7.354 -0.6129  2.0954 -0.7736
14588SOL     OW50878   7.310   0.565  12.121  0.1015  0.7567  0.6012
14588SOL    HW150879   7.270   0.644  12.157  0.1121  0.4615  1.2907
14588SOL    HW250880   7.251   0.537  12.051  0.1566  1.4350  0.2834
14589SOL     OW50881   3.217   8.008   6.406  0.6168 -0.4315  0.1063
14589SOL    HW150882   3.245   7.916   6.413  1.4863 -0.1377  0.4988
14589SOL    HW250883   3.245   8.048   6.488 -1.4781 -0.2462  0.7858
14590SOL     OW50884  11.317   7.280   0.620  0.4300 -0.1053 -0.4935
14590SOL    HW150885  11.234   7.326   0.608  0.2637  0.5653  2.3190
14590SOL    HW250886  11.297   7.188   0.607 -0.7738  0.0573  0.0831
14591SOL     OW50887   7.704   6.760  11.831 -0.3840  0.0395  0.3292
14591SOL    HW150888   7.758   6.697  11.878 -0.5311 -0.1876  0.1966
14591SOL    HW250889   7.668   6.711  11.757 -0.2335  0.3672  0.0362
14592SOL     OW50890   6.882   9.381   4.242  0.0736  0.4853  0.1680
14592SOL    HW150891   6.935   9.312   4.202 -1.4773 -1.8490  1.8599
14592SOL    HW250892   6.946   9.443   4.277  1.5567 -0.3665 -0.9150
14593SOL     OW50893   4.148   8.073   7.592  0.4814  0.1918 -0.0605
14593SOL    HW150894   4.105   8.015   7.655  0.4670 -0.2010 -0.4289
14593SOL    HW250895   4.120   8.161   7.618  0.5269  0.0375  0.5178
14594SOL     OW50896  11.056   9.205  12.961  0.1307  0.5115 -0.4064
14594SOL    HW150897  11.064   9.166  13.048 -0.7100 -1.0200 -0.9929
14594SOL    HW250898  11.032   9.296  12.979  0.0813  0.2531  0.9613
14595SOL     OW50899   2.527   9.406  11.323 -0.6524  0.3489  0.2685
14595SOL    HW150900   2.456   9.448  11.373 -2.0310  0.1316 -1.4145
14595SOL    HW250901   2.585   9.478  11.299 -0.8803  0.6955  0.7413
14596SOL     OW50902   6.484   7.452   1.353  0.3077  0.4190  0.0521
14596SOL    HW150903   6.504   7.392   1.424  0.1087 -0.4739 -0.6379
14596SOL    HW250904   6.413   7.506   1.386  1.0011  0.8131  0.9634
14597SOL     OW50905   9.143   3.139   2.542  0.5876 -0.1559  0.0154
14597SOL    HW150906   9.068   3.096   2.502  0.6065  0.2380 -0.4482
14597SOL    HW250907   9.144   3.227   2.504 -0.1807  0.7028  1.8524
14598SOL     OW50908   9.187   2.668  11.533 -0.6584  0.2633  0.4979
14598SOL    HW150909   9.270   2.633  11.565  0.7159  1.3033 -1.6658
14598SOL    HW250910   9.125   2.595  11.543  1.2233 -1.5744 -0.4979
14599SOL     OW50911   4.559   3.061   1.278 -0.5774  0.3140  0.0349
14599SOL    HW150912   4.637   3.049   1.223 -1.4435 -1.1883 -0.9300
14599SOL    HW250913   4.486   3.059   1.217 -1.5961 -1.5918  1.2068
14600SOL     OW50914   5.065  12.527   6.339  0.5617 -0.5839 -0.1157
14600SOL    HW150915   5.109  12.448   6.308  0.3446  0.0771 -2.3058
14600SOL    HW250916   5.112  12.599   6.296  0.1384  0.4348  1.0548
14601SOL     OW50917   4.178  12.575   0.326  0.4247  0.3506 -0.2516
14601SOL    HW150918   4.084  12.591   0.334  0.7388  2.3264 -0.0696
14601SOL    HW250919   4.207  12.558   0.415  0.2974  0.0481 -0.2665
14602SOL     OW50920   2.494   4.121   2.101  0.1653  0.6915 -0.2731
14602SOL    HW150921   2.461   4.067   2.172  0.3407 -0.3710 -0.9762
14602SOL    HW250922   2.587   4.132   2.121  0.6629 -1.2107 -1.2717
14603SOL     OW50923   7.839   6.998   9.489 -0.1237  0.3551 -0.4869
14603SOL    HW150924   7.908   6.977   9.552 -0.5895  0.0689 -0.0644
14603SOL    HW250925   7.884   7.003   9.405 -0.0720 -3.5482 -0.8789
14604SOL     OW50926   2.252   4.237   9.367 -0.0772  0.0412 -0.0566
14604SOL    HW150927   2.240   4.162   9.308 -0.2131 -0.3938  0.5109
14604SOL    HW250928   2.279   4.198   9.450 -0.6620  0.5804  0.3975
14605SOL     OW50929   4.425   2.669   1.615 -0.3779  0.7230 -0.4071
14605SOL    HW150930   4.393   2.638   1.699  0.8827  0.3601 -0.0318
14605SOL    HW250931   4.411   2.597   1.554 -2.1748  1.3309 -0.7621
14606SOL     OW50932   7.295   7.691  10.065  0.1787  0.2530 -0.1482
14606SOL    HW150933   7.347   7.701   9.985  0.0949  3.5250  0.0676
14606SOL    HW250934   7.357   7.707  10.136 -0.0324 -1.3185  0.4239
14607SOL     OW50935   5.215  10.306   0.659  0.1674  0.5064 -0.1085
14607SOL    HW150936   5.154  10.232   0.654 -1.2501  1.6384 -0.4295
14607SOL    HW250937   5.214  10.344   0.571  1.0819  0.7463 -0.0238
14608SOL     OW50938   7.674   8.173   1.670 -0.0304  0.3768  0.1664
14608SOL    HW150939   7.756   8.127   1.650 -0.2564  0.0931 -0.1029
14608SOL    HW250940   7.671   8.176   1.766  1.0426  1.7134  0.1939
14609SOL     OW50941   5.772   9.085   2.272  0.1228  0.2489 -0.0525
14609SOL    HW150942   5.851   9.140   2.272  0.6797 -0.5218  0.9826
14609SOL    HW250943   5.709   9.133   2.217  1.5856  0.4634 -1.6399
14610SOL     OW50944  10.834   0.295  10.625 -0.3022  0.5203  0.7109
14610SOL    HW150945  10.880   0.230  10.573  1.1292  0.3276  2.1511
14610SOL    HW250946  10.744   0.293  10.591  0.1815 -0.7443 -0.6179
14611SOL     OW50947  12.239   0.894   2.312  0.3580  0.1958 -0.2698
14611SOL    HW150948  12.232   0.899   2.216 -0.2292 -0.9298 -0.3164
14611SOL    HW250949  12.213   0.980   2.343 -2.5034 -0.2833 -1.0305
14612SOL     OW50950   2.463   0.225   0.871  0.1627 -0.3183 -0.1099
14612SOL    HW150951   2.414   0.290   0.921  3.0720  0.9320  1.3437
14612SOL    HW250952   2.443   0.245   0.779 -2.1721 -0.0863  0.3905
14613SOL     OW50953   6.325   6.048  11.635 -0.5296  0.0334 -0.0272
14613SOL    HW150954   6.322   6.066  11.729  0.4170 -2.4491  0.5726
14613SOL    HW250955   6.234   6.034  11.610 -0.9081  1.8964  0.2142
14614SOL     OW50956   2.082  11.905  11.460 -0.3100 -0.6064  0.3451
14614SOL    HW150957   2.138  11.918  11.537  0.5114  3.2804 -0.6843
14614SOL    HW250958   2.027  11.983  11.457  0.7220  0.1900 -3.7456
14615SOL     OW50959  12.052  11.427   2.794 -0.6189 -0.2218 -0.1636
14615SOL    HW150960  11.963  11.423   2.828 -0.0971 -2.3424  1.1386
14615SOL    HW250961  12.086  11.511   2.825 -1.4526 -0.3743  1.2550
14616SOL     OW50962   7.364   1.193   4.251  0.2739 -0.2123  0.1760
14616SOL    HW150963   7.284   1.245   4.241  0.8822  0.6328 -0.4735
14616SOL    HW250964   7.402   1.223   4.333 -0.1404 -0.7246  0.5641
14617SOL     OW50965  11.377  10.064   7.453  0.0397 -0.0494 -0.2369
14617SOL    HW150966  11.405  10.156   7.452  0.0907 -0.0650 -0.8538
14617SOL    HW250967  11.313  10.058   7.383 -1.6675  0.0135  1.2399
14618SOL     OW50968   7.513   2.071  12.375  0.1245 -0.1337  0.4900
14618SOL    HW150969   7.528   2.045  12.466  0.5461  1.1217  0.8025
14618SOL    HW250970   7.583   2.133  12.356  0.3077 -0.7170 -0.8493
14619SOL     OW50971   6.272   4.817   7.498  0.4197 -0.3842  0.2163
14619SOL    HW150972   6.322   4.866   7.433 -0.8414 -0.9616 -1.2280
14619SOL    HW250973   6.262   4.878   7.571  1.6258  0.3691 -0.2244
14620SOL     OW50974   4.537   5.011   9.388 -0.4749  0.3209 -0.1031
14620SOL    HW150975   4.619   4.964   9.378  0.3786  1.8184 -0.4732
14620SOL    HW250976   4.558   5.084   9.446 -0.9159  2.0918 -2.0578
14621SOL     OW50977   6.892   3.500   3.439  0.8911 -0.1594 -0.4396
14621SOL    HW150978   6.897   3.467   3.529  0.6028  2.2197  0.5343
14621SOL    HW250979   6.798   3.515   3.424  0.8975 -0.8631 -1.3110
14622SOL     OW50980   9.581  10.885   7.437  0.0446 -0.0288 -0.7851
14622SOL    HW150981   9.659  10.846   7.399  1.2989  1.4036  0.1436
14622SOL    HW250982   9.600  10.888   7.531 -1.0241  0.5720 -0.5757
14623SOL     OW50983   7.105   1.661   6.668 -0.0449 -0.0004 -0.6193
14623SOL    HW150984   7.162   1.657   6.591  1.1001  0.2758  0.2004
14623SOL    HW250985   7.152   1.613   6.736 -0.2536  1.2092  0.4012
14624SOL     OW50986  11.523   5.953   8.943  0.2798  0.1366  0.2836
14624SOL    HW150987  11.542   5.998   9.026  0.2159  1.1115 -0.2099
14624SOL    HW250988  11.433   5.978   8.924  0.9446  1.6823 -1.1210
14625SOL     OW50989   1.914  11.292   1.172 -0.4177  0.3012 -0.0432
14625SOL    HW150990   1.904  11.281   1.078 -3.2217  0.1025  0.1981
14625SOL    HW250991   1.934  11.385   1.184 -0.0106  0.3185 -0.7992
14626SOL     OW50992  11.719   4.366   3.642  0.1609 -0.6752  0.2768
14626SOL    HW150993  11.649   4.310   3.608  0.0961 -0.6966  0.4486
14626SOL    HW250994  11.799   4.315   3.629  0.1227 -0.7308  0.2604
14627SOL     OW50995   9.649  10.213   9.119 -0.1255 -0.2623 -0.6521
14627SOL    HW150996   9.743  10.210   9.100 -0.2449  0.2435 -1.3488
14627SOL    HW250997   9.614  10.277   9.057 -0.5662  1.3641  1.1719
14628SOL     OW50998   1.154   5.686   0.565 -0.1097  0.0741  0.1146
14628SOL    HW150999   1.183   5.714   0.652  0.9992 -1.3694  0.2454
14628SOL    HW251000   1.067   5.725   0.556  0.8630  2.5668  0.6843
14629SOL     OW51001   5.434   7.178   5.932 -0.5058  0.6343 -0.0014
14629SOL    HW151002   5.376   7.154   5.860  0.4178  1.3095 -0.9979
14629SOL    HW251003   5.406   7.123   6.005 -1.7174  0.2218 -0.7548
14630SOL     OW51004   2.507  10.281  11.350 -0.3740  0.2690  0.2181
14630SOL    HW151005   2.587  10.228  11.347 -1.0806 -0.9334  1.3969
14630SOL    HW251006   2.538  10.371  11.358  0.8659 -0.1638  0.5164
14631SOL     OW51007   4.051   2.810   0.079  0.5193  0.1925  0.1350
14631SOL    HW151008   4.068   2.898   0.044 -1.1668 -0.0196 -1.3984
14631SOL    HW251009   4.019   2.761   0.003 -1.9171 -0.7417  1.6542
14632SOL     OW51010  12.156   1.986  12.329 -0.5333  0.0147  0.1656
14632SOL    HW151011  12.122   1.912  12.378 -0.0707  0.3791  1.0568
14632SOL    HW251012  12.092   2.056  12.344 -0.4539  0.0919  0.1441
14633SOL     OW51013   9.121   4.465   4.297  0.0998  0.7026  0.4836
14633SOL    HW151014   9.061   4.465   4.224  2.3331  0.6653 -1.4778
14633SOL    HW251015   9.176   4.542   4.284  0.9205  0.3901  1.7969
14634SOL     OW51016   9.139   6.551   1.518 -0.1996  0.2591 -0.6452
14634SOL    HW151017   9.080   6.480   1.495  0.0323 -0.2970  0.3772
14634SOL    HW251018   9.176   6.525   1.603  1.5814  0.5246 -1.2884
14635SOL     OW51019   9.949   1.728   2.065  0.2298  0.4656  0.1521
14635SOL    HW151020   9.998   1.778   2.130  0.9675  0.4923 -0.4106
14635SOL    HW251021   9.898   1.664   2.116  1.9596 -0.5483  0.6765
14636SOL     OW51022  10.077   1.766   0.720 -0.2449  0.0782  0.5230
14636SOL    HW151023  10.159   1.740   0.679  0.8387 -0.1039  2.6512
14636SOL    HW251024  10.079   1.861   0.722 -0.8103  0.1296 -0.7667
14637SOL     OW51025  12.722   5.730   2.997  1.1607 -0.3601  0.3410
14637SOL    HW151026  12.638   5.686   2.985  1.6944 -1.5723  0.8993
14637SOL    HW251027  12.699   5.819   3.024  0.0660 -0.7060  0.5917
14638SOL     OW51028   4.750   6.257   5.395  0.3039  0.4990  0.2519
14638SOL    HW151029   4.679   6.296   5.345  1.5387 -0.2817 -2.2332
14638SOL    HW251030   4.823   6.249   5.334  1.6231 -1.3724  1.9020
14639SOL     OW51031   6.660   7.732   3.195 -0.2000 -0.1400 -0.0408
14639SOL    HW151032   6.723   7.739   3.123 -0.7648 -0.1977 -0.5475
14639SOL    HW251033   6.574   7.738   3.153 -0.5411  1.3147  0.7727
14640SOL     OW51034  11.905   2.546  12.918  0.4347  0.2403 -0.1045
14640SOL    HW151035  11.811   2.531  12.925  0.5350 -0.2667  0.2292
14640SOL    HW251036  11.934   2.561  13.009  0.6369  0.6073 -0.2308
14641SOL     OW51037   1.788   2.481  11.943 -0.6375 -0.4461  0.0373
14641SOL    HW151038   1.772   2.399  11.988 -0.0039 -0.5825  0.0305
14641SOL    HW251039   1.763   2.464  11.852 -1.8755 -0.1831  0.3099
14642SOL     OW51040   2.607   5.713   3.365 -0.1380 -0.6043 -0.1245
14642SOL    HW151041   2.654   5.692   3.285  0.6314 -0.0686  0.1717
14642SOL    HW251042   2.519   5.677   3.352 -0.1321 -0.1974 -1.3473
14643SOL     OW51043   4.539   3.339   1.316 -0.0438  0.2065  0.7751
14643SOL    HW151044   4.544   3.244   1.327 -1.1185  0.2924  2.3241
14643SOL    HW251045   4.571   3.374   1.400 -0.4539  1.1873  0.5260
14644SOL     OW51046  11.585   3.234  12.929 -0.0553  0.5637 -0.0472
14644SOL    HW151047  11.502   3.238  12.882  0.0550  1.5350 -0.1767
14644SOL    HW251048  11.562   3.245  13.021 -0.3484 -2.0748  0.2676
14645SOL     OW51049   6.828   9.763   0.286 -0.3836 -0.2709 -0.1171
14645SOL    HW151050   6.751   9.739   0.338 -0.3782 -0.9402 -0.4013
14645SOL    HW251051   6.887   9.688   0.295  0.2065  0.2049  0.0351
14646SOL     OW51052  12.821  12.265   6.759 -0.2306 -0.0948  0.6986
14646SOL    HW151053  12.822  12.300   6.849  1.2343 -0.6363  0.9173
14646SOL    HW251054  12.803  12.172   6.770 -0.6062 -0.0624  0.3754
14647SOL     OW51055   7.193   9.251  10.380  0.0127  0.3142 -0.0562
14647SOL    HW151056   7.108   9.209  10.363  1.1634 -3.4519  2.3626
14647SOL    HW251057   7.174   9.318  10.445 -1.0515 -1.1318  1.1879
14648SOL     OW51058   2.815   8.151   5.889 -0.0400 -0.7012 -0.3813
14648SOL    HW151059   2.751   8.220   5.871 -1.1298 -1.4607  0.4698
14648SOL    HW251060   2.844   8.121   5.803 -1.1784 -0.6626 -0.7869
14649SOL     OW51061   2.248   0.209   9.659  0.8425 -0.1928  0.4137
14649SOL    HW151062   2.223   0.128   9.704  0.7763 -0.6040 -0.3611
14649SOL    HW251063   2.181   0.272   9.687  0.3229 -0.6594  0.2525
14650SOL     OW51064   8.884  12.325   2.499  0.6538 -0.2017  0.3183
14650SOL    HW151065   8.900  12.413   2.464  1.3777 -0.7019 -0.6504
14650SOL    HW251066   8.971  12.289   2.514  0.3592 -0.5957  1.1586
14651SOL     OW51067   7.583   5.360  10.051 -0.2579  0.1052 -0.0418
14651SOL    HW151068   7.553   5.450  10.040 -0.7188  0.1502  1.3741
14651SOL    HW251069   7.510   5.316  10.096  0.7066 -0.4719  1.0155
14652SOL     OW51070  10.728   1.055  11.316  0.2228 -0.2892 -0.1698
14652SOL    HW151071  10.634   1.075  11.309  0.1489 -0.4443  0.2732
14652SOL    HW251072  10.748   1.005  11.237 -0.5455 -1.9838  0.6583
14653SOL     OW51073   5.259   6.340   8.094  0.2877  0.3470 -0.4477
14653SOL    HW151074   5.300   6.264   8.134 -0.8286 -0.4979 -0.8757
14653SOL    HW251075   5.165   6.323   8.099  0.0638  0.9520 -1.9685
14654SOL     OW51076  12.496   6.231   0.313 -0.0483 -0.2415 -0.1042
14654SOL    HW151077  12.471   6.149   0.270 -0.8601 -0.8786  1.5206
14654SOL    HW251078  12.414   6.267   0.346  0.5637  0.1456  1.0328
14655SOL     OW51079   6.323  11.984   5.709 -0.5460  0.4913 -0.3809
14655SOL    HW151080   6.305  11.904   5.659  0.2626  1.1639 -1.7955
14655SOL    HW251081   6.236  12.021   5.728 -0.9554 -0.9214  0.6920
14656SOL     OW51082  12.860   9.466   7.223 -0.0972 -0.6856  0.3496
14656SOL    HW151083  12.875   9.550   7.180 -0.3552 -0.9644 -0.2948
14656SOL    HW251084  12.821   9.410   7.155 -0.8571 -1.0245  1.0344
14657SOL     OW51085   0.409   6.151  10.597 -0.0511  0.5071 -0.0261
14657SOL    HW151086   0.471   6.111  10.659  1.1059 -0.3386 -1.6398
14657SOL    HW251087   0.376   6.077  10.546  0.4191  1.3220 -1.5950
14658SOL     OW51088   4.484   9.199  11.210 -0.3431  0.1014 -0.4553
14658SOL    HW151089   4.460   9.245  11.130 -1.6217  0.4183  0.0773
14658SOL    HW251090   4.549   9.135  11.183 -0.2240  0.6877 -1.6088
14659SOL     OW51091   2.188  11.358   2.147 -0.5337 -0.1435 -0.0839
14659SOL    HW151092   2.135  11.404   2.212 -1.6233 -0.7965 -0.4759
14659SOL    HW251093   2.137  11.279   2.128  1.4189 -1.6952  0.8166
14660SOL     OW51094  12.938   2.600   9.220 -0.2220  0.6179 -0.1878
14660SOL    HW151095  12.917   2.593   9.314 -0.1626 -0.1607 -0.2258
14660SOL    HW251096  12.865   2.556   9.176  0.0616  0.4370 -0.4754
14661SOL     OW51097   1.480   6.000   1.968  0.8743  0.1121 -0.1194
14661SOL    HW151098   1.396   5.965   1.996  0.0376  0.8905 -1.5405
14661SOL    HW251099   1.513   5.937   1.904  1.4290 -0.2278  0.4859
14662SOL     OW51100   6.502   6.745  12.040 -0.0432 -0.3633 -0.3512
14662SOL    HW151101   6.565   6.791  12.096  0.3448 -0.7577 -0.4569
14662SOL    HW251102   6.532   6.655  12.039 -0.1386 -0.3938 -1.0620
14663SOL     OW51103   2.980  10.473   0.167 -0.1248 -0.2799  0.1904
14663SOL    HW151104   2.970  10.412   0.240  2.2181  1.0931  1.7552
14663SOL    HW251105   2.949  10.557   0.202 -1.9619 -0.1843 -1.4820
14664SOL     OW51106  12.106  11.254   2.166  0.2842 -0.3008  0.0472
14664SOL    HW151107  12.149  11.201   2.099 -1.9817 -0.9015 -1.0441
14664SOL    HW251108  12.163  11.249   2.242  0.6720 -3.5194 -0.3366
14665SOL     OW51109   6.443   4.052   5.073 -0.4024  0.1831 -0.1727
14665SOL    HW151110   6.494   4.028   4.996  0.4813  1.7584 -0.1371
14665SOL    HW251111   6.481   4.001   5.144 -2.2635 -2.5083 -0.9646
14666SOL     OW51112   8.000  10.455   0.930  0.0883  0.3027  0.7970
14666SOL    HW151113   8.018  10.437   1.023 -0.3601  2.0245  1.2465
14666SOL    HW251114   7.949  10.536   0.931  0.7183  0.7463 -1.0069
14667SOL     OW51115   6.042   6.445   5.243 -0.0434 -0.3367 -0.7496
14667SOL    HW151116   6.121   6.423   5.293  0.9363  1.7322 -1.2731
14667SOL    HW251117   6.059   6.413   5.155 -0.8320 -1.9978 -0.3325
14668SOL     OW51118  12.399   0.236   7.561 -0.3508  0.2638  0.1644
14668SOL    HW151119  12.410   0.193   7.646 -0.4079  0.3757  0.2292
14668SOL    HW251120  12.453   0.315   7.567 -0.1844  0.1612  0.0170
14669SOL     OW51121   1.449   6.179  11.721 -0.4412  0.6147 -0.4175
14669SOL    HW151122   1.423   6.211  11.635  0.0356  2.7453  0.1727
14669SOL    HW251123   1.382   6.214  11.781  0.5189  1.2072  0.3530
14670SOL     OW51124   1.891   8.891   7.294 -0.3243  0.0970  0.3487
14670SOL    HW151125   1.873   8.870   7.202 -0.1607 -1.7709  0.7155
14670SOL    HW251126   1.973   8.940   7.291 -1.5684  2.2751 -0.6761
14671SOL     OW51127   8.650   3.291   2.759 -0.0058 -0.5606  0.1734
14671SOL    HW151128   8.557   3.282   2.781  0.3881 -0.1202  2.3233
14671SOL    HW251129   8.686   3.203   2.770 -0.1780 -0.7677 -0.8336
14672SOL     OW51130   8.357   3.038   8.470  0.1625  0.1019 -0.4978
14672SOL    HW151131   8.261   3.031   8.473  0.0191  1.3991 -1.2375
14672SOL    HW251132   8.386   2.960   8.422 -0.3942 -0.9973  0.8752
14673SOL     OW51133  10.236   1.343   8.354 -0.5039  0.6200  0.2341
14673SOL    HW151134  10.281   1.274   8.306 -1.3956  0.2077 -0.0279
14673SOL    HW251135  10.143   1.329   8.336 -0.6247  3.5886 -2.1787
14674SOL     OW51136  10.709   1.689   6.350  0.0140 -0.6525  0.3721
14674SOL    HW151137  10.656   1.764   6.377  0.9884  0.0145  0.4861
14674SOL    HW251138  10.649   1.633   6.300 -0.4540  0.7298 -0.6495
14675SOL     OW51139   0.621   4.725   7.687  0.4096 -0.0995  0.2251
14675SOL    HW151140   0.677   4.670   7.741 -0.0446 -1.9033 -1.0310
14675SOL    HW251141   0.578   4.784   7.749  1.7272 -0.4163  1.4983
14676SOL     OW51142  12.776   8.293   0.988  0.8325  0.2758  0.2803
14676SOL    HW151143  12.857   8.244   0.973  1.6068  1.4294  0.5294
14676SOL    HW251144  12.747   8.319   0.900  0.5001 -0.4625  0.1596
14677SOL     OW51145   9.300   9.932  12.570 -0.2076  0.0343  0.2396
14677SOL    HW151146   9.231   9.999  12.564 -1.0633 -0.8211  0.2715
14677SOL    HW251147   9.319   9.910  12.479  0.8080  1.0256  0.1880
14678SOL     OW51148   0.399   9.769  11.194 -0.2481 -0.0820 -0.0850
14678SOL    HW151149   0.460   9.770  11.119  0.4563 -1.9593  0.4043
14678SOL    HW251150   0.443   9.715  11.259 -0.6435  1.8799  1.9156
14679SOL     OW51151   0.903   0.954   5.417 -0.7158 -0.1709  0.1971
14679SOL    HW151152   0.914   0.860   5.428 -1.2623 -0.3463 -0.5922
14679SOL    HW251153   0.974   0.993   5.466 -0.5593 -0.9949  0.6425
14680SOL     OW51154  11.839   5.188   6.082 -0.1216 -0.6026 -0.7245
14680SOL    HW151155  11.785   5.109   6.089 -0.5443 -0.3512 -1.0937
14680SOL    HW251156  11.829   5.231   6.167 -2.0352  0.4044 -1.4106
14681SOL     OW51157   3.508   6.869  11.422 -0.6187 -0.3012 -0.4766
14681SOL    HW151158   3.442   6.801  11.434 -0.8530 -0.2519 -1.4337
14681SOL    HW251159   3.544   6.854  11.335  0.6524 -0.3281  0.0228
14682SOL     OW51160  12.146  11.982  11.669  0.3785  0.1705 -0.6604
14682SOL    HW151161  12.150  12.073  11.641 -0.7031  0.6962  0.7657
14682SOL    HW251162  12.091  11.939  11.603 -0.0807  0.8202 -0.7075
14683SOL     OW51163   9.188  11.100   1.690  0.1513  0.2823  0.4068
14683SOL    HW151164   9.270  11.120   1.735 -0.0519  3.5541 -0.4165
14683SOL    HW251165   9.214  11.040   1.619  1.6976  0.6458  0.6234
14684SOL     OW51166   7.595  11.647   6.603 -0.4007  0.3962  0.5481
14684SOL    HW151167   7.678  11.695   6.601  0.6093 -1.3050 -0.0685
14684SOL    HW251168   7.548  11.679   6.526  1.3146 -1.2734 -1.3317
14685SOL     OW51169  12.075   9.288   1.556 -0.2266 -0.5610  0.0808
14685SOL    HW151170  12.008   9.238   1.602  0.6433 -0.7482  1.1743
14685SOL    HW251171  12.076   9.373   1.600  1.0079 -0.9348  0.8256
14686SOL     OW51172  10.660   5.890  10.486  0.4830  0.4300 -0.5349
14686SOL    HW151173  10.595   5.961  10.487 -0.0317 -0.0293  0.7937
14686SOL    HW251174  10.742   5.932  10.514 -0.0760  0.3240  1.4327
14687SOL     OW51175   7.198   2.028   1.057 -0.4375  0.1985 -0.2801
14687SOL    HW151176   7.188   2.112   1.011  2.4344  0.8059  0.0056
14687SOL    HW251177   7.221   1.966   0.987  2.2096  0.7638 -0.0433
14688SOL     OW51178   5.487   7.991   8.765  0.5140 -0.3191  0.2083
14688SOL    HW151179   5.506   7.913   8.713  0.0066  0.1160 -0.6551
14688SOL    HW251180   5.415   7.964   8.822  0.6965 -0.6357  0.2954
14689SOL     OW51181  11.024   0.588   8.231  0.0457  0.4033  0.4472
14689SOL    HW151182  11.052   0.507   8.272  1.4499  0.5683 -0.1283
14689SOL    HW251183  11.100   0.617   8.181 -0.7485  1.5764 -0.1248
14690SOL     OW51184   4.130   8.836   9.400  0.1256  0.3465 -0.6046
14690SOL    HW151185   4.073   8.866   9.329  0.8230  1.0587 -0.8759
14690SOL    HW251186   4.087   8.758   9.434 -0.1562 -0.0859 -1.9027
14691SOL     OW51187  11.579   0.049   6.934 -0.4353 -0.5943 -0.4871
14691SOL    HW151188  11.490   0.014   6.938 -0.8299  0.4338 -0.0708
14691SOL    HW251189  11.626   0.003   7.003 -0.9653 -0.2777  0.0936
14692SOL     OW51190   8.766   0.504   0.508  0.7135 -0.2682  0.3344
14692SOL    HW151191   8.811   0.421   0.522  0.4536 -0.5725 -0.5347
14692SOL    HW251192   8.717   0.490   0.426  2.1393  1.3632 -0.8494
14693SOL     OW51193  10.805   3.521   4.343 -0.3344 -0.1779  0.1586
14693SOL    HW151194  10.811   3.586   4.412 -0.4115 -0.3547  0.3315
14693SOL    HW251195  10.886   3.531   4.293 -1.1926  1.4088 -1.0200
14694SOL     OW51196   2.503   5.408  11.841  0.0320  0.2277 -0.0521
14694SOL    HW151197   2.421   5.398  11.889 -0.3332  0.4934 -0.6132
14694SOL    HW251198   2.569   5.422  11.909 -0.3898  0.0707  0.3981
14695SOL     OW51199   1.074   5.874   6.428  0.1653  0.1470  0.0517
14695SOL    HW151200   0.982   5.849   6.422  0.0978  0.2027  0.8152
14695SOL    HW251201   1.104   5.874   6.337 -0.7313  0.7056 -0.2539
14696SOL     OW51202   1.137   8.792   8.855 -0.1037 -0.5717 -0.5697
14696SOL    HW151203   1.231   8.793   8.868 -0.0358  0.4922 -0.9988
14696SOL    HW251204   1.112   8.700   8.866  0.8356 -0.7258  0.4540
14697SOL     OW51205   2.709   4.608  11.370  0.2856 -0.4172 -0.4022
14697SOL    HW151206   2.768   4.608  11.294 -0.5553  1.2175 -1.1159
14697SOL    HW251207   2.719   4.696  11.407 -0.6800 -0.5803  0.2738
14698SOL     OW51208   9.032   5.966  10.811  0.2783 -0.1851  0.1704
14698SOL    HW151209   9.109   5.924  10.851  0.9592  0.1163 -0.7973
14698SOL    HW251210   9.039   5.944  10.718 -1.5299 -1.2619  0.2464
14699SOL     OW51211   1.855   5.052  12.940 -0.3665 -0.0366 -0.2554
14699SOL    HW151212   1.884   5.138  12.970 -0.0965 -0.6789  1.4271
14699SOL    HW251213   1.898   5.041  12.855 -0.6899  1.6060 -0.6826
14700SOL     OW51214   2.391   0.280   8.164 -0.7884  0.1741 -0.2772
14700SOL    HW151215   2.368   0.330   8.086  0.3032  1.3533  0.1291
14700SOL    HW251216   2.321   0.300   8.226 -0.8602  0.4411 -0.4400
14701SOL     OW51217   1.157   0.930   7.718  0.1930 -0.0838 -0.0030
14701SOL    HW151218   1.139   0.841   7.747  0.3955 -0.4895 -1.0685
14701SOL    HW251219   1.080   0.980   7.746  0.6453 -0.3141  1.7107
14702SOL     OW51220   3.065   2.823   0.879  0.0196 -0.5006  0.3677
14702SOL    HW151221   3.087   2.813   0.971  0.9988  0.2917  0.2318
14702SOL    HW251222   3.108   2.749   0.835  2.2369  0.8318  0.1518
14703SOL     OW51223   0.665   2.981   6.307  0.0221  0.2831 -0.1689
14703SOL    HW151224   0.722   3.017   6.375 -0.1055  0.2351 -0.0381
14703SOL    HW251225   0.603   3.051   6.287  0.3750  0.4813 -0.5958
14704SOL     OW51226   2.718   6.312   6.529  0.5287 -0.0815  0.0038
14704SOL    HW151227   2.691   6.281   6.442 -0.1336  0.7942 -0.1139
14704SOL    HW251228   2.639   6.302   6.583  0.7495 -0.0080  0.3388
14705SOL     OW51229   6.051  11.034   3.658  0.2600  0.9402  0.1738
14705SOL    HW151230   5.971  11.025   3.605 -0.3754 -0.1356  1.2771
14705SOL    HW251231   6.019  11.041   3.748  1.4404 -0.1588  0.6917
14706SOL     OW51232   8.445  10.947   0.342 -0.3653 -0.7299 -0.1956
14706SOL    HW151233   8.459  10.881   0.410  0.5800 -2.3543 -1.8822
14706SOL    HW251234   8.505  10.923   0.272  0.1448  2.0632 -0.8405
14707SOL     OW51235   3.965   3.380  11.532 -0.0903  0.1381  0.0325
14707SOL    HW151236   4.021   3.303  11.543 -0.8037 -0.4023  0.0097
14707SOL    HW251237   3.893   3.349  11.476 -1.1256  0.4235  1.1569
14708SOL     OW51238   0.677   9.831   1.521  0.0250  0.5549 -0.1197
14708SOL    HW151239   0.644   9.762   1.579  0.4781  1.1860  0.9238
14708SOL    HW251240   0.685   9.789   1.435 -0.5747 -0.4320  0.2921
14709SOL     OW51241  10.142   4.719   3.932  0.3500 -0.2112  0.1501
14709SOL    HW151242  10.064   4.677   3.894  1.0144 -1.1215 -0.2388
14709SOL    HW251243  10.143   4.807   3.893  0.3877 -0.7368 -1.0758
14710SOL     OW51244   9.194  11.469   1.790 -0.0603 -0.6110 -0.0357
14710SOL    HW151245   9.161  11.395   1.739 -1.5799 -0.1476  0.2104
14710SOL    HW251246   9.151  11.461   1.875  1.6508 -0.7933  0.8403
14711SOL     OW51247   2.337   6.581   8.207 -0.0190 -0.1839 -0.1264
14711SOL    HW151248   2.413   6.523   8.210  0.0119 -0.3884 -2.7461
14711SOL    HW251249   2.329   6.614   8.297  1.3919 -2.3674  0.8840
14712SOL     OW51250   4.311   3.622   0.176  0.1588  0.7082  0.1573
14712SOL    HW151251   4.339   3.553   0.236  1.6651 -0.0801 -1.3821
14712SOL    HW251252   4.282   3.576   0.097  0.2189  1.7834 -0.5186
14713SOL     OW51253   4.710   5.568  10.697 -0.1117  0.0771  0.3656
14713SOL    HW151254   4.615   5.569  10.711 -0.1170 -2.2623  0.8859
14713SOL    HW251255   4.724   5.629  10.625 -2.0539  0.1681  0.0119
14714SOL     OW51256   7.461  10.990  11.377  0.9019  0.1233 -0.1669
14714SOL    HW151257   7.450  10.958  11.466  1.3928 -0.1324 -0.1929
14714SOL    HW251258   7.489  10.912  11.328  0.0754  0.1268 -0.6616
14715SOL     OW51259   8.570  11.033   1.035 -0.3565  0.2434 -0.1387
14715SOL    HW151260   8.625  11.044   0.958 -0.1741 -1.1254 -0.2241
14715SOL    HW251261   8.625  10.988   1.099 -1.5284 -1.9124 -0.5147
14716SOL     OW51262   6.319   6.835   8.041  0.3369 -0.5378 -0.2473
14716SOL    HW151263   6.350   6.823   7.951  1.7808 -1.8548  0.3794
14716SOL    HW251264   6.398   6.854   8.091 -0.4644  0.2966  0.7501
14717SOL     OW51265   2.572   3.560   2.645  0.3598  0.5027  0.4584
14717SOL    HW151266   2.480   3.564   2.621  0.6632  0.5555 -0.7685
14717SOL    HW251267   2.578   3.490   2.711 -0.5763  0.6650  0.7246
14718SOL     OW51268   8.216   0.502   8.429  0.6292  0.4278  0.1760
14718SOL    HW151269   8.306   0.475   8.412  0.2091 -0.0953 -1.3704
14718SOL    HW251270   8.220   0.598   8.430  1.3928  0.4067  1.3960
14719SOL     OW51271   0.988   7.236   6.064  0.3086  0.0758  0.6046
14719SOL    HW151272   1.006   7.156   6.014  1.0284  1.1629 -0.9870
14719SOL    HW251273   0.943   7.206   6.143  2.7797 -2.1378  1.2896
14720SOL     OW51274   6.183   3.035   9.611  0.6462 -0.1632 -0.0418
14720SOL    HW151275   6.257   3.037   9.672  0.5701  1.1283  0.0558
14720SOL    HW251276   6.154   3.127   9.606 -0.7168 -0.5856 -0.3629
14721SOL     OW51277   9.127   0.744  12.902  0.0115  0.8341 -0.4138
14721SOL    HW151278   9.206   0.713  12.946  0.6901 -1.1972 -2.8067
14721SOL    HW251279   9.145   0.835  12.880  1.9714  0.2660 -1.3990
14722SOL     OW51280   5.674   4.012   0.093  0.3029  0.6712 -0.4630
14722SOL    HW151281   5.631   4.014   0.008 -0.2873  0.0569 -0.1813
14722SOL    HW251282   5.720   4.096   0.098  1.7188  0.0446 -2.0831
14723SOL     OW51283   6.445   4.318   5.162  0.0518 -0.0774 -0.3047
14723SOL    HW151284   6.401   4.386   5.111 -0.9192 -0.2154  0.3158
14723SOL    HW251285   6.413   4.235   5.125  2.1214 -0.2605 -1.8309
14724SOL     OW51286   7.308   2.633  11.339  0.0143  0.3053 -0.1994
14724SOL    HW151287   7.281   2.646  11.248  1.8298  0.8402 -0.7002
14724SOL    HW251288   7.312   2.721  11.376 -0.5612  0.1027  0.3689
14725SOL     OW51289   8.680  11.211   4.147 -0.3934 -0.6183  0.4172
14725SOL    HW151290   8.720  11.257   4.073 -1.8650 -0.0064 -0.0283
14725SOL    HW251291   8.596  11.255   4.160 -0.6468 -1.4524  1.7366
14726SOL     OW51292  12.333  12.385  12.234 -0.3384 -0.5892 -0.3274
14726SOL    HW151293  12.254  12.389  12.180 -0.6348 -2.4665 -0.0937
14726SOL    HW251294  12.309  12.328  12.308  0.5494  0.6293  0.9497
14727SOL     OW51295   5.767   1.556   0.158  0.4606  0.3114 -0.4628
14727SOL    HW151296   5.748   1.474   0.113 -0.3750  0.3686 -0.2244
14727SOL    HW251297   5.721   1.623   0.106 -1.4899  0.2493  1.0843
14728SOL     OW51298   7.919   1.138   9.399 -0.1951 -0.2099 -0.4008
14728SOL    HW151299   7.901   1.163   9.309  0.9266  0.0930 -0.5525
14728SOL    HW251300   7.939   1.045   9.395  1.3588  0.1089 -0.7180
14729SOL     OW51301  10.025   5.550   2.305  0.3163 -0.3900  0.2341
14729SOL    HW151302  10.060   5.493   2.236  0.2158  0.6838 -0.7435
14729SOL    HW251303  10.050   5.639   2.277 -2.1455  0.3253  0.1123
14730SOL     OW51304   8.625   3.811   4.890 -0.3563 -0.0871  0.4100
14730SOL    HW151305   8.694   3.857   4.842 -0.8311  0.4007  0.1814
14730SOL    HW251306   8.575   3.765   4.823 -1.9869  1.8543  0.1796
14731SOL     OW51307  10.372   7.894   7.824 -0.1827 -0.4043 -0.1932
14731SOL    HW151308  10.324   7.975   7.835  1.6611  0.5657  1.4130
14731SOL    HW251309  10.356   7.868   7.734 -1.5137  1.2715 -0.4833
14732SOL     OW51310   7.237   1.138   2.866 -0.0672 -0.0871  0.4918
14732SOL    HW151311   7.262   1.230   2.865 -0.0580 -0.0520 -2.0360
14732SOL    HW251312   7.162   1.134   2.926 -0.5066  1.6903  0.1128
14733SOL     OW51313   4.728  12.497   1.340  0.0267  0.3466  0.5713
14733SOL    HW151314   4.713  12.418   1.288 -0.0395  0.5236  0.3182
14733SOL    HW251315   4.642  12.516   1.379  0.2729 -0.2865  1.4685
14734SOL     OW51316   9.295   3.081   6.343 -0.2987  0.4393  0.4907
14734SOL    HW151317   9.386   3.070   6.371 -0.0400 -2.4069 -1.1043
14734SOL    HW251318   9.243   3.053   6.418  0.1775  0.3284  0.7825
14735SOL     OW51319  11.211   5.760   9.218 -0.1826 -0.3978  0.2747
14735SOL    HW151320  11.153   5.767   9.143 -1.1549 -0.7709  0.9786
14735SOL    HW251321  11.246   5.849   9.229 -1.1907  0.0133  0.2839
14736SOL     OW51322  12.624  12.657  11.902  0.2907 -0.2085  0.3122
14736SOL    HW151323  12.545  12.711  11.892  0.8067  0.4624 -0.1852
14736SOL    HW251324  12.613  12.615  11.988 -0.5939 -0.1072  0.2577
14737SOL     OW51325   9.693   6.978   5.862  0.4404 -0.1363  0.0447
14737SOL    HW151326   9.746   7.031   5.922 -0.0982  1.1159 -0.5567
14737SOL    HW251327   9.758   6.932   5.808  0.9192 -0.6027  0.9906
14738SOL     OW51328   1.461  12.660   1.335  0.0168 -0.1752 -0.0196
14738SOL    HW151329   1.478  12.724   1.405 -0.6364 -1.5331  1.4578
14738SOL    HW251330   1.377  12.687   1.298 -0.9887 -0.9528  1.5831
14739SOL     OW51331   2.536   6.530   3.233  0.1157 -0.1651 -0.0787
14739SOL    HW151332   2.528   6.438   3.210  0.9415 -0.5791  1.1801
14739SOL    HW251333   2.622   6.538   3.273  0.1658  1.2133 -0.3890
14740SOL     OW51334   9.785   9.403   5.892  0.4477  0.2307  0.3516
14740SOL    HW151335   9.827   9.449   5.964 -0.6631  1.5084  0.2281
14740SOL    HW251336   9.714   9.461   5.865 -1.2244 -1.6840  0.3791
14741SOL     OW51337   9.619   4.806  11.707 -0.0641  0.1655  0.1971
14741SOL    HW151338   9.705   4.798  11.665  0.6811 -1.7031  1.8935
14741SOL    HW251339   9.640   4.822  11.800 -1.6112  1.9114  0.2920
14742SOL     OW51340   5.995  11.468   5.966 -0.3460  0.0588  0.0475
14742SOL    HW151341   6.055  11.410   5.919 -1.7212 -0.9808 -0.4926
14742SOL    HW251342   6.045  11.497   6.042  0.7690 -0.9504 -0.2627
14743SOL     OW51343  10.951   5.773   5.203 -0.6827  0.1389 -0.4078
14743SOL    HW151344  11.040   5.779   5.170 -0.9086 -0.0164 -1.0568
14743SOL    HW251345  10.951   5.694   5.259 -0.6760 -0.4694 -1.2522
14744SOL     OW51346   9.914  11.534   1.138  0.6266  0.3748  0.0508
14744SOL    HW151347   9.893  11.466   1.203 -0.9237 -0.3004 -1.1094
14744SOL    HW251348   9.928  11.486   1.057 -0.3674  1.4359 -0.7638
14745SOL     OW51349   8.426   2.094   9.549 -0.7595  0.2586 -0.6315
14745SOL    HW151350   8.515   2.109   9.580 -1.3577 -0.2532  1.4704
14745SOL    HW251351   8.403   2.176   9.504  0.4058  0.7977 -0.2927
14746SOL     OW51352   3.438   5.742   0.027 -0.1103 -0.2239  0.1399
14746SOL    HW151353   3.365   5.692  -0.010  0.3838  0.9272 -2.6033
14746SOL    HW251354   3.514   5.684   0.019 -0.3670 -0.8008  1.5018
14747SOL     OW51355   4.701   3.757  12.852 -0.4948  0.3121  0.6114
14747SOL    HW151356   4.693   3.825  12.785  0.6443 -0.8678 -0.7776
14747SOL    HW251357   4.746   3.801  12.925 -0.3449  1.2148 -0.0093
14748SOL     OW51358   8.142   4.088   4.867 -0.4439 -0.1248 -0.2850
14748SOL    HW151359   8.224   4.114   4.826  0.1012  0.7225  1.2716
14748SOL    HW251360   8.110   4.167   4.910 -1.7104 -0.6368 -0.2228
14749SOL     OW51361   5.423   4.000  10.990  0.0100 -0.2419 -0.3269
14749SOL    HW151362   5.483   4.070  10.965 -2.0067  1.2562 -1.2085
14749SOL    HW251363   5.480   3.927  11.015  2.1663  1.2068 -0.7989
14750SOL     OW51364   5.372   3.502   8.417  0.3980  0.3229 -0.4136
14750SOL    HW151365   5.324   3.533   8.494  0.1281  0.5602 -0.6715
14750SOL    HW251366   5.305   3.491   8.350  0.9873  3.5090 -1.7043
14751SOL     OW51367   5.815  10.410   7.248  0.1531 -0.0724 -0.7298
14751SOL    HW151368   5.880  10.478   7.263 -0.4962  0.4496 -0.2328
14751SOL    HW251369   5.765  10.407   7.329  0.1384 -1.1126 -0.7635
14752SOL     OW51370   7.507   2.138   9.731 -0.3889  0.6179  0.1781
14752SOL    HW151371   7.580   2.084   9.761 -1.4656 -1.3655 -0.5969
14752SOL    HW251372   7.543   2.226   9.725  1.8533 -0.2400  0.1315
14753SOL     OW51373   1.430   0.000   2.335 -0.3564 -0.0998  0.2658
14753SOL    HW151374   1.344  -0.035   2.357 -0.4480 -0.8948 -1.2628
14753SOL    HW251375   1.474  -0.070   2.288  0.9766  0.4590  0.6092
14754SOL     OW51376   2.566   3.190  10.775  0.1507 -0.3241 -0.0093
14754SOL    HW151377   2.549   3.129  10.703  1.2922 -0.3121 -0.3015
14754SOL    HW251378   2.517   3.269  10.752 -1.5189 -1.1745  0.4809
14755SOL     OW51379  12.721   5.968   5.299  0.7888  0.3344  0.2914
14755SOL    HW151380  12.640   5.942   5.344  0.1231 -0.4780 -1.2987
14755SOL    HW251381  12.729   5.906   5.227  1.2286  2.2281 -1.3818
14756SOL     OW51382   5.038   4.996   5.655  0.5847  0.0515 -0.1027
14756SOL    HW151383   4.994   4.976   5.738  0.2969 -0.1169 -0.2943
14756SOL    HW251384   5.102   5.064   5.678  0.9580 -0.4589  0.3775
14757SOL     OW51385   5.883   2.730   5.144 -0.0007  0.2441  0.0040
14757SOL    HW151386   5.831   2.691   5.214 -1.8212 -0.1245 -1.4595
14757SOL    HW251387   5.877   2.824   5.160 -1.0254  0.2009 -0.0417
14758SOL     OW51388  10.045   4.164   7.292 -0.3873 -0.7479  0.1704
14758SOL    HW151389  10.105   4.143   7.221  1.2699  2.6045  0.3910
14758SOL    HW251390   9.974   4.213   7.250 -0.1184  0.0356  0.6097
14759SOL     OW51391   1.101  12.877   3.646 -0.5071 -0.1814 -0.4649
14759SOL    HW151392   1.084  12.941   3.576 -0.6399 -0.2663 -0.5114
14759SOL    HW251393   1.173  12.824   3.612 -0.4294 -0.0876 -0.4472
14760SOL     OW51394  12.341   1.090   8.978  0.2917  0.0066 -0.8097
14760SOL    HW151395  12.425   1.103   9.023  0.1823 -0.5359 -0.4412
14760SOL    HW251396  12.317   1.000   8.999 -0.6945  0.3595 -0.3940
14761SOL     OW51397   3.425   3.349   9.575  0.5912 -0.1066  0.7124
14761SOL    HW151398   3.368   3.344   9.652 -1.4831  0.0708 -0.7290
14761SOL    HW251399   3.377   3.404   9.513  0.2960 -3.3379 -2.2126
14762SOL     OW51400   5.616  11.574   4.513  0.5204 -0.4346  0.2963
14762SOL    HW151401   5.574  11.621   4.441  1.9486 -0.0366 -0.3178
14762SOL    HW251402   5.549  11.570   4.581  0.4465  3.1262  0.6587
14763SOL     OW51403  10.931  12.095   2.414  0.3282  0.5072  0.5638
14763SOL    HW151404  10.934  12.054   2.328  0.1973 -0.5827  1.0525
14763SOL    HW251405  10.940  12.189   2.397  4.3596  0.1162 -0.3587
14764SOL     OW51406   6.985   3.616  10.702 -0.1888 -0.3028  0.0402
14764SOL    HW151407   6.952   3.703  10.726 -0.0471 -0.0481 -0.6608
14764SOL    HW251408   6.906   3.563  10.689 -0.2879 -0.8068  2.2192
14765SOL     OW51409   5.039   8.336   5.010  0.3966 -0.5280  0.0858
14765SOL    HW151410   5.121   8.382   5.028 -0.1915  0.4944  0.1992
14765SOL    HW251411   5.003   8.317   5.097  0.7621 -1.4536  0.0458
14766SOL     OW51412   8.842   1.630   7.175 -0.2461 -0.2783 -0.4091
14766SOL    HW151413   8.810   1.672   7.095 -2.4467 -2.1175 -0.5996
14766SOL    HW251414   8.838   1.698   7.241  0.3419  0.9240 -1.5657
14767SOL     OW51415   4.341   7.591  12.883 -0.3285 -0.2800  0.0371
14767SOL    HW151416   4.293   7.555  12.958  0.3269 -0.8743  0.1923
14767SOL    HW251417   4.426   7.547  12.887 -0.0998  0.0794 -0.7513
14768SOL     OW51418   0.534   3.134  10.339  0.3373 -0.3624 -0.7953
14768SOL    HW151419   0.600   3.172  10.399 -0.9230  0.5892  0.0539
14768SOL    HW251420   0.544   3.040  10.349  0.2968 -0.2274  0.8100
14769SOL     OW51421   0.370   4.557   4.961 -0.2557 -0.3594  0.2734
14769SOL    HW151422   0.294   4.498   4.957 -0.1971 -0.3732 -0.9492
14769SOL    HW251423   0.446   4.498   4.953 -0.1650 -0.2066  0.0101
14770SOL     OW51424   1.893   3.209   9.125 -0.3459  0.2109 -0.3180
14770SOL    HW151425   1.922   3.140   9.065  0.1952  2.4555 -2.8067
14770SOL    HW251426   1.797   3.201   9.127 -0.2247 -1.8414  1.1450
14771SOL     OW51427   2.492   7.967   8.865 -0.0344  0.4917  0.1459
14771SOL    HW151428   2.501   7.874   8.885 -2.9082  0.3018  0.9332
14771SOL    HW251429   2.492   7.971   8.769 -2.5695 -0.7270  0.0226
14772SOL     OW51430   1.121   8.441   5.099 -0.4371  0.3449 -0.7066
14772SOL    HW151431   1.169   8.524   5.096 -0.0364  0.4909  3.6072
14772SOL    HW251432   1.183   8.376   5.067  0.1738  1.3473 -1.6392
14773SOL     OW51433  12.235   8.939   8.069 -0.1745 -0.9528 -0.0666
14773SOL    HW151434  12.178   8.983   8.131 -1.0276 -0.9520 -0.8216
14773SOL    HW251435  12.235   8.996   7.992  0.6983 -1.0458 -0.1388
14774SOL     OW51436  10.725   4.614   5.620 -0.4597 -0.4892 -0.3234
14774SOL    HW151437  10.772   4.530   5.625  0.0201 -0.2193 -0.3027
14774SOL    HW251438  10.790   4.680   5.645 -1.0738 -0.1883  0.5319
14775SOL     OW51439  10.657   2.627   6.758 -0.0166 -0.3517  0.6363
14775SOL    HW151440  10.581   2.570   6.749  0.2169 -0.6997  0.8008
14775SOL    HW251441  10.729   2.567   6.779  0.3227 -0.0407  0.3792
14776SOL     OW51442   6.467   3.480   4.221  0.0684  0.3146  0.3868
14776SOL    HW151443   6.474   3.487   4.126  1.4851  0.2674  0.4649
14776SOL    HW251444   6.429   3.563   4.249 -1.8794 -0.2835 -0.3255
14777SOL     OW51445   8.162   6.722   3.616 -0.0411  0.4020 -0.5373
14777SOL    HW151446   8.237   6.778   3.596  1.1580 -0.5996  0.9198
14777SOL    HW251447   8.088   6.763   3.571  1.5261  0.9114 -2.8363
14778SOL     OW51448   3.064  10.300   4.249 -0.3563  0.2406 -0.2065
14778SOL    HW151449   2.997  10.271   4.187 -1.2309  1.1738  0.2746
14778SOL    HW251450   3.147  10.280   4.206 -0.8545 -3.0963  0.1158
14779SOL     OW51451  12.398   3.490   5.002  0.3187  0.0892 -0.1655
14779SOL    HW151452  12.363   3.553   5.066  0.6218  0.5966 -0.4909
14779SOL    HW251453  12.433   3.419   5.056  0.2609  0.3495  0.2250
14780SOL     OW51454   3.427   4.095   8.765  0.3563 -0.3160 -0.0550
14780SOL    HW151455   3.332   4.083   8.754  0.4067 -0.3659 -0.4154
14780SOL    HW251456   3.434   4.152   8.842  0.0129  0.1020 -0.3265
14781SOL     OW51457  11.457   7.633   3.801  0.5096  0.2654  0.2043
14781SOL    HW151458  11.410   7.634   3.884 -0.3535 -0.2311 -0.2717
14781SOL    HW251459  11.396   7.671   3.738  0.8739 -0.0521 -0.3519
14782SOL     OW51460  12.091   8.357   2.982  0.1631 -0.3377  0.4156
14782SOL    HW151461  12.158   8.356   2.913  1.2141 -0.1395  1.4014
14782SOL    HW251462  12.117   8.287   3.042 -1.7761 -1.7628 -0.2944
14783SOL     OW51463   3.548   5.281   1.939 -0.1793  0.2572 -0.0380
14783SOL    HW151464   3.551   5.324   1.853 -0.0490  0.3700  0.0208
14783SOL    HW251465   3.478   5.326   1.986  0.2953  0.7532  0.2019
14784SOL     OW51466   8.980   8.075   2.493 -0.3292  0.4339 -0.9753
14784SOL    HW151467   9.053   8.045   2.547 -0.3348  0.3737 -1.0017
14784SOL    HW251468   8.956   8.000   2.440 -0.8838  0.2320 -0.4483
14785SOL     OW51469   9.976   3.815   3.129 -0.0621  0.3021 -0.2055
14785SOL    HW151470   9.960   3.905   3.155 -2.2137 -0.6982  2.3929
14785SOL    HW251471  10.051   3.787   3.182  1.5380  0.8586 -2.0357
14786SOL     OW51472   8.341  11.206   3.562 -0.9360 -0.5241 -0.2306
14786SOL    HW151473   8.250  11.182   3.583 -1.2114 -0.8095 -1.6864
14786SOL    HW251474   8.335  11.250   3.478  0.3638 -1.0758 -0.6283
14787SOL     OW51475   4.242   1.428   1.770  0.0505 -0.5284 -0.0239
14787SOL    HW151476   4.262   1.352   1.824  1.1134 -0.4571 -0.2989
14787SOL    HW251477   4.156   1.457   1.800  0.1264 -1.1666  0.8436
14788SOL     OW51478   5.477   4.960   3.603  0.0979  0.2255  0.4947
14788SOL    HW151479   5.450   5.037   3.654 -0.0313  0.4634  0.0753
14788SOL    HW251480   5.436   4.886   3.648 -1.9481  0.6327 -0.5450
14789SOL     OW51481   8.889   5.235   6.181  0.1276 -0.4661 -0.0584
14789SOL    HW151482   8.972   5.231   6.134  0.2481 -0.7023  0.1756
14789SOL    HW251483   8.851   5.319   6.155  0.9402  0.1380  0.6817
14790SOL     OW51484   4.932  10.277   5.974  0.7252 -0.6777  0.8491
14790SOL    HW151485   4.937  10.297   6.067 -0.2389 -0.9619  0.9795
14790SOL    HW251486   4.858  10.216   5.967  0.8199 -0.6992 -0.0927
14791SOL     OW51487   0.795   9.169   4.506 -0.2284 -0.6021 -0.0870
14791SOL    HW151488   0.857   9.132   4.442  0.0738 -0.8313  0.3375
14791SOL    HW251489   0.709   9.149   4.470 -0.0723 -1.9076  0.2350
14792SOL     OW51490  11.220   4.949   2.550  0.4185 -0.0780 -0.1710
14792SOL    HW151491  11.168   5.029   2.542 -2.2418 -1.8423 -2.3303
14792SOL    HW251492  11.182   4.904   2.626 -0.1807 -0.6268 -0.7802
14793SOL     OW51493   9.578   9.419   5.381  0.1657  0.4449 -0.5371
14793SOL    HW151494   9.602   9.365   5.457 -0.0056  0.2331 -0.6327
14793SOL    HW251495   9.616   9.505   5.399 -0.2208  0.5102 -0.0203
14794SOL     OW51496   6.119   1.102   8.023  0.0389 -0.1873 -0.0043
14794SOL    HW151497   6.201   1.146   7.999 -1.0010  1.0326 -1.5404
14794SOL    HW251498   6.096   1.051   7.945  0.0830 -1.7966  0.9703
14795SOL     OW51499  10.210   2.272   4.255  0.4573  0.2277 -0.1330
14795SOL    HW151500  10.225   2.191   4.304  0.1959 -0.7890 -1.6613
14795SOL    HW251501  10.136   2.313   4.298  0.2386 -0.6354  0.3354
14796SOL     OW51502   8.821   9.479   2.972  0.6164  0.7158  0.3155
14796SOL    HW151503   8.813   9.558   2.918  2.2471  0.3866 -0.4643
14796SOL    HW251504   8.824   9.511   3.062 -1.0062  1.3549  0.1740
14797SOL     OW51505   6.240   0.763   8.478  0.1395 -0.0005 -0.4255
14797SOL    HW151506   6.314   0.738   8.534 -0.0840 -0.6145 -0.3910
14797SOL    HW251507   6.280   0.791   8.396  0.5341  1.9244  0.3690
14798SOL     OW51508   6.720   0.433   3.590  0.0165 -0.1449  0.6495
14798SOL    HW151509   6.816   0.432   3.590  0.0280 -1.3218  1.3626
14798SOL    HW251510   6.697   0.523   3.611  0.9728  0.1280  0.5796
14799SOL     OW51511  11.337  11.394   5.071  0.1706  0.3834 -0.1919
14799SOL    HW151512  11.360  11.453   4.999 -1.2077 -0.9952 -1.8738
14799SOL    HW251513  11.244  11.374   5.056  0.3113 -1.3371  0.9404
14800SOL     OW51514   2.736   5.384  12.162 -0.3362  0.0248 -0.9384
14800SOL    HW151515   2.762   5.292  12.155  0.0181 -0.3182  2.7456
14800SOL    HW251516   2.813   5.426  12.201 -1.5876  1.1894  0.3545
14801SOL     OW51517   5.538   9.521   0.584  0.1855 -0.1519  0.8052
14801SOL    HW151518   5.443   9.512   0.592  0.1605 -0.9164 -0.1265
14801SOL    HW251519   5.572   9.432   0.595  0.4375 -0.6728 -2.7910
14802SOL     OW51520   1.834   4.588   4.020  0.8078 -0.0481 -0.4787
14802SOL    HW151521   1.779   4.618   4.092  0.9263 -1.2551  0.1409
14802SOL    HW251522   1.867   4.503   4.049  0.7887 -0.5989 -1.9961
14803SOL     OW51523  10.158   6.372   5.214 -0.5143 -0.0221  0.2601
14803SOL    HW151524  10.161   6.388   5.308  1.3828  1.5952  0.0021
14803SOL    HW251525  10.065   6.360   5.195 -0.9218 -0.6329  2.3461
14804SOL     OW51526  11.816  12.441   0.118  0.0037  0.2058 -0.0910
14804SOL    HW151527  11.853  12.389   0.047 -1.7217  1.3276 -1.9138
14804SOL    HW251528  11.886  12.504   0.139  0.4625  0.0147 -0.9635
14805SOL     OW51529   3.849  11.923   8.679  0.2709 -0.1021 -0.9695
14805SOL    HW151530   3.908  11.978   8.731 -0.7411 -0.5415  0.7424
14805SOL    HW251531   3.823  11.978   8.605  0.9846  0.9336 -0.4724
14806SOL     OW51532   0.013   4.559   9.549 -0.0285  0.1245 -0.1882
14806SOL    HW151533   0.003   4.481   9.603 -1.4737  1.0119  0.8936
14806SOL    HW251534   0.105   4.558   9.522  0.4154 -1.0154  1.2430
14807SOL     OW51535   3.071   1.444   0.080 -0.4263  0.5203  0.0827
14807SOL    HW151536   3.089   1.440   0.174  0.0135 -0.6790 -0.0368
14807SOL    HW251537   3.078   1.537   0.058  0.8526  0.6501  0.9684
14808SOL     OW51538   9.779   4.416  10.392  0.5672 -0.0344  0.5351
14808SOL    HW151539   9.816   4.502  10.409  2.8755 -0.6625 -0.7933
14808SOL    HW251540   9.827   4.357  10.450  0.1502 -0.6405  0.2789
14809SOL     OW51541  12.531  11.510  11.345  0.1129  0.1374 -0.0272
14809SOL    HW151542  12.586  11.588  11.353 -0.5826  0.6287  0.1657
14809SOL    HW251543  12.462  11.536  11.283 -0.9247  0.1689  1.0966
14810SOL     OW51544  12.249   2.350   3.527 -0.2814  0.3759  0.1085
14810SOL    HW151545  12.280   2.340   3.617 -1.5314  1.4469  0.6696
14810SOL    HW251546  12.167   2.301   3.524 -0.4878  0.7489 -0.3299
14811SOL     OW51547   8.849  12.432  10.441 -0.5949 -0.2555 -0.0214
14811SOL    HW151548   8.808  12.459  10.359  0.1771  0.7144 -0.1062
14811SOL    HW251549   8.910  12.504  10.463 -0.1750 -0.8824  0.9569
14812SOL     OW51550   8.209   4.652  11.312  0.9425 -0.2867  0.3965
14812SOL    HW151551   8.259   4.716  11.363 -0.5836 -0.4901  2.2785
14812SOL    HW251552   8.274   4.587  11.285  1.9085  0.0638  1.7561
14813SOL     OW51553   5.022   7.469   9.487 -0.4786  0.7393  0.2382
14813SOL    HW151554   4.949   7.510   9.441 -1.3362 -0.3894  0.5477
14813SOL    HW251555   4.993   7.463   9.577 -1.7529 -3.3187 -0.2727
14814SOL     OW51556   0.711   6.101   0.656  0.4497 -0.3495 -0.7793
14814SOL    HW151557   0.631   6.075   0.609 -0.3370 -1.2515  0.9692
14814SOL    HW251558   0.713   6.044   0.733  3.1364 -0.7789 -1.0716
14815SOL     OW51559  11.916   6.977  11.507  0.9223  0.0034 -0.1518
14815SOL    HW151560  11.861   6.921  11.562  0.1619 -1.1834 -2.0024
14815SOL    HW251561  11.996   6.926  11.492  1.4180  0.6062  0.3826
14816SOL     OW51562   3.464  11.325  12.346  0.0740  0.1906  0.0154
14816SOL    HW151563   3.391  11.364  12.298 -0.5566  0.9935  1.5701
14816SOL    HW251564   3.534  11.389  12.338 -0.0939  0.4140  0.3283
14817SOL     OW51565  10.797   4.143  11.131  0.1453  0.2291  0.4905
14817SOL    HW151566  10.812   4.133  11.225 -0.2227 -1.8366  0.3890
14817SOL    HW251567  10.718   4.196  11.125  1.2271  2.0289  1.2645
14818SOL     OW51568   8.970   7.134   8.806 -0.7850 -0.0793  0.0164
14818SOL    HW151569   8.981   7.134   8.711 -1.6317 -0.1537 -0.0941
14818SOL    HW251570   8.906   7.064   8.823  0.3968 -1.0082  0.7826
14819SOL     OW51571   7.654  10.003   2.765 -0.2053  0.2513  0.1908
14819SOL    HW151572   7.593  10.023   2.836 -0.1728 -0.2557  0.3666
14819SOL    HW251573   7.710  10.080   2.759 -0.6306  0.5762  0.2655
14820SOL     OW51574   0.824   1.672   1.049  0.1233  0.3023  0.1247
14820SOL    HW151575   0.890   1.721   1.000 -0.6446  0.7595 -0.4630
14820SOL    HW251576   0.829   1.583   1.014  1.0358  0.1137  0.7053
14821SOL     OW51577  11.300  11.929   3.173 -0.0447 -0.1992 -0.0578
14821SOL    HW151578  11.349  11.893   3.099 -0.4826 -1.6212  0.3024
14821SOL    HW251579  11.256  12.006   3.137  0.8571 -0.0576 -0.8999
14822SOL     OW51580   4.846   3.138  11.686  0.4972 -0.2857  0.2242
14822SOL    HW151581   4.767   3.174  11.646  0.2599 -0.2041  0.7580
14822SOL    HW251582   4.917   3.169  11.631  0.1576 -0.3562 -0.2568
14823SOL     OW51583   4.070   7.725   2.404  0.0539  0.1635  0.0317
14823SOL    HW151584   4.042   7.800   2.352  1.8727  0.3253 -0.7807
14823SOL    HW251585   4.132   7.762   2.468  1.5137 -0.7086 -0.8358
14824SOL     OW51586   2.006   2.655  11.984 -0.5802 -0.6333  0.4103
14824SOL    HW151587   1.973   2.659  12.074 -0.6649 -2.7760  0.5232
14824SOL    HW251588   1.948   2.593  11.940 -1.1975  1.1591 -1.4697
14825SOL     OW51589   1.309   0.224   3.642 -0.0068 -0.1251 -0.1058
14825SOL    HW151590   1.268   0.297   3.688 -0.2290  0.6358 -1.4656
14825SOL    HW251591   1.245   0.153   3.649 -1.1205  0.7257 -1.2847
14826SOL     OW51592   7.501  11.895  12.738 -0.3362 -0.4207  0.0403
14826SOL    HW151593   7.475  11.943  12.816 -0.3026  0.7644 -0.6577
14826SOL    HW251594   7.418  11.869  12.697 -0.3820  0.3593 -0.3702
14827SOL     OW51595   0.455   8.624   3.535  1.1479  0.0917  0.0268
14827SOL    HW151596   0.489   8.642   3.622  0.0919  0.9685  0.2738
14827SOL    HW251597   0.394   8.695   3.517  0.0622 -0.9958 -0.7289
14828SOL     OW51598   1.422   5.844   5.673  0.4569  0.8305  0.3572
14828SOL    HW151599   1.474   5.883   5.743  0.0706 -1.4111  1.9798
14828SOL    HW251600   1.350   5.800   5.717  1.4060 -2.5618 -1.1936
14829SOL     OW51601   6.824   0.226   8.682 -0.3650 -0.0621  0.2234
14829SOL    HW151602   6.771   0.236   8.762 -3.0642  0.2554 -1.4888
14829SOL    HW251603   6.880   0.151   8.701 -0.0390  0.7296  2.8424
14830SOL     OW51604  12.392   7.312   3.893 -0.3328  0.0802 -0.3862
14830SOL    HW151605  12.348   7.379   3.945  1.0723 -0.8428  2.1594
14830SOL    HW251606  12.451   7.268   3.954  1.9550 -0.6936 -2.9288
14831SOL     OW51607  10.396   0.908   9.798  0.0319 -0.5326 -0.1965
14831SOL    HW151608  10.311   0.890   9.757 -0.4290  1.9146 -0.4812
14831SOL    HW251609  10.459   0.862   9.743 -0.8909 -0.0799 -1.6941
14832SOL     OW51610   8.259   5.551   3.840  0.1787  0.2562  0.5141
14832SOL    HW151611   8.340   5.590   3.807  0.3194  0.2698  0.8726
14832SOL    HW251612   8.199   5.625   3.850  0.0063  0.2005 -0.0830
14833SOL     OW51613   4.982   3.875   8.336 -0.1357 -0.2409 -1.0519
14833SOL    HW151614   4.921   3.909   8.270 -0.5814  0.7832 -0.1545
14833SOL    HW251615   5.030   3.953   8.365  0.2665 -0.7336 -0.3969
14834SOL     OW51616  12.858   7.239   5.720  0.2113  0.9346 -0.1363
14834SOL    HW151617  12.807   7.183   5.779  0.0583  0.6330 -0.5474
14834SOL    HW251618  12.844   7.328   5.752 -0.1531  0.8059  0.0685
14835SOL     OW51619  11.376   6.833   1.623 -0.2744  0.0557  0.5246
14835SOL    HW151620  11.310   6.764   1.621  0.1989 -0.4195  0.8192
14835SOL    HW251621  11.334   6.908   1.583 -0.2787 -0.8585 -1.2830
14836SOL     OW51622   4.710   1.701   3.193 -0.7847 -0.4182  0.0969
14836SOL    HW151623   4.640   1.688   3.129 -0.7901  1.0752 -0.2434
14836SOL    HW251624   4.665   1.706   3.277 -1.2379  1.4745 -0.2156
14837SOL     OW51625  11.298   2.191   2.679 -0.1548  0.1976 -0.6775
14837SOL    HW151626  11.271   2.274   2.640  0.1036 -0.3789 -2.1397
14837SOL    HW251627  11.301   2.130   2.605  0.8225 -0.8234  0.1826
14838SOL     OW51628   6.603   5.173   1.367 -0.1072 -0.3583 -0.1406
14838SOL    HW151629   6.595   5.140   1.456  0.5501 -1.4039 -0.4512
14838SOL    HW251630   6.621   5.266   1.377  2.2646 -0.8697  0.9263
14839SOL     OW51631   5.107   4.426   3.410  0.2077 -0.1711  0.0762
14839SOL    HW151632   5.051   4.350   3.427  0.7381 -0.8446 -1.0509
14839SOL    HW251633   5.179   4.416   3.472 -0.7278  0.5285  1.3163
14840SOL     OW51634   9.256   0.214   5.251  0.3426  0.2220 -0.3095
14840SOL    HW151635   9.185   0.237   5.190 -0.5269  1.5153  1.1326
14840SOL    HW251636   9.244   0.121   5.267 -0.5436  0.2531 -0.7109
14841SOL     OW51637   8.290   6.254   2.517  0.0594  1.1200  0.0861
14841SOL    HW151638   8.326   6.333   2.559  2.0028 -0.3244  1.3077
14841SOL    HW251639   8.284   6.190   2.587 -1.6565  0.2035 -0.8462
14842SOL     OW51640   2.096   7.951   1.821  0.0965  0.3703  0.2167
14842SOL    HW151641   2.162   7.939   1.889  0.9381 -2.1962 -0.9352
14842SOL    HW251642   2.146   7.977   1.743 -0.3909 -0.2385 -0.3133
14843SOL     OW51643   3.358   1.931   3.578  0.5497 -0.6185 -0.2597
14843SOL    HW151644   3.341   2.017   3.617 -1.5563 -0.7603 -0.7599
14843SOL    HW251645   3.328   1.869   3.644  2.1405 -1.0047  0.1320
14844SOL     OW51646   8.789   8.128  12.186 -0.0317 -0.1683 -0.2346
14844SOL    HW151647   8.790   8.096  12.096 -1.3066 -0.1275 -0.2795
14844SOL    HW251648   8.697   8.128  12.210  0.0788  1.7617  0.3657
14845SOL     OW51649   3.896  11.481   4.000  0.5786  0.5116 -0.0255
14845SOL    HW151650   3.840  11.439   3.935  0.9245  1.4902 -0.9752
14845SOL    HW251651   3.952  11.410   4.033  1.1946  0.2118 -1.6398
14846SOL     OW51652   6.268   2.314   3.851  0.6968  0.2957 -0.5009
14846SOL    HW151653   6.239   2.223   3.854  2.3916 -0.3185 -1.4519
14846SOL    HW251654   6.251   2.341   3.760  1.7062  0.3760 -0.6775
14847SOL     OW51655   7.717   3.270   1.004 -0.0112  0.5807 -1.2952
14847SOL    HW151656   7.766   3.276   1.086 -2.0543 -0.3686  0.1027
14847SOL    HW251657   7.779   3.295   0.936  2.4284 -0.7257  0.3196
14848SOL     OW51658   0.887   5.636  11.961 -0.2631 -0.1530  1.0673
14848SOL    HW151659   0.800   5.644  11.922  0.1573  0.0166  0.1210
14848SOL    HW251660   0.919   5.551  11.930  0.1722  0.0940  0.8287
14849SOL     OW51661   6.206  11.375   2.570 -1.2169 -0.4968 -0.4792
14849SOL    HW151662   6.245  11.290   2.589  1.2936  0.7241  0.2152
14849SOL    HW251663   6.208  11.382   2.474 -1.1500 -1.0718 -0.5216
14850SOL     OW51664   7.662   6.855   5.687  0.5334  0.2942 -0.0475
14850SOL    HW151665   7.716   6.777   5.673  1.1728  0.6219  0.5245
14850SOL    HW251666   7.599   6.830   5.755 -0.3451 -0.2298 -1.0353
14851SOL     OW51667   2.032   9.267   8.616 -0.2192 -0.3080  0.0909
14851SOL    HW151668   2.077   9.245   8.535  0.0326 -0.6802  0.3273
14851SOL    HW251669   1.977   9.191   8.634  0.4463 -0.6454  0.7692
14852SOL     OW51670   1.528   4.541   6.724 -0.5168  0.0485 -0.4196
14852SOL    HW151671   1.516   4.489   6.645  2.6062 -0.4172 -0.6905
14852SOL    HW251672   1.495   4.485   6.795 -0.4728 -0.8113 -1.0685
14853SOL     OW51673   6.294   7.029   4.553 -0.0570  0.3256  0.2688
14853SOL    HW151674   6.288   7.021   4.648  0.1112  1.1938  0.3607
14853SOL    HW251675   6.334   6.947   4.524  1.8124  0.8790  1.1462
14854SOL     OW51676   6.347   4.122   6.055  0.2882 -0.4778  0.1373
14854SOL    HW151677   6.329   4.177   5.979 -1.1383 -0.5503  0.4049
14854SOL    HW251678   6.414   4.169   6.104 -0.9821  1.0825  0.4242
14855SOL     OW51679   2.258  11.265   0.403  0.0085 -0.1657  0.2858
14855SOL    HW151680   2.238  11.181   0.443  0.8010 -1.0294 -1.0736
14855SOL    HW251681   2.187  11.282   0.342 -0.2563  0.2649  0.7046
14856SOL     OW51682  10.086   3.808   5.311  0.0040 -0.5040 -0.3229
14856SOL    HW151683  10.094   3.795   5.405 -1.6450  0.5107 -0.0082
14856SOL    HW251684  10.037   3.890   5.302  0.4465 -0.3877 -2.0741
14857SOL     OW51685   1.405  10.555   9.846 -0.0601 -0.8934  0.2040
14857SOL    HW151686   1.355  10.507   9.912 -0.0877  1.2367  1.8402
14857SOL    HW251687   1.344  10.619   9.811  0.6965 -0.2530  0.0211
14858SOL     OW51688   5.543  11.761   5.191 -0.4341  0.1044  0.2896
14858SOL    HW151689   5.608  11.762   5.120 -1.8151  1.2753 -1.0344
14858SOL    HW251690   5.537  11.852   5.219 -0.9331 -0.1216  0.9354
14859SOL     OW51691  12.562   1.857   0.191 -0.1112  0.4007 -0.4388
14859SOL    HW151692  12.606   1.827   0.270 -0.3558  1.3671  0.0731
14859SOL    HW251693  12.556   1.778   0.136 -1.6034 -0.7402  1.2428
14860SOL     OW51694   4.370   0.969  11.247  0.6327 -0.5406 -0.1071
14860SOL    HW151695   4.287   1.018  11.247  2.0133  1.9870  0.2472
14860SOL    HW251696   4.378   0.935  11.336  0.8472  0.9134  0.4623
14861SOL     OW51697   6.674   8.869   5.927 -0.2424 -0.5961 -0.8503
14861SOL    HW151698   6.653   8.955   5.890 -2.0552 -1.5900 -2.3559
14861SOL    HW251699   6.738   8.832   5.866  1.2750  0.0049  0.3208
14862SOL     OW51700   9.741   9.329   4.184  0.1336 -0.0801 -0.5262
14862SOL    HW151701   9.788   9.301   4.105  0.1166  0.3937 -0.7059
14862SOL    HW251702   9.769   9.267   4.252 -0.3867 -0.9181 -1.0610
14863SOL     OW51703   4.015   2.105   4.857  0.0735 -0.7746  0.4666
14863SOL    HW151704   3.944   2.127   4.917 -0.0081 -3.3088  1.4440
14863SOL    HW251705   3.973   2.090   4.773 -0.1357  0.4002  0.3410
14864SOL     OW51706   9.301   5.506   6.280 -0.4246 -0.2730 -0.4422
14864SOL    HW151707   9.213   5.539   6.263  0.1180  1.5211 -0.0690
14864SOL    HW251708   9.357   5.584   6.274  1.0781 -1.2927 -0.2516
14865SOL     OW51709   8.719   1.586   8.148 -0.0294  0.1014 -0.0776
14865SOL    HW151710   8.682   1.499   8.134 -0.6121  0.3627 -0.2242
14865SOL    HW251711   8.776   1.601   8.073  2.3880 -1.2925  1.3366
14866SOL     OW51712  11.958   4.873   7.279 -0.4194 -0.2272 -0.1694
14866SOL    HW151713  12.046   4.854   7.247 -0.9152 -0.3337 -1.5329
14866SOL    HW251714  11.923   4.936   7.216 -1.7776 -1.1641 -0.3787
14867SOL     OW51715  10.393   1.621   0.376 -0.4291 -0.3481  0.2752
14867SOL    HW151716  10.461   1.636   0.442  0.8445 -0.5510 -0.9415
14867SOL    HW251717  10.323   1.576   0.423 -0.4053  1.2242  1.9189
14868SOL     OW51718  11.575  10.338  10.053 -0.3849  0.3529  0.2755
14868SOL    HW151719  11.481  10.334  10.035 -0.2124  0.7195 -0.7942
14868SOL    HW251720  11.607  10.408   9.996  0.3276  1.1868  1.6513
14869SOL     OW51721   7.848   8.931  11.217 -0.4287  0.0563 -0.2269
14869SOL    HW151722   7.813   8.890  11.296  2.2229  0.7377  1.4408
14869SOL    HW251723   7.902   9.003  11.250 -0.2004  1.1203 -2.7565
14870SOL     OW51724  12.181   3.076   4.883 -0.4242 -0.4122 -0.3764
14870SOL    HW151725  12.184   3.172   4.887 -0.1706 -0.4698  2.0141
14870SOL    HW251726  12.099   3.052   4.927 -0.5911 -1.3059 -1.1414
14871SOL     OW51727   8.219   4.356   5.422  0.6118 -0.1598 -0.2301
14871SOL    HW151728   8.254   4.386   5.505  0.5728 -0.9978  0.0964
14871SOL    HW251729   8.147   4.297   5.445  1.4225 -1.4346 -0.8008
14872SOL     OW51730   4.736  12.047   9.031 -0.2907 -0.5833 -0.2389
14872SOL    HW151731   4.795  12.000   9.088 -0.0053 -1.9407 -1.5889
14872SOL    HW251732   4.757  12.140   9.046 -1.0929 -0.7936  2.6959
14873SOL     OW51733   2.517   7.415  10.351  0.4906 -0.1315  0.2424
14873SOL    HW151734   2.577   7.382  10.418  0.2081 -0.7458  0.1915
14873SOL    HW251735   2.431   7.409  10.391  0.5078  1.4284  0.5908
14874SOL     OW51736  11.405   3.790   9.584  0.2844  0.1277  0.1196
14874SOL    HW151737  11.384   3.849   9.512 -0.1397 -0.7790 -0.5248
14874SOL    HW251738  11.487   3.822   9.620  1.3703 -0.3464 -1.8213
14875SOL     OW51739   3.000   9.705   8.152 -0.2506 -0.1731 -0.3941
14875SOL    HW151740   3.064   9.636   8.133  0.5985 -0.7987  3.7208
14875SOL    HW251741   2.960   9.725   8.067  1.0984 -4.0654 -2.1921
14876SOL     OW51742  12.597   2.129   2.778  0.0842 -0.1288 -0.4503
14876SOL    HW151743  12.544   2.190   2.728 -1.3985 -0.8226  0.2105
14876SOL    HW251744  12.682   2.172   2.788 -0.4551  1.1526 -1.2413
14877SOL     OW51745   9.597   3.905  12.606  0.4258  0.0647  0.1234
14877SOL    HW151746   9.502   3.918  12.613  0.3382  0.0710 -0.9195
14877SOL    HW251747   9.634   3.989  12.634  0.2341 -0.6304  2.6707
14878SOL     OW51748   2.976  11.525   1.869 -0.1426  0.4611  0.3331
14878SOL    HW151749   2.928  11.443   1.854 -0.8106  0.8206  0.4799
14878SOL    HW251750   3.009  11.549   1.782  2.5623 -1.4532  0.6991
14879SOL     OW51751  12.918   2.513   5.768 -0.1123  0.2623 -0.4241
14879SOL    HW151752  12.904   2.427   5.806  0.2468  0.5085  0.2761
14879SOL    HW251753  12.918   2.573   5.842 -2.0373  1.1009 -1.0168
14880SOL     OW51754   9.406   2.338   6.959  0.1035 -0.5670  0.1909
14880SOL    HW151755   9.425   2.424   6.922 -0.8116 -0.9926 -1.3644
14880SOL    HW251756   9.491   2.294   6.964  0.3510 -0.2320 -0.7775
14881SOL     OW51757   5.317   1.195  11.265  0.4936 -0.6106 -0.8496
14881SOL    HW151758   5.271   1.157  11.190  0.6774 -0.8441 -0.8452
14881SOL    HW251759   5.359   1.120  11.308  0.9473 -0.3875 -0.9027
14882SOL     OW51760   8.257  11.897   1.515 -0.0386  0.8384 -0.6568
14882SOL    HW151761   8.252  11.844   1.595 -0.7923  0.2545 -1.0766
14882SOL    HW251762   8.269  11.833   1.445  2.3938  1.4595 -0.8733
14883SOL     OW51763   6.354  11.278   2.026 -0.6522  0.1000 -0.0276
14883SOL    HW151764   6.409  11.281   2.104 -0.7071 -0.4840  0.0419
14883SOL    HW251765   6.401  11.221   1.965  0.2808  1.9789 -1.1517
14884SOL     OW51766  10.145   9.586   6.278  0.4643 -0.3078  0.1009
14884SOL    HW151767  10.213   9.548   6.223  0.0145  0.9816 -1.4431
14884SOL    HW251768  10.187   9.661   6.321  0.4653 -0.5397  0.5109
14885SOL     OW51769  11.871   9.999   5.738  0.2211 -0.2348 -0.6837
14885SOL    HW151770  11.824  10.081   5.722 -0.8206 -0.7369 -0.3120
14885SOL    HW251771  11.914   9.979   5.655 -0.0602  0.3521 -0.9756
14886SOL     OW51772   5.750   2.584  12.708  0.4581 -0.0769 -0.3524
14886SOL    HW151773   5.706   2.663  12.740  0.0205 -0.4126 -0.1145
14886SOL    HW251774   5.753   2.595  12.613 -2.9940 -1.4228 -0.7885
14887SOL     OW51775   6.536   5.284  12.855  0.5021 -0.4150 -0.0438
14887SOL    HW151776   6.489   5.284  12.938 -1.6002  1.8601 -1.0855
14887SOL    HW251777   6.628   5.276  12.879 -0.0852 -0.5449  2.4326
14888SOL     OW51778   1.458   7.041   4.748 -0.4107 -0.2678  0.4006
14888SOL    HW151779   1.546   7.011   4.728  0.4582  2.6777 -0.6982
14888SOL    HW251780   1.414   7.047   4.663 -0.6360  1.1614  0.5956
14889SOL     OW51781  12.577   1.930   2.995 -0.2549 -0.4009  0.2094
14889SOL    HW151782  12.579   2.004   2.935 -1.0811  0.6289  1.3976
14889SOL    HW251783  12.598   1.968   3.081  1.1175 -1.8541  0.5813
14890SOL     OW51784   0.347   1.185  11.949  0.1322 -0.1145  0.2540
14890SOL    HW151785   0.289   1.225  12.014 -0.5464 -0.7917  0.0773
14890SOL    HW251786   0.312   1.097  11.937  0.4712 -0.1187 -0.7666
14891SOL     OW51787  10.786  12.595   5.929 -0.4646 -0.1764 -0.0786
14891SOL    HW151788  10.727  12.662   5.895 -1.6561 -1.5782 -0.9090
14891SOL    HW251789  10.800  12.619   6.021 -1.3611  0.8371 -0.1863
14892SOL     OW51790   8.013   4.114   0.956 -0.1669  0.1289 -0.1006
14892SOL    HW151791   8.085   4.061   0.990 -0.8709  1.2578  3.6045
14892SOL    HW251792   8.042   4.205   0.969 -0.7295  0.6668 -2.2686
14893SOL     OW51793   1.225  11.444  10.902 -0.2263 -0.5623  0.5465
14893SOL    HW151794   1.207  11.497  10.979 -2.2183  0.9882 -0.8700
14893SOL    HW251795   1.305  11.482  10.865  0.1322 -0.6240  1.2479
14894SOL     OW51796   1.110  10.114  12.613 -0.1328 -0.6350  0.0362
14894SOL    HW151797   1.160  10.144  12.537 -0.2730 -0.1472  0.1323
14894SOL    HW251798   1.175  10.096  12.680 -0.1292  1.1721  0.5753
14895SOL     OW51799   5.047  11.060   4.190 -0.8278  0.0583  0.0653
14895SOL    HW151800   4.976  11.049   4.125  0.2637  0.6034 -1.2751
14895SOL    HW251801   5.109  11.118   4.147  0.2540 -0.0820  1.3882
14896SOL     OW51802   1.122   2.194   2.214 -0.1405  0.0830 -0.5032
14896SOL    HW151803   1.128   2.289   2.209 -1.1664  0.2420  0.6814
14896SOL    HW251804   1.125   2.175   2.308  1.1527 -1.1542 -0.7745
14897SOL     OW51805   8.826   8.244  12.486  0.0142 -0.4354 -0.5485
14897SOL    HW151806   8.871   8.168  12.448 -0.7196 -1.7665  1.0916
14897SOL    HW251807   8.896   8.295  12.528  0.4243 -0.5926 -1.0341
14898SOL     OW51808   7.478   3.514   2.128  0.3807 -0.3136 -0.1587
14898SOL    HW151809   7.408   3.539   2.068  0.1199 -2.3612 -0.7890
14898SOL    HW251810   7.433   3.495   2.210  0.5265  0.7346  0.1836
14899SOL     OW51811   6.992   3.124   3.077 -0.3617 -0.1522 -0.1852
14899SOL    HW151812   6.945   3.198   3.116 -0.4338 -1.9030  3.4374
14899SOL    HW251813   6.927   3.054   3.076  0.5883 -1.0352 -0.5720
14900SOL     OW51814   4.765   6.756   1.594  0.0445  0.3964 -0.1108
14900SOL    HW151815   4.831   6.714   1.539 -0.9555  1.1609 -1.9984
14900SOL    HW251816   4.749   6.694   1.665  0.1242 -1.4458 -1.6426
14901SOL     OW51817   2.791   7.443   8.016  0.0694 -0.0690  0.6618
14901SOL    HW151818   2.820   7.400   8.097  1.8181  2.6884  1.6446
14901SOL    HW251819   2.696   7.431   8.015  0.1575 -1.2812  2.4153
14902SOL     OW51820   2.451   5.061   0.305  0.0336 -0.1530  0.4053
14902SOL    HW151821   2.490   5.118   0.239 -0.0183 -0.4420  0.1217
14902SOL    HW251822   2.522   5.043   0.366 -0.2596  1.2058  1.1840
14903SOL     OW51823   5.614   4.413   0.969  0.1278 -0.2057  0.0781
14903SOL    HW151824   5.629   4.337   0.913 -0.9876 -0.0077 -0.5160
14903SOL    HW251825   5.682   4.407   1.036  2.8834  0.6574 -2.4120
14904SOL     OW51826   2.597   2.397   7.282 -0.6061 -0.7907  0.1515
14904SOL    HW151827   2.600   2.491   7.300  0.6409 -0.8707  0.4702
14904SOL    HW251828   2.568   2.358   7.364 -1.2043 -0.6879 -0.0054
14905SOL     OW51829   7.436  11.863   0.527  0.2147 -0.1554  0.6105
14905SOL    HW151830   7.428  11.789   0.587  1.2978 -0.1013  0.8360
14905SOL    HW251831   7.416  11.939   0.581 -0.4887 -0.2438  0.4805
14906SOL     OW51832   7.581   6.339   9.316  0.8032 -0.1341  0.3553
14906SOL    HW151833   7.667   6.302   9.336  1.3628  0.7550 -0.3222
14906SOL    HW251834   7.559   6.304   9.230 -0.0068 -1.1819  0.9631
14907SOL     OW51835   6.952   9.104   0.573 -0.1613 -0.1891 -0.1427
14907SOL    HW151836   6.908   9.158   0.507  1.1845 -0.4449 -1.3148
14907SOL    HW251837   7.042   9.097   0.541 -0.2655 -3.0696 -0.0090
14908SOL     OW51838  11.831   1.276   2.551 -0.0727  0.1267 -0.1812
14908SOL    HW151839  11.783   1.342   2.501 -2.3021 -1.7506 -0.6984
14908SOL    HW251840  11.789   1.274   2.636 -0.1782 -0.7429 -0.2398
14909SOL     OW51841  11.380   5.383  11.098  0.1742 -0.0859 -0.1417
14909SOL    HW151842  11.458   5.433  11.122  1.4822 -1.7067 -0.8833
14909SOL    HW251843  11.313   5.450  11.082  2.1690  1.5555 -2.2943
14910SOL     OW51844   2.605  10.137   0.310 -0.0232  0.2041  0.0042
14910SOL    HW151845   2.686  10.126   0.260  0.2571  1.6157  0.0876
14910SOL    HW251846   2.536  10.138   0.244  0.2749  1.3489 -0.3114
14911SOL     OW51847   0.470   4.802   4.266 -0.4503 -0.6486  0.1224
14911SOL    HW151848   0.552   4.783   4.312  0.0942  0.8707 -0.1356
14911SOL    HW251849   0.408   4.825   4.335  0.2680  1.2922  0.1766
14912SOL     OW51850   1.848   8.453   2.075 -0.0750  0.4572 -0.1664
14912SOL    HW151851   1.811   8.449   2.164  1.2292 -2.2657  0.3589
14912SOL    HW251852   1.830   8.542   2.046 -3.3633  0.5278  1.5916
14913SOL     OW51853   5.720   7.649   7.632  0.2247  0.5240 -0.2255
14913SOL    HW151854   5.688   7.621   7.718 -1.7818  0.8801 -0.7798
14913SOL    HW251855   5.784   7.718   7.652  1.2575 -0.7255  0.9919
14914SOL     OW51856   8.326  12.287   9.721  0.3161  0.1563  0.3613
14914SOL    HW151857   8.357  12.354   9.661  2.6976 -1.4330 -0.3373
14914SOL    HW251858   8.242  12.258   9.685 -0.1296  1.8065 -0.0204
14915SOL     OW51859  12.145  10.758   5.191  0.2979 -0.6346  0.3687
14915SOL    HW151860  12.140  10.714   5.107  0.4577  0.8203 -0.4380
14915SOL    HW251861  12.230  10.732   5.228  0.4802 -0.8281 -0.1864
14916SOL     OW51862   0.658   7.557   9.168  0.0084  0.4732  0.5971
14916SOL    HW151863   0.612   7.487   9.215 -1.7815  0.5626 -0.9078
14916SOL    HW251864   0.693   7.515   9.090 -1.2050  1.2281 -0.3961
14917SOL     OW51865   5.867   4.022   0.968 -1.2841 -0.2445  0.0577
14917SOL    HW151866   5.831   4.098   0.923 -0.6526  0.1134  0.1413
14917SOL    HW251867   5.909   4.058   1.047 -0.3349 -0.5804 -0.2790
14918SOL     OW51868   9.906   4.867   2.115  0.4177 -0.1350 -0.1380
14918SOL    HW151869   9.976   4.924   2.085 -0.8091  1.6443  0.2034
14918SOL    HW251870   9.862   4.838   2.035 -0.0690  0.9207 -0.2700
14919SOL     OW51871   9.199  12.599   5.379 -0.5676  0.3743  0.1645
14919SOL    HW151872   9.275  12.577   5.432 -0.4854  1.6479  0.5852
14919SOL    HW251873   9.134  12.631   5.441 -1.6026 -1.0276 -0.1457
14920SOL     OW51874   0.404   1.413   3.074  0.4039  0.3067  0.3242
14920SOL    HW151875   0.420   1.508   3.080 -0.3401  0.4218  0.5659
14920SOL    HW251876   0.448   1.386   2.994 -1.5228  1.3242 -1.1664
14921SOL     OW51877   8.194   4.333   1.162  0.8797  0.3807  0.6567
14921SOL    HW151878   8.255   4.403   1.187  1.1842  0.1999  0.4278
14921SOL    HW251879   8.170   4.355   1.072  2.8142 -1.0779 -0.2795
14922SOL     OW51880   2.033   4.945   4.435  0.1351  0.5496  0.4596
14922SOL    HW151881   1.974   4.877   4.403  0.1865  0.0172  1.4538
14922SOL    HW251882   2.118   4.922   4.397  0.1411  0.0825  0.7425
14923SOL     OW51883   6.892   1.460  12.354 -0.5719 -0.3414 -1.2314
14923SOL    HW151884   6.864   1.503  12.274  0.3891  0.5315 -1.1120
14923SOL    HW251885   6.966   1.512  12.386 -2.2460  0.6396  1.3804
14924SOL     OW51886   4.907   3.908   1.326 -0.3508  0.2144 -0.3179
14924SOL    HW151887   4.846   3.957   1.270 -0.5997 -0.4797 -0.6743
14924SOL    HW251888   4.870   3.819   1.329  0.6977 -0.2460 -0.6327
14925SOL     OW51889   9.156   0.225   6.416 -0.2492 -0.2282  0.6608
14925SOL    HW151890   9.150   0.320   6.400  0.6495  0.2132  2.6350
14925SOL    HW251891   9.069   0.192   6.393 -1.3227  1.4590  1.9818
14926SOL     OW51892   1.056   4.965   1.733  0.0537  0.4444  0.6164
14926SOL    HW151893   0.965   4.937   1.728  0.0359  0.6065 -0.0437
14926SOL    HW251894   1.106   4.884   1.740 -0.2289  0.3860  3.0375
14927SOL     OW51895  10.575  12.854   2.539  0.1578 -0.1492  0.3306
14927SOL    HW151896  10.623  12.887   2.615 -1.2191 -1.8884  2.0636
14927SOL    HW251897  10.497  12.910   2.535 -0.9201 -1.4749  1.7033
14928SOL     OW51898   3.990   8.033   3.818 -0.1241 -0.1952 -0.1859
14928SOL    HW151899   3.897   8.050   3.831 -0.1689 -0.6000  0.0570
14928SOL    HW251900   4.007   7.953   3.868  0.8087  1.0015  1.5159
14929SOL     OW51901   3.269   9.642  10.951 -0.3398  0.1369 -0.0175
14929SOL    HW151902   3.246   9.584  11.023 -1.0623  0.9389  0.4237
14929SOL    HW251903   3.328   9.591  10.896  0.1587 -0.5133  1.0977
14930SOL     OW51904   8.156  10.748  11.969  0.0287  0.0867  0.0349
14930SOL    HW151905   8.115  10.665  11.946  1.7162 -0.4913 -1.1210
14930SOL    HW251906   8.164  10.745  12.064 -1.9786 -0.0364  0.2319
14931SOL     OW51907   9.715   1.995  11.995 -0.1666  0.6954  0.3160
14931SOL    HW151908   9.685   2.035  12.077  0.5886  0.1424  0.8777
14931SOL    HW251909   9.694   1.902  12.005  2.3616  0.1150  1.0985
14932SOL     OW51910   6.559  11.780   3.426  0.2451 -0.3739 -0.2474
14932SOL    HW151911   6.613  11.856   3.447 -0.6900 -0.3918  2.6627
14932SOL    HW251912   6.613  11.705   3.452 -0.3551 -0.4687  0.8046
14933SOL     OW51913  11.570   9.775   0.886 -0.4027  0.6006  0.3914
14933SOL    HW151914  11.654   9.821   0.880  0.9000 -1.6559 -0.1919
14933SOL    HW251915  11.526   9.815   0.961  1.0570  2.0451  0.5477
14934SOL     OW51916   6.568  10.319   1.692 -0.1373 -0.8641  0.1357
14934SOL    HW151917   6.581  10.394   1.750  1.0164 -2.6666  2.4070
14934SOL    HW251918   6.476  10.297   1.701 -0.4215  0.1069 -0.3442
14935SOL     OW51919  12.447   6.304   7.244  0.1006  0.6287  0.2006
14935SOL    HW151920  12.435   6.233   7.181  1.3407  0.1400  0.4796
14935SOL    HW251921  12.501   6.266   7.313  1.3452  2.0056  0.0437
14936SOL     OW51922   0.102   1.968  10.798  0.1169  0.2306 -0.1044
14936SOL    HW151923   0.158   2.046  10.795  0.7769 -0.2279  0.1107
14936SOL    HW251924   0.106   1.939  10.889 -1.0037  0.5629  0.0694
14937SOL     OW51925   2.115   4.635   7.450 -0.1311 -0.7695  0.1797
14937SOL    HW151926   2.158   4.605   7.370 -0.4713 -2.5507  0.6198
14937SOL    HW251927   2.185   4.677   7.500  0.4123 -0.9331 -0.4242
14938SOL     OW51928  12.234   1.831   1.423  0.5432 -0.1846 -0.3969
14938SOL    HW151929  12.171   1.796   1.360  0.4862  0.6148 -0.7983
14938SOL    HW251930  12.286   1.894   1.372  0.0537  0.9801  0.4995
14939SOL     OW51931   2.096   3.084   7.984 -0.0649 -0.0345 -0.0082
14939SOL    HW151932   2.084   3.009   8.042  0.1996  0.3680  0.5761
14939SOL    HW251933   2.056   3.057   7.901 -1.6885 -0.0986  0.7645
14940SOL     OW51934   1.953   6.143  10.535 -0.0041 -0.3753 -0.4906
14940SOL    HW151935   1.922   6.227  10.569 -0.4976 -0.6549 -0.2341
14940SOL    HW251936   1.873   6.094  10.517  0.2831 -0.7809 -0.6711
14941SOL     OW51937   4.161  10.204   2.682  0.0432 -0.0611  0.0445
14941SOL    HW151938   4.152  10.299   2.682  1.7928  0.1422 -0.3738
14941SOL    HW251939   4.195  10.183   2.595  0.4552 -0.9639  0.4032
14942SOL     OW51940  10.252   1.356   4.986 -0.2843 -0.3950 -0.2216
14942SOL    HW151941  10.297   1.288   4.936  0.2664  0.2194 -0.5588
14942SOL    HW251942  10.255   1.434   4.931 -1.0320 -0.1183  0.1078
14943SOL     OW51943   2.086   6.378  12.536  0.0079 -0.5040  0.2885
14943SOL    HW151944   2.067   6.442  12.605 -1.6793  0.3712 -0.9131
14943SOL    HW251945   2.148   6.317  12.577 -0.7124  0.1200  2.4795
14944SOL     OW51946  10.030   7.931  10.521  0.7485 -0.3086 -0.5631
14944SOL    HW151947   9.989   8.016  10.501  1.2904  0.2846  0.7254
14944SOL    HW251948  10.023   7.923  10.616  2.2419 -0.9047 -0.4783
14945SOL     OW51949  12.566   2.306   5.415  0.2593  0.1657 -0.3247
14945SOL    HW151950  12.626   2.232   5.422  0.6370  0.4848 -0.1651
14945SOL    HW251951  12.594   2.352   5.336 -0.0700  0.0578 -0.5075
14946SOL     OW51952  11.339   9.113   8.467  0.5055 -0.0537 -0.4130
14946SOL    HW151953  11.406   9.115   8.534 -0.4730 -2.2676  0.7215
14946SOL    HW251954  11.359   9.036   8.414 -0.3455  0.0333 -0.8943
14947SOL     OW51955   4.811   4.072   7.707  0.9459  0.6645  0.3808
14947SOL    HW151956   4.761   4.064   7.626  1.0731  0.1962  0.3478
14947SOL    HW251957   4.903   4.065   7.680  0.9661 -0.2197  0.6457
14948SOL     OW51958   4.444   8.148   0.547 -0.1793  0.0027  0.0918
14948SOL    HW151959   4.429   8.181   0.458  0.9019  0.5663  0.0963
14948SOL    HW251960   4.471   8.056   0.534 -2.1891 -0.6158  0.0119
14949SOL     OW51961  11.786   0.709   7.557  0.4086  0.5920  0.1999
14949SOL    HW151962  11.780   0.620   7.593  0.3043  0.7270  0.5241
14949SOL    HW251963  11.778   0.766   7.634 -1.2080  0.9183 -0.1746
14950SOL     OW51964   7.875   2.772  10.795  0.1339 -0.2005  0.2319
14950SOL    HW151965   7.858   2.866  10.794 -0.6826 -0.3416 -0.0579
14950SOL    HW251966   7.789   2.732  10.811  0.6855 -0.8519  1.7888
14951SOL     OW51967   0.282   9.981  11.323  0.2509  0.1843  0.0694
14951SOL    HW151968   0.296   9.898  11.276  0.9671 -0.6712  1.7226
14951SOL    HW251969   0.190  10.001  11.309 -0.6311 -2.2761  1.7292
14952SOL     OW51970   5.469   4.168   3.482  0.4145  0.2628  0.0463
14952SOL    HW151971   5.493   4.117   3.559  1.2702 -0.5965 -0.7665
14952SOL    HW251972   5.552   4.203   3.450 -0.0497  1.4063  0.0397
14953SOL     OW51973  12.584  11.649   3.466  0.5150  0.0254  0.1750
14953SOL    HW151974  12.562  11.686   3.551 -0.2344 -0.6699  0.2940
14953SOL    HW251975  12.549  11.712   3.403  1.2699  0.6557  0.3621
14954SOL     OW51976   6.003   6.118  10.259 -0.1770  0.4700  0.0810
14954SOL    HW151977   5.961   6.033  10.274  3.1797 -1.8283 -2.1825
14954SOL    HW251978   5.936   6.169  10.213 -2.5806 -0.5219  2.1932
14955SOL     OW51979   3.059   7.030   7.396 -0.0119 -0.2003 -0.1489
14955SOL    HW151980   3.114   7.043   7.318  0.6250 -1.0692  0.1389
14955SOL    HW251981   3.007   6.952   7.377 -0.0961 -0.2213  0.1602
14956SOL     OW51982   0.042  10.738   4.980 -0.0199  0.1712  0.1085
14956SOL    HW151983   0.072  10.797   4.910  1.7591 -2.5619 -1.6414
14956SOL    HW251984   0.094  10.762   5.056 -0.1393  1.5586 -0.2250
14957SOL     OW51985   9.375   8.805   8.071  0.1327 -0.2195 -0.2736
14957SOL    HW151986   9.437   8.742   8.035  0.2655 -0.2883  0.0724
14957SOL    HW251987   9.385   8.883   8.017  1.0059  0.0079  0.2092
14958SOL     OW51988   8.520   9.968   2.392 -0.2174 -0.0560 -0.6742
14958SOL    HW151989   8.551  10.046   2.437  0.1483 -0.6039  0.0393
14958SOL    HW251990   8.503   9.905   2.462  0.0831 -0.8229 -1.2803
14959SOL     OW51991   5.878   5.471   7.515 -0.4394  0.0455 -0.0989
14959SOL    HW151992   5.921   5.557   7.520  1.8910 -1.0324 -0.2350
14959SOL    HW251993   5.875   5.451   7.422 -0.3616 -0.3041 -0.0269
14960SOL     OW51994   1.294   8.373   1.962  0.0331  0.9427  0.2287
14960SOL    HW151995   1.228   8.305   1.952  0.3530  0.5980  0.4566
14960SOL    HW251996   1.368   8.330   2.004  0.4819  1.2752 -0.2023
14961SOL     OW51997   4.819   1.592   9.440 -0.5727 -0.1928 -0.0734
14961SOL    HW151998   4.894   1.565   9.492 -0.4787  0.5295  0.1773
14961SOL    HW251999   4.857   1.639   9.366 -0.7417 -0.5774 -0.4091
14962SOL     OW52000   4.846  10.730   8.563 -0.0457  0.3974 -0.4889
14962SOL    HW152001   4.881  10.642   8.580 -0.3705  0.2752 -0.4439
14962SOL    HW252002   4.830  10.766   8.650 -1.0889  0.0223 -0.5119
14963SOL     OW52003   4.963  10.630   8.956 -0.3261 -0.1187 -0.5819
14963SOL    HW152004   4.947  10.538   8.978 -2.4318  0.4735  0.5949
14963SOL    HW252005   5.014  10.627   8.875  1.4005 -2.3196  0.4927
14964SOL     OW52006   7.125   6.385   7.373 -0.5018  0.6380  0.0661
14964SOL    HW152007   7.046   6.371   7.320 -1.6319  0.9628  1.5964
14964SOL    HW252008   7.110   6.469   7.417  1.3117  1.3781 -0.6123
14965SOL     OW52009  10.005  10.016   4.447 -0.2819  0.3747  0.0965
14965SOL    HW152010  10.058  10.054   4.377  1.2809 -1.0998  0.4092
14965SOL    HW252011  10.032   9.924   4.450  0.1383  0.4912  2.9682
14966SOL     OW52012  12.519   4.904   1.578  0.0733 -0.1589 -0.0953
14966SOL    HW152013  12.572   4.826   1.562 -0.5383 -1.1449  2.1497
14966SOL    HW252014  12.573   4.958   1.635  0.3112  0.8791 -1.2720
14967SOL     OW52015   7.763   2.146   4.294 -0.4353  0.6836  0.2464
14967SOL    HW152016   7.837   2.097   4.257 -0.9165  0.1428 -0.0240
14967SOL    HW252017   7.778   2.236   4.267  0.1604  0.5871  0.2498
14968SOL     OW52018  10.134   6.199   2.480  0.1871 -0.2259 -0.0631
14968SOL    HW152019  10.196   6.134   2.513  1.0879 -0.7616 -2.5640
14968SOL    HW252020  10.056   6.186   2.534  1.3004 -1.4270  1.3710
14969SOL     OW52021   8.822   8.066   4.078 -0.5004 -0.1494  0.3750
14969SOL    HW152022   8.813   8.049   3.984  1.2615  1.5160 -0.1567
14969SOL    HW252023   8.917   8.070   4.092 -0.7430  1.3769  1.8756
14970SOL     OW52024  10.945   2.256   2.775 -0.2808  0.0057  0.4251
14970SOL    HW152025  11.029   2.276   2.817 -0.1795 -0.7597  0.6065
14970SOL    HW252026  10.884   2.321   2.811  0.8246  2.5768 -1.9830
14971SOL     OW52027   2.049  12.045   9.383 -0.4248  0.2426 -0.5428
14971SOL    HW152028   2.133  12.090   9.397 -0.9325  0.7249  1.1840
14971SOL    HW252029   2.040  11.987   9.458 -1.0903 -0.7181 -1.3401
14972SOL     OW52030   7.179   7.503   3.127 -0.1782 -0.1392 -0.2171
14972SOL    HW152031   7.210   7.415   3.109  0.2407 -0.3774  1.4850
14972SOL    HW252032   7.124   7.494   3.206 -1.9688  0.7835 -1.2821
14973SOL     OW52033   5.533  12.501   1.362  0.1063 -0.0313 -0.2450
14973SOL    HW152034   5.516  12.526   1.452 -0.5151  0.2952 -0.4448
14973SOL    HW252035   5.446  12.489   1.323  0.3161  1.0497 -1.1272
14974SOL     OW52036   4.532   6.513   5.577  0.1290 -0.2260  0.0727
14974SOL    HW152037   4.621   6.550   5.575  0.8817 -1.5146  3.6163
14974SOL    HW252038   4.477   6.584   5.609  0.2809 -0.1008  0.0586
14975SOL     OW52039   5.580   8.983   7.716  0.3062 -0.0260 -0.6401
14975SOL    HW152040   5.672   9.008   7.723 -0.1275  1.3390  0.7461
14975SOL    HW252041   5.540   9.051   7.662 -0.3102  0.6506  0.6385
14976SOL     OW52042  12.549   2.295   6.624  0.3298  0.1353 -0.4024
14976SOL    HW152043  12.562   2.207   6.658  0.0611  0.8430  1.6340
14976SOL    HW252044  12.598   2.297   6.542  0.3360 -1.8886 -0.4853
14977SOL     OW52045   7.868   5.951  11.606  0.3762 -0.2529 -0.0949
14977SOL    HW152046   7.901   5.894  11.537 -0.0044 -0.6934  0.0819
14977SOL    HW252047   7.938   5.954  11.672  0.0997 -1.1244  0.2481
14978SOL     OW52048   8.429   1.420   6.815  0.2599  0.0734 -0.2718
14978SOL    HW152049   8.523   1.407   6.804  0.4976  0.2611  1.3378
14978SOL    HW252050   8.418   1.514   6.825  0.1315 -0.0746  1.2212
14979SOL     OW52051   3.951   8.206   3.208  0.3520 -0.2266 -0.3179
14979SOL    HW152052   3.992   8.161   3.135  0.4498 -2.5875  1.0704
14979SOL    HW252053   4.022   8.220   3.271 -0.3531 -1.9368  0.9708
14980SOL     OW52054   4.483  12.059  11.334 -0.8034  0.2377 -1.0771
14980SOL    HW152055   4.576  12.040  11.330 -0.4936  1.4933 -0.3870
14980SOL    HW252056   4.459  12.045  11.426 -1.9721 -2.8267 -1.7278
14981SOL     OW52057   6.105   1.051   1.682 -0.3039 -0.5411 -0.0458
14981SOL    HW152058   6.169   0.981   1.691  3.3546  2.6045  0.9893
14981SOL    HW252059   6.112   1.078   1.591 -0.9544 -0.8348 -0.1879
14982SOL     OW52060  11.483   1.352  10.290 -0.0657  0.2739 -0.5445
14982SOL    HW152061  11.447   1.264  10.286 -0.2948  0.3219  0.3748
14982SOL    HW252062  11.457   1.392  10.206  3.0774 -1.6518 -2.6535
14983SOL     OW52063   7.528   3.519   1.129  0.0605 -0.0346  0.0949
14983SOL    HW152064   7.519   3.614   1.125 -2.0150 -0.2049 -1.7927
14983SOL    HW252065   7.603   3.499   1.073  0.4855  0.4770  0.4765
14984SOL     OW52066  12.361  10.735  12.216 -0.1659 -0.0428 -0.7559
14984SOL    HW152067  12.356  10.676  12.141  1.3415  0.3596 -1.2113
14984SOL    HW252068  12.309  10.811  12.192 -0.8667 -0.5308 -0.7913
14985SOL     OW52069  11.524   4.577  12.160 -0.2172 -0.1381 -0.0201
14985SOL    HW152070  11.444   4.612  12.120 -0.2723  0.5798  0.6968
14985SOL    HW252071  11.575   4.655  12.181  0.4568 -0.5768 -0.0236
14986SOL     OW52072   2.740   5.420   7.093  0.1534 -0.2616  0.1863
14986SOL    HW152073   2.700   5.334   7.108 -0.3735 -0.1047 -0.3024
14986SOL    HW252074   2.736   5.463   7.178 -0.1836 -0.4746  0.2808
14987SOL     OW52075   5.373   1.615  10.316 -0.0127  0.0170  0.1138
14987SOL    HW152076   5.445   1.668  10.281  0.8057 -0.7311  0.6370
14987SOL    HW252077   5.311   1.679  10.351  1.5967  0.6242  1.9884
14988SOL     OW52078   1.977   3.627  10.265 -0.3291  0.4927 -0.0542
14988SOL    HW152079   1.976   3.532  10.250 -0.1535  0.4469  0.2186
14988SOL    HW252080   2.058   3.657  10.223 -1.8549  0.9947 -2.9079
14989SOL     OW52081   5.825   4.007   6.484  0.0920  0.2530  0.2232
14989SOL    HW152082   5.844   4.047   6.568  2.6432 -2.2556  1.0238
14989SOL    HW252083   5.834   4.078   6.420 -1.7468  2.1720  1.9281
14990SOL     OW52084  12.879  11.028   2.403 -0.8683 -0.0817 -0.6847
14990SOL    HW152085  12.936  10.980   2.463 -1.0462  0.2237 -0.2651
14990SOL    HW252086  12.915  11.011   2.316 -0.6416 -0.5742 -0.4960
14991SOL     OW52087   2.250   0.248  11.408 -0.0189  0.3612  0.3191
14991SOL    HW152088   2.284   0.237  11.496 -0.5692 -1.0228  0.3825
14991SOL    HW252089   2.249   0.343  11.394  2.3707  0.5370  0.8745
14992SOL     OW52090   3.816  10.247   0.653  0.1674  0.2983 -0.4466
14992SOL    HW152091   3.807  10.326   0.598 -0.4671  0.1017 -0.6385
14992SOL    HW252092   3.858  10.183   0.596 -0.3597  0.1404 -0.6665
14993SOL     OW52093  10.423   9.111  12.895 -0.7384 -0.3513  0.1737
14993SOL    HW152094  10.510   9.143  12.917 -1.2671  0.0859  1.7918
14993SOL    HW252095  10.370   9.191  12.887 -0.9592 -0.6001 -1.0156
14994SOL     OW52096   6.009   9.136  12.548 -0.4499  0.6307 -0.0995
14994SOL    HW152097   6.066   9.080  12.496  0.0722  1.8180 -0.8576
14994SOL    HW252098   6.002   9.092  12.632  0.7643 -0.0672 -0.3357
14995SOL     OW52099  10.592   5.488   0.245 -0.3579  0.0129  0.2971
14995SOL    HW152100  10.672   5.519   0.289 -0.6771 -0.7791  1.5028
14995SOL    HW252101  10.540   5.567   0.231 -0.0174  0.3499  0.8985
14996SOL     OW52102   1.915  12.144   7.193 -0.0187 -0.0826  0.0715
14996SOL    HW152103   1.941  12.163   7.103 -1.0587  2.2016  0.1889
14996SOL    HW252104   1.844  12.080   7.185 -0.4402  0.4734 -0.7847
14997SOL     OW52105   7.878   2.554  11.105  0.4747  0.3206  0.0440
14997SOL    HW152106   7.831   2.610  11.166  0.1289 -0.7292  0.7851
14997SOL    HW252107   7.968   2.584  11.108  0.5807 -0.1056  1.5627
14998SOL     OW52108   0.169   7.647   5.587 -0.2731 -0.0629  0.0495
14998SOL    HW152109   0.100   7.656   5.520 -0.3360 -0.0330  0.1177
14998SOL    HW252110   0.248   7.681   5.544 -0.2296 -0.4050 -0.1397
14999SOL     OW52111   0.836   7.416   7.553  0.4607 -0.2677 -0.0475
14999SOL    HW152112   0.870   7.452   7.472 -1.0880  2.2742  0.3140
14999SOL    HW252113   0.743   7.403   7.537  0.2494 -0.3465  1.1293
15000SOL     OW52114   0.821   7.773  10.590 -0.0137  0.2583 -0.1379
15000SOL    HW152115   0.878   7.702  10.620  0.0845 -0.4802 -1.9579
15000SOL    HW252116   0.872   7.818  10.523 -0.4945  1.3966  0.2452
15001SOL     OW52117   6.224  12.842   0.983 -0.4076 -0.0316 -0.0761
15001SOL    HW152118   6.258  12.761   0.946 -0.8342 -0.2334 -0.0368
15001SOL    HW252119   6.196  12.893   0.907 -1.5842 -0.5823 -0.0250
15002SOL     OW52120   3.391   7.684   8.063  0.2384 -0.0163 -1.0647
15002SOL    HW152121   3.462   7.720   8.011 -1.2299  0.9501 -2.4980
15002SOL    HW252122   3.311   7.719   8.023 -1.1593 -2.4847 -0.6660
15003SOL     OW52123   1.146   4.084   9.522 -0.5727 -0.2673  0.3920
15003SOL    HW152124   1.221   4.037   9.485 -2.1832 -1.2941 -1.7774
15003SOL    HW252125   1.119   4.031   9.597  0.5597 -0.1168  0.9312
15004SOL     OW52126   2.059   0.510   3.844 -0.6817 -0.2613  0.2257
15004SOL    HW152127   2.041   0.558   3.925  0.6031 -1.5336  1.3133
15004SOL    HW252128   1.989   0.444   3.840  0.5731 -1.7701  1.6479
15005SOL     OW52129   5.780  12.380   4.892  0.0266 -0.5867  0.0158
15005SOL    HW152130   5.823  12.432   4.961 -0.1518 -1.8674  1.1239
15005SOL    HW252131   5.689  12.409   4.893  0.4734  1.0924 -1.3527
15006SOL     OW52132   9.610   9.723   2.474  0.5913 -0.4555  0.1937
15006SOL    HW152133   9.550   9.797   2.474  1.2017  0.0559  0.3188
15006SOL    HW252134   9.612   9.692   2.565  1.4561  0.3266  0.4568
15007SOL     OW52135   9.249  10.520   1.226 -0.7632 -0.0032 -0.2184
15007SOL    HW152136   9.186  10.471   1.279  1.6627 -0.1494  2.8250
15007SOL    HW252137   9.313  10.455   1.198 -0.3872  0.6060 -0.8145
15008SOL     OW52138   0.702   2.571   3.627 -0.1014  0.5634  0.0072
15008SOL    HW152139   0.727   2.621   3.550  0.2141 -0.3433 -0.4975
15008SOL    HW252140   0.780   2.520   3.649 -0.2903  0.5831  0.7412
15009SOL     OW52141  11.463  10.088   2.528  0.4232 -0.2945  0.1794
15009SOL    HW152142  11.491  10.145   2.456  0.8428 -0.5308  0.1555
15009SOL    HW252143  11.415  10.017   2.484 -0.1448  0.0665  0.2139
15010SOL     OW52144   9.333  11.852   3.917  0.4115 -0.1803 -0.1954
15010SOL    HW152145   9.382  11.930   3.891  1.3545 -0.7628 -0.2364
15010SOL    HW252146   9.384  11.816   3.990 -0.1783 -0.5940  0.0145
15011SOL     OW52147   2.050   8.562   1.809  0.4281  0.4501 -0.0175
15011SOL    HW152148   2.007   8.478   1.822  2.2223 -0.5083  0.1311
15011SOL    HW252149   2.104   8.574   1.887  0.2828  1.6841 -0.0923
15012SOL     OW52150   1.086   9.877   3.229 -0.2996 -0.3980 -0.5252
15012SOL    HW152151   1.053   9.788   3.214 -0.3673 -0.7838  1.6347
15012SOL    HW252152   1.025   9.915   3.292  1.4501  0.0373  0.9985
15013SOL     OW52153   8.021   8.219   4.061  0.0851  0.0176  0.0971
15013SOL    HW152154   8.051   8.132   4.088 -0.6320  0.3257  2.0215
15013SOL    HW252155   7.926   8.217   4.074  0.0296  1.0081 -0.0878
15014SOL     OW52156   0.690   9.196   5.888  0.5685 -0.3908  0.7495
15014SOL    HW152157   0.680   9.272   5.946 -4.2853  0.8036 -1.1129
15014SOL    HW252158   0.643   9.126   5.933  0.3122 -0.6583  0.0757
15015SOL     OW52159  12.959   9.422   5.535  0.5381 -0.2830 -0.6174
15015SOL    HW152160  13.038   9.475   5.531  0.6847 -0.4182  0.2159
15015SOL    HW252161  12.912   9.441   5.454  1.4850 -0.3044 -1.1871
15016SOL     OW52162  12.391  10.453  12.774  0.1136  0.2215  0.7597
15016SOL    HW152163  12.398  10.362  12.744  0.5884 -0.3465  2.4775
15016SOL    HW252164  12.447  10.457  12.852 -1.7816  1.3314  2.1511
15017SOL     OW52165   5.094  11.853  11.677 -0.1963  0.0572 -0.2507
15017SOL    HW152166   5.057  11.940  11.665  0.9645  0.6779  0.4903
15017SOL    HW252167   5.174  11.868  11.727  1.5523 -1.1342 -2.5382
15018SOL     OW52168   8.517   6.085   7.455  0.0467  0.1057 -0.2347
15018SOL    HW152169   8.429   6.049   7.447  0.2884 -0.3337 -0.9782
15018SOL    HW252170   8.572   6.025   7.405  0.9218 -0.1348  0.9758
15019SOL     OW52171   5.268   4.782   8.771  0.6198 -0.7433  0.5465
15019SOL    HW152172   5.262   4.859   8.716 -0.7842  0.2881  2.0426
15019SOL    HW252173   5.198   4.724   8.740 -0.8597  0.2781  1.7910
15020SOL     OW52174   2.476  11.132  10.592  0.4848 -0.1456 -0.2845
15020SOL    HW152175   2.389  11.127  10.553  0.7544  0.4370 -0.9726
15020SOL    HW252176   2.504  11.222  10.578  1.4509 -0.4839 -0.6148
15021SOL     OW52177   0.354   5.030   8.073  0.5855 -0.1653  0.4833
15021SOL    HW152178   0.300   5.005   7.998  0.7937  1.4251 -0.2443
15021SOL    HW252179   0.305   5.100   8.116  1.8008  0.9695  0.0920
15022SOL     OW52180   8.046   7.786   7.462 -0.1882  0.5253  0.2580
15022SOL    HW152181   7.968   7.738   7.436 -0.9358  1.8725 -0.1040
15022SOL    HW252182   8.087   7.732   7.530 -1.4830 -0.1661  0.5065
15023SOL     OW52183  12.167   0.323   3.913  0.3139  0.4893 -0.2837
15023SOL    HW152184  12.213   0.268   3.976  0.8956  0.9232 -0.3266
15023SOL    HW252185  12.121   0.388   3.966  1.1660  1.1313 -0.3222
15024SOL     OW52186  12.255  12.764   8.845 -0.3337 -0.2014  0.4257
15024SOL    HW152187  12.176  12.776   8.897 -0.6174  0.9492 -0.2248
15024SOL    HW252188  12.314  12.713   8.901 -1.2888 -0.5214  1.1605
15025SOL     OW52189   6.723   9.687   0.692 -0.6254  0.0930 -0.0333
15025SOL    HW152190   6.800   9.733   0.658 -0.0927 -1.0403 -0.4468
15025SOL    HW252191   6.667   9.675   0.615 -0.6886 -0.0707  0.0382
15026SOL     OW52192   7.600   8.294   4.644  0.6164  1.0403  0.9355
15026SOL    HW152193   7.664   8.352   4.684  1.1232  0.9006  0.3339
15026SOL    HW252194   7.532   8.353   4.609  0.7833  1.2314  0.9329
15027SOL     OW52195   3.299   9.604   1.149  0.8637 -0.2127 -0.3453
15027SOL    HW152196   3.219   9.648   1.119  1.8595  0.6509 -1.8688
15027SOL    HW252197   3.274   9.511   1.155  0.0791 -0.1632 -2.1325
15028SOL     OW52198   5.710   7.684   0.424 -0.0015  0.1139  0.3033
15028SOL    HW152199   5.744   7.642   0.502  0.6009 -2.9330 -1.4649
15028SOL    HW252200   5.633   7.633   0.400 -1.0916  1.9285 -0.3179
15029SOL     OW52201   1.459   2.115   5.829  0.0211 -0.1350  0.8362
15029SOL    HW152202   1.515   2.082   5.899  1.3813 -2.0248 -1.0224
15029SOL    HW252203   1.517   2.166   5.773 -0.9676  1.0752  0.8613
15030SOL     OW52204   3.212   3.508   1.156 -0.1082  0.1320 -0.3885
15030SOL    HW152205   3.276   3.577   1.136  0.4372 -0.1536  0.3395
15030SOL    HW252206   3.262   3.427   1.154 -0.6325 -0.1862 -0.6806
15031SOL     OW52207   4.056   2.386  11.743  0.1715  0.0241 -0.5736
15031SOL    HW152208   4.133   2.436  11.718  0.1193  0.6434  0.4367
15031SOL    HW252209   4.085   2.332  11.816 -0.6943  1.4404  0.9057
15032SOL     OW52210  10.311   1.573  12.676  0.0620  0.1494 -0.0189
15032SOL    HW152211  10.327   1.508  12.744  1.1325 -0.0190 -0.4145
15032SOL    HW252212  10.328   1.527  12.594 -0.0391  0.6824 -0.3470
15033SOL     OW52213  10.380   8.172  12.515  0.2486  0.4253  0.2686
15033SOL    HW152214  10.459   8.210  12.553  1.4137 -0.8727 -0.7412
15033SOL    HW252215  10.390   8.077  12.528  0.2098  0.0104 -2.2446
15034SOL     OW52216  12.870   3.522   7.340  0.0370 -0.4603 -0.7439
15034SOL    HW152217  12.904   3.457   7.402 -0.8744  0.0519  0.3384
15034SOL    HW252218  12.947   3.552   7.293  1.2773  1.1244  2.0320
15035SOL     OW52219  10.028  11.158   4.007  0.7382  0.3919  0.2122
15035SOL    HW152220   9.985  11.106   4.075 -0.5798  0.5787 -0.4486
15035SOL    HW252221  10.070  11.230   4.055 -0.6408  0.8362  0.8270
15036SOL     OW52222   1.611  10.248   1.475 -0.2768  0.0891 -0.2285
15036SOL    HW152223   1.545  10.313   1.454  1.2771  1.5272 -0.8953
15036SOL    HW252224   1.563  10.165   1.477 -2.3286  1.2214  0.7218
15037SOL     OW52225   1.289   9.765   3.010 -0.1507 -0.0356 -0.1175
15037SOL    HW152226   1.240   9.827   3.064  0.9839  0.3020  0.5635
15037SOL    HW252227   1.222   9.712   2.967 -1.1705  1.7326 -0.8283
15038SOL     OW52228   8.941  10.880  12.106  0.1154 -0.0338 -0.2149
15038SOL    HW152229   8.855  10.910  12.136  0.8055  0.5515  1.3198
15038SOL    HW252230   9.003  10.918  12.169  1.5652  0.0784 -1.6429
15039SOL     OW52231   9.103   9.273   3.272 -0.2812 -0.4428 -0.6370
15039SOL    HW152232   9.165   9.279   3.345 -1.5310 -1.3316  0.5537
15039SOL    HW252233   9.095   9.362   3.239  2.0348 -0.3924 -1.2049
15040SOL     OW52234  11.851   8.187   8.151  0.4147  0.3975 -0.0559
15040SOL    HW152235  11.781   8.223   8.205  0.7272 -0.8729  1.2491
15040SOL    HW252236  11.892   8.263   8.111 -0.1297  1.3408  1.1330
15041SOL     OW52237   3.246   0.031   1.068  0.0088 -0.1475 -0.0872
15041SOL    HW152238   3.257  -0.051   1.117 -0.1174 -0.4537 -0.5722
15041SOL    HW252239   3.223   0.003   0.980  1.1011  0.3849 -0.5555
15042SOL     OW52240   2.541   4.388   2.135 -0.4247  0.0686 -0.3548
15042SOL    HW152241   2.474   4.441   2.179  0.4974  0.5646  0.4941
15042SOL    HW252242   2.503   4.301   2.129 -0.9200  0.2002  0.6658
15043SOL     OW52243  12.457   6.988  11.431  0.3402  0.7936 -0.1862
15043SOL    HW152244  12.410   6.931  11.370  0.5807  1.2701 -0.8365
15043SOL    HW252245  12.507   7.047  11.374  1.3270  0.6251  0.4899
15044SOL     OW52246   6.985   6.185   5.889  0.1847  0.1622  0.1571
15044SOL    HW152247   7.036   6.193   5.969  0.7563 -0.2747 -0.1580
15044SOL    HW252248   6.923   6.114   5.907  0.8542 -0.4868 -0.0663
15045SOL     OW52249  12.757  11.251   9.561 -0.3596  0.0744  0.0517
15045SOL    HW152250  12.823  11.308   9.521 -1.8214  1.5409 -0.3341
15045SOL    HW252251  12.744  11.181   9.497 -0.1114  0.4821 -0.4491
15046SOL     OW52252   2.472   5.225   2.173 -0.4733 -0.4559 -0.0410
15046SOL    HW152253   2.419   5.225   2.253 -0.2797  2.6266  0.2045
15046SOL    HW252254   2.501   5.134   2.164 -0.7303 -0.9968  3.2289
15047SOL     OW52255  11.267   1.062  12.138 -0.1510 -0.1063  0.0275
15047SOL    HW152256  11.311   1.137  12.180 -0.1728  0.0624 -0.2504
15047SOL    HW252257  11.184   1.054  12.185 -1.3914  1.7507 -1.6769
15048SOL     OW52258   6.823  12.230  11.839 -0.4459  0.7722 -0.3007
15048SOL    HW152259   6.738  12.191  11.817 -0.3021  1.8847 -3.2782
15048SOL    HW252260   6.857  12.261  11.755  2.3067  1.5931  1.0224
15049SOL     OW52261   3.128   1.081   9.321 -0.0244  0.4149  0.9237
15049SOL    HW152262   3.207   1.031   9.301 -1.6139 -2.0916  0.5362
15049SOL    HW252263   3.108   1.128   9.241 -0.5103 -1.2661  0.0190
15050SOL     OW52264   1.117   6.121   9.067  0.1360  0.6455 -0.0791
15050SOL    HW152265   1.028   6.095   9.092 -0.7837  2.9093 -0.7241
15050SOL    HW252266   1.166   6.039   9.061 -2.1628 -0.7473 -0.7304
15051SOL     OW52267   3.465  10.456  12.798 -0.4786  0.1715  0.2866
15051SOL    HW152268   3.489  10.540  12.758 -0.5096 -0.0129 -0.1235
15051SOL    HW252269   3.549  10.411  12.811 -0.4647  0.2507  0.4772
15052SOL     OW52270  11.643  12.310   8.675 -0.1110 -0.1773 -0.0024
15052SOL    HW152271  11.715  12.248   8.686 -0.2013 -0.6810 -1.8426
15052SOL    HW252272  11.616  12.332   8.764  1.2592 -1.2132  0.7056
15053SOL     OW52273   1.384   0.169   1.448  0.0087 -0.0118  0.2164
15053SOL    HW152274   1.410   0.159   1.357 -3.3734  1.5766 -1.0570
15053SOL    HW252275   1.308   0.112   1.459 -1.3320  1.8436  1.1864
15054SOL     OW52276   5.150  10.122   1.509  0.1433 -0.0874 -0.1528
15054SOL    HW152277   5.207  10.102   1.434  0.3513 -0.3695  0.0788
15054SOL    HW252278   5.210  10.140   1.581 -0.0569  0.3203 -0.0878
15055SOL     OW52279   6.013   0.260   4.804  0.0596 -0.3008  0.5338
15055SOL    HW152280   6.011   0.165   4.809 -2.6882 -0.3178  0.5928
15055SOL    HW252281   6.100   0.281   4.769  1.0517 -2.7444  1.4050
15056SOL     OW52282   8.761   1.314   9.556  0.3178 -0.0245 -0.3694
15056SOL    HW152283   8.817   1.358   9.619  1.5846 -1.7599 -0.2357
15056SOL    HW252284   8.819   1.256   9.507 -0.9815 -0.2331 -1.7560
15057SOL     OW52285   7.190  11.755   8.204  0.6416 -0.1578  0.4288
15057SOL    HW152286   7.184  11.851   8.211  2.7661  0.0251  0.2421
15057SOL    HW252287   7.191  11.725   8.295  2.9418  0.2622  0.5817
15058SOL     OW52288   8.944   8.719   5.022  0.5617 -0.3498 -0.0274
15058SOL    HW152289   8.988   8.685   5.100  0.0435 -0.6740  0.1224
15058SOL    HW252290   8.977   8.664   4.951  2.6279  1.2254 -0.4028
15059SOL     OW52291   7.153  10.420   1.600  0.2588  0.0272 -0.0649
15059SOL    HW152292   7.113  10.353   1.655 -0.0583  0.3518  0.0982
15059SOL    HW252293   7.089  10.491   1.597 -0.0236 -0.2717 -1.4229
15060SOL     OW52294   7.668   1.443   1.945 -0.1312 -0.0595 -0.0737
15060SOL    HW152295   7.573   1.430   1.947 -0.0170 -2.2514 -2.7824
15060SOL    HW252296   7.679   1.532   1.911 -1.2929 -0.5382 -1.8665
15061SOL     OW52297   4.958  12.216   0.719  0.6759 -0.1553  0.0120
15061SOL    HW152298   4.904  12.185   0.647  2.8363 -1.5427 -1.1140
15061SOL    HW252299   4.929  12.306   0.734  0.2512  0.2368 -2.7239
15062SOL     OW52300   9.329   6.091  11.082 -0.3536 -0.3898  0.3831
15062SOL    HW152301   9.362   6.130  11.163 -0.5755 -0.8325  0.6830
15062SOL    HW252302   9.257   6.148  11.056 -0.0845 -0.0678  0.3273
15063SOL     OW52303  12.877  11.906   1.294  0.1070  0.4955 -0.0637
15063SOL    HW152304  12.815  11.866   1.355 -0.3968  0.8041 -0.3634
15063SOL    HW252305  12.956  11.852   1.301 -0.4422 -0.3522 -0.2137
15064SOL     OW52306  10.880   4.374   5.620  0.1782 -0.0854 -0.6545
15064SOL    HW152307  10.930   4.314   5.674  1.6656  0.0957 -1.7542
15064SOL    HW252308  10.945   4.435   5.585 -0.9933  0.9218 -1.1797
15065SOL     OW52309   6.174   2.668   4.187 -0.0812  0.3661  0.1030
15065SOL    HW152310   6.119   2.746   4.193  1.3028  1.3566  0.6051
15065SOL    HW252311   6.169   2.628   4.274  0.2945  0.6848  0.2749
15066SOL     OW52312   4.134   2.781   5.572 -0.0866  0.0312 -0.3424
15066SOL    HW152313   4.160   2.873   5.566  0.1618  0.0538  0.7681
15066SOL    HW252314   4.206   2.733   5.532  0.3964  0.2591  0.2315
15067SOL     OW52315  11.168   7.896   0.762  0.1229 -0.0981  0.6657
15067SOL    HW152316  11.241   7.866   0.707 -1.7378 -1.7713 -1.0525
15067SOL    HW252317  11.194   7.873   0.851  0.8351 -2.6749 -0.1156
15068SOL     OW52318  11.493   0.011   8.342  0.2125 -0.8222  0.2171
15068SOL    HW152319  11.429  -0.059   8.342  0.8473 -1.4673  2.1713
15068SOL    HW252320  11.578  -0.034   8.344  0.7392  0.0163 -1.5021
15069SOL     OW52321   2.896  12.078   2.145  0.1540 -0.0989 -0.1281
15069SOL    HW152322   2.810  12.085   2.103  0.2536  0.3543 -0.2619
15069SOL    HW252323   2.956  12.121   2.084  0.1648  1.3374  0.8645
15070SOL     OW52324   8.279   9.415   4.016  0.0193 -0.3633  0.1850
15070SOL    HW152325   8.196   9.420   4.064  0.0023  0.4171  0.0987
15070SOL    HW252326   8.254   9.388   3.928  0.0436 -1.7321  0.5735
15071SOL     OW52327   2.040   7.012   3.876 -0.0075 -0.7454 -0.5376
15071SOL    HW152328   2.107   7.069   3.914 -0.4139  0.2641 -1.2770
15071SOL    HW252329   2.047   7.027   3.782  0.4287 -2.5742 -0.8298
15072SOL     OW52330  11.998   9.853  11.091 -0.1741 -0.0694 -0.4708
15072SOL    HW152331  11.920   9.813  11.052  0.0690 -1.7919  0.6881
15072SOL    HW252332  11.985   9.947  11.078 -2.8243 -0.2318  0.2892
15073SOL     OW52333   6.194  10.129   5.354 -0.1275 -0.0446  0.0204
15073SOL    HW152334   6.132  10.158   5.287 -1.9912  0.0739  1.7093
15073SOL    HW252335   6.247  10.206   5.374 -2.3998  1.2011  1.6369
15074SOL     OW52336   6.002  10.523   8.630  0.3923  0.4885 -0.6078
15074SOL    HW152337   5.915  10.562   8.614 -0.3888 -0.4742  1.0624
15074SOL    HW252338   6.046  10.529   8.545 -0.5049  2.9195 -1.0008
15075SOL     OW52339   8.615   0.817   6.420 -0.1511  0.5580  0.2200
15075SOL    HW152340   8.677   0.810   6.348  0.2627 -4.1394  0.7263
15075SOL    HW252341   8.529   0.805   6.379 -0.0018 -0.9195  0.2656
15076SOL     OW52342  11.764  11.951   6.784  0.6056 -0.5766 -0.5361
15076SOL    HW152343  11.851  11.990   6.781  0.5183 -0.3581 -0.2036
15076SOL    HW252344  11.704  12.023   6.768  0.4489 -0.5852 -0.0216
15077SOL     OW52345   4.059  10.648  12.399  0.2143  0.5021  0.2587
15077SOL    HW152346   4.101  10.734  12.398 -1.0512  1.1830  1.6441
15077SOL    HW252347   3.972  10.663  12.437  0.2435 -1.5129  1.2845
15078SOL     OW52348   7.632   4.418   8.677 -0.0120 -0.3674 -0.1226
15078SOL    HW152349   7.705   4.397   8.620 -0.4078 -1.6025 -0.2125
15078SOL    HW252350   7.673   4.440   8.761  0.4968 -0.1658 -0.4193
15079SOL     OW52351   4.530   3.723   4.793  0.3162 -0.2201 -0.7054
15079SOL    HW152352   4.492   3.643   4.757  1.4360 -0.6840 -0.9246
15079SOL    HW252353   4.550   3.700   4.884  1.8584 -0.6860 -1.1133
15080SOL     OW52354   7.484   3.172  12.670  0.0366 -0.4945 -0.1949
15080SOL    HW152355   7.401   3.140  12.706  0.6157 -1.3370  0.4322
15080SOL    HW252356   7.466   3.262  12.645 -0.2277  0.4088  2.8703
15081SOL     OW52357   4.722   9.552   1.463 -0.4303 -0.6931 -0.3089
15081SOL    HW152358   4.639   9.534   1.507 -0.1125  1.1736  1.1827
15081SOL    HW252359   4.697   9.594   1.380 -1.0092  0.7912  0.5836
15082SOL     OW52360   6.019   0.052   6.372  0.1635 -0.5525 -0.4671
15082SOL    HW152361   6.004  -0.019   6.435  1.8583 -0.0871  0.5028
15082SOL    HW252362   5.981   0.129   6.414  1.2680 -0.2481 -0.0017
15083SOL     OW52363   8.539  11.210   9.046 -0.2590  0.6592  0.4004
15083SOL    HW152364   8.559  11.304   9.052 -1.6279  1.1464 -1.4416
15083SOL    HW252365   8.573  11.185   8.960  0.9523 -0.7960  1.2813
15084SOL     OW52366  10.688   8.235  10.207  0.5003 -0.3749 -0.1943
15084SOL    HW152367  10.675   8.271  10.119  0.7547  0.8882  0.2566
15084SOL    HW252368  10.774   8.193  10.204  0.6563 -0.0357 -0.4577
15085SOL     OW52369   0.795   8.220  12.559 -0.7739  0.1692 -0.5003
15085SOL    HW152370   0.761   8.206  12.647 -1.2621  0.2907 -0.6668
15085SOL    HW252371   0.722   8.200  12.501 -0.5022  0.2336 -0.8744
15086SOL     OW52372   5.669   1.109   0.127  0.1466  0.0831 -0.0355
15086SOL    HW152373   5.675   1.110   0.223 -1.3762  4.0115  0.2033
15086SOL    HW252374   5.704   1.194   0.100 -0.5683 -0.4352 -2.8878
15087SOL     OW52375   2.197   0.301   5.641  0.1452  0.3176 -0.3218
15087SOL    HW152376   2.139   0.338   5.575  1.1369  1.1127 -0.7666
15087SOL    HW252377   2.219   0.375   5.698  1.8323  0.3862 -0.9928
15088SOL     OW52378   8.686   1.346   8.656  0.0690  0.1044 -0.0482
15088SOL    HW152379   8.653   1.393   8.732 -0.4739  1.2801 -0.9624
15088SOL    HW252380   8.756   1.402   8.622 -0.3198  0.0761 -0.9343
15089SOL     OW52381   3.927  10.101   8.009 -0.1842 -0.4134  0.2109
15089SOL    HW152382   3.966  10.183   7.979  0.9424 -1.0554 -0.1137
15089SOL    HW252383   3.891  10.061   7.929 -0.6760 -0.2836  0.3595
15090SOL     OW52384  10.512  12.412   9.877  0.3377 -0.8005 -0.2062
15090SOL    HW152385  10.450  12.409   9.950  0.0459 -0.4107 -0.4381
15090SOL    HW252386  10.573  12.482   9.900  1.4632 -1.9807  0.6254
15091SOL     OW52387  10.335   0.879   0.564  0.8116 -0.3401  0.0787
15091SOL    HW152388  10.317   0.881   0.658 -0.5983 -2.0048 -0.1099
15091SOL    HW252389  10.350   0.971   0.541  2.2726  0.0087  2.0823
15092SOL     OW52390   6.898  12.003   6.952 -0.1111  0.2282 -0.1277
15092SOL    HW152391   6.868  11.974   7.038  1.0486  1.3328  0.6829
15092SOL    HW252392   6.859  12.090   6.941  0.6364  0.5561 -0.2216
15093SOL     OW52393   7.351   6.789   7.748 -0.2273  0.1786  0.4643
15093SOL    HW152394   7.415   6.821   7.684 -1.8895 -2.1401 -2.6025
15093SOL    HW252395   7.388   6.706   7.779 -1.4512 -0.9877 -1.0490
15094SOL     OW52396   7.582  12.586   3.013  0.4977 -0.0219 -0.1310
15094SOL    HW152397   7.615  12.627   3.093  0.2865  0.9231 -0.5249
15094SOL    HW252398   7.532  12.510   3.044  0.5045  0.2761  0.6194
15095SOL     OW52399   0.181  10.960   9.726 -0.3525 -0.1457 -0.7170
15095SOL    HW152400   0.116  11.000   9.784  1.0181 -0.0812  0.8598
15095SOL    HW252401   0.252  11.024   9.722  1.2824 -1.7540  0.7517
15096SOL     OW52402  10.778  10.318   1.977  0.1705  0.3491  0.2559
15096SOL    HW152403  10.724  10.249   2.016 -1.5970  0.9376 -1.0354
15096SOL    HW252404  10.759  10.396   2.029 -0.5002  0.6395 -0.4240
15097SOL     OW52405  11.483   0.833  10.036 -0.6159 -0.4424 -0.2077
15097SOL    HW152406  11.527   0.748  10.036 -0.7299 -0.5022 -0.0701
15097SOL    HW252407  11.399   0.816  10.078  0.0672  0.1078  1.4809
15098SOL     OW52408  10.103  12.437   4.419  0.1689  0.8224  0.0525
15098SOL    HW152409  10.076  12.408   4.506 -0.4370 -0.6915 -0.6053
15098SOL    HW252410  10.188  12.479   4.433 -0.2167  1.1945  1.4523
15099SOL     OW52411  11.049   6.144  12.870 -0.2162  0.9104 -0.2957
15099SOL    HW152412  11.127   6.092  12.893  0.0343  1.1601 -0.5726
15099SOL    HW252413  11.073   6.233  12.894  0.2295  1.2585 -1.9308
15100SOL     OW52414  11.593   6.923   5.738  0.4524 -0.5837  0.4763
15100SOL    HW152415  11.561   6.853   5.682 -0.5299  1.1617 -1.2890
15100SOL    HW252416  11.687   6.929   5.720  0.0044  0.5416 -1.7966
15101SOL     OW52417   5.216   7.982   6.525 -0.1874  0.0458 -0.4865
15101SOL    HW152418   5.175   7.896   6.528 -1.1403  0.5123  0.6821
15101SOL    HW252419   5.294   7.970   6.471 -0.1615 -1.6003 -0.1156
15102SOL     OW52420   3.425   7.154  12.001 -0.7171 -0.0126  0.1583
15102SOL    HW152421   3.375   7.093  11.947 -1.0690  1.0854 -0.7928
15102SOL    HW252422   3.359   7.193  12.059 -1.0642  1.5461 -1.1975
15103SOL     OW52423   0.890  12.469   3.625  0.0483 -0.2113 -0.1315
15103SOL    HW152424   0.918  12.394   3.677 -0.5544  0.4555  1.1949
15103SOL    HW252425   0.855  12.531   3.689 -1.5016  0.2953 -1.4090
15104SOL     OW52426   6.687   7.671   7.495 -0.1914 -0.0306 -0.0662
15104SOL    HW152427   6.693   7.717   7.412  0.0453 -0.0590 -0.0658
15104SOL    HW252428   6.662   7.739   7.558 -0.1099  0.0417 -0.1124
15105SOL     OW52429   5.109   2.897   1.116  0.2128 -0.0073 -0.1721
15105SOL    HW152430   5.133   2.831   1.182 -1.1263 -0.5260 -0.1810
15105SOL    HW252431   5.193   2.925   1.080  1.0119  0.5544  1.9876
15106SOL     OW52432  10.178   3.296   4.678  0.5741 -0.1542  0.4818
15106SOL    HW152433  10.125   3.375   4.668  2.3271  0.9346 -0.7323
15106SOL    HW252434  10.217   3.304   4.765  1.3092  0.7218  0.0921
15107SOL     OW52435   9.605  11.593   6.827 -0.5531  0.5282 -0.0328
15107SOL    HW152436   9.612  11.600   6.922  2.0521  1.9409 -0.2246
15107SOL    HW252437   9.590  11.500   6.811  1.7564 -0.2343  1.7053
15108SOL     OW52438   1.316   8.838   7.225  0.3713  1.0060 -0.4416
15108SOL    HW152439   1.361   8.920   7.247 -0.3992  1.1698  0.6197
15108SOL    HW252440   1.385   8.780   7.196  0.9412  2.0283 -1.2102
15109SOL     OW52441   3.135   3.031   7.605  0.0106 -0.6076  0.3062
15109SOL    HW152442   3.217   3.004   7.647 -1.5335 -1.3685  3.1173
15109SOL    HW252443   3.122   2.968   7.534  1.2795 -1.1731  0.5497
15110SOL     OW52444   7.945   5.371  11.951  0.1819  0.6760 -0.1184
15110SOL    HW152445   8.021   5.331  11.993  1.1689  2.1012 -0.4821
15110SOL    HW252446   7.947   5.338  11.861  0.7063  1.1454 -0.2827
15111SOL     OW52447   5.762   8.686   1.596  0.2004  0.6008 -0.2001
15111SOL    HW152448   5.761   8.614   1.532  0.1583  0.8746 -0.5119
15111SOL    HW252449   5.670   8.703   1.615  0.2154  0.4653 -0.0021
15112SOL     OW52450  12.361   1.806  10.521 -0.2864 -0.2524 -0.3215
15112SOL    HW152451  12.410   1.826  10.441  0.8373  0.2595  0.4643
15112SOL    HW252452  12.306   1.731  10.498 -0.1730  0.0555 -1.6422
15113SOL     OW52453   0.975   2.462   9.300  0.0539  0.0989 -0.0427
15113SOL    HW152454   0.919   2.479   9.224 -1.1881  0.9472  1.0266
15113SOL    HW252455   1.018   2.546   9.316 -0.7703  0.3359  1.0273
15114SOL     OW52456  12.969  11.659   6.512  0.1789  0.5787  0.4008
15114SOL    HW152457  12.900  11.650   6.578 -1.3917  0.3760 -1.2083
15114SOL    HW252458  12.956  11.746   6.475  1.6476  1.0680  0.9643
15115SOL     OW52459  12.697  12.164  12.115  0.0812 -0.5795 -0.1009
15115SOL    HW152460  12.775  12.113  12.094  0.3430  1.0467 -4.0422
15115SOL    HW252461  12.709  12.190  12.206  2.3672 -3.2470  0.5042
15116SOL     OW52462   9.525   9.045  10.272  0.0312  0.1794  0.1181
15116SOL    HW152463   9.437   9.066  10.302 -0.0082  0.5167 -0.2368
15116SOL    HW252464   9.530   9.082  10.184  0.0098 -1.1319 -0.4610
15117SOL     OW52465  11.025   2.056   0.473  0.1528 -0.6259 -0.3655
15117SOL    HW152466  10.961   2.017   0.532  0.6444 -1.8135 -0.5933
15117SOL    HW252467  10.978   2.064   0.389  0.1707 -1.0940 -0.4209
15118SOL     OW52468   7.296   4.857   2.064 -0.1147  0.2503 -0.0162
15118SOL    HW152469   7.230   4.823   2.003 -0.0018 -0.9485  0.5085
15118SOL    HW252470   7.380   4.836   2.022 -0.0504  0.7911 -0.1623
15119SOL     OW52471   4.573   4.351   8.712 -0.3142 -0.3875 -0.2954
15119SOL    HW152472   4.484   4.387   8.709  0.4221  1.5519 -0.8794
15119SOL    HW252473   4.610   4.385   8.793  0.1894 -0.3738 -0.5243
15120SOL     OW52474  10.276   9.767   3.612 -0.1438  0.2899  0.0368
15120SOL    HW152475  10.319   9.779   3.696  1.0505 -0.3182 -0.4623
15120SOL    HW252476  10.219   9.691   3.625  0.0293  0.2053  0.2978
15121SOL     OW52477  12.723   2.250   0.855  0.3788  0.3357 -0.5392
15121SOL    HW152478  12.639   2.294   0.873  0.0692 -0.5221  0.1996
15121SOL    HW252479  12.723   2.236   0.760  0.4902  1.9019 -0.8072
15122SOL     OW52480   4.048   6.351   5.355  0.1386  0.4645 -0.0039
15122SOL    HW152481   4.139   6.376   5.339  0.2967  0.1127  0.3302
15122SOL    HW252482   4.020   6.310   5.273  0.5815 -0.2811  0.2079
15123SOL     OW52483   0.230   7.278   6.071  0.7738  0.5117 -0.1281
15123SOL    HW152484   0.148   7.327   6.063  1.0003  0.9190  0.0471
15123SOL    HW252485   0.273   7.289   5.986  0.1316 -0.6516 -0.6370
15124SOL     OW52486   9.958   1.129   8.473 -0.5308 -0.3989 -0.0422
15124SOL    HW152487  10.011   1.113   8.395 -0.0198 -1.0141  0.4220
15124SOL    HW252488   9.887   1.186   8.443  1.3024  1.8930 -0.3669
15125SOL     OW52489   8.321   4.297   2.137 -0.0074 -0.3155  0.2820
15125SOL    HW152490   8.277   4.267   2.217  0.1635  0.6480  0.7583
15125SOL    HW252491   8.364   4.219   2.103  0.4028 -0.6284  1.4520
15126SOL     OW52492   3.343   6.433   8.455 -0.1650  0.1121 -0.5463
15126SOL    HW152493   3.370   6.476   8.536 -0.0681 -0.0099 -0.5134
15126SOL    HW252494   3.288   6.498   8.411 -0.9851 -0.1554  0.0520
15127SOL     OW52495   0.677   8.817   2.929 -0.1524  0.2077  0.4506
15127SOL    HW152496   0.765   8.781   2.944 -0.5315 -0.5187  0.9990
15127SOL    HW252497   0.655   8.861   3.011 -1.1411 -1.4451  1.1218
15128SOL     OW52498   4.872  11.194   7.062 -0.2550 -0.0952  0.2504
15128SOL    HW152499   4.813  11.242   7.005  0.1102 -1.2586 -1.1759
15128SOL    HW252500   4.939  11.159   7.003 -1.0872 -3.2128  0.9886
15129SOL     OW52501  10.138   0.470   4.595  0.0413  0.0265  0.3420
15129SOL    HW152502  10.171   0.470   4.685  1.1624  0.0541 -0.0512
15129SOL    HW252503  10.053   0.514   4.601 -0.8864 -1.8022  1.7013
15130SOL     OW52504  10.123  11.652   3.884  0.2622  0.3512  0.7827
15130SOL    HW152505  10.138  11.746   3.894 -1.7909  0.5532  2.8080
15130SOL    HW252506  10.035  11.645   3.847  0.9456 -0.8050 -0.7346
15131SOL     OW52507   3.670   7.481   5.732 -0.7802 -0.2521 -0.5039
15131SOL    HW152508   3.666   7.566   5.689  0.7682 -0.0714 -0.3441
15131SOL    HW252509   3.631   7.420   5.669  1.2250  0.0396 -2.1122
15132SOL     OW52510   2.656   3.163  12.550 -0.7214  0.6161  0.1357
15132SOL    HW152511   2.695   3.250  12.561  1.6772 -0.1395 -1.5210
15132SOL    HW252512   2.611   3.146  12.632  1.0041  2.3623  1.5386
15133SOL     OW52513   7.771   9.958   8.038 -0.0962 -0.0170 -0.2303
15133SOL    HW152514   7.805   9.873   8.067 -0.2818 -0.8106 -2.1717
15133SOL    HW252515   7.849  10.006   8.010 -0.0872  0.0731 -0.0500
15134SOL     OW52516   4.051   5.111   6.276  0.0134 -0.2442 -0.0470
15134SOL    HW152517   4.053   5.149   6.188  0.3546 -0.6682 -0.2252
15134SOL    HW252518   3.958   5.099   6.295 -0.1406  1.1042  0.2020
15135SOL     OW52519   9.332   6.070   9.917  0.2370  0.3458  0.4963
15135SOL    HW152520   9.337   6.083  10.011 -1.9125 -1.4632  0.9352
15135SOL    HW252521   9.264   6.131   9.888 -0.1287 -0.1369  0.3441
15136SOL     OW52522   0.822   4.156  12.774 -0.2311  0.2505  0.4445
15136SOL    HW152523   0.894   4.207  12.738 -0.9847  1.3446  0.4524
15136SOL    HW252524   0.864   4.094  12.834  0.9436 -0.8456 -1.4151
15137SOL     OW52525   6.685   4.358  11.366  0.3364 -0.0336  0.7255
15137SOL    HW152526   6.643   4.352  11.452 -0.3272 -1.3722  0.3384
15137SOL    HW252527   6.764   4.306  11.374 -0.2822 -1.0865  0.2384
15138SOL     OW52528   1.169   6.819   1.417  0.6099  0.3572  0.1092
15138SOL    HW152529   1.203   6.771   1.492 -0.2040 -0.1540  0.1624
15138SOL    HW252530   1.112   6.885   1.454 -1.8617 -1.5055 -0.0755
15139SOL     OW52531  10.342   7.084   7.223 -0.6026 -0.4229 -0.2369
15139SOL    HW152532  10.343   7.164   7.170 -0.5050 -0.7786 -0.7906
15139SOL    HW252533  10.254   7.048   7.210 -0.6666 -0.3716  0.0577
15140SOL     OW52534  12.614   8.087   3.639  0.1553  0.0293 -0.1281
15140SOL    HW152535  12.552   8.085   3.712 -0.1532 -1.0969 -0.3919
15140SOL    HW252536  12.603   8.002   3.597  1.7728 -0.1271 -0.2909
15141SOL     OW52537   8.384   0.642   2.381 -0.3247 -0.2494  0.4762
15141SOL    HW152538   8.412   0.556   2.351  1.6255  0.1977  0.8738
15141SOL    HW252539   8.445   0.664   2.451  0.3452  2.1695 -0.7511
15142SOL     OW52540  12.479   3.689  12.851 -0.0674 -0.3185 -0.1513
15142SOL    HW152541  12.501   3.778  12.823 -1.7746  0.5930  1.1397
15142SOL    HW252542  12.418   3.702  12.924  0.0544 -2.5643  0.4216
15143SOL     OW52543   9.514   4.769   1.902  0.1731 -0.1327 -0.6342
15143SOL    HW152544   9.435   4.797   1.950 -0.4300  0.3071 -1.8399
15143SOL    HW252545   9.509   4.673   1.902  0.4514 -0.1707  0.5796
15144SOL     OW52546   5.359   0.197   9.389 -0.6317  0.3267  0.2420
15144SOL    HW152547   5.449   0.212   9.357 -0.8707  2.7738  0.5618
15144SOL    HW252548   5.311   0.168   9.312  0.3246 -0.5820 -0.0329
15145SOL     OW52549   6.824   4.892  11.270 -0.7701  0.0933 -0.3367
15145SOL    HW152550   6.898   4.842  11.237 -0.2448 -0.2259  1.2262
15145SOL    HW252551   6.787   4.837  11.339 -0.8419  1.3703  0.6832
15146SOL     OW52552   5.032   2.514   1.075  0.0319 -0.1149  0.0274
15146SOL    HW152553   4.988   2.451   1.018  1.3366 -1.5977  0.5678
15146SOL    HW252554   4.962   2.571   1.106 -0.8990 -0.0874 -1.9920
15147SOL     OW52555   0.193   1.036  12.965 -0.2566 -0.7789  0.3239
15147SOL    HW152556   0.138   0.960  12.982 -0.7634 -0.5596 -0.2883
15147SOL    HW252557   0.161   1.103  13.026 -0.4843 -0.7404  0.1622
15148SOL     OW52558  12.070   5.698   1.127 -0.5356  0.3465  0.6047
15148SOL    HW152559  12.083   5.621   1.072  3.1684  0.7216  0.6781
15148SOL    HW252560  12.080   5.665   1.217  1.2387  0.8506  0.6292
15149SOL     OW52561   8.323   1.070   8.246  0.0231  0.5575 -0.3019
15149SOL    HW152562   8.340   1.038   8.157  0.1528 -0.0497 -0.0591
15149SOL    HW252563   8.354   1.161   8.245  4.9936 -0.8426  0.5707
15150SOL     OW52564   3.866  12.152   3.862  0.1795  0.7319 -0.2815
15150SOL    HW152565   3.862  12.243   3.892 -1.0992  0.1927  1.3719
15150SOL    HW252566   3.812  12.150   3.783 -0.3985  1.2730  0.0890
15151SOL     OW52567   5.020   1.945   6.370  0.5945 -0.6049 -0.6940
15151SOL    HW152568   5.091   1.947   6.434 -0.6038  0.0351  0.6693
15151SOL    HW252569   5.044   2.013   6.307  1.1576 -0.3442 -0.2104
15152SOL     OW52570   9.252   8.848   1.806  0.4243 -0.3309 -0.4251
15152SOL    HW152571   9.216   8.923   1.759  1.1281  0.5200  0.3616
15152SOL    HW252572   9.260   8.877   1.896 -1.3583 -2.1100  0.3751
15153SOL     OW52573  12.429   9.881   9.628 -0.6893 -0.2310  0.1599
15153SOL    HW152574  12.340   9.846   9.643 -0.0457 -1.7644  0.6428
15153SOL    HW252575  12.487   9.809   9.654  0.6757  0.1408 -1.6468
15154SOL     OW52576   4.233  10.668   5.869  0.1489 -0.2131 -0.3266
15154SOL    HW152577   4.310  10.711   5.906  0.5432 -1.4809  0.3520
15154SOL    HW252578   4.266  10.617   5.796 -0.0844 -0.5477 -0.2000
15155SOL     OW52579  12.517   3.754   3.785  0.1841  0.5061 -0.7184
15155SOL    HW152580  12.446   3.735   3.724  1.2210  1.5990 -2.3344
15155SOL    HW252581  12.576   3.812   3.737  1.0351  1.4698  1.3473
15156SOL     OW52582   2.312   4.832   0.238  0.1061 -0.1793  0.5084
15156SOL    HW152583   2.356   4.916   0.243 -0.0260 -0.0487 -0.4028
15156SOL    HW252584   2.220   4.852   0.249  0.0242 -0.1370 -0.2050
15157SOL     OW52585   9.521  11.094   5.008  0.3072 -0.3826 -0.2140
15157SOL    HW152586   9.616  11.087   5.014  0.6149  1.0323 -2.3892
15157SOL    HW252587   9.505  11.185   4.986 -1.7407 -0.0559  2.1986
15158SOL     OW52588   2.768  10.352   5.188  0.1174  0.0013 -0.0420
15158SOL    HW152589   2.680  10.315   5.192 -0.3595  1.1951  1.4456
15158SOL    HW252590   2.802  10.345   5.277  0.9686  0.8446 -0.2790
15159SOL     OW52591   3.611   7.752   2.840 -0.2341  0.0903  0.2693
15159SOL    HW152592   3.572   7.669   2.866  0.0681 -0.2152 -0.2603
15159SOL    HW252593   3.639   7.739   2.750  0.1915  0.6305  0.3190
15160SOL     OW52594   2.853   2.332   2.191  0.1503 -0.5612 -0.1356
15160SOL    HW152595   2.859   2.284   2.273 -1.8103  1.7023  1.4640
15160SOL    HW252596   2.793   2.404   2.209  0.2715  0.5238 -3.3479
15161SOL     OW52597  11.536   9.628  11.070 -0.4415 -0.6263  0.3737
15161SOL    HW152598  11.518   9.556  11.130 -1.2440  0.2258  1.1751
15161SOL    HW252599  11.463   9.689  11.082  0.0923  0.2098 -0.4660
15162SOL     OW52600   3.719  10.969   4.451 -0.2757 -0.0279 -0.0005
15162SOL    HW152601   3.711  10.911   4.526  0.5034 -0.9034 -0.5761
15162SOL    HW252602   3.670  11.048   4.476 -2.0460 -1.2348  0.4687
15163SOL     OW52603  10.143  11.006   9.235  0.3662 -0.2144  0.1277
15163SOL    HW152604  10.072  11.053   9.279 -0.6467 -1.6957  0.1765
15163SOL    HW252605  10.176  11.067   9.169 -2.1815 -0.0651 -1.1199
15164SOL     OW52606   1.554   2.076  10.834  0.0123 -0.0170  0.0564
15164SOL    HW152607   1.588   2.137  10.768 -1.3269  2.3384  1.4251
15164SOL    HW252608   1.620   2.077  10.903  0.1797 -0.4632 -0.0930
15165SOL     OW52609   1.015   3.528  11.812 -0.2916  0.1996  0.2155
15165SOL    HW152610   1.047   3.477  11.887  1.0052  1.5142  0.6070
15165SOL    HW252611   1.055   3.614  11.823  0.4856  0.2432 -2.3427
15166SOL     OW52612   0.037  10.978   0.071 -0.3509 -0.3338  0.0193
15166SOL    HW152613   0.074  11.057   0.032 -0.3305  0.0453  0.7882
15166SOL    HW252614   0.102  10.910   0.055 -0.0923 -0.0527 -0.1178
15167SOL     OW52615  12.561   5.016   2.435 -0.2122  0.0243  0.1357
15167SOL    HW152616  12.510   4.947   2.393 -2.2252  1.0820  0.7164
15167SOL    HW252617  12.587   4.978   2.519 -0.9880 -0.1750  0.2952
15168SOL     OW52618   5.982  12.946  11.121  0.0441  0.5854  0.8368
15168SOL    HW152619   6.013  12.967  11.033  1.8404  0.2759  1.3487
15168SOL    HW252620   6.039  12.874  11.149  1.0209  2.1339  3.0875
15169SOL     OW52621  10.478   4.781   9.336 -0.9823  0.2660  0.4899
15169SOL    HW152622  10.537   4.852   9.360  1.1633 -1.3541  0.3125
15169SOL    HW252623  10.390   4.816   9.353  0.0626  1.8134  3.5350
15170SOL     OW52624  11.405   6.817   0.348 -0.0435  0.0211  0.8202
15170SOL    HW152625  11.484   6.862   0.317 -0.6545  0.2107 -0.5094
15170SOL    HW252626  11.346   6.887   0.374 -0.8953  0.0507 -1.0102
15171SOL     OW52627   4.629   4.525   0.036  0.3009  0.1039  0.3854
15171SOL    HW152628   4.685   4.461  -0.008  0.6791 -0.5685  1.7594
15171SOL    HW252629   4.588   4.574  -0.034  0.9398 -0.8534 -0.6935
15172SOL     OW52630   8.048   3.007   5.334  0.2342 -0.7219 -0.5017
15172SOL    HW152631   7.980   3.011   5.402 -1.0209 -0.9882 -1.6981
15172SOL    HW252632   8.096   3.090   5.344 -0.0643 -0.6548  0.5420
15173SOL     OW52633   2.902   6.356   4.360  0.5305 -0.6131  0.0900
15173SOL    HW152634   2.917   6.408   4.439 -1.6853 -0.4514  0.4512
15173SOL    HW252635   2.843   6.287   4.386 -2.0490  0.6986 -1.7986
15174SOL     OW52636   7.196   1.465   4.789  0.1615  0.1211  0.3818
15174SOL    HW152637   7.182   1.454   4.883  0.3823 -0.3401  0.3620
15174SOL    HW252638   7.126   1.524   4.761 -1.5469 -1.7995  0.3451
15175SOL     OW52639   2.738   2.538  11.967  0.2759  0.1677  0.0539
15175SOL    HW152640   2.769   2.628  11.954  1.9594 -0.2966  0.5942
15175SOL    HW252641   2.653   2.548  12.011 -1.2676  1.5304 -2.8991
15176SOL     OW52642  12.211   7.950  12.398  0.2580 -0.0362  0.3730
15176SOL    HW152643  12.236   8.007  12.325  0.0510  0.8087  0.9535
15176SOL    HW252644  12.125   7.916  12.373  0.1337  0.3441  0.2841
15177SOL     OW52645   4.288  10.982   2.794  0.0827 -0.0862  0.0366
15177SOL    HW152646   4.308  10.913   2.730 -2.5271 -0.7370 -0.1792
15177SOL    HW252647   4.292  11.063   2.742 -1.6611 -0.5745 -0.9213
15178SOL     OW52648   3.698   0.362  10.399 -0.3362  0.2250  0.7352
15178SOL    HW152649   3.767   0.295  10.404 -0.8292 -0.2338  1.5090
15178SOL    HW252650   3.734   0.437  10.446  0.1582  0.4704 -0.0082
15179SOL     OW52651   7.544   7.407   0.437 -0.1213 -0.1332 -0.4206
15179SOL    HW152652   7.614   7.355   0.479  0.5525  0.7674 -0.3966
15179SOL    HW252653   7.590   7.460   0.372 -0.4673  1.8875  0.8864
15180SOL     OW52654   4.975   5.871   2.234 -0.5504 -0.0757 -0.5957
15180SOL    HW152655   5.028   5.802   2.274 -0.9343  0.3405  0.6534
15180SOL    HW252656   4.980   5.853   2.140  1.7614 -0.0565 -0.5162
15181SOL     OW52657  12.388   9.859   3.927  0.1680 -0.3121 -0.1103
15181SOL    HW152658  12.406   9.778   3.975  1.4572 -0.5307 -0.9251
15181SOL    HW252659  12.454   9.921   3.959  1.1208 -0.4911 -1.6182
15182SOL     OW52660   5.124   3.878   8.679 -0.2854  0.3094 -0.5603
15182SOL    HW152661   5.051   3.907   8.624 -0.4265  0.9158 -0.0639
15182SOL    HW252662   5.088   3.876   8.767  0.5828  1.7117 -0.1388
15183SOL     OW52663   8.060   4.165   8.609 -0.0752  0.6111  0.1688
15183SOL    HW152664   7.989   4.133   8.664  0.0305 -2.3145 -1.1855
15183SOL    HW252665   8.140   4.138   8.655  0.1453  2.2573  0.7895
15184SOL     OW52666   9.122  11.692   0.658 -0.1858 -0.1378 -0.3776
15184SOL    HW152667   9.197  11.668   0.712 -0.3861  0.6636  0.2862
15184SOL    HW252668   9.160  11.736   0.582 -0.0014  2.3791  1.0433
15185SOL     OW52669  11.894   8.363   9.497  0.2255  0.1091  0.1348
15185SOL    HW152670  11.906   8.437   9.437 -0.9810  0.8603  0.7860
15185SOL    HW252671  11.897   8.402   9.584  0.9609 -0.8318  0.5579
15186SOL     OW52672   3.456   9.505   0.842  0.2934  0.3212  0.8025
15186SOL    HW152673   3.475   9.453   0.919 -0.7355 -0.5332  0.4915
15186SOL    HW252674   3.530   9.487   0.783  0.9665  0.8038  1.4734
15187SOL     OW52675  12.513   5.767   6.065  0.4425 -0.4384  0.5268
15187SOL    HW152676  12.511   5.708   6.140  0.8059  0.9972  1.6981
15187SOL    HW252677  12.599   5.809   6.069 -0.5363  1.6843  0.9649
15188SOL     OW52678   8.532   6.178   2.341  0.5622  0.0202 -0.4194
15188SOL    HW152679   8.464   6.213   2.398 -0.5647 -0.8450 -1.1863
15188SOL    HW252680   8.565   6.101   2.387  1.1572  0.5370  0.0313
15189SOL     OW52681   6.355   9.810   4.319 -0.0591 -0.7997 -0.0258
15189SOL    HW152682   6.442   9.834   4.352 -0.0494 -1.7390  0.6587
15189SOL    HW252683   6.294   9.852   4.380 -0.1157  0.3647 -0.8542
15190SOL     OW52684   2.756   4.538   4.501 -0.3427 -0.4630  0.0383
15190SOL    HW152685   2.665   4.561   4.483 -0.9173 -1.6319  1.2983
15190SOL    HW252686   2.788   4.609   4.557 -0.8877 -0.7111  0.6665
15191SOL     OW52687   4.959   7.941   2.914 -0.1885  0.1520  0.6423
15191SOL    HW152688   4.913   7.966   2.994 -0.6616 -0.2473  0.5025
15191SOL    HW252689   4.930   7.851   2.897  1.6626 -0.6119  1.2748
15192SOL     OW52690  11.556   1.620   8.184 -0.5445  0.1237 -0.0312
15192SOL    HW152691  11.497   1.549   8.208  0.0116 -0.6348 -0.8657
15192SOL    HW252692  11.497   1.692   8.158 -1.1178  0.3229  1.6887
15193SOL     OW52693  12.906   7.788   5.844  0.1198 -0.2408 -0.0773
15193SOL    HW152694  12.872   7.871   5.810 -4.3496 -1.6177  0.4038
15193SOL    HW252695  12.885   7.789   5.937 -1.9241 -2.5860 -0.4038
15194SOL     OW52696   3.158   2.677  12.480  0.4943  0.4797  0.4992
15194SOL    HW152697   3.131   2.601  12.531  0.3431  0.4168  0.3235
15194SOL    HW252698   3.250   2.660  12.459  0.0483 -0.3961 -0.8676
15195SOL     OW52699  10.793  12.767   0.741  0.5083  0.0973 -0.5183
15195SOL    HW152700  10.866  12.710   0.766  0.3306 -0.1083 -0.4632
15195SOL    HW252701  10.737  12.769   0.819  1.2918  1.6126  0.0386
15196SOL     OW52702  10.940   3.162   2.755 -0.0134  0.0089  0.0867
15196SOL    HW152703  10.990   3.160   2.673  1.0006 -1.0854  0.6997
15196SOL    HW252704  10.988   3.222   2.811  0.1821 -0.4499  0.4135
15197SOL     OW52705   3.099   1.969  12.523 -0.7548  0.0005 -0.4465
15197SOL    HW152706   3.122   2.009  12.607 -1.4147  1.7436 -1.0418
15197SOL    HW252707   3.106   2.041  12.460  1.0434 -1.5623 -2.1491
15198SOL     OW52708   0.923   7.612   6.967 -0.0832  0.3191  0.0376
15198SOL    HW152709   0.907   7.583   7.057  0.2006 -0.4415 -0.1543
15198SOL    HW252710   1.018   7.607   6.957 -0.1977 -0.6700 -0.6561
15199SOL     OW52711   2.766   4.871  11.429  0.1871 -0.9351 -0.1245
15199SOL    HW152712   2.762   4.906  11.340 -1.8792 -2.7150 -0.8287
15199SOL    HW252713   2.723   4.937  11.483  0.9804 -0.0778 -0.5155
15200SOL     OW52714   6.243  10.907   7.563  0.1933  0.1917 -0.5956
15200SOL    HW152715   6.272  10.902   7.654 -1.4999 -0.7093 -0.0649
15200SOL    HW252716   6.292  10.981   7.526  1.4935  0.0726  0.8004
15201SOL     OW52717   4.737  10.370   0.851 -0.0934  0.2143 -0.3038
15201SOL    HW152718   4.650  10.368   0.811  0.1528 -0.2771 -0.8391
15201SOL    HW252719   4.757  10.278   0.869 -0.0407  0.3984  0.6250
15202SOL     OW52720   9.365   8.559   0.083 -0.2086 -0.0872  0.1074
15202SOL    HW152721   9.432   8.585   0.146 -0.5392  0.0597  0.4011
15202SOL    HW252722   9.411   8.554  -0.001  0.3205 -0.6514  0.4228
15203SOL     OW52723   2.747   1.606   3.750 -0.2388  0.3795  0.4386
15203SOL    HW152724   2.683   1.627   3.682  1.3694 -1.5667 -1.8247
15203SOL    HW252725   2.822   1.661   3.730  0.5348 -0.7604  0.1060
15204SOL     OW52726   2.394   7.135   5.247  0.0154  0.3178  0.1746
15204SOL    HW152727   2.352   7.195   5.308  0.4318  2.3322 -1.4225
15204SOL    HW252728   2.330   7.124   5.176  0.2065 -0.6305  0.1367
15205SOL     OW52729  10.072   7.070   7.307 -1.2592 -0.7652 -0.4965
15205SOL    HW152730  10.004   7.138   7.310 -1.0433 -0.4412 -2.1323
15205SOL    HW252731  10.082   7.043   7.399 -0.4979  2.2388  0.4314
15206SOL     OW52732   7.395   3.534  11.192 -1.0454  0.4812  0.0287
15206SOL    HW152733   7.384   3.612  11.138 -0.9819  0.7648  0.4215
15206SOL    HW252734   7.343   3.467  11.149  0.4887  0.1707 -1.4392
15207SOL     OW52735   9.671   3.585   8.576 -0.4809  0.1946  0.2163
15207SOL    HW152736   9.634   3.621   8.656 -3.0174 -0.2764 -0.6741
15207SOL    HW252737   9.694   3.495   8.599 -1.5365 -0.0539  0.3452
15208SOL     OW52738   8.197   2.295   9.185 -0.3999 -0.3618  0.3595
15208SOL    HW152739   8.143   2.304   9.107 -1.5906 -0.3796  1.1440
15208SOL    HW252740   8.143   2.243   9.245  0.7518 -0.8947  0.9600
15209SOL     OW52741  11.728   7.359  12.405  0.4222 -0.2637 -0.1158
15209SOL    HW152742  11.795   7.423  12.382 -0.4533  1.4386  1.6848
15209SOL    HW252743  11.768   7.274  12.387  2.5279  0.7228 -0.3932
15210SOL     OW52744   9.954   5.122  11.132 -0.0922 -0.6753 -0.1691
15210SOL    HW152745  10.045   5.096  11.118 -0.2748 -1.6218  0.3381
15210SOL    HW252746   9.958   5.214  11.156  0.7829 -0.8571  0.4091
15211SOL     OW52747   2.044   5.397  11.258 -0.1982 -0.3316 -0.2706
15211SOL    HW152748   2.122   5.353  11.224  1.1118  1.8282 -0.2302
15211SOL    HW252749   2.061   5.407  11.352 -0.7483 -0.2734 -0.1699
15212SOL     OW52750  11.994  10.816  10.695  0.5546  0.6128 -0.3560
15212SOL    HW152751  12.045  10.813  10.614  2.0733 -1.3137  0.5780
15212SOL    HW252752  11.915  10.765  10.676  0.5060  0.8562 -0.8376
15213SOL     OW52753   9.302   7.250   4.836 -0.2470  0.7074  0.2735
15213SOL    HW152754   9.305   7.155   4.841  0.1307  0.7148  0.1915
15213SOL    HW252755   9.378   7.274   4.782 -0.0338  1.0843  0.7366
15214SOL     OW52756   1.271   2.101   4.210  0.5741 -0.7757  0.1686
15214SOL    HW152757   1.200   2.070   4.154  0.3597 -2.2104  1.1767
15214SOL    HW252758   1.239   2.183   4.246  0.2457 -0.4189 -0.8768
15215SOL     OW52759   3.860   0.035   9.070  0.0886 -0.2825 -0.2235
15215SOL    HW152760   3.866   0.010   9.162  2.2530  0.1719 -0.2036
15215SOL    HW252761   3.826   0.125   9.073  0.7252 -0.0449  0.1823
15216SOL     OW52762  11.199   8.925   0.913  0.6580  0.1567  0.0099
15216SOL    HW152763  11.178   8.834   0.932 -0.4382  0.4628  0.3347
15216SOL    HW252764  11.151   8.975   0.978 -2.6899  1.2035 -2.9800
15217SOL     OW52765  11.513  10.286   2.280 -0.3857  0.2363  0.1879
15217SOL    HW152766  11.597  10.297   2.326 -0.4338 -1.5326  0.7518
15217SOL    HW252767  11.477  10.375   2.276  1.0964  0.9066  0.7223
15218SOL     OW52768   0.818  10.171   0.070  0.3665  0.2854  0.6670
15218SOL    HW152769   0.825  10.262   0.042 -3.1917  0.4562 -0.1998
15218SOL    HW252770   0.763  10.129   0.003 -1.6083 -1.3792  3.1296
15219SOL     OW52771  11.497   7.003   5.354  0.0977 -0.1896  0.5699
15219SOL    HW152772  11.470   7.061   5.284  0.5706 -0.5349  0.0937
15219SOL    HW252773  11.569   6.952   5.317  0.5355 -0.1923  1.3859
15220SOL     OW52774   9.438   8.584   3.068 -0.1349  0.2643 -0.2202
15220SOL    HW152775   9.512   8.642   3.085  0.0951 -0.2272  0.5455
15220SOL    HW252776   9.361   8.634   3.095 -0.1280  0.9040 -1.3370
15221SOL     OW52777   0.182   7.098   1.510 -0.0129 -0.3210 -0.0186
15221SOL    HW152778   0.235   7.118   1.433 -1.5073 -0.2927 -1.0583
15221SOL    HW252779   0.242   7.113   1.584  0.8440  1.7211 -1.0396
15222SOL     OW52780   3.822   5.453   6.364  0.0758 -0.5227 -0.1009
15222SOL    HW152781   3.828   5.541   6.401 -1.0145 -1.4292  2.4673
15222SOL    HW252782   3.894   5.405   6.404  1.5150 -0.5767 -2.5157
15223SOL     OW52783   0.165   4.836  11.083  0.4964  0.8467  0.0349
15223SOL    HW152784   0.101   4.771  11.113  2.2171 -0.5345  0.8976
15223SOL    HW252785   0.151   4.911  11.140 -1.1524  1.0533 -0.5970
15224SOL     OW52786   9.828   3.029   0.444  0.6354  0.2704  0.5591
15224SOL    HW152787   9.858   3.052   0.356 -0.6026 -2.0632 -0.5599
15224SOL    HW252788   9.890   2.962   0.474 -0.3825 -0.7740  0.3863
15225SOL     OW52789   0.126   7.670  10.846  0.1709  0.3216  0.1512
15225SOL    HW152790   0.163   7.583  10.827 -0.8285  0.2842 -1.9882
15225SOL    HW252791   0.062   7.684  10.776 -0.7205  2.1982  1.2724
15226SOL     OW52792   0.194   4.834  10.084 -0.2768  0.2432  0.7005
15226SOL    HW152793   0.118   4.810  10.138 -1.3608 -0.0333 -0.8778
15226SOL    HW252794   0.269   4.820  10.142 -1.4277  0.8846  2.4352
15227SOL     OW52795   1.832   4.231   5.115  0.1063 -0.2510  0.4528
15227SOL    HW152796   1.875   4.312   5.088  2.2488 -1.0179  1.3219
15227SOL    HW252797   1.740   4.254   5.122  0.4928  1.7966 -0.4472
15228SOL     OW52798   3.075   1.330   5.009  0.7997  0.8171 -0.1731
15228SOL    HW152799   3.057   1.410   5.059  2.0376  1.1596 -0.2371
15228SOL    HW252800   3.170   1.318   5.017  0.3249 -2.7931  3.0637
15229SOL     OW52801  10.401   8.373   1.613 -0.1828 -0.0701 -0.3101
15229SOL    HW152802  10.432   8.298   1.561  0.3904  0.4899 -0.7951
15229SOL    HW252803  10.323   8.403   1.568  0.2443  0.3387 -0.7985
15230SOL     OW52804   4.979   0.368   6.818 -0.0333 -0.5912 -0.2714
15230SOL    HW152805   4.994   0.278   6.790 -1.9107 -0.6551 -1.1741
15230SOL    HW252806   4.889   0.387   6.793  0.1651  1.3895  0.3406
15231SOL     OW52807  12.480   6.589  11.734  0.4952 -0.4233 -0.3034
15231SOL    HW152808  12.496   6.671  11.688 -0.5777 -1.2381 -2.2713
15231SOL    HW252809  12.385   6.582  11.739  0.5682 -1.5859 -0.2701
15232SOL     OW52810   0.212   6.106   5.193 -0.2854 -0.4202 -0.4223
15232SOL    HW152811   0.242   6.038   5.132  0.1016  0.5397 -1.3232
15232SOL    HW252812   0.139   6.065   5.239  0.1025 -1.5429 -0.7593
15233SOL     OW52813   3.620   9.453  10.471 -0.4700  0.2386  0.9814
15233SOL    HW152814   3.545   9.505  10.443 -0.0689 -0.6377 -2.1335
15233SOL    HW252815   3.696   9.508  10.453 -0.2096 -0.1798  0.7734
15234SOL     OW52816   8.499  12.026   8.480 -0.0351  0.8084 -0.0410
15234SOL    HW152817   8.542  12.029   8.565 -0.6829 -1.9407  0.4860
15234SOL    HW252818   8.409  12.054   8.498  0.1933  1.6307 -0.1376
15235SOL     OW52819   1.010   7.055   1.031  0.0401 -0.5951 -0.3906
15235SOL    HW152820   0.920   7.051   0.999 -0.0658 -2.4538  0.0321
15235SOL    HW252821   1.054   6.981   0.989  1.4389  0.3752 -0.7272
15236SOL     OW52822   3.486   1.282  10.155  0.2075 -0.3357  0.5265
15236SOL    HW152823   3.580   1.299  10.147 -0.0104  0.0936 -1.4284
15236SOL    HW252824   3.444   1.357  10.114 -1.0110 -0.5463  1.3445
15237SOL     OW52825  11.840  10.939   2.128 -0.0491 -0.1691 -0.0020
15237SOL    HW152826  11.928  10.957   2.093  0.3805 -0.3272  0.9606
15237SOL    HW252827  11.801  11.026   2.139 -0.1711 -0.1140 -0.8025
15238SOL     OW52828  10.392   4.360   6.882 -0.3015  0.2422 -0.0018
15238SOL    HW152829  10.364   4.287   6.826 -1.2061  0.1861  0.5029
15238SOL    HW252830  10.487   4.362   6.872 -0.2130 -1.2678  0.2687
15239SOL     OW52831   3.472   8.110   4.734 -0.7493 -0.1898  0.8290
15239SOL    HW152832   3.507   8.192   4.768  1.1684 -0.0209 -1.3306
15239SOL    HW252833   3.415   8.136   4.662  0.4570 -0.7339 -0.3538
15240SOL     OW52834   4.397   9.469   4.577 -0.1889 -0.6353  0.7967
15240SOL    HW152835   4.352   9.421   4.508 -0.7440 -0.4863  1.0534
15240SOL    HW252836   4.489   9.444   4.568 -0.1564 -0.1724 -0.3690
15241SOL     OW52837   4.314   7.791   0.975  0.3192 -0.0088 -0.5235
15241SOL    HW152838   4.221   7.800   0.998  0.2569  0.0239 -0.7794
15241SOL    HW252839   4.325   7.850   0.900  0.7712  0.7147  0.1042
15242SOL     OW52840   6.133   9.132  10.368  0.2900  0.5625 -0.0432
15242SOL    HW152841   6.125   9.191  10.442 -2.4899 -1.4481  1.4523
15242SOL    HW252842   6.046   9.093  10.359  1.9467 -3.4819 -0.6946
15243SOL     OW52843   6.290   4.414  12.904 -0.0946  0.3285 -0.2926
15243SOL    HW152844   6.361   4.437  12.843  1.3258 -0.0928  1.1519
15243SOL    HW252845   6.240   4.495  12.913 -0.3025  0.4218 -1.9420
15244SOL     OW52846   5.822  11.889   7.191  0.2120 -0.3403 -0.3075
15244SOL    HW152847   5.897  11.945   7.212  0.6232 -0.6936 -0.7942
15244SOL    HW252848   5.861  11.805   7.168 -0.2845 -0.3286 -1.2439
15245SOL     OW52849  10.325   9.331   0.996 -0.2874  0.1240 -0.4198
15245SOL    HW152850  10.381   9.284   0.934  1.1505  0.9488  0.2002
15245SOL    HW252851  10.341   9.424   0.976 -1.9109  0.3905 -0.6190
15246SOL     OW52852   6.758   5.636  12.025  0.3480  0.0364 -0.2115
15246SOL    HW152853   6.851   5.658  12.019  0.1870  0.3750 -2.9462
15246SOL    HW252854   6.719   5.708  12.075  1.5580 -0.3054  1.3088
15247SOL     OW52855   6.932   3.064  11.424 -0.4014 -0.0138 -0.1735
15247SOL    HW152856   6.936   2.970  11.410  2.1936 -0.0736  0.4345
15247SOL    HW252857   6.875   3.074  11.500 -0.9059 -1.0738 -0.3967
15248SOL     OW52858   5.704   4.216   4.087  0.0421 -0.2966  0.1533
15248SOL    HW152859   5.664   4.141   4.044 -0.7589  0.9247 -1.3211
15248SOL    HW252860   5.705   4.285   4.020  2.4369  0.4735  0.8710
15249SOL     OW52861   3.162   4.354   9.552 -0.2844 -0.3509 -0.0890
15249SOL    HW152862   3.202   4.276   9.511  0.4750 -0.9900  1.7814
15249SOL    HW252863   3.169   4.338   9.646 -1.1693  1.4871  0.3264
15250SOL     OW52864  11.559   3.790   4.160  0.7506 -0.6021 -0.1357
15250SOL    HW152865  11.590   3.792   4.070 -0.2095 -2.9314 -0.5942
15250SOL    HW252866  11.464   3.778   4.153  0.4153  0.8817  1.2120
15251SOL     OW52867  11.611   6.283   1.995  0.4984  0.0017 -0.4914
15251SOL    HW152868  11.554   6.247   1.927 -0.5996  0.6799  0.0278
15251SOL    HW252869  11.626   6.210   2.055 -1.0754  0.1627  0.1503
15252SOL     OW52870   9.806   5.457   6.177  0.0727  0.1037 -0.9840
15252SOL    HW152871   9.747   5.491   6.110 -1.7217 -2.7352 -0.9833
15252SOL    HW252872   9.763   5.477   6.260  0.2278 -0.0019 -0.8762
15253SOL     OW52873   1.033  11.377   7.087  0.6843 -0.6039 -0.3410
15253SOL    HW152874   0.973  11.369   7.161 -0.9084  0.4623 -1.4472
15253SOL    HW252875   1.022  11.296   7.038  0.9771 -0.8759  0.0382
15254SOL     OW52876   8.735   3.495   6.804 -0.5023  0.5409 -0.4187
15254SOL    HW152877   8.740   3.424   6.740  0.9546  0.8330 -0.6675
15254SOL    HW252878   8.790   3.564   6.768 -0.8710  1.3060  0.4388
15255SOL     OW52879   1.741   4.797   5.967 -0.1165 -0.6044  0.0587
15255SOL    HW152880   1.811   4.779   5.904 -0.4081  1.1604 -0.8276
15255SOL    HW252881   1.787   4.803   6.051  0.5333 -1.2306 -0.2358
15256SOL     OW52882   3.813   8.285   8.342  0.0845 -0.5378  0.1853
15256SOL    HW152883   3.756   8.273   8.267 -0.3141 -2.2388  0.7173
15256SOL    HW252884   3.901   8.287   8.306 -0.2166  0.7840 -0.5136
15257SOL     OW52885   9.542   0.592   6.108 -0.2558  0.6790 -0.4354
15257SOL    HW152886   9.554   0.505   6.145  1.4241  1.2538  0.4933
15257SOL    HW252887   9.580   0.587   6.020 -0.6232  0.3594 -0.5784
15258SOL     OW52888   9.081   6.711   7.029 -0.2108  0.0709 -0.2911
15258SOL    HW152889   9.051   6.796   7.061  0.5403  0.8751 -1.6362
15258SOL    HW252890   9.172   6.725   7.004  0.4608 -1.5849  1.0133
15259SOL     OW52891   3.541   8.602  11.966 -0.1638 -0.4575 -0.8753
15259SOL    HW152892   3.553   8.568  12.055  1.0503  1.3204 -0.2902
15259SOL    HW252893   3.624   8.584  11.922 -1.0386 -2.0577 -1.9646
15260SOL     OW52894   4.513   7.056   9.101 -0.2946  0.2076  0.4287
15260SOL    HW152895   4.591   7.007   9.073 -0.8315 -1.1546  1.2240
15260SOL    HW252896   4.548   7.138   9.135  0.4904  1.4257 -2.8905
15261SOL     OW52897   8.202  10.714   5.189  0.4544  0.1420  0.7924
15261SOL    HW152898   8.229  10.805   5.202  1.7392 -0.2350  0.8538
15261SOL    HW252899   8.135  10.699   5.256 -0.1118  1.1836  0.4695
15262SOL     OW52900   2.856   6.251   2.648  0.1028  0.1342 -0.5715
15262SOL    HW152901   2.783   6.276   2.705 -0.3746 -0.1754 -1.0316
15262SOL    HW252902   2.926   6.225   2.708 -1.0501 -2.0870 -0.0951
15263SOL     OW52903   6.063   2.144   5.480  0.1543 -0.0674 -0.1020
15263SOL    HW152904   6.118   2.200   5.535  0.6348 -0.4852 -0.1517
15263SOL    HW252905   6.084   2.055   5.508 -1.3544 -0.2009  0.6755
15264SOL     OW52906   5.482   3.931  12.097  0.6090  0.5610 -0.1005
15264SOL    HW152907   5.470   3.843  12.060  1.6399  0.7112 -0.8454
15264SOL    HW252908   5.487   3.988  12.020 -1.4151  1.4934  0.3912
15265SOL     OW52909   0.367   2.269   2.904 -0.4141  0.4060 -0.2503
15265SOL    HW152910   0.396   2.341   2.848  1.7234 -0.1760  0.0140
15265SOL    HW252911   0.318   2.211   2.845  0.3349  0.6532 -1.1388
15266SOL     OW52912  10.024   1.284   7.151  0.1571  0.0099  0.9463
15266SOL    HW152913   9.944   1.336   7.142  1.3667  1.8294  0.2457
15266SOL    HW252914  10.094   1.348   7.154  1.8419 -1.5867 -1.0853
15267SOL     OW52915  10.016   4.554   8.212 -0.0816  0.1188 -0.0075
15267SOL    HW152916  10.043   4.540   8.121  2.2472  2.0626  0.2894
15267SOL    HW252917  10.094   4.535   8.263 -1.8688 -2.9698  1.9220
15268SOL     OW52918   2.526   5.541  12.243 -0.2870  0.0783  0.3750
15268SOL    HW152919   2.452   5.482  12.256 -1.4088  0.8442 -1.9607
15268SOL    HW252920   2.595   5.485  12.208 -0.5263 -0.2445  0.4181
15269SOL     OW52921   2.972   3.097   4.984  0.1095 -0.1603 -0.2696
15269SOL    HW152922   2.930   3.051   4.911 -0.6553  0.7953 -0.4581
15269SOL    HW252923   3.015   3.173   4.944 -0.6878  0.6213  0.2951
15270SOL     OW52924   6.628   0.484   0.598  0.3997  0.2756 -0.0093
15270SOL    HW152925   6.646   0.497   0.691  1.4783  0.9829 -0.3057
15270SOL    HW252926   6.606   0.391   0.592 -0.4557  0.3742  1.0546
15271SOL     OW52927   7.551   4.477   3.411  0.4536  0.7342  0.2500
15271SOL    HW152928   7.577   4.455   3.321  2.2349  0.8091  0.7223
15271SOL    HW252929   7.527   4.393   3.450  1.4466  0.4435  0.2476
15272SOL     OW52930   6.039   8.981   5.434 -0.1321 -0.5614  0.0925
15272SOL    HW152931   6.086   8.898   5.433 -2.2922 -1.9244 -2.5012
15272SOL    HW252932   5.970   8.969   5.499 -0.5606 -0.8895 -0.4183
15273SOL     OW52933   6.650   4.647   8.824  0.2092 -0.0124  0.0397
15273SOL    HW152934   6.597   4.628   8.747  0.2442 -0.2455  0.0702
15273SOL    HW252935   6.597   4.707   8.876  0.2346  0.2345 -0.2215
15274SOL     OW52936   0.602   1.047   2.485 -0.4126 -0.1505 -0.2127
15274SOL    HW152937   0.598   0.975   2.548  0.9218 -1.5863 -1.6682
15274SOL    HW252938   0.515   1.047   2.444 -0.6469 -0.4696  0.2731
15275SOL     OW52939   5.313   3.991  12.513  0.1864  0.5843 -0.4508
15275SOL    HW152940   5.343   4.039  12.436 -1.0249  1.4326 -0.4386
15275SOL    HW252941   5.225   3.961  12.489  0.2576 -0.1388  0.1827
15276SOL     OW52942  11.922   6.673   2.656  0.1004 -0.2983 -0.0175
15276SOL    HW152943  11.925   6.747   2.717 -0.3376 -2.0154  2.2390
15276SOL    HW252944  11.978   6.699   2.584  0.5790  1.9135  1.0640
15277SOL     OW52945   4.609   2.782   2.618 -0.4067  0.0716 -0.0949
15277SOL    HW152946   4.536   2.738   2.574  0.7192 -2.2229  0.1770
15277SOL    HW252947   4.572   2.812   2.701 -1.6042  1.1028 -0.9639
15278SOL     OW52948  12.396   1.441   9.353  0.1307 -0.1732 -0.2581
15278SOL    HW152949  12.442   1.513   9.310 -0.3573  0.1984 -0.1710
15278SOL    HW252950  12.310   1.439   9.310  0.2641 -0.9310 -0.4997
15279SOL     OW52951   2.215   6.393  10.452  0.3271 -0.2904  0.2064
15279SOL    HW152952   2.145   6.459  10.452 -0.1311 -0.6173 -3.3350
15279SOL    HW252953   2.296   6.444  10.445  0.1129 -0.0256 -0.4165
15280SOL     OW52954   5.413   7.976  11.704  0.5834 -0.3014  0.1275
15280SOL    HW152955   5.330   7.934  11.726  1.3365 -2.3058 -0.5813
15280SOL    HW252956   5.454   7.994  11.789 -0.9167  1.5385  0.5021
15281SOL     OW52957  11.600   6.899   1.461  0.3874 -0.2076 -0.3420
15281SOL    HW152958  11.591   6.821   1.406 -0.1067  0.1242 -0.7437
15281SOL    HW252959  11.538   6.886   1.532 -0.6051  0.3683 -1.0773
15282SOL     OW52960   6.847  11.060   7.608 -0.1340 -0.0152 -0.1595
15282SOL    HW152961   6.895  10.998   7.553  0.6125 -0.7986  1.3040
15282SOL    HW252962   6.755  11.043   7.590  0.0755 -1.1277 -0.2462
15283SOL     OW52963   4.346   3.258   5.840  0.2010  0.4058 -0.3316
15283SOL    HW152964   4.273   3.211   5.799 -0.3766  1.0171 -0.0387
15283SOL    HW252965   4.401   3.189   5.876 -2.0380 -0.1189  2.5138
15284SOL     OW52966   0.215   7.564   1.262  0.2414  0.0336 -0.2136
15284SOL    HW152967   0.262   7.553   1.345  2.1707 -0.1160 -1.2742
15284SOL    HW252968   0.256   7.641   1.222 -0.9592  0.3558 -0.8550
15285SOL     OW52969   0.425   7.092   5.997 -0.1845 -0.1818  0.0448
15285SOL    HW152970   0.519   7.093   6.015 -0.5917  1.8434  2.8041
15285SOL    HW252971   0.407   7.175   5.953 -0.6448 -0.8568 -1.1098
15286SOL     OW52972  11.646   5.759   7.086 -0.3886 -0.6349 -0.3694
15286SOL    HW152973  11.718   5.788   7.143 -1.6589  0.5292  0.7060
15286SOL    HW252974  11.598   5.694   7.139 -0.4741 -0.9791 -0.8609
15287SOL     OW52975  12.175   3.821   4.944  0.0838 -0.5484 -0.0202
15287SOL    HW152976  12.193   3.767   5.022 -1.6520 -0.0241  0.7887
15287SOL    HW252977  12.254   3.874   4.933  0.3713 -0.6432  1.3857
15288SOL     OW52978   3.940   4.797   0.233 -0.4767 -0.1530  0.3286
15288SOL    HW152979   3.948   4.870   0.171  1.5714 -0.3860  0.2274
15288SOL    HW252980   3.966   4.834   0.317  0.2724 -0.6701  0.3342
15289SOL     OW52981   3.571   7.420   2.102  0.2370  0.3837 -0.2517
15289SOL    HW152982   3.508   7.491   2.089  0.1523  0.5250  0.8447
15289SOL    HW252983   3.522   7.352   2.147 -0.0736 -1.0045 -2.5191
15290SOL     OW52984   7.687  12.712   4.146 -0.3962 -0.2148 -0.2157
15290SOL    HW152985   7.600  12.678   4.126 -0.9996 -1.1558  3.3482
15290SOL    HW252986   7.743  12.675   4.078 -2.4306 -1.3016 -1.4053
15291SOL     OW52987   3.097   9.337   4.912  0.5194  0.1689  0.5541
15291SOL    HW152988   3.073   9.341   4.820  1.5352 -0.0446  0.2664
15291SOL    HW252989   3.189   9.364   4.914  0.7374 -0.5884  1.4004
15292SOL     OW52990   5.423   1.506   9.563 -0.8212  0.3688 -0.1330
15292SOL    HW152991   5.402   1.421   9.602 -1.8522  1.1601  1.1197
15292SOL    HW252992   5.345   1.559   9.579 -0.1527  1.5884 -0.8033
15293SOL     OW52993  11.897   6.174  11.318  0.2181  0.7458 -0.3985
15293SOL    HW152994  11.890   6.087  11.357 -1.9745  0.3406 -1.5458
15293SOL    HW252995  11.905   6.158  11.224 -2.1623  1.7177 -0.8501
15294SOL     OW52996  10.783   1.945   5.564  0.6216 -0.1887  0.1045
15294SOL    HW152997  10.864   1.991   5.586 -0.0585  1.1191 -0.0472
15294SOL    HW252998  10.745   1.997   5.494 -0.9031 -0.1715  0.9231
15295SOL     OW52999   5.918   3.826   1.265 -0.8739  0.4462  0.4851
15295SOL    HW153000   5.841   3.804   1.213 -0.4589 -0.8469  0.3806
15295SOL    HW253001   5.885   3.839   1.353 -0.9256 -3.3121  1.1942
15296SOL     OW53002  11.669   2.658   7.320  0.2086 -0.4396 -0.3584
15296SOL    HW153003  11.640   2.688   7.234  1.4977  0.2258 -0.5993
15296SOL    HW253004  11.758   2.694   7.329  0.9429 -2.3021  0.3216
15297SOL     OW53005  12.670   3.130   6.960  0.0611 -0.0116 -0.7216
15297SOL    HW153006  12.741   3.129   6.895  0.3521  1.5949 -0.4720
15297SOL    HW253007  12.713   3.158   7.041 -1.1385  3.0377 -1.0124
15298SOL     OW53008   3.255   9.923   1.889  0.1479  0.1150 -0.1654
15298SOL    HW153009   3.171   9.946   1.929  0.2495  0.8296 -0.3534
15298SOL    HW253010   3.234   9.907   1.797  0.0944 -0.4713 -0.0567
15299SOL     OW53011  10.280   7.586   8.778 -0.1218  0.5634 -0.3164
15299SOL    HW153012  10.297   7.498   8.746 -3.2194 -0.4521  0.4663
15299SOL    HW253013  10.265   7.639   8.700  2.5380  0.6813 -0.8268
15300SOL     OW53014  12.374  12.843   6.712 -0.5694  0.6572 -0.5657
15300SOL    HW153015  12.323  12.886   6.781 -0.6563 -2.1904  1.3373
15300SOL    HW253016  12.342  12.753   6.712  2.7724 -0.6770 -0.9628
15301SOL     OW53017   5.991   9.034   7.985  0.1906 -0.7608 -0.2988
15301SOL    HW153018   6.008   8.983   8.064 -1.9808 -2.7843 -1.0285
15301SOL    HW253019   5.896   9.043   7.982  0.3749  1.5309 -1.3710
15302SOL     OW53020   8.887   0.850   0.984  0.3436 -0.0812  0.0182
15302SOL    HW153021   8.873   0.802   0.902  0.7311 -1.8139  0.9285
15302SOL    HW253022   8.831   0.806   1.048  0.6243  0.7617  0.8699
15303SOL     OW53023  11.748   2.698   5.302 -0.0638  0.8010  0.4085
15303SOL    HW153024  11.735   2.737   5.389  1.9819  0.5357  0.8749
15303SOL    HW253025  11.824   2.641   5.312  1.3667  2.1281 -1.9655
15304SOL     OW53026   8.153  12.143  11.185 -0.5245 -0.3253 -0.3242
15304SOL    HW153027   8.225  12.112  11.129  0.5977 -1.7231  1.7262
15304SOL    HW253028   8.197  12.192  11.255 -1.8699  1.2990 -0.5546
15305SOL     OW53029   4.644   8.154   2.594  0.0162  0.8205 -0.4731
15305SOL    HW153030   4.560   8.184   2.557  0.2800  1.5387 -0.5063
15305SOL    HW253031   4.704   8.154   2.520  0.8401  3.3379  0.0703
15306SOL     OW53032   4.668   2.117  12.892 -0.2839 -0.7337 -0.0470
15306SOL    HW153033   4.611   2.098  12.966  0.4947  0.8545  1.0007
15306SOL    HW253034   4.611   2.107  12.815 -1.7282 -0.1131  0.9056
15307SOL     OW53035   5.614  11.495   7.593  0.5537  0.3303  1.1336
15307SOL    HW153036   5.537  11.551   7.587  0.4195  0.2131  1.7252
15307SOL    HW253037   5.682  11.542   7.545 -0.3283 -0.3588 -0.9121
15308SOL     OW53038   1.947   7.626   0.536  0.0387  0.1875 -0.2519
15308SOL    HW153039   2.025   7.674   0.564 -0.4675  1.4207 -0.8774
15308SOL    HW253040   1.886   7.694   0.507 -1.3087 -0.7394  0.2969
15309SOL     OW53041   9.051   2.732   2.359  0.2238 -0.3981  0.6114
15309SOL    HW153042   9.004   2.668   2.305  0.4458  0.3161 -0.4614
15309SOL    HW253043   9.121   2.682   2.400  1.5471 -0.5192 -1.6686
15310SOL     OW53044   7.671   2.579   7.162  0.2766 -0.3338  0.3550
15310SOL    HW153045   7.757   2.537   7.166  0.7059  0.2070 -1.6809
15310SOL    HW253046   7.640   2.560   7.073 -2.0324 -1.0629  1.2437
15311SOL     OW53047  12.179   4.656  12.162 -0.4937  0.1668  0.4947
15311SOL    HW153048  12.253   4.696  12.118  0.9345 -0.3503  2.2769
15311SOL    HW253049  12.199   4.562  12.161 -1.0923  0.0260  1.0559
15312SOL     OW53050   5.769   8.785   9.796  0.0914  0.2376  0.2837
15312SOL    HW153051   5.776   8.819   9.885  1.3377 -0.0130  0.2955
15312SOL    HW253052   5.675   8.770   9.783 -0.1407  0.6614  1.4036
15313SOL     OW53053  11.484  11.376   5.960  0.1624 -0.1376 -0.0356
15313SOL    HW153054  11.466  11.449   5.900  0.6704 -0.2912 -0.3793
15313SOL    HW253055  11.402  11.326   5.961  0.4243 -0.6299 -1.3036
15314SOL     OW53056   4.593   8.813  10.285 -0.0730 -0.1045 -0.3310
15314SOL    HW153057   4.563   8.801  10.375  0.3792  1.3063  0.0395
15314SOL    HW253058   4.525   8.866  10.243  0.3330  0.3551 -0.4254
15315SOL     OW53059   6.964   0.328  10.253  0.3994 -0.1768  0.1456
15315SOL    HW153060   6.919   0.256  10.210 -0.6729  1.1831 -1.1085
15315SOL    HW253061   6.905   0.353  10.325 -2.1421  2.9419 -2.7087
15316SOL     OW53062   5.328   7.021   7.580 -0.5093  0.0356  0.1645
15316SOL    HW153063   5.390   6.956   7.546 -0.1053  1.2241 -1.5080
15316SOL    HW253064   5.382   7.081   7.631 -0.8630 -0.8183  1.6004
15317SOL     OW53065   0.557   6.474   8.217 -0.0551  0.1953  0.1962
15317SOL    HW153066   0.501   6.539   8.176 -0.3657  0.8751  1.6173
15317SOL    HW253067   0.625   6.455   8.153  0.0560  1.9510 -0.2322
15318SOL     OW53068  10.770   1.690   0.563  0.0236  0.0334 -0.1794
15318SOL    HW153069  10.773   1.596   0.544 -1.9086 -0.4205  1.4347
15318SOL    HW253070  10.738   1.729   0.482 -0.0623 -0.8196 -0.5738
15319SOL     OW53071   4.036  10.440  10.322  0.1576  0.1209  0.1867
15319SOL    HW153072   4.067  10.530  10.324 -0.1687  0.2290  0.4617
15319SOL    HW253073   4.100  10.392  10.375 -0.1474  0.3484  0.7737
15320SOL     OW53074   1.027   4.796   6.793 -0.1961  0.1827  0.2296
15320SOL    HW153075   1.027   4.833   6.705  2.2608 -0.8181 -0.2721
15320SOL    HW253076   1.071   4.712   6.784  0.5725  0.2654  2.4933
15321SOL     OW53077  11.528   9.081   0.686 -0.3360 -0.1262  0.0243
15321SOL    HW153078  11.452   9.032   0.654  0.6293 -0.5949 -1.7146
15321SOL    HW253079  11.574   9.019   0.742 -1.0347  0.0489  0.8120
15322SOL     OW53080   2.025   1.988   0.399  0.0963 -0.9809 -0.0184
15322SOL    HW153081   2.023   1.894   0.419 -0.1664 -1.6020 -2.5379
15322SOL    HW253082   2.097   1.997   0.336 -0.4530  0.3425 -0.4945
15323SOL     OW53083   2.599   7.665   4.057  0.2123  0.0076  0.1512
15323SOL    HW153084   2.552   7.736   4.101  1.5748  0.0565  1.6204
15323SOL    HW253085   2.535   7.594   4.051 -1.0798  1.2078 -1.0620
15324SOL     OW53086   7.228  11.027  11.071  0.3898 -0.7783  0.2616
15324SOL    HW153087   7.279  11.091  11.120  0.8753 -1.1686  0.2690
15324SOL    HW253088   7.285  10.951  11.063  0.1650 -0.8738 -0.5505
15325SOL     OW53089   9.477  12.851  11.204  0.0615  0.0533  0.3269
15325SOL    HW153090   9.458  12.879  11.293  0.8952  1.1351  0.1805
15325SOL    HW253091   9.535  12.919  11.168  0.6872 -0.9456 -0.6426
15326SOL     OW53092   0.524   8.061   7.630 -0.1440  0.2705 -0.0320
15326SOL    HW153093   0.606   8.111   7.635  1.4205 -1.8983 -1.8470
15326SOL    HW253094   0.526   8.005   7.708  0.0786  0.2422 -0.0569
15327SOL     OW53095  12.922   9.345   3.124  0.1830  0.0140 -0.3816
15327SOL    HW153096  12.978   9.365   3.050  0.2223  0.3171 -0.2698
15327SOL    HW253097  12.917   9.249   3.125 -2.6060  0.0054 -2.8674
15328SOL     OW53098   7.428   7.075   1.426  0.2793  0.6504 -0.1832
15328SOL    HW153099   7.458   6.985   1.443 -1.6672  0.1065  0.6451
15328SOL    HW253100   7.360   7.090   1.492 -0.2122  2.3360 -1.0334
15329SOL     OW53101   4.588   6.627  10.068 -0.2788 -0.5268  0.1894
15329SOL    HW153102   4.497   6.639  10.041 -0.3506  1.4171  1.1550
15329SOL    HW253103   4.616   6.713  10.098  3.1269 -0.0506 -3.6180
15330SOL     OW53104   0.077   0.323   5.849 -0.1345 -0.0820 -0.0889
15330SOL    HW153105   0.062   0.292   5.760  1.2765 -1.1402  0.0190
15330SOL    HW253106   0.153   0.381   5.842  1.1906 -1.6638  0.6925
15331SOL     OW53107   3.930   1.551   8.120 -0.2844  0.2635  0.0537
15331SOL    HW153108   3.874   1.576   8.046 -0.3756  0.2506  0.1175
15331SOL    HW253109   3.957   1.462   8.100  1.3989  0.9560 -1.0067
15332SOL     OW53110   7.128   8.689   5.895  0.3839 -0.9759 -0.3015
15332SOL    HW153111   7.064   8.617   5.891  0.2539 -1.0075  1.5655
15332SOL    HW253112   7.211   8.645   5.911  0.3659 -0.7470  0.4392
15333SOL     OW53113   3.443   4.435   2.997  0.2202  0.4837 -0.0053
15333SOL    HW153114   3.535   4.425   2.970  0.8223  2.2219  1.2215
15333SOL    HW253115   3.411   4.345   3.004  2.3532 -0.2720  1.1663
15334SOL     OW53116   3.010   7.087   2.632 -0.8580  0.4198 -0.2539
15334SOL    HW153117   3.101   7.115   2.641 -0.5409 -0.8192  0.5759
15334SOL    HW253118   2.961   7.147   2.690 -0.0519 -1.2745  2.3633
15335SOL     OW53119   2.866  11.755   2.492  0.4999  0.1351  0.3436
15335SOL    HW153120   2.784  11.719   2.527  0.7194 -3.0102 -1.9923
15335SOL    HW253121   2.887  11.827   2.552 -2.3721 -0.8270  2.7908
15336SOL     OW53122   1.173   4.099   8.749  0.7102 -0.8537  0.4885
15336SOL    HW153123   1.109   4.057   8.806 -0.2451  1.3185  1.1466
15336SOL    HW253124   1.162   4.193   8.766  2.8513 -0.3096 -0.7030
15337SOL     OW53125   6.765   7.751   6.600 -0.2177  0.0109 -0.3847
15337SOL    HW153126   6.798   7.670   6.638  0.9414  0.6931  0.1377
15337SOL    HW253127   6.737   7.727   6.512 -1.5619 -1.3008  0.3610
15338SOL     OW53128   6.431   5.052   8.932 -0.0992 -0.1874 -0.5273
15338SOL    HW153129   6.401   5.128   8.982  1.2032 -0.0820  0.1397
15338SOL    HW253130   6.505   5.084   8.882  0.6794 -1.0713  0.0153
15339SOL     OW53131   2.409   8.753  10.307  0.6644  0.1149  0.0318
15339SOL    HW153132   2.397   8.820  10.240  0.9226 -0.9566 -1.1207
15339SOL    HW253133   2.346   8.684  10.284  0.6398 -0.1956  0.9879
15340SOL     OW53134   6.444   4.418   9.066 -0.8477 -0.3473  0.2595
15340SOL    HW153135   6.415   4.484   9.129 -1.3158  0.2182 -0.5193
15340SOL    HW253136   6.537   4.434   9.055 -1.0081  0.3774 -0.1257
15341SOL     OW53137   6.432   3.740   9.674  0.1269 -0.0329 -0.5703
15341SOL    HW153138   6.486   3.818   9.685  0.8965 -0.7501  1.1543
15341SOL    HW253139   6.344   3.767   9.703  0.4675  0.1149  0.3475
15342SOL     OW53140   7.061   5.440   1.328 -0.2586  0.3340 -0.1011
15342SOL    HW153141   7.051   5.464   1.420 -1.5170  0.3093 -0.2142
15342SOL    HW253142   7.071   5.344   1.329 -0.6504  0.2949 -0.0203
15343SOL     OW53143  10.421   0.548   7.489 -0.2346 -0.4928  0.4632
15343SOL    HW153144  10.358   0.480   7.513  0.8291 -1.3602  0.9076
15343SOL    HW253145  10.439   0.594   7.571 -0.4003 -0.1491  0.3080
15344SOL     OW53146  11.717   4.362  12.831 -0.1838  0.1980  0.1022
15344SOL    HW153147  11.681   4.451  12.831  0.4587  0.4702 -0.9759
15344SOL    HW253148  11.791   4.366  12.771  1.0139 -0.6205  1.4407
15345SOL     OW53149  11.251   4.348   9.426  0.1704  0.2696  0.1598
15345SOL    HW153150  11.253   4.424   9.485 -1.3176  1.9566 -1.7834
15345SOL    HW253151  11.256   4.386   9.339  1.2248 -2.0523 -0.8706
15346SOL     OW53152   8.599  10.968  11.149  0.0652 -0.0787  0.1790
15346SOL    HW153153   8.657  10.978  11.073  1.1956  0.0791  1.0452
15346SOL    HW253154   8.630  10.890  11.194 -1.3050 -0.8210 -0.0912
15347SOL     OW53155   5.728  10.545   6.921 -0.4383  0.8517  0.1979
15347SOL    HW153156   5.671  10.561   6.846 -0.3911  0.7002  0.1301
15347SOL    HW253157   5.691  10.598   6.991 -0.0127  1.6329 -0.1535
15348SOL     OW53158   0.820   5.548   8.762 -0.2946  0.3629  0.0905
15348SOL    HW153159   0.828   5.475   8.823 -1.8219  0.6833  0.7294
15348SOL    HW253160   0.796   5.622   8.816  3.0187  1.8599 -0.2898
15349SOL     OW53161   9.881   9.367  10.400 -0.6448 -0.2482 -0.0776
15349SOL    HW153162   9.955   9.345  10.456 -0.4033 -0.6565 -0.5485
15349SOL    HW253163   9.877   9.296  10.336 -0.2896  0.7192 -1.2030
15350SOL     OW53164  10.440   3.259   7.865 -0.2423 -0.2369 -0.0082
15350SOL    HW153165  10.356   3.305   7.861  0.9112  2.1761  1.2673
15350SOL    HW253166  10.437   3.212   7.948 -0.6719 -0.8633 -0.3789
15351SOL     OW53167   2.529   7.553   9.828 -0.0048 -0.1649  0.4611
15351SOL    HW153168   2.559   7.519   9.912 -1.0755  2.3879  2.0154
15351SOL    HW253169   2.433   7.553   9.835 -0.0863  1.4597 -0.0831
15352SOL     OW53170   9.228   3.182   2.800 -0.2979 -0.0864  0.5823
15352SOL    HW153171   9.156   3.228   2.842  0.1831  0.4595  0.8338
15352SOL    HW253172   9.198   3.166   2.711 -0.5820  0.4847  0.5700
15353SOL     OW53173   7.584   8.618   3.612  0.5808  0.2198  0.0415
15353SOL    HW153174   7.654   8.619   3.547  0.7492  1.6255  0.2187
15353SOL    HW253175   7.551   8.708   3.614  0.5161  0.2008  1.8214
15354SOL     OW53176   0.444   3.950   9.685 -0.1355  0.1317  0.9434
15354SOL    HW153177   0.376   4.012   9.658  0.7108  0.3699 -0.8158
15354SOL    HW253178   0.453   3.964   9.779 -0.9166  1.7130  0.8214
15355SOL     OW53179   9.133   2.531   2.573  0.9273 -0.5665 -0.0209
15355SOL    HW153180   9.128   2.501   2.664  1.5820 -0.8202 -0.0641
15355SOL    HW253181   9.075   2.473   2.525 -1.5758  1.1946  0.6175
15356SOL     OW53182   8.822   1.180  11.217  0.2398 -0.4924  0.1250
15356SOL    HW153183   8.784   1.239  11.282 -0.2893 -0.6634 -0.0177
15356SOL    HW253184   8.914   1.204  11.213  0.4471 -1.0010  1.4956
15357SOL     OW53185   0.222   4.190   5.754  0.7115  0.1960  0.6780
15357SOL    HW153186   0.248   4.125   5.819 -1.2525 -0.8585  0.5104
15357SOL    HW253187   0.127   4.199   5.766  0.3697  0.3810 -1.6362
15358SOL     OW53188   0.616   3.703   9.360 -0.0423  0.2070 -0.1514
15358SOL    HW153189   0.651   3.760   9.430 -1.0276 -1.1391  1.5209
15358SOL    HW253190   0.595   3.621   9.405 -0.7405 -0.7055 -2.0661
15359SOL     OW53191   9.470   5.253  12.097  0.0216 -0.3026 -0.2632
15359SOL    HW153192   9.475   5.322  12.031  0.3542 -1.3031 -1.3280
15359SOL    HW253193   9.549   5.201  12.082 -0.0953 -0.7627  0.6862
15360SOL     OW53194   9.919   2.827   9.168  0.4076  0.0750 -0.9285
15360SOL    HW153195   9.988   2.781   9.215 -0.2063  2.9673  3.2908
15360SOL    HW253196   9.965   2.869   9.095  1.9842 -2.2037 -1.3865
15361SOL     OW53197  10.120   3.393   9.715  0.3694 -0.4488 -0.2376
15361SOL    HW153198  10.183   3.338   9.669  0.6274 -0.0903 -0.3081
15361SOL    HW253199  10.136   3.481   9.683 -0.6488 -0.4454 -0.8085
15362SOL     OW53200   1.477  11.719   9.036 -0.9899  0.3188  0.0711
15362SOL    HW153201   1.503  11.704   9.127  2.2635  1.4348 -0.5264
15362SOL    HW253202   1.439  11.806   9.036 -0.1889  0.6832  0.2767
15363SOL     OW53203  10.934  12.592   8.512 -0.1268 -0.1653 -0.0713
15363SOL    HW153204  11.015  12.547   8.487  0.2740 -0.6019  1.8371
15363SOL    HW253205  10.905  12.636   8.432  2.1014  0.1638 -0.7668
15364SOL     OW53206   4.997   3.407   8.548  0.4320  0.7205 -1.0392
15364SOL    HW153207   5.005   3.410   8.643  1.0798 -0.7523 -1.0372
15364SOL    HW253208   4.993   3.500   8.522  0.7247  1.1520  0.3673
15365SOL     OW53209  11.409   0.292  10.100  0.7739  0.1747  0.2579
15365SOL    HW153210  11.382   0.359  10.038 -2.0569 -2.2891 -1.4399
15365SOL    HW253211  11.424   0.339  10.182  0.2603  2.9822 -1.1566
15366SOL     OW53212   1.887   0.476  10.383 -1.0106  0.3529  0.2214
15366SOL    HW153213   1.942   0.539  10.336  0.8722 -0.8176  0.7535
15366SOL    HW253214   1.897   0.395  10.334 -2.6457  0.1888  0.0994
15367SOL     OW53215   7.172   0.263   9.290 -0.2215 -0.4417  0.1495
15367SOL    HW153216   7.128   0.347   9.277  0.8924  0.3272  1.0750
15367SOL    HW253217   7.114   0.214   9.348  0.1842  0.6427  1.5363
15368SOL     OW53218   9.799   1.215   5.782 -0.4681  0.2355  0.4893
15368SOL    HW153219   9.811   1.190   5.873  0.1473  0.6972  0.5446
15368SOL    HW253220   9.865   1.283   5.767  0.9038 -1.2806 -0.8678
15369SOL     OW53221   7.162  10.474   3.417  0.3222 -0.2194 -0.0578
15369SOL    HW153222   7.093  10.410   3.398  0.6119 -1.0343  1.4638
15369SOL    HW253223   7.115  10.554   3.441 -0.1127 -0.8420  1.2185
15370SOL     OW53224   5.399   1.941   9.779 -0.4462 -0.0565  0.0264
15370SOL    HW153225   5.422   2.016   9.833  0.7019 -0.0372 -0.4689
15370SOL    HW253226   5.424   1.865   9.831  0.7861 -0.0357 -0.5075
15371SOL     OW53227   9.553  12.090   7.104  0.3419  0.0668  0.1965
15371SOL    HW153228   9.621  12.147   7.067  0.9639 -0.1839  0.9174
15371SOL    HW253229   9.528  12.132   7.186 -1.5650  1.0129 -0.8110
15372SOL     OW53230   2.920   4.205   3.181 -0.5996  0.2883  0.0331
15372SOL    HW153231   2.874   4.280   3.144 -1.4434 -1.8432 -3.7437
15372SOL    HW253232   2.968   4.168   3.108  1.4132 -1.7601  2.2235
15373SOL     OW53233   6.439   5.573   3.810 -0.2956  0.0842  0.2217
15373SOL    HW153234   6.487   5.535   3.736 -3.2337 -0.3375 -1.6292
15373SOL    HW253235   6.371   5.509   3.830 -1.8989  1.8636  0.7531
15374SOL     OW53236   4.931   6.394   3.257 -0.3213 -0.6094  0.6224
15374SOL    HW153237   4.916   6.460   3.324  0.9991  0.7034 -0.3016
15374SOL    HW253238   4.856   6.404   3.197  1.5562  2.7690 -1.5323
15375SOL     OW53239   6.415   3.424   7.409 -0.0443 -0.1457 -0.2496
15375SOL    HW153240   6.389   3.516   7.410 -0.0689 -0.1524  0.6656
15375SOL    HW253241   6.348   3.381   7.356 -0.6343  0.1904  0.2147
15376SOL     OW53242  10.583   9.952   9.028  0.5518 -0.4942  0.2435
15376SOL    HW153243  10.601  10.024   8.967  1.5244  0.3397  1.4657
15376SOL    HW253244  10.498   9.973   9.066  0.7936 -0.0442  0.5303
15377SOL     OW53245   7.670   8.033  12.334 -0.5203  0.2260  0.6864
15377SOL    HW153246   7.757   8.068  12.351  0.0779  0.2755 -1.9766
15377SOL    HW253247   7.676   7.941  12.358  0.8274 -0.1674 -0.9464
15378SOL     OW53248   9.038   5.691  11.045  0.0453 -0.0367 -0.0167
15378SOL    HW153249   9.064   5.603  11.019 -0.0837 -0.2407  0.5371
15378SOL    HW253250   9.099   5.749  10.998  1.8380 -0.5230  1.6010
15379SOL     OW53251   4.734   0.044   5.880 -0.3872 -0.0979 -0.1417
15379SOL    HW153252   4.692  -0.034   5.844 -1.2547  0.9657 -1.5065
15379SOL    HW253253   4.753   0.021   5.971  0.3452 -2.2718 -0.7841
15380SOL     OW53254   5.785  11.004   9.000 -0.2059 -0.1158 -0.0207
15380SOL    HW153255   5.819  11.006   8.910 -1.0549 -0.3932 -0.3634
15380SOL    HW253256   5.731  11.082   9.007 -1.1884 -0.7636 -0.1919
15381SOL     OW53257  12.821   0.876   6.954  0.4623 -0.3365 -0.1087
15381SOL    HW153258  12.869   0.851   6.875  0.7123  0.4352 -0.2044
15381SOL    HW253259  12.736   0.831   6.945  0.2945  0.1548 -1.0725
15382SOL     OW53260   0.696   1.359   4.430  0.0272  0.6732  0.4418
15382SOL    HW153261   0.654   1.356   4.344 -1.5100 -1.3060  1.2025
15382SOL    HW253262   0.746   1.441   4.429 -0.6306  1.1234 -1.9976
15383SOL     OW53263   1.391   3.364   0.075 -0.1752  0.1608  0.3916
15383SOL    HW153264   1.414   3.326  -0.010  1.2226 -0.1947  0.9026
15383SOL    HW253265   1.365   3.289   0.129  2.3363 -0.1309  1.3200
15384SOL     OW53266  11.521   7.339   6.056 -0.4861 -0.5820  0.3071
15384SOL    HW153267  11.504   7.248   6.031  0.0112 -0.7942  0.7386
15384SOL    HW253268  11.501   7.390   5.977  1.3343 -1.2661 -0.6429
15385SOL     OW53269   8.475  12.948   7.064 -0.2733 -0.1332  0.0294
15385SOL    HW153270   8.394  12.988   7.096 -0.4261  0.7387 -1.3479
15385SOL    HW253271   8.540  13.019   7.069  0.5839 -0.9805  1.6515
15386SOL     OW53272   9.554   5.330   3.470 -0.1031 -0.4349 -0.0387
15386SOL    HW153273   9.562   5.331   3.566 -1.1330  0.8817  0.0560
15386SOL    HW253274   9.641   5.350   3.438  0.2449 -0.8622  0.6148
15387SOL     OW53275   7.756   2.920   0.632 -0.4724  0.5203 -0.9119
15387SOL    HW153276   7.712   2.995   0.591 -0.6888  1.1423  0.3968
15387SOL    HW253277   7.808   2.959   0.703 -0.9881 -0.6157  0.1171
15388SOL     OW53278   2.353   7.646  12.393  0.2627  0.1397 -0.3373
15388SOL    HW153279   2.273   7.690  12.363 -0.5449 -1.0291  0.0759
15388SOL    HW253280   2.373   7.583  12.323  1.4243  1.1173 -0.9314
15389SOL     OW53281  12.284   2.084   5.484 -0.1235  0.0284 -0.3970
15389SOL    HW153282  12.361   2.110   5.535 -0.3747  0.9805 -0.4721
15389SOL    HW253283  12.218   2.063   5.550  0.3721 -1.4208 -0.3222
15390SOL     OW53284   3.769  12.483   7.743 -0.0876 -0.2596  0.6029
15390SOL    HW153285   3.862  12.487   7.717 -0.4340  0.3022 -0.6274
15390SOL    HW253286   3.769  12.433   7.825  1.2044 -1.0899  0.1276
15391SOL     OW53287   6.756   2.415   1.665  0.1048 -0.2590  0.4390
15391SOL    HW153288   6.705   2.368   1.731 -0.8113 -1.1758 -0.8729
15391SOL    HW253289   6.834   2.361   1.651  0.0001 -0.3780  0.3213
15392SOL     OW53290   7.045   5.440   2.821  0.3390  0.1345  0.1396
15392SOL    HW153291   7.108   5.462   2.889 -0.1431 -0.1304  0.6800
15392SOL    HW253292   6.981   5.384   2.865  0.1622 -0.2454 -0.5974
15393SOL     OW53293   5.259   8.860   0.846 -0.0718 -0.2175  0.1546
15393SOL    HW153294   5.203   8.937   0.841 -0.0524 -0.1621  0.7742
15393SOL    HW253295   5.200   8.790   0.874  0.4654  0.1818  2.4635
15394SOL     OW53296   8.610  10.661   9.307 -0.3171 -0.1106 -0.5491
15394SOL    HW153297   8.675  10.714   9.352 -0.7774 -1.6502  2.1589
15394SOL    HW253298   8.547  10.724   9.273 -0.4006  1.1774  1.7884
15395SOL     OW53299   9.543   4.514   3.683 -0.2166 -0.1474  0.0255
15395SOL    HW153300   9.552   4.580   3.752  0.5149  1.0589 -1.1817
15395SOL    HW253301   9.481   4.450   3.719  2.2092 -1.1126  2.9418
15396SOL     OW53302   0.754  10.852   9.635  0.3737 -0.3115  0.0676
15396SOL    HW153303   0.831  10.897   9.600 -0.0218 -0.6131 -1.2752
15396SOL    HW253304   0.764  10.762   9.604 -0.8259 -0.2089 -0.6746
15397SOL     OW53305  12.767   3.901  10.164  0.4574 -0.0872 -0.1109
15397SOL    HW153306  12.838   3.853  10.206  0.9047 -1.2984 -2.0854
15397SOL    HW253307  12.689   3.879  10.216  1.5187  1.7573  2.4528
15398SOL     OW53308   3.339   8.060   3.791  0.3297 -0.0469 -0.1948
15398SOL    HW153309   3.286   8.116   3.847  0.0053 -0.6124  0.0781
15398SOL    HW253310   3.372   7.992   3.850 -0.0536 -0.6790 -0.6932
15399SOL     OW53311   5.077   5.033   0.765 -0.1185 -0.0787  0.4258
15399SOL    HW153312   5.012   5.092   0.805  0.5564  1.5942 -0.8268
15399SOL    HW253313   5.039   5.009   0.681  0.2878 -0.1942  0.2759
15400SOL     OW53314   0.929   0.695   4.716  0.2830 -0.0608 -0.3722
15400SOL    HW153315   0.852   0.729   4.762 -0.4635  0.1842 -1.7513
15400SOL    HW253316   0.898   0.618   4.669  0.8827  0.0158 -0.9158
15401SOL     OW53317   0.232   0.591   1.256  0.3733 -0.1066  0.1707
15401SOL    HW153318   0.298   0.645   1.301 -0.9841  1.0195  0.8837
15401SOL    HW253319   0.205   0.644   1.181  0.8285 -0.9114 -0.5814
15402SOL     OW53320  10.453   9.489  12.589  0.3814  0.1746  0.7297
15402SOL    HW153321  10.428   9.482  12.681  1.2788  2.9777  1.3031
15402SOL    HW253322  10.397   9.558  12.553  1.2041  0.3357 -0.3248
15403SOL     OW53323  12.721   5.206   4.266  0.2737  0.3526  0.3041
15403SOL    HW153324  12.767   5.259   4.200 -0.8685 -1.1117 -1.8007
15403SOL    HW253325  12.769   5.123   4.267 -0.5514 -0.1412  0.2352
15404SOL     OW53326   5.756   0.106   5.407 -0.1770 -0.4851 -0.4934
15404SOL    HW153327   5.829   0.162   5.382 -2.3775  3.3477  0.8167
15404SOL    HW253328   5.769   0.087   5.500 -0.6969 -0.0301 -0.3247
15405SOL     OW53329   3.746  12.772   7.630 -0.0241 -0.6852 -0.2490
15405SOL    HW153330   3.775  12.805   7.716  1.4151 -0.8519 -0.6366
15405SOL    HW253331   3.683  12.704   7.651 -0.4662 -0.0259  0.6534
15406SOL     OW53332   6.925   9.427   0.504  0.5224  0.0530  0.4339
15406SOL    HW153333   6.980   9.450   0.579 -1.9183  0.4841  2.2066
15406SOL    HW253334   6.919   9.508   0.453  1.4218  0.0109  0.2255
15407SOL     OW53335   9.309   6.073   3.629  0.3092  0.1108  0.2022
15407SOL    HW153336   9.303   6.028   3.713  0.5004 -1.8157 -0.7693
15407SOL    HW253337   9.341   6.006   3.568 -1.6406  0.9070 -1.8074
15408SOL     OW53338   2.502   9.324  10.660  0.7678 -0.2406  0.0553
15408SOL    HW153339   2.428   9.299  10.605 -0.5995  1.9972  0.7671
15408SOL    HW253340   2.551   9.388  10.607  0.6891  0.2646  0.5809
15409SOL     OW53341   6.322   9.339  12.632 -0.1745  0.2214 -0.1706
15409SOL    HW153342   6.348   9.265  12.688  0.8598  0.6387 -0.0822
15409SOL    HW253343   6.301   9.298  12.547  1.2328 -0.0993 -0.3878
15410SOL     OW53344   9.818   6.483  10.381 -0.2519  0.5485 -0.4303
15410SOL    HW153345   9.886   6.418  10.399  0.5696  1.4749 -0.1243
15410SOL    HW253346   9.821   6.494  10.286 -0.5737 -0.0482 -0.5132
15411SOL     OW53347   5.529   2.078  10.303  0.1804 -0.2320  0.3214
15411SOL    HW153348   5.619   2.111  10.296 -0.0247  0.3635  0.3840
15411SOL    HW253349   5.475   2.152  10.276 -0.4663  0.6968  3.6485
15412SOL     OW53350  11.433   7.676   7.416  0.1380 -0.0500  0.1281
15412SOL    HW153351  11.425   7.656   7.323  0.8996 -0.7158  0.1870
15412SOL    HW253352  11.362   7.737   7.434  0.7515  1.1295 -1.1786
15413SOL     OW53353   7.344   6.032   6.505 -0.3559  0.6907  0.3501
15413SOL    HW153354   7.252   6.038   6.532 -0.3479 -2.6040  1.5314
15413SOL    HW253355   7.342   5.993   6.418 -0.0963 -0.7341  0.9571
15414SOL     OW53356   2.675   6.236   1.855 -0.5443 -0.0971 -0.0199
15414SOL    HW153357   2.748   6.298   1.852 -0.8554  0.3245  0.7542
15414SOL    HW253358   2.701   6.173   1.922  0.4474 -1.7145 -1.8230
15415SOL     OW53359   6.289   6.100   6.300  0.1339 -0.5473  0.6082
15415SOL    HW153360   6.200   6.074   6.322  0.2170 -0.9393  0.4738
15415SOL    HW253361   6.293   6.193   6.325 -0.1509 -0.6632  1.0945
15416SOL     OW53362   5.425   1.498   2.420  0.9737  0.5816  0.2947
15416SOL    HW153363   5.373   1.539   2.489  0.8231  0.2259  0.3950
15416SOL    HW253364   5.390   1.534   2.338  0.8727  0.6851  0.3826
15417SOL     OW53365  10.554  12.928   7.885 -0.2472  0.6313 -0.0295
15417SOL    HW153366  10.643  12.898   7.871 -0.0461  1.8715 -1.8705
15417SOL    HW253367  10.504  12.890   7.812 -1.2954 -0.2507  1.1176
15418SOL     OW53368   0.342   3.017   9.996  0.6647  0.1459 -0.0754
15418SOL    HW153369   0.324   2.961   9.920  0.0815  0.2525 -0.0208
15418SOL    HW253370   0.275   2.992  10.060  0.4090  0.8933 -0.0479
15419SOL     OW53371   6.725  11.960   3.934  0.2770  0.1890  0.6445
15419SOL    HW153372   6.816  11.939   3.911  0.0944  0.1923 -0.0880
15419SOL    HW253373   6.719  12.055   3.920 -0.0163  0.0883  0.0567
15420SOL     OW53374   6.937   2.713   8.273  0.5844 -0.5707 -0.1957
15420SOL    HW153375   7.024   2.684   8.246 -0.8698 -1.9678 -4.0710
15420SOL    HW253376   6.904   2.643   8.329  0.7035 -1.8115 -1.6201
15421SOL     OW53377   3.408   4.195   5.007  0.3944 -0.5070 -0.1865
15421SOL    HW153378   3.433   4.246   4.930  0.2515  0.1067  0.1614
15421SOL    HW253379   3.326   4.151   4.982  0.2570 -0.1730 -0.3294
15422SOL     OW53380   6.225   0.514  11.016 -0.0840 -0.1595  0.1681
15422SOL    HW153381   6.255   0.534  11.105  0.1295 -0.5160  0.1813
15422SOL    HW253382   6.305   0.488  10.970 -0.2005 -0.0009 -0.1179
15423SOL     OW53383  12.707  11.188   0.359  0.0457  0.1987  0.0850
15423SOL    HW153384  12.720  11.109   0.411  0.6231  0.1615 -0.1086
15423SOL    HW253385  12.612  11.201   0.358 -0.1093 -0.8550 -0.4040
15424SOL     OW53386   1.172   2.393   3.562 -0.1375 -0.1476 -0.0250
15424SOL    HW153387   1.241   2.342   3.604  0.0035 -0.1667 -0.2811
15424SOL    HW253388   1.218   2.454   3.506 -0.3288 -0.1395 -0.1735
15425SOL     OW53389   8.122   1.440   0.033 -0.4626 -0.5469 -0.0609
15425SOL    HW153390   8.162   1.495   0.099  0.0638 -0.8276 -0.1445
15425SOL    HW253391   8.165   1.355   0.042 -1.6627 -1.1309  0.4529
15426SOL     OW53392  12.278   0.882   5.554 -0.1645 -0.7068 -0.2305
15426SOL    HW153393  12.345   0.822   5.522  1.9090  1.5984 -0.4294
15426SOL    HW253394  12.228   0.906   5.475 -0.0237 -0.9612 -0.4011
15427SOL     OW53395   5.741   1.785   5.505  0.3393 -0.5745  0.3811
15427SOL    HW153396   5.692   1.811   5.427 -0.9030 -0.9785  0.9936
15427SOL    HW253397   5.761   1.693   5.491 -1.3511 -1.1210  1.2187
15428SOL     OW53398   7.139   6.815   1.432  0.2583  0.2125  0.5317
15428SOL    HW153399   7.217   6.814   1.377  1.4777  1.3606  2.1678
15428SOL    HW253400   7.086   6.742   1.400  0.9719  0.7091 -2.0226
15429SOL     OW53401   5.992   9.520   2.300 -0.7910 -0.0656 -0.1208
15429SOL    HW153402   6.062   9.522   2.364 -0.6078 -0.0021 -0.3204
15429SOL    HW253403   5.978   9.612   2.276  0.1043 -0.1911 -1.2051
15430SOL     OW53404   2.807   6.373   9.566  0.3603 -0.0951  0.0408
15430SOL    HW153405   2.749   6.365   9.642  0.7872  2.1337  0.6948
15430SOL    HW253406   2.858   6.293   9.566 -0.0179 -0.3756  1.8133
15431SOL     OW53407  11.008   8.392   0.496  0.6007  0.1416  0.2679
15431SOL    HW153408  11.070   8.443   0.444 -0.3951  0.2644 -0.8471
15431SOL    HW253409  10.977   8.324   0.436  0.0477 -0.2303  0.9666
15432SOL     OW53410   6.323   7.055   3.145 -0.2495 -0.1547  0.5357
15432SOL    HW153411   6.384   7.037   3.217  0.7491  0.0096 -0.2343
15432SOL    HW253412   6.325   6.976   3.092  0.1013  0.2278 -0.0398
15433SOL     OW53413  11.406   6.434   7.773 -0.4355  0.1726  0.0564
15433SOL    HW153414  11.354   6.405   7.698  0.2575  0.1590 -0.4387
15433SOL    HW253415  11.495   6.406   7.751 -0.2469  0.0518  0.9525
15434SOL     OW53416   8.794   2.447   9.513  0.9757 -0.7079 -0.1040
15434SOL    HW153417   8.762   2.435   9.424  2.8910  1.1934 -1.1161
15434SOL    HW253418   8.757   2.530   9.541  0.2005 -1.3978  1.0157
15435SOL     OW53419   0.637   7.490   4.365  0.0657 -0.1388  0.9783
15435SOL    HW153420   0.567   7.431   4.393  0.1653 -0.9093 -0.3436
15435SOL    HW253421   0.618   7.509   4.273  1.7356 -0.5909  0.5033
15436SOL     OW53422   2.067   0.783  11.806  0.3975  0.9510  0.2572
15436SOL    HW153423   2.103   0.869  11.787 -0.3447  1.1801 -0.1727
15436SOL    HW253424   2.110   0.724  11.744 -1.0007  1.4653 -1.2702
15437SOL     OW53425   7.527   1.220   7.944  0.2782  0.6832  0.2154
15437SOL    HW153426   7.432   1.227   7.947  0.2870  0.5259  2.2380
15437SOL    HW253427   7.546   1.136   7.987  1.2942  0.0801 -1.3110
15438SOL     OW53428   8.786   2.997   4.917  0.2416 -0.5887  0.1612
15438SOL    HW153429   8.866   3.046   4.898  0.3187 -0.3422  1.1077
15438SOL    HW253430   8.795   2.915   4.868  0.4336  0.0224 -0.8651
15439SOL     OW53431   3.745   1.481  12.362  0.1162  0.3793 -0.5287
15439SOL    HW153432   3.740   1.407  12.423  0.3142 -0.2732 -1.2783
15439SOL    HW253433   3.693   1.550  12.403 -2.0553 -0.9610 -0.9012
15440SOL     OW53434   6.624   1.019   9.842  0.0597  0.2660 -0.1190
15440SOL    HW153435   6.576   0.998   9.762 -0.6985 -0.0594  0.4049
15440SOL    HW253436   6.671   1.100   9.821 -1.7251  1.3301 -0.2696
15441SOL     OW53437   1.755   6.453  10.142 -0.2172  0.8070  0.4469
15441SOL    HW153438   1.730   6.535  10.101  2.3884  0.5632 -1.9781
15441SOL    HW253439   1.834   6.425  10.094  1.6849 -0.8346  4.0944
15442SOL     OW53440   5.654   4.798   5.686 -0.0721 -0.2398  0.5747
15442SOL    HW153441   5.580   4.840   5.642  0.6167  0.5845  0.1957
15442SOL    HW253442   5.629   4.706   5.690 -0.4235 -0.2519 -1.0113
15443SOL     OW53443   4.271   2.165   3.175 -0.1584  0.1025 -0.6215
15443SOL    HW153444   4.305   2.138   3.089 -0.5253 -2.6591  0.0039
15443SOL    HW253445   4.187   2.119   3.183 -0.7265  1.3091  0.7247
15444SOL     OW53446   4.831  10.112   3.056 -0.1675  0.3231 -0.4292
15444SOL    HW153447   4.892  10.174   3.095  0.7907 -0.1512 -1.1532
15444SOL    HW253448   4.744  10.146   3.079  0.3558  0.7511  1.0052
15445SOL     OW53449   6.245   2.812  11.367 -0.3176  0.3107  0.2832
15445SOL    HW153450   6.187   2.883  11.339 -1.2158 -0.3616  0.3953
15445SOL    HW253451   6.230   2.743  11.303  0.4771  0.1782  0.2333
15446SOL     OW53452  12.418  11.784   1.204 -0.0147  0.1206 -0.0390
15446SOL    HW153453  12.375  11.710   1.161  1.8504 -1.2635  0.3286
15446SOL    HW253454  12.480  11.817   1.138  1.1656 -0.4873  0.7299
15447SOL     OW53455   9.526   2.009  11.787 -0.0728 -0.0050 -0.6257
15447SOL    HW153456   9.570   2.017  11.872  1.9258  0.6915 -1.6422
15447SOL    HW253457   9.558   1.927  11.751 -3.4649 -2.0335  0.5625
15448SOL     OW53458   2.977   3.140  10.766 -0.3310 -0.0504  0.3774
15448SOL    HW153459   2.960   3.065  10.709 -0.5597  0.5861 -0.4180
15448SOL    HW253460   3.061   3.120  10.807  0.0265 -0.3711 -0.4775
15449SOL     OW53461   1.295   1.728   9.428  0.4199 -0.0952 -0.1948
15449SOL    HW153462   1.360   1.702   9.363  1.9270 -0.6263  1.4395
15449SOL    HW253463   1.295   1.823   9.425  0.6962 -0.1074 -0.7432
15450SOL     OW53464   9.636   5.746  11.158 -0.3138  0.3425  0.5053
15450SOL    HW153465   9.628   5.652  11.172 -0.5737  0.4317  0.9707
15450SOL    HW253466   9.589   5.762  11.076 -0.5809  0.1234  0.6139
15451SOL     OW53467   6.120   0.356   3.691  0.4909  0.3629  0.0711
15451SOL    HW153468   6.059   0.387   3.624 -1.4778  3.2561  2.9023
15451SOL    HW253469   6.174   0.432   3.712  2.1695 -0.9407  0.7002
15452SOL     OW53470   5.630   6.524   6.301 -0.7801 -0.1179  0.1010
15452SOL    HW153471   5.623   6.430   6.313 -0.3423 -0.1312  0.2903
15452SOL    HW253472   5.639   6.559   6.390 -1.3626  0.1405  0.0601
15453SOL     OW53473   1.961   5.168   6.482  0.3250  0.6917 -0.0829
15453SOL    HW153474   2.052   5.138   6.490 -0.7153 -2.8238  0.3426
15453SOL    HW253475   1.957   5.211   6.397  2.7255  2.6371  0.6640
15454SOL     OW53476   1.057   4.598  10.041 -0.5634  0.4582  0.2767
15454SOL    HW153477   1.123   4.664  10.062 -0.1932  0.3770 -0.5897
15454SOL    HW253478   1.107   4.517  10.031 -0.3986  0.8118 -2.7158
15455SOL     OW53479   8.211   7.135   4.978  0.3756  0.6893  0.7732
15455SOL    HW153480   8.262   7.068   5.023  2.0500  1.4166  0.0448
15455SOL    HW253481   8.147   7.164   5.043  1.2823  0.1715  1.9376
15456SOL     OW53482   6.017   4.359   5.541 -0.4112 -0.3988 -0.0755
15456SOL    HW153483   6.047   4.418   5.472 -0.7340 -1.8545 -1.5558
15456SOL    HW253484   6.095   4.309   5.566 -0.5854 -0.9072 -0.5082
15457SOL     OW53485  11.524   4.883   6.425 -0.1957 -0.2551 -0.0563
15457SOL    HW153486  11.497   4.949   6.362 -0.1145  0.6434  0.8243
15457SOL    HW253487  11.526   4.801   6.375 -2.1577  0.0589 -0.7376
15458SOL     OW53488  10.673   5.249   6.191  0.4599  0.0686 -0.5270
15458SOL    HW153489  10.710   5.197   6.262  0.6285  2.0540  0.9313
15458SOL    HW253490  10.605   5.302   6.234 -1.1174 -0.3944 -2.3272
15459SOL     OW53491   7.897   5.123   4.184  0.5274 -0.0898 -0.4152
15459SOL    HW153492   7.866   5.033   4.184  1.5714 -0.5199 -2.6815
15459SOL    HW253493   7.819   5.176   4.200 -0.3564 -1.3406 -0.4829
15460SOL     OW53494   8.496   3.468  11.035 -0.2490  0.0964  0.3077
15460SOL    HW153495   8.472   3.428  10.952  0.6897 -0.0694  0.1096
15460SOL    HW253496   8.563   3.533  11.013  1.2592 -1.1166  1.1100
15461SOL     OW53497   6.432   0.166   5.613  0.4463 -0.1270 -0.5018
15461SOL    HW153498   6.426   0.199   5.703  0.9000  1.8434 -1.1252
15461SOL    HW253499   6.434   0.071   5.622 -0.9505 -0.0325  1.4684
15462SOL     OW53500   0.391   8.767   7.316  0.4498 -0.1314 -0.1910
15462SOL    HW153501   0.434   8.800   7.237  1.0904  0.6130  0.4535
15462SOL    HW253502   0.310   8.726   7.284  0.3084  0.8647 -1.1563
15463SOL     OW53503   6.094   6.565   7.655  0.3502 -0.1880 -0.2153
15463SOL    HW153504   6.110   6.479   7.694  0.4913 -0.1825 -0.2579
15463SOL    HW253505   6.028   6.549   7.589 -1.9337  0.2573  1.8139
15464SOL     OW53506   7.936   2.968   2.785 -0.7151 -0.2434  0.1861
15464SOL    HW153507   7.880   3.006   2.717 -0.8685 -0.2511  0.3092
15464SOL    HW253508   8.018   2.947   2.739 -1.0176 -0.7666 -0.1267
15465SOL     OW53509  11.693   2.068   6.012  0.2161  0.4198  0.3582
15465SOL    HW153510  11.740   2.142   5.974  0.5467 -0.5100 -1.1463
15465SOL    HW253511  11.691   2.086   6.106  0.0238  2.4609  0.0090
15466SOL     OW53512   9.884   8.060  10.811  0.2429 -0.3083 -0.0459
15466SOL    HW153513   9.938   7.981  10.804  0.3267 -0.2252 -0.3938
15466SOL    HW253514   9.927   8.113  10.877 -1.0326 -1.4985  1.8164
15467SOL     OW53515  11.794   4.959   1.787 -0.7605  0.5262  0.1326
15467SOL    HW153516  11.817   5.003   1.869 -2.4705  2.4826 -0.3488
15467SOL    HW253517  11.730   4.892   1.813 -0.0478 -0.0026  0.5655
15468SOL     OW53518   3.196  11.829   3.560  0.0159  0.3369 -0.1136
15468SOL    HW153519   3.112  11.867   3.585 -0.0664 -0.4346  0.7897
15468SOL    HW253520   3.175  11.741   3.530  0.3748  0.5307 -0.9829
15469SOL     OW53521   2.330   9.051   5.025  0.0516  0.1966 -0.1368
15469SOL    HW153522   2.380   9.131   5.008  0.2948  0.1528  0.3424
15469SOL    HW253523   2.355   8.991   4.955 -1.9130  1.3028 -1.9385
15470SOL     OW53524   1.977   1.350  12.523  0.2001 -0.2660 -0.2896
15470SOL    HW153525   2.020   1.389  12.446  1.6521  0.8657  1.0344
15470SOL    HW253526   1.890   1.326  12.491  1.1407 -0.9523 -2.6066
15471SOL     OW53527   3.003  10.000   1.488 -0.3769 -0.0111 -0.1284
15471SOL    HW153528   3.047   9.943   1.426  1.3692  0.3349  0.7239
15471SOL    HW253529   3.071  10.060   1.518 -1.4699  0.6362  1.1738
15472SOL     OW53530   9.402  11.287   0.897 -0.0178 -0.2784  0.1160
15472SOL    HW153531   9.372  11.363   0.946 -1.3316 -0.2425 -0.7073
15472SOL    HW253532   9.354  11.213   0.935 -1.2176 -0.2199 -1.2318
15473SOL     OW53533   1.909   7.013   4.128 -0.0382 -0.8332 -0.2904
15473SOL    HW153534   1.915   6.937   4.186  0.4352  0.3222  1.2319
15473SOL    HW253535   1.988   7.008   4.074 -0.0442 -1.4582 -0.2529
15474SOL     OW53536   8.861   1.801  11.856 -0.0932  0.5092  0.1629
15474SOL    HW153537   8.862   1.817  11.761  1.3829  0.6922  0.1955
15474SOL    HW253538   8.932   1.854  11.891 -0.7270  0.5785  1.4145
15475SOL     OW53539   7.211   4.881   2.317 -0.0463 -0.3200  0.0479
15475SOL    HW153540   7.186   4.965   2.355 -1.8226 -0.5656 -0.5141
15475SOL    HW253541   7.260   4.903   2.238 -1.0498  0.2072 -0.4392
15476SOL     OW53542   6.383   3.240  10.379  0.0850  0.6332  0.1889
15476SOL    HW153543   6.469   3.270  10.349  0.7034 -1.9601 -0.8941
15476SOL    HW253544   6.381   3.263  10.472  2.5772 -0.3836  0.5771
15477SOL     OW53545   9.001   6.812   7.372 -0.3744 -0.2027  0.0726
15477SOL    HW153546   9.043   6.754   7.309 -1.4722 -0.3158 -0.5723
15477SOL    HW253547   9.045   6.793   7.455 -0.2616 -1.4712 -0.2611
15478SOL     OW53548   5.259   1.778   3.127  0.1744 -0.0524 -0.3492
15478SOL    HW153549   5.282   1.870   3.137 -0.5988 -0.1244  3.8182
15478SOL    HW253550   5.163   1.778   3.121  0.1031 -0.5543  0.5277
15479SOL     OW53551   9.197  11.023   2.332  0.6474 -0.6662 -0.1442
15479SOL    HW153552   9.225  11.049   2.245 -0.0631 -0.7302 -0.3997
15479SOL    HW253553   9.187  10.928   2.326  0.8663 -0.7060  0.0893
15480SOL     OW53554   0.171   0.968   0.704  0.3962 -0.3540  0.3704
15480SOL    HW153555   0.248   0.912   0.711  0.3130 -0.3520  1.5020
15480SOL    HW253556   0.192   1.046   0.756 -0.6637 -0.7353  1.4482
15481SOL     OW53557   5.425   1.262  10.767 -1.0388 -0.3993  0.3376
15481SOL    HW153558   5.477   1.341  10.746 -1.5313 -0.1757 -0.0470
15481SOL    HW253559   5.455   1.237  10.855  2.2437 -2.2978 -1.1425
15482SOL     OW53560   3.560   3.979   6.311  0.2774 -0.2432 -0.1403
15482SOL    HW153561   3.484   3.988   6.367 -0.2022 -0.6603 -0.7104
15482SOL    HW253562   3.568   4.063   6.266  1.8857  0.8512  2.0126
15483SOL     OW53563  10.833   3.101  11.697 -0.2286 -0.4629 -0.4295
15483SOL    HW153564  10.885   3.021  11.698  0.9546  0.2950  0.3963
15483SOL    HW253565  10.857   3.144  11.615  0.7401  0.0565  0.1144
15484SOL     OW53566   5.723   3.368   0.253 -0.1233 -0.0978  0.0407
15484SOL    HW153567   5.770   3.451   0.245  0.9245 -0.5136  1.5708
15484SOL    HW253568   5.650   3.386   0.312 -0.7624  0.0692 -0.7823
15485SOL     OW53569   7.850   6.187   3.356  0.2190  0.4328  0.6360
15485SOL    HW153570   7.838   6.180   3.451  0.4158 -1.9447  0.5311
15485SOL    HW253571   7.764   6.166   3.319  0.1933  1.1620  0.2459
15486SOL     OW53572   2.935   2.712   2.479  0.4365 -0.2356 -0.2937
15486SOL    HW153573   3.025   2.692   2.504  0.7327  1.5090  0.1711
15486SOL    HW253574   2.892   2.735   2.562 -0.4630 -1.0889 -0.5059
15487SOL     OW53575   6.232  10.568   4.591  0.5330  0.4177  0.9071
15487SOL    HW153576   6.299  10.558   4.659 -0.9784 -0.9724  2.2791
15487SOL    HW253577   6.175  10.638   4.623 -0.1788 -0.2352  1.0984
15488SOL     OW53578  10.165  10.138  11.330 -0.6290 -0.3953  0.1813
15488SOL    HW153579  10.190  10.141  11.237 -0.4732  0.9720  0.2411
15488SOL    HW253580  10.237  10.183  11.375 -0.2321 -1.8766  1.1058
15489SOL     OW53581  10.626   8.275  12.613  0.1195  0.3670  0.0579
15489SOL    HW153582  10.681   8.312  12.544  0.9083 -0.7056  0.1027
15489SOL    HW253583  10.687   8.253  12.683 -0.7009  1.6855  1.2300
15490SOL     OW53584  11.865  12.560   4.221 -0.3101 -0.0152  0.1085
15490SOL    HW153585  11.937  12.524   4.169 -1.9914 -1.4928 -1.3274
15490SOL    HW253586  11.846  12.644   4.180  0.5423  0.3698  0.4741
15491SOL     OW53587   9.980   0.644   6.263  0.5570  0.0347 -0.1425
15491SOL    HW153588   9.960   0.686   6.347  1.2366  0.2405 -0.0817
15491SOL    HW253589  10.035   0.707   6.216  1.2329 -0.5949 -0.2231
15492SOL     OW53590   8.442   0.947   4.826 -0.4318 -0.8845 -0.2498
15492SOL    HW153591   8.431   0.917   4.916 -0.8339 -2.2177 -0.7055
15492SOL    HW253592   8.404   0.876   4.773  0.1650 -0.3182 -1.4782
15493SOL     OW53593  11.357   0.888   9.698  0.2031 -0.2181 -0.0646
15493SOL    HW153594  11.282   0.889   9.757  1.1587  2.6054  1.2815
15493SOL    HW253595  11.333   0.949   9.628 -0.1224 -2.0386 -1.6062
15494SOL     OW53596  10.633   1.280   4.066  0.5509 -0.5248 -0.2115
15494SOL    HW153597  10.627   1.298   4.160 -2.3830  0.3832 -0.4635
15494SOL    HW253598  10.659   1.364   4.027  2.2365 -1.0216 -0.2195
15495SOL     OW53599   0.951   9.899   1.265  0.4440  0.0926  0.2985
15495SOL    HW153600   0.892   9.829   1.295 -1.0621  0.7841 -0.8897
15495SOL    HW253601   0.914   9.926   1.181  1.1780  2.0873  0.5663
15496SOL     OW53602  12.036   4.469  11.300 -0.0638  0.4960 -0.5192
15496SOL    HW153603  12.049   4.412  11.376  1.2261  0.7748 -0.5171
15496SOL    HW253604  12.019   4.555  11.337 -2.3279  0.1204 -0.5148
15497SOL     OW53605  11.647  10.763  10.703  0.5928 -0.2345  0.4329
15497SOL    HW153606  11.664  10.669  10.714 -0.3924 -0.3887  0.7708
15497SOL    HW253607  11.599  10.769  10.621  0.8290  0.0025  0.3115
15498SOL     OW53608  12.931  12.629   3.238  0.1566 -0.0591 -0.6415
15498SOL    HW153609  12.864  12.691   3.266  0.6954  1.1008 -1.8296
15498SOL    HW253610  12.956  12.582   3.318 -0.4378  1.0875  0.2331
15499SOL     OW53611   9.288  12.966   1.822 -0.2579 -0.2614  0.4492
15499SOL    HW153612   9.340  12.887   1.810  2.2584  1.0799  1.8391
15499SOL    HW253613   9.348  13.029   1.862 -2.4856  1.9938  0.4862
15500SOL     OW53614   9.558  10.148   4.102  0.2217 -0.1692 -0.3396
15500SOL    HW153615   9.586  10.061   4.131  0.3926 -0.0544 -0.1626
15500SOL    HW253616   9.522  10.189   4.180  0.2863 -0.0230 -0.3864
15501SOL     OW53617   6.223   9.081   3.012  0.8640 -0.5437  0.4594
15501SOL    HW153618   6.280   9.022   2.964 -0.2396 -3.3365  2.3202
15501SOL    HW253619   6.264   9.167   3.003  2.4864 -1.5131 -2.5059
15502SOL     OW53620   4.992   4.982   1.604  0.3388 -0.3643 -0.1890
15502SOL    HW153621   5.039   4.917   1.551  0.0384  0.0718 -1.0054
15502SOL    HW253622   4.900   4.968   1.581 -0.0901 -1.8375  2.0689
15503SOL     OW53623  10.778   0.150   9.929  0.0901 -0.3066 -0.1347
15503SOL    HW153624  10.867   0.181   9.946 -0.3105  1.0312 -0.3561
15503SOL    HW253625  10.780   0.121   9.838 -0.0964  1.3053 -0.6816
15504SOL     OW53626   8.371   1.554   5.500  0.0002 -0.0357  0.5272
15504SOL    HW153627   8.411   1.508   5.426  0.4428 -0.5269  1.0532
15504SOL    HW253628   8.289   1.587   5.466  0.0220 -0.5758 -0.0864
15505SOL     OW53629   2.602   3.631  10.020  0.0972  0.2644 -0.6232
15505SOL    HW153630   2.533   3.627   9.955  0.2643  0.5255 -0.8201
15505SOL    HW253631   2.569   3.580  10.094  0.4882 -1.2551 -1.4481
15506SOL     OW53632   6.451   4.896  11.254 -0.1026  0.2204 -0.2873
15506SOL    HW153633   6.356   4.889  11.253  0.0207 -2.5270 -0.3199
15506SOL    HW253634   6.480   4.840  11.182  1.5961 -1.9999  1.9470
15507SOL     OW53635   1.153   5.209   1.452  0.6449 -0.8628  0.2845
15507SOL    HW153636   1.227   5.253   1.494  1.4680  0.4729 -2.3374
15507SOL    HW253637   1.192   5.134   1.407  0.2966 -0.6593 -0.3849
15508SOL     OW53638   3.696   7.086   2.283 -0.3787  0.0533 -0.3539
15508SOL    HW153639   3.698   7.019   2.216 -0.8002 -1.2398  0.8719
15508SOL    HW253640   3.776   7.137   2.269  1.2006 -2.1380  0.0651
15509SOL     OW53641   6.609  10.030   8.512  0.4752  0.3136  0.0648
15509SOL    HW153642   6.651  10.088   8.449  0.1167  0.6622  0.1444
15509SOL    HW253643   6.638  10.063   8.597  1.4085 -0.4941  0.0870
15510SOL     OW53644  11.316   7.432   3.065 -0.4110 -0.2404  0.0789
15510SOL    HW153645  11.277   7.495   3.004 -1.6049 -1.2066 -0.2023
15510SOL    HW253646  11.339   7.357   3.010  2.2338  0.4013  0.1779
15511SOL     OW53647   3.201   8.832   9.342 -0.0662 -0.0766 -0.0726
15511SOL    HW153648   3.198   8.908   9.284  0.6153 -1.0818 -1.4865
15511SOL    HW253649   3.294   8.807   9.343 -0.5686 -2.2495 -1.5095
15512SOL     OW53650   4.159   5.140   9.261  0.2359 -1.0741 -0.0252
15512SOL    HW153651   4.222   5.210   9.245 -0.0786 -0.3181  1.7992
15512SOL    HW253652   4.140   5.104   9.175  0.4376  1.0618 -1.0038
15513SOL     OW53653   9.976   8.224   2.075  0.2741  0.3213  0.6264
15513SOL    HW153654   9.906   8.288   2.063  1.9242  1.8092 -2.1045
15513SOL    HW253655  10.053   8.276   2.097  1.2419 -0.9247  0.3429
15514SOL     OW53656  12.395   9.823  11.387  0.8787 -0.2538  0.6722
15514SOL    HW153657  12.343   9.768  11.329  1.5774 -0.1037 -0.1169
15514SOL    HW253658  12.438   9.761  11.446  1.2878 -0.5345  0.0941
15515SOL     OW53659  12.116   7.361   7.854 -0.1035 -0.2279  0.0396
15515SOL    HW153660  12.112   7.432   7.917 -0.9842 -0.3363  0.1186
15515SOL    HW253661  12.066   7.290   7.894 -0.2204 -0.4834 -0.5398
15516SOL     OW53662   0.985   9.093   9.269 -0.6363 -0.6516 -0.5948
15516SOL    HW153663   1.053   9.156   9.293 -0.1921 -0.6632 -1.7373
15516SOL    HW253664   1.002   9.016   9.323  0.5745 -0.8396 -1.2154
15517SOL     OW53665   6.171   9.991   6.408  0.0534  0.2409  0.1231
15517SOL    HW153666   6.103  10.056   6.391 -0.8447 -0.3886  1.1964
15517SOL    HW253667   6.165   9.973   6.502  2.1228  0.6124  0.3868
15518SOL     OW53668   8.850   8.767   8.195  0.1059 -0.0480  0.2529
15518SOL    HW153669   8.945   8.763   8.190  0.0345 -1.5700 -0.6638
15518SOL    HW253670   8.821   8.681   8.164 -1.5480  0.1183  1.2010
15519SOL     OW53671   2.150   6.369   5.179  0.0072 -0.6269  0.1011
15519SOL    HW153672   2.135   6.299   5.116  0.5395  0.4919 -1.3127
15519SOL    HW253673   2.229   6.343   5.226  0.2126 -0.9609 -0.4243
15520SOL     OW53674   8.975   7.959   4.788 -0.0066  0.2326 -0.1938
15520SOL    HW153675   8.918   7.907   4.844 -0.9750  0.4500 -0.9702
15520SOL    HW253676   8.916   8.015   4.738  0.9814  1.9996  0.5083
15521SOL     OW53677   3.009   5.736   9.807  0.1743  0.1378 -0.4515
15521SOL    HW153678   3.022   5.821   9.765 -0.9463 -0.2445 -1.6295
15521SOL    HW253679   3.026   5.752   9.900  2.8318  0.9918 -1.0043
15522SOL     OW53680   2.112   2.083   9.688  0.3152  0.3153 -0.1578
15522SOL    HW153681   2.137   2.015   9.625  0.6698 -0.4919  0.8265
15522SOL    HW253682   2.085   2.157   9.633 -0.8361 -0.8750 -1.2600
15523SOL     OW53683   5.133   6.338   3.657 -0.7427  0.8512  0.0489
15523SOL    HW153684   5.072   6.411   3.651 -0.7513  0.8349 -0.0558
15523SOL    HW253685   5.102   6.275   3.593  0.2610  1.4741 -1.0817
15524SOL     OW53686   5.724   1.997  12.682  0.0586  0.0742  0.6720
15524SOL    HW153687   5.689   1.968  12.598 -0.5972  0.1877  0.8983
15524SOL    HW253688   5.759   1.917  12.723 -0.3540 -0.1225  0.6407
15525SOL     OW53689   0.861   5.708   4.073 -0.3307  0.3020 -0.1604
15525SOL    HW153690   0.847   5.641   4.007 -0.1698 -0.8750  0.9478
15525SOL    HW253691   0.791   5.772   4.058 -0.6545 -0.2478 -1.0664
15526SOL     OW53692   5.633   8.561  11.004  0.1583 -0.0628  0.6633
15526SOL    HW153693   5.558   8.614  10.975  0.0638  0.3886  1.6916
15526SOL    HW253694   5.663   8.604  11.084 -0.0191 -1.6547  1.6202
15527SOL     OW53695  11.332  11.731   3.378  0.6252 -0.1483 -0.7070
15527SOL    HW153696  11.428  11.722   3.372  0.4722 -1.0425 -2.9453
15527SOL    HW253697  11.312  11.806   3.322  0.0408  0.4861  0.3176
15528SOL     OW53698  11.181   3.067   5.535  0.2114  0.0318 -0.2742
15528SOL    HW153699  11.267   3.027   5.549 -0.0015 -1.7492 -3.1156
15528SOL    HW253700  11.122   3.015   5.589  0.8254  0.9424  1.3077
15529SOL     OW53701   6.858   2.452   9.174  0.1940  0.6306  0.3782
15529SOL    HW153702   6.766   2.446   9.199  0.0466  1.7836  0.1786
15529SOL    HW253703   6.856   2.493   9.087  0.8228 -0.9047 -0.3961
15530SOL     OW53704   8.723   8.397   5.022  0.6490  0.6408 -0.5987
15530SOL    HW153705   8.721   8.306   5.050  0.9887  0.9254  0.4282
15530SOL    HW253706   8.731   8.394   4.927 -0.2158 -0.3940 -0.6580
15531SOL     OW53707   9.881  11.063   7.079  0.3357  0.1373 -0.3908
15531SOL    HW153708   9.868  11.114   7.160 -0.4790  1.3601 -1.2650
15531SOL    HW253709   9.800  11.014   7.068  0.1846  0.4722 -0.7981
15532SOL     OW53710   6.396   9.582   4.161  0.2927  0.0359  0.3848
15532SOL    HW153711   6.370   9.658   4.212  2.5698  1.1490  0.0004
15532SOL    HW253712   6.367   9.601   4.072 -0.4665 -0.2647  0.5566
15533SOL     OW53713  10.968   0.001   1.228  0.1282 -0.3566 -0.7037
15533SOL    HW153714  10.897  -0.045   1.273 -0.1810 -0.9104 -1.7255
15533SOL    HW253715  10.982  -0.050   1.148  0.8448  0.4562 -1.1065
15534SOL     OW53716   1.019   0.090  10.998 -0.0289  0.2343 -0.8102
15534SOL    HW153717   0.984   0.169  10.957  1.6691  0.8403 -1.1502
15534SOL    HW253718   0.942   0.034  11.012 -1.7206  2.9103  1.7184
15535SOL     OW53719   1.190   3.295   9.125  1.1643  0.1730  0.3571
15535SOL    HW153720   1.202   3.217   9.180 -1.3674 -1.0599 -0.6932
15535SOL    HW253721   1.097   3.313   9.129  1.2505  1.4246 -1.7545
15536SOL     OW53722   2.889   4.363   9.529  0.0578 -0.4242  0.5302
15536SOL    HW153723   2.980   4.380   9.508 -0.4095  0.1469 -1.2115
15536SOL    HW253724   2.888   4.345   9.623  1.9274 -0.3309  0.5882
15537SOL     OW53725   3.190   3.728   3.644  0.0170  0.2646  0.1100
15537SOL    HW153726   3.137   3.800   3.679 -1.0267 -0.1401 -0.6155
15537SOL    HW253727   3.242   3.769   3.575  0.6645  0.6568  0.8073
15538SOL     OW53728   1.509   8.598   7.539 -0.8348 -0.1167 -0.0005
15538SOL    HW153729   1.414   8.599   7.522 -0.8221 -0.0875 -0.0678
15538SOL    HW253730   1.547   8.650   7.468 -0.7090 -0.6583 -0.3327
15539SOL     OW53731  10.166   3.083   8.266 -0.0137 -0.0619 -0.0247
15539SOL    HW153732  10.125   3.140   8.201 -1.7662 -1.5500 -0.3124
15539SOL    HW253733  10.098   3.070   8.333  0.2080 -1.9775 -0.1102
15540SOL     OW53734   3.580   7.876   8.014 -0.3918 -0.5193  0.2488
15540SOL    HW153735   3.656   7.820   8.028 -0.6676 -0.6907  1.1137
15540SOL    HW253736   3.577   7.932   8.091 -1.2279 -0.6252  0.3032
15541SOL     OW53737   1.158   7.321   7.427  0.1345 -0.3070  0.9545
15541SOL    HW153738   1.086   7.305   7.365 -0.2110 -0.3061  1.3480
15541SOL    HW253739   1.213   7.387   7.385  1.1276 -1.8829 -0.3457
15542SOL     OW53740   7.070  10.905   0.524  0.2165  0.0658 -0.1154
15542SOL    HW153741   7.074  10.981   0.582 -0.8166 -0.0906  0.1652
15542SOL    HW253742   6.977  10.891   0.509  0.4374 -0.5278 -0.9874
15543SOL     OW53743   4.542   5.537   5.345  0.2147 -0.6936 -0.1808
15543SOL    HW153744   4.517   5.451   5.378 -0.3460 -0.5556 -0.2335
15543SOL    HW253745   4.483   5.552   5.270 -1.2252  0.6805  1.1572
15544SOL     OW53746   7.597   6.799   1.540  0.3890 -0.2422  0.5490
15544SOL    HW153747   7.544   6.851   1.601 -1.2340  0.3443 -1.2304
15544SOL    HW253748   7.687   6.813   1.569 -0.2120  1.1136  1.9614
15545SOL     OW53749  10.730  12.087   7.221 -0.0267  0.4135  0.5994
15545SOL    HW153750  10.637  12.088   7.199 -0.2621 -1.5572  1.3576
15545SOL    HW253751  10.762  12.172   7.190 -1.6045  0.2902 -1.6684
15546SOL     OW53752  12.104   3.453   9.225  0.5620  0.0669  0.3445
15546SOL    HW153753  12.140   3.365   9.211 -1.2081 -0.7444  0.6662
15546SOL    HW253754  12.158   3.510   9.170  2.4116 -1.0440  0.9060
15547SOL     OW53755   5.397   8.025   9.647 -0.4084 -0.3891 -0.6662
15547SOL    HW153756   5.370   8.038   9.556 -1.1518  0.0800 -0.3902
15547SOL    HW253757   5.318   7.996   9.692 -0.3042  0.3433  0.0248
15548SOL     OW53758   2.330  11.666  10.064  0.4226 -0.2620 -0.0066
15548SOL    HW153759   2.264  11.668   9.994  1.8710 -1.8193 -1.5177
15548SOL    HW253760   2.354  11.758  10.077 -0.1070  0.0929 -1.3728
15549SOL     OW53761   3.749   4.762   5.200 -0.8503 -0.2843 -0.0560
15549SOL    HW153762   3.783   4.707   5.129 -1.4163 -1.4514  0.5434
15549SOL    HW253763   3.704   4.834   5.155 -1.4417 -1.1512 -0.9082
15550SOL     OW53764  12.368   9.288   0.695  0.1486  0.1335 -0.5696
15550SOL    HW153765  12.415   9.355   0.744  1.4466 -0.6567 -0.6761
15550SOL    HW253766  12.288   9.273   0.745  1.7277 -1.1259  1.7843
15551SOL     OW53767   5.756   7.258  10.150  0.6030  0.2276 -0.7455
15551SOL    HW153768   5.692   7.317  10.110  1.4702  1.4069 -0.4167
15551SOL    HW253769   5.704   7.208  10.213 -0.3825 -0.2651 -1.8836
15552SOL     OW53770   2.698   4.360   6.702  0.4842  0.3371 -0.4696
15552SOL    HW153771   2.665   4.397   6.784  1.2618 -0.5807  0.2816
15552SOL    HW253772   2.620   4.344   6.649 -0.0470  0.6561  0.2097
15553SOL     OW53773   1.988   1.631  12.775  0.5826 -0.1132 -0.3468
15553SOL    HW153774   1.934   1.706  12.748 -0.1112 -0.2118  0.7080
15553SOL    HW253775   2.025   1.597  12.693 -1.1471 -0.1861 -1.1390
15554SOL     OW53776   4.062   4.786   8.612  0.5967  0.5677  0.3651
15554SOL    HW153777   4.007   4.711   8.589  2.3613 -0.8602  0.5247
15554SOL    HW253778   4.040   4.853   8.548 -0.4512 -0.3663 -0.2989
15555SOL     OW53779   0.313   4.839  10.813 -0.5086 -0.1047 -0.3226
15555SOL    HW153780   0.248   4.780  10.774 -1.8990  1.4195 -0.4745
15555SOL    HW253781   0.336   4.899  10.741  1.3621 -0.8074 -0.3630
15556SOL     OW53782   7.765   8.900   7.151 -0.1388 -0.1154  0.5674
15556SOL    HW153783   7.854   8.867   7.168 -0.0355 -0.6211 -0.8533
15556SOL    HW253784   7.778   8.989   7.120 -0.3149  0.7216  2.6879
15557SOL     OW53785   0.794   5.789   4.370  0.5544  0.8367  0.3479
15557SOL    HW153786   0.755   5.824   4.290  0.2589  1.5159  0.7839
15557SOL    HW253787   0.888   5.804   4.359  0.8622 -1.5637 -1.0797
15558SOL     OW53788   3.433   5.896   3.962 -0.3027  0.2006  0.1448
15558SOL    HW153789   3.445   5.904   3.868  0.6495 -1.9666  0.0154
15558SOL    HW253790   3.350   5.850   3.972  0.9505 -2.2378  0.1513
15559SOL     OW53791   9.518  12.581   1.040  0.0974  0.1441  0.3214
15559SOL    HW153792   9.470  12.594   1.122  0.1441  1.1805  0.1917
15559SOL    HW253793   9.511  12.487   1.023 -1.3416  0.1692  0.6399
15560SOL     OW53794   3.342   8.441   0.978  0.2080  0.0822 -0.5489
15560SOL    HW153795   3.352   8.451   0.884 -0.9267  2.1616 -0.5101
15560SOL    HW253796   3.425   8.472   1.015  1.4221 -2.5698 -0.8652
15561SOL     OW53797   2.210   7.306   8.703 -0.0043 -0.2535  0.2987
15561SOL    HW153798   2.194   7.261   8.786 -1.2469 -0.7246 -0.1782
15561SOL    HW253799   2.178   7.395   8.717  0.4140 -0.1344  0.5278
15562SOL     OW53800   1.684   3.164   3.564 -0.1951 -0.2349 -0.7024
15562SOL    HW153801   1.704   3.249   3.602 -2.1560 -0.1633  0.2809
15562SOL    HW253802   1.707   3.101   3.632  0.3909 -0.4601 -1.0910
15563SOL     OW53803  11.299   9.996   2.106 -0.5789  0.3737 -0.5280
15563SOL    HW153804  11.266  10.083   2.130 -0.1324 -0.1738  2.5283
15563SOL    HW253805  11.394  10.001   2.119 -0.6650 -0.8303  0.9998
15564SOL     OW53806   7.138   9.480  10.579 -0.1992  0.5502  0.0862
15564SOL    HW153807   7.085   9.548  10.537 -0.8372  0.5233  0.8171
15564SOL    HW253808   7.129   9.498  10.673 -0.2084 -0.4276  0.2800
15565SOL     OW53809   7.845   5.855   9.123  0.4137  0.3185  0.2545
15565SOL    HW153810   7.939   5.850   9.104  0.3113  0.4635 -0.2935
15565SOL    HW253811   7.826   5.949   9.125  0.0732  0.2840 -0.6906
15566SOL     OW53812   6.083   6.261   2.962  0.2027  0.3043  0.2408
15566SOL    HW153813   6.075   6.228   3.052 -1.7243  1.0414  0.3853
15566SOL    HW253814   6.057   6.353   2.968 -0.5956  0.1959 -1.1585
15567SOL     OW53815   8.516  12.402  11.476 -0.0247 -0.0965 -0.0748
15567SOL    HW153816   8.612  12.411  11.472 -0.0414  0.0078 -0.2532
15567SOL    HW253817   8.502  12.333  11.540  0.2493 -1.5682 -1.5444
15568SOL     OW53818  11.635  12.866   7.410  0.5204 -0.0407 -0.6314
15568SOL    HW153819  11.592  12.807   7.348  1.4130 -1.2953 -0.0995
15568SOL    HW253820  11.625  12.953   7.371  0.8414 -0.7556 -2.4162
15569SOL     OW53821   7.436   6.532  10.323  0.0943  0.0866  0.4442
15569SOL    HW153822   7.425   6.459  10.385  0.3252  0.6754  1.1869
15569SOL    HW253823   7.489   6.596  10.370 -0.2492  0.8166 -0.1373
15570SOL     OW53824  11.571   0.477   4.380 -0.2162 -0.5414  0.0668
15570SOL    HW153825  11.528   0.547   4.429 -1.6502 -1.6490  0.4545
15570SOL    HW253826  11.643   0.449   4.437 -2.4325 -2.4872  2.1723
15571SOL     OW53827   1.557   2.234   8.249 -0.2088 -0.1723  0.1059
15571SOL    HW153828   1.566   2.313   8.302 -0.4344  0.7081 -1.1333
15571SOL    HW253829   1.643   2.222   8.210 -0.7229  0.6904 -1.3606
15572SOL     OW53830   8.099   0.635  11.823  0.1832  0.7600 -0.2704
15572SOL    HW153831   8.171   0.577  11.799  0.6258  0.7360  1.0356
15572SOL    HW253832   8.139   0.702  11.879 -0.4187  2.0029 -1.2718
15573SOL     OW53833   9.627   6.149  10.296 -0.1461 -0.2793 -0.3806
15573SOL    HW153834   9.587   6.206  10.361 -0.8292 -1.1266 -0.0370
15573SOL    HW253835   9.720   6.169  10.300 -0.2816  0.2526  0.2761
15574SOL     OW53836  10.591   2.640   6.058 -1.0596 -0.1372 -0.1151
15574SOL    HW153837  10.662   2.579   6.040 -2.3441 -1.4524 -1.0100
15574SOL    HW253838  10.519   2.584   6.087 -2.7237  0.7578 -2.2394
15575SOL     OW53839  10.667   5.885   5.601 -0.1049 -0.7625 -0.0044
15575SOL    HW153840  10.674   5.868   5.507  1.0646  0.6107 -0.2023
15575SOL    HW253841  10.718   5.815   5.642  0.9687 -0.3031 -0.5225
15576SOL     OW53842   4.204   1.657   8.601  0.5742 -0.2047  0.2953
15576SOL    HW153843   4.157   1.598   8.660 -1.0168 -0.4311 -1.1190
15576SOL    HW253844   4.170   1.636   8.514  1.5424  1.3364 -0.4977
15577SOL     OW53845   5.343   1.828   2.738  0.0560  0.1214 -0.1099
15577SOL    HW153846   5.341   1.898   2.803  0.1151  0.1741 -0.1656
15577SOL    HW253847   5.411   1.853   2.677  0.7112 -0.4347  0.3749
15578SOL     OW53848   9.636  12.575   1.413  0.0450 -0.2547  0.2587
15578SOL    HW153849   9.674  12.493   1.382 -0.4889 -0.0914 -0.8615
15578SOL    HW253850   9.712  12.630   1.434  0.4158 -0.4736 -0.4999
15579SOL     OW53851  12.342  12.672   5.048 -0.5884 -0.2547 -0.4403
15579SOL    HW153852  12.287  12.749   5.030  0.3963  0.6041  0.0870
15579SOL    HW253853  12.371  12.684   5.138 -0.5260 -1.3294 -0.3107
15580SOL     OW53854   8.991   4.199   9.771  0.5473  0.5876 -0.0360
15580SOL    HW153855   8.975   4.163   9.858  1.4368 -2.7547 -1.1003
15580SOL    HW253856   8.944   4.282   9.770 -1.7833 -0.5353  2.7056
15581SOL     OW53857   2.281  12.252   1.622  0.2048 -0.3669 -0.1509
15581SOL    HW153858   2.209  12.227   1.681  0.5944 -2.2259 -0.3854
15581SOL    HW253859   2.237  12.287   1.544 -0.4525 -1.0518 -0.1017
15582SOL     OW53860  12.650  10.214   3.000  0.8059  0.1674  0.7300
15582SOL    HW153861  12.605  10.230   2.917 -0.2996 -0.4118  1.2061
15582SOL    HW253862  12.708  10.140   2.983 -0.4948 -0.9107  0.8349
15583SOL     OW53863  11.063   6.932   3.013  0.4640 -0.1972  0.4560
15583SOL    HW153864  11.104   6.925   3.099  3.6317  0.0971 -0.8758
15583SOL    HW253865  11.091   7.018   2.980  0.6510 -0.9310 -1.4300
15584SOL     OW53866   4.291  12.490   7.862  0.3496  0.2412  0.3645
15584SOL    HW153867   4.246  12.574   7.854  0.7568  0.6018  1.5624
15584SOL    HW253868   4.230  12.426   7.826 -0.3532  0.9331  0.2910
15585SOL     OW53869   8.580   9.925   0.297 -0.1735 -0.5320 -0.7704
15585SOL    HW153870   8.649   9.871   0.256  1.4295  0.6865  0.2010
15585SOL    HW253871   8.578   9.895   0.388  0.4418  0.6990 -0.3239
15586SOL     OW53872  12.397   5.551   6.738 -0.2285 -0.1452 -0.3081
15586SOL    HW153873  12.466   5.586   6.681 -0.5855  0.0277 -0.6344
15586SOL    HW253874  12.434   5.557   6.826  0.0645  0.2173 -0.4521
15587SOL     OW53875   9.724   3.834   1.117  0.2202  0.0509 -0.1216
15587SOL    HW153876   9.718   3.891   1.194  3.0790 -0.3046  0.5017
15587SOL    HW253877   9.643   3.784   1.118 -0.1055  0.4638  2.3735
15588SOL     OW53878   3.188   1.279   2.016  0.5579 -0.1693 -0.3303
15588SOL    HW153879   3.127   1.319   1.955  0.6480 -0.0500 -0.3428
15588SOL    HW253880   3.198   1.343   2.087  0.9205 -0.0462 -0.4907
15589SOL     OW53881   9.747   8.665   9.043  0.1599  0.6274  0.3603
15589SOL    HW153882   9.693   8.714   9.106 -0.5177 -0.4893  0.6838
15589SOL    HW253883   9.825   8.718   9.033 -0.6550  1.9047  0.4934
15590SOL     OW53884   7.374   8.829   0.843 -0.0942  0.1469 -0.3793
15590SOL    HW153885   7.452   8.881   0.862 -0.9184  1.4695 -0.4784
15590SOL    HW253886   7.407   8.743   0.819  1.3225  0.6346 -0.2308
15591SOL     OW53887   2.904   2.350   6.678  0.1417  0.5501 -0.0302
15591SOL    HW153888   2.841   2.385   6.615 -1.7949 -2.2959  0.1550
15591SOL    HW253889   2.894   2.407   6.755 -1.4469  0.8280 -0.4025
15592SOL     OW53890   3.695   3.073   5.193 -0.4979 -0.5238  0.0762
15592SOL    HW153891   3.631   3.025   5.245  0.5127 -1.7546  0.2311
15592SOL    HW253892   3.779   3.031   5.214  0.2349  0.4439 -0.8210
15593SOL     OW53893  11.114   2.350  12.455  0.1317 -0.1143 -0.1517
15593SOL    HW153894  11.020   2.336  12.468  0.2342  1.0853  2.4909
15593SOL    HW253895  11.148   2.263  12.432 -1.5575 -0.6314 -0.8076
15594SOL     OW53896   0.342  12.556   2.377  0.2949 -0.3450 -0.8493
15594SOL    HW153897   0.266  12.614   2.373  0.1024 -0.5897 -0.7574
15594SOL    HW253898   0.392  12.586   2.453  0.3933 -0.0606 -1.0247
15595SOL     OW53899   4.480   2.626   9.123 -0.4156 -0.8285 -0.2382
15595SOL    HW153900   4.486   2.531   9.118 -0.8743 -0.8302 -1.1500
15595SOL    HW253901   4.412   2.642   9.189 -0.6315 -1.1493 -0.3764
15596SOL     OW53902   1.295   2.029  10.962 -0.5162 -0.2762 -0.0293
15596SOL    HW153903   1.384   2.023  10.925  0.0024  1.0091  0.9454
15596SOL    HW253904   1.273   2.121  10.955 -0.8308 -0.1692  1.8494
15597SOL     OW53905  12.808  12.491  11.783 -0.4639 -0.0512 -0.1779
15597SOL    HW153906  12.725  12.445  11.771 -0.8360  0.0897  1.5382
15597SOL    HW253907  12.783  12.578  11.813  0.3022  0.0187  0.2797
15598SOL     OW53908   2.384   5.638   7.896 -0.2000  0.2100  0.2991
15598SOL    HW153909   2.467   5.632   7.848 -0.2404  0.4042  0.1996
15598SOL    HW253910   2.369   5.733   7.904  0.4796  0.2040  1.8802
15599SOL     OW53911   1.284   4.308   6.687 -0.1979  0.6208 -0.2784
15599SOL    HW153912   1.311   4.258   6.764  1.2913 -0.6253 -1.5438
15599SOL    HW253913   1.204   4.265   6.658  0.6737 -0.6251 -0.9252
15600SOL     OW53914   7.357   9.300   8.133 -0.3013 -0.3574 -0.4886
15600SOL    HW153915   7.441   9.343   8.145  0.5854 -1.1113 -3.1973
15600SOL    HW253916   7.294   9.371   8.124  0.1946  0.2282  0.5300
15601SOL     OW53917   8.088   4.453   5.957  0.6659  0.5806 -0.0523
15601SOL    HW153918   8.135   4.418   6.033 -0.1776 -0.9557 -0.2105
15601SOL    HW253919   8.114   4.397   5.884  0.9324  1.6186 -0.7709
15602SOL     OW53920   2.175   8.938   1.260  0.0623  0.0952 -0.6774
15602SOL    HW153921   2.247   8.878   1.275 -0.0535 -0.0155 -0.5586
15602SOL    HW253922   2.120   8.929   1.338 -0.1053  0.1417 -0.7898
15603SOL     OW53923   9.651  12.787   7.140 -0.1045  0.1494  0.0210
15603SOL    HW153924   9.591  12.723   7.179 -0.0197  0.7464  1.1781
15603SOL    HW253925   9.719  12.799   7.206  0.4180  0.6851 -0.6044
15604SOL     OW53926   0.089  12.093   1.028 -0.1394 -0.3166 -0.2100
15604SOL    HW153927   0.043  12.177   1.023  0.5026  0.0841  0.5429
15604SOL    HW253928   0.043  12.037   0.965 -0.4160  0.6680 -0.9071
15605SOL     OW53929   4.484   2.839   2.029  0.0245  0.4086  0.0386
15605SOL    HW153930   4.496   2.933   2.016 -0.1485  0.5472  0.8164
15605SOL    HW253931   4.392   2.829   2.054  0.0762  0.0516  0.0965
15606SOL     OW53932   1.201   1.908  12.825 -0.3143 -0.3036  0.5156
15606SOL    HW153933   1.109   1.928  12.808 -0.8788 -1.6354  1.7961
15606SOL    HW253934   1.205   1.813  12.822  1.8719 -0.2939 -3.4952
15607SOL     OW53935   1.214  12.483   0.386 -0.0205  0.0659  0.3844
15607SOL    HW153936   1.295  12.525   0.357  0.3632 -0.3357  0.8600
15607SOL    HW253937   1.145  12.536   0.347  0.4702 -0.0124 -0.6464
15608SOL     OW53938   6.715   9.294   7.235 -0.0158  0.4839  0.2601
15608SOL    HW153939   6.718   9.385   7.267  0.4616  0.4989  0.1706
15608SOL    HW253940   6.628   9.263   7.260 -2.0060  2.3477 -3.4383
15609SOL     OW53941  11.752   2.445   1.339 -0.2445 -0.3732 -0.6015
15609SOL    HW153942  11.657   2.446   1.351 -0.1644 -0.8277  0.1501
15609SOL    HW253943  11.785   2.408   1.420  0.6211  0.3931 -0.5917
15610SOL     OW53944   0.137   8.074   8.306 -0.2306 -0.6413 -0.0081
15610SOL    HW153945   0.151   8.072   8.401 -1.6131 -0.0911  0.2373
15610SOL    HW253946   0.131   8.168   8.286  0.0001 -0.7600 -0.6323
15611SOL     OW53947   6.711  10.696  11.821 -0.1172 -0.1654 -0.4182
15611SOL    HW153948   6.677  10.646  11.895  1.5568  2.4408  2.3334
15611SOL    HW253949   6.770  10.635  11.776 -0.6121 -1.6226  0.8071
15612SOL     OW53950  12.881   3.496   8.783 -0.2944 -0.5018 -0.2344
15612SOL    HW153951  12.796   3.469   8.747 -1.2300 -0.1361  1.5360
15612SOL    HW253952  12.858   3.557   8.854  1.4526 -0.4332  0.3212
15613SOL     OW53953  10.063   6.632   2.088  0.1339  0.0400 -0.4841
15613SOL    HW153954   9.983   6.626   2.139  0.5943  0.2020  0.2797
15613SOL    HW253955  10.084   6.542   2.064  0.1794 -0.0886  0.0379
15614SOL     OW53956   6.635   4.225   8.720 -0.0765  0.1136  0.1385
15614SOL    HW153957   6.704   4.209   8.784  0.8682  1.1191 -0.5894
15614SOL    HW253958   6.554   4.204   8.767  0.5097  1.6959  1.9914
15615SOL     OW53959   6.219  12.906   2.611  0.2530  0.0048  0.3739
15615SOL    HW153960   6.266  12.972   2.561  0.4166 -0.0309  0.4795
15615SOL    HW253961   6.235  12.929   2.703  1.6310 -1.0946  0.4413
15616SOL     OW53962   9.307   0.644   7.773  0.1945  0.0184 -0.2780
15616SOL    HW153963   9.379   0.639   7.710  1.5974 -0.6126  1.2903
15616SOL    HW253964   9.267   0.558   7.772 -1.8554  0.9056 -2.5340
15617SOL     OW53965   7.839   0.374   2.994  0.2324 -0.1128 -0.6906
15617SOL    HW153966   7.807   0.451   2.948 -1.6912  0.7003  1.7942
15617SOL    HW253967   7.798   0.300   2.949  0.1827  0.4687 -1.6220
15618SOL     OW53968  10.460   1.464   0.753  0.9142 -0.3497 -0.0569
15618SOL    HW153969  10.540   1.412   0.744  0.6793 -0.4006 -2.8169
15618SOL    HW253970  10.399   1.406   0.798  1.8887 -0.9321  0.5650
15619SOL     OW53971  10.867   2.830   6.215  0.0483 -0.2183  0.2000
15619SOL    HW153972  10.794   2.845   6.155  0.9583 -0.8050 -1.1034
15619SOL    HW253973  10.831   2.771   6.281 -0.3915 -1.4486 -1.0652
15620SOL     OW53974   4.699   2.100  12.376  0.6182 -0.0361  0.1556
15620SOL    HW153975   4.734   2.156  12.307 -0.1359 -0.5473 -0.6441
15620SOL    HW253976   4.769   2.036  12.392  0.9293  0.2881  0.1200
15621SOL     OW53977   3.292   1.286   0.558  0.0565 -0.3501 -0.0562
15621SOL    HW153978   3.374   1.251   0.521 -0.5504 -0.8524 -0.9806
15621SOL    HW253979   3.245   1.208   0.587  0.5215  0.0401  1.8447
15622SOL     OW53980   7.564   2.854   6.938  0.0095  0.0229 -0.0053
15622SOL    HW153981   7.541   2.869   6.847 -0.5137 -0.0911  0.1088
15622SOL    HW253982   7.493   2.894   6.988  0.7240  0.8576  0.3760
15623SOL     OW53983   1.339   2.113  11.505 -0.6378 -0.3075  0.2565
15623SOL    HW153984   1.397   2.050  11.547 -1.2175 -2.1822 -1.6192
15623SOL    HW253985   1.259   2.065  11.487 -2.6612  2.0719  2.2333
15624SOL     OW53986   5.084   7.629   6.843 -0.0403  0.2125 -0.4039
15624SOL    HW153987   5.080   7.548   6.791  1.4213  0.8405 -1.5503
15624SOL    HW253988   4.995   7.664   6.838 -0.6068 -1.1138 -0.2084
15625SOL     OW53989   2.002   6.665   2.508  0.1568 -0.0484 -0.1815
15625SOL    HW153990   2.087   6.621   2.508  0.3903  0.2318  2.4790
15625SOL    HW253991   2.009   6.729   2.436  1.3484 -1.4669 -1.4012
15626SOL     OW53992   7.455  12.702  12.701 -0.5419  0.0950 -0.2489
15626SOL    HW153993   7.530  12.730  12.753 -1.4631  0.2323  1.0607
15626SOL    HW253994   7.491  12.683  12.615  1.3942 -1.9056  0.8981
15627SOL     OW53995   6.073   5.581  11.200  0.4053 -0.0576  0.3999
15627SOL    HW153996   6.109   5.570  11.112  0.9914  0.8407  0.5216
15627SOL    HW253997   6.121   5.519  11.254  0.6169 -0.0285  0.2448
15628SOL     OW53998   2.710  11.143  12.300 -0.1112  0.2953  0.0217
15628SOL    HW153999   2.658  11.168  12.376 -1.0619 -1.8818  0.1624
15628SOL    HW254000   2.647  11.136  12.229  0.3049 -0.4771 -0.2740
15629SOL     OW54001   6.791   9.966   2.325  0.6343 -0.3358 -0.6545
15629SOL    HW154002   6.784   9.972   2.421  1.2129 -0.7615 -0.5824
15629SOL    HW254003   6.739  10.040   2.293  0.6825 -0.0086 -0.0057
15630SOL     OW54004   3.497   4.777   6.539  0.1036  0.1676 -0.5676
15630SOL    HW154005   3.563   4.710   6.526 -0.3504 -0.8483  1.8616
15630SOL    HW254006   3.445   4.776   6.459  1.1840 -1.1327 -1.2763
15631SOL     OW54007   7.572  10.716   9.266  0.6373  0.1932  0.5289
15631SOL    HW154008   7.560  10.786   9.330  1.3937  0.8825 -0.0601
15631SOL    HW254009   7.539  10.637   9.309  2.6575  0.3194  2.4249
15632SOL     OW54010   2.499   8.332   5.327 -0.5012  0.2696 -0.1906
15632SOL    HW154011   2.577   8.373   5.366  0.4203 -0.6034 -1.0418
15632SOL    HW254012   2.522   8.239   5.323 -1.1862  0.1413 -1.3900
15633SOL     OW54013   1.239   4.055  11.624  0.0061  0.1064 -0.1423
15633SOL    HW154014   1.150   4.077  11.599  0.4699  0.2541 -1.8044
15633SOL    HW254015   1.250   4.092  11.711 -1.8240 -0.7030  0.4697
15634SOL     OW54016   6.914  12.744  10.373  0.0479 -0.0348 -0.0701
15634SOL    HW154017   6.834  12.795  10.379  0.0696 -0.0804  0.6937
15634SOL    HW254018   6.897  12.666  10.426  0.9621  0.4489  0.9748
15635SOL     OW54019   4.461   0.969   1.106 -0.0169  0.1806  0.2515
15635SOL    HW154020   4.537   0.912   1.121  0.2710  0.7236  0.8865
15635SOL    HW254021   4.388   0.908   1.097 -0.3209 -0.2877  4.2121
15636SOL     OW54022   0.592   1.855   3.760  0.1618  0.5153  0.2425
15636SOL    HW154023   0.555   1.785   3.815 -0.3517  0.2952 -0.3627
15636SOL    HW254024   0.516   1.889   3.712  0.4723  1.2593  0.2798
15637SOL     OW54025   6.159  12.348   3.432 -0.0455 -0.2994 -0.0980
15637SOL    HW154026   6.120  12.261   3.426 -0.1191 -0.2614 -0.1758
15637SOL    HW254027   6.249  12.332   3.461  0.6265 -0.5830 -2.1508
15638SOL     OW54028   6.091  10.336   8.137  0.1929  0.4525  0.3096
15638SOL    HW154029   6.165  10.299   8.185  0.1309 -2.0596 -1.3214
15638SOL    HW254030   6.129  10.367   8.055 -0.1169  2.1166  0.7740
15639SOL     OW54031   6.285   8.197   2.532 -0.3227  0.0352  0.6678
15639SOL    HW154032   6.203   8.147   2.538 -0.3354 -0.1373 -0.6366
15639SOL    HW254033   6.258   8.282   2.497  0.1742 -0.4223 -0.9093
15640SOL     OW54034  12.300   2.921   4.701 -0.2210 -0.0081  0.1344
15640SOL    HW154035  12.270   2.990   4.760  0.1878  0.0060  0.3302
15640SOL    HW254036  12.390   2.945   4.679  0.7104 -1.5428  1.9062
15641SOL     OW54037   8.970   6.920   4.459  0.1654 -0.0574  0.5354
15641SOL    HW154038   8.963   6.839   4.407  3.0965  0.2322 -0.5033
15641SOL    HW254039   8.889   6.967   4.440  0.2069 -0.8872 -2.2869
15642SOL     OW54040  12.468   9.027   7.486  0.2321  0.4179  0.1341
15642SOL    HW154041  12.547   9.015   7.432  0.0256 -2.0851  0.2756
15642SOL    HW254042  12.405   9.067   7.426  0.2753 -1.5461 -1.3074
15643SOL     OW54043   3.031   2.545   2.275 -0.0943  0.5344 -0.0804
15643SOL    HW154044   2.963   2.502   2.222  0.6217  1.3095 -1.6865
15643SOL    HW254045   2.981   2.599   2.336 -0.9494  0.5556 -0.7639
15644SOL     OW54046   2.661  12.757   8.952  0.4577  0.3084  0.0860
15644SOL    HW154047   2.728  12.690   8.936 -0.2820 -0.5559  0.5504
15644SOL    HW254048   2.702  12.816   9.016  1.0139  0.1643 -0.1269
15645SOL     OW54049   6.496   6.123   4.757 -0.1181  0.3838 -0.2361
15645SOL    HW154050   6.505   6.028   4.756 -2.2255  0.1471 -0.6073
15645SOL    HW254051   6.417   6.139   4.808  1.3021  2.0886  1.5724
15646SOL     OW54052  10.139   8.448   9.683  0.1810 -0.1829 -0.0321
15646SOL    HW154053  10.113   8.393   9.758  1.0657 -1.2115 -0.4423
15646SOL    HW254054  10.198   8.392   9.633  1.1727  1.1964 -0.4429
15647SOL     OW54055   2.209   6.611  11.927  0.0128  0.2168  0.0634
15647SOL    HW154056   2.173   6.558  11.998 -1.6903  0.8897 -0.2595
15647SOL    HW254057   2.138   6.670  11.903  0.9364  0.7498 -1.4628
15648SOL     OW54058  12.115   5.443  10.705  0.0475  0.5902  0.5131
15648SOL    HW154059  12.156   5.363  10.672 -0.5479 -0.2948  1.8089
15648SOL    HW254060  12.187   5.494  10.742  0.5145  0.9392 -0.8370
15649SOL     OW54061   9.073   5.698   9.013  0.1086  0.5990  0.5472
15649SOL    HW154062   8.996   5.701   9.070  1.0410 -0.7349  1.9607
15649SOL    HW254063   9.038   5.685   8.925 -1.3164  1.3914  0.9717
15650SOL     OW54064   0.292   9.711   3.818 -0.2729  0.2975  0.2288
15650SOL    HW154065   0.374   9.692   3.773 -0.0467  1.2892  0.1872
15650SOL    HW254066   0.264   9.795   3.781 -1.4842 -0.1804 -0.0019
15651SOL     OW54067   1.725   4.787   4.616 -0.3653 -0.1752 -0.1871
15651SOL    HW154068   1.708   4.752   4.529 -1.6298  0.8939 -0.4091
15651SOL    HW254069   1.638   4.795   4.656  0.0818  0.6106  0.6732
15652SOL     OW54070   7.444   6.163   0.085 -0.0590 -0.2554 -0.4245
15652SOL    HW154071   7.394   6.119   0.016 -0.9016  0.3974 -0.2589
15652SOL    HW254072   7.493   6.093   0.128  0.4183 -0.6790 -1.6301
15653SOL     OW54073   8.725   6.943   3.144  0.1731 -0.3265  0.0911
15653SOL    HW154074   8.641   6.949   3.188  0.0288 -0.7356 -0.1263
15653SOL    HW254075   8.787   6.986   3.203 -0.4378  1.3586 -0.4132
15654SOL     OW54076  11.362   8.601   9.954  0.1283 -0.0889 -0.1237
15654SOL    HW154077  11.402   8.597   9.867 -0.1742 -0.0169 -0.2681
15654SOL    HW254078  11.339   8.694   9.965  4.5599  1.0569  2.0257
15655SOL     OW54079  12.114   3.445   8.704  0.7900 -0.2962 -0.5430
15655SOL    HW154080  12.125   3.367   8.650  1.0713 -0.6036 -0.0472
15655SOL    HW254081  12.200   3.462   8.741  0.2886 -1.0225  1.0579
15656SOL     OW54082  12.569   4.319   1.667 -0.0574 -0.4164  0.0328
15656SOL    HW154083  12.604   4.399   1.706 -0.3752 -0.0030 -0.5179
15656SOL    HW254084  12.610   4.248   1.716  2.7566 -0.0076 -1.5143
15657SOL     OW54085   7.802   9.725   4.644  0.0176  0.1881 -0.0040
15657SOL    HW154086   7.746   9.746   4.569 -0.0529 -0.1321 -0.0399
15657SOL    HW254087   7.743   9.725   4.719  0.0325  0.1903  0.0082
15658SOL     OW54088   6.610   3.012   8.414  0.1008 -0.0468 -0.2512
15658SOL    HW154089   6.625   2.960   8.335  0.7734 -0.1485 -0.0573
15658SOL    HW254090   6.634   3.101   8.388 -0.3345  0.0416 -0.3604
15659SOL     OW54091  12.263   2.431   7.699 -0.0817  0.0284 -0.7153
15659SOL    HW154092  12.278   2.342   7.665 -1.4027 -0.1317 -0.9331
15659SOL    HW254093  12.169   2.434   7.715  0.1586  0.9307  0.6391
15660SOL     OW54094   8.604   4.920   5.492  0.4366  0.3164  0.0820
15660SOL    HW154095   8.643   4.833   5.482  1.4167  0.7635 -0.1539
15660SOL    HW254096   8.617   4.942   5.584  2.0229  1.0240 -0.2752
15661SOL     OW54097   7.549   2.387  12.186  0.2462  0.0497 -0.0158
15661SOL    HW154098   7.456   2.381  12.205  0.0884 -1.9699 -1.1417
15661SOL    HW254099   7.553   2.435  12.103  0.1049 -0.6426 -0.4373
15662SOL     OW54100   3.299  12.649   2.929  0.4775 -0.1514  0.1626
15662SOL    HW154101   3.365  12.584   2.954  1.1020  0.0060 -1.0139
15662SOL    HW254102   3.296  12.709   3.003  1.7615 -0.0897  0.1884
15663SOL     OW54103   2.347   4.540  11.074  0.1037 -0.3514 -0.1216
15663SOL    HW154104   2.409   4.607  11.044 -1.3673  1.4633  0.6267
15663SOL    HW254105   2.343   4.552  11.169 -0.3985 -1.3314 -0.0020
15664SOL     OW54106   7.040  11.209   2.370  0.2547  0.0840 -0.4920
15664SOL    HW154107   6.982  11.151   2.419  1.0820 -1.3120 -1.1304
15664SOL    HW254108   7.058  11.163   2.288 -0.2275  1.8949 -1.6760
15665SOL     OW54109   7.958   3.861   3.202 -0.4083 -0.2139  0.4616
15665SOL    HW154110   7.874   3.886   3.241 -0.5700  0.1312 -0.1139
15665SOL    HW254111   7.936   3.791   3.141 -0.3139  0.0642  0.1080
15666SOL     OW54112  12.085   6.476   5.480 -0.4188 -0.8078 -0.4115
15666SOL    HW154113  12.072   6.569   5.465 -1.4289 -0.7411  0.6533
15666SOL    HW254114  12.103   6.439   5.394 -2.2985  0.0312 -1.2105
15667SOL     OW54115   8.344   8.209  12.108  0.7094 -0.6240 -0.2925
15667SOL    HW154116   8.359   8.304  12.106 -0.0293 -0.5075 -2.0629
15667SOL    HW254117   8.420   8.174  12.154  2.1376  0.6586 -1.5686
15668SOL     OW54118   4.545   5.942   5.163  0.1996 -0.5967 -0.3731
15668SOL    HW154119   4.503   6.003   5.103  0.6469  0.3143  0.2111
15668SOL    HW254120   4.634   5.932   5.128  0.4549 -0.0771  0.1130
15669SOL     OW54121   7.369   6.433   9.794  0.4238 -0.4495 -0.0912
15669SOL    HW154122   7.372   6.408   9.886 -2.2625 -0.1650  0.1761
15669SOL    HW254123   7.389   6.353   9.746 -0.4499 -1.2170  0.7724
15670SOL     OW54124   3.595   1.889  11.197  0.0673  0.3762 -0.5161
15670SOL    HW154125   3.524   1.931  11.246 -0.9501 -1.3240 -0.4165
15670SOL    HW254126   3.655   1.858  11.264  0.5961  1.2780 -0.5660
15671SOL     OW54127   9.308  11.321   3.284  0.1250 -0.1110  0.2516
15671SOL    HW154128   9.234  11.261   3.290 -1.0447  1.0113 -1.9234
15671SOL    HW254129   9.360  11.289   3.211 -1.8485  2.6948 -2.6797
15672SOL     OW54130   3.373   8.085  12.699  0.4544 -0.0596 -1.0130
15672SOL    HW154131   3.277   8.093  12.693  0.5042  0.2338 -1.4425
15672SOL    HW254132   3.397   8.031  12.624  0.6274 -0.1363 -0.9028
15673SOL     OW54133  11.615   8.508   3.190  0.2727  0.0683  0.4570
15673SOL    HW154134  11.692   8.465   3.153  0.4156  0.4650  0.2772
15673SOL    HW254135  11.588   8.570   3.122 -0.3698 -0.2557  0.4098
15674SOL     OW54136  12.672   3.120   4.090  0.3611 -0.0744  0.1922
15674SOL    HW154137  12.581   3.123   4.061  0.6200  0.1402 -0.6381
15674SOL    HW254138  12.699   3.029   4.075  0.3339 -0.0951  0.2683
15675SOL     OW54139   5.332   3.570  11.117  0.7626  0.1919 -0.7649
15675SOL    HW154140   5.404   3.515  11.146 -0.3021 -1.1840 -0.6047
15675SOL    HW254141   5.333   3.562  11.021  0.2126 -0.6757 -0.7111
15676SOL     OW54142   5.029   2.674   5.101 -0.0396  0.2259  0.5764
15676SOL    HW154143   5.103   2.628   5.140 -0.8371 -1.7846 -0.1600
15676SOL    HW254144   5.052   2.683   5.009  0.4004  1.9967  0.8199
15677SOL     OW54145  11.323   2.555   6.816  0.2865 -0.5207  0.3026
15677SOL    HW154146  11.352   2.467   6.794  0.9913  0.0465 -1.2108
15677SOL    HW254147  11.241   2.543   6.862 -1.0603 -1.8951 -2.2408
15678SOL     OW54148   2.915   3.425   2.115  0.1375 -1.0247  0.0501
15678SOL    HW154149   3.001   3.405   2.077  0.1595 -0.0525 -0.4272
15678SOL    HW254150   2.867   3.469   2.045 -0.9217 -1.9408  0.1662
15679SOL     OW54151   1.796  12.231   8.060 -0.6659 -0.2894 -0.1770
15679SOL    HW154152   1.830  12.182   7.984 -0.2389 -0.1277 -0.0915
15679SOL    HW254153   1.817  12.175   8.135 -1.0924 -0.4506 -0.1745
15680SOL     OW54154   4.294  12.552   3.502 -0.4356  0.3904  0.2958
15680SOL    HW154155   4.376  12.508   3.481 -0.3526  1.1035 -0.9912
15680SOL    HW254156   4.296  12.633   3.451 -1.8312  0.5418  0.4341
15681SOL     OW54157  10.614   6.830   8.267 -0.2050  0.5109  0.2512
15681SOL    HW154158  10.542   6.837   8.204  0.9317  0.2316 -1.1361
15681SOL    HW254159  10.571   6.830   8.353 -1.9397 -0.6990 -0.5531
15682SOL     OW54160  10.710  10.562   0.387  0.2063  0.0908  0.1550
15682SOL    HW154161  10.647  10.628   0.419 -0.0733 -0.1330  0.0749
15682SOL    HW254162  10.770  10.549   0.460  1.0417  1.3734 -0.2770
15683SOL     OW54163  11.115   5.028  10.519  0.8319  0.5215  0.3003
15683SOL    HW154164  11.184   5.092  10.499  1.0278  0.5198  0.9487
15683SOL    HW254165  11.034   5.079  10.515  0.8160  0.4398 -0.8667
15684SOL     OW54166   7.357  10.720   8.456 -0.4483  0.3826  0.0782
15684SOL    HW154167   7.315  10.639   8.429  0.2769  0.0938 -0.2039
15684SOL    HW254168   7.364  10.712   8.551 -0.1112 -0.0201  0.0221
15685SOL     OW54169   5.118  12.068   7.525  0.7255 -0.0843  0.3752
15685SOL    HW154170   5.107  12.160   7.498  0.4049 -0.4435 -0.7696
15685SOL    HW254171   5.061  12.019   7.467  0.3593 -0.9656  1.4472
15686SOL     OW54172  10.382   3.042   4.021 -0.7094 -0.3637 -0.1993
15686SOL    HW154173  10.367   2.961   4.069 -0.6626 -0.3209 -0.1136
15686SOL    HW254174  10.424   3.101   4.084  1.8613 -1.2037 -1.0114
15687SOL     OW54175   8.086   2.940   6.450 -0.1285  0.0691  0.1286
15687SOL    HW154176   8.008   2.886   6.438  0.6492 -0.8551 -1.1633
15687SOL    HW254177   8.159   2.880   6.431  0.7683  1.6441 -1.8220
15688SOL     OW54178  11.245   4.499   8.573  0.3887 -0.3405 -0.5557
15688SOL    HW154179  11.181   4.444   8.527 -0.8597 -0.4745  1.2553
15688SOL    HW254180  11.308   4.437   8.609 -0.3729 -0.5063  0.5119
15689SOL     OW54181   1.402  10.782   0.797 -0.4110 -0.2165  0.0793
15689SOL    HW154182   1.376  10.834   0.873  0.3055 -2.2884  1.8355
15689SOL    HW254183   1.486  10.821   0.771 -0.9451  0.8914 -0.0646
15690SOL     OW54184   0.514   1.363   0.841 -0.0571  0.8627 -0.4516
15690SOL    HW154185   0.457   1.420   0.790 -1.3286  1.2687  1.3200
15690SOL    HW254186   0.509   1.398   0.930  0.3214 -1.1176  0.3984
15691SOL     OW54187  11.867   2.928   1.777 -0.0667  0.0588  0.0074
15691SOL    HW154188  11.899   2.997   1.718 -0.4667 -0.5552 -0.9554
15691SOL    HW254189  11.778   2.911   1.747  0.5267 -1.9577 -0.8108
15692SOL     OW54190   1.409   8.258  10.872 -0.4659  0.8003 -0.1151
15692SOL    HW154191   1.317   8.284  10.864 -0.5814  0.8075  1.0835
15692SOL    HW254192   1.440   8.252  10.782 -1.8395  0.1083 -0.5663
15693SOL     OW54193   3.213   5.147   5.049 -0.1117 -0.1461 -0.4783
15693SOL    HW154194   3.275   5.197   4.996  0.1612 -1.6013 -1.6093
15693SOL    HW254195   3.129   5.158   5.005 -0.7942  2.0835  1.2305
15694SOL     OW54196   7.886   2.106   0.963  0.2254  0.2061  0.4110
15694SOL    HW154197   7.821   2.083   0.897  0.1143 -0.7213  0.8175
15694SOL    HW254198   7.860   2.055   1.040  0.1041  1.5965  1.3123
15695SOL     OW54199   9.818   1.108  11.951  0.4398  0.8853  1.0675
15695SOL    HW154200   9.869   1.043  11.903  0.8797  0.9771  1.3976
15695SOL    HW254201   9.880   1.180  11.966 -0.1724  1.5958  0.2722
15696SOL     OW54202  12.873  12.936  12.947  0.0007  0.5160  0.1687
15696SOL    HW154203  12.850  12.854  12.991 -0.8136  0.7744  0.2392
15696SOL    HW254204  12.953  12.965  12.991  2.3769 -1.9769 -2.1235
15697SOL     OW54205   7.430  10.328  12.737  0.2148 -0.7115  0.0637
15697SOL    HW154206   7.364  10.302  12.672 -0.0651 -1.7155  0.7447
15697SOL    HW254207   7.380  10.369  12.807  0.2888 -1.7158  0.7045
15698SOL     OW54208   8.955   9.244   3.575  0.4810 -0.2185  0.3630
15698SOL    HW154209   8.990   9.327   3.607  0.0859  0.3541 -0.6513
15698SOL    HW254210   8.913   9.266   3.492  0.4416 -1.4519  0.0377
15699SOL     OW54211   5.192   2.786   2.911  0.0575 -0.2523  0.1468
15699SOL    HW154212   5.157   2.710   2.865 -0.2481  0.6695 -1.1825
15699SOL    HW254213   5.287   2.776   2.907  0.0348 -0.1455 -0.7637
15700SOL     OW54214   7.040   1.157   1.702 -0.3754 -0.4105  0.1196
15700SOL    HW154215   7.041   1.246   1.738 -0.8055 -1.0441  1.8221
15700SOL    HW254216   7.131   1.141   1.675 -0.7132  1.2894 -2.3062
15701SOL     OW54217  10.721   6.747   0.881 -0.4795 -0.3372  0.3452
15701SOL    HW154218  10.727   6.842   0.878 -0.1949 -0.3532  0.3633
15701SOL    HW254219  10.627   6.728   0.873 -0.9441  0.0648  3.4958
15702SOL     OW54220   2.762  12.773  12.865  0.1715 -0.2000 -0.4351
15702SOL    HW154221   2.668  12.756  12.864  0.1092 -0.1772  1.5834
15702SOL    HW254222   2.796  12.718  12.935  1.5176  0.5038 -0.4993
15703SOL     OW54223   1.229   3.989   7.627 -0.1512 -0.6322  0.2861
15703SOL    HW154224   1.221   4.018   7.536  3.4413 -1.0858 -0.3204
15703SOL    HW254225   1.219   3.894   7.622  0.9857 -0.7548  0.1859
15704SOL     OW54226   1.005   5.414  11.855  0.1980 -0.1163  0.3602
15704SOL    HW154227   0.996   5.381  11.766  0.5094  1.8024 -0.4285
15704SOL    HW254228   1.094   5.450  11.858 -0.3873  1.3607  0.8732
15705SOL     OW54229   1.806   0.400   5.146  0.2796 -0.1016 -0.7279
15705SOL    HW154230   1.861   0.368   5.075 -0.1389 -0.8934 -0.7061
15705SOL    HW254231   1.802   0.495   5.133  1.0060 -0.1266 -1.1774
15706SOL     OW54232   0.855   3.809   4.867  0.2178 -0.1891  0.1857
15706SOL    HW154233   0.852   3.803   4.962 -2.0822  0.5006  0.1973
15706SOL    HW254234   0.866   3.902   4.849  0.1214 -0.2579 -0.2316
15707SOL     OW54235   6.829   2.027  12.138  0.2640 -0.2079  0.2723
15707SOL    HW154236   6.797   2.062  12.055  0.0533  0.7397  0.7410
15707SOL    HW254237   6.767   2.060  12.203 -1.1490 -3.0787  0.5570
15708SOL     OW54238   2.769   2.235   3.508 -0.3255  0.3292  0.0477
15708SOL    HW154239   2.703   2.178   3.470  0.0162 -0.0886  0.0792
15708SOL    HW254240   2.848   2.220   3.456 -0.5784  1.7701 -0.8141
15709SOL     OW54241   7.722   5.087  10.410 -0.6052 -0.3022  0.1698
15709SOL    HW154242   7.781   5.132  10.471  0.1500 -1.0768  0.0332
15709SOL    HW254243   7.644   5.069  10.462 -0.0617 -0.7484  0.8557
15710SOL     OW54244  11.775   8.420   0.109  0.0548 -0.0105  0.2039
15710SOL    HW154245  11.823   8.341   0.087  0.5456  0.1038  0.8259
15710SOL    HW254246  11.746   8.407   0.199  2.5989  1.6543  1.3700
15711SOL     OW54247   8.437   1.543   1.643 -0.4657 -0.0647 -0.5510
15711SOL    HW154248   8.400   1.456   1.632 -2.1525  0.4040  0.9995
15711SOL    HW254249   8.433   1.583   1.556  1.0690 -1.7487 -1.4670
15712SOL     OW54250   5.259   6.078   6.864  0.4458 -0.0449  0.2258
15712SOL    HW154251   5.226   6.165   6.888  1.3798  0.5202 -0.4463
15712SOL    HW254252   5.184   6.033   6.826  0.0217  0.5709  0.3265
15713SOL     OW54253   3.965   4.611   3.794  0.0574 -0.2633  0.0730
15713SOL    HW154254   3.892   4.556   3.823 -0.7662  1.5775  1.7735
15713SOL    HW254255   3.924   4.693   3.768  1.5126  1.1134  1.8163
15714SOL     OW54256  12.845   1.682  11.259  0.4415  0.1483  0.2133
15714SOL    HW154257  12.832   1.669  11.165 -1.0875 -1.0255  0.5324
15714SOL    HW254258  12.786   1.753  11.282  0.5110  0.1638  0.3443
15715SOL     OW54259   9.298   0.763   5.303 -0.8266 -0.0888 -0.0672
15715SOL    HW154260   9.240   0.690   5.284 -1.4563  0.5755 -0.7073
15715SOL    HW254261   9.251   0.841   5.274  0.2302  0.4951 -0.2879
15716SOL     OW54262   6.435   8.051   6.172  0.1462  0.8099  0.1988
15716SOL    HW154263   6.488   8.107   6.116 -0.6345  1.4779  0.1241
15716SOL    HW254264   6.384   8.111   6.226 -0.2367  0.1755  0.5551
15717SOL     OW54265   7.493   6.580   2.577 -0.5018  1.0552  1.2736
15717SOL    HW154266   7.569   6.616   2.531 -0.5796  1.1206  1.1977
15717SOL    HW254267   7.461   6.652   2.630 -2.2490  1.9364 -0.8302
15718SOL     OW54268   3.437   9.443   3.768 -0.4930 -0.0622 -0.0740
15718SOL    HW154269   3.344   9.463   3.758 -0.1270  0.8019 -2.1071
15718SOL    HW254270   3.477   9.470   3.686  1.2089 -2.6657 -0.2297
15719SOL     OW54271   3.467  11.493   2.407 -0.5620 -0.0652  0.2313
15719SOL    HW154272   3.379  11.457   2.416 -0.6345 -0.1862 -0.8492
15719SOL    HW254273   3.463  11.548   2.329  0.3276 -0.1040  0.1470
15720SOL     OW54274   8.526  11.295   3.781  0.4864 -0.4323  0.4750
15720SOL    HW154275   8.453  11.296   3.719  0.4350  0.5684  0.5261
15720SOL    HW254276   8.573  11.214   3.762  0.0580 -0.4913 -0.3878
15721SOL     OW54277  12.668   3.129   9.989 -0.3737  1.2270 -0.7376
15721SOL    HW154278  12.741   3.126   9.928  0.3829  0.4871  0.1819
15721SOL    HW254279  12.693   3.195  10.054  0.2956 -0.2249  0.5473
15722SOL     OW54280   8.495   4.201   3.013  0.3008  0.4829  0.1669
15722SOL    HW154281   8.501   4.112   3.047  0.7316 -0.3148 -1.8959
15722SOL    HW254282   8.550   4.202   2.935 -1.6012  1.8686 -1.2556
15723SOL     OW54283  12.583  11.660   8.654  0.0141  0.4579  0.0840
15723SOL    HW154284  12.595  11.658   8.559  0.0269  1.5096  0.0527
15723SOL    HW254285  12.663  11.701   8.687  1.5905 -2.9254  0.8744
15724SOL     OW54286   9.419  12.677   1.297  0.4971 -0.7479 -0.5688
15724SOL    HW154287   9.509  12.657   1.324  0.3380 -1.1474 -0.3230
15724SOL    HW254288   9.415  12.773   1.299  0.4189 -0.7465  1.1476
15725SOL     OW54289   6.107   0.676   3.092  0.1493 -0.6133  0.1042
15725SOL    HW154290   6.057   0.756   3.075 -1.4871 -1.4892  0.7050
15725SOL    HW254291   6.197   0.708   3.106 -0.3123  1.0403 -0.4060
15726SOL     OW54292   5.242   5.258   2.401 -0.0461  0.3483  0.6210
15726SOL    HW154293   5.254   5.167   2.375  0.9938  0.6274  0.0677
15726SOL    HW254294   5.203   5.301   2.325  0.8511  0.6668  0.3213
15727SOL     OW54295   3.860   3.894   1.764  0.1611 -0.2128 -0.0864
15727SOL    HW154296   3.860   3.798   1.762 -0.7325 -0.2371  0.4186
15727SOL    HW254297   3.799   3.916   1.835  0.8030  0.7239  0.1901
15728SOL     OW54298  10.754  12.543   7.032 -0.6418 -0.6671 -0.4023
15728SOL    HW154299  10.784  12.463   7.075 -0.0479 -0.9239 -1.2639
15728SOL    HW254300  10.823  12.564   6.969  0.3493  1.8343  1.3704
15729SOL     OW54301  12.319  12.829  10.263  0.1762 -0.0830 -0.4655
15729SOL    HW154302  12.375  12.759  10.231 -0.2705 -0.4467 -0.4689
15729SOL    HW254303  12.351  12.908  10.219  0.9657 -0.2040 -0.1249
15730SOL     OW54304  12.409   9.389   1.486 -0.0100  0.4677  0.2717
15730SOL    HW154305  12.382   9.297   1.492  0.1996  0.2816 -1.3466
15730SOL    HW254306  12.504   9.385   1.470 -0.1104  0.9368 -0.4661
15731SOL     OW54307  11.722  10.389   5.894  0.0748  0.0046  0.3545
15731SOL    HW154308  11.675  10.463   5.933  0.8049  0.8250 -0.2732
15731SOL    HW254309  11.812  10.400   5.925  0.4936  0.2186 -0.8979
15732SOL     OW54310   1.135   6.091  11.205  0.2221 -0.0756 -0.0453
15732SOL    HW154311   1.098   6.061  11.288  1.5968 -0.1162  0.5779
15732SOL    HW254312   1.219   6.129  11.228  0.1551  0.9178 -1.2955
15733SOL     OW54313   5.617   9.830   5.755  0.7447  0.1528 -0.2422
15733SOL    HW154314   5.562   9.899   5.717  0.0955  0.0391  0.4810
15733SOL    HW254315   5.640   9.774   5.681 -2.2483 -1.2924 -0.2159
15734SOL     OW54316   3.189   8.323   7.968 -0.4151  0.3269 -0.5154
15734SOL    HW154317   3.110   8.271   7.981 -0.3267  0.3611  0.2072
15734SOL    HW254318   3.257   8.258   7.951 -0.9773  0.3740 -3.4386
15735SOL     OW54319   2.077   2.097  12.609 -0.6102  0.0060 -0.2963
15735SOL    HW154320   1.992   2.121  12.645 -0.4429  0.2130 -0.0377
15735SOL    HW254321   2.130   2.075  12.685  0.2156  1.9322 -0.2650
15736SOL     OW54322   6.129   0.285   2.413  0.1509  0.3012  0.1662
15736SOL    HW154323   6.066   0.278   2.341 -0.1171  2.1639  0.1765
15736SOL    HW254324   6.076   0.311   2.488  0.6941  0.2452  0.5695
15737SOL     OW54325   4.302   0.866   2.669 -0.0845 -0.3991  0.0457
15737SOL    HW154326   4.338   0.782   2.698  0.3606  0.0933  0.9539
15737SOL    HW254327   4.352   0.889   2.591  0.8666 -0.2216  0.6988
15738SOL     OW54328   9.352   0.516   5.580 -0.4075  0.3324  0.2831
15738SOL    HW154329   9.303   0.580   5.632 -0.8275  0.7145 -0.5679
15738SOL    HW254330   9.417   0.568   5.532  0.7011 -0.1421  1.2232
15739SOL     OW54331   6.057   3.321   5.974 -1.1789  0.1671  0.0113
15739SOL    HW154332   6.063   3.414   5.997  0.1739 -0.0630  0.7430
15739SOL    HW254333   5.984   3.288   6.027  0.3972  0.1596  2.3641
15740SOL     OW54334   8.737   7.827   3.243  0.3713  0.1273 -0.3155
15740SOL    HW154335   8.654   7.848   3.200 -1.5807 -1.9558  2.1119
15740SOL    HW254336   8.770   7.751   3.195 -0.3072 -0.4057  0.0349
15741SOL     OW54337   5.852  12.909   3.277 -0.0555  0.0932 -0.1398
15741SOL    HW154338   5.870  12.954   3.360 -2.4513 -0.0972  0.5752
15741SOL    HW254339   5.822  12.978   3.218  0.7892  0.0951 -0.5754
15742SOL     OW54340  10.469   5.065   2.950 -0.3190  0.1357 -0.1883
15742SOL    HW154341  10.467   5.149   2.996  0.1591 -0.0364  0.1517
15742SOL    HW254342  10.411   5.008   3.001 -0.1338  0.0718 -0.0483
15743SOL     OW54343   9.512   1.019   9.555  0.0832  0.2455 -0.4668
15743SOL    HW154344   9.432   0.967   9.558  0.9041 -1.0503  0.4608
15743SOL    HW254345   9.484   1.107   9.530 -1.6066 -0.1924 -0.1999
15744SOL     OW54346   1.530   7.551   7.237  0.1064 -0.1478  0.4385
15744SOL    HW154347   1.625   7.553   7.254  0.3967 -0.0585 -1.0015
15744SOL    HW254348   1.500   7.639   7.256  0.4956  0.0824  0.0073
15745SOL     OW54349   2.304   1.314   1.300  0.2886 -0.0468 -0.0501
15745SOL    HW154350   2.245   1.317   1.225  2.5167 -0.9970 -1.9722
15745SOL    HW254351   2.291   1.227   1.337 -0.4162  0.2211  0.3517
15746SOL     OW54352   7.651   6.512   3.685  0.2613  0.1161  0.0425
15746SOL    HW154353   7.589   6.579   3.656 -0.9440 -0.2680  1.6369
15746SOL    HW254354   7.601   6.431   3.683  1.1226 -0.4250  0.0563
15747SOL     OW54355   0.310  12.536   8.709  0.6097 -0.1286  0.2007
15747SOL    HW154356   0.223  12.497   8.703  0.4467  0.3668 -1.0383
15747SOL    HW254357   0.294  12.626   8.739  0.6333  0.1440 -0.5922
15748SOL     OW54358   6.397   6.729   3.872 -0.0308 -0.3666  0.0817
15748SOL    HW154359   6.471   6.686   3.829 -0.5191 -0.3950 -0.7321
15748SOL    HW254360   6.438   6.786   3.938  0.6547 -1.3663  0.5319
15749SOL     OW54361   6.148  10.507   7.924 -0.3179 -0.6004  0.2172
15749SOL    HW154362   6.123  10.441   7.858  1.4601 -1.0743 -0.0353
15749SOL    HW254363   6.241  10.520   7.910 -0.2979  0.7300  1.4126
15750SOL     OW54364  12.698   6.266   6.377  0.1224  0.0444 -0.1508
15750SOL    HW154365  12.752   6.326   6.326  0.5401  0.3014  0.5701
15750SOL    HW254366  12.659   6.208   6.313  0.4728  0.4888 -0.7758
15751SOL     OW54367   4.952   2.257  11.466  0.1853  0.4197  0.3661
15751SOL    HW154368   5.042   2.286  11.482  0.5302 -0.3988 -0.0467
15751SOL    HW254369   4.919   2.231  11.553  0.1682  1.1814  0.5977
15752SOL     OW54370   9.229   6.336   0.033  0.3624  0.3927 -0.2854
15752SOL    HW154371   9.324   6.349   0.030  0.2945  1.1566  0.3563
15752SOL    HW254372   9.194   6.400  -0.029  0.2561  0.2492 -0.3740
15753SOL     OW54373  11.892   8.335   3.827 -0.1408 -0.3098  0.5781
15753SOL    HW154374  11.814   8.374   3.788  0.2740 -0.0721 -0.0346
15753SOL    HW254375  11.884   8.241   3.808  0.5706 -0.0792 -1.0525
15754SOL     OW54376   8.111  11.643   2.667  0.1414  0.2325  0.2917
15754SOL    HW154377   8.026  11.600   2.682 -0.4463  0.7007 -1.4361
15754SOL    HW254378   8.152  11.591   2.598 -0.0603  1.6698 -0.9782
15755SOL     OW54379   8.452   4.735  11.497 -0.0944 -0.2711  0.3282
15755SOL    HW154380   8.499   4.786  11.563 -0.8092 -1.2356  1.6302
15755SOL    HW254381   8.511   4.732  11.422  0.5641  1.2183  0.7535
15756SOL     OW54382  12.065   6.052   3.629 -0.3877 -0.0494  0.4950
15756SOL    HW154383  12.095   6.140   3.607 -0.2571 -0.2864 -0.3011
15756SOL    HW254384  12.083   6.043   3.723 -0.4015  0.7683  0.5787
15757SOL     OW54385   1.196   3.045   9.708  0.1163 -0.3140  0.2300
15757SOL    HW154386   1.284   3.062   9.744  0.1395  2.1792 -0.7831
15757SOL    HW254387   1.137   3.093   9.766 -0.4415 -0.8135  0.0853
15758SOL     OW54388   3.063   3.141   8.725 -0.1697  0.0656 -0.3282
15758SOL    HW154389   3.060   3.170   8.817 -2.2701 -1.1214  0.0401
15758SOL    HW254390   3.156   3.129   8.707  0.3400  1.0015  1.4252
15759SOL     OW54391   3.581  10.337   0.386 -0.1186  0.4039  0.2136
15759SOL    HW154392   3.546  10.383   0.463 -0.7367 -0.0471  0.2106
15759SOL    HW254393   3.547  10.248   0.394  0.5726  0.1077 -0.1042
15760SOL     OW54394   1.313  12.098   2.984 -0.0348  0.2356 -0.3455
15760SOL    HW154395   1.407  12.098   3.003 -0.2376  0.8176  0.7332
15760SOL    HW254396   1.272  12.120   3.068 -1.1852 -0.9527 -0.5741
15761SOL     OW54397   0.939   1.147  12.786  0.6208  0.5877 -0.5593
15761SOL    HW154398   0.902   1.234  12.774  0.1220  0.5553  0.6194
15761SOL    HW254399   0.989   1.153  12.867  2.3863  0.3413 -1.5895
15762SOL     OW54400   7.506   6.112  10.242 -0.2180  0.1325 -0.0262
15762SOL    HW154401   7.495   6.135  10.334  0.8290 -0.7869  0.3603
15762SOL    HW254402   7.418   6.092  10.211 -0.5983  0.6221  0.7308
15763SOL     OW54403   8.504   6.743   6.514 -0.0587  0.1265 -0.2639
15763SOL    HW154404   8.548   6.739   6.598  1.8500  0.4082 -1.2048
15763SOL    HW254405   8.542   6.671   6.463  0.0701  0.9979 -1.4463
15764SOL     OW54406   6.140   2.652   4.486 -0.3976  0.2904 -0.3764
15764SOL    HW154407   6.138   2.647   4.582  1.2213  1.7213 -0.2252
15764SOL    HW254408   6.050   2.676   4.462 -0.8812 -0.3017  0.7403
15765SOL     OW54409   5.009   5.181   9.777 -0.0154 -0.2725 -0.2562
15765SOL    HW154410   5.049   5.095   9.790  0.0782 -0.1295  0.4364
15765SOL    HW254411   4.954   5.170   9.699 -0.2243 -1.0372 -0.0080
15766SOL     OW54412   6.118   7.829   6.766 -0.7847  0.0026 -0.3170
15766SOL    HW154413   6.186   7.838   6.832 -1.6576  1.1059  0.4671
15766SOL    HW254414   6.114   7.734   6.748  1.4639 -0.0248 -0.9852
15767SOL     OW54415  10.975  10.459  12.096 -0.1338  0.2044 -0.0896
15767SOL    HW154416  11.053  10.501  12.131  0.1985 -0.0548 -0.5242
15767SOL    HW254417  10.910  10.466  12.167  1.0792 -2.0061  1.3476
15768SOL     OW54418  10.652   2.913  11.868 -0.6314 -0.3347  0.3661
15768SOL    HW154419  10.701   2.981  11.822 -0.7385 -0.0870  0.6183
15768SOL    HW254420  10.650   2.942  11.959 -1.6395 -0.1038  0.2790
15769SOL     OW54421   6.247   4.720   1.283  0.1980  0.3108  0.3729
15769SOL    HW154422   6.306   4.783   1.240  0.1063  0.4282  0.4194
15769SOL    HW254423   6.248   4.746   1.375  1.1440 -0.5211  0.6208
15770SOL     OW54424   7.233  11.829  10.072 -0.3365 -0.0894 -0.6553
15770SOL    HW154425   7.286  11.846  10.150  0.4413 -0.9270 -0.9907
15770SOL    HW254426   7.156  11.885  10.083  0.5624  1.0882 -0.1139
15771SOL     OW54427   6.934   5.623   3.084  0.0037 -0.2969  0.3499
15771SOL    HW154428   6.899   5.700   3.038  2.1752 -0.6338 -2.0631
15771SOL    HW254429   6.866   5.557   3.074  0.0420 -0.0810 -1.7125
15772SOL     OW54430  10.663   4.563   3.456  0.1027  0.1735  0.1247
15772SOL    HW154431  10.598   4.540   3.523 -1.9522 -0.4452 -1.9342
15772SOL    HW254432  10.655   4.658   3.448  0.1405  0.2147  0.5321
15773SOL     OW54433   1.024   6.382   3.750 -0.5661  0.1899  0.1467
15773SOL    HW154434   0.998   6.289   3.749  0.7239 -0.1971  0.9124
15773SOL    HW254435   1.060   6.395   3.838  0.4164  1.0984 -0.3878
15774SOL     OW54436   1.994   4.954   3.899  0.0731 -0.2291  0.0079
15774SOL    HW154437   2.086   4.966   3.922  0.2639 -1.1617 -0.2214
15774SOL    HW254438   1.969   4.873   3.944 -0.5372 -0.1735 -0.2255
15775SOL     OW54439  11.086  12.070   8.070 -0.1846 -0.1708  0.2649
15775SOL    HW154440  11.176  12.040   8.063 -1.1436 -3.2731 -0.8193
15775SOL    HW254441  11.069  12.076   8.164  0.4465 -2.1927  0.5545
15776SOL     OW54442   9.561   6.511   6.929 -0.8595  0.2525  0.5140
15776SOL    HW154443   9.511   6.494   6.849  0.1171  0.0109 -0.0632
15776SOL    HW254444   9.638   6.559   6.898  0.9306 -2.2305  0.8989
15777SOL     OW54445   9.240   3.873   3.639 -0.1929 -0.4981  0.3049
15777SOL    HW154446   9.158   3.913   3.608 -1.7314 -2.1772  1.9178
15777SOL    HW254447   9.226   3.860   3.733  1.0034 -2.8239  0.2309
15778SOL     OW54448   6.365  11.610  10.108  0.5710  0.2389  0.3964
15778SOL    HW154449   6.287  11.657  10.078  0.2335  0.1951  1.1718
15778SOL    HW254450   6.331  11.550  10.175  1.2033 -0.1222  0.3945
15779SOL     OW54451   1.936  10.116   0.946  0.1640 -0.1828 -0.7779
15779SOL    HW154452   1.881  10.052   0.991  1.0930 -1.2113 -1.0615
15779SOL    HW254453   1.892  10.200   0.961 -0.1551 -0.6395  1.1004
15780SOL     OW54454   8.437  11.232   7.128  0.0916 -0.1652 -0.0489
15780SOL    HW154455   8.504  11.280   7.080  0.1553  1.0980  1.2519
15780SOL    HW254456   8.477  11.213   7.213 -0.3590 -1.5173 -0.1089
15781SOL     OW54457   9.329   5.357   9.746  0.2061 -0.0167 -0.3245
15781SOL    HW154458   9.296   5.271   9.772 -0.0341 -0.1892 -1.1747
15781SOL    HW254459   9.391   5.380   9.815 -0.5034 -0.3971  0.4568
15782SOL     OW54460   4.246   0.370   6.631  0.0932  0.5925  0.1291
15782SOL    HW154461   4.220   0.281   6.608  0.4723  0.4277  0.3266
15782SOL    HW254462   4.179   0.400   6.692 -1.2234  1.2257 -1.5432
15783SOL     OW54463   1.528   9.503   8.101  0.3591 -0.1700  0.5228
15783SOL    HW154464   1.541   9.575   8.040  0.9697 -0.3901  0.3866
15783SOL    HW254465   1.452   9.456   8.066  0.5813 -0.1790  0.0415
15784SOL     OW54466  10.422  12.124   8.220  0.2107 -0.3999 -0.2757
15784SOL    HW154467  10.358  12.059   8.189  1.1363 -0.5942 -1.8950
15784SOL    HW254468  10.373  12.178   8.282 -0.5465 -2.7880  1.3886
15785SOL     OW54469   1.187   2.795  12.340 -0.1969  0.2588 -0.0360
15785SOL    HW154470   1.134   2.791  12.261  0.2880 -1.6673 -0.3263
15785SOL    HW254471   1.131   2.759  12.409 -0.5716  1.8085  0.5052
15786SOL     OW54472   3.718   3.363   6.775  0.2648  0.3622  0.5748
15786SOL    HW154473   3.623   3.369   6.773  0.1534 -1.1300 -1.4264
15786SOL    HW254474   3.748   3.426   6.709  0.4828 -1.0537 -0.7232
15787SOL     OW54475   9.549  10.340   7.096  0.3064  0.7643 -0.1124
15787SOL    HW154476   9.507  10.301   7.020  0.0457 -0.6580  0.7217
15787SOL    HW254477   9.515  10.430   7.099 -0.0064  0.7032 -1.3974
15788SOL     OW54478   8.583   0.055   1.511  0.3684 -0.2144 -0.3644
15788SOL    HW154479   8.634   0.118   1.460  1.0339 -0.2142  0.2973
15788SOL    HW254480   8.529   0.010   1.446  2.4120 -1.4133 -1.3312
15789SOL     OW54481   9.215   5.213   7.066 -0.0586 -0.0577 -0.6374
15789SOL    HW154482   9.304   5.208   7.032 -0.0076  2.0358 -0.9326
15789SOL    HW254483   9.225   5.238   7.157 -0.3399 -0.1357 -0.5819
15790SOL     OW54484   0.044  11.870   0.490  0.1474  0.4613 -0.1735
15790SOL    HW154485   0.026  11.961   0.512  0.4673  0.4730  0.0433
15790SOL    HW254486   0.071  11.873   0.398  0.4984  0.6290 -0.0640
15791SOL     OW54487  10.316   9.429   5.279  0.0268 -0.0704  0.2735
15791SOL    HW154488  10.308   9.455   5.371 -0.2568  0.9987 -0.0362
15791SOL    HW254489  10.346   9.508   5.235  0.3014 -0.6173 -0.5354
15792SOL     OW54490  10.724   7.044   0.780 -0.5376  0.3453 -0.0739
15792SOL    HW154491  10.679   7.052   0.696 -0.3250  1.2368 -0.1100
15792SOL    HW254492  10.707   7.127   0.825 -1.4288 -0.4672  1.1640
15793SOL     OW54493  12.679  10.108   0.455 -0.3137  0.2301  0.0965
15793SOL    HW154494  12.726  10.025   0.463 -3.0517 -1.4025  1.0318
15793SOL    HW254495  12.592  10.082   0.425 -0.9769  2.9055 -0.5089
15794SOL     OW54496  10.037  12.692   5.540  0.6483 -0.0584 -0.2496
15794SOL    HW154497   9.952  12.656   5.565 -0.7585  2.6283 -0.8143
15794SOL    HW254498  10.076  12.721   5.623  0.9098 -1.0581 -0.0183
15795SOL     OW54499  10.652  11.765   1.133 -0.7771 -0.2261 -0.4191
15795SOL    HW154500  10.734  11.723   1.159 -1.7418 -1.3532  1.0016
15795SOL    HW254501  10.609  11.701   1.078 -0.5404  0.5403 -1.5246
15796SOL     OW54502  12.184   4.341  12.114  0.1361  0.0217 -0.1188
15796SOL    HW154503  12.105   4.302  12.077  1.3780 -3.1457  0.3171
15796SOL    HW254504  12.244   4.347  12.039 -0.4175  2.4369 -0.4542
15797SOL     OW54505   0.512  10.786   0.840  0.2259  0.0404  0.3614
15797SOL    HW154506   0.432  10.802   0.889  1.1594  1.6543  1.4600
15797SOL    HW254507   0.510  10.850   0.769 -0.9130 -2.0036 -1.5814
15798SOL     OW54508   5.681   1.458   3.024 -0.5122 -0.0837 -0.1167
15798SOL    HW154509   5.657   1.394   2.957  1.4130  0.4290 -1.3466
15798SOL    HW254510   5.651   1.418   3.106  0.8951 -2.7305 -0.7890
15799SOL     OW54511   5.522   5.523   2.916 -0.4998 -0.0790  0.0056
15799SOL    HW154512   5.544   5.616   2.913 -1.4817  0.2923  2.0033
15799SOL    HW254513   5.538   5.491   2.828 -0.2462  2.0171 -0.7652
15800SOL     OW54514   5.572   4.158   7.436  0.5065  0.6831 -0.0138
15800SOL    HW154515   5.556   4.185   7.345  0.5978 -0.6725 -0.4551
15800SOL    HW254516   5.487   4.127   7.467  1.0167 -1.4880 -0.5949
15801SOL     OW54517   6.054   2.685  11.186 -0.2429  0.7091  0.2062
15801SOL    HW154518   6.043   2.775  11.156  1.0061  1.2776  1.3414
15801SOL    HW254519   6.018   2.631  11.116  0.0620  2.0555 -1.0207
15802SOL     OW54520  12.801   4.201   6.134  0.1227 -0.0068  0.2570
15802SOL    HW154521  12.875   4.149   6.100  2.4064  1.2594  2.8351
15802SOL    HW254522  12.786   4.164   6.221 -2.2192 -0.0486 -0.1130
15803SOL     OW54523   6.558   8.026   3.477 -0.1813 -0.7617  0.1827
15803SOL    HW154524   6.479   8.040   3.529 -0.4585  1.6315 -0.7547
15803SOL    HW254525   6.538   8.064   3.391  2.1187  0.3658  0.0638
15804SOL     OW54526   3.882   1.196  11.472  0.1351 -0.1728 -0.0755
15804SOL    HW154527   3.906   1.113  11.515 -1.1030 -0.3064  0.4217
15804SOL    HW254528   3.847   1.250  11.543  0.3059  0.5218 -0.5156
15805SOL     OW54529   2.075  11.016   7.928  0.0820 -0.4417  0.1081
15805SOL    HW154530   2.162  11.023   7.888  0.3977  0.9106  0.9986
15805SOL    HW254531   2.019  11.072   7.875  0.3013  0.6178  0.9621
15806SOL     OW54532   1.689  12.279  11.391 -0.6821  0.3456  0.2797
15806SOL    HW154533   1.631  12.222  11.340 -0.5395 -0.0503  0.5487
15806SOL    HW254534   1.755  12.308  11.329 -1.2754  0.9580 -0.0780
15807SOL     OW54535   9.280   3.635   6.230 -0.4559 -0.9161  0.1278
15807SOL    HW154536   9.317   3.547   6.230  4.1652  0.7376 -0.8573
15807SOL    HW254537   9.278   3.661   6.138 -0.5803  0.4081  0.4817
15808SOL     OW54538   1.335  10.028   1.145 -0.5196 -0.1876  0.1548
15808SOL    HW154539   1.263  10.090   1.151 -0.4643 -0.1442  0.3581
15808SOL    HW254540   1.293   9.945   1.122 -0.7304 -0.3596  1.1431
15809SOL     OW54541   8.980  10.277  10.194 -0.8078  0.7868  0.1758
15809SOL    HW154542   9.064  10.239  10.168  0.0752  1.9472  1.1747
15809SOL    HW254543   8.945  10.215  10.258 -1.9699 -0.9820 -2.0359
15810SOL     OW54544  10.435   4.716   7.236 -0.8465 -0.1291  0.6832
15810SOL    HW154545  10.516   4.675   7.267 -0.6370  0.6739  1.2114
15810SOL    HW254546  10.372   4.644   7.233  0.0436 -0.9058 -0.3798
15811SOL     OW54547   9.943   7.317   5.930 -0.4163 -0.2090  0.1212
15811SOL    HW154548   9.883   7.391   5.918 -1.9708 -1.5659 -0.9790
15811SOL    HW254549   9.925   7.260   5.856  2.1742 -0.7843 -0.1665
15812SOL     OW54550   8.715  12.753   0.129 -0.0610 -0.3772 -0.2164
15812SOL    HW154551   8.713  12.848   0.145 -0.2306 -0.5392  0.7572
15812SOL    HW254552   8.803  12.737   0.094  0.6995 -0.1365  1.4844
15813SOL     OW54553   5.280   0.402   8.467  0.8793 -0.1509 -0.1688
15813SOL    HW154554   5.218   0.332   8.488 -0.8943  1.0231 -1.2717
15813SOL    HW254555   5.268   0.466   8.537  1.4387 -0.2761  0.0434
15814SOL     OW54556   5.099   9.241   4.492  0.1994  0.6048  0.2080
15814SOL    HW154557   5.009   9.274   4.484  0.6761  1.7756 -0.6450
15814SOL    HW254558   5.124   9.219   4.403  0.4528 -0.6444  0.5651
15815SOL     OW54559   1.417  10.812  12.681 -0.7385 -0.0339  0.3783
15815SOL    HW154560   1.404  10.858  12.763 -1.8098 -0.7417  0.6273
15815SOL    HW254561   1.488  10.751  12.698 -1.6160 -0.8829  1.1066
15816SOL     OW54562  10.625   9.581   9.049 -0.5254 -0.2506  0.1566
15816SOL    HW154563  10.539   9.604   9.012  0.0356 -0.0666 -1.0766
15816SOL    HW254564  10.679   9.559   8.973  0.3467 -0.9855  0.9665
15817SOL     OW54565   2.938   9.739   6.615 -0.5699 -0.3633 -0.4804
15817SOL    HW154566   3.032   9.720   6.612 -0.4618  0.3023 -2.0106
15817SOL    HW254567   2.901   9.664   6.662  0.8092 -0.2214  0.9030
15818SOL     OW54568   5.894  12.195   1.859 -0.1815 -0.7483 -0.7733
15818SOL    HW154569   5.857  12.282   1.841  0.5158 -0.9910 -3.8657
15818SOL    HW254570   5.985  12.201   1.829  0.2546 -2.2023  0.1614
15819SOL     OW54571   2.898   6.347   6.720 -0.4896  0.0346  0.4949
15819SOL    HW154572   2.825   6.326   6.662  0.6109 -0.3694 -0.8074
15819SOL    HW254573   2.976   6.334   6.665  0.5193  1.3874  1.5595
15820SOL     OW54574   1.091   1.429   2.175 -0.3383 -0.2097 -0.3942
15820SOL    HW154575   1.092   1.502   2.238  1.9633 -0.8928  0.4724
15820SOL    HW254576   1.000   1.398   2.176 -0.9654  1.5120  0.5470
15821SOL     OW54577   0.564   9.315  12.883  0.0482 -0.2864 -0.0134
15821SOL    HW154578   0.495   9.355  12.829  0.5920  0.2957 -0.2875
15821SOL    HW254579   0.634   9.381  12.885  0.2834 -0.5502  0.9043
15822SOL     OW54580   6.937   5.942  10.175 -0.1775 -0.2789 -0.5503
15822SOL    HW154581   7.011   5.973  10.227 -0.1042 -0.1859 -0.7070
15822SOL    HW254582   6.908   5.862  10.219  1.1853 -1.3503 -1.4881
15823SOL     OW54583   5.411   1.506  11.563 -0.3511 -0.0114 -0.1435
15823SOL    HW154584   5.429   1.582  11.618 -0.4315 -1.2961  1.7595
15823SOL    HW254585   5.484   1.503  11.501 -1.6832  3.0960 -2.1070
15824SOL     OW54586  10.052  11.343   7.026 -0.1678 -0.4627 -0.3247
15824SOL    HW154587  10.024  11.257   6.993 -1.1796 -0.8599  1.4638
15824SOL    HW254588   9.970  11.390   7.043  0.3722  0.7952 -1.0595
15825SOL     OW54589   8.530   9.221  10.443 -0.6476  0.0544  0.4089
15825SOL    HW154590   8.608   9.166  10.450 -1.3821 -0.8318  2.2407
15825SOL    HW254591   8.514   9.229  10.349  3.3311  2.7688 -0.2770
15826SOL     OW54592   0.527   8.098   2.660  0.1117 -0.7906 -0.0905
15826SOL    HW154593   0.487   8.054   2.585 -0.9883 -0.5218  0.3153
15826SOL    HW254594   0.620   8.102   2.639 -0.2882  0.1436 -1.8939
15827SOL     OW54595  10.525   9.707   3.183 -0.2776  0.4167  0.1283
15827SOL    HW154596  10.546   9.800   3.171 -2.4742  0.9963  0.3504
15827SOL    HW254597  10.555   9.665   3.103  2.2902  0.9744  0.7059
15828SOL     OW54598   0.241   5.803   3.129 -0.8835 -0.1866 -0.0335
15828SOL    HW154599   0.179   5.730   3.125 -1.3979  0.2331  0.2749
15828SOL    HW254600   0.186   5.882   3.126 -0.3398  0.1915 -0.2287
15829SOL     OW54601  10.238  11.219   2.430 -0.3786 -0.1433  0.0355
15829SOL    HW154602  10.191  11.193   2.509 -1.5359  0.6166 -0.3836
15829SOL    HW254603  10.200  11.304   2.406  1.1569  0.4724 -0.3634
15830SOL     OW54604   2.262   5.701   6.215 -0.5064 -0.5705 -0.5277
15830SOL    HW154605   2.172   5.728   6.232 -0.2630  0.3809 -0.7274
15830SOL    HW254606   2.305   5.779   6.182  0.5801 -0.8169  0.2415
15831SOL     OW54607   3.491   6.009   1.808 -0.3047  0.5475 -0.2125
15831SOL    HW154608   3.533   6.088   1.842  1.2390 -0.4932  0.4299
15831SOL    HW254609   3.424   5.987   1.872  1.5169 -0.5049  1.4464
15832SOL     OW54610   9.863   9.642  11.536 -0.2386  0.1773  0.0768
15832SOL    HW154611   9.856   9.631  11.441 -1.7257 -2.2173  0.3906
15832SOL    HW254612   9.954   9.664  11.551  0.6277 -1.8281 -1.7509
15833SOL     OW54613   1.771   8.032  10.659 -0.2355 -0.1318 -0.3265
15833SOL    HW154614   1.732   7.952  10.692 -2.1916  1.4041  1.3289
15833SOL    HW254615   1.865   8.021  10.674 -0.5483 -1.7338  0.6876
15834SOL     OW54616   7.749  10.304   0.091  0.0484  0.1395  0.2755
15834SOL    HW154617   7.708  10.368   0.034 -0.7049 -0.7096 -0.1613
15834SOL    HW254618   7.676  10.256   0.131  0.5555  0.7349  1.9944
15835SOL     OW54619   5.014  12.673   3.319  0.1260  0.5967 -0.1673
15835SOL    HW154620   5.063  12.742   3.274  0.1127  0.3790 -0.5237
15835SOL    HW254621   4.922  12.693   3.302  0.1214 -1.2333 -3.0120
15836SOL     OW54622   6.614   5.651  11.223  0.1225  0.0081  0.7767
15836SOL    HW154623   6.691   5.696  11.189 -0.2238 -0.5660 -0.8190
15836SOL    HW254624   6.648   5.568  11.256  0.4096  0.4379  1.6072
15837SOL     OW54625   9.751   8.436   3.488  0.4230  0.5925  0.7005
15837SOL    HW154626   9.703   8.418   3.407 -0.5953  1.7256  1.0220
15837SOL    HW254627   9.697   8.397   3.557  2.1987 -2.0690  0.7832
15838SOL     OW54628  12.822   2.025   4.779  0.3212  0.4386 -0.5411
15838SOL    HW154629  12.877   1.951   4.752  0.2121 -0.0779  0.5856
15838SOL    HW254630  12.732   1.994   4.764  0.2513  0.0628  0.5545
15839SOL     OW54631   2.061   5.034   1.857  0.0602  0.0878  0.2857
15839SOL    HW154632   1.973   5.071   1.855  0.2161  0.4522 -0.5734
15839SOL    HW254633   2.091   5.038   1.765  1.1695  0.4630  0.6427
15840SOL     OW54634   8.215   7.979  12.416 -0.2841 -0.5659  0.0391
15840SOL    HW154635   8.143   7.929  12.455  0.9715 -1.1364  1.7249
15840SOL    HW254636   8.291   7.957  12.470  0.9443  0.8088 -1.0774
15841SOL     OW54637   9.639   9.291   2.316 -0.2052 -0.4356 -0.4876
15841SOL    HW154638   9.688   9.371   2.331 -0.3115 -0.0128 -2.1605
15841SOL    HW254639   9.575   9.288   2.387  2.2181 -1.0742  1.8237
15842SOL     OW54640   8.777   1.023   4.583  0.3773  0.2266  0.0833
15842SOL    HW154641   8.853   1.003   4.638  0.6440  3.0434  0.8777
15842SOL    HW254642   8.751   0.938   4.546  2.3718 -1.1966  1.7360
15843SOL     OW54643   8.908   5.546   1.265  0.4483 -0.1542 -0.3751
15843SOL    HW154644   8.840   5.493   1.306  1.0710 -0.0480  0.8428
15843SOL    HW254645   8.893   5.635   1.298  2.4786 -0.5024  1.7496
15844SOL     OW54646   7.964  10.389   2.083  0.2324  0.0085  0.6108
15844SOL    HW154647   7.991  10.420   2.169 -1.5241 -0.6059  1.4306
15844SOL    HW254648   7.967  10.467   2.027  0.0567  0.7175  1.5702
15845SOL     OW54649  11.406   9.477   6.771 -0.7514 -0.1401 -0.2744
15845SOL    HW154650  11.475   9.419   6.804 -1.4066  0.4893  2.4509
15845SOL    HW254651  11.324   9.432   6.793 -1.2673  1.6207  1.7170
15846SOL     OW54652   0.800   2.141  11.038 -0.3526 -0.4686 -0.1294
15846SOL    HW154653   0.864   2.212  11.046  0.9078 -1.6465  0.7321
15846SOL    HW254654   0.719   2.177  11.073  0.8707 -0.1647  2.5869
15847SOL     OW54655   9.000   3.112   6.711  0.4312  0.3603  0.0970
15847SOL    HW154656   8.915   3.109   6.755  0.3116 -0.4415 -0.1741
15847SOL    HW254657   8.991   3.183   6.647 -0.0041  0.3425  0.1335
15848SOL     OW54658   1.362   0.644   0.324 -0.2407  0.1891 -0.3228
15848SOL    HW154659   1.340   0.735   0.341  2.5682  1.0089 -0.7148
15848SOL    HW254660   1.402   0.644   0.237 -0.0702 -1.3936 -0.2776
15849SOL     OW54661   5.656  11.325   8.511 -0.1152  0.4464 -0.5347
15849SOL    HW154662   5.738  11.285   8.481  0.7092  1.4833  0.2901
15849SOL    HW254663   5.606  11.340   8.430  0.3517 -0.4973 -1.0152
15850SOL     OW54664   7.890   9.767   4.166 -0.1627 -0.0585 -0.0999
15850SOL    HW154665   7.907   9.769   4.072  3.5132 -0.2207  0.4309
15850SOL    HW254666   7.834   9.843   4.182 -0.8912 -0.0470 -2.3848
15851SOL     OW54667  11.937   3.811   5.791  0.4084 -0.0798 -0.6414
15851SOL    HW154668  11.947   3.736   5.733 -1.5977 -1.0878  0.2250
15851SOL    HW254669  11.952   3.776   5.879 -0.0079  0.6405 -0.2742
15852SOL     OW54670  12.277  11.933   5.063  0.4466  0.3693 -0.0095
15852SOL    HW154671  12.207  11.958   5.003  0.2083 -2.1059 -0.8880
15852SOL    HW254672  12.357  11.945   5.012  0.4494  0.7643  0.0904
15853SOL     OW54673   5.274   5.997   1.303  0.5775  0.1035 -0.0240
15853SOL    HW154674   5.255   6.036   1.218 -0.1967 -0.5129 -0.1349
15853SOL    HW254675   5.365   5.968   1.296 -0.3216 -2.6188 -1.7015
15854SOL     OW54676  12.920   8.207   6.825  0.6732 -0.0256 -0.4366
15854SOL    HW154677  13.011   8.186   6.845  1.1553  0.7318 -1.6286
15854SOL    HW254678  12.905   8.292   6.867  0.6575  0.0392 -0.5701
15855SOL     OW54679   8.379   8.619   9.764 -0.3590  0.1618  0.0889
15855SOL    HW154680   8.447   8.553   9.778 -0.2595  0.2762  0.1509
15855SOL    HW254681   8.325   8.615   9.843 -0.1112  0.4392  0.2740
15856SOL     OW54682   5.137  12.286   0.084  0.0533  0.4067  0.0771
15856SOL    HW154683   5.190  12.264   0.160  1.7203 -1.4220 -1.5080
15856SOL    HW254684   5.092  12.205   0.061  1.7144  0.0734 -2.4186
15857SOL     OW54685   0.617   5.596   4.441  0.3967  0.2122 -0.0829
15857SOL    HW154686   0.585   5.625   4.526  0.0329  2.3535 -0.8923
15857SOL    HW254687   0.690   5.655   4.422  0.4012 -0.1654 -1.2881
15858SOL     OW54688   2.995   8.127   6.278 -0.2742  0.5773  0.1541
15858SOL    HW154689   2.916   8.127   6.332 -0.8482 -1.1127 -0.6341
15858SOL    HW254690   3.065   8.097   6.336 -0.2720  1.6621  0.7351
15859SOL     OW54691   3.102  12.939   1.691  0.4730 -0.0829 -0.9164
15859SOL    HW154692   3.025  12.977   1.651  0.6398  0.0619 -1.0982
15859SOL    HW254693   3.095  12.962   1.784 -1.1250 -2.3768 -0.3788
15860SOL     OW54694   5.168   9.653   2.501  0.0221  0.0791  0.3697
15860SOL    HW154695   5.170   9.742   2.535 -3.3137 -0.0894  1.4163
15860SOL    HW254696   5.101   9.654   2.433  0.2880 -1.5261  0.0385
15861SOL     OW54697   7.385   7.391  11.511  0.1918  0.0842 -0.0033
15861SOL    HW154698   7.424   7.361  11.593  0.5420 -1.0842 -0.5758
15861SOL    HW254699   7.454   7.442  11.469 -0.1896  1.1981  0.6841
15862SOL     OW54700  12.486   9.637  11.572 -0.0015  0.0373 -0.0918
15862SOL    HW154701  12.441   9.661  11.653 -1.4518  1.5835 -1.2822
15862SOL    HW254702  12.433   9.567  11.534 -0.1051  0.2689 -0.3752
15863SOL     OW54703   2.744   1.134  12.848 -0.0592 -0.4317  0.4190
15863SOL    HW154704   2.727   1.067  12.782  1.2939  1.3846 -1.9408
15863SOL    HW254705   2.838   1.129  12.865 -0.3630 -0.7793  2.1905
15864SOL     OW54706   0.771   1.498   6.407 -0.0549  0.3265 -0.0246
15864SOL    HW154707   0.698   1.547   6.446 -1.3761 -1.2239 -0.4430
15864SOL    HW254708   0.825   1.565   6.365 -0.4719  1.6615  1.4628
15865SOL     OW54709   4.834   2.902   8.398 -0.2672 -0.1936 -0.4919
15865SOL    HW154710   4.901   2.855   8.448  0.6183  0.3542 -1.1465
15865SOL    HW254711   4.763   2.915   8.461  0.8453  0.5558  0.6783
15866SOL     OW54712   2.983  10.350   7.206  0.1531 -0.3871  0.0753
15866SOL    HW154713   3.036  10.384   7.133  0.7316 -1.1466  0.1329
15866SOL    HW254714   2.918  10.419   7.222  0.2599 -0.0377 -0.9005
15867SOL     OW54715   0.014  12.300   7.094  0.2340  0.4032  0.2195
15867SOL    HW154716   0.076  12.288   7.023  1.4014 -0.6755  1.3651
15867SOL    HW254717  -0.062  12.342   7.053  0.6852 -0.5582 -1.7247
15868SOL     OW54718   2.992   9.242   3.547  0.0985  0.2429  0.0021
15868SOL    HW154719   3.080   9.270   3.519  0.5604 -1.0707  0.0628
15868SOL    HW254720   2.943   9.234   3.466  0.9329 -1.8821 -0.3679
15869SOL     OW54721  10.231  11.512   5.203  0.2756 -0.3867  0.6052
15869SOL    HW154722  10.206  11.548   5.118  0.2771 -2.6443 -0.4172
15869SOL    HW254723  10.327  11.517   5.204  0.3987 -1.9538 -0.3352
15870SOL     OW54724   6.452   4.264   2.795  0.0118 -0.1581 -0.3629
15870SOL    HW154725   6.511   4.273   2.870 -0.8691  0.8498  0.2427
15870SOL    HW254726   6.415   4.176   2.804  0.8999 -0.5439 -0.3752
15871SOL     OW54727  12.130   5.934   6.898  0.5330 -0.4934 -0.6738
15871SOL    HW154728  12.051   5.909   6.849 -0.6150  0.6524  0.5406
15871SOL    HW254729  12.148   6.024   6.871  0.7523 -0.3597 -0.0917
15872SOL     OW54730  11.398   8.342   9.366 -0.1525 -0.6182  0.6050
15872SOL    HW154731  11.405   8.430   9.330  0.6734 -1.4334 -1.3296
15872SOL    HW254732  11.402   8.284   9.290  0.2049 -2.3725  1.9009
15873SOL     OW54733   4.557  11.760   0.627 -0.3330  0.2836  0.2025
15873SOL    HW154734   4.470  11.800   0.620 -1.2970 -1.1217  2.8078
15873SOL    HW254735   4.584  11.777   0.717  0.7074 -1.9121  0.3723
15874SOL     OW54736   0.625   0.268   3.293  0.2906 -0.6986 -0.2852
15874SOL    HW154737   0.642   0.312   3.376  2.1434 -1.9030  0.0578
15874SOL    HW254738   0.551   0.315   3.255  1.7191  2.2580  0.3123
15875SOL     OW54739  10.036   5.037  10.340  0.0641 -0.8109  0.5077
15875SOL    HW154740  10.124   5.047  10.376  0.7053 -0.2019 -1.1527
15875SOL    HW254741   9.985   5.000  10.412  1.7574 -1.5336  1.3955
15876SOL     OW54742  10.269  10.973   2.288  0.0783  0.1140  0.0580
15876SOL    HW154743  10.218  10.993   2.210  1.6431  0.2167 -0.9968
15876SOL    HW254744  10.284  11.059   2.329  0.5878  0.2562 -0.4152
15877SOL     OW54745   4.165   2.741   0.417  0.6171  0.1321  0.0106
15877SOL    HW154746   4.223   2.725   0.492 -0.1764 -0.7047  0.4744
15877SOL    HW254747   4.163   2.658   0.370 -0.5406 -0.0041  0.2620
15878SOL     OW54748   1.692   4.982  11.296 -0.1903 -0.7463 -0.0514
15878SOL    HW154749   1.770   5.037  11.294 -0.6049 -0.1553 -0.2316
15878SOL    HW254750   1.712   4.913  11.360  1.2558 -1.7986 -1.5823
15879SOL     OW54751   5.724   9.551   0.796  0.0821  0.2033 -0.1213
15879SOL    HW154752   5.659   9.576   0.729  0.2387  0.2288 -0.2650
15879SOL    HW254753   5.808   9.574   0.757  0.2085 -0.2563 -0.1219
15880SOL     OW54754   5.703   2.771   3.502  0.1738  0.1442 -0.6181
15880SOL    HW154755   5.608   2.782   3.514  0.5359  2.1886  0.9876
15880SOL    HW254756   5.723   2.690   3.549 -0.8535 -0.7360 -1.6305
15881SOL     OW54757   3.319   4.752   7.174  0.0853  0.0114 -0.1325
15881SOL    HW154758   3.356   4.732   7.260 -0.3052  0.7613  0.2141
15881SOL    HW254759   3.320   4.847   7.169 -1.6662  0.0505 -0.1802
15882SOL     OW54760  12.590   4.859  10.724 -0.3175  0.2724 -0.0239
15882SOL    HW154761  12.589   4.764  10.721 -1.1103  0.2018  1.4306
15882SOL    HW254762  12.500   4.884  10.743  0.1121  1.2169  0.9403
15883SOL     OW54763   0.877   3.208   4.394 -0.6422 -0.1914 -0.1848
15883SOL    HW154764   0.802   3.234   4.340 -0.8135 -2.8429 -1.3856
15883SOL    HW254765   0.946   3.187   4.331 -0.4703 -2.2624  0.6021
15884SOL     OW54766  12.771   3.068   0.500  0.1807  0.3495  0.0742
15884SOL    HW154767  12.804   3.071   0.590 -1.5838 -0.0503  0.7810
15884SOL    HW254768  12.814   2.992   0.462 -1.2723 -1.3329  1.5771
15885SOL     OW54769   3.609  11.090  11.969  0.0384 -0.0146 -0.6434
15885SOL    HW154770   3.605  11.183  11.991  1.9328  0.0601 -0.4651
15885SOL    HW254771   3.548  11.081  11.895 -4.1226  0.3059  2.4136
15886SOL     OW54772  10.563  12.939   3.905 -0.1859 -0.0229 -0.5363
15886SOL    HW154773  10.532  12.907   3.821  1.5358  1.2580 -1.7511
15886SOL    HW254774  10.602  13.025   3.885  0.6639  0.1278  1.4789
15887SOL     OW54775  10.785   4.988  11.982 -0.7052 -0.1765 -0.4264
15887SOL    HW154776  10.847   4.990  12.054 -0.2229 -0.1007 -0.8371
15887SOL    HW254777  10.734   5.069  11.991  0.5216  0.7096 -1.1782
15888SOL     OW54778   6.032   8.655  10.051  0.3180 -0.2697 -0.0526
15888SOL    HW154779   5.979   8.669  10.129  0.1213  0.9370 -0.3917
15888SOL    HW254780   6.101   8.595  10.080  0.6231  0.6466  1.2239
15889SOL     OW54781  12.638  12.390   9.728  0.4707  0.4712  0.3262
15889SOL    HW154782  12.733  12.382   9.718  0.5110  1.8060 -0.6688
15889SOL    HW254783  12.626  12.404   9.822  1.0525 -1.7122  0.7791
15890SOL     OW54784   2.761   7.694  10.080  0.4692  0.3132  0.3833
15890SOL    HW154785   2.814   7.614  10.076  0.6207  0.3193  1.6644
15890SOL    HW254786   2.697   7.676  10.149 -0.8401  0.5302 -0.7514
15891SOL     OW54787   8.525   7.423   5.725 -0.3460 -0.2591 -0.1495
15891SOL    HW154788   8.447   7.462   5.686 -0.9177 -0.2889  0.9194
15891SOL    HW254789   8.497   7.334   5.748 -0.9016  0.5539  2.7077
15892SOL     OW54790   0.746   3.225  10.521  0.4483  0.0126 -0.6059
15892SOL    HW154791   0.702   3.207  10.604 -0.6557  4.3758  0.0058
15892SOL    HW254792   0.837   3.198  10.536 -0.6373 -4.0868  0.0099
15893SOL     OW54793   5.877   3.878   8.929  0.4541 -0.3810 -0.2705
15893SOL    HW154794   5.835   3.800   8.892  0.4564 -0.5338  0.0464
15893SOL    HW254795   5.804   3.934   8.955  0.4345 -0.6676  0.3250
15894SOL     OW54796   0.782   5.210   5.187  0.1762  0.3086 -0.0494
15894SOL    HW154797   0.715   5.274   5.210  0.2860  0.6553 -0.6779
15894SOL    HW254798   0.748   5.127   5.221 -1.1924  0.2397 -1.4263
15895SOL     OW54799   6.145  12.107   9.304  0.4584 -0.0925 -0.4031
15895SOL    HW154800   6.214  12.092   9.368 -0.6055  0.3977  0.9125
15895SOL    HW254801   6.127  12.021   9.267  0.3001 -0.6028  0.8198
15896SOL     OW54802   8.635  11.430  11.215 -0.2155 -0.2346 -0.2724
15896SOL    HW154803   8.654  11.339  11.238  0.6192  0.4154  1.8190
15896SOL    HW254804   8.540  11.433  11.208 -0.5164 -0.7070  2.5031
15897SOL     OW54805   8.889  11.689   1.683 -0.0745 -0.3757 -0.4449
15897SOL    HW154806   8.855  11.759   1.739 -0.0369 -1.7771  1.4640
15897SOL    HW254807   8.984  11.698   1.689 -0.0421 -1.2139  0.7387
15898SOL     OW54808   7.754  10.737   8.449  0.6230 -0.5128 -0.5397
15898SOL    HW154809   7.675  10.699   8.411 -0.9406  1.4248  0.5478
15898SOL    HW254810   7.801  10.775   8.375  0.4698 -1.5345 -1.1792
15899SOL     OW54811   2.381   8.411   7.874 -0.1682  0.1174  0.4107
15899SOL    HW154812   2.343   8.333   7.834 -0.2454  0.5279 -0.3146
15899SOL    HW254813   2.463   8.380   7.913 -0.4870 -0.4467  0.6563
15900SOL     OW54814   1.852   1.474   8.820  0.4700 -0.3583  0.1224
15900SOL    HW154815   1.908   1.432   8.754 -1.0612 -0.4801 -1.1428
15900SOL    HW254816   1.779   1.413   8.831 -0.8121  1.0598 -0.3109
15901SOL     OW54817  10.974   8.747   1.034 -0.0841 -0.4215 -0.4174
15901SOL    HW154818  10.972   8.827   1.086  1.6539  1.9296 -3.6177
15901SOL    HW254819  10.884   8.735   1.006 -0.1099  1.4936 -1.2978
15902SOL     OW54820   9.453   1.920  12.616 -0.1472 -0.0925 -0.5282
15902SOL    HW154821   9.528   1.888  12.665 -0.4549 -0.3474 -0.2134
15902SOL    HW254822   9.463   2.015  12.615 -0.4291 -0.0379  0.5292
15903SOL     OW54823   0.257   3.954   7.841 -0.4428  0.3303  0.2001
15903SOL    HW154824   0.204   3.880   7.870  0.6587 -1.2110 -1.5703
15903SOL    HW254825   0.197   4.007   7.788 -0.3299 -1.3030 -1.6405
15904SOL     OW54826   8.657  10.774   9.761 -0.5136 -0.4563  0.5861
15904SOL    HW154827   8.678  10.864   9.788  0.6866 -0.7394  0.6728
15904SOL    HW254828   8.607  10.738   9.834 -2.4193  0.6268 -0.1210
15905SOL     OW54829   3.132  11.110  11.390 -0.4908 -0.4362  0.4744
15905SOL    HW154830   3.133  11.164  11.469  0.5087 -0.8511  0.7510
15905SOL    HW254831   3.048  11.065  11.393 -0.2093 -0.9003  1.6159
15906SOL     OW54832   7.142   8.609   4.561 -0.0589 -0.8379 -0.4680
15906SOL    HW154833   7.121   8.698   4.534  0.3292 -1.0680 -1.5895
15906SOL    HW254834   7.084   8.554   4.508  1.5061 -1.3574 -1.7226
15907SOL     OW54835   1.850   5.468   8.414 -0.8475 -0.0828 -0.2267
15907SOL    HW154836   1.839   5.547   8.361 -0.1088  1.0887  1.3064
15907SOL    HW254837   1.931   5.483   8.463 -1.0755 -1.4880  0.6218
15908SOL     OW54838   4.223   5.011   1.427  0.0921 -0.1913  0.2406
15908SOL    HW154839   4.318   4.996   1.427  0.2873  0.9657 -0.0175
15908SOL    HW254840   4.199   5.015   1.334 -0.2931 -0.9001  0.3009
15909SOL     OW54841   2.459  10.973   4.810  0.5915  0.3171  0.1499
15909SOL    HW154842   2.400  11.037   4.769  0.8905  1.2707  1.1601
15909SOL    HW254843   2.502  10.930   4.737  1.3372  2.1879 -0.5643
15910SOL     OW54844  11.146  11.897   0.235 -0.2505  0.0916  0.0916
15910SOL    HW154845  11.069  11.920   0.184 -1.1906 -1.5554  0.6784
15910SOL    HW254846  11.154  11.966   0.300 -0.6153  0.7979 -0.5965
15911SOL     OW54847   3.807   7.551   6.669 -0.4078 -0.5090 -0.0288
15911SOL    HW154848   3.857   7.614   6.721 -0.3470 -2.3903  2.3753
15911SOL    HW254849   3.716   7.571   6.689 -0.5148  0.4066 -1.3144
15912SOL     OW54850  11.679   8.186  11.736 -0.3135  0.4898 -0.4260
15912SOL    HW154851  11.586   8.171  11.721 -0.1587 -0.8702 -0.0763
15912SOL    HW254852  11.714   8.209  11.649 -0.4749 -1.7108 -1.1146
15913SOL     OW54853   3.712   5.570   5.170 -0.9100 -0.2169 -0.7342
15913SOL    HW154854   3.662   5.650   5.152 -0.5279  0.1454 -0.2168
15913SOL    HW254855   3.669   5.532   5.247  0.1379  0.5917  0.3064
15914SOL     OW54856   5.291  10.639   5.963 -0.2020 -0.5936  0.1075
15914SOL    HW154857   5.304  10.589   5.883 -1.3814 -1.9327  0.7017
15914SOL    HW254858   5.353  10.601   6.026  0.2955  0.0470  0.0159
15915SOL     OW54859   3.096  11.328   4.779 -0.4277  0.3603 -0.3143
15915SOL    HW154860   3.178  11.285   4.802  0.9975  2.8954 -0.2720
15915SOL    HW254861   3.121  11.396   4.717 -2.4705  1.3873 -0.1156
15916SOL     OW54862  10.398  12.871  11.596 -0.0960  0.3759 -0.3297
15916SOL    HW154863  10.306  12.844  11.600  0.1415 -0.7366 -1.4362
15916SOL    HW254864  10.443  12.808  11.652 -0.2060  2.1772  1.9192
15917SOL     OW54865   8.939   8.437  11.452 -0.4873  0.2737 -0.1593
15917SOL    HW154866   8.921   8.372  11.521  0.3842 -0.4659 -0.5979
15917SOL    HW254867   8.975   8.512  11.499  0.4561 -0.3643  0.1898
15918SOL     OW54868   8.918   4.768   4.939  0.0259  0.6714  0.0469
15918SOL    HW154869   8.955   4.839   4.992 -0.3390  2.1520 -1.5734
15918SOL    HW254870   8.838   4.743   4.986  0.9016  0.3182  1.3905
15919SOL     OW54871  10.107   7.846   6.686 -0.5987 -0.4709  0.2026
15919SOL    HW154872  10.083   7.769   6.738 -0.9335 -0.7753 -0.4030
15919SOL    HW254873  10.056   7.839   6.606  0.1059 -0.1313 -0.2880
15920SOL     OW54874   7.480   5.314   2.657 -0.0239  0.3017 -0.3951
15920SOL    HW154875   7.493   5.233   2.606 -0.2467  0.1918 -0.2777
15920SOL    HW254876   7.498   5.384   2.594 -1.6831  0.1963 -1.0415
15921SOL     OW54877   8.741   3.976   8.264  0.7269  1.1007 -0.3317
15921SOL    HW154878   8.722   3.992   8.356  2.3328 -1.6528  0.5916
15921SOL    HW254879   8.808   4.041   8.242  1.7095  0.5957  1.0244
15922SOL     OW54880  11.232   4.446   9.163 -0.3016 -0.0386 -0.5594
15922SOL    HW154881  11.305   4.509   9.158  0.3417 -0.8225 -1.4301
15922SOL    HW254882  11.154   4.500   9.156  0.0904  1.0071  1.9477
15923SOL     OW54883   5.999   8.247   5.345 -0.0204  0.7505 -0.3281
15923SOL    HW154884   6.058   8.181   5.379  0.4405  0.0310 -2.3681
15923SOL    HW254885   6.008   8.321   5.406  0.1175 -0.7010  1.4894
15924SOL     OW54886  11.580   4.607  12.787 -0.9963 -0.4538  0.1782
15924SOL    HW154887  11.591   4.613  12.693  0.4267 -1.8684  0.2040
15924SOL    HW254888  11.635   4.677  12.823  0.5346 -1.4910 -0.0165
15925SOL     OW54889   2.327   2.114   6.595  0.2045  0.5181  0.0459
15925SOL    HW154890   2.399   2.056   6.573  1.0411  0.9402  1.5243
15925SOL    HW254891   2.265   2.105   6.523  2.1600  0.8563 -1.7613
15926SOL     OW54892  10.721   0.381  11.157  0.5191 -0.2720 -0.1864
15926SOL    HW154893  10.639   0.430  11.166  0.7291  0.0941 -0.2335
15926SOL    HW254894  10.768   0.426  11.088  1.4857  0.5552  0.9661
15927SOL     OW54895   2.790   5.832   3.730  0.1138 -0.2428 -0.3628
15927SOL    HW154896   2.793   5.808   3.823  3.3347  1.1976  0.0336
15927SOL    HW254897   2.803   5.749   3.684  2.1320 -0.5519  0.6574
15928SOL     OW54898   2.542   4.340   0.326  0.5091 -0.1982 -0.1686
15928SOL    HW154899   2.465   4.285   0.341 -1.0028  2.4718  2.8757
15928SOL    HW254900   2.530   4.374   0.237 -1.6676 -0.1147  0.1146
15929SOL     OW54901   5.784  11.948   6.068 -0.2750 -0.0536  0.1497
15929SOL    HW154902   5.693  11.923   6.086 -0.6771  1.5244  0.4503
15929SOL    HW254903   5.832  11.923   6.146 -0.4242 -0.9360 -0.0258
15930SOL     OW54904  12.376   4.347   4.754 -0.2386  0.1888  0.7485
15930SOL    HW154905  12.293   4.363   4.709 -1.0803  0.6466  2.3860
15930SOL    HW254906  12.383   4.418   4.817  3.4416  2.6415 -1.9775
15931SOL     OW54907   7.804  12.787  12.771  0.0497 -0.1736 -0.2194
15931SOL    HW154908   7.824  12.696  12.750  2.4660  0.6006 -1.5790
15931SOL    HW254909   7.787  12.828  12.686  0.9224  1.0514  0.1771
15932SOL     OW54910   9.970  10.779   7.169 -0.5222 -0.0558  0.1260
15932SOL    HW154911   9.960  10.873   7.180  0.3465  0.0748 -0.1270
15932SOL    HW254912   9.885  10.749   7.137 -1.6755  0.2151  2.7578
15933SOL     OW54913   3.221   3.291  12.008  0.3472  0.4702 -1.2051
15933SOL    HW154914   3.293   3.342  12.044 -0.2158  0.6494 -0.3214
15933SOL    HW254915   3.250   3.200  12.015  0.8108  0.5861 -1.5877
15934SOL     OW54916   3.622   1.197   7.714 -0.3461 -0.3856 -0.0408
15934SOL    HW154917   3.534   1.168   7.737  0.3480 -0.1785  3.3118
15934SOL    HW254918   3.608   1.275   7.660 -2.3490  1.4698  2.8774
15935SOL     OW54919   6.494   2.433  10.176  0.0550 -0.2554  0.1403
15935SOL    HW154920   6.486   2.359  10.116  0.5798 -0.2206  0.0180
15935SOL    HW254921   6.404   2.460  10.193 -0.0801  0.7739 -1.9213
15936SOL     OW54922   2.313   9.423  11.033  0.0964  0.6652 -0.4309
15936SOL    HW154923   2.305   9.496  11.095  2.0134  0.9836 -0.5103
15936SOL    HW254924   2.285   9.460  10.949 -1.0333  0.6596 -0.0810
15937SOL     OW54925   1.102   1.268  11.784  0.6309  0.2988  0.2570
15937SOL    HW154926   1.089   1.229  11.870 -1.3641 -0.0627 -0.1579
15937SOL    HW254927   1.022   1.318  11.769  1.3000  1.0133 -1.0606
15938SOL     OW54928   3.689   6.633   3.777 -0.1628  0.4017  0.3218
15938SOL    HW154929   3.644   6.708   3.738 -0.6968 -0.2378 -0.3165
15938SOL    HW254930   3.625   6.562   3.772  0.5836 -0.2709  0.2963
15939SOL     OW54931   9.469  11.046  12.506  0.5542  0.2448  0.0318
15939SOL    HW154932   9.498  11.020  12.593  0.9166 -0.2453 -0.2324
15939SOL    HW254933   9.446  11.139  12.515 -0.1603  0.0043  0.8324
15940SOL     OW54934   0.565   5.873   8.216 -0.3387 -0.1695 -0.1206
15940SOL    HW154935   0.634   5.927   8.176  0.6315 -1.4732 -0.2651
15940SOL    HW254936   0.570   5.893   8.309  1.3600 -1.4201  0.1048
15941SOL     OW54937   9.288   3.161   2.194  0.4846  0.0939  0.5189
15941SOL    HW154938   9.231   3.087   2.215  0.4346  0.2802  1.0574
15941SOL    HW254939   9.234   3.217   2.138  0.5850 -0.3596 -0.0430
15942SOL     OW54940   7.377   5.131   6.855 -0.3925 -0.5968 -0.5826
15942SOL    HW154941   7.353   5.182   6.933  0.3026  0.3064 -0.9406
15942SOL    HW254942   7.351   5.187   6.781 -0.4529 -1.1634 -0.9925
15943SOL     OW54943   8.271   5.550   9.824 -0.7551  0.4946  0.2586
15943SOL    HW154944   8.247   5.641   9.844  0.6900  0.8941  0.3159
15943SOL    HW254945   8.328   5.524   9.896 -0.8851 -0.3512  0.0666
15944SOL     OW54946   4.929   2.851  12.146 -0.1315  0.0146  0.4236
15944SOL    HW154947   4.925   2.916  12.215  0.8375  0.2857  0.2466
15944SOL    HW254948   5.017   2.813  12.154  0.8716  1.5392 -1.9368
15945SOL     OW54949   2.061   9.039   5.343 -0.0118  0.1094 -0.3856
15945SOL    HW154950   2.082   8.970   5.282  0.2852  0.6890 -0.9485
15945SOL    HW254951   2.042   8.994   5.425  0.3827 -0.6146 -0.6886
15946SOL     OW54952  12.294   3.275  10.195  0.5388 -0.0748  0.3727
15946SOL    HW154953  12.308   3.218  10.271  3.6948 -2.0549 -1.4961
15946SOL    HW254954  12.214   3.241  10.154  1.3965 -2.1272  0.2888
15947SOL     OW54955   5.589  10.208   3.652 -0.1779  0.2694  0.0758
15947SOL    HW154956   5.553  10.281   3.702  0.4191  0.8269 -0.2846
15947SOL    HW254957   5.595  10.241   3.562  1.5455  0.3354  0.1807
15948SOL     OW54958  10.527  12.189   7.466 -0.2327  0.0494  0.8342
15948SOL    HW154959  10.500  12.278   7.446  1.6784  0.1104 -2.0414
15948SOL    HW254960  10.600  12.199   7.528 -0.2433  0.4488  0.7849
15949SOL     OW54961  12.199  10.961   0.245  0.0301 -0.4661  0.1044
15949SOL    HW154962  12.175  10.996   0.159 -1.7080 -0.7504  0.4425
15949SOL    HW254963  12.126  10.984   0.301  0.8572 -0.8491  1.3721
15950SOL     OW54964   4.714   1.636   8.216 -0.1187  0.4369 -0.3570
15950SOL    HW154965   4.805   1.658   8.196  0.7703 -0.8042  1.9117
15950SOL    HW254966   4.718   1.547   8.251 -1.7358  1.3775  2.5731
15951SOL     OW54967  10.351  10.319   7.552  0.3349 -0.6667  0.0950
15951SOL    HW154968  10.404  10.398   7.565  0.2611 -0.4147 -0.9894
15951SOL    HW254969  10.334  10.286   7.640  1.8262 -0.4392  0.4951
15952SOL     OW54970   2.636   2.016   3.403 -0.5588 -0.3521 -0.5235
15952SOL    HW154971   2.566   1.984   3.460 -0.5957 -0.9784 -0.9128
15952SOL    HW254972   2.608   1.994   3.315  0.2981 -0.9520 -0.6622
15953SOL     OW54973   5.397   4.381   6.396  0.2476 -0.0605  0.0659
15953SOL    HW154974   5.434   4.293   6.393  1.7342  0.5263  0.3632
15953SOL    HW254975   5.332   4.382   6.326  0.3872 -1.2948 -0.1159
15954SOL     OW54976   6.138   1.287   3.624 -0.3529  0.0456 -0.0583
15954SOL    HW154977   6.191   1.290   3.703  0.5768  2.4602 -0.6791
15954SOL    HW254978   6.071   1.353   3.637 -0.4167  0.2169 -1.1059
15955SOL     OW54979   6.089   2.215   8.949  0.0012 -0.4236 -0.0449
15955SOL    HW154980   6.019   2.182   8.893  1.2629  0.6678 -2.4272
15955SOL    HW254981   6.058   2.301   8.978 -0.3826 -0.7163  0.4327
15956SOL     OW54982   4.354   3.497  10.112 -0.0662 -0.0275 -0.2038
15956SOL    HW154983   4.305   3.457  10.184  1.3011 -2.9786 -0.7980
15956SOL    HW254984   4.349   3.434  10.041  1.3437  1.3561 -1.6012
15957SOL     OW54985   4.755   0.402   7.393 -0.1128 -0.0613 -0.6441
15957SOL    HW154986   4.669   0.409   7.434 -0.2925  1.1833 -1.2019
15957SOL    HW254987   4.770   0.307   7.385 -0.6047 -0.3108  1.1315
15958SOL     OW54988  11.026   5.509   7.690 -0.2049  0.4111 -0.2623
15958SOL    HW154989  10.974   5.428   7.685  0.1979 -0.0383  1.8485
15958SOL    HW254990  11.117   5.480   7.679 -0.0516  0.5462  0.5853
15959SOL     OW54991   2.752   4.055   3.499 -0.6649  0.4963 -0.5000
15959SOL    HW154992   2.795   4.025   3.419  0.2820  0.0668  0.1546
15959SOL    HW254993   2.693   3.984   3.522 -0.1880  0.1675 -0.2686
15960SOL     OW54994   6.165  11.317  12.842 -0.1843  0.4409  0.3658
15960SOL    HW154995   6.199  11.247  12.899  1.7437  0.7228 -0.3657
15960SOL    HW254996   6.133  11.271  12.765  0.4494  0.3027  0.1803
15961SOL     OW54997  10.497   1.262   8.691 -0.0096 -0.2920  0.2696
15961SOL    HW154998  10.492   1.273   8.786  1.5230  0.3849  0.2948
15961SOL    HW254999  10.450   1.337   8.656  1.6291  0.9007  0.5090
15962SOL     OW55000  11.496   6.930   6.689  0.0723 -0.2197 -0.2950
15962SOL    HW155001  11.416   6.934   6.636 -0.1608 -0.6125  0.0152
15962SOL    HW255002  11.471   6.875   6.764  0.3082  0.5593  0.3712
15963SOL     OW55003   5.761   5.330   1.332  0.3578 -0.0136  0.4900
15963SOL    HW155004   5.782   5.332   1.425  0.0864 -0.5115  0.5650
15963SOL    HW255005   5.677   5.284   1.327  0.9862 -1.1491 -0.1060
15964SOL     OW55006   4.952   4.409   0.088  0.0870  0.4118 -0.0849
15964SOL    HW155007   4.957   4.504   0.092  0.1728  0.4178 -0.3146
15964SOL    HW255008   5.041   4.380   0.068 -0.4622  0.4656 -3.0354
15965SOL     OW55009   5.421  10.335   6.688  0.0382 -0.0642 -0.2701
15965SOL    HW155010   5.396  10.328   6.780  1.4180 -1.5910  0.0449
15965SOL    HW255011   5.340  10.321   6.639 -0.5111 -0.3521  0.7084
15966SOL     OW55012   9.544  10.475   8.504  0.4897  0.5125 -0.2051
15966SOL    HW155013   9.568  10.405   8.565 -0.0632 -0.0454 -0.6139
15966SOL    HW255014   9.552  10.435   8.418  1.7099  1.4302 -0.5389
15967SOL     OW55015   2.207   2.148   7.782  0.0201 -0.0221  0.1380
15967SOL    HW155016   2.202   2.065   7.734  0.4228  0.5671 -0.9305
15967SOL    HW255017   2.286   2.140   7.836 -0.0956 -0.4345  0.2506
15968SOL     OW55018   9.904  10.922   4.128  0.1013  0.3232 -0.1701
15968SOL    HW155019   9.875  10.852   4.069 -1.0367 -0.8115  1.6138
15968SOL    HW255020   9.982  10.886   4.170 -0.4577  0.0934  0.7132
15969SOL     OW55021   0.104   4.661   1.823  0.5648  0.5491 -0.2462
15969SOL    HW155022   0.059   4.578   1.837  0.0445  0.8278 -0.2657
15969SOL    HW255023   0.151   4.648   1.740  1.8339 -0.3031  0.5573
15970SOL     OW55024  11.779   3.735  10.728  0.2413  0.0066 -0.2054
15970SOL    HW155025  11.778   3.639  10.731  0.2687  0.0153  2.0388
15970SOL    HW255026  11.872   3.758  10.732  0.2706  0.1541 -1.3608
15971SOL     OW55027   0.367   7.250   7.214  0.0044 -0.1334 -0.6979
15971SOL    HW155028   0.390   7.343   7.208  0.2735 -0.0964  0.7011
15971SOL    HW255029   0.271   7.250   7.214 -0.0436  0.3642  1.7085
15972SOL     OW55030   9.534   9.792   9.052 -0.5094 -0.0359 -0.4307
15972SOL    HW155031   9.457   9.741   9.028 -1.6915  1.7065 -0.4725
15972SOL    HW255032   9.523   9.876   9.007  0.3321  1.0183  1.2129
15973SOL     OW55033   4.102  10.584   0.005 -0.0599 -0.1895  0.1053
15973SOL    HW155034   4.138  10.595  -0.082  0.0000 -1.5123 -0.0626
15973SOL    HW255035   4.012  10.554  -0.009 -0.2541  0.1826  0.5048
15974SOL     OW55036   7.789   3.627  10.109 -0.0110  0.3105  0.3677
15974SOL    HW155037   7.829   3.606  10.024 -1.5565  1.5133 -0.7303
15974SOL    HW255038   7.777   3.543  10.152 -1.8696 -0.7312 -1.9235
15975SOL     OW55039   0.828   0.303   9.970  0.2665  0.0043 -0.5280
15975SOL    HW155040   0.809   0.296  10.063  0.7872 -0.1554 -0.4313
15975SOL    HW255041   0.785   0.383   9.942 -0.7939 -0.4993 -0.3817
15976SOL     OW55042   4.159   1.872   9.320  0.1096 -0.3470  0.1957
15976SOL    HW155043   4.139   1.937   9.388 -0.2892  0.5031 -0.6894
15976SOL    HW255044   4.112   1.905   9.243  0.0423 -1.6151 -0.3251
15977SOL     OW55045   4.397  10.523   2.717  0.0341 -0.5183 -0.0733
15977SOL    HW155046   4.403  10.602   2.771 -1.2644 -0.3215 -0.1723
15977SOL    HW255047   4.387  10.451   2.779  1.1130 -0.6040  0.0139
15978SOL     OW55048   7.828   6.924  12.513 -0.3793 -0.1142 -0.9743
15978SOL    HW155049   7.769   6.873  12.457  0.0754 -1.9535  0.1119
15978SOL    HW255050   7.820   6.883  12.599  0.8778  0.9747 -0.2995
15979SOL     OW55051   2.830   4.726   4.660  0.5939  0.3538 -0.0905
15979SOL    HW155052   2.922   4.750   4.670  1.7492 -3.4474  0.0125
15979SOL    HW255053   2.796   4.728   4.750  0.3418  2.3591 -0.1963
15980SOL     OW55054   8.062  10.136   9.504  0.5173 -0.3165  0.5949
15980SOL    HW155055   8.030  10.103   9.587  1.0659 -0.0265  0.9299
15980SOL    HW255056   8.038  10.228   9.503 -0.0820 -0.4750  0.1299
15981SOL     OW55057   4.120   2.451   2.767 -0.7598  0.5626 -0.0722
15981SOL    HW155058   4.202   2.492   2.737  0.8849 -2.3374  0.0829
15981SOL    HW255059   4.077   2.422   2.686  0.7645 -2.0089 -0.0757
15982SOL     OW55060   2.369   9.092  11.458 -0.2827 -0.0059 -0.2066
15982SOL    HW155061   2.329   9.006  11.444  2.3299 -1.7432  1.9876
15982SOL    HW255062   2.461   9.079  11.435  0.3535  1.9539  1.0067
15983SOL     OW55063   4.065   6.625   9.853  0.1738 -0.0738 -0.1163
15983SOL    HW155064   4.078   6.693   9.919 -1.8030  1.3209 -1.0561
15983SOL    HW255065   4.117   6.654   9.778 -4.2183  3.2956 -2.3558
15984SOL     OW55066  12.715   2.890  12.372 -0.2397 -0.0271 -0.2672
15984SOL    HW155067  12.686   2.882  12.463 -1.3023  0.0287 -0.5956
15984SOL    HW255068  12.793   2.834  12.367 -0.8696 -0.9827  0.3706
15985SOL     OW55069   8.273  11.954  12.171  0.0111 -0.1250 -0.5130
15985SOL    HW155070   8.223  12.033  12.194  0.9616 -0.0132  1.3434
15985SOL    HW255071   8.318  11.978  12.090  3.7632  3.0320  2.1470
15986SOL     OW55072  10.906  11.231  10.578 -0.0667  0.5234 -0.0042
15986SOL    HW155073  10.998  11.205  10.570  0.1930  1.2346  0.5944
15986SOL    HW255074  10.893  11.292  10.505  0.1888  1.1129  0.4383
15987SOL     OW55075  12.443   0.876   8.642 -0.3076 -0.2098 -0.0642
15987SOL    HW155076  12.357   0.860   8.681 -0.3997  0.3940 -0.0025
15987SOL    HW255077  12.439   0.967   8.613  0.1109 -0.3553 -0.5885
15988SOL     OW55078   9.558   5.211   9.021  0.2519  0.1078  0.5577
15988SOL    HW155079   9.604   5.189   8.940 -2.1210 -1.5931 -0.4407
15988SOL    HW255080   9.612   5.173   9.090  1.9750  1.0051 -0.2485
15989SOL     OW55081  11.851   5.844   3.923  0.3271  0.5420 -0.0548
15989SOL    HW155082  11.883   5.832   4.013  2.7649  2.3943 -0.5542
15989SOL    HW255083  11.782   5.910   3.931  0.5474  0.7159  0.4755
15990SOL     OW55084   3.798   2.194   0.791  0.2379 -0.4572  0.3411
15990SOL    HW155085   3.792   2.111   0.743 -0.2144 -0.3801  0.2660
15990SOL    HW255086   3.804   2.261   0.723 -0.0610 -0.3752  0.3938
15991SOL     OW55087  12.491   5.330   0.102  0.1959  0.0375  0.4875
15991SOL    HW155088  12.422   5.345   0.167  0.7229 -0.5454  1.1927
15991SOL    HW255089  12.489   5.409   0.047 -0.7752  0.1928  0.7304
15992SOL     OW55090   1.442  10.055   7.013  0.9550 -0.4261 -0.2968
15992SOL    HW155091   1.482  10.059   6.926 -0.3478  1.0282 -0.8656
15992SOL    HW255092   1.349  10.068   6.997  0.5644 -1.1638  1.2427
15993SOL     OW55093   7.725  11.045   7.463 -0.3508 -0.2510 -0.4280
15993SOL    HW155094   7.793  11.107   7.437 -2.2219  1.1830 -2.2994
15993SOL    HW255095   7.643  11.088   7.438 -2.1403 -1.0661  3.3702
15994SOL     OW55096  10.884  11.804   7.970 -0.7519 -0.1055 -0.3745
15994SOL    HW155097  10.809  11.745   7.962  0.0709 -1.2956  0.4852
15994SOL    HW255098  10.864  11.856   8.049 -0.2947 -1.0227  0.3674
15995SOL     OW55099  12.449  11.617   1.553 -0.0008  0.3331  0.1870
15995SOL    HW155100  12.383  11.607   1.484  0.2875 -0.4323  0.0073
15995SOL    HW255101  12.431  11.545   1.614  0.7069  0.0637  0.0960
15996SOL     OW55102   5.273  10.846   8.595 -0.3131 -0.2757 -0.0721
15996SOL    HW155103   5.345  10.826   8.535 -1.1434 -2.0040 -0.5435
15996SOL    HW255104   5.316  10.860   8.679  0.7435  0.8143 -0.7696
15997SOL     OW55105  11.289   5.384  11.861 -0.0486 -0.3574  0.0220
15997SOL    HW155106  11.345   5.364  11.786  1.7145  1.3791  0.7942
15997SOL    HW255107  11.232   5.454  11.830 -0.8104 -1.0897 -0.2942
15998SOL     OW55108   5.190   3.604   0.112 -0.0789 -0.1268 -0.0996
15998SOL    HW155109   5.265   3.600   0.052 -0.9393 -0.9791 -1.1778
15998SOL    HW255110   5.195   3.522   0.162 -1.4891 -1.2874 -1.7445
15999SOL     OW55111   4.299   9.612   6.820  0.1868 -0.2322 -0.5352
15999SOL    HW155112   4.239   9.611   6.895 -2.3824  0.4732 -2.4588
15999SOL    HW255113   4.371   9.669   6.849 -1.5274  1.3608  0.8400
16000SOL     OW55114   9.932   7.687   0.186 -0.0317 -0.0166  0.0938
16000SOL    HW155115   9.885   7.733   0.256  1.5201  0.8056  0.6424
16000SOL    HW255116   9.990   7.754   0.149  0.2720 -0.8488 -0.9534
16001SOL     OW55117   7.726   8.085   5.889 -0.5007 -0.2246 -0.1669
16001SOL    HW155118   7.704   8.033   5.967 -0.4697 -1.8455 -1.1939
16001SOL    HW255119   7.761   8.021   5.827 -1.7489  0.8131 -2.0121
16002SOL     OW55120   4.190  12.463   2.220 -0.6466  0.0438  0.1286
16002SOL    HW155121   4.236  12.424   2.145 -1.0223 -1.2603  0.5549
16002SOL    HW255122   4.099  12.468   2.191 -0.4825  1.4095 -0.2252
16003SOL     OW55123   1.319  10.617   8.070  0.2774 -0.0954 -0.1607
16003SOL    HW155124   1.402  10.584   8.034 -0.3392 -1.6213 -0.2561
16003SOL    HW255125   1.302  10.697   8.020  2.0755  0.6834  0.4139
16004SOL     OW55126   3.296  11.645   3.095 -0.5900  0.2895  0.0917
16004SOL    HW155127   3.247  11.725   3.076 -0.3876  0.0052 -1.7869
16004SOL    HW255128   3.310  11.604   3.010  0.2161 -1.2311  0.9099
16005SOL     OW55129  11.622   0.948  12.931  0.6146 -0.6126  0.3481
16005SOL    HW155130  11.708   0.930  12.893  0.8152 -1.7525  1.2862
16005SOL    HW255131  11.560   0.932  12.859  0.9813 -2.7414  0.4340
16006SOL     OW55132   2.037  10.734  11.721  0.7325 -0.0744  0.1435
16006SOL    HW155133   2.115  10.768  11.764  1.6995  0.9608 -2.2412
16006SOL    HW255134   1.982  10.811  11.705 -0.0924 -0.5829  0.4615
16007SOL     OW55135   2.505   2.293  11.239 -0.3383 -0.2771 -0.3321
16007SOL    HW155136   2.533   2.331  11.322 -0.3866 -0.7009 -0.1149
16007SOL    HW255137   2.423   2.247  11.260 -0.3493 -0.3881 -0.6108
16008SOL     OW55138   5.108   5.952   9.414  0.6120  0.1476 -0.3286
16008SOL    HW155139   5.134   5.896   9.341 -1.8005  1.1627 -2.1032
16008SOL    HW255140   5.047   5.899   9.464  0.2842  0.3169 -0.5456
16009SOL     OW55141   6.678   8.348   0.294  0.1386 -0.6455 -0.0777
16009SOL    HW155142   6.772   8.332   0.289 -0.2186 -3.4856  0.6153
16009SOL    HW255143   6.654   8.329   0.385 -0.9026  1.7595  0.2356
16010SOL     OW55144  12.545   7.247   4.254  0.1734  0.4188 -0.3084
16010SOL    HW155145  12.553   7.241   4.159  1.2423 -0.2714 -0.1962
16010SOL    HW255146  12.612   7.309   4.281 -0.4144  0.9493 -0.0274
16011SOL     OW55147   5.005  11.097   2.080  0.0509  0.2596  0.1521
16011SOL    HW155148   4.928  11.154   2.089 -1.2067 -1.4305  0.5939
16011SOL    HW255149   4.975  11.025   2.025  1.8263  0.3518 -1.0238
16012SOL     OW55150  12.260   2.381  10.623 -0.4857  0.2478  0.3900
16012SOL    HW155151  12.195   2.329  10.670  0.5041 -2.0556 -0.6017
16012SOL    HW255152  12.209   2.441  10.569 -1.7789 -1.0161  0.1479
16013SOL     OW55153   8.458   9.943   3.938 -0.1957  0.3272 -0.2781
16013SOL    HW155154   8.408   9.990   4.005 -0.8914  1.0005 -1.2354
16013SOL    HW255155   8.467   9.855   3.972 -3.4348 -0.3112 -0.6863
16014SOL     OW55156  10.914   8.705   2.702 -0.5425  0.7447  0.1593
16014SOL    HW155157  10.863   8.779   2.735 -0.5065 -0.0233  2.0502
16014SOL    HW255158  10.855   8.661   2.640 -0.8345  1.8979 -0.4160
16015SOL     OW55159   8.586  12.223   9.796 -0.1297  0.0399  0.3134
16015SOL    HW155160   8.600  12.175   9.715  0.2899 -1.7459  1.3804
16015SOL    HW255161   8.497  12.257   9.789 -0.6932 -1.4544 -0.2599
16016SOL     OW55162  11.975   3.791   4.749 -0.0583  0.0445  0.1742
16016SOL    HW155163  12.051   3.780   4.805 -0.8194 -1.9621  0.9202
16016SOL    HW255164  11.996   3.867   4.694  0.8924  1.8349  2.8207
16017SOL     OW55165  11.499   6.638   1.892  0.4125 -0.1159  0.1303
16017SOL    HW155166  11.489   6.619   1.985  0.7108  1.2302  0.4610
16017SOL    HW255167  11.420   6.688   1.870  0.9869  0.7427 -0.0048
16018SOL     OW55168   2.355   6.197   8.207 -0.0930 -0.1275  0.0125
16018SOL    HW155169   2.412   6.120   8.205 -1.4901 -1.2350  0.6709
16018SOL    HW255170   2.322   6.204   8.118  1.4244  0.8343 -0.5052
16019SOL     OW55171   7.046  11.027   0.276 -0.2865 -0.4528  0.4031
16019SOL    HW155172   7.079  10.986   0.356 -0.5624 -1.1682  0.1596
16019SOL    HW255173   7.015  10.953   0.223 -2.3354  0.1929  0.6362
16020SOL     OW55174  11.802   2.706  11.760 -0.5479  0.0487  0.2625
16020SOL    HW155175  11.857   2.654  11.702 -0.8607  0.0756 -0.0627
16020SOL    HW255176  11.808   2.661  11.844 -0.3668 -0.1920  0.1242
16021SOL     OW55177   6.804   9.998   0.892  0.1333  0.4373 -0.2913
16021SOL    HW155178   6.881   9.942   0.897  0.5864  0.5968 -3.3098
16021SOL    HW255179   6.824  10.059   0.820 -2.8670  0.3092 -1.3701
16022SOL     OW55180  12.217   4.074   3.517 -0.0184 -0.0277 -0.2865
16022SOL    HW155181  12.129   4.112   3.509 -0.5253 -0.9628  0.6796
16022SOL    HW255182  12.211   4.016   3.592  2.0171  1.4674  1.1169
16023SOL     OW55183   1.041  10.987   2.960 -0.3572 -0.4127 -0.2262
16023SOL    HW155184   1.108  10.922   2.981  1.2392  0.8138 -1.2859
16023SOL    HW255185   1.088  11.069   2.953 -2.1158  0.6530 -0.2759
16024SOL     OW55186   3.557   7.213   1.222 -0.4674  0.2907  0.3411
16024SOL    HW155187   3.619   7.142   1.238  1.0376  1.6717  0.9248
16024SOL    HW255188   3.541   7.211   1.128 -0.1054 -0.5451  0.2909
16025SOL     OW55189  11.692  11.779  11.243  0.2908  0.5820  0.2563
16025SOL    HW155190  11.652  11.809  11.162 -1.8330  0.8916  1.3219
16025SOL    HW255191  11.703  11.858  11.295  1.2048  0.3346  0.4557
16026SOL     OW55192  12.201   9.295   3.037 -0.1482 -0.3507 -0.3300
16026SOL    HW155193  12.206   9.240   3.115 -0.6670  0.0985  0.0293
16026SOL    HW255194  12.134   9.360   3.058 -0.0418 -0.0107 -1.0168
16027SOL     OW55195   3.596   1.011   3.947 -0.3290 -0.1354  0.2090
16027SOL    HW155196   3.620   0.994   3.855  0.7994 -0.0467  0.4632
16027SOL    HW255197   3.624   0.933   3.994  1.9434  0.9732  0.9031
16028SOL     OW55198   8.122   3.984   8.414 -0.9199 -0.3729  0.0657
16028SOL    HW155199   8.104   4.058   8.472 -1.0902 -1.4083  1.3680
16028SOL    HW255200   8.205   3.949   8.445 -1.1404 -1.0913 -0.1314
16029SOL     OW55201  10.119   5.916   0.666 -0.2116 -0.2251 -0.0317
16029SOL    HW155202  10.139   5.829   0.701  0.1336  0.7168  2.3326
16029SOL    HW255203  10.147   5.912   0.575  2.5542 -1.7188  0.7566
16030SOL     OW55204   4.784  12.375   6.066  0.4176 -0.2835  0.3358
16030SOL    HW155205   4.765  12.461   6.027 -0.2489 -0.4711  0.2385
16030SOL    HW255206   4.844  12.334   6.004  0.7733  0.1275  0.4032
16031SOL     OW55207   7.145   4.885   8.000  0.2012 -0.5304 -0.3865
16031SOL    HW155208   7.079   4.880   8.069  1.4880  0.8810  1.0026
16031SOL    HW255209   7.220   4.836   8.033  0.7461 -0.0606 -0.8893
16032SOL     OW55210   8.160   8.802  12.029 -0.0179  0.6140 -0.1808
16032SOL    HW155211   8.140   8.810  11.936  1.1543  0.0263 -0.5041
16032SOL    HW255212   8.207   8.719  12.037 -1.4345 -0.1175  1.1860
16033SOL     OW55213   3.449   5.865  11.508  0.3101  0.0354 -0.0436
16033SOL    HW155214   3.464   5.925  11.435 -1.3159  0.6614  0.0907
16033SOL    HW255215   3.413   5.786  11.467 -0.1127  0.1919  0.0177
16034SOL     OW55216   9.565   0.634   4.526  0.0245 -0.0302 -0.3279
16034SOL    HW155217   9.572   0.577   4.450  2.8913  0.9194 -0.9009
16034SOL    HW255218   9.583   0.577   4.601 -2.3673 -0.8697 -0.2856
16035SOL     OW55219   0.672   6.249   9.644 -0.5808  0.2034  0.3863
16035SOL    HW155220   0.699   6.320   9.586  0.9572 -0.7054 -0.0769
16035SOL    HW255221   0.740   6.247   9.712  0.2660 -1.7381 -0.4428
16036SOL     OW55222  11.281  10.091   0.301  1.1192 -0.0560  0.5795
16036SOL    HW155223  11.255  10.123   0.388 -0.7641  0.4577 -0.1245
16036SOL    HW255224  11.214  10.125   0.242  3.0564  0.6906 -1.3135
16037SOL     OW55225   9.613   2.568   3.537 -0.3282 -0.4181  0.9887
16037SOL    HW155226   9.543   2.533   3.482 -0.1504  0.3900  0.2246
16037SOL    HW255227   9.654   2.491   3.576 -1.7866 -0.9022  1.6455
16038SOL     OW55228   9.549   6.137   3.840 -0.0892 -0.3712  0.2602
16038SOL    HW155229   9.492   6.206   3.874 -1.3397  0.2665 -2.8308
16038SOL    HW255230   9.502   6.056   3.859 -0.4739 -0.0802  0.5643
16039SOL     OW55231  10.503  12.333   0.793 -0.3105  0.0410 -0.2202
16039SOL    HW155232  10.495  12.257   0.736 -1.9661 -0.1030  0.1651
16039SOL    HW255233  10.461  12.307   0.874  1.3779  0.4984  0.8634
16040SOL     OW55234   7.768   8.493  12.652  0.0801  0.1922  0.1621
16040SOL    HW155235   7.683   8.486  12.609 -0.0148  0.8009  0.2356
16040SOL    HW255236   7.750   8.478  12.744  0.3855 -1.7772 -0.0647
16041SOL     OW55237   6.900   9.099   1.058  0.0706  0.0288 -0.2565
16041SOL    HW155238   6.916   9.006   1.071 -0.8656  0.0071  0.8892
16041SOL    HW255239   6.842   9.103   0.981  3.0029 -0.0470 -2.6555
16042SOL     OW55240   8.130   4.889   0.043  0.0352 -0.0551 -0.4531
16042SOL    HW155241   8.146   4.892  -0.052  0.0193 -1.6549 -0.5342
16042SOL    HW255242   8.217   4.877   0.081 -0.1367 -1.5393 -0.4384
16043SOL     OW55243   3.028   2.690   4.775  0.2330 -0.0311 -0.2800
16043SOL    HW155244   3.098   2.723   4.832  0.0732 -1.4231  0.7643
16043SOL    HW255245   2.972   2.639   4.833 -0.6633 -0.4188 -1.4554
16044SOL     OW55246  10.266   2.928   6.920  0.2172 -0.1555  0.2364
16044SOL    HW155247  10.290   2.887   7.003 -1.2544 -2.7409 -0.5050
16044SOL    HW255248  10.329   2.894   6.857  0.4708  0.7041  0.0057
16045SOL     OW55249   4.920   2.420   4.448 -0.3200 -0.4517  0.6420
16045SOL    HW155250   5.008   2.448   4.474  0.0209 -0.7493 -0.1267
16045SOL    HW255251   4.926   2.410   4.353 -1.3832  0.1772  0.5023
16046SOL     OW55252   5.677  10.472  10.197 -0.0063  0.5306  0.0285
16046SOL    HW155253   5.752  10.532  10.200  1.4090 -1.1096 -1.1023
16046SOL    HW255254   5.715  10.385  10.207 -1.8979 -0.2878  0.5254
16047SOL     OW55255   2.183   8.051  12.507 -0.7290  0.4884 -0.1127
16047SOL    HW155256   2.248   8.121  12.499  0.6602 -0.9245 -2.4642
16047SOL    HW255257   2.132   8.058  12.426 -0.7203 -1.0287 -0.2650
16048SOL     OW55258   3.165   8.630   5.343 -0.2918 -0.2074  0.3750
16048SOL    HW155259   3.257   8.603   5.340 -0.5382 -1.0935  0.6989
16048SOL    HW255260   3.151   8.658   5.434  0.7091  3.7961 -0.5010
16049SOL     OW55261   4.858  10.527   2.050 -0.6672  0.1372  0.1383
16049SOL    HW155262   4.787  10.463   2.048  0.1970 -0.8411 -0.9430
16049SOL    HW255263   4.931  10.482   2.092 -1.1638  1.7423  2.9506
16050SOL     OW55264   7.601  11.116   7.213 -0.1519 -0.0827 -0.0267
16050SOL    HW155265   7.599  11.025   7.241 -1.0848 -0.3769 -0.9901
16050SOL    HW255266   7.655  11.115   7.134 -0.9030  0.0247 -0.5561
16051SOL     OW55267  12.579   6.351   1.015  0.3313  0.2059 -0.1425
16051SOL    HW155268  12.491   6.351   0.977  0.1036  1.4283  0.3237
16051SOL    HW255269  12.584   6.268   1.062 -0.2828 -0.2246 -0.7999
16052SOL     OW55270  12.732   0.643   4.312 -0.2118  0.2451 -0.4974
16052SOL    HW155271  12.815   0.596   4.304  1.2025  2.2839  1.0295
16052SOL    HW255272  12.683   0.594   4.378 -0.0662 -0.7595 -1.1184
16053SOL     OW55273   9.197   3.465   6.525  0.2582  0.0747 -0.8146
16053SOL    HW155274   9.241   3.431   6.446  1.2115 -2.9583  0.8627
16053SOL    HW255275   9.109   3.428   6.520  0.5508 -0.7476 -0.1573
16054SOL     OW55276  10.354  10.242   6.935  0.5607 -0.2856 -0.0189
16054SOL    HW155277  10.270  10.256   6.979  0.1039  0.4529 -1.0647
16054SOL    HW255278  10.369  10.323   6.886  2.4430  0.0285  1.0119
16055SOL     OW55279   8.275   0.776   8.357  0.4376  0.6101 -0.0989
16055SOL    HW155280   8.364   0.740   8.361 -0.0206 -0.5394  0.2692
16055SOL    HW255281   8.254   0.776   8.264  0.5303  0.1207 -0.1236
16056SOL     OW55282   6.488  10.344   9.295 -0.5823 -0.6759  0.0258
16056SOL    HW155283   6.559  10.391   9.340 -1.2157  1.2907 -0.9329
16056SOL    HW255284   6.427  10.320   9.365  0.4796 -1.4696  0.7222
16057SOL     OW55285  12.530   5.775  12.201 -0.0798 -0.6032  0.3464
16057SOL    HW155286  12.502   5.779  12.110 -0.1293 -0.5716  0.3621
16057SOL    HW255287  12.515   5.684  12.226 -0.8529 -0.4253  0.5698
16058SOL     OW55288   3.316  10.905   5.706 -0.4812  0.0438 -0.6114
16058SOL    HW155289   3.301  10.910   5.801  1.0183  0.7210 -0.3755
16058SOL    HW255290   3.292  10.815   5.682  0.4751 -0.5837  0.6789
16059SOL     OW55291   3.667  10.850   4.988  0.6108 -0.0206 -0.6369
16059SOL    HW155292   3.719  10.851   5.068 -0.2839  1.6986 -0.0355
16059SOL    HW255293   3.726  10.812   4.922  3.0615  2.7398 -0.2377
16060SOL     OW55294   6.128   5.371   3.979 -0.0703 -0.0786  0.2331
16060SOL    HW155295   6.145   5.375   3.885 -1.3919  1.3468  0.0047
16060SOL    HW255296   6.164   5.452   4.013 -4.3712  2.2467 -0.0280
16061SOL     OW55297   4.706   5.601   2.749 -0.0628 -0.3225  0.6285
16061SOL    HW155298   4.650   5.678   2.758  0.1000 -0.1394  0.0828
16061SOL    HW255299   4.689   5.550   2.829  0.2981  0.5754  1.2908
16062SOL     OW55300  10.915  12.721   3.536  0.0106  0.0090 -0.1715
16062SOL    HW155301  10.903  12.754   3.447 -1.3497 -1.3065 -0.5029
16062SOL    HW255302  10.970  12.643   3.526 -1.4456 -1.0636 -0.0784
16063SOL     OW55303   2.335   4.655   5.672  0.2022 -0.3258 -0.2705
16063SOL    HW155304   2.422   4.629   5.644  0.3387  0.9091 -1.1031
16063SOL    HW255305   2.285   4.662   5.591  0.6268  3.4196 -0.4012
16064SOL     OW55306   5.475   2.737   1.525 -0.1968  0.6629 -0.2538
16064SOL    HW155307   5.481   2.828   1.555  0.6362  1.0047 -1.3607
16064SOL    HW255308   5.564   2.703   1.536 -0.4305  0.0810 -0.1578
16065SOL     OW55309  12.692   1.528  10.478  0.0024  0.1545  0.4339
16065SOL    HW155310  12.620   1.465  10.475  1.0430 -1.1139  1.0211
16065SOL    HW255311  12.764   1.484  10.432  0.4147  1.3985 -0.1549
16066SOL     OW55312   5.214  10.133   2.028  0.1435  0.2092 -0.4416
16066SOL    HW155313   5.133  10.152   1.979 -0.2738 -0.7270 -0.1419
16066SOL    HW255314   5.230  10.211   2.080  0.2001  0.9462 -1.5465
16067SOL     OW55315   2.634   8.222   8.509 -0.0648  0.3702 -0.4430
16067SOL    HW155316   2.632   8.315   8.488 -0.7117  0.4913  0.1164
16067SOL    HW255317   2.642   8.179   8.424 -0.8275  0.9098 -0.8089
16068SOL     OW55318   1.688   9.365  12.443  0.2396 -0.0951  0.8018
16068SOL    HW155319   1.739   9.284  12.446 -1.0621 -0.9941 -0.0774
16068SOL    HW255320   1.665   9.382  12.535  0.7222 -0.5918  1.0202
16069SOL     OW55321   1.689   0.886   7.768 -0.4908 -0.6269 -0.2843
16069SOL    HW155322   1.604   0.852   7.741 -0.3541 -1.2283  0.0247
16069SOL    HW255323   1.668   0.945   7.841 -0.6631 -0.6111 -0.3458
16070SOL     OW55324   4.791  12.726  11.350  0.1187  0.5882  0.0694
16070SOL    HW155325   4.725  12.734  11.419  1.2109  1.0730  1.1190
16070SOL    HW255326   4.754  12.773  11.275 -1.1551 -0.0628  0.2649
16071SOL     OW55327  10.522   2.435   5.422 -0.3018  0.2323 -0.7532
16071SOL    HW155328  10.473   2.444   5.503  1.3147  1.9859  0.0907
16071SOL    HW255329  10.456   2.407   5.357 -2.0305  0.8428  0.6667
16072SOL     OW55330   2.601   5.646   6.623 -0.1376  0.1889 -0.1119
16072SOL    HW155331   2.558   5.676   6.703  0.7925  2.5929 -0.4158
16072SOL    HW255332   2.597   5.550   6.627 -4.2308  0.2198  0.4918
16073SOL     OW55333  12.097   8.964   6.077  0.7478 -0.3569 -0.5413
16073SOL    HW155334  12.020   8.909   6.094  0.4495 -0.1962 -1.3123
16073SOL    HW255335  12.061   9.053   6.070  1.2981  0.0378  1.2555
16074SOL     OW55336   9.355   6.445  11.676 -0.2177 -0.6125 -0.1262
16074SOL    HW155337   9.263   6.470  11.668 -0.0913 -0.5175 -1.4119
16074SOL    HW255338   9.365   6.372  11.616  1.2146  1.2822 -2.3791
16075SOL     OW55339   2.725   0.098   5.164  0.2051 -0.3822 -0.2121
16075SOL    HW155340   2.674   0.103   5.245 -0.2641 -0.3144 -0.5053
16075SOL    HW255341   2.780   0.175   5.165  0.6393 -0.6926  0.3321
16076SOL     OW55342  11.778   8.809   3.582 -0.7343  0.3913 -0.1144
16076SOL    HW155343  11.870   8.835   3.579 -0.3701 -0.8797 -0.8431
16076SOL    HW255344  11.777   8.728   3.634 -1.3736  0.2116 -0.3901
16077SOL     OW55345   4.865   8.450   1.914  0.2506  0.2037 -0.2165
16077SOL    HW155346   4.906   8.381   1.862  1.2267  0.2560  0.4543
16077SOL    HW255347   4.771   8.441   1.896  0.5115 -0.0537 -1.6420
16078SOL     OW55348   4.858   2.242   4.710  0.4328 -0.3189 -0.0523
16078SOL    HW155349   4.952   2.242   4.728  0.4259 -0.1360 -0.0132
16078SOL    HW255350   4.818   2.238   4.797  0.4082 -1.6469 -0.1094
16079SOL     OW55351  12.661   3.733   6.039  0.1224 -0.4490 -0.1223
16079SOL    HW155352  12.669   3.733   5.943  1.6035  0.7430 -0.0443
16079SOL    HW255353  12.622   3.648   6.060 -0.2443 -0.7228 -1.7840
16080SOL     OW55354  10.870   1.852   7.684  0.0275 -0.5122  0.7082
16080SOL    HW155355  10.863   1.946   7.667  1.0543 -0.6397 -0.5641
16080SOL    HW255356  10.962   1.839   7.709 -0.1554 -1.1552  1.0708
16081SOL     OW55357   8.149   1.776   6.451 -0.1995 -0.5163  0.2121
16081SOL    HW155358   8.196   1.740   6.526  0.6429 -1.1176 -0.5812
16081SOL    HW255359   8.212   1.836   6.411  0.3812 -2.2178 -1.5531
16082SOL     OW55360   9.421   6.826   5.934 -0.3306 -0.4078  0.2665
16082SOL    HW155361   9.433   6.919   5.953 -2.3582  0.5622 -2.5461
16082SOL    HW255362   9.505   6.797   5.900 -0.0140  0.7224  0.0437
16083SOL     OW55363  10.223  10.788   5.977  0.3806  0.1482  0.3486
16083SOL    HW155364  10.238  10.726   5.906  1.0305  0.2501  0.3956
16083SOL    HW255365  10.134  10.820   5.962 -0.2354 -1.3157  0.7379
16084SOL     OW55366   0.927   4.226   9.841 -0.7575  0.6253 -0.0870
16084SOL    HW155367   0.871   4.193   9.912 -0.7120  1.2026  0.2221
16084SOL    HW255368   0.983   4.292   9.883  1.8101 -1.5431  0.1438
16085SOL     OW55369   9.459   8.711  12.517  0.2831  0.0658  0.1818
16085SOL    HW155370   9.487   8.677  12.602 -1.0664 -1.6105  0.0109
16085SOL    HW255371   9.394   8.648  12.485 -0.8272  1.7539 -1.1448
16086SOL     OW55372  10.692   5.997   8.997  0.0139 -0.0352 -0.0348
16086SOL    HW155373  10.672   5.935   9.067 -0.1129 -0.7435 -0.6886
16086SOL    HW255374  10.728   6.074   9.043  0.1989 -0.5925  0.7799
16087SOL     OW55375   7.906   1.007  12.382 -0.4897 -0.6529  0.3403
16087SOL    HW155376   7.891   1.094  12.418  1.1460  0.3739 -1.2802
16087SOL    HW255377   7.833   0.994  12.320  1.0833  1.1890 -2.0915
16088SOL     OW55378  10.201   9.261  11.020  0.0948 -0.8822 -0.0920
16088SOL    HW155379  10.106   9.254  11.032  0.2610 -0.5105  1.7636
16088SOL    HW255380  10.217   9.355  11.013  0.3354 -0.9471 -0.4570
16089SOL     OW55381   0.132   4.952   8.621 -0.3318 -0.3734  0.3042
16089SOL    HW155382   0.047   4.929   8.659  0.3836 -0.2381  2.1081
16089SOL    HW255383   0.189   4.879   8.644 -0.0222 -0.6087 -1.1651
16090SOL     OW55384  11.086   5.079   3.706  0.2645  0.5792 -0.6393
16090SOL    HW155385  11.128   5.032   3.634  0.3715  0.8361 -0.7479
16090SOL    HW255386  10.996   5.047   3.707  0.7311 -0.7783  0.2939
16091SOL     OW55387   4.732   6.641   5.000  0.1826 -0.2405  0.3218
16091SOL    HW155388   4.722   6.551   4.969 -0.0526 -1.1470  2.7820
16091SOL    HW255389   4.644   6.679   4.993  0.2910 -0.1501 -0.7601
16092SOL     OW55390   9.041   2.176   2.708 -0.2116  0.5203 -0.7666
16092SOL    HW155391   8.967   2.164   2.767  0.0253  0.7290 -0.4212
16092SOL    HW255392   9.074   2.263   2.729  0.5156  0.1875 -0.4757
16093SOL     OW55393   9.050  11.097  11.861 -0.6980  0.4610  0.4815
16093SOL    HW155394   9.074  11.011  11.825  0.3217  0.1788  1.7445
16093SOL    HW255395   9.119  11.116  11.925 -1.3440  1.8657  0.7981
16094SOL     OW55396  11.792   9.662  10.192 -0.8597  0.5557 -0.3517
16094SOL    HW155397  11.717   9.628  10.240 -1.0812 -1.2216 -1.8413
16094SOL    HW255398  11.799   9.606  10.114  1.3847  1.3083 -0.7891
16095SOL     OW55399  11.599   8.711   1.309  0.1500  0.4605 -0.1587
16095SOL    HW155400  11.578   8.783   1.369  1.4546  0.2494  0.5966
16095SOL    HW255401  11.523   8.706   1.250 -0.7205  1.3241  0.8415
16096SOL     OW55402   4.324   3.725   9.926  0.0198  0.3214 -0.2902
16096SOL    HW155403   4.392   3.774   9.973 -1.3707  1.6668  0.4325
16096SOL    HW255404   4.293   3.660   9.989 -0.5211  0.8493 -0.0009
16097SOL     OW55405   7.103   0.142  12.573 -0.0516 -0.5167 -0.1990
16097SOL    HW155406   7.154   0.218  12.546 -0.6395  0.3091  0.9313
16097SOL    HW255407   7.144   0.113  12.654 -0.7993 -0.4173  0.2192
16098SOL     OW55408   6.512   0.233   0.654 -0.0113 -0.4989 -0.1879
16098SOL    HW155409   6.511   0.185   0.737  0.0114 -0.9736 -0.4594
16098SOL    HW255410   6.441   0.194   0.603  0.4542 -0.7240 -0.6731
16099SOL     OW55411   5.103  10.511  11.095 -0.5826  0.2570 -0.6045
16099SOL    HW155412   5.065  10.494  11.181  0.3236  1.6116  0.0860
16099SOL    HW255413   5.085  10.603  11.078  0.5892  0.3959 -1.1717
16100SOL     OW55414   0.404   4.105  11.745 -0.3567  0.1082  0.3438
16100SOL    HW155415   0.379   4.171  11.810 -1.8433  0.4611 -0.5455
16100SOL    HW255416   0.455   4.041  11.795 -0.2139  1.1204  1.5488
16101SOL     OW55417   7.396   2.539  12.849 -0.1252  0.1813  0.1941
16101SOL    HW155418   7.460   2.501  12.788  0.7789 -0.4746  1.5040
16101SOL    HW255419   7.321   2.480  12.844 -0.7348  1.0329 -1.4608
16102SOL     OW55420   0.527   3.022   7.600  0.2095  0.1271  0.9565
16102SOL    HW155421   0.441   2.980   7.599  0.6982 -0.9569  2.0167
16102SOL    HW255422   0.509   3.114   7.581 -0.7247 -0.7276 -3.3272
16103SOL     OW55423   5.905   9.736   5.611 -0.1329  0.5530  0.3343
16103SOL    HW155424   5.918   9.805   5.546  0.7108 -0.0264 -0.1257
16103SOL    HW255425   5.834   9.682   5.575 -0.5829  0.9947  0.5475
16104SOL     OW55426   7.469   1.075   5.739  0.0979 -0.5290 -0.2299
16104SOL    HW155427   7.444   1.139   5.806 -2.0249 -1.6721  0.1700
16104SOL    HW255428   7.563   1.085   5.730  0.0576  1.5269  0.9750
16105SOL     OW55429   1.528  12.808   4.815 -0.4973  0.1142 -0.4920
16105SOL    HW155430   1.589  12.875   4.784  0.9075  0.3979  2.5526
16105SOL    HW255431   1.458  12.858   4.858  0.0451 -0.2912  0.9110
16106SOL     OW55432  11.498   0.191   0.601  0.5314 -0.3216 -0.2471
16106SOL    HW155433  11.593   0.186   0.590  0.5718 -1.1207  0.4167
16106SOL    HW255434  11.466   0.213   0.513  1.3173 -0.0794 -0.4874
16107SOL     OW55435   7.459   4.131   9.439  0.0535  0.0406  0.1434
16107SOL    HW155436   7.380   4.091   9.474 -0.1767  0.6954  0.3792
16107SOL    HW255437   7.526   4.062   9.444 -0.8931 -1.0843 -1.6178
16108SOL     OW55438   8.263   6.781   7.139  0.0712  0.0178 -0.2426
16108SOL    HW155439   8.355   6.790   7.166 -0.5055 -0.0552  1.8957
16108SOL    HW255440   8.258   6.692   7.103  1.1087  0.5069 -1.7144
16109SOL     OW55441   0.226  10.280  12.609 -0.1495 -0.1849 -0.2953
16109SOL    HW155442   0.213  10.293  12.703  1.6396 -0.4012  0.0115
16109SOL    HW255443   0.254  10.365  12.576 -0.9220 -0.0690 -0.6708
16110SOL     OW55444   1.284   2.748   9.680  0.2105  0.6276 -0.0789
16110SOL    HW155445   1.211   2.786   9.632  2.4352  1.7298 -2.9508
16110SOL    HW255446   1.322   2.823   9.727  0.4952  0.4454 -0.0189
16111SOL     OW55447   8.141  12.545   2.928 -0.3980 -0.3062 -0.5647
16111SOL    HW155448   8.231  12.522   2.907  0.2337  1.2231  0.3174
16111SOL    HW255449   8.093  12.462   2.923  1.1104 -1.1995 -0.7034
16112SOL     OW55450   2.182  12.903   3.427 -0.2093  0.0246 -0.6065
16112SOL    HW155451   2.167  12.879   3.518 -0.4184 -2.1163 -1.1569
16112SOL    HW255452   2.170  12.998   3.425  1.5914  0.4044  1.9226
16113SOL     OW55453   4.715   5.375   1.076  0.0176 -0.1040 -0.1243
16113SOL    HW155454   4.667   5.376   0.993 -1.2753 -0.9263  0.5639
16113SOL    HW255455   4.776   5.448   1.070  0.2950 -0.4414 -1.9839
16114SOL     OW55456   7.548   1.797   3.804 -0.6024  0.1497 -0.5449
16114SOL    HW155457   7.581   1.826   3.889 -1.4873  1.3910 -0.5945
16114SOL    HW255458   7.453   1.794   3.815 -0.6348 -1.3499 -1.0013
16115SOL     OW55459   2.218  10.202   0.574  0.3557 -0.0140  0.0808
16115SOL    HW155460   2.256  10.254   0.644 -0.6624  0.2069  0.4923
16115SOL    HW255461   2.124  10.201   0.593  0.4399 -3.0341  0.7912
16116SOL     OW55462   0.718   4.756  11.469 -0.1738  0.0809 -0.2929
16116SOL    HW155463   0.661   4.729  11.397  0.4756 -0.0488 -0.7655
16116SOL    HW255464   0.694   4.847  11.486  0.3932  0.4596 -1.4007
16117SOL     OW55465  12.670   6.354   4.400 -0.4897 -0.4793  0.0182
16117SOL    HW155466  12.574   6.356   4.409 -0.7121 -1.0075 -1.8592
16117SOL    HW255467  12.685   6.340   4.307  1.4602  0.9712  0.0551
16118SOL     OW55468   8.615  10.112   6.286 -0.3158  0.4531 -0.1920
16118SOL    HW155469   8.548  10.099   6.353  1.4136 -0.7325  1.4240
16118SOL    HW255470   8.593  10.050   6.217 -2.3337  1.9470 -1.0050
16119SOL     OW55471  11.436   5.414   4.182  0.1449 -0.0939 -0.3273
16119SOL    HW155472  11.467   5.375   4.264  0.5947 -1.5370 -1.1555
16119SOL    HW255473  11.368   5.475   4.209 -1.9242 -2.7791  0.9337
16120SOL     OW55474   5.509  11.829   3.661  0.1932  0.1582  0.4665
16120SOL    HW155475   5.566  11.762   3.623 -1.2759 -0.9635  0.1260
16120SOL    HW255476   5.518  11.817   3.756  0.2569 -0.2451  0.4114
16121SOL     OW55477   2.319  12.446  11.331  0.2314  0.2282 -0.2640
16121SOL    HW155478   2.386  12.512  11.318  1.0219 -0.6292 -0.6704
16121SOL    HW255479   2.366  12.363  11.327 -1.1172 -0.5133 -2.7911
16122SOL     OW55480   3.753   2.726   9.876 -0.0622 -0.0749  0.0323
16122SOL    HW155481   3.812   2.777   9.821 -0.8505  0.7035 -0.1104
16122SOL    HW255482   3.810   2.666   9.924  0.7000 -0.3964 -1.2233
16123SOL     OW55483   9.813  10.743   0.628 -0.0090 -0.3792 -0.3981
16123SOL    HW155484   9.876  10.793   0.575 -0.3425  1.0596  0.5096
16123SOL    HW255485   9.854  10.658   0.641  1.3354  0.2197 -0.6055
16124SOL     OW55486  10.582   6.858   2.675 -0.0161  0.0843 -1.0086
16124SOL    HW155487  10.648   6.863   2.606  1.2751  2.5970  0.3058
16124SOL    HW255488  10.545   6.946   2.680 -1.1597 -0.4445  0.5104
16125SOL     OW55489   9.762  11.452   8.372 -0.0682  0.1041 -0.2685
16125SOL    HW155490   9.753  11.458   8.277  1.5153 -0.0611 -0.4627
16125SOL    HW255491   9.855  11.471   8.388 -0.4656  0.8878  1.3121
16126SOL     OW55492   9.682  10.999   6.393 -0.3803  0.3277 -0.4829
16126SOL    HW155493   9.726  10.928   6.440  1.8620  2.0472  0.2334
16126SOL    HW255494   9.680  10.971   6.302  0.3166 -0.7192 -0.1888
16127SOL     OW55495   2.541   8.369   0.771  0.0130  0.0644 -0.3231
16127SOL    HW155496   2.529   8.449   0.720  2.2835  0.1438 -0.8541
16127SOL    HW255497   2.562   8.400   0.859  3.0026  0.2494 -0.9837
16128SOL     OW55498   9.767   9.465   8.234  0.2416 -0.1024 -0.0176
16128SOL    HW155499   9.847   9.426   8.269 -1.0449 -2.0177  0.9568
16128SOL    HW255500   9.780   9.466   8.139  1.3752 -0.4416  0.1219
16129SOL     OW55501  12.003   7.240   2.593  0.1783  0.3552  0.2768
16129SOL    HW155502  12.064   7.246   2.520  0.9343  1.4664  0.9793
16129SOL    HW255503  11.958   7.324   2.594  0.6476  0.6094  1.4855
16130SOL     OW55504   1.912  12.277   9.249 -0.9357 -0.4448  0.1325
16130SOL    HW155505   1.904  12.220   9.326 -1.3714  0.0132  0.4309
16130SOL    HW255506   1.956  12.355   9.281  0.3386 -0.8959 -0.4370
16131SOL     OW55507  10.335   6.312   7.134  0.0171 -0.2364  0.2814
16131SOL    HW155508  10.355   6.269   7.217 -2.0361 -1.8566  0.0124
16131SOL    HW255509  10.399   6.276   7.073  0.8034  0.0913  0.8897
16132SOL     OW55510   0.316   6.501   4.553  0.1460  0.5930 -1.2885
16132SOL    HW155511   0.388   6.546   4.596  0.3119 -1.9076  1.3641
16132SOL    HW255512   0.244   6.565   4.553  0.6799  1.3085  1.2891
16133SOL     OW55513  11.760   9.336   9.743  0.2638  0.0604  0.1883
16133SOL    HW155514  11.664   9.344   9.745  0.3269  0.7525  0.7803
16133SOL    HW255515  11.782   9.341   9.650 -0.3829 -1.6505 -0.0862
16134SOL     OW55516   7.314   0.530   4.364 -0.3411 -0.1691  0.5159
16134SOL    HW155517   7.221   0.551   4.371 -0.1800  0.0830  2.5124
16134SOL    HW255518   7.341   0.568   4.281 -2.1718 -0.9258 -0.4635
16135SOL     OW55519   4.538   0.072   7.169  0.8696 -0.2836 -0.1181
16135SOL    HW155520   4.556   0.132   7.097 -0.1259  1.1929  0.8126
16135SOL    HW255521   4.515  -0.011   7.126 -0.6122  0.8052 -1.5710
16136SOL     OW55522   4.817   9.571  11.749 -0.3934 -0.1969  0.6025
16136SOL    HW155523   4.757   9.594  11.678 -0.6117  2.2159  1.4655
16136SOL    HW255524   4.888   9.524  11.706  0.1122  2.2741 -1.5043
16137SOL     OW55525   9.735  11.134   9.963 -0.3680  0.1808  0.3170
16137SOL    HW155526   9.752  11.077  10.039 -1.0491  0.5709  0.7750
16137SOL    HW255527   9.822  11.160   9.932 -0.0817  0.4661  1.3212
16138SOL     OW55528  11.221  12.704   5.270 -0.4991 -0.0811 -0.6073
16138SOL    HW155529  11.132  12.679   5.247 -0.4366  0.0160 -0.9682
16138SOL    HW255530  11.238  12.661   5.353 -0.7029 -0.5133 -0.7865
16139SOL     OW55531   7.733  10.910   4.836  0.0272 -0.3606 -0.2892
16139SOL    HW155532   7.722  10.934   4.744 -0.8809 -2.1679 -0.6983
16139SOL    HW255533   7.801  10.843   4.835 -1.2533 -1.7089  0.0884
16140SOL     OW55534   7.483  12.354   9.555 -0.3476 -0.1036 -0.1441
16140SOL    HW155535   7.419  12.289   9.583 -1.7809  1.1064 -0.4399
16140SOL    HW255536   7.515  12.392   9.637 -1.1560  0.3100 -0.0051
16141SOL     OW55537   8.149   5.750   3.143  0.3681  0.1533  0.0890
16141SOL    HW155538   8.230   5.800   3.154  0.7018 -0.5490  1.0363
16141SOL    HW255539   8.144   5.731   3.050  0.1964  1.9772 -0.3114
16142SOL     OW55540  12.045   8.637   2.012  0.0012  0.6230  0.7447
16142SOL    HW155541  11.967   8.660   1.960 -2.0616 -1.1594  2.8182
16142SOL    HW255542  12.034   8.685   2.094 -0.0340 -1.1927  1.8468
16143SOL     OW55543   1.608   3.838  12.472 -0.0205 -0.1131  0.3077
16143SOL    HW155544   1.631   3.920  12.517 -0.8569  0.3696 -0.1309
16143SOL    HW255545   1.647   3.846  12.385 -1.3152  0.4663 -0.2442
16144SOL     OW55546  11.295   4.951   3.556  0.4682 -0.7870 -0.1056
16144SOL    HW155547  11.244   4.895   3.498 -2.0976  0.5440  0.7199
16144SOL    HW255548  11.329   5.020   3.500 -0.0375 -0.7934 -0.4255
16145SOL     OW55549   2.635   3.908   4.945 -0.9598 -0.3832 -0.2637
16145SOL    HW155550   2.642   4.004   4.944  2.7363 -0.4995 -0.0909
16145SOL    HW255551   2.616   3.887   5.036 -0.7080  0.1580 -0.0791
16146SOL     OW55552   7.539   0.834   7.514  0.7581  0.3277  0.2948
16146SOL    HW155553   7.456   0.829   7.466  0.7149 -0.6791  0.4592
16146SOL    HW255554   7.525   0.905   7.577 -0.5139 -0.7397  1.2781
16147SOL     OW55555   5.642   2.485   8.375  0.0019 -0.0497 -0.7387
16147SOL    HW155556   5.579   2.420   8.343  3.1839 -2.5958 -2.5927
16147SOL    HW255557   5.679   2.523   8.295  1.0243  1.1159  0.2531
16148SOL     OW55558  12.090   6.341  12.587  0.1796 -0.1301 -0.0584
16148SOL    HW155559  12.094   6.419  12.643  0.2247 -0.2089  0.0490
16148SOL    HW255560  12.006   6.349  12.542  1.7663  1.9806 -3.0005
16149SOL     OW55561   0.181  12.022  12.920 -0.1724 -0.2129 -0.1028
16149SOL    HW155562   0.203  12.021  12.827 -1.9113  0.7701 -0.5662
16149SOL    HW255563   0.155  12.112  12.937 -2.3303 -0.9303  0.6938
16150SOL     OW55564  10.346   2.948  11.558 -0.2832 -0.1846 -0.4543
16150SOL    HW155565  10.400   2.890  11.611  0.3766  2.1782  1.6243
16150SOL    HW255566  10.408   2.990  11.498 -0.4934 -0.4061 -0.8318
16151SOL     OW55567   5.635   5.624   9.174 -0.6316 -0.3532 -0.0427
16151SOL    HW155568   5.580   5.656   9.102 -0.0156  1.5766  0.2796
16151SOL    HW255569   5.688   5.555   9.135 -0.2254  0.7318 -1.5221
16152SOL     OW55570   1.787  10.995   2.155  0.5412 -0.4196 -0.1354
16152SOL    HW155571   1.840  10.935   2.208  0.5551 -1.9481 -1.7730
16152SOL    HW255572   1.841  11.011   2.077 -0.5145 -0.2827 -0.8540
16153SOL     OW55573   9.185   5.180   6.779 -0.2638 -0.0801  0.3254
16153SOL    HW155574   9.165   5.174   6.873  1.3183 -0.2423  0.6777
16153SOL    HW255575   9.280   5.187   6.775 -0.3572  0.8210 -1.2426
16154SOL     OW55576  12.807   2.047   9.355  0.9419  0.6487  0.9094
16154SOL    HW155577  12.888   2.075   9.396 -0.0973  0.4068  3.2974
16154SOL    HW255578  12.756   2.128   9.344  0.2387  0.4563  2.4789
16155SOL     OW55579   1.474   4.958   6.942  0.5289  0.0608  0.3547
16155SOL    HW155580   1.486   4.897   6.870  1.4594  0.5843  0.0425
16155SOL    HW255581   1.389   5.000   6.925 -0.2410 -1.3026  0.7183
16156SOL     OW55582   9.486  12.812  10.735 -0.0460  0.2568  0.6555
16156SOL    HW155583   9.434  12.801  10.814 -1.3952 -1.0120 -0.3562
16156SOL    HW255584   9.541  12.734  10.730  0.5007  0.6330  0.6582
16157SOL     OW55585   7.885   5.268   7.054 -0.5443 -0.5743  0.0142
16157SOL    HW155586   7.873   5.202   6.986 -0.0240 -0.2460 -0.3968
16157SOL    HW255587   7.976   5.297   7.045 -0.3821 -0.7143  1.0151
16158SOL     OW55588   9.244   2.741   4.411  0.4279  0.1999  0.4038
16158SOL    HW155589   9.214   2.806   4.475  2.1187  1.2945  0.1344
16158SOL    HW255590   9.167   2.725   4.356 -1.1426 -0.9600  2.7787
16159SOL     OW55591  10.322  10.533   4.419 -0.4698  0.0483  0.3146
16159SOL    HW155592  10.333  10.625   4.396 -0.3069  0.4359  1.8452
16159SOL    HW255593  10.255  10.533   4.487 -1.5760 -1.1432 -0.7147
16160SOL     OW55594   5.766  10.077   2.994  0.2404 -0.4804 -0.3658
16160SOL    HW155595   5.713  10.002   3.023 -2.1102  0.4246 -2.0415
16160SOL    HW255596   5.710  10.153   3.009  1.0326  0.5362 -2.2723
16161SOL     OW55597   3.448   5.316   8.090 -0.5436 -0.1915  0.0656
16161SOL    HW155598   3.400   5.306   8.172  0.5898  0.1291  0.7928
16161SOL    HW255599   3.540   5.306   8.115 -0.2581 -1.9792 -1.4667
16162SOL     OW55600   9.990   5.705   1.390  0.2942 -0.0875  0.3809
16162SOL    HW155601   9.931   5.696   1.465  0.1868  1.1291  0.4577
16162SOL    HW255602  10.077   5.716   1.428  0.8895 -3.4323  0.2602
16163SOL     OW55603   4.345  12.951   3.697 -0.4206  0.6107 -0.3447
16163SOL    HW155604   4.307  12.865   3.717  0.4720  0.2546 -0.1422
16163SOL    HW255605   4.433  12.947   3.732  0.0832  1.1412 -1.5019
16164SOL     OW55606  11.488  12.968  12.390  0.1920 -0.2600 -0.5858
16164SOL    HW155607  11.469  12.880  12.424  0.6779 -0.7601 -1.5500
16164SOL    HW255608  11.518  12.952  12.300  3.5610  0.5828  0.2495
16165SOL     OW55609   2.375   6.089   3.218  0.2702  0.1854  0.1211
16165SOL    HW155610   2.376   6.065   3.310  0.4706 -1.1755 -0.2039
16165SOL    HW255611   2.324   6.170   3.214 -2.5202 -1.3829  1.0692
16166SOL     OW55612   4.249   0.390   5.583 -0.2032 -0.3524  0.0426
16166SOL    HW155613   4.258   0.302   5.620  0.8902 -0.6194 -0.8190
16166SOL    HW255614   4.307   0.390   5.507  0.9547  1.5839  0.8601
16167SOL     OW55615  11.885   4.199   6.687 -0.4062  0.6733  0.6758
16167SOL    HW155616  11.921   4.205   6.775 -0.5260  1.5006  0.6752
16167SOL    HW255617  11.928   4.269   6.638 -0.1132  0.0350 -0.0125
16168SOL     OW55618  12.112   6.002   3.892  0.4384  0.1903  0.4111
16168SOL    HW155619  12.045   5.934   3.892  0.7829 -0.1572  0.1372
16168SOL    HW255620  12.072   6.076   3.938  0.3500 -0.4709  1.4210
16169SOL     OW55621   5.478  11.232   4.429  0.2448  0.3427  0.3003
16169SOL    HW155622   5.555  11.251   4.482 -0.6039 -1.3997  2.3190
16169SOL    HW255623   5.409  11.287   4.468  0.3028  1.5490 -1.1994
16170SOL     OW55624   9.766   5.338   8.132 -0.2552  0.1925 -0.3254
16170SOL    HW155625   9.728   5.425   8.135 -0.0398  0.2962 -0.6149
16170SOL    HW255626   9.745   5.300   8.217  2.3064  1.6427  1.0640
16171SOL     OW55627   0.653   0.224   1.766  0.2552 -0.2396 -0.1884
16171SOL    HW155628   0.624   0.212   1.857 -3.1191  0.3441 -1.0513
16171SOL    HW255629   0.619   0.309   1.741  2.3975  0.2514 -1.6181
16172SOL     OW55630  10.507  10.699   6.330 -0.2272 -0.1472 -0.0615
16172SOL    HW155631  10.519  10.665   6.242  3.9461 -0.3903  0.3892
16172SOL    HW255632  10.548  10.633   6.387 -2.0024  0.4241  2.0479
16173SOL     OW55633   5.723   9.430  11.153  0.2628  0.1528  0.8711
16173SOL    HW155634   5.784   9.460  11.220  0.3140 -0.3441  1.0498
16173SOL    HW255635   5.748   9.480  11.074  1.1744 -0.3441  0.8294
16174SOL     OW55636   5.572   3.322   0.720 -0.1601 -0.6725 -0.4627
16174SOL    HW155637   5.541   3.410   0.742 -2.3252 -1.8115  1.5575
16174SOL    HW255638   5.663   3.320   0.749 -0.2522  0.7290 -0.0114
16175SOL     OW55639   5.834   2.408  11.448  0.5424  0.5295 -0.8124
16175SOL    HW155640   5.876   2.324  11.427 -0.5957 -0.3895  0.3819
16175SOL    HW255641   5.796   2.437  11.365 -0.0220 -0.7315 -1.0203
16176SOL     OW55642   5.101   6.484   5.349  0.2043  0.3103 -0.0036
16176SOL    HW155643   5.165   6.486   5.278  0.1585  1.2841 -0.0211
16176SOL    HW255644   5.021   6.451   5.308  0.0704  1.2298 -0.5055
16177SOL     OW55645  11.029   1.746   0.291 -0.2887  0.3312 -0.6892
16177SOL    HW155646  11.093   1.818   0.290 -1.2784  1.3067  1.2968
16177SOL    HW255647  11.074   1.676   0.338  0.1907  0.1252 -1.4434
16178SOL     OW55648   6.810   3.806   1.906 -0.2612 -0.1705  0.8498
16178SOL    HW155649   6.830   3.715   1.884  0.7401  0.6984 -2.3033
16178SOL    HW255650   6.721   3.819   1.875  0.5623  0.6001 -1.3710
16179SOL     OW55651   9.320   2.538   4.920 -0.0700 -0.3811  0.4973
16179SOL    HW155652   9.345   2.478   4.990 -0.1272  1.2191  1.9625
16179SOL    HW255653   9.399   2.591   4.905 -0.0834 -0.6429 -0.6125
16180SOL     OW55654   8.665   1.187   1.916 -0.1303 -1.0813 -0.9114
16180SOL    HW155655   8.760   1.182   1.915 -0.1021 -1.0036 -0.0310
16180SOL    HW255656   8.646   1.271   1.959 -0.5906 -1.0864 -1.0987
16181SOL     OW55657   7.895   1.244   2.043  0.0260 -0.1204  0.4995
16181SOL    HW155658   7.856   1.310   1.985 -0.8779  0.2572  1.4989
16181SOL    HW255659   7.989   1.256   2.033 -0.0673 -0.7321 -1.6202
16182SOL     OW55660   0.133   4.995   6.687 -0.0959  0.4979  0.0780
16182SOL    HW155661   0.086   4.972   6.606 -1.8571  1.4587  0.7685
16182SOL    HW255662   0.097   4.935   6.752  2.2021 -1.1236 -0.0190
16183SOL     OW55663   5.656  11.551  12.236 -0.1400  0.4930 -0.1007
16183SOL    HW155664   5.681  11.463  12.265 -0.7366  0.0150 -0.9761
16183SOL    HW255665   5.724  11.575  12.173 -0.3002  0.3879 -0.3200
16184SOL     OW55666   8.432   0.485  12.545 -0.3603 -0.1793 -0.3905
16184SOL    HW155667   8.482   0.418  12.499  1.7521  1.2418 -0.3016
16184SOL    HW255668   8.440   0.563  12.490 -1.9602  0.2806 -0.0253
16185SOL     OW55669   7.451   7.293   8.741  0.2760  0.3544  0.3055
16185SOL    HW155670   7.384   7.361   8.748 -0.0946 -0.1560  2.1171
16185SOL    HW255671   7.519   7.318   8.804  0.6683 -0.3679  0.1896
16186SOL     OW55672   8.771   3.855   1.300  0.8479 -0.4512  0.3423
16186SOL    HW155673   8.686   3.874   1.260  0.3310 -1.2380  1.0408
16186SOL    HW255674   8.782   3.760   1.288  1.4712 -0.4102  0.5630
16187SOL     OW55675   2.908   9.826   6.071  0.2001  0.2034  0.0911
16187SOL    HW155676   2.955   9.772   6.134  1.4217  0.2633 -0.7345
16187SOL    HW255677   2.976   9.863   6.015 -0.8075  0.5764 -0.9335
16188SOL     OW55678   3.485   8.753   5.023  0.1986 -0.5551 -0.0342
16188SOL    HW155679   3.518   8.839   4.995 -3.3208  0.8090 -0.4944
16188SOL    HW255680   3.529   8.736   5.106  2.8803  0.4047 -1.1397
16189SOL     OW55681   3.779   9.009  10.629  0.2990 -0.0736 -0.1833
16189SOL    HW155682   3.685   9.027  10.626  0.2909  0.9563  2.8409
16189SOL    HW255683   3.817   9.068  10.564 -1.1387 -0.8695 -1.8228
16190SOL     OW55684   8.996   0.209   0.398  0.1389 -0.7444  0.3124
16190SOL    HW155685   9.004   0.197   0.304  2.3237 -0.7275  0.4420
16190SOL    HW255686   9.024   0.299   0.414 -0.6374 -0.5994  0.9503
16191SOL     OW55687   8.689   3.897  10.684 -0.2199 -0.0679 -0.4109
16191SOL    HW155688   8.717   3.854  10.603  1.1977 -0.6194  0.3430
16191SOL    HW255689   8.675   3.988  10.659  5.8407  1.2962 -0.3020
16192SOL     OW55690   0.549  12.802   9.463  0.0502  0.8303 -0.2674
16192SOL    HW155691   0.583  12.890   9.444  0.1271  0.9435  0.3636
16192SOL    HW255692   0.472  12.819   9.518  1.2418  0.4336  1.5764
16193SOL     OW55693  12.521   9.545   7.871 -0.0390  0.5203  0.1826
16193SOL    HW155694  12.550   9.457   7.845  0.1202  0.6829 -0.1941
16193SOL    HW255695  12.475   9.578   7.793 -1.0617  0.3453  0.6925
16194SOL     OW55696   4.063  11.181   0.298 -0.0064 -0.5208 -0.2680
16194SOL    HW155697   4.016  11.260   0.322 -1.6304 -0.4091 -3.3003
16194SOL    HW255698   4.021  11.112   0.350  0.4066  0.3207  1.2619
16195SOL     OW55699  12.666  11.547   8.971 -0.2852 -0.3272  0.0435
16195SOL    HW155700  12.593  11.608   8.972 -1.3097 -1.4333 -1.7614
16195SOL    HW255701  12.687  11.535   8.878  3.4237  1.3093  0.4726
16196SOL     OW55702   7.683   4.774   3.948 -0.2145 -0.2416 -0.0662
16196SOL    HW155703   7.592   4.780   3.976  0.2705 -2.0381  2.1497
16196SOL    HW255704   7.700   4.680   3.939  1.7112 -0.0097  0.6132
16197SOL     OW55705  11.007   1.454   9.491  0.4696  0.4474  0.2355
16197SOL    HW155706  11.046   1.503   9.564  1.1570  0.9992 -0.4830
16197SOL    HW255707  10.917   1.437   9.519  0.1388  2.3130  0.4426
16198SOL     OW55708   1.859   0.017   4.359  0.3775  0.1105  0.4076
16198SOL    HW155709   1.765   0.031   4.369  0.1045  0.2133 -1.9108
16198SOL    HW255710   1.870  -0.078   4.360  0.4226  0.1062  1.7262
16199SOL     OW55711  10.965   4.065   7.944  0.4562 -0.3996  0.8515
16199SOL    HW155712  10.898   4.017   7.894 -0.6410  2.0166 -0.1408
16199SOL    HW255713  11.046   4.050   7.896  0.5551 -2.6786  1.5967
16200SOL     OW55714   8.506   1.342   6.228  1.1731  0.1074 -0.4186
16200SOL    HW155715   8.540   1.423   6.266 -0.8266  0.4053  0.9601
16200SOL    HW255716   8.448   1.371   6.158 -0.0821 -0.0091  0.5162
16201SOL     OW55717   3.689   1.362   8.622  0.3675  0.4947 -0.4695
16201SOL    HW155718   3.769   1.352   8.572  1.0550  0.2857  0.6445
16201SOL    HW255719   3.670   1.275   8.657 -0.6716  0.4136 -1.1951
16202SOL     OW55720  11.406   5.627   8.928  0.3566  0.2999 -0.0088
16202SOL    HW155721  11.488   5.663   8.961  1.1082 -1.0526 -0.3510
16202SOL    HW255722  11.358   5.602   9.007  1.1750 -0.8147  0.1539
16203SOL     OW55723   8.885   7.686  11.016 -0.4473 -0.0414 -0.4477
16203SOL    HW155724   8.971   7.650  11.038 -0.1884  0.3031 -0.8865
16203SOL    HW255725   8.835   7.680  11.098 -0.3610 -1.2553 -0.4662
16204SOL     OW55726   8.709  10.743   2.841  0.1284  0.3621  0.0861
16204SOL    HW155727   8.776  10.706   2.898 -1.6466 -1.6101  1.0314
16204SOL    HW255728   8.660  10.804   2.898 -0.4451 -0.1501  0.1553
16205SOL     OW55729   3.351   2.092   4.821  0.1808 -0.4289 -0.7967
16205SOL    HW155730   3.445   2.100   4.835 -0.0103  0.3705  0.1419
16205SOL    HW255731   3.324   2.180   4.794 -0.6691  0.0104  1.3498
16206SOL     OW55732  11.894  12.231   4.736  0.4052 -0.4762 -0.0495
16206SOL    HW155733  11.866  12.250   4.825  1.1504 -0.5849  0.2109
16206SOL    HW255734  11.820  12.257   4.681  0.5550  1.1123  0.4714
16207SOL     OW55735   4.597   6.008   4.007  0.5806  0.6330  0.3692
16207SOL    HW155736   4.508   5.980   3.985  0.4054  1.2886  0.2206
16207SOL    HW255737   4.608   6.092   3.962  1.7526 -0.0516 -0.6959
16208SOL     OW55738   9.572  11.164  12.195  0.2918 -0.8915  0.2148
16208SOL    HW155739   9.572  11.229  12.266  2.4543  0.6966 -1.1094
16208SOL    HW255740   9.527  11.208  12.123  1.5269 -0.9359 -0.6074
16209SOL     OW55741   0.973  12.962   7.239 -0.3361 -0.0004  0.4703
16209SOL    HW155742   1.061  12.940   7.270 -0.0651  0.1180 -0.1925
16209SOL    HW255743   0.926  12.990   7.317  1.1830  3.0852  0.4373
16210SOL     OW55744   3.109  12.361   4.240 -0.1849  0.0774 -0.2235
16210SOL    HW155745   3.161  12.397   4.168 -1.5971  1.4145 -0.6296
16210SOL    HW255746   3.020  12.356   4.205 -0.9156  0.8052  1.4379
16211SOL     OW55747   8.698   4.855   6.844  0.0018  0.0942  0.2535
16211SOL    HW155748   8.698   4.817   6.932  0.2196 -0.8194 -0.1289
16211SOL    HW255749   8.778   4.822   6.804  0.1809  0.9476 -0.1171
16212SOL     OW55750   5.807   8.385   6.087 -0.1568 -0.1545  0.1790
16212SOL    HW155751   5.863   8.360   6.160 -1.7375 -0.3616  1.3879
16212SOL    HW255752   5.828   8.477   6.071 -0.7038  0.2970  1.8204
16213SOL     OW55753   2.240   8.948   6.080 -0.1363 -0.3136  0.2606
16213SOL    HW155754   2.152   8.982   6.067  0.7766  1.7459 -0.9428
16213SOL    HW255755   2.271   8.925   5.992  0.0822 -2.2909  0.8045
16214SOL     OW55756   5.970   1.589   4.339 -0.7282  0.2034  0.0021
16214SOL    HW155757   6.019   1.670   4.323 -0.1634 -0.3945 -1.4082
16214SOL    HW255758   6.036   1.527   4.371 -0.9033 -0.0970 -0.2204
16215SOL     OW55759  11.652   7.929   0.800  0.2024  0.4515 -0.6114
16215SOL    HW155760  11.733   7.896   0.762 -0.3659 -1.2322 -0.4492
16215SOL    HW255761  11.676   7.959   0.887  0.8161  0.8962 -0.9249
16216SOL     OW55762  10.580   3.508  11.181 -0.1848  0.1647  0.1053
16216SOL    HW155763  10.521   3.572  11.220  0.2016  0.5393  0.0880
16216SOL    HW255764  10.667   3.532  11.215 -0.1666 -0.9583  0.9016
16217SOL     OW55765  10.701   8.725   0.947  0.2187  0.5707 -0.3654
16217SOL    HW155766  10.660   8.744   0.863  0.1618 -2.0894 -1.0124
16217SOL    HW255767  10.628   8.714   1.007 -0.0703 -2.3229 -1.1116
16218SOL     OW55768   3.769   6.844   3.928 -0.1020 -0.6291  0.6626
16218SOL    HW155769   3.757   6.832   4.023 -1.3493  0.1728  0.6315
16218SOL    HW255770   3.748   6.759   3.890  0.8256 -1.0742  1.1400
16219SOL     OW55771  10.481   3.181   2.412 -0.0973  0.0863  0.2625
16219SOL    HW155772  10.454   3.254   2.356 -0.2441  0.0796  0.3236
16219SOL    HW255773  10.402   3.127   2.421 -0.7581  1.3096  2.3792
16220SOL     OW55774  11.330   3.620   2.787 -0.3600  0.3534  0.3392
16220SOL    HW155775  11.346   3.531   2.820  0.2343  0.3023 -0.0607
16220SOL    HW255776  11.402   3.672   2.821 -0.7707  0.7194  0.6700
16221SOL     OW55777   0.206   4.744   6.373 -0.6606 -0.2151  0.0102
16221SOL    HW155778   0.136   4.804   6.400  0.0494  0.0403  1.3697
16221SOL    HW255779   0.173   4.657   6.395 -1.0399 -0.2130 -0.5078
16222SOL     OW55780  10.601   0.112   7.180  0.1788  0.1302  0.3197
16222SOL    HW155781  10.656   0.105   7.102  0.6077 -1.0458  0.7087
16222SOL    HW255782  10.642   0.180   7.233  0.4208  0.2733 -0.0472
16223SOL     OW55783   9.521   5.327   0.433  0.1286 -0.3235  0.2026
16223SOL    HW155784   9.615   5.345   0.434  0.1993 -0.7038  0.6615
16223SOL    HW255785   9.501   5.306   0.341  0.8462 -2.0289  0.3944
16224SOL     OW55786   8.082   5.898   3.572 -0.4355  0.0333  0.2668
16224SOL    HW155787   8.163   5.944   3.595 -0.4512 -0.1655  0.7268
16224SOL    HW255788   8.071   5.915   3.478 -0.8983  1.6909  0.5804
16225SOL     OW55789   4.531   7.409  11.658 -0.2321 -0.1877 -0.0015
16225SOL    HW155790   4.622   7.431  11.635 -0.7523  2.0099 -0.2541
16225SOL    HW255791   4.480   7.441  11.583 -1.4242  1.1902  1.3409
16226SOL     OW55792   8.519   7.931   3.106 -0.2188  0.0999 -0.3193
16226SOL    HW155793   8.495   7.921   3.014  1.0340  2.7617 -1.0379
16226SOL    HW255794   8.477   8.013   3.133  0.5257  0.0592  1.0807
16227SOL     OW55795   3.451   2.380   9.979 -0.3204  0.1103  0.5755
16227SOL    HW155796   3.499   2.305   9.945  0.6415 -0.1931  2.4508
16227SOL    HW255797   3.432   2.433   9.901  1.0242 -0.9172 -0.5219
16228SOL     OW55798   6.940   5.567  12.389 -0.7507  1.1228 -0.0029
16228SOL    HW155799   7.009   5.523  12.338  0.1656 -1.0433  2.8635
16228SOL    HW255800   6.864   5.509  12.380 -0.7911  1.0992  0.4744
16229SOL     OW55801   4.518   6.700   1.921 -0.4079  0.2671 -0.3226
16229SOL    HW155802   4.451   6.701   1.853 -1.5014 -1.0154  0.6719
16229SOL    HW255803   4.600   6.683   1.875 -1.2272 -1.3593 -1.2636
16230SOL     OW55804   0.544  12.116  11.599  0.7733 -0.2266  0.0358
16230SOL    HW155805   0.513  12.059  11.529 -0.7050  0.2732  0.2559
16230SOL    HW255806   0.562  12.057  11.672 -2.3251 -0.3294  0.8256
16231SOL     OW55807  12.475   5.203   4.176 -0.3674  0.3105 -0.2790
16231SOL    HW155808  12.460   5.293   4.147  1.2127  0.4584 -0.7648
16231SOL    HW255809  12.563   5.204   4.214  0.0916 -1.1998 -1.1544
16232SOL     OW55810   9.914  10.126  10.000 -0.0385 -0.5635  0.1261
16232SOL    HW155811  10.004  10.095   9.996 -0.2796 -1.1819 -0.7640
16232SOL    HW255812   9.862  10.053   9.967 -0.6710  0.5629 -1.5282
16233SOL     OW55813   3.640   1.311  10.522  0.0313  0.3856  0.3731
16233SOL    HW155814   3.584   1.377  10.481 -1.1232 -0.7478  0.0566
16233SOL    HW255815   3.603   1.228  10.493  1.3485 -0.4066  0.9058
16234SOL     OW55816   6.802   5.937   5.857  0.4319 -0.1623  0.1542
16234SOL    HW155817   6.736   6.006   5.865  1.4452  0.8830 -0.1782
16234SOL    HW255818   6.766   5.863   5.904 -0.4702  0.7732  0.9703
16235SOL     OW55819   0.618  11.128   5.290  0.0347 -0.2912 -0.3638
16235SOL    HW155820   0.590  11.193   5.354  1.0361 -0.5388  0.3469
16235SOL    HW255821   0.672  11.066   5.340 -1.8226 -2.3513 -0.7608
16236SOL     OW55822   6.843   2.571   8.907 -0.1401 -0.2771  0.7421
16236SOL    HW155823   6.769   2.622   8.939 -2.1899 -2.1049 -0.7778
16236SOL    HW255824   6.874   2.619   8.830 -1.5017 -0.8040 -0.1749
16237SOL     OW55825   9.776   0.662   5.969  0.5203 -0.0518 -0.0590
16237SOL    HW155826   9.829   0.740   5.989 -0.4580  0.0454  2.3626
16237SOL    HW255827   9.710   0.659   6.037 -0.2847 -2.3112 -0.8525
16238SOL     OW55828   8.722  12.461   1.101 -0.3123  0.1624 -0.3600
16238SOL    HW155829   8.730  12.539   1.047  1.3111 -1.2456 -2.2986
16238SOL    HW255830   8.634  12.428   1.083 -1.2463  1.8052  0.9515
16239SOL     OW55831   8.517   3.959  11.345  0.3255 -0.0064 -0.4079
16239SOL    HW155832   8.499   4.053  11.347  0.9280  0.1181 -0.4849
16239SOL    HW255833   8.450   3.920  11.401  1.2773  0.6884  1.3073
16240SOL     OW55834   6.908   2.039   5.055  0.2102 -0.2657  0.0043
16240SOL    HW155835   6.918   1.973   4.986 -1.0917 -0.9162  0.4003
16240SOL    HW255836   6.829   2.012   5.102  0.7284  0.5239  1.3652
16241SOL     OW55837   1.044  12.068  10.064 -0.4726  0.0539  0.3554
16241SOL    HW155838   1.051  12.060  10.159 -2.0827  1.1753  0.6223
16241SOL    HW255839   0.981  12.139  10.051  0.6887  0.7899 -1.5736
16242SOL     OW55840  11.313   2.483   3.622  0.2962 -0.1455 -0.0416
16242SOL    HW155841  11.271   2.551   3.674 -1.1190 -0.6632 -0.4576
16242SOL    HW255842  11.334   2.414   3.685  0.3782  0.0507  0.1460
16243SOL     OW55843   1.048   9.399   2.007 -0.2189 -0.3306  0.3384
16243SOL    HW155844   1.071   9.378   1.916  2.0697 -0.5380  0.9019
16243SOL    HW255845   1.024   9.314   2.045 -0.3197 -0.3858  0.1560
16244SOL     OW55846   8.520  10.565   2.695 -0.3208 -0.2160 -0.5619
16244SOL    HW155847   8.590  10.614   2.737  0.0889 -0.0963 -1.3684
16244SOL    HW255848   8.476  10.519   2.767 -0.5842  1.1536  0.1814
16245SOL     OW55849  12.524   0.943   0.187 -0.1194 -0.2816 -0.7566
16245SOL    HW155850  12.450   0.993   0.153 -0.8164 -1.5709 -1.2127
16245SOL    HW255851  12.511   0.943   0.282 -0.1997  0.2721 -0.7676
16246SOL     OW55852   1.989   3.892  10.630 -0.0425  0.7411 -0.1569
16246SOL    HW155853   2.077   3.929  10.624 -0.1214  0.6921 -3.3795
16246SOL    HW255854   2.002   3.797  10.637  0.2874  0.4920 -3.0165
16247SOL     OW55855   8.294   8.764   8.041  0.2286  0.0658 -0.0414
16247SOL    HW155856   8.382   8.751   8.007 -0.1267  1.0553 -1.4603
16247SOL    HW255857   8.292   8.856   8.070 -0.1786 -0.0998  0.4716
16248SOL     OW55858   7.458  10.911  10.215  0.4308  0.2478  0.0032
16248SOL    HW155859   7.418  10.967  10.149  0.4513 -0.4263 -0.5899
16248SOL    HW255860   7.426  10.946  10.299  0.3960  1.0943 -0.3532
16249SOL     OW55861  10.694   6.795  11.768  0.0741 -0.1349  0.0318
16249SOL    HW155862  10.680   6.885  11.739  0.7073 -0.1778 -0.4295
16249SOL    HW255863  10.716   6.747  11.689 -0.1543 -0.6814  0.2901
16250SOL     OW55864  10.788   6.163  11.192  0.3021  0.2873 -0.1371
16250SOL    HW155865  10.775   6.098  11.261 -1.6418 -0.8065 -1.4324
16250SOL    HW255866  10.740   6.128  11.117 -0.7106  3.1834 -0.9508
16251SOL     OW55867   1.220   8.000   5.517 -0.8780  0.2689  0.5449
16251SOL    HW155868   1.249   7.909   5.513 -2.8792 -0.3806 -0.7162
16251SOL    HW255869   1.219   8.029   5.425 -3.0365  0.5755  0.6160
16252SOL     OW55870   7.557   1.021  11.847  0.0353  0.0835 -0.0282
16252SOL    HW155871   7.644   1.006  11.809  0.5436  1.7909  0.3357
16252SOL    HW255872   7.508   1.062  11.776 -0.1863 -0.0673  0.0402
16253SOL     OW55873  10.894  12.611   7.670 -0.0850 -0.0424 -0.5376
16253SOL    HW155874  10.918  12.644   7.756 -0.6362 -0.5309 -0.1850
16253SOL    HW255875  10.901  12.686   7.612 -0.2451  0.4197  0.0390
16254SOL     OW55876   7.232   0.908   2.710  0.1671 -0.3028  0.3118
16254SOL    HW155877   7.323   0.884   2.691  0.3039 -0.2314  0.8350
16254SOL    HW255878   7.239   0.992   2.755 -0.3835  1.3723 -2.5258
16255SOL     OW55879   9.437   9.844   7.227 -0.0227  0.3490  0.1443
16255SOL    HW155880   9.376   9.800   7.167 -0.5516  0.7810  0.3586
16255SOL    HW255881   9.511   9.868   7.173 -0.0862 -0.0862 -0.1455
16256SOL     OW55882   3.942  11.269   2.679 -0.1764  0.4496  0.4874
16256SOL    HW155883   3.913  11.222   2.756  0.0338  1.8856  1.4852
16256SOL    HW255884   4.036  11.249   2.672 -0.2221  0.2224  0.5395
16257SOL     OW55885   6.276   5.185   6.195 -0.0675 -0.4072 -0.0249
16257SOL    HW155886   6.326   5.130   6.256  0.3395  1.1367  1.1090
16257SOL    HW255887   6.206   5.128   6.163  1.3241 -2.0792 -0.2448
16258SOL     OW55888  12.835   4.051   9.942 -0.1046 -0.1175  0.3346
16258SOL    HW155889  12.824   3.978  10.003  0.7261 -1.0239 -0.5641
16258SOL    HW255890  12.929   4.069   9.944 -0.0062 -0.4204 -0.9475
16259SOL     OW55891   5.145   5.974   4.702 -0.7667 -0.3725  0.0562
16259SOL    HW155892   5.231   5.991   4.741  0.5014  1.5162 -3.2138
16259SOL    HW255893   5.149   5.883   4.673 -0.2225 -0.5385  0.6205
16260SOL     OW55894   6.065   2.862   2.388 -0.9608  0.0803  0.1920
16260SOL    HW155895   6.105   2.801   2.450  0.7374  0.4084 -0.5233
16260SOL    HW255896   6.027   2.807   2.320 -0.8765 -0.2131  0.3845
16261SOL     OW55897   0.526   0.384   0.843 -0.3986  0.3221  0.3814
16261SOL    HW155898   0.514   0.472   0.879 -0.9763  0.6561 -0.5554
16261SOL    HW255899   0.439   0.344   0.849 -0.4679  0.3234 -0.4261
16262SOL     OW55900   0.290   2.072   6.780 -0.7171 -0.1020  0.1400
16262SOL    HW155901   0.334   2.063   6.696 -1.4248  0.4939 -0.2968
16262SOL    HW255902   0.348   2.026   6.842  0.7746  1.0563 -0.3297
16263SOL     OW55903   7.088   1.190   0.805  0.0643 -0.2917  0.1099
16263SOL    HW155904   7.043   1.198   0.889  1.4106  0.3220  0.8101
16263SOL    HW255905   7.051   1.260   0.751  0.6326  0.6632  0.9119
16264SOL     OW55906   2.842  11.114   3.307 -0.0681 -0.1139  0.0374
16264SOL    HW155907   2.884  11.190   3.267 -0.4085  0.7467  1.2732
16264SOL    HW255908   2.822  11.056   3.233  0.9105  0.6357 -0.8328
16265SOL     OW55909   8.462   4.170   6.997  0.4593  0.0510  0.3621
16265SOL    HW155910   8.514   4.099   6.959  1.4591  0.3051  1.2134
16265SOL    HW255911   8.375   4.132   7.010  1.0493 -1.1224  1.0758
16266SOL     OW55912   8.266   6.701   9.722  0.3513 -0.1061  0.3226
16266SOL    HW155913   8.324   6.630   9.695 -0.3843 -1.7151  2.6657
16266SOL    HW255914   8.262   6.694   9.818  1.2883  3.9295  0.8779
16267SOL     OW55915  12.697   8.401   0.750 -0.4637  0.5579 -0.1889
16267SOL    HW155916  12.620   8.445   0.714  0.9181  2.4893 -0.9684
16267SOL    HW255917  12.758   8.473   0.770  0.9276 -0.8634  0.8966
16268SOL     OW55918   6.538   9.148   5.294 -0.1032 -0.3548  0.2768
16268SOL    HW155919   6.628   9.118   5.309  0.0401 -1.1027 -1.7320
16268SOL    HW255920   6.490   9.120   5.371  1.6258  1.3466  2.1006
16269SOL     OW55921   9.864   7.578   5.930  0.3941  0.1395  0.1220
16269SOL    HW155922   9.863   7.581   6.026 -2.2092 -1.4096  0.2256
16269SOL    HW255923   9.844   7.668   5.904  2.8616  1.0140  0.8929
16270SOL     OW55924   5.256   4.665   0.232 -0.4140 -0.1384  0.4689
16270SOL    HW155925   5.305   4.611   0.294  0.1985  1.3919  1.3659
16270SOL    HW255926   5.305   4.747   0.228 -0.9462  0.1347 -1.3763
16271SOL     OW55927  11.137  12.263   3.115 -0.0619 -0.0916  0.4217
16271SOL    HW155928  11.065  12.206   3.088  0.6058 -0.5797 -0.3969
16271SOL    HW255929  11.160  12.311   3.035  1.3037 -0.8362  0.3415
16272SOL     OW55930   4.341   1.380  11.220  0.0122  0.1134  0.5680
16272SOL    HW155931   4.330   1.473  11.239 -0.6171  0.6924 -2.1561
16272SOL    HW255932   4.256   1.341  11.238 -0.1592  0.3683  0.3204
16273SOL     OW55933   4.565  11.199   9.504 -0.2229 -0.3912 -0.4100
16273SOL    HW155934   4.577  11.159   9.418  1.6206  0.0545 -0.3999
16273SOL    HW255935   4.652  11.200   9.543 -0.8792  0.1430  1.1617
16274SOL     OW55936   6.187   4.792   1.561  0.2277  0.0350  0.1586
16274SOL    HW155937   6.206   4.856   1.630 -0.1237 -0.8214  1.0768
16274SOL    HW255938   6.117   4.737   1.598  1.1529 -1.4548 -0.2174
16275SOL     OW55939  10.019   7.796   4.358  0.4217  0.7364 -0.0004
16275SOL    HW155940   9.935   7.766   4.392  0.5082  1.2775  0.7238
16275SOL    HW255941  10.065   7.716   4.333 -0.3327  0.4429 -0.4877
16276SOL     OW55942   5.178   8.213   0.280 -0.1991 -0.3163 -0.4918
16276SOL    HW155943   5.151   8.182   0.193 -0.2559  1.3938 -1.1395
16276SOL    HW255944   5.183   8.308   0.270 -1.2523  0.0314  1.6927
16277SOL     OW55945   1.411  11.750  11.277  0.3846  0.0872 -0.4362
16277SOL    HW155946   1.369  11.665  11.283  0.4188  0.1089  0.1272
16277SOL    HW255947   1.470  11.753  11.352 -1.6326  1.7214  1.2005
16278SOL     OW55948  11.597   6.662   4.996  0.3132 -0.1585  0.2019
16278SOL    HW155949  11.557   6.609   4.927  0.8632 -0.2256 -0.0698
16278SOL    HW255950  11.679   6.617   5.016  0.2193 -0.0729  0.8197
16279SOL     OW55951   4.780   7.688   1.002 -0.2602  0.0645 -0.3221
16279SOL    HW155952   4.759   7.599   0.974 -0.7756 -0.4478  1.5128
16279SOL    HW255953   4.698   7.720   1.041  0.9168 -0.2387  2.7259
16280SOL     OW55954  11.788   2.926   6.736 -0.0981 -0.1351 -0.1873
16280SOL    HW155955  11.806   2.876   6.816  0.1714  0.1264 -0.0866
16280SOL    HW255956  11.823   2.872   6.665  0.5990  0.1214 -0.0391
16281SOL     OW55957   9.527   8.079  12.559  0.1537  0.2692  0.1590
16281SOL    HW155958   9.556   8.022  12.631 -0.8927 -0.0708  0.3293
16281SOL    HW255959   9.526   8.021  12.482 -2.2139 -0.3641  0.5841
16282SOL     OW55960  11.132   6.841   2.222 -0.4203  0.2312  0.2698
16282SOL    HW155961  11.205   6.803   2.172  0.8128  2.5423  0.1905
16282SOL    HW255962  11.149   6.815   2.312 -1.1329 -1.6285 -0.0739
16283SOL     OW55963   2.617   5.348   6.201 -0.0536  0.4636  0.4281
16283SOL    HW155964   2.628   5.382   6.112  0.3293 -0.2389  0.2014
16283SOL    HW255965   2.665   5.265   6.201  0.2432  0.6301  1.3921
16284SOL     OW55966   7.326  11.183  12.497  0.3479  0.0958  0.7516
16284SOL    HW155967   7.286  11.099  12.518  0.2420 -0.9682 -3.0135
16284SOL    HW255968   7.412  11.161  12.462  0.7245  1.6559  0.6135
16285SOL     OW55969   3.976  12.363   7.967 -0.2110  0.0088 -0.0529
16285SOL    HW155970   4.002  12.438   8.020 -0.5157 -0.1587  0.3362
16285SOL    HW255971   3.952  12.295   8.031 -0.0528 -0.3798 -0.3992
16286SOL     OW55972   1.564  12.149  11.162 -0.4599  0.6520  0.0426
16286SOL    HW155973   1.601  12.066  11.135  1.4894  1.1632  1.0134
16286SOL    HW255974   1.476  12.127  11.193 -1.2263 -0.5377 -2.6217
16287SOL     OW55975  10.667   1.552   3.112  0.0165  0.0820  0.2156
16287SOL    HW155976  10.729   1.494   3.068 -0.1401 -1.5425  2.0394
16287SOL    HW255977  10.581   1.519   3.087 -0.0910  0.1957  0.4368
16288SOL     OW55978   5.262   1.644   8.542  0.3321 -0.1882 -0.2084
16288SOL    HW155979   5.228   1.563   8.505  0.9209 -0.4258 -0.2451
16288SOL    HW255980   5.343   1.661   8.494  0.5197  0.1049  0.2005
16289SOL     OW55981   1.028  11.512   6.550 -0.6101  0.1452  0.2049
16289SOL    HW155982   0.995  11.499   6.639 -0.5369 -0.4824  0.1419
16289SOL    HW255983   0.956  11.556   6.504 -0.3413  1.2494  0.7870
16290SOL     OW55984   8.826   2.533   1.555 -0.0054  0.3899  0.1948
16290SOL    HW155985   8.854   2.449   1.520 -2.6195 -1.0806  1.3748
16290SOL    HW255986   8.901   2.591   1.540  1.3836 -1.7451 -1.8876
16291SOL     OW55987   5.920   7.992   6.751  0.1971 -0.0419 -0.1918
16291SOL    HW155988   5.984   7.921   6.758 -0.2345 -0.3399  1.0338
16291SOL    HW255989   5.944   8.052   6.822  0.3194  0.8613 -0.9738
16292SOL     OW55990   9.327   9.533   3.665  0.0156 -0.3263  0.3191
16292SOL    HW155991   9.330   9.600   3.733 -0.4213 -0.0435  0.0665
16292SOL    HW255992   9.234   9.519   3.649  0.0956  0.6065 -1.1768
16293SOL     OW55993  10.381  11.594   6.630 -0.1032  0.3746  0.3910
16293SOL    HW155994  10.423  11.606   6.715 -0.2312  1.7013  0.2854
16293SOL    HW255995  10.316  11.664   6.625 -0.6601 -0.1797 -0.4629
16294SOL     OW55996  10.585   7.788  12.545 -0.0100 -0.5206  0.5866
16294SOL    HW155997  10.498   7.821  12.523  0.3395  0.3085  0.4230
16294SOL    HW255998  10.644   7.832  12.483  0.6138 -0.5117  1.1758
16295SOL     OW55999   9.897   2.131   1.417 -0.1462  0.0673 -0.2061
16295SOL    HW156000   9.841   2.187   1.363 -0.4049 -0.6546 -0.6920
16295SOL    HW256001   9.919   2.057   1.361  2.1178  0.8056 -0.3624
16296SOL     OW56002   1.418  12.740   4.303  0.6937  0.6990  0.5035
16296SOL    HW156003   1.378  12.668   4.352  1.6560  0.6414  1.2208
16296SOL    HW256004   1.393  12.723   4.212  0.9332 -0.5711  0.6529
16297SOL     OW56005   3.015   4.285   4.110 -0.2279 -0.4987 -1.0031
16297SOL    HW156006   2.921   4.300   4.125 -0.3762 -0.4001 -1.9918
16297SOL    HW256007   3.033   4.329   4.027  1.2793  1.7400  0.4057
16298SOL     OW56008   4.591  12.144  10.854  0.0014 -0.5181  0.0536
16298SOL    HW156009   4.653  12.206  10.893 -0.7297  0.3985 -0.2042
16298SOL    HW256010   4.627  12.058  10.875  2.8765 -0.0888 -2.4214
16299SOL     OW56011   0.849  10.290   2.575  0.1643 -0.5072  0.0750
16299SOL    HW156012   0.904  10.367   2.567  1.4838 -1.5458 -1.4782
16299SOL    HW256013   0.910  10.216   2.574 -1.0507 -1.6077  1.5696
16300SOL     OW56014   5.285   3.512  10.846 -1.1059 -0.4545  0.3631
16300SOL    HW156015   5.322   3.493  10.760 -0.8525 -0.2434  0.4240
16300SOL    HW256016   5.255   3.603  10.840 -0.5825 -0.2577  0.6724
16301SOL     OW56017   2.081   5.988   4.070 -0.2880  0.0806  0.2678
16301SOL    HW156018   2.129   5.946   4.141 -0.4278  1.5999  1.3262
16301SOL    HW256019   2.037   5.917   4.025  1.2726 -1.1277  0.5532
16302SOL     OW56020  12.117   3.689  10.059  0.2573 -0.0976 -0.2653
16302SOL    HW156021  12.152   3.711   9.973  1.5690  0.2769  0.3387
16302SOL    HW256022  12.040   3.745  10.069  1.7884  2.0453 -0.0096
16303SOL     OW56023   6.777   0.528   4.161  0.3891 -0.0964  0.4544
16303SOL    HW156024   6.761   0.465   4.091 -1.1653  1.6655 -0.8947
16303SOL    HW256025   6.690   0.559   4.185  1.0236  0.6081  1.9965
16304SOL     OW56026   7.909  12.320   0.222 -0.4523  0.1873 -0.2289
16304SOL    HW156027   7.986  12.281   0.264 -1.2640 -1.6487 -0.3293
16304SOL    HW256028   7.936  12.409   0.200  2.3549 -0.9941 -2.1370
16305SOL     OW56029   8.246   8.947   6.600  0.4657 -0.0453  0.3847
16305SOL    HW156030   8.276   8.875   6.656  0.5362 -0.2717  0.0620
16305SOL    HW256031   8.326   8.982   6.561  0.3436 -0.4991 -0.2955
16306SOL     OW56032   5.351  12.963   4.843  0.0595 -0.1198  0.0152
16306SOL    HW156033   5.399  12.904   4.785  1.0760 -0.7579  1.4580
16306SOL    HW256034   5.316  12.906   4.912  0.8888  0.9113  1.3219
16307SOL     OW56035  10.376   3.485   0.142 -0.2910  0.6175 -0.2097
16307SOL    HW156036  10.451   3.498   0.199 -0.1184 -1.2455  0.0565
16307SOL    HW256037  10.315   3.433   0.194 -1.9415  2.3412 -0.3014
16308SOL     OW56038   8.636   0.598   1.089 -0.1784  0.2859 -0.7970
16308SOL    HW156039   8.687   0.546   1.027  0.4901 -0.1910  0.1309
16308SOL    HW256040   8.702   0.644   1.142 -0.7263  0.4197 -0.2206
16309SOL     OW56041  11.127   4.593   2.574 -0.2490  0.0749  0.2934
16309SOL    HW156042  11.188   4.643   2.627  2.9573 -1.5757 -1.4969
16309SOL    HW256043  11.136   4.629   2.486 -0.5683 -1.2958 -0.3318
16310SOL     OW56044   2.525   3.755   9.153 -0.2748 -0.2254  0.4290
16310SOL    HW156045   2.531   3.849   9.136 -1.2763 -0.3189 -0.5963
16310SOL    HW256046   2.493   3.719   9.070 -1.7417 -1.2315  1.3906
16311SOL     OW56047   3.233   4.960  11.469  0.0273 -0.6010  0.2309
16311SOL    HW156048   3.281   4.882  11.500 -1.0978 -1.8569 -1.0315
16311SOL    HW256049   3.219   4.943  11.376  1.4098  2.0310 -0.5321
16312SOL     OW56050   4.896   4.718   6.394  0.1561  0.4602 -0.2477
16312SOL    HW156051   4.888   4.727   6.299 -0.1424 -2.1022 -0.5261
16312SOL    HW256052   4.808   4.733   6.427 -0.1545 -0.6213 -0.5790
16313SOL     OW56053   2.437  12.588   8.997  0.2200 -0.2872 -0.3723
16313SOL    HW156054   2.419  12.632   9.080 -0.8010  0.2892 -0.8787
16313SOL    HW256055   2.526  12.615   8.974  0.4715 -0.3694  0.4670
16314SOL     OW56056   8.697  11.923  10.708  0.0196  0.0476  0.8082
16314SOL    HW156057   8.730  11.968  10.785 -0.1375 -1.7651  1.9779
16314SOL    HW256058   8.619  11.973  10.683  1.2104  1.8868  0.5035
16315SOL     OW56059  11.079   4.298   1.046  0.3365  0.3156  0.2576
16315SOL    HW156060  11.041   4.367   0.992  0.4577 -0.9827 -1.5938
16315SOL    HW256061  11.076   4.220   0.990  4.2995 -0.2286  0.5285
16316SOL     OW56062   7.792   5.212   6.623 -0.2300 -0.0587 -0.3698
16316SOL    HW156063   7.767   5.191   6.713 -1.0444  0.5992 -0.4262
16316SOL    HW256064   7.798   5.127   6.579 -0.1372 -0.3619  0.2306
16317SOL     OW56065   3.886   7.874   4.459 -0.1853 -0.1050  0.0259
16317SOL    HW156066   3.923   7.963   4.461  1.5523 -0.7945 -0.3260
16317SOL    HW256067   3.938   7.827   4.394 -0.9784 -1.4400  0.3194
16318SOL     OW56068   2.641   6.584   4.092 -0.0147 -0.0713 -0.0796
16318SOL    HW156069   2.575   6.518   4.114 -1.1114  1.0876  0.2449
16318SOL    HW256070   2.721   6.534   4.079 -0.7767 -1.4527  0.2817
16319SOL     OW56071   8.165   3.764  10.286  0.2269  0.4567 -0.1045
16319SOL    HW156072   8.155   3.681  10.239  0.2542 -0.0267  0.7164
16319SOL    HW256073   8.142   3.831  10.222  0.0036 -0.1986 -0.7226
16320SOL     OW56074   7.421   2.074   5.021  0.2164 -0.1145  0.2756
16320SOL    HW156075   7.352   2.122   5.065  1.4045  2.0349 -0.0711
16320SOL    HW256076   7.498   2.085   5.077  1.3573  1.3583 -1.4656
16321SOL     OW56077   2.712   1.060  12.227 -0.2008 -0.3509 -0.2463
16321SOL    HW156078   2.703   1.093  12.317 -0.2809 -1.0023 -0.0157
16321SOL    HW256079   2.633   1.091  12.183 -1.5352 -2.3064  0.6225
16322SOL     OW56080   6.991   7.787   8.878  0.0332 -0.5977 -0.1193
16322SOL    HW156081   6.900   7.805   8.903  0.3950  0.3392  0.6071
16322SOL    HW256082   7.028   7.743   8.955  0.4138 -0.2098 -0.0763
16323SOL     OW56083  12.489   7.669   9.716 -0.5919  0.0098  0.0463
16323SOL    HW156084  12.538   7.592   9.746 -2.3413 -1.4808 -0.6998
16323SOL    HW256085  12.442   7.698   9.794  0.5758  0.7773  0.4938
16324SOL     OW56086   4.473  12.863   1.905  0.6850  0.3595  0.6663
16324SOL    HW156087   4.445  12.916   1.830  0.6193 -0.2562  0.2447
16324SOL    HW256088   4.441  12.775   1.886  0.2610  0.2899  1.6520
16325SOL     OW56089   4.475   4.456   1.470 -0.2186 -0.4515 -0.3116
16325SOL    HW156090   4.514   4.488   1.388 -0.5014  0.6872 -0.0225
16325SOL    HW256091   4.423   4.380   1.444  0.6800 -0.8543 -0.9930
16326SOL     OW56092   2.801   9.516   9.599 -0.2580 -0.0435 -0.3258
16326SOL    HW156093   2.791   9.430   9.559 -0.0244  0.6755 -2.0056
16326SOL    HW256094   2.893   9.520   9.623 -0.6356 -0.9422  1.5115
16327SOL     OW56095   2.261   2.484  10.641 -0.3717 -0.3430  0.0569
16327SOL    HW156096   2.213   2.421  10.588 -0.6092 -1.0946  1.1371
16327SOL    HW256097   2.259   2.448  10.730 -2.3838  2.1923  1.1890
16328SOL     OW56098   0.593   5.943  11.538 -0.5573 -0.2590 -0.5417
16328SOL    HW156099   0.523   5.934  11.472  0.1097  0.3077 -1.3534
16328SOL    HW256100   0.547   5.944  11.622 -1.4072 -1.3813 -0.9665
16329SOL     OW56101   0.128   3.181   4.987  0.0262  0.5484 -0.1759
16329SOL    HW156102   0.129   3.147   4.898 -1.4700 -0.3993  0.1244
16329SOL    HW256103   0.154   3.107   5.041 -3.0703 -0.2378  0.4738
16330SOL     OW56104   4.351   1.097   5.629 -0.1728  0.2638  0.0567
16330SOL    HW156105   4.375   1.167   5.690 -1.0680  1.1207 -0.5273
16330SOL    HW256106   4.420   1.031   5.639  0.2588  0.8644  1.2083
16331SOL     OW56107   6.055   9.097  11.332 -0.2791  0.3021 -0.1643
16331SOL    HW156108   6.094   9.136  11.410  1.7118 -1.6459 -0.1003
16331SOL    HW256109   5.962   9.119  11.338 -0.2736 -0.1486  3.0012
16332SOL     OW56110   1.999   2.389   0.737 -0.5801 -0.1716  0.0422
16332SOL    HW156111   2.055   2.454   0.694 -1.2026 -0.0983 -0.6687
16332SOL    HW256112   1.962   2.436   0.812 -1.2128  0.3773 -0.6036
16333SOL     OW56113   1.690   4.209   8.065 -0.2405  0.2970 -0.0221
16333SOL    HW156114   1.599   4.189   8.087 -0.4805 -0.3861 -1.4875
16333SOL    HW256115   1.741   4.146   8.116 -0.6929 -0.3904 -0.3993
16334SOL     OW56116  12.638   5.927  11.205  0.3305 -0.4092 -0.0811
16334SOL    HW156117  12.698   5.981  11.256  0.5774  3.0109 -3.5632
16334SOL    HW256118  12.694   5.860  11.165  0.7588 -0.7238  1.0084
16335SOL     OW56119   5.987  12.918   3.994  0.1915  0.4465  0.3088
16335SOL    HW156120   6.057  12.860   3.963 -0.0420  0.8156 -0.9554
16335SOL    HW256121   5.908  12.864   3.992 -0.2749  1.1266 -2.1559
16336SOL     OW56122   3.678   1.316   0.603  0.4024 -0.1711 -0.5857
16336SOL    HW156123   3.682   1.221   0.589 -2.0747 -0.3746 -0.3701
16336SOL    HW256124   3.678   1.354   0.515 -1.1507 -0.5768 -0.7940
16337SOL     OW56125   3.381   8.082   2.248  0.6695  0.6131 -0.1665
16337SOL    HW156126   3.305   8.140   2.256  0.6038  0.5397 -0.2510
16337SOL    HW256127   3.362   8.028   2.171  0.4138  0.0146  0.3068
16338SOL     OW56128  10.352  11.942   2.490  0.0108 -0.7538 -0.4009
16338SOL    HW156129  10.293  12.011   2.462  0.3840 -0.1197  0.3408
16338SOL    HW256130  10.305  11.895   2.559  0.6400  0.2460  0.7515
16339SOL     OW56131   1.810  10.654   2.912  0.5585  0.3605  0.2407
16339SOL    HW156132   1.864  10.577   2.896 -0.8790 -1.0323  1.7307
16339SOL    HW256133   1.771  10.674   2.827  1.2205 -0.3352 -0.2390
16340SOL     OW56134   0.645   2.429  10.574 -0.3629  0.2108  0.5877
16340SOL    HW156135   0.661   2.480  10.653 -2.4099  0.1517  1.1006
16340SOL    HW256136   0.655   2.338  10.601 -3.2926  0.0517  1.4616
16341SOL     OW56137  10.161   1.009  12.225 -0.3674 -0.3249  0.2552
16341SOL    HW156138  10.201   1.078  12.174 -0.3529 -0.9177 -0.5498
16341SOL    HW256139  10.174   0.929  12.174 -0.9326 -0.8264  0.8597
16342SOL     OW56140   5.422   6.563   2.403  0.1045 -0.3136 -0.0209
16342SOL    HW156141   5.404   6.476   2.366 -0.4634 -0.7330  1.1950
16342SOL    HW256142   5.391   6.624   2.336  1.4715 -1.0198 -1.3567
16343SOL     OW56143   5.352   1.717   1.705  0.5074 -0.0586 -0.1097
16343SOL    HW156144   5.344   1.812   1.700  0.6585 -0.0463 -0.1265
16343SOL    HW256145   5.351   1.688   1.614 -0.9096 -0.1936 -0.0719
16344SOL     OW56146   0.999   9.551  10.967 -0.1000  0.3005 -0.1009
16344SOL    HW156147   1.056   9.550  11.044 -0.4679 -2.0484  0.2087
16344SOL    HW256148   1.024   9.630  10.920  2.5120  0.0397  0.7032
16345SOL     OW56149   3.699   9.457   9.643  0.3443 -0.1399 -0.3287
16345SOL    HW156150   3.686   9.383   9.703 -0.8591  1.3808  1.4036
16345SOL    HW256151   3.646   9.436   9.566 -1.1858 -0.4476  0.7579
16346SOL     OW56152   4.580  11.471   1.605  0.1899 -0.1537  0.7578
16346SOL    HW156153   4.623  11.556   1.614 -0.5066  0.2621  0.2668
16346SOL    HW256154   4.604  11.442   1.517 -1.4433  0.6257  0.0133
16347SOL     OW56155   8.436   2.170  10.088  0.3057 -0.4056  0.1948
16347SOL    HW156156   8.388   2.242  10.129  1.9768  0.8756 -0.0160
16347SOL    HW256157   8.412   2.175   9.995  0.7256  0.1600  0.1099
16348SOL     OW56158  12.462   8.279   2.267  0.0025 -0.1560  0.4279
16348SOL    HW156159  12.438   8.295   2.176  2.3446  1.2644 -0.0050
16348SOL    HW256160  12.449   8.185   2.279  0.0615 -0.4459 -1.5008
16349SOL     OW56161  10.144   4.146   5.655 -0.5886 -0.4456  0.1437
16349SOL    HW156162  10.145   4.219   5.592  1.8427 -0.8035 -0.3137
16349SOL    HW256163  10.234   4.140   5.687 -1.4966 -1.0607  2.8172
16350SOL     OW56164   8.619   4.972  12.934  0.3410  0.4721  0.2956
16350SOL    HW156165   8.580   4.940  12.852  0.9732  0.1651  0.1021
16350SOL    HW256166   8.602   5.066  12.934  0.7842  0.5658 -0.4538
16351SOL     OW56167   4.329  11.840   3.794  0.1259  0.3630  0.0388
16351SOL    HW156168   4.278  11.855   3.715 -2.5901  0.2094  1.6293
16351SOL    HW256169   4.337  11.927   3.835 -2.0346 -0.0812  1.5355
16352SOL     OW56170   3.618   5.684   8.618 -0.3352  0.0627 -0.4427
16352SOL    HW156171   3.603   5.757   8.679 -1.6506 -0.1077 -0.5292
16352SOL    HW256172   3.536   5.676   8.569  0.3712 -0.4050 -1.6103
16353SOL     OW56173   4.472   9.397   9.976  0.2126 -0.6191  0.3092
16353SOL    HW156174   4.546   9.441   9.934 -0.8448 -0.2935 -1.3238
16353SOL    HW256175   4.427   9.354   9.904 -1.0310 -1.0344  1.3116
16354SOL     OW56176   8.003   2.784   2.042  0.6086 -0.4364 -0.0539
16354SOL    HW156177   7.983   2.814   1.954  0.2042  0.5343  0.3542
16354SOL    HW256178   8.095   2.807   2.055  0.3278  0.5808  0.2216
16355SOL     OW56179   5.205   2.193   9.321 -0.3225  0.1923 -0.4956
16355SOL    HW156180   5.244   2.168   9.405  1.2980  2.0520 -0.6073
16355SOL    HW256181   5.279   2.198   9.261 -0.7252  3.1793 -0.8972
16356SOL     OW56182   3.218   1.489   0.396  0.0014  0.3785 -0.5070
16356SOL    HW156183   3.293   1.501   0.337 -0.2438  0.8063 -0.7307
16356SOL    HW256184   3.248   1.422   0.458  0.4866  0.3758 -0.7361
16357SOL     OW56185   5.450   5.690  10.318 -0.1717 -0.5188 -0.3506
16357SOL    HW156186   5.420   5.777  10.343 -0.8985 -0.8593 -0.0160
16357SOL    HW256187   5.426   5.634  10.392  1.5750 -0.7541  0.0714
16358SOL     OW56188   4.336   2.081  10.977  0.3488 -0.0817  0.0973
16358SOL    HW156189   4.241   2.067  10.977  0.4912 -1.1181 -1.1182
16358SOL    HW256190   4.373   1.998  10.947  1.5722  0.7894 -0.8778
16359SOL     OW56191   7.306   4.189   6.581 -0.2148 -0.7091  0.3282
16359SOL    HW156192   7.369   4.127   6.547 -0.7502 -1.1551  0.1297
16359SOL    HW256193   7.354   4.271   6.589  0.0976 -0.7627 -0.8611
16360SOL     OW56194   1.312   7.834   0.867 -0.3384  0.3844 -0.0377
16360SOL    HW156195   1.246   7.841   0.797  0.6467  0.7514 -0.9576
16360SOL    HW256196   1.280   7.894   0.935 -2.9578 -2.2624  1.2722
16361SOL     OW56197   5.593   1.277   3.805 -0.3822 -0.0209 -0.1411
16361SOL    HW156198   5.538   1.199   3.805 -1.5890  0.7181  1.8647
16361SOL    HW256199   5.652   1.265   3.879 -0.6754  0.9773  0.2829
16362SOL     OW56200  10.326   1.732   6.591 -0.3601  0.8066  0.0286
16362SOL    HW156201  10.270   1.786   6.646  0.5783  0.8428  0.9811
16362SOL    HW256202  10.268   1.666   6.555 -1.8296  3.0823 -2.1586
16363SOL     OW56203   3.877   0.155  12.240 -0.1281  0.0866  0.4219
16363SOL    HW156204   3.971   0.173  12.232  0.4317 -1.2276  3.0311
16363SOL    HW256205   3.863   0.145  12.334 -2.4255 -2.0805 -0.0583
16364SOL     OW56206   3.459  10.039  12.711  0.5509  0.0705 -0.0415
16364SOL    HW156207   3.506  10.043  12.794  0.1705 -0.9010  0.2384
16364SOL    HW256208   3.473  10.125  12.671  2.6396 -0.2043 -0.0307
16365SOL     OW56209   6.723  11.765   1.626  0.2656 -0.2922 -0.2327
16365SOL    HW156210   6.678  11.776   1.542  0.3345  0.5847 -0.1702
16365SOL    HW256211   6.669  11.704   1.675  0.2920 -0.9150 -0.9632
16366SOL     OW56212   1.506   9.396   7.250 -0.2847 -0.7070  0.2290
16366SOL    HW156213   1.421   9.382   7.209  0.3407  0.5563 -1.6677
16366SOL    HW256214   1.490   9.464   7.315 -0.3733  1.5000 -1.9137
16367SOL     OW56215   5.686   7.729   9.903 -0.0558  0.8264  0.0388
16367SOL    HW156216   5.673   7.696   9.814  0.2112  1.5499 -0.2719
16367SOL    HW256217   5.643   7.814   9.904 -1.9597 -0.0810  1.2352
16368SOL     OW56218   8.150   8.242   1.930 -0.0370 -0.3434 -0.0781
16368SOL    HW156219   8.128   8.301   1.857  0.6622 -0.4637 -0.3867
16368SOL    HW256220   8.069   8.193   1.945 -0.4957  0.3707 -0.1150
16369SOL     OW56221   4.046  10.404   5.394 -0.2597 -0.4044  0.0361
16369SOL    HW156222   3.951  10.404   5.381 -0.3624  2.6084 -0.0159
16369SOL    HW256223   4.082  10.402   5.305 -0.3383 -0.1971 -0.0027
16370SOL     OW56224   5.832   0.237  10.555 -0.2682  0.3286 -0.5147
16370SOL    HW156225   5.882   0.267  10.479 -0.1441 -1.1415 -1.0484
16370SOL    HW256226   5.890   0.173  10.597 -0.2209  1.3144  0.9909
16371SOL     OW56227   9.325   7.895   4.057  0.4168  0.9608  0.1175
16371SOL    HW156228   9.313   7.806   4.026 -0.1054  0.2324  2.2324
16371SOL    HW256229   9.284   7.950   3.990  0.2665 -0.4237 -0.9517
16372SOL     OW56230  12.070   3.085  10.071 -0.5902  0.2355  0.2302
16372SOL    HW156231  12.051   2.998  10.036  0.5734 -0.1808  0.6038
16372SOL    HW256232  12.085   3.139   9.994  2.3837 -0.7708 -0.0297
16373SOL     OW56233   5.268  11.622   1.040  0.2166 -0.1325  0.5323
16373SOL    HW156234   5.337  11.646   1.102 -0.9802 -1.1997  2.3758
16373SOL    HW256235   5.204  11.693   1.048  0.0376 -0.2966  0.5446
16374SOL     OW56236   7.588   9.782  12.905  0.1707 -0.2421  0.4592
16374SOL    HW156237   7.587   9.687  12.903 -2.2816 -0.2704 -0.3882
16374SOL    HW256238   7.579   9.804  12.998 -0.8833 -0.8708  0.5181
16375SOL     OW56239   0.591   8.050   0.234 -0.6519 -0.5645 -0.5020
16375SOL    HW156240   0.584   8.102   0.314  0.6625  0.1786 -0.8419
16375SOL    HW256241   0.641   8.106   0.174 -1.0166 -1.3967 -1.5901
16376SOL     OW56242  12.658   9.043   2.181 -0.0218 -0.1832  0.6125
16376SOL    HW156243  12.727   8.978   2.193  1.2145  1.0762  0.6222
16376SOL    HW256244  12.655   9.090   2.265 -0.9789 -0.2873  0.6463
16377SOL     OW56245  11.240   5.510   0.195  0.6268 -0.0315 -0.5282
16377SOL    HW156246  11.213   5.532   0.284  0.7624 -1.7804 -0.0203
16377SOL    HW256247  11.265   5.418   0.199 -1.5071 -0.8215 -2.8471
16378SOL     OW56248   3.331   9.083   1.253 -0.1415  0.0878  0.4558
16378SOL    HW156249   3.347   9.099   1.160 -0.1891  3.7867  0.9660
16378SOL    HW256250   3.269   9.010   1.253 -1.5463  1.0937 -2.5207
16379SOL     OW56251   1.696   3.362   0.959  0.1163  0.1651 -0.5474
16379SOL    HW156252   1.789   3.340   0.966 -0.0843 -0.4185  0.5548
16379SOL    HW256253   1.693   3.436   0.898  1.2694  0.0003 -0.8253
16380SOL     OW56254   4.996  11.186  12.031 -0.2128  0.8437  0.3491
16380SOL    HW156255   4.921  11.228  12.073 -0.6082  0.0975  0.4108
16380SOL    HW256256   4.979  11.092  12.040  1.9672  0.5687  2.6564
16381SOL     OW56257   5.002   2.757   9.013 -0.3749  0.1164  0.2431
16381SOL    HW156258   5.014   2.775   8.920  0.6917 -3.0310 -0.3566
16381SOL    HW256259   4.907   2.753   9.025 -0.5202 -0.1835 -0.9084
16382SOL     OW56260   3.668   9.698  11.404  0.4509  0.7255 -0.4412
16382SOL    HW156261   3.618   9.719  11.325 -2.5311 -0.3673  0.9875
16382SOL    HW256262   3.623   9.744  11.474  1.7413  0.0004  0.9155
16383SOL     OW56263   2.481  10.384   1.193 -0.1618  0.4494  0.3138
16383SOL    HW156264   2.445  10.370   1.105  0.5948  0.8522 -0.0657
16383SOL    HW256265   2.477  10.479   1.206  0.0758  0.4254  0.5637
16384SOL     OW56266  10.912   2.223   9.800  0.2555 -0.5255 -0.2640
16384SOL    HW156267  10.827   2.242   9.760  0.2318  0.1651  0.0940
16384SOL    HW256268  10.894   2.154   9.864 -0.5949  1.4481  1.7461
16385SOL     OW56269   9.966   9.959   1.944 -0.6160 -0.1677 -0.6462
16385SOL    HW156270   9.986  10.052   1.942  0.8400 -0.4258  0.3257
16385SOL    HW256271   9.952   9.935   1.852  1.8075  0.4649 -1.2459
16386SOL     OW56272   6.836   6.396   3.210  0.0700  0.2559  0.1552
16386SOL    HW156273   6.838   6.317   3.264 -0.8175  0.1252  0.0205
16386SOL    HW256274   6.925   6.432   3.215  0.3599 -0.5052  0.5801
16387SOL     OW56275  12.314   9.405  12.236 -0.8275 -0.0665 -0.5775
16387SOL    HW156276  12.362   9.341  12.288  1.0067  0.4617 -1.5679
16387SOL    HW256277  12.222   9.382  12.250 -0.3048 -1.4875  0.8760
16388SOL     OW56278   7.375   6.284   7.398 -0.4828  0.4128 -0.5560
16388SOL    HW156279   7.294   6.330   7.421 -0.8091  0.5976 -1.9666
16388SOL    HW256280   7.432   6.352   7.362 -0.1089  0.1042 -0.5499
16389SOL     OW56281   0.844   9.881   7.128  0.4836  0.6310  0.3420
16389SOL    HW156282   0.834   9.885   7.033  1.7792  0.1172  0.1644
16389SOL    HW256283   0.933   9.911   7.145  0.3267  0.5644  1.3906
16390SOL     OW56284   7.548  12.914  10.362  0.1420  0.7116  0.1633
16390SOL    HW156285   7.490  12.968  10.416 -3.2781 -1.5915 -0.8354
16390SOL    HW256286   7.553  12.959  10.278 -0.0898  1.0232  0.3171
16391SOL     OW56287   1.174  11.679  12.206 -0.6720 -0.0939 -0.0160
16391SOL    HW156288   1.205  11.763  12.240 -0.8832  0.3388 -0.8681
16391SOL    HW256289   1.080  11.677  12.226 -0.6855 -0.0866 -0.0785
16392SOL     OW56290   7.105  12.464   5.703  0.3227 -0.0000  0.7002
16392SOL    HW156291   7.053  12.507   5.772  0.5622 -0.3887  1.1300
16392SOL    HW256292   7.152  12.536   5.660 -0.5492  0.3517  0.3204
16393SOL     OW56293   0.201   5.648   7.320  0.2141 -0.6112 -0.1903
16393SOL    HW156294   0.191   5.584   7.389  0.5419 -0.8858 -0.3918
16393SOL    HW256295   0.294   5.643   7.296  0.6918  1.2334  1.0582
16394SOL     OW56296   7.290   1.897   5.543 -0.0620 -0.3728 -0.4106
16394SOL    HW156297   7.268   1.804   5.537 -0.2184 -0.3345 -0.4225
16394SOL    HW256298   7.249   1.936   5.466 -3.4091  0.3962  1.5799
16395SOL     OW56299   4.539   3.034   8.496  0.2089  0.2938 -0.0422
16395SOL    HW156300   4.542   3.085   8.415  0.5152  0.1012 -0.1544
16395SOL    HW256301   4.508   2.948   8.469  0.2691  0.2425  0.0520
16396SOL     OW56302   8.382   9.309   6.072  0.2371  0.0032 -0.4305
16396SOL    HW156303   8.306   9.351   6.033 -0.5616 -0.9605  0.0663
16396SOL    HW256304   8.360   9.216   6.075  0.9152 -0.1351  0.8650
16397SOL     OW56305   4.311   9.473   2.126 -0.3952 -0.0642  0.3368
16397SOL    HW156306   4.375   9.524   2.175 -0.6603  1.5821 -0.9484
16397SOL    HW256307   4.266   9.421   2.192  0.1410  1.1033  1.6566
16398SOL     OW56308   9.758   4.600   4.817  0.0434 -0.2856 -0.8410
16398SOL    HW156309   9.748   4.540   4.891 -1.7009 -1.1067 -1.6833
16398SOL    HW256310   9.851   4.624   4.818  0.4419 -1.7016  0.5089
16399SOL     OW56311  12.931   8.747   0.547  0.4004 -0.5477 -0.2445
16399SOL    HW156312  12.876   8.691   0.601  0.6879  0.1308  0.7756
16399SOL    HW256313  12.987   8.793   0.609  1.1286 -0.1584 -1.1637
16400SOL     OW56314   7.465   7.880   6.974  0.3664 -0.3350  0.5236
16400SOL    HW156315   7.557   7.898   6.993  0.5777 -1.7449  0.9841
16400SOL    HW256316   7.467   7.838   6.887  0.2173 -0.7290  0.7075
16401SOL     OW56317  11.043   3.616   9.865  0.1203 -0.6454  0.3283
16401SOL    HW156318  11.019   3.600   9.957 -2.6235 -0.2608 -0.2321
16401SOL    HW256319  10.991   3.553   9.816 -0.3511  0.7945 -1.0885
16402SOL     OW56320   2.838   2.945   6.210 -0.5357 -0.0537  0.0990
16402SOL    HW156321   2.923   2.988   6.207 -1.0246  0.8601 -1.0403
16402SOL    HW256322   2.859   2.851   6.211  0.5291  0.1205  2.2664
16403SOL     OW56323   3.446   3.239   2.309  0.1334  0.0735  0.1925
16403SOL    HW156324   3.496   3.320   2.299  0.0555  0.1625  0.5070
16403SOL    HW256325   3.362   3.268   2.345 -0.6392  0.0795 -1.5074
16404SOL     OW56326   0.554   9.156   7.211 -0.2488 -0.1889 -0.1201
16404SOL    HW156327   0.557   9.068   7.174  0.4293  0.1866 -0.9818
16404SOL    HW256328   0.614   9.152   7.286  0.1116 -0.3512 -0.4145
16405SOL     OW56329   4.759  11.369   4.841 -0.0485  0.2116  0.0349
16405SOL    HW156330   4.704  11.379   4.918 -0.7974  1.2342 -0.6079
16405SOL    HW256331   4.714  11.304   4.787 -0.9644  1.4846 -0.7632
16406SOL     OW56332   3.518  12.726  12.232  0.6391 -0.4517 -0.2466
16406SOL    HW156333   3.437  12.775  12.243  0.6820 -0.5304  0.4916
16406SOL    HW256334   3.530  12.720  12.137 -1.1304 -1.9514 -0.4270
16407SOL     OW56335  11.170   1.671  10.660  0.0223  0.5188  0.2933
16407SOL    HW156336  11.163   1.730  10.735 -1.5821 -0.4903  1.0082
16407SOL    HW256337  11.261   1.644  10.658  0.2234  1.0799  1.4776
16408SOL     OW56338  11.674   9.863   4.275 -0.3453  0.8565  0.6808
16408SOL    HW156339  11.716   9.845   4.190  0.7345  1.4888  1.0547
16408SOL    HW256340  11.589   9.819   4.270  0.0751  0.1206 -0.3824
16409SOL     OW56341   6.744   2.753   7.940 -0.4525 -0.3819 -0.3635
16409SOL    HW156342   6.756   2.674   7.994 -0.6082 -0.2082 -0.0723
16409SOL    HW256343   6.811   2.814   7.972  0.4664 -0.8133 -1.3954
16410SOL     OW56344   0.148   2.172   2.752  0.1380  0.1986  0.1493
16410SOL    HW156345   0.135   2.104   2.686 -1.6752  1.6026 -1.0248
16410SOL    HW256346   0.085   2.151   2.821  0.3654  0.0604  0.3152
16411SOL     OW56347  10.162   0.989   5.972 -1.0554  0.0909 -0.0743
16411SOL    HW156348  10.206   1.071   5.995  0.3969 -0.8586  0.7319
16411SOL    HW256349  10.132   1.002   5.883  0.4331  1.0145 -0.4794
16412SOL     OW56350   9.828  12.080   3.274  0.4022  0.5702 -0.8076
16412SOL    HW156351   9.908  12.103   3.321  0.2832  0.5917 -0.6147
16412SOL    HW256352   9.779  12.026   3.336  1.1471 -1.1284 -1.5954
16413SOL     OW56353   9.179   3.768   8.494  0.0498  0.3060  0.0022
16413SOL    HW156354   9.241   3.809   8.434 -0.0788 -0.8964 -1.0118
16413SOL    HW256355   9.225   3.689   8.525 -1.2373 -1.0876 -1.4595
16414SOL     OW56356   6.839   8.594   5.037  0.7097  0.4547 -0.1335
16414SOL    HW156357   6.783   8.517   5.027  0.8190  0.2769  0.5266
16414SOL    HW256358   6.785   8.667   5.005 -0.1418  0.3667  1.0162
16415SOL     OW56359   6.350   8.699   4.818  0.5147  0.3431 -0.3184
16415SOL    HW156360   6.371   8.606   4.832  1.3363  0.4634 -0.6544
16415SOL    HW256361   6.308   8.701   4.732  1.0149  0.3374 -0.5721
16416SOL     OW56362   5.753   5.861  11.919 -0.2674 -0.4314 -0.5042
16416SOL    HW156363   5.829   5.918  11.925  0.0620 -0.6889 -1.9160
16416SOL    HW256364   5.735   5.836  12.010  1.1761 -0.1629 -0.1125
16417SOL     OW56365  12.333   2.897   9.542 -0.4914 -0.0026  0.2055
16417SOL    HW156366  12.272   2.964   9.574  0.8459  1.3368  0.0447
16417SOL    HW256367  12.332   2.908   9.447  0.5689  0.5545  0.2515
16418SOL     OW56368   7.565   1.106   3.280  0.2310  0.7145 -0.3794
16418SOL    HW156369   7.546   1.108   3.374  3.2573  1.7345  0.3191
16418SOL    HW256370   7.642   1.049   3.272  0.1931  0.8525 -2.1990
16419SOL     OW56371   3.526  12.604   2.512 -0.3680 -0.0383 -0.4648
16419SOL    HW156372   3.529  12.516   2.550 -1.6830 -0.0977 -0.4305
16419SOL    HW256373   3.480  12.656   2.577 -0.6132  0.3979 -0.9837
16420SOL     OW56374   4.237   8.350   5.750  0.3774  0.3172  0.4148
16420SOL    HW156375   4.287   8.312   5.822  0.1864  0.1616  0.4657
16420SOL    HW256376   4.146   8.336   5.774  0.2854 -1.7334 -0.8878
16421SOL     OW56377   1.667   3.755   9.755  0.2873  0.0491  0.4762
16421SOL    HW156378   1.738   3.752   9.690 -0.2153 -0.1711 -0.0640
16421SOL    HW256379   1.675   3.842   9.794 -2.8279  2.6009 -3.7945
16422SOL     OW56380   9.230   2.448  12.046 -0.8915 -0.0754  0.2989
16422SOL    HW156381   9.211   2.542  12.039 -0.8121 -0.0204  0.7854
16422SOL    HW256382   9.311   2.443  12.096 -1.4390 -0.4410  1.1637
16423SOL     OW56383  11.804   8.881   5.886  0.0139  0.5666  0.4994
16423SOL    HW156384  11.851   8.936   5.823 -1.2511  0.6596 -0.4027
16423SOL    HW256385  11.843   8.794   5.874 -0.7204  0.4076 -1.0064
16424SOL     OW56386   5.809   7.185   5.370 -0.0794 -0.0487  0.0513
16424SOL    HW156387   5.750   7.110   5.362  0.9533 -0.7922 -0.7873
16424SOL    HW256388   5.792   7.237   5.292  0.4245 -0.3230 -0.2515
16425SOL     OW56389   7.589   5.893   8.781  0.6028 -0.2081  0.3897
16425SOL    HW156390   7.607   5.801   8.802  1.2760  0.1016  1.2543
16425SOL    HW256391   7.672   5.937   8.800  0.0147  0.7135  0.8438
16426SOL     OW56392  11.448  11.859  10.314  0.1974  0.0725 -0.2337
16426SOL    HW156393  11.433  11.901  10.399 -0.8733 -0.2916 -0.2271
16426SOL    HW256394  11.542  11.841  10.311 -0.0241 -1.7126  1.7172
16427SOL     OW56395   6.226  11.719   6.180 -0.1743 -0.2746  0.2611
16427SOL    HW156396   6.248  11.681   6.265  1.3224 -0.0881 -0.0152
16427SOL    HW256397   6.298  11.693   6.123 -0.7488  0.2840 -0.7474
16428SOL     OW56398   2.566   8.244   7.967  0.4349 -0.3258 -0.0998
16428SOL    HW156399   2.510   8.175   8.001 -1.7993  1.6836  0.5712
16428SOL    HW256400   2.644   8.241   8.023 -0.1829 -1.4364  0.7444
16429SOL     OW56401   4.568   5.722   8.665  0.0053 -0.0576  0.2366
16429SOL    HW156402   4.604   5.701   8.751 -0.1366  1.2840  0.6371
16429SOL    HW256403   4.475   5.704   8.672  0.0073 -0.0241  0.3382
16430SOL     OW56404   2.650   1.764   4.700  0.4187  0.2843 -0.2954
16430SOL    HW156405   2.716   1.832   4.710  0.9622  0.0812 -2.1565
16430SOL    HW256406   2.662   1.731   4.611 -1.0604 -0.9606 -0.0851
16431SOL     OW56407  11.276   4.129   4.926  0.2149  0.1787 -0.9731
16431SOL    HW156408  11.250   4.048   4.883 -0.5903 -0.0629 -0.0784
16431SOL    HW256409  11.239   4.198   4.872  0.1549 -0.0796 -1.2646
16432SOL     OW56410  11.196  10.723   2.020  0.0459 -0.0449  0.4559
16432SOL    HW156411  11.281  10.757   2.047  0.1131  0.1413  0.0123
16432SOL    HW256412  11.217  10.649   1.962 -0.0871  0.3690 -0.1284
16433SOL     OW56413  11.678   4.203   8.112  0.0914  0.2987  0.5470
16433SOL    HW156414  11.690   4.265   8.040 -1.6083  2.3054  1.8719
16433SOL    HW256415  11.593   4.161   8.094  0.9526 -1.2894 -0.0242
16434SOL     OW56416   2.707   0.152   9.283 -0.3647 -0.0399  0.3177
16434SOL    HW156417   2.683   0.242   9.263  0.4186 -0.0069 -0.5909
16434SOL    HW256418   2.694   0.105   9.200  0.1100 -0.5598  0.5288
16435SOL     OW56419   3.775  11.594   1.324  0.1144 -0.3380 -0.0525
16435SOL    HW156420   3.732  11.561   1.403  0.4097  0.0433  0.2736
16435SOL    HW256421   3.757  11.688   1.325  0.9928 -0.1709  0.1117
16436SOL     OW56422   5.841   0.171   2.766  0.0475  0.5221 -0.0319
16436SOL    HW156423   5.769   0.118   2.731 -0.4505  1.4413 -0.4457
16436SOL    HW256424   5.882   0.210   2.688  1.4941 -0.5695  0.1278
16437SOL     OW56425   6.797   0.239   8.963  0.3753 -0.2663  0.9494
16437SOL    HW156426   6.769   0.259   9.053  1.6295  2.2165  0.8689
16437SOL    HW256427   6.860   0.307   8.942 -2.7080  1.7475 -3.2049
16438SOL     OW56428  11.782  10.871   4.577 -0.3858 -0.8217  0.5537
16438SOL    HW156429  11.708  10.836   4.528  0.2280 -0.6142 -0.5570
16438SOL    HW256430  11.852  10.879   4.512 -0.7443  3.4034  0.4029
16439SOL     OW56431   7.610   9.746   6.347 -0.2230 -0.7990 -0.0772
16439SOL    HW156432   7.666   9.780   6.418  0.4047 -1.6417 -0.1586
16439SOL    HW256433   7.647   9.660   6.327 -0.3910 -0.5642 -1.4430
16440SOL     OW56434   2.950   2.587  10.597 -0.4629  0.4213 -0.0604
16440SOL    HW156435   3.019   2.650  10.616 -0.6022  0.6588 -0.3297
16440SOL    HW256436   2.997   2.508  10.569 -0.2985  1.0544 -1.7232
16441SOL     OW56437  12.801  12.684   8.519 -0.9870  0.3391  0.1478
16441SOL    HW156438  12.816  12.625   8.446 -1.9619  0.0033  0.1971
16441SOL    HW256439  12.734  12.640   8.572 -1.3690  1.2505  0.4460
16442SOL     OW56440  11.188   2.961   8.599  0.1683  0.0895  0.4781
16442SOL    HW156441  11.284   2.959   8.604  0.1838  0.9146  0.5379
16442SOL    HW256442  11.170   2.987   8.509 -0.0198 -1.0654  0.1638
16443SOL     OW56443   6.086   1.678  11.005 -0.1503 -0.5612 -0.1320
16443SOL    HW156444   6.174   1.690  10.971  0.0874 -1.6748  0.0387
16443SOL    HW256445   6.034   1.746  10.963  0.6256 -0.4092 -0.8585
16444SOL     OW56446   3.977   7.035   2.741 -1.4905 -0.0462 -0.3940
16444SOL    HW156447   4.054   7.082   2.709  1.7373 -4.2034  0.3692
16444SOL    HW256448   3.914   7.043   2.670  0.2405  2.1244 -1.8568
16445SOL     OW56449   4.770   1.463   4.476  0.0219 -0.0874  0.2169
16445SOL    HW156450   4.678   1.442   4.493 -0.6772  2.8500  0.6204
16445SOL    HW256451   4.769   1.509   4.392  0.8953  1.2110  0.8859
16446SOL     OW56452   4.674   6.095   6.580  0.1613 -0.2840  0.0927
16446SOL    HW156453   4.692   6.162   6.646  0.5320 -0.6356  0.3562
16446SOL    HW256454   4.584   6.112   6.552 -0.3190 -0.6844  1.3489
16447SOL     OW56455   3.866   3.814   6.233  0.2120 -0.2111 -0.3274
16447SOL    HW156456   3.885   3.805   6.139  0.7352  1.2444 -0.3942
16447SOL    HW256457   3.797   3.750   6.249  1.0127 -1.3999 -1.4134
16448SOL     OW56458   5.792   2.919   4.520  0.8357  0.3736 -0.3225
16448SOL    HW156459   5.730   2.935   4.591  1.2355 -2.1193  0.7100
16448SOL    HW256460   5.738   2.915   4.441 -0.0237  0.3800  0.2517
16449SOL     OW56461  11.019   9.646   7.752 -0.2243 -0.3653  0.0050
16449SOL    HW156462  11.110   9.619   7.759 -0.3252 -0.9298 -0.7317
16449SOL    HW256463  10.985   9.597   7.677 -0.5945  1.3098 -0.9736
16450SOL     OW56464  10.061  10.785   0.539  0.1731  0.1589  0.1531
16450SOL    HW156465  10.108  10.793   0.622 -0.0264 -0.7714  0.3592
16450SOL    HW256466  10.125  10.747   0.478  1.3300  3.5971 -1.0124
16451SOL     OW56467  11.263  12.879   3.464  0.0200 -0.2064 -0.0615
16451SOL    HW156468  11.234  12.911   3.550 -0.4628  0.5364 -0.4826
16451SOL    HW256469  11.325  12.809   3.484  1.5013  1.3115  0.9423
16452SOL     OW56470   2.909   6.109   9.402  0.5814  0.1493 -0.6178
16452SOL    HW156471   2.926   6.017   9.384  0.6360 -0.1912  0.9563
16452SOL    HW256472   2.856   6.139   9.329 -2.4072 -2.0767  0.4450
16453SOL     OW56473  12.267  10.053   5.989 -0.9466  0.8429  0.4665
16453SOL    HW156474  12.175  10.080   5.988 -1.0584  0.5019  1.3070
16453SOL    HW256475  12.306  10.104   5.918 -1.4632  2.1261  1.0569
16454SOL     OW56476   2.551   1.451  11.673 -0.2713 -0.1653 -0.2045
16454SOL    HW156477   2.581   1.499  11.596  1.1572  0.1737  0.5208
16454SOL    HW256478   2.632   1.430  11.721 -1.1238 -0.2731  1.2447
16455SOL     OW56479   2.894   9.617   9.221  0.0057  0.5370 -0.5950
16455SOL    HW156480   2.901   9.522   9.229 -0.2528  0.5718  0.0784
16455SOL    HW256481   2.971   9.652   9.264 -0.4203  0.6637  0.0739
16456SOL     OW56482   5.293   3.278   5.971 -0.1996  0.3339 -0.1885
16456SOL    HW156483   5.219   3.307   5.918 -1.5044  0.9372  1.8728
16456SOL    HW256484   5.274   3.310   6.059 -0.4520 -4.3446  1.7742
16457SOL     OW56485   8.535   4.294   7.955 -0.4481 -0.2979  0.6573
16457SOL    HW156486   8.624   4.325   7.970 -0.8628  1.0889  0.3642
16457SOL    HW256487   8.529   4.213   8.006  1.1801 -0.7693  0.1375
16458SOL     OW56488   4.792   0.541   6.442 -0.1276 -0.4896  0.6432
16458SOL    HW156489   4.804   0.446   6.445 -0.0167 -0.5475 -0.8273
16458SOL    HW256490   4.697   0.553   6.439 -0.1287 -0.5776  0.3150
16459SOL     OW56491   4.662   3.459   4.550  0.5246 -0.2525 -0.5958
16459SOL    HW156492   4.720   3.525   4.588  1.0216  0.1232 -1.9471
16459SOL    HW256493   4.711   3.377   4.557  0.8271 -0.0978 -0.8720
16460SOL     OW56494   0.331   0.027   5.864 -0.0291  0.1736  0.1569
16460SOL    HW156495   0.426   0.023   5.864  0.1539  2.8192 -0.0949
16460SOL    HW256496   0.310   0.104   5.916 -1.9793  0.3875 -0.8541
16461SOL     OW56497   2.333   4.404   8.968 -0.0507 -0.3144 -0.3807
16461SOL    HW156498   2.387   4.448   8.903  0.6348 -0.3162  0.1779
16461SOL    HW256499   2.322   4.315   8.934 -1.2790  0.1942 -1.4126
16462SOL     OW56500   0.763   5.924   2.566 -0.1927 -0.0798 -0.0006
16462SOL    HW156501   0.840   5.971   2.600 -1.9623  1.9428  1.5292
16462SOL    HW256502   0.746   5.856   2.631  0.6865 -1.0545 -0.7438
16463SOL     OW56503   2.403   9.632   8.832 -0.0258  0.1440 -0.3689
16463SOL    HW156504   2.421   9.726   8.830 -1.6723  0.4771 -2.0371
16463SOL    HW256505   2.321   9.622   8.783 -0.7996 -1.9704  1.2004
16464SOL     OW56506   3.705   5.462   0.543  0.6606  0.9143 -0.1735
16464SOL    HW156507   3.764   5.524   0.585 -0.3402  0.6273  1.7885
16464SOL    HW256508   3.620   5.477   0.586  0.2192 -1.2535 -0.1584
16465SOL     OW56509   6.615  10.548   8.988 -0.0164  0.0942  0.1631
16465SOL    HW156510   6.551  10.525   8.920 -1.4530  1.9944  0.7787
16465SOL    HW256511   6.658  10.626   8.954  1.7671 -0.9454 -0.0646
16466SOL     OW56512   0.087   5.511   8.872  0.1933 -0.1690  0.5007
16466SOL    HW156513   0.044   5.549   8.795 -1.1805 -0.8259  0.8927
16466SOL    HW256514   0.015   5.497   8.934  1.2194  0.0068  1.7652
16467SOL     OW56515   4.053   3.281   9.148 -0.1116  0.0433 -0.8037
16467SOL    HW156516   4.090   3.277   9.059 -1.8481  0.8925 -1.6118
16467SOL    HW256517   3.965   3.246   9.139 -1.0139  1.9390  0.1747
16468SOL     OW56518   3.331   9.150   5.248  0.0004  0.7265 -0.0538
16468SOL    HW156519   3.426   9.151   5.239  0.0053  1.4190  0.0237
16468SOL    HW256520   3.304   9.066   5.209  1.0435 -1.9088  4.1711
16469SOL     OW56521   9.391   1.598   8.619  0.0446 -0.2271  0.1264
16469SOL    HW156522   9.462   1.573   8.560 -1.3810 -0.8915 -1.3967
16469SOL    HW256523   9.363   1.684   8.588 -2.5576 -1.7155 -2.1724
16470SOL     OW56524   2.865   0.482   4.701 -0.3750 -0.6426 -0.4647
16470SOL    HW156525   2.884   0.576   4.698  1.8553 -1.0382 -0.6758
16470SOL    HW256526   2.909   0.451   4.780  0.7573 -1.8324 -1.5053
16471SOL     OW56527  11.992   7.289   7.337  0.2519 -0.4438 -0.0791
16471SOL    HW156528  11.966   7.198   7.325 -2.4371  0.3045 -0.5651
16471SOL    HW256529  11.996   7.301   7.432 -1.7314 -0.5246  0.0492
16472SOL     OW56530   5.103   2.010   7.391 -0.3994  0.2303 -0.2673
16472SOL    HW156531   5.120   1.916   7.390  0.6697  0.4129 -0.0644
16472SOL    HW256532   5.145   2.042   7.470 -1.6795  0.7314  0.2337
16473SOL     OW56533   9.282   1.175   8.521 -0.6529  0.6578  0.2416
16473SOL    HW156534   9.355   1.126   8.558 -0.3532  0.7146 -0.2803
16473SOL    HW256535   9.210   1.112   8.518  0.0716 -0.1412 -1.6053
16474SOL     OW56536   7.774   8.395  12.130  0.2721  0.0692  0.4506
16474SOL    HW156537   7.845   8.407  12.067 -0.4636  2.3885 -0.0437
16474SOL    HW256538   7.732   8.481  12.135 -0.2010 -0.2286  3.5244
16475SOL     OW56539  12.697   0.249   7.130 -0.4436  0.3476  0.2237
16475SOL    HW156540  12.622   0.224   7.184 -0.6133  1.3331  0.4584
16475SOL    HW256541  12.694   0.188   7.056 -2.9585  1.8720 -1.0559
16476SOL     OW56542   8.764   6.677   2.153  0.2561  0.0629 -0.4432
16476SOL    HW156543   8.731   6.766   2.140 -0.0349 -0.2699 -2.3057
16476SOL    HW256544   8.759   6.637   2.066  1.3703 -1.4440  0.1456
16477SOL     OW56545  12.955   0.480  10.514  0.1397 -0.3303 -0.2980
16477SOL    HW156546  12.932   0.523  10.596 -2.5384 -0.9324 -0.6314
16477SOL    HW256547  12.884   0.504  10.454  0.8420 -1.7353 -1.7680
16478SOL     OW56548  12.546   9.912   1.916 -0.1538  0.2545 -0.2673
16478SOL    HW156549  12.474   9.849   1.905 -1.2411  1.4709 -0.3076
16478SOL    HW256550  12.622   9.867   1.879 -0.2875 -2.0845  1.9451
16479SOL     OW56551   4.142   2.022   3.569  0.1163 -0.1705  0.0193
16479SOL    HW156552   4.086   2.098   3.555  0.4241  0.2651  1.0011
16479SOL    HW256553   4.220   2.040   3.517 -0.0086 -0.0310 -0.1216
16480SOL     OW56554  10.154   1.507  11.691 -0.0435 -0.3623 -0.1617
16480SOL    HW156555  10.195   1.527  11.607 -0.0978 -2.4731 -0.7334
16480SOL    HW256556  10.067   1.475  11.669 -0.9518  1.2065  0.8775
16481SOL     OW56557   6.846   5.466   9.259 -0.0708  0.2747 -0.1943
16481SOL    HW156558   6.809   5.382   9.285  0.4364 -0.2007 -0.9698
16481SOL    HW256559   6.837   5.521   9.336  0.2231 -0.6977  0.5575
16482SOL     OW56560   8.267   6.721   3.251  0.5524 -0.3284 -0.1995
16482SOL    HW156561   8.243   6.814   3.248  2.5086  0.2028 -0.4643
16482SOL    HW256562   8.185   6.675   3.230 -0.9405  1.2240  1.8268
16483SOL     OW56563   3.576  11.495  11.196  0.4350  0.6129 -0.1957
16483SOL    HW156564   3.539  11.481  11.283 -0.2196  1.5749 -0.3066
16483SOL    HW256565   3.670  11.503  11.210  0.6386 -1.6534  0.1258
16484SOL     OW56566   6.829   7.410   4.910  0.1974  0.5034 -0.2373
16484SOL    HW156567   6.841   7.414   5.005  2.3750  0.2407 -0.4578
16484SOL    HW256568   6.899   7.466   4.875 -0.6115  0.6478 -1.7032
16485SOL     OW56569   6.279   1.946   6.258 -0.1798 -0.0747  0.0251
16485SOL    HW156570   6.318   2.034   6.260  1.3434 -0.7075 -0.9217
16485SOL    HW256571   6.186   1.963   6.241  0.0819  1.3638 -0.1611
16486SOL     OW56572   7.233   2.902   0.948  0.5448 -0.8986  0.0715
16486SOL    HW156573   7.247   2.808   0.939  0.2395 -1.2567  2.7168
16486SOL    HW256574   7.321   2.940   0.944  0.6285 -1.1767 -1.5647
16487SOL     OW56575   1.573   5.289   2.515 -0.3576 -0.5627 -0.4461
16487SOL    HW156576   1.560   5.336   2.598  1.8560  1.7251 -1.2698
16487SOL    HW256577   1.514   5.214   2.520  1.2839 -1.8947  4.2145
16488SOL     OW56578   2.947   7.844   9.828  0.1664  0.3540  0.4246
16488SOL    HW156579   2.908   7.758   9.843 -0.3259  0.7110  1.2125
16488SOL    HW256580   3.018   7.827   9.766  0.6234 -0.7677  1.2093
16489SOL     OW56581   1.603   4.212   9.422 -0.4327 -0.0306 -0.3366
16489SOL    HW156582   1.569   4.169   9.500 -1.0039  1.6492  0.4015
16489SOL    HW256583   1.527   4.256   9.384  0.1888  0.6718 -0.8027
16490SOL     OW56584   3.461  10.852   3.950  1.0126  0.3603 -0.4348
16490SOL    HW156585   3.511  10.796   4.009  0.1877 -0.1036 -0.1731
16490SOL    HW256586   3.370  10.841   3.977  0.8524  2.0862 -0.1435
16491SOL     OW56587  11.834  12.184   5.281 -0.3836 -0.1058 -0.4241
16491SOL    HW156588  11.767  12.229   5.332 -1.7496 -1.8497 -0.5580
16491SOL    HW256589  11.816  12.091   5.294  3.2527 -0.7868  1.1745
16492SOL     OW56590   0.872   3.681   0.448 -0.5608  0.1092  0.0568
16492SOL    HW156591   0.908   3.698   0.535 -1.0500  1.0186  0.0907
16492SOL    HW256592   0.933   3.619   0.409  0.3446  0.6425  0.5877
16493SOL     OW56593  10.686   7.202  11.570 -0.6490  0.6249  0.4530
16493SOL    HW156594  10.660   7.147  11.643  0.2583 -0.7172 -0.2078
16493SOL    HW256595  10.771   7.168  11.542  0.2427  2.7217  0.3782
16494SOL     OW56596   7.067   8.263  10.633  0.7038  0.3308 -0.8978
16494SOL    HW156597   7.018   8.226  10.706  0.1844  0.0638 -1.3749
16494SOL    HW256598   7.144   8.302  10.673  0.4352  0.1660 -0.2110
16495SOL     OW56599   1.585  12.828   7.904 -0.2595 -0.3627 -0.2615
16495SOL    HW156600   1.680  12.829   7.915 -0.3227 -1.1430  0.4525
16495SOL    HW256601   1.563  12.917   7.874  0.3457  0.9147  2.7081
16496SOL     OW56602  11.942   9.780   0.644  0.0111 -0.0337  0.1591
16496SOL    HW156603  12.006   9.846   0.669 -0.0412  0.2436 -0.4281
16496SOL    HW256604  11.986   9.728   0.577 -0.4013  0.1982 -0.2918
16497SOL     OW56605   3.779   2.513   7.222 -0.1847 -0.2936  0.2263
16497SOL    HW156606   3.707   2.464   7.183 -1.7450  0.1532  2.4037
16497SOL    HW256607   3.741   2.557   7.297  2.1703  0.7363  0.9149
16498SOL     OW56608  12.408   2.813  12.817 -0.1325 -0.4793 -0.1666
16498SOL    HW156609  12.491   2.818  12.865 -0.5102 -0.5079  0.4971
16498SOL    HW256610  12.382   2.905  12.806 -1.8981 -0.4562  2.9824
16499SOL     OW56611   5.416  11.649  12.825  0.5870 -0.4037 -0.0592
16499SOL    HW156612   5.423  11.673  12.918  0.2363 -0.0496 -0.1241
16499SOL    HW256613   5.332  11.604  12.818  0.1652  0.4148 -0.3846
16500SOL     OW56614   1.338   7.130   2.055 -0.0760  0.3517 -0.1617
16500SOL    HW156615   1.245   7.151   2.062 -0.7329 -1.9966 -0.7564
16500SOL    HW256616   1.340   7.039   2.023  2.4030 -0.1382  1.0732
16501SOL     OW56617   3.648   3.071   6.700  0.4249 -0.4303 -0.0195
16501SOL    HW156618   3.632   3.165   6.695  1.1669 -0.3380 -0.9625
16501SOL    HW256619   3.735   3.062   6.739  0.1112 -0.7516  0.6215
16502SOL     OW56620   4.516  11.227  11.815  0.2094 -0.7464 -0.1047
16502SOL    HW156621   4.452  11.172  11.861  1.4848 -0.3126  2.3633
16502SOL    HW256622   4.466  11.302  11.785 -0.5894 -0.6541  1.3369
16503SOL     OW56623   8.706   0.016   8.658 -0.4402  0.6238 -0.6375
16503SOL    HW156624   8.612   0.002   8.642 -0.2884  1.0397 -1.9853
16503SOL    HW256625   8.708   0.081   8.728 -1.1324 -1.0700  1.0627
16504SOL     OW56626   9.793   2.302   4.529  0.0602  0.0231 -0.2347
16504SOL    HW156627   9.774   2.288   4.622 -0.1656  1.5476 -0.0343
16504SOL    HW256628   9.772   2.218   4.488 -2.1741  0.0167  0.7528
16505SOL     OW56629   5.788   5.562   3.503  0.1594  0.3725 -0.0125
16505SOL    HW156630   5.866   5.595   3.459  1.3860  0.9693  2.3917
16505SOL    HW256631   5.801   5.586   3.595 -1.8385 -1.4416  0.8345
16506SOL     OW56632  12.864   0.216   2.482 -0.3695  0.0269  0.0636
16506SOL    HW156633  12.926   0.289   2.479 -0.3384 -0.0092 -0.2051
16506SOL    HW256634  12.825   0.214   2.394 -0.8401  0.1271  0.2679
16507SOL     OW56635   8.448   1.401   4.696 -0.2485  0.2481 -0.1504
16507SOL    HW156636   8.385   1.334   4.723 -0.2174 -0.6193 -2.0442
16507SOL    HW256637   8.522   1.352   4.662  0.9416  1.2697  0.8969
16508SOL     OW56638   3.092   0.418   4.041  0.2117  0.0666 -0.0848
16508SOL    HW156639   3.118   0.489   3.983  0.1757  0.2710  0.1505
16508SOL    HW256640   3.164   0.355   4.034  1.0233  0.8580  0.9432
16509SOL     OW56641   6.593   8.653   1.548 -0.0095  0.2133  0.5498
16509SOL    HW156642   6.593   8.748   1.539 -1.1813  0.1753 -0.0228
16509SOL    HW256643   6.656   8.623   1.483 -0.0659  0.5703  0.3264
16510SOL     OW56644   0.285   9.466   0.917 -0.4944 -0.7757 -0.5699
16510SOL    HW156645   0.191   9.474   0.930 -0.6902 -0.2528 -2.1051
16510SOL    HW256646   0.320   9.553   0.933 -0.7674 -0.0571 -3.3399
16511SOL     OW56647   7.727   0.392  11.698 -0.8749  0.8021 -0.0362
16511SOL    HW156648   7.765   0.480  11.706 -2.4906  1.6792 -1.4145
16511SOL    HW256649   7.665   0.385  11.770  2.4889 -1.1189  3.0188
16512SOL     OW56650   4.746  12.516   9.694  0.6728  0.2211  0.1470
16512SOL    HW156651   4.738  12.548   9.784  1.9403 -0.2627  0.4488
16512SOL    HW256652   4.777  12.426   9.703 -0.2612 -0.2166 -0.7615
16513SOL     OW56653   7.677   3.746   6.537 -0.2719  0.0850 -0.1206
16513SOL    HW156654   7.643   3.835   6.523 -0.0815  0.4610  1.5887
16513SOL    HW256655   7.719   3.750   6.623 -0.6769 -1.7901  0.1981
16514SOL     OW56656   1.857   9.750   3.596 -0.7134 -0.1250  0.3300
16514SOL    HW156657   1.863   9.747   3.692 -1.5285  1.3553  0.4495
16514SOL    HW256658   1.785   9.811   3.578 -0.5151 -0.3127 -1.2299
16515SOL     OW56659  11.763   0.474   0.100  0.4565 -0.1770 -0.2536
16515SOL    HW156660  11.813   0.526   0.163  1.6772  1.0233 -2.0921
16515SOL    HW256661  11.679   0.520   0.092  0.2425 -0.4113  0.5476
16516SOL     OW56662   9.192   9.990  10.386 -0.1207  0.4038  0.4248
16516SOL    HW156663   9.208   9.896  10.374  0.5796  0.4417  1.0329
16516SOL    HW256664   9.199  10.027  10.297 -0.1147 -0.0717  0.2257
16517SOL     OW56665   6.452   2.982   7.122  0.3267 -0.0080 -0.1437
16517SOL    HW156666   6.505   2.902   7.124 -0.9198 -0.8802 -0.7196
16517SOL    HW256667   6.376   2.959   7.069  0.5823  1.9866 -1.5010
16518SOL     OW56668   7.467   1.954   8.555  0.8707  0.1469  0.1214
16518SOL    HW156669   7.425   2.032   8.591  1.9609  0.4194  0.8669
16518SOL    HW256670   7.420   1.880   8.593  0.2401  0.4364 -0.0883
16519SOL     OW56671   4.449  10.104  12.838  0.0420  0.3354  0.1309
16519SOL    HW156672   4.501  10.092  12.918 -1.5809 -0.8782  1.0742
16519SOL    HW256673   4.377  10.162  12.865 -0.9350 -0.6875 -0.2073
16520SOL     OW56674   4.658   1.792   8.428 -0.1468 -0.6071 -0.1560
16520SOL    HW156675   4.579   1.835   8.396  0.2397  0.0422 -0.2493
16520SOL    HW256676   4.685   1.736   8.356 -1.2631 -1.8753  0.3628
16521SOL     OW56677   5.635   3.612   6.448  0.5410  0.3196 -0.4001
16521SOL    HW156678   5.685   3.601   6.529 -1.2291  2.2922  1.0833
16521SOL    HW256679   5.682   3.680   6.400  0.4995  0.5863 -0.0679
16522SOL     OW56680   7.861   1.658   4.294  0.2952  0.0236 -0.1205
16522SOL    HW156681   7.799   1.690   4.360  1.0030  0.6588  0.2587
16522SOL    HW256682   7.807   1.607   4.233 -0.7468  1.2322 -0.2677
16523SOL     OW56683   7.723   0.774  11.319 -0.2744  0.4132 -0.3091
16523SOL    HW156684   7.640   0.787  11.273 -0.8284 -1.0868  0.2204
16523SOL    HW256685   7.711   0.818  11.403 -1.0430 -0.8795  0.2894
16524SOL     OW56686   8.911   0.673   2.927 -0.4279 -0.2930  0.2283
16524SOL    HW156687   8.839   0.686   2.990 -1.1092  0.9715 -0.7490
16524SOL    HW256688   8.872   0.695   2.842  0.7054 -1.1319 -0.5313
16525SOL     OW56689   5.073  11.578   2.333 -0.0770  0.0121  0.5382
16525SOL    HW156690   5.123  11.560   2.412  0.1849 -1.0861  0.1451
16525SOL    HW256691   5.108  11.517   2.268  0.1723  1.3372 -0.6265
16526SOL     OW56692   0.579   8.034  11.445  0.1642  0.1032 -0.0295
16526SOL    HW156693   0.530   7.959  11.413 -0.8136  0.0743  1.4149
16526SOL    HW256694   0.540   8.053  11.530  2.6028  0.1673  1.1604
16527SOL     OW56695   2.154   7.853   4.688 -0.2062  0.5685 -0.6445
16527SOL    HW156696   2.226   7.808   4.734 -0.5005 -1.5552 -2.1384
16527SOL    HW256697   2.170   7.946   4.705  2.1142  0.0942  0.2040
16528SOL     OW56698   9.764   8.503   4.330 -0.5413 -0.2749 -0.5524
16528SOL    HW156699   9.798   8.575   4.383 -1.0061  0.5377 -1.3230
16528SOL    HW256700   9.693   8.542   4.280 -1.0648 -1.3766 -0.7017
16529SOL     OW56701   3.532   7.402   3.198  0.0300 -0.6323  0.1150
16529SOL    HW156702   3.601   7.336   3.188  0.6621 -0.0294  0.4181
16529SOL    HW256703   3.462   7.356   3.244  0.8541 -0.8506  1.1928
16530SOL     OW56704   3.716   4.505   3.594  0.1492 -0.1255 -0.5041
16530SOL    HW156705   3.723   4.591   3.554  0.3999 -0.7879 -1.9550
16530SOL    HW256706   3.659   4.456   3.534 -0.6458 -0.7372  0.7136
16531SOL     OW56707   6.194   7.200   4.379 -0.6054  0.2603  0.2316
16531SOL    HW156708   6.279   7.219   4.339 -0.0344  0.2122  1.3780
16531SOL    HW256709   6.215   7.139   4.451 -1.7312 -0.5267 -0.0783
16532SOL     OW56710  12.505   6.195   9.793 -0.5655 -0.1469  0.1925
16532SOL    HW156711  12.529   6.219   9.883  1.1220  0.3541 -0.3713
16532SOL    HW256712  12.524   6.273   9.741 -1.9948 -0.2614 -0.5522
16533SOL     OW56713   1.674  10.990  11.471 -0.0953  0.1224  0.0623
16533SOL    HW156714   1.713  10.902  11.471 -1.8447 -0.6895  0.8846
16533SOL    HW256715   1.663  11.010  11.378 -0.1498 -0.7555 -0.1349
16534SOL     OW56716   7.676   5.885  11.837  0.4804 -0.2390 -0.0576
16534SOL    HW156717   7.616   5.951  11.803 -0.0746 -1.1858 -0.9672
16534SOL    HW256718   7.723   5.929  11.908  0.8500  1.4339 -1.2940
16535SOL     OW56719  10.535   8.866   6.771 -0.3605 -0.6923 -0.1090
16535SOL    HW156720  10.481   8.918   6.712  1.2039  0.1293 -0.8715
16535SOL    HW256721  10.523   8.776   6.740 -0.7831 -0.4449 -0.6855
16536SOL     OW56722   4.314  10.180   9.563 -0.1814  0.5330  0.1588
16536SOL    HW156723   4.334  10.152   9.473 -1.9375  0.0261 -0.1033
16536SOL    HW256724   4.298  10.098   9.610 -0.0286  0.8419  0.7549
16537SOL     OW56725  11.173  12.494   9.949  0.1069  0.3187 -0.3868
16537SOL    HW156726  11.123  12.556  10.002  0.5853 -1.2408  2.0545
16537SOL    HW256727  11.110  12.463   9.883 -1.4480  0.2059  1.0780
16538SOL     OW56728   5.768   1.411   0.544 -0.1628  0.0990  0.1332
16538SOL    HW156729   5.686   1.450   0.513  0.9931  1.7416 -1.0214
16538SOL    HW256730   5.786   1.456   0.627 -0.8562 -0.9143  0.8560
16539SOL     OW56731  11.721  10.159   0.656  0.7201  0.2951 -0.0186
16539SOL    HW156732  11.660  10.209   0.603 -0.5551 -0.6104  0.5318
16539SOL    HW256733  11.768  10.103   0.594  1.2304  1.2196 -0.4790
16540SOL     OW56734   8.640   7.299  12.327  0.4404 -0.0063 -0.3938
16540SOL    HW156735   8.615   7.332  12.240  0.9969 -1.6936 -1.2302
16540SOL    HW256736   8.587   7.221  12.340  0.3248  0.2521  0.8264
16541SOL     OW56737   3.051   4.296   9.865  0.1296  0.3876  0.1814
16541SOL    HW156738   3.145   4.305   9.846  0.0837 -0.4905 -0.5055
16541SOL    HW256739   3.023   4.223   9.811 -0.5664 -0.5431  1.7565
16542SOL     OW56740  10.241   0.295   8.510 -0.7674  0.2518  0.4410
16542SOL    HW156741  10.300   0.331   8.443 -0.0654 -2.0318 -0.2504
16542SOL    HW256742  10.260   0.346   8.588 -0.6002  2.0712 -0.7228
16543SOL     OW56743   6.292   9.827  12.858  0.3885  0.1338  0.2478
16543SOL    HW156744   6.365   9.883  12.832 -0.4865  1.5812  0.7678
16543SOL    HW256745   6.231   9.833  12.784  0.1852  0.0596  0.4108
16544SOL     OW56746   5.469  10.568  12.522 -0.6752  0.0246  0.7149
16544SOL    HW156747   5.479  10.658  12.494  0.5328 -0.4866 -0.6484
16544SOL    HW256748   5.381  10.542  12.494 -1.6517  1.1970  2.5138
16545SOL     OW56749  12.905   4.430   4.767  0.1620  0.6207 -0.0006
16545SOL    HW156750  12.931   4.512   4.725  0.7141 -0.4751 -1.9072
16545SOL    HW256751  12.830   4.454   4.821 -1.2360  2.0059 -2.3620
16546SOL     OW56752   8.290  10.046   3.386 -0.1780 -0.4664 -0.7025
16546SOL    HW156753   8.290   9.982   3.458 -0.6571 -0.4784 -0.7088
16546SOL    HW256754   8.381  10.053   3.361  0.3670  1.3721  1.5131
16547SOL     OW56755   5.241  11.709   6.692 -0.1149 -0.7101 -0.7173
16547SOL    HW156756   5.302  11.763   6.640  1.2698 -2.3025 -0.8290
16547SOL    HW256757   5.212  11.641   6.632  0.8139 -2.0626  0.3218
16548SOL     OW56758   3.987   5.674   2.825  0.6031  0.0708 -0.3481
16548SOL    HW156759   3.941   5.590   2.829  0.0617  0.2702 -1.7785
16548SOL    HW256760   4.077   5.653   2.852  0.1688 -0.7107  0.5269
16549SOL     OW56761   5.601   0.958   8.233  0.6670  0.3332 -0.5550
16549SOL    HW156762   5.581   1.052   8.237  0.6359  0.3254 -0.5247
16549SOL    HW256763   5.556   0.928   8.154 -0.8140 -0.0064  0.3565
16550SOL     OW56764   3.718   7.736   0.406 -0.2046 -0.8642 -0.3125
16550SOL    HW156765   3.630   7.769   0.424 -0.3005 -0.7087 -1.0397
16550SOL    HW256766   3.776   7.793   0.457 -0.5053 -0.7447 -0.1037
16551SOL     OW56767   0.288   7.140  12.246 -0.1425  0.2294 -0.0008
16551SOL    HW156768   0.335   7.160  12.165 -0.0074 -0.5809 -0.1329
16551SOL    HW256769   0.241   7.221  12.267  0.5754  0.7563 -0.3640
16552SOL     OW56770  11.572  12.089   9.877  0.4787  0.4049  0.8019
16552SOL    HW156771  11.658  12.124   9.851  0.7879  0.6377  2.0488
16552SOL    HW256772  11.526  12.075   9.795  1.8389 -0.0400  0.0817
16553SOL     OW56773   1.377   2.042  12.967 -0.0708 -0.0431 -0.3635
16553SOL    HW156774   1.321   2.027  13.043 -0.2059  1.5037 -0.1196
16553SOL    HW256775   1.320   2.025  12.892 -0.6114  0.6105 -0.1151
16554SOL     OW56776   6.246   4.093   0.300  0.0070  0.0074  0.2454
16554SOL    HW156777   6.157   4.063   0.286  0.9289 -1.7071 -2.7527
16554SOL    HW256778   6.284   4.029   0.360 -0.1963 -0.3910 -0.0527
16555SOL     OW56779  12.292   4.297   9.797  0.3831  0.3073 -0.2142
16555SOL    HW156780  12.287   4.216   9.848  0.6530  0.3583 -0.1028
16555SOL    HW256781  12.364   4.345   9.836 -0.3572  1.0169  0.3064
16556SOL     OW56782   7.175  10.183   6.360  0.8544 -0.0792 -0.0335
16556SOL    HW156783   7.140  10.143   6.440 -1.5575  1.0328 -0.4323
16556SOL    HW256784   7.160  10.117   6.292 -2.0511  0.8808 -0.4738
16557SOL     OW56785   1.976   1.131   2.701 -0.4987  0.1924 -0.3950
16557SOL    HW156786   1.967   1.219   2.664 -0.2356 -0.3473 -1.7924
16557SOL    HW256787   2.001   1.076   2.627  1.2669 -0.7285  0.8059
16558SOL     OW56788   7.123   7.702  10.292 -0.3096  0.7440 -0.0324
16558SOL    HW156789   7.188   7.699  10.222 -1.1939 -0.8853 -0.8461
16558SOL    HW256790   7.160   7.647  10.361 -1.1919 -1.0009 -0.8892
16559SOL     OW56791   5.447   6.757   7.120  0.0745  0.2370 -0.6213
16559SOL    HW156792   5.397   6.689   7.075 -2.0205 -1.4653  3.6300
16559SOL    HW256793   5.512   6.709   7.171 -0.1906  1.5304  1.0360
16560SOL     OW56794   0.281   0.291   6.398  0.0532 -0.0324  0.0417
16560SOL    HW156795   0.227   0.359   6.358  1.0091  1.3309  0.9611
16560SOL    HW256796   0.371   0.317   6.377  0.4303 -1.8969 -0.9094
16561SOL     OW56797   2.298   3.920   9.466 -0.2138 -0.2943 -0.1490
16561SOL    HW156798   2.210   3.949   9.488 -0.1072  0.7763 -1.0257
16561SOL    HW256799   2.306   3.936   9.372  0.9660 -0.2067 -0.0510
16562SOL     OW56800   0.504  10.616  12.709  0.3942 -0.5846  0.3609
16562SOL    HW156801   0.410  10.626  12.695 -0.0612 -1.2729  2.6310
16562SOL    HW256802   0.542  10.698  12.679 -0.7246 -0.8183 -1.9212
16563SOL     OW56803   6.716  10.159   7.520 -0.0110 -0.7572 -0.0767
16563SOL    HW156804   6.742  10.165   7.428 -0.4188 -0.4664 -0.1763
16563SOL    HW256805   6.646  10.093   7.520 -0.8509  0.1247 -0.1638
16564SOL     OW56806   8.651   6.528  11.930  0.4999 -0.5686  0.1337
16564SOL    HW156807   8.588   6.492  11.992  1.4371  0.4714  1.7495
16564SOL    HW256808   8.598   6.564  11.859 -0.6280 -1.1043  0.6883
16565SOL     OW56809   5.817  10.316   5.055 -0.0553  0.2564 -0.5142
16565SOL    HW156810   5.903  10.328   5.015  0.8704 -1.5421  0.7647
16565SOL    HW256811   5.825  10.360   5.140  0.0326 -0.8867  0.0877
16566SOL     OW56812   8.532   9.201   8.707  0.4198 -0.5142  0.2133
16566SOL    HW156813   8.494   9.276   8.662 -1.4707 -1.0584  0.7635
16566SOL    HW256814   8.621   9.227   8.729  0.8657  0.3684 -2.3543
16567SOL     OW56815   2.714   7.023  11.393 -0.4864  0.6444  0.0255
16567SOL    HW156816   2.805   7.048  11.378 -0.5580 -0.0624 -1.9013
16567SOL    HW256817   2.667   7.058  11.317 -1.7139  0.4806  0.6867
16568SOL     OW56818   7.292   9.670   0.180 -0.5298 -0.2177 -0.1653
16568SOL    HW156819   7.368   9.727   0.166  0.1931 -1.5142 -1.8771
16568SOL    HW256820   7.330   9.583   0.193 -1.7232 -0.9478 -1.3744
16569SOL     OW56821   4.448   2.907   2.817 -0.8603  0.4217 -0.1164
16569SOL    HW156822   4.468   2.947   2.901  0.7053  2.2072 -1.2514
16569SOL    HW256823   4.430   2.981   2.759 -1.8385 -0.7556 -1.3925
16570SOL     OW56824  10.740   7.230   0.150 -0.4235 -0.1166 -0.2224
16570SOL    HW156825  10.737   7.325   0.162 -2.1892 -0.2087  0.4707
16570SOL    HW256826  10.714   7.217   0.059 -0.7792  0.0485 -0.1462
16571SOL     OW56827  12.384   7.518   5.156 -0.5176 -0.7908 -0.0257
16571SOL    HW156828  12.307   7.475   5.119 -1.4770  0.0956  0.8705
16571SOL    HW256829  12.380   7.607   5.120 -0.3793 -0.5013  0.6761
16572SOL     OW56830   5.708   7.748   6.241  0.1346  0.1576  0.1147
16572SOL    HW156831   5.679   7.737   6.151 -0.5660 -0.1990  0.3753
16572SOL    HW256832   5.691   7.840   6.261  1.7496  0.6378 -0.6080
16573SOL     OW56833   8.571   1.982   4.909 -0.1625 -0.6042  0.0564
16573SOL    HW156834   8.573   2.076   4.927 -1.8029 -0.7068  0.9925
16573SOL    HW256835   8.514   1.946   4.977  0.0668 -2.2204 -0.5601
16574SOL     OW56836  12.405   9.127   0.490  0.2262  0.3829 -0.0617
16574SOL    HW156837  12.331   9.067   0.499 -1.2326  1.9913 -0.8092
16574SOL    HW256838  12.402   9.181   0.570  0.5736  0.4855 -0.1167
16575SOL     OW56839   1.280  11.367   2.219 -0.2569  0.6081 -0.0755
16575SOL    HW156840   1.278  11.282   2.175 -0.1478  0.7435 -0.3464
16575SOL    HW256841   1.285  11.346   2.312  1.3786  0.3113 -0.1965
16576SOL     OW56842  10.846   6.221   6.782 -0.2277  0.2568 -1.0465
16576SOL    HW156843  10.864   6.163   6.855 -0.1091  1.5880  0.0275
16576SOL    HW256844  10.915   6.202   6.718  0.8395  0.4107  0.0320
16577SOL     OW56845   9.292   8.371  11.542  0.2679 -0.1190 -0.3260
16577SOL    HW156846   9.251   8.449  11.504 -1.3339 -1.0108 -0.5526
16577SOL    HW256847   9.278   8.302  11.476  0.1715 -0.9772  0.5669
16578SOL     OW56848   3.559   8.366   7.348  0.5969 -0.0068 -0.2116
16578SOL    HW156849   3.557   8.367   7.444 -0.3875 -0.4874 -0.2079
16578SOL    HW256850   3.633   8.310   7.326  1.0728  0.4300  0.2651
16579SOL     OW56851  12.210   7.524   1.452 -0.3004  1.1213 -0.0674
16579SOL    HW156852  12.226   7.447   1.507 -1.8831  1.2871  0.6864
16579SOL    HW256853  12.133   7.500   1.400 -0.9740  2.2747  0.3679
16580SOL     OW56854   5.504   3.980   3.176 -0.4070 -0.3388 -0.6651
16580SOL    HW156855   5.428   4.027   3.143 -0.2597  1.3546  1.2019
16580SOL    HW256856   5.537   4.034   3.248  2.0120 -1.4836 -0.7880
16581SOL     OW56857   5.207   7.888   4.826  0.3552 -0.2780 -0.0580
16581SOL    HW156858   5.153   7.831   4.770  1.4655 -0.9179 -0.5129
16581SOL    HW256859   5.219   7.967   4.774 -0.0452 -0.1743  0.0005
16582SOL     OW56860   9.389   1.945   6.419 -0.2504  0.3964 -0.1435
16582SOL    HW156861   9.424   2.033   6.404 -1.2329  0.6869 -0.8212
16582SOL    HW256862   9.439   1.890   6.359  0.5331  0.4459  0.4530
16583SOL     OW56863   9.096  10.120   6.708 -0.0488 -0.0926  0.3331
16583SOL    HW156864   9.034  10.110   6.780  1.1098 -0.9009  1.2573
16583SOL    HW256865   9.159  10.184   6.740 -0.1075  0.3260 -0.3831
16584SOL     OW56866   9.590  10.955   9.532  0.8841  0.3383 -0.4172
16584SOL    HW156867   9.557  10.880   9.483 -0.4672  1.1814 -0.8779
16584SOL    HW256868   9.603  10.922   9.621 -0.0771 -0.3534 -0.5150
16585SOL     OW56869  12.417   6.496   9.034  0.1433  0.1718  0.3251
16585SOL    HW156870  12.475   6.519   9.106  1.2192  0.9937 -0.7689
16585SOL    HW256871  12.332   6.534   9.058  0.7253  1.2366  0.7223
16586SOL     OW56872  10.066   1.205  10.453  0.5606  0.3931 -0.3174
16586SOL    HW156873  10.140   1.183  10.396 -0.3692 -0.0024 -1.4278
16586SOL    HW256874   9.989   1.201  10.395 -0.2294  1.7735  0.5689
16587SOL     OW56875   2.636   8.928   1.544  0.3286  0.1697 -0.4611
16587SOL    HW156876   2.607   8.836   1.543  0.8353 -0.0228  0.7674
16587SOL    HW256877   2.561   8.977   1.511 -0.8955 -0.4418  1.2857
16588SOL     OW56878   0.710   6.656   0.852  0.6226 -0.1541  0.4490
16588SOL    HW156879   0.673   6.583   0.902 -2.1965  1.4011  0.7955
16588SOL    HW256880   0.691   6.635   0.761  0.1642 -0.0216  0.5162
16589SOL     OW56881   5.954  12.521   1.206  0.8386  0.2577  0.6312
16589SOL    HW156882   5.984  12.533   1.296  3.6586  0.7401 -0.2434
16589SOL    HW256883   5.940  12.610   1.173 -0.2268  0.0839  0.6056
16590SOL     OW56884   7.490   2.295   8.381 -0.2060 -0.7538  0.2040
16590SOL    HW156885   7.550   2.244   8.326 -0.2113 -1.3611  0.7414
16590SOL    HW256886   7.502   2.259   8.469  0.4066  0.7603  0.7683
16591SOL     OW56887   6.450   0.817   5.734 -0.2599  0.4562  0.1043
16591SOL    HW156888   6.510   0.755   5.775 -0.5913  0.7105  1.0132
16591SOL    HW256889   6.497   0.900   5.733 -0.4282  0.5602  0.4339
16592SOL     OW56890   0.847   0.038   2.480 -0.4445 -0.4001  0.3470
16592SOL    HW156891   0.794  -0.031   2.439 -0.1476 -0.6907  0.4496
16592SOL    HW256892   0.884   0.087   2.407 -0.4498 -0.5076  0.2729
16593SOL     OW56893   3.478   2.454   0.054  0.2568 -0.1087  0.1190
16593SOL    HW156894   3.435   2.483   0.134  0.0877 -1.6326  0.6043
16593SOL    HW256895   3.454   2.520  -0.011 -1.7738 -0.2271  0.6889
16594SOL     OW56896   9.939   3.276   2.477  0.4666  0.3359 -0.2144
16594SOL    HW156897   9.864   3.228   2.441  0.7549 -0.7114  0.5133
16594SOL    HW256898   9.962   3.339   2.410 -0.0737 -0.4092 -1.1205
16595SOL     OW56899   9.287  12.879   5.235  0.0371  0.4357 -0.1659
16595SOL    HW156900   9.370  12.881   5.283  0.3352  0.9763 -0.6995
16595SOL    HW256901   9.310  12.846   5.148 -0.8020 -2.4666  0.5946
16596SOL     OW56902   8.424   3.162   5.114  0.0381 -0.1451  0.4058
16596SOL    HW156903   8.380   3.126   5.037 -1.0205 -0.5274  1.1595
16596SOL    HW256904   8.506   3.112   5.120 -0.3900 -0.8968  0.1660
16597SOL     OW56905   2.748   9.158  11.892 -0.2190 -0.0716 -0.0344
16597SOL    HW156906   2.831   9.157  11.939 -0.2564 -0.9363  0.0330
16597SOL    HW256907   2.759   9.094  11.822 -1.1222 -0.8919  0.5336
16598SOL     OW56908   3.353   2.762   5.723 -0.5696 -0.3172 -0.2798
16598SOL    HW156909   3.325   2.840   5.675 -1.0519 -1.7940 -2.5595
16598SOL    HW256910   3.274   2.710   5.734  0.0909 -1.4764 -0.7776
16599SOL     OW56911   0.849   4.627   6.047  0.4360  0.0342  0.1005
16599SOL    HW156912   0.836   4.540   6.086 -1.4933 -0.4102 -1.3532
16599SOL    HW256913   0.828   4.688   6.117  2.5763 -0.6135  1.3771
16600SOL     OW56914   8.088   6.642  11.271 -0.2214 -0.3240  0.2643
16600SOL    HW156915   8.132   6.600  11.345  0.3046 -0.3626 -0.0653
16600SOL    HW256916   8.151   6.706  11.239  0.4803 -1.8572 -1.5615
16601SOL     OW56917   3.124  11.173   2.905 -1.2400 -0.2460  0.2179
16601SOL    HW156918   3.055  11.107   2.902 -1.0228 -0.4280 -1.6173
16601SOL    HW256919   3.191  11.136   2.963 -0.3325 -2.4703 -2.0876
16602SOL     OW56920   1.582   0.346   9.130 -0.4223  0.3246  0.6056
16602SOL    HW156921   1.497   0.370   9.169 -0.9290 -0.7545  0.1853
16602SOL    HW256922   1.640   0.335   9.205 -0.4601  1.7220  0.8693
16603SOL     OW56923   1.403   8.048  11.563  0.2980 -0.3570 -0.4477
16603SOL    HW156924   1.488   8.022  11.600 -0.2512 -0.6227  0.6898
16603SOL    HW256925   1.375   8.121  11.619  0.1428  0.2620 -1.3253
16604SOL     OW56926   6.992  10.266   1.768 -0.0820  0.2189 -0.0312
16604SOL    HW156927   7.079  10.256   1.808 -0.5039  0.7599  1.0627
16604SOL    HW256928   6.932  10.273   1.842 -1.0302  0.1550 -0.7744
16605SOL     OW56929   6.911  10.131   4.803  0.1063  0.2752 -0.2531
16605SOL    HW156930   6.931  10.225   4.808 -2.3877  1.1806 -3.8428
16605SOL    HW256931   6.822  10.124   4.837  1.1852 -1.3850  2.5584
16606SOL     OW56932   3.679   0.953   7.342 -0.1988  0.3909 -0.2074
16606SOL    HW156933   3.748   0.899   7.302 -0.1666  0.6072 -0.4448
16606SOL    HW256934   3.727   1.021   7.391 -0.2400  0.9977 -0.9899
16607SOL     OW56935   8.027   7.350   4.199  0.8976 -0.1945 -0.4610
16607SOL    HW156936   7.956   7.349   4.134  0.5549 -0.0526 -0.0939
16607SOL    HW256937   8.042   7.257   4.219  1.3323 -0.2690 -1.0870
16608SOL     OW56938   8.157   7.595   8.144 -0.1513 -0.2604  0.7400
16608SOL    HW156939   8.208   7.656   8.090  1.8981 -2.0577  0.5169
16608SOL    HW256940   8.171   7.626   8.234  1.8216 -1.0122  0.7261
16609SOL     OW56941   0.424   2.136   8.763 -0.2620 -0.1530 -0.1673
16609SOL    HW156942   0.355   2.198   8.784  0.3374  0.2603  0.6389
16609SOL    HW256943   0.480   2.182   8.700 -1.2456 -0.8546 -1.6158
16610SOL     OW56944   8.882   7.475   4.554  0.2835 -0.4794  0.0008
16610SOL    HW156945   8.942   7.409   4.588  0.5686 -0.5342 -0.5889
16610SOL    HW256946   8.891   7.468   4.459  0.8530  0.8973 -0.0740
16611SOL     OW56947   0.635  12.920   8.743 -0.2231  0.4500  0.1579
16611SOL    HW156948   0.711  12.977   8.733 -0.8288  1.2176 -0.2452
16611SOL    HW256949   0.565  12.979   8.774 -0.3692 -0.4494  1.6261
16612SOL     OW56950  10.333  12.332   9.335  0.6630  0.3091 -0.3686
16612SOL    HW156951  10.252  12.333   9.386 -0.0050  1.0196 -1.4062
16612SOL    HW256952  10.372  12.246   9.353  1.1159  0.9585  2.3203
16613SOL     OW56953   8.519  10.264   5.436 -0.2859  0.4750 -0.4508
16613SOL    HW156954   8.530  10.266   5.341 -1.7277  2.4698 -0.6554
16613SOL    HW256955   8.589  10.320   5.469 -1.6117  2.3939 -0.6769
16614SOL     OW56956   2.730   6.166   9.173 -0.2868 -0.7106 -0.8368
16614SOL    HW156957   2.656   6.190   9.229  0.1298  0.2077 -0.6606
16614SOL    HW256958   2.752   6.247   9.127  1.7202 -0.4840  0.4043
16615SOL     OW56959  11.016   1.841   1.827  0.0851 -0.0000 -0.7265
16615SOL    HW156960  10.968   1.914   1.788  2.2565  0.8645 -1.9569
16615SOL    HW256961  11.082   1.883   1.883  0.2371 -1.0940 -0.0565
16616SOL     OW56962   5.819  10.825   7.700 -0.8560  0.1664  0.3566
16616SOL    HW156963   5.888  10.827   7.767 -2.0930  0.2362  1.6824
16616SOL    HW256964   5.825  10.909   7.656 -0.4695  0.4066  0.8565
16617SOL     OW56965  11.637   2.299   4.260 -0.2452 -0.6639 -0.5909
16617SOL    HW156966  11.628   2.314   4.354  0.6951  1.5389 -0.7820
16617SOL    HW256967  11.551   2.323   4.224 -1.0813 -2.8692 -0.2294
16618SOL     OW56968   6.289   2.848   1.395  0.1484 -0.1288  0.0257
16618SOL    HW156969   6.248   2.853   1.309  0.8817 -0.8576 -0.3727
16618SOL    HW256970   6.302   2.940   1.420 -0.3726  0.0918 -0.4851
16619SOL     OW56971  10.069   8.981   0.237  0.1855 -0.3320  0.2681
16619SOL    HW156972  10.049   9.049   0.172 -1.6860 -1.2030 -0.1518
16619SOL    HW256973  10.164   8.974   0.236  0.4979  2.5975  0.6983
16620SOL     OW56974   2.990   4.008   8.007 -0.4735 -0.4411 -0.0034
16620SOL    HW156975   3.015   3.966   8.090 -0.5190 -2.3018 -0.8802
16620SOL    HW256976   3.034   4.093   8.009  0.7768 -1.0770  1.2456
16621SOL     OW56977   4.896   3.444  11.451 -0.0155  0.5961  0.4658
16621SOL    HW156978   4.831   3.454  11.521 -1.3155 -0.1892 -0.5826
16621SOL    HW256979   4.951   3.371  11.480 -0.6373  0.1775  0.6096
16622SOL     OW56980   8.828   8.791   0.051  0.0487  0.3285 -0.4219
16622SOL    HW156981   8.810   8.703   0.084  1.4459 -0.5163 -1.7584
16622SOL    HW256982   8.875   8.834   0.122  0.7992 -0.5769 -0.3505
16623SOL     OW56983   7.635   1.752   1.631  0.4300 -0.0287  0.0141
16623SOL    HW156984   7.731   1.754   1.624  0.5187 -1.7058  0.2503
16623SOL    HW256985   7.605   1.806   1.558  1.5466 -1.6238 -1.7262
16624SOL     OW56986   9.605  12.460   2.794  0.3992 -0.5118  0.1781
16624SOL    HW156987   9.539  12.522   2.825 -0.5900 -1.3396 -0.1886
16624SOL    HW256988   9.624  12.488   2.704 -0.5537 -1.1062 -0.2297
16625SOL     OW56989   2.973  11.795   3.214 -0.3800 -0.5646  0.4451
16625SOL    HW156990   2.910  11.827   3.279  0.2305  0.2642  0.6502
16625SOL    HW256991   2.919  11.762   3.142 -1.0806 -1.8178  1.5011
16626SOL     OW56992   5.220   6.021  12.666  0.5279  0.4953 -0.1386
16626SOL    HW156993   5.263   6.106  12.664 -1.3121  1.4535 -2.2202
16626SOL    HW256994   5.195   6.004  12.576  1.7606 -2.8187 -0.0373
16627SOL     OW56995   7.226   0.719  11.693 -0.0454  0.9332 -0.0286
16627SOL    HW156996   7.183   0.783  11.750  2.7222  1.1541  2.0536
16627SOL    HW256997   7.309   0.701  11.737  0.8005 -1.4747 -2.3743
16628SOL     OW56998   8.514   4.890  12.690  0.0036 -0.0314 -0.1553
16628SOL    HW156999   8.428   4.889  12.733 -0.0635  1.8900 -0.1381
16628SOL    HW257000   8.509   4.821  12.624 -1.2857 -0.4399  0.3299
16629SOL     OW57001  11.408   4.669   7.309 -0.1020  0.6613  0.1349
16629SOL    HW157002  11.440   4.622   7.232  0.6924  2.0804 -0.4517
16629SOL    HW257003  11.487   4.696   7.355 -0.5411  1.0948  0.6479
16630SOL     OW57004  12.228   8.458   6.794 -0.0459 -0.3265 -0.0740
16630SOL    HW157005  12.177   8.500   6.725 -0.9289  0.3659  0.9586
16630SOL    HW257006  12.281   8.529   6.831  0.0021 -0.5639  0.3172
16631SOL     OW57007   4.237   7.731   6.589  0.2883 -0.0580 -0.4495
16631SOL    HW157008   4.264   7.733   6.681  1.0426  1.4828 -0.6676
16631SOL    HW257009   4.220   7.822   6.567 -3.0664 -0.6843 -0.9803
16632SOL     OW57010   2.627  12.755   8.275 -0.7585 -0.0382 -0.3301
16632SOL    HW157011   2.629  12.823   8.343 -0.2528  0.5470 -0.9163
16632SOL    HW257012   2.535  12.728   8.272 -0.8207  0.0423  0.4637
16633SOL     OW57013   9.241   0.209   7.939  0.1374 -0.0481  0.1936
16633SOL    HW157014   9.314   0.166   7.985  0.4046  0.8918  0.6670
16633SOL    HW257015   9.212   0.277   7.998 -1.9395 -1.1458  0.5217
16634SOL     OW57016   1.239   8.323   2.232 -0.0525  0.9484  0.5087
16634SOL    HW157017   1.268   8.414   2.246 -0.1372  0.8269  1.5443
16634SOL    HW257018   1.317   8.271   2.250 -0.3827  0.7356  1.3359
16635SOL     OW57019   2.463   2.955   0.972  0.7524  0.1594 -0.2019
16635SOL    HW157020   2.489   3.044   0.946  2.3503 -0.5152 -1.0580
16635SOL    HW257021   2.544   2.915   1.004 -0.1540 -0.6877  1.0842
16636SOL     OW57022   0.882  12.303   6.799  0.4984 -0.2264  0.3366
16636SOL    HW157023   0.839  12.310   6.884 -1.3995 -0.8348 -0.5241
16636SOL    HW257024   0.823  12.348   6.738  1.3132 -0.6827 -0.8267
16637SOL     OW57025  10.511   6.951  10.518 -0.5546 -0.1160 -0.5748
16637SOL    HW157026  10.570   6.958  10.443 -1.1296 -1.1381 -1.1441
16637SOL    HW257027  10.525   7.031  10.568  0.8474 -0.0492 -1.0419
16638SOL     OW57028   2.714   6.792   2.795  0.1590 -0.2517 -0.2626
16638SOL    HW157029   2.702   6.874   2.749 -0.8693 -0.4179 -0.3079
16638SOL    HW257030   2.713   6.725   2.726 -0.6683 -0.4373 -0.0799
16639SOL     OW57031   7.697   0.720   0.959  0.2785 -0.3971  0.0138
16639SOL    HW157032   7.726   0.793   1.014 -0.0001  0.7685 -1.2985
16639SOL    HW257033   7.723   0.746   0.870  0.2661 -1.9714 -0.4817
16640SOL     OW57034   0.080   7.289   7.846  0.1027 -0.4554  0.1094
16640SOL    HW157035   0.149   7.232   7.881 -0.1263 -0.7894  0.0145
16640SOL    HW257036   0.013   7.229   7.814 -0.9663 -0.1377  1.6513
16641SOL     OW57037  10.885   6.435   9.622 -0.0489 -0.0614 -0.2280
16641SOL    HW157038  10.893   6.456   9.529 -2.0330  0.7126 -0.2646
16641SOL    HW257039  10.859   6.343   9.624 -1.0388  0.2048 -0.5007
16642SOL     OW57040   7.635   4.496   0.970 -0.5911 -0.0609 -0.2584
16642SOL    HW157041   7.657   4.415   0.924 -1.7505 -1.0488  0.8369
16642SOL    HW257042   7.659   4.480   1.061  1.3939  1.7505 -0.3712
16643SOL     OW57043   4.130   1.211   6.629 -0.1737 -0.6218 -0.5244
16643SOL    HW157044   4.158   1.255   6.709 -0.9632 -0.9960 -0.0288
16643SOL    HW257045   4.046   1.251   6.608  0.4797  0.1587 -1.7220
16644SOL     OW57046   8.155   5.807   9.774 -0.3351  0.3646 -0.0507
16644SOL    HW157047   8.080   5.747   9.780 -1.5740  1.6274 -1.8148
16644SOL    HW257048   8.157   5.833   9.682  2.5566  0.1203 -0.1367
16645SOL     OW57049  12.507   7.364   3.155 -0.4637 -0.2037 -0.0128
16645SOL    HW157050  12.461   7.283   3.177 -0.2394 -1.5336 -3.6513
16645SOL    HW257051  12.438   7.422   3.122 -0.1623 -0.4976 -1.2132
16646SOL     OW57052  12.203   7.454   7.601  0.3959 -0.2310 -0.0920
16646SOL    HW157053  12.156   7.410   7.672 -0.8361  1.2178  0.0252
16646SOL    HW257054  12.135   7.500   7.551  1.4899  0.5000 -0.9630
16647SOL     OW57055   6.290   2.048   3.479  0.4264 -0.0127  0.5610
16647SOL    HW157056   6.373   2.002   3.491 -0.1538 -0.8224  1.6804
16647SOL    HW257057   6.261   2.022   3.392  1.5164  0.5920 -0.0060
16648SOL     OW57058   0.355   8.815  10.466 -0.1402  0.2023  0.4492
16648SOL    HW157059   0.270   8.835  10.505  0.0842  0.0366  1.0357
16648SOL    HW257060   0.394   8.750  10.525  0.5045  0.4793  0.3341
16649SOL     OW57061   5.894   1.112   3.796  0.2975 -0.1551  0.2074
16649SOL    HW157062   5.814   1.060   3.795  0.2904 -0.1434  0.1533
16649SOL    HW257063   5.873   1.189   3.849  1.2929 -1.7885  3.2899
16650SOL     OW57064   0.223   5.042   2.172  0.3920  0.1998 -0.2220
16650SOL    HW157065   0.220   4.947   2.157 -1.8046 -0.3329  2.6879
16650SOL    HW257066   0.273   5.052   2.253  1.3950  1.6700 -0.9707
16651SOL     OW57067  11.632   9.845   9.101  0.1547  0.2103  0.2114
16651SOL    HW157068  11.681   9.869   9.022 -0.3254  2.1421  0.4721
16651SOL    HW257069  11.611   9.752   9.088 -0.1572  0.5427 -2.0548
16652SOL     OW57070  12.106   5.641  12.001 -0.0640  0.0284  0.5958
16652SOL    HW157071  12.064   5.582  11.938 -2.3096  0.4351  1.6412
16652SOL    HW257072  12.155   5.703  11.946  0.4614 -1.3816 -0.5929
16653SOL     OW57073   1.384  10.165  10.868  0.3809  0.3787  0.4001
16653SOL    HW157074   1.308  10.221  10.853  0.9905  1.4248  1.0646
16653SOL    HW257075   1.450  10.224  10.904  1.6280 -0.4194 -0.4713
16654SOL     OW57076   6.432   2.919   8.583 -0.4924  0.3856 -1.0216
16654SOL    HW157077   6.444   2.978   8.657  0.2936 -0.5503 -0.3731
16654SOL    HW257078   6.504   2.938   8.524  0.2696 -0.4814 -0.4045
16655SOL     OW57079  10.017   4.920   5.783 -0.0519 -0.5080 -0.3834
16655SOL    HW157080  10.094   4.875   5.747 -1.1393 -1.0190 -2.1873
16655SOL    HW257081   9.953   4.850   5.796  0.0387 -0.2357  1.9879
16656SOL     OW57082   1.743  11.100  12.219  0.1100 -0.5862 -0.2370
16656SOL    HW157083   1.766  11.159  12.147  0.7490  0.0270  0.4413
16656SOL    HW257084   1.647  11.099  12.220 -0.0441  2.4649  1.2482
16657SOL     OW57085   3.361   0.754   3.914 -0.3608 -0.4697 -0.4415
16657SOL    HW157086   3.433   0.696   3.890  0.9775  1.0201 -0.1741
16657SOL    HW257087   3.331   0.790   3.830  1.2289  1.1829 -0.3494
16658SOL     OW57088  10.827   3.278   3.266  0.3362  0.0372 -0.1220
16658SOL    HW157089  10.824   3.213   3.337  0.5471 -0.3595 -0.4714
16658SOL    HW257090  10.896   3.339   3.293  1.0398 -0.6157 -0.4036
16659SOL     OW57091   1.230   4.899   2.377  0.3079 -0.7643  0.6673
16659SOL    HW157092   1.291   4.834   2.412  1.9842 -0.4935 -1.5170
16659SOL    HW257093   1.191   4.856   2.301  1.2561  0.5976 -0.6645
16660SOL     OW57094   4.287   5.626   1.715 -0.2832 -0.2084 -0.2242
16660SOL    HW157095   4.202   5.632   1.672 -1.5029 -2.8419  1.5320
16660SOL    HW257096   4.344   5.583   1.651 -0.5216  0.6736 -1.0505
16661SOL     OW57097  11.658   3.811   7.820  0.3503  0.4630  0.5381
16661SOL    HW157098  11.642   3.847   7.907 -3.0694 -1.1345  0.7423
16661SOL    HW257099  11.643   3.884   7.760 -2.6433  0.4443  1.1267
16662SOL     OW57100   9.500   0.617   3.939 -0.3128  0.0813  0.0771
16662SOL    HW157101   9.573   0.611   3.878 -1.0105  0.2797 -0.7918
16662SOL    HW257102   9.541   0.635   4.024  0.7336 -1.1841 -0.1359
16663SOL     OW57103   1.383   1.906  10.298 -0.1528 -0.4885  0.2026
16663SOL    HW157104   1.397   1.961  10.375 -0.4551  0.8939 -0.7019
16663SOL    HW257105   1.334   1.831  10.331 -0.3561  0.1182  1.3345
16664SOL     OW57106   4.653   1.530   2.937 -0.2659  0.2173  0.3538
16664SOL    HW157107   4.558   1.529   2.941 -0.3735  0.7374 -1.2733
16664SOL    HW257108   4.674   1.592   2.866  1.1844 -1.6845 -1.0141
16665SOL     OW57109  12.358   2.027   0.924 -0.3300  0.1029  0.6646
16665SOL    HW157110  12.446   2.040   0.887 -0.6349 -0.3839 -0.2587
16665SOL    HW257111  12.363   2.066   1.012  0.9773 -0.4155  0.8534
16666SOL     OW57112  12.436   0.737   3.474  0.0504  0.0023 -0.2636
16666SOL    HW157113  12.491   0.809   3.444  0.0560 -0.1260 -0.5614
16666SOL    HW257114  12.352   0.750   3.430 -0.3325  0.4920  0.5917
16667SOL     OW57115   7.817   9.074   8.011 -0.3050  0.6547  0.2272
16667SOL    HW157116   7.811   9.155   8.061  0.4983  1.1662 -0.4801
16667SOL    HW257117   7.838   9.102   7.922  0.9969 -0.3683  0.1835
16668SOL     OW57118   4.003   9.438   5.804  0.0398  0.8225  0.2383
16668SOL    HW157119   4.084   9.422   5.757  0.8455  0.1729  1.7605
16668SOL    HW257120   3.947   9.364   5.782  0.0732  0.9766 -0.3699
16669SOL     OW57121  11.096   1.321   1.379  0.2158 -0.3462  0.3967
16669SOL    HW157122  11.042   1.322   1.300 -0.4106  0.2935  0.8288
16669SOL    HW257123  11.034   1.315   1.451  0.7020  0.4257  0.8999
16670SOL     OW57124   1.274   0.972  12.889  0.1609  0.2544 -0.2927
16670SOL    HW157125   1.359   1.002  12.857  0.4215  0.7514  0.8171
16670SOL    HW257126   1.261   0.887  12.846  0.3437  1.0035 -1.9118
16671SOL     OW57127   0.076   8.272   8.966 -0.1363  0.5561  0.2076
16671SOL    HW157128   0.085   8.367   8.977  2.8499  0.5327 -1.1182
16671SOL    HW257129   0.113   8.235   9.046  0.1082  0.5193  0.0793
16672SOL     OW57130   4.046   0.466   3.030  0.3113  0.2098  0.0641
16672SOL    HW157131   4.002   0.449   3.113 -1.0869 -0.7867 -0.8310
16672SOL    HW257132   4.045   0.561   3.020 -0.4833  0.2686  0.6854
16673SOL     OW57133  10.614   5.215   9.252  0.0248  0.0084 -0.0655
16673SOL    HW157134  10.644   5.297   9.290  0.1824 -0.8405  1.7343
16673SOL    HW257135  10.603   5.156   9.326 -2.8796 -0.7622 -0.9910
16674SOL     OW57136   1.675   5.085   5.027  0.0942  0.3102  0.3493
16674SOL    HW157137   1.618   5.085   4.951 -1.7517 -0.0031  1.6556
16674SOL    HW257138   1.762   5.103   4.992 -0.6139 -0.2256 -1.8564
16675SOL     OW57139   8.998  12.124   3.690 -0.5716  0.1174 -0.4381
16675SOL    HW157140   9.005  12.032   3.717  0.7303 -0.1853 -1.7068
16675SOL    HW257141   9.021  12.174   3.768  3.2447 -0.7304 -0.8377
16676SOL     OW57142   3.913   2.244   2.266 -0.1653 -0.0353  0.0018
16676SOL    HW157143   3.922   2.149   2.274 -0.9041 -0.3492 -2.2821
16676SOL    HW257144   3.838   2.265   2.321 -0.6176 -0.9268 -0.2493
16677SOL     OW57145  10.381   5.591   1.043  0.0879  0.6167  0.7207
16677SOL    HW157146  10.285   5.590   1.039  0.1001 -1.3334 -1.4210
16677SOL    HW257147  10.404   5.683   1.032 -1.5229  0.8723 -1.1051
16678SOL     OW57148   9.300  11.441   2.928 -0.0616 -0.0333  0.5329
16678SOL    HW157149   9.250  11.464   3.006 -1.2668 -1.2508  0.1503
16678SOL    HW257150   9.392  11.454   2.953 -0.4964  1.0636  1.6367
16679SOL     OW57151  11.884  10.852  11.973  0.1971  0.5924 -0.1577
16679SOL    HW157152  11.859  10.939  11.942 -2.1271 -0.3786 -1.3505
16679SOL    HW257153  11.942  10.818  11.905 -2.2843 -0.2918 -1.9863
16680SOL     OW57154   8.766  12.658   2.759  0.1223  0.0674 -0.0230
16680SOL    HW157155   8.675  12.687   2.764  0.4032  0.9302  0.1508
16680SOL    HW257156   8.759  12.563   2.744 -0.8050  0.3206 -1.3783
16681SOL     OW57157  11.618   5.214   6.323  0.1405 -0.0004  0.0391
16681SOL    HW157158  11.616   5.282   6.256  0.3712 -1.3394 -1.3773
16681SOL    HW257159  11.685   5.243   6.385  1.6270  0.1641 -1.5642
16682SOL     OW57160   2.444  12.064   8.688 -0.1736  0.0595  0.1512
16682SOL    HW157161   2.517  12.044   8.631  0.1177 -1.6680  1.0784
16682SOL    HW257162   2.397  12.135   8.643  0.4591 -0.7183 -1.8250
16683SOL     OW57163  10.772   7.592   4.281 -0.0754  0.2881 -0.1319
16683SOL    HW157164  10.690   7.640   4.273 -0.0268  0.2726 -0.7810
16683SOL    HW257165  10.840   7.661   4.284 -0.1907  0.3551  1.7588
16684SOL     OW57166   7.363   0.023   8.848 -0.5600  0.0040  0.2156
16684SOL    HW157167   7.346   0.117   8.840 -2.6112 -0.4113 -0.9214
16684SOL    HW257168   7.350   0.004   8.941  0.4046  0.9133  0.5526
16685SOL     OW57169   9.544   6.538   6.119  0.3547 -0.1724  0.0840
16685SOL    HW157170   9.629   6.500   6.140  0.0397 -1.1239 -0.3069
16685SOL    HW257171   9.551   6.630   6.146  1.8009 -0.0108 -0.7372
16686SOL     OW57172   8.492   9.248   7.682  0.3669  0.3655 -0.4018
16686SOL    HW157173   8.499   9.342   7.697 -1.0184  0.6230 -1.1889
16686SOL    HW257174   8.559   9.209   7.738  0.5562  1.7840  0.3872
16687SOL     OW57175   0.774  12.370   3.408  0.4894 -0.5415  0.0514
16687SOL    HW157176   0.805  12.406   3.491  0.1433  1.0272 -0.4646
16687SOL    HW257177   0.722  12.440   3.369  0.1390 -1.4614 -1.2155
16688SOL     OW57178   0.675   9.375   6.114 -0.1261 -0.0868  0.0642
16688SOL    HW157179   0.765   9.406   6.121 -0.6983  1.5291  0.9184
16688SOL    HW257180   0.622   9.449   6.145 -1.7216 -1.1664  0.0301
16689SOL     OW57181  11.354   6.074   5.903 -0.0581 -0.4105 -0.3736
16689SOL    HW157182  11.355   6.156   5.952  1.0021  0.0766 -1.1683
16689SOL    HW257183  11.284   6.085   5.839  1.0349  0.5259 -1.4788
16690SOL     OW57184  12.324   3.488  11.220 -0.7763 -0.0966  0.1036
16690SOL    HW157185  12.326   3.491  11.316 -0.1314  0.4772  0.0798
16690SOL    HW257186  12.233   3.469  11.199 -1.3873  1.8483  0.7786
16691SOL     OW57187   1.643   7.450   4.482  0.0440 -0.6225  0.1488
16691SOL    HW157188   1.701   7.525   4.474 -0.3777 -0.2839  0.2636
16691SOL    HW257189   1.598   7.445   4.398 -0.1767 -0.5372  0.2599
16692SOL     OW57190   9.890   5.261   2.365  0.1276  0.5190 -0.7475
16692SOL    HW157191   9.860   5.264   2.456 -0.6081  1.4229 -0.9986
16692SOL    HW257192   9.899   5.354   2.340  1.5311  0.2731 -1.2059
16693SOL     OW57193   8.953   6.581   7.571  0.5289  0.7858  0.1741
16693SOL    HW157194   9.031   6.570   7.517 -0.7409  1.9633 -2.0038
16693SOL    HW257195   8.949   6.675   7.589 -1.4055  1.0966 -1.4760
16694SOL     OW57196   2.151   5.878   7.144  0.1619 -0.2090  0.0709
16694SOL    HW157197   2.089   5.907   7.211 -0.6951 -0.5906 -0.5360
16694SOL    HW257198   2.229   5.933   7.158  0.2340 -0.6700  1.7333
16695SOL     OW57199   2.844   2.652   3.217  0.2760  0.0564  0.4262
16695SOL    HW157200   2.884   2.646   3.304 -0.9976 -1.5040  0.9458
16695SOL    HW257201   2.829   2.561   3.191 -2.0455  0.5431 -0.1409
16696SOL     OW57202  11.056   5.140   1.693 -0.5280 -0.5381 -0.3377
16696SOL    HW157203  11.111   5.140   1.615 -0.3368 -2.3976 -0.2642
16696SOL    HW257204  10.980   5.193   1.669 -0.3997 -0.9421 -1.7463
16697SOL     OW57205   3.759   3.852   5.847 -0.6184  0.1720 -0.1800
16697SOL    HW157206   3.838   3.862   5.901 -0.3343 -0.6557 -0.4257
16697SOL    HW257207   3.770   3.766   5.806 -3.0053 -1.3543  2.0658
16698SOL     OW57208   9.943   1.972   7.443 -0.0789 -0.0439  0.3575
16698SOL    HW157209   9.924   1.978   7.350  0.9306 -0.2529  0.1352
16698SOL    HW257210  10.017   2.031   7.457 -0.6372  0.5051  1.1580
16699SOL     OW57211   1.750  10.279   2.702  0.3545  0.2233 -0.4491
16699SOL    HW157212   1.682  10.221   2.668  1.2063 -0.2355 -1.4168
16699SOL    HW257213   1.725  10.366   2.671  0.5209 -0.0303 -1.3171
16700SOL     OW57214  12.846   0.001   5.387 -0.1067 -0.0037  0.1523
16700SOL    HW157215  12.910  -0.061   5.424 -1.0600 -0.6247  0.8167
16700SOL    HW257216  12.864   0.083   5.433  1.9363  0.5974 -1.5569
16701SOL     OW57217   3.937   8.414   6.490  0.3367  0.4848 -0.0394
16701SOL    HW157218   3.969   8.414   6.400  0.8539  1.1009  0.1384
16701SOL    HW257219   3.985   8.343   6.532 -0.4237 -0.2772 -0.4132
16702SOL     OW57220   8.879   8.497   7.218  0.1645 -0.0892 -0.1411
16702SOL    HW157221   8.943   8.566   7.202 -1.4187  1.3069 -0.7438
16702SOL    HW257222   8.809   8.539   7.267  1.0345 -2.3202  3.3518
16703SOL     OW57223   2.171  12.359   4.318 -0.1879 -0.1834  0.0781
16703SOL    HW157224   2.181  12.454   4.324 -1.2142 -0.0648  0.0201
16703SOL    HW257225   2.159  12.330   4.408  2.6941 -0.6000  0.4251
16704SOL     OW57226   4.628   4.194   0.969  0.3568 -0.5345  0.0261
16704SOL    HW157227   4.591   4.167   0.885  1.3454  2.0265 -1.3695
16704SOL    HW257228   4.698   4.256   0.945  0.2270  0.8045  2.7578
16705SOL     OW57229   6.119   1.759   2.027  0.1765 -0.4193 -0.5254
16705SOL    HW157230   6.052   1.827   2.024 -1.1821 -1.7256 -1.9132
16705SOL    HW257231   6.170   1.779   2.105 -2.1386  0.3534  0.8915
16706SOL     OW57232   7.584   9.853   5.369  0.0013 -0.1252 -0.6783
16706SOL    HW157233   7.519   9.913   5.404  0.0634  0.0283 -0.8275
16706SOL    HW257234   7.539   9.768   5.366  0.3798 -0.4320  0.9885
16707SOL     OW57235   2.242  10.839   1.310 -0.3665 -0.1031 -0.6956
16707SOL    HW157236   2.154  10.875   1.298  0.2699  1.3590 -1.1722
16707SOL    HW257237   2.300  10.915   1.305  0.8501 -0.8936  0.7070
16708SOL     OW57238   6.305   6.612   7.451  0.1795 -0.6956  0.2944
16708SOL    HW157239   6.367   6.684   7.441  0.9201 -1.5185 -1.6371
16708SOL    HW257240   6.288   6.607   7.545 -0.5434  2.4861  0.4303
16709SOL     OW57241   9.210  12.598   7.215 -0.1062 -0.0081 -0.0607
16709SOL    HW157242   9.296  12.635   7.197 -0.2645  1.2145  1.4994
16709SOL    HW257243   9.159  12.619   7.136  0.5993  0.6274 -0.3629
16710SOL     OW57244   1.352   0.440   1.398 -0.2111  0.6284  0.0726
16710SOL    HW157245   1.263   0.431   1.433 -0.5521  0.2313 -0.8797
16710SOL    HW257246   1.376   0.352   1.370 -0.3332  1.0889 -1.5950
16711SOL     OW57247   6.214   3.777   4.345 -0.2839 -0.1992  0.2203
16711SOL    HW157248   6.273   3.772   4.270  0.0131  0.2714  0.4172
16711SOL    HW257249   6.173   3.691   4.349  0.8363 -0.7556  0.4337
16712SOL     OW57250   0.259   3.289  12.568 -0.3154  0.4893  0.0048
16712SOL    HW157251   0.306   3.371  12.554 -0.1367  0.0940 -1.9646
16712SOL    HW257252   0.166   3.314  12.564 -0.3296  0.9820  2.1377
16713SOL     OW57253   3.972   5.780   4.466  0.3103 -0.4196 -0.1930
16713SOL    HW157254   3.920   5.744   4.538 -0.7143 -1.1955 -1.2959
16713SOL    HW257255   3.954   5.723   4.392 -0.4494  1.6602 -1.6958
16714SOL     OW57256   8.415   2.176   7.443  0.8023  0.4856 -0.5770
16714SOL    HW157257   8.380   2.130   7.519  1.7521  0.8295  0.0942
16714SOL    HW257258   8.417   2.111   7.374 -3.6254  1.0827 -1.5114
16715SOL     OW57259   8.161   2.529   8.268  0.5364 -0.2734 -0.1820
16715SOL    HW157260   8.118   2.480   8.198  0.3708  0.2533 -0.4517
16715SOL    HW257261   8.160   2.620   8.238 -1.3493  0.2859  1.3962
16716SOL     OW57262   4.667   1.190   1.173  0.1909 -0.0984  0.4267
16716SOL    HW157263   4.685   1.239   1.093  2.0493  0.2118  0.9781
16716SOL    HW257264   4.577   1.158   1.162  0.5307 -0.4343 -1.9536
16717SOL     OW57265  12.804   4.770  11.027  0.1395 -0.4927  0.0948
16717SOL    HW157266  12.842   4.703  11.083  0.8355  0.9137  1.3762
16717SOL    HW257267  12.740   4.814  11.082 -1.4660 -1.0960 -1.2264
16718SOL     OW57268  10.670   2.881   6.047  0.6576 -0.1897 -0.0498
16718SOL    HW157269  10.603   2.950   6.047  0.5348 -0.2587  1.6712
16718SOL    HW257270  10.620   2.799   6.051  0.8238 -0.2721  0.4013
16719SOL     OW57271  10.868   9.358   8.543 -0.8293 -0.7408 -0.3316
16719SOL    HW157272  10.858   9.294   8.472  2.1900 -0.1882 -1.3862
16719SOL    HW257273  10.893   9.439   8.499  0.8345 -0.3027  1.3160
16720SOL     OW57274   0.821   9.196   3.959  0.4115  0.0833  0.3715
16720SOL    HW157275   0.766   9.270   3.933 -0.9319 -0.9848  0.0307
16720SOL    HW257276   0.902   9.209   3.911  0.8219  2.1433  1.4997
16721SOL     OW57277  10.259   7.389  11.235 -0.3769 -0.3117  0.1039
16721SOL    HW157278  10.309   7.354  11.309  2.0212 -0.8137 -1.6128
16721SOL    HW257279  10.228   7.474  11.264  0.8737 -0.3177  1.5578
16722SOL     OW57280  11.334  12.031  10.930  0.5487  0.0373  0.3166
16722SOL    HW157281  11.305  12.119  10.906 -0.4097 -0.1947  0.5694
16722SOL    HW257282  11.268  12.001  10.993  1.3330 -0.5358  0.8842
16723SOL     OW57283   1.761   3.619  10.474 -0.1636  0.3752 -0.3392
16723SOL    HW157284   1.777   3.706  10.438 -0.0174  1.0646  1.2900
16723SOL    HW257285   1.846   3.592  10.509 -0.5595  0.2905  0.5981
16724SOL     OW57286   5.294   0.937   7.762 -0.1882  0.2913  0.2807
16724SOL    HW157287   5.256   0.860   7.805  0.5177 -1.4249 -1.9309
16724SOL    HW257288   5.375   0.905   7.723 -0.7318  1.6461 -2.2340
16725SOL     OW57289   6.704   5.758   4.036  0.0243  0.2300 -0.4782
16725SOL    HW157290   6.617   5.799   4.040 -1.1768 -2.2367  2.6751
16725SOL    HW257291   6.749   5.792   4.114  0.1538 -1.8662  0.4178
16726SOL     OW57292  12.493   4.036   3.397 -0.2425  0.3292  0.2507
16726SOL    HW157293  12.397   4.040   3.401 -0.3039 -0.8203  0.0278
16726SOL    HW257294  12.517   3.974   3.465  0.3830  0.9580  0.6094
16727SOL     OW57295   8.772   2.000  10.479  0.4705  0.2981 -0.0523
16727SOL    HW157296   8.816   2.014  10.562  0.8958  0.9219 -0.3768
16727SOL    HW257297   8.713   2.074  10.469  0.8299  0.5242 -0.5619
16728SOL     OW57298  10.389   8.035   0.279  0.2388  0.2630 -0.1392
16728SOL    HW157299  10.318   8.017   0.217  0.6281  0.0678 -0.5303
16728SOL    HW257300  10.347   8.085   0.349 -0.7478 -1.5292  0.6486
16729SOL     OW57301   6.114   3.386   4.033 -0.0287  0.4548 -0.1525
16729SOL    HW157302   6.206   3.410   4.024  0.1949  0.0668  1.0362
16729SOL    HW257303   6.103   3.309   3.978  0.4223  0.3258 -0.0577
16730SOL     OW57304   3.248  11.410   9.877  0.2233  0.2056  0.5194
16730SOL    HW157305   3.215  11.500   9.880 -0.3610  0.1961 -2.6266
16730SOL    HW257306   3.170  11.355   9.872  0.5842 -0.2031 -1.1334
16731SOL     OW57307   2.647   0.795  11.553  0.0247  0.0953  0.0480
16731SOL    HW157308   2.649   0.867  11.616 -0.4801 -0.1472  0.3521
16731SOL    HW257309   2.672   0.718  11.605 -1.2038 -0.2471  0.1567
16732SOL     OW57310  10.094  12.952   2.546  0.5066  0.1758  0.1434
16732SOL    HW157311  10.044  13.008   2.486 -0.2007  0.2386  0.7921
16732SOL    HW257312  10.043  12.949   2.626  2.6882  2.2995  1.7746
16733SOL     OW57313   8.397   2.721   0.568 -0.8976 -0.2442 -0.3753
16733SOL    HW157314   8.319   2.686   0.524 -1.6161 -0.0327  0.6904
16733SOL    HW257315   8.470   2.675   0.527 -1.6754 -1.4827 -0.4443
16734SOL     OW57316  10.864  10.425   9.167 -0.3857  0.3140 -0.8829
16734SOL    HW157317  10.944  10.388   9.206  0.3494 -0.1490 -2.7143
16734SOL    HW257318  10.797  10.358   9.183  0.2637 -0.5562 -1.6938
16735SOL     OW57319   9.457   2.626   3.186 -0.2567  0.3308  0.4071
16735SOL    HW157320   9.441   2.617   3.280 -0.8223  0.7493  0.3524
16735SOL    HW257321   9.540   2.672   3.180 -0.7577  1.3015  0.7146
16736SOL     OW57322   0.290   2.034   3.919 -0.3896  0.3899  0.3330
16736SOL    HW157323   0.307   1.992   3.834  1.1965  0.3001  0.6656
16736SOL    HW257324   0.253   2.120   3.895  1.0399  0.8108 -0.5175
16737SOL     OW57325  12.269   8.846   9.333  0.3353  0.2634  0.0346
16737SOL    HW157326  12.228   8.827   9.417 -0.9337  1.2142 -0.3358
16737SOL    HW257327  12.350   8.893   9.356  0.6850 -0.6484  0.7387
16738SOL     OW57328   3.852   2.212   8.266  0.2260 -0.6683 -0.0031
16738SOL    HW157329   3.879   2.284   8.209  1.4822  0.6537  2.1077
16738SOL    HW257330   3.916   2.213   8.338 -1.9160 -1.4490  2.0673
16739SOL     OW57331   4.254  12.519   0.589 -0.1003  0.1058  0.5073
16739SOL    HW157332   4.341  12.554   0.609  0.4089 -1.0375  0.3760
16739SOL    HW257333   4.259  12.427   0.614 -1.7952  0.3738  2.0164
16740SOL     OW57334   8.676   5.029   4.618 -0.0594  0.0674 -0.1066
16740SOL    HW157335   8.622   5.090   4.568 -0.0070  0.7044  0.5925
16740SOL    HW257336   8.620   5.003   4.692 -0.1117 -0.8040 -0.4417
16741SOL     OW57337   3.471  10.851   1.014  0.6089  0.2271  0.8401
16741SOL    HW157338   3.457  10.939   0.980 -1.1054  0.5683  2.2616
16741SOL    HW257339   3.532  10.863   1.087 -0.6161  0.4952  1.8686
16742SOL     OW57340   6.715   8.839   9.288  0.6419 -0.1108  0.3631
16742SOL    HW157341   6.774   8.774   9.249  0.2454 -0.8443  0.9641
16742SOL    HW257342   6.695   8.899   9.216  0.5228 -1.0140 -0.3746
16743SOL     OW57343   1.576   9.740  10.544 -0.4000 -0.4198  0.5531
16743SOL    HW157344   1.564   9.762  10.452 -2.2439  1.2465  1.1263
16743SOL    HW257345   1.571   9.824  10.590  1.9721 -1.0117  2.1046
16744SOL     OW57346   8.531   6.404   7.757  0.1258 -0.1643  0.1267
16744SOL    HW157347   8.454   6.391   7.701  0.9706 -0.0892 -1.1113
16744SOL    HW257348   8.598   6.348   7.717  1.3302  1.3772 -0.1130
16745SOL     OW57349   6.528   1.611   8.690 -0.1702  0.8968  0.0405
16745SOL    HW157350   6.475   1.538   8.657  2.1249 -0.7209 -0.2724
16745SOL    HW257351   6.599   1.569   8.738  1.1506  2.9459 -0.0165
16746SOL     OW57352  10.184   2.325  12.522 -0.4318  0.2295 -0.4766
16746SOL    HW157353  10.157   2.396  12.463 -1.1286  2.7908  2.6257
16746SOL    HW257354  10.273   2.304  12.495 -0.2425  2.2358 -1.6290
16747SOL     OW57355  12.500   4.671   0.866 -0.0860 -0.1535 -0.1938
16747SOL    HW157356  12.536   4.686   0.953  1.1486 -1.3152 -0.4723
16747SOL    HW257357  12.474   4.758   0.835  1.2567  0.5350  0.5658
16748SOL     OW57358  11.490  12.205  10.122 -0.2058 -0.0142  0.7689
16748SOL    HW157359  11.522  12.178  10.036  0.4560  0.8492  0.7315
16748SOL    HW257360  11.482  12.300  10.117 -0.3314  0.0317  1.6010
16749SOL     OW57361  11.322   8.070   3.865 -0.2917  0.2852  0.1299
16749SOL    HW157362  11.410   8.068   3.827 -0.5309  0.1646 -0.4401
16749SOL    HW257363  11.265   8.089   3.790 -1.0780 -2.8495 -0.1988
16750SOL     OW57364   1.305   1.780   0.445  0.2234 -0.2431  0.2098
16750SOL    HW157365   1.377   1.722   0.473  0.3529 -0.2467 -0.1221
16750SOL    HW257366   1.228   1.747   0.491  0.6496  0.4816  1.4801
16751SOL     OW57367   8.682   6.746   6.780 -0.7647  0.9091  0.3753
16751SOL    HW157368   8.735   6.759   6.702 -1.6571  0.6457 -0.2932
16751SOL    HW257369   8.599   6.789   6.760 -1.2687  0.1915  0.8656
16752SOL     OW57370   9.005   6.148   0.602  0.3683  0.0008  0.8617
16752SOL    HW157371   8.987   6.098   0.522  2.1035 -1.7098  1.4524
16752SOL    HW257372   9.087   6.194   0.583  0.8538 -0.5070  1.6627
16753SOL     OW57373   5.514   9.588   3.250  0.0713 -0.2095 -0.2855
16753SOL    HW157374   5.512   9.516   3.313  0.2465 -0.6826 -0.8127
16753SOL    HW257375   5.423   9.597   3.220  0.0830 -0.3439 -0.3620
16754SOL     OW57376   4.170   7.355   5.850  0.7211  0.0169 -0.1089
16754SOL    HW157377   4.221   7.431   5.878  0.9839  0.1205 -0.8518
16754SOL    HW257378   4.111   7.389   5.783 -0.1179 -0.1683  0.5184
16755SOL     OW57379   7.143   2.758  12.139 -0.0896  0.4122 -0.2508
16755SOL    HW157380   7.203   2.777  12.067  0.9663  0.5305  0.6238
16755SOL    HW257381   7.115   2.844  12.170  4.0119  0.8941  3.1453
16756SOL     OW57382  10.369   2.686   3.821  0.2416 -0.1079  0.4705
16756SOL    HW157383  10.428   2.755   3.850  0.3501 -0.1077  0.2524
16756SOL    HW257384  10.427   2.616   3.791  0.1503  0.3243 -0.7926
16757SOL     OW57385   6.655  11.819   1.336 -0.5462  0.0052 -0.1850
16757SOL    HW157386   6.686  11.741   1.290 -2.3700 -1.2432  0.5542
16757SOL    HW257387   6.603  11.866   1.271  1.9715  1.6290 -1.1593
16758SOL     OW57388   5.693  12.561   2.714 -0.2601  0.2170  0.1383
16758SOL    HW157389   5.732  12.619   2.780  1.3256  1.6310 -1.9293
16758SOL    HW257390   5.761  12.552   2.647 -1.1187 -2.6483 -0.5095
16759SOL     OW57391   0.342   6.676   3.317  0.0581  0.4001  0.7196
16759SOL    HW157392   0.401   6.723   3.376  0.6381  2.4711 -1.3801
16759SOL    HW257393   0.372   6.585   3.322  2.8872  1.2185  0.4308
16760SOL     OW57394   4.104   9.022   3.410  0.1043 -0.4588 -0.2052
16760SOL    HW157395   4.116   8.943   3.357  0.1840  0.3254 -1.3955
16760SOL    HW257396   4.066   8.991   3.492 -2.9066 -1.4678 -1.8035
16761SOL     OW57397   7.954   7.382   0.162  0.2405  0.2468 -0.2179
16761SOL    HW157398   7.972   7.351   0.250 -1.6243 -1.5043 -0.3804
16761SOL    HW257399   8.010   7.459   0.151 -0.2203  1.1243  2.8577
16762SOL     OW57400  12.735   6.704   2.347 -0.0270 -0.6674  0.1519
16762SOL    HW157401  12.647   6.706   2.309 -0.4791 -2.4043  1.0114
16762SOL    HW257402  12.733   6.632   2.410  1.5159  0.3278  1.4403
16763SOL     OW57403   4.364   1.228  10.737  0.1718 -0.0056  0.2102
16763SOL    HW157404   4.361   1.280  10.657  0.3643 -0.4527 -0.0902
16763SOL    HW257405   4.448   1.183  10.733  0.1179 -0.1466  0.5942
16764SOL     OW57406   6.982   8.967  10.476 -0.3911  0.0198  0.5214
16764SOL    HW157407   6.988   8.999  10.386  1.3847 -0.4202  0.4442
16764SOL    HW257408   6.963   9.046  10.527 -0.8400  0.3751 -0.1678
16765SOL     OW57409   9.683   8.650   0.500  0.6308  0.2239  0.3595
16765SOL    HW157410   9.604   8.622   0.547  0.3386  0.4378 -0.0004
16765SOL    HW257411   9.714   8.570   0.456 -1.0563  0.7175 -1.9136
16766SOL     OW57412   0.325   7.980   9.273  0.6425  0.7492 -0.1648
16766SOL    HW157413   0.304   7.895   9.313  1.0597  0.6589 -0.1378
16766SOL    HW257414   0.391   7.959   9.207  1.9012  1.2600  0.8880
16767SOL     OW57415   8.198   3.053   1.252  0.4556 -0.0143 -0.3219
16767SOL    HW157416   8.291   3.070   1.239  0.6523 -1.3731 -0.7703
16767SOL    HW257417   8.157   3.072   1.168  0.4696 -0.3093 -0.3980
16768SOL     OW57418   8.404   9.060   1.134 -0.0504 -0.1724  0.1333
16768SOL    HW157419   8.416   9.065   1.039  0.6437 -1.6784  0.1181
16768SOL    HW257420   8.443   8.977   1.159  1.3725  0.9924  2.0141
16769SOL     OW57421   6.118   0.797   9.458  0.0972 -0.0102 -0.3801
16769SOL    HW157422   6.053   0.731   9.484  1.6262 -0.8643  1.5629
16769SOL    HW257423   6.069   0.858   9.402 -3.0315  0.6347  2.6829
16770SOL     OW57424   4.340   0.654   6.150 -0.2682 -0.1391  0.0554
16770SOL    HW157425   4.260   0.661   6.098 -0.0946  1.0357 -0.0616
16770SOL    HW257426   4.407   0.629   6.087 -0.1263  0.9545 -0.2421
16771SOL     OW57427   7.533   7.372   8.004 -0.2803  0.2254  0.0352
16771SOL    HW157428   7.607   7.315   8.026  0.5211  1.3485  0.3189
16771SOL    HW257429   7.563   7.422   7.929 -0.2245  1.6397  0.9610
16772SOL     OW57430   9.345  12.376   8.578  0.3899 -0.2990 -0.2486
16772SOL    HW157431   9.311  12.465   8.573  2.3482  0.4254 -2.5359
16772SOL    HW257432   9.439  12.387   8.587  0.5378 -2.2057  1.1674
16773SOL     OW57433   9.165   2.016   5.354  0.9274 -0.0992 -0.0544
16773SOL    HW157434   9.094   2.050   5.299 -0.8864 -1.7856  1.0883
16773SOL    HW257435   9.173   1.924   5.329  1.0818 -0.5152  1.4130
16774SOL     OW57436   4.554   2.294   3.519 -0.6272  0.0595  0.0821
16774SOL    HW157437   4.567   2.324   3.429 -0.2709  1.5274  0.5909
16774SOL    HW257438   4.641   2.271   3.550 -0.6988 -0.0839  0.1793
16775SOL     OW57439  11.457  11.993   9.643  0.4032  0.0372 -0.2217
16775SOL    HW157440  11.440  11.899   9.641 -0.5911  0.2167 -0.7798
16775SOL    HW257441  11.551  12.001   9.627  0.6618 -0.8977  0.7301
16776SOL     OW57442  11.062  11.784   3.927  0.3343  0.1234  0.2322
16776SOL    HW157443  11.117  11.782   3.849  1.2782  0.4043  0.8748
16776SOL    HW257444  10.974  11.803   3.894  0.5348 -0.7757 -0.8513
16777SOL     OW57445   6.935   9.294  11.701 -0.3231 -0.0588 -0.6662
16777SOL    HW157446   6.892   9.373  11.734 -4.7545 -1.9693 -1.1792
16777SOL    HW257447   6.958   9.245  11.780  0.6535  0.8589 -0.3681
16778SOL     OW57448   2.612  12.186  10.577 -0.0038  0.6945  0.0248
16778SOL    HW157449   2.682  12.149  10.525 -0.0624  0.8542 -0.1684
16778SOL    HW257450   2.558  12.235  10.515 -1.0245 -0.4878 -0.0496
16779SOL     OW57451   0.400   7.356   4.522  0.5979 -0.0015 -0.1245
16779SOL    HW157452   0.410   7.436   4.573 -0.4221 -0.8558  1.5136
16779SOL    HW257453   0.410   7.285   4.585  1.5171 -1.1928 -1.5376
16780SOL     OW57454   6.670  10.890  12.633 -0.5318 -0.3486  0.2695
16780SOL    HW157455   6.716  10.869  12.552 -0.6297  1.4034 -0.2909
16780SOL    HW257456   6.599  10.826  12.638 -0.9632 -0.0549 -1.4193
16781SOL     OW57457  11.382  10.372   0.971  0.5873  0.1049 -0.1059
16781SOL    HW157458  11.302  10.424   0.970  0.7582  0.4392 -2.4365
16781SOL    HW257459  11.374  10.316   1.048 -1.0553  1.3746  0.6845
16782SOL     OW57460   2.880   9.564  10.118 -0.1389  0.3976  0.0716
16782SOL    HW157461   2.949   9.552  10.053 -1.2032  0.4907 -1.0994
16782SOL    HW257462   2.926   9.602  10.194  1.4302 -1.3114  0.0634
16783SOL     OW57463  10.386   8.880   3.419 -0.1598 -0.0667 -0.1648
16783SOL    HW157464  10.447   8.835   3.477  0.3761  2.3383  1.2603
16783SOL    HW257465  10.309   8.898   3.474 -1.6904 -1.9240 -1.5805
16784SOL     OW57466   5.123  12.319  10.309  0.2754 -0.8032 -0.1296
16784SOL    HW157467   5.068  12.392  10.280  0.2991 -0.2635  1.1070
16784SOL    HW257468   5.105  12.249  10.246  0.1666  0.2171 -1.2833
16785SOL     OW57469   2.735  12.881   4.951 -0.1256 -0.0360 -0.4242
16785SOL    HW157470   2.737  12.965   4.997 -2.9527 -0.2168  0.2268
16785SOL    HW257471   2.801  12.827   4.995  0.7128  1.3679  0.0841
16786SOL     OW57472   0.692   2.686   8.949 -0.1750 -0.2727  0.2425
16786SOL    HW157473   0.656   2.598   8.943 -0.4101 -0.0763 -2.9141
16786SOL    HW257474   0.616   2.744   8.945  0.1299  0.0756 -0.8861
16787SOL     OW57475   2.144   5.572   0.879 -0.0833 -0.7157  0.9069
16787SOL    HW157476   2.115   5.559   0.789 -1.1165 -1.2619  1.3034
16787SOL    HW257477   2.215   5.510   0.891  0.1143 -0.5792  0.4423
16788SOL     OW57478   3.606   8.480   6.805 -0.3300  0.5399 -0.1422
16788SOL    HW157479   3.631   8.419   6.735 -0.1684  0.8510 -0.3570
16788SOL    HW257480   3.630   8.434   6.886 -0.4480  0.2092 -0.2907
16789SOL     OW57481   1.554   3.062   1.421  0.4548 -0.0089  0.0653
16789SOL    HW157482   1.515   3.083   1.506  0.0576  0.3134 -0.1948
16789SOL    HW257483   1.645   3.090   1.429  0.3931  0.1136  0.3478
16790SOL     OW57484   3.908   1.785  11.881 -1.0606  0.5149 -0.1354
16790SOL    HW157485   3.990   1.825  11.910 -1.5948  1.5338  0.0047
16790SOL    HW257486   3.859   1.770  11.962 -1.1985  0.3330 -0.2527
16791SOL     OW57487  11.778   3.168  11.996 -0.2829  0.3631 -0.3386
16791SOL    HW157488  11.835   3.245  12.008  0.0654 -0.2486  2.7404
16791SOL    HW257489  11.803   3.134  11.910  2.0999  1.6655 -0.2677
16792SOL     OW57490   6.588   3.471   5.698  0.4655 -0.3824 -0.1907
16792SOL    HW157491   6.632   3.549   5.730  0.7466 -0.1001 -1.2454
16792SOL    HW257492   6.630   3.398   5.744  0.6217  0.0334  0.3284
16793SOL     OW57493  10.961   5.347   3.769 -0.6165  0.7435 -0.3119
16793SOL    HW157494  11.012   5.273   3.736 -1.2670  1.4494 -3.2277
16793SOL    HW257495  10.980   5.350   3.863 -0.1391 -2.7200 -0.1786
16794SOL     OW57496   9.666   9.647   0.813 -0.1059 -0.1341 -0.3117
16794SOL    HW157497   9.604   9.588   0.769  1.3729  0.6987 -3.7849
16794SOL    HW257498   9.639   9.734   0.786  0.2519  0.5378  1.3923
16795SOL     OW57499   5.957  10.474   8.950 -0.4704  0.6177 -0.4427
16795SOL    HW157500   6.053  10.472   8.954 -0.4822 -2.3637  1.0114
16795SOL    HW257501   5.938  10.507   8.862  1.9844 -1.0781 -1.7445
16796SOL     OW57502   7.256   2.720   9.676 -0.0752  0.0581 -0.1120
16796SOL    HW157503   7.291   2.666   9.605 -0.1195  1.8456 -1.5689
16796SOL    HW257504   7.329   2.776   9.702  0.2913 -1.3130  2.1113
16797SOL     OW57505   5.188   6.471  10.583  0.3389 -0.2242  0.3513
16797SOL    HW157506   5.229   6.425  10.510 -0.2255 -2.0833  1.1518
16797SOL    HW257507   5.197   6.564  10.560  1.4472 -0.6979 -1.3662
16798SOL     OW57508   8.397   0.653  12.938 -0.2042  0.3576 -0.3680
16798SOL    HW157509   8.320   0.656  12.883 -0.9221  0.1300  0.5996
16798SOL    HW257510   8.460   0.599  12.889  0.1007  2.1319 -2.0571
16799SOL     OW57511   4.465   4.453   4.423  0.4478  0.4936 -0.4140
16799SOL    HW157512   4.386   4.406   4.396  0.1442  1.0755 -0.5506
16799SOL    HW257513   4.480   4.517   4.354  0.2987  1.2489  0.2460
16800SOL     OW57514   0.675  10.837   1.461  0.1808 -0.4546 -0.3823
16800SOL    HW157515   0.583  10.849   1.481  0.3267 -1.2252  0.8545
16800SOL    HW257516   0.678  10.757   1.409  0.1774 -0.5791 -0.1913
16801SOL     OW57517  10.988   4.192   5.216  0.2016  0.1340  1.1029
16801SOL    HW157518  10.946   4.124   5.164  0.2284  0.0202  1.2294
16801SOL    HW257519  10.917   4.252   5.238  0.6961  1.9534 -1.7545
16802SOL     OW57520   5.680   3.606   3.273 -0.4301 -0.7799 -0.3199
16802SOL    HW157521   5.602   3.656   3.247 -0.4749  0.9158  2.6090
16802SOL    HW257522   5.646   3.531   3.322 -0.2809 -0.0666  0.9165
16803SOL     OW57523   1.139  12.078   2.396  0.2472  0.2826 -0.1415
16803SOL    HW157524   1.098  12.160   2.424 -2.0571 -1.5646  2.4552
16803SOL    HW257525   1.219  12.072   2.449 -0.2834  0.2513  0.6747
16804SOL     OW57526   6.410   8.913   9.441 -0.3895 -0.1769 -0.0498
16804SOL    HW157527   6.467   8.941   9.368  0.2591 -1.8617 -0.2222
16804SOL    HW257528   6.460   8.935   9.519 -0.6862  0.7880 -0.1162
16805SOL     OW57529   0.575  12.590   9.284  0.4363  0.7747  0.1535
16805SOL    HW157530   0.510  12.544   9.336  0.9197 -0.0471  0.0463
16805SOL    HW257531   0.574  12.680   9.317 -2.0288  1.2771 -1.0387
16806SOL     OW57532  10.113  10.223   3.484 -0.5174  0.2275 -0.7827
16806SOL    HW157533  10.145  10.140   3.520  0.3271  0.2439 -1.4442
16806SOL    HW257534  10.193  10.271   3.462 -0.9928  0.4379 -2.1476
16807SOL     OW57535   0.337   6.280   0.494 -0.0508 -0.5502 -0.5403
16807SOL    HW157536   0.334   6.360   0.547  0.0532 -0.0886 -1.2182
16807SOL    HW257537   0.321   6.310   0.404 -1.2431 -1.4489 -0.6569
16808SOL     OW57538   7.397  12.587   5.753 -0.0180 -0.1629 -0.5237
16808SOL    HW157539   7.489  12.564   5.767 -0.7525 -2.5974  0.9715
16808SOL    HW257540   7.383  12.572   5.660  0.8093 -0.9882 -0.5362
16809SOL     OW57541  12.379   2.761  11.624 -0.0881  0.1663 -0.4321
16809SOL    HW157542  12.353   2.688  11.568 -0.0468  0.7822 -1.2691
16809SOL    HW257543  12.298   2.810  11.640 -0.2016 -0.3036  0.5070
16810SOL     OW57544  12.261   7.337   7.184  0.5080  0.2095  0.2144
16810SOL    HW157545  12.238   7.422   7.147  0.0723 -0.1500 -0.3559
16810SOL    HW257546  12.177   7.294   7.202  0.5973 -1.5298 -2.8364
16811SOL     OW57547  10.771   6.480  12.279  0.6365 -0.4529 -0.3891
16811SOL    HW157548  10.865   6.464  12.282  1.3665  3.0963  0.8625
16811SOL    HW257549  10.736   6.436  12.356  1.4038 -1.1621 -0.4375
16812SOL     OW57550   4.313   6.266   5.272 -0.0693 -0.2855 -0.1046
16812SOL    HW157551   4.398   6.302   5.247 -0.0839  0.4361  0.8329
16812SOL    HW257552   4.294   6.201   5.205  0.3308  0.9027 -1.4219
16813SOL     OW57553   1.901   3.432   0.679  0.0892 -0.1204 -0.9161
16813SOL    HW157554   1.914   3.399   0.590  0.3645 -0.1090 -0.8832
16813SOL    HW257555   1.810   3.462   0.681 -0.6041 -2.1290 -0.5391
16814SOL     OW57556  12.727  11.595   8.416 -0.0572 -0.1263 -0.5536
16814SOL    HW157557  12.736  11.506   8.384 -0.6899  0.4508 -2.4635
16814SOL    HW257558  12.801  11.607   8.476 -0.6161 -2.2750  0.6596
16815SOL     OW57559  10.618   0.524   6.039 -0.6503 -0.1571  0.6318
16815SOL    HW157560  10.568   0.443   6.052  0.4372 -1.0095 -0.2549
16815SOL    HW257561  10.561   0.579   5.985  0.0620 -1.8924 -2.0490
16816SOL     OW57562  12.650   7.171   7.386  0.0539 -0.0650  0.1754
16816SOL    HW157563  12.628   7.248   7.439 -3.8402 -0.2096 -0.9954
16816SOL    HW257564  12.656   7.204   7.297 -1.3367 -1.0329 -0.2950
16817SOL     OW57565   6.075   5.128   4.327  0.6140  0.3873 -0.0108
16817SOL    HW157566   6.024   5.191   4.277 -1.1263 -1.1622 -0.3117
16817SOL    HW257567   6.154   5.175   4.352  0.0829  2.1913 -1.5040
16818SOL     OW57568   4.584   9.740  10.557 -0.3040  0.4398  0.2958
16818SOL    HW157569   4.657   9.678  10.557 -0.6159  0.0693  0.1868
16818SOL    HW257570   4.625   9.825  10.541  0.3270  0.5146  2.1470
16819SOL     OW57571   4.497   0.655  10.035  0.2833  0.5553  0.1748
16819SOL    HW157572   4.450   0.707  10.101 -0.0887 -0.1913  0.5086
16819SOL    HW257573   4.428   0.603   9.993  0.6105  0.5578 -0.3709
16820SOL     OW57574   7.397  12.295   7.915 -0.0602 -0.1581 -0.2254
16820SOL    HW157575   7.467  12.315   7.853  0.4593 -1.1328  0.0338
16820SOL    HW257576   7.364  12.210   7.888  1.7242 -1.7491  2.1303
16821SOL     OW57577   3.403   0.804   7.088  0.1416  0.1231  0.1558
16821SOL    HW157578   3.330   0.834   7.142  1.9454  0.9326  2.2765
16821SOL    HW257579   3.423   0.716   7.121  0.7039  0.2739  0.2301
16822SOL     OW57580   2.244   7.643  11.444  0.0141 -0.7029 -0.0051
16822SOL    HW157581   2.275   7.675  11.529 -1.2637  0.9841 -0.1223
16822SOL    HW257582   2.150   7.627  11.457  0.1080 -1.9900 -0.6919
16823SOL     OW57583  12.108   9.078   7.201 -0.3691  0.2317  0.1496
16823SOL    HW157584  12.052   9.061   7.125  0.0083  0.6713 -0.2307
16823SOL    HW257585  12.117   8.993   7.244 -1.7091  0.2398  0.4858
16824SOL     OW57586   2.299   3.991   9.928 -0.4256 -0.0063 -1.0787
16824SOL    HW157587   2.344   3.914   9.961  1.5401  0.8764 -1.5714
16824SOL    HW257588   2.256   3.962   9.848  0.4921 -0.5549 -1.3882
16825SOL     OW57589   0.338   8.511  10.247  0.4518  0.1308 -0.0495
16825SOL    HW157590   0.364   8.593  10.289  0.4620 -0.6762  1.6143
16825SOL    HW257591   0.417   8.483  10.200  0.6030  0.8160 -0.2185
16826SOL     OW57592   0.352  11.294   7.321 -0.3109  0.0767  0.5057
16826SOL    HW157593   0.364  11.216   7.266 -0.8764  0.1526  0.2756
16826SOL    HW257594   0.306  11.262   7.398  1.7985 -0.3352  1.6860
16827SOL     OW57595   1.680   8.272   1.624  0.1379  0.4161  0.3696
16827SOL    HW157596   1.660   8.275   1.718  0.6258  1.4830  0.4596
16827SOL    HW257597   1.743   8.343   1.611  1.0264 -0.5126 -0.5498
16828SOL     OW57598   8.899   4.772   9.673  0.4910 -0.2600 -0.3328
16828SOL    HW157599   8.868   4.721   9.599 -0.2395 -0.4838  0.1207
16828SOL    HW257600   8.932   4.707   9.735 -1.7336 -0.3479  0.8597
16829SOL     OW57601   8.922   1.447   3.556 -0.1815 -0.6040 -0.2456
16829SOL    HW157602   8.917   1.356   3.527 -0.7920 -0.4990 -0.4990
16829SOL    HW257603   8.878   1.447   3.641 -0.7022 -0.4444 -0.5110
16830SOL     OW57604   7.484   1.222   4.855 -0.4731 -0.0146 -0.5714
16830SOL    HW157605   7.506   1.314   4.839  1.2143 -0.1898  0.4710
16830SOL    HW257606   7.481   1.215   4.951 -1.1243 -0.9414 -0.6469
16831SOL     OW57607  12.952   8.366   3.485 -0.2197  0.0473  0.6208
16831SOL    HW157608  13.024   8.391   3.427 -1.5701  1.3155 -0.5991
16831SOL    HW257609  12.955   8.428   3.557  0.2561 -0.2832  0.8911
16832SOL     OW57610   4.422   8.951   2.231  0.0721 -0.0221  0.6306
16832SOL    HW157611   4.429   9.030   2.284 -1.9436  0.4102  0.3241
16832SOL    HW257612   4.328   8.935   2.224  0.3738 -1.4334 -0.8194
16833SOL     OW57613   7.267  11.742   1.509  0.0988  0.1579 -0.2759
16833SOL    HW157614   7.188  11.780   1.471  0.9893  2.9319  0.4501
16833SOL    HW257615   7.313  11.703   1.435 -1.7995 -1.3464 -0.7322
16834SOL     OW57616   3.848   2.523   0.354 -1.3063  0.0749 -0.0225
16834SOL    HW157617   3.935   2.497   0.326 -1.2948  0.4341 -0.3247
16834SOL    HW257618   3.862   2.567   0.438 -1.3048 -0.6882  0.3883
16835SOL     OW57619   8.234  11.695  10.380  0.3015  0.8859  0.0436
16835SOL    HW157620   8.166  11.643  10.423 -0.1732  0.9994 -0.5617
16835SOL    HW257621   8.306  11.633  10.365 -0.6388  0.1117 -1.5743
16836SOL     OW57622   0.300   0.874   3.199 -0.1959  0.4008 -0.1040
16836SOL    HW157623   0.307   0.792   3.248 -0.1935 -0.5076 -1.5449
16836SOL    HW257624   0.212   0.906   3.218 -0.8705 -0.8973 -0.9157
16837SOL     OW57625   2.443  10.604  11.039  0.0125 -0.2204 -0.5334
16837SOL    HW157626   2.389  10.543  11.089  1.9136 -0.6942  1.0663
16837SOL    HW257627   2.419  10.691  11.073  0.0269 -0.4037 -0.0443
16838SOL     OW57628  12.397   5.691   6.481 -0.5631  0.0296  0.0628
16838SOL    HW157629  12.422   5.659   6.395  0.1243  0.2502  0.1701
16838SOL    HW257630  12.305   5.669   6.490 -0.2312 -1.5299 -0.0454
16839SOL     OW57631  11.085  12.712   4.575  0.0569 -0.5314  0.1134
16839SOL    HW157632  11.052  12.707   4.664 -0.1020 -0.4981  0.0570
16839SOL    HW257633  11.098  12.806   4.559 -1.1858 -0.4221 -0.3559
16840SOL     OW57634  10.581   8.493   1.760  0.0053 -0.5312  0.4482
16840SOL    HW157635  10.550   8.565   1.816  0.4044  0.4647 -0.5681
16840SOL    HW257636  10.504   8.466   1.711  0.4593  1.4048 -1.4905
16841SOL     OW57637  11.212   2.200  12.886 -0.0629 -0.2628 -0.1013
16841SOL    HW157638  11.133   2.250  12.863 -1.9710 -1.0038  3.9722
16841SOL    HW257639  11.187   2.108  12.876  0.5357 -0.5000  0.4761
16842SOL     OW57640  10.942   8.273   8.592  0.5124  0.5677 -0.2481
16842SOL    HW157641  10.904   8.295   8.508 -0.7467  0.5752  0.2981
16842SOL    HW257642  10.983   8.354   8.622  0.4195  0.7359 -0.5723
16843SOL     OW57643   3.310   2.827   2.797  0.2636 -0.2649 -0.0409
16843SOL    HW157644   3.353   2.910   2.777  0.1870 -0.1184  0.3757
16843SOL    HW257645   3.230   2.829   2.745  0.5214 -0.3171 -0.4396
16844SOL     OW57646   5.647   8.370   2.742 -0.1155 -0.8981 -0.2914
16844SOL    HW157647   5.741   8.383   2.752 -0.4188  0.5197  1.2356
16844SOL    HW257648   5.613   8.455   2.714 -1.0522 -1.0694  0.2426
16845SOL     OW57649   0.674  10.577   4.164 -0.5789 -0.0901  0.2919
16845SOL    HW157650   0.641  10.537   4.244 -2.3095  0.7975  0.0542
16845SOL    HW257651   0.765  10.601   4.185 -1.3325  1.1701  2.4172
16846SOL     OW57652   0.510   0.461   3.487 -0.0515  0.1197  0.1541
16846SOL    HW157653   0.484   0.465   3.395  2.1401  1.9991 -0.4699
16846SOL    HW257654   0.444   0.512   3.533 -2.0153 -2.0517 -0.0553
16847SOL     OW57655  11.576   1.030   6.382 -0.2719 -0.3124  0.2975
16847SOL    HW157656  11.571   0.946   6.427  0.8486 -1.8783 -2.2836
16847SOL    HW257657  11.542   1.012   6.294  1.2239  1.5804 -0.7350
16848SOL     OW57658   8.577   6.038   4.195  0.1107 -0.3278  0.1420
16848SOL    HW157659   8.511   5.992   4.144  0.6399 -0.3754 -0.5055
16848SOL    HW257660   8.530   6.065   4.275 -0.8360  0.1071 -0.5317
16849SOL     OW57661   1.127  10.030   9.865 -0.3650 -0.1285 -0.0691
16849SOL    HW157662   1.206  10.045   9.917  1.3511  1.7521 -2.9173
16849SOL    HW257663   1.076  10.111   9.875 -0.2981  0.0139 -0.7793
16850SOL     OW57664   4.610   5.263  11.024  0.0712 -0.0029 -0.2167
16850SOL    HW157665   4.638   5.240  11.113 -0.4719  0.2682  0.0307
16850SOL    HW257666   4.538   5.204  11.005 -0.4385  0.5689 -0.1039
16851SOL     OW57667   8.625  10.441   0.136  0.0343 -0.3148  0.3338
16851SOL    HW157668   8.712  10.478   0.123  0.1879 -1.0090 -0.8068
16851SOL    HW257669   8.626  10.360   0.085 -2.1716  1.0173 -2.0552
16852SOL     OW57670   6.194   5.460   3.730 -0.0315  0.1541 -0.1353
16852SOL    HW157671   6.235   5.415   3.657  0.1997  0.6282 -0.3057
16852SOL    HW257672   6.125   5.512   3.690  1.7801  2.5202 -0.4298
16853SOL     OW57673  12.660   0.564   3.436 -0.0582  0.3403  0.1812
16853SOL    HW157674  12.635   0.482   3.478 -1.5925 -0.2924 -1.8293
16853SOL    HW257675  12.583   0.620   3.444 -0.7089 -0.0856 -2.3771
16854SOL     OW57676   6.435   2.150   1.060  0.7669 -0.3205  0.3411
16854SOL    HW157677   6.407   2.175   1.148  1.6174 -0.2424  0.5977
16854SOL    HW257678   6.398   2.218   1.003  1.8175  0.7236  0.8588
16855SOL     OW57679   6.553   3.142   5.105  0.4412 -0.1542  0.3259
16855SOL    HW157680   6.471   3.192   5.099  1.0683  0.7991 -0.7427
16855SOL    HW257681   6.550   3.083   5.029  0.9951  0.3170 -0.0764
16856SOL     OW57682   2.889  10.947  12.719 -0.1152  0.3703 -0.0492
16856SOL    HW157683   2.858  11.034  12.697  0.9168  0.4110 -1.4643
16856SOL    HW257684   2.932  10.958  12.804 -1.4144  0.8653  0.5812
16857SOL     OW57685   4.770   1.419   3.445 -0.2868 -0.0089  0.6691
16857SOL    HW157686   4.759   1.355   3.374 -1.3853  1.1061 -0.2280
16857SOL    HW257687   4.813   1.371   3.515  0.1970 -1.3415 -0.5020
16858SOL     OW57688  11.539   7.277  10.473 -0.0673  0.4834  0.2505
16858SOL    HW157689  11.525   7.369  10.493  1.1580  0.9184 -0.7730
16858SOL    HW257690  11.451   7.238  10.476 -0.2434  0.7470  4.7864
16859SOL     OW57691   4.745   1.084   2.713  0.0996 -0.0806  0.8294
16859SOL    HW157692   4.681   1.127   2.769 -2.8429  0.2011 -2.4253
16859SOL    HW257693   4.742   0.992   2.740 -0.9423  0.0981  1.3926
16860SOL     OW57694  12.893   3.488   9.470 -0.4129 -0.3985 -0.6200
16860SOL    HW157695  12.923   3.455   9.555 -0.8469  0.0212 -0.2980
16860SOL    HW257696  12.885   3.582   9.483 -0.7783 -0.3712 -1.0366
16861SOL     OW57697   3.090  10.283  10.049  0.7034  0.2522  0.2797
16861SOL    HW157698   3.083  10.375  10.025  0.1928  0.2809  0.5187
16861SOL    HW257699   3.100  10.283  10.144 -1.4875  0.0121  0.5763
16862SOL     OW57700   3.205   8.988   2.698  0.5260  0.0898  0.0802
16862SOL    HW157701   3.133   8.978   2.636  0.5831  0.6217 -0.0743
16862SOL    HW257702   3.166   8.966   2.783  0.7158 -1.7395 -0.2488
16863SOL     OW57703  12.333   5.065   6.931  0.2998 -0.0309 -0.1551
16863SOL    HW157704  12.397   5.012   6.977 -2.1685 -1.6103  1.7340
16863SOL    HW257705  12.304   5.011   6.858  1.4067  0.9035 -1.3458
16864SOL     OW57706   9.042   3.151   8.973  0.4935 -0.3661 -0.0148
16864SOL    HW157707   8.960   3.197   8.986  0.3522 -0.3484 -0.9054
16864SOL    HW257708   9.049   3.141   8.878  1.2018 -0.9400  0.0894
16865SOL     OW57709   7.524   7.592  12.752 -0.6710  0.2075 -0.2429
16865SOL    HW157710   7.445   7.629  12.792 -1.0799  0.1120 -0.9495
16865SOL    HW257711   7.532   7.638  12.668  1.1397  1.6593  0.6368
16866SOL     OW57712  10.256   0.412   4.845  0.0853  0.4467 -0.2241
16866SOL    HW157713  10.285   0.322   4.859 -0.1632  0.0870 -1.8042
16866SOL    HW257714  10.313   0.465   4.901 -0.4757 -0.7551  1.5588
16867SOL     OW57715   7.594   4.859   8.837  0.2549  0.7475  0.0899
16867SOL    HW157716   7.650   4.796   8.883 -0.6194 -0.0619  0.0721
16867SOL    HW257717   7.630   4.863   8.748 -0.5217 -0.8101 -0.3201
16868SOL     OW57718  11.674   5.663   6.846 -0.3815 -0.6644  0.0636
16868SOL    HW157719  11.657   5.693   6.936 -0.2520 -1.9936  0.5478
16868SOL    HW257720  11.622   5.583   6.838  0.2572 -0.9980 -0.7714
16869SOL     OW57721   8.056  11.103   6.543 -0.5883 -0.3635  0.1180
16869SOL    HW157722   8.060  11.141   6.631  1.4618 -0.6618  0.2027
16869SOL    HW257723   7.964  11.111   6.518 -0.8789  1.4674  1.5263
16870SOL     OW57724   9.510   9.215  12.844 -0.4823  0.2219 -0.3533
16870SOL    HW157725   9.568   9.172  12.781 -0.4074  0.5908 -0.5406
16870SOL    HW257726   9.422   9.198  12.811 -0.5126 -0.7670  0.2047
16871SOL     OW57727   3.389  10.796   6.861 -0.1807  0.4762  0.1012
16871SOL    HW157728   3.363  10.759   6.777 -0.5109  0.1308  0.3546
16871SOL    HW257729   3.392  10.891   6.846 -0.1156  0.4050 -0.3301
16872SOL     OW57730   4.696   1.530   4.896  0.9794  0.2050 -0.5163
16872SOL    HW157731   4.651   1.452   4.862  1.2638 -0.1431 -0.1060
16872SOL    HW257732   4.626   1.591   4.919  0.6761 -0.5310  0.6001
16873SOL     OW57733   2.559   4.810   7.980 -0.2287 -0.4336 -0.5493
16873SOL    HW157734   2.469   4.818   8.010 -0.5720 -1.4670 -1.2428
16873SOL    HW257735   2.612   4.824   8.059 -0.7969  3.3946 -0.6604
16874SOL     OW57736   1.845   6.897   4.498  0.0935  0.1651  0.1383
16874SOL    HW157737   1.867   6.854   4.416 -0.3789 -0.9152  0.5469
16874SOL    HW257738   1.842   6.990   4.477  1.4063  0.0340 -0.7207
16875SOL     OW57739   7.588   9.119   2.076 -0.4778 -0.3809  0.7070
16875SOL    HW157740   7.538   9.083   2.003 -1.5123  0.0523  1.1775
16875SOL    HW257741   7.648   9.182   2.035 -0.0250 -1.1895  0.0975
16876SOL     OW57742  11.819   3.476   0.478  0.2002  0.3096 -0.2386
16876SOL    HW157743  11.871   3.491   0.399  0.6614 -1.0718 -0.2188
16876SOL    HW257744  11.835   3.384   0.500 -3.2705 -0.6142 -0.9810
16877SOL     OW57745   7.485   4.540   2.090  0.2016 -0.1504  0.5816
16877SOL    HW157746   7.470   4.583   2.175  0.8247 -0.4044  0.8206
16877SOL    HW257747   7.498   4.612   2.029  1.0011  0.0160  0.9371
16878SOL     OW57748   1.243   6.340   4.659 -0.1618 -0.1619 -0.4880
16878SOL    HW157749   1.329   6.354   4.697  0.1045  2.2871 -1.7797
16878SOL    HW257750   1.184   6.393   4.713 -0.3898  0.2716 -1.1415
16879SOL     OW57751  11.414   5.251   0.540 -0.1118  0.2502  0.6515
16879SOL    HW157752  11.426   5.160   0.566  0.2352  0.6614  1.9916
16879SOL    HW257753  11.494   5.273   0.492 -0.1245 -0.0968  0.4660
16880SOL     OW57754   0.614   9.059  10.891  0.1139 -0.2221 -0.0652
16880SOL    HW157755   0.526   9.097  10.890  0.9688  1.8870 -1.5184
16880SOL    HW257756   0.629   9.031  10.801  1.0329 -0.3097  0.1010
16881SOL     OW57757   2.420   5.760   8.148  0.6259 -0.3650  0.4423
16881SOL    HW157758   2.380   5.680   8.115 -0.8989 -0.1594  1.6625
16881SOL    HW257759   2.347   5.808   8.188  1.2225  2.2581 -1.3746
16882SOL     OW57760   4.247   0.272  11.195 -0.7679 -0.2559 -0.3466
16882SOL    HW157761   4.201   0.331  11.136 -0.4265 -0.6581 -1.0178
16882SOL    HW257762   4.261   0.192  11.145  1.7317  0.2626 -0.6170
16883SOL     OW57763   1.906   0.518  10.668 -0.0772 -0.5063 -0.2973
16883SOL    HW157764   1.977   0.472  10.713 -0.3548  0.1752  0.8900
16883SOL    HW257765   1.915   0.493  10.577  2.5774  0.6584 -0.4500
16884SOL     OW57766   8.729   1.751   8.822 -0.0776  0.1434  0.2529
16884SOL    HW157767   8.703   1.781   8.909 -2.6223  2.0317 -1.0117
16884SOL    HW257768   8.776   1.826   8.784 -2.2338  0.8315 -1.2333
16885SOL     OW57769   7.340   0.209  10.756 -0.1742  0.4459 -0.1571
16885SOL    HW157770   7.287   0.211  10.836 -1.6563 -1.0141 -1.0330
16885SOL    HW257771   7.388   0.126  10.763  0.2567  0.6745 -0.4372
16886SOL     OW57772   0.500   6.871   7.988  0.1212 -0.7852  0.2215
16886SOL    HW157773   0.527   6.960   8.008  2.4633 -0.5817 -2.9539
16886SOL    HW257774   0.415   6.880   7.944  0.1256 -0.1665  0.3435
16887SOL     OW57775   4.396   0.494   2.128 -0.0389 -0.3669  0.3757
16887SOL    HW157776   4.340   0.503   2.051  1.6013  0.5197 -0.7725
16887SOL    HW257777   4.483   0.518   2.097  0.6807 -0.0097  2.5126
16888SOL     OW57778   2.588  12.945  11.372  0.3923  0.0265 -0.0860
16888SOL    HW157779   2.658  12.997  11.411  0.9736  0.2333 -1.3593
16888SOL    HW257780   2.531  13.009  11.330  0.0190 -0.2283  0.0198
16889SOL     OW57781  12.087   9.852  10.156 -0.2468 -0.0076  0.0581
16889SOL    HW157782  11.997   9.879  10.173  0.8660  3.4152  1.4792
16889SOL    HW257783  12.132   9.863  10.240  1.9013  0.5205 -1.0587
16890SOL     OW57784   5.958   6.692  12.813  0.8585  0.1614  0.5734
16890SOL    HW157785   5.934   6.601  12.797  1.1402  0.4375 -1.6603
16890SOL    HW257786   5.878   6.732  12.847 -0.1285 -0.3165 -1.0702
16891SOL     OW57787  10.452   3.434   3.408  0.0075 -0.3967  0.1802
16891SOL    HW157788  10.363   3.447   3.376 -1.1840 -1.2796  2.8950
16891SOL    HW257789  10.463   3.339   3.412  1.4927 -0.3322 -1.0093
16892SOL     OW57790   0.934   1.870  10.308  0.5963  0.1092  0.0555
16892SOL    HW157791   0.967   1.790  10.347  0.2175  0.8980  2.1613
16892SOL    HW257792   0.982   1.880  10.226  0.8850 -2.0602 -0.0728
16893SOL     OW57793   2.262   8.445  12.683  0.0675 -0.0090  0.4868
16893SOL    HW157794   2.204   8.512  12.648  1.7129  1.5932  0.7056
16893SOL    HW257795   2.254   8.454  12.778  0.7818  0.3371  0.5188
16894SOL     OW57796   9.297   2.897   4.958 -0.6183  0.7661 -1.1468
16894SOL    HW157797   9.223   2.836   4.953  0.7000 -1.1656  0.9221
16894SOL    HW257798   9.305   2.917   5.052  0.8277  1.8151 -1.4482
16895SOL     OW57799   7.026   7.838   0.353 -0.3459 -0.5038 -0.0750
16895SOL    HW157800   6.953   7.826   0.412 -1.1651  0.1768 -0.9125
16895SOL    HW257801   7.072   7.915   0.387  0.9732 -1.8679  1.3902
16896SOL     OW57802   3.939   1.197   3.805  0.0063  0.1389 -0.2292
16896SOL    HW157803   3.952   1.168   3.895  3.0509 -1.0453 -0.9397
16896SOL    HW257804   3.899   1.122   3.761 -0.7425  0.4344 -0.0710
16897SOL     OW57805   1.594   1.277  10.884  0.6213  0.3913 -0.2850
16897SOL    HW157806   1.583   1.216  10.811 -0.1341 -1.2705  1.1359
16897SOL    HW257807   1.560   1.360  10.851 -2.3503 -0.9717 -1.0226
16898SOL     OW57808  12.729  11.991   2.614 -0.1741  0.1877 -0.6345
16898SOL    HW157809  12.729  12.005   2.519 -3.0781  0.8837 -0.6299
16898SOL    HW257810  12.743  12.077   2.652  2.3916 -0.2844 -0.3298
16899SOL     OW57811   9.696   7.982   7.163  0.1784 -0.0159  0.2810
16899SOL    HW157812   9.640   7.911   7.130  3.5013 -1.9905 -1.7306
16899SOL    HW257813   9.695   8.047   7.093 -0.5408  0.5869  0.8292
16900SOL     OW57814  12.199   2.777   4.431 -0.3072  0.2107  0.2774
16900SOL    HW157815  12.151   2.822   4.362 -0.2807  1.4340  1.0101
16900SOL    HW257816  12.145   2.789   4.509  0.0929 -0.3662  0.6500
16901SOL     OW57817   0.982   8.302   2.361 -0.1981 -0.0941  0.0560
16901SOL    HW157818   1.024   8.271   2.441 -1.6900 -0.2027  0.8301
16901SOL    HW257819   1.055   8.327   2.304  0.9564 -1.7653  0.7167
16902SOL     OW57820  10.936   3.113   7.881 -0.0697 -0.2061 -0.3662
16902SOL    HW157821  10.849   3.097   7.919 -0.1829  1.4108  0.1289
16902SOL    HW257822  10.962   3.198   7.916  1.8213 -0.7494 -0.3542
16903SOL     OW57823   0.173  12.426   5.661  0.4021 -0.1458 -0.3501
16903SOL    HW157824   0.224  12.502   5.632  2.2069 -0.7553  1.0541
16903SOL    HW257825   0.173  12.432   5.756  0.9548 -2.1354 -0.1918
16904SOL     OW57826   8.634  11.825   6.216 -0.5607  0.1811 -0.3109
16904SOL    HW157827   8.649  11.876   6.136  1.1470 -0.0211 -0.1570
16904SOL    HW257828   8.720  11.788   6.237 -1.1702 -0.4686  1.1485
16905SOL     OW57829  11.919   9.597  11.250  0.0584  0.4048 -0.3090
16905SOL    HW157830  11.951   9.683  11.223 -0.0255  0.7922  0.7429
16905SOL    HW257831  11.910   9.605  11.345 -2.5732  0.1195 -0.4591
16906SOL     OW57832  10.549  12.883   1.826 -0.2466 -0.6081 -0.0599
16906SOL    HW157833  10.644  12.873   1.823  0.1690  2.3072  0.0769
16906SOL    HW257834  10.522  12.886   1.734  0.3636  1.9610 -0.2443
16907SOL     OW57835   1.987  11.448   8.342 -0.3101 -0.2579  0.2551
16907SOL    HW157836   1.986  11.537   8.377  0.6857 -0.0309 -0.2509
16907SOL    HW257837   1.996  11.392   8.419  0.0935  0.1377  0.4984
16908SOL     OW57838   3.230  11.327   8.833 -0.5503 -0.2194  0.1333
16908SOL    HW157839   3.284  11.406   8.831 -1.4066  0.3804  0.0136
16908SOL    HW257840   3.220  11.303   8.741 -0.4682 -0.3424  0.1573
16909SOL     OW57841   3.156  12.472   3.972 -0.0194  0.0896 -0.2120
16909SOL    HW157842   3.200  12.550   3.938 -0.7818  0.0024 -1.4467
16909SOL    HW257843   3.066  12.480   3.942 -0.5592 -0.3620  1.2195
16910SOL     OW57844  11.356   9.673   3.272  0.4602 -0.0865  0.4033
16910SOL    HW157845  11.442   9.632   3.270  0.6828  0.3882 -1.0619
16910SOL    HW257846  11.323   9.663   3.182 -1.4859 -1.2295  1.1689
16911SOL     OW57847   2.054   2.304   8.322 -0.0096 -0.4795  0.1693
16911SOL    HW157848   2.022   2.356   8.248  1.2706  0.0082 -0.0667
16911SOL    HW257849   2.033   2.214   8.299 -0.6306 -0.2372 -0.2558
16912SOL     OW57850   4.205   5.898   4.668 -0.1177  0.3330 -0.2495
16912SOL    HW157851   4.129   5.856   4.708  0.7774 -0.7903  0.3334
16912SOL    HW257852   4.259   5.925   4.742  0.8449 -0.4119 -0.6558
16913SOL     OW57853   8.398   3.570   4.851  0.1512 -0.3258 -0.1998
16913SOL    HW157854   8.342   3.502   4.889  2.3264 -1.2333  1.5954
16913SOL    HW257855   8.400   3.638   4.918  1.0092 -0.2118 -0.3329
16914SOL     OW57856  11.865   5.453  11.495 -0.4998 -0.0878 -0.6977
16914SOL    HW157857  11.839   5.361  11.507  1.7673 -0.4521  2.5737
16914SOL    HW257858  11.932   5.450  11.427  0.3639 -1.0628  0.1608
16915SOL     OW57859  12.603   3.149  12.481 -0.0744 -0.1911 -0.2377
16915SOL    HW157860  12.608   3.123  12.573  5.5532  1.5744  0.3385
16915SOL    HW257861  12.627   3.070  12.433  0.2682 -0.2772  0.0702
16916SOL     OW57862  12.961   1.857   6.241  0.1771  0.1929  0.1933
16916SOL    HW157863  12.986   1.898   6.323  0.5007 -0.5588  0.4820
16916SOL    HW257864  12.920   1.927   6.190 -0.4180  0.5605  1.1571
16917SOL     OW57865  12.346   1.872   0.595 -0.4641 -0.3003 -0.0665
16917SOL    HW157866  12.303   1.842   0.675 -1.4928  0.6433 -0.2413
16917SOL    HW257867  12.438   1.854   0.609 -0.2869  1.9417  2.3226
16918SOL     OW57868   5.331   1.470  10.049  0.0690  0.4217  0.0727
16918SOL    HW157869   5.318   1.464  10.143 -0.7647 -1.2486 -0.1177
16918SOL    HW257870   5.243   1.464  10.011  0.2646  2.2159 -0.8173
16919SOL     OW57871  11.133  10.050   7.275  0.7577  0.8562  0.1451
16919SOL    HW157872  11.146  10.083   7.186 -0.8349 -0.4841 -0.6410
16919SOL    HW257873  11.046  10.082   7.301  1.1578  1.1522  1.1979
16920SOL     OW57874   2.714   7.982   4.968 -0.2413  0.2177  0.2046
16920SOL    HW157875   2.677   8.014   4.886  1.7193 -1.1674 -1.3241
16920SOL    HW257876   2.747   8.060   5.012  0.0088  0.8334 -1.0465
16921SOL     OW57877   8.259   2.316   5.581  0.4762  0.6672  0.0489
16921SOL    HW157878   8.265   2.365   5.499  0.8393 -0.0977 -0.3890
16921SOL    HW257879   8.183   2.259   5.569  0.3027  0.8212  0.3980
16922SOL     OW57880   9.611  11.417   4.222  0.5040  0.0049 -0.4004
16922SOL    HW157881   9.600  11.511   4.237  0.4446 -0.0416 -0.1509
16922SOL    HW257882   9.700  11.409   4.187  0.9886  0.0323  0.7683
16923SOL     OW57883  12.879   0.325   5.044 -0.0763  0.1341 -0.3200
16923SOL    HW157884  12.948   0.349   5.105 -0.0092  0.7581 -0.6356
16923SOL    HW257885  12.921   0.325   4.958 -0.8356  2.3154 -0.7625
16924SOL     OW57886   9.548   5.644   3.680 -0.7049 -0.1471  0.4486
16924SOL    HW157887   9.524   5.557   3.710  0.3981  0.3769  3.1971
16924SOL    HW257888   9.568   5.692   3.761  0.8914  1.9775 -1.0901
16925SOL     OW57889   1.494   1.497  12.260 -0.0267 -0.4310 -0.1900
16925SOL    HW157890   1.509   1.405  12.237 -0.1940 -0.5783  0.2765
16925SOL    HW257891   1.568   1.544  12.221  0.7966 -0.9390  0.7015
16926SOL     OW57892  12.223   9.596  11.618  0.1823  0.4504  0.5893
16926SOL    HW157893  12.201   9.536  11.689  0.0050 -0.6632 -0.3930
16926SOL    HW257894  12.193   9.682  11.650 -1.0695 -0.2257  1.3239
16927SOL     OW57895   7.704   9.612   6.137 -0.1886 -0.1381 -0.2410
16927SOL    HW157896   7.799   9.621   6.151 -0.1827 -1.0297  0.4249
16927SOL    HW257897   7.686   9.664   6.059  1.1591 -1.4049 -1.4602
16928SOL     OW57898   0.121  12.085   5.809  0.3676 -0.3602 -0.2740
16928SOL    HW157899   0.098  12.100   5.717 -2.2716 -1.7609  0.0567
16928SOL    HW257900   0.110  11.991   5.821 -0.0118 -0.1147  1.6440
16929SOL     OW57901  12.566  10.107   8.331 -0.4511  0.1286 -0.0967
16929SOL    HW157902  12.556  10.182   8.389 -0.2433 -0.5734  0.8795
16929SOL    HW257903  12.487  10.054   8.347 -0.3575 -0.1061 -0.4014
16930SOL     OW57904   1.988   0.777  12.956 -0.2017 -0.3131  0.1910
16930SOL    HW157905   1.961   0.841  12.891 -0.1363 -1.3271 -0.8715
16930SOL    HW257906   1.906   0.741  12.990 -0.2506 -1.0928 -0.6986
16931SOL     OW57907  11.397   4.295  12.063 -0.2579 -0.4668  0.0222
16931SOL    HW157908  11.404   4.321  12.155  5.1873  1.4516 -0.5431
16931SOL    HW257909  11.416   4.201  12.063  1.1360 -0.2178  0.8800
16932SOL     OW57910   9.900   4.632   1.460  0.0794 -0.1572  0.2421
16932SOL    HW157911   9.830   4.685   1.423  0.3050 -0.9833 -1.4471
16932SOL    HW257912   9.878   4.625   1.553 -0.8996  1.3776  0.1583
16933SOL     OW57913   6.174   7.912   8.318  0.2608 -0.5047 -0.1774
16933SOL    HW157914   6.143   8.002   8.306  0.2175 -0.2421  1.6320
16933SOL    HW257915   6.094   7.863   8.340  0.3308 -0.9486 -0.8715
16934SOL     OW57916  10.977   5.643   3.417 -0.1385  0.1830  0.0218
16934SOL    HW157917  10.970   5.679   3.329 -1.9388  0.3210  0.1791
16934SOL    HW257918  10.892   5.662   3.458 -0.6408 -2.8005  0.6405
16935SOL     OW57919   3.850   1.120   5.211  0.4296 -0.2734  0.0004
16935SOL    HW157920   3.760   1.098   5.237  0.8849 -1.0013  1.0536
16935SOL    HW257921   3.840   1.191   5.148 -1.0165 -1.8963 -1.7366
16936SOL     OW57922  10.542   2.121   8.284 -0.3243 -0.4400  0.3740
16936SOL    HW157923  10.540   2.183   8.357  2.5103 -0.2507  0.4093
16936SOL    HW257924  10.506   2.040   8.320  0.9777 -0.3393  2.0059
16937SOL     OW57925   7.285   0.760   8.787  0.4488  0.2333 -0.0480
16937SOL    HW157926   7.319   0.765   8.698 -0.7679  0.1827 -0.5447
16937SOL    HW257927   7.317   0.839   8.829  0.7895  0.4127 -0.6275
16938SOL     OW57928   5.478   5.210   5.929  0.1079 -0.0043  0.0834
16938SOL    HW157929   5.458   5.127   5.971 -0.8052  0.1461 -0.0474
16938SOL    HW257930   5.523   5.186   5.848  1.3193 -0.3106  0.8058
16939SOL     OW57931  12.114   6.685  12.042  0.3857 -0.4106  0.2629
16939SOL    HW157932  12.205   6.712  12.030  1.2016 -2.9579  0.0333
16939SOL    HW257933  12.103   6.679  12.137 -0.2561  1.9001  0.3878
16940SOL     OW57934   0.080   8.078  12.717 -0.4152  0.8098  0.1299
16940SOL    HW157935   0.026   8.076  12.638 -0.1640  1.9843 -0.0879
16940SOL    HW257936   0.166   8.108  12.687 -0.3852  1.5168  0.8782
16941SOL     OW57937  12.570   8.518   2.149  0.8952 -0.5899  0.1925
16941SOL    HW157938  12.565   8.435   2.196  1.0224 -0.4753  0.4108
16941SOL    HW257939  12.513   8.577   2.198  1.3788 -0.3452  0.4633
16942SOL     OW57940   6.413   3.076  10.692  0.4556  0.4144  0.2309
16942SOL    HW157941   6.381   3.166  10.701 -0.8174  0.0396 -0.3130
16942SOL    HW257942   6.335   3.022  10.699  1.2432 -0.6765  0.7866
16943SOL     OW57943   3.752   1.817  12.126 -0.3692  0.1115 -0.0602
16943SOL    HW157944   3.816   1.764  12.173 -1.6904 -1.8244 -0.3036
16943SOL    HW257945   3.673   1.812  12.179 -1.2451 -0.2954 -1.3332
16944SOL     OW57946   4.734   7.431   0.147  0.2177 -0.2275 -0.1200
16944SOL    HW157947   4.652   7.474   0.126  0.2708 -0.0997 -0.0683
16944SOL    HW257948   4.751   7.454   0.239  0.2204 -0.4004 -0.0765
16945SOL     OW57949  11.498   2.378   2.800  0.3142  0.5132  0.2724
16945SOL    HW157950  11.589   2.375   2.828 -0.0098  2.3437  1.7553
16945SOL    HW257951  11.462   2.455   2.845 -1.4150  1.0889 -1.8949
16946SOL     OW57952   8.513   8.429   4.735  0.3909  0.2152 -0.1667
16946SOL    HW157953   8.454   8.461   4.804  1.2853  0.0226  0.7045
16946SOL    HW257954   8.454   8.404   4.663 -0.4298  2.8242 -0.5278
16947SOL     OW57955   6.148   1.831   7.572 -0.3700 -0.5862 -0.2445
16947SOL    HW157956   6.132   1.925   7.586 -1.8336 -0.8867  0.3222
16947SOL    HW257957   6.214   1.828   7.503 -0.3767  0.8682 -0.3499
16948SOL     OW57958   5.887  11.250  12.898  0.3393 -0.5717 -0.1130
16948SOL    HW157959   5.969  11.299  12.887 -1.0744  1.6783 -1.7742
16948SOL    HW257960   5.826  11.292  12.836 -1.8205 -2.7287  0.3915
16949SOL     OW57961  12.759   9.494  11.743  0.7271  0.5657  0.4524
16949SOL    HW157962  12.768   9.572  11.797  1.9461  0.4308  0.4606
16949SOL    HW257963  12.833   9.439  11.768 -0.2037 -0.6703  0.5711
16950SOL     OW57964   5.124   4.464   5.003  0.0191  0.3261 -0.1900
16950SOL    HW157965   5.104   4.461   4.909 -1.2333 -1.7736  0.0859
16950SOL    HW257966   5.045   4.499   5.043  0.2153  0.3658  0.1633
16951SOL     OW57967   2.640  10.337   7.553 -0.4808  0.0571  0.5468
16951SOL    HW157968   2.583  10.368   7.624 -0.0657  2.3108 -0.0295
16951SOL    HW257969   2.715  10.297   7.599 -0.2063  1.4942  1.4371
16952SOL     OW57970   5.288   5.588  11.550  0.1491 -0.3779 -0.3631
16952SOL    HW157971   5.307   5.606  11.458 -1.1427 -1.1614 -0.8115
16952SOL    HW257972   5.255   5.498  11.550  0.0011 -0.3367  0.8534
16953SOL     OW57973   4.437   7.716   7.170 -0.2407 -0.4346 -0.0623
16953SOL    HW157974   4.406   7.765   7.094 -0.2890  0.3541  0.4615
16953SOL    HW257975   4.357   7.685   7.213 -0.2850  0.5533  0.5985
16954SOL     OW57976   5.161   6.118   1.956  0.0622  0.3442 -0.2297
16954SOL    HW157977   5.230   6.183   1.947 -0.6348  1.3000  0.9824
16954SOL    HW257978   5.204   6.042   1.995  0.2645  1.3380  1.6043
16955SOL     OW57979   9.623   0.931   4.940 -0.2019 -0.0019 -0.2428
16955SOL    HW157980   9.597   0.942   5.031  0.6163  0.8277 -0.0983
16955SOL    HW257981   9.646   0.839   4.933 -3.8663 -1.0696 -0.5966
16956SOL     OW57982  10.094  11.238   8.417 -0.0798  0.1169 -0.2158
16956SOL    HW157983  10.158  11.204   8.479  0.6636 -1.5000 -1.7716
16956SOL    HW257984  10.099  11.333   8.426  1.1668 -0.0408  1.0201
16957SOL     OW57985   8.479  10.423  12.112  0.1393  0.1068  0.3916
16957SOL    HW157986   8.448  10.456  12.196  0.5526 -0.6438  0.8510
16957SOL    HW257987   8.486  10.501  12.056  2.3961  1.0617  1.8361
16958SOL     OW57988   2.694   7.920   3.317  0.4675 -0.3255 -0.7258
16958SOL    HW157989   2.692   7.825   3.324  1.8706 -0.2473  1.8970
16958SOL    HW257990   2.787   7.942   3.307  0.0770  0.7643 -2.4828
16959SOL     OW57991   4.508   5.830   0.218 -0.3534 -1.2643  0.4080
16959SOL    HW157992   4.570   5.810   0.148  0.3870 -1.9097  1.2152
16959SOL    HW257993   4.515   5.755   0.278  0.2793  0.0112  2.0227
16960SOL     OW57994   7.574   2.296   3.362  0.0562  0.5208 -0.0624
16960SOL    HW157995   7.559   2.239   3.438  1.1841  1.9657  1.3010
16960SOL    HW257996   7.667   2.285   3.341  0.3430  1.9591  0.3431
16961SOL     OW57997   2.860  12.951  12.323  0.2372  0.1834 -0.0513
16961SOL    HW157998   2.817  12.875  12.284 -1.1436  0.2770  1.1881
16961SOL    HW257999   2.798  13.023  12.310  0.9367  0.8113 -0.0252
16962SOL     OW58000   6.787  12.534  12.808 -0.5581  0.1069 -0.7259
16962SOL    HW158001   6.807  12.511  12.899  1.6922 -3.9583 -2.0263
16962SOL    HW258002   6.692  12.522  12.801 -0.8270  0.8349  1.0970
16963SOL     OW58003  12.694   6.276   3.236 -0.7538 -0.4594 -0.3217
16963SOL    HW158004  12.682   6.364   3.273  0.7665 -0.2413 -0.2564
16963SOL    HW258005  12.676   6.216   3.308  1.0426 -0.0752  0.5099
16964SOL     OW58006  11.333  12.758   7.426  0.5318  0.3872 -0.0608
16964SOL    HW158007  11.275  12.723   7.494  0.2888  1.9079  0.5585
16964SOL    HW258008  11.401  12.692   7.417 -0.6093 -0.8570  0.0993
16965SOL     OW58009  12.683   8.840   7.214  0.0228 -0.0443  0.0303
16965SOL    HW158010  12.594   8.875   7.218 -0.4141 -1.1969  1.2994
16965SOL    HW258011  12.734   8.897   7.271 -0.0477  0.2035 -0.1511
16966SOL     OW58012   1.412   9.136   6.624 -0.0619 -0.6466 -0.1251
16966SOL    HW158013   1.325   9.097   6.612  0.5288 -2.0153 -0.1686
16966SOL    HW258014   1.395   9.220   6.667 -1.4718 -0.3811 -1.1288
16967SOL     OW58015  11.795   6.164   4.275  0.3538 -0.2940 -0.0135
16967SOL    HW158016  11.884   6.129   4.273  0.2245 -0.6854  0.7527
16967SOL    HW258017  11.790   6.219   4.196  0.4378 -2.2697 -1.4794
16968SOL     OW58018   6.348   8.104   0.452  0.7614 -0.1106 -0.3824
16968SOL    HW158019   6.400   8.154   0.390  1.9252 -0.4668  0.2731
16968SOL    HW258020   6.379   8.133   0.538 -0.3960 -0.0580  0.0341
16969SOL     OW58021   3.831   0.683   1.658  0.0686  0.5028  0.1423
16969SOL    HW158022   3.866   0.738   1.588 -0.6147 -0.4752 -0.9933
16969SOL    HW258023   3.797   0.745   1.722  1.4637  1.4317  0.0322
16970SOL     OW58024   4.367   2.998   0.187  0.7487 -0.1056 -0.2260
16970SOL    HW158025   4.388   2.981   0.095 -0.2031 -0.2146 -0.4348
16970SOL    HW258026   4.276   3.028   0.185  0.8407  0.2340  0.6466
16971SOL     OW58027   4.191   7.915   0.137 -0.4154  0.0685 -0.0771
16971SOL    HW158028   4.101   7.922   0.171 -0.6221 -0.6438 -0.4457
16971SOL    HW258029   4.181   7.864   0.056  0.6586 -2.8132  1.4382
16972SOL     OW58030   4.339   7.837   8.792 -0.0073 -0.2243  0.4247
16972SOL    HW158031   4.296   7.793   8.866  2.8806 -0.1775  2.2980
16972SOL    HW258032   4.336   7.774   8.721  0.3086 -1.7993  1.7465
16973SOL     OW58033   8.252   3.191   5.325  0.3920 -0.4595 -0.4454
16973SOL    HW158034   8.326   3.191   5.264  0.0851 -0.2754 -0.8213
16973SOL    HW258035   8.224   3.283   5.328 -0.3429 -0.6600 -0.9450
16974SOL     OW58036   8.712  10.323  10.546  0.6885  0.1561  0.2220
16974SOL    HW158037   8.636  10.294  10.596  0.5573  0.5450  0.2497
16974SOL    HW258038   8.760  10.380  10.606  0.7534  0.2855  0.0473
16975SOL     OW58039   1.996   8.247   0.073  0.3231 -0.5642 -0.1032
16975SOL    HW158040   1.965   8.329   0.036 -1.3699 -1.7513 -1.5004
16975SOL    HW258041   2.060   8.272   0.139  0.8450  1.8171 -1.4136
16976SOL     OW58042   4.512   7.465   5.708 -0.2385 -0.0958 -0.0788
16976SOL    HW158043   4.557   7.396   5.659 -0.9018  0.1051 -0.9812
16976SOL    HW258044   4.427   7.473   5.666 -0.0946  1.4117 -0.1190
16977SOL     OW58045   5.173   8.246   5.524  0.5696 -0.5879 -0.1632
16977SOL    HW158046   5.113   8.180   5.558 -0.4360  0.2046 -0.3817
16977SOL    HW258047   5.202   8.294   5.602  0.7288 -0.8036 -0.0876
16978SOL     OW58048  11.032   6.265  11.788  0.4228  0.3091 -0.6895
16978SOL    HW158049  10.989   6.238  11.868 -2.7652 -1.1052 -2.6893
16978SOL    HW258050  11.008   6.357  11.778  1.6842  0.7899  0.3972
16979SOL     OW58051   5.114   6.844   7.765  0.4344 -0.1872 -0.2220
16979SOL    HW158052   5.175   6.887   7.706  0.2143  1.7733  0.9012
16979SOL    HW258053   5.166   6.777   7.809  1.4033  0.4786 -0.3408
16980SOL     OW58054   1.929  12.217   4.729  0.4700  0.4527 -0.1005
16980SOL    HW158055   1.898  12.148   4.671 -1.0344  0.0914  1.0754
16980SOL    HW258056   2.011  12.184   4.765 -0.5550 -1.0483  0.9539
16981SOL     OW58057   9.842  10.050   9.491 -0.3599  0.0627  0.1353
16981SOL    HW158058   9.801  10.094   9.566 -0.3993  2.2554 -1.0849
16981SOL    HW258059   9.930  10.085   9.487 -0.2708 -0.2269 -0.7011
16982SOL     OW58060   1.301  10.339   4.588 -0.4066  0.6642 -0.1463
16982SOL    HW158061   1.262  10.310   4.670 -0.3242  0.6306 -0.1180
16982SOL    HW258062   1.229  10.376   4.538 -0.2556  1.7023  0.3860
16983SOL     OW58063   8.361   4.582   0.123 -0.1827 -0.3491  0.0228
16983SOL    HW158064   8.453   4.554   0.129 -0.4026 -0.7966  1.8988
16983SOL    HW258065   8.363   4.674   0.149 -0.1528 -0.0642 -0.9495
16984SOL     OW58066  11.870   1.553  12.238 -0.1399  0.3022 -0.3976
16984SOL    HW158067  11.825   1.582  12.318  0.1396  2.2442 -0.8974
16984SOL    HW258068  11.803   1.507  12.188 -0.7881  0.5900  0.1808
16985SOL     OW58069   8.699  12.538   5.489  0.1034  0.2653  0.2703
16985SOL    HW158070   8.607  12.515   5.483  0.0176  0.2822  1.3323
16985SOL    HW258071   8.716  12.544   5.583  1.0855  0.6540  0.0782
16986SOL     OW58072   1.726   6.791   3.398  0.3393 -0.4693  0.6517
16986SOL    HW158073   1.688   6.813   3.313  0.7548 -3.1942 -0.3265
16986SOL    HW258074   1.806   6.843   3.403 -0.7991  1.3808  0.4041
16987SOL     OW58075   3.783   2.650   6.492 -0.1541  0.4573 -0.1182
16987SOL    HW158076   3.847   2.635   6.561  0.2492 -0.5619 -0.6915
16987SOL    HW258077   3.816   2.600   6.417 -1.8598 -0.5033 -0.2828
16988SOL     OW58078   4.633  12.679   6.121 -0.7494 -0.2989  0.2760
16988SOL    HW158079   4.654  12.675   6.027  0.2735 -2.7148  0.5378
16988SOL    HW258080   4.648  12.771   6.145  1.7453 -0.1885 -1.3410
16989SOL     OW58081  11.745   9.383  10.794 -0.1271  0.1336  0.0674
16989SOL    HW158082  11.778   9.444  10.860 -0.0038  0.1195  0.0185
16989SOL    HW258083  11.676   9.432  10.749 -0.0241  0.2383  0.0244
16990SOL     OW58084   3.662   0.265  11.057 -0.0968 -0.0333 -0.2490
16990SOL    HW158085   3.698   0.337  11.109  0.8238 -0.2426 -0.5930
16990SOL    HW258086   3.738   0.220  11.021 -0.6734 -0.9568 -0.3498
16991SOL     OW58087   1.108   3.610  11.377 -0.5624 -0.3192 -0.5827
16991SOL    HW158088   1.093   3.572  11.291 -0.3951  0.2990 -0.8896
16991SOL    HW258089   1.130   3.535  11.433  0.5563 -0.5963 -1.3510
16992SOL     OW58090   8.832   1.184   7.888  0.0636  0.1004 -0.2363
16992SOL    HW158091   8.835   1.090   7.870 -0.1971  0.0556 -0.0483
16992SOL    HW258092   8.908   1.220   7.842 -0.2210 -0.1097 -0.8753
16993SOL     OW58093   8.296   9.306   8.028 -0.8264  0.0469 -0.4113
16993SOL    HW158094   8.375   9.322   8.080 -1.0463  1.5723 -0.5147
16993SOL    HW258095   8.304   9.215   8.000  1.1819  0.3308 -0.8821
16994SOL     OW58096  10.720   2.892   4.805  0.2845  0.0814  0.1791
16994SOL    HW158097  10.779   2.880   4.731 -1.2647  0.0830 -1.1185
16994SOL    HW258098  10.663   2.964   4.778 -1.2864 -0.9153  0.6894
16995SOL     OW58099   3.025  10.175   1.157  0.2588 -0.1401  0.5424
16995SOL    HW158100   3.024  10.268   1.137  0.9214 -0.1415  0.4591
16995SOL    HW258101   2.935  10.154   1.182  0.3987  0.8065  1.9153
16996SOL     OW58102   8.938   5.385   4.975  0.0089  0.0471 -0.2704
16996SOL    HW158103   8.934   5.320   4.905 -1.4287 -0.9778  0.7260
16996SOL    HW258104   8.870   5.360   5.037  2.7526 -0.5586  2.8052
16997SOL     OW58105   4.599   3.332   7.185  0.0788 -1.0627 -0.0297
16997SOL    HW158106   4.587   3.409   7.130 -1.3371 -1.3036 -0.1060
16997SOL    HW258107   4.691   3.334   7.210  0.9037 -1.2059 -2.7690
16998SOL     OW58108   0.535   3.172   3.371  0.1975 -0.1230 -0.6128
16998SOL    HW158109   0.485   3.211   3.299 -1.3656 -0.9477 -0.0278
16998SOL    HW258110   0.524   3.234   3.444 -0.1962 -0.4124 -0.4184
16999SOL     OW58111   1.398   0.390   0.421 -0.1813  0.0756 -0.5196
16999SOL    HW158112   1.309   0.358   0.432  0.2288 -1.0710 -0.4316
16999SOL    HW258113   1.388   0.475   0.378 -1.3674  0.5016  0.5520
17000SOL     OW58114   1.105   0.844   8.101  0.0937 -0.3348 -0.1471
17000SOL    HW158115   1.152   0.783   8.159 -1.3945  0.3417  1.9079
17000SOL    HW258116   1.019   0.803   8.088 -0.0740  0.1937 -0.7594
17001SOL     OW58117   2.710   5.569   1.924  0.1937 -0.0461  0.2819
17001SOL    HW158118   2.765   5.576   1.846  0.4231  0.0272  0.4493
17001SOL    HW258119   2.715   5.477   1.949 -2.0222 -0.6710 -1.3378
17002SOL     OW58120   5.136  12.735   9.294 -0.1114  0.2710 -0.7593
17002SOL    HW158121   5.135  12.806   9.358  0.8193 -0.3902  0.0217
17002SOL    HW258122   5.216  12.749   9.243 -0.4674  0.3774 -1.2924
17003SOL     OW58123   5.381   0.526   1.270 -0.3220  0.1082 -0.7755
17003SOL    HW158124   5.396   0.470   1.346 -2.7649  2.2760  1.5576
17003SOL    HW258125   5.468   0.550   1.240  0.7496 -3.1611 -0.5905
17004SOL     OW58126   5.703  10.271   5.376 -0.5763 -0.2638 -0.2088
17004SOL    HW158127   5.731  10.235   5.460 -0.8441 -2.3637 -0.9562
17004SOL    HW258128   5.609  10.286   5.385 -0.5101  0.0142  0.0246
17005SOL     OW58129  11.504   8.530   2.246  0.0994  0.3380  0.1989
17005SOL    HW158130  11.450   8.538   2.324  0.4690  1.2468  0.3738
17005SOL    HW258131  11.569   8.599   2.255 -1.7525  2.6486 -2.4076
17006SOL     OW58132  10.136   4.232  11.011  0.1689 -0.0070 -0.2385
17006SOL    HW158133  10.163   4.163  10.951 -0.6445  0.2765 -0.9416
17006SOL    HW258134  10.044   4.214  11.030 -0.1350  1.0305 -0.6526
17007SOL     OW58135  11.855  11.927   8.523  0.5653  0.2836  0.1095
17007SOL    HW158136  11.777  11.909   8.575  0.0891  1.7964 -0.0497
17007SOL    HW258137  11.895  12.002   8.566  0.8582  0.7480 -0.9662
17008SOL     OW58138   8.855   4.230   3.204  0.8577 -0.4088  0.5373
17008SOL    HW158139   8.791   4.279   3.152  0.0556 -1.3755  0.5845
17008SOL    HW258140   8.938   4.244   3.158  0.3442 -0.3989 -0.4187
17009SOL     OW58141   7.053   2.615  10.166 -0.1883  0.1928  0.3022
17009SOL    HW158142   7.109   2.581  10.236  0.7432 -1.2640 -1.0887
17009SOL    HW258143   7.029   2.539  10.114 -0.2290  1.2984 -1.3998
17010SOL     OW58144   4.596   7.336  11.091  0.5988 -0.4171 -0.3659
17010SOL    HW158145   4.635   7.358  11.176  0.1067 -0.4514 -0.1277
17010SOL    HW258146   4.582   7.420  11.048 -1.3381 -0.1970  0.5696
17011SOL     OW58147   8.875  12.475   4.773 -0.2233 -0.0293  0.3964
17011SOL    HW158148   8.916  12.461   4.858  1.3265  2.2506  0.1146
17011SOL    HW258149   8.803  12.412   4.770  1.7064 -2.4595  1.9727
17012SOL     OW58150   5.767  10.194   9.771  0.7216 -0.1082  0.0869
17012SOL    HW158151   5.759  10.100   9.788  1.2365 -0.4878 -1.5746
17012SOL    HW258152   5.860  10.212   9.784  0.6961  0.0794 -0.0025
17013SOL     OW58153  11.332   4.801   1.585  0.5639 -0.9927 -0.0193
17013SOL    HW158154  11.252   4.803   1.638  0.1420 -1.6972 -0.6052
17013SOL    HW258155  11.315   4.734   1.518  0.1099  1.4371 -2.5295
17014SOL     OW58156   8.895   7.858   1.768  0.1059  0.6723  0.5185
17014SOL    HW158157   8.886   7.936   1.714 -1.2898 -1.0165 -1.9368
17014SOL    HW258158   8.805   7.827   1.780  0.6846 -1.5682 -0.3205
17015SOL     OW58159   7.353   7.292   2.081 -0.2682  0.1430  0.2909
17015SOL    HW158160   7.365   7.199   2.062  1.1180  0.5596 -1.1256
17015SOL    HW258161   7.420   7.336   2.028 -0.4639  1.9091  1.4160
17016SOL     OW58162  12.091   9.923   9.396 -0.4547 -0.3701 -0.2031
17016SOL    HW158163  12.140   9.879   9.465 -0.2100 -0.5264 -0.4750
17016SOL    HW258164  12.004   9.938   9.434 -0.1911 -0.0599  0.2925
17017SOL     OW58165  12.357  11.312   6.216 -0.3122  0.1328 -0.3576
17017SOL    HW158166  12.324  11.227   6.189  0.6203 -0.0635 -0.9242
17017SOL    HW258167  12.419  11.293   6.287  0.1959  0.2932 -0.7507
17018SOL     OW58168   4.319   9.937   9.754 -0.4629 -0.3236 -0.3176
17018SOL    HW158169   4.330   9.878   9.828  1.2135 -0.5027 -0.6750
17018SOL    HW258170   4.381   9.905   9.688  1.3758  2.4473 -0.1085
17019SOL     OW58171  11.736   1.915  10.253 -0.0365  0.2022 -0.3881
17019SOL    HW158172  11.776   1.910  10.340 -1.3600  1.9709  0.3852
17019SOL    HW258173  11.789   1.979  10.206  1.3695 -1.5640 -1.3525
17020SOL     OW58174  12.647   0.009   7.743  0.2244  0.2580 -0.8021
17020SOL    HW158175  12.553   0.019   7.759  0.0829  0.2696 -1.6363
17020SOL    HW258176  12.655  -0.004   7.649  1.0740  0.3781 -0.7565
17021SOL     OW58177   3.590  10.293   3.667  0.4055  0.1475  0.1168
17021SOL    HW158178   3.553  10.368   3.620 -1.2550 -1.3762 -1.1750
17021SOL    HW258179   3.677  10.281   3.628 -0.0883  0.2341 -1.0494
17022SOL     OW58180   6.627   9.367   6.875 -0.8493 -0.0565 -0.2863
17022SOL    HW158181   6.681   9.290   6.893  1.4140  1.9995  2.7673
17022SOL    HW258182   6.557   9.363   6.941  0.1878  1.1968  0.9470
17023SOL     OW58183  11.279   7.026   0.483 -0.6106  0.0547 -0.5993
17023SOL    HW158184  11.184   7.024   0.473 -0.3562 -0.3377 -4.3038
17023SOL    HW258185  11.311   7.069   0.403  2.3480 -0.0389  0.3992
17024SOL     OW58186   9.548   3.707   1.992  0.2918 -0.0044  0.2547
17024SOL    HW158187   9.504   3.792   1.983  2.2724  0.9640 -1.0794
17024SOL    HW258188   9.614   3.721   2.059  2.9872  0.6903 -2.3535
17025SOL     OW58189   5.329   0.042   3.428  0.3274  0.2831 -0.3299
17025SOL    HW158190   5.285   0.118   3.391 -0.3025  0.4457  0.7427
17025SOL    HW258191   5.422   0.063   3.420  0.1905  0.6578 -1.0775
17026SOL     OW58192   7.798   8.813   4.878  0.2960 -0.3109 -0.0108
17026SOL    HW158193   7.865   8.792   4.813  0.9229 -0.7754  0.7586
17026SOL    HW258194   7.766   8.899   4.853 -0.6149 -1.1243 -1.8515
17027SOL     OW58195   5.514   4.573   4.738  0.2108 -0.3245 -0.2912
17027SOL    HW158196   5.443   4.514   4.764  1.9173 -2.4746 -0.2622
17027SOL    HW258197   5.544   4.539   4.654  0.4687  1.2970 -0.8983
17028SOL     OW58198  10.997   1.184   1.036 -0.3143 -0.3785  0.5294
17028SOL    HW158199  10.925   1.133   0.997 -0.4418 -0.1728  0.4934
17028SOL    HW258200  11.058   1.118   1.068 -0.5347 -0.5586  0.5878
17029SOL     OW58201   4.915   4.857  11.778  0.5138  0.1790  0.3519
17029SOL    HW158202   4.852   4.808  11.831  2.0852 -1.4552  0.8150
17029SOL    HW258203   4.861   4.907  11.717 -1.2335 -0.9828  0.8686
17030SOL     OW58204   0.099   7.069   2.249 -0.0986  0.2871  0.0936
17030SOL    HW158205   0.061   7.142   2.299  0.0819 -0.8614  1.9971
17030SOL    HW258206   0.028   7.005   2.243 -0.2695  0.5820 -1.6122
17031SOL     OW58207   3.707  12.917   2.946 -0.0091  0.1065 -0.2717
17031SOL    HW158208   3.762  12.878   2.878 -0.1543  0.4053 -0.5626
17031SOL    HW258209   3.683  12.843   3.002  1.8859  0.1885  0.7160
17032SOL     OW58210   6.771   1.856   0.009 -0.4528 -0.2316 -0.4941
17032SOL    HW158211   6.697   1.910   0.039  0.5372  0.3774  0.9220
17032SOL    HW258212   6.740   1.820  -0.074 -1.5212  1.7895 -1.0697
17033SOL     OW58213   8.462   0.316   8.557 -0.5467 -0.3641 -0.0098
17033SOL    HW158214   8.526   0.343   8.492  2.2719 -2.4087  1.6847
17033SOL    HW258215   8.438   0.396   8.603  0.5370  0.4997 -0.9091
17034SOL     OW58216  11.557   6.161   7.863 -0.1286 -0.0180  0.5277
17034SOL    HW158217  11.569   6.231   7.798 -1.2304 -1.5111 -1.3751
17034SOL    HW258218  11.474   6.120   7.839  0.5077 -2.0322  1.5543
17035SOL     OW58219   4.683  10.386   8.108 -0.0209  0.2747  0.0044
17035SOL    HW158220   4.764  10.366   8.155 -0.0045  1.1473  0.3582
17035SOL    HW258221   4.635  10.304   8.108  0.5281 -0.0577  0.4557
17036SOL     OW58222   3.589   4.918   8.374 -0.2081  0.0002  0.0022
17036SOL    HW158223   3.529   4.850   8.407  1.2652 -0.7000  1.3582
17036SOL    HW258224   3.665   4.869   8.342  0.1031  0.9316 -0.7273
17037SOL     OW58225   7.249   2.138   9.014 -0.0509 -0.5012 -0.2295
17037SOL    HW158226   7.191   2.173   9.082 -1.5351  0.9593 -2.1228
17037SOL    HW258227   7.210   2.054   8.989  0.4533 -1.0024  0.6393
17038SOL     OW58228   8.412   1.556  11.843  0.0186  0.7551  0.6194
17038SOL    HW158229   8.353   1.612  11.893 -0.1639  2.5707 -1.4975
17038SOL    HW258230   8.479   1.615  11.809 -0.2255 -0.2342 -1.7807
17039SOL     OW58231   4.841   5.552   4.671  0.6692 -0.1524  0.0288
17039SOL    HW158232   4.913   5.592   4.623 -0.7996  1.9278 -0.6015
17039SOL    HW258233   4.788   5.626   4.700  0.4431 -1.4306  3.2287
17040SOL     OW58234   6.753   0.902  12.216  0.4597 -0.1761  0.0510
17040SOL    HW158235   6.777   0.967  12.282  0.3517  1.1649 -1.1824
17040SOL    HW258236   6.723   0.954  12.141 -0.5035 -1.6772 -0.6463
17041SOL     OW58237   0.230  11.418   0.880 -0.3577 -0.5311 -0.1094
17041SOL    HW158238   0.135  11.407   0.873 -0.3731 -0.3938 -0.1108
17041SOL    HW258239   0.251  11.388   0.968 -0.4634 -0.1190  0.0540
17042SOL     OW58240   7.392   8.991  11.066  0.0130  0.1587  0.0962
17042SOL    HW158241   7.320   9.054  11.069  0.2580  0.4212  0.8956
17042SOL    HW258242   7.357   8.917  11.017 -1.1759 -0.1430  1.3070
17043SOL     OW58243   9.707   4.318   1.893 -0.2581  0.2434 -0.0219
17043SOL    HW158244   9.634   4.256   1.895 -0.9702  1.0715  0.1587
17043SOL    HW258245   9.767   4.281   1.828 -0.9137 -0.3649 -0.3085
17044SOL     OW58246   2.308   2.081   1.725 -0.0561  0.3549 -0.3483
17044SOL    HW158247   2.239   2.147   1.711  0.3520  0.5552 -1.4931
17044SOL    HW258248   2.274   2.001   1.685 -0.2303  0.0578  0.3763
17045SOL     OW58249  10.690   3.854  12.953 -0.0702  0.0257  0.0895
17045SOL    HW158250  10.752   3.924  12.972 -0.9486  0.4261  1.7224
17045SOL    HW258251  10.627   3.858  13.025 -0.7232 -1.7964 -0.3214
17046SOL     OW58252   0.265   5.236   1.261 -0.4947 -0.3565 -0.0620
17046SOL    HW158253   0.297   5.165   1.316  0.7361 -0.6982 -1.1723
17046SOL    HW258254   0.337   5.298   1.258 -1.5301  0.9588  0.8456
17047SOL     OW58255   6.965   1.776   1.482  0.5756 -0.1128  0.0562
17047SOL    HW158256   6.900   1.846   1.474  0.9387  0.0831 -1.7003
17047SOL    HW258257   6.916   1.695   1.474  0.1604 -0.0956  2.0271
17048SOL     OW58258   3.248   1.589   9.144  0.2840 -0.7365  0.4182
17048SOL    HW158259   3.223   1.674   9.180 -1.3530  0.2395 -2.6469
17048SOL    HW258260   3.343   1.593   9.138  0.2240  1.0448  0.0714
17049SOL     OW58261  12.624   4.301   9.601 -0.5750 -0.2290  0.8800
17049SOL    HW158262  12.705   4.313   9.552 -0.7507 -0.6176  0.4788
17049SOL    HW258263  12.652   4.274   9.689 -0.2669 -1.4309  0.4400
17050SOL     OW58264   1.080   9.165   9.898 -0.3847  0.0389  0.4531
17050SOL    HW158265   1.011   9.110   9.935 -1.0218  0.4529 -0.0867
17050SOL    HW258266   1.036   9.248   9.878  0.4611  0.5968  0.8614
17051SOL     OW58267  10.023  11.609   7.279 -0.0328 -0.1504 -0.0501
17051SOL    HW158268  10.088  11.546   7.310  0.9980  0.3262 -1.1533
17051SOL    HW258269   9.939  11.569   7.298  0.5604 -2.5038 -1.9239
17052SOL     OW58270   2.803   7.903   0.209 -0.4825  0.0658 -0.4576
17052SOL    HW158271   2.723   7.951   0.230 -1.6464 -1.8934 -0.1742
17052SOL    HW258272   2.831   7.865   0.292  1.4571  1.6697 -0.3129
17053SOL     OW58273   0.967  11.529   2.345 -0.6696 -0.0719  0.1444
17053SOL    HW158274   1.051  11.557   2.383 -0.5861 -1.0194  0.6690
17053SOL    HW258275   0.959  11.437   2.368 -0.2059 -0.9644 -2.8675
17054SOL     OW58276  11.713   9.784   6.399 -0.5182 -0.2089  0.2436
17054SOL    HW158277  11.793   9.748   6.438 -0.9422 -1.0432  0.3616
17054SOL    HW258278  11.690   9.858   6.456 -0.0477 -0.2045  0.4322
17055SOL     OW58279   6.237   6.112   9.558 -0.1640  0.0511 -0.3444
17055SOL    HW158280   6.177   6.051   9.515 -2.8282  3.1632 -1.4316
17055SOL    HW258281   6.180   6.173   9.605  2.4323  0.4922  2.5761
17056SOL     OW58282   1.681   1.687   9.644  0.1169  0.5071  0.0829
17056SOL    HW158283   1.586   1.675   9.643  0.2941 -1.8976  2.0201
17056SOL    HW258284   1.698   1.741   9.721  0.3942 -0.5322  0.7709
17057SOL     OW58285   7.845   7.293   1.763 -0.2258 -0.2761 -0.1909
17057SOL    HW158286   7.813   7.359   1.702 -0.6518  0.1971  0.5227
17057SOL    HW258287   7.772   7.232   1.773 -0.4876  0.1400  0.5162
17058SOL     OW58288   9.044   2.833   8.246  0.1488 -0.3521  0.3087
17058SOL    HW158289   9.051   2.925   8.273  2.3358 -0.3100 -0.2884
17058SOL    HW258290   9.036   2.785   8.328  0.2938  0.2601  0.6898
17059SOL     OW58291   9.346  10.530   1.743 -0.3556  0.0294  0.3480
17059SOL    HW158292   9.348  10.622   1.768  0.1089  0.0651  0.1928
17059SOL    HW258293   9.257  10.515   1.711 -0.1697  0.6455 -0.4660
17060SOL     OW58294  10.861  12.888   2.384 -0.2981 -0.0337  0.1309
17060SOL    HW158295  10.909  12.923   2.309 -1.5702 -1.6643 -1.5054
17060SOL    HW258296  10.861  12.961   2.447  0.7540  1.4091 -1.4317
17061SOL     OW58297   4.422   5.771   3.437 -0.0369 -0.3467 -0.4738
17061SOL    HW158298   4.438   5.739   3.525 -1.0042  1.7329  0.5138
17061SOL    HW258299   4.477   5.849   3.429 -0.1727 -0.3501 -1.6227
17062SOL     OW58300   7.080   1.849   6.065 -0.0985  0.6389  0.1245
17062SOL    HW158301   7.041   1.782   6.121  0.7264 -1.1017 -1.2842
17062SOL    HW258302   7.167   1.815   6.043 -0.7564  0.6842 -3.0355
17063SOL     OW58303   1.467   2.129   1.840  0.2863  0.1620 -0.2488
17063SOL    HW158304   1.513   2.152   1.921  1.9845  0.8448 -1.3439
17063SOL    HW258305   1.380   2.101   1.869  0.4969  1.3329  1.7131
17064SOL     OW58306   2.909  12.010   3.644 -0.3446  0.7015 -0.0823
17064SOL    HW158307   2.882  12.024   3.553 -0.1556 -0.4188 -0.3166
17064SOL    HW258308   2.958  12.089   3.667  1.3713  0.1469 -1.6105
17065SOL     OW58309   2.218   1.304   0.868  0.2461 -0.3956  0.2284
17065SOL    HW158310   2.274   1.379   0.848 -2.6631  1.4912 -1.4833
17065SOL    HW258311   2.187   1.319   0.957  1.3721 -0.8089  0.7189
17066SOL     OW58312  12.716   9.565   0.769  0.2513  0.0329 -0.3848
17066SOL    HW158313  12.736   9.476   0.741  0.0393 -0.3025  0.5062
17066SOL    HW258314  12.644   9.592   0.712  0.8774 -0.0374 -1.2350
17067SOL     OW58315   7.536   1.462  11.906  0.1611  0.1602 -0.3574
17067SOL    HW158316   7.545   1.507  11.822  0.3617  0.9684  0.0882
17067SOL    HW258317   7.441   1.453  11.918  0.1397 -0.9605 -1.1763
17068SOL     OW58318   1.295   5.354   0.881  0.0580  0.6680 -0.1549
17068SOL    HW158319   1.326   5.270   0.914 -0.6037  0.6293  0.3878
17068SOL    HW258320   1.283   5.408   0.959 -0.3466  0.9779 -0.4281
17069SOL     OW58321   5.750  12.294  11.419  0.0479  0.0877 -0.4073
17069SOL    HW158322   5.830  12.245  11.435 -0.4793 -0.7669 -0.2853
17069SOL    HW258323   5.681  12.241  11.460 -0.4742  1.2274  0.2510
17070SOL     OW58324   8.220   1.468   0.589 -0.6449 -0.3079  0.0425
17070SOL    HW158325   8.235   1.482   0.682 -0.2598 -0.3263 -0.0149
17070SOL    HW258326   8.140   1.517   0.570  0.1558  1.0531  0.0413
17071SOL     OW58327   1.985   4.851   9.894 -0.5358 -0.3121 -0.2119
17071SOL    HW158328   2.065   4.807   9.924  0.0280  1.6959  1.5479
17071SOL    HW258329   1.920   4.829   9.961 -1.6773 -2.3371 -1.8944
17072SOL     OW58330   2.116   9.899   3.570  0.2765  0.1846 -0.0493
17072SOL    HW158331   2.029   9.860   3.564 -0.4112  1.7011 -0.3251
17072SOL    HW258332   2.163   9.867   3.493 -0.8909  1.3160 -1.2879
17073SOL     OW58333   9.154   3.647   7.693 -0.3438 -0.0083  0.5015
17073SOL    HW158334   9.078   3.705   7.693 -0.0124  0.5434  2.9214
17073SOL    HW258335   9.229   3.707   7.692  0.0285 -0.4585  0.8697
17074SOL     OW58336   9.895   9.024  12.857  0.5125 -0.2576  0.4657
17074SOL    HW158337   9.890   9.049  12.765  1.2707  1.4423  0.8461
17074SOL    HW258338   9.965   8.959  12.862 -0.3729 -1.2961 -0.3198
17075SOL     OW58339   4.864  11.515   7.696  0.2100 -0.5737  0.7312
17075SOL    HW158340   4.881  11.551   7.609  0.8166 -0.4617  0.8909
17075SOL    HW258341   4.936  11.455   7.712 -0.4264 -1.3498  0.7586
17076SOL     OW58342   7.432   1.231   5.174 -0.4943 -0.1005 -0.0942
17076SOL    HW158343   7.451   1.144   5.209 -0.4313 -0.6931 -1.5071
17076SOL    HW258344   7.336   1.233   5.165 -0.4986 -0.0091 -0.0288
17077SOL     OW58345   3.959   5.116  10.984  0.8665  0.2043  0.1917
17077SOL    HW158346   4.030   5.054  10.966  0.1968 -0.8125  0.9460
17077SOL    HW258347   3.931   5.096  11.073 -0.3327  0.6225 -0.0680
17078SOL     OW58348   6.275   5.299  10.246 -0.5999 -0.4940  0.2261
17078SOL    HW158349   6.204   5.266  10.302 -0.8263 -0.6921 -0.1721
17078SOL    HW258350   6.330   5.222  10.230  0.4129 -0.0900  1.5488
17079SOL     OW58351   3.804   0.959   2.900 -0.2057 -0.2735  0.0034
17079SOL    HW158352   3.763   0.947   2.815 -1.3162  1.4976  0.2290
17079SOL    HW258353   3.876   1.020   2.884 -0.1980 -0.2125  0.2632
17080SOL     OW58354   1.550   4.606   8.529 -0.7849 -0.1824 -0.0058
17080SOL    HW158355   1.493   4.530   8.523 -1.7754  0.6239 -1.4115
17080SOL    HW258356   1.511   4.660   8.597 -0.3694 -0.6785  0.6365
17081SOL     OW58357   5.579   4.183  10.873 -0.5361 -1.1789 -0.7031
17081SOL    HW158358   5.544   4.271  10.882  0.1569 -0.8064 -1.5095
17081SOL    HW258359   5.551   4.155  10.785  0.2253 -1.3018 -0.9180
17082SOL     OW58360   2.851   7.186   8.656  0.1298  0.4730 -0.4435
17082SOL    HW158361   2.897   7.170   8.574 -0.7380  0.1362 -0.8714
17082SOL    HW258362   2.840   7.099   8.695 -0.8467  0.4586 -0.7349
17083SOL     OW58363  10.294  11.459   9.888  0.3054  0.0128 -0.0665
17083SOL    HW158364  10.291  11.462   9.792 -2.2358 -2.1929 -0.1855
17083SOL    HW258365  10.303  11.366   9.908 -2.7152 -0.0069  1.7608
17084SOL     OW58366   5.242   5.571   7.911  0.3414 -0.8008 -0.1106
17084SOL    HW158367   5.247   5.666   7.925 -1.6165 -0.4868 -1.1786
17084SOL    HW258368   5.149   5.551   7.919  0.8036 -2.7629  0.7411
17085SOL     OW58369  11.016  11.513   6.956  0.4522  0.2657  0.1807
17085SOL    HW158370  10.985  11.537   7.043 -1.8284  0.6555 -0.6642
17085SOL    HW258371  11.063  11.431   6.969 -1.1967 -0.5176  1.5844
17086SOL     OW58372   7.065  12.044   6.045 -0.1415  0.0819  0.0351
17086SOL    HW158373   7.105  12.126   6.015  1.9625 -0.6359  0.6742
17086SOL    HW258374   7.082  12.042   6.139 -0.6552 -0.8270  0.1179
17087SOL     OW58375   7.522   4.421  10.709 -0.6191 -0.4523 -0.6241
17087SOL    HW158376   7.488   4.338  10.678 -0.6984 -0.2460 -1.1046
17087SOL    HW258377   7.594   4.441  10.649  0.9685 -1.3179  0.8967
17088SOL     OW58378   5.393   5.972  11.295 -0.2194 -0.1901 -0.2389
17088SOL    HW158379   5.332   5.988  11.367 -0.7853 -0.2488 -0.6978
17088SOL    HW258380   5.367   5.887  11.259 -0.2983  0.0910 -0.8636
17089SOL     OW58381   4.397   4.125   6.967  0.4751 -0.3876  0.3109
17089SOL    HW158382   4.352   4.209   6.968  1.5344  0.1894  1.0926
17089SOL    HW258383   4.382   4.089   7.055 -0.2391 -1.1703 -0.1190
17090SOL     OW58384  12.627  10.414  10.228 -0.2042  0.0772  0.3651
17090SOL    HW158385  12.535  10.439  10.228  0.3333  2.2991 -0.1774
17090SOL    HW258386  12.672  10.490  10.191  1.6185 -1.9076 -1.8234
17091SOL     OW58387   0.243   4.092  11.002 -0.1910 -0.0309  0.8789
17091SOL    HW158388   0.248   4.002  11.035  0.6053 -0.9933 -1.6414
17091SOL    HW258389   0.332   4.126  11.011 -0.3117  0.2306  1.0934
17092SOL     OW58390  11.828   0.858  11.173 -0.8604  0.2801 -0.8061
17092SOL    HW158391  11.773   0.933  11.149 -1.0590  1.4146  2.6802
17092SOL    HW258392  11.797   0.831  11.259  2.5802 -0.4375  0.3970
17093SOL     OW58393   2.666  11.608   3.826 -0.0978 -0.2020  0.3333
17093SOL    HW158394   2.749  11.653   3.807 -0.2438 -0.6163 -1.4704
17093SOL    HW258395   2.689  11.515   3.827 -0.5292 -0.3113 -0.0599
17094SOL     OW58396  10.124   8.549   4.292 -0.1336 -0.2373  0.2899
17094SOL    HW158397  10.037   8.512   4.308 -0.2682  0.2844  0.7999
17094SOL    HW258398  10.107   8.638   4.260  0.2245  0.5650  2.2150
17095SOL     OW58399   3.485   2.601   2.789  0.1945  0.0400 -0.0632
17095SOL    HW158400   3.541   2.676   2.769  0.3528  0.5425  2.0528
17095SOL    HW258401   3.397   2.638   2.795  0.2694  0.0874  0.9588
17096SOL     OW58402   5.345   3.435   7.616 -0.1211  0.0039  0.1924
17096SOL    HW158403   5.321   3.412   7.527  2.0730  0.5178 -0.6162
17096SOL    HW258404   5.341   3.353   7.665 -0.4668 -0.4659 -0.6147
17097SOL     OW58405   9.847  12.466  10.623 -0.3179 -0.2124  0.2174
17097SOL    HW158406   9.871  12.385  10.667  1.9066  0.5786  0.6009
17097SOL    HW258407   9.795  12.514  10.687 -0.1557 -0.5958  0.6400
17098SOL     OW58408   8.308   4.579   2.688  0.1285  1.1344  0.0546
17098SOL    HW158409   8.241   4.558   2.623 -0.3482 -0.3768  0.9746
17098SOL    HW258410   8.340   4.666   2.663 -2.3977  2.0682 -0.2300
17099SOL     OW58411   6.099   3.130   1.999 -0.2224  0.5645 -0.2331
17099SOL    HW158412   6.080   3.189   2.073 -1.0220 -2.4444  2.1598
17099SOL    HW258413   6.014   3.091   1.978  0.3650 -0.1106 -1.4338
17100SOL     OW58414   4.531   5.992   8.863  0.2798 -0.0520 -0.0789
17100SOL    HW158415   4.439   6.020   8.864 -0.0066 -0.9941  1.2882
17100SOL    HW258416   4.528   5.897   8.864  1.2934 -0.1165 -0.7996
17101SOL     OW58417   8.426   3.665   3.237 -0.1893 -0.4541  0.0742
17101SOL    HW158418   8.436   3.623   3.322 -1.0210  2.1625  1.5693
17101SOL    HW258419   8.351   3.620   3.196  1.0043 -2.5788  0.1054
17102SOL     OW58420   7.597   9.325   6.078  0.0034  0.2605  0.0886
17102SOL    HW158421   7.657   9.304   6.007  0.7005 -2.3713  1.3166
17102SOL    HW258422   7.630   9.407   6.114  0.8646  0.5633 -1.3026
17103SOL     OW58423  10.497  12.050  12.171  0.0649  0.2238 -0.0298
17103SOL    HW158424  10.469  12.141  12.176 -2.5297 -0.4987 -0.0368
17103SOL    HW258425  10.449  12.006  12.241  1.6544 -1.0817  0.3024
17104SOL     OW58426   3.860   0.275   3.860  0.1530  0.0377  0.2375
17104SOL    HW158427   3.806   0.221   3.803 -1.3422  0.9713  0.7218
17104SOL    HW258428   3.895   0.214   3.925  0.1800 -0.6728 -0.4278
17105SOL     OW58429   7.180   2.132   4.420 -0.4807 -1.0699  0.0038
17105SOL    HW158430   7.162   2.062   4.357 -0.3068 -1.9017  0.8663
17105SOL    HW258431   7.096   2.151   4.461 -0.7190 -0.1091 -0.8638
17106SOL     OW58432   1.848   4.106   7.822  0.3016 -0.6114  0.0713
17106SOL    HW158433   1.779   4.140   7.765  1.3226 -0.9035 -1.4167
17106SOL    HW258434   1.806   4.037   7.873 -1.4563  1.8020  2.1093
17107SOL     OW58435   6.354   5.346   2.505 -0.5723 -0.0936 -0.0243
17107SOL    HW158436   6.436   5.352   2.456 -0.0504 -1.6856  0.5875
17107SOL    HW258437   6.332   5.253   2.502 -2.2750  0.2883 -0.0192
17108SOL     OW58438   3.172   7.254   4.630  0.2985 -0.2256 -0.2367
17108SOL    HW158439   3.084   7.284   4.609  0.8771  0.4043 -1.9283
17108SOL    HW258440   3.200   7.202   4.555  1.9305  0.8913 -0.4759
17109SOL     OW58441   9.013   4.947   5.160 -0.0460  0.4108  0.2273
17109SOL    HW158442   8.931   4.975   5.202 -0.7028 -0.8874 -0.1360
17109SOL    HW258443   9.053   4.887   5.223  2.2066  3.2764  1.7533
17110SOL     OW58444   8.589   9.064   5.522  0.1895 -0.2580  0.4974
17110SOL    HW158445   8.642   9.103   5.454 -0.7329  0.4558  0.1680
17110SOL    HW258446   8.516   9.125   5.534 -0.7877 -1.4208  0.6286
17111SOL     OW58447  10.324   4.173  12.465 -0.2177 -0.1736  0.0946
17111SOL    HW158448  10.286   4.229  12.534  1.5322  0.0718  0.9008
17111SOL    HW258449  10.336   4.088  12.508 -0.3539 -0.4073 -0.3245
17112SOL     OW58450  12.716   8.172   4.773 -0.4273  0.4178  0.1171
17112SOL    HW158451  12.720   8.230   4.850  1.9348  1.0714 -0.3998
17112SOL    HW258452  12.747   8.088   4.806 -0.5491  0.3780  0.1297
17113SOL     OW58453   5.063   1.882  11.598 -0.0020 -0.6182  0.5934
17113SOL    HW158454   4.993   1.938  11.565 -0.5351 -0.9517  1.1338
17113SOL    HW258455   5.049   1.797  11.556  0.0937 -0.6773  0.6789
17114SOL     OW58456  11.482   2.175  12.394 -0.0181 -0.4394 -0.1862
17114SOL    HW158457  11.442   2.116  12.459  0.2883 -1.7558 -1.1482
17114SOL    HW258458  11.552   2.123  12.355 -0.8722 -0.0710 -2.3355
17115SOL     OW58459   6.007   1.725   3.138  0.1642 -0.9850 -0.2462
17115SOL    HW158460   5.993   1.635   3.111  1.1060 -1.0913 -0.4115
17115SOL    HW258461   5.974   1.729   3.228  0.3531 -1.5643 -0.1493
17116SOL     OW58462   6.913   4.853   7.849  0.0502 -0.7623 -0.4944
17116SOL    HW158463   6.980   4.921   7.859  1.2050 -2.0195  0.7972
17116SOL    HW258464   6.955   4.787   7.794 -1.0086 -0.5342 -1.6157
17117SOL     OW58465  12.799   7.572  12.469 -0.1609 -0.2552 -0.5224
17117SOL    HW158466  12.824   7.657  12.504  0.7859 -0.2007 -1.3017
17117SOL    HW258467  12.806   7.581  12.374  0.2527 -1.2886 -0.6027
17118SOL     OW58468   1.556   0.785   9.050 -0.4948  0.1019  0.1923
17118SOL    HW158469   1.470   0.744   9.063 -0.0701 -0.4594  1.3293
17118SOL    HW258470   1.611   0.715   9.015 -0.1271  0.0747  0.8226
17119SOL     OW58471   3.726   6.986   1.276  0.2947 -0.4422  0.4579
17119SOL    HW158472   3.781   6.918   1.237 -0.5968 -1.9186  1.6604
17119SOL    HW258473   3.783   7.028   1.340  0.3110 -1.3693  1.0687
17120SOL     OW58474   4.955  12.751   5.914  0.2961 -0.5053 -0.3302
17120SOL    HW158475   5.015  12.738   5.987  2.4360  0.9639 -1.7234
17120SOL    HW258476   4.986  12.831   5.870 -2.2626 -0.0689 -1.5614
17121SOL     OW58477   7.954  11.499   7.471  0.4746  0.5161 -0.1384
17121SOL    HW158478   7.921  11.578   7.513  0.7352  0.9975 -0.8269
17121SOL    HW258479   7.877  11.457   7.434  0.0703 -0.4813  1.6943
17122SOL     OW58480   7.872   8.223   4.955  0.2085 -0.0952  0.4628
17122SOL    HW158481   7.963   8.215   4.983  0.3197  1.0974  0.4750
17122SOL    HW258482   7.834   8.137   4.973  1.2063 -0.4635  0.8845
17123SOL     OW58483   6.536   7.054   7.734  0.3136  0.3099  0.4988
17123SOL    HW158484   6.547   6.959   7.744  0.3347  0.4288  1.7798
17123SOL    HW258485   6.459   7.075   7.785  0.2787  0.9852  0.1812
17124SOL     OW58486   5.609   2.568  10.269  0.0115  0.2853  0.4074
17124SOL    HW158487   5.661   2.645  10.246  0.3574  0.6507  2.2222
17124SOL    HW258488   5.534   2.603  10.317  0.8518 -0.5128  2.4387
17125SOL     OW58489   9.474   7.165   1.186  0.0870  0.0245 -0.2647
17125SOL    HW158490   9.490   7.210   1.269  2.5596  0.5676 -0.9393
17125SOL    HW258491   9.449   7.234   1.125 -0.9255 -0.2527 -0.1711
17126SOL     OW58492   8.847   0.039   5.070  0.1036 -0.2768 -0.4102
17126SOL    HW158493   8.905  -0.029   5.105 -1.0578 -0.6336  0.9054
17126SOL    HW258494   8.759   0.010   5.094 -0.3565  2.8663  2.5549
17127SOL     OW58495   1.563   1.779  10.765 -0.4136  0.2104 -0.1149
17127SOL    HW158496   1.619   1.847  10.729  1.3326 -0.0104  1.9584
17127SOL    HW258497   1.557   1.799  10.859 -1.2878 -1.4969  0.2488
17128SOL     OW58498   8.759   6.926  10.169  0.4488  0.5476 -0.0226
17128SOL    HW158499   8.760   6.912  10.264 -0.9191  1.7921  0.2102
17128SOL    HW258500   8.820   6.999  10.155  0.0230  0.9172  0.0184
17129SOL     OW58501  12.306   2.559   0.574  0.2205  0.7789 -0.2925
17129SOL    HW158502  12.223   2.579   0.532  0.6885  3.7915 -0.0228
17129SOL    HW258503  12.354   2.508   0.510 -1.8388 -1.2149 -0.3755
17130SOL     OW58504   1.818  10.713   5.941 -0.2380  0.0732  0.1889
17130SOL    HW158505   1.868  10.723   6.022 -0.3968  1.4383  0.1451
17130SOL    HW258506   1.883  10.725   5.871 -0.0788 -1.2216  0.0944
17131SOL     OW58507  12.589   9.685   2.842 -0.3722  0.4633  0.2752
17131SOL    HW158508  12.647   9.756   2.870 -1.1361  1.7289 -1.2347
17131SOL    HW258509  12.506   9.703   2.886 -0.2034 -0.2752  0.9272
17132SOL     OW58510   7.706   7.434   2.785 -0.8426  1.0238  0.3370
17132SOL    HW158511   7.738   7.369   2.722 -0.0633  2.3530 -0.7225
17132SOL    HW258512   7.612   7.420   2.789 -0.6744 -0.2164  0.2069
17133SOL     OW58513   1.930   2.228   2.309  0.7305  0.2255  0.3554
17133SOL    HW158514   2.008   2.242   2.364  1.8558 -1.8972 -0.5805
17133SOL    HW258515   1.921   2.133   2.305 -1.4605  0.4222 -0.2423
17134SOL     OW58516   7.642   5.414   1.828 -0.2879  0.9761  0.5509
17134SOL    HW158517   7.580   5.403   1.757  1.5304 -0.4987 -0.9356
17134SOL    HW258518   7.682   5.499   1.813  0.2508  0.5734 -0.3846
17135SOL     OW58519   5.069   4.684   7.455  0.1405  0.1559 -0.8131
17135SOL    HW158520   5.023   4.607   7.420 -0.7213  1.1245 -1.8703
17135SOL    HW258521   5.161   4.657   7.458 -0.0996 -0.8008 -1.4885
17136SOL     OW58522  11.682  10.770   9.123  0.1036 -0.2647  0.7371
17136SOL    HW158523  11.598  10.764   9.078 -0.5419  0.3180  1.8442
17136SOL    HW258524  11.726  10.688   9.102 -1.2530 -1.1264  1.1619
17137SOL     OW58525   0.826   7.416   5.371  0.3782  0.0085  0.3387
17137SOL    HW158526   0.922   7.415   5.371  0.4114 -1.9530  0.2153
17137SOL    HW258527   0.802   7.427   5.463  0.7246  0.3844  0.3879
17138SOL     OW58528   0.771   9.459   1.458  0.0691 -0.2025  0.5000
17138SOL    HW158529   0.698   9.397   1.461  1.8574 -2.5614 -1.0585
17138SOL    HW258530   0.819   9.443   1.539  0.2120 -0.4641  0.3657
17139SOL     OW58531  12.566   7.479   1.250 -0.2091 -0.4757 -0.2699
17139SOL    HW158532  12.507   7.545   1.214  1.2184  2.4138  2.2237
17139SOL    HW258533  12.602   7.435   1.174 -1.4228  1.4602 -2.0803
17140SOL     OW58534   5.253   5.290   4.490  0.4680  0.1463  0.1397
17140SOL    HW158535   5.260   5.371   4.541 -0.6835  0.0136  0.5538
17140SOL    HW258536   5.210   5.229   4.550  1.1476 -0.7162 -0.2408
17141SOL     OW58537   4.281   7.549   5.230  0.2192 -0.2196  0.0094
17141SOL    HW158538   4.186   7.535   5.235  0.4696 -2.0167  4.4207
17141SOL    HW258539   4.315   7.470   5.188 -0.1012 -0.9586  1.1054
17142SOL     OW58540   5.538   3.288   8.347  0.0529 -0.6144 -0.1556
17142SOL    HW158541   5.502   3.221   8.406 -3.6518 -1.1690 -2.7148
17142SOL    HW258542   5.519   3.371   8.390  0.8582 -1.0532  1.1001
17143SOL     OW58543   2.316   9.457   2.650 -0.0015  0.2953 -0.2832
17143SOL    HW158544   2.329   9.540   2.605  0.4974  0.6387  0.4538
17143SOL    HW258545   2.404   9.418   2.654 -0.3407 -0.6157 -1.2542
17144SOL     OW58546   2.757   6.750   0.301  0.3149  0.2772 -0.5533
17144SOL    HW158547   2.675   6.730   0.257  1.7370 -2.0732 -2.3533
17144SOL    HW258548   2.801   6.666   0.311  2.6518  1.4813  0.0803
17145SOL     OW58549  10.808   1.864   8.087  0.6663  0.3382  0.0074
17145SOL    HW158550  10.862   1.786   8.098  1.4450  0.8369 -0.2492
17145SOL    HW258551  10.857   1.920   8.027 -0.3304  0.6160 -0.5847
17146SOL     OW58552  10.472  11.993   9.045  0.0320  0.3139 -0.1539
17146SOL    HW158553  10.431  12.079   9.041  0.5047  0.5575  0.1616
17146SOL    HW258554  10.510  11.989   9.132  0.9755  0.2303 -0.5562
17147SOL     OW58555   4.053  10.181   8.978 -0.3275  0.2461  0.0575
17147SOL    HW158556   3.998  10.119   9.026 -2.2409  1.5147 -0.3805
17147SOL    HW258557   4.088  10.131   8.906 -1.3550 -0.5026  0.0500
17148SOL     OW58558  12.962   0.311   3.575  0.3760  0.0529  0.2574
17148SOL    HW158559  12.887   0.314   3.516 -0.1360  1.9831  0.9258
17148SOL    HW258560  12.999   0.224   3.563  0.1473  0.2508 -2.7103
17149SOL     OW58561   0.549  12.322   2.860  0.5272  0.1967 -0.0436
17149SOL    HW158562   0.590  12.403   2.893 -1.9051  0.4837  2.7699
17149SOL    HW258563   0.585  12.253   2.915  0.9567 -0.3236 -0.9638
17150SOL     OW58564  12.009   3.974   6.491 -0.5735 -0.0895  0.0308
17150SOL    HW158565  11.982   4.044   6.551  0.9505 -1.3894  2.4070
17150SOL    HW258566  12.105   3.970   6.501 -0.2033 -0.1962 -2.7965
17151SOL     OW58567   7.674   0.746   5.695  0.3028 -0.2937  0.2230
17151SOL    HW158568   7.583   0.740   5.665  0.7694 -1.0073 -1.1292
17151SOL    HW258569   7.697   0.838   5.683  0.4683 -0.5436 -1.7053
17152SOL     OW58570   3.919   9.593   1.730 -0.3934  0.0834 -1.2324
17152SOL    HW158571   3.824   9.591   1.738 -0.2791 -1.4856  0.0017
17152SOL    HW258572   3.940   9.520   1.672  0.2406 -1.6199  1.0386
17153SOL     OW58573   2.022   1.008   3.703 -0.5492 -0.4767  0.4022
17153SOL    HW158574   1.928   1.025   3.699 -0.4271  0.2603  0.5392
17153SOL    HW258575   2.054   1.066   3.772  0.0130 -0.6803  0.3160
17154SOL     OW58576   7.639  10.897   1.052 -0.5779 -0.0597  0.0694
17154SOL    HW158577   7.726  10.921   1.084  0.2367 -1.2580 -1.1267
17154SOL    HW258578   7.622  10.958   0.981 -1.6349  1.4751  1.5641
17155SOL     OW58579  12.151   1.779  12.066  0.2096  0.0192 -0.5427
17155SOL    HW158580  12.184   1.822  11.987 -0.8090  2.5667  0.3117
17155SOL    HW258581  12.228   1.766  12.121  0.8902 -1.5492 -1.8052
17156SOL     OW58582   6.088   5.174   3.511 -0.4794  0.1658  0.3044
17156SOL    HW158583   6.004   5.148   3.551 -0.9859  1.7047  0.3000
17156SOL    HW258584   6.063   5.219   3.431  0.1851  2.6094  1.3859
17157SOL     OW58585   8.332   7.676   6.422 -0.5049 -0.1852  0.4940
17157SOL    HW158586   8.400   7.725   6.468  0.5728 -0.6610 -0.5460
17157SOL    HW258587   8.329   7.715   6.334 -2.2672  0.4679  0.8056
17158SOL     OW58588   6.835   6.508   6.621 -0.3272 -0.0176  0.0604
17158SOL    HW158589   6.830   6.449   6.545 -1.1642 -1.2338  1.0174
17158SOL    HW258590   6.928   6.510   6.643 -0.3400 -1.5692  0.4101
17159SOL     OW58591   2.350   9.607   2.138 -0.3533  0.6425  0.0943
17159SOL    HW158592   2.310   9.693   2.151  0.4702  1.0862 -0.2570
17159SOL    HW258593   2.276   9.548   2.121 -0.8918  1.3419  0.0033
17160SOL     OW58594   6.983  12.660   5.857 -0.1163 -0.4150  0.2578
17160SOL    HW158595   6.906  12.657   5.799  0.2609  0.8729 -0.3629
17160SOL    HW258596   6.968  12.737   5.912  1.5025  0.9078 -1.0466
17161SOL     OW58597   6.834  12.247   8.704  0.1173 -0.1259  0.2593
17161SOL    HW158598   6.845  12.336   8.673 -0.2755 -0.7836 -1.9576
17161SOL    HW258599   6.788  12.256   8.788 -0.9391  1.7108 -0.4616
17162SOL     OW58600  12.242   0.639   3.978 -0.2187  0.1016 -0.1923
17162SOL    HW158601  12.285   0.693   4.044 -0.9326  0.9864 -0.4358
17162SOL    HW258602  12.252   0.688   3.896 -1.0293 -0.0406 -0.3891
17163SOL     OW58603  11.532  11.219   6.422 -0.5850  0.2570  0.4262
17163SOL    HW158604  11.535  11.249   6.332 -1.3502 -0.6777  0.0648
17163SOL    HW258605  11.621  11.190   6.441 -0.4695  0.2622 -0.0998
17164SOL     OW58606   5.988   4.396   7.296 -0.0457  0.3795  0.3658
17164SOL    HW158607   6.002   4.473   7.351 -0.7300  1.1824 -0.5438
17164SOL    HW258608   5.945   4.333   7.354 -0.6083  1.1492  0.8079
17165SOL     OW58609   7.598   8.546   1.862 -0.5866 -0.2384 -0.4755
17165SOL    HW158610   7.614   8.514   1.951  0.8038 -0.3791 -0.7495
17165SOL    HW258611   7.517   8.502   1.836 -1.2461  0.1349  0.8615
17166SOL     OW58612   3.584   1.909   7.897 -0.1746 -0.6242  0.6107
17166SOL    HW158613   3.573   1.968   7.822  0.6375  0.8718  1.6393
17166SOL    HW258614   3.668   1.933   7.936 -0.5072 -1.4682  1.9329
17167SOL     OW58615   7.306   0.570   9.493 -0.5674  0.3761 -1.0326
17167SOL    HW158616   7.294   0.601   9.404  0.8722 -0.2929 -1.4868
17167SOL    HW258617   7.284   0.477   9.490  2.1651 -0.3634 -1.4084
17168SOL     OW58618   0.400   8.671   8.267  0.0406 -0.2024  0.5501
17168SOL    HW158619   0.377   8.591   8.314 -2.0744 -0.6383 -1.0656
17168SOL    HW258620   0.317   8.702   8.231  1.1110  1.7040 -0.4157
17169SOL     OW58621   9.384   6.501  12.295 -0.1286 -0.2660 -0.0657
17169SOL    HW158622   9.368   6.569  12.360  0.4466 -1.2547  1.1572
17169SOL    HW258623   9.400   6.549  12.213 -1.6834  0.9724  0.3218
17170SOL     OW58624  12.598  11.817  10.395  0.4190  0.0104 -0.3511
17170SOL    HW158625  12.554  11.797  10.477  0.5717 -1.7398 -0.6684
17170SOL    HW258626  12.527  11.828  10.332  0.3590 -1.1576 -0.5058
17171SOL     OW58627  11.100   8.869   7.305 -0.1433 -0.5424  0.4171
17171SOL    HW158628  11.143   8.936   7.254 -0.4907 -0.6989 -0.0897
17171SOL    HW258629  11.023   8.912   7.343 -0.2124 -0.5823  0.3215
17172SOL     OW58630  12.639   3.925   7.305  0.1068 -0.3823  0.0068
17172SOL    HW158631  12.619   3.984   7.232  0.6753  1.6157  1.4107
17172SOL    HW258632  12.648   3.839   7.264 -0.3586  0.5422 -2.1623
17173SOL     OW58633  12.952   4.563   4.157  0.3670  1.0683  0.4090
17173SOL    HW158634  12.979   4.472   4.161  0.4415  1.1062  0.8444
17173SOL    HW258635  12.992   4.604   4.234  0.0969  1.4022  0.3771
17174SOL     OW58636   6.685   6.204   9.549 -0.3295 -0.3654  0.1715
17174SOL    HW158637   6.676   6.179   9.457 -1.2612 -2.7783  0.8395
17174SOL    HW258638   6.620   6.273   9.561 -0.2910 -0.1164 -0.9449
17175SOL     OW58639   2.113  12.470  10.316  0.0012  0.3680 -0.0444
17175SOL    HW158640   2.115  12.558  10.353 -1.7630  0.3095  0.2697
17175SOL    HW258641   2.204  12.453  10.290  0.1895  2.7210 -1.1870
17176SOL     OW58642   7.444   8.258   6.127  0.2087 -0.0499  0.4931
17176SOL    HW158643   7.418   8.340   6.169  0.1588  1.4331 -2.2153
17176SOL    HW258644   7.387   8.251   6.050  0.9790 -2.0553  0.0367
17177SOL     OW58645  10.202   0.726  11.407  0.0570  0.3529 -0.4620
17177SOL    HW158646  10.254   0.764  11.336  0.7713  2.4368  1.0643
17177SOL    HW258647  10.205   0.793  11.476 -1.4252 -1.1687  1.1469
17178SOL     OW58648   4.709   1.109   9.079  0.1822 -0.3588 -0.0666
17178SOL    HW158649   4.780   1.112   9.143  0.0225  0.8595  0.0795
17178SOL    HW258650   4.687   1.201   9.064 -0.2531 -0.6598 -1.3564
17179SOL     OW58651   8.961   8.110   7.412 -0.1888 -0.3970  0.3890
17179SOL    HW158652   8.941   8.190   7.361  0.9872 -0.9331 -0.9785
17179SOL    HW258653   8.994   8.143   7.495 -0.5110  0.5313  0.1718
17180SOL     OW58654  10.867   3.519   2.624 -0.0528 -0.0247 -0.1358
17180SOL    HW158655  10.909   3.599   2.655 -1.2265  0.2935  0.6871
17180SOL    HW258656  10.828   3.543   2.540  0.0937  0.0958 -0.1698
17181SOL     OW58657   2.910   4.932   3.547 -0.0462 -0.1110 -0.5268
17181SOL    HW158658   2.871   5.017   3.568  1.1698 -0.2018  2.6932
17181SOL    HW258659   2.836   4.872   3.543 -0.8497  0.9114 -2.1148
17182SOL     OW58660   6.604   9.884   9.511  0.4938 -0.3281  0.4468
17182SOL    HW158661   6.680   9.942   9.511 -0.1166  0.5027  1.1620
17182SOL    HW258662   6.528   9.943   9.509 -0.1546 -1.1502 -1.0952
17183SOL     OW58663   5.333   6.334   1.928  0.2597 -1.1438 -0.6650
17183SOL    HW158664   5.265   6.381   1.880 -1.4612 -1.0077  1.7198
17183SOL    HW258665   5.409   6.337   1.871 -0.7609  1.5739 -2.0661
17184SOL     OW58666   3.268   2.375   4.830  0.2123 -0.0427  0.3905
17184SOL    HW158667   3.296   2.404   4.916  0.2383 -0.0510  0.3851
17184SOL    HW258668   3.311   2.435   4.769  0.9709 -0.6171  0.3335
17185SOL     OW58669   3.603   0.389   8.165 -0.5309  0.5156  0.5556
17185SOL    HW158670   3.636   0.344   8.087  0.0103  0.3255  0.8878
17185SOL    HW258671   3.677   0.391   8.225 -1.4060 -0.9499  1.7864
17186SOL     OW58672   0.380   3.122   2.898  0.3324  0.6876  0.2032
17186SOL    HW158673   0.394   3.102   2.805  2.2791  1.5654  0.2497
17186SOL    HW258674   0.468   3.135   2.933 -0.3278 -0.2106  2.3320
17187SOL     OW58675   8.273   1.654   9.605  0.0598  0.9024  0.4045
17187SOL    HW158676   8.228   1.697   9.532 -2.6298 -1.1245  0.7409
17187SOL    HW258677   8.352   1.615   9.565 -1.3070 -0.1023 -1.4617
17188SOL     OW58678   0.296  12.363   2.748 -0.7831 -0.1202  0.6325
17188SOL    HW158679   0.387  12.386   2.770 -0.7089  0.3618 -0.1679
17188SOL    HW258680   0.304  12.284   2.695 -0.7344  0.6849 -0.5828
17189SOL     OW58681   2.872   5.065   8.957 -0.0030 -0.2355  0.5923
17189SOL    HW158682   2.961   5.100   8.970 -0.0576  1.4438 -2.5617
17189SOL    HW258683   2.815   5.141   8.969 -0.6841 -0.5176 -0.7176
17190SOL     OW58684  12.529   3.520   2.710  0.3135 -0.3480 -0.1901
17190SOL    HW158685  12.586   3.585   2.752 -1.3596  1.0285  0.0797
17190SOL    HW258686  12.443   3.563   2.707 -0.9130 -2.6408  0.1449
17191SOL     OW58687   7.401  11.527   7.529  0.3639 -0.1748 -0.6210
17191SOL    HW158688   7.355  11.548   7.610  0.0182  0.3602 -0.9503
17191SOL    HW258689   7.333  11.499   7.468  0.6165 -0.5489 -0.7410
17192SOL     OW58690  11.844  11.483   0.404  0.0036  0.0435 -0.3639
17192SOL    HW158691  11.816  11.552   0.344 -1.8691  0.0120  0.4180
17192SOL    HW258692  11.818  11.402   0.360  0.0614 -0.0502 -0.2254
17193SOL     OW58693   7.862   9.899   2.426 -0.3691 -0.6692  0.2511
17193SOL    HW158694   7.842   9.843   2.501  3.1910 -0.6218  1.4406
17193SOL    HW258695   7.820   9.856   2.352 -0.9910 -2.7478  1.7169
17194SOL     OW58696   1.531   8.074   0.335  0.5919 -0.6112  0.5252
17194SOL    HW158697   1.454   8.088   0.280  1.5209  0.7233 -0.5357
17194SOL    HW258698   1.517   8.129   0.411  0.2279 -0.8463  0.6283
17195SOL     OW58699   1.340  12.506   7.817 -0.3689 -0.3240  0.6060
17195SOL    HW158700   1.316  12.572   7.882  0.1946  0.8630 -0.3498
17195SOL    HW258701   1.328  12.423   7.862 -1.4367  0.4042  1.7416
17196SOL     OW58702   6.526   8.826   2.010  0.3232  0.0764  0.4558
17196SOL    HW158703   6.590   8.785   1.952  1.5044  2.1271  0.2156
17196SOL    HW258704   6.467   8.755   2.035  0.4202 -1.1072 -2.3606
17197SOL     OW58705   0.019   8.362  11.561 -0.0620  0.3493  0.1794
17197SOL    HW158706  -0.024   8.304  11.624  0.2924  1.5134  1.5406
17197SOL    HW258707  -0.050   8.388  11.500 -0.2936 -1.2090 -0.2712
17198SOL     OW58708   2.038   3.705  11.168  0.1262 -0.0430  0.0126
17198SOL    HW158709   2.063   3.623  11.210 -0.1919 -0.0720  0.1488
17198SOL    HW258710   2.022   3.766  11.240  0.8569  0.2913 -0.0984
17199SOL     OW58711   0.919  11.772   3.385  0.1619 -0.0454  0.2227
17199SOL    HW158712   1.014  11.783   3.381  0.2662 -1.2370 -1.7099
17199SOL    HW258713   0.907  11.680   3.408 -0.5727  0.4211  1.8322
17200SOL     OW58714   7.807  10.611  11.477 -0.5509 -0.4070  0.0322
17200SOL    HW158715   7.837  10.538  11.531  0.6740 -0.0916 -0.1864
17200SOL    HW258716   7.881  10.629  11.418 -1.6575 -0.4038 -1.4018
17201SOL     OW58717   7.265   3.358  11.025 -0.3556 -0.8720 -0.2764
17201SOL    HW158718   7.266   3.350  10.929  0.8016 -2.7895 -0.1409
17201SOL    HW258719   7.197   3.298  11.054 -0.4635 -0.5579  0.1307
17202SOL     OW58720   5.781   1.182  12.453 -0.0043 -0.6906  0.1966
17202SOL    HW158721   5.824   1.136  12.525 -2.0695 -1.7523  0.8313
17202SOL    HW258722   5.835   1.162  12.377  2.4517  0.7673  1.4071
17203SOL     OW58723   9.500   7.570   8.502 -0.6488 -0.5806 -0.1034
17203SOL    HW158724   9.479   7.624   8.578  0.3524  0.8651 -0.8030
17203SOL    HW258725   9.568   7.619   8.456 -2.2685 -0.6013 -2.7781
17204SOL     OW58726   8.738   4.193   1.437 -0.1772 -0.1850  0.1279
17204SOL    HW158727   8.794   4.151   1.371  0.5044  3.1801 -1.6814
17204SOL    HW258728   8.676   4.246   1.386 -4.0498 -2.3649  2.1135
17205SOL     OW58729   5.443   8.213   1.247 -0.2385 -0.1305 -0.5315
17205SOL    HW158730   5.523   8.216   1.299  0.3908  1.7041 -1.5193
17205SOL    HW258731   5.474   8.210   1.156 -1.2257  1.8503 -0.9836
17206SOL     OW58732   4.806   1.466  10.011  0.4295  0.2071  0.0169
17206SOL    HW158733   4.848   1.489  10.094  0.5557  0.3529 -0.0871
17206SOL    HW258734   4.721   1.510  10.014  0.5384  0.4241 -0.0411
17207SOL     OW58735   4.585   7.357   8.395 -0.4354 -0.4766 -0.1171
17207SOL    HW158736   4.633   7.433   8.362  0.3619 -0.7517  0.3783
17207SOL    HW258737   4.513   7.346   8.334 -0.1288  0.2282 -0.6218
17208SOL     OW58738  12.336   6.202   0.959  0.6844  0.0055  0.3160
17208SOL    HW158739  12.377   6.132   0.907 -0.5050  0.9384 -2.0241
17208SOL    HW258740  12.244   6.175   0.967  1.0354 -0.6360  2.9731
17209SOL     OW58741   2.074  12.753  10.000 -0.5353 -0.3752  0.1815
17209SOL    HW158742   2.132  12.826   9.980 -0.6676 -0.6000 -1.1314
17209SOL    HW258743   1.997  12.767   9.944 -1.8906  0.0515  2.0722
17210SOL     OW58744   1.253   2.076   3.605  0.1918  0.4120 -0.1546
17210SOL    HW158745   1.228   2.041   3.690  1.4243  0.3631  0.2093
17210SOL    HW258746   1.172   2.108   3.567 -0.6776 -1.1667  0.2776
17211SOL     OW58747   3.056   2.366   0.534 -0.2170 -0.2147  0.1275
17211SOL    HW158748   3.041   2.345   0.626  0.9193  0.7852  0.5628
17211SOL    HW258749   3.055   2.462   0.531 -3.1179 -0.1787 -1.4165
17212SOL     OW58750  10.562   4.487   8.312 -0.5861 -0.1124  0.3716
17212SOL    HW158751  10.492   4.435   8.274 -0.1391  0.5893 -1.4878
17212SOL    HW258752  10.537   4.578   8.293  0.4662  0.1750  0.3294
17213SOL     OW58753   2.946   7.466   1.249 -0.0774 -0.0447  0.5252
17213SOL    HW158754   2.990   7.543   1.212  1.2694 -1.0648 -0.0575
17213SOL    HW258755   2.934   7.407   1.175 -0.6294 -0.6364  1.0686
17214SOL     OW58756   6.857   2.577   9.549  0.3636 -0.1678 -0.2853
17214SOL    HW158757   6.809   2.496   9.533 -2.1817  0.5976  2.5934
17214SOL    HW258758   6.884   2.571   9.640 -0.9640  2.6759  0.3932
17215SOL     OW58759  10.148   9.524   3.684  0.0404  0.0215 -0.1889
17215SOL    HW158760  10.241   9.501   3.689 -0.3652 -1.4149  1.9698
17215SOL    HW258761  10.105   9.443   3.657 -0.7308  0.3175  0.1288
17216SOL     OW58762   5.959  11.328   8.979 -0.2665 -0.2351 -0.0728
17216SOL    HW158763   6.014  11.257   9.010  0.3158  0.7423  1.2304
17216SOL    HW258764   5.978  11.335   8.885  1.5241 -0.1842  0.2664
17217SOL     OW58765   3.562   1.014  11.282  0.3492 -0.2888 -0.1004
17217SOL    HW158766   3.585   0.963  11.360 -0.0368  0.9465  0.8632
17217SOL    HW258767   3.471   1.040  11.297  0.8640  1.6393  0.0212
17218SOL     OW58768   3.257   7.604   6.671  0.7564 -0.5241  0.1230
17218SOL    HW158769   3.333   7.548   6.654  1.0572 -0.1216  0.1112
17218SOL    HW258770   3.227   7.631   6.584  0.9562 -0.2173  0.1492
17219SOL     OW58771   9.429   4.635   8.214  0.2087  0.4952 -0.2498
17219SOL    HW158772   9.395   4.671   8.132 -0.8555  2.5977  1.0239
17219SOL    HW258773   9.350   4.612   8.264  0.8479 -1.1643  0.0451
17220SOL     OW58774   5.065   6.104   7.893 -0.2207 -0.2018  0.2285
17220SOL    HW158775   5.141   6.161   7.878  0.9107 -1.6005  0.4279
17220SOL    HW258776   5.095   6.017   7.866 -2.4388 -0.4649 -1.6749
17221SOL     OW58777   8.373   0.636  10.940  0.4156 -0.0295  0.5884
17221SOL    HW158778   8.432   0.687  10.885 -1.5030 -0.4907 -2.0825
17221SOL    HW258779   8.294   0.690  10.948  0.1202 -0.5899  1.7885
17222SOL     OW58780  10.883   9.374   9.517 -0.3045  0.0265  0.4420
17222SOL    HW158781  10.840   9.319   9.582 -0.0097  0.6022  1.1347
17222SOL    HW258782  10.821   9.379   9.445 -1.1921  0.4248  1.2170
17223SOL     OW58783   3.251  11.982   6.112 -0.0434 -0.1729  0.0912
17223SOL    HW158784   3.228  11.894   6.143  1.1322  0.2300  2.2770
17223SOL    HW258785   3.346  11.979   6.100 -0.2139  0.2782 -1.7476
17224SOL     OW58786  10.010   8.832   3.860  0.3919 -0.0230  0.0153
17224SOL    HW158787   9.941   8.825   3.926  0.4361  1.7834  0.3010
17224SOL    HW258788   9.999   8.753   3.806 -0.4842 -0.8724  1.3600
17225SOL     OW58789   4.657   1.926   3.635 -0.3154 -0.2099  0.6226
17225SOL    HW158790   4.578   1.894   3.678 -0.3407 -3.0459 -1.2467
17225SOL    HW258791   4.682   1.855   3.576  2.7397  1.2554 -0.0306
17226SOL     OW58792   6.396   0.760  10.203 -0.1991  0.9359  0.4191
17226SOL    HW158793   6.473   0.793  10.157  2.1421 -1.7072  2.1028
17226SOL    HW258794   6.401   0.802  10.289 -0.2777  0.3198  0.7285
17227SOL     OW58795   1.996   3.856  11.715 -0.0863 -0.1094  0.1756
17227SOL    HW158796   2.020   3.911  11.790 -3.4571  2.0440 -0.1033
17227SOL    HW258797   2.007   3.767  11.747  0.9953  0.7163  2.3554
17228SOL     OW58798   3.348  11.580   1.724  0.2811  0.4747  0.3254
17228SOL    HW158799   3.341  11.484   1.720  2.5276  0.2332  0.8541
17228SOL    HW258800   3.260  11.611   1.704 -1.1067 -1.7564  2.3796
17229SOL     OW58801   7.466   7.752  10.571  0.3292  0.6271 -0.1492
17229SOL    HW158802   7.387   7.803  10.582  2.1869  3.4495  1.1187
17229SOL    HW258803   7.485   7.715  10.657 -0.9263 -2.3846 -1.0052
17230SOL     OW58804   8.737   6.783   9.520  0.1404 -0.1699  0.1974
17230SOL    HW158805   8.768   6.751   9.435  1.3355  2.2339 -0.3737
17230SOL    HW258806   8.670   6.848   9.498 -1.2221 -1.1804  1.2287
17231SOL     OW58807   2.840   2.841   7.513  0.1907 -0.1908 -0.1952
17231SOL    HW158808   2.750   2.814   7.536  0.6650 -2.1323 -0.4045
17231SOL    HW258809   2.829   2.926   7.472 -1.4862 -0.0458  0.4375
17232SOL     OW58810   0.550  11.729   7.192  0.1785 -0.7188  0.1276
17232SOL    HW158811   0.487  11.657   7.186  0.1944 -0.6162 -1.5093
17232SOL    HW258812   0.628  11.689   7.232 -0.0691 -1.4358 -0.0904
17233SOL     OW58813  10.690   4.956   9.382 -0.2623 -0.6471 -0.2529
17233SOL    HW158814  10.750   4.911   9.324  1.5750  0.6071  0.5686
17233SOL    HW258815  10.746   4.998   9.448 -1.9240  1.4686 -0.0448
17234SOL     OW58816  10.389   2.870   0.065  0.0281  0.6001  0.3250
17234SOL    HW158817  10.370   2.803   0.130 -2.0361  1.2104  0.4067
17234SOL    HW258818  10.362   2.952   0.106 -3.3058  0.8248 -1.9142
17235SOL     OW58819   3.585   8.982   3.405  0.1340  0.2500 -0.2481
17235SOL    HW158820   3.597   8.888   3.391 -0.4170  0.2046 -0.4522
17235SOL    HW258821   3.673   9.019   3.399  0.5427 -0.4171  1.1916
17236SOL     OW58822   3.280   4.305   8.260 -0.1878  0.2420 -0.9271
17236SOL    HW158823   3.290   4.240   8.330  1.9103  0.5642 -0.8676
17236SOL    HW258824   3.290   4.390   8.303  0.0894  0.4862 -1.4531
17237SOL     OW58825   8.798  10.784   8.749 -0.1171  0.2014  0.0585
17237SOL    HW158826   8.772  10.831   8.829 -1.9020  0.9472 -0.9062
17237SOL    HW258827   8.730  10.719   8.736  0.8503 -0.7868 -0.1786
17238SOL     OW58828  10.607   6.788   2.200 -0.1770 -0.0125 -0.0730
17238SOL    HW158829  10.611   6.804   2.294 -1.7441 -1.3127  0.2543
17238SOL    HW258830  10.530   6.835   2.170  0.0105 -0.0412 -0.6198
17239SOL     OW58831   0.502   5.150   4.556 -0.0323 -0.1892 -0.2353
17239SOL    HW158832   0.435   5.171   4.621 -0.6971 -1.6805 -0.3896
17239SOL    HW258833   0.580   5.197   4.585 -0.7072  0.3064  0.8301
17240SOL     OW58834   6.139   1.148   2.785  0.1495  0.3247 -0.5137
17240SOL    HW158835   6.228   1.115   2.803 -0.0048  0.5783  0.8167
17240SOL    HW258836   6.136   1.233   2.829 -0.9151  0.0906 -0.1203
17241SOL     OW58837   1.175   5.804   3.961 -0.1396 -0.6306 -0.0724
17241SOL    HW158838   1.233   5.878   3.944 -1.8810  0.9106  0.1995
17241SOL    HW258839   1.227   5.743   4.012  1.2257  0.6883  0.1809
17242SOL     OW58840  11.130   7.954   6.759  0.0709 -0.2906  0.2807
17242SOL    HW158841  11.072   7.879   6.741  1.5222 -0.7746 -3.1511
17242SOL    HW258842  11.072   8.030   6.758 -1.1838 -1.1280  2.2074
17243SOL     OW58843  10.918   7.741  10.840  0.4470 -0.4415 -0.5501
17243SOL    HW158844  10.954   7.769  10.924  1.4289 -0.9925 -0.7635
17243SOL    HW258845  10.924   7.819  10.784  0.2472 -0.2138 -0.2573
17244SOL     OW58846  11.885   6.468  11.029 -0.4333 -0.8064  0.1258
17244SOL    HW158847  11.890   6.473  11.124 -0.0432 -0.2586  0.0821
17244SOL    HW258848  11.969   6.504  10.999 -0.8663 -0.2445 -0.4339
17245SOL     OW58849   1.794   0.195   3.133 -0.2007  0.0517 -0.1259
17245SOL    HW158850   1.790   0.108   3.093 -0.6790 -0.7825  1.6365
17245SOL    HW258851   1.853   0.245   3.076  1.2544 -1.8491 -0.3805
17246SOL     OW58852   0.974   6.801   8.606 -0.5200  0.0447  0.8302
17246SOL    HW158853   1.040   6.777   8.671 -1.7432 -1.5692  1.5430
17246SOL    HW258854   0.901   6.742   8.623 -1.4681  0.5904 -1.0670
17247SOL     OW58855   6.027   0.514   1.769 -1.0522 -0.2876 -0.0906
17247SOL    HW158856   5.994   0.519   1.859 -1.5584  0.3146 -0.2977
17247SOL    HW258857   5.972   0.577   1.720 -1.2882 -1.1612 -0.9774
17248SOL     OW58858   5.733   4.982   5.869  0.0953 -0.0428 -0.2072
17248SOL    HW158859   5.735   5.069   5.830 -2.6357  0.6992  1.0139
17248SOL    HW258860   5.694   4.926   5.802 -1.5490  0.5341  0.2020
17249SOL     OW58861   3.571   0.437   1.956  0.0599 -0.3802 -0.2480
17249SOL    HW158862   3.517   0.492   1.899  2.0258  0.3323 -1.5328
17249SOL    HW258863   3.509   0.377   1.997 -1.9149  1.4285 -0.3707
17250SOL     OW58864  10.100   1.080   0.955 -0.0837 -0.2444  0.1696
17250SOL    HW158865  10.185   1.046   0.982  0.4683  1.3061  0.4879
17250SOL    HW258866  10.112   1.175   0.951 -1.4495 -0.0821 -1.0110
17251SOL     OW58867   4.196   5.722   5.681  0.2470 -0.0481  0.2039
17251SOL    HW158868   4.289   5.738   5.667 -0.1661  1.4968 -1.0324
17251SOL    HW258869   4.179   5.755   5.769  0.5525  1.2703 -0.2082
17252SOL     OW58870   7.694   1.796   2.310 -0.2249  0.1851  0.4364
17252SOL    HW158871   7.772   1.846   2.286  0.0581 -0.0050  0.9345
17252SOL    HW258872   7.636   1.804   2.235  0.2596  0.3626  0.0743
17253SOL     OW58873   6.131  10.658   0.563  0.4506 -0.8226  0.2904
17253SOL    HW158874   6.204  10.669   0.624 -1.2319 -0.1773  2.3277
17253SOL    HW258875   6.097  10.571   0.581  1.3483 -1.5949 -1.4729
17254SOL     OW58876   3.357   3.543   8.854  0.3516 -0.0349  0.1215
17254SOL    HW158877   3.392   3.458   8.827  3.7372  1.6495 -1.2815
17254SOL    HW258878   3.355   3.538   8.949  1.2396 -1.4252  0.1053
17255SOL     OW58879   6.951   0.163   3.911  0.1936  0.6160  0.2525
17255SOL    HW158880   6.998   0.207   3.982  0.2687  2.1371 -0.6998
17255SOL    HW258881   6.969   0.070   3.925  3.1579  1.0739  0.1920
17256SOL     OW58882   2.019   8.629   9.537 -0.2301  0.2928 -0.1935
17256SOL    HW158883   2.026   8.628   9.633 -0.3103 -0.3297 -0.1868
17256SOL    HW258884   2.076   8.557   9.509  1.1960  1.5628 -0.7266
17257SOL     OW58885  10.916   0.704   1.561  0.0833  0.0317  0.0449
17257SOL    HW158886  10.921   0.706   1.465  1.7349 -1.8075  0.0073
17257SOL    HW258887  11.007   0.710   1.589 -0.1846 -1.4886  1.3898
17258SOL     OW58888  11.483  11.726  11.825  0.4080 -0.0046  0.4966
17258SOL    HW158889  11.507  11.791  11.891 -0.4438 -0.3042  1.1184
17258SOL    HW258890  11.561  11.670  11.818  1.0273  0.8599  0.1993
17259SOL     OW58891  12.845   5.112   3.915  0.3867 -0.5111  0.3547
17259SOL    HW158892  12.807   5.135   3.830  2.0700 -0.3508 -0.3972
17259SOL    HW258893  12.825   5.188   3.970  1.6262  0.6583 -0.7119
17260SOL     OW58894   9.754   4.657   8.575 -0.3569  0.1591 -0.3215
17260SOL    HW158895   9.748   4.612   8.660 -0.3136 -0.1493 -0.4802
17260SOL    HW258896   9.838   4.702   8.579 -0.7890  0.9448  0.1827
17261SOL     OW58897   6.775  11.737   9.365 -0.3038 -0.3625 -0.2858
17261SOL    HW158898   6.861  11.700   9.385 -0.3298 -0.0620  0.4267
17261SOL    HW258899   6.737  11.755   9.451 -1.5533 -1.5814 -0.5411
17262SOL     OW58900   5.992   4.822   7.167  0.3048 -0.2175  0.5560
17262SOL    HW158901   5.955   4.846   7.251 -1.3003 -1.3387  0.2033
17262SOL    HW258902   5.929   4.761   7.128  1.9072 -1.2287 -0.6341
17263SOL     OW58903   2.988   1.671   5.814 -1.0462 -0.2376  0.1488
17263SOL    HW158904   2.990   1.669   5.909  0.6257 -1.0618  0.1395
17263SOL    HW258905   2.969   1.762   5.792  1.6116  0.7038  1.3172
17264SOL     OW58906   7.902  11.428   0.812  0.2910  0.6069 -0.2406
17264SOL    HW158907   7.877  11.363   0.747 -1.6431 -0.6746  1.6483
17264SOL    HW258908   7.994  11.445   0.795  0.8445 -2.5533 -0.8851
17265SOL     OW58909   7.310   6.390   7.944  0.1701 -0.4211 -0.5089
17265SOL    HW158910   7.377   6.448   7.908 -1.1282  2.3954  1.2120
17265SOL    HW258911   7.239   6.393   7.880 -0.4752  1.2070  0.2172
17266SOL     OW58912   5.150  12.122   9.777 -0.5077  0.5371 -0.3009
17266SOL    HW158913   5.216  12.128   9.707 -0.7347 -0.2809 -0.6010
17266SOL    HW258914   5.082  12.065   9.740 -0.6290  0.0933  0.5976
17267SOL     OW58915  10.524   9.339   2.414 -0.1739 -1.0066 -0.4203
17267SOL    HW158916  10.468   9.377   2.483  0.6561 -1.7670  0.7034
17267SOL    HW258917  10.478   9.359   2.333 -0.8383  0.5300  0.2892
17268SOL     OW58918   4.248  10.239   2.423 -0.3255  0.2652 -0.4887
17268SOL    HW158919   4.279  10.196   2.344  0.2534  0.0688 -0.1573
17268SOL    HW258920   4.187  10.306   2.392 -1.1765 -0.7289 -1.0140
17269SOL     OW58921   9.254   8.118   3.539 -0.2005 -0.2766  0.5640
17269SOL    HW158922   9.227   8.207   3.518 -0.1241  0.0868  1.9038
17269SOL    HW258923   9.206   8.063   3.478  0.4789  0.7276 -0.9410
17270SOL     OW58924   7.858   9.559  10.875 -0.2041 -0.1457 -0.1168
17270SOL    HW158925   7.894   9.530  10.791  1.1200 -0.6867  0.5984
17270SOL    HW258926   7.846   9.653  10.864  0.4273 -0.1279 -0.7572
17271SOL     OW58927   0.122  10.434  11.698  0.5689  0.5023 -0.7133
17271SOL    HW158928   0.083  10.485  11.627  0.9914 -0.6745 -1.8316
17271SOL    HW258929   0.072  10.353  11.700  2.1265 -0.5281 -1.3709
17272SOL     OW58930   9.585   8.284  11.191 -0.0926 -0.2701 -0.2520
17272SOL    HW158931   9.572   8.378  11.200  0.6311 -0.1289 -0.6345
17272SOL    HW258932   9.586   8.250  11.280 -0.4330  0.0658 -0.1181
17273SOL     OW58933   0.607   7.022  12.071 -0.2268  0.0055  0.0571
17273SOL    HW158934   0.687   7.057  12.032  1.2025  0.1315  2.8262
17273SOL    HW258935   0.539   7.085  12.048  0.4769  0.0315 -2.1473
17274SOL     OW58936   6.259  10.241   0.872  0.0303 -0.3700 -1.0071
17274SOL    HW158937   6.193  10.211   0.933  1.3222 -1.8023 -0.2494
17274SOL    HW258938   6.271  10.168   0.811  1.6572 -0.5908 -0.4722
17275SOL     OW58939   6.434   0.521   6.188 -0.1348  0.2178 -0.5411
17275SOL    HW158940   6.440   0.527   6.284  1.1456 -1.0703 -0.5133
17275SOL    HW258941   6.340   0.509   6.171 -0.2664 -0.5945  0.6333
17276SOL     OW58942   3.582   3.456   2.219 -0.0411  0.1449 -0.1321
17276SOL    HW158943   3.498   3.497   2.199 -0.1230  1.4582  2.4766
17276SOL    HW258944   3.646   3.505   2.168 -0.6834 -0.0111 -1.1201
17277SOL     OW58945   8.426   1.036   6.969 -0.1602 -0.7575 -0.1562
17277SOL    HW158946   8.374   1.027   6.889 -1.7422  1.2811  0.5623
17277SOL    HW258947   8.366   1.073   7.033  1.3754 -1.2476  1.6871
17278SOL     OW58948   9.952   1.651   2.471  0.1464 -0.4521 -0.2141
17278SOL    HW158949   9.930   1.735   2.431 -0.4833 -0.2708  0.4983
17278SOL    HW258950   9.878   1.631   2.528  1.2198 -0.4600  1.2434
17279SOL     OW58951   7.840  11.029   2.455 -0.5314  0.0502 -0.2031
17279SOL    HW158952   7.763  10.980   2.425 -0.0390 -0.2879 -0.9351
17279SOL    HW258953   7.878  10.973   2.523 -0.2387 -0.3617 -0.7039
17280SOL     OW58954   1.722   2.261   2.838 -0.0656  0.3113 -0.4092
17280SOL    HW158955   1.710   2.240   2.746  1.0959  0.9568 -0.7251
17280SOL    HW258956   1.633   2.267   2.873 -0.5544 -3.2225 -0.6669
17281SOL     OW58957   2.604   9.917   6.063 -0.0065 -0.0520 -0.1136
17281SOL    HW158958   2.573   9.996   6.020  0.1256 -0.3205 -0.7161
17281SOL    HW258959   2.695   9.937   6.087 -0.6834  0.8133  1.8563
17282SOL     OW58960   6.238   8.120   1.728 -0.6697 -0.0005  0.0831
17282SOL    HW158961   6.274   8.204   1.698 -0.9436  0.0174 -0.1908
17282SOL    HW258962   6.152   8.115   1.688 -0.4938 -0.6057 -0.2252
17283SOL     OW58963   1.779   3.421   7.534  0.0248 -0.3328 -0.2694
17283SOL    HW158964   1.856   3.422   7.591 -0.1318  1.4033 -0.0487
17283SOL    HW258965   1.784   3.336   7.490  2.3872 -0.0428 -0.7006
17284SOL     OW58966  11.861   4.461   6.943 -0.7942 -0.5015  0.0559
17284SOL    HW158967  11.922   4.390   6.922 -0.7073 -0.7132  0.9901
17284SOL    HW258968  11.895   4.499   7.023 -1.4147 -0.0624  0.1166
17285SOL     OW58969   9.681  12.593   0.199  0.4588 -0.6661  0.1893
17285SOL    HW158970   9.685  12.499   0.214  0.5404 -0.6381  0.3423
17285SOL    HW258971   9.594  12.619   0.229  0.8169 -0.5207  1.1193
17286SOL     OW58972   6.807   5.909   7.491  0.6016  0.0220  0.0707
17286SOL    HW158973   6.712   5.896   7.492  0.5040  0.7094  1.2121
17286SOL    HW258974   6.826   5.937   7.401 -0.3549  0.4226 -0.0239
17287SOL     OW58975  10.840  12.871   4.340  0.1864  0.0405  0.0105
17287SOL    HW158976  10.855  12.809   4.411 -2.2243 -0.0182  0.5824
17287SOL    HW258977  10.785  12.822   4.278 -0.2113  1.0213 -0.4238
17288SOL     OW58978   4.231   2.858   1.670  0.1815  0.1113  0.2976
17288SOL    HW158979   4.221   2.794   1.740 -2.3998 -0.6073 -0.6383
17288SOL    HW258980   4.302   2.823   1.616 -0.3333 -1.3264  0.5038
17289SOL     OW58981   2.176   3.042   3.409 -0.2345  0.2654 -0.2784
17289SOL    HW158982   2.127   2.990   3.473 -1.6925 -0.0996 -1.6193
17289SOL    HW258983   2.110   3.098   3.368  0.5556  0.1818 -1.7463
17290SOL     OW58984   1.413   0.459   7.813 -0.2974 -0.0663 -0.6985
17290SOL    HW158985   1.423   0.374   7.857 -3.6809 -1.1804 -1.7126
17290SOL    HW258986   1.429   0.524   7.882  0.2653 -1.5680  0.6538
17291SOL     OW58987   1.552   4.621   9.250  0.3640 -0.5639 -0.4503
17291SOL    HW158988   1.621   4.559   9.272 -0.1854 -1.0442 -0.0264
17291SOL    HW258989   1.487   4.609   9.319 -0.1708 -0.1676 -0.8762
17292SOL     OW58990   3.058   0.745   9.270  0.1803 -0.2482 -0.8964
17292SOL    HW158991   3.038   0.830   9.230  1.5963  0.1156 -0.8625
17292SOL    HW258992   3.026   0.753   9.360  0.5971  0.3708 -0.7978
17293SOL     OW58993   7.010   1.335   9.547 -0.2594  0.6073 -0.7137
17293SOL    HW158994   6.926   1.370   9.578 -1.3113 -3.0867  1.2838
17293SOL    HW258995   6.986   1.280   9.472 -0.0960 -1.9924  1.0139
17294SOL     OW58996   3.378   5.366   2.126  0.4729 -0.1128  0.1691
17294SOL    HW158997   3.374   5.377   2.221  1.3813  0.3368  0.1661
17294SOL    HW258998   3.296   5.406   2.095 -1.0659 -2.5097  0.9062
17295SOL     OW58999   1.515   8.220  12.944 -0.5448 -0.1604  0.4862
17295SOL    HW159000   1.578   8.200  13.013 -1.6503  1.6695  2.1421
17295SOL    HW259001   1.542   8.305  12.910 -0.2507 -0.8557 -1.1162
17296SOL     OW59002   2.642   3.621   1.586  0.8751 -0.0777  0.0372
17296SOL    HW159003   2.726   3.663   1.569  1.7861 -1.2246  1.4071
17296SOL    HW259004   2.660   3.527   1.574 -0.2406 -0.3188  0.1808
17297SOL     OW59005   3.776   3.681   0.242  0.0625 -0.1773 -0.7898
17297SOL    HW159006   3.712   3.730   0.192 -0.4586 -0.1212 -0.0897
17297SOL    HW259007   3.838   3.746   0.274 -0.0148 -0.1149 -0.7674
17298SOL     OW59008   6.598   9.764   8.583  0.3561 -0.2238 -0.8195
17298SOL    HW159009   6.637   9.847   8.554 -0.8853  0.6098 -0.1842
17298SOL    HW259010   6.632   9.751   8.672 -1.6428  1.1421  0.2288
17299SOL     OW59011   8.837   2.552   0.782 -0.0080 -0.7623 -0.0145
17299SOL    HW159012   8.897   2.596   0.722  0.7787 -3.3973 -1.3006
17299SOL    HW259013   8.887   2.544   0.864  0.3736 -0.5245 -0.2207
17300SOL     OW59014   5.393   5.396  11.266  0.1217 -0.2786  0.0657
17300SOL    HW159015   5.488   5.402  11.259  0.1304 -0.8779 -0.4346
17300SOL    HW259016   5.363   5.486  11.270  0.7118 -0.0878  0.2372
17301SOL     OW59017   8.186  12.057   7.861  0.8400 -0.4060  0.1349
17301SOL    HW159018   8.212  12.149   7.870  0.4369 -0.3089  0.3393
17301SOL    HW259019   8.247  12.009   7.917  1.0228 -0.2588  0.0612
17302SOL     OW59020  10.578   4.271   4.576 -0.0424  0.0309 -0.4905
17302SOL    HW159021  10.504   4.320   4.540  0.2148  0.9950  0.2659
17302SOL    HW259022  10.635   4.254   4.501  1.4164  3.6069 -0.3779
17303SOL     OW59023   6.723   0.472   8.262 -0.2644 -0.4884 -0.6312
17303SOL    HW159024   6.708   0.390   8.310  0.8123 -0.9700 -1.0967
17303SOL    HW259025   6.658   0.533   8.298  0.7740 -0.6960  1.7512
17304SOL     OW59026  10.015   0.774   3.935 -0.0021 -0.0676 -0.2127
17304SOL    HW159027  10.032   0.793   3.843  3.5999 -0.4794  0.2304
17304SOL    HW259028   9.942   0.713   3.934 -0.8409  0.8608 -2.6967
17305SOL     OW59029  11.730  10.461   5.119  0.1342  0.6672 -0.3093
17305SOL    HW159030  11.805  10.441   5.174  1.7763  2.6504 -1.6744
17305SOL    HW259031  11.706  10.378   5.079 -0.9953 -0.8152  3.0655
17306SOL     OW59032  11.885   6.185   1.125 -0.2886 -0.0509 -0.1349
17306SOL    HW159033  11.825   6.260   1.126 -0.2869 -0.0470  1.1996
17306SOL    HW259034  11.858   6.131   1.198  1.2699 -0.0968  0.4582
17307SOL     OW59035   4.281   0.884  10.569 -0.4828 -0.3528  0.1632
17307SOL    HW159036   4.287   0.849  10.658 -0.2166  0.1285  0.3323
17307SOL    HW259037   4.372   0.903  10.545 -0.8286  5.0721  1.9881
17308SOL     OW59038  10.449   6.053   5.051  0.3783  0.6458 -0.3586
17308SOL    HW159039  10.371   6.036   4.998 -1.3820  1.3506  1.8507
17308SOL    HW259040  10.435   6.002   5.131  2.6729  0.0488 -0.2965
17309SOL     OW59041   7.583   9.041  10.887  0.6968 -0.2190  0.3577
17309SOL    HW159042   7.547   9.055  10.800  0.9015 -1.7353 -0.0028
17309SOL    HW259043   7.508   9.046  10.946  0.1014 -1.7560 -0.2115
17310SOL     OW59044   1.676   3.637   1.585 -0.5506  0.3425  0.6837
17310SOL    HW159045   1.639   3.565   1.533 -1.8327  0.8732  0.8090
17310SOL    HW259046   1.623   3.638   1.665  1.0927 -0.1653  1.8274
17311SOL     OW59047   9.169  10.083  10.127  0.1995 -0.1540  0.8465
17311SOL    HW159048   9.093  10.029  10.106 -0.4148  0.7288  0.7612
17311SOL    HW259049   9.219  10.087  10.045  0.3740 -0.7759  0.9167
17312SOL     OW59050   7.383   8.730  12.440 -0.1918  0.1774 -0.1670
17312SOL    HW159051   7.357   8.794  12.506 -1.2901  1.3415 -1.6607
17312SOL    HW259052   7.400   8.783  12.361  1.3319 -1.1353 -0.7728
17313SOL     OW59053  12.289   1.081   1.140  0.0615 -0.7235  0.0799
17313SOL    HW159054  12.274   0.987   1.129 -0.0042 -0.7458  0.3295
17313SOL    HW259055  12.201   1.118   1.146  0.0853 -0.7857  1.0339
17314SOL     OW59056   3.330   4.774  11.036  0.3686 -0.3937  0.1689
17314SOL    HW159057   3.400   4.836  11.058  0.0566  0.9228 -2.2849
17314SOL    HW259058   3.250   4.826  11.040 -0.2630 -1.3865  0.8985
17315SOL     OW59059   9.772  12.849   8.772  0.2957  0.2406  0.1791
17315SOL    HW159060   9.697  12.792   8.787  0.4918  0.5102  2.6691
17315SOL    HW259061   9.734  12.935   8.756  0.0553  0.3235  1.1622
17316SOL     OW59062   3.696  11.276   8.669  0.5809 -0.4715  0.2015
17316SOL    HW159063   3.615  11.254   8.624  0.8536  1.5996 -1.4738
17316SOL    HW259064   3.754  11.202   8.653 -0.5074 -1.3457  0.2357
17317SOL     OW59065   7.231   1.661   0.147 -0.1374 -0.4950  0.3033
17317SOL    HW159066   7.294   1.724   0.183  2.1732 -3.1709  1.2985
17317SOL    HW259067   7.149   1.681   0.192 -0.1311  3.0219 -0.9222
17318SOL     OW59068   7.514   6.385   5.227  0.0186 -0.4910  0.3783
17318SOL    HW159069   7.508   6.297   5.190 -2.3254  0.4619 -1.7580
17318SOL    HW259070   7.600   6.416   5.201  0.7387 -1.9848  0.8541
17319SOL     OW59071   7.958   5.201   9.677  0.4327 -0.9730 -0.5839
17319SOL    HW159072   7.878   5.222   9.725  0.4607  1.7483 -1.5323
17319SOL    HW259073   8.001   5.286   9.664  2.3371 -2.0789 -2.0418
17320SOL     OW59074   3.342   4.833   4.312 -0.2019 -0.2028 -0.1384
17320SOL    HW159075   3.290   4.894   4.365 -0.2919 -1.8779  1.8344
17320SOL    HW259076   3.392   4.889   4.253 -0.5288  1.7647  1.3402
17321SOL     OW59077   3.078   5.393   7.900 -0.0944 -0.1171 -0.1357
17321SOL    HW159078   3.038   5.474   7.932 -0.7998  0.3313 -2.0089
17321SOL    HW259079   3.071   5.332   7.974  1.5476  1.8195  1.7601
17322SOL     OW59080   5.067   9.302   0.345 -0.2252  0.3606  0.4495
17322SOL    HW159081   5.161   9.310   0.365  0.2102 -0.0693 -1.2093
17322SOL    HW259082   5.023   9.330   0.425  1.3026 -2.3586  2.4539
17323SOL     OW59083   7.825   0.870   7.126  0.4015  0.3604 -0.5825
17323SOL    HW159084   7.844   0.856   7.218  0.2587  0.4166 -0.5438
17323SOL    HW259085   7.823   0.782   7.088 -1.6541  0.1418 -0.1096
17324SOL     OW59086   9.130  12.519   8.271 -0.0614  0.0565  0.0425
17324SOL    HW159087   9.078  12.584   8.319  0.6020 -0.3738  1.3752
17324SOL    HW259088   9.208  12.567   8.243 -0.7643  0.4897 -1.2596
17325SOL     OW59089   7.239   0.698  11.408  0.0946  0.4399  0.1278
17325SOL    HW159090   7.151   0.733  11.425 -0.7269 -1.6665  0.4560
17325SOL    HW259091   7.265   0.658  11.491  0.2583 -1.1945 -0.6680
17326SOL     OW59092   2.764  12.806   5.367  0.0724 -0.4339 -0.6143
17326SOL    HW159093   2.706  12.829   5.295 -0.9132 -0.4563  0.1568
17326SOL    HW259094   2.751  12.712   5.379 -0.7604 -0.1965  0.4345
17327SOL     OW59095   8.314   6.616   8.772  0.6471 -0.1135 -0.7591
17327SOL    HW159096   8.230   6.572   8.767 -0.5619  1.4428  2.5604
17327SOL    HW259097   8.342   6.626   8.681 -2.3557 -1.3971 -1.9421
17328SOL     OW59098  12.018   8.169   9.924  0.1780  0.4710  0.6741
17328SOL    HW159099  11.992   8.235   9.860  2.6650 -0.4295 -1.4458
17328SOL    HW259100  12.048   8.220  10.000 -1.7434  1.5820  0.7661
17329SOL     OW59101   4.194   6.776   3.102  0.0509  0.3848  0.4566
17329SOL    HW159102   4.117   6.826   3.128  0.4177  1.3359 -0.2398
17329SOL    HW259103   4.166   6.684   3.107 -0.8626  0.6789  1.0030
17330SOL     OW59104   3.969   4.733   3.419 -0.5988 -0.2192  0.4105
17330SOL    HW159105   4.039   4.795   3.396 -0.2829 -0.2156  1.3554
17330SOL    HW259106   4.015   4.660   3.461 -1.3347  0.9227  3.4642
17331SOL     OW59107   5.390   6.090   5.191  0.0859  0.4438  0.2808
17331SOL    HW159108   5.441   6.054   5.119 -1.6876  0.3233 -0.9578
17331SOL    HW259109   5.442   6.165   5.222  1.7505 -0.5886  0.1127
17332SOL     OW59110   7.739   8.339  11.723 -0.1123 -0.0238 -0.4057
17332SOL    HW159111   7.722   8.410  11.785  0.9484  0.0124 -0.1349
17332SOL    HW259112   7.751   8.383  11.639 -0.8015 -0.0092 -0.5056
17333SOL     OW59113   0.665   1.136   7.474  0.0583  0.2618 -0.0139
17333SOL    HW159114   0.640   1.194   7.546 -0.1619 -1.3021  1.2336
17333SOL    HW259115   0.616   1.056   7.490  1.8228 -0.9910 -0.5735
17334SOL     OW59116   2.269  12.111   5.569  0.4789 -0.0517 -0.2174
17334SOL    HW159117   2.347  12.104   5.624  0.6086  0.0123 -0.3944
17334SOL    HW259118   2.288  12.057   5.493  0.2727 -0.1908 -0.1737
17335SOL     OW59119   5.674   8.550   0.670  0.3360  0.3286  0.0500
17335SOL    HW159120   5.582   8.568   0.654  0.3822  0.6524  0.1543
17335SOL    HW259121   5.717   8.635   0.667  0.6134  0.1936  0.1219
17336SOL     OW59122   7.193  11.412   8.783 -0.2043 -0.0589 -0.4093
17336SOL    HW159123   7.182  11.320   8.759 -0.9786  0.2639 -1.3733
17336SOL    HW259124   7.109  11.436   8.823  0.0559  0.1869 -0.0043
17337SOL     OW59125   2.463  11.768  12.355  0.2735  0.6074 -0.5454
17337SOL    HW159126   2.375  11.799  12.335  0.3252  0.4237 -1.0770
17337SOL    HW259127   2.507  11.843  12.394 -0.2375  0.5857  0.0741
17338SOL     OW59128  10.971   0.390   7.631 -0.1838 -0.1977 -0.4051
17338SOL    HW159129  10.917   0.377   7.709  0.0224 -0.8760 -0.3694
17338SOL    HW259130  11.059   0.366   7.659  0.2739  1.5399 -0.2762
17339SOL     OW59131   5.268   5.163   5.649 -0.2141 -0.0700 -0.4309
17339SOL    HW159132   5.323   5.194   5.577  1.6315 -1.5137  0.2724
17339SOL    HW259133   5.251   5.241   5.702  1.6040  0.3540 -0.4175
17340SOL     OW59134   7.136  10.684  12.391 -0.6274  0.1417  0.5172
17340SOL    HW159135   7.176  10.639  12.317  0.6046  1.1396  0.5306
17340SOL    HW259136   7.061  10.729  12.354 -1.0242 -0.7480  0.2244
17341SOL     OW59137  11.246   7.828   7.330  0.5095  0.3177  0.2894
17341SOL    HW159138  11.167   7.876   7.354  1.0950  1.3020  0.3139
17341SOL    HW259139  11.249   7.830   7.235 -0.7745 -1.8819  0.1393
17342SOL     OW59140   7.750   3.898   5.128  0.0250  0.1756  0.0535
17342SOL    HW159141   7.757   3.976   5.184 -1.5585  0.2356  0.2227
17342SOL    HW259142   7.818   3.910   5.062  1.3617  0.5389  1.4276
17343SOL     OW59143   3.652  11.244  11.048  0.1415  0.1742  0.5987
17343SOL    HW159144   3.631  11.157  11.013  0.2070  1.0379 -1.7449
17343SOL    HW259145   3.706  11.226  11.125 -0.4528 -1.8614  0.6142
17344SOL     OW59146  11.963   4.376   1.223 -0.2873 -0.0632  0.9373
17344SOL    HW159147  11.970   4.376   1.318  1.1619 -0.4872  0.8622
17344SOL    HW259148  11.999   4.292   1.196  1.2820  0.8747 -0.0668
17345SOL     OW59149  10.152  12.090   3.727  0.1907 -0.0206 -0.0202
17345SOL    HW159150  10.163  12.057   3.638  1.8865 -1.2866  0.6259
17345SOL    HW259151  10.142  12.185   3.715  2.0723  0.0625 -1.4747
17346SOL     OW59152   5.198   9.290   8.470  0.2304  0.4951 -0.3894
17346SOL    HW159153   5.186   9.220   8.534 -0.7746  0.1452 -0.9346
17346SOL    HW259154   5.122   9.347   8.483 -0.6475 -0.2165 -2.0134
17347SOL     OW59155   8.403  10.463   6.156 -0.7428  0.1408 -0.3541
17347SOL    HW159156   8.486  10.454   6.202 -1.1678  0.5634  0.5263
17347SOL    HW259157   8.338  10.424   6.215 -1.5591  2.2721  0.2590
17348SOL     OW59158   9.575   3.974   8.392 -0.0596  0.1842  0.0158
17348SOL    HW159159   9.589   4.058   8.348 -0.6169  0.4426  0.3248
17348SOL    HW259160   9.571   3.996   8.485  4.3010 -0.6838  0.6650
17349SOL     OW59161   5.619   7.458  10.050  0.5293 -1.0995  0.1865
17349SOL    HW159162   5.577   7.457   9.964 -0.9274  1.3820  0.7792
17349SOL    HW259163   5.651   7.548  10.060  0.9106 -1.4171  2.1408
17350SOL     OW59164   3.885   8.785   3.476  0.1994  0.0392  0.2127
17350SOL    HW159165   3.895   8.855   3.541  0.3077  0.2548 -0.0341
17350SOL    HW259166   3.857   8.830   3.397  1.9200  0.0272 -0.4368
17351SOL     OW59167   2.715  12.029   7.345  0.6006 -0.0343 -0.5526
17351SOL    HW159168   2.710  12.019   7.440  2.2692 -0.4750 -0.4817
17351SOL    HW259169   2.655  11.963   7.310 -0.8066  0.8114  0.1750
17352SOL     OW59170  10.707   9.267   0.213 -0.1262  0.0686 -0.3125
17352SOL    HW159171  10.732   9.358   0.226 -0.4446  0.4019 -1.8450
17352SOL    HW259172  10.771   9.217   0.263  1.8034  1.0190 -1.7173
17353SOL     OW59173   3.237   9.779   5.698  0.0520  0.3962 -0.3849
17353SOL    HW159174   3.235   9.695   5.652  0.1127 -0.8362  1.7124
17353SOL    HW259175   3.230   9.755   5.791  0.7928  2.6739  0.3187
17354SOL     OW59176   4.698   2.086  10.037  0.4212  0.4354  0.1607
17354SOL    HW159177   4.625   2.074  10.098  0.4978  1.9755  0.6013
17354SOL    HW259178   4.702   2.181  10.023 -0.4063  0.1183 -3.2555
17355SOL     OW59179   0.416   4.864   8.283 -0.5157 -0.1818 -0.4115
17355SOL    HW159180   0.412   4.785   8.230 -0.1883  0.2258 -1.0470
17355SOL    HW259181   0.410   4.936   8.221  1.1255  0.3311 -0.0364
17356SOL     OW59182   6.373   0.755   2.927  0.2361  0.2807  0.1974
17356SOL    HW159183   6.439   0.822   2.945  1.2754 -0.4521 -0.7964
17356SOL    HW259184   6.338   0.779   2.841  0.8032 -0.5845 -0.2851
17357SOL     OW59185   2.391   1.242   6.921  0.2487  0.0562  0.3150
17357SOL    HW159186   2.448   1.168   6.941 -0.2744 -0.0770  1.3470
17357SOL    HW259187   2.302   1.210   6.936  0.0739  1.3781  2.6227
17358SOL     OW59188   4.098   4.581   5.686 -0.1464 -0.3435 -0.4288
17358SOL    HW159189   4.051   4.499   5.696 -0.1214 -0.1748  1.5267
17358SOL    HW259190   4.128   4.581   5.595 -2.0670 -1.4292 -1.1139
17359SOL     OW59191   0.533   5.497   6.550  0.1895  0.1720 -0.0533
17359SOL    HW159192   0.574   5.457   6.627 -1.4655  0.6523  1.1400
17359SOL    HW259193   0.538   5.591   6.567  1.3866  0.3974 -1.4236
17360SOL     OW59194   1.843   0.987   8.221 -0.0092  0.1966 -0.0996
17360SOL    HW159195   1.902   1.002   8.147 -1.3417  0.4509 -1.1399
17360SOL    HW259196   1.889   1.024   8.296  0.7176  1.2996 -1.0618
17361SOL     OW59197  11.062   9.055   1.913  0.0061  0.1152  0.4158
17361SOL    HW159198  11.013   9.021   1.988  1.0279 -0.2731  0.9159
17361SOL    HW259199  11.129   9.111   1.951  0.2865  0.2314 -0.2319
17362SOL     OW59200   7.217  11.018  12.957  0.7308  0.0552 -0.1530
17362SOL    HW159201   7.134  11.037  12.912  0.2812 -0.1595  0.5779
17362SOL    HW259202   7.240  11.100  13.001 -1.2288 -0.9466  3.0337
17363SOL     OW59203   3.073   6.049  11.021  0.0403 -0.1598 -0.2401
17363SOL    HW159204   3.063   6.059  10.927 -1.0436 -0.5816 -0.1766
17363SOL    HW259205   2.998   6.095  11.059  0.3156 -0.2237  0.4077
17364SOL     OW59206  11.679   9.774   0.299 -0.0383 -0.6096  0.4250
17364SOL    HW159207  11.642   9.689   0.323  0.0902 -0.4614  1.1661
17364SOL    HW259208  11.620   9.838   0.340 -0.4871 -0.3249 -0.6438
17365SOL     OW59209  10.674   1.503   0.228  0.1674  0.4659  0.4284
17365SOL    HW159210  10.678   1.532   0.136 -1.2598  0.8682  0.4818
17365SOL    HW259211  10.614   1.564   0.270 -1.0892 -1.1706  1.0825
17366SOL     OW59212   5.164   1.642   0.872  0.0424  0.0351  0.2806
17366SOL    HW159213   5.143   1.717   0.817 -3.7856  0.0101  1.4434
17366SOL    HW259214   5.188   1.573   0.810  0.7280  1.3225 -0.9679
17367SOL     OW59215   1.610   3.072   7.067 -0.0856 -0.4460 -0.6085
17367SOL    HW159216   1.617   3.155   7.113 -0.9214 -1.0721  0.7103
17367SOL    HW259217   1.552   3.091   6.993  1.5145  0.6419 -1.6373
17368SOL     OW59218   7.242  10.045   2.926  0.2728 -0.0172 -0.4542
17368SOL    HW159219   7.229  10.072   2.835 -0.4608 -0.1850 -0.4075
17368SOL    HW259220   7.244   9.950   2.923 -0.1594 -0.0354 -0.2469
17369SOL     OW59221   0.358   1.090  11.506  0.1490  0.1043 -0.1589
17369SOL    HW159222   0.408   1.028  11.453 -1.6671 -1.9712  0.4160
17369SOL    HW259223   0.293   1.126  11.446  1.2884  1.6462 -0.5274
17370SOL     OW59224   2.308   5.044  10.756  0.0512 -0.3452  0.0791
17370SOL    HW159225   2.336   5.059  10.847 -0.7782 -1.1798  0.4890
17370SOL    HW259226   2.213   5.051  10.759 -0.0498 -1.3478 -0.5405
17371SOL     OW59227  11.300  12.131  12.141 -0.1528 -0.0582  0.5260
17371SOL    HW159228  11.296  12.209  12.086 -0.2959  0.2666  0.9862
17371SOL    HW259229  11.343  12.162  12.222  0.8791 -0.7305  0.2468
17372SOL     OW59230   3.611  11.233   7.263 -0.2610  0.5330 -0.3104
17372SOL    HW159231   3.526  11.274   7.281  0.0024  1.3548 -0.8822
17372SOL    HW259232   3.589  11.150   7.220 -0.8351 -0.5103  1.8289
17373SOL     OW59233  12.903   3.447   4.007  0.0035 -0.1526 -0.3814
17373SOL    HW159234  12.855   3.510   3.954 -2.5934 -0.7026  1.1255
17373SOL    HW259235  12.977   3.496   4.043  1.3561  0.4526 -3.6278
17374SOL     OW59236  12.017   2.514   7.782 -0.1841  0.1418  0.4626
17374SOL    HW159237  11.982   2.429   7.807 -0.7725  0.4739  0.7637
17374SOL    HW259238  11.980   2.576   7.845 -0.7293  0.8037 -0.4879
17375SOL     OW59239   1.155   3.299   8.242 -0.1790  0.8780 -0.8627
17375SOL    HW159240   1.076   3.353   8.251 -1.8024 -1.4202 -0.3365
17375SOL    HW259241   1.149   3.263   8.153 -1.3413 -1.5366  0.1075
17376SOL     OW59242   6.355   9.849   0.439 -0.5125  0.0138  0.1318
17376SOL    HW159243   6.291   9.912   0.471  0.3021  0.5566  0.7132
17376SOL    HW259244   6.361   9.866   0.345  0.0983  1.1737  0.3690
17377SOL     OW59245   7.005  10.761   8.519  0.4362  0.8192 -0.6880
17377SOL    HW159246   6.939  10.729   8.457  2.2364 -0.4647 -2.0391
17377SOL    HW259247   7.014  10.691   8.584  1.9543 -0.0287 -1.7414
17378SOL     OW59248  12.092   5.544   4.734  0.0358 -0.6130  0.1151
17378SOL    HW159249  12.029   5.486   4.690 -2.0389  2.6010 -1.5699
17378SOL    HW259250  12.172   5.493   4.740 -1.5990 -3.5847 -1.2943
17379SOL     OW59251  11.629   5.562   3.184  0.0943 -0.0838  0.2260
17379SOL    HW159252  11.607   5.480   3.141 -0.0611  0.3038 -0.4432
17379SOL    HW259253  11.721   5.553   3.208  0.5690  0.1984 -1.3735
17380SOL     OW59254   1.951   1.964  11.955  0.0932  0.2298  0.2974
17380SOL    HW159255   1.862   1.932  11.966 -0.6200  2.4871  1.7642
17380SOL    HW259256   1.943   2.036  11.892  1.7293 -2.4531 -3.3760
17381SOL     OW59257  12.936   6.509   0.615 -0.0393  0.2207  0.1535
17381SOL    HW159258  12.873   6.484   0.547  0.4819 -0.1090 -0.2083
17381SOL    HW259259  12.980   6.428   0.638 -0.0959  0.3637  0.7741
17382SOL     OW59260   8.900   4.054   5.642 -0.0969  0.1461 -0.4905
17382SOL    HW159261   8.840   4.126   5.624 -1.9516 -1.2443 -0.1739
17382SOL    HW259262   8.873   4.021   5.728  1.8289  0.1274  0.1414
17383SOL     OW59263   5.344  12.371   6.407  0.0445 -1.0127  0.4942
17383SOL    HW159264   5.358  12.339   6.496  1.3965 -2.2011 -0.0861
17383SOL    HW259265   5.431  12.400   6.378 -0.8174  1.6434  0.3616
17384SOL     OW59266  10.998   7.608   8.884  0.4896 -0.2462  0.0039
17384SOL    HW159267  11.066   7.551   8.848  1.1231 -0.5831  1.6668
17384SOL    HW259268  10.946   7.551   8.940 -0.1997  0.3546 -0.0179
17385SOL     OW59269  11.811   6.622  12.508  0.1795  0.6102  0.5594
17385SOL    HW159270  11.897   6.662  12.519  0.3786  0.9525 -1.7555
17385SOL    HW259271  11.779   6.655  12.424 -1.6100 -0.6088  0.6893
17386SOL     OW59272   6.249   5.733   7.518 -0.3906  0.6232 -0.5502
17386SOL    HW159273   6.238   5.698   7.606 -0.0655  1.3153 -0.2322
17386SOL    HW259274   6.272   5.825   7.531  2.3469  0.1270 -1.2593
17387SOL     OW59275   0.325   7.210   1.163 -0.1267  0.1874 -1.0130
17387SOL    HW159276   0.257   7.143   1.162 -0.4519  0.5130 -2.7703
17387SOL    HW259277   0.329   7.239   1.255 -2.1201 -0.0487 -0.8204
17388SOL     OW59278  11.665  10.654   6.045  0.5898 -0.4942 -0.1304
17388SOL    HW159279  11.575  10.641   6.076  1.0234 -0.1226  1.3364
17388SOL    HW259280  11.659  10.729   5.986 -0.3516 -1.5796 -1.4919
17389SOL     OW59281   2.655  11.996   8.543 -0.3158  0.0493 -0.8469
17389SOL    HW159282   2.732  11.943   8.565 -1.8416 -2.6934 -1.5482
17389SOL    HW259283   2.690  12.081   8.518  2.2320 -0.1626  1.5600
17390SOL     OW59284   9.020   8.674   4.025 -0.1131  0.2184  0.0999
17390SOL    HW159285   8.996   8.734   4.096  0.0640  0.9558 -0.4518
17390SOL    HW259286   9.036   8.731   3.950  1.4995 -0.3925 -0.0618
17391SOL     OW59287   3.167   6.411   4.853  0.1865  0.1731  0.0349
17391SOL    HW159288   3.240   6.350   4.844 -0.6843 -1.0659  0.9310
17391SOL    HW259289   3.157   6.450   4.766  0.8568 -0.8756 -0.5321
17392SOL     OW59290   4.182   1.175   9.893 -0.0824 -0.0902 -0.2420
17392SOL    HW159291   4.241   1.227   9.949 -0.0645 -2.5465  2.2706
17392SOL    HW259292   4.183   1.220   9.809  0.6182  3.3886  1.4400
17393SOL     OW59293  12.707   8.943   2.690  0.7485 -0.0626 -0.4790
17393SOL    HW159294  12.728   8.851   2.705 -0.2745 -0.0778  1.0909
17393SOL    HW259295  12.783   8.991   2.723  1.2934 -0.3312 -1.3216
17394SOL     OW59296   4.443   4.016   8.033  0.4455 -0.0547 -0.0230
17394SOL    HW159297   4.497   3.974   7.967 -2.0257  0.9017 -2.8592
17394SOL    HW259298   4.491   4.096   8.056  2.2856 -1.3596  0.9882
17395SOL     OW59299  11.827  12.588  12.788  0.1432 -0.1998  0.4954
17395SOL    HW159300  11.870  12.518  12.836  0.9441 -0.7212 -0.9072
17395SOL    HW259301  11.899  12.643  12.756 -0.2585 -0.5185 -1.0378
17396SOL     OW59302   9.718   8.452   6.581 -0.3721 -0.2831  0.3886
17396SOL    HW159303   9.640   8.402   6.557 -0.3135  0.6644 -2.0300
17396SOL    HW259304   9.707   8.536   6.538  1.9640 -0.1044  0.0387
17397SOL     OW59305   6.761   3.308   2.611  0.6372 -0.2810  0.0095
17397SOL    HW159306   6.785   3.356   2.690 -1.6406  0.9713  0.0450
17397SOL    HW259307   6.678   3.265   2.633  0.0538 -0.0682 -1.5967
17398SOL     OW59308   4.860   3.709   5.385 -0.1715  0.2204  0.1219
17398SOL    HW159309   4.835   3.662   5.465  1.1225  0.9811  1.0129
17398SOL    HW259310   4.782   3.760   5.362 -1.6055 -2.2378 -0.8593
17399SOL     OW59311  11.873  12.624   6.992  0.0548 -0.6382  0.5236
17399SOL    HW159312  11.964  12.647   7.010 -0.0482  0.0676  0.1705
17399SOL    HW259313  11.878  12.541   6.944  0.7041  0.7290 -1.9548
17400SOL     OW59314   3.244   7.908   6.004  0.8750  0.3052 -0.2041
17400SOL    HW159315   3.237   7.988   5.951  2.3297  0.2433 -0.5292
17400SOL    HW259316   3.155   7.873   6.006 -0.0068  2.4368  0.7861
17401SOL     OW59317   8.961   8.486   4.541 -0.5416  0.3631  0.1908
17401SOL    HW159318   9.024   8.558   4.552 -0.8914  0.6277  0.4617
17401SOL    HW259319   8.991   8.440   4.463  0.9622 -0.4982  1.2210
17402SOL     OW59320   6.645   7.000   2.777  0.3490  0.1522 -0.2934
17402SOL    HW159321   6.633   7.065   2.846 -0.1436 -2.1169  1.8776
17402SOL    HW259322   6.591   7.032   2.705 -0.1218  1.9555  0.7899
17403SOL     OW59323   1.906   0.921   1.965  0.1542 -0.1873  0.2559
17403SOL    HW159324   1.900   1.002   1.915 -0.3655 -0.8218 -0.7618
17403SOL    HW259325   1.862   0.940   2.048 -0.1297  0.5160 -0.0482
17404SOL     OW59326   1.892   4.017   3.675 -0.7181  0.0594  0.4817
17404SOL    HW159327   1.840   3.974   3.608 -0.1537 -0.9646  0.6662
17404SOL    HW259328   1.839   4.091   3.703 -0.4808  1.2211 -1.8876
17405SOL     OW59329   8.207   1.240  10.074  0.1267  0.2706  0.2001
17405SOL    HW159330   8.175   1.155  10.043 -1.3397  0.5536  0.8180
17405SOL    HW259331   8.151   1.304  10.029  0.1389  0.8227  0.9509
17406SOL     OW59332   0.190   2.721   4.795  0.6066  0.0420 -0.0990
17406SOL    HW159333   0.123   2.752   4.735  1.1845  0.5188 -0.5130
17406SOL    HW259334   0.150   2.725   4.881 -0.0343 -0.0832 -0.3884
17407SOL     OW59335   0.867   6.282   5.980 -0.3218 -0.2074  0.3931
17407SOL    HW159336   0.957   6.279   6.011  0.2268  2.4968 -0.6123
17407SOL    HW259337   0.852   6.197   5.939  1.8959 -0.6074  0.3164
17408SOL     OW59338  11.559   1.837   9.911 -0.8397  0.5756  0.0705
17408SOL    HW159339  11.566   1.777   9.838  0.0775  0.4145  0.2798
17408SOL    HW259340  11.634   1.896   9.902 -1.7910  1.7964 -0.2126
17409SOL     OW59341   3.241   5.533   4.697 -0.6940  0.2987  0.0475
17409SOL    HW159342   3.178   5.600   4.668  1.5070  2.4269 -0.1251
17409SOL    HW259343   3.278   5.498   4.616 -0.4483  0.2697  0.1732
17410SOL     OW59344   0.353  11.238   2.837 -0.0059  0.1661 -0.5175
17410SOL    HW159345   0.346  11.305   2.768  0.1434 -0.5137 -1.2020
17410SOL    HW259346   0.328  11.157   2.794  1.7783 -0.5764 -0.2579
17411SOL     OW59347  12.246  11.484   9.241 -0.1236  0.1978  0.6701
17411SOL    HW159348  12.334  11.451   9.256  0.1698  0.5358 -0.2289
17411SOL    HW259349  12.197  11.460   9.320  0.5383 -0.7692  0.8029
17412SOL     OW59350   5.250   3.022   3.558  0.3568 -0.0937  0.1876
17412SOL    HW159351   5.178   2.988   3.505  0.2776  0.0049  0.2336
17412SOL    HW259352   5.232   2.991   3.647 -0.3639  1.0945  0.4667
17413SOL     OW59353   4.358   5.085   6.607 -0.4350 -0.4512 -0.0813
17413SOL    HW159354   4.310   5.017   6.653 -2.7690  1.4065  0.4190
17413SOL    HW259355   4.309   5.098   6.526  0.6146 -0.0902 -0.6787
17414SOL     OW59356  11.171   2.880   2.018 -0.0257 -0.2261  0.2505
17414SOL    HW159357  11.106   2.951   2.021  0.1977  0.0868 -1.3602
17414SOL    HW259358  11.157   2.832   2.099 -1.6922  0.3536  0.3620
17415SOL     OW59359   4.703   9.080  11.590  0.2126 -0.6261  0.2052
17415SOL    HW159360   4.691   9.175  11.578  1.3302 -0.5155 -0.1819
17415SOL    HW259361   4.744   9.051  11.509  3.5317 -0.7034  1.7487
17416SOL     OW59362   6.424   3.732   8.364 -0.1377  0.2873  0.6695
17416SOL    HW159363   6.519   3.717   8.367 -0.0906  0.5633  3.6666
17416SOL    HW259364   6.386   3.647   8.385 -0.5303  0.4184  0.4940
17417SOL     OW59365   8.745   2.840   6.188  0.2391 -0.1706 -0.0677
17417SOL    HW159366   8.750   2.924   6.233 -1.4530  0.0231 -0.1572
17417SOL    HW259367   8.721   2.862   6.098  0.2321 -0.7274 -0.2059
17418SOL     OW59368   3.712   8.025   3.932  0.1865  0.5163 -0.4458
17418SOL    HW159369   3.678   8.041   4.020 -0.2414  0.6028 -0.6268
17418SOL    HW259370   3.710   7.929   3.923 -0.1129  0.5277 -0.4976
17419SOL     OW59371   6.541   0.689   1.638 -0.2779  0.1724 -0.4662
17419SOL    HW159372   6.571   0.643   1.560  0.7118  1.5147 -0.9133
17419SOL    HW259373   6.526   0.779   1.609  0.5578  0.8126  0.9674
17420SOL     OW59374  11.667   2.229  11.488  0.1108 -0.5286 -0.0421
17420SOL    HW159375  11.670   2.183  11.404 -0.0542  0.5951 -0.6927
17420SOL    HW259376  11.617   2.171  11.545  0.4133 -1.4120 -0.6507
17421SOL     OW59377   0.438   2.962   4.879  0.6629 -0.5090 -0.6105
17421SOL    HW159378   0.508   3.026   4.862  0.6304 -0.5884 -1.0649
17421SOL    HW259379   0.365   2.993   4.825  0.6417 -0.9187 -0.8184
17422SOL     OW59380  11.324   6.941   1.032 -0.2535  0.6869 -0.2669
17422SOL    HW159381  11.343   6.923   0.940 -0.6884  0.7011 -0.3636
17422SOL    HW259382  11.403   6.983   1.066  0.8858 -1.5657  0.0193
17423SOL     OW59383  10.541   3.985   9.775  0.0858 -0.3167 -1.3004
17423SOL    HW159384  10.478   3.952   9.838 -0.0745 -0.0075 -1.2940
17423SOL    HW259385  10.626   3.954   9.806 -0.0775 -0.8380 -1.3813
17424SOL     OW59386   6.020   9.732   7.165  0.2404  0.0291 -0.1968
17424SOL    HW159387   5.965   9.676   7.110  0.3131 -0.9677  0.7217
17424SOL    HW259388   6.104   9.685   7.171  0.6268  0.7068 -0.1900
17425SOL     OW59389  10.200   1.430   5.873 -0.0108  0.1606 -0.1835
17425SOL    HW159390  10.255   1.373   5.928 -0.7424  1.2734  1.8284
17425SOL    HW259391  10.176   1.376   5.798  0.4329 -1.7247  0.9689
17426SOL     OW59392  12.191   9.921   1.040 -0.5296  0.5692  0.2567
17426SOL    HW159393  12.213   9.940   1.131 -0.3985  2.2992 -0.0989
17426SOL    HW259394  12.157  10.003   1.005 -0.3411  0.0256 -1.3261
17427SOL     OW59395   8.633  11.715  12.355 -0.6079 -0.6766  0.5085
17427SOL    HW159396   8.572  11.652  12.393 -0.0191 -0.8220  1.2312
17427SOL    HW259397   8.648  11.683  12.266 -1.8572 -0.4307  0.1944
17428SOL     OW59398   8.769   7.220   9.501 -0.1832 -0.5314 -0.0276
17428SOL    HW159399   8.865   7.214   9.502 -0.1636 -0.8709 -1.6984
17428SOL    HW259400   8.751   7.313   9.488 -0.0691 -0.5230 -0.1265
17429SOL     OW59401   3.272   0.851   4.985  0.1363  0.1333 -0.1384
17429SOL    HW159402   3.257   0.932   5.034 -0.5023 -0.3077  0.4090
17429SOL    HW259403   3.214   0.859   4.909 -0.2916 -0.0192  0.1674
17430SOL     OW59404   8.888   9.546  10.415 -0.0601  0.3480  0.1305
17430SOL    HW159405   8.860   9.454  10.408  0.4512  0.2837 -1.4525
17430SOL    HW259406   8.960   9.544  10.478  0.0899 -0.3741 -0.0499
17431SOL     OW59407   3.584   2.858  10.762 -0.0339  0.2284 -0.1377
17431SOL    HW159408   3.502   2.901  10.786  0.2226 -0.4031  2.0814
17431SOL    HW259409   3.652   2.915  10.797  0.3993 -0.3903  0.0495
17432SOL     OW59410   4.471   8.155   9.075  0.2579  0.2467  1.1693
17432SOL    HW159411   4.481   8.060   9.061 -1.4943 -0.1308  2.2100
17432SOL    HW259412   4.411   8.183   9.007 -0.1045  0.3961  1.5501
17433SOL     OW59413  12.746  10.075   6.374  0.0979 -0.0680 -0.0744
17433SOL    HW159414  12.746  10.171   6.374 -0.6280 -0.0677 -0.0086
17433SOL    HW259415  12.688  10.051   6.302 -0.6001 -0.4610  0.6137
17434SOL     OW59416   9.832   4.116   6.284 -0.1110  0.3691 -0.0999
17434SOL    HW159417   9.824   4.065   6.365  1.0630  1.6383  0.8653
17434SOL    HW259418   9.888   4.063   6.228 -2.3099 -1.3420 -0.8405
17435SOL     OW59419   0.591   5.449  10.186  0.6285 -0.0361 -0.0639
17435SOL    HW159420   0.619   5.535  10.219 -0.0026  0.7574 -1.5315
17435SOL    HW259421   0.502   5.464  10.155  0.7927 -1.0374 -1.0436
17436SOL     OW59422   7.449  11.383   3.405  0.1655 -0.2504 -0.0139
17436SOL    HW159423   7.429  11.303   3.454  0.3394 -0.3702 -0.1369
17436SOL    HW259424   7.528  11.362   3.356 -0.9000 -0.6807 -1.6110
17437SOL     OW59425  12.951   7.874   3.238  0.1313 -0.0808 -0.2443
17437SOL    HW159426  13.021   7.836   3.291 -0.0772 -0.7711 -0.4557
17437SOL    HW259427  12.932   7.808   3.172 -1.6562 -0.5086  0.6337
17438SOL     OW59428   7.655   9.229   6.588  0.6498  0.0683 -0.6047
17438SOL    HW159429   7.653   9.239   6.493 -0.2071  0.3627 -0.5612
17438SOL    HW259430   7.697   9.310   6.619 -1.3075  1.1436 -0.5988
17439SOL     OW59431   8.530   1.682   2.187  0.7335 -0.3178 -0.2731
17439SOL    HW159432   8.619   1.649   2.197 -0.0043 -2.2506  0.3533
17439SOL    HW259433   8.517   1.739   2.263  0.2723 -2.9029  1.7157
17440SOL     OW59434  11.714   5.234   3.362  0.5468  0.2377  0.3596
17440SOL    HW159435  11.640   5.268   3.412  0.1538  0.6203 -0.4806
17440SOL    HW259436  11.676   5.169   3.303  0.9074  0.3044  0.0492
17441SOL     OW59437   1.094   5.967   2.925 -0.2613 -0.0066  0.2211
17441SOL    HW159438   1.187   5.979   2.943 -0.2923  0.6354 -0.0296
17441SOL    HW259439   1.052   5.970   3.010  0.1091 -2.0065  0.5325
17442SOL     OW59440   9.708   1.097   4.714 -0.1954  0.4683 -0.7577
17442SOL    HW159441   9.709   1.026   4.650 -0.1955  0.8660 -1.2056
17442SOL    HW259442   9.690   1.054   4.797  0.9653 -0.2021 -0.8400
17443SOL     OW59443   5.614   4.282   8.776 -1.1235 -0.0842 -0.4370
17443SOL    HW159444   5.554   4.231   8.831 -0.6500  1.8491  2.0384
17443SOL    HW259445   5.595   4.373   8.798  1.4862  0.6531 -0.9368
17444SOL     OW59446   8.058  12.245  12.922  0.4134  0.2326  0.1639
17444SOL    HW159447   8.003  12.241  13.001  0.0808 -0.9612 -0.1040
17444SOL    HW259448   8.138  12.198  12.946  0.3768  0.0060 -0.1509
17445SOL     OW59449   2.669  11.042  12.859  0.3967 -0.2457 -0.9722
17445SOL    HW159450   2.632  10.954  12.852  1.2457 -0.6055 -1.0279
17445SOL    HW259451   2.702  11.048  12.949  0.5276 -0.0581 -1.0312
17446SOL     OW59452   5.223   0.321   5.836  0.0549 -0.3085 -0.4991
17446SOL    HW159453   5.304   0.331   5.786  0.6679  2.5816  0.8881
17446SOL    HW259454   5.153   0.323   5.771  0.9966 -1.5268 -1.5976
17447SOL     OW59455   3.811   4.070   6.595  0.3588  0.2331 -0.0336
17447SOL    HW159456   3.846   4.159   6.594 -0.7585  0.6958  0.4199
17447SOL    HW259457   3.777   4.059   6.684  2.1410 -1.3330  0.5343
17448SOL     OW59458   5.210  10.822   3.316  0.0890  0.0005  0.0784
17448SOL    HW159459   5.300  10.810   3.346 -0.4698 -0.4205  1.6528
17448SOL    HW259460   5.175  10.734   3.307 -0.8154  0.1860  1.5679
17449SOL     OW59461   6.531   3.653   8.042  0.0214  0.4367 -0.0260
17449SOL    HW159462   6.471   3.581   8.027  0.2423  0.5183 -1.3858
17449SOL    HW259463   6.569   3.636   8.128 -1.8785  0.3502  0.8342
17450SOL     OW59464   9.773   8.974  12.154 -0.1756  0.6048 -0.2176
17450SOL    HW159465   9.732   9.010  12.233  0.7213  0.3583  0.3864
17450SOL    HW259466   9.710   8.990  12.084 -0.8910  1.0420  0.5088
17451SOL     OW59467  11.195   9.611   1.199 -0.5660  0.4720  0.2708
17451SOL    HW159468  11.135   9.617   1.273 -0.9248 -0.4791  0.0709
17451SOL    HW259469  11.263   9.549   1.228 -0.0449  1.0186  0.2421
17452SOL     OW59470   2.490   5.805  11.439  0.6004 -0.6097 -0.2214
17452SOL    HW159471   2.539   5.748  11.499  0.8326 -0.4335 -0.2437
17452SOL    HW259472   2.425   5.847  11.495  0.7097 -0.5701 -0.1220
17453SOL     OW59473   0.093   8.685   3.166 -0.4568  0.2882 -0.1648
17453SOL    HW159474   0.126   8.602   3.199 -1.0025 -0.3707 -1.2364
17453SOL    HW259475   0.020   8.707   3.224  0.3370  0.5698  0.7617
17454SOL     OW59476   8.474   2.930   8.830  0.0609 -0.6765  0.4532
17454SOL    HW159477   8.410   2.878   8.782 -0.0651 -1.3855  1.3549
17454SOL    HW259478   8.559   2.907   8.792  0.0619 -1.9774  1.1997
17455SOL     OW59479   6.329   9.829  11.019 -0.3180  0.3375  0.2829
17455SOL    HW159480   6.401   9.886  11.048 -1.4028  1.8698  0.0638
17455SOL    HW259481   6.340   9.749  11.072  0.9502  0.9179  0.9556
17456SOL     OW59482  11.555   6.265   4.398 -0.0688 -0.1611 -0.0467
17456SOL    HW159483  11.594   6.352   4.384 -1.2214  0.1975 -1.2691
17456SOL    HW259484  11.619   6.218   4.450  0.8816  1.2105  0.0772
17457SOL     OW59485   2.822  11.773   8.036 -0.7031  0.0681 -0.6204
17457SOL    HW159486   2.885  11.710   8.072 -1.9301 -1.0238 -0.2775
17457SOL    HW259487   2.814  11.841   8.103 -0.1251  0.0411 -0.5251
17458SOL     OW59488   5.588   6.117   5.558  0.1167 -0.0168  0.1637
17458SOL    HW159489   5.682   6.125   5.545  0.5243  0.1122  2.7407
17458SOL    HW259490   5.561   6.203   5.589 -0.4935 -0.5845  1.2569
17459SOL     OW59491   7.494  11.255  10.190 -0.2497  0.5097 -0.2710
17459SOL    HW159492   7.547  11.215  10.259 -0.6488 -0.6346 -0.6058
17459SOL    HW259493   7.523  11.212  10.110 -1.5737 -0.0261 -0.4782
17460SOL     OW59494   9.886   6.054   8.028 -0.3668  0.0982  0.5328
17460SOL    HW159495   9.801   6.010   8.036 -0.2638 -0.5110 -1.2321
17460SOL    HW259496   9.871   6.124   7.964  0.1845  0.7657  1.1161
17461SOL     OW59497   4.200   8.559   4.680  0.2610 -0.0687 -0.0820
17461SOL    HW159498   4.251   8.622   4.630 -1.8593  0.9103 -1.1567
17461SOL    HW259499   4.116   8.602   4.695 -0.5645 -1.8784  0.9078
17462SOL     OW59500   1.512   7.523   0.475 -0.3297 -0.2499 -0.1725
17462SOL    HW159501   1.418   7.512   0.464 -0.1548 -0.8606 -1.1829
17462SOL    HW259502   1.534   7.600   0.422  0.0186 -1.2547 -1.5348
17463SOL     OW59503  12.223   5.903   4.858  0.3582 -0.2732 -0.2282
17463SOL    HW159504  12.225   5.973   4.923  3.0641 -0.6798  0.2412
17463SOL    HW259505  12.316   5.883   4.841 -0.2989 -2.0129 -2.2253
17464SOL     OW59506   3.050   3.075   8.360  0.1092 -0.1543 -0.6115
17464SOL    HW159507   3.100   3.146   8.321  1.1598  0.5216  1.7833
17464SOL    HW259508   3.116   3.016   8.397 -0.7671  0.1479  1.5947
17465SOL     OW59509   6.197   8.814   9.021 -0.4132 -0.3534 -0.1349
17465SOL    HW159510   6.183   8.907   9.039  0.8210 -0.1771 -0.0346
17465SOL    HW259511   6.234   8.779   9.102  0.4654 -0.6226 -0.6450
17466SOL     OW59512  12.572   8.900   8.983 -0.1865 -0.1781 -0.4104
17466SOL    HW159513  12.652   8.930   9.026 -0.9376 -0.4358  1.2563
17466SOL    HW259514  12.505   8.961   9.013 -1.2758 -1.9952  1.1279
17467SOL     OW59515   2.483  12.682   2.256  0.1866  0.1231  0.6790
17467SOL    HW159516   2.406  12.633   2.285 -0.7194  0.7831 -0.5453
17467SOL    HW259517   2.505  12.645   2.170 -0.7941  2.0871 -0.4907
17468SOL     OW59518   4.215  10.940  11.815 -0.3469 -0.4499  0.1035
17468SOL    HW159519   4.156  10.919  11.742  0.1439  0.6001 -0.6186
17468SOL    HW259520   4.285  10.875  11.809  0.6297  0.7035 -1.4762
17469SOL     OW59521  10.781  12.314   3.001  0.0059 -0.2598 -0.2500
17469SOL    HW159522  10.695  12.325   2.960 -0.5278 -2.1158  0.2830
17469SOL    HW259523  10.842  12.316   2.928 -0.7231 -1.1809 -0.9183
17470SOL     OW59524   2.431   2.860   9.474  0.0716  0.4185  0.0516
17470SOL    HW159525   2.442   2.899   9.387 -2.5134  0.2864 -0.4124
17470SOL    HW259526   2.475   2.775   9.469  0.9414  0.8988 -0.7223
17471SOL     OW59527   3.646   0.231  12.594  0.0162 -0.4808  0.1042
17471SOL    HW159528   3.679   0.307  12.546  0.4507 -0.5550  0.2819
17471SOL    HW259529   3.585   0.190  12.534  0.8402 -0.7897 -0.5444
17472SOL     OW59530  11.620   3.700   0.718  0.6551  0.1007  0.0205
17472SOL    HW159531  11.704   3.733   0.689  0.5745 -0.2501 -0.6345
17472SOL    HW259532  11.625   3.703   0.814  1.6388 -0.4749  0.0027
17473SOL     OW59533   1.579   2.863   3.037  0.1479  0.4164 -0.2998
17473SOL    HW159534   1.545   2.807   3.107  0.1533  1.8429  0.9020
17473SOL    HW259535   1.632   2.805   2.983 -0.0004 -0.7684  0.7830
17474SOL     OW59536   3.926   0.151   0.606  0.0901 -0.2962  0.0065
17474SOL    HW159537   3.860   0.124   0.669  0.5212 -2.5964 -0.4324
17474SOL    HW259538   3.901   0.107   0.525  0.9425  0.5774 -0.7580
17475SOL     OW59539   4.478   0.572  10.613 -0.1399 -0.0906  0.2486
17475SOL    HW159540   4.402   0.533  10.571 -1.4419  0.8250  1.6583
17475SOL    HW259541   4.444   0.612  10.694  1.5838  1.5192  0.2569
17476SOL     OW59542   3.506  12.589   4.228  0.3094 -0.9718 -0.2917
17476SOL    HW159543   3.431  12.580   4.287 -0.1247  2.5545 -0.0636
17476SOL    HW259544   3.478  12.544   4.148 -1.4353 -1.0560  0.3171
17477SOL     OW59545  11.480   7.551   5.418  0.2524  0.3033 -0.2827
17477SOL    HW159546  11.517   7.639   5.415 -0.6805  0.6833 -1.6952
17477SOL    HW259547  11.529   7.502   5.352  1.8008 -0.7073  1.5323
17478SOL     OW59548  10.979   7.588   1.357 -0.2661 -0.1812  0.0311
17478SOL    HW159549  10.893   7.590   1.399  0.0428  0.0507  0.6582
17478SOL    HW259550  10.960   7.591   1.263 -0.9836 -1.2352  0.1273
17479SOL     OW59551  12.129   4.542   9.818 -0.1151  0.3185  0.5865
17479SOL    HW159552  12.186   4.476   9.857 -0.7521  0.5349  1.9451
17479SOL    HW259553  12.189   4.600   9.772  0.3872 -1.6538 -1.4032
17480SOL     OW59554   2.774   1.172  11.565 -0.1320 -0.3561 -0.3819
17480SOL    HW159555   2.714   1.122  11.620 -0.8051  1.3682  0.5306
17480SOL    HW259556   2.727   1.184  11.483 -0.0551 -0.9802 -0.5279
17481SOL     OW59557   8.049  12.253   3.155  0.0418  0.3897  0.3938
17481SOL    HW159558   8.012  12.273   3.069  1.2455  1.7692  0.1476
17481SOL    HW259559   7.996  12.181   3.188 -0.0640 -0.6062 -1.7753
17482SOL     OW59560   2.437   4.946   5.837 -0.3815  0.2590  0.1374
17482SOL    HW159561   2.478   5.031   5.850  0.7737 -0.1475 -0.5934
17482SOL    HW259562   2.478   4.912   5.757 -1.3588 -0.6610  0.0071
17483SOL     OW59563   8.851   4.591  12.255  0.2398  0.1339 -0.4136
17483SOL    HW159564   8.888   4.646  12.324  1.2975  0.0590 -0.9067
17483SOL    HW259565   8.780   4.643  12.219  0.0126  0.3883  0.3757
17484SOL     OW59566   8.104   4.787   8.114 -0.3181  0.0405  0.1559
17484SOL    HW159567   8.106   4.868   8.063  0.2929 -0.1750 -0.1701
17484SOL    HW259568   8.169   4.800   8.183 -0.3752 -0.0902  0.2358
17485SOL     OW59569   2.217   5.465   5.772  0.3237  0.6155 -0.6318
17485SOL    HW159570   2.223   5.417   5.690 -0.9144  0.1119 -0.4436
17485SOL    HW259571   2.226   5.398   5.840 -0.3507  0.7769 -0.3701
17486SOL     OW59572   2.909   6.789   3.723 -0.2026 -0.3332 -0.5851
17486SOL    HW159573   2.970   6.733   3.770 -0.4307 -0.3274 -0.2787
17486SOL    HW259574   2.957   6.817   3.645 -0.0995 -0.9872 -0.7631
17487SOL     OW59575   5.772   9.084   3.798 -0.0312 -0.1705  0.3536
17487SOL    HW159576   5.718   9.045   3.868  0.3026 -1.6992 -0.2010
17487SOL    HW259577   5.855   9.036   3.802  1.0066  1.5822  0.6377
17488SOL     OW59578   0.290   2.492   7.797 -0.0951  0.1865 -0.2174
17488SOL    HW159579   0.274   2.432   7.870 -1.4750  0.3485 -0.3501
17488SOL    HW259580   0.382   2.480   7.775  0.2674 -0.1056  1.3302
17489SOL     OW59581   3.505  12.889   4.335 -0.4610  0.2743 -0.0718
17489SOL    HW159582   3.569  12.959   4.350  0.3731 -0.0441 -1.9095
17489SOL    HW259583   3.539  12.814   4.382  0.0096  0.3792 -0.2447
17490SOL     OW59584   6.816   4.765   5.130  0.1051  0.2155  0.3882
17490SOL    HW159585   6.865   4.709   5.191 -0.2185 -0.2740  0.1997
17490SOL    HW259586   6.804   4.847   5.177  0.0017 -0.1040  0.9164
17491SOL     OW59587   6.800   9.671   3.704  0.0148 -0.0304  0.1765
17491SOL    HW159588   6.716   9.641   3.670 -0.0947  0.2200  0.2259
17491SOL    HW259589   6.827   9.603   3.766  0.1460 -0.4233 -0.3011
17492SOL     OW59590   1.337   7.098   6.851 -0.2101  0.3028  0.1496
17492SOL    HW159591   1.304   7.150   6.925 -0.0081 -0.4312  0.7724
17492SOL    HW259592   1.371   7.019   6.892 -1.4681 -0.8047 -0.8676
17493SOL     OW59593   2.623   5.873   5.281  0.6170  0.4493  0.1054
17493SOL    HW159594   2.690   5.938   5.303  1.0502 -0.2136  0.8023
17493SOL    HW259595   2.640   5.849   5.190  0.5343  1.2070 -0.1162
17494SOL     OW59596   4.353   3.824   4.487  0.3409  0.0172  0.2755
17494SOL    HW159597   4.374   3.746   4.538  1.2028 -0.3703 -0.6476
17494SOL    HW259598   4.437   3.868   4.474 -0.1460  1.1679  0.8615
17495SOL     OW59599  11.111   2.578  12.259 -0.0351 -0.1941  0.0401
17495SOL    HW159600  11.193   2.605  12.217  0.4486 -1.5150  0.1025
17495SOL    HW259601  11.137   2.508  12.319 -1.0874 -0.0189  0.7164
17496SOL     OW59602   2.827  12.486   3.028 -0.5227  0.1945 -0.4115
17496SOL    HW159603   2.876  12.463   2.949  1.1898  1.6719  0.1606
17496SOL    HW259604   2.757  12.543   2.997 -0.3572  0.1083 -0.9620
17497SOL     OW59605   6.169   8.146  11.057  0.1819 -0.1414  0.3560
17497SOL    HW159606   6.169   8.131  11.152 -1.8767  0.4001  0.4705
17497SOL    HW259607   6.216   8.229  11.046 -0.6508  0.4345  1.0356
17498SOL     OW59608   1.880   0.987  12.799  0.1367  0.0376 -0.0619
17498SOL    HW159609   1.813   0.980  12.731  1.5278  0.5829 -1.5482
17498SOL    HW259610   1.849   1.058  12.855 -1.1125 -0.5184 -0.0025
17499SOL     OW59611   6.749   0.258   2.273 -0.5200  0.0340  0.1847
17499SOL    HW159612   6.794   0.206   2.206  0.2025  0.9779 -0.0926
17499SOL    HW259613   6.738   0.198   2.346  0.1403 -0.5660 -0.1907
17500SOL     OW59614   5.343  11.150   3.006  0.2607  0.1686 -0.2016
17500SOL    HW159615   5.406  11.222   3.005 -0.3946  0.7605 -1.2798
17500SOL    HW259616   5.396  11.072   3.016  0.9377  0.8199  1.7321
17501SOL     OW59617   9.213   7.277  10.489 -0.3294 -0.2572  0.0190
17501SOL    HW159618   9.151   7.341  10.524  1.0252  1.0333  0.1872
17501SOL    HW259619   9.178   7.192  10.515 -1.1584  0.5156  1.5325
17502SOL     OW59620  11.150  12.573   5.498 -0.3073 -0.3018 -0.1630
17502SOL    HW159621  11.132  12.490   5.454  0.7627  0.1481 -1.5307
17502SOL    HW259622  11.157  12.551   5.591  0.0860 -1.7555 -0.5254
17503SOL     OW59623   2.299  12.778   6.419 -0.1250 -0.1574  0.5762
17503SOL    HW159624   2.274  12.870   6.428 -0.9579 -0.4400  1.2954
17503SOL    HW259625   2.336  12.772   6.331  1.3429  1.1750  1.0616
17504SOL     OW59626  10.917   6.574   1.607  0.2828 -0.5543 -0.6520
17504SOL    HW159627  10.916   6.589   1.513  0.2483 -0.6225 -0.6627
17504SOL    HW259628  10.835   6.527   1.625  0.5359 -1.0143 -0.6675
17505SOL     OW59629   9.133   5.653   5.325  0.0412 -0.0167  0.1336
17505SOL    HW159630   9.163   5.566   5.299 -0.5698 -0.3257  0.4342
17505SOL    HW259631   9.047   5.637   5.364  0.4887  0.5597  1.4080
17506SOL     OW59632   0.246   7.196  10.958 -0.3959 -0.7891 -0.0128
17506SOL    HW159633   0.331   7.154  10.975 -0.7330 -1.3140  0.3940
17506SOL    HW259634   0.182   7.126  10.967 -1.1910  0.1727  2.7593
17507SOL     OW59635   3.892   5.583   1.104  0.0663 -0.2726  0.3676
17507SOL    HW159636   3.878   5.520   1.175  0.7253 -0.7010  0.1270
17507SOL    HW259637   3.822   5.564   1.041 -0.4988  0.0848  0.8710
17508SOL     OW59638   4.884   4.643   4.592  0.0461 -0.3243  0.3166
17508SOL    HW159639   4.859   4.558   4.555  0.4827  0.0253 -0.8199
17508SOL    HW259640   4.886   4.628   4.686 -0.5643 -1.3937  0.1763
17509SOL     OW59641   1.390   9.009   3.824  0.2737 -0.2869  0.5768
17509SOL    HW159642   1.465   9.008   3.884  0.7755  0.4309 -0.0249
17509SOL    HW259643   1.347   9.093   3.840  0.8735  0.2674 -0.6146
17510SOL     OW59644   4.578   8.135  12.359 -0.3042  0.4775  0.5246
17510SOL    HW159645   4.511   8.067  12.349  0.7838 -0.7140  1.0106
17510SOL    HW259646   4.556   8.178  12.441 -0.6460  0.2947  0.5314
17511SOL     OW59647   6.631   5.958   2.336  0.1103 -0.2101 -0.3449
17511SOL    HW159648   6.549   5.945   2.384  1.0735  0.9661  1.7913
17511SOL    HW259649   6.618   6.040   2.287 -0.4090 -0.6859 -1.0091
17512SOL     OW59650   2.802   2.220   4.661 -0.2806 -0.1238  0.2096
17512SOL    HW159651   2.861   2.278   4.709 -1.1349 -0.0190  1.1851
17512SOL    HW259652   2.733   2.198   4.724 -1.3636 -0.1236 -0.9178
17513SOL     OW59653   1.625  12.880   6.582  0.0586  0.1408 -0.0723
17513SOL    HW159654   1.614  12.900   6.489  1.7974 -1.6175 -0.7204
17513SOL    HW259655   1.660  12.961   6.619  0.4683  0.5039 -1.1969
17514SOL     OW59656   9.589   1.901   5.706  1.0156  0.8684 -0.0223
17514SOL    HW159657   9.537   1.898   5.626  0.6204 -0.0705  0.2611
17514SOL    HW259658   9.574   1.989   5.741  0.8354  1.1268 -0.7382
17515SOL     OW59659   9.578   9.677   4.776 -0.5229  0.3797  0.4630
17515SOL    HW159660   9.621   9.761   4.760  1.1080 -0.2705  1.2013
17515SOL    HW259661   9.596   9.626   4.697 -1.4170  0.6719  0.0616
17516SOL     OW59662   2.926   1.911   6.452  0.2529  0.0187 -0.4319
17516SOL    HW159663   2.996   1.847   6.467  0.1301  0.0802  0.4450
17516SOL    HW259664   2.864   1.896   6.524  0.2792  1.1977 -0.1498
17517SOL     OW59665   9.303   1.682   1.083 -0.1291 -0.4943  0.0694
17517SOL    HW159666   9.366   1.754   1.079 -0.4596 -0.0678  1.8151
17517SOL    HW259667   9.218   1.724   1.064 -0.1474 -0.6979 -0.3113
17518SOL     OW59668   6.903  11.993   5.845  0.2921 -0.0215 -0.4493
17518SOL    HW159669   6.958  12.015   5.770  0.6190 -0.5618 -0.3758
17518SOL    HW259670   6.960  12.003   5.921  0.6961 -1.7993 -0.4630
17519SOL     OW59671  12.881  12.580   5.647  0.0140 -0.5309  0.1513
17519SOL    HW159672  12.804  12.584   5.591 -0.4613  1.8153  0.8699
17519SOL    HW259673  12.932  12.658   5.624  0.0899  0.2077  2.5211
17520SOL     OW59674  12.006   8.573  12.756  0.3855  0.4509  0.2894
17520SOL    HW159675  11.930   8.515  12.756 -0.0798  1.0419 -0.6908
17520SOL    HW259676  11.978   8.651  12.708  2.6575 -0.7284 -3.4041
17521SOL     OW59677   7.635  12.802   0.387  0.3232 -0.0922  0.0289
17521SOL    HW159678   7.673  12.853   0.316 -1.8838 -0.6404 -1.6259
17521SOL    HW259679   7.711  12.770   0.436  1.8334  2.4788 -0.4619
17522SOL     OW59680   2.868   9.807   4.962 -0.4506  0.0729 -0.3815
17522SOL    HW159681   2.848   9.729   5.015 -0.9789  0.4851  0.0462
17522SOL    HW259682   2.832   9.787   4.876  0.1466 -0.4839 -0.5032
17523SOL     OW59683   1.601   5.077  10.837 -0.1776 -0.2428 -0.1872
17523SOL    HW159684   1.597   5.028  10.920 -1.3686  1.9761  1.1549
17523SOL    HW259685   1.518   5.057  10.794 -0.0731 -0.4623 -0.2888
17524SOL     OW59686   7.297   9.900  11.108 -0.4083 -0.2531 -0.0915
17524SOL    HW159687   7.322   9.843  11.181 -0.0307  0.5895  0.4590
17524SOL    HW259688   7.375   9.954  11.093 -1.3095  1.2590  0.5158
17525SOL     OW59689   2.344   9.840   2.869  0.2860 -0.1342 -0.0547
17525SOL    HW159690   2.270   9.900   2.865  1.3607  1.2866  0.4162
17525SOL    HW259691   2.334   9.794   2.952  1.0591  1.6530  1.0931
17526SOL     OW59692  12.651   0.429   9.865  0.1681  0.1677  0.2940
17526SOL    HW159693  12.641   0.508   9.812  0.2349  0.3882  0.6073
17526SOL    HW259694  12.677   0.361   9.802  1.8192  0.7852  0.2677
17527SOL     OW59695  12.527  12.381   4.194 -0.1916  0.4112  0.2479
17527SOL    HW159696  12.467  12.319   4.236  0.5609  0.3377  1.2755
17527SOL    HW259697  12.479  12.463   4.190 -0.7350  0.0899  0.0754
17528SOL     OW59698   7.680  10.667   0.210 -0.3793 -0.8139  0.0264
17528SOL    HW159699   7.749  10.651   0.274  0.2882 -0.9008 -0.7041
17528SOL    HW259700   7.603  10.691   0.263  0.3225 -0.2706  0.8267
17529SOL     OW59701   9.958   6.707   7.776  0.1886 -0.0076 -0.0898
17529SOL    HW159702   9.922   6.671   7.695  1.8672 -1.0908 -0.4096
17529SOL    HW259703   9.909   6.662   7.845 -1.4776  1.1584 -0.4630
17530SOL     OW59704   1.312   2.969   0.768  0.6899 -0.1136 -0.1964
17530SOL    HW159705   1.331   3.061   0.783  2.0293 -0.4632  0.5528
17530SOL    HW259706   1.365   2.923   0.834  0.2669 -1.4256 -0.7232
17531SOL     OW59707   7.215   2.008   7.828  0.0737 -0.1498  0.0270
17531SOL    HW159708   7.296   2.059   7.827 -0.4749  0.7529 -0.7869
17531SOL    HW259709   7.160   2.050   7.761  0.3543 -3.0379 -2.1984
17532SOL     OW59710  11.103   2.502  10.839  0.3635 -0.2666  0.3232
17532SOL    HW159711  11.103   2.442  10.914  1.6019 -1.4294 -0.5538
17532SOL    HW259712  11.027   2.476  10.787  0.6793 -0.8578  0.1406
17533SOL     OW59713   5.594   6.611  11.166 -0.0426 -0.3042  0.1671
17533SOL    HW159714   5.566   6.524  11.137  0.3358 -0.8040  1.2611
17533SOL    HW259715   5.688   6.612  11.148 -0.1660  0.1583 -0.4963
17534SOL     OW59716  11.770  11.643  11.803 -0.3715  0.0295  0.1943
17534SOL    HW159717  11.823  11.715  11.839 -1.9803  1.3940 -0.0553
17534SOL    HW259718  11.778  11.654  11.708 -0.5371 -0.2116  0.1537
17535SOL     OW59719   9.731   3.046   0.700 -0.2892  0.2320  0.6060
17535SOL    HW159720   9.794   3.060   0.629  0.1428 -1.7622  0.5572
17535SOL    HW259721   9.678   3.126   0.701 -0.4563  0.2347 -2.1011
17536SOL     OW59722  11.106  10.198  12.463 -0.2411 -0.2211  0.1513
17536SOL    HW159723  11.036  10.175  12.524  0.0129  1.2171  1.0348
17536SOL    HW259724  11.118  10.292  12.475  1.4894 -0.3430 -0.3672
17537SOL     OW59725   5.857   0.875   9.091  0.5192 -0.3241  0.2059
17537SOL    HW159726   5.852   0.789   9.049  1.1939  0.1618 -0.9299
17537SOL    HW259727   5.808   0.933   9.033  0.8884  0.2323  0.4404
17538SOL     OW59728  10.448   8.519   0.038  0.0921  0.0305  0.0701
17538SOL    HW159729  10.488   8.524  -0.049 -1.8543  1.1570 -0.8321
17538SOL    HW259730  10.470   8.603   0.079 -0.3489  0.1720  0.0206
17539SOL     OW59731   4.526  12.365   7.937 -0.9131 -0.3685 -0.3757
17539SOL    HW159732   4.445  12.413   7.921 -1.0034 -1.2843 -3.1449
17539SOL    HW259733   4.553  12.333   7.851  0.8766 -2.5109  0.8560
17540SOL     OW59734   7.822  12.528  12.270 -0.2251 -0.1916  0.0009
17540SOL    HW159735   7.897  12.486  12.229 -0.1194 -1.1881  1.1404
17540SOL    HW259736   7.751  12.516  12.207  0.1650 -0.8014 -0.3387
17541SOL     OW59737   3.465   4.653   0.800  0.2974 -0.2603 -0.1589
17541SOL    HW159738   3.429   4.721   0.857 -0.3987  0.6956 -1.6763
17541SOL    HW259739   3.560   4.667   0.804  0.1455  1.2025 -0.8637
17542SOL     OW59740   1.479   0.589  12.916  0.1909 -0.6358 -0.5689
17542SOL    HW159741   1.427   0.524  12.963  0.0014 -0.0166  0.1009
17542SOL    HW259742   1.417   0.631  12.856 -0.0357 -0.0919  0.0297
17543SOL     OW59743   6.592   6.320   2.529 -0.5497 -0.2619  0.0420
17543SOL    HW159744   6.638   6.371   2.463 -1.5038  2.0747  1.0621
17543SOL    HW259745   6.651   6.247   2.550 -0.4047 -1.3702 -3.5951
17544SOL     OW59746   3.215  11.803  11.639 -0.5002  0.1750  0.1454
17544SOL    HW159747   3.251  11.773  11.556 -0.5930 -1.0032  0.5066
17544SOL    HW259748   3.120  11.798  11.627 -0.5481  1.6947 -0.2535
17545SOL     OW59749   3.931   1.184   1.498 -0.3793  0.0653 -0.7291
17545SOL    HW159750   3.860   1.244   1.523  0.5591  0.8701  0.1039
17545SOL    HW259751   3.955   1.212   1.410 -0.1091  0.7766 -0.4376
17546SOL     OW59752   6.282   1.365   5.732  0.0913 -0.2619 -0.3869
17546SOL    HW159753   6.312   1.302   5.667 -0.2949  2.3845 -3.4136
17546SOL    HW259754   6.189   1.375   5.714 -0.2142 -0.0626  1.1864
17547SOL     OW59755   9.867   4.528   0.486  0.1735  0.1327  0.0726
17547SOL    HW159756   9.938   4.533   0.551  1.1507  2.6810 -1.0616
17547SOL    HW259757   9.913   4.516   0.403 -0.7079  1.5903 -0.6569
17548SOL     OW59758   9.541  10.478   5.830 -0.0655  0.4776 -0.0271
17548SOL    HW159759   9.499  10.395   5.807 -0.0229 -0.1932  2.1854
17548SOL    HW259760   9.635  10.461   5.823  0.0720 -0.5578  2.9772
17549SOL     OW59761  10.756  11.605   5.024 -0.0630  0.2399 -0.0462
17549SOL    HW159762  10.844  11.592   5.059 -0.9943 -1.1802  1.9193
17549SOL    HW259763  10.725  11.686   5.066 -0.2534 -0.0882  0.4450
17550SOL     OW59764   5.046   7.038   4.144 -0.1648  0.1370 -0.2765
17550SOL    HW159765   5.139   7.025   4.165  0.1219  0.0469 -1.5487
17550SOL    HW259766   5.006   7.061   4.228  0.8566 -0.6111  0.4447
17551SOL     OW59767   7.405   9.423   0.935  0.1680  0.2069  0.1293
17551SOL    HW159768   7.328   9.410   0.990  0.2471 -1.9442 -0.2150
17551SOL    HW259769   7.373   9.416   0.845  0.1979  2.8521 -0.1820
17552SOL     OW59770   7.734   2.677   6.002 -0.1231 -0.4115 -0.2110
17552SOL    HW159771   7.639   2.666   5.994 -0.5521  3.0690 -1.1966
17552SOL    HW259772   7.769   2.652   5.917 -0.3185 -0.1713 -0.3599
17553SOL     OW59773   5.812   2.158   1.270 -0.0547  0.3445 -0.2935
17553SOL    HW159774   5.899   2.121   1.287  0.6498  0.7473 -2.5358
17553SOL    HW259775   5.831   2.246   1.236 -1.4285  0.9728  0.5112
17554SOL     OW59776   9.696   0.331   5.588  0.6900  0.3405  0.3264
17554SOL    HW159777   9.736   0.317   5.674  1.6895  1.8668  0.1569
17554SOL    HW259778   9.659   0.419   5.594 -0.8736 -0.2578 -0.2183
17555SOL     OW59779   0.669  10.860   5.776  0.2472  0.1397 -0.0032
17555SOL    HW159780   0.629  10.916   5.709 -0.5195  0.5451  0.7654
17555SOL    HW259781   0.757  10.842   5.743  0.2655  1.2255 -0.6058
17556SOL     OW59782  11.981   1.656   1.380 -0.3278  0.3962  0.0720
17556SOL    HW159783  11.936   1.657   1.464 -1.8984 -1.5367 -0.6513
17556SOL    HW259784  11.910   1.665   1.315  0.8660  2.1029 -1.0611
17557SOL     OW59785   8.707  11.476   7.214 -0.2242 -1.1155  0.1376
17557SOL    HW159786   8.789  11.515   7.245 -1.3111 -0.3818  2.3011
17557SOL    HW259787   8.683  11.527   7.137  0.9741 -0.8809 -0.0974
17558SOL     OW59788   9.556   4.436  12.584  0.5668 -0.5246  0.4795
17558SOL    HW159789   9.494   4.506  12.601 -0.0636 -0.8084 -0.5193
17558SOL    HW259790   9.550   4.379  12.661 -0.1376 -0.3512  0.5599
17559SOL     OW59791   2.464   7.170   2.848  0.5216 -0.3117 -0.0583
17559SOL    HW159792   2.464   7.204   2.938  0.2284 -1.7174  0.4977
17559SOL    HW259793   2.393   7.217   2.805  0.6049  0.3123  0.4620
17560SOL     OW59794   6.483   6.895   3.310  0.6655 -0.5990  0.5695
17560SOL    HW159795   6.480   6.955   3.386 -2.4306  0.2085 -0.0493
17560SOL    HW259796   6.450   6.812   3.344 -0.7246 -0.2364  0.1895
17561SOL     OW59797   8.767  12.338   8.303  0.0553 -0.4578 -0.1366
17561SOL    HW159798   8.808  12.310   8.384 -1.2307 -3.1185 -0.2959
17561SOL    HW259799   8.839  12.362   8.246  0.9985  1.1788  1.6135
17562SOL     OW59800   0.271   8.427   0.498  0.4584  0.0070 -0.1665
17562SOL    HW159801   0.329   8.441   0.574 -0.0328  0.0738  0.1978
17562SOL    HW259802   0.308   8.484   0.430  0.1076  1.0033  0.4461
17563SOL     OW59803   2.906   7.576   7.816 -0.2934  0.2030  0.4833
17563SOL    HW159804   2.856   7.530   7.884 -2.2153  2.0720  0.4578
17563SOL    HW259805   2.924   7.510   7.750  0.4421 -1.3635  2.1493
17564SOL     OW59806   5.840   5.876   6.827  0.2117  0.2238  0.2726
17564SOL    HW159807   5.745   5.877   6.832  0.0557  0.4074 -1.8712
17564SOL    HW259808   5.868   5.940   6.893 -1.2048  1.0135  0.1402
17565SOL     OW59809  10.905  11.169   2.788 -0.1649  0.2761  1.0132
17565SOL    HW159810  10.827  11.125   2.821 -0.4218 -0.1206 -0.0965
17565SOL    HW259811  10.913  11.247   2.844 -1.6193  0.5688  0.8660
17566SOL     OW59812   7.324   1.696   6.040  0.1760 -0.4031 -0.1529
17566SOL    HW159813   7.311   1.602   6.027 -3.3110 -0.1361  0.4374
17566SOL    HW259814   7.417   1.710   6.022  1.0559 -4.0824  0.6768
17567SOL     OW59815   3.542   6.760   4.839  0.5737  0.4616  0.1820
17567SOL    HW159816   3.553   6.680   4.787  1.0895  0.0140  0.9600
17567SOL    HW259817   3.613   6.817   4.809  0.8019  0.2489  0.3163
17568SOL     OW59818   1.435   3.453   7.296 -0.4731 -0.2091  0.2979
17568SOL    HW159819   1.528   3.455   7.270 -0.4682  0.8485  0.3341
17568SOL    HW259820   1.388   3.434   7.215 -0.2198 -1.0392  0.3319
17569SOL     OW59821   4.397   7.916   3.608  0.6097 -0.6531 -0.2733
17569SOL    HW159822   4.322   7.961   3.646 -0.4602 -0.5441 -2.3963
17569SOL    HW259823   4.423   7.852   3.675  0.7931  1.5546  1.9000
17570SOL     OW59824   8.807   2.858   3.563  0.2114 -0.0182  0.2079
17570SOL    HW159825   8.767   2.936   3.524 -0.3939  0.4669  1.7129
17570SOL    HW259826   8.768   2.785   3.515  0.1881  0.5725 -0.6941
17571SOL     OW59827   3.212  10.597   4.880 -0.4794 -0.5903  0.3212
17571SOL    HW159828   3.155  10.560   4.947 -0.0009 -1.6597  0.1622
17571SOL    HW259829   3.299  10.596   4.920 -0.4817  0.6090  0.3993
17572SOL     OW59830   1.226   6.613   1.622 -0.1659 -0.5723 -0.6792
17572SOL    HW159831   1.132   6.597   1.625 -0.2256 -0.1608  1.5568
17572SOL    HW259832   1.265   6.536   1.663  0.5115 -0.8518 -1.8182
17573SOL     OW59833   9.864   3.593   4.030  0.3571  0.3091 -0.4812
17573SOL    HW159834   9.905   3.610   3.946  0.8829  0.8078 -0.1317
17573SOL    HW259835   9.902   3.658   4.089  0.8500 -0.7670  0.4135
17574SOL     OW59836  11.646   1.000   1.699 -0.0047 -0.1199 -0.3111
17574SOL    HW159837  11.648   1.093   1.675 -0.2469  0.5406  1.9152
17574SOL    HW259838  11.738   0.976   1.711 -0.0040  0.4981  1.1965
17575SOL     OW59839  10.043  10.091   7.293 -0.0739  0.4401 -0.1902
17575SOL    HW159840  10.003  10.050   7.216 -0.8149  1.9394 -0.6491
17575SOL    HW259841  10.060  10.018   7.353 -1.5137 -0.5138 -0.8748
17576SOL     OW59842   2.791  12.961   6.254 -0.4238 -0.3488 -0.0717
17576SOL    HW159843   2.798  12.975   6.159  1.3202  0.4457  0.1356
17576SOL    HW259844   2.736  12.883   6.263 -0.0827 -0.8184 -1.7560
17577SOL     OW59845   0.551   4.921   6.666  0.1420 -0.2560  0.2024
17577SOL    HW159846   0.463   4.891   6.689  0.1403 -0.3418  0.0854
17577SOL    HW259847   0.605   4.897   6.742 -0.0314  0.2561  0.4962
17578SOL     OW59848   0.280   2.096  11.637 -0.3561  0.0037  0.5187
17578SOL    HW159849   0.200   2.043  11.634 -1.3179  1.4446 -0.8489
17578SOL    HW259850   0.252   2.180  11.673  0.5346  0.5406  0.0051
17579SOL     OW59851   2.989   1.822   8.866 -0.0050 -0.1032 -0.2110
17579SOL    HW159852   3.072   1.869   8.857 -0.6553  0.9921 -0.5611
17579SOL    HW259853   2.988   1.793   8.957 -1.1975  3.7440  1.1881
17580SOL     OW59854  11.125   1.736   1.532  0.2434 -0.1203 -0.1518
17580SOL    HW159855  11.107   1.757   1.624  0.1125 -1.6284  0.2080
17580SOL    HW259856  11.044   1.694   1.502  0.9636 -1.4305 -0.3427
17581SOL     OW59857   6.757  12.163   4.727 -0.8616 -0.5061 -0.1546
17581SOL    HW159858   6.718  12.232   4.779 -0.3123 -0.7556  0.6078
17581SOL    HW259859   6.850  12.184   4.725 -0.3962 -2.1371  1.5902
17582SOL     OW59860   5.662   2.671   5.641 -0.2247  0.4867  0.1747
17582SOL    HW159861   5.744   2.626   5.619 -1.1485 -1.3571  0.3457
17582SOL    HW259862   5.605   2.602   5.673 -1.6701  1.8400  0.6134
17583SOL     OW59863  11.880  10.438   1.332  0.3808  0.0849 -0.1614
17583SOL    HW159864  11.851  10.350   1.310  0.4644  0.0527 -0.1405
17583SOL    HW259865  11.881  10.484   1.248 -0.0536  0.1814 -0.1127
17584SOL     OW59866   0.392  10.902  11.017 -0.4157 -0.3746  0.1157
17584SOL    HW159867   0.355  10.908  10.929  2.9087 -0.4654 -1.4585
17584SOL    HW259868   0.399  10.994  11.046  1.0740 -0.1026 -0.9945
17585SOL     OW59869   1.548   4.336   5.056 -0.3834 -0.1113 -0.0048
17585SOL    HW159870   1.483   4.321   4.986 -1.2284  1.8583  0.2756
17585SOL    HW259871   1.604   4.405   5.021 -0.1822  0.1734  0.8632
17586SOL     OW59872   0.940   1.977   7.377  0.0405  0.0622 -0.6031
17586SOL    HW159873   0.859   2.027   7.381  0.3345  0.5542 -0.7869
17586SOL    HW259874   0.955   1.964   7.284  0.4735  0.4643 -0.5914
17587SOL     OW59875   7.495   3.616   1.739 -0.3458  0.3410  0.1942
17587SOL    HW159876   7.424   3.641   1.799  0.2659  1.4079  0.5044
17587SOL    HW259877   7.553   3.561   1.792 -2.0588 -2.5356 -0.6806
17588SOL     OW59878   9.921   1.685  11.035 -0.2030 -0.3586  0.0636
17588SOL    HW159879   9.873   1.669  11.116 -1.8152  1.0766 -0.5393
17588SOL    HW259880   9.864   1.743  10.985  2.2724  1.6532 -0.6247
17589SOL     OW59881   0.699   7.389  12.710 -0.1438  0.2093 -0.4965
17589SOL    HW159882   0.729   7.421  12.795 -1.1411  1.0041 -0.4131
17589SOL    HW259883   0.765   7.420  12.648  0.2971  0.1125 -0.0830
17590SOL     OW59884   3.058  11.137   6.581 -0.2231 -0.0665 -0.2462
17590SOL    HW159885   3.151  11.141   6.602 -0.7468  1.0144  2.1803
17590SOL    HW259886   3.037  11.224   6.547 -0.0373 -0.8663 -2.5826
17591SOL     OW59887   6.378   4.114   1.063 -0.2936  0.2565  0.4065
17591SOL    HW159888   6.348   4.032   1.023  0.2306  0.3524 -0.1802
17591SOL    HW259889   6.372   4.179   0.993  1.5439  0.2281  0.1873
17592SOL     OW59890   2.830   9.298  10.090 -0.2121  0.1695 -0.3206
17592SOL    HW159891   2.834   9.393  10.081 -1.3163  0.1406 -1.2489
17592SOL    HW259892   2.827   9.283  10.184 -1.6714  1.1372 -0.1851
17593SOL     OW59893  11.241   8.037   2.862  0.0342  0.1840  0.0169
17593SOL    HW159894  11.230   8.112   2.804  0.7716  0.4721  0.2363
17593SOL    HW259895  11.154   8.024   2.900 -0.8238 -0.9120 -2.1867
17594SOL     OW59896  12.182   4.020  10.858  0.2466  0.1085  0.1845
17594SOL    HW159897  12.105   3.967  10.840 -0.4430  1.1525 -0.0159
17594SOL    HW259898  12.224   3.977  10.933 -0.2641 -0.7235  0.0070
17595SOL     OW59899  10.530   3.692  10.731  0.1429 -0.3236  0.3303
17595SOL    HW159900  10.464   3.735  10.785  1.3717 -0.8345  2.3558
17595SOL    HW259901  10.588   3.762  10.702 -0.2086 -0.1157  0.1247
17596SOL     OW59902   9.380   5.256   6.363 -0.3871  0.0056 -0.5350
17596SOL    HW159903   9.388   5.341   6.319  0.3554 -0.3334 -1.0794
17596SOL    HW259904   9.286   5.245   6.377 -0.5376  0.6622 -0.9733
17597SOL     OW59905   9.685   1.221  11.665  0.3304  0.7662  0.0105
17597SOL    HW159906   9.672   1.187  11.576 -1.6724 -0.0843  0.5883
17597SOL    HW259907   9.716   1.145  11.715 -0.8138  0.6465  0.5444
17598SOL     OW59908   2.906   9.416   3.962  0.4971  0.4110  0.7307
17598SOL    HW159909   2.902   9.321   3.959  1.9414  0.3492 -0.1960
17598SOL    HW259910   2.823   9.445   3.925  0.8950 -0.5150 -0.9718
17599SOL     OW59911   9.721   2.327   2.195  0.1036 -0.1887 -0.3390
17599SOL    HW159912   9.763   2.254   2.149 -0.9335 -1.7560  1.0723
17599SOL    HW259913   9.724   2.399   2.133 -1.1399 -2.1202 -2.8645
17600SOL     OW59914   8.094   9.950   3.655 -0.0060  0.7507 -0.1683
17600SOL    HW159915   8.181   9.992   3.659 -0.0303  0.8110 -0.2744
17600SOL    HW259916   8.111   9.863   3.620  0.1534  0.3616  0.8624
17601SOL     OW59917   8.546   9.022  11.919  0.4069 -0.3186  0.2017
17601SOL    HW159918   8.494   9.079  11.976  0.9828 -0.5865  1.0124
17601SOL    HW259919   8.483   8.987  11.856  0.1153  1.5649 -0.6186
17602SOL     OW59920   6.856   9.797   7.112  0.0788  0.7107 -0.6918
17602SOL    HW159921   6.916   9.769   7.182  1.6070  1.7893 -1.5144
17602SOL    HW259922   6.850   9.721   7.054 -0.9580 -0.0886  0.3850
17603SOL     OW59923   1.632   8.214   7.881 -0.1977  0.0477 -0.2414
17603SOL    HW159924   1.573   8.288   7.892 -0.4655 -0.3478  1.3331
17603SOL    HW259925   1.710   8.250   7.842 -0.1965  1.2454  0.8137
17604SOL     OW59926  10.386   9.097   7.901  0.1463  0.3200 -0.3035
17604SOL    HW159927  10.451   9.162   7.928  2.9527 -2.2726 -0.3165
17604SOL    HW259928  10.404   9.082   7.808 -0.7187 -0.2476 -0.3931
17605SOL     OW59929   6.127   2.012   5.989 -0.6216 -0.4636 -0.2952
17605SOL    HW159930   6.181   2.085   6.018 -1.1931 -0.8868  2.1353
17605SOL    HW259931   6.115   2.026   5.895  2.0191  0.6957 -0.5490
17606SOL     OW59932  12.118   4.594   1.164 -0.4147 -0.1717 -0.1758
17606SOL    HW159933  12.187   4.547   1.116 -0.8028 -2.8747  1.6451
17606SOL    HW259934  12.045   4.532   1.167 -0.8145  0.2968  2.7720
17607SOL     OW59935   0.418   0.422   6.154 -0.5342  0.5747 -0.3461
17607SOL    HW159936   0.459   0.431   6.240  0.3244  1.1425 -0.7991
17607SOL    HW259937   0.481   0.461   6.093  0.2885 -2.4650 -1.6247
17608SOL     OW59938   0.090   2.096   6.002  0.5120  0.0919  0.1505
17608SOL    HW159939   0.107   2.013   5.956 -0.3577 -0.1044  0.1635
17608SOL    HW259940   0.152   2.095   6.075  0.7005 -0.4239 -0.0059
17609SOL     OW59941   8.108   5.165   0.422 -0.8109 -0.1643 -0.1830
17609SOL    HW159942   8.128   5.095   0.483 -0.9626 -0.2474 -0.2272
17609SOL    HW259943   8.151   5.242   0.459  0.9042 -0.6479 -1.0845
17610SOL     OW59944   6.775  10.877  10.223 -0.5558  0.0495 -0.2335
17610SOL    HW159945   6.700  10.851  10.169 -2.8694  3.3925  1.0306
17610SOL    HW259946   6.754  10.844  10.310  1.2556 -1.9192 -0.4455
17611SOL     OW59947   7.047   6.712   8.416  0.0361  0.7766 -0.4717
17611SOL    HW159948   7.046   6.683   8.325 -1.2858 -2.2674  0.3993
17611SOL    HW259949   7.135   6.692   8.447  0.0837  0.6029 -0.7215
17612SOL     OW59950  12.605   5.241   0.524 -0.6429  0.0461  0.3364
17612SOL    HW159951  12.549   5.317   0.513  1.0791  1.3086 -0.2293
17612SOL    HW259952  12.635   5.245   0.614  0.5045  0.8514 -0.0574
17613SOL     OW59953  11.410   6.912   9.294  0.1300  0.1264  0.0746
17613SOL    HW159954  11.386   6.907   9.201  0.3101  0.3977  0.0110
17613SOL    HW259955  11.376   6.997   9.322  1.9959  1.0541 -0.3048
17614SOL     OW59956   9.518  10.116   2.613  0.2884 -0.3364  0.3031
17614SOL    HW159957   9.470  10.056   2.555  0.9240 -1.7760  1.2066
17614SOL    HW259958   9.596  10.139   2.563 -0.8257  1.3000 -0.8077
17615SOL     OW59959   9.223   9.160   3.904 -0.3695 -0.1081  0.6738
17615SOL    HW159960   9.236   9.085   3.963 -1.1064  0.7233  1.9642
17615SOL    HW259961   9.136   9.147   3.867 -0.8094  0.4504  1.4701
17616SOL     OW59962   2.546  11.321   9.142 -0.0362  0.3524 -0.2997
17616SOL    HW159963   2.521  11.344   9.231  0.9990 -1.3676  0.4871
17616SOL    HW259964   2.635  11.354   9.132  0.5486 -1.0676 -0.0071
17617SOL     OW59965   3.379   7.584  12.720 -0.5389  0.4350 -0.5718
17617SOL    HW159966   3.374   7.609  12.627 -0.3007 -0.5754 -0.8668
17617SOL    HW259967   3.467   7.611  12.746 -0.7977  1.2148 -0.4849
17618SOL     OW59968   6.812   3.775   2.386 -0.8441  0.0075  0.1774
17618SOL    HW159969   6.763   3.747   2.463 -1.1239  0.5466  0.1952
17618SOL    HW259970   6.779   3.862   2.366 -0.0174  0.3141  0.0924
17619SOL     OW59971   1.336   7.453   1.898  0.0878  0.3088 -0.5792
17619SOL    HW159972   1.390   7.440   1.976 -0.3108  0.0113 -0.3503
17619SOL    HW259973   1.260   7.396   1.911  0.7272 -0.9004 -1.8509
17620SOL     OW59974  10.117   6.377  10.292 -0.0149  0.5762 -0.0757
17620SOL    HW159975  10.086   6.322  10.364  1.2274  1.5509  1.2506
17620SOL    HW259976  10.048   6.371  10.226 -1.8400  0.7344  1.7329
17621SOL     OW59977   2.554  12.654   1.015  0.1918 -0.2488  0.1036
17621SOL    HW159978   2.518  12.725   0.961 -0.7418 -0.4172  0.4889
17621SOL    HW259979   2.484  12.633   1.077  0.7005 -1.0682  0.4170
17622SOL     OW59980   8.380   5.859   4.930 -0.3814  0.2054  0.3345
17622SOL    HW159981   8.355   5.889   4.843 -1.2625 -1.8016 -0.1508
17622SOL    HW259982   8.358   5.933   4.987  0.0686  1.4963 -1.0920
17623SOL     OW59983  11.223   1.950   9.285  0.5566  0.9944 -0.4592
17623SOL    HW159984  11.262   2.036   9.297 -1.1687  1.7835 -0.1581
17623SOL    HW259985  11.129   1.965   9.295  0.1682 -0.8197 -1.0174
17624SOL     OW59986   9.623   2.341   5.692  0.5240  0.7551 -0.3501
17624SOL    HW159987   9.630   2.396   5.770  0.7110 -1.4640  1.2948
17624SOL    HW259988   9.556   2.383   5.638 -0.2215  1.8889  1.3943
17625SOL     OW59989   0.308   3.087   0.517 -0.2175 -0.1320  0.7937
17625SOL    HW159990   0.360   3.014   0.485  1.4264  1.8415 -1.4020
17625SOL    HW259991   0.335   3.162   0.463 -3.4997  1.6148  1.2735
17626SOL     OW59992   1.369   9.809  12.614  1.0544 -0.3085 -0.1815
17626SOL    HW159993   1.446   9.793  12.559  1.1303 -1.0345  0.1122
17626SOL    HW259994   1.405   9.852  12.692  1.1225 -0.3444 -0.1919
17627SOL     OW59995   2.797   5.571   9.385 -0.3325  0.0568  0.2461
17627SOL    HW159996   2.865   5.506   9.365  0.9737  1.8430 -1.5706
17627SOL    HW259997   2.815   5.598   9.475 -0.0789 -1.1523  0.5622
17628SOL     OW59998   0.185  10.260   6.333  0.1957  0.2184 -0.0650
17628SOL    HW159999   0.117  10.192   6.335 -1.0002  1.3833  1.7303
17628SOL    HW260000   0.258  10.219   6.286 -0.2700 -2.5206  1.3648
17629SOL     OW60001   6.327   3.268   7.684 -0.1323 -0.3395 -0.0469
17629SOL    HW160002   6.395   3.299   7.624  0.1607 -1.3720 -0.2729
17629SOL    HW260003   6.246   3.304   7.650  0.3593  1.4793  0.6098
17630SOL     OW60004   8.034   9.101   6.701 -0.2960 -0.3764  0.3791
17630SOL    HW160005   7.960   9.073   6.648 -1.4308 -0.7774  2.1046
17630SOL    HW260006   8.107   9.048   6.670 -0.4699  0.5886 -1.8960
17631SOL     OW60007  11.577   1.986   1.091 -0.6496  0.3575 -0.8269
17631SOL    HW160008  11.653   2.009   1.037  1.4629 -0.3039  1.6262
17631SOL    HW260009  11.547   1.903   1.055  0.2973  0.2514 -1.4172
17632SOL     OW60010   6.992   5.406   5.282 -0.2992 -0.1381  0.0623
17632SOL    HW160011   7.065   5.467   5.283  0.1036 -0.6116  0.4910
17632SOL    HW260012   7.034   5.319   5.285 -0.8396 -0.4530 -0.9152
17633SOL     OW60013   7.304  12.306   1.649 -0.1547 -0.2251 -0.6457
17633SOL    HW160014   7.385  12.297   1.699 -1.0280  2.9541  1.6471
17633SOL    HW260015   7.235  12.281   1.710 -1.2225  3.4025 -0.1297
17634SOL     OW60016   5.105   7.267   9.315 -0.1489  0.4163 -0.1624
17634SOL    HW160017   5.082   7.328   9.385 -0.7657  0.9555 -0.8084
17634SOL    HW260018   5.027   7.265   9.259  0.5902  0.5887 -1.2387
17635SOL     OW60019   7.133   7.451   2.384  0.1627  0.0165  0.2048
17635SOL    HW160020   7.060   7.495   2.427  0.0822  0.7590 -0.6519
17635SOL    HW260021   7.092   7.389   2.324  0.2430  0.0762  0.0878
17636SOL     OW60022   3.004  11.550   7.152 -0.2648  0.5056  0.6397
17636SOL    HW160023   2.965  11.463   7.159 -0.9394  0.1929 -4.1935
17636SOL    HW260024   2.930  11.610   7.150  0.0418  0.8922  0.6193
17637SOL     OW60025   2.067  11.878   9.118 -0.3887  0.0525 -0.2833
17637SOL    HW160026   2.019  11.924   9.188 -1.2565 -2.1178  0.6415
17637SOL    HW260027   2.082  11.790   9.154  0.4380 -0.6697 -2.2850
17638SOL     OW60028   3.207   9.303  11.786  0.2219  0.3935  0.4531
17638SOL    HW160029   3.155   9.383  11.780 -0.5155 -0.0623  0.7018
17638SOL    HW260030   3.186   9.254  11.707  1.4068  0.8634 -0.1813
17639SOL     OW60031  11.062  12.112   5.557 -0.2901 -0.2742 -0.2516
17639SOL    HW160032  11.063  12.162   5.475 -1.9639  1.4250  0.6731
17639SOL    HW260033  10.969  12.103   5.578  0.0820 -1.4039  1.0630
17640SOL     OW60034   7.713   0.426   0.898  0.2544  0.4901  0.6373
17640SOL    HW160035   7.738   0.350   0.951  5.8350  0.3308 -1.5132
17640SOL    HW260036   7.770   0.496   0.929 -1.1467  2.3483 -0.7865
17641SOL     OW60037  12.867   6.889   2.162  0.4519  0.7032  0.7857
17641SOL    HW160038  12.784   6.932   2.143  0.5478  0.0257 -1.4504
17641SOL    HW260039  12.845   6.827   2.232 -0.6811  1.2555  0.9527
17642SOL     OW60040   3.344   7.386   6.478  0.6686 -0.1637  0.9097
17642SOL    HW160041   3.368   7.476   6.454 -0.3478 -0.4433 -1.4171
17642SOL    HW260042   3.389   7.332   6.413 -2.5795 -0.9619 -0.8699
17643SOL     OW60043  12.273   5.755   0.806 -0.3710  0.3651 -0.3444
17643SOL    HW160044  12.211   5.683   0.795 -2.5302  2.1777 -0.7036
17643SOL    HW260045  12.349   5.715   0.847 -1.3808 -2.1539 -0.7582
17644SOL     OW60046   5.928   8.275   0.231  0.2237  0.2065  0.0780
17644SOL    HW160047   5.958   8.194   0.272  0.3064 -0.1218 -0.6229
17644SOL    HW260048   5.903   8.249   0.142  1.6831  1.2302 -0.6540
17645SOL     OW60049   7.442   2.967  10.854  0.4208 -0.7015 -0.3930
17645SOL    HW160050   7.413   3.055  10.833 -1.3384 -0.9288  0.8760
17645SOL    HW260051   7.375   2.910  10.818  0.9919 -1.4707 -0.2681
17646SOL     OW60052  12.652   8.742   1.995  0.1825 -0.1424  0.1513
17646SOL    HW160053  12.624   8.660   2.034  0.5854  1.2494  3.7071
17646SOL    HW260054  12.574   8.798   1.997  0.6217  0.4732  0.4752
17647SOL     OW60055   1.421   3.062   6.869 -0.5552 -0.0883  0.3460
17647SOL    HW160056   1.386   3.121   6.802  1.4962 -0.7245 -1.4067
17647SOL    HW260057   1.376   2.979   6.853 -0.3262 -0.1428 -0.0390
17648SOL     OW60058  11.616   5.139   3.822  0.0911  0.0647  0.4966
17648SOL    HW160059  11.669   5.200   3.771  0.1127  0.5451  1.0855
17648SOL    HW260060  11.595   5.187   3.902 -1.3480 -0.0644  0.2234
17649SOL     OW60061   0.399   0.810  12.791  0.0250 -0.1242  0.0590
17649SOL    HW160062   0.329   0.747  12.773 -0.1946  0.6176 -1.9535
17649SOL    HW260063   0.462   0.797  12.720  1.8839 -0.6104  1.6938
17650SOL     OW60064   7.796  12.044   2.142 -0.5100 -0.3105 -0.7062
17650SOL    HW160065   7.840  12.027   2.058 -1.0118  0.0842 -1.0582
17650SOL    HW260066   7.703  12.038   2.122 -0.6322 -1.4369  0.1028
17651SOL     OW60067   9.027  12.405   1.999 -0.0545  0.0124  0.2683
17651SOL    HW160068   9.034  12.330   2.059 -1.1849  0.7877  1.4285
17651SOL    HW260069   8.985  12.473   2.052  1.9428  1.8587 -0.3928
17652SOL     OW60070   0.862   0.500   7.786  0.0461 -0.0791 -0.1019
17652SOL    HW160071   0.945   0.521   7.744  0.2613  0.0779  0.4032
17652SOL    HW260072   0.861   0.551   7.867 -0.6115  0.0440 -0.1778
17653SOL     OW60073   1.754   0.132  11.722  0.0174 -0.8493  0.3990
17653SOL    HW160074   1.808   0.146  11.800 -0.9753  0.5925  0.8541
17653SOL    HW260075   1.704   0.213  11.712 -1.0736 -1.6316 -0.8008
17654SOL     OW60076   7.378   5.644   6.332  0.0707  0.7303 -0.1769
17654SOL    HW160077   7.398   5.623   6.423 -0.4073  1.5802  0.1437
17654SOL    HW260078   7.448   5.603   6.281  1.2016  1.4955  0.6980
17655SOL     OW60079  11.080   4.371   3.764  0.1080  0.1227 -0.0915
17655SOL    HW160080  11.073   4.443   3.826  2.1382  0.1069  0.2120
17655SOL    HW260081  11.148   4.398   3.703 -1.3673 -0.1694 -1.9428
17656SOL     OW60082   9.922  11.330  10.191  0.3245 -0.7737 -0.0426
17656SOL    HW160083   9.921  11.262  10.124  1.0021  0.1225 -1.0009
17656SOL    HW260084   9.979  11.398  10.155  1.9309 -0.8947  2.0949
17657SOL     OW60085   2.121   3.128   8.615 -0.6785  0.1091  0.4544
17657SOL    HW160086   2.145   3.221   8.615  0.6189 -0.1968 -0.3197
17657SOL    HW260087   2.065   3.118   8.539  1.5712 -0.2584 -1.2555
17658SOL     OW60088   6.883   7.155   7.527  0.3950  0.0553  0.2266
17658SOL    HW160089   6.962   7.193   7.567  1.1068 -0.4734 -0.6468
17658SOL    HW260090   6.908   7.138   7.436  0.0187 -2.2192  0.4940
17659SOL     OW60091   7.530   0.939   4.164 -0.5496  0.3336 -0.0119
17659SOL    HW160092   7.611   0.889   4.170 -0.4651  0.4793  0.0920
17659SOL    HW260093   7.486   0.923   4.248 -1.2888 -0.8572 -0.6146
17660SOL     OW60094   0.895   8.355  11.765 -0.0959 -0.2976 -0.5703
17660SOL    HW160095   0.819   8.323  11.717 -1.0354 -0.0855  0.7252
17660SOL    HW260096   0.970   8.321  11.717 -1.0255 -2.1219 -0.8067
17661SOL     OW60097   9.512  10.847   1.192  0.0150  0.2545 -0.3655
17661SOL    HW160098   9.566  10.792   1.248 -1.1086  1.1871  1.7450
17661SOL    HW260099   9.507  10.800   1.109 -0.2165 -2.4325  1.0726
17662SOL     OW60100   8.391  10.475  11.237  0.1017  0.1449  0.6109
17662SOL    HW160101   8.452  10.413  11.275 -0.1113 -0.4461  0.0125
17662SOL    HW260102   8.425  10.492  11.149 -1.3296 -1.3274 -0.2955
17663SOL     OW60103   8.743   7.143   5.808  0.4413 -0.5007  0.4237
17663SOL    HW160104   8.829   7.171   5.777 -0.3698  1.4411 -0.2081
17663SOL    HW260105   8.742   7.048   5.793  1.9727 -0.3650 -0.7777
17664SOL     OW60106   0.534   5.521   4.046  0.2714  0.2333  0.2237
17664SOL    HW160107   0.519   5.602   3.998 -0.6236  0.5635  1.0208
17664SOL    HW260108   0.629   5.514   4.052  0.3625  1.1560  0.0355
17665SOL     OW60109   8.785   5.916   3.576  0.3070  0.0830  0.0066
17665SOL    HW160110   8.866   5.966   3.567  1.2698 -1.6241 -1.4050
17665SOL    HW260111   8.765   5.886   3.488 -1.1937 -0.5817  0.5314
17666SOL     OW60112  10.108   4.161   4.907  0.6376 -0.1570 -0.2723
17666SOL    HW160113  10.115   4.210   4.826 -0.2461  0.9890  0.3232
17666SOL    HW260114  10.190   4.178   4.953 -0.1925  1.9375  0.5415
17667SOL     OW60115   8.621   8.632   5.099 -0.6417 -0.0317 -0.7934
17667SOL    HW160116   8.700   8.683   5.079 -0.5391  1.2617  2.3863
17667SOL    HW260117   8.648   8.541   5.087  1.0481  0.4120 -0.6675
17668SOL     OW60118   5.146  12.496   3.466 -0.1812  0.7409 -0.5294
17668SOL    HW160119   5.097  12.568   3.426  0.0047  1.6685  0.8353
17668SOL    HW260120   5.079  12.439   3.504 -0.2927  0.7499 -0.7137
17669SOL     OW60121   6.302   2.544  12.716 -0.1582  0.2764  0.1405
17669SOL    HW160122   6.269   2.466  12.762 -0.5454 -0.9809 -2.1239
17669SOL    HW260123   6.378   2.571  12.768 -0.3894 -1.2128  1.3503
17670SOL     OW60124   2.838  10.754   4.061 -0.6938  0.4072 -0.3711
17670SOL    HW160125   2.777  10.792   4.124 -1.1467  0.7828 -1.0266
17670SOL    HW260126   2.861  10.669   4.099  0.6651  1.4423  1.3310
17671SOL     OW60127   1.705   2.501   5.734  0.2676  0.6624  0.6945
17671SOL    HW160128   1.610   2.513   5.744 -0.1332 -0.7305 -0.9915
17671SOL    HW260129   1.730   2.568   5.671  0.0119 -0.2667 -0.4157
17672SOL     OW60130   3.718  11.316   4.385 -0.2710  0.4197  0.4809
17672SOL    HW160131   3.667  11.260   4.444 -0.7670  1.3006  0.9002
17672SOL    HW260132   3.709  11.274   4.300 -1.8516  0.6333  0.5084
17673SOL     OW60133  12.578  10.427   4.714  0.3598  0.6254 -0.0310
17673SOL    HW160134  12.559  10.450   4.805  1.0421 -0.7901  0.4976
17673SOL    HW260135  12.674  10.417   4.712  0.3604  0.7430 -0.9306
17674SOL     OW60136   8.088   0.946  11.768 -0.3009  0.2488 -0.2333
17674SOL    HW160137   8.108   0.901  11.686 -0.5082 -0.5663  0.1526
17674SOL    HW260138   8.132   0.894  11.835 -0.5195  0.6448  0.2224
17675SOL     OW60139  11.459   1.354  11.151  0.3184  0.4484  0.3146
17675SOL    HW160140  11.425   1.326  11.236  0.1138  2.6212  1.0158
17675SOL    HW260141  11.547   1.387  11.171  1.0161 -0.7450 -0.6693
17676SOL     OW60142   7.130   1.999   2.084  0.1721 -0.0977 -0.1196
17676SOL    HW160143   7.080   1.940   2.142  0.0439  0.5166  0.4080
17676SOL    HW260144   7.116   2.086   2.122  1.3511  0.1248 -0.1741
17677SOL     OW60145   8.846   3.553   4.740 -0.3125 -0.2218 -0.2972
17677SOL    HW160146   8.838   3.458   4.732  0.1714 -0.3756  0.8893
17677SOL    HW260147   8.769   3.587   4.694  0.1646 -1.1250 -1.8607
17678SOL     OW60148   8.937  11.358   6.032 -0.1329  0.3807  0.3541
17678SOL    HW160149   8.845  11.385   6.028  0.0567  1.0067  0.1738
17678SOL    HW260150   8.986  11.435   6.005  0.4173 -0.1676 -0.2762
17679SOL     OW60151   8.858   1.623   9.966 -0.2182 -0.3575  0.3694
17679SOL    HW160152   8.812   1.540   9.976 -1.2313  0.1223 -0.2275
17679SOL    HW260153   8.799   1.678   9.916 -0.6121  1.5779  2.7630
17680SOL     OW60154  10.890   0.194  12.065  0.8215  0.0680 -0.5503
17680SOL    HW160155  10.917   0.163  11.979 -0.7790 -0.8824 -0.7516
17680SOL    HW260156  10.811   0.245  12.049  1.6364  1.6363  0.1617
17681SOL     OW60157   7.692   9.769   5.888  0.8389 -0.2344 -0.5446
17681SOL    HW160158   7.667   9.694   5.834  0.6140  0.9411 -2.1856
17681SOL    HW260159   7.667   9.845   5.835 -1.1988  1.0779  2.0216
17682SOL     OW60160  10.321  12.941   6.639 -0.1652  0.1377  0.5651
17682SOL    HW160161  10.356  12.994   6.567 -0.8682  1.1751  0.9580
17682SOL    HW260162  10.349  12.852   6.619 -1.7587  0.0859 -1.9066
17683SOL     OW60163  11.510   9.550  10.003  0.0552 -0.3274 -0.1762
17683SOL    HW160164  11.448   9.544   9.931 -0.0982  0.1383 -0.0838
17683SOL    HW260165  11.473   9.492  10.070  0.4194 -1.0944 -0.6251
17684SOL     OW60166  11.598   7.026   8.217 -0.2996 -0.0566 -0.5854
17684SOL    HW160167  11.573   7.058   8.130  0.1195  2.2744  0.0898
17684SOL    HW260168  11.554   7.085   8.278  0.4215 -0.8711  0.7603
17685SOL     OW60169  11.571  11.730  10.604  0.3502 -0.0956 -0.6235
17685SOL    HW160170  11.515  11.691  10.537  0.4106 -1.4133  0.0412
17685SOL    HW260171  11.650  11.756  10.558 -0.3182  0.6853 -1.3642
17686SOL     OW60172   3.913   3.001  10.003 -0.0350  0.2208  0.0882
17686SOL    HW160173   3.822   3.031   9.999 -0.0520  0.2134  0.4160
17686SOL    HW260174   3.916   2.943  10.079  0.3206  0.4865  0.2784
17687SOL     OW60175   0.265   3.957   5.895 -0.2288 -0.1000 -0.4193
17687SOL    HW160176   0.308   3.941   5.979 -1.0322 -1.1648 -0.1925
17687SOL    HW260177   0.302   3.892   5.835 -0.1117  0.2502 -0.7324
17688SOL     OW60178  12.294   8.130  11.380  0.2608  0.1755 -0.1409
17688SOL    HW160179  12.299   8.049  11.431 -0.3393 -0.3982 -0.9643
17688SOL    HW260180  12.274   8.198  11.445  0.7628 -0.3297  0.5551
17689SOL     OW60181   2.935   7.374   2.571  0.1638 -0.3661 -0.6925
17689SOL    HW160182   3.015   7.417   2.600 -0.7563  1.6414 -0.9626
17689SOL    HW260183   2.953   7.348   2.481  1.2064 -1.8700 -0.0892
17690SOL     OW60184   4.897   6.211   7.655  0.4107 -0.2959  0.1867
17690SOL    HW160185   4.905   6.201   7.750  1.0213  1.5928  0.3713
17690SOL    HW260186   4.843   6.289   7.644  2.0236  0.7172 -0.9795
17691SOL     OW60187   7.399  11.775   8.014  0.8604  0.6203  0.2608
17691SOL    HW160188   7.407  11.868   8.036 -0.8375  0.6818  0.7707
17691SOL    HW260189   7.318  11.747   8.058  1.1617 -1.0146 -0.1681
17692SOL     OW60190  12.385  12.721   3.797 -0.1947 -0.3266  0.2647
17692SOL    HW160191  12.303  12.731   3.846 -0.8234 -0.7169 -0.6729
17692SOL    HW260192  12.394  12.627   3.783  0.0106 -0.2280 -0.2978
17693SOL     OW60193   2.692   0.230   6.695 -0.3187  0.1015  0.1791
17693SOL    HW160194   2.681   0.138   6.719 -0.5637  0.2569  0.6837
17693SOL    HW260195   2.691   0.230   6.599 -0.3034 -0.4217  0.1743
17694SOL     OW60196   3.905  10.635  12.119  0.2108  0.2696  0.4594
17694SOL    HW160197   3.953  10.694  12.061 -2.5281 -0.4838 -2.9318
17694SOL    HW260198   3.857  10.693  12.178 -0.0964  1.3392 -0.7934
17695SOL     OW60199   0.040   8.974   8.705 -0.1919  0.0048  0.1150
17695SOL    HW160200   0.118   8.919   8.711 -1.2292 -1.7365 -1.4139
17695SOL    HW260201  -0.001   8.950   8.622 -2.5394  0.6305  0.9947
17696SOL     OW60202  10.584   4.038   1.695 -0.7936 -0.0257  0.3464
17696SOL    HW160203  10.666   4.045   1.743 -0.1015  0.0773 -0.8084
17696SOL    HW260204  10.594   3.959   1.642 -2.1485 -0.9982  1.4562
17697SOL     OW60205   7.670   3.643   4.371 -0.6186 -0.3180 -0.2070
17697SOL    HW160206   7.610   3.600   4.432  0.9643 -1.0715  0.8914
17697SOL    HW260207   7.747   3.585   4.368  0.3410  0.9427 -1.0301
17698SOL     OW60208   6.306   5.897  11.202 -0.2141 -0.4929  0.1265
17698SOL    HW160209   6.254   5.836  11.255 -0.4491  1.0774  1.8025
17698SOL    HW260210   6.373   5.930  11.261  0.5075  0.1671 -1.0159
17699SOL     OW60211   7.380  12.079  10.606 -0.3825 -0.0382 -0.3593
17699SOL    HW160212   7.307  12.032  10.566  0.5482 -0.0440 -2.1340
17699SOL    HW260213   7.338  12.141  10.666 -1.8357 -0.2327 -1.1191
17700SOL     OW60214   7.223  11.117   7.702 -0.4237  0.3212  0.4764
17700SOL    HW160215   7.236  11.026   7.727 -1.5503  0.0990  0.3409
17700SOL    HW260216   7.263  11.168   7.772  0.0304 -0.2817  0.6551
17701SOL     OW60217  11.853   2.284   8.215  0.1603 -0.2698 -0.1153
17701SOL    HW160218  11.802   2.255   8.292  0.9517  0.0894  0.5604
17701SOL    HW260219  11.800   2.353   8.177  0.0784  0.0279  0.5207
17702SOL     OW60220   0.388   9.393   7.972  0.1393 -0.0388  0.0806
17702SOL    HW160221   0.394   9.316   7.916  2.5320  0.3253 -0.2338
17702SOL    HW260222   0.352   9.462   7.914 -0.2328 -0.4166 -0.1466
17703SOL     OW60223   9.599   4.949   9.819 -0.5709 -0.0084  0.4408
17703SOL    HW160224   9.551   4.946   9.736  1.5059  1.2418 -0.8773
17703SOL    HW260225   9.669   4.885   9.809  0.1063  0.6330  0.9475
17704SOL     OW60226   9.798  12.490   4.175 -0.1461 -0.6240  0.1788
17704SOL    HW160227   9.722  12.541   4.147 -0.5872 -1.0209  0.6378
17704SOL    HW260228   9.869  12.555   4.181 -0.2376 -0.3891 -1.0256
17705SOL     OW60229   4.369  10.080  10.360 -0.1623 -0.5803  0.3609
17705SOL    HW160230   4.298  10.019  10.380  0.0020 -1.0428 -0.4007
17705SOL    HW260231   4.436  10.026  10.319  0.9218 -0.2598  1.6591
17706SOL     OW60232   8.042   7.202   0.376 -0.4686  0.0466  0.4177
17706SOL    HW160233   8.101   7.242   0.440 -0.6997 -0.4247  0.9213
17706SOL    HW260234   8.101   7.165   0.310 -0.2485  1.4079 -0.1898
17707SOL     OW60235   9.591   3.197   4.036  0.2481  0.1901 -0.1865
17707SOL    HW160236   9.596   3.285   4.075 -0.4025 -0.5116  1.6184
17707SOL    HW260237   9.527   3.206   3.965 -2.4540  0.5546  2.0963
17708SOL     OW60238   6.225   0.088   5.931  0.3152 -0.0516  0.2027
17708SOL    HW160239   6.317   0.107   5.916  0.3278  0.8856  1.3163
17708SOL    HW260240   6.216   0.083   6.027 -0.3046 -2.7115  0.1100
17709SOL     OW60241   6.857  12.523   6.750 -0.3399  0.4119 -0.4532
17709SOL    HW160242   6.917  12.597   6.740 -0.1295  0.2433 -0.4526
17709SOL    HW260243   6.783  12.545   6.693 -0.6123  0.9619  0.1061
17710SOL     OW60244  12.422   6.739   8.356 -0.5372  0.2061  0.0102
17710SOL    HW160245  12.336   6.698   8.366 -0.6232  0.5657  0.8758
17710SOL    HW260246  12.455   6.745   8.446  0.6733 -0.5115 -0.3635
17711SOL     OW60247  12.072   5.930  10.734  0.1383  0.3814  0.9648
17711SOL    HW160248  12.102   5.855  10.785 -0.3168 -1.6567 -1.5779
17711SOL    HW260249  11.984   5.906  10.706  0.4887  1.2682 -1.0047
17712SOL     OW60250   8.723   1.612   9.087  0.3671 -0.1099 -0.3906
17712SOL    HW160251   8.722   1.706   9.103  0.1135 -0.1022 -0.4486
17712SOL    HW260252   8.693   1.574   9.170  0.3224 -0.1324 -0.4170
17713SOL     OW60253   5.758  12.968   1.215 -0.1923 -0.2224 -0.0677
17713SOL    HW160254   5.822  12.933   1.154 -1.0226 -0.6745 -0.6892
17713SOL    HW260255   5.811  13.020   1.277  0.8510 -1.1557 -0.1375
17714SOL     OW60256   0.813  12.869   2.065  0.5837  0.2223  0.1371
17714SOL    HW160257   0.829  12.944   2.009 -2.5267 -1.6739 -3.7865
17714SOL    HW260258   0.875  12.803   2.035  1.1292  0.1711  1.3292
17715SOL     OW60259   2.755   3.556   4.378  0.2843  0.0293  0.4799
17715SOL    HW160260   2.721   3.474   4.414  0.6440 -0.9423 -1.3016
17715SOL    HW260261   2.800   3.531   4.298  1.2897  1.8598  0.4072
17716SOL     OW60262   5.621   5.442   7.642  0.1451 -0.1933 -0.5361
17716SOL    HW160263   5.710   5.457   7.610  0.4182 -2.1988 -0.7969
17716SOL    HW260264   5.572   5.413   7.565  0.0892 -2.2252  0.2274
17717SOL     OW60265   3.634  10.099   9.055  0.2342 -0.4906 -0.1989
17717SOL    HW160266   3.619  10.145   8.972  0.1099  0.6362  0.4331
17717SOL    HW260267   3.639  10.169   9.121  0.6221 -1.3501  0.7043
17718SOL     OW60268   7.027   0.827   7.459 -0.3831  0.3061 -0.7049
17718SOL    HW160269   7.013   0.911   7.414 -0.5866  0.8792  0.3784
17718SOL    HW260270   6.975   0.764   7.410  0.8005  0.5418 -2.3228
17719SOL     OW60271  11.919   8.647   4.823  0.2088  0.3861  0.5204
17719SOL    HW160272  11.834   8.691   4.822 -0.3639 -0.5370 -2.4809
17719SOL    HW260273  11.912   8.583   4.894 -1.7870  0.0509  0.0853
17720SOL     OW60274   3.638   9.331   0.708  0.1813  0.3743  0.6709
17720SOL    HW160275   3.684   9.384   0.772  3.2707 -2.8938  1.5080
17720SOL    HW260276   3.690   9.339   0.628  0.3441 -0.8311  0.6343
17721SOL     OW60277   1.822   7.012   2.534 -0.1698  0.1876 -0.4197
17721SOL    HW160278   1.845   7.027   2.442  1.3591 -0.2385 -0.1446
17721SOL    HW260279   1.777   6.928   2.534  1.2101 -0.5939 -0.6350
17722SOL     OW60280  10.463   9.641  10.497  0.3041  0.5280 -0.3468
17722SOL    HW160281  10.536   9.585  10.469  0.8322 -0.1231  2.0668
17722SOL    HW260282  10.460   9.630  10.592 -2.8426  0.6877 -0.3352
17723SOL     OW60283   2.215   4.381   4.880  0.5190 -0.1798  0.2171
17723SOL    HW160284   2.160   4.358   4.955  0.9161 -0.1671  0.5161
17723SOL    HW260285   2.164   4.353   4.803 -0.8065  1.6479  0.3539
17724SOL     OW60286  10.886   5.688   7.999  0.1477 -0.4016  0.1893
17724SOL    HW160287  10.876   5.779   7.971 -0.2503 -0.0336  1.4948
17724SOL    HW260288  10.980   5.671   7.994  0.1507 -0.1559 -0.7464
17725SOL     OW60289   4.835   9.554   0.838 -0.0472  0.4956 -0.0788
17725SOL    HW160290   4.798   9.486   0.894 -0.5166  1.0652  0.3239
17725SOL    HW260291   4.834   9.516   0.751 -1.2704  0.3522 -0.0238
17726SOL     OW60292  10.076  12.583   0.091 -0.0870 -0.1220 -0.0511
17726SOL    HW160293  10.014  12.574   0.019  0.2882  1.8435 -0.6989
17726SOL    HW260294  10.028  12.631   0.158  0.5900  1.2523 -0.4864
17727SOL     OW60295   3.568   7.400   6.193  0.1901  0.2630 -0.0803
17727SOL    HW160296   3.653   7.440   6.177  0.1098  0.2438 -0.5800
17727SOL    HW260297   3.538   7.371   6.106 -2.1970  3.9663 -0.7354
17728SOL     OW60298  11.924   1.219   4.430 -0.5318  0.5526 -0.5502
17728SOL    HW160299  11.865   1.293   4.415 -0.9467  0.3441  0.0179
17728SOL    HW260300  11.866   1.145   4.447 -0.1103  0.2495 -0.4152
17729SOL     OW60301   0.085  12.522   3.439  0.2211 -0.8955 -0.2914
17729SOL    HW160302   0.150  12.462   3.401  0.0342 -2.3082  1.5021
17729SOL    HW260303   0.060  12.481   3.522  0.5238  1.9824  1.3480
17730SOL     OW60304   7.621   1.882   2.566  0.2957  0.0166 -0.4868
17730SOL    HW160305   7.653   1.855   2.480  0.1471  1.6654 -1.1032
17730SOL    HW260306   7.651   1.814   2.626  3.7103  0.6856 -1.2258
17731SOL     OW60307   1.903   0.028   5.465 -0.0651  0.7089 -0.4052
17731SOL    HW160308   1.864   0.111   5.437  3.1019  2.2388 -0.6704
17731SOL    HW260309   1.886  -0.032   5.393  0.4249  2.0863 -1.7125
17732SOL     OW60310   3.536   8.062   6.999  0.0267 -0.6206  0.3143
17732SOL    HW160311   3.473   8.107   7.056  0.8393 -1.4021  1.9135
17732SOL    HW260312   3.509   8.084   6.910 -1.4529  0.4591  0.9965
17733SOL     OW60313  12.133   3.039   1.373 -0.2349 -0.0999  0.3081
17733SOL    HW160314  12.152   2.960   1.424  2.0317  0.4817  0.4875
17733SOL    HW260315  12.158   3.111   1.431 -0.4618  0.6749 -0.5407
17734SOL     OW60316   3.906   7.667   2.846 -0.2427  0.0314 -0.3832
17734SOL    HW160317   3.961   7.745   2.838 -0.7643  0.4031 -0.4100
17734SOL    HW260318   3.861   7.660   2.761  1.2954 -1.4688 -1.1412
17735SOL     OW60319  10.806   0.562  11.769 -0.2238  0.3039  0.6141
17735SOL    HW160320  10.899   0.564  11.791 -0.5918 -1.0445  2.5800
17735SOL    HW260321  10.799   0.496  11.700  0.3562  0.9395 -0.0575
17736SOL     OW60322   8.758   5.442  11.313  0.1673  0.3680  0.2603
17736SOL    HW160323   8.829   5.379  11.312  1.2980  1.6038  0.5228
17736SOL    HW260324   8.766   5.490  11.231  0.9613  1.8965  1.1747
17737SOL     OW60325   6.750   3.377   0.226  0.0287 -0.7758 -0.0743
17737SOL    HW160326   6.835   3.367   0.183 -0.9815 -0.8885 -2.1813
17737SOL    HW260327   6.693   3.315   0.181 -0.9006 -1.6437  2.1739
17738SOL     OW60328   2.585   2.500   4.044 -0.8665 -0.3504  0.2311
17738SOL    HW160329   2.656   2.559   4.068 -0.5979 -0.8641  0.7100
17738SOL    HW260330   2.606   2.418   4.088 -0.5770 -1.1953 -1.4075
17739SOL     OW60331  10.397  12.909   5.388  0.0506 -0.1672 -0.2374
17739SOL    HW160332  10.365  12.964   5.317  0.0336  1.6926  1.1563
17739SOL    HW260333  10.329  12.842   5.399 -0.0998 -0.2770 -1.7141
17740SOL     OW60334   6.271   5.341   5.705 -0.4923 -0.1539 -0.3368
17740SOL    HW160335   6.332   5.337   5.778 -1.5405  0.5377  0.6082
17740SOL    HW260336   6.211   5.267   5.719 -0.2557 -0.4759 -0.9361
17741SOL     OW60337  10.304   7.643   9.898 -0.0062 -0.4285  0.6957
17741SOL    HW160338  10.257   7.647   9.815 -0.4628  1.3184  0.9890
17741SOL    HW260339  10.393   7.617   9.874 -0.1335  0.0511 -0.3568
17742SOL     OW60340   1.838   2.457   8.573 -0.0073 -0.0549 -0.0388
17742SOL    HW160341   1.749   2.451   8.538 -0.2862 -1.7182  0.8622
17742SOL    HW260342   1.887   2.389   8.527  0.7483  0.6964 -0.3612
17743SOL     OW60343   0.909   2.742   6.995  0.5461 -0.7843 -0.3274
17743SOL    HW160344   0.995   2.736   7.036  0.7757 -0.5940 -0.7648
17743SOL    HW260345   0.917   2.688   6.916  0.4893 -0.1957 -0.7396
17744SOL     OW60346   2.991   4.960  12.917 -0.1500 -0.4797 -0.2140
17744SOL    HW160347   2.998   4.960  13.012 -0.2533 -0.0573 -0.2067
17744SOL    HW260348   2.898   4.952  12.899 -0.1599 -0.2194 -0.2784
17745SOL     OW60349   6.958  10.078   7.267  0.5095 -0.9667  1.2336
17745SOL    HW160350   6.958  10.159   7.215  1.8683 -0.4884  1.9257
17745SOL    HW260351   6.900  10.019   7.219 -0.5011  0.3958  0.6922
17746SOL     OW60352   0.957   0.580   3.272  0.0379 -0.1895  0.1620
17746SOL    HW160353   0.988   0.645   3.336  0.4667 -1.8124  1.7059
17746SOL    HW260354   0.925   0.508   3.326 -2.2836 -0.4785 -1.4594
17747SOL     OW60355   7.858   7.167   4.619 -0.4005  0.2847 -0.2465
17747SOL    HW160356   7.936   7.113   4.611  0.0350  0.3820  2.3658
17747SOL    HW260357   7.850   7.211   4.534  2.5480  0.5195 -0.5037
17748SOL     OW60358   4.424   1.751   6.722  0.2186 -0.5428 -1.1817
17748SOL    HW160359   4.372   1.717   6.648 -0.9592  1.1815 -1.2201
17748SOL    HW260360   4.361   1.802   6.773  1.3737 -0.4256  0.1764
17749SOL     OW60361   2.075   2.094  10.439 -0.6847  0.8163 -0.6465
17749SOL    HW160362   2.046   2.039  10.367  0.9830 -0.6159 -0.2775
17749SOL    HW260363   2.022   2.066  10.514 -2.2200  2.1163 -1.1747
17750SOL     OW60364   9.393  11.428   7.766 -0.3581  0.6883  0.2111
17750SOL    HW160365   9.401  11.521   7.784  1.0958  0.9281 -1.3967
17750SOL    HW260366   9.409  11.420   7.672 -0.1637 -1.2106  0.3606
17751SOL     OW60367   5.190   2.063   3.462 -0.0844 -0.0150 -0.4832
17751SOL    HW160368   5.248   1.988   3.479 -0.5909 -0.0234  1.4212
17751SOL    HW260369   5.221   2.130   3.522 -2.6627 -0.3795  1.4096
17752SOL     OW60370   3.436   7.451  10.740  0.4463 -0.0929  0.6023
17752SOL    HW160371   3.373   7.508  10.695  0.8387 -1.2991 -1.6477
17752SOL    HW260372   3.382   7.393  10.794 -0.2950 -0.1998 -0.2260
17753SOL     OW60373  10.224   4.161  12.764  0.3325 -0.1126 -0.4160
17753SOL    HW160374  10.170   4.104  12.709 -2.0941  1.6517 -0.0281
17753SOL    HW260375  10.172   4.174  12.843  1.2866  1.7496 -0.0454
17754SOL     OW60376   9.833   4.268  10.129 -0.0588 -0.5784  0.1280
17754SOL    HW160377   9.824   4.297  10.220 -1.6212 -2.0980  0.5064
17754SOL    HW260378   9.927   4.255  10.118  0.1137 -1.0222  1.7680
17755SOL     OW60379   6.686   3.469   6.267  0.2475  0.4209 -0.2496
17755SOL    HW160380   6.599   3.497   6.239  0.0337  0.1669  0.1623
17755SOL    HW260381   6.723   3.544   6.313 -0.2213  0.1162  0.6239
17756SOL     OW60382   2.146  11.497   1.819 -0.1643  0.2560  0.3406
17756SOL    HW160383   2.174  11.588   1.829  1.8081 -0.4556  1.8535
17756SOL    HW260384   2.166  11.455   1.902  2.5928 -2.4262 -1.4324
17757SOL     OW60385   9.781  12.874   4.199  0.4349  0.0701  0.3940
17757SOL    HW160386   9.792  12.968   4.191 -0.4311  0.1651  0.2581
17757SOL    HW260387   9.711  12.852   4.138 -0.2774 -0.4624  1.3595
17758SOL     OW60388   9.514   5.460   8.495  0.0800  0.4133  0.5157
17758SOL    HW160389   9.425   5.430   8.511  0.6948 -1.2400  0.9814
17758SOL    HW260390   9.550   5.477   8.582  0.8219 -0.7784  0.4549
17759SOL     OW60391   9.107  11.346   6.348 -0.4870 -0.5061 -0.2033
17759SOL    HW160392   9.106  11.285   6.421 -1.3633 -3.8594 -2.7262
17759SOL    HW260393   9.156  11.300   6.279 -0.0042  2.2801 -1.8993
17760SOL     OW60394   3.705   6.167   6.538 -0.1429  0.3541 -0.4012
17760SOL    HW160395   3.630   6.193   6.591 -0.3048 -0.0994 -0.4048
17760SOL    HW260396   3.779   6.165   6.599 -0.3832 -0.4493 -0.1240
17761SOL     OW60397   6.186  10.005   4.053 -0.2908 -0.2149  0.7441
17761SOL    HW160398   6.117  10.047   4.103 -0.6282  0.8475 -0.5565
17761SOL    HW260399   6.266  10.022   4.104 -0.6194  0.8358  0.9379
17762SOL     OW60400   4.795  11.924   5.752  0.2250  0.0644 -0.8069
17762SOL    HW160401   4.853  11.870   5.807 -0.7465 -2.6553 -2.2839
17762SOL    HW260402   4.846  12.003   5.735  1.6948 -0.2730  1.5782
17763SOL     OW60403  12.016   8.819   2.253  0.1632  0.0525 -0.0279
17763SOL    HW160404  11.955   8.835   2.325 -0.4497  0.4848 -0.6419
17763SOL    HW260405  12.012   8.898   2.200 -0.6254 -0.8949 -1.4297
17764SOL     OW60406   2.156   3.390   9.464  0.3659  0.4056 -0.3505
17764SOL    HW160407   2.101   3.320   9.429  0.4719  0.5145 -0.7369
17764SOL    HW260408   2.162   3.370   9.558  0.8620 -0.4272 -0.5446
17765SOL     OW60409   3.654   9.282   4.176 -0.1027  0.0115 -0.3535
17765SOL    HW160410   3.564   9.292   4.205  0.1526  0.4312  0.3279
17765SOL    HW260411   3.647   9.257   4.084 -0.9068  0.2191 -0.3575
17766SOL     OW60412   3.746   4.952   8.737  0.6894  0.1617 -0.0685
17766SOL    HW160413   3.730   4.952   8.831  0.9353  2.1316  0.0177
17766SOL    HW260414   3.666   4.987   8.698  0.2795 -1.4006 -0.6801
17767SOL     OW60415   5.357   7.942   3.423  0.0664 -0.2088 -0.3277
17767SOL    HW160416   5.339   7.863   3.474  1.0459 -2.0779 -2.6986
17767SOL    HW260417   5.271   7.980   3.406 -0.2632  1.0582  3.3737
17768SOL     OW60418   1.592   2.825  11.801 -0.1093 -0.0692 -0.3431
17768SOL    HW160419   1.686   2.842  11.801 -0.1231  0.1209  0.7624
17768SOL    HW260420   1.557   2.881  11.871 -0.9410 -0.6449 -0.2757
17769SOL     OW60421   4.687   7.726   3.101 -0.3358  0.1208  0.1040
17769SOL    HW160422   4.623   7.679   3.156  1.4376 -1.2188  1.1482
17769SOL    HW260423   4.735   7.656   3.056 -0.2101  1.1360 -1.4171
17770SOL     OW60424  10.603  12.471  11.947 -0.1932 -0.5413  0.6590
17770SOL    HW160425  10.650  12.390  11.965 -1.2036 -0.7954  2.2805
17770SOL    HW260426  10.654  12.538  11.993 -0.6963 -0.6406  1.3865
17771SOL     OW60427   5.351   6.865  10.063 -0.0930  0.5719  0.2090
17771SOL    HW160428   5.445   6.850  10.069 -0.0156  1.0678  0.2754
17771SOL    HW260429   5.340   6.914   9.981 -0.3480  0.0803 -0.0524
17772SOL     OW60430  10.657   5.011  10.067 -0.2462  0.1039 -0.3941
17772SOL    HW160431  10.616   5.097  10.061  0.3168  0.3981 -0.0819
17772SOL    HW260432  10.743   5.022  10.026  0.7164  0.2705  1.5623
17773SOL     OW60433   4.900   4.814  10.931 -0.2379 -0.1365 -0.2734
17773SOL    HW160434   4.912   4.721  10.954  1.2869 -0.0233 -0.5189
17773SOL    HW260435   4.988   4.845  10.910 -0.6095  1.5936  0.5876
17774SOL     OW60436   1.784   7.979   3.647  0.0198  0.9488 -0.4819
17774SOL    HW160437   1.752   7.978   3.738 -1.5538 -2.3312 -0.9301
17774SOL    HW260438   1.869   7.936   3.651 -0.7129 -0.5804 -0.6884
17775SOL     OW60439  12.834   6.868  11.858  0.4101 -0.2133 -0.0454
17775SOL    HW160440  12.924   6.879  11.828  0.3209  1.6857  0.2628
17775SOL    HW260441  12.785   6.935  11.810 -0.5440 -0.1480  0.9813
17776SOL     OW60442   5.575  12.690   1.665  0.2395  0.0072  0.8301
17776SOL    HW160443   5.563  12.630   1.739 -1.8615 -0.0315  0.5246
17776SOL    HW260444   5.668  12.682   1.642  0.3861 -1.8363  1.8838
17777SOL     OW60445   7.096   3.250  10.735 -0.3590  0.3443  0.2722
17777SOL    HW160446   7.042   3.263  10.813 -1.8030  0.2562 -0.6522
17777SOL    HW260447   7.068   3.165  10.701 -1.4024  1.3438 -1.5182
17778SOL     OW60448   3.233   1.094   6.824  0.4414  0.0843  0.1281
17778SOL    HW160449   3.186   1.076   6.905 -2.9124  0.0901 -1.5999
17778SOL    HW260450   3.307   1.148   6.849 -0.8373  0.6338  3.0968
17779SOL     OW60451   0.113   9.026   0.464  0.4511 -0.5055 -0.2957
17779SOL    HW160452   0.078   9.031   0.553 -1.3183 -0.7992 -0.9409
17779SOL    HW260453   0.143   9.115   0.445  1.2432 -0.5301  0.7248
17780SOL     OW60454   1.089   8.677   6.791  0.3674 -0.5061  0.4396
17780SOL    HW160455   1.095   8.694   6.697  0.9732 -1.1119  0.3642
17780SOL    HW260456   1.052   8.757   6.827  0.4686 -0.1300 -0.2688
17781SOL     OW60457   7.452  10.624   1.455  0.3617  0.4505  0.4556
17781SOL    HW160458   7.443  10.708   1.499 -0.1953  1.7285 -1.9454
17781SOL    HW260459   7.529  10.634   1.398 -1.0285  0.2104 -1.5714
17782SOL     OW60460  10.423   7.501  10.522 -0.5320 -0.1462 -0.8596
17782SOL    HW160461  10.368   7.554  10.579 -0.5006 -1.5502  0.5221
17782SOL    HW260462  10.482   7.564  10.481 -0.8513  0.9485  0.3069
17783SOL     OW60463   1.623   7.901   4.153 -0.1386 -1.0135 -0.2949
17783SOL    HW160464   1.574   7.940   4.081  0.6833  0.1839 -0.2192
17783SOL    HW260465   1.606   7.958   4.228  0.5599 -1.1620 -0.0166
17784SOL     OW60466   6.797  12.939   0.153  0.1492 -0.3639 -0.1967
17784SOL    HW160467   6.864  12.927   0.220 -0.3691 -1.0595  0.2061
17784SOL    HW260468   6.804  12.862   0.098  0.0716 -0.1548 -0.5019
17785SOL     OW60469  11.180   5.733   8.842  0.0672 -0.5194 -0.0440
17785SOL    HW160470  11.264   5.707   8.880  0.6140  0.6575 -0.3682
17785SOL    HW260471  11.193   5.825   8.818 -0.7160 -0.8222 -1.7686
17786SOL     OW60472   1.341  12.233   0.258 -0.4560  0.0111 -0.3263
17786SOL    HW160473   1.262  12.258   0.306 -0.3642 -0.7758  0.2426
17786SOL    HW260474   1.383  12.317   0.236 -0.4301  0.3935  1.0752
17787SOL     OW60475  10.398   3.310  10.057  0.3935  0.4307 -0.4025
17787SOL    HW160476  10.417   3.289   9.966  2.1901 -1.5845  0.3504
17787SOL    HW260477  10.332   3.245  10.084 -0.0826  0.9742 -0.2453
17788SOL     OW60478   9.818   5.747  10.416 -0.2319 -0.8740  0.1033
17788SOL    HW160479   9.816   5.792  10.331 -0.6290 -1.1049 -0.0099
17788SOL    HW260480   9.798   5.656  10.396  0.9843 -1.1926  0.2865
17789SOL     OW60481   9.442   8.889   6.546  0.0561 -0.4662  0.1384
17789SOL    HW160482   9.368   8.853   6.497 -0.7850 -1.0617  1.7646
17789SOL    HW260483   9.495   8.933   6.480 -0.8154 -1.5485 -1.3555
17790SOL     OW60484   8.201   4.390  11.644  0.7957  0.1550 -0.4207
17790SOL    HW160485   8.212   4.484  11.656  1.0027  0.0667  0.1361
17790SOL    HW260486   8.289   4.354  11.654  1.0168  0.0578 -2.3526
17791SOL     OW60487   1.880   0.298   3.904  0.3280  0.1182  0.4274
17791SOL    HW160488   1.944   0.258   3.844 -1.3751 -0.2757 -1.2272
17791SOL    HW260489   1.867   0.232   3.972  0.9805 -0.1942  0.2629
17792SOL     OW60490   5.002   9.617  12.595 -0.0601 -0.4819 -0.6666
17792SOL    HW160491   4.943   9.550  12.631 -0.9454 -0.4469 -1.9780
17792SOL    HW260492   5.016   9.677  12.668  0.2420 -1.7464  0.3542
17793SOL     OW60493   3.424   6.227   6.136 -0.4437  0.2432  0.4654
17793SOL    HW160494   3.519   6.241   6.138 -0.2344 -1.0551  0.6444
17793SOL    HW260495   3.388   6.312   6.114  0.8647  0.4127 -1.2689
17794SOL     OW60496   1.114   9.460  10.505  0.0137 -0.3246 -0.2047
17794SOL    HW160497   1.191   9.515  10.488  0.0907 -0.0505  0.9926
17794SOL    HW260498   1.145   9.394  10.566 -0.3198 -1.1595 -0.9201
17795SOL     OW60499   4.870   7.056   7.087 -0.2273  0.3859 -0.3612
17795SOL    HW160500   4.952   7.092   7.119 -0.6455  1.7298 -0.7590
17795SOL    HW260501   4.880   7.051   6.992 -0.3584 -0.0822 -0.3533
17796SOL     OW60502   9.088   2.504  11.103  0.2614 -0.0396 -0.0898
17796SOL    HW160503   9.102   2.410  11.094 -0.5550 -0.1224 -0.7284
17796SOL    HW260504   9.002   2.511  11.145  0.2192  0.4157 -0.2443
17797SOL     OW60505   9.094   0.782   0.471  0.4814  0.0204 -0.3807
17797SOL    HW160506   9.049   0.850   0.421  1.1260  0.9337  0.2592
17797SOL    HW260507   9.044   0.702   0.453 -0.6452  0.7676 -0.6615
17798SOL     OW60508   2.684   3.639   0.284 -0.2781  0.1446  0.1556
17798SOL    HW160509   2.630   3.695   0.340  1.6568  0.3026  1.9621
17798SOL    HW260510   2.752   3.605   0.341  0.4762 -1.5518 -1.6176
17799SOL     OW60511   2.643  12.258   3.954 -0.1565 -0.2022 -0.4602
17799SOL    HW160512   2.559  12.237   3.995 -0.6189  0.2195 -1.1804
17799SOL    HW260513   2.652  12.195   3.883  0.8889 -1.2719  0.5567
17800SOL     OW60514   2.972  10.964   9.944  0.4411 -0.0800 -0.0832
17800SOL    HW160515   2.880  10.947   9.963  0.2023  0.6387 -0.5319
17800SOL    HW260516   3.017  10.955  10.028 -0.1778  0.4073  0.3058
17801SOL     OW60517   9.340   3.673   5.622  0.2007  0.4037 -0.1348
17801SOL    HW160518   9.350   3.735   5.694  2.2034 -0.6665  0.5587
17801SOL    HW260519   9.420   3.681   5.571 -0.3971 -0.1671 -1.2138
17802SOL     OW60520   4.919   7.907   7.154  0.3053  0.1996 -0.1670
17802SOL    HW160521   4.978   7.833   7.171 -0.1895 -0.0557  0.4659
17802SOL    HW260522   4.836   7.880   7.193 -0.2099  0.5908 -0.9883
17803SOL     OW60523   7.259   8.962   9.187  0.4031  0.3192 -0.1588
17803SOL    HW160524   7.295   8.920   9.109 -0.0098 -2.3802  0.9777
17803SOL    HW260525   7.165   8.944   9.182  0.3177  0.4488  0.7695
17804SOL     OW60526  11.456   9.608   8.261 -0.1725 -0.2318 -0.5926
17804SOL    HW160527  11.517   9.622   8.334 -1.5671  1.8727  0.2393
17804SOL    HW260528  11.405   9.689   8.256 -1.7873 -1.2824 -2.3355
17805SOL     OW60529   9.303   9.301   5.533 -1.0797  0.2853  0.1743
17805SOL    HW160530   9.224   9.277   5.582 -0.7245  0.7971  1.0361
17805SOL    HW260531   9.373   9.297   5.599 -0.4818  0.3677 -0.4520
17806SOL     OW60532  11.323  12.291   3.938  0.2684  0.6070  0.6256
17806SOL    HW160533  11.373  12.239   4.001  0.5054 -1.1689 -0.9328
17806SOL    HW260534  11.389  12.342   3.891  0.8859 -2.1088 -1.7775
17807SOL     OW60535   9.296   3.779   1.240 -0.0550  0.7960  0.1219
17807SOL    HW160536   9.384   3.741   1.252  0.3830  1.4622 -0.8861
17807SOL    HW260537   9.247   3.750   1.317  0.6126 -0.8121 -0.0197
17808SOL     OW60538   2.404   5.350   0.276 -0.0432 -0.1550 -0.0992
17808SOL    HW160539   2.494   5.376   0.257  0.2044 -0.5169  0.5523
17808SOL    HW260540   2.404   5.332   0.370 -1.5270  2.8040  0.5814
17809SOL     OW60541   0.648   4.437   3.266 -0.2874 -0.2787 -0.1437
17809SOL    HW160542   0.640   4.392   3.350  0.4055 -0.3534 -0.1140
17809SOL    HW260543   0.742   4.446   3.252 -0.3968 -0.1799 -0.8677
17810SOL     OW60544   3.878   6.946   1.756 -0.1004  0.3994 -0.5935
17810SOL    HW160545   3.876   6.885   1.830 -1.8161 -0.3481 -1.2083
17810SOL    HW260546   3.944   6.910   1.697  0.7867  0.6239  0.2338
17811SOL     OW60547   9.789   6.741  10.212 -0.3449  0.4987 -0.4100
17811SOL    HW160548   9.772   6.833  10.195  0.3312  0.6950 -0.0584
17811SOL    HW260549   9.718   6.695  10.167 -0.4670  1.1621 -0.9149
17812SOL     OW60550   4.406   0.421   7.267  0.1559 -0.4963  0.4339
17812SOL    HW160551   4.495   0.390   7.281  0.5680 -0.2010 -1.3339
17812SOL    HW260552   4.351   0.359   7.315  1.2488 -1.1525  0.8778
17813SOL     OW60553   7.612  10.450   3.519 -0.5853 -0.5330  0.3170
17813SOL    HW160554   7.666  10.421   3.593 -0.8872  0.6241  1.0296
17813SOL    HW260555   7.550  10.379   3.505  1.0731 -1.9059 -0.5198
17814SOL     OW60556   1.056   1.548   0.866  0.2468  0.3054  0.6802
17814SOL    HW160557   1.148   1.540   0.888  0.1186  2.1893  2.2043
17814SOL    HW260558   1.017   1.465   0.892  1.6050 -0.8235 -0.7224
17815SOL     OW60559  11.750  12.421   2.349  0.1576  0.0856 -0.1396
17815SOL    HW160560  11.752  12.395   2.257  1.2497  0.3923 -0.2167
17815SOL    HW260561  11.798  12.353   2.395  0.0819  0.2115  0.1290
17816SOL     OW60562   6.624  12.297   2.750  0.3083 -0.8384  0.4990
17816SOL    HW160563   6.617  12.383   2.711  0.6782 -0.8778  0.3343
17816SOL    HW260564   6.535  12.261   2.749  0.5166 -1.3878 -1.5742
17817SOL     OW60565  11.127   6.836  11.452  0.7767  0.8881 -0.3088
17817SOL    HW160566  11.209   6.884  11.460  0.9337  1.1218 -2.6216
17817SOL    HW260567  11.153   6.746  11.432  0.4515  0.6419  0.3242
17818SOL     OW60568   4.446   4.635  10.457  0.0831 -0.1847  0.2452
17818SOL    HW160569   4.505   4.710  10.467 -2.2086  1.7783 -0.0409
17818SOL    HW260570   4.396   4.632  10.539 -1.0508 -0.2747 -0.4294
17819SOL     OW60571  11.805  12.938   8.662  0.2293 -0.0500 -0.2918
17819SOL    HW160572  11.807  12.982   8.747 -1.5128  2.3705 -1.3867
17819SOL    HW260573  11.872  12.983   8.610 -1.6483  1.6081 -1.4568
17820SOL     OW60574   1.779   5.628   7.261  0.0506 -0.0235 -0.4426
17820SOL    HW160575   1.873   5.641   7.255  0.1004 -0.3640 -0.3865
17820SOL    HW260576   1.768   5.553   7.319 -0.2224 -0.5734 -1.1874
17821SOL     OW60577   0.733  10.135  12.259  0.5391 -0.2060 -0.0791
17821SOL    HW160578   0.805  10.075  12.278 -0.5999 -1.0814  1.7941
17821SOL    HW260579   0.775  10.218  12.236  2.1362 -0.8614  0.3890
17822SOL     OW60580   4.635   7.315   5.511 -0.8298 -0.7791  0.9119
17822SOL    HW160581   4.600   7.238   5.556 -0.6305 -0.2437  2.0225
17822SOL    HW260582   4.624   7.295   5.418 -0.3386 -2.3466  1.1571
17823SOL     OW60583   1.310   3.218   5.352 -0.2180  0.1137 -0.3625
17823SOL    HW160584   1.237   3.212   5.290 -0.5666  0.9982 -0.0488
17823SOL    HW260585   1.295   3.148   5.415 -0.1208 -0.4878 -0.9914
17824SOL     OW60586   4.072   6.845   7.786  0.3948  0.7466 -0.3007
17824SOL    HW160587   4.065   6.830   7.692 -2.6287  2.9908 -0.5825
17824SOL    HW260588   4.082   6.940   7.794 -2.2993  0.9795  1.6207
17825SOL     OW60589   6.629  12.160  12.433  0.3546 -0.4601 -0.1480
17825SOL    HW160590   6.533  12.158  12.435  0.3301  0.5332  1.1065
17825SOL    HW260591   6.651  12.191  12.346 -0.5396  1.2108  0.1938
17826SOL     OW60592   3.488   9.036  10.301  1.0364 -0.1425 -0.0808
17826SOL    HW160593   3.582   9.030  10.284  1.2984 -0.5205  1.3730
17826SOL    HW260594   3.482   9.083  10.384 -0.1772  1.7982 -1.1655
17827SOL     OW60595   2.099   5.956   9.100 -0.6986 -0.0981  0.3520
17827SOL    HW160596   2.162   6.003   9.154 -1.4276 -1.2407  2.2978
17827SOL    HW260597   2.019   5.952   9.153 -2.0248  0.1660 -1.5092
17828SOL     OW60598   9.610   0.330   5.927 -0.1437  0.9363  0.0009
17828SOL    HW160599   9.547   0.264   5.957  0.4353  0.5673  0.4209
17828SOL    HW260600   9.687   0.317   5.982  1.5180 -0.7101 -2.5076
17829SOL     OW60601   6.073   1.875   9.975 -0.6628  0.3133  0.4737
17829SOL    HW160602   6.064   1.785   9.943  1.6313 -0.1439  0.9482
17829SOL    HW260603   6.064   1.929   9.897 -2.4923 -0.2736  0.2432
17830SOL     OW60604   8.406   5.550  10.388 -0.2863 -0.0803 -0.4701
17830SOL    HW160605   8.476   5.485  10.392  0.0969  0.3525  0.0948
17830SOL    HW260606   8.437   5.621  10.444 -0.8153  0.4742 -0.8718
17831SOL     OW60607   1.193   2.967   3.034  0.2738  0.0500 -0.1477
17831SOL    HW160608   1.124   2.960   3.100  0.1948  1.3194 -0.0767
17831SOL    HW260609   1.256   2.898   3.057  0.8342  1.2033  1.9526
17832SOL     OW60610   1.724   0.684   0.033  0.1992 -0.0349  0.0393
17832SOL    HW160611   1.632   0.667   0.010 -0.4179 -0.1715  2.3420
17832SOL    HW260612   1.726   0.778   0.053  1.0601  0.4039 -1.9217
17833SOL     OW60613   5.866  12.434   7.255 -0.0709 -0.4606 -0.0936
17833SOL    HW160614   5.905  12.518   7.228 -0.4913  0.0143  0.7264
17833SOL    HW260615   5.939  12.384   7.292  0.0616 -0.1964  0.0044
17834SOL     OW60616   8.389  10.048   0.636 -0.1380 -0.1284 -0.1376
17834SOL    HW160617   8.365   9.959   0.662  1.3710 -0.7489 -0.7505
17834SOL    HW260618   8.365  10.052   0.543  0.2779 -0.0815 -0.2432
17835SOL     OW60619   1.165   3.740  11.891  0.5847  0.1808 -0.2857
17835SOL    HW160620   1.209   3.816  11.930 -0.4052  0.3334  0.5675
17835SOL    HW260621   1.214   3.723  11.810  1.3568  1.1819 -0.0481
17836SOL     OW60622   5.108   5.184   2.650 -0.3878 -0.1485  0.5349
17836SOL    HW160623   5.128   5.210   2.560  0.2857 -0.9495  0.4444
17836SOL    HW260624   5.054   5.106   2.641  1.9613 -1.8985  0.7980
17837SOL     OW60625   7.374   9.954   8.674  0.7005 -0.1286  0.1417
17837SOL    HW160626   7.435   9.958   8.748  0.2458 -0.2273  0.5293
17837SOL    HW260627   7.429   9.961   8.596  1.2930 -1.0975  0.4612
17838SOL     OW60628   1.239   4.406   3.078  0.0033 -0.4444 -0.0265
17838SOL    HW160629   1.278   4.384   2.993  1.4840  0.2075  0.4373
17838SOL    HW260630   1.189   4.329   3.103 -0.3313 -0.6923 -1.4300
17839SOL     OW60631   5.207   1.297  10.589 -0.0619  0.4919 -0.1896
17839SOL    HW160632   5.255   1.324  10.667  0.7387  0.1243 -0.5409
17839SOL    HW260633   5.268   1.314  10.517  0.5891 -2.3774 -0.4327
17840SOL     OW60634   6.778   3.020   5.210 -0.3755  0.1159  0.2531
17840SOL    HW160635   6.791   2.930   5.179  2.2990  0.5430 -0.1188
17840SOL    HW260636   6.711   3.056   5.152  0.2445 -0.9308 -1.1721
17841SOL     OW60637  10.118   3.714   7.553  0.8387  0.3986 -0.8069
17841SOL    HW160638  10.118   3.723   7.457  0.4720  2.9970 -0.6501
17841SOL    HW260639  10.182   3.779   7.583  0.8238 -0.2562  0.7400
17842SOL     OW60640  10.632   6.935   9.920 -0.3365 -0.1456 -0.0427
17842SOL    HW160641  10.557   6.981   9.958 -0.1737  0.2754 -0.2257
17842SOL    HW260642  10.678   7.002   9.870 -0.0012 -0.4723 -0.1731
17843SOL     OW60643   1.543   4.789   8.182  0.2836 -0.1242  0.1222
17843SOL    HW160644   1.488   4.862   8.155  0.0439 -1.0444 -2.1551
17843SOL    HW260645   1.633   4.822   8.176  0.1098  0.4887  0.8544
17844SOL     OW60646   1.331  12.789   3.521 -0.2589  0.0789  0.1538
17844SOL    HW160647   1.371  12.709   3.553 -1.0274 -0.3200  0.1461
17844SOL    HW260648   1.386  12.816   3.447  1.3414  0.8301  1.5433
17845SOL     OW60649   2.019   7.598   6.512 -0.3431 -0.4505 -0.2246
17845SOL    HW160650   2.009   7.510   6.476 -0.3360 -0.4694 -0.1799
17845SOL    HW260651   2.019   7.586   6.607  1.4856 -0.6143 -0.2044
17846SOL     OW60652   9.598   1.047  10.093  0.0322  0.2853  0.3097
17846SOL    HW160653   9.610   0.958  10.128 -0.2675  0.2156  0.2396
17846SOL    HW260654   9.630   1.041  10.003  1.8987  0.7526  0.8916
17847SOL     OW60655   9.173   7.236   9.229  0.6129  0.4176 -0.0419
17847SOL    HW160656   9.179   7.249   9.134 -0.7596  3.4011  0.1834
17847SOL    HW260657   9.081   7.216   9.244  0.6000  1.0784  0.7743
17848SOL     OW60658  10.030   1.992   4.238  0.2773  0.1269 -0.4693
17848SOL    HW160659   9.959   2.057   4.234  0.5564  0.4224 -0.6056
17848SOL    HW260660   9.985   1.908   4.230 -0.4123  0.1142  2.5627
17849SOL     OW60661   5.953   1.889  10.886 -0.1255 -0.0190  0.5941
17849SOL    HW160662   5.998   1.854  10.809  1.0210  1.1956  0.6728
17849SOL    HW260663   5.882   1.943  10.851  0.6933  0.9285  0.3420
17850SOL     OW60664   7.501   0.025   1.477  0.4600 -0.0001 -0.0950
17850SOL    HW160665   7.490   0.029   1.572 -0.8998 -1.2084 -0.1790
17850SOL    HW260666   7.468   0.109   1.446  0.2462  0.1180  0.4432
17851SOL     OW60667   0.759   3.113   0.388 -0.2206  0.1791  0.0670
17851SOL    HW160668   0.849   3.097   0.415 -0.1332 -1.4382 -1.0285
17851SOL    HW260669   0.736   3.196   0.429  1.5602  0.3329  0.8509
17852SOL     OW60670   4.615   8.850   3.414 -0.3179  0.0197  0.1407
17852SOL    HW160671   4.618   8.945   3.425  1.9871  0.3460 -2.3273
17852SOL    HW260672   4.707   8.823   3.421 -0.5875 -1.6068 -1.8826
17853SOL     OW60673   4.247  10.884   3.495 -0.4246 -0.2057 -0.6113
17853SOL    HW160674   4.220  10.795   3.471  0.0557 -0.6180  0.3144
17853SOL    HW260675   4.287  10.874   3.582  1.4315  0.6002 -1.3259
17854SOL     OW60676   8.267   9.029   4.217  0.4231 -0.7377  0.9491
17854SOL    HW160677   8.221   9.105   4.252  2.3125  0.4322  1.0249
17854SOL    HW260678   8.319   8.996   4.290  1.2710 -0.7454  0.3721
17855SOL     OW60679   3.183  11.808   0.415  0.5453  0.0280  0.3187
17855SOL    HW160680   3.166  11.715   0.408 -0.1733  0.1841 -0.1024
17855SOL    HW260681   3.141  11.834   0.497  0.5188  0.0342  0.3031
17856SOL     OW60682   0.105   7.318   7.183 -0.0904 -0.3410  0.4306
17856SOL    HW160683   0.030   7.286   7.132 -0.8822 -0.5470  1.6744
17856SOL    HW260684   0.066   7.353   7.263  1.1762 -0.8243  1.2851
17857SOL     OW60685   5.822  10.876  12.425 -0.7632 -0.5690  0.3662
17857SOL    HW160686   5.817  10.807  12.358 -0.9419 -0.9129  0.7290
17857SOL    HW260687   5.868  10.835  12.498 -0.6998 -0.2399  0.5093
17858SOL     OW60688   1.939   3.247   9.379  0.6640 -0.2209  0.1483
17858SOL    HW160689   1.932   3.227   9.285  1.0306  2.5523 -0.5579
17858SOL    HW260690   1.849   3.240   9.411  0.5324 -1.1739 -0.3862
17859SOL     OW60691   1.225   8.609   2.323  0.1933 -0.0006  0.3205
17859SOL    HW160692   1.211   8.625   2.230  0.8568  1.2370  0.4064
17859SOL    HW260693   1.235   8.696   2.361  0.0965 -0.4948  1.5274
17860SOL     OW60694   6.599   5.918   3.122 -0.2852 -0.1807  0.2443
17860SOL    HW160695   6.597   6.013   3.114 -2.6275  0.0631  2.4730
17860SOL    HW260696   6.584   5.902   3.215 -1.8539 -2.7326 -0.3568
17861SOL     OW60697   4.922   8.884   1.317  0.1917 -0.4827  0.2304
17861SOL    HW160698   4.868   8.963   1.310  0.2683 -0.3875  0.6511
17861SOL    HW260699   4.861   8.811   1.307 -0.0106 -0.3754  0.6540
17862SOL     OW60700   5.305   6.559   4.603  0.4493  0.2937 -0.0237
17862SOL    HW160701   5.339   6.490   4.545  0.9090  1.2214 -0.8894
17862SOL    HW260702   5.380   6.617   4.617  0.2043  0.3520  1.1159
17863SOL     OW60703  10.312   5.769  10.116  1.0607  0.3247 -0.4382
17863SOL    HW160704  10.306   5.864  10.123 -2.4954  0.1795  0.2164
17863SOL    HW260705  10.267   5.747  10.035 -1.2294 -0.8947  1.0545
17864SOL     OW60706   1.263   4.322   2.815 -0.1184  0.0573  0.4588
17864SOL    HW160707   1.284   4.380   2.742 -1.8376 -0.3769 -0.4513
17864SOL    HW260708   1.173   4.294   2.798  0.6458 -2.9882  0.7485
17865SOL     OW60709  11.075   6.515   5.067 -0.1440  0.2481 -0.2999
17865SOL    HW160710  11.011   6.455   5.107  0.9350 -0.0142  1.1196
17865SOL    HW260711  11.059   6.599   5.111 -2.1206  1.2935 -2.7711
17866SOL     OW60712   4.443  11.010   1.184 -0.1964 -0.2423 -0.1599
17866SOL    HW160713   4.502  10.996   1.259 -0.1368 -1.7857 -0.4470
17866SOL    HW260714   4.365  11.051   1.222  0.3448  0.1540  0.5343
17867SOL     OW60715   6.391   2.571   1.889  0.5597 -0.2617 -0.4140
17867SOL    HW160716   6.469   2.588   1.943 -0.1203  0.3656  0.3848
17867SOL    HW260717   6.383   2.649   1.834 -1.1579  1.0310  1.5500
17868SOL     OW60718   9.142   5.085  12.051  0.3679 -0.5974 -0.5167
17868SOL    HW160719   9.206   5.082  11.980 -0.6618  0.4245 -1.5371
17868SOL    HW260720   9.141   5.176  12.079  0.7953 -1.0061  0.8673
17869SOL     OW60721   4.935   4.118   9.206  0.0170  0.0044 -0.4392
17869SOL    HW160722   4.889   4.201   9.195  0.8080  0.4612 -0.4186
17869SOL    HW260723   4.867   4.054   9.224 -0.4949  0.8901  0.8765
17870SOL     OW60724   1.550   7.143   0.765  0.2263 -0.2531 -0.2150
17870SOL    HW160725   1.523   7.177   0.850 -2.8464 -3.2033  0.2159
17870SOL    HW260726   1.553   7.220   0.708 -2.2875  1.3048  1.5601
17871SOL     OW60727   7.877   9.447   5.094 -0.7486 -0.2548 -0.5735
17871SOL    HW160728   7.946   9.383   5.112 -0.7304 -0.5823 -1.7771
17871SOL    HW260729   7.922   9.532   5.100 -0.7411 -0.3241  0.8638
17872SOL     OW60730   4.861   1.180  11.438 -0.0705  0.1885  0.4273
17872SOL    HW160731   4.891   1.268  11.418  0.2979  0.2050  1.0149
17872SOL    HW260732   4.780   1.170  11.388  0.3085  0.5610 -0.2831
17873SOL     OW60733   3.014   0.027   9.798 -0.0259  0.3454 -0.2508
17873SOL    HW160734   3.013  -0.046   9.736  1.6861  0.5898 -0.6232
17873SOL    HW260735   2.974  -0.008   9.878 -2.4386  0.0860 -1.4936
17874SOL     OW60736   2.469  12.480   3.221  0.2954  0.9526  0.6548
17874SOL    HW160737   2.552  12.480   3.173  0.7396  0.6318  1.4137
17874SOL    HW260738   2.475  12.555   3.279  0.8475 -0.1187  2.0370
17875SOL     OW60739   0.069   6.287   5.959  0.3755 -0.5844  0.0431
17875SOL    HW160740   0.160   6.297   5.989  1.1820  0.1339 -2.3896
17875SOL    HW260741   0.066   6.337   5.877 -1.9609 -1.4579 -0.4606
17876SOL     OW60742   1.423  11.579   9.310 -0.1090  0.4925  0.1878
17876SOL    HW160743   1.412  11.641   9.382  3.6574  0.9084  0.6096
17876SOL    HW260744   1.427  11.493   9.352 -0.1221  0.4973  0.1995
17877SOL     OW60745   3.674   1.499   6.745  0.4778  0.0509 -0.1801
17877SOL    HW160746   3.602   1.495   6.808  1.4306 -0.6652  0.9263
17877SOL    HW260747   3.633   1.489   6.660 -0.8245  0.6756  0.3489
17878SOL     OW60748   8.382   0.290  12.230  0.0563 -0.0590  0.5154
17878SOL    HW160749   8.469   0.294  12.268  0.6603  0.5196 -0.8489
17878SOL    HW260750   8.396   0.251  12.143 -1.2124 -1.0683  0.7404
17879SOL     OW60751   5.683   8.236   1.996  0.0166 -0.4035  0.1936
17879SOL    HW160752   5.618   8.307   1.997  1.6237  1.1568 -0.4135
17879SOL    HW260753   5.658   8.183   1.920 -0.4114  0.3058 -0.1798
17880SOL     OW60754  12.468   0.672   1.348  0.1310  0.5417 -0.2782
17880SOL    HW160755  12.468   0.686   1.253 -0.7624  0.1909 -0.3299
17880SOL    HW260756  12.561   0.668   1.371  0.4623  3.1681 -0.7631
17881SOL     OW60757   8.525   6.878   8.403 -0.8386  0.5402 -0.6894
17881SOL    HW160758   8.454   6.846   8.458 -1.5195 -0.6006 -2.1812
17881SOL    HW260759   8.557   6.801   8.357  3.4140  0.3520  2.0041
17882SOL     OW60760   5.009  12.177   7.136 -0.3274  0.1796  0.0229
17882SOL    HW160761   5.095  12.216   7.117  0.0434  0.3166  1.7962
17882SOL    HW260762   4.950  12.220   7.075  0.6886  0.8682 -0.5153
17883SOL     OW60763   6.372   3.161   3.485  0.3795 -0.5204  0.3243
17883SOL    HW160764   6.329   3.219   3.421 -0.6794 -1.2876  0.3199
17883SOL    HW260765   6.332   3.076   3.471  0.1691 -0.7146  1.9894
17884SOL     OW60766   8.656   0.177  12.706  0.6148 -0.2129 -0.4385
17884SOL    HW160767   8.710   0.164  12.628 -0.2160 -0.4652 -0.9821
17884SOL    HW260768   8.672   0.267  12.731 -1.1873  0.7923 -2.5436
17885SOL     OW60769  10.387  12.174   2.200 -0.1620 -0.2075 -0.1811
17885SOL    HW160770  10.294  12.184   2.223 -0.0866  2.8023 -0.6549
17885SOL    HW260771  10.430  12.247   2.245  1.8264 -0.9878 -0.7338
17886SOL     OW60772   9.554   0.179  10.893 -0.0312 -0.6442  0.0447
17886SOL    HW160773   9.535   0.270  10.915 -2.0719 -1.4576  2.0337
17886SOL    HW260774   9.506   0.164  10.812 -0.0684 -0.0764 -0.0436
17887SOL     OW60775   4.261   6.741  10.279 -0.3975  0.3704 -0.4261
17887SOL    HW160776   4.277   6.787  10.197 -2.5441  2.8953  0.4491
17887SOL    HW260777   4.280   6.806  10.347 -1.1190 -0.8471  1.0021
17888SOL     OW60778   1.380   6.472  10.300 -0.0378  0.1111  0.3361
17888SOL    HW160779   1.384   6.558  10.340  0.1704  0.8508 -1.1975
17888SOL    HW260780   1.403   6.487  10.208  0.2025 -1.6030  0.0752
17889SOL     OW60781   7.954  11.593   9.742  0.6609  0.2769 -0.0441
17889SOL    HW160782   7.915  11.671   9.701  1.8422 -0.3772 -2.6788
17889SOL    HW260783   7.904  11.579   9.822 -0.7819  2.6582 -0.4397
17890SOL     OW60784   1.019  10.486  12.455  0.1504  0.1428  0.1908
17890SOL    HW160785   0.968  10.461  12.378  0.5414  0.6284 -0.2368
17890SOL    HW260786   1.025  10.406  12.507 -1.9715  0.3313  0.8056
17891SOL     OW60787   9.483   7.034   0.274 -0.0742  0.5494 -0.2836
17891SOL    HW160788   9.528   6.958   0.309 -0.5825 -0.0483 -0.8877
17891SOL    HW260789   9.409   6.997   0.224 -1.4353  1.4912  0.9514
17892SOL     OW60790   9.422   0.404   4.116 -0.2100 -0.3205 -0.5295
17892SOL    HW160791   9.398   0.455   4.038  1.9908  2.4306  0.4086
17892SOL    HW260792   9.358   0.431   4.182  0.4180  0.6600 -0.2880
17893SOL     OW60793  10.557   9.483  12.938  0.0261  0.3445  0.2274
17893SOL    HW160794  10.513   9.555  12.982 -0.3082 -0.9782  2.1649
17893SOL    HW260795  10.487   9.423  12.914  0.1709  1.0758 -2.3911
17894SOL     OW60796  10.211   0.923   1.444  0.1057  0.0092  0.0534
17894SOL    HW160797  10.168   1.002   1.477  0.9750  0.1979  0.7610
17894SOL    HW260798  10.142   0.877   1.396 -0.3452  1.3243 -0.6089
17895SOL     OW60799   2.701   9.700   2.995 -0.0195 -0.0942  0.0440
17895SOL    HW160800   2.634   9.641   2.960  1.2191 -1.0129 -0.9062
17895SOL    HW260801   2.725   9.660   3.079  1.0342 -1.1795 -0.7363
17896SOL     OW60802   8.772   3.341   7.411  0.6021  0.1078  0.0141
17896SOL    HW160803   8.779   3.355   7.317  2.0596 -1.4592 -0.1781
17896SOL    HW260804   8.689   3.381   7.436  0.1329  0.4583 -1.9454
17897SOL     OW60805   0.698   3.597   4.788 -0.1597  0.1569  0.6145
17897SOL    HW160806   0.731   3.524   4.840  1.5371  0.3235 -0.1401
17897SOL    HW260807   0.758   3.669   4.807  0.4453  0.2565 -1.4308
17898SOL     OW60808   2.444   7.809   5.974 -0.3070  0.0657 -0.6377
17898SOL    HW160809   2.401   7.893   5.994 -0.5614 -0.5177  1.4584
17898SOL    HW260810   2.376   7.757   5.931 -0.4020  0.6134 -1.1738
17899SOL     OW60811  11.838   7.613   7.935  0.7130 -0.0019 -0.3271
17899SOL    HW160812  11.795   7.651   7.859 -0.2913 -1.0439 -0.3205
17899SOL    HW260813  11.771   7.613   8.003  2.2062  2.9098  1.3136
17900SOL     OW60814   2.125   2.807  10.164 -0.4770 -0.2272  0.0474
17900SOL    HW160815   2.059   2.843  10.223  0.8730  5.5429 -1.2979
17900SOL    HW260816   2.079   2.795  10.081 -0.4494  1.8927 -0.3503
17901SOL     OW60817   9.041   6.814   4.143  0.3136 -0.1063 -0.1960
17901SOL    HW160818   8.972   6.819   4.077 -0.1628 -0.8678  0.2321
17901SOL    HW260819   9.106   6.754   4.105  1.3652  1.5663 -1.1383
17902SOL     OW60820   0.447   9.721  11.635 -0.2680 -0.2615 -0.0513
17902SOL    HW160821   0.441   9.763  11.549  0.1960  0.7245  0.3816
17902SOL    HW260822   0.540   9.720  11.655 -0.2609 -1.5886 -0.0696
17903SOL     OW60823   5.821   4.249  10.166 -0.4514  0.1815  0.3369
17903SOL    HW160824   5.858   4.230  10.080  1.1042  2.8467  0.3009
17903SOL    HW260825   5.789   4.165  10.197  1.8463 -1.5112 -1.4961
17904SOL     OW60826   7.405   0.974  12.306  0.2820 -0.7838 -0.3358
17904SOL    HW160827   7.338   1.040  12.325 -2.4292 -3.6949  1.0749
17904SOL    HW260828   7.426   0.936  12.391  1.5344 -1.9538 -1.1396
17905SOL     OW60829  10.534   4.968  11.184  0.3441 -0.3979  0.2978
17905SOL    HW160830  10.555   5.005  11.270  1.9088 -2.7457  1.0296
17905SOL    HW260831  10.544   4.873  11.196 -2.0740 -1.0142 -1.8098
17906SOL     OW60832  12.624   3.451   6.980 -0.5119  0.4493  0.0779
17906SOL    HW160833  12.670   3.420   6.902 -0.2345  1.4043 -0.1479
17906SOL    HW260834  12.638   3.383   7.045 -0.4249 -0.1798 -0.5902
17907SOL     OW60835   4.388   2.849   0.763 -0.4885 -0.4823  0.3926
17907SOL    HW160836   4.395   2.784   0.693  1.9875  0.8116 -0.6857
17907SOL    HW260837   4.367   2.798   0.841 -1.5519 -2.1863 -0.9335
17908SOL     OW60838   5.909   9.225  10.213 -0.0567 -0.0272  0.0987
17908SOL    HW160839   5.967   9.163  10.170 -1.0829  0.7766 -2.6774
17908SOL    HW260840   5.955   9.309  10.207 -0.4981  0.2105  0.0129
17909SOL     OW60841   1.219   2.377   0.282 -0.3538  0.1318 -0.0383
17909SOL    HW160842   1.216   2.292   0.325 -2.3944  0.0392 -0.2824
17909SOL    HW260843   1.269   2.432   0.342 -0.9994 -0.6452  1.2507
17910SOL     OW60844   9.125   4.409  12.602  0.9698  0.1097 -0.4099
17910SOL    HW160845   9.209   4.450  12.622  0.4256  0.8826  0.4316
17910SOL    HW260846   9.140   4.360  12.521  1.5322  2.5045 -1.8772
17911SOL     OW60847  10.189   8.039   0.069  0.0039  0.9268  0.1490
17911SOL    HW160848  10.254   8.099   0.033  1.7701  0.3359  2.1251
17911SOL    HW260849  10.128   8.095   0.118  0.3490  1.2881  0.1694
17912SOL     OW60850   3.299   7.109   1.297  0.2324  0.1495 -0.0472
17912SOL    HW160851   3.392   7.127   1.288 -0.0613  0.6909 -2.4866
17912SOL    HW260852   3.291   7.016   1.277  0.0778  0.4832 -1.6767
17913SOL     OW60853   7.301   0.127   5.926 -0.1100 -0.1468 -0.3259
17913SOL    HW160854   7.243   0.177   5.869  0.3049 -0.5746 -1.1376
17913SOL    HW260855   7.341   0.061   5.869  0.9280 -0.0726  0.2794
17914SOL     OW60856   3.906  11.727  12.599 -0.5212 -0.1874 -0.4767
17914SOL    HW160857   3.903  11.736  12.504 -0.8750 -1.5724 -0.6172
17914SOL    HW260858   3.998  11.712  12.619 -0.6120 -1.2054 -0.7550
17915SOL     OW60859   8.394   9.450   3.644 -0.2676  0.2366 -0.2297
17915SOL    HW160860   8.369   9.386   3.577 -0.9279 -0.4006  0.6052
17915SOL    HW260861   8.315   9.501   3.660 -0.2345  0.1084  0.3658
17916SOL     OW60862   8.814   4.314   3.614  0.0773 -0.1001 -0.4170
17916SOL    HW160863   8.794   4.221   3.604 -1.5723  0.3346 -1.4494
17916SOL    HW260864   8.865   4.336   3.536  1.7286 -0.4194  0.5229
17917SOL     OW60865   7.046   7.727   9.203  0.1145  0.0310  0.2282
17917SOL    HW160866   7.108   7.667   9.245 -0.0166 -1.8359 -2.0321
17917SOL    HW260867   6.967   7.720   9.255  1.3596  1.6245  2.5263
17918SOL     OW60868  10.746   8.803   1.371  0.0087 -0.2856  0.1389
17918SOL    HW160869  10.737   8.881   1.315  0.2556 -0.2797  0.1098
17918SOL    HW260870  10.820   8.755   1.335  0.3802 -0.1115  0.6693
17919SOL     OW60871   5.058   0.476   3.979 -0.8211  0.1108 -0.2752
17919SOL    HW160872   5.019   0.564   3.985 -1.1770  0.0806 -1.7354
17919SOL    HW260873   5.075   0.464   3.885 -0.7855 -1.3837 -0.0981
17920SOL     OW60874  11.221  11.718   2.082 -0.5115 -0.2551 -0.4725
17920SOL    HW160875  11.161  11.691   2.013 -1.1129  1.4657 -0.6552
17920SOL    HW260876  11.308  11.708   2.044 -0.8550  1.4635 -1.8440
17921SOL     OW60877   2.968  11.503   9.530 -0.3635  0.7439  0.2862
17921SOL    HW160878   2.976  11.531   9.439  1.9819  2.1616  0.8514
17921SOL    HW260879   3.024  11.426   9.538 -0.8357  0.4116  0.4702
17922SOL     OW60880   6.328  12.885   8.340 -0.8325  0.2555 -0.1957
17922SOL    HW160881   6.263  12.918   8.277 -1.4726  0.8746  0.7639
17922SOL    HW260882   6.337  12.955   8.404  0.2736 -0.1201  0.0788
17923SOL     OW60883   8.977  12.381   5.358  0.3992 -0.1729 -0.3120
17923SOL    HW160884   8.911  12.434   5.314  0.2830 -0.5415 -0.5874
17923SOL    HW260885   9.011  12.438   5.427  0.7164  0.4811 -0.9914
17924SOL     OW60886   1.360   9.264  11.267  0.1019  0.6791  0.1325
17924SOL    HW160887   1.303   9.192  11.239  0.3543  0.0861  1.0876
17924SOL    HW260888   1.372   9.317  11.189 -0.1295 -0.2955 -0.5800
17925SOL     OW60889   9.588   9.928   9.588  0.0857  0.0169  0.0355
17925SOL    HW160890   9.631   9.963   9.510 -1.1482 -0.6924 -1.0131
17925SOL    HW260891   9.522   9.994   9.611  1.2795  0.8181  1.2717
17926SOL     OW60892   4.004   6.184   2.077 -0.3118  0.1238  0.0189
17926SOL    HW160893   3.966   6.210   2.160  0.9005 -1.6544  1.1957
17926SOL    HW260894   3.943   6.120   2.040 -2.1688  2.7314 -1.8151
17927SOL     OW60895   2.449  11.962   4.063 -0.4309  0.1239 -0.5422
17927SOL    HW160896   2.412  12.051   4.063 -0.0542  0.3035 -1.6843
17927SOL    HW260897   2.542  11.976   4.083 -0.4180 -0.0356 -0.4954
17928SOL     OW60898   6.874   0.757   0.432  0.3795 -0.1891  0.8926
17928SOL    HW160899   6.826   0.677   0.449 -0.3678  0.4498  1.8878
17928SOL    HW260900   6.961   0.728   0.405  0.2014 -1.3263  1.5010
17929SOL     OW60901   6.161   0.705   4.741 -0.4051 -0.1951 -0.0103
17929SOL    HW160902   6.242   0.670   4.778  0.0963  0.9950  0.0701
17929SOL    HW260903   6.123   0.756   4.812 -0.9235 -0.2533 -0.2421
17930SOL     OW60904  11.673   1.271   3.959 -0.2766  0.6359 -0.0260
17930SOL    HW160905  11.694   1.181   3.936 -0.1929  1.1701 -2.2863
17930SOL    HW260906  11.578   1.275   3.957 -0.3221  0.3626  1.1476
17931SOL     OW60907   7.824   7.709   6.337  0.7198  0.4280 -0.5259
17931SOL    HW160908   7.881   7.768   6.286  3.8128 -0.5869  1.4812
17931SOL    HW260909   7.863   7.623   6.325 -0.6081 -0.3775  0.7190
17932SOL     OW60910   8.303  10.511   3.987 -0.4687  0.3065  0.4626
17932SOL    HW160911   8.333  10.423   4.008 -0.4546 -0.0865 -1.0808
17932SOL    HW260912   8.380  10.555   3.951 -1.3737 -0.4079 -2.6433
17933SOL     OW60913   6.651   0.082   7.213  0.0945 -0.3541  0.1004
17933SOL    HW160914   6.692   0.014   7.266  0.2874  0.4430  1.0121
17933SOL    HW260915   6.721   0.147   7.199 -0.2174 -0.1058 -0.3313
17934SOL     OW60916   7.489   6.085   5.813  0.0576  0.1304  0.3606
17934SOL    HW160917   7.426   6.110   5.746 -0.1651  0.4935  0.7003
17934SOL    HW260918   7.545   6.019   5.771  1.6800  2.2930 -1.0825
17935SOL     OW60919   2.758   6.525   4.753  0.2600  0.5145  0.0220
17935SOL    HW160920   2.826   6.501   4.816  0.9465 -0.0978 -0.9188
17935SOL    HW260921   2.734   6.615   4.777  1.2140  0.6450  0.5387
17936SOL     OW60922  12.665  12.863   5.911 -0.2965 -0.4791 -0.1936
17936SOL    HW160923  12.631  12.777   5.885  0.8769 -1.1683  0.4588
17936SOL    HW260924  12.643  12.920   5.837 -0.3649 -1.5225 -1.0180
17937SOL     OW60925   2.535   4.357   9.773  0.0975 -0.3714  0.5517
17937SOL    HW160926   2.544   4.270   9.735  1.3436 -0.4631  0.9916
17937SOL    HW260927   2.465   4.398   9.723  0.7300 -0.9772 -0.9090
17938SOL     OW60928   6.600  12.522   5.122 -0.6856  0.2561 -0.0530
17938SOL    HW160929   6.681  12.516   5.173  0.5592  0.9263 -1.8385
17938SOL    HW260930   6.597  12.612   5.091 -1.4887 -0.0687 -0.9833
17939SOL     OW60931  10.633   0.945   0.213 -0.0758  0.0750 -0.1590
17939SOL    HW160932  10.627   1.040   0.203  1.0699  0.3640  1.5655
17939SOL    HW260933  10.542   0.915   0.209 -0.3323  0.9237 -2.9743
17940SOL     OW60934   1.298  11.653   8.808 -0.1081 -0.4397  0.3106
17940SOL    HW160935   1.365  11.683   8.747 -0.3665 -0.1795  0.1507
17940SOL    HW260936   1.325  11.690   8.892  0.3490 -0.9542  0.3958
17941SOL     OW60937  11.138  11.401   8.947  0.3784  0.0703 -0.1103
17941SOL    HW160938  11.175  11.423   9.033  1.8146  0.9766 -0.9324
17941SOL    HW260939  11.152  11.307   8.938  0.7858  0.0793  0.3814
17942SOL     OW60940   1.487   3.851  10.920 -0.1350  0.0239 -0.1046
17942SOL    HW160941   1.526   3.774  10.962 -0.0523  0.4549  0.6082
17942SOL    HW260942   1.414   3.876  10.977  0.6745  1.2953  0.4134
17943SOL     OW60943   7.241   9.383   2.376  0.4156 -0.1728  0.4200
17943SOL    HW160944   7.336   9.370   2.383  0.7413  0.9534 -1.4041
17943SOL    HW260945   7.211   9.312   2.320  0.0883 -0.7245  1.2643
17944SOL     OW60946  10.227   1.144   7.295  0.1255 -0.4920 -0.0776
17944SOL    HW160947  10.161   1.212   7.290  0.1103 -0.4519  0.6263
17944SOL    HW260948  10.180   1.067   7.328  0.5575 -0.2842  1.0432
17945SOL     OW60949   8.093   4.171  12.315 -0.2330 -0.0632 -0.2771
17945SOL    HW160950   8.102   4.077  12.300 -0.0646 -0.1877  0.5581
17945SOL    HW260951   8.130   4.185  12.402 -1.0707  0.6376 -0.0241
17946SOL     OW60952   2.392   9.625   6.459  0.0802 -0.2016  0.1057
17946SOL    HW160953   2.367   9.539   6.424  0.7801 -1.8566  3.2437
17946SOL    HW260954   2.480   9.611   6.496  1.9240  2.9701 -2.5704
17947SOL     OW60955   9.588   4.072   5.169 -0.1217  0.0088 -0.9065
17947SOL    HW160956   9.534   4.001   5.204 -0.0783 -0.5793 -2.0195
17947SOL    HW260957   9.638   4.103   5.245 -3.3475  1.8803  0.6643
17948SOL     OW60958  12.889   1.709   8.727 -0.0107 -0.0941 -0.3653
17948SOL    HW160959  12.906   1.725   8.634 -0.5342 -0.3269 -0.5032
17948SOL    HW260960  12.951   1.640   8.752  1.2695  1.0830 -0.1265
17949SOL     OW60961   1.440   0.745   9.947  0.1350  0.2663  0.0787
17949SOL    HW160962   1.474   0.830   9.920  1.6184  0.1323  1.4281
17949SOL    HW260963   1.426   0.754  10.041 -0.4807 -0.7474  0.0947
17950SOL     OW60964   5.209  12.831   1.550  0.0923  0.2316  0.2776
17950SOL    HW160965   5.158  12.877   1.616  1.9988  1.8845  0.6827
17950SOL    HW260966   5.169  12.744   1.546 -0.8435  0.4687  2.7178
17951SOL     OW60967   3.003   4.673  10.215 -0.2974 -0.1179 -0.9048
17951SOL    HW160968   3.002   4.717  10.130 -0.4197  0.3256 -0.6772
17951SOL    HW260969   2.960   4.589  10.199 -1.6092  0.5403 -0.9900
17952SOL     OW60970   9.221  10.239   0.598  0.0050 -0.0287 -0.1791
17952SOL    HW160971   9.152  10.174   0.598 -1.6019  1.4898 -3.0503
17952SOL    HW260972   9.285  10.207   0.535 -1.0198  1.2477 -1.9686
17953SOL     OW60973   9.479  10.361   1.170 -0.7876  0.4144 -0.1685
17953SOL    HW160974   9.532  10.391   1.095 -0.2478  0.6990  0.3154
17953SOL    HW260975   9.538  10.370   1.245 -0.5884 -1.8862  0.0185
17954SOL     OW60976   0.068   7.460   7.431 -0.3188 -0.1143 -0.0600
17954SOL    HW160977   0.020   7.539   7.405 -0.8416 -0.1840  0.6382
17954SOL    HW260978   0.008   7.415   7.491  0.5665 -0.2801  0.7287
17955SOL     OW60979  10.336  12.399   0.096  0.3515  0.5694 -0.2239
17955SOL    HW160980  10.250  12.363   0.120  0.2253  0.9889 -0.0365
17955SOL    HW260981  10.316  12.468   0.033  0.6691 -0.3952 -1.4128
17956SOL     OW60982   0.565   0.356   7.372  0.1669 -0.3260 -0.1742
17956SOL    HW160983   0.564   0.434   7.427 -0.4229  0.1698 -0.8722
17956SOL    HW260984   0.487   0.307   7.398 -0.6560  0.3796 -1.1919
17957SOL     OW60985   8.964   7.833   2.963  0.2166 -0.3938 -0.1789
17957SOL    HW160986   9.041   7.822   2.907 -0.1864 -1.2376 -0.5992
17957SOL    HW260987   8.976   7.918   3.005  2.4215 -1.4057  1.4074
17958SOL     OW60988   7.407  10.546   4.728 -0.2356  0.4481  0.0892
17958SOL    HW160989   7.376  10.459   4.753  1.1375 -0.7849 -2.1737
17958SOL    HW260990   7.332  10.587   4.685 -0.2447 -0.5641 -0.9034
17959SOL     OW60991   3.446  10.988   5.352 -0.7284  0.3172  0.3413
17959SOL    HW160992   3.495  11.028   5.280  0.2876  1.1178  1.4222
17959SOL    HW260993   3.357  10.977   5.318 -0.2394  0.5178 -1.0731
17960SOL     OW60994   4.431  10.173  12.096  0.4329  0.1293  0.4486
17960SOL    HW160995   4.339  10.189  12.114  0.3884 -0.5225  0.8446
17960SOL    HW260996   4.477  10.209  12.172  0.3039 -1.8560  1.5485
17961SOL     OW60997   8.777  10.364   0.888  0.3723  0.3086  0.8285
17961SOL    HW160998   8.725  10.283   0.887  1.5288 -0.4516  0.3983
17961SOL    HW260999   8.805  10.376   0.797 -3.6882  3.8699 -0.2924
17962SOL     OW61000   3.686   5.168  12.731  0.1995 -0.0791  0.2741
17962SOL    HW161001   3.685   5.198  12.822  0.4532 -0.5420  0.4370
17962SOL    HW261002   3.597   5.186  12.699 -0.2785 -1.0229  1.0004
17963SOL     OW61003  11.069  12.875   0.997  0.3078 -0.3048  0.3156
17963SOL    HW161004  11.123  12.810   0.953  0.3681 -0.6744  0.9215
17963SOL    HW261005  11.063  12.948   0.935  1.0677 -0.4717  0.0419
17964SOL     OW61006   5.324   9.020   1.467  0.0077  0.0566  0.0274
17964SOL    HW161007   5.297   8.952   1.406 -3.2294 -0.6350  1.9971
17964SOL    HW261008   5.301   9.102   1.424 -2.3603 -0.4255  0.2538
17965SOL     OW61009   9.477   3.187  11.036 -0.7362 -0.1947 -0.7169
17965SOL    HW161010   9.520   3.169  10.952 -0.1257  0.1497 -0.4885
17965SOL    HW261011   9.449   3.278  11.028 -0.4247 -0.0716 -0.4500
17966SOL     OW61012   6.859  12.810   4.902  0.6108  0.0667  0.1896
17966SOL    HW161013   6.826  12.899   4.912  0.6783  0.2693 -1.1797
17966SOL    HW261014   6.889  12.786   4.989  0.9253  1.5167  0.5149
17967SOL     OW61015   8.710   0.445   8.014 -0.2847 -0.3622  0.6662
17967SOL    HW161016   8.674   0.530   7.986  0.0996 -0.7315 -1.0819
17967SOL    HW261017   8.741   0.461   8.103 -2.4907  0.6275  1.3417
17968SOL     OW61018  11.212   8.374   3.061  0.0043  0.2229  0.2989
17968SOL    HW161019  11.145   8.318   3.099  0.7945  0.5053  2.2655
17968SOL    HW261020  11.165   8.432   3.002 -1.5357  0.5634  1.7834
17969SOL     OW61021   5.729   9.375   6.820  0.2022 -0.3601  0.1978
17969SOL    HW161022   5.813   9.400   6.782  0.7972 -1.6769  0.6073
17969SOL    HW261023   5.747   9.360   6.912 -0.0183 -2.5962 -0.0822
17970SOL     OW61024   0.245  10.541   0.405 -0.3265 -0.2322 -0.0096
17970SOL    HW161025   0.214  10.494   0.327 -1.8933 -1.3905  1.2342
17970SOL    HW261026   0.242  10.633   0.379 -0.8815 -0.5823 -1.3128
17971SOL     OW61027   5.118   8.819   8.484  0.1716  0.4064  0.2056
17971SOL    HW161028   5.135   8.876   8.409  0.1567 -0.9617 -0.8652
17971SOL    HW261029   5.139   8.874   8.560 -0.2392  1.9682 -0.7601
17972SOL     OW61030   5.375   1.048   2.317  0.7901 -0.3613 -0.3390
17972SOL    HW161031   5.410   1.121   2.367  2.9836 -0.4886 -1.5514
17972SOL    HW261032   5.375   0.974   2.378 -1.4756  0.5566  0.9039
17973SOL     OW61033  12.892   4.079   3.689 -0.1265 -0.4882  0.0454
17973SOL    HW161034  12.913   4.031   3.769 -0.1354  0.4793  0.6462
17973SOL    HW261035  12.863   4.165   3.720 -1.9009 -0.6973 -0.9111
17974SOL     OW61036  11.504   1.522  10.076 -0.0181 -0.3246  0.7395
17974SOL    HW161037  11.486   1.567   9.993  0.6045  0.0443  0.8033
17974SOL    HW261038  11.579   1.569  10.113 -0.4363 -0.3380  1.6244
17975SOL     OW61039  11.107  12.869   0.475 -0.7562  0.3492  0.5304
17975SOL    HW161040  11.050  12.792   0.467 -1.4601  1.0021 -1.2635
17975SOL    HW261041  11.189  12.841   0.434 -0.3116 -0.0664  1.6676
17976SOL     OW61042  10.476   1.579  12.353 -0.5780 -0.3259 -0.5018
17976SOL    HW161043  10.480   1.671  12.379 -1.3988  0.1444 -1.8980
17976SOL    HW261044  10.560   1.542  12.378 -0.5137  0.6155  0.7441
17977SOL     OW61045  12.144   3.479  10.444  0.1025 -0.0984 -0.4348
17977SOL    HW161046  12.163   3.573  10.433 -0.0577 -0.2358 -2.0549
17977SOL    HW261047  12.097   3.455  10.365  0.5031 -1.6538 -0.2223
17978SOL     OW61048   6.728  11.239   0.371 -0.2125  0.3685  0.4225
17978SOL    HW161049   6.665  11.304   0.340 -0.3344  0.0776  0.0465
17978SOL    HW261050   6.807  11.254   0.319  0.5154  1.6195  1.8256
17979SOL     OW61051   2.683  11.896   6.557  0.1356 -0.0613  0.8954
17979SOL    HW161052   2.728  11.813   6.574  1.6312  0.6503  0.6459
17979SOL    HW261053   2.716  11.923   6.471 -0.6495  0.5968  0.7947
17980SOL     OW61054  12.453   3.945   5.000  0.2013 -0.5495 -0.4688
17980SOL    HW161055  12.490   4.032   4.986 -1.1542 -0.1092 -1.5897
17980SOL    HW261056  12.517   3.885   4.963  0.3985  0.0923 -1.1947
17981SOL     OW61057   5.685   0.645   7.459  0.0762  0.0541 -0.2196
17981SOL    HW161058   5.675   0.624   7.367 -3.5220  0.1743  0.0200
17981SOL    HW261059   5.719   0.735   7.460  1.6853 -0.4946 -1.3269
17982SOL     OW61060   1.987   9.783   2.241  0.3192 -0.1673 -0.2128
17982SOL    HW161061   1.979   9.815   2.151 -1.3127  0.3382  0.0800
17982SOL    HW261062   1.913   9.722   2.251  0.6890 -0.4881  0.6837
17983SOL     OW61063  10.841   3.078   5.578  0.6026  0.2680  0.2821
17983SOL    HW161064  10.876   3.027   5.651  1.2964 -0.0687 -0.2665
17983SOL    HW261065  10.765   3.124   5.614  0.6330 -0.2872  1.0768
17984SOL     OW61066   9.207   4.926   1.747 -0.2513  0.3347  0.3021
17984SOL    HW161067   9.262   5.004   1.756 -0.7737  0.8311 -0.6420
17984SOL    HW261068   9.267   4.858   1.718 -0.0744  0.8199 -0.5095
17985SOL     OW61069  12.056  11.812   2.397 -0.4527 -0.3037  0.3081
17985SOL    HW161070  12.110  11.734   2.408 -0.2109 -0.3567 -1.0341
17985SOL    HW261071  12.058  11.855   2.482  0.9877 -0.7663  0.5397
17986SOL     OW61072  11.803  11.966  10.501  0.2324  1.1159  0.5737
17986SOL    HW161073  11.875  12.029  10.504  0.3639  1.0162 -0.2044
17986SOL    HW261074  11.729  12.015  10.466  0.8800  0.3880 -2.0636
17987SOL     OW61075   0.689  10.444  11.588 -0.5932 -0.0747  0.2763
17987SOL    HW161076   0.638  10.430  11.668 -1.7496 -0.7005 -0.5332
17987SOL    HW261077   0.639  10.509  11.539 -0.3218 -0.2879 -0.2882
17988SOL     OW61078   1.763  10.163   5.042 -0.6294 -0.2868 -0.9872
17988SOL    HW161079   1.708  10.138   4.968  0.2165 -2.8163 -0.8523
17988SOL    HW261080   1.835  10.100   5.041 -0.5360 -0.3598  1.9093
17989SOL     OW61081  11.948   7.770   3.640  0.0596 -1.0749 -0.2554
17989SOL    HW161082  12.036   7.800   3.662  0.2077 -0.9342 -1.0159
17989SOL    HW261083  11.891   7.819   3.700  0.3773 -0.0159 -0.7850
17990SOL     OW61084   8.958   7.318   2.306 -0.3328  0.1275  0.1317
17990SOL    HW161085   8.920   7.309   2.218 -0.4334 -2.0997  0.3457
17990SOL    HW261086   8.981   7.229   2.331  2.9454  1.0835  0.9659
17991SOL     OW61087  10.158   8.352  12.054 -0.0759 -0.2991  0.1638
17991SOL    HW161088  10.077   8.394  12.025 -0.4595 -1.1751 -0.0390
17991SOL    HW261089  10.149   8.261  12.028  0.9206 -0.4356  0.2636
17992SOL     OW61090   7.394   1.955   3.021  0.5020  0.3356  0.1559
17992SOL    HW161091   7.467   2.015   3.004  2.0671 -1.8161 -1.1789
17992SOL    HW261092   7.347   1.951   2.938  0.2057 -0.0203  0.3394
17993SOL     OW61093   4.487   2.045   9.035  0.0209 -0.4116 -0.2594
17993SOL    HW161094   4.397   2.039   9.004 -0.8842 -0.0064  2.1275
17993SOL    HW261095   4.521   2.125   8.995 -1.8231  1.2962  1.4456
17994SOL     OW61096   7.340   2.807   9.412  0.0628 -0.4289  0.0538
17994SOL    HW161097   7.269   2.744   9.397  0.2916 -0.3308 -1.6534
17994SOL    HW261098   7.308   2.862   9.484 -1.2072 -0.9562 -0.0725
17995SOL     OW61099   9.543   7.564   0.155 -0.0582  0.4424 -1.0115
17995SOL    HW161100   9.542   7.643   0.208  1.2198  0.3525 -0.8259
17995SOL    HW261101   9.457   7.561   0.114 -1.5496 -0.1370  1.9615
17996SOL     OW61102   7.598   9.835   4.488 -0.1917 -0.2449  0.2896
17996SOL    HW161103   7.514   9.880   4.475  0.4292  0.6357 -0.9018
17996SOL    HW261104   7.659   9.905   4.512 -0.0467 -1.0534  2.5377
17997SOL     OW61105   7.973  12.179   9.920  0.0453 -0.1739 -0.1112
17997SOL    HW161106   7.996  12.180  10.013 -0.4271  0.4129  0.0063
17997SOL    HW261107   7.882  12.207   9.917  0.3078  0.6651 -0.8050
17998SOL     OW61108   2.665   2.408   5.461 -0.1776 -0.2867  0.5467
17998SOL    HW161109   2.738   2.470   5.460  0.8482 -1.4596 -1.0963
17998SOL    HW261110   2.592   2.458   5.498  1.4722  0.8397  2.5185
17999SOL     OW61111  12.168  12.259   1.143  0.3626  0.2773 -0.6361
17999SOL    HW161112  12.092  12.202   1.153 -0.0150  0.8274 -0.3200
17999SOL    HW261113  12.161  12.321   1.215  1.7046 -0.3177  0.0313
18000SOL     OW61114  10.728   9.834   1.684  0.4987  0.1625  0.1260
18000SOL    HW161115  10.659   9.857   1.621 -1.7495  0.0919  2.3818
18000SOL    HW261116  10.743   9.914   1.733  0.1343 -0.4735  1.3131
18001SOL     OW61117  11.199   1.653   6.274 -0.2336  0.3626 -0.0389
18001SOL    HW161118  11.275   1.634   6.220 -0.7184 -1.8259 -0.0263
18001SOL    HW261119  11.235   1.688   6.356  0.6286  1.1315 -0.7262
18002SOL     OW61120   8.036  12.360   8.079  0.3804  0.0625  0.1844
18002SOL    HW161121   7.988  12.390   8.002 -3.4915  0.0662  2.3499
18002SOL    HW261122   8.067  12.440   8.121 -0.4397  0.3226  0.3147
18003SOL     OW61123  11.722   2.375   9.443  0.2080  0.1690  0.1223
18003SOL    HW161124  11.715   2.441   9.374 -1.4493  0.0313  0.1256
18003SOL    HW261125  11.661   2.403   9.511  1.7668  0.2806  1.5683
18004SOL     OW61126  12.155   8.266  12.946 -0.0478 -0.1933  0.4290
18004SOL    HW161127  12.226   8.204  12.930 -0.4399 -0.5867  0.1722
18004SOL    HW261128  12.090   8.216  12.995 -0.3805  0.0037  0.1979
18005SOL     OW61129   5.911   4.754   9.550 -0.3223  0.1920  0.4498
18005SOL    HW161130   5.907   4.685   9.617 -0.3172 -0.4702 -0.2170
18005SOL    HW261131   5.855   4.722   9.480 -0.6422  1.0695  0.3057
18006SOL     OW61132   3.320  12.769   1.183 -0.3376  0.0318 -0.0564
18006SOL    HW161133   3.285  12.781   1.271  0.6870  0.5300  0.2938
18006SOL    HW261134   3.269  12.696   1.147 -1.0201  0.0653  0.8039
18007SOL     OW61135   3.063   6.601   1.607  0.2264  0.1246  0.0573
18007SOL    HW161136   3.084   6.622   1.699  1.7202  1.2125 -0.4918
18007SOL    HW261137   3.047   6.507   1.608  1.2590 -0.0842  1.2826
18008SOL     OW61138   0.216   3.671  11.773  0.4196  0.4198  0.5976
18008SOL    HW161139   0.179   3.633  11.693 -1.9197  0.4127  1.5920
18008SOL    HW261140   0.308   3.687  11.752  0.4381 -1.7007 -1.3113
18009SOL     OW61141   7.161  11.584   3.540 -0.4808  1.2007  0.6357
18009SOL    HW161142   7.070  11.614   3.547 -0.9439  0.0813 -0.3717
18009SOL    HW261143   7.173  11.564   3.448  0.9216  1.6664  0.6831
18010SOL     OW61144   3.814   1.160   8.194 -0.3975 -0.2688  0.4976
18010SOL    HW161145   3.724   1.165   8.161 -0.7033  0.4850  1.3875
18010SOL    HW261146   3.864   1.215   8.134 -0.6003 -0.4207  0.1889
18011SOL     OW61147   5.623  11.368  10.289 -0.4332  0.0690  0.0566
18011SOL    HW161148   5.667  11.289  10.321 -0.3804  0.7929  1.9012
18011SOL    HW261149   5.547  11.378  10.347 -0.9841  0.8683 -0.7650
18012SOL     OW61150   0.734   8.816   1.023  0.3022 -0.4463 -0.3999
18012SOL    HW161151   0.812   8.824   0.969 -0.2028 -1.7097 -1.3605
18012SOL    HW261152   0.756   8.751   1.089  0.3887 -0.0648 -0.0486
18013SOL     OW61153   1.868   5.072   5.410  0.1305 -0.3937 -0.0451
18013SOL    HW161154   1.789   5.082   5.357  0.0767  0.4373  0.1725
18013SOL    HW261155   1.880   4.978   5.419  0.6417 -0.6119 -2.2852
18014SOL     OW61156   1.090   7.354  10.336  0.1713 -0.5336  0.0318
18014SOL    HW161157   1.013   7.362  10.392  0.6907 -0.5715  0.7679
18014SOL    HW261158   1.161   7.331  10.396  0.6227 -1.1883 -0.7275
18015SOL     OW61159   0.483   9.714   7.764 -0.2855 -0.3917  0.3835
18015SOL    HW161160   0.400   9.691   7.806 -0.0941 -1.3304  0.2692
18015SOL    HW261161   0.522   9.779   7.823 -0.6818 -0.6244  0.9149
18016SOL     OW61162   2.219   2.618  10.977 -0.2019  0.0163  0.5078
18016SOL    HW161163   2.264   2.629  11.061  2.5092  0.2287 -0.8691
18016SOL    HW261164   2.239   2.528  10.951 -0.7129  0.0686 -0.0809
18017SOL     OW61165  12.318   6.676   2.014  0.2849  0.6434 -0.5855
18017SOL    HW161166  12.362   6.685   1.930  0.7292 -1.3320 -0.6257
18017SOL    HW261167  12.259   6.602   2.002  0.4816  0.2193  0.8683
18018SOL     OW61168   0.919   9.150   2.773  0.0503  0.3841  0.1161
18018SOL    HW161169   0.875   9.106   2.700  0.6368 -0.4238  0.2325
18018SOL    HW261170   0.849   9.173   2.834 -0.6471  2.3441 -1.3174
18019SOL     OW61171   9.852   8.647   1.916  0.0208  0.0272  0.9708
18019SOL    HW161172   9.944   8.673   1.913 -0.4025  1.5498 -1.4342
18019SOL    HW261173   9.805   8.726   1.943 -0.5344 -1.2052  4.0180
18020SOL     OW61174   7.673  10.207   1.406  0.1518  0.1228 -0.2147
18020SOL    HW161175   7.657  10.243   1.318 -0.5484  0.1883 -0.0666
18020SOL    HW261176   7.586  10.202   1.446  0.3949 -0.4718  0.2592
18021SOL     OW61177   9.223   6.707  12.438 -0.4509 -0.0286 -0.6324
18021SOL    HW161178   9.314   6.739  12.432 -0.2930 -0.6939 -2.5467
18021SOL    HW261179   9.192   6.741  12.522  1.3878  0.6812 -0.1665
18022SOL     OW61180  12.723   6.937   0.554  0.2766  0.0201 -0.5878
18022SOL    HW161181  12.750   7.020   0.592 -2.5397  0.5780  0.5010
18022SOL    HW261182  12.786   6.873   0.587  1.0801  1.3640  0.5775
18023SOL     OW61183   8.683  10.811   5.806 -0.5339  0.0992  0.2132
18023SOL    HW161184   8.740  10.768   5.869 -2.0359 -0.8916  0.9471
18023SOL    HW261185   8.651  10.741   5.750  0.4168  0.9007 -1.4201
18024SOL     OW61186   1.319   8.242   6.845 -0.1681 -0.2343  0.2995
18024SOL    HW161187   1.229   8.273   6.843  0.1300  0.9925  2.7171
18024SOL    HW261188   1.370   8.313   6.806 -0.1486 -0.6609 -0.4808
18025SOL     OW61189   3.483   4.510  10.330  0.1105  0.2619 -0.3191
18025SOL    HW161190   3.483   4.539  10.421  1.8117 -3.0260  0.9169
18025SOL    HW261191   3.391   4.494  10.310 -0.3492  1.6259  0.5980
18026SOL     OW61192   5.111   5.743   5.963 -0.1195 -0.6134  0.2420
18026SOL    HW161193   5.120   5.828   5.921 -0.6995 -0.5759  0.1897
18026SOL    HW261194   5.200   5.707   5.963  0.0296 -0.2529 -0.2441
18027SOL     OW61195   2.787   8.392   1.148  0.1593  0.6140 -0.3855
18027SOL    HW161196   2.789   8.464   1.085  1.3949  0.9481  0.0183
18027SOL    HW261197   2.870   8.397   1.194 -0.0659 -0.5885  0.2069
18028SOL     OW61198  10.601  12.476   0.001  0.1036 -0.3395  0.6142
18028SOL    HW161199  10.695  12.493   0.006  0.7729 -3.1369 -0.5977
18028SOL    HW261200  10.571  12.530  -0.072  0.8487  0.2776  0.7540
18029SOL     OW61201  12.439  10.539  10.805  0.3540 -0.0738 -0.1535
18029SOL    HW161202  12.500  10.583  10.746  0.6696 -0.7643 -0.3472
18029SOL    HW261203  12.492  10.510  10.878  0.3903 -1.1975 -0.5990
18030SOL     OW61204   7.392   1.765  11.949  0.1042 -0.2219 -0.0037
18030SOL    HW161205   7.419   1.679  11.981 -1.8792 -0.6312  0.7403
18030SOL    HW261206   7.313   1.785  12.000  1.1991  2.6178  0.7541
18031SOL     OW61207  11.679   2.726   4.709  0.4012 -0.2229  0.4163
18031SOL    HW161208  11.664   2.661   4.641 -0.3128 -0.1878  0.5343
18031SOL    HW261209  11.763   2.701   4.748  0.3027 -0.8620  0.2342
18032SOL     OW61210   3.568   2.771   3.821  0.1017  1.0923 -0.1613
18032SOL    HW161211   3.571   2.738   3.731  0.4572  1.0475 -0.1344
18032SOL    HW261212   3.660   2.783   3.846  0.1168  5.9712 -1.5624
18033SOL     OW61213   1.833   8.355  10.674 -0.2231 -0.2928 -0.4539
18033SOL    HW161214   1.915   8.307  10.689  0.1199  0.6513  0.8651
18033SOL    HW261215   1.843   8.436  10.725 -1.1663  0.7628 -1.8601
18034SOL     OW61216   1.822  12.328   4.400  0.1990  0.9558  0.2208
18034SOL    HW161217   1.830  12.394   4.469 -4.0666  0.7189  1.2254
18034SOL    HW261218   1.772  12.371   4.331 -0.5914 -0.5012 -0.1543
18035SOL     OW61219   0.390   0.050  10.397 -0.0757  0.8707  0.0859
18035SOL    HW161220   0.371   0.002  10.317 -1.1416  2.6741 -0.7936
18035SOL    HW261221   0.475   0.016  10.426 -0.1418 -0.5048 -1.2528
18036SOL     OW61222   8.496   0.817  11.436 -0.5781 -0.4884 -0.0364
18036SOL    HW161223   8.477   0.829  11.529 -0.0810 -0.8615  0.1179
18036SOL    HW261224   8.589   0.836  11.428 -0.8629  0.7498 -0.6765
18037SOL     OW61225   6.655   9.341   2.671 -0.3083  0.3309 -0.7041
18037SOL    HW161226   6.630   9.340   2.579 -1.6848  0.6544 -0.3514
18037SOL    HW261227   6.742   9.301   2.673 -0.7222 -0.6897 -1.9993
18038SOL     OW61228   4.169   3.527   1.823 -0.8747  0.5256 -0.0128
18038SOL    HW161229   4.203   3.510   1.911  0.1286  0.4083 -0.4117
18038SOL    HW261230   4.238   3.495   1.764 -3.5828 -4.4275 -1.0381
18039SOL     OW61231   8.504   4.060   1.984 -0.1371  0.2268  0.2579
18039SOL    HW161232   8.550   3.983   2.016 -2.0662 -0.4003  1.6660
18039SOL    HW261233   8.547   4.134   2.027 -0.2107 -0.3058  1.2554
18040SOL     OW61234   7.421   5.707  12.360 -0.0173 -0.5396  0.0943
18040SOL    HW161235   7.365   5.743  12.428  0.0687  0.2437 -0.2340
18040SOL    HW261236   7.492   5.663  12.408  0.6834  0.9983  0.5523
18041SOL     OW61237   8.342   8.638  10.211 -0.0829  0.0265 -0.0572
18041SOL    HW161238   8.436   8.633  10.192  0.1968 -0.4192  1.3215
18041SOL    HW261239   8.305   8.685  10.136  0.9821 -1.1817 -1.4119
18042SOL     OW61240   1.114   9.795  10.903 -0.0569  0.7374 -0.3220
18042SOL    HW161241   1.195   9.845  10.898  1.3019 -1.1803  1.0452
18042SOL    HW261242   1.045   9.857  10.879  1.7887  2.4328 -1.5115
18043SOL     OW61243   9.645   1.659   0.112  0.0709 -0.2452 -1.0642
18043SOL    HW161244   9.556   1.680   0.084  0.4574  0.2974 -1.9495
18043SOL    HW261245   9.635   1.589   0.176 -1.0453  0.3426 -0.5684
18044SOL     OW61246   0.173   2.824   4.344 -0.0551  0.5620  0.2054
18044SOL    HW161247   0.225   2.873   4.408  0.1891  0.4280  0.1125
18044SOL    HW261248   0.204   2.857   4.259 -0.8840  1.2618  0.1592
18045SOL     OW61249   3.185  11.810   2.878 -0.0243  0.1394 -0.3551
18045SOL    HW161250   3.104  11.757   2.880  1.7282 -2.8029 -0.6558
18045SOL    HW261251   3.203  11.820   2.785 -1.2759  3.0244 -0.3724
18046SOL     OW61252   6.727  11.931   4.977 -0.1808 -0.2859  0.4732
18046SOL    HW161253   6.741  11.895   4.889  1.3168  2.2518 -0.4579
18046SOL    HW261254   6.687  11.860   5.027  1.5595 -2.7963 -1.4571
18047SOL     OW61255   0.493  10.837   9.767  0.3412  0.2646 -0.0604
18047SOL    HW161256   0.565  10.814   9.826  1.6523  0.6987 -1.4181
18047SOL    HW261257   0.480  10.931   9.781 -0.5781  0.0191  0.8115
18048SOL     OW61258   4.144  10.531  10.755 -0.7745  0.2460  0.1185
18048SOL    HW161259   4.216  10.594  10.762 -1.5455  1.1783 -0.0905
18048SOL    HW261260   4.151  10.478  10.835  0.6031 -0.2059 -0.2763
18049SOL     OW61261  10.280  10.952  12.777  0.3233 -0.0474  0.3598
18049SOL    HW161262  10.294  11.034  12.729 -0.3344 -0.1462 -0.0001
18049SOL    HW261263  10.265  10.886  12.710 -0.2555 -0.2526  0.6793
18050SOL     OW61264   7.674   3.674   0.489 -0.9332 -0.1444  0.1071
18050SOL    HW161265   7.686   3.765   0.460  0.3252 -0.0390  0.8833
18050SOL    HW261266   7.659   3.681   0.583  0.6552 -0.8210  0.4317
18051SOL     OW61267   9.464   6.379   2.380 -0.1144  0.2601  0.9319
18051SOL    HW161268   9.404   6.374   2.455 -0.2753 -0.3111  0.7696
18051SOL    HW261269   9.514   6.297   2.383  1.1649  1.0291  1.4732
18052SOL     OW61270   0.261   3.948   3.181  0.3837 -0.2206 -0.4340
18052SOL    HW161271   0.182   3.901   3.207  0.6238 -0.9994 -1.0513
18052SOL    HW261272   0.234   3.999   3.105 -0.4325  2.4051  1.5014
18053SOL     OW61273   3.544   4.934   7.598 -0.3821  0.2659 -0.0381
18053SOL    HW161274   3.593   4.976   7.669 -0.0064 -0.2703  0.0250
18053SOL    HW261275   3.610   4.887   7.548 -0.8400 -0.5307  0.0927
18054SOL     OW61276   9.560   0.600   7.682 -0.1899  0.2432 -0.7632
18054SOL    HW161277   9.548   0.547   7.761 -1.2862  0.0847 -1.0194
18054SOL    HW261278   9.612   0.675   7.711 -0.0383 -0.1395 -0.0320
18055SOL     OW61279   3.394   6.715  10.901  0.8616 -0.0616 -0.3950
18055SOL    HW161280   3.387   6.694  10.808  0.8881 -0.6520 -0.2667
18055SOL    HW261281   3.304   6.708  10.934  0.8958 -0.1322 -0.3171
18056SOL     OW61282  10.128  12.414  11.850 -0.2201 -0.4850  0.1857
18056SOL    HW161283  10.141  12.416  11.755 -1.6123 -1.0640 -0.0376
18056SOL    HW261284  10.208  12.451  11.886  0.1095  0.2378 -1.2372
18057SOL     OW61285  12.228   9.182   9.481 -0.0002 -0.7680 -0.9427
18057SOL    HW161286  12.173   9.248   9.523  0.3455  0.3803 -2.1971
18057SOL    HW261287  12.187   9.098   9.503 -0.3744 -0.1548  0.8089
18058SOL     OW61288   3.324  12.884   2.276 -0.0510 -0.2735  1.0883
18058SOL    HW161289   3.232  12.881   2.251 -0.4842  0.8589  2.4497
18058SOL    HW261290   3.338  12.802   2.324 -0.0506 -0.9369 -0.0080
18059SOL     OW61291  11.193   8.548   0.398 -0.3824 -0.5259 -0.6632
18059SOL    HW161292  11.233   8.634   0.405 -0.0908 -0.8322  2.7442
18059SOL    HW261293  11.262   8.492   0.362 -0.0806  0.3075 -1.4096
18060SOL     OW61294  12.129   3.441   3.768 -0.3305 -0.2310 -0.3430
18060SOL    HW161295  12.204   3.443   3.709  0.1681  1.3527  0.2816
18060SOL    HW261296  12.053   3.436   3.711  0.2241 -1.2302 -1.0079
18061SOL     OW61297   5.033  12.514   6.598 -0.2182  0.6276 -0.0594
18061SOL    HW161298   5.066  12.529   6.509 -1.2788  0.7867 -0.4355
18061SOL    HW261299   5.009  12.421   6.599 -0.3914  0.6725 -0.0034
18062SOL     OW61300  12.730   8.450   0.408 -0.0617 -0.3517  0.5146
18062SOL    HW161301  12.803   8.417   0.460  0.1295 -0.9281 -0.1042
18062SOL    HW261302  12.692   8.372   0.367  0.0546  0.1242 -0.5345
18063SOL     OW61303   1.497  12.282   4.102  0.3060 -0.5531  0.1869
18063SOL    HW161304   1.435  12.328   4.046  0.4167 -1.4465 -0.7094
18063SOL    HW261305   1.498  12.192   4.068  2.2181 -0.5220  0.0603
18064SOL     OW61306   4.933  11.573   9.378 -0.7947 -0.3567  0.4025
18064SOL    HW161307   4.890  11.512   9.438 -1.6444 -0.9468 -0.7469
18064SOL    HW261308   4.899  11.549   9.292 -1.0840  1.6672 -0.1215
18065SOL     OW61309   0.718   8.056   0.842  0.1796 -0.3321 -0.6098
18065SOL    HW161310   0.743   8.101   0.761  0.2380  0.7107 -0.0254
18065SOL    HW261311   0.797   8.011   0.870  0.0571 -1.0084 -1.3283
18066SOL     OW61312   9.799   5.058   1.776 -0.5703  0.0882  0.2173
18066SOL    HW161313   9.706   5.076   1.762 -0.3181 -0.5889 -2.9498
18066SOL    HW261314   9.828   5.013   1.697  2.2652 -0.6210  1.5090
18067SOL     OW61315   4.961   4.782   9.109  0.0474  0.2390  0.2212
18067SOL    HW161316   5.045   4.790   9.064  0.2122  2.0103  0.7895
18067SOL    HW261317   4.970   4.702   9.161  2.0072  1.1794  1.4719
18068SOL     OW61318  12.824   3.235   0.879  0.1375  0.3219 -0.1140
18068SOL    HW161319  12.735   3.238   0.915  0.1461 -0.3501 -0.0239
18068SOL    HW261320  12.845   3.141   0.875 -0.7009  0.1230 -3.8416
18069SOL     OW61321   5.049   2.104   3.243  0.6463  0.2957 -0.1450
18069SOL    HW161322   4.996   2.040   3.197  0.2461  1.2139 -0.9895
18069SOL    HW261323   5.070   2.061   3.326  1.0297 -1.2142 -0.9807
18070SOL     OW61324   8.239  12.540  11.365 -0.1182 -0.0338 -0.1223
18070SOL    HW161325   8.222  12.449  11.388 -3.6536  0.0895 -1.5782
18070SOL    HW261326   8.245  12.586  11.449  0.2394 -1.3426  0.6011
18071SOL     OW61327   9.398  11.871   1.658 -0.4198 -0.5698  0.8618
18071SOL    HW161328   9.467  11.849   1.721 -1.4521  0.4575  2.4318
18071SOL    HW261329   9.438  11.936   1.600  0.1912 -0.5979  1.2371
18072SOL     OW61330  10.385   0.260  10.291  0.0873 -0.5268  0.6805
18072SOL    HW161331  10.405   0.168  10.307 -0.9529 -0.6760  1.2029
18072SOL    HW261332  10.323   0.260  10.218  1.4192 -0.1103 -0.5033
18073SOL     OW61333   4.215   2.883  11.781 -0.2708  0.4559  0.6140
18073SOL    HW161334   4.154   2.819  11.817  0.9645 -1.0721  0.0898
18073SOL    HW261335   4.277   2.899  11.852  0.3110 -0.1108  0.2368
18074SOL     OW61336   9.553  11.248   7.857  0.1051 -0.1565  0.3600
18074SOL    HW161337   9.495  11.323   7.843 -0.3373 -0.2201  1.6516
18074SOL    HW261338   9.534  11.221   7.947  0.5770 -1.5459  0.0627
18075SOL     OW61339  12.087   9.945   3.090 -0.6331 -0.8401 -0.2939
18075SOL    HW161340  12.064   9.881   3.157 -2.6532 -1.0416 -1.1036
18075SOL    HW261341  12.177   9.969   3.109 -0.8025 -1.7082  1.8040
18076SOL     OW61342  11.720  12.049  11.358  0.2662  0.2833  0.8437
18076SOL    HW161343  11.800  12.053  11.305  0.1777  0.8518  0.7398
18076SOL    HW261344  11.745  12.092  11.440  0.5087 -0.9137  1.4140
18077SOL     OW61345   1.963   3.304   2.233 -0.4369  0.0005  0.3054
18077SOL    HW161346   1.886   3.274   2.186  0.0770 -0.6485 -0.1376
18077SOL    HW261347   1.980   3.235   2.298  1.2030 -1.1208 -1.2257
18078SOL     OW61348   8.865   5.567   4.046 -0.4170  0.6848 -0.3875
18078SOL    HW161349   8.777   5.602   4.037 -0.4988  0.1023 -2.5641
18078SOL    HW261350   8.854   5.472   4.045  0.2821  0.5822 -2.1903
18079SOL     OW61351   3.516   9.722   3.428 -0.1155 -0.2271  0.4418
18079SOL    HW161352   3.541   9.658   3.495  0.0277  0.2861  0.8824
18079SOL    HW261353   3.512   9.671   3.347 -0.3367 -0.8610  0.8468
18080SOL     OW61354   2.807   7.724  11.116  0.0061  0.1856 -0.3738
18080SOL    HW161355   2.855   7.766  11.187  0.8043 -0.3109 -0.5970
18080SOL    HW261356   2.726   7.693  11.156  0.0998  0.5858  0.1337
18081SOL     OW61357  12.145   4.921   3.194  0.1791  0.1572 -0.4161
18081SOL    HW161358  12.207   4.856   3.162  1.1605 -0.1044  1.8142
18081SOL    HW261359  12.191   5.004   3.183  0.0427  0.1932 -0.7286
18082SOL     OW61360   2.062   2.715   7.027 -0.2784 -0.1945  0.4655
18082SOL    HW161361   2.109   2.659   6.967 -0.2962 -0.6943  0.9092
18082SOL    HW261362   2.117   2.720   7.105  1.1646  2.7853 -0.5893
18083SOL     OW61363  10.483   8.243   4.255 -0.2267  0.0120 -0.3178
18083SOL    HW161364  10.410   8.182   4.249  0.0781 -0.4023  0.1050
18083SOL    HW261365  10.442   8.328   4.270 -0.6407 -0.1359 -0.5980
18084SOL     OW61366   9.594   7.787   7.523  0.0265  0.0195  0.0566
18084SOL    HW161367   9.625   7.867   7.480  0.4641  0.4361  1.1056
18084SOL    HW261368   9.641   7.786   7.607 -1.6459 -0.1361  1.0312
18085SOL     OW61369   8.454   8.215  11.844  0.7152 -0.0702  0.2327
18085SOL    HW161370   8.390   8.231  11.775  1.1475  0.7786  0.0145
18085SOL    HW261371   8.401   8.191  11.920  0.2538 -1.4061 -0.4809
18086SOL     OW61372  12.225  12.699  11.486  0.1806  0.3805 -0.1336
18086SOL    HW161373  12.225  12.632  11.418  0.6144 -0.4702  0.6752
18086SOL    HW261374  12.308  12.745  11.473  0.1258  0.4127 -0.3684
18087SOL     OW61375  11.504   6.254   1.018  0.0762 -0.1879 -0.3082
18087SOL    HW161376  11.556   6.198   0.961  0.5097 -1.3403  1.1512
18087SOL    HW261377  11.441   6.194   1.059 -0.6659  0.7295 -0.0614
18088SOL     OW61378  11.853   7.637   2.361 -0.1113 -0.3476 -0.2215
18088SOL    HW161379  11.834   7.583   2.438  0.5929 -0.3042 -0.0117
18088SOL    HW261380  11.840   7.727   2.392 -3.1911 -0.3659 -1.0679
18089SOL     OW61381   2.789  10.676   4.525  0.4270 -0.5818  0.2637
18089SOL    HW161382   2.841  10.651   4.602  0.7002 -0.2722  0.1831
18089SOL    HW261383   2.726  10.739   4.558  0.8122 -0.1379  0.1604
18090SOL     OW61384  11.012   8.631   6.229 -0.0308 -0.3725 -0.7316
18090SOL    HW161385  11.062   8.612   6.308 -1.4091 -1.0601  0.0071
18090SOL    HW261386  10.987   8.723   6.238  1.2683  0.0652 -1.2425
18091SOL     OW61387  11.990   1.323   1.572  0.0652 -0.0370 -0.4907
18091SOL    HW161388  12.027   1.235   1.583 -0.8067 -0.4132 -0.4320
18091SOL    HW261389  11.916   1.325   1.633 -0.4989  0.3967 -1.1723
18092SOL     OW61390  10.492  11.972   4.895 -0.3218  0.5561  0.5302
18092SOL    HW161391  10.551  11.963   4.970 -0.3175  1.9091  0.7314
18092SOL    HW261392  10.550  11.993   4.822 -0.3468 -0.5391  0.1932
18093SOL     OW61393   4.712   6.380  10.659  0.0314  0.3729 -0.4437
18093SOL    HW161394   4.799   6.369  10.620  0.2018 -1.7579  0.4346
18093SOL    HW261395   4.699   6.302  10.712 -2.0060  1.1494  0.2956
18094SOL     OW61396  11.080   5.171   2.868 -0.3521 -0.1050  0.1397
18094SOL    HW161397  11.006   5.232   2.870 -1.4089 -1.2512 -1.6345
18094SOL    HW261398  11.155   5.226   2.845 -0.8365  0.9086  0.9251
18095SOL     OW61399   2.778   4.131   0.532  0.4529  0.4061  0.4532
18095SOL    HW161400   2.781   4.066   0.461  0.1172  0.7031  0.1679
18095SOL    HW261401   2.868   4.164   0.537  0.3028  0.9758 -0.3908
18096SOL     OW61402   9.548   4.014   4.898  0.2101  0.3032  0.3122
18096SOL    HW161403   9.524   4.101   4.865 -1.0952  0.3046  1.1790
18096SOL    HW261404   9.538   4.022   4.993 -0.8570 -1.0410  0.3380
18097SOL     OW61405   1.549   1.613  10.525  0.2543  0.1182 -0.3741
18097SOL    HW161406   1.559   1.675  10.598 -2.2081 -0.1438  0.2863
18097SOL    HW261407   1.629   1.624  10.474  2.6773 -0.4566  2.9129
18098SOL     OW61408   7.051   4.652   4.630 -0.2158  0.4787  0.0130
18098SOL    HW161409   6.989   4.674   4.700 -0.9651 -2.4381  0.4032
18098SOL    HW261410   7.124   4.610   4.676  0.8382  1.4553 -0.7095
18099SOL     OW61411   7.890   2.670   4.239  0.1924  0.3031  0.4152
18099SOL    HW161412   7.866   2.752   4.197  0.1303  0.2361  0.3170
18099SOL    HW261413   7.815   2.647   4.293 -0.2232 -0.2089 -0.3527
18100SOL     OW61414   7.557  10.908   5.036 -0.2254  0.5691  0.2905
18100SOL    HW161415   7.491  10.971   5.007  0.5624  1.0517 -0.4959
18100SOL    HW261416   7.620  10.905   4.964  0.1813 -0.5050  0.6767
18101SOL     OW61417   2.739   4.121   1.446  0.3549  0.5047 -0.0278
18101SOL    HW161418   2.675   4.173   1.397 -1.1663 -0.1001  1.2097
18101SOL    HW261419   2.743   4.163   1.532  0.4372 -0.3901  0.4160
18102SOL     OW61420   7.541   6.406  12.925  0.0864  0.1277  0.0208
18102SOL    HW161421   7.505   6.440  12.843  1.0187 -0.1797 -0.5379
18102SOL    HW261422   7.506   6.317  12.932  0.3473  0.0009 -0.2700
18103SOL     OW61423  11.458   5.695   9.411 -0.5120  0.0676  0.0363
18103SOL    HW161424  11.400   5.768   9.386 -0.4458 -0.1284 -0.6995
18103SOL    HW261425  11.463   5.640   9.333  2.3515  1.1638 -0.6926
18104SOL     OW61426  12.723   6.356  11.015  0.2809  0.3647  0.0390
18104SOL    HW161427  12.758   6.269  10.995 -0.2273  0.4101 -1.1560
18104SOL    HW261428  12.630   6.350  10.990 -0.3033  0.6040  1.9945
18105SOL     OW61429  10.144   2.770   9.466 -0.4619  0.1261  0.4608
18105SOL    HW161430  10.204   2.730   9.529  0.8259  1.8470  0.4218
18105SOL    HW261431  10.080   2.816   9.520 -0.1070  0.5531  0.5238
18106SOL     OW61432   8.390  11.173  11.463  0.2686 -1.2131  0.1823
18106SOL    HW161433   8.439  11.153  11.543  1.8360 -0.3158 -0.5181
18106SOL    HW261434   8.303  11.136  11.479  0.7331 -1.6167  2.0350
18107SOL     OW61435   9.863  11.343   1.305  0.2682  0.1316  0.4987
18107SOL    HW161436   9.891  11.411   1.366  0.7199  0.5391 -0.1548
18107SOL    HW261437   9.816  11.280   1.360  1.9342 -0.2767  1.5394
18108SOL     OW61438   9.112   0.590   5.961  0.2981  0.5497 -0.4510
18108SOL    HW161439   9.142   0.677   5.936  1.6825 -0.4156 -2.3854
18108SOL    HW261440   9.192   0.540   5.978 -0.4282 -0.5417 -0.1003
18109SOL     OW61441   5.067   7.268  11.536 -0.0611  0.4287 -0.1913
18109SOL    HW161442   5.131   7.335  11.515  0.6592 -0.1101  0.2671
18109SOL    HW261443   4.997   7.314  11.582 -0.4415  1.1726 -1.4560
18110SOL     OW61444  11.649   8.608   5.684  0.0901  0.4523 -0.1307
18110SOL    HW161445  11.632   8.515   5.700 -1.2275  0.8621  0.9602
18110SOL    HW261446  11.741   8.610   5.657  0.3376 -1.0929  0.4510
18111SOL     OW61447   2.900   8.802   8.748  0.1791  0.4731  0.0178
18111SOL    HW161448   2.992   8.777   8.747 -0.5246 -2.5524 -0.7901
18111SOL    HW261449   2.901   8.898   8.749  3.3495  0.6575 -2.4321
18112SOL     OW61450  11.287   4.674   2.780 -0.3128  0.0202 -0.1883
18112SOL    HW161451  11.354   4.725   2.734  0.8226 -1.2099  0.0192
18112SOL    HW261452  11.337   4.610   2.831 -1.5415  0.7141  2.0473
18113SOL     OW61453   2.342   9.690   2.534 -0.7007 -0.9640 -0.6819
18113SOL    HW161454   2.437   9.701   2.535 -0.9182  1.5591  0.6335
18113SOL    HW261455   2.314   9.734   2.454 -0.8338 -1.0745 -0.6966
18114SOL     OW61456   0.206   6.563   2.953  0.4320 -0.4480 -0.3985
18114SOL    HW161457   0.297   6.548   2.928  1.0392  1.4313  0.5375
18114SOL    HW261458   0.205   6.651   2.989 -1.5224 -0.9158  0.8242
18115SOL     OW61459   9.626   5.658   7.004 -0.3778  0.0509 -0.2805
18115SOL    HW161460   9.633   5.603   6.926 -0.8645  0.1507 -0.3931
18115SOL    HW261461   9.593   5.599   7.072  0.1452 -0.0620 -0.1196
18116SOL     OW61462   8.205   2.639   9.810 -0.3385 -0.4668  0.1381
18116SOL    HW161463   8.292   2.617   9.843 -0.1047 -0.7054 -0.6239
18116SOL    HW261464   8.189   2.576   9.741 -0.2556  0.8548 -1.1331
18117SOL     OW61465   7.984   1.210   7.897  0.2364 -0.1018  0.4992
18117SOL    HW161466   7.896   1.226   7.930  0.5093  1.2014  0.6176
18117SOL    HW261467   7.988   1.115   7.887 -0.9167 -0.2470  1.2135
18118SOL     OW61468   3.700   2.281   0.209 -0.5514 -0.3239 -0.5605
18118SOL    HW161469   3.614   2.318   0.191  0.0252  1.2898 -0.1927
18118SOL    HW261470   3.753   2.357   0.236  0.7217 -1.4242  0.1286
18119SOL     OW61471   4.854   9.993   2.289  0.0676  0.4301  0.3036
18119SOL    HW161472   4.917  10.063   2.276 -1.5494  1.7627 -0.7643
18119SOL    HW261473   4.878   9.954   2.373  1.7999  1.3923  0.2893
18120SOL     OW61474  11.537   5.474   9.557  0.8168  0.2749 -0.1733
18120SOL    HW161475  11.507   5.552   9.510  1.7714  1.1100  0.5182
18120SOL    HW261476  11.633   5.477   9.547  1.0410  0.4223  1.6588
18121SOL     OW61477  12.284   3.911   6.540 -0.1692 -0.1924 -0.2844
18121SOL    HW161478  12.237   3.830   6.562 -1.0387  0.4599  0.3475
18121SOL    HW261479  12.347   3.923   6.611  0.9581 -1.0395 -1.1047
18122SOL     OW61480   1.074   7.990   0.642  0.4165 -0.3612  0.6802
18122SOL    HW161481   1.082   7.896   0.659 -1.0868 -0.3438  1.6889
18122SOL    HW261482   1.001   8.018   0.698  1.6028  1.6395  1.3276
18123SOL     OW61483   0.119   6.917  11.753 -0.2749  0.2330 -0.2573
18123SOL    HW161484   0.106   6.889  11.662  1.9242  1.1881 -0.9205
18123SOL    HW261485   0.204   6.881  11.777  0.2224  1.9197  0.6275
18124SOL     OW61486  12.564   5.655   0.297  0.1111  0.2113 -0.3773
18124SOL    HW161487  12.547   5.748   0.311 -0.6794 -0.2557  2.4023
18124SOL    HW261488  12.658   5.649   0.279  0.7574  1.3483  2.2431
18125SOL     OW61489  10.476   0.752   6.238  0.3016 -0.4308 -0.5214
18125SOL    HW161490  10.567   0.765   6.213  0.1187 -0.9016 -1.4659
18125SOL    HW261491  10.464   0.657   6.240 -0.6233 -0.3898 -2.2061
18126SOL     OW61492   3.448   7.025   3.153  0.2049  0.3657 -0.2759
18126SOL    HW161493   3.436   7.041   3.247 -0.5172  0.4033 -0.3731
18126SOL    HW261494   3.433   6.932   3.143 -1.4939  0.6470 -0.6142
18127SOL     OW61495   4.335   3.950  11.782  0.5239  0.3115  0.3176
18127SOL    HW161496   4.262   3.998  11.742  0.2387 -1.0123 -0.8307
18127SOL    HW261497   4.406   3.957  11.719  1.2286  1.1203  1.1797
18128SOL     OW61498   7.786   0.944   3.252 -0.0326  0.3149  0.1877
18128SOL    HW161499   7.793   0.867   3.196  0.2200 -0.7839  1.6569
18128SOL    HW261500   7.838   0.922   3.329 -1.5764  1.1424  1.5281
18129SOL     OW61501  12.038  12.573   7.696  0.2806  0.6056 -0.4229
18129SOL    HW161502  12.083  12.488   7.701 -1.2131 -0.4086 -2.4398
18129SOL    HW261503  12.037  12.594   7.603 -3.0253  0.6984 -0.4921
18130SOL     OW61504   5.518   0.890   4.805 -0.0892 -0.1392 -0.5748
18130SOL    HW161505   5.526   0.820   4.740 -1.6018 -0.9644  0.0749
18130SOL    HW261506   5.493   0.845   4.886 -1.3168  1.1427 -0.1908
18131SOL     OW61507   9.781   1.149   2.999 -0.3039  0.2671  0.3027
18131SOL    HW161508   9.709   1.176   3.057 -0.9781 -1.0507  0.1137
18131SOL    HW261509   9.774   1.054   2.994  0.8200  0.2039 -0.5728
18132SOL     OW61510   9.696   3.747   3.699  0.1351 -0.7135 -0.0361
18132SOL    HW161511   9.791   3.754   3.709  0.0268  1.3543 -0.0261
18132SOL    HW261512   9.671   3.826   3.652 -1.7919 -0.2863  1.5492
18133SOL     OW61513   8.706   4.040   7.611 -0.2952  0.1889  0.3929
18133SOL    HW161514   8.741   4.129   7.614 -0.1048  0.1139  0.4091
18133SOL    HW261515   8.696   4.021   7.518 -1.2235  0.5702  0.4050
18134SOL     OW61516   4.640   9.531   9.765 -0.3483  0.2778 -0.1862
18134SOL    HW161517   4.683   9.607   9.726 -0.5904  0.4605 -0.0981
18134SOL    HW261518   4.701   9.459   9.750 -1.7603 -0.3898 -3.8180
18135SOL     OW61519  10.137   4.347   0.388  0.3490  0.6420 -0.1428
18135SOL    HW161520  10.212   4.361   0.445 -0.9806  3.6787  1.0615
18135SOL    HW261521  10.070   4.309   0.444  1.0688 -2.8817 -1.4026
18136SOL     OW61522   5.770  12.462  11.003  0.1667  0.3911  0.1355
18136SOL    HW161523   5.864  12.475  10.994  0.2155  0.4018  0.6330
18136SOL    HW261524   5.732  12.548  10.989  0.3865  0.8356  2.0192
18137SOL     OW61525   3.987   6.128   8.847 -0.4096  0.8610 -0.1556
18137SOL    HW161526   3.914   6.189   8.856 -1.6188 -0.5282 -0.3236
18137SOL    HW261527   3.949   6.050   8.808  0.9719 -0.2410  0.6168
18138SOL     OW61528   2.143   1.495  10.612 -0.0801  0.3389  0.0528
18138SOL    HW161529   2.172   1.585  10.595  0.5276 -0.3238 -2.9995
18138SOL    HW261530   2.209   1.440  10.569  0.6428 -1.7496  3.4209
18139SOL     OW61531   8.540   6.106   2.070  0.4950  0.8736  0.0191
18139SOL    HW161532   8.548   6.116   2.165  0.6164  0.3462  0.0675
18139SOL    HW261533   8.446   6.106   2.053  0.4584  0.4162  0.2050
18140SOL     OW61534   4.962   2.011   3.800  0.5586  0.0320 -0.5645
18140SOL    HW161535   4.993   1.957   3.873  1.3793 -0.2763 -1.1169
18140SOL    HW261536   4.952   1.950   3.727 -3.4721 -0.2876  0.0849
18141SOL     OW61537   6.677   6.133   7.912  0.0561 -0.1486  0.2435
18141SOL    HW161538   6.691   6.227   7.912  1.5544 -0.3420 -0.1012
18141SOL    HW261539   6.759   6.096   7.879  0.2772 -1.6843  2.2772
18142SOL     OW61540   4.674   8.638   2.885 -0.1037 -0.5487 -0.1460
18142SOL    HW161541   4.746   8.576   2.888 -0.6118 -1.2187 -0.9861
18142SOL    HW261542   4.670   8.676   2.972  0.1627 -1.7761  0.4153
18143SOL     OW61543   7.741   6.369   8.701  0.0423 -0.3382 -0.0885
18143SOL    HW161544   7.827   6.336   8.678  1.4614  1.7244  1.7854
18143SOL    HW261545   7.704   6.402   8.619  1.6257 -0.0176 -0.6971
18144SOL     OW61546   5.629   0.525  12.284 -0.6573  0.1026 -0.1920
18144SOL    HW161547   5.699   0.584  12.312  0.2909 -1.3125  0.5481
18144SOL    HW261548   5.553   0.553  12.334 -0.4832  1.2768 -0.5539
18145SOL     OW61549   5.891  12.117   5.375 -0.5392  0.6325 -0.2671
18145SOL    HW161550   5.868  12.146   5.463 -2.5664 -0.5846 -0.3359
18145SOL    HW261551   5.969  12.061   5.388 -1.6598 -0.7240  0.9970
18146SOL     OW61552   1.688  10.764   1.691 -0.2206 -0.0996  0.1189
18146SOL    HW161553   1.616  10.819   1.723  2.0448  0.8633  4.3308
18146SOL    HW261554   1.765  10.821   1.695  1.6956 -2.5721  1.5346
18147SOL     OW61555   2.735   2.815   6.482  0.3362  0.1382 -0.3153
18147SOL    HW161556   2.660   2.800   6.424  0.5240 -1.6772 -0.1448
18147SOL    HW261557   2.696   2.838   6.566  0.0278  1.2872 -0.7622
18148SOL     OW61558   9.954   5.326  12.069 -0.0473  0.6593 -0.3766
18148SOL    HW161559  10.011   5.379  12.125 -0.9815  1.4592 -0.1577
18148SOL    HW261560   9.948   5.242  12.114  0.2447  0.8601  0.0480
18149SOL     OW61561   9.636   7.814   1.944 -0.1357 -0.2641 -0.0243
18149SOL    HW161562   9.720   7.816   1.991 -0.4772  1.1217  0.5749
18149SOL    HW261563   9.600   7.902   1.956 -0.6682 -0.1520 -2.1439
18150SOL     OW61564  10.146   5.546  10.573  0.4093 -0.1316 -0.1608
18150SOL    HW161565  10.090   5.496  10.632 -1.0241  1.6847  0.1202
18150SOL    HW261566  10.166   5.627  10.621  0.8095  0.5359 -1.3997
18151SOL     OW61567   2.658   0.763   2.129  0.1380 -0.5861  0.0807
18151SOL    HW161568   2.738   0.804   2.162 -0.4361 -0.0335  0.8139
18151SOL    HW261569   2.689   0.698   2.067  1.2878 -1.8074  1.8424
18152SOL     OW61570   0.568  10.245  12.049  0.4385 -0.1683 -0.6759
18152SOL    HW161571   0.632  10.255  12.120  0.0598 -1.3397 -0.1268
18152SOL    HW261572   0.534  10.156  12.061 -0.6092  0.1005 -1.5296
18153SOL     OW61573   5.337   6.313   2.310 -0.0853 -0.0974  0.5255
18153SOL    HW161574   5.412   6.262   2.343  1.2625  2.8060  2.3361
18153SOL    HW261575   5.265   6.290   2.368  0.5357  0.1098  1.4015
18154SOL     OW61576   5.466   2.634   1.256  0.3120 -0.1988 -0.0081
18154SOL    HW161577   5.468   2.645   1.351  0.0444  0.9163 -0.1190
18154SOL    HW261578   5.523   2.703   1.222  0.5139 -0.6699 -0.6634
18155SOL     OW61579   8.103   4.192   6.411 -0.5233 -0.1407 -0.1464
18155SOL    HW161580   8.053   4.114   6.385  0.0789 -1.1381  1.4982
18155SOL    HW261581   8.085   4.201   6.505  2.0054 -0.3003  0.4328
18156SOL     OW61582   8.354   7.182   0.996  0.2650 -0.5219  0.1420
18156SOL    HW161583   8.317   7.217   0.914 -0.1557  0.2897  0.6720
18156SOL    HW261584   8.438   7.145   0.970  1.7811  2.7747 -0.1101
18157SOL     OW61585   4.606   7.645   9.143 -0.2102  0.1585 -0.0425
18157SOL    HW161586   4.681   7.616   9.090 -0.8307 -0.5879 -0.5287
18157SOL    HW261587   4.546   7.571   9.141 -0.5741  0.4200  1.0912
18158SOL     OW61588  11.866   4.856   8.067  0.3967 -0.2516 -0.1117
18158SOL    HW161589  11.860   4.833   7.974 -0.7046  0.1445 -0.1522
18158SOL    HW261590  11.958   4.881   8.080  0.6486 -0.6751 -0.9981
18159SOL     OW61591   5.833   0.700   0.754  0.4176  0.3996  0.0856
18159SOL    HW161592   5.874   0.734   0.834 -0.0531 -1.5533  1.2221
18159SOL    HW261593   5.880   0.618   0.736 -1.4255 -0.7013  0.0938
18160SOL     OW61594   0.222   4.381   1.990  0.1654 -0.1806 -0.0957
18160SOL    HW161595   0.283   4.441   2.034  0.1961 -0.6186  0.4530
18160SOL    HW261596   0.155   4.439   1.954 -0.7333  0.0845  1.8758
18161SOL     OW61597   3.824   2.009  10.222  0.1177 -0.6459  0.1980
18161SOL    HW161598   3.786   2.096  10.222  0.0896 -0.6551 -0.1487
18161SOL    HW261599   3.807   1.975  10.134 -0.0804 -1.0915  0.4014
18162SOL     OW61600  11.691   1.269   1.618 -0.2698 -0.1934  0.1275
18162SOL    HW161601  11.726   1.344   1.666 -0.0470  0.1194 -0.5090
18162SOL    HW261602  11.699   1.294   1.526 -1.8379 -0.2430 -0.0617
18163SOL     OW61603   4.907  11.958  11.142  0.2035  0.0032 -0.4451
18163SOL    HW161604   4.956  12.019  11.197  0.3093  0.2601 -0.8245
18163SOL    HW261605   4.826  11.942  11.190  0.0824  0.6100 -0.4474
18164SOL     OW61606   9.723   7.780   4.986 -0.4034 -0.1175 -0.3230
18164SOL    HW161607   9.701   7.792   4.894  1.3071 -2.4506 -1.1161
18164SOL    HW261608   9.674   7.702   5.013 -0.1567 -0.0073  0.4788
18165SOL     OW61609   5.216   6.141   0.041  0.1869  0.3208 -0.1358
18165SOL    HW161610   5.305   6.105   0.049  1.5042  2.8141 -2.0310
18165SOL    HW261611   5.218   6.222   0.091 -1.5338 -0.2561  0.9599
18166SOL     OW61612   3.737  10.398   6.700  0.5959 -0.7663 -0.1583
18166SOL    HW161613   3.647  10.431   6.710  0.8309 -0.1233 -0.1331
18166SOL    HW261614   3.778  10.414   6.785  0.0357 -3.3337  0.6909
18167SOL     OW61615   7.971   3.778   8.416  0.6670  0.1988 -0.0001
18167SOL    HW161616   7.964   3.776   8.512  0.2933  1.4462  0.0152
18167SOL    HW261617   8.020   3.858   8.397  0.3960  0.1683 -0.8744
18168SOL     OW61618   3.035   9.521  11.792 -0.5391 -0.6094  0.0150
18168SOL    HW161619   3.079   9.591  11.743  0.9773 -1.8306 -0.4210
18168SOL    HW261620   2.954   9.562  11.824  0.1918  1.2715 -0.4216
18169SOL     OW61621   2.908   2.372   3.164  0.2994 -0.3958  0.8719
18169SOL    HW161622   2.989   2.369   3.114 -0.4627 -0.4192 -0.4155
18169SOL    HW261623   2.922   2.311   3.236  1.1806 -0.9067  0.2874
18170SOL     OW61624   5.637   3.260   3.457 -0.3674  0.0628  0.1113
18170SOL    HW161625   5.597   3.262   3.544 -0.8245 -0.9987 -0.0570
18170SOL    HW261626   5.567   3.284   3.397 -1.3594 -3.3740 -0.3479
18171SOL     OW61627   8.370   8.986  11.725 -0.2194 -0.4642 -0.0712
18171SOL    HW161628   8.351   8.892  11.718  1.8117 -0.9333 -0.0691
18171SOL    HW261629   8.387   9.014  11.635  2.2747 -0.8950  0.1843
18172SOL     OW61630   3.540   2.527   1.110  0.3083  0.5468  0.3795
18172SOL    HW161631   3.530   2.479   1.028  0.4301  1.0254  0.0752
18172SOL    HW261632   3.626   2.499   1.144  0.4194  0.6181  0.1591
18173SOL     OW61633   4.081  10.292   1.556 -0.1237  0.2817  0.4516
18173SOL    HW161634   3.992  10.289   1.592 -0.9898 -0.1028 -1.5638
18173SOL    HW261635   4.075  10.243   1.474  2.3574 -1.1577  1.0219
18174SOL     OW61636  12.344  10.594   5.488 -0.0207  0.1615  0.2167
18174SOL    HW161637  12.369  10.545   5.567  1.1371 -0.2409 -0.3890
18174SOL    HW261638  12.259  10.556   5.464  0.1852 -0.5609  0.5732
18175SOL     OW61639   9.085   0.551   3.480  0.5461  0.3315 -0.6961
18175SOL    HW161640   9.046   0.464   3.475  0.9531  0.1394 -0.5795
18175SOL    HW261641   9.027   0.600   3.539  2.0714 -0.8406  1.9700
18176SOL     OW61642   9.476  10.693  11.772  0.4478  0.1562  0.2745
18176SOL    HW161643   9.422  10.708  11.695 -0.1233  3.2298  1.1453
18176SOL    HW261644   9.564  10.681  11.738 -0.0705 -0.3694 -0.9181
18177SOL     OW61645   1.149   9.611   3.750 -0.2471  0.5485  0.0375
18177SOL    HW161646   1.059   9.620   3.717 -0.2085  1.7352  0.2052
18177SOL    HW261647   1.189   9.697   3.735  0.8800  0.0256 -0.0704
18178SOL     OW61648   7.056   0.320   8.443 -0.4176 -0.4102  0.5630
18178SOL    HW161649   7.038   0.371   8.523  1.1915  0.1655  0.5872
18178SOL    HW261650   7.092   0.384   8.382 -0.0577 -1.1795 -0.0388
18179SOL     OW61651   1.054   2.248   8.477  0.2791 -0.0516 -0.3729
18179SOL    HW161652   1.082   2.334   8.509  0.8647 -0.6664  0.8126
18179SOL    HW261653   1.075   2.250   8.383  0.4348  1.0307 -0.3302
18180SOL     OW61654   1.880  12.576   9.092  0.0162  0.3982  0.7806
18180SOL    HW161655   1.904  12.548   9.181  0.8782  1.5600  0.9317
18180SOL    HW261656   1.907  12.667   9.088  0.6400  0.1618 -0.9265
18181SOL     OW61657  12.551   3.835   9.006  0.1189 -0.2333  0.3017
18181SOL    HW161658  12.526   3.824   9.098 -0.5409 -0.0485  0.1528
18181SOL    HW261659  12.522   3.923   8.984  0.1918 -0.3112 -0.1132
18182SOL     OW61660   8.125  11.539  11.558 -0.3494 -0.4785 -0.2290
18182SOL    HW161661   8.128  11.562  11.651 -0.6208  1.4719 -0.6620
18182SOL    HW261662   8.217  11.534  11.532 -0.2615  0.7362 -0.2252
18183SOL     OW61663  11.641   8.431  10.724  0.9706 -0.1617  0.0973
18183SOL    HW161664  11.570   8.456  10.783 -0.2505  0.1995 -1.4617
18183SOL    HW261665  11.625   8.480  10.644  3.8463  1.0721  0.1479
18184SOL     OW61666   3.206   1.526   8.874 -0.1957  0.2448 -0.6326
18184SOL    HW161667   3.291   1.570   8.868 -0.0033  0.3377  1.6775
18184SOL    HW261668   3.171   1.554   8.959 -1.7926 -1.0801 -0.8093
18185SOL     OW61669   6.679   4.814  10.293 -0.3611 -0.6571  0.2696
18185SOL    HW161670   6.684   4.894  10.346  0.0133 -0.5454  0.0686
18185SOL    HW261671   6.675   4.743  10.357  0.7292 -0.5625  0.4488
18186SOL     OW61672   2.776   5.766   5.747  0.5699  0.3338  0.9175
18186SOL    HW161673   2.728   5.684   5.761 -0.5373  0.5321 -1.2266
18186SOL    HW261674   2.857   5.739   5.704  0.3484  0.3053  0.5051
18187SOL     OW61675   4.308   0.146   1.127  0.1026 -0.0737  0.4055
18187SOL    HW161676   4.400   0.126   1.107  0.4280  0.9831  0.7684
18187SOL    HW261677   4.299   0.127   1.220 -0.8191 -2.8327 -0.1426
18188SOL     OW61678   0.592   5.807   9.591 -0.5537  0.1416 -0.0899
18188SOL    HW161679   0.599   5.881   9.651 -0.2605 -0.7737  1.0427
18188SOL    HW261680   0.645   5.831   9.516  1.1565  0.2849  1.1098
18189SOL     OW61681   4.748   6.009   7.146  0.4462 -0.3484 -0.0629
18189SOL    HW161682   4.810   6.070   7.187  1.5847  0.5384 -2.8090
18189SOL    HW261683   4.695   6.065   7.089 -1.1760 -1.4653  0.3048
18190SOL     OW61684   0.280   7.014  10.339 -0.1275  0.2026  0.7739
18190SOL    HW161685   0.344   6.944  10.325  0.5045  0.8228  0.5053
18190SOL    HW261686   0.219   6.978  10.403  1.3918  0.1473  2.2618
18191SOL     OW61687   8.981   4.861   7.758 -0.5711  0.1046  0.3790
18191SOL    HW161688   9.057   4.841   7.703 -0.7539 -0.0231  0.1716
18191SOL    HW261689   8.994   4.808   7.837 -1.6726 -1.8284 -0.6725
18192SOL     OW61690   0.521  11.230   8.995 -0.4543 -0.4893  0.1145
18192SOL    HW161691   0.518  11.213   9.089  0.8286 -1.0611  0.0781
18192SOL    HW261692   0.506  11.324   8.987 -1.8201 -0.6159  0.7765
18193SOL     OW61693   0.485   6.323   7.947  0.7938 -0.4655  0.6285
18193SOL    HW161694   0.453   6.411   7.967  0.2799 -0.3878 -0.4458
18193SOL    HW261695   0.543   6.335   7.872  0.5113 -1.0631  0.3037
18194SOL     OW61696   2.072   5.362  10.165  0.0183 -0.0508  0.5084
18194SOL    HW161697   2.020   5.284  10.147 -0.5651  0.5015 -0.2845
18194SOL    HW261698   2.029   5.431  10.114 -0.0488  0.9975  1.9279
18195SOL     OW61699   6.603   5.618   5.670  0.2815 -0.2507 -0.1317
18195SOL    HW161700   6.579   5.525   5.670 -0.2479 -0.1204 -0.4845
18195SOL    HW261701   6.698   5.618   5.678  0.8100 -0.9785 -4.2401
18196SOL     OW61702  10.196   6.886  10.931  0.5691 -0.1650  0.5426
18196SOL    HW161703  10.157   6.906  10.846  0.3006  2.9345  1.2521
18196SOL    HW261704  10.122   6.881  10.991  0.8353 -1.1485  0.8000
18197SOL     OW61705  12.412   5.999   0.821  0.0932  0.6279  0.1475
18197SOL    HW161706  12.378   5.911   0.802 -1.3770  1.4941 -1.5703
18197SOL    HW261707  12.498   6.001   0.779  0.1311  0.0048  0.1898
18198SOL     OW61708   5.555   0.453   3.928 -0.2807  0.4517  0.0647
18198SOL    HW161709   5.544   0.525   3.991  0.6763  0.0692  0.6938
18198SOL    HW261710   5.646   0.460   3.898 -0.5362  0.2283 -0.7838
18199SOL     OW61711   3.647   1.316  11.738  0.5116 -0.2598  1.0203
18199SOL    HW161712   3.693   1.358  11.810  1.4520  1.7380 -0.6384
18199SOL    HW261713   3.556   1.310  11.767  0.8775  0.4557  2.3722
18200SOL     OW61714   1.493  10.846   8.383 -0.1316  0.3662 -0.5963
18200SOL    HW161715   1.442  10.927   8.387 -1.2202 -0.2327 -1.6856
18200SOL    HW261716   1.506  10.821   8.475 -0.1656  1.5380 -0.2652
18201SOL     OW61717   7.608   4.974   6.971 -0.4243 -0.2317  0.1630
18201SOL    HW161718   7.542   5.030   6.930 -1.1279 -0.4244  0.9923
18201SOL    HW261719   7.602   4.995   7.065  0.1210 -0.8551  0.3446
18202SOL     OW61720   8.414   8.075   8.115  0.5380  0.4977  0.2106
18202SOL    HW161721   8.371   8.074   8.200 -1.3018  2.3638 -0.6073
18202SOL    HW261722   8.492   8.128   8.128  0.6769  0.1346  0.8959
18203SOL     OW61723   4.992   8.895   9.201 -0.2830  0.4510 -0.1590
18203SOL    HW161724   5.047   8.844   9.141 -0.3747 -0.3196  0.3989
18203SOL    HW261725   4.903   8.882   9.168 -0.3084  0.2298 -0.0053
18204SOL     OW61726  11.708   1.644  10.246 -0.2763  0.2066 -0.3640
18204SOL    HW161727  11.743   1.718  10.197  1.0613 -1.0393 -1.3496
18204SOL    HW261728  11.785   1.592  10.269 -1.0821 -0.3407  1.2627
18205SOL     OW61729   5.225   1.671  12.158  0.2786  0.7092  0.1789
18205SOL    HW161730   5.260   1.712  12.237 -2.4157 -0.5479  2.2118
18205SOL    HW261731   5.269   1.586  12.153 -0.1410  0.4432  0.8593
18206SOL     OW61732   6.824   4.437   3.784 -0.0978  0.1545 -0.0228
18206SOL    HW161733   6.860   4.508   3.836 -0.2755  0.4548 -0.3069
18206SOL    HW261734   6.729   4.452   3.784 -0.0186  0.8396 -1.4079
18207SOL     OW61735   9.483   7.973   5.314 -0.3809  0.0129  0.0485
18207SOL    HW161736   9.474   8.061   5.350 -1.6746  0.4995 -1.3647
18207SOL    HW261737   9.395   7.937   5.313 -0.3399 -0.1810 -2.0092
18208SOL     OW61738  11.815   4.670   4.500  0.3495 -0.1523 -0.0794
18208SOL    HW161739  11.772   4.715   4.428  1.6800 -1.3870 -1.7464
18208SOL    HW261740  11.743   4.632   4.551 -0.7180  2.5040  0.5613
18209SOL     OW61741  12.091   6.761  12.510  0.1487  0.5062 -0.0298
18209SOL    HW161742  12.173   6.762  12.461  0.1540  0.4630 -0.0221
18209SOL    HW261743  12.111   6.712  12.590  0.0602  0.3210 -0.1221
18210SOL     OW61744  11.484  12.710  11.080  0.4234  0.1416  0.6612
18210SOL    HW161745  11.577  12.697  11.095  0.0499 -0.8196  2.4365
18210SOL    HW261746  11.442  12.641  11.132 -1.2127 -1.5545 -2.5847
18211SOL     OW61747  11.135   9.857   3.529  0.3169 -0.2398 -0.0119
18211SOL    HW161748  11.176   9.771   3.538  1.4617  0.3979  1.2015
18211SOL    HW261749  11.209   9.918   3.523 -0.4689  0.7229 -0.0878
18212SOL     OW61750   7.360   4.021  12.045  0.1222 -0.2940 -0.1144
18212SOL    HW161751   7.319   4.045  11.961 -0.2129 -0.7615 -0.0867
18212SOL    HW261752   7.428   3.958  12.021 -1.2114 -1.8904  0.1305
18213SOL     OW61753  12.612   4.303   0.146  0.3147  0.4983 -0.0160
18213SOL    HW161754  12.637   4.390   0.113  0.0659  0.3982 -0.4820
18213SOL    HW261755  12.693   4.266   0.179  0.3955  0.9723  0.3308
18214SOL     OW61756   9.254   6.663   6.090  0.4486  0.0680  0.2019
18214SOL    HW161757   9.299   6.611   6.155  0.6768  0.1524  0.1132
18214SOL    HW261758   9.312   6.737   6.073  0.5704 -0.1502 -0.3754
18215SOL     OW61759   4.141   6.796   2.725  0.7083 -0.1230  0.9862
18215SOL    HW161760   4.222   6.847   2.733 -0.3378  1.5667  1.2054
18215SOL    HW261761   4.071   6.859   2.743 -0.6650 -1.5596  0.8462
18216SOL     OW61762   1.784   5.822   1.749 -0.3455  0.1743  0.3096
18216SOL    HW161763   1.743   5.870   1.676 -0.9155 -2.1783 -1.0287
18216SOL    HW261764   1.719   5.827   1.819 -0.5727  0.9902  0.0574
18217SOL     OW61765   0.147  11.704   7.169  0.1182  0.0681  0.0787
18217SOL    HW161766   0.220  11.646   7.189 -1.4875 -1.9061  0.5317
18217SOL    HW261767   0.162  11.731   7.078  1.5434 -0.0355  0.2572
18218SOL     OW61768   1.293   3.032   7.566 -0.3203  0.3218  0.2849
18218SOL    HW161769   1.286   3.102   7.500 -0.9254 -1.0709 -1.1921
18218SOL    HW261770   1.377   2.991   7.548 -0.1635  0.3762  0.8710
18219SOL     OW61771   5.929   2.248   4.790 -0.7037  0.7266 -0.5348
18219SOL    HW161772   5.973   2.167   4.814  1.0573  1.8931  0.3986
18219SOL    HW261773   5.885   2.228   4.707  0.5979 -0.8501 -0.8814
18220SOL     OW61774   1.077   0.430   8.033  0.7198 -0.9199  0.5133
18220SOL    HW161775   1.080   0.427   7.937 -2.4702 -1.9684  0.3251
18220SOL    HW261776   1.001   0.485   8.053  2.7568  1.3850  2.5852
18221SOL     OW61777  10.557   7.978   4.084  0.2454 -0.1348  0.4270
18221SOL    HW161778  10.534   7.949   3.996  0.5098 -2.1254  0.9753
18221SOL    HW261779  10.591   8.067   4.071 -1.9575  0.5803 -1.1389
18222SOL     OW61780  12.321  11.696   5.767 -0.1307 -0.3275 -0.0796
18222SOL    HW161781  12.344  11.603   5.762 -2.7708 -0.9957 -1.9185
18222SOL    HW261782  12.237  11.697   5.814  0.5875  1.3349  1.2671
18223SOL     OW61783   6.770  12.865   4.236 -0.6025  0.5427 -0.0968
18223SOL    HW161784   6.739  12.956   4.237 -1.3060  0.2992  1.3983
18223SOL    HW261785   6.848  12.866   4.291 -1.1857  0.0504  0.7484
18224SOL     OW61786   1.784  10.705   8.283 -0.9113  0.4479 -0.2147
18224SOL    HW161787   1.781  10.708   8.379  0.4152  3.4130 -0.1586
18224SOL    HW261788   1.867  10.661   8.263 -1.2708 -0.3287 -0.0297
18225SOL     OW61789   1.348   9.418   8.668  0.0506  0.0729 -0.6662
18225SOL    HW161790   1.405   9.471   8.725 -1.3647  0.4885  0.4259
18225SOL    HW261791   1.296   9.365   8.729 -2.1597  1.1860 -1.4773
18226SOL     OW61792  11.921   9.766   1.602 -0.4391  0.0931  0.6404
18226SOL    HW161793  11.940   9.859   1.590 -3.0480  0.4387 -1.7115
18226SOL    HW261794  11.965   9.723   1.528 -1.3644 -0.1763  0.2318
18227SOL     OW61795  10.529   0.283  12.339 -0.2387 -0.1878  0.0787
18227SOL    HW161796  10.444   0.289  12.383 -0.0494  0.4367  0.3695
18227SOL    HW261797  10.577   0.217  12.389 -0.6558 -0.7736 -0.2760
18228SOL     OW61798  11.418   2.043   4.731 -0.0608 -0.1915 -0.1213
18228SOL    HW161799  11.330   2.055   4.767  0.0906  2.6042 -0.3995
18228SOL    HW261800  11.404   2.000   4.647 -1.4871  2.1198 -1.1781
18229SOL     OW61801   5.317  11.208   5.514  0.2562  0.0353 -0.1737
18229SOL    HW161802   5.361  11.292   5.528  3.6178 -1.8212  1.8956
18229SOL    HW261803   5.353  11.174   5.432 -1.0558  0.5323 -0.9805
18230SOL     OW61804   7.455   4.719   1.807  0.4637 -0.2039 -0.6967
18230SOL    HW161805   7.547   4.723   1.781 -0.0337 -0.1087 -2.6241
18230SOL    HW261806   7.422   4.640   1.764 -0.1020 -0.8851  0.9413
18231SOL     OW61807   8.094   2.318   6.831 -0.4148  0.5303 -0.2132
18231SOL    HW161808   8.100   2.262   6.754  0.1995 -0.3882  0.4810
18231SOL    HW261809   8.185   2.343   6.850 -0.5226  0.4608  0.4195
18232SOL     OW61810   7.891   6.470   7.965  0.4988  0.0835  0.1159
18232SOL    HW161811   7.859   6.380   7.962  0.1571  0.2240 -0.5124
18232SOL    HW261812   7.849   6.508   8.042 -0.4979  0.1241 -0.4257
18233SOL     OW61813   8.011   8.648   5.725  0.1583 -0.1075  0.2071
18233SOL    HW161814   8.105   8.637   5.737  0.0325 -1.4006  0.1140
18233SOL    HW261815   7.978   8.560   5.706 -0.8711  0.5362 -1.2110
18234SOL     OW61816   5.322   5.764   1.709 -0.1345  0.2794 -0.3497
18234SOL    HW161817   5.282   5.739   1.626  1.0282  1.3179 -1.2795
18234SOL    HW261818   5.341   5.681   1.753  0.3201 -0.3571 -1.6815
18235SOL     OW61819   7.336   1.019   3.117  0.2506  0.0984  0.1739
18235SOL    HW161820   7.327   1.043   3.024  0.4421  1.4232  0.4754
18235SOL    HW261821   7.410   1.071   3.148 -0.8253  0.9514  1.4546
18236SOL     OW61822   0.589   8.909   9.719 -0.3135  0.3653  0.5592
18236SOL    HW161823   0.519   8.975   9.721  1.0014  1.8619 -0.5876
18236SOL    HW261824   0.588   8.871   9.807 -2.5834  0.2862  0.5670
18237SOL     OW61825   4.461   2.369  10.207 -0.2576  0.3084  0.3520
18237SOL    HW161826   4.387   2.421  10.236  0.2218  0.1819  1.8721
18237SOL    HW261827   4.499   2.333  10.287  1.0664 -0.1552 -0.4420
18238SOL     OW61828  12.922   7.510   8.705 -0.1925 -0.2208 -0.2832
18238SOL    HW161829  12.843   7.511   8.651 -0.3819  0.3126 -0.0055
18238SOL    HW261830  12.985   7.458   8.654 -0.5855 -0.3035 -0.6967
18239SOL     OW61831   4.944   1.330   5.568  0.3094 -0.0778 -0.3111
18239SOL    HW161832   4.940   1.265   5.497  1.8130 -0.5554 -0.0076
18239SOL    HW261833   5.008   1.394   5.537  0.4846  0.0626  0.3386
18240SOL     OW61834   7.017   6.476   3.767 -0.3310  0.4082  0.1483
18240SOL    HW161835   6.986   6.492   3.677 -0.5023  0.1787  0.1665
18240SOL    HW261836   7.023   6.564   3.805 -2.8064  0.3900  0.7465
18241SOL     OW61837   5.884   2.835   6.794 -0.3302  0.0316 -0.2633
18241SOL    HW161838   5.810   2.841   6.854  0.0921  0.8915  0.1925
18241SOL    HW261839   5.925   2.922   6.798  0.1602 -0.1399 -1.2082
18242SOL     OW61840   0.101   2.088   3.614  0.6335 -0.1028 -0.6031
18242SOL    HW161841   0.183   2.137   3.618  0.5979 -0.0610 -0.3281
18242SOL    HW261842   0.123   2.002   3.651 -0.1323  0.8815  2.4280
18243SOL     OW61843   9.333   8.684   6.166  0.2447 -0.7253  0.0515
18243SOL    HW161844   9.300   8.771   6.142 -0.9145 -0.6505  1.7118
18243SOL    HW261845   9.269   8.651   6.229 -0.3252 -3.5892 -1.8693
18244SOL     OW61846   4.628   2.253   8.177 -0.0891 -0.1853 -0.1306
18244SOL    HW161847   4.680   2.226   8.101  0.1688 -1.0639  0.3490
18244SOL    HW261848   4.621   2.348   8.168 -1.2544 -0.3892 -2.0150
18245SOL     OW61849   8.950   8.950   2.994  0.0180 -0.2569 -0.3297
18245SOL    HW161850   8.992   9.016   2.939  0.3718 -0.5079 -0.3650
18245SOL    HW261851   8.934   8.994   3.077 -0.7038  0.1867 -0.6941
18246SOL     OW61852   9.215   6.597   5.037  0.0400  0.1466  0.3652
18246SOL    HW161853   9.188   6.558   5.120  0.7427  1.0487  1.0324
18246SOL    HW261854   9.198   6.528   4.972 -0.0747 -0.7467  1.3158
18247SOL     OW61855  11.028   3.474   3.355 -0.4327  0.5086  0.0904
18247SOL    HW161856  11.015   3.567   3.371  1.5999  1.0732 -1.1044
18247SOL    HW261857  11.063   3.440   3.438  2.0622  1.6100 -0.4034
18248SOL     OW61858  10.504   7.814   4.290  0.1325 -0.0623 -0.2686
18248SOL    HW161859  10.521   7.874   4.218  1.8431  0.7395  0.7510
18248SOL    HW261860  10.542   7.857   4.367 -0.7591 -1.3431  0.9449
18249SOL     OW61861   3.331  10.623   1.370 -0.0682 -0.0940  0.5631
18249SOL    HW161862   3.358  10.704   1.413  1.3170  0.3952 -1.1163
18249SOL    HW261863   3.397  10.609   1.302 -1.5362 -1.4254 -0.6614
18250SOL     OW61864   8.127   9.817   7.587 -0.4552  0.4468 -0.1260
18250SOL    HW161865   8.171   9.807   7.671 -0.6086 -0.9239 -0.1922
18250SOL    HW261866   8.163   9.747   7.532  0.1857  1.7537 -1.4591
18251SOL     OW61867   8.053   4.934  10.484 -0.0586  0.0164  0.0666
18251SOL    HW161868   8.037   4.936  10.578 -0.2544 -1.9436  0.1021
18251SOL    HW261869   8.007   4.856  10.453  1.8690 -0.6542 -1.2888
18252SOL     OW61870   8.465  10.711   1.458  0.0888  0.2129  0.0827
18252SOL    HW161871   8.414  10.766   1.517 -1.4206 -0.1749 -0.8134
18252SOL    HW261872   8.400  10.658   1.412  1.1842  0.5567 -1.9682
18253SOL     OW61873   9.544  12.946  12.647  0.7150  0.4754  0.3293
18253SOL    HW161874   9.605  12.972  12.579  0.4518 -0.3095 -0.2132
18253SOL    HW261875   9.553  13.014  12.714  2.0835  0.4380  0.2112
18254SOL     OW61876   8.155   0.592  12.117 -0.1489  0.1085  0.8817
18254SOL    HW161877   8.093   0.520  12.128  0.0751  0.0416  1.7083
18254SOL    HW261878   8.191   0.579  12.029  0.2202 -1.0474  1.1934
18255SOL     OW61879  12.115   7.198   4.675 -0.1005 -0.1901  0.1946
18255SOL    HW161880  12.205   7.204   4.644 -0.2756 -0.0872 -0.3018
18255SOL    HW261881  12.122   7.151   4.758  0.4639  0.2972  0.4317
18256SOL     OW61882  10.370   0.554   3.223 -0.5205 -0.4258  0.2281
18256SOL    HW161883  10.361   0.586   3.133 -2.2979 -0.7244  0.2630
18256SOL    HW261884  10.280   0.547   3.255  0.0955  0.0650  2.1857
18257SOL     OW61885   6.001   1.025   5.262  0.3390  0.0397  0.0748
18257SOL    HW161886   5.936   0.964   5.227 -0.9135  2.2429 -1.7424
18257SOL    HW261887   6.084   0.977   5.256 -0.2151 -0.7894 -3.4514
18258SOL     OW61888  11.577  11.298   1.877 -0.4696 -0.2794  0.2184
18258SOL    HW161889  11.541  11.219   1.918 -4.1628 -0.2315 -2.4422
18258SOL    HW261890  11.537  11.370   1.926  0.2240 -0.0892  0.5155
18259SOL     OW61891   7.547   4.012   2.293 -0.0518  0.2914  0.0567
18259SOL    HW161892   7.595   4.046   2.369  0.2628  0.7662 -0.3461
18259SOL    HW261893   7.548   3.917   2.305  0.0033  0.3587  0.6416
18260SOL     OW61894   7.484   2.421   0.272 -0.2331 -0.5301  0.1820
18260SOL    HW161895   7.503   2.507   0.307 -0.5140 -0.3352 -0.1360
18260SOL    HW261896   7.516   2.424   0.181 -0.1785 -0.7835  0.1897
18261SOL     OW61897  10.763   4.222   8.367 -0.3191 -0.3026  0.0280
18261SOL    HW161898  10.694   4.255   8.425 -0.2486 -0.9677  0.5064
18261SOL    HW261899  10.721   4.217   8.281 -1.0333 -1.1770  0.4143
18262SOL     OW61900  12.447   5.915   9.078 -0.0673  0.0322 -0.2313
18262SOL    HW161901  12.509   5.849   9.109  0.5753  0.5992 -0.2976
18262SOL    HW261902  12.491   5.999   9.093 -0.0119  0.3600 -2.0240
18263SOL     OW61903  10.714  12.432   6.298  0.2012 -0.5632  0.3217
18263SOL    HW161904  10.655  12.391   6.362  0.6705  0.8763  1.7574
18263SOL    HW261905  10.724  12.522   6.329  1.0757 -0.0283 -1.3824
18264SOL     OW61906   5.006  12.214   4.999  0.1137  0.0143 -0.0129
18264SOL    HW161907   5.086  12.162   5.010 -0.2804 -0.6095 -0.0126
18264SOL    HW261908   5.016  12.255   4.913  0.8922  0.7733  0.4252
18265SOL     OW61909   7.611   3.703   3.700 -0.0458 -0.0950  0.0879
18265SOL    HW161910   7.606   3.766   3.628 -2.4687 -0.2042  0.0916
18265SOL    HW261911   7.621   3.757   3.778  1.0153  0.1043 -0.1783
18266SOL     OW61912  11.187  11.491   1.778  0.1793 -0.4811  0.3434
18266SOL    HW161913  11.210  11.474   1.869  1.9509  0.2551  0.0768
18266SOL    HW261914  11.096  11.464   1.771  0.0064 -0.5591  2.3195
18267SOL     OW61915  11.948   8.223   6.070 -0.3788 -0.7254 -0.4718
18267SOL    HW161916  12.008   8.259   6.005 -0.2733  1.0102  0.5342
18267SOL    HW261917  12.005   8.186   6.138 -0.4110  0.1710  0.0702
18268SOL     OW61918   5.014   0.312   1.782  0.1346 -0.4645  0.8824
18268SOL    HW161919   4.933   0.267   1.761 -0.4612  1.1846 -0.5771
18268SOL    HW261920   5.083   0.258   1.743 -0.5382 -0.2374 -0.6572
18269SOL     OW61921  10.372   8.269   6.512  0.3532  0.3735  0.6176
18269SOL    HW161922  10.356   8.176   6.525 -1.2112  0.5833  0.3630
18269SOL    HW261923  10.302   8.313   6.562  1.5787  1.4362  1.4633
18270SOL     OW61924  11.262  11.384   1.528 -0.5009 -0.3250  0.4906
18270SOL    HW161925  11.226  11.420   1.610 -0.9879  1.6227 -0.5040
18270SOL    HW261926  11.342  11.434   1.513  0.8684 -2.2750  0.9121
18271SOL     OW61927   7.591   3.316   4.644  0.2575 -0.4867 -0.4388
18271SOL    HW161928   7.548   3.400   4.630 -0.0109  0.4451  4.4279
18271SOL    HW261929   7.682   3.338   4.663 -0.0551 -1.0458  2.0355
18272SOL     OW61930   6.005   6.000  11.055  0.5151  0.0255  0.1631
18272SOL    HW161931   6.057   6.020  10.977  0.7918  1.0365  0.6008
18272SOL    HW261932   6.060   5.940  11.105  0.8287  0.2884  0.1357
18273SOL     OW61933   5.771   6.847   4.047 -0.9045 -0.4138  0.3740
18273SOL    HW161934   5.766   6.943   4.049 -1.0958 -0.3525 -1.3380
18273SOL    HW261935   5.685   6.818   4.078 -0.5717 -0.0758  1.6874
18274SOL     OW61936   5.542   6.184   7.826 -0.3295  0.0218 -0.3964
18274SOL    HW161937   5.508   6.150   7.909 -0.3236  1.5071  0.2335
18274SOL    HW261938   5.502   6.128   7.759 -2.2099  0.2933  0.4521
18275SOL     OW61939   3.376   9.906   2.620  0.2407 -0.0881  0.2662
18275SOL    HW161940   3.421   9.838   2.671 -0.1820 -0.1911  0.5045
18275SOL    HW261941   3.378   9.983   2.676  1.7316  0.4402 -0.4623
18276SOL     OW61942   4.218   1.215   8.028  0.1662 -0.1051 -0.2330
18276SOL    HW161943   4.295   1.252   7.983  0.3725 -0.9877 -0.6220
18276SOL    HW261944   4.252   1.140   8.077 -0.5720 -1.0377 -1.0984
18277SOL     OW61945   6.854   5.565   9.517  0.0331  0.6864 -0.1818
18277SOL    HW161946   6.912   5.501   9.558 -1.0398  0.2722  0.7505
18277SOL    HW261947   6.865   5.645   9.569  0.4127  0.8649 -0.5403
18278SOL     OW61948   2.125  11.631  12.203  0.0657  0.2677 -0.1205
18278SOL    HW161949   2.054  11.650  12.141  0.4721  1.0456 -0.3594
18278SOL    HW261950   2.138  11.713  12.251 -1.4881 -0.8143  2.3447
18279SOL     OW61951   4.164   3.137   6.074  0.1954  0.1026 -0.3543
18279SOL    HW161952   4.237   3.110   6.018 -1.6471 -0.4711 -2.6436
18279SOL    HW261953   4.090   3.149   6.014 -1.3676  1.7016  1.7068
18280SOL     OW61954   6.438  10.954   0.131  0.5585 -0.5160  0.1868
18280SOL    HW161955   6.497  10.896   0.083  1.8779  0.5949  0.3965
18280SOL    HW261956   6.457  10.937   0.224  0.3617 -0.3542  0.2590
18281SOL     OW61957   6.640  10.088   4.882  0.3210  0.2947 -0.5961
18281SOL    HW161958   6.575  10.134   4.936 -0.6646 -0.7447 -0.8564
18281SOL    HW261959   6.597  10.007   4.856  2.0097 -0.8027 -0.1429
18282SOL     OW61960   6.466   2.058   4.608  0.2303 -0.3048 -0.4059
18282SOL    HW161961   6.383   2.045   4.561  0.4669  0.0588 -0.9420
18282SOL    HW261962   6.533   2.029   4.545  0.6492  1.5818 -0.8985
18283SOL     OW61963   8.985   6.697   0.757  0.0204  0.3522 -0.2933
18283SOL    HW161964   9.057   6.663   0.809 -2.2247 -1.4879  1.8441
18283SOL    HW261965   8.955   6.774   0.806 -0.3428  0.2818 -0.4038
18284SOL     OW61966   9.389   8.028   4.273  0.6231  0.3805 -0.2742
18284SOL    HW161967   9.358   7.967   4.206 -0.9786  0.8235  0.0125
18284SOL    HW261968   9.417   7.971   4.346 -2.5272 -0.0983  0.7181
18285SOL     OW61969   9.586  10.560   4.481 -0.2173  0.0084  0.2772
18285SOL    HW161970   9.644  10.635   4.466  0.1972 -0.6118 -1.5716
18285SOL    HW261971   9.642  10.484   4.467 -0.7955 -0.6524  1.4509
18286SOL     OW61972   3.423   9.767   4.092  0.1015 -0.1677  0.5409
18286SOL    HW161973   3.401   9.843   4.144  2.2643 -0.2710  1.7067
18286SOL    HW261974   3.513   9.745   4.117  0.0214 -2.2865 -0.7413
18287SOL     OW61975   5.211  10.948   5.326  0.4666 -0.5153  0.2210
18287SOL    HW161976   5.244  10.931   5.415 -3.0845  1.6150  2.1320
18287SOL    HW261977   5.248  11.033   5.303 -0.1181 -0.1925  0.4694
18288SOL     OW61978   4.251  11.363   4.597 -0.4003 -0.7981  0.2176
18288SOL    HW161979   4.301  11.347   4.517  0.9395  0.8073  0.6745
18288SOL    HW261980   4.161  11.341   4.574  0.2267 -2.0791 -1.1744
18289SOL     OW61981   9.362   8.055   4.872  0.5482 -0.1851 -0.6008
18289SOL    HW161982   9.453   8.078   4.855  0.3228  1.1922 -0.0714
18289SOL    HW261983   9.366   7.980   4.931  1.3218 -1.2349 -1.9319
18290SOL     OW61984  11.130  12.482   7.311 -0.2425 -0.1254 -0.4007
18290SOL    HW161985  11.195  12.524   7.255 -1.3013 -1.3054 -2.6739
18290SOL    HW261986  11.060  12.546   7.319 -0.7816 -0.4850 -1.8320
18291SOL     OW61987  10.487   6.262   3.044 -0.6018 -0.3865  0.0680
18291SOL    HW161988  10.565   6.218   3.009  0.1056  0.7494  0.1663
18291SOL    HW261989  10.458   6.319   2.973 -0.8352 -0.1584  0.3469
18292SOL     OW61990   0.613  11.732   7.687 -0.8415  0.6337  0.3905
18292SOL    HW161991   0.589  11.678   7.613  0.7799 -0.1622  0.4017
18292SOL    HW261992   0.539  11.725   7.748  0.1154 -3.3668  1.3543
18293SOL     OW61993   5.724   9.603  10.911 -0.2678 -0.2400 -0.1277
18293SOL    HW161994   5.795   9.648  10.956  0.3797 -1.4738  0.1163
18293SOL    HW261995   5.756   9.593  10.821 -0.1602 -0.7426 -0.0321
18294SOL     OW61996   8.146   3.489   7.807 -0.1521  0.1095 -0.3776
18294SOL    HW161997   8.083   3.517   7.741 -1.5623  0.3929  1.0204
18294SOL    HW261998   8.173   3.571   7.850  1.2735  0.0006 -1.0412
18295SOL     OW61999   3.272   0.064   4.459  0.4899  0.3471  0.2010
18295SOL    HW162000   3.193   0.016   4.485 -0.0453  1.2502  0.2896
18295SOL    HW262001   3.339  -0.003   4.449 -0.7206 -0.6922 -1.6186
18296SOL     OW62002   6.808   2.049   0.495  0.2506 -0.2883  0.0906
18296SOL    HW162003   6.746   2.110   0.536  1.6496  0.7786  0.7264
18296SOL    HW262004   6.853   2.007   0.568  0.5672 -0.7405 -0.3549
18297SOL     OW62005  11.878   6.193   1.743  0.2505  0.2744  0.1237
18297SOL    HW162006  11.878   6.149   1.659 -0.3676  0.5910 -0.0503
18297SOL    HW262007  11.856   6.125   1.807 -1.4203  0.4327 -0.2208
18298SOL     OW62008  12.199   6.644   7.274  0.6214 -0.4357 -0.0216
18298SOL    HW162009  12.209   6.695   7.193  2.3900 -0.6539  0.0228
18298SOL    HW262010  12.152   6.566   7.247  3.8651 -2.0424 -1.6206
18299SOL     OW62011   4.620   4.365   3.479  0.2600  0.2788  0.1680
18299SOL    HW162012   4.546   4.317   3.440  2.8120 -1.9740 -2.3633
18299SOL    HW262013   4.630   4.326   3.566 -0.5351 -0.5896 -0.1068
18300SOL     OW62014   0.379  11.367   6.356  0.2479 -0.0931 -0.8774
18300SOL    HW162015   0.320  11.422   6.408 -0.5655 -0.5808 -1.2600
18300SOL    HW262016   0.363  11.392   6.265  1.7055  0.7976 -0.9247
18301SOL     OW62017   1.332  11.996   6.978 -0.0181 -0.2891  0.5514
18301SOL    HW162018   1.303  11.909   7.006  0.1994 -1.6091 -2.7717
18301SOL    HW262019   1.252  12.042   6.955 -0.0003 -0.8552 -0.7301
18302SOL     OW62020   7.171   8.920   6.991  0.2838 -0.0523  0.4429
18302SOL    HW162021   7.138   8.993   6.939 -2.6785 -1.4262  0.1820
18302SOL    HW262022   7.264   8.916   6.970 -0.0928  1.6405 -2.0066
18303SOL     OW62023  10.400   2.318   5.991 -0.1378  0.8456  0.1322
18303SOL    HW162024  10.393   2.391   6.053 -0.5076  1.8812 -1.0919
18303SOL    HW262025  10.313   2.310   5.954  0.2444  0.7058 -0.7588
18304SOL     OW62026   6.472   1.960  12.042  0.3256 -0.1392 -0.2542
18304SOL    HW162027   6.535   2.019  12.083  1.7066 -0.5703 -1.7039
18304SOL    HW262028   6.424   1.922  12.116  1.9934 -0.0656  0.9167
18305SOL     OW62029   5.494   7.202   8.212 -0.1598  0.2745 -0.1235
18305SOL    HW162030   5.409   7.212   8.169  0.2110  0.3399 -0.8478
18305SOL    HW262031   5.558   7.208   8.142  0.4008 -0.9330  0.2583
18306SOL     OW62032  11.881   5.234   4.313  0.0583 -0.0687 -0.5328
18306SOL    HW162033  11.834   5.316   4.295  0.2924 -0.2684 -2.2921
18306SOL    HW262034  11.940   5.255   4.385 -2.2588  0.3657  1.3676
18307SOL     OW62035   9.612  12.708   8.297 -0.2310 -0.0818  0.6943
18307SOL    HW162036   9.665  12.629   8.313  0.0106 -0.3737 -1.2938
18307SOL    HW262037   9.627  12.762   8.375  3.8118  0.2821 -0.1113
18308SOL     OW62038   9.605   8.908   1.821  0.2062  0.1962  0.0981
18308SOL    HW162039   9.552   8.830   1.801  1.4675 -0.4110 -1.0629
18308SOL    HW262040   9.622   8.902   1.915  0.7290 -1.2490 -0.0644
18309SOL     OW62041   2.976   4.797  12.599  0.4585  0.2856 -0.1839
18309SOL    HW162042   2.967   4.766  12.689  0.5767 -0.8855 -0.5613
18309SOL    HW262043   2.897   4.849  12.583 -0.2590 -0.6731  0.1424
18310SOL     OW62044   4.216   6.914   3.736  0.5352  0.3163  0.0304
18310SOL    HW162045   4.225   6.944   3.826  0.6425 -3.0082  1.2790
18310SOL    HW262046   4.122   6.916   3.718  0.4367  0.2283  0.5310
18311SOL     OW62047   1.358   7.869  12.636 -0.3461 -0.0908  0.3915
18311SOL    HW162048   1.429   7.932  12.646 -0.4961  0.0343  0.6741
18311SOL    HW262049   1.279   7.922  12.633 -0.3433 -0.1363 -1.1544
18312SOL     OW62050   9.057  10.208   2.994  0.0026 -0.1376  0.0706
18312SOL    HW162051   8.990  10.152   2.953 -1.4362  0.7320  1.1295
18312SOL    HW262052   9.126  10.147   3.020  0.0497 -0.9605 -1.8072
18313SOL     OW62053   1.470   7.824   0.405  0.7714 -0.4286  0.1101
18313SOL    HW162054   1.505   7.911   0.388  0.5795 -0.1107  1.2882
18313SOL    HW262055   1.380   7.828   0.373  0.8482 -0.2910 -0.0909
18314SOL     OW62056   8.281   2.838   7.107 -0.3563  0.6169 -0.4557
18314SOL    HW162057   8.323   2.784   7.040 -1.5119 -0.9895  0.0536
18314SOL    HW262058   8.199   2.793   7.127  0.8996 -0.2925  3.6288
18315SOL     OW62059   4.017   4.441   0.369 -0.6872  0.4598  0.1756
18315SOL    HW162060   4.023   4.408   0.458  0.0890  0.0754 -0.0097
18315SOL    HW262061   4.005   4.536   0.379 -1.9510  0.2637  0.6934
18316SOL     OW62062   5.718   0.896   8.750  0.2946  0.3555 -0.4848
18316SOL    HW162063   5.734   0.990   8.753  4.0500 -0.1364 -0.6107
18316SOL    HW262064   5.723   0.874   8.657  0.3788 -0.1125 -0.3705
18317SOL     OW62065   5.390   4.945   5.338 -0.2474 -0.3688  0.2843
18317SOL    HW162066   5.331   4.880   5.376 -1.0124 -0.0426 -0.3132
18317SOL    HW262067   5.332   5.014   5.306  0.4065 -0.3225 -0.8545
18318SOL     OW62068   6.667   7.724   8.696 -0.3235 -1.0850 -0.2195
18318SOL    HW162069   6.683   7.631   8.715  0.3435 -0.4635  2.6829
18318SOL    HW262070   6.692   7.769   8.777 -0.5737  1.6500 -1.5842
18319SOL     OW62071   5.803   9.860   1.359 -0.8712 -0.2760  0.1951
18319SOL    HW162072   5.873   9.819   1.308 -2.3752 -0.3267 -1.9654
18319SOL    HW262073   5.845   9.933   1.404  0.6239 -0.4890 -0.8076
18320SOL     OW62074   9.798   8.726   4.098 -0.5916  0.2953  0.1826
18320SOL    HW162075   9.842   8.754   4.178 -1.6864 -1.2898  1.4194
18320SOL    HW262076   9.866   8.681   4.048 -0.0320  0.7620  0.5151
18321SOL     OW62077   0.840   0.035   9.480  0.0593  0.2306  0.2389
18321SOL    HW162078   0.928   0.018   9.447  0.1792 -1.0951  1.1809
18321SOL    HW262079   0.849   0.115   9.532  0.2509  1.2705 -1.3168
18322SOL     OW62080  11.741   2.273   6.552 -0.0457 -0.3829 -0.0736
18322SOL    HW162081  11.792   2.198   6.582 -0.7671 -1.4833 -1.5172
18322SOL    HW262082  11.701   2.308   6.632  0.3800 -1.4692  0.6345
18323SOL     OW62083   5.646   6.169   8.602 -0.2611  0.2873 -0.6018
18323SOL    HW162084   5.715   6.123   8.649 -1.5112 -0.6360  0.4230
18323SOL    HW262085   5.587   6.199   8.672 -0.5915  1.5720 -1.4057
18324SOL     OW62086   3.014   6.008   2.733  0.2533  0.0821  0.0583
18324SOL    HW162087   3.054   5.981   2.650  1.1204 -0.9410  0.7762
18324SOL    HW262088   2.928   5.967   2.732  0.7612 -1.0359  0.2090
18325SOL     OW62089  10.268  12.819   4.222  0.8060  0.3163  0.2756
18325SOL    HW162090  10.261  12.747   4.285 -1.2340 -0.2159 -0.5009
18325SOL    HW262091  10.356  12.855   4.237  1.8752 -2.2755  0.7114
18326SOL     OW62092   5.291   2.252   6.752  0.2742  0.5836  0.4732
18326SOL    HW162093   5.243   2.305   6.816  0.3306  2.1491 -0.7297
18326SOL    HW262094   5.382   2.280   6.761  0.5140 -0.2287  0.6822
18327SOL     OW62095   5.635  12.147   7.990  0.6776 -0.0969  0.4228
18327SOL    HW162096   5.579  12.074   8.016  0.7730 -0.2236  0.2721
18327SOL    HW262097   5.676  12.176   8.071  0.6701 -0.2398  0.4780
18328SOL     OW62098   8.229   7.844   3.710 -0.0700 -0.0635  0.2188
18328SOL    HW162099   8.224   7.770   3.650  0.2193  0.0907  0.0002
18328SOL    HW262100   8.145   7.889   3.701 -0.2681 -0.3974  0.3959
18329SOL     OW62101  12.365   9.052  12.752 -0.2181  0.2883 -0.1510
18329SOL    HW162102  12.308   8.977  12.737 -2.3280  1.7203  0.2790
18329SOL    HW262103  12.441   9.016  12.796 -1.1449 -1.5933  0.0026
18330SOL     OW62104   5.131  10.300   5.475 -0.1025  0.0229  0.0105
18330SOL    HW162105   5.185  10.228   5.443  1.5870  0.4417  1.7017
18330SOL    HW262106   5.090  10.266   5.555 -0.4732  0.4564  0.0056
18331SOL     OW62107   5.121  12.068  12.728  0.4443  0.1782 -0.0086
18331SOL    HW162108   5.040  12.115  12.748  0.6842 -0.4337  2.9297
18331SOL    HW262109   5.093  11.989  12.683 -0.3965  0.7825 -0.5800
18332SOL     OW62110   6.740   0.334   9.193 -0.1444  0.2033 -0.4747
18332SOL    HW162111   6.742   0.371   9.281  2.7064  0.6763 -0.6442
18332SOL    HW262112   6.650   0.303   9.182 -1.2729  2.4131  1.6079
18333SOL     OW62113  10.304  11.542  12.696  0.4758  0.1392 -0.0991
18333SOL    HW162114  10.311  11.550  12.600 -0.1515  0.8611 -0.0981
18333SOL    HW262115  10.215  11.571  12.716  0.9388  1.0010  0.8023
18334SOL     OW62116   0.607   3.760   4.576 -0.3976  0.2727 -0.3682
18334SOL    HW162117   0.550   3.819   4.625  0.0687  1.1204 -0.8176
18334SOL    HW262118   0.627   3.690   4.638  0.5525  1.5532  0.8518
18335SOL     OW62119   5.909   9.655   5.241  0.5368  0.1430 -0.2787
18335SOL    HW162120   5.816   9.631   5.250 -0.2969  2.0016 -2.7900
18335SOL    HW262121   5.949   9.579   5.200 -0.3003  0.0213 -0.8919
18336SOL     OW62122   0.616   7.807  11.782  0.1837 -0.2809  0.6524
18336SOL    HW162123   0.656   7.883  11.825  0.1343  0.8756 -1.2336
18336SOL    HW262124   0.529   7.837  11.757 -0.3840 -1.4596  1.1241
18337SOL     OW62125   6.713  11.273  12.531  0.5228  0.5782  0.7369
18337SOL    HW162126   6.662  11.230  12.462  0.1351 -0.3127  1.5487
18337SOL    HW262127   6.712  11.365  12.508  2.2215  0.0928 -1.6269
18338SOL     OW62128   5.324  12.593  10.228  0.0086  0.1788  0.3457
18338SOL    HW162129   5.234  12.597  10.260  0.3118  0.1626  1.2472
18338SOL    HW262130   5.375  12.567  10.305  0.7265 -0.2298 -0.2568
18339SOL     OW62131   9.003   0.782   9.801 -0.0881 -0.1773 -0.3040
18339SOL    HW162132   8.946   0.741   9.736 -0.0996 -0.4377 -0.1297
18339SOL    HW262133   8.984   0.735   9.882  1.0916 -0.9235 -0.4442
18340SOL     OW62134   2.963   2.321   0.257 -0.5074  0.1981  0.0096
18340SOL    HW162135   2.992   2.306   0.347 -0.7359 -2.1557 -0.2589
18340SOL    HW262136   2.871   2.346   0.265 -0.5065  0.0705  0.4238
18341SOL     OW62137   9.968   9.316   0.450  0.2714  0.6722 -0.0767
18341SOL    HW162138  10.027   9.291   0.379  0.4052  0.0368  0.2554
18341SOL    HW262139   9.882   9.286   0.422  0.3817  0.1003  0.1822
18342SOL     OW62140   0.492   3.794   9.107 -0.8349  0.0349  0.8433
18342SOL    HW162141   0.558   3.792   9.177 -0.9604 -0.5844  0.9517
18342SOL    HW262142   0.512   3.873   9.058  0.8742 -0.8399  0.0385
18343SOL     OW62143  12.500   7.269   1.450 -0.1491  0.1291  0.5586
18343SOL    HW162144  12.585   7.225   1.451  0.4242  1.0518 -1.3719
18343SOL    HW262145  12.513   7.343   1.391 -2.0128  0.9283  1.0822
18344SOL     OW62146   5.926   8.571   7.851 -0.0108  0.4760 -0.1748
18344SOL    HW162147   5.889   8.639   7.794 -1.2327  1.8807  2.1653
18344SOL    HW262148   6.018   8.594   7.859  0.0818  0.5208 -1.1677
18345SOL     OW62149   4.296   8.266   8.877 -0.7524 -0.7031  0.0766
18345SOL    HW162150   4.244   8.272   8.956  0.9413 -0.2521  1.2114
18345SOL    HW262151   4.309   8.357   8.850  1.0880 -0.6541  0.9770
18346SOL     OW62152   4.427   1.150   2.504  0.6335  0.1440 -0.3400
18346SOL    HW162153   4.472   1.174   2.423 -0.4500  0.8376 -0.7570
18346SOL    HW262154   4.463   1.064   2.526  1.4930  0.2749 -1.1377
18347SOL     OW62155  10.412   4.600  12.280 -0.6973  0.5096  0.5457
18347SOL    HW162156  10.444   4.690  12.275 -2.0467  1.0194  0.5687
18347SOL    HW262157  10.323   4.605  12.244 -0.4415 -0.9998 -0.3613
18348SOL     OW62158   0.486  10.005  12.171  0.2461 -0.0598 -0.0244
18348SOL    HW162159   0.570  10.029  12.210 -0.7676 -0.3070  2.4707
18348SOL    HW262160   0.442   9.953  12.238 -1.1264 -1.6682 -2.0297
18349SOL     OW62161   1.399   6.330  12.933  0.6378  0.2360 -0.1187
18349SOL    HW162162   1.320   6.281  12.911  1.5002 -0.5108 -1.7341
18349SOL    HW262163   1.391   6.348  13.027 -1.5758  0.4581 -0.2993
18350SOL     OW62164   9.889   9.719   0.465  1.0174 -0.5781  0.3770
18350SOL    HW162165   9.931   9.671   0.537 -1.6508  0.9269  3.2041
18350SOL    HW262166   9.961   9.763   0.420  2.7491  0.6265  3.9506
18351SOL     OW62167   9.941   7.711   1.036  0.2795  0.2178  0.2606
18351SOL    HW162168   9.944   7.752   1.123  0.3717  0.2787  0.2279
18351SOL    HW262169  10.011   7.645   1.038  0.2708  0.2079  0.2384
18352SOL     OW62170   7.844   7.935   5.205 -0.0569 -0.1033  0.2043
18352SOL    HW162171   7.771   7.909   5.261  0.0116 -2.6688 -0.7935
18352SOL    HW262172   7.917   7.950   5.266 -1.0171  1.1732  1.0915
18353SOL     OW62173   6.586   8.661   9.484 -0.0013 -0.0873  0.6391
18353SOL    HW162174   6.646   8.724   9.444 -0.3567 -0.4565 -0.5356
18353SOL    HW262175   6.573   8.692   9.573  0.0962  1.3043  0.1875
18354SOL     OW62176  12.113   4.290   5.461 -0.2926 -0.0082  0.6014
18354SOL    HW162177  12.049   4.299   5.390 -2.2775  0.7422  2.3914
18354SOL    HW262178  12.109   4.374   5.507 -0.4787 -1.1084  2.7001
18355SOL     OW62179  11.333   8.779  12.560  0.6331  0.7533 -0.5920
18355SOL    HW162180  11.298   8.691  12.547 -1.1671  1.5751 -1.8169
18355SOL    HW262181  11.428   8.769  12.555  0.5813 -1.3445  1.0692
18356SOL     OW62182  11.798   2.831   9.780  0.2178 -0.2551  0.3665
18356SOL    HW162183  11.744   2.901   9.745 -0.8264 -1.6076 -0.8736
18356SOL    HW262184  11.737   2.771   9.823  0.8436 -1.2137 -0.0285
18357SOL     OW62185   6.953  10.343   0.801  0.2216 -0.3731 -0.5993
18357SOL    HW162186   6.970  10.366   0.710 -0.1234 -1.7067 -1.0224
18357SOL    HW262187   6.857  10.348   0.809  0.3377  1.8403  0.3121
18358SOL     OW62188  11.678   8.316   2.601  0.1698  0.4061  0.2015
18358SOL    HW162189  11.614   8.385   2.617 -0.6104 -0.5214  1.3152
18358SOL    HW262190  11.740   8.324   2.673 -0.4848 -0.6317  0.9134
18359SOL     OW62191   3.210   2.269  10.149  0.5708 -0.0456  0.3702
18359SOL    HW162192   3.196   2.361  10.126 -0.9318 -0.3729 -0.1467
18359SOL    HW262193   3.183   2.221  10.071 -0.6158 -1.0090  1.3414
18360SOL     OW62194   0.189   3.362   3.365 -0.1019 -0.5147 -0.2006
18360SOL    HW162195   0.279   3.351   3.335 -0.6401 -0.6456 -1.9370
18360SOL    HW262196   0.168   3.454   3.348 -0.4970 -0.6486 -0.4798
18361SOL     OW62197   1.012   7.133   5.205  0.1361 -0.0200  0.1023
18361SOL    HW162198   0.971   7.165   5.125 -1.3720  1.4731  1.3955
18361SOL    HW262199   1.026   7.040   5.189  0.0827  0.2820 -1.9574
18362SOL     OW62200   5.180   3.378  12.021  0.9934  0.2282 -0.4531
18362SOL    HW162201   5.091   3.362  11.989  0.5285  0.4006  0.6943
18362SOL    HW262202   5.222   3.292  12.019  0.9209  0.2072 -1.3305
18363SOL     OW62203   2.429   4.105  12.771  0.5725 -0.4351 -0.0069
18363SOL    HW162204   2.457   4.057  12.849  2.4076 -1.4533 -1.2265
18363SOL    HW262205   2.466   4.193  12.783  0.5843 -0.4910  0.3891
18364SOL     OW62206   7.953  12.090   9.518 -0.2213  0.7284 -0.5109
18364SOL    HW162207   7.931  12.048   9.435 -0.6373  1.1918 -0.6430
18364SOL    HW262208   7.882  12.065   9.578  0.3218  0.0097 -0.1528
18365SOL     OW62209  10.326   5.956  11.022  0.3716  0.2127  0.0545
18365SOL    HW162210  10.381   5.926  10.949  0.1087  0.0291 -0.0692
18365SOL    HW262211  10.237   5.935  10.995  0.4286 -2.6646  1.6951
18366SOL     OW62212  12.795   2.533   4.447 -0.1922 -0.1936  0.0764
18366SOL    HW162213  12.759   2.529   4.535 -0.2227  0.7633  0.1149
18366SOL    HW262214  12.720   2.551   4.391 -0.6291 -3.2865 -0.4925
18367SOL     OW62215   9.740  12.418   8.314  0.1437 -0.1715 -0.3383
18367SOL    HW162216   9.781  12.455   8.392  0.2154 -1.6341  0.3309
18367SOL    HW262217   9.814  12.399   8.255  0.0654  1.2464 -0.9342
18368SOL     OW62218   9.924   3.915  12.206 -0.0508 -0.3686 -0.1323
18368SOL    HW162219   9.929   3.976  12.280 -1.4478 -0.6441  0.2173
18368SOL    HW262220   9.997   3.941  12.149 -0.3009  1.3114  0.2442
18369SOL     OW62221   3.259   5.474   6.721 -0.3812  0.2325  0.2147
18369SOL    HW162222   3.179   5.447   6.765  0.3887 -0.1862  1.4143
18369SOL    HW262223   3.317   5.398   6.728  0.2358  0.6406 -0.3529
18370SOL     OW62224   0.766   8.373   3.409 -0.1702  0.3767 -0.8453
18370SOL    HW162225   0.776   8.309   3.338  0.8793 -0.0699 -0.3207
18370SOL    HW262226   0.704   8.333   3.470 -0.3074  0.3168 -1.0252
18371SOL     OW62227   3.321   2.105   2.939 -0.4366 -0.4661 -0.2275
18371SOL    HW162228   3.374   2.171   2.896 -1.8914 -0.2832 -1.8374
18371SOL    HW262229   3.375   2.026   2.937 -0.0086 -0.1682 -1.3933
18372SOL     OW62230   2.786   5.761  11.273  0.3466  0.3361  0.2707
18372SOL    HW162231   2.729   5.684  11.267  1.2982 -0.3966  0.4356
18372SOL    HW262232   2.872   5.729  11.247  0.8200  1.2726  0.6528
18373SOL     OW62233   8.104   1.372   8.947 -0.0389  0.5055  0.0052
18373SOL    HW162234   8.070   1.431   8.879 -0.3261  0.8204  0.4130
18373SOL    HW262235   8.187   1.412   8.974  0.1584  0.2900 -0.2740
18374SOL     OW62236   2.162   3.407   2.024 -0.4036 -0.0727  0.4095
18374SOL    HW162237   2.166   3.499   2.052 -0.7983  0.0126  0.1778
18374SOL    HW262238   2.148   3.359   2.105 -0.5008  0.0957  0.4944
18375SOL     OW62239   6.165   0.409   9.299  0.1084  0.2009 -0.7429
18375SOL    HW162240   6.190   0.395   9.391 -1.1717 -0.7481 -0.5077
18375SOL    HW262241   6.209   0.490   9.275 -0.2117  0.9538  0.9997
18376SOL     OW62242   6.517   3.083   8.791  0.2776  0.0057  0.2163
18376SOL    HW162243   6.466   3.139   8.732 -0.0776 -1.1865 -0.6370
18376SOL    HW262244   6.492   3.113   8.879 -1.5579 -0.1994 -0.1819
18377SOL     OW62245   0.327   7.380   7.491  0.1342  0.7154  0.6087
18377SOL    HW162246   0.246   7.414   7.453 -1.0294 -1.1318  1.2993
18377SOL    HW262247   0.327   7.287   7.467  0.7015  0.0981  2.8018
18378SOL     OW62248   4.800  10.898   1.814  0.4001 -0.0167 -0.0244
18378SOL    HW162249   4.852  10.872   1.890 -0.6105  0.0482  0.6998
18378SOL    HW262250   4.721  10.844   1.819  0.5349 -0.3630 -1.3019
18379SOL     OW62251   1.683   0.449   2.148  0.3098 -1.0501 -0.3833
18379SOL    HW162252   1.632   0.508   2.092  0.3461 -0.5057  0.1414
18379SOL    HW262253   1.630   0.369   2.153 -0.5196 -0.4858  0.1817
18380SOL     OW62254  12.252   4.632  10.396  0.1154 -0.1579  0.0234
18380SOL    HW162255  12.286   4.721  10.398  0.8494 -0.4343  0.5549
18380SOL    HW262256  12.218   4.621  10.307 -1.1786  1.0701  0.3300
18381SOL     OW62257   8.958   4.549   4.074 -0.0431 -0.3384  0.2825
18381SOL    HW162258   8.872   4.540   4.032  0.1843 -0.3495 -0.1950
18381SOL    HW262259   8.975   4.643   4.075  0.1513 -0.3659 -0.0761
18382SOL     OW62260  11.699   2.402   8.010  0.0730  0.3388 -0.4331
18382SOL    HW162261  11.761   2.350   7.958 -0.8999 -1.5340  0.1830
18382SOL    HW262262  11.632   2.430   7.948 -0.7048 -1.2848 -0.3768
18383SOL     OW62263   9.366   9.922  12.314  0.3965  0.5334  0.0550
18383SOL    HW162264   9.404   9.887  12.233 -0.7885 -0.0185 -0.2913
18383SOL    HW262265   9.421   9.997  12.336  1.4908 -0.0624 -0.5706
18384SOL     OW62266  10.296  11.135   7.210 -0.0955 -0.0017 -0.0303
18384SOL    HW162267  10.362  11.180   7.263 -0.0919 -1.3102  1.1539
18384SOL    HW262268  10.286  11.189   7.132 -0.3809  2.2693  1.4669
18385SOL     OW62269   9.559   7.183   9.149  0.1054 -0.2056  0.4974
18385SOL    HW162270   9.515   7.185   9.234 -2.1428 -2.0072 -0.5242
18385SOL    HW262271   9.605   7.267   9.145  0.3804 -0.0911  3.4939
18386SOL     OW62272   6.459  10.761   2.391  0.2513 -0.0594  0.2006
18386SOL    HW162273   6.413  10.726   2.467 -1.3470  0.9652 -0.2478
18386SOL    HW262274   6.520  10.691   2.366  0.5518 -0.5605  2.1584
18387SOL     OW62275  11.201  12.296   6.093  0.8843 -0.2525 -0.3212
18387SOL    HW162276  11.164  12.263   6.011 -1.1334  0.5996  0.1733
18387SOL    HW262277  11.250  12.374   6.067 -0.6621  0.6589 -0.6430
18388SOL     OW62278   0.433  10.500   2.740 -0.1061 -0.5559  0.4029
18388SOL    HW162279   0.400  10.434   2.679 -1.0876 -0.2668  0.6065
18388SOL    HW262280   0.524  10.476   2.755 -0.3433 -1.6346  0.1678
18389SOL     OW62281   0.236   2.257   5.220  0.8743 -0.4644  0.9566
18389SOL    HW162282   0.178   2.197   5.174 -1.0803  3.1331 -1.8614
18389SOL    HW262283   0.314   2.262   5.166  0.7387 -0.0171  0.7954
18390SOL     OW62284   4.170   1.986  11.788 -0.0464 -0.3811 -0.2695
18390SOL    HW162285   4.238   2.039  11.747  1.1054 -1.6715 -0.1150
18390SOL    HW262286   4.189   1.897  11.760 -3.4374 -0.5724 -2.6702
18391SOL     OW62287   1.561  11.192   1.028 -0.6193 -0.2024 -0.1008
18391SOL    HW162288   1.583  11.102   1.050 -2.4905 -0.7775 -0.3935
18391SOL    HW262289   1.645  11.234   1.010  0.3904 -1.5218  1.3244
18392SOL     OW62290   5.694   1.601   6.342 -0.9318 -0.1939  0.4393
18392SOL    HW162291   5.676   1.644   6.258 -3.0618  0.8977  1.3652
18392SOL    HW262292   5.714   1.673   6.402 -0.9865 -0.8187  1.2278
18393SOL     OW62293   8.039   8.319  11.715 -0.1796 -0.5433  0.7636
18393SOL    HW162294   7.980   8.265  11.662 -0.3976  0.3280  0.0781
18393SOL    HW262295   8.126   8.304  11.677 -0.5197  1.1925 -0.8806
18394SOL     OW62296   4.450   2.069   9.696 -0.8386 -0.4828  0.0068
18394SOL    HW162297   4.414   2.028   9.775 -1.4965 -1.3457 -0.7259
18394SOL    HW262298   4.475   1.996   9.640  0.4651  0.1231 -0.2267
18395SOL     OW62299   3.671   0.288  10.689  0.2399 -0.5315  0.0864
18395SOL    HW162300   3.736   0.358  10.688 -0.5884  0.2733  0.7435
18395SOL    HW262301   3.616   0.305  10.612  0.7011 -1.1236 -0.3850
18396SOL     OW62302   1.147   4.400  10.276 -0.3484 -0.4946 -0.6589
18396SOL    HW162303   1.113   4.331  10.218 -2.1255 -1.4665  1.3839
18396SOL    HW262304   1.164   4.355  10.359 -2.4291  1.5985  1.0438
18397SOL     OW62305   4.713   6.017   1.810  0.4145  0.6307 -0.0654
18397SOL    HW162306   4.806   6.035   1.797  0.6875 -1.4666 -1.4534
18397SOL    HW262307   4.705   5.998   1.904  1.5945 -0.2481 -0.1349
18398SOL     OW62308   1.114   5.208  12.069 -0.0217 -0.2022 -0.2657
18398SOL    HW162309   1.191   5.204  12.012  0.2473 -1.5801  0.1662
18398SOL    HW262310   1.049   5.258  12.018  0.3460 -1.0605 -1.6196
18399SOL     OW62311   3.408   4.609   8.227 -0.0966 -0.0530  0.2980
18399SOL    HW162312   3.372   4.639   8.311  0.5206  1.0292  0.1999
18399SOL    HW262313   3.426   4.690   8.179  0.8252 -0.6161 -0.3397
18400SOL     OW62314   9.612  11.865   4.528  0.2001 -0.0515  0.5016
18400SOL    HW162315   9.558  11.942   4.542 -1.5656 -1.1980  0.2843
18400SOL    HW262316   9.575  11.798   4.585 -0.8643 -1.8699 -2.1281
18401SOL     OW62317  11.985   0.085   3.957  0.6097  0.3072 -0.0275
18401SOL    HW162318  11.893   0.112   3.947  0.1266 -1.5803 -1.2232
18401SOL    HW262319  12.035   0.166   3.945 -0.8291  1.0503 -1.3455
18402SOL     OW62320   5.097   6.030   6.535 -0.3876  0.1152 -0.2243
18402SOL    HW162321   5.049   6.054   6.614 -1.1349  0.3383 -0.7428
18402SOL    HW262322   5.179   6.080   6.542 -0.2115 -0.2672  0.6601
18403SOL     OW62323   0.505   4.961  12.102 -0.1123  0.7145 -0.8539
18403SOL    HW162324   0.455   4.910  12.166 -0.2800  0.8962 -0.8408
18403SOL    HW262325   0.593   4.923  12.105 -0.3683  0.0612 -1.2343
18404SOL     OW62326  11.258   1.242   6.384  0.2889 -0.5908 -0.2109
18404SOL    HW162327  11.195   1.232   6.313 -0.3133  1.0057  0.0514
18404SOL    HW262328  11.258   1.157   6.428 -0.1862 -1.2383 -1.4167
18405SOL     OW62329   1.747   1.365  11.503  0.1399  0.3033  0.1953
18405SOL    HW162330   1.701   1.431  11.452 -0.5830 -1.7432 -1.9710
18405SOL    HW262331   1.689   1.346  11.576 -0.0934  1.3116  0.2831
18406SOL     OW62332   9.882  11.840   0.278  0.1757  0.3243  0.1169
18406SOL    HW162333   9.866  11.853   0.184 -1.3288  3.3152  0.6588
18406SOL    HW262334   9.815  11.778   0.305 -0.5516  0.8048 -0.5136
18407SOL     OW62335   0.900   1.515   8.251 -0.0883  0.4284  0.3611
18407SOL    HW162336   0.986   1.511   8.292  0.5837 -0.5890 -1.1083
18407SOL    HW262337   0.862   1.429   8.266 -0.7238  0.7542  0.6833
18408SOL     OW62338   6.108   3.035   3.420  0.0261  0.2152 -0.0149
18408SOL    HW162339   6.127   3.104   3.357 -0.0343  0.2856  0.0434
18408SOL    HW262340   6.015   3.045   3.439 -0.1695 -0.3831 -0.6101
18409SOL     OW62341   2.326   4.332   7.833 -0.1285 -0.3060  0.1135
18409SOL    HW162342   2.420   4.312   7.839 -0.1240 -0.0955  4.6693
18409SOL    HW262343   2.284   4.262   7.884 -1.8705  1.9569  1.9993
18410SOL     OW62344   8.126   9.282   7.604 -0.1787  0.0379 -0.0264
18410SOL    HW162345   8.192   9.285   7.535  0.0608 -1.8142  0.0766
18410SOL    HW262346   8.173   9.304   7.684  0.0781 -0.2290 -0.1029
18411SOL     OW62347   0.100   3.607  10.864  0.1534  0.6272 -0.0855
18411SOL    HW162348   0.180   3.598  10.812  1.2271 -2.4803  1.8631
18411SOL    HW262349   0.071   3.697  10.846  3.4195  1.5410 -1.7255
18412SOL     OW62350  11.720   1.521   0.428  0.9585 -0.3431 -0.4404
18412SOL    HW162351  11.705   1.459   0.499  0.9046 -2.1487 -1.9709
18412SOL    HW262352  11.799   1.569   0.454  1.4046 -1.5273  0.4625
18413SOL     OW62353   4.234  10.164   9.880 -0.2750  0.3405 -0.1936
18413SOL    HW162354   4.193  10.218   9.811 -1.7171 -0.0441  0.3197
18413SOL    HW262355   4.267  10.087   9.833 -1.6661 -0.1458 -0.4207
18414SOL     OW62356   6.705   7.095   6.875 -0.4137 -0.5972 -0.3169
18414SOL    HW162357   6.796   7.064   6.871 -0.4217 -1.0978  1.9524
18414SOL    HW262358   6.712   7.189   6.887 -0.1486 -0.7229  0.5839
18415SOL     OW62359  10.599   2.062   7.594 -0.1218 -0.5047  0.4412
18415SOL    HW162360  10.615   2.016   7.512  0.0799  0.3825 -0.0212
18415SOL    HW262361  10.682   2.105   7.614 -0.3764 -0.1546  0.7538
18416SOL     OW62362   4.852   0.933   1.230 -0.0854 -0.4696 -0.1278
18416SOL    HW162363   4.775   0.929   1.173 -1.1256  2.3589  0.8930
18416SOL    HW262364   4.924   0.953   1.171 -0.4335 -1.3999 -0.8872
18417SOL     OW62365   5.755  11.407   3.588  0.2272  0.0861  0.5383
18417SOL    HW162366   5.690  11.379   3.524 -0.4271 -0.6370  1.5013
18417SOL    HW262367   5.727  11.368   3.670  2.4686 -1.1342  0.7954
18418SOL     OW62368  10.136   2.490   2.077  0.2620 -0.2431  0.0750
18418SOL    HW162369  10.074   2.438   2.128 -0.8025  0.2620 -0.6817
18418SOL    HW262370  10.216   2.437   2.076  0.3460 -0.2642  2.2769
18419SOL     OW62371   0.146  10.905  10.321  0.1555  0.4615  0.1437
18419SOL    HW162372   0.185  10.902  10.234 -1.1730  0.7274 -0.4884
18419SOL    HW262373   0.143  10.814  10.350  0.4948  0.3626 -0.1292
18420SOL     OW62374   8.148   9.854   5.358 -0.1796 -0.1481  0.2068
18420SOL    HW162375   8.197   9.821   5.283 -0.3550  0.9685 -0.4191
18420SOL    HW262376   8.057   9.856   5.329 -0.5262 -1.5490  1.1257
18421SOL     OW62377   5.822   2.114   3.977  0.3410  0.0269 -0.3642
18421SOL    HW162378   5.763   2.157   3.916 -0.1187 -0.2080 -0.0875
18421SOL    HW262379   5.846   2.183   4.039  0.6458  0.2123 -0.6796
18422SOL     OW62380   6.715  11.410  11.372  0.4943  0.3414 -0.0496
18422SOL    HW162381   6.654  11.459  11.318  1.1324  2.0661  0.7254
18422SOL    HW262382   6.739  11.334  11.318 -0.4469  0.9182 -1.3266
18423SOL     OW62383   7.678   8.975   4.643  0.8569 -0.5674 -0.1324
18423SOL    HW162384   7.648   9.040   4.579  0.0926 -1.0452 -0.2780
18423SOL    HW262385   7.770   8.995   4.657  1.5932 -1.6354 -2.8353
18424SOL     OW62386  11.781   2.540   8.556 -0.6585  0.4081 -0.4761
18424SOL    HW162387  11.871   2.524   8.586 -0.7321 -1.1082 -1.0114
18424SOL    HW262388  11.789   2.542   8.460 -1.4627 -1.6029 -0.6163
18425SOL     OW62389   6.449   4.371   4.028 -0.3390  0.1316 -0.3724
18425SOL    HW162390   6.438   4.281   4.000 -0.4929  0.2499 -0.7001
18425SOL    HW262391   6.392   4.381   4.105 -0.8708  0.1497 -0.7668
18426SOL     OW62392   5.366  12.862  12.652  0.4595  0.3233 -0.6572
18426SOL    HW162393   5.309  12.883  12.578  1.3184 -0.1726 -1.4900
18426SOL    HW262394   5.310  12.868  12.729  0.0462  3.1082 -1.0754
18427SOL     OW62395   0.667   7.991  12.123  0.5612 -0.4105  0.4769
18427SOL    HW162396   0.708   7.952  12.046  0.7611 -2.8675  1.7598
18427SOL    HW262397   0.574   7.973  12.112  0.3140  1.0550 -0.1332
18428SOL     OW62398   7.024   3.529   3.928  0.7596  0.0324  0.3533
18428SOL    HW162399   7.047   3.554   4.018  1.7617  0.7765 -0.0885
18428SOL    HW262400   6.931   3.550   3.920  0.6438 -0.0933  1.2276
18429SOL     OW62401   3.171   0.195   2.982  0.0386 -0.2039 -0.0484
18429SOL    HW162402   3.124   0.112   2.978 -0.2987  0.0400 -1.7183
18429SOL    HW262403   3.262   0.172   2.965 -0.1202 -0.2014 -0.9571
18430SOL     OW62404   8.757   3.786   0.146  0.5953  0.2996  1.0647
18430SOL    HW162405   8.671   3.755   0.174 -0.5735 -1.0444 -3.2288
18430SOL    HW262406   8.743   3.879   0.128  0.1203  0.1687  0.7340
18431SOL     OW62407   3.117   8.535   4.927 -0.1556  0.1610 -0.1295
18431SOL    HW162408   3.138   8.487   5.007  0.4686  0.3189 -0.1901
18431SOL    HW262409   3.183   8.506   4.864 -1.0879 -0.5240 -0.8189
18432SOL     OW62410   3.328   3.898  11.617 -0.2967 -0.3579 -0.2472
18432SOL    HW162411   3.419   3.875  11.598 -0.7123 -0.8015 -1.9312
18432SOL    HW262412   3.323   3.992  11.600 -0.3808 -0.5353 -1.3027
18433SOL     OW62413  11.835   1.832   9.486 -0.0617 -0.5420  0.3919
18433SOL    HW162414  11.785   1.755   9.458  1.3919 -1.7238  0.8905
18433SOL    HW262415  11.871   1.868   9.405 -2.2067  0.7587 -0.0676
18434SOL     OW62416   9.672   6.300  12.624  0.2234 -0.2918 -0.1241
18434SOL    HW162417   9.676   6.205  12.617  0.1867 -0.2877 -0.2153
18434SOL    HW262418   9.709   6.321  12.709  1.7534 -0.2821 -0.7602
18435SOL     OW62419  10.827   0.655  12.529 -0.4896  0.5037 -0.2638
18435SOL    HW162420  10.921   0.662  12.545 -0.5198 -0.7355  0.6473
18435SOL    HW262421  10.810   0.561  12.527 -1.9424  0.6678  1.2397
18436SOL     OW62422  12.309   5.281   5.330  0.0793  0.7741  0.3047
18436SOL    HW162423  12.395   5.255   5.363  0.6605  1.3479 -0.7291
18436SOL    HW262424  12.291   5.364   5.374  0.2499  0.8657  0.2045
18437SOL     OW62425   8.878   1.102  12.190  0.3066  0.6719  0.7085
18437SOL    HW162426   8.964   1.144  12.191  0.0709  1.1760  2.1846
18437SOL    HW262427   8.835   1.133  12.270  0.0731 -2.2946  1.8842
18438SOL     OW62428   2.636  10.294   1.759 -0.0488  0.0140 -0.0029
18438SOL    HW162429   2.709  10.242   1.725  0.4861  1.1411 -0.6210
18438SOL    HW262430   2.567  10.284   1.693 -0.0619 -0.1611  0.0365
18439SOL     OW62431  10.147  11.968   5.860 -0.0086  0.4124 -0.2031
18439SOL    HW162432  10.109  11.939   5.777 -0.5222 -0.2699  0.2554
18439SOL    HW262433  10.098  11.920   5.927  0.2945  1.0691  0.5041
18440SOL     OW62434   1.611   6.132   4.542  0.4966  0.3797 -0.3431
18440SOL    HW162435   1.638   6.217   4.508 -3.0731  2.0446  0.5782
18440SOL    HW262436   1.577   6.150   4.630 -0.8028 -1.9111 -0.2916
18441SOL     OW62437   7.397  10.042   5.524 -0.2207 -0.0387  0.2492
18441SOL    HW162438   7.361  10.124   5.557 -1.2411  0.2459 -1.4555
18441SOL    HW262439   7.378  10.043   5.431 -1.5101 -2.8295  0.3717
18442SOL     OW62440   0.075   4.331   8.605 -0.1635 -0.1912 -0.0501
18442SOL    HW162441   0.057   4.417   8.567 -1.1061 -0.5486 -0.4415
18442SOL    HW262442   0.078   4.272   8.530 -1.3199 -0.7868  0.3568
18443SOL     OW62443  12.409   9.347  11.551  0.1595 -0.0765  0.5648
18443SOL    HW162444  12.339   9.282  11.545 -0.4160  0.4325  1.4970
18443SOL    HW262445  12.439   9.342  11.642 -1.1565  2.1933  1.2195
18444SOL     OW62446  12.074  12.772   2.478 -0.3750 -0.8874  0.6715
18444SOL    HW162447  12.132  12.813   2.414 -0.6697 -0.8779  0.4108
18444SOL    HW262448  11.991  12.818   2.468 -1.4467 -3.0547 -1.2471
18445SOL     OW62449   2.357   8.024   8.013  0.2604  0.4230 -0.1566
18445SOL    HW162450   2.330   7.982   7.931 -0.1524  3.3541 -1.6759
18445SOL    HW262451   2.319   7.971   8.082 -0.4388 -1.4543 -1.9057
18446SOL     OW62452   0.877   3.483   8.937 -0.0793  0.5134 -0.2349
18446SOL    HW162453   0.795   3.528   8.960  0.0310  1.1497 -1.0658
18446SOL    HW262454   0.934   3.500   9.012 -0.9206 -0.5145  0.6678
18447SOL     OW62455   6.171  11.414  11.932  0.0001 -0.2330  0.2823
18447SOL    HW162456   6.154  11.459  11.849 -0.0079  0.7605  0.8109
18447SOL    HW262457   6.089  11.367  11.950 -0.0538 -0.3315 -0.1931
18448SOL     OW62458   5.408  11.014   4.976 -0.0488  0.2394 -0.0502
18448SOL    HW162459   5.364  11.074   5.036 -0.4243  1.3709 -1.4084
18448SOL    HW262460   5.494  10.999   5.015  0.7418  3.0740 -0.4905
18449SOL     OW62461  11.849   0.197  10.456  0.5087  0.1728  0.2772
18449SOL    HW162462  11.897   0.135  10.511 -2.5767 -0.8883  2.0048
18449SOL    HW262463  11.830   0.271  10.514  2.2307  1.8541 -1.1480
18450SOL     OW62464   4.917   6.898   0.628  0.3683 -0.9385  0.2379
18450SOL    HW162465   4.910   6.920   0.721  0.0403 -0.1612  0.0354
18450SOL    HW262466   5.009   6.877   0.615  1.1814  2.3083  0.0227
18451SOL     OW62467   7.312   7.819   3.499  0.0304  0.4561  0.3129
18451SOL    HW162468   7.218   7.801   3.497 -0.5125  3.0043  0.5003
18451SOL    HW262469   7.338   7.802   3.589 -0.3041  0.0613  0.3395
18452SOL     OW62470   2.148   9.407   3.043 -0.1469  0.5762  0.6847
18452SOL    HW162471   2.128   9.358   2.963  0.2336  2.4148 -0.6054
18452SOL    HW262472   2.063   9.441   3.072 -0.2280  0.2501  0.8327
18453SOL     OW62473   7.364   9.150  12.357  0.4644 -0.0464  0.8035
18453SOL    HW162474   7.406   9.094  12.423  0.8302 -0.9855 -0.1857
18453SOL    HW262475   7.272   9.150  12.381  0.6016 -0.2998  1.3595
18454SOL     OW62476   6.238   6.566   0.209  0.2942  0.3121 -0.0280
18454SOL    HW162477   6.147   6.592   0.223  0.4081  0.9590 -0.4524
18454SOL    HW262478   6.238   6.524   0.123  0.1775 -0.8076  0.5003
18455SOL     OW62479  12.461   1.961   9.632 -0.8607  0.0761  0.2866
18455SOL    HW162480  12.492   1.893   9.691  1.9305 -0.1963 -1.3325
18455SOL    HW262481  12.462   1.920   9.546  2.6144  2.4627 -1.0196
18456SOL     OW62482   4.791   7.009   5.410 -0.1685  0.4779 -0.5569
18456SOL    HW162483   4.704   7.043   5.389 -0.3237  0.1018 -0.5255
18456SOL    HW262484   4.796   6.924   5.365 -1.3286 -1.4109  2.5810
18457SOL     OW62485  11.993  10.157  10.634 -0.3117  0.4418  0.5864
18457SOL    HW162486  12.030  10.138  10.548 -1.0986  0.0638  0.3227
18457SOL    HW262487  12.008  10.078  10.685  0.8305  0.9305  1.0564
18458SOL     OW62488   6.711  11.648   9.914  0.3632  0.2659  0.2968
18458SOL    HW162489   6.680  11.558   9.907  2.4228 -0.6371  1.7505
18458SOL    HW262490   6.802  11.644   9.884  0.4692  1.9057  0.2922
18459SOL     OW62491   7.056   0.036   8.460 -0.0437  0.1358  0.3174
18459SOL    HW162492   7.097   0.026   8.546  0.1852  0.0706  0.2028
18459SOL    HW262493   7.055   0.130   8.444  0.7596  0.0956 -0.0087
18460SOL     OW62494   9.651  11.727   1.736 -0.4157 -0.2728 -0.3136
18460SOL    HW162495   9.730  11.694   1.778 -0.8024 -0.4807  0.2653
18460SOL    HW262496   9.659  11.701   1.644  0.7181  0.6880 -0.5115
18461SOL     OW62497   0.794  11.581   7.208 -0.6576 -0.4048 -0.1810
18461SOL    HW162498   0.737  11.538   7.272 -1.7065  1.0206 -0.1210
18461SOL    HW262499   0.766  11.545   7.124  1.0569 -2.6581  0.1221
18462SOL     OW62500   1.090   6.968   9.058  0.6285  0.1758  0.6503
18462SOL    HW162501   1.078   6.877   9.031  2.9474 -0.6474  2.1503
18462SOL    HW262502   1.063   6.970   9.149  3.3654  0.1813  1.5591
18463SOL     OW62503  12.679   7.037   3.360  0.4421 -0.9224 -0.0633
18463SOL    HW162504  12.772   7.060   3.356  0.8068 -2.1161  1.1826
18463SOL    HW262505  12.664   6.983   3.282  0.3784  0.5943 -1.1471
18464SOL     OW62506   4.173  11.263   8.668  0.3926  0.3252 -0.5418
18464SOL    HW162507   4.108  11.221   8.725  0.0045  0.0274 -1.1886
18464SOL    HW262508   4.231  11.192   8.641  0.7633  0.5231 -0.2657
18465SOL     OW62509   2.741   1.890   6.666  0.1701 -0.1078  0.2166
18465SOL    HW162510   2.736   1.950   6.740 -0.8605 -0.8566  0.7797
18465SOL    HW262511   2.656   1.897   6.623  0.9944  0.8552 -1.3661
18466SOL     OW62512  11.684  10.895   5.838 -0.0680 -0.2662  0.0668
18466SOL    HW162513  11.773  10.860   5.839  0.0334 -0.0070  0.5556
18466SOL    HW262514  11.656  10.889   5.747  0.9652  0.9450 -0.3574
18467SOL     OW62515   9.901  12.884   6.654 -0.4246  0.0586 -0.0069
18467SOL    HW162516   9.810  12.895   6.682 -1.0423  0.8122 -2.1044
18467SOL    HW262517   9.948  12.955   6.698 -1.0784  0.3500  0.2398
18468SOL     OW62518   0.116   0.658   5.028  0.3660  0.1850 -0.1694
18468SOL    HW162519   0.030   0.625   5.001 -0.0204  0.4243  0.7141
18468SOL    HW262520   0.119   0.748   4.995  0.2944  0.1625 -0.2381
18469SOL     OW62521   2.734   1.440  10.962  0.4285 -0.4171  0.5744
18469SOL    HW162522   2.757   1.408  11.049  1.2500 -1.9371 -0.1625
18469SOL    HW262523   2.731   1.362  10.907  1.6757  0.6639 -1.1503
18470SOL     OW62524  12.362   3.238   6.836  0.1739  0.4361  0.5226
18470SOL    HW162525  12.455   3.264   6.829  0.2266  1.1770  3.0814
18470SOL    HW262526  12.314   3.314   6.802  0.4115 -0.8122 -3.0226
18471SOL     OW62527   8.925   7.434   4.917 -0.1994 -0.0372  0.3221
18471SOL    HW162528   8.860   7.366   4.939 -0.4779  0.4865  1.1716
18471SOL    HW262529   8.874   7.514   4.909 -0.3024 -0.3283 -3.5140
18472SOL     OW62530  12.643   5.535   1.079  0.4289 -0.0350 -0.4908
18472SOL    HW162531  12.667   5.617   1.123  1.9705 -1.4353  1.4602
18472SOL    HW262532  12.703   5.470   1.114 -2.5261 -2.6436  0.1913
18473SOL     OW62533   0.692   8.599  12.046 -0.5987  0.7996  0.5502
18473SOL    HW162534   0.736   8.684  12.035  1.6545 -0.2778  0.6025
18473SOL    HW262535   0.745   8.552  12.110 -1.6960 -0.7147  0.4111
18474SOL     OW62536   1.434   8.004   3.973 -0.8040 -0.1541  0.5069
18474SOL    HW162537   1.357   7.948   3.978 -0.7140 -0.1792  1.8332
18474SOL    HW262538   1.399   8.093   3.977 -0.7919 -0.1609  0.7912
18475SOL     OW62539  11.775  10.154   1.250 -0.3179 -0.1441 -0.5803
18475SOL    HW162540  11.700  10.102   1.279  1.2903 -3.4426 -1.8763
18475SOL    HW262541  11.843  10.090   1.231  2.6426  2.6334 -0.2058
18476SOL     OW62542   8.012   7.961   2.897 -0.7812  0.5639 -0.1312
18476SOL    HW162543   8.016   7.967   2.802 -2.2300  3.0948 -0.1069
18476SOL    HW262544   8.081   7.898   2.920  0.1284  0.4887 -2.7622
18477SOL     OW62545   3.101   9.123  11.968 -0.2000 -0.4593 -0.5660
18477SOL    HW162546   3.135   9.184  11.902 -1.3288  1.3453  0.4320
18477SOL    HW262547   3.133   9.037  11.940 -0.6463  0.2050 -3.4918
18478SOL     OW62548   2.660   2.841  12.142  0.4060  0.3048  0.1705
18478SOL    HW162549   2.695   2.872  12.225  0.8980  0.4077 -0.0685
18478SOL    HW262550   2.566   2.857  12.147  0.4718  0.5566  0.5975
18479SOL     OW62551   3.791   6.893   5.388  0.0846  0.2231 -0.4459
18479SOL    HW162552   3.744   6.972   5.361 -0.5819 -0.1230 -0.3241
18479SOL    HW262553   3.876   6.899   5.344  0.7488  1.8641  0.8993
18480SOL     OW62554  11.278   9.728   9.292 -0.0493 -0.2982  0.0772
18480SOL    HW162555  11.202   9.718   9.350 -1.9006  2.5948 -1.5503
18480SOL    HW262556  11.256   9.676   9.214 -0.3054  0.3544 -0.2982
18481SOL     OW62557   8.491  11.224   5.516  0.4873  0.0012 -0.4618
18481SOL    HW162558   8.461  11.299   5.566 -2.6621 -1.4270 -0.0279
18481SOL    HW262559   8.526  11.164   5.581  0.2798 -0.1378 -0.4808
18482SOL     OW62560   2.522  10.461   4.112  0.0948  0.1166  0.3180
18482SOL    HW162561   2.522  10.555   4.093 -0.3519  0.1752  0.6025
18482SOL    HW262562   2.432  10.434   4.098 -0.2145  0.1260  2.1471
18483SOL     OW62563   5.478   0.675   3.400 -0.7398  0.1363  0.2973
18483SOL    HW162564   5.556   0.656   3.453 -1.2831 -0.6341  0.8564
18483SOL    HW262565   5.513   0.703   3.316  0.1831 -1.9195 -0.0882
18484SOL     OW62566   9.818   4.345   8.763  0.1194  0.8115  0.7211
18484SOL    HW162567   9.872   4.330   8.685  1.0575 -0.7839  1.6266
18484SOL    HW262568   9.863   4.298   8.833 -2.3549 -0.4904  1.5566
18485SOL     OW62569   2.809   9.336   7.009 -0.3598  0.1294  0.1730
18485SOL    HW162570   2.820   9.288   7.091  0.5074  0.1725  0.0899
18485SOL    HW262571   2.748   9.283   6.958  0.8655 -1.1080 -0.0759
18486SOL     OW62572   6.816  10.593   4.216 -0.2433  0.1353  0.1267
18486SOL    HW162573   6.854  10.505   4.219 -1.7952 -0.5745  2.6151
18486SOL    HW262574   6.890  10.652   4.224  0.8343 -0.9120 -1.5623
18487SOL     OW62575   8.498   8.473   2.460 -0.2927  0.6029  0.0950
18487SOL    HW162576   8.580   8.492   2.505 -1.4957  3.0208  1.5279
18487SOL    HW262577   8.509   8.509   2.373  1.1399 -1.7886 -0.8151
18488SOL     OW62578  12.493  11.232   6.451 -0.1964 -0.1086 -0.0991
18488SOL    HW162579  12.584  11.216   6.425 -0.2307 -0.0635 -0.2509
18488SOL    HW262580  12.486  11.197   6.540  0.0843  0.2798  0.0768
18489SOL     OW62581   3.513   8.289  10.893 -0.1866  0.4785 -0.6715
18489SOL    HW162582   3.516   8.279  10.988  0.9401  1.9147 -0.5376
18489SOL    HW262583   3.420   8.301  10.873 -0.2300  2.5300  0.5337
18490SOL     OW62584   9.250   0.256  10.056 -0.4311 -0.1105  0.5845
18490SOL    HW162585   9.198   0.252   9.975  0.2410  0.2691  0.1219
18490SOL    HW262586   9.256   0.165  10.085  2.8193 -0.9747 -2.0890
18491SOL     OW62587  12.363   4.435  11.566  0.5320  0.5016  0.4288
18491SOL    HW162588  12.449   4.392  11.566  0.5275  0.4403  2.1457
18491SOL    HW262589  12.367   4.497  11.493  1.2580 -0.9780 -0.8585
18492SOL     OW62590  11.397   0.102   3.308 -0.1410 -0.2684 -0.4144
18492SOL    HW162591  11.371   0.075   3.220  0.7835 -1.9279 -0.2315
18492SOL    HW262592  11.349   0.043   3.366  0.7294 -0.4942  0.0954
18493SOL     OW62593   0.144   8.542   4.465  0.1494  0.8354  0.6673
18493SOL    HW162594   0.197   8.526   4.543  0.4484  0.4022  0.3809
18493SOL    HW262595   0.054   8.546   4.497  0.0298 -1.4614  0.7838
18494SOL     OW62596   0.933  10.423   4.567  0.0221 -0.2180  0.1585
18494SOL    HW162597   0.985  10.421   4.487  1.4482 -0.5564  1.0509
18494SOL    HW262598   0.933  10.515   4.593  0.4601 -0.2667  0.3330
18495SOL     OW62599   1.021   4.421   2.479  0.5405  0.4686 -0.4378
18495SOL    HW162600   1.104   4.381   2.504  0.7445  1.2121  0.1181
18495SOL    HW262601   1.036   4.515   2.489 -1.3855  0.5486  2.9736
18496SOL     OW62602  12.121   1.639   8.623  0.0858  0.7331  0.0565
18496SOL    HW162603  12.213   1.649   8.597  0.4231  0.5778  1.1560
18496SOL    HW262604  12.075   1.625   8.540  1.2813 -0.8459 -0.4013
18497SOL     OW62605   6.126   1.965   1.726 -0.2481 -0.5860 -0.2996
18497SOL    HW162606   6.103   1.904   1.655 -1.1755 -0.2747 -0.2856
18497SOL    HW262607   6.047   1.969   1.780  1.3315 -3.1154  2.5191
18498SOL     OW62608   2.373  12.572   1.190  0.6376 -0.4478  0.4188
18498SOL    HW162609   2.433  12.505   1.223  0.7137  0.2600  1.8112
18498SOL    HW262610   2.315  12.525   1.130  1.4940 -1.4930  0.3743
18499SOL     OW62611   7.990  11.476   9.011 -1.5054 -0.1034  0.2699
18499SOL    HW162612   7.954  11.475   8.923  0.8875  0.0146 -0.7962
18499SOL    HW262613   8.043  11.397   9.016 -0.1557  0.7983  0.9033
18500SOL     OW62614  10.763   9.118   1.517 -0.0300 -0.0677 -0.2418
18500SOL    HW162615  10.724   9.136   1.432  2.2661 -1.8241 -1.7558
18500SOL    HW262616  10.768   9.204   1.559 -1.5275  0.7890 -1.7031
18501SOL     OW62617   5.321   3.110  11.071  0.3313 -0.1911  0.0669
18501SOL    HW162618   5.356   3.078  11.154 -0.9275  2.9753  2.0016
18501SOL    HW262619   5.361   3.053  11.004  0.9579 -3.2515  2.7939
18502SOL     OW62620   6.193   8.844  11.536  0.1406 -0.4999 -0.4769
18502SOL    HW162621   6.157   8.790  11.606  0.4406  0.8064  0.7286
18502SOL    HW262622   6.173   8.796  11.456  0.3498 -2.3509  0.5311
18503SOL     OW62623   6.793   6.340   6.404 -0.3117 -0.4745  0.3145
18503SOL    HW162624   6.726   6.274   6.420  0.5474 -1.4308  0.0385
18503SOL    HW262625   6.779   6.368   6.314 -0.7926 -0.1372  0.4918
18504SOL     OW62626  10.990   6.080   5.407 -0.5029 -0.3482 -0.1739
18504SOL    HW162627  11.060   6.102   5.345 -0.7968  0.3170 -0.2828
18504SOL    HW262628  10.955   5.997   5.375  0.8710 -1.1890  0.4475
18505SOL     OW62629   2.987   7.860   2.132  0.1199  0.5782  0.7832
18505SOL    HW162630   3.019   7.852   2.042 -1.1451 -0.0955  0.3804
18505SOL    HW262631   2.984   7.954   2.147 -2.5671  0.8843 -1.0005
18506SOL     OW62632   6.310   2.791   8.997 -0.0049 -0.2455 -0.1783
18506SOL    HW162633   6.404   2.798   8.978 -0.3645 -0.1788 -2.0364
18506SOL    HW262634   6.280   2.881   9.004 -0.3996 -0.1858 -2.1777
18507SOL     OW62635  11.035  11.405   5.386 -0.0280 -0.7432  0.5081
18507SOL    HW162636  11.034  11.310   5.380 -0.2414 -0.6646 -1.4600
18507SOL    HW262637  11.127  11.427   5.402 -0.0035 -1.2601  1.1313
18508SOL     OW62638   6.125   0.286   4.468 -0.6151 -0.1974  0.2668
18508SOL    HW162639   6.151   0.370   4.504 -0.6740  0.8973 -2.0164
18508SOL    HW262640   6.201   0.256   4.419 -0.5827 -1.5260  1.0878
18509SOL     OW62641   4.639  10.862  10.610 -0.4023 -0.0332 -0.2079
18509SOL    HW162642   4.654  10.773  10.577 -0.3624  0.6004 -2.0081
18509SOL    HW262643   4.669  10.919  10.539 -1.3080  1.4141  0.5297
18510SOL     OW62644   5.351   0.997  12.185 -0.2043 -0.2353  0.3278
18510SOL    HW162645   5.356   0.954  12.270 -0.1116  0.5551  0.7319
18510SOL    HW262646   5.442   1.005  12.156 -0.2317 -0.4524  0.1838
18511SOL     OW62647   9.775   2.197   8.308  0.1426  0.1054  0.0364
18511SOL    HW162648   9.748   2.259   8.241 -0.4340 -0.5729 -0.3698
18511SOL    HW262649   9.867   2.180   8.291 -0.1286 -0.4568 -0.9083
18512SOL     OW62650   1.130   4.534   2.193 -0.5783  0.0530 -1.0818
18512SOL    HW162651   1.102   4.623   2.171  0.6374 -0.0913 -3.4007
18512SOL    HW262652   1.049   4.483   2.191 -1.8070  1.4130  2.9321
18513SOL     OW62653   6.011   6.010   6.145 -0.0050  0.1761  0.6896
18513SOL    HW162654   6.050   6.035   6.228  0.6653 -1.3065  0.8561
18513SOL    HW262655   6.080   6.025   6.080  0.7087 -1.8797  0.9031
18514SOL     OW62656   8.836   0.909   9.050 -0.0305 -0.0673 -0.0709
18514SOL    HW162657   8.817   0.999   9.026  0.5377 -0.0266 -0.3828
18514SOL    HW262658   8.769   0.857   9.006 -0.2356  0.1866 -0.0564
18515SOL     OW62659  11.508   2.299   7.073  0.0561  0.1926 -0.6416
18515SOL    HW162660  11.582   2.350   7.105  0.0354  1.7628 -2.8605
18515SOL    HW262661  11.446   2.299   7.146  1.1606  1.0926  0.3354
18516SOL     OW62662   9.302   1.554   6.185  0.6746  0.1940 -0.5421
18516SOL    HW162663   9.241   1.480   6.186 -2.1471  2.3552 -0.4907
18516SOL    HW262664   9.308   1.579   6.093  2.2148 -0.4965 -0.6548
18517SOL     OW62665   5.041  10.628  10.625 -0.0068 -0.4366 -0.1745
18517SOL    HW162666   5.060  10.722  10.627  3.5015 -1.0380  0.3211
18517SOL    HW262667   5.038  10.607  10.531 -1.6160  0.2389 -0.3094
18518SOL     OW62668   9.339   9.659  11.854 -0.1173  0.1495 -0.8184
18518SOL    HW162669   9.402   9.587  11.851 -1.0029 -0.6318 -1.1657
18518SOL    HW262670   9.353   9.706  11.772 -0.4664 -0.4638 -1.2466
18519SOL     OW62671   0.762   8.474  12.336  0.2743  0.4452 -0.0642
18519SOL    HW162672   0.852   8.458  12.364  0.2029  0.8942  0.4548
18519SOL    HW262673   0.737   8.554  12.382 -0.0370  0.9108 -1.0249
18520SOL     OW62674   2.182   9.918   8.452 -0.1294  0.3363 -0.2468
18520SOL    HW162675   2.278   9.919   8.448 -0.0355 -2.5626 -1.8596
18520SOL    HW262676   2.161   9.843   8.507 -1.5228  1.3292  0.6486
18521SOL     OW62677   6.272   0.201   4.991 -0.0495  0.2506  0.0655
18521SOL    HW162678   6.238   0.221   4.904 -1.6211 -0.6553  0.4325
18521SOL    HW262679   6.241   0.273   5.046 -1.8536 -0.8177  0.4961
18522SOL     OW62680   0.990   4.189   3.955 -0.3139 -0.3029  0.5579
18522SOL    HW162681   1.057   4.183   3.887 -2.0249 -1.6810 -1.1213
18522SOL    HW262682   0.968   4.282   3.960  0.2566 -0.1138 -0.3428
18523SOL     OW62683   4.511   2.480   6.867 -0.1291  0.0869 -0.1564
18523SOL    HW162684   4.554   2.476   6.782  0.3334  0.3965  0.0524
18523SOL    HW262685   4.461   2.561   6.865  0.3401  0.3867  0.0701
18524SOL     OW62686   4.226  11.302   2.659  0.0631 -0.5716 -0.2526
18524SOL    HW162687   4.228  11.397   2.670 -0.3205 -0.3658 -1.7173
18524SOL    HW262688   4.202  11.290   2.567 -2.6855 -2.0913  0.5508
18525SOL     OW62689   6.202   9.547   2.498 -0.6549  0.3701  0.5379
18525SOL    HW162690   6.293   9.519   2.488 -0.7022  0.1480  0.7325
18525SOL    HW262691   6.178   9.520   2.587 -1.5799 -1.4927 -0.2332
18526SOL     OW62692   2.527  10.900  10.736 -0.0651 -0.2302 -0.2016
18526SOL    HW162693   2.500  10.991  10.728 -1.1342 -0.4675  0.4695
18526SOL    HW262694   2.512  10.862  10.649  1.5913  0.5208 -0.8428
18527SOL     OW62695   2.412   8.863   6.971 -0.1099 -0.4206  0.0138
18527SOL    HW162696   2.496   8.823   6.993 -0.0940  0.4079  1.6499
18527SOL    HW262697   2.393   8.833   6.882  0.9303 -2.2531  0.3591
18528SOL     OW62698   7.878  10.132   4.758 -0.0755  0.2011 -0.3815
18528SOL    HW162699   7.880  10.223   4.788 -1.7157 -0.6415  2.6810
18528SOL    HW262700   7.969  10.110   4.743  0.3113  2.5125 -1.9200
18529SOL     OW62701   9.253   0.266   9.522 -0.4332  0.2011  0.1215
18529SOL    HW162702   9.158   0.257   9.521 -0.5035  0.2097  2.2722
18529SOL    HW262703   9.286   0.181   9.493 -1.1150 -0.4657  1.2337
18530SOL     OW62704   2.389   8.701   6.139  0.5652  0.3313 -0.1213
18530SOL    HW162705   2.325   8.651   6.189  3.3587 -0.2668  3.3063
18530SOL    HW262706   2.352   8.789   6.133 -0.6899 -0.0373  1.4925
18531SOL     OW62707  12.321   7.919   5.630  0.2839  0.1532 -0.6098
18531SOL    HW162708  12.350   7.945   5.542  0.8050  1.3353 -0.1163
18531SOL    HW262709  12.387   7.956   5.688  0.0816 -0.8406  0.2702
18532SOL     OW62710   0.430   6.230   8.257 -1.0952  0.2427  0.1075
18532SOL    HW162711   0.496   6.189   8.313 -0.6709 -0.0904 -0.6123
18532SOL    HW262712   0.469   6.313   8.230 -2.3751  1.6690  2.3944
18533SOL     OW62713   5.763  11.278   7.964 -0.0411 -0.6188 -0.4662
18533SOL    HW162714   5.688  11.335   7.945 -1.2682 -1.8455  0.5875
18533SOL    HW262715   5.833  11.339   7.988 -0.2794  0.6261 -2.6401
18534SOL     OW62716   3.734   0.723   3.433 -1.1533  0.4621 -0.0324
18534SOL    HW162717   3.680   0.697   3.508 -0.7604 -1.0652 -0.2340
18534SOL    HW262718   3.671   0.746   3.365 -1.6784 -2.5487 -0.7025
18535SOL     OW62719   3.871   3.378   2.354  0.3720  1.0572 -0.1510
18535SOL    HW162720   3.841   3.334   2.274  0.7292 -0.5238  0.5525
18535SOL    HW262721   3.793   3.425   2.386 -0.7740 -1.0477  0.3577
18536SOL     OW62722   7.293  10.451  10.481  0.5590 -0.3144  0.4423
18536SOL    HW162723   7.246  10.426  10.401  1.1462 -2.5026  0.7053
18536SOL    HW262724   7.226  10.449  10.549  0.3642  0.0156  0.2645
18537SOL     OW62725  11.231   5.610   7.148  0.2888 -0.1551  0.4115
18537SOL    HW162726  11.148   5.649   7.176  0.9775  0.2824  1.9439
18537SOL    HW262727  11.207   5.554   7.074 -1.2130  0.7078  0.1960
18538SOL     OW62728   7.255   3.880   3.945 -0.4048  0.8333  0.5565
18538SOL    HW162729   7.287   3.944   3.882  0.4090 -0.1258 -0.0350
18538SOL    HW262730   7.273   3.795   3.905 -1.7830  0.2146  1.1497
18539SOL     OW62731  12.859   5.946   5.741 -0.7056  0.5417  1.2095
18539SOL    HW162732  12.817   6.012   5.686 -0.1447 -0.9961 -1.2220
18539SOL    HW262733  12.950   5.976   5.749 -0.2642 -0.2054 -0.5012
18540SOL     OW62734  10.173   0.695  12.417  0.2502 -0.3509 -0.0784
18540SOL    HW162735  10.214   0.615  12.450  0.3495 -0.0195  0.6075
18540SOL    HW262736  10.185   0.690  12.322  2.8462  0.2419  0.1473
18541SOL     OW62737  10.144   5.757  11.951  0.0476 -0.6646 -0.3626
18541SOL    HW162738  10.187   5.842  11.950 -1.2886  0.0653  0.5353
18541SOL    HW262739  10.213   5.695  11.974  1.4425 -0.1238 -2.7778
18542SOL     OW62740   4.695  12.544   3.929  0.1945  0.6301  0.2249
18542SOL    HW162741   4.790  12.551   3.940  0.0573 -0.1328  2.2480
18542SOL    HW262742   4.678  12.450   3.933 -0.7863  0.8349  1.5051
18543SOL     OW62743   6.185  12.545  12.450  0.0883  0.5882 -0.1992
18543SOL    HW162744   6.186  12.553  12.546 -0.3493  0.3379 -0.1705
18543SOL    HW262745   6.198  12.634  12.419  0.2615  0.6684  0.0970
18544SOL     OW62746  10.231   9.473   7.552  0.3521 -0.1292  0.4030
18544SOL    HW162747  10.325   9.473   7.569  0.2437 -1.1661  1.0815
18544SOL    HW262748  10.200   9.388   7.583 -1.3342  1.3413  3.1651
18545SOL     OW62749  11.020   2.849   5.314  0.1940  0.4922  0.0876
18545SOL    HW162750  10.977   2.847   5.400  3.4158  1.5622  1.9476
18545SOL    HW262751  10.992   2.932   5.275 -0.9013  0.2595  0.3644
18546SOL     OW62752   2.044  11.201   1.777  0.0406 -0.0730 -0.1960
18546SOL    HW162753   2.071  11.292   1.777  0.2931 -0.1346 -1.3299
18546SOL    HW262754   2.083  11.164   1.698  0.0038 -1.1829  0.2822
18547SOL     OW62755  11.351   2.412   4.058  0.0603  0.4510  0.3564
18547SOL    HW162756  11.348   2.317   4.068 -0.1185  0.3811 -0.3436
18547SOL    HW262757  11.427   2.429   4.002  1.9770  0.9502  2.9292
18548SOL     OW62758   7.535  10.419  11.326  0.0016 -0.3145 -0.1415
18548SOL    HW162759   7.460  10.406  11.384 -0.9525  2.4741 -0.5662
18548SOL    HW262760   7.496  10.451  11.245  1.6240  1.4686 -0.2742
18549SOL     OW62761  11.337   1.363   5.499  0.4423  0.2177 -0.4593
18549SOL    HW162762  11.330   1.304   5.424 -0.3765 -0.2274 -0.0390
18549SOL    HW262763  11.310   1.449   5.464  2.1504  0.4847 -1.2028
18550SOL     OW62764  11.139   5.330   2.118 -0.2901 -0.4676 -0.0315
18550SOL    HW162765  11.186   5.277   2.055 -0.8390 -0.5284 -0.4002
18550SOL    HW262766  11.175   5.305   2.203  0.8912  0.0578 -0.3541
18551SOL     OW62767   2.043   4.900   7.442  0.4836  0.1203  0.2031
18551SOL    HW162768   2.048   4.807   7.465 -0.7884  0.1201  0.5657
18551SOL    HW262769   1.966   4.907   7.386  0.4841  0.9778  0.2975
18552SOL     OW62770   9.222   0.493  10.410  0.2108  0.2574 -0.2895
18552SOL    HW162771   9.284   0.556  10.449  1.6366 -1.7738  0.9370
18552SOL    HW262772   9.272   0.451  10.340  0.2197 -1.3023  0.6102
18553SOL     OW62773   3.691   2.835   2.986  0.0602  0.0456 -0.0393
18553SOL    HW162774   3.759   2.813   3.049  0.7107  0.7602 -0.4813
18553SOL    HW262775   3.737   2.878   2.914 -0.7204 -0.3843 -0.8242
18554SOL     OW62776   3.668   2.010  10.914  0.5981 -0.6689  0.2067
18554SOL    HW162777   3.686   1.995  11.007  0.8217  0.3169  0.3399
18554SOL    HW262778   3.751   2.042  10.878 -0.4352  3.0438  0.6312
18555SOL     OW62779   9.396   2.356   5.280  0.1789 -0.3932  0.1153
18555SOL    HW162780   9.380   2.416   5.352 -1.9832 -1.8969  1.0178
18555SOL    HW262781   9.404   2.270   5.321 -0.4473 -1.2054 -1.3518
18556SOL     OW62782  12.918   8.252   8.712  0.2108  0.0243  0.5318
18556SOL    HW162783  12.918   8.248   8.808 -2.3664  0.8924  0.6589
18556SOL    HW262784  12.951   8.339   8.691  0.6785 -0.1289  0.6333
18557SOL     OW62785   6.629   8.071  12.766  0.2604 -0.5017  0.0740
18557SOL    HW162786   6.665   8.126  12.835  1.7020  0.2550 -1.2118
18557SOL    HW262787   6.534   8.084  12.772  0.5075  1.6697  0.2229
18558SOL     OW62788  10.651  11.374   3.624 -0.0833  0.3302  0.4135
18558SOL    HW162789  10.732  11.328   3.601  0.4465  0.4028  1.9887
18558SOL    HW262790  10.610  11.318   3.690 -1.1112  0.5127 -0.0535
18559SOL     OW62791   8.369   0.995   3.909  0.4051 -0.1723  0.0914
18559SOL    HW162792   8.424   0.919   3.893 -0.0420 -0.5371  0.2824
18559SOL    HW262793   8.334   0.982   3.997  0.7989  0.5476  0.3668
18560SOL     OW62794   2.130   0.187  11.829 -0.3405 -0.1889 -0.1951
18560SOL    HW162795   2.208   0.227  11.792  0.9432 -1.0981  1.3400
18560SOL    HW262796   2.120   0.105  11.781 -0.5044  0.0373 -0.5519
18561SOL     OW62797   7.106   9.115   0.821 -0.3329  0.3710 -0.9208
18561SOL    HW162798   7.036   9.088   0.761  0.2808  0.9143 -1.9131
18561SOL    HW262799   7.081   9.203   0.849  0.0206  0.6282 -1.4001
18562SOL     OW62800   2.850   7.633   4.141  0.8847  0.2206  0.2311
18562SOL    HW162801   2.834   7.539   4.136 -0.5073  0.3185  2.0016
18562SOL    HW262802   2.769   7.673   4.110  1.8778  0.9212 -1.6842
18563SOL     OW62803  10.141  11.123   0.045 -0.0270  0.0561  0.0305
18563SOL    HW162804  10.194  11.074  -0.018 -1.6248  0.4812 -1.7333
18563SOL    HW262805  10.081  11.174  -0.009 -1.9734 -0.1099  1.9175
18564SOL     OW62806   1.684   6.825   5.740 -0.4638 -0.1350 -0.2644
18564SOL    HW162807   1.688   6.795   5.830 -0.3191 -1.0366 -0.5646
18564SOL    HW262808   1.747   6.897   5.736 -3.5015  2.9431  1.4189
18565SOL     OW62809  10.183   7.038   8.596  0.0532  0.3088 -0.2802
18565SOL    HW162810  10.179   6.942   8.596 -0.2400  0.3202 -0.6132
18565SOL    HW262811  10.130   7.064   8.520 -1.2946  0.7988  0.7891
18566SOL     OW62812  12.933   8.874   9.909 -0.7294  0.1492 -0.1415
18566SOL    HW162813  12.945   8.797   9.855  2.3634 -0.6969  1.5122
18566SOL    HW262814  12.909   8.840   9.995  1.3330  0.8806  0.7913
18567SOL     OW62815   4.175  12.769   2.952  0.3829  0.3442 -0.2877
18567SOL    HW162816   4.182  12.711   3.028 -0.5174 -1.8328 -1.7592
18567SOL    HW262817   4.153  12.855   2.989  0.5934 -0.4943  1.9265
18568SOL     OW62818   5.419   2.633  12.189 -0.5997 -0.0647 -0.2351
18568SOL    HW162819   5.429   2.544  12.156  0.9562 -0.5872  1.4923
18568SOL    HW262820   5.448   2.689  12.118 -0.4936 -0.9770 -0.9293
18569SOL     OW62821   0.968   2.464   3.719 -1.2528  0.0872  0.2544
18569SOL    HW162822   1.043   2.433   3.669 -0.1386  2.5182  0.2658
18569SOL    HW262823   0.955   2.397   3.787 -0.1246 -1.1603 -0.7122
18570SOL     OW62824  10.031  12.692  11.727  0.1961 -0.4174 -0.2344
18570SOL    HW162825  10.059  12.728  11.811 -0.4729 -0.2868 -0.0612
18570SOL    HW262826   9.974  12.618  11.750  0.0726 -0.4291 -0.5697
18571SOL     OW62827   4.056   1.104   6.321 -0.0399  0.5912  0.4198
18571SOL    HW162828   4.126   1.044   6.297 -0.0715 -0.4286  2.6648
18571SOL    HW262829   4.034   1.082   6.411 -2.7765  1.3559  0.0468
18572SOL     OW62830   1.910   4.861  11.925 -0.3253  0.3757 -0.2574
18572SOL    HW162831   1.905   4.824  12.013  0.4443 -2.5832 -1.3332
18572SOL    HW262832   1.954   4.793  11.873 -1.3182  1.7366 -3.0713
18573SOL     OW62833   9.597  10.894  11.970 -0.2247  0.5565 -0.1478
18573SOL    HW162834   9.552  10.871  12.052 -1.7256  1.6413 -0.6215
18573SOL    HW262835   9.595  10.814  11.918 -2.9358  0.8812 -0.7057
18574SOL     OW62836   6.149  11.639   7.678  0.5604 -0.5769  0.0946
18574SOL    HW162837   6.167  11.587   7.599 -1.8281 -0.1396 -0.8388
18574SOL    HW262838   6.154  11.730   7.649 -1.3509 -0.4120  0.0966
18575SOL     OW62839   9.619  12.682  12.705 -0.3100  0.3504  0.6605
18575SOL    HW162840   9.582  12.766  12.676  0.4741 -0.2797 -2.6328
18575SOL    HW262841   9.692  12.707  12.761 -1.5873  1.7624  1.7818
18576SOL     OW62842   6.353   8.762   0.368  0.2417  0.4180 -0.0409
18576SOL    HW162843   6.262   8.760   0.338 -0.5111  1.5212  1.9520
18576SOL    HW262844   6.372   8.673   0.397 -1.7818  0.9875  3.6057
18577SOL     OW62845   1.424   1.039  11.647  0.3618 -0.2048  0.0342
18577SOL    HW162846   1.333   1.028  11.672  0.0343  0.9591 -0.5753
18577SOL    HW262847   1.425   1.118  11.592  2.1058  1.3549  2.1277
18578SOL     OW62848   9.835   5.857  12.869 -0.0564 -0.2739  0.1797
18578SOL    HW162849   9.744   5.884  12.858  0.1070  1.3643  2.2645
18578SOL    HW262850   9.830   5.772  12.912 -0.6159  0.1767  1.0170
18579SOL     OW62851   1.682  11.624   8.391  0.2033  0.8509 -0.2572
18579SOL    HW162852   1.778  11.629   8.395  0.2222 -0.0617  1.7588
18579SOL    HW262853   1.665  11.536   8.358  0.1460 -0.0831  2.0384
18580SOL     OW62854   0.998   1.116   2.747  0.1742 -0.3341 -0.0767
18580SOL    HW162855   1.064   1.127   2.679  0.6581 -2.1458  0.0388
18580SOL    HW262856   0.928   1.067   2.703 -0.6223  0.6173  0.0968
18581SOL     OW62857   4.686   3.276  11.024  0.2903  0.1648 -0.4033
18581SOL    HW162858   4.728   3.358  11.050 -1.0405  0.6354  0.3560
18581SOL    HW262859   4.655   3.238  11.106  1.0341 -1.2087 -0.7287
18582SOL     OW62860   3.161   7.964   8.557  0.3148 -0.0070  0.1344
18582SOL    HW162861   3.195   7.907   8.487  1.5828  1.1684 -0.2531
18582SOL    HW262862   3.204   8.048   8.542  0.5289  0.3207  2.2689
18583SOL     OW62863   5.951   7.361  12.297  0.0585  0.4263  0.2012
18583SOL    HW162864   5.857   7.363  12.315 -0.0162  2.0453 -0.2064
18583SOL    HW262865   5.970   7.447  12.261  1.9483  0.6204  1.5086
18584SOL     OW62866   2.611   5.576   0.017  0.3824 -0.7975  0.1091
18584SOL    HW162867   2.554   5.532   0.080 -0.5415 -0.5426 -0.5269
18584SOL    HW262868   2.607   5.521  -0.061  0.2140 -0.2404 -0.2760
18585SOL     OW62869   3.380   4.441   9.264 -0.4508 -0.2208 -0.2674
18585SOL    HW162870   3.324   4.517   9.283 -0.8969 -0.5511 -0.2504
18585SOL    HW262871   3.385   4.394   9.347 -0.8433 -0.6471 -0.4858
18586SOL     OW62872   7.635   5.066  11.159  0.2159 -0.1322 -0.4158
18586SOL    HW162873   7.625   5.132  11.090  0.2319 -0.1378 -0.4233
18586SOL    HW262874   7.581   4.993  11.129  0.1151 -0.0830 -0.3573
18587SOL     OW62875   2.170   2.261   6.770 -0.2612 -0.3299  0.3859
18587SOL    HW162876   2.212   2.196   6.713  1.7266  1.2539 -0.0849
18587SOL    HW262877   2.091   2.287   6.724  0.2673 -0.5660 -0.6752
18588SOL     OW62878   2.305   7.758   1.621  0.3045  0.2977 -0.3546
18588SOL    HW162879   2.384   7.734   1.670  1.8725 -0.1929 -2.9239
18588SOL    HW262880   2.326   7.843   1.582 -1.2989  1.1711  0.5946
18589SOL     OW62881   3.174   6.674   9.354  0.4731 -0.1100 -0.3640
18589SOL    HW162882   3.108   6.607   9.372  0.7126 -0.5376 -1.0285
18589SOL    HW262883   3.239   6.662   9.423 -1.5046  2.2328  2.0964
18590SOL     OW62884   3.385   0.460  10.668  0.1690  0.6898  0.2463
18590SOL    HW162885   3.428   0.393  10.614 -2.7747  0.0265 -1.4466
18590SOL    HW262886   3.411   0.438  10.757  1.1087 -1.3066 -0.4515
18591SOL     OW62887   3.203   7.070   0.161 -0.0581 -0.2614 -0.0769
18591SOL    HW162888   3.252   7.038   0.085  0.8357 -1.4439  0.9477
18591SOL    HW262889   3.137   7.003   0.176 -1.0503  0.5852 -0.5327
18592SOL     OW62890   4.211  11.367   3.264 -0.3335 -0.2666  0.5277
18592SOL    HW162891   4.269  11.407   3.199 -0.5148 -1.2806 -0.2799
18592SOL    HW262892   4.255  11.286   3.289 -1.1056 -0.7426  0.3628
18593SOL     OW62893   8.070   0.760   6.084  0.5491 -0.1873  0.2933
18593SOL    HW162894   8.129   0.685   6.079  0.3920 -0.3347  0.5991
18593SOL    HW262895   8.055   0.785   5.993  2.7666  1.2035  0.2412
18594SOL     OW62896   1.782  12.085  10.530 -0.4242  0.5720  0.4633
18594SOL    HW162897   1.735  12.151  10.480 -0.7981  0.0971  0.1842
18594SOL    HW262898   1.816  12.024  10.464  2.3615  1.9889  0.4406
18595SOL     OW62899   2.035  11.424   5.064 -0.1377 -0.4459  0.6295
18595SOL    HW162900   1.979  11.396   5.136 -0.5675  0.2322  0.5759
18595SOL    HW262901   2.112  11.462   5.106 -0.4018 -0.0247  0.7471
18596SOL     OW62902  10.715   9.745   9.922 -0.1818 -0.8953 -0.2776
18596SOL    HW162903  10.738   9.655   9.947 -1.9451 -1.9168 -2.0991
18596SOL    HW262904  10.791   9.776   9.872  1.1086 -0.7333  1.6729
18597SOL     OW62905   0.506   8.214   8.411 -0.4302 -0.1410  0.1418
18597SOL    HW162906   0.519   8.139   8.470 -1.0378  0.0602  0.5372
18597SOL    HW262907   0.483   8.174   8.327 -0.7042 -0.3985  0.3372
18598SOL     OW62908   1.581   0.580   2.632  0.1735  0.6524  0.3875
18598SOL    HW162909   1.621   0.547   2.552  0.6329  1.3765  0.3041
18598SOL    HW262910   1.500   0.623   2.601 -2.0151 -2.7957  0.7843
18599SOL     OW62911  12.688  12.692   4.743  0.2466 -0.3734  0.0231
18599SOL    HW162912  12.769  12.657   4.780 -0.3360 -1.7438  0.0676
18599SOL    HW262913  12.665  12.764   4.801  1.7187  0.4276 -0.3250
18600SOL     OW62914   3.119   5.876   1.547 -0.3931  0.1705  0.3796
18600SOL    HW162915   3.051   5.835   1.600  1.1193 -0.0494  2.2678
18600SOL    HW262916   3.071   5.928   1.483 -2.3277 -0.4592  1.2231
18601SOL     OW62917   6.182   3.800   2.345  0.3734 -0.0668  0.0651
18601SOL    HW162918   6.122   3.786   2.272  0.1535  0.4613  0.1390
18601SOL    HW262919   6.128   3.839   2.414  0.9090  0.9573 -0.0737
18602SOL     OW62920   8.454   9.440   8.964  0.0209 -0.1384  0.4687
18602SOL    HW162921   8.394   9.427   9.038  1.2064  1.1801  1.7214
18602SOL    HW262922   8.522   9.373   8.976  0.1778  0.0325  0.5318
18603SOL     OW62923   0.708   8.525   9.402 -0.0917 -0.0934  0.0754
18603SOL    HW162924   0.681   8.611   9.433  1.9654  0.3576  0.7763
18603SOL    HW262925   0.663   8.463   9.459 -1.2880  0.5068 -0.1923
18604SOL     OW62926   6.860   2.639   6.882 -0.3939  0.3476  0.4416
18604SOL    HW162927   6.779   2.586   6.884 -0.1600 -0.0548 -0.1390
18604SOL    HW262928   6.878   2.660   6.973 -2.3295  2.2690  0.4653
18605SOL     OW62929  10.260  10.112   9.688  0.5199 -0.0765  0.1769
18605SOL    HW162930  10.232  10.028   9.724  1.1972  0.0560  1.0625
18605SOL    HW262931  10.262  10.170   9.764  0.7782  0.5456 -0.3027
18606SOL     OW62932   7.835   2.499   0.463 -0.0816 -0.3263 -0.1093
18606SOL    HW162933   7.789   2.558   0.522  0.4682  0.2266 -0.2259
18606SOL    HW262934   7.813   2.411   0.495  0.4379 -0.0367  1.1077
18607SOL     OW62935   3.165   7.625   2.136  0.1125  0.1147  0.3965
18607SOL    HW162936   3.110   7.703   2.131 -0.2557 -0.0912  1.0747
18607SOL    HW262937   3.105   7.555   2.159  0.4295 -0.3952 -0.2888
18608SOL     OW62938   1.407   3.325   7.805  0.3480 -0.2452 -0.3897
18608SOL    HW162939   1.377   3.243   7.844  2.0519 -0.4247  0.6376
18608SOL    HW262940   1.477   3.300   7.745  0.6626  0.4230 -0.3183
18609SOL     OW62941   7.842   7.151   7.538  0.3964 -0.3282 -0.2774
18609SOL    HW162942   7.873   7.073   7.492 -0.9481 -0.9198 -0.2012
18609SOL    HW262943   7.817   7.120   7.625  0.0104  0.2304 -0.1830
18610SOL     OW62944   8.045   7.343   3.143  0.3849  0.2994 -0.6922
18610SOL    HW162945   8.004   7.257   3.135 -0.2563  0.7316 -2.2542
18610SOL    HW262946   8.139   7.324   3.148  0.1654 -0.7237  3.3640
18611SOL     OW62947   0.593  12.033   4.443 -0.1144  1.0324 -0.3126
18611SOL    HW162948   0.639  11.993   4.516 -0.9683  0.0446 -0.2898
18611SOL    HW262949   0.619  11.981   4.367  2.5327  3.3998 -1.1891
18612SOL     OW62950   3.831   7.321   2.247  0.3377  0.7194  0.0354
18612SOL    HW162951   3.817   7.368   2.165 -0.1928  0.7826  0.1606
18612SOL    HW262952   3.922   7.342   2.271  0.7163  0.1914 -0.8568
18613SOL     OW62953   4.171   4.618   2.251  0.0540  0.4243 -0.0030
18613SOL    HW162954   4.200   4.582   2.167 -3.7687 -1.7174 -0.6006
18613SOL    HW262955   4.247   4.607   2.308  1.6497 -1.2964 -2.2513
18614SOL     OW62956   4.245   9.658   1.544  0.3468  0.2187  0.7179
18614SOL    HW162957   4.199   9.727   1.495  0.5058  0.0166  0.2759
18614SOL    HW262958   4.223   9.674   1.636  1.4738  1.6897  0.7655
18615SOL     OW62959   8.250   4.395  10.734 -0.3006  0.1204 -0.0838
18615SOL    HW162960   8.284   4.405  10.645 -1.2242  2.9097 -0.2350
18615SOL    HW262961   8.305   4.453  10.787 -2.8357  2.5288  0.1538
18616SOL     OW62962   6.858   4.426  10.558 -0.6372  0.0920  0.1825
18616SOL    HW162963   6.887   4.446  10.647 -0.1222  0.5048 -0.0692
18616SOL    HW262964   6.890   4.338  10.540  1.6054  0.9989 -0.5372
18617SOL     OW62965   6.469   5.547   6.051 -0.7150 -0.2138 -0.6988
18617SOL    HW162966   6.432   5.535   6.139  2.9374  1.9648  1.4128
18617SOL    HW262967   6.536   5.479   6.044 -0.1311  0.3920 -1.1979
18618SOL     OW62968  10.570   7.187   4.126  0.3997 -0.4733  0.0569
18618SOL    HW162969  10.567   7.282   4.115 -2.3455 -0.6362 -1.4616
18618SOL    HW262970  10.499   7.167   4.186  0.4125 -1.6201 -0.2861
18619SOL     OW62971  10.025   4.263   9.321  0.5765  0.0950  0.2056
18619SOL    HW162972  10.029   4.208   9.243  0.2297  0.4609 -0.0773
18619SOL    HW262973  10.001   4.350   9.288  2.5786  0.7880  0.4744
18620SOL     OW62974   7.537   4.934   9.962  0.2854 -0.2994 -0.4108
18620SOL    HW162975   7.585   4.883   9.896  2.1884  1.4596 -0.4943
18620SOL    HW262976   7.501   5.008   9.914 -2.1960 -1.2998 -0.2375
18621SOL     OW62977  12.883   2.729   4.269  0.0095  0.2364 -0.1906
18621SOL    HW162978  12.969   2.764   4.290  0.2650 -0.6036  0.2322
18621SOL    HW262979  12.857   2.681   4.348 -1.2156  1.1525 -0.0097
18622SOL     OW62980   0.844   4.739   7.121 -0.4551  0.1916 -0.1457
18622SOL    HW162981   0.820   4.670   7.059  2.2140 -0.8953 -0.0818
18622SOL    HW262982   0.763   4.756   7.170 -2.2046 -0.0802 -2.7533
18623SOL     OW62983   6.708  10.560   5.894  0.4342  0.5223 -0.0090
18623SOL    HW162984   6.753  10.644   5.890  1.8112 -0.2185 -2.5922
18623SOL    HW262985   6.630  10.572   5.839 -0.7071  0.7713  1.6016
18624SOL     OW62986   0.564   9.880   3.669 -0.1666  0.0422 -0.1015
18624SOL    HW162987   0.609   9.844   3.746  0.7413 -0.0632 -0.6678
18624SOL    HW262988   0.584   9.819   3.599  0.2059  0.8979 -0.7559
18625SOL     OW62989   2.091   5.902  11.089 -0.1952 -0.1337  0.1893
18625SOL    HW162990   2.025   5.938  11.030  1.0055  1.0749 -0.4413
18625SOL    HW262991   2.085   5.807  11.075 -2.4109 -0.1634  0.8365
18626SOL     OW62992   7.708   9.169   1.771 -0.1175  0.2314  0.3961
18626SOL    HW162993   7.761   9.236   1.815  1.9627 -0.4048 -0.9673
18626SOL    HW262994   7.626   9.213   1.749  0.2271  1.5868  1.6809
18627SOL     OW62995  11.081   8.456   4.134  0.1899  0.2409  0.9984
18627SOL    HW162996  11.033   8.376   4.154  0.6638 -0.0951  0.7830
18627SOL    HW262997  11.141   8.432   4.064 -0.2416  0.9909  0.3594
18628SOL     OW62998   5.955  11.184  11.758  0.5381 -0.6260 -0.2359
18628SOL    HW162999   5.923  11.094  11.761 -0.6960 -0.1951 -0.0884
18628SOL    HW263000   5.892  11.234  11.810  1.8865  0.1406  0.7474
18629SOL     OW63001   7.586   0.165   4.275 -0.2735 -0.1988  0.6676
18629SOL    HW163002   7.569   0.220   4.199  1.3882  0.6926  0.8885
18629SOL    HW263003   7.534   0.204   4.345  0.7857  1.0694  0.7873
18630SOL     OW63004   6.505   8.447  11.786 -0.1804 -0.0239  0.5203
18630SOL    HW163005   6.587   8.481  11.751 -1.1332  0.9155 -0.8958
18630SOL    HW263006   6.440   8.465  11.718 -1.9983  1.1806  2.4331
18631SOL     OW63007   9.119   3.375   4.377 -0.2886 -0.4912 -0.3218
18631SOL    HW163008   9.065   3.443   4.336  0.5853 -0.6821 -1.8698
18631SOL    HW263009   9.206   3.386   4.336  0.7652 -0.4344  1.8099
18632SOL     OW63010   1.198   1.183   3.204  0.2492  0.0421  0.1470
18632SOL    HW163011   1.104   1.162   3.202 -0.0934  1.1774  1.8813
18632SOL    HW263012   1.240   1.103   3.234 -0.2687 -0.1821  0.2845
18633SOL     OW63013  12.508  11.406  11.595 -0.1251  0.5371  0.0722
18633SOL    HW163014  12.512  11.461  11.516  0.6559  0.8739  0.3276
18633SOL    HW263015  12.497  11.469  11.666 -1.5522  0.1825  0.1782
18634SOL     OW63016   9.088  11.655  12.609  0.0036 -0.1950 -0.3245
18634SOL    HW163017   9.064  11.709  12.685 -0.2367  1.0363 -1.2357
18634SOL    HW263018   9.007  11.648  12.559  0.2334 -0.7473 -0.6217
18635SOL     OW63019   2.922   2.008   2.864 -0.0188 -0.0362  0.1013
18635SOL    HW163020   2.999   2.055   2.831 -0.8251  0.1131 -1.6652
18635SOL    HW263021   2.957   1.949   2.930  1.9428 -1.3122 -1.9363
18636SOL     OW63022   8.447  10.458   0.946  0.6452  0.4238 -0.1444
18636SOL    HW163023   8.470  10.520   0.876 -0.7971 -0.8446 -1.8059
18636SOL    HW263024   8.423  10.378   0.901  0.2936 -0.6701  1.8670
18637SOL     OW63025   2.365   7.838   1.928 -0.1808  0.0225 -0.0555
18637SOL    HW163026   2.384   7.883   2.010  1.0851 -0.6274  0.0253
18637SOL    HW263027   2.347   7.747   1.954 -0.8569  0.0499 -0.3991
18638SOL     OW63028   3.193   3.624   4.554 -0.2321  0.0260  0.6711
18638SOL    HW163029   3.140   3.699   4.525 -0.4388  0.1164  1.2590
18638SOL    HW263030   3.206   3.572   4.475 -1.1123  0.0600  0.4883
18639SOL     OW63031  11.759   2.024   5.162  0.2323  0.2433  0.3156
18639SOL    HW163032  11.675   1.988   5.190  0.0913  0.0935 -0.2803
18639SOL    HW263033  11.825   1.964   5.198  0.3843  2.2993  3.9776
18640SOL     OW63034   2.485  11.506  12.588 -0.1643 -0.0533 -0.5590
18640SOL    HW163035   2.434  11.549  12.519  0.7807  0.1169 -1.1726
18640SOL    HW263036   2.422  11.488  12.658 -0.7255  1.7171 -0.5732
18641SOL     OW63037   2.394   0.034   6.663 -0.1484  0.7084  0.1499
18641SOL    HW163038   2.413   0.080   6.582  0.9817  1.0240  0.5774
18641SOL    HW263039   2.476  -0.011   6.685 -1.1183 -1.2314 -0.0721
18642SOL     OW63040   4.866   8.424  10.749 -0.0571 -0.0184  0.1283
18642SOL    HW163041   4.932   8.373  10.702 -0.7678  0.7316 -1.7650
18642SOL    HW263042   4.796   8.438  10.685 -1.0895  1.0331  1.4340
18643SOL     OW63043   0.183   1.919   1.355 -0.0429  0.0017 -0.2853
18643SOL    HW163044   0.212   1.863   1.283 -1.1198  0.5059 -1.1523
18643SOL    HW263045   0.109   1.871   1.394  0.4699 -0.2214  0.4351
18644SOL     OW63046   3.218   0.523   4.683 -0.1015 -0.6453  0.2644
18644SOL    HW163047   3.190   0.442   4.641 -1.3114 -0.2402  0.2667
18644SOL    HW263048   3.176   0.521   4.769 -0.4466  0.1550  0.1229
18645SOL     OW63049   4.316   7.958   4.927  0.1757  0.0335  0.2589
18645SOL    HW163050   4.347   7.906   5.002  0.6748 -0.8385 -0.5321
18645SOL    HW263051   4.389   8.017   4.907 -0.7991  1.8977  1.8578
18646SOL     OW63052  10.460  11.936  11.701  0.1234 -0.3339  0.5945
18646SOL    HW163053  10.519  11.985  11.645  0.6211 -1.4307  0.1180
18646SOL    HW263054  10.492  11.953  11.790 -0.6375  1.3613  0.5651
18647SOL     OW63055   7.124  11.591   7.120  0.0812 -0.2167 -0.6398
18647SOL    HW163056   7.097  11.569   7.030  0.2926  4.1737 -1.9876
18647SOL    HW263057   7.066  11.663   7.145  1.4105  0.0363  2.0081
18648SOL     OW63058  12.098   5.325  12.457 -0.1636  0.0238  0.4054
18648SOL    HW163059  12.134   5.251  12.407 -0.2151  0.1770  0.1362
18648SOL    HW263060  12.161   5.395  12.444 -0.5038  0.2592  0.0234
18649SOL     OW63061   0.893   0.190   2.241  0.4156 -0.0382 -0.2729
18649SOL    HW163062   0.901   0.162   2.150  0.2275 -0.0256 -0.2925
18649SOL    HW263063   0.831   0.262   2.239 -1.5721 -1.6434  0.1932
18650SOL     OW63064  12.017   4.125   5.887 -0.1197 -0.1833  0.6799
18650SOL    HW163065  12.083   4.148   5.821 -1.3152  0.8370 -0.2061
18650SOL    HW263066  12.025   4.192   5.954 -0.8849  0.5151  0.0909
18651SOL     OW63067   9.873   2.991   6.248  0.7746  0.4161  0.0516
18651SOL    HW163068   9.836   3.040   6.175  0.0877 -0.4672 -0.1984
18651SOL    HW263069   9.913   3.059   6.304 -1.8007  1.5121  0.7067
18652SOL     OW63070  10.842   9.409   4.944 -0.1025 -0.1357 -0.6794
18652SOL    HW163071  10.906   9.415   5.015  0.8497 -0.0857 -1.5104
18652SOL    HW263072  10.764   9.454   4.977  0.2260 -0.3618  0.4288
18653SOL     OW63073   2.766   2.146   2.005 -0.1613 -0.3167 -0.1477
18653SOL    HW163074   2.694   2.201   1.976  1.4418  0.9183 -2.0006
18653SOL    HW263075   2.789   2.180   2.091 -1.8417 -0.8581  0.5646
18654SOL     OW63076   0.816  10.097   2.994 -0.5685  0.0706  0.1845
18654SOL    HW163077   0.859  10.053   2.921  0.7035 -1.3279  1.7125
18654SOL    HW263078   0.852  10.186   2.992  2.8002 -1.1159  1.5893
18655SOL     OW63079   6.973   4.437   6.186  0.2111  0.4417 -0.4711
18655SOL    HW163080   6.899   4.404   6.238  0.4382  1.1973  0.3588
18655SOL    HW263081   6.934   4.461   6.102 -0.6332  1.4566  0.1821
18656SOL     OW63082  11.369  12.157  12.740 -0.0368  0.4353 -0.2308
18656SOL    HW163083  11.277  12.141  12.721  0.3035  0.2302 -1.8648
18656SOL    HW263084  11.416  12.104  12.675  1.2664 -0.8682  1.6903
18657SOL     OW63085   8.752   9.352   8.715 -0.5301  0.0192  0.2856
18657SOL    HW163086   8.833   9.340   8.666  0.4373 -3.7006  2.3850
18657SOL    HW263087   8.780   9.383   8.802 -1.6141  0.8090  0.3813
18658SOL     OW63088   2.363  10.193   2.794 -0.6555 -0.8473 -0.7675
18658SOL    HW163089   2.412  10.112   2.806  0.7835 -0.0594 -1.1086
18658SOL    HW263090   2.298  10.192   2.865  0.5102 -1.4652  0.3499
18659SOL     OW63091  10.880   0.645   0.395 -0.0875 -1.0104  0.0236
18659SOL    HW163092  10.806   0.677   0.446  0.0461 -1.6999  0.6702
18659SOL    HW263093  10.860   0.669   0.305  0.0944  1.0323  0.4781
18660SOL     OW63094   0.398   4.406   1.728 -0.6301 -0.2585  0.6822
18660SOL    HW163095   0.353   4.325   1.753  1.2574 -1.2338  1.1084
18660SOL    HW263096   0.362   4.428   1.642 -0.6125 -2.0199  0.1899
18661SOL     OW63097  12.806  10.719   0.685  0.0546  0.3282  0.4262
18661SOL    HW163098  12.902  10.718   0.680  0.4001 -0.9458  4.2267
18661SOL    HW263099  12.780  10.793   0.630  3.0112 -0.3088 -2.1214
18662SOL     OW63100  10.698   0.344   4.963  0.6113  0.5732  0.6049
18662SOL    HW163101  10.762   0.415   4.950 -0.1151  1.0763 -0.3072
18662SOL    HW263102  10.665   0.326   4.875  2.3588 -2.4311  0.4485
18663SOL     OW63103   0.327   4.808   3.978  0.7257 -0.5917 -0.0721
18663SOL    HW163104   0.379   4.885   3.999  0.6358 -0.1782 -1.2999
18663SOL    HW263105   0.268   4.797   4.053 -0.1198  1.2853 -0.4135
18664SOL     OW63106   9.027  10.008  12.309  0.8359  0.1331 -0.5994
18664SOL    HW163107   9.002   9.929  12.261  2.0518  0.3217 -1.6084
18664SOL    HW263108   9.121  10.015  12.296  0.9442  1.0713  0.5284
18665SOL     OW63109  12.460  12.066   8.708 -0.2689 -0.5233 -0.3442
18665SOL    HW163110  12.393  12.116   8.661 -0.1902 -0.2908 -0.2104
18665SOL    HW263111  12.514  12.029   8.639  0.7373  1.0363 -0.4433
18666SOL     OW63112  11.330   4.797   3.153  0.2851 -0.0118  0.8517
18666SOL    HW163113  11.374   4.746   3.221 -0.3477  0.0869  1.3447
18666SOL    HW263114  11.400   4.823   3.093  0.8020 -0.3692  1.2966
18667SOL     OW63115   1.898   6.280   1.645 -0.1442 -0.0917  0.5501
18667SOL    HW163116   1.825   6.321   1.690  2.3145  4.8541  0.6356
18667SOL    HW263117   1.960   6.258   1.714  0.1650 -0.4261  0.1725
18668SOL     OW63118   1.528  10.990   9.951  0.0273 -0.1117 -0.1952
18668SOL    HW163119   1.523  10.904   9.993 -3.1376 -0.5759 -1.2461
18668SOL    HW263120   1.583  10.977   9.874 -0.2924 -1.1547 -0.2578
18669SOL     OW63121   0.704  10.347   3.997 -0.0106 -0.1967 -0.3742
18669SOL    HW163122   0.778  10.296   4.030 -0.6946 -1.0039 -0.0656
18669SOL    HW263123   0.707  10.428   4.048 -1.7485 -1.8800  2.6972
18670SOL     OW63124  11.758   7.756  10.047  0.1265 -0.5864 -0.1047
18670SOL    HW163125  11.734   7.841  10.008  0.2383 -0.4805  0.0567
18670SOL    HW263126  11.685   7.699  10.025  0.4056 -0.6524 -0.8667
18671SOL     OW63127   3.302  11.890   0.073  0.2060  0.2619 -0.2106
18671SOL    HW163128   3.241  11.822   0.046 -1.3298  0.9452  1.3505
18671SOL    HW263129   3.378  11.843   0.106  0.0052 -0.6335 -0.9754
18672SOL     OW63130   7.095  10.158   8.060  0.6197 -0.8605 -0.1998
18672SOL    HW163131   7.061  10.117   8.139  2.0373 -0.6877  0.5312
18672SOL    HW263132   7.087  10.090   7.993 -1.1274 -0.8147 -0.0763
18673SOL     OW63133  11.153  10.965  10.988 -0.1477 -0.5240 -0.0257
18673SOL    HW163134  11.242  10.949  11.020 -0.0507  0.7014  0.3634
18673SOL    HW263135  11.100  10.973  11.068 -0.4725 -0.5241 -0.2407
18674SOL     OW63136   6.774   5.451   8.509 -0.2391 -0.2275 -0.3740
18674SOL    HW163137   6.681   5.471   8.499 -0.6033 -0.9880  1.1764
18674SOL    HW263138   6.798   5.488   8.594  1.0989  0.6684 -1.1036
18675SOL     OW63139   1.284   9.406   4.820 -0.0766  0.0088 -0.2469
18675SOL    HW163140   1.198   9.379   4.852  0.7641 -0.1622  2.1139
18675SOL    HW263141   1.339   9.329   4.829  0.5540  0.3720 -0.8469
18676SOL     OW63142   2.039   6.879   7.667  0.0762 -0.0752 -0.0895
18676SOL    HW163143   2.109   6.815   7.656  0.2513 -0.3174  1.9898
18676SOL    HW263144   1.994   6.851   7.747 -1.9858  0.4675 -1.0006
18677SOL     OW63145   1.363   4.574   9.451  0.1377 -0.6315 -0.5715
18677SOL    HW163146   1.367   4.635   9.524  0.2208  0.7704 -1.7050
18677SOL    HW263147   1.310   4.501   9.483  0.8071 -0.4195  1.1193
18678SOL     OW63148  10.727   1.362   9.098 -0.0063  0.3912 -0.5002
18678SOL    HW163149  10.803   1.305   9.111 -0.5977 -0.4116 -0.5157
18678SOL    HW263150  10.688   1.370   9.185 -0.5984 -0.1942 -0.7077
18679SOL     OW63151   8.709   4.599   5.075  0.0187 -0.2956  0.0371
18679SOL    HW163152   8.710   4.505   5.054 -2.2230 -0.1073 -1.2726
18679SOL    HW263153   8.699   4.602   5.170 -1.4188 -1.4728 -0.0291
18680SOL     OW63154   6.032   1.419   4.881  0.0040  0.7145 -0.5875
18680SOL    HW163155   6.025   1.443   4.973 -0.6441 -1.5316  0.0009
18680SOL    HW263156   6.122   1.441   4.857  0.6460 -0.0304  1.0082
18681SOL     OW63157   4.259   1.917   6.839 -0.1894  0.0801  0.3638
18681SOL    HW163158   4.322   1.975   6.882  0.6680 -1.4958  1.3498
18681SOL    HW263159   4.196   1.976   6.798  1.4987  1.7046 -0.0131
18682SOL     OW63160  10.685   7.039   8.720  0.4285 -0.7331  0.1105
18682SOL    HW163161  10.777   7.066   8.718  0.7260 -1.6951 -1.5900
18682SOL    HW263162  10.684   6.961   8.776  1.0848 -1.9436 -1.4596
18683SOL     OW63163   4.931   4.983   4.767 -0.2102 -0.4187  0.3501
18683SOL    HW163164   4.980   4.906   4.797 -0.8476 -0.8441  0.3142
18683SOL    HW263165   4.840   4.955   4.766 -0.6508  0.8051  1.7905
18684SOL     OW63166   0.101   8.636   5.316 -0.1806  0.0527  0.4352
18684SOL    HW163167   0.076   8.568   5.379 -1.4901 -1.0045 -1.1394
18684SOL    HW263168   0.072   8.718   5.357 -1.7022 -0.6818  0.9221
18685SOL     OW63169  11.418   3.111  12.103 -0.5633 -0.1486 -0.2571
18685SOL    HW163170  11.481   3.039  12.106  1.5436  1.4225 -2.9000
18685SOL    HW263171  11.464   3.185  12.143 -2.1178  0.2047  0.9916
18686SOL     OW63172   7.009   1.357   6.077  0.0227  0.0745 -0.3641
18686SOL    HW163173   6.990   1.436   6.128  0.6730 -0.2215  0.3644
18686SOL    HW263174   6.925   1.312   6.070 -0.4262  0.9763 -1.0711
18687SOL     OW63175  12.912   2.648   8.880 -0.3707 -0.3331  0.5468
18687SOL    HW163176  12.851   2.711   8.920  1.1858  1.1772  0.6719
18687SOL    HW263177  12.987   2.648   8.939 -0.0599 -1.8348  0.1781
18688SOL     OW63178  10.582   7.398   6.328 -0.2433  0.4918 -0.7268
18688SOL    HW163179  10.559   7.312   6.292 -1.3264  0.9658 -1.2107
18688SOL    HW263180  10.510   7.455   6.302  0.3620  1.5107 -0.2383
18689SOL     OW63181   7.953   7.528   3.926 -0.1359  0.3917  0.9717
18689SOL    HW163182   7.897   7.476   3.983 -0.1852 -0.9040 -0.2334
18689SOL    HW263183   8.014   7.465   3.887 -1.3665  0.8805 -1.9309
18690SOL     OW63184  11.770   0.981  12.571  0.1823 -0.3924  0.3905
18690SOL    HW163185  11.684   1.018  12.553  0.2989  0.0606  0.7469
18690SOL    HW263186  11.826   1.057  12.589  0.6049 -0.6940  0.3702
18691SOL     OW63187  12.552   3.140   5.912 -0.1057 -0.3194 -0.1708
18691SOL    HW163188  12.570   3.227   5.877 -0.3859  0.3486  1.2604
18691SOL    HW263189  12.502   3.096   5.844 -0.4438  0.8343 -0.6912
18692SOL     OW63190   9.442   9.939   6.189  0.4816  0.5370  0.0284
18692SOL    HW163191   9.533   9.954   6.215  0.5013  1.4392 -0.5097
18692SOL    HW263192   9.393   9.936   6.271  0.9451  0.4044  0.3030
18693SOL     OW63193   1.034  11.799   9.188  0.1337 -0.0142 -0.0128
18693SOL    HW163194   0.989  11.773   9.107 -1.5647 -1.6581  1.3712
18693SOL    HW263195   1.109  11.740   9.192 -0.0227 -0.2285 -0.1752
18694SOL     OW63196   3.060   7.603  10.788  0.7022 -0.4241  0.0930
18694SOL    HW163197   3.137   7.630  10.738  0.7875 -0.7420  0.0510
18694SOL    HW263198   3.035   7.519  10.750  1.2400 -1.0500  1.1020
18695SOL     OW63199   7.007  11.000   5.288 -0.0946 -0.0116 -0.0566
18695SOL    HW163200   6.987  11.089   5.259 -0.4762 -0.4039 -1.0723
18695SOL    HW263201   6.973  10.944   5.217  0.3898 -0.9449  0.4306
18696SOL     OW63202   0.987   7.501   5.763 -0.0834 -0.4261  0.4394
18696SOL    HW163203   0.944   7.430   5.810  1.3916 -1.8660 -0.2831
18696SOL    HW263204   1.064   7.460   5.723  0.3541  1.4039 -0.7044
18697SOL     OW63205   9.475  10.974   0.268  0.1295  0.2677  0.0723
18697SOL    HW163206   9.424  11.008   0.195  0.7638 -1.2076 -1.0995
18697SOL    HW263207   9.561  11.015   0.258  0.0296  0.5710  0.4015
18698SOL     OW63208   8.246   2.581   2.968 -0.2981  0.1657  0.6906
18698SOL    HW163209   8.320   2.522   2.982  0.4468  0.5677 -1.2715
18698SOL    HW263210   8.192   2.537   2.902  0.9794  2.1839 -1.8630
18699SOL     OW63211   8.269   3.202  12.535  0.4648  0.2324  0.2113
18699SOL    HW163212   8.354   3.160  12.522  0.2521 -0.3065  0.5513
18699SOL    HW263213   8.286   3.295  12.520  0.7071 -0.0787 -1.6458
18700SOL     OW63214   2.238   9.074   8.795  0.7997 -0.1391 -0.2375
18700SOL    HW163215   2.212   9.166   8.805  0.7185 -0.0024 -1.4662
18700SOL    HW263216   2.299   9.075   8.721  1.1324 -1.0246  0.0168
18701SOL     OW63217   5.931   7.337   2.285 -0.0869 -0.5902 -0.2189
18701SOL    HW163218   5.852   7.361   2.237 -0.8411 -0.4081  1.0773
18701SOL    HW263219   5.985   7.416   2.282 -0.4989 -0.2969 -0.0428
18702SOL     OW63220   8.448   4.572   7.977 -0.2245  0.2231  0.4886
18702SOL    HW163221   8.358   4.563   8.007 -0.1887  1.2066  0.9167
18702SOL    HW263222   8.476   4.482   7.960 -1.7735 -0.0033 -1.1571
18703SOL     OW63223  11.622   3.997   2.013 -0.3909  0.2705  0.1353
18703SOL    HW163224  11.627   3.951   2.096 -0.5706  0.0528  0.0264
18703SOL    HW263225  11.584   4.082   2.035 -1.3099 -0.1273  0.1498
18704SOL     OW63226  11.057   5.697   3.106 -0.3686  0.2302 -0.2795
18704SOL    HW163227  11.113   5.681   3.030  1.3727  0.5867  0.8756
18704SOL    HW263228  11.056   5.792   3.116 -1.4648  0.2559 -0.4502
18705SOL     OW63229   2.748  11.267   8.785  0.0193  0.0554 -0.2238
18705SOL    HW163230   2.709  11.352   8.766  0.4755  0.1555 -0.7591
18705SOL    HW263231   2.831  11.288   8.828 -0.6100 -0.1581  1.1575
18706SOL     OW63232   1.915  12.487   3.354  0.0575 -0.8576  0.1347
18706SOL    HW163233   1.916  12.553   3.284 -0.3035 -0.1231  0.8062
18706SOL    HW263234   2.007  12.471   3.372  0.1533 -0.7699 -0.2523
18707SOL     OW63235   1.045   0.480   7.459  0.6582 -0.3512 -0.8273
18707SOL    HW163236   0.971   0.504   7.402  0.2995 -2.7798 -1.5001
18707SOL    HW263237   1.111   0.547   7.440 -0.7744  0.9865 -1.3824
18708SOL     OW63238   4.417   3.499   5.919  0.3430 -0.6167  0.4199
18708SOL    HW163239   4.395   3.425   5.861 -1.7238  0.0964  0.1939
18708SOL    HW263240   4.375   3.476   6.002  0.6116 -0.1837  0.6755
18709SOL     OW63241   5.524   5.982  10.800  0.8759  0.2255 -0.1315
18709SOL    HW163242   5.509   6.065  10.754  0.1063  0.5654  0.6965
18709SOL    HW263243   5.619   5.971  10.799  1.0385  1.3913  0.1980
18710SOL     OW63244   0.929   1.937   6.208  0.2441 -0.2087 -0.6107
18710SOL    HW163245   0.922   2.012   6.149 -1.6378  2.3144  2.4844
18710SOL    HW263246   0.966   1.974   6.289 -1.1601 -2.5092  1.1803
18711SOL     OW63247   9.019   3.874   2.308  0.0206 -0.1444  0.5975
18711SOL    HW163248   9.087   3.910   2.251  0.1750  2.4633  2.2640
18711SOL    HW263249   8.939   3.920   2.282 -2.0788 -4.9936 -3.1643
18712SOL     OW63250   6.288   1.271   3.882 -0.1474 -0.7611 -0.3601
18712SOL    HW163251   6.305   1.341   3.945 -0.4193 -0.2794 -0.8063
18712SOL    HW263252   6.288   1.191   3.934  0.4714 -0.4650  0.1128
18713SOL     OW63253  10.132   9.276   4.553  0.1314  0.0442  0.2428
18713SOL    HW163254  10.163   9.264   4.642 -1.3346  0.8589  0.8945
18713SOL    HW263255  10.054   9.331   4.561 -0.2504 -0.1647 -1.5051
18714SOL     OW63256  12.411   6.940   3.444 -0.2150 -0.5937  0.0422
18714SOL    HW163257  12.504   6.953   3.425 -0.6034  1.3884 -0.7492
18714SOL    HW263258  12.393   6.998   3.518 -0.8270 -1.0203  0.2414
18715SOL     OW63259   4.906  12.589  10.937  0.0511 -0.3249 -0.3939
18715SOL    HW163260   4.926  12.668  10.986 -1.3430 -0.2010  0.0201
18715SOL    HW263261   4.990  12.544  10.928  0.8953  1.2735 -0.8052
18716SOL     OW63262  11.273   8.296   2.646 -0.7643  0.0281  0.8010
18716SOL    HW163263  11.332   8.276   2.574 -0.9230  0.3104  0.5909
18716SOL    HW263264  11.322   8.358   2.700 -0.6034 -0.2650  0.9938
18717SOL     OW63265   5.612   2.984   4.296  0.6088  0.2490 -0.0270
18717SOL    HW163266   5.528   3.004   4.253  0.3101  0.0411  0.4508
18717SOL    HW263267   5.678   3.008   4.231  0.1640 -0.0742 -0.6159
18718SOL     OW63268   7.381   0.001   4.947  0.1069 -0.4000  0.6195
18718SOL    HW163269   7.432   0.043   4.878  0.0721 -0.7021  0.4072
18718SOL    HW263270   7.290   0.007   4.917 -0.1277  1.1365  1.5202
18719SOL     OW63271  11.558   4.307   8.397  0.2409 -0.0235 -0.2625
18719SOL    HW163272  11.542   4.401   8.394 -0.5520 -0.1836 -2.0161
18719SOL    HW263273  11.605   4.287   8.316 -0.4813 -1.2859 -0.3958
18720SOL     OW63274   9.328   5.303   8.228  0.4550  0.4720 -0.1377
18720SOL    HW163275   9.328   5.380   8.286  2.1613 -0.2357  0.8873
18720SOL    HW263276   9.363   5.336   8.145  1.8822  0.6787  0.5213
18721SOL     OW63277  12.192   4.290   3.019 -0.2712 -0.4662 -0.3183
18721SOL    HW163278  12.208   4.358   2.953 -0.7867  1.0125  1.0148
18721SOL    HW263279  12.109   4.251   2.993 -0.8012  0.5567 -0.1952
18722SOL     OW63280   0.156   6.238   6.520 -0.1693 -0.3413  0.0185
18722SOL    HW163281   0.191   6.171   6.462 -2.6620  0.6714 -2.8856
18722SOL    HW263282   0.078   6.198   6.558 -0.0605 -0.0352  0.5797
18723SOL     OW63283   3.455   8.236  11.157  0.1193 -0.7467  0.1742
18723SOL    HW163284   3.375   8.193  11.128  0.6042 -0.9744 -0.8781
18723SOL    HW263285   3.437   8.262  11.247 -1.3795 -0.2070 -0.2459
18724SOL     OW63286   0.415  12.787  10.919 -0.0294  0.4284 -0.0087
18724SOL    HW163287   0.480  12.772  10.989  1.1832 -0.5128 -1.2682
18724SOL    HW263288   0.468  12.797  10.840 -1.4052  0.5660 -0.9405
18725SOL     OW63289   0.869   4.322   5.933 -0.1677  0.3726  0.0825
18725SOL    HW163290   0.871   4.396   5.873 -0.1180 -0.5505 -1.0806
18725SOL    HW263291   0.852   4.246   5.878  1.1381 -0.6835  1.0442
18726SOL     OW63292   5.008   2.110   5.189 -0.3673  0.4818  0.2860
18726SOL    HW163293   5.058   2.173   5.240 -1.0530  3.0838 -1.9693
18726SOL    HW263294   4.986   2.040   5.251  1.2230  1.9892  2.7184
18727SOL     OW63295   1.384  11.336   5.115 -0.5774 -0.1407  0.9354
18727SOL    HW163296   1.420  11.247   5.116 -0.1113  0.0361  0.5358
18727SOL    HW263297   1.327  11.337   5.038 -0.1080  0.0806  0.5828
18728SOL     OW63298   6.364   5.655   4.380 -0.0936 -0.1910 -0.2593
18728SOL    HW163299   6.321   5.639   4.464 -1.1528 -0.5763 -0.8541
18728SOL    HW263300   6.392   5.746   4.384 -2.8138  0.7467 -0.6108
18729SOL     OW63301   8.216   4.528   4.368  0.2793 -0.1557  0.1567
18729SOL    HW163302   8.198   4.457   4.305  0.6685  0.3894 -0.5770
18729SOL    HW263303   8.279   4.584   4.324  2.7681 -1.2436  2.1190
18730SOL     OW63304  11.346   0.047  10.432 -0.1076  0.2623  0.6602
18730SOL    HW163305  11.390   0.103  10.496  0.0488  0.6162  0.2482
18730SOL    HW263306  11.411   0.034  10.363 -0.9194  1.5510 -0.4040
18731SOL     OW63307  11.555   9.506   5.373  0.0301 -0.2187  0.3888
18731SOL    HW163308  11.572   9.478   5.463  0.7172 -2.0082 -0.2481
18731SOL    HW263309  11.583   9.432   5.319 -0.5962  0.7103 -1.2959
18732SOL     OW63310   5.747   0.940   5.941 -0.2861 -0.1558  0.2793
18732SOL    HW163311   5.832   0.920   5.901 -0.7429 -0.9198 -0.3307
18732SOL    HW263312   5.769   0.987   6.022  0.6735  0.8403 -0.5318
18733SOL     OW63313  10.010   0.449  11.850 -0.2723  0.2555  0.3581
18733SOL    HW163314  10.046   0.382  11.793 -0.7865  0.4175 -0.1747
18733SOL    HW263315  10.045   0.532  11.816 -1.6925  0.4895 -0.6465
18734SOL     OW63316   4.893   1.308   3.670  0.1043 -0.1496 -0.3679
18734SOL    HW163317   4.932   1.370   3.732 -0.5227 -2.2550  2.2660
18734SOL    HW263318   4.968   1.262   3.632  0.5489  1.7781 -2.0061
18735SOL     OW63319   1.308  12.916   6.068  0.4207  0.1525  0.2003
18735SOL    HW163320   1.350  12.977   6.006 -0.7332  0.1041 -0.6722
18735SOL    HW263321   1.243  12.870   6.015  1.1657 -1.7670  0.8732
18736SOL     OW63322   4.824   3.888  12.349  0.2108  0.5793 -0.1026
18736SOL    HW163323   4.831   3.926  12.261 -0.2135  0.4730 -0.1824
18736SOL    HW263324   4.818   3.793  12.334  1.9069  0.4065  0.1238
18737SOL     OW63325   7.142   1.115   5.620 -0.0964 -0.2774  0.1874
18737SOL    HW163326   7.170   1.110   5.711  1.5941  1.6624 -0.1305
18737SOL    HW263327   7.216   1.079   5.570 -0.4118 -0.0343 -0.4701
18738SOL     OW63328   6.676  11.679  10.887  0.0676  0.4140 -0.4222
18738SOL    HW163329   6.668  11.732  10.808 -3.3476  0.2815 -0.3279
18738SOL    HW263330   6.620  11.603  10.871  1.2566 -0.8908  1.1928
18739SOL     OW63331   0.103  11.447  10.311 -0.3542  0.0985 -0.5571
18739SOL    HW163332   0.151  11.414  10.387 -0.3700  0.2528 -0.4802
18739SOL    HW263333   0.131  11.538  10.303 -1.1589  0.3982 -0.0909
18740SOL     OW63334   3.417  12.910   3.253  0.4244 -0.1162 -0.4325
18740SOL    HW163335   3.397  12.932   3.344 -1.1258 -1.0738 -0.5059
18740SOL    HW263336   3.345  12.854   3.225  0.0651  1.3291 -2.7242
18741SOL     OW63337  12.639   7.770  11.995  0.0408 -0.0249 -0.1441
18741SOL    HW163338  12.598   7.832  12.055 -1.6021  0.3871 -1.6052
18741SOL    HW263339  12.684   7.708  12.052 -0.8170  0.7770  1.4714
18742SOL     OW63340   5.088   3.536   0.412 -0.3938 -0.2376  0.1657
18742SOL    HW163341   5.157   3.471   0.406 -0.4862 -0.5105  1.7129
18742SOL    HW263342   5.121   3.601   0.473 -1.1276  0.1177  0.2036
18743SOL     OW63343  10.979  12.564   2.739  0.0813  0.3860  0.4220
18743SOL    HW163344  10.920  12.607   2.801  0.2280  0.1183  0.7518
18743SOL    HW263345  10.956  12.602   2.654 -0.7870  0.0684  0.4989
18744SOL     OW63346   6.378   8.838  10.388  0.0757 -0.1395  0.1479
18744SOL    HW163347   6.352   8.875  10.473 -0.6730 -2.6663  1.1101
18744SOL    HW263348   6.472   8.822  10.395  0.0228 -0.2971  0.5014
18745SOL     OW63349  10.851   3.822   8.917  0.1321 -0.4212  0.4360
18745SOL    HW163350  10.832   3.884   8.987 -1.2232 -0.0389 -0.2357
18745SOL    HW263351  10.813   3.862   8.839 -0.6474 -2.0115 -0.0437
18746SOL     OW63352  12.195   1.173  10.579 -0.3654  0.3717  0.0674
18746SOL    HW163353  12.136   1.233  10.624  0.3090  1.0461  0.0873
18746SOL    HW263354  12.138   1.106  10.540 -0.9265 -1.4278  3.5514
18747SOL     OW63355   4.994   2.777   6.081 -0.3665 -0.8714  0.2002
18747SOL    HW163356   5.022   2.700   6.030 -0.3791 -0.9715  0.3431
18747SOL    HW263357   4.931   2.821   6.024  0.8222 -0.0782 -0.5600
18748SOL     OW63358  11.412   2.997   5.622  0.0795  0.3717  0.0102
18748SOL    HW163359  11.391   2.995   5.716  1.6592 -1.3103  0.4000
18748SOL    HW263360  11.506   3.014   5.620  0.1914 -0.3128 -1.2408
18749SOL     OW63361   9.911   5.785   6.266 -0.1500 -0.1642  0.4510
18749SOL    HW163362   9.998   5.746   6.265 -0.0569  0.0580 -0.1452
18749SOL    HW263363   9.867   5.749   6.189  0.4090  1.9473 -0.9425
18750SOL     OW63364  10.088  11.924   3.492  0.2635  0.2481 -0.3740
18750SOL    HW163365  10.166  11.885   3.532 -0.2399 -0.5985 -0.1948
18750SOL    HW263366  10.021  11.856   3.500 -0.6536  1.1795  0.0100
18751SOL     OW63367   0.391   4.822  12.342 -0.2057 -1.1767  0.0188
18751SOL    HW163368   0.448   4.745  12.350 -0.2653 -1.0775  1.5456
18751SOL    HW263369   0.378   4.853  12.431  1.1535  1.6074 -0.6243
18752SOL     OW63370   7.843   5.237   8.534  0.7210  0.0332 -0.0363
18752SOL    HW163371   7.935   5.254   8.555  1.0947 -0.2766 -1.3579
18752SOL    HW263372   7.844   5.158   8.480 -0.3042  0.1448 -0.2472
18753SOL     OW63373   0.626  10.600   7.769  0.3164 -0.0720  0.0118
18753SOL    HW163374   0.709  10.629   7.806  0.6993 -0.7182 -0.3234
18753SOL    HW263375   0.559  10.642   7.824  0.8686 -0.2015  0.7962
18754SOL     OW63376  12.603  10.967   1.636 -0.2418 -0.8327 -0.4003
18754SOL    HW163377  12.582  10.989   1.727 -1.7105 -1.0364 -0.6694
18754SOL    HW263378  12.631  10.875   1.640  0.2533 -0.6747 -0.0892
18755SOL     OW63379   4.266   1.779   2.461  0.0520 -0.2321 -0.0549
18755SOL    HW163380   4.259   1.875   2.463  0.8863 -0.1817  2.0706
18755SOL    HW263381   4.360   1.762   2.462 -0.0935 -1.0698  0.9346
18756SOL     OW63382  12.319  10.622  12.459 -0.3555  0.6835  0.3170
18756SOL    HW163383  12.315  10.528  12.443  2.0633 -0.1905  3.5770
18756SOL    HW263384  12.346  10.660  12.376  1.5496 -1.9339 -0.3814
18757SOL     OW63385   1.478   9.611   1.454  0.2457  0.1024 -0.3154
18757SOL    HW163386   1.471   9.527   1.408  0.9976  0.3111 -0.8306
18757SOL    HW263387   1.387   9.642   1.461  0.1496  0.3706 -2.2573
18758SOL     OW63388   8.978   8.301   0.764  0.6747  0.1465  0.3863
18758SOL    HW163389   8.892   8.303   0.722  0.1243  0.8530  1.5102
18758SOL    HW263390   9.007   8.210   0.754 -0.4952 -0.2621  0.5641
18759SOL     OW63391   1.508   7.661   6.017  0.3014  0.1206 -0.3600
18759SOL    HW163392   1.489   7.645   5.925  1.9000 -2.1884 -0.3731
18759SOL    HW263393   1.494   7.576   6.060  3.1146  0.1265  0.8066
18760SOL     OW63394   0.695   9.818   5.891 -0.1818  0.5878 -0.3493
18760SOL    HW163395   0.710   9.760   5.966  0.8141  0.5701 -0.5425
18760SOL    HW263396   0.630   9.881   5.922  1.1607  1.3864  1.0102
18761SOL     OW63397   2.125   9.160   4.817 -0.5496  0.2320  0.2007
18761SOL    HW163398   2.109   9.165   4.911 -0.4055 -0.4879  0.2669
18761SOL    HW263399   2.076   9.083   4.788  0.6386 -0.4605 -0.0398
18762SOL     OW63400   4.568  12.280   4.381 -0.1207  0.0794  0.0637
18762SOL    HW163401   4.626  12.281   4.305 -0.5517  0.9671 -0.2700
18762SOL    HW263402   4.537  12.190   4.387  0.9800 -0.3192  0.0157
18763SOL     OW63403   9.248   8.055   4.567 -0.8376  0.3888 -0.2759
18763SOL    HW163404   9.293   8.018   4.643 -1.8751  0.1613  0.2417
18763SOL    HW263405   9.263   8.150   4.574 -1.3638  0.4274  0.5232
18764SOL     OW63406   9.747   4.959  11.033 -0.7721  0.2915 -0.2989
18764SOL    HW163407   9.755   4.869  11.067  0.6195 -0.0244 -1.3466
18764SOL    HW263408   9.812   5.009  11.084 -1.6872  0.7701  0.4227
18765SOL     OW63409   7.163   4.053   0.622 -0.1165  0.2535 -0.9156
18765SOL    HW163410   7.113   4.132   0.641  0.1240  0.2769 -0.3634
18765SOL    HW263411   7.103   3.998   0.571 -0.6587  0.3417 -0.3859
18766SOL     OW63412   5.970   8.327   1.250  0.1454  0.0219 -0.4124
18766SOL    HW163413   5.903   8.362   1.192 -1.3061  0.9739  1.7126
18766SOL    HW263414   5.972   8.233   1.230 -2.1725 -0.1218 -0.2439
18767SOL     OW63415  10.225  10.787   2.500 -0.0929 -0.2577  0.3827
18767SOL    HW163416  10.294  10.825   2.555  1.2778 -0.1870 -1.2875
18767SOL    HW263417  10.225  10.842   2.422  0.0993 -2.0755 -0.9640
18768SOL     OW63418   5.187   4.771   5.457  0.2940 -0.0558  0.2855
18768SOL    HW163419   5.157   4.682   5.439 -0.0521  0.8054 -4.6356
18768SOL    HW263420   5.106   4.821   5.471  0.4161 -0.1932  1.6240
18769SOL     OW63421  10.916  12.393  10.764 -0.0897  0.4060 -0.2703
18769SOL    HW163422  10.889  12.317  10.712  0.2806  0.7182 -0.9295
18769SOL    HW263423  11.012  12.385  10.769 -0.0876  0.6063  0.0163
18770SOL     OW63424   0.500   5.756   6.679  0.1508 -0.0297  0.0728
18770SOL    HW163425   0.418   5.807   6.673 -0.0622 -0.5170 -1.7821
18770SOL    HW263426   0.564   5.809   6.632  0.9119  0.2980  1.4314
18771SOL     OW63427   0.836   5.444   2.362 -0.2794  0.5439 -0.8467
18771SOL    HW163428   0.757   5.498   2.361  0.1848  1.2229 -0.8925
18771SOL    HW263429   0.886   5.476   2.437 -0.6859 -0.8248  0.0474
18772SOL     OW63430  12.639  12.485   3.569  0.2369 -0.2149  0.5205
18772SOL    HW163431  12.562  12.527   3.606  0.0311  2.0391 -2.0865
18772SOL    HW263432  12.623  12.485   3.474  2.9722 -0.6053 -0.0383
18773SOL     OW63433  10.503   7.966  10.499  0.3240 -0.1809  0.0136
18773SOL    HW163434  10.547   7.955  10.414  1.8086 -1.0402  0.8626
18773SOL    HW263435  10.569   8.005  10.555  0.7889 -3.4181  1.9281
18774SOL     OW63436   6.758   1.755   6.049 -0.2088 -0.6080  0.0545
18774SOL    HW163437   6.767   1.842   6.009 -2.1156 -0.2628  0.2637
18774SOL    HW263438   6.755   1.695   5.974  0.6622 -0.4739 -0.1061
18775SOL     OW63439   2.974   1.676   3.530  0.4667 -0.0941 -0.4487
18775SOL    HW163440   3.045   1.705   3.472  0.7777  0.6574  0.2825
18775SOL    HW263441   3.008   1.598   3.573  1.6314  1.2580  1.2547
18776SOL     OW63442  12.250   5.242   7.336 -0.2117  0.6391  0.2673
18776SOL    HW163443  12.175   5.300   7.353  0.0500  1.2054 -0.4695
18776SOL    HW263444  12.247   5.226   7.242  0.5121  0.5538  0.2556
18777SOL     OW63445   7.269   8.244   7.204 -0.1043 -0.1312 -0.0120
18777SOL    HW163446   7.299   8.154   7.191 -1.3277 -0.6180  0.4434
18777SOL    HW263447   7.198   8.237   7.267  0.8665  1.3544  1.3245
18778SOL     OW63448   0.353   8.615   4.254  0.7298  0.1781 -0.6518
18778SOL    HW163449   0.332   8.707   4.240  0.3832 -0.0478 -1.7716
18778SOL    HW263450   0.283   8.582   4.310 -0.4852  0.0642 -2.1689
18779SOL     OW63451  11.656   4.827  12.172  0.4745  0.4319 -0.1071
18779SOL    HW163452  11.679   4.828  12.080 -0.2178  2.1470 -0.3008
18779SOL    HW263453  11.733   4.862  12.217  1.0657 -1.0279  0.0625
18780SOL     OW63454   8.974  11.675   8.951  0.2824 -0.3025  0.1956
18780SOL    HW163455   8.966  11.770   8.942  0.7082 -0.3284 -0.5169
18780SOL    HW263456   9.068  11.657   8.947  0.3463 -0.6100  2.0381
18781SOL     OW63457   2.828   0.579   9.588 -0.4003 -0.2306  0.2332
18781SOL    HW163458   2.809   0.520   9.515 -3.2709  0.5320  0.2390
18781SOL    HW263459   2.747   0.580   9.640  0.5809  1.4094  1.8628
18782SOL     OW63460  12.140   3.823   2.131 -0.4998 -0.1989 -0.0543
18782SOL    HW163461  12.142   3.756   2.063 -0.0831  0.1574 -0.3976
18782SOL    HW263462  12.186   3.898   2.093  0.9681 -0.4635  1.1126
18783SOL     OW63463   9.349  10.550  11.974 -0.1562 -0.4743 -0.1915
18783SOL    HW163464   9.423  10.525  12.030  0.9613  3.4865  0.3568
18783SOL    HW263465   9.381  10.625  11.924 -3.8087  1.5915  0.2456
18784SOL     OW63466   5.890  11.713  10.833 -0.4767  0.0028 -0.3224
18784SOL    HW163467   5.925  11.630  10.865 -1.6854  0.2957  1.9354
18784SOL    HW263468   5.949  11.779  10.869 -0.2954  0.2148 -0.9956
18785SOL     OW63469   4.761   2.019   0.727 -0.6923  0.5820 -0.5764
18785SOL    HW163470   4.793   2.009   0.816 -1.3836 -0.0668 -0.3855
18785SOL    HW263471   4.810   2.092   0.691 -2.8580  3.2955  1.5292
18786SOL     OW63472  12.956  12.793   9.694  0.0518 -0.3452 -0.3981
18786SOL    HW163473  13.035  12.840   9.667 -0.3838  0.0338 -1.0430
18786SOL    HW263474  12.951  12.805   9.789  1.4796 -1.4762 -0.1519
18787SOL     OW63475   9.045   7.821   3.612  0.3860  0.4408  0.0841
18787SOL    HW163476   9.025   7.898   3.664  0.0006  0.4589 -0.0935
18787SOL    HW263477   9.007   7.839   3.526  1.4798  0.6443 -0.3769
18788SOL     OW63478   6.614  11.384   8.235  0.1477  0.3094  0.0817
18788SOL    HW163479   6.561  11.305   8.231 -1.8559  1.6345 -1.0922
18788SOL    HW263480   6.703  11.354   8.215 -0.7696 -1.4674 -1.6644
18789SOL     OW63481   9.373   6.107  10.199 -0.3440  0.0165  0.7335
18789SOL    HW163482   9.295   6.130  10.249 -0.8841 -0.6972  0.2445
18789SOL    HW263483   9.445   6.116  10.261 -1.0208 -1.0191  1.7066
18790SOL     OW63484   3.108   4.032   6.025 -0.6776  0.0910 -0.1258
18790SOL    HW163485   3.159   4.051   6.104  0.4739 -0.6965 -0.6559
18790SOL    HW263486   3.173   4.017   5.957 -1.6436  0.3243 -1.1422
18791SOL     OW63487  10.744   1.800   0.306  0.5815  0.2758  0.4645
18791SOL    HW163488  10.748   1.894   0.288  1.0907  0.1446 -0.1437
18791SOL    HW263489  10.834   1.769   0.290  0.2085 -0.4736 -0.2622
18792SOL     OW63490  10.062   8.912   5.385 -0.2186 -0.0072 -0.0871
18792SOL    HW163491  10.030   8.900   5.475  2.7489 -1.9355  0.8301
18792SOL    HW263492  10.157   8.920   5.394  0.0652  1.0861 -2.9966
18793SOL     OW63493   2.989   2.125   1.146 -0.2508  0.4710  0.2058
18793SOL    HW163494   3.075   2.142   1.184 -0.6243  2.1699  0.4040
18793SOL    HW263495   2.991   2.033   1.122  1.9099  0.6343 -0.5187
18794SOL     OW63496   2.750   5.290   7.435 -0.1392 -0.1223 -0.1455
18794SOL    HW163497   2.719   5.376   7.408 -0.3270  0.2304  1.1072
18794SOL    HW263498   2.680   5.256   7.491  1.0733  0.1130  1.6333
18795SOL     OW63499   6.447   8.885  12.449  0.4651  0.4408  0.1763
18795SOL    HW163500   6.376   8.941  12.418  0.2651  0.7020  1.0954
18795SOL    HW263501   6.404   8.818  12.501  0.5955 -1.1571 -1.6452
18796SOL     OW63502  10.770   0.648   6.991 -0.3798  0.1722  0.1533
18796SOL    HW163503  10.721   0.643   7.072  1.0167 -0.3162  0.9957
18796SOL    HW263504  10.741   0.573   6.940  0.1845 -0.6684  1.0526
18797SOL     OW63505   9.342   4.542   6.821 -0.1705 -0.3594  0.7183
18797SOL    HW163506   9.405   4.507   6.758 -1.7458 -3.6891  0.8158
18797SOL    HW263507   9.284   4.598   6.768  1.0595  0.3526  0.0872
18798SOL     OW63508   4.194   1.930   7.183 -0.0020  0.0840 -0.2550
18798SOL    HW163509   4.204   1.844   7.141  3.4615  0.1179  0.2662
18798SOL    HW263510   4.234   1.919   7.269  0.5471  2.2188 -0.1891
18799SOL     OW63511   6.566   7.817   0.032  0.3707 -0.6549 -0.3165
18799SOL    HW163512   6.614   7.900   0.035 -0.6542 -0.0782  0.5421
18799SOL    HW263513   6.474   7.842   0.037 -0.0929 -1.7191 -2.3009
18800SOL     OW63514   5.567  12.815   0.236  0.0479  0.2634  0.1047
18800SOL    HW163515   5.511  12.756   0.288 -1.0660  0.5401 -0.7528
18800SOL    HW263516   5.557  12.785   0.146 -0.5632  1.7615 -0.3606
18801SOL     OW63517   7.680  12.278   3.056 -0.1686 -0.3240  0.4546
18801SOL    HW163518   7.593  12.316   3.038  0.2233  0.6206  0.4967
18801SOL    HW263519   7.675  12.251   3.148  0.0922  1.1999  0.9399
18802SOL     OW63520   6.470   8.145   4.200 -0.0946 -0.5435  0.2994
18802SOL    HW163521   6.390   8.146   4.149  0.4407  0.2006 -0.5459
18802SOL    HW263522   6.523   8.076   4.161  0.2334 -0.1064 -0.0430
18803SOL     OW63523   2.496   6.625   9.068  0.0342  0.3144 -0.0279
18803SOL    HW163524   2.580   6.646   9.027 -0.4369  0.4529 -0.9442
18803SOL    HW263525   2.436   6.610   8.995 -1.1692  1.8903  0.5556
18804SOL     OW63526  12.332   4.469   8.442  0.6471 -0.2228  0.1663
18804SOL    HW163527  12.288   4.427   8.368 -0.6949 -1.5601  1.6750
18804SOL    HW263528  12.263   4.489   8.504  1.8304  0.1876  1.4037
18805SOL     OW63529   9.701   3.341   8.672  0.2905 -0.0559  0.2350
18805SOL    HW163530   9.687   3.255   8.633  0.9386 -0.7318  1.4258
18805SOL    HW263531   9.755   3.323   8.750 -1.1800  1.1717  1.6031
18806SOL     OW63532   2.811   1.724   7.240  0.5184  0.4510  0.1319
18806SOL    HW163533   2.746   1.785   7.204 -0.0479  0.1840  0.6950
18806SOL    HW263534   2.848   1.680   7.163 -0.7337 -0.1655 -0.1393
18807SOL     OW63535   0.216   3.667   7.136 -1.3137 -0.4997 -0.4538
18807SOL    HW163536   0.246   3.597   7.194  0.6623 -0.9238 -1.8876
18807SOL    HW263537   0.253   3.747   7.174  0.2338 -0.8113 -1.2267
18808SOL     OW63538   6.336   3.269  12.931 -0.3954  0.3877  0.4546
18808SOL    HW163539   6.315   3.176  12.939 -0.8225  0.4864  0.4901
18808SOL    HW263540   6.252   3.312  12.919 -0.1896  0.7612  0.3246
18809SOL     OW63541   4.720   7.933   5.167 -0.9164  1.1070 -0.3725
18809SOL    HW163542   4.771   7.912   5.246  1.0315 -1.5498 -2.1528
18809SOL    HW263543   4.782   7.977   5.109 -1.9856  1.9826 -0.8856
18810SOL     OW63544  11.204   6.081   4.635  0.7752 -0.4471 -0.3148
18810SOL    HW163545  11.239   6.130   4.561 -0.4477  1.8004  0.4844
18810SOL    HW263546  11.254   6.112   4.710 -0.4322  0.0807  0.3039
18811SOL     OW63547   2.071   7.633   1.752  0.4546 -0.6477  0.3821
18811SOL    HW163548   2.130   7.691   1.704 -1.0082 -1.7898 -3.0702
18811SOL    HW263549   2.113   7.547   1.748 -0.9469 -1.3127 -1.4449
18812SOL     OW63550   7.770   5.389  10.861 -0.6474 -0.1718 -0.9058
18812SOL    HW163551   7.688   5.372  10.907  0.9530 -1.7160  1.6407
18812SOL    HW263552   7.793   5.305  10.820  0.0569  0.0195 -0.9192
18813SOL     OW63553   2.801   5.326   0.680 -0.0023 -0.2375  0.2823
18813SOL    HW163554   2.735   5.271   0.722 -1.1601  0.4510 -0.5894
18813SOL    HW263555   2.755   5.406   0.656  1.2055  0.3536 -0.1609
18814SOL     OW63556   1.249  10.876  10.802  0.0819 -0.5964 -0.4597
18814SOL    HW163557   1.316  10.875  10.870 -0.1325 -2.5930 -0.2257
18814SOL    HW263558   1.281  10.940  10.738  2.6481 -2.0819 -0.7859
18815SOL     OW63559   2.428   4.864   8.690 -0.1754 -0.2948 -0.0231
18815SOL    HW163560   2.451   4.825   8.606 -1.1607 -1.2441  0.1281
18815SOL    HW263561   2.337   4.840   8.704 -0.1676  0.2436  1.1114
18816SOL     OW63562   5.250   8.396   4.074  0.0289  0.2843 -0.8289
18816SOL    HW163563   5.282   8.423   3.988 -2.1111  2.8724 -0.9376
18816SOL    HW263564   5.167   8.351   4.055 -0.0806  0.1912 -0.1553
18817SOL     OW63565   4.977  10.145   9.338  0.5724 -0.1553 -0.6111
18817SOL    HW163566   5.061  10.187   9.316  0.9795 -1.3420 -1.4211
18817SOL    HW263567   4.940  10.119   9.253 -0.9345  0.9095 -0.3121
18818SOL     OW63568   3.295   3.745   0.740  0.2478 -0.1143 -0.6376
18818SOL    HW163569   3.319   3.752   0.647 -0.1671 -0.4301 -0.7739
18818SOL    HW263570   3.286   3.650   0.755 -1.7834  0.0079 -0.8367
18819SOL     OW63571   7.028   7.097  11.010  0.7389 -0.0972  0.0930
18819SOL    HW163572   7.081   7.040  10.955 -0.7905 -0.7766 -0.7674
18819SOL    HW263573   7.090   7.157  11.051  1.9788  0.2279 -2.1416
18820SOL     OW63574   8.566   6.883   0.330  0.3685 -0.5508 -0.4252
18820SOL    HW163575   8.645   6.881   0.276 -0.6576  2.0991 -2.2339
18820SOL    HW263576   8.564   6.971   0.366 -1.5168 -0.7139 -0.0253
18821SOL     OW63577   3.790   2.283   7.909  0.1249 -0.0904  0.2355
18821SOL    HW163578   3.706   2.298   7.954  0.9628  0.0777  1.8240
18821SOL    HW263579   3.792   2.349   7.839 -0.4914  0.8077  1.0305
18822SOL     OW63580  11.851   6.250  11.893  0.0004  0.2541 -0.4238
18822SOL    HW163581  11.901   6.200  11.958  0.6112  1.7573  0.3062
18822SOL    HW263582  11.906   6.248  11.815 -0.0272 -0.2751 -0.4374
18823SOL     OW63583   8.357  11.187   0.393  0.1958  0.5544  0.3312
18823SOL    HW163584   8.279  11.166   0.342  1.2542  0.4225 -1.3096
18823SOL    HW263585   8.414  11.110   0.383  0.5313  0.6089  1.5698
18824SOL     OW63586   7.569   9.123   5.434 -0.3533  0.3009 -0.4007
18824SOL    HW163587   7.654   9.165   5.443 -0.6540  0.8266  0.1239
18824SOL    HW263588   7.555   9.115   5.340  0.9031 -1.1215 -0.4944
18825SOL     OW63589  12.344   6.370   4.781  0.1601 -0.2807 -0.5604
18825SOL    HW163590  12.254   6.341   4.766  0.2565 -0.5205 -0.6957
18825SOL    HW263591  12.336   6.460   4.811 -0.2551 -0.9770  1.5889
18826SOL     OW63592   1.481   3.918   5.707  0.2013 -0.3506  0.2368
18826SOL    HW163593   1.473   3.991   5.645  0.5828  0.2065  0.8263
18826SOL    HW263594   1.574   3.899   5.710  0.0553 -1.2015 -0.2775
18827SOL     OW63595   0.340  10.995  11.537  0.3471 -0.3741  0.1395
18827SOL    HW163596   0.316  11.011  11.446  2.0856 -1.3795 -0.5487
18827SOL    HW263597   0.283  11.053  11.587  0.1085  1.0293 -1.6446
18828SOL     OW63598   6.404   8.270   3.597  0.0373 -0.0053 -0.1063
18828SOL    HW163599   6.466   8.257   3.668 -0.8935 -1.6952  0.4291
18828SOL    HW263600   6.456   8.312   3.528  1.2767  0.4195  1.0382
18829SOL     OW63601   9.645   5.523   2.032  0.0257  0.1076 -0.1620
18829SOL    HW163602   9.635   5.480   2.117 -1.4491  2.2103  0.7916
18829SOL    HW263603   9.738   5.544   2.027 -0.2594  2.4131  2.2584
18830SOL     OW63604  10.585   9.088  11.213  0.0965 -0.0100  0.1923
18830SOL    HW163605  10.634   9.043  11.282  0.8849 -1.7684 -1.4366
18830SOL    HW263606  10.580   9.025  11.142 -1.9132  1.2423 -0.8742
18831SOL     OW63607   0.103   6.175   8.560  0.7087 -0.5928 -0.2716
18831SOL    HW163608   0.016   6.215   8.565  1.3087  0.6159  1.7702
18831SOL    HW263609   0.086   6.085   8.531 -0.8702  0.4879 -3.1613
18832SOL     OW63610   2.825   9.481   7.310  0.1534 -0.2373 -0.1226
18832SOL    HW163611   2.743   9.473   7.358 -0.1537  0.9523 -0.4115
18832SOL    HW263612   2.893   9.463   7.376 -0.3301 -2.5904 -0.1927
18833SOL     OW63613   8.046   8.340   8.866 -0.3541  0.2323  0.3472
18833SOL    HW163614   8.027   8.282   8.940 -0.5652  0.5800  0.5687
18833SOL    HW263615   8.135   8.317   8.839  0.2749  1.0493  1.5988
18834SOL     OW63616   5.322  11.112  12.052  0.0669 -0.4541  0.2027
18834SOL    HW163617   5.311  11.169  12.128  3.2968  0.0586  0.4606
18834SOL    HW263618   5.270  11.152  11.983  0.5996  1.6705  0.9607
18835SOL     OW63619  10.658   8.441   7.419  0.1901 -0.6027  0.2401
18835SOL    HW163620  10.675   8.370   7.357 -0.3419 -0.8984  0.4276
18835SOL    HW263621  10.739   8.492   7.420  1.0644 -1.9604  1.1062
18836SOL     OW63622  10.408   8.976   1.660  0.4780  0.2215  0.2627
18836SOL    HW163623  10.428   9.024   1.740 -1.2092  1.7627 -0.1764
18836SOL    HW263624  10.489   8.979   1.610  1.3655 -0.2127  1.6145
18837SOL     OW63625   3.182   7.930   5.081 -0.5401 -0.0816 -0.1786
18837SOL    HW163626   3.210   7.983   5.007 -1.3263  0.1421 -0.3238
18837SOL    HW263627   3.195   7.987   5.157 -2.6776  0.8934 -0.4585
18838SOL     OW63628   1.831   3.065  12.597  0.2275 -0.3014  0.2115
18838SOL    HW163629   1.921   3.053  12.626  0.3459 -1.9651 -0.7307
18838SOL    HW263630   1.826   3.157  12.572  0.8901  0.5029  2.7347
18839SOL     OW63631   0.040  11.400   9.775 -0.1074 -0.1563 -0.3145
18839SOL    HW163632   0.109  11.458   9.744  0.6830 -1.8704 -2.0329
18839SOL    HW263633   0.061  11.384   9.867  1.4629 -0.1381 -0.6435
18840SOL     OW63634   0.267   0.019  10.994 -0.8621  0.2675  0.0905
18840SOL    HW163635   0.312  -0.062  10.969  0.0731  0.8949 -0.3396
18840SOL    HW263636   0.313   0.087  10.946 -0.2289  1.3296  2.1119
18841SOL     OW63637   3.198   7.415  10.026  0.2710  0.2406 -0.5025
18841SOL    HW163638   3.185   7.505  10.056  1.4410 -0.1327  1.2380
18841SOL    HW263639   3.160   7.414   9.938 -1.3265  1.9668  0.1026
18842SOL     OW63640  12.391   7.350   4.845  0.7048 -0.0099 -0.2432
18842SOL    HW163641  12.460   7.289   4.872 -0.0131 -0.5354  0.4399
18842SOL    HW263642  12.355   7.310   4.766  1.8687  0.8104 -1.2275
18843SOL     OW63643   0.084   9.369   9.647  0.2454  0.3727 -0.3192
18843SOL    HW163644   0.072   9.317   9.568 -2.0509  0.9815 -0.4280
18843SOL    HW263645   0.076   9.305   9.719 -0.9485  0.2928 -0.5023
18844SOL     OW63646   5.535   9.821   6.222 -0.2628  0.5403  0.3732
18844SOL    HW163647   5.507   9.818   6.131 -1.7313  3.9780  0.5381
18844SOL    HW263648   5.453   9.833   6.271  0.5601 -0.4918  2.0699
18845SOL     OW63649  11.087   7.845   1.844 -0.2718  0.4606 -0.1959
18845SOL    HW163650  11.026   7.842   1.917 -0.0844 -0.6339 -0.0538
18845SOL    HW263651  11.147   7.772   1.860 -1.4523 -1.1585 -2.4672
18846SOL     OW63652   5.739   6.818   0.264 -0.4242 -0.2231 -0.2828
18846SOL    HW163653   5.759   6.904   0.300  0.5844 -0.4204 -0.3344
18846SOL    HW263654   5.704   6.835   0.176 -0.3650  0.1413 -0.2345
18847SOL     OW63655  11.293   3.317  10.491 -0.0761  0.3100 -0.1564
18847SOL    HW163656  11.377   3.278  10.469  1.1581  1.3391  2.3276
18847SOL    HW263657  11.315   3.394  10.543 -2.5127 -0.8966  3.0371
18848SOL     OW63658  12.881   2.535  10.730  0.0646  0.2412 -0.7363
18848SOL    HW163659  12.831   2.576  10.660  0.5743  0.5110 -0.9434
18848SOL    HW263660  12.908   2.450  10.694 -1.6636 -0.6468 -0.0317
18849SOL     OW63661   9.727  10.825   3.543  0.2396  0.4910 -0.7193
18849SOL    HW163662   9.671  10.899   3.522  1.4149  1.2091 -1.4594
18849SOL    HW263663   9.785  10.816   3.467  0.0679 -1.2605 -0.6990
18850SOL     OW63664  10.514   2.971   1.329 -0.2752 -0.4383 -0.4377
18850SOL    HW163665  10.590   2.919   1.351  0.6189  0.9642 -0.0854
18850SOL    HW263666  10.439   2.922   1.363  0.7404 -0.1386  2.4626
18851SOL     OW63667   9.249  10.483  10.180  0.4973 -0.2507 -0.3669
18851SOL    HW163668   9.257  10.401  10.229  0.2104 -0.3441 -0.4756
18851SOL    HW263669   9.337  10.501  10.149  1.0530  0.6367  1.5300
18852SOL     OW63670  10.097  11.023   7.969 -0.1579 -0.2993 -0.0620
18852SOL    HW163671  10.034  11.005   7.899 -1.7492 -2.0237  1.6910
18852SOL    HW263672  10.084  10.952   8.032  2.4057  0.2244  1.2038
18853SOL     OW63673   3.717   8.341   8.598  0.4597 -0.8191  0.7010
18853SOL    HW163674   3.770   8.331   8.519  0.7636 -2.5809  1.0961
18853SOL    HW263675   3.628   8.351   8.566  0.8069  0.6406  0.0896
18854SOL     OW63676   5.424   4.254   9.333 -0.1597  0.1447 -0.6939
18854SOL    HW163677   5.440   4.326   9.272  0.1104  2.4322  1.8615
18854SOL    HW263678   5.508   4.207   9.336  0.2729  0.8673 -1.0635
18855SOL     OW63679   1.523  10.909   2.138  0.6382 -0.4467 -0.0275
18855SOL    HW163680   1.606  10.956   2.134  0.7425 -0.6670 -0.5556
18855SOL    HW263681   1.466  10.965   2.190  1.1801 -0.3885  0.5033
18856SOL     OW63682  11.041   6.974   6.903  0.5141  0.4302 -0.3904
18856SOL    HW163683  11.004   6.959   6.816 -0.4248  1.5277 -0.1929
18856SOL    HW263684  10.966   6.972   6.963  1.0606  0.4037  0.3164
18857SOL     OW63685   5.167   5.544   7.492 -0.0183 -0.0865 -0.0325
18857SOL    HW163686   5.102   5.504   7.550 -2.0990  0.6736 -1.7137
18857SOL    HW263687   5.234   5.579   7.552 -1.6206 -0.0641  1.8492
18858SOL     OW63688   9.492   4.134  11.074  0.1329  0.4026  0.1464
18858SOL    HW163689   9.505   4.207  11.014 -0.9315 -0.6221 -1.3926
18858SOL    HW263690   9.479   4.175  11.160  0.2689  1.9657 -0.5514
18859SOL     OW63691   2.163   5.356   7.298  0.3880  0.1136  0.0454
18859SOL    HW163692   2.125   5.440   7.271  1.1792  0.6688  0.6228
18859SOL    HW263693   2.090   5.310   7.340  0.1828  0.9467  0.6568
18860SOL     OW63694  12.844  11.253  11.835  0.7490 -0.1792  0.4495
18860SOL    HW163695  12.825  11.260  11.742  2.6851  1.3345  0.0993
18860SOL    HW263696  12.802  11.329  11.875 -0.6914 -1.2094  0.9691
18861SOL     OW63697   9.072  11.496   1.107  0.1743  0.3007  0.6149
18861SOL    HW163698   9.101  11.585   1.092 -2.4028  1.2229  0.5872
18861SOL    HW263699   8.977  11.499   1.096  0.1614 -2.9556 -1.9298
18862SOL     OW63700   1.324   1.531   4.725 -0.2672 -0.3159 -0.3291
18862SOL    HW163701   1.271   1.492   4.794 -0.3296 -0.3680 -0.4071
18862SOL    HW263702   1.272   1.521   4.646  0.1047 -0.8903 -0.5084
18863SOL     OW63703   9.270   8.910  11.798  0.0378 -0.4599 -0.6704
18863SOL    HW163704   9.301   8.820  11.811  2.1793  0.3368  0.0509
18863SOL    HW263705   9.175   8.904  11.811  0.4635 -2.0854  2.5759
18864SOL     OW63706   3.576   1.982   9.563  0.8176 -0.6434  0.1967
18864SOL    HW163707   3.671   1.992   9.557  1.0425 -2.0841  0.9633
18864SOL    HW263708   3.562   1.928   9.641 -0.6120 -0.6972 -0.0696
18865SOL     OW63709   5.404   8.256   6.826  0.1599 -0.0217  0.6035
18865SOL    HW163710   5.354   8.176   6.815 -0.5352  0.6526 -1.9528
18865SOL    HW263711   5.482   8.243   6.772  0.7244  0.5021  1.2754
18866SOL     OW63712   5.316   3.959   7.090 -0.7850 -0.1472 -0.5065
18866SOL    HW163713   5.234   3.913   7.073 -0.1356 -1.1553 -1.0136
18866SOL    HW263714   5.360   3.962   7.005  0.3546 -0.9426  0.0316
18867SOL     OW63715   3.586   3.623   0.954  0.2786  0.1217  0.3161
18867SOL    HW163716   3.557   3.607   0.865  0.4200 -1.0773  0.4701
18867SOL    HW263717   3.632   3.543   0.979  1.5883  1.0402  0.9265
18868SOL     OW63718   1.698   0.966  12.556 -0.3758  0.0490 -0.0547
18868SOL    HW163719   1.766   0.944  12.493  0.7230  1.8384  0.4334
18868SOL    HW263720   1.629   0.900  12.542  0.7141 -0.7942 -1.6954
18869SOL     OW63721   1.351   2.052  12.268 -0.2122  0.6077  0.2667
18869SOL    HW163722   1.379   2.089  12.352  0.7254 -0.5819  0.4943
18869SOL    HW263723   1.283   1.988  12.292  1.9298 -1.7360  0.4564
18870SOL     OW63724   0.219   2.748   1.176 -0.2185 -0.1934  0.2957
18870SOL    HW163725   0.197   2.823   1.232 -1.1160 -0.9344  0.9663
18870SOL    HW263726   0.143   2.691   1.181 -0.0649 -0.5599 -1.2391
18871SOL     OW63727   7.774  11.618   9.979  0.2201  0.4382  0.1683
18871SOL    HW163728   7.814  11.650  10.060 -0.5854 -1.5174  1.4157
18871SOL    HW263729   7.681  11.607  10.000  0.1410 -0.8770 -0.7461
18872SOL     OW63730   8.431  11.211  10.304 -0.1139  0.5438 -0.6389
18872SOL    HW163731   8.424  11.227  10.209 -1.1376 -0.9363 -0.8434
18872SOL    HW263732   8.442  11.116  10.312 -1.6609  0.4399  0.7770
18873SOL     OW63733   8.475   0.138   2.025  0.0797 -0.1856 -0.0311
18873SOL    HW163734   8.523   0.082   2.086  2.6127  0.6494 -1.1652
18873SOL    HW263735   8.469   0.086   1.945  2.9082  1.1975 -1.2653
18874SOL     OW63736   3.330   2.762  11.394 -0.0179 -0.2921 -0.5194
18874SOL    HW163737   3.285   2.787  11.475 -0.3359 -0.1442 -0.7416
18874SOL    HW263738   3.279   2.690  11.359 -0.6608  0.5211 -1.2863
18875SOL     OW63739   9.017   3.745   6.986 -0.8229  0.4775 -0.2130
18875SOL    HW163740   9.048   3.670   7.038 -0.4887  0.7013 -0.0844
18875SOL    HW263741   9.085   3.758   6.920  0.9078  2.8061  1.8614
18876SOL     OW63742   2.010   1.970   2.360 -0.4190 -0.5056  0.8315
18876SOL    HW163743   2.064   1.906   2.406 -0.9305 -0.9025  0.8903
18876SOL    HW263744   1.928   1.925   2.343  0.2032 -0.8341 -1.6783
18877SOL     OW63745   5.880   6.622  11.199 -0.2757  0.0499  0.3921
18877SOL    HW163746   5.879   6.661  11.287  0.4448  0.2783  0.3032
18877SOL    HW263747   5.970   6.593  11.186 -0.3128  0.2438 -0.3698
18878SOL     OW63748  11.104   9.700   0.671  0.1200 -0.1312 -0.1824
18878SOL    HW163749  11.130   9.693   0.579 -1.6455 -0.7659 -0.6654
18878SOL    HW263750  11.061   9.616   0.690  1.3732 -0.4456  1.5573
18879SOL     OW63751  11.253   2.646   3.858  0.0022  0.0895  0.3384
18879SOL    HW163752  11.245   2.728   3.907  0.9602  1.1279 -1.1768
18879SOL    HW263753  11.273   2.581   3.925  1.4878  1.5012  1.3525
18880SOL     OW63754  11.483   0.461   1.470  0.0841 -0.0595 -0.5208
18880SOL    HW163755  11.464   0.555   1.471  0.2275 -0.0339  0.2800
18880SOL    HW263756  11.402   0.420   1.499  0.2725 -0.1328 -0.0904
18881SOL     OW63757  12.140   9.599   2.359 -0.2217  0.0772  0.2373
18881SOL    HW163758  12.170   9.649   2.283  0.2268 -0.3203  0.1516
18881SOL    HW263759  12.044   9.597   2.350 -0.0513 -2.8735 -2.1942
18882SOL     OW63760   8.472   1.769  11.092 -0.0461  0.3543  0.0799
18882SOL    HW163761   8.546   1.719  11.058 -0.7440 -0.7587  0.1477
18882SOL    HW263762   8.449   1.726  11.174  0.7000  2.1298  1.2892
18883SOL     OW63763  12.097   5.445   1.051 -0.1291  0.7803 -0.4454
18883SOL    HW163764  12.037   5.375   1.026  0.4525  0.9776 -2.6586
18883SOL    HW263765  12.144   5.412   1.127 -0.4255 -0.9241 -0.9711
18884SOL     OW63766   2.087   7.957   6.869  0.1676  0.3805 -0.1390
18884SOL    HW163767   2.086   7.885   6.931 -0.0213  0.6038  0.1177
18884SOL    HW263768   1.996   7.968   6.843  0.2778  0.1201 -0.6553
18885SOL     OW63769  12.504   6.466   0.151 -0.3013 -0.0456 -0.4684
18885SOL    HW163770  12.562   6.394   0.174  0.1770  0.2484 -0.7391
18885SOL    HW263771  12.416   6.432   0.168 -0.1096 -0.8620 -1.0410
18886SOL     OW63772   3.522   9.246   5.613 -0.5765 -0.4544 -0.2984
18886SOL    HW163773   3.435   9.225   5.648 -0.8849  0.6097 -0.3861
18886SOL    HW263774   3.545   9.329   5.654 -0.2414  0.0119 -1.3875
18887SOL     OW63775   7.660  11.473   9.641  0.1428 -0.4254  0.2820
18887SOL    HW163776   7.755  11.488   9.642  0.1232 -0.0897 -1.0001
18887SOL    HW263777   7.622  11.555   9.673  0.2225  0.4227 -1.6581
18888SOL     OW63778   2.764  10.919   7.338 -0.2502  0.1011 -0.0935
18888SOL    HW163779   2.700  10.991   7.334 -1.4056 -0.9587 -1.7046
18888SOL    HW263780   2.711  10.840   7.349  0.5968 -0.9483 -2.6601
18889SOL     OW63781   4.790   8.205   7.490 -0.1263 -0.3382 -0.3800
18889SOL    HW163782   4.785   8.236   7.581 -0.5969 -1.6932  0.0891
18889SOL    HW263783   4.842   8.271   7.445  1.4857 -0.4165  1.2412
18890SOL     OW63784   9.503   3.471   7.209 -0.0324 -0.0824 -0.6862
18890SOL    HW163785   9.543   3.511   7.286  2.6642 -2.6099 -0.6321
18890SOL    HW263786   9.409   3.479   7.224  0.3930  0.2469  2.4650
18891SOL     OW63787   2.018   1.880   1.820  0.0845  0.8766 -0.1300
18891SOL    HW163788   1.969   1.816   1.872 -0.2062  1.4715  0.3368
18891SOL    HW263789   2.023   1.957   1.876  0.4357  1.2618 -0.6883
18892SOL     OW63790   8.229  12.155   5.602 -0.0501 -0.4689  0.2759
18892SOL    HW163791   8.300  12.090   5.607 -0.5861 -1.0439  0.4352
18892SOL    HW263792   8.202  12.168   5.693 -0.1061 -0.1969  0.2209
18893SOL     OW63793   4.246   6.080  10.685 -0.0476  0.5019  0.8449
18893SOL    HW163794   4.157   6.112  10.696 -0.6848 -0.0073 -2.0077
18893SOL    HW263795   4.242   5.987  10.705 -0.7062  0.0245 -1.2791
18894SOL     OW63796   8.170   5.989   4.042  0.7531 -0.0659  0.2163
18894SOL    HW163797   8.139   5.926   3.978  2.0609 -1.6386  1.0606
18894SOL    HW263798   8.092   6.011   4.094 -0.1164  0.5290 -1.2939
18895SOL     OW63799   7.341   0.466   1.300  0.3386  0.4330 -0.0833
18895SOL    HW163800   7.262   0.466   1.354 -2.5279 -0.3435 -3.8716
18895SOL    HW263801   7.356   0.559   1.280 -1.1385  0.4573 -1.2365
18896SOL     OW63802   3.678  11.856   4.463  0.3166 -0.6153  0.0858
18896SOL    HW163803   3.638  11.800   4.397 -1.5311  0.6062  0.1057
18896SOL    HW263804   3.652  11.818   4.546  1.1513 -1.1145  0.1381
18897SOL     OW63805   1.918  12.711   4.344 -0.1948  0.0633  0.4170
18897SOL    HW163806   1.865  12.646   4.390  1.2469 -1.0231  0.6050
18897SOL    HW263807   1.938  12.671   4.260  0.8941  0.1342  0.6185
18898SOL     OW63808  11.364  10.441   8.503 -0.6435  1.0487 -0.5313
18898SOL    HW163809  11.289  10.438   8.562  0.2543 -1.7889  0.6234
18898SOL    HW263810  11.335  10.393   8.425  0.0731 -0.5758  0.1551
18899SOL     OW63811   4.150  10.461  11.022  0.3617 -0.1242  0.2444
18899SOL    HW163812   4.155  10.366  11.030  1.7010  0.0152  1.5801
18899SOL    HW263813   4.195  10.494  11.100  0.5433  1.6050 -0.5394
18900SOL     OW63814   8.094  11.901   6.013 -0.0796  0.0091  0.2013
18900SOL    HW163815   8.175  11.854   6.033 -0.1054  0.3414  1.1498
18900SOL    HW263816   8.116  11.958   5.940  0.7892  0.6979  0.9721
18901SOL     OW63817   6.887   0.592   3.261 -0.1127 -0.1663  0.3721
18901SOL    HW163818   6.827   0.524   3.231 -0.1494  0.2354 -0.4768
18901SOL    HW263819   6.911   0.565   3.350  1.2365 -2.1986 -0.5474
18902SOL     OW63820  11.460   2.446   8.189 -0.0338  0.3607 -0.3557
18902SOL    HW163821  11.479   2.492   8.271  1.4462 -0.5162 -0.1631
18902SOL    HW263822  11.517   2.488   8.124 -1.2062  1.0592 -0.9680
18903SOL     OW63823   2.873   5.619   6.695 -0.1344 -0.5606  0.1929
18903SOL    HW163824   2.791   5.638   6.648  0.6675  2.8557 -0.0891
18903SOL    HW263825   2.853   5.642   6.786  0.4831  0.3307  0.1129
18904SOL     OW63826   6.527   9.191   0.135  0.4795  0.2643 -0.6669
18904SOL    HW163827   6.504   9.106   0.099 -1.2877 -0.4948  1.9504
18904SOL    HW263828   6.460   9.251   0.103  0.5986  0.2519 -0.9417
18905SOL     OW63829   7.239  11.234   3.758 -0.0371  0.1270  0.3177
18905SOL    HW163830   7.171  11.297   3.736  0.6579  0.3794 -1.3402
18905SOL    HW263831   7.193  11.151   3.768 -0.6029  0.2410 -1.0460
18906SOL     OW63832   1.143   0.816   2.595  0.2776 -0.3566 -0.2448
18906SOL    HW163833   1.164   0.863   2.676  1.5632  3.2143 -2.4146
18906SOL    HW263834   1.054   0.844   2.574  0.6148  0.1925 -0.9635
18907SOL     OW63835   5.395   3.135   3.974  0.5910  0.7327 -0.0904
18907SOL    HW163836   5.387   3.106   4.064  1.5239 -0.7264 -0.4441
18907SOL    HW263837   5.479   3.099   3.944 -0.0581  0.4986 -1.7616
18908SOL     OW63838   4.571   5.834   2.835 -1.0776  0.3790 -0.0724
18908SOL    HW163839   4.590   5.928   2.837 -1.3670  0.4552 -0.6193
18908SOL    HW263840   4.541   5.813   2.923  0.6048  0.4438  0.5556
18909SOL     OW63841   3.274  10.777   4.408  0.0307  0.0342  0.2590
18909SOL    HW163842   3.240  10.782   4.497  2.4027 -2.2009  1.4072
18909SOL    HW263843   3.218  10.714   4.364 -0.0782 -0.1834  0.7088
18910SOL     OW63844   1.265   4.984   4.734 -0.5310 -0.4331 -0.4591
18910SOL    HW163845   1.251   5.059   4.677  0.0116  1.6109  1.9203
18910SOL    HW263846   1.180   4.939   4.735 -1.2966  0.9419 -0.8559
18911SOL     OW63847   8.386   1.406   6.523  0.7882 -0.5120 -0.0702
18911SOL    HW163848   8.452   1.338   6.533  1.5131  0.3316  1.0530
18911SOL    HW263849   8.351   1.420   6.611  1.5487  1.4112 -0.0190
18912SOL     OW63850   6.225  10.976   8.382 -0.2215  0.2720  0.3460
18912SOL    HW163851   6.266  11.035   8.446 -2.2459  1.2788  0.8110
18912SOL    HW263852   6.192  11.035   8.314 -0.5508 -0.5426 -0.2049
18913SOL     OW63853  10.072   0.865   1.804 -0.3468 -0.1075  0.1946
18913SOL    HW163854  10.153   0.828   1.770  0.3329 -1.5499  3.0559
18913SOL    HW263855  10.022   0.790   1.837 -1.1658  1.0632  1.7780
18914SOL     OW63856  10.012   1.647   7.411  0.2647 -0.0520  0.6935
18914SOL    HW163857   9.986   1.576   7.469 -0.3440  0.4627  1.0634
18914SOL    HW263858   9.932   1.668   7.363  0.7219 -0.3773 -0.2481
18915SOL     OW63859   1.673   6.470  11.726 -0.1705  0.1887 -0.6576
18915SOL    HW163860   1.655   6.449  11.634  0.0841 -4.4501  0.1108
18915SOL    HW263861   1.588   6.488  11.764 -0.4821  0.3025 -1.3897
18916SOL     OW63862   4.151   8.955   4.081  0.0022 -0.0224  0.2335
18916SOL    HW163863   4.106   9.037   4.059  1.3537  0.5456 -0.5611
18916SOL    HW263864   4.178   8.966   4.172 -0.0541  0.3055  0.2132
18917SOL     OW63865   4.079   2.119   5.156 -0.3789  0.1208  0.3278
18917SOL    HW163866   4.067   2.025   5.170 -0.5031  0.4136  2.6656
18917SOL    HW263867   4.139   2.125   5.082 -0.8356 -1.7776 -0.2449
18918SOL     OW63868   4.508   4.263   5.660  0.3921  0.1632  0.4944
18918SOL    HW163869   4.529   4.169   5.659  2.3413  0.5317  1.4224
18918SOL    HW263870   4.500   4.284   5.753 -1.9115  0.6067  0.2753
18919SOL     OW63871   8.555  11.419   3.367  0.2903  0.6418 -0.0910
18919SOL    HW163872   8.481  11.372   3.328  0.9860 -1.9476  1.4251
18919SOL    HW263873   8.575  11.488   3.305 -2.2228  0.2733 -1.4380
18920SOL     OW63874   5.855  11.500   9.895  0.6756  0.3580 -0.2466
18920SOL    HW163875   5.897  11.424   9.855  0.7087 -0.1039  0.6382
18920SOL    HW263876   5.770  11.468   9.924 -0.6968  1.4858 -2.7412
18921SOL     OW63877   4.571   0.382   9.768 -0.6754 -0.3684  0.5123
18921SOL    HW163878   4.508   0.326   9.722 -3.0180  3.4206 -1.3368
18921SOL    HW263879   4.636   0.405   9.702 -1.5985  1.6082  0.2299
18922SOL     OW63880   9.867   7.273   1.260  0.2486  0.0393  0.4859
18922SOL    HW163881   9.774   7.292   1.267  0.1153 -1.1247  2.9686
18922SOL    HW263882   9.876   7.183   1.291  2.2697  0.3541  0.9740
18923SOL     OW63883   1.049   6.285   2.648  0.1392 -0.0427 -0.6537
18923SOL    HW163884   1.101   6.352   2.692  0.3522 -0.8947  0.4525
18923SOL    HW263885   1.102   6.205   2.656  0.7770 -0.0315 -3.5844
18924SOL     OW63886   6.361   9.174   5.798  0.4434 -0.1188  0.3255
18924SOL    HW163887   6.314   9.091   5.798  1.2202 -0.5722  0.4144
18924SOL    HW263888   6.305   9.233   5.849 -0.1741 -0.5462  0.1588
18925SOL     OW63889  10.098   8.848   7.322  0.0620  0.1014  0.5109
18925SOL    HW163890  10.066   8.796   7.396 -1.1770  0.5019  0.2798
18925SOL    HW263891  10.021   8.863   7.268  0.9767 -0.3651 -1.0031
18926SOL     OW63892   4.158  11.732   8.386  0.3640  0.8403  0.4576
18926SOL    HW163893   4.229  11.711   8.325 -1.0825  0.0192 -1.0222
18926SOL    HW263894   4.147  11.652   8.437 -0.5584  0.3702 -0.4460
18927SOL     OW63895  11.713   1.354   6.779  0.1708  0.3174 -0.2954
18927SOL    HW163896  11.621   1.326   6.781  0.4670 -0.6593  1.4709
18927SOL    HW263897  11.730   1.388   6.867  1.7703 -0.4196 -0.2845
18928SOL     OW63898  10.160   5.015   6.902  0.0041 -0.0070 -0.5756
18928SOL    HW163899  10.205   5.006   6.818  1.5967  1.0491  0.1207
18928SOL    HW263900  10.223   4.984   6.967 -0.8884 -0.0306  0.3118
18929SOL     OW63901   4.796   2.676   3.722 -0.5383  0.0886 -0.2327
18929SOL    HW163902   4.718   2.687   3.667  0.6626  0.4421 -1.9469
18929SOL    HW263903   4.768   2.617   3.792 -2.4282  0.4723 -0.6231
18930SOL     OW63904   9.836   8.000   0.260  0.5518 -0.0009 -0.2125
18930SOL    HW163905   9.806   7.925   0.312 -2.1748  1.0403 -0.1321
18930SOL    HW263906   9.885   8.055   0.321  0.2176 -0.3857  0.4056
18931SOL     OW63907   2.267  11.736  10.570 -0.3642 -1.1158 -0.1779
18931SOL    HW163908   2.273  11.818  10.519 -0.4371 -1.8264 -1.3724
18931SOL    HW263909   2.293  11.761  10.658 -0.9275  0.3227 -0.3886
18932SOL     OW63910   5.457   0.386   4.496 -0.0065  0.4208 -0.1022
18932SOL    HW163911   5.450   0.298   4.532 -1.3123 -0.2398 -1.8314
18932SOL    HW263912   5.482   0.373   4.404  2.6598  1.9933  0.2835
18933SOL     OW63913   0.794   9.772   9.701 -0.8294  0.0168 -0.4757
18933SOL    HW163914   0.886   9.795   9.704 -0.6162 -0.8527  0.5650
18933SOL    HW263915   0.766   9.773   9.792 -1.7727 -0.0085 -0.7517
18934SOL     OW63916  11.728  12.867   2.240  0.1302 -0.1258 -0.2793
18934SOL    HW163917  11.773  12.824   2.168  0.4392 -1.3900  0.6489
18934SOL    HW263918  11.655  12.808   2.262 -0.4093  0.6103 -0.0346
18935SOL     OW63919   6.492   2.407  11.321  0.2111 -0.2972 -0.3525
18935SOL    HW163920   6.412   2.376  11.363  0.9613 -0.7924  0.7817
18935SOL    HW263921   6.466   2.430  11.232 -1.0589 -1.0304 -0.1927
18936SOL     OW63922   1.359   1.550   2.417 -0.1586  0.3926 -0.0480
18936SOL    HW163923   1.268   1.543   2.389 -0.3261 -1.5452  0.8396
18936SOL    HW263924   1.355   1.605   2.495 -0.1605  2.6049 -1.5107
18937SOL     OW63925   4.165  11.309   0.969 -0.1793 -0.6682  0.0491
18937SOL    HW163926   4.133  11.394   0.938 -1.8585 -1.8766 -1.7756
18937SOL    HW263927   4.201  11.267   0.891  0.9079 -1.5272  0.9807
18938SOL     OW63928   1.580   8.132   5.884  0.2557  0.0365  0.1316
18938SOL    HW163929   1.618   8.044   5.880 -1.1453 -0.5441 -1.9252
18938SOL    HW263930   1.656   8.191   5.880  1.2526 -1.0149  2.0620
18939SOL     OW63931   6.278   2.173  10.523 -0.3144  0.0271 -0.5544
18939SOL    HW163932   6.366   2.172  10.485  0.4761 -1.5646  1.1430
18939SOL    HW263933   6.242   2.259  10.500  2.6962  1.8211  0.8741
18940SOL     OW63934   1.629   3.405   4.256 -0.1108  0.1598  0.0412
18940SOL    HW163935   1.623   3.400   4.351  1.4891  1.3386  0.2480
18940SOL    HW263936   1.541   3.382   4.225 -0.7200 -0.0387  1.7955
18941SOL     OW63937   8.055   9.404  10.148  0.5990 -0.5660 -0.6427
18941SOL    HW163938   8.106   9.475  10.108 -2.6031  3.6627  1.8582
18941SOL    HW263939   8.079   9.405  10.240 -1.6601 -0.5122  0.0141
18942SOL     OW63940   3.498  12.387   7.655 -0.5167 -0.2182  0.1296
18942SOL    HW163941   3.437  12.426   7.717  0.3620  0.2937  0.7024
18942SOL    HW263942   3.584  12.422   7.681 -0.3196  1.5770 -2.5889
18943SOL     OW63943   6.627   4.018   4.846  0.2220 -0.3239 -0.1758
18943SOL    HW163944   6.720   4.031   4.825  0.0907 -1.7167 -1.8637
18943SOL    HW263945   6.611   3.925   4.827 -1.5020 -0.1401  0.1975
18944SOL     OW63946   6.046  12.448   5.818 -0.0936  0.4457 -0.2268
18944SOL    HW163947   6.084  12.422   5.734 -1.7332 -0.2011 -0.8219
18944SOL    HW263948   5.997  12.371   5.846 -0.1008  0.8853  1.0133
18945SOL     OW63949  10.046   4.578   0.700 -0.5134 -0.7493  0.0570
18945SOL    HW163950  10.032   4.485   0.717 -1.6485 -0.3398  1.6165
18945SOL    HW263951  10.032   4.620   0.785  1.1922  0.7396 -0.3289
18946SOL     OW63952   1.413   1.112  10.240  0.5347 -0.0653  0.0003
18946SOL    HW163953   1.457   1.185  10.195  0.0660  0.2190  0.0014
18946SOL    HW263954   1.374   1.151  10.317  2.0531 -0.7067  1.1488
18947SOL     OW63955   7.928  12.513   7.883 -0.0744 -0.6660  0.0878
18947SOL    HW163956   7.986  12.493   7.809 -0.6165 -1.6552 -0.1059
18947SOL    HW263957   7.843  12.531   7.842 -0.2208 -0.5587  0.4344
18948SOL     OW63958   0.950   3.649   9.159  0.0587 -0.1461 -0.5173
18948SOL    HW163959   1.013   3.685   9.096  0.1163 -0.7801 -0.8216
18948SOL    HW263960   0.884   3.718   9.169  0.3608  0.1881 -0.8254
18949SOL     OW63961   6.882   1.020   2.743 -1.1863 -0.4859  0.2795
18949SOL    HW163962   6.898   0.931   2.713  0.3226 -0.5811  1.2083
18949SOL    HW263963   6.877   1.013   2.839  0.6729  0.5753  0.5287
18950SOL     OW63964  10.402   9.480   6.132  0.2208  0.0950 -0.1173
18950SOL    HW163965  10.336   9.458   6.065 -0.3430  1.5035 -0.0579
18950SOL    HW263966  10.426   9.571   6.113  0.4938  0.3211  1.2410
18951SOL     OW63967  12.020   7.469   9.649 -0.2837 -0.2428  0.3414
18951SOL    HW163968  12.025   7.385   9.602 -0.1754  0.7045 -1.4383
18951SOL    HW263969  11.989   7.445   9.737 -0.2447 -2.1414 -0.1021
18952SOL     OW63970  11.319   5.169  11.274  0.2245  0.0932  0.5530
18952SOL    HW163971  11.281   5.216  11.348 -3.1271  0.0073 -0.9135
18952SOL    HW263972  11.331   5.235  11.206 -1.9004 -0.5573 -0.5713
18953SOL     OW63973   9.884   9.738   5.161  0.2419 -0.2230  0.8046
18953SOL    HW163974   9.879   9.762   5.254  0.7234  0.6000  0.6160
18953SOL    HW263975   9.977   9.731   5.142  0.1587  0.0381  0.2731
18954SOL     OW63976   6.642  10.031   9.207  0.5084  0.1160 -0.2746
18954SOL    HW163977   6.731  10.049   9.174  0.7974 -0.3057  0.2621
18954SOL    HW263978   6.623  10.105   9.265  1.5659 -1.0715  1.6733
18955SOL     OW63979   8.004   3.266   7.671  0.0926  0.5382  0.3439
18955SOL    HW163980   7.916   3.235   7.691  0.0632  0.9205  0.8315
18955SOL    HW263981   7.994   3.361   7.662  0.5291  0.6304  0.8287
18956SOL     OW63982   7.506   6.294   8.439  0.4435  0.1001  0.6921
18956SOL    HW163983   7.417   6.294   8.404  0.4178  0.7667  0.7291
18956SOL    HW263984   7.562   6.286   8.362  0.3423 -1.0372  0.7308
18957SOL     OW63985   8.460  10.258   3.507 -0.5118  0.3238  0.7150
18957SOL    HW163986   8.375  10.247   3.548 -0.7155 -1.0264 -0.0284
18957SOL    HW263987   8.448  10.226   3.418  0.3272  1.7364  0.0576
18958SOL     OW63988   6.823  11.387   9.070  0.2542 -0.3829 -0.2179
18958SOL    HW163989   6.745  11.353   9.025  2.0262 -2.5287 -1.8794
18958SOL    HW263990   6.854  11.314   9.122  0.6031  0.8013  1.2991
18959SOL     OW63991   6.481   5.986   2.020  0.0334 -0.3881  0.4677
18959SOL    HW163992   6.499   6.046   2.093 -2.8593  1.4894 -0.2032
18959SOL    HW263993   6.496   6.038   1.942 -1.6866 -0.7474 -0.1506
18960SOL     OW63994   7.905   0.103   2.876  0.0071  0.6027  0.4423
18960SOL    HW163995   7.979   0.055   2.912 -1.3747 -1.1765  1.0591
18960SOL    HW263996   7.836   0.093   2.942 -0.5339  3.0507  0.3559
18961SOL     OW63997  11.784  10.247   4.743  0.4710  0.5784 -0.1684
18961SOL    HW163998  11.839  10.323   4.763 -0.6647  1.6514 -0.9217
18961SOL    HW263999  11.747  10.222   4.828  1.3133  0.4721  0.1797
18962SOL     OW64000  11.192   5.127   1.955 -0.0637 -0.1765 -0.0335
18962SOL    HW164001  11.149   5.149   1.873 -0.0297  0.2176  0.0502
18962SOL    HW264002  11.151   5.045   1.983  0.0554 -0.4057 -0.5325
18963SOL     OW64003  12.094   1.954   3.876  0.7765 -0.2252  0.1500
18963SOL    HW164004  12.173   1.955   3.929 -0.0688  0.8707  1.4748
18963SOL    HW264005  12.032   1.901   3.926  0.5690 -0.8407 -0.7297
18964SOL     OW64006   7.230   4.149  12.246  0.2019 -0.3647  0.0905
18964SOL    HW164007   7.302   4.181  12.301  0.9220  1.6332 -1.8487
18964SOL    HW264008   7.272   4.091  12.183 -0.2132 -0.7109  0.1275
18965SOL     OW64009   0.213   0.238   6.701 -0.2614 -0.0331  0.1382
18965SOL    HW164010   0.252   0.267   6.619  1.2526  4.7795  2.2422
18965SOL    HW264011   0.133   0.290   6.710 -0.0021  0.1193  2.0002
18966SOL     OW64012   7.300   1.991   9.581  0.0171  0.5622  0.2756
18966SOL    HW164013   7.220   2.024   9.622 -0.3037 -0.4957  0.5258
18966SOL    HW264014   7.371   2.035   9.627 -0.4227  1.9151 -0.3034
18967SOL     OW64015   5.897   4.946  11.508  0.2069 -0.3154  0.7125
18967SOL    HW164016   5.952   4.922  11.433  0.0530 -0.4539  0.6458
18967SOL    HW264017   5.948   4.918  11.584  0.0029 -0.8982  0.6346
18968SOL     OW64018   1.524   7.520   9.245 -0.2393  0.7344 -0.0910
18968SOL    HW164019   1.616   7.542   9.231 -0.1594  0.4530 -0.0173
18968SOL    HW264020   1.476   7.599   9.220  0.0396  0.9670  0.1032
18969SOL     OW64021   5.683   0.921   9.401  0.3559 -0.0410 -0.2424
18969SOL    HW164022   5.750   0.968   9.353 -0.9399  1.9269 -0.2333
18969SOL    HW264023   5.631   0.878   9.334  1.3297 -1.2377 -0.2698
18970SOL     OW64024   4.005   5.789   1.644  0.2857 -0.0863 -0.6633
18970SOL    HW164025   4.055   5.863   1.679  1.2464 -0.7163 -0.6793
18970SOL    HW264026   3.989   5.812   1.553 -0.6071  0.7076 -0.3307
18971SOL     OW64027   1.972   5.052   1.457 -0.4024  0.2672 -0.3248
18971SOL    HW164028   1.939   5.134   1.421  0.8773 -0.0902 -2.4768
18971SOL    HW264029   1.984   4.995   1.381  0.4461 -1.2929  0.9144
18972SOL     OW64030   3.134   7.399   9.755  0.5829  0.0556 -0.8684
18972SOL    HW164031   3.071   7.389   9.683  0.6278 -0.1958 -0.8718
18972SOL    HW264032   3.217   7.368   9.719  0.2857 -1.6156 -0.2216
18973SOL     OW64033   3.491   1.160   0.428 -0.2716  0.1298 -0.0134
18973SOL    HW164034   3.559   1.196   0.371  0.3671  0.2704  0.8102
18973SOL    HW264035   3.463   1.080   0.384  1.0941 -0.4277  0.0647
18974SOL     OW64036   2.842   9.118   7.678 -0.7927  0.1107 -0.1063
18974SOL    HW164037   2.920   9.124   7.623 -0.8850  0.2132 -0.2249
18974SOL    HW264038   2.775   9.080   7.621 -1.2414  1.3575 -0.4383
18975SOL     OW64039   6.399   6.633   1.948 -0.1968  0.0746  0.6010
18975SOL    HW164040   6.307   6.645   1.925  0.0037  1.8974  0.6044
18975SOL    HW264041   6.427   6.718   1.983  1.9010  0.1022 -0.9025
18976SOL     OW64042   3.110   9.431  10.744  0.0049 -0.1246 -0.0004
18976SOL    HW164043   3.077   9.342  10.755  2.3646 -0.8659  1.9890
18976SOL    HW264044   3.058   9.484  10.804 -0.5178 -0.4222 -0.1907
18977SOL     OW64045   3.695   4.026  11.675  0.1032  0.2047 -0.0609
18977SOL    HW164046   3.741   4.045  11.593  0.3981 -0.3266 -0.0191
18977SOL    HW264047   3.646   3.946  11.657 -0.4952  0.5412  0.0235
18978SOL     OW64048  12.177   1.062   3.364 -0.0667  0.1023  0.1718
18978SOL    HW164049  12.112   1.008   3.410 -0.3755 -1.3437 -1.8413
18978SOL    HW264050  12.193   1.135   3.423 -1.1837 -1.1253  2.1139
18979SOL     OW64051   8.943  10.944   9.753 -0.5760 -0.3452 -0.4102
18979SOL    HW164052   8.930  11.013   9.688 -0.1591  0.6759  0.5587
18979SOL    HW264053   9.008  10.979   9.814  1.5473 -2.5536 -1.2281
18980SOL     OW64054   9.210   0.640   6.878 -0.1602  0.6792 -0.0984
18980SOL    HW164055   9.235   0.665   6.967 -1.8391  1.7078  0.1379
18980SOL    HW264056   9.281   0.584   6.847  0.9415  1.1298  1.5154
18981SOL     OW64057   7.922   8.074   9.324  0.0740 -0.0769  0.6597
18981SOL    HW164058   7.930   7.980   9.308 -0.1544 -0.0170  0.2035
18981SOL    HW264059   7.932   8.082   9.419  0.3069 -0.5387  0.6777
18982SOL     OW64060   9.461   0.035   8.905  0.8217  0.2485  0.1058
18982SOL    HW164061   9.528   0.061   8.968  1.2990 -1.1697  0.2081
18982SOL    HW264062   9.381   0.026   8.957  1.0734 -0.3024  0.4016
18983SOL     OW64063  11.212   5.426   5.201  0.4697  0.9549  0.4478
18983SOL    HW164064  11.303   5.402   5.183  0.8613  1.3839  1.7513
18983SOL    HW264065  11.213   5.522   5.204  0.0794  0.9470  0.9351
18984SOL     OW64066   2.968   2.244  12.762 -0.3017  0.3204 -0.2901
18984SOL    HW164067   2.900   2.181  12.788 -0.4327  0.9553  1.0181
18984SOL    HW264068   3.050   2.195  12.772 -0.4718  0.0206 -0.3564
18985SOL     OW64069  10.409   1.682  10.108  0.3484 -0.2646 -0.4483
18985SOL    HW164070  10.313   1.679  10.107  0.3176  0.3293 -0.2613
18985SOL    HW264071  10.436   1.592  10.097 -0.2429 -0.5265  0.1566
18986SOL     OW64072   9.736  10.362   4.389 -0.3104 -0.1913 -0.3668
18986SOL    HW164073   9.784  10.349   4.308  0.9169  0.4208  0.2472
18986SOL    HW264074   9.700  10.276   4.410  1.2123 -0.8664 -0.4115
18987SOL     OW64075   9.611   1.785  11.695 -0.1522 -0.0442 -0.0166
18987SOL    HW164076   9.594   1.741  11.612 -0.0348 -1.8390  0.8605
18987SOL    HW264077   9.703   1.767  11.713 -0.2982 -0.0717  0.7281
18988SOL     OW64078   1.960   7.738   5.658 -0.3820 -0.0546 -0.3005
18988SOL    HW164079   1.962   7.794   5.735  1.3727 -2.2855  1.4347
18988SOL    HW264080   1.869   7.741   5.628 -1.7397 -0.7447  3.2219
18989SOL     OW64081   6.086   2.812   0.213 -0.2222  0.6250  0.3894
18989SOL    HW164082   6.037   2.873   0.269  0.6813 -0.4196  2.4382
18989SOL    HW264083   6.177   2.839   0.222 -0.1112  0.7957 -1.0906
18990SOL     OW64084   3.295   1.739   3.754  0.4544 -0.2510  0.1800
18990SOL    HW164085   3.341   1.663   3.789  0.5244  0.3519  1.4291
18990SOL    HW264086   3.203   1.712   3.752  0.1657  0.3650  2.7563
18991SOL     OW64087   6.368   4.784   4.429 -0.0729 -0.3617  0.4763
18991SOL    HW164088   6.341   4.762   4.518 -0.8769 -1.0326  0.0861
18991SOL    HW264089   6.290   4.824   4.390  0.5094  0.6050  0.3014
18992SOL     OW64090   5.482   1.584   0.657  0.2567  0.5638 -0.1775
18992SOL    HW164091   5.408   1.525   0.669 -0.2886  1.4058  0.7775
18992SOL    HW264092   5.442   1.665   0.624  1.0858  0.1477 -2.3519
18993SOL     OW64093   2.751   0.172  11.544 -0.4559 -0.2322 -0.0553
18993SOL    HW164094   2.758   0.149  11.637  0.9963 -0.8735 -0.2981
18993SOL    HW264095   2.699   0.253  11.544 -0.3262 -0.1131  1.3292
18994SOL     OW64096  12.073   3.282  11.155  0.0523  0.7046  0.3030
18994SOL    HW164097  12.135   3.250  11.090 -0.5513  2.1838 -1.0761
18994SOL    HW264098  12.047   3.204  11.204 -0.0467 -0.6313 -1.7523
18995SOL     OW64099   7.309   4.400   9.620  0.2073 -0.2308 -0.2277
18995SOL    HW164100   7.238   4.345   9.588 -1.4112  0.4902  1.9132
18995SOL    HW264101   7.342   4.355   9.698  0.3295  0.7337  0.2971
18996SOL     OW64102   5.004  10.297   3.155 -0.0548 -0.0170 -0.1262
18996SOL    HW164103   5.090  10.332   3.179 -0.4751 -0.3130  2.0691
18996SOL    HW264104   4.961  10.370   3.110  0.7391  0.7440  0.2931
18997SOL     OW64105   7.303   5.588   1.672 -0.5048 -0.0380  0.5463
18997SOL    HW164106   7.389   5.622   1.699 -0.0266 -0.9584  0.2432
18997SOL    HW264107   7.248   5.598   1.750  0.1457 -0.3165  1.0522
18998SOL     OW64108   2.820   6.019  11.395  0.1651  0.2986  0.0433
18998SOL    HW164109   2.817   5.931  11.360  2.4054 -0.1686  0.8202
18998SOL    HW264110   2.779   6.012  11.481  0.9082 -0.1655  0.3730
18999SOL     OW64111   4.429   1.490   9.186 -0.7223  0.3312  0.2185
18999SOL    HW164112   4.468   1.454   9.107  0.4512  2.4800 -0.2625
18999SOL    HW264113   4.396   1.414   9.234  3.5204 -1.6872  0.3727
19000SOL     OW64114   2.255   5.898  11.536  0.2596 -0.2462 -0.1903
19000SOL    HW164115   2.223   5.858  11.617  2.1219  0.9519  1.2076
19000SOL    HW264116   2.266   5.991  11.557 -1.3719  0.5581 -2.5416
19001SOL     OW64117   3.050   5.331   8.813 -0.4370  0.3091 -0.0429
19001SOL    HW164118   3.077   5.283   8.735 -0.4009 -1.0738  0.7895
19001SOL    HW264119   3.090   5.283   8.886 -2.3521  0.1997  0.9876
19002SOL     OW64120   1.802   1.059   7.209 -0.8332 -0.4498 -0.0616
19002SOL    HW164121   1.893   1.085   7.224 -1.7726  2.9622  0.6141
19002SOL    HW264122   1.799   1.034   7.117  0.8903 -1.2552  0.0705
19003SOL     OW64123   5.559   0.332   8.630 -0.0875  0.1336 -0.3555
19003SOL    HW164124   5.553   0.427   8.644  3.6772  0.4327  0.2990
19003SOL    HW264125   5.586   0.324   8.538  0.5755 -0.1830 -0.1424
19004SOL     OW64126  11.785   8.466   1.495  0.1424 -0.0023 -0.1102
19004SOL    HW164127  11.731   8.536   1.532 -0.0194  0.0069 -0.3637
19004SOL    HW264128  11.805   8.410   1.570  0.1054  0.2062  0.0563
19005SOL     OW64129  10.078   5.376  10.162 -0.4103  0.3018  0.1030
19005SOL    HW164130  10.049   5.417  10.081 -0.2334  0.7712  0.2779
19005SOL    HW264131  10.164   5.413  10.180  0.1869 -0.8567 -0.2473
19006SOL     OW64132   4.894  11.356   4.439  0.1212 -0.4548 -0.0679
19006SOL    HW164133   4.975  11.365   4.389  1.1855 -0.8623  1.5059
19006SOL    HW264134   4.902  11.271   4.483 -1.6403 -0.9779 -0.6691
19007SOL     OW64135   0.537   4.080   0.984 -0.1490  0.2308 -0.4153
19007SOL    HW164136   0.517   4.109   1.073  1.1447  1.6984 -0.5738
19007SOL    HW264137   0.577   3.994   0.995  0.1395  0.4709  0.4293
19008SOL     OW64138   4.346   5.215   6.863  0.1192  0.0845 -0.1740
19008SOL    HW164139   4.353   5.191   6.771  0.3490 -1.5247  0.2334
19008SOL    HW264140   4.263   5.177   6.892 -1.1121  2.5193 -0.2227
19009SOL     OW64141  11.498   8.620   2.731  0.0865 -0.8568 -0.2939
19009SOL    HW164142  11.480   8.545   2.788  1.3029 -0.3371  0.8198
19009SOL    HW264143  11.494   8.696   2.789 -2.1807  0.1209 -1.6024
19010SOL     OW64144  11.783   0.501   6.289 -0.0169 -0.2737 -0.6746
19010SOL    HW164145  11.792   0.476   6.197 -0.0563 -0.5683 -0.5999
19010SOL    HW264146  11.713   0.445   6.323  1.6555 -1.9730  0.1695
19011SOL     OW64147   8.165   8.746   8.868  0.2076  0.0984  0.2646
19011SOL    HW164148   8.162   8.716   8.777  1.9288 -0.3084  0.3091
19011SOL    HW264149   8.202   8.673   8.916  2.5968  1.4669  0.6958
19012SOL     OW64150   6.311  12.126   2.779  0.4022 -1.2180 -0.0783
19012SOL    HW164151   6.226  12.098   2.814 -0.4068  1.5920  0.3895
19012SOL    HW264152   6.363  12.149   2.856  0.4630  0.0231 -0.4689
19013SOL     OW64153   4.949  12.793   1.093 -0.0833 -0.4678  0.2824
19013SOL    HW164154   5.026  12.775   1.146  0.2369 -0.4754 -0.1796
19013SOL    HW264155   4.940  12.888   1.095  0.5443 -0.3792 -0.4893
19014SOL     OW64156  10.420  11.500   2.364  0.3622 -0.3396  0.0243
19014SOL    HW164157  10.413  11.425   2.305 -0.7962  1.1012 -1.7752
19014SOL    HW264158  10.443  11.574   2.308 -0.0804  0.9737  1.4851
19015SOL     OW64159   3.075   2.849  10.796  0.0788 -0.6421  0.0806
19015SOL    HW164160   2.994   2.877  10.838 -0.4608 -1.7214 -0.1798
19015SOL    HW264161   3.058   2.860  10.702  0.2874 -0.7321  0.0318
19016SOL     OW64162   0.304   2.987   2.194  0.2951 -0.3758 -0.2694
19016SOL    HW164163   0.332   2.899   2.221  1.6387  0.7271  2.2522
19016SOL    HW264164   0.231   3.007   2.254  2.2735  1.5071  1.6895
19017SOL     OW64165  11.432   0.865   3.511  0.1584 -0.5092  0.1000
19017SOL    HW164166  11.375   0.874   3.587  0.4571  2.4092  0.0929
19017SOL    HW264167  11.449   0.955   3.483  1.9034 -1.4144 -2.0539
19018SOL     OW64168   6.249   3.391  12.158  0.3116 -0.3278 -0.0077
19018SOL    HW164169   6.342   3.384  12.178  1.3304 -0.3569 -3.9992
19018SOL    HW264170   6.209   3.317  12.204  2.4297 -1.0732  0.7566
19019SOL     OW64171   3.944   5.771   2.317 -0.3417 -0.2169  0.4527
19019SOL    HW164172   3.928   5.686   2.357 -1.5675  0.2081  0.8907
19019SOL    HW264173   3.952   5.752   2.223  3.1679 -1.3062  0.8192
19020SOL     OW64174   8.277   8.645   2.507 -0.0651 -0.1623  0.0121
19020SOL    HW164175   8.326   8.570   2.474 -1.0667 -0.0596 -1.8304
19020SOL    HW264176   8.197   8.608   2.544 -0.4369 -0.0360 -0.6547
19021SOL     OW64177   9.173   8.270   2.001 -0.4570  0.2855 -0.3729
19021SOL    HW164178   9.083   8.243   1.983 -0.4039 -0.3977  0.3116
19021SOL    HW264179   9.199   8.217   2.076 -0.0821  1.7343  0.5655
19022SOL     OW64180  11.881   5.608   3.281  0.5384 -0.0525  0.2591
19022SOL    HW164181  11.920   5.619   3.194  1.7212 -0.6507  0.6905
19022SOL    HW264182  11.894   5.693   3.323  0.2247  0.1488 -0.0481
19023SOL     OW64183   3.681   7.112   0.375 -0.1644 -0.2107 -0.2556
19023SOL    HW164184   3.755   7.168   0.349 -2.0887  2.5205 -0.3843
19023SOL    HW264185   3.696   7.094   0.467  1.1408 -0.5519 -0.5122
19024SOL     OW64186   9.206  12.724   3.714  0.4602 -0.3630  0.1751
19024SOL    HW164187   9.113  12.740   3.730  0.2303  0.2948 -1.6429
19024SOL    HW264188   9.209  12.655   3.648  1.2677 -0.3372  0.1663
19025SOL     OW64189  10.840  10.892  10.979 -0.5421 -0.0657 -0.3540
19025SOL    HW164190  10.836  10.958  10.910 -1.4993  1.0650  0.7433
19025SOL    HW264191  10.750  10.886  11.011 -0.3097 -1.3201  0.1174
19026SOL     OW64192   8.379   8.608   4.937 -0.7834 -0.3816 -0.1366
19026SOL    HW164193   8.319   8.572   5.001 -0.9723  0.6459  0.2778
19026SOL    HW264194   8.455   8.636   4.988  0.0891 -1.6649 -0.6490
19027SOL     OW64195  12.601   1.189   5.675  0.2189  0.3832  0.4935
19027SOL    HW164196  12.687   1.153   5.655 -0.5333 -0.6079 -1.1842
19027SOL    HW264197  12.543   1.113   5.678 -1.3344  1.2678 -2.6536
19028SOL     OW64198  12.390   9.183   0.216  0.4814 -0.9715  0.4284
19028SOL    HW164199  12.358   9.096   0.191  0.0204 -0.9501  0.9484
19028SOL    HW264200  12.385   9.184   0.311 -1.4092  0.3528  0.3455
19029SOL     OW64201   1.478   3.506   1.083  0.4622  0.9674  0.1453
19029SOL    HW164202   1.434   3.534   1.002  0.7082  0.7646 -0.0609
19029SOL    HW264203   1.555   3.457   1.053 -0.3740 -0.6278  0.4859
19030SOL     OW64204   8.014  12.338   5.356  0.6460  0.2218  0.2486
19030SOL    HW164205   8.079  12.283   5.313  1.8510  0.3108  1.8657
19030SOL    HW264206   7.975  12.388   5.284  0.5195 -1.6703 -1.0803
19031SOL     OW64207   9.979   1.155  11.087 -0.4957  0.0023  0.1850
19031SOL    HW164208   9.927   1.175  11.010 -2.0728 -0.6995  1.0036
19031SOL    HW264209   9.993   1.060  11.082 -0.1980  0.0283  0.5113
19032SOL     OW64210   3.449   6.536   4.000  0.3952 -0.0431  0.1922
19032SOL    HW164211   3.454   6.465   4.063 -1.5858 -0.4564 -0.0351
19032SOL    HW264212   3.503   6.508   3.927  0.6035 -0.7542  0.6138
19033SOL     OW64213  11.578   3.783   2.185  0.4908  0.6375 -0.1910
19033SOL    HW164214  11.556   3.776   2.278  0.2475 -2.0794 -0.3874
19033SOL    HW264215  11.494   3.780   2.140  0.7413 -0.5835 -0.5908
19034SOL     OW64216   7.677  10.945   8.582 -0.5191 -0.3307 -0.3480
19034SOL    HW164217   7.740  11.004   8.622 -0.1961  0.0128 -1.3429
19034SOL    HW264218   7.729  10.887   8.527 -1.0192 -0.3582 -0.8036
19035SOL     OW64219   5.214  10.111  10.342  0.3569  0.1600  0.6809
19035SOL    HW164220   5.206  10.017  10.327  1.0094  0.3314 -0.8841
19035SOL    HW264221   5.166  10.126  10.424  1.9976 -1.8487  2.1256
19036SOL     OW64222   1.795   2.976   4.647 -0.0973  0.0328 -0.5882
19036SOL    HW164223   1.872   2.921   4.632  0.7681  1.1837 -0.4740
19036SOL    HW264224   1.747   2.973   4.564  0.3386 -0.2952 -0.8325
19037SOL     OW64225   1.247   2.344   9.667  0.3998 -0.1131  0.3749
19037SOL    HW164226   1.245   2.370   9.575  0.1688 -2.0402 -0.2143
19037SOL    HW264227   1.226   2.251   9.666 -1.9703  0.2866  2.5796
19038SOL     OW64228   9.758   0.826  10.814 -0.0193 -0.1626 -0.0803
19038SOL    HW164229   9.813   0.796  10.742  1.8901  2.2355  0.2594
19038SOL    HW264230   9.673   0.843  10.773  0.3515 -1.0376 -1.2807
19039SOL     OW64231  12.305  10.938   1.633 -0.2791  0.2083  0.0322
19039SOL    HW164232  12.353  10.882   1.572 -1.2329  0.4997 -1.0221
19039SOL    HW264233  12.281  10.881   1.705 -0.7055 -0.6111 -0.7373
19040SOL     OW64234   5.617  10.990   7.348 -0.1943 -0.3942 -0.6895
19040SOL    HW164235   5.697  10.940   7.328 -0.6341 -1.0842 -0.7676
19040SOL    HW264236   5.601  11.041   7.269  0.3714  0.0281 -0.5369
19041SOL     OW64237   9.581  11.650   3.362 -0.3663  0.8567 -0.1814
19041SOL    HW164238   9.514  11.706   3.323 -1.0009 -0.2283 -0.6871
19041SOL    HW264239   9.552  11.638   3.453  0.7896  2.8794  0.5246
19042SOL     OW64240   3.770   7.472   9.477  0.1722 -0.4269  0.5149
19042SOL    HW164241   3.833   7.528   9.430  0.8815 -0.8618  0.9364
19042SOL    HW264242   3.784   7.385   9.440  0.1779 -0.6228  0.9813
19043SOL     OW64243  10.712   8.610   7.743 -0.2447 -0.5271  0.1299
19043SOL    HW164244  10.807   8.613   7.748  0.0849  1.5942 -3.3761
19043SOL    HW264245  10.688   8.524   7.776  2.8868 -1.2331  0.8664
19044SOL     OW64246  10.453   6.352   9.554 -0.1961 -0.2061 -0.7733
19044SOL    HW164247  10.460   6.326   9.462  0.0255 -1.1082 -0.5089
19044SOL    HW264248  10.501   6.435   9.558  2.2095 -1.4791 -0.9623
19045SOL     OW64249   3.795   6.143   5.492 -0.6951  0.5192  0.0964
19045SOL    HW164250   3.885   6.175   5.498 -0.1789 -1.1313  1.8266
19045SOL    HW264251   3.748   6.190   5.560 -0.3794 -0.8490  1.3137
19046SOL     OW64252  11.494   5.456   9.228 -0.5278  0.3149  0.2531
19046SOL    HW164253  11.577   5.421   9.262 -0.4448  1.2676  1.1050
19046SOL    HW264254  11.516   5.488   9.140 -0.3505 -0.7456 -0.0970
19047SOL     OW64255   4.149   6.639   3.739  0.1144 -0.0775  0.3386
19047SOL    HW164256   4.183   6.714   3.690  0.2885  0.0201  0.6091
19047SOL    HW264257   4.187   6.648   3.827  1.6873 -1.4925 -0.1282
19048SOL     OW64258   1.762   8.137   6.350  0.3601 -0.3854 -0.5707
19048SOL    HW164259   1.757   8.081   6.428 -1.3596 -1.7444 -1.5718
19048SOL    HW264260   1.697   8.206   6.366 -0.7234 -1.2347 -1.1798
19049SOL     OW64261   6.229   4.220   8.620 -0.8162  0.2603  0.2192
19049SOL    HW164262   6.293   4.267   8.566  0.3893 -1.5921 -0.0587
19049SOL    HW264263   6.229   4.267   8.704  1.5428 -0.1537  0.5057
19050SOL     OW64264   0.869   4.165   2.371  0.3737 -0.0920  0.1157
19050SOL    HW164265   0.839   4.256   2.380  1.1001  0.0007  2.2221
19050SOL    HW264266   0.950   4.171   2.322 -0.4700  0.1693 -1.3209
19051SOL     OW64267   4.414   1.316   2.894 -0.8261 -0.5522  0.1235
19051SOL    HW164268   4.445   1.391   2.843 -3.1417 -0.1518 -0.8425
19051SOL    HW264269   4.359   1.267   2.834 -0.2539 -2.4396  1.0734
19052SOL     OW64270   9.409   2.802   7.237  0.1271  0.5320  0.4064
19052SOL    HW164271   9.497   2.764   7.243 -0.1687 -0.4508 -0.9954
19052SOL    HW264272   9.413   2.858   7.160 -0.5760  0.2208  0.1436
19053SOL     OW64273   7.024  11.069   2.118 -0.3575 -0.0621  0.0391
19053SOL    HW164274   7.013  11.142   2.057  0.9598  1.1551  1.1800
19053SOL    HW264275   7.052  10.996   2.063 -1.4863  0.3316 -1.0985
19054SOL     OW64276  10.762   3.341   0.697 -0.3697  0.0224 -0.0485
19054SOL    HW164277  10.707   3.404   0.741  0.3797  0.2453  0.5916
19054SOL    HW264278  10.728   3.338   0.607 -1.0396  0.5792  0.1776
19055SOL     OW64279   6.704   9.705   2.296 -0.1353 -0.2977  0.1846
19055SOL    HW164280   6.739   9.791   2.317  0.5056 -0.1281 -1.3796
19055SOL    HW264281   6.778   9.645   2.308 -0.5439 -0.6196  1.1468
19056SOL     OW64282   3.186   0.330   0.781 -0.1081  0.4278 -0.4812
19056SOL    HW164283   3.153   0.256   0.730  2.2543 -0.0016 -1.5371
19056SOL    HW264284   3.221   0.290   0.860  1.1116  0.3626 -1.0239
19057SOL     OW64285  11.056   6.158  12.246  0.2268 -0.2232  0.3521
19057SOL    HW164286  11.047   6.227  12.311 -3.2122 -0.5774  0.4694
19057SOL    HW264287  11.046   6.077  12.295 -0.4638 -0.5714 -0.3305
19058SOL     OW64288   1.027   4.106   7.167  0.5298  0.2978 -0.1508
19058SOL    HW164289   0.933   4.101   7.187  0.3637 -0.8899 -1.1460
19058SOL    HW264290   1.034   4.181   7.108  0.3408  0.8906  0.5606
19059SOL     OW64291   5.687   5.843   7.168  0.1205 -0.3665  0.0397
19059SOL    HW164292   5.622   5.784   7.130 -0.6405  1.8372 -2.3692
19059SOL    HW264293   5.635   5.907   7.217  0.7182 -0.1971  0.4594
19060SOL     OW64294   7.789  10.580   1.827  0.2508 -0.0729  1.3184
19060SOL    HW164295   7.721  10.634   1.786  0.2284 -0.7673  0.4158
19060SOL    HW264296   7.748  10.495   1.841  1.5233 -1.2621 -1.3713
19061SOL     OW64297  10.241   8.812  11.043  0.1120  0.2601 -0.7150
19061SOL    HW164298  10.155   8.843  11.072  1.5831  3.1633  1.0471
19061SOL    HW264299  10.251   8.849  10.956  0.2166  1.3721 -0.2438
19062SOL     OW64300   2.350  10.420   3.736 -0.5556 -0.0249 -0.2311
19062SOL    HW164301   2.423  10.479   3.756 -0.7721 -0.2478  1.3056
19062SOL    HW264302   2.358  10.403   3.642 -0.4010  2.3127 -0.6825
19063SOL     OW64303   8.829  12.176   6.783  0.3596  0.2892  0.2813
19063SOL    HW164304   8.829  12.087   6.819  0.7223  0.4836  0.7894
19063SOL    HW264305   8.818  12.164   6.689  1.9452 -0.3929  0.1380
19064SOL     OW64306   4.039  12.578  11.926 -0.4784  0.4187  0.2208
19064SOL    HW164307   4.059  12.488  11.950 -1.7621  0.2393  0.7225
19064SOL    HW264308   3.944  12.585  11.939 -0.1553  2.3881  2.0756
19065SOL     OW64309   9.477   2.031  10.668  0.3887  0.1227  0.0806
19065SOL    HW164310   9.439   2.050  10.582  0.4720  2.4592  0.4920
19065SOL    HW264311   9.528   1.952  10.655 -0.9920 -0.5577 -1.5799
19066SOL     OW64312   2.259   2.176   1.304 -0.0173 -0.4807 -0.7971
19066SOL    HW164313   2.313   2.106   1.340 -1.4060 -0.9103  0.5966
19066SOL    HW264314   2.301   2.200   1.221  0.6047 -2.8497 -1.2432
19067SOL     OW64315   8.487   1.409  12.472  0.1508 -0.0547 -0.6794
19067SOL    HW164316   8.447   1.496  12.467 -2.5249 -1.1654 -0.1153
19067SOL    HW264317   8.497   1.393  12.565 -1.4310 -1.1786 -0.6699
19068SOL     OW64318   6.118   2.299   2.482 -0.1387  0.3224  0.3209
19068SOL    HW164319   6.133   2.365   2.414  1.2607 -0.6534 -0.3770
19068SOL    HW264320   6.061   2.235   2.441 -1.2638  0.9174  0.9049
19069SOL     OW64321  12.265  12.919  10.996 -0.3452  0.7481  0.1710
19069SOL    HW164322  12.170  12.931  10.986 -0.3568  0.2596 -0.3248
19069SOL    HW264323  12.273  12.845  11.056 -0.2783  0.8925  0.3389
19070SOL     OW64324   0.212   3.242  10.314  0.4785  0.3616  0.4331
19070SOL    HW164325   0.240   3.193  10.391  0.3575 -0.2481  0.0870
19070SOL    HW264326   0.289   3.295  10.290  1.1555 -0.8464 -0.1463
19071SOL     OW64327  10.949   3.337   1.730 -0.6351  0.2371  0.4944
19071SOL    HW164328  10.875   3.302   1.679 -2.2208  3.7045  0.1201
19071SOL    HW264329  10.910   3.364   1.813  0.9364 -0.7611  1.6122
19072SOL     OW64330   9.864   1.488   4.246 -0.2870  0.4787 -0.4337
19072SOL    HW164331   9.808   1.511   4.172  0.0708 -0.5458 -1.0381
19072SOL    HW264332   9.824   1.410   4.283  0.2582  0.2430 -0.3377
19073SOL     OW64333   7.009  11.380  11.096  0.0924 -0.2821  0.0316
19073SOL    HW164334   6.949  11.452  11.076  0.4895  0.4393  1.3343
19073SOL    HW264335   6.954  11.302  11.093 -0.1659 -0.0956 -2.3296
19074SOL     OW64336  10.688   1.855  11.100 -0.1655 -0.3084 -0.2822
19074SOL    HW164337  10.769   1.828  11.056  0.3033  2.5125 -1.3394
19074SOL    HW264338  10.716   1.923  11.161 -1.6404  0.0638  0.0040
19075SOL     OW64339   9.128   8.245   1.230 -0.0178  0.1183  0.2609
19075SOL    HW164340   9.158   8.222   1.142 -0.0129 -0.7024  0.4660
19075SOL    HW264341   9.166   8.178   1.286 -1.7950 -0.6645  0.5982
19076SOL     OW64342   1.751   3.826  12.228  0.0331 -0.2981 -0.3149
19076SOL    HW164343   1.807   3.886  12.179  0.5798 -1.5718 -1.2997
19076SOL    HW264344   1.811   3.776  12.283 -0.0629 -1.8183 -1.5274
19077SOL     OW64345  10.383   4.300   2.884  0.4280 -0.7372 -0.5117
19077SOL    HW164346  10.466   4.284   2.929 -0.3594 -1.6964  0.6699
19077SOL    HW264347  10.349   4.380   2.924 -0.4692 -1.8125  0.9836
19078SOL     OW64348   5.479   9.365   3.406 -0.2284  0.2459 -0.1090
19078SOL    HW164349   5.405   9.322   3.448  0.7331 -0.4053  0.9764
19078SOL    HW264350   5.540   9.383   3.477  1.6434 -1.2555 -1.2396
19079SOL     OW64351  11.415   7.755   3.171 -0.6277 -0.0242 -0.2868
19079SOL    HW164352  11.452   7.807   3.101 -0.1210 -1.0103 -0.7696
19079SOL    HW264353  11.382   7.676   3.128  2.2358 -2.0175  0.8448
19080SOL     OW64354   1.447   2.989   0.528 -0.0230  0.1353 -0.4726
19080SOL    HW164355   1.459   3.083   0.538 -0.7066  0.2884 -1.0170
19080SOL    HW264356   1.408   2.960   0.610 -0.8922  0.5237 -0.7447
19081SOL     OW64357   1.038   9.036  11.485  0.2168  0.1730  0.0127
19081SOL    HW164358   1.114   9.094  11.481  1.4711 -1.3882  0.2388
19081SOL    HW264359   1.032   8.996  11.398 -2.0691  2.2849 -0.9172
19082SOL     OW64360  11.318  10.182  11.371  0.1839  0.0556 -0.3499
19082SOL    HW164361  11.249  10.244  11.395  0.6646  1.2000 -1.7961
19082SOL    HW264362  11.398  10.221  11.407  0.2162 -0.8789  0.6503
19083SOL     OW64363   0.334   5.903  10.455 -0.6426 -0.1189  0.6829
19083SOL    HW164364   0.315   5.842  10.526 -1.0623 -2.0142 -0.9711
19083SOL    HW264365   0.252   5.910  10.406 -0.1977  0.6467  0.0149
19084SOL     OW64366   9.460   7.329   4.279 -0.3764 -0.6460 -0.0561
19084SOL    HW164367   9.531   7.373   4.233 -0.9591 -0.8891 -1.2292
19084SOL    HW264368   9.475   7.236   4.265 -0.6261 -0.7191  0.1491
19085SOL     OW64369   9.234  11.637   0.383 -0.0416 -0.1034  0.1739
19085SOL    HW164370   9.225  11.587   0.302  0.4571  1.8843 -1.1903
19085SOL    HW264371   9.299  11.589   0.434 -0.5672 -1.5444 -0.4670
19086SOL     OW64372   4.708   0.835   1.023 -0.1961  0.2308  0.1678
19086SOL    HW164373   4.716   0.749   0.983 -0.5751 -1.2688  3.0228
19086SOL    HW264374   4.720   0.897   0.951 -0.5037 -2.1833 -2.0961
19087SOL     OW64375   5.734   6.004   8.867 -0.3453  0.3579 -0.1958
19087SOL    HW164376   5.765   5.988   8.956 -1.2939 -0.3731  0.0187
19087SOL    HW264377   5.795   5.957   8.811  0.0757  0.5657  0.0833
19088SOL     OW64378   6.170   2.218   0.136 -0.5358  0.2058  0.2651
19088SOL    HW164379   6.152   2.144   0.194  0.2918 -0.4537 -0.2895
19088SOL    HW264380   6.085   2.244   0.103 -1.1139  0.9845  2.1984
19089SOL     OW64381  12.500   8.292   9.851 -0.2121 -0.1636 -0.6414
19089SOL    HW164382  12.504   8.283   9.755  0.1068  0.5348 -0.6973
19089SOL    HW264383  12.470   8.381   9.866  0.4451 -0.0251 -0.0875
19090SOL     OW64384   2.823  11.810   7.766  0.0659  0.7799  0.5216
19090SOL    HW164385   2.828  11.720   7.733 -0.2242  0.3914  1.5252
19090SOL    HW264386   2.807  11.801   7.860  0.3030  1.8802  0.6830
19091SOL     OW64387  12.376   0.229   4.206  0.0271  0.4611 -0.8599
19091SOL    HW164388  12.409   0.263   4.123 -0.1964  0.7203 -0.8413
19091SOL    HW264389  12.324   0.300   4.242 -1.2126 -0.2163 -1.2616
19092SOL     OW64390   9.455  12.726   4.423  0.1392 -0.3046 -0.2717
19092SOL    HW164391   9.504  12.649   4.394 -0.6338 -0.3450 -1.5846
19092SOL    HW264392   9.442  12.777   4.343 -1.0224  0.2210  0.2328
19093SOL     OW64393   1.321   7.772   4.650  0.7645  0.1885  0.6493
19093SOL    HW164394   1.341   7.794   4.559  0.3125  0.8995  0.7138
19093SOL    HW264395   1.228   7.791   4.660  0.6649 -0.4761  1.0992
19094SOL     OW64396   9.975  10.216   0.576 -0.9756 -0.1522  0.2021
19094SOL    HW164397   9.899  10.177   0.532 -0.2052 -2.7454  0.9952
19094SOL    HW264398   9.966  10.189   0.668  0.1543  0.7731  0.6150
19095SOL     OW64399   1.839   1.849   3.120 -0.0381 -0.3996 -0.1827
19095SOL    HW164400   1.750   1.863   3.153  0.2640 -1.1229  0.9948
19095SOL    HW264401   1.888   1.925   3.152  0.2212 -1.0270  0.9266
19096SOL     OW64402   2.529   3.207   9.358  0.0566 -0.0891  0.1203
19096SOL    HW164403   2.558   3.263   9.286 -2.9675  0.9896 -0.3805
19096SOL    HW264404   2.512   3.123   9.317  1.2531 -0.4081  0.2221
19097SOL     OW64405   4.310   1.517   1.529 -0.4108 -0.1355 -0.2799
19097SOL    HW164406   4.291   1.482   1.617 -0.5381 -3.3685 -1.4474
19097SOL    HW264407   4.396   1.481   1.508  0.7062  2.5223 -0.6708
19098SOL     OW64408   6.939   8.503   5.934 -0.3221  0.1575  0.7381
19098SOL    HW164409   6.881   8.534   6.003 -0.0795 -0.7591  1.3611
19098SOL    HW264410   6.881   8.463   5.870 -0.5773  1.2845  0.2350
19099SOL     OW64411  11.293   5.252   0.257  0.2394 -0.0097  0.2810
19099SOL    HW164412  11.343   5.238   0.337 -1.1161 -0.2686  1.1123
19099SOL    HW264413  11.286   5.166   0.217  1.4389  0.2168 -0.4629
19100SOL     OW64414   4.130   2.635   3.178 -0.6514  0.1099  0.0354
19100SOL    HW164415   4.140   2.593   3.264  0.1812  0.0907 -0.0556
19100SOL    HW264416   4.170   2.721   3.188  1.7322 -0.7711 -0.9507
19101SOL     OW64417   2.065   5.872   4.872 -0.3382 -0.2827  0.3005
19101SOL    HW164418   2.085   5.874   4.778 -1.3076 -1.1910  0.0566
19101SOL    HW264419   1.982   5.825   4.878 -0.0419 -0.6804  1.6680
19102SOL     OW64420   5.437  12.828   6.939 -0.2626  0.2512  1.0099
19102SOL    HW164421   5.381  12.811   6.863  0.8492 -0.9949  0.4405
19102SOL    HW264422   5.426  12.751   6.995 -0.5017  0.8299  1.7945
19103SOL     OW64423   7.978   1.094   6.454  0.1258 -0.4539  0.1624
19103SOL    HW164424   8.041   1.041   6.502  0.1826 -2.0173 -1.5287
19103SOL    HW264425   8.002   1.084   6.362 -2.2098 -0.6353 -0.5016
19104SOL     OW64426   5.911   3.721   8.645  0.3745 -0.0264  0.0051
19104SOL    HW164427   5.874   3.803   8.613  1.8745  0.8781  0.5181
19104SOL    HW264428   5.970   3.693   8.575 -0.1798 -0.7263 -0.1969
19105SOL     OW64429   6.886   8.369  10.163  0.0149  0.2843 -0.5489
19105SOL    HW164430   6.941   8.377  10.241  0.6039 -0.6972 -0.8463
19105SOL    HW264431   6.905   8.447  10.112 -0.1255  0.7723  0.1283
19106SOL     OW64432   1.226   1.433  10.114  0.2061 -0.7105  0.0653
19106SOL    HW164433   1.165   1.417  10.187 -0.9211  1.3544 -0.3543
19106SOL    HW264434   1.176   1.412  10.036  0.4496 -0.1488 -0.2422
19107SOL     OW64435  11.194   9.536   9.102  0.7201 -0.7516 -0.2411
19107SOL    HW164436  11.188   9.563   9.011 -0.6895  1.3307  0.3760
19107SOL    HW264437  11.103   9.529   9.131  1.1382 -1.8181  0.8889
19108SOL     OW64438   1.009   3.144  10.598 -0.0841 -0.3820 -0.1179
19108SOL    HW164439   1.064   3.188  10.662  1.7880 -1.7674 -0.7084
19108SOL    HW264440   0.967   3.073  10.646 -0.8188  0.2341  0.1670
19109SOL     OW64441   5.706  11.281  12.376  0.2575  0.7177 -0.0797
19109SOL    HW164442   5.677  11.230  12.300  1.2755  2.1630 -1.5123
19109SOL    HW264443   5.628  11.290  12.430 -0.2847 -1.0773 -0.5152
19110SOL     OW64444  10.591   6.688  12.333 -0.4602 -0.4070 -0.7263
19110SOL    HW164445  10.641   6.665  12.411  0.2868  1.2871 -0.6596
19110SOL    HW264446  10.518   6.741  12.367 -0.8859 -0.7707 -1.0650
19111SOL     OW64447   6.486   8.930   9.958  0.2391 -0.0954 -0.4742
19111SOL    HW164448   6.405   8.904  10.001  0.6676 -0.6995 -0.0111
19111SOL    HW264449   6.477   9.025   9.946  0.5497  0.3179  2.0021
19112SOL     OW64450  11.816   9.812  11.858  0.4056 -0.6662  0.0665
19112SOL    HW164451  11.778   9.744  11.914 -2.5771  0.2963 -0.5849
19112SOL    HW264452  11.778   9.794  11.772  2.9180 -0.6262 -1.1144
19113SOL     OW64453  11.925   2.971   7.039  0.5493  0.4273 -0.1006
19113SOL    HW164454  12.001   3.022   7.065  0.6711 -0.2334  0.9001
19113SOL    HW264455  11.962   2.890   7.003  0.3492  0.8386 -1.2670
19114SOL     OW64456   7.606   1.910   4.051  0.1038  0.1091  0.1179
19114SOL    HW164457   7.664   1.872   4.118  0.1279 -0.1711 -0.0620
19114SOL    HW264458   7.635   2.001   4.043  1.5489 -0.4295 -1.0902
19115SOL     OW64459   4.449   7.256   2.587  0.0957 -0.2199  0.0892
19115SOL    HW164460   4.397   7.252   2.507 -2.1857 -0.3224  1.4863
19115SOL    HW264461   4.459   7.165   2.614 -0.4451 -0.0949  0.7132
19116SOL     OW64462   9.039   4.054   0.522  0.0756  0.1324 -0.1609
19116SOL    HW164463   9.132   4.069   0.501  0.3708  1.7170  1.9536
19116SOL    HW264464   8.992   4.119   0.469  0.2231 -0.2186 -0.7289
19117SOL     OW64465   9.687  12.011  12.937  0.1321  0.0612 -0.6673
19117SOL    HW164466   9.733  11.931  12.962  0.9302  1.0901  1.3823
19117SOL    HW264467   9.595  11.984  12.929  0.4298 -1.1210 -0.2812
19118SOL     OW64468  11.721   5.030   9.279  0.0938  0.5557  0.4869
19118SOL    HW164469  11.770   5.077   9.346  0.0881  0.1016  0.8122
19118SOL    HW264470  11.701   5.097   9.213 -0.8521  1.2603  1.4522
19119SOL     OW64471  10.266   3.770  12.753  0.2342  0.3084  0.2813
19119SOL    HW164472  10.182   3.770  12.707  0.3288 -0.3003  0.0907
19119SOL    HW264473  10.242   3.766  12.846  0.0381 -0.7785  0.2079
19120SOL     OW64474   6.679   6.318  12.153  0.2489 -0.4530  0.4582
19120SOL    HW164475   6.771   6.336  12.172  0.2515 -0.5322  0.5239
19120SOL    HW264476   6.675   6.222  12.147  0.2687 -0.4237 -0.0430
19121SOL     OW64477  11.917   1.755  11.459 -0.0428 -0.3570 -0.3776
19121SOL    HW164478  11.994   1.712  11.496 -0.3956 -0.9032 -0.2422
19121SOL    HW264479  11.949   1.806  11.386  0.3021 -1.5212 -1.0691
19122SOL     OW64480   2.208   0.801   9.352  0.2765 -0.4281  0.1245
19122SOL    HW164481   2.118   0.798   9.320  0.9462  0.5694 -2.0848
19122SOL    HW264482   2.228   0.895   9.358  1.5032 -0.6346 -0.4646
19123SOL     OW64483   6.926   2.297   5.978  0.0970  0.1120 -0.0457
19123SOL    HW164484   6.943   2.204   5.959 -1.3214 -0.2473  0.3037
19123SOL    HW264485   6.882   2.329   5.899  1.3981  0.7552 -0.5372
19124SOL     OW64486   6.412   6.577   4.326  0.3187  0.0605 -0.1192
19124SOL    HW164487   6.432   6.603   4.416  1.8939 -0.4057 -0.3128
19124SOL    HW264488   6.337   6.631   4.301 -1.5402 -1.2577  2.1623
19125SOL     OW64489   7.751   9.034   3.813  0.3904 -0.0562  0.0256
19125SOL    HW164490   7.731   8.946   3.848 -0.5232 -0.2688 -0.9668
19125SOL    HW264491   7.842   9.028   3.783  0.6964 -0.3203  0.9801
19126SOL     OW64492   5.962  12.927   0.906  0.5845 -0.0602 -0.2366
19126SOL    HW164493   5.917  12.944   0.989  1.5294 -0.9868  0.5030
19126SOL    HW264494   5.968  13.012   0.863 -3.2874 -0.0747 -1.1643
19127SOL     OW64495   4.996   8.291   2.500 -0.5943 -0.0994 -0.3830
19127SOL    HW164496   4.951   8.354   2.556 -0.1448 -0.7894  0.7961
19127SOL    HW264497   5.088   8.317   2.505 -0.2688 -1.3421  0.8521
19128SOL     OW64498   8.806  12.783  12.679  0.0194  0.0918 -0.0714
19128SOL    HW164499   8.790  12.827  12.595 -0.3459 -0.6700 -0.4061
19128SOL    HW264500   8.751  12.830  12.741  1.2761  1.5246  0.0397
19129SOL     OW64501   2.579   6.159   1.130  0.0314 -0.2508  0.3873
19129SOL    HW164502   2.496   6.116   1.109  0.5701 -1.2717  0.3256
19129SOL    HW264503   2.553   6.246   1.162 -1.1218 -0.9252  1.3531
19130SOL     OW64504   0.032   2.663   2.300  0.4299  0.4010  0.0417
19130SOL    HW164505   0.024   2.735   2.363 -0.3625  1.0557 -0.7732
19130SOL    HW264506  -0.027   2.595   2.335  0.1709  0.6692  0.1361
19131SOL     OW64507  10.252   0.482  11.509 -0.3445  0.3903  0.2457
19131SOL    HW164508  10.220   0.567  11.480  0.8470  0.7952  0.0575
19131SOL    HW264509  10.196   0.419  11.464 -0.9367  1.0672  0.0148
19132SOL     OW64510   8.349   3.798   1.431 -0.7640  0.3944 -0.6092
19132SOL    HW164511   8.366   3.706   1.451 -1.6231 -0.0026 -1.6192
19132SOL    HW264512   8.434   3.842   1.444 -0.3985 -0.4928  0.0693
19133SOL     OW64513   6.211   8.663   4.094 -0.0462 -0.5321 -0.2485
19133SOL    HW164514   6.215   8.595   4.026 -1.4461 -0.6983 -0.2025
19133SOL    HW264515   6.181   8.741   4.047 -0.9310 -0.6256  0.1264
19134SOL     OW64516  11.712   2.630   2.957 -0.4099 -0.3671 -0.1114
19134SOL    HW164517  11.714   2.622   3.052  1.3347 -0.6987 -0.1473
19134SOL    HW264518  11.730   2.542   2.925  1.2249  0.1478 -0.6993
19135SOL     OW64519   6.311   5.774   3.531 -0.8193  0.0784  0.1036
19135SOL    HW164520   6.299   5.683   3.504 -2.3392  0.5552 -0.9862
19135SOL    HW264521   6.390   5.803   3.486 -1.1677 -0.2721 -0.7373
19136SOL     OW64522   3.503   7.153   4.374  0.1444 -0.0858 -0.4743
19136SOL    HW164523   3.490   7.200   4.456 -0.9062 -2.2306  0.6632
19136SOL    HW264524   3.415   7.135   4.341  0.3729 -2.7940  0.1307
19137SOL     OW64525   7.640   9.526   5.774  0.2807  0.3233 -0.6373
19137SOL    HW164526   7.645   9.511   5.680 -0.2812 -1.7996 -0.3920
19137SOL    HW264527   7.678   9.447   5.813 -0.0932  0.8603  0.9102
19138SOL     OW64528   8.953   1.160   9.355 -0.2661  0.4546  0.2864
19138SOL    HW164529   8.946   1.069   9.383  1.4540  0.4017  0.6949
19138SOL    HW264530   9.027   1.161   9.294  0.0707  1.6437  0.6812
19139SOL     OW64531  11.809   5.097   4.099 -0.0385 -0.1019 -0.4289
19139SOL    HW164532  11.740   5.158   4.072 -0.4004 -0.4294 -0.2528
19139SOL    HW264533  11.838   5.130   4.184  0.0176  0.0329 -0.5001
19140SOL     OW64534   5.606   2.138   0.595 -0.3534 -0.0923 -0.3296
19140SOL    HW164535   5.675   2.116   0.533 -0.9550  1.8638 -1.8143
19140SOL    HW264536   5.636   2.219   0.637 -1.6409  0.7282 -0.9079
19141SOL     OW64537  11.982   0.197  11.504  0.2956  0.5490  0.7412
19141SOL    HW164538  12.074   0.191  11.530 -0.1015  0.2749  2.1530
19141SOL    HW264539  11.937   0.132  11.559 -0.8439  1.1592  0.5670
19142SOL     OW64540   9.617   4.376  10.788 -0.2872  0.2417 -0.2285
19142SOL    HW164541   9.529   4.392  10.754  0.4052  2.4020 -1.1602
19142SOL    HW264542   9.621   4.424  10.870  0.4028  1.2830 -0.8421
19143SOL     OW64543   7.682   4.007   2.535  0.1666 -0.2182  0.5572
19143SOL    HW164544   7.736   4.031   2.610 -0.0442 -1.1160  1.0000
19143SOL    HW264545   7.729   3.936   2.493 -0.1836 -0.3487  0.3812
19144SOL     OW64546   9.076   0.485   6.308 -0.7459  0.0214  0.1629
19144SOL    HW164547   9.009   0.498   6.242  2.4615 -0.8252 -3.5973
19144SOL    HW264548   9.115   0.571   6.320 -0.8020  0.0194  0.3673
19145SOL     OW64549   7.628   7.286   7.411  0.0257  0.2355  0.0371
19145SOL    HW164550   7.693   7.226   7.449  0.2740  0.0915 -0.5926
19145SOL    HW264551   7.663   7.305   7.324 -0.1311  1.1784  0.1778
19146SOL     OW64552   1.189  10.237   5.382  0.2115  0.2716  0.5040
19146SOL    HW164553   1.176  10.182   5.304  1.1941  0.1370  0.4178
19146SOL    HW264554   1.284  10.235   5.396 -0.1288 -1.7407  3.1712
19147SOL     OW64555   0.077   3.894   7.329 -0.0681 -0.4769  0.4129
19147SOL    HW164556   0.010   3.859   7.388 -0.1526 -1.3872 -0.2115
19147SOL    HW264557   0.042   3.879   7.241  1.2959 -1.6954  0.0489
19148SOL     OW64558   5.732   6.143   0.631  0.1607  0.7165 -0.1354
19148SOL    HW164559   5.743   6.224   0.582  0.3545  0.0422 -1.2289
19148SOL    HW264560   5.759   6.074   0.571 -1.4806 -0.2973  0.2171
19149SOL     OW64561   8.380   8.276   6.222 -0.1605  0.2817  0.2311
19149SOL    HW164562   8.400   8.343   6.288 -0.0816  0.3127  0.1771
19149SOL    HW264563   8.459   8.220   6.221  0.1013  0.6562 -0.2947
19150SOL     OW64564   6.352   3.119   4.621  0.3333 -0.2353 -0.0845
19150SOL    HW164565   6.362   3.213   4.635  0.4131 -0.4591  1.6850
19150SOL    HW264566   6.440   3.088   4.602  0.3020  0.0493 -0.7005
19151SOL     OW64567   6.457  10.945  12.164  0.2339  0.0999 -0.2629
19151SOL    HW164568   6.382  10.903  12.122 -0.7264  1.3281  0.1619
19151SOL    HW264569   6.510  10.978  12.091  0.0793 -0.3017 -0.5585
19152SOL     OW64570  10.577  10.622   4.260 -1.0005  0.2492 -0.6335
19152SOL    HW164571  10.534  10.544   4.224 -1.4355  1.3743 -2.7683
19152SOL    HW264572  10.512  10.661   4.318 -1.5433  0.0458 -1.0923
19153SOL     OW64573  11.854   6.503  10.073 -0.0090  0.2552  0.0567
19153SOL    HW164574  11.768   6.533  10.103  0.7195  2.5041  0.0935
19153SOL    HW264575  11.917   6.557  10.121  1.4945 -1.8360  0.5802
19154SOL     OW64576  11.227   4.866  11.273  0.0811  0.0215 -0.2183
19154SOL    HW164577  11.271   4.951  11.270 -0.1982  0.1499 -0.8217
19154SOL    HW264578  11.262   4.818  11.198 -1.1074  0.2853 -0.9794
19155SOL     OW64579   5.187  11.125   3.863 -0.2781  0.0054  0.1487
19155SOL    HW164580   5.097  11.152   3.878  0.0410  0.9549  0.4244
19155SOL    HW264581   5.240  11.187   3.913  0.5959  0.4692 -1.2709
19156SOL     OW64582   1.529   1.320   8.373 -0.3689  0.0492  0.2455
19156SOL    HW164583   1.600   1.300   8.434 -0.1873  0.9615  0.3505
19156SOL    HW264584   1.516   1.239   8.323 -0.2892 -0.6055  1.2576
19157SOL     OW64585   1.964   4.065   0.717 -0.5898 -0.0081  0.4227
19157SOL    HW164586   2.040   4.067   0.659 -1.4340  1.5607 -0.7089
19157SOL    HW264587   1.975   4.140   0.774 -2.1635  1.4188 -1.0233
19158SOL     OW64588   7.634  12.871   9.882 -0.7856  0.2701  0.0840
19158SOL    HW164589   7.678  12.912   9.807  0.1412 -0.6932  0.0813
19158SOL    HW264590   7.574  12.808   9.843 -0.3519 -0.1830  0.1348
19159SOL     OW64591   4.463   0.171   5.843 -0.0618  0.1513  0.1883
19159SOL    HW164592   4.401   0.227   5.890 -0.3189  0.9008 -0.9928
19159SOL    HW264593   4.512   0.126   5.911 -0.3850  1.2326  1.1584
19160SOL     OW64594   3.255   6.672   7.593 -0.1633  0.2255 -0.7127
19160SOL    HW164595   3.210   6.741   7.643 -1.1686 -1.3863  0.7253
19160SOL    HW264596   3.190   6.643   7.529 -0.9090 -1.4136  0.7020
19161SOL     OW64597   2.390   2.864  11.428 -0.0285  0.0098 -0.0552
19161SOL    HW164598   2.313   2.877  11.372 -1.2982 -3.5380  0.6136
19161SOL    HW264599   2.355   2.858  11.516  1.2799 -0.0080  0.4849
19162SOL     OW64600   3.257   2.414   2.268  0.3374  0.6529  0.1155
19162SOL    HW164601   3.274   2.372   2.352  0.4768  0.0860 -0.1827
19162SOL    HW264602   3.166   2.443   2.272  0.2683  0.4015  0.3713
19163SOL     OW64603   6.508   6.970   9.643  0.7899  0.3114 -0.2294
19163SOL    HW164604   6.424   6.958   9.599  0.9617 -0.1069 -0.4505
19163SOL    HW264605   6.556   7.032   9.588  0.6467  0.5181 -0.1250
19164SOL     OW64606   6.451   4.395   7.892  0.2649 -0.1113 -0.3153
19164SOL    HW164607   6.415   4.321   7.843 -0.1995 -0.7934  1.0088
19164SOL    HW264608   6.393   4.403   7.968  0.7635  1.1364 -0.0482
19165SOL     OW64609   8.166   3.930  12.612 -0.1596 -0.0423  0.6721
19165SOL    HW164610   8.107   3.998  12.643 -0.6467  0.2144 -0.7315
19165SOL    HW264611   8.247   3.945  12.659  0.5526  3.0436 -1.2730
19166SOL     OW64612   5.258   9.624  12.518  0.8005  0.4127 -0.7129
19166SOL    HW164613   5.178   9.610  12.568  0.6226  0.3712 -1.0106
19166SOL    HW264614   5.251   9.713  12.485  0.9943  0.4988 -0.5295
19167SOL     OW64615   4.484   9.286  10.419 -0.5075  0.0736  0.0903
19167SOL    HW164616   4.489   9.379  10.442 -0.6251 -0.1505  1.0600
19167SOL    HW264617   4.513   9.283  10.328 -1.1465  1.1415 -0.1698
19168SOL     OW64618   8.200   8.474   4.736  0.1905  0.2603 -0.1783
19168SOL    HW164619   8.204   8.440   4.825  1.7761  0.5326 -0.0980
19168SOL    HW264620   8.249   8.557   4.741  1.3433 -0.2974 -1.5113
19169SOL     OW64621   0.843   9.190  12.502  0.1581  0.3252 -0.2434
19169SOL    HW164622   0.870   9.255  12.567  0.4601  1.7625 -1.7549
19169SOL    HW264623   0.874   9.107  12.538 -0.4117  0.9585  1.8358
19170SOL     OW64624   0.294  12.281   3.975  0.3623 -0.2028 -0.3787
19170SOL    HW164625   0.286  12.237   3.891  0.8451 -0.4239 -0.3101
19170SOL    HW264626   0.388  12.296   3.985  0.4187 -1.2096  0.6561
19171SOL     OW64627   9.582   8.990   9.662  0.2256 -0.0005 -0.4163
19171SOL    HW164628   9.515   8.998   9.730 -2.1743  2.7119 -2.8500
19171SOL    HW264629   9.602   8.896   9.659 -4.5065 -1.2464 -0.3808
19172SOL     OW64630   6.436   2.690   5.244  0.7125 -0.2171 -0.0972
19172SOL    HW164631   6.402   2.730   5.164 -0.9649  1.1252  1.1976
19172SOL    HW264632   6.499   2.625   5.214  0.5643  0.6433 -2.4682
19173SOL     OW64633   3.141   5.492   2.062  0.0929 -0.4488 -0.1355
19173SOL    HW164634   3.074   5.543   2.107  0.4176 -0.3668  0.2596
19173SOL    HW264635   3.176   5.551   1.996 -1.2145 -0.9458 -1.3454
19174SOL     OW64636   4.532   0.181   5.315 -0.0853 -0.5472  0.1876
19174SOL    HW164637   4.513   0.264   5.360  0.3932 -0.9882  1.2487
19174SOL    HW264638   4.627   0.182   5.303 -0.3668  0.3948 -2.5607
19175SOL     OW64639   1.878  11.851   6.042  0.0614  0.2093 -0.1795
19175SOL    HW164640   1.865  11.933   5.995  2.2384  1.3589  1.0671
19175SOL    HW264641   1.830  11.863   6.124  0.3441  0.2090 -0.0159
19176SOL     OW64642   1.990   8.386   8.292  0.4174  0.3009 -0.5538
19176SOL    HW164643   2.036   8.403   8.209  0.9378 -2.0732 -0.8132
19176SOL    HW264644   1.899   8.370   8.266  0.2231  1.1809 -0.4558
19177SOL     OW64645   7.392   1.460   1.084  0.5114 -0.1535  0.3083
19177SOL    HW164646   7.459   1.406   1.125  0.5774 -0.3301 -0.0321
19177SOL    HW264647   7.439   1.510   1.017  0.5853  0.8571  1.0930
19178SOL     OW64648   8.088   9.893  12.482 -0.2015 -0.9748  0.2409
19178SOL    HW164649   8.021   9.893  12.550 -1.8418  1.8756 -1.2082
19178SOL    HW264650   8.150   9.961  12.510 -1.7766  1.4608 -1.7097
19179SOL     OW64651   8.612   7.381  10.322  0.1446  0.3350 -0.7997
19179SOL    HW164652   8.605   7.424  10.237 -1.0882 -0.9977 -1.4189
19179SOL    HW264653   8.699   7.342  10.322 -0.0473 -0.1273 -1.7104
19180SOL     OW64654   9.001  12.767   9.549 -0.5136 -0.3264 -0.1046
19180SOL    HW164655   9.029  12.763   9.458  0.6671 -0.0216  0.2218
19180SOL    HW264656   9.017  12.678   9.583  1.3096  0.1404  0.3974
19181SOL     OW64657   6.239   0.395   2.104  0.3030 -0.1900  0.0667
19181SOL    HW164658   6.218   0.316   2.054 -0.0781 -0.5936  0.8469
19181SOL    HW264659   6.323   0.376   2.145  0.2991 -0.1215  0.1062
19182SOL     OW64660  12.805   5.697   8.843 -0.2974 -0.3447 -0.0711
19182SOL    HW164661  12.724   5.740   8.819 -0.5878 -0.7035  0.2479
19182SOL    HW264662  12.777   5.616   8.888  0.2255 -0.1900  0.5511
19183SOL     OW64663   0.471  10.178  10.141  0.0939 -0.7973 -0.2963
19183SOL    HW164664   0.385  10.168  10.181 -1.0791  1.6000 -2.0203
19183SOL    HW264665   0.505  10.260  10.176  0.3105 -0.1615 -1.8886
19184SOL     OW64666  10.125  11.786   0.965 -0.1312  0.2039  0.0546
19184SOL    HW164667  10.102  11.714   0.906  1.0087  0.2279 -0.4332
19184SOL    HW264668  10.218  11.775   0.983  0.2929  2.0744 -0.7782
19185SOL     OW64669   8.681   4.589   7.470 -0.2571  0.2941 -0.5425
19185SOL    HW164670   8.675   4.501   7.508 -0.4657 -0.3728 -2.0561
19185SOL    HW264671   8.602   4.633   7.500 -0.4638 -0.2488 -0.2704
19186SOL     OW64672   4.028   2.591   9.314  0.2529  0.3373 -0.3056
19186SOL    HW164673   4.015   2.496   9.316  0.6319  0.2756 -0.5669
19186SOL    HW264674   3.946   2.627   9.348  0.3848 -0.1045  0.5316
19187SOL     OW64675   7.876  10.991   5.264  0.4933  0.1130 -0.4960
19187SOL    HW164676   7.918  11.023   5.184 -0.0365  1.0402 -0.4123
19187SOL    HW264677   7.938  11.012   5.334  0.4273  0.3886 -0.5194
19188SOL     OW64678   6.600   3.653   6.573 -0.4266  0.6676 -0.1974
19188SOL    HW164679   6.695   3.666   6.566 -0.1018 -0.7677  1.1331
19188SOL    HW264680   6.563   3.731   6.531  1.3251  1.4164 -0.4655
19189SOL     OW64681   4.066   8.586  10.412  0.0201 -0.2093  0.0457
19189SOL    HW164682   4.157   8.562  10.397  1.3741  2.7335  2.3421
19189SOL    HW264683   4.039   8.629  10.331  2.3360  2.9231  0.7472
19190SOL     OW64684   2.842   8.108   4.053  0.3276 -0.9128 -0.3029
19190SOL    HW164685   2.853   8.199   4.024 -3.0819  0.5306  2.2558
19190SOL    HW264686   2.890   8.104   4.136  2.2823 -2.2079 -1.4261
19191SOL     OW64687   6.666   5.452   7.735 -0.1244 -0.3768  0.1258
19191SOL    HW164688   6.717   5.429   7.813 -1.0934 -1.5351  0.4441
19191SOL    HW264689   6.616   5.529   7.760  1.9421  1.2193 -0.4155
19192SOL     OW64690   7.242   9.502  11.350  0.0529 -0.1566 -0.1356
19192SOL    HW164691   7.180   9.546  11.407  0.1889  1.4916 -1.1934
19192SOL    HW264692   7.291   9.444  11.408 -1.1885 -0.0852  1.0364
19193SOL     OW64693   0.237   8.226  10.306  0.6176 -0.2169 -0.0622
19193SOL    HW164694   0.319   8.176  10.314  0.2000 -0.7289  1.3721
19193SOL    HW264695   0.264   8.317  10.308  1.0757 -0.3418  2.3277
19194SOL     OW64696   8.750   0.250   0.843  0.0109 -0.3857  0.5528
19194SOL    HW164697   8.791   0.243   0.757 -1.0729 -0.4878  0.0324
19194SOL    HW264698   8.730   0.160   0.868  2.4161 -0.6007  1.9900
19195SOL     OW64699   7.434   2.803   0.537  0.5161 -0.4378 -0.6093
19195SOL    HW164700   7.437   2.894   0.567  0.1727 -0.3844 -0.7293
19195SOL    HW264701   7.431   2.809   0.442  2.1798 -0.6226 -0.7063
19196SOL     OW64702  11.235   5.342   8.259  0.6055  0.0031  0.1820
19196SOL    HW164703  11.142   5.344   8.240  0.0966  1.2926  2.4069
19196SOL    HW264704  11.244   5.283   8.334  1.3563  0.8880  0.8244
19197SOL     OW64705  10.830   3.439   2.881 -0.4330 -0.2033 -0.0579
19197SOL    HW164706  10.827   3.462   2.788  0.8234 -1.7240 -0.5146
19197SOL    HW264707  10.919   3.461   2.908 -0.2203 -1.4371  0.3067
19198SOL     OW64708   1.645  12.402   9.422  0.1731 -0.0169  0.0921
19198SOL    HW164709   1.666  12.419   9.330 -1.5190 -0.2631 -0.3813
19198SOL    HW264710   1.578  12.334   9.419  0.0352  0.0259  1.5105
19199SOL     OW64711  10.648   1.488  10.475 -1.0141 -0.4198 -0.3475
19199SOL    HW164712  10.678   1.447  10.556  2.8206  2.4260 -0.0105
19199SOL    HW264713  10.729   1.511  10.429 -2.9990  0.6225 -3.6463
19200SOL     OW64714   2.191   4.133   2.130  0.2418 -0.3470 -0.0822
19200SOL    HW164715   2.207   4.089   2.213  3.4586  1.1221  0.2455
19200SOL    HW264716   2.227   4.074   2.064 -1.2944 -1.0080 -0.3624
19201SOL     OW64717   3.955   7.419   7.502  0.5526 -0.7287  0.4454
19201SOL    HW164718   3.950   7.387   7.412  0.3467 -1.5391  0.7356
19201SOL    HW264719   4.046   7.406   7.527  0.2134 -2.2946  0.9765
19202SOL     OW64720   6.136   8.222   0.770  0.0596  0.3480 -0.7335
19202SOL    HW164721   6.155   8.141   0.817  0.9778  0.6568 -0.5425
19202SOL    HW264722   6.041   8.229   0.770 -0.0195 -0.6060 -0.5434
19203SOL     OW64723   6.320   2.031  12.818 -0.1628  0.1864  0.5295
19203SOL    HW164724   6.256   1.962  12.833 -1.6876  1.6969  1.2703
19203SOL    HW264725   6.348   2.019  12.728 -1.8083 -0.2929  0.0487
19204SOL     OW64726   4.347  12.223   0.264  0.3894  0.1430  0.4880
19204SOL    HW164727   4.343  12.234   0.359  0.6460  0.3097  0.4808
19204SOL    HW264728   4.407  12.149   0.251 -3.0090 -2.9163  0.6385
19205SOL     OW64729   0.743   1.231   9.907  0.1579 -0.3197  0.3400
19205SOL    HW164730   0.740   1.306   9.966  2.5723 -0.3856  0.6220
19205SOL    HW264731   0.815   1.177   9.939  0.6045 -1.0997 -1.7970
19206SOL     OW64732   8.672   0.852   5.679  0.2134  0.0401  0.4072
19206SOL    HW164733   8.704   0.846   5.768  1.3422  1.3297  0.1200
19206SOL    HW264734   8.694   0.768   5.639 -0.4541 -0.6096  1.3653
19207SOL     OW64735   1.213   5.228  10.523  0.3179  0.1747  0.5378
19207SOL    HW164736   1.242   5.319  10.530 -0.6882  0.8685 -2.5890
19207SOL    HW264737   1.126   5.233  10.483 -0.0047 -2.1674  0.7687
19208SOL     OW64738   4.523   8.231   7.435 -0.1564 -0.0057 -0.0432
19208SOL    HW164739   4.617   8.218   7.449 -0.4158 -1.2009  0.6800
19208SOL    HW264740   4.489   8.144   7.417 -0.9493  0.5906 -1.5561
19209SOL     OW64741  10.231   7.817   4.596 -0.2404  0.3060  0.0992
19209SOL    HW164742  10.250   7.771   4.514  0.5259 -1.3078  1.1291
19209SOL    HW264743  10.159   7.875   4.575 -0.6215 -0.6990 -1.5221
19210SOL     OW64744   0.907   3.845   1.478  0.2374 -0.1985 -0.3198
19210SOL    HW164745   0.859   3.766   1.454  0.6391 -0.1256 -1.4137
19210SOL    HW264746   0.862   3.915   1.431  1.0475 -0.0514 -0.8862
19211SOL     OW64747  12.412   4.805   2.042  0.2694 -0.4040 -0.4144
19211SOL    HW164748  12.495   4.841   2.012  0.5349  1.2938  1.9745
19211SOL    HW264749  12.351   4.819   1.969  1.3920  1.1616 -1.1057
19212SOL     OW64750   5.549   4.097   5.894 -0.6513  0.0229 -0.5496
19212SOL    HW164751   5.630   4.114   5.847 -0.2275  0.3478  0.2689
19212SOL    HW264752   5.493   4.172   5.875 -0.6747 -0.0937 -0.9369
19213SOL     OW64753   0.744   6.847   2.987  0.7580 -0.1042  0.2257
19213SOL    HW164754   0.775   6.757   2.993  1.6503  0.1828  0.0849
19213SOL    HW264755   0.714   6.856   2.897 -2.0325 -1.0786  0.9578
19214SOL     OW64756  10.873   9.146   0.405 -0.2860  0.0278 -0.2221
19214SOL    HW164757  10.872   9.177   0.495  2.3763  1.3913 -0.5471
19214SOL    HW264758  10.845   9.055   0.410 -1.7368  0.5193  1.7296
19215SOL     OW64759   4.511   2.944   2.349 -0.2560 -0.5186 -0.0119
19215SOL    HW164760   4.598   2.947   2.311 -1.3512 -0.5216 -2.7311
19215SOL    HW264761   4.523   2.896   2.431  2.1189 -1.4538 -0.8097
19216SOL     OW64762   4.263   4.247  12.267 -0.3801 -0.8548  0.3558
19216SOL    HW164763   4.203   4.321  12.268  0.7601  0.2044 -2.0809
19216SOL    HW264764   4.243   4.198  12.347 -1.2118  2.0129  2.0159
19217SOL     OW64765   5.299   2.643   3.899 -0.4204 -0.5238 -0.1590
19217SOL    HW164766   5.362   2.711   3.923 -2.4529  1.0325  1.0422
19217SOL    HW264767   5.233   2.645   3.969 -2.1349 -1.6586 -1.6563
19218SOL     OW64768   3.739   6.515  10.535 -0.5790 -0.2391 -0.1502
19218SOL    HW164769   3.667   6.455  10.555 -0.4157 -0.2615  0.4042
19218SOL    HW264770   3.711   6.598  10.573 -0.2658 -0.2766  0.1668
19219SOL     OW64771   0.067   7.989   1.613  0.0398 -0.1180  0.2895
19219SOL    HW164772   0.034   7.997   1.703  0.2731 -2.5650  0.6518
19219SOL    HW264773  -0.011   7.992   1.558 -0.1450  0.8943  0.5885
19220SOL     OW64774  12.763   2.904   3.011  0.1842 -0.0764  0.7984
19220SOL    HW164775  12.691   2.963   2.991  0.8837  0.4763 -0.1519
19220SOL    HW264776  12.726   2.816   3.001  0.1126  0.1663 -1.6752
19221SOL     OW64777   8.309   7.397   4.151 -0.5548 -0.0565 -0.3722
19221SOL    HW164778   8.335   7.448   4.228  0.6245 -0.2671 -0.6090
19221SOL    HW264779   8.219   7.423   4.134 -0.7155  0.2631  0.8680
19222SOL     OW64780   3.859  11.656   9.445 -0.3286 -0.9834 -0.7108
19222SOL    HW164781   3.847  11.751   9.440 -1.6824 -0.9813  1.4487
19222SOL    HW264782   3.793  11.621   9.385 -1.9027 -0.5900  0.7313
19223SOL     OW64783   9.910   3.649  11.940 -0.1590  0.2620  0.2202
19223SOL    HW164784   9.993   3.677  11.901 -0.6151  1.8666  0.3561
19223SOL    HW264785   9.936   3.601  12.019  0.7887 -3.2867 -2.0437
19224SOL     OW64786   3.032   4.328   1.291  0.1707  0.1646 -0.4031
19224SOL    HW164787   3.014   4.234   1.297  0.3280  0.1171 -0.6835
19224SOL    HW264788   3.074   4.350   1.374  2.2364 -0.4671 -1.2291
19225SOL     OW64789  11.465  11.494   0.777  0.7683  0.0008 -0.0833
19225SOL    HW164790  11.371  11.486   0.791  0.7993 -1.0221 -0.4547
19225SOL    HW264791  11.504  11.451   0.853  0.9487  0.3852  0.0474
19226SOL     OW64792   7.376   5.148  12.772  0.1597  0.3598 -0.1141
19226SOL    HW164793   7.355   5.155  12.864 -0.7023 -1.3595 -0.1416
19226SOL    HW264794   7.472   5.152  12.769  0.2485 -0.5940  0.9669
19227SOL     OW64795  11.971   1.330   4.036  0.5400  0.1716 -0.1320
19227SOL    HW164796  11.896   1.325   4.096  0.7159 -0.8338  0.0083
19227SOL    HW264797  12.015   1.246   4.044  0.4222 -0.0879 -1.8945
19228SOL     OW64798   3.461   0.108   3.031 -0.4481 -0.0807  0.0886
19228SOL    HW164799   3.426   0.069   3.111 -2.0538 -1.1689 -1.0900
19228SOL    HW264800   3.512   0.038   2.991 -0.5284  0.1151 -0.3585
19229SOL     OW64801   9.880   4.538   9.850 -0.2301 -0.6391 -0.6746
19229SOL    HW164802   9.900   4.507   9.762  0.8764 -1.3210 -0.2084
19229SOL    HW264803   9.829   4.468   9.890 -0.4213 -0.4904 -0.6595
19230SOL     OW64804   2.915   7.141   9.761  0.4822 -0.0701 -0.4449
19230SOL    HW164805   2.980   7.096   9.707  0.9326 -0.4155  0.3614
19230SOL    HW264806   2.954   7.142   9.849 -0.2943  0.3530 -0.0967
19231SOL     OW64807   1.368   4.791  11.125  0.0200  0.2154  0.0283
19231SOL    HW164808   1.328   4.876  11.109 -0.1584 -0.1153 -1.3689
19231SOL    HW264809   1.313   4.729  11.078  0.2182 -0.6696  0.9240
19232SOL     OW64810   1.548  10.127   3.066  0.0903  0.4998 -0.1572
19232SOL    HW164811   1.536  10.040   3.102  0.6212  0.2423 -0.5807
19232SOL    HW264812   1.582  10.112   2.977 -0.8438  1.1182 -0.6383
19233SOL     OW64813   7.687   3.736  11.580  0.6159  0.1864 -0.1552
19233SOL    HW164814   7.747   3.761  11.510 -0.5218 -0.1648 -1.2805
19233SOL    HW264815   7.611   3.699  11.535  0.5374 -1.5717  1.3044
19234SOL     OW64816   6.879   4.728   1.078 -0.2665  0.2172 -0.0718
19234SOL    HW164817   6.806   4.749   1.137  0.0724 -0.0138  0.4349
19234SOL    HW264818   6.906   4.812   1.042 -0.4082  0.3725  0.1849
19235SOL     OW64819  12.891   4.952   7.255 -0.1043  0.3844  0.4210
19235SOL    HW164820  12.912   4.946   7.162  0.5525  0.0532  0.5823
19235SOL    HW264821  12.798   4.931   7.261 -0.6705  2.4901 -0.3944
19236SOL     OW64822  12.472   0.610   1.767 -0.1554  0.5930  0.2577
19236SOL    HW164823  12.387   0.648   1.747 -0.4268  1.0308  2.0451
19236SOL    HW264824  12.535   0.661   1.716 -1.0685 -1.2015 -2.9272
19237SOL     OW64825   1.423   9.056   1.327  0.1019 -0.0760 -0.3991
19237SOL    HW164826   1.361   9.014   1.387 -0.9262  1.9180  0.0547
19237SOL    HW264827   1.443   8.990   1.262  1.5343 -2.4814  2.2775
19238SOL     OW64828   6.231   5.900  10.242 -0.2710 -0.4538  0.2989
19238SOL    HW164829   6.138   5.924  10.251  0.0237 -0.0140  2.8505
19238SOL    HW264830   6.258   5.941  10.160 -2.3917 -0.8276 -0.6575
19239SOL     OW64831   8.253   4.794  10.747 -0.4969 -0.2781 -0.0673
19239SOL    HW164832   8.270   4.778  10.654  0.1923 -0.5203  0.0920
19239SOL    HW264833   8.340   4.800  10.786 -0.6880  2.6664  0.1100
19240SOL     OW64834   9.270   5.972   1.385 -0.5101 -0.0579  0.0152
19240SOL    HW164835   9.239   6.045   1.439 -1.1417 -0.5732  0.3631
19240SOL    HW264836   9.229   5.987   1.299  1.1073  1.1881 -0.5925
19241SOL     OW64837   0.385   4.834   5.647  0.3347  0.2498 -0.2904
19241SOL    HW164838   0.415   4.912   5.693 -0.1486  0.0996  0.2935
19241SOL    HW264839   0.462   4.778   5.640  0.4604  0.3710  0.1427
19242SOL     OW64840   6.882  11.969   4.490 -0.1809 -0.0595  0.2241
19242SOL    HW164841   6.855  12.022   4.566 -1.0585 -1.5253  0.9797
19242SOL    HW264842   6.978  11.966   4.497 -0.3029 -2.0744  2.7119
19243SOL     OW64843   9.522   7.860   0.383 -0.2366 -0.2804 -0.2748
19243SOL    HW164844   9.469   7.872   0.462  1.5347  0.9517  0.7747
19243SOL    HW264845   9.494   7.931   0.325  1.0255  1.1063  0.7471
19244SOL     OW64846  10.288   4.863   0.652 -0.5809  0.0065 -0.6782
19244SOL    HW164847  10.352   4.929   0.625 -1.8738  1.2529 -0.8020
19244SOL    HW264848  10.203   4.907   0.646 -1.4959 -1.6627 -0.7315
19245SOL     OW64849   3.663   1.259   1.654  0.1075 -0.7870  0.5276
19245SOL    HW164850   3.639   1.312   1.730  1.3690  0.4265  0.1215
19245SOL    HW264851   3.597   1.189   1.652 -0.9028  0.0714  1.7830
19246SOL     OW64852  12.243  10.013  11.543 -0.0788 -0.7387 -0.0288
19246SOL    HW164853  12.294   9.948  11.493  0.5392 -0.1523 -0.1747
19246SOL    HW264854  12.307  10.081  11.566 -0.5390 -0.5935  0.8514
19247SOL     OW64855  10.015   1.274   3.077  0.0309 -0.2836 -0.7524
19247SOL    HW164856  10.075   1.230   3.137  1.5464  0.7225 -1.4672
19247SOL    HW264857   9.934   1.223   3.081  0.6654 -1.2134  0.8393
19248SOL     OW64858   6.171   7.229   3.734 -0.0807  0.5113 -0.1189
19248SOL    HW164859   6.098   7.270   3.781  0.5079  0.8689  0.4977
19248SOL    HW264860   6.241   7.225   3.799  0.1584 -0.6641 -0.4421
19249SOL     OW64861   3.682  12.001   4.051 -0.3103 -0.6285 -0.0621
19249SOL    HW164862   3.630  12.035   3.978 -0.5138 -0.8867 -0.0393
19249SOL    HW264863   3.760  11.964   4.010  0.6327  1.1496  0.0152
19250SOL     OW64864   6.642  10.476   6.636  0.6189  0.5426 -0.2048
19250SOL    HW164865   6.679  10.419   6.703  0.5995 -0.1230 -0.7559
19250SOL    HW264866   6.634  10.561   6.679 -0.1915 -0.0691  0.9090
19251SOL     OW64867   3.921   7.411   0.520  0.2114 -0.0446 -0.1033
19251SOL    HW164868   3.859   7.379   0.455 -0.3423  0.5083  0.1405
19251SOL    HW264869   3.952   7.333   0.565  1.2225 -0.5158 -1.5675
19252SOL     OW64870  10.166   7.970  10.260  0.0633 -0.5915  0.1360
19252SOL    HW164871  10.171   7.874  10.259  0.6657 -0.5698  0.2890
19252SOL    HW264872  10.118   7.990  10.341  1.3951 -0.7309  0.9935
19253SOL     OW64873   9.949   5.535   0.780 -0.0030 -0.0213 -0.3257
19253SOL    HW164874   9.943   5.628   0.801  0.8875 -0.1095  0.3585
19253SOL    HW264875  10.035   5.525   0.739 -0.6118 -0.3322 -1.5722
19254SOL     OW64876   1.739  11.151   4.117 -0.3774 -0.3509 -0.2701
19254SOL    HW164877   1.715  11.065   4.151 -1.0097 -0.6531 -1.4304
19254SOL    HW264878   1.742  11.207   4.195  1.7980 -1.7451  0.7771
19255SOL     OW64879  11.092   8.692   8.322  0.1094 -0.2344  0.2417
19255SOL    HW164880  11.028   8.724   8.258  0.3186  0.5549  0.4084
19255SOL    HW264881  11.065   8.731   8.405 -1.0062 -2.4064  0.9628
19256SOL     OW64882   2.674   6.067   0.156  0.0583 -0.2816 -0.5035
19256SOL    HW164883   2.769   6.059   0.168  0.0999  1.3376  0.5635
19256SOL    HW264884   2.643   5.977   0.146  1.6389 -0.8722 -0.3237
19257SOL     OW64885  10.867   6.605   5.667 -0.4067  0.9200 -0.0066
19257SOL    HW164886  10.788   6.551   5.669 -1.4283  2.3356 -0.3718
19257SOL    HW264887  10.910   6.581   5.585 -1.2763  1.2359 -0.5658
19258SOL     OW64888   2.296   7.292   6.648  0.0781 -0.0899  0.3276
19258SOL    HW164889   2.326   7.381   6.666  0.6100  0.1467 -1.4573
19258SOL    HW264890   2.275   7.293   6.554  1.3957 -2.1821 -0.0549
19259SOL     OW64891  11.969   8.416  10.559 -0.5757  0.6339  0.2110
19259SOL    HW164892  11.886   8.375  10.535 -0.2938  0.3265 -0.2552
19259SOL    HW264893  11.985   8.386  10.648 -1.7424  1.9650  0.9178
19260SOL     OW64894   7.869   1.690   7.747  0.3870 -0.2712  0.0109
19260SOL    HW164895   7.817   1.649   7.816 -1.0734 -0.5869 -1.2033
19260SOL    HW264896   7.960   1.676   7.772 -0.0491  1.1977  2.7756
19261SOL     OW64897   1.806   2.568   5.077 -0.4839  0.0176 -0.0764
19261SOL    HW164898   1.792   2.551   4.984  0.2425  0.2366 -0.2298
19261SOL    HW264899   1.846   2.488   5.111  0.6751  0.4818 -0.2880
19262SOL     OW64900  10.680   4.710   0.574  0.1239 -0.3071  0.1462
19262SOL    HW164901  10.713   4.684   0.660  1.0561 -0.1346 -0.1484
19262SOL    HW264902  10.734   4.786   0.550 -0.8596  0.3340 -0.1155
19263SOL     OW64903   1.480   9.392   5.048  0.0223  0.0845 -0.0447
19263SOL    HW164904   1.506   9.482   5.029 -0.3395 -0.1766 -1.9127
19263SOL    HW264905   1.557   9.339   5.024  0.7723 -0.0689  2.3519
19264SOL     OW64906   1.509   5.886  11.753  0.5502  0.2782  0.7543
19264SOL    HW164907   1.507   5.978  11.779 -0.0642  0.6404 -0.5029
19264SOL    HW264908   1.562   5.885  11.673 -0.0584 -0.3370  0.3514
19265SOL     OW64909   4.224   3.728  11.427 -0.3344  0.3453  0.0404
19265SOL    HW164910   4.143   3.778  11.414 -0.1708  1.2957  2.2098
19265SOL    HW264911   4.197   3.652  11.479  0.1072  0.5109  0.5205
19266SOL     OW64912   4.787   4.725   0.802  0.5288  0.0824  0.8529
19266SOL    HW164913   4.866   4.671   0.795  0.5628  0.0489  1.4362
19266SOL    HW264914   4.774   4.760   0.714  1.6210  0.6716  0.9092
19267SOL     OW64915  11.228   2.198   5.581  0.8672  0.0318  0.0478
19267SOL    HW164916  11.227   2.209   5.486  1.3528  1.5115  0.1950
19267SOL    HW264917  11.195   2.281   5.615  1.2681 -0.2641  1.1921
19268SOL     OW64918  12.411   1.841   5.341  0.0507  0.8205  0.2190
19268SOL    HW164919  12.404   1.766   5.401 -0.9965 -0.6028 -1.5636
19268SOL    HW264920  12.367   1.913   5.387  1.5685  0.5671  2.2226
19269SOL     OW64921   5.844   2.256   5.924 -0.5584  0.2580 -0.4128
19269SOL    HW164922   5.915   2.320   5.918 -0.9729  0.7785  0.1053
19269SOL    HW264923   5.794   2.283   6.001 -0.8350 -0.6010 -0.2831
19270SOL     OW64924   1.231  12.680  10.856  0.3733 -0.2428  0.5311
19270SOL    HW164925   1.159  12.690  10.918 -0.0900 -3.1175  0.5743
19270SOL    HW264926   1.308  12.710  10.905 -0.5326  1.6570  0.9180
19271SOL     OW64927   8.062   6.671   2.052 -0.4101 -0.2250 -0.1959
19271SOL    HW164928   8.005   6.681   1.976 -1.6211  1.5800  0.8803
19271SOL    HW264929   8.119   6.748   2.049 -0.9223  0.2266  1.0462
19272SOL     OW64930   8.548   8.143   4.903  0.0660  0.3749 -0.4106
19272SOL    HW164931   8.596   8.113   4.981 -1.3151  0.4773  0.5015
19272SOL    HW264932   8.568   8.237   4.898  2.1227 -0.0571 -1.6448
19273SOL     OW64933   2.803   2.274  11.906 -0.2585 -0.7184  0.5769
19273SOL    HW164934   2.793   2.364  11.939 -0.0504 -0.2480 -0.5649
19273SOL    HW264935   2.769   2.218  11.975 -2.1873  0.3339  0.5318
19274SOL     OW64936   0.760   7.445   2.481  0.1442 -0.3755 -0.4397
19274SOL    HW164937   0.684   7.491   2.445  0.3741 -0.8045 -1.5214
19274SOL    HW264938   0.821   7.515   2.504 -0.6616 -0.0126  0.6980
19275SOL     OW64939   8.753  12.310   0.589 -0.1699 -0.4768  0.2729
19275SOL    HW164940   8.810  12.387   0.584 -0.1565 -0.2701  2.4282
19275SOL    HW264941   8.705  12.321   0.672 -2.8335 -1.0190 -1.0804
19276SOL     OW64942   7.897   8.901   5.998 -0.5241 -0.0041  0.5831
19276SOL    HW164943   7.872   8.810   6.014 -2.7552  0.5448  0.6195
19276SOL    HW264944   7.964   8.896   5.930 -0.7930 -1.6549  0.4020
19277SOL     OW64945  10.905   2.448  10.575 -0.1064  0.6150 -0.3045
19277SOL    HW164946  10.834   2.496  10.532 -0.1771 -0.4958 -1.4770
19277SOL    HW264947  10.983   2.471  10.524  0.1846  0.9162  0.2653
19278SOL     OW64948   3.528   0.623   4.468  0.2505  0.2428  0.4972
19278SOL    HW164949   3.493   0.702   4.508  0.6354  0.7838 -0.2121
19278SOL    HW264950   3.604   0.601   4.522 -0.7273 -0.5273  1.6058
19279SOL     OW64951  12.593   0.136  12.429  0.2874 -0.4537  0.2455
19279SOL    HW164952  12.631   0.112  12.513  1.6385 -2.9202 -0.9571
19279SOL    HW264953  12.501   0.114  12.437 -0.1392  1.6063  1.8014
19280SOL     OW64954   4.964   2.828   3.867 -0.1738 -0.0315  0.3812
19280SOL    HW164955   4.894   2.837   3.931  2.6689 -0.6019  3.9094
19280SOL    HW264956   4.927   2.774   3.798 -3.1272 -0.4070  2.0831
19281SOL     OW64957   7.156  11.608   3.991 -0.2233  1.2014 -0.2348
19281SOL    HW164958   7.131  11.554   3.916 -2.2504  2.7022 -0.7265
19281SOL    HW264959   7.171  11.546   4.062 -3.3522 -0.0296 -0.5169
19282SOL     OW64960  10.168   9.283   0.265 -0.7239 -0.2861  0.7508
19282SOL    HW164961  10.116   9.243   0.195  0.9270 -1.7147  0.2640
19282SOL    HW264962  10.259   9.267   0.239 -0.0079  1.7624  1.7621
19283SOL     OW64963   8.732   2.667   4.364 -0.3720  0.3012  0.4588
19283SOL    HW164964   8.730   2.733   4.295 -1.3457 -0.3958 -0.2011
19283SOL    HW264965   8.684   2.706   4.437 -1.0617  0.2715  0.0194
19284SOL     OW64966   1.502   4.066  12.708  0.1305  0.5135 -0.1878
19284SOL    HW164967   1.494   4.161  12.717  0.7099  0.9685 -3.3520
19284SOL    HW264968   1.412   4.035  12.693 -0.0864  0.4736  1.0510
19285SOL     OW64969  12.190   8.348  10.399 -0.0470 -0.4998  0.2046
19285SOL    HW164970  12.111   8.371  10.448 -0.1041 -1.5129  0.6048
19285SOL    HW264971  12.244   8.300  10.461  0.8857  0.1654 -0.0762
19286SOL     OW64972   3.788   2.057   5.968  0.7368  0.1033  0.0423
19286SOL    HW164973   3.800   2.099   6.053 -0.6547  0.4359  0.0876
19286SOL    HW264974   3.739   1.978   5.987 -0.1193  0.4893 -0.5104
19287SOL     OW64975   2.313   0.151  12.687  0.3926  0.2790 -0.5066
19287SOL    HW164976   2.377   0.171  12.755 -0.4031  0.5453  0.1750
19287SOL    HW264977   2.232   0.191  12.718 -0.7362 -2.0991 -0.1449
19288SOL     OW64978   4.579  10.356   7.178 -0.0341 -0.3032 -0.4425
19288SOL    HW164979   4.593  10.267   7.146 -0.2336 -0.6516  0.3914
19288SOL    HW264980   4.633  10.411   7.121  1.1638 -1.1052 -0.1353
19289SOL     OW64981  10.982   5.294  11.482  0.1194 -0.1979  0.0327
19289SOL    HW164982  11.065   5.247  11.490  0.0858 -0.0454  1.3872
19289SOL    HW264983  10.945   5.294  11.570  0.3641  2.8097  0.2536
19290SOL     OW64984  10.342  11.166   8.132 -0.0418  0.2072 -0.3831
19290SOL    HW164985  10.260  11.207   8.107 -0.3064 -0.1629 -0.1280
19290SOL    HW264986  10.410  11.228   8.105 -0.4906  1.6989  1.7240
19291SOL     OW64987   9.293   1.176   3.848 -0.3136 -0.3729 -0.1951
19291SOL    HW164988   9.228   1.106   3.842 -1.3267  0.4548  0.6490
19291SOL    HW264989   9.250   1.251   3.808  0.0240  0.2586  0.5994
19292SOL     OW64990  10.857   0.129  12.336 -0.1292 -0.1559  0.1999
19292SOL    HW164991  10.926   0.083  12.384  1.1567  0.2024 -1.2059
19292SOL    HW264992  10.884   0.122  12.244 -2.6690 -1.1255 -0.5444
19293SOL     OW64993  11.445   3.809   5.157 -0.3058  0.1311  0.2025
19293SOL    HW164994  11.371   3.751   5.179 -0.3271 -0.2242 -0.7709
19293SOL    HW264995  11.461   3.859   5.237 -0.3247 -1.1887  1.0650
19294SOL     OW64996   5.504   0.784  10.256 -0.2046 -0.2212 -0.1180
19294SOL    HW164997   5.424   0.738  10.279  0.0054 -0.4712  0.1311
19294SOL    HW264998   5.558   0.719  10.211  0.5271 -0.5561  1.1677
19295SOL     OW64999   6.847  10.529   9.995  0.7137  0.5693 -0.5260
19295SOL    HW165000   6.910  10.574  10.051  1.8088 -1.1077 -0.3328
19295SOL    HW265001   6.765  10.534  10.044  1.3201  0.4040  0.5512
19296SOL     OW65002   6.705   7.502   3.558  0.1447 -0.4294  0.2118
19296SOL    HW165003   6.663   7.587   3.569  0.9503 -0.3234  3.8849
19296SOL    HW265004   6.798   7.522   3.553  0.3006 -1.0485  0.5594
19297SOL     OW65005  12.028  10.361  10.161  0.1871 -0.2199  0.2056
19297SOL    HW165006  12.055  10.386  10.250  1.0812 -0.0160 -0.1115
19297SOL    HW265007  12.062  10.431  10.106 -1.6674  0.4437 -0.1553
19298SOL     OW65008   7.393   5.621   3.197  0.1574 -0.1835  0.1996
19298SOL    HW165009   7.485   5.596   3.190 -0.0424 -0.5857 -1.3484
19298SOL    HW265010   7.347   5.564   3.136 -0.9444  0.8950 -0.0374
19299SOL     OW65011   9.477  10.375   4.981 -0.4038  0.3968 -0.0335
19299SOL    HW165012   9.391  10.359   5.022  1.1576 -0.0242  3.4709
19299SOL    HW265013   9.523  10.430   5.044  2.3677 -0.4960 -1.1476
19300SOL     OW65014   5.670   9.058   7.132  0.5634 -0.3716 -0.2577
19300SOL    HW165015   5.765   9.048   7.123  0.9382  2.0462  0.0665
19300SOL    HW265016   5.654   9.150   7.109 -1.4673 -0.2849  1.2203
19301SOL     OW65017  10.059   3.297   8.975 -0.4011 -0.0513 -0.0891
19301SOL    HW165018  10.138   3.350   8.986 -1.9619  2.6963 -1.1638
19301SOL    HW265019  10.022   3.291   9.063  0.5540 -0.6704  0.2881
19302SOL     OW65020   5.012   0.740   9.964  0.3046  0.7228 -0.0785
19302SOL    HW165021   5.019   0.676  10.035  2.8785  0.2898 -0.6411
19302SOL    HW265022   4.936   0.794   9.988 -0.2556 -0.8112  1.8161
19303SOL     OW65023   4.174   3.875   7.632  0.0193  0.0678 -0.1460
19303SOL    HW165024   4.170   3.966   7.661 -0.5334 -0.0469  0.1507
19303SOL    HW265025   4.139   3.825   7.705  0.6642 -0.4183 -0.1651
19304SOL     OW65026   1.569   6.393  10.830 -0.0219  0.2157 -0.2152
19304SOL    HW165027   1.496   6.366  10.886  0.3105  1.3878  0.8040
19304SOL    HW265028   1.546   6.482  10.802  0.6609  0.3058 -0.5076
19305SOL     OW65029   6.946   0.226  11.865 -0.3619 -1.0708  0.3141
19305SOL    HW165030   7.004   0.191  11.933 -0.6344  1.3095  1.8954
19305SOL    HW265031   6.859   0.220  11.903 -0.6569 -0.7143 -0.2957
19306SOL     OW65032  10.293   7.949   9.072  0.3246  0.2970  0.1280
19306SOL    HW165033  10.301   8.021   9.009  1.0741  0.0073 -0.1318
19306SOL    HW265034  10.381   7.909   9.073  0.2950  0.2376  1.2963
19307SOL     OW65035   5.423   6.186   0.630  0.3282 -0.0872 -0.2526
19307SOL    HW165036   5.507   6.145   0.652 -0.5264 -1.6113  0.3227
19307SOL    HW265037   5.424   6.269   0.677  1.7052  0.1564 -0.6566
19308SOL     OW65038   6.294   2.904   5.062 -0.1287  0.1053  0.3030
19308SOL    HW165039   6.355   2.955   5.009 -0.9178  0.3521 -0.3871
19308SOL    HW265040   6.260   2.838   5.002 -0.4105 -0.1390  0.7288
19309SOL     OW65041   7.350   0.672  12.754 -0.1419  0.6321 -0.1556
19309SOL    HW165042   7.300   0.677  12.836  0.9571 -1.4912  0.7300
19309SOL    HW265043   7.424   0.616  12.775  1.0117  1.2867 -2.2304
19310SOL     OW65044  12.755   7.485  11.794 -0.3931  0.1237  0.1900
19310SOL    HW165045  12.822   7.513  11.855  0.2890 -0.5932 -0.2130
19310SOL    HW265046  12.695   7.432  11.846  1.9497 -3.3167 -0.2805
19311SOL     OW65047   5.888   4.380   0.423 -1.0410  0.0714  0.3854
19311SOL    HW165048   5.971   4.402   0.466 -0.2559 -1.5246 -0.1937
19311SOL    HW265049   5.827   4.447   0.451  0.4105  1.1978  0.9760
19312SOL     OW65050  12.913   6.792   6.475 -0.5516  0.0956  0.1399
19312SOL    HW165051  12.828   6.760   6.445 -0.3523  0.4607 -0.8508
19312SOL    HW265052  12.906   6.795   6.571 -1.6417  0.1177  0.0656
19313SOL     OW65053  12.352   8.745  10.458 -0.6430  0.1784  0.3196
19313SOL    HW165054  12.346   8.698  10.374  0.7239 -0.9968  0.8439
19313SOL    HW265055  12.276   8.714  10.508 -0.5586 -0.3744  0.1129
19314SOL     OW65056  11.187   3.996   7.156 -0.9670 -0.0874 -0.2724
19314SOL    HW165057  11.249   4.012   7.085 -1.2765  0.1674 -0.4923
19314SOL    HW265058  11.241   3.985   7.233 -0.6127 -0.5892 -0.5893
19315SOL     OW65059   9.326  10.869   9.854 -0.6958 -0.2863 -0.0879
19315SOL    HW165060   9.281  10.785   9.865 -0.6850 -0.3364 -0.4037
19315SOL    HW265061   9.262  10.934   9.882 -0.7557 -0.3934  0.0225
19316SOL     OW65062   4.157   4.426   0.839 -0.1195  0.2451 -0.4608
19316SOL    HW165063   4.251   4.444   0.835 -0.2346  1.2646  0.6983
19316SOL    HW265064   4.151   4.341   0.883  0.2501  0.3932 -0.1145
19317SOL     OW65065  11.665   3.299   1.467  0.0685 -0.2620  0.1262
19317SOL    HW165066  11.638   3.225   1.414 -0.4091  0.5503 -0.8020
19317SOL    HW265067  11.595   3.310   1.532 -1.0112  0.7143 -1.1324
19318SOL     OW65068   0.386   3.952  12.729  0.2754  0.7008  0.2883
19318SOL    HW165069   0.382   3.940  12.634  1.3563  1.0120  0.1860
19318SOL    HW265070   0.295   3.955  12.757 -0.0512  0.1317 -0.6787
19319SOL     OW65071   4.771   9.820  10.980 -0.3943 -0.2704 -0.1450
19319SOL    HW165072   4.732   9.905  10.961  0.3903  0.4929  1.5011
19319SOL    HW265073   4.849   9.816  10.924 -0.1080  0.3535  0.2069
19320SOL     OW65074   1.922   2.892   8.866  0.7081  0.0706  0.1302
19320SOL    HW165075   1.980   2.822   8.896  1.2358  1.2116  1.9440
19320SOL    HW265076   1.924   2.886   8.770  2.2828 -1.1381  0.2007
19321SOL     OW65077   5.017  10.620  10.350  0.2458  0.5382  0.4030
19321SOL    HW165078   4.930  10.652  10.328  0.6016  2.4962  1.6160
19321SOL    HW265079   5.070  10.637  10.272  0.3180  2.6218  0.8592
19322SOL     OW65080   2.335   0.067   1.078 -0.0932 -0.0454 -0.0657
19322SOL    HW165081   2.292  -0.009   1.037  1.7547 -0.4774 -1.3145
19322SOL    HW265082   2.382   0.109   1.006  1.8943  0.1646  1.2781
19323SOL     OW65083   1.809   1.909   6.103  0.5118  0.5600  0.5105
19323SOL    HW165084   1.752   1.836   6.077  2.6384 -0.9810 -0.0559
19323SOL    HW265085   1.757   1.987   6.084 -1.2692 -0.7543 -0.3340
19324SOL     OW65086   8.249   2.454   5.350  0.0988  0.2934 -0.0010
19324SOL    HW165087   8.247   2.414   5.263  0.4959 -0.0813  0.1578
19324SOL    HW265088   8.272   2.545   5.334  0.3078  0.1943 -0.2829
19325SOL     OW65089   3.716   1.067  10.328 -0.2512 -0.5898 -0.0522
19325SOL    HW165090   3.716   1.155  10.290 -0.2978 -0.9748 -0.9733
19325SOL    HW265091   3.805   1.054  10.359 -1.0490  1.1716  3.5065
19326SOL     OW65092   4.688   9.602   6.395 -0.5759 -0.4064  0.4730
19326SOL    HW165093   4.737   9.679   6.423 -0.0409 -0.3049 -0.6786
19326SOL    HW265094   4.617   9.637   6.341 -1.3775 -0.6126  1.3821
19327SOL     OW65095  11.849   1.563   9.049  0.4988 -0.5820  0.3883
19327SOL    HW165096  11.859   1.571   8.954 -0.7125 -0.2212  0.2805
19327SOL    HW265097  11.839   1.469   9.064  2.6644 -0.8713  0.3966
19328SOL     OW65098   2.148   3.276   2.608 -0.0310  0.2754  0.5877
19328SOL    HW165099   2.235   3.254   2.576 -0.2298 -1.2158  0.9851
19328SOL    HW265100   2.099   3.193   2.604 -0.5433  0.3656  3.1607
19329SOL     OW65101  12.903   8.013   1.845 -0.1599 -0.9297  0.3300
19329SOL    HW165102  12.810   7.991   1.842 -0.5704  0.6374  0.7774
19329SOL    HW265103  12.934   7.974   1.927 -0.9898  0.5195  1.3751
19330SOL     OW65104   2.418  10.472  10.326  0.0812  0.6215  0.7602
19330SOL    HW165105   2.341  10.420  10.347  0.7505 -1.1768 -1.0010
19330SOL    HW265106   2.475  10.464  10.403  0.6191 -2.2120  0.1649
19331SOL     OW65107   3.168   6.923  10.335 -0.0746 -0.3517  0.1180
19331SOL    HW165108   3.127   6.997  10.289  1.7153  0.8565  0.3929
19331SOL    HW265109   3.134   6.929  10.424 -0.9161 -0.6632 -0.1645
19332SOL     OW65110   8.883   7.164  12.102 -0.2575 -0.0957 -0.4871
19332SOL    HW165111   8.969   7.164  12.145  0.1472  1.1365 -1.2582
19332SOL    HW265112   8.832   7.100  12.152  0.8859 -0.3430  0.4204
19333SOL     OW65113   4.204  12.483   2.822  0.0111  0.0937 -0.6498
19333SOL    HW165114   4.184  12.573   2.847  0.2167 -0.0812  0.1591
19333SOL    HW265115   4.186  12.480   2.728 -0.1721  0.9278 -0.6492
19334SOL     OW65116  12.838   1.656   8.031  0.0499  0.1052 -0.4879
19334SOL    HW165117  12.814   1.584   7.972 -1.3313 -1.1606  1.5292
19334SOL    HW265118  12.841   1.617   8.118  0.7645  2.1860  0.4964
19335SOL     OW65119   1.662   6.646  10.427  0.2658 -0.6097  0.1321
19335SOL    HW165120   1.578   6.679  10.459 -0.0228  0.7753 -1.8368
19335SOL    HW265121   1.647   6.629  10.334  1.9224 -1.2357 -0.0516
19336SOL     OW65122  12.728   3.315  10.178 -0.3430 -0.2242  0.3158
19336SOL    HW165123  12.787   3.385  10.150 -0.7869  0.6715  1.5394
19336SOL    HW265124  12.755   3.295  10.267 -0.3100 -1.5437  0.0304
19337SOL     OW65125   5.647   8.174  12.182 -0.0080 -0.2758 -0.0072
19337SOL    HW165126   5.562   8.205  12.152  0.2177 -1.9584 -2.6386
19337SOL    HW265127   5.705   8.250  12.172 -0.8427  0.4406  0.4035
19338SOL     OW65128   4.360   7.301   3.780 -0.1963  0.4107  0.0383
19338SOL    HW165129   4.315   7.256   3.851  2.3872 -0.0002  1.5154
19338SOL    HW265130   4.343   7.247   3.702 -2.2026  0.3029  0.5095
19339SOL     OW65131   0.418  10.918  12.232 -0.7665 -0.1192  0.3332
19339SOL    HW165132   0.445  10.828  12.218  1.5677  1.0041 -4.5565
19339SOL    HW265133   0.335  10.925  12.185 -0.1627  0.5659 -0.6589
19340SOL     OW65134   1.057   0.987   4.852 -0.3526 -0.4147 -0.9053
19340SOL    HW165135   1.015   1.058   4.901  0.5108 -0.0994 -0.6016
19340SOL    HW265136   0.997   0.913   4.861 -0.6061 -0.1152 -0.0691
19341SOL     OW65137   1.392   2.845   9.918  0.6580  0.0514 -0.0457
19341SOL    HW165138   1.448   2.791   9.974  0.5103  0.2986  0.3439
19341SOL    HW265139   1.318   2.869   9.974 -0.7972 -1.7827 -1.0633
19342SOL     OW65140  10.286  11.542   3.286  0.1158  0.4308  0.0356
19342SOL    HW165141  10.216  11.585   3.237 -0.0053 -1.1464 -1.2788
19342SOL    HW265142  10.241  11.492   3.354  0.2229  1.9316  1.2494
19343SOL     OW65143   9.874   6.741  10.502 -0.1098 -0.9704  0.8073
19343SOL    HW165144   9.864   6.665  10.445 -1.8188 -0.3818  0.2653
19343SOL    HW265145   9.802   6.799  10.477  1.7326  1.3045  0.4658
19344SOL     OW65146   9.966   9.984   0.070 -0.2044  0.2366 -0.3119
19344SOL    HW165147   9.922  10.065   0.044 -1.8351 -0.1767  0.9471
19344SOL    HW265148   9.900   9.937   0.121  1.2892 -1.0765  0.4996
19345SOL     OW65149   2.509  11.733   0.551 -0.2232  0.0683 -0.5031
19345SOL    HW165150   2.469  11.646   0.557  1.9335 -1.0354 -1.0069
19345SOL    HW265151   2.455  11.780   0.488 -0.4815 -1.5162 -1.5321
19346SOL     OW65152   9.053  11.172   2.511 -0.3920  0.2044  0.0774
19346SOL    HW165153   9.040  11.111   2.583 -0.2994 -0.1417 -0.1990
19346SOL    HW265154   9.105  11.123   2.447 -1.4011  0.1379 -0.7115
19347SOL     OW65155   1.171   9.129   0.356 -0.3069 -1.0302 -0.3623
19347SOL    HW165156   1.083   9.160   0.376 -0.7793 -1.9946 -0.8405
19347SOL    HW265157   1.166   9.034   0.367  0.5372 -1.1487 -0.8855
19348SOL     OW65158   9.787   4.389  12.876 -0.0069  0.4502 -0.3474
19348SOL    HW165159   9.765   4.433  12.794  2.1377 -0.4866 -1.5119
19348SOL    HW265160   9.842   4.315  12.850  0.2380 -0.2580  1.9047
19349SOL     OW65161  10.345   6.027   9.223  0.0674  0.6516  0.6264
19349SOL    HW165162  10.303   6.033   9.309 -0.4073  0.5662  0.4064
19349SOL    HW265163  10.272   6.027   9.162  0.4075  0.7616  0.2204
19350SOL     OW65164   4.376   9.600   3.712 -0.0720  1.2617 -0.2707
19350SOL    HW165165   4.424   9.519   3.694 -1.6721  0.4423 -1.0612
19350SOL    HW265166   4.346   9.591   3.802  0.1121  1.1611 -0.2193
19351SOL     OW65167   0.697  12.449  10.040  0.1133  0.1426  0.3509
19351SOL    HW165168   0.636  12.474  10.110  1.4982  0.5488  1.4663
19351SOL    HW265169   0.735  12.532  10.011 -1.9641  0.2560 -2.4522
19352SOL     OW65170   7.006   5.723  11.992 -0.3305 -0.0381  0.0170
19352SOL    HW165171   7.094   5.695  12.018 -0.9296 -1.0854  1.0330
19352SOL    HW265172   7.018   5.763  11.906  1.0316 -0.8668 -0.2154
19353SOL     OW65173  11.060   8.220   3.228  0.1825  0.1007 -0.2219
19353SOL    HW165174  11.114   8.141   3.220 -1.8775 -1.5202  1.0698
19353SOL    HW265175  11.039   8.226   3.321  1.1334  2.8211 -0.1132
19354SOL     OW65176   8.831   6.832   6.569  0.3647  0.8243 -0.0944
19354SOL    HW165177   8.829   6.846   6.474  1.5675 -1.1083 -0.4701
19354SOL    HW265178   8.923   6.845   6.593  0.2321  0.4685  0.6339
19355SOL     OW65179   4.490   6.236   9.787 -0.2363 -0.0157 -0.5283
19355SOL    HW165180   4.486   6.294   9.863  1.1661  0.1026 -0.5173
19355SOL    HW265181   4.482   6.293   9.712 -0.2004  0.0431 -0.4880
19356SOL     OW65182  10.101   2.009   7.987 -0.2712 -0.5082  0.4058
19356SOL    HW165183  10.045   1.935   8.011  0.9739 -1.0323  1.9007
19356SOL    HW265184  10.190   1.975   7.996  0.3352  1.1603  1.1703
19357SOL     OW65185  11.717  12.897   9.867  0.3715 -0.4879  0.9936
19357SOL    HW165186  11.773  12.920   9.941  1.6048  0.7754 -0.2941
19357SOL    HW265187  11.777  12.875   9.796 -0.7697 -0.1793 -0.1081
19358SOL     OW65188  12.506   8.994   9.367  0.3525  0.1114  0.0769
19358SOL    HW165189  12.478   9.070   9.317 -0.5821 -0.6646 -0.6105
19358SOL    HW265190  12.601   8.991   9.356  0.5429  1.7603  0.9808
19359SOL     OW65191   6.447   1.587   6.462 -0.2018 -0.0629  0.1848
19359SOL    HW165192   6.422   1.585   6.369  1.0836  2.6173 -0.3131
19359SOL    HW265193   6.501   1.509   6.474 -1.2984 -1.0501 -1.0139
19360SOL     OW65194   6.914  10.732   2.203  0.4112  0.4585  0.7815
19360SOL    HW165195   6.904  10.760   2.112  1.4799  2.5640  1.2468
19360SOL    HW265196   6.871  10.800   2.254 -0.3227 -0.7814  1.8865
19361SOL     OW65197   4.788   8.515   6.488  0.4234  0.3219  0.2596
19361SOL    HW165198   4.826   8.586   6.437  5.3318 -0.2195  2.5365
19361SOL    HW265199   4.743   8.559   6.560  1.2862  1.1682  0.3043
19362SOL     OW65200   2.787   7.938   1.840 -0.2005  0.1984  0.4640
19362SOL    HW165201   2.805   8.011   1.781  0.1012  0.0968  0.4291
19362SOL    HW265202   2.874   7.903   1.862 -0.4037 -1.0135 -0.5997
19363SOL     OW65203   9.637   5.503   6.407  0.3502 -0.5132  0.1229
19363SOL    HW165204   9.548   5.538   6.405  1.2358  1.9579 -0.1217
19363SOL    HW265205   9.647   5.466   6.495 -0.1870  1.3950  1.0361
19364SOL     OW65206  12.788   3.594   7.741 -0.1494  0.3192  0.0582
19364SOL    HW165207  12.787   3.586   7.646  0.4387 -0.6185  0.1175
19364SOL    HW265208  12.721   3.532   7.771  0.7513 -0.5559  0.3099
19365SOL     OW65209  10.415   0.071  12.060 -0.4242  0.4849  0.1252
19365SOL    HW165210  10.462   0.154  12.052  0.5532 -0.1316 -0.7320
19365SOL    HW265211  10.370   0.077  12.144  0.5225  1.4357  0.5823
19366SOL     OW65212   3.322   0.587  11.179 -0.1053  0.2279 -0.2660
19366SOL    HW165213   3.340   0.646  11.252 -2.0240  1.6493 -0.8847
19366SOL    HW265214   3.268   0.518  11.218  0.7553 -0.2701  0.0952
19367SOL     OW65215   9.663   6.182   3.598  0.2787 -0.3021  0.1518
19367SOL    HW165216   9.626   6.123   3.532 -0.3576 -0.7366  0.8765
19367SOL    HW265217   9.623   6.153   3.680  3.4536 -1.8801  1.3074
19368SOL     OW65218   2.552   2.213   2.462 -0.2999  0.0778 -0.3718
19368SOL    HW165219   2.609   2.137   2.449  1.8068  1.6797 -1.0756
19368SOL    HW265220   2.521   2.205   2.552  3.9924  0.8999  1.3970
19369SOL     OW65221   3.390   6.850   8.217 -0.7825  0.2986  0.3328
19369SOL    HW165222   3.454   6.874   8.150 -1.6467 -2.1520 -1.5331
19369SOL    HW265223   3.359   6.934   8.252  1.9649  1.5838 -0.0584
19370SOL     OW65224  10.693   7.000  10.315  0.4978 -0.5240 -0.7891
19370SOL    HW165225  10.668   7.083  10.275 -0.3771 -1.4841 -2.3385
19370SOL    HW265226  10.782   6.984  10.283  0.4485 -0.4610 -0.9602
19371SOL     OW65227  10.858   0.307   4.324 -0.0246  0.8291 -0.1729
19371SOL    HW165228  10.821   0.395   4.322  1.6189  1.6118  1.4854
19371SOL    HW265229  10.952   0.321   4.337 -0.0576 -1.1691  3.1885
19372SOL     OW65230   4.702   0.809   2.780  0.5540 -0.0677  0.2584
19372SOL    HW165231   4.636   0.741   2.785  0.6857 -0.1182  2.1645
19372SOL    HW265232   4.778   0.773   2.826  1.2810  0.6668 -0.3263
19373SOL     OW65233   5.409  11.748   5.501  0.9009  0.1237 -0.2253
19373SOL    HW165234   5.462  11.735   5.422  2.3091 -0.2622  0.7322
19373SOL    HW265235   5.325  11.782   5.469  1.5589  0.3180 -1.8420
19374SOL     OW65236  12.135   2.675   5.972 -0.1270  0.1430  0.6613
19374SOL    HW165237  12.103   2.764   5.988  0.4895  0.3708  0.6488
19374SOL    HW265238  12.107   2.655   5.883  1.9694  1.3513 -0.3557
19375SOL     OW65239   9.927  10.340   8.004  0.5093  0.1994  1.0042
19375SOL    HW165240   9.977  10.288   7.941  0.1699  0.6351  0.3526
19375SOL    HW265241   9.989  10.359   8.074  1.2270  0.6006  0.2829
19376SOL     OW65242  11.048   9.949   9.719 -0.4448  0.0295 -0.6746
19376SOL    HW165243  11.141   9.970   9.728 -0.8730  2.9201 -1.9106
19376SOL    HW265244  11.047   9.856   9.697  1.9830 -0.6040  1.3538
19377SOL     OW65245  10.265   1.290   1.753  0.0350 -0.8502 -0.0234
19377SOL    HW165246  10.267   1.380   1.786  2.6236 -0.2348 -1.5619
19377SOL    HW265247  10.195   1.248   1.803 -1.2180  1.9570  0.8273
19378SOL     OW65248   0.881   2.737   8.313 -0.0839 -0.2250  0.4998
19378SOL    HW165249   0.811   2.746   8.248  1.0972  0.3135 -0.7399
19378SOL    HW265250   0.852   2.791   8.387 -0.3643  1.0942 -0.5506
19379SOL     OW65251   8.934   0.461   7.691 -0.1450  0.1687  0.2227
19379SOL    HW165252   9.011   0.404   7.690  0.3452  0.7823  1.7015
19379SOL    HW265253   8.934   0.500   7.778 -1.0767  1.6215 -0.4051
19380SOL     OW65254   2.417   0.472   1.218 -0.3309 -0.2224  0.1333
19380SOL    HW165255   2.377   0.449   1.134 -0.9646  0.2340  0.3106
19380SOL    HW265256   2.381   0.409   1.280 -0.9464  0.3226  0.3349
19381SOL     OW65257   9.076   2.390   0.130  0.2378  0.0003 -0.0105
19381SOL    HW165258   9.031   2.357   0.052  2.6516  1.9667 -2.4391
19381SOL    HW265259   9.134   2.318   0.156  0.0980 -0.3534 -0.6473
19382SOL     OW65260   3.370   9.989   0.813  0.0446 -0.4704 -0.5544
19382SOL    HW165261   3.345   9.900   0.836  1.8599 -0.4670  1.7747
19382SOL    HW265262   3.458   9.982   0.778  0.2016  0.4210 -0.3611
19383SOL     OW65263   7.774  11.755   0.495 -0.0226  0.2422  0.2450
19383SOL    HW165264   7.731  11.738   0.412 -0.8791  1.0137  0.5098
19383SOL    HW265265   7.852  11.807   0.472  0.5736 -0.8320 -0.1977
19384SOL     OW65266   1.320  12.779   9.726 -0.5780  0.6506  0.5342
19384SOL    HW165267   1.238  12.816   9.758 -0.7303 -1.0770  2.3926
19384SOL    HW265268   1.375  12.773   9.804  0.5657 -0.0470 -0.2968
19385SOL     OW65269   9.181   0.776   7.236 -0.2462 -0.0200  0.1669
19385SOL    HW165270   9.139   0.690   7.226 -0.5712  0.0777  0.6767
19385SOL    HW265271   9.118   0.828   7.286 -0.0968  0.5506 -0.2299
19386SOL     OW65272   9.091   4.068   9.544 -0.0589  0.5230  0.2963
19386SOL    HW165273   9.058   4.123   9.474 -0.1181  0.9632  0.6650
19386SOL    HW265274   9.051   4.104   9.624  0.0931  0.1023  0.5658
19387SOL     OW65275   5.156   1.225   1.199 -0.4056 -0.0722 -0.1936
19387SOL    HW165276   5.069   1.234   1.239  0.3483 -0.2848  1.6060
19387SOL    HW265277   5.197   1.154   1.248  0.6912 -0.1763 -1.2283
19388SOL     OW65278   4.929   0.757   6.812 -0.5027  0.3230 -0.7638
19388SOL    HW165279   4.952   0.777   6.722 -0.9770  0.2843 -0.8951
19388SOL    HW265280   4.853   0.699   6.805 -0.1433 -0.2131 -0.3571
19389SOL     OW65281   5.284   5.385   5.970  0.2905  0.2539 -0.6392
19389SOL    HW165282   5.350   5.316   5.974 -0.0556 -0.0487 -0.0282
19389SOL    HW265283   5.289   5.418   5.880  1.1516  0.1233 -0.6458
19390SOL     OW65284   6.007   9.841  10.382 -0.3639 -0.1368 -0.1980
19390SOL    HW165285   5.914   9.823  10.394 -0.3477 -0.1985 -0.1623
19390SOL    HW265286   6.010   9.926  10.338 -0.4816 -0.9824 -1.9132
19391SOL     OW65287   4.888   4.044   3.691 -0.4965 -0.9148  0.3643
19391SOL    HW165288   4.833   3.980   3.736  0.0276 -0.8651  1.1016
19391SOL    HW265289   4.977   4.012   3.704 -0.2024  0.1544  1.0564
19392SOL     OW65290   6.955   6.250   3.429  0.1368  0.0020  0.3715
19392SOL    HW165291   7.002   6.333   3.430  1.3098 -0.5963 -0.7113
19392SOL    HW265292   6.993   6.200   3.501 -0.1243  0.1833  0.6330
19393SOL     OW65293  11.005   5.335   8.143 -0.0547 -0.3358 -0.3713
19393SOL    HW165294  10.978   5.260   8.091 -1.5038 -0.2072  0.1448
19393SOL    HW265295  10.936   5.345   8.209  1.1301  0.2283  0.8295
19394SOL     OW65296  10.695   5.050   1.438  0.1995  0.8621 -0.3719
19394SOL    HW165297  10.667   4.967   1.476  3.1135 -0.2405 -0.3967
19394SOL    HW265298  10.679   5.041   1.344  0.7718  0.1817 -0.4128
19395SOL     OW65299   6.059   5.718   0.363 -0.0703  0.1603 -0.8275
19395SOL    HW165300   6.098   5.666   0.433 -0.1904 -1.0305 -1.6042
19395SOL    HW265301   5.970   5.685   0.355 -0.6766  1.6175 -0.2682
19396SOL     OW65302   1.684   2.779  10.676 -0.4620 -0.2523 -0.0390
19396SOL    HW165303   1.613   2.757  10.736 -0.4967  1.8217  0.7805
19396SOL    HW265304   1.668   2.871  10.653  2.4056  0.5990  0.8874
19397SOL     OW65305   9.188  12.879   0.607  0.0826  0.1133  0.0094
19397SOL    HW165306   9.129  12.821   0.559 -0.4864  0.3527  0.4035
19397SOL    HW265307   9.137  12.908   0.683  0.0109  1.8580 -0.6494
19398SOL     OW65308   4.536   3.188   6.381  0.3377 -0.0453 -0.4291
19398SOL    HW165309   4.607   3.251   6.375 -0.8355  1.2846 -0.9579
19398SOL    HW265310   4.534   3.162   6.473  0.8155  0.7205 -0.1938
19399SOL     OW65311  12.397   5.532   7.395  0.3134 -0.2950 -0.3926
19399SOL    HW165312  12.339   5.509   7.468  1.2705 -0.4103  0.3437
19399SOL    HW265313  12.347   5.509   7.317 -1.3442  1.2212  0.1560
19400SOL     OW65314   6.530  12.180  10.655 -0.3091 -0.2141 -0.3565
19400SOL    HW165315   6.481  12.107  10.692 -0.7783 -0.2456 -1.0235
19400SOL    HW265316   6.564  12.146  10.572 -0.3016  0.2386 -0.5399
19401SOL     OW65317   8.766   8.415   3.852 -0.0250 -0.5142  0.7640
19401SOL    HW165318   8.850   8.371   3.839 -0.7322 -1.8984  0.7126
19401SOL    HW265319   8.768   8.488   3.791  2.0243  0.8435  2.3026
19402SOL     OW65320   2.590  11.227   0.993  0.3979  0.3810  0.4274
19402SOL    HW165321   2.539  11.176   1.057  1.9731 -0.8182  0.7940
19402SOL    HW265322   2.576  11.318   1.019 -0.9591  0.0560  0.9468
19403SOL     OW65323   8.055  12.763   6.139  0.2697  0.4046  0.6085
19403SOL    HW165324   8.030  12.855   6.136 -1.1633  0.0467  0.6057
19403SOL    HW265325   7.975  12.718   6.166  1.2222 -0.7400  1.6273
19404SOL     OW65326  10.925   4.310   7.164  0.5179 -0.7218 -0.3513
19404SOL    HW165327  10.908   4.327   7.071 -1.1247  0.9085  0.1827
19404SOL    HW265328  11.014   4.342   7.178  0.3486  0.1214 -1.1135
19405SOL     OW65329   7.914   2.587   2.892  0.8098  0.2723 -0.2178
19405SOL    HW165330   7.976   2.558   2.959 -0.0902 -1.7411 -0.1898
19405SOL    HW265331   7.959   2.570   2.809  1.2903  1.2564 -0.1711
19406SOL     OW65332   2.963   3.896  12.919 -0.5453  0.1751  0.1195
19406SOL    HW165333   2.895   3.928  12.860 -1.1389 -1.5953 -0.2443
19406SOL    HW265334   2.995   3.974  12.963 -1.2343  1.3514 -1.3420
19407SOL     OW65335   4.923   6.339   6.329  0.7910  0.2789 -0.2836
19407SOL    HW165336   4.921   6.257   6.380 -0.6565  0.1938 -0.4326
19407SOL    HW265337   5.013   6.346   6.299  1.3579 -0.3785  1.1642
19408SOL     OW65338  10.068   8.444   4.599 -0.1919  0.2295  0.3121
19408SOL    HW165339  10.086   8.525   4.552 -2.8255  0.1954 -0.9480
19408SOL    HW265340  10.075   8.467   4.692  2.1728  1.0399  0.0022
19409SOL     OW65341   0.555   8.816   3.867  0.1807 -0.3191 -0.7536
19409SOL    HW165342   0.461   8.802   3.878  0.2941 -0.5308 -0.0511
19409SOL    HW265343   0.595   8.733   3.892  0.7737  0.7479  2.2404
19410SOL     OW65344   6.975   4.454  10.799 -0.1462 -0.0830 -0.2298
19410SOL    HW165345   7.031   4.530  10.785  0.2435 -0.6006 -1.6352
19410SOL    HW265346   7.014   4.409  10.874  1.8498 -0.8587 -1.6515
19411SOL     OW65347   8.351   0.609   3.960  0.2079 -0.0712  0.2670
19411SOL    HW165348   8.429   0.644   3.915  1.0696 -0.6279  1.2727
19411SOL    HW265349   8.284   0.675   3.946  0.6536  0.1052 -1.2211
19412SOL     OW65350   8.812  12.418  11.787 -0.0061  0.1864 -0.1994
19412SOL    HW165351   8.882  12.372  11.833 -0.0817 -0.3660 -0.6191
19412SOL    HW265352   8.760  12.348  11.747 -0.1645  0.6333 -0.8011
19413SOL     OW65353   5.290   7.110  11.456  0.2116 -0.5809  0.5062
19413SOL    HW165354   5.206   7.156  11.462  0.8336  0.5205  0.9898
19413SOL    HW265355   5.279   7.050  11.383 -1.0254 -0.5067  0.6045
19414SOL     OW65356   3.529   5.212   4.541  0.2569  0.3655 -0.1162
19414SOL    HW165357   3.550   5.121   4.562  0.5421  0.5729  0.5611
19414SOL    HW265358   3.565   5.226   4.454  2.6162  0.5657  0.8125
19415SOL     OW65359  10.786   3.252  11.172  0.0408  0.4014  0.1995
19415SOL    HW165360  10.726   3.194  11.220  1.0683 -0.1148  0.9087
19415SOL    HW265361  10.764   3.340  11.204 -1.7830  0.5010 -1.1534
19416SOL     OW65362   5.863   4.021   4.317  0.0477  0.2572 -0.5387
19416SOL    HW165363   5.803   4.034   4.390 -2.0249  2.7817 -2.4776
19416SOL    HW265364   5.829   3.945   4.271 -0.2706  0.2865 -0.3536
19417SOL     OW65365   0.232  12.318   8.488  0.1668 -0.5707 -0.1664
19417SOL    HW165366   0.274  12.388   8.539 -0.2236 -1.2036  1.0713
19417SOL    HW265367   0.227  12.353   8.399  0.6102  0.6920  0.2771
19418SOL     OW65368   1.663   0.661   4.148  0.3705 -0.0169  0.0346
19418SOL    HW165369   1.575   0.645   4.115  0.0070 -2.2804  1.8352
19418SOL    HW265370   1.650   0.692   4.238  1.3947 -0.5938  0.4036
19419SOL     OW65371   2.656  11.324  11.937  0.2719 -0.4192 -0.3424
19419SOL    HW165372   2.587  11.260  11.955  0.1186  0.2739  1.7109
19419SOL    HW265373   2.657  11.381  12.013  1.8031  0.7992 -1.2111
19420SOL     OW65374   6.755  10.350   9.680  0.6041  0.1420  0.2085
19420SOL    HW165375   6.822  10.285   9.700 -0.0100 -0.7431 -0.5087
19420SOL    HW265376   6.766  10.418   9.747  0.5401 -1.2487  1.7008
19421SOL     OW65377   5.303   8.910   7.587  0.0014 -0.0046 -0.6266
19421SOL    HW165378   5.358   8.835   7.610  0.0789  0.1238 -0.3916
19421SOL    HW265379   5.365   8.981   7.571 -0.0114 -0.2539 -1.8862
19422SOL     OW65380   9.749  12.785  11.770  0.2488  0.1710  0.1071
19422SOL    HW165381   9.802  12.707  11.752 -0.7168 -0.1277 -1.7058
19422SOL    HW265382   9.687  12.756  11.838  1.8483  0.3138  1.7052
19423SOL     OW65383   9.287   4.087   3.957  0.5882 -0.3912  0.4907
19423SOL    HW165384   9.374   4.102   3.918 -0.3607  2.9475 -0.7315
19423SOL    HW265385   9.259   4.003   3.921  2.5866 -0.6999 -0.5156
19424SOL     OW65386  10.028   5.798   0.255 -0.1216 -0.0978 -0.1714
19424SOL    HW165387   9.952   5.783   0.311  1.0724 -1.2723  1.2533
19424SOL    HW265388  10.093   5.837   0.314  0.7820 -0.2827 -1.0151
19425SOL     OW65389   3.947   5.148   9.674 -0.2845 -0.2894  0.1424
19425SOL    HW165390   4.040   5.165   9.693 -0.1763  0.2613 -0.8217
19425SOL    HW265391   3.949   5.086   9.601 -0.6508  1.1804 -1.1496
19426SOL     OW65392   4.359   2.209  11.214 -0.6625  0.2379 -0.2810
19426SOL    HW165393   4.333   2.164  11.133  1.5639 -0.8199 -0.4897
19426SOL    HW265394   4.412   2.283  11.184 -0.4430  0.2743  0.1906
19427SOL     OW65395  10.349  12.586   4.362  0.1308  0.0399  0.3002
19427SOL    HW165396  10.400  12.518   4.317  1.9070  1.2142  0.4457
19427SOL    HW265397  10.396  12.600   4.444 -1.7760 -0.4459  1.5303
19428SOL     OW65398  10.232   8.851   1.028 -0.3779 -0.0346  0.1744
19428SOL    HW165399  10.238   8.920   1.094 -0.6248  0.2604 -0.1009
19428SOL    HW265400  10.240   8.898   0.945 -0.4533 -0.3514 -0.0118
19429SOL     OW65401  10.862  12.627   2.149  0.4381  0.5164  0.7131
19429SOL    HW165402  10.934  12.682   2.181  0.5044  0.0811  1.3282
19429SOL    HW265403  10.791  12.644   2.210  0.5980 -0.4083  1.1704
19430SOL     OW65404  11.346   5.313   3.152 -0.1908 -0.6526 -0.4721
19430SOL    HW165405  11.271   5.261   3.126  1.0071 -2.9697  0.3758
19430SOL    HW265406  11.309   5.385   3.202 -1.8574 -2.0724  0.4655
19431SOL     OW65407   0.191   0.968   5.605  0.1763 -0.2395 -0.1463
19431SOL    HW165408   0.197   0.907   5.531  1.5656  0.1337 -0.3681
19431SOL    HW265409   0.099   0.994   5.608  0.1192 -0.1585 -1.8291
19432SOL     OW65410   2.984   4.830   9.997  0.0950  0.1013  0.5932
19432SOL    HW165411   2.926   4.895   9.960 -1.5340 -0.8736  1.3342
19432SOL    HW265412   3.036   4.799   9.923 -2.4537 -1.1575 -0.8097
19433SOL     OW65413   0.895  10.415   3.273  0.4802  0.0991  0.1896
19433SOL    HW165414   0.941  10.390   3.353  0.7314 -1.4910 -0.4065
19433SOL    HW265415   0.803  10.419   3.298  0.4336 -1.4361  0.3642
19434SOL     OW65416   4.588   2.073  10.327 -0.0750  0.2951 -0.2003
19434SOL    HW165417   4.610   2.155  10.370 -1.6677  1.8360 -2.0954
19434SOL    HW265418   4.493   2.065  10.338 -0.3500  0.1371 -2.3009
19435SOL     OW65419   2.895   4.983   9.776 -0.1760 -0.7877 -0.2430
19435SOL    HW165420   2.978   4.987   9.728 -0.0444 -0.3789  0.0202
19435SOL    HW265421   2.835   5.039   9.725 -0.3054 -1.1043 -0.4484
19436SOL     OW65422   7.223   3.105   6.701  0.6633  0.5797  0.4436
19436SOL    HW165423   7.289   3.088   6.768  1.8709  0.6550 -0.7038
19436SOL    HW265424   7.265   3.167   6.641 -0.0014 -0.3001 -0.9677
19437SOL     OW65425   3.921   9.713   9.909  0.2878  0.5156 -0.2707
19437SOL    HW165426   4.003   9.687   9.867  0.2672 -0.0867  0.0633
19437SOL    HW265427   3.869   9.751   9.838 -0.1284 -1.3459 -1.0047
19438SOL     OW65428   9.047   9.809  11.804 -0.3719  0.0294 -0.1580
19438SOL    HW165429   9.124   9.764  11.770  0.9073  2.1116 -0.1424
19438SOL    HW265430   9.008   9.747  11.865  2.1209 -0.5368  0.9473
19439SOL     OW65431   3.015  11.793  10.928  0.4170  0.4948  0.6688
19439SOL    HW165432   2.928  11.762  10.951  0.1419  1.2661  0.6918
19439SOL    HW265433   3.073  11.719  10.948 -0.4520 -0.8030 -1.3020
19440SOL     OW65434   7.561   9.414   4.002 -0.2256  0.2639  0.1183
19440SOL    HW165435   7.535   9.409   3.910  0.3810 -2.4486  0.0073
19440SOL    HW265436   7.597   9.502   4.013 -3.0369  1.7454 -1.4375
19441SOL     OW65437   2.684   5.259   8.950 -0.1113 -0.5059  0.6150
19441SOL    HW165438   2.636   5.249   8.867 -0.0716  0.1531  0.5079
19441SOL    HW265439   2.667   5.349   8.977  3.5085  0.9063 -1.0150
19442SOL     OW65440   6.801   6.904   8.894  0.4395  0.5773 -0.1994
19442SOL    HW165441   6.733   6.937   8.953 -0.0901 -1.2181  0.2614
19442SOL    HW265442   6.768   6.925   8.807 -1.1672 -0.9496 -0.0271
19443SOL     OW65443   0.821   4.493  12.409 -0.0166 -0.2627  0.4471
19443SOL    HW165444   0.915   4.474  12.405 -0.3756 -1.8426 -2.2887
19443SOL    HW265445   0.779   4.408  12.400 -1.6970  0.7098 -1.6558
19444SOL     OW65446  12.180   1.986   7.477  0.4542  0.5178  0.4593
19444SOL    HW165447  12.193   2.005   7.570  1.9481  0.6620  0.2387
19444SOL    HW265448  12.134   1.902   7.475 -2.9147  2.1463  1.3829
19445SOL     OW65449   9.451   4.699  10.410 -0.0841 -0.5492 -0.1790
19445SOL    HW165450   9.538   4.683  10.447 -0.1507  2.2406  1.4916
19445SOL    HW265451   9.401   4.620  10.431  0.7653 -0.3502  3.2021
19446SOL     OW65452   1.969   4.059   4.980  0.1906  0.3683  0.1041
19446SOL    HW165453   1.931   4.035   4.896 -0.0330 -0.3434  0.4081
19446SOL    HW265454   1.903   4.115   5.021  0.4406  1.0004 -0.3231
19447SOL     OW65455   8.191   6.748   1.226  0.3888 -0.4451 -0.3442
19447SOL    HW165456   8.181   6.840   1.200  3.9815 -0.1583 -1.2207
19447SOL    HW265457   8.252   6.750   1.299 -1.2028 -2.0633  1.1090
19448SOL     OW65458   9.107   6.481   2.772 -0.1564  0.0990 -0.0082
19448SOL    HW165459   9.045   6.411   2.788  1.3252 -1.5145 -0.9799
19448SOL    HW265460   9.145   6.501   2.858  0.2000 -1.0821  0.1192
19449SOL     OW65461  10.177   7.498   6.015 -0.3006  0.9118 -0.7414
19449SOL    HW165462  10.224   7.430   5.966 -2.1764 -1.7384  0.8326
19449SOL    HW265463  10.084   7.476   6.003 -0.9084  1.9312  1.5063
19450SOL     OW65464  12.063   3.112   4.624  0.0198  0.2276 -0.3656
19450SOL    HW165465  12.027   3.138   4.709  0.0076  0.3596 -0.4114
19450SOL    HW265466  12.082   3.019   4.634 -1.0634 -0.0293 -0.5920
19451SOL     OW65467   3.153   1.355   6.306  0.3965 -0.3475  0.2790
19451SOL    HW165468   3.142   1.315   6.219 -1.8332  0.0058  0.3418
19451SOL    HW265469   3.170   1.281   6.364 -0.4606 -0.8797 -0.1189
19452SOL     OW65470   1.798  12.138   0.818 -0.3310 -0.1757 -0.7015
19452SOL    HW165471   1.819  12.229   0.837 -0.4240  0.2325 -2.4044
19452SOL    HW265472   1.846  12.119   0.737  1.3133 -2.2684  0.6383
19453SOL     OW65473   4.713  10.508   6.256 -0.0126  1.3094 -0.3972
19453SOL    HW165474   4.806  10.487   6.266 -0.3609 -0.0830  0.1135
19453SOL    HW265475   4.696  10.499   6.162  0.2999  1.3288 -0.4571
19454SOL     OW65476   7.109   4.193   8.321  0.0109 -0.2077  0.2301
19454SOL    HW165477   7.030   4.221   8.273  0.6301 -1.3492 -1.5565
19454SOL    HW265478   7.173   4.263   8.305 -0.2290  0.1109  0.6307
19455SOL     OW65479  10.664   8.896   7.778  0.1784  0.0041  0.1293
19455SOL    HW165480  10.688   8.805   7.758  0.1251  0.0947 -0.3711
19455SOL    HW265481  10.585   8.911   7.727 -0.8822 -0.2421  1.6466
19456SOL     OW65482   8.326   8.157  10.227  0.1104 -0.1826 -0.3113
19456SOL    HW165483   8.295   8.098  10.295 -0.5369  0.7172  0.1986
19456SOL    HW265484   8.247   8.188  10.183  0.4977 -0.4084 -1.1871
19457SOL     OW65485   8.475  12.074   7.681 -0.1717 -0.1167 -0.6716
19457SOL    HW165486   8.424  11.993   7.680 -0.2326 -0.0868 -0.1475
19457SOL    HW265487   8.504  12.083   7.772 -0.8388  0.8677 -0.5466
19458SOL     OW65488   0.948  10.954   4.732  0.8439  0.4367 -0.0096
19458SOL    HW165489   0.882  10.975   4.666  0.2249  0.0928  0.4896
19458SOL    HW265490   0.944  10.858   4.741  1.8401  0.3368 -0.4088
19459SOL     OW65491   0.930   2.519   5.181  0.2682  0.4981 -0.2603
19459SOL    HW165492   0.923   2.609   5.149 -2.4746  0.5660  0.2705
19459SOL    HW265493   0.927   2.466   5.102 -1.1524  0.8295 -0.4610
19460SOL     OW65494   4.674   0.973   5.347  0.1716  0.2298 -0.2198
19460SOL    HW165495   4.681   0.916   5.271 -1.0298 -0.8581  0.4381
19460SOL    HW265496   4.604   1.035   5.324 -3.4056 -2.7628  1.4607
19461SOL     OW65497  10.152   6.964   3.618  0.0811  0.7895  0.3793
19461SOL    HW165498  10.201   7.026   3.564  1.0499 -0.1852  0.1000
19461SOL    HW265499  10.110   6.906   3.554  1.4464 -0.5317  0.6262
19462SOL     OW65500   0.076   4.280   4.577 -0.0861 -0.2718 -0.3170
19462SOL    HW165501   0.104   4.363   4.538 -0.3938 -0.4796 -1.0004
19462SOL    HW265502   0.011   4.305   4.643 -1.2822 -0.0495 -1.5371
19463SOL     OW65503   3.388   7.320  11.575 -0.0166 -0.1718 -0.4722
19463SOL    HW165504   3.477   7.301  11.603 -0.5249 -0.1640  1.3357
19463SOL    HW265505   3.363   7.246  11.520  0.2250 -1.5330  1.1743
19464SOL     OW65506   0.776  11.296   6.142 -0.4419 -0.2994  0.1710
19464SOL    HW165507   0.864  11.315   6.177 -0.4587 -0.7711  0.4810
19464SOL    HW265508   0.717  11.347   6.198 -0.4660 -1.0283  0.8257
19465SOL     OW65509  11.656  11.490   8.890  0.2118 -0.5566 -0.3196
19465SOL    HW165510  11.719  11.435   8.935 -0.4654  0.5174  2.0837
19465SOL    HW265511  11.577  11.487   8.945 -0.0226  2.3567 -0.2998
19466SOL     OW65512  11.697  11.107  10.944 -0.3481 -0.5272  0.4380
19466SOL    HW165513  11.643  11.180  10.914 -0.4414  0.5291  2.9371
19466SOL    HW265514  11.781  11.120  10.899  0.0271  1.8645  1.6768
19467SOL     OW65515  10.308   8.569  11.123  0.2398  0.3569 -0.3691
19467SOL    HW165516  10.297   8.562  11.218  1.7462 -0.7060 -0.2148
19467SOL    HW265517  10.282   8.658  11.102 -0.7033  0.4287  0.9428
19468SOL     OW65518  10.575   5.442   6.942 -0.1367 -0.0805  0.0509
19468SOL    HW165519  10.662   5.433   6.901 -0.4426 -1.3137 -0.3988
19468SOL    HW265520  10.568   5.534   6.964  1.2862  0.0503  0.0728
19469SOL     OW65521  10.673   6.158   8.554 -0.4443  0.1950 -0.2759
19469SOL    HW165522  10.583   6.162   8.523 -0.8652 -1.8188  0.4993
19469SOL    HW265523  10.707   6.077   8.516  1.2784  1.2424 -1.0739
19470SOL     OW65524  11.637   4.104  11.325 -0.2131  0.3659 -0.0414
19470SOL    HW165525  11.722   4.087  11.284 -1.3016  1.3658 -2.9238
19470SOL    HW265526  11.637   4.199  11.341 -0.6009  0.2886  0.4494
19471SOL     OW65527  12.480   9.061   9.627  0.0208 -0.0971  0.5106
19471SOL    HW165528  12.494   9.045   9.534  2.2156  2.1672  0.3368
19471SOL    HW265529  12.412   9.128   9.629  0.6613  0.5678  0.4488
19472SOL     OW65530   5.163   3.970   1.665 -0.2257 -0.0236  0.5381
19472SOL    HW165531   5.206   4.055   1.680  0.8345 -0.2754 -0.9516
19472SOL    HW265532   5.069   3.991   1.667 -0.0779  0.7113  2.7804
19473SOL     OW65533  11.973   1.807   4.110 -0.1026 -0.0058 -0.1528
19473SOL    HW165534  11.879   1.813   4.091  0.2747  0.0019 -2.3188
19473SOL    HW265535  11.987   1.714   4.129 -0.2823 -0.4222 -1.8385
19474SOL     OW65536   9.622   9.547   2.033  0.2679 -0.3663  0.6917
19474SOL    HW165537   9.620   9.523   1.941  0.1117  0.6364  0.4287
19474SOL    HW265538   9.548   9.500   2.072 -0.4453  0.2098  0.0501
19475SOL     OW65539  10.686  12.046  10.283 -0.4659  0.1036 -0.1046
19475SOL    HW165540  10.650  11.977  10.339 -1.2174 -0.1265 -0.8649
19475SOL    HW265541  10.727  11.999  10.211 -0.5978  0.4421 -0.4011
19476SOL     OW65542   9.446  10.667   0.454 -0.0851  0.2921 -0.5714
19476SOL    HW165543   9.452  10.729   0.381 -0.0233  0.0951 -0.7329
19476SOL    HW265544   9.462  10.721   0.531 -0.9788  0.6622 -0.6294
19477SOL     OW65545  11.255   9.173   2.085 -0.0410 -0.2325 -0.0723
19477SOL    HW165546  11.325   9.237   2.078  0.4661 -0.5558  1.5256
19477SOL    HW265547  11.235   9.170   2.179 -2.2920 -0.0635 -0.4972
19478SOL     OW65548   8.152   5.592   7.414 -0.1553  0.2420  0.3573
19478SOL    HW165549   8.246   5.583   7.429 -0.3748  0.1804  1.7747
19478SOL    HW265550   8.129   5.677   7.451 -0.7723 -0.0072  0.5685
19479SOL     OW65551   2.918   9.173   6.280 -0.4093 -0.1340  0.1928
19479SOL    HW165552   2.888   9.100   6.225  1.1427 -0.6501 -0.0082
19479SOL    HW265553   2.888   9.150   6.368 -0.3914 -0.7519  0.0466
19480SOL     OW65554   3.638  10.673   3.818 -0.0973 -0.8510 -0.2982
19480SOL    HW165555   3.574  10.742   3.832 -0.0057 -0.8745  0.2774
19480SOL    HW265556   3.595  10.594   3.852  0.0948 -0.9291 -0.2356
19481SOL     OW65557   1.805   0.144   6.029  0.1518 -0.4469 -0.8954
19481SOL    HW165558   1.793   0.100   5.944  0.0955 -1.6051 -0.3044
19481SOL    HW265559   1.735   0.209   6.032 -0.3127 -0.9068 -1.4224
19482SOL     OW65560  10.185   9.707   8.749  0.1912  0.1103  0.4310
19482SOL    HW165561  10.182   9.766   8.674 -0.2224  1.0107  1.1397
19482SOL    HW265562  10.128   9.634   8.724  0.4815  0.1338 -0.3388
19483SOL     OW65563   5.302   4.296  12.702 -0.5627  0.5845  0.2714
19483SOL    HW165564   5.366   4.357  12.665 -0.9742  0.4097 -0.7481
19483SOL    HW265565   5.354   4.235  12.754 -0.0865  1.4518  0.8554
19484SOL     OW65566   6.695  10.138   0.395 -0.0265 -0.3958 -0.5073
19484SOL    HW165567   6.741  10.196   0.335 -0.3889  0.6833  0.2256
19484SOL    HW265568   6.748  10.140   0.475 -0.6868 -0.1127 -0.0727
19485SOL     OW65569   3.219   0.910   4.373 -0.1921 -0.4854 -0.5402
19485SOL    HW165570   3.289   0.861   4.329  1.7282  1.0846  0.6166
19485SOL    HW265571   3.158   0.842   4.403  1.4250 -2.0226 -0.5746
19486SOL     OW65572   1.735   2.577  12.736 -0.0065 -1.0702 -0.6283
19486SOL    HW165573   1.695   2.663  12.728  1.9064  0.0638  1.0984
19486SOL    HW265574   1.773   2.560  12.650  1.3534  0.7695 -0.4364
19487SOL     OW65575   8.808   3.606   5.315 -0.2278  0.1102 -0.1007
19487SOL    HW165576   8.754   3.665   5.263 -0.3311 -0.5835 -0.8118
19487SOL    HW265577   8.867   3.565   5.251 -0.2710 -0.6637  0.3368
19488SOL     OW65578   9.336   3.722   6.525  0.2378  0.0525 -0.3881
19488SOL    HW165579   9.386   3.682   6.454 -1.2221 -0.4260 -1.1868
19488SOL    HW265580   9.306   3.648   6.577  0.2687  0.3261  0.0216
19489SOL     OW65581   2.098   1.626   5.276 -0.3334 -0.3127  0.3187
19489SOL    HW165582   2.139   1.691   5.220 -1.1028 -1.3516 -1.5188
19489SOL    HW265583   2.065   1.677   5.351  2.5066  0.8092  0.9380
19490SOL     OW65584   2.504   7.433   3.285 -0.3743  0.0113 -0.2520
19490SOL    HW165585   2.437   7.366   3.297 -0.3798  0.0119 -0.2776
19490SOL    HW265586   2.582   7.385   3.256 -0.4532  0.0436 -0.5223
19491SOL     OW65587   6.969   3.774   6.018  0.0442 -0.2401 -0.3008
19491SOL    HW165588   7.061   3.795   6.004  0.2927 -0.9570  0.2064
19491SOL    HW265589   6.962   3.680   6.000 -0.6166 -0.1639 -0.4846
19492SOL     OW65590  12.239   9.875   4.921 -0.0972 -0.0960  0.0778
19492SOL    HW165591  12.145   9.880   4.909  0.0287  0.8302 -0.6253
19492SOL    HW265592  12.275   9.940   4.860  1.0664 -1.2738 -0.5539
19493SOL     OW65593   4.615   7.495  12.844 -0.1583 -0.8738 -0.2116
19493SOL    HW165594   4.654   7.546  12.773  0.5374  0.7377  1.2309
19493SOL    HW265595   4.672   7.419  12.853  0.8221 -0.1588 -0.2024
19494SOL     OW65596   7.843   1.610   3.604  0.2293  0.1666 -0.7176
19494SOL    HW165597   7.750   1.630   3.596 -0.1101  0.5037  2.4678
19494SOL    HW265598   7.865   1.637   3.694  2.8876 -1.8661 -0.6317
19495SOL     OW65599   5.590   2.952   7.207  0.7758  0.0352  0.4045
19495SOL    HW165600   5.521   3.010   7.241 -0.2044 -0.6002 -0.4354
19495SOL    HW265601   5.594   2.881   7.270  0.6029  0.0404  0.4244
19496SOL     OW65602   7.760   7.572   3.719 -0.2401  0.2517 -0.4201
19496SOL    HW165603   7.839   7.569   3.772 -0.9962 -1.2141  0.7006
19496SOL    HW265604   7.710   7.645   3.754  0.1010  0.4699 -0.3833
19497SOL     OW65605   7.530   2.105   7.147  0.2341 -0.1170 -0.5016
19497SOL    HW165606   7.467   2.169   7.111 -0.8993 -0.2220  1.1671
19497SOL    HW265607   7.558   2.054   7.071 -1.5722  0.0655 -1.3599
19498SOL     OW65608   9.432  12.615  12.411  0.1536  0.1010  0.5833
19498SOL    HW165609   9.466  12.563  12.339 -1.7019  0.4417 -0.6122
19498SOL    HW265610   9.449  12.563  12.489  1.0852 -0.8511 -0.2326
19499SOL     OW65611   0.245  11.896  10.668  0.4462 -0.1694 -0.2343
19499SOL    HW165612   0.199  11.813  10.676  1.4679 -0.6487  0.9351
19499SOL    HW265613   0.176  11.962  10.665 -0.5537 -1.1183 -3.6844
19500SOL     OW65614  11.642   6.316   7.358  0.2266  0.7631  0.2104
19500SOL    HW165615  11.627   6.396   7.308  0.5777  0.5590 -0.2242
19500SOL    HW265616  11.641   6.344   7.449 -1.9105  0.9141  0.1905
19501SOL     OW65617   3.613   9.233  12.127 -0.5959 -0.0688  0.1626
19501SOL    HW165618   3.693   9.214  12.077  0.3900 -0.1626  1.7207
19501SOL    HW265619   3.556   9.277  12.064  1.4193  1.7276 -0.5228
19502SOL     OW65620   2.257   0.617   4.571  0.3206  0.0414  0.0526
19502SOL    HW165621   2.316   0.590   4.640  0.5091 -0.4563 -0.3004
19502SOL    HW265622   2.171   0.586   4.599  0.7588 -2.3971 -1.0962
19503SOL     OW65623   9.766  11.703   6.089  0.6840  0.1552  0.4685
19503SOL    HW165624   9.796  11.643   6.021  1.1694  1.0343 -0.1066
19503SOL    HW265625   9.678  11.673   6.111  1.3271 -1.4762  1.0221
19504SOL     OW65626  10.950  10.199  12.688 -0.1429  0.5695  0.0108
19504SOL    HW165627  10.878  10.145  12.719 -0.4335  1.1253  0.3067
19504SOL    HW265628  11.017  10.191  12.756 -0.3080  0.8249  0.2063
19505SOL     OW65629   8.553   3.941  10.922  0.3767 -0.1030 -0.1699
19505SOL    HW165630   8.599   3.914  10.843 -1.6773 -0.6689 -1.2357
19505SOL    HW265631   8.489   4.006  10.892 -0.8041 -0.7217  0.9334
19506SOL     OW65632   0.089  10.583   9.306 -0.0795  0.7517 -0.2401
19506SOL    HW165633   0.155  10.519   9.335 -2.2698 -2.0807 -1.0197
19506SOL    HW265634   0.056  10.622   9.386  0.7814  0.3777  0.3180
19507SOL     OW65635   1.311   5.737   1.289  0.4737  1.1527 -0.1193
19507SOL    HW165636   1.376   5.683   1.333  0.0473  0.8872  0.1998
19507SOL    HW265637   1.277   5.795   1.357 -0.8121  0.1487  0.1504
19508SOL     OW65638   4.356   2.169   6.200 -0.0715  0.1910 -0.1379
19508SOL    HW165639   4.277   2.127   6.234  0.3321  0.2396  0.9079
19508SOL    HW265640   4.329   2.208   6.117 -1.0384 -0.1485  0.0058
19509SOL     OW65641   6.000  11.619   6.483  0.2221 -0.7915  0.1348
19509SOL    HW165642   5.973  11.679   6.414  1.6667  1.3262  1.3243
19509SOL    HW265643   6.051  11.552   6.437 -0.0006 -0.2003 -1.0251
19510SOL     OW65644   8.483   3.327  12.209  0.6625 -0.0895 -0.5943
19510SOL    HW165645   8.492   3.410  12.257  0.1970 -1.6333  2.4198
19510SOL    HW265646   8.391   3.326  12.182  1.0041  0.9480 -1.8751
19511SOL     OW65647  10.302   1.119   4.809  0.1575 -0.4246  0.1323
19511SOL    HW165648  10.239   1.186   4.781 -0.0246 -0.2059  1.0463
19511SOL    HW265649  10.349   1.095   4.728  1.3973  2.0085  0.0414
19512SOL     OW65650  10.916   3.894   3.091 -0.0454  0.8865 -0.4689
19512SOL    HW165651  10.894   3.928   3.177  2.5308  1.0676  0.2126
19512SOL    HW265652  10.908   3.799   3.100 -1.1191  0.9665 -0.4729
19513SOL     OW65653   7.491   6.814  12.009  0.4796  0.1219  0.1166
19513SOL    HW165654   7.526   6.731  11.978 -0.5913 -0.3319  0.0852
19513SOL    HW265655   7.567   6.872  12.014  1.2118 -0.8126  0.0025
19514SOL     OW65656   8.098   1.204   8.658  0.6112  0.1294 -0.0543
19514SOL    HW165657   8.116   1.111   8.649  1.1468  0.1228  0.9471
19514SOL    HW265658   8.167   1.236   8.717 -0.3416  0.8872  0.6814
19515SOL     OW65659   0.329   1.330   3.510  0.0700  0.0936 -0.3079
19515SOL    HW165660   0.352   1.254   3.455 -1.3280 -0.3808 -0.2782
19515SOL    HW265661   0.409   1.381   3.515  1.4257 -1.9916  0.6798
19516SOL     OW65662   6.726   4.038   4.052  0.2809 -0.1370 -0.0001
19516SOL    HW165663   6.802   4.087   4.021 -0.2825  1.2521  0.7136
19516SOL    HW265664   6.752   3.946   4.047  1.8052  0.2913 -0.2585
19517SOL     OW65665   2.631   3.953   8.424 -0.2224 -0.3872  0.3569
19517SOL    HW165666   2.666   3.902   8.351  0.5039  0.4561  0.1063
19517SOL    HW265667   2.611   4.039   8.386 -3.3035 -0.9946  0.2854
19518SOL     OW65668   9.368   1.651  11.100 -0.1395  0.1136  0.5317
19518SOL    HW165669   9.348   1.708  11.026 -1.0975 -0.8847 -0.0026
19518SOL    HW265670   9.334   1.565  11.074  0.4051 -0.4796  1.7174
19519SOL     OW65671   0.978   8.605  12.116  0.6867 -0.2374 -0.2178
19519SOL    HW165672   0.938   8.646  12.192 -1.6646 -1.8344 -0.5024
19519SOL    HW265673   1.042   8.669  12.085  2.2375  0.2176  3.4227
19520SOL     OW65674   7.924  11.493   2.807  0.5081  0.4358 -0.6027
19520SOL    HW165675   7.842  11.538   2.787  1.0941  1.9339  0.2435
19520SOL    HW265676   7.908  11.449   2.890  0.0356 -0.7157 -1.2784
19521SOL     OW65677   3.703   4.389   2.890 -0.1668 -0.4331  0.1226
19521SOL    HW165678   3.738   4.318   2.837  0.6071  0.2227 -0.2747
19521SOL    HW265679   3.675   4.455   2.826 -1.2307 -0.5234  0.4714
19522SOL     OW65680   7.274   7.897  12.472  0.3618 -0.0740 -0.7046
19522SOL    HW165681   7.218   7.914  12.548  0.4382  1.0742 -0.8794
19522SOL    HW265682   7.344   7.961  12.480 -0.6147  1.3627 -2.7011
19523SOL     OW65683   9.101   6.035   6.251 -0.1741 -0.1973 -0.1577
19523SOL    HW165684   9.095   5.982   6.172  1.6980 -1.4988  0.5199
19523SOL    HW265685   9.072   5.977   6.322  2.1570 -0.4942  0.6276
19524SOL     OW65686   3.236   5.376  12.786  0.4112 -0.1572  0.2421
19524SOL    HW165687   3.224   5.285  12.760 -1.0090  0.5708 -1.8718
19524SOL    HW265688   3.212   5.427  12.709  0.8164  2.0403  1.4757
19525SOL     OW65689  10.518   6.480   8.455 -0.1091 -0.4540  0.4774
19525SOL    HW165690  10.509   6.501   8.548 -2.2468 -1.0052  0.4495
19525SOL    HW265691  10.613   6.480   8.440  0.2354  1.6891  2.1392
19526SOL     OW65692   6.018  10.578   7.305 -0.1760  0.1136  0.2618
19526SOL    HW165693   6.096  10.578   7.250 -0.1765  0.4468  0.2593
19526SOL    HW265694   6.051  10.562   7.394 -0.2165 -0.8524  0.1144
19527SOL     OW65695   3.253  10.784   2.866  0.0527 -0.0616  0.0911
19527SOL    HW165696   3.262  10.728   2.943 -0.0787 -0.5101 -0.2159
19527SOL    HW265697   3.343  10.804   2.841  0.0982  1.4764  1.3474
19528SOL     OW65698  11.481   5.926   4.955 -0.7810 -0.2545  0.1140
19528SOL    HW165699  11.391   5.896   4.947 -0.0474 -3.1200  1.3603
19528SOL    HW265700  11.532   5.867   4.899  0.3381  1.4399 -0.7318
19529SOL     OW65701  12.495   7.067   2.935  0.4780 -0.4491  0.5847
19529SOL    HW165702  12.450   7.113   3.006 -0.4179  2.1127 -1.4459
19529SOL    HW265703  12.433   7.000   2.906 -0.1068 -0.0073  0.7989
19530SOL     OW65704   9.062   9.618   0.247  0.4163  0.1277  0.2908
19530SOL    HW165705   9.102   9.627   0.161  1.2597 -1.7282  0.4325
19530SOL    HW265706   9.051   9.708   0.278 -1.3412  0.9355 -2.3408
19531SOL     OW65707   1.956   0.324   8.063  0.2908 -0.1969 -0.3720
19531SOL    HW165708   1.963   0.361   8.151 -0.6615 -0.9260  0.0258
19531SOL    HW265709   1.880   0.367   8.025 -0.5757 -1.4009 -0.0578
19532SOL     OW65710  11.629   3.849   9.738 -0.2923 -0.4679  0.1579
19532SOL    HW165711  11.606   3.816   9.825 -3.9530 -0.1636 -0.5452
19532SOL    HW265712  11.670   3.934   9.755  0.2674 -0.9879  1.5908
19533SOL     OW65713   7.506  10.038   2.480  0.2069 -0.3176  0.1658
19533SOL    HW165714   7.594  10.053   2.516  1.7484 -2.8206 -2.1789
19533SOL    HW265715   7.466   9.975   2.540  0.8684 -0.7812  0.1346
19534SOL     OW65716  10.473   8.418   8.396  0.1770  0.4868  0.3235
19534SOL    HW165717  10.397   8.444   8.450  0.0205 -0.5689  0.6247
19534SOL    HW265718  10.453   8.452   8.309 -0.2417  0.9612  0.5972
19535SOL     OW65719   8.251   8.346   7.368 -0.2285  0.0168  0.0281
19535SOL    HW165720   8.236   8.290   7.444 -1.2195 -0.4982 -0.5363
19535SOL    HW265721   8.213   8.430   7.393 -0.4066 -0.1016  0.1591
19536SOL     OW65722   8.444   5.409   8.535  0.9844 -0.3071  0.2973
19536SOL    HW165723   8.413   5.359   8.460  5.5179 -1.0000 -1.3833
19536SOL    HW265724   8.467   5.495   8.499  1.3454  0.0558  1.3529
19537SOL     OW65725  11.759   5.462   0.260  0.0462 -0.0082  0.3814
19537SOL    HW165726  11.695   5.502   0.200 -0.8539  1.0429  1.9427
19537SOL    HW265727  11.826   5.529   0.270  1.2974 -0.9961 -1.0140
19538SOL     OW65728   7.802   0.975  11.686 -0.0598  0.7441 -0.5637
19538SOL    HW165729   7.877   0.923  11.715  0.5876  1.4435 -0.9647
19538SOL    HW265730   7.828   1.066  11.701 -1.5955  0.9527  1.1396
19539SOL     OW65731  12.188   1.517   3.895 -0.3865  0.2556 -0.6482
19539SOL    HW165732  12.250   1.557   3.834  0.8815 -3.5573 -2.1508
19539SOL    HW265733  12.102   1.549   3.865  0.4694  1.4827 -1.9557
19540SOL     OW65734  11.136   7.389  12.642 -0.4978  0.6439  0.1790
19540SOL    HW165735  11.146   7.368  12.549  1.3529  0.0345  0.4581
19540SOL    HW265736  11.120   7.483  12.644  1.6576  1.0897 -0.7136
19541SOL     OW65737   4.363   4.703   4.749  0.1295 -0.2337  0.3204
19541SOL    HW165738   4.327   4.733   4.666 -0.8733  0.1024  0.8683
19541SOL    HW265739   4.440   4.651   4.724 -0.6201 -0.8178 -0.8539
19542SOL     OW65740   7.251  11.823   2.218  0.1805 -0.3409 -0.0343
19542SOL    HW165741   7.290  11.764   2.153  1.1343  1.9671 -1.6787
19542SOL    HW265742   7.270  11.782   2.302  2.0017 -1.6963 -1.0381
19543SOL     OW65743  12.246   5.865   4.325 -0.0714  0.4156 -0.4003
19543SOL    HW165744  12.271   5.774   4.308 -0.9091  0.1650 -0.3508
19543SOL    HW265745  12.222   5.867   4.418  0.8303  0.9109 -0.1612
19544SOL     OW65746  11.565   8.088   7.268 -0.2711  0.0397  0.0462
19544SOL    HW165747  11.572   8.123   7.356 -0.2428  1.2840 -0.4211
19544SOL    HW265748  11.547   8.165   7.213  0.0298 -0.6571 -1.0727
19545SOL     OW65749   7.199   3.951   1.020 -0.0293  0.6806  0.5449
19545SOL    HW165750   7.227   3.895   1.092 -1.5517 -0.0007  0.6466
19545SOL    HW265751   7.165   3.891   0.954 -2.4427  1.4431  0.9821
19546SOL     OW65752   8.561  12.302   5.694 -0.0387  0.2509  0.0738
19546SOL    HW165753   8.514  12.295   5.611  0.2552  1.8406 -0.2613
19546SOL    HW265754   8.607  12.386   5.689  0.4552  0.1127  1.6109
19547SOL     OW65755   9.717   6.160  11.674 -0.0049  0.3623 -0.0181
19547SOL    HW165756   9.664   6.214  11.733 -0.1221  1.5143 -1.1346
19547SOL    HW265757   9.794   6.214  11.655  1.3355 -1.0682  1.1433
19548SOL     OW65758   0.003   8.566   3.640  0.1886 -0.6501 -0.1960
19548SOL    HW165759   0.055   8.565   3.720  0.7872  1.7848 -0.4582
19548SOL    HW265760  -0.003   8.659   3.617  0.3329 -1.2727 -3.1460
19549SOL     OW65761   7.732  11.861   4.803  0.4023  0.4633 -0.0328
19549SOL    HW165762   7.655  11.837   4.854  0.3577  1.4381  0.3877
19549SOL    HW265763   7.804  11.813   4.843 -0.0708 -1.0192 -0.8759
19550SOL     OW65764   4.319   1.964   4.044  0.4536 -0.1846  0.6660
19550SOL    HW165765   4.343   1.877   4.077 -0.2582  0.1117  2.0304
19550SOL    HW265766   4.236   1.983   4.087  0.3071  0.9304 -0.0882
19551SOL     OW65767   5.532   5.472   0.439  0.1534 -0.0996  0.1732
19551SOL    HW165768   5.604   5.437   0.491 -0.4563 -2.0104 -0.1952
19551SOL    HW265769   5.575   5.523   0.371  1.3061 -2.1914 -0.7812
19552SOL     OW65770   2.854   2.263  10.039  1.0751  0.2787 -0.4720
19552SOL    HW165771   2.925   2.218   9.993  0.1849  0.4775 -2.1213
19552SOL    HW265772   2.869   2.356  10.020 -0.6389  0.2272 -2.4959
19553SOL     OW65773   3.658   3.479   7.894 -0.2896  0.0449  0.2551
19553SOL    HW165774   3.628   3.563   7.860  1.4496  0.4165 -0.4403
19553SOL    HW265775   3.670   3.424   7.817 -0.1906 -0.4342  0.6058
19554SOL     OW65776   0.122   5.368   1.051 -0.1892 -0.2381 -0.5600
19554SOL    HW165777   0.133   5.459   1.021  1.1146 -0.3100 -0.3605
19554SOL    HW265778   0.163   5.366   1.137 -1.8633 -0.5968  0.2627
19555SOL     OW65779   2.126   0.296   2.045 -0.0193 -0.2430  0.0708
19555SOL    HW165780   2.057   0.247   1.999 -1.5538 -0.7850  2.7510
19555SOL    HW265781   2.084   0.327   2.125  2.2312  1.5127  0.6637
19556SOL     OW65782   7.097   7.531   0.688 -0.3477 -0.5746  0.6004
19556SOL    HW165783   7.162   7.468   0.718 -0.0359 -0.7387 -0.3852
19556SOL    HW265784   7.093   7.596   0.758  1.9527  0.2422  0.0762
19557SOL     OW65785   1.046  12.176  12.843  0.1655  0.4068 -0.5438
19557SOL    HW165786   1.050  12.095  12.893 -3.2556  1.2448  1.4298
19557SOL    HW265787   1.132  12.217  12.856  1.0117 -1.6121  0.6488
19558SOL     OW65788   3.016   1.056   7.967 -0.3486  0.3735  0.3595
19558SOL    HW165789   3.072   1.132   7.951  0.9534 -0.8284 -1.0647
19558SOL    HW265790   3.050   1.018   8.048  0.4796  0.0305 -0.1420
19559SOL     OW65791   2.163   1.574   6.175 -0.3619 -0.5394 -0.0932
19559SOL    HW165792   2.142   1.645   6.115 -0.5090  0.3512  0.9859
19559SOL    HW265793   2.218   1.515   6.124  0.3007  0.6691 -0.8221
19560SOL     OW65794   7.752   4.271   6.294  0.2591 -0.2615  0.5478
19560SOL    HW165795   7.774   4.337   6.360 -1.6344  0.9586  0.0514
19560SOL    HW265796   7.702   4.205   6.342  1.1512 -0.7469  0.8220
19561SOL     OW65797  10.210  12.358   9.726 -0.5989  0.1241 -0.1189
19561SOL    HW165798  10.282  12.405   9.682 -2.3416  1.7315 -1.4128
19561SOL    HW265799  10.218  12.382   9.818  0.6770  0.0267 -0.1861
19562SOL     OW65800   3.584   5.740  12.209 -0.0722 -0.5853 -0.0810
19562SOL    HW165801   3.606   5.795  12.134 -2.3226  0.0385 -0.3715
19562SOL    HW265802   3.542   5.663  12.170 -0.8775 -0.4459  0.4849
19563SOL     OW65803  10.210   5.015  10.859 -0.2354  0.3490 -0.4554
19563SOL    HW165804  10.161   5.090  10.827 -1.5707 -0.4113 -0.2678
19563SOL    HW265805  10.278   5.052  10.915 -0.8677  1.4238 -0.3837
19564SOL     OW65806  10.586   8.111   0.147 -0.0409 -0.4869  0.1472
19564SOL    HW165807  10.514   8.097   0.208  0.3702 -0.9552  0.5299
19564SOL    HW265808  10.664   8.083   0.194  0.7384  2.2105  0.6093
19565SOL     OW65809   8.021  10.674   0.350 -0.0120  0.4931 -0.4543
19565SOL    HW165810   8.092  10.614   0.330  0.6783  0.7050  1.2069
19565SOL    HW265811   7.950  10.618   0.382  0.5105  0.5002  0.7674
19566SOL     OW65812   8.773   7.553  12.390 -0.3753  0.3200  0.5802
19566SOL    HW165813   8.715   7.485  12.356  1.5910 -0.6985 -0.9358
19566SOL    HW265814   8.757   7.628  12.333 -0.1813  0.0301  0.1393
19567SOL     OW65815   9.590   8.911   4.052  0.0405  0.0639  0.0579
19567SOL    HW165816   9.640   8.942   3.977 -0.9747  0.5969 -0.4230
19567SOL    HW265817   9.632   8.829   4.077  0.5025 -0.0308 -0.9862
19568SOL     OW65818   3.295   5.760   0.790 -0.0963  0.1906  0.0438
19568SOL    HW165819   3.317   5.742   0.882 -1.2937  1.1333  0.5256
19568SOL    HW265820   3.365   5.818   0.760 -0.0309  0.3763  0.5459
19569SOL     OW65821  12.594   4.932   9.749  0.0966 -0.7605 -0.2081
19569SOL    HW165822  12.639   4.987   9.813  0.4137 -0.7003 -0.4738
19569SOL    HW265823  12.558   4.859   9.800  0.7886 -0.9882 -0.0320
19570SOL     OW65824   8.429  11.128   4.617  0.0954 -0.2119 -0.2502
19570SOL    HW165825   8.393  11.159   4.534  0.2632 -0.9303 -0.6006
19570SOL    HW265826   8.387  11.043   4.631  0.8651 -0.5893 -0.1471
19571SOL     OW65827   0.714   1.165   0.844 -0.0591  0.5908 -0.2524
19571SOL    HW165828   0.642   1.224   0.867 -1.4287  0.0669 -2.7729
19571SOL    HW265829   0.672   1.096   0.792  2.1679 -0.1414 -1.1776
19572SOL     OW65830   8.544   2.604   8.232 -0.2190 -0.0101  0.5446
19572SOL    HW165831   8.487   2.565   8.165  0.5754  0.3132 -0.3285
19572SOL    HW265832   8.591   2.529   8.268 -0.9680 -0.2434  1.0705
19573SOL     OW65833   7.380   0.223   4.428 -0.2691 -0.0701 -0.0941
19573SOL    HW165834   7.340   0.303   4.393 -0.5053 -0.3546 -0.4772
19573SOL    HW265835   7.384   0.238   4.523  0.6388  0.8209 -0.2563
19574SOL     OW65836   2.590   0.395  10.336 -0.1925 -0.1407 -0.1861
19574SOL    HW165837   2.591   0.330  10.406  0.9214  0.7551  0.6541
19574SOL    HW265838   2.627   0.349  10.260  0.7457 -0.4506  0.4457
19575SOL     OW65839  12.110  10.674   8.012 -0.1875  0.1353 -0.6210
19575SOL    HW165840  12.198  10.676   8.050  0.0776  1.3840 -1.2522
19575SOL    HW265841  12.053  10.703   8.083  0.2052  1.6355 -0.8903
19576SOL     OW65842   7.628   7.946  11.352 -0.4507  0.3329  0.3215
19576SOL    HW165843   7.538   7.933  11.381  0.0839 -0.1560  1.8553
19576SOL    HW265844   7.681   7.896  11.414  0.8601  0.3118 -0.7674
19577SOL     OW65845   8.152   8.176   6.821  0.1943 -0.4357  0.2979
19577SOL    HW165846   8.072   8.137   6.786  1.2541 -0.6785 -2.0300
19577SOL    HW265847   8.123   8.223   6.899 -1.6974 -2.9667  1.2710
19578SOL     OW65848   6.960   1.435   0.838 -0.4074  0.1275  0.2725
19578SOL    HW165849   6.920   1.502   0.784 -1.1423  1.3019  2.1607
19578SOL    HW265850   6.886   1.380   0.866 -0.1514 -0.0210  0.6646
19579SOL     OW65851  12.019  10.963  11.027 -0.5429  0.1883  0.0017
19579SOL    HW165852  12.018  10.956  11.122  0.6634 -0.0247  0.0207
19579SOL    HW265853  12.025  10.872  10.996  1.4788  0.3260 -0.1717
19580SOL     OW65854   1.641  10.821   2.641  0.1078 -0.6143 -0.3093
19580SOL    HW165855   1.730  10.818   2.607  1.1994 -1.3878  2.3220
19580SOL    HW265856   1.632  10.909   2.679  0.0947 -0.8549  0.2524
19581SOL     OW65857   7.515   9.209   6.321  0.3089 -0.2719 -0.1479
19581SOL    HW165858   7.553   9.240   6.239  2.0937 -1.9717 -0.0248
19581SOL    HW265859   7.435   9.261   6.331  0.4669  0.5559 -2.5134
19582SOL     OW65860  10.723   2.640  10.456 -0.1708 -0.5797 -0.2995
19582SOL    HW165861  10.739   2.572  10.389  0.2422 -0.6894 -0.0940
19582SOL    HW265862  10.666   2.703  10.413  1.1367  0.0309 -1.2108
19583SOL     OW65863   8.586  11.871   4.781  0.2439 -0.5822 -0.2958
19583SOL    HW165864   8.638  11.950   4.796 -1.6136  0.6812 -0.1333
19583SOL    HW265865   8.644  11.814   4.731  2.5140 -0.1785  1.6792
19584SOL     OW65866   7.265   5.784   1.463 -0.7880 -0.7025  0.2534
19584SOL    HW165867   7.277   5.704   1.515  0.6145 -0.6110  0.1074
19584SOL    HW265868   7.348   5.830   1.470 -2.7309  2.8542  3.7275
19585SOL     OW65869   2.887  10.056  10.707 -0.0839  0.4269 -0.4474
19585SOL    HW165870   2.869  10.118  10.778  1.2724 -0.1016  0.4043
19585SOL    HW265871   2.870   9.970  10.746  0.7563  0.1276 -0.7277
19586SOL     OW65872   3.107   5.003   2.857 -0.0520  0.3899  0.6316
19586SOL    HW165873   3.157   5.057   2.796 -2.5474  1.4183 -0.6441
19586SOL    HW265874   3.090   5.060   2.931  0.2254  0.2052  0.8387
19587SOL     OW65875  10.313  12.826  10.559  0.5323  0.1331  0.2110
19587SOL    HW165876  10.293  12.919  10.548 -1.0821 -0.1864  0.1882
19587SOL    HW265877  10.346  12.798  10.474  0.6979  0.6173  0.1154
19588SOL     OW65878   7.358   8.979   9.617  0.2836 -0.2505  0.3019
19588SOL    HW165879   7.273   9.024   9.621  0.5052  0.6230 -2.7232
19588SOL    HW265880   7.384   8.971   9.709 -2.2904  0.9098  1.2500
19589SOL     OW65881   1.657   1.941  10.540 -0.1635 -0.0452 -0.0987
19589SOL    HW165882   1.691   1.892  10.465  1.4925 -1.2683  1.3444
19589SOL    HW265883   1.644   2.030  10.507  1.1015 -0.3893 -1.6793
19590SOL     OW65884   4.094  12.903   3.998 -0.1557  0.4428  0.0624
19590SOL    HW165885   4.078  12.934   4.087  0.2886 -1.3644  0.8343
19590SOL    HW265886   4.008  12.904   3.957 -0.4559  0.8358  0.6831
19591SOL     OW65887  10.648   8.072   8.258 -0.0354  0.1614  0.1929
19591SOL    HW165888  10.675   7.980   8.261 -1.1979 -0.1748  1.6091
19591SOL    HW265889  10.618   8.086   8.168 -0.1542 -0.9464  0.0541
19592SOL     OW65890   8.626   8.045   1.925  0.2049  0.0746  0.0572
19592SOL    HW165891   8.642   7.966   1.873  0.5558  0.0413  0.2118
19592SOL    HW265892   8.577   8.014   2.001  0.6953 -0.0670  0.3245
19593SOL     OW65893   0.008   0.320  11.375 -0.2901 -0.1445  0.0015
19593SOL    HW165894  -0.008   0.395  11.432  1.9553  0.1326  0.3356
19593SOL    HW265895   0.000   0.244  11.432  0.3618  0.0352  0.3378
19594SOL     OW65896   5.387   1.840   2.133  1.0697 -0.4528 -0.7774
19594SOL    HW165897   5.393   1.875   2.045  0.0689 -0.7255 -0.9669
19594SOL    HW265898   5.364   1.748   2.121 -1.5067  0.0553 -0.2231
19595SOL     OW65899   7.806   3.383   1.536 -0.0738 -0.3161 -0.5616
19595SOL    HW165900   7.870   3.320   1.569 -0.8552 -0.5304  0.6005
19595SOL    HW265901   7.721   3.348   1.562 -0.5481  1.0778 -0.1077
19596SOL     OW65902  10.119   6.589   5.002 -0.1272 -0.5722 -0.0761
19596SOL    HW165903  10.113   6.528   5.076 -2.2025 -2.1552 -1.4193
19596SOL    HW265904  10.037   6.639   5.005  1.7284  2.6261  1.2587
19597SOL     OW65905  12.608   2.935  10.748 -0.4317  0.4602 -0.1652
19597SOL    HW165906  12.628   2.928  10.655  1.8615 -2.0980  0.3793
19597SOL    HW265907  12.669   3.002  10.781  0.5250 -0.4031 -0.1355
19598SOL     OW65908  12.154   3.765   1.282 -1.0492  0.5709  0.0697
19598SOL    HW165909  12.131   3.776   1.375 -1.2155 -0.6816  0.1871
19598SOL    HW265910  12.243   3.799   1.275 -1.6282  2.2312  0.3299
19599SOL     OW65911  12.265   6.376   3.203  0.1328 -0.5705  0.5272
19599SOL    HW165912  12.334   6.311   3.215 -0.0402 -0.7122  0.7378
19599SOL    HW265913  12.294   6.426   3.126  1.5404  0.7257  1.8348
19600SOL     OW65914   0.852   9.968  11.001  0.1343  0.2951  0.0878
19600SOL    HW165915   0.920   9.917  11.046 -0.0587 -1.4117 -1.4390
19600SOL    HW265916   0.842  10.047  11.055  2.7073  0.2155  0.8265
19601SOL     OW65917   0.163   7.811   4.799  0.6837  0.6280  0.2944
19601SOL    HW165918   0.164   7.818   4.703  2.4763  0.6990  0.2860
19601SOL    HW265919   0.072   7.790   4.820  0.6130 -1.2014 -1.5571
19602SOL     OW65920   2.587   7.334   3.578  0.3282  0.4944 -0.4151
19602SOL    HW165921   2.539   7.367   3.502 -1.3420 -0.6291  0.0923
19602SOL    HW265922   2.659   7.283   3.540 -0.2440  0.2817 -1.2403
19603SOL     OW65923   4.587   2.401   1.113 -0.2234  0.0012  0.4261
19603SOL    HW165924   4.653   2.336   1.088  0.4668  1.0517 -0.5455
19603SOL    HW265925   4.587   2.465   1.042  0.1172  1.8286  1.9825
19604SOL     OW65926  11.901   4.500   5.881 -0.4620 -0.3771  0.1939
19604SOL    HW165927  11.984   4.459   5.906  0.3644 -0.3530 -2.2436
19604SOL    HW265928  11.906   4.588   5.920  0.7411 -0.3237 -0.0380
19605SOL     OW65929   1.465   6.213   1.356 -0.1248  0.0660 -0.3881
19605SOL    HW165930   1.492   6.292   1.402  1.2124  0.5194 -1.8619
19605SOL    HW265931   1.546   6.165   1.340 -0.8414 -1.3292 -0.0546
19606SOL     OW65932   3.588  10.550  10.974  0.1017  0.5811 -0.5928
19606SOL    HW165933   3.680  10.527  10.983  0.2072  1.2550  0.2503
19606SOL    HW265934   3.589  10.634  10.928 -0.0549  0.8394 -0.1342
19607SOL     OW65935  12.535   4.820   4.141 -0.0189  0.9848 -0.2658
19607SOL    HW165936  12.462   4.796   4.084  0.0416  0.9199 -0.3149
19607SOL    HW265937  12.527   4.761   4.216  0.3476  0.5592 -0.5589
19608SOL     OW65938   5.330  10.525  11.759  1.0184  0.1094  0.2855
19608SOL    HW165939   5.311  10.576  11.680  1.5311 -1.0842 -0.6587
19608SOL    HW265940   5.254  10.466  11.767  0.7480  0.5442  0.9667
19609SOL     OW65941   6.245   4.210   1.807 -0.5655  0.4636  0.3069
19609SOL    HW165942   6.225   4.135   1.863  0.2638  0.2861  0.3804
19609SOL    HW265943   6.247   4.174   1.718 -1.1613  0.5987  0.2402
19610SOL     OW65944   3.516  11.388   3.047 -0.1504  0.1752  0.7743
19610SOL    HW165945   3.456  11.330   3.095 -0.1877 -2.0575 -1.7566
19610SOL    HW265946   3.460  11.435   2.986  0.3354  0.1139  0.2786
19611SOL     OW65947  12.729   2.971   1.549 -0.3705  0.1262  0.0577
19611SOL    HW165948  12.737   2.882   1.584  0.4673  0.1393 -0.0690
19611SOL    HW265949  12.723   3.026   1.627  2.3143  0.2282  0.2851
19612SOL     OW65950   7.218   3.546   7.528 -0.6862 -0.2065 -0.3211
19612SOL    HW165951   7.165   3.481   7.574  0.2116 -0.5009  0.3185
19612SOL    HW265952   7.156   3.593   7.472 -2.1500  1.3321  2.4177
19613SOL     OW65953   7.703   2.991   4.676  0.2649 -0.3554  0.2969
19613SOL    HW165954   7.664   3.028   4.755  0.2926  3.5944 -1.3249
19613SOL    HW265955   7.627   2.969   4.620  0.2735 -0.6229  0.3902
19614SOL     OW65956   0.802   3.573   6.163  0.3899  0.6344 -0.1274
19614SOL    HW165957   0.740   3.634   6.202  0.0880  0.1875  0.0974
19614SOL    HW265958   0.877   3.627   6.140 -0.6888  1.4628 -1.8406
19615SOL     OW65959  11.538   6.888  11.071 -0.1808  0.2145 -0.4393
19615SOL    HW165960  11.580   6.910  10.987 -1.3290 -0.4667 -1.2264
19615SOL    HW265961  11.522   6.794  11.065  2.5303 -0.5183  1.8868
19616SOL     OW65962  11.305   3.487  12.020  0.4242 -0.3149  0.3233
19616SOL    HW165963  11.256   3.547  12.077  0.7439 -0.1748  0.4515
19616SOL    HW265964  11.237   3.436  11.975 -0.0930  2.4296 -2.3954
19617SOL     OW65965   6.687  12.364   6.346  0.4054  0.4785 -0.5315
19617SOL    HW165966   6.649  12.395   6.264  1.7991  0.5022 -1.2000
19617SOL    HW265967   6.767  12.317   6.319  0.3131 -0.4484  0.7308
19618SOL     OW65968   5.781  10.279   7.699  0.3921  0.2945 -0.9493
19618SOL    HW165969   5.868  10.273   7.737  0.4052 -3.6989 -1.1927
19618SOL    HW265970   5.792  10.253   7.608 -0.9510  0.6540 -1.2411
19619SOL     OW65971   7.963   1.387   0.395  0.0545  0.2206 -0.4997
19619SOL    HW165972   7.918   1.465   0.362  2.3083  1.3599 -1.0697
19619SOL    HW265973   8.002   1.415   0.478 -1.0073 -1.0196  0.4493
19620SOL     OW65974   0.258   5.852   0.429 -0.0473  0.2877 -0.2431
19620SOL    HW165975   0.200   5.924   0.454  0.5410  0.2405  1.4143
19620SOL    HW265976   0.200   5.785   0.393 -0.6041  1.5683 -1.8241
19621SOL     OW65977  11.517   1.299   5.143  0.3165 -0.4533 -0.1359
19621SOL    HW165978  11.533   1.257   5.058 -0.7185  1.3654 -1.3068
19621SOL    HW265979  11.476   1.383   5.120  0.3044  0.2223  2.1701
19622SOL     OW65980   0.252   4.623   7.971  0.4140 -0.0685  0.4825
19622SOL    HW165981   0.193   4.696   7.990  1.2735  0.2787  1.9410
19622SOL    HW265982   0.200   4.545   7.992 -0.0664  0.1674  0.1877
19623SOL     OW65983   5.424   4.407  10.870  0.0140  1.0506 -0.2447
19623SOL    HW165984   5.330   4.419  10.863 -0.1185 -0.0273 -0.4342
19623SOL    HW265985   5.452   4.472  10.935 -1.2959 -0.5782  2.0796
19624SOL     OW65986   7.058  11.963   7.439  0.1097 -0.1971  0.3805
19624SOL    HW165987   7.012  11.947   7.521 -3.5931  0.9346 -1.2485
19624SOL    HW265988   7.061  12.058   7.431  3.6321 -0.1534  0.7085
19625SOL     OW65989   4.687  10.197   2.736  0.2001  0.4482 -0.3587
19625SOL    HW165990   4.655  10.247   2.811 -0.9992  0.3716 -0.8032
19625SOL    HW265991   4.767  10.155   2.767  0.2446  1.2066  0.5695
19626SOL     OW65992   8.651   8.106   5.974 -0.3372 -0.2035 -0.3708
19626SOL    HW165993   8.560   8.110   5.946 -0.1650  0.7325 -0.8446
19626SOL    HW265994   8.697   8.066   5.900 -0.2923 -0.2521 -0.3175
19627SOL     OW65995  11.888   1.911   1.078 -0.4815  0.0575  0.4243
19627SOL    HW165996  11.892   2.001   1.108  0.5144 -0.2743  1.3555
19627SOL    HW265997  11.798   1.884   1.093 -0.6132  0.6860  0.7765
19628SOL     OW65998  11.922  11.599   4.765  0.5465  0.0078  0.2006
19628SOL    HW165999  11.929  11.654   4.843 -1.2835  0.6900 -0.0764
19628SOL    HW266000  12.013  11.579   4.742  1.3000  2.5882  0.5727
19629SOL     OW66001   9.481   8.545  12.782  0.3222  0.3796  0.4471
19629SOL    HW166002   9.515   8.468  12.737  2.4682  0.8120  1.2102
19629SOL    HW266003   9.559   8.591  12.814 -0.8548  2.9250 -0.0493
19630SOL     OW66004   6.386   6.655  11.307 -0.8298 -0.0683 -0.3796
19630SOL    HW166005   6.380   6.561  11.322 -3.5388 -0.3449 -2.3399
19630SOL    HW266006   6.384   6.694  11.394 -0.6870 -1.7853  0.4311
19631SOL     OW66007   9.288  11.722  11.230  1.0110  0.3543  0.6086
19631SOL    HW166008   9.333  11.669  11.295 -1.2276 -0.6780  1.3881
19631SOL    HW266009   9.253  11.659  11.167  0.2453  1.0751  0.2874
19632SOL     OW66010   6.758   0.867   1.817 -0.0619 -0.1004  0.7816
19632SOL    HW166011   6.780   0.795   1.876 -1.2071 -0.6640  0.5601
19632SOL    HW266012   6.805   0.847   1.736  0.2269 -0.1933  0.9730
19633SOL     OW66013   6.170  11.817  12.286  0.1861 -0.2120  0.3498
19633SOL    HW166014   6.233  11.885  12.263  1.4774 -1.4103  0.1729
19633SOL    HW266015   6.201  11.783  12.370 -0.5983 -0.4050  0.5714
19634SOL     OW66016   2.680   0.531   7.908  0.0168 -0.1093 -0.4207
19634SOL    HW166017   2.618   0.554   7.978  1.1931  0.0201  0.6319
19634SOL    HW266018   2.693   0.437   7.917 -0.4876 -0.2393 -1.0370
19635SOL     OW66019   4.761  12.220  12.430 -0.2657  0.4151  0.4291
19635SOL    HW166020   4.758  12.314  12.413 -1.5194  0.1212 -1.2305
19635SOL    HW266021   4.808  12.212  12.513 -1.4931  2.5988  1.4136
19636SOL     OW66022   5.131   8.143  12.969  0.4707  0.1672  0.4778
19636SOL    HW166023   5.075   8.093  12.910  0.1123 -1.8984  2.4348
19636SOL    HW266024   5.216   8.099  12.964  0.8116  0.8112  0.5032
19637SOL     OW66025   8.185   1.997   9.667  0.5101 -0.1207 -0.1341
19637SOL    HW166026   8.265   2.022   9.621 -0.2244  1.5261 -0.5860
19637SOL    HW266027   8.182   2.055   9.743  0.1350 -0.7097  0.3067
19638SOL     OW66028   5.318   9.601   7.826 -0.1950 -0.0466 -0.2403
19638SOL    HW166029   5.410   9.580   7.811 -0.5168 -0.4542 -1.8824
19638SOL    HW266030   5.275   9.583   7.742 -1.7704  0.1715  0.4732
19639SOL     OW66031   7.969   3.842  11.060 -0.0925  0.2051 -0.5652
19639SOL    HW166032   8.063   3.827  11.071 -0.1257 -0.7831 -1.4111
19639SOL    HW266033   7.933   3.755  11.040 -1.0737  0.6886 -0.9953
19640SOL     OW66034  11.333   7.161   8.677 -0.1644 -0.1242 -0.4532
19640SOL    HW166035  11.248   7.134   8.713  0.1473 -0.6709 -0.1150
19640SOL    HW266036  11.381   7.195   8.751  0.7160 -1.8345 -0.1782
19641SOL     OW66037   9.120  11.710   2.040 -0.2287  0.2427 -0.0864
19641SOL    HW166038   9.097  11.778   2.103 -0.3242  1.3620 -1.2881
19641SOL    HW266039   9.196  11.666   2.077  1.0938  2.3298 -0.1939
19642SOL     OW66040  11.149  11.091   7.918  0.4758  0.4216 -0.3706
19642SOL    HW166041  11.062  11.088   7.879 -0.1326  1.7715  0.8181
19642SOL    HW266042  11.189  11.007   7.893 -1.1274 -0.2050 -0.9688
19643SOL     OW66043  12.259   1.446   1.851 -0.4877  0.7977  1.1511
19643SOL    HW166044  12.280   1.366   1.899 -1.0203  0.0283  0.1323
19643SOL    HW266045  12.294   1.431   1.763 -1.3253  1.3435  0.7169
19644SOL     OW66046   3.160   3.195  11.183  0.3288 -0.3623  0.4728
19644SOL    HW166047   3.134   3.287  11.180 -0.5691 -0.6340 -0.3811
19644SOL    HW266048   3.205   3.180  11.100 -1.4978 -1.2458 -0.3995
19645SOL     OW66049   2.037   9.834   0.719 -0.3375 -0.7187 -0.1760
19645SOL    HW166050   1.943   9.847   0.727 -0.9898 -4.8228  0.8267
19645SOL    HW266051   2.068   9.826   0.810  1.4947  2.6043 -0.3467
19646SOL     OW66052   5.784   6.793   0.853  0.4172 -1.1674 -0.0155
19646SOL    HW166053   5.834   6.804   0.934 -0.1799 -0.7841  0.3105
19646SOL    HW266054   5.850   6.788   0.784  0.8996 -0.3224  0.3662
19647SOL     OW66055  10.390   0.101   9.891  0.2423 -0.1480  0.1542
19647SOL    HW166056  10.431   0.129   9.809  1.1449  0.2289  0.7280
19647SOL    HW266057  10.445   0.137   9.960  0.1358 -1.4022  0.9323
19648SOL     OW66058  10.772  10.489   9.659  0.2518 -0.5784 -0.5627
19648SOL    HW166059  10.698  10.514   9.603  0.8919  0.9551 -0.7511
19648SOL    HW266060  10.818  10.421   9.609  0.8088  0.7586 -1.9455
19649SOL     OW66061   6.539  12.250   3.402  0.2984 -0.1076  0.3741
19649SOL    HW166062   6.480  12.177   3.385 -0.9492  0.6631  1.2639
19649SOL    HW266063   6.551  12.292   3.316 -1.9149  0.7771  0.4327
19650SOL     OW66064   9.192   0.984   9.981  0.1892  0.2953  0.8858
19650SOL    HW166065   9.099   0.993  10.004 -0.0488 -0.9084  0.4604
19650SOL    HW266066   9.195   0.993   9.886  0.4706 -0.0067  0.8660
19651SOL     OW66067   7.606   1.492   6.169  0.2957  0.8918  0.8239
19651SOL    HW166068   7.605   1.543   6.087 -2.7701  1.1301  0.9079
19651SOL    HW266069   7.640   1.553   6.234  1.8968  0.9888 -0.0329
19652SOL     OW66070   4.254   9.173   8.088 -0.0136 -0.0371 -0.3154
19652SOL    HW166071   4.241   9.079   8.096  2.1881 -0.4917 -1.4781
19652SOL    HW266072   4.165   9.210   8.091 -0.9503 -2.1602 -0.3793
19653SOL     OW66073  11.767   5.861   8.772  0.0422  0.7246 -0.3386
19653SOL    HW166074  11.744   5.807   8.696 -1.5185 -0.4907  0.9487
19653SOL    HW266075  11.684   5.881   8.814  0.8968  1.0037  1.3091
19654SOL     OW66076  10.413   1.842  11.774  0.0496 -0.1976 -0.0090
19654SOL    HW166077  10.365   1.890  11.841  1.4239 -0.6203  1.3459
19654SOL    HW266078  10.439   1.761  11.817 -2.2199 -2.2886 -2.2068
19655SOL     OW66079   9.098   5.438   8.925 -0.7084  0.0257  0.2845
19655SOL    HW166080   9.172   5.430   8.985 -0.9629  2.3743  1.0096
19655SOL    HW266081   9.035   5.373   8.955 -0.5613  0.7059  2.2055
19656SOL     OW66082   8.773   1.109   5.599  0.2828  0.1204 -0.1945
19656SOL    HW166083   8.737   1.025   5.627  0.0707  0.2914  0.0539
19656SOL    HW266084   8.717   1.137   5.527 -1.3453  1.3311  1.4700
19657SOL     OW66085   6.929   5.571   6.010 -0.3658 -0.9049  0.1748
19657SOL    HW166086   6.989   5.607   6.075 -2.2587 -0.1179  1.5984
19657SOL    HW266087   6.943   5.476   6.013  0.9841 -0.7204  0.2339
19658SOL     OW66088   7.408  10.344  11.732  0.0407 -0.5626  0.3436
19658SOL    HW166089   7.481  10.283  11.730  0.2333 -0.3372 -1.2878
19658SOL    HW266090   7.446  10.427  11.763 -0.3450 -1.3260  3.1528
19659SOL     OW66091  11.239   6.805   6.841 -0.8174  0.1700 -0.3559
19659SOL    HW166092  11.186   6.866   6.893 -0.4269  1.6128 -1.5640
19659SOL    HW266093  11.187   6.725   6.838 -1.6782  0.6564  0.7205
19660SOL     OW66094   1.016   2.079   9.020 -0.5604  0.5860  0.1841
19660SOL    HW166095   1.074   2.137   8.970 -2.6732  0.7582 -2.2430
19660SOL    HW266096   1.016   2.116   9.109  1.7443  1.4955 -0.1360
19661SOL     OW66097   5.923   2.794   3.369 -0.6653 -0.1955  0.0726
19661SOL    HW166098   5.847   2.745   3.401 -0.5348 -0.8300 -0.5501
19661SOL    HW266099   5.918   2.878   3.414 -2.3775  0.2135 -0.7868
19662SOL     OW66100   1.959  12.601   5.691 -0.3237  0.0546 -0.1088
19662SOL    HW166101   1.930  12.610   5.601  0.6643  0.2030 -0.4173
19662SOL    HW266102   2.041  12.650   5.696 -0.1797 -0.2498  0.7758
19663SOL     OW66103   5.687   5.646   1.143 -0.1032 -0.9072  0.5603
19663SOL    HW166104   5.718   5.674   1.057  0.9792 -0.6183  1.0230
19663SOL    HW266105   5.642   5.564   1.127  0.3038 -0.9784 -0.2545
19664SOL     OW66106   8.680   8.253   0.777  0.4658  0.5270  0.0256
19664SOL    HW166107   8.677   8.346   0.799  0.2333  0.4377  0.3854
19664SOL    HW266108   8.654   8.209   0.858 -1.0642  0.2123 -0.6140
19665SOL     OW66109   6.633   2.131   3.341  0.2056 -0.5910 -0.4217
19665SOL    HW166110   6.672   2.052   3.304  0.7644 -0.9736  0.9396
19665SOL    HW266111   6.665   2.134   3.431  0.2601  1.2378 -0.4755
19666SOL     OW66112   5.938   8.090   0.519  0.0131 -0.0194  0.0034
19666SOL    HW166113   5.869   8.049   0.571 -0.6860  1.7948  0.5792
19666SOL    HW266114   5.994   8.017   0.492  0.1450 -1.1119  2.8721
19667SOL     OW66115   4.867   2.198  11.724 -0.2039 -0.1612 -0.0737
19667SOL    HW166116   4.849   2.266  11.789 -0.9563 -1.4948  1.1766
19667SOL    HW266117   4.893   2.122  11.776 -1.0354 -1.3289 -1.3250
19668SOL     OW66118   9.088  11.278   6.907 -0.0319 -0.4322 -0.1367
19668SOL    HW166119   9.031  11.350   6.934 -0.2992 -1.1730  1.4002
19668SOL    HW266120   9.108  11.296   6.816 -1.7732  0.4764 -0.3804
19669SOL     OW66121   3.584   0.266   6.189  0.0156 -0.3784  0.4343
19669SOL    HW166122   3.546   0.335   6.135  0.4362 -0.2738  0.2684
19669SOL    HW266123   3.559   0.290   6.279  0.2061  0.0281  0.3859
19670SOL     OW66124   4.316   1.000   3.399 -0.8165 -0.6413  0.7931
19670SOL    HW166125   4.245   1.011   3.462 -0.3775 -0.0050  1.1953
19670SOL    HW266126   4.372   1.076   3.413 -1.1998  0.0164 -1.0329
19671SOL     OW66127   2.503   1.937   0.211 -0.2314 -0.3828 -0.4630
19671SOL    HW166128   2.441   1.868   0.187  0.0733 -0.0883 -2.2318
19671SOL    HW266129   2.582   1.917   0.160  0.9016 -0.3607  1.2223
19672SOL     OW66130  10.877  10.130   9.034  0.5886  0.3014  0.5380
19672SOL    HW166131  10.962  10.169   9.055  0.1293  0.3234  2.6210
19672SOL    HW266132  10.886  10.038   9.058  0.3172  0.0864 -0.1690
19673SOL     OW66133   7.352   8.618  10.715 -0.7243  0.2633 -0.4276
19673SOL    HW166134   7.290   8.644  10.648  0.3989  1.3143 -1.1099
19673SOL    HW266135   7.432   8.597  10.667  0.3310  1.7573  0.5809
19674SOL     OW66136  10.865   9.457   3.856  0.3122 -0.0751  0.1249
19674SOL    HW166137  10.883   9.551   3.855 -1.3663  0.2731 -0.4449
19674SOL    HW266138  10.936   9.419   3.804  1.0301  0.8596  0.3779
19675SOL     OW66139   0.481   5.941   2.557 -0.1725 -0.0193  0.0722
19675SOL    HW166140   0.575   5.949   2.545 -0.4665  2.4757 -1.4175
19675SOL    HW266141   0.462   5.995   2.634 -0.5093  0.4545 -0.3414
19676SOL     OW66142   5.388   0.360   6.069 -0.6252  0.1467 -0.1895
19676SOL    HW166143   5.401   0.271   6.102 -0.2652 -0.2220 -1.2935
19676SOL    HW266144   5.347   0.348   5.983 -0.3567  1.0371 -0.4489
19677SOL     OW66145   8.103   9.761   8.016 -0.0013 -0.1582 -0.2862
19677SOL    HW166146   8.044   9.773   7.942 -1.1141 -0.2823  0.5598
19677SOL    HW266147   8.161   9.689   7.989 -0.9270 -0.7577 -0.7215
19678SOL     OW66148  11.903   0.599  10.014 -0.4506  0.4631 -0.3573
19678SOL    HW166149  11.958   0.605   9.936  5.1603 -1.5276  2.8376
19678SOL    HW266150  11.880   0.506  10.020 -0.5644  0.5357  0.4847
19679SOL     OW66151   9.673   6.598   8.721  0.0930  0.1931  0.5173
19679SOL    HW166152   9.633   6.597   8.808 -2.6328 -1.6395 -0.6117
19679SOL    HW266153   9.680   6.505   8.697  1.7716  0.6189 -0.8239
19680SOL     OW66154   8.219   2.824   1.648 -0.1493  0.4237  0.6435
19680SOL    HW166155   8.258   2.740   1.671  0.4784  0.5102 -0.0830
19680SOL    HW266156   8.275   2.889   1.691 -0.6167  0.4847  1.1791
19681SOL     OW66157   1.804   2.403   6.452  0.2260  0.4740  0.0764
19681SOL    HW166158   1.748   2.379   6.526  0.7946 -0.2857  0.2764
19681SOL    HW266159   1.891   2.411   6.490  0.3260  1.2653 -0.3012
19682SOL     OW66160   4.028   5.331   6.562  0.3101  0.3819 -0.2328
19682SOL    HW166161   3.996   5.397   6.624 -1.0243  0.0316 -0.5238
19682SOL    HW266162   4.015   5.248   6.607 -0.0705  0.1708 -0.7177
19683SOL     OW66163  12.372   5.582  10.464 -0.9813 -0.0343  0.2387
19683SOL    HW166164  12.386   5.495  10.426 -0.8732 -0.0990  0.4208
19683SOL    HW266165  12.365   5.565  10.559  3.5436  0.6107  0.8825
19684SOL     OW66166   7.161   5.916  10.905  0.0233  0.1476 -0.4856
19684SOL    HW166167   7.218   5.876  10.971  0.7286  1.0377 -0.5426
19684SOL    HW266168   7.216   5.982  10.863 -1.4077  1.8848  0.2726
19685SOL     OW66169   8.929   0.315   3.362  0.0855 -0.1271  0.1741
19685SOL    HW166170   8.867   0.264   3.414  2.5513 -1.7625  1.6964
19685SOL    HW266171   8.917   0.283   3.272 -0.8639 -0.7899  0.5248
19686SOL     OW66172  12.209  11.933   1.357 -0.1432 -0.1461 -0.0230
19686SOL    HW166173  12.123  11.914   1.319  0.7545  0.5054 -2.6380
19686SOL    HW266174  12.266  11.864   1.324  0.5027 -0.1817  1.1112
19687SOL     OW66175  10.392  12.952   0.122 -0.8899  0.1957  0.3353
19687SOL    HW166176  10.323  12.975   0.060 -0.4649 -0.7305 -0.5034
19687SOL    HW266177  10.352  12.887   0.179 -0.0386 -2.3009 -1.7328
19688SOL     OW66178   9.888  11.729   3.500  0.4024  0.0181 -0.8291
19688SOL    HW166179   9.892  11.731   3.595  1.0463 -1.4867 -0.7944
19688SOL    HW266180   9.821  11.663   3.480  0.6681 -0.0831 -1.4214
19689SOL     OW66181  11.494   1.063   9.180 -0.7405  0.1101  1.0416
19689SOL    HW166182  11.443   1.141   9.157 -0.1542  0.6724  1.6106
19689SOL    HW266183  11.523   1.079   9.270 -0.8535 -0.9021  1.2726
19690SOL     OW66184   3.202  12.154  11.769 -0.6290  0.7611  0.4322
19690SOL    HW166185   3.236  12.240  11.793 -0.6782  0.6451  0.9319
19690SOL    HW266186   3.131  12.173  11.707  1.6077  0.9229 -2.2519
19691SOL     OW66187   7.935  11.081  11.045  0.1745 -0.2877  0.2464
19691SOL    HW166188   7.984  11.131  11.111  1.1116  0.4074 -0.9352
19691SOL    HW266189   7.893  11.012  11.095  1.3098 -0.1267  1.5106
19692SOL     OW66190   6.243   0.982  12.660  0.5380 -0.0240  0.2398
19692SOL    HW166191   6.207   0.898  12.631  0.8566 -0.1093  0.0899
19692SOL    HW266192   6.337   0.973  12.650  0.5145  0.7403 -0.8448
19693SOL     OW66193  10.602   1.836   4.777  0.3016  0.1656  0.0549
19693SOL    HW166194  10.638   1.747   4.771  1.6007  0.6790  0.0701
19693SOL    HW266195  10.667   1.891   4.734 -1.6813  0.8159 -2.3102
19694SOL     OW66196  11.986  12.947   8.269  0.3014  0.3695 -0.1010
19694SOL    HW166197  11.899  12.938   8.229  1.0668 -0.9450 -1.5690
19694SOL    HW266198  11.969  12.947   8.363 -1.2463 -0.4086 -0.3409
19695SOL     OW66199  11.834   2.897   7.672 -0.7497  0.4296  0.1881
19695SOL    HW166200  11.887   2.873   7.596 -0.7065  1.3458 -0.0918
19695SOL    HW266201  11.780   2.821   7.689  0.5328 -0.4719  0.3752
19696SOL     OW66202   0.949   9.206   7.960  0.0767  0.0409  0.0741
19696SOL    HW166203   1.017   9.139   7.969 -0.4443 -0.5253 -0.1138
19696SOL    HW266204   0.882   9.165   7.906 -0.9148  0.1939  1.1461
19697SOL     OW66205   3.622   6.900  10.851  0.0864  0.1990 -0.7326
19697SOL    HW166206   3.695   6.872  10.906 -0.0168  0.5868 -0.3949
19697SOL    HW266207   3.544   6.867  10.895  0.0758 -0.7749 -1.4264
19698SOL     OW66208  12.435   7.546  10.327 -0.2036 -0.1158 -0.2531
19698SOL    HW166209  12.489   7.601  10.271  0.2111 -0.6516 -0.3894
19698SOL    HW266210  12.490   7.469  10.345 -1.1321 -0.9510 -0.8929
19699SOL     OW66211   4.895   9.447  12.769  0.3844 -0.5513  0.1830
19699SOL    HW166212   4.855   9.498  12.840 -0.3405  0.2760 -0.7988
19699SOL    HW266213   4.970   9.405  12.810  1.0532  1.3514  1.0220
19700SOL     OW66214   1.351   2.841  10.629  0.4815 -0.0895 -0.0450
19700SOL    HW166215   1.336   2.839  10.723 -1.5516  0.8434 -0.2972
19700SOL    HW266216   1.345   2.934  10.606  0.7662 -0.3292 -1.1179
19701SOL     OW66217  10.970  11.602  11.697 -0.2563 -0.1242  0.6128
19701SOL    HW166218  10.991  11.509  11.703 -0.0009 -0.3217 -2.0304
19701SOL    HW266219  10.877  11.604  11.675  0.0795  0.1244 -0.9030
19702SOL     OW66220   3.938  11.064   4.310 -0.4681  0.5098  0.1943
19702SOL    HW166221   3.985  10.980   4.310 -0.0529  0.6476 -2.2278
19702SOL    HW266222   3.849  11.042   4.338 -0.5634 -0.9184 -1.0803
19703SOL     OW66223  11.780  10.446  11.389  0.5626 -0.0423  0.2395
19703SOL    HW166224  11.859  10.477  11.434  0.1230  0.3210  0.7816
19703SOL    HW266225  11.769  10.506  11.316 -0.5919  1.4774  1.6009
19704SOL     OW66226   5.201  12.008   5.897  0.3119  0.0743  0.5101
19704SOL    HW166227   5.177  12.100   5.901 -0.1313 -0.0121 -0.0515
19704SOL    HW266228   5.175  11.980   5.809 -0.5576 -0.8695  1.0444
19705SOL     OW66229   3.668   9.971   3.882 -0.0286 -0.8840 -0.0494
19705SOL    HW166230   3.743   9.981   3.824 -1.8660  1.6434 -2.3158
19705SOL    HW266231   3.632   9.885   3.861  1.0921 -1.2681 -0.4200
19706SOL     OW66232   2.662   9.204   5.992  0.2313 -0.1146  0.2429
19706SOL    HW166233   2.736   9.263   6.005  1.4705 -1.4894 -0.2034
19706SOL    HW266234   2.682   9.158   5.910 -1.8599  0.4959 -0.6818
19707SOL     OW66235   8.581   7.114   3.536  0.0580  0.0005 -0.0401
19707SOL    HW166236   8.527   7.171   3.590 -0.2951  0.5587 -0.9469
19707SOL    HW266237   8.636   7.173   3.485 -1.9429 -0.2447 -2.7289
19708SOL     OW66238   9.584  12.931   0.295  0.3744  0.3531 -0.2287
19708SOL    HW166239   9.537  12.972   0.222  0.8712 -0.0962 -0.8133
19708SOL    HW266240   9.517  12.879   0.339  0.3703 -0.5944 -1.2876
19709SOL     OW66241   9.715   2.442  10.617  0.0315  0.3334 -0.4057
19709SOL    HW166242   9.737   2.422  10.526  1.0822 -1.0097  0.1146
19709SOL    HW266243   9.745   2.532  10.629  2.8575 -0.4770 -0.5466
19710SOL     OW66244  12.788   9.496   3.535  0.1785  0.2020  0.4733
19710SOL    HW166245  12.731   9.441   3.590  0.8583 -1.1950 -0.1782
19710SOL    HW266246  12.750   9.490   3.448  0.8037 -0.0052  0.2108
19711SOL     OW66247   8.357   5.932   1.375 -0.4943 -0.0705  0.4317
19711SOL    HW166248   8.380   5.840   1.386 -2.5248 -0.5309  1.1516
19711SOL    HW266249   8.414   5.978   1.436 -0.0260 -0.9287  0.6557
19712SOL     OW66250  10.414  12.364  11.684  0.2760 -0.0351 -0.3575
19712SOL    HW166251  10.363  12.306  11.628 -0.3951  0.9592 -0.8052
19712SOL    HW266252  10.471  12.306  11.734 -2.5047 -1.4095  1.4341
19713SOL     OW66253   9.496   7.574   5.585  0.2945  0.0781  0.4910
19713SOL    HW166254   9.529   7.529   5.507  2.8268  1.1578  0.8236
19713SOL    HW266255   9.405   7.547   5.593 -0.2053  0.3084 -3.1117
19714SOL     OW66256   9.391   6.812   4.936  0.5153  0.2993 -0.5063
19714SOL    HW166257   9.350   6.896   4.914 -1.1477 -0.3239  0.0088
19714SOL    HW266258   9.319   6.749   4.931  1.1261 -0.6668  1.6821
19715SOL     OW66259  12.280  11.538   1.360  0.3077 -0.3945 -0.3170
19715SOL    HW166260  12.284  11.444   1.343  0.2741 -0.1350 -1.8732
19715SOL    HW266261  12.191  11.553   1.392  0.3333 -0.8854 -0.0025
19716SOL     OW66262   1.009   2.339   9.962  0.7664 -0.8574 -0.4128
19716SOL    HW166263   1.034   2.415   9.910  0.5497 -0.1262  0.5380
19716SOL    HW266264   1.071   2.338  10.035  0.4608 -1.3056 -0.1543
19717SOL     OW66265  11.279  11.837   4.499 -0.1370 -0.4447 -0.3004
19717SOL    HW166266  11.294  11.931   4.510 -0.5470 -0.5922  2.2454
19717SOL    HW266267  11.352  11.796   4.546 -0.0126 -1.4218 -1.2977
19718SOL     OW66268   7.615  12.676   6.490 -0.2475 -0.5679 -0.0175
19718SOL    HW166269   7.694  12.730   6.496  0.3222 -1.4800  0.9634
19718SOL    HW266270   7.547  12.737   6.460  0.5057  0.5590  0.4974
19719SOL     OW66271   7.712   9.338  10.765  0.3086  0.3411  0.7163
19719SOL    HW166272   7.721   9.350  10.859  0.6374 -0.8494  0.8436
19719SOL    HW266273   7.641   9.275  10.755  1.8790 -1.4237  0.2886
19720SOL     OW66274   1.846   4.144   9.061  0.1821  0.5355  0.0017
19720SOL    HW166275   1.835   4.229   9.017 -0.9386  0.1879 -0.4401
19720SOL    HW266276   1.888   4.165   9.144  0.6003  1.4358 -0.4235
19721SOL     OW66277   2.855   0.460   9.951 -0.6357  0.2281 -0.4647
19721SOL    HW166278   2.919   0.458  10.022 -0.8440 -1.4697 -0.2746
19721SOL    HW266279   2.905   0.434   9.873 -1.1765 -1.8955 -0.1772
19722SOL     OW66280   0.532  12.618   3.866 -0.2737  0.3746  0.1239
19722SOL    HW166281   0.488  12.690   3.911 -0.7512 -0.1174  0.4654
19722SOL    HW266282   0.468  12.588   3.801  0.1724  0.6766 -0.4625
19723SOL     OW66283   2.325   2.379   8.239 -0.3995 -0.4928 -0.9734
19723SOL    HW166284   2.243   2.332   8.247 -1.1301  0.6374 -1.5616
19723SOL    HW266285   2.354   2.393   8.330 -2.1508  1.2620 -0.6324
19724SOL     OW66286   9.193   9.710   2.544 -0.0109 -0.7708  0.6151
19724SOL    HW166287   9.119   9.752   2.590 -1.1707 -1.0691 -0.9009
19724SOL    HW266288   9.245   9.671   2.614 -0.9442 -0.0213  1.7821
19725SOL     OW66289   8.482  11.974  11.961  0.1649 -0.4499  0.6553
19725SOL    HW166290   8.556  11.994  12.018 -0.0781 -3.3617  2.1678
19725SOL    HW266291   8.423  12.050  11.969  2.0540  1.0703  0.8861
19726SOL     OW66292  11.040   4.536   7.842  0.1364  0.4929  0.2768
19726SOL    HW166293  11.073   4.566   7.927  0.7834  1.7306 -0.3925
19726SOL    HW266294  10.999   4.613   7.803 -0.0571 -0.0360 -0.5942
19727SOL     OW66295   5.805   6.961   7.725 -0.0916  0.3554 -0.1719
19727SOL    HW166296   5.799   7.032   7.661  1.1163  0.8598  0.2556
19727SOL    HW266297   5.897   6.959   7.751  0.4198 -2.7037 -1.6702
19728SOL     OW66298   8.886   1.950   1.246  0.1242  0.2670  0.2787
19728SOL    HW166299   8.811   2.009   1.257 -0.3798  0.2414 -2.3800
19728SOL    HW266300   8.853   1.864   1.271  0.2506  0.7229  2.1732
19729SOL     OW66301   5.950  11.040   2.397 -0.1207 -0.2335 -0.0146
19729SOL    HW166302   5.987  11.039   2.485  0.6631 -3.2094 -0.2632
19729SOL    HW266303   5.858  11.061   2.410  0.3150  1.0112  1.3134
19730SOL     OW66304   4.602   8.149   8.674 -0.1569 -0.0159 -0.2911
19730SOL    HW166305   4.678   8.095   8.652 -1.1600 -2.1543  1.1398
19730SOL    HW266306   4.625   8.192   8.756 -0.5771 -0.9506  0.3359
19731SOL     OW66307   7.970   4.422  10.735  0.1544 -0.6791 -0.2457
19731SOL    HW166308   7.950   4.460  10.820 -0.2920 -1.3411 -0.0546
19731SOL    HW266309   8.059   4.388  10.744  0.3558 -0.1734 -0.2550
19732SOL     OW66310  12.620   2.863   0.382  0.5609  0.0569  0.0651
19732SOL    HW166311  12.707   2.825   0.392  1.3898  1.3338 -1.7121
19732SOL    HW266312  12.573   2.802   0.326 -0.1498 -1.2413  1.9920
19733SOL     OW66313   7.664   5.268  11.351 -0.5509 -0.2962 -0.2132
19733SOL    HW166314   7.656   5.187  11.300 -2.0750 -0.4424  0.2274
19733SOL    HW266315   7.759   5.278  11.363 -0.3510 -2.6027  0.6485
19734SOL     OW66316   7.669   5.428   7.953  0.5367  0.0235  0.9111
19734SOL    HW166317   7.639   5.394   7.868 -0.2082  1.7777  0.4227
19734SOL    HW266318   7.672   5.351   8.010  0.1871 -1.0494 -0.4648
19735SOL     OW66319  10.838   0.532   6.346 -0.1821 -0.2969  0.0914
19735SOL    HW166320  10.745   0.508   6.339 -0.1538 -0.5024  0.3920
19735SOL    HW266321  10.842   0.587   6.424 -0.5779  2.3147 -1.5926
19736SOL     OW66322  12.613  11.866   1.022 -0.1301 -0.1022  0.3139
19736SOL    HW166323  12.610  11.877   0.927  0.4639 -1.8203  0.0699
19736SOL    HW266324  12.656  11.945   1.053  1.2353 -0.2752 -1.0151
19737SOL     OW66325   9.589   7.292   0.651 -0.5188 -0.4943  0.0321
19737SOL    HW166326   9.643   7.331   0.582  0.0970 -0.0772  0.7387
19737SOL    HW266327   9.644   7.294   0.729 -1.4376 -0.3809  0.6892
19738SOL     OW66328  12.768   1.999   1.028  0.1287  0.3340  0.3702
19738SOL    HW166329  12.739   2.035   0.945  2.1291  0.4545 -0.3246
19738SOL    HW266330  12.769   1.904   1.014 -0.6095  0.2825  0.6393
19739SOL     OW66331   5.425   4.207  10.099 -0.0635  0.1003 -0.3593
19739SOL    HW166332   5.355   4.205  10.034  0.7935  2.8106 -1.4872
19739SOL    HW266333   5.496   4.256  10.057  1.2961  0.1983  1.8967
19740SOL     OW66334   1.910   9.006   6.225  0.3832 -0.3352 -0.5690
19740SOL    HW166335   1.881   8.953   6.151  0.4252 -0.5418 -0.4386
19740SOL    HW266336   1.897   9.096   6.196  1.9672 -0.3693 -1.4759
19741SOL     OW66337   2.766  12.455   7.150  0.5906  0.1284  0.2287
19741SOL    HW166338   2.724  12.422   7.229  0.5011 -0.4386 -0.0474
19741SOL    HW266339   2.835  12.513   7.182 -0.0771  0.6818  0.6950
19742SOL     OW66340   0.521   7.799   7.470  0.1553 -0.0374 -0.0881
19742SOL    HW166341   0.508   7.723   7.527 -2.5908  0.9038  0.6936
19742SOL    HW266342   0.607   7.834   7.496  1.1350 -2.3600  0.0547
19743SOL     OW66343   8.828   4.443  12.490  0.0026 -0.5472  0.6014
19743SOL    HW166344   8.917   4.461  12.518 -0.8164  2.9155  1.4438
19743SOL    HW266345   8.818   4.489  12.407 -0.5153 -2.4927 -0.4914
19744SOL     OW66346  11.733   2.829   2.476 -0.0125  0.6622 -0.3542
19744SOL    HW166347  11.749   2.832   2.570 -0.9360  1.9305 -0.2008
19744SOL    HW266348  11.664   2.763   2.465  1.5313 -1.0168 -0.4238
19745SOL     OW66349   9.454   9.455   4.917  0.4168 -0.1960 -0.5236
19745SOL    HW166350   9.493   9.529   4.872 -1.5200  0.4153 -1.3050
19745SOL    HW266351   9.422   9.491   5.000 -1.4213  0.1520 -1.3290
19746SOL     OW66352   9.657  10.459   0.971  0.2664 -0.0150 -0.0669
19746SOL    HW166353   9.649  10.479   0.878  0.5676 -1.0759 -0.3286
19746SOL    HW266354   9.708  10.532   1.007  0.1947  0.3700 -0.7404
19747SOL     OW66355  10.804   6.655   7.087 -0.4694  0.0679  0.3849
19747SOL    HW166356  10.888   6.633   7.126  1.7303  1.1398 -3.2588
19747SOL    HW266357  10.796   6.596   7.012 -2.4845  0.6655  0.0619
19748SOL     OW66358   1.210  11.378   3.531  0.1879 -0.6765  0.6061
19748SOL    HW166359   1.131  11.377   3.476  0.4043 -1.7674  0.3010
19748SOL    HW266360   1.222  11.470   3.552 -1.5777 -0.5491  1.2508
19749SOL     OW66361  12.618   0.050   4.560  0.1287  0.0257 -0.5068
19749SOL    HW166362  12.608   0.060   4.655  0.0320  1.1229 -0.6187
19749SOL    HW266363  12.575  -0.033   4.540  0.4668 -0.3942  0.4581
19750SOL     OW66364   8.019   5.700   1.448  0.3133  0.4640 -0.1832
19750SOL    HW166365   8.003   5.759   1.522  2.0348  0.4549  0.2364
19750SOL    HW266366   8.112   5.681   1.452  0.3600  0.0992 -2.1240
19751SOL     OW66367  10.980   2.402   9.585 -0.1932  0.0461 -0.1493
19751SOL    HW166368  10.978   2.355   9.669  2.3026 -0.5371 -0.3603
19751SOL    HW266369  10.966   2.333   9.519  1.0747 -0.0398 -0.3427
19752SOL     OW66370  12.711  11.328   2.599  0.4614 -0.5197 -0.3849
19752SOL    HW166371  12.802  11.329   2.568 -0.1607 -3.0029 -2.6778
19752SOL    HW266372  12.700  11.240   2.636 -1.4264 -0.9021 -1.7404
19753SOL     OW66373   5.266  10.574   4.392 -0.5941  0.5904  0.3273
19753SOL    HW166374   5.310  10.519   4.326  0.0538  0.6152  0.7377
19753SOL    HW266375   5.224  10.511   4.451 -1.7940  0.5722 -0.5103
19754SOL     OW66376   0.840   0.784   3.121 -0.4088 -0.2766 -0.8839
19754SOL    HW166377   0.751   0.751   3.134 -1.1662  1.9901  0.0609
19754SOL    HW266378   0.896   0.712   3.153 -1.8646 -1.6250 -1.2118
19755SOL     OW66379   5.029   2.896   4.653  0.7045 -0.6683 -0.0809
19755SOL    HW166380   5.052   2.984   4.683 -0.7148 -0.6439  1.0506
19755SOL    HW266381   5.015   2.906   4.559 -4.3475  1.6149  0.5894
19756SOL     OW66382   2.884   3.068   6.497 -0.1890 -0.4231  0.5326
19756SOL    HW166383   2.906   3.126   6.424  1.8556  0.2278  1.5717
19756SOL    HW266384   2.873   2.982   6.457  1.7199 -0.2430 -0.4904
19757SOL     OW66385   3.818   8.476   7.865  0.4647 -0.6433  0.5488
19757SOL    HW166386   3.838   8.418   7.938 -0.9262 -1.0107  0.6822
19757SOL    HW266387   3.799   8.417   7.792  2.0726 -0.2787 -0.2011
19758SOL     OW66388   8.015  11.196   6.810 -0.3269 -0.0367  0.3510
19758SOL    HW166389   7.954  11.137   6.854  0.3539  0.5377  2.1107
19758SOL    HW266390   8.098  11.185   6.855  0.3110  0.8655 -0.5384
19759SOL     OW66391   8.351  12.088   0.301  0.1315  0.2295  0.1048
19759SOL    HW166392   8.445  12.096   0.280  0.3914  2.1928  1.6556
19759SOL    HW266393   8.346  12.015   0.362  0.6749  0.2278  0.1539
19760SOL     OW66394  12.122   8.870  10.804 -0.2327 -0.3441 -0.7226
19760SOL    HW166395  12.106   8.964  10.796  0.4927 -0.1483 -0.0290
19760SOL    HW266396  12.216   8.863  10.819 -0.5755 -1.0206  1.4233
19761SOL     OW66397   9.977   0.690   9.180  0.4755  0.0819 -0.0789
19761SOL    HW166398   9.925   0.743   9.120  0.2312 -0.7755 -0.6432
19761SOL    HW266399  10.045   0.651   9.124  1.1722  0.4821  0.4836
19762SOL     OW66400   5.969   2.397   6.800 -0.0374 -0.7459 -0.0426
19762SOL    HW166401   5.978   2.321   6.857 -0.9184 -1.3990 -0.7348
19762SOL    HW266402   5.962   2.471   6.860 -0.6259 -1.3731  0.6872
19763SOL     OW66403   1.724   7.654  12.868  0.0150 -0.1781  0.4056
19763SOL    HW166404   1.682   7.740  12.863 -0.1853 -0.2869  0.1964
19763SOL    HW266405   1.655   7.593  12.840  0.6238 -0.2783 -0.9311
19764SOL     OW66406   4.527   6.333   9.034 -0.1223 -0.2092 -0.5224
19764SOL    HW166407   4.613   6.293   9.037  0.1905  0.4124 -0.8975
19764SOL    HW266408   4.498   6.322   8.944 -0.1144  0.2286 -0.5834
19765SOL     OW66409   0.206   6.985   7.481 -0.3102 -0.0029  0.4603
19765SOL    HW166410   0.163   6.911   7.524 -0.8179  0.6518  1.1114
19765SOL    HW266411   0.135   7.035   7.442  0.2082 -1.2299 -2.3111
19766SOL     OW66412   3.853   9.910   1.730 -0.3779 -0.4423 -0.0815
19766SOL    HW166413   3.766   9.928   1.766  0.2387 -0.8972  1.7428
19766SOL    HW266414   3.837   9.850   1.657 -1.7707  1.2917 -1.2876
19767SOL     OW66415  11.890   9.667   2.291  1.1284  0.6294  0.1232
19767SOL    HW166416  11.852   9.750   2.321 -0.7342 -0.4133  0.7776
19767SOL    HW266417  11.834   9.640   2.218 -0.3179 -1.5710  1.9230
19768SOL     OW66418   5.757   5.694   6.315  0.7425 -0.3602  0.1007
19768SOL    HW166419   5.807   5.617   6.289 -0.3851 -0.9657 -0.3253
19768SOL    HW266420   5.778   5.706   6.408  0.7605 -1.3012  0.2263
19769SOL     OW66421   4.124   9.790  10.645 -0.2130 -0.0614  0.3034
19769SOL    HW166422   4.206   9.797  10.693  1.5898 -0.2141 -2.4877
19769SOL    HW266423   4.082   9.875  10.657 -0.0147 -0.1918  2.2863
19770SOL     OW66424   1.373   2.555   4.824  0.2204 -0.7757 -0.2009
19770SOL    HW166425   1.398   2.507   4.745  0.7658  0.3697 -0.7592
19770SOL    HW266426   1.424   2.515   4.894 -0.5632 -2.0687 -0.3421
19771SOL     OW66427   9.428  12.119  10.576 -0.4144  0.1980  0.4656
19771SOL    HW166428   9.518  12.086  10.567 -0.2188  0.6384  0.7562
19771SOL    HW266429   9.373  12.042  10.563  0.0582 -0.4464  1.9967
19772SOL     OW66430   9.789   3.918   4.862 -0.1612  0.1010 -0.1939
19772SOL    HW166431   9.698   3.943   4.882 -0.5703 -0.4518 -1.2528
19772SOL    HW266432   9.833   3.916   4.946 -0.9848  0.9689  0.2812
19773SOL     OW66433   7.978   9.585   2.226  0.3805  0.4153  0.3182
19773SOL    HW166434   7.902   9.640   2.245  0.3351  0.8389 -0.9966
19773SOL    HW266435   8.046   9.646   2.199  0.5614 -0.1028 -0.4339
19774SOL     OW66436   1.280   0.561  10.767  0.0429  0.1799  0.2918
19774SOL    HW166437   1.328   0.483  10.740  1.6236  1.3766 -0.5471
19774SOL    HW266438   1.271   0.613  10.687  0.2129  1.4596  1.0749
19775SOL     OW66439   5.999   9.529   3.720  0.7645  0.0181 -0.7194
19775SOL    HW166440   5.954   9.460   3.769  3.1634  0.5796  2.6386
19775SOL    HW266441   6.075   9.485   3.681  1.3195  0.4133 -0.0928
19776SOL     OW66442   8.528   0.737  10.713 -0.1850 -0.2366 -0.1550
19776SOL    HW166443   8.588   0.676  10.668  1.3658  1.3909 -0.3953
19776SOL    HW266444   8.458   0.751  10.650 -0.2320 -1.2435 -0.3565
19777SOL     OW66445  12.698   4.114   6.378 -0.1062  0.3292  0.1673
19777SOL    HW166446  12.646   4.053   6.326 -0.1874 -0.4254  1.0954
19777SOL    HW266447  12.636   4.148   6.443  0.4497 -0.2741  1.0306
19778SOL     OW66448   5.764  12.012  10.874  0.3962 -0.1851  0.1391
19778SOL    HW166449   5.763  12.098  10.832  1.4033 -0.9576 -1.5844
19778SOL    HW266450   5.853  12.003  10.908 -0.0976 -0.0227  1.5221
19779SOL     OW66451   6.892  12.500   7.749 -0.3971  0.7209 -0.1425
19779SOL    HW166452   6.981  12.491   7.781 -0.8190 -0.4709  0.7361
19779SOL    HW266453   6.861  12.411   7.736 -1.6342  1.0947  0.0590
19780SOL     OW66454  10.658   8.848  12.927 -0.2872  0.2201  0.1356
19780SOL    HW166455  10.686   8.894  12.847  0.9391  0.5487  0.7201
19780SOL    HW266456  10.670   8.913  12.996 -0.0606 -0.4790  0.7573
19781SOL     OW66457  12.610   2.518   5.761 -0.3706 -0.3158 -0.3108
19781SOL    HW166458  12.704   2.521   5.743 -0.0801 -0.1660  1.0938
19781SOL    HW266459  12.591   2.600   5.807 -1.1655 -0.4115 -0.4481
19782SOL     OW66460   0.819   5.833   5.551 -0.5282  0.0750  0.3063
19782SOL    HW166461   0.786   5.801   5.635 -2.8192  0.6235 -0.3154
19782SOL    HW266462   0.813   5.757   5.492 -0.4850  0.1185  0.2449
19783SOL     OW66463   8.393   2.987   0.970  0.2542  0.6005 -0.2594
19783SOL    HW166464   8.420   2.992   1.061  0.6204 -0.8516 -0.2774
19783SOL    HW266465   8.474   2.980   0.920  0.0001  0.0376 -0.5995
19784SOL     OW66466   7.941  11.718  11.483 -0.1057  0.1316  0.1218
19784SOL    HW166467   7.996  11.649  11.520 -1.4004 -1.6718 -1.1514
19784SOL    HW266468   7.993  11.753  11.411  0.3112  0.0861  0.3939
19785SOL     OW66469  10.019   4.313   0.807 -0.4917  0.5682  0.4146
19785SOL    HW166470  10.040   4.227   0.769 -2.1807  1.2367 -2.3315
19785SOL    HW266471  10.029   4.301   0.901 -0.9383 -2.7420  0.1494
19786SOL     OW66472   6.063   9.014   4.092 -0.1879  0.4483  0.9182
19786SOL    HW166473   6.044   8.949   4.024 -0.8188  1.1582  0.4060
19786SOL    HW266474   5.977   9.038   4.126  0.1020  0.3437  1.7541
19787SOL     OW66475  12.671   5.588   8.139 -0.3479  0.0933 -1.1295
19787SOL    HW166476  12.683   5.662   8.199  0.7245 -1.3410  0.5079
19787SOL    HW266477  12.743   5.598   8.076  0.7395 -0.3694  0.0014
19788SOL     OW66478   4.412   6.125   6.437 -0.1501  0.4875  0.2057
19788SOL    HW166479   4.320   6.141   6.454 -0.5469 -0.5358 -0.8894
19788SOL    HW266480   4.416   6.037   6.399  1.2197  0.6782 -0.1760
19789SOL     OW66481   7.676   2.974   5.628 -0.0822  0.0030 -0.0360
19789SOL    HW166482   7.708   3.047   5.575 -0.6718  1.0303  0.9916
19789SOL    HW266483   7.597   2.944   5.583 -0.3539  0.6043  0.0305
19790SOL     OW66484   2.654   2.451   0.844 -0.1042 -0.3157  0.8706
19790SOL    HW166485   2.645   2.397   0.922 -3.3991 -1.8366 -0.3814
19790SOL    HW266486   2.681   2.390   0.775  0.6014  0.5592  0.3474
19791SOL     OW66487   9.138   5.844   6.023  0.0405 -1.0024  0.3636
19791SOL    HW166488   9.218   5.815   5.978  0.2461 -0.7481  0.5571
19791SOL    HW266489   9.077   5.863   5.952  1.3659  2.4095 -0.0789
19792SOL     OW66490  12.687  10.403   9.031 -0.1506 -0.4600  0.3611
19792SOL    HW166491  12.753  10.468   9.051  0.1743 -0.8202  0.4795
19792SOL    HW266492  12.712  10.326   9.083 -0.9450 -0.4319  0.8102
19793SOL     OW66493   5.711  11.150   2.034 -0.2482 -0.4784 -0.3761
19793SOL    HW166494   5.775  11.081   2.052  1.9257  1.9727  2.2634
19793SOL    HW266495   5.737  11.186   1.949  1.1369 -0.3682  0.0714
19794SOL     OW66496   8.451   1.233  11.472  0.8482  0.0239  0.5153
19794SOL    HW166497   8.536   1.275  11.455  1.3075  0.0159  2.5035
19794SOL    HW266498   8.425   1.196  11.388  0.9428  3.2889 -1.1250
19795SOL     OW66499   6.257  12.175   0.253  0.9152  0.4650  0.0124
19795SOL    HW166500   6.219  12.145   0.335 -0.7076  0.1253 -0.8194
19795SOL    HW266501   6.212  12.257   0.233 -1.4907 -1.2220 -2.2856
19796SOL     OW66502   1.312   6.190   6.023  0.4066 -0.0755 -0.5150
19796SOL    HW166503   1.320   6.227   5.935 -0.5682 -0.2994 -0.7144
19796SOL    HW266504   1.402   6.185   6.055  0.5750  3.1534 -0.1703
19797SOL     OW66505   2.582   1.667   8.616  0.0028  0.2893  0.0152
19797SOL    HW166506   2.644   1.609   8.573  0.2984  0.1948  0.5551
19797SOL    HW266507   2.540   1.715   8.545  0.7127  0.3731 -0.3550
19798SOL     OW66508   8.397   4.824   2.326  0.5680 -0.3598 -0.3406
19798SOL    HW166509   8.304   4.801   2.320  0.8778 -1.3743 -1.4361
19798SOL    HW266510   8.418   4.813   2.419 -0.1750 -1.0293 -0.2433
19799SOL     OW66511   8.042   2.808  12.557 -0.1617 -0.6408  0.3515
19799SOL    HW166512   8.022   2.842  12.470 -0.8594 -0.3839  0.6010
19799SOL    HW266513   8.078   2.883  12.604  1.6930 -1.1631 -0.1678
19800SOL     OW66514   2.524   0.770  10.066  0.3229 -0.6651 -0.0054
19800SOL    HW166515   2.595   0.784  10.003 -1.8823 -1.0236 -2.7594
19800SOL    HW266516   2.520   0.675  10.077 -1.2676 -0.8730 -1.8973
19801SOL     OW66517   0.198   0.947  11.940  0.7911  0.5360  0.5439
19801SOL    HW166518   0.136   1.004  11.896 -0.2191 -0.1496  1.0321
19801SOL    HW266519   0.152   0.863  11.948  0.7688  0.7167  3.1991
19802SOL     OW66520   1.117   8.529   3.264 -0.0637  0.1197  0.1392
19802SOL    HW166521   1.212   8.536   3.256  0.0487  1.4332  2.1324
19802SOL    HW266522   1.101   8.518   3.357 -1.8057 -2.1508 -0.3252
19803SOL     OW66523   5.639   9.705   5.509  0.2258  0.1559 -0.2398
19803SOL    HW166524   5.671   9.635   5.453 -1.3013  0.0113 -0.9849
19803SOL    HW266525   5.656   9.785   5.459  1.7165  0.3333  0.4915
19804SOL     OW66526  11.263   0.369   4.101 -0.0707  0.1771  0.9053
19804SOL    HW166527  11.204   0.377   4.025  0.6421  0.5625  0.3784
19804SOL    HW266528  11.273   0.275   4.114 -0.2786  0.1072  0.5834
19805SOL     OW66529   2.827   8.452  11.090  0.2558  0.2954  0.2415
19805SOL    HW166530   2.802   8.360  11.084 -0.9377  0.6729 -1.4269
19805SOL    HW266531   2.763   8.498  11.035  0.1154  2.2743  1.8898
19806SOL     OW66532   7.684   0.205   6.954  0.6311 -0.4032 -0.4471
19806SOL    HW166533   7.632   0.283   6.975  2.0455  0.5924 -0.5334
19806SOL    HW266534   7.662   0.143   7.023  1.0599  0.8357  0.8542
19807SOL     OW66535   2.897   9.192   3.294  0.7048  0.1189 -0.1960
19807SOL    HW166536   2.870   9.238   3.214  0.1115 -2.3621 -1.5377
19807SOL    HW266537   2.988   9.166   3.277  0.2403 -1.3288 -0.5491
19808SOL     OW66538  12.613  12.600  11.247 -0.3509 -0.4602  0.0693
19808SOL    HW166539  12.582  12.551  11.323 -0.8285  1.9082  1.4940
19808SOL    HW266540  12.552  12.575  11.177 -2.8124  0.6865  1.6649
19809SOL     OW66541  10.279   1.769   7.022 -0.3663 -0.5368 -0.3136
19809SOL    HW166542  10.322   1.688   7.050 -0.8026 -0.0343  2.0605
19809SOL    HW266543  10.228   1.796   7.098  0.1535  2.2300 -0.8448
19810SOL     OW66544   3.385   7.179  12.340  0.4888 -0.2276 -1.3826
19810SOL    HW166545   3.322   7.113  12.368 -0.4586  1.1295 -0.1331
19810SOL    HW266546   3.459   7.129  12.306 -0.7519 -1.8916 -1.7758
19811SOL     OW66547   8.595  11.091   1.889 -0.5534  0.3211  0.4398
19811SOL    HW166548   8.539  11.125   1.819 -1.5011 -1.6528  0.1603
19811SOL    HW266549   8.680  11.076   1.847 -0.9089 -0.1678 -0.1150
19812SOL     OW66550   9.374   2.093   7.937 -0.1027  0.4795  0.3117
19812SOL    HW166551   9.353   2.128   7.850  0.4152  0.8926  0.3467
19812SOL    HW266552   9.423   2.163   7.980  2.2786 -0.7836 -0.1600
19813SOL     OW66553  10.844  12.782   3.277  0.1799 -0.4626 -0.3622
19813SOL    HW166554  10.770  12.828   3.237  0.3378  0.0344 -0.0881
19813SOL    HW266555  10.858  12.706   3.220 -1.3539 -1.2860  0.2719
19814SOL     OW66556  10.976   4.573   1.074 -0.4123 -0.1510  0.7200
19814SOL    HW166557  10.899   4.523   1.099  0.9239 -1.6398  2.0696
19814SOL    HW266558  10.999   4.623   1.152  1.6035 -1.9377  1.3655
19815SOL     OW66559   7.346  11.774   6.459  0.5161  0.2648  0.6142
19815SOL    HW166560   7.299  11.832   6.520  1.5032  1.2016  0.5269
19815SOL    HW266561   7.435  11.810   6.456  1.1355 -1.2057  0.4559
19816SOL     OW66562   9.325   0.485   9.645 -0.4550  0.4871 -0.0471
19816SOL    HW166563   9.282   0.409   9.605  0.2545  0.8558 -1.5597
19816SOL    HW266564   9.265   0.512   9.715 -1.9170  0.0305 -1.0760
19817SOL     OW66565   4.543   9.050   8.135  0.3490  0.3464 -0.1968
19817SOL    HW166566   4.485   9.125   8.124  1.2956  1.2422  0.6825
19817SOL    HW266567   4.546   9.036   8.229 -0.4165 -1.3176 -0.3876
19818SOL     OW66568   4.577   4.912   7.882  0.5594 -0.1168 -0.0550
19818SOL    HW166569   4.596   5.006   7.885 -0.8131  0.2349 -1.0516
19818SOL    HW266570   4.482   4.906   7.893  0.4483 -1.2711 -1.3338
19819SOL     OW66571  10.732   2.716  12.796 -1.0570 -0.4123  0.4878
19819SOL    HW166572  10.693   2.645  12.745 -0.8838 -0.0308 -0.1891
19819SOL    HW266573  10.699   2.796  12.754 -2.3682 -0.0576  2.0676
19820SOL     OW66574   4.555   0.726   9.737  0.1546  0.2414 -0.2384
19820SOL    HW166575   4.563   0.672   9.816  0.7809  0.9554  0.1980
19820SOL    HW266576   4.644   0.730   9.703  0.0542  0.7445 -0.4420
19821SOL     OW66577   8.742  10.175   1.816  0.3266 -0.0499  0.1061
19821SOL    HW166578   8.801  10.111   1.776  1.5318 -0.5287  2.4533
19821SOL    HW266579   8.699  10.128   1.887  2.2387  1.9562  2.7954
19822SOL     OW66580   8.711   8.679   9.921 -0.3615 -0.0273 -0.6063
19822SOL    HW166581   8.658   8.754   9.895  1.0479  1.7924  1.3892
19822SOL    HW266582   8.799   8.701   9.891 -0.1926 -1.7187 -1.4531
19823SOL     OW66583   3.727   5.274   3.950  0.1324  0.6541 -0.2216
19823SOL    HW166584   3.785   5.199   3.937 -0.8624 -0.5115  1.6670
19823SOL    HW266585   3.639   5.237   3.951 -0.4333  1.9360  0.1682
19824SOL     OW66586   8.259  10.295   0.062  0.0954  0.0336 -0.2224
19824SOL    HW166587   8.195  10.227   0.078 -0.5026  0.4834 -0.6696
19824SOL    HW266588   8.340  10.261   0.099 -0.2947 -0.7319 -0.0607
19825SOL     OW66589   1.881   7.934   8.935 -0.1427  0.1330 -0.6507
19825SOL    HW166590   1.791   7.947   8.965 -0.5979 -0.5887 -1.6054
19825SOL    HW266591   1.929   8.009   8.968 -0.9216  0.1145  0.5762
19826SOL     OW66592  12.534   1.897   7.877 -0.0683 -0.3485 -0.2927
19826SOL    HW166593  12.442   1.906   7.849  0.1764  0.6633 -0.8148
19826SOL    HW266594  12.575   1.846   7.806  0.2471  1.0662 -1.1667
19827SOL     OW66595   2.507  10.004   9.072 -0.0084  0.2875  0.8348
19827SOL    HW166596   2.427  10.017   9.021 -0.3253 -1.8967  0.7049
19827SOL    HW266597   2.503   9.913   9.101  0.6908  1.1035  3.8759
19828SOL     OW66598   1.104   4.586   7.076 -0.2518 -0.4507  0.1540
19828SOL    HW166599   1.023   4.632   7.099 -1.0728 -1.1391 -1.2140
19828SOL    HW266600   1.123   4.615   6.986  0.1840 -1.4198 -0.0792
19829SOL     OW66601   8.630   6.610   1.430  0.4984  0.3835  0.1381
19829SOL    HW166602   8.688   6.663   1.375 -0.5405  0.3876 -1.0038
19829SOL    HW266603   8.624   6.659   1.512  4.3938 -1.0560  1.4959
19830SOL     OW66604   1.948   6.935   0.502  0.1796  0.0694  0.0144
19830SOL    HW166605   2.017   6.872   0.481  1.1270  0.4678  1.7950
19830SOL    HW266606   1.969   6.968   0.589 -2.5443 -0.1502  0.8652
19831SOL     OW66607  12.286   2.507   6.252 -0.1530  0.0384 -0.3729
19831SOL    HW166608  12.263   2.458   6.331  0.3285  0.3658 -0.0160
19831SOL    HW266609  12.364   2.462   6.217 -0.7116 -0.4586 -0.9991
19832SOL     OW66610  12.224   2.202   2.868  0.4210 -0.0856 -0.0466
19832SOL    HW166611  12.190   2.170   2.951 -1.1820 -2.3615 -1.4683
19832SOL    HW266612  12.147   2.233   2.821  1.1152 -0.0296 -1.1839
19833SOL     OW66613   7.247   0.592   9.233  0.5759  0.6130 -0.4699
19833SOL    HW166614   7.196   0.569   9.156 -2.7516  1.2724  1.3593
19833SOL    HW266615   7.306   0.661   9.204 -0.1195  0.3871 -2.5259
19834SOL     OW66616   8.112   0.097   7.847 -0.7343  0.6732  0.0274
19834SOL    HW166617   8.099   0.159   7.918  1.1887  1.7410 -0.5056
19834SOL    HW266618   8.178   0.036   7.880 -1.1854  0.0544 -0.1829
19835SOL     OW66619   1.420   4.567   9.931 -0.5690  0.2759 -0.1593
19835SOL    HW166620   1.507   4.601   9.949 -0.2062 -0.6728 -0.0515
19835SOL    HW266621   1.366   4.598  10.003 -0.0490 -0.1082  0.4049
19836SOL     OW66622  12.823   5.822   1.467  0.2659 -0.2070 -0.0286
19836SOL    HW166623  12.743   5.771   1.459  0.5771 -0.4894 -1.6550
19836SOL    HW266624  12.870   5.806   1.385  0.7462  2.0491 -0.2521
19837SOL     OW66625   5.922   8.192   3.054  0.2553 -0.5510 -0.3986
19837SOL    HW166626   5.953   8.114   3.101  0.0145 -0.2491  0.2800
19837SOL    HW266627   5.843   8.219   3.102  0.3569  0.1301 -0.6043
19838SOL     OW66628   2.644   6.516   2.604  0.1562  0.0581  0.5936
19838SOL    HW166629   2.621   6.538   2.513 -1.0649  0.1153  0.8892
19838SOL    HW266630   2.739   6.510   2.604  0.1627 -0.2622 -0.7658
19839SOL     OW66631   7.128   4.878   0.809  0.3357  0.4025 -0.0131
19839SOL    HW166632   7.173   4.930   0.875 -0.1767 -0.9517  1.4446
19839SOL    HW266633   7.199   4.832   0.763  0.5638 -1.1264  1.7549
19840SOL     OW66634   2.143   8.599   5.106  0.0785 -0.0547 -0.1676
19840SOL    HW166635   2.201   8.558   5.171 -0.0496  0.3892  0.2371
19840SOL    HW266636   2.110   8.526   5.054  0.9795 -0.3158 -0.3921
19841SOL     OW66637   5.716   9.279  11.878  0.3009 -0.2370  0.4744
19841SOL    HW166638   5.643   9.237  11.925  1.4461 -0.5113  2.1073
19841SOL    HW266639   5.686   9.284  11.787 -1.8598 -0.0857  1.1285
19842SOL     OW66640  12.703   2.519   0.220  0.0960 -0.3057  0.0920
19842SOL    HW166641  12.799   2.513   0.222  0.0447 -1.1014  0.3419
19842SOL    HW266642  12.680   2.508   0.128  0.1676 -1.5566  0.2060
19843SOL     OW66643   9.028   6.164   1.562 -0.0722 -0.3376  0.0522
19843SOL    HW166644   9.087   6.177   1.636 -0.1215  0.3273 -0.0258
19843SOL    HW266645   9.084   6.176   1.485  0.0428 -1.3037 -0.0285
19844SOL     OW66646  11.490   9.777   8.547  0.5445  0.2148 -0.1522
19844SOL    HW166647  11.560   9.731   8.502  2.4205 -0.7526  3.3791
19844SOL    HW266648  11.443   9.709   8.595  0.0668  1.3568  1.0726
19845SOL     OW66649   4.356   4.988  12.127  0.1265  0.6134  0.4429
19845SOL    HW166650   4.434   5.020  12.171 -0.3471 -0.8480  2.4430
19845SOL    HW266651   4.290   4.980  12.196 -0.1568 -3.3938 -0.0360
19846SOL     OW66652   8.363   1.280   0.429  0.0325 -0.8506  0.1923
19846SOL    HW166653   8.427   1.312   0.365 -0.4081  0.2565  0.2862
19846SOL    HW266654   8.317   1.358   0.458 -0.5616 -1.4890  1.0147
19847SOL     OW66655   9.103   9.757   8.334 -0.5091  0.0295 -0.2021
19847SOL    HW166656   9.115   9.800   8.249 -1.0092  0.7864  0.0997
19847SOL    HW266657   9.183   9.776   8.383 -0.6895  0.5523 -0.1033
19848SOL     OW66658  10.738   0.526   0.825 -0.0048  0.2928  0.1273
19848SOL    HW166659  10.818   0.559   0.785  0.0649 -1.2363 -1.1123
19848SOL    HW266660  10.715   0.449   0.772 -1.4028 -0.2431  1.4397
19849SOL     OW66661   9.906   5.930  12.203 -0.0281 -0.1383  0.2780
19849SOL    HW166662   9.932   5.984  12.278  1.0064  1.3588 -1.1064
19849SOL    HW266663   9.814   5.951  12.189  0.4660  1.6351 -0.4899
19850SOL     OW66664   6.680   2.277   7.576  0.0240  0.4359  0.1395
19850SOL    HW166665   6.645   2.222   7.646 -0.2081  2.0852  1.3885
19850SOL    HW266666   6.743   2.335   7.620 -0.1147  1.5120 -1.0030
19851SOL     OW66667   6.420  11.937  12.255 -0.5055 -0.3136  0.1449
19851SOL    HW166668   6.440  11.957  12.164  0.4197  0.9987  0.6037
19851SOL    HW266669   6.504  11.910  12.292 -0.4837  0.9194  1.0378
19852SOL     OW66670   7.778  10.670   0.488 -0.3495  0.0925 -0.3859
19852SOL    HW166671   7.744  10.727   0.557  1.6590  1.8513 -0.7607
19852SOL    HW266672   7.787  10.585   0.531 -0.6524  0.7476  1.0627
19853SOL     OW66673   9.949   5.350   6.691 -0.2539 -0.7580 -0.0462
19853SOL    HW166674  10.004   5.319   6.763  1.2231 -0.5728 -1.0651
19853SOL    HW266675   9.950   5.445   6.699 -0.3874 -0.7495 -0.1124
19854SOL     OW66676   8.281   9.848   8.958  0.1796 -0.3245  1.0818
19854SOL    HW166677   8.232   9.927   8.933 -0.5471 -0.5230  1.8275
19854SOL    HW266678   8.272   9.789   8.883  2.3240  0.9756 -0.2972
19855SOL     OW66679  11.993   6.771   2.416 -0.0502  0.1576 -0.0996
19855SOL    HW166680  11.931   6.845   2.412 -1.0475 -0.6843 -1.3062
19855SOL    HW266681  11.995   6.738   2.326  0.6574 -1.0586  0.3481
19856SOL     OW66682   1.680  11.070  12.911 -0.0231  0.1138  0.3879
19856SOL    HW166683   1.633  11.150  12.936  1.3860  0.6949  1.2747
19856SOL    HW266684   1.721  11.040  12.992  0.8581 -0.5673 -0.2933
19857SOL     OW66685   2.815  10.783   2.531  0.0409 -0.0890  0.1090
19857SOL    HW166686   2.871  10.765   2.455  1.6425  0.5545  1.0919
19857SOL    HW266687   2.765  10.702   2.543 -0.0803 -0.2817 -1.4825
19858SOL     OW66688   4.015   2.422  10.616  0.1433  0.1537 -0.1566
19858SOL    HW166689   4.093   2.372  10.641 -0.7687 -1.1548  0.1568
19858SOL    HW266690   3.978   2.451  10.700  0.1018  0.4871 -0.2882
19859SOL     OW66691  10.721   8.332   8.930 -0.0098  0.0270  0.1262
19859SOL    HW166692  10.698   8.274   9.002 -0.6217 -1.2966 -1.0979
19859SOL    HW266693  10.658   8.404   8.936  0.2772  0.2163  1.1951
19860SOL     OW66694  12.658   1.343   0.864 -0.5161  0.3787  0.0528
19860SOL    HW166695  12.611   1.393   0.797 -1.0922  0.3845  0.4463
19860SOL    HW266696  12.604   1.265   0.877 -0.9031  0.8029  1.1381
19861SOL     OW66697   6.710   0.518   4.721 -0.3183  0.0446 -0.1979
19861SOL    HW166698   6.718   0.601   4.767  0.0870  1.0208 -1.9371
19861SOL    HW266699   6.658   0.463   4.780 -0.3440  1.4108  1.1223
19862SOL     OW66700  12.841  11.945   1.862 -0.6964  0.2971  0.7198
19862SOL    HW166701  12.891  12.009   1.913 -1.2658  1.0040  0.4013
19862SOL    HW266702  12.837  11.983   1.774  0.0333 -0.7760  0.2050
19863SOL     OW66703   4.839   2.935   2.618  0.6381  0.4975  0.2252
19863SOL    HW166704   4.789   3.015   2.600 -0.1291 -0.3901 -1.7638
19863SOL    HW266705   4.780   2.864   2.595  2.1485 -0.6096 -0.3507
19864SOL     OW66706   5.600  10.830   4.810 -0.1756  0.6723 -0.2301
19864SOL    HW166707   5.655  10.905   4.789 -0.7691  0.9338 -0.8791
19864SOL    HW266708   5.597  10.829   4.906  1.6059  0.1545 -0.1381
19865SOL     OW66709   1.932   0.776   9.385 -0.0484  0.7102 -0.0874
19865SOL    HW166710   1.928   0.717   9.461 -2.0411  1.0602  0.1139
19865SOL    HW266711   1.853   0.756   9.335  0.4434  1.6027 -1.2475
19866SOL     OW66712   8.208   4.768   7.821 -0.2793 -0.8084  0.6589
19866SOL    HW166713   8.129   4.766   7.876  0.8235 -0.8810  2.3182
19866SOL    HW266714   8.277   4.732   7.877  0.7270 -1.8359 -1.1332
19867SOL     OW66715   8.674   0.292  10.820  0.0031 -0.2814 -0.3480
19867SOL    HW166716   8.740   0.226  10.801 -0.3646 -0.9997  0.7790
19867SOL    HW266717   8.630   0.307  10.736 -1.0444 -2.7485 -0.3133
19868SOL     OW66718   4.527   1.188   9.505 -0.6122  0.5121  0.0167
19868SOL    HW166719   4.564   1.253   9.445 -1.8775  1.6367  0.4004
19868SOL    HW266720   4.469   1.135   9.451  2.3212 -2.1177 -0.8852
19869SOL     OW66721   3.954   4.775   2.842 -0.0021 -0.3352 -0.0019
19869SOL    HW166722   3.959   4.682   2.822 -0.3025 -0.2754 -0.3827
19869SOL    HW266723   3.928   4.779   2.934 -1.8977 -0.6502 -0.4656
19870SOL     OW66724   6.865   3.452   9.719 -0.4623 -0.7885 -0.2590
19870SOL    HW166725   6.803   3.428   9.650 -0.2791 -0.4799 -0.5384
19870SOL    HW266726   6.886   3.544   9.700 -0.5868 -0.6291  0.3443
19871SOL     OW66727   1.510   6.233   3.139 -0.2631 -0.1379 -0.8296
19871SOL    HW166728   1.523   6.314   3.091 -0.2265 -0.2292 -0.9762
19871SOL    HW266729   1.580   6.175   3.108 -0.1916 -0.1712 -0.6077
19872SOL     OW66730   1.683   0.926  10.631  0.1045 -0.0102 -0.7772
19872SOL    HW166731   1.707   1.012  10.599  1.8706 -0.5843 -1.1025
19872SOL    HW266732   1.755   0.869  10.604  0.1613 -1.1271  1.4883
19873SOL     OW66733   7.841   4.357   9.651 -0.0544 -0.0028 -0.5259
19873SOL    HW166734   7.766   4.358   9.590  0.8422  0.7062 -1.6631
19873SOL    HW266735   7.864   4.265   9.659 -0.5939 -0.1634 -0.7426
19874SOL     OW66736  11.162   1.009   0.752 -0.4912 -0.1957  0.1209
19874SOL    HW166737  11.076   1.051   0.762 -1.3670 -2.0629  0.9829
19874SOL    HW266738  11.206   1.027   0.836 -0.6356 -0.5009  0.2626
19875SOL     OW66739  11.309   8.466   8.707  0.5144  0.3909  0.1480
19875SOL    HW166740  11.226   8.489   8.665  0.7325  1.1863  0.1542
19875SOL    HW266741  11.311   8.370   8.703  1.1421  0.4511 -2.8666
19876SOL     OW66742   0.558   3.262   1.436  0.5984 -0.1765 -0.5823
19876SOL    HW166743   0.572   3.225   1.349 -0.3809  0.7831 -1.1759
19876SOL    HW266744   0.471   3.302   1.431  0.6922  0.2275  0.7194
19877SOL     OW66745   3.775   2.303   4.712  0.3187  0.2540  0.1992
19877SOL    HW166746   3.821   2.340   4.787 -0.9999  0.0260  1.1582
19877SOL    HW266747   3.838   2.242   4.673  1.0723  0.4716  1.0435
19878SOL     OW66748   8.791   6.962  12.263 -0.0072 -0.1800 -0.4063
19878SOL    HW166749   8.875   6.918  12.277  0.4297 -0.0184 -2.1839
19878SOL    HW266750   8.731   6.920  12.324  0.3863 -3.2507 -1.9301
19879SOL     OW66751  11.666   3.989   4.952  0.7112 -0.0510 -0.1634
19879SOL    HW166752  11.668   4.020   4.861 -0.9662  0.5166 -0.0541
19879SOL    HW266753  11.649   4.067   5.004  0.6011 -0.5306  0.5348
19880SOL     OW66754   0.836   9.157   6.585 -0.0414  0.3538  0.2469
19880SOL    HW166755   0.791   9.077   6.612 -0.3364  0.1851 -0.7329
19880SOL    HW266756   0.917   9.157   6.637 -0.4651 -0.0931  0.9293
19881SOL     OW66757   5.579  12.436   6.893 -0.3753 -0.0555 -0.3896
19881SOL    HW166758   5.643  12.490   6.845 -1.2773  1.1387 -0.2925
19881SOL    HW266759   5.633  12.381   6.949  0.6441 -0.2495 -1.4920
19882SOL     OW66760  10.242  10.378  10.175  0.6106  0.2148  0.1860
19882SOL    HW166761  10.154  10.366  10.210 -0.8144  3.0974 -1.9061
19882SOL    HW266762  10.236  10.347  10.084  0.9618  2.5026 -0.7025
19883SOL     OW66763  10.988   5.448   4.241 -0.3021 -0.1953  0.3988
19883SOL    HW166764  10.896   5.467   4.224 -0.6879 -2.3604 -0.3198
19883SOL    HW266765  11.021   5.413   4.158  0.6941 -1.0217  1.1020
19884SOL     OW66766   5.775   1.614   7.846  0.2503 -0.2038  0.3914
19884SOL    HW166767   5.857   1.649   7.879  0.3236  0.6302 -0.6344
19884SOL    HW266768   5.708   1.654   7.901  0.4276  0.4637  0.1323
19885SOL     OW66769   5.371   4.863   2.714 -0.3268 -0.2659  0.4714
19885SOL    HW166770   5.464   4.880   2.696 -0.6754  0.7511 -0.4674
19885SOL    HW266771   5.353   4.908   2.796 -0.0164 -0.4142  0.6234
19886SOL     OW66772  10.959   1.396   7.564 -0.2303  0.0009 -0.1553
19886SOL    HW166773  10.903   1.473   7.551  1.0449  0.9457 -0.2762
19886SOL    HW266774  11.034   1.430   7.614  0.3369 -1.1792 -0.1863
19887SOL     OW66775   1.550   0.958   3.897 -0.2215  0.0547 -0.1076
19887SOL    HW166776   1.504   0.915   3.825 -2.2434  1.5224  0.2274
19887SOL    HW266777   1.497   0.938   3.974 -0.8954  2.5088  0.1566
19888SOL     OW66778  12.393   9.926   3.655  0.2030 -0.0578  0.3577
19888SOL    HW166779  12.405   9.896   3.745 -0.7699  0.2517  0.5950
19888SOL    HW266780  12.459   9.877   3.605  0.1642 -0.8944  1.0990
19889SOL     OW66781  12.906   1.364   1.768  0.3820 -0.1837 -0.1526
19889SOL    HW166782  12.942   1.390   1.684 -2.4212  2.7411 -0.6500
19889SOL    HW266783  12.977   1.378   1.831  2.4260 -2.1236 -1.8496
19890SOL     OW66784   2.663   7.349  12.893  0.1215  0.2001  0.1053
19890SOL    HW166785   2.709   7.346  12.977 -0.9653 -0.0851  0.7138
19890SOL    HW266786   2.732   7.348  12.828  1.0585  1.9034  1.0020
19891SOL     OW66787  12.136   7.342  12.962  0.0806  0.4591  0.0327
19891SOL    HW166788  12.113   7.264  13.012  2.4863  0.3670  1.1226
19891SOL    HW266789  12.120   7.317  12.871 -0.3957 -0.8465  0.4474
19892SOL     OW66790   8.974  11.666   3.276 -0.0461 -0.2152 -0.1916
19892SOL    HW166791   8.964  11.713   3.358 -0.4730 -1.9521  0.8097
19892SOL    HW266792   8.885  11.637   3.253  0.1957 -0.5499 -0.7500
19893SOL     OW66793   1.889   8.078   9.237 -0.1871 -0.1353 -0.1022
19893SOL    HW166794   1.959   8.013   9.234 -2.3040 -2.5370 -2.1641
19893SOL    HW266795   1.926   8.156   9.195  1.1603 -1.4164 -1.3999
19894SOL     OW66796  11.124   9.687   5.460 -0.1263  0.4218  0.4826
19894SOL    HW166797  11.198   9.670   5.403 -1.9533 -0.8115 -1.7025
19894SOL    HW266798  11.138   9.631   5.536  1.9148  1.4043  0.8825
19895SOL     OW66799  11.617   0.831   0.570  0.2211 -0.8712 -0.2305
19895SOL    HW166800  11.586   0.921   0.575  1.1840 -0.5059 -0.5387
19895SOL    HW266801  11.587   0.799   0.485 -2.8715 -1.9460  1.1218
19896SOL     OW66802   1.861   4.720   4.315  0.2330 -0.1259 -0.1190
19896SOL    HW166803   1.947   4.729   4.272  1.3424 -0.9438  1.8276
19896SOL    HW266804   1.818   4.804   4.297  2.6577  1.5969  1.3277
19897SOL     OW66805   8.270  10.999  11.787  0.0234 -0.4336  0.2230
19897SOL    HW166806   8.208  10.944  11.835 -0.4013  0.5781  0.8827
19897SOL    HW266807   8.222  11.081  11.772  0.5847 -0.2913 -0.8638
19898SOL     OW66808   9.895   9.289   7.585  0.2662 -0.0049 -0.1086
19898SOL    HW166809   9.923   9.268   7.495  3.8532  1.9143  0.3469
19898SOL    HW266810   9.913   9.209   7.634  1.7508  0.0179 -0.5433
19899SOL     OW66811  10.145   3.496  11.290 -0.0730  0.1969  0.2303
19899SOL    HW166812  10.215   3.479  11.353  0.1717  1.3962  0.3049
19899SOL    HW266813  10.141   3.416  11.237  1.2303  0.0381  0.3310
19900SOL     OW66814  11.461   4.395   0.447 -0.2834 -0.2068  0.1535
19900SOL    HW166815  11.522   4.368   0.378  0.9646  0.0958  1.0851
19900SOL    HW266816  11.497   4.478   0.478  0.2205 -1.1816  2.3405
19901SOL     OW66817   5.653   5.650  11.761  0.0239 -0.4336 -0.0277
19901SOL    HW166818   5.668   5.735  11.803  2.6949 -0.3075 -1.0595
19901SOL    HW266819   5.702   5.588  11.814  1.6284 -0.6153 -1.6335
19902SOL     OW66820   0.716   1.235   8.803  0.6686 -0.3571 -0.0927
19902SOL    HW166821   0.687   1.301   8.739 -0.0073 -2.1749 -1.7358
19902SOL    HW266822   0.653   1.243   8.875 -1.1153 -1.0283 -1.5050
19903SOL     OW66823   5.484  12.657   4.396  0.0748  0.3160 -0.1173
19903SOL    HW166824   5.555  12.606   4.357  0.5208  0.0744  0.9895
19903SOL    HW266825   5.446  12.705   4.322  2.7082  2.0561 -0.4679
19904SOL     OW66826   3.481   3.270   4.086 -0.1646  0.0671  0.4002
19904SOL    HW166827   3.556   3.253   4.143 -1.1718  1.3359  2.2026
19904SOL    HW266828   3.473   3.365   4.083 -1.6848 -0.0328  0.2345
19905SOL     OW66829  10.217   2.133   4.974  0.3947  0.3999  0.3913
19905SOL    HW166830  10.281   2.173   4.914  1.9505 -1.0682  0.9856
19905SOL    HW266831  10.135   2.179   4.956  0.5876 -0.4062 -3.3529
19906SOL     OW66832   4.965   6.417   0.343 -0.4348 -0.7145 -0.2806
19906SOL    HW166833   4.886   6.447   0.389 -0.7084 -0.9284 -0.6018
19906SOL    HW266834   5.035   6.472   0.376 -0.8087 -0.1906 -0.3573
19907SOL     OW66835   4.612   1.139   2.176  0.4480 -0.5108  0.1506
19907SOL    HW166836   4.703   1.168   2.170  0.9474 -1.9737  0.0437
19907SOL    HW266837   4.615   1.047   2.147 -1.5879  0.2794 -3.1278
19908SOL     OW66838   9.978   1.453  10.075 -0.4601 -0.1324  0.0731
19908SOL    HW166839   9.998   1.367  10.038 -0.6185  1.0205 -2.9124
19908SOL    HW266840   9.886   1.447  10.100 -0.5850 -0.7194 -0.5013
19909SOL     OW66841   4.494   4.022   3.239  0.1563  0.5272  0.2408
19909SOL    HW166842   4.453   4.061   3.161 -2.2376 -0.2444  1.0335
19909SOL    HW266843   4.567   3.972   3.204 -0.8264  0.2303 -1.5537
19910SOL     OW66844   7.205  12.554   1.527  0.0711  0.0930  0.0262
19910SOL    HW166845   7.268  12.618   1.558  1.1941 -0.0024 -1.8841
19910SOL    HW266846   7.240  12.470   1.556  0.7319  0.0631 -0.8039
19911SOL     OW66847   1.936   3.471   6.416 -0.3275  0.0657 -0.5744
19911SOL    HW166848   1.907   3.468   6.508 -1.4395  1.1419 -0.8598
19911SOL    HW266849   2.019   3.423   6.416 -0.5066 -0.3198  0.9134
19912SOL     OW66850   8.000   8.425   1.230  0.1315  0.2718 -0.0442
19912SOL    HW166851   8.042   8.341   1.214 -0.7748 -0.3475  0.7129
19912SOL    HW266852   8.060   8.470   1.290  0.2920 -0.1189  0.0944
19913SOL     OW66853  11.804   1.823   1.633  0.0784  0.9632  0.3021
19913SOL    HW166854  11.813   1.914   1.662 -0.2872  1.0718  0.0776
19913SOL    HW266855  11.864   1.774   1.690  3.1230  1.7811 -1.9129
19914SOL     OW66856   7.251  12.529   7.975 -0.2789 -0.1877  0.1448
19914SOL    HW166857   7.289  12.443   7.961 -1.4755 -0.6288 -0.5720
19914SOL    HW266858   7.218  12.527   8.065  1.5789  0.3068  0.8826
19915SOL     OW66859   3.658   7.935   9.279 -0.2426 -0.4357  0.4783
19915SOL    HW166860   3.745   7.970   9.301  0.1914 -1.2447  0.1063
19915SOL    HW266861   3.654   7.941   9.183 -0.9302  0.3303  0.5430
19916SOL     OW66862  12.020  11.684   2.147  0.2780  0.1598  0.4527
19916SOL    HW166863  12.016  11.738   2.067 -1.7186  0.5446  0.7604
19916SOL    HW266864  12.023  11.748   2.218 -1.1795 -0.1103  0.7837
19917SOL     OW66865   7.902   7.829   3.241 -0.1255 -0.2684 -0.4430
19917SOL    HW166866   7.837   7.783   3.295 -0.2830  0.8076  0.3168
19917SOL    HW266867   7.912   7.773   3.164  1.4539 -2.8510  1.4661
19918SOL     OW66868  10.831   6.795  10.028  0.0912  0.3423  0.2386
19918SOL    HW166869  10.764   6.858  10.001  0.9062  0.7518 -0.9060
19918SOL    HW266870  10.800   6.711   9.996 -2.1522 -0.3601  3.7259
19919SOL     OW66871   2.502   8.579   8.454 -0.1641 -0.3252 -0.3288
19919SOL    HW166872   2.480   8.660   8.407 -1.2301 -0.8712 -0.7995
19919SOL    HW266873   2.583   8.600   8.500  0.8317  0.3085 -2.2468
19920SOL     OW66874   1.462   4.167   5.493 -0.4971 -0.1647  0.2752
19920SOL    HW166875   1.553   4.142   5.480  0.0087  0.8072  1.6443
19920SOL    HW266876   1.439   4.217   5.415  1.3345  2.6664  1.3732
19921SOL     OW66877   4.051   9.898  11.993  0.0979 -0.5898  0.5222
19921SOL    HW166878   3.964   9.929  12.019 -0.7805 -2.0294 -0.6192
19921SOL    HW266879   4.079   9.959  11.925 -0.4681 -0.7292  0.1629
19922SOL     OW66880   2.338   6.434   9.910  0.0015  0.4618  0.0876
19922SOL    HW166881   2.321   6.345   9.879  0.5133  0.8229 -1.3271
19922SOL    HW266882   2.253   6.464   9.943 -0.4716 -0.1306 -0.5594
19923SOL     OW66883   4.405   3.918   0.668 -0.0154  0.2576 -0.8168
19923SOL    HW166884   4.431   3.854   0.602  0.7505 -0.1359 -0.1467
19923SOL    HW266885   4.343   3.976   0.622  2.0448  1.2474 -2.5090
19924SOL     OW66886   0.712   9.490  10.579 -0.4825  0.1153  0.2029
19924SOL    HW166887   0.656   9.549  10.529  0.1005  0.5761  0.0795
19924SOL    HW266888   0.799   9.531  10.576 -0.3470 -0.0667  1.2349
19925SOL     OW66889   4.749  12.301   5.332  0.2572  0.2181 -0.2742
19925SOL    HW166890   4.839  12.305   5.365  0.2083  0.5311 -0.1741
19925SOL    HW266891   4.743  12.216   5.287  0.1001 -0.5902  1.2028
19926SOL     OW66892   9.347   6.875   9.928  0.3092  0.3781  0.4070
19926SOL    HW166893   9.438   6.896   9.907  0.2870 -0.0352 -0.1438
19926SOL    HW266894   9.347   6.779   9.938  0.0615  0.4435  1.0436
19927SOL     OW66895   4.240   0.325   2.521  0.3578 -0.0195  0.1505
19927SOL    HW166896   4.235   0.295   2.430 -0.3206  1.3500 -0.2852
19927SOL    HW266897   4.150   0.340   2.547  0.5536 -0.2899  1.0274
19928SOL     OW66898   0.333   0.666  11.264 -0.1862 -0.1590 -0.8273
19928SOL    HW166899   0.298   0.666  11.353  0.5531 -0.1154 -0.5274
19928SOL    HW266900   0.402   0.600  11.265 -0.9334 -0.9744 -1.6889
19929SOL     OW66901  12.025   0.506  11.505 -0.1541  0.0152 -0.0540
19929SOL    HW166902  11.963   0.439  11.533  0.9010 -1.1218 -0.3392
19929SOL    HW266903  12.021   0.574  11.572 -0.3253 -0.9367  0.9070
19930SOL     OW66904   1.785   0.115  10.293 -0.1718 -0.0270  0.1518
19930SOL    HW166905   1.730   0.116  10.371 -0.9098  1.4637 -0.3531
19930SOL    HW266906   1.823   0.203  10.289  0.9026 -0.4939 -0.4576
19931SOL     OW66907   8.917  11.969  10.143 -0.3421 -0.5531 -0.6318
19931SOL    HW166908   8.873  11.965  10.058  0.5911  0.1137 -1.1742
19931SOL    HW266909   8.965  11.887  10.149 -0.2180 -0.5016 -0.8740
19932SOL     OW66910   5.037   7.630  12.015  0.1393  0.0511  0.1976
19932SOL    HW166911   4.943   7.614  12.001  0.2288 -2.9899  2.2513
19932SOL    HW266912   5.079   7.592  11.938 -0.2156 -0.1999  0.1245
19933SOL     OW66913   8.560   1.227   7.811  0.1732 -0.2691 -0.0574
19933SOL    HW166914   8.645   1.185   7.824 -0.5401 -1.7119  0.1930
19933SOL    HW266915   8.547   1.225   7.716 -0.5760 -2.2342  0.0270
19934SOL     OW66916  12.913   6.146   9.801  0.4606 -0.0432 -0.3368
19934SOL    HW166917  12.832   6.103   9.774  0.7661 -0.2850 -0.8741
19934SOL    HW266918  12.964   6.077   9.842  0.4197  0.0994 -0.0435
19935SOL     OW66919   5.188   0.675   9.591  0.5925  0.2779 -0.0633
19935SOL    HW166920   5.121   0.698   9.526 -1.1388 -1.6369  0.9166
19935SOL    HW266921   5.188   0.747   9.653  0.3104  0.8524 -0.7190
19936SOL     OW66922   4.519   2.739  12.788 -0.2608 -0.0669  0.3861
19936SOL    HW166923   4.486   2.661  12.832 -1.7062 -0.5076 -1.3731
19936SOL    HW266924   4.599   2.709  12.744 -0.3448 -0.3323  0.4101
19937SOL     OW66925   3.133  12.342  11.533  0.4863  0.1163 -0.4468
19937SOL    HW166926   3.210  12.399  11.526 -0.6611  1.8863  0.4128
19937SOL    HW266927   3.061  12.395  11.497 -0.8194 -0.3720  1.3109
19938SOL     OW66928   3.108  12.360   9.111 -0.9206 -0.3114  0.0568
19938SOL    HW166929   3.142  12.394   9.028 -0.7758  0.8635  0.5751
19938SOL    HW266930   3.016  12.341   9.094 -0.6681 -1.0072 -0.6286
19939SOL     OW66931   8.018   5.945  12.250 -0.4389  0.6658  0.0958
19939SOL    HW166932   8.089   5.963  12.312 -0.4399 -1.8733  0.9519
19939SOL    HW266933   8.028   6.012  12.182  1.3710  1.7519  1.3372
19940SOL     OW66934   7.746   9.005   2.558  0.3673  0.2540  0.5335
19940SOL    HW166935   7.652   8.993   2.570  0.4398 -0.1049  0.7707
19940SOL    HW266936   7.783   8.918   2.575  0.7070  0.3100  0.0836
19941SOL     OW66937  11.581  12.143   0.176  0.4533 -0.5702 -0.0454
19941SOL    HW166938  11.513  12.091   0.219 -0.2624  0.5684  0.2630
19941SOL    HW266939  11.647  12.157   0.244 -0.2629  0.4922  0.4710
19942SOL     OW66940   9.820   8.004   2.576 -0.0005  0.0343  0.1016
19942SOL    HW166941   9.850   8.084   2.619 -0.7875 -0.6654  2.0512
19942SOL    HW266942   9.785   8.033   2.492  1.7472  1.4401 -0.1920
19943SOL     OW66943   7.437   8.130   2.917 -0.0464  0.7659 -0.8467
19943SOL    HW166944   7.407   8.186   2.989  0.7796  0.3804 -0.1812
19943SOL    HW266945   7.480   8.191   2.856  0.6342  0.9072 -0.2423
19944SOL     OW66946   3.160   0.441   0.302 -0.0037 -0.3099 -0.5660
19944SOL    HW166947   3.117   0.377   0.245 -0.5265  0.7340 -1.3918
19944SOL    HW266948   3.088   0.491   0.340  0.4194  1.9536 -2.5398
19945SOL     OW66949   8.826   9.374   2.470  0.7622  0.5688 -0.0089
19945SOL    HW166950   8.887   9.390   2.399  0.7495 -2.2714 -0.7436
19945SOL    HW266951   8.745   9.419   2.443  1.2256  0.7943 -1.0414
19946SOL     OW66952   9.397   3.795   9.706  0.3349 -0.0244 -0.4243
19946SOL    HW166953   9.370   3.714   9.750  0.3378  0.0705 -0.2474
19946SOL    HW266954   9.317   3.826   9.664  0.7184 -1.0700 -2.0261
19947SOL     OW66955   8.632   7.465   3.217  0.2591  0.0594  0.4348
19947SOL    HW166956   8.613   7.473   3.311 -0.9322 -1.9291  0.4232
19947SOL    HW266957   8.555   7.500   3.174 -0.2617 -1.2555  0.2620
19948SOL     OW66958   1.154   1.436   7.409  0.0727  0.1494 -0.0420
19948SOL    HW166959   1.077   1.450   7.353 -0.7524 -0.3590  0.9287
19948SOL    HW266960   1.197   1.359   7.372 -0.6365 -0.3658  0.1769
19949SOL     OW66961   4.188   0.951   8.845  0.3334 -0.0191  0.7216
19949SOL    HW166962   4.107   0.916   8.883  0.7378 -1.1194  0.5860
19949SOL    HW266963   4.162   0.982   8.758  0.2673 -1.3835  0.2385
19950SOL     OW66964   3.252   3.654   2.261 -0.3271 -0.1324 -0.2795
19950SOL    HW166965   3.252   3.729   2.202 -0.2712 -0.3207 -0.5210
19950SOL    HW266966   3.160   3.639   2.281 -0.2586  1.0981  1.1898
19951SOL     OW66967   4.836  11.840   1.246  0.7325  0.2686 -0.3343
19951SOL    HW166968   4.771  11.802   1.305 -0.7608  2.6266 -0.3416
19951SOL    HW266969   4.799  11.924   1.219  3.1259  1.0406 -1.5599
19952SOL     OW66970   3.169   7.403   6.887 -0.4499  0.3683 -0.2302
19952SOL    HW166971   3.225   7.329   6.861  0.3348 -0.2091  2.7415
19952SOL    HW266972   3.191   7.472   6.825 -1.1202 -1.7507 -3.0679
19953SOL     OW66973   3.018   0.021   3.774  0.3369 -0.5771  0.0417
19953SOL    HW166974   2.983  -0.044   3.835  0.2188 -0.7419 -0.1955
19953SOL    HW266975   2.997  -0.015   3.687 -0.0118 -0.0624 -0.0892
19954SOL     OW66976   5.859   4.560  11.894 -0.4071  0.2217  0.1812
19954SOL    HW166977   5.860   4.477  11.941  1.5726 -0.2606 -0.6027
19954SOL    HW266978   5.822   4.623  11.956 -1.2449 -1.0788  1.0410
19955SOL     OW66979  10.552  10.251  12.336  0.0775  0.4967  0.5599
19955SOL    HW166980  10.584  10.182  12.278  0.2758 -1.1849  2.5513
19955SOL    HW266981  10.624  10.266  12.397 -0.7585  0.9220  1.4751
19956SOL     OW66982   2.162   5.026  12.456 -0.1279 -0.0910  0.1104
19956SOL    HW166983   2.150   4.985  12.371 -0.2679 -1.9121  0.9643
19956SOL    HW266984   2.120   5.112  12.448 -1.4959 -0.8459 -1.1662
19957SOL     OW66985   7.883   2.833   4.826  0.0450 -0.3250 -0.0260
19957SOL    HW166986   7.812   2.874   4.776  0.2739 -0.9363 -0.8788
19957SOL    HW266987   7.864   2.855   4.917 -0.7904  0.2043 -0.3162
19958SOL     OW66988   5.553   7.970   9.903 -0.1993  0.0696  0.2453
19958SOL    HW166989   5.613   8.045   9.895  0.0425 -0.2443 -0.9645
19958SOL    HW266990   5.500   7.972   9.824  0.5053 -1.6373 -0.3114
19959SOL     OW66991   7.868  11.497   6.932  0.3185  0.0570 -0.5506
19959SOL    HW166992   7.883  11.591   6.940  1.1149 -0.0185 -0.9709
19959SOL    HW266993   7.908  11.474   6.848 -0.8027 -0.4788 -0.9661
19960SOL     OW66994   9.964   4.149  12.395  0.1282 -0.0965 -0.2948
19960SOL    HW166995  10.026   4.203  12.346 -0.6814  1.1191 -0.0248
19960SOL    HW266996   9.882   4.199  12.393 -0.2244 -0.5500  1.3264
19961SOL     OW66997   0.580   3.377   6.831 -0.1877  0.0303  0.4036
19961SOL    HW166998   0.549   3.437   6.900 -0.4561 -0.1725  0.4605
19961SOL    HW266999   0.615   3.302   6.879 -0.6253 -0.2325  0.3154
19962SOL     OW67000   4.008   5.741   9.474  0.1180 -0.0750 -0.2121
19962SOL    HW167001   4.099   5.760   9.455  0.7288 -2.9985 -0.7114
19962SOL    HW267002   4.011   5.660   9.526 -2.1404  0.4098  0.7927
19963SOL     OW67003   2.613  10.372   8.607  0.2588  0.1435  0.3386
19963SOL    HW167004   2.584  10.461   8.625  3.1486  1.2356  0.1584
19963SOL    HW267005   2.660  10.379   8.524  2.9151 -0.8823  1.6305
19964SOL     OW67006   0.825   7.540  10.919 -0.0189  0.3460 -0.1737
19964SOL    HW167007   0.889   7.482  10.878  0.3061  0.0340  0.7596
19964SOL    HW267008   0.872   7.581  10.991 -0.3933  1.3928 -0.5049
19965SOL     OW67009   3.197   7.383   1.924  0.1455 -0.3371 -0.1278
19965SOL    HW167010   3.111   7.343   1.922  0.9398 -2.1375  0.1223
19965SOL    HW267011   3.204   7.421   2.011 -0.0483 -0.9805  0.1720
19966SOL     OW67012   7.512   0.148  11.324 -0.1767 -0.3442  0.4307
19966SOL    HW167013   7.559   0.165  11.243  0.5528 -0.1398  0.8887
19966SOL    HW267014   7.433   0.100  11.297 -0.7855  1.1478 -0.5865
19967SOL     OW67015   3.158   7.027   0.643  0.1833 -0.4535 -0.4818
19967SOL    HW167016   3.199   6.964   0.702  0.3102 -0.6274 -0.7569
19967SOL    HW267017   3.071   6.990   0.625  0.7450 -1.2353 -1.7090
19968SOL     OW67018   7.885   8.142   1.913 -0.0365  0.1949  0.1979
19968SOL    HW167019   7.799   8.183   1.924 -0.2584 -0.0411 -0.5469
19968SOL    HW267020   7.881   8.063   1.967 -0.9722 -0.7802 -1.2185
19969SOL     OW67021  12.044  10.197   9.367  0.6830 -0.0823  0.4888
19969SOL    HW167022  12.061  10.103   9.375  0.7363 -0.0669  0.5611
19969SOL    HW267023  12.129  10.236   9.348  0.4354 -0.1992 -0.9618
19970SOL     OW67024   6.311   3.730  10.419  0.2130 -0.3703 -0.2164
19970SOL    HW167025   6.368   3.795  10.377 -0.9509  1.0111  0.2652
19970SOL    HW267026   6.258   3.781  10.480  0.8499 -2.1112  1.9129
19971SOL     OW67027   2.756  11.944  10.860 -0.2431  0.0521  0.2085
19971SOL    HW167028   2.805  11.957  10.941 -0.3846 -1.9035  0.6601
19971SOL    HW267029   2.719  11.856  10.868 -0.0556 -0.2980 -2.1018
19972SOL     OW67030  11.619   2.659   9.139  0.3196  0.0942 -0.0643
19972SOL    HW167031  11.696   2.639   9.086 -0.8102  0.5999 -1.9834
19972SOL    HW267032  11.561   2.708   9.080 -3.6289 -4.2659 -0.4435
19973SOL     OW67033  10.917   4.755   2.288 -0.0392  0.0465  0.2750
19973SOL    HW167034  10.879   4.738   2.374  1.6514  0.8142  1.2315
19973SOL    HW267035  11.005   4.718   2.294  0.2193  0.4305 -1.0045
19974SOL     OW67036   4.563   9.204   5.800 -0.0668  0.3111  0.1445
19974SOL    HW167037   4.611   9.229   5.879 -1.3491  1.0311  0.7218
19974SOL    HW267038   4.629   9.161   5.745  0.2736 -2.9140  2.7811
19975SOL     OW67039   8.551   6.408  10.700 -0.8005  0.0389  0.1102
19975SOL    HW167040   8.629   6.375  10.744 -1.1942  0.0456  0.8331
19975SOL    HW267041   8.583   6.443  10.617 -0.0991 -0.3486  0.2093
19976SOL     OW67042   9.684   7.466   2.407 -0.2279  0.0486 -0.1128
19976SOL    HW167043   9.677   7.557   2.377  0.9013  0.4464  0.7469
19976SOL    HW267044   9.748   7.469   2.479  0.2193 -1.5003 -0.3948
19977SOL     OW67045  11.676  10.567   9.919 -0.2060  0.0061 -0.6619
19977SOL    HW167046  11.657  10.569   9.825  0.7491 -0.2646 -0.8685
19977SOL    HW267047  11.762  10.607   9.927 -0.8238  1.1992  0.2609
19978SOL     OW67048   4.800   2.450   1.876 -0.4629  0.0951  0.3788
19978SOL    HW167049   4.747   2.516   1.921 -0.3532 -0.4171  1.2696
19978SOL    HW267050   4.737   2.400   1.824 -0.7158  0.1232  0.6564
19979SOL     OW67051   4.323   3.622   1.218 -0.0721 -0.3199 -0.0365
19979SOL    HW167052   4.264   3.654   1.150  2.0993  0.7070 -1.5387
19979SOL    HW267053   4.368   3.548   1.178  2.3747  1.2680 -0.3793
19980SOL     OW67054  11.199   8.429   4.438 -0.0514  0.4070  0.7764
19980SOL    HW167055  11.147   8.479   4.374 -0.0753 -0.3437  0.1939
19980SOL    HW267056  11.167   8.458   4.523 -1.8187 -0.4219  0.4347
19981SOL     OW67057   9.117   0.021   5.697 -0.1556 -0.2067 -0.0210
19981SOL    HW167058   9.146   0.108   5.724 -0.9202  0.2620 -0.6652
19981SOL    HW267059   9.091  -0.022   5.778 -2.7664  1.2985  0.0547
19982SOL     OW67060   4.599   1.321   0.043 -0.2695  0.2256  0.2389
19982SOL    HW167061   4.580   1.342  -0.048  0.9349 -1.4114 -0.4406
19982SOL    HW267062   4.624   1.228   0.042  0.9013  0.4570  2.0471
19983SOL     OW67063   2.151   4.472   1.566 -0.3647  0.3870 -0.3690
19983SOL    HW167064   2.079   4.441   1.621  0.8441 -0.9296  0.5379
19983SOL    HW267065   2.201   4.393   1.545  0.2568  1.1284 -1.8379
19984SOL     OW67066   9.132   9.278   8.237  0.6676 -0.3364 -1.0497
19984SOL    HW167067   9.189   9.201   8.233 -0.3983 -1.4989  2.5129
19984SOL    HW267068   9.180   9.341   8.290  0.5696  0.5722 -2.0123
19985SOL     OW67069   0.762   3.359  10.131 -0.1892  0.6189  0.4949
19985SOL    HW167070   0.818   3.420  10.179  0.6973 -0.6928  1.1826
19985SOL    HW267071   0.808   3.275  10.136 -1.2932 -0.0816 -0.5669
19986SOL     OW67072   1.774   0.847   3.030  0.4066 -0.1653  0.1168
19986SOL    HW167073   1.765   0.861   3.124 -0.9908  0.4678 -0.0952
19986SOL    HW267074   1.757   0.933   2.991 -3.3389 -1.2272 -0.9390
19987SOL     OW67075   7.457   9.361  10.099  0.1288  0.2650  0.5432
19987SOL    HW167076   7.499   9.388  10.181  2.4406  0.1143 -0.5090
19987SOL    HW267077   7.484   9.427  10.035 -0.9318 -0.0838 -0.3027
19988SOL     OW67078   3.109   9.315   5.212 -0.2061  0.0290  0.1784
19988SOL    HW167079   3.187   9.260   5.202 -0.5712 -0.9112  2.1587
19988SOL    HW267080   3.086   9.339   5.122  1.8496 -0.3711 -0.5201
19989SOL     OW67081   4.166   0.163   9.213  0.4276 -0.1428  0.6190
19989SOL    HW167082   4.102   0.169   9.141  0.9239 -2.9570 -0.1853
19989SOL    HW267083   4.235   0.225   9.188 -0.2608  0.2542 -0.3942
19990SOL     OW67084   2.326   4.527   1.319 -0.2077 -0.0232  0.7353
19990SOL    HW167085   2.277   4.528   1.401  0.1712 -0.9212  0.9837
19990SOL    HW267086   2.347   4.619   1.302 -2.5772  0.4914  0.2447
19991SOL     OW67087   6.550  11.888  12.591  0.0837  0.2853 -0.2166
19991SOL    HW167088   6.527  11.797  12.609  1.3585 -0.1347 -0.5963
19991SOL    HW267089   6.486  11.939  12.640  0.6849 -0.8104  1.8154
19992SOL     OW67090   5.756   6.700   3.783  0.2798  0.1566  0.1464
19992SOL    HW167091   5.734   6.766   3.848  2.9514 -0.4274  1.8132
19992SOL    HW267092   5.822   6.742   3.728  0.0793 -0.2672 -0.4203
19993SOL     OW67093   3.925   4.928   2.445 -0.5076 -0.5560 -0.4190
19993SOL    HW167094   3.897   4.995   2.508 -1.6900 -0.0461 -1.4464
19993SOL    HW267095   4.002   4.888   2.486 -1.1451 -0.1454  1.2772
19994SOL     OW67096  11.321  10.542  10.965  0.0558 -0.0993 -0.1189
19994SOL    HW167097  11.316  10.630  10.928  0.8413 -0.2380 -0.5968
19994SOL    HW267098  11.301  10.553  11.057 -0.3622  0.5047 -0.2743
19995SOL     OW67099   2.645   3.064  11.108 -0.3823 -0.3287 -0.3691
19995SOL    HW167100   2.705   3.098  11.041 -0.8543  0.9485 -0.1867
19995SOL    HW267101   2.691   2.990  11.147  0.5335 -0.1563 -1.0900
19996SOL     OW67102   5.453   2.126   3.948 -0.1911  0.0292 -0.4750
19996SOL    HW167103   5.496   2.199   3.903 -0.1345  1.3699  1.5875
19996SOL    HW267104   5.362   2.129   3.919  0.1525 -0.0958 -1.6027
19997SOL     OW67105   7.309   9.376   6.016  0.6832  0.0511 -0.4601
19997SOL    HW167106   7.394   9.337   6.035  1.1402  0.1892 -2.0907
19997SOL    HW267107   7.330   9.458   5.970 -0.3117 -0.3570 -1.6927
19998SOL     OW67108   4.826   0.639   3.478  0.3931 -0.1161  0.8238
19998SOL    HW167109   4.812   0.547   3.457  2.0283  0.0610 -1.3967
19998SOL    HW267110   4.791   0.687   3.403  1.0031  0.9619  1.2039
19999SOL     OW67111   2.172  11.946   5.952  0.3071  0.7824  0.0343
19999SOL    HW167112   2.122  11.873   5.988  0.7699  0.2948 -0.2975
19999SOL    HW267113   2.115  11.986   5.886 -0.5613  1.7008  1.2941
20000SOL     OW67114  10.204  11.525   1.160  0.1560 -0.1214 -0.0594
20000SOL    HW167115  10.111  11.506   1.156  0.3836 -1.3668  0.1408
20000SOL    HW267116  10.246  11.446   1.126  1.1448  0.3090  0.1248
20001SOL     OW67117   5.207   7.702   0.682 -0.0573  0.0445  0.0318
20001SOL    HW167118   5.281   7.759   0.663  0.7307 -1.1572 -0.6067
20001SOL    HW267119   5.180   7.727   0.770  0.7137  0.9062  0.0423
20002SOL     OW67120   9.130  10.951   3.166 -0.1757 -0.3257  0.2718
20002SOL    HW167121   9.135  11.035   3.120 -0.9006 -0.3230  0.1854
20002SOL    HW267122   9.112  10.887   3.097 -0.9378 -0.3665  0.5009
20003SOL     OW67123   4.923   8.846   5.852  0.1225 -0.8023  0.0102
20003SOL    HW167124   4.969   8.818   5.773  1.0232 -1.0645  0.6025
20003SOL    HW267125   4.986   8.829   5.923  0.5149  2.0890  0.4859
20004SOL     OW67126   5.015  12.957   9.809  0.5316 -0.2504  0.1447
20004SOL    HW167127   4.996  12.865   9.826  1.1446 -0.5483 -0.7142
20004SOL    HW267128   4.976  12.975   9.723 -0.3798  0.5455  0.7038
20005SOL     OW67129   3.235  12.707   9.769 -0.2136  0.2071 -0.0308
20005SOL    HW167130   3.142  12.695   9.787 -0.5462  1.7351 -0.5372
20005SOL    HW267131   3.265  12.765   9.839  0.6719 -1.2374  0.8350
20006SOL     OW67132   9.106   8.846   3.848  0.0489  0.3376 -0.1093
20006SOL    HW167133   9.191   8.856   3.891 -0.1180 -0.5832  0.4555
20006SOL    HW267134   9.071   8.935   3.844  0.9893  0.7147 -0.2656
20007SOL     OW67135   0.471  11.430   3.009 -0.1535 -0.3134  0.3172
20007SOL    HW167136   0.558  11.399   2.982 -0.5232  0.9432 -2.7144
20007SOL    HW267137   0.412  11.360   2.983 -0.1482 -1.0475  2.1333
20008SOL     OW67138   9.012   6.564   1.150 -0.4322 -0.6762  0.2279
20008SOL    HW167139   8.919   6.549   1.132 -0.8481  1.6787  0.1193
20008SOL    HW267140   9.035   6.496   1.214 -3.2846  0.9561  3.2991
20009SOL     OW67141   6.838   4.081   9.907  0.2100 -0.1011  0.2956
20009SOL    HW167142   6.744   4.089   9.924  0.2881 -0.7747  1.1681
20009SOL    HW267143   6.877   4.156   9.952  0.1134  0.0139  0.1864
20010SOL     OW67144   7.871   9.252   9.341  0.0434  0.2995 -0.2842
20010SOL    HW167145   7.945   9.305   9.370  0.4262  1.0551 -2.4495
20010SOL    HW267146   7.905   9.199   9.270 -0.8165 -1.5472  0.6039
20011SOL     OW67147  11.322   0.516  12.853 -0.7493 -0.3779 -0.1590
20011SOL    HW167148  11.259   0.547  12.919  1.0075  1.0092  0.9618
20011SOL    HW267149  11.291   0.553  12.771 -1.8422 -0.4204  0.2130
20012SOL     OW67150   2.704   3.694   2.369 -0.0224 -0.1448  0.0266
20012SOL    HW167151   2.689   3.772   2.422 -0.3269  0.5700 -1.0932
20012SOL    HW267152   2.685   3.721   2.279 -2.4359 -2.0906 -0.1628
20013SOL     OW67153   7.657   9.163   0.670  0.5825  0.2275 -0.0968
20013SOL    HW167154   7.710   9.145   0.748  1.3183 -2.1479 -1.0711
20013SOL    HW267155   7.574   9.119   0.687  0.8252 -0.4832 -0.7302
20014SOL     OW67156   7.003   2.841   2.738 -0.3032 -0.0131  0.4327
20014SOL    HW167157   6.946   2.791   2.680 -1.7744  0.5600  1.3293
20014SOL    HW267158   6.958   2.924   2.751  1.5495  1.1320 -0.1198
20015SOL     OW67159   8.447  11.149   1.673  0.3959 -0.0814 -0.0653
20015SOL    HW167160   8.486  11.161   1.586 -0.0100  1.3228 -0.0625
20015SOL    HW267161   8.360  11.113   1.656  0.9640 -1.5201 -0.1369
20016SOL     OW67162   3.202   2.734   4.981 -0.3115  0.4415 -0.2719
20016SOL    HW167163   3.144   2.717   5.056 -0.0874  1.3890  0.1353
20016SOL    HW267164   3.271   2.668   4.990 -0.8105 -0.0809 -0.2088
20017SOL     OW67165   4.323  10.137   3.128  0.7090  0.2424  0.0656
20017SOL    HW167166   4.296  10.147   3.219 -0.3615 -0.9911 -0.0811
20017SOL    HW267167   4.347  10.045   3.119  0.7216  0.3249 -0.9134
20018SOL     OW67168   0.405   8.294  12.736  0.1662  0.3578 -0.1163
20018SOL    HW167169   0.370   8.242  12.664  0.8740 -2.5300  1.4663
20018SOL    HW267170   0.429   8.378  12.696  2.0717 -1.6302 -3.6357
20019SOL     OW67171  11.576   0.709  10.360 -0.1223 -0.0971  0.0140
20019SOL    HW167172  11.659   0.754  10.347  0.1650 -0.5593  0.2282
20019SOL    HW267173  11.510   0.776  10.344  0.2764  0.1236 -0.7537
20020SOL     OW67174  10.434   5.057   3.821 -0.3329 -0.1293  0.4666
20020SOL    HW167175  10.523   5.065   3.787  0.0813 -0.5384  1.4242
20020SOL    HW267176  10.433   5.114   3.898 -0.5501 -0.9949  1.1202
20021SOL     OW67177   0.065   5.949   4.884 -0.1075 -0.1609  0.3966
20021SOL    HW167178   0.146   5.898   4.890  1.2259  2.0166  2.4853
20021SOL    HW267179   0.001   5.897   4.932  1.2288  0.0637  2.5398
20022SOL     OW67180  10.175   6.812  11.356  0.5155  0.1261 -0.1126
20022SOL    HW167181  10.246   6.856  11.310  1.2492 -1.4685 -0.6013
20022SOL    HW267182  10.117   6.782  11.286  2.2401 -3.3529 -0.3043
20023SOL     OW67183   3.685   3.097  10.213  0.1499  0.2037 -0.3417
20023SOL    HW167184   3.678   3.012  10.169 -0.8008 -0.0805  0.3276
20023SOL    HW267185   3.606   3.145  10.187  0.5207  0.7631 -0.4558
20024SOL     OW67186  12.929  10.840  10.896 -0.5541  0.3424 -0.1381
20024SOL    HW167187  12.879  10.912  10.934 -0.3034  0.2910  0.2986
20024SOL    HW267188  12.931  10.859  10.802  0.9697  1.8387  0.1471
20025SOL     OW67189   5.638   0.618   9.429  0.3160 -0.4570 -0.1727
20025SOL    HW167190   5.658   0.689   9.490  1.1738 -2.3963  1.9429
20025SOL    HW267191   5.563   0.651   9.378  1.1307  2.1975  0.1847
20026SOL     OW67192   3.493  12.942   8.515  0.1159 -0.2315  0.2360
20026SOL    HW167193   3.412  12.900   8.486 -0.4217  1.4774 -0.9149
20026SOL    HW267194   3.533  12.975   8.434 -0.5136  3.1513  1.1393
20027SOL     OW67195   2.938   4.021   0.808 -0.2304 -0.5110 -0.4672
20027SOL    HW167196   2.868   4.060   0.860  0.5111  0.5845 -0.2385
20027SOL    HW267197   2.921   3.927   0.810 -0.5995 -0.4437  1.2160
20028SOL     OW67198   5.054   6.687   7.394  0.2347 -0.2510  0.3899
20028SOL    HW167199   5.079   6.755   7.332 -0.7151 -0.0950  0.1555
20028SOL    HW267200   5.015   6.618   7.340  0.4498 -0.6241  0.7024
20029SOL     OW67201   3.486   9.815   7.944  0.5380 -0.0422 -0.2344
20029SOL    HW167202   3.491   9.720   7.932 -1.7464 -0.0550 -1.7048
20029SOL    HW267203   3.567   9.848   7.905  0.1632 -1.2367 -2.1664
20030SOL     OW67204   0.982   2.873   9.551 -0.2775 -0.5299  0.4522
20030SOL    HW167205   0.900   2.848   9.594  0.0731 -0.9145  0.9035
20030SOL    HW267206   0.989   2.968   9.566 -0.0678 -0.6831  1.4201
20031SOL     OW67207   0.733  12.871   0.250  0.1664 -0.1774 -0.0227
20031SOL    HW167208   0.647  12.898   0.284  0.2225 -0.5915  0.4514
20031SOL    HW267209   0.796  12.913   0.308  0.3562  1.7436 -1.5274
20032SOL     OW67210   8.508   2.769   2.463  0.3109  0.3541  0.4495
20032SOL    HW167211   8.516   2.684   2.507  0.0593  0.1388  0.0943
20032SOL    HW267212   8.542   2.832   2.525  1.3233 -0.1081  0.3856
20033SOL     OW67213   3.401  10.754   6.467  0.1450  0.4241 -0.1524
20033SOL    HW167214   3.468  10.812   6.502 -0.6024  2.5212 -1.9959
20033SOL    HW267215   3.449  10.693   6.410  0.6001  1.4359 -0.8814
20034SOL     OW67216   3.529   2.953   9.070  0.5471  0.0964  0.0508
20034SOL    HW167217   3.529   2.976   8.977 -1.7127  0.1446  0.0269
20034SOL    HW267218   3.502   3.033   9.115 -0.8800 -0.6111  0.5076
20035SOL     OW67219   7.544   3.205  11.061 -0.7465  0.4896  0.3916
20035SOL    HW167220   7.475   3.239  11.119 -0.7401 -0.0364  0.7092
20035SOL    HW267221   7.566   3.119  11.097  1.0237  1.1898  1.1191
20036SOL     OW67222   1.974   6.930   9.504 -0.0142 -0.0308  0.1918
20036SOL    HW167223   1.880   6.942   9.490  0.1449 -0.3833 -1.3758
20036SOL    HW267224   2.014   7.006   9.461  0.3858  1.0260  2.2942
20037SOL     OW67225   6.394   7.477   7.350  0.5960 -0.5230  0.4221
20037SOL    HW167226   6.486   7.480   7.325  0.3118 -2.3620 -1.0181
20037SOL    HW267227   6.360   7.564   7.325  1.7278 -0.1480  0.1247
20038SOL     OW67228   7.059   5.156   7.690  0.3004 -0.2745 -0.0910
20038SOL    HW167229   7.054   5.079   7.633  1.6592  0.5711 -1.4181
20038SOL    HW267230   7.031   5.228   7.634  0.3039  0.3895  0.7551
20039SOL     OW67231   5.200   9.194   0.061 -0.2520  0.1953 -0.4408
20039SOL    HW167232   5.291   9.223   0.062 -0.2937  0.3299 -0.4860
20039SOL    HW267233   5.149   9.275   0.050 -0.4061  0.1903  0.1892
20040SOL     OW67234   8.267   2.818   9.467 -0.8229  0.2120 -0.2319
20040SOL    HW167235   8.311   2.880   9.410  2.3728 -1.2663  0.3781
20040SOL    HW267236   8.187   2.795   9.421  0.1607  1.3079 -2.6605
20041SOL     OW67237   4.766   3.346   6.389 -0.2784  0.2887  0.2787
20041SOL    HW167238   4.762   3.364   6.483  0.2286 -1.6537  0.7097
20041SOL    HW267239   4.858   3.363   6.366 -0.1585 -0.2456  0.3604
20042SOL     OW67240   8.259   3.535   3.066 -0.4879 -0.0034 -0.8595
20042SOL    HW167241   8.196   3.519   2.996 -0.0997  1.3598 -1.5427
20042SOL    HW267242   8.206   3.538   3.146 -1.5851  2.6907 -1.5850
20043SOL     OW67243   3.413  12.329  11.572 -0.1002 -0.1547 -0.0432
20043SOL    HW167244   3.378  12.344  11.660 -0.3737 -1.2002  0.0462
20043SOL    HW267245   3.356  12.262  11.535  2.0493 -2.3651  0.3138
20044SOL     OW67246   1.542  12.637   6.716  0.1686  0.1645 -0.0570
20044SOL    HW167247   1.572  12.608   6.803  1.6839 -0.1685 -0.6516
20044SOL    HW267248   1.587  12.720   6.702 -1.0060  0.8223 -0.0484
20045SOL     OW67249   8.028   9.478  11.195  0.6779  0.3026  0.1730
20045SOL    HW167250   8.067   9.532  11.126  2.6337  0.2795  1.1993
20045SOL    HW267251   8.065   9.391  11.181 -2.4356 -0.9220 -1.4612
20046SOL     OW67252   9.600  11.922   3.697 -0.3183 -0.1124 -0.3561
20046SOL    HW167253   9.675  11.978   3.718 -1.7073  1.5466  0.3453
20046SOL    HW267254   9.608  11.849   3.758  0.6096  0.1332 -0.1590
20047SOL     OW67255   8.215  12.088  10.792 -0.6326  0.5986  0.2870
20047SOL    HW167256   8.261  12.050  10.867  0.4699 -2.2253 -1.6332
20047SOL    HW267257   8.127  12.052  10.797 -0.6535  0.6634  0.3861
20048SOL     OW67258  10.422   8.204   1.399  0.5260  0.1645  0.9308
20048SOL    HW167259  10.449   8.263   1.328  2.5390 -0.5545  1.0243
20048SOL    HW267260  10.449   8.117   1.368 -0.7749 -0.4751  1.5600
20049SOL     OW67261   3.499  11.057   5.103 -0.0036 -0.1664  0.3495
20049SOL    HW167262   3.587  11.023   5.086 -0.2219 -0.7053  0.2611
20049SOL    HW267263   3.441  10.994   5.059 -0.4631 -0.2011  0.9976
20050SOL     OW67264   8.811   5.740   2.544  0.4329 -0.2993 -0.2411
20050SOL    HW167265   8.857   5.788   2.613 -1.7272  1.1896  0.2682
20050SOL    HW267266   8.819   5.648   2.569 -0.2222  0.1911  2.0044
20051SOL     OW67267   4.135   5.028   3.465  0.1867 -0.8971 -0.6939
20051SOL    HW167268   4.055   5.079   3.478 -0.6729 -1.8913 -1.8669
20051SOL    HW267269   4.205   5.093   3.460 -0.8453  0.1512 -1.9411
20052SOL     OW67270   0.254   0.690   0.875 -0.1878 -0.0707  0.1353
20052SOL    HW167271   0.328   0.646   0.915  0.2561  2.1738  2.0208
20052SOL    HW267272   0.204   0.725   0.949 -1.1832  1.4275 -1.1805
20053SOL     OW67273  10.682   0.365   4.676  0.2065 -0.1445  0.6529
20053SOL    HW167274  10.755   0.305   4.664  0.5972  0.2646  0.9857
20053SOL    HW267275  10.675   0.412   4.593 -2.7985 -3.5362 -1.3277
20054SOL     OW67276   5.208  10.851   1.896  0.9481 -0.2431 -0.4717
20054SOL    HW167277   5.287  10.800   1.877  0.7959 -0.2019 -1.2629
20054SOL    HW267278   5.166  10.862   1.811  0.0471 -0.3282 -0.0454
20055SOL     OW67279   8.798   4.765  12.753 -0.3496  1.1304  0.2655
20055SOL    HW167280   8.711   4.773  12.792 -0.5603 -0.7523  0.2775
20055SOL    HW267281   8.803   4.674  12.725  2.9478  0.1080  3.4677
20056SOL     OW67282  10.460   2.456   9.576  0.3226 -0.1881 -0.6108
20056SOL    HW167283  10.453   2.473   9.482  0.1816 -1.8527 -0.9326
20056SOL    HW267284  10.394   2.389   9.593  0.0422  0.4040  0.7801
20057SOL     OW67285   3.826   9.111   3.471 -0.0788 -0.3283  0.0224
20057SOL    HW167286   3.863   9.148   3.551  1.8090  2.9792 -2.1162
20057SOL    HW267287   3.897   9.116   3.407 -1.3436 -3.2659 -1.8261
20058SOL     OW67288   1.132   2.873   4.386  0.1237 -0.1557  0.1971
20058SOL    HW167289   1.111   2.823   4.464  1.1314 -0.5280  0.2386
20058SOL    HW267290   1.177   2.812   4.329 -0.9166  0.0131 -0.8462
20059SOL     OW67291   5.815   0.223  11.964 -0.4989 -0.0313  0.4093
20059SOL    HW167292   5.834   0.132  11.986 -0.8485 -0.3514 -0.5785
20059SOL    HW267293   5.773   0.258  12.043  1.6059 -0.0745  1.6270
20060SOL     OW67294   0.969   5.340   1.716 -0.2236 -0.0242  0.5434
20060SOL    HW167295   0.998   5.386   1.637 -0.6167 -0.8421 -0.1058
20060SOL    HW267296   0.883   5.378   1.736 -1.2657 -1.4765 -0.9067
20061SOL     OW67297   8.331   9.652  12.045 -0.3198  0.3774  0.3165
20061SOL    HW167298   8.372   9.736  12.065 -1.0170  1.0278 -0.8643
20061SOL    HW267299   8.393   9.608  11.986 -1.3959  1.5428 -1.8242
20062SOL     OW67300   1.649   6.639   0.848  0.8644 -0.1156  0.1041
20062SOL    HW167301   1.601   6.721   0.860  0.8461 -0.1902  0.5681
20062SOL    HW267302   1.716   6.660   0.783 -0.6600 -0.3738 -1.6319
20063SOL     OW67303   7.116   9.941   9.673 -0.1946 -0.8109 -0.0714
20063SOL    HW167304   7.169   9.903   9.602  0.0038  0.3609 -0.5831
20063SOL    HW267305   7.176   9.946   9.747  1.1059  2.1593 -1.1330
20064SOL     OW67306  12.273  12.417   8.832  0.2612 -0.5346  0.4581
20064SOL    HW167307  12.317  12.498   8.857  0.8104 -0.9480  0.8470
20064SOL    HW267308  12.241  12.434   8.743  0.6366 -0.0031  0.4154
20065SOL     OW67309   9.661   4.750   3.303  0.2839  0.1128  0.3122
20065SOL    HW167310   9.601   4.815   3.265 -2.0832 -1.8969  0.3211
20065SOL    HW267311   9.731   4.742   3.239  0.3307  2.1810  0.0193
20066SOL     OW67312  10.403   1.298   6.317 -0.6891 -0.7908 -0.3982
20066SOL    HW167313  10.387   1.339   6.403  1.1218  0.2546 -0.5101
20066SOL    HW267314  10.425   1.207   6.338 -0.9835 -0.7375  0.1770
20067SOL     OW67315   8.608   9.219   9.044  0.1907 -0.4075  0.0027
20067SOL    HW167316   8.663   9.297   9.039 -0.3342  0.5072  4.2117
20067SOL    HW267317   8.664   9.152   9.085 -0.0888 -1.4694 -1.3000
20068SOL     OW67318   7.297   1.219   2.062 -0.0950  0.3495  0.1718
20068SOL    HW167319   7.357   1.145   2.069 -0.8355 -0.2073  0.7863
20068SOL    HW267320   7.283   1.247   2.153 -3.2183 -1.5638  0.4461
20069SOL     OW67321  10.252   5.969   1.985 -0.0449  0.1765  0.1262
20069SOL    HW167322  10.190   6.005   1.922  1.2295  2.1073 -0.1110
20069SOL    HW267323  10.294   5.897   1.939  0.9516  1.6356 -1.3177
20070SOL     OW67324   5.502  10.554   9.774  0.9513 -0.3351 -0.0372
20070SOL    HW167325   5.589  10.538   9.737  1.1045  0.7556 -0.1596
20070SOL    HW267326   5.496  10.493   9.847  2.2629  0.3428  0.6671
20071SOL     OW67327   3.637   1.811   1.264  0.1324  0.3519 -0.4290
20071SOL    HW167328   3.646   1.730   1.214 -0.6605 -0.4641  0.7072
20071SOL    HW267329   3.606   1.783   1.350 -1.1559  1.9393 -0.3308
20072SOL     OW67330   9.531   5.341   7.808  0.6942 -0.4172  0.1354
20072SOL    HW167331   9.596   5.383   7.751 -0.4503  1.2214 -0.0257
20072SOL    HW267332   9.564   5.252   7.819  2.0416 -0.1682 -1.3914
20073SOL     OW67333   1.944   6.865   9.968 -0.5380  0.3090 -0.5810
20073SOL    HW167334   2.025   6.884  10.016 -0.8212  0.5030 -0.1620
20073SOL    HW267335   1.889   6.943   9.983 -1.4312 -0.4957  0.5212
20074SOL     OW67336   7.958   8.577   2.249  0.2206  1.5525  0.0092
20074SOL    HW167337   8.042   8.549   2.212  0.7418 -0.3039  2.3282
20074SOL    HW267338   7.975   8.664   2.284  0.1268  2.6965 -2.5765
20075SOL     OW67339   7.744  10.026   3.909  0.3525 -0.1913  0.5733
20075SOL    HW167340   7.683  10.030   3.835 -0.3973 -0.8851  1.1266
20075SOL    HW267341   7.815   9.969   3.879  0.5660  0.3439  0.0425
20076SOL     OW67342   1.214   8.107   7.292 -0.6686 -0.7484  0.2757
20076SOL    HW167343   1.246   8.020   7.317 -1.3668 -0.7863  1.0965
20076SOL    HW267344   1.279   8.168   7.326  0.3676 -0.9793 -1.2131
20077SOL     OW67345   5.411   9.057   8.143  0.0711 -0.1217 -0.3647
20077SOL    HW167346   5.481   9.110   8.182  0.6861 -1.3038  0.2063
20077SOL    HW267347   5.457   9.002   8.079 -0.3704 -0.7674 -0.1281
20078SOL     OW67348   0.289   4.896   5.387 -0.6408  0.0114  0.5884
20078SOL    HW167349   0.269   4.916   5.478 -0.6741  0.9787  0.3825
20078SOL    HW267350   0.380   4.867   5.388  0.1300  2.2329  0.6699
20079SOL     OW67351  12.108   0.911  10.247 -0.2553  0.4709 -0.8090
20079SOL    HW167352  12.090   0.958  10.329 -0.0984 -0.6834 -0.0958
20079SOL    HW267353  12.203   0.907  10.242 -0.2429  1.2995 -1.5127
20080SOL     OW67354   4.439  11.701   3.499  0.2206 -0.4025 -0.2048
20080SOL    HW167355   4.383  11.624   3.485  1.7773 -1.6373  0.0349
20080SOL    HW267356   4.455  11.701   3.594 -0.2898  0.6236 -0.1075
20081SOL     OW67357  10.900   4.019   0.398  0.4731 -0.3346  0.2419
20081SOL    HW167358  10.839   3.963   0.446 -0.3400 -0.6845 -1.1334
20081SOL    HW267359  10.894   4.104   0.441 -1.4656 -0.1944 -0.2049
20082SOL     OW67360   0.470  10.259   5.986 -0.1081 -0.3545 -0.0169
20082SOL    HW167361   0.412  10.328   6.019 -0.3820 -0.6102  0.0336
20082SOL    HW267362   0.447  10.251   5.893  2.0470  1.7922 -0.8397
20083SOL     OW67363   3.899   7.168   4.571  0.3832 -0.7334 -0.3317
20083SOL    HW167364   3.902   7.243   4.511 -1.8987  0.1705  0.5621
20083SOL    HW267365   3.836   7.108   4.530  0.2254 -0.9553  0.2306
20084SOL     OW67366   4.034   4.320  10.443  0.1445 -0.0747  0.2133
20084SOL    HW167367   4.109   4.352  10.394 -0.1440 -0.7884 -0.7268
20084SOL    HW267368   3.991   4.257  10.384 -1.3392  0.5166  0.6110
20085SOL     OW67369  11.730  12.954   2.931  0.6381  0.2246  0.0910
20085SOL    HW167370  11.731  13.035   2.880 -1.3221 -0.0701 -0.4901
20085SOL    HW267371  11.704  12.886   2.869  0.9103 -0.6306  0.8816
20086SOL     OW67372   2.631   0.044   9.056 -0.2451  0.2079 -0.0247
20086SOL    HW167373   2.564  -0.017   9.027  0.7133 -0.1954 -1.5267
20086SOL    HW267374   2.602   0.129   9.021  0.8461 -0.2571 -2.2537
20087SOL     OW67375   9.634   6.590   9.800 -0.5880 -0.2694  0.0051
20087SOL    HW167376   9.627   6.645   9.878  1.2873  1.3055 -0.8428
20087SOL    HW267377   9.680   6.511   9.830  0.6246  0.5605  0.4270
20088SOL     OW67378  12.118   2.748  12.318  0.4848 -0.2079 -0.2644
20088SOL    HW167379  12.074   2.745  12.233  1.3799 -1.8932 -0.7069
20088SOL    HW267380  12.179   2.822  12.310 -0.3553  0.4645 -0.6028
20089SOL     OW67381   8.269  11.188   6.350  0.2935  0.1560 -0.3873
20089SOL    HW167382   8.326  11.249   6.303 -1.6208  0.3676 -2.6974
20089SOL    HW267383   8.282  11.104   6.306 -1.1834  0.2393 -1.0666
20090SOL     OW67384   4.663   4.260   7.168  0.0317 -0.0256 -0.1305
20090SOL    HW167385   4.627   4.290   7.084  0.1283 -1.7553 -0.8131
20090SOL    HW267386   4.757   4.271   7.159  0.3219 -2.8242 -1.3960
20091SOL     OW67387   6.876   3.279   1.555 -0.1532  0.0347  0.0389
20091SOL    HW167388   6.862   3.195   1.600  0.6253  0.2038  0.6371
20091SOL    HW267389   6.835   3.268   1.470 -0.5743 -0.7497  0.3298
20092SOL     OW67390   1.452   2.073   9.103 -0.2447  0.4602  0.1613
20092SOL    HW167391   1.393   2.006   9.138  1.1900 -0.7931  0.3021
20092SOL    HW267392   1.457   2.054   9.009 -1.7913  1.9886 -0.2759
20093SOL     OW67393   2.859   8.958   6.142  0.2109 -0.2026 -0.1374
20093SOL    HW167394   2.901   8.873   6.156  1.4572  0.4385  0.1289
20093SOL    HW267395   2.904   8.995   6.066 -0.1220  0.3378 -0.0745
20094SOL     OW67396   4.990   9.074   0.199  0.1561  0.5001 -0.9396
20094SOL    HW167397   5.043   9.083   0.120  1.3952 -0.8074 -0.3080
20094SOL    HW267398   5.025   9.139   0.260  0.0118  0.6778 -1.0465
20095SOL     OW67399   8.458   5.049  10.582  0.2640  0.1207  0.3753
20095SOL    HW167400   8.428   5.041  10.672  1.1936  0.8898  0.7640
20095SOL    HW267401   8.441   4.962  10.544  2.1057 -1.0507  2.0009
20096SOL     OW67402   2.808   0.215   7.026 -0.4918  0.5421 -0.0880
20096SOL    HW167403   2.837   0.245   6.939 -2.3670 -0.6458 -1.1705
20096SOL    HW267404   2.713   0.220   7.022 -0.6528 -0.8398  1.4364
20097SOL     OW67405   6.972  10.526   5.229 -0.4168 -0.2972 -0.1687
20097SOL    HW167406   7.064  10.537   5.254 -0.1635  2.3913 -1.9104
20097SOL    HW267407   6.963  10.572   5.146 -3.1214 -1.4681 -0.6565
20098SOL     OW67408   6.539  12.059  12.914 -0.4746 -0.1205 -0.1314
20098SOL    HW167409   6.533  12.132  12.976  1.8950 -1.2057  1.5172
20098SOL    HW267410   6.561  12.100  12.831  1.0621  1.0815  0.8136
20099SOL     OW67411   8.443  12.454   0.155 -0.0721  0.7888 -0.4924
20099SOL    HW167412   8.491  12.439   0.074  1.1604  3.6063 -0.3963
20099SOL    HW267413   8.487  12.399   0.220  1.5134  1.4957 -0.9215
20100SOL     OW67414   5.609   4.113   8.098  0.3356  1.0819 -0.6502
20100SOL    HW167415   5.688   4.086   8.145  0.6099  2.5695 -0.1998
20100SOL    HW267416   5.542   4.121   8.166  0.4556  2.1973 -0.6377
20101SOL     OW67417   3.707   2.822   7.283 -0.2500  0.5237 -0.1734
20101SOL    HW167418   3.780   2.856   7.334  0.4969 -1.8880  0.5165
20101SOL    HW267419   3.743   2.808   7.195  0.9986 -2.8708  0.7139
20102SOL     OW67420   0.022   1.685   5.399  0.2766  0.7067 -0.1316
20102SOL    HW167421   0.064   1.599   5.395 -0.3964  0.3512  0.1422
20102SOL    HW267422   0.054   1.731   5.322 -0.2987 -0.2447 -0.9708
20103SOL     OW67423  12.203  12.616   1.151 -0.4651 -0.2520  0.3490
20103SOL    HW167424  12.245  12.674   1.215 -0.0899 -0.3234  0.1666
20103SOL    HW267425  12.240  12.642   1.067  0.3367 -1.3175  0.3600
20104SOL     OW67426   2.050  11.220   9.058  0.2173  0.4381 -0.0405
20104SOL    HW167427   2.016  11.299   9.015 -0.4652  0.6060  0.7802
20104SOL    HW267428   2.130  11.249   9.102  0.0426  0.6423  0.1438
20105SOL     OW67429   6.066  10.911   0.524  0.4244 -0.4837 -0.0319
20105SOL    HW167430   6.072  10.817   0.542  2.1999 -0.4811 -0.3838
20105SOL    HW267431   6.149  10.947   0.556  0.4951  0.6864 -1.4071
20106SOL     OW67432   7.510   8.268   4.989 -0.7384  0.8015  0.3043
20106SOL    HW167433   7.558   8.185   4.985 -2.7993 -0.4597  0.6139
20106SOL    HW267434   7.437   8.257   4.928 -2.0353  1.7223  1.6444
20107SOL     OW67435   8.221   0.373   9.637 -0.1709  0.1205 -0.2671
20107SOL    HW167436   8.166   0.442   9.675 -0.0144  1.3372 -2.1404
20107SOL    HW267437   8.169   0.293   9.648 -2.3750  1.2146 -1.9413
20108SOL     OW67438   3.133   5.128   8.997 -0.1029  0.3084 -0.5565
20108SOL    HW167439   3.208   5.151   8.942 -0.0371 -0.6392 -0.8870
20108SOL    HW267440   3.163   5.052   9.047 -1.3567 -1.1471 -1.9148
20109SOL     OW67441  12.232  10.152   0.236  0.3661 -0.1943  0.0380
20109SOL    HW167442  12.172  10.109   0.175 -0.2029  0.0847  0.3926
20109SOL    HW267443  12.187  10.232   0.262  1.3398  0.5278 -0.4634
20110SOL     OW67444   0.876   0.539   0.771 -0.6828 -0.6146 -0.0148
20110SOL    HW167445   0.909   0.579   0.690 -1.5402 -0.1187 -0.1219
20110SOL    HW267446   0.892   0.445   0.758 -0.7866 -0.5404 -0.7481
20111SOL     OW67447   8.389  11.862  10.094  0.7902 -0.0121 -0.2067
20111SOL    HW167448   8.473  11.818  10.085  0.4191 -0.8096  0.0819
20111SOL    HW267449   8.371  11.899  10.007  2.1766  1.5718  0.1455
20112SOL     OW67450   9.820   1.405   6.604 -0.0838 -0.7711  0.0027
20112SOL    HW167451   9.864   1.476   6.557  0.0304 -1.7345 -1.4143
20112SOL    HW267452   9.884   1.377   6.670 -0.0757  0.3102  0.4875
20113SOL     OW67453  11.237   5.680   1.014 -0.5827  0.3859 -0.3851
20113SOL    HW167454  11.181   5.696   1.090  0.8959  1.0132  0.6430
20113SOL    HW267455  11.246   5.766   0.972 -0.3618  0.3034 -0.5077
20114SOL     OW67456  11.908   6.879   9.703 -0.2357  0.5267 -0.1838
20114SOL    HW167457  11.918   6.792   9.743 -0.9821  0.2540 -0.5766
20114SOL    HW267458  11.957   6.873   9.621  0.3100  0.7166  0.1154
20115SOL     OW67459  12.266   1.542   0.652 -0.2928  0.2529  0.0997
20115SOL    HW167460  12.190   1.496   0.688  0.7039 -1.1468  0.5064
20115SOL    HW267461  12.281   1.614   0.713 -0.9762  0.2245  0.3116
20116SOL     OW67462   2.521   7.117   0.769 -0.0551 -0.0147 -0.4767
20116SOL    HW167463   2.591   7.128   0.704  0.1601 -0.8538 -0.4084
20116SOL    HW267464   2.458   7.059   0.726  0.2463 -0.8455  0.1591
20117SOL     OW67465   2.578  11.646   7.918  0.1128 -0.3575 -0.4613
20117SOL    HW167466   2.535  11.729   7.896 -0.1775 -0.8925 -1.9948
20117SOL    HW267467   2.643  11.670   7.985  1.2256  1.4293 -2.0795
20118SOL     OW67468   3.768   2.663  10.731 -0.1166 -0.1935 -0.0021
20118SOL    HW167469   3.697   2.715  10.767  1.2368  1.2755  0.6490
20118SOL    HW267470   3.810   2.623  10.807 -0.4400 -1.3811 -0.4088
20119SOL     OW67471   1.423   5.026   8.104 -0.7096  0.1781  0.0800
20119SOL    HW167472   1.363   5.031   8.029  0.7062  1.1052 -1.0425
20119SOL    HW267473   1.465   5.112   8.107  1.4522 -0.8063  0.0385
20120SOL     OW67474  10.879   0.799  11.303 -0.0038 -0.2604 -0.1523
20120SOL    HW167475  10.934   0.878  11.305  0.2314 -0.4288  0.1118
20120SOL    HW267476  10.900   0.758  11.219  1.2182 -0.9785  0.4753
20121SOL     OW67477   1.121   7.089  10.188 -0.5536  0.0181  0.3547
20121SOL    HW167478   1.118   7.184  10.174 -2.9173 -0.0899 -0.2285
20121SOL    HW267479   1.164   7.079  10.273  1.7323  1.4372 -0.5298
20122SOL     OW67480   7.078   8.338  12.146 -0.6447  0.1139  0.1334
20122SOL    HW167481   7.156   8.297  12.184 -1.0928  1.3896  2.6697
20122SOL    HW267482   7.090   8.330  12.052  2.2757 -0.2500  0.4393
20123SOL     OW67483   9.748   1.217   5.277  0.0068  0.2870  0.0532
20123SOL    HW167484   9.688   1.268   5.332  0.7550  0.9329  0.2813
20123SOL    HW267485   9.741   1.128   5.310 -0.2154  0.5096  0.6174
20124SOL     OW67486   7.955   3.287   6.756 -0.2266  0.2002  0.0991
20124SOL    HW167487   8.014   3.229   6.708 -0.1097  0.6331 -0.2881
20124SOL    HW267488   7.947   3.246   6.842  0.5187  0.0509  0.1079
20125SOL     OW67489   2.401   1.971   8.496  0.5949 -0.0773 -0.1055
20125SOL    HW167490   2.463   1.997   8.565 -0.4155 -0.7671  1.1186
20125SOL    HW267491   2.441   1.896   8.454  0.7220 -0.3628  0.5091
20126SOL     OW67492   9.846   5.532  11.691  0.0802 -0.6060  0.1976
20126SOL    HW167493   9.850   5.536  11.596  1.7672  2.9059  0.2371
20126SOL    HW267494   9.753   5.538  11.712 -0.2059  3.0888 -1.3698
20127SOL     OW67495   9.339   1.016   3.162 -0.2263  0.1661  0.3295
20127SOL    HW167496   9.338   1.112   3.165  0.3459  0.1780  0.1454
20127SOL    HW267497   9.405   0.991   3.226  0.1807 -0.0790 -0.1809
20128SOL     OW67498   0.589   3.698   8.813 -0.2210 -0.5122  0.5983
20128SOL    HW167499   0.607   3.663   8.900 -0.9337 -0.8431  0.6214
20128SOL    HW267500   0.659   3.663   8.758 -1.6471 -3.1461  0.3194
20129SOL     OW67501   3.275  12.875  10.999 -0.1026  0.0931 -0.1697
20129SOL    HW167502   3.262  12.782  11.018 -2.7702  0.1057 -1.5192
20129SOL    HW267503   3.366  12.880  10.969  0.3312 -1.9187  0.6073
20130SOL     OW67504   6.326   1.782   6.028  0.4802 -0.0052  0.1593
20130SOL    HW167505   6.337   1.823   6.114 -1.2699  0.9165 -0.0171
20130SOL    HW267506   6.311   1.855   5.968 -2.4689 -0.8081 -0.2054
20131SOL     OW67507   3.440   6.712   3.663 -0.2953 -0.1702  0.6633
20131SOL    HW167508   3.359   6.759   3.680  0.1535  0.8114  0.1380
20131SOL    HW267509   3.412   6.626   3.632 -1.1261 -0.1786  1.3986
20132SOL     OW67510   5.753   3.571   6.696  0.4104 -0.4443  0.2022
20132SOL    HW167511   5.838   3.583   6.738  0.9956 -0.1935 -1.0074
20132SOL    HW267512   5.737   3.476   6.700  1.1636 -0.6043 -0.3220
20133SOL     OW67513   2.769   1.411  12.770  0.2108  0.0545  0.3329
20133SOL    HW167514   2.719   1.354  12.712 -1.3159  0.9141  0.7447
20133SOL    HW267515   2.777   1.360  12.851  0.8555 -0.4696 -0.0531
20134SOL     OW67516   6.411   7.835   6.005 -0.4951 -0.1234  0.7233
20134SOL    HW167517   6.419   7.914   6.059 -1.1821  1.1997 -1.0111
20134SOL    HW267518   6.376   7.867   5.922 -0.2992 -2.2085 -0.2090
20135SOL     OW67519   2.121   9.256   7.396 -0.8795 -0.0470  0.3604
20135SOL    HW167520   2.183   9.324   7.422  0.4619 -0.6034 -1.2083
20135SOL    HW267521   2.038   9.303   7.384 -0.2950  1.0817  0.5491
20136SOL     OW67522   1.585   5.068   3.360 -0.1452  0.0755  0.5422
20136SOL    HW167523   1.495   5.060   3.392 -0.8750  1.7713 -0.9748
20136SOL    HW267524   1.633   5.108   3.433 -1.0034  0.7391  0.7496
20137SOL     OW67525  10.401   1.139   2.421 -0.1396  0.5592  0.3857
20137SOL    HW167526  10.354   1.061   2.452 -0.2134  0.1267 -0.7784
20137SOL    HW267527  10.375   1.208   2.482  0.6448 -0.5009  2.0155
20138SOL     OW67528   4.725   9.881   6.555  0.5697  0.3291 -0.5190
20138SOL    HW167529   4.631   9.899   6.547 -0.0624 -1.5132  1.6049
20138SOL    HW267530   4.763   9.963   6.585 -0.4569  0.9602 -0.9108
20139SOL     OW67531   7.893   6.883   2.570  0.2676 -0.3694 -0.3665
20139SOL    HW167532   7.966   6.823   2.551  0.5360 -0.1139 -0.1547
20139SOL    HW267533   7.935   6.969   2.574  0.1320 -0.3559  0.8975
20140SOL     OW67534  12.920   4.810  11.301  0.7356 -0.2001  0.2582
20140SOL    HW167535  12.951   4.894  11.265  1.3996 -0.4416  0.2626
20140SOL    HW267536  12.899   4.830  11.392  1.1084 -0.0879  0.3209
20141SOL     OW67537  12.500  10.608   1.448 -0.1245 -0.4338 -0.3280
20141SOL    HW167538  12.536  10.650   1.526 -0.4924 -0.1233 -0.3191
20141SOL    HW267539  12.546  10.524   1.441  0.1244 -0.3269  0.0494
20142SOL     OW67540   4.459   7.401   4.626  0.0780  0.3584  0.7489
20142SOL    HW167541   4.511   7.398   4.707  1.6074 -0.0810 -0.2103
20142SOL    HW267542   4.404   7.323   4.630  0.4748  0.0953  1.1485
20143SOL     OW67543   3.325   7.118   8.298 -0.4651  0.1693  0.3816
20143SOL    HW167544   3.405   7.157   8.332 -0.2026  1.6264 -1.7317
20143SOL    HW267545   3.254   7.164   8.342 -0.1817 -0.4851  1.5704
20144SOL     OW67546   7.928  10.643   4.282 -0.2634 -0.3320 -0.1582
20144SOL    HW167547   7.908  10.711   4.218 -0.7099 -0.6510 -0.3662
20144SOL    HW267548   7.842  10.608   4.307 -0.1124 -0.0161  0.8381
20145SOL     OW67549   4.792  11.432   2.755 -0.1874 -0.2418  0.2331
20145SOL    HW167550   4.850  11.381   2.811  1.8678  0.9968 -0.6516
20145SOL    HW267551   4.707  11.428   2.799  0.3052 -2.8454  1.1257
20146SOL     OW67552   7.024   0.155   2.880  0.5493  0.5650  0.5789
20146SOL    HW167553   7.105   0.193   2.846 -0.0474  0.9891 -0.4140
20146SOL    HW267554   7.038   0.060   2.875  0.7298  0.6283 -0.2292
20147SOL     OW67555  10.705  12.366   5.832  0.0401  0.4977 -0.5498
20147SOL    HW167556  10.730  12.448   5.874  2.5157 -0.6728  0.4892
20147SOL    HW267557  10.727  12.377   5.740  1.3814  0.6733 -0.2257
20148SOL     OW67558   3.010  12.716  11.337 -0.6881 -0.4148 -0.4812
20148SOL    HW167559   3.058  12.651  11.389 -0.7828 -0.6719 -0.7147
20148SOL    HW267560   3.073  12.786  11.322 -0.3408 -0.8113 -0.8988
20149SOL     OW67561   1.717   2.600   3.401 -0.8609 -0.0214 -0.2429
20149SOL    HW167562   1.812   2.589   3.398 -0.8469 -0.5562  1.2905
20149SOL    HW267563   1.686   2.558   3.320  0.0177 -2.3229  0.5128
20150SOL     OW67564  11.873  11.766   2.626 -0.1986  0.3617 -0.0917
20150SOL    HW167565  11.822  11.715   2.689 -0.1621 -2.5730 -2.2351
20150SOL    HW267566  11.942  11.806   2.678 -1.8080  0.4568  2.1288
20151SOL     OW67567  10.025   6.062   7.600  0.0505  0.0348 -0.3568
20151SOL    HW167568   9.938   6.098   7.619 -0.7181 -2.4207  1.2853
20151SOL    HW267569  10.010   5.969   7.586  2.4127 -0.4512 -0.1172
20152SOL     OW67570   1.895   7.674   2.502 -0.7017 -0.4491 -0.4670
20152SOL    HW167571   1.884   7.583   2.532  0.7732 -0.6057 -0.3249
20152SOL    HW267572   1.815   7.718   2.531 -0.4563 -1.1755  1.4940
20153SOL     OW67573   5.140   5.241   1.508 -0.2889  1.1988 -0.5943
20153SOL    HW167574   5.092   5.263   1.428 -2.1750  2.0273  0.6792
20153SOL    HW267575   5.092   5.166   1.544  1.0699  0.2778 -0.6644
20154SOL     OW67576   9.320   0.249   6.687  0.4771 -0.1597  0.1918
20154SOL    HW167577   9.378   0.319   6.656 -0.8025  0.4609 -0.9190
20154SOL    HW267578   9.231   0.283   6.672 -0.1847 -1.7185  0.3463
20155SOL     OW67579   4.349   0.705   2.346 -0.1095  0.3666 -0.2938
20155SOL    HW167580   4.373   0.627   2.295  0.3747  0.4254 -0.1646
20155SOL    HW267581   4.424   0.720   2.403  2.0809  3.7748 -3.6147
20156SOL     OW67582   0.697   1.203  12.048  0.3454 -0.0811  0.1405
20156SOL    HW167583   0.661   1.182  11.962 -0.6066 -3.1737  1.1333
20156SOL    HW267584   0.790   1.218  12.032  0.4920 -2.1234 -1.3250
20157SOL     OW67585   8.325   3.349   7.633 -0.2129  0.0841  0.1661
20157SOL    HW167586   8.359   3.272   7.679  0.4915  0.9389  1.1271
20157SOL    HW267587   8.264   3.388   7.695  1.3248  1.6860  0.7520
20158SOL     OW67588   2.399   9.172   2.508 -0.2543  0.1850  0.1941
20158SOL    HW167589   2.449   9.209   2.581  1.9343  2.1646 -2.1466
20158SOL    HW267590   2.447   9.093   2.484 -1.8211 -1.3297  1.6870
20159SOL     OW67591  11.087   6.174   1.178 -0.4451 -0.0658  0.4483
20159SOL    HW167592  11.016   6.190   1.117 -2.0617 -1.8603  1.7591
20159SOL    HW267593  11.073   6.236   1.250 -2.9478 -2.6476  2.4336
20160SOL     OW67594   3.327   1.393   5.095 -0.5699  0.0783  0.3354
20160SOL    HW167595   3.357   1.402   5.186  2.2690  1.6775 -0.6245
20160SOL    HW267596   3.387   1.329   5.056  0.1056  1.4996 -1.0681
20161SOL     OW67597   3.965   2.194  10.970  0.4189  0.0135  0.3070
20161SOL    HW167598   4.019   2.272  10.969  0.0385  0.2839 -0.3371
20161SOL    HW267599   3.881   2.224  11.005  0.5835 -0.3334  1.0101
20162SOL     OW67600   5.597   1.032   7.221 -0.4644  0.2712 -0.2273
20162SOL    HW167601   5.678   1.015   7.269 -0.7053  1.9195  0.8749
20162SOL    HW267602   5.568   0.946   7.191 -0.9146 -1.1265  3.6279
20163SOL     OW67603   9.297  10.921   6.408 -0.5369 -0.2219  0.2179
20163SOL    HW167604   9.326  10.992   6.466 -0.5753 -0.5778  0.6805
20163SOL    HW267605   9.221  10.883   6.454 -1.7099  0.6405 -0.9222
20164SOL     OW67606  12.622   3.938   2.927 -0.0993 -0.1992 -0.1963
20164SOL    HW167607  12.707   3.981   2.911  0.3115 -0.9057  0.0316
20164SOL    HW267608  12.642   3.845   2.922 -1.3135 -0.3947 -2.3611
20165SOL     OW67609   5.619   8.294   8.321  0.3370 -0.0812  0.4792
20165SOL    HW167610   5.714   8.283   8.317  0.3657 -0.1579  1.1238
20165SOL    HW267611   5.592   8.306   8.231  0.9122 -0.4836  0.2432
20166SOL     OW67612   1.535  11.800   7.307  1.0422  0.4670  0.2055
20166SOL    HW167613   1.520  11.719   7.356  0.7138 -1.7389 -3.2599
20166SOL    HW267614   1.459  11.854   7.328 -0.7185 -1.6934 -0.2142
20167SOL     OW67615   0.489   2.060   8.197  0.1968 -0.4000 -0.6587
20167SOL    HW167616   0.417   2.047   8.136 -0.6097  0.2935  0.1056
20167SOL    HW267617   0.479   1.991   8.262 -1.1585  0.9590  0.6803
20168SOL     OW67618  10.004   8.895  11.148  0.0725 -0.0989 -0.1527
20168SOL    HW167619   9.921   8.855  11.174  1.3548 -1.4152  2.2490
20168SOL    HW267620   9.992   8.988  11.169 -0.0097 -0.6498  2.6844
20169SOL     OW67621   6.452  11.139  10.820 -0.8092  0.2581 -0.3034
20169SOL    HW167622   6.480  11.218  10.865 -1.3933 -0.9817  2.4234
20169SOL    HW267623   6.368  11.162  10.780  0.2332  1.6987 -1.7915
20170SOL     OW67624   2.643   1.899  10.645 -0.0572  0.1702  0.3424
20170SOL    HW167625   2.621   1.963  10.713 -0.2759  0.6135 -0.1356
20170SOL    HW267626   2.591   1.822  10.667 -1.4193  0.8858 -0.2370
20171SOL     OW67627   3.175   1.298   4.654 -0.3042 -0.0357 -0.3699
20171SOL    HW167628   3.249   1.353   4.679 -0.2360  1.4240 -3.3482
20171SOL    HW267629   3.208   1.243   4.584 -1.8314  0.2299 -1.3537
20172SOL     OW67630  10.164  12.372  10.730 -0.1671  0.2651 -0.1198
20172SOL    HW167631  10.120  12.355  10.647  1.2015 -0.9446 -0.6357
20172SOL    HW267632  10.239  12.426  10.708 -0.4927  1.0096  0.5314
20173SOL     OW67633   9.546   7.446   7.139  0.2370  0.4159 -0.8490
20173SOL    HW167634   9.601   7.371   7.114  0.8082  0.8138 -0.8161
20173SOL    HW267635   9.468   7.407   7.177  0.3347 -0.1695 -1.2435
20174SOL     OW67636   7.978   7.802   9.077  0.5920  0.3258  0.0364
20174SOL    HW167637   7.922   7.766   9.147  2.3276  0.1724  1.4077
20174SOL    HW267638   7.981   7.733   9.011 -1.6655  0.7497 -0.6276
20175SOL     OW67639   9.868   4.792  11.637 -0.7869  0.7595 -0.0388
20175SOL    HW167640   9.925   4.818  11.709 -1.5553  3.4532 -0.3024
20175SOL    HW267641   9.920   4.804  11.558  0.1863 -2.5669 -0.0307
20176SOL     OW67642  12.586   4.036  11.076  0.0473 -0.5684 -0.1787
20176SOL    HW167643  12.635   3.970  11.126  0.4378 -1.5575 -1.7757
20176SOL    HW267644  12.597   4.009  10.984  0.2745  1.7796 -0.9004
20177SOL     OW67645  10.146   3.116   5.725  0.5279  0.4132  0.1536
20177SOL    HW167646  10.207   3.183   5.697  0.9834 -0.0581 -0.0103
20177SOL    HW267647  10.193   3.033   5.711  0.3155  0.1036  1.1657
20178SOL     OW67648   3.746   5.482  11.307  0.0878 -0.0948  0.4337
20178SOL    HW167649   3.717   5.416  11.244  0.1094  0.3516 -0.0502
20178SOL    HW267650   3.831   5.450  11.337  0.2326 -0.1477 -0.0174
20179SOL     OW67651   0.362   7.985   4.240 -0.5606 -0.4663  0.1984
20179SOL    HW167652   0.413   8.044   4.295 -0.1244 -0.4965 -0.1753
20179SOL    HW267653   0.406   7.900   4.248  0.5858 -0.0869 -1.5970
20180SOL     OW67654   0.776   0.078   3.148  0.0218  0.0242 -0.1871
20180SOL    HW167655   0.826   0.003   3.182 -0.0100  0.0584 -0.0652
20180SOL    HW267656   0.760   0.133   3.225  2.2361  1.4445 -0.6588
20181SOL     OW67657   3.397  12.359   1.946  0.0437  0.0394 -0.1230
20181SOL    HW167658   3.390  12.266   1.966 -1.6070 -0.0555 -0.9640
20181SOL    HW267659   3.379  12.365   1.853  0.8366  1.1535 -0.2291
20182SOL     OW67660  10.348   3.784   9.144 -0.1892  0.2715  0.1796
20182SOL    HW167661  10.276   3.735   9.183  0.3456 -0.0098  0.8469
20182SOL    HW267662  10.318   3.807   9.056 -0.4795 -1.1857 -0.1218
20183SOL     OW67663   5.308   3.243   9.980  0.4660  0.0016 -0.7599
20183SOL    HW167664   5.388   3.232  10.032 -1.9122 -1.3692  3.0336
20183SOL    HW267665   5.289   3.337   9.986  1.1837  0.1547 -0.7221
20184SOL     OW67666   1.943   3.008   2.060 -0.4159 -0.9067  0.0872
20184SOL    HW167667   2.034   3.038   2.064 -0.4491 -0.8476  0.4821
20184SOL    HW267668   1.925   2.974   2.148 -0.9328 -0.4566  0.1651
20185SOL     OW67669   9.087   0.638   8.184  0.3239  0.2684  0.4259
20185SOL    HW167670   9.115   0.729   8.180  1.2546  0.0306  1.1188
20185SOL    HW267671   9.099   0.614   8.276  0.2045 -0.5850  0.2247
20186SOL     OW67672  11.824  11.681  12.906 -0.4877  0.7394  0.1412
20186SOL    HW167673  11.801  11.740  12.834 -2.0710 -0.5941 -0.4944
20186SOL    HW267674  11.779  11.599  12.887  0.6709 -0.3234  1.6328
20187SOL     OW67675   7.477   8.437   5.575 -0.1430  0.3051  0.2127
20187SOL    HW167676   7.554   8.459   5.524  0.3693 -1.2406  0.2508
20187SOL    HW267677   7.475   8.501   5.646 -0.3833  1.9470 -1.2198
20188SOL     OW67678  11.712   6.319   2.357 -0.4869  0.5808  0.2601
20188SOL    HW167679  11.781   6.282   2.302 -0.9987 -1.5366  0.9515
20188SOL    HW267680  11.757   6.343   2.439 -0.1812  1.3718 -0.1309
20189SOL     OW67681   1.545   7.620  10.425 -0.3276 -0.0323  0.2244
20189SOL    HW167682   1.620   7.657  10.378  0.2505 -1.8389 -0.3532
20189SOL    HW267683   1.529   7.536  10.383  0.5303 -2.0056  3.4572
20190SOL     OW67684  10.726  12.068   0.284  0.6216 -0.3666 -0.3618
20190SOL    HW167685  10.675  12.138   0.325 -0.1864  0.1909 -2.2090
20190SOL    HW267686  10.685  11.987   0.317 -0.8750  0.0702 -1.0613
20191SOL     OW67687   4.129   0.826   5.658 -0.0098  0.3202  0.2947
20191SOL    HW167688   4.141   0.761   5.588  1.1193 -0.3611  1.0891
20191SOL    HW267689   4.053   0.876   5.631  0.2748 -0.0593 -1.3316
20192SOL     OW67690   2.648   3.846   9.754 -0.4963 -0.0354  0.0569
20192SOL    HW167691   2.730   3.807   9.784 -1.3337  0.1260  2.8440
20192SOL    HW267692   2.604   3.775   9.708  0.8933 -0.3190 -0.8847
20193SOL     OW67693  10.766   0.524   2.428 -0.9713 -0.7209 -0.1132
20193SOL    HW167694  10.714   0.595   2.390 -0.7309 -0.3205  0.3087
20193SOL    HW267695  10.798   0.559   2.511 -0.5773 -1.2069 -0.0585
20194SOL     OW67696   9.796   2.383   8.101  0.0817 -0.1450  0.0338
20194SOL    HW167697   9.829   2.452   8.159 -0.3515 -0.0754  0.1997
20194SOL    HW267698   9.852   2.389   8.023  0.5467 -0.1172  0.3655
20195SOL     OW67699   6.074   0.622   5.333 -0.4137  0.0822 -0.2113
20195SOL    HW167700   6.112   0.608   5.419  0.0737 -1.2403 -0.6191
20195SOL    HW267701   5.982   0.640   5.349 -0.0056  1.5903  0.6780
20196SOL     OW67702  12.030   4.599   9.387 -0.3350 -0.1671 -0.5158
20196SOL    HW167703  11.963   4.656   9.425 -0.7081  0.1516 -1.6230
20196SOL    HW267704  12.113   4.639   9.415 -0.5949 -0.0137  0.0608
20197SOL     OW67705   4.817   2.638   1.163  0.5803 -0.0979  0.1726
20197SOL    HW167706   4.761   2.687   1.104  0.9595 -0.4127 -0.4535
20197SOL    HW267707   4.797   2.674   1.250  0.9773  1.2590 -0.2824
20198SOL     OW67708   0.364   9.834   1.750  0.5065  0.4320  0.0051
20198SOL    HW167709   0.438   9.882   1.788 -0.1719  1.1844  0.4172
20198SOL    HW267710   0.297   9.837   1.818 -0.9419  2.2873 -1.4117
20199SOL     OW67711   9.924  10.755   5.283  0.4815  0.1428 -0.0731
20199SOL    HW167712   9.909  10.825   5.347 -0.4445  0.8305 -1.0143
20199SOL    HW267713  10.018  10.754   5.269  0.9521 -1.1802  2.5703
20200SOL     OW67714   7.968   5.559  12.653 -0.5099  0.3660  0.2611
20200SOL    HW167715   7.918   5.570  12.572 -1.5777  0.0256  0.8629
20200SOL    HW267716   7.927   5.619  12.715 -1.6546 -1.5478  1.4249
20201SOL     OW67717   8.491  10.320   1.452  0.5711 -0.2927 -0.1629
20201SOL    HW167718   8.494  10.373   1.372  0.0623 -0.4128 -0.2654
20201SOL    HW267719   8.535  10.373   1.518  0.0775  0.2567 -0.2666
20202SOL     OW67720   0.963  12.282   7.662 -0.1579  0.6230 -0.0008
20202SOL    HW167721   0.980  12.295   7.756  0.0885  1.6321 -0.1750
20202SOL    HW267722   0.875  12.245   7.659 -0.2306  0.7256  0.6248
20203SOL     OW67723   6.708   4.412   4.130  0.2327 -0.0707 -0.2901
20203SOL    HW167724   6.619   4.392   4.102  0.0600  0.1143  0.1124
20203SOL    HW267725   6.763   4.346   4.087 -0.2828 -1.2266  0.7530
20204SOL     OW67726   8.600   9.132  11.002 -0.3186  0.3782  0.0166
20204SOL    HW167727   8.557   9.092  11.078 -0.3443 -1.0056 -0.6815
20204SOL    HW267728   8.674   9.180  11.038 -0.7023  0.2795  0.9697
20205SOL     OW67729   0.814   4.999   9.746  0.0585  0.4863 -0.3114
20205SOL    HW167730   0.719   4.994   9.747  0.1048 -0.3888 -0.0321
20205SOL    HW267731   0.834   5.073   9.687 -0.7854  0.7757 -0.2398
20206SOL     OW67732   6.567  12.781   6.486  0.2557 -0.0700  0.3425
20206SOL    HW167733   6.629  12.711   6.506  2.0488  0.6945 -1.9773
20206SOL    HW267734   6.582  12.847   6.554  0.3478 -0.8688  1.1069
20207SOL     OW67735   5.674   7.860   1.923 -0.3087  0.5652  0.4706
20207SOL    HW167736   5.606   7.916   1.885 -2.2291 -0.7556  1.8136
20207SOL    HW267737   5.699   7.905   2.003  1.4367  1.7162 -0.6486
20208SOL     OW67738   6.608   2.279   9.231 -0.0376 -0.1862 -0.9679
20208SOL    HW167739   6.599   2.196   9.184 -0.0559  0.2718 -1.8107
20208SOL    HW267740   6.520   2.316   9.233 -0.0190 -0.1592 -0.6607
20209SOL     OW67741  11.183   2.905  11.195  0.2662  0.4772 -0.2685
20209SOL    HW167742  11.142   2.871  11.275  1.7080 -1.9149 -0.4288
20209SOL    HW267743  11.126   2.976  11.167 -0.1626  1.5560  2.9833
20210SOL     OW67744   3.776   4.820   3.761  0.2405  0.2363 -0.4549
20210SOL    HW167745   3.717   4.838   3.688  0.0438  0.9281 -0.1272
20210SOL    HW267746   3.719   4.798   3.834  0.4718 -2.2908 -0.9551
20211SOL     OW67747   2.126  12.147  12.335  0.0418  0.0365 -0.1745
20211SOL    HW167748   2.156  12.236  12.317 -0.5400  0.5961  1.4374
20211SOL    HW267749   2.060  12.130  12.268 -1.8461  1.9171  1.0580
20212SOL     OW67750  10.279  10.118   4.639  0.7457  0.9919  0.2787
20212SOL    HW167751  10.249  10.029   4.658 -0.6615  1.3364 -0.2085
20212SOL    HW267752  10.274  10.163   4.723 -0.2768  1.0743  0.1869
20213SOL     OW67753  12.439   8.743   3.558  0.2993 -0.1887 -0.0819
20213SOL    HW167754  12.468   8.814   3.502  1.5317 -0.0162  0.7461
20213SOL    HW267755  12.480   8.760   3.643  1.8495 -2.6488 -0.2194
20214SOL     OW67756  12.241   6.683   5.299  0.1588  0.7905 -0.1781
20214SOL    HW167757  12.182   6.738   5.351 -0.9180  1.6858 -2.2200
20214SOL    HW267758  12.329   6.712   5.325 -0.3589  2.1178  0.2106
20215SOL     OW67759   9.214   0.301   4.344 -0.7929  0.0629  0.0447
20215SOL    HW167760   9.169   0.221   4.374 -0.4376 -0.4568 -0.7785
20215SOL    HW267761   9.299   0.298   4.388 -0.4989 -0.3946 -0.5450
20216SOL     OW67762  10.875   6.413   9.898 -0.5737 -0.0296 -0.4612
20216SOL    HW167763  10.885   6.430   9.804 -1.3347  0.6328 -0.4439
20216SOL    HW267764  10.813   6.481   9.927 -0.7971 -0.5892  0.4001
20217SOL     OW67765   4.149   3.169  11.445  0.1153 -0.0438 -0.0867
20217SOL    HW167766   4.182   3.150  11.357  2.5402 -0.1393  0.7499
20217SOL    HW267767   4.214   3.129  11.503 -1.7142 -0.4725  1.7792
20218SOL     OW67768   0.415   6.161   9.022 -0.6955  0.0652  0.6998
20218SOL    HW167769   0.407   6.066   9.012 -0.5035  0.0474  0.7123
20218SOL    HW267770   0.363   6.198   8.950 -2.0850 -0.0300  1.6138
20219SOL     OW67771   0.374  12.322   1.299  0.0665 -0.2139  0.7092
20219SOL    HW167772   0.375  12.286   1.387  1.5632 -0.8009  0.4792
20219SOL    HW267773   0.328  12.256   1.247  0.1635 -0.3921  0.8464
20220SOL     OW67774   3.041  10.246   1.859  0.0545 -0.2180  0.3417
20220SOL    HW167775   3.023  10.155   1.883 -1.2055 -0.0486  0.1433
20220SOL    HW267776   3.126  10.265   1.897 -0.0629 -1.2113  1.1491
20221SOL     OW67777   7.729  11.697   1.499  0.6794  0.1706  0.1326
20221SOL    HW167778   7.765  11.781   1.526  0.1887 -0.2802  2.3391
20221SOL    HW267779   7.765  11.634   1.561  3.3650 -1.8379 -3.1163
20222SOL     OW67780   1.305   2.102   3.269 -0.5026 -0.4310  0.1213
20222SOL    HW167781   1.380   2.154   3.297 -0.2554 -0.5516 -0.3272
20222SOL    HW267782   1.274   2.060   3.350  0.4324 -1.0605  0.1749
20223SOL     OW67783   3.711  10.617   8.532 -0.1210 -0.0388  0.8080
20223SOL    HW167784   3.674  10.534   8.559 -0.3701  0.2650  1.4036
20223SOL    HW267785   3.803  10.597   8.512  0.0975 -0.2422  1.9853
20224SOL     OW67786  10.547   4.846   1.539 -0.5018  0.3439 -0.2493
20224SOL    HW167787  10.467   4.890   1.566 -0.1855  0.5439  0.3711
20224SOL    HW267788  10.559   4.775   1.602 -0.8401 -0.4472 -1.0609
20225SOL     OW67789   3.303   3.948   4.102 -0.3638  0.5936 -0.0422
20225SOL    HW167790   3.238   3.961   4.032 -2.0561 -0.7894  1.1948
20225SOL    HW267791   3.267   3.996   4.177  0.7179  0.8717  0.3087
20226SOL     OW67792   7.897   1.369   6.222  0.4279  0.0879  0.4681
20226SOL    HW167793   7.809   1.397   6.247  0.1728 -0.8609  0.6518
20226SOL    HW267794   7.937   1.340   6.304  0.2748 -1.1900  0.0976
20227SOL     OW67795   7.026   1.809   4.873  0.2176 -0.0362  0.5281
20227SOL    HW167796   7.100   1.852   4.831 -0.2857  0.2842 -0.0605
20227SOL    HW267797   7.017   1.726   4.826  0.6736 -0.4168  1.1095
20228SOL     OW67798  12.890  11.580   0.198 -0.1638 -0.6226  0.9029
20228SOL    HW167799  12.841  11.636   0.259  0.1533  0.8892 -0.1700
20228SOL    HW267800  12.878  11.622   0.112  0.2988 -2.0811  0.0973
20229SOL     OW67801   1.436   0.097  12.841 -0.1254 -0.5052  0.3799
20229SOL    HW167802   1.456   0.151  12.917 -2.6424 -0.3499  1.0083
20229SOL    HW267803   1.400   0.158  12.777  0.3122 -0.9210 -0.2791
20230SOL     OW67804   5.463  10.296  11.673  0.1968  0.1385 -0.1058
20230SOL    HW167805   5.407  10.218  11.670  0.1029  0.2158 -0.4601
20230SOL    HW267806   5.403  10.368  11.691  0.4066  0.0192  1.1427
20231SOL     OW67807  12.393  12.709   1.344  0.0991  0.5243 -0.4638
20231SOL    HW167808  12.438  12.679   1.423 -0.1521 -0.0021 -0.5166
20231SOL    HW267809  12.355  12.794   1.370 -1.0091 -0.1991  0.3734
20232SOL     OW67810  11.033   5.137   2.530 -0.0600 -0.6125 -0.0597
20232SOL    HW167811  10.943   5.109   2.510 -0.1469  0.3237 -1.0528
20232SOL    HW267812  11.023   5.218   2.578  0.2427  0.5732 -1.8946
20233SOL     OW67813   6.593  12.149   9.672  0.0315  0.0724  0.2603
20233SOL    HW167814   6.597  12.243   9.693 -1.5472  0.5954 -1.4604
20233SOL    HW267815   6.684  12.120   9.674  1.2061  2.6972 -3.2720
20234SOL     OW67816  10.913   3.694   9.478 -0.3013  1.0621  0.4398
20234SOL    HW167817  10.928   3.780   9.438 -1.0773  0.9359 -0.1384
20234SOL    HW267818  10.979   3.637   9.438 -2.8642  0.2087 -3.0307
20235SOL     OW67819   0.886   6.841   4.355  0.2621  0.3002  0.3713
20235SOL    HW167820   0.870   6.817   4.264  2.3677 -1.0819  0.2729
20235SOL    HW267821   0.857   6.764   4.405  1.8675 -0.2265  0.5582
20236SOL     OW67822   3.989   0.258   4.314 -0.5588  0.4269  0.1427
20236SOL    HW167823   3.959   0.349   4.309  0.6568  0.8771  0.6742
20236SOL    HW267824   4.079   0.260   4.282 -0.6120 -0.6510 -0.1189
20237SOL     OW67825   0.841  11.799   5.882 -0.1412 -0.1023  0.1224
20237SOL    HW167826   0.886  11.753   5.811 -0.9958 -1.1736  0.2525
20237SOL    HW267827   0.784  11.861   5.838 -0.7647 -0.8557 -0.1508
20238SOL     OW67828  12.752   0.631   0.725  0.4727  0.0361  0.2870
20238SOL    HW167829  12.846   0.618   0.738  0.6201 -0.0402 -0.7416
20238SOL    HW267830  12.726   0.559   0.668 -0.2913 -0.1518  0.8665
20239SOL     OW67831  11.269   8.264   4.071  0.2250  0.3331 -0.5386
20239SOL    HW167832  11.296   8.216   3.993 -1.3556 -0.0143 -0.8995
20239SOL    HW267833  11.218   8.202   4.122  0.2338  0.9157  0.2069
20240SOL     OW67834   3.664   6.694   3.203 -0.1593 -0.9432  0.3314
20240SOL    HW167835   3.624   6.609   3.183 -1.1153 -0.1634 -1.2554
20240SOL    HW267836   3.611   6.757   3.155 -0.4530  0.7502  2.7499
20241SOL     OW67837  10.935  12.194   6.799 -0.4292  0.4987  0.2609
20241SOL    HW167838  10.883  12.182   6.720 -0.3786  0.8210  0.1766
20241SOL    HW267839  10.996  12.119   6.799  0.1229  0.9312 -0.4440
20242SOL     OW67840   0.005   2.519   0.364 -0.1877 -0.1574  0.0811
20242SOL    HW167841   0.008   2.439   0.415 -0.7825  0.5178  1.2143
20242SOL    HW267842   0.048   2.585   0.419  0.0585  0.3677 -0.7149
20243SOL     OW67843   4.064   2.641   4.344 -0.4618 -0.0530  0.0553
20243SOL    HW167844   4.028   2.706   4.406 -1.8831 -1.6097  0.9535
20243SOL    HW267845   4.031   2.669   4.259 -1.3398  0.2322  0.4729
20244SOL     OW67846   5.366   1.518   3.553 -0.2920 -0.2909  0.1163
20244SOL    HW167847   5.301   1.533   3.623 -2.3303  1.3859 -1.9797
20244SOL    HW267848   5.337   1.574   3.481  1.5944 -2.0851 -2.1903
20245SOL     OW67849  12.442   1.204   5.441 -0.8584  0.3791  0.3016
20245SOL    HW167850  12.489   1.219   5.523 -0.4953  0.4138  0.0895
20245SOL    HW267851  12.452   1.110   5.424  0.2399  0.6033 -0.4039
20246SOL     OW67852   2.774   3.192  10.921 -0.6251 -0.1443 -0.3341
20246SOL    HW167853   2.851   3.179  10.867 -0.9787 -2.7403 -0.3386
20246SOL    HW267854   2.700   3.188  10.860 -0.9242 -1.3455  0.0697
20247SOL     OW67855   8.491   5.946  10.272  0.0678 -0.4908  0.1023
20247SOL    HW167856   8.550   5.887  10.225  0.9591  0.8352 -0.4973
20247SOL    HW267857   8.542   6.026  10.285 -1.8023  0.9523 -1.0023
20248SOL     OW67858   3.610   5.216   5.298 -0.0832 -0.0119  0.4067
20248SOL    HW167859   3.603   5.224   5.203 -3.1308  0.1558  0.5562
20248SOL    HW267860   3.574   5.298   5.331 -0.4713 -0.6894  1.7112
20249SOL     OW67861  10.611   4.688   4.411  0.3447 -0.3920  0.6128
20249SOL    HW167862  10.620   4.619   4.345  2.0415  1.3289 -1.0527
20249SOL    HW267863  10.653   4.652   4.489  2.7335 -0.7152 -0.7191
20250SOL     OW67864  10.544   5.603   7.350  0.2933  0.3566  0.2191
20250SOL    HW167865  10.467   5.552   7.376  0.6009 -0.2319 -0.0031
20250SOL    HW267866  10.594   5.612   7.432 -0.6296  1.8640  0.6524
20251SOL     OW67867   1.134   1.468   1.896 -0.0621 -0.5792  0.2739
20251SOL    HW167868   1.097   1.482   1.983  1.7643 -1.2883  1.2273
20251SOL    HW267869   1.155   1.374   1.893  1.5884 -0.2400 -0.1688
20252SOL     OW67870   0.539   1.698   7.982 -0.0525  0.5755  0.5235
20252SOL    HW167871   0.523   1.615   8.028 -0.1262  0.3766  0.1417
20252SOL    HW267872   0.467   1.704   7.919 -0.2108  1.0750  0.7480
20253SOL     OW67873   6.417   4.351   8.453  0.4349  0.1373  0.6816
20253SOL    HW167874   6.412   4.389   8.366  2.3285 -1.1794 -0.0710
20253SOL    HW267875   6.459   4.418   8.507 -0.7468  0.9550  0.6200
20254SOL     OW67876   0.408   9.425  12.139  0.0643 -0.2378 -0.4445
20254SOL    HW167877   0.424   9.349  12.195  1.4282 -0.7305 -1.4468
20254SOL    HW267878   0.410   9.390  12.050 -1.4252  0.6375 -0.8622
20255SOL     OW67879   3.988   0.729   5.345  0.0337 -0.0574 -0.4629
20255SOL    HW167880   4.005   0.641   5.380 -2.0462 -0.8151 -1.2328
20255SOL    HW267881   4.061   0.744   5.284  0.3595 -1.3038 -0.4187
20256SOL     OW67882  12.186   2.957   3.338 -0.1072 -0.1405  0.1379
20256SOL    HW167883  12.093   2.975   3.324  0.2947  2.0468 -0.0504
20256SOL    HW267884  12.192   2.931   3.430 -0.8281  0.4406  0.3624
20257SOL     OW67885  10.818   2.769   9.550  0.3993  0.0752 -0.3445
20257SOL    HW167886  10.828   2.860   9.524 -1.3083  0.5653  0.5527
20257SOL    HW267887  10.861   2.719   9.481  1.4288  1.5502 -0.8131
20258SOL     OW67888   8.693   5.276   5.056 -0.0263  0.3282 -0.0079
20258SOL    HW167889   8.622   5.288   4.994 -0.1775  0.0631  0.1128
20258SOL    HW267890   8.650   5.251   5.138 -0.0096  2.6189  0.7862
20259SOL     OW67891   8.518   9.536   4.364  0.1955 -0.6030 -0.4422
20259SOL    HW167892   8.444   9.583   4.402 -1.1595 -0.7517 -2.7634
20259SOL    HW267893   8.569   9.604   4.319 -0.1330 -0.8982 -1.2792
20260SOL     OW67894   3.769  12.918  10.441  0.0892  0.1846  0.0198
20260SOL    HW167895   3.828  12.845  10.463 -0.1426  0.2200  0.7588
20260SOL    HW267896   3.827  12.993  10.431  0.5791 -0.4269 -2.5913
20261SOL     OW67897   1.672  11.613   5.431  0.1948 -0.0438  0.4120
20261SOL    HW167898   1.703  11.547   5.493 -0.7437 -0.8593  0.0562
20261SOL    HW267899   1.585  11.581   5.405 -0.7073  1.8462  0.9644
20262SOL     OW67900   2.722   5.450  10.420 -0.5027 -0.0355 -0.9095
20262SOL    HW167901   2.753   5.535  10.452 -0.3623 -0.0185 -1.0910
20262SOL    HW267902   2.629   5.450  10.443 -0.4035 -0.0289 -0.4938
20263SOL     OW67903   3.765  11.485   5.232  0.1500  0.9658  0.5623
20263SOL    HW167904   3.717  11.402   5.232  1.5866  0.0156 -1.9340
20263SOL    HW267905   3.697  11.552   5.241 -1.4699 -0.3732 -1.0122
20264SOL     OW67906   4.569   3.738   1.923  0.0687 -0.4237 -0.0051
20264SOL    HW167907   4.644   3.770   1.973 -0.0123 -0.7125  0.3085
20264SOL    HW267908   4.597   3.651   1.892  0.7135  0.3684 -1.7775
20265SOL     OW67909  10.321   5.684   8.349  0.1421 -0.8131 -0.1003
20265SOL    HW167910  10.383   5.665   8.419  0.9622  0.1880 -0.5263
20265SOL    HW267911  10.246   5.726   8.393  1.7060  2.1557 -0.0205
20266SOL     OW67912   0.175   4.443  12.729 -0.0352  0.2722 -0.1392
20266SOL    HW167913   0.228   4.483  12.660  1.6891  0.5486  1.2642
20266SOL    HW267914   0.237   4.387  12.776 -0.8784  0.9368  1.8381
20267SOL     OW67915   6.247   8.364   1.552  0.5657 -0.2263  0.5412
20267SOL    HW167916   6.273   8.448   1.515 -0.6636  0.7298  1.7578
20267SOL    HW267917   6.302   8.300   1.507  1.1840  1.1660 -0.7594
20268SOL     OW67918  10.193   4.560   2.012  0.6451  0.1860  0.1120
20268SOL    HW167919  10.130   4.562   2.084 -2.2966 -0.0555 -2.2529
20268SOL    HW267920  10.223   4.651   2.005 -1.9801  1.1009 -0.6418
20269SOL     OW67921   2.148  12.866   8.290 -0.2572 -0.1799  0.0575
20269SOL    HW167922   2.235  12.881   8.330  0.2579 -1.1854 -0.6548
20269SOL    HW267923   2.139  12.937   8.227 -1.3340  1.7903  2.2719
20270SOL     OW67924   9.098   1.920  11.980  0.5372 -0.1633 -0.3958
20270SOL    HW167925   9.114   1.944  11.888  0.5461 -0.5557 -0.4983
20270SOL    HW267926   9.178   1.945  12.026  0.9338 -0.8871 -0.6719
20271SOL     OW67927   8.004   0.303   0.157 -0.3417  0.3596  0.0932
20271SOL    HW167928   8.026   0.395   0.175  1.1553  0.3193 -1.3210
20271SOL    HW267929   8.047   0.254   0.228  0.0555  0.6578  0.0648
20272SOL     OW67930   7.974   7.257  10.000 -0.0157 -0.5466 -0.0077
20272SOL    HW167931   7.988   7.343   9.962  0.9958 -0.2401  1.0332
20272SOL    HW267932   7.968   7.272  10.094 -1.9703 -1.3583  0.0547
20273SOL     OW67933   8.404   2.677   4.655 -0.4471 -0.2490  0.1252
20273SOL    HW167934   8.315   2.706   4.672 -0.3156 -0.3745  1.1196
20273SOL    HW267935   8.442   2.745   4.600 -0.7082  0.5341  0.8985
20274SOL     OW67936   0.811   1.278   8.360 -0.0849  0.2388 -0.2479
20274SOL    HW167937   0.861   1.297   8.439 -0.8154  0.3422  0.1943
20274SOL    HW267938   0.783   1.187   8.370  0.9506 -0.1931 -1.0210
20275SOL     OW67939  12.198   8.366   9.648 -0.1941  0.0215  0.0984
20275SOL    HW167940  12.280   8.347   9.603 -0.0211 -0.3424  0.5647
20275SOL    HW267941  12.222   8.430   9.715 -0.4247  0.4502 -0.2232
20276SOL     OW67942   1.944  11.439   9.737 -0.2856 -0.1043 -0.5348
20276SOL    HW167943   1.870  11.388   9.703  0.8460 -2.0804 -0.2161
20276SOL    HW267944   1.973  11.391   9.815  1.6057  0.3259 -0.9119
20277SOL     OW67945   9.217   8.839   7.085 -0.0582 -0.4144 -0.0768
20277SOL    HW167946   9.233   8.914   7.142 -0.2136 -0.8722  0.5828
20277SOL    HW267947   9.182   8.877   7.004 -3.2640  0.0707  1.3693
20278SOL     OW67948  12.004   9.283   2.311  0.3142 -0.0222  0.6860
20278SOL    HW167949  12.031   9.325   2.392  1.1681  1.9418 -0.5639
20278SOL    HW267950  12.079   9.230   2.285  0.0978 -0.5295  1.0774
20279SOL     OW67951   8.247   6.658   9.997 -0.4677  0.0170 -0.2274
20279SOL    HW167952   8.264   6.585  10.057  1.5547  1.4151  1.0583
20279SOL    HW267953   8.193   6.719  10.048 -0.6460  0.2036 -0.6385
20280SOL     OW67954   7.755   1.400   7.043 -0.5028 -0.4302 -0.4079
20280SOL    HW167955   7.799   1.455   7.107 -0.5665  2.3878 -2.5896
20280SOL    HW267956   7.711   1.333   7.095  2.2015 -0.3973  2.1869
20281SOL     OW67957  11.970  12.091  11.274 -0.5414 -0.2238  0.3192
20281SOL    HW167958  11.968  12.167  11.216 -1.2187 -0.9892 -0.6999
20281SOL    HW267959  12.035  12.032  11.234 -1.7514 -1.2026 -0.2866
20282SOL     OW67960  12.001   3.143   0.745 -0.2558 -0.5526 -0.0195
20282SOL    HW167961  11.971   3.066   0.696  0.5761 -1.2558  0.5448
20282SOL    HW267962  11.925   3.201   0.746 -1.2674 -1.8194  0.4536
20283SOL     OW67963   6.490   4.835   1.684  0.0566  0.3542 -0.0403
20283SOL    HW167964   6.401   4.810   1.662  0.0013  0.2205  0.3148
20283SOL    HW267965   6.508   4.787   1.766  0.5032  0.2606 -0.1902
20284SOL     OW67966   9.451  11.630   4.064  0.2585 -0.1522  0.3119
20284SOL    HW167967   9.423  11.651   4.153 -1.0609  0.0265 -0.1293
20284SOL    HW267968   9.404  11.550   4.042  0.0198  0.2014 -0.4823
20285SOL     OW67969   9.273   5.706   4.092  0.6607 -0.1752  0.0737
20285SOL    HW167970   9.330   5.725   4.167  1.2749  1.0343 -0.6701
20285SOL    HW267971   9.201   5.768   4.101  0.8633  0.1445 -0.4511
20286SOL     OW67972   8.043   6.184  10.942  0.4822 -0.1137  0.5285
20286SOL    HW167973   8.043   6.209  11.035 -0.9808 -0.5434  0.6789
20286SOL    HW267974   8.042   6.088  10.944  3.6555 -0.2532 -0.0081
20287SOL     OW67975   4.190   1.210   8.585  0.0893  0.2838  0.2361
20287SOL    HW167976   4.229   1.246   8.505  0.0502  1.4377  0.7204
20287SOL    HW267977   4.253   1.144   8.614  1.7835  2.1576  1.0391
20288SOL     OW67978   4.544  10.702   5.622  0.6170  0.1265 -0.2974
20288SOL    HW167979   4.559  10.764   5.551  0.9755  0.0392 -0.2992
20288SOL    HW267980   4.548  10.755   5.702  0.6694  0.1487 -0.3149
20289SOL     OW67981   2.211   2.083   2.655  0.0615 -0.0740 -0.4692
20289SOL    HW167982   2.238   1.994   2.635  1.2269  0.1886 -0.0977
20289SOL    HW267983   2.122   2.073   2.691  0.1092 -1.0541 -0.5893
20290SOL     OW67984   2.849   0.911   2.898  0.0894  0.2507 -0.0545
20290SOL    HW167985   2.905   0.952   2.964 -0.2325  1.0424 -0.2637
20290SOL    HW267986   2.775   0.972   2.887  0.2366  0.2405 -1.2884
20291SOL     OW67987  11.940   7.883   4.080  0.3347 -0.1806 -0.2187
20291SOL    HW167988  12.000   7.944   4.038  0.4984  1.5287  2.2989
20291SOL    HW267989  11.875   7.938   4.123 -0.4021 -1.8265  0.8985
20292SOL     OW67990  12.692   2.547  11.569 -0.0949 -0.2311  0.0954
20292SOL    HW167991  12.764   2.526  11.628 -1.1357 -1.8879  0.8358
20292SOL    HW267992  12.668   2.637  11.592  1.2739  0.1189  0.2810
20293SOL     OW67993  10.522   0.253   9.385 -0.1528 -0.1462 -0.8775
20293SOL    HW167994  10.469   0.330   9.367 -0.6645 -0.0143  0.9473
20293SOL    HW267995  10.612   0.286   9.387 -0.1413 -0.0517 -2.3368
20294SOL     OW67996  12.098  11.117  12.599 -0.4470  0.0501 -0.2128
20294SOL    HW167997  12.048  11.035  12.611  2.9626 -2.1966  0.0237
20294SOL    HW267998  12.077  11.145  12.510 -0.4434 -2.0782 -0.9460
20295SOL     OW67999   6.090   5.120   6.559  0.4594 -0.2421 -0.4167
20295SOL    HW168000   6.047   5.057   6.618  1.5990 -0.6745 -0.0287
20295SOL    HW268001   6.048   5.106   6.475 -1.7496  0.9009  0.4069
20296SOL     OW68002   1.870   2.256   5.664  0.0037 -0.0438 -0.1714
20296SOL    HW168003   1.898   2.347   5.663 -0.7201  0.1846 -0.1080
20296SOL    HW268004   1.933   2.211   5.608  0.0979  0.5785 -0.5745
20297SOL     OW68005   0.515   4.550  10.335 -0.5857  0.0857 -0.2387
20297SOL    HW168006   0.457   4.626  10.329  0.4663  0.8478 -1.2092
20297SOL    HW268007   0.456   4.474  10.331 -1.6897  0.8282  1.1133
20298SOL     OW68008   6.830   7.596   0.603 -0.2473  0.1410  0.4648
20298SOL    HW168009   6.812   7.533   0.533 -1.6033 -0.0592  0.9620
20298SOL    HW268010   6.919   7.576   0.631  0.5142  0.5300 -1.4939
20299SOL     OW68011  10.066  10.402   9.534  0.0917 -0.2232  0.6966
20299SOL    HW168012  10.065  10.319   9.487  0.1661 -0.9518  1.9322
20299SOL    HW268013   9.985  10.446   9.507  0.2431 -0.5102 -0.2654
20300SOL     OW68014  12.539   3.018   8.060  0.6783 -0.2559 -0.4810
20300SOL    HW168015  12.453   2.990   8.091  1.8246 -1.6076  1.6475
20300SOL    HW268016  12.553   3.103   8.102  1.3143 -1.0848  1.0177
20301SOL     OW68017   3.319   5.070   7.684 -0.2796 -0.3046  0.5776
20301SOL    HW168018   3.354   5.157   7.705  0.4729 -0.1075 -1.2186
20301SOL    HW268019   3.396   5.019   7.657 -0.8160 -1.2830  0.8415
20302SOL     OW68020   4.812   8.143   2.392  0.1778 -0.5638  0.3193
20302SOL    HW168021   4.821   8.207   2.322 -0.3539  0.0055  0.7664
20302SOL    HW268022   4.874   8.172   2.459  1.1183 -1.4379 -0.1377
20303SOL     OW68023   9.590   5.483   2.309 -0.2596 -0.4349  0.6557
20303SOL    HW168024   9.658   5.487   2.376  0.3417 -2.6158  0.2476
20303SOL    HW268025   9.524   5.424   2.345  0.4610 -2.3046 -0.9451
20304SOL     OW68026   9.727   9.846   8.408 -0.7420 -0.1401 -0.5517
20304SOL    HW168027   9.750   9.882   8.323  1.6229  0.3051  0.2045
20304SOL    HW268028   9.747   9.917   8.470  2.4030 -2.0000  0.8034
20305SOL     OW68029   9.881   8.193   0.552  0.2782 -0.0679 -0.4152
20305SOL    HW168030   9.805   8.143   0.582  0.0239  1.1451  1.1118
20305SOL    HW268031   9.843   8.272   0.513  0.7279  0.6669  0.5938
20306SOL     OW68032  10.696   5.026   2.325 -0.8117 -0.3606 -0.2718
20306SOL    HW168033  10.656   4.947   2.287  0.2253 -0.9678 -0.1486
20306SOL    HW268034  10.749   4.993   2.398  0.2158  0.3578 -0.6696
20307SOL     OW68035   9.883   0.869   9.821  0.2635 -0.5399  0.1754
20307SOL    HW168036   9.790   0.892   9.814  0.2406 -0.6811  0.0069
20307SOL    HW268037   9.927   0.932   9.764  0.2204 -0.7856 -0.1333
20308SOL     OW68038   0.773   2.574   3.961 -0.2693  0.2198  0.0561
20308SOL    HW168039   0.783   2.508   3.893 -0.0273  1.0198 -0.7043
20308SOL    HW268040   0.806   2.655   3.922 -0.5269  0.7925  0.9731
20309SOL     OW68041   9.763   4.001   0.364 -0.2298 -0.6346 -0.1778
20309SOL    HW168042   9.828   3.967   0.425 -1.8805 -1.3039  1.2934
20309SOL    HW268043   9.811   4.064   0.310  1.8167 -1.8055  0.1985
20310SOL     OW68044  11.824   3.421   1.097  0.3300  0.6473 -0.1181
20310SOL    HW168045  11.825   3.433   1.002  2.1683  0.7926 -0.1157
20310SOL    HW268046  11.759   3.352   1.112 -1.6287  2.1361 -1.2342
20311SOL     OW68047   2.836  12.476  11.722  0.8628 -0.2291  0.2109
20311SOL    HW168048   2.847  12.540  11.792  0.2190  1.3703 -1.0870
20311SOL    HW268049   2.746  12.446  11.731  0.1509  1.4226 -1.0544
20312SOL     OW68050   9.363   9.388   6.867  0.0497 -0.0351 -0.4205
20312SOL    HW168051   9.306   9.392   6.944  1.1864  0.2680  0.4406
20312SOL    HW268052   9.325   9.450   6.805 -0.3901  0.3815  0.2539
20313SOL     OW68053   5.021   5.509  11.346  0.2690  0.0927  0.3372
20313SOL    HW168054   5.085   5.569  11.308 -0.3480  0.8063  0.4222
20313SOL    HW268055   5.042   5.509  11.440 -0.2109  0.7680  0.4493
20314SOL     OW68056   6.897   5.108   9.299 -0.0373  0.1203  0.7445
20314SOL    HW168057   6.976   5.134   9.345  0.3688 -0.2448  0.2587
20314SOL    HW268058   6.922   5.029   9.250 -1.6548 -2.3489  3.5370
20315SOL     OW68059  11.909   7.212   9.235  0.0811  0.6298  0.4839
20315SOL    HW168060  11.857   7.194   9.156  0.1120  0.4480  0.5027
20315SOL    HW268061  11.999   7.198   9.208  0.1133  0.8678  0.4720
20316SOL     OW68062   4.617   5.105   6.527  0.2882  0.4465  0.2229
20316SOL    HW168063   4.673   5.074   6.598  0.4261 -2.9551 -1.1664
20316SOL    HW268064   4.544   5.148   6.570  1.9273  1.3657  2.2410
20317SOL     OW68065   1.017   5.003  10.432 -0.0957  0.2509  0.5126
20317SOL    HW168066   1.097   4.961  10.399  1.1701  3.9571 -1.7688
20317SOL    HW268067   0.947   4.941  10.411  1.6646 -1.0695 -1.9609
20318SOL     OW68068   8.840   3.871   4.344 -0.2460  0.3571  0.0311
20318SOL    HW168069   8.750   3.837   4.346 -0.2378  0.1848 -1.4031
20318SOL    HW268070   8.832   3.961   4.376 -1.0439  0.5428 -0.6402
20319SOL     OW68071   8.130   9.719   1.407 -0.5194  0.1988  0.2864
20319SOL    HW168072   8.149   9.809   1.381 -2.9190  1.1592  1.5588
20319SOL    HW268073   8.153   9.715   1.500  0.5084 -0.8394  0.0145
20320SOL     OW68074   1.130   8.587   8.614  0.3933  0.3387 -0.1148
20320SOL    HW168075   1.084   8.588   8.698 -0.1537  2.5600 -0.3699
20320SOL    HW268076   1.177   8.503   8.613 -2.8812 -1.6697  0.5498
20321SOL     OW68077   0.014   3.167   6.910 -0.8077  0.2640 -0.1692
20321SOL    HW168078   0.073   3.126   6.974 -1.8791 -0.8002  0.1698
20321SOL    HW268079  -0.024   3.241   6.957 -1.5465 -0.4766  0.4316
20322SOL     OW68080   3.138   3.583  10.181 -0.0267 -0.0774  0.3216
20322SOL    HW168081   3.057   3.596  10.230 -0.3184 -0.3925 -0.0640
20322SOL    HW268082   3.193   3.531  10.239  0.1778  0.7228  0.8637
20323SOL     OW68083   6.356  11.980   2.558  0.0453  0.5035 -0.8612
20323SOL    HW168084   6.333  12.045   2.625 -0.9682  0.5867 -1.2748
20323SOL    HW268085   6.291  11.910   2.569 -0.0237  0.4357 -1.6483
20324SOL     OW68086  11.890   5.402   3.453 -0.4781 -0.3617 -0.0665
20324SOL    HW168087  11.836   5.330   3.420 -0.0154 -1.0982  0.7465
20324SOL    HW268088  11.868   5.476   3.396 -0.7698 -1.2061 -1.0886
20325SOL     OW68089  11.342   1.107   5.959 -0.2150 -0.5822 -0.1973
20325SOL    HW168090  11.383   1.037   5.908  1.2902  0.6001 -0.7018
20325SOL    HW268091  11.414   1.168   5.977 -1.6477  1.2900 -0.5579
20326SOL     OW68092   1.732   0.222   0.509  0.5009  0.5478 -0.2698
20326SOL    HW168093   1.735   0.231   0.604  3.5824  0.1145 -0.2326
20326SOL    HW268094   1.666   0.154   0.493 -0.8719  1.4024  1.4140
20327SOL     OW68095   8.923   7.798   2.476 -0.5964  0.1072 -0.2214
20327SOL    HW168096   8.927   7.726   2.539 -0.6913 -0.8413 -1.2688
20327SOL    HW268097   8.947   7.758   2.393 -0.8702  1.2449 -0.8653
20328SOL     OW68098   7.311   6.402   0.203 -0.0975  0.3869 -0.2899
20328SOL    HW168099   7.372   6.455   0.254  0.4728  0.4443 -1.0102
20328SOL    HW268100   7.367   6.340   0.157 -0.8243 -1.5624  1.3335
20329SOL     OW68101   6.700   5.372   5.988  0.4793  0.1337  0.1389
20329SOL    HW168102   6.790   5.341   5.976  0.0458 -2.1003  1.8762
20329SOL    HW268103   6.701   5.415   6.073  0.3515  2.2361 -0.8707
20330SOL     OW68104   4.276   5.193  12.873 -0.1444 -0.4940 -0.0052
20330SOL    HW168105   4.256   5.157  12.959  1.4704 -1.0364  0.1813
20330SOL    HW268106   4.311   5.119  12.824 -0.2295  0.0098 -0.8507
20331SOL     OW68107   8.065   5.427   1.790  0.0008 -0.8446  0.3485
20331SOL    HW168108   8.078   5.478   1.870 -1.4607 -2.3217  1.5915
20331SOL    HW268109   8.009   5.482   1.735  1.8585  0.6322 -0.1840
20332SOL     OW68110   1.347   2.840   8.210  0.0294  0.6386 -0.0668
20332SOL    HW168111   1.341   2.750   8.244 -1.2420  1.5827  2.5208
20332SOL    HW268112   1.256   2.864   8.192  0.4609  1.1014 -1.7093
20333SOL     OW68113   1.484   6.664  12.286 -0.4198 -0.0362 -0.7260
20333SOL    HW168114   1.488   6.740  12.345 -1.4481 -1.0516  0.7184
20333SOL    HW268115   1.574   6.633  12.281 -0.6665 -1.9140  3.0938
20334SOL     OW68116  11.684   1.331   1.336 -0.4448 -0.3291  1.0455
20334SOL    HW168117  11.620   1.281   1.285 -0.2489  0.1568  0.3143
20334SOL    HW268118  11.654   1.421   1.331  0.2787 -0.0999  0.7240
20335SOL     OW68119   3.208   2.109   0.518  0.3346  0.2110  0.0236
20335SOL    HW168120   3.148   2.130   0.446  0.9412  0.6280 -0.3739
20335SOL    HW268121   3.192   2.177   0.583  1.0456  0.9074 -0.5030
20336SOL     OW68122   7.611   7.143   1.858 -0.1870 -0.0904  0.3463
20336SOL    HW168123   7.534   7.102   1.817 -0.5912 -1.5220  2.3712
20336SOL    HW268124   7.604   7.235   1.834 -0.9093 -0.6624 -1.9132
20337SOL     OW68125   3.119   7.677  10.096  0.4987  0.2332  0.3189
20337SOL    HW168126   3.050   7.744  10.093  0.3687  0.0732 -0.7429
20337SOL    HW268127   3.180   7.703  10.027  2.5687  1.4636  2.5026
20338SOL     OW68128   0.230   4.873   7.382  0.7017  0.4053 -0.3940
20338SOL    HW168129   0.222   4.779   7.365 -2.0005 -0.2191  3.0416
20338SOL    HW268130   0.182   4.914   7.310  0.0296 -1.0460 -0.8264
20339SOL     OW68131  12.840  10.979   6.854  0.3189 -0.0719 -0.2707
20339SOL    HW168132  12.818  11.060   6.900  1.5892  1.5972 -2.3963
20339SOL    HW268133  12.874  10.921   6.922 -0.8361  1.0502  1.3553
20340SOL     OW68134   7.271   5.113   6.454 -0.1618 -0.2085  0.2206
20340SOL    HW168135   7.220   5.102   6.534  0.3935  1.5836  0.8628
20340SOL    HW268136   7.225   5.059   6.389 -2.1397  0.3436  1.0892
20341SOL     OW68137   6.419   3.989   2.796 -0.5074  0.1057 -0.0033
20341SOL    HW168138   6.436   3.917   2.735 -3.0438 -1.3474  0.8637
20341SOL    HW268139   6.475   3.972   2.871 -1.8461 -1.6412  0.6516
20342SOL     OW68140   2.981   5.397   9.078  0.6028 -0.0109 -0.2827
20342SOL    HW168141   2.972   5.482   9.121  0.8604 -0.1743  0.1008
20342SOL    HW268142   2.994   5.418   8.985  0.7088  0.3646 -0.1851
20343SOL     OW68143   4.528  12.565   6.863  0.1819 -0.3937  0.1754
20343SOL    HW168144   4.496  12.624   6.796  2.1056 -1.2990 -1.6588
20343SOL    HW268145   4.616  12.540   6.833  1.3013 -0.5368  3.2440
20344SOL     OW68146   2.090   4.201  11.283 -0.7067 -0.0990 -0.3616
20344SOL    HW168147   2.017   4.205  11.221 -0.2317 -0.9732 -0.9868
20344SOL    HW268148   2.161   4.247  11.239 -0.1423 -1.3638 -0.7835
20345SOL     OW68149   7.969   6.810   4.267 -0.1145  0.1366 -0.2779
20345SOL    HW168150   8.049   6.785   4.312 -0.6865 -0.2719  0.5394
20345SOL    HW268151   7.906   6.742   4.291 -0.7522  0.5424 -0.7674
20346SOL     OW68152  11.509   7.400   0.260 -0.8675 -0.2213  0.2255
20346SOL    HW168153  11.448   7.443   0.201 -2.1317 -3.7629 -1.2882
20346SOL    HW268154  11.591   7.396   0.211  0.2679  2.8798  1.5587
20347SOL     OW68155   7.515   2.477   2.163  0.2509 -0.0965  0.4878
20347SOL    HW168156   7.541   2.485   2.071  0.0873 -0.9076  0.3625
20347SOL    HW268157   7.444   2.412   2.162  0.9167 -0.8498  1.3081
20348SOL     OW68158   5.429   9.275  11.372  0.1938  0.0290  0.1053
20348SOL    HW168159   5.361   9.264  11.439 -0.0611  0.1024 -0.1394
20348SOL    HW268160   5.499   9.323  11.417  1.0695 -1.9902  1.0176
20349SOL     OW68161   7.253   6.963  10.896  0.1603  0.1489  0.0903
20349SOL    HW168162   7.328   7.017  10.872  0.5477 -0.4490 -0.0682
20349SOL    HW268163   7.287   6.902  10.961  0.0677 -0.7824 -0.7023
20350SOL     OW68164   4.265  11.924  11.245 -0.0034  0.1648 -0.1071
20350SOL    HW168165   4.339  11.984  11.239 -0.2746  0.4029 -1.5371
20350SOL    HW268166   4.211  11.945  11.168 -1.4585 -0.1280  0.7958
20351SOL     OW68167   1.692  10.055   3.810  0.2033  0.3612  0.2437
20351SOL    HW168168   1.624  10.014   3.864 -1.9393  0.8304 -1.9237
20351SOL    HW268169   1.695  10.001   3.731  1.9316  0.7403  0.0109
20352SOL     OW68170   7.367   1.187   2.342 -0.2814 -0.2885 -0.3328
20352SOL    HW168171   7.358   1.092   2.344  0.8383 -0.4743  3.0114
20352SOL    HW268172   7.301   1.218   2.405 -1.4467  1.3101 -2.2393
20353SOL     OW68173   5.119   8.111   1.667 -0.7115 -0.2301  0.5528
20353SOL    HW168174   5.035   8.119   1.711  0.4056  2.3340  2.4524
20353SOL    HW268175   5.183   8.108   1.738  1.0070  1.3320 -0.8291
20354SOL     OW68176   5.599   1.766   9.117  0.4228 -0.1987 -0.2250
20354SOL    HW168177   5.569   1.681   9.086  1.9889 -1.4287  1.3794
20354SOL    HW268178   5.576   1.827   9.047  0.3291 -2.1336 -1.9752
20355SOL     OW68179   5.156   7.229  10.333 -0.0901  0.1314  0.2498
20355SOL    HW168180   5.238   7.183  10.315 -0.9067 -1.2102 -0.2366
20355SOL    HW268181   5.140   7.282  10.255  1.0576  1.6077  0.9760
20356SOL     OW68182   9.565   3.976   9.862 -0.0750 -0.1757 -0.0998
20356SOL    HW168183   9.608   4.040   9.805 -0.8497 -0.5807 -1.1892
20356SOL    HW268184   9.507   3.927   9.803 -1.7804  0.1327  1.2329
20357SOL     OW68185   3.329   4.259  12.454 -1.0397 -0.1373  0.9117
20357SOL    HW168186   3.368   4.189  12.402 -0.9314  0.1849  0.5463
20357SOL    HW268187   3.236   4.240  12.453 -0.9572 -0.5713  1.2664
20358SOL     OW68188   0.365   9.000  12.594  0.0083  0.5821 -0.1058
20358SOL    HW168189   0.452   9.010  12.554  0.9201  1.2499  1.9001
20358SOL    HW268190   0.348   9.086  12.634 -1.3338  0.2794 -0.0033
20359SOL     OW68191   8.289  11.896   9.858  0.4488  0.3396 -0.5643
20359SOL    HW168192   8.217  11.943   9.816 -1.2876 -3.0629 -1.7821
20359SOL    HW268193   8.351  11.879   9.787  0.1230 -0.7657 -0.6053
20360SOL     OW68194  10.908   5.363   0.932  0.1528 -0.1175  1.0148
20360SOL    HW168195  10.900   5.318   1.016 -1.3371  0.5709  1.2756
20360SOL    HW268196  10.839   5.430   0.934  0.1384 -0.0334 -0.7240
20361SOL     OW68197   6.437  10.482  12.001 -0.1953  0.3145 -0.4163
20361SOL    HW168198   6.436  10.520  12.089  0.0084 -0.9616  0.1538
20361SOL    HW268199   6.408  10.553  11.944 -3.6638  0.2428  1.0273
20362SOL     OW68200   6.054   9.074   1.560  0.0029 -0.7323 -0.3788
20362SOL    HW168201   5.980   9.014   1.560 -0.9738  0.4236 -1.2457
20362SOL    HW268202   6.052   9.116   1.646 -1.6500  0.7848 -1.1013
20363SOL     OW68203   4.389   8.490   6.113 -0.3113  0.7139 -0.7501
20363SOL    HW168204   4.333   8.562   6.141  1.7806  2.0393  0.2522
20363SOL    HW268205   4.479   8.520   6.130  0.6945 -1.8007 -1.0629
20364SOL     OW68206   8.476   9.811  11.685 -0.3891  0.3738 -0.0371
20364SOL    HW168207   8.398   9.771  11.647 -1.2509  0.5116  1.5283
20364SOL    HW268208   8.547   9.786  11.625 -1.6030  0.2146 -1.4582
20365SOL     OW68209  10.427   3.242   9.787 -0.1003  0.0006  0.3664
20365SOL    HW168210  10.484   3.167   9.804 -0.8254 -0.5530  0.4166
20365SOL    HW268211  10.371   3.214   9.715 -0.2117  0.5920  0.2159
20366SOL     OW68212   1.039   8.527  10.241 -0.2706  0.0237  0.2975
20366SOL    HW168213   1.008   8.618  10.237 -0.2159  0.0889  1.0807
20366SOL    HW268214   1.125   8.534  10.284  0.0517 -0.3294 -0.2815
20367SOL     OW68215  10.360   0.565   4.418 -0.1935 -0.1324 -0.2394
20367SOL    HW168216  10.302   0.522   4.480  0.9048 -1.3341  0.0108
20367SOL    HW268217  10.320   0.650   4.401 -1.6561 -0.6736  0.4084
20368SOL     OW68218   5.989   5.352   3.324 -0.4616 -0.2991  0.4073
20368SOL    HW168219   6.034   5.382   3.245 -0.4046 -2.3099 -0.3865
20368SOL    HW268220   5.932   5.425   3.349 -0.1135  0.5649 -1.2002
20369SOL     OW68221   9.139   2.390   2.189  0.2477 -0.2125 -0.0942
20369SOL    HW168222   9.223   2.433   2.173  0.3053  0.2592  1.2784
20369SOL    HW268223   9.085   2.459   2.228  0.1035 -1.1810  1.4944
20370SOL     OW68224   9.030   2.335   1.135  0.3319 -0.2637  0.2438
20370SOL    HW168225   9.068   2.286   1.062  0.0497  1.3582 -1.0315
20370SOL    HW268226   8.987   2.410   1.094 -0.0001  0.5908  2.0732
20371SOL     OW68227  12.294   0.722  12.211  0.9187  0.1859  0.0415
20371SOL    HW168228  12.274   0.667  12.136 -2.2966  0.4232  0.5733
20371SOL    HW268229  12.313   0.808  12.174 -0.6616  0.3079 -0.5522
20372SOL     OW68230   8.285  12.439   1.253 -0.4558  0.0478 -0.5121
20372SOL    HW168231   8.211  12.485   1.293  0.1010  0.0737  0.5006
20372SOL    HW268232   8.349  12.508   1.235 -0.1354 -0.1557 -0.1555
20373SOL     OW68233   5.180   2.265   0.464 -0.2817  0.0029 -0.9239
20373SOL    HW168234   5.183   2.340   0.524 -0.1864 -1.2677  0.7480
20373SOL    HW268235   5.271   2.253   0.436  0.5165 -1.8410  1.9976
20374SOL     OW68236   0.541   5.561   2.419 -0.0860  0.3776  0.4081
20374SOL    HW168237   0.551   5.624   2.348  1.2121  0.0295  0.2630
20374SOL    HW268238   0.446   5.551   2.429 -0.2951  1.5398 -0.2777
20375SOL     OW68239   1.716   5.271   1.050 -0.2211 -0.7955 -0.3463
20375SOL    HW168240   1.638   5.232   1.012 -1.7293 -0.6877  2.3735
20375SOL    HW268241   1.711   5.364   1.026 -1.9608 -0.4224  1.2360
20376SOL     OW68242   0.556   5.351   9.830 -0.1916 -0.3895  0.3221
20376SOL    HW168243   0.548   5.444   9.807 -0.4672 -0.3273  0.6625
20376SOL    HW268244   0.552   5.305   9.746 -0.1073 -0.0976  0.1553
20377SOL     OW68245   4.443   1.391   3.276  0.1215  0.0161 -0.4819
20377SOL    HW168246   4.462   1.465   3.218 -0.1794 -0.1918 -0.8501
20377SOL    HW268247   4.447   1.315   3.219  2.9630 -0.5875  0.3517
20378SOL     OW68248   6.900   2.827   4.687  0.4059 -0.1974 -0.1775
20378SOL    HW168249   6.925   2.892   4.752 -0.4909  0.7359 -0.7351
20378SOL    HW268250   6.902   2.874   4.604 -2.2903 -0.2552 -0.3620
20379SOL     OW68251   9.463   8.935   6.026  0.3381 -0.1211 -0.3628
20379SOL    HW168252   9.395   8.889   5.976 -0.4241  1.3754 -0.8004
20379SOL    HW268253   9.522   8.969   5.959 -1.0937  2.5315 -0.4157
20380SOL     OW68254  12.934  12.571  10.716  0.1982 -0.5494 -0.0421
20380SOL    HW168255  12.912  12.656  10.754  1.9191 -0.0899  0.0063
20380SOL    HW268256  12.907  12.577  10.625  1.1319  0.4171 -0.2771
20381SOL     OW68257  12.646   3.859   4.155 -0.4220 -0.5510 -0.7592
20381SOL    HW168258  12.567   3.895   4.115 -1.5769 -2.3497 -0.2045
20381SOL    HW268259  12.712   3.928   4.145 -2.5235  1.7542  0.4258
20382SOL     OW68260   7.857   9.503   7.118  0.1051 -0.0175 -0.4246
20382SOL    HW168261   7.920   9.525   7.187  0.7116  0.9452 -1.2546
20382SOL    HW268262   7.808   9.429   7.154  1.1776 -0.2900  0.5681
20383SOL     OW68263   1.075   7.507  11.756 -0.1063 -0.2996  0.0823
20383SOL    HW168264   1.108   7.532  11.670 -0.9874 -0.2863 -0.2574
20383SOL    HW268265   1.010   7.574  11.777 -1.0315 -1.1621  0.0566
20384SOL     OW68266   2.815   3.829   1.406  0.6904 -0.2844  0.3049
20384SOL    HW168267   2.868   3.849   1.329 -0.8681  0.5818 -0.5854
20384SOL    HW268268   2.786   3.914   1.439 -0.7493 -0.7367  0.3017
20385SOL     OW68269  12.724   6.294   8.870 -0.1539 -0.0497 -0.5028
20385SOL    HW168270  12.761   6.317   8.955  0.1235  1.8872 -1.0820
20385SOL    HW268271  12.682   6.210   8.884 -0.2836  0.3030  1.6000
20386SOL     OW68272  12.576   1.620   4.753  0.0691 -0.4429 -0.2774
20386SOL    HW168273  12.512   1.564   4.796  0.4458 -0.4899  0.2272
20386SOL    HW268274  12.607   1.568   4.679  1.2361 -1.3886  0.8225
20387SOL     OW68275   2.833   9.146   8.258 -0.3057  0.3217 -0.1611
20387SOL    HW168276   2.913   9.095   8.246 -0.2030  0.3960  0.1860
20387SOL    HW268277   2.798   9.159   8.169 -0.6917 -0.9229 -0.2070
20388SOL     OW68278   9.573   1.768   7.097  0.0707  0.1073  0.0246
20388SOL    HW168279   9.566   1.851   7.048 -0.1157 -0.3125 -0.6787
20388SOL    HW268280   9.482   1.742   7.112  0.1206 -0.5327 -0.7424
20389SOL     OW68281   2.976  12.108   6.186 -0.0478  0.0947  0.7071
20389SOL    HW168282   3.001  12.154   6.106 -0.7885 -1.2484 -0.3453
20389SOL    HW268283   3.001  12.017   6.170 -1.5138 -0.4712  1.3879
20390SOL     OW68284  10.771   6.191   5.885 -0.6599 -0.1013  0.0666
20390SOL    HW168285  10.854   6.239   5.890 -0.7515  0.0792 -0.1536
20390SOL    HW268286  10.726   6.212   5.967  0.5206 -2.0716  1.3188
20391SOL     OW68287   1.783  11.646   0.766 -0.1265  0.3869 -0.5049
20391SOL    HW168288   1.744  11.730   0.792  1.5504  0.7093  1.2436
20391SOL    HW268289   1.836  11.621   0.842 -0.1053 -1.9714 -1.2463
20392SOL     OW68290   3.622   5.152   1.144 -0.5639  0.1806  0.0156
20392SOL    HW168291   3.631   5.059   1.167 -2.5536 -0.0135  0.1121
20392SOL    HW268292   3.679   5.197   1.206 -0.5546 -0.8740  0.8121
20393SOL     OW68293  11.947   6.971   2.705 -0.5995 -0.1323  0.3600
20393SOL    HW168294  11.949   7.047   2.647 -0.2573  0.0334  0.5843
20393SOL    HW268295  11.854   6.951   2.715 -0.6432 -0.5705 -0.7646
20394SOL     OW68296   1.387   1.146   4.080 -0.1525  0.1557 -0.1016
20394SOL    HW168297   1.296   1.151   4.110 -0.1132 -0.2615  0.0902
20394SOL    HW268298   1.438   1.135   4.160  0.0934  0.6692 -0.1853
20395SOL     OW68299   5.249  11.232   1.179 -0.0367  0.4996  0.1577
20395SOL    HW168300   5.337  11.195   1.167 -0.1771 -0.1959  1.1384
20395SOL    HW268301   5.210  11.178   1.247 -0.9277  1.3304  0.3227
20396SOL     OW68302   3.620  12.014  10.736  0.6435 -0.1854  0.7569
20396SOL    HW168303   3.629  12.068  10.658  1.7163 -0.2144  0.8516
20396SOL    HW268304   3.598  12.075  10.806 -0.8362 -0.2199  0.3581
20397SOL     OW68305   5.970   9.400   4.627 -0.3435 -0.1759 -0.3003
20397SOL    HW168306   6.060   9.386   4.597  0.2960  1.2931  0.7935
20397SOL    HW268307   5.965   9.353   4.711  0.2059  1.6655  0.8274
20398SOL     OW68308   9.773   9.721   9.217  0.3154 -0.1314 -0.2605
20398SOL    HW168309   9.788   9.629   9.241 -0.3407  0.2783  1.9145
20398SOL    HW268310   9.678   9.729   9.208  0.2528  0.6200  0.9139
20399SOL     OW68311   8.500   1.517   3.485  0.1226 -0.2769 -0.2825
20399SOL    HW168312   8.486   1.483   3.573  0.4910  0.3791  0.0351
20399SOL    HW268313   8.584   1.563   3.489  0.0602 -0.0892 -0.9273
20400SOL     OW68314  10.890   7.206   4.575  0.1478  0.0127 -0.0790
20400SOL    HW168315  10.854   7.198   4.487  1.2439  0.6720 -0.6042
20400SOL    HW268316  10.912   7.298   4.585  0.3673 -0.1144  0.7596
20401SOL     OW68317  11.140   7.978   6.017 -0.5533 -0.5561  0.5442
20401SOL    HW168318  11.138   8.040   5.944 -1.7071 -0.3150  0.7557
20401SOL    HW268319  11.227   7.938   6.013 -0.2650  0.1355 -0.3839
20402SOL     OW68320   9.705  11.670   0.332 -0.3501  0.2455  0.2173
20402SOL    HW168321   9.614  11.689   0.310  0.1939  2.0650 -0.6464
20402SOL    HW268322   9.703  11.654   0.427 -1.3484  1.8104  0.4955
20403SOL     OW68323   2.550   8.857   3.496 -0.2439  0.3086 -0.0396
20403SOL    HW168324   2.577   8.929   3.438  0.5793 -0.0239 -0.0718
20403SOL    HW268325   2.596   8.874   3.578 -0.7568  0.3138  0.2483
20404SOL     OW68326   1.114   4.155   3.682  0.2524  0.0859  0.3791
20404SOL    HW168327   1.033   4.164   3.631  0.8664 -1.3166 -0.9411
20404SOL    HW268328   1.117   4.063   3.707  1.3184  0.1557  0.5840
20405SOL     OW68329   1.909  12.641   5.128  0.4690  0.2377  0.3924
20405SOL    HW168330   1.823  12.638   5.086  1.1286 -1.5863 -0.9242
20405SOL    HW268331   1.938  12.732   5.116  0.5608 -0.1472 -3.0414
20406SOL     OW68332   5.974  10.225   8.734  0.4854  0.3739 -0.3316
20406SOL    HW168333   6.021  10.308   8.729  1.1074  0.2063  1.6119
20406SOL    HW268334   5.924  10.231   8.816  0.1941 -0.9784 -0.3884
20407SOL     OW68335   2.349   1.072   9.716 -0.0967  0.0668  0.2682
20407SOL    HW168336   2.383   0.985   9.693 -2.1739 -0.4971 -0.9552
20407SOL    HW268337   2.284   1.054   9.784  0.0386  0.7710  0.5839
20408SOL     OW68338  10.991  11.605   3.585  0.1073  0.0027  0.3065
20408SOL    HW168339  10.956  11.672   3.526 -1.2217  0.2506  1.3164
20408SOL    HW268340  10.929  11.603   3.658  2.4083  0.6976  2.4056
20409SOL     OW68341   4.300   0.142   4.641 -0.2605 -0.1820 -0.0671
20409SOL    HW168342   4.353   0.216   4.610 -1.6288  0.4091 -1.0975
20409SOL    HW268343   4.280   0.162   4.732 -0.4866  0.6346 -0.2946
20410SOL     OW68344   1.147   8.655   6.178  0.4457  0.3187 -0.3150
20410SOL    HW168345   1.109   8.576   6.139  0.3729  0.2727 -0.1505
20410SOL    HW268346   1.102   8.664   6.262 -0.1357  0.9825 -0.6777
20411SOL     OW68347   1.096  12.855   3.934  0.6393 -0.4059  0.0731
20411SOL    HW168348   1.084  12.841   3.840  0.3295 -0.0288  0.0568
20411SOL    HW268349   1.007  12.864   3.969  0.8005  1.7469  0.0544
20412SOL     OW68350   7.985   6.956   2.179  0.0045 -0.3670 -0.2357
20412SOL    HW168351   7.923   6.886   2.199 -0.1873 -0.2007 -0.2390
20412SOL    HW268352   7.933   7.022   2.133  0.2626 -0.3800 -0.5511
20413SOL     OW68353   8.228   2.204  10.292 -0.9546  0.6209 -0.1682
20413SOL    HW168354   8.151   2.151  10.273 -0.4539  0.0857 -0.7252
20413SOL    HW268355   8.283   2.148  10.347 -0.9182  0.9681  0.1570
20414SOL     OW68356   0.016  10.480   3.929  0.0651 -0.3582 -0.4030
20414SOL    HW168357   0.075  10.482   3.854 -0.6112  1.1460 -0.9399
20414SOL    HW268358   0.013  10.571   3.960 -0.4058 -0.7759  0.8574
20415SOL     OW68359   7.885   6.758   7.583 -0.0587  0.2743  0.1222
20415SOL    HW168360   7.862   6.708   7.504 -1.3340 -0.5018  0.9427
20415SOL    HW268361   7.808   6.811   7.600  0.0043  0.0517  1.1294
20416SOL     OW68362  10.902   6.320   5.222 -0.0659 -0.1815 -0.1702
20416SOL    HW168363  10.857   6.252   5.271 -1.0166 -0.0712 -0.8636
20416SOL    HW268364  10.877   6.305   5.131 -1.8501  2.1814 -0.1880
20417SOL     OW68365   1.282   4.999   4.463 -0.0900  0.2558 -0.0232
20417SOL    HW168366   1.212   5.059   4.436 -1.1073 -0.9794 -0.2477
20417SOL    HW268367   1.245   4.912   4.447  1.3438 -0.4287  0.2983
20418SOL     OW68368   0.463   2.745  12.365  0.4924  0.1820 -0.1791
20418SOL    HW168369   0.438   2.666  12.318  3.5451 -0.0158 -1.7856
20418SOL    HW268370   0.411   2.745  12.444 -0.5887 -2.7018 -0.7972
20419SOL     OW68371   2.807  10.448   3.767 -0.3508  0.2605  0.1383
20419SOL    HW168372   2.779  10.420   3.680 -1.4969  2.0561 -0.1269
20419SOL    HW268373   2.898  10.476   3.755  0.4806 -2.2179  0.2006
20420SOL     OW68374   8.609   3.298   0.485  0.2836 -0.3979  0.0398
20420SOL    HW168375   8.536   3.285   0.423  0.3050  2.4019 -0.7172
20420SOL    HW268376   8.582   3.374   0.537  2.0889 -0.1734  0.6929
20421SOL     OW68377   6.534   2.627   5.503 -0.4931 -0.4783  0.0171
20421SOL    HW168378   6.468   2.659   5.442 -0.1710 -0.0621 -0.1217
20421SOL    HW268379   6.588   2.704   5.522 -0.6280 -0.5910  0.8786
20422SOL     OW68380  11.583  10.850  10.988 -0.5934  0.4633  0.0956
20422SOL    HW168381  11.605  10.942  10.981 -0.6241  0.5128  0.6210
20422SOL    HW268382  11.634  10.807  10.919 -0.6464  0.8818 -0.2049
20423SOL     OW68383   6.234   1.028   3.139 -0.1023 -0.0368 -0.3794
20423SOL    HW168384   6.294   1.070   3.078 -2.4779  0.7923 -2.2682
20423SOL    HW268385   6.223   1.092   3.209 -0.2176  0.5812 -0.9578
20424SOL     OW68386   5.148   8.928   2.725  0.5554 -0.1515 -0.0748
20424SOL    HW168387   5.157   8.992   2.653  1.6398 -0.9305 -0.6686
20424SOL    HW268388   5.074   8.873   2.699  0.6284 -0.1207 -0.3524
20425SOL     OW68389   6.723   4.671  10.520 -0.2816  0.0172  0.5479
20425SOL    HW168390   6.776   4.592  10.514 -0.7607 -0.3362  0.9127
20425SOL    HW268391   6.782   4.738  10.555  0.5908  0.2726 -1.2505
20426SOL     OW68392   9.487   0.266   4.428  0.1217 -0.0820  0.1748
20426SOL    HW168393   9.465   0.241   4.338  4.0608 -1.3502 -0.6678
20426SOL    HW268394   9.564   0.323   4.419 -0.9978  2.0398  2.7172
20427SOL     OW68395   6.203   4.439   7.145  0.6745  0.7890  0.8589
20427SOL    HW168396   6.112   4.421   7.170  0.8282 -0.4552  0.5551
20427SOL    HW268397   6.219   4.527   7.178  0.3057 -0.0734  3.5763
20428SOL     OW68398   8.401   0.579   7.660 -0.3257  0.2417 -0.5054
20428SOL    HW168399   8.475   0.628   7.625  1.2962 -1.2916  0.6089
20428SOL    HW268400   8.328   0.602   7.602  0.1995  4.1164  0.0820
20429SOL     OW68401   1.755   5.424   6.857 -0.5489 -0.2059  0.1867
20429SOL    HW168402   1.808   5.427   6.936 -0.3664 -1.2915  0.1257
20429SOL    HW268403   1.723   5.334   6.853 -1.7079  0.2055 -0.2340
20430SOL     OW68404   5.135  12.008   8.158  0.4857 -0.3306 -0.2294
20430SOL    HW168405   5.090  11.957   8.226 -0.2198  1.7393  0.9385
20430SOL    HW268406   5.066  12.033   8.096  0.8519 -0.8897 -0.8754
20431SOL     OW68407   3.732   8.210  10.457  0.0773 -0.7332  0.5606
20431SOL    HW168408   3.802   8.274  10.470 -0.0269 -0.1082 -1.4886
20431SOL    HW268409   3.745   8.179  10.367 -2.3513 -0.4664  0.0504
20432SOL     OW68410  12.196   4.388  10.168 -0.2244  0.7246  0.4800
20432SOL    HW168411  12.104   4.371  10.151  0.2791 -0.8342 -0.9013
20432SOL    HW268412  12.219   4.328  10.239  0.1212 -0.1282 -0.3395
20433SOL     OW68413  11.929   0.821   3.065 -0.3652 -0.2400  0.6285
20433SOL    HW168414  11.870   0.775   3.006 -0.4404  1.0666 -0.3399
20433SOL    HW268415  12.002   0.850   3.010  0.2035 -0.0927  1.4242
20434SOL     OW68416  12.042   9.980   7.926  0.3313 -0.1066 -0.0460
20434SOL    HW168417  12.092  10.037   7.867 -1.1191  1.4223  0.1564
20434SOL    HW268418  11.968  10.033   7.954  0.6022 -1.0252  2.6537
20435SOL     OW68419  11.529   8.861   0.897  0.2069 -0.3821 -0.0826
20435SOL    HW168420  11.462   8.841   0.962 -1.3473  0.2342 -1.4381
20435SOL    HW268421  11.537   8.781   0.845 -1.3634  0.3330 -1.4994
20436SOL     OW68422   5.211   7.859   3.108 -0.0204 -0.1921 -0.2350
20436SOL    HW168423   5.124   7.834   3.076 -0.4624  1.6165 -0.5690
20436SOL    HW268424   5.195   7.888   3.198 -0.0562  1.5272 -0.7656
20437SOL     OW68425   7.013   8.150   0.097  0.0543  0.1531  0.6431
20437SOL    HW168426   7.093   8.097   0.102  1.9718  2.6443 -0.9732
20437SOL    HW268427   6.999   8.180   0.187 -0.4643 -2.1203  1.3804
20438SOL     OW68428  12.847  11.744  12.931 -0.5253  0.1836  0.4654
20438SOL    HW168429  12.873  11.744  12.839 -0.9613 -3.4319  0.2001
20438SOL    HW268430  12.771  11.802  12.935 -1.5224 -0.8401 -1.8574
20439SOL     OW68431   9.041  10.227  10.747  0.1170 -0.1954 -0.2414
20439SOL    HW168432   9.045  10.132  10.756 -0.4178 -0.0406  2.6592
20439SOL    HW268433   8.954  10.251  10.777  0.9272  1.3119  1.1003
20440SOL     OW68434   2.524  10.151   2.435  0.1056 -0.0771  0.0283
20440SOL    HW168435   2.589  10.214   2.404  0.9100 -0.0035  1.7190
20440SOL    HW268436   2.452  10.204   2.469  0.2850 -0.0729  0.4175
20441SOL     OW68437  11.473   7.573   4.889 -0.3546  0.5544 -0.4110
20441SOL    HW168438  11.500   7.628   4.816  1.0311 -0.2188 -0.5161
20441SOL    HW268439  11.496   7.625   4.967  0.4605  0.3725 -0.5158
20442SOL     OW68440   5.139   8.759   4.456 -0.4337 -0.2972 -0.2884
20442SOL    HW168441   5.159   8.706   4.378 -0.6595 -0.0793 -0.4940
20442SOL    HW268442   5.206   8.827   4.456  0.6393 -1.3178  0.6800
20443SOL     OW68443  10.378   4.766   5.018 -0.5919 -0.3713 -0.1448
20443SOL    HW168444  10.465   4.791   4.986 -0.6100 -0.2869 -0.1278
20443SOL    HW268445  10.329   4.745   4.939 -0.3078 -1.2216 -0.1038
20444SOL     OW68446   3.554  12.060   0.977 -0.1146  0.7051 -0.2714
20444SOL    HW168447   3.516  12.148   0.969  0.1923  1.0318  1.4986
20444SOL    HW268448   3.515  12.025   1.057  0.7255 -0.2753 -0.2786
20445SOL     OW68449   2.006   3.437   1.792 -0.2886 -0.3162 -0.2323
20445SOL    HW168450   2.059   3.471   1.720 -0.4635 -0.5281 -0.4637
20445SOL    HW268451   2.067   3.426   1.864 -0.6965  3.5675  0.9819
20446SOL     OW68452   1.901   6.017  12.580  0.2225  0.5308 -0.6542
20446SOL    HW168453   1.953   6.014  12.499  2.7266 -2.0052  0.8680
20446SOL    HW268454   1.945   6.083  12.634  1.1382 -0.6836  0.1345
20447SOL     OW68455   2.744   0.208   3.741  0.1470 -0.0482  0.6420
20447SOL    HW168456   2.776   0.135   3.688  0.2328  0.1049  0.4810
20447SOL    HW268457   2.700   0.167   3.816 -0.2508 -0.2720  0.2909
20448SOL     OW68458   7.237   3.202   3.136 -0.2109 -0.2115  0.4603
20448SOL    HW168459   7.285   3.123   3.110 -0.4054 -0.1941  0.0513
20448SOL    HW268460   7.145   3.180   3.122 -0.1939  0.5802 -1.0240
20449SOL     OW68461   8.166  11.595   9.329  0.2894  0.0487 -0.2551
20449SOL    HW168462   8.213  11.674   9.355  0.7921 -1.1913  3.0122
20449SOL    HW268463   8.235  11.530   9.313 -0.1249 -0.9003  1.4945
20450SOL     OW68464   5.239   1.437   3.946  0.6807  0.2548 -0.3027
20450SOL    HW168465   5.240   1.352   3.901  1.1847  1.0344 -1.8280
20450SOL    HW268466   5.287   1.421   4.028  2.0501 -0.6066 -1.2344
20451SOL     OW68467   5.427   1.195   1.753 -0.0069 -0.0824  0.0574
20451SOL    HW168468   5.511   1.150   1.742  0.2130  0.3648 -0.1192
20451SOL    HW268469   5.396   1.211   1.664 -1.3218 -2.1316  0.0943
20452SOL     OW68470   2.652   0.349   6.039  0.3107 -0.1966 -0.0262
20452SOL    HW168471   2.672   0.256   6.048 -0.3666 -0.4379 -0.8324
20452SOL    HW268472   2.735   0.393   6.055  0.6170 -0.9337  0.4596
20453SOL     OW68473  10.649  12.760   3.594 -0.0336 -0.0466  0.2589
20453SOL    HW168474  10.725  12.715   3.559 -1.1396 -1.1997 -0.7783
20453SOL    HW268475  10.591  12.689   3.625 -1.1553  0.7256  0.0062
20454SOL     OW68476   7.683   1.862   5.151  0.2033 -0.1460 -0.9280
20454SOL    HW168477   7.723   1.840   5.067  0.7826 -0.3981 -0.5976
20454SOL    HW268478   7.664   1.955   5.145 -1.7934 -0.5790 -2.1510
20455SOL     OW68479   6.737   8.495  11.252 -0.4919 -0.0327 -0.3754
20455SOL    HW168480   6.719   8.588  11.239  0.6957  0.4210  1.0440
20455SOL    HW268481   6.652   8.458  11.278 -0.5905  1.0307  0.9279
20456SOL     OW68482   1.687   2.192   2.555  0.2890  0.0488 -0.0896
20456SOL    HW168483   1.623   2.121   2.561  0.4508 -0.1333 -0.5110
20456SOL    HW268484   1.682   2.222   2.464  0.1129  0.6773  0.1247
20457SOL     OW68485   9.889   7.265   8.939  0.1413  0.6059  0.5197
20457SOL    HW168486   9.982   7.268   8.960  0.3545  0.0743 -0.2969
20457SOL    HW268487   9.871   7.172   8.926 -0.4705  0.7250  0.4929
20458SOL     OW68488  12.742   7.149   5.965 -0.4019 -0.0285  0.1387
20458SOL    HW168489  12.752   7.058   5.994 -0.8473 -0.3739 -0.7651
20458SOL    HW268490  12.648   7.162   5.960 -0.3446  0.1203 -0.8117
20459SOL     OW68491   3.428   1.551  10.994 -0.2425  0.0940  0.0667
20459SOL    HW168492   3.439   1.464  11.034  3.0254 -0.6001 -1.9321
20459SOL    HW268493   3.334   1.562  10.987 -0.8834 -4.2073 -1.3328
20460SOL     OW68494  12.009   7.651   2.967  0.1822  0.0656  0.2884
20460SOL    HW168495  11.958   7.579   2.931 -0.3723  0.3536  0.4814
20460SOL    HW268496  12.099   7.618   2.970  0.0142 -0.4358 -0.0865
20461SOL     OW68497   1.753   3.919   1.771  0.3242  0.1871  0.0927
20461SOL    HW168498   1.738   3.826   1.787  2.4122 -0.7870 -2.8833
20461SOL    HW268499   1.712   3.937   1.687  0.0846  1.9831  0.5396
20462SOL     OW68500   6.985   8.484  11.018 -0.0633 -0.0537  0.1089
20462SOL    HW168501   6.994   8.553  10.953 -0.8113  0.3328  0.4037
20462SOL    HW268502   7.047   8.506  11.086  0.1606 -0.0322 -0.1001
20463SOL     OW68503   1.521   7.390   3.691  0.0428 -0.3151 -0.4718
20463SOL    HW168504   1.456   7.339   3.643  0.0258  0.1076 -0.9022
20463SOL    HW268505   1.534   7.468   3.638  0.3337 -0.0380  0.0009
20464SOL     OW68506   8.816   0.149   7.711  0.2797  0.2131 -0.2725
20464SOL    HW168507   8.723   0.163   7.695  0.2482 -0.9066 -1.1578
20464SOL    HW268508   8.834   0.197   7.793 -0.9810  0.7220 -0.2793
20465SOL     OW68509   3.099   2.636   2.953  0.0115  0.1668 -0.3006
20465SOL    HW168510   3.096   2.610   3.045 -0.1225  0.0677 -0.3337
20465SOL    HW268511   3.127   2.727   2.955  0.9590 -0.1162 -0.2062
20466SOL     OW68512  10.521   7.712   4.002  0.8318 -0.0194 -0.2700
20466SOL    HW168513  10.476   7.756   4.074 -0.3233 -1.8846  0.2051
20466SOL    HW268514  10.473   7.738   3.924  0.1346 -0.4501  0.0113
20467SOL     OW68515   4.183   7.967   5.364  0.3542  0.2391 -0.5537
20467SOL    HW168516   4.143   7.997   5.445  1.0729 -0.6813  0.1671
20467SOL    HW268517   4.115   7.915   5.321 -0.0070  0.6774 -0.5219
20468SOL     OW68518  10.214   8.511   8.463 -0.9708 -0.1191 -0.7180
20468SOL    HW168519  10.212   8.583   8.399 -1.9915  0.8588  0.3528
20468SOL    HW268520  10.208   8.432   8.410 -0.5882  0.6021 -1.8995
20469SOL     OW68521   7.872   9.351   7.498  0.0527  0.2809 -0.1042
20469SOL    HW168522   7.955   9.332   7.543 -0.0083  1.3793  0.5146
20469SOL    HW268523   7.847   9.268   7.458  0.8607 -0.3666  0.6861
20470SOL     OW68524   2.906   0.356  11.385 -0.5942  0.5936 -0.8166
20470SOL    HW168525   2.897   0.287  11.451  0.4805 -0.2952 -1.5598
20470SOL    HW268526   2.816   0.381  11.364 -0.9689  0.2975  0.3631
20471SOL     OW68527   2.606   7.030   6.916  0.2728 -0.2314  0.1311
20471SOL    HW168528   2.605   6.940   6.949  1.2342 -0.2816  0.0529
20471SOL    HW268529   2.521   7.041   6.873 -0.2287 -0.7960  0.9328
20472SOL     OW68530   4.735   1.528   7.161 -0.0861  0.2882  0.3358
20472SOL    HW168531   4.757   1.546   7.070  1.1464 -0.4821  0.4593
20472SOL    HW268532   4.696   1.440   7.159 -1.4661  0.8748  0.3749
20473SOL     OW68533  12.830   2.120   5.435  0.0719  0.2901  0.1142
20473SOL    HW168534  12.916   2.081   5.421 -0.0748  0.2616 -0.7863
20473SOL    HW268535  12.826   2.193   5.373  0.1850  1.5200  1.4828
20474SOL     OW68536   0.533   5.961   8.479  0.2004  0.2826 -0.4780
20474SOL    HW168537   0.589   6.034   8.506  2.6729 -1.6491  0.0570
20474SOL    HW268538   0.468   5.954   8.549  0.7265  1.1411  0.1235
20475SOL     OW68539   5.997  10.357  10.464  0.0507 -0.0909  0.0398
20475SOL    HW168540   5.928  10.323  10.407  0.9114 -0.0491 -1.0673
20475SOL    HW268541   6.077  10.315  10.433  0.3105 -1.7296  2.5913
20476SOL     OW68542   2.185   8.474  12.956  0.2475 -0.4245  0.1906
20476SOL    HW168543   2.112   8.521  12.916  0.7844  0.8863  0.6921
20476SOL    HW268544   2.147   8.432  13.033 -0.4229 -1.5667 -0.7341
20477SOL     OW68545  12.574   9.724   3.538  0.1518  0.6492 -0.3347
20477SOL    HW168546  12.658   9.682   3.555 -0.6552 -1.3818 -1.1648
20477SOL    HW268547  12.509   9.662   3.571 -1.0674  1.8074 -0.4890
20478SOL     OW68548   4.031   2.348   5.734  1.1930 -0.3773 -0.5041
20478SOL    HW168549   3.974   2.279   5.701  1.0883 -0.5537  0.0346
20478SOL    HW268550   4.036   2.332   5.829  1.2865  0.2651 -0.3952
20479SOL     OW68551   8.668   7.170  12.657 -0.0512  0.6238 -0.8901
20479SOL    HW168552   8.687   7.218  12.738  0.1584 -0.6843 -0.1354
20479SOL    HW268553   8.750   7.170  12.609 -0.4059  2.2087 -1.5883
20480SOL     OW68554   6.096   8.065  12.035 -0.3744  0.3389 -0.7047
20480SOL    HW168555   6.184   8.026  12.031 -0.5239 -0.0759 -0.1359
20480SOL    HW268556   6.103   8.133  12.102 -0.9301 -0.9279  0.7062
20481SOL     OW68557   2.634   2.662   8.193 -0.1380  0.1361 -0.5242
20481SOL    HW168558   2.595   2.675   8.279 -0.3386 -0.1535 -0.5719
20481SOL    HW268559   2.700   2.731   8.186  0.8546 -0.6809  0.4269
20482SOL     OW68560   9.509  11.590   6.170  0.5348 -1.3248  0.0861
20482SOL    HW168561   9.497  11.500   6.138  0.3724 -1.1826 -0.2594
20482SOL    HW268562   9.427  11.611   6.214  0.1351 -0.9449 -0.8233
20483SOL     OW68563  10.098   4.011   2.100  0.0992 -0.6585  0.2755
20483SOL    HW168564  10.190   3.991   2.083  0.8686  0.5166  2.5286
20483SOL    HW268565  10.085   4.098   2.061  0.6297  0.1295  1.7480
20484SOL     OW68566   1.964   7.675   9.018 -0.0870 -0.4214 -0.8148
20484SOL    HW168567   2.026   7.662   8.947  1.0235 -1.0725  0.2365
20484SOL    HW268568   1.959   7.771   9.028  0.9466 -0.3566 -0.7674
20485SOL     OW68569   6.763   3.289  10.010 -0.5285 -0.2991 -0.3860
20485SOL    HW168570   6.698   3.257   9.948  0.7748 -3.4081 -0.3446
20485SOL    HW268571   6.811   3.356   9.962 -1.7210 -0.1973 -1.4911
20486SOL     OW68572   7.202   2.677   8.205 -0.5205 -0.4088 -0.2801
20486SOL    HW168573   7.229   2.728   8.282  0.3107 -0.1951 -0.6937
20486SOL    HW268574   7.207   2.739   8.132  2.4952 -1.4704 -1.1514
20487SOL     OW68575   1.560   3.942   8.535  0.4116  0.5945 -0.0699
20487SOL    HW168576   1.496   3.993   8.485  0.7994  0.9639 -0.1935
20487SOL    HW268577   1.542   3.964   8.627  0.8219  1.2426 -0.1438
20488SOL     OW68578  11.412   2.165   7.329 -0.1956 -0.3398  0.0081
20488SOL    HW168579  11.494   2.117   7.319  0.0106  0.0072  0.0096
20488SOL    HW268580  11.351   2.101   7.365  1.0089  0.2172  3.5031
20489SOL     OW68581   8.678  11.417   6.004 -0.4621  0.0928 -0.1228
20489SOL    HW168582   8.672  11.511   5.987 -0.3054  0.0600 -0.3705
20489SOL    HW268583   8.679  11.377   5.917  1.4464 -0.0188 -0.1043
20490SOL     OW68584   9.068   0.720  11.937  0.0284  0.3984 -0.2854
20490SOL    HW168585   9.024   0.689  11.858  0.5784  0.7303 -0.7351
20490SOL    HW268586   9.045   0.813  11.942  2.7430  1.3268 -2.0578
20491SOL     OW68587  10.048   9.575   4.275  0.1057 -0.0035 -0.6488
20491SOL    HW168588  10.078   9.647   4.220 -0.2887 -0.3318 -1.3032
20491SOL    HW268589  10.099   9.583   4.356  1.4288 -0.1279 -1.4594
20492SOL     OW68590  11.555   8.282  11.974 -0.0079 -0.1986 -0.2601
20492SOL    HW168591  11.539   8.376  11.984  0.0417 -0.1776 -0.3658
20492SOL    HW268592  11.617   8.277  11.901  0.4642 -0.2708  0.1334
20493SOL     OW68593  12.360   4.288   1.144  0.7684  0.3840  0.5454
20493SOL    HW168594  12.283   4.239   1.172  0.4815  0.9416  0.7556
20493SOL    HW268595  12.399   4.319   1.225  0.7133  0.8405  0.4054
20494SOL     OW68596   0.769   3.526  10.528  0.7098  0.2294 -0.5054
20494SOL    HW168597   0.685   3.570  10.519  0.3071  0.1910  2.1849
20494SOL    HW268598   0.752   3.434  10.509 -0.2141 -0.0163  1.3487
20495SOL     OW68599   0.236  10.334   3.799  0.2331 -0.0628  0.1074
20495SOL    HW168600   0.183  10.255   3.805 -1.4009  0.9445 -0.5490
20495SOL    HW268601   0.234  10.372   3.887 -0.7389  0.3340 -0.0786
20496SOL     OW68602   9.114   9.015   2.261  0.5959  0.3143 -0.4321
20496SOL    HW168603   9.082   8.945   2.203 -2.5751  1.4281 -0.2502
20496SOL    HW268604   9.085   8.988   2.348  2.2698  0.3287  0.1598
20497SOL     OW68605   7.188   5.725   4.567 -0.1571 -0.7248 -0.1109
20497SOL    HW168606   7.206   5.797   4.627 -1.3926  0.6326 -1.2999
20497SOL    HW268607   7.147   5.658   4.622  0.3011 -0.2168  0.8748
20498SOL     OW68608   4.489   6.445   0.130  0.0196 -0.3016  0.4541
20498SOL    HW168609   4.503   6.519   0.188 -0.2235 -0.5783  0.8733
20498SOL    HW268610   4.401   6.457   0.095  0.4851  0.3258 -0.5441
20499SOL     OW68611  11.092  11.625   0.270 -0.0341 -0.0390 -0.4998
20499SOL    HW168612  11.140  11.707   0.271  1.0920 -0.5835  2.8027
20499SOL    HW268613  11.031  11.634   0.198  1.6765  2.6897 -1.7764
20500SOL     OW68614   2.532   1.024   5.494  0.4769 -0.0943 -0.5366
20500SOL    HW168615   2.529   1.004   5.588  0.9689  1.3312 -0.1950
20500SOL    HW268616   2.442   1.013   5.465 -0.0868  1.3064  0.5434
20501SOL     OW68617   0.917  12.427  11.525  0.5883  0.9693  0.0270
20501SOL    HW168618   0.903  12.453  11.616  1.2486 -2.0378  1.1069
20501SOL    HW268619   1.012  12.427  11.515  0.5202  1.2257 -0.6887
20502SOL     OW68620  12.362   7.479   8.588  0.3916 -0.0575 -0.0937
20502SOL    HW168621  12.322   7.461   8.673  0.9144  0.5563  0.2928
20502SOL    HW268622  12.289   7.474   8.526 -0.2174  0.6688  0.5445
20503SOL     OW68623   0.324  11.334   8.556 -0.2547 -0.1748 -0.4460
20503SOL    HW168624   0.412  11.306   8.582 -1.0226 -1.0360  1.3852
20503SOL    HW268625   0.321  11.317   8.462  1.3673 -0.5511 -0.4699
20504SOL     OW68626  12.867   2.743   7.507  0.1856 -0.2380 -0.4297
20504SOL    HW168627  12.917   2.824   7.513 -0.5449  0.1195  1.3910
20504SOL    HW268628  12.931   2.677   7.481  1.5053  0.3443  1.1495
20505SOL     OW68629   1.761   6.641   2.167 -0.0126  0.3781 -0.0294
20505SOL    HW168630   1.768   6.696   2.089  1.0342 -0.2503 -0.4010
20505SOL    HW268631   1.710   6.565   2.139  0.5042  0.0739 -0.1478
20506SOL     OW68632   4.557   3.119  10.376  0.4993 -0.5005 -0.2244
20506SOL    HW168633   4.619   3.131  10.304  0.0426  0.4765 -0.4775
20506SOL    HW268634   4.611   3.102  10.453  1.0176 -0.9282 -0.6763
20507SOL     OW68635   9.220   1.135   6.632  0.1151  0.5865 -0.0794
20507SOL    HW168636   9.200   1.212   6.578 -0.0807 -0.0698 -0.9545
20507SOL    HW268637   9.252   1.172   6.714  0.4396  1.6076 -0.6433
20508SOL     OW68638   0.077   1.268   2.935  0.1740 -0.1852  0.8720
20508SOL    HW168639   0.105   1.275   2.844  1.0828 -1.0599  1.0656
20508SOL    HW268640  -0.019   1.265   2.930  0.2172 -0.4878 -0.0808
20509SOL     OW68641   5.421  11.734  10.585  0.1320 -0.1428 -0.8844
20509SOL    HW168642   5.503  11.776  10.612 -1.3928  2.8742 -0.5497
20509SOL    HW268643   5.370  11.727  10.666 -0.5559 -0.5141 -1.3398
20510SOL     OW68644   8.273   0.838   7.295 -0.0925 -0.2900 -0.3301
20510SOL    HW168645   8.212   0.859   7.223 -0.0875 -2.2549 -0.9615
20510SOL    HW268646   8.244   0.893   7.367 -0.4138  1.3899 -1.6705
20511SOL     OW68647   1.719   5.548   0.563  0.1666  0.2972 -0.0214
20511SOL    HW168648   1.659   5.555   0.488  0.3786  0.5360 -0.1715
20511SOL    HW268649   1.806   5.546   0.524  0.2069 -2.9897  0.0002
20512SOL     OW68650   2.397   6.493   2.212  0.0061  0.2889 -0.2243
20512SOL    HW168651   2.407   6.551   2.137 -0.2345 -1.0733 -1.3512
20512SOL    HW268652   2.483   6.494   2.254  0.1609  1.0209 -0.5290
20513SOL     OW68653   6.857  12.929   6.232 -0.1085  0.0727 -0.2127
20513SOL    HW168654   6.786  12.947   6.171 -0.4649 -0.8214 -0.0816
20513SOL    HW268655   6.842  12.838   6.259  1.9348 -0.6657 -1.3344
20514SOL     OW68656   7.100   6.331   6.449  0.0375  0.2637  0.1153
20514SOL    HW168657   7.135   6.245   6.472  1.8110  0.7606 -0.5668
20514SOL    HW268658   7.007   6.315   6.436  0.2744 -1.5077  0.2279
20515SOL     OW68659   7.513   2.982  10.218  0.0574 -0.0645 -0.6370
20515SOL    HW168660   7.504   2.893  10.184 -1.5920 -0.1479 -0.0621
20515SOL    HW268661   7.548   3.032  10.144  2.6805 -1.4718 -0.4726
20516SOL     OW68662   1.026   5.100   5.761  0.6600 -0.0492 -0.2209
20516SOL    HW168663   1.016   5.156   5.838  0.5941  0.1217 -0.3532
20516SOL    HW268664   1.080   5.027   5.791  0.3631 -0.1493  0.0715
20517SOL     OW68665   7.498   5.315   9.091  0.1554 -0.1782  0.0842
20517SOL    HW168666   7.507   5.353   9.003  0.8665  0.8197  0.5658
20517SOL    HW268667   7.577   5.344   9.137 -0.4980 -0.1902  1.2402
20518SOL     OW68668   5.858  10.457   2.273  0.0611  0.1795 -0.3226
20518SOL    HW168669   5.831  10.368   2.295 -0.1338  0.0149 -1.2044
20518SOL    HW268670   5.928  10.477   2.336  1.1067 -1.1280 -1.0091
20519SOL     OW68671   2.486   5.223  12.317 -0.1077 -0.2513 -0.4920
20519SOL    HW168672   2.565   5.275  12.302  0.9107 -1.7285 -0.4789
20519SOL    HW268673   2.423   5.285  12.354  0.6726  1.1996 -1.4815
20520SOL     OW68674   2.131   5.428   2.243  0.7003  0.1179  0.4172
20520SOL    HW168675   2.128   5.393   2.332  0.9284 -0.6820  0.1165
20520SOL    HW268676   2.039   5.446   2.223  0.6139  0.0110  0.6995
20521SOL     OW68677   0.583  11.628   1.361  0.2769  0.3534  0.3653
20521SOL    HW168678   0.550  11.550   1.318  0.8193  0.0997  0.4031
20521SOL    HW268679   0.677  11.630   1.340  0.6611 -0.0280  1.8759
20522SOL     OW68680   1.437  12.716  11.290  0.8314 -0.0539 -0.0928
20522SOL    HW168681   1.405  12.662  11.362  0.3964 -0.3173 -0.4769
20522SOL    HW268682   1.532  12.719  11.302  0.5894  2.3337  2.1997
20523SOL     OW68683   7.813   0.134   8.373  0.2466  0.6335  0.1266
20523SOL    HW168684   7.886   0.080   8.402  1.5418  0.3308 -3.2947
20523SOL    HW268685   7.835   0.222   8.403  2.6351  0.7349 -1.6200
20524SOL     OW68686  12.825   0.615   4.962  0.3049 -0.5476  0.6028
20524SOL    HW168687  12.849   0.551   4.895  2.2687  0.9862 -0.2396
20524SOL    HW268688  12.742   0.582   4.997  0.4447 -2.6901 -0.8710
20525SOL     OW68689   6.751  11.365   1.094  0.1672 -0.1517  0.6888
20525SOL    HW168690   6.694  11.331   1.163  1.2349 -0.2698  1.5372
20525SOL    HW268691   6.808  11.291   1.071 -1.3064 -0.6819 -1.5995
20526SOL     OW68692   8.761  12.768  11.449 -0.2239 -0.0546  0.4469
20526SOL    HW168693   8.758  12.848  11.501  0.3344  0.7651 -0.7155
20526SOL    HW268694   8.830  12.715  11.489  0.7251  0.8956  0.1072
20527SOL     OW68695   8.973  11.307   0.601  0.1387 -0.1424  0.1340
20527SOL    HW168696   9.063  11.302   0.634  0.2839  1.0647 -0.0448
20527SOL    HW268697   8.929  11.365   0.662 -0.3301 -0.1389 -0.2065
20528SOL     OW68698   4.733  11.159  12.661 -0.0089  0.0807 -0.3323
20528SOL    HW168699   4.784  11.229  12.700  0.4141 -1.1794  1.5236
20528SOL    HW268700   4.734  11.177  12.567  1.1343  1.8311 -0.0200
20529SOL     OW68701   8.796   4.216   2.724 -0.2622  0.0009 -0.3872
20529SOL    HW168702   8.778   4.305   2.694 -1.4297 -0.2817 -0.5534
20529SOL    HW268703   8.873   4.189   2.674 -0.9989  0.2523 -1.6919
20530SOL     OW68704  10.248   2.684   9.224 -0.1950  0.5337  0.0151
20530SOL    HW168705  10.296   2.602   9.237 -1.3845 -0.2503 -0.4189
20530SOL    HW268706  10.227   2.714   9.313  0.2717  0.3972  0.1755
20531SOL     OW68707   7.015   2.320   4.742 -0.3629  0.3913  0.3497
20531SOL    HW168708   6.995   2.393   4.799  0.4838  0.6233  0.3719
20531SOL    HW268709   7.111   2.313   4.745 -0.4581 -1.1467  0.8888
20532SOL     OW68710   7.988   2.494   3.148 -0.4508  0.2948 -0.0375
20532SOL    HW168711   7.905   2.459   3.179 -0.0013 -0.7559  0.0198
20532SOL    HW268712   8.050   2.421   3.157  0.2648  0.7650 -0.9716
20533SOL     OW68713   6.038   0.190   6.708 -0.0492  0.4677  0.4215
20533SOL    HW168714   5.991   0.118   6.750 -0.6989  0.8683  0.3946
20533SOL    HW268715   6.115   0.148   6.669 -0.7303 -0.3217 -0.1275
20534SOL     OW68716   7.986   8.831   2.269 -0.1338 -0.4484  0.0618
20534SOL    HW168717   7.906   8.885   2.269  0.3348  0.3233  1.8929
20534SOL    HW268718   8.009   8.823   2.177 -0.3717  2.3417 -0.3429
20535SOL     OW68719   0.070   3.925   9.357 -0.9365 -0.6913 -0.7120
20535SOL    HW168720   0.146   3.876   9.326 -1.1738 -1.7903  0.3836
20535SOL    HW268721   0.106   3.990   9.418 -0.6553  0.3614 -1.9470
20536SOL     OW68722   6.852  10.756   7.923  0.5814 -0.2258 -0.0630
20536SOL    HW168723   6.895  10.732   8.005 -0.4975 -1.6088  0.1301
20536SOL    HW268724   6.897  10.836   7.895  2.6673 -1.1234  0.5586
20537SOL     OW68725   0.639   5.450   0.771  0.2281  0.1702 -0.1414
20537SOL    HW168726   0.720   5.492   0.799  0.7088 -1.0359  0.3413
20537SOL    HW268727   0.662   5.407   0.689  0.1153 -0.2870  0.0655
20538SOL     OW68728   1.833   4.460   8.025  0.0849 -0.0312  0.3845
20538SOL    HW168729   1.794   4.373   8.016 -1.4820  0.6904 -0.2032
20538SOL    HW268730   1.783   4.501   8.095  0.6837  0.4819  0.5240
20539SOL     OW68731   2.748   6.915  11.654  0.8747  0.0195  0.5759
20539SOL    HW168732   2.706   6.829  11.657  0.3632  0.2096 -0.7145
20539SOL    HW268733   2.722   6.952  11.570 -1.5942  2.7918  2.3828
20540SOL     OW68734   1.588   9.434   4.321 -0.0048 -0.0050 -0.0551
20540SOL    HW168735   1.603   9.525   4.295 -0.4977 -0.8964 -4.1182
20540SOL    HW268736   1.596   9.384   4.239 -5.3043 -2.9525  0.7602
20541SOL     OW68737   4.912   0.438   8.370 -0.3686  0.1224  0.2912
20541SOL    HW168738   4.893   0.479   8.286 -1.2112  0.4564  0.6360
20541SOL    HW268739   4.882   0.501   8.436  2.1224  0.7760  0.9067
20542SOL     OW68740   3.188   4.162   5.649 -0.0978 -0.5649 -0.5333
20542SOL    HW168741   3.205   4.256   5.649 -0.8270 -0.4344 -0.6721
20542SOL    HW268742   3.093   4.154   5.653 -0.0477 -1.2942 -0.6547
20543SOL     OW68743  11.977   7.517   6.631 -0.4363 -0.3041 -0.5891
20543SOL    HW168744  11.930   7.513   6.714  0.4185  1.2206  0.0135
20543SOL    HW268745  12.069   7.526   6.656  0.0338 -1.6402 -1.7324
20544SOL     OW68746  12.232   8.609   9.803 -0.1539  0.4134  0.0181
20544SOL    HW168747  12.294   8.681   9.815  1.2459 -0.8556  0.7379
20544SOL    HW268748  12.165   8.623   9.871  0.5683  0.5888  0.7086
20545SOL     OW68749   7.384   7.740   3.734  0.2518  0.1511  0.5343
20545SOL    HW168750   7.365   7.650   3.709  0.6890  0.4354 -0.9342
20545SOL    HW268751   7.369   7.743   3.829 -2.9654 -0.6488  0.1632
20546SOL     OW68752   5.069   6.251   2.433 -0.1662  0.3899 -0.0421
20546SOL    HW168753   5.062   6.156   2.440  0.8683  0.3204  0.1829
20546SOL    HW268754   4.991   6.277   2.384  0.0679 -0.6817 -1.0318
20547SOL     OW68755  12.750   4.628   8.769  0.6674  0.1467  0.1855
20547SOL    HW168756  12.747   4.671   8.683 -4.0007  1.1087  0.6002
20547SOL    HW268757  12.755   4.534   8.748  2.9031  0.4192 -0.9040
20548SOL     OW68758   8.760   3.258  12.492  0.6131 -0.0618 -0.5575
20548SOL    HW168759   8.714   3.342  12.489 -0.6135 -0.6388  1.1605
20548SOL    HW268760   8.843   3.279  12.536 -0.2088  0.0663  1.0013
20549SOL     OW68761   9.993   8.010   7.106 -0.4181  0.2965 -0.2406
20549SOL    HW168762  10.010   8.089   7.157 -1.7325  1.4835 -1.5451
20549SOL    HW268763   9.936   7.957   7.162  1.7833 -0.5525  1.3185
20550SOL     OW68764   4.982   6.935   8.801 -0.4676  0.5556  0.0748
20550SOL    HW168765   5.055   6.981   8.760 -0.0444  0.2648  0.4878
20550SOL    HW268766   4.910   6.997   8.798 -0.6805  0.2862 -1.7878
20551SOL     OW68767   2.485   5.826   5.688 -0.3616 -0.6770 -0.0457
20551SOL    HW168768   2.568   5.786   5.715  0.0088 -0.9133 -1.4659
20551SOL    HW268769   2.424   5.805   5.759  1.1487  0.8649  1.8118
20552SOL     OW68770   4.652   3.602  10.656 -0.1259 -0.2852  0.7023
20552SOL    HW168771   4.588   3.544  10.615  1.8042 -2.3560  0.4587
20552SOL    HW268772   4.681   3.659  10.585 -1.2549  0.2918  0.6860
20553SOL     OW68773  12.866  11.414   7.167 -0.3586  0.2029  0.6407
20553SOL    HW168774  12.931  11.459   7.113 -0.6038 -0.4045 -0.1820
20553SOL    HW268775  12.798  11.480   7.182 -0.8780  0.0415 -0.8319
20554SOL     OW68776  12.249   0.409  11.104 -0.0394  0.2437  0.6515
20554SOL    HW168777  12.280   0.323  11.075 -0.1917  0.0985  0.9119
20554SOL    HW268778  12.326   0.451  11.140 -0.3803 -0.6195  2.4909
20555SOL     OW68779   0.234  12.523   7.580  0.0551 -0.3640  0.1921
20555SOL    HW168780   0.242  12.516   7.675  2.1591  0.3780  0.1402
20555SOL    HW268781   0.272  12.609   7.560  0.5127 -0.9088 -1.3852
20556SOL     OW68782   4.309  12.118  10.877  0.1696 -0.0010  0.1427
20556SOL    HW168783   4.333  12.059  10.806 -0.1195  0.3542 -0.2553
20556SOL    HW268784   4.391  12.164  10.898 -0.1896  1.5333 -1.5172
20557SOL     OW68785   9.681   7.983   5.707  0.0045 -0.3536 -0.6028
20557SOL    HW168786   9.762   8.006   5.663  1.5131 -0.8321  1.7526
20557SOL    HW268787   9.690   7.889   5.725  0.0467  0.0372  1.7182
20558SOL     OW68788   6.978  11.376   6.411 -0.4306 -0.1524 -0.3073
20558SOL    HW168789   6.892  11.370   6.452 -0.1408  2.5994  0.8919
20558SOL    HW268790   7.040  11.373   6.483  0.5012 -1.5597 -1.1185
20559SOL     OW68791   1.183   9.955  12.384 -0.4140 -0.1923  0.6753
20559SOL    HW168792   1.244  10.029  12.390 -0.1108 -0.3072 -0.7485
20559SOL    HW268793   1.232   9.881  12.422 -0.1496  0.0080  0.7274
20560SOL     OW68794   7.975   5.190   2.134 -0.4882  0.1444  0.5692
20560SOL    HW168795   8.016   5.156   2.213 -2.3103 -0.3743  1.3565
20560SOL    HW268796   8.033   5.164   2.063  0.7761 -0.0824  1.6564
20561SOL     OW68797   6.185   2.998   8.211 -0.2932  0.0327  0.2853
20561SOL    HW168798   6.151   3.075   8.257 -1.5591 -1.0803  1.2791
20561SOL    HW268799   6.278   3.016   8.201 -0.4918  1.5351  0.8067
20562SOL     OW68800   6.554   9.295   8.046 -0.0848  0.1454 -0.1775
20562SOL    HW168801   6.544   9.312   8.139  0.2540  1.4305 -0.3585
20562SOL    HW268802   6.644   9.320   8.026  0.3934 -1.7203 -0.5345
20563SOL     OW68803   1.888   8.622   2.370  0.7102 -0.1992  0.4569
20563SOL    HW168804   1.925   8.696   2.322  1.2821  0.4044  1.7912
20563SOL    HW268805   1.936   8.619   2.452  1.0992 -2.4245  0.2271
20564SOL     OW68806   5.960   8.734  11.659  0.0509 -0.1829 -0.4039
20564SOL    HW168807   5.958   8.638  11.658  1.2444 -0.2228 -0.3238
20564SOL    HW268808   5.885   8.759  11.714  0.4021 -1.1135  0.5333
20565SOL     OW68809   7.381   9.820   3.612 -0.0915 -0.0907 -0.5323
20565SOL    HW168810   7.386   9.802   3.518 -0.9651 -0.3703 -0.5301
20565SOL    HW268811   7.336   9.745   3.649  0.0693  0.1114  0.0933
20566SOL     OW68812   9.724   0.745   5.568 -0.2362 -0.5307  0.1823
20566SOL    HW168813   9.702   0.668   5.621 -0.8389 -1.1369 -0.9107
20566SOL    HW268814   9.760   0.808   5.631 -1.5566 -0.9669  1.4392
20567SOL     OW68815   9.946   9.740   6.784 -0.2358 -1.0564  0.1563
20567SOL    HW168816  10.028   9.701   6.816  0.8483 -0.6798 -1.9572
20567SOL    HW268817   9.961   9.834   6.789  0.4210 -0.9564 -2.2860
20568SOL     OW68818  12.033   1.059   4.097 -0.1204 -0.5716  0.4050
20568SOL    HW168819  12.063   1.016   4.016 -2.3853  0.7218 -1.2334
20568SOL    HW268820  11.955   1.010   4.123  0.3735 -0.7341  1.6298
20569SOL     OW68821   0.540   4.563   5.552 -0.1600  0.2287 -0.2712
20569SOL    HW168822   0.498   4.491   5.600 -1.7580  0.0416 -1.8641
20569SOL    HW268823   0.609   4.593   5.611 -1.5202 -0.4912  1.8184
20570SOL     OW68824   9.927  11.475   3.201  0.5269 -0.0295  0.4266
20570SOL    HW168825   9.868  11.486   3.277 -1.2681  1.3744 -1.0633
20570SOL    HW268826   9.905  11.389   3.167 -0.4240  0.3139  0.1267
20571SOL     OW68827   5.008   2.459   3.898  0.3076  0.4545  0.4255
20571SOL    HW168828   5.009   2.497   3.810  1.5412  1.5460  0.8767
20571SOL    HW268829   4.918   2.467   3.927 -0.1803 -0.1729 -0.8374
20572SOL     OW68830   0.982   1.061   3.100  0.5003 -0.1530 -0.2170
20572SOL    HW168831   0.991   0.971   3.132  2.3212  0.4730  1.1531
20572SOL    HW268832   0.898   1.090   3.136  1.7410 -0.0040  2.9137
20573SOL     OW68833  12.384   9.324   5.307  0.1998  0.0196 -0.2015
20573SOL    HW168834  12.440   9.338   5.383 -1.6838  0.0025  1.2779
20573SOL    HW268835  12.433   9.262   5.252  1.7183  0.2234  0.8628
20574SOL     OW68836   1.438  11.305   7.976 -0.0028 -0.5261  0.0433
20574SOL    HW168837   1.504  11.344   7.920 -2.1856  0.5708 -1.9264
20574SOL    HW268838   1.467  11.214   7.989  1.4935 -0.2658 -1.3263
20575SOL     OW68839   7.085   5.363  10.024 -0.0206  0.2048 -0.1091
20575SOL    HW168840   7.007   5.347  10.078 -0.2712 -0.3563 -0.6316
20575SOL    HW268841   7.134   5.281  10.027  1.7214  1.2093  2.0430
20576SOL     OW68842   3.320   9.383   6.087 -0.2420 -0.2749 -0.4253
20576SOL    HW168843   3.232   9.366   6.053  0.3596 -1.6960 -1.3668
20576SOL    HW268844   3.369   9.414   6.010 -0.1557  1.5724  0.3212
20577SOL     OW68845  10.812   6.358  10.740 -0.5062 -0.4375  0.2028
20577SOL    HW168846  10.744   6.334  10.676 -0.2582  0.1935 -0.2945
20577SOL    HW268847  10.824   6.452  10.729  1.5966 -0.7792 -0.8349
20578SOL     OW68848   8.263   1.428  11.294 -0.2465 -0.0396  0.6462
20578SOL    HW168849   8.330   1.414  11.227  0.5949  1.6887  1.0783
20578SOL    HW268850   8.191   1.469  11.248 -0.0041  0.3793  0.6373
20579SOL     OW68851   0.073   3.656  12.007  0.5517  0.5099  0.0265
20579SOL    HW168852   0.127   3.580  12.029 -0.9366 -0.4087  0.6283
20579SOL    HW268853   0.079   3.663  11.912 -1.9035 -2.4745 -0.4869
20580SOL     OW68854   6.240  11.222   4.602 -0.3839 -0.2759  0.4517
20580SOL    HW168855   6.263  11.315   4.611 -2.8636  0.7301 -1.8362
20580SOL    HW268856   6.298  11.190   4.533 -1.4600  0.5070 -0.8918
20581SOL     OW68857   7.855  11.021   6.236 -0.4622  0.4248  0.6330
20581SOL    HW168858   7.933  10.998   6.186 -1.2147 -0.5049 -0.1412
20581SOL    HW268859   7.794  11.057   6.171 -2.0879 -2.3241  0.4877
20582SOL     OW68860   4.428   1.758   5.793  0.2383 -0.0545  0.3346
20582SOL    HW168861   4.356   1.704   5.825  0.6070  0.0304  1.3336
20582SOL    HW268862   4.420   1.840   5.841 -0.8276  1.1686 -1.7767
20583SOL     OW68863   2.771  12.143   4.702  0.2296 -0.3328 -0.0293
20583SOL    HW168864   2.705  12.112   4.764  0.3865  0.1919  0.4120
20583SOL    HW268865   2.823  12.206   4.753 -0.0853  0.6552 -0.8927
20584SOL     OW68866   1.769   8.430   9.136 -0.2431 -0.0717 -0.1787
20584SOL    HW168867   1.760   8.393   9.048 -1.8703 -1.5294  0.5406
20584SOL    HW268868   1.858   8.465   9.139  0.0010 -0.4201 -2.2319
20585SOL     OW68869   2.860   6.521   5.719  0.0344  0.2005 -0.1734
20585SOL    HW168870   2.873   6.507   5.625  1.1747 -1.5174  0.1765
20585SOL    HW268871   2.916   6.455   5.760  0.2612  1.5105  1.7331
20586SOL     OW68872  11.914   7.809   2.764  0.2583 -0.7187  0.0878
20586SOL    HW168873  11.956   7.752   2.828  0.9391 -0.1719  0.1400
20586SOL    HW268874  11.957   7.894   2.775  0.0411 -0.4882 -0.7561
20587SOL     OW68875   6.280   2.151   2.637 -0.0420 -0.0237  0.0490
20587SOL    HW168876   6.213   2.200   2.589  0.0858 -0.3259 -0.4471
20587SOL    HW268877   6.307   2.082   2.576  1.2430  0.5371 -0.0286
20588SOL     OW68878  12.272  11.479   2.064 -0.4978 -0.4985  0.2366
20588SOL    HW168879  12.259  11.534   2.142  0.3455  1.2045 -0.7738
20588SOL    HW268880  12.203  11.412   2.071 -1.0797  0.1991  1.9112
20589SOL     OW68881  10.518   6.172   4.479 -0.2638 -0.4594  0.1448
20589SOL    HW168882  10.462   6.094   4.472  1.7490 -1.8668 -1.6775
20589SOL    HW268883  10.501   6.220   4.398  0.3518 -0.3027  0.1096
20590SOL     OW68884   5.315   4.942  12.356  0.2209 -0.1788 -0.0683
20590SOL    HW168885   5.292   4.995  12.432  0.3475 -0.4120  0.1314
20590SOL    HW268886   5.410   4.931  12.362  0.3971  0.7839 -0.8896
20591SOL     OW68887  12.463   9.691   4.159  0.6779 -0.1744  0.2163
20591SOL    HW168888  12.409   9.734   4.225 -0.0986 -1.1475  0.2270
20591SOL    HW268889  12.467   9.599   4.187  2.1025 -0.1850  0.0599
20592SOL     OW68890   2.949   7.891  10.115 -0.1093  0.4421 -0.6188
20592SOL    HW168891   2.877   7.835  10.089 -0.2066  0.4471 -0.3666
20592SOL    HW268892   2.930   7.976  10.075 -1.6786  1.2397  1.6125
20593SOL     OW68893   5.179   3.027   8.946  0.6515 -0.1825  0.0415
20593SOL    HW168894   5.181   3.069   9.031  1.3929 -4.3371  2.3397
20593SOL    HW268895   5.087   3.002   8.933  0.4632  0.7997 -0.6475
20594SOL     OW68896   3.032   9.124   1.267 -0.0826  0.1997  0.1002
20594SOL    HW168897   2.966   9.055   1.277  0.6265 -0.4830  0.2540
20594SOL    HW268898   2.997   9.182   1.199 -1.5228  0.7038  1.2378
20595SOL     OW68899   9.347   2.340  10.067  0.1642  0.3240  0.2534
20595SOL    HW168900   9.319   2.343  10.158  0.8022 -1.9114  0.5791
20595SOL    HW268901   9.442   2.331  10.070  0.3697  1.7963 -0.6999
20596SOL     OW68902  12.814   0.893   9.864  0.1583  0.0377 -0.3351
20596SOL    HW168903  12.722   0.905   9.889 -0.3103 -1.6152 -1.0629
20596SOL    HW268904  12.809   0.839   9.784  1.7797 -0.7609  0.0668
20597SOL     OW68905  11.839  11.832  10.722  0.2852  0.1359  0.7228
20597SOL    HW168906  11.815  11.874  10.639  0.5231  1.4546  1.2960
20597SOL    HW268907  11.768  11.771  10.739 -1.1826  1.7881  0.8653
20598SOL     OW68908   5.706   9.166   0.049 -0.3594  0.3564  0.0927
20598SOL    HW168909   5.724   9.073   0.035  1.4359  0.5316  0.9002
20598SOL    HW268910   5.687   9.200  -0.038 -0.1679 -0.5912 -0.3375
20599SOL     OW68911  10.332   1.566   3.422 -0.3256  0.5258  0.0922
20599SOL    HW168912  10.244   1.604   3.424 -0.0907  1.1520 -0.7049
20599SOL    HW268913  10.391   1.639   3.441 -0.0580 -0.4277  3.4921
20600SOL     OW68914   8.561   8.129   0.995  0.2419 -0.6182  0.0456
20600SOL    HW168915   8.477   8.176   0.997  1.1194  1.1708 -1.8896
20600SOL    HW268916   8.538   8.040   1.023 -2.8350 -0.9284 -2.8318
20601SOL     OW68917   3.145   8.319   1.645 -0.0043 -0.1552  0.4058
20601SOL    HW168918   3.068   8.375   1.633  1.3925  1.7504 -0.2416
20601SOL    HW268919   3.146   8.299   1.738 -0.8628  0.4184  0.5555
20602SOL     OW68920   0.217  11.811   5.369 -0.0639 -0.0987 -0.3197
20602SOL    HW168921   0.182  11.733   5.412 -0.2738  0.0372 -0.2403
20602SOL    HW268922   0.190  11.884   5.426 -1.3400  0.2015 -1.2703
20603SOL     OW68923   6.601   6.003   6.194 -0.1993  0.5497 -0.4694
20603SOL    HW168924   6.618   5.909   6.182 -2.4352  0.1315 -0.8138
20603SOL    HW268925   6.687   6.044   6.182  0.8913 -1.4525 -0.0716
20604SOL     OW68926  12.904   4.952   5.213 -0.1131 -0.4010 -0.4409
20604SOL    HW168927  12.828   5.008   5.228  0.4610  0.8650 -1.9613
20604SOL    HW268928  12.979   5.007   5.236  0.4479 -0.6277 -1.6191
20605SOL     OW68929   3.997  12.418   5.140  0.2296 -0.1000 -0.4540
20605SOL    HW168930   4.052  12.432   5.063  0.5199  0.2852 -0.1855
20605SOL    HW268931   3.939  12.494   5.142 -0.4617 -0.6134 -0.8552
20606SOL     OW68932   2.648   5.126  11.891  0.0825 -0.2129  0.6711
20606SOL    HW168933   2.713   5.132  11.961  0.6789  1.0666  0.0596
20606SOL    HW268934   2.564   5.114  11.936  0.2723  1.8321  1.7303
20607SOL     OW68935  10.278   3.028   2.734  0.0909  0.6976 -0.1943
20607SOL    HW168936  10.328   3.097   2.778  0.2395  0.0222  0.7308
20607SOL    HW268937  10.269   2.960   2.800 -0.0820 -0.1616 -1.0823
20608SOL     OW68938   5.674   1.966   8.319  0.1102 -0.2614  0.0726
20608SOL    HW168939   5.705   2.039   8.373 -0.3530 -1.5168  2.1346
20608SOL    HW268940   5.684   1.997   8.229  1.7536  1.6034  0.8167
20609SOL     OW68941   9.868   5.537   4.030 -0.2717 -0.1964 -0.1955
20609SOL    HW168942   9.831   5.523   3.943 -1.2023  1.5007 -0.1109
20609SOL    HW268943   9.835   5.623   4.057  0.1605 -0.5902  1.7480
20610SOL     OW68944   4.652   4.991   1.091 -0.2657  0.5876  0.1048
20610SOL    HW168945   4.590   4.999   1.164  1.4579  0.6600  1.6289
20610SOL    HW268946   4.658   4.897   1.075 -1.2379  0.6125 -0.5157
20611SOL     OW68947   4.759  12.671   7.057 -0.0154  0.0920  0.3176
20611SOL    HW168948   4.707  12.745   7.026  0.0220  0.8202  1.8731
20611SOL    HW268949   4.695  12.600   7.068 -0.2671  0.2670 -0.0150
20612SOL     OW68950   3.705  10.923   1.142 -0.1621 -0.0343 -0.2657
20612SOL    HW168951   3.713  10.990   1.075 -0.0380 -0.6887 -0.9272
20612SOL    HW268952   3.771  10.858   1.118  0.1455 -0.0926  0.7173
20613SOL     OW68953   0.143   4.473  12.276 -0.3416 -0.1334  0.0689
20613SOL    HW168954   0.108   4.396  12.322 -0.2069 -0.1459  0.1505
20613SOL    HW268955   0.100   4.547  12.320 -0.3554 -0.1549  0.0921
20614SOL     OW68956   5.324   4.711  10.931  0.2671  0.1656  0.1305
20614SOL    HW168957   5.260   4.738  10.997 -0.9896 -0.0635 -0.9538
20614SOL    HW268958   5.393   4.668  10.981 -1.0049 -0.6494  1.2512
20615SOL     OW68959   0.399   6.992   3.280  0.2227  0.1196 -0.4307
20615SOL    HW168960   0.307   6.971   3.263 -0.3119 -0.7113  2.8400
20615SOL    HW268961   0.407   7.085   3.257 -1.8214  0.5767  0.4200
20616SOL     OW68962   9.738  12.517  10.858 -0.1200  0.1100  0.0410
20616SOL    HW168963   9.795  12.479  10.925 -0.9679 -0.3648  0.5143
20616SOL    HW268964   9.660  12.462  10.860 -0.1208  0.0237 -1.4211
20617SOL     OW68965   9.185  11.971  11.188  0.4605  0.2528  0.2153
20617SOL    HW168966   9.234  11.891  11.207  1.7333  0.7408 -0.8556
20617SOL    HW268967   9.249  12.042  11.200  0.3878  0.8336 -2.3337
20618SOL     OW68968   4.476   7.929  11.208  0.3373  0.5026  0.4341
20618SOL    HW168969   4.553   7.939  11.264  0.8417 -0.9004  0.0377
20618SOL    HW268970   4.403   7.957  11.263  0.8333 -0.6824  1.7724
20619SOL     OW68971   3.600   1.031   3.668 -0.1443 -0.2224  0.2754
20619SOL    HW168972   3.608   1.126   3.656  0.1119 -0.1585  0.9266
20619SOL    HW268973   3.548   1.002   3.593 -0.7502  0.5139  0.4010
20620SOL     OW68974   5.744   7.877   4.106  0.2367  0.2843 -0.4670
20620SOL    HW168975   5.672   7.854   4.047  1.0201  1.4099 -1.9427
20620SOL    HW268976   5.806   7.804   4.098 -0.6001 -0.5638  0.6107
20621SOL     OW68977   6.259   2.280   0.856  0.0905  0.7439 -0.5132
20621SOL    HW168978   6.187   2.218   0.858  0.3768  0.3567 -1.7213
20621SOL    HW268979   6.246   2.330   0.775  1.1126  0.7336 -0.6970
20622SOL     OW68980   6.366   2.841   4.655 -0.5512  0.1220  0.2098
20622SOL    HW168981   6.381   2.805   4.743  1.0935  2.4628  1.0048
20622SOL    HW268982   6.439   2.810   4.603 -2.9698 -3.6505 -1.3285
20623SOL     OW68983  12.712   6.247   5.992 -0.0178 -0.0458 -0.8698
20623SOL    HW168984  12.799   6.223   6.024 -0.2208  0.0629 -0.2365
20623SOL    HW268985  12.653   6.185   6.034 -0.4840  1.1818  0.3274
20624SOL     OW68986  12.872   1.587   7.357 -0.3298 -0.0810  0.0950
20624SOL    HW168987  12.957   1.604   7.317  0.1168 -0.2582  0.9536
20624SOL    HW268988  12.891   1.531   7.432 -1.0736  0.7942  0.9647
20625SOL     OW68989   9.373  12.535   7.894 -0.0864 -0.0299 -0.3697
20625SOL    HW168990   9.367  12.440   7.897  0.0465 -0.0186  0.6577
20625SOL    HW268991   9.302  12.562   7.837 -0.1720 -0.7380 -0.6069
20626SOL     OW68992  10.716   0.890   1.490 -0.0951 -0.6514 -0.0324
20626SOL    HW168993  10.788   0.833   1.516 -1.0970 -1.2831  1.4453
20626SOL    HW268994  10.640   0.832   1.481 -0.7234  0.1825 -0.3398
20627SOL     OW68995   3.704   3.581   6.258  0.3188 -0.2350  0.0430
20627SOL    HW168996   3.706   3.550   6.348  0.0854 -1.5554 -0.3902
20627SOL    HW268997   3.611   3.586   6.236  0.3552  0.6727  0.0605
20628SOL     OW68998   2.825  11.787   8.558 -0.1394  0.3545 -0.7509
20628SOL    HW168999   2.762  11.731   8.602  0.1412  0.8821  0.3546
20628SOL    HW269000   2.905  11.779   8.610  0.3099  0.7161 -1.3722
20629SOL     OW69001   5.084   2.597   2.748 -0.1388 -0.0518 -0.1528
20629SOL    HW169002   5.161   2.612   2.694 -0.6022  0.8452 -0.5898
20629SOL    HW269003   5.019   2.560   2.688 -0.3186 -0.0120  0.0139
20630SOL     OW69004  12.215   6.542  11.798 -0.1369 -0.4115 -0.5111
20630SOL    HW169005  12.177   6.463  11.760 -0.3873 -0.2585 -0.5811
20630SOL    HW269006  12.141   6.586  11.840 -0.2829  0.4961 -1.6757
20631SOL     OW69007   0.594   0.267   1.276 -0.0607  0.7706  0.3959
20631SOL    HW169008   0.509   0.266   1.232 -0.6859  2.7830  1.4708
20631SOL    HW269009   0.619   0.174   1.282 -1.8487  0.1891 -0.4985
20632SOL     OW69010  12.704   7.054  11.749 -0.1337  0.5908  0.6580
20632SOL    HW169011  12.654   7.123  11.794  0.4359  0.8281  0.9338
20632SOL    HW269012  12.733   7.095  11.667 -1.6347 -0.0110 -0.2119
20633SOL     OW69013  11.597  11.878   1.360 -0.7105  0.3773 -0.3087
20633SOL    HW169014  11.532  11.941   1.390 -1.1892  0.2107 -0.9660
20633SOL    HW269015  11.676  11.898   1.411 -0.2542  2.7337 -1.8116
20634SOL     OW69016   1.379  11.046   5.621 -0.2077  0.0290  0.1605
20634SOL    HW169017   1.360  11.136   5.592  2.7828  0.8897  0.5477
20634SOL    HW269018   1.333  10.991   5.558 -2.5187  1.7630  0.1586
20635SOL     OW69019  11.870   5.612   9.488  0.7609  0.1925 -0.1046
20635SOL    HW169020  11.843   5.655   9.569 -2.6200  0.1996 -1.0820
20635SOL    HW269021  11.858   5.678   9.420  1.6687 -0.4076 -0.8739
20636SOL     OW69022   3.920   6.932   2.993  0.4584  0.2194  0.0385
20636SOL    HW169023   3.826   6.942   2.980  0.4157 -1.0590 -0.7733
20636SOL    HW269024   3.960   6.975   2.918  0.5069  0.2248  0.0669
20637SOL     OW69025  12.424  11.894   5.596  0.3206 -0.4491 -0.3118
20637SOL    HW169026  12.350  11.944   5.561  0.6602 -1.0364 -1.9467
20637SOL    HW269027  12.384  11.825   5.649 -0.2771 -0.3639 -0.6431
20638SOL     OW69028   6.257  10.056  12.059  0.5860 -0.4924 -0.2574
20638SOL    HW169029   6.222  10.114  12.127  1.2891 -1.6033  1.1154
20638SOL    HW269030   6.351  10.076  12.057  0.9600 -1.9580  0.6937
20639SOL     OW69031   4.187   6.168   0.214  0.1304  0.7047  0.0303
20639SOL    HW169032   4.204   6.207   0.300  0.4529 -0.4349  0.5025
20639SOL    HW269033   4.119   6.102   0.231  0.6398  0.0390 -0.4710
20640SOL     OW69034  11.472   5.961   6.716 -0.4134 -0.4111  0.1445
20640SOL    HW169035  11.451   5.870   6.696  0.6629 -1.1416  2.0934
20640SOL    HW269036  11.519   5.957   6.799 -0.0876  1.9108  0.1291
20641SOL     OW69037   7.993   8.545   0.129 -0.2704  0.4423 -0.0582
20641SOL    HW169038   7.968   8.627   0.088  1.3309  2.4383  2.5878
20641SOL    HW269039   7.976   8.559   0.223  1.1425 -1.7776  0.6119
20642SOL     OW69040   1.512   3.857  10.186 -0.2809  0.4954  0.1698
20642SOL    HW169041   1.501   3.804  10.265 -0.1705  2.9364  1.9167
20642SOL    HW269042   1.607   3.872  10.180 -0.2691  0.1822 -0.5423
20643SOL     OW69043   1.592   3.422   2.903 -0.2196 -0.2133  0.4815
20643SOL    HW169044   1.564   3.332   2.917 -0.6470 -0.4253 -1.5309
20643SOL    HW269045   1.521   3.463   2.853 -0.3346  1.4594  1.8992
20644SOL     OW69046   7.245  12.681   8.430 -0.2285 -0.0089 -0.0030
20644SOL    HW169047   7.311  12.665   8.498  0.0522 -2.0214 -0.6814
20644SOL    HW269048   7.201  12.761   8.458  0.8997  0.0677  1.7279
20645SOL     OW69049   4.051   3.389  11.235 -0.2064  0.0158 -0.2852
20645SOL    HW169050   3.956   3.390  11.242 -0.1518  1.5066  0.6187
20645SOL    HW269051   4.078   3.307  11.275 -0.9561  0.9881  2.3654
20646SOL     OW69052   4.592   8.485   7.329  0.1170  0.6262 -0.2452
20646SOL    HW169053   4.502   8.514   7.318 -0.0756  0.4620  0.7770
20646SOL    HW269054   4.585   8.393   7.352  0.4887  0.8340  0.7453
20647SOL     OW69055   8.449   8.242   5.349  0.0127 -0.6502  0.2985
20647SOL    HW169056   8.427   8.157   5.311 -0.2828  0.0790 -1.2575
20647SOL    HW269057   8.537   8.230   5.385 -0.1026 -1.6555  0.2789
20648SOL     OW69058   3.843   9.300  10.703 -0.1711  0.0914 -0.2784
20648SOL    HW169059   3.759   9.341  10.682 -0.0914  0.4565  0.1074
20648SOL    HW269060   3.908   9.366  10.678 -0.0920  0.8582  1.7682
20649SOL     OW69061  10.853  10.122   3.969  0.5529  0.1581 -0.1348
20649SOL    HW169062  10.875  10.156   4.056  0.4044  0.8663 -0.3735
20649SOL    HW269063  10.928  10.068   3.946  0.8049  0.3430  0.2357
20650SOL     OW69064   1.190   8.865   2.475 -0.6125 -0.6012 -0.1553
20650SOL    HW169065   1.100   8.874   2.445 -0.6822  1.6502  0.5693
20650SOL    HW269066   1.196   8.923   2.551  1.8672  0.5745 -1.1492
20651SOL     OW69067   9.919   4.969   7.049 -0.3062 -0.1498  0.2662
20651SOL    HW169068   9.984   4.973   6.979 -2.2890  0.1097 -1.6611
20651SOL    HW269069   9.969   4.943   7.126  2.0221 -0.1953 -1.1547
20652SOL     OW69070   8.342   2.845   2.853 -0.3243  0.1925  0.0037
20652SOL    HW169071   8.340   2.774   2.918 -1.8426  1.0264  0.9119
20652SOL    HW269072   8.324   2.924   2.903  2.3739  1.4412 -0.8020
20653SOL     OW69073   7.537   7.128  11.274  0.0219  0.2170 -0.0587
20653SOL    HW169074   7.613   7.073  11.291  2.3833  3.2105 -0.0539
20653SOL    HW269075   7.527   7.180  11.354 -0.1696  1.8634 -1.1048
20654SOL     OW69076   8.054   9.146  12.715 -0.7172 -0.6091 -0.6185
20654SOL    HW169077   8.005   9.114  12.791 -1.1913  1.0340 -0.1973
20654SOL    HW269078   8.002   9.219  12.683  2.3895  2.6724  1.1415
20655SOL     OW69079   4.445   2.076   8.644  0.0809  0.1492 -0.5297
20655SOL    HW169080   4.438   2.061   8.549 -1.3586  0.4969 -0.4878
20655SOL    HW269081   4.405   1.998   8.683  2.8877 -1.2177 -0.1131
20656SOL     OW69082   7.911   4.907   2.823  0.4079  0.1362 -0.4522
20656SOL    HW169083   7.961   4.898   2.904  0.6333  3.3014 -0.1338
20656SOL    HW269084   7.820   4.909   2.850  0.3750 -0.5031 -0.4930
20657SOL     OW69085   5.599  10.607   5.628 -0.3438  0.0907 -0.2227
20657SOL    HW169086   5.591  10.658   5.709 -2.6978  0.0085 -0.3386
20657SOL    HW269087   5.583  10.517   5.655 -0.1153 -0.0733 -0.6269
20658SOL     OW69088   8.228   0.476   0.650  0.2688  0.4937 -0.2353
20658SOL    HW169089   8.318   0.476   0.619 -0.1310 -0.4144 -1.4733
20658SOL    HW269090   8.228   0.535   0.726  1.9243  0.3562 -0.1058
20659SOL     OW69091   1.227   6.929   5.682 -0.2205  0.2391 -0.1355
20659SOL    HW169092   1.180   6.876   5.617  0.3609  0.6592 -0.9180
20659SOL    HW269093   1.286   6.984   5.630  2.1586 -1.2202  0.8604
20660SOL     OW69094   2.620   1.020   4.069 -0.4202  0.2079  0.0861
20660SOL    HW169095   2.673   0.962   4.015  1.4454 -0.5478  2.5683
20660SOL    HW269096   2.637   1.108   4.035 -0.5750 -0.3613 -1.5287
20661SOL     OW69097   5.075  12.342   4.749  0.0258  0.6846  0.0136
20661SOL    HW169098   5.079  12.438   4.751 -1.6651  0.7813 -0.4650
20661SOL    HW269099   5.073  12.320   4.656  0.8172  0.1354  0.1112
20662SOL     OW69100   9.725   6.010   8.442 -0.1545 -0.7879  0.0374
20662SOL    HW169101   9.719   5.965   8.357 -0.3226 -0.5619 -0.0710
20662SOL    HW269102   9.743   6.101   8.420 -1.2088 -0.5222  0.2001
20663SOL     OW69103  11.121   4.171   7.543  0.3266  0.3452  0.4620
20663SOL    HW169104  11.096   4.079   7.542  0.8730  0.1865  0.9571
20663SOL    HW269105  11.038   4.219   7.546 -0.1259 -0.0301 -2.4842
20664SOL     OW69106  10.861  11.173   8.924 -0.1279  0.0473 -0.2089
20664SOL    HW169107  10.850  11.177   8.829 -1.0457  1.9623 -0.0752
20664SOL    HW269108  10.955  11.179   8.938  0.2406 -2.6834 -1.0271
20665SOL     OW69109   7.754   6.979   0.333 -0.2096 -0.0678  0.4732
20665SOL    HW169110   7.777   6.977   0.240  0.1179 -0.4441  0.5578
20665SOL    HW269111   7.837   6.997   0.378 -0.0165 -1.5789  0.7934
20666SOL     OW69112   0.001  10.110   3.914  0.0716  0.1498  0.1853
20666SOL    HW169113  -0.026  10.106   4.006 -0.9847 -0.3550 -0.1281
20666SOL    HW269114   0.050  10.029   3.900 -0.0214  0.0867  0.2251
20667SOL     OW69115   0.068  10.267   9.734  0.5981 -0.2777  0.5397
20667SOL    HW169116   0.085  10.274   9.640  0.3991  2.6873  0.6238
20667SOL    HW269117  -0.025  10.245   9.740  0.3688  0.4996  0.0050
20668SOL     OW69118   5.521   8.086   1.829 -0.2112 -1.1785 -0.0251
20668SOL    HW169119   5.431   8.057   1.842 -0.0909 -1.4613  0.1686
20668SOL    HW269120   5.524   8.111   1.736 -1.0703  0.8813  0.4466
20669SOL     OW69121   0.071   2.322   7.096  0.0034  0.1746 -0.0927
20669SOL    HW169122   0.104   2.366   7.175  0.9368 -0.7152  0.0405
20669SOL    HW269123   0.084   2.229   7.114  0.2989 -0.0384 -1.3287
20670SOL     OW69124   2.681   0.625   0.456  0.4423  0.0186  0.3216
20670SOL    HW169125   2.721   0.581   0.531  1.1265 -0.3673 -0.2576
20670SOL    HW269126   2.588   0.605   0.463  0.1364  1.7632  2.2649
20671SOL     OW69127   8.891   7.540   8.381 -0.0274 -0.0440  0.2667
20671SOL    HW169128   8.971   7.546   8.435  0.3274  1.3278 -0.3741
20671SOL    HW269129   8.920   7.496   8.301  0.2479  1.0162 -0.2291
20672SOL     OW69130   1.076   9.305   4.937 -0.0063  0.0461 -0.4750
20672SOL    HW169131   1.082   9.220   4.894  2.1562 -1.3629  2.3306
20672SOL    HW269132   0.984   9.311   4.965 -0.3304 -1.0425 -1.2414
20673SOL     OW69133   1.397  11.637   4.860  0.1774  0.2199 -0.1933
20673SOL    HW169134   1.357  11.571   4.917 -0.7000 -0.6956 -1.8112
20673SOL    HW269135   1.489  11.639   4.887  0.0431 -1.0871  0.4328
20674SOL     OW69136   3.542   4.283   4.193  0.4056  0.0793 -0.5397
20674SOL    HW169137   3.555   4.234   4.274  1.4469 -1.0706 -1.3633
20674SOL    HW269138   3.621   4.335   4.182  0.3424  0.1078 -0.8934
20675SOL     OW69139   7.873   3.663   2.680  0.5728 -0.5139  0.0916
20675SOL    HW169140   7.827   3.742   2.710  1.6861 -0.1053  0.7999
20675SOL    HW269141   7.891   3.680   2.587 -0.1202 -0.4003 -0.0269
20676SOL     OW69142   6.265   8.916   9.726 -0.4648 -0.4331 -0.2040
20676SOL    HW169143   6.313   8.858   9.667  0.1794 -1.6588  1.4648
20676SOL    HW269144   6.192   8.863   9.757 -0.8877  0.2504 -0.0211
20677SOL     OW69145   5.598   0.078   3.440  0.1148 -0.1359 -0.5605
20677SOL    HW169146   5.672   0.138   3.448  0.6926 -0.9644  0.6518
20677SOL    HW269147   5.631  -0.005   3.473 -1.2130 -0.6667 -0.5005
20678SOL     OW69148  11.018   9.309   2.209 -0.1595 -0.1147  0.9404
20678SOL    HW169149  11.094   9.268   2.249 -0.2933  0.3532  1.6811
20678SOL    HW269150  10.990   9.246   2.142  3.1298  1.2927 -2.0613
20679SOL     OW69151   7.518   6.540   8.952  0.1868 -0.1220 -0.9711
20679SOL    HW169152   7.545   6.451   8.973  1.0703  0.0530 -1.2989
20679SOL    HW269153   7.429   6.547   8.986  0.4999 -0.7764  0.0425
20680SOL     OW69154   2.950   6.521   9.382  0.2487  0.5000  0.0035
20680SOL    HW169155   2.869   6.557   9.346 -0.0562  1.8680  1.9393
20680SOL    HW269156   2.922   6.468   9.456  1.1443  1.6877  1.2260
20681SOL     OW69157   6.220   9.399   2.728 -0.0904 -0.2215 -0.1083
20681SOL    HW169158   6.163   9.473   2.749 -0.7469 -0.7298 -0.0646
20681SOL    HW269159   6.264   9.378   2.810 -0.0951 -0.0487 -0.0615
20682SOL     OW69160   3.335   6.269   0.724 -0.3019 -0.4265  0.4008
20682SOL    HW169161   3.344   6.207   0.796 -2.8756  0.5453  1.6658
20682SOL    HW269162   3.418   6.318   0.725 -0.0898 -0.7315  2.4313
20683SOL     OW69163  10.125   9.560   2.725 -0.3881 -0.1069  0.1256
20683SOL    HW169164  10.173   9.495   2.674 -0.1111 -0.5087  0.8857
20683SOL    HW269165  10.187   9.591   2.791 -0.7592  0.3502  0.2704
20684SOL     OW69166   0.116   8.420   2.675  0.1485 -0.2679  0.4903
20684SOL    HW169167   0.027   8.385   2.665 -0.0342 -0.5378  2.4684
20684SOL    HW269168   0.156   8.363   2.741  1.2818  0.7343  0.7019
20685SOL     OW69169  11.013   9.147   3.141 -0.6056 -0.4776 -0.0092
20685SOL    HW169170  11.103   9.116   3.149  0.1738  1.4577 -0.7678
20685SOL    HW269171  11.007   9.180   3.052 -1.3723  1.4720  0.7248
20686SOL     OW69172  10.139   9.935   2.330 -0.1505  0.2017  0.0677
20686SOL    HW169173  10.108   9.873   2.396 -0.0269  0.5111  0.4153
20686SOL    HW269174  10.076  10.007   2.333  0.9624  1.1584  1.2560
20687SOL     OW69175   1.048   0.734  11.239  0.6715  0.0748  0.3944
20687SOL    HW169176   1.075   0.644  11.258 -0.3977 -0.1923  0.7284
20687SOL    HW269177   1.054   0.779  11.324 -0.6689 -0.1930  0.6425
20688SOL     OW69178   0.689   0.905   6.768  0.0656  0.5835 -0.1861
20688SOL    HW169179   0.756   0.922   6.834 -1.7349 -1.6531  2.4424
20688SOL    HW269180   0.633   0.983   6.771  0.3746  0.7878  0.5133
20689SOL     OW69181   4.955   8.810   4.903 -0.1044  0.0705 -0.1209
20689SOL    HW169182   4.905   8.844   4.829  0.4618 -0.2803 -0.6737
20689SOL    HW269183   5.046   8.835   4.883  0.0856 -0.2586  0.3244
20690SOL     OW69184   6.901  12.503   8.552  0.4629 -0.3881  0.2898
20690SOL    HW169185   6.899  12.571   8.484  0.0147 -0.6876 -0.0004
20690SOL    HW269186   6.943  12.429   8.510  0.7024 -0.3845  0.5214
20691SOL     OW69187  12.292   1.713   6.333  0.2713  0.1360 -0.0058
20691SOL    HW169188  12.223   1.728   6.398  0.3251  2.2606 -0.3754
20691SOL    HW269189  12.369   1.690   6.385  0.2383  1.5026  0.6992
20692SOL     OW69190   7.370   3.724   9.403 -0.1997 -0.3353 -0.1101
20692SOL    HW169191   7.419   3.646   9.377  2.0558  1.0388 -0.1743
20692SOL    HW269192   7.278   3.696   9.399  0.4897 -2.7859 -0.7305
20693SOL     OW69193   0.737   9.835   9.965 -0.5930  0.4554  0.1958
20693SOL    HW169194   0.647   9.869   9.959 -0.1298  1.5330 -1.3705
20693SOL    HW269195   0.785   9.904  10.011 -0.2174  0.6635 -0.5062
20694SOL     OW69196   5.504   4.198  12.853  0.1177 -0.0632  0.2667
20694SOL    HW169197   5.535   4.287  12.839  0.9582 -0.4661 -0.5974
20694SOL    HW269198   5.559   4.144  12.795 -2.4330 -0.7796 -1.7039
20695SOL     OW69199   0.017   2.264  10.524 -0.4568  0.0869 -0.1641
20695SOL    HW169200   0.002   2.173  10.496 -0.1145 -0.3276  0.9246
20695SOL    HW269201  -0.034   2.317  10.463 -0.2283 -0.8012 -1.1510
20696SOL     OW69202   1.010  11.077   2.210  0.5170  0.1001 -0.5190
20696SOL    HW169203   1.062  11.130   2.271  0.0833 -1.3259  1.1856
20696SOL    HW269204   0.941  11.137   2.180 -0.9054  0.2277  2.5652
20697SOL     OW69205   1.258   3.962  12.020  0.0345 -0.2409 -0.0611
20697SOL    HW169206   1.167   3.980  12.045  0.2481  0.9519 -0.0921
20697SOL    HW269207   1.309   4.028  12.067  0.5140  1.8615 -3.2273
20698SOL     OW69208   3.446   0.133  10.918  0.3054  0.0870 -0.3047
20698SOL    HW169209   3.523   0.169  10.962  0.5440 -1.0719  0.2692
20698SOL    HW269210   3.373   0.159  10.974  0.6155 -1.4465  0.8840
20699SOL     OW69211   6.165   6.564   3.808 -0.2568  0.4479 -0.4560
20699SOL    HW169212   6.125   6.634   3.756 -1.9458 -0.6593 -0.7239
20699SOL    HW269213   6.247   6.601   3.839 -0.2730  1.9242 -2.0540
20700SOL     OW69214   6.549  11.302  11.604  0.6638  0.2976 -0.4118
20700SOL    HW169215   6.603  11.242  11.655  1.0299  1.4302  0.5819
20700SOL    HW269216   6.611  11.348  11.547  0.5279  0.4474 -0.4409
20701SOL     OW69217   2.391   7.239   3.105 -0.2129  0.2772 -0.2541
20701SOL    HW169218   2.422   7.149   3.106  0.2937  0.4481 -0.4435
20701SOL    HW269219   2.295   7.231   3.108 -0.2836 -0.3431 -2.4641
20702SOL     OW69220  10.696  11.613  11.611 -0.3831 -0.9005  0.6628
20702SOL    HW169221  10.609  11.613  11.651 -0.7748 -1.1901 -0.1630
20702SOL    HW269222  10.697  11.691  11.555 -0.2768 -1.1389  0.3312
20703SOL     OW69223   7.062   0.004   0.630 -0.2182 -0.1638 -0.3313
20703SOL    HW169224   7.135  -0.006   0.569  0.9346  0.0893  0.9513
20703SOL    HW269225   7.081  -0.057   0.701  1.7047  3.4966  2.6983
20704SOL     OW69226   1.311  11.384   0.232  0.1079  0.3427  0.0574
20704SOL    HW169227   1.325  11.460   0.176  2.6838 -0.1834 -0.1156
20704SOL    HW269228   1.328  11.308   0.176  1.2675 -0.2337  1.1194
20705SOL     OW69229   4.486  10.627  10.536  0.5108  0.7111  0.2996
20705SOL    HW169230   4.457  10.690  10.602  1.1159  1.2077  0.1043
20705SOL    HW269231   4.510  10.549  10.586 -0.2341  0.6334  0.5462
20706SOL     OW69232   3.571   0.614   2.941  0.6887  0.3746 -1.3136
20706SOL    HW169233   3.604   0.536   2.896 -1.0057 -0.8806 -0.4883
20706SOL    HW269234   3.492   0.638   2.892 -2.2291 -2.0448  1.6680
20707SOL     OW69235  12.086   2.335   5.737  0.4937 -0.4813 -0.0527
20707SOL    HW169236  12.117   2.374   5.656  1.3804 -0.4212  0.3036
20707SOL    HW269237  12.122   2.391   5.806 -0.5352 -0.3214  0.3823
20708SOL     OW69238   6.766   4.133   5.289  0.8423 -0.2812 -0.5173
20708SOL    HW169239   6.716   4.061   5.328  0.2637  0.1759 -0.3935
20708SOL    HW269240   6.761   4.203   5.354 -0.0230  0.4491 -1.3354
20709SOL     OW69241  10.218   5.553   9.526 -0.6499  0.2249  0.0411
20709SOL    HW169242  10.214   5.618   9.456  0.7235 -2.5648 -2.9159
20709SOL    HW269243  10.138   5.501   9.514  0.7047 -1.7064 -1.1458
20710SOL     OW69244   2.344   4.737   6.009 -0.4191 -0.0483  0.0611
20710SOL    HW169245   2.415   4.741   6.072  0.3370 -0.1866 -0.7710
20710SOL    HW269246   2.371   4.796   5.938 -1.6468  0.7802  0.2493
20711SOL     OW69247   8.638   9.400   6.082  0.2469 -0.3762 -0.6089
20711SOL    HW169248   8.568   9.336   6.069  1.5605 -2.0136  0.0450
20711SOL    HW269249   8.657   9.398   6.175  0.3612  0.9753 -0.5702
20712SOL     OW69250   4.202   9.141   3.763  0.2656 -0.1567  0.1250
20712SOL    HW169251   4.147   9.213   3.731 -1.6935 -1.4070  0.5146
20712SOL    HW269252   4.273   9.185   3.809 -0.4948  1.5470 -0.2147
20713SOL     OW69253   8.392   3.178   3.612 -0.0137 -0.2475  0.1355
20713SOL    HW169254   8.338   3.256   3.598 -2.0317 -1.2150  1.7985
20713SOL    HW269255   8.442   3.197   3.692  1.1707  0.1463 -0.6801
20714SOL     OW69256  10.034   7.076   5.373 -0.1559  0.4707 -0.5274
20714SOL    HW169257  10.007   6.984   5.370 -1.6915  0.9080 -1.0839
20714SOL    HW269258  10.083   7.089   5.292  1.6302 -0.2712  0.3742
20715SOL     OW69259  10.485   9.614   8.244 -0.2636  0.8899  0.2789
20715SOL    HW169260  10.544   9.677   8.203  0.2030  1.2435  1.4777
20715SOL    HW269261  10.539   9.537   8.261 -0.5312  0.6286 -0.0143
20716SOL     OW69262  10.978   8.407   5.201 -0.4996 -0.0823  0.0594
20716SOL    HW169263  10.944   8.447   5.281  1.0346  2.4643 -0.4239
20716SOL    HW269264  11.038   8.473   5.165  2.9738 -3.1411 -0.4542
20717SOL     OW69265  11.187   6.597   4.841  0.0625  0.0350 -1.0560
20717SOL    HW169266  11.139   6.558   4.915 -1.4540  1.1066 -1.4241
20717SOL    HW269267  11.265   6.543   4.832  1.4615  1.1511  2.7115
20718SOL     OW69268   3.458   9.404  11.186  0.4670  0.2496  0.2777
20718SOL    HW169269   3.462   9.378  11.278  0.5044  1.1361  0.5342
20718SOL    HW269270   3.370   9.439  11.175 -0.4626 -2.1932 -0.6893
20719SOL     OW69271   9.204  12.188   1.764  0.1190 -0.0541 -0.0309
20719SOL    HW169272   9.209  12.097   1.794  4.3643 -1.0894 -2.9455
20719SOL    HW269273   9.264  12.236   1.822 -1.0543  0.6692  0.6279
20720SOL     OW69274   2.668   2.006   3.896 -0.3519 -0.3575  0.0763
20720SOL    HW169275   2.674   2.099   3.916 -1.6723 -0.2223 -0.0643
20720SOL    HW269276   2.628   1.967   3.974 -0.2719 -0.7306 -0.0645
20721SOL     OW69277   6.219  10.322   4.192 -0.6365  0.2441 -0.2246
20721SOL    HW169278   6.178  10.356   4.271  0.3229 -2.1274  1.4141
20721SOL    HW269279   6.149  10.278   4.144 -0.8292 -0.2665  0.5028
20722SOL     OW69280   5.669  12.141   2.460 -0.0395 -0.2665  0.0481
20722SOL    HW169281   5.701  12.197   2.531 -0.1791  0.5646 -0.5303
20722SOL    HW269282   5.574  12.149   2.463 -0.0247  0.5611 -0.8205
20723SOL     OW69283   2.308   3.476  10.858 -0.5164  0.1547  0.0318
20723SOL    HW169284   2.259   3.454  10.937 -2.3227  2.0761 -0.4731
20723SOL    HW269285   2.264   3.426  10.788 -0.6200  0.4772 -0.1388
20724SOL     OW69286   1.726  10.716   4.929 -0.6759 -0.3630  0.0192
20724SOL    HW169287   1.751  10.630   4.893  1.2742 -0.1740  0.8067
20724SOL    HW269288   1.809  10.760   4.945 -1.6435  1.5963 -0.1098
20725SOL     OW69289   0.443   8.299   6.784 -0.3708  0.3973  1.0059
20725SOL    HW169290   0.497   8.378   6.772  1.6637 -0.7305  2.1690
20725SOL    HW269291   0.405   8.283   6.698  1.6604  0.9541 -0.0626
20726SOL     OW69292   6.358  11.081   1.329  0.2194 -0.5820  0.1529
20726SOL    HW169293   6.311  11.076   1.412  0.5373 -4.6096  0.2619
20726SOL    HW269294   6.418  11.006   1.330  1.0700 -0.1090 -3.2325
20727SOL     OW69295   0.813   7.056  10.798  0.1030  0.3696  0.0313
20727SOL    HW169296   0.887   7.025  10.745  0.1100 -2.2551  1.4309
20727SOL    HW269297   0.831   7.023  10.886 -3.0116 -0.9462  0.2922
20728SOL     OW69298   9.733   3.284   4.362 -0.1858  0.3075  0.0449
20728SOL    HW169299   9.715   3.365   4.316 -0.7734  0.3352  0.3195
20728SOL    HW269300   9.824   3.293   4.392  0.1930  0.2970 -1.0716
20729SOL     OW69301   8.840   1.765   8.344 -0.3796  0.2865 -0.6065
20729SOL    HW169302   8.803   1.702   8.282  0.5859 -0.5092 -0.3897
20729SOL    HW269303   8.926   1.730   8.366 -0.7774  0.4289  1.3664
20730SOL     OW69304  12.181  10.657  12.821 -0.1628 -0.0021  0.2131
20730SOL    HW169305  12.255  10.718  12.817 -0.2959  0.1034 -0.9469
20730SOL    HW269306  12.220  10.571  12.806 -0.4985  0.2654 -2.7857
20731SOL     OW69307   9.829   1.902   2.361 -0.0485 -0.0639 -0.3842
20731SOL    HW169308   9.796   1.970   2.420 -1.4681 -0.5854 -0.5442
20731SOL    HW269309   9.772   1.907   2.284  0.3526 -0.8945 -0.7490
20732SOL     OW69310   8.748   5.255  11.689 -0.1636 -0.4300 -0.5773
20732SOL    HW169311   8.814   5.275  11.756  0.0548  0.4569 -1.0375
20732SOL    HW269312   8.733   5.339  11.645 -0.0204 -1.0726 -1.8981
20733SOL     OW69313   2.967   6.019   4.229  0.4279  0.1386  0.1075
20733SOL    HW169314   2.918   6.064   4.297 -0.3201  1.2983 -1.1561
20733SOL    HW269315   3.021   5.956   4.276 -0.7836  0.2272  1.6906
20734SOL     OW69316   5.620   3.345   5.504 -0.1961  0.4131  0.0348
20734SOL    HW169317   5.603   3.262   5.459  0.1855 -0.0077  0.6452
20734SOL    HW269318   5.711   3.364   5.485 -0.4347  0.9830 -0.5549
20735SOL     OW69319   3.015  12.476   3.514 -0.0357  0.3349 -0.5802
20735SOL    HW169320   2.942  12.438   3.562 -0.7375  0.3591 -1.5899
20735SOL    HW269321   3.081  12.407   3.511  0.2536  0.5259  0.8730
20736SOL     OW69322   8.329   8.492  11.171 -0.1433  0.0970  0.1603
20736SOL    HW169323   8.266   8.427  11.139 -0.5713  1.0012 -0.8716
20736SOL    HW269324   8.413   8.464  11.133  0.2945 -1.5585  2.1639
20737SOL     OW69325   8.532   2.934   5.399 -0.3994 -0.0790 -0.3054
20737SOL    HW169326   8.447   2.940   5.356 -0.6449  2.7278  0.4291
20737SOL    HW269327   8.595   2.945   5.328 -0.7560  1.6823 -0.3835
20738SOL     OW69328   0.937  10.002   5.091  0.2466 -0.0475 -0.2572
20738SOL    HW169329   0.908   9.913   5.109  1.1286 -0.2255  0.2890
20738SOL    HW269330   0.904  10.054   5.164  1.9356 -0.3884  0.7892
20739SOL     OW69331   1.741   0.384   6.413  0.0066  0.3350 -0.6692
20739SOL    HW169332   1.835   0.396   6.426  0.6981  1.8852 -5.1999
20739SOL    HW269333   1.729   0.289   6.415  1.8522  0.0596 -0.7436
20740SOL     OW69334   7.827   8.568   9.484  0.3805 -0.0710 -0.5953
20740SOL    HW169335   7.896   8.597   9.544 -0.3989  0.1759  0.2040
20740SOL    HW269336   7.855   8.481   9.455  0.4424 -0.4982  0.6857
20741SOL     OW69337   4.617   1.435  10.624 -0.4829  0.8996  0.0072
20741SOL    HW169338   4.615   1.526  10.593 -2.2746  1.4456  1.5538
20741SOL    HW269339   4.692   1.433  10.684 -0.2011  1.2594 -0.3279
20742SOL     OW69340   2.528   1.009   1.756  0.1832  0.0186 -0.1403
20742SOL    HW169341   2.584   0.949   1.806  0.1856  0.5916  0.5660
20742SOL    HW269342   2.516   1.084   1.815 -0.0909  0.5620 -0.8803
20743SOL     OW69343   2.958   9.990   1.961 -0.1260  0.5259 -0.2887
20743SOL    HW169344   2.897   9.979   1.888 -1.4442  0.1288  0.8309
20743SOL    HW269345   2.906   9.974   2.039  1.3625  0.4367  0.7421
20744SOL     OW69346   5.263   4.014   2.327 -0.6132 -0.2200  0.0759
20744SOL    HW169347   5.230   4.061   2.251  1.0773  0.7087 -0.1489
20744SOL    HW269348   5.250   4.075   2.400  1.6304  0.7401 -0.2235
20745SOL     OW69349  10.355  10.467   9.024  0.4493 -0.7790  0.3573
20745SOL    HW169350  10.307  10.388   8.998 -2.0866  1.0232 -0.9235
20745SOL    HW269351  10.320  10.490   9.110  0.1114 -0.3056  0.1006
20746SOL     OW69352   0.169   9.296  12.416  0.3697 -0.2952 -0.1476
20746SOL    HW169353   0.088   9.344  12.401  0.9133  1.5254  2.1228
20746SOL    HW269354   0.238   9.352  12.381  0.8513 -0.4735  0.4923
20747SOL     OW69355   7.878   1.738  12.328  0.3226 -0.4940  0.4733
20747SOL    HW169356   7.930   1.694  12.260 -0.8815  1.3048 -1.7732
20747SOL    HW269357   7.810   1.675  12.350 -0.3500 -0.4977 -1.3986
20748SOL     OW69358  12.698   4.276   7.040  0.0933 -0.4322  0.1404
20748SOL    HW169359  12.641   4.200   7.030  0.4021 -0.5730 -0.6613
20748SOL    HW269360  12.732   4.292   6.951  0.7406  0.0785  0.4705
20749SOL     OW69361   7.238  10.838   3.707 -0.0561  0.3441  0.4170
20749SOL    HW169362   7.198  10.774   3.766  0.3161 -0.6765 -0.3927
20749SOL    HW269363   7.261  10.787   3.629 -2.2337  1.9790 -1.4216
20750SOL     OW69364  11.512   7.328   8.145 -0.5363  0.0284  0.8679
20750SOL    HW169365  11.419   7.326   8.126 -0.2867  0.6001 -0.5765
20750SOL    HW269366  11.554   7.307   8.061  0.6349  0.0672  1.4197
20751SOL     OW69367   3.652   4.952   8.986 -0.1777  0.2499 -0.0767
20751SOL    HW169368   3.727   4.986   9.035 -1.1126  1.2034  0.7318
20751SOL    HW269369   3.576   4.989   9.029 -1.0627  1.2627 -2.3374
20752SOL     OW69370   8.252   3.708   6.977  0.3854  0.0285  0.3399
20752SOL    HW169371   8.319   3.655   6.933 -0.6176 -1.3618  0.4123
20752SOL    HW269372   8.189   3.644   7.009 -0.7641  1.2764  0.6411
20753SOL     OW69373   8.698   4.582   5.353 -0.2313  0.1279  0.0362
20753SOL    HW169374   8.721   4.636   5.429 -0.2276 -0.1873  0.2623
20753SOL    HW269375   8.602   4.585   5.350 -0.2656 -0.3716  0.4377
20754SOL     OW69376   3.919  10.361   3.644 -0.2352 -0.1556  0.6983
20754SOL    HW169377   3.893  10.405   3.562  0.0788  0.2079  0.7897
20754SOL    HW269378   4.009  10.332   3.628 -0.0643  0.1898  1.0253
20755SOL     OW69379   8.687   9.553  10.038  0.2147  0.0087 -0.1135
20755SOL    HW169380   8.624   9.481  10.045  0.0324  0.1830  0.0968
20755SOL    HW269381   8.685   9.594  10.125  3.0498 -1.9669  1.0078
20756SOL     OW69382   1.144   6.706   1.874 -0.1512 -0.0169 -0.0918
20756SOL    HW169383   1.177   6.738   1.790  0.2066  1.7612  0.6669
20756SOL    HW269384   1.158   6.611   1.871 -0.1450  0.0064 -2.0123
20757SOL     OW69385   3.085  11.013   2.367 -0.0339  0.0392  0.5730
20757SOL    HW169386   3.116  10.982   2.452 -1.1091 -1.0900  0.5800
20757SOL    HW269387   2.992  11.032   2.381 -0.3957 -0.8465 -0.5183
20758SOL     OW69388  12.936   5.785  10.112  0.1927 -0.7647  0.2565
20758SOL    HW169389  12.921   5.870  10.072 -0.4626 -1.5647 -1.2521
20758SOL    HW269390  12.876   5.783  10.187  0.7451  0.3669  0.7526
20759SOL     OW69391   4.356   9.583  11.981  0.0988  0.7851 -0.3724
20759SOL    HW169392   4.349   9.648  12.051  0.8729  1.9225 -1.3105
20759SOL    HW269393   4.450   9.577  11.963 -0.0625  0.2498 -1.0629
20760SOL     OW69394   1.906   9.231   1.724  0.0359 -0.2426 -0.8015
20760SOL    HW169395   1.895   9.290   1.650 -0.4321 -0.6622 -1.0761
20760SOL    HW269396   1.994   9.249   1.757  0.6128 -0.6958 -2.0267
20761SOL     OW69397   4.496  12.710  11.056 -0.1618  0.2750 -0.1099
20761SOL    HW169398   4.410  12.722  11.097 -1.1037  0.0352 -1.8934
20761SOL    HW269399   4.546  12.786  11.084 -0.8372  0.2656  1.2221
20762SOL     OW69400   8.729   4.424  10.929 -0.2275 -0.0994 -0.0793
20762SOL    HW169401   8.728   4.328  10.923  0.2740 -0.2327  1.4631
20762SOL    HW269402   8.637   4.449  10.920 -0.4928 -0.8179  0.4873
20763SOL     OW69403  12.311   4.122   6.365  0.2401  0.2499 -0.7145
20763SOL    HW169404  12.273   4.062   6.301 -0.3500 -0.3832  0.2043
20763SOL    HW269405  12.318   4.071   6.445  0.3244  1.2265 -0.0794
20764SOL     OW69406   5.378  11.446   0.127  0.4994 -0.1484  0.1264
20764SOL    HW169407   5.387  11.467   0.220  0.4464  0.3342  0.0256
20764SOL    HW269408   5.286  11.466   0.106  0.5580 -0.0780 -0.0706
20765SOL     OW69409   5.608   1.786   5.827 -0.0254  0.5583  0.0930
20765SOL    HW169410   5.640   1.771   5.738 -0.4841 -1.3531  0.2055
20765SOL    HW269411   5.517   1.816   5.815 -0.5936 -1.1504 -0.0821
20766SOL     OW69412  11.387   7.084   6.027 -0.2506  0.2996  0.1347
20766SOL    HW169413  11.304   7.131   6.032 -0.2556  0.6909 -2.4923
20766SOL    HW269414  11.401   7.069   5.934  1.2175 -2.3665  0.6773
20767SOL     OW69415   3.501   4.636   4.424  0.0992  0.1797 -0.5695
20767SOL    HW169416   3.452   4.711   4.391 -1.4200 -1.0845 -1.3291
20767SOL    HW269417   3.577   4.630   4.366 -0.0548  0.8066 -0.8423
20768SOL     OW69418   7.554  11.914   2.366  0.0254 -0.1200 -0.9019
20768SOL    HW169419   7.576  11.896   2.275 -0.3255 -0.0457 -1.0043
20768SOL    HW269420   7.601  11.994   2.387 -1.1244  0.7435 -1.5067
20769SOL     OW69421   8.093   8.088   0.578  0.2446 -0.4446  0.3013
20769SOL    HW169422   8.020   8.100   0.638 -0.0696 -0.4000 -0.0897
20769SOL    HW269423   8.062   8.025   0.513  0.9727 -1.3652  0.8278
20770SOL     OW69424  10.848   7.097   3.157  0.3707  0.4541  0.0092
20770SOL    HW169425  10.913   7.167   3.146 -0.5735  1.1049 -1.8263
20770SOL    HW269426  10.837   7.062   3.069  1.8556 -3.0469  1.0606
20771SOL     OW69427  11.989   9.146   1.311 -0.2442 -0.0220  0.3539
20771SOL    HW169428  12.025   9.182   1.392  1.3082  1.5946 -0.9598
20771SOL    HW269429  12.034   9.063   1.299  2.2611  1.3551 -0.5676
20772SOL     OW69430   0.414   2.006   7.765 -0.2474 -0.0996  0.1626
20772SOL    HW169431   0.371   2.040   7.844 -0.8774  1.0467 -0.6257
20772SOL    HW269432   0.347   2.016   7.696  0.5579 -0.3061 -0.6655
20773SOL     OW69433   2.245   1.664   8.257 -0.6325 -0.0816  0.5403
20773SOL    HW169434   2.244   1.570   8.235 -2.9212  0.3086 -1.5035
20773SOL    HW269435   2.248   1.708   8.172  1.3100  1.7603  1.4832
20774SOL     OW69436   1.542   4.520   8.848  0.0753  0.2261 -0.6949
20774SOL    HW169437   1.634   4.544   8.837  0.8582 -0.8669  2.3934
20774SOL    HW269438   1.505   4.589   8.904 -0.6841  0.0805 -1.0007
20775SOL     OW69439   5.928   6.938   4.626 -0.2695  0.3527  0.0038
20775SOL    HW169440   5.865   6.890   4.573  0.9266 -0.8552 -0.3722
20775SOL    HW269441   5.878   6.969   4.701 -0.9762 -2.1017  0.6401
20776SOL     OW69442   1.740   4.419   6.216  0.6741 -0.4334 -0.3313
20776SOL    HW169443   1.777   4.496   6.259  0.0605  0.4168 -1.2642
20776SOL    HW269444   1.816   4.375   6.177  0.9027  0.3820 -0.8301
20777SOL     OW69445  10.846   2.116   8.540 -0.2370 -0.0025 -0.1420
20777SOL    HW169446  10.786   2.189   8.554  0.2556  0.4114 -0.1614
20777SOL    HW269447  10.870   2.122   8.448  0.0751  0.0176 -0.0592
20778SOL     OW69448   6.191   1.958   8.762  0.0581 -0.4298 -0.3704
20778SOL    HW169449   6.277   1.969   8.802  1.4231 -1.6044 -2.7420
20778SOL    HW269450   6.195   1.873   8.718 -1.4341  0.5029 -2.5342
20779SOL     OW69451   0.645  12.118   3.021 -0.6925  0.6911 -0.1734
20779SOL    HW169452   0.649  12.140   3.114 -0.1843 -1.1782  0.2851
20779SOL    HW269453   0.640  12.023   3.020  0.1277  0.6390 -2.0928
20780SOL     OW69454   4.578   1.788   2.157  0.0344  0.2503  0.1866
20780SOL    HW169455   4.595   1.876   2.123 -0.7138 -0.6428 -2.7497
20780SOL    HW269456   4.656   1.738   2.134 -0.4984 -0.3957 -0.2435
20781SOL     OW69457   1.025   6.908  10.413  0.0998 -0.3216  0.2592
20781SOL    HW169458   0.989   6.972  10.352 -0.0256 -2.2973 -1.8932
20781SOL    HW269459   1.120   6.915  10.403  0.2492  1.4467  2.2223
20782SOL     OW69460  12.603   3.094  12.749 -0.0563  0.2624  0.1983
20782SOL    HW169461  12.649   3.141  12.818 -0.2944  1.3767 -0.3680
20782SOL    HW269462  12.510   3.113  12.765 -0.2464 -0.9201  0.5904
20783SOL     OW69463   5.241   0.448   6.719  0.5091  0.1681 -0.0782
20783SOL    HW169464   5.153   0.416   6.740  1.2595 -1.4426  0.7841
20783SOL    HW269465   5.229   0.502   6.642 -1.3608  0.6485  0.5032
20784SOL     OW69466   9.765   3.824   8.206  0.3071 -0.0115  0.2294
20784SOL    HW169467   9.724   3.882   8.270  0.4792  0.8388 -0.3992
20784SOL    HW269468   9.716   3.742   8.213 -1.9078  1.1198 -0.8564
20785SOL     OW69469   5.433   7.329   3.679  0.4273  0.1790  0.1170
20785SOL    HW169470   5.486   7.400   3.644  0.4775 -0.7748 -1.9223
20785SOL    HW269471   5.496   7.264   3.708  0.4045 -0.1893 -0.6275
20786SOL     OW69472   5.210   0.555  11.095  0.6230 -1.0532  0.0481
20786SOL    HW169473   5.212   0.460  11.108  2.5334 -1.1720 -0.7481
20786SOL    HW269474   5.247   0.568  11.008  0.3831  0.4342  0.1387
20787SOL     OW69475   8.987  11.866  12.230  0.4105 -0.1408 -0.5156
20787SOL    HW169476   8.994  11.804  12.303  1.4479  2.2810  1.5659
20787SOL    HW269477   9.032  11.822  12.157  1.5624 -1.6171  1.0046
20788SOL     OW69478   4.359   6.345  10.059 -0.2501 -1.0480  0.0595
20788SOL    HW169479   4.318   6.408  10.119 -0.8401 -1.5822  0.2303
20788SOL    HW269480   4.306   6.350   9.979  1.5229  0.9009 -1.1083
20789SOL     OW69481   7.712   2.641   0.715 -0.3418 -0.4395  0.0936
20789SOL    HW169482   7.725   2.735   0.700 -0.0598 -0.6523 -1.0778
20789SOL    HW269483   7.623   2.635   0.750 -0.7830  0.1714 -0.8834
20790SOL     OW69484  11.874   3.751   0.851 -0.1767  0.2987  0.4007
20790SOL    HW169485  11.943   3.800   0.896  0.1841  0.5122 -0.3764
20790SOL    HW269486  11.880   3.663   0.888  1.3166 -0.0146 -0.4974
20791SOL     OW69487  12.258   1.345  12.966 -0.1160 -0.4464 -0.1362
20791SOL    HW169488  12.273   1.272  12.906 -0.3047 -2.3549  1.9908
20791SOL    HW269489  12.189   1.314  13.025  0.1268  1.2671  1.1347
20792SOL     OW69490   2.803   5.866  12.446  0.2745  0.6303  0.9334
20792SOL    HW169491   2.849   5.872  12.529 -2.4783 -0.2948  2.6860
20792SOL    HW269492   2.710   5.870  12.470 -0.6402  0.0026 -2.0728
20793SOL     OW69493   8.536  10.069   3.265 -0.1817 -0.0815 -0.5903
20793SOL    HW169494   8.574   9.982   3.277  1.8729  0.6817 -1.1641
20793SOL    HW269495   8.552  10.090   3.173 -0.8457  0.8220 -0.5131
20794SOL     OW69496   7.985   5.679   4.215  0.7069 -0.3272  1.1483
20794SOL    HW169497   7.991   5.591   4.178  2.7361  0.6959 -1.3275
20794SOL    HW269498   7.896   5.685   4.249  0.3334 -3.1265  0.8739
20795SOL     OW69499   8.780   6.971   8.456  0.6190 -0.4021 -0.5655
20795SOL    HW169500   8.687   6.963   8.436  0.4597  1.6157 -0.8937
20795SOL    HW269501   8.801   6.892   8.506 -1.2045 -0.9989 -0.6640
20796SOL     OW69502   8.773   3.447  10.306  0.2034 -0.1384  0.2348
20796SOL    HW169503   8.799   3.445  10.214  0.4627 -0.6013  0.3166
20796SOL    HW269504   8.852   3.421  10.354  0.9796  2.8876  0.7973
20797SOL     OW69505   8.750   5.615   8.627  0.4873 -0.0042  0.1513
20797SOL    HW169506   8.831   5.605   8.675  0.5863  2.9550  0.8051
20797SOL    HW269507   8.711   5.695   8.661 -1.2633  0.2632 -2.1742
20798SOL     OW69508  11.230   2.407  10.198 -0.4118 -0.1497 -0.0709
20798SOL    HW169509  11.197   2.367  10.117  1.0348 -0.5661 -0.4883
20798SOL    HW269510  11.207   2.344  10.266 -0.9560 -0.1703 -0.2639
20799SOL     OW69511   6.874   6.223   1.045  0.1541 -0.3170  0.0889
20799SOL    HW169512   6.852   6.282   0.972  0.7762  0.4001  0.4718
20799SOL    HW269513   6.924   6.152   1.003  0.4794  0.0717 -0.1995
20800SOL     OW69514   2.003   8.828   7.980  0.3910 -0.0348 -0.2468
20800SOL    HW169515   1.953   8.905   8.006  0.0181 -0.4186  0.1840
20800SOL    HW269516   1.937   8.760   7.966  0.8153 -0.6636  0.7304
20801SOL     OW69517   7.505   7.732  11.962 -0.6836 -0.0719  0.3000
20801SOL    HW169518   7.559   7.662  12.000 -0.5852 -0.6219 -0.7978
20801SOL    HW269519   7.513   7.804  12.024  0.6072 -0.4442  0.6156
20802SOL     OW69520   4.061   5.700   8.451  0.2528 -0.1719  0.3576
20802SOL    HW169521   4.032   5.612   8.428  0.9416 -0.1096 -0.8445
20802SOL    HW269522   4.119   5.726   8.379  2.4143  0.1349  2.0962
20803SOL     OW69523   0.783   8.319   2.147  0.0471  0.5733 -0.0218
20803SOL    HW169524   0.817   8.351   2.063  1.5039 -2.4776 -0.7222
20803SOL    HW269525   0.859   8.318   2.205 -0.3717  0.1530  0.5302
20804SOL     OW69526  12.369  11.737  10.536 -0.3813 -0.6801 -0.2606
20804SOL    HW169527  12.365  11.641  10.534 -2.1754 -0.8026  2.9704
20804SOL    HW269528  12.292  11.763  10.586  0.1980  2.4817 -0.8352
20805SOL     OW69529  11.528   7.884   4.862  0.6382 -1.0733  0.0159
20805SOL    HW169530  11.593   7.841   4.806  2.1706 -0.0594  0.9260
20805SOL    HW269531  11.575   7.902   4.944 -0.9660 -0.7955  0.9294
20806SOL     OW69532   1.736   8.570   9.920 -0.3191  0.1501  0.4543
20806SOL    HW169533   1.697   8.536   9.839 -1.2158  2.2842 -0.1020
20806SOL    HW269534   1.693   8.521   9.989 -0.5872 -0.7393 -0.3171
20807SOL     OW69535   0.545  10.058   1.132 -0.4070  0.1836  0.3402
20807SOL    HW169536   0.498  10.106   1.065  1.4886 -0.2360 -1.3953
20807SOL    HW269537   0.614  10.012   1.085  1.3990  0.3225  2.6281
20808SOL     OW69538   3.535   8.712   1.907  0.2752  0.1477 -0.6158
20808SOL    HW169539   3.555   8.674   1.821 -0.6307  0.7507 -1.1088
20808SOL    HW269540   3.549   8.806   1.895  0.7717  0.1701  0.0903
20809SOL     OW69541   2.052  12.171   9.015  0.8154 -0.1142  0.1808
20809SOL    HW169542   1.998  12.145   9.089  1.9101  2.5327  2.0846
20809SOL    HW269543   2.139  12.136   9.035  1.2682  1.1557  0.5343
20810SOL     OW69544   6.384   3.728   7.110  0.0842 -0.3597 -0.2256
20810SOL    HW169545   6.354   3.698   7.196 -3.7076  0.0278 -1.2232
20810SOL    HW269546   6.380   3.824   7.115 -0.0181 -0.3302 -0.7870
20811SOL     OW69547   7.572  11.832  11.286 -0.0080  0.2022  0.3544
20811SOL    HW169548   7.635  11.904  11.299  0.9097 -0.0539 -2.2022
20811SOL    HW269549   7.492  11.862  11.330  0.8133  2.1045  0.6590
20812SOL     OW69550   5.624   1.473   8.826 -0.1253 -0.0613 -0.0434
20812SOL    HW169551   5.700   1.520   8.792 -0.2619  1.2229  1.3019
20812SOL    HW269552   5.553   1.537   8.824 -0.3458 -0.2023  1.7480
20813SOL     OW69553  11.947   5.812   4.182 -0.1299  0.2341 -0.1313
20813SOL    HW169554  11.980   5.862   4.257  0.5687 -0.4525  0.0334
20813SOL    HW269555  12.026   5.781   4.137 -0.4797  1.7393 -1.9456
20814SOL     OW69556  12.282  11.473   8.947 -0.2587  0.1059  0.4187
20814SOL    HW169557  12.361  11.424   8.971 -0.3442  0.1595  0.8191
20814SOL    HW269558  12.240  11.492   9.031 -1.0505 -0.5061  0.1648
20815SOL     OW69559   1.822   5.240  12.237  0.3191  0.1165 -0.0656
20815SOL    HW169560   1.888   5.242  12.306  0.5557  0.6412 -0.2978
20815SOL    HW269561   1.738   5.246  12.282  0.3515 -1.7548  0.3190
20816SOL     OW69562   8.182   5.850  11.182  0.2349  0.4507 -0.0637
20816SOL    HW169563   8.154   5.761  11.205  1.7212  0.4554  2.1601
20816SOL    HW269564   8.124   5.876  11.111 -1.5948 -1.5291  0.5897
20817SOL     OW69565   1.061   0.446  10.235  0.4434 -0.1102  0.1135
20817SOL    HW169566   0.994   0.516  10.231 -0.7470 -1.2406 -0.7631
20817SOL    HW269567   1.138   0.485  10.193  0.1225  0.9974  0.5067
20818SOL     OW69568  11.804   0.896  10.648  0.3969 -0.1982  0.1357
20818SOL    HW169569  11.772   0.809  10.672 -0.6767  0.2994  0.5788
20818SOL    HW269570  11.767   0.912  10.562 -0.6559  0.4143  0.6841
20819SOL     OW69571   7.062  12.052   3.096  0.2341  0.5947  0.2704
20819SOL    HW169572   6.990  12.001   3.134 -0.6670  0.2915 -1.7263
20819SOL    HW269573   7.118  11.987   3.055  0.2294  1.0393 -0.4552
20820SOL     OW69574   7.164  12.373   0.269 -0.3392  0.3226 -0.8627
20820SOL    HW169575   7.093  12.426   0.303  0.1985 -0.0092  0.8371
20820SOL    HW269576   7.241  12.398   0.321 -0.3688 -3.1931  1.1920
20821SOL     OW69577   9.587   1.926   0.380  0.3531  0.0618 -0.2556
20821SOL    HW169578   9.511   1.945   0.324  0.2136  0.0991 -0.0555
20821SOL    HW269579   9.617   2.013   0.408 -0.1815  0.0079  0.5250
20822SOL     OW69580   6.494   8.331  11.230  0.5175  0.1692 -0.6873
20822SOL    HW169581   6.539   8.302  11.150 -0.0315 -0.2552 -0.8545
20822SOL    HW269582   6.487   8.251  11.283  0.1102  0.2636 -0.5975
20823SOL     OW69583  10.228   5.023  11.165 -0.1347 -0.0252 -0.1179
20823SOL    HW169584  10.317   5.035  11.133 -0.2597 -0.6908 -0.7551
20823SOL    HW269585  10.218   5.088  11.234  1.5079 -1.2248  1.3536
20824SOL     OW69586   5.227   2.783   9.864  0.4794 -0.1358  0.4636
20824SOL    HW169587   5.176   2.704   9.887 -1.4272  1.1479  0.8908
20824SOL    HW269588   5.202   2.801   9.773  1.5605 -0.4763  0.0902
20825SOL     OW69589   3.751   0.596  11.105 -0.0765 -0.5210  0.0752
20825SOL    HW169590   3.712   0.677  11.074  3.7330  0.9090 -1.5623
20825SOL    HW269591   3.750   0.604  11.201  0.3947  1.5857 -0.0586
20826SOL     OW69592   9.557   0.364   1.673 -0.7633  0.2909 -0.6322
20826SOL    HW169593   9.551   0.342   1.766  0.5290  1.5552 -0.2126
20826SOL    HW269594   9.466   0.369   1.643 -1.1779 -0.4798  0.4714
20827SOL     OW69595   1.182   5.108   7.932 -0.2474 -0.2850 -0.5410
20827SOL    HW169596   1.169   5.123   7.838 -0.5376  1.2414 -0.2893
20827SOL    HW269597   1.114   5.161   7.974 -0.4045 -1.3049  0.5289
20828SOL     OW69598   3.241   4.403  10.269  0.1455  0.7713  0.5994
20828SOL    HW169599   3.229   4.310  10.287  2.3381 -0.2553 -2.3501
20828SOL    HW269600   3.193   4.418  10.187  0.7582  1.9308  0.4273
20829SOL     OW69601   1.260  12.324   8.004 -0.0105  0.1839 -0.1329
20829SOL    HW169602   1.315  12.332   8.082  0.4328 -0.1622 -0.4072
20829SOL    HW269603   1.246  12.230   7.994 -1.4299  0.3141  0.4653
20830SOL     OW69604   0.377   4.025   8.172  0.5312 -0.4621 -0.2524
20830SOL    HW169605   0.382   3.930   8.160  1.2671 -0.1831 -2.7547
20830SOL    HW269606   0.326   4.056   8.097 -1.7563  0.9688  1.7349
20831SOL     OW69607   4.294   2.946   3.720 -0.6580  0.1269 -0.1588
20831SOL    HW169608   4.309   2.858   3.755  0.6701  0.5692  0.4670
20831SOL    HW269609   4.229   2.984   3.779 -1.6483 -0.6036 -0.7515
20832SOL     OW69610   4.139   0.844   7.503 -0.0377  0.4768 -0.7490
20832SOL    HW169611   4.124   0.759   7.545 -0.6009  0.6547 -0.5844
20832SOL    HW269612   4.084   0.841   7.425 -0.2594  0.7930 -0.6045
20833SOL     OW69613  12.735  11.159  10.520 -0.1084 -0.3512  0.2086
20833SOL    HW169614  12.741  11.071  10.484 -0.4004 -1.3694  2.4913
20833SOL    HW269615  12.771  11.215  10.452  0.3142 -2.2510 -1.2085
20834SOL     OW69616   3.810  11.772   7.951 -0.7700  0.4506 -0.0149
20834SOL    HW169617   3.811  11.767   8.046  0.1196  1.8166  0.0730
20834SOL    HW269618   3.873  11.706   7.922  1.5958  2.3474  0.5295
20835SOL     OW69619   1.277   1.890   1.436  0.5355  0.1321  0.1833
20835SOL    HW169620   1.361   1.922   1.404 -0.7246  1.9200 -1.5897
20835SOL    HW269621   1.270   1.923   1.526  1.8888 -0.4584  0.5270
20836SOL     OW69622   2.366  12.238   4.129  0.5563 -0.4940 -0.1741
20836SOL    HW169623   2.313  12.316   4.142  0.2939 -0.7433  0.2974
20836SOL    HW269624   2.377  12.202   4.217 -1.0835 -2.1188 -0.5533
20837SOL     OW69625   0.910  10.118  11.991 -0.0224  0.3143 -0.2419
20837SOL    HW169626   0.878  10.127  12.081 -0.3891  0.8364 -0.4135
20837SOL    HW269627   0.999  10.084  12.000 -0.0337  0.4164  0.3220
20838SOL     OW69628   3.552   9.516  10.134  0.1316  0.5281  0.5024
20838SOL    HW169629   3.566   9.557  10.049 -0.7890 -0.5737 -0.2167
20838SOL    HW269630   3.471   9.555  10.167 -0.6437 -0.4985 -0.0989
20839SOL     OW69631   6.171  12.287  12.873  0.1633 -0.4572  0.0860
20839SOL    HW169632   6.251  12.267  12.824  0.5471 -1.9609  1.2133
20839SOL    HW269633   6.127  12.202  12.881 -0.2983 -0.1054  1.5559
20840SOL     OW69634   5.430   9.335   4.731  0.4904 -0.1475 -0.0155
20840SOL    HW169635   5.478   9.377   4.659 -2.0317  2.5996 -0.2961
20840SOL    HW269636   5.489   9.343   4.806  1.3691  1.1112 -0.7910
20841SOL     OW69637   6.470   9.899  12.340  0.1361 -0.2593 -0.2574
20841SOL    HW169638   6.419   9.979  12.357 -0.0160 -0.5743  0.8354
20841SOL    HW269639   6.412   9.846  12.285 -0.8216 -0.6810  1.0958
20842SOL     OW69640   7.404   9.342  11.524 -0.2352 -0.0582 -0.4053
20842SOL    HW169641   7.337   9.281  11.553 -0.0688 -0.8548 -1.6168
20842SOL    HW269642   7.487   9.303  11.552 -0.2207  0.7220  0.7318
20843SOL     OW69643   2.774   5.249   1.113  0.3940 -0.4638 -0.1930
20843SOL    HW169644   2.827   5.194   1.056 -1.0864 -0.9308 -1.1820
20843SOL    HW269645   2.704   5.192   1.145 -0.2496  0.4329  0.0624
20844SOL     OW69646   1.775   0.357   2.707  0.7207 -0.3617 -0.1181
20844SOL    HW169647   1.700   0.371   2.650  0.7337  1.2000  0.2096
20844SOL    HW269648   1.830   0.434   2.693  1.6837 -0.9123  0.5351
20845SOL     OW69649  11.265   9.904   6.198 -0.4275 -0.8583  0.4763
20845SOL    HW169650  11.189   9.916   6.254 -0.9192 -1.0478 -0.1315
20845SOL    HW269651  11.274   9.809   6.190 -0.0322 -0.8401  0.6626
20846SOL     OW69652   8.047   1.638   5.374 -0.4243 -0.5338 -0.2403
20846SOL    HW169653   8.045   1.724   5.415  0.7822 -1.1769  1.2599
20846SOL    HW269654   7.990   1.583   5.427 -1.0576 -0.7341 -1.0916
20847SOL     OW69655   5.550   4.070   2.258  0.2572 -0.3367  0.0296
20847SOL    HW169656   5.469   4.045   2.303 -1.2090  2.5388 -0.7257
20847SOL    HW269657   5.550   4.018   2.178 -0.7287 -0.5952  0.1800
20848SOL     OW69658   6.306   0.712  10.721 -0.7106  0.7750 -0.1863
20848SOL    HW169659   6.329   0.763  10.798  0.4590 -1.6596  1.2136
20848SOL    HW269660   6.235   0.655  10.750  0.9588 -1.4851 -0.1901
20849SOL     OW69661   0.626   0.751   5.464 -0.0747  0.1875 -0.4540
20849SOL    HW169662   0.553   0.803   5.498 -1.0384 -1.9126  0.9035
20849SOL    HW269663   0.702   0.781   5.514 -1.2484 -2.0114  2.9820
20850SOL     OW69664   4.472   0.647  11.567  0.1380 -0.1952 -0.0651
20850SOL    HW169665   4.516   0.706  11.507  1.6286 -1.3308 -0.1428
20850SOL    HW269666   4.512   0.663  11.652 -2.1140  1.5635  0.7772
20851SOL     OW69667  11.752   4.193   0.950  0.2936  0.0803  0.2886
20851SOL    HW169668  11.790   4.265   0.899 -0.5833  0.0878 -0.3914
20851SOL    HW269669  11.715   4.134   0.884 -0.7525  0.0276  0.9018
20852SOL     OW69670   0.401   4.501  12.098 -0.1495 -0.3504  0.3807
20852SOL    HW169671   0.473   4.544  12.143  0.3020 -0.7415  0.0460
20852SOL    HW269672   0.339   4.477  12.167 -0.8846  1.6948  0.4842
20853SOL     OW69673   9.366   6.314   2.641  0.2093 -0.1851 -0.0744
20853SOL    HW169674   9.318   6.234   2.618  3.6282 -2.5263  0.2456
20853SOL    HW269675   9.310   6.358   2.705 -1.7897 -2.2925 -0.2395
20854SOL     OW69676   6.912   0.161   9.330  0.2634 -0.5470  0.7170
20854SOL    HW169677   6.870   0.176   9.415  1.8010  3.0496  1.0079
20854SOL    HW269678   6.873   0.227   9.273  1.7620 -0.5950 -0.4011
20855SOL     OW69679  10.108   9.404   9.669 -0.2216 -0.4393 -0.6781
20855SOL    HW169680  10.144   9.472   9.726 -2.0931  0.1112 -0.0985
20855SOL    HW269681  10.046   9.450   9.613 -0.5963 -1.4746 -1.1325
20856SOL     OW69682   5.533   5.645   3.883 -0.4156 -0.1459 -0.4414
20856SOL    HW169683   5.530   5.649   3.787  0.4836 -0.3215 -0.4901
20856SOL    HW269684   5.612   5.594   3.902 -0.1648  0.5376  0.4018
20857SOL     OW69685   0.850  12.739   3.477 -0.5648  0.2156 -0.2144
20857SOL    HW169686   0.827  12.809   3.539 -2.3370  0.5315 -1.1739
20857SOL    HW269687   0.892  12.673   3.531 -0.9970  1.0010  1.1386
20858SOL     OW69688  11.250   3.908   6.018  0.3155 -0.2447 -0.2642
20858SOL    HW169689  11.252   3.892   5.924 -1.7296  1.5613 -0.6806
20858SOL    HW269690  11.183   3.848   6.051  1.5443 -1.4129  0.2232
20859SOL     OW69691  12.686  10.339  10.476 -0.3453  0.2024  0.0540
20859SOL    HW169692  12.778  10.331  10.451 -0.2996  1.0781 -0.0937
20859SOL    HW269693  12.642  10.366  10.396 -0.9142 -1.1992 -0.1340
20860SOL     OW69694  11.501   5.957   3.131 -0.5753  0.0224 -0.1590
20860SOL    HW169695  11.504   6.045   3.094  0.8713  0.5890  1.1932
20860SOL    HW269696  11.591   5.925   3.126 -1.0006 -1.2313 -0.2618
20861SOL     OW69697  10.262   3.360  10.517  0.2858 -0.4194 -0.1486
20861SOL    HW169698  10.349   3.373  10.555  0.0598  0.1392  0.1957
20861SOL    HW269699  10.212   3.318  10.587 -0.0146  0.2307  0.0334
20862SOL     OW69700  12.196   4.124   1.552  0.5170 -0.1038  0.1230
20862SOL    HW169701  12.288   4.097   1.557  0.8234  0.8664 -0.0982
20862SOL    HW269702  12.199   4.218   1.537 -0.5253  0.0690  0.8572
20863SOL     OW69703  11.007   1.663   9.704 -0.2052  0.0663  0.2911
20863SOL    HW169704  11.021   1.706   9.789 -0.7751  0.1861  0.3272
20863SOL    HW269705  10.984   1.734   9.645  0.1435 -0.0245  0.0429
20864SOL     OW69706  10.620   3.313   8.651 -0.8383  0.2542  0.0181
20864SOL    HW169707  10.710   3.302   8.622 -0.0820 -1.9553  2.7821
20864SOL    HW269708  10.621   3.394   8.702  0.6696 -1.6346  3.2610
20865SOL     OW69709   0.876   6.414   2.246 -0.0834 -0.4106  0.5960
20865SOL    HW169710   0.874   6.419   2.341  0.0827 -0.7609  0.6187
20865SOL    HW269711   0.928   6.336   2.227  0.8742  0.2902  0.2102
20866SOL     OW69712   2.179   8.657   2.836 -0.4309 -0.2587 -0.5405
20866SOL    HW169713   2.178   8.725   2.903  0.8272 -1.3193  0.6084
20866SOL    HW269714   2.099   8.607   2.850  0.0473 -0.7574  0.5073
20867SOL     OW69715   8.537   5.213   5.281  0.5278 -0.5637  0.1457
20867SOL    HW169716   8.592   5.234   5.356  1.1797 -1.9887  0.1042
20867SOL    HW269717   8.477   5.287   5.273  1.5997  0.4312  0.9773
20868SOL     OW69718   9.468   7.108   8.906 -1.0424 -0.2703 -0.1046
20868SOL    HW169719   9.519   7.119   8.986  0.9407  0.3146 -1.3678
20868SOL    HW269720   9.388   7.158   8.921  0.4966  2.1858  0.5486
20869SOL     OW69721   1.355   8.213   2.513 -0.1112 -0.4472  0.3885
20869SOL    HW169722   1.274   8.184   2.470 -0.6151  0.2588  0.8368
20869SOL    HW269723   1.340   8.198   2.606 -0.0517  0.4226  0.5524
20870SOL     OW69724   2.720   1.160   7.999  0.0809 -0.1121 -0.8172
20870SOL    HW169725   2.757   1.197   7.918 -1.2475  1.3546 -0.8031
20870SOL    HW269726   2.680   1.234   8.043 -2.1077 -1.4315 -0.4230
20871SOL     OW69727  10.152   8.320   3.834  0.0343  0.2082  0.0133
20871SOL    HW169728  10.166   8.317   3.739 -0.4588  1.4083 -0.1150
20871SOL    HW269729  10.059   8.304   3.845  0.1051 -0.0113  0.3037
20872SOL     OW69730  12.005   2.791   2.390  0.8760  0.2322 -0.6498
20872SOL    HW169731  11.926   2.762   2.345  0.9870  1.5436 -1.7669
20872SOL    HW269732  12.039   2.712   2.433  0.1200 -0.8155 -1.9030
20873SOL     OW69733   6.797   5.400   9.804 -0.0562 -0.2418  0.0459
20873SOL    HW169734   6.732   5.332   9.784  0.6874 -0.7157 -0.8339
20873SOL    HW269735   6.870   5.380   9.746  0.7457  0.4818  0.7938
20874SOL     OW69736   2.094   2.998   4.552 -0.2306 -0.0428  0.0374
20874SOL    HW169737   2.160   2.936   4.582  0.5756  0.6952 -0.1783
20874SOL    HW269738   2.044   2.949   4.486 -1.2445 -1.2729  1.6436
20875SOL     OW69739   6.339   4.327   0.840 -0.1862 -0.3391  0.7035
20875SOL    HW169740   6.399   4.400   0.824  2.2104 -1.7206  2.7014
20875SOL    HW269741   6.334   4.281   0.756 -1.0043  1.5112 -0.3296
20876SOL     OW69742   1.142   4.622   0.859  0.2098  0.1468 -0.0894
20876SOL    HW169743   1.113   4.535   0.887 -0.2057  0.4402  0.4029
20876SOL    HW269744   1.125   4.624   0.765 -1.4813  0.3334  0.1866
20877SOL     OW69745  10.043  11.542   6.746 -0.1791 -0.0515  0.2831
20877SOL    HW169746   9.964  11.507   6.706 -0.3147 -0.6046  1.0245
20877SOL    HW269747  10.070  11.475   6.808  0.3666  0.5367  0.6876
20878SOL     OW69748  11.578   9.565  10.325 -0.1673 -0.2593 -0.0121
20878SOL    HW169749  11.618   9.500  10.383  0.1548 -1.2220 -1.2664
20878SOL    HW269750  11.484   9.559  10.342  0.0398  0.8558  1.7711
20879SOL     OW69751   3.421  11.289   1.489  0.1447 -0.2300  0.6980
20879SOL    HW169752   3.511  11.315   1.467 -0.1478 -0.2675 -0.6096
20879SOL    HW269753   3.378  11.370   1.513 -0.0927  0.1841 -0.9821
20880SOL     OW69754   6.453   6.777   5.675  0.0582  0.1475  0.0269
20880SOL    HW169755   6.453   6.838   5.601  0.5045  2.4719  1.8152
20880SOL    HW269756   6.361   6.767   5.698 -0.0778 -0.5449 -0.7728
20881SOL     OW69757   8.884   3.995   9.951 -0.2300 -0.2157 -0.1362
20881SOL    HW169758   8.882   4.021  10.042 -0.4446  1.2238 -0.5319
20881SOL    HW269759   8.960   3.936   9.945  0.0792  0.0606  0.8602
20882SOL     OW69760  10.376   2.592   8.427  0.5280  0.0482 -0.5427
20882SOL    HW169761  10.382   2.674   8.378  0.2836  1.3301  1.4228
20882SOL    HW269762  10.324   2.614   8.504  1.9311 -1.4975  0.9324
20883SOL     OW69763  12.869   7.898  11.349 -0.6025 -0.1743 -0.6990
20883SOL    HW169764  12.907   7.867  11.267  1.7555  1.9100 -0.5348
20883SOL    HW269765  12.898   7.835  11.415  1.6345  0.6615 -0.8044
20884SOL     OW69766   5.794   2.337   8.768 -0.8567 -0.1548 -0.2664
20884SOL    HW169767   5.708   2.342   8.726 -0.5286 -0.2319 -0.9732
20884SOL    HW269768   5.835   2.260   8.727 -0.8184 -0.6936  0.7690
20885SOL     OW69769  12.430  11.282  10.279  0.1581  0.4064 -0.1715
20885SOL    HW169770  12.348  11.291  10.327  0.0189 -0.3516 -0.2459
20885SOL    HW269771  12.471  11.203  10.316  0.3557  0.1841 -0.8359
20886SOL     OW69772   7.213  10.280  12.229  0.2921 -0.6426 -0.2450
20886SOL    HW169773   7.118  10.270  12.238  0.1678  1.1439  1.0307
20886SOL    HW269774   7.245  10.192  12.211 -1.6165 -1.2604 -0.8629
20887SOL     OW69775   0.940   2.933  11.168 -0.2542 -0.2056 -0.9554
20887SOL    HW169776   0.916   2.881  11.245  0.5504  1.0310  0.1690
20887SOL    HW269777   1.032   2.912  11.152 -1.0425 -2.3601 -3.1745
20888SOL     OW69778   3.579   1.905   0.751  0.0917 -0.1356 -0.4308
20888SOL    HW169779   3.561   1.924   0.843 -1.6294  0.2283 -0.7953
20888SOL    HW269780   3.673   1.889   0.747  0.4061  1.1181  1.1590
20889SOL     OW69781   6.213   9.185   2.406  0.0703 -0.2395 -0.3408
20889SOL    HW169782   6.136   9.229   2.369 -0.5276 -0.7522  0.2661
20889SOL    HW269783   6.239   9.123   2.338 -1.5211 -1.7610  0.3611
20890SOL     OW69784   3.828   8.486  10.145 -0.3954  0.0945 -0.2277
20890SOL    HW169785   3.835   8.493  10.241  0.6420  1.4863 -0.3678
20890SOL    HW269786   3.913   8.516  10.113 -0.7335 -0.3617 -1.5971
20891SOL     OW69787  11.231  10.136  10.326  0.0725  0.1788 -0.7946
20891SOL    HW169788  11.196  10.064  10.273 -2.0099  0.0211  0.6753
20891SOL    HW269789  11.164  10.205  10.320  1.3332  1.4259 -0.9623
20892SOL     OW69790   7.654   9.354  11.311 -0.6591 -0.2146  0.1979
20892SOL    HW169791   7.659   9.311  11.226 -0.5807  1.1950 -0.5390
20892SOL    HW269792   7.714   9.304  11.367  1.0418  0.1918 -1.1843
20893SOL     OW69793   2.340   7.764  11.717  0.2368  0.2325 -0.1615
20893SOL    HW169794   2.355   7.758  11.811  0.0029 -2.1903 -0.2281
20893SOL    HW269795   2.252   7.799  11.708  0.6984  1.6301  0.4588
20894SOL     OW69796   9.425   2.806   9.287 -0.4955  0.1301  0.0494
20894SOL    HW169797   9.349   2.767   9.330  0.0687 -0.7258  0.2933
20894SOL    HW269798   9.493   2.738   9.291 -0.3669  0.0756 -2.0275
20895SOL     OW69799  12.299  10.140  11.131 -0.0659 -0.2566  0.5322
20895SOL    HW169800  12.373  10.131  11.070 -0.4297 -0.8297  0.1584
20895SOL    HW269801  12.322  10.084  11.205  0.1370  0.0197  0.6769
20896SOL     OW69802  12.647  11.116   7.830 -0.3542 -0.2206  0.5936
20896SOL    HW169803  12.680  11.194   7.876 -0.9841  0.4275 -0.0244
20896SOL    HW269804  12.607  11.151   7.750 -0.4170 -1.2120  0.1819
20897SOL     OW69805  12.857   4.861   4.570 -0.1098 -0.0303 -0.3597
20897SOL    HW169806  12.931   4.906   4.611  1.1887 -2.0115 -0.3939
20897SOL    HW269807  12.783   4.921   4.582  1.6904  2.6156 -1.4201
20898SOL     OW69808   5.211  12.419   8.425  0.2728  0.2115  0.1661
20898SOL    HW169809   5.247  12.494   8.377  1.3837 -0.6588 -0.3833
20898SOL    HW269810   5.222  12.345   8.366  1.7987 -0.9157  1.8023
20899SOL     OW69811   6.400   3.405   8.007  0.0807  0.3314  0.2381
20899SOL    HW169812   6.458   3.406   7.931  0.4909 -0.2580  0.5363
20899SOL    HW269813   6.434   3.335   8.062  0.3004  1.3089  1.3694
20900SOL     OW69814   1.344   2.585   1.387 -0.0873 -0.2585  0.2437
20900SOL    HW169815   1.291   2.665   1.399 -0.2877 -0.4918  0.9351
20900SOL    HW269816   1.431   2.609   1.418  0.6927  0.6257 -2.3495
20901SOL     OW69817   9.778   8.711   6.249  0.2364  0.2078 -0.2005
20901SOL    HW169818   9.808   8.632   6.294  1.3739  0.7914  0.0941
20901SOL    HW269819   9.802   8.783   6.307  0.8195  0.8979 -1.2610
20902SOL     OW69820   9.613   8.902   7.518  0.0396 -0.2509 -0.1540
20902SOL    HW169821   9.554   8.833   7.547  1.1522 -1.2546 -0.2325
20902SOL    HW269822   9.623   8.958   7.595 -0.9457 -0.0981 -0.1197
20903SOL     OW69823   9.945   8.285   4.162  0.2313  0.1186  0.5284
20903SOL    HW169824   9.876   8.317   4.218 -1.2519 -0.0817 -1.0904
20903SOL    HW269825   9.944   8.190   4.174 -0.2051  0.0598  0.0472
20904SOL     OW69826   8.972   9.413  11.795 -0.2541 -0.2704  0.4133
20904SOL    HW169827   8.881   9.420  11.768 -0.0809  1.0540  0.0821
20904SOL    HW269828   9.022   9.434  11.715  0.3107  0.5076  0.9552
20905SOL     OW69829   8.807   7.709   9.318 -0.0890  0.6355 -0.0608
20905SOL    HW169830   8.884   7.750   9.358 -1.1663  1.3837  1.3412
20905SOL    HW269831   8.735   7.732   9.376 -1.5712  0.8005 -1.8751
20906SOL     OW69832  10.284  12.741  12.651  0.0008 -0.1897  0.7642
20906SOL    HW169833  10.218  12.807  12.627 -0.7811 -0.2252  2.6368
20906SOL    HW269834  10.338  12.785  12.717 -0.2629 -1.2531  1.7156
20907SOL     OW69835   4.631  12.080  10.404  0.1620 -0.4586  0.2701
20907SOL    HW169836   4.722  12.070  10.433  0.8823  1.6794 -0.9958
20907SOL    HW269837   4.604  12.164  10.441 -0.6105 -0.1417 -0.9700
20908SOL     OW69838   1.915   6.103   4.480 -0.1925  0.3025 -0.3874
20908SOL    HW169839   1.863   6.098   4.399  0.7891  0.6970 -1.0511
20908SOL    HW269840   1.931   6.196   4.493  0.3419  0.1845 -0.1783
20909SOL     OW69841   4.246   0.819   3.116 -0.2878  0.6117 -0.0076
20909SOL    HW169842   4.252   0.865   3.199 -1.4146  0.6725  0.0537
20909SOL    HW269843   4.152   0.807   3.102 -0.0580 -0.6716 -0.5685
20910SOL     OW69844   1.622   2.901   2.669 -0.1919 -0.2343 -0.3373
20910SOL    HW169845   1.616   2.875   2.578  1.4479 -0.0991 -0.5056
20910SOL    HW269846   1.685   2.974   2.670 -0.2714 -0.1482  0.8744
20911SOL     OW69847   8.838   5.773   9.127 -0.2938  0.2697 -0.5546
20911SOL    HW169848   8.799   5.804   9.209 -1.2854 -1.7773 -0.2068
20911SOL    HW269849   8.790   5.820   9.059  0.7750  2.2570 -0.0188
20912SOL     OW69850   4.127   5.098   6.941 -0.1337  0.4352  0.2784
20912SOL    HW169851   4.069   5.109   6.865 -1.3707 -0.5082  1.0384
20912SOL    HW269852   4.073   5.054   7.006  1.3318 -0.1081  1.1893
20913SOL     OW69853   9.207   2.730  11.256 -0.2387 -0.3609  0.1559
20913SOL    HW169854   9.171   2.662  11.199 -0.7391  0.9028 -1.0928
20913SOL    HW269855   9.217   2.687  11.341 -0.1652 -2.0942 -0.6864
20914SOL     OW69856   0.955  10.009  10.155 -0.2620 -0.1646  0.5578
20914SOL    HW169857   0.942  10.038  10.245 -0.3135  0.1907  0.4388
20914SOL    HW269858   0.915  10.078  10.101  0.8718  0.2650  0.2258
20915SOL     OW69859  10.340   3.855   9.928 -0.0305 -0.3115 -0.4455
20915SOL    HW169860  10.301   3.917   9.989 -1.4870 -0.8277 -0.8205
20915SOL    HW269861  10.424   3.831   9.968  0.0055  0.9575  0.2883
20916SOL     OW69862  10.274   1.971   4.068 -0.4657 -0.4446  0.1307
20916SOL    HW169863  10.214   1.918   4.016 -1.0559 -0.0261  0.3835
20916SOL    HW269864  10.219   2.014   4.133 -0.0989  0.9520 -0.4379
20917SOL     OW69865   2.715   5.526   4.704  0.5816  0.8927 -0.5556
20917SOL    HW169866   2.662   5.559   4.631  0.9391  2.2166 -0.2512
20917SOL    HW269867   2.673   5.563   4.782  0.3827 -0.2635 -0.0948
20918SOL     OW69868  11.984  10.614   8.397 -0.4918 -0.0758  0.2213
20918SOL    HW169869  12.024  10.528   8.408 -1.7523 -0.6719  0.3237
20918SOL    HW269870  11.991  10.654   8.484  1.1053  0.3930 -0.1037
20919SOL     OW69871   2.571  12.001  11.128 -0.0319 -0.6158 -0.0245
20919SOL    HW169872   2.522  11.998  11.046 -1.9534  1.4733  0.9474
20919SOL    HW269873   2.537  11.928  11.180  0.0018 -0.9268 -0.4309
20920SOL     OW69874   5.570  12.512   0.637 -0.0990 -0.0369 -0.6141
20920SOL    HW169875   5.623  12.435   0.659 -1.2614 -0.5583  0.5199
20920SOL    HW269876   5.535  12.493   0.550 -2.6130 -2.1664  0.7066
20921SOL     OW69877   5.785   5.935  12.465 -0.1659  0.1013  0.5109
20921SOL    HW169878   5.850   5.916  12.532  0.4172 -0.7614 -0.2747
20921SOL    HW269879   5.812   6.019  12.427  0.7497 -0.4516 -0.0916
20922SOL     OW69880   5.004  10.959  10.397 -0.1749  0.2285  0.4853
20922SOL    HW169881   4.927  11.014  10.413  0.8287  1.4792  1.2246
20922SOL    HW269882   5.030  10.929  10.484 -1.0609 -2.0002  0.0501
20923SOL     OW69883   8.743   6.153  12.523  0.1689 -0.0916 -0.4828
20923SOL    HW169884   8.777   6.208  12.593 -1.3357 -0.1594  0.3514
20923SOL    HW269885   8.807   6.082  12.515  0.2486 -0.2283  1.0263
20924SOL     OW69886   7.374   4.006   3.708  0.0071 -0.1277 -0.0244
20924SOL    HW169887   7.393   4.040   3.620  0.7370  0.1282  0.2191
20924SOL    HW269888   7.362   3.912   3.695  0.2752 -0.1176 -0.3782
20925SOL     OW69889  11.156   9.610   6.398  0.2644  0.2662 -0.0428
20925SOL    HW169890  11.103   9.684   6.429  0.3984  0.2337  0.2642
20925SOL    HW269891  11.177   9.633   6.307 -2.4561 -0.9110 -1.0932
20926SOL     OW69892   4.649   0.818   6.287  0.2515 -0.1479 -0.3993
20926SOL    HW169893   4.601   0.746   6.327 -0.2689 -0.8200 -2.1686
20926SOL    HW269894   4.687   0.865   6.361  0.4304 -2.1040  0.8124
20927SOL     OW69895  10.299   4.287   3.989  0.0315 -0.1686  0.3333
20927SOL    HW169896  10.269   4.200   3.965 -0.4374 -0.5972  2.2549
20927SOL    HW269897  10.281   4.341   3.913  1.5012 -1.9591 -1.3945
20928SOL     OW69898  11.796   2.059   4.247  0.4762 -0.3146 -0.4121
20928SOL    HW169899  11.777   2.153   4.243 -0.8529 -0.3245  2.7233
20928SOL    HW269900  11.774   2.026   4.160 -1.4284  1.8898 -0.8570
20929SOL     OW69901  12.605   7.524   2.460 -0.4056  0.0800 -0.7333
20929SOL    HW169902  12.604   7.494   2.551  4.0487 -0.0517 -0.5212
20929SOL    HW269903  12.608   7.443   2.408 -3.1179  0.1461 -1.1632
20930SOL     OW69904   7.772   2.212  12.030  0.5567  0.1013  0.1797
20930SOL    HW169905   7.793   2.214  12.124  0.4909  0.7256  0.1810
20930SOL    HW269906   7.795   2.123  12.003  0.3024 -0.1741  0.8508
20931SOL     OW69907   0.600  11.754  11.472 -0.2191 -0.0359  0.6940
20931SOL    HW169908   0.682  11.707  11.457  1.4382  2.7589  0.2519
20931SOL    HW269909   0.572  11.726  11.560  0.7369 -1.6490  0.5189
20932SOL     OW69910   7.991  11.443   6.685 -0.1845 -0.4385 -0.6138
20932SOL    HW169911   8.024  11.357   6.710  2.1226 -0.4842 -3.2922
20932SOL    HW269912   7.904  11.426   6.649  0.2670 -1.7252 -1.1797
20933SOL     OW69913   0.078  10.556   3.218 -0.1509  0.8444  0.0066
20933SOL    HW169914   0.156  10.594   3.258 -0.2122 -0.7132  1.7711
20933SOL    HW269915   0.107  10.527   3.131  1.3997 -0.1176  0.7889
20934SOL     OW69916   4.547  11.375   2.488 -0.3111  0.0222 -0.2410
20934SOL    HW169917   4.525  11.298   2.435 -2.7164  0.0113  0.6496
20934SOL    HW269918   4.533  11.347   2.578  0.2399  1.0780  0.1888
20935SOL     OW69919   5.979   7.206   4.971 -0.2397 -0.2630 -0.2666
20935SOL    HW169920   6.064   7.167   4.950 -0.1593  0.1761 -0.8104
20935SOL    HW269921   5.998   7.299   4.982 -0.4907 -0.3102  0.6210
20936SOL     OW69922   5.995   4.904   6.720 -1.2121 -0.8477  0.4310
20936SOL    HW169923   5.941   4.831   6.751  2.2024 -2.5464  3.0226
20936SOL    HW269924   6.071   4.863   6.680  1.3834  1.0621  2.9737
20937SOL     OW69925  11.592  11.278   2.729  0.1908  0.3759 -0.5927
20937SOL    HW169926  11.638  11.217   2.670 -0.2084 -0.0027 -0.5151
20937SOL    HW269927  11.500  11.257   2.717  0.1683 -0.8125  1.3616
20938SOL     OW69928   2.277  12.196   0.175  0.2151  0.3481 -0.4721
20938SOL    HW169929   2.260  12.124   0.114 -0.6445  2.0440 -2.3516
20938SOL    HW269930   2.371  12.210   0.170  0.7497 -1.8393  1.4486
20939SOL     OW69931  10.041   6.749  10.057  0.2373 -0.6090  0.3896
20939SOL    HW169932   9.968   6.745  10.118  0.8857 -1.5649  1.1275
20939SOL    HW269933  10.076   6.837  10.067 -0.8483 -0.1107 -0.0408
20940SOL     OW69934  12.729   3.072  11.473  0.0652 -0.0490  0.3314
20940SOL    HW169935  12.820   3.094  11.493 -0.8093  4.1938  0.7661
20940SOL    HW269936  12.702   3.012  11.543  2.0493  0.0186  1.2141
20941SOL     OW69937   5.993  11.384   8.080  0.1093 -0.2387  0.0532
20941SOL    HW169938   6.062  11.387   8.013 -1.2935 -0.0730 -1.4553
20941SOL    HW269939   5.966  11.475   8.090  0.5643 -0.2186  1.1383
20942SOL     OW69940   8.769   2.853  12.106 -0.6184 -0.2754  0.0318
20942SOL    HW169941   8.853   2.893  12.128 -0.6144  0.4816 -1.2148
20942SOL    HW269942   8.757   2.784  12.171  0.9408 -0.3632  0.2652
20943SOL     OW69943   9.290   4.647   7.982 -0.1752 -0.1715 -0.1461
20943SOL    HW169944   9.226   4.714   8.008  2.5221  1.5598  2.7287
20943SOL    HW269945   9.325   4.679   7.899  0.0641  1.3187  0.4874
20944SOL     OW69946  11.132   6.866   8.590 -0.6000  0.3417  0.7070
20944SOL    HW169947  11.060   6.805   8.574 -0.4526  0.6738 -1.7416
20944SOL    HW269948  11.196   6.845   8.522  0.2645  1.9893  0.9512
20945SOL     OW69949  10.781   1.653  10.194  0.2951 -0.5004 -0.6648
20945SOL    HW169950  10.774   1.711  10.270  0.9144  0.5790 -1.4000
20945SOL    HW269951  10.849   1.589  10.219  1.7814  0.9068 -0.9373
20946SOL     OW69952   5.007   3.338   1.913  0.2471  0.3248 -0.1754
20946SOL    HW169953   5.008   3.348   2.008 -2.0313  0.1789 -0.0976
20946SOL    HW269954   5.044   3.251   1.898  1.4480  0.6981  0.4851
20947SOL     OW69955   2.729  10.826   2.196  0.5629 -0.5179  0.6608
20947SOL    HW169956   2.734  10.915   2.231 -0.3002 -0.6173  1.0757
20947SOL    HW269957   2.698  10.837   2.106 -0.4255 -0.4310  0.9961
20948SOL     OW69958  10.005   7.728   6.947 -0.2737  0.4790  0.2432
20948SOL    HW169959   9.919   7.715   6.986 -0.0578  0.8717  0.8731
20948SOL    HW269960  10.048   7.792   7.004  0.2533  0.6652 -0.3455
20949SOL     OW69961  12.754   4.296  11.944 -0.1489 -0.3856  0.6182
20949SOL    HW169962  12.764   4.322  11.853 -0.5957 -1.5064  0.2377
20949SOL    HW269963  12.747   4.379  11.992 -2.5197  0.2542 -0.6545
20950SOL     OW69964  11.233  10.959  10.251 -0.5208  1.1179  0.1497
20950SOL    HW169965  11.222  10.934  10.342  0.2463  0.7293  0.1447
20950SOL    HW269966  11.143  10.970  10.218 -1.0864 -2.7624 -0.1502
20951SOL     OW69967   0.069   0.101   8.329  0.0605  0.1927 -0.4679
20951SOL    HW169968  -0.023   0.083   8.347 -0.0965  0.7073 -0.7352
20951SOL    HW269969   0.111   0.103   8.415 -0.7270  2.8896 -0.0510
20952SOL     OW69970   2.158   5.426   1.424 -0.2232  0.2848  0.0959
20952SOL    HW169971   2.221   5.402   1.492  0.8139 -0.8484 -1.1988
20952SOL    HW269972   2.185   5.513   1.396  2.9375 -1.3050 -2.6017
20953SOL     OW69973  12.305   4.493   0.982  0.2671  0.0456 -0.3566
20953SOL    HW169974  12.336   4.413   1.023  1.6109  1.6154  1.8777
20953SOL    HW269975  12.383   4.533   0.943 -0.2970  0.4903 -1.0660
20954SOL     OW69976   3.761   9.702   5.698  0.2012  0.2887 -0.6822
20954SOL    HW169977   3.760   9.792   5.668  0.2000  0.1064 -1.2304
20954SOL    HW269978   3.737   9.708   5.791 -2.2433  0.6424 -1.2609
20955SOL     OW69979   0.352   3.200   3.693 -0.0280  0.4264  0.2105
20955SOL    HW169980   0.347   3.161   3.780  1.1069 -1.5059 -0.5196
20955SOL    HW269981   0.438   3.243   3.692  0.0898  0.1937 -0.0203
20956SOL     OW69982   8.003   1.387   8.253  0.0479 -0.0854  0.3499
20956SOL    HW169983   8.012   1.311   8.311  0.6556  0.2176  0.6687
20956SOL    HW269984   7.921   1.372   8.206 -0.3882 -0.4129  1.1843
20957SOL     OW69985  10.806   4.547   0.149  0.4430 -0.2027  0.4205
20957SOL    HW169986  10.861   4.574   0.075  0.0729 -0.8614 -0.1070
20957SOL    HW269987  10.861   4.563   0.226  1.0690 -0.0814 -0.0346
20958SOL     OW69988   1.232  11.646   3.582 -0.2001  0.5580  0.2866
20958SOL    HW169989   1.245  11.667   3.490 -1.5590  0.9693  0.1719
20958SOL    HW269990   1.281  11.712   3.629  0.1532  0.6007 -0.1359
20959SOL     OW69991   3.970   1.295   8.742  0.2296 -0.2501  0.0474
20959SOL    HW169992   3.988   1.251   8.659 -0.5397 -0.7076  0.1139
20959SOL    HW269993   3.885   1.260   8.770 -0.0088  0.6595  0.5175
20960SOL     OW69994   7.439   5.438   7.214  0.0449  0.6813 -0.0310
20960SOL    HW169995   7.376   5.380   7.170  0.1428  1.2858 -1.0044
20960SOL    HW269996   7.508   5.380   7.246  0.0036  0.2284 -0.7488
20961SOL     OW69997  10.023  10.557  10.963 -0.0340 -0.2354 -0.1301
20961SOL    HW169998   9.978  10.573  11.045 -0.0079  0.6855 -0.2875
20961SOL    HW269999   9.966  10.593  10.896  1.8126  2.9532 -0.1864
20962SOL     OW70000   5.374   3.958   9.128  0.8809 -0.4482  0.3036
20962SOL    HW170001   5.413   3.881   9.171  0.2469 -1.0395 -0.1586
20962SOL    HW270002   5.305   3.986   9.188  1.8644  0.4885  1.0359
20963SOL     OW70003  11.817   5.164   7.575  0.3003  0.4695 -0.1176
20963SOL    HW170004  11.911   5.153   7.588  0.1919 -0.6492 -0.1638
20963SOL    HW270005  11.789   5.224   7.644  0.9706  0.4537  0.1683
20964SOL     OW70006   1.637   8.234   6.885 -0.2323  0.0631 -0.5429
20964SOL    HW170007   1.542   8.240   6.895 -0.1872  0.2332 -0.1978
20964SOL    HW270008   1.672   8.301   6.944  0.0855  0.3463 -1.0450
20965SOL     OW70009   9.801   0.481   9.266 -0.4998  0.3338 -0.2620
20965SOL    HW170010   9.821   0.414   9.201  2.0672  0.2976  0.4609
20965SOL    HW270011   9.860   0.554   9.245 -0.6377  0.8814  1.1411
20966SOL     OW70012   8.170   6.321   1.466  0.0352 -0.3590 -0.2451
20966SOL    HW170013   8.259   6.345   1.437 -0.0589 -0.8808 -0.9974
20966SOL    HW270014   8.164   6.356   1.555  1.8464 -2.3060  0.7351
20967SOL     OW70015   5.133   0.162   2.183 -0.5645 -0.5473  0.3533
20967SOL    HW170016   5.055   0.191   2.137 -1.1662 -0.2455  1.5308
20967SOL    HW270017   5.100   0.106   2.253  0.3567 -1.3237  0.1897
20968SOL     OW70018  12.411   2.326  10.846  0.7647 -0.5480 -0.2349
20968SOL    HW170019  12.467   2.257  10.810  0.0077 -0.4360 -1.6880
20968SOL    HW270020  12.361   2.357  10.771  0.4535  0.9799  0.5794
20969SOL     OW70021  12.949   1.677   3.830 -0.1354  0.3121  0.2519
20969SOL    HW170022  12.878   1.614   3.841 -1.3565  1.4797 -0.4951
20969SOL    HW270023  13.020   1.627   3.789 -0.5894 -0.8401  0.8412
20970SOL     OW70024   4.901  11.969  10.481  0.3969  0.2046  0.2702
20970SOL    HW170025   4.941  12.052  10.508 -2.4747  1.9926 -0.5654
20970SOL    HW270026   4.932  11.957  10.391 -0.2024  1.1299 -0.0791
20971SOL     OW70027   6.586   3.014   0.982 -0.3826  0.1369  0.2087
20971SOL    HW170028   6.564   3.011   0.889  0.7869  2.5010 -0.2136
20971SOL    HW270029   6.563   3.103   1.009  1.9261  0.4260  1.4449
20972SOL     OW70030  12.511   8.298   5.784  0.3130  0.2712  0.0334
20972SOL    HW170031  12.424   8.267   5.759  0.3424  1.2101 -1.3330
20972SOL    HW270032  12.525   8.261   5.872 -1.2229 -0.3391  0.0577
20973SOL     OW70033   5.170   3.973  11.110 -0.1920 -0.5439 -0.0581
20973SOL    HW170034   5.170   3.985  11.205  1.7624 -0.2828 -0.0414
20973SOL    HW270035   5.260   3.994  11.084 -0.6588 -0.7433 -1.9535
20974SOL     OW70036  11.990  12.894   3.007  0.4583 -0.0571 -0.4052
20974SOL    HW170037  12.016  12.857   2.922  0.1231 -2.5201  0.4954
20974SOL    HW270038  11.900  12.923   2.994  0.8353  0.8061 -1.2238
20975SOL     OW70039   3.236   3.608   1.771 -0.3446 -0.2033 -0.2712
20975SOL    HW170040   3.274   3.554   1.840  1.2710 -1.3961 -1.9925
20975SOL    HW270041   3.303   3.672   1.751 -1.3555  1.0433  0.1653
20976SOL     OW70042   1.785   6.908   1.773  0.4300  0.1571 -0.3435
20976SOL    HW170043   1.836   6.897   1.853 -1.5097 -1.2870  0.7752
20976SOL    HW270044   1.763   7.001   1.770 -1.5633 -0.1305  2.2296
20977SOL     OW70045  12.804   5.170   5.958 -0.3655  0.0570  0.2473
20977SOL    HW170046  12.898   5.159   5.976  0.1398 -0.6884 -2.3856
20977SOL    HW270047  12.792   5.264   5.952  0.6981  0.1298 -1.3475
20978SOL     OW70048  11.755   2.565   8.268  0.1555  0.2788 -0.3627
20978SOL    HW170049  11.802   2.648   8.267  2.6301 -1.0207 -0.2624
20978SOL    HW270050  11.688   2.575   8.200 -2.0910  3.5476  1.9916
20979SOL     OW70051   2.986   3.880   7.551 -0.1848  0.1068  0.1381
20979SOL    HW170052   2.976   3.960   7.603  1.2967 -0.0050  0.6661
20979SOL    HW270053   2.934   3.814   7.598  0.8186  0.1035  1.3062
20980SOL     OW70054   7.763   3.962  11.223 -0.0214  0.3244  0.6418
20980SOL    HW170055   7.782   4.049  11.257  0.3934 -0.3086  2.1124
20980SOL    HW270056   7.831   3.946  11.158 -1.2395  1.8399 -1.1285
20981SOL     OW70057   9.862   0.210   3.608  0.6831 -0.0353  0.4669
20981SOL    HW170058   9.850   0.115   3.611 -1.6507  0.1420 -1.1042
20981SOL    HW270059   9.824   0.242   3.689 -0.8208 -0.2739 -0.1254
20982SOL     OW70060   9.576   1.255   3.151  0.0322  0.3601 -0.5324
20982SOL    HW170061   9.563   1.349   3.139 -2.2405  0.1995  0.2810
20982SOL    HW270062   9.575   1.242   3.245  0.2171 -0.5126 -0.6393
20983SOL     OW70063   3.459   8.985   2.651 -0.2135 -0.3862 -0.2597
20983SOL    HW170064   3.471   8.956   2.561  0.4829  1.0440 -0.6440
20983SOL    HW270065   3.365   8.999   2.659 -0.3882 -1.3396 -0.4860
20984SOL     OW70066   8.718   7.759   8.703 -0.5384  0.6049 -0.2896
20984SOL    HW170067   8.804   7.782   8.737 -0.7733  0.2916  0.5516
20984SOL    HW270068   8.657   7.818   8.749 -0.9624 -0.4859  0.5987
20985SOL     OW70069   4.533   0.895   2.505  0.7316  1.0358 -0.1075
20985SOL    HW170070   4.583   0.855   2.576 -0.1863  1.4362  0.7834
20985SOL    HW270071   4.583   0.873   2.426  2.4768  1.7006  0.7659
20986SOL     OW70072  12.949   6.635   2.824  0.5688 -0.1401  0.7738
20986SOL    HW170073  12.964   6.656   2.732 -0.4794 -2.1326  0.0661
20986SOL    HW270074  13.030   6.593   2.853  0.6913 -0.0426  0.5752
20987SOL     OW70075   9.483   4.149   2.213 -0.8143 -0.4131  0.3323
20987SOL    HW170076   9.429   4.076   2.241 -0.5220 -1.1800 -1.0020
20987SOL    HW270077   9.523   4.182   2.293 -1.6121 -1.1710  1.0597
20988SOL     OW70078   8.118  11.763   2.941 -0.5240 -0.2343 -0.2839
20988SOL    HW170079   8.107  11.717   2.858  1.3955 -0.1157 -0.6562
20988SOL    HW270080   8.068  11.844   2.931 -1.7890 -1.0276 -0.6078
20989SOL     OW70081   6.173   4.533   5.920 -0.1504 -0.7031  0.4869
20989SOL    HW170082   6.263   4.554   5.944  0.2252 -0.5139 -0.9892
20989SOL    HW270083   6.136   4.617   5.891 -0.6787 -0.8589  0.6978
20990SOL     OW70084   5.153   3.279   2.925  0.0530 -0.1019 -0.2657
20990SOL    HW170085   5.121   3.189   2.937 -1.6225  0.3995 -0.7971
20990SOL    HW270086   5.141   3.320   3.010 -0.3419 -0.0263 -0.3586
20991SOL     OW70087   7.778   9.003   2.254 -0.1167 -0.1393 -0.2804
20991SOL    HW170088   7.746   9.021   2.343  0.2940 -1.8393  0.2372
20991SOL    HW270089   7.706   9.031   2.197 -1.7119 -1.9219  0.7486
20992SOL     OW70090   7.674   4.170  10.020 -0.0549  0.0856 -0.1946
20992SOL    HW170091   7.764   4.153   9.994  0.2333 -0.0644  0.8524
20992SOL    HW270092   7.656   4.106  10.089 -0.4507  1.1095  0.6804
20993SOL     OW70093   0.743   1.259  12.417  0.6565  0.2241  0.0460
20993SOL    HW170094   0.776   1.330  12.472  0.9900 -0.1150  0.2891
20993SOL    HW270095   0.777   1.180  12.458  0.8868 -0.0353 -0.6423
20994SOL     OW70096  10.701   2.985   4.166 -0.1842  0.3550 -0.3428
20994SOL    HW170097  10.702   3.075   4.199  1.1731  1.4944 -3.0958
20994SOL    HW270098  10.793   2.963   4.154 -0.5309 -0.0988 -2.7126
20995SOL     OW70099   3.658   8.543   4.262 -0.3597  0.3533 -0.5467
20995SOL    HW170100   3.731   8.604   4.274 -0.5314  0.5416 -0.4579
20995SOL    HW270101   3.691   8.479   4.199 -0.5676  1.1803 -1.5204
20996SOL     OW70102   5.970   4.176   1.555  0.7269  0.5081  0.3324
20996SOL    HW170103   5.903   4.114   1.585  0.7903  0.1193 -0.3187
20996SOL    HW270104   5.934   4.262   1.576  0.2205  0.2854  0.3942
20997SOL     OW70105   4.382   6.813   2.144  0.0667  0.0341  0.3495
20997SOL    HW170106   4.414   6.776   2.062 -0.4604  0.2892  0.0246
20997SOL    HW270107   4.458   6.861   2.179 -0.2127  1.5121 -0.9271
20998SOL     OW70108  10.097   6.892   2.231 -0.2458  0.4805 -0.0145
20998SOL    HW170109  10.070   6.816   2.282  0.4982  0.5257  0.4687
20998SOL    HW270110  10.038   6.893   2.155 -0.7461 -0.1357  0.3598
20999SOL     OW70111   6.635   3.543   1.912 -0.0881  0.6154 -0.0395
20999SOL    HW170112   6.681   3.570   1.991  0.5491 -0.9806  0.1522
20999SOL    HW270113   6.551   3.589   1.918  0.6139  1.8932  0.6587
21000SOL     OW70114   9.528   8.159   8.115 -0.2819 -0.0437  0.0953
21000SOL    HW170115   9.582   8.086   8.148 -0.0298  0.4601  0.8415
21000SOL    HW270116   9.558   8.173   8.026  0.9623  0.3184  0.5446
21001SOL     OW70117   6.048   8.945  10.960  0.5810 -0.2931  0.6402
21001SOL    HW170118   6.106   8.934  11.035 -1.1248  1.4493  2.3457
21001SOL    HW270119   5.964   8.910  10.990 -0.4238  1.4437 -0.0191
21002SOL     OW70120  12.216   2.259  10.024  0.0916 -0.6802 -0.4392
21002SOL    HW170121  12.293   2.312  10.041 -0.6403  1.2248 -2.4976
21002SOL    HW270122  12.202   2.208  10.104  1.3146  1.6665  1.3550
21003SOL     OW70123   0.509   2.496   3.244 -0.3149  0.3048 -0.3088
21003SOL    HW170124   0.522   2.401   3.233 -1.9506  0.1664 -1.3626
21003SOL    HW270125   0.415   2.506   3.255 -0.0682  1.7549  0.6653
21004SOL     OW70126   6.207  11.018   9.889  0.1447 -0.2750 -0.0671
21004SOL    HW170127   6.126  11.048   9.932 -0.9745  2.7516 -3.7424
21004SOL    HW270128   6.192  10.925   9.873 -1.9572 -0.1187  0.6710
21005SOL     OW70129   2.989   3.609   5.720  0.4674  0.1433 -0.0200
21005SOL    HW170130   2.997   3.532   5.778 -1.1171 -0.5272 -0.6360
21005SOL    HW270131   2.942   3.674   5.773 -0.9583 -0.4608 -0.4957
21006SOL     OW70132   4.759  11.417   6.441  0.0710 -0.2388 -0.1016
21006SOL    HW170133   4.804  11.333   6.429  1.1176  0.2918 -0.0352
21006SOL    HW270134   4.702  11.403   6.516 -0.7845 -1.2863 -0.9030
21007SOL     OW70135   3.252   4.222   7.304  0.8844  0.4463 -0.0853
21007SOL    HW170136   3.234   4.142   7.352  3.4933 -1.6312 -2.2330
21007SOL    HW270137   3.274   4.287   7.371  0.7311 -1.2208  1.6344
21008SOL     OW70138   2.527   2.631  11.041 -0.1303  0.1825  0.2621
21008SOL    HW170139   2.535   2.538  11.019  0.9461  0.0050  1.3434
21008SOL    HW270140   2.533   2.675  10.956 -0.7484 -0.7210 -0.2779
21009SOL     OW70141   8.527   4.621   4.674 -1.1475  0.3314  0.3588
21009SOL    HW170142   8.484   4.632   4.759  0.5841 -0.7993  1.4674
21009SOL    HW270143   8.552   4.528   4.672  1.6590  0.9997  0.0827
21010SOL     OW70144   1.812  11.906   4.751 -0.1835  0.4960 -0.4298
21010SOL    HW170145   1.736  11.936   4.801 -0.0743 -0.1106  0.1126
21010SOL    HW270146   1.793  11.931   4.660  0.9975  4.4489  0.2230
21011SOL     OW70147   4.977   6.387   3.971  0.0724 -0.0638 -0.6418
21011SOL    HW170148   4.999   6.449   3.901  1.1901 -0.8275 -1.0032
21011SOL    HW270149   4.996   6.435   4.052  1.4266 -0.0618 -0.9270
21012SOL     OW70150   4.760   2.750   5.094 -0.2634 -0.1951  0.4959
21012SOL    HW170151   4.846   2.709   5.086  0.4928  1.3874  0.2164
21012SOL    HW270152   4.752   2.805   5.016 -1.8468 -0.8401  0.1474
21013SOL     OW70153   9.857   0.718   6.495  0.1717 -0.0716 -0.0910
21013SOL    HW170154   9.894   0.687   6.578 -2.0321 -0.4429  0.8260
21013SOL    HW270155   9.768   0.682   6.493 -0.9447  2.4727 -1.1136
21014SOL     OW70156   4.139  12.703   7.824 -0.2142 -0.2621 -0.2929
21014SOL    HW170157   4.142  12.789   7.780  1.0309  0.3700  0.9677
21014SOL    HW270158   4.086  12.718   7.902 -0.4073 -0.7702 -0.3260
21015SOL     OW70159  10.507   1.755   3.495 -0.1737 -0.5022  0.3927
21015SOL    HW170160  10.476   1.845   3.503  1.6353  0.2826 -0.8086
21015SOL    HW270161  10.507   1.722   3.585  0.0976  1.0391  0.9963
21016SOL     OW70162   1.697   9.616   6.519 -0.5366 -0.2502 -0.1296
21016SOL    HW170163   1.657   9.572   6.445 -2.1543 -0.1942  0.6720
21016SOL    HW270164   1.624   9.644   6.574  0.3990  2.9022 -0.2696
21017SOL     OW70165  10.071  11.630  10.950 -0.0215 -0.0035  0.1974
21017SOL    HW170166  10.123  11.635  10.870 -0.6643 -0.3499 -0.2439
21017SOL    HW270167  10.087  11.541  10.983 -1.1699 -0.4825 -0.5126
21018SOL     OW70168   5.523   3.590   4.376 -0.1817  0.7040 -0.1649
21018SOL    HW170169   5.519   3.681   4.348 -1.7935  0.8273  0.3667
21018SOL    HW270170   5.615   3.566   4.368  0.8249  3.2445  2.4006
21019SOL     OW70171   7.735   9.912  12.165 -0.0839  0.1995 -0.4737
21019SOL    HW170172   7.823   9.878  12.152  1.2457  3.1908 -0.2973
21019SOL    HW270173   7.724   9.913  12.260 -0.4639 -0.4695 -0.5052
21020SOL     OW70174   4.433   2.200   6.840  0.8626  0.5751  0.0936
21020SOL    HW170175   4.419   2.293   6.822 -0.4379  0.2212 -0.8608
21020SOL    HW270176   4.438   2.195   6.935  1.8189  1.7183  0.1289
21021SOL     OW70177  11.297   2.231   0.173  0.5934 -0.4195 -0.3458
21021SOL    HW170178  11.246   2.223   0.092 -0.3901 -1.2100  0.3338
21021SOL    HW270179  11.231   2.236   0.242  1.3618 -3.8005  0.8005
21022SOL     OW70180  12.679  12.689  12.838 -0.5212  0.3956 -0.2636
21022SOL    HW170181  12.766  12.661  12.810 -1.1279 -0.0892 -1.7430
21022SOL    HW270182  12.625  12.610  12.831 -1.0666  0.6642  0.7484
21023SOL     OW70183  11.475   8.188   1.737  0.3531  0.0722 -0.1035
21023SOL    HW170184  11.436   8.217   1.819 -0.8647 -4.1546  1.0761
21023SOL    HW270185  11.400   8.165   1.682  1.1924  0.2572 -1.3712
21024SOL     OW70186   0.323   0.271   7.478  0.1390 -0.3532  0.6158
21024SOL    HW170187   0.257   0.201   7.477 -0.3758 -0.1365  4.3342
21024SOL    HW270188   0.273   0.351   7.460  0.6471 -0.7152 -3.1389
21025SOL     OW70189   1.815   7.994   5.405  0.3691  0.5016 -0.1728
21025SOL    HW170190   1.881   8.046   5.450  1.0330  0.0372 -0.6065
21025SOL    HW270191   1.797   8.043   5.324 -0.1576  0.8590  0.1498
21026SOL     OW70192   6.218  10.766   5.641 -0.4497  0.6179 -0.6866
21026SOL    HW170193   6.256  10.692   5.689 -1.3309  0.4489 -0.2252
21026SOL    HW270194   6.215  10.737   5.550  1.0271  0.8521 -0.8297
21027SOL     OW70195   2.277   1.506   5.620 -0.0291 -0.2136  0.3946
21027SOL    HW170196   2.277   1.519   5.525  0.0292  1.3654  0.5770
21027SOL    HW270197   2.347   1.564   5.651 -1.6754  1.2012  1.6092
21028SOL     OW70198   2.841  10.590   7.302 -0.5557 -0.6019  0.0994
21028SOL    HW170199   2.803  10.663   7.352  2.0008  0.7827  0.1789
21028SOL    HW270200   2.934  10.610   7.297 -0.2771 -1.9988 -3.0427
21029SOL     OW70201   9.568   7.521   6.318  1.1605  0.0506  0.2762
21029SOL    HW170202   9.514   7.460   6.269 -0.3484  0.8651  0.8503
21029SOL    HW270203   9.525   7.606   6.306  0.9011  0.3359  2.6797
21030SOL     OW70204   9.394   5.754   1.367 -0.3447  0.6563 -0.0296
21030SOL    HW170205   9.345   5.834   1.381  0.0857  1.0143 -0.5211
21030SOL    HW270206   9.394   5.743   1.272  0.5382  0.6757 -0.0377
21031SOL     OW70207   5.447   8.080   4.100  0.3544 -0.1278  0.1602
21031SOL    HW170208   5.353   8.083   4.118  0.1176 -0.6459 -0.8807
21031SOL    HW270209   5.488   8.087   4.186 -0.6058  0.9428  0.5713
21032SOL     OW70210   1.000  12.693  11.006  0.2989  0.0864  0.0766
21032SOL    HW170211   0.961  12.781  11.012  1.9413  0.8898 -0.3573
21032SOL    HW270212   0.955  12.651  10.933  1.2172  1.5462 -1.4066
21033SOL     OW70213  11.744   3.977   1.303  0.3783  0.0713  0.5484
21033SOL    HW170214  11.746   3.892   1.347 -2.0177  0.3475  1.3284
21033SOL    HW270215  11.704   4.036   1.366  1.0113  1.5591 -0.3829
21034SOL     OW70216   8.259  10.107   6.887  0.4652 -0.6326 -0.3712
21034SOL    HW170217   8.352  10.127   6.887  0.6164 -1.2689 -1.5181
21034SOL    HW270218   8.221  10.167   6.823 -0.4603  1.7816  2.2255
21035SOL     OW70219   3.428  12.494   5.579 -0.0297  0.3978 -0.3388
21035SOL    HW170220   3.486  12.536   5.642  0.1033 -0.8249  0.3761
21035SOL    HW270221   3.450  12.535   5.495  1.1601  0.6675  0.0847
21036SOL     OW70222   2.052   2.830  11.149 -0.3628  0.1214  0.2638
21036SOL    HW170223   2.036   2.738  11.129 -0.4682  0.3777 -0.9497
21036SOL    HW270224   2.138   2.831  11.192 -0.5055 -0.5665  0.5782
21037SOL     OW70225   7.981   9.592  10.597  0.5113  0.0285  0.0998
21037SOL    HW170226   8.051   9.646  10.633 -0.1168  0.5469  0.5748
21037SOL    HW270227   7.904   9.649  10.598  0.2646 -0.2600 -1.1926
21038SOL     OW70228   8.300  10.825   7.133 -0.0223 -0.1202 -0.1139
21038SOL    HW170229   8.277  10.734   7.113  2.3238 -1.0733  1.1225
21038SOL    HW270230   8.377  10.818   7.189  0.1005  2.6574  0.1831
21039SOL     OW70231   9.402  11.433   7.493 -0.2781 -0.3399 -0.2825
21039SOL    HW170232   9.461  11.503   7.466 -1.2323  0.7644  0.3830
21039SOL    HW270233   9.458  11.356   7.503  0.9312  0.5150 -0.2932
21040SOL     OW70234   6.229   3.472   0.713  0.2817  0.2552  0.5713
21040SOL    HW170235   6.300   3.424   0.757  0.2826 -0.6687 -0.3916
21040SOL    HW270236   6.237   3.447   0.621 -0.1733  1.5779  0.1510
21041SOL     OW70237  11.187  10.640   4.554  0.1506 -0.0646  1.0546
21041SOL    HW170238  11.181  10.560   4.501  0.8085 -0.0536  0.9667
21041SOL    HW270239  11.099  10.679   4.547  0.4031  0.2839 -0.5791
21042SOL     OW70240  10.782   4.448   1.933 -0.0873  0.0280  0.2212
21042SOL    HW170241  10.860   4.479   1.978 -0.9821 -0.4461  2.2434
21042SOL    HW270242  10.715   4.514   1.952 -0.5142 -0.2333 -0.3453
21043SOL     OW70243   0.733   1.244   6.707  0.0347 -0.0048 -0.1572
21043SOL    HW170244   0.820   1.204   6.709 -0.9609 -2.2214  0.9207
21043SOL    HW270245   0.738   1.315   6.771  1.9460  2.0920 -2.3893
21044SOL     OW70246   6.497   6.510   1.704 -0.0636  0.2100  0.0216
21044SOL    HW170247   6.426   6.465   1.659  1.2887 -0.6571 -1.3470
21044SOL    HW270248   6.454   6.562   1.771 -2.0697  0.4273 -1.3463
21045SOL     OW70249   1.016  10.481  10.347  0.3190  0.3799  0.3541
21045SOL    HW170250   0.987  10.530  10.424  1.6348 -1.0904  1.8629
21045SOL    HW270251   0.947  10.416  10.333  2.2345 -2.6550  3.5089
21046SOL     OW70252   1.683  10.499   2.418 -0.2990 -0.3945  0.6505
21046SOL    HW170253   1.668  10.565   2.350 -1.5841 -0.4737  0.8315
21046SOL    HW270254   1.705  10.419   2.369 -5.8779 -1.8247 -0.1775
21047SOL     OW70255  10.161   8.241  12.393 -0.2999 -0.8659  0.6360
21047SOL    HW170256  10.245   8.224  12.435 -0.2201  0.6963  1.1777
21047SOL    HW270257  10.134   8.326  12.427 -0.4801  0.2708 -2.0948
21048SOL     OW70258  12.966  10.158  12.861  0.8753 -0.4310 -0.5680
21048SOL    HW170259  12.897  10.222  12.849  1.2122  0.2388  0.8980
21048SOL    HW270260  12.932  10.078  12.819  0.4986  0.6732 -2.5143
21049SOL     OW70261   1.286  11.187   1.769  0.5102  0.1448 -0.7820
21049SOL    HW170262   1.273  11.125   1.841  1.4999 -2.3269 -2.6232
21049SOL    HW270263   1.199  11.200   1.732  0.2289  0.2889 -0.0985
21050SOL     OW70264   8.301   4.561   6.440 -0.1333  0.7725 -0.2381
21050SOL    HW170265   8.390   4.563   6.476 -0.1017 -0.6561 -0.1800
21050SOL    HW270266   8.249   4.516   6.506  0.1554 -2.9899 -2.2602
21051SOL     OW70267  10.664   3.519   1.414  0.2114  0.2827  0.2760
21051SOL    HW170268  10.751   3.479   1.406 -0.0712 -0.5767  1.3113
21051SOL    HW270269  10.603   3.445   1.414 -0.7523  0.9280 -2.6161
21052SOL     OW70270  10.054   0.627   7.306  0.5923  0.2825  0.4563
21052SOL    HW170271  10.020   0.558   7.364  1.4787  0.6120  1.4045
21052SOL    HW270272   9.995   0.701   7.321 -0.7876 -0.4309 -1.0835
21053SOL     OW70273   0.057   8.374   6.584  0.3439  0.2545  0.3069
21053SOL    HW170274  -0.032   8.398   6.558  1.0967  2.2815 -0.6328
21053SOL    HW270275   0.064   8.281   6.561 -0.6593  0.7056 -2.2546
21054SOL     OW70276   2.552   4.838  12.709 -0.5012 -0.6037 -0.8184
21054SOL    HW170277   2.470   4.854  12.661  0.1951  1.7806 -1.2956
21054SOL    HW270278   2.525   4.785  12.784 -2.0464 -2.1156 -2.3415
21055SOL     OW70279   4.854   6.679   6.251  0.2013 -0.6582 -0.0374
21055SOL    HW170280   4.825   6.640   6.333 -0.3644 -2.2306 -0.9265
21055SOL    HW270281   4.868   6.604   6.193 -0.3415  0.4407 -1.6730
21056SOL     OW70282   1.822   7.182   4.475 -0.0444  0.1913 -0.5585
21056SOL    HW170283   1.915   7.175   4.496 -0.2538 -2.1970 -0.0545
21056SOL    HW270284   1.788   7.247   4.536  1.3366  1.4155 -1.0311
21057SOL     OW70285  11.336   0.225  10.830  0.2954 -0.8870 -0.0638
21057SOL    HW170286  11.328   0.160  10.900  0.0483  0.3356  1.0875
21057SOL    HW270287  11.255   0.275  10.835  2.0490  2.0168  1.7172
21058SOL     OW70288  11.336   4.769   8.120  0.1785 -0.1500 -0.1558
21058SOL    HW170289  11.427   4.778   8.149  0.3004  0.0157 -0.5808
21058SOL    HW270290  11.317   4.852   8.076  0.2249 -0.6596 -1.1646
21059SOL     OW70291  12.887   3.924  12.682  0.6881 -0.4344 -0.1338
21059SOL    HW170292  12.854   3.954  12.767 -1.5612  0.8442 -1.3533
21059SOL    HW270293  12.951   3.990  12.656  0.1715  0.0770 -0.1339
21060SOL     OW70294   2.410   2.635   7.565 -0.3528  0.2061  0.0396
21060SOL    HW170295   2.462   2.556   7.553  0.1740  0.3509  1.2545
21060SOL    HW270296   2.338   2.609   7.622 -0.3588  0.5221  0.1811
21061SOL     OW70297   6.665   3.719   3.188 -0.1494 -0.2134 -0.3707
21061SOL    HW170298   6.750   3.757   3.168  0.2739 -1.8301 -1.7854
21061SOL    HW270299   6.679   3.670   3.269 -0.1590  0.7482  0.2417
21062SOL     OW70300   4.223  10.305   0.022  0.0461 -0.0998  0.2841
21062SOL    HW170301   4.140  10.274   0.058 -0.2911  0.6502  0.1890
21062SOL    HW270302   4.200  10.388  -0.022  0.9477  0.4179  0.7613
21063SOL     OW70303   7.501  10.802   0.373 -0.2078  0.1740  0.5715
21063SOL    HW170304   7.559  10.798   0.449 -0.4419  1.2433  0.8240
21063SOL    HW270305   7.462  10.889   0.377 -0.0504  0.3344 -0.9018
21064SOL     OW70306  10.377   0.104   5.107  0.9311  0.3282  0.5339
21064SOL    HW170307  10.434   0.120   5.032 -0.0890 -0.1552 -0.3803
21064SOL    HW270308  10.289   0.119   5.072  0.0393 -3.8817  0.4366
21065SOL     OW70309   0.766   8.204   2.509 -0.0019  0.3354 -0.3587
21065SOL    HW170310   0.855   8.231   2.490  0.6859 -0.5260  1.4225
21065SOL    HW270311   0.712   8.254   2.448  1.7473  0.0916 -2.2195
21066SOL     OW70312   9.022   4.418   8.788  0.2079 -0.1416 -0.5247
21066SOL    HW170313   8.947   4.399   8.732 -0.0034 -0.2243 -0.2202
21066SOL    HW270314   8.990   4.484   8.849 -0.0297 -1.1316  0.4536
21067SOL     OW70315   7.101   0.403  11.189  0.2293 -0.1031  0.0169
21067SOL    HW170316   7.119   0.493  11.165 -1.6355  0.4041  0.3459
21067SOL    HW270317   7.025   0.408  11.247  1.8729 -1.6599  2.4834
21068SOL     OW70318  11.610   6.433  11.573 -0.5744 -0.3634 -0.1160
21068SOL    HW170319  11.599   6.461  11.664 -0.2915 -1.3732  0.2382
21068SOL    HW270320  11.650   6.346  11.578 -2.2497 -1.2704 -1.1505
21069SOL     OW70321   9.038   4.048   8.539  0.0439  0.8249 -0.4326
21069SOL    HW170322   8.985   4.123   8.511 -1.5676 -1.0599 -2.9336
21069SOL    HW270323   9.118   4.055   8.486 -0.9192 -0.1381 -2.1056
21070SOL     OW70324   7.607   4.909   3.417  0.0681  0.1771 -0.2616
21070SOL    HW170325   7.550   4.837   3.445  1.1975 -0.8583 -0.5095
21070SOL    HW270326   7.547   4.979   3.391 -1.0901 -0.8891 -0.5602
21071SOL     OW70327   2.681  10.971   6.348  0.1013  0.0982 -0.2905
21071SOL    HW170328   2.716  11.048   6.302 -0.4676 -0.0447 -0.9790
21071SOL    HW270329   2.658  10.910   6.279 -0.7350 -0.1426  0.1784
21072SOL     OW70330   9.605  10.359   6.532  0.2489 -0.2225 -0.0170
21072SOL    HW170331   9.666  10.420   6.491  1.2091 -1.4854 -0.5648
21072SOL    HW270332   9.600  10.286   6.469 -0.1785 -1.0751  0.9909
21073SOL     OW70333   1.719   0.634   1.577 -0.2846 -0.0847 -0.6028
21073SOL    HW170334   1.752   0.668   1.661  0.2839 -0.5120 -0.6525
21073SOL    HW270335   1.782   0.568   1.551  1.0690  1.8795 -2.7331
21074SOL     OW70336   7.933   0.837   5.187 -0.1473  0.0680  0.3614
21074SOL    HW170337   7.870   0.875   5.249 -0.2841  2.3185 -1.0591
21074SOL    HW270338   8.019   0.859   5.225 -0.2315  0.9665  0.0556
21075SOL     OW70339   7.863   7.044   9.197  0.5568 -0.0612  0.2340
21075SOL    HW170340   7.774   7.009   9.187 -0.9097  3.0770  1.0326
21075SOL    HW270341   7.887   7.073   9.109  0.3269  0.0751  0.2153
21076SOL     OW70342   1.986  10.772   3.447 -0.4279 -0.7548  0.3033
21076SOL    HW170343   1.895  10.803   3.442 -0.3094  0.0986  2.4301
21076SOL    HW270344   2.012  10.762   3.355 -1.5056  2.4801 -0.5168
21077SOL     OW70345   4.078  10.031  10.783 -0.2267 -0.1215  0.2687
21077SOL    HW170346   4.057  10.115  10.742  0.2144  0.3202  0.9200
21077SOL    HW270347   4.173  10.022  10.772 -0.5980 -2.0348 -2.5342
21078SOL     OW70348   8.691  11.010   9.827  0.4572 -0.1743  0.6494
21078SOL    HW170349   8.685  11.047   9.915  0.5084  0.1594  0.5144
21078SOL    HW270350   8.778  10.971   9.823 -0.0710 -1.5139  1.2514
21079SOL     OW70351   2.951   3.460  11.951 -0.2854  0.6060 -0.1331
21079SOL    HW170352   2.924   3.533  11.896  1.1607  0.7162 -0.7374
21079SOL    HW270353   2.920   3.483  12.039 -2.0929  0.7131 -0.7502
21080SOL     OW70354   8.024  10.433  12.016 -0.2046 -0.0431  0.4726
21080SOL    HW170355   8.052  10.442  12.108  0.0157 -3.2961  0.8535
21080SOL    HW270356   8.101  10.397  11.972 -1.1603 -1.1894 -0.3179
21081SOL     OW70357   6.858   8.384   6.629 -0.0743 -0.2181  0.0201
21081SOL    HW170358   6.913   8.306   6.628 -0.2484 -0.3618 -1.6206
21081SOL    HW270359   6.773   8.354   6.660  0.1675 -0.4434  0.4648
21082SOL     OW70360   2.644  12.664  11.531  0.1285 -0.4315 -0.1140
21082SOL    HW170361   2.651  12.598  11.600 -2.2028 -1.3096 -0.6189
21082SOL    HW270362   2.697  12.737  11.562  1.3803 -1.8527  1.2785
21083SOL     OW70363  11.627   7.137   2.543 -0.5639 -0.2059 -0.6257
21083SOL    HW170364  11.532   7.149   2.537 -0.6084  0.7478  1.1744
21083SOL    HW270365  11.660   7.220   2.576  0.7632 -0.8898 -0.1412
21084SOL     OW70366   1.896   6.072   9.980 -0.1335  0.0163  0.0618
21084SOL    HW170367   1.878   6.074  10.074 -1.7272  0.0230 -0.2107
21084SOL    HW270368   1.834   6.135   9.942 -1.2325 -1.7203 -1.2114
21085SOL     OW70369   3.264   1.197   4.402  0.0096 -0.5685  0.2727
21085SOL    HW170370   3.359   1.192   4.408  0.2172  0.2823 -1.5003
21085SOL    HW270371   3.235   1.106   4.399  0.9330 -0.8447 -0.8464
21086SOL     OW70372   1.718   2.870  12.749 -0.4380 -0.3400  0.5110
21086SOL    HW170373   1.729   2.926  12.672 -0.9308 -0.5798  0.2590
21086SOL    HW270374   1.803   2.873  12.793 -0.2810  0.1356  0.1861
21087SOL     OW70375  12.477   7.231   8.390 -0.0719  0.5107  0.0342
21087SOL    HW170376  12.468   7.215   8.484  1.3728  0.5644  0.2016
21087SOL    HW270377  12.400   7.284   8.368 -2.0837 -1.9869  0.5383
21088SOL     OW70378   1.461  10.344   1.040  0.1394  0.0428 -0.0407
21088SOL    HW170379   1.376  10.366   1.001  0.7430  1.5774 -0.5795
21088SOL    HW270380   1.466  10.249   1.035 -0.7812  0.0381 -1.6985
21089SOL     OW70381   9.461   8.056   1.943  0.3921 -0.5299  0.2651
21089SOL    HW170382   9.473   8.114   2.018  1.5831 -1.3541  0.7327
21089SOL    HW270383   9.464   8.114   1.867 -0.0415  0.2105  0.7983
21090SOL     OW70384   9.806   2.177   5.578 -0.0772  0.5372 -0.0167
21090SOL    HW170385   9.728   2.217   5.614 -1.3736 -0.8578 -1.1194
21090SOL    HW270386   9.822   2.100   5.633  1.2472  1.4318  0.9138
21091SOL     OW70387   8.045  11.420  10.108 -0.3273  0.1070 -0.0806
21091SOL    HW170388   8.067  11.487  10.044 -1.6650  0.6759  0.0152
21091SOL    HW270389   7.954  11.397  10.088 -0.3021 -0.7404  0.7066
21092SOL     OW70390   7.638  11.832  10.857 -0.2387  0.0519 -0.4160
21092SOL    HW170391   7.593  11.915  10.847  0.1909  0.1822 -1.4017
21092SOL    HW270392   7.626  11.787  10.773  1.3676  0.0637 -0.6934
21093SOL     OW70393   7.044   6.052   2.835 -0.3143 -0.3334  0.4787
21093SOL    HW170394   7.118   6.036   2.894  0.2938  0.4827 -0.0390
21093SOL    HW270395   6.969   6.063   2.893 -0.1452 -1.6390  0.9942
21094SOL     OW70396   2.723  12.374  12.903  0.2498  0.8848 -0.0949
21094SOL    HW170397   2.807  12.331  12.919  0.0185  0.6419  0.5119
21094SOL    HW270398   2.663  12.334  12.967 -0.0009  2.0362  0.4155
21095SOL     OW70399   2.528   3.819  10.408 -1.0482  0.2152  0.1334
21095SOL    HW170400   2.548   3.847  10.498 -1.8791  0.2940  0.3022
21095SOL    HW270401   2.437   3.788  10.412 -1.2466  0.6372 -0.7752
21096SOL     OW70402   5.762   2.237   8.257  0.0091 -0.5003  0.5018
21096SOL    HW170403   5.680   2.232   8.208  0.4318 -1.6724 -0.1223
21096SOL    HW270404   5.792   2.327   8.243 -1.0908 -0.0904  0.6328
21097SOL     OW70405   3.285   7.710   0.565  0.1899 -0.1864 -0.5176
21097SOL    HW170406   3.217   7.726   0.630 -0.5144  2.2489 -1.7418
21097SOL    HW270407   3.365   7.701   0.615 -0.4788  0.6514  0.7358
21098SOL     OW70408   9.496  12.710   4.733 -0.5444  0.3770 -0.0550
21098SOL    HW170409   9.420  12.652   4.728  0.3401 -0.7781 -0.6139
21098SOL    HW270410   9.521  12.725   4.642 -1.0836  2.1388  0.0390
21099SOL     OW70411   3.764  12.524  11.410 -0.1312  0.1999  0.3825
21099SOL    HW170412   3.846  12.547  11.453  0.1736 -0.3079  0.0824
21099SOL    HW270413   3.782  12.538  11.316 -0.7078  1.0590  0.3871
21100SOL     OW70414   9.250   6.029   4.243  0.2623 -0.2892 -0.2303
21100SOL    HW170415   9.250   6.092   4.170 -0.4033  1.3903  1.1649
21100SOL    HW270416   9.164   6.040   4.284  0.0375 -2.3165 -0.0797
21101SOL     OW70417   0.740  12.535   5.097 -0.2439 -0.2949 -0.3461
21101SOL    HW170418   0.700  12.451   5.119  0.5987 -0.5032  0.4748
21101SOL    HW270419   0.826  12.532   5.138  0.0148  0.7542 -0.7727
21102SOL     OW70420  10.180   6.299  12.093 -0.2198 -0.3310  0.1723
21102SOL    HW170421  10.234   6.225  12.121 -0.2856 -0.4639 -0.0450
21102SOL    HW270422  10.100   6.258  12.061  0.5812 -0.3227 -1.9695
21103SOL     OW70423   4.259   4.543   1.657 -0.2847 -0.4279  0.0683
21103SOL    HW170424   4.224   4.473   1.712  1.4388 -0.3870  1.3057
21103SOL    HW270425   4.335   4.504   1.614 -0.3562  0.1747 -0.6281
21104SOL     OW70426  12.097   5.547   0.796 -0.3848  0.6447  0.5917
21104SOL    HW170427  12.082   5.510   0.883 -2.0634  0.3757  0.2145
21104SOL    HW270428  12.165   5.492   0.757 -0.7267 -0.1896  1.1547
21105SOL     OW70429   9.149   5.519   7.040 -0.5276  0.2177  0.4002
21105SOL    HW170430   9.238   5.484   7.046 -0.7461 -0.4089  0.0897
21105SOL    HW270431   9.094   5.451   7.078 -0.7410  1.2188  1.9378
21106SOL     OW70432   2.144   1.343  12.272  0.0054 -0.4539  0.3676
21106SOL    HW170433   2.105   1.416  12.224 -0.1121 -1.0253 -0.4475
21106SOL    HW270434   2.219   1.381  12.317  0.4356  0.0209 -0.7082
21107SOL     OW70435   9.146   2.251   3.611 -0.0368  0.7685  0.1513
21107SOL    HW170436   9.101   2.298   3.681  0.0808 -0.7769  1.3353
21107SOL    HW270437   9.157   2.162   3.646  2.3593  0.6362 -0.7879
21108SOL     OW70438   9.898  12.913  10.276  0.8333 -0.4205 -0.0728
21108SOL    HW170439   9.828  12.971  10.247 -0.5382 -1.5196  0.9392
21108SOL    HW270440   9.978  12.955  10.245 -0.2258  1.1439 -0.7931
21109SOL     OW70441   1.765   4.111   2.546 -0.4000  0.3393  0.1742
21109SOL    HW170442   1.797   4.074   2.628 -1.6670 -2.5383 -0.5082
21109SOL    HW270443   1.803   4.055   2.478 -0.3011  1.9490 -1.1744
21110SOL     OW70444   2.710   8.763   3.032  0.1486  0.1124  0.2121
21110SOL    HW170445   2.736   8.811   3.111  0.5641  1.1111 -0.5055
21110SOL    HW270446   2.751   8.678   3.041  2.4664  1.1291 -0.1629
21111SOL     OW70447   9.542  11.463   8.537 -0.2746  0.2860  0.2270
21111SOL    HW170448   9.503  11.501   8.458  0.4888  0.0816 -0.2537
21111SOL    HW270449   9.633  11.446   8.514  0.1798  0.9720  1.4117
21112SOL     OW70450   4.745  12.931   6.163 -0.2835  0.0577 -0.3276
21112SOL    HW170451   4.839  12.936   6.179 -0.3072 -0.7189  0.1473
21112SOL    HW270452   4.711  13.017   6.188  0.5520  1.1071 -2.5139
21113SOL     OW70453  10.968   0.263  11.509  0.1793  0.0759 -0.2258
21113SOL    HW170454  10.882   0.302  11.525 -0.3949 -1.8841  1.8121
21113SOL    HW270455  10.957   0.215  11.426 -0.4934  0.3275 -0.2893
21114SOL     OW70456  12.005   0.030   9.484 -0.0052 -0.3188 -0.5382
21114SOL    HW170457  12.099   0.046   9.476  0.1752  1.0392  2.7938
21114SOL    HW270458  11.964   0.097   9.429  0.9968  1.4431  0.7772
21115SOL     OW70459   5.196  12.808   6.752  0.1015  0.7196 -0.7087
21115SOL    HW170460   5.237  12.859   6.682  3.9954 -1.1876 -0.0899
21115SOL    HW270461   5.177  12.724   6.711  1.9918 -0.2549  0.2918
21116SOL     OW70462   5.625   0.865  12.646 -0.1195 -0.0630 -0.3120
21116SOL    HW170463   5.551   0.842  12.702 -3.8273  4.0007 -2.8677
21116SOL    HW270464   5.658   0.947  12.683 -1.1950  1.5004 -2.5757
21117SOL     OW70465  10.697  12.157   2.548 -0.2976  0.0638  0.3105
21117SOL    HW170466  10.680  12.089   2.483  0.5344 -1.7051  1.8585
21117SOL    HW270467  10.792  12.168   2.548 -0.4946  2.6962 -1.2498
21118SOL     OW70468   5.902   1.766   7.224 -0.4459  0.1302  0.4436
21118SOL    HW170469   5.811   1.779   7.197 -0.4791  0.1712  0.5702
21118SOL    HW270470   5.901   1.683   7.272 -0.0963 -0.7158 -0.9667
21119SOL     OW70471  12.292  10.709   2.873  0.0477  0.0639 -0.4134
21119SOL    HW170472  12.267  10.626   2.834 -0.1388  0.2749 -0.7467
21119SOL    HW270473  12.262  10.775   2.811  2.0662  0.3156 -1.2025
21120SOL     OW70474   0.982   2.742   5.070 -0.2204 -0.1087 -0.3074
21120SOL    HW170475   1.070   2.769   5.043  0.2636 -0.9772  0.3417
21120SOL    HW270476   0.923   2.803   5.026  0.7386  0.8124 -0.3443
21121SOL     OW70477   7.718   6.089   1.682 -0.7010 -0.0136 -0.4291
21121SOL    HW170478   7.778   6.123   1.748  0.8886  0.1935 -1.9326
21121SOL    HW270479   7.635   6.135   1.699  0.2979  1.6834  0.0559
21122SOL     OW70480   0.697   5.422   6.156 -0.2433  0.0791  0.4351
21122SOL    HW170481   0.694   5.355   6.225  0.7410 -0.1002  0.3243
21122SOL    HW270482   0.674   5.375   6.076  0.0849 -0.0548  0.4154
21123SOL     OW70483   7.896   9.575   9.596  0.4005 -0.0783  0.5882
21123SOL    HW170484   7.871   9.631   9.669  1.0991  0.8844  0.1115
21123SOL    HW270485   7.814   9.554   9.551  0.1774  0.8849  0.5415
21124SOL     OW70486   1.845   6.657   2.721 -0.1133  0.2671 -0.3237
21124SOL    HW170487   1.885   6.686   2.802  0.1262  1.0896 -0.7200
21124SOL    HW270488   1.918   6.650   2.659 -0.3798  0.3639 -0.6558
21125SOL     OW70489   8.959   4.021  12.118 -0.6749  0.1251 -0.1978
21125SOL    HW170490   8.879   4.070  12.098 -1.8835 -2.3355 -1.8595
21125SOL    HW270491   8.988   3.988  12.033 -1.5721 -4.3384  0.9847
21126SOL     OW70492   7.040   5.422   7.227 -0.0587  0.0865 -0.0836
21126SOL    HW170493   7.055   5.427   7.321  0.1464 -0.6656 -0.0757
21126SOL    HW270494   7.030   5.329   7.208  3.1950 -0.1302 -1.3113
21127SOL     OW70495   9.515   6.026   0.894  0.1310 -0.5366  0.3155
21127SOL    HW170496   9.483   6.004   0.807  0.1395 -0.8608  0.3913
21127SOL    HW270497   9.522   6.121   0.894 -0.6256 -0.4731  0.2188
21128SOL     OW70498   1.771   7.962   6.608 -0.0499 -0.4344  0.8566
21128SOL    HW170499   1.734   8.048   6.626  0.0509 -0.3697  0.7621
21128SOL    HW270500   1.782   7.922   6.694  2.1901  0.6054  1.1305
21129SOL     OW70501  10.098   9.266   8.004  0.0774  0.3880 -0.2197
21129SOL    HW170502  10.118   9.202   7.936 -1.8320  0.5928 -1.0544
21129SOL    HW270503  10.181   9.311   8.021  1.0851 -1.1923 -0.7737
21130SOL     OW70504  11.046  11.142   2.147  0.6383 -0.2499  0.2288
21130SOL    HW170505  11.032  11.050   2.168  1.5240 -0.4275  0.1071
21130SOL    HW270506  11.121  11.142   2.087  1.3450  0.6033  1.0644
21131SOL     OW70507  11.213   7.344   3.887  0.1312 -0.3709 -0.2158
21131SOL    HW170508  11.234   7.367   3.797  0.7821 -0.5944 -0.1287
21131SOL    HW270509  11.221   7.427   3.935  1.5035 -0.5627 -0.0725
21132SOL     OW70510   4.391   2.407   2.406  0.0349 -0.4870 -0.1761
21132SOL    HW170511   4.296   2.414   2.397 -0.0767 -2.2517 -0.7804
21132SOL    HW270512   4.415   2.481   2.462 -1.6787  0.0338 -0.0602
21133SOL     OW70513   0.008  12.802   9.978  0.2390 -0.0556 -0.6046
21133SOL    HW170514   0.006  12.852  10.060  0.3363 -1.4704  0.2923
21133SOL    HW270515  -0.078  12.761   9.973  0.4556 -0.4768 -0.8883
21134SOL     OW70516   5.464   8.562   4.483 -0.4669  0.6041 -0.2013
21134SOL    HW170517   5.451   8.644   4.436  1.1141  0.3010 -1.2472
21134SOL    HW270518   5.451   8.494   4.416  2.7243  0.1819 -0.5794
21135SOL     OW70519   2.821   4.868   6.534  0.1854  0.5540 -0.3719
21135SOL    HW170520   2.769   4.922   6.593 -0.4477  0.8680 -1.1958
21135SOL    HW270521   2.872   4.811   6.592 -0.8953  0.4102  0.4765
21136SOL     OW70522   5.157  12.498   2.055 -0.8165 -0.2705 -0.7321
21136SOL    HW170523   5.097  12.424   2.069 -0.8841 -0.0580  0.1512
21136SOL    HW270524   5.159  12.509   1.960 -1.1032 -1.1655 -0.8526
21137SOL     OW70525   7.935   5.848   6.136 -0.0298  0.4086 -0.0195
21137SOL    HW170526   7.882   5.783   6.183  0.5200  0.6665  0.9760
21137SOL    HW270527   8.020   5.846   6.180  0.7615  0.1004 -1.5080
21138SOL     OW70528   5.498   3.296  12.612  0.4140 -0.4358 -0.0927
21138SOL    HW170529   5.555   3.307  12.689  0.7039 -0.0410 -0.3643
21138SOL    HW270530   5.417   3.260  12.648  0.6054 -0.4037  0.3798
21139SOL     OW70531  12.651  12.543   5.256  0.3019  0.1173 -0.1179
21139SOL    HW170532  12.591  12.471   5.233  0.6699  0.4292 -2.2786
21139SOL    HW270533  12.596  12.621   5.258  0.3379  0.1579 -0.4935
21140SOL     OW70534  12.252   6.344  10.312 -0.4227  0.2611 -0.2174
21140SOL    HW170535  12.269   6.360  10.405  0.5397  1.0343 -0.5046
21140SOL    HW270536  12.167   6.300  10.310 -0.2095 -0.2582  1.0634
21141SOL     OW70537  11.174   8.151  10.660 -0.0855 -0.1718  0.0296
21141SOL    HW170538  11.195   8.150  10.566 -1.7647 -0.8977 -0.3890
21141SOL    HW270539  11.220   8.228  10.694  1.1667 -0.3136 -1.2225
21142SOL     OW70540  12.700   9.987   8.927 -0.9038  0.1845  0.0318
21142SOL    HW170541  12.633   9.935   8.970 -2.9961  0.5988 -2.5240
21142SOL    HW270542  12.695  10.073   8.969 -2.4423  0.3937 -0.5492
21143SOL     OW70543   0.026   2.529  10.072 -0.0516  0.6990 -0.9836
21143SOL    HW170544   0.088   2.571  10.131 -1.1837  1.6358 -0.4281
21143SOL    HW270545   0.081   2.490  10.004  1.8099 -4.1889  2.6898
21144SOL     OW70546   3.474   2.478   4.017 -0.0585  0.0473 -0.4232
21144SOL    HW170547   3.565   2.480   3.988 -0.5347  0.9390 -1.9487
21144SOL    HW270548   3.468   2.400   4.073  1.7224  0.2133  0.0407
21145SOL     OW70549   9.133   3.115   0.410 -0.6941  0.1636 -0.3425
21145SOL    HW170550   9.052   3.129   0.360 -0.9865 -0.6835 -0.1170
21145SOL    HW270551   9.203   3.121   0.345 -0.8937  1.2359 -0.4885
21146SOL     OW70552  10.321   9.925   6.847 -0.2520 -0.4849  0.5147
21146SOL    HW170553  10.307   9.857   6.912  1.4627 -0.3579  1.0628
21146SOL    HW270554  10.364   9.996   6.895 -1.2109  0.6575 -0.2282
21147SOL     OW70555   7.872   0.952   6.820  0.6327 -0.1180 -0.0001
21147SOL    HW170556   7.782   0.954   6.853  1.9482 -0.1637  4.1382
21147SOL    HW270557   7.882   0.863   6.785 -0.4404 -0.6972  1.1013
21148SOL     OW70558  10.203   0.119  10.540  0.1037  1.0725  0.5016
21148SOL    HW170559  10.207   0.190  10.477  2.5850 -0.6038 -1.4491
21148SOL    HW270560  10.221   0.161  10.625  1.8273  2.7706 -0.6158
21149SOL     OW70561   1.102   3.273  10.810  0.2664 -0.0185 -0.2381
21149SOL    HW170562   1.073   3.272  10.901  0.6248 -0.6406 -0.1260
21149SOL    HW270563   1.184   3.322  10.812 -0.0533  0.5223 -0.3306
21150SOL     OW70564   9.249  11.007   4.937 -0.4035 -0.0417  0.6818
21150SOL    HW170565   9.199  11.020   5.017 -1.8696  0.0040 -0.2184
21150SOL    HW270566   9.337  11.039   4.958 -1.1566  1.3735  1.7998
21151SOL     OW70567  10.198   4.956   3.740 -0.8222  0.3580  0.1270
21151SOL    HW170568  10.286   4.981   3.770 -0.8701  0.7670 -0.0598
21151SOL    HW270569  10.140   5.018   3.783 -0.8275  1.4837 -1.3941
21152SOL     OW70570   2.888   3.352   8.082  0.5207 -0.2294  0.5050
21152SOL    HW170571   2.959   3.311   8.132  1.3338  0.1928 -0.2865
21152SOL    HW270572   2.932   3.399   8.012 -0.6263 -2.0295 -1.5619
21153SOL     OW70573   8.314   5.965   3.199 -0.3828  0.1463  0.0445
21153SOL    HW170574   8.254   5.942   3.270 -0.2726 -0.2224  0.0199
21153SOL    HW270575   8.281   6.048   3.165 -0.8758 -0.0566  0.0278
21154SOL     OW70576  12.919   5.725   1.248 -0.3114  0.0974  0.1496
21154SOL    HW170577  13.005   5.699   1.281 -0.1883 -0.6361 -0.7086
21154SOL    HW270578  12.867   5.645   1.249 -1.2575  0.6891  1.4177
21155SOL     OW70579  10.361   2.265   1.736  0.2459 -0.1476 -0.0559
21155SOL    HW170580  10.317   2.350   1.735  1.0201  0.2634 -0.6820
21155SOL    HW270581  10.399   2.259   1.824  0.7241  0.4501 -0.2157
21156SOL     OW70582   7.766   0.244   9.201 -0.1072  0.1121  0.0781
21156SOL    HW170583   7.812   0.188   9.138  1.0064  0.4436  0.5880
21156SOL    HW270584   7.683   0.198   9.217 -0.7030  0.3175 -2.0731
21157SOL     OW70585   1.476   3.274  12.777 -1.0902  0.7798  0.2742
21157SOL    HW170586   1.517   3.226  12.705 -1.0261  1.1442  0.0669
21157SOL    HW270587   1.505   3.364  12.765 -1.5691  0.9503  0.4081
21158SOL     OW70588  12.964  10.284   2.086 -0.1197  0.0467 -0.2018
21158SOL    HW170589  12.964  10.369   2.042  1.9214 -0.2674 -0.9432
21158SOL    HW270590  13.056  10.268   2.106 -0.8483  0.1125  4.2737
21159SOL     OW70591   4.393   2.652   0.567 -0.3293 -0.6192 -0.1867
21159SOL    HW170592   4.463   2.690   0.514  0.0272 -1.5106 -0.3777
21159SOL    HW270593   4.389   2.560   0.539 -1.9757 -0.4548 -0.6046
21160SOL     OW70594   5.735   0.069  11.120  0.4952 -0.1398  0.6634
21160SOL    HW170595   5.810   0.009  11.115 -0.5323 -1.5566  1.5081
21160SOL    HW270596   5.737   0.116  11.036  2.5535  0.1786  0.8407
21161SOL     OW70597   9.624   7.806   1.660 -0.7441 -0.5213 -0.0377
21161SOL    HW170598   9.611   7.899   1.637  0.2010 -0.7104 -1.4666
21161SOL    HW270599   9.638   7.807   1.755 -0.5505  0.8275 -0.0490
21162SOL     OW70600   8.848   6.355   4.895 -0.0529  0.2195  0.3660
21162SOL    HW170601   8.869   6.278   4.842  0.3510  1.4947 -1.4322
21162SOL    HW270602   8.914   6.420   4.869 -0.4882  1.2276  1.7108
21163SOL     OW70603   5.074   2.005   7.109  0.4705  0.1510  0.6328
21163SOL    HW170604   4.981   2.004   7.135 -0.0983 -0.5878 -1.2679
21163SOL    HW270605   5.121   2.024   7.190 -1.3667  1.0384  1.5519
21164SOL     OW70606  11.532   5.496   5.558  0.0902 -0.2884 -0.0963
21164SOL    HW170607  11.551   5.424   5.619 -0.8241  0.5932  1.2809
21164SOL    HW270608  11.437   5.504   5.559  0.0385 -0.2857 -1.7278
21165SOL     OW70609  12.784   8.602   3.389 -0.2618  0.5765 -0.2693
21165SOL    HW170610  12.799   8.696   3.402 -1.2375  0.9167 -1.4005
21165SOL    HW270611  12.819   8.561   3.468 -1.7942  2.0737  1.2997
21166SOL     OW70612   8.403  10.330   7.354  0.1555  0.1769 -0.6162
21166SOL    HW170613   8.454  10.315   7.434 -0.0924 -0.4201 -0.5616
21166SOL    HW270614   8.334  10.390   7.382 -2.0721 -2.6897  0.5717
21167SOL     OW70615   3.752   4.887   1.297 -0.1628  0.1362  0.4497
21167SOL    HW170616   3.803   4.807   1.309 -1.4304 -0.5678  1.4555
21167SOL    HW270617   3.684   4.863   1.235  0.3141  0.8814 -0.3826
21168SOL     OW70618   8.964   6.292   3.846 -0.2449 -0.1238 -0.1569
21168SOL    HW170619   9.028   6.306   3.777 -1.6124 -0.3120 -1.4977
21168SOL    HW270620   8.885   6.337   3.816 -0.7497  0.2042  1.5110
21169SOL     OW70621  12.272   1.729   1.688  0.0746 -0.6559 -0.5782
21169SOL    HW170622  12.255   1.740   1.594 -1.0340 -0.6510 -0.3960
21169SOL    HW270623  12.293   1.636   1.697 -0.6217 -0.8370 -0.7307
21170SOL     OW70624  11.958   8.647   6.836 -0.4566 -0.0571  0.1458
21170SOL    HW170625  11.996   8.613   6.755 -0.6255  2.2227 -0.9924
21170SOL    HW270626  11.874   8.602   6.844 -0.7841  0.2278 -1.4020
21171SOL     OW70627  10.523   7.777   5.726 -0.0558 -0.5108 -0.5157
21171SOL    HW170628  10.595   7.837   5.746 -1.0173 -0.0966  2.1050
21171SOL    HW270629  10.561   7.690   5.737  0.4726 -0.3275 -0.8626
21172SOL     OW70630   8.696  10.747   7.033  0.2996  0.5481 -0.0152
21172SOL    HW170631   8.615  10.717   7.075  0.7602 -0.2301  0.3399
21172SOL    HW270632   8.670  10.767   6.943 -0.5096  1.3746  0.3902
21173SOL     OW70633   4.402   4.594  12.425 -0.2555 -0.1512  0.4011
21173SOL    HW170634   4.449   4.678  12.427  2.3204 -1.4616 -0.0788
21173SOL    HW270635   4.351   4.597  12.344 -1.2721  1.4294  1.0506
21174SOL     OW70636  12.049   6.709   3.368 -0.2448 -0.0674 -0.2127
21174SOL    HW170637  11.995   6.760   3.429  0.2206  0.0340  0.1161
21174SOL    HW270638  12.001   6.711   3.286 -0.3310  0.7222 -0.1467
21175SOL     OW70639   5.450  11.938  10.399 -0.1549 -0.3022 -0.0982
21175SOL    HW170640   5.420  12.015  10.449 -0.0978 -0.2043 -0.2149
21175SOL    HW270641   5.439  11.865  10.460  0.5167 -0.0950  0.2799
21176SOL     OW70642   6.701   8.581   3.858  0.0670  0.2200 -0.9818
21176SOL    HW170643   6.765   8.594   3.787 -0.0733  1.4831 -0.8990
21176SOL    HW270644   6.616   8.599   3.817  0.0901  2.4619 -0.1867
21177SOL     OW70645   5.046   9.220  10.522 -0.0397 -0.0878  0.6015
21177SOL    HW170646   4.961   9.220  10.567  0.4123  0.8266  1.5124
21177SOL    HW270647   5.028   9.259  10.436 -0.5564  0.0426  0.7648
21178SOL     OW70648   7.479   0.912  10.917  0.2435 -0.5248  0.5410
21178SOL    HW170649   7.462   0.987  10.860  0.9415 -0.8796 -0.1466
21178SOL    HW270650   7.408   0.915  10.982 -1.1390 -0.6661 -0.8855
21179SOL     OW70651   2.935  10.232   8.717 -0.0767  0.7246  0.3783
21179SOL    HW170652   2.870  10.290   8.755 -1.4231  0.2564 -1.1071
21179SOL    HW270653   2.929  10.151   8.768 -3.7312 -0.8874 -2.1414
21180SOL     OW70654   3.023   4.724  12.085  0.0654 -0.0958  0.2216
21180SOL    HW170655   3.023   4.820  12.077 -0.0840 -0.1568 -0.6057
21180SOL    HW270656   3.107   4.704  12.126  0.2544  0.3720  0.0773
21181SOL     OW70657  11.669  11.472   4.301 -0.4758  0.4388 -0.1432
21181SOL    HW170658  11.681  11.378   4.304 -0.6378  0.3981 -0.6960
21181SOL    HW270659  11.577  11.484   4.276 -0.6776  0.7434  0.6948
21182SOL     OW70660  12.844   5.218  11.103 -0.2801  0.2667 -0.0219
21182SOL    HW170661  12.917   5.177  11.148  0.8832  0.7325 -1.3828
21182SOL    HW270662  12.800   5.271  11.170  0.5516 -0.1264  0.8490
21183SOL     OW70663   4.009   9.014   9.170  0.5198  0.1884  0.3497
21183SOL    HW170664   3.996   9.104   9.142  0.5082  0.7502  2.0066
21183SOL    HW270665   3.932   8.994   9.223  1.4698 -0.0593  1.6913
21184SOL     OW70666   9.085   5.613  10.555  0.1467  0.3157 -0.5846
21184SOL    HW170667   9.058   5.697  10.593 -0.6294 -0.1892  0.0178
21184SOL    HW270668   9.055   5.617  10.465 -0.6694  0.3437 -0.3188
21185SOL     OW70669   4.547   5.379   0.860 -0.0080  0.5064 -0.4171
21185SOL    HW170670   4.552   5.292   0.899 -1.0085  0.7938  0.3926
21185SOL    HW270671   4.520   5.362   0.769  2.0855 -0.1422 -0.9748
21186SOL     OW70672  10.943   9.246   0.662 -0.2552 -0.1453  0.3253
21186SOL    HW170673  10.963   9.339   0.676  0.9549 -0.3071 -0.2338
21186SOL    HW270674  10.926   9.212   0.750 -0.8918  0.6307  0.5161
21187SOL     OW70675   5.180   4.665   8.080  0.5813  0.6355  0.1914
21187SOL    HW170676   5.265   4.663   8.123  0.5051 -0.5914  0.3462
21187SOL    HW270677   5.197   4.635   7.991  0.2154 -0.4011  0.4535
21188SOL     OW70678   4.561   7.518   2.339 -0.1703 -0.6598  0.0178
21188SOL    HW170679   4.542   7.509   2.245  1.1291  0.8818 -0.4326
21188SOL    HW270680   4.617   7.595   2.345  0.5364 -1.2650  1.9803
21189SOL     OW70681  10.024   3.201   6.364 -1.2087  0.0931  0.3101
21189SOL    HW170682   9.942   3.232   6.401 -1.4795 -0.7682  0.4691
21189SOL    HW270683  10.083   3.276   6.369 -1.6716  0.4159  1.1660
21190SOL     OW70684   3.638   8.062  11.283  0.5063 -0.2354  0.2756
21190SOL    HW170685   3.645   7.992  11.218  0.8998 -0.0870  0.1545
21190SOL    HW270686   3.573   8.122  11.246 -0.2147 -0.7976  0.6257
21191SOL     OW70687   4.350   5.674   2.577 -0.0775  0.4749 -0.6801
21191SOL    HW170688   4.397   5.756   2.589 -0.3097  0.4794  0.2732
21191SOL    HW270689   4.310   5.682   2.490  1.8792  0.3541 -1.6451
21192SOL     OW70690   9.784   2.113   2.019  0.8688 -0.7998 -0.1184
21192SOL    HW170691   9.731   2.040   2.051 -1.2358 -0.0892 -1.6987
21192SOL    HW270692   9.795   2.095   1.925  0.3266  0.8391 -0.5303
21193SOL     OW70693   5.256   3.303   3.632  0.2246  0.3798  0.5023
21193SOL    HW170694   5.262   3.210   3.609  2.5220  0.6320 -0.2240
21193SOL    HW270695   5.231   3.304   3.724  0.3493 -0.9763  0.5706
21194SOL     OW70696  10.282   5.282   7.215  0.3392 -0.5392 -0.1608
21194SOL    HW170697  10.303   5.236   7.296  0.5825 -1.1849 -0.5809
21194SOL    HW270698  10.348   5.252   7.152 -0.9142 -1.4628 -1.0957
21195SOL     OW70699   9.784   5.158  12.453 -0.0794  0.5450 -0.0459
21195SOL    HW170700   9.707   5.215  12.457 -0.9234 -0.4550 -1.1379
21195SOL    HW270701   9.751   5.072  12.481  0.8846  0.3083  0.4095
21196SOL     OW70702   4.000   1.883   8.653 -0.0017  0.2520  0.6134
21196SOL    HW170703   3.951   1.869   8.734 -0.3727  1.1132  0.5468
21196SOL    HW270704   4.002   1.978   8.642  0.1601  0.1541 -0.3160
21197SOL     OW70705   2.148   5.641   2.931 -0.4360 -0.7246  0.0520
21197SOL    HW170706   2.220   5.668   2.988  0.6043 -0.9973 -1.0930
21197SOL    HW270707   2.089   5.592   2.988 -1.3802  2.1654  1.7566
21198SOL     OW70708  10.450   7.978   7.035 -0.0172  0.2720  0.2263
21198SOL    HW170709  10.365   7.956   6.996  0.0501 -1.9294  1.1854
21198SOL    HW270710  10.428   8.025   7.116 -0.4333 -1.7040  1.3131
21199SOL     OW70711  11.924   6.927   8.938 -0.5561 -0.2031  0.0608
21199SOL    HW170712  11.908   7.016   8.907 -0.6216  0.4228  1.7662
21199SOL    HW270713  12.019   6.922   8.949 -0.2224 -1.3054 -2.6182
21200SOL     OW70714   9.824  12.208   4.514  0.7024 -1.2476 -0.1809
21200SOL    HW170715   9.918  12.222   4.521  0.5295 -0.2931  0.4732
21200SOL    HW270716   9.796  12.190   4.604  0.0913 -0.3100 -0.1749
21201SOL     OW70717   8.262   4.845  12.748 -0.2010  0.3985 -0.4943
21201SOL    HW170718   8.237   4.754  12.734 -0.7900  0.5294 -0.3340
21201SOL    HW270719   8.218   4.893  12.678  0.4073  0.5159 -0.7982
21202SOL     OW70720  12.617   5.391   2.135  0.1524  0.2225  0.0281
21202SOL    HW170721  12.628   5.478   2.174  3.6053  0.7551 -1.7532
21202SOL    HW270722  12.594   5.408   2.044  3.0454 -0.4976 -0.9580
21203SOL     OW70723   8.402   8.737   5.246  0.1184  0.1693 -0.1220
21203SOL    HW170724   8.477   8.691   5.209  1.1900  2.0963 -0.4717
21203SOL    HW270725   8.415   8.828   5.221 -0.0988  1.3104  3.4053
21204SOL     OW70726   5.629   8.753   0.288 -0.2093 -0.0903 -0.0030
21204SOL    HW170727   5.708   8.703   0.268  0.4790  1.2748 -0.8403
21204SOL    HW270728   5.572   8.739   0.212 -1.1385 -1.6746  0.9232
21205SOL     OW70729   7.745   9.361  12.298 -0.2072  0.2844  0.5361
21205SOL    HW170730   7.751   9.456  12.284  0.3029  0.1426 -0.2857
21205SOL    HW270731   7.711   9.327  12.215  0.3009 -0.3271  0.5744
21206SOL     OW70732  10.351   1.926  12.085  0.0689 -0.2409  0.1089
21206SOL    HW170733  10.292   1.950  12.156  0.4261 -0.2004  0.3899
21206SOL    HW270734  10.438   1.951  12.116  0.0143  1.8734 -1.2208
21207SOL     OW70735  10.625  12.583  10.792  0.6013 -0.2062 -0.3048
21207SOL    HW170736  10.638  12.670  10.756  0.9981 -0.3536 -0.5247
21207SOL    HW270737  10.690  12.576  10.863  2.4226 -1.2710 -1.9820
21208SOL     OW70738   7.360   1.277   6.806 -0.2682 -0.0997 -0.9705
21208SOL    HW170739   7.349   1.303   6.897 -0.7064  1.8817 -1.5379
21208SOL    HW270740   7.454   1.267   6.794 -0.1883 -0.0558 -0.3994
21209SOL     OW70741   9.983   7.193  12.579  0.3103  0.1096  0.0559
21209SOL    HW170742   9.948   7.276  12.611  0.4463  0.4047 -0.5544
21209SOL    HW270743   9.970   7.196  12.484 -0.3168 -0.8568  0.0903
21210SOL     OW70744   3.888   0.652   8.537  0.5461  0.6115 -0.3331
21210SOL    HW170745   3.857   0.698   8.459 -0.3447  1.4985  0.5179
21210SOL    HW270746   3.945   0.714   8.581  1.1321  0.0742 -0.3257
21211SOL     OW70747   3.064  11.252  10.145 -0.0197  0.2093 -0.4831
21211SOL    HW170748   3.014  11.192  10.089 -0.0266  0.1018 -0.3630
21211SOL    HW270749   3.032  11.339  10.121 -0.0886  0.1577 -0.5810
21212SOL     OW70750   0.311   2.140   7.981  0.0872  0.8325 -0.1057
21212SOL    HW170751   0.389   2.194   7.990 -0.8819  2.1825  0.4568
21212SOL    HW270752   0.246   2.181   8.038 -1.3582  0.3596 -1.3343
21213SOL     OW70753   2.311   7.980   6.655  0.1771  0.6983  0.3311
21213SOL    HW170754   2.332   7.894   6.620  0.4206  1.2448 -0.9508
21213SOL    HW270755   2.224   7.971   6.693  0.7741 -0.4420  1.4603
21214SOL     OW70756   4.538  12.925   1.040 -0.0789 -0.2521  0.0167
21214SOL    HW170757   4.616  12.916   1.095  0.6623 -0.2116 -1.0028
21214SOL    HW270758   4.571  12.915   0.951 -1.1346  0.4687 -0.4676
21215SOL     OW70759  11.018   5.934   0.622 -0.1828 -0.2486  0.0157
21215SOL    HW170760  10.935   5.889   0.636 -0.8159  0.4743 -1.2269
21215SOL    HW270761  11.067   5.876   0.564  0.3300 -0.8142  0.9818
21216SOL     OW70762   8.523   1.947   2.021  0.2163 -0.6849 -0.3060
21216SOL    HW170763   8.569   1.915   1.943  0.6874 -1.0847  0.1220
21216SOL    HW270764   8.524   1.873   2.081 -0.9936 -0.6949 -0.2731
21217SOL     OW70765   1.844  12.436  12.332  0.2935 -0.2495  0.1581
21217SOL    HW170766   1.931  12.449  12.295  0.8445  1.0690  1.7741
21217SOL    HW270767   1.854  12.365  12.395  0.1612 -0.2047  0.2309
21218SOL     OW70768   8.585   5.172   3.994 -0.0811  0.4217 -0.5221
21218SOL    HW170769   8.551   5.084   3.975  0.4038 -0.2051  1.3378
21218SOL    HW270770   8.517   5.213   4.048  0.2114  0.7501 -0.4012
21219SOL     OW70771   7.920   6.546  11.599  0.1229  0.4052 -0.5215
21219SOL    HW170772   7.998   6.594  11.572  0.7889  0.0527  0.6847
21219SOL    HW270773   7.903   6.485  11.527  1.6607 -0.3135 -0.3256
21220SOL     OW70774  10.209   2.921  12.467  0.1238  0.3919 -0.1983
21220SOL    HW170775  10.251   2.994  12.423  1.1126 -0.0688 -0.0377
21220SOL    HW270776  10.256   2.912  12.550 -0.5773  0.1428  0.1863
21221SOL     OW70777   7.722  12.056  11.361 -0.3975  0.7473  0.0638
21221SOL    HW170778   7.691  12.087  11.446  0.8265 -0.3052  0.9382
21221SOL    HW270779   7.782  12.124  11.332  0.1662  0.5187  0.6637
21222SOL     OW70780   1.247   0.880  10.614 -0.0767  0.5682  0.0570
21222SOL    HW170781   1.325   0.874  10.670 -0.6968  0.6139  0.9579
21222SOL    HW270782   1.181   0.921  10.671 -0.9499 -0.0654 -0.4759
21223SOL     OW70783   7.752  10.359   6.027  0.4009  0.5761 -0.5991
21223SOL    HW170784   7.765  10.282   6.082  4.5383  0.3348 -1.5619
21223SOL    HW270785   7.768  10.433   6.086  0.3186  0.5407 -0.5306
21224SOL     OW70786   9.413  10.180   0.384 -0.2514  0.3064 -0.0242
21224SOL    HW170787   9.424  10.275   0.392  2.0361 -0.0314  2.1280
21224SOL    HW270788   9.458  10.158   0.302 -1.0306  1.0639 -0.6800
21225SOL     OW70789   2.831   4.684  11.127 -0.8490  0.3000 -0.2022
21225SOL    HW170790   2.758   4.678  11.065 -1.4186  1.2773  0.3500
21225SOL    HW270791   2.905   4.648  11.080 -2.0488 -2.5497 -0.1397
21226SOL     OW70792   2.859   0.845  12.760 -0.4285 -0.6611 -0.0879
21226SOL    HW170793   2.778   0.866  12.806  0.0483  0.0880  0.4346
21226SOL    HW270794   2.901   0.778  12.814  0.2484  0.3926  0.7309
21227SOL     OW70795   2.889   0.759   4.736  0.3391  0.2681 -0.2706
21227SOL    HW170796   2.899   0.809   4.816  0.2526 -1.3655  0.8028
21227SOL    HW270797   2.834   0.814   4.680  0.9438  1.7098  0.5190
21228SOL     OW70798   8.948   7.106  10.102  0.4922 -0.4566 -0.0886
21228SOL    HW170799   9.044   7.107  10.097  0.6296  1.5550  1.5513
21228SOL    HW270800   8.919   7.102  10.011  2.1123 -1.2255 -0.6128
21229SOL     OW70801   5.432  11.722   7.612 -0.0193  0.4001  0.6555
21229SOL    HW170802   5.417  11.803   7.565  1.0726  1.0987  1.4713
21229SOL    HW270803   5.428  11.746   7.704  1.4122 -0.2207  0.9143
21230SOL     OW70804   4.255   6.090   9.659 -0.2038  0.2259  0.6513
21230SOL    HW170805   4.217   6.062   9.742 -0.3087  1.7730  1.1644
21230SOL    HW270806   4.320   6.156   9.683  1.8798 -1.3622 -0.3110
21231SOL     OW70807   0.987   4.928   6.570 -0.3056 -0.3180  0.1592
21231SOL    HW170808   0.941   5.002   6.529  2.4791  0.8995 -1.0077
21231SOL    HW270809   1.012   4.872   6.497  0.0523 -0.9545  0.7591
21232SOL     OW70810   1.696  12.042   5.882 -0.0057 -0.1523 -0.2450
21232SOL    HW170811   1.637  12.107   5.842 -1.6222 -1.3259  0.1398
21232SOL    HW270812   1.767  12.094   5.918 -0.0497  1.2122 -1.9779
21233SOL     OW70813   1.050   5.473   5.113  0.3079 -0.0222  0.2095
21233SOL    HW170814   0.966   5.498   5.074  1.2307  2.0352 -0.6452
21233SOL    HW270815   1.074   5.392   5.068 -0.2087  0.5526 -1.1509
21234SOL     OW70816  12.676   4.016  11.984 -0.3163 -0.2241  0.1469
21234SOL    HW170817  12.694   4.110  11.986 -2.0567  0.1267  1.6957
21234SOL    HW270818  12.648   3.999  11.894 -2.2083  1.2385  0.4071
21235SOL     OW70819  10.565   7.800   4.930  0.6216  0.1973 -0.0208
21235SOL    HW170820  10.641   7.845   4.967  0.1636  1.8391 -0.9799
21235SOL    HW270821  10.497   7.867   4.927 -0.5419 -0.9519 -0.2059
21236SOL     OW70822   4.689   0.927  11.885 -0.1583  0.1374 -0.1540
21236SOL    HW170823   4.650   1.012  11.902  0.0598  0.1803  0.1368
21236SOL    HW270824   4.776   0.946  11.851 -0.3778  0.0411 -0.7742
21237SOL     OW70825   9.946   2.822   4.453  0.8408 -0.6181  0.6431
21237SOL    HW170826  10.012   2.853   4.390  0.0659  1.7835  0.8830
21237SOL    HW270827   9.975   2.858   4.537 -0.3128 -0.2633  0.8961
21238SOL     OW70828  12.951   2.626   1.254  0.0300  0.0511  0.4739
21238SOL    HW170829  12.869   2.589   1.222  1.5134 -0.7190 -2.9725
21238SOL    HW270830  12.929   2.716   1.280 -1.6971  0.4062 -1.8916
21239SOL     OW70831   5.318   1.472  11.223 -0.5517 -0.0637  0.1094
21239SOL    HW170832   5.393   1.518  11.260 -2.0757  1.2486  1.6992
21239SOL    HW270833   5.337   1.379  11.238  0.3673  0.2914  1.2127
21240SOL     OW70834   3.154   8.576   9.971  0.3298 -0.3620 -0.3311
21240SOL    HW170835   3.084   8.553  10.031 -0.5769  1.4877 -0.6116
21240SOL    HW270836   3.134   8.665   9.943  1.9570 -0.3448 -1.6284
21241SOL     OW70837  10.476   2.910  11.108 -0.8942  0.7205  0.0678
21241SOL    HW170838  10.468   2.947  11.020 -0.8487 -0.3417 -0.4026
21241SOL    HW270839  10.570   2.912  11.126 -0.4595 -2.0214 -1.2932
21242SOL     OW70840   2.763   3.710   5.579  0.7729  0.0643  0.3959
21242SOL    HW170841   2.834   3.648   5.599  0.0239 -0.7190  0.6942
21242SOL    HW270842   2.709   3.664   5.514  2.2107  1.8756 -2.2907
21243SOL     OW70843   0.984  11.647   4.813 -0.1312 -0.2418 -0.6917
21243SOL    HW170844   0.896  11.667   4.781  0.1232  0.1106 -1.1972
21243SOL    HW270845   0.972  11.628   4.906 -0.5179  1.5084 -0.3405
21244SOL     OW70846   9.686   8.053   0.667  0.3113 -0.7012 -0.4567
21244SOL    HW170847   9.687   7.988   0.737  2.3247 -1.4575 -1.1141
21244SOL    HW270848   9.595   8.057   0.639 -0.7882  0.3753  2.8235
21245SOL     OW70849   8.119   9.364   3.521  0.0176 -0.7956  0.1038
21245SOL    HW170850   8.030   9.358   3.556 -0.3560 -1.4477 -0.9094
21245SOL    HW270851   8.140   9.458   3.525  0.0084 -0.8318  2.0294
21246SOL     OW70852  10.848  11.973   3.343 -0.1817 -0.0834  0.3406
21246SOL    HW170853  10.824  12.002   3.255 -0.2456  0.2621  0.4716
21246SOL    HW270854  10.890  11.888   3.329  0.1148  0.1281 -0.0525
21247SOL     OW70855  10.898   7.636   7.359 -0.0222  0.0833  0.4211
21247SOL    HW170856  10.942   7.604   7.280 -0.6427  1.5994 -0.6000
21247SOL    HW270857  10.960   7.620   7.430  1.1298 -0.0550 -0.5860
21248SOL     OW70858   7.026   0.044   5.528  0.2790 -0.0966 -0.1845
21248SOL    HW170859   6.987   0.005   5.607  1.2845 -0.9295 -0.0886
21248SOL    HW270860   7.015  -0.023   5.461  2.9446 -1.0693  0.2262
21249SOL     OW70861   6.085   1.843  11.667 -0.1968  0.4894  0.0192
21249SOL    HW170862   6.139   1.806  11.598 -2.0054 -1.0603 -0.6544
21249SOL    HW270863   6.092   1.938  11.655  0.8223  0.2795 -1.2467
21250SOL     OW70864   4.734   2.088   3.004 -0.2123  0.0432  0.1123
21250SOL    HW170865   4.777   2.174   3.007  0.3735 -0.2831  1.8631
21250SOL    HW270866   4.772   2.039   3.076  0.8711 -2.4158 -1.9822
21251SOL     OW70867  11.910   9.150   5.655  0.0057  0.4529 -0.0780
21251SOL    HW170868  11.976   9.134   5.722  0.2178  0.9583 -0.1627
21251SOL    HW270869  11.956   9.196   5.585 -0.3215  0.3687 -0.3550
21252SOL     OW70870   2.522   1.528   4.827 -0.2430 -0.0696 -0.4668
21252SOL    HW170871   2.511   1.520   4.732 -1.2192  1.6650 -0.5411
21252SOL    HW270872   2.581   1.603   4.837  0.1566 -0.4826  0.2900
21253SOL     OW70873   9.891   4.761   6.610  0.1115 -0.4032 -0.1222
21253SOL    HW170874   9.914   4.852   6.592  0.6909 -0.8607 -1.9552
21253SOL    HW270875   9.875   4.723   6.523 -1.1526 -1.7954  0.6745
21254SOL     OW70876   7.940  12.517   0.672 -0.2113 -0.2848  0.3710
21254SOL    HW170877   7.944  12.426   0.643 -1.1773  0.0817 -1.0083
21254SOL    HW270878   7.949  12.568   0.592 -2.3693  0.7987  0.7518
21255SOL     OW70879   5.649   2.335   7.450  0.4879 -0.1619  0.1997
21255SOL    HW170880   5.557   2.361   7.445 -0.4027 -2.9451  0.0595
21255SOL    HW270881   5.697   2.405   7.406 -1.9502 -0.1925 -2.8145
21256SOL     OW70882   4.112  12.318   7.728  0.3300  0.1358  0.1918
21256SOL    HW170883   4.046  12.293   7.793  1.2771 -0.8146  0.8079
21256SOL    HW270884   4.067  12.308   7.644 -0.3465 -0.3912  0.6095
21257SOL     OW70885   3.857   3.341   3.520 -0.0017  0.0158  0.7990
21257SOL    HW170886   3.815   3.366   3.437  0.5805 -1.8833 -0.1249
21257SOL    HW270887   3.785   3.331   3.582 -0.8190 -1.5736 -0.3253
21258SOL     OW70888   8.593   3.607  10.781 -0.2167 -0.0537 -0.3185
21258SOL    HW170889   8.606   3.587  10.688 -0.1289 -0.5011 -0.2122
21258SOL    HW270890   8.512   3.657  10.784 -0.0651  0.2205 -0.6683
21259SOL     OW70891   4.963   7.309   4.918 -0.3808 -0.0734  0.1526
21259SOL    HW170892   4.986   7.231   4.969  1.8680 -0.2210 -0.9883
21259SOL    HW270893   4.909   7.276   4.847 -0.3556 -0.4194  0.2920
21260SOL     OW70894   5.085   5.634   2.083 -0.2093 -0.1761  0.3329
21260SOL    HW170895   5.067   5.560   2.140  1.8818 -1.8777 -1.0751
21260SOL    HW270896   5.179   5.651   2.093 -0.1226  0.5563 -1.3301
21261SOL     OW70897   4.721   3.323  12.459  0.0703 -0.3924  0.1377
21261SOL    HW170898   4.756   3.324  12.548  2.0234  0.7558 -0.5838
21261SOL    HW270899   4.768   3.251  12.416  1.9791  1.4185 -0.9553
21262SOL     OW70900   5.092  10.626   1.038  0.3559  0.6618 -0.6405
21262SOL    HW170901   5.145  10.552   1.008  1.1343  0.7036  0.5491
21262SOL    HW270902   5.155  10.685   1.080 -0.5203  1.1058  0.0889
21263SOL     OW70903  11.555   2.581   2.299 -0.3029  0.9375  0.1881
21263SOL    HW170904  11.461   2.571   2.310 -0.5007  3.6846  2.1571
21263SOL    HW270905  11.593   2.547   2.379  0.4199 -0.0917 -0.5639
21264SOL     OW70906   2.397   0.374   0.003 -0.1219  0.4830 -0.3489
21264SOL    HW170907   2.453   0.413  -0.064  1.3703 -1.7592 -0.5471
21264SOL    HW270908   2.440   0.395   0.086 -1.1287  1.9629 -0.1726
21265SOL     OW70909  12.930   3.247  12.505 -0.1801  0.2530  0.1850
21265SOL    HW170910  12.863   3.258  12.438 -0.5089  0.8900  0.6146
21265SOL    HW270911  12.893   3.286  12.584  0.2113 -0.4553  0.7403
21266SOL     OW70912  11.962   4.311   1.928 -0.3339  0.3486  0.3024
21266SOL    HW170913  12.040   4.307   1.984 -0.1091 -0.2321 -0.0440
21266SOL    HW270914  11.918   4.392   1.954 -0.1943  0.1292  1.2735
21267SOL     OW70915   3.753   9.014   1.524  0.1198 -0.1099 -0.1079
21267SOL    HW170916   3.779   8.970   1.443 -1.4966  0.4204 -0.9634
21267SOL    HW270917   3.790   8.960   1.593  2.0780 -0.2433 -1.1829
21268SOL     OW70918   1.329   1.911   9.761 -0.4981 -0.0991  0.2275
21268SOL    HW170919   1.351   1.827   9.722 -1.9013 -0.2413 -0.3263
21268SOL    HW270920   1.400   1.969   9.734  0.3650 -1.0327  0.4215
21269SOL     OW70921   7.100   0.609  10.538 -0.2161 -0.4350 -0.5973
21269SOL    HW170922   7.156   0.567  10.603 -2.0977  0.7334  1.9743
21269SOL    HW270923   7.160   0.638  10.469  1.7165 -2.8467 -0.0642
21270SOL     OW70924   1.662  11.595   1.036 -0.2000 -0.4122  0.3090
21270SOL    HW170925   1.666  11.531   1.108  0.2980  0.9832  1.5855
21270SOL    HW270926   1.569  11.602   1.015 -0.2409 -1.7203 -0.0346
21271SOL     OW70927   4.088   5.055   0.725  0.1411  0.3818 -0.0409
21271SOL    HW170928   4.132   4.996   0.663  0.2142 -0.1423  0.5002
21271SOL    HW270929   4.160   5.098   0.772  0.1085  1.4911 -0.9475
21272SOL     OW70930   1.812   4.778   8.474 -0.2148  0.3932  0.6145
21272SOL    HW170931   1.726   4.736   8.481 -0.4452  0.5861 -0.7649
21272SOL    HW270932   1.871   4.709   8.445 -0.2259  0.6014  0.0813
21273SOL     OW70933   3.968   1.292   8.019  0.3424 -0.4729  0.2007
21273SOL    HW170934   4.060   1.268   8.027 -0.0043 -1.7561  0.4512
21273SOL    HW270935   3.955   1.307   7.926  0.6769 -0.8156  0.0960
21274SOL     OW70936   6.273   1.206   4.515  0.0705 -0.6375 -0.5818
21274SOL    HW170937   6.192   1.222   4.563  0.0193 -1.0680 -0.5229
21274SOL    HW270938   6.317   1.136   4.563  0.0751 -0.9940 -1.0889
21275SOL     OW70939   6.326   7.254   5.228  0.2921 -0.2690 -0.0677
21275SOL    HW170940   6.361   7.279   5.313 -0.5735 -0.6327  0.4112
21275SOL    HW270941   6.278   7.331   5.198 -0.9467 -0.7177  0.6378
21276SOL     OW70942   6.130   1.359   0.186  0.7278 -0.2412  0.5149
21276SOL    HW170943   6.213   1.404   0.170  0.5430 -0.4350 -1.2241
21276SOL    HW270944   6.082   1.417   0.245 -0.1362  2.7743 -2.8277
21277SOL     OW70945   7.743   0.526  12.141  0.1807  0.3537  0.5923
21277SOL    HW170946   7.659   0.482  12.125 -0.6997  2.0668  0.2084
21277SOL    HW270947   7.747   0.535  12.237 -1.5050  2.7110  0.5519
21278SOL     OW70948   4.030  10.776   2.266  0.3245  0.6897  0.5617
21278SOL    HW170949   4.016  10.782   2.171  2.9170  1.2237  0.1364
21278SOL    HW270950   3.963  10.716   2.296  0.1357 -0.4010 -1.8005
21279SOL     OW70951   0.572   2.073   1.557  0.2510 -0.2098  0.3079
21279SOL    HW170952   0.527   2.158   1.556  0.9405  0.1832  1.1661
21279SOL    HW270953   0.568   2.046   1.649  2.1150  0.0324  0.4864
21280SOL     OW70954   6.153   1.470   2.497  0.2276  1.1369  0.2095
21280SOL    HW170955   6.094   1.545   2.485  0.4085  1.1779 -0.4126
21280SOL    HW270956   6.227   1.505   2.546 -0.0945  1.1641  0.6889
21281SOL     OW70957   6.780   6.712   4.728  0.6010  0.5264 -0.2237
21281SOL    HW170958   6.770   6.618   4.745  3.2847  0.0190 -0.9507
21281SOL    HW270959   6.750   6.724   4.638 -0.0988  0.4732 -0.0074
21282SOL     OW70960   6.405  12.652   9.839 -0.5705  0.4640 -0.0948
21282SOL    HW170961   6.396  12.747   9.849  1.0621  0.4756  2.0601
21282SOL    HW270962   6.500  12.637   9.839 -0.8087 -1.1885 -0.1109
21283SOL     OW70963   5.890   1.489  11.089  0.0098  0.7093  0.0983
21283SOL    HW170964   5.954   1.424  11.060 -0.8140  0.0214 -0.2312
21283SOL    HW270965   5.942   1.564  11.116  0.9100  0.6081 -1.2547
21284SOL     OW70966   9.731  12.463  10.146  0.2425 -0.1558  0.4329
21284SOL    HW170967   9.735  12.468  10.051  1.0476 -0.1266  0.4558
21284SOL    HW270968   9.793  12.530  10.176 -0.9280  0.7016  1.0028
21285SOL     OW70969   8.339  12.147   3.753 -0.0995 -0.0900  0.6505
21285SOL    HW170970   8.275  12.192   3.698  1.8792  0.9068 -1.0066
21285SOL    HW270971   8.295  12.067   3.783 -1.8977  0.2972 -0.8435
21286SOL     OW70972  11.007   9.068   1.382 -0.1956 -0.5868  0.1153
21286SOL    HW170973  11.035   8.983   1.417  0.3127 -0.1191  0.8680
21286SOL    HW270974  10.931   9.092   1.435  1.3953  0.7753  1.9588
21287SOL     OW70975   8.865  11.993   0.079  0.1796  0.6127  0.3197
21287SOL    HW170976   8.844  11.936   0.005 -0.7632 -0.1957  1.1771
21287SOL    HW270977   8.960  12.002   0.076  0.3019 -0.6841 -0.0585
21288SOL     OW70978   2.237   6.338   9.358 -0.2009  0.0051  0.3755
21288SOL    HW170979   2.262   6.398   9.287 -0.2615  1.5709  1.6084
21288SOL    HW270980   2.170   6.386   9.407 -0.4108 -1.1852  1.2864
21289SOL     OW70981  10.287   9.090   6.197 -0.0348  0.0536 -0.2655
21289SOL    HW170982  10.341   9.013   6.211 -2.1369 -1.3778  0.4627
21289SOL    HW270983  10.281   9.132   6.283 -1.5448 -0.8594  0.1100
21290SOL     OW70984   4.047   2.231   7.461  0.1966 -0.5240 -0.0310
21290SOL    HW170985   4.038   2.312   7.511  1.8941 -0.7842  0.7712
21290SOL    HW270986   4.039   2.258   7.370  3.5628  1.1206  0.0091
21291SOL     OW70987  10.139   2.768   5.430 -0.2277 -0.1035 -0.4320
21291SOL    HW170988  10.080   2.698   5.457  0.4591 -0.1901  0.9000
21291SOL    HW270989  10.120   2.781   5.337 -0.5870 -1.8370 -0.6278
21292SOL     OW70990   8.483   5.172   5.562  0.5717 -0.2687 -0.2687
21292SOL    HW170991   8.506   5.103   5.500 -0.1446  0.3592 -1.2516
21292SOL    HW270992   8.516   5.140   5.647 -0.1351 -2.0103 -0.6125
21293SOL     OW70993   4.178   6.327   3.152 -0.1627  0.4874 -0.6969
21293SOL    HW170994   4.088   6.320   3.120 -0.2478  0.0338 -0.3628
21293SOL    HW270995   4.228   6.355   3.075  0.0672 -2.9415 -1.9857
21294SOL     OW70996   5.151   4.640   2.324  0.5184 -0.2314  0.1690
21294SOL    HW170997   5.226   4.697   2.337  0.0264  0.5239 -0.2260
21294SOL    HW270998   5.189   4.554   2.306  1.2943  0.2018 -0.3097
21295SOL     OW70999  11.685  10.236   6.213 -0.3158 -0.1328 -0.8119
21295SOL    HW171000  11.600  10.226   6.255 -0.0040 -1.4391 -0.4497
21295SOL    HW271001  11.714  10.324   6.239 -1.9457  0.7274 -1.7317
21296SOL     OW71002   0.863   4.588  12.160  0.1145 -0.3378  0.2904
21296SOL    HW171003   0.942   4.565  12.110  0.8691 -0.6376  1.5842
21296SOL    HW271004   0.873   4.542  12.243 -0.7586  0.7652  1.0254
21297SOL     OW71005   4.541   4.854   4.517  0.0941  0.2588 -0.1052
21297SOL    HW171006   4.620   4.807   4.489 -0.5247 -0.2955 -0.9622
21297SOL    HW271007   4.471   4.789   4.514 -0.0836  0.1776  2.6431
21298SOL     OW71008   7.036   2.112   7.333  0.2418  0.5596  0.3231
21298SOL    HW171009   7.113   2.139   7.384 -1.1522 -0.3570  3.0759
21298SOL    HW271010   6.972   2.084   7.398 -0.5867 -3.7901 -1.9970
21299SOL     OW71011   2.532  11.526   7.086 -0.8443 -0.0000 -0.4041
21299SOL    HW171012   2.525  11.520   6.990  0.3970 -3.8888 -0.4505
21299SOL    HW271013   2.600  11.461   7.108 -0.2790  1.5761  3.0677
21300SOL     OW71014   0.034   2.323   0.585  0.2709 -0.1280  0.1019
21300SOL    HW171015   0.086   2.324   0.665 -0.1653  0.5235  0.3866
21300SOL    HW271016  -0.056   2.333   0.615  0.1564  0.8508 -0.5010
21301SOL     OW71017   7.500   8.690   2.797  0.0676 -0.1625  0.2697
21301SOL    HW171018   7.493   8.608   2.845 -1.2929 -0.1408  0.1239
21301SOL    HW271019   7.583   8.728   2.829  0.5889 -1.4450  0.5174
21302SOL     OW71020   7.529   4.843   5.224 -0.5029  0.3198 -0.1605
21302SOL    HW171021   7.510   4.753   5.198 -0.3972  0.0008  0.8268
21302SOL    HW271022   7.547   4.888   5.142 -2.4180 -0.0947 -0.8611
21303SOL     OW71023   8.593  11.915   1.217 -0.4744  0.0717 -0.0413
21303SOL    HW171024   8.567  11.878   1.301  1.0419  0.2305  0.5405
21303SOL    HW271025   8.641  11.995   1.240  2.3265 -1.2337 -0.7954
21304SOL     OW71026   1.826   1.186   7.479 -0.5513 -0.0618 -0.1163
21304SOL    HW171027   1.884   1.242   7.428  2.2893 -1.4641  1.3902
21304SOL    HW271028   1.864   1.099   7.474 -3.1499 -1.3129  0.1203
21305SOL     OW71029  12.484   4.885   0.499  0.4363 -0.3480  0.5808
21305SOL    HW171030  12.476   4.809   0.440  0.6634 -1.3088  1.7570
21305SOL    HW271031  12.578   4.895   0.512  0.4528  0.6144 -0.1352
21306SOL     OW71032   6.391  10.728   8.946  0.0301 -0.2477  0.8318
21306SOL    HW171033   6.466  10.769   8.904 -0.3280  0.1467  0.5600
21306SOL    HW271034   6.316  10.782   8.920 -0.0752  0.7322  2.9164
21307SOL     OW71035   7.730   5.001   5.397  0.0096 -0.1144  0.3064
21307SOL    HW171036   7.789   5.018   5.323 -0.5804 -0.0072 -0.1461
21307SOL    HW271037   7.678   4.925   5.369 -1.6466  1.1721 -0.2701
21308SOL     OW71038   3.717   2.301  12.120 -0.3846  0.4079 -0.1283
21308SOL    HW171039   3.794   2.251  12.149 -0.7969 -1.1678 -1.5575
21308SOL    HW271040   3.681   2.339  12.200  0.6287 -0.6586  0.8722
21309SOL     OW71041  10.432   1.094   0.806  0.5590  0.1843  0.3145
21309SOL    HW171042  10.411   1.008   0.842 -0.6880  0.3552  0.0299
21309SOL    HW271043  10.500   1.128   0.864  1.1245 -1.0159  0.3841
21310SOL     OW71044   2.559  12.387   6.959 -0.6510 -0.1326  0.7465
21310SOL    HW171045   2.505  12.394   7.037  0.5805 -3.0121  2.0098
21310SOL    HW271046   2.649  12.384   6.992  0.0160  0.0283 -0.9209
21311SOL     OW71047   9.528   8.322  11.872  0.0059 -0.1720  0.3501
21311SOL    HW171048   9.558   8.413  11.876  0.2112 -0.1681 -0.8574
21311SOL    HW271049   9.519   8.296  11.964 -0.7638  1.2991  0.7312
21312SOL     OW71050   8.159  12.329   6.067  0.2200 -0.7912  0.1228
21312SOL    HW171051   8.181  12.292   6.153 -0.5375 -0.5734  0.4143
21312SOL    HW271052   8.182  12.422   6.074 -0.6550 -0.5883  0.3872
21313SOL     OW71053   3.404   3.706   1.143 -0.0944 -0.3846  0.0544
21313SOL    HW171054   3.423   3.703   1.236 -0.2417 -0.8954  0.0731
21313SOL    HW271055   3.487   3.688   1.100 -0.0625 -0.3269  0.0934
21314SOL     OW71056   9.963   1.176   5.448 -0.1285 -0.0466  0.5970
21314SOL    HW171057   9.924   1.201   5.364  0.2483 -0.4264  0.3053
21314SOL    HW271058   9.908   1.220   5.513  0.5730  1.6551  0.1133
21315SOL     OW71059   7.186  10.048   7.441 -0.1432 -0.0947 -0.6007
21315SOL    HW171060   7.201  10.119   7.503 -0.1014  0.5354 -1.3142
21315SOL    HW271061   7.106  10.074   7.394  1.3472  0.8896 -2.7703
21316SOL     OW71062   0.099   1.139   5.897  0.0627 -0.2749  0.3466
21316SOL    HW171063   0.132   1.053   5.924 -0.8890 -1.1266 -1.0909
21316SOL    HW271064   0.062   1.125   5.810  1.5112  1.9936 -0.7375
21317SOL     OW71065   8.506  12.520  10.060  0.4144 -0.2401 -0.0200
21317SOL    HW171066   8.495  12.602  10.010  1.0600 -0.5003 -0.6050
21317SOL    HW271067   8.417  12.485  10.068  0.3081 -0.2655 -1.1320
21318SOL     OW71068   9.577   9.560   4.522 -0.5798 -0.4320  0.1233
21318SOL    HW171069   9.545   9.473   4.496  1.0918 -1.1688  0.4444
21318SOL    HW271070   9.543   9.618   4.454 -2.4914 -1.1554  0.3846
21319SOL     OW71071   2.486   4.414   9.334  0.5154 -0.0754 -0.3392
21319SOL    HW171072   2.406   4.362   9.333  0.0296  0.6739 -0.6704
21319SOL    HW271073   2.543   4.373   9.269  0.5641 -0.8390  0.1662
21320SOL     OW71074  12.725  11.731   4.675 -0.0930 -0.3776  0.5872
21320SOL    HW171075  12.681  11.736   4.760 -0.9146 -0.2728  0.1669
21320SOL    HW271076  12.781  11.654   4.682  0.1005 -0.1772  1.3430
21321SOL     OW71077  10.462   0.516   8.171 -0.7072  0.5256  0.0081
21321SOL    HW171078  10.553   0.502   8.196 -0.8005  0.0837  0.1211
21321SOL    HW271079  10.450   0.611   8.175 -0.1142  0.6228 -0.5227
21322SOL     OW71080   4.249   7.122   7.011 -0.3413 -0.3460  0.1117
21322SOL    HW171081   4.326   7.129   7.067 -0.2764 -0.4076  0.0299
21322SOL    HW271082   4.204   7.205   7.023 -0.7828 -0.6851  0.9250
21323SOL     OW71083   7.445  11.880   9.204  0.3291 -0.0182  0.0616
21323SOL    HW171084   7.476  11.796   9.172  1.9708  0.2193  0.9309
21323SOL    HW271085   7.493  11.894   9.286 -1.5454  0.7552  1.0743
21324SOL     OW71086   7.840  11.292  12.420 -0.1020 -0.3569 -0.3144
21324SOL    HW171087   7.825  11.198  12.418 -0.0266 -0.3754 -0.0739
21324SOL    HW271088   7.917  11.306  12.365 -0.0277 -0.4522 -0.2332
21325SOL     OW71089   6.041  11.204  12.616 -0.5984 -0.1420 -0.2357
21325SOL    HW171090   6.127  11.193  12.577  0.3969  2.1411  1.0921
21325SOL    HW271091   6.000  11.274  12.565 -1.1805 -0.3706 -0.0919
21326SOL     OW71092  10.778   6.493   6.858  0.4272 -0.0721 -0.0290
21326SOL    HW171093  10.689   6.479   6.826  1.4608 -1.8556 -2.3986
21326SOL    HW271094  10.820   6.407   6.850  2.8063  1.0504 -0.4759
21327SOL     OW71095  11.075   3.688  10.695  0.3965  0.7766  0.1226
21327SOL    HW171096  11.156   3.739  10.700  0.0511  1.6710 -2.3455
21327SOL    HW271097  11.102   3.599  10.719  2.3818  0.8175 -1.6466
21328SOL     OW71098   3.453   2.819   4.278  0.2680  0.3503  0.0222
21328SOL    HW171099   3.544   2.841   4.295  0.4374 -1.0029  0.9736
21328SOL    HW271100   3.456   2.761   4.201  0.5269 -1.8924  1.6301
21329SOL     OW71101  11.401   3.710  10.320  0.3843 -0.3324  0.2271
21329SOL    HW171102  11.319   3.668  10.294  0.7498 -1.7353  1.2056
21329SOL    HW271103  11.397   3.797  10.280 -1.4532 -0.4558  0.0338
21330SOL     OW71104   1.811   2.927  11.108  0.3034 -0.7552  0.1962
21330SOL    HW171105   1.893   2.899  11.149  0.9158  1.3514  0.5346
21330SOL    HW271106   1.781   2.850  11.059  3.7326 -0.9635 -1.9428
21331SOL     OW71107   0.095  12.526  11.948  0.0030 -0.3393  0.1512
21331SOL    HW171108   0.054  12.440  11.956  0.2395 -0.7802 -2.3583
21331SOL    HW271109   0.026  12.588  11.969 -0.4840 -1.1256  0.9213
21332SOL     OW71110   3.615   1.132   8.803 -0.4245  0.2215  0.2330
21332SOL    HW171111   3.667   1.135   8.883 -0.5929  1.8022  0.3224
21332SOL    HW271112   3.558   1.209   8.808  2.1144  2.6142 -3.0410
21333SOL     OW71113  12.145   4.523  12.747  0.2087  0.2073  0.4705
21333SOL    HW171114  12.222   4.467  12.733  1.3188  1.2919  1.9517
21333SOL    HW271115  12.121   4.509  12.838 -1.3728 -0.0897  0.0407
21334SOL     OW71116   2.879   3.244   9.240 -0.2382  0.1981  0.0762
21334SOL    HW171117   2.813   3.299   9.199 -1.3123 -0.0918  1.3564
21334SOL    HW271118   2.939   3.306   9.282 -1.4615  0.4261  1.5423
21335SOL     OW71119   0.285   9.221   4.684 -0.6841  0.2882 -0.4468
21335SOL    HW171120   0.270   9.266   4.767 -2.7676 -0.2689 -0.4779
21335SOL    HW271121   0.295   9.292   4.620  2.4536  0.7663  0.4086
21336SOL     OW71122  10.233  11.570   4.938 -0.3179  0.2817 -0.0718
21336SOL    HW171123  10.157  11.593   4.885 -0.2357  2.9356  0.8137
21336SOL    HW271124  10.308  11.594   4.884 -0.0298 -1.8390 -0.7270
21337SOL     OW71125   0.546   4.089   4.590 -0.0971  0.0747 -0.4742
21337SOL    HW171126   0.492   4.153   4.636 -2.3868 -2.4592  0.6292
21337SOL    HW271127   0.620   4.074   4.649  1.4798  2.8413 -1.5474
21338SOL     OW71128  11.943  10.464  12.014 -0.3987  0.6124 -0.2133
21338SOL    HW171129  11.938  10.505  11.928 -0.1555 -1.1975 -1.1354
21338SOL    HW271130  11.866  10.497  12.061 -0.6075  1.5152 -1.1557
21339SOL     OW71131  10.257   0.839  12.658 -0.5944 -0.3788 -0.2270
21339SOL    HW171132  10.170   0.864  12.690 -0.2002  2.0492 -0.7850
21339SOL    HW271133  10.240   0.779  12.585 -1.8000 -0.0748 -0.2079
21340SOL     OW71134   2.529   7.275   9.451 -0.0912  0.3499 -0.2331
21340SOL    HW171135   2.445   7.242   9.482  0.9475 -3.0113 -0.5899
21340SOL    HW271136   2.584   7.279   9.529  0.1049  0.2301 -0.3659
21341SOL     OW71137   0.824   4.110   4.344 -0.0354 -0.0423  0.2340
21341SOL    HW171138   0.813   4.143   4.433  0.3106 -1.1079  0.6885
21341SOL    HW271139   0.857   4.021   4.356  1.4772  0.3172 -0.9699
21342SOL     OW71140   1.062   0.863   6.800  0.2637  0.1181 -0.3126
21342SOL    HW171141   1.046   0.860   6.894 -2.2999 -0.7226 -0.7089
21342SOL    HW271142   1.049   0.773   6.769 -2.2335  0.9056 -1.8666
21343SOL     OW71143   0.975  11.935  10.314  0.6249  0.3983  0.1319
21343SOL    HW171144   0.959  11.870  10.245  1.1148 -0.0957  0.4784
21343SOL    HW271145   0.922  11.904  10.388  2.1142 -0.5381  0.8515
21344SOL     OW71146  11.443  11.933   3.912 -0.5070 -0.0375  0.1272
21344SOL    HW171147  11.462  11.971   3.826 -2.3758 -0.5955 -0.5923
21344SOL    HW271148  11.453  12.005   3.974 -1.9646  1.1592 -0.9535
21345SOL     OW71149   0.864   0.734   4.357  0.1235 -0.1125 -0.1956
21345SOL    HW171150   0.834   0.764   4.270 -2.1292  1.8798  1.1368
21345SOL    HW271151   0.791   0.754   4.415  0.5392 -3.6830  1.8295
21346SOL     OW71152  11.950   4.753  11.440 -0.4252 -0.1230 -0.3412
21346SOL    HW171153  11.856   4.773  11.441 -0.5847 -0.8446  0.3776
21346SOL    HW271154  11.980   4.771  11.529 -0.3292 -1.8388 -0.0000
21347SOL     OW71155   8.342   0.039  12.042 -0.1795  0.5730 -0.2898
21347SOL    HW171156   8.328   0.006  11.953  1.1987  0.2084 -0.3976
21347SOL    HW271157   8.435   0.022  12.059 -0.8397 -1.2305  1.9876
21348SOL     OW71158   1.338   6.788   9.939  0.4161 -0.2891  0.1809
21348SOL    HW171159   1.390   6.784   9.859 -0.0323 -0.9470 -0.0853
21348SOL    HW271160   1.347   6.701   9.977 -2.9910 -1.5402 -1.4755
21349SOL     OW71161  11.617   9.794   3.552 -0.8836 -0.1925 -0.1728
21349SOL    HW171162  11.672   9.782   3.474 -0.4129 -2.4119  0.4404
21349SOL    HW271163  11.667   9.852   3.609 -1.4760  1.9268 -1.6793
21350SOL     OW71164   4.988   0.980  10.384 -0.0194 -0.0362  0.0054
21350SOL    HW171165   5.065   1.013  10.430  0.6800  1.0548 -1.8427
21350SOL    HW271166   4.965   0.899  10.431  1.3459  0.3870  1.4897
21351SOL     OW71167   3.565   8.441   0.326  0.1485 -0.5975  0.5328
21351SOL    HW171168   3.543   8.421   0.417  1.7542 -1.3161  0.7959
21351SOL    HW271169   3.660   8.432   0.322  0.6419  3.3407 -0.2855
21352SOL     OW71170   0.597  12.776   0.671  0.3755  0.7058  0.3641
21352SOL    HW171171   0.541  12.698   0.676  0.5744  0.6216  1.7392
21352SOL    HW271172   0.539  12.848   0.698  0.1282  1.1023 -1.1200
21353SOL     OW71173   5.563  12.423   2.224  0.0278  0.3095  0.3587
21353SOL    HW171174   5.625  12.356   2.252  0.8388  0.6338 -0.6141
21353SOL    HW271175   5.609  12.506   2.236 -0.4677  0.6027  0.2754
21354SOL     OW71176   1.220   8.148   0.937  0.0496 -0.1457  0.2147
21354SOL    HW171177   1.290   8.174   0.996  0.0990 -1.3423  0.7107
21354SOL    HW271178   1.257   8.159   0.849  1.5880 -2.5869  0.4891
21355SOL     OW71179   2.104   6.954   7.031 -0.5203  0.4732  0.0848
21355SOL    HW171180   2.127   6.951   6.938 -1.6126 -1.0605 -0.1754
21355SOL    HW271181   2.083   7.046   7.047 -2.3447  0.4473 -1.7420
21356SOL     OW71182   7.015   0.070  10.688 -0.3692 -0.3030  0.5749
21356SOL    HW171183   6.925   0.084  10.718  0.2393  3.1545  1.1675
21356SOL    HW271184   7.065   0.058  10.768  0.0433  0.3014  0.4119
21357SOL     OW71185   7.766  11.961   3.933  0.2372 -0.1944 -0.0842
21357SOL    HW171186   7.806  11.881   3.900  1.7730  0.8053 -0.7757
21357SOL    HW271187   7.779  11.957   4.028  0.7060 -0.5474 -0.1627
21358SOL     OW71188   8.474   7.360   6.844  0.0262 -0.4442 -0.2992
21358SOL    HW171189   8.508   7.302   6.912  0.8904  0.6230  0.2223
21358SOL    HW271190   8.551   7.411   6.816 -0.7868  0.8013 -0.3560
21359SOL     OW71191   3.727  12.372   1.125  0.8470  0.2468 -0.6552
21359SOL    HW171192   3.685  12.457   1.112 -0.9130 -0.6013 -0.7065
21359SOL    HW271193   3.760  12.348   1.038  1.6222  0.9775 -0.5839
21360SOL     OW71194   3.794   6.042   2.375  0.1402  0.1619 -0.4542
21360SOL    HW171195   3.796   6.076   2.285  0.1030 -0.3237 -0.6394
21360SOL    HW271196   3.722   6.090   2.417 -0.6902 -0.5299 -1.0555
21361SOL     OW71197   5.215   3.966   0.998 -0.1657  0.3011 -0.1232
21361SOL    HW171198   5.241   3.886   0.952  0.1951  0.1753  0.2917
21361SOL    HW271199   5.286   3.981   1.061 -0.9957  0.0747  0.8871
21362SOL     OW71200   9.512   0.577   9.223  0.6544 -0.3618  0.2604
21362SOL    HW171201   9.602   0.544   9.217 -0.0700 -2.5215  0.4345
21362SOL    HW271202   9.492   0.605   9.134  1.1059 -1.0270 -0.0634
21363SOL     OW71203   5.158   8.721   3.353 -0.2316 -0.4675  0.2463
21363SOL    HW171204   5.229   8.658   3.341 -0.9849 -1.2635 -0.2179
21363SOL    HW271205   5.173   8.758   3.440 -1.1544 -3.1551  1.6623
21364SOL     OW71206   6.934   2.831  11.815  0.6136  0.0410  0.9771
21364SOL    HW171207   7.000   2.889  11.853  0.8132 -0.9952  2.2884
21364SOL    HW271208   6.970   2.743  11.824  0.4922 -0.3243 -1.3299
21365SOL     OW71209  10.157   0.585   2.985 -0.4258  0.3464  0.0015
21365SOL    HW171210  10.182   0.673   3.014 -2.2861  0.2981  1.9314
21365SOL    HW271211  10.062   0.590   2.973 -0.4825 -1.2643 -0.3848
21366SOL     OW71212   6.331   0.785   4.068 -0.6550 -0.0678  0.0683
21366SOL    HW171213   6.375   0.856   4.114  2.4612 -1.2918 -0.7199
21366SOL    HW271214   6.254   0.766   4.121 -0.3489  2.3363  1.5309
21367SOL     OW71215   7.910   8.642  10.861  0.2709 -0.0867  0.4006
21367SOL    HW171216   7.881   8.733  10.849  0.7213 -0.0411 -0.4341
21367SOL    HW271217   8.000   8.642  10.828  0.1095 -0.9485 -0.0495
21368SOL     OW71218   2.415   1.143   2.505  0.0322  0.4651  0.1366
21368SOL    HW171219   2.467   1.063   2.514  0.7072  0.9728  0.9033
21368SOL    HW271220   2.324   1.114   2.511  0.2441 -0.3165 -0.2727
21369SOL     OW71221   2.309   3.895   6.450 -0.1951  0.0941  0.5786
21369SOL    HW171222   2.347   3.885   6.362  0.5745  0.2897  0.8850
21369SOL    HW271223   2.377   3.939   6.501 -1.2901  1.5485  0.8248
21370SOL     OW71224   0.781   4.036   1.331  0.2236  0.1015 -0.2487
21370SOL    HW171225   0.733   3.969   1.283  0.0706  1.8926 -2.7565
21370SOL    HW271226   0.713   4.094   1.366  0.4326  0.3338 -0.2227
21371SOL     OW71227   1.548   3.138   3.019 -0.2663 -0.2582  0.7530
21371SOL    HW171228   1.536   3.051   2.982 -2.3171  0.6302 -0.8998
21371SOL    HW271229   1.462   3.163   3.052 -0.2588  1.8615 -0.6024
21372SOL     OW71230   1.750  10.060  10.423 -0.0695  0.4383 -0.1190
21372SOL    HW171231   1.780   9.982  10.375  0.1728  0.4491  0.0130
21372SOL    HW271232   1.740  10.127  10.356 -2.1958 -0.2268 -0.5621
21373SOL     OW71233   6.672   1.319   6.907 -0.1401 -0.6491  0.2872
21373SOL    HW171234   6.755   1.351   6.872 -1.1545  0.2866 -1.4172
21373SOL    HW271235   6.657   1.372   6.985  1.1264 -1.2324  0.9415
21374SOL     OW71236   4.019  12.599   3.919  1.0012 -0.2193  0.3394
21374SOL    HW171237   4.011  12.685   3.878  1.5156 -0.2254  0.2196
21374SOL    HW271238   4.038  12.617   4.011 -2.1974 -0.1724  1.1150
21375SOL     OW71239   7.223   6.698   4.489  0.0765 -0.3281 -0.0523
21375SOL    HW171240   7.156   6.694   4.557  1.4421 -3.1534  1.3405
21375SOL    HW271241   7.269   6.781   4.505 -0.9977  0.0716  1.0912
21376SOL     OW71242   3.681  12.818   9.481  0.0675  0.0656 -0.3706
21376SOL    HW171243   3.776  12.813   9.493 -0.0426 -1.0732  0.1983
21376SOL    HW271244   3.645  12.823   9.569 -0.4383 -0.5674 -0.5321
21377SOL     OW71245   6.198  11.164   1.551  0.4695 -0.4113 -0.1805
21377SOL    HW171246   6.139  11.152   1.624  1.9175 -0.4693  1.0326
21377SOL    HW271247   6.188  11.256   1.526 -0.7171 -0.6278 -0.5537
21378SOL     OW71248   6.701   8.932   2.749 -0.4470 -0.0370 -0.3603
21378SOL    HW171249   6.761   8.859   2.761 -1.4356 -0.8307 -0.1176
21378SOL    HW271250   6.667   8.921   2.660 -0.6645  0.0699 -0.2926
21379SOL     OW71251   6.358   6.046   8.727 -0.5407  0.1112 -0.2145
21379SOL    HW171252   6.416   6.014   8.658 -1.0353 -0.4419 -0.3853
21379SOL    HW271253   6.312   5.968   8.758  0.9624  0.0401  2.0193
21380SOL     OW71254   8.105  12.655  10.622 -0.1168 -0.1724 -0.5499
21380SOL    HW171255   8.128  12.732  10.569 -2.4238 -0.1473 -1.6383
21380SOL    HW271256   8.156  12.584  10.583  0.8828  0.4985 -0.5199
21381SOL     OW71257   1.258   6.839   6.628 -0.2092  0.2984 -0.5145
21381SOL    HW171258   1.250   6.932   6.609  1.2700  0.9041  1.4429
21381SOL    HW271259   1.255   6.796   6.543 -2.0799  2.0076 -1.3761
21382SOL     OW71260  10.021   0.441   0.085 -0.3416 -0.0574 -0.1714
21382SOL    HW171261  10.029   0.349   0.059  1.0204  0.2460 -0.9065
21382SOL    HW271262  10.014   0.438   0.181  2.4234 -0.8319  0.0772
21383SOL     OW71263   5.902  10.949   1.031  0.6289 -0.2274 -0.5462
21383SOL    HW171264   5.810  10.948   1.054  0.3044 -2.2139 -1.7338
21383SOL    HW271265   5.905  10.997   0.948  0.6612 -0.2149 -0.5379
21384SOL     OW71266   9.212   4.859   7.624 -0.0757  0.3638  0.0027
21384SOL    HW171267   9.294   4.812   7.643  0.4286  1.4732  0.7165
21384SOL    HW271268   9.205   4.858   7.529 -0.2370 -1.3843  0.0042
21385SOL     OW71269  10.538   2.471   6.445  0.0192 -0.2530 -0.0582
21385SOL    HW171270  10.595   2.406   6.404 -0.6987 -1.6077  1.0027
21385SOL    HW271271  10.451   2.431   6.443 -0.8478  1.5771 -1.2264
21386SOL     OW71272   2.976  12.175   8.654  0.5520  0.0059  0.1999
21386SOL    HW171273   3.014  12.118   8.721 -0.3872  0.5970  1.2835
21386SOL    HW271274   2.938  12.115   8.590  0.9231 -0.5732  0.5129
21387SOL     OW71275   3.444   5.694  10.532 -0.2820  0.3641 -0.4854
21387SOL    HW171276   3.512   5.678  10.598 -0.1677  2.7065  0.0566
21387SOL    HW271277   3.420   5.607  10.501  1.0266 -0.6952  1.2707
21388SOL     OW71278   3.660   0.904  10.124  0.0132  0.2254  0.8591
21388SOL    HW171279   3.695   0.949  10.201  0.1011 -0.0140  0.9598
21388SOL    HW271280   3.573   0.943  10.111  0.6130  1.3875  0.1424
21389SOL     OW71281   5.886   2.972   2.675  0.3296 -0.3189 -0.0644
21389SOL    HW171282   5.892   2.945   2.767  1.0326  0.4276  0.1236
21389SOL    HW271283   5.828   2.908   2.635  0.1328 -0.7442  0.8695
21390SOL     OW71284  12.165   1.275   9.360  0.3007  0.1339  0.7064
21390SOL    HW171285  12.232   1.212   9.390  0.3349 -0.2672 -0.1670
21390SOL    HW271286  12.113   1.225   9.296  0.4848  1.0571 -0.1910
21391SOL     OW71287   1.075   3.278   8.840 -0.6199 -0.3589  0.3957
21391SOL    HW171288   1.140   3.244   8.902  0.8196  0.1453 -0.7605
21391SOL    HW271289   1.035   3.352   8.885  3.3130  2.6978 -0.5425
21392SOL     OW71290   4.974   2.374   4.192 -0.7630  0.1865  0.1370
21392SOL    HW171291   5.062   2.339   4.177 -0.1258  1.6725  0.1601
21392SOL    HW271292   4.916   2.315   4.145  0.5097  0.6447 -2.1497
21393SOL     OW71293   3.032   7.269   5.110 -0.5620  0.2740 -0.9305
21393SOL    HW171294   3.118   7.255   5.069 -0.5511  1.1153 -1.2192
21393SOL    HW271295   3.002   7.182   5.134  0.0621 -0.0952 -1.4688
21394SOL     OW71296   8.264   2.470   0.169  0.1673  0.0260  0.7649
21394SOL    HW171297   8.339   2.507   0.216  3.6035 -1.4432 -2.9649
21394SOL    HW271298   8.275   2.375   0.179 -0.6452 -0.2391 -0.6183
21395SOL     OW71299   0.469   5.263  11.780 -0.5469 -0.6536  0.0616
21395SOL    HW171300   0.445   5.171  11.789 -0.9026 -0.8144 -2.0120
21395SOL    HW271301   0.386   5.308  11.765 -0.3019 -0.0986  0.3476
21396SOL     OW71302  11.482   5.860   4.410 -0.0218  0.3498  0.7008
21396SOL    HW171303  11.412   5.795   4.423 -1.4713  1.9781  1.3165
21396SOL    HW271304  11.552   5.810   4.367 -2.1664 -0.9973 -1.5290
21397SOL     OW71305   1.384   1.644   9.680  0.8064  0.2181  0.6643
21397SOL    HW171306   1.322   1.628   9.609  1.5003 -0.9071  0.2855
21397SOL    HW271307   1.362   1.580   9.747  1.2222  0.1629  0.7522
21398SOL     OW71308   5.210   6.937  10.775 -0.2150 -0.4490 -0.4475
21398SOL    HW171309   5.228   6.876  10.846 -0.3909 -1.1295 -0.9688
21398SOL    HW271310   5.224   7.023  10.813  1.7640 -0.8453 -0.1513
21399SOL     OW71311   9.591   1.051   2.436 -0.0758 -0.7096 -0.0222
21399SOL    HW171312   9.642   1.128   2.412 -1.1188 -0.4824 -1.5800
21399SOL    HW271313   9.627   0.980   2.383 -0.0333 -1.0107  0.3971
21400SOL     OW71314  12.264   4.732   6.146  0.0335 -0.3625  0.0324
21400SOL    HW171315  12.255   4.697   6.235  0.1239  2.1563  1.1269
21400SOL    HW271316  12.358   4.736   6.131  0.0371 -0.1739  0.1001
21401SOL     OW71317   5.797   5.430   2.911 -0.0938  0.5304 -0.1688
21401SOL    HW171318   5.738   5.356   2.899  0.5221  0.3657 -2.7250
21401SOL    HW271319   5.882   5.391   2.930 -0.3901  0.7309  1.8033
21402SOL     OW71320   1.524   3.451   1.454  0.3063 -0.0813 -0.1641
21402SOL    HW171321   1.517   3.405   1.537  0.2963  0.4667  0.1421
21402SOL    HW271322   1.437   3.443   1.415  0.7799 -1.8671 -0.9519
21403SOL     OW71323   1.284   1.338   1.407  0.1167  0.2942 -0.3274
21403SOL    HW171324   1.379   1.325   1.409  0.2526  1.2121 -0.0165
21403SOL    HW271325   1.252   1.292   1.484  0.1287 -1.1391 -1.1327
21404SOL     OW71326  10.230   2.418  11.747 -0.3134 -0.2041  0.3477
21404SOL    HW171327  10.166   2.391  11.681 -0.1111 -0.6045  0.3157
21404SOL    HW271328  10.201   2.375  11.827 -0.0947 -0.3752  0.3360
21405SOL     OW71329  12.250   5.346   9.529 -0.8548 -0.1297 -0.1428
21405SOL    HW171330  12.290   5.279   9.473  1.7619  1.1025  0.1398
21405SOL    HW271331  12.265   5.315   9.618 -0.9019  0.1409 -0.0398
21406SOL     OW71332  12.196   6.875  11.724  0.2905 -0.6412  0.5689
21406SOL    HW171333  12.286   6.861  11.754  0.5198  0.0500  0.2475
21406SOL    HW271334  12.154   6.922  11.796  0.8631  1.0846 -0.1753
21407SOL     OW71335   3.036  11.421   8.595  0.1246  0.0927  0.3913
21407SOL    HW171336   2.989  11.442   8.676 -3.3841 -0.3620 -1.3425
21407SOL    HW271337   3.046  11.505   8.551  0.6684  0.1347  0.5810
21408SOL     OW71338   1.577   6.604   9.432  0.4687 -0.3644  0.1188
21408SOL    HW171339   1.604   6.522   9.391  2.6884  0.6960 -0.7004
21408SOL    HW271340   1.659   6.653   9.444 -0.2779  0.2738  3.9911
21409SOL     OW71341   6.201  10.499   5.007 -0.3325  0.2558  0.1857
21409SOL    HW171342   6.283  10.450   5.000  0.2092  1.2730 -0.8920
21409SOL    HW271343   6.133  10.434   4.988  0.1905 -0.5968  1.0823
21410SOL     OW71344   0.603   6.456   7.287  0.1854 -0.0147 -0.0762
21410SOL    HW171345   0.616   6.415   7.373 -2.5504  0.9146  0.8703
21410SOL    HW271346   0.591   6.549   7.306 -1.3607  0.0798 -1.3427
21411SOL     OW71347   6.272  10.822   9.502 -0.2070 -0.3230 -0.2164
21411SOL    HW171348   6.260  10.910   9.537 -1.8875 -0.4469 -0.4187
21411SOL    HW271349   6.367  10.812   9.496  0.0932  0.6517  1.8726
21412SOL     OW71350  10.958  12.915   6.747  0.4795  0.2854  0.0135
21412SOL    HW171351  11.008  12.962   6.814 -0.0659  0.2809  0.4278
21412SOL    HW271352  10.869  12.946   6.757 -0.6514 -3.1487  2.5188
21413SOL     OW71353   6.006   6.491  10.306  0.3790 -0.1920  0.3134
21413SOL    HW171354   5.968   6.453  10.227 -0.6698  2.4425 -0.5877
21413SOL    HW271355   6.029   6.416  10.361 -0.4541 -2.0669 -1.7416
21414SOL     OW71356   4.651   2.126  11.313  0.0978  0.0175  0.6848
21414SOL    HW171357   4.719   2.157  11.253  1.4827 -0.7694  1.7951
21414SOL    HW271358   4.571   2.169  11.283  1.0265  0.7601 -0.8237
21415SOL     OW71359   6.830   3.946   8.031  0.1396 -0.2491  0.4695
21415SOL    HW171360   6.922   3.955   8.054 -0.0534  3.3207  0.5164
21415SOL    HW271361   6.830   3.923   7.938  1.1829  1.9431 -0.1342
21416SOL     OW71362   4.778   0.317   8.895 -0.0961  0.2691  0.2239
21416SOL    HW171363   4.724   0.294   8.819 -0.2298  3.0191 -0.6424
21416SOL    HW271364   4.868   0.308   8.865 -0.1326  0.1377  0.1527
21417SOL     OW71365   8.504   7.982  10.828  0.0399  0.1558  0.0783
21417SOL    HW171366   8.461   8.064  10.852 -0.0483  0.6206 -1.5448
21417SOL    HW271367   8.553   7.956  10.906 -0.8198  1.1628  0.9829
21418SOL     OW71368   7.430   8.537   6.122 -0.3707 -0.2470 -0.6801
21418SOL    HW171369   7.406   8.560   6.033 -2.5339  0.7750  0.1162
21418SOL    HW271370   7.510   8.587   6.139 -0.2733  0.0083 -1.8106
21419SOL     OW71371   3.407   1.324  10.743 -0.1156  0.0329 -0.2483
21419SOL    HW171372   3.313   1.338  10.728 -0.2119  0.1259  0.3947
21419SOL    HW271373   3.442   1.412  10.757 -0.2444 -0.1227  1.1764
21420SOL     OW71374   8.899   2.076   1.985 -0.2316  0.3999  0.0048
21420SOL    HW171375   8.875   2.087   2.077  1.1129  2.3178  0.1859
21420SOL    HW271376   8.992   2.055   1.986  0.2524  2.2820 -0.9348
21421SOL     OW71377  10.892  11.833   8.602  0.1036  0.5105  0.3644
21421SOL    HW171378  10.877  11.903   8.665  2.2489  0.2929  1.1861
21421SOL    HW271379  10.903  11.877   8.518 -1.0544  0.9262  0.4082
21422SOL     OW71380   9.971   1.036  10.637 -0.1565  0.1723 -0.3022
21422SOL    HW171381  10.013   1.095  10.574  1.4352 -0.2967  0.2624
21422SOL    HW271382   9.962   0.953  10.590  0.4182  0.0124 -0.1395
21423SOL     OW71383   7.628   3.061   9.954 -0.2026 -0.1624  0.0555
21423SOL    HW171384   7.657   3.087   9.867 -1.1712  1.5287  0.1981
21423SOL    HW271385   7.533   3.051   9.947 -0.1938 -0.8905  0.7198
21424SOL     OW71386  10.675  12.176  11.619 -0.1324 -0.1261  0.3265
21424SOL    HW171387  10.718  12.262  11.612  0.5209 -0.4729  0.0362
21424SOL    HW271388  10.742  12.119  11.656 -0.2972 -0.7126 -0.2805
21425SOL     OW71389   0.818   4.214   4.610  0.4195  0.2980 -0.2338
21425SOL    HW171390   0.781   4.183   4.693  1.2428 -2.4114 -0.8018
21425SOL    HW271391   0.899   4.259   4.635  0.0895  0.5138  0.4844
21426SOL     OW71392   4.069   2.548   1.184 -0.3001  0.6166 -0.1162
21426SOL    HW171393   4.055   2.480   1.118 -0.4153  0.9992 -0.4907
21426SOL    HW271394   4.151   2.524   1.228 -0.9879 -0.4629  0.6239
21427SOL     OW71395   4.180   7.460   2.706  0.3253  0.1803 -0.7107
21427SOL    HW171396   4.187   7.429   2.796 -1.9865  0.4036 -0.3932
21427SOL    HW271397   4.230   7.542   2.705  3.0583 -1.3716 -0.5199
21428SOL     OW71398  12.380   2.532   2.333 -0.7627 -0.3397  0.6164
21428SOL    HW171399  12.422   2.570   2.256 -1.7136 -0.2795  0.1175
21428SOL    HW271400  12.453   2.501   2.386 -0.0876 -0.3853 -0.3033
21429SOL     OW71401   4.748   5.669   6.035 -0.7008  0.1889 -0.2218
21429SOL    HW171402   4.785   5.728   6.101 -1.8826 -0.4205  1.0445
21429SOL    HW271403   4.823   5.640   5.983  0.0895  1.6911  0.0150
21430SOL     OW71404   6.878  11.034   2.515  0.1900 -0.2488  0.8287
21430SOL    HW171405   6.823  10.970   2.561  1.2108  0.1848  2.7570
21430SOL    HW271406   6.862  11.117   2.561 -1.3673  1.0536 -1.8286
21431SOL     OW71407   8.259   7.772   2.953  0.5036 -0.5823  0.5797
21431SOL    HW171408   8.303   7.757   2.870 -0.2099 -1.8683  0.4108
21431SOL    HW271409   8.288   7.701   3.010 -0.6795 -0.9792  0.7235
21432SOL     OW71410   9.697  10.996   3.050  0.1620 -0.0049 -0.5916
21432SOL    HW171411   9.753  10.992   2.972  1.0425 -2.5287  0.0666
21432SOL    HW271412   9.743  11.055   3.110  1.7928 -1.4363 -0.3565
21433SOL     OW71413  12.880   8.929  11.875  0.0413  0.5462 -0.0647
21433SOL    HW171414  12.896   9.008  11.927 -0.7776 -0.2846  1.5573
21433SOL    HW271415  12.949   8.869  11.901  1.7624  1.2427 -2.6345
21434SOL     OW71416   8.904   8.929   9.709  0.2374  0.0169  0.0702
21434SOL    HW171417   8.949   8.845   9.702  3.1652  1.1838  2.5864
21434SOL    HW271418   8.946   8.985   9.643  1.2818  0.6229  1.2251
21435SOL     OW71419   7.292  11.675   7.785  0.2266  0.0279 -0.6635
21435SOL    HW171420   7.289  11.748   7.723 -1.8737  1.2843  0.7747
21435SOL    HW271421   7.340  11.710   7.860 -0.0918 -0.3234 -0.2921
21436SOL     OW71422   5.882   6.883   1.314  0.1893 -0.1197 -0.1686
21436SOL    HW171423   5.858   6.967   1.352  0.0975 -0.6929  1.0741
21436SOL    HW271424   5.976   6.876   1.328 -0.0611 -0.9717  1.3356
21437SOL     OW71425  10.133   1.920  12.530  0.2678 -0.2419 -0.0862
21437SOL    HW171426  10.125   1.845  12.589  0.2279 -0.1345  0.0462
21437SOL    HW271427  10.061   1.979  12.555  0.0608 -0.3353 -0.4471
21438SOL     OW71428   5.992   4.316   5.085  0.2349  0.0335 -0.4028
21438SOL    HW171429   6.012   4.226   5.063 -0.4196  0.1717 -1.7062
21438SOL    HW271430   5.912   4.335   5.035 -0.8189  0.7022  1.4478
21439SOL     OW71431   7.734   3.514  12.168  0.7948  0.3719 -0.3819
21439SOL    HW171432   7.731   3.601  12.129 -0.0282 -0.0443 -1.2886
21439SOL    HW271433   7.734   3.454  12.094  0.7896 -0.4181  0.2404
21440SOL     OW71434   6.069   9.549   7.510 -0.8649 -0.7958 -0.5542
21440SOL    HW171435   6.115   9.527   7.591  0.3726 -1.2857 -1.3686
21440SOL    HW271436   6.015   9.625   7.533 -1.2979 -1.5264  0.9774
21441SOL     OW71437   9.858   9.841   3.457  0.1366  0.2135  0.1609
21441SOL    HW171438   9.932   9.783   3.434 -0.3594 -0.9642  1.4150
21441SOL    HW271439   9.826   9.872   3.372  0.5547 -1.2151 -0.5696
21442SOL     OW71440   1.495  12.892   3.305  0.0333  0.0965  0.0249
21442SOL    HW171441   1.455  12.979   3.301  0.9388  0.4650 -1.7332
21442SOL    HW271442   1.505  12.865   3.214  0.8109 -1.3688  0.5093
21443SOL     OW71443  12.094   3.160   1.021 -0.2670  1.2099  0.2439
21443SOL    HW171444  12.048   3.086   1.060  0.0568  0.5008 -0.7041
21443SOL    HW271445  12.082   3.150   0.927  1.8553  0.9550 -0.0469
21444SOL     OW71446  12.694   0.727   1.657  0.4825 -0.1383  0.2513
21444SOL    HW171447  12.688   0.802   1.598  1.2525 -0.0480  0.2883
21444SOL    HW271448  12.782   0.691   1.643  0.7343 -0.0294  1.4523
21445SOL     OW71449  11.038   7.756  11.731 -0.6761  0.1084 -0.6223
21445SOL    HW171450  11.098   7.778  11.661 -0.8982 -0.3636 -0.9679
21445SOL    HW271451  10.953   7.745  11.688 -0.7607 -0.4452 -0.3305
21446SOL     OW71452   0.288   6.400  11.302  0.0559  0.3292  0.5529
21446SOL    HW171453   0.333   6.370  11.381 -0.7228 -0.5662  0.6703
21446SOL    HW271454   0.345   6.469  11.267  1.1560 -0.2972  1.0616
21447SOL     OW71455   4.654  11.998   9.850 -0.1639 -0.1121  0.0364
21447SOL    HW171456   4.729  12.012   9.792 -0.7241  0.3775 -0.5935
21447SOL    HW271457   4.680  12.037   9.933  1.1655 -1.9721  0.5672
21448SOL     OW71458   1.516   0.951  11.296  0.1140 -0.1924  0.4208
21448SOL    HW171459   1.565   1.013  11.242  0.2651  1.0231  1.8595
21448SOL    HW271460   1.427   0.987  11.298 -0.0535 -0.6077  0.4118
21449SOL     OW71461  11.701   2.600   7.679 -0.3620  0.2394 -0.5910
21449SOL    HW171462  11.753   2.558   7.611  0.9688 -0.7587  0.9770
21449SOL    HW271463  11.613   2.564   7.669  0.6822 -2.9614  0.5906
21450SOL     OW71464   0.656   4.716   4.026 -0.0178 -0.8393 -0.2869
21450SOL    HW171465   0.723   4.667   4.076 -1.1397 -0.3859  1.7901
21450SOL    HW271466   0.578   4.711   4.081 -1.3441 -0.2384 -2.0407
21451SOL     OW71467   3.509   4.087   7.582 -0.0279  0.1649 -0.1448
21451SOL    HW171468   3.439   4.071   7.518 -2.1930  0.4792  2.0008
21451SOL    HW271469   3.468   4.069   7.667  2.7015 -0.1468  1.1966
21452SOL     OW71470   6.777   4.255   6.347  0.1257  0.2055  0.4156
21452SOL    HW171471   6.712   4.294   6.405 -1.2663 -0.8552 -0.3644
21452SOL    HW271472   6.811   4.180   6.395 -0.9726 -0.6285 -0.0739
21453SOL     OW71473  10.273   2.631   1.316  0.0291 -0.2189 -0.1342
21453SOL    HW171474  10.219   2.663   1.244  1.4733  0.9693 -0.7435
21453SOL    HW271475  10.283   2.706   1.374  1.9460 -0.0554 -0.6222
21454SOL     OW71476   5.730   8.988   0.434  0.2423  0.1151  0.8278
21454SOL    HW171477   5.694   8.916   0.381  0.8881 -0.1349  0.7249
21454SOL    HW271478   5.730   8.953   0.523  0.4008  0.0467  0.8014
21455SOL     OW71479   7.242  12.675   5.977 -0.2706 -0.0048  0.3089
21455SOL    HW171480   7.297  12.650   5.903 -0.8884  3.8478 -1.6781
21455SOL    HW271481   7.154  12.687   5.939 -1.1997 -0.3285  2.2126
21456SOL     OW71482   5.471  11.318   2.003 -0.6721 -0.3606  0.1291
21456SOL    HW171483   5.391  11.266   2.003 -0.5387 -0.6237  2.1362
21456SOL    HW271484   5.538  11.260   2.037 -0.3066  0.7763  1.4575
21457SOL     OW71485   5.829   6.205  12.414 -0.0160  1.1606 -0.2222
21457SOL    HW171486   5.764   6.267  12.448 -1.2020 -0.3898  0.4253
21457SOL    HW271487   5.838   6.229  12.322 -2.3642  0.7513 -0.6199
21458SOL     OW71488   8.513   0.695   5.305  0.0420 -0.1215 -0.1779
21458SOL    HW171489   8.594   0.736   5.336  0.3871 -0.1484 -1.0298
21458SOL    HW271490   8.542   0.615   5.261 -0.2947  0.6251 -1.8222
21459SOL     OW71491   6.001   8.139   6.948  0.1497 -0.1756  0.2597
21459SOL    HW171492   6.044   8.156   7.031  0.4767 -0.1617  0.0861
21459SOL    HW271493   5.946   8.216   6.933 -0.5355 -0.5342  0.8578
21460SOL     OW71494   5.522   7.157   2.878  0.2764 -0.1079  0.2526
21460SOL    HW171495   5.449   7.181   2.821  0.1741  1.5255  1.0295
21460SOL    HW271496   5.507   7.064   2.897 -0.1791 -0.4751 -1.6169
21461SOL     OW71497  12.795   9.834   0.702 -0.1463 -0.5305  0.3290
21461SOL    HW171498  12.890   9.852   0.704 -0.2907  0.3445  0.0648
21461SOL    HW271499  12.786   9.746   0.736  0.7705 -0.6121  0.3829
21462SOL     OW71500   4.999   3.569   5.958  0.6059 -0.5668 -0.2135
21462SOL    HW171501   4.962   3.656   5.968  2.5781  0.3716 -0.5715
21462SOL    HW271502   4.934   3.510   5.996 -0.6683  1.0634  0.2285
21463SOL     OW71503  10.998   1.701   5.584 -1.0204  0.2961 -0.3403
21463SOL    HW171504  11.008   1.762   5.511  1.4431  0.2089 -0.1694
21463SOL    HW271505  10.935   1.743   5.642 -2.0178  0.9892 -1.8627
21464SOL     OW71506  11.670   5.581   2.473 -0.0641  0.2347  1.0092
21464SOL    HW171507  11.722   5.500   2.476  0.3164  0.3136 -1.2106
21464SOL    HW271508  11.592   5.562   2.525  0.4061 -1.2704  1.2199
21465SOL     OW71509  10.435   9.658  12.263 -0.4048  0.2786  0.4664
21465SOL    HW171510  10.416   9.715  12.337 -0.9164 -1.0690  1.4198
21465SOL    HW271511  10.360   9.670  12.205 -1.3758 -0.6614  1.4742
21466SOL     OW71512  12.109  12.515   8.104  0.8414  0.1889  0.1638
21466SOL    HW171513  12.109  12.504   8.199 -0.5179  1.8886  0.4121
21466SOL    HW271514  12.199  12.537   8.082  0.8925  1.1260  1.2467
21467SOL     OW71515   0.452   2.030   5.390  0.2027 -0.1565  0.2272
21467SOL    HW171516   0.416   2.071   5.469  1.5464  0.8971  0.3475
21467SOL    HW271517   0.492   2.103   5.342  1.4242 -1.1180 -0.2669
21468SOL     OW71518  12.625   9.515   6.922  0.3693  0.3823  0.1240
21468SOL    HW171519  12.646   9.489   6.833  0.3676  1.2566 -0.1452
21468SOL    HW271520  12.686   9.465   6.977  0.1531 -0.3966 -0.3375
21469SOL     OW71521   7.756  10.393   4.959 -0.1444  0.2257 -0.4369
21469SOL    HW171522   7.836  10.378   5.009  0.2128  1.6816 -0.5154
21469SOL    HW271523   7.688  10.402   5.026  0.5292  3.4141  0.0061
21470SOL     OW71524   7.208  10.625   7.885  0.3599  0.0041 -0.2564
21470SOL    HW171525   7.227  10.563   7.956  0.4157  1.4756  1.0715
21470SOL    HW271526   7.131  10.588   7.841 -1.9939  0.7545  2.8349
21471SOL     OW71527   8.637   3.048  10.601 -0.1596  0.1572 -0.2134
21471SOL    HW171528   8.708   3.112  10.606  0.7275 -0.8927  1.1669
21471SOL    HW271529   8.652   2.988  10.674 -1.2364 -1.3508 -1.1460
21472SOL     OW71530   6.486   0.941   1.892  0.1129  0.9699 -0.1780
21472SOL    HW171531   6.577   0.942   1.862 -0.0351 -1.4562 -0.9398
21472SOL    HW271532   6.492   0.932   1.987  0.7280 -0.6855 -0.3406
21473SOL     OW71533   1.212  10.211   2.782  0.1119  0.3052  0.5480
21473SOL    HW171534   1.264  10.268   2.839 -2.9829  2.2227  1.7219
21473SOL    HW271535   1.169  10.150   2.842  0.7879 -1.0870 -0.3506
21474SOL     OW71536   9.265   0.340   0.114 -0.2032  0.3546  0.2823
21474SOL    HW171537   9.239   0.430   0.133  0.3668  1.1315 -2.2460
21474SOL    HW271538   9.314   0.345   0.032  1.8903 -1.9852  1.2385
21475SOL     OW71539  12.840   4.623  10.809 -0.3813 -0.3251  0.0783
21475SOL    HW171540  12.785   4.571  10.867  0.2931 -0.2778  0.7737
21475SOL    HW271541  12.836   4.712  10.845 -1.1362  0.0163 -0.8180
21476SOL     OW71542   6.939  12.434   2.582  0.2185 -0.0618  0.4322
21476SOL    HW171543   6.907  12.517   2.545 -0.4195 -0.7692 -0.6417
21476SOL    HW271544   6.886  12.367   2.539  1.3287 -1.0897  0.6388
21477SOL     OW71545   0.090  11.623   2.404  0.3440  0.7924  0.0137
21477SOL    HW171546   0.033  11.650   2.476  1.0149 -1.2787  1.4220
21477SOL    HW271547   0.177  11.618   2.443  0.7994  0.0761 -1.0443
21478SOL     OW71548   1.899   8.282  11.318  0.0527  0.0271 -0.0178
21478SOL    HW171549   1.970   8.227  11.351  1.0700  1.0699 -0.4383
21478SOL    HW271550   1.829   8.219  11.297  1.0802 -1.0925 -0.2311
21479SOL     OW71551   5.748   7.638   5.045 -0.0632 -0.7389  0.2850
21479SOL    HW171552   5.660   7.601   5.044  0.2171 -1.4800  1.1790
21479SOL    HW271553   5.739   7.724   5.006 -1.4498 -0.2530  1.5772
21480SOL     OW71554  10.608   8.727   9.683  0.0501  0.0194 -0.0461
21480SOL    HW171555  10.571   8.778   9.612 -1.4735 -0.8117  0.1138
21480SOL    HW271556  10.539   8.665   9.708  0.9583 -0.4961  1.3707
21481SOL     OW71557   5.511   3.387   3.095  0.7141  0.6925  0.2289
21481SOL    HW171558   5.512   3.300   3.053  0.1238  0.1025  1.3891
21481SOL    HW271559   5.463   3.442   3.033  0.8120  0.1195 -0.3792
21482SOL     OW71560   6.672   8.468   9.308 -0.4551 -0.1726 -0.3737
21482SOL    HW171561   6.638   8.530   9.372 -3.3616 -0.2510 -1.6973
21482SOL    HW271562   6.736   8.519   9.258 -0.4061  0.7727  0.6124
21483SOL     OW71563   6.396   4.742   4.032 -0.0899 -0.1911  0.5651
21483SOL    HW171564   6.348   4.825   4.042 -1.5734 -0.9506  0.1050
21483SOL    HW271565   6.344   4.678   4.080  0.2187 -1.1288 -0.3054
21484SOL     OW71566   6.594   0.108   3.392 -0.2964  0.2028  0.4882
21484SOL    HW171567   6.554   0.188   3.424 -0.0582  0.0879  1.0902
21484SOL    HW271568   6.666   0.091   3.453  0.9246  0.6208 -0.7841
21485SOL     OW71569   4.612   7.876   0.139  0.3648  0.4453  0.0909
21485SOL    HW171570   4.607   7.875   0.044 -0.1225  0.5769  0.1094
21485SOL    HW271571   4.697   7.914   0.159  1.0028 -0.7108 -0.3020
21486SOL     OW71572   4.137  10.641   3.441  0.1402 -0.2531  0.0334
21486SOL    HW171573   4.063  10.580   3.439  0.0898 -0.1858 -0.2319
21486SOL    HW271574   4.206  10.594   3.488  0.2517 -0.6882 -0.5569
21487SOL     OW71575   5.532   7.737  12.062 -0.7148 -0.9558 -0.0172
21487SOL    HW171576   5.623   7.718  12.039 -1.1168 -1.1248 -1.5537
21487SOL    HW271577   5.527   7.717  12.156  0.8096 -0.9836  0.0870
21488SOL     OW71578   2.263   4.163   0.027 -0.6597  0.3621  0.4455
21488SOL    HW171579   2.246   4.078   0.066 -2.4257  1.1095  1.4579
21488SOL    HW271580   2.229   4.156  -0.063  2.4452 -1.0248 -0.7799
21489SOL     OW71581   1.151   3.663  12.941  0.2976  0.1611 -0.2027
21489SOL    HW171582   1.124   3.724  12.871 -2.3330 -0.4246  0.1830
21489SOL    HW271583   1.120   3.578  12.911  1.0191 -0.4453  0.7410
21490SOL     OW71584  11.607   8.113   3.841  0.1288 -0.0120 -0.3926
21490SOL    HW171585  11.603   8.158   3.757 -2.2618  0.0727 -0.3059
21490SOL    HW271586  11.693   8.072   3.843  0.3751  0.2996 -2.7070
21491SOL     OW71587  11.215  11.320  11.293  0.0101  0.4577 -0.0174
21491SOL    HW171588  11.302  11.288  11.315 -0.5653 -0.7390  0.6254
21491SOL    HW271589  11.208  11.306  11.198  0.4944  0.4975 -0.0593
21492SOL     OW71590   8.223   2.785  12.081  0.2468  0.1377 -0.2947
21492SOL    HW171591   8.180   2.854  12.029  0.4371  1.8068  1.6233
21492SOL    HW271592   8.313   2.816  12.092  0.4285 -0.5783  0.3285
21493SOL     OW71593   7.565   1.599   3.588  0.3560  0.1827  0.1721
21493SOL    HW171594   7.544   1.640   3.672 -0.2653 -1.4784  0.8699
21493SOL    HW271595   7.554   1.506   3.604  4.0042 -0.5532 -0.6711
21494SOL     OW71596   0.260   9.983   7.689  0.1286 -0.3508 -0.4992
21494SOL    HW171597   0.170  10.005   7.716  0.1199 -0.3232 -0.5510
21494SOL    HW271598   0.248   9.913   7.625  0.1996 -1.1703  0.3580
21495SOL     OW71599  11.162   3.955   5.324  0.2688  0.3888  0.2009
21495SOL    HW171600  11.095   4.020   5.301  1.3061  1.6863  0.7628
21495SOL    HW271601  11.187   3.977   5.413  0.4282 -1.0024  0.5215
21496SOL     OW71602   5.082   1.790   1.368  0.3186 -0.2327 -0.0035
21496SOL    HW171603   5.074   1.779   1.463 -2.1469 -0.4973 -0.1692
21496SOL    HW271604   5.064   1.702   1.332  0.8888 -0.0621 -0.7351
21497SOL     OW71605  11.334   0.003   3.065 -0.0509  0.0799 -0.1118
21497SOL    HW171606  11.376  -0.083   3.069  1.6596  0.8287 -0.9988
21497SOL    HW271607  11.279  -0.001   2.987  1.2642  0.2870 -1.0774
21498SOL     OW71608   8.020   1.121   2.888  0.1881  0.1396  0.3926
21498SOL    HW171609   8.000   1.162   2.972  0.4338 -0.4979  0.7701
21498SOL    HW271610   7.975   1.037   2.891  0.9869 -0.2974  0.2770
21499SOL     OW71611   5.162   9.087   6.747  0.0902  0.1395 -0.8793
21499SOL    HW171612   5.155   9.182   6.756 -1.0352 -0.0647  0.5988
21499SOL    HW271613   5.228   9.062   6.811 -0.0686 -0.1503 -0.8291
21500SOL     OW71614  11.558   0.831   2.725  0.6862 -0.0811  0.4577
21500SOL    HW171615  11.628   0.833   2.660  1.3653  2.8714  1.0891
21500SOL    HW271616  11.554   0.740   2.755  2.6428 -0.8034 -1.2707
21501SOL     OW71617   8.686   1.753   2.664 -0.2341  0.3783 -0.2059
21501SOL    HW171618   8.643   1.769   2.748 -1.1869 -1.1158 -0.3559
21501SOL    HW271619   8.706   1.660   2.665 -1.3698  0.0520 -2.0876
21502SOL     OW71620  10.501  10.585   0.050  0.0414 -0.5380 -0.0188
21502SOL    HW171621  10.553  10.665   0.039  0.4861 -1.0151 -1.8831
21502SOL    HW271622  10.559  10.524   0.095  0.9294 -0.8584 -1.5322
21503SOL     OW71623   6.846   5.232   4.549 -0.2447 -1.1343  0.0648
21503SOL    HW171624   6.763   5.232   4.596  0.4793 -1.3349  1.3965
21503SOL    HW271625   6.892   5.309   4.583 -0.8152  0.4063 -2.4294
21504SOL     OW71626   5.393   1.434  12.146 -0.0203 -0.3627 -0.5075
21504SOL    HW171627   5.470   1.449  12.201 -0.0441 -0.6653 -0.3854
21504SOL    HW271628   5.353   1.355  12.183 -0.8892  0.2930 -0.0086
21505SOL     OW71629  11.053   0.765  10.097 -0.1175 -0.0904 -0.3498
21505SOL    HW171630  10.975   0.711  10.104 -0.5330  0.4955 -0.3653
21505SOL    HW271631  11.076   0.786  10.188  1.1676 -1.8344 -0.2137
21506SOL     OW71632   9.470   2.519   0.833 -0.1814  0.0498  0.2851
21506SOL    HW171633   9.441   2.603   0.795  0.0893  0.1152  0.2214
21506SOL    HW271634   9.390   2.466   0.835 -0.5011  0.5423  0.9680
21507SOL     OW71635   6.963  10.137  10.693  0.3861 -0.7832 -0.0019
21507SOL    HW171636   7.051  10.175  10.689 -0.0875  0.3763  0.0308
21507SOL    HW271637   6.933  10.136  10.602  0.4021 -1.0939 -0.0030
21508SOL     OW71638   2.651   7.442   8.675 -0.3154 -0.1750  0.1746
21508SOL    HW171639   2.718   7.376   8.692 -0.9301 -0.5898  0.9961
21508SOL    HW271640   2.691   7.524   8.704  0.6409 -0.0800 -1.3092
21509SOL     OW71641   1.901   0.763   5.531 -0.2504  0.5042  0.1863
21509SOL    HW171642   1.933   0.673   5.532 -2.1533 -0.2915 -1.5985
21509SOL    HW271643   1.883   0.781   5.439 -2.5593  1.6592  0.7795
21510SOL     OW71644  11.504   3.866   5.416 -0.0987 -0.2508  0.3154
21510SOL    HW171645  11.570   3.935   5.430  1.2357 -1.3294 -0.4328
21510SOL    HW271646  11.522   3.802   5.485 -0.8392 -0.2062  0.5489
21511SOL     OW71647   0.816   5.914  10.051 -0.2591 -0.0677  0.0594
21511SOL    HW171648   0.755   5.976  10.091 -0.7048 -1.5314  1.7345
21511SOL    HW271649   0.873   5.969   9.996 -1.5848  1.6100  0.2928
21512SOL     OW71650   3.422   7.074   6.511 -0.4118  0.0117 -0.3356
21512SOL    HW171651   3.445   7.110   6.425 -0.9799 -0.4306 -0.6789
21512SOL    HW271652   3.457   6.984   6.509 -0.8835 -0.1781 -0.3155
21513SOL     OW71653   0.754   7.157  12.354 -0.0577 -0.0047 -0.1318
21513SOL    HW171654   0.691   7.215  12.397 -0.2301 -1.0256  1.0119
21513SOL    HW271655   0.709   7.129  12.274 -1.1140 -0.7724  0.6987
21514SOL     OW71656   2.241  11.888  11.684  0.2253  0.4299  0.2017
21514SOL    HW171657   2.295  11.961  11.714 -0.3147  0.8001  0.2931
21514SOL    HW271658   2.202  11.852  11.764  0.9203 -0.3236  0.2207
21515SOL     OW71659   0.525   0.376   9.663  0.0640  0.6957  0.6050
21515SOL    HW171660   0.546   0.284   9.647  2.6731  1.4166 -0.7097
21515SOL    HW271661   0.512   0.381   9.757 -2.1573 -1.3056  0.5232
21516SOL     OW71662   1.125   5.301   7.208  0.6287  0.0712 -0.2799
21516SOL    HW171663   1.086   5.264   7.129  0.1491  1.5903 -0.7824
21516SOL    HW271664   1.083   5.386   7.219  1.4858  0.3706  0.9933
21517SOL     OW71665   1.290   6.019   4.791  0.4466 -0.0490 -0.0044
21517SOL    HW171666   1.265   5.976   4.709 -1.6256 -0.4072  0.7558
21517SOL    HW271667   1.268   5.956   4.859 -1.3768  1.6037  1.0469
21518SOL     OW71668  12.001  11.931   3.912 -0.1327  0.3513  0.2755
21518SOL    HW171669  12.051  11.971   3.840 -0.0628  0.9230  0.6436
21518SOL    HW271670  12.033  11.840   3.914 -2.4872 -0.7016 -2.5867
21519SOL     OW71671   0.075   2.537   5.539 -0.3035  0.4522  0.8065
21519SOL    HW171672   0.084   2.444   5.518  0.9739  0.6993  0.1251
21519SOL    HW271673   0.017   2.539   5.615 -0.9544 -0.8422  0.3754
21520SOL     OW71674   8.425  10.325   8.107 -0.1717  0.2059  0.4833
21520SOL    HW171675   8.430  10.400   8.167  0.7033  0.8196 -0.3193
21520SOL    HW271676   8.489  10.263   8.140  1.3255  1.1260 -0.5322
21521SOL     OW71677   4.581   2.245   3.896 -0.0644  0.1615 -0.1170
21521SOL    HW171678   4.520   2.207   3.833 -0.2696  0.3921 -0.0557
21521SOL    HW271679   4.617   2.169   3.942 -1.8407  0.1180  1.2840
21522SOL     OW71680  12.881   2.262  10.992  0.4960 -0.6670 -0.4481
21522SOL    HW171681  12.838   2.258  10.907 -0.0365 -1.0828 -0.1637
21522SOL    HW271682  12.895   2.356  11.008 -1.0837 -0.4476 -0.1643
21523SOL     OW71683  12.785   8.400   7.931 -0.1129  0.0412 -0.0316
21523SOL    HW171684  12.800   8.493   7.915  1.2404 -0.5324 -2.6530
21523SOL    HW271685  12.694   8.386   7.907  0.0015  0.5015 -0.7666
21524SOL     OW71686   3.232   3.588  10.551  0.2394 -0.5179 -0.1960
21524SOL    HW171687   3.271   3.658  10.500  0.1476  0.7220  1.3419
21524SOL    HW271688   3.168   3.548  10.493 -0.3501  1.2680 -0.8465
21525SOL     OW71689   6.398   4.242   8.864  0.6768 -0.1746  0.4472
21525SOL    HW171690   6.440   4.310   8.917  0.3520 -0.1893  0.7262
21525SOL    HW271691   6.376   4.173   8.926 -0.5873  0.2194  0.4879
21526SOL     OW71692   0.802  12.533   0.093 -0.0859  0.2161 -0.3211
21526SOL    HW171693   0.850  12.535   0.010  0.9238  0.4806  0.2557
21526SOL    HW271694   0.761  12.447   0.096  2.2817 -0.9520  0.2374
21527SOL     OW71695   6.065   4.580  12.146  0.7478  0.0605 -0.9049
21527SOL    HW171696   5.987   4.570  12.202  1.6538  2.3264  0.9062
21527SOL    HW271697   6.074   4.495  12.103 -0.9416 -1.3063  1.2083
21528SOL     OW71698   4.439  11.829   6.871  0.5691 -0.0483  0.1445
21528SOL    HW171699   4.456  11.920   6.895 -0.2801 -0.0019  0.6149
21528SOL    HW271700   4.496  11.778   6.929  0.1291  0.1497  0.7657
21529SOL     OW71701   8.725   2.284   9.908 -0.1581 -0.4314  0.6385
21529SOL    HW171702   8.810   2.311   9.941 -0.1122 -1.0923  1.0774
21529SOL    HW271703   8.662   2.333   9.961 -0.1177  2.9420 -2.0677
21530SOL     OW71704   0.505   2.060  10.806  0.2070  0.0611 -0.3250
21530SOL    HW171705   0.436   2.122  10.783  0.9386  1.3503  0.7609
21530SOL    HW271706   0.470   2.011  10.880  0.0243 -0.0823 -0.5073
21531SOL     OW71707   4.956  11.933   9.690  0.0627 -0.3396  0.0820
21531SOL    HW171708   4.933  11.909   9.600  1.7501 -2.0439  0.0232
21531SOL    HW271709   4.920  11.863   9.743  0.7470 -0.3875  0.4980
21532SOL     OW71710   4.038  10.398   4.309  0.3368 -0.5409  0.4506
21532SOL    HW171711   4.035  10.312   4.267  0.6292 -1.4987  2.2501
21532SOL    HW271712   4.127  10.404   4.345  0.7945  1.1530 -0.8322
21533SOL     OW71713   4.023   4.957  12.550  0.1060  0.1786 -0.0503
21533SOL    HW171714   3.985   5.042  12.526 -0.1002 -0.0780 -0.6399
21533SOL    HW271715   4.002   4.947  12.643  0.6500  1.0447  0.1787
21534SOL     OW71716   9.074   1.557  11.653 -0.2980  0.2500  0.0139
21534SOL    HW171717   9.000   1.617  11.645 -0.1885  0.1286 -2.3985
21534SOL    HW271718   9.151   1.613  11.662 -0.4908  0.3897  0.9336
21535SOL     OW71719   1.623   5.743   1.958 -0.3360 -0.0482 -0.9349
21535SOL    HW171720   1.566   5.704   2.024  0.9716  1.7980  1.4249
21535SOL    HW271721   1.698   5.684   1.952  0.2125  0.4971  0.3450
21536SOL     OW71722  10.168  12.632   9.458 -0.1235  0.5010 -0.2484
21536SOL    HW171723  10.146  12.662   9.546  0.9296  0.0963  0.1749
21536SOL    HW271724  10.261  12.608   9.464  0.3762  1.8417 -1.8376
21537SOL     OW71725  10.814   4.175  10.647 -0.3186 -0.0021  0.1097
21537SOL    HW171726  10.832   4.084  10.627  0.1573  0.0518  0.2874
21537SOL    HW271727  10.843   4.186  10.738 -0.0950  0.4000 -0.0063
21538SOL     OW71728  12.013   8.299   4.281  0.2032  0.3971  0.3333
21538SOL    HW171729  12.095   8.333   4.318 -1.5046  2.9163  2.1310
21538SOL    HW271730  11.981   8.237   4.347 -0.9893  2.0761  1.4166
21539SOL     OW71731  12.198   2.507  12.468  0.6424  0.2287 -0.1113
21539SOL    HW171732  12.124   2.562  12.439 -0.6714 -1.2348  0.3487
21539SOL    HW271733  12.174   2.480  12.556  1.6770 -0.3903 -0.0169
21540SOL     OW71734   1.675   3.243   9.894 -0.2367 -0.2176  0.4186
21540SOL    HW171735   1.588   3.275   9.918 -0.0858 -0.9560  2.1200
21540SOL    HW271736   1.658   3.157   9.854 -0.2041 -1.7011  3.3451
21541SOL     OW71737   6.924   6.870   9.168  0.0113 -0.5003 -0.4497
21541SOL    HW171738   6.848   6.906   9.214 -1.0807 -1.0289 -1.7752
21541SOL    HW271739   6.905   6.885   9.076 -0.1993 -3.8183 -1.0545
21542SOL     OW71740   7.998  11.188   9.846  0.3641 -0.5701 -0.4611
21542SOL    HW171741   7.963  11.261   9.897 -1.0539 -1.4458 -0.1228
21542SOL    HW271742   7.933  11.174   9.777  1.2916 -0.6649 -1.3276
21543SOL     OW71743   2.549   2.853   5.506 -0.2458 -0.4778 -0.0754
21543SOL    HW171744   2.512   2.916   5.444 -1.3261 -0.5621  0.4588
21543SOL    HW271745   2.580   2.907   5.579 -1.4401 -0.5410  0.5184
21544SOL     OW71746   3.812   2.125   7.010 -0.4241  0.7598 -0.8743
21544SOL    HW171747   3.750   2.074   6.958  0.9858 -2.1744  0.0603
21544SOL    HW271748   3.835   2.199   6.954 -1.7265 -0.2502 -2.8760
21545SOL     OW71749   2.281   1.276   3.793  0.5630 -0.0740 -0.6334
21545SOL    HW171750   2.244   1.320   3.870  0.7880 -0.9829  0.0069
21545SOL    HW271751   2.216   1.292   3.724  0.0128  0.1698 -0.0754
21546SOL     OW71752   4.875   9.909   4.836 -0.2349 -0.4594 -0.2679
21546SOL    HW171753   4.914   9.934   4.752  1.6184 -0.8103  0.4597
21546SOL    HW271754   4.834   9.989   4.868  0.8671  0.2251 -0.5337
21547SOL     OW71755   0.266   2.564   2.249 -0.9568  0.4412 -0.0108
21547SOL    HW171756   0.178   2.600   2.254 -1.3572 -0.0353 -2.4967
21547SOL    HW271757   0.322   2.632   2.285 -2.1654  1.4809 -0.0465
21548SOL     OW71758   5.889   7.071   0.324 -0.5530  0.5800  0.5021
21548SOL    HW171759   5.905   7.069   0.418 -0.2735  1.0104  0.4655
21548SOL    HW271760   5.956   7.130   0.289 -0.0902 -0.2642 -0.0820
21549SOL     OW71761   7.307   4.048   4.162 -0.0646 -0.4725 -0.0053
21549SOL    HW171762   7.323   4.122   4.220 -0.5623 -1.7342  1.8414
21549SOL    HW271763   7.384   4.045   4.105 -0.2164  1.6554 -0.3810
21550SOL     OW71764   9.324   0.844   8.487  0.3330  0.1503 -0.0655
21550SOL    HW171765   9.379   0.904   8.538  0.7227 -0.5514  0.3602
21550SOL    HW271766   9.234   0.868   8.510  0.4616  1.0215 -0.4339
21551SOL     OW71767   5.686   8.622   8.082  0.0194 -0.3091  0.3032
21551SOL    HW171768   5.642   8.645   8.000 -0.4715 -0.6911  0.4584
21551SOL    HW271769   5.775   8.598   8.055 -0.6061 -2.0066 -0.3207
21552SOL     OW71770   5.194   6.348   8.650  0.4883  0.0817 -0.3857
21552SOL    HW171771   5.119   6.378   8.702 -0.0622  0.2611 -1.2713
21552SOL    HW271772   5.230   6.428   8.611  1.6830  0.1107  0.7100
21553SOL     OW71773   7.241   5.924   9.347 -0.2415 -0.0717  0.2586
21553SOL    HW171774   7.224   5.851   9.407  0.4741 -0.8096 -0.4069
21553SOL    HW271775   7.333   5.945   9.360 -0.3536  0.4820  0.1834
21554SOL     OW71776   1.576  11.671   4.251 -0.2678  0.4655 -0.5386
21554SOL    HW171777   1.556  11.764   4.259 -2.8405  0.0904 -1.8044
21554SOL    HW271778   1.537  11.631   4.329 -0.5022  0.2571 -0.7628
21555SOL     OW71779   5.613   8.111   4.342 -0.1005 -0.3301  0.2023
21555SOL    HW171780   5.647   8.196   4.370 -0.0544 -1.0790  2.6843
21555SOL    HW271781   5.689   8.065   4.306  0.3828 -0.1336  0.9542
21556SOL     OW71782   1.820   8.883   5.178 -0.2214 -0.1115 -0.8485
21556SOL    HW171783   1.893   8.843   5.224 -0.5458 -0.3940 -0.5737
21556SOL    HW271784   1.747   8.878   5.239 -0.5238 -0.0205 -1.1955
21557SOL     OW71785   2.209   7.459   4.753  0.0086 -0.7103  0.0721
21557SOL    HW171786   2.214   7.471   4.658 -0.7677  0.5376  0.1656
21557SOL    HW271787   2.131   7.406   4.767 -0.0634 -0.6179  0.0235
21558SOL     OW71788   4.272  11.941   9.548 -1.0721  0.2007 -0.2736
21558SOL    HW171789   4.340  11.874   9.546 -0.6327  0.6110  0.4440
21558SOL    HW271790   4.192  11.895   9.573 -1.0953 -0.3076 -1.2414
21559SOL     OW71791   2.155   3.489   3.922 -0.0133  0.3777 -0.4904
21559SOL    HW171792   2.201   3.415   3.963  0.0849  0.2216 -0.8861
21559SOL    HW271793   2.131   3.458   3.835 -0.2309  0.7134 -0.5531
21560SOL     OW71794   6.497  12.502   3.203 -0.2294 -0.4023  0.8924
21560SOL    HW171795   6.477  12.591   3.175  3.2273  0.0184 -0.7666
21560SOL    HW271796   6.503  12.508   3.299  0.6945  1.3577  0.7604
21561SOL     OW71797  10.781   0.632   2.849  0.0908  0.3741  0.3911
21561SOL    HW171798  10.816   0.543   2.852  0.5086  0.5579  1.6329
21561SOL    HW271799  10.830   0.675   2.779 -0.9124 -0.6688 -1.0086
21562SOL     OW71800   7.220   6.611  10.711 -0.1555 -0.2612  0.2800
21562SOL    HW171801   7.268   6.530  10.696 -0.7625 -0.2250 -2.4000
21562SOL    HW271802   7.266   6.677  10.660 -2.3231  0.0062 -1.4867
21563SOL     OW71803   2.803   4.477   7.197  0.0194 -0.3418  0.2076
21563SOL    HW171804   2.858   4.547   7.232 -0.5383  0.8421 -1.1848
21563SOL    HW271805   2.790   4.418   7.271  1.2207  0.5636  1.1910
21564SOL     OW71806   4.454  12.910   5.195  0.1214  0.7316  0.0749
21564SOL    HW171807   4.470  12.988   5.247  1.7761  0.3308  0.2076
21564SOL    HW271808   4.541  12.875   5.177 -0.5263 -0.3100 -1.1653
21565SOL     OW71809  10.143   1.102   6.294 -0.0657 -0.3201 -0.5888
21565SOL    HW171810  10.171   1.015   6.264  1.7224 -0.5158  1.4042
21565SOL    HW271811  10.117   1.089   6.385 -0.1079  1.1883 -0.3618
21566SOL     OW71812   4.048  12.604  11.438  0.2548  0.7362  0.4625
21566SOL    HW171813   4.093  12.607  11.522 -0.0048  0.0439  0.6353
21566SOL    HW271814   4.092  12.670  11.385 -0.2370  1.8945  1.4583
21567SOL     OW71815   8.723  12.387   9.949 -0.2362 -0.0310 -0.0178
21567SOL    HW171816   8.680  12.332   9.884  0.0207  0.4251 -0.5863
21567SOL    HW271817   8.653  12.441   9.985 -0.5366 -0.8837  0.7252
21568SOL     OW71818  11.488   7.759   5.129  0.4240  1.1024 -0.2142
21568SOL    HW171819  11.484   7.855   5.133  2.9326  1.3239 -1.3172
21568SOL    HW271820  11.520   7.733   5.216 -1.4217  1.1030  0.5162
21569SOL     OW71821  10.210   5.976   4.415 -0.2622 -0.1676  0.4223
21569SOL    HW171822  10.127   5.953   4.373 -0.2068 -0.9697  0.7260
21569SOL    HW271823  10.277   5.941   4.357 -0.0910  1.3594 -0.3337
21570SOL     OW71824   3.429   0.152  12.773  0.3371  0.4789  0.0360
21570SOL    HW171825   3.500   0.212  12.753 -0.5062  1.5051  0.0226
21570SOL    HW271826   3.445   0.124  12.864  0.3904  1.2320  0.2595
21571SOL     OW71827   1.542   9.535   3.196  0.4698  0.2897  0.1028
21571SOL    HW171828   1.471   9.497   3.248  1.5849 -0.3388  1.2139
21571SOL    HW271829   1.519   9.628   3.189 -1.8130 -0.3327 -1.8460
21572SOL     OW71830   9.982   3.714   2.527 -0.2772 -0.2782 -0.4584
21572SOL    HW171831  10.028   3.767   2.592 -0.9706 -1.3324  0.9482
21572SOL    HW271832  10.021   3.739   2.444 -0.6309  2.4631  0.1185
21573SOL     OW71833   0.864  11.000   6.191 -0.4180 -0.0866 -0.2281
21573SOL    HW171834   0.883  11.021   6.099 -3.1730  0.8364 -0.6736
21573SOL    HW271835   0.867  11.084   6.236 -0.7657 -0.2934  0.1848
21574SOL     OW71836   7.532   9.070   5.132  0.1410 -0.5253  0.0423
21574SOL    HW171837   7.477   8.992   5.138  0.2368 -0.6527 -0.6763
21574SOL    HW271838   7.472   9.140   5.109 -0.1944 -0.0742  2.1251
21575SOL     OW71839   2.498   9.020   7.770  0.5152  0.4281 -0.1262
21575SOL    HW171840   2.537   9.031   7.684  0.7681 -0.7846 -0.1844
21575SOL    HW271841   2.484   8.926   7.779  1.4868  0.3982  1.5779
21576SOL     OW71842   7.206   1.541   9.517  0.5733  0.2533  0.2314
21576SOL    HW171843   7.144   1.469   9.525  0.5056  0.2788 -0.0681
21576SOL    HW271844   7.290   1.500   9.496  0.7367  0.1916  0.9572
21577SOL     OW71845  10.481  11.586   3.767  0.1253 -0.3582 -0.5896
21577SOL    HW171846  10.547  11.628   3.823 -0.2613 -1.2586  0.5793
21577SOL    HW271847  10.518  11.501   3.746 -0.4131 -0.6411 -0.4030
21578SOL     OW71848   4.161  12.593  10.016 -0.3004  0.6003  0.8782
21578SOL    HW171849   4.191  12.634  10.098  0.0485 -0.0579  1.0912
21578SOL    HW271850   4.146  12.502  10.040 -0.7876  0.5405  0.3456
21579SOL     OW71851   8.814   1.990   2.627  0.2881  0.1756  0.2290
21579SOL    HW171852   8.780   1.902   2.644  0.0712  0.2409  0.1319
21579SOL    HW271853   8.794   2.006   2.534  2.0216 -0.4349 -0.2997
21580SOL     OW71854   6.967   1.628   7.035 -0.0392  0.1488 -0.2824
21580SOL    HW171855   6.978   1.679   7.115 -2.2907 -0.4151  0.4489
21580SOL    HW271856   6.911   1.682   6.979 -2.1421 -1.2631  0.3504
21581SOL     OW71857   6.331   9.105  12.065 -0.6885 -0.5188  0.2093
21581SOL    HW171858   6.321   9.048  11.989  1.1143  0.2551 -0.6814
21581SOL    HW271859   6.416   9.080  12.102 -0.9920 -0.0631  1.2607
21582SOL     OW71860  12.395   7.364  12.871  0.2334  1.0095 -0.4030
21582SOL    HW171861  12.408   7.288  12.814  0.4081  0.4853  0.3201
21582SOL    HW271862  12.303   7.358  12.898  0.6636  0.1015  0.9658
21583SOL     OW71863   2.856   1.514   3.211 -0.2005 -0.1265  0.1397
21583SOL    HW171864   2.887   1.603   3.228  1.5646 -0.5037 -0.7858
21583SOL    HW271865   2.935   1.460   3.220 -0.8813 -1.3639 -1.0009
21584SOL     OW71866   4.908   3.202  11.942 -0.1908 -0.1013 -0.2012
21584SOL    HW171867   4.885   3.163  11.857  2.5403  0.1290 -1.1427
21584SOL    HW271868   4.969   3.141  11.981  1.4294  1.4846 -0.1070
21585SOL     OW71869  11.817   0.164   5.193  0.0213  0.1676  0.0072
21585SOL    HW171870  11.827   0.256   5.172 -1.2294  0.2795 -0.1999
21585SOL    HW271871  11.763   0.129   5.122  2.2337 -1.2193 -1.0689
21586SOL     OW71872   7.675   0.185   5.363  0.3777 -0.3835 -0.2274
21586SOL    HW171873   7.636   0.272   5.373  0.3809 -0.5702  1.8912
21586SOL    HW271874   7.630   0.147   5.288 -0.8454  0.8091 -0.1405
21587SOL     OW71875  10.741   6.822   9.502  0.3289  0.5642  0.2217
21587SOL    HW171876  10.739   6.841   9.409  1.1901 -2.0404 -0.4128
21587SOL    HW271877  10.816   6.871   9.536 -0.3828  2.0570 -0.2638
21588SOL     OW71878   8.662  10.348  11.852  0.6286  0.0856 -0.2538
21588SOL    HW171879   8.634  10.437  11.828  0.3964  0.0885  0.0236
21588SOL    HW271880   8.676  10.304  11.768 -0.3277  0.0532 -0.4069
21589SOL     OW71881   7.690   8.557   3.345 -0.1674 -0.1139 -0.2638
21589SOL    HW171882   7.785   8.546   3.352 -0.1212 -0.9062 -1.8134
21589SOL    HW271883   7.655   8.471   3.371 -0.6136  0.7401  2.2608
21590SOL     OW71884   7.161   4.677   5.427 -0.0429  0.2265  0.7092
21590SOL    HW171885   7.098   4.645   5.492 -0.4434  0.6362  0.5298
21590SOL    HW271886   7.130   4.641   5.344  0.8679 -0.8784  0.8241
21591SOL     OW71887  10.494   2.395   6.729 -0.1854 -0.1320  0.1876
21591SOL    HW171888  10.481   2.401   6.635  0.2114 -0.0118  0.1379
21591SOL    HW271889  10.522   2.305   6.744  1.4191  0.2969 -0.0289
21592SOL     OW71890   3.614   3.137   6.287 -0.0929 -0.4066  0.2241
21592SOL    HW171891   3.672   3.169   6.356 -1.1499  0.5729  0.6912
21592SOL    HW271892   3.672   3.112   6.216  1.0290 -1.3553  1.4178
21593SOL     OW71893   6.651   1.483   5.995  0.0168 -0.1641  0.4863
21593SOL    HW171894   6.664   1.420   6.066  0.6230 -0.7299 -0.1104
21593SOL    HW271895   6.557   1.485   5.980  0.0875 -2.0973 -0.5089
21594SOL     OW71896   0.668   6.914   3.510 -0.2740  0.3816  0.4127
21594SOL    HW171897   0.577   6.893   3.534 -0.1607 -1.8987 -0.8427
21594SOL    HW271898   0.667   6.920   3.415  0.4483  3.0513  0.4895
21595SOL     OW71899   2.868   8.063  11.469  0.0631  0.2530 -0.5445
21595SOL    HW171900   2.832   8.087  11.554 -0.9126  3.8254 -1.7992
21595SOL    HW271901   2.951   8.109  11.464 -0.2322  0.6828 -1.7762
21596SOL     OW71902  12.582   8.687   7.421 -0.2035  0.0911  0.5297
21596SOL    HW171903  12.620   8.718   7.338  0.6202 -0.7741  0.5638
21596SOL    HW271904  12.632   8.732   7.489 -0.7992  0.7082  0.5732
21597SOL     OW71905  10.022   3.258   4.389  0.2498  0.3756 -0.2320
21597SOL    HW171906  10.099   3.306   4.358  0.0356  0.4885 -0.5913
21597SOL    HW271907  10.024   3.176   4.340  1.2217 -0.4841  1.1526
21598SOL     OW71908   1.132   3.104   1.585  0.1481 -0.1623  0.4897
21598SOL    HW171909   1.161   3.055   1.662 -0.9883  2.7875  3.0349
21598SOL    HW271910   1.046   3.067   1.564 -0.4838  0.3313  2.0534
21599SOL     OW71911   3.972   5.518   2.377  0.3533  0.2961 -0.3803
21599SOL    HW171912   3.999   5.473   2.297  0.1838  1.1173 -0.9099
21599SOL    HW271913   4.034   5.488   2.443  1.4622  0.7690 -1.1629
21600SOL     OW71914  12.199   6.041  11.047 -0.4115  0.2880  0.3581
21600SOL    HW171915  12.292   6.033  11.028 -0.4988 -0.7243  0.3045
21600SOL    HW271916  12.174   6.125  11.008  0.1712 -0.1039 -0.9193
21601SOL     OW71917   0.201   8.987   6.541 -0.1833  0.3670  0.0161
21601SOL    HW171918   0.254   8.907   6.545 -1.2001 -0.2851  1.0377
21601SOL    HW271919   0.266   9.058   6.541  0.7214 -0.4138  0.8439
21602SOL     OW71920   0.434   0.626   5.032 -0.1130 -0.9077 -0.4737
21602SOL    HW171921   0.474   0.696   5.084 -1.5963 -0.1467 -0.3004
21602SOL    HW271922   0.459   0.545   5.076 -0.5525 -0.3302  0.8770
21603SOL     OW71923   1.927   1.194   6.572  0.7551 -0.0979  0.5236
21603SOL    HW171924   1.992   1.141   6.526  1.4181  0.4711  0.7852
21603SOL    HW271925   1.977   1.237   6.641  0.2127  0.8133  0.3530
21604SOL     OW71926   0.256  10.764   1.918 -0.0900  0.1002 -0.2682
21604SOL    HW171927   0.191  10.835   1.921  0.5363  0.7304 -1.1710
21604SOL    HW271928   0.326  10.798   1.863 -0.0164 -1.4311 -1.1772
21605SOL     OW71929   1.583   6.471  12.709 -0.6251  0.3415 -0.1483
21605SOL    HW171930   1.529   6.414  12.764 -0.8457  0.8399  0.1592
21605SOL    HW271931   1.601   6.418  12.631 -1.5506  0.1513 -0.2537
21606SOL     OW71932   4.883   0.299   2.435  0.1447 -0.1445  0.4875
21606SOL    HW171933   4.879   0.293   2.340  0.8950 -0.8113  0.4870
21606SOL    HW271934   4.968   0.261   2.458 -0.3065 -0.5900  1.4712
21607SOL     OW71935   2.964   9.078   4.975 -0.1147 -0.2288  0.0336
21607SOL    HW171936   3.015   9.158   4.976  0.2845 -0.1346 -4.8414
21607SOL    HW271937   3.026   9.009   4.998  1.9949  0.0845 -4.0214
21608SOL     OW71938   3.932   3.100   3.646 -0.5020 -0.2020 -0.1937
21608SOL    HW171939   3.938   3.174   3.586  2.2056  1.3922  1.8390
21608SOL    HW271940   3.901   3.138   3.728  0.4278 -1.4299  0.7534
21609SOL     OW71941  10.590   8.504   8.680  0.0888  0.2792 -0.9984
21609SOL    HW171942  10.565   8.439   8.614 -0.3940 -0.7574  0.1681
21609SOL    HW271943  10.678   8.479   8.706 -0.8577 -1.2771  0.9775
21610SOL     OW71944   4.091   8.614   4.202 -0.6956 -0.6629 -0.4463
21610SOL    HW171945   4.047   8.532   4.223  0.1204 -1.2060 -0.7721
21610SOL    HW271946   4.146   8.592   4.126  0.8610 -0.2779  0.5216
21611SOL     OW71947   9.125  11.285   5.404  0.1557  0.2194  0.7468
21611SOL    HW171948   9.058  11.312   5.466 -0.8862 -2.0601  0.7451
21611SOL    HW271949   9.153  11.199   5.435  0.9907 -0.1366 -0.8630
21612SOL     OW71950   2.362   1.721   3.799  0.0964 -0.7746 -0.2514
21612SOL    HW171951   2.414   1.660   3.748  1.2876 -0.3718  0.4404
21612SOL    HW271952   2.350   1.678   3.884 -0.6791 -0.8436 -0.3845
21613SOL     OW71953  10.449  11.806  11.230 -0.1210 -0.1150 -0.0154
21613SOL    HW171954  10.370  11.846  11.267 -0.0767 -0.6872  0.7320
21613SOL    HW271955  10.418  11.726  11.188  0.1638 -0.8827  1.1696
21614SOL     OW71956   2.265   1.723  11.878  0.5268 -0.2335  0.4101
21614SOL    HW171957   2.290   1.688  11.964  0.7813  0.2630  0.5405
21614SOL    HW271958   2.345   1.716  11.826  0.7597  0.7049  0.6189
21615SOL     OW71959   9.487  11.762   2.481  0.4966 -0.1068  0.4358
21615SOL    HW171960   9.562  11.744   2.424 -0.2463 -0.5258 -0.4233
21615SOL    HW271961   9.495  11.698   2.551 -0.3462 -1.7465 -0.9096
21616SOL     OW71962   1.657   5.493   9.517 -0.0887  0.3136  0.2659
21616SOL    HW171963   1.653   5.400   9.498 -0.1581  0.6152 -1.3507
21616SOL    HW271964   1.710   5.500   9.596  0.6961 -1.0182 -0.1246
21617SOL     OW71965   0.442   2.167   0.804  0.3677 -0.0091 -0.3626
21617SOL    HW171966   0.385   2.125   0.868 -0.2527  0.2230 -0.7520
21617SOL    HW271967   0.383   2.222   0.752  1.0381  0.6816 -0.4040
21618SOL     OW71968  12.433  10.865   2.619  0.2455 -0.6653  0.4121
21618SOL    HW171969  12.505  10.864   2.557 -1.3823  1.3323 -1.6956
21618SOL    HW271970  12.372  10.799   2.587 -1.2328  1.2985 -1.0766
21619SOL     OW71971   8.829   4.208   0.411 -0.1013  0.2398 -0.4070
21619SOL    HW171972   8.738   4.218   0.438 -0.0401  2.1466 -0.7127
21619SOL    HW271973   8.831   4.240   0.321  0.6178 -1.2126 -0.9385
21620SOL     OW71974   9.098   8.352   9.899 -0.1363  0.0123 -0.3025
21620SOL    HW171975   9.035   8.308   9.842 -1.4777 -1.0952  1.8768
21620SOL    HW271976   9.172   8.291   9.906  0.5852  0.6768 -1.7185
21621SOL     OW71977  11.897   5.768   1.396 -0.3495 -0.0828  0.2760
21621SOL    HW171978  11.822   5.718   1.427 -1.1986 -1.4941 -3.5467
21621SOL    HW271979  11.967   5.704   1.387  0.2219  0.5126  0.3621
21622SOL     OW71980   5.592  10.575   2.526 -0.4490 -0.4134 -0.6250
21622SOL    HW171981   5.654  10.646   2.508  0.7516 -1.2170  0.1332
21622SOL    HW271982   5.514  10.598   2.477 -0.8975  2.5277  1.2249
21623SOL     OW71983   3.705  10.423  11.533  0.1559  0.8194  0.7679
21623SOL    HW171984   3.688  10.430  11.627 -0.8621 -0.3240  0.6931
21623SOL    HW271985   3.630  10.374  11.499  0.7456  0.8112 -0.5664
21624SOL     OW71986   4.168   5.457   4.973  0.1485  0.1543  0.0823
21624SOL    HW171987   4.081   5.476   5.008  0.0993  0.9367 -0.4421
21624SOL    HW271988   4.153   5.440   4.880  0.4923 -0.2335  0.0967
21625SOL     OW71989   3.883   2.544  12.081  0.1821 -0.0680 -0.2868
21625SOL    HW171990   3.858   2.463  12.125 -1.9486  0.8430  0.3260
21625SOL    HW271991   3.808   2.602  12.095  0.1679  0.9035 -3.5270
21626SOL     OW71992   6.025  11.322   3.851 -0.1890  0.5904 -0.0797
21626SOL    HW171993   6.023  11.355   3.940  0.2550 -0.7927  0.4776
21626SOL    HW271994   5.995  11.231   3.858 -0.4600  0.5560 -1.3824
21627SOL     OW71995   7.925   3.923   5.818 -0.0386  0.0697  0.4699
21627SOL    HW171996   7.963   3.839   5.843  0.7165  0.3391  0.2408
21627SOL    HW271997   7.859   3.902   5.752 -0.2620 -0.3940  0.8383
21628SOL     OW71998   3.816   6.704   0.421  0.0437 -0.6703  0.4593
21628SOL    HW171999   3.743   6.724   0.480  0.6759  0.5637  0.8526
21628SOL    HW272000   3.774   6.681   0.338 -0.8183 -1.2086  1.0223
21629SOL     OW72001   4.890  10.900  11.801  0.4206 -0.2829  0.0582
21629SOL    HW172002   4.854  10.988  11.792  0.9372  0.0579  1.1722
21629SOL    HW272003   4.949  10.890  11.727 -1.7828 -0.8038 -1.7435
21630SOL     OW72004   0.269  10.644   9.101  0.0378 -0.4236 -0.2474
21630SOL    HW172005   0.219  10.710   9.053 -0.9743 -1.0019 -0.0033
21630SOL    HW272006   0.226  10.639   9.186  0.9757 -0.3968  0.2364
21631SOL     OW72007   5.769   2.805  10.079  0.1075 -0.1685 -0.2714
21631SOL    HW172008   5.799   2.879  10.132  0.8225 -0.6053 -0.0492
21631SOL    HW272009   5.804   2.822   9.992  1.5353 -0.9703  0.1246
21632SOL     OW72010   4.346   0.571   8.712 -0.2970  0.0579  0.0688
21632SOL    HW172011   4.342   0.614   8.798  1.3794 -1.4823  0.9880
21632SOL    HW272012   4.360   0.642   8.650  1.9347  0.9633  1.4791
21633SOL     OW72013   2.258   4.972  11.843 -0.2268  0.4780  0.2617
21633SOL    HW172014   2.184   5.031  11.831  0.1728  1.2660  1.4135
21633SOL    HW272015   2.313   5.016  11.909  0.6848 -0.6202  0.2710
21634SOL     OW72016   5.502   0.362   8.311  0.0095 -0.4483 -0.1902
21634SOL    HW172017   5.501   0.440   8.255 -1.0025 -0.3226 -0.0061
21634SOL    HW272018   5.423   0.369   8.365  0.2557 -1.2648  0.3036
21635SOL     OW72019  10.933   2.610   3.091  0.2566  0.0815 -0.4218
21635SOL    HW172020  10.941   2.517   3.112 -2.1474  0.0139  0.5921
21635SOL    HW272021  10.995   2.624   3.019 -0.4296 -2.6606 -1.6946
21636SOL     OW72022  11.892   5.948   0.262  0.3831  0.3425 -0.2593
21636SOL    HW172023  11.987   5.946   0.273  0.5758  1.7133 -1.3821
21636SOL    HW272024  11.868   6.039   0.280 -0.9548 -0.3049  1.5505
21637SOL     OW72025   6.755   9.206   1.406 -0.1075 -0.3554  0.2523
21637SOL    HW172026   6.765   9.287   1.455  0.0104  0.0853 -0.4759
21637SOL    HW272027   6.773   9.231   1.315  0.0698 -1.2282  0.0379
21638SOL     OW72028   8.042   5.077   2.418  0.0353  0.0468  0.1105
21638SOL    HW172029   8.135   5.100   2.413  0.1251 -0.5958 -2.5595
21638SOL    HW272030   8.041   4.985   2.443  0.2592 -0.4814 -1.6825
21639SOL     OW72031  10.673   7.986  12.688 -0.0103 -0.0511 -0.1282
21639SOL    HW172032  10.741   7.986  12.621 -0.5720  0.7547 -0.7175
21639SOL    HW272033  10.614   7.916  12.662 -0.6761  0.8011 -0.9648
21640SOL     OW72034   2.294   2.698   1.046 -0.4369  0.2911 -0.4993
21640SOL    HW172035   2.207   2.732   1.068  0.1587  0.8085  1.2682
21640SOL    HW272036   2.344   2.775   1.018  0.0161  0.3593  0.4590
21641SOL     OW72037   9.868   8.110  11.902 -0.4655  0.8253  0.2036
21641SOL    HW172038   9.949   8.094  11.854 -0.6632 -0.6883  0.3228
21641SOL    HW272039   9.868   8.204  11.918  0.7526  1.0056 -0.7015
21642SOL     OW72040   3.647  11.702   6.701  0.2766 -0.3182 -0.1778
21642SOL    HW172041   3.599  11.785   6.706  2.1332  0.7384  2.4744
21642SOL    HW272042   3.595  11.641   6.753  1.1555  0.5239  1.7741
21643SOL     OW72043   0.890   2.827   3.925  0.6056 -0.2481 -0.0633
21643SOL    HW172044   0.975   2.847   3.885 -0.2438  2.4496 -0.7340
21643SOL    HW272045   0.897   2.859   4.014  0.9909 -2.1702  0.6550
21644SOL     OW72046   7.539   6.088  11.193 -0.3952 -0.6798 -0.3053
21644SOL    HW172047   7.606   6.029  11.227 -0.7961 -1.1807 -0.3792
21644SOL    HW272048   7.536   6.160  11.257 -2.3157 -2.4068  1.6824
21645SOL     OW72049   1.394   4.241   4.323  0.3405  0.2013 -0.0063
21645SOL    HW172050   1.389   4.168   4.261 -1.3303 -0.5286  0.9343
21645SOL    HW272051   1.316   4.294   4.305 -0.9471 -0.7638  2.3039
21646SOL     OW72052   0.849  12.546  10.453  0.0043  0.3215 -0.1481
21646SOL    HW172053   0.880  12.524  10.366 -2.2041  1.4125 -1.2871
21646SOL    HW272054   0.824  12.638  10.448 -2.4704 -0.2211  0.8818
21647SOL     OW72055   4.435  12.212   1.924 -0.2496 -0.0266  0.2255
21647SOL    HW172056   4.494  12.287   1.918 -1.2518  0.7501 -0.2566
21647SOL    HW272057   4.441  12.184   2.015  0.2593  0.5292  0.3714
21648SOL     OW72058  12.243   4.232   9.518 -0.1440  0.1293 -0.3118
21648SOL    HW172059  12.150   4.209   9.524  0.3850 -2.2805 -0.2105
21648SOL    HW272060  12.263   4.272   9.603 -0.7109 -0.9509  0.3526
21649SOL     OW72061   4.033   1.894   1.400  0.1739  0.0270  0.3236
21649SOL    HW172062   3.980   1.864   1.474 -0.9895  1.4125  0.1105
21649SOL    HW272063   4.112   1.840   1.402 -0.0271 -0.2542  2.3190
21650SOL     OW72064  11.198   4.733   6.965 -0.2706  0.1064 -0.1105
21650SOL    HW172065  11.203   4.639   6.947 -0.9904  0.1058 -0.3391
21650SOL    HW272066  11.176   4.772   6.880  0.8993  0.5791 -0.2110
21651SOL     OW72067   3.024   0.923   8.636  0.1522  0.1779 -0.1325
21651SOL    HW172068   2.943   0.947   8.682 -0.0958 -1.3169  0.2831
21651SOL    HW272069   2.994   0.883   8.554  0.5442  1.2294 -0.8076
21652SOL     OW72070   8.722   5.763  11.163  0.3635 -0.0100 -0.0812
21652SOL    HW172071   8.638   5.809  11.163 -0.1988 -0.9597 -1.5137
21652SOL    HW272072   8.763   5.788  11.246 -0.3644  2.1822 -0.3227
21653SOL     OW72073   8.578   6.566   5.196 -0.3008  0.4714 -0.2248
21653SOL    HW172074   8.579   6.602   5.107  0.1688  0.5419 -0.1911
21653SOL    HW272075   8.668   6.575   5.227 -0.4321  0.3215  0.2095
21654SOL     OW72076  12.921   3.775  11.723 -0.1399 -0.6125 -0.1094
21654SOL    HW172077  13.003   3.728  11.705  0.0321  0.4538 -2.5450
21654SOL    HW272078  12.947   3.843  11.785  0.6702 -0.7604 -0.2647
21655SOL     OW72079   6.482  10.569  12.258  0.1103  0.2800  0.3125
21655SOL    HW172080   6.520  10.494  12.303  0.7410  1.1291  1.2549
21655SOL    HW272081   6.416  10.603  12.319 -1.1527 -0.3092 -0.6930
21656SOL     OW72082   4.193  11.389   6.080  0.4643  0.0282 -0.2574
21656SOL    HW172083   4.211  11.325   6.148  1.4105 -0.6552 -1.1142
21656SOL    HW272084   4.161  11.337   6.006 -2.1641  0.9091  0.1606
21657SOL     OW72085   1.249  12.862   7.542  0.0961 -0.2699  0.4687
21657SOL    HW172086   1.319  12.813   7.585 -1.1846 -3.1564 -0.4441
21657SOL    HW272087   1.171  12.840   7.593 -0.6572  0.2400 -0.4359
21658SOL     OW72088   8.526   7.248  11.416  0.6699 -0.1399  0.2739
21658SOL    HW172089   8.498   7.157  11.429  1.2871 -0.5097 -0.8324
21658SOL    HW272090   8.558   7.276  11.502  1.2267 -1.2417  0.4435
21659SOL     OW72091   9.447  11.993   1.899 -0.2139  0.1003  0.2868
21659SOL    HW172092   9.464  11.908   1.939 -0.9451 -0.5623 -0.7759
21659SOL    HW272093   9.371  11.979   1.844  0.3674  1.1607 -0.8299
21660SOL     OW72094   8.106  10.228  11.642 -0.2453 -0.5515  0.1954
21660SOL    HW172095   8.157  10.276  11.576 -2.5532  1.6027 -0.1921
21660SOL    HW272096   8.145  10.253  11.725 -0.7170  1.2502 -0.0784
21661SOL     OW72097   8.611   9.648   6.900 -0.2783  0.3556  0.1414
21661SOL    HW172098   8.625   9.582   6.968 -0.0460  1.3169  1.0546
21661SOL    HW272099   8.695   9.652   6.854 -0.2708  0.0626  0.1277
21662SOL     OW72100   9.270   1.902   8.810  0.3048  0.5364  0.7862
21662SOL    HW172101   9.283   1.871   8.720 -0.1257  0.5086  0.7307
21662SOL    HW272102   9.353   1.882   8.854  0.0003 -0.8236  0.7899
21663SOL     OW72103   6.361   1.072  11.999  0.5166 -0.2931 -0.1266
21663SOL    HW172104   6.430   1.137  11.989 -0.4546  0.7962 -0.0727
21663SOL    HW272105   6.316   1.097  12.080  0.2136 -1.1256 -0.0206
21664SOL     OW72106   2.375  11.786  10.856 -0.4842  0.0976  0.0078
21664SOL    HW172107   2.464  11.798  10.823 -0.9528 -0.3940 -1.5254
21664SOL    HW272108   2.350  11.872  10.892 -0.3154  0.9975 -1.9226
21665SOL     OW72109   7.607  11.403  11.458 -0.2332  0.2612 -0.3198
21665SOL    HW172110   7.697  11.420  11.484 -0.6125 -0.1068  1.3801
21665SOL    HW272111   7.610  11.317  11.416  0.2674  0.4194 -0.6084
21666SOL     OW72112   3.901   4.981   7.245  0.2904  0.3563 -0.2745
21666SOL    HW172113   3.912   4.911   7.310  0.1131  0.3190 -0.2837
21666SOL    HW272114   3.884   4.934   7.163 -2.1613  0.4121  0.1245
21667SOL     OW72115   7.125   7.160  10.691 -0.7486 -0.4711 -0.3584
21667SOL    HW172116   7.214   7.167  10.724 -1.0555  1.7701  0.1814
21667SOL    HW272117   7.133   7.168  10.596 -0.3312 -1.0421 -0.3739
21668SOL     OW72118   6.680   7.673  11.057  0.5886 -0.2015 -0.4948
21668SOL    HW172119   6.666   7.613  11.130  1.5525 -1.3216 -1.1870
21668SOL    HW272120   6.773   7.662  11.035 -0.0811 -1.4950 -3.1945
21669SOL     OW72121   2.688   2.495   2.381  0.0315 -0.3910  0.3847
21669SOL    HW172122   2.714   2.571   2.435 -0.7540 -0.5538  1.0177
21669SOL    HW272123   2.671   2.426   2.445  0.0286 -0.8868 -0.1496
21670SOL     OW72124   5.190   1.998   4.962 -0.5477 -0.3257  0.3152
21670SOL    HW172125   5.249   2.072   4.952  0.3429 -0.7224  2.1557
21670SOL    HW272126   5.117   2.032   5.014  0.1163 -0.8203  1.6182
21671SOL     OW72127  12.014   3.673   1.898  0.3714  0.7258 -0.1663
21671SOL    HW172128  12.023   3.632   1.984 -0.8221  1.0968  0.1600
21671SOL    HW272129  11.981   3.603   1.842  1.6208  0.3524 -0.4580
21672SOL     OW72130   8.256   9.057  10.977  0.2992  0.5872 -0.0556
21672SOL    HW172131   8.320   8.985  10.972  0.0065  0.2901  0.3425
21672SOL    HW272132   8.259   9.084  11.069 -1.4647 -0.6731  0.4333
21673SOL     OW72133   9.910  12.898   2.745 -0.6519  0.3475  0.0971
21673SOL    HW172134   9.898  12.820   2.799 -0.4287 -0.1190 -0.5207
21673SOL    HW272135   9.924  12.969   2.809  1.4369 -0.4855  0.6640
21674SOL     OW72136   7.873   8.932   0.948 -0.0209 -0.2951  0.2213
21674SOL    HW172137   7.925   8.935   0.867  0.1191 -1.7061  0.2380
21674SOL    HW272138   7.924   8.878   1.007 -0.6393 -0.1633  0.8887
21675SOL     OW72139   4.171   5.434  10.834  0.0788 -0.0448  0.3442
21675SOL    HW172140   4.239   5.383  10.791 -0.6439 -2.6102  2.0700
21675SOL    HW272141   4.166   5.399  10.923 -0.8962  2.6689  1.4761
21676SOL     OW72142   9.762   1.270   2.373 -0.2973  0.2058 -0.0382
21676SOL    HW172143   9.698   1.315   2.318 -0.3371 -1.9065 -1.8339
21676SOL    HW272144   9.842   1.269   2.321  0.4081  0.3508  1.0151
21677SOL     OW72145   1.524   1.180   2.278 -0.0066 -0.2022 -0.2854
21677SOL    HW172146   1.519   1.265   2.235 -0.7713 -0.0771  0.0242
21677SOL    HW272147   1.499   1.198   2.369 -2.6574 -1.1264 -0.7573
21678SOL     OW72148   9.528   0.648   5.421  0.0990 -0.4399  0.1988
21678SOL    HW172149   9.602   0.689   5.466  0.1623  0.6797 -0.8700
21678SOL    HW272150   9.473   0.722   5.393  0.0009 -1.0925 -1.4282
21679SOL     OW72151   8.934   6.361  10.468 -0.2518  0.2254 -0.3905
21679SOL    HW172152   8.915   6.274  10.502 -1.8156  0.7421  0.1673
21679SOL    HW272153   8.908   6.357  10.376 -2.1819  0.6067  0.0972
21680SOL     OW72154   2.506   2.757   3.056  0.1935  0.0024 -0.2194
21680SOL    HW172155   2.566   2.818   3.099 -0.6179  2.0575 -1.8610
21680SOL    HW272156   2.562   2.689   3.021  1.4872  1.3018 -0.7736
21681SOL     OW72157  12.937   6.775   2.544 -0.1187  0.1949  0.0991
21681SOL    HW172158  12.998   6.844   2.519  0.6614 -0.3015  0.5596
21681SOL    HW272159  12.880   6.764   2.468 -0.1425  1.2139 -0.0399
21682SOL     OW72160  12.411   7.689  10.823  0.2103  0.5203 -0.0265
21682SOL    HW172161  12.318   7.708  10.809 -0.1576 -0.4133  1.0132
21682SOL    HW272162  12.450   7.775  10.839 -0.1956  1.0863 -1.8125
21683SOL     OW72163   9.319   0.745  10.400  0.1934  0.1248  0.0067
21683SOL    HW172164   9.395   0.780  10.447  0.5512 -0.2077 -0.3218
21683SOL    HW272165   9.244   0.787  10.442  0.4658 -0.6450  1.2936
21684SOL     OW72166   0.760   4.220   7.399 -0.5727  0.2000  0.5379
21684SOL    HW172167   0.844   4.194   7.436  0.9886  0.6732 -2.3478
21684SOL    HW272168   0.702   4.146   7.414  1.2840 -1.4490 -0.0140
21685SOL     OW72169   9.918   8.979   0.858 -0.2484 -0.3787  0.5940
21685SOL    HW172170   9.926   9.044   0.928 -0.0467  0.3370 -0.0822
21685SOL    HW272171   9.868   8.907   0.898 -1.6636  0.7732  0.9687
21686SOL     OW72172   5.770   3.654  11.340 -0.0842 -0.1681  0.3355
21686SOL    HW172173   5.815   3.726  11.296  0.6693 -0.9095 -0.1355
21686SOL    HW272174   5.738   3.692  11.422  0.0122  0.7824 -0.0618
21687SOL     OW72175   1.349  12.563   5.925 -0.3062 -0.9151  0.4470
21687SOL    HW172176   1.379  12.598   6.008 -0.7833 -0.7714  0.5626
21687SOL    HW272177   1.427  12.563   5.869  0.0193 -1.0255  0.8922
21688SOL     OW72178  10.040  11.084   1.468 -0.3864 -0.4643  0.4832
21688SOL    HW172179  10.116  11.098   1.413  0.5098 -1.4963  1.4151
21688SOL    HW272180  10.032  10.989   1.476 -2.9945 -0.4965 -1.2225
21689SOL     OW72181   4.258   3.009   9.920 -0.1121  0.2005 -0.0495
21689SOL    HW172182   4.324   2.951   9.959 -0.5940  0.1998  0.7791
21689SOL    HW272183   4.292   3.027   9.832  1.7642  1.4179  0.8559
21690SOL     OW72184   2.942  11.020   3.895 -0.0453 -0.2694 -0.2304
21690SOL    HW172185   2.888  11.047   3.969  0.8313  0.2149  0.2498
21690SOL    HW272186   2.957  10.927   3.909 -1.2273 -0.5484 -0.6881
21691SOL     OW72187   7.137  10.884   8.325 -0.4696  0.0175  0.6129
21691SOL    HW172188   7.103  10.839   8.402 -0.4440 -1.3232 -0.1344
21691SOL    HW272189   7.222  10.843   8.308 -0.8983 -0.3922 -0.6826
21692SOL     OW72190   7.375  11.716  12.395  0.1780 -0.2451 -0.5254
21692SOL    HW172191   7.442  11.755  12.339 -0.1627 -1.1311 -1.5830
21692SOL    HW272192   7.346  11.638  12.348 -2.0780  0.4647 -0.4291
21693SOL     OW72193   0.553   6.685  11.629  0.0213 -0.7496  0.0384
21693SOL    HW172194   0.599   6.748  11.685 -3.3662  2.1003 -0.0439
21693SOL    HW272195   0.517   6.621  11.689 -0.6583  0.2873  0.7676
21694SOL     OW72196  10.700   2.863   8.895 -0.2322 -0.1934  0.0680
21694SOL    HW172197  10.796   2.867   8.890 -0.2797  1.1356 -0.1375
21694SOL    HW272198  10.681   2.867   8.989 -0.1408  2.4409  0.0339
21695SOL     OW72199   0.946   8.180   5.953 -0.1232  0.1673  0.3435
21695SOL    HW172200   0.937   8.092   5.990  1.8458 -0.0523  0.3789
21695SOL    HW272201   0.918   8.171   5.862  0.8095 -0.7079  0.1261
21696SOL     OW72202   0.748   2.871   5.004 -0.4604  0.2231  0.4393
21696SOL    HW172203   0.695   2.873   5.084 -0.7401  0.9254  0.2375
21696SOL    HW272204   0.713   2.941   4.950  0.1998  0.2198 -0.0042
21697SOL     OW72205   0.988   4.444   5.700  0.5279  0.2531  0.3020
21697SOL    HW172206   1.024   4.375   5.643 -0.3837 -0.5953  0.7083
21697SOL    HW272207   1.062   4.471   5.754  1.4400  1.1440 -1.3200
21698SOL     OW72208  10.879   0.179   4.573  0.2827 -0.0320 -0.0764
21698SOL    HW172209  10.878   0.198   4.479 -0.6434 -0.5492 -0.1903
21698SOL    HW272210  10.946   0.112   4.584  1.4099  1.0598 -0.1352
21699SOL     OW72211   7.528   8.523  11.106 -0.2158  0.4970  0.8051
21699SOL    HW172212   7.433   8.530  11.097  0.0739  1.5607 -3.4918
21699SOL    HW272213   7.542   8.430  11.125 -2.1021 -0.1334 -0.4890
21700SOL     OW72214   8.851   1.443  12.773  0.0371  0.2381 -0.0095
21700SOL    HW172215   8.873   1.371  12.714 -1.4472  0.6552 -1.1338
21700SOL    HW272216   8.765   1.420  12.808 -0.1601  1.1505  0.1369
21701SOL     OW72217   4.724   2.137   1.051  0.1014  0.4358  0.1376
21701SOL    HW172218   4.647   2.079   1.046 -0.0646  0.7553 -2.9124
21701SOL    HW272219   4.798   2.080   1.031  0.7978  0.1115  3.1504
21702SOL     OW72220   8.223   2.090   1.569  0.0323 -0.1032  0.0616
21702SOL    HW172221   8.175   2.153   1.515 -0.3301 -0.0772  0.4083
21702SOL    HW272222   8.182   2.096   1.656  0.9948  0.2804  0.4978
21703SOL     OW72223  11.874   1.621  12.951  0.0269  0.2170 -0.1315
21703SOL    HW172224  11.919   1.590  12.872 -0.7846 -2.0702  0.2077
21703SOL    HW272225  11.946   1.641  13.012  0.6580  2.0241 -1.3821
21704SOL     OW72226   7.927   6.712   1.821 -0.5616  0.3788  0.0519
21704SOL    HW172227   7.968   6.698   1.736  1.5022 -2.8142  1.4069
21704SOL    HW272228   7.833   6.710   1.802 -0.1750 -1.0613 -2.0985
21705SOL     OW72229   8.662  10.022   6.736  0.3849 -0.2737  0.3488
21705SOL    HW172230   8.713   9.969   6.797  0.3776 -0.5740  0.0928
21705SOL    HW272231   8.631  10.096   6.789 -0.1220 -0.8431  0.8673
21706SOL     OW72232  11.320  12.328   2.442  0.1319 -0.2836 -0.4658
21706SOL    HW172233  11.276  12.413   2.435  0.4713 -0.2089 -2.1990
21706SOL    HW272234  11.285  12.277   2.368 -0.7813 -2.0207  1.0757
21707SOL     OW72235  12.950   9.077  11.592  0.5377 -0.5804  0.6718
21707SOL    HW172236  12.918   9.010  11.652 -0.1704  0.8642  1.9724
21707SOL    HW272237  13.042   9.089  11.615 -0.0572  0.9699  2.5588
21708SOL     OW72238  11.617   5.919   1.993  0.8821  0.0188  0.6127
21708SOL    HW172239  11.628   5.987   2.060  0.8707 -1.4608  2.1617
21708SOL    HW272240  11.706   5.887   1.976  0.8387  0.1038  0.2182
21709SOL     OW72241   9.695  11.695   9.492 -0.5954 -0.3191 -0.1404
21709SOL    HW172242   9.733  11.616   9.451  2.2548  0.7641  0.1818
21709SOL    HW272243   9.706  11.681   9.586 -4.5881 -1.5667  0.3090
21710SOL     OW72244   5.860   8.343   0.515  0.3987 -0.1962 -0.7862
21710SOL    HW172245   5.865   8.370   0.607  1.5973  0.5026 -1.0331
21710SOL    HW272246   5.890   8.252   0.516 -1.1048 -0.7075 -0.2961
21711SOL     OW72247  12.900   1.055   8.694 -0.3961 -0.4318  0.1568
21711SOL    HW172248  12.843   0.979   8.682 -0.4576 -0.3552 -0.0518
21711SOL    HW272249  12.965   1.047   8.624  0.5561 -1.1448  1.1068
21712SOL     OW72250  12.244   2.382   7.336  0.2462 -0.6386  0.4761
21712SOL    HW172251  12.311   2.408   7.272 -0.6492 -2.2085 -1.2045
21712SOL    HW272252  12.291   2.330   7.400  0.5482 -2.8461 -1.3923
21713SOL     OW72253  12.650   4.105   5.823 -0.0535  0.1911 -0.3065
21713SOL    HW172254  12.644   4.114   5.919 -0.8633  2.0053 -0.4884
21713SOL    HW272255  12.738   4.136   5.802  0.5929 -1.3638 -0.0861
21714SOL     OW72256   5.212   8.587   4.268 -0.0344  0.0651 -0.1947
21714SOL    HW172257   5.224   8.662   4.211  0.1572 -1.0073 -1.6335
21714SOL    HW272258   5.209   8.512   4.209 -0.9818 -1.0005  1.1208
21715SOL     OW72259   1.733   5.567   3.148  0.9063 -0.3223  0.0357
21715SOL    HW172260   1.810   5.621   3.132  0.7847  0.3845  1.6407
21715SOL    HW272261   1.768   5.489   3.192  0.8341 -0.5518 -0.3108
21716SOL     OW72262   9.532   6.809   2.758  0.3530 -0.3944  0.1683
21716SOL    HW172263   9.615   6.773   2.725  0.1920 -1.0530  0.4617
21716SOL    HW272264   9.523   6.772   2.846 -0.2173 -0.2691  0.1654
21717SOL     OW72265   4.045   0.449  11.403 -0.4066 -0.2400  0.3530
21717SOL    HW172266   4.130   0.419  11.373 -0.5792  1.3926 -1.9987
21717SOL    HW272267   4.055   0.543  11.416 -1.7386 -0.0886  0.4481
21718SOL     OW72268   9.004   8.850   1.499  0.1052 -0.0834  0.0520
21718SOL    HW172269   9.098   8.835   1.505 -0.1511 -1.9137  0.0092
21718SOL    HW272270   8.996   8.941   1.470  1.8638 -0.0647 -0.4896
21719SOL     OW72271   0.360   1.378   4.307 -0.2912 -0.4630  0.1650
21719SOL    HW172272   0.273   1.414   4.291 -1.1977 -1.3522  2.5274
21719SOL    HW272273   0.353   1.286   4.281  0.6336 -0.0595 -1.6288
21720SOL     OW72274  11.230  10.439  11.688  0.1629  0.9852 -0.0245
21720SOL    HW172275  11.198  10.417  11.600  0.4575  1.9491 -0.3759
21720SOL    HW272276  11.307  10.493  11.673  1.8515 -1.0226  0.8135
21721SOL     OW72277   2.962   3.238   4.696  0.8437 -0.4633  0.6439
21721SOL    HW172278   2.868   3.258   4.697  1.3710  2.4206 -0.3924
21721SOL    HW272279   2.967   3.152   4.653 -1.2229  0.0571 -0.7769
21722SOL     OW72280  12.060   3.856   1.004 -0.2215  0.4355  0.2301
21722SOL    HW172281  12.011   3.932   1.036 -0.2362  0.1696  0.8501
21722SOL    HW272282  12.099   3.818   1.083 -0.9197 -0.7093  0.0402
21723SOL     OW72283   8.660   0.090   8.322 -0.2052  0.4325 -0.3121
21723SOL    HW172284   8.645   0.008   8.274 -1.8207  0.8660 -0.6182
21723SOL    HW272285   8.723   0.067   8.390  0.4808 -0.7141 -1.2950
21724SOL     OW72286  10.096   5.052   7.993 -1.0742  0.3742 -0.6314
21724SOL    HW172287  10.022   5.073   8.051  0.2733 -1.6817  2.0231
21724SOL    HW272288  10.160   5.121   8.010 -1.1174  0.3748 -0.4648
21725SOL     OW72289   8.559   0.299   7.653  0.4990  0.1049 -0.0589
21725SOL    HW172290   8.545   0.357   7.728 -0.3850 -1.1574  0.8014
21725SOL    HW272291   8.576   0.358   7.580 -0.0499  1.4250  0.8352
21726SOL     OW72292   1.468  12.321   6.260  0.1687  0.6570  0.3163
21726SOL    HW172293   1.531  12.349   6.193  0.0004 -1.0858 -0.6253
21726SOL    HW272294   1.433  12.238   6.227  0.0673 -0.2749  2.5650
21727SOL     OW72295  12.299   0.725  10.668 -0.0594  0.1814  0.3423
21727SOL    HW172296  12.324   0.818  10.671  1.2717 -0.0532 -1.4394
21727SOL    HW272297  12.217   0.724  10.619  0.5639  0.3538 -0.7447
21728SOL     OW72298   1.946   0.325   2.933 -0.4192  0.1564 -0.5774
21728SOL    HW172299   1.944   0.420   2.921 -1.8720  0.2167 -0.1062
21728SOL    HW272300   1.925   0.290   2.847 -0.7146  0.2921 -0.5623
21729SOL     OW72301   1.871   0.705   1.794 -0.2792 -0.1468  0.0044
21729SOL    HW172302   1.826   0.669   1.871 -1.0091  0.2604 -0.2241
21729SOL    HW272303   1.875   0.799   1.811 -0.8418 -0.0003 -0.6577
21730SOL     OW72304   0.264   1.342  11.369  0.2202  0.0226 -0.1872
21730SOL    HW172305   0.188   1.385  11.329  1.5771  2.3452 -0.4639
21730SOL    HW272306   0.312   1.413  11.410  0.8850 -1.7601  2.3309
21731SOL     OW72307   2.810   9.803   4.696 -0.6081 -0.1082  0.7636
21731SOL    HW172308   2.802   9.752   4.616 -0.4130  0.0291  0.6538
21731SOL    HW272309   2.893   9.849   4.687 -0.9669  0.5331  0.6856
21732SOL     OW72310   7.099   3.990   6.525  0.5612 -0.0161 -0.1716
21732SOL    HW172311   7.135   4.079   6.527  1.4633 -0.3766  1.4484
21732SOL    HW272312   7.173   3.934   6.547 -0.5622 -0.9281  1.4852
21733SOL     OW72313   9.872  11.626   2.891  0.4578 -0.2876 -0.6043
21733SOL    HW172314   9.798  11.665   2.939  1.0380  1.6414 -1.1769
21733SOL    HW272315   9.904  11.557   2.949 -2.4120 -1.9408 -0.8082
21734SOL     OW72316  12.298   9.466  10.586  0.0217 -0.2250 -0.1067
21734SOL    HW172317  12.274   9.550  10.545 -0.2345 -1.5687 -2.9515
21734SOL    HW272318  12.393   9.461  10.576  0.3464  0.6132  2.0401
21735SOL     OW72319   5.831  10.156   7.456 -0.3637 -0.5315  0.3020
21735SOL    HW172320   5.809  10.066   7.431 -2.1815  0.0172 -0.2512
21735SOL    HW272321   5.926  10.161   7.449 -0.4120 -1.6968 -2.1826
21736SOL     OW72322   5.639   6.371   8.959  0.4914  0.5064 -0.1139
21736SOL    HW172323   5.614   6.361   9.051  0.0459  0.2885 -0.2560
21736SOL    HW272324   5.601   6.294   8.915  0.5319  0.7118 -0.5151
21737SOL     OW72325  11.211   9.957   7.647  0.0161  0.1310 -0.5285
21737SOL    HW172326  11.263   9.988   7.573 -0.4906  0.7812 -0.6246
21737SOL    HW272327  11.120   9.958   7.615  0.0110 -2.1403 -0.7746
21738SOL     OW72328   0.271  12.293   4.629 -0.1931  0.3888 -0.0200
21738SOL    HW172329   0.273  12.284   4.724  1.1062 -1.1415 -0.1514
21738SOL    HW272330   0.362  12.279   4.602 -0.9631 -1.9878 -1.6718
21739SOL     OW72331   2.213  10.095   0.998 -0.2446 -0.2966  0.0784
21739SOL    HW172332   2.120  10.104   0.979  0.0642  1.2841 -0.7919
21739SOL    HW272333   2.226  10.144   1.079  0.1225  1.0086 -0.7433
21740SOL     OW72334  10.567   0.820   7.209  0.6344  0.5075  0.1794
21740SOL    HW172335  10.584   0.738   7.257 -2.2058 -0.1001  0.3177
21740SOL    HW272336  10.576   0.888   7.275  0.2297  0.0245  0.7441
21741SOL     OW72337   8.166   8.965  11.499 -0.0591 -0.0548 -0.1781
21741SOL    HW172338   8.237   8.912  11.462  0.6953  1.3249 -0.7637
21741SOL    HW272339   8.127   9.009  11.423  1.1686  2.4159  0.5328
21742SOL     OW72340   7.506   6.887   5.343 -0.4393  0.3676  0.5255
21742SOL    HW172341   7.440   6.834   5.388 -0.7978  1.7669  1.7250
21742SOL    HW272342   7.518   6.963   5.399  3.4609 -0.5804  1.2528
21743SOL     OW72343   8.849   8.074   0.579 -0.4179 -0.0829  0.3623
21743SOL    HW172344   8.811   8.090   0.665 -1.9721 -2.6745  0.2667
21743SOL    HW272345   8.938   8.043   0.598 -0.2853  0.5993  0.9222
21744SOL     OW72346  11.579  12.785   1.538 -0.5208  0.1474  0.2096
21744SOL    HW172347  11.635  12.862   1.528 -0.0604 -0.2841 -0.6402
21744SOL    HW272348  11.593  12.734   1.459 -1.9855 -0.0732  0.0514
21745SOL     OW72349   1.325   3.078   7.939  0.0431 -0.5107  0.4760
21745SOL    HW172350   1.254   3.138   7.960 -0.2353 -1.3365  2.0660
21745SOL    HW272351   1.295   2.993   7.973  2.0410 -0.7523  1.7950
21746SOL     OW72352   0.409   0.745   8.351  0.9817  0.3221 -0.2071
21746SOL    HW172353   0.356   0.666   8.362 -0.3682  1.1011 -0.9098
21746SOL    HW272354   0.349   0.811   8.316  2.0662  1.6972  0.4040
21747SOL     OW72355  12.411   5.992   6.437 -0.0154 -0.4189 -0.0062
21747SOL    HW172356  12.404   5.901   6.468  1.8672 -1.1417 -1.5240
21747SOL    HW272357  12.378   5.989   6.347  0.4025  0.3223 -0.1874
21748SOL     OW72358  11.540   7.077   9.946 -0.1889 -0.0759  0.0134
21748SOL    HW172359  11.556   7.060   9.853  2.3179  0.3561  0.3053
21748SOL    HW272360  11.517   6.991   9.982  1.4858 -0.7907 -0.5393
21749SOL     OW72361   1.508   4.534   1.467  0.5415  0.1542 -0.1344
21749SOL    HW172362   1.501   4.617   1.514 -1.0038  0.1321 -0.2640
21749SOL    HW272363   1.421   4.495   1.475  0.1800  0.1579 -3.0029
21750SOL     OW72364   1.928   0.109  10.004  0.4438  0.2992 -0.2625
21750SOL    HW172365   1.844   0.074   9.976  0.2337  0.4402  0.1919
21750SOL    HW272366   1.911   0.148  10.089  0.9448  0.4276 -0.2188
21751SOL     OW72367   3.786  12.004   0.864 -0.6352  0.4467  0.1947
21751SOL    HW172368   3.791  11.922   0.913  0.0443 -0.2087 -0.9238
21751SOL    HW272369   3.711  12.050   0.902 -1.2824 -0.8686  0.5789
21752SOL     OW72370   5.333   3.070   5.241  0.4389 -0.0839  0.4756
21752SOL    HW172371   5.318   3.134   5.172  2.3398 -0.9455 -0.8184
21752SOL    HW272372   5.263   3.086   5.304 -1.9326  0.1249 -2.0601
21753SOL     OW72373   6.823   6.558   5.169 -0.2483  0.4875  0.4237
21753SOL    HW172374   6.914   6.531   5.160 -0.8769 -1.6442 -0.3398
21753SOL    HW272375   6.817   6.595   5.257  1.5707  1.7402  0.0599
21754SOL     OW72376   3.020   5.400   7.028  0.2148  0.4392  1.0386
21754SOL    HW172377   2.953   5.441   7.083  0.7942  0.0515  2.0539
21754SOL    HW272378   2.976   5.386   6.944 -0.6046  1.2888  1.3052
21755SOL     OW72379   1.561  11.672   2.213  0.2695 -0.0242  0.0333
21755SOL    HW172380   1.647  11.712   2.207 -0.6118  2.1504  0.9218
21755SOL    HW272381   1.499  11.743   2.194 -1.3420 -1.5381 -0.6740
21756SOL     OW72382  12.722   5.328   0.769 -0.2334 -0.3131  0.3487
21756SOL    HW172383  12.716   5.361   0.859 -0.2114 -1.0983  0.6525
21756SOL    HW272384  12.804   5.279   0.767 -0.5474 -0.8327  0.0872
21757SOL     OW72385  12.731  12.032  10.253 -0.1173  0.1727  0.0164
21757SOL    HW172386  12.819  12.038  10.288  1.4560 -4.0300 -2.5396
21757SOL    HW272387  12.687  11.967  10.308  0.0978 -1.3667 -1.5627
21758SOL     OW72388   9.960   8.595  11.580  0.0366  0.1954 -0.4064
21758SOL    HW172389   9.978   8.530  11.513  0.7008 -0.9647  0.8395
21758SOL    HW272390  10.006   8.563  11.658 -0.8286  1.4015  0.6553
21759SOL     OW72391   0.825   0.227   4.474 -0.2612 -0.2411  0.7116
21759SOL    HW172392   0.903   0.202   4.424 -2.4272 -2.0719 -2.1039
21759SOL    HW272393   0.753   0.183   4.429 -2.8860  0.7273  3.6040
21760SOL     OW72394   4.360  10.758  10.763  0.4031 -0.1795  0.4569
21760SOL    HW172395   4.404  10.683  10.804 -0.2209  0.0744  1.6330
21760SOL    HW272396   4.387  10.833  10.815  1.0393  0.4292 -0.7366
21761SOL     OW72397   0.571   2.684   3.024  0.2326 -0.5593 -0.3136
21761SOL    HW172398   0.492   2.734   3.008  0.9067 -0.4006 -3.9641
21761SOL    HW272399   0.540   2.600   3.058 -1.3274  0.0950 -0.0500
21762SOL     OW72400   3.523  11.835   4.201 -0.6243  0.1739 -0.0665
21762SOL    HW172401   3.581  11.761   4.183  0.2289 -0.2158  3.5477
21762SOL    HW272402   3.571  11.911   4.168  0.7092 -0.4201  0.4523
21763SOL     OW72403   3.011   1.573  11.419 -0.2582  0.2293  0.0701
21763SOL    HW172404   2.917   1.580  11.400 -0.4489 -1.5609  0.2401
21763SOL    HW272405   3.042   1.664  11.416 -1.6213  0.6859 -1.7851
21764SOL     OW72406   0.694  10.515  10.938 -0.1411 -0.2090  0.2467
21764SOL    HW172407   0.688  10.596  10.888 -1.2315 -0.1898  0.3700
21764SOL    HW272408   0.666  10.447  10.877 -1.4409 -0.1919  0.7823
21765SOL     OW72409  10.175   1.792   1.250  0.2586 -0.4956 -0.3980
21765SOL    HW172410  10.249   1.851   1.262 -0.3704  0.1292  0.5799
21765SOL    HW272411  10.187   1.723   1.315 -0.1085 -0.2948 -0.1137
21766SOL     OW72412  11.315   7.150   4.492 -0.3008  0.3945  0.1170
21766SOL    HW172413  11.314   7.245   4.503  0.0752  0.3364  0.7047
21766SOL    HW272414  11.250   7.133   4.424 -1.6509  0.9315  1.2341
21767SOL     OW72415   2.517   4.774   2.361  0.6399  0.3369  0.1827
21767SOL    HW172416   2.545   4.863   2.383  0.4823  0.4797 -0.1910
21767SOL    HW272417   2.479   4.781   2.274 -1.5154  0.3735  1.0421
21768SOL     OW72418   8.080   3.259  10.573 -0.2148 -0.4359 -0.6952
21768SOL    HW172419   8.043   3.299  10.494 -1.1722 -1.1729 -0.6456
21768SOL    HW272420   8.136   3.326  10.610  1.2503 -0.4850 -2.6572
21769SOL     OW72421   7.990   1.712   4.699 -0.1895  0.1003  0.2072
21769SOL    HW172422   8.033   1.682   4.619  0.2348  1.7475 -0.1977
21769SOL    HW272423   7.899   1.683   4.689 -0.0736  0.0390 -0.7383
21770SOL     OW72424  10.456   8.619   2.841  0.4991  0.3266  0.5389
21770SOL    HW172425  10.422   8.595   2.927 -2.1803  0.6120 -0.3499
21770SOL    HW272426  10.523   8.553   2.821 -1.4558 -1.9972  1.2802
21771SOL     OW72427   5.914   2.311   4.171 -0.3481 -0.2413  0.1529
21771SOL    HW172428   5.845   2.368   4.203 -1.7085  0.2742 -3.3426
21771SOL    HW272429   5.991   2.367   4.165 -0.7476  0.3015  0.0775
21772SOL     OW72430   8.585  10.850   2.047  0.0402 -0.4823  0.1357
21772SOL    HW172431   8.608  10.937   2.013 -0.7464  0.5504  2.0473
21772SOL    HW272432   8.517  10.819   1.988  0.9311 -0.2020 -1.0818
21773SOL     OW72433   6.124   1.691  10.346  0.2004  0.2230 -0.3259
21773SOL    HW172434   6.110   1.775  10.303 -2.2730 -0.3981 -0.9028
21773SOL    HW272435   6.094   1.705  10.435 -1.7755 -0.4023 -0.8429
21774SOL     OW72436   0.201   8.500   3.319 -0.2459 -0.3427  0.5813
21774SOL    HW172437   0.240   8.561   3.382 -0.5642  0.4348  0.0453
21774SOL    HW272438   0.276   8.449   3.287  0.2119  0.5225  0.2311
21775SOL     OW72439  12.839   7.534   5.754 -0.2213  0.1348 -0.2960
21775SOL    HW172440  12.829   7.512   5.662 -1.4541 -1.2318  0.1229
21775SOL    HW272441  12.894   7.612   5.755  1.2289 -0.7917 -2.1003
21776SOL     OW72442   7.815   2.015   8.384 -0.0662  0.3492  0.3268
21776SOL    HW172443   7.883   1.954   8.355 -2.1357 -1.4825 -1.0100
21776SOL    HW272444   7.816   2.008   8.479  1.1217 -0.1940  0.2899
21777SOL     OW72445   9.185   5.368   7.300 -0.4653  0.3249 -0.0636
21777SOL    HW172446   9.256   5.408   7.350 -0.5215  0.5450 -0.1585
21777SOL    HW272447   9.126   5.333   7.367 -1.0594  1.5168  0.0569
21778SOL     OW72448  11.360   2.151   4.075 -0.4034  0.4783  0.5481
21778SOL    HW172449  11.311   2.086   4.126 -2.1369 -1.1030 -2.7990
21778SOL    HW272450  11.400   2.100   4.005  2.7247  2.3801  0.7791
21779SOL     OW72451   2.771  11.444  12.205  0.1740 -0.0516 -0.0565
21779SOL    HW172452   2.801  11.360  12.238  3.9599  0.3519 -1.9340
21779SOL    HW272453   2.744  11.492  12.283  2.4126 -1.4023  1.6748
21780SOL     OW72454   3.812   4.351   4.205 -0.0222 -0.0659  0.0865
21780SOL    HW172455   3.879   4.342   4.136 -0.0456 -0.3854  0.1027
21780SOL    HW272456   3.862   4.373   4.284 -0.0184  0.5534 -0.0836
21781SOL     OW72457   9.229   3.210  10.135  0.3714 -0.3783 -0.2738
21781SOL    HW172458   9.296   3.267  10.173 -0.4444  0.5460 -0.1802
21781SOL    HW272459   9.261   3.121  10.152  1.1602  0.0330  0.5146
21782SOL     OW72460  10.300  12.092   7.613 -0.3502  0.4518  0.3294
21782SOL    HW172461  10.371  12.130   7.561 -0.9373  1.1129 -0.0048
21782SOL    HW272462  10.284  12.007   7.573 -0.9698  1.0568 -0.7718
21783SOL     OW72463   4.715   3.544   7.862  0.3275  0.0361 -0.0770
21783SOL    HW172464   4.722   3.457   7.822  1.7845 -0.1525  0.5550
21783SOL    HW272465   4.666   3.596   7.798 -2.5530 -1.7886  0.4563
21784SOL     OW72466   6.543   9.887  11.166  0.0332  0.2393  0.1482
21784SOL    HW172467   6.575   9.977  11.159  0.1387  0.1271 -1.1600
21784SOL    HW272468   6.611   9.841  11.215 -0.9037  1.2555  2.5081
21785SOL     OW72469  11.893   5.300   6.804  0.2258  0.8652  0.0378
21785SOL    HW172470  11.910   5.343   6.888  2.0547  1.2097 -0.4560
21785SOL    HW272471  11.895   5.206   6.824 -1.4462  0.9363  0.7084
21786SOL     OW72472   2.178   2.995  10.611 -0.4009  0.0818 -0.0691
21786SOL    HW172473   2.172   2.965  10.521  0.7130  0.0665 -0.1502
21786SOL    HW272474   2.128   2.932  10.661 -0.5021 -0.2645 -0.6017
21787SOL     OW72475   9.253  12.765   6.648  0.1502  0.5216 -0.3743
21787SOL    HW172476   9.164  12.799   6.653  0.0686  0.3255 -0.4959
21787SOL    HW272477   9.248  12.679   6.688  0.3614  0.6560 -0.0562
21788SOL     OW72478   3.007   1.507  12.073  0.0003  0.0539 -0.6940
21788SOL    HW172479   2.936   1.444  12.061  0.3996 -1.2810  2.8194
21788SOL    HW272480   3.078   1.457  12.113  2.2863  1.7558 -2.3399
21789SOL     OW72481  10.009  12.547   2.442  0.4363 -0.2922 -0.0850
21789SOL    HW172482  10.049  12.473   2.487  1.2223  0.4308  0.4529
21789SOL    HW272483  10.056  12.623   2.477 -0.7754  0.5055 -0.1408
21790SOL     OW72484  11.651   3.734   3.674 -0.3910  1.0791  0.4203
21790SOL    HW172485  11.741   3.718   3.702  0.2217 -0.5553 -2.1718
21790SOL    HW272486  11.600   3.731   3.755  1.4016 -1.8164  1.5849
21791SOL     OW72487   1.472   1.293   9.095  0.3984  0.3834  0.2339
21791SOL    HW172488   1.435   1.381   9.110 -1.5290 -0.0515 -1.4590
21791SOL    HW272489   1.397   1.234   9.103  1.0467 -0.7669 -1.6787
21792SOL     OW72490   4.658   8.168  10.861  0.2960  0.0316 -0.3047
21792SOL    HW172491   4.724   8.234  10.839  0.9826 -0.2225  0.8505
21792SOL    HW272492   4.584   8.218  10.895  0.8923  0.2235  0.7515
21793SOL     OW72493   8.215   6.211  12.691  0.0983 -0.1101 -0.0163
21793SOL    HW172494   8.235   6.119  12.680 -0.9362 -0.5223  1.2942
21793SOL    HW272495   8.205   6.245  12.602  0.5547 -1.2417 -0.5088
21794SOL     OW72496   8.643   0.953   6.649 -0.0268 -0.0007  0.0194
21794SOL    HW172497   8.637   0.901   6.568  1.6634 -2.2182  1.2092
21794SOL    HW272498   8.591   1.032   6.630 -0.1575 -0.6659 -3.0110
21795SOL     OW72499   8.005  12.143   3.892 -0.1210 -0.0602 -0.4779
21795SOL    HW172500   8.045  12.060   3.866  1.5446  0.2384  0.9511
21795SOL    HW272501   7.939  12.118   3.956  1.3244 -0.2644  1.0184
21796SOL     OW72502   7.152   1.100  11.332 -0.2784  0.2781  0.5495
21796SOL    HW172503   7.060   1.122  11.321 -0.8884 -2.0344  0.4327
21796SOL    HW272504   7.193   1.180  11.366 -2.0931  1.6780 -0.4166
21797SOL     OW72505   0.892  10.322  10.868  0.5839  0.0289 -0.0453
21797SOL    HW172506   0.846  10.334  10.785 -0.4772  0.6568  0.6080
21797SOL    HW272507   0.868  10.399  10.921  1.8159  0.0114  0.5928
21798SOL     OW72508  12.405   1.084   8.219 -0.3421  0.5474 -0.3133
21798SOL    HW172509  12.315   1.062   8.242 -0.6891 -2.7229 -3.7379
21798SOL    HW272510  12.396   1.154   8.154 -0.4873  0.1371 -0.7469
21799SOL     OW72511  11.956  12.717   7.910  0.0726  0.0833  0.0150
21799SOL    HW172512  11.957  12.692   7.817  0.0487 -1.2181  0.3530
21799SOL    HW272513  11.976  12.637   7.957 -1.6453  0.3099  1.2285
21800SOL     OW72514   0.693   4.569   6.349  0.1971  0.6089 -0.7178
21800SOL    HW172515   0.757   4.550   6.418  0.5990  1.8486 -0.7123
21800SOL    HW272516   0.612   4.589   6.396  0.4612  1.4147 -0.5796
21801SOL     OW72517   2.502   8.230   1.955  0.2113 -0.0678  0.2971
21801SOL    HW172518   2.426   8.212   1.900 -0.3047  1.0378  0.6317
21801SOL    HW272519   2.524   8.145   1.993 -1.1253 -0.3190  0.5521
21802SOL     OW72520   6.708   6.875   1.606  0.4718 -0.0589 -0.3516
21802SOL    HW172521   6.657   6.887   1.686 -0.7778  1.2816 -1.2942
21802SOL    HW272522   6.768   6.804   1.627 -2.5119 -2.5808  0.4853
21803SOL     OW72523  11.605   3.120  10.543 -0.6767  0.5711  0.1972
21803SOL    HW172524  11.590   3.110  10.636 -3.2839  1.8879 -0.0047
21803SOL    HW272525  11.649   3.205  10.534  0.4310  0.0278  0.2419
21804SOL     OW72526   6.992   6.165   0.112  0.1371  0.0492 -0.4042
21804SOL    HW172527   7.069   6.157   0.168 -0.7432 -1.0849  0.6824
21804SOL    HW272528   6.961   6.254   0.127  0.8531  0.2975 -0.3545
21805SOL     OW72529   4.200   8.656   9.156  0.5378  0.1291 -0.0090
21805SOL    HW172530   4.266   8.596   9.191  0.9587  0.3413 -0.4299
21805SOL    HW272531   4.117   8.608   9.163  0.7306 -0.1294  0.5450
21806SOL     OW72532   4.998   5.627   8.952 -0.6951  0.3951  0.3114
21806SOL    HW172533   4.970   5.594   9.037  0.6863  1.4494  1.2138
21806SOL    HW272534   4.935   5.590   8.890 -2.2996  0.3660  1.8852
21807SOL     OW72535  11.116   4.506   6.791 -0.3636 -0.0736  0.7058
21807SOL    HW172536  11.208   4.485   6.807  0.8653  3.4326 -0.7535
21807SOL    HW272537  11.088   4.443   6.726  2.3256  1.0835 -1.7865
21808SOL     OW72538   9.790   4.099  11.957  0.4772  0.9927  0.3483
21808SOL    HW172539   9.792   4.015  11.910 -0.4239  2.5151 -2.6392
21808SOL    HW272540   9.700   4.107  11.989  0.1689  1.4170 -0.5985
21809SOL     OW72541  10.277   8.849   3.806  0.4281  0.1380 -0.0269
21809SOL    HW172542  10.259   8.782   3.740  2.1928 -2.3777  1.8148
21809SOL    HW272543  10.191   8.885   3.827 -0.5579 -1.2136 -1.4537
21810SOL     OW72544  10.927  11.180   0.512  0.2782  0.1268  0.1286
21810SOL    HW172545  10.952  11.169   0.604 -0.3215 -0.8509  0.1821
21810SOL    HW272546  10.985  11.250   0.480  0.7387  0.2285  1.1468
21811SOL     OW72547   8.321   0.881   9.733 -0.4493  0.0336 -0.2289
21811SOL    HW172548   8.250   0.931   9.693  0.0951  0.9294 -0.0955
21811SOL    HW272549   8.282   0.795   9.751 -1.7436  0.7509  0.5666
21812SOL     OW72550   4.123   0.656   5.937 -0.4750  0.0238  0.0617
21812SOL    HW172551   4.168   0.701   5.866  0.0308 -0.7879 -0.1478
21812SOL    HW272552   4.056   0.718   5.967 -0.0619  0.7394 -0.4808
21813SOL     OW72553   6.788   9.567   6.965  0.2101  0.3225 -0.0949
21813SOL    HW172554   6.720   9.501   6.949  0.3258 -0.0412  0.8431
21813SOL    HW272555   6.800   9.610   6.880 -1.3203  0.5243 -0.2400
21814SOL     OW72556   0.331   2.640   5.545  0.7354  0.2179  0.0738
21814SOL    HW172557   0.369   2.673   5.626  0.1171 -0.3483  0.5980
21814SOL    HW272558   0.248   2.601   5.571  0.8266 -0.5468 -0.7334
21815SOL     OW72559  10.879  10.889   5.469 -0.3277 -0.2786 -0.0955
21815SOL    HW172560  10.865  10.806   5.513 -2.0365  0.2273  0.3904
21815SOL    HW272561  10.795  10.935   5.476  1.1897  2.5681  1.9493
21816SOL     OW72562  11.534   2.261   5.426 -0.2388 -0.1096 -0.0645
21816SOL    HW172563  11.520   2.195   5.358 -0.8582  1.4418 -1.5130
21816SOL    HW272564  11.544   2.343   5.378  1.0456  0.8096  1.6441
21817SOL     OW72565   9.655   8.086   1.645  0.0576 -0.2810 -0.1284
21817SOL    HW172566   9.608   8.166   1.666  0.4050 -0.3845  1.1427
21817SOL    HW272567   9.731   8.087   1.704 -1.4844 -2.9622  2.1723
21818SOL     OW72568   8.566   8.449   9.827 -0.0688  0.1104  0.0237
21818SOL    HW172569   8.637   8.513   9.829  0.6788 -0.7029 -0.1303
21818SOL    HW272570   8.555   8.423   9.918 -0.5117  0.5880  0.1149
21819SOL     OW72571   8.505   7.847   6.796  0.1701 -0.1241  0.3707
21819SOL    HW172572   8.467   7.933   6.812  1.6087  0.0752  3.4061
21819SOL    HW272573   8.511   7.841   6.700 -1.4449  2.4268  0.0056
21820SOL     OW72574   8.164   3.875   2.125  0.5813 -0.1658 -0.5257
21820SOL    HW172575   8.130   3.816   2.192 -1.5487  1.3402 -0.1631
21820SOL    HW272576   8.228   3.929   2.172 -0.3920  0.4197  0.1725
21821SOL     OW72577   1.226   6.372  10.590  0.3384  0.4658 -0.1846
21821SOL    HW172578   1.246   6.455  10.631  0.4846  1.6563 -2.5164
21821SOL    HW272579   1.151   6.390  10.533 -0.8308 -1.4581  0.6220
21822SOL     OW72580   5.656   5.398   2.385 -0.5756 -0.2985 -0.1064
21822SOL    HW172581   5.573   5.417   2.341 -1.4623 -2.2303  0.6417
21822SOL    HW272582   5.639   5.416   2.478 -0.9385 -2.7870  0.3896
21823SOL     OW72583   0.958   5.379   0.449 -0.0011 -0.5265 -0.5078
21823SOL    HW172584   0.999   5.441   0.388 -0.2112 -0.0850 -0.2053
21823SOL    HW272585   1.015   5.380   0.526  0.3120 -1.1486 -0.7265
21824SOL     OW72586   3.826   0.750  12.444 -0.6633  0.0170 -0.5522
21824SOL    HW172587   3.874   0.687  12.499 -1.2009 -0.9659 -1.1754
21824SOL    HW272588   3.894   0.800  12.400 -0.2136  0.7315  0.8771
21825SOL     OW72589  11.735   0.833   6.543  0.3301 -0.4449  0.2485
21825SOL    HW172590  11.678   0.755   6.544  0.7234 -0.7655 -0.7455
21825SOL    HW272591  11.806   0.809   6.484  0.5924  0.5867  0.1361
21826SOL     OW72592   7.946  12.865   1.489 -0.0583  0.1845 -0.0229
21826SOL    HW172593   7.893  12.939   1.459  0.5916  0.2294 -1.0910
21826SOL    HW272594   8.007  12.848   1.417  1.7222  0.4485  1.3512
21827SOL     OW72595  11.977   7.361   4.824  0.6292  0.6056  0.3002
21827SOL    HW172596  12.009   7.292   4.766  0.2835  0.0894  0.7201
21827SOL    HW272597  11.926   7.418   4.766 -1.4506 -1.0222  0.4220
21828SOL     OW72598   4.602  11.087   6.650  0.5610 -0.0877 -0.6156
21828SOL    HW172599   4.691  11.076   6.684  0.1892 -2.0925 -0.1531
21828SOL    HW272600   4.553  11.127   6.723  0.8557  0.0772 -0.5088
21829SOL     OW72601  12.059  10.717  11.806 -0.5092 -0.1359  0.1063
21829SOL    HW172602  12.121  10.656  11.846 -0.0961  1.2516  1.6766
21829SOL    HW272603  12.037  10.677  11.722  0.0977 -2.1973  0.8795
21830SOL     OW72604  10.444   5.395   9.434  0.0723 -0.3005 -0.3043
21830SOL    HW172605  10.428   5.301   9.440 -0.6067 -0.3145 -1.9393
21830SOL    HW272606  10.360   5.432   9.406  0.6871  0.6282 -0.9726
21831SOL     OW72607   5.457   8.155   8.560  0.0278  0.1829  0.6326
21831SOL    HW172608   5.461   8.105   8.642 -0.4281  0.6791  0.9662
21831SOL    HW272609   5.547   8.185   8.546  0.2533 -0.5158  0.5615
21832SOL     OW72610   1.215  12.111  11.102  0.1415  0.4417 -0.6163
21832SOL    HW172611   1.176  12.197  11.115 -0.0835  0.7115 -2.6317
21832SOL    HW272612   1.269  12.096  11.180  0.3680  2.5144 -0.3238
21833SOL     OW72613   5.116   3.210   8.102 -0.2239 -0.6541  0.2388
21833SOL    HW172614   5.071   3.258   8.033  1.2768  0.1571 -0.2166
21833SOL    HW272615   5.069   3.127   8.108 -1.6777  0.1027 -0.2873
21834SOL     OW72616   5.674  10.331   7.946 -0.1144 -0.0872 -0.4996
21834SOL    HW172617   5.749  10.344   8.005 -1.6720  1.7917  1.2603
21834SOL    HW272618   5.713  10.324   7.859  2.0991  1.1465  0.3002
21835SOL     OW72619   4.056   3.167  12.492  0.2927  0.8671 -0.3743
21835SOL    HW172620   3.981   3.117  12.460  0.9642 -0.7406  0.4561
21835SOL    HW272621   4.056   3.153  12.587  0.3568  2.7052 -0.0671
21836SOL     OW72622  10.658   4.042   6.595 -0.1687 -0.2134 -0.0330
21836SOL    HW172623  10.707   3.991   6.530  0.3178 -0.6056  0.6290
21836SOL    HW272624  10.642   3.980   6.667 -0.3758  0.3147  0.3842
21837SOL     OW72625   4.000   8.120   6.859  0.6850  0.5368 -0.1734
21837SOL    HW172626   4.031   8.038   6.898  0.2386  1.1962  1.6754
21837SOL    HW272627   4.080   8.169   6.840  1.0096 -0.6291 -2.1587
21838SOL     OW72628   4.405   5.391   0.620 -0.1247  0.0608  0.4523
21838SOL    HW172629   4.373   5.480   0.629 -0.0892 -0.0008  1.2044
21838SOL    HW272630   4.354   5.354   0.548  1.5821  1.4616 -1.6048
21839SOL     OW72631   5.035   2.276   2.179 -0.2233 -0.6278 -0.4257
21839SOL    HW172632   5.078   2.214   2.238  0.2171 -1.4225 -1.5462
21839SOL    HW272633   5.106   2.328   2.143 -0.5516  0.2609  0.1750
21840SOL     OW72634   8.377   6.673  12.154  0.4787 -0.1546 -0.4202
21840SOL    HW172635   8.456   6.660  12.207  0.5100 -0.1725 -0.4718
21840SOL    HW272636   8.314   6.611  12.189  0.8810 -1.0233 -1.1899
21841SOL     OW72637   3.354   5.037   8.455  0.4715  0.3700  0.1590
21841SOL    HW172638   3.305   4.955   8.456 -0.7010  1.0306 -0.1294
21841SOL    HW272639   3.422   5.024   8.389 -1.2702  0.4473 -1.7690
21842SOL     OW72640   0.089   0.369   5.484 -0.1248 -0.1071 -0.5651
21842SOL    HW172641   0.115   0.424   5.409 -0.0950 -0.4738 -0.8264
21842SOL    HW272642   0.148   0.294   5.479 -0.5152 -0.4178 -0.5198
21843SOL     OW72643   2.486   4.792   2.677  0.3169 -0.1628  0.3870
21843SOL    HW172644   2.571   4.811   2.715 -0.1727  3.5492 -0.0186
21843SOL    HW272645   2.505   4.768   2.586  0.9693  0.1240  0.4417
21844SOL     OW72646   3.947   5.274   9.367  0.2637  0.1727 -0.4771
21844SOL    HW172647   4.008   5.304   9.300  0.2244 -0.7365 -0.9408
21844SOL    HW272648   3.876   5.338   9.365 -0.0923 -0.2137 -1.8307
21845SOL     OW72649   1.175  12.198   2.746 -0.2074 -0.1712 -0.1656
21845SOL    HW172650   1.228  12.163   2.818 -0.7271 -1.5855 -0.4579
21845SOL    HW272651   1.239  12.218   2.677 -0.0463 -2.2733 -0.6848
21846SOL     OW72652   1.280   9.967   2.272  0.2327 -0.1351 -0.1844
21846SOL    HW172653   1.352  10.021   2.304 -0.4673  0.2522  0.8333
21846SOL    HW272654   1.216  10.031   2.239 -0.2117 -0.3793  0.1839
21847SOL     OW72655   6.696   6.585  10.571 -0.1478  0.1184 -0.3164
21847SOL    HW172656   6.787   6.596  10.546 -0.0094  2.9319  1.0486
21847SOL    HW272657   6.700   6.539  10.655 -0.2093 -2.0736 -1.4346
21848SOL     OW72658  11.932   4.939  10.432 -0.1868  0.3087 -0.7224
21848SOL    HW172659  12.027   4.943  10.419  0.0386 -1.8893 -0.1511
21848SOL    HW272660  11.916   4.995  10.508  0.7377  0.2312 -0.4590
21849SOL     OW72661   8.230   4.668   9.345  0.5069 -0.7711  0.1440
21849SOL    HW172662   8.315   4.678   9.387  0.0874 -1.6992  1.2918
21849SOL    HW272663   8.218   4.573   9.339 -0.4221 -0.6515 -0.0371
21850SOL     OW72664   8.448   0.986   2.638 -0.3645 -0.3586 -0.5086
21850SOL    HW172665   8.420   1.031   2.718  1.1157  1.2371 -0.8182
21850SOL    HW272666   8.469   0.898   2.667  0.5747  0.3133  0.9903
21851SOL     OW72667   8.369   2.610   5.163 -0.2325  0.4461 -0.0303
21851SOL    HW172668   8.366   2.576   5.073 -0.5381 -0.9736  0.4908
21851SOL    HW272669   8.421   2.690   5.156  0.4934 -0.0921 -1.3295
21852SOL     OW72670   7.522   9.353   2.367  0.5436  0.2575 -0.0010
21852SOL    HW172671   7.548   9.382   2.279 -0.0551  0.7760 -0.0103
21852SOL    HW272672   7.605   9.344   2.414  0.7992  1.2056 -0.2436
21853SOL     OW72673   0.696   2.020   1.800  0.0077 -0.1070  0.5924
21853SOL    HW172674   0.761   1.982   1.741  0.2812 -0.1468  0.9183
21853SOL    HW272675   0.746   2.078   1.857 -0.2938  0.1264  0.6187
21854SOL     OW72676   7.429   1.840  10.483  0.6626 -0.1857 -0.5599
21854SOL    HW172677   7.482   1.897  10.427  0.6109 -0.1420 -0.5642
21854SOL    HW272678   7.439   1.753  10.445  3.3495 -0.8208  1.2799
21855SOL     OW72679   7.378   5.572   7.666 -0.0109  0.0273 -0.2442
21855SOL    HW172680   7.379   5.618   7.583 -0.4318  0.0146 -0.2605
21855SOL    HW272681   7.410   5.635   7.730  1.4217 -0.3231 -0.5888
21856SOL     OW72682   5.580   9.332   2.517 -0.2212  0.4294  0.8322
21856SOL    HW172683   5.510   9.389   2.487 -0.4173 -0.1396  0.1869
21856SOL    HW272684   5.655   9.354   2.462  0.6310  2.1698  2.5671
21857SOL     OW72685   7.106   4.519   1.777  0.1122 -0.0037 -0.2709
21857SOL    HW172686   7.086   4.488   1.865  2.7797  0.7066  0.6563
21857SOL    HW272687   7.162   4.451   1.739 -0.8121 -0.1929 -1.3827
21858SOL     OW72688   3.144  12.305   2.424 -0.4250 -0.6993 -0.3050
21858SOL    HW172689   3.093  12.257   2.489 -0.8212  0.4557  0.2565
21858SOL    HW272690   3.120  12.397   2.437  1.0287 -0.2358 -0.7278
21859SOL     OW72691   7.186   9.667  12.015  0.2780  0.1461 -0.4308
21859SOL    HW172692   7.235   9.587  11.995  0.5186  0.6821 -2.1240
21859SOL    HW272693   7.179   9.667  12.111  0.3458 -1.8427 -0.3730
21860SOL     OW72694   3.427   4.191   2.777 -0.2556  0.1526 -0.2105
21860SOL    HW172695   3.388   4.118   2.729  0.1657  0.2989 -0.7920
21860SOL    HW272696   3.493   4.150   2.833 -0.0873  0.0731 -0.4638
21861SOL     OW72697   4.658   9.916   0.949 -0.2577  0.0287  0.3721
21861SOL    HW172698   4.633   9.853   0.882 -0.2267  1.8800 -1.4995
21861SOL    HW272699   4.576   9.956   0.978 -0.1346  0.5809 -0.0115
21862SOL     OW72700   7.040   2.748   3.938  0.0679  0.4225  0.1185
21862SOL    HW172701   7.043   2.833   3.982 -0.7501  0.6886 -0.3212
21862SOL    HW272702   6.953   2.744   3.900  0.2340 -0.4585 -0.1868
21863SOL     OW72703   2.409  11.918   0.750 -0.7926  0.0635 -0.5364
21863SOL    HW172704   2.360  11.980   0.805 -0.9334  0.5970 -1.2496
21863SOL    HW272705   2.379  11.936   0.661  1.9402  1.6854 -1.2686
21864SOL     OW72706  11.196   7.806   6.520  0.3586  0.6395  0.7991
21864SOL    HW172707  11.255   7.867   6.476  0.7331 -0.1159  0.2318
21864SOL    HW272708  11.245   7.776   6.596  0.8296 -0.1943  0.1801
21865SOL     OW72709   9.494   4.890   1.428 -0.0794 -1.0359  0.0753
21865SOL    HW172710   9.513   4.810   1.476 -0.5699 -0.4923  1.2192
21865SOL    HW272711   9.489   4.958   1.495  0.9620  0.0860 -0.9374
21866SOL     OW72712  10.190   1.740   1.688 -0.0444 -0.3114 -0.7314
21866SOL    HW172713  10.234   1.823   1.704 -0.6503 -0.4143  2.0708
21866SOL    HW272714  10.238   1.701   1.614  1.8986  1.3658 -0.4531
21867SOL     OW72715   2.982   7.784   9.367 -0.1389 -0.3650  0.1601
21867SOL    HW172716   2.910   7.723   9.382 -0.2060 -0.2930  0.1335
21867SOL    HW272717   3.008   7.768   9.276 -1.2541  0.7863 -0.3992
21868SOL     OW72718   1.702   1.774   7.363 -0.1340 -0.1756 -0.3104
21868SOL    HW172719   1.797   1.773   7.365 -0.0832  1.6029  0.4981
21868SOL    HW272720   1.676   1.771   7.456 -0.8629 -0.7911 -0.5255
21869SOL     OW72721   1.314   4.679  10.167 -0.7639 -0.3530  0.2448
21869SOL    HW172722   1.368   4.718  10.236 -1.0469  1.0464 -0.3014
21869SOL    HW272723   1.262   4.613  10.212 -0.1013 -0.2818  1.1525
21870SOL     OW72724   4.402  10.496  11.989 -0.2880 -0.1460  0.1754
21870SOL    HW172725   4.321  10.521  12.034 -0.2537  1.7120 -0.7045
21870SOL    HW272726   4.457  10.459  12.059 -1.1523  0.3855  1.1715
21871SOL     OW72727   5.524   0.577   3.098 -0.0908  0.7451  0.3368
21871SOL    HW172728   5.578   0.569   3.019 -1.0424 -0.7686 -0.2252
21871SOL    HW272729   5.434   0.582   3.065 -0.3298  3.9378  1.2159
21872SOL     OW72730   5.550   3.474   9.030 -0.0157 -0.4891  0.2135
21872SOL    HW172731   5.586   3.388   9.008  1.7981  0.3657 -0.3393
21872SOL    HW272732   5.561   3.526   8.951 -1.3554  0.1916  0.4484
21873SOL     OW72733   9.529   2.191  12.118 -0.8201  0.8953 -0.4645
21873SOL    HW172734   9.479   2.272  12.106 -2.3536  0.0199 -0.2761
21873SOL    HW272735   9.605   2.218  12.170 -0.9168  2.3316 -1.0085
21874SOL     OW72736  12.897   4.911   0.646  0.1138  0.3312 -0.3753
21874SOL    HW172737  12.992   4.907   0.657 -0.0334  1.8295  2.0874
21874SOL    HW272738  12.862   4.873   0.726 -1.3659  0.9477 -0.6964
21875SOL     OW72739   1.940   4.490  11.096  0.3217  0.4816  0.7319
21875SOL    HW172740   1.978   4.538  11.022  0.4064  0.0848  0.5105
21875SOL    HW272741   1.968   4.399  11.082 -1.5731 -0.0335 -0.0315
21876SOL     OW72742   8.209  12.352   8.726  0.1257  0.5212  0.4342
21876SOL    HW172743   8.127  12.355   8.776 -0.4900  0.1925 -0.5470
21876SOL    HW272744   8.194  12.409   8.651 -0.2668 -1.6921 -1.2819
21877SOL     OW72745   1.908   0.614   4.401 -0.2020  0.0779  0.2701
21877SOL    HW172746   1.951   0.687   4.446 -0.2816  0.1250  0.2714
21877SOL    HW272747   1.822   0.649   4.377 -1.6252 -1.0242  3.2172
21878SOL     OW72748   4.958   2.316  10.502 -0.1514  0.1097  0.0619
21878SOL    HW172749   5.032   2.373  10.522  2.4153 -3.2634  1.0880
21878SOL    HW272750   4.889   2.345  10.561  2.0554  0.2994  2.7744
21879SOL     OW72751   9.577   5.516   2.953  0.0707 -0.3219 -0.3863
21879SOL    HW172752   9.536   5.572   3.019  1.5094  0.5470 -0.1960
21879SOL    HW272753   9.577   5.569   2.873  1.5820  0.0327 -0.1659
21880SOL     OW72754   0.999   3.751   5.782  0.7092 -0.0798 -0.3680
21880SOL    HW172755   1.040   3.665   5.775 -1.0245 -0.8632 -1.5794
21880SOL    HW272756   0.966   3.770   5.694 -0.3117  1.0954  0.2313
21881SOL     OW72757   1.835   7.552   9.484  0.2927  0.2038  0.1927
21881SOL    HW172758   1.750   7.570   9.524  0.5332  0.6419  0.5269
21881SOL    HW272759   1.815   7.527   9.394 -0.2251 -0.2414  0.4212
21882SOL     OW72760  12.575   0.450   7.528  0.3071 -0.4416  0.3838
21882SOL    HW172761  12.639   0.480   7.462 -0.6214 -1.6071 -1.1037
21882SOL    HW272762  12.620   0.463   7.612  0.5022  3.7968 -0.1494
21883SOL     OW72763   8.042   2.838   3.039 -0.0585 -0.3214 -0.5868
21883SOL    HW172764   8.031   2.863   2.947  0.4901 -1.9922 -1.1390
21883SOL    HW272765   8.106   2.767   3.037  0.7900  0.3393  1.2092
21884SOL     OW72766  11.704   4.102   9.885 -0.0485  0.6081 -0.8820
21884SOL    HW172767  11.798   4.097   9.870  0.3277 -0.2810  1.3371
21884SOL    HW272768  11.677   4.182   9.841  2.1170  1.9347  0.0262
21885SOL     OW72769   9.271   5.546   9.131  0.1667  0.5272  0.0878
21885SOL    HW172770   9.199   5.583   9.079  1.4471  2.1638 -0.6099
21885SOL    HW272771   9.234   5.533   9.218 -1.0768  0.9679 -0.3562
21886SOL     OW72772   2.932   0.119   8.162 -0.0245  0.1853 -0.5021
21886SOL    HW172773   3.024   0.139   8.149 -0.5984  2.7873 -1.1082
21886SOL    HW272774   2.890   0.204   8.176 -2.2793 -0.9512  0.2233
21887SOL     OW72775  10.884  12.553   5.681 -0.2696 -0.0368 -0.4625
21887SOL    HW172776  10.979  12.539   5.681 -0.5851 -2.7404 -1.8617
21887SOL    HW272777  10.864  12.574   5.772  1.6591  0.9239 -0.1810
21888SOL     OW72778   2.556   7.727   7.405 -0.1223  0.1389  0.3478
21888SOL    HW172779   2.480   7.780   7.385 -0.3917 -0.2594  0.3060
21888SOL    HW272780   2.534   7.682   7.487 -0.5679 -1.1552 -0.4534
21889SOL     OW72781   2.141   8.148   4.677 -0.1186 -0.3035  0.0770
21889SOL    HW172782   2.047   8.141   4.663 -0.5071  1.3390  1.6403
21889SOL    HW272783   2.177   8.167   4.590 -1.1189 -1.5088 -0.6368
21890SOL     OW72784   5.785  10.249   4.388  0.4907 -0.0375  0.1891
21890SOL    HW172785   5.818  10.246   4.298  1.7884 -0.5845  0.6595
21890SOL    HW272786   5.709  10.306   4.383  0.9866  0.5679 -1.1228
21891SOL     OW72787   0.646   2.259   1.214  0.2219 -0.1792 -0.8526
21891SOL    HW172788   0.595   2.187   1.179 -1.9828  0.5425  0.6932
21891SOL    HW272789   0.618   2.336   1.164  0.0899  0.1561 -0.2750
21892SOL     OW72790   7.486  11.646   9.097  0.2624 -0.3110 -0.1330
21892SOL    HW172791   7.530  11.647   9.012  1.0655 -0.2466  0.2750
21892SOL    HW272792   7.418  11.579   9.088 -0.5223  0.5743 -1.2380
21893SOL     OW72793   9.504   4.652   9.603 -0.0088  0.2276 -0.0334
21893SOL    HW172794   9.517   4.738   9.563 -0.6204  0.6650  0.7036
21893SOL    HW272795   9.561   4.594   9.552 -0.4323  0.8517 -1.2654
21894SOL     OW72796  10.394   8.945  12.167 -0.4356 -0.0195 -0.2072
21894SOL    HW172797  10.469   8.907  12.213 -1.1139 -0.9076  0.1944
21894SOL    HW272798  10.401   9.039  12.184  1.2580  0.0764 -1.2060
21895SOL     OW72799   9.313   4.940   1.205 -0.5229  0.0924 -0.1779
21895SOL    HW172800   9.368   4.950   1.283 -2.0814  0.5919  0.9145
21895SOL    HW272801   9.371   4.958   1.132  1.3851 -1.9097  0.7508
21896SOL     OW72802   4.061   1.233   5.563  0.2323  0.5364 -0.4132
21896SOL    HW172803   4.101   1.180   5.632 -0.1613 -1.2094 -1.4712
21896SOL    HW272804   4.089   1.193   5.482 -3.0780 -0.4171 -1.2204
21897SOL     OW72805   3.653  12.214   4.220  0.0371  0.2725 -0.2864
21897SOL    HW172806   3.682  12.138   4.168  0.1215 -0.3107  0.6021
21897SOL    HW272807   3.561  12.225   4.196  0.0677 -0.0100 -0.5417
21898SOL     OW72808  12.890   0.666   3.933 -0.3607  0.1095  0.3992
21898SOL    HW172809  12.904   0.600   3.864 -1.5586  0.7996 -0.5564
21898SOL    HW272810  12.973   0.714   3.938 -0.3473  0.2402 -0.7956
21899SOL     OW72811   1.072   7.040  12.633 -0.6854  0.3835 -0.0920
21899SOL    HW172812   1.093   6.974  12.699 -2.1076  0.1239  0.1364
21899SOL    HW272813   1.084   6.996  12.549  0.4431  0.4995  0.0035
21900SOL     OW72814   3.175   9.434  10.306 -0.4260  0.3313 -0.3423
21900SOL    HW172815   3.223   9.505  10.264 -0.6420  1.0582  0.6016
21900SOL    HW272816   3.231   9.408  10.379  0.4964 -1.6984 -1.6720
21901SOL     OW72817   2.982   7.912   7.627  0.0157 -0.3388 -0.4100
21901SOL    HW172818   3.072   7.936   7.649 -0.7619  2.0587  0.4805
21901SOL    HW272819   2.984   7.893   7.533  1.4261 -0.2612 -0.4123
21902SOL     OW72820   3.818  10.092  10.145 -0.0977 -0.0668  0.1387
21902SOL    HW172821   3.751  10.023  10.144  1.3524 -1.6106  1.5245
21902SOL    HW272822   3.888  10.059  10.088 -0.9936  2.1822 -2.4953
21903SOL     OW72823  12.421   0.197  10.633 -0.0068 -0.2799 -0.2471
21903SOL    HW172824  12.461   0.210  10.719 -1.7172  0.8885  0.4253
21903SOL    HW272825  12.493   0.208  10.571  0.9674  0.4390  0.9656
21904SOL     OW72826  11.195   8.203   8.647  0.3423 -0.1703  0.7167
21904SOL    HW172827  11.235   8.231   8.564 -0.4883 -0.5239  0.1900
21904SOL    HW272828  11.102   8.221   8.636  0.2135 -0.2969  1.5508
21905SOL     OW72829   6.235   2.703   3.776  0.0759 -0.6183  0.0848
21905SOL    HW172830   6.274   2.646   3.842 -0.3955 -1.5946 -0.4490
21905SOL    HW272831   6.310   2.735   3.725  0.2451 -2.6945 -1.1026
21906SOL     OW72832   1.545   4.393   6.952 -0.1394  0.1356 -0.2476
21906SOL    HW172833   1.630   4.435   6.964  0.0762  0.1601 -1.7051
21906SOL    HW272834   1.564   4.308   6.914 -0.7302 -0.2975  0.3808
21907SOL     OW72835   8.360   7.010   2.227 -0.3704 -0.3805 -0.0104
21907SOL    HW172836   8.294   6.951   2.265 -1.1487  0.7487  0.4512
21907SOL    HW272837   8.309   7.081   2.189  0.5797  1.0078  1.1719
21908SOL     OW72838   5.096   9.865   9.986  0.0318 -0.1351 -0.0778
21908SOL    HW172839   5.138   9.950   9.973 -0.6074  0.2626  0.3831
21908SOL    HW272840   5.125   9.812   9.911  0.7454  0.3581 -0.1593
21909SOL     OW72841   3.454   7.485  12.031 -0.0321 -0.3137 -0.7588
21909SOL    HW172842   3.461   7.573  11.995 -0.5498  0.1707  0.2701
21909SOL    HW272843   3.384   7.444  11.980 -1.9048  0.9112  0.6675
21910SOL     OW72844   0.529   6.484   2.234  0.4351 -0.2840  0.3888
21910SOL    HW172845   0.558   6.505   2.323  0.0383  0.1573  0.4208
21910SOL    HW272846   0.444   6.440   2.246  0.4672 -0.3892  0.2361
21911SOL     OW72847   0.094   9.591   9.323  0.0856  0.0150  0.2930
21911SOL    HW172848   0.125   9.608   9.234  0.7018  0.7537  0.6367
21911SOL    HW272849   0.079   9.497   9.325  0.7018 -0.1104 -0.4049
21912SOL     OW72850   9.247  10.923  12.764  0.0087 -0.5118  0.3464
21912SOL    HW172851   9.166  10.951  12.721  0.4743  0.6778  0.2076
21912SOL    HW272852   9.233  10.942  12.857  0.2337  0.0056  0.2816
21913SOL     OW72853   8.631   8.552  10.149 -0.1181 -1.0025  0.3656
21913SOL    HW172854   8.654   8.459  10.148  0.3082 -0.8992 -0.5006
21913SOL    HW272855   8.642   8.581  10.058 -0.3086 -0.1227  0.6079
21914SOL     OW72856  11.832   7.416  10.698  0.1594  0.5231 -0.1891
21914SOL    HW172857  11.872   7.423  10.611  1.1122  1.0800  0.2686
21914SOL    HW272858  11.783   7.498  10.708  1.5764  1.3313  0.5025
21915SOL     OW72859   6.663   2.344   5.401  0.0579  0.2716  0.2220
21915SOL    HW172860   6.643   2.312   5.489  0.3785 -1.8457 -0.4210
21915SOL    HW272861   6.737   2.404   5.414 -0.5542  0.8045  1.4731
21916SOL     OW72862   1.592   1.815   6.825  0.5308 -0.2524 -0.5586
21916SOL    HW172863   1.569   1.907   6.835  0.0425 -0.4974  0.7087
21916SOL    HW272864   1.614   1.786   6.914  0.2656 -1.4635 -0.8757
21917SOL     OW72865   8.818   3.917   0.437 -0.2782 -0.2811 -0.4668
21917SOL    HW172866   8.824   4.012   0.431  1.5409 -0.2285  1.2475
21917SOL    HW272867   8.900   3.885   0.399 -0.3447 -1.0891  0.0302
21918SOL     OW72868   3.005   2.314   1.981 -0.5289  0.3037  0.2610
21918SOL    HW172869   2.990   2.398   1.938  0.8336  0.0192 -0.8366
21918SOL    HW272870   2.941   2.312   2.052 -1.2409  1.8354 -0.2865
21919SOL     OW72871   5.646  10.859   1.084  0.7571  0.6424  0.1095
21919SOL    HW172872   5.627  10.772   1.049  1.1817  0.8335 -0.5949
21919SOL    HW272873   5.562  10.905   1.080  0.2872 -0.0395  1.4129
21920SOL     OW72874   8.946  12.752   0.519  0.7357 -0.2731 -0.2353
21920SOL    HW172875   8.909  12.702   0.447  1.5426  0.4627 -1.1965
21920SOL    HW272876   8.873  12.766   0.579 -0.4100  0.6319 -1.7859
21921SOL     OW72877   3.370   2.596   9.372 -0.1306  0.3514 -0.4368
21921SOL    HW172878   3.424   2.620   9.448 -2.3196  1.2012  0.9384
21921SOL    HW272879   3.434   2.580   9.303  1.9685 -0.2911  1.4996
21922SOL     OW72880   2.691  12.867  10.354  0.7719 -0.2683 -0.4947
21922SOL    HW172881   2.687  12.817  10.273  1.4523 -3.1303  1.1279
21922SOL    HW272882   2.600  12.885  10.376  0.4232 -1.8313 -0.5525
21923SOL     OW72883   3.195   0.712   8.652 -0.0412  0.5718  0.5543
21923SOL    HW172884   3.265   0.717   8.717 -2.2945  0.9823  3.1420
21923SOL    HW272885   3.139   0.787   8.670  0.0352  1.7163 -3.0621
21924SOL     OW72886  11.244   8.541   3.297 -0.6480  0.0989  0.2973
21924SOL    HW172887  11.237   8.469   3.234  0.0764  0.4497 -0.2037
21924SOL    HW272888  11.180   8.520   3.365 -3.3892  0.9932 -1.8072
21925SOL     OW72889   3.180  11.368  12.383  0.7289  0.0797 -0.0449
21925SOL    HW172890   3.114  11.308  12.349  2.3021 -1.3012 -0.8443
21925SOL    HW272891   3.142  11.404  12.463 -0.3459 -1.8809  0.3755
21926SOL     OW72892   7.671   7.689  10.170  0.3331 -0.2423  0.5521
21926SOL    HW172893   7.588   7.730  10.197  0.8411  0.3801  1.2249
21926SOL    HW272894   7.723   7.686  10.251  1.2150 -0.0134  0.0045
21927SOL     OW72895   4.978   9.287   6.554  0.0723  0.2013  0.1734
21927SOL    HW172896   4.940   9.303   6.467  0.7418 -1.6136 -0.5145
21927SOL    HW272897   4.963   9.368   6.602 -2.6584  0.3817 -0.7656
21928SOL     OW72898  12.586   3.091   2.576 -0.1760  0.3871 -0.6138
21928SOL    HW172899  12.515   3.036   2.542 -0.0264 -0.8924  0.9901
21928SOL    HW272900  12.652   3.029   2.607  1.0349  1.5326 -0.7962
21929SOL     OW72901   2.616   1.065   2.795 -0.1778 -0.5919  0.0777
21929SOL    HW172902   2.526   1.063   2.829 -0.6950  1.4737 -0.9985
21929SOL    HW272903   2.630   1.157   2.772  1.2381 -1.3432 -2.3537
21930SOL     OW72904   1.438   4.935  11.569 -0.0785 -0.6531 -0.0121
21930SOL    HW172905   1.368   4.998  11.588  0.4623 -0.6468  2.1271
21930SOL    HW272906   1.400   4.877  11.503 -1.2297  0.7837 -0.6973
21931SOL     OW72907  11.938   6.150   8.746 -0.1564  0.4083 -0.3374
21931SOL    HW172908  11.938   6.072   8.802  0.9308  0.0688 -0.7839
21931SOL    HW272909  11.876   6.129   8.676 -1.3001  0.7150  0.5429
21932SOL     OW72910   8.607   8.771  12.403 -0.0835  0.6937 -0.2065
21932SOL    HW172911   8.694   8.781  12.365 -0.0656  0.3335 -0.2622
21932SOL    HW272912   8.621   8.732  12.489 -0.1962  0.5225 -0.2642
21933SOL     OW72913   4.362   2.588  12.107  0.2812 -0.6996 -0.1196
21933SOL    HW172914   4.309   2.512  12.129 -1.8704  1.2250  1.9203
21933SOL    HW272915   4.396   2.619  12.191  0.8556  0.7671 -0.8521
21934SOL     OW72916   4.255   2.374   7.118 -0.4027 -0.1086 -0.4077
21934SOL    HW172917   4.338   2.327   7.108  0.2007  0.0111  2.9313
21934SOL    HW272918   4.191   2.306   7.137 -0.1856  0.0948  1.1543
21935SOL     OW72919   0.947  10.695   4.971 -0.0002 -0.2946  0.3316
21935SOL    HW172920   1.038  10.667   4.973 -0.1706 -0.9110 -0.1562
21935SOL    HW272921   0.942  10.765   5.037  1.1351  0.7380 -0.6322
21936SOL     OW72922  11.035  11.429   5.821 -0.7718 -0.5622  0.1409
21936SOL    HW172923  11.060  11.338   5.836  2.3696 -0.2792 -2.2779
21936SOL    HW272924  11.097  11.480   5.873 -0.5486  0.1967 -0.8409
21937SOL     OW72925  12.067   2.224  11.260 -0.1011 -0.5118 -0.3021
21937SOL    HW172926  12.004   2.286  11.224  0.0647 -0.2116 -0.0928
21937SOL    HW272927  12.152   2.261  11.237  0.0023 -1.4137 -1.4098
21938SOL     OW72928   7.844   7.792   4.716 -0.0428  0.6206  0.3554
21938SOL    HW172929   7.836   7.876   4.671  0.7519  0.7860  0.5108
21938SOL    HW272930   7.932   7.793   4.754  0.4660 -0.7777 -0.6797
21939SOL     OW72931   9.505  12.911   2.680  0.7047  0.6293  0.3410
21939SOL    HW172932   9.471  12.984   2.628 -1.9350 -0.9417 -0.2846
21939SOL    HW272933   9.500  12.942   2.771  0.3927  1.5092  0.0347
21940SOL     OW72934   1.775   5.507  12.525  0.0523  0.0016  0.2249
21940SOL    HW172935   1.695   5.468  12.490  0.4996 -1.2993  0.6327
21940SOL    HW272936   1.842   5.441  12.514  0.6567  0.3311  1.6537
21941SOL     OW72937   8.322   3.495   5.982 -0.3027  0.1087  0.2678
21941SOL    HW172938   8.321   3.409   5.940 -1.6240 -0.1436  0.7761
21941SOL    HW272939   8.414   3.521   5.980 -0.0728 -0.6797 -1.1626
21942SOL     OW72940   5.912   7.107   0.618 -0.5448  0.1461  0.5428
21942SOL    HW172941   5.838   7.120   0.677 -1.1164  0.0527 -0.1338
21942SOL    HW272942   5.928   7.013   0.620 -2.9915 -0.5033 -2.2058
21943SOL     OW72943  11.194   1.562   0.427 -0.2493  0.1752  0.2565
21943SOL    HW172944  11.122   1.514   0.466 -0.7353  0.6757 -0.0066
21943SOL    HW272945  11.225   1.619   0.498 -0.0751 -0.0794  0.3858
21944SOL     OW72946   4.942   0.970   3.634  0.1655  0.1687  0.2959
21944SOL    HW172947   5.001   1.004   3.567  0.3271 -0.4088  0.1367
21944SOL    HW272948   4.965   0.877   3.642 -0.8115 -0.1100  0.1223
21945SOL     OW72949   1.394   6.626   0.371 -0.1410 -0.3600  0.4487
21945SOL    HW172950   1.410   6.667   0.287 -1.3483 -0.5464  0.1168
21945SOL    HW272951   1.426   6.690   0.436 -2.8319  1.5966  0.0011
21946SOL     OW72952   5.878   6.447  12.807 -0.1829  0.4855 -0.0348
21946SOL    HW172953   5.931   6.398  12.744  0.3406 -0.1741  0.8921
21946SOL    HW272954   5.840   6.379  12.864 -1.8604  0.9461 -0.5303
21947SOL     OW72955   0.505   5.472  12.181  0.0241 -0.7645  0.3475
21947SOL    HW172956   0.424   5.451  12.228  0.4360 -0.8904  1.0143
21947SOL    HW272957   0.558   5.519  12.245  0.7303 -1.2239  0.1135
21948SOL     OW72958   2.390  12.847   1.282  0.2326  0.3214 -0.3164
21948SOL    HW172959   2.387  12.908   1.208  0.6019 -0.3025 -0.8489
21948SOL    HW272960   2.375  12.761   1.244 -0.3081  0.0676  0.4378
21949SOL     OW72961  12.542   7.331   3.459 -0.0584  0.6327  0.0352
21949SOL    HW172962  12.620   7.366   3.415  0.2681 -0.6209 -0.4582
21949SOL    HW272963  12.558   7.236   3.462 -1.5558  0.3596 -0.0488
21950SOL     OW72964   7.844   8.102  11.730 -0.1827  0.3606  0.5297
21950SOL    HW172965   7.807   8.187  11.755 -1.0709  0.1255  0.0700
21950SOL    HW272966   7.777   8.039  11.756  1.0297 -0.3503  2.0727
21951SOL     OW72967   1.551   1.127   7.548  0.6491  0.5516  0.3968
21951SOL    HW172968   1.461   1.152   7.564  1.1037  1.2255  2.0576
21951SOL    HW272969   1.568   1.055   7.609  1.6364  1.3818  1.1416
21952SOL     OW72970   7.549   7.159  10.252 -0.2540  0.2230 -0.2721
21952SOL    HW172971   7.632   7.128  10.216 -0.4990  0.3028 -0.9232
21952SOL    HW272972   7.491   7.164  10.176 -1.1833 -0.9042  0.3351
21953SOL     OW72973  10.183  10.777   5.106 -0.1823 -0.1977 -0.1780
21953SOL    HW172974  10.218  10.703   5.056 -0.4605  0.7249 -1.8107
21953SOL    HW272975  10.211  10.854   5.057  0.2548  0.8220  1.5839
21954SOL     OW72976   6.465   8.651  10.899  0.5275  0.0103  0.1077
21954SOL    HW172977   6.543   8.670  10.951  0.0747 -0.5013  0.9776
21954SOL    HW272978   6.499   8.602  10.823  0.8897 -1.5866  1.2587
21955SOL     OW72979   8.238   7.668   8.415  0.1969  0.1115  0.5855
21955SOL    HW172980   8.298   7.599   8.387 -2.3020 -2.3531  0.8469
21955SOL    HW272981   8.203   7.637   8.499 -1.3619  1.4762  0.4988
21956SOL     OW72982   3.058   5.456   2.560 -0.2329 -0.1548 -0.0513
21956SOL    HW172983   3.011   5.435   2.641 -0.4669 -1.1387 -0.4240
21956SOL    HW272984   2.990   5.453   2.492 -0.3109  2.0068 -0.1328
21957SOL     OW72985  10.065  10.064  11.871  0.3514 -0.3106 -0.4084
21957SOL    HW172986  10.011  10.035  11.798 -1.1880  1.5433 -0.0670
21957SOL    HW272987  10.092   9.982  11.914 -0.1627 -1.3601 -1.9808
21958SOL     OW72988  10.095  10.717   0.928  0.2408 -0.5341 -0.3162
21958SOL    HW172989  10.175  10.762   0.955  0.1074 -0.8770  0.7011
21958SOL    HW272990  10.033  10.788   0.911  0.6468 -0.2778 -0.7558
21959SOL     OW72991   0.404  11.113   6.288 -0.7794  0.4389  0.5423
21959SOL    HW172992   0.391  11.207   6.305  0.0259  0.2666  2.3230
21959SOL    HW272993   0.317  11.075   6.300 -1.1146  0.9425 -0.1916
21960SOL     OW72994   1.434   2.760  11.402 -0.1601 -0.1087  0.3195
21960SOL    HW172995   1.421   2.693  11.469 -0.6277 -1.4476 -1.0289
21960SOL    HW272996   1.451   2.840  11.450 -2.2843 -0.6177  2.0871
21961SOL     OW72997   1.940   8.383   6.681  0.0082  0.0973  0.3098
21961SOL    HW172998   1.993   8.319   6.729 -1.0772 -0.8651  0.2683
21961SOL    HW272999   1.892   8.331   6.617 -0.9106  0.9503  0.2778
21962SOL     OW73000   6.313   4.329   8.173 -0.3685 -0.5812  0.1268
21962SOL    HW173001   6.231   4.287   8.199  0.5901 -1.7831  1.3732
21962SOL    HW273002   6.364   4.258   8.133 -0.1084  0.2578 -1.0754
21963SOL     OW73003   0.138   6.075   0.585  0.6731 -0.2036  0.5160
21963SOL    HW173004   0.187   6.154   0.563  1.5375 -0.9707 -0.4330
21963SOL    HW273005   0.112   6.087   0.677  1.0686  1.0194  0.4823
21964SOL     OW73006   6.009   3.865   3.192  0.1302 -0.6501  0.3478
21964SOL    HW173007   6.068   3.903   3.257 -0.5342  1.3975 -0.1556
21964SOL    HW273008   6.063   3.856   3.113  0.1482 -0.1096  0.2923
21965SOL     OW73009  11.693   1.423   8.027 -0.3490  0.4254 -0.0452
21965SOL    HW173010  11.648   1.500   8.061 -2.8185 -1.4685  1.3577
21965SOL    HW273011  11.752   1.397   8.098 -2.7382 -1.3446  1.4794
21966SOL     OW73012   3.214  12.064   5.544 -0.4696  0.0115 -0.3479
21966SOL    HW173013   3.131  12.055   5.497 -1.1879  1.7543  0.4955
21966SOL    HW273014   3.201  12.019   5.627  0.3974 -2.0378 -1.2526
21967SOL     OW73015   6.302   3.713   3.706 -0.2257 -0.2967  0.4609
21967SOL    HW173016   6.326   3.742   3.618  1.5167  1.3023  1.4125
21967SOL    HW273017   6.296   3.793   3.757 -0.9929 -1.2220  1.8778
21968SOL     OW73018   1.070   6.000  12.315  0.0786  0.0198  0.7015
21968SOL    HW173019   1.114   6.038  12.391  1.1992  1.5128 -0.6003
21968SOL    HW273020   1.089   6.061  12.244 -3.4692  0.3157 -0.1703
21969SOL     OW73021   5.653  12.064   1.945 -0.4243  0.3327 -0.2113
21969SOL    HW173022   5.608  12.032   2.023 -0.3166  0.3860 -0.1274
21969SOL    HW273023   5.611  12.148   1.925  1.0229  1.4430  1.1050
21970SOL     OW73024   8.154  12.656   6.609 -0.1321  0.5239  0.2438
21970SOL    HW173025   8.120  12.743   6.630  1.2578  1.3999 -0.9084
21970SOL    HW273026   8.178  12.618   6.693 -0.8990  1.1770  0.7767
21971SOL     OW73027   5.085   5.540   2.520 -0.6319  0.2580 -0.4171
21971SOL    HW173028   4.995   5.556   2.549 -0.7117 -1.4448  0.3582
21971SOL    HW273029   5.117   5.471   2.577  1.0711  0.5897 -0.9097
21972SOL     OW73030   3.131  11.206  11.654  0.4058  0.0010 -0.0719
21972SOL    HW173031   3.186  11.146  11.704 -0.9634 -0.1753  1.3217
21972SOL    HW273032   3.148  11.292  11.692  3.1190  0.7859 -2.7306
21973SOL     OW73033  11.632   1.408  12.199 -0.0428 -0.0147 -0.0111
21973SOL    HW173034  11.559   1.458  12.164  1.7438  1.8350 -1.3150
21973SOL    HW273035  11.638   1.330  12.143 -2.4420 -1.5277  1.6428
21974SOL     OW73036  12.511   9.975  10.409 -0.3555  0.3616  0.7044
21974SOL    HW173037  12.570   9.901  10.424 -0.4397  0.1596  0.0470
21974SOL    HW273038  12.563  10.038  10.359 -0.4745  0.4958  0.7474
21975SOL     OW73039   1.279  10.384  10.030  0.2379 -0.0389 -0.6323
21975SOL    HW173040   1.201  10.328  10.040 -0.3834  0.7036 -1.2136
21975SOL    HW273041   1.260  10.460  10.085  0.9104 -0.2050 -0.1579
21976SOL     OW73042   7.523   8.280   7.298 -0.4933 -1.2293  0.3116
21976SOL    HW173043   7.437   8.269   7.258 -0.2013  1.4457 -1.2926
21976SOL    HW273044   7.520   8.368   7.337  1.5415 -0.9701  0.0114
21977SOL     OW73045  11.615   3.659   6.933 -0.1850 -0.3073 -0.0909
21977SOL    HW173046  11.583   3.684   7.020 -1.6133 -1.2314 -0.3315
21977SOL    HW273047  11.703   3.698   6.928  0.3437 -1.0513  2.1533
21978SOL     OW73048   3.934  12.232   2.226  0.2985 -0.1440  0.3123
21978SOL    HW173049   4.028  12.252   2.227  0.7913 -2.2557  0.3586
21978SOL    HW273050   3.923  12.165   2.294 -1.4712  0.9210  1.1299
21979SOL     OW73051   3.508   4.727   1.871 -0.3685 -0.1421 -0.1688
21979SOL    HW173052   3.555   4.789   1.927 -1.0361  0.6888 -0.5010
21979SOL    HW273053   3.566   4.651   1.865  0.7776  0.7134 -0.2873
21980SOL     OW73054   9.263   8.625   2.324  0.0153 -0.0795 -0.3383
21980SOL    HW173055   9.348   8.589   2.297 -0.0204  0.6087 -1.3894
21980SOL    HW273056   9.199   8.566   2.286 -0.0024 -1.0556  1.1044
21981SOL     OW73057   1.521   6.906   3.927  0.1832 -0.5051  0.0482
21981SOL    HW173058   1.545   6.983   3.875  0.6037  0.5768  1.7541
21981SOL    HW273059   1.436   6.879   3.892  0.5111  0.0890 -1.2694
21982SOL     OW73060   9.274   4.277   4.721  0.6248  0.9647 -0.2854
21982SOL    HW173061   9.244   4.367   4.710 -0.5888  0.5379 -0.5914
21982SOL    HW273062   9.201   4.232   4.764  1.1421  0.0777 -0.2996
21983SOL     OW73063   7.886   6.014   0.142  0.8536 -0.1870  0.2839
21983SOL    HW173064   7.952   6.069   0.185 -1.6918  2.9605  0.5477
21983SOL    HW273065   7.819   6.075   0.112 -1.7133 -3.0987 -0.4800
21984SOL     OW73066   4.690   5.194  12.541  0.0867 -0.4102  0.5543
21984SOL    HW173067   4.747   5.158  12.473 -0.1499 -1.5159  0.9292
21984SOL    HW273068   4.751   5.228  12.607  0.3108 -0.1848  0.2382
21985SOL     OW73069   5.373   0.807  12.770  0.4031 -0.1882  0.2852
21985SOL    HW173070   5.401   0.871  12.836 -0.3822 -0.5354  0.9878
21985SOL    HW273071   5.299   0.763  12.811  0.5741 -1.1538 -0.4253
21986SOL     OW73072   7.367   3.304  12.221 -0.4348  0.3386 -0.0503
21986SOL    HW173073   7.331   3.261  12.298 -0.4070  1.5784  0.6907
21986SOL    HW273074   7.355   3.398  12.238  2.3705  0.7938 -0.1226
21987SOL     OW73075  10.333   3.729   5.658 -0.4337  0.2985  0.8387
21987SOL    HW173076  10.255   3.748   5.607  0.8990  2.5026 -0.5567
21987SOL    HW273077  10.310   3.653   5.711 -2.7654 -0.4656 -1.1205
21988SOL     OW73078   0.837   0.033   7.466  0.4362 -0.1840  0.2748
21988SOL    HW173079   0.876   0.113   7.502 -0.1315  0.0508  0.3706
21988SOL    HW273080   0.751   0.027   7.507  0.7018 -1.1602  0.7079
21989SOL     OW73081   9.537   1.847   3.536  0.1033 -0.3076  0.2504
21989SOL    HW173082   9.588   1.922   3.507  1.5173 -1.4517 -0.3188
21989SOL    HW273083   9.549   1.845   3.631 -0.7173  0.7013  0.3989
21990SOL     OW73084   4.020  11.221  11.551  0.7052  0.2311 -0.0203
21990SOL    HW173085   3.946  11.161  11.554  2.0419 -1.4637  1.6313
21990SOL    HW273086   4.017  11.267  11.635  1.4958  0.1602  0.0531
21991SOL     OW73087  11.811  11.788   9.766  0.3807 -0.1722 -0.0395
21991SOL    HW173088  11.751  11.764   9.837 -1.1068 -0.4525 -1.3263
21991SOL    HW273089  11.763  11.854   9.715  1.4677  0.1319 -0.6947
21992SOL     OW73090   1.937   1.719  11.381  0.6211  0.0160 -0.3613
21992SOL    HW173091   1.999   1.660  11.338  1.1130  0.5638 -0.4055
21992SOL    HW273092   1.966   1.723  11.472  1.0426  0.7792 -0.5218
21993SOL     OW73093   8.445   8.603   9.167 -0.0727  0.6140 -0.1427
21993SOL    HW173094   8.495   8.544   9.223 -1.6572 -0.4039  0.2584
21993SOL    HW273095   8.365   8.555   9.147 -1.5676  2.7074  0.4481
21994SOL     OW73096   3.418   4.173   3.952 -0.7128 -0.2760  0.1372
21994SOL    HW173097   3.369   4.091   3.954 -1.2037  0.0195  0.4409
21994SOL    HW273098   3.465   4.175   4.036  0.5934 -1.0125 -0.5479
21995SOL     OW73099   0.563   2.252  11.140 -0.0547 -0.8783  0.3602
21995SOL    HW173100   0.603   2.338  11.154  1.0443 -1.0488 -1.5156
21995SOL    HW273101   0.482   2.271  11.093  0.6186 -0.8858 -0.8491
21996SOL     OW73102  12.118   3.132   2.746  0.3017 -0.4672  0.0426
21996SOL    HW173103  12.054   3.119   2.676  0.9307 -2.7457 -0.1967
21996SOL    HW273104  12.192   3.076   2.721  1.2533  0.0067  1.6793
21997SOL     OW73105  10.404  10.312   3.916  0.0747  0.6805  0.0665
21997SOL    HW173106  10.386  10.318   4.010  0.3081  0.5729  0.1176
21997SOL    HW273107  10.318  10.316   3.875 -0.4443 -3.1447  0.4388
21998SOL     OW73108   5.691   4.724   0.093 -0.2288  0.2617  0.2574
21998SOL    HW173109   5.656   4.807   0.059 -1.2507 -0.4258 -0.4267
21998SOL    HW273110   5.739   4.687   0.019  0.2405  0.2476  0.5684
21999SOL     OW73111   5.100   0.745   2.314  0.2035 -0.0583  0.6158
21999SOL    HW173112   5.051   0.768   2.393 -0.2900  1.4460 -0.1086
21999SOL    HW273113   5.096   0.649   2.311 -0.6141 -0.0808  1.8730
22000SOL     OW73114   9.495   4.657   2.986  0.0307  0.6229 -0.0689
22000SOL    HW173115   9.487   4.736   2.932 -1.7503  0.6894  0.2450
22000SOL    HW273116   9.466   4.586   2.929 -2.6104  0.7869  0.9531
22001SOL     OW73117  11.997  12.657   5.283 -0.4746 -0.1928  0.4011
22001SOL    HW173118  11.992  12.672   5.188 -3.1247 -1.1296  0.2947
22001SOL    HW273119  12.004  12.562   5.291 -1.1141 -0.1871  1.1237
22002SOL     OW73120   3.330   1.332   2.392  0.4150 -0.4194 -0.0044
22002SOL    HW173121   3.405   1.384   2.420  0.2830 -0.0045 -0.4137
22002SOL    HW273122   3.317   1.269   2.463 -0.2916  0.9956  1.1885
22003SOL     OW73123   7.735   3.581   4.780 -0.2514 -0.3839  0.3679
22003SOL    HW173124   7.759   3.493   4.751  0.3157  0.1506 -0.8479
22003SOL    HW273125   7.819   3.624   4.798 -0.5583 -0.4309  2.0599
22004SOL     OW73126   0.369   7.730   5.383  0.2740 -0.4031 -0.2663
22004SOL    HW173127   0.423   7.652   5.368  0.7904  0.1276 -1.2610
22004SOL    HW273128   0.365   7.773   5.298 -1.8382 -0.4773 -0.2673
22005SOL     OW73129   7.272  11.458   6.410 -0.3059  0.2110  0.5603
22005SOL    HW173130   7.196  11.508   6.439 -1.3527  0.0100 -1.6224
22005SOL    HW273131   7.307  11.509   6.336  1.6795  0.2589  1.4523
22006SOL     OW73132  12.767   8.859   5.992 -0.3720 -0.0930 -0.2229
22006SOL    HW173133  12.779   8.931   6.054 -1.1841 -0.4701  0.3802
22006SOL    HW273134  12.855   8.823   5.980  0.2450  1.6456 -1.3585
22007SOL     OW73135   7.290   4.167   7.150 -0.1745  0.8214 -0.2813
22007SOL    HW173136   7.309   4.231   7.082 -1.7218  0.7349 -0.8393
22007SOL    HW273137   7.197   4.180   7.169  0.0784  0.4260  1.3867
22008SOL     OW73138   2.183   8.501   5.935  0.1568  0.3822 -0.4723
22008SOL    HW173139   2.147   8.570   5.991 -3.2553 -0.4507 -1.3820
22008SOL    HW273140   2.200   8.428   5.995  1.1023  1.0431  0.0917
22009SOL     OW73141   9.372   6.307   7.037  0.2691 -0.1682 -0.5777
22009SOL    HW173142   9.310   6.376   7.016 -0.6246 -0.6617  0.3762
22009SOL    HW273143   9.456   6.340   7.004 -0.1227  1.3919 -0.1105
22010SOL     OW73144   3.370   9.563   6.331 -0.0174 -0.7644 -0.0934
22010SOL    HW173145   3.373   9.483   6.278 -2.5682  0.0327 -1.6301
22010SOL    HW273146   3.424   9.626   6.283  0.9775 -1.1661  0.4637
22011SOL     OW73147  11.280   9.049   7.162 -0.1865 -0.4721  0.1289
22011SOL    HW173148  11.352   9.077   7.219  1.5927 -0.9311 -1.7459
22011SOL    HW273149  11.256   9.128   7.114 -0.2914 -0.5318  0.0845
22012SOL     OW73150   7.968   7.961   8.472  0.4661 -0.3821  0.0447
22012SOL    HW173151   8.057   7.996   8.462  0.1771  0.0671 -1.1728
22012SOL    HW273152   7.922   8.029   8.522  1.0272 -1.0400  1.5060
22013SOL     OW73153   0.045   7.139  10.288 -0.1302  0.1804 -0.4311
22013SOL    HW173154   0.135   7.112  10.270 -0.1626 -0.1792 -0.0496
22013SOL    HW273155   0.040   7.144  10.383 -0.3486  0.7679 -0.4680
22014SOL     OW73156   0.463   5.339   8.818  0.4346  0.7615  0.1893
22014SOL    HW173157   0.386   5.290   8.787  0.7343  0.6978 -0.4588
22014SOL    HW273158   0.428   5.425   8.840 -0.0758  0.3140  1.2140
22015SOL     OW73159   7.868   7.100  11.480 -0.0106 -0.2898  0.2446
22015SOL    HW173160   7.840   7.068  11.565  0.0169 -1.8463 -0.3047
22015SOL    HW273161   7.880   7.022  11.427  0.0438  0.6339 -1.1798
22016SOL     OW73162   2.064   5.055   6.050 -0.0396  0.0552  0.8860
22016SOL    HW173163   2.088   5.015   5.966 -1.6412 -0.5173  0.6629
22016SOL    HW273164   2.099   4.996   6.116  0.4442  0.0301  0.6123
22017SOL     OW73165   8.853   0.049  12.860 -0.6371  0.2529 -0.8961
22017SOL    HW173166   8.769   0.082  12.829  0.0059  0.5624 -2.3615
22017SOL    HW273167   8.914   0.067  12.789  0.4979 -0.7859 -0.2213
22018SOL     OW73168   4.150  12.540   6.931 -0.6239  0.2524  0.3072
22018SOL    HW173169   4.215  12.494   6.984  0.3645  0.9397 -0.2869
22018SOL    HW273170   4.154  12.631   6.961 -0.1766  0.6170 -0.8009
22019SOL     OW73171   7.501   0.271   9.965 -0.0521  0.9158  0.6521
22019SOL    HW173172   7.434   0.251   9.900 -0.1992  0.1496  1.0261
22019SOL    HW273173   7.582   0.281   9.915 -0.0664 -0.1592  0.3878
22020SOL     OW73174   1.808   3.999  11.567  0.0399  0.2318 -0.1848
22020SOL    HW173175   1.867   3.948  11.622  0.1495 -0.5797 -1.0200
22020SOL    HW273176   1.758   4.053  11.628  1.9008  1.2400  0.5253
22021SOL     OW73177  10.602   8.567  11.064  0.3817 -0.2303  0.5641
22021SOL    HW173178  10.637   8.518  10.990  2.2544 -1.0696  1.9274
22021SOL    HW273179  10.511   8.536  11.072  1.1935 -2.8293  0.7563
22022SOL     OW73180   8.507   3.590   4.028  0.5477 -0.1840 -0.1252
22022SOL    HW173181   8.598   3.596   4.001  0.6891 -0.3598  0.3129
22022SOL    HW273182   8.472   3.679   4.016  0.3299 -0.4641 -1.8465
22023SOL     OW73183   1.537   1.020   8.843  0.0542  0.4668 -0.5236
22023SOL    HW173184   1.627   0.993   8.855 -0.0495 -0.5268 -1.8041
22023SOL    HW273185   1.540   1.116   8.847  0.8679  0.3985  1.1761
22024SOL     OW73186  11.838   1.496   4.466 -0.1151 -0.1512  0.6686
22024SOL    HW173187  11.777   1.471   4.535 -0.7255  0.1448  0.2521
22024SOL    HW273188  11.785   1.549   4.406  1.3434  3.1081  2.0463
22025SOL     OW73189  12.279   1.182   1.875  0.2817 -0.2872 -0.7818
22025SOL    HW173190  12.320   1.143   1.953 -0.0953  0.9095  0.0384
22025SOL    HW273191  12.332   1.150   1.802  2.2521  0.6149  0.1740
22026SOL     OW73192   9.925   5.180   8.370  0.1066  0.2263 -0.0216
22026SOL    HW173193   9.979   5.248   8.331  0.3300  0.7319  1.1357
22026SOL    HW273194   9.845   5.225   8.396 -0.0910 -0.1322 -0.0014
22027SOL     OW73195   2.847   4.336   8.570  0.0181  0.3206 -0.5602
22027SOL    HW173196   2.898   4.274   8.518 -0.4813 -0.6808  0.1240
22027SOL    HW273197   2.760   4.337   8.529  0.7863  2.8546 -2.4165
22028SOL     OW73198   0.807   5.510   4.994 -0.0725 -0.4773  0.0213
22028SOL    HW173199   0.737   5.548   5.047  0.1551  0.0991 -0.0883
22028SOL    HW273200   0.770   5.428   4.961 -0.3890 -0.5988  0.6692
22029SOL     OW73201  10.494  12.517   9.177  0.2896  0.7367 -0.2242
22029SOL    HW173202  10.526  12.568   9.252 -0.3330  1.2699 -0.3123
22029SOL    HW273203  10.433  12.454   9.216 -0.6569  1.5481 -0.3598
22030SOL     OW73204   5.444  12.929   1.674 -0.0089  0.4846  0.7602
22030SOL    HW173205   5.376  12.910   1.609  1.3930  0.4744 -0.7713
22030SOL    HW273206   5.475  12.843   1.702  0.5295  0.4744  0.1623
22031SOL     OW73207   3.316   4.086   3.356 -0.8234  0.4146  0.0370
22031SOL    HW173208   3.250   4.143   3.396 -1.2191 -0.7324  1.0698
22031SOL    HW273209   3.395   4.101   3.408 -0.4752  1.1571 -0.6743
22032SOL     OW73210   1.304   5.738   0.810 -0.3888 -0.3502  0.1224
22032SOL    HW173211   1.311   5.785   0.893  0.0275 -0.2110  0.0108
22032SOL    HW273212   1.392   5.741   0.773 -1.1541  2.2240 -1.7676
22033SOL     OW73213  12.068   3.553   6.936  0.1058  0.5693  0.4548
22033SOL    HW173214  11.991   3.506   6.967  0.0414  0.6492  0.4133
22033SOL    HW273215  12.042   3.592   6.853  0.5352 -0.3644 -0.1446
22034SOL     OW73216  12.426   2.250   2.230  0.0447  0.1187 -0.1392
22034SOL    HW173217  12.485   2.314   2.270 -0.4789  0.1121  0.6598
22034SOL    HW273218  12.388   2.203   2.304  0.2944 -1.0116 -0.7050
22035SOL     OW73219   2.243   1.290   4.062 -0.5922  0.1826 -0.6484
22035SOL    HW173220   2.279   1.260   4.145  0.1354  1.5271 -0.4514
22035SOL    HW273221   2.194   1.215   4.028  0.7835 -1.0548  0.0148
22036SOL     OW73222   9.245  11.249   4.770 -0.1136 -0.2001  0.5218
22036SOL    HW173223   9.219  11.279   4.857  0.8971  1.5886  0.2654
22036SOL    HW273224   9.237  11.154   4.773 -0.2617 -0.1543  2.5021
22037SOL     OW73225   4.842  11.803   9.985  0.1554 -0.2119  0.9524
22037SOL    HW173226   4.769  11.866   9.987  0.5586  0.2424  1.5133
22037SOL    HW273227   4.913  11.847  10.031  1.2439 -0.0838 -0.7567
22038SOL     OW73228  10.848   9.801   1.328  0.3194  0.2755 -0.3073
22038SOL    HW173229  10.781   9.806   1.259  1.3631 -0.8620 -1.4576
22038SOL    HW273230  10.867   9.893   1.349 -0.5849  0.6344 -0.9849
22039SOL     OW73231   6.716   0.946  11.452  0.7670  0.4650  0.1375
22039SOL    HW173232   6.667   0.879  11.500 -1.0554  0.3624 -1.7302
22039SOL    HW273233   6.793   0.900  11.420  1.7828  0.4135  2.4141
22040SOL     OW73234   8.763  10.147   1.508 -0.0913 -0.0277  0.3606
22040SOL    HW173235   8.759  10.175   1.416 -1.6149  0.3294  0.5001
22040SOL    HW273236   8.684  10.184   1.547  1.4510  1.4214  2.3013
22041SOL     OW73237  12.125   2.741   6.303 -0.3518  0.8236 -0.5171
22041SOL    HW173238  12.141   2.813   6.242 -0.3209  0.3703 -1.0525
22041SOL    HW273239  12.170   2.666   6.264  0.9419  0.8512  0.7964
22042SOL     OW73240  10.485  10.576   2.455  0.1183 -0.0962 -0.3171
22042SOL    HW173241  10.476  10.487   2.419 -4.1096 -0.3721  0.8489
22042SOL    HW273242  10.545  10.566   2.528  0.0604 -1.9410 -0.4593
22043SOL     OW73243   1.786   7.446   2.729  0.3224  0.0428  0.3573
22043SOL    HW173244   1.707   7.497   2.747  0.7364  0.1540  2.0347
22043SOL    HW273245   1.819   7.423   2.816  1.9954 -0.2341 -0.3266
22044SOL     OW73246   3.153   9.670   7.035 -0.1374  0.4868 -0.0936
22044SOL    HW173247   3.162   9.764   7.021 -0.5678  0.6059  0.4029
22044SOL    HW273248   3.100   9.639   6.962  1.8058  0.2502 -1.4783
22045SOL     OW73249  10.325   6.468  10.665  0.0235 -0.1688 -0.7193
22045SOL    HW173250  10.357   6.547  10.623  2.2022 -0.0902  0.9017
22045SOL    HW273251  10.240   6.493  10.701 -0.3515  0.7241 -2.1510
22046SOL     OW73252   6.377  11.500   7.081 -0.0054 -1.1830  0.0870
22046SOL    HW173253   6.335  11.431   7.029 -0.0675 -1.5526  0.6191
22046SOL    HW273254   6.423  11.452   7.151 -0.2464 -0.6721  0.6015
22047SOL     OW73255   9.456   0.940   0.794  0.5411  0.0288  0.2289
22047SOL    HW173256   9.418   0.983   0.871 -0.5268  1.3445 -0.9861
22047SOL    HW273257   9.494   1.011   0.743  1.9605 -0.9264 -0.1038
22048SOL     OW73258   0.459   2.459   3.609  0.0623 -0.1232  0.4743
22048SOL    HW173259   0.403   2.533   3.630  1.3055  0.6853  1.0155
22048SOL    HW273260   0.548   2.490   3.625  0.8804 -0.6681 -2.3850
22049SOL     OW73261   1.581  10.714   0.048  0.2695  0.6465  0.0934
22049SOL    HW173262   1.558  10.625   0.024  2.1131  0.6350 -1.9445
22049SOL    HW273263   1.547  10.725   0.137 -1.5542 -1.4440 -0.2787
22050SOL     OW73264   5.470   2.554   0.611 -0.6978 -0.3884  0.0727
22050SOL    HW173265   5.541   2.498   0.640  0.9417  0.0766 -2.6972
22050SOL    HW273266   5.512   2.635   0.583 -2.8505  1.8424  2.7013
22051SOL     OW73267   9.841  11.642  11.418 -0.0112  0.7457  0.3247
22051SOL    HW173268   9.917  11.697  11.396  1.4167 -1.5463 -0.7782
22051SOL    HW273269   9.820  11.596  11.337  2.0366 -3.9928  2.1088
22052SOL     OW73270   2.304   7.495  10.899  0.2399 -0.0797  0.5142
22052SOL    HW173271   2.256   7.549  10.961 -1.5441  0.9148 -1.5843
22052SOL    HW273272   2.236   7.448  10.850  1.5475 -0.8057 -0.7045
22053SOL     OW73273   1.473   4.655   0.097 -0.0838 -0.2688  0.0122
22053SOL    HW173274   1.488   4.586   0.033  0.9286 -0.5315  0.5281
22053SOL    HW273275   1.477   4.612   0.182 -0.3028  0.2775  0.3114
22054SOL     OW73276   1.277   7.269   0.194  0.2307  0.1050  0.2572
22054SOL    HW173277   1.268   7.325   0.272  0.6597  0.4111  0.0933
22054SOL    HW273278   1.194   7.279   0.148  1.0132  2.2947 -0.8612
22055SOL     OW73279   7.899   9.754   6.660  0.0753 -0.0836  0.4568
22055SOL    HW173280   7.939   9.742   6.746  2.3352 -1.0925 -0.6538
22055SOL    HW273281   7.971   9.744   6.598 -1.4262  0.8775 -1.5756
22056SOL     OW73282   5.370   6.820   2.689 -0.2978  0.1131 -0.6745
22056SOL    HW173283   5.446   6.828   2.746 -1.1096  0.2739  0.4184
22056SOL    HW273284   5.405   6.830   2.600  1.0601 -0.6312 -0.2433
22057SOL     OW73285   9.023   8.566   1.570  0.4345  0.0440  0.0867
22057SOL    HW173286   9.004   8.659   1.558  1.5347  0.4972  1.5566
22057SOL    HW273287   9.103   8.551   1.520 -0.8452 -0.6571 -1.8801
22058SOL     OW73288   5.639   1.663   1.012 -0.2069 -0.0240 -0.9580
22058SOL    HW173289   5.692   1.722   1.066  0.0902  0.0220 -1.2912
22058SOL    HW273290   5.554   1.706   1.005 -1.0373 -1.1315  1.4050
22059SOL     OW73291  12.718   0.077   3.615  0.1261  0.6090  0.3707
22059SOL    HW173292  12.703   0.012   3.546 -0.5547  0.2077  0.8936
22059SOL    HW273293  12.790   0.041   3.666  0.5330  0.8360 -0.0336
22060SOL     OW73294  12.573   9.378   0.143 -0.3634  0.3126  0.0704
22060SOL    HW173295  12.490   9.330   0.145  1.2059 -2.9072 -2.8063
22060SOL    HW273296  12.637   9.315   0.176  1.3840  1.5673 -0.8024
22061SOL     OW73297   0.253   9.226  12.673 -0.3867 -0.0026 -0.0990
22061SOL    HW173298   0.163   9.192  12.677 -0.8615  1.2207  0.0828
22061SOL    HW273299   0.263   9.255  12.582 -1.5093  3.1950  0.6611
22062SOL     OW73300   9.656   9.084   7.723 -0.1358  0.2624 -0.1082
22062SOL    HW173301   9.642   9.056   7.813 -1.1345 -2.4195 -0.9849
22062SOL    HW273302   9.751   9.082   7.712 -0.0826 -3.2740 -0.0998
22063SOL     OW73303   1.950   6.990   3.116 -0.0621  0.0880 -0.0823
22063SOL    HW173304   1.891   6.955   3.050  1.4541  0.1696 -1.5514
22063SOL    HW273305   1.976   6.914   3.168  1.6184 -0.7398 -1.9759
22064SOL     OW73306   0.643   2.454   6.109  0.5931 -0.1797 -0.6466
22064SOL    HW173307   0.708   2.514   6.146  1.3097 -2.0036  1.3072
22064SOL    HW273308   0.559   2.496   6.127  1.0906  0.5592  0.0525
22065SOL     OW73309   3.876  12.928   4.681 -0.7284 -0.5073 -0.0099
22065SOL    HW173310   3.941  12.993   4.654 -0.6590 -0.3538  0.5094
22065SOL    HW273311   3.914  12.888   4.760 -1.1153 -0.6413  0.1100
22066SOL     OW73312   0.437   3.994   8.575 -0.3966 -0.1967  0.2447
22066SOL    HW173313   0.374   4.019   8.508 -0.3715  0.7222  0.5529
22066SOL    HW273314   0.464   3.905   8.551 -1.3747 -0.3823 -0.2061
22067SOL     OW73315   3.709   2.123   1.035 -0.5270  0.3101 -0.2548
22067SOL    HW173316   3.735   2.165   0.953  0.0558  0.0416 -0.2130
22067SOL    HW273317   3.697   2.031   1.012 -0.1179  0.1878  0.0103
22068SOL     OW73318  11.873   6.105  12.441 -0.3528 -0.6380  0.1224
22068SOL    HW173319  11.846   6.196  12.451 -0.7861 -0.8392  0.8280
22068SOL    HW273320  11.813   6.055  12.496  1.0530 -1.1528  1.2658
22069SOL     OW73321   6.210   8.067   7.983  0.3987  0.3365 -0.1989
22069SOL    HW173322   6.147   8.138   7.967 -0.6142 -0.6979 -0.9023
22069SOL    HW273323   6.246   8.047   7.897 -0.9707 -1.4902 -0.4025
22070SOL     OW73324  12.511   9.819   1.239  0.3653 -0.3513  0.5883
22070SOL    HW173325  12.524   9.804   1.146  0.1756  1.3221  0.2513
22070SOL    HW273326  12.599   9.830   1.275  0.3822  0.6747  0.2671
22071SOL     OW73327   2.495   8.354   2.952  0.4328  0.2227 -0.2245
22071SOL    HW173328   2.473   8.410   3.027  0.1828  0.7420 -0.6807
22071SOL    HW273329   2.584   8.380   2.929  0.3396  0.3915 -0.3971
22072SOL     OW73330   9.372  12.631  11.634 -0.2928 -0.6338  0.4874
22072SOL    HW173331   9.289  12.678  11.642 -1.2394 -1.6930 -2.0561
22072SOL    HW273332   9.360  12.553  11.688 -1.8134 -1.7471 -1.3100
22073SOL     OW73333   9.093   5.130   0.013  0.2150 -0.0280 -0.4488
22073SOL    HW173334   9.183   5.103  -0.002  0.6640  1.5680 -0.7687
22073SOL    HW273335   9.048   5.049   0.038  1.8990 -0.7143  0.5606
22074SOL     OW73336   7.683   5.471  12.084  0.0159  0.3052 -0.6339
22074SOL    HW173337   7.765   5.444  12.125 -0.2835  0.3078 -0.0158
22074SOL    HW273338   7.702   5.473  11.990  0.9920  1.2903 -0.4222
22075SOL     OW73339   9.258   9.544   7.927  0.2582  0.1270  0.2257
22075SOL    HW173340   9.196   9.611   7.957  0.4538  0.0551  0.8020
22075SOL    HW273341   9.250   9.545   7.832 -0.2754  0.4594  0.2707
22076SOL     OW73342  10.115   6.792  10.382  0.7214 -0.5728 -0.6506
22076SOL    HW173343  10.034   6.771  10.428  0.4509 -0.9658 -1.2836
22076SOL    HW273344  10.140   6.879  10.414  0.7226 -0.9722  0.4602
22077SOL     OW73345   9.224   6.343  10.313  0.1142  0.4839  0.2894
22077SOL    HW173346   9.276   6.384  10.243 -0.6614  0.1019 -0.5331
22077SOL    HW273347   9.159   6.291  10.267  1.3872 -2.1834  1.2899
22078SOL     OW73348   2.082   9.239   7.722 -0.2127 -0.5609  0.4506
22078SOL    HW173349   2.121   9.167   7.772  0.7913 -1.7249 -1.8397
22078SOL    HW273350   2.061   9.200   7.637 -2.2531  1.2053  0.0632
22079SOL     OW73351   0.629   8.918   7.581 -0.4396  0.6850 -0.2447
22079SOL    HW173352   0.688   8.941   7.652 -1.0310  1.6312 -0.0361
22079SOL    HW273353   0.628   8.995   7.525 -2.3225  1.1565  0.3535
22080SOL     OW73354   4.430   3.687  11.253  0.3562 -0.0899 -0.5973
22080SOL    HW173355   4.362   3.702  11.318  0.4050  1.4130 -0.8610
22080SOL    HW273356   4.397   3.613  11.201 -0.5158 -0.1356  0.0004
22081SOL     OW73357   9.960   9.544  12.675  0.5442  0.5125  0.1258
22081SOL    HW173358   9.994   9.626  12.710 -0.6767  0.9661  0.2972
22081SOL    HW273359   9.897   9.570  12.608  0.3495 -0.2861 -0.0194
22082SOL     OW73360   1.748   1.027   3.646  0.0290  0.3772 -0.2826
22082SOL    HW173361   1.693   1.020   3.724  0.4174  0.0971 -0.0341
22082SOL    HW273362   1.698   1.083   3.586 -0.0765  0.9510  0.3333
22083SOL     OW73363   9.359   1.797   2.937 -0.4764 -0.3271  0.0362
22083SOL    HW173364   9.327   1.777   2.849 -0.8151 -0.2202  0.1340
22083SOL    HW273365   9.451   1.770   2.935 -0.5128 -0.4387 -0.3119
22084SOL     OW73366   0.313   8.716  12.205  0.3544  0.0228  0.1157
22084SOL    HW173367   0.290   8.676  12.121 -2.1303  0.7441  0.3810
22084SOL    HW273368   0.358   8.647  12.253  0.2341 -0.9566 -1.1239
22085SOL     OW73369   2.086   5.798   4.284  0.2576  0.4160  0.1993
22085SOL    HW173370   1.997   5.831   4.270 -1.0274 -2.1134  1.6047
22085SOL    HW273371   2.085   5.709   4.248  2.6290  0.7484 -0.8720
22086SOL     OW73372   5.941   4.064  10.580  0.0454  0.4541 -0.0405
22086SOL    HW173373   5.930   4.067  10.675  1.4077 -0.1320  0.1663
22086SOL    HW273374   5.852   4.061  10.546 -0.4900  1.3432  1.1791
22087SOL     OW73375   5.571   7.836  10.585  0.6039  0.4593  0.0964
22087SOL    HW173376   5.523   7.878  10.514 -0.0560 -2.1795 -1.0953
22087SOL    HW273377   5.647   7.893  10.599  0.2659  1.5426 -2.0670
22088SOL     OW73378   8.420   6.279  10.071 -0.4075  0.4365 -0.1909
22088SOL    HW173379   8.438   6.369  10.096 -0.3791  0.4881 -0.3951
22088SOL    HW273380   8.329   6.264  10.099 -0.9647  1.0450 -1.5829
22089SOL     OW73381   7.718   6.368   2.985 -0.4327 -0.8488 -0.1410
22089SOL    HW173382   7.670   6.410   2.914 -1.5214 -2.4264 -0.3889
22089SOL    HW273383   7.719   6.433   3.055  0.5130  0.6776 -1.5066
22090SOL     OW73384   7.709   8.043   2.831 -0.2809  0.0277  0.3775
22090SOL    HW173385   7.762   8.064   2.908  1.0804 -1.7914  0.0222
22090SOL    HW273386   7.752   8.089   2.759 -0.3379  0.1029  0.3915
22091SOL     OW73387  12.383  12.348   2.719  0.3912 -0.2245 -0.4337
22091SOL    HW173388  12.409  12.368   2.629 -0.0801  1.2588 -0.2605
22091SOL    HW273389  12.290  12.371   2.724  0.5968  0.4863  0.6251
22092SOL     OW73390   9.520   6.118   1.445 -0.8654 -0.1627  0.3117
22092SOL    HW173391   9.554   6.207   1.441 -0.3910 -0.2491  1.7637
22092SOL    HW273392   9.480   6.103   1.359 -0.9199  1.4246  0.0375
22093SOL     OW73393   6.827   0.582  10.396  0.0039 -0.8960  0.2313
22093SOL    HW173394   6.850   0.630  10.317  0.1039  1.0847  1.3916
22093SOL    HW273395   6.911   0.552  10.431  0.2733  0.5603  0.9437
22094SOL     OW73396   6.246   9.251   5.171 -0.0546  0.2206  0.6437
22094SOL    HW173397   6.330   9.206   5.181 -0.5711 -0.7643  0.7691
22094SOL    HW273398   6.187   9.182   5.140 -1.2964  0.3891  2.4793
22095SOL     OW73399  11.647   3.998  12.587  1.0583 -0.4887 -0.0223
22095SOL    HW173400  11.567   4.042  12.615  0.1104 -1.1191 -1.6337
22095SOL    HW273401  11.666   3.936  12.658 -0.8377 -1.5025 -0.3402
22096SOL     OW73402   1.254   8.221   4.985 -0.7053  0.3537  0.4974
22096SOL    HW173403   1.276   8.129   4.998 -0.6619  0.2064 -0.5022
22096SOL    HW273404   1.323   8.269   5.030 -0.2649 -0.1117  0.3335
22097SOL     OW73405  11.809  12.119   1.778  0.4454 -0.2298  0.2891
22097SOL    HW173406  11.897  12.150   1.800  0.3076 -0.7111  1.5718
22097SOL    HW273407  11.778  12.076   1.857 -1.6731  1.5441  0.5073
22098SOL     OW73408  12.778   1.553   0.679  0.5890 -0.2495  0.4363
22098SOL    HW173409  12.687   1.546   0.650  0.9459  0.5891 -0.9822
22098SOL    HW273410  12.819   1.611   0.615  1.8912  0.1771  1.6166
22099SOL     OW73411   9.309   9.850   0.710  0.0418 -0.1009 -0.1691
22099SOL    HW173412   9.250   9.836   0.636  0.0822  2.5446 -0.8122
22099SOL    HW273413   9.272   9.798   0.781 -1.5803 -0.5082 -1.2591
22100SOL     OW73414   1.193   4.936  12.152  0.6209  0.9509  0.6873
22100SOL    HW173415   1.185   4.899  12.064  0.1568  1.6325  0.4277
22100SOL    HW273416   1.194   5.031  12.137  2.9334  1.0811  1.2156
22101SOL     OW73417  11.145  11.065  12.410  0.3244 -0.1718  0.2551
22101SOL    HW173418  11.224  11.021  12.380 -0.9426 -1.8172 -0.8610
22101SOL    HW273419  11.089  11.068  12.332 -0.7311  0.9159  1.0306
22102SOL     OW73420   3.602   4.934   6.133 -1.0049 -0.0390 -0.4398
22102SOL    HW173421   3.621   4.853   6.180  0.2205 -0.5409 -1.7447
22102SOL    HW273422   3.532   4.910   6.072 -1.4235  0.1859 -0.0554
22103SOL     OW73423   7.926   6.983   9.941 -0.5181 -0.1876 -0.0145
22103SOL    HW173424   7.831   6.977   9.934 -0.8603  0.8319  2.6427
22103SOL    HW273425   7.943   7.072   9.970  1.1915 -0.5638  0.2717
22104SOL     OW73426   1.718   5.106   6.600 -0.3038  0.0155 -0.2570
22104SOL    HW173427   1.710   5.012   6.585 -1.2546  0.3520 -2.0696
22104SOL    HW273428   1.783   5.136   6.536 -0.0044  0.6178  0.3041
22105SOL     OW73429   8.031   2.506   4.879  0.3422 -0.2678  0.2659
22105SOL    HW173430   8.047   2.576   4.942  0.9122  0.3799 -0.5757
22105SOL    HW273431   7.953   2.461   4.912 -0.7442  1.4751  0.2164
22106SOL     OW73432   2.195   2.047  12.130  0.4348  0.2119 -0.1275
22106SOL    HW173433   2.196   1.975  12.193  1.0626 -0.2704 -0.6778
22106SOL    HW273434   2.126   2.022  12.067 -2.4671  2.1663  1.9907
22107SOL     OW73435   6.085   3.902   9.575 -0.2224  0.0747 -0.3942
22107SOL    HW173436   6.084   3.807   9.567 -0.5843  0.0976 -0.6273
22107SOL    HW273437   6.073   3.934   9.486 -2.0386  0.3324 -0.0995
22108SOL     OW73438   4.579   4.860   7.471  0.4987  0.7981 -0.2866
22108SOL    HW173439   4.552   4.788   7.415 -0.0003  0.5272  0.2939
22108SOL    HW273440   4.632   4.819   7.539  1.0871  1.1227 -0.5463
22109SOL     OW73441   3.192  12.203   5.947 -0.7263 -0.0397  0.3290
22109SOL    HW173442   3.199  12.168   5.858 -0.4381  0.0039  0.3362
22109SOL    HW273443   3.208  12.128   6.004 -0.4301  0.0375  0.3449
22110SOL     OW73444   7.017  11.641   9.441  0.0476  0.0178 -0.7225
22110SOL    HW173445   7.040  11.635   9.349 -1.5688  1.6745 -1.2957
22110SOL    HW273446   7.079  11.705   9.477  1.2971 -1.3215 -0.3752
22111SOL     OW73447  11.341   6.305   6.046  0.5190  0.4123 -0.2972
22111SOL    HW173448  11.414   6.366   6.037 -0.4581  1.5355 -1.1470
22111SOL    HW273449  11.322   6.304   6.140  1.7916 -0.1159 -0.0388
22112SOL     OW73450   5.991   9.586   0.692 -0.1172  0.0888 -0.0339
22112SOL    HW173451   6.013   9.649   0.761 -2.1010  1.6244 -0.6982
22112SOL    HW273452   6.062   9.595   0.628 -0.5821  2.1175 -0.3490
22113SOL     OW73453   3.037  10.513   5.698 -0.5513 -0.0539  0.1151
22113SOL    HW173454   2.962  10.487   5.645  1.3188  0.0191 -2.8240
22113SOL    HW273455   3.083  10.431   5.716  0.5796  0.2013 -1.3785
22114SOL     OW73456  10.533   7.500   6.579  0.2942  0.4840  0.1328
22114SOL    HW173457  10.469   7.435   6.608  0.8776  0.3283  1.1213
22114SOL    HW273458  10.562   7.469   6.493 -0.5366  0.2560 -0.0697
22115SOL     OW73459   4.280   5.572   9.517  0.3534 -0.0151  0.0629
22115SOL    HW173460   4.304   5.573   9.610  1.8087  3.2221 -0.2031
22115SOL    HW273461   4.357   5.533   9.474  0.8536  0.9922  0.0256
22116SOL     OW73462   7.679   8.451   2.927 -0.2507 -0.5225  0.1842
22116SOL    HW173463   7.658   8.389   2.998 -0.7688  0.4777  0.9361
22116SOL    HW273464   7.768   8.428   2.901  0.3539 -0.2470  1.8876
22117SOL     OW73465  11.458   1.105   6.800  0.3707  0.3523 -0.2652
22117SOL    HW173466  11.405   1.139   6.872  1.6601  0.0054  0.8828
22117SOL    HW273467  11.409   1.129   6.721  0.0759  2.8707  0.5834
22118SOL     OW73468   3.438   7.000   0.346  0.1199  0.1092  0.1689
22118SOL    HW173469   3.356   7.049   0.345 -0.1417 -0.2687 -1.7260
22118SOL    HW273470   3.505   7.066   0.360 -0.2757  0.9793 -1.7100
22119SOL     OW73471   3.033  11.629   1.617  0.1688  0.4997  0.2873
22119SOL    HW173472   3.038  11.697   1.551  0.8918 -0.1746 -0.3732
22119SOL    HW273473   3.089  11.559   1.584 -0.8770 -0.5885  0.7364
22120SOL     OW73474  10.688   1.248   0.915  0.2656 -0.3849  0.1155
22120SOL    HW173475  10.689   1.233   1.010 -0.2666 -0.9708  0.0362
22120SOL    HW273476  10.697   1.342   0.905  1.3830 -0.4091  0.7229
22121SOL     OW73477   3.535   1.140   1.318  0.1764  0.6404  0.0188
22121SOL    HW173478   3.464   1.106   1.264 -0.4889  1.4626  0.3519
22121SOL    HW273479   3.504   1.131   1.408  0.9089  0.1005  0.2300
22122SOL     OW73480   7.893  12.787   1.730 -0.3687 -0.0673  0.1464
22122SOL    HW173481   7.896  12.871   1.777  0.5425 -0.3382  0.5923
22122SOL    HW273482   7.918  12.809   1.641  3.2412 -0.2971  0.9593
22123SOL     OW73483  12.215   8.192  12.260 -0.0467 -0.7238 -0.5451
22123SOL    HW173484  12.136   8.230  12.299  0.7000 -0.1896  0.4940
22123SOL    HW273485  12.285   8.252  12.285  1.0529 -2.3635  0.4916
22124SOL     OW73486   6.408  10.370   7.625  0.0913  0.5376 -0.2652
22124SOL    HW173487   6.341  10.314   7.585 -0.7367  2.3825 -1.5727
22124SOL    HW273488   6.473  10.308   7.659 -0.8255 -1.2189 -1.5551
22125SOL     OW73489   7.273   2.085   0.344  0.2570 -0.2036  0.0381
22125SOL    HW173490   7.232   2.160   0.302 -0.4086  0.4320  1.7475
22125SOL    HW273491   7.202   2.021   0.353  0.5972 -0.6817 -0.5194
22126SOL     OW73492  10.745   0.770   6.134 -0.1304 -0.0124  0.0994
22126SOL    HW173493  10.832   0.796   6.106 -0.1396 -0.3497 -0.2648
22126SOL    HW273494  10.722   0.697   6.075  0.1202 -1.1922  1.4078
22127SOL     OW73495   8.430   9.916   8.348  0.3308 -0.3275 -0.4053
22127SOL    HW173496   8.519   9.891   8.323  0.2170 -0.3802 -0.7565
22127SOL    HW273497   8.441   9.960   8.432  0.5482 -1.4499  0.1791
22128SOL     OW73498   6.078   2.382  11.104  0.1966  0.0426  0.1488
22128SOL    HW173499   6.021   2.350  11.035 -1.3572  0.4050  1.2203
22128SOL    HW273500   6.165   2.351  11.080 -0.7742 -2.4540 -0.3691
22129SOL     OW73501   7.145   0.291   0.015  0.3662  0.0476  0.0583
22129SOL    HW173502   7.083   0.222  -0.006  1.0245 -0.7630  0.7015
22129SOL    HW273503   7.231   0.253  -0.005  0.6477  1.3777 -1.4727
22130SOL     OW73504   8.286   4.955   2.696 -0.5019  0.2473 -0.0525
22130SOL    HW173505   8.217   4.894   2.669 -1.0422  0.0335  1.6765
22130SOL    HW273506   8.242   5.017   2.753  1.1419 -1.5468  3.4471
22131SOL     OW73507  11.214   1.952  10.240  0.1193  0.1543  0.3679
22131SOL    HW173508  11.183   1.871  10.280 -0.3027  1.3254  2.5780
22131SOL    HW273509  11.309   1.941  10.231  0.4328  0.2353  2.8786
22132SOL     OW73510   6.343  11.733   1.826 -0.5592 -0.5297 -0.1403
22132SOL    HW173511   6.290  11.655   1.847 -2.6420  0.8034 -0.2069
22132SOL    HW273512   6.430  11.698   1.808 -0.8243 -2.6189  2.1503
22133SOL     OW73513   3.673  12.179   3.376  0.1043  0.2955  0.5681
22133SOL    HW173514   3.667  12.255   3.318  2.2386  1.5722  1.8816
22133SOL    HW273515   3.748  12.130   3.344 -0.3511 -0.4649  0.6392
22134SOL     OW73516   9.339   7.812   6.675 -0.6738 -0.0490  0.3828
22134SOL    HW173517   9.388   7.888   6.704  0.8352 -0.9686  0.3589
22134SOL    HW273518   9.254   7.820   6.718 -0.6735  1.8101  0.0827
22135SOL     OW73519   7.739   3.779   3.402  0.0455  0.2345  0.2936
22135SOL    HW173520   7.685   3.720   3.350  3.8405 -1.4401 -2.2211
22135SOL    HW273521   7.791   3.721   3.459  0.9168  1.4873  0.8326
22136SOL     OW73522  12.625   2.147  12.273 -0.6779  0.2532 -0.4944
22136SOL    HW173523  12.535   2.138  12.304 -0.8645 -0.7578 -1.2425
22136SOL    HW273524  12.667   2.064  12.297  0.1057  0.7839  0.0056
22137SOL     OW73525   4.066  10.990   6.531 -0.4785 -0.5466  0.4259
22137SOL    HW173526   4.011  10.918   6.561 -0.2728 -0.5055  0.9124
22137SOL    HW273527   4.009  11.067   6.534 -0.6898 -0.6861 -0.0655
22138SOL     OW73528   0.604   6.481   7.763 -0.3207  0.2793 -0.2881
22138SOL    HW173529   0.680   6.450   7.714 -0.0160  2.0653 -1.0229
22138SOL    HW273530   0.626   6.570   7.788 -1.8888  0.5926  0.0995
22139SOL     OW73531   9.404   5.879  12.055 -0.0004 -0.0222 -0.1927
22139SOL    HW173532   9.332   5.816  12.059  0.2131 -0.1855  2.5297
22139SOL    HW273533   9.450   5.868  12.138  2.5468  0.8398 -1.4045
22140SOL     OW73534   4.662  10.076   7.118 -0.3963 -0.3622  0.1682
22140SOL    HW173535   4.581  10.068   7.068  0.4222  0.6886 -1.4031
22140SOL    HW273536   4.727  10.104   7.054  0.8059  0.5977  1.7362
22141SOL     OW73537   9.260   7.392   4.446 -0.2152  0.0397 -0.2311
22141SOL    HW173538   9.327   7.383   4.378 -1.1929  0.2196 -1.2556
22141SOL    HW273539   9.245   7.302   4.476  2.1507  0.1974  1.7490
22142SOL     OW73540   5.593  11.161   7.086 -0.5055 -0.4664  0.6581
22142SOL    HW173541   5.684  11.137   7.072 -0.8860 -0.9667 -1.2282
22142SOL    HW273542   5.585  11.250   7.051 -0.7685 -0.4822  0.6707
22143SOL     OW73543  11.730   6.682  12.262  0.1044 -0.0788 -0.1782
22143SOL    HW173544  11.704   6.747  12.197  2.8853  1.7300  0.3629
22143SOL    HW273545  11.772   6.613  12.211 -1.0652 -0.5289 -0.5707
22144SOL     OW73546  12.811   0.576   1.963  0.2228  0.3304 -0.0033
22144SOL    HW173547  12.900   0.597   1.991  0.2604  1.2817 -0.7932
22144SOL    HW273548  12.823   0.531   1.879 -0.0205 -0.0540  0.1639
22145SOL     OW73549   8.041  10.201   3.348  0.1269  0.0626 -0.5037
22145SOL    HW173550   7.979  10.151   3.296  1.9460  1.3775 -4.2490
22145SOL    HW273551   8.127  10.162   3.329  1.0017  1.3142  0.6398
22146SOL     OW73552   3.380  10.281   6.091 -0.4334  0.2013  0.1683
22146SOL    HW173553   3.462  10.324   6.068 -0.8311  1.6232  1.2867
22146SOL    HW273554   3.371  10.210   6.027  1.5165  0.1824 -0.1436
22147SOL     OW73555  10.222   8.084   5.690 -0.1065  0.2825  0.2938
22147SOL    HW173556  10.186   8.041   5.613 -0.5094 -3.0311  2.1335
22147SOL    HW273557  10.316   8.084   5.676 -0.0620 -1.6122  0.3309
22148SOL     OW73558   1.161  11.799   1.644 -0.2252  0.1675  0.3107
22148SOL    HW173559   1.244  11.827   1.681  0.7626 -1.2018 -0.7500
22148SOL    HW273560   1.147  11.855   1.568  1.1115 -1.2427 -1.0634
22149SOL     OW73561   1.770   9.877   2.720 -0.2393  0.0449  0.8500
22149SOL    HW173562   1.814   9.849   2.800  0.4484 -0.0318  0.4517
22149SOL    HW273563   1.841   9.901   2.661 -0.7451  0.1878  0.2940
22150SOL     OW73564  10.802   0.772   0.114  0.6415  0.5720 -0.3072
22150SOL    HW173565  10.778   0.767   0.022 -0.0418 -1.3404 -0.0810
22150SOL    HW273566  10.728   0.815   0.157  0.0316 -0.3529 -0.3942
22151SOL     OW73567   9.319   7.859   9.301  0.0335  0.5655 -1.0428
22151SOL    HW173568   9.342   7.945   9.337  1.3505  1.2358 -3.2628
22151SOL    HW273569   9.369   7.797   9.355 -0.4691  1.2041  0.2098
22152SOL     OW73570  10.095   7.242   4.188 -0.6102  0.2728 -0.1792
22152SOL    HW173571  10.043   7.164   4.171  1.7790 -1.2217 -1.0783
22152SOL    HW273572  10.073   7.266   4.278 -1.8080 -1.0956 -0.0683
22153SOL     OW73573   4.173   2.967   3.472 -0.0703  0.3988 -0.1807
22153SOL    HW173574   4.139   3.054   3.455  1.9603  1.1386 -0.7405
22153SOL    HW273575   4.214   2.973   3.558  0.1292  0.0142 -0.2441
22154SOL     OW73576   4.995  12.938   5.570  0.3521 -0.6044 -0.3707
22154SOL    HW173577   4.979  12.995   5.645  0.7821 -0.1020 -0.6581
22154SOL    HW273578   5.091  12.935   5.561  0.2950  0.6790 -1.9032
22155SOL     OW73579   9.896   9.807  10.510 -0.7975 -0.3170  0.2463
22155SOL    HW173580   9.870   9.865  10.439  1.5146 -0.8788 -1.1606
22155SOL    HW273581   9.846   9.727  10.495 -1.8011  0.2559  0.4590
22156SOL     OW73582  11.627  10.829   2.613 -0.7777  0.2064  0.3008
22156SOL    HW173583  11.686  10.904   2.622 -2.2470  1.4887 -0.3021
22156SOL    HW273584  11.584  10.822   2.699 -0.2891 -0.2624  0.5098
22157SOL     OW73585   8.007   3.439   1.744 -0.0827 -0.1439  0.3693
22157SOL    HW173586   7.958   3.361   1.769 -0.5154 -0.0012 -0.0152
22157SOL    HW273587   8.093   3.407   1.717  1.2605 -0.1668  4.0684
22158SOL     OW73588   7.897   3.618  10.917  0.3266  0.3377 -0.1155
22158SOL    HW173589   7.871   3.632  10.826  1.7269 -0.0767 -0.6138
22158SOL    HW273590   7.844   3.543  10.946  0.9371 -0.5104 -1.0996
22159SOL     OW73591  10.416   9.214   0.519  0.6878  0.1746  0.2552
22159SOL    HW173592  10.382   9.180   0.602  0.3446  0.8495  0.3983
22159SOL    HW273593  10.492   9.267   0.545 -0.0774  1.3046  0.2683
22160SOL     OW73594   3.421   2.402   1.523  0.0435 -0.3720 -0.6352
22160SOL    HW173595   3.409   2.479   1.579 -2.3939 -0.7557 -0.5121
22160SOL    HW273596   3.395   2.432   1.435 -1.1803 -1.0600 -0.5377
22161SOL     OW73597   1.621   9.581   7.079 -0.0407  0.3135 -0.6199
22161SOL    HW173598   1.550   9.634   7.044 -0.5815 -1.3401 -2.1517
22161SOL    HW273599   1.579   9.523   7.142  0.1961  0.2494 -0.5199
22162SOL     OW73600   4.884   8.020  10.905 -0.5181  0.3355 -0.4908
22162SOL    HW173601   4.801   8.061  10.881 -0.2096  1.6751  0.5937
22162SOL    HW273602   4.931   8.089  10.952  0.2283 -1.1559  1.0204
22163SOL     OW73603   9.858   6.412  10.089 -0.9338 -0.1864 -0.0062
22163SOL    HW173604   9.864   6.503  10.059  1.9074  0.3155  1.7654
22163SOL    HW273605   9.912   6.362  10.028 -0.9160 -0.3513  0.1427
22164SOL     OW73606   5.923   2.166  12.084 -0.1110  0.1747  0.2759
22164SOL    HW173607   5.857   2.210  12.137  0.1964  0.5950  0.3144
22164SOL    HW273608   5.998   2.157  12.142 -0.6934 -1.8768  0.8139
22165SOL     OW73609   6.290   3.492   5.646  0.1192 -0.0864 -0.2163
22165SOL    HW173610   6.385   3.490   5.664 -0.0060  0.5006  0.5864
22165SOL    HW273611   6.265   3.582   5.663 -0.6201 -0.2780 -0.2714
22166SOL     OW73612  11.385   0.833   1.285  0.0113 -0.3697  0.1588
22166SOL    HW173613  11.471   0.806   1.251 -0.8992 -2.1721 -0.8143
22166SOL    HW273614  11.354   0.898   1.222  1.3307  1.6333  1.4323
22167SOL     OW73615   1.409   3.653   0.608 -0.0558  0.1285  0.2096
22167SOL    HW173616   1.367   3.618   0.686  0.2104  1.1640  0.8317
22167SOL    HW273617   1.366   3.608   0.535 -1.3587  0.2511  0.8810
22168SOL     OW73618   0.131   2.370   7.597 -0.2040 -0.3371 -0.2199
22168SOL    HW173619   0.138   2.434   7.526 -1.2493 -0.7247 -0.6949
22168SOL    HW273620   0.185   2.406   7.667  0.9061  0.0187 -1.2356
22169SOL     OW73621   7.830   5.128  10.732 -0.1415 -0.0375 -0.1408
22169SOL    HW173622   7.879   5.172  10.662 -1.3484 -1.1706 -1.7703
22169SOL    HW273623   7.884   5.053  10.756 -0.3150 -0.3830 -0.8041
22170SOL     OW73624   3.451   6.173   3.597 -0.5925  0.6768  0.3322
22170SOL    HW173625   3.531   6.180   3.545 -0.4976 -1.1380  0.1988
22170SOL    HW273626   3.388   6.130   3.539 -1.1412  0.5445  1.0113
22171SOL     OW73627  12.011   2.479   8.680  0.1229 -0.4790 -0.3903
22171SOL    HW173628  12.091   2.503   8.632 -0.2349 -0.5550 -1.0394
22171SOL    HW273629  12.034   2.401   8.730  0.0136 -1.4596 -1.8251
22172SOL     OW73630   4.992  10.395   1.819 -0.1102 -0.3106 -0.9399
22172SOL    HW173631   5.015  10.365   1.731  1.2942 -0.3347 -0.5981
22172SOL    HW273632   5.030  10.483   1.825 -1.2116  0.1605 -0.7535
22173SOL     OW73633   7.290   1.663   6.479 -0.0342  0.2004 -0.0585
22173SOL    HW173634   7.331   1.586   6.439 -2.2721 -0.7377 -0.7191
22173SOL    HW273635   7.332   1.738   6.436 -0.2738 -0.7302 -2.0254
22174SOL     OW73636  10.473   9.205   4.037  0.2923  0.3190 -0.3406
22174SOL    HW173637  10.539   9.138   4.054  0.9475  0.7400 -1.1716
22174SOL    HW273638  10.398   9.179   4.091  1.6046  0.5969  1.7106
22175SOL     OW73639  11.341  11.173   2.679  0.1317  0.4491 -0.0468
22175SOL    HW173640  11.298  11.127   2.751  1.5855 -0.5995  0.2184
22175SOL    HW273641  11.277  11.236   2.648 -1.6054 -1.0959  0.2425
22176SOL     OW73642  11.078  10.792   7.841  0.6886  0.2089 -0.6334
22176SOL    HW173643  11.168  10.798   7.873  0.3379  1.1012  0.2388
22176SOL    HW273644  11.025  10.783   7.920  0.0307 -0.6486 -1.1633
22177SOL     OW73645   6.791   3.762   9.976  0.0660  0.5134  0.0995
22177SOL    HW173646   6.853   3.688   9.968  0.0521  0.5096  0.0220
22177SOL    HW273647   6.839   3.828  10.025  0.4450  0.8454 -0.6938
22178SOL     OW73648   0.300   5.513   6.416 -0.2325  0.4963  0.2953
22178SOL    HW173649   0.377   5.501   6.472 -0.1558 -0.6076 -0.0134
22178SOL    HW273650   0.304   5.439   6.356 -1.0247  0.9611 -0.3338
22179SOL     OW73651  10.328  10.854   1.074 -0.5102  0.6885  0.3319
22179SOL    HW173652  10.417  10.887   1.065  0.2641 -1.5511 -1.1603
22179SOL    HW273653  10.308  10.862   1.167  0.9618  1.8804  0.5753
22180SOL     OW73654  10.967   6.005  11.552 -0.6605  0.0505  0.4128
22180SOL    HW173655  11.003   6.055  11.479  0.5172  0.4646  1.2511
22180SOL    HW273656  10.985   6.059  11.629 -0.3396 -1.1667  1.2127
22181SOL     OW73657   4.624   0.253   9.107 -0.5505 -0.2650  0.1077
22181SOL    HW173658   4.677   0.249   9.187 -1.7641  0.9727  1.0150
22181SOL    HW273659   4.680   0.298   9.044 -1.3428  3.4700  1.8276
22182SOL     OW73660   5.092   4.184  12.249  0.4783 -0.2756  0.3920
22182SOL    HW173661   5.018   4.222  12.201  1.4849  0.4521 -0.6428
22182SOL    HW273662   5.075   4.206  12.340 -0.7913 -0.4969  0.2378
22183SOL     OW73663   3.201   2.588   2.533  0.3701  0.2737 -0.0188
22183SOL    HW173664   3.209   2.493   2.538 -3.3115 -0.2741 -1.2772
22183SOL    HW273665   3.237   2.610   2.447  3.6393  0.5015  1.2969
22184SOL     OW73666  10.826  10.201   7.069  0.3510 -0.1027  0.3128
22184SOL    HW173667  10.871  10.198   7.153 -0.3179 -0.5072  0.6692
22184SOL    HW273668  10.733  10.197   7.092  0.1433  0.3665 -0.4201
22185SOL     OW73669   4.110  10.542   0.695  0.1705  0.4229  0.3758
22185SOL    HW173670   4.148  10.503   0.616  0.5925  1.2282  0.1774
22185SOL    HW273671   4.117  10.636   0.681  0.9036  0.5797  1.6786
22186SOL     OW73672   7.631   8.036   7.542  0.1004 -0.0941  0.0207
22186SOL    HW173673   7.652   8.016   7.451 -0.7024 -1.5163  0.1200
22186SOL    HW273674   7.554   7.983   7.561  0.6251 -0.3047  1.7169
22187SOL     OW73675   9.400   1.104   4.199  0.0763  0.0566  0.1404
22187SOL    HW173676   9.436   1.120   4.111  1.0643 -1.4166  0.2466
22187SOL    HW273677   9.475   1.113   4.258 -0.4663  0.4614  0.7797
22188SOL     OW73678   8.132   7.594   0.153 -0.8561 -1.0342  0.5397
22188SOL    HW173679   8.195   7.636   0.212  1.4073 -3.0935 -0.2517
22188SOL    HW273680   8.127   7.653   0.078  0.0483 -0.7590  0.6823
22189SOL     OW73681   2.562   2.898   2.105  0.0614  0.1375 -0.1048
22189SOL    HW173682   2.520   2.836   2.045  1.0540  0.0465 -0.7230
22189SOL    HW273683   2.599   2.843   2.174 -0.9851  0.2343  0.5597
22190SOL     OW73684  10.867   0.211   7.422  0.9686 -0.2468 -0.4026
22190SOL    HW173685  10.772   0.218   7.433  0.9975  3.0343 -1.2604
22190SOL    HW273686  10.903   0.231   7.508  0.9883 -2.9694  0.3286
22191SOL     OW73687   4.054   9.638   3.320  0.3842 -0.0168  0.1004
22191SOL    HW173688   4.060   9.696   3.244  0.6920  0.3148  0.3723
22191SOL    HW273689   4.117   9.675   3.382 -0.8724  0.5511  1.0716
22192SOL     OW73690   6.434   7.820   0.813 -0.4652  0.3007 -0.1216
22192SOL    HW173691   6.460   7.813   0.721 -1.0396  0.7129 -0.3205
22192SOL    HW273692   6.515   7.805   0.862 -0.2456 -0.3948 -0.6787
22193SOL     OW73693   9.078   0.944   0.203 -0.5141 -0.1913 -0.3922
22193SOL    HW173694   9.160   0.901   0.178  0.3556  0.9955  0.3245
22193SOL    HW273695   9.105   1.031   0.232 -2.0098  0.1114  0.1462
22194SOL     OW73696   9.766  11.099  11.881 -0.1130  0.1781 -0.2575
22194SOL    HW173697   9.772  11.112  11.787 -0.0499  1.8941 -0.0489
22194SOL    HW273698   9.693  11.038  11.892 -0.8727  0.8463 -1.3671
22195SOL     OW73699   0.048   0.366   2.675 -0.0376  0.1084  0.0760
22195SOL    HW173700   0.077   0.341   2.763 -1.4226 -1.4371  0.1543
22195SOL    HW273701   0.064   0.287   2.622 -1.1223  0.3071 -0.5698
22196SOL     OW73702   1.210   7.465   7.183  0.3943  0.3365  0.1996
22196SOL    HW173703   1.121   7.501   7.191 -0.0881 -0.1208 -2.2190
22196SOL    HW273704   1.267   7.540   7.198 -0.4440  0.9683  0.3582
22197SOL     OW73705  12.653  12.794   0.805  0.2350 -0.0614 -0.4105
22197SOL    HW173706  12.575  12.816   0.855 -0.6042 -0.2696 -1.5860
22197SOL    HW273707  12.710  12.871   0.814 -0.8638  0.8575 -0.9860
22198SOL     OW73708  10.867  11.024  11.795  0.1072 -0.1342  0.7079
22198SOL    HW173709  10.910  11.105  11.824  0.0819 -0.6746  2.3396
22198SOL    HW273710  10.926  10.954  11.825 -1.0918 -0.8185  1.5230
22199SOL     OW73711   8.679   3.663   7.719  0.2770 -0.2368  0.0134
22199SOL    HW173712   8.654   3.630   7.633 -0.4019  0.4440 -0.0585
22199SOL    HW273713   8.611   3.631   7.778  0.7272 -0.6820  0.2999
22200SOL     OW73714   2.985   9.723  10.627 -0.2500 -0.3540 -0.1739
22200SOL    HW173715   3.010   9.632  10.642  0.8634  0.1171  0.9851
22200SOL    HW273716   2.914   9.739  10.690  1.5530  0.3874  1.7955
22201SOL     OW73717   9.955   9.237   5.403  0.3104 -0.2541 -0.0123
22201SOL    HW173718  10.031   9.207   5.452  1.0143 -0.7301 -1.3435
22201SOL    HW273719   9.963   9.333   5.401  0.7196 -0.2871  0.1107
22202SOL     OW73720   4.820   9.010  11.359 -0.2781 -0.2487 -0.1884
22202SOL    HW173721   4.860   9.094  11.334 -3.2871  1.4689  0.2252
22202SOL    HW273722   4.773   8.982  11.280  0.6459 -1.5774 -0.2961
22203SOL     OW73723  12.852   6.929   4.015 -0.2517  0.3893  0.4207
22203SOL    HW173724  12.877   6.839   3.994  0.2853  0.0834  2.1922
22203SOL    HW273725  12.762   6.922   4.047 -0.4784  0.6090 -0.1516
22204SOL     OW73726   2.224   4.663  12.740  0.0004  0.2151 -0.1742
22204SOL    HW173727   2.218   4.757  12.721 -0.4646  0.3816  0.7134
22204SOL    HW273728   2.311   4.652  12.778 -0.1545  0.3974  0.2419
22205SOL     OW73729   8.084   6.375  11.182 -0.1944 -0.0955  0.0493
22205SOL    HW173730   8.091   6.462  11.221 -1.7377  0.1703 -0.2119
22205SOL    HW273731   7.990   6.363  11.167  0.0857 -1.4357 -0.7622
22206SOL     OW73732   0.797   0.922  11.875  0.2228 -0.2022  0.1351
22206SOL    HW173733   0.756   0.840  11.902  0.2213 -0.4830 -0.6735
22206SOL    HW273734   0.729   0.988  11.886 -0.1462 -0.5037 -0.2743
22207SOL     OW73735  10.768  10.745  10.014  0.4953 -0.2357 -0.2058
22207SOL    HW173736  10.697  10.690  10.046  1.2079 -0.4446  1.0628
22207SOL    HW273737  10.843  10.686  10.008  0.9292  0.2999 -0.1289
22208SOL     OW73738   0.434   3.728   4.119  0.4702  0.3563  0.3303
22208SOL    HW173739   0.377   3.747   4.045  0.7556  0.4583  0.1371
22208SOL    HW273740   0.506   3.791   4.111  0.8865 -0.1174  0.2716
22209SOL     OW73741  11.617   7.219   1.434 -0.2966 -0.5578 -0.5764
22209SOL    HW173742  11.594   7.267   1.514 -0.5030 -0.6559 -0.5754
22209SOL    HW273743  11.597   7.127   1.455  0.5686 -0.7104 -0.4044
22210SOL     OW73744   3.683   0.699   5.515  0.4643 -0.0026 -0.0946
22210SOL    HW173745   3.621   0.742   5.457  0.3024 -1.0116 -0.6808
22210SOL    HW273746   3.759   0.680   5.460  0.8849  0.2989  0.3709
22211SOL     OW73747   9.582   7.462   3.157  0.2999  0.6167  0.3105
22211SOL    HW173748   9.631   7.528   3.206  1.2505 -0.9002  1.5117
22211SOL    HW273749   9.648   7.397   3.132 -0.4858  0.4363 -1.4542
22212SOL     OW73750   2.583  10.369   4.358  0.2519  0.6473 -0.6818
22212SOL    HW173751   2.555  10.453   4.395  1.4260  0.7418  0.0319
22212SOL    HW273752   2.551  10.372   4.267 -0.1092  1.6660 -0.5384
22213SOL     OW73753   6.587   9.188  10.595 -0.4489  0.3421  0.4878
22213SOL    HW173754   6.549   9.140  10.668 -0.5097  0.2168  0.3738
22213SOL    HW273755   6.524   9.257  10.576  0.4680  1.5902  1.8156
22214SOL     OW73756   7.767   5.874   6.840 -0.0354 -0.0287  0.3010
22214SOL    HW173757   7.853   5.846   6.873  0.7856  0.1746 -1.5719
22214SOL    HW273758   7.737   5.800   6.787 -1.2589 -0.2786  1.3016
22215SOL     OW73759  10.694   9.845   1.108  0.0967 -1.0509 -0.3386
22215SOL    HW173760  10.667   9.936   1.118  1.3936 -0.8841  4.0818
22215SOL    HW273761  10.771   9.850   1.051  0.6734  0.7907  0.5037
22216SOL     OW73762   9.304  11.551   6.399  0.1597  0.1273 -0.4978
22216SOL    HW173763   9.225  11.499   6.418  0.1766  0.0953 -0.5161
22216SOL    HW273764   9.321  11.598   6.481 -0.1139  0.4447 -0.6218
22217SOL     OW73765   6.225   6.512   1.353 -0.0514  0.8974 -0.1517
22217SOL    HW173766   6.317   6.535   1.363  0.0765  1.0705 -1.5769
22217SOL    HW273767   6.206   6.526   1.261 -1.2730 -0.0179 -0.0725
22218SOL     OW73768   5.533   1.566   1.852  0.0419  0.3375  0.1889
22218SOL    HW173769   5.485   1.614   1.785  0.7840  1.4403  0.4147
22218SOL    HW273770   5.472   1.499   1.882 -0.6449  0.4529 -0.8912
22219SOL     OW73771  12.782   5.725   4.673 -0.0748 -0.1686  0.0856
22219SOL    HW173772  12.693   5.737   4.641 -0.1458  0.7938  0.6069
22219SOL    HW273773  12.772   5.710   4.767  0.2437 -1.3277 -0.0383
22220SOL     OW73774   4.966  11.228   8.778  0.4565 -0.5470 -0.2675
22220SOL    HW173775   5.008  11.168   8.717  0.7579 -0.1144 -0.4900
22220SOL    HW273776   4.914  11.286   8.722 -1.5650 -1.9291  0.0836
22221SOL     OW73777   8.826   4.045  11.560 -0.0303 -0.4209  0.3170
22221SOL    HW173778   8.766   4.084  11.624 -1.4572 -2.5913  0.3805
22221SOL    HW273779   8.791   4.071  11.475  0.4650  0.4312  0.3557
22222SOL     OW73780   2.650   1.174  10.006 -0.4154 -0.0412  0.1656
22222SOL    HW173781   2.623   1.176   9.914 -0.7587  1.9429  0.2636
22222SOL    HW273782   2.727   1.230  10.009  0.2161 -0.9300  0.9274
22223SOL     OW73783   8.772   0.028   4.050  0.1816 -0.3923 -0.5063
22223SOL    HW173784   8.702  -0.034   4.031  0.2434 -0.5285 -0.2855
22223SOL    HW273785   8.839   0.009   3.985  1.1162 -1.9845  0.8648
22224SOL     OW73786   6.062   9.516   1.022  0.0279  0.0096  0.2818
22224SOL    HW173787   6.143   9.539   1.067 -1.6408  0.2148  3.5278
22224SOL    HW273788   6.014   9.599   1.014 -1.8314 -0.6197  3.0374
22225SOL     OW73789   3.945   4.146   8.315 -0.0728  0.5051 -0.1352
22225SOL    HW173790   3.984   4.202   8.248 -1.8262  1.3408 -0.5177
22225SOL    HW273791   3.955   4.057   8.280 -0.3775  0.8740 -1.2117
22226SOL     OW73792  11.788   2.034   7.874 -0.3941  0.2805  0.6242
22226SOL    HW173793  11.714   2.053   7.817  0.6735  2.0117 -0.2441
22226SOL    HW273794  11.836   1.964   7.829  1.1439  2.4845 -1.3477
22227SOL     OW73795  11.385   9.268  11.483  0.4111 -0.2478 -0.2726
22227SOL    HW173796  11.442   9.256  11.559 -0.2546  0.2188  0.3141
22227SOL    HW273797  11.332   9.188  11.479  0.4501 -0.2750 -0.2446
22228SOL     OW73798   9.235   1.718   5.473  0.4513 -0.4583  0.0470
22228SOL    HW173799   9.205   1.705   5.563 -1.0535  4.9675  0.7071
22228SOL    HW273800   9.158   1.700   5.419 -0.0854  0.6736  0.3995
22229SOL     OW73801   1.769   2.801   3.894  0.1013 -0.0732 -0.2784
22229SOL    HW173802   1.725   2.786   3.978  0.9332 -0.3928  0.1151
22229SOL    HW273803   1.826   2.725   3.883  1.6516  1.0070 -0.0364
22230SOL     OW73804   6.073   7.307  11.629 -0.5411  0.2404 -0.1715
22230SOL    HW173805   6.013   7.287  11.701  2.2439 -0.6383  2.1074
22230SOL    HW273806   6.119   7.386  11.657  2.1697 -1.3496  0.2470
22231SOL     OW73807   0.888   8.425   0.642 -0.0778 -0.4498 -0.6033
22231SOL    HW173808   0.814   8.486   0.641  1.1019  1.0899  0.3909
22231SOL    HW273809   0.850   8.342   0.670 -1.1864  0.7704  1.8872
22232SOL     OW73810   1.663   5.837   4.575 -0.0561  0.3119 -0.3649
22232SOL    HW173811   1.648   5.920   4.531 -0.1641  1.5043  1.7858
22232SOL    HW273812   1.579   5.792   4.572 -0.7047  1.4063  0.6133
22233SOL     OW73813   8.758   5.030  11.832 -0.7114  0.2390 -0.3103
22233SOL    HW173814   8.729   5.115  11.797 -1.4323  0.5861  1.0185
22233SOL    HW273815   8.838   5.050  11.880 -0.1121 -0.1013 -1.1562
22234SOL     OW73816  12.107   9.093   5.825 -0.3821 -0.0694 -0.1183
22234SOL    HW173817  12.175   9.124   5.885 -0.0042  0.0917 -0.6221
22234SOL    HW273818  12.154   9.068   5.745 -0.7096 -1.6543  0.1551
22235SOL     OW73819   2.864  11.914   0.192 -0.5420  0.0039 -0.4719
22235SOL    HW173820   2.856  11.922   0.287 -1.0575  0.1529 -0.5237
22235SOL    HW273821   2.779  11.879   0.163 -0.2114 -0.5210 -0.8248
22236SOL     OW73822  12.641  12.570   5.535 -0.2735  0.1771  0.5208
22236SOL    HW173823  12.616  12.663   5.530  1.3722  0.7185  1.5582
22236SOL    HW273824  12.633  12.538   5.445 -0.5068  1.4237  0.0760
22237SOL     OW73825   1.703  10.586  10.354 -0.7690 -0.0396 -0.0595
22237SOL    HW173826   1.682  10.541  10.272  0.9705  1.5410 -1.4410
22237SOL    HW273827   1.729  10.515  10.413  0.5366 -1.0075 -1.7088
22238SOL     OW73828   2.325  12.645   5.896 -0.0958 -0.6235 -0.1946
22238SOL    HW173829   2.277  12.685   5.823  0.6982 -1.2167 -1.0705
22238SOL    HW273830   2.398  12.600   5.854  0.3163 -1.0714  0.9730
22239SOL     OW73831   0.739  11.143   5.922  0.6262 -0.2762  0.7497
22239SOL    HW173832   0.758  11.196   6.000 -2.2394 -0.1428  1.4864
22239SOL    HW273833   0.686  11.070   5.956 -1.2116  0.1184 -1.0949
22240SOL     OW73834   0.574   4.001  11.263 -0.7721 -0.2765  0.2690
22240SOL    HW173835   0.536   4.023  11.347 -0.2489 -1.1524  0.7550
22240SOL    HW273836   0.668   3.996  11.279 -0.6899 -0.7536 -0.2877
22241SOL     OW73837   9.263   4.651  12.166 -0.6840  0.3337  0.5734
22241SOL    HW173838   9.245   4.658  12.072  0.4917  0.7155  0.3604
22241SOL    HW273839   9.232   4.564  12.190  0.1845 -0.2904 -0.4542
22242SOL     OW73840   3.005   0.570   5.989  0.2880  0.1376  0.0312
22242SOL    HW173841   3.007   0.582   5.894 -1.4156 -0.1201 -0.0765
22242SOL    HW273842   2.921   0.606   6.015 -0.1828 -1.6422  1.1518
22243SOL     OW73843   5.157   0.239  11.118 -0.2095 -0.3736  0.0534
22243SOL    HW173844   5.212   0.254  11.194 -0.5123  2.1986 -0.1742
22243SOL    HW273845   5.199   0.166  11.072  1.7783  0.1137  1.0000
22244SOL     OW73846   9.610   6.552   7.247  0.3371 -0.4951 -0.5574
22244SOL    HW173847   9.690   6.598   7.221  0.2040 -0.4536 -0.8992
22244SOL    HW273848   9.608   6.474   7.191 -0.0096 -0.3472 -0.7571
22245SOL     OW73849  11.915   7.511   7.514 -0.1476  0.3853  0.6502
22245SOL    HW173850  11.843   7.506   7.452  0.0275 -3.2730  0.5290
22245SOL    HW273851  11.989   7.544   7.462 -0.8470  0.7263 -0.1483
22246SOL     OW73852  11.355   3.583   8.203 -0.2511  0.5234 -0.0328
22246SOL    HW173853  11.308   3.500   8.209  0.4473  0.2038  1.5169
22246SOL    HW273854  11.307   3.633   8.137 -1.6138 -0.5139  0.1316
22247SOL     OW73855   5.657  12.881  12.086  0.4751  0.1399 -0.4977
22247SOL    HW173856   5.656  12.926  12.170 -1.1556  0.5606 -0.7162
22247SOL    HW273857   5.748  12.889  12.056  1.4871 -1.3287  1.8679
22248SOL     OW73858   0.422   0.311   5.664 -0.3024  1.1079 -0.0411
22248SOL    HW173859   0.392   0.242   5.606 -1.2392  1.5166 -0.0646
22248SOL    HW273860   0.453   0.380   5.605 -0.3278  1.1230 -0.0370
22249SOL     OW73861   2.043  10.856   2.049  0.0551  0.2616 -0.3254
22249SOL    HW173862   2.004  10.796   2.113 -1.2308 -0.1976 -1.4767
22249SOL    HW273863   2.073  10.799   1.978 -0.9781  0.9100 -1.3355
22250SOL     OW73864   8.388   0.164  10.820  0.6252 -0.4236  0.3985
22250SOL    HW173865   8.362   0.170  10.728 -0.6363 -0.6236  0.7142
22250SOL    HW273866   8.475   0.202  10.823  0.3564  0.3358 -0.7436
22251SOL     OW73867   1.523   5.111   5.982  0.1175 -0.2269 -0.0359
22251SOL    HW173868   1.446   5.055   5.970  0.7167 -0.8921 -0.8867
22251SOL    HW273869   1.598   5.051   5.978  0.7333  0.5326 -0.2061
22252SOL     OW73870  12.371   7.014   5.424  0.1897 -0.2952 -0.2779
22252SOL    HW173871  12.350   7.057   5.341  0.9910  2.9596  1.0392
22252SOL    HW273872  12.289   7.016   5.473  0.2407 -0.1526 -0.1967
22253SOL     OW73873   7.365   5.527   5.974  0.1421 -0.0371  0.4093
22253SOL    HW173874   7.356   5.449   5.919 -0.2070  1.1249 -1.2599
22253SOL    HW273875   7.277   5.563   5.981  0.0740 -0.4466  2.2509
22254SOL     OW73876   4.604   7.834  12.817 -0.6306  0.0006  0.4019
22254SOL    HW173877   4.628   7.742  12.831  1.6430  0.4175 -0.2757
22254SOL    HW273878   4.610   7.846  12.723  2.0402  1.4715  0.6521
22255SOL     OW73879   0.326   3.611  10.694  0.6075  0.0057  0.1739
22255SOL    HW173880   0.347   3.704  10.707 -0.2057  0.1790  0.2858
22255SOL    HW273881   0.409   3.566  10.708  1.1190  0.7554 -0.3730
22256SOL     OW73882   3.635   7.404   0.963 -0.1689 -0.8145 -0.9297
22256SOL    HW173883   3.713   7.446   0.928 -0.4379  1.7933  1.2239
22256SOL    HW273884   3.668   7.337   1.023  0.4332 -0.0728 -0.4125
22257SOL     OW73885  11.342   9.689  12.779  0.3117  0.4916  0.0691
22257SOL    HW173886  11.323   9.640  12.859  0.2950  1.0342  0.4035
22257SOL    HW273887  11.437   9.699  12.779  0.2277  1.3159  0.5184
22258SOL     OW73888   4.080   8.048   5.621  0.4975  0.5803 -0.4003
22258SOL    HW173889   4.139   7.983   5.659 -0.1047 -0.8881 -1.8605
22258SOL    HW273890   4.011   8.059   5.686  1.1404  0.5756  0.3074
22259SOL     OW73891   8.621   6.983   8.068 -0.3052  0.4046 -0.1048
22259SOL    HW173892   8.656   7.048   8.129  3.0974 -0.8749 -0.4535
22259SOL    HW273893   8.561   6.930   8.120  1.3658  0.2655  1.8241
22260SOL     OW73894   6.028   4.602   7.457 -0.5855 -0.0183 -0.6180
22260SOL    HW173895   5.950   4.657   7.452 -0.3745  0.2680 -0.8209
22260SOL    HW273896   6.101   4.665   7.464 -0.4120 -0.2917  0.0543
22261SOL     OW73897   5.359   0.752   2.357  0.4436 -0.7487 -0.0743
22261SOL    HW173898   5.379   0.782   2.268  2.8579  0.7232  0.8356
22261SOL    HW273899   5.264   0.758   2.364  0.1909 -0.9231 -2.5373
22262SOL     OW73900   5.724   5.449   4.389  0.2420 -0.6208  0.2274
22262SOL    HW173901   5.680   5.365   4.379  1.3674 -1.0098 -1.9554
22262SOL    HW273902   5.815   5.427   4.410  0.0964  0.1188  1.7535
22263SOL     OW73903   7.509   2.728  12.182 -0.3203  0.0707  0.0912
22263SOL    HW173904   7.475   2.815  12.162 -1.7717 -0.1881  1.3174
22263SOL    HW273905   7.523   2.688  12.096 -0.9218  1.0317 -0.4735
22264SOL     OW73906  12.039   0.093  12.634 -0.3900  0.4379 -0.6148
22264SOL    HW173907  12.060   0.154  12.563  1.1136  0.7661  0.0722
22264SOL    HW273908  12.008   0.149  12.705 -2.4482  0.0629 -1.1550
22265SOL     OW73909  10.974   5.611   9.847 -0.1319  0.2995 -0.0944
22265SOL    HW173910  11.069   5.624   9.857 -0.2484  1.8204 -0.7005
22265SOL    HW273911  10.956   5.530   9.894  1.3310  0.4831  0.8550
22266SOL     OW73912   9.319   0.786  11.258 -0.1151  0.4284 -0.4993
22266SOL    HW173913   9.410   0.774  11.231 -0.7760  0.7325 -3.0361
22266SOL    HW273914   9.300   0.878  11.241 -0.4742  0.7851  1.5416
22267SOL     OW73915   1.645   4.803   0.827  0.5622  0.5708  0.0625
22267SOL    HW173916   1.696   4.723   0.837  0.5676  0.6982  1.2085
22267SOL    HW273917   1.554   4.774   0.822  0.5475  0.4927  0.6785
22268SOL     OW73918  10.914  10.361   5.960  0.1732  0.1990 -0.2807
22268SOL    HW173919  10.963  10.437   5.990  0.4064 -0.6969  1.7715
22268SOL    HW273920  10.977  10.289   5.961 -0.8999 -0.7872  1.5268
22269SOL     OW73921   1.072   7.625  12.165 -0.4228 -0.2010 -0.0730
22269SOL    HW173922   1.067   7.551  12.225  0.7091  1.2429  1.9503
22269SOL    HW273923   1.135   7.598  12.098  1.4386 -0.4136  1.6933
22270SOL     OW73924  11.680   3.004   6.058 -0.1058  0.4042 -0.1002
22270SOL    HW173925  11.726   2.946   6.118  0.8338  0.2484 -0.9547
22270SOL    HW273926  11.641   3.071   6.115 -1.2666 -1.0500  0.9171
22271SOL     OW73927   7.621   5.211   3.264  0.0387  0.4302 -0.5388
22271SOL    HW173928   7.539   5.176   3.301  1.1527 -1.6208  0.1624
22271SOL    HW273929   7.638   5.290   3.315  0.4113 -1.1676  2.0369
22272SOL     OW73930   8.836  11.363   1.383 -0.3192  0.2568  0.5130
22272SOL    HW173931   8.852  11.348   1.290  2.2027  0.1178  0.9104
22272SOL    HW273932   8.822  11.458   1.389  0.8493  0.4716  0.1313
22273SOL     OW73933   7.617   5.879   3.190  0.5573 -0.4282 -0.5943
22273SOL    HW173934   7.585   5.872   3.280  1.3787 -2.1678 -0.4058
22273SOL    HW273935   7.557   5.823   3.140  1.2307 -0.9569 -0.8114
22274SOL     OW73936  11.452  11.889   7.056 -0.4020 -0.3035  0.1962
22274SOL    HW173937  11.432  11.975   7.093  1.0799 -1.5216  4.4996
22274SOL    HW273938  11.391  11.830   7.101 -0.6011 -1.6768 -1.7700
22275SOL     OW73939   5.568   0.493  11.916  0.1778  0.8685  0.2390
22275SOL    HW173940   5.589   0.408  11.954  3.5457  1.3864 -0.2362
22275SOL    HW273941   5.477   0.509  11.943 -0.0152 -2.1064  1.7021
22276SOL     OW73942   2.569   7.624   2.580  0.1892 -0.1974  0.0333
22276SOL    HW173943   2.574   7.528   2.574  0.0808 -0.1586 -0.7853
22276SOL    HW273944   2.539   7.640   2.669  0.6503 -0.9102  0.3306
22277SOL     OW73945   5.613  11.410   7.008  0.2365 -0.3706 -0.1832
22277SOL    HW173946   5.584  11.485   7.060  0.5196  1.6284 -2.6981
22277SOL    HW273947   5.678  11.447   6.947  0.7453 -2.7676 -1.2165
22278SOL     OW73948   3.663  11.832   1.291  0.3329  0.2129 -0.4982
22278SOL    HW173949   3.716  11.911   1.281  1.6464 -0.6787 -1.0627
22278SOL    HW273950   3.573  11.860   1.274  0.4464  1.9879  1.4974
22279SOL     OW73951   2.272   4.959  10.097  0.1956  0.0880  0.2383
22279SOL    HW173952   2.290   4.919  10.182  2.3255  0.1732 -0.1104
22279SOL    HW273953   2.284   4.887  10.035  0.1969  0.3708 -0.0901
22280SOL     OW73954   8.941   2.232   4.235 -0.2503  0.0110 -0.2742
22280SOL    HW173955   8.897   2.147   4.236 -0.8993  0.3041 -1.3511
22280SOL    HW273956   8.870   2.296   4.230  0.2283  0.6199  0.5025
22281SOL     OW73957   3.758   7.861  12.650 -0.3730 -0.2343 -0.2810
22281SOL    HW173958   3.797   7.900  12.728 -1.0345  0.3625 -0.2443
22281SOL    HW273959   3.769   7.927  12.581 -1.6109  0.0928 -0.1868
22282SOL     OW73960   5.973   9.266   9.095  0.2793  0.2076  0.1026
22282SOL    HW173961   5.880   9.246   9.087  0.0639  1.0503  0.3817
22282SOL    HW273962   6.014   9.183   9.121 -0.2686 -0.3667 -0.8443
22283SOL     OW73963  10.892   2.040   1.661  0.3798 -0.0915 -0.2634
22283SOL    HW173964  10.857   2.116   1.708  1.7883  0.3295  0.1470
22283SOL    HW273965  10.972   2.072   1.621  0.0065 -0.8653 -1.7034
22284SOL     OW73966   3.411   9.309   4.258  0.0584  0.9240 -0.0668
22284SOL    HW173967   3.362   9.383   4.222 -0.0767  0.7870 -0.1651
22284SOL    HW273968   3.345   9.244   4.280  0.2462  0.3786 -1.0285
22285SOL     OW73969   1.197   8.178   9.710 -0.0012  0.0798 -0.3131
22285SOL    HW173970   1.280   8.224   9.708 -0.1592  0.3413 -0.9019
22285SOL    HW273971   1.148   8.220   9.782  0.7089 -0.6816  0.6393
22286SOL     OW73972  12.345  12.452   4.624 -0.5689  0.1807  0.2338
22286SOL    HW173973  12.308  12.371   4.588  0.4936  0.0208 -0.5268
22286SOL    HW273974  12.369  12.429   4.713 -0.0911 -0.4092 -0.0381
22287SOL     OW73975   9.106   0.976   4.357 -0.5835 -0.1499  0.6344
22287SOL    HW173976   9.120   0.908   4.423  0.6084  0.4682  1.0373
22287SOL    HW273977   9.142   0.939   4.276 -1.6271 -0.7220  0.4100
22288SOL     OW73978  12.445   3.947   6.773  0.5540 -0.0593 -0.2530
22288SOL    HW173979  12.457   3.860   6.809  1.8383 -0.4908 -1.6340
22288SOL    HW273980  12.531   3.989   6.781  0.0030  1.0426  0.2320
22289SOL     OW73981   0.333  10.375   3.461 -0.3308  0.4092 -0.0992
22289SOL    HW173982   0.243  10.364   3.431 -0.3239 -0.2444  0.1000
22289SOL    HW273983   0.347  10.301   3.522  0.0211  1.0415  0.6051
22290SOL     OW73984   8.213   3.821   7.905  0.2718 -0.1371 -0.3340
22290SOL    HW173985   8.158   3.899   7.907 -1.3075 -1.2007  0.9276
22290SOL    HW273986   8.227   3.804   7.811 -1.4602  0.2621 -0.7011
22291SOL     OW73987   0.147   9.154  11.190 -0.1146 -0.3688  0.2648
22291SOL    HW173988   0.122   9.110  11.271  0.0389 -1.9001 -0.4846
22291SOL    HW273989   0.240   9.134  11.180 -0.4723 -1.5445 -1.0638
22292SOL     OW73990   1.463   9.890   4.471  0.2677  0.3613 -0.2609
22292SOL    HW173991   1.416   9.807   4.479  1.0285 -0.1456 -0.8600
22292SOL    HW273992   1.447   9.935   4.554  0.1712 -0.5573  0.2244
22293SOL     OW73993   5.105   9.218   9.004 -0.2276 -0.8328  0.1011
22293SOL    HW173994   5.015   9.215   9.035 -0.9626  0.7897 -1.6730
22293SOL    HW273995   5.106   9.160   8.927 -0.8783  2.0600 -2.2611
22294SOL     OW73996   2.273   7.771   7.323 -0.0635 -0.0321 -0.1563
22294SOL    HW173997   2.236   7.693   7.280  1.4289 -0.6766 -0.3325
22294SOL    HW273998   2.274   7.838   7.254 -1.5969  0.2579  0.0661
22295SOL     OW73999  11.136   4.770   0.609  0.6059  0.1253  0.0991
22295SOL    HW174000  11.075   4.844   0.603 -0.3875 -0.3385  2.9932
22295SOL    HW274001  11.182   4.784   0.692  1.6562 -1.5908 -0.1561
22296SOL     OW74002  11.851   2.450   3.616 -0.3389  0.3384 -0.5787
22296SOL    HW174003  11.919   2.506   3.577  0.5355  0.0430  0.4608
22296SOL    HW274004  11.849   2.373   3.560 -0.1262  0.5439 -0.8715
22297SOL     OW74005   2.344   3.497  11.427  0.3919 -0.5376  0.4208
22297SOL    HW174006   2.431   3.484  11.389  0.9237  1.5572  0.7692
22297SOL    HW274007   2.326   3.590  11.413 -1.2188 -0.6432  1.5448
22298SOL     OW74008   0.191  12.009   2.244 -0.2938 -0.0886  0.9048
22298SOL    HW174009   0.216  12.100   2.257 -0.6310  0.4850 -1.7895
22298SOL    HW274010   0.258  11.959   2.291  3.6314  1.4828 -2.3111
22299SOL     OW74011   1.652   1.607   0.051  0.2949  0.2478  0.6453
22299SOL    HW174012   1.743   1.580   0.058 -0.0336 -1.6122 -1.1505
22299SOL    HW274013   1.640   1.626  -0.042 -1.4133 -0.6891  0.6274
22300SOL     OW74014   5.876   9.102   7.465 -0.1390  0.4793  0.9188
22300SOL    HW174015   5.804   9.164   7.454 -0.0237  0.3368 -0.9572
22300SOL    HW274016   5.834   9.017   7.472 -0.1669  0.3824 -0.2990
22301SOL     OW74017   1.104   7.206   1.490 -0.2274 -0.1241  0.2858
22301SOL    HW174018   1.063   7.131   1.532 -2.7155  1.7345  1.4708
22301SOL    HW274019   1.042   7.278   1.504  1.6649  1.9934 -1.4168
22302SOL     OW74020  10.351   4.508   8.799 -0.1223  0.0669 -0.2073
22302SOL    HW174021  10.359   4.466   8.713 -1.3727 -0.0252 -0.2988
22302SOL    HW274022  10.366   4.601   8.782  1.2725 -0.1351 -0.2311
22303SOL     OW74023   0.623   1.793   2.953 -0.1549  0.0846  0.4510
22303SOL    HW174024   0.574   1.751   3.024  0.5759 -1.9432 -0.1774
22303SOL    HW274025   0.555   1.821   2.891 -0.6937  0.1841  1.0766
22304SOL     OW74026  12.379  11.266   4.789 -0.0077  0.1155 -0.0766
22304SOL    HW174027  12.402  11.222   4.871  0.5754  1.3167  0.4323
22304SOL    HW274028  12.433  11.224   4.723  0.0598 -0.3680  0.2801
22305SOL     OW74029  11.507   9.291   0.372 -1.0091 -0.5731  0.0625
22305SOL    HW174030  11.585   9.237   0.389 -1.9107 -1.6384  0.9313
22305SOL    HW274031  11.499   9.291   0.277  1.2175  1.2956 -0.2240
22306SOL     OW74032   3.156  12.570   2.463 -0.0343 -0.3086 -0.0773
22306SOL    HW174033   3.152  12.587   2.558  1.2590  0.4139 -0.1335
22306SOL    HW274034   3.182  12.654   2.425  0.7303 -0.9299 -0.9551
22307SOL     OW74035   6.175   2.505   8.366  0.5226 -0.4063  0.6732
22307SOL    HW174036   6.224   2.428   8.394  0.3452 -1.2873 -1.2733
22307SOL    HW274037   6.233   2.579   8.383  0.6825 -0.9351  2.6016
22308SOL     OW74038  11.041   9.915  10.996  0.2715 -0.0843 -0.1329
22308SOL    HW174039  11.060   9.940  11.086 -0.1746  2.2133 -0.6036
22308SOL    HW274040  11.022   9.998  10.952 -1.0511 -1.2933 -1.9760
22309SOL     OW74041   6.409  11.430   4.038 -0.4089 -0.0508 -0.5974
22309SOL    HW174042   6.408  11.494   4.109 -0.2521 -1.4402  0.7125
22309SOL    HW274043   6.379  11.349   4.079  1.9468 -1.4868 -1.5207
22310SOL     OW74044   3.244   1.415   8.314  0.3312  0.4506  0.3604
22310SOL    HW174045   3.330   1.375   8.302 -0.1195 -0.3068 -0.4017
22310SOL    HW274046   3.207   1.370   8.391  0.3920  0.3981  0.3586
22311SOL     OW74047   8.693   3.517   1.116  0.4935  0.3017  0.0191
22311SOL    HW174048   8.747   3.458   1.064 -0.9537 -1.0573 -0.0176
22311SOL    HW274049   8.670   3.587   1.055 -0.2236 -0.6755 -0.8742
22312SOL     OW74050   4.645   5.092   8.485  0.2035 -0.1867 -0.2691
22312SOL    HW174051   4.690   5.021   8.531 -0.0158 -0.1019  0.0763
22312SOL    HW274052   4.595   5.049   8.416  0.6380 -0.3023 -0.5155
22313SOL     OW74053   7.850   0.800   3.949 -0.5285 -0.2829  0.1672
22313SOL    HW174054   7.813   0.796   4.037  0.9314 -1.6282  0.7708
22313SOL    HW274055   7.778   0.773   3.891 -1.5832  0.8752  0.8806
22314SOL     OW74056   5.113   1.408  10.254 -0.0435 -0.1132  0.1150
22314SOL    HW174057   5.078   1.322  10.231 -0.7841  0.4436 -0.9507
22314SOL    HW274058   5.202   1.391  10.285  0.1335 -1.1824 -0.9105
22315SOL     OW74059   3.650   9.802   9.410 -0.5601 -0.2539 -0.3229
22315SOL    HW174060   3.614   9.886   9.382 -1.0180 -0.7128 -1.1342
22315SOL    HW274061   3.577   9.741   9.404 -0.1688 -0.7619  0.0164
22316SOL     OW74062   5.794  10.956  11.725 -0.8710 -0.0094  0.6533
22316SOL    HW174063   5.878  10.913  11.736 -0.7824 -0.7103 -2.0610
22316SOL    HW274064   5.733  10.902  11.775 -0.0932 -0.9389  0.6312
22317SOL     OW74065   7.383   2.112   2.068  0.4279  0.2815 -0.3766
22317SOL    HW174066   7.336   2.185   2.107 -1.4519 -1.2685  0.4813
22317SOL    HW274067   7.319   2.041   2.066  3.1442 -2.6253  2.6972
22318SOL     OW74068   4.157   6.673   3.422  0.4579 -0.3715  0.0276
22318SOL    HW174069   4.132   6.587   3.456 -1.9721  0.9462  1.9061
22318SOL    HW274070   4.081   6.702   3.372  2.5126 -0.5918 -3.5464
22319SOL     OW74071   8.277   8.003  11.035 -0.0977 -0.3922  0.2377
22319SOL    HW174072   8.188   8.009  11.000 -0.1545  0.8624  0.5255
22319SOL    HW274073   8.317   8.087  11.012  1.6636 -1.6453 -1.5358
22320SOL     OW74074   2.800  12.771   9.705  0.3905 -0.4106 -0.1152
22320SOL    HW174075   2.732  12.837   9.690  1.1977  0.3269 -0.5822
22320SOL    HW274076   2.860  12.780   9.632  0.0422 -2.3148 -0.7023
22321SOL     OW74077   5.523   7.774   9.149  0.3620  0.7944 -0.4117
22321SOL    HW174078   5.500   7.691   9.190  0.0043  0.5406 -1.1179
22321SOL    HW274079   5.618   7.779   9.156  0.5056 -0.2458 -1.4381
22322SOL     OW74080   8.529   4.791   0.596 -0.5592 -0.1268 -0.3503
22322SOL    HW174081   8.442   4.796   0.558 -0.4052  2.7438 -0.5006
22322SOL    HW274082   8.587   4.830   0.531  0.9084 -2.0080 -0.2749
22323SOL     OW74083   2.480   3.950   7.542  0.2325 -0.3546 -0.0900
22323SOL    HW174084   2.447   4.034   7.509  1.9458 -0.0818 -1.2386
22323SOL    HW274085   2.401   3.902   7.567 -0.8296  1.3246 -0.0457
22324SOL     OW74086  10.152   5.993   0.407 -0.2736 -0.0168  0.0098
22324SOL    HW174087  10.106   6.075   0.427 -0.4254  0.0758 -0.7052
22324SOL    HW274088  10.239   6.021   0.378  0.1224 -0.1759  0.9889
22325SOL     OW74089   8.772   6.405   8.419  0.4249 -0.1159 -0.5178
22325SOL    HW174090   8.678   6.419   8.423  0.4703  0.0659 -0.0246
22325SOL    HW274091   8.784   6.313   8.445  0.3262 -0.3850 -1.3710
22326SOL     OW74092   6.398  12.593   5.747  0.3295 -0.2371 -0.9354
22326SOL    HW174093   6.310  12.566   5.773  0.1204 -0.2810 -1.6687
22326SOL    HW274094   6.445  12.510   5.736  0.7606 -0.1976  0.4156
22327SOL     OW74095   4.645   0.136   4.544 -0.1451 -0.5121 -0.3972
22327SOL    HW174096   4.679   0.062   4.493  0.6873 -1.7889  1.8728
22327SOL    HW274097   4.711   0.204   4.532  1.1587 -1.5382  0.6070
22328SOL     OW74098   0.708  10.917  12.869 -0.4312 -0.7781 -0.6207
22328SOL    HW174099   0.680  11.008  12.876 -0.2311 -0.6443 -1.5012
22328SOL    HW274100   0.627  10.868  12.855 -0.6302 -0.8409  0.6401
22329SOL     OW74101   3.781   8.897   8.368 -0.1899 -0.0558  0.6662
22329SOL    HW174102   3.766   8.803   8.379  0.5084 -0.2283  0.2490
22329SOL    HW274103   3.874   8.909   8.385 -0.0192  0.3646 -0.4473
22330SOL     OW74104   0.044  10.171  11.636  0.1869  0.0944  0.4675
22330SOL    HW174105  -0.015  10.136  11.570  0.3751  0.3301  0.1741
22330SOL    HW274106   0.127  10.182  11.590 -0.0965  1.7680  0.3145
22331SOL     OW74107   7.903   4.717   7.907  0.2477 -0.5059 -0.1288
22331SOL    HW174108   7.897   4.809   7.932 -1.2068 -0.5244 -0.2854
22331SOL    HW274109   7.869   4.669   7.982  5.3712 -1.3777  2.0101
22332SOL     OW74110   4.991   2.969   3.503  0.4010 -0.1769 -0.0675
22332SOL    HW174111   4.925   2.978   3.434 -1.0170  0.2242  1.2787
22332SOL    HW274112   4.941   2.974   3.584  2.1980  0.9458  1.0360
22333SOL     OW74113   0.414   1.663   3.927  0.0786  0.1115 -0.3010
22333SOL    HW174114   0.433   1.605   3.853 -2.4601 -1.2699  0.0236
22333SOL    HW274115   0.321   1.649   3.945 -0.1612  2.9122  1.0522
22334SOL     OW74116   0.609   4.909   7.134 -0.4252 -0.0412 -0.2900
22334SOL    HW174117   0.678   4.888   7.071  0.3603 -1.6593  1.0306
22334SOL    HW274118   0.536   4.940   7.081  0.1695 -1.4256 -2.0047
22335SOL     OW74119   7.485   7.953   4.119  0.6544 -0.2801  0.0409
22335SOL    HW174120   7.422   7.986   4.183 -0.3138 -0.6149 -0.7075
22335SOL    HW274121   7.488   8.020   4.051 -0.7105 -1.2901 -1.0834
22336SOL     OW74122   7.234   2.965   8.874 -0.4162 -0.2484  0.1522
22336SOL    HW174123   7.228   2.948   8.780 -1.4040  0.8985 -0.0201
22336SOL    HW274124   7.150   2.936   8.909 -0.4352  0.2396  0.5202
22337SOL     OW74125   0.523   4.083  11.511 -0.1716  0.1188  0.0003
22337SOL    HW174126   0.481   4.072  11.597  0.2244  0.4208  0.2384
22337SOL    HW274127   0.604   4.132  11.530 -1.3654  2.5902 -0.8564
22338SOL     OW74128   2.766   3.116  11.910  0.5203  0.5578 -0.3458
22338SOL    HW174129   2.671   3.129  11.912  0.5196  0.6771 -0.9496
22338SOL    HW274130   2.794   3.129  12.000  0.0569  1.2463 -0.2959
22339SOL     OW74131   4.874  12.890   7.957 -0.1885 -0.4855  0.0181
22339SOL    HW174132   4.958  12.896   7.910  0.0012  0.3793  0.4464
22339SOL    HW274133   4.812  12.859   7.891 -0.3396  2.4330 -1.4101
22340SOL     OW74134   1.578  10.908   5.076  0.7024 -0.6972 -0.1898
22340SOL    HW174135   1.631  10.893   5.155  0.8096 -4.2191 -0.7951
22340SOL    HW274136   1.608  10.842   5.014  0.1955  1.5835 -3.0561
22341SOL     OW74137   5.150  12.292   1.504 -0.5061 -0.4963  0.1970
22341SOL    HW174138   5.065  12.329   1.529 -0.4763  0.9794 -1.6356
22341SOL    HW274139   5.128  12.210   1.459 -0.6953 -1.8332  2.5569
22342SOL     OW74140   8.424   7.282  10.925  1.0722 -0.3045  0.0031
22342SOL    HW174141   8.484   7.355  10.940  0.2041  0.6620 -1.0161
22342SOL    HW274142   8.477   7.204  10.937  2.5928  0.5238 -1.1245
22343SOL     OW74143  10.207  10.682   2.083 -0.2919  0.5166 -0.0832
22343SOL    HW174144  10.170  10.639   2.006  0.0037  1.6997 -0.9275
22343SOL    HW274145  10.210  10.775   2.059  0.0495  0.8809  1.2660
22344SOL     OW74146   8.800   5.110   6.580 -0.6747  0.4290 -0.2763
22344SOL    HW174147   8.733   5.042   6.584 -2.9218  2.3719 -1.7458
22344SOL    HW274148   8.845   5.095   6.497  1.4978 -1.4288  1.1232
22345SOL     OW74149   1.639   5.236   1.434  0.0583  0.6604 -0.1826
22345SOL    HW174150   1.631   5.178   1.358 -1.8742  0.6102 -0.0078
22345SOL    HW274151   1.733   5.242   1.451  0.4517 -0.3073 -1.8181
22346SOL     OW74152   6.260   3.326   1.323 -0.0824  0.0036 -0.0500
22346SOL    HW174153   6.256   3.275   1.243 -2.0389  0.9495 -0.6085
22346SOL    HW274154   6.169   3.350   1.342  0.0881 -1.3562  3.2455
22347SOL     OW74155   1.687  11.122  10.802 -0.4909 -0.0019 -0.1854
22347SOL    HW174156   1.615  11.178  10.832 -0.9872 -0.2047 -0.9754
22347SOL    HW274157   1.657  11.087  10.718  0.3743 -0.3913 -0.3424
22348SOL     OW74158   7.912   6.336   6.503 -0.5012  0.4357  0.2492
22348SOL    HW174159   7.908   6.325   6.598 -1.1400  0.5469  0.2399
22348SOL    HW274160   7.858   6.412   6.485 -3.1392 -1.4628 -0.4895
22349SOL     OW74161   5.248   7.327   4.876 -0.3612 -0.1515 -0.2099
22349SOL    HW174162   5.290   7.253   4.920  0.5237  0.4192 -0.0739
22349SOL    HW274163   5.154   7.314   4.892 -0.2551 -1.4286 -0.4942
22350SOL     OW74164   7.413   3.990   5.771 -0.0745 -0.6152  0.0811
22350SOL    HW174165   7.462   4.027   5.844 -1.5497 -1.7399  1.7130
22350SOL    HW274166   7.453   3.904   5.757  2.4594  0.8147 -2.8204
22351SOL     OW74167  10.275   1.765  11.152 -0.5063  0.1476 -0.2394
22351SOL    HW174168  10.304   1.676  11.135  0.7961  0.5636 -0.2757
22351SOL    HW274169  10.316   1.818  11.084 -1.5045  0.7457 -0.3990
22352SOL     OW74170   6.000  12.334   8.056 -0.6027  0.4028 -0.3843
22352SOL    HW174171   5.991  12.286   7.973  1.1647 -0.3863 -0.1774
22352SOL    HW274172   5.935  12.294   8.114  0.6383 -1.6605 -0.3005
22353SOL     OW74173   5.949   1.374   9.381  0.3497  0.0215 -0.2601
22353SOL    HW174174   6.037   1.336   9.377  0.3626  0.1017 -0.7375
22353SOL    HW274175   5.958   1.448   9.441  0.7014  0.2830 -0.6320
22354SOL     OW74176   1.918   0.795  12.047  0.1552  0.3001 -0.0461
22354SOL    HW174177   1.930   0.779  11.954  0.2423  1.5152 -0.2503
22354SOL    HW274178   1.937   0.888  12.059  1.0425 -0.0211  1.3217
22355SOL     OW74179   6.709   8.008   0.407 -0.3182  0.0362 -0.7554
22355SOL    HW174180   6.659   8.078   0.449  1.6177  1.2044 -0.2972
22355SOL    HW274181   6.717   7.941   0.474  0.9401  0.9777  0.0677
22356SOL     OW74182   4.196   9.726   3.553 -0.3271 -0.2665 -0.3089
22356SOL    HW174183   4.199   9.798   3.616 -0.9532 -0.4264 -0.0892
22356SOL    HW274184   4.243   9.654   3.596  0.2738  0.0000 -0.5169
22357SOL     OW74185   7.337   1.863   6.296 -0.1261 -0.0660 -0.0222
22357SOL    HW174186   7.302   1.948   6.322 -1.4401 -0.6984  0.3916
22357SOL    HW274187   7.281   1.835   6.224 -0.9606 -1.4063  1.0870
22358SOL     OW74188   7.033   7.498   5.216  0.2437  0.3983 -0.0376
22358SOL    HW174189   7.114   7.483   5.265  0.1570  1.1491  0.3425
22358SOL    HW274190   7.036   7.433   5.146  0.0813 -1.1327  1.3123
22359SOL     OW74191   0.455  11.823   6.750  0.1890  0.3975  0.0667
22359SOL    HW174192   0.422  11.735   6.734 -0.1079  0.5901 -0.3991
22359SOL    HW274193   0.455  11.865   6.664  0.0204  0.9559  0.3313
22360SOL     OW74194   4.224   3.281   4.304 -0.1758 -0.4443 -0.0758
22360SOL    HW174195   4.318   3.288   4.319  0.2270 -2.4814 -1.2859
22360SOL    HW274196   4.201   3.363   4.261  1.4657 -0.6837 -1.5406
22361SOL     OW74197   2.423  12.283   2.733  0.6981 -0.7917  0.3656
22361SOL    HW174198   2.507  12.283   2.779  0.4585  0.3274  0.8268
22361SOL    HW274199   2.428  12.358   2.673 -0.9239  0.9370  2.2608
22362SOL     OW74200  12.929   6.602   7.414  1.3617  0.2001  0.2923
22362SOL    HW174201  12.838   6.585   7.436  1.0969  0.1176 -0.8312
22362SOL    HW274202  12.969   6.629   7.497  0.5491 -0.6800  0.9801
22363SOL     OW74203   7.271   6.709   8.103 -0.3211  0.0651 -0.6637
22363SOL    HW174204   7.182   6.691   8.131  0.0557 -0.6213  0.1638
22363SOL    HW274205   7.326   6.665   8.169  0.6327 -2.3167 -2.8637
22364SOL     OW74206   9.669   7.092   4.561 -0.3017 -0.0728  0.5880
22364SOL    HW174207   9.630   7.017   4.606 -0.8480  0.3783  0.8753
22364SOL    HW274208   9.726   7.052   4.494 -2.4729 -0.8068 -0.9675
22365SOL     OW74209  12.890   3.120   7.325 -0.3609 -0.3997  0.0082
22365SOL    HW174210  12.862   3.182   7.392 -1.2283 -1.0153  0.2242
22365SOL    HW274211  12.932   3.049   7.374 -1.5002 -1.1228 -0.0404
22366SOL     OW74212   2.689   0.410   1.262  0.2212  0.0524 -0.1766
22366SOL    HW174213   2.598   0.420   1.236  0.2461  1.9296  0.3514
22366SOL    HW274214   2.686   0.392   1.356  0.4023  0.2377 -0.1347
22367SOL     OW74215  10.945   8.045   5.684  0.0672  0.5395 -0.3795
22367SOL    HW174216  10.907   8.072   5.768  2.9867 -0.9530  1.5959
22367SOL    HW274217  11.034   8.079   5.687  0.8518 -1.2463 -2.0228
22368SOL     OW74218   1.399   2.548   6.978  0.0192  0.7520 -0.2850
22368SOL    HW174219   1.472   2.525   7.035  0.7545 -1.5268 -1.9912
22368SOL    HW274220   1.323   2.505   7.018  0.0411  1.1967  0.2505
22369SOL     OW74221  11.146   4.839   3.360  0.2221  0.3587 -0.4109
22369SOL    HW174222  11.106   4.921   3.333 -0.7608 -0.6497 -2.2981
22369SOL    HW274223  11.206   4.817   3.288  1.4372  0.0452  0.6709
22370SOL     OW74224   5.812   6.874   1.608  0.1966 -0.7868  0.3064
22370SOL    HW174225   5.721   6.875   1.635  0.2043 -0.6666  0.3251
22370SOL    HW274226   5.824   6.787   1.568 -0.0389 -0.6434 -0.0818
22371SOL     OW74227   7.714  12.598   3.716  0.4516  0.4366  0.2354
22371SOL    HW174228   7.654  12.524   3.720  0.7772  0.0754 -0.9962
22371SOL    HW274229   7.791  12.569   3.767  0.2022  0.3091  0.5442
22372SOL     OW74230   2.213   9.128   8.378  0.5452 -0.1136 -0.4117
22372SOL    HW174231   2.198   9.034   8.378 -1.0962  0.1080 -0.0532
22372SOL    HW274232   2.167   9.159   8.300  0.5874  0.4492 -0.2172
22373SOL     OW74233  10.482   4.768  11.526  0.8895 -0.1066  0.3384
22373SOL    HW174234  10.492   4.675  11.547  0.4944  0.1810  1.9454
22373SOL    HW274235  10.430   4.769  11.446  1.4091 -1.2683 -0.0376
22374SOL     OW74236   7.491   6.603   1.082 -0.0776  0.1292 -0.0933
22374SOL    HW174237   7.478   6.660   1.006 -1.4108  1.7329  1.2763
22374SOL    HW274238   7.479   6.514   1.047  0.2319  0.7692 -1.9143
22375SOL     OW74239   2.755   2.830   9.200  0.2572 -0.3599  0.7458
22375SOL    HW174240   2.769   2.877   9.118  1.4889 -1.2286  0.4325
22375SOL    HW274241   2.823   2.763   9.202  0.2668 -0.3495  2.4948
22376SOL     OW74242   0.289   5.693   1.799  0.1457  0.0951  0.0284
22376SOL    HW174243   0.381   5.681   1.823  0.7787 -2.6731 -2.9637
22376SOL    HW274244   0.250   5.607   1.812 -1.7883  0.9763  0.3086
22377SOL     OW74245   2.649   1.763   3.109 -0.0112 -0.8321  0.3542
22377SOL    HW174246   2.706   1.730   3.039 -1.0423  1.6178 -1.8252
22377SOL    HW274247   2.702   1.759   3.188  1.2384 -3.7059 -0.5111
22378SOL     OW74248   8.276   0.666  11.522  0.2450  0.3818  0.3008
22378SOL    HW174249   8.303   0.735  11.583 -0.8666  1.9014 -0.8486
22378SOL    HW274250   8.196   0.630  11.560 -0.8205  1.7848 -0.5372
22379SOL     OW74251  12.189   7.186   6.650  0.1583  0.0248 -0.4448
22379SOL    HW174252  12.263   7.226   6.696  0.2513 -0.1421 -0.4484
22379SOL    HW274253  12.127   7.163   6.719  0.8590 -1.4156 -0.2627
22380SOL     OW74254   3.222   3.801   9.822  0.3337  0.4319  0.2157
22380SOL    HW174255   3.200   3.714   9.854  0.0569  0.3356 -0.2268
22380SOL    HW274256   3.264   3.786   9.737  2.1733  0.6133  1.0572
22381SOL     OW74257  12.558   8.620  11.691  0.0616  0.4803 -0.3001
22381SOL    HW174258  12.487   8.670  11.733  1.7514  1.2195  1.8722
22381SOL    HW274259  12.621   8.686  11.664  0.7474 -0.2748 -0.5565
22382SOL     OW74260  11.208   5.711   6.754  0.0946 -0.2982  0.0414
22382SOL    HW174261  11.272   5.723   6.683  0.3634 -0.9387  0.1703
22382SOL    HW274262  11.240   5.766   6.825 -0.0797  0.2096 -0.2656
22383SOL     OW74263   1.874   5.466   0.272  0.0602  0.0444  0.3651
22383SOL    HW174264   1.911   5.538   0.221  0.6230 -1.2699 -1.1591
22383SOL    HW274265   1.928   5.462   0.351  0.0233  1.2592  0.4668
22384SOL     OW74266  12.220   0.372   7.773 -0.3414  0.1679  0.5072
22384SOL    HW174267  12.297   0.348   7.826 -0.1335  0.8289  0.5169
22384SOL    HW274268  12.257   0.422   7.700 -0.6402 -0.6425 -0.2032
22385SOL     OW74269   1.023   0.220   6.335  0.0649  0.2339  0.6918
22385SOL    HW174270   1.036   0.126   6.323  0.5840  0.4372 -0.5632
22385SOL    HW274271   1.111   0.255   6.350 -0.2045  0.4469  1.8985
22386SOL     OW74272   0.675   5.656   8.081 -0.3689 -0.0887 -0.1844
22386SOL    HW174273   0.609   5.586   8.074 -1.5045  1.1049 -2.2994
22386SOL    HW274274   0.629   5.726   8.128  0.3484 -0.2453  0.7843
22387SOL     OW74275  12.610   4.101   0.656  0.3148  0.3243 -0.3121
22387SOL    HW174276  12.535   4.133   0.706 -0.1348  0.9550 -1.3667
22387SOL    HW274277  12.578   4.095   0.566  0.0374 -4.0094 -0.1386
22388SOL     OW74278   5.962   4.146   2.555  0.3930 -0.1456 -0.0701
22388SOL    HW174279   6.027   4.179   2.493 -1.2581  1.2474 -1.1677
22388SOL    HW274280   5.932   4.223   2.602 -1.2240 -0.5414 -0.3768
22389SOL     OW74281   2.544   1.908  11.374 -0.0869  0.3089  0.0491
22389SOL    HW174282   2.534   1.927  11.280  0.8778  2.2963  0.2907
22389SOL    HW274283   2.589   1.985  11.409 -1.1187 -0.0371  2.3073
22390SOL     OW74284   3.250  12.247  12.747  0.0970  0.0694 -0.1899
22390SOL    HW174285   3.287  12.243  12.835  1.0707  1.1551 -0.5229
22390SOL    HW274286   3.198  12.328  12.747  0.5796  0.3875 -0.7777
22391SOL     OW74287  10.203   3.666   9.584  0.1123 -0.0247  0.6590
22391SOL    HW174288  10.254   3.742   9.554 -0.1927 -0.8435 -2.2125
22391SOL    HW274289  10.254   3.591   9.555 -2.0552 -0.8716 -1.1933
22392SOL     OW74290   9.368   2.506   2.972  0.3452 -0.1294  0.0163
22392SOL    HW174291   9.368   2.553   3.055 -0.9234 -0.5223  0.2442
22392SOL    HW274292   9.461   2.498   2.950  0.6836  0.2716  1.2189
22393SOL     OW74293   4.997   8.222   0.655 -0.1824 -0.1909 -0.1051
22393SOL    HW174294   4.929   8.162   0.624 -0.3174  0.5357 -1.2732
22393SOL    HW274295   4.990   8.218   0.751 -0.3966 -1.7702 -0.1660
22394SOL     OW74296   5.377  12.219   1.364 -0.3280  0.1720  0.3669
22394SOL    HW174297   5.329  12.177   1.435 -0.7867  1.6050  0.9545
22394SOL    HW274298   5.340  12.182   1.284 -1.7433  0.5158  0.8350
22395SOL     OW74299   7.436   9.412  12.589 -0.5348 -0.6021  0.4110
22395SOL    HW174300   7.385   9.452  12.660  1.5299  1.3302  0.9061
22395SOL    HW274301   7.501   9.358  12.634  0.2911  0.0205 -0.0076
22396SOL     OW74302   3.329   9.214   8.784  0.5106 -0.2486  0.1625
22396SOL    HW174303   3.289   9.267   8.715  1.0971  0.8513  0.6499
22396SOL    HW274304   3.275   9.231   8.861  2.5669  2.2989  1.1771
22397SOL     OW74305  11.200  11.240   1.028 -0.4218 -0.2926 -0.0903
22397SOL    HW174306  11.292  11.256   1.005  0.0314 -3.1081 -0.6341
22397SOL    HW274307  11.185  11.292   1.106  1.4068  0.8035 -0.4130
22398SOL     OW74308  10.210   3.394   8.336 -0.4295  0.3311 -0.0797
22398SOL    HW174309  10.214   3.302   8.312  0.5231  0.5862 -0.9645
22398SOL    HW274310  10.289   3.410   8.387  0.2389  0.9826 -1.2483
22399SOL     OW74311  10.932   8.665  12.284  0.1336 -0.2804  0.2086
22399SOL    HW174312  10.895   8.738  12.334 -1.9959 -1.6197  0.7207
22399SOL    HW274313  10.868   8.648  12.215  0.8667 -1.3112 -0.2432
22400SOL     OW74314  12.557   1.214  11.270  0.1744 -0.2839 -0.1930
22400SOL    HW174315  12.633   1.159  11.252  0.1504 -0.8246  1.2717
22400SOL    HW274316  12.574   1.252  11.356 -0.6699  0.5352 -0.3767
22401SOL     OW74317   3.411  11.204   9.056 -0.5502 -0.2379  0.2231
22401SOL    HW174318   3.495  11.184   9.014  0.3337  0.0045  1.7875
22401SOL    HW274319   3.370  11.270   9.000  1.0741  0.8686  0.2671
22402SOL     OW74320   7.021   1.275   8.681 -0.0900  0.0483 -0.1448
22402SOL    HW174321   6.954   1.242   8.621 -0.2053 -3.4088  1.6414
22402SOL    HW274322   6.978   1.274   8.767  1.0458  1.7680  0.4957
22403SOL     OW74323   4.623  11.507   8.527  0.2751 -0.0149  0.1529
22403SOL    HW174324   4.663  11.531   8.443  0.1820 -0.9945 -0.1928
22403SOL    HW274325   4.553  11.446   8.503  0.4081 -0.4980  0.9561
22404SOL     OW74326   6.234   8.892   1.461 -0.6221  0.0253 -0.2775
22404SOL    HW174327   6.163   8.858   1.406 -0.3783 -0.5812 -0.2289
22404SOL    HW274328   6.189   8.939   1.531 -0.9906 -0.5569 -0.1137
22405SOL     OW74329  10.482   4.651   3.078  0.2110 -0.2397 -0.2693
22405SOL    HW174330  10.413   4.711   3.049 -0.0160 -0.6999 -0.7071
22405SOL    HW274331  10.444   4.605   3.153  0.3255  0.0449 -0.0352
22406SOL     OW74332   5.266  10.534   1.975 -0.3294 -0.3579  0.0915
22406SOL    HW174333   5.243  10.529   1.882 -0.5201 -2.6918  0.1971
22406SOL    HW274334   5.338  10.597   1.979 -0.2961 -0.2362 -1.6276
22407SOL     OW74335   0.726   3.497   9.873 -0.1168  0.0500  0.1654
22407SOL    HW174336   0.767   3.420   9.832  0.1237  0.5264 -0.5001
22407SOL    HW274337   0.728   3.478   9.967 -0.0028 -0.7301  0.0130
22408SOL     OW74338   8.970   1.973   6.417 -0.4258 -0.3486  0.2130
22408SOL    HW174339   8.902   1.929   6.366  1.0060  0.1808 -2.2970
22408SOL    HW274340   8.922   2.026   6.481 -2.3003 -1.2065 -0.4096
22409SOL     OW74341   9.669   6.659   5.645  0.4184 -0.0854 -0.0514
22409SOL    HW174342   9.620   6.739   5.628  0.8810  0.4411  1.0024
22409SOL    HW274343   9.758   6.679   5.619  0.9282  0.4027  1.9216
22410SOL     OW74344   7.585   8.807  11.178 -0.3581 -0.0037  0.4097
22410SOL    HW174345   7.652   8.873  11.192 -0.7491  0.3584  0.5803
22410SOL    HW274346   7.508   8.856  11.149 -0.4564 -0.4468 -0.1014
22411SOL     OW74347   2.820   6.748   8.372  0.0838 -0.4942  0.1267
22411SOL    HW174348   2.885   6.775   8.437  1.0116  0.9844 -1.3128
22411SOL    HW274349   2.855   6.667   8.336  1.8062  0.8238 -1.3767
22412SOL     OW74350   1.312   5.461   5.223 -0.0487  0.2965  0.4966
22412SOL    HW174351   1.310   5.366   5.239 -0.3448  0.0865 -0.6805
22412SOL    HW274352   1.221   5.484   5.203  0.0298  0.8215  0.7463
22413SOL     OW74353  10.606   0.030   2.209  0.1865  0.1624  0.5733
22413SOL    HW174354  10.515   0.001   2.199 -0.5200  2.2910  0.2264
22413SOL    HW274355  10.658  -0.049   2.194 -1.5091 -0.6167 -1.8145
22414SOL     OW74356  10.629   1.385   4.358 -0.1078  0.7646 -0.0346
22414SOL    HW174357  10.545   1.423   4.332 -1.5145 -2.0386 -0.0625
22414SOL    HW274358  10.606   1.324   4.428  1.7962 -0.5396 -0.4688
22415SOL     OW74359   8.691   7.257   4.946  0.2427 -0.7203  0.1003
22415SOL    HW174360   8.597   7.273   4.937 -0.1695 -0.8302  3.2200
22415SOL    HW274361   8.712   7.195   4.876 -1.9289 -0.4997 -0.8124
22416SOL     OW74362   3.066   9.670   4.023 -0.2107  0.2925 -0.1400
22416SOL    HW174363   3.022   9.619   4.091 -1.6809  1.1547 -0.3949
22416SOL    HW274364   3.071   9.612   3.948  1.6190 -0.7475  0.7114
22417SOL     OW74365  10.286   5.780   6.474 -0.4959 -0.0257 -0.9328
22417SOL    HW174366  10.348   5.725   6.523 -0.1900  0.9270 -0.2278
22417SOL    HW274367  10.200   5.746   6.499 -0.3079 -0.2060 -0.5178
22418SOL     OW74368  12.289   2.925   4.147 -0.4806 -0.2580 -0.1400
22418SOL    HW174369  12.201   2.905   4.177 -0.9409  0.3826 -0.9916
22418SOL    HW274370  12.316   2.848   4.097  0.0596 -1.0823  1.3718
22419SOL     OW74371   1.231  12.675   2.031 -0.2075  0.7635  0.2214
22419SOL    HW174372   1.163  12.612   2.008  0.7833 -0.9660  1.7256
22419SOL    HW274373   1.190  12.733   2.095 -0.8712  1.1040 -0.4986
22420SOL     OW74374  10.346  11.630   4.540  0.6290  0.1631 -0.0862
22420SOL    HW174375  10.367  11.723   4.554  1.3972 -0.2489  1.6925
22420SOL    HW274376  10.392  11.584   4.610 -0.4014 -1.5035 -0.4553
22421SOL     OW74377  11.836   2.320   7.092  0.7661 -0.1673 -0.3741
22421SOL    HW174378  11.816   2.343   7.182 -1.4310  1.7741 -1.2384
22421SOL    HW274379  11.932   2.324   7.087  0.8516  2.0249  1.3486
22422SOL     OW74380   6.642  11.190   5.465  0.1797  0.1542 -0.5784
22422SOL    HW174381   6.680  11.118   5.415  1.2151 -0.1002  0.5153
22422SOL    HW274382   6.713  11.219   5.522 -0.7209  0.9595  0.1682
22423SOL     OW74383   3.315   3.876   5.097  0.2842  0.0460  0.2803
22423SOL    HW174384   3.306   3.853   5.004  0.4251  1.6430 -0.1595
22423SOL    HW274385   3.232   3.921   5.118 -0.3499 -1.5276  1.3388
22424SOL     OW74386   6.822   4.014   0.735  0.3883  0.0043  0.2392
22424SOL    HW174387   6.778   3.934   0.763  0.7682  0.2219  1.5023
22424SOL    HW274388   6.886   3.986   0.670 -0.5302 -0.5125 -0.4596
22425SOL     OW74389  12.281  11.969   9.491  0.1429 -0.5893 -0.7264
22425SOL    HW174390  12.363  12.018   9.477 -0.8838  1.4249 -0.1165
22425SOL    HW274391  12.237  11.972   9.406  0.7062 -1.7329 -1.0726
22426SOL     OW74392   0.627   9.545   5.444 -0.1247 -0.4472  0.3346
22426SOL    HW174393   0.546   9.532   5.494  0.7299 -0.4175  1.7934
22426SOL    HW274394   0.658   9.632   5.470  0.6449 -0.6797  0.2375
22427SOL     OW74395  12.634   7.674   3.290  0.1620  0.6578  0.8414
22427SOL    HW174396  12.652   7.591   3.246 -0.9723  2.7523 -4.2941
22427SOL    HW274397  12.539   7.677   3.296  0.1938  1.6392  0.9097
22428SOL     OW74398   9.590  10.306   2.232  0.6681 -0.0544  0.0978
22428SOL    HW174399   9.546  10.385   2.198 -1.0200 -0.2359  1.7158
22428SOL    HW274400   9.526  10.236   2.220  1.9209 -1.1011 -0.7581
22429SOL     OW74401  12.075  11.520  10.188 -0.2413  0.2797  0.1761
22429SOL    HW174402  12.075  11.557  10.275 -1.0147 -2.3612  1.4155
22429SOL    HW274403  12.168  11.514  10.164  0.2949 -2.0677  2.3662
22430SOL     OW74404  10.051   1.300   2.200  0.4389 -0.5826 -0.0287
22430SOL    HW174405  10.089   1.213   2.185 -0.5725 -1.3837  1.8328
22430SOL    HW274406  10.076   1.323   2.289 -0.5402  0.4067  0.0129
22431SOL     OW74407   8.930   0.315  10.980  0.2912 -0.1098 -0.2410
22431SOL    HW174408   8.849   0.356  11.008  0.6541 -0.3900  1.3534
22431SOL    HW274409   8.997   0.382  10.994  0.6392 -0.6328  0.7033
22432SOL     OW74410   0.608   2.560   9.929 -0.0451 -0.2447 -0.0432
22432SOL    HW174411   0.658   2.581   9.849  0.3484  0.1966  0.3048
22432SOL    HW274412   0.671   2.514   9.985 -0.9504 -2.6287 -0.8610
22433SOL     OW74413  12.465   6.715   1.789  0.0033 -0.1174 -0.4383
22433SOL    HW174414  12.541   6.767   1.815 -0.0264 -1.0376  1.6654
22433SOL    HW274415  12.492   6.673   1.707  0.2368  2.6227 -1.9139
22434SOL     OW74416   3.034  10.927   4.811  0.0184 -0.0561  0.3503
22434SOL    HW174417   3.005  10.982   4.738  1.1962 -0.0079 -0.1031
22434SOL    HW274418   2.961  10.929   4.873 -1.4085 -0.8789 -1.2277
22435SOL     OW74419   4.364   9.369   0.282 -0.3610  0.2058 -0.0158
22435SOL    HW174420   4.371   9.363   0.377 -0.1063  1.5323  0.0650
22435SOL    HW274421   4.370   9.463   0.263  0.1621 -0.0801 -1.3882
22436SOL     OW74422  12.815   7.736   4.778  0.2020  0.0258  0.0382
22436SOL    HW174423  12.800   7.761   4.687 -0.4492 -0.1757  0.0834
22436SOL    HW274424  12.768   7.653   4.788  1.3890 -0.6440  0.1915
22437SOL     OW74425  12.336   5.051   9.066 -0.8639 -0.1819  0.2344
22437SOL    HW174426  12.273   5.041   8.995 -0.0807  2.5246 -0.9582
22437SOL    HW274427  12.283   5.063   9.145 -1.9754  2.5977 -0.8147
22438SOL     OW74428   6.770   6.552   5.866 -0.0458 -0.6673  0.3228
22438SOL    HW174429   6.838   6.507   5.815  0.3962 -0.3478  0.6146
22438SOL    HW274430   6.809   6.636   5.887 -0.3658 -0.6538  0.8753
22439SOL     OW74431   4.920   7.338   0.556 -0.7724 -0.0306 -0.4358
22439SOL    HW174432   4.992   7.392   0.525 -0.5237 -0.8837 -1.3924
22439SOL    HW274433   4.962   7.263   0.597 -1.0879 -0.7420 -1.3715
22440SOL     OW74434   4.226   2.259  10.701  0.1418  0.2205 -0.4496
22440SOL    HW174435   4.171   2.190  10.665 -1.7969  2.6408 -2.5643
22440SOL    HW274436   4.306   2.256  10.648  0.5361 -1.0060  0.1838
22441SOL     OW74437  12.374   7.809   0.531  0.5936  0.1100 -0.3508
22441SOL    HW174438  12.469   7.808   0.533  0.5868 -0.7694  0.3712
22441SOL    HW274439  12.350   7.901   0.546  1.3114  0.1499  0.6097
22442SOL     OW74440   9.030   1.088   3.653  0.2133 -0.2712 -0.2583
22442SOL    HW174441   8.960   1.085   3.587 -0.3521  1.9490  0.1478
22442SOL    HW274442   9.107   1.118   3.605  0.6287 -1.5752 -0.4619
22443SOL     OW74443   9.596   8.921  12.365  0.1830  0.4395  0.3157
22443SOL    HW174444   9.564   8.852  12.423  1.0668  2.1077  2.9406
22443SOL    HW274445   9.524   8.935  12.303 -0.4234 -2.0474  0.3429
22444SOL     OW74446   4.555   3.106   1.955 -0.3259  0.6132 -0.5503
22444SOL    HW174447   4.530   3.185   1.906 -0.4016  0.9696  0.0481
22444SOL    HW274448   4.604   3.140   2.030  0.8697 -0.0007 -1.0308
22445SOL     OW74449   4.209   3.134   8.421  0.1804 -0.2852  0.4667
22445SOL    HW174450   4.212   3.219   8.464  0.9169  0.2251 -0.5654
22445SOL    HW274451   4.255   3.075   8.481  1.5197  0.4911  0.2512
22446SOL     OW74452   2.287   5.359  10.710 -0.1393  0.1200  0.5849
22446SOL    HW174453   2.290   5.264  10.721  1.0593  0.3035  2.2288
22446SOL    HW274454   2.202   5.385  10.745 -1.5891 -0.5317 -2.1897
22447SOL     OW74455   9.266   2.194   6.695  0.0892 -0.3861  0.5616
22447SOL    HW174456   9.318   2.245   6.757 -0.7338 -0.5856  1.4424
22447SOL    HW274457   9.205   2.258   6.657  0.2660 -0.3624  0.3133
22448SOL     OW74458   1.840   8.424   5.466  0.0060 -0.2282  0.0705
22448SOL    HW174459   1.867   8.334   5.483  0.1880  0.2247  2.4303
22448SOL    HW274460   1.834   8.429   5.370 -1.0771 -3.0343 -0.1066
22449SOL     OW74461   4.889   9.058   7.682 -0.8423 -0.4341 -0.5363
22449SOL    HW174462   4.861   8.969   7.701  1.7191 -0.9912  1.0304
22449SOL    HW274463   4.967   9.071   7.736  0.6067  1.7364 -2.9421
22450SOL     OW74464  10.070  12.295   4.694 -0.0388  0.4766  0.3677
22450SOL    HW174465  10.109  12.209   4.711  0.0456  0.3208 -0.5722
22450SOL    HW274466  10.067  12.337   4.780  0.8194 -0.0873  0.6924
22451SOL     OW74467   6.564   8.100   5.849  0.5865 -0.0480 -0.3178
22451SOL    HW174468   6.535   8.180   5.805  0.4352  0.3016  0.4017
22451SOL    HW274469   6.520   8.029   5.802  0.9742  0.2603 -1.1668
22452SOL     OW74470  10.441   9.001   7.668 -0.1758 -0.1352  0.2920
22452SOL    HW174471  10.450   9.037   7.580  0.2706  2.3582  1.2782
22452SOL    HW274472  10.363   8.946   7.664  0.4736 -1.0072 -1.9123
22453SOL     OW74473   3.984   4.091   9.068  0.7512  0.0363 -0.2911
22453SOL    HW174474   4.004   4.120   8.979  0.0113 -0.0190 -0.4827
22453SOL    HW274475   3.960   3.999   9.058  0.2571  0.1413 -0.0971
22454SOL     OW74476  11.727  11.273   8.638 -0.1216  0.0182 -0.0442
22454SOL    HW174477  11.749  11.228   8.556  0.5261 -0.2489  0.2715
22454SOL    HW274478  11.641  11.239   8.661 -0.5057  0.4252 -0.8423
22455SOL     OW74479   9.498   9.581   6.049  0.3861  0.2400 -0.1075
22455SOL    HW174480   9.541   9.555   5.968  0.2644  1.4017 -0.5605
22455SOL    HW274481   9.569   9.589   6.113  0.8646  1.9823 -0.8054
22456SOL     OW74482   3.686   6.008   5.266 -0.3306 -0.6447 -0.4887
22456SOL    HW174483   3.668   6.096   5.234  0.2435 -1.1112 -2.1911
22456SOL    HW274484   3.741   6.021   5.343 -0.2038  0.4840 -0.7516
22457SOL     OW74485   0.493  11.457  11.649 -0.7531 -0.2800  0.4936
22457SOL    HW174486   0.467  11.533  11.700 -2.0569 -0.2621 -0.1604
22457SOL    HW274487   0.574  11.427  11.691  0.4102  2.0646  0.1612
22458SOL     OW74488   6.013   0.242   5.603 -0.1009 -0.2512  0.1399
22458SOL    HW174489   6.075   0.234   5.530 -1.0265 -1.1017 -0.5800
22458SOL    HW274490   6.068   0.259   5.679  0.8766  0.9312 -0.7768
22459SOL     OW74491  12.271  11.635   2.362 -0.3871  0.2718 -0.0018
22459SOL    HW174492  12.364  11.652   2.347 -0.8392  1.2545 -2.0585
22459SOL    HW274493  12.269  11.550   2.406  1.3981 -0.8222 -1.8626
22460SOL     OW74494  12.195  12.188  12.446  0.0706  0.5795 -0.5425
22460SOL    HW174495  12.267  12.150  12.395  1.4132  1.0959  0.8803
22460SOL    HW274496  12.157  12.113  12.493  0.4809  0.4676 -0.3764
22461SOL     OW74497   9.155   4.955   9.685  0.3865  0.4386  0.2400
22461SOL    HW174498   9.158   5.046   9.715 -1.0961  0.9007 -0.8928
22461SOL    HW274499   9.140   4.904   9.765 -0.1811  1.3333  0.7209
22462SOL     OW74500   8.281   7.385   6.113  0.3297 -0.3313 -0.3646
22462SOL    HW174501   8.309   7.469   6.150  2.9469 -0.6166 -1.4509
22462SOL    HW274502   8.276   7.401   6.019 -0.0903 -1.1556 -0.4904
22463SOL     OW74503   4.041   9.370  12.087  0.1775 -0.0321 -0.3758
22463SOL    HW174504   4.111   9.323  12.132  2.1594  1.7819 -1.3805
22463SOL    HW274505   4.035   9.454  12.131  0.5009  0.8516 -1.9306
22464SOL     OW74506   2.542   9.687   7.458 -0.5441 -0.1289  0.0822
22464SOL    HW174507   2.632   9.718   7.449 -0.1234 -0.8377  1.5803
22464SOL    HW274508   2.550   9.592   7.465 -1.6929 -0.5828 -3.0055
22465SOL     OW74509   3.794   3.668  12.399  0.5406 -0.1415 -0.4071
22465SOL    HW174510   3.750   3.594  12.441 -0.0121 -0.1613 -0.9993
22465SOL    HW274511   3.736   3.692  12.327  1.1226  0.3444 -0.7225
22466SOL     OW74512  10.882   7.887   2.038  0.7281 -0.7839  0.4710
22466SOL    HW174513  10.812   7.952   2.038  0.6786 -0.8369  0.7863
22466SOL    HW274514  10.843   7.810   2.078  0.7148 -1.0925 -0.1182
22467SOL     OW74515   5.784   9.755   9.589 -0.1984  0.0733  0.3332
22467SOL    HW174516   5.802   9.737   9.682  0.5183  0.6037  0.3040
22467SOL    HW274517   5.689   9.748   9.582 -0.2971  0.3869  1.1911
22468SOL     OW74518   8.593   8.764   6.918 -0.4450  0.3204  0.5714
22468SOL    HW174519   8.524   8.733   6.977  0.1565  0.0877  1.1749
22468SOL    HW274520   8.650   8.817   6.974 -0.2559  0.6866  0.0338
22469SOL     OW74521  11.549  10.690   8.832 -0.0860  0.2486 -0.0965
22469SOL    HW174522  11.532  10.731   8.747  1.8889  0.4453 -0.4544
22469SOL    HW274523  11.498  10.742   8.894  0.3999  1.7269 -0.8650
22470SOL     OW74524   5.361  11.110   8.909  0.0755 -0.0664  0.2004
22470SOL    HW174525   5.366  11.190   8.856 -1.6331 -0.7811 -1.1522
22470SOL    HW274526   5.429  11.053   8.873  0.5794  0.3704  0.4519
22471SOL     OW74527   7.447   2.144   5.299 -0.5386  0.3889 -0.2553
22471SOL    HW174528   7.451   2.176   5.389 -0.2834  0.6668 -0.3641
22471SOL    HW274529   7.375   2.080   5.299  0.1522 -0.4089  0.3993
22472SOL     OW74530  12.339   4.911   9.604 -0.3500 -0.6748  0.0492
22472SOL    HW174531  12.422   4.898   9.649 -0.2340 -0.7207 -0.1710
22472SOL    HW274532  12.277   4.935   9.672  0.2820  1.3135 -0.0273
22473SOL     OW74533   4.706  10.315  12.935  0.1039  0.3857  0.2695
22473SOL    HW174534   4.673  10.233  12.972 -1.3831  0.9088  0.1833
22473SOL    HW274535   4.704  10.376  13.009 -0.4847  0.7799 -0.0595
22474SOL     OW74536   7.807  10.219   5.611  0.1205 -0.1396  0.0456
22474SOL    HW174537   7.821  10.189   5.521  0.8920  0.7588 -0.1508
22474SOL    HW274538   7.747  10.155   5.649  0.1248 -0.7665 -0.9782
22475SOL     OW74539  11.895   5.275   0.988 -0.4217 -0.6068  0.6347
22475SOL    HW174540  11.841   5.345   0.951  0.6391 -1.3191 -2.5887
22475SOL    HW274541  11.835   5.203   1.004 -0.8201 -0.5806 -0.6386
22476SOL     OW74542   3.552   4.460   8.928  0.2095 -0.1151  0.1634
22476SOL    HW174543   3.498   4.404   8.984 -0.2227  1.0175  0.9173
22476SOL    HW274544   3.617   4.401   8.890 -0.6835 -1.2483  0.3542
22477SOL     OW74545   8.622  11.178   3.138  0.0852  0.0413  0.5600
22477SOL    HW174546   8.699  11.233   3.122  1.1033 -1.5808 -0.3391
22477SOL    HW274547   8.549  11.240   3.137  0.9537  1.2169 -2.4203
22478SOL     OW74548   8.909   2.059   6.921  0.7508  0.1570 -0.0257
22478SOL    HW174549   8.863   2.100   6.848  0.9096 -1.1044 -0.8742
22478SOL    HW274550   8.980   2.010   6.880  1.1988 -0.1153  1.0327
22479SOL     OW74551   2.960   0.688   5.362  0.0079  0.2400  0.5113
22479SOL    HW174552   3.048   0.651   5.367  0.3615  0.7667 -1.2971
22479SOL    HW274553   2.909   0.636   5.424  1.3863 -0.6367  0.9546
22480SOL     OW74554   5.290   5.829   5.070 -0.1111  0.1912  0.0828
22480SOL    HW174555   5.308   5.923   5.067  2.1853 -0.2256 -1.1636
22480SOL    HW274556   5.365   5.791   5.115 -0.3194 -1.1925 -0.6847
22481SOL     OW74557   4.560   4.328   2.470  0.3402  0.0070  0.0250
22481SOL    HW174558   4.471   4.294   2.486  0.0898  1.2700  1.5755
22481SOL    HW274559   4.603   4.260   2.419 -2.1827  0.2544 -2.6996
22482SOL     OW74560   9.910   5.931   5.952  0.2353  0.0480  0.1068
22482SOL    HW174561   9.874   5.935   5.864  0.6101  1.9768 -0.0038
22482SOL    HW274562   9.985   5.872   5.944  0.0041 -0.1477 -0.7595
22483SOL     OW74563  10.245   8.048   8.203  0.3876 -0.1075  0.1349
22483SOL    HW174564  10.308   8.064   8.133 -1.0378 -1.0525 -1.4611
22483SOL    HW274565  10.175   7.997   8.161 -0.9809  0.0812  2.0350
22484SOL     OW74566  11.108   1.325  12.044 -0.2221 -0.0515  0.9515
22484SOL    HW174567  11.156   1.385  11.986  0.7325  1.2660  2.9961
22484SOL    HW274568  11.076   1.256  11.986 -0.4008  1.8429 -1.3279
22485SOL     OW74569   8.958   1.237  12.590  0.8884  0.1472  0.5379
22485SOL    HW174570   8.942   1.189  12.509 -1.6773  0.9016  0.4918
22485SOL    HW274571   8.927   1.178  12.659  1.3686  0.2295  0.8294
22486SOL     OW74572  12.257   4.902  11.545  0.7605  0.1504 -0.0880
22486SOL    HW174573  12.202   4.893  11.467  0.3300 -1.4229  0.3565
22486SOL    HW274574  12.203   4.867  11.617  2.1258 -0.9777  0.4452
22487SOL     OW74575  12.605   2.501  10.925  0.5974  0.1074 -0.1624
22487SOL    HW174576  12.685   2.456  10.898  0.3712  0.8949 -2.3507
22487SOL    HW274577  12.534   2.444  10.894  0.1593 -1.4391  3.2004
22488SOL     OW74578   8.296   7.237   3.074  0.6087 -0.5440 -0.0204
22488SOL    HW174579   8.274   7.265   2.986 -0.6537 -0.9512  0.1428
22488SOL    HW274580   8.329   7.148   3.064  2.5352  0.1697 -0.2991
22489SOL     OW74581   6.141   0.302  10.692  0.2371 -0.6134 -0.6518
22489SOL    HW174582   6.199   0.284  10.618  1.5354 -0.0856  0.2004
22489SOL    HW274583   6.170   0.242  10.761  0.3334  0.2263  0.0604
22490SOL     OW74584  12.383  12.764   9.756 -0.0768  0.0596  0.0059
22490SOL    HW174585  12.322  12.720   9.698  0.8441 -1.2246 -0.0363
22490SOL    HW274586  12.469  12.750   9.715  0.6389 -1.1790  1.8165
22491SOL     OW74587   4.306  11.150  11.966  0.1727 -0.6818 -0.7388
22491SOL    HW174588   4.252  11.158  12.045 -1.0512  1.2810 -1.7136
22491SOL    HW274589   4.268  11.077  11.918 -0.9365 -0.0225 -0.8827
22492SOL     OW74590   1.309   8.006   3.112 -0.3136 -0.1070  0.4967
22492SOL    HW174591   1.338   7.988   3.201 -0.0357 -1.4317  0.1570
22492SOL    HW274592   1.379   7.974   3.056 -0.7769  0.1054 -0.2258
22493SOL     OW74593   1.695  12.394  11.640 -0.6168 -0.1288 -0.3009
22493SOL    HW174594   1.634  12.356  11.705 -2.0117  2.0656 -0.2407
22493SOL    HW274595   1.689  12.334  11.566 -1.1121 -1.1949  0.5546
22494SOL     OW74596   1.219  11.429  10.158  0.5855  0.2085  0.6663
22494SOL    HW174597   1.207  11.509  10.106  0.3963 -0.7147 -0.7317
22494SOL    HW274598   1.261  11.367  10.099  1.3399 -0.5312  1.9374
22495SOL     OW74599   6.799  10.808   6.946  0.0474  0.1950 -0.1818
22495SOL    HW174600   6.752  10.763   6.876  0.0220  0.8245 -0.5744
22495SOL    HW274601   6.732  10.857   6.993  0.2712  0.9183 -0.6062
22496SOL     OW74602   4.693   3.301   3.457  0.0855 -0.1161 -0.0136
22496SOL    HW174603   4.664   3.388   3.431 -2.7788 -0.6923  0.8720
22496SOL    HW274604   4.690   3.303   3.553  0.1336 -1.1440  0.0165
22497SOL     OW74605   2.597   7.400   3.844  0.6488 -0.2025 -0.0168
22497SOL    HW174606   2.541   7.478   3.834 -3.6988 -3.0518 -0.8742
22497SOL    HW274607   2.615   7.373   3.754  1.9129 -0.3544  0.2744
22498SOL     OW74608   3.411  12.512   8.161 -0.1238 -0.0534  0.2333
22498SOL    HW174609   3.461  12.569   8.220 -1.8446  0.6044  1.1366
22498SOL    HW274610   3.411  12.427   8.205  0.3469 -0.1135  0.1268
22499SOL     OW74611   3.925   5.595   3.843  0.2247  0.6793 -0.2922
22499SOL    HW174612   3.909   5.562   3.931  0.8024 -0.6108 -0.6441
22499SOL    HW274613   4.003   5.650   3.852 -0.6785  1.9127  0.2798
22500SOL     OW74614   1.824   7.624   4.002 -0.4943 -0.3460  0.1015
22500SOL    HW174615   1.757   7.668   3.949 -0.0677  0.2027  0.0128
22500SOL    HW274616   1.848   7.688   4.069 -0.8812 -0.9648  0.8425
22501SOL     OW74617   0.624   2.393   1.965 -1.1548  0.4577  0.0372
22501SOL    HW174618   0.601   2.423   1.877 -0.8683  2.4734  0.5843
22501SOL    HW274619   0.542   2.400   2.015 -0.7524  1.9145  0.5448
22502SOL     OW74620  12.576   5.479  12.338  0.1322 -0.0907  0.0078
22502SOL    HW174621  12.552   5.434  12.419  2.7101 -2.0642 -0.2108
22502SOL    HW274622  12.501   5.465  12.279 -1.3805  0.5803  1.6644
22503SOL     OW74623   4.769  11.969   1.829  0.4211  0.2056  0.0775
22503SOL    HW174624   4.817  11.913   1.769  1.1178  0.1172  0.6922
22503SOL    HW274625   4.785  11.930   1.915 -0.9912  0.0226  0.2707
22504SOL     OW74626   2.444  12.458   4.322 -0.0169  0.1167 -0.3077
22504SOL    HW174627   2.455  12.363   4.314  2.6672  0.2139  1.1018
22504SOL    HW274628   2.447  12.474   4.417  0.3223  1.6621 -0.5500
22505SOL     OW74629  11.917   6.930   3.899  0.0672  0.2875 -0.0537
22505SOL    HW174630  11.864   7.007   3.874 -0.4175 -0.0860 -0.1884
22505SOL    HW274631  11.857   6.856   3.890  0.4905 -0.0922  0.2267
22506SOL     OW74632  12.686   3.277   9.048 -0.0578  0.1210 -0.4818
22506SOL    HW174633  12.668   3.184   9.036 -0.7495  0.1500  0.2366
22506SOL    HW274634  12.726   3.283   9.135 -0.4553  0.5506 -0.3251
22507SOL     OW74635  10.076   2.589  10.547 -0.0955  0.3681  0.1018
22507SOL    HW174636  10.124   2.671  10.531 -0.2337  0.6261  0.9959
22507SOL    HW274637  10.108   2.530  10.478  1.1834  0.6622  0.4096
22508SOL     OW74638   1.749  11.796   2.830  0.4071 -0.5849 -0.1890
22508SOL    HW174639   1.792  11.863   2.776  0.1841 -0.1631  0.1482
22508SOL    HW274640   1.821  11.742   2.863  0.5847 -0.5490 -0.5094
22509SOL     OW74641   2.164   8.785   7.785 -0.0136  0.4699  0.2469
22509SOL    HW174642   2.119   8.815   7.706  1.2596  0.4625 -0.5234
22509SOL    HW274643   2.103   8.803   7.856 -0.6218  1.8404 -0.5724
22510SOL     OW74644   6.952  10.888   7.416  0.1055 -0.5389  0.1315
22510SOL    HW174645   6.928  10.808   7.370 -0.5616 -0.4630  0.3319
22510SOL    HW274646   6.996  10.858   7.495 -0.3519 -0.7186  0.3220
22511SOL     OW74647  10.637   2.352   7.811 -0.1913 -0.4971  0.5176
22511SOL    HW174648  10.563   2.325   7.865 -1.8034  0.9703 -0.8222
22511SOL    HW274649  10.662   2.438   7.846  0.2863 -0.5998  0.4260
22512SOL     OW74650   7.474   8.932  10.224  0.2647 -0.1038 -0.3311
22512SOL    HW174651   7.521   8.974  10.153 -0.6181  1.9736  0.2534
22512SOL    HW274652   7.449   9.003  10.283 -0.0460 -1.6078  1.4763
22513SOL     OW74653   5.958   3.022   4.947 -0.0512 -0.0710  0.1936
22513SOL    HW174654   5.863   3.026   4.943 -0.0869 -0.6752  0.2695
22513SOL    HW274655   5.977   2.964   5.020  0.3857  0.3973  0.4567
22514SOL     OW74656   0.667   4.968   2.967 -0.5377 -0.6205 -0.0710
22514SOL    HW174657   0.646   5.017   2.888  0.9168 -0.3616 -0.3231
22514SOL    HW274658   0.684   5.035   3.033 -2.3048 -0.8350  0.6441
22515SOL     OW74659   6.511   0.254   0.271 -0.2321  0.1365  0.7862
22515SOL    HW174660   6.445   0.288   0.331  1.4394  1.1187  2.1356
22515SOL    HW274661   6.538   0.330   0.220  0.4682 -0.0677  0.8463
22516SOL     OW74662  10.235   9.595   9.353  0.1975  0.5719  0.2390
22516SOL    HW174663  10.194   9.555   9.277 -0.4452 -0.0681  0.9003
22516SOL    HW274664  10.176   9.574   9.425  1.4815 -0.0426  1.1630
22517SOL     OW74665   2.251   6.896   1.690 -0.2383 -0.1538  0.5284
22517SOL    HW174666   2.269   6.863   1.777 -0.1889 -0.4508  0.4065
22517SOL    HW274667   2.314   6.968   1.677  0.0981 -0.4468  0.5380
22518SOL     OW74668  11.300   5.921  11.054 -0.3161  0.0169  0.2205
22518SOL    HW174669  11.363   5.887  10.991 -1.0112  1.5758 -1.4164
22518SOL    HW274670  11.352   5.975  11.113  0.2675 -1.0177  0.6773
22519SOL     OW74671  12.826   7.396   3.441 -0.0395  0.2852 -0.1823
22519SOL    HW174672  12.898   7.341   3.471  1.2685  0.8811 -2.0671
22519SOL    HW274673  12.849   7.484   3.471  0.7815  0.7143 -1.9543
22520SOL     OW74674   5.234   6.931   5.444  0.3363  0.1258  0.0699
22520SOL    HW174675   5.260   6.899   5.357  1.4084 -0.3245  0.5370
22520SOL    HW274676   5.302   6.995   5.467  0.2807 -0.0564  0.7483
22521SOL     OW74677   3.418   5.503  11.517 -0.2036  0.1437 -0.2161
22521SOL    HW174678   3.366   5.555  11.456  1.4122 -0.0223 -1.8347
22521SOL    HW274679   3.390   5.413  11.501 -0.2343  0.1569 -0.2366
22522SOL     OW74680   9.558  11.665   7.478  0.4829 -0.3827 -0.5669
22522SOL    HW174681   9.625  11.639   7.541  0.0805  1.1488  0.5578
22522SOL    HW274682   9.556  11.761   7.483 -0.9436 -0.3313 -1.4710
22523SOL     OW74683   2.753   5.302   7.874 -0.3925  0.1359  0.8561
22523SOL    HW174684   2.670   5.344   7.849  0.0245 -0.2627 -1.3213
22523SOL    HW274685   2.727   5.217   7.909 -0.9276  0.1283  0.4592
22524SOL     OW74686   6.014   1.369   7.835  0.4969  0.3238  0.3728
22524SOL    HW174687   6.000   1.463   7.848  0.8898  0.3709  0.4645
22524SOL    HW274688   6.031   1.359   7.742 -0.1358  0.2682  0.2636
22525SOL     OW74689   2.227  12.681   2.893  0.2021  0.5269  0.1533
22525SOL    HW174690   2.196  12.726   2.971  0.4252  0.8902  0.0334
22525SOL    HW274691   2.246  12.592   2.924  1.3305  0.9578  0.7716
22526SOL     OW74692  12.097  12.750   7.032 -0.1949  0.3831 -0.2912
22526SOL    HW174693  12.135  12.693   6.966 -0.9788  0.4786 -0.8406
22526SOL    HW274694  12.172  12.782   7.082  0.2135 -1.7913  0.6108
22527SOL     OW74695   9.430  10.161   5.398 -0.0997  0.1867 -0.2879
22527SOL    HW174696   9.434  10.257   5.406 -0.7084  0.2988 -1.1813
22527SOL    HW274697   9.512  10.137   5.354 -0.7387  0.5137 -1.7329
22528SOL     OW74698  12.033   1.400   1.288  0.3436  0.0258  0.4941
22528SOL    HW174699  12.015   1.371   1.378  1.1765 -0.1353  0.6157
22528SOL    HW274700  12.026   1.495   1.292 -1.3911 -0.0471  0.3182
22529SOL     OW74701   6.144   3.261   6.776 -0.2161  0.4001  0.4009
22529SOL    HW174702   6.195   3.237   6.698  1.4776 -3.4528  2.4215
22529SOL    HW274703   6.206   3.306   6.833 -0.7160  0.8419  0.6116
22530SOL     OW74704   1.513  11.007  10.606  0.0756 -0.7980  0.6466
22530SOL    HW174705   1.503  10.919  10.641 -0.1560 -1.5958 -1.2950
22530SOL    HW274706   1.423  11.038  10.594  0.1225 -1.0213 -0.3471
22531SOL     OW74707  12.213   1.633   4.961  0.1680 -0.0744  0.0033
22531SOL    HW174708  12.154   1.567   4.997 -0.6229  0.7995  0.3602
22531SOL    HW274709  12.162   1.714   4.964  2.5775  1.5659  3.9009
22532SOL     OW74710   6.290   9.779  11.759  0.2863 -0.1289 -0.3523
22532SOL    HW174711   6.361   9.751  11.817  0.8875  1.4713 -0.2651
22532SOL    HW274712   6.210   9.759  11.808  0.7869  2.9443  2.0069
22533SOL     OW74713   8.487   2.956  11.019  0.1440 -0.5573 -0.1669
22533SOL    HW174714   8.556   2.940  10.954  0.9013 -1.2632  0.7949
22533SOL    HW274715   8.528   3.012  11.084 -0.3480 -0.5575  0.1423
22534SOL     OW74716   5.197   9.898   2.577 -0.0101  0.7789  0.5343
22534SOL    HW174717   5.185   9.923   2.668 -0.3744  1.5193  0.2950
22534SOL    HW274718   5.288   9.918   2.557 -0.0123  0.9049  0.6546
22535SOL     OW74719  11.677  11.748   9.023 -0.2055 -0.0680 -0.5696
22535SOL    HW174720  11.655  11.660   8.994 -1.2580  0.1829 -0.5484
22535SOL    HW274721  11.596  11.783   9.060  0.2963  0.7745 -0.2249
22536SOL     OW74722   5.159   1.743   7.468 -0.2282  0.1626  0.3864
22536SOL    HW174723   5.237   1.791   7.496 -1.7260  1.7563  2.0979
22536SOL    HW274724   5.189   1.653   7.457  2.1455  0.9833 -0.5000
22537SOL     OW74725  11.912   3.841   1.711  0.4190 -0.0878  0.0122
22537SOL    HW174726  11.880   3.913   1.766  0.0284  0.0943 -0.4482
22537SOL    HW274727  11.956   3.782   1.773  1.9282  1.1910  0.2185
22538SOL     OW74728   3.152  10.740  12.868 -0.2007  0.0265  0.4080
22538SOL    HW174729   3.085  10.801  12.900 -1.0554 -0.3026 -0.7094
22538SOL    HW274730   3.225  10.797  12.842 -0.6609  0.5117  0.1546
22539SOL     OW74731  11.289   4.591   9.524 -0.4694 -0.0743 -0.4438
22539SOL    HW174732  11.255   4.612   9.611 -0.3496 -0.6569 -0.2593
22539SOL    HW274733  11.213   4.601   9.466 -0.2470  1.6880 -0.4957
22540SOL     OW74734   7.008   0.529   9.396 -0.0523 -0.0274  0.1938
22540SOL    HW174735   7.072   0.591   9.361 -0.5988  0.7152  0.4874
22540SOL    HW274736   6.925   0.558   9.360 -0.1573 -1.4228 -0.7828
22541SOL     OW74737   6.916   5.783   5.508  0.1945 -0.5457  0.3469
22541SOL    HW174738   6.848   5.721   5.483 -1.2723  0.2857  1.9835
22541SOL    HW274739   6.984   5.730   5.548  0.7278 -1.4319 -1.6308
22542SOL     OW74740   4.861   3.180   6.916  0.2589 -0.7586 -0.5711
22542SOL    HW174741   4.784   3.131   6.945 -0.1472  0.5198  0.6334
22542SOL    HW274742   4.927   3.165   6.984 -0.6747  2.1973  1.1902
22543SOL     OW74743   9.113  12.801   8.752 -0.2667  0.2330 -0.2208
22543SOL    HW174744   9.085  12.776   8.664 -0.8454 -1.5738  0.4265
22543SOL    HW274745   9.128  12.895   8.747 -0.2273  0.1596 -2.2606
22544SOL     OW74746   9.261   7.887   1.853 -0.2062 -0.1700 -0.3839
22544SOL    HW174747   9.349   7.920   1.874 -0.7006  0.4291  0.8444
22544SOL    HW274748   9.208   7.909   1.930 -1.6809  0.3851 -1.5114
22545SOL     OW74749  12.882   2.712   5.368  0.3013 -0.0417 -0.2451
22545SOL    HW174750  12.792   2.738   5.386  1.0702  2.6062  0.1711
22545SOL    HW274751  12.919   2.692   5.454  0.3337 -0.3521 -0.3297
22546SOL     OW74752   8.130   9.465   8.420 -0.0027 -0.3889  0.4341
22546SOL    HW174753   8.039   9.477   8.393 -0.0244 -1.0337  0.2033
22546SOL    HW274754   8.180   9.509   8.352 -0.0955 -1.2261 -0.1918
22547SOL     OW74755   1.659  11.284   3.631 -0.1414 -0.0069 -0.0442
22547SOL    HW174756   1.575  11.243   3.649  0.1946  0.2235  2.4119
22547SOL    HW274757   1.723  11.213   3.636 -0.0993 -0.0571 -1.1519
22548SOL     OW74758   3.316   8.477  12.941  0.0578 -0.0428  0.9886
22548SOL    HW174759   3.383   8.431  12.890  0.7680  0.4442  1.4700
22548SOL    HW274760   3.330   8.449  13.031 -0.1778  0.3024  1.1358
22549SOL     OW74761   6.499   1.850   3.511 -0.8581 -0.3151 -0.1108
22549SOL    HW174762   6.560   1.803   3.455 -0.3151  0.5046 -0.2286
22549SOL    HW274763   6.460   1.783   3.567 -2.2037 -1.3365 -2.1604
22550SOL     OW74764   5.094  11.512   3.708 -0.3210 -0.5441  0.1927
22550SOL    HW174765   5.060  11.584   3.761  0.9278 -1.1465  1.9157
22550SOL    HW274766   5.124  11.554   3.627 -0.8024  0.6605  0.6146
22551SOL     OW74767   2.976  12.032   8.403  0.6897 -0.6706 -0.0484
22551SOL    HW174768   3.013  11.957   8.355 -0.7349 -1.4807  0.0651
22551SOL    HW274769   2.887  12.039   8.370  0.5559  0.4841  0.5466
22552SOL     OW74770  10.292  11.405   0.353 -0.3753  0.1805 -0.3696
22552SOL    HW174771  10.379  11.370   0.372 -0.4660  0.1862  0.0570
22552SOL    HW274772  10.288  11.408   0.257 -0.0331 -0.1323 -0.3950
22553SOL     OW74773   6.359   2.383   9.265 -0.1227  0.0737 -0.2545
22553SOL    HW174774   6.334   2.378   9.357 -0.5134  0.4319 -0.3421
22553SOL    HW274775   6.277   2.387   9.217  0.0633 -0.8219 -0.6701
22554SOL     OW74776   9.884   4.990   8.180  0.0199 -0.1141  0.4202
22554SOL    HW174777   9.868   4.923   8.246 -2.2977  1.9424  2.1132
22554SOL    HW274778   9.891   5.071   8.229 -1.9519  1.5336 -1.8257
22555SOL     OW74779  11.299   4.413   4.040 -0.0699 -0.0301 -0.2091
22555SOL    HW174780  11.287   4.505   4.066  0.3632  0.1095 -0.4823
22555SOL    HW274781  11.394   4.403   4.034 -0.1286 -0.4047 -0.5093
22556SOL     OW74782   0.684   1.942  12.857  0.0698 -0.3668 -0.1380
22556SOL    HW174783   0.637   1.914  12.936  0.6469  1.9291  1.0827
22556SOL    HW274784   0.642   2.024  12.831  0.5397 -0.5657 -1.6680
22557SOL     OW74785   5.039   2.359   4.875 -0.6582 -0.0775 -0.1390
22557SOL    HW174786   5.015   2.367   4.968  1.5522 -0.4988  0.5108
22557SOL    HW274787   5.030   2.448   4.841 -0.7550  0.2294  0.6586
22558SOL     OW74788   5.312   2.682   1.766  0.4213  0.3413  0.1258
22558SOL    HW174789   5.298   2.693   1.672  1.1694  3.1014  0.2501
22558SOL    HW274790   5.227   2.655   1.801  0.5286 -2.3707 -1.4854
22559SOL     OW74791   4.170   9.179   5.853  0.1207  0.1471 -0.0127
22559SOL    HW174792   4.227   9.250   5.885  0.0265 -0.1424  0.8130
22559SOL    HW274793   4.091   9.186   5.906 -0.5387  0.3990 -0.9975
22560SOL     OW74794   2.000   6.798   7.977 -0.3197 -0.2560  0.1414
22560SOL    HW174795   2.065   6.728   7.984  0.0288  0.0900  0.5300
22560SOL    HW274796   2.020   6.856   8.052  1.0755  1.6287 -1.5644
22561SOL     OW74797   9.186  11.804   7.279 -0.6836 -0.0638  0.5128
22561SOL    HW174798   9.145  11.854   7.350 -3.6382  0.7757 -1.5714
22561SOL    HW274799   9.215  11.871   7.217  2.1261 -0.7654  0.9379
22562SOL     OW74800  12.488   4.650   0.334  0.0677  0.6003  0.4897
22562SOL    HW174801  12.423   4.609   0.276  1.4450 -0.9884 -0.0461
22562SOL    HW274802  12.502   4.585   0.403  2.5271 -0.0578 -0.5307
22563SOL     OW74803  10.941   7.114   2.746 -0.9195  0.1016  0.7526
22563SOL    HW174804  11.023   7.132   2.793 -1.2826  1.0569  1.0374
22563SOL    HW274805  10.961   7.134   2.655 -1.1190  1.3929  0.9658
22564SOL     OW74806   5.808   1.698  12.182 -0.4435 -0.0055 -0.0034
22564SOL    HW174807   5.863   1.620  12.194  0.6018  0.2807 -2.4054
22564SOL    HW274808   5.775   1.691  12.092 -0.7057  2.0763 -0.1176
22565SOL     OW74809   5.074   1.154   9.062 -0.0180 -0.5448  0.3418
22565SOL    HW174810   4.997   1.154   9.119  0.1205 -0.5211  0.5289
22565SOL    HW274811   5.126   1.080   9.092 -0.5045 -1.2510 -0.5128
22566SOL     OW74812   5.797   3.630   0.257 -0.1580 -0.1854  0.0065
22566SOL    HW174813   5.724   3.683   0.224 -0.5113 -0.5903  0.1305
22566SOL    HW274814   5.857   3.693   0.295 -1.0007  0.0682  0.9701
22567SOL     OW74815   5.225   8.164   8.395  0.2569  0.1897 -0.3513
22567SOL    HW174816   5.146   8.207   8.429  1.1327  2.2753 -0.8097
22567SOL    HW274817   5.291   8.178   8.464  0.3422 -1.2653 -0.1069
22568SOL     OW74818   9.133  10.281   2.171 -0.1010 -0.2265  0.0327
22568SOL    HW174819   9.204  10.245   2.224 -0.1019 -0.5444 -0.1780
22568SOL    HW274820   9.106  10.360   2.217 -1.5301 -1.5844  1.6727
22569SOL     OW74821   8.844   6.712   8.523  0.0773 -0.0911 -0.0732
22569SOL    HW174822   8.785   6.637   8.508  0.8468 -0.6635 -0.3095
22569SOL    HW274823   8.890   6.690   8.603 -1.0813  1.0629  0.9544
22570SOL     OW74824   9.727  10.685   7.009 -0.4342 -0.0677  0.3406
22570SOL    HW174825   9.697  10.659   7.096 -0.2134 -0.0599  0.4198
22570SOL    HW274826   9.690  10.772   6.995  0.0835  0.2173  0.7052
22571SOL     OW74827   5.231   3.970  11.375 -0.5155 -0.2213 -0.0222
22571SOL    HW174828   5.285   3.981  11.454  0.5135  0.1665 -0.7489
22571SOL    HW274829   5.198   3.881  11.381 -1.7951  0.3039  1.6383
22572SOL     OW74830   4.509   2.921  11.399 -0.0822  0.0537  0.1759
22572SOL    HW174831   4.464   2.987  11.452  3.2168  1.2584  1.8368
22572SOL    HW274832   4.551   2.864  11.464  0.9601 -0.8186 -1.2090
22573SOL     OW74833   4.505  11.676   3.226 -0.4920 -0.2056  0.0995
22573SOL    HW174834   4.418  11.691   3.189 -0.5298 -0.9930 -0.1577
22573SOL    HW274835   4.497  11.704   3.318 -0.8555  0.2431 -0.0647
22574SOL     OW74836   9.219   6.293   0.466 -0.4115  0.3049  0.3540
22574SOL    HW174837   9.302   6.293   0.515 -0.1368 -1.3172 -0.0175
22574SOL    HW274838   9.227   6.217   0.408 -2.0975  0.2257  0.1878
22575SOL     OW74839   6.222   3.013   0.880 -0.2638 -0.2187  0.2043
22575SOL    HW174840   6.144   3.001   0.826 -0.8036 -1.7505  1.2389
22575SOL    HW274841   6.293   3.026   0.818 -0.8231 -2.1390 -0.9122
22576SOL     OW74842   1.025   3.461  10.178  0.3986  0.9310  0.4268
22576SOL    HW174843   1.041   3.551  10.151 -0.6978  0.8262 -0.6583
22576SOL    HW274844   1.077   3.450  10.258  0.4607  2.5406  0.6317
22577SOL     OW74845   9.000  12.900  11.239 -0.1990 -0.0707 -0.1089
22577SOL    HW174846   8.941  12.824  11.230  0.8799 -1.0080  0.4352
22577SOL    HW274847   9.084  12.868  11.206  0.2203  0.9727 -0.0575
22578SOL     OW74848   4.408   6.120  12.290 -0.4487 -0.8146 -0.7575
22578SOL    HW174849   4.334   6.060  12.275 -0.4109 -1.2922  0.7657
22578SOL    HW274850   4.438   6.098  12.378  0.5998  0.3710 -0.8026
22579SOL     OW74851  11.596   2.173  10.001  0.4749 -0.2963 -0.7698
22579SOL    HW174852  11.659   2.117   9.956  2.2185  1.6947 -0.9877
22579SOL    HW274853  11.638   2.193  10.085  0.1668  1.0553 -0.9089
22580SOL     OW74854   8.595   6.847   5.546 -0.0828  0.3453  0.3069
22580SOL    HW174855   8.636   6.770   5.507 -0.3244  0.2474  0.2449
22580SOL    HW274856   8.659   6.878   5.610 -0.7603 -1.0648  1.7745
22581SOL     OW74857   1.595  12.933   0.506 -0.0053  0.2435  0.2813
22581SOL    HW174858   1.519  12.979   0.540 -0.2009 -1.6609  2.6641
22581SOL    HW274859   1.559  12.854   0.465  0.5166  0.8239 -1.3910
22582SOL     OW74860   2.311   4.634   2.858  0.5236 -0.0732 -0.0517
22582SOL    HW174861   2.235   4.682   2.891  1.2863 -1.2206  3.8748
22582SOL    HW274862   2.358   4.698   2.805 -0.2184  2.5370  2.1883
22583SOL     OW74863  12.431   4.237   8.521  0.4979  0.3568  1.0113
22583SOL    HW174864  12.456   4.185   8.445 -0.2625  0.4661  0.6754
22583SOL    HW274865  12.424   4.327   8.488  0.0443  0.3850  1.1749
22584SOL     OW74866   5.542  10.835  12.447 -0.0409 -0.9337  0.6768
22584SOL    HW174867   5.503  10.847  12.361 -1.1967  1.4824  1.4184
22584SOL    HW274868   5.633  10.865  12.437 -0.3968  0.1330  0.4284
22585SOL     OW74869   5.601   0.302  12.161 -0.5653 -0.4431 -0.6890
22585SOL    HW174870   5.506   0.290  12.168 -0.9679  1.5835 -1.8594
22585SOL    HW274871   5.617   0.386  12.203  0.8744 -1.1437  0.2349
22586SOL     OW74872   0.001   2.854   8.502 -0.3676 -0.0675 -0.2644
22586SOL    HW174873   0.067   2.908   8.460 -0.1508  1.3735  1.7874
22586SOL    HW274874  -0.059   2.916   8.543 -1.1246 -1.3601  0.6723
22587SOL     OW74875   7.778   4.706   7.186  0.1332  0.5473 -0.4874
22587SOL    HW174876   7.853   4.757   7.214  1.9003 -1.2485 -1.6529
22587SOL    HW274877   7.809   4.656   7.111 -1.3842 -2.2699  0.5776
22588SOL     OW74878   5.727   4.967   3.419  0.0666 -0.1043  0.6199
22588SOL    HW174879   5.752   5.055   3.446  0.8386  0.3531 -1.3893
22588SOL    HW274880   5.644   4.951   3.464  0.8677  0.8206  2.5769
22589SOL     OW74881   9.023  11.230   3.608  0.2218  0.2263  0.5752
22589SOL    HW174882   9.014  11.308   3.662 -0.6447 -1.0781  2.4025
22589SOL    HW274883   8.940  11.224   3.561 -0.4940 -0.5727  1.8712
22590SOL     OW74884   1.967   5.873  11.789 -0.5282  0.2723  0.0054
22590SOL    HW174885   1.956   5.820  11.710  1.6706 -0.2988  0.0263
22590SOL    HW274886   2.047   5.840  11.829 -1.4370  0.7222  2.3666
22591SOL     OW74887   9.935  10.197   2.373 -0.1998  0.5417 -0.4083
22591SOL    HW174888   9.948  10.261   2.442 -0.5300  0.3621 -0.1816
22591SOL    HW274889   9.892  10.245   2.302 -2.4306  0.1069  0.5668
22592SOL     OW74890   0.309   4.887   4.468 -0.0405  0.0834  0.4069
22592SOL    HW174891   0.394   4.916   4.499  0.0473 -0.8228  1.0857
22592SOL    HW274892   0.249   4.905   4.541 -0.8952  2.6882 -0.8403
22593SOL     OW74893   7.262   9.378   4.498  0.1992  0.5237 -0.1778
22593SOL    HW174894   7.350   9.415   4.509 -0.0310  1.0922 -0.2056
22593SOL    HW274895   7.243   9.388   4.405  0.6747 -0.9307 -0.4683
22594SOL     OW74896   6.906   3.694  11.725  0.0563 -1.0040  0.2318
22594SOL    HW174897   6.870   3.606  11.738 -0.8603 -0.6619  0.1102
22594SOL    HW274898   6.989   3.680  11.680  1.3835 -1.9882  2.7479
22595SOL     OW74899   0.881   4.094   8.592 -0.0661  0.2113  0.4772
22595SOL    HW174900   0.940   4.159   8.554 -0.9681  1.9614  1.8980
22595SOL    HW274901   0.937   4.017   8.608  1.4249  1.2048  0.2471
22596SOL     OW74902   5.199   9.077   4.288 -0.0282  0.0712  0.2018
22596SOL    HW174903   5.254   9.075   4.210  0.3776 -1.2611  0.4890
22596SOL    HW274904   5.255   9.041   4.357 -0.5958  0.6138  0.9618
22597SOL     OW74905   7.050   2.875   9.596  0.2133 -0.2860  0.3294
22597SOL    HW174906   6.959   2.850   9.611  0.4308  0.7327  4.4607
22597SOL    HW274907   7.101   2.798   9.622  0.6220 -0.2953 -0.4422
22598SOL     OW74908   9.577   5.473  12.919  0.6147  0.0075 -0.3406
22598SOL    HW174909   9.629   5.412  12.866  1.5653  1.3072 -0.9546
22598SOL    HW274910   9.640   5.536  12.953 -0.6589  2.6598 -2.5161
22599SOL     OW74911   5.402  11.476   4.733 -0.1167  0.0554 -0.3737
22599SOL    HW174912   5.325  11.458   4.679 -0.8157 -0.8763  0.8629
22599SOL    HW274913   5.441  11.390   4.746 -0.5725  0.0873  1.4420
22600SOL     OW74914   1.652   6.720   6.988  0.3026 -0.2942 -0.0410
22600SOL    HW174915   1.577   6.762   7.030  0.5021 -0.5749  0.6067
22600SOL    HW274916   1.712   6.700   7.060  2.0493  1.9670 -0.7310
22601SOL     OW74917  10.118   9.446  11.498  0.3286  0.4946 -0.1028
22601SOL    HW174918  10.043   9.480  11.449  0.7994  3.2959  0.9224
22601SOL    HW274919  10.145   9.368  11.450 -1.9962  0.5462 -1.6318
22602SOL     OW74920   8.562   2.116   6.535 -0.9553 -0.3141  0.1232
22602SOL    HW174921   8.508   2.038   6.533  1.5014 -2.1255  0.1714
22602SOL    HW274922   8.560   2.145   6.626 -0.2938 -1.5196  0.5309
22603SOL     OW74923  12.355  11.139  11.974 -0.5592 -0.0308  0.3303
22603SOL    HW174924  12.295  11.093  12.032 -0.5231  0.3796  0.7037
22603SOL    HW274925  12.303  11.209  11.936 -0.4085  0.1154  0.3901
22604SOL     OW74926   2.412   7.804  11.294  0.4484 -0.0336  0.4599
22604SOL    HW174927   2.455   7.746  11.231  0.8206 -0.2845  0.9353
22604SOL    HW274928   2.359   7.746  11.348  1.1682 -0.0093  1.2231
22605SOL     OW74929   5.794   6.152   7.269  0.1129  0.1338 -0.7909
22605SOL    HW174930   5.786   6.061   7.295  0.8145  0.9047  2.5437
22605SOL    HW274931   5.724   6.197   7.316  0.7085  1.5284 -1.1721
22606SOL     OW74932   8.324  11.465   8.271  0.2526  0.4052  0.2806
22606SOL    HW174933   8.378  11.419   8.335  0.1636 -1.5923 -0.9774
22606SOL    HW274934   8.337  11.416   8.190 -0.6189  2.0940 -0.9288
22607SOL     OW74935   1.868   4.748   1.812  0.1251  0.3866 -0.1529
22607SOL    HW174936   1.946   4.749   1.869  0.3272  1.3543 -0.4334
22607SOL    HW274937   1.853   4.840   1.791 -0.4750  0.1080 -0.9594
22608SOL     OW74938  12.552   0.935   5.362 -0.6669 -0.2059  0.6165
22608SOL    HW174939  12.515   0.848   5.348 -0.5457 -0.2643  0.6614
22608SOL    HW274940  12.636   0.933   5.315 -0.9991  0.1267 -0.0080
22609SOL     OW74941   7.518  11.112   6.880 -0.2710  0.0376  0.1901
22609SOL    HW174942   7.486  11.147   6.962  0.3997 -2.1518  1.4819
22609SOL    HW274943   7.613  11.104   6.892 -0.2554 -1.0555 -0.4630
22610SOL     OW74944  11.168   9.198   3.899  0.5212  0.6369 -0.5557
22610SOL    HW174945  11.216   9.225   3.821  2.5603 -1.1431 -0.0084
22610SOL    HW274946  11.175   9.274   3.958  0.4733  1.3397 -1.4326
22611SOL     OW74947  11.251   2.681  10.974  0.0482  0.1569  0.1773
22611SOL    HW174948  11.231   2.608  10.915  0.9673  0.2850 -0.3058
22611SOL    HW274949  11.324   2.726  10.932 -0.4299  1.2860  0.5388
22612SOL     OW74950   2.072   1.615   0.685  0.2760 -0.3105  0.2680
22612SOL    HW174951   2.163   1.624   0.655  0.0849  1.1014  0.0624
22612SOL    HW274952   2.019   1.647   0.612 -0.4625 -2.0712 -0.0145
22613SOL     OW74953   0.798   6.821   8.870 -0.5269  0.0445 -0.0518
22613SOL    HW174954   0.837   6.763   8.936 -2.4219  1.2175  2.2934
22613SOL    HW274955   0.871   6.873   8.837  0.2726  0.9669  2.8638
22614SOL     OW74956   9.265   6.146   7.854 -0.1297 -0.0243 -0.3273
22614SOL    HW174957   9.230   6.191   7.930  0.3084 -0.0372 -0.1124
22614SOL    HW274958   9.346   6.105   7.886  0.8982  1.2566 -1.1736
22615SOL     OW74959   8.488   0.081   6.571  0.6481  0.1829  0.5409
22615SOL    HW174960   8.517   0.020   6.639 -0.7627 -0.4575  0.6092
22615SOL    HW274961   8.493   0.167   6.613  1.5762  0.0009  0.8240
22616SOL     OW74962  11.502   9.220   8.151  0.3856 -0.1842  0.4156
22616SOL    HW174963  11.472   9.132   8.175  0.3385 -0.1284  0.5643
22616SOL    HW274964  11.587   9.228   8.195  0.5663 -0.3011  0.0850
22617SOL     OW74965   2.007   7.151   2.673  0.3335 -0.3735 -0.2260
22617SOL    HW174966   2.049   7.202   2.604 -1.8812  0.4974 -1.0165
22617SOL    HW274967   1.932   7.109   2.630 -0.9082 -0.0713  1.5205
22618SOL     OW74968   4.893   8.887   4.533 -0.2920  0.5278 -0.7943
22618SOL    HW174969   4.983   8.870   4.508  0.0987  1.4296 -0.1004
22618SOL    HW274970   4.862   8.952   4.470 -0.5055  0.1294 -1.1061
22619SOL     OW74971   2.028   3.517   7.728  0.1541  0.6102  0.0040
22619SOL    HW174972   1.969   3.592   7.721 -0.6925  0.1273  1.4854
22619SOL    HW274973   2.069   3.527   7.814 -0.2823 -0.8184  0.4026
22620SOL     OW74974   7.748   8.099   1.220  0.5641 -0.6211 -0.2424
22620SOL    HW174975   7.655   8.119   1.209  0.4405 -1.1884 -0.2165
22620SOL    HW274976   7.792   8.161   1.161  0.2304  0.2835  0.4411
22621SOL     OW74977   6.623   2.139   2.435  0.3125  0.3459  1.0115
22621SOL    HW174978   6.678   2.148   2.358 -1.0537  3.3731  0.2647
22621SOL    HW274979   6.674   2.083   2.494  1.6616 -1.5931 -1.7497
22622SOL     OW74980   2.237   9.987   5.349  0.0606  0.0060 -0.1427
22622SOL    HW174981   2.259  10.075   5.378 -0.2830 -0.1047  0.4843
22622SOL    HW274982   2.150   9.995   5.309  0.5399  0.1609 -1.1936
22623SOL     OW74983   1.372   6.534  11.484  0.4341 -0.3964  0.1585
22623SOL    HW174984   1.285   6.569  11.464 -0.0510 -1.2916  0.6404
22623SOL    HW274985   1.384   6.464  11.420  1.0413  0.0714 -0.2536
22624SOL     OW74986   9.933   9.037   7.681  0.0344  0.0513  0.3662
22624SOL    HW174987  10.007   9.032   7.742 -0.4943  0.7819  1.0882
22624SOL    HW274988   9.936   8.954   7.633  1.8603  0.4511 -0.2614
22625SOL     OW74989  10.246   4.153   9.450  0.3366 -0.3754 -0.0730
22625SOL    HW174990  10.261   4.219   9.517 -2.1402 -1.1428  1.3920
22625SOL    HW274991  10.186   4.195   9.388  0.9055 -0.3736 -0.6258
22626SOL     OW74992   9.454   5.299  10.176 -0.1613 -0.1487 -0.2598
22626SOL    HW174993   9.424   5.223  10.126 -0.9391  0.7878 -1.2508
22626SOL    HW274994   9.469   5.367  10.110 -1.8656  1.3401  0.7935
22627SOL     OW74995   5.829   8.097  11.951 -0.0282  0.4663 -0.0781
22627SOL    HW174996   5.809   8.130  12.039 -1.9664 -0.9337  0.0650
22627SOL    HW274997   5.923   8.084  11.951  0.1897  1.7923  1.3134
22628SOL     OW74998  10.308   7.309   9.922 -0.7974 -0.6339 -0.1373
22628SOL    HW174999  10.263   7.297   9.838 -1.8360 -0.4428  0.3671
22628SOL    HW275000  10.385   7.360   9.901 -2.2675  1.4949 -0.6700
22629SOL     OW75001   4.527   9.464   9.005 -0.3961 -0.0146  0.0876
22629SOL    HW175002   4.611   9.445   8.965 -0.6747 -0.4861 -0.2749
22629SOL    HW275003   4.488   9.378   9.021  0.0239  0.1034  2.0639
22630SOL     OW75004   4.393   3.275   3.157 -0.5826 -0.5976 -0.3628
22630SOL    HW175005   4.374   3.344   3.220  1.0331 -0.5646  0.1519
22630SOL    HW275006   4.424   3.321   3.079  0.5766 -0.7116  0.0102
22631SOL     OW75007   5.919   8.336  12.179  0.2916  0.4560 -0.1566
22631SOL    HW175008   5.895   8.425  12.205  3.0989  1.1395  0.4385
22631SOL    HW275009   5.983   8.308  12.245 -0.9350 -2.2827  0.0075
22632SOL     OW75010  10.597   0.406   7.159 -0.4180  0.6644 -0.2843
22632SOL    HW175011  10.671   0.364   7.116 -1.3287 -1.1188 -0.2135
22632SOL    HW275012  10.635   0.450   7.235  0.4039 -2.0161  1.0062
22633SOL     OW75013   0.615   5.951  12.028  0.8455  0.1008  0.1177
22633SOL    HW175014   0.675   5.939  12.101  0.1630 -0.0418  0.6670
22633SOL    HW275015   0.603   5.863  11.992  0.9650  0.1302  0.0046
22634SOL     OW75016   3.537   4.315   8.535 -0.2172 -0.1798 -0.1517
22634SOL    HW175017   3.476   4.243   8.518 -0.4241  0.2034 -1.0811
22634SOL    HW275018   3.586   4.325   8.454  1.1908 -0.5488  0.6177
22635SOL     OW75019   7.504   3.442   1.476  0.5056  0.6128  0.2433
22635SOL    HW175020   7.514   3.519   1.533 -2.1314 -0.2123  1.9700
22635SOL    HW275021   7.549   3.372   1.522  0.4727  0.4752  0.0685
22636SOL     OW75022  12.838   9.957   1.768 -0.0957 -0.1959 -0.5616
22636SOL    HW175023  12.812   9.865   1.776  1.1673 -0.5907 -0.6396
22636SOL    HW275024  12.904   9.969   1.837  1.3652  0.0048 -1.9232
22637SOL     OW75025   0.758   6.381   6.227  0.3950 -0.4251 -0.4945
22637SOL    HW175026   0.789   6.342   6.145  0.3965 -0.2073 -0.5971
22637SOL    HW275027   0.794   6.470   6.226  1.9703 -1.0105  0.6085
22638SOL     OW75028   3.317   7.418  12.919  0.0096 -0.3886 -0.4417
22638SOL    HW175029   3.394   7.415  12.975 -0.8444 -0.9816  0.7443
22638SOL    HW275030   3.333   7.491  12.860  0.0562  1.6274  1.9235
22639SOL     OW75031   5.595   0.065   7.364 -0.1480 -0.1690 -0.1708
22639SOL    HW175032   5.568   0.092   7.276 -1.0949  1.6762  0.6049
22639SOL    HW275033   5.669   0.122   7.385  0.0522 -0.5749  0.2431
22640SOL     OW75034   6.869  12.186   6.317 -0.2708 -1.1131  0.6067
22640SOL    HW175035   6.963  12.170   6.310  0.3079  1.7110  0.6174
22640SOL    HW275036   6.832  12.149   6.237  1.3135  0.3269 -0.8692
22641SOL     OW75037   9.860   6.486   3.987 -0.4744  0.4059  0.1227
22641SOL    HW175038   9.843   6.392   3.978  1.9234  0.0545 -1.7555
22641SOL    HW275039   9.935   6.503   3.930  0.3863  3.1222  1.8340
22642SOL     OW75040   5.350   9.942   8.109 -0.0007  0.3753  0.1195
22642SOL    HW175041   5.299   9.868   8.075 -0.7313  0.8015  0.2786
22642SOL    HW275042   5.382   9.987   8.031  0.1045  0.1296  0.0192
22643SOL     OW75043   9.206   8.354  12.126 -0.0212  0.3498 -0.1530
22643SOL    HW175044   9.222   8.328  12.035  1.7957  0.7324  0.0181
22643SOL    HW275045   9.227   8.447  12.128 -2.0797  0.8653  0.2493
22644SOL     OW75046   2.167   3.471   7.960 -0.0481  0.0379  0.3190
22644SOL    HW175047   2.194   3.561   7.941 -1.2107  0.2456 -0.4436
22644SOL    HW275048   2.246   3.429   7.994  1.1508  0.6740 -1.5334
22645SOL     OW75049  10.551   8.111   5.951 -0.2525 -0.6223 -0.1564
22645SOL    HW175050  10.533   8.203   5.970  0.4371 -0.3607 -0.7511
22645SOL    HW275051  10.469   8.066   5.974 -1.6123  0.4854 -2.4565
22646SOL     OW75052   6.676   6.258   4.246 -0.2440 -0.3852  0.1300
22646SOL    HW175053   6.728   6.336   4.266  0.5408 -0.1146 -2.5341
22646SOL    HW275054   6.591   6.292   4.219  1.0637  0.0168 -4.2326
22647SOL     OW75055   5.639  10.392   0.814 -0.0560  0.3600 -0.1992
22647SOL    HW175056   5.555  10.360   0.779  0.0449  0.0351 -0.1425
22647SOL    HW275057   5.694  10.405   0.737  0.5104 -1.3237 -0.1111
22648SOL     OW75058  11.219  10.242   2.161  0.3397 -0.4894  0.4604
22648SOL    HW175059  11.304  10.284   2.172  0.7388 -1.4715  1.3221
22648SOL    HW275060  11.160  10.290   2.219 -0.2785  1.6167 -1.7453
22649SOL     OW75061   3.822   3.220   9.746  0.2212  0.0175 -0.0489
22649SOL    HW175062   3.899   3.164   9.747  0.2638  0.0705 -0.4190
22649SOL    HW275063   3.755   3.170   9.793  0.8463  0.5030  1.4318
22650SOL     OW75064   2.678   3.021   5.949  0.0115  0.6033  0.3521
22650SOL    HW175065   2.766   2.986   5.957 -0.5078 -0.4922  1.7014
22650SOL    HW275066   2.657   3.056   6.036 -1.3066 -0.2405  0.4059
22651SOL     OW75067   9.186  12.227   1.509 -0.0000 -0.1038 -0.4122
22651SOL    HW175068   9.248  12.297   1.530 -0.2024  0.6062 -2.0567
22651SOL    HW275069   9.159  12.194   1.594  0.2726  1.6669  0.4217
22652SOL     OW75070  10.876   3.371  10.913  0.0039  0.2550 -1.0305
22652SOL    HW175071  10.839   3.379  10.825  0.0511  0.2295 -1.0528
22652SOL    HW275072  10.801   3.352  10.969  0.0382 -0.2060 -1.1372
22653SOL     OW75073   7.175   9.023   2.849  0.0440 -0.5959  0.3987
22653SOL    HW175074   7.103   9.042   2.790  1.1825 -0.0041 -0.8582
22653SOL    HW275075   7.151   9.064   2.932 -0.1524  1.3672 -0.5864
22654SOL     OW75076  10.845  11.225   5.009 -0.2535  0.8582 -0.5534
22654SOL    HW175077  10.790  11.291   4.967  0.2504  0.8347 -1.2829
22654SOL    HW275078  10.797  11.143   4.998 -0.7548  1.0540  0.1192
22655SOL     OW75079   9.167   3.808   7.257  0.2903  0.1730 -0.7242
22655SOL    HW175080   9.133   3.718   7.257  1.7167 -0.4354  1.6275
22655SOL    HW275081   9.251   3.801   7.213 -0.4026  0.7660 -2.2088
22656SOL     OW75082   9.127  10.010   7.028 -0.3963 -0.1168  0.3523
22656SOL    HW175083   9.191  10.041   7.092  0.0940 -0.3888 -0.0053
22656SOL    HW275084   9.049   9.991   7.079 -0.7851  1.8561  0.5881
22657SOL     OW75085   1.574   2.086   6.062  0.3379 -0.0062 -0.4495
22657SOL    HW175086   1.505   2.050   6.118 -0.7336  0.9681 -1.1025
22657SOL    HW275087   1.597   2.169   6.103 -1.3248  1.3189 -2.0366
22658SOL     OW75088   2.808   9.134  11.285  0.2575 -0.0402  0.4429
22658SOL    HW175089   2.810   9.202  11.217  0.2094  0.1994  0.6796
22658SOL    HW275090   2.853   9.174  11.359  1.6886 -0.8511  0.0562
22659SOL     OW75091  10.885   0.412   1.659 -0.5301  0.7727 -0.4426
22659SOL    HW175092  10.879   0.506   1.643 -2.3768  0.7020 -0.3607
22659SOL    HW275093  10.837   0.372   1.587 -1.8603  0.0340  0.8098
22660SOL     OW75094  12.249   6.371   0.407 -0.2391 -0.1504  0.1186
22660SOL    HW175095  12.249   6.458   0.367  0.5200  0.0299  0.4899
22660SOL    HW275096  12.197   6.380   0.486 -0.2027 -0.0439  0.1302
22661SOL     OW75097  10.890  11.170  10.883  0.2308  0.0300  0.0439
22661SOL    HW175098  10.980  11.175  10.914  0.9205 -1.9913 -1.4313
22661SOL    HW275099  10.893  11.208  10.795 -0.5649  0.7434  0.3099
22662SOL     OW75100  11.391  11.654   1.330  0.1343 -0.0432  0.7004
22662SOL    HW175101  11.345  11.665   1.412 -1.3109  1.4410 -0.2518
22662SOL    HW275102  11.454  11.727   1.327 -0.4410  0.4394  0.1128
22663SOL     OW75103   9.953  11.783   9.883  0.3081  0.2123 -0.2117
22663SOL    HW175104  10.009  11.724   9.934 -1.4722 -0.6282  0.8889
22663SOL    HW275105  10.013  11.843   9.841  2.0348 -0.7248  0.7981
22664SOL     OW75106   3.302   3.623   2.516  0.3825  0.0760 -0.1103
22664SOL    HW175107   3.303   3.628   2.420 -0.2037 -1.6099 -0.2413
22664SOL    HW275108   3.244   3.694   2.543 -0.1600  0.0172 -1.0648
22665SOL     OW75109   6.723   3.573  12.249 -0.1035  0.3451 -0.2454
22665SOL    HW175110   6.750   3.509  12.315  3.5208  0.6457 -1.2244
22665SOL    HW275111   6.734   3.658  12.292 -1.3684  0.4571 -0.1077
22666SOL     OW75112   7.115  11.284   9.165  0.8544 -0.3148 -0.4510
22666SOL    HW175113   7.082  11.303   9.252  1.5388 -2.2652  0.3090
22666SOL    HW275114   7.175  11.356   9.145  2.5517 -0.9869  1.7648
22667SOL     OW75115   7.837   1.232   5.046 -0.0312 -0.2298 -0.3652
22667SOL    HW175116   7.762   1.284   5.075 -1.2356 -0.7703 -2.3124
22667SOL    HW275117   7.866   1.185   5.124 -2.1922 -0.5631  0.2949
22668SOL     OW75118   4.556   3.934  12.384  0.4445  0.0554  0.4826
22668SOL    HW175119   4.651   3.922  12.389  0.5270  0.6239  0.3472
22668SOL    HW275120   4.543   3.991  12.308 -0.0251 -0.2172  0.3531
22669SOL     OW75121   1.134   9.610   7.989  0.5053  0.3380 -0.0294
22669SOL    HW175122   1.138   9.596   8.083  1.7646 -2.1033 -0.3693
22669SOL    HW275123   1.055   9.562   7.962  0.6986  0.1950 -0.3392
22670SOL     OW75124   1.970   6.568   7.109  0.0543  0.1270  0.8060
22670SOL    HW175125   2.030   6.532   7.173  0.6473 -0.4938 -0.0764
22670SOL    HW275126   1.900   6.609   7.161  1.4002  1.1775  1.8391
22671SOL     OW75127   0.353   9.054   5.378 -0.0286 -0.0847 -0.7301
22671SOL    HW175128   0.412   9.110   5.427 -0.3555 -1.9108  1.9243
22671SOL    HW275129   0.283   9.113   5.348  0.2920  1.1478  0.8539
22672SOL     OW75130  11.401   8.841   6.790 -0.0167  0.0459 -0.2045
22672SOL    HW175131  11.351   8.905   6.739 -2.2732 -0.6392  1.0222
22672SOL    HW275132  11.452   8.793   6.724 -1.2176  0.5616 -1.5726
22673SOL     OW75133   1.354   1.789   6.664 -0.1015 -0.8225 -0.1021
22673SOL    HW175134   1.313   1.703   6.670  0.8163 -1.2668 -0.0420
22673SOL    HW275135   1.421   1.788   6.732 -1.2078  0.5862  1.0899
22674SOL     OW75136   0.844   5.898   3.403 -0.5675 -0.1400  0.0079
22674SOL    HW175137   0.799   5.982   3.409 -1.3670 -0.3864 -1.9901
22674SOL    HW275138   0.774   5.833   3.402 -0.2108 -0.5730 -2.3391
22675SOL     OW75139   8.828   5.437   3.385  0.0370 -0.3203  0.3070
22675SOL    HW175140   8.740   5.465   3.359  0.0665 -0.9554 -0.5072
22675SOL    HW275141   8.880   5.518   3.385 -0.1536 -0.1891 -0.8324
22676SOL     OW75142   0.231   6.050   2.411  0.3394 -0.9559 -0.6486
22676SOL    HW175143   0.227   6.064   2.317 -0.8183  0.9987 -0.3664
22676SOL    HW275144   0.148   6.083   2.444  0.6244 -1.8060  1.0609
22677SOL     OW75145   8.672   2.658   0.462 -0.5505 -0.1919  0.1704
22677SOL    HW175146   8.671   2.569   0.495  0.9024 -0.3930 -0.2905
22677SOL    HW275147   8.710   2.710   0.532 -2.4138  0.3016  0.8931
22678SOL     OW75148  11.965  11.900   6.284 -0.1713 -0.1572 -0.3432
22678SOL    HW175149  12.004  11.939   6.206 -1.5886  1.4145 -0.3076
22678SOL    HW275150  12.027  11.831   6.309  2.2263  1.7340 -0.6816
22679SOL     OW75151   0.534  11.919   1.940 -0.0678  0.5499  0.2161
22679SOL    HW175152   0.444  11.897   1.917 -0.2487  1.1937  0.2969
22679SOL    HW275153   0.556  11.993   1.883  0.5557  0.1298 -0.0998
22680SOL     OW75154   0.811   0.846   2.853 -0.1312 -0.3506  0.1502
22680SOL    HW175155   0.814   0.830   2.947 -0.1616 -0.0529  0.2033
22680SOL    HW275156   0.860   0.773   2.814 -0.7491 -0.8740  0.3461
22681SOL     OW75157   7.007   2.130   8.737  0.1572 -0.1976 -0.3179
22681SOL    HW175158   7.050   2.210   8.706  1.2199  0.4579  2.5064
22681SOL    HW275159   6.948   2.160   8.805  1.2727 -1.8393  1.4689
22682SOL     OW75160   3.001   0.552   2.035 -0.2425 -0.0976  0.6009
22682SOL    HW175161   2.936   0.484   2.052 -1.4609  0.7617 -0.4062
22682SOL    HW275162   2.956   0.614   1.977  1.4427  0.5939 -0.0335
22683SOL     OW75163  11.862   9.569   7.916 -0.3985  0.4640  0.0233
22683SOL    HW175164  11.822   9.641   7.868  0.2978  1.1644  0.4643
22683SOL    HW275165  11.867   9.600   8.007  0.2811  0.0264  0.1463
22684SOL     OW75166   0.632   0.507   2.492  0.5604 -0.1183 -0.5019
22684SOL    HW175167   0.540   0.530   2.501  0.5266  0.0143 -1.1583
22684SOL    HW275168   0.664   0.561   2.420  0.8777 -0.9243 -0.9896
22685SOL     OW75169   2.846   9.955   3.920 -0.2203  0.2117  0.4504
22685SOL    HW175170   2.937   9.927   3.924  0.0594  1.2063  2.2221
22685SOL    HW275171   2.797   9.887   3.965 -0.0949  0.5325  1.0848
22686SOL     OW75172   3.782   1.297   3.221 -0.4390 -0.2231  0.8246
22686SOL    HW175173   3.854   1.305   3.285 -1.4175 -1.4354  2.1535
22686SOL    HW275174   3.765   1.203   3.216 -0.4508 -0.1556 -1.2209
22687SOL     OW75175   9.781   2.008   9.143  0.0680 -0.3360  0.4105
22687SOL    HW175176   9.716   1.986   9.211 -2.9398 -2.1962 -2.7610
22687SOL    HW275177   9.802   1.924   9.102  2.1097  0.6807 -0.7674
22688SOL     OW75178   4.006  12.063   4.838 -0.1440  0.2164 -0.3066
22688SOL    HW175179   4.100  12.072   4.850  0.3130 -1.5914 -1.9427
22688SOL    HW275180   3.995  12.050   4.744 -1.7348 -2.0460  0.1065
22689SOL     OW75181   6.493   7.152  12.592  0.2840 -0.1100  0.3014
22689SOL    HW175182   6.472   7.220  12.528 -1.7635 -1.3210 -0.3961
22689SOL    HW275183   6.523   7.201  12.669  2.9179  1.3823 -1.5142
22690SOL     OW75184   7.533   3.826   6.852  0.7193 -0.1870 -0.4568
22690SOL    HW175185   7.607   3.769   6.831  0.7416 -0.1099 -0.5919
22690SOL    HW275186   7.506   3.800   6.940  0.6273 -0.5098 -0.5810
22691SOL     OW75187  12.412   0.735   8.244 -0.0149 -0.2586  0.3931
22691SOL    HW175188  12.364   0.777   8.315 -0.9712  0.5574 -0.6986
22691SOL    HW275189  12.359   0.752   8.166  0.4817 -1.9762 -0.3787
22692SOL     OW75190  12.688   2.752   7.121 -0.3765 -0.5540  0.2114
22692SOL    HW175191  12.781   2.778   7.119 -0.4489 -0.3044 -0.7619
22692SOL    HW275192  12.687   2.666   7.079 -0.7002 -0.0845 -0.7921
22693SOL     OW75193  11.699   7.962   7.962 -0.2312  0.3741  0.3729
22693SOL    HW175194  11.713   7.909   7.883 -1.2225  0.2276  0.2795
22693SOL    HW275195  11.787   7.978   7.996  0.1431 -0.5046 -0.1406
22694SOL     OW75196   2.913   4.803   5.110  0.1424  0.8965  0.9782
22694SOL    HW175197   2.883   4.836   5.025 -0.0133 -1.7511 -0.0921
22694SOL    HW275198   2.912   4.880   5.167  0.1585  2.7525 -1.3609
22695SOL     OW75199   2.745   0.203   5.735 -0.0508 -0.7404  0.7614
22695SOL    HW175200   2.746   0.111   5.710  0.0388 -0.2180 -1.3738
22695SOL    HW275201   2.660   0.236   5.706 -1.1053 -0.6392  3.6921
22696SOL     OW75202   4.523   7.795   4.559  0.0137  0.3090  0.6705
22696SOL    HW175203   4.459   7.857   4.591 -0.7423  0.5513 -1.1995
22696SOL    HW275204   4.590   7.849   4.516 -1.1345 -0.1337 -1.8149
22697SOL     OW75205  11.552  12.900   1.084 -0.4257  0.5035  0.1933
22697SOL    HW175206  11.508  12.922   1.002  0.2366  0.6720 -0.1318
22697SOL    HW275207  11.537  12.807   1.096 -0.5088  0.4729 -0.1375
22698SOL     OW75208   6.983   2.046   5.896  0.0122 -0.1401 -0.6044
22698SOL    HW175209   6.915   1.999   5.846  1.1407 -1.1718 -1.2447
22698SOL    HW275210   7.015   1.981   5.959  0.2546  0.4067 -0.1598
22699SOL     OW75211   7.432   8.073   4.554  0.8675  0.2458  0.2404
22699SOL    HW175212   7.359   8.115   4.599  0.7230  0.6887 -0.4057
22699SOL    HW275213   7.509   8.120   4.586  0.8134  0.2251  0.4057
22700SOL     OW75214   5.892  12.033   2.773  0.3376 -0.0774  0.1151
22700SOL    HW175215   5.868  12.042   2.681 -0.4382  0.0876  0.3317
22700SOL    HW275216   5.835  11.964   2.807 -0.2871  0.7463  0.7830
22701SOL     OW75217   3.920   3.629  11.382 -0.3735  0.2500  0.1904
22701SOL    HW175218   3.977   3.568  11.337  2.1615  1.3829  1.6512
22701SOL    HW275219   3.845   3.576  11.411  1.2557 -1.9555  0.5595
22702SOL     OW75220   6.259  12.594   6.342 -0.2458 -0.0247 -0.5464
22702SOL    HW175221   6.212  12.514   6.366 -0.7580  0.5432  0.4185
22702SOL    HW275222   6.193  12.647   6.296 -0.1538  0.2027 -0.4168
22703SOL     OW75223   9.436   7.146   8.522  0.6718 -0.5011 -0.0158
22703SOL    HW175224   9.399   7.162   8.609  0.2742 -0.2056 -0.2393
22703SOL    HW275225   9.399   7.215   8.467  0.4378 -1.0552 -0.5626
22704SOL     OW75226   0.134   8.774  11.620  0.2011  0.2102  0.1628
22704SOL    HW175227   0.176   8.842  11.673 -0.8132  1.5323 -0.6421
22704SOL    HW275228   0.061   8.743  11.673  1.8422 -1.7709  1.3779
22705SOL     OW75229  12.869   0.935   7.996 -0.0180 -0.0200  0.0331
22705SOL    HW175230  12.858   1.006   7.934 -2.1589  2.8341  3.2779
22705SOL    HW275231  12.960   0.939   8.023  0.7392 -0.8266 -2.2078
22706SOL     OW75232   2.959   7.289   3.861 -0.1832  0.3009 -0.7206
22706SOL    HW175233   3.005   7.371   3.847  1.5233 -0.0822  1.9287
22706SOL    HW275234   2.904   7.305   3.937 -0.9236 -0.5986 -1.0488
22707SOL     OW75235   5.578   7.154   0.014 -0.1427 -0.1926 -0.4818
22707SOL    HW175236   5.514   7.218   0.045  1.3589  1.4595 -0.6582
22707SOL    HW275237   5.594   7.178  -0.077  1.2447 -0.1313 -0.2372
22708SOL     OW75238   5.468   6.244   8.783  0.1051  0.7932  0.6185
22708SOL    HW175239   5.426   6.258   8.698 -0.3506 -0.0266  0.7023
22708SOL    HW275240   5.413   6.291   8.845 -0.4479  0.0763  0.6705
22709SOL     OW75241   3.603   0.233   3.704 -0.1590 -0.5903 -0.2301
22709SOL    HW175242   3.596   0.191   3.790  0.7566 -2.3105 -0.9497
22709SOL    HW275243   3.516   0.226   3.666 -0.0380 -1.8354 -0.3127
22710SOL     OW75244  12.421   1.687   6.672 -0.3646  0.6799  0.2724
22710SOL    HW175245  12.429   1.615   6.609 -2.7882 -0.6437  1.3514
22710SOL    HW275246  12.492   1.671   6.735 -0.5850 -0.5329  0.2432
22711SOL     OW75247   0.330  10.258   1.419 -0.3288  0.1170 -0.3884
22711SOL    HW175248   0.357  10.238   1.508  0.2946  1.7594 -0.1768
22711SOL    HW275249   0.235  10.265   1.424 -0.3801 -0.7271 -0.0625
22712SOL     OW75250  11.663   3.676  12.233 -0.3850 -0.0457  0.0378
22712SOL    HW175251  11.751   3.662  12.200 -0.6391  1.0511 -1.1911
22712SOL    HW275252  11.661   3.768  12.260 -0.8784 -0.3086  0.9254
22713SOL     OW75253   6.132   2.442  10.680  0.3398 -1.3563  0.2290
22713SOL    HW175254   6.153   2.411  10.592  1.1687 -2.3803  0.7728
22713SOL    HW275255   6.098   2.531  10.666 -0.1462 -1.7228 -1.1744
22714SOL     OW75256  11.954   5.382   1.642  0.4253 -0.1288 -0.6841
22714SOL    HW175257  11.912   5.297   1.630  0.6270 -0.4646  0.8021
22714SOL    HW275258  12.047   5.366   1.627  0.6894 -0.5681  1.1696
22715SOL     OW75259   7.759   4.245   4.270 -0.3751 -0.2053  0.1534
22715SOL    HW175260   7.731   4.154   4.269 -2.0202  0.2717  0.9215
22715SOL    HW275261   7.688   4.292   4.313  0.5947  1.4010  0.0701
22716SOL     OW75262   4.415   1.527   3.514 -0.4507 -0.4373  0.3090
22716SOL    HW175263   4.351   1.595   3.491  1.3794  1.0952 -0.5296
22716SOL    HW275264   4.421   1.473   3.436  0.0755  0.0867 -0.0180
22717SOL     OW75265   8.091  11.617  12.611 -0.0433 -0.0507 -0.4629
22717SOL    HW175266   8.034  11.659  12.676 -2.6136 -0.6504 -2.1860
22717SOL    HW275267   8.071  11.523  12.619  1.5413 -0.4092 -0.4053
22718SOL     OW75268   6.173   6.252   0.987  0.8478  0.3484  0.4803
22718SOL    HW175269   6.157   6.202   0.906  0.2725  0.3530  0.5858
22718SOL    HW275270   6.108   6.219   1.048  0.4158  1.2698  0.5343
22719SOL     OW75271  12.392   9.662  11.890  0.2122  0.1221 -0.4532
22719SOL    HW175272  12.409   9.634  11.980 -2.1984 -0.9194 -0.2398
22719SOL    HW275273  12.449   9.737  11.877  1.1754 -0.1626  1.6767
22720SOL     OW75274  12.866   2.627  12.079  0.4726  0.4718  0.8808
22720SOL    HW175275  12.827   2.690  12.018  0.0275 -0.1600  0.5009
22720SOL    HW275276  12.797   2.612  12.144  0.9864  1.2272  1.6170
22721SOL     OW75277   4.162   4.059  11.564 -0.5520 -0.2380  0.0082
22721SOL    HW175278   4.244   4.070  11.516  0.0160  0.7877  1.1386
22721SOL    HW275279   4.096   4.043  11.497  0.2364  0.9736 -1.1083
22722SOL     OW75280  12.593   3.412   3.820  0.2705  0.9454 -0.4939
22722SOL    HW175281  12.609   3.371   3.905 -0.1570 -0.2367 -0.9459
22722SOL    HW275282  12.678   3.449   3.794  0.9966 -0.6545 -0.5428
22723SOL     OW75283   8.646  11.061   3.654 -0.2156  0.3479  0.7798
22723SOL    HW175284   8.734  11.033   3.679  0.7354  2.1897 -0.3031
22723SOL    HW275285   8.588  10.997   3.695  1.7243 -2.7886 -1.0054
22724SOL     OW75286   7.094   6.067  12.825  0.4267 -0.1847  0.7349
22724SOL    HW175287   7.039   5.989  12.822 -3.0284  2.0777 -0.4960
22724SOL    HW275288   7.089   6.097  12.916 -1.6259  0.7021  0.3813
22725SOL     OW75289   8.369   8.967  10.632  0.3384 -0.3274  0.3324
22725SOL    HW175290   8.396   8.899  10.694 -1.2791 -1.8099 -0.4772
22725SOL    HW275291   8.291   8.930  10.589  0.7367  1.0857 -1.7731
22726SOL     OW75292   9.316  10.072   8.390 -0.4451 -0.7215  0.1262
22726SOL    HW175293   9.307   9.988   8.433  0.5262 -1.3705 -0.8885
22726SOL    HW275294   9.397  10.065   8.339 -0.7510  0.5399 -0.5919
22727SOL     OW75295   4.770   7.034   1.936 -0.0683 -0.1511  0.3010
22727SOL    HW175296   4.783   7.124   1.904  0.4050  0.4236  1.9765
22727SOL    HW275297   4.747   6.984   1.858 -1.2451  1.5981 -0.5578
22728SOL     OW75298   9.561   5.859  12.810  0.5129  0.1176  0.3391
22728SOL    HW175299   9.480   5.852  12.860 -0.0467 -0.2747 -0.5879
22728SOL    HW275300   9.532   5.879  12.721  1.3779 -0.8984 -0.1936
22729SOL     OW75301   5.286   5.659  11.926 -0.6001  0.2361  0.7607
22729SOL    HW175302   5.289   5.677  12.020  0.1490  2.5363  0.3648
22729SOL    HW275303   5.324   5.572  11.918  0.5457  0.5110  2.4927
22730SOL     OW75304   2.682  10.620   2.835  0.0483 -0.6433  0.0154
22730SOL    HW175305   2.666  10.535   2.794 -0.1978 -0.8613  0.5555
22730SOL    HW275306   2.776  10.622   2.850 -0.0012 -1.0066  0.3971
22731SOL     OW75307   9.532   7.080  12.580  0.1547 -0.1683  0.4818
22731SOL    HW175308   9.576   7.039  12.506  0.7392  2.4737 -0.7507
22731SOL    HW275309   9.440   7.083  12.554  0.3893  0.9626 -0.3155
22732SOL     OW75310   6.641   2.400  12.687  0.5025  0.3761  0.1880
22732SOL    HW175311   6.628   2.376  12.779  0.3527 -0.2218  0.0189
22732SOL    HW275312   6.700   2.475  12.690 -0.6277  1.2684  0.8413
22733SOL     OW75313   0.676  11.756   9.610  0.1481  0.0627  0.5601
22733SOL    HW175314   0.750  11.704   9.577 -0.8858 -0.7202 -0.6176
22733SOL    HW275315   0.613  11.756   9.539 -0.2810  2.2250  0.8634
22734SOL     OW75316  10.191   9.643   1.804  0.5078 -0.3473 -0.2755
22734SOL    HW175317  10.276   9.669   1.770  0.7427  0.1213  0.6359
22734SOL    HW275318  10.129   9.704   1.763  0.6524 -0.4302 -0.6225
22735SOL     OW75319   3.312   3.684   5.715 -0.4547 -0.3074 -0.3325
22735SOL    HW175320   3.227   3.697   5.758  0.1864  0.2744  0.8200
22735SOL    HW275321   3.376   3.700   5.785  0.6453  0.8452 -1.5538
22736SOL     OW75322   8.123  12.165   5.846  0.6919  0.1451 -0.3194
22736SOL    HW175323   8.040  12.190   5.807  0.4860  0.2346  0.1741
22736SOL    HW275324   8.143  12.234   5.909  0.7145 -0.2993  0.1745
22737SOL     OW75325   5.776  11.761  10.317 -0.8267 -0.0360 -0.0504
22737SOL    HW175326   5.776  11.666  10.302  1.2458 -0.4923  2.2702
22737SOL    HW275327   5.807  11.771  10.407 -0.8290  2.8865 -0.2883
22738SOL     OW75328  10.847   0.830   0.899 -0.2129  0.1206  0.6216
22738SOL    HW175329  10.868   0.761   0.836  2.4973  1.0278  0.3711
22738SOL    HW275330  10.915   0.821   0.966 -1.5089  0.7977  2.0725
22739SOL     OW75331  10.685   2.873   9.187 -0.5253  0.5244  0.0868
22739SOL    HW175332  10.742   2.805   9.223 -1.0173 -0.5379 -1.0533
22739SOL    HW275333  10.742   2.949   9.176  0.1831  0.1218  0.8414
22740SOL     OW75334  10.920   8.575   9.975  0.1359  0.0157  0.7600
22740SOL    HW175335  10.951   8.551   9.888 -0.2050  2.3808 -0.0898
22740SOL    HW275336  10.827   8.553   9.975 -0.1090  0.9811  0.1003
22741SOL     OW75337   4.159   3.842   7.363 -0.2267  0.5445  0.3925
22741SOL    HW175338   4.096   3.770   7.366  0.8807 -0.6176 -1.8169
22741SOL    HW275339   4.186   3.854   7.454 -1.9384 -0.4250  1.0788
22742SOL     OW75340   1.042   7.328   3.757 -0.2501 -0.4523 -0.3037
22742SOL    HW175341   1.101   7.270   3.804  0.9793  1.1414  0.2148
22742SOL    HW275342   1.024   7.399   3.819 -0.7995  0.3030 -1.2976
22743SOL     OW75343   1.601   4.173   6.320  0.3081  0.2067 -0.1643
22743SOL    HW175344   1.656   4.235   6.273  0.4631  1.1075  1.1473
22743SOL    HW275345   1.591   4.211   6.407  1.6592 -2.2781  1.2118
22744SOL     OW75346   3.606   6.209   2.569 -0.2822  0.3868 -0.0654
22744SOL    HW175347   3.580   6.186   2.659 -0.4931  0.1420 -0.1891
22744SOL    HW275348   3.523   6.226   2.524 -0.1703  0.6274 -0.1852
22745SOL     OW75349   4.863  10.022  12.889  0.2005  0.6901  0.2040
22745SOL    HW175350   4.785  10.024  12.944  0.6398 -1.2598  0.9959
22745SOL    HW275351   4.922  10.086  12.928 -1.6618  3.7222 -1.6032
22746SOL     OW75352   1.064   5.500  12.425  0.0419  0.4957  0.4713
22746SOL    HW175353   0.973   5.518  12.403 -0.1752 -1.2231 -0.2028
22746SOL    HW275354   1.060   5.445  12.504  0.4488  0.0128  0.1683
22747SOL     OW75355   5.997   5.073   3.932 -0.3904 -0.3642  0.9200
22747SOL    HW175356   5.969   5.019   4.006  0.5712  1.1723  2.4822
22747SOL    HW275357   6.030   5.153   3.973 -1.7304  1.4144 -1.2918
22748SOL     OW75358   8.177  10.196  12.627  0.2741 -0.3594  0.0342
22748SOL    HW175359   8.174  10.117  12.680  0.3729 -0.1503  0.3513
22748SOL    HW275360   8.087  10.227  12.625  0.5270  0.5231  1.4280
22749SOL     OW75361   0.483   3.753   0.874 -0.4850 -0.2170 -0.0941
22749SOL    HW175362   0.505   3.823   0.812 -2.2661  1.3822  0.9823
22749SOL    HW275363   0.388   3.743   0.866 -0.3556 -2.1049  0.2637
22750SOL     OW75364  11.283   6.430   8.000 -0.2120 -0.1771 -0.6694
22750SOL    HW175365  11.197   6.460   7.970 -1.0470 -2.9835 -1.3618
22750SOL    HW275366  11.333   6.418   7.919 -0.6872 -2.6689 -0.6714
22751SOL     OW75367  11.274   3.498  10.982 -0.2452  0.7334 -0.6302
22751SOL    HW175368  11.369   3.508  10.992 -0.0105 -1.8949  0.7564
22751SOL    HW275369  11.237   3.561  11.043  0.6818  0.6337  0.0612
22752SOL     OW75370   0.493   8.999   6.863 -0.8572 -0.3312  0.2997
22752SOL    HW175371   0.495   8.950   6.781  0.4953 -0.1570  0.2120
22752SOL    HW275372   0.496   9.091   6.836 -1.2115 -0.2487  0.5310
22753SOL     OW75373   1.849   0.432   6.828  0.6176 -0.4349 -0.0140
22753SOL    HW175374   1.769   0.447   6.777  1.0470  1.8517 -0.1152
22753SOL    HW275375   1.821   0.441   6.919  0.3166 -2.1561  0.0988
22754SOL     OW75376   4.677   5.788   3.104 -0.6833  0.3722 -0.2293
22754SOL    HW175377   4.691   5.881   3.121 -0.8981  0.1180  1.4812
22754SOL    HW275378   4.748   5.743   3.150 -1.6533 -0.3964  0.5739
22755SOL     OW75379   6.140  11.401   6.346  0.2569  0.1571  0.0413
22755SOL    HW175380   6.196  11.340   6.393  0.4442  0.4352  0.1834
22755SOL    HW275381   6.076  11.346   6.300 -0.9859 -0.0796  1.9366
22756SOL     OW75382   5.374   2.988  10.848  0.3223  0.2710 -0.3045
22756SOL    HW175383   5.298   2.931  10.850 -2.1870  3.3431  0.6369
22756SOL    HW275384   5.366   3.037  10.766  0.0746  1.9987  0.6851
22757SOL     OW75385  10.340  10.313   5.198 -0.0125  0.3403 -0.1423
22757SOL    HW175386  10.315  10.221   5.197  0.0418  0.3140 -1.7106
22757SOL    HW275387  10.435  10.313   5.206 -0.0806  0.2922  0.7086
22758SOL     OW75388   1.414  12.207   5.368 -0.0374  0.0656  0.1162
22758SOL    HW175389   1.413  12.293   5.327  0.1094 -0.0102 -0.0469
22758SOL    HW275390   1.349  12.156   5.320 -0.4385  0.2157  0.4962
22759SOL     OW75391  12.946   7.008   1.272 -0.1727 -0.2378  0.6936
22759SOL    HW175392  13.036   6.990   1.246 -0.5589 -0.3089 -0.6399
22759SOL    HW275393  12.941   6.976   1.363  1.0128 -0.6465  0.6332
22760SOL     OW75394  10.832  10.859   0.691  0.5208 -0.3959  0.3589
22760SOL    HW175395  10.875  10.871   0.607  0.9163 -0.4616  0.5499
22760SOL    HW275396  10.803  10.947   0.717  1.6669 -0.1417  0.8268
22761SOL     OW75397   5.322   2.508   8.491 -0.6813 -0.2225 -0.7860
22761SOL    HW175398   5.304   2.463   8.574 -0.4913  0.4187 -0.3898
22761SOL    HW275399   5.336   2.600   8.516  0.9373 -0.2871 -1.3254
22762SOL     OW75400   8.801   2.718   3.135 -0.6460  0.1168  0.4268
22762SOL    HW175401   8.762   2.801   3.106 -2.4402 -0.9792 -0.4388
22762SOL    HW275402   8.771   2.708   3.226 -0.1445  0.5516  0.6487
22763SOL     OW75403   3.770  12.342   0.378 -0.4498 -0.1089 -0.1664
22763SOL    HW175404   3.853  12.300   0.397 -0.3422 -0.1777 -0.7768
22763SOL    HW275405   3.713  12.271   0.348 -1.1162 -0.2767  1.3999
22764SOL     OW75406   6.734  11.896  12.289  0.2449  0.2574 -0.3843
22764SOL    HW175407   6.757  11.940  12.371 -0.8568  1.7093 -0.8088
22764SOL    HW275408   6.786  11.941  12.222  1.6875 -1.4006 -0.4254
22765SOL     OW75409   4.574   7.628   0.260 -0.0526 -0.2156  0.3887
22765SOL    HW175410   4.576   7.714   0.217 -1.7774 -0.5727 -0.4940
22765SOL    HW275411   4.655   7.625   0.311  1.1059  1.0685 -1.2466
22766SOL     OW75412   2.353   5.199   9.306  0.1882  0.4584  0.5391
22766SOL    HW175413   2.353   5.291   9.278  2.1845  0.6451  0.9757
22766SOL    HW275414   2.417   5.157   9.249  0.3073 -0.3507  1.2468
22767SOL     OW75415   3.807   6.823   9.733  0.2676  0.0060  0.7646
22767SOL    HW175416   3.870   6.895   9.738  0.4163 -0.0516 -0.1140
22767SOL    HW275417   3.860   6.745   9.745  0.3462 -0.0367  0.1376
22768SOL     OW75418   7.447   3.849  12.340 -0.2015  0.1649  0.0543
22768SOL    HW175419   7.428   3.940  12.362  0.6928  0.2421  0.5511
22768SOL    HW275420   7.518   3.853  12.276  0.4758 -0.2008  0.7699
22769SOL     OW75421   0.949   3.398   4.855  1.0442  0.1512 -0.7306
22769SOL    HW175422   0.943   3.380   4.949 -1.1503  0.4937 -0.7514
22769SOL    HW275423   1.001   3.478   4.849 -0.1595  1.0387  0.3197
22770SOL     OW75424   0.378   1.530   2.779 -0.1513  0.3439  0.6178
22770SOL    HW175425   0.402   1.623   2.774 -0.6724  0.4493  0.0938
22770SOL    HW275426   0.462   1.485   2.790  0.0740  0.9015  1.3332
22771SOL     OW75427   0.909   2.258   8.175 -0.1956  0.1801  0.0414
22771SOL    HW175428   0.869   2.175   8.201 -0.8556 -0.0440 -1.5360
22771SOL    HW275429   0.999   2.236   8.154  0.2737  0.3190  1.7836
22772SOL     OW75430   3.531   2.799  12.293  0.1522  0.0849  0.1288
22772SOL    HW175431   3.525   2.854  12.371 -1.3847 -1.0534  0.8669
22772SOL    HW275432   3.625   2.780  12.284  0.2901 -0.5246  2.2895
22773SOL     OW75433   8.017   6.753   8.954 -0.1192  0.1860  0.2874
22773SOL    HW175434   8.046   6.666   8.983 -1.1322 -0.3946 -0.3923
22773SOL    HW275435   7.957   6.782   9.022 -1.7430 -0.7616 -0.6709
22774SOL     OW75436   0.640   9.456   8.031 -0.0218  0.2590 -0.1536
22774SOL    HW175437   0.549   9.425   8.025  0.0791 -0.0303 -0.2083
22774SOL    HW275438   0.636   9.527   8.096  0.1130 -1.3844  1.7568
22775SOL     OW75439   9.682  10.742   8.803 -0.0143 -0.3612  0.3632
22775SOL    HW175440   9.736  10.811   8.842  1.3587 -1.7442  1.0140
22775SOL    HW275441   9.704  10.743   8.710 -1.1232  1.0186  0.0745
22776SOL     OW75442  11.868  10.987   9.509  0.5417  0.0897 -0.0782
22776SOL    HW175443  11.806  10.982   9.436  1.6316 -0.5107 -0.9746
22776SOL    HW275444  11.914  11.070   9.495  0.6545  0.0420  0.0144
22777SOL     OW75445   2.889   1.715   9.133  0.3975  0.0449  0.5174
22777SOL    HW175446   2.915   1.721   9.224  2.0959  0.2204  0.0464
22777SOL    HW275447   2.864   1.623   9.121 -1.2335  0.3135  1.4678
22778SOL     OW75448   0.961  11.770  11.942  0.3194  0.4818 -0.1863
22778SOL    HW175449   0.966  11.849  11.994  1.3147 -0.5316  1.3326
22778SOL    HW275450   1.053  11.747  11.924  0.3683 -2.5119  2.9527
22779SOL     OW75451   6.986   8.263   4.605 -0.4733  0.2165 -0.1284
22779SOL    HW175452   6.922   8.297   4.543 -1.6281  0.8555  1.3677
22779SOL    HW275453   6.992   8.330   4.672 -1.5595 -1.7411  2.0518
22780SOL     OW75454   8.231  10.829   8.911 -0.2314 -0.2727 -0.0807
22780SOL    HW175455   8.222  10.847   9.005  0.3191  1.2950 -0.3088
22780SOL    HW275456   8.144  10.845   8.875  0.1063  1.5264 -0.1866
22781SOL     OW75457   4.563   0.484   4.228  0.1895  0.1445 -0.3458
22781SOL    HW175458   4.627   0.489   4.157 -1.0318  0.2131 -1.4787
22781SOL    HW275459   4.515   0.567   4.222  0.5722  0.5011  1.0874
22782SOL     OW75460   4.799   9.369   6.317 -0.0042  0.5677  0.2045
22782SOL    HW175461   4.736   9.312   6.362  0.5556  0.3536  0.7238
22782SOL    HW275462   4.768   9.458   6.335 -1.0270  0.4421 -0.8186
22783SOL     OW75463   9.510  12.363  11.995 -0.0351 -0.1260 -0.0412
22783SOL    HW175464   9.541  12.325  12.077 -1.1443 -0.8630  0.0548
22783SOL    HW275465   9.539  12.301  11.928 -0.4751 -0.3264 -0.0465
22784SOL     OW75466   3.457  11.207  12.835 -0.2244  0.2437 -0.8256
22784SOL    HW175467   3.523  11.139  12.850 -0.0203  0.6171  0.0822
22784SOL    HW275468   3.483  11.249  12.754 -0.6607 -1.1047 -1.6910
22785SOL     OW75469  11.757   0.426   3.175 -0.2094 -0.2075 -0.0769
22785SOL    HW175470  11.669   0.439   3.211  0.2270  0.0624  0.9437
22785SOL    HW275471  11.763   0.489   3.104  0.0851  1.7610  1.5810
22786SOL     OW75472  12.607   9.699  10.446 -0.2575  0.0417 -0.0576
22786SOL    HW175473  12.570   9.642  10.513 -1.3814 -0.1617 -0.8013
22786SOL    HW275474  12.541   9.698  10.376 -0.7385  2.8831  0.2094
22787SOL     OW75475   2.113   3.633   4.479 -0.0923 -0.2040  0.2301
22787SOL    HW175476   2.197   3.589   4.466  0.4344  0.6551  0.6199
22787SOL    HW275477   2.053   3.587   4.421  0.6360 -0.8553 -0.0359
22788SOL     OW75478  10.253   6.843   1.177  0.6946 -0.2669 -0.6183
22788SOL    HW175479  10.321   6.788   1.216 -2.2403 -2.6492  1.6407
22788SOL    HW275480  10.210   6.884   1.252 -0.9646  0.3615 -1.8552
22789SOL     OW75481  11.719   8.053  11.097 -0.5094 -0.1623 -0.3953
22789SOL    HW175482  11.676   8.129  11.057 -1.7352 -1.0458 -0.8031
22789SOL    HW275483  11.649   7.988  11.107 -0.0256 -0.3835  2.2046
22790SOL     OW75484   2.000  10.725   4.206  0.0610  0.5967  0.0233
22790SOL    HW175485   1.904  10.724   4.206  0.0600 -0.1769 -0.2025
22790SOL    HW275486   2.023  10.683   4.123  0.5933 -1.0910  0.9780
22791SOL     OW75487   3.526   0.653  10.463 -0.3618 -0.2069  0.5056
22791SOL    HW175488   3.616   0.643  10.493 -0.1286 -2.5425 -0.7765
22791SOL    HW275489   3.474   0.605  10.527 -0.5621  0.0939  0.5688
22792SOL     OW75490   0.270  12.938  12.140 -0.0598 -0.1907  0.0094
22792SOL    HW175491   0.205  12.899  12.198 -0.0293 -0.0273  0.1556
22792SOL    HW275492   0.319  12.864  12.104  0.1811 -0.2769  0.5010
22793SOL     OW75493   5.446  12.579  11.687  0.5202  0.3474  0.1943
22793SOL    HW175494   5.530  12.541  11.660  1.0358  1.7181 -0.2027
22793SOL    HW275495   5.470  12.653  11.742 -0.4697  0.1059  0.9912
22794SOL     OW75496   9.424   5.973   9.491  0.0492 -0.0889 -0.0493
22794SOL    HW175497   9.426   5.910   9.564  0.8813  0.1751  0.1664
22794SOL    HW275498   9.493   6.036   9.512  1.4438 -0.9124 -1.8875
22795SOL     OW75499   5.936   0.688   8.855  0.2153  0.2308  0.0603
22795SOL    HW175500   5.926   0.617   8.791 -2.7514  1.6123 -1.2078
22795SOL    HW275501   5.974   0.760   8.804 -0.3139  0.7232  0.3578
22796SOL     OW75502   8.831   1.657   1.634 -0.0158 -0.0861  0.3756
22796SOL    HW175503   8.825   1.580   1.577  0.9858 -1.0898  1.5601
22796SOL    HW275504   8.749   1.704   1.620  0.6187  0.3071 -2.6799
22797SOL     OW75505   6.429   3.028   1.654 -0.0602 -0.0511 -0.1512
22797SOL    HW175506   6.443   3.061   1.565  2.0647  0.2188  0.2265
22797SOL    HW275507   6.444   3.104   1.710  0.3348 -0.6075  0.5122
22798SOL     OW75508   7.158   5.120   5.933 -0.4031 -0.3453  0.5647
22798SOL    HW175509   7.159   5.063   5.857  0.0737  1.2375 -0.6582
22798SOL    HW275510   7.246   5.159   5.936 -1.1734  1.5226  0.3998
22799SOL     OW75511  11.249   0.599   7.809  0.4241  0.0622 -0.0896
22799SOL    HW175512  11.271   0.628   7.898 -0.2231 -1.8580  0.7737
22799SOL    HW275513  11.178   0.656   7.782  0.6683  0.7174  0.6135
22800SOL     OW75514   1.377   3.227   6.287 -0.1348  0.0472  0.1171
22800SOL    HW175515   1.421   3.153   6.244  1.2231  1.3792 -0.8847
22800SOL    HW275516   1.292   3.234   6.244  0.6183  0.4373 -1.3859
22801SOL     OW75517   1.679   9.753   7.893 -0.1902  0.1486  0.0999
22801SOL    HW175518   1.603   9.764   7.950 -2.4111 -0.7264 -2.4986
22801SOL    HW275519   1.707   9.842   7.872 -0.6290  0.4805  0.8576
22802SOL     OW75520   9.357   4.379  10.662 -0.8340 -0.0362 -0.1174
22802SOL    HW175521   9.278   4.343  10.701 -0.1507 -1.4702 -0.0137
22802SOL    HW275522   9.326   4.421  10.581 -1.5897 -1.3709 -0.5468
22803SOL     OW75523   7.674   9.166   1.410  0.0054 -0.1679 -0.4607
22803SOL    HW175524   7.592   9.214   1.411 -0.0310 -0.2317 -0.2729
22803SOL    HW275525   7.735   9.222   1.362  0.4912  0.9452  1.3654
22804SOL     OW75526   1.389   0.950   8.027 -0.2045  0.5335  0.4455
22804SOL    HW175527   1.321   0.888   8.054 -0.1814 -0.2788 -1.1798
22804SOL    HW275528   1.342   1.031   8.009 -0.4969  0.4678  0.9012
22805SOL     OW75529   5.887   6.948   4.918 -0.3102  0.8788  0.1699
22805SOL    HW175530   5.939   6.895   4.978 -0.3783  1.6816  0.9529
22805SOL    HW275531   5.895   7.037   4.951 -2.3652  1.0140  0.4784
22806SOL     OW75532   8.541   7.756  11.769 -0.3136 -0.1393  0.2636
22806SOL    HW175533   8.489   7.680  11.742 -1.5117  0.3355  1.1168
22806SOL    HW275534   8.574   7.793  11.687  0.9509 -2.0074 -0.1207
22807SOL     OW75535   3.074   6.663   8.546  0.0698 -0.1843  0.2773
22807SOL    HW175536   3.114   6.659   8.459  0.5850  0.3752  0.4875
22807SOL    HW275537   3.144   6.639   8.606  0.2639  1.3479  0.6908
22808SOL     OW75538  11.239   0.543  11.392 -0.1640 -0.2629 -0.1581
22808SOL    HW175539  11.240   0.447  11.391  0.1450 -0.2619 -0.8800
22808SOL    HW275540  11.163   0.566  11.445 -0.0602 -0.9076  0.2771
22809SOL     OW75541   2.536   1.501   9.610 -0.3884  0.4433 -0.2675
22809SOL    HW175542   2.559   1.589   9.641 -0.1564  0.8999 -1.6711
22809SOL    HW275543   2.449   1.485   9.647  0.7079  0.0722  2.3266
22810SOL     OW75544   2.266   7.511   9.493  0.1578  0.2189  0.2879
22810SOL    HW175545   2.268   7.429   9.445  2.5541  1.3388 -1.7571
22810SOL    HW275546   2.219   7.571   9.435  2.4021  1.3981 -0.4101
22811SOL     OW75547  12.428   2.340   5.627 -0.2270 -0.0836  0.0850
22811SOL    HW175548  12.466   2.332   5.540 -0.3132 -1.5911  0.1720
22811SOL    HW275549  12.487   2.401   5.673  0.6094 -0.3549 -0.5972
22812SOL     OW75550   5.434  12.937   2.454  0.4010 -0.1252 -0.1579
22812SOL    HW175551   5.373  12.868   2.483 -1.7609  1.1890 -1.2958
22812SOL    HW275552   5.381  12.994   2.398  1.8886  2.9096  1.3083
22813SOL     OW75553   0.496   8.677   6.990 -0.1797 -0.1026  0.1902
22813SOL    HW175554   0.483   8.633   6.907 -0.3583  0.4131 -0.0599
22813SOL    HW275555   0.482   8.609   7.056 -0.4477 -0.4155 -0.1866
22814SOL     OW75556   7.067   6.491   1.975 -0.4311  0.5290 -0.4071
22814SOL    HW175557   7.133   6.436   2.019 -1.5990 -0.0084  0.7488
22814SOL    HW275558   7.115   6.536   1.906  0.9686 -0.4901 -0.1363
22815SOL     OW75559   3.738   4.551   1.896  1.0935 -0.0570  0.4248
22815SOL    HW175560   3.791   4.506   1.963  3.3967  2.7290  0.6713
22815SOL    HW275561   3.756   4.503   1.815  2.2748 -0.4849  0.9225
22816SOL     OW75562   7.881   7.211  12.940  0.3276  0.0124  0.4744
22816SOL    HW175563   7.902   7.283  13.000 -0.8891  2.5181 -1.8726
22816SOL    HW275564   7.966   7.181  12.909  0.8556  0.5902  1.2978
22817SOL     OW75565   9.963  12.204  12.580  0.0388  0.1954 -0.0003
22817SOL    HW175566   9.931  12.136  12.640  0.3756 -0.0907 -0.1425
22817SOL    HW275567   9.891  12.217  12.518  0.0320 -0.1333 -0.0588
22818SOL     OW75568   7.092   6.921   5.943 -0.2016 -0.3368 -0.3221
22818SOL    HW175569   7.021   6.905   5.882 -0.8847 -0.8630  0.5924
22818SOL    HW275570   7.107   6.837   5.986 -0.2668  0.1985  0.7862
22819SOL     OW75571  10.598  12.284   2.803 -0.1360  0.1027 -0.3593
22819SOL    HW175572  10.507  12.299   2.778 -0.2042 -0.5458 -0.5135
22819SOL    HW275573  10.634  12.232   2.731  0.5279  0.8747 -0.5960
22820SOL     OW75574   6.344   9.084   0.993 -0.2407  0.3340  0.1006
22820SOL    HW175575   6.277   9.118   1.053  0.2812 -0.6263  1.2648
22820SOL    HW275576   6.296   9.066   0.912 -2.0548 -2.7179  1.6499
22821SOL     OW75577  11.708   5.804   9.952  0.3872  0.4888  0.1165
22821SOL    HW175578  11.659   5.750  10.014 -1.4137 -0.2256 -1.8089
22821SOL    HW275579  11.664   5.889   9.956  0.3211  0.4654 -0.0825
22822SOL     OW75580   8.252  11.071   6.974 -0.3668  0.4549  0.3423
22822SOL    HW175581   8.256  10.985   7.016 -2.2281  0.3257  0.3271
22822SOL    HW275582   8.314  11.124   7.023 -1.1405 -0.1915  2.1261
22823SOL     OW75583   7.613   1.425  12.832 -0.8238  0.1921  0.1629
22823SOL    HW175584   7.706   1.431  12.854 -0.6094 -0.3458 -0.5574
22823SOL    HW275585   7.581   1.351  12.883 -0.9614  0.6178  0.7134
22824SOL     OW75586  12.325  12.623   8.605  0.6107 -0.4681  0.0849
22824SOL    HW175587  12.310  12.671   8.524  0.1525  0.0772  0.4892
22824SOL    HW275588  12.274  12.670   8.671  2.6299  0.3926  1.1426
22825SOL     OW75589  11.193  10.484   3.310  0.0943 -0.5008 -0.2726
22825SOL    HW175590  11.183  10.538   3.388 -1.4125 -0.7835 -0.2295
22825SOL    HW275591  11.103  10.469   3.280  0.5486 -1.8466 -1.0516
22826SOL     OW75592   0.307   9.439   5.929  0.5214 -0.0540  0.6172
22826SOL    HW175593   0.369   9.418   5.859 -0.5085  0.2399 -0.4247
22826SOL    HW275594   0.240   9.372   5.923 -1.0166  1.4948 -0.5271
22827SOL     OW75595   7.393   4.701   9.594 -0.5204 -0.1843  0.4201
22827SOL    HW175596   7.482   4.717   9.626 -0.4193 -0.0275  0.0689
22827SOL    HW275597   7.391   4.744   9.509 -1.3304  0.9135  0.9739
22828SOL     OW75598  12.240   7.523   6.794  0.4470  0.0539 -0.0451
22828SOL    HW175599  12.304   7.593   6.806  2.1708 -1.4816  0.2090
22828SOL    HW275600  12.276   7.449   6.843 -2.2425 -0.4928  1.2765
22829SOL     OW75601   0.278   8.119   1.519  0.4441  0.7573  0.0930
22829SOL    HW175602   0.203   8.079   1.562  2.2153  0.7836  3.5181
22829SOL    HW275603   0.299   8.059   1.447 -2.0291  0.1184 -0.1828
22830SOL     OW75604  10.313   5.052   5.712 -0.3759 -0.2991  0.1964
22830SOL    HW175605  10.316   4.962   5.681 -0.8965  0.0716 -0.9940
22830SOL    HW275606  10.313   5.045   5.807  0.7969 -1.4950  0.1252
22831SOL     OW75607  11.335   8.351   0.268  0.2033 -0.9003  0.1814
22831SOL    HW175608  11.285   8.271   0.283 -1.4166 -0.1962 -1.0913
22831SOL    HW275609  11.300   8.385   0.185  0.0526  1.6663  1.2038
22832SOL     OW75610   4.738   1.414   9.055  0.4359 -0.1068  0.3874
22832SOL    HW175611   4.693   1.412   8.970 -0.4996  0.8957  0.8461
22832SOL    HW275612   4.727   1.504   9.086  2.2067  0.0076  0.8250
22833SOL     OW75613   6.874   2.943   8.520 -0.1448  0.2656 -0.8973
22833SOL    HW175614   6.899   2.989   8.440  0.7371  2.6339  0.6352
22833SOL    HW275615   6.784   2.972   8.537 -0.0597  0.3808 -0.6358
22834SOL     OW75616   4.416  12.676   0.235 -0.2338  0.0315 -0.1105
22834SOL    HW175617   4.335  12.631   0.260 -0.6275  0.6333 -0.3010
22834SOL    HW275618   4.434  12.736   0.307 -0.1990  0.2255 -0.2814
22835SOL     OW75619  11.224   8.611   9.301 -0.4752  0.6428  0.0548
22835SOL    HW175620  11.224   8.590   9.207 -0.6877  1.5962 -0.1692
22835SOL    HW275621  11.131   8.608   9.326 -0.4985  1.1457  0.0464
22836SOL     OW75622   7.736  10.324  10.546 -0.3114  0.3608 -0.1030
22836SOL    HW175623   7.684  10.328  10.466 -0.4103  2.8724 -0.0153
22836SOL    HW275624   7.823  10.355  10.520  0.0748 -0.2161  0.4730
22837SOL     OW75625   1.124  11.208   3.219 -0.1640  0.1392 -0.5369
22837SOL    HW175626   1.087  11.292   3.190  1.5499  1.2361  0.2507
22837SOL    HW275627   1.048  11.155   3.243 -1.2746  1.6597 -0.5328
22838SOL     OW75628   5.811   3.278   6.132  0.0887 -0.0721  0.4695
22838SOL    HW175629   5.739   3.246   6.079 -0.0604  0.2994  0.4407
22838SOL    HW275630   5.768   3.313   6.211  0.1316  1.1499 -0.0279
22839SOL     OW75631   5.959  11.582   2.997 -0.6708 -0.1653  0.0342
22839SOL    HW175632   5.904  11.612   3.069  1.7180  1.9435  1.1434
22839SOL    HW275633   6.008  11.509   3.033 -0.3822  0.0891  0.1669
22840SOL     OW75634   7.599  11.315   3.906 -0.6331 -0.0214  0.2757
22840SOL    HW175635   7.667  11.301   3.841 -0.2506 -0.7298  0.8138
22840SOL    HW275636   7.595  11.410   3.917  1.5800 -0.0101  1.5813
22841SOL     OW75637   3.387   6.190   0.137  0.2313 -0.6827 -0.2585
22841SOL    HW175638   3.389   6.108   0.186 -1.2286 -0.4704  0.1733
22841SOL    HW275639   3.396   6.259   0.203 -1.3075 -0.4108 -0.2981
22842SOL     OW75640   0.854  12.519   9.532  0.3898  0.3277 -0.1091
22842SOL    HW175641   0.823  12.465   9.459  1.7959 -0.0325 -0.4776
22842SOL    HW275642   0.777  12.531   9.588 -0.1502 -1.3933 -0.4300
22843SOL     OW75643   7.564  10.677  10.045  0.3245 -0.2224 -0.5084
22843SOL    HW175644   7.541  10.755  10.095 -0.7460 -0.3528 -0.7860
22843SOL    HW275645   7.566  10.707   9.954 -0.3252 -0.5724 -0.6389
22844SOL     OW75646   5.220  11.999   4.997  0.0019 -0.4040 -0.0685
22844SOL    HW175647   5.167  11.993   4.918 -0.8889  0.9551  0.3944
22844SOL    HW275648   5.240  11.908   5.020  0.5271 -0.8034 -1.9990
22845SOL     OW75649  10.149   4.823   0.042 -0.3563 -0.0245 -0.4336
22845SOL    HW175650  10.109   4.781  -0.034 -0.7122  0.3560 -0.4630
22845SOL    HW275651  10.210   4.758   0.076 -1.9275 -1.1427  0.3742
22846SOL     OW75652   1.829   0.397   7.113  0.6358 -0.1438 -0.4289
22846SOL    HW175653   1.767   0.373   7.182  0.8960 -1.0618 -0.5061
22846SOL    HW275654   1.889   0.323   7.107  1.6976  0.6894 -0.4282
22847SOL     OW75655  12.245  12.422   6.348 -0.1763 -0.2624 -0.2634
22847SOL    HW175656  12.233  12.327   6.351  0.6497 -0.3670  0.0076
22847SOL    HW275657  12.252  12.449   6.439 -1.4389  0.2217 -0.2789
22848SOL     OW75658   9.037  10.492   6.579 -0.2034 -0.3419 -0.0872
22848SOL    HW175659   9.049  10.520   6.670 -0.9562 -0.1788 -0.0350
22848SOL    HW275660   9.117  10.521   6.535 -0.6268  1.2568  0.1239
22849SOL     OW75661   0.525   8.894  12.233 -0.2239 -0.0054  0.2436
22849SOL    HW175662   0.447   8.842  12.249 -1.1475  1.5045  0.8262
22849SOL    HW275663   0.508   8.939  12.151 -1.5093  2.9093  1.9491
22850SOL     OW75664   7.327  11.328   9.452  0.4287  0.7621 -0.5095
22850SOL    HW175665   7.347  11.421   9.446  1.9920  0.3940 -1.6817
22850SOL    HW275666   7.231  11.324   9.454  0.3344  2.4659  1.6657
22851SOL     OW75667   7.634   9.187   4.461 -0.2896  0.3223 -0.0969
22851SOL    HW175668   7.628   9.250   4.533  0.0261 -0.6669  0.8261
22851SOL    HW275669   7.681   9.233   4.392  0.2469  0.9785  0.6926
22852SOL     OW75670   4.545   0.312   3.914  0.2041  0.0401  0.0808
22852SOL    HW175671   4.537   0.292   3.821 -1.4319  2.6208 -0.4212
22852SOL    HW275672   4.463   0.282   3.952  0.0630  0.7113  0.3187
22853SOL     OW75673   4.846   9.349   4.379 -0.4781 -0.4016 -0.6932
22853SOL    HW175674   4.807   9.313   4.300 -0.4182 -0.0312 -0.8931
22853SOL    HW275675   4.906   9.416   4.348 -0.0199 -0.6552 -0.3628
22854SOL     OW75676   7.790  10.013   1.114  0.0021 -0.3218  0.4500
22854SOL    HW175677   7.775  10.030   1.022 -0.3973  0.8773  0.7217
22854SOL    HW275678   7.773  10.097   1.158 -1.3184 -1.2112  1.7713
22855SOL     OW75679  12.332   5.273   9.796 -0.1058 -0.6231  0.4971
22855SOL    HW175680  12.298   5.302   9.880 -0.6342 -0.8870  0.3790
22855SOL    HW275681  12.426   5.258   9.811  0.0059  0.2770  0.7812
22856SOL     OW75682   2.583   3.809  10.839 -0.5302  0.4756 -0.0532
22856SOL    HW175683   2.576   3.895  10.879 -1.0927  0.6480 -0.4952
22856SOL    HW275684   2.499   3.767  10.857 -0.5270  0.2931 -0.4484
22857SOL     OW75685  10.551   9.328   7.997 -0.2054  0.2898  0.4471
22857SOL    HW175686  10.607   9.330   8.074 -0.5154  0.8069  0.6647
22857SOL    HW275687  10.590   9.392   7.937  0.2036 -0.3201  0.0480
22858SOL     OW75688   0.169   6.025  12.183 -0.1394  0.1306 -0.3621
22858SOL    HW175689   0.259   5.994  12.170  0.3090  0.7515  0.9877
22858SOL    HW275690   0.140   5.978  12.261 -1.0437 -0.1588 -0.8659
22859SOL     OW75691   6.690   8.982   6.958 -0.1304  0.3138 -0.0619
22859SOL    HW175692   6.659   8.902   6.914 -0.2926  0.9499 -1.1418
22859SOL    HW275693   6.609   9.028   6.981 -0.0317  1.2628 -1.5354
22860SOL     OW75694   6.018   8.157   2.820 -0.2204 -0.6046 -0.5746
22860SOL    HW175695   5.961   8.081   2.824  0.5643 -1.1310  2.1200
22860SOL    HW275696   6.015   8.196   2.907 -0.3770  2.3659 -1.7597
22861SOL     OW75697   4.628   7.864   8.260  0.4162  0.1208 -0.8069
22861SOL    HW175698   4.600   7.905   8.178  0.4279  1.1429 -0.3118
22861SOL    HW275699   4.590   7.918   8.328 -0.1369 -1.0970 -0.1212
22862SOL     OW75700   9.208   3.254   5.428  0.3296 -0.5343  0.0606
22862SOL    HW175701   9.163   3.289   5.352  1.5109  0.9950  0.0157
22862SOL    HW275702   9.196   3.320   5.496  2.3438 -0.1201  0.0782
22863SOL     OW75703   4.657   1.832  12.632 -0.3973 -0.2084  0.2517
22863SOL    HW175704   4.720   1.896  12.599 -2.0800  1.4540  0.0120
22863SOL    HW275705   4.705   1.750  12.636  1.2235  0.5537 -1.7237
22864SOL     OW75706   9.738   1.469  10.215 -0.4246  0.2221 -0.0583
22864SOL    HW175707   9.717   1.509  10.299 -1.3335  1.9123 -1.0219
22864SOL    HW275708   9.663   1.412  10.196 -0.6788  0.5905 -0.1632
22865SOL     OW75709   7.121   6.462  12.957  0.1002 -0.3654 -0.4521
22865SOL    HW175710   7.201   6.449  13.008  0.8137  3.6165 -0.1834
22865SOL    HW275711   7.051   6.432  13.015  1.1558  0.5225  1.4136
22866SOL     OW75712   6.204   7.735   4.974 -0.4582 -0.4444 -0.2408
22866SOL    HW175713   6.234   7.748   4.884 -0.7619  0.7286 -0.1827
22866SOL    HW275714   6.133   7.798   4.984 -0.6231 -0.7802  0.7333
22867SOL     OW75715   4.128   8.505   1.796 -0.5977 -0.1964 -0.2576
22867SOL    HW175716   4.148   8.499   1.703 -0.3155 -0.8082 -0.1650
22867SOL    HW275717   4.159   8.592   1.822  1.7579 -1.0010 -0.1726
22868SOL     OW75718  10.934   8.581   8.978 -0.2778 -0.0377 -0.7154
22868SOL    HW175719  10.844   8.578   9.011 -0.4010 -1.0100 -1.1105
22868SOL    HW275720  10.954   8.675   8.972 -0.2529  0.2014  2.0319
22869SOL     OW75721   9.159  10.742   5.292  0.0850  0.2700 -0.0064
22869SOL    HW175722   9.104  10.811   5.330  1.1040 -0.0904  2.3181
22869SOL    HW275723   9.239  10.788   5.266 -0.2826  0.3730 -1.0055
22870SOL     OW75724   0.424  11.488   1.732 -0.0321 -0.2700  0.8327
22870SOL    HW175725   0.406  11.501   1.825 -1.0471  2.7916  0.3289
22870SOL    HW275726   0.519  11.497   1.725  0.0063 -0.0816  1.5085
22871SOL     OW75727   8.732   8.291   0.460  0.1507 -0.6123 -0.0945
22871SOL    HW175728   8.765   8.212   0.503  0.4926 -0.4191  0.0061
22871SOL    HW275729   8.659   8.319   0.515  0.3646 -0.5625  0.1716
22872SOL     OW75730   2.680   7.498  12.154 -0.1862 -0.1263 -0.4527
22872SOL    HW175731   2.751   7.467  12.098  0.8375 -0.7908  1.1305
22872SOL    HW275732   2.724   7.533  12.232 -1.4881 -3.5684  2.1345
22873SOL     OW75733   6.865  10.507   1.663  0.8274  0.0391  0.1724
22873SOL    HW175734   6.886  10.428   1.712 -2.2917 -0.3889  1.0387
22873SOL    HW275735   6.826  10.566   1.727 -0.8084  0.5437 -1.1840
22874SOL     OW75736   8.453   7.289   2.243  0.1612 -0.3519 -0.7598
22874SOL    HW175737   8.422   7.200   2.261 -1.9641  0.8718  2.2510
22874SOL    HW275738   8.501   7.314   2.321  0.1581  1.4094 -1.2899
22875SOL     OW75739   6.629   7.329   2.529 -0.6395  0.0245 -0.0300
22875SOL    HW175740   6.695   7.340   2.462  0.1527 -3.0750  0.0585
22875SOL    HW275741   6.670   7.362   2.609  1.5153 -2.9394  0.2892
22876SOL     OW75742   5.012   9.311   7.938  0.5207  0.4249 -0.7879
22876SOL    HW175743   5.017   9.285   7.846 -0.1709 -1.7906 -0.2707
22876SOL    HW275744   5.083   9.263   7.981  0.3414  0.8071 -0.0370
22877SOL     OW75745   7.767   0.996   2.306 -0.1180  0.5835  0.0038
22877SOL    HW175746   7.707   1.060   2.267  1.1194  0.4930 -2.1613
22877SOL    HW275747   7.745   0.914   2.263  0.4250  0.2035  0.4500
22878SOL     OW75748   1.108   0.274  12.848 -0.3480  0.4683  0.4082
22878SOL    HW175749   1.145   0.240  12.929 -0.5262  0.2232  0.3863
22878SOL    HW275750   1.182   0.280  12.788 -0.2537  0.4519  0.5230
22879SOL     OW75751   8.174   0.963   8.538 -0.7011  0.9758 -0.1599
22879SOL    HW175752   8.196   0.903   8.467 -0.0136 -0.2986  1.0753
22879SOL    HW275753   8.126   0.909   8.601 -0.0329  1.7071  1.0010
22880SOL     OW75754  11.885   7.033  11.243  0.1378  0.6696  0.5473
22880SOL    HW175755  11.876   7.045  11.338 -0.7847 -0.0203  0.5605
22880SOL    HW275756  11.818   7.091  11.205  1.7228  2.3684  0.2081
22881SOL     OW75757   3.643   5.946   1.199  0.0341 -0.7076  0.7102
22881SOL    HW175758   3.560   5.987   1.223 -0.7629 -2.0283  0.3251
22881SOL    HW275759   3.656   5.878   1.265 -1.4451 -3.4124 -1.5411
22882SOL     OW75760   8.286  12.155   9.268  0.2016 -0.1292 -0.5734
22882SOL    HW175761   8.271  12.145   9.362  1.7918 -0.3321 -0.3222
22882SOL    HW275762   8.235  12.085   9.228  1.1043 -1.3021  0.2792
22883SOL     OW75763  12.536   3.710   6.873 -0.1305 -0.3021  0.0440
22883SOL    HW175764  12.627   3.715   6.843 -0.3585  1.5566 -0.4497
22883SOL    HW275765  12.527   3.620   6.904  2.5690  0.0334  2.3058
22884SOL     OW75766  10.969   9.884   5.613 -0.1779 -0.5193  0.4757
22884SOL    HW175767  11.043   9.897   5.672 -0.0496 -1.5855  0.5705
22884SOL    HW275768  10.992   9.805   5.564  0.0213  0.6724 -1.4688
22885SOL     OW75769   0.882   9.578   2.660  0.4939  0.0419  0.0269
22885SOL    HW175770   0.853   9.629   2.584 -0.9234 -1.5908 -0.5912
22885SOL    HW275771   0.976   9.568   2.647  0.1868 -0.8768 -2.0098
22886SOL     OW75772  12.778  10.191   3.740 -0.3491 -1.1379  0.0568
22886SOL    HW175773  12.824  10.250   3.680 -0.9156  0.2126  0.8872
22886SOL    HW275774  12.848  10.152   3.793 -0.0397  0.1985  0.7012
22887SOL     OW75775   6.292  10.983   0.646 -0.1528 -0.0699 -0.1602
22887SOL    HW175776   6.380  10.978   0.610 -0.0032 -0.0636  0.1992
22887SOL    HW275777   6.305  10.994   0.740 -0.5500 -2.7261  0.2810
22888SOL     OW75778  10.751   1.351   6.423 -0.4564  0.0930 -0.3344
22888SOL    HW175779  10.687   1.390   6.364  0.1241 -0.6745 -1.5154
22888SOL    HW275780  10.813   1.422   6.443 -1.1932  0.6128  0.1501
22889SOL     OW75781   1.269  12.614   1.605 -0.7883  0.0141 -0.2267
22889SOL    HW175782   1.253  12.529   1.647 -2.0931  0.4240  0.1637
22889SOL    HW275783   1.183  12.641   1.574 -0.1234  0.4961 -1.7169
22890SOL     OW75784   3.090   9.360   4.369  0.3309  0.6506 -0.3804
22890SOL    HW175785   3.016   9.398   4.323  0.6084  0.7651 -0.7327
22890SOL    HW275786   3.162   9.421   4.354  1.4798 -1.1712 -3.0593
22891SOL     OW75787   3.694   9.008   7.423  0.2272  0.3556 -0.5340
22891SOL    HW175788   3.601   9.026   7.438  0.2856  3.1619 -2.7800
22891SOL    HW275789   3.740   9.065   7.484  0.4043  2.0073 -2.1288
22892SOL     OW75790   4.762   4.360  12.822 -0.0675  0.2177  0.3852
22892SOL    HW175791   4.852   4.341  12.847  0.9420  2.2334 -1.3719
22892SOL    HW275792   4.769   4.395  12.733 -2.4431  1.5573  0.6383
22893SOL     OW75793   4.432   8.569   8.829 -0.0151 -0.5930 -0.2926
22893SOL    HW175794   4.437   8.665   8.830  0.3562 -0.6127 -0.0583
22893SOL    HW275795   4.379   8.548   8.752 -0.8781 -0.1658  0.1635
22894SOL     OW75796  11.786  11.166   3.627  0.0456  0.1470 -0.0163
22894SOL    HW175797  11.770  11.103   3.698 -0.6545 -1.1776 -1.3069
22894SOL    HW275798  11.702  11.211   3.615  0.1750  0.3957 -0.0086
22895SOL     OW75799   5.264   8.668   1.458 -0.3127 -0.2557  0.1510
22895SOL    HW175800   5.278   8.591   1.404 -0.2158  1.0150 -1.7204
22895SOL    HW275801   5.303   8.740   1.408 -2.0945  1.3143  0.9036
22896SOL     OW75802   8.671   1.649   7.527 -0.5209 -0.1435  0.0110
22896SOL    HW175803   8.716   1.723   7.487 -0.6639  0.2072  0.4956
22896SOL    HW275804   8.737   1.580   7.531 -0.3115  0.0420 -0.1887
22897SOL     OW75805   1.577   2.781   9.391  0.3248  0.4811  0.4562
22897SOL    HW175806   1.525   2.718   9.441 -1.9585  0.4784 -1.7436
22897SOL    HW275807   1.550   2.866   9.426  1.9426  0.3991  2.0627
22898SOL     OW75808   2.425   3.063   5.280  0.4743 -0.1792  0.0071
22898SOL    HW175809   2.454   3.150   5.251  1.3517 -0.8882 -1.3611
22898SOL    HW275810   2.330   3.067   5.275  0.5140 -0.4739 -4.0294
22899SOL     OW75811   5.920   7.454   7.921 -0.4896  0.5371 -0.0946
22899SOL    HW175812   6.007   7.494   7.932 -0.2241 -0.0500 -0.0564
22899SOL    HW275813   5.859   7.526   7.941 -0.0190  0.9664 -0.1665
22900SOL     OW75814   1.451   4.254   8.794 -0.3325 -0.1723 -0.2957
22900SOL    HW175815   1.477   4.343   8.817 -0.7467 -0.4308  1.2950
22900SOL    HW275816   1.361   4.262   8.764 -1.6238 -0.3691  3.0275
22901SOL     OW75817   3.110   9.816   8.382 -0.3646  0.0283 -0.4358
22901SOL    HW175818   3.051   9.779   8.316  0.2630 -2.6925  0.3820
22901SOL    HW275819   3.198   9.802   8.346 -0.0272  3.7651 -1.5105
22902SOL     OW75820   3.486  11.519   6.844 -0.4514  0.3704 -0.1456
22902SOL    HW175821   3.406  11.480   6.810 -0.3189 -0.3247  0.3013
22902SOL    HW275822   3.530  11.446   6.889  0.6568  0.6173 -0.7906
22903SOL     OW75823   5.337   3.503   2.923  0.2652  0.1165  0.2107
22903SOL    HW175824   5.253   3.551   2.923 -0.7297 -1.5462 -0.5478
22903SOL    HW275825   5.312   3.412   2.912  2.1665 -0.5138  0.8315
22904SOL     OW75826   2.624   5.257   1.529  0.8611 -0.6007  0.0325
22904SOL    HW175827   2.620   5.164   1.507 -1.0908 -0.3928 -0.6627
22904SOL    HW275828   2.536   5.278   1.560  1.1062  1.1580 -0.3878
22905SOL     OW75829  11.904   5.545  11.743 -0.0009 -0.1874  0.0040
22905SOL    HW175830  11.824   5.578  11.785 -0.7372 -1.2104 -0.5332
22905SOL    HW275831  11.873   5.506  11.662  1.1125 -0.2710 -0.3964
22906SOL     OW75832   1.854   1.436  11.215 -0.6429  0.2512  0.1714
22906SOL    HW175833   1.775   1.474  11.252 -0.2984  0.2181  0.9698
22906SOL    HW275834   1.887   1.502  11.154 -0.1605  1.1715  1.3986
22907SOL     OW75835  12.851   6.299   3.632 -0.9582 -0.2163 -0.6426
22907SOL    HW175836  12.903   6.349   3.568 -1.8677  0.0456 -1.2024
22907SOL    HW275837  12.852   6.353   3.711 -1.0852  0.1994 -0.9212
22908SOL     OW75838   2.075   8.164   4.196  0.0521 -0.4330  0.5298
22908SOL    HW175839   2.150   8.148   4.254  0.1462  0.3662  0.6326
22908SOL    HW275840   2.091   8.250   4.159 -0.7737 -0.2935  0.4791
22909SOL     OW75841   5.623   9.035   1.483  0.0759 -0.4912  0.0710
22909SOL    HW175842   5.631   9.091   1.560  0.6996 -1.6079  0.8557
22909SOL    HW275843   5.529   9.035   1.464 -0.0883 -0.1999  0.8359
22910SOL     OW75844   2.462  10.671   1.194 -0.0162 -0.5045 -0.1880
22910SOL    HW175845   2.383  10.721   1.212  0.0835 -0.6260  0.6080
22910SOL    HW275846   2.531  10.737   1.187 -0.0326 -0.4633  0.0248
22911SOL     OW75847  11.221  12.517   3.279 -0.1863 -0.1462 -0.1803
22911SOL    HW175848  11.238  12.435   3.233 -0.4331  0.0576 -0.6481
22911SOL    HW275849  11.211  12.582   3.209  1.7643  0.6391  0.2263
22912SOL     OW75850  12.869   3.914  12.154 -0.0348 -0.2173  0.3287
22912SOL    HW175851  12.804   3.938  12.089 -1.1376 -0.4940  1.3041
22912SOL    HW275852  12.925   3.991  12.162  1.3539 -0.8301 -2.3367
22913SOL     OW75853   0.412  10.579  10.336 -0.5372  0.3279 -0.4442
22913SOL    HW175854   0.499  10.573  10.374 -0.6453  0.8277 -0.1049
22913SOL    HW275855   0.362  10.633  10.398 -1.0250  0.2320 -0.7421
22914SOL     OW75856   7.964  11.064  12.665  0.0133  0.3493  0.1715
22914SOL    HW175857   7.923  10.981  12.690  1.2163  0.5314  3.1135
22914SOL    HW275858   7.912  11.131  12.708  1.2986  0.8140  1.0670
22915SOL     OW75859  10.977   1.382   4.472 -0.5039 -0.4382  0.2425
22915SOL    HW175860  10.901   1.351   4.522 -0.5926 -2.1232 -0.8383
22915SOL    HW275861  11.019   1.302   4.441  1.2134  0.4907  0.0522
22916SOL     OW75862   9.574   9.157  10.030  0.1365 -0.1131 -0.0604
22916SOL    HW175863   9.668   9.140  10.027  0.0582 -0.7895  0.8473
22916SOL    HW275864   9.536   9.092   9.971  0.2033 -0.1328 -0.0813
22917SOL     OW75865   8.071  10.798   6.500  0.6140  0.1158  0.2930
22917SOL    HW175866   8.062  10.726   6.437 -0.7468  0.4656  0.0480
22917SOL    HW275867   7.991  10.849   6.488 -1.4043 -1.5708  4.5662
22918SOL     OW75868   9.302   3.437   0.819  0.5522 -0.0755  0.6596
22918SOL    HW175869   9.392   3.457   0.847  0.5890  0.4487  0.1887
22918SOL    HW275870   9.265   3.522   0.797  0.3982 -0.4287 -0.4927
22919SOL     OW75871  12.535   0.651  10.621  0.7397 -0.4841  0.6149
22919SOL    HW175872  12.551   0.574  10.675 -0.7862 -2.7605 -1.8811
22919SOL    HW275873  12.451   0.686  10.652  0.4780 -1.0410  0.5529
22920SOL     OW75874   0.619   0.906   6.115 -0.0292 -0.1926 -0.2151
22920SOL    HW175875   0.696   0.954   6.085  0.5767 -1.6010 -1.0791
22920SOL    HW275876   0.636   0.887   6.207 -0.9882  2.4839  0.5868
22921SOL     OW75877   2.349   2.347  12.018  0.2218  0.2303  0.1714
22921SOL    HW175878   2.288   2.365  12.090 -1.0844  1.5542 -1.1837
22921SOL    HW275879   2.433   2.382  12.048 -0.5317  1.6605  0.6791
22922SOL     OW75880   4.029  10.289  10.661 -0.2376 -0.0878 -0.9460
22922SOL    HW175881   4.074  10.366  10.696  1.1514 -0.6800 -1.3839
22922SOL    HW275882   4.084  10.258  10.590  0.6766 -3.0387  0.8526
22923SOL     OW75883   4.940   3.452  12.200 -0.0387 -0.0154  0.3826
22923SOL    HW175884   4.963   3.368  12.241  0.0258 -0.8143 -1.2084
22923SOL    HW275885   4.999   3.515  12.242 -0.2362 -0.7105  1.7665
22924SOL     OW75886   5.630   3.803   5.458 -0.0625  0.1538  0.2429
22924SOL    HW175887   5.698   3.738   5.439 -0.7204 -0.3672 -0.3899
22924SOL    HW275888   5.548   3.754   5.453 -0.4986  0.7950  0.9169
22925SOL     OW75889   2.369   0.930   4.521  0.6026  0.1640  0.0802
22925SOL    HW175890   2.421   0.861   4.562  0.6899  0.0767 -0.1767
22925SOL    HW275891   2.411   1.012   4.549  0.9633  0.0915 -0.2341
22926SOL     OW75892   2.362  12.848  11.847 -0.1578  0.8260 -0.0764
22926SOL    HW175893   2.349  12.759  11.814 -0.5277  0.4490  1.0441
22926SOL    HW275894   2.413  12.891  11.779  0.6540 -0.4613 -0.3211
22927SOL     OW75895   7.915   2.644  12.754 -0.4417  0.1272 -0.0761
22927SOL    HW175896   7.950   2.697  12.682 -0.7581 -0.8643 -0.9903
22927SOL    HW275897   7.985   2.582  12.774 -0.9188 -0.5898 -0.5820
22928SOL     OW75898   3.380   1.862   9.383  0.7324 -0.1922 -0.3401
22928SOL    HW175899   3.444   1.922   9.422 -1.1435  0.9375  1.1808
22928SOL    HW275900   3.411   1.775   9.408  0.5487  0.4101  2.3246
22929SOL     OW75901   7.133   8.746   8.917  0.1169 -0.0213  0.3815
22929SOL    HW175902   7.050   8.794   8.917  0.5978  0.8411  1.3548
22929SOL    HW275903   7.107   8.654   8.924 -0.8895 -0.1337 -2.9967
22930SOL     OW75904   1.727   6.770   8.954  0.3473  0.1945 -0.3547
22930SOL    HW175905   1.633   6.775   8.975  0.3723 -1.4669  0.3044
22930SOL    HW275906   1.767   6.840   9.005 -0.5520  1.1373 -0.8914
22931SOL     OW75907   2.264  11.796   8.482  0.0860 -0.5353  0.2630
22931SOL    HW175908   2.216  11.816   8.562  1.7932  2.9282  0.6206
22931SOL    HW275909   2.353  11.777   8.512  0.4241 -0.5053 -0.6959
22932SOL     OW75910   5.911   1.184   0.498 -0.4101  0.4112 -0.2323
22932SOL    HW175911   5.864   1.266   0.478  0.4929  1.1664  0.6507
22932SOL    HW275912   5.858   1.142   0.565 -0.9286  0.2030 -0.7567
22933SOL     OW75913  10.722   1.502   0.837 -0.1139 -0.3552  0.5229
22933SOL    HW175914  10.699   1.563   0.767 -2.1710  1.1679  2.3813
22933SOL    HW275915  10.794   1.546   0.884 -0.3718 -0.2121  0.7870
22934SOL     OW75916   0.197   0.112   1.838 -0.3066  0.4684 -0.7523
22934SOL    HW175917   0.275   0.108   1.784  0.6776  0.2258  0.6386
22934SOL    HW275918   0.224   0.161   1.916 -1.6257  0.6535 -0.3835
22935SOL     OW75919   9.293   2.238   1.934 -0.0701 -0.2547 -0.2991
22935SOL    HW175920   9.226   2.169   1.927 -0.3879  0.0980 -0.8050
22935SOL    HW275921   9.297   2.258   2.028  0.4930 -1.4093 -0.0546
22936SOL     OW75922   6.325   7.853   6.950  0.4722  0.5612  0.4724
22936SOL    HW175923   6.418   7.844   6.929  0.1686 -0.7802 -0.4551
22936SOL    HW275924   6.305   7.775   7.002 -0.5886 -0.3391 -1.1951
22937SOL     OW75925  11.781  11.121   7.172  0.2073 -0.2307 -0.2414
22937SOL    HW175926  11.855  11.076   7.131  1.1103  1.5169 -0.6192
22937SOL    HW275927  11.813  11.209   7.189 -1.1556 -0.0055  1.4422
22938SOL     OW75928   9.541   4.220   8.049 -0.3482 -0.2801  0.1298
22938SOL    HW175929   9.554   4.259   7.962  0.8153  0.9068  0.7968
22938SOL    HW275930   9.446   4.220   8.061 -0.5928 -1.2525 -1.4629
22939SOL     OW75931   3.973   5.565  12.508  0.4691 -0.0314 -0.2807
22939SOL    HW175932   4.068   5.556  12.518  0.5879  1.4918  0.2106
22939SOL    HW275933   3.957   5.552  12.415  0.9390 -1.8528 -0.1495
22940SOL     OW75934   0.870  12.293   3.157  0.2908 -0.2164 -0.0928
22940SOL    HW175935   0.920  12.288   3.238  0.4885  0.3215 -0.1759
22940SOL    HW275936   0.845  12.202   3.137  2.5966 -0.7366 -0.9148
22941SOL     OW75937   0.678   2.050   7.687 -0.8597  0.4144  0.0817
22941SOL    HW175938   0.736   2.028   7.760 -2.0235 -2.0426  0.3502
22941SOL    HW275939   0.593   2.064   7.728 -1.3513 -0.2132 -0.6993
22942SOL     OW75940   0.104  11.363   7.774  0.4459  0.1044 -0.1237
22942SOL    HW175941   0.033  11.427   7.773  0.6157  0.2919 -0.2631
22942SOL    HW275942   0.098  11.322   7.860 -1.1867 -1.4111 -0.8835
22943SOL     OW75943   5.537   1.729  10.620 -0.7718 -0.0192 -0.2810
22943SOL    HW175944   5.630   1.746  10.604 -0.9474  0.6841 -0.5982
22943SOL    HW275945   5.492   1.803  10.579 -1.5451 -1.0172 -1.2857
22944SOL     OW75946  12.617  10.893   3.275  0.0830 -0.8197 -0.4132
22944SOL    HW175947  12.532  10.936   3.268  0.1241 -0.3508  1.3131
22944SOL    HW275948  12.641  10.870   3.186 -2.3261 -1.8845 -0.8710
22945SOL     OW75949  12.174   9.211  11.535  0.4087 -0.0245 -0.0791
22945SOL    HW175950  12.145   9.237  11.447  0.5649 -1.4999 -0.5820
22945SOL    HW275951  12.122   9.266  11.594 -0.1515  0.5451 -1.0733
22946SOL     OW75952   1.085  12.668   1.400  0.1701  0.0333 -0.4096
22946SOL    HW175953   1.125  12.708   1.322  0.3031  1.4598  0.3509
22946SOL    HW275954   1.078  12.575   1.378  4.8938 -0.6422 -0.2998
22947SOL     OW75955   7.156   4.535   2.215 -0.6107  0.3818  0.3104
22947SOL    HW175956   7.097   4.539   2.141  0.6869  0.6433 -0.7511
22947SOL    HW275957   7.243   4.553   2.178  0.1525 -0.0635  1.7871
22948SOL     OW75958  11.020   4.792   6.236 -0.1860 -0.6051  0.0187
22948SOL    HW175959  10.972   4.733   6.294 -0.8524 -1.0584 -0.9599
22948SOL    HW275960  10.982   4.776   6.150  1.9889 -1.2381 -0.8783
22949SOL     OW75961   1.758   8.861   9.194 -0.0965  0.1917  0.2917
22949SOL    HW175962   1.708   8.898   9.121  0.2872  0.4537  0.1611
22949SOL    HW275963   1.724   8.905   9.272  1.4242  2.0076 -0.0000
22950SOL     OW75964   2.700  12.662   0.566 -0.2151 -0.0871 -0.4053
22950SOL    HW175965   2.762  12.612   0.513 -0.0092  0.7678 -0.9939
22950SOL    HW275966   2.614  12.638   0.531 -0.1990 -0.9211  0.1038
22951SOL     OW75967  12.431   3.843   1.224 -0.0449 -0.2995 -0.0890
22951SOL    HW175968  12.423   3.783   1.149 -0.8305  0.4709 -0.6467
22951SOL    HW275969  12.503   3.901   1.200  1.3754 -1.5826  0.8851
22952SOL     OW75970   8.683   6.238   5.829  0.1149  0.5373 -0.0898
22952SOL    HW175971   8.728   6.164   5.871 -1.1211 -1.0674 -1.4446
22952SOL    HW275972   8.750   6.280   5.776  0.8490  0.4063  0.7080
22953SOL     OW75973   9.190   7.179   1.284 -0.5900 -0.2068  0.1784
22953SOL    HW175974   9.254   7.159   1.353 -1.4180 -1.4916  0.6015
22953SOL    HW275975   9.118   7.221   1.330 -1.2631 -1.3083  0.1705
22954SOL     OW75976   8.270   9.076   3.940  0.4290  0.5051 -0.0434
22954SOL    HW175977   8.245   9.168   3.926 -2.6078  0.0421  1.4783
22954SOL    HW275978   8.267   9.066   4.035  3.3716 -0.5825  0.0124
22955SOL     OW75979   2.087  10.081   6.819  0.2846  0.2685 -0.5424
22955SOL    HW175980   2.100  10.023   6.743  0.6055  0.6440 -0.7756
22955SOL    HW275981   2.064  10.165   6.781 -1.1182  0.0697 -0.1820
22956SOL     OW75982   8.899  11.401   2.611  0.8628 -0.0639  0.5336
22956SOL    HW175983   8.931  11.312   2.598  2.6417  0.6027 -0.0171
22956SOL    HW275984   8.972  11.457   2.582 -0.8356  1.5902 -0.8009
22957SOL     OW75985   1.482  10.483   1.381 -0.4592  0.5282  0.3382
22957SOL    HW175986   1.545  10.528   1.324 -0.6282 -0.6951 -0.8778
22957SOL    HW275987   1.406  10.468   1.325 -0.7038 -0.5450  0.9237
22958SOL     OW75988   8.221   8.260   7.092 -0.5836 -0.6811 -0.0253
22958SOL    HW175989   8.281   8.199   7.135 -0.5541 -1.8631 -1.6870
22958SOL    HW275990   8.186   8.313   7.164 -0.7405 -2.7517  1.4969
22959SOL     OW75991   1.598   3.280   4.556 -0.3933 -0.7656  0.3846
22959SOL    HW175992   1.572   3.203   4.606 -1.0937 -0.5889  0.2958
22959SOL    HW275993   1.686   3.300   4.588 -0.2035 -1.5999  0.4054
22960SOL     OW75994   0.492   5.791   9.268 -0.3574  0.1986  0.2845
22960SOL    HW175995   0.580   5.825   9.253  0.0969 -1.6949 -1.9147
22960SOL    HW275996   0.445   5.809   9.187 -1.6040 -0.0010  0.9326
22961SOL     OW75997   8.389   4.470   5.793  0.3675 -0.2160 -0.2226
22961SOL    HW175998   8.345   4.390   5.821 -0.4161  0.4969  0.6224
22961SOL    HW275999   8.331   4.508   5.727  0.7288 -0.3132 -0.6079
22962SOL     OW76000   5.376  12.353   6.684  0.0153  0.4776  0.1882
22962SOL    HW176001   5.325  12.425   6.722  0.9027  0.9575  0.4870
22962SOL    HW276002   5.456  12.349   6.736  1.2473  1.0989 -1.5344
22963SOL     OW76003  10.780   9.130   7.680  0.2293 -0.2355  0.1801
22963SOL    HW176004  10.736   9.057   7.723  1.2969 -0.4976  0.8760
22963SOL    HW276005  10.860   9.143   7.731  0.2878  1.1186 -0.2182
22964SOL     OW76006   9.142   6.277  10.664  0.4020  0.0490 -0.3344
22964SOL    HW176007   9.093   6.338  10.609 -0.5602 -0.3180  0.1021
22964SOL    HW276008   9.231   6.313  10.666  0.3334  0.3408 -1.7135
22965SOL     OW76009   4.902   9.445   7.350  0.2512  0.4636  0.1226
22965SOL    HW176010   4.987   9.428   7.310 -0.4846  0.0976 -1.3538
22965SOL    HW276011   4.881   9.364   7.398  1.1191  0.8925  1.2766
22966SOL     OW76012   8.859   9.918   9.169  0.1105  0.4527  0.3385
22966SOL    HW176013   8.849  10.011   9.148 -0.0053 -0.1206 -2.5921
22966SOL    HW276014   8.926   9.886   9.108 -0.0892 -1.4475  1.0388
22967SOL     OW76015   5.823  10.432   2.607  0.0957 -0.2564  0.5530
22967SOL    HW176016   5.834  10.432   2.702 -0.2290  0.0158  0.5906
22967SOL    HW276017   5.737  10.470   2.592  0.7496  1.0953  0.0689
22968SOL     OW76018   6.027  11.424   3.584  0.0617 -0.5437  0.1438
22968SOL    HW176019   6.050  11.401   3.674 -0.1176 -2.9673 -0.3669
22968SOL    HW276020   5.932  11.427   3.583  0.0704 -0.2291  0.0898
22969SOL     OW76021   5.877   8.107   9.089 -0.0987 -0.2295  0.5699
22969SOL    HW176022   5.842   8.191   9.060  0.3826 -0.5917 -1.2625
22969SOL    HW276023   5.840   8.043   9.028  3.1758 -0.6968 -1.2008
22970SOL     OW76024   9.118   7.808  12.141  0.4476 -0.4288  0.1998
22970SOL    HW176025   9.025   7.795  12.123  0.1479 -0.2323  1.4805
22970SOL    HW276026   9.160   7.803  12.056 -0.8874  0.7542 -0.5779
22971SOL     OW76027   5.806   0.414   4.700 -0.4845  0.1190 -0.6140
22971SOL    HW176028   5.861   0.353   4.749  0.1926  0.2445 -1.2044
22971SOL    HW276029   5.850   0.424   4.616 -0.0961  2.0848 -0.2481
22972SOL     OW76030   7.893   4.322  11.058 -0.8043  0.2417  0.4031
22972SOL    HW176031   7.875   4.349  11.148  0.0115 -2.0415  1.3410
22972SOL    HW276032   7.812   4.281  11.029 -0.8132  0.2558  0.4089
22973SOL     OW76033   2.080  10.596  10.299 -0.5799 -0.0892 -0.3240
22973SOL    HW176034   2.150  10.532  10.286  0.9373  1.6315 -1.2560
22973SOL    HW276035   2.061  10.592  10.393  0.2169 -1.1646 -0.1885
22974SOL     OW76036  10.592   0.296   7.525 -0.3051  0.0559  0.7930
22974SOL    HW176037  10.580   0.283   7.619 -0.0604 -2.9628  0.4910
22974SOL    HW276038  10.526   0.241   7.484  2.8194 -2.8928 -0.7645
22975SOL     OW76039   4.083   3.618   9.403  0.6996 -0.0409 -0.1004
22975SOL    HW176040   4.045   3.703   9.381  0.1579 -0.1098  0.5423
22975SOL    HW276041   4.008   3.558   9.402  1.0731 -0.5048 -0.5124
22976SOL     OW76042   2.140   4.921  12.697  0.2938 -0.1916 -0.0237
22976SOL    HW176043   2.046   4.907  12.693 -0.0654  2.0753 -0.9753
22976SOL    HW276044   2.163   4.960  12.613  1.3627  2.7606  1.4628
22977SOL     OW76045  11.506   3.694   1.789 -1.2490  0.9367  0.5024
22977SOL    HW176046  11.473   3.654   1.709  3.1244  1.2062 -1.6938
22977SOL    HW276047  11.525   3.621   1.847 -1.3484  0.4797 -0.0364
22978SOL     OW76048   8.897  11.879   4.349 -0.3974 -0.1511 -0.2185
22978SOL    HW176049   8.944  11.951   4.392 -0.3970 -0.4840  0.3483
22978SOL    HW276050   8.966  11.821   4.316 -0.3521 -1.4127  1.9075
22979SOL     OW76051  12.153   9.075   9.887 -0.0402 -0.3258  0.0773
22979SOL    HW176052  12.210   9.152   9.882  2.2745 -1.8972  0.6514
22979SOL    HW276053  12.083   9.101   9.948  2.1065  0.5364  2.3560
22980SOL     OW76054   7.001   9.050   0.205  0.3580  0.1455  0.4605
22980SOL    HW176055   6.960   8.975   0.162  1.1066 -0.8085  1.3582
22980SOL    HW276056   6.928   9.111   0.221 -0.0427  0.2082 -1.4467
22981SOL     OW76057  10.531   8.715   3.566  0.6503  0.3196 -0.3943
22981SOL    HW176058  10.625   8.701   3.576  0.4008  0.0044  2.2765
22981SOL    HW276059  10.491   8.630   3.583 -0.1934  0.8857  0.5867
22982SOL     OW76060   3.626   0.754   3.194 -0.2587 -0.1974  0.0254
22982SOL    HW176061   3.540   0.729   3.228  0.4525 -1.1162  1.2025
22982SOL    HW276062   3.620   0.736   3.100 -1.7489  0.9315 -0.1380
22983SOL     OW76063   3.932  10.946   0.417  0.0589 -0.6394 -0.4484
22983SOL    HW176064   4.012  10.894   0.418  0.7138  0.2746  2.4900
22983SOL    HW276065   3.862  10.882   0.433  0.7218 -0.8965  1.7736
22984SOL     OW76066   1.498   3.506   2.226 -0.3431 -0.2518  0.5517
22984SOL    HW176067   1.534   3.487   2.140 -1.1338 -2.0754  0.5873
22984SOL    HW276068   1.569   3.551   2.272 -0.1318  1.3328 -1.2266
22985SOL     OW76069   7.544  11.183   9.237  0.0076 -0.5971 -0.5250
22985SOL    HW176070   7.542  11.193   9.142  0.0762  1.8596 -0.3136
22985SOL    HW276071   7.477  11.242   9.270  3.4649  2.8819  1.1260
22986SOL     OW76072   3.370   3.789   9.172 -0.1698 -0.1825  0.8879
22986SOL    HW176073   3.286   3.744   9.168 -0.2046 -0.0151 -0.9665
22986SOL    HW276074   3.436   3.720   9.166 -0.2231 -0.0960 -1.6308
22987SOL     OW76075   6.974   4.766   0.238  0.5252 -0.0913 -0.3005
22987SOL    HW176076   6.940   4.794   0.322 -0.0778  3.1047 -1.4778
22987SOL    HW276077   7.026   4.688   0.258  1.1208  1.0133  3.1242
22988SOL     OW76078   3.139   7.678   7.956 -0.1406 -0.0498 -0.0604
22988SOL    HW176079   3.046   7.674   7.930 -0.2426  0.9050  0.1259
22988SOL    HW276080   3.141   7.638   8.042 -0.2502 -0.7747 -0.3876
22989SOL     OW76081  10.014  10.346   6.831  0.7191  0.5452  0.0672
22989SOL    HW176082  10.006  10.440   6.842 -4.7667  0.2056  2.4118
22989SOL    HW276083  10.027  10.312   6.919 -0.3895 -0.9423 -0.3009
22990SOL     OW76084  11.497   0.238   7.793  0.0531 -0.4771  0.1102
22990SOL    HW176085  11.482   0.298   7.866  0.2554 -0.8650  0.4772
22990SOL    HW276086  11.551   0.287   7.732  2.0359 -0.9711  1.3783
22991SOL     OW76087   8.705   1.892   9.093 -0.8363 -0.1992  0.2947
22991SOL    HW176088   8.752   1.975   9.094 -1.3146  0.0846 -0.1635
22991SOL    HW276089   8.645   1.897   9.167 -0.9567 -0.0793  0.1896
22992SOL     OW76090   1.402   8.634   4.003 -0.7019  0.0714  0.2618
22992SOL    HW176091   1.484   8.673   3.974 -0.8308  0.1738  0.0354
22992SOL    HW276092   1.405   8.544   3.972 -0.7035  0.0928  0.2014
22993SOL     OW76093   6.550  11.266   7.149 -0.7790  0.0124 -0.3656
22993SOL    HW176094   6.493  11.235   7.079 -0.4551 -0.9936 -0.1937
22993SOL    HW276095   6.595  11.188   7.181  0.7513  0.7732 -0.5401
22994SOL     OW76096   8.925   1.500   9.694  0.2236  0.0183  0.0682
22994SOL    HW176097   8.932   1.528   9.785 -0.9847  1.4901 -0.2599
22994SOL    HW276098   8.963   1.572   9.643 -1.9123  0.6642 -0.7342
22995SOL     OW76099   7.408   7.384   0.716 -0.3194  0.5787 -0.1193
22995SOL    HW176100   7.487   7.438   0.723 -0.5160  1.2744 -2.5260
22995SOL    HW276101   7.419   7.317   0.784  2.9334 -0.0709 -1.1166
22996SOL     OW76102   1.273   2.868   5.313  0.3728  0.1326 -0.0239
22996SOL    HW176103   1.296   2.883   5.221  1.3690 -1.4262 -0.0612
22996SOL    HW276104   1.232   2.781   5.313  0.8398 -0.1005  1.0619
22997SOL     OW76105   5.929  11.018  12.776  0.1038  0.4486 -0.1809
22997SOL    HW176106   5.898  11.068  12.851 -1.8930  0.1892 -0.7596
22997SOL    HW276107   5.953  11.085  12.711 -0.8823  0.6854 -0.3197
22998SOL     OW76108   9.011   5.635   4.872 -0.6014 -0.4087 -0.5310
22998SOL    HW176109   9.059   5.648   4.954 -1.4699 -1.3517  0.1508
22998SOL    HW276110   8.960   5.555   4.886  0.9364 -1.9007 -2.8026
22999SOL     OW76111   3.954   6.996  11.273 -0.8097  0.0147 -0.0580
22999SOL    HW176112   3.938   6.945  11.194  0.5587 -0.5588  0.0072
22999SOL    HW276113   3.871   7.040  11.290 -0.9475  0.7888 -2.2674
23000SOL     OW76114  12.431  10.659   4.078  0.2004 -0.2657 -0.4182
23000SOL    HW176115  12.496  10.593   4.104 -1.1811 -2.3367 -1.9278
23000SOL    HW276116  12.407  10.702   4.160  1.5021 -1.2918  0.5556
23001SOL     OW76117   1.826   9.552   1.106 -0.2467 -0.1880  0.0052
23001SOL    HW176118   1.830   9.490   1.178 -4.8105  0.0427  0.7302
23001SOL    HW276119   1.793   9.633   1.145  1.2092  1.3077 -1.6907
23002SOL     OW76120  12.419  10.181   6.211 -0.3966 -0.5774 -0.0981
23002SOL    HW176121  12.505  10.148   6.183  0.3130  0.8967  0.2401
23002SOL    HW276122  12.356  10.123   6.169  0.7549 -1.2436 -0.9521
23003SOL     OW76123   6.514   6.605   3.381 -0.4969 -0.2461  0.2215
23003SOL    HW176124   6.604   6.593   3.409 -0.0785  0.0474 -0.9547
23003SOL    HW276125   6.463   6.544   3.435  0.6361 -1.8410 -0.4780
23004SOL     OW76126   9.786   3.136   1.902  0.0800 -0.7110 -0.3886
23004SOL    HW176127   9.756   3.209   1.956  0.7355 -1.0640  0.4752
23004SOL    HW276128   9.881   3.136   1.912  0.2096 -0.8291 -1.4954
23005SOL     OW76129   1.583   8.932   0.581  0.5615  0.0025  0.0364
23005SOL    HW176130   1.614   9.013   0.541 -0.3655 -0.5562 -1.9233
23005SOL    HW276131   1.541   8.960   0.663  2.1265  1.2273  0.4608
23006SOL     OW76132   3.164   7.686   0.122  0.0912 -0.2777  0.1367
23006SOL    HW176133   3.207   7.746   0.062 -0.8836  0.3062  0.0082
23006SOL    HW276134   3.230   7.667   0.188  0.6195  0.4170 -0.1796
23007SOL     OW76135   8.825  11.283   6.607 -0.4517 -0.2603  0.2151
23007SOL    HW176136   8.792  11.252   6.691 -2.9200  1.6435  0.0489
23007SOL    HW276137   8.753  11.268   6.546 -0.3586  2.2455 -0.6206
23008SOL     OW76138  11.903   7.674   5.305  1.1020  0.5551  0.2623
23008SOL    HW176139  11.972   7.719   5.257  0.8736 -0.1722 -0.7805
23008SOL    HW276140  11.945   7.593   5.336  0.6584 -0.0258 -0.6195
23009SOL     OW76141   7.219  10.695   9.804  0.3250 -0.3773  0.0084
23009SOL    HW176142   7.221  10.647   9.887 -1.1031 -0.0523  0.2625
23009SOL    HW276143   7.304  10.739   9.800  0.3210 -0.1751  1.4431
23010SOL     OW76144  11.030  12.240   7.845 -0.3327  0.4768 -0.3436
23010SOL    HW176145  11.078  12.178   7.901 -1.4333 -0.5110 -0.4597
23010SOL    HW276146  10.996  12.306   7.906 -1.3522 -0.4781  0.1653
23011SOL     OW76147   4.553   5.394   8.997 -0.1246 -0.5417  0.0482
23011SOL    HW176148   4.608   5.402   9.075  0.3794  2.0703 -0.4946
23011SOL    HW276149   4.475   5.347   9.027  1.3621 -2.2952  1.3654
23012SOL     OW76150   1.151   8.328   0.296 -0.1694  0.6410 -0.2063
23012SOL    HW176151   1.071   8.373   0.270  0.1559  1.0391 -0.5218
23012SOL    HW276152   1.165   8.355   0.387 -0.0844  1.0216 -0.3304
23013SOL     OW76153   8.031   1.478   0.843  0.5204  0.1103 -0.1093
23013SOL    HW176154   7.984   1.407   0.888  1.2601  1.4342  3.0628
23013SOL    HW276155   8.121   1.470   0.874  0.8968  1.6257 -0.7346
23014SOL     OW76156   0.736   9.950   4.563 -0.1967 -0.1020 -0.0661
23014SOL    HW176157   0.802   9.929   4.628 -1.0225 -2.2922  0.1271
23014SOL    HW276158   0.658   9.972   4.614 -0.1275  0.7505 -0.3120
23015SOL     OW76159  11.109   1.264   7.211  0.4745 -0.1357  0.1474
23015SOL    HW176160  11.130   1.243   7.302 -0.2127 -1.5914  0.0087
23015SOL    HW276161  11.173   1.214   7.160 -2.0137 -3.2761 -0.2303
23016SOL     OW76162   1.558   6.415   1.506 -0.0430 -0.0995 -0.3376
23016SOL    HW176163   1.596   6.389   1.589 -0.8559 -0.9844 -0.2142
23016SOL    HW276164   1.632   6.428   1.447  0.4773 -0.8969  0.1343
23017SOL     OW76165   9.204   8.178   9.108 -0.2198 -0.4341  0.2787
23017SOL    HW176166   9.209   8.271   9.084  0.4150 -0.1469  1.4258
23017SOL    HW276167   9.251   8.133   9.038 -0.8431  0.0669 -0.4781
23018SOL     OW76168   4.189  12.533  11.705 -0.0522  0.1487 -0.1722
23018SOL    HW176169   4.109  12.540  11.758  1.0732 -0.5011  1.6973
23018SOL    HW276170   4.257  12.573  11.758  1.2953 -1.2690 -0.7462
23019SOL     OW76171   3.753  10.348   5.609 -0.1900 -0.1172  0.0692
23019SOL    HW176172   3.738  10.443   5.613  0.5712 -0.0346  1.7115
23019SOL    HW276173   3.758  10.328   5.516 -1.4730  1.2699 -0.3371
23020SOL     OW76174   3.217   7.221   4.898 -0.2172  0.3317 -0.4045
23020SOL    HW176175   3.243   7.133   4.925  0.0827  0.2190 -1.0655
23020SOL    HW276176   3.213   7.217   4.803  1.0969  1.3948 -0.5249
23021SOL     OW76177   7.542   9.376   7.588 -0.5951  0.5741  0.2098
23021SOL    HW176178   7.465   9.430   7.607 -0.8051  0.0356  0.9247
23021SOL    HW276179   7.607   9.404   7.653 -0.2469  0.8872 -0.2644
23022SOL     OW76180   7.121  12.257   9.957  0.1013  0.5546 -0.4992
23022SOL    HW176181   7.082  12.344   9.963 -0.6238  0.3235 -1.5026
23022SOL    HW276182   7.172  12.248  10.037 -0.5488  1.5428  0.0554
23023SOL     OW76183   7.770   1.604   7.974 -0.0615 -0.5586  0.1220
23023SOL    HW176184   7.775   1.512   8.003 -0.9314 -0.1825  1.5540
23023SOL    HW276185   7.798   1.654   8.051  1.2830  0.3746 -0.9260
23024SOL     OW76186  10.095   9.155   3.786 -0.2211 -0.0528 -0.1757
23024SOL    HW176187  10.059   9.104   3.713 -0.2110 -0.9542  0.4276
23024SOL    HW276188  10.177   9.191   3.752 -0.8326  0.5700 -0.9999
23025SOL     OW76189   9.047   4.788   0.738 -0.0706  0.6146 -0.1101
23025SOL    HW176190   9.065   4.869   0.787  0.8446  0.3976 -0.0760
23025SOL    HW276191   8.968   4.809   0.687 -1.8687  0.4323  2.3890
23026SOL     OW76192  12.264   2.295   4.399  0.0921 -0.3701 -0.1856
23026SOL    HW176193  12.351   2.265   4.426 -0.4574 -1.9432 -0.0811
23026SOL    HW276194  12.205   2.261   4.466 -0.6558  0.4013 -0.4346
23027SOL     OW76195   0.002  12.386  10.219 -0.5007 -0.5838 -0.7993
23027SOL    HW176196   0.076  12.444  10.240 -1.8816  1.1867 -0.5665
23027SOL    HW276197   0.040  12.298  10.218  0.8871 -0.2279  3.2569
23028SOL     OW76198   6.844   5.141   4.285 -0.8941  0.0094 -0.1301
23028SOL    HW176199   6.819   5.225   4.246  1.0090  0.5843 -0.1863
23028SOL    HW276200   6.852   5.160   4.379 -0.5753 -0.1478 -0.1264
23029SOL     OW76201   9.113   3.770   8.803  0.2071  0.0805 -0.0464
23029SOL    HW176202   9.063   3.773   8.884  0.4451  1.4812  0.0766
23029SOL    HW276203   9.187   3.711   8.822 -0.6709 -0.9874  0.1659
23030SOL     OW76204   8.979  10.192   2.588 -0.5183  0.0279  0.4622
23030SOL    HW176205   9.051  10.232   2.636  1.2054 -1.7857 -0.4622
23030SOL    HW276206   8.901  10.237   2.620  0.8703  1.1713  2.4734
23031SOL     OW76207   3.799   5.537   5.786  0.0860  0.2359  0.4364
23031SOL    HW176208   3.723   5.550   5.842  0.7495 -0.4326  1.5348
23031SOL    HW276209   3.779   5.585   5.706 -1.8605 -0.6506  0.3507
23032SOL     OW76210   1.201   8.642  10.455  0.0825  0.4882  0.2679
23032SOL    HW176211   1.209   8.736  10.467 -0.0017  0.3568  1.4927
23032SOL    HW276212   1.114   8.621  10.491 -0.5884  0.1651 -1.4749
23033SOL     OW76213   8.215   2.984   0.509 -0.0436 -0.5384 -0.1843
23033SOL    HW176214   8.176   2.899   0.526  1.3061 -1.0021  0.7852
23033SOL    HW276215   8.275   2.970   0.435  1.7881 -1.0028  1.3039
23034SOL     OW76216   2.096   7.307   0.435 -0.0933 -0.2695  0.5638
23034SOL    HW176217   2.021   7.326   0.492 -0.8808 -0.4559 -0.3837
23034SOL    HW276218   2.154   7.253   0.488 -1.5671 -1.8079  0.6729
23035SOL     OW76219   4.278   6.104   5.511  0.0310  0.0072 -0.1929
23035SOL    HW176220   4.262   6.177   5.451  0.4148 -0.2133 -0.5687
23035SOL    HW276221   4.363   6.123   5.549  0.5096 -0.6680 -0.9181
23036SOL     OW76222   6.314   0.914   2.525 -0.1724 -0.2436 -0.1804
23036SOL    HW176223   6.359   0.986   2.568 -0.3118  0.6801 -1.4821
23036SOL    HW276224   6.253   0.958   2.464 -0.7465 -1.4614 -0.5175
23037SOL     OW76225   6.035  12.534   9.680  0.0331 -0.6140  0.0305
23037SOL    HW176226   6.028  12.452   9.631 -1.1943 -0.1770 -0.5493
23037SOL    HW276227   6.129  12.549   9.688  0.2657 -1.7872 -0.3402
23038SOL     OW76228   3.130  10.429   1.043  0.2255 -0.4839 -0.3319
23038SOL    HW176229   3.167  10.512   1.015  1.7894 -1.5529 -1.5761
23038SOL    HW276230   3.180  10.362   0.996 -0.7758 -2.1602  0.8501
23039SOL     OW76231  12.285   4.310   6.571  0.3662  0.0560  0.2165
23039SOL    HW176232  12.215   4.372   6.585 -2.8143 -3.0866 -0.3165
23039SOL    HW276233  12.270   4.275   6.483  2.2797 -1.1239  0.2760
23040SOL     OW76234   7.079   4.873   3.567  0.0792  0.1764  0.1323
23040SOL    HW176235   7.029   4.903   3.644 -0.9976 -0.4421 -0.2969
23040SOL    HW276236   7.145   4.940   3.554  0.1498  0.4034  1.4771
23041SOL     OW76237   2.779   9.630   4.494 -0.8019 -0.1342 -0.1206
23041SOL    HW176238   2.731   9.702   4.453 -1.3393  1.1027  2.4709
23041SOL    HW276239   2.831   9.592   4.423 -0.2368  3.0195 -1.5584
23042SOL     OW76240   6.976   7.860   7.419 -0.0647 -0.2058  0.0375
23042SOL    HW176241   6.903   7.810   7.384 -1.6284  2.2682 -0.5114
23042SOL    HW276242   6.999   7.816   7.501 -1.5782 -1.5356 -0.2145
23043SOL     OW76243  11.987   2.181   5.278  0.0479  0.4988 -0.2268
23043SOL    HW176244  12.011   2.089   5.282 -0.4044  0.3800 -0.1947
23043SOL    HW276245  11.918   2.191   5.344  0.9812  1.1357  0.6959
23044SOL     OW76246   3.331  12.275   1.676  0.4392  0.4765  0.8026
23044SOL    HW176247   3.316  12.356   1.627  1.8513 -0.4697 -1.3160
23044SOL    HW276248   3.335  12.207   1.610 -2.6206 -1.7444  2.6279
23045SOL     OW76249   5.966   2.012   8.283 -0.3304  0.2628  0.0023
23045SOL    HW176250   5.889   1.976   8.239 -0.3023  2.2169 -1.7442
23045SOL    HW276251   5.935   2.093   8.324  0.7852  1.1667 -0.8682
23046SOL     OW76252   8.553   1.598  12.731  0.0265 -0.4071  0.1901
23046SOL    HW176253   8.478   1.538  12.727 -1.3622  1.2873 -1.0964
23046SOL    HW276254   8.522   1.672  12.782  0.7633  0.4024 -0.4982
23047SOL     OW76255  11.377   5.256   9.610  0.2510 -0.5848  0.2042
23047SOL    HW176256  11.438   5.330   9.603  1.5016 -1.6657 -0.9166
23047SOL    HW276257  11.418   5.186   9.559 -2.1321 -1.2572 -0.9383
23048SOL     OW76258   3.754   7.471   4.228 -0.0189 -0.3751 -0.2545
23048SOL    HW176259   3.801   7.412   4.287  0.7120  0.8415  0.4268
23048SOL    HW276260   3.708   7.413   4.168  1.9536 -1.6501 -0.6396
23049SOL     OW76261   6.542   1.409  10.444 -0.2034 -0.1076  0.0408
23049SOL    HW176262   6.458   1.436  10.482 -1.9364 -0.0983 -3.4296
23049SOL    HW276263   6.526   1.320  10.412  1.5005 -0.5180  0.2546
23050SOL     OW76264   9.953   1.962   7.160 -0.4938  0.2987 -0.1491
23050SOL    HW176265   9.928   1.940   7.070 -0.5576 -0.0672 -0.0434
23050SOL    HW276266  10.017   1.896   7.184 -1.7219 -0.6411  0.6669
23051SOL     OW76267   1.372   9.580   5.460  0.2502  0.2737 -0.5377
23051SOL    HW176268   1.297   9.524   5.440  1.5443 -0.4429 -4.0994
23051SOL    HW276269   1.445   9.519   5.470  0.9114  1.1280 -0.0806
23052SOL     OW76270  12.892  11.682   2.621  0.5712 -0.0908 -0.0709
23052SOL    HW176271  12.800  11.688   2.595  0.4376 -1.3733  0.0647
23052SOL    HW276272  12.900  11.596   2.661  2.0351 -0.3429 -0.8520
23053SOL     OW76273  12.337  12.716   5.530  0.3015 -0.3603 -0.2434
23053SOL    HW176274  12.261  12.660   5.513 -0.3679  0.9443 -1.9280
23053SOL    HW276275  12.323  12.751   5.618 -2.3421  1.6611 -1.3435
23054SOL     OW76276   4.262   2.954   5.847  0.1417 -0.5530 -0.0192
23054SOL    HW176277   4.207   2.876   5.841 -1.4544  0.4581  0.8537
23054SOL    HW276278   4.352   2.920   5.843 -0.5131 -2.2849 -1.0457
23055SOL     OW76279   4.492   8.081  12.774 -0.7526  0.4566  0.5332
23055SOL    HW176280   4.531   7.996  12.793 -0.3136  0.3665 -0.7372
23055SOL    HW276281   4.531   8.141  12.838  0.8855  0.2160 -0.2177
23056SOL     OW76282   9.396  11.240   3.829  0.0079  0.6870  0.4988
23056SOL    HW176283   9.486  11.223   3.857 -0.3520 -1.5663  0.5435
23056SOL    HW276284   9.394  11.211   3.738 -0.9191 -0.4413  0.8481
23057SOL     OW76285   5.963   4.494   7.906 -0.1766  0.1828  0.2270
23057SOL    HW176286   5.905   4.571   7.903  0.0550  0.4765  2.0547
23057SOL    HW276287   5.904   4.420   7.896 -0.4140  0.5758 -1.4958
23058SOL     OW76288   8.728   7.601   2.214  0.2578  0.0463  0.2441
23058SOL    HW176289   8.806   7.655   2.220  0.7351  0.1646 -3.8725
23058SOL    HW276290   8.761   7.511   2.216  0.4539  0.0860 -0.8148
23059SOL     OW76291   5.578   6.099   1.944 -0.1009  0.2030 -0.4110
23059SOL    HW176292   5.528   6.018   1.956  0.2592 -0.0506 -0.6204
23059SOL    HW276293   5.576   6.140   2.030  2.3540 -1.5491  0.5804
23060SOL     OW76294   3.681   7.847   6.547  0.1394  0.9499  0.6313
23060SOL    HW176295   3.764   7.895   6.550  0.4618  0.4575 -0.1522
23060SOL    HW276296   3.662   7.837   6.453 -0.5527  0.6130  0.7977
23061SOL     OW76297   1.950  12.786   3.978  0.0133  0.3025  0.0737
23061SOL    HW176298   1.919  12.710   4.029 -0.0780 -1.5308 -2.5199
23061SOL    HW276299   2.030  12.755   3.936 -0.6660  1.1984 -1.9790
23062SOL     OW76300   8.139  12.323   1.931  0.2051 -0.1669  0.2690
23062SOL    HW176301   8.114  12.407   1.891 -0.2675 -1.3596 -2.1635
23062SOL    HW276302   8.172  12.346   2.017 -0.3837  2.4688 -0.1215
23063SOL     OW76303   2.293   3.268   4.665  0.2812 -0.7055 -0.0838
23063SOL    HW176304   2.211   3.249   4.619  1.3075 -2.4614 -1.3159
23063SOL    HW276305   2.284   3.359   4.694 -1.5626 -0.4418 -1.3202
23064SOL     OW76306   4.417   7.112   0.089 -0.3596  0.2918  0.4341
23064SOL    HW176307   4.396   7.096  -0.003  0.1637 -0.8977  0.4966
23064SOL    HW276308   4.512   7.128   0.089  0.1126 -2.0460  0.9818
23065SOL     OW76309   4.756   0.376   3.382 -0.0546 -0.6303 -0.0378
23065SOL    HW176310   4.756   0.430   3.303  1.9766 -0.7805 -0.2018
23065SOL    HW276311   4.759   0.286   3.350  0.4082 -0.7042  0.2038
23066SOL     OW76312  12.193   8.833   1.631  0.1808  0.7367 -0.2188
23066SOL    HW176313  12.268   8.792   1.589  0.1077 -0.6330  0.9000
23066SOL    HW276314  12.134   8.760   1.651 -1.0773  1.6859 -0.3386
23067SOL     OW76315   8.328   7.974  11.583 -0.0027 -0.5664  0.0047
23067SOL    HW176316   8.258   7.923  11.624 -0.8125 -0.2425 -0.9334
23067SOL    HW276317   8.299   7.987  11.493  0.1767  1.5659  0.2019
23068SOL     OW76318   8.487   3.351   0.830 -0.2668 -0.1624 -0.2482
23068SOL    HW176319   8.552   3.409   0.791  0.9919 -1.0652  0.4406
23068SOL    HW276320   8.493   3.270   0.778  0.1791 -0.7458  0.6847
23069SOL     OW76321   5.718   2.251  12.231  0.2404 -0.5553 -0.3686
23069SOL    HW176322   5.714   2.157  12.214 -0.7086 -0.9450  1.6909
23069SOL    HW276323   5.733   2.258  12.326 -0.8485  1.3693 -0.2802
23070SOL     OW76324   4.932   9.431  10.322  0.3995 -0.3970  0.4268
23070SOL    HW176325   4.892   9.480  10.250  0.6776  1.5532  1.5035
23070SOL    HW276326   4.894   9.470  10.401  0.7505 -1.8796  1.3732
23071SOL     OW76327   7.007  12.306   6.594  0.6689 -0.4182  0.1906
23071SOL    HW176328   6.960  12.366   6.653  2.0990  1.7309 -0.7348
23071SOL    HW276329   6.959  12.312   6.511  0.9919 -0.3531  0.0109
23072SOL     OW76330   1.922  12.191   0.577 -0.7900 -0.0623 -0.2529
23072SOL    HW176331   1.880  12.276   0.591 -1.8220 -0.5684 -0.0891
23072SOL    HW276332   1.995  12.208   0.519  0.5809  1.3503  1.7696
23073SOL     OW76333   3.117  11.536   4.561 -0.0277  0.2575 -0.7705
23073SOL    HW176334   3.160  11.620   4.547 -2.6278  1.6357 -1.2244
23073SOL    HW276335   3.186  11.471   4.554  2.0029  2.3202 -0.8643
23074SOL     OW76336   9.013  10.719   6.201  0.0687  0.3643 -1.0218
23074SOL    HW176337   9.039  10.650   6.262  0.4432  1.1552 -0.2619
23074SOL    HW276338   8.920  10.733   6.220  0.6342  2.0531  0.9158
23075SOL     OW76339   3.667   7.270  10.113  0.1250 -0.3888  0.0888
23075SOL    HW176340   3.620   7.319  10.046  0.4146 -0.3498 -0.0857
23075SOL    HW276341   3.759   7.275  10.088  0.0765 -1.8920 -0.5233
23076SOL     OW76342   4.377  11.709   1.528 -0.0376 -1.0461  0.1026
23076SOL    HW176343   4.426  11.692   1.609  0.2899 -0.2781  0.0734
23076SOL    HW276344   4.307  11.769   1.554 -1.3401 -2.5908  0.2574
23077SOL     OW76345  11.308  11.430   5.412 -0.1514 -0.5131 -1.0002
23077SOL    HW176346  11.314  11.525   5.417 -1.6137 -0.4671  1.4171
23077SOL    HW276347  11.393  11.402   5.378  0.1658  1.6378 -2.1284
23078SOL     OW76348   6.738   0.971   7.118 -0.2660  0.2427  0.1116
23078SOL    HW176349   6.680   0.960   7.042  0.1162  2.7706 -0.6679
23078SOL    HW276350   6.812   0.912   7.101 -0.5211  0.2572 -1.1582
23079SOL     OW76351   3.080  11.614   8.090 -0.5231 -0.2610  0.0485
23079SOL    HW176352   3.085  11.519   8.078 -1.1405 -0.5071  1.5340
23079SOL    HW276353   3.171  11.642   8.091 -0.3276 -0.3939 -3.1804
23080SOL     OW76354   7.818   8.457   3.695 -0.2883  0.4504 -0.0926
23080SOL    HW176355   7.857   8.536   3.733  2.0176 -0.3949 -0.4985
23080SOL    HW276356   7.728   8.457   3.726  0.4505  1.7232  2.3318
23081SOL     OW76357   2.245  11.227  11.319  0.0196 -0.0419  0.2748
23081SOL    HW176358   2.310  11.282  11.274  0.2409 -1.2634 -0.9737
23081SOL    HW276359   2.165  11.279  11.319  0.3392  0.4640 -0.4692
23082SOL     OW76360  10.030   5.312   8.681  0.6403 -0.0713  0.2627
23082SOL    HW176361   9.977   5.389   8.657  0.5398 -0.3176 -0.3244
23082SOL    HW276362  10.058   5.276   8.597  0.2190 -1.0072  0.5181
23083SOL     OW76363   2.876   9.901   2.225  0.1348 -0.3160  0.0730
23083SOL    HW176364   2.907   9.952   2.300  0.3344  0.9967 -0.8706
23083SOL    HW276365   2.913   9.814   2.238  0.0999 -0.1267  1.5364
23084SOL     OW76366  11.420   8.497  11.715  0.1882 -0.1732 -0.0287
23084SOL    HW176367  11.406   8.402  11.720 -0.4209 -0.1458 -1.0869
23084SOL    HW276368  11.398   8.520  11.625 -0.8733  1.1712  0.5522
23085SOL     OW76369   0.435  10.715   8.909  0.0250 -0.0975  0.4014
23085SOL    HW176370   0.517  10.720   8.958  1.9131 -1.6025 -2.3652
23085SOL    HW276371   0.380  10.656   8.961  2.0950 -1.9997  0.5881
23086SOL     OW76372   6.899   5.731   7.693 -0.4179  0.2899  0.1721
23086SOL    HW176373   6.818   5.726   7.743  0.0418  0.8501  0.9855
23086SOL    HW276374   6.882   5.797   7.626 -0.6702  0.3338  0.2796
23087SOL     OW76375   6.176  11.294   5.832 -0.1649  0.2798 -0.0691
23087SOL    HW176376   6.215  11.238   5.899  1.3622  0.6719 -0.5918
23087SOL    HW276377   6.156  11.235   5.760 -1.2384 -0.0398  0.4713
23088SOL     OW76378   6.688   8.824   2.460 -0.4284 -0.3028  0.5324
23088SOL    HW176379   6.711   8.806   2.369  0.2251  0.6572  0.5007
23088SOL    HW276380   6.599   8.861   2.455 -0.1165  0.4171  0.2097
23089SOL     OW76381  12.719  10.642  10.889  0.1676  0.5583  0.2846
23089SOL    HW176382  12.801  10.687  10.909  0.0241  1.4417 -0.9598
23089SOL    HW276383  12.709  10.652  10.794 -0.3900 -1.2626  0.1109
23090SOL     OW76384  10.247   6.310  11.804 -0.4054  0.4800  0.3412
23090SOL    HW176385  10.304   6.382  11.831  1.0626 -1.4495  2.7982
23090SOL    HW276386  10.179   6.306  11.872 -0.6061 -0.3010  0.1053
23091SOL     OW76387   0.938   1.107   7.873 -0.8841  0.4502 -0.5569
23091SOL    HW176388   0.875   1.177   7.862 -2.1498 -0.7085 -0.9052
23091SOL    HW276389   0.886   1.031   7.898  0.4417 -0.3974 -0.2583
23092SOL     OW76390   4.197  12.329   6.737 -0.0329 -0.3297  0.0932
23092SOL    HW176391   4.223  12.356   6.649  1.3896 -0.1301  0.5423
23092SOL    HW276392   4.123  12.386   6.758 -0.3279 -0.3122 -0.9196
23093SOL     OW76393   5.039  12.655   6.973  0.5695 -0.2823 -0.3622
23093SOL    HW176394   5.100  12.691   7.038  0.8809 -1.4244  0.0004
23093SOL    HW276395   4.955  12.654   7.018  0.4372  0.5164 -0.5760
23094SOL     OW76396   4.453   4.489   9.734  0.2282  0.7039  0.1888
23094SOL    HW176397   4.441   4.575   9.694 -0.5333 -0.2549 -1.7794
23094SOL    HW276398   4.400   4.430   9.680  0.4467 -0.9489  1.6953
23095SOL     OW76399   9.862   2.398   3.573 -0.2767  0.1459  0.1210
23095SOL    HW176400   9.932   2.461   3.589  1.1906 -1.5147  0.5367
23095SOL    HW276401   9.843   2.361   3.659 -0.5498 -0.5417 -0.2323
23096SOL     OW76402   4.539   6.182   1.621 -0.0172 -0.2798  0.3007
23096SOL    HW176403   4.590   6.118   1.672  0.0733 -1.6710 -1.4408
23096SOL    HW276404   4.605   6.237   1.579 -0.0559  0.0122  0.6181
23097SOL     OW76405   8.594   3.935   1.538  0.3398 -0.3426  0.0818
23097SOL    HW176406   8.654   4.001   1.503 -1.5522  1.1051 -0.6227
23097SOL    HW276407   8.523   3.986   1.578 -1.3917 -1.9303 -0.7957
23098SOL     OW76408   9.412   3.728   3.501  0.0342 -0.2882  0.0876
23098SOL    HW176409   9.474   3.739   3.572 -1.8235  0.0451  1.7584
23098SOL    HW276410   9.334   3.775   3.530 -1.6863 -2.2891 -0.9855
23099SOL     OW76411   7.045   2.118   3.803 -0.2769 -0.1656 -0.2749
23099SOL    HW176412   7.052   2.163   3.719 -0.8876  0.3107 -0.0715
23099SOL    HW276413   6.958   2.139   3.835 -0.2803 -0.8566  0.1903
23100SOL     OW76414   3.367   5.665   5.648  0.4552 -0.2271 -0.0519
23100SOL    HW176415   3.333   5.664   5.558  2.1237 -1.2481 -0.7240
23100SOL    HW276416   3.337   5.583   5.686  0.0592  0.0352  0.2036
23101SOL     OW76417   5.244   1.087   0.473  0.3595  0.0248 -0.0706
23101SOL    HW176418   5.189   1.057   0.546  0.3645  0.6706  0.2075
23101SOL    HW276419   5.277   1.007   0.434  0.6886 -0.3314  0.9029
23102SOL     OW76420  10.290   6.463   4.519  0.3233 -0.0606 -0.3645
23102SOL    HW176421  10.238   6.393   4.558 -1.0169  0.6095 -0.8837
23102SOL    HW276422  10.303   6.436   4.429 -0.3599  0.4295 -0.6178
23103SOL     OW76423   8.666   2.379  10.595 -0.2010 -0.0992  0.1230
23103SOL    HW176424   8.634   2.308  10.540 -0.8455  0.0222  0.3284
23103SOL    HW276425   8.701   2.336  10.673 -0.9206 -0.1784  0.4073
23104SOL     OW76426   9.803   5.113   4.583  0.2842  0.2124  0.5050
23104SOL    HW176427   9.877   5.053   4.589 -0.5087 -0.9869 -0.8754
23104SOL    HW276428   9.801   5.138   4.490 -0.5359  0.8922  0.6986
23105SOL     OW76429   0.020   1.195   2.310 -0.4395  0.7208 -0.2614
23105SOL    HW176430   0.023   1.102   2.332  1.1785  0.8628  0.2935
23105SOL    HW276431   0.076   1.203   2.233  1.9633  1.5890  1.4326
23106SOL     OW76432   6.408   9.384  10.577 -0.6807  0.0315  0.5753
23106SOL    HW176433   6.415   9.479  10.586 -0.8453 -0.0590  1.7116
23106SOL    HW276434   6.319   9.370  10.545 -0.9774  0.2093  1.3082
23107SOL     OW76435  10.934  10.547  12.518 -0.0933  0.2686 -0.8131
23107SOL    HW176436  11.011  10.500  12.485 -0.3070 -1.0610  0.4820
23107SOL    HW276437  10.898  10.592  12.441  0.7234 -0.8679 -1.8845
23108SOL     OW76438   1.790   4.086   3.211  0.0409 -0.1361  0.2392
23108SOL    HW176439   1.768   4.174   3.183 -1.2973 -0.0556  1.4042
23108SOL    HW276440   1.797   4.035   3.130  1.5963  1.1796 -0.4870
23109SOL     OW76441   1.503   6.645  10.765  0.3786  0.0372  0.5642
23109SOL    HW176442   1.476   6.658  10.856 -2.3296 -1.4766  0.0947
23109SOL    HW276443   1.443   6.700  10.715 -0.6566 -1.9240 -0.4546
23110SOL     OW76444   4.885  11.110   5.051  0.7848  0.5407  0.0589
23110SOL    HW176445   4.954  11.171   5.026  1.3444 -0.4040 -0.7817
23110SOL    HW276446   4.821  11.116   4.980  0.2627  0.9990  0.5570
23111SOL     OW76447   8.983   9.090   3.823 -0.0473  0.2278 -0.4811
23111SOL    HW176448   8.965   9.171   3.775  0.4254  2.4845  2.8326
23111SOL    HW276449   8.899   9.065   3.861  0.1765  0.3271  0.0950
23112SOL     OW76450   5.545  11.698   5.854  0.1804 -0.0840 -0.1923
23112SOL    HW176451   5.635  11.702   5.885  0.0067 -2.0058  0.7199
23112SOL    HW276452   5.549  11.734   5.765  1.2711  2.5600  0.8363
23113SOL     OW76453   8.433  10.621   3.372 -0.3848 -0.0101 -0.3376
23113SOL    HW176454   8.430  10.608   3.466  0.5148 -1.0815 -0.4303
23113SOL    HW276455   8.500  10.559   3.341 -1.0015 -0.0309 -1.7310
23114SOL     OW76456  11.456   5.409  12.304  0.0480  0.0741  0.2881
23114SOL    HW176457  11.399   5.422  12.228 -1.9034 -0.3608  1.5967
23114SOL    HW276458  11.544   5.405  12.267 -0.5161  2.6639 -1.6717
23115SOL     OW76459   8.263   9.665   4.486 -0.9416  0.4516 -0.2857
23115SOL    HW176460   8.199   9.602   4.453  1.0004 -2.4919  1.1322
23115SOL    HW276461   8.236   9.681   4.577 -0.8592  0.9089 -0.3401
23116SOL     OW76462  10.384   4.286   7.151  0.3502 -0.4619  0.1568
23116SOL    HW176463  10.447   4.307   7.083 -1.6589 -0.3653 -1.8159
23116SOL    HW276464  10.400   4.194   7.172  0.1980 -0.8686 -1.4220
23117SOL     OW76465   6.738   2.632  11.061 -0.7496 -0.0341 -0.2572
23117SOL    HW176466   6.796   2.588  11.123  1.3379  2.6918 -0.0954
23117SOL    HW276467   6.727   2.569  10.989  0.5631 -1.4703  0.7363
23118SOL     OW76468   1.568   2.481   3.856  0.1791  0.0422 -0.7774
23118SOL    HW176469   1.635   2.472   3.788 -0.1902 -2.4917 -0.9181
23118SOL    HW276470   1.614   2.465   3.938  0.0800  0.1797 -0.6938
23119SOL     OW76471   5.713   3.163  11.546  0.3856  0.3918 -0.2501
23119SOL    HW176472   5.704   3.174  11.640  0.2904  0.3446 -0.2541
23119SOL    HW276473   5.767   3.238  11.518  0.0853  0.6254 -0.2144
23120SOL     OW76474   7.359   6.202  10.863 -0.0121  0.1262 -0.1574
23120SOL    HW176475   7.396   6.121  10.898  0.7146  0.6199  0.2212
23120SOL    HW276476   7.299   6.232  10.931  2.1220  1.6076  1.1802
23121SOL     OW76477   9.068  12.810   2.273  0.1123  0.6289  0.0260
23121SOL    HW176478   9.032  12.897   2.253 -1.7735  0.0011  0.5243
23121SOL    HW276479   9.074  12.808   2.368 -0.9687 -0.1859  0.0927
23122SOL     OW76480   4.886  10.175  11.207  0.6002  0.0885  0.6762
23122SOL    HW176481   4.800  10.161  11.246  0.5477 -0.4224  0.3807
23122SOL    HW276482   4.923  10.249  11.255 -1.0598  2.0231 -0.8590
23123SOL     OW76483   2.964  12.271  12.267 -0.1037 -0.9397 -0.0807
23123SOL    HW176484   3.016  12.351  12.267 -1.5547  0.0378  0.3589
23123SOL    HW276485   2.977  12.234  12.355  0.5612 -1.2066 -0.2818
23124SOL     OW76486   9.217   6.328   9.753  0.1016 -0.4508 -0.2173
23124SOL    HW176487   9.122   6.315   9.762  0.3259 -2.4582 -0.3391
23124SOL    HW276488   9.234   6.319   9.659  0.4962 -0.7160 -0.1219
23125SOL     OW76489   2.101   0.750   6.006 -0.0800  0.3556  0.4121
23125SOL    HW176490   2.045   0.677   6.033 -0.2453  0.5323  0.5474
23125SOL    HW276491   2.050   0.829   6.025  0.5628  0.5561  1.3756
23126SOL     OW76492   4.983  11.817   8.733 -0.8187  0.0226 -0.0078
23126SOL    HW176493   5.024  11.848   8.814 -0.7992 -1.3841  0.5425
23126SOL    HW276494   4.921  11.751   8.762 -0.4666 -0.8412 -1.1812
23127SOL     OW76495   1.280  12.597   7.264  0.8848 -0.2966 -0.0352
23127SOL    HW176496   1.186  12.583   7.275  0.2326  2.2150 -1.7125
23127SOL    HW276497   1.309  12.522   7.212 -1.2468  1.1658 -3.7111
23128SOL     OW76498   1.164  10.373   9.646 -0.3512  0.2557 -0.0855
23128SOL    HW176499   1.254  10.376   9.613 -0.0138 -0.2479  0.7361
23128SOL    HW276500   1.109  10.387   9.569  0.3108 -3.3813 -1.4119
23129SOL     OW76501  12.888  11.935   6.929 -0.1489  0.2056  0.0640
23129SOL    HW176502  12.899  11.840   6.929 -0.5978  0.1504 -0.0034
23129SOL    HW276503  12.794  11.948   6.940 -0.0793  0.6446  0.1542
23130SOL     OW76504   4.716   9.071   3.921  0.4765 -0.0032  0.3845
23130SOL    HW176505   4.802   9.028   3.917  0.6688  0.2580  1.4689
23130SOL    HW276506   4.663   9.013   3.975 -0.1940 -0.4063 -0.6674
23131SOL     OW76507   9.856  10.258   2.007  0.7949  0.5435 -0.4337
23131SOL    HW176508   9.791  10.188   2.000  1.3543 -0.1268  0.7569
23131SOL    HW276509   9.806  10.336   2.031  0.2568  0.3952 -1.0485
23132SOL     OW76510   2.757  12.906   0.292  0.1390 -0.0864  0.2721
23132SOL    HW176511   2.664  12.892   0.309 -0.0283  2.1978  1.5059
23132SOL    HW276512   2.759  12.958   0.211  0.2380  1.0987  1.0166
23133SOL     OW76513   8.114   6.007  11.393 -0.1935 -0.4128 -0.5804
23133SOL    HW176514   8.175   5.970  11.329  2.3298  2.7249 -0.2554
23133SOL    HW276515   8.037   6.032  11.341  0.2998 -1.1497 -1.7023
23134SOL     OW76516   3.352   6.600   1.124  0.3891 -0.6167  0.4141
23134SOL    HW176517   3.448   6.595   1.123  0.4663  0.2284 -1.9223
23134SOL    HW276518   3.323   6.510   1.111  1.0050 -0.4248 -3.0944
23135SOL     OW76519   3.441   3.097   7.443  0.2774  0.1948 -0.0227
23135SOL    HW176520   3.412   3.188   7.443  1.1404  0.5937 -3.2448
23135SOL    HW276521   3.372   3.050   7.396  0.3920 -0.6264  0.6090
23136SOL     OW76522   0.594  11.553   7.471 -0.3098  0.3922  0.4483
23136SOL    HW176523   0.594  11.491   7.544 -1.6681  0.2161  0.3163
23136SOL    HW276524   0.513  11.534   7.423  0.4492  0.6489 -0.9926
23137SOL     OW76525   5.388   8.425   0.913 -0.1057 -0.1977  0.0885
23137SOL    HW176526   5.295   8.420   0.938  0.4467  0.3749  2.5146
23137SOL    HW276527   5.423   8.495   0.968  1.6748 -0.0911 -1.1420
23138SOL     OW76528   1.147   0.035  11.853 -0.2243 -0.4062  0.0771
23138SOL    HW176529   1.215  -0.013  11.900 -0.2835 -0.1439  0.4330
23138SOL    HW276530   1.080  -0.030  11.835 -0.0183 -0.5978 -0.0041
23139SOL     OW76531   8.231   9.186  10.452  0.1010  0.5082  0.3109
23139SOL    HW176532   8.193   9.268  10.421 -1.0169 -0.5594 -1.2696
23139SOL    HW276533   8.158   9.138  10.491  0.2965 -0.5566 -0.5845
23140SOL     OW76534   9.181   2.433   0.873  0.0878  0.4071 -0.4821
23140SOL    HW176535   9.193   2.496   0.944  1.1272  0.9537 -1.1171
23140SOL    HW276536   9.212   2.350   0.908 -2.4080 -0.1087  0.7840
23141SOL     OW76537   3.384   9.923   4.347  0.1651 -0.3290 -0.2509
23141SOL    HW176538   3.414   9.983   4.416  0.4768 -0.6424 -0.1067
23141SOL    HW276539   3.384   9.837   4.389 -0.8601 -0.3480 -0.2831
23142SOL     OW76540   8.739   3.538  10.016 -0.0421 -0.0204 -0.2504
23142SOL    HW176541   8.649   3.542   9.983 -0.5103  2.1327  1.1033
23142SOL    HW276542   8.748   3.615  10.072  1.4122 -2.1509  2.7664
23143SOL     OW76543   5.398   4.540   0.848  0.4083  0.3734  0.3253
23143SOL    HW176544   5.455   4.482   0.899  0.7060  0.5806  0.2275
23143SOL    HW276545   5.333   4.572   0.911 -0.7988 -1.3714  0.0504
23144SOL     OW76546   5.284   2.125   9.575  0.6189  0.3472 -0.3394
23144SOL    HW176547   5.303   2.078   9.656 -2.0729 -0.7014 -0.2472
23144SOL    HW276548   5.224   2.195   9.601 -2.8315 -1.8476 -1.6865
23145SOL     OW76549   2.537  10.161   5.205  0.1414 -0.7647  0.0458
23145SOL    HW176550   2.489  10.171   5.122  1.2140 -1.4294 -0.6916
23145SOL    HW276551   2.478  10.195   5.272 -0.2167  1.0818 -1.1451
23146SOL     OW76552   1.941   7.984   4.969 -0.1292 -0.3194  0.6050
23146SOL    HW176553   1.891   8.031   5.035 -0.9936 -0.9121  0.3925
23146SOL    HW276554   1.910   8.018   4.886  1.9518  1.4344  0.4746
23147SOL     OW76555   9.892  12.180   5.536 -0.1887  0.6786 -0.2828
23147SOL    HW176556   9.902  12.129   5.456 -0.4074  1.5853 -0.9061
23147SOL    HW276557   9.972  12.232   5.541 -0.3468  0.9101 -0.1235
23148SOL     OW76558   2.234  10.831  11.939 -0.5771  0.7792  0.4910
23148SOL    HW176559   2.214  10.925  11.942  1.9058  1.3567  0.8585
23148SOL    HW276560   2.231  10.803  12.030 -2.2312  0.2512  0.2994
23149SOL     OW76561   7.486   4.558  12.252  0.0438  0.0586 -0.0854
23149SOL    HW176562   7.578   4.534  12.264 -0.3466 -1.4467  0.1212
23149SOL    HW276563   7.479   4.583  12.160  0.4053 -1.0953 -0.4424
23150SOL     OW76564   7.885   5.649   2.110 -0.1127  0.0112  0.1912
23150SOL    HW176565   7.901   5.578   2.172 -0.3953 -1.1922 -1.0846
23150SOL    HW276566   7.961   5.706   2.119  1.6357 -2.0165 -0.8779
23151SOL     OW76567  11.796   1.665   8.328 -0.4762 -0.1311 -0.6348
23151SOL    HW176568  11.856   1.696   8.260  0.4095 -0.1588  0.1170
23151SOL    HW276569  11.712   1.655   8.283  0.3082 -1.1081 -1.9718
23152SOL     OW76570   4.691   6.411   7.981  0.6461 -0.0892 -0.0902
23152SOL    HW176571   4.672   6.408   7.888  1.3393  0.8730 -0.2790
23152SOL    HW276572   4.771   6.464   7.988  0.2995  0.3157  1.0867
23153SOL     OW76573   0.338  11.642   1.159  0.2194  0.1010 -0.2228
23153SOL    HW176574   0.258  11.590   1.166  0.9323 -0.8200  2.5233
23153SOL    HW276575   0.369  11.650   1.249  2.7302  1.2346 -1.0913
23154SOL     OW76576   9.540   9.692  10.098 -0.0626 -0.5861 -0.8503
23154SOL    HW176577   9.566   9.784  10.109 -2.3073 -0.0448  0.6179
23154SOL    HW276578   9.515   9.664  10.186  3.1541 -3.5583 -0.6805
23155SOL     OW76579   2.495  10.661   0.879 -0.1925  0.0947  0.4207
23155SOL    HW176580   2.476  10.640   0.970  1.0696 -1.7323  0.3191
23155SOL    HW276581   2.520  10.753   0.880 -0.5830  0.2075  1.8448
23156SOL     OW76582   9.423   0.129   9.765  0.4958  0.3110 -0.4108
23156SOL    HW176583   9.461   0.182   9.835  1.2498  0.6004 -1.0159
23156SOL    HW276584   9.392   0.194   9.701  0.3134  0.0409 -0.5953
23157SOL     OW76585   7.218   0.052   6.550 -0.2171 -1.1547 -0.3242
23157SOL    HW176586   7.283  -0.004   6.508  1.8261 -0.5085  1.7587
23157SOL    HW276587   7.226   0.033   6.643 -2.4521 -0.3915  0.0911
23158SOL     OW76588  10.917   0.149   0.321 -0.3523  0.1304  0.3521
23158SOL    HW176589  11.007   0.147   0.356 -0.1627 -0.4702 -0.1591
23158SOL    HW276590  10.863   0.167   0.398  0.2857  1.6242  0.4896
23159SOL     OW76591   8.821  10.894   9.346 -0.0165 -0.1388  0.4931
23159SOL    HW176592   8.746  10.950   9.367 -2.5415 -2.9129 -0.3200
23159SOL    HW276593   8.839  10.848   9.428  1.1222  0.7831  0.7854
23160SOL     OW76594  12.948   4.888   6.481  0.6393  0.3322 -0.7815
23160SOL    HW176595  12.866   4.936   6.492  0.5395  0.4089 -1.8347
23160SOL    HW276596  12.924   4.805   6.442  0.7919 -0.7272  1.2105
23161SOL     OW76597   7.964   3.219  12.058 -0.7453 -0.2614 -0.3413
23161SOL    HW176598   7.927   3.152  12.116  0.1479 -0.7490 -0.3140
23161SOL    HW276599   8.003   3.169  11.986 -0.2680  0.2415 -0.4371
23162SOL     OW76600   1.415  12.305   5.013 -0.0607  0.4750 -0.0529
23162SOL    HW176601   1.332  12.268   5.043 -1.0729  1.9059 -0.9689
23162SOL    HW276602   1.405  12.313   4.918  1.2835  0.3268 -0.2254
23163SOL     OW76603  10.847   8.788   3.680  0.4989 -0.2969  0.4028
23163SOL    HW176604  10.909   8.718   3.701  0.8660  0.3265  1.4810
23163SOL    HW276605  10.900   8.867   3.679  0.2316 -0.1058 -1.5936
23164SOL     OW76606   8.867  12.346   9.434  0.1287  0.2286 -0.4709
23164SOL    HW176607   8.889  12.319   9.345 -0.3468 -1.6327 -0.0587
23164SOL    HW276608   8.951  12.371   9.473  0.2882  1.4581 -1.5306
23165SOL     OW76609   7.587   3.907  12.944  0.3402 -0.1614 -0.3062
23165SOL    HW176610   7.655   3.970  12.966 -1.4494  1.0156  2.4492
23165SOL    HW276611   7.523   3.957  12.894  0.0117 -0.3839 -0.1189
23166SOL     OW76612   2.054  11.299   2.543 -0.3815 -0.2883 -0.1221
23166SOL    HW176613   2.001  11.239   2.595 -3.0736  1.7900 -0.2523
23166SOL    HW276614   2.054  11.261   2.455 -0.8725 -0.7720  0.0831
23167SOL     OW76615   1.496  12.148   8.028  0.0271 -0.1508  0.3632
23167SOL    HW176616   1.526  12.097   7.953  0.8780  1.1896 -0.2586
23167SOL    HW276617   1.562  12.217   8.038 -0.6539  0.3479  1.6625
23168SOL     OW76618  12.200   9.035   6.318 -0.2497  0.0098 -0.1379
23168SOL    HW176619  12.152   8.985   6.252  0.5548 -0.0567 -0.6875
23168SOL    HW276620  12.284   8.991   6.325 -0.4693 -0.2414  1.2580
23169SOL     OW76621   9.077  12.715   4.379 -0.1623 -0.5758 -0.4108
23169SOL    HW176622   9.014  12.659   4.425 -0.8824  0.7112  0.2289
23169SOL    HW276623   9.161  12.671   4.390 -0.8246 -1.9821 -0.6962
23170SOL     OW76624   6.979  10.570   9.231  0.0390 -0.2412 -0.3136
23170SOL    HW176625   7.070  10.543   9.226 -0.3860 -1.7981 -0.2133
23170SOL    HW276626   6.930  10.494   9.199 -1.1695  0.9715 -1.4513
23171SOL     OW76627   7.391   9.601   5.911 -0.1295 -0.2017  0.3870
23171SOL    HW176628   7.461   9.591   5.847  0.5265  0.1838  1.0260
23171SOL    HW276629   7.407   9.686   5.951  0.1223 -0.8878  1.8080
23172SOL     OW76630   6.473   4.481  10.951  0.1753  0.0157 -0.0549
23172SOL    HW176631   6.455   4.393  10.982 -0.5038  0.4463  0.8022
23172SOL    HW276632   6.564   4.498  10.976  0.2132 -0.3230  0.0338
23173SOL     OW76633   7.545   3.161   1.364 -0.9238  0.0569 -0.5973
23173SOL    HW176634   7.606   3.107   1.315  0.1872  1.8621 -1.2972
23173SOL    HW276635   7.581   3.165   1.452 -2.4008 -2.3802  0.2220
23174SOL     OW76636   3.351  11.697   5.882  0.3820 -0.0196  0.2839
23174SOL    HW176637   3.358  11.684   5.787  1.9846  4.9040 -0.5280
23174SOL    HW276638   3.436  11.671   5.916 -0.1316 -1.6125  0.4368
23175SOL     OW76639  12.435  10.470   2.643 -0.4201  0.0516  0.5604
23175SOL    HW176640  12.433  10.532   2.570  1.3581  1.0126  1.2624
23175SOL    HW276641  12.343  10.456   2.665 -1.1743 -1.6181 -2.9052
23176SOL     OW76642   6.176  10.290   6.844 -0.2113 -0.1165  0.2332
23176SOL    HW176643   6.204  10.225   6.909  2.7231  0.5602 -0.2237
23176SOL    HW276644   6.096  10.327   6.881  0.6035 -0.7185  2.8068
23177SOL     OW76645   0.310  11.534  10.747  0.3135  0.2599 -0.5538
23177SOL    HW176646   0.391  11.483  10.737 -0.3394 -0.7570 -0.8736
23177SOL    HW276647   0.338  11.616  10.787  1.3876 -0.4167  0.1501
23178SOL     OW76648  11.724   3.217   6.579  0.3556 -0.3190 -0.6100
23178SOL    HW176649  11.749   3.132   6.614 -0.8122 -1.1036 -1.6010
23178SOL    HW276650  11.657   3.250   6.639  1.2390  0.1938  0.1099
23179SOL     OW76651  10.856   5.955   4.541 -0.3358  0.4071  0.7413
23179SOL    HW176652  10.907   5.876   4.520 -0.5198 -0.8984  4.4609
23179SOL    HW276653  10.769   5.921   4.563 -1.2664  2.0311 -0.2629
23180SOL     OW76654   5.047   0.195   0.371 -0.2230 -0.7996 -0.6164
23180SOL    HW176655   5.109   0.253   0.415 -1.6727  0.7178 -0.4756
23180SOL    HW276656   5.048   0.115   0.424  0.6198 -0.3105  0.1442
23181SOL     OW76657   5.900   9.074   0.238  0.2564  0.4775 -0.1127
23181SOL    HW176658   5.838   9.123   0.183  2.0784  5.6663  1.8383
23181SOL    HW276659   5.847   9.044   0.312 -0.5886  1.8228 -0.1395
23182SOL     OW76660  12.714   4.409   1.302 -0.3958  0.6890  0.0114
23182SOL    HW176661  12.781   4.368   1.357  1.0027  1.3652 -1.1232
23182SOL    HW276662  12.644   4.344   1.295  0.1250 -0.0219  1.2407
23183SOL     OW76663  12.806   3.689   6.790 -0.6411 -0.3439 -0.2359
23183SOL    HW176664  12.857   3.616   6.824 -0.2665 -0.3312 -0.7511
23183SOL    HW276665  12.797   3.671   6.696 -1.3433 -0.1982 -0.2048
23184SOL     OW76666   5.409   0.172   5.108  0.1040  0.6678  0.6555
23184SOL    HW176667   5.377   0.088   5.073 -1.1224  1.3425  0.0940
23184SOL    HW276668   5.335   0.232   5.098  0.4112  1.4310  2.5421
23185SOL     OW76669   0.017  11.460   6.124  0.0747  0.4623  0.2123
23185SOL    HW176670  -0.050  11.504   6.072  0.4513  1.6104  0.6530
23185SOL    HW276671   0.095  11.516   6.116  0.5206 -0.0273  0.9453
23186SOL     OW76672   4.901  10.033   2.802 -0.1912 -0.1920  0.4586
23186SOL    HW176673   4.867  10.052   2.890 -0.0508  0.9195  0.2959
23186SOL    HW276674   4.996  10.041   2.810 -0.0780 -1.3920  0.4842
23187SOL     OW76675  10.675   0.917   4.594 -0.2193  0.0919 -0.2484
23187SOL    HW176676  10.704   0.897   4.505  0.4224 -0.9927  0.1909
23187SOL    HW276677  10.755   0.925   4.645 -0.5709  1.0575  0.1789
23188SOL     OW76678   0.776   1.702  10.849  0.2653  0.6438  0.5358
23188SOL    HW176679   0.783   1.796  10.862 -0.8707  0.8519 -0.2316
23188SOL    HW276680   0.856   1.679  10.802  0.8540  1.1022  1.2845
23189SOL     OW76681   7.843  11.156   1.682 -0.4035  0.4889  0.3620
23189SOL    HW176682   7.754  11.179   1.707 -0.6246  0.4677 -0.3866
23189SOL    HW276683   7.847  11.172   1.588  0.2124 -0.0595  0.2838
23190SOL     OW76684   5.634   1.215  11.279  0.1308  0.2465 -0.5681
23190SOL    HW176685   5.609   1.164  11.356 -0.7806  1.4784 -0.0177
23190SOL    HW276686   5.696   1.158  11.232 -0.1864 -0.9996  0.4519
23191SOL     OW76687   6.885   8.337   7.589 -0.1489 -0.4868 -0.1160
23191SOL    HW176688   6.948   8.297   7.649 -1.2834 -0.4383  1.1569
23191SOL    HW276689   6.832   8.265   7.556  0.0742 -0.4368 -0.6042
23192SOL     OW76690  11.490  11.516   2.140 -0.0092 -0.0017  0.3001
23192SOL    HW176691  11.555  11.521   2.210 -0.0340  0.2467  0.3068
23192SOL    HW276692  11.528  11.567   2.069 -1.0615  1.8819  1.0048
23193SOL     OW76693   9.985   0.495   7.956  0.2108  0.5462 -0.3903
23193SOL    HW176694  10.048   0.452   7.898  1.2258  0.5313  0.6864
23193SOL    HW276695   9.908   0.437   7.955  1.0794 -0.6665  0.0486
23194SOL     OW76696   4.152   0.149  12.250 -0.0919 -0.2641  0.2340
23194SOL    HW176697   4.200   0.224  12.284  0.3003 -0.5093  0.2300
23194SOL    HW276698   4.214   0.076  12.256 -0.7084 -0.7488  0.9421
23195SOL     OW76699   0.875   0.634  10.210  0.3412 -0.3199 -0.4031
23195SOL    HW176700   0.810   0.694  10.246  1.7187 -0.3880  2.4799
23195SOL    HW276701   0.921   0.685  10.144 -0.3733  0.8660 -0.0090
23196SOL     OW76702   0.689   9.109   0.613  0.0350 -0.0103  0.7182
23196SOL    HW176703   0.696   9.184   0.673  0.6282 -0.1584  0.8382
23196SOL    HW276704   0.683   9.033   0.671  2.9449 -0.3925  0.6513
23197SOL     OW76705  10.929   8.232   4.162  0.0393  0.2617  0.1107
23197SOL    HW176706  10.986   8.156   4.169  0.3831  0.4913 -0.1631
23197SOL    HW276707  10.862   8.206   4.099  1.9196  1.2412 -2.4966
23198SOL     OW76708   9.188   4.563  10.816  0.1574  0.3498  0.0498
23198SOL    HW176709   9.103   4.518  10.816  0.8946 -1.1563 -1.1430
23198SOL    HW276710   9.167   4.655  10.829 -1.7485  0.1380 -1.1430
23199SOL     OW76711  10.638   8.321   3.500 -0.4250 -0.2574  0.4197
23199SOL    HW176712  10.568   8.379   3.531 -0.2345 -0.0106  0.3834
23199SOL    HW276713  10.601   8.233   3.509  0.0076 -0.2978  2.4344
23200SOL     OW76714   3.086  10.318   9.452  0.2816  0.3537  0.1441
23200SOL    HW176715   3.038  10.352   9.527  0.4780  3.6778 -1.0748
23200SOL    HW276716   3.020  10.270   9.401  0.1002 -1.7513  2.1981
23201SOL     OW76717   9.210   1.828  12.492 -0.0811 -0.0004  0.0459
23201SOL    HW176718   9.171   1.912  12.469  2.4407  0.7063 -2.0675
23201SOL    HW276719   9.278   1.850  12.556 -0.3480 -0.6390  0.5602
23202SOL     OW76720  10.536   1.542   7.258 -0.0164 -0.0367  0.0055
23202SOL    HW176721  10.484   1.530   7.179  2.2456  0.6079 -1.6908
23202SOL    HW276722  10.536   1.456   7.301 -0.9732 -0.4955 -0.8864
23203SOL     OW76723   1.532   6.910   6.618  0.2025 -0.0645  0.3920
23203SOL    HW176724   1.450   6.880   6.656 -1.1167  1.8446 -0.7433
23203SOL    HW276725   1.557   6.841   6.557  1.0460 -1.9967  2.7915
23204SOL     OW76726   7.183   2.535   9.861  0.1248  0.3382 -0.1821
23204SOL    HW176727   7.191   2.595   9.787 -2.3669 -2.1987 -2.7750
23204SOL    HW276728   7.093   2.502   9.856  0.1927 -0.8651  3.3510
23205SOL     OW76729  12.642   2.872  11.049  0.5342  0.6391  0.4511
23205SOL    HW176730  12.621   2.944  11.107 -0.9376  1.7822 -1.3707
23205SOL    HW276731  12.607   2.899  10.964 -0.6479 -2.4537 -0.1831
23206SOL     OW76732   2.551   6.766   2.052  0.3814 -0.1098  0.1524
23206SOL    HW176733   2.644   6.746   2.061  0.3751 -0.0921  0.2533
23206SOL    HW276734   2.521   6.785   2.141 -0.2200 -2.3089  0.4659
23207SOL     OW76735  11.590  11.878   8.650 -0.2653 -0.3661  0.8300
23207SOL    HW176736  11.553  11.886   8.562 -1.8686  0.3569  1.5384
23207SOL    HW276737  11.588  11.784   8.669  1.8741 -0.7675 -0.5972
23208SOL     OW76738   5.692   3.958  12.444  0.0938  0.1735 -0.7686
23208SOL    HW176739   5.755   3.942  12.514  0.5488  3.1840 -0.3553
23208SOL    HW276740   5.631   3.884  12.449  0.2332  0.1200  2.6668
23209SOL     OW76741   3.277  10.616   3.091  0.0861  0.2555  0.4994
23209SOL    HW176742   3.220  10.669   3.147 -1.1308  0.7376 -1.1201
23209SOL    HW276743   3.236  10.530   3.090  0.9133 -0.1591  1.4844
23210SOL     OW76744   0.679  12.913   3.719  0.2651  0.4069 -0.2662
23210SOL    HW176745   0.635  12.945   3.640 -1.3827  0.1471  0.5070
23210SOL    HW276746   0.637  12.961   3.791  1.3602  0.2384  0.5062
23211SOL     OW76747   1.287   7.675  10.445  0.2516  0.0434 -0.2178
23211SOL    HW176748   1.380   7.676  10.463  0.1038  0.6780  0.5361
23211SOL    HW276749   1.277   7.609  10.376  1.3555  0.5904 -0.9312
23212SOL     OW76750   6.322  10.108   2.778  0.0959  0.0856  0.1305
23212SOL    HW176751   6.230  10.110   2.750  0.3485  2.5782 -0.7477
23212SOL    HW276752   6.330  10.181   2.838  1.4976 -0.1855  0.2966
23213SOL     OW76753   5.012   2.104   8.169 -0.4557  0.1163 -0.2788
23213SOL    HW176754   5.093   2.130   8.125 -0.4843  0.1530 -0.3097
23213SOL    HW276755   4.951   2.084   8.098 -0.6626  0.6718 -0.2580
23214SOL     OW76756  12.691  12.080   5.344 -0.4104  0.1503 -0.2979
23214SOL    HW176757  12.670  11.988   5.360 -2.6155  0.4729 -1.0358
23214SOL    HW276758  12.685  12.121   5.430  1.0552 -0.4264  0.1196
23215SOL     OW76759   0.338   8.251   2.804 -0.0145 -0.3808  0.1360
23215SOL    HW176760   0.429   8.222   2.796 -0.1980 -0.5008 -1.9568
23215SOL    HW276761   0.286   8.178   2.771 -0.8156  0.0619  0.3815
23216SOL     OW76762   0.804   8.848   7.323 -0.0416  0.0233 -0.7832
23216SOL    HW176763   0.790   8.899   7.404  2.1081 -1.3704  0.5550
23216SOL    HW276764   0.871   8.897   7.275  1.8238 -1.2656  0.3745
23217SOL     OW76765  10.375   0.845  11.246 -0.5475  0.6893 -0.6904
23217SOL    HW176766  10.391   0.940  11.248  2.5596  0.2812 -0.6484
23217SOL    HW276767  10.456   0.808  11.211 -0.8267 -2.0964  1.2539
23218SOL     OW76768  10.863   0.851   9.488 -1.1587  0.2509  0.6581
23218SOL    HW176769  10.776   0.823   9.459 -0.4545 -1.7285  0.2580
23218SOL    HW276770  10.862   0.838   9.583 -0.6499 -2.0037  0.4263
23219SOL     OW76771   5.012   8.631   2.269  0.0924 -0.8439  0.2317
23219SOL    HW176772   4.938   8.632   2.330 -0.2303 -2.0687 -0.1159
23219SOL    HW276773   4.978   8.672   2.189  0.5419  0.8447  0.8516
23220SOL     OW76774  10.774   3.850   7.360 -0.3297 -0.3287  0.0735
23220SOL    HW176775  10.755   3.796   7.283 -1.0913  1.3152 -0.9501
23220SOL    HW276776  10.843   3.909   7.331  1.6393 -1.7165  1.6732
23221SOL     OW76777   7.210   4.789   9.846  0.4716  0.9067  0.0007
23221SOL    HW176778   7.126   4.832   9.865 -0.0194 -0.6645  1.7271
23221SOL    HW276779   7.267   4.815   9.919  1.3237  1.4813 -0.8488
23222SOL     OW76780   6.960   3.085   6.858  0.0080  0.3867 -0.2266
23222SOL    HW176781   6.868   3.066   6.839  0.1099 -0.9513  0.5120
23222SOL    HW276782   7.004   3.078   6.773 -0.3511 -0.4167 -0.3554
23223SOL     OW76783   9.221   0.256   5.820  0.0483 -0.0330  1.0790
23223SOL    HW176784   9.256   0.273   5.908  0.6325  2.8520  0.3742
23223SOL    HW276785   9.293   0.213   5.773  0.2451 -0.2392  1.5607
23224SOL     OW76786   8.952   3.066   0.101 -0.1318 -0.3457  0.2581
23224SOL    HW176787   8.888   3.117   0.151 -4.0693 -4.6036  0.2869
23224SOL    HW276788   8.929   3.084   0.009  2.2044  1.8969  0.0158
23225SOL     OW76789   9.611   6.122   0.536  0.8201 -0.2693  0.3154
23225SOL    HW176790   9.598   6.101   0.444  0.5738  1.3983 -0.0530
23225SOL    HW276791   9.554   6.061   0.583  0.8543 -1.0510 -0.6355
23226SOL     OW76792   9.268  10.837  11.153  0.1288 -0.5588 -0.5883
23226SOL    HW176793   9.359  10.846  11.126  0.6570 -2.5872  0.3506
23226SOL    HW276794   9.221  10.900  11.098  2.1892  1.3052 -0.3762
23227SOL     OW76795   9.037  11.651   5.752  0.0778  0.6353 -0.3561
23227SOL    HW176796   8.993  11.584   5.701 -1.3754  2.6901 -1.9628
23227SOL    HW276797   9.126  11.654   5.716  0.2955 -0.6313  0.0179
23228SOL     OW76798  10.288  12.886   0.688  0.0928 -0.0467 -0.2576
23228SOL    HW176799  10.300  12.904   0.781  1.2079 -0.5113 -0.2965
23228SOL    HW276800  10.257  12.795   0.685 -2.2711  0.7002 -0.2392
23229SOL     OW76801   2.403   4.200   7.476 -0.5560 -0.1890 -0.2225
23229SOL    HW176802   2.445   4.264   7.419  0.7195  0.7154  1.6157
23229SOL    HW276803   2.349   4.251   7.535 -0.9850 -0.9801  0.0915
23230SOL     OW76804   3.922   2.795   6.156 -0.0401  0.0708 -0.4391
23230SOL    HW176805   4.011   2.816   6.128 -0.0700  0.5822 -0.1608
23230SOL    HW276806   3.914   2.832   6.244 -0.4935 -0.0572 -0.4208
23231SOL     OW76807   1.159   7.840   7.084  0.2506  0.2518 -0.1713
23231SOL    HW176808   1.216   7.907   7.045  1.9566 -0.2641  1.2971
23231SOL    HW276809   1.211   7.803   7.155 -2.3713  0.5135  2.0554
23232SOL     OW76810   7.531  12.552   0.777  0.3714  0.4834  0.0555
23232SOL    HW176811   7.626  12.562   0.768  0.2555  3.4390  1.0645
23232SOL    HW276812   7.507  12.614   0.846 -2.5376  1.3980 -1.6090
23233SOL     OW76813   8.595   4.172  10.595 -0.4855  0.6292 -0.2418
23233SOL    HW176814   8.547   4.205  10.520 -2.6965  0.2934  0.9499
23233SOL    HW276815   8.535   4.182  10.669  0.8687 -0.8686  1.1462
23234SOL     OW76816  12.717   5.735   6.346 -0.6665 -0.3084  0.4793
23234SOL    HW176817  12.804   5.774   6.340  0.0398 -1.9276 -0.1895
23234SOL    HW276818  12.657   5.809   6.337  0.6254  0.8050  0.7355
23235SOL     OW76819   8.694   9.535   8.337 -0.3042 -0.2107  0.0927
23235SOL    HW176820   8.654   9.590   8.405 -1.5525  1.6272 -2.0096
23235SOL    HW276821   8.763   9.590   8.300 -2.2616  0.5695 -2.7745
23236SOL     OW76822   3.180   2.251   3.147 -0.1771  0.3747 -0.2674
23236SOL    HW176823   3.217   2.193   3.081 -0.6977 -2.2518  1.6040
23236SOL    HW276824   3.255   2.299   3.183  0.7839 -1.4645  0.2842
23237SOL     OW76825  11.635   2.924   0.384  0.3662  0.6233 -0.2539
23237SOL    HW176826  11.702   2.857   0.396  0.7197  0.7863 -1.2128
23237SOL    HW276827  11.667   2.977   0.311 -0.1253  1.5686  0.2029
23238SOL     OW76828   1.706   8.237   6.608 -0.1769  0.3851  0.1010
23238SOL    HW176829   1.700   8.262   6.700  0.3489  1.5289 -0.1540
23238SOL    HW276830   1.686   8.318   6.561 -0.8875 -0.2963 -0.7966
23239SOL     OW76831   5.679   4.284   5.177  0.3852 -0.2500  0.7905
23239SOL    HW176832   5.768   4.291   5.213 -0.0961  0.7380  1.8292
23239SOL    HW276833   5.625   4.337   5.235 -0.6628  0.2960 -0.6244
23240SOL     OW76834   3.630   5.688   3.786  0.2155 -0.1140  0.1592
23240SOL    HW176835   3.710   5.636   3.781  0.2773 -0.0194  0.1640
23240SOL    HW276836   3.634   5.746   3.710  0.5413  0.4465  0.5920
23241SOL     OW76837   3.728   7.212   3.050 -0.2104  0.0190  0.2253
23241SOL    HW176838   3.781   7.274   2.999 -1.1085 -0.2157 -1.0607
23241SOL    HW276839   3.727   7.133   2.996  0.8968 -1.1493  1.8283
23242SOL     OW76840   8.257   5.479  10.662  0.3052  0.4681  0.2425
23242SOL    HW176841   8.283   5.529  10.739 -0.6765  1.4111 -0.0002
23242SOL    HW276842   8.237   5.546  10.596  0.1135 -0.2892 -0.4831
23243SOL     OW76843   8.018  11.964   5.511 -0.2349 -0.5204 -0.1290
23243SOL    HW176844   7.995  11.947   5.420  0.1570 -1.5069 -0.0543
23243SOL    HW276845   8.096  12.019   5.506 -1.2485  0.9503 -0.3740
23244SOL     OW76846   8.140   1.057   1.522  0.1027  0.3847  0.1831
23244SOL    HW176847   8.079   0.986   1.502 -0.0174  0.7990 -0.9990
23244SOL    HW276848   8.222   1.013   1.544  0.2484 -0.1225 -1.2935
23245SOL     OW76849   3.771  10.712   6.042  0.5994 -0.8094 -0.1558
23245SOL    HW176850   3.719  10.730   5.963  2.1670  1.5320 -0.7403
23245SOL    HW276851   3.843  10.656   6.011 -0.3797 -2.3817  0.2694
23246SOL     OW76852   4.715  10.936  12.809  0.0039  0.2444 -0.0576
23246SOL    HW176853   4.687  11.005  12.750  1.9603  0.8775 -0.3444
23246SOL    HW276854   4.800  10.966  12.842 -0.6247 -0.4767  2.4452
23247SOL     OW76855   5.435   6.640   8.135 -0.3831 -0.4179 -0.2501
23247SOL    HW176856   5.379   6.568   8.105 -0.6951 -0.6484  0.8320
23247SOL    HW276857   5.472   6.609   8.218  1.3057 -0.2395 -0.9047
23248SOL     OW76858  12.869   8.512   5.509 -0.0568 -0.1236  0.0387
23248SOL    HW176859  12.873   8.422   5.541 -1.7025 -0.6180 -1.0227
23248SOL    HW276860  12.783   8.543   5.537  0.5989  1.2508  0.6392
23249SOL     OW76861   5.411  10.967   6.183  0.2286  0.2520 -0.5446
23249SOL    HW176862   5.416  10.872   6.195 -0.3545  0.4073  1.2751
23249SOL    HW276863   5.453  10.983   6.099  1.3170 -1.5128 -0.3810
23250SOL     OW76864   4.080   8.948   5.042 -0.5367  0.3816  0.1685
23250SOL    HW176865   4.003   9.000   5.065 -0.1501  0.1408  2.1619
23250SOL    HW276866   4.152   8.989   5.089  0.9375  1.5207 -2.8449
23251SOL     OW76867   7.077   1.405   7.681  0.0509  0.1332 -0.1943
23251SOL    HW176868   7.042   1.475   7.736 -1.5159  0.2894 -1.3330
23251SOL    HW276869   7.155   1.374   7.728 -1.5446 -0.1608  2.4181
23252SOL     OW76870  11.348   5.994   8.208  0.0148 -0.5242  0.2811
23252SOL    HW176871  11.358   5.975   8.115 -0.3913  0.3696  0.0479
23252SOL    HW276872  11.287   6.067   8.212  1.1605  0.4379  1.1628
23253SOL     OW76873   3.479   7.485   8.240  0.5067  0.0313 -0.4024
23253SOL    HW176874   3.570   7.462   8.222  1.2812  1.5896  1.2331
23253SOL    HW276875   3.459   7.552   8.175  1.3071  1.3057  0.6183
23254SOL     OW76876   3.788   4.183   0.555 -0.2016 -0.5371  0.2549
23254SOL    HW176877   3.778   4.187   0.460  0.3032 -0.4011  0.2052
23254SOL    HW276878   3.862   4.240   0.574 -1.3797  0.8220  0.9176
23255SOL     OW76879   9.992   1.466  10.835 -0.5202 -0.8594  0.4745
23255SOL    HW176880   9.971   1.538  10.895  0.8653 -0.8428  0.9669
23255SOL    HW276881  10.087   1.455  10.842 -0.2134 -0.4995 -2.1506
23256SOL     OW76882   8.723   7.066   4.732 -0.0734  0.0696  0.0538
23256SOL    HW176883   8.724   7.022   4.647 -0.5557 -0.3236  0.2451
23256SOL    HW276884   8.740   6.997   4.796  1.7495  0.6033  0.1989
23257SOL     OW76885   1.118   7.356   4.695 -0.0935 -0.0035 -0.2943
23257SOL    HW176886   1.060   7.425   4.727  0.5064  0.8633 -1.0251
23257SOL    HW276887   1.144   7.385   4.608  1.9066 -0.0544  0.2313
23258SOL     OW76888   8.171   0.946   9.512  0.6435 -0.5517 -0.1583
23258SOL    HW176889   8.083   0.909   9.501  0.6831 -0.3503 -1.2832
23258SOL    HW276890   8.229   0.885   9.466  1.2350 -1.1886  1.3757
23259SOL     OW76891  10.232  12.487   1.631  0.3606  0.1695  0.6243
23259SOL    HW176892  10.215  12.579   1.611  2.8578  0.3506 -1.1333
23259SOL    HW276893  10.215  12.441   1.549  1.7716 -0.5020  0.6768
23260SOL     OW76894   1.810   9.498  12.937 -0.3647 -0.4569  0.5081
23260SOL    HW176895   1.802   9.416  12.986 -0.7625 -1.1533 -0.6990
23260SOL    HW276896   1.815   9.566  13.005 -0.8300 -1.4059  1.5100
23261SOL     OW76897   1.607   0.782   1.368  0.1799 -0.0823  0.3769
23261SOL    HW176898   1.652   0.741   1.294  1.0272  1.5959 -0.0984
23261SOL    HW276899   1.658   0.756   1.444  1.2941  0.8309 -0.0272
23262SOL     OW76900  10.605   7.283   8.796 -0.2092 -0.0492  0.3650
23262SOL    HW176901  10.638   7.194   8.808 -0.9613 -0.4497 -0.3843
23262SOL    HW276902  10.532   7.273   8.735  0.2540  1.1992 -0.4277
23263SOL     OW76903   2.487   1.611   6.560 -0.2872  0.0227 -0.0708
23263SOL    HW176904   2.582   1.603   6.569 -0.1992  1.7262  0.9037
23263SOL    HW276905   2.452   1.557   6.631 -0.0332  0.1677  0.1666
23264SOL     OW76906   6.729  11.257  10.070 -0.2018  0.0723  0.3941
23264SOL    HW176907   6.823  11.265  10.084 -0.1536 -1.1740  0.9037
23264SOL    HW276908   6.698  11.207  10.146 -1.3035  0.6099  0.3148
23265SOL     OW76909  12.307   8.916   6.948  0.2354 -0.3880  0.5109
23265SOL    HW176910  12.362   8.909   7.026  1.7511  0.2895 -0.4659
23265SOL    HW276911  12.300   9.010   6.933  0.8152 -0.5372 -0.7525
23266SOL     OW76912   8.091  12.846  11.340  0.0493 -0.3088  0.5854
23266SOL    HW176913   8.011  12.794  11.325  0.0807 -1.0468  2.6308
23266SOL    HW276914   8.077  12.887  11.425  2.2272 -1.2562  1.4847
23267SOL     OW76915  11.185   7.727  11.950 -0.8825  0.5429 -0.2763
23267SOL    HW176916  11.207   7.634  11.949 -0.9967  0.5131  0.0502
23267SOL    HW276917  11.132   7.740  11.872 -1.8855  0.0885  0.3060
23268SOL     OW76918  11.005  11.323  10.261  0.0044 -0.8868 -0.2240
23268SOL    HW176919  10.942  11.373  10.313  0.2845 -1.9929  1.2492
23268SOL    HW276920  11.060  11.389  10.220 -0.4118  0.0412  0.6706
23269SOL     OW76921   8.042   1.248   1.217 -0.1878 -0.4274 -0.5292
23269SOL    HW176922   8.031   1.260   1.123 -2.1863  1.2919 -0.1617
23269SOL    HW276923   7.978   1.308   1.256 -0.0440 -1.7391  1.9112
23270SOL     OW76924   9.764   2.251  11.890  0.1778  0.0866 -0.0879
23270SOL    HW176925   9.679   2.205  11.885 -0.9122  1.9163  0.5653
23270SOL    HW276926   9.814   2.215  11.817 -1.0738 -1.2042 -0.3827
23271SOL     OW76927   1.038   3.788   7.262 -0.2758  0.0294  0.3160
23271SOL    HW176928   1.085   3.708   7.285  0.6868  0.0739 -1.3161
23271SOL    HW276929   0.999   3.770   7.176 -0.3030  1.1905  0.0609
23272SOL     OW76930   7.040   1.136   3.064 -0.4884 -0.5676 -0.3560
23272SOL    HW176931   7.056   1.062   3.123  0.2091 -0.2244 -0.0967
23272SOL    HW276932   7.089   1.208   3.104 -0.9686 -0.0299 -0.7328
23273SOL     OW76933  11.238   4.978   5.149 -0.0126 -0.1608  0.0293
23273SOL    HW176934  11.242   4.883   5.140 -0.9259 -0.0502 -2.0458
23273SOL    HW276935  11.146   4.999   5.133  0.4076  1.1758 -0.7304
23274SOL     OW76936  10.849  11.204   4.628  0.2021 -0.6892  0.6194
23274SOL    HW176937  10.823  11.112   4.632 -1.9272 -0.1459  0.3767
23274SOL    HW276938  10.799  11.240   4.555  0.8833  0.7011  0.8097
23275SOL     OW76939   9.502   3.566  10.657 -0.2257 -0.0434  0.7898
23275SOL    HW176940   9.562   3.634  10.626 -1.7784  1.5549  1.1216
23275SOL    HW276941   9.560   3.496  10.688  1.4120  0.4357 -0.9900
23276SOL     OW76942   5.171  12.785   4.623 -0.0112  0.2688 -0.0077
23276SOL    HW176943   5.135  12.858   4.673  1.8494  1.6753 -0.6176
23276SOL    HW276944   5.149  12.805   4.532  2.1199  1.1246 -0.3842
23277SOL     OW76945   3.429   0.473   5.460  0.2120 -0.6806 -0.4405
23277SOL    HW176946   3.418   0.399   5.519  2.2600  0.0178  0.9171
23277SOL    HW276947   3.464   0.435   5.379  1.8356 -1.1758  0.4550
23278SOL     OW76948   9.066   4.172  12.711  0.2143  0.2494 -0.2009
23278SOL    HW176949   8.982   4.137  12.680 -0.2209 -0.1605  1.3685
23278SOL    HW276950   9.068   4.262  12.678 -1.0906  0.4425  0.1728
23279SOL     OW76951   9.314   3.549   8.597 -0.0358  0.1432  0.0114
23279SOL    HW176952   9.336   3.594   8.679  1.0416 -1.2778  0.5442
23279SOL    HW276953   9.237   3.496   8.619 -0.3882  0.5665 -0.1964
23280SOL     OW76954  11.929   1.191   6.622  0.3115  0.1157  0.4413
23280SOL    HW176955  12.000   1.227   6.569  1.1606  0.9254  2.0699
23280SOL    HW276956  11.897   1.116   6.571  1.4039  0.5743 -0.9720
23281SOL     OW76957  10.867   4.896   3.646 -0.1474  0.8124 -0.2390
23281SOL    HW176958  10.918   4.816   3.635  0.7076  1.1273  1.1375
23281SOL    HW276959  10.799   4.873   3.710  0.8039  1.4572  1.0420
23282SOL     OW76960  10.150   9.779   0.331 -0.1253  0.5582  0.5219
23282SOL    HW176961  10.223   9.840   0.343  1.2544 -0.8072 -0.4541
23282SOL    HW276962  10.179   9.698   0.372 -1.2705  0.0923  0.4505
23283SOL     OW76963   9.173  11.979   9.611  0.5858  0.2918  0.4178
23283SOL    HW176964   9.230  12.046   9.650  0.2510  1.5686 -1.1970
23283SOL    HW276965   9.157  12.010   9.522 -1.4480 -0.7757  0.3551
23284SOL     OW76966  11.606   8.105   5.510  0.5239 -0.1159  0.0942
23284SOL    HW176967  11.545   8.046   5.555  0.0704  0.1302 -0.1806
23284SOL    HW276968  11.680   8.049   5.486 -0.1580 -0.7269 -0.6821
23285SOL     OW76969   9.156   1.354   5.776  0.2718 -0.1293 -0.2836
23285SOL    HW176970   9.189   1.420   5.837  1.0960 -0.8500  0.0700
23285SOL    HW276971   9.222   1.285   5.777 -1.3161 -1.7112  0.5859
23286SOL     OW76972   2.881   3.024   1.232 -0.5881 -0.5637  0.4414
23286SOL    HW176973   2.814   3.092   1.228  0.1342  0.2230  1.2158
23286SOL    HW276974   2.964   3.071   1.229 -0.0658 -1.4832  0.0293
23287SOL     OW76975   9.307   1.700   7.067  0.2168 -0.1084 -0.2518
23287SOL    HW176976   9.270   1.768   7.123 -1.0777 -1.0227  0.0757
23287SOL    HW276977   9.245   1.691   6.995  0.2265 -1.0909 -0.1610
23288SOL     OW76978  11.404   0.257   4.445  0.7991 -0.3833 -0.2506
23288SOL    HW176979  11.462   0.308   4.388  2.2930 -3.4602 -1.7221
23288SOL    HW276980  11.457   0.237   4.522  0.3928 -0.1274  0.0995
23289SOL     OW76981  10.025  11.991   2.233  0.3926  0.1864 -0.3302
23289SOL    HW176982   9.980  11.966   2.152  0.3540 -0.8073 -0.0161
23289SOL    HW276983  10.059  11.908   2.268  0.3412  0.5928  0.7083
23290SOL     OW76984  10.426   4.992   8.132 -0.0215 -0.0901 -0.2163
23290SOL    HW176985  10.390   5.079   8.115 -2.3542 -1.1667 -1.1975
23290SOL    HW276986  10.449   4.993   8.225 -0.5906  1.3840 -0.0726
23291SOL     OW76987  12.625   9.962   4.657 -0.2271  0.1659  0.1744
23291SOL    HW176988  12.551   9.959   4.718 -1.3033  2.3447 -0.9321
23291SOL    HW276989  12.701   9.979   4.713 -0.4287 -2.2990  1.3479
23292SOL     OW76990   1.682   2.666   2.812  0.2026  0.5333  0.1819
23292SOL    HW176991   1.636   2.594   2.769  1.9289  0.4594 -1.7136
23292SOL    HW276992   1.648   2.745   2.770  0.3715  0.6109  0.1884
23293SOL     OW76993   3.844   9.798   3.716 -0.0029  0.0223  0.2001
23293SOL    HW176994   3.855   9.730   3.649  1.9386  0.9355 -0.4752
23293SOL    HW276995   3.858   9.880   3.670 -0.7332  0.8160  1.3315
23294SOL     OW76996  11.484  12.221   1.078 -0.1181  0.7086  0.0245
23294SOL    HW176997  11.575  12.242   1.057  0.5893 -0.8962  1.2967
23294SOL    HW276998  11.464  12.275   1.154 -0.9429  2.5549 -1.4215
23295SOL     OW76999   1.956   1.948  10.208 -0.3775 -0.3018  0.1187
23295SOL    HW177000   1.996   1.876  10.158 -0.2244 -0.6258  0.7053
23295SOL    HW277001   1.862   1.932  10.201 -0.4456  0.5001 -1.3248
23296SOL     OW77002   5.505  12.719   2.860  0.0401 -0.3818  0.1223
23296SOL    HW177003   5.506  12.652   2.791 -0.3260 -0.4953  0.2261
23296SOL    HW277004   5.576  12.778   2.836 -1.7234  1.0849 -1.8710
23297SOL     OW77005  11.348   3.752   2.021 -1.0978 -0.3357  0.0485
23297SOL    HW177006  11.385   3.746   1.933 -0.4539  1.0136  0.2084
23297SOL    HW277007  11.257   3.724   2.011 -0.2903 -3.0476 -0.4756
23298SOL     OW77008  10.625  12.557   0.895  0.4225 -0.2381 -0.2215
23298SOL    HW177009  10.586  12.490   0.839  0.7795  1.2197 -2.3478
23298SOL    HW277010  10.719  12.544   0.885  0.5155  1.1536 -1.4813
23299SOL     OW77011  12.144   4.896   8.170  0.0005  0.1600 -0.0113
23299SOL    HW177012  12.214   4.886   8.106 -0.7756 -0.9579 -0.7142
23299SOL    HW277013  12.172   4.841   8.244 -1.0407 -1.9545 -1.1116
23300SOL     OW77014   9.733  12.265   4.020 -0.2656 -0.0271 -0.6504
23300SOL    HW177015   9.737  12.308   3.934 -2.7417  1.3988 -0.1513
23300SOL    HW277016   9.743  12.336   4.083 -2.4308 -0.4022  0.2020
23301SOL     OW77017   6.487   1.217  12.302 -0.9265 -0.1977 -0.1333
23301SOL    HW177018   6.477   1.257  12.388 -1.8599 -3.6991  1.5200
23301SOL    HW277019   6.397   1.201  12.272 -0.6552  1.5821 -2.1864
23302SOL     OW77020   6.195   0.218  11.076  0.2086  0.0437  0.0988
23302SOL    HW177021   6.193   0.313  11.087  2.4534  0.1092  0.2923
23302SOL    HW277022   6.217   0.184  11.163 -0.0616 -0.6322 -0.0852
23303SOL     OW77023   2.744  12.260   1.477  0.2478 -0.2402 -0.9610
23303SOL    HW177024   2.731  12.344   1.433 -0.5057  0.9864  1.4314
23303SOL    HW277025   2.798  12.281   1.553  0.3020 -2.0060 -0.4664
23304SOL     OW77026   4.069   6.641   2.503 -0.3220  0.1529 -0.4859
23304SOL    HW177027   4.081   6.689   2.585  0.9519 -2.8388  1.2499
23304SOL    HW277028   4.146   6.664   2.450  0.3905 -0.0846  0.4154
23305SOL     OW77029   0.997  11.963   7.365  0.8189  0.5178  0.2076
23305SOL    HW177030   1.032  11.878   7.335  1.9477  0.4667  1.5558
23305SOL    HW277031   0.971  11.947   7.456 -1.3255  0.9960 -0.2628
23306SOL     OW77032   8.044  10.422  10.989  0.7214  0.5311 -0.4735
23306SOL    HW177033   8.129  10.378  10.999  1.8585  2.6164 -0.2501
23306SOL    HW277034   8.019  10.406  10.898 -0.4426 -2.9773  0.2977
23307SOL     OW77035   3.821   8.341   0.273  0.7735  0.1248 -0.2692
23307SOL    HW177036   3.916   8.343   0.256  0.9230  0.6140  0.5821
23307SOL    HW277037   3.814   8.309   0.362  0.1264  0.1127 -0.3221
23308SOL     OW77038  10.505   8.783  10.259 -0.4086 -0.3101  0.5845
23308SOL    HW177039  10.424   8.750  10.222 -1.3258  0.7627  1.5499
23308SOL    HW277040  10.553   8.704  10.286 -1.9117 -0.9352  1.5889
23309SOL     OW77041   6.220   0.224   1.422  0.2224  0.2165  0.3937
23309SOL    HW177042   6.240   0.131   1.411 -1.2188 -0.0562 -0.0599
23309SOL    HW277043   6.147   0.226   1.484 -0.9470  0.9085 -0.9464
23310SOL     OW77044   4.070   9.878   1.439 -0.0418 -0.5264 -0.3140
23310SOL    HW177045   4.075   9.970   1.466 -1.8283 -0.3792 -0.3274
23310SOL    HW277046   3.983   9.850   1.468  0.8199 -2.5025  0.5312
23311SOL     OW77047   5.809   7.321   8.877 -0.7142  0.0443  0.1818
23311SOL    HW177048   5.887   7.375   8.866 -0.5916 -0.3692 -1.3508
23311SOL    HW277049   5.762   7.330   8.794 -2.2079  0.1252  0.9966
23312SOL     OW77050  10.744   6.977  12.145  0.1136 -0.6661 -0.6577
23312SOL    HW177051  10.797   6.954  12.221 -0.4565  1.1335  0.3409
23312SOL    HW277052  10.748   7.072  12.140 -3.2556 -0.3634 -0.2805
23313SOL     OW77053   9.612  11.299   6.816 -0.8042 -0.0693 -0.1997
23313SOL    HW177054   9.627  11.212   6.779 -0.0992  0.0738 -0.2681
23313SOL    HW277055   9.636  11.290   6.908  0.4157  0.3278 -0.4533
23314SOL     OW77056   3.910   0.336   6.498  0.5807 -0.5865 -0.3765
23314SOL    HW177057   3.837   0.298   6.449 -1.3860  1.1346  1.0483
23314SOL    HW277058   3.943   0.407   6.443 -3.2626  3.0495  1.4731
23315SOL     OW77059   6.550   0.827  12.664 -0.4427 -0.1626 -0.4190
23315SOL    HW177060   6.507   0.757  12.614 -2.5785  0.6690  0.1382
23315SOL    HW277061   6.541   0.798  12.756  0.6460 -0.1912 -0.3149
23316SOL     OW77062   5.026   6.882   6.331 -0.2784  0.0343  0.0531
23316SOL    HW177063   5.064   6.843   6.410 -1.3324 -1.1128  0.0231
23316SOL    HW277064   4.956   6.823   6.307  0.3565  0.0663 -2.0630
23317SOL     OW77065   5.922   9.912   0.706 -0.0892  0.4321  0.0994
23317SOL    HW177066   5.932   9.885   0.798 -1.4563 -0.0507  0.1198
23317SOL    HW277067   5.849   9.974   0.706  0.4190  1.0555 -0.5588
23318SOL     OW77068  10.369   0.840   6.518 -0.2043 -0.6737 -0.0928
23318SOL    HW177069  10.349   0.751   6.488  0.4443 -0.5915 -0.7838
23318SOL    HW277070  10.455   0.832   6.558 -1.1145 -0.8241  1.9832
23319SOL     OW77071  10.448  12.680   1.219  0.4089 -0.6746 -0.2636
23319SOL    HW177072  10.368  12.733   1.221  1.5347  1.2623 -2.4412
23319SOL    HW277073  10.495  12.706   1.299  0.1752  0.3752 -0.4535
23320SOL     OW77074   3.004   2.732   8.335 -0.0061 -0.5775 -0.5334
23320SOL    HW177075   3.070   2.735   8.265  0.1516 -0.4192 -0.3796
23320SOL    HW277076   3.047   2.774   8.409 -0.4091 -0.1603 -0.5371
23321SOL     OW77077  10.933   5.332   9.875 -0.1390 -0.2854 -0.6460
23321SOL    HW177078  10.990   5.342   9.799  1.0050  3.4143  0.4699
23321SOL    HW277079  10.965   5.253   9.919  1.4960 -0.5206 -2.1433
23322SOL     OW77080   7.089   5.404   6.731 -0.4185  0.1055 -0.1470
23322SOL    HW177081   7.086   5.430   6.823  0.5654  0.3983 -0.1852
23322SOL    HW277082   7.011   5.350   6.718  0.2144 -1.2032  1.2328
23323SOL     OW77083   8.079   8.260  10.142  0.0331 -0.1943 -0.3263
23323SOL    HW177084   7.990   8.228  10.127 -0.6518  1.6421 -0.4725
23323SOL    HW277085   8.068   8.331  10.205  1.3672  0.2204 -0.5505
23324SOL     OW77086   7.856   0.059  11.920  0.4703 -0.9933  0.0760
23324SOL    HW177087   7.943   0.068  11.881  0.0314  1.3119 -0.5389
23324SOL    HW277088   7.806   0.009  11.855  0.2465  1.2998 -1.6912
23325SOL     OW77089   9.846   3.119   9.407 -0.4877  0.4065 -0.4956
23325SOL    HW177090   9.930   3.100   9.366 -0.4428  0.4994 -0.4463
23325SOL    HW277091   9.868   3.144   9.497 -0.6395 -0.5100 -0.1934
23326SOL     OW77092  10.349   1.392  12.882  0.3984  0.0694 -0.1502
23326SOL    HW177093  10.273   1.339  12.858  0.5565 -0.9132  1.3260
23326SOL    HW277094  10.423   1.333  12.874  0.8677  0.6953 -0.5063
23327SOL     OW77095   7.256   2.395   8.305  0.0227 -0.0938  0.2956
23327SOL    HW177096   7.342   2.364   8.332 -0.5392  0.2435  2.7186
23327SOL    HW277097   7.266   2.488   8.290  0.3654 -0.3037 -0.8616
23328SOL     OW77098   8.946  11.700  10.068 -0.5283  0.0734 -0.0621
23328SOL    HW177099   9.036  11.700  10.034 -1.1910 -3.5950 -2.4480
23328SOL    HW277100   8.950  11.643  10.145 -0.8173 -0.2970 -0.3156
23329SOL     OW77101  10.080  10.749   4.817 -0.0820 -0.5679  0.1053
23329SOL    HW177102  10.123  10.725   4.735  0.0166  0.1555 -0.0586
23329SOL    HW277103  10.109  10.839   4.834 -1.1088 -0.2614  0.2679
23330SOL     OW77104   0.707   8.543  12.838  0.4945 -0.1069  0.6322
23330SOL    HW177105   0.726   8.464  12.888  0.8111  0.5141  1.5254
23330SOL    HW277106   0.697   8.612  12.904  0.0135  0.5612 -0.1122
23331SOL     OW77107   1.103  12.445   2.003 -0.4185  0.3561  0.1265
23331SOL    HW177108   1.126  12.380   1.936  1.1575  0.7687  0.2256
23331SOL    HW277109   1.115  12.399   2.086 -0.8339  0.3194  0.1708
23332SOL     OW77110   4.292   4.910   8.380 -0.5141 -0.3035  0.1994
23332SOL    HW177111   4.334   4.877   8.460 -1.1247 -0.3638  0.5004
23332SOL    HW277112   4.267   4.831   8.332  0.4922 -0.2732 -0.4075
23333SOL     OW77113   7.774   0.794   4.214  0.0638  0.0201 -0.3953
23333SOL    HW177114   7.770   0.705   4.248  3.3155 -0.7735 -1.6777
23333SOL    HW277115   7.814   0.845   4.285  0.5856 -0.1545 -0.5543
23334SOL     OW77116   3.434   6.006  12.499  0.5330 -0.1588  0.0826
23334SOL    HW177117   3.442   6.094  12.537  0.8176 -0.3235  0.4167
23334SOL    HW277118   3.433   5.948  12.575  1.6984 -0.5351 -0.1686
23335SOL     OW77119   3.759   6.072   3.151 -0.5707 -0.1095  0.2010
23335SOL    HW177120   3.769   6.013   3.076 -1.5145 -0.3498  0.2554
23335SOL    HW277121   3.838   6.058   3.204 -1.0999 -1.8497  0.5738
23336SOL     OW77122   4.999   1.760   1.918 -0.5528 -0.0270  0.7596
23336SOL    HW177123   4.984   1.747   1.824  0.2708  0.0126  0.6152
23336SOL    HW277124   5.047   1.843   1.923 -1.2600  0.3558  1.2772
23337SOL     OW77125   1.501   2.934  11.585  0.6025 -0.0402 -0.2611
23337SOL    HW177126   1.538   2.891  11.663  0.5661 -0.1363 -0.2965
23337SOL    HW277127   1.464   3.016  11.618  0.4204 -0.1668 -0.1449
23338SOL     OW77128   0.859  11.334  12.076  0.0003 -0.0479 -0.0796
23338SOL    HW177129   0.843  11.248  12.117 -1.2731 -0.0075 -0.4544
23338SOL    HW277130   0.912  11.314  11.999 -0.6702 -0.5654 -0.4185
23339SOL     OW77131   2.903   2.763   5.068  0.1912  0.0950  0.0262
23339SOL    HW177132   2.883   2.834   5.129  1.5602 -0.0709  0.7057
23339SOL    HW277133   2.840   2.774   4.997 -1.7045  0.0867  1.6102
23340SOL     OW77134   3.942   4.156   9.488  0.1184  0.3784  0.1919
23340SOL    HW177135   3.930   4.066   9.519 -2.7495  0.3211 -0.7386
23340SOL    HW277136   3.977   4.203   9.563  1.3471 -1.4240  0.8149
23341SOL     OW77137   2.593   1.754   9.702  0.2515 -0.4185 -0.4265
23341SOL    HW177138   2.647   1.744   9.780  3.4520 -0.6646 -2.4989
23341SOL    HW277139   2.536   1.829   9.722 -1.3485 -2.3857  3.2143
23342SOL     OW77140   8.427   7.689   1.189  0.2959 -0.2492 -0.0636
23342SOL    HW177141   8.496   7.676   1.254 -0.2912  0.0484  0.6248
23342SOL    HW277142   8.408   7.601   1.157  0.8052 -0.3625 -0.0676
23343SOL     OW77143   0.352   4.481  11.730  0.0522  0.2225  0.3000
23343SOL    HW177144   0.274   4.427  11.725  0.5063 -0.3344 -1.2898
23343SOL    HW277145   0.323   4.569  11.705 -0.2194  0.1806  0.4759
23344SOL     OW77146  12.170   0.103  12.175  0.2074 -0.1858  0.1801
23344SOL    HW177147  12.100   0.039  12.158  0.1173  0.1757 -0.8463
23344SOL    HW277148  12.249   0.060  12.143  0.3193 -0.2167  0.4931
23345SOL     OW77149  11.314   2.468   4.322 -0.2550  0.2395  0.0671
23345SOL    HW177150  11.343   2.466   4.231  1.1496  0.3208  0.4876
23345SOL    HW277151  11.279   2.557   4.334 -0.2230  0.3046 -0.3251
23346SOL     OW77152   0.826   9.780   0.411  0.4967  0.0579 -0.2304
23346SOL    HW177153   0.733   9.771   0.387  0.7688 -1.4075 -0.8233
23346SOL    HW277154   0.862   9.839   0.345 -0.1218  1.1618  0.3743
23347SOL     OW77155   6.742   4.775   8.373 -0.2015 -0.4835 -0.4314
23347SOL    HW177156   6.739   4.859   8.420 -1.3527 -1.3592  1.1441
23347SOL    HW277157   6.671   4.782   8.308  1.0069  0.4989 -1.7024
23348SOL     OW77158   0.951   0.264   6.682 -0.1915 -0.0203 -0.4477
23348SOL    HW177159   0.979   0.347   6.720  0.2978  0.7980 -2.5077
23348SOL    HW277160   0.917   0.214   6.757  0.4395  1.6155  0.9927
23349SOL     OW77161   9.151   5.796   8.226  0.2177  0.2990  0.2600
23349SOL    HW177162   9.210   5.822   8.297  0.5383 -0.3909  0.2560
23349SOL    HW277163   9.145   5.874   8.170 -0.1515  0.8992  1.1128
23350SOL     OW77164   4.027  10.336   7.692  0.3106 -0.2000 -0.1376
23350SOL    HW177165   4.077  10.276   7.747  0.7695  1.0329  0.8366
23350SOL    HW277166   4.036  10.301   7.603  1.1686 -1.1482  0.3123
23351SOL     OW77167  12.484   1.364   8.347  0.3102  0.2184 -0.1410
23351SOL    HW177168  12.496   1.282   8.299  0.2301  0.4810 -0.6263
23351SOL    HW277169  12.565   1.414   8.330  0.1282  0.4604 -0.3032
23352SOL     OW77170  11.820  11.080   7.816  0.3789 -0.3145 -0.3702
23352SOL    HW177171  11.748  11.061   7.755  0.5933  2.7393 -1.7531
23352SOL    HW277172  11.883  11.009   7.801 -0.8713 -1.2364 -1.5555
23353SOL     OW77173   7.204  11.184   6.317 -0.0369  0.3081  0.3949
23353SOL    HW177174   7.190  11.229   6.400 -0.6934  0.3849  0.2512
23353SOL    HW277175   7.285  11.135   6.329 -1.5776 -2.0229  2.1505
23354SOL     OW77176  10.701   5.641   8.870  0.2438 -0.2889  0.0479
23354SOL    HW177177  10.663   5.603   8.791 -0.9373  0.6174  0.1492
23354SOL    HW277178  10.724   5.730   8.845 -0.4206  0.1055  0.7945
23355SOL     OW77179   2.990  10.513   1.252 -0.7018 -0.6473 -0.2082
23355SOL    HW177180   3.051  10.513   1.326 -0.3310  0.2814 -0.4890
23355SOL    HW277181   3.042  10.479   1.179 -0.2841  0.7584 -0.6023
23356SOL     OW77182   6.920   9.008  11.892  0.5374  0.4234  0.4623
23356SOL    HW177183   6.832   9.043  11.906  1.0260  1.1138  2.0055
23356SOL    HW277184   6.907   8.934  11.832 -0.8656  1.5111 -0.6441
23357SOL     OW77185   9.617   7.569  11.720 -0.4322 -0.2964  0.0137
23357SOL    HW177186   9.589   7.477  11.718 -0.8129 -0.2133  0.9166
23357SOL    HW277187   9.704   7.567  11.758 -0.8676 -0.1980  1.0384
23358SOL     OW77188   2.268   2.570   9.818  0.1687  0.5555  1.0370
23358SOL    HW177189   2.272   2.476   9.833 -2.7931 -0.0557 -1.1070
23358SOL    HW277190   2.349   2.591   9.773  0.8064 -0.9848  1.4254
23359SOL     OW77191   4.800   3.873   0.452 -0.2088 -0.0747  0.0822
23359SOL    HW177192   4.893   3.880   0.431 -0.0992  0.2698  0.6804
23359SOL    HW277193   4.777   3.783   0.430  0.0446  0.1007 -0.9424
23360SOL     OW77194   0.383   4.429   9.421 -0.4007 -0.7899  0.1436
23360SOL    HW177195   0.328   4.355   9.448  0.0629 -1.1141  0.2177
23360SOL    HW277196   0.357   4.500   9.479 -0.9108 -0.8702  0.0183
23361SOL     OW77197   3.035   6.172   2.248  0.1253  0.2607  0.2504
23361SOL    HW177198   3.082   6.129   2.320 -0.9890 -0.7486  0.4010
23361SOL    HW277199   2.985   6.242   2.289 -0.9567 -0.6750  0.5687
23362SOL     OW77200  11.758   9.829   0.014 -0.2312  0.2711  0.0451
23362SOL    HW177201  11.850   9.857   0.010  0.1452 -1.0065 -0.8712
23362SOL    HW277202  11.749   9.790   0.101  0.4558 -0.6742 -0.2816
23363SOL     OW77203   5.288  12.245   8.240  0.2732 -0.4414 -0.1991
23363SOL    HW177204   5.270  12.157   8.208  0.0513 -1.0367  1.4792
23363SOL    HW277205   5.379  12.242   8.269  0.8346  0.4185 -1.7420
23364SOL     OW77206   8.115   2.109   8.158  0.0484  0.2286 -0.3561
23364SOL    HW177207   8.097   2.022   8.120  1.8653 -0.2988 -0.0907
23364SOL    HW277208   8.119   2.093   8.252 -0.9143  0.8702 -0.1962
23365SOL     OW77209  10.608   1.679   2.696 -0.4359  0.3076  0.4068
23365SOL    HW177210  10.599   1.744   2.627 -1.6373 -1.7061 -1.4841
23365SOL    HW277211  10.518   1.649   2.712  0.1061 -1.1867  0.8351
23366SOL     OW77212   5.634   1.881  12.453  0.0660  0.3334 -0.3576
23366SOL    HW177213   5.627   1.786  12.437 -0.2285  0.5833 -1.8875
23366SOL    HW277214   5.636   1.919  12.365 -0.3098  1.7850  0.2477
23367SOL     OW77215  12.201   9.537   3.405 -0.2433  0.6280 -0.5704
23367SOL    HW177216  12.244   9.587   3.336  1.1275 -1.2335 -1.1724
23367SOL    HW277217  12.132   9.488   3.360 -0.8697  1.1437 -0.1861
23368SOL     OW77218   2.018  10.193   2.652  0.3826  0.7079 -0.5165
23368SOL    HW177219   1.926  10.179   2.677  0.1518  1.0569 -1.1538
23368SOL    HW277220   2.014  10.255   2.580  1.0331 -0.4330 -1.5691
23369SOL     OW77221  10.884  10.316   3.555 -0.1778 -0.3456 -0.2326
23369SOL    HW177222  10.975  10.289   3.541  0.1876  0.2998  0.7717
23369SOL    HW277223  10.845  10.244   3.604 -0.9845 -1.8243 -2.8346
23370SOL     OW77224  12.005   9.826   7.263 -0.0045 -0.4351 -0.0317
23370SOL    HW177225  11.997   9.746   7.211 -1.8116 -0.4655  0.2333
23370SOL    HW277226  11.975   9.896   7.204  1.6082  0.1036 -0.2789
23371SOL     OW77227   6.546   3.588  12.880 -0.5096  0.5356 -0.7011
23371SOL    HW177228   6.573   3.538  12.957 -0.6231 -0.0955 -1.0638
23371SOL    HW277229   6.469   3.637  12.910 -0.5628  0.2841 -0.4112
23372SOL     OW77230   6.111  11.097   4.249  0.4443 -0.4243 -0.1185
23372SOL    HW177231   6.016  11.095   4.241  0.3160 -1.4291  1.2969
23372SOL    HW277232   6.138  11.006   4.238  1.2238 -0.1800 -0.2767
23373SOL     OW77233   4.481   5.446   1.636 -0.0208  0.0327  0.1339
23373SOL    HW177234   4.410   5.391   1.605 -0.3525 -0.9702  2.4760
23373SOL    HW277235   4.536   5.388   1.687  0.0284  1.6833  2.0856
23374SOL     OW77236   1.053   1.660  10.414 -0.1243  0.0867  0.0197
23374SOL    HW177237   1.141   1.657  10.451 -0.9687 -1.6110  2.1267
23374SOL    HW277238   1.031   1.568  10.398 -3.0325 -0.0807  3.6655
23375SOL     OW77239   1.632   8.057   5.081 -0.1034 -0.0146  0.6103
23375SOL    HW177240   1.554   8.040   5.133 -1.5271  1.4770 -0.9108
23375SOL    HW277241   1.638   7.983   5.021  0.2127 -0.5955  1.3518
23376SOL     OW77242  10.915   3.834   2.085 -0.2572 -0.3711  0.1679
23376SOL    HW177243  10.966   3.797   2.013 -1.6330  0.2590 -1.1872
23376SOL    HW277244  10.876   3.759   2.128 -0.3898 -0.6987 -0.5095
23377SOL     OW77245   4.963   0.823   2.534  0.6536  0.1381  0.0682
23377SOL    HW177246   4.969   0.793   2.625  1.2010 -2.1203 -0.6440
23377SOL    HW277247   4.932   0.913   2.541 -1.4064 -0.6210  2.4071
23378SOL     OW77248  11.447   4.873   8.484 -0.2080  0.1993 -0.0594
23378SOL    HW177249  11.443   4.937   8.554 -1.5156  0.5381 -0.4125
23378SOL    HW277250  11.462   4.924   8.405  0.3550 -0.0909 -0.1460
23379SOL     OW77251   0.270   8.612   8.932 -0.4053  1.0427  0.1579
23379SOL    HW177252   0.306   8.627   9.020 -1.2901 -2.3304  1.2601
23379SOL    HW277253   0.180   8.583   8.948 -0.6118  0.4657 -1.8501
23380SOL     OW77254  10.714   8.670   8.330 -0.2018  0.3551  0.2267
23380SOL    HW177255  10.762   8.660   8.248  0.1756  1.8310  0.2313
23380SOL    HW277256  10.634   8.717   8.307 -0.4301  0.1553  0.5957
23381SOL     OW77257   5.627   3.494   1.737 -0.1814 -0.0366  0.0928
23381SOL    HW177258   5.586   3.565   1.688 -0.3459  0.9450  1.5571
23381SOL    HW277259   5.610   3.516   1.829  1.1349 -1.1537  0.6411
23382SOL     OW77260   9.421   2.525  10.592 -0.5352 -0.3314  0.0511
23382SOL    HW177261   9.412   2.432  10.617 -0.8467 -0.5877 -0.9661
23382SOL    HW277262   9.331   2.552  10.571 -0.8268  0.8793  2.5393
23383SOL     OW77263   9.120   0.259   4.081  0.4086 -0.1701  0.0952
23383SOL    HW177264   9.157   0.286   4.165 -1.4884 -0.9431  1.2385
23383SOL    HW277265   9.188   0.281   4.017  1.0961  2.3022  1.5502
23384SOL     OW77266   9.513  11.011   3.382 -0.2789 -0.1321  0.3727
23384SOL    HW177267   9.516  10.981   3.291  1.5610  1.5234 -0.1662
23384SOL    HW277268   9.422  10.997   3.408 -0.8291 -0.7690 -1.6690
23385SOL     OW77269   4.195   7.761   1.696 -0.1657 -0.0883  0.3018
23385SOL    HW177270   4.121   7.818   1.677 -2.1249 -2.5598 -0.0860
23385SOL    HW277271   4.198   7.757   1.792 -1.4755 -0.9994  0.3352
23386SOL     OW77272   3.037   9.065  11.661 -0.2636 -0.3250  0.0811
23386SOL    HW177273   2.951   9.023  11.666 -0.3140 -0.2156  0.1275
23386SOL    HW277274   3.097   9.004  11.704 -0.1063 -0.9707 -1.0173
23387SOL     OW77275   5.489   6.401   1.412  0.2571 -0.4207  0.3195
23387SOL    HW177276   5.486   6.328   1.350 -0.1080 -1.4290  1.4934
23387SOL    HW277277   5.564   6.383   1.467  0.8337  0.6950 -0.0642
23388SOL     OW77278   1.386  10.343   6.600 -0.4922  0.9618 -0.3467
23388SOL    HW177279   1.481  10.353   6.598 -0.4803  1.4438  1.0144
23388SOL    HW277280   1.368  10.263   6.551  0.7323  0.1734  0.4422
23389SOL     OW77281   8.993   3.532   1.742  0.1038 -0.5554 -0.0296
23389SOL    HW177282   8.968   3.623   1.726 -2.1236 -1.0786  0.1976
23389SOL    HW277283   8.958   3.512   1.829  1.5739 -1.3155  0.4237
23390SOL     OW77284   4.392   9.309  11.958  0.0704 -0.0445 -0.3148
23390SOL    HW177285   4.364   9.400  11.953  1.5910  0.4672 -0.0886
23390SOL    HW277286   4.337   9.271  12.027 -0.0881  0.9018  0.0978
23391SOL     OW77287   8.798   2.403   2.702 -0.4059 -0.2820  0.1113
23391SOL    HW177288   8.706   2.376   2.693 -0.0474 -1.4597 -0.3035
23391SOL    HW277289   8.841   2.363   2.626  0.4423  0.3086  0.2721
23392SOL     OW77290   5.685   9.902   7.660  0.3512  0.3596 -0.0730
23392SOL    HW177291   5.680   9.953   7.579 -0.0909 -0.2667 -0.4463
23392SOL    HW277292   5.614   9.838   7.653  0.0075  0.6032  1.0312
23393SOL     OW77293   4.403  10.353   1.099 -0.1276 -0.5137  0.3334
23393SOL    HW177294   4.493  10.386   1.093 -0.7329  1.0305 -1.0051
23393SOL    HW277295   4.403  10.298   1.177  1.7317  0.2814  0.9534
23394SOL     OW77296  11.439   2.491   4.892 -0.0967 -0.1196 -0.0485
23394SOL    HW177297  11.525   2.511   4.856 -1.0004  0.0863 -2.2047
23394SOL    HW277298  11.391   2.574   4.887 -1.8173 -1.1613 -3.1109
23395SOL     OW77299   5.951   9.719  12.800 -0.0412 -1.1113  0.0330
23395SOL    HW177300   5.979   9.627  12.793  2.6997 -0.3493 -0.2894
23395SOL    HW277301   6.000   9.764  12.731 -0.1024  0.8518  1.2156
23396SOL     OW77302  10.196   9.114   1.504  0.2996  0.0354 -0.5112
23396SOL    HW177303  10.261   9.111   1.575 -0.1783  1.0977  0.0059
23396SOL    HW277304  10.145   9.192   1.523  0.1370  0.3286 -2.0342
23397SOL     OW77305   0.842   9.498   9.322 -0.7819 -0.3895 -0.1920
23397SOL    HW177306   0.915   9.519   9.264  0.1606 -1.5191  0.5348
23397SOL    HW277307   0.873   9.424   9.374 -2.1590 -0.3846  0.6956
23398SOL     OW77308   8.739   8.676   9.593  0.3011 -0.4616  0.6593
23398SOL    HW177309   8.758   8.582   9.596  0.1674 -0.5294 -0.2915
23398SOL    HW277310   8.825   8.717   9.580  0.1384 -0.6262 -1.3356
23399SOL     OW77311   7.798   4.105   8.757  0.2070 -0.2827  0.0607
23399SOL    HW177312   7.768   4.014   8.755 -1.8331  0.3099 -2.8050
23399SOL    HW277313   7.720   4.156   8.780  1.0833  0.8458  0.6620
23400SOL     OW77314   3.913   3.180   6.675  0.3569 -0.4485  0.1895
23400SOL    HW177315   3.855   3.198   6.600 -0.0479  1.2484  0.8705
23400SOL    HW277316   3.951   3.095   6.655 -1.6705 -1.2177 -0.7333
23401SOL     OW77317   1.743  11.217   0.372 -0.0818  0.0955  0.2117
23401SOL    HW177318   1.714  11.126   0.371 -0.6285  0.2745 -0.4838
23401SOL    HW277319   1.798  11.226   0.294 -0.0285  0.3610  0.2786
23402SOL     OW77320   5.644   0.618   8.654  0.4448 -0.1512  0.3140
23402SOL    HW177321   5.672   0.692   8.708  1.0309 -0.4782  0.4719
23402SOL    HW277322   5.693   0.627   8.573 -0.2876  0.2264 -0.0945
23403SOL     OW77323   5.359   2.831   8.850 -0.7472  0.2704  0.5083
23403SOL    HW177324   5.287   2.878   8.894 -1.1440  2.5393 -2.2947
23403SOL    HW277325   5.436   2.887   8.865 -0.0700 -0.8267  1.2942
23404SOL     OW77326   3.248   4.528   0.223  0.3288 -0.1599 -0.2143
23404SOL    HW177327   3.280   4.609   0.185 -1.2957  0.5268 -0.1922
23404SOL    HW277328   3.301   4.515   0.302  1.4977  0.1500 -0.9299
23405SOL     OW77329   4.497   3.107   8.227  0.3610 -0.1784 -0.0604
23405SOL    HW177330   4.408   3.117   8.193 -0.0400  1.9566  1.3571
23405SOL    HW277331   4.536   3.194   8.217  2.8247 -1.3557 -1.8614
23406SOL     OW77332   2.932   0.322   9.741 -0.1133 -0.4585  0.3292
23406SOL    HW177333   2.935   0.287   9.651 -0.2607  2.3758 -0.8649
23406SOL    HW277334   2.885   0.255   9.791 -0.4961 -1.8838 -1.7974
23407SOL     OW77335  12.066   7.414   3.649  0.4376 -0.0815  0.1862
23407SOL    HW177336  12.059   7.506   3.673 -0.0104  0.2729 -1.2281
23407SOL    HW277337  12.157   7.403   3.622  0.6766 -0.2389  1.0293
23408SOL     OW77338  11.604   8.780   9.053 -0.4855 -0.1699  0.6819
23408SOL    HW177339  11.662   8.703   9.050 -0.0185  0.1678  0.9032
23408SOL    HW277340  11.547   8.763   9.128  1.2072  0.7900  2.2709
23409SOL     OW77341   5.346  11.525   1.863  0.1808  0.2080 -0.2827
23409SOL    HW177342   5.261  11.507   1.903 -0.3742 -0.3919 -1.6386
23409SOL    HW277343   5.409  11.476   1.915  0.0010  2.0708  1.8478
23410SOL     OW77344  11.365   6.607   5.839 -0.0861 -0.2051 -0.7054
23410SOL    HW177345  11.321   6.688   5.866  1.3601  0.3617  0.0768
23410SOL    HW277346  11.296   6.554   5.800 -1.3788  0.7953  0.1342
23411SOL     OW77347   3.494   7.809   4.989  0.9282 -0.1532 -0.6332
23411SOL    HW177348   3.446   7.768   5.062 -0.4755 -0.3839 -1.6504
23411SOL    HW277349   3.550   7.873   5.031 -1.6466  1.5132  0.5433
23412SOL     OW77350  12.161   1.020  12.095  0.3464 -0.2122  0.0581
23412SOL    HW177351  12.120   1.063  12.020  1.9232 -0.6089 -1.0954
23412SOL    HW277352  12.095   1.022  12.164 -0.5940  1.6014 -0.8301
23413SOL     OW77353   3.608   0.523   6.766  0.1880 -0.2349  0.1109
23413SOL    HW177354   3.582   0.590   6.829 -0.2519 -0.0335 -0.2767
23413SOL    HW277355   3.526   0.481   6.740  0.4137 -0.6278  0.0232
23414SOL     OW77356  10.855   2.367   4.450  0.2899 -0.3430  0.1790
23414SOL    HW177357  10.924   2.350   4.385  1.2527 -0.6288  1.2419
23414SOL    HW277358  10.897   2.351   4.535  0.4794  4.3927  1.2612
23415SOL     OW77359   4.621   3.754  11.895 -0.1649  0.3683  0.2337
23415SOL    HW177360   4.553   3.733  11.959 -0.4350  0.3238 -0.0630
23415SOL    HW277361   4.701   3.764  11.947 -0.3527  0.1979  0.5611
23416SOL     OW77362   6.448   9.402  12.067  0.0791 -0.9397  0.2399
23416SOL    HW177363   6.472   9.436  11.980  0.0711  0.5645  0.7909
23416SOL    HW277364   6.365   9.357  12.052 -0.0563 -0.4690 -0.5025
23417SOL     OW77365   3.203   9.372   2.479  0.6118 -0.2678 -0.1766
23417SOL    HW177366   3.260   9.445   2.455 -0.2709  0.0475 -1.4229
23417SOL    HW277367   3.120   9.414   2.502  0.2362 -0.8429 -0.4768
23418SOL     OW77368   8.555   2.044  12.848  0.3430  0.2236  1.3295
23418SOL    HW177369   8.578   2.121  12.797 -1.3828 -1.4059 -2.2412
23418SOL    HW277370   8.595   1.971  12.802 -1.4491 -1.3934  2.1776
23419SOL     OW77371   4.771   9.874   1.597  0.2603 -0.0378 -0.4149
23419SOL    HW177372   4.718   9.797   1.577  0.6681 -0.2988 -0.4992
23419SOL    HW277373   4.734   9.908   1.679  0.6094 -0.8115  0.0800
23420SOL     OW77374  12.563   0.815   7.515  0.3231 -0.7971  0.0119
23420SOL    HW177375  12.580   0.779   7.602  0.8665 -1.9024 -0.5248
23420SOL    HW277376  12.482   0.865   7.525  0.7342 -0.3437  1.3000
23421SOL     OW77377   9.004  10.518   5.408 -0.0878  0.3650 -0.7748
23421SOL    HW177378   9.053  10.590   5.368 -1.1822  1.4490 -0.2256
23421SOL    HW277379   8.916  10.553   5.421 -0.6347 -1.0700 -0.4491
23422SOL     OW77380   8.695   0.298   9.607 -0.0456  0.4960 -0.3945
23422SOL    HW177381   8.686   0.203   9.616 -1.1870  0.5247 -1.0968
23422SOL    HW277382   8.639   0.334   9.675 -2.5965  0.6494 -2.4152
23423SOL     OW77383  10.339   9.795   1.551  0.7075  0.2922 -0.0434
23423SOL    HW177384  10.417   9.850   1.553 -0.4866  2.1607 -1.4363
23423SOL    HW277385  10.266   9.857   1.555 -0.7346 -1.3794  1.0561
23424SOL     OW77386  12.808   3.456   8.066  0.4850 -0.5945  0.0040
23424SOL    HW177387  12.766   3.541   8.055 -0.1894 -0.9599 -0.2925
23424SOL    HW277388  12.823   3.448   8.160 -2.7403 -1.6756  0.5527
23425SOL     OW77389   6.117   8.136   2.207  0.1152 -0.0507  0.1444
23425SOL    HW177390   6.104   8.231   2.208 -0.3564 -0.0964 -0.8426
23425SOL    HW277391   6.204   8.124   2.169  0.1288 -0.0137  0.1643
23426SOL     OW77392   6.270   7.125  10.541  0.2063  0.0870 -0.1924
23426SOL    HW177393   6.240   7.102  10.629 -1.5192  1.0328 -0.4790
23426SOL    HW277394   6.246   7.050  10.487  0.5985 -0.1882  0.0164
23427SOL     OW77395   7.594   0.403   2.188  0.5776  0.1624 -0.2314
23427SOL    HW177396   7.560   0.339   2.125  1.3038 -1.4234  0.9172
23427SOL    HW277397   7.583   0.360   2.273 -1.0820  2.5496  0.8468
23428SOL     OW77398   6.754  11.457   4.945  0.5028  0.3828  0.4914
23428SOL    HW177399   6.702  11.385   4.909 -0.2030  1.0145  0.2266
23428SOL    HW277400   6.690  11.513   4.990  0.9471  1.1969  0.1212
23429SOL     OW77401   5.547   1.245   6.241 -0.1280 -0.4056 -0.4010
23429SOL    HW177402   5.529   1.337   6.263  1.9324 -0.1379  0.4110
23429SOL    HW277403   5.465   1.213   6.204 -0.4830  2.1944 -2.1754
23430SOL     OW77404   0.416   9.308   3.165  0.3698 -0.0656 -0.0009
23430SOL    HW177405   0.394   9.347   3.080  0.9402  1.6191  0.5895
23430SOL    HW277406   0.333   9.278   3.200  0.2957 -2.2788 -1.8112
23431SOL     OW77407   4.875   2.106   7.696  0.1859 -0.2467 -0.5053
23431SOL    HW177408   4.805   2.075   7.752 -0.5791 -1.0052 -1.8227
23431SOL    HW277409   4.921   2.026   7.668  1.0737  0.1767 -0.2929
23432SOL     OW77410  10.242   3.447   7.593  0.6964 -0.3184 -0.0515
23432SOL    HW177411  10.204   3.441   7.681 -2.5643 -2.0950 -1.4353
23432SOL    HW277412  10.234   3.539   7.569 -1.5885 -0.3816  0.2728
23433SOL     OW77413   2.881  11.784   7.234  0.7228  0.0888 -0.1856
23433SOL    HW177414   2.824  11.860   7.249  0.1554 -0.2711 -0.4786
23433SOL    HW277415   2.965  11.809   7.273  0.5039  0.8141 -0.1622
23434SOL     OW77416   9.460   7.591   7.873  0.3958  0.6947  0.0945
23434SOL    HW177417   9.485   7.572   7.782  0.9859  1.4982  0.0803
23434SOL    HW277418   9.543   7.590   7.921 -0.0394 -0.9496  0.8694
23435SOL     OW77419   3.031   4.955   2.481 -0.2168  0.0446 -0.2183
23435SOL    HW177420   3.100   4.999   2.530  1.1015 -0.5839 -1.4450
23435SOL    HW277421   2.976   5.026   2.448 -0.3789  0.5332  1.0462
23436SOL     OW77422   5.415  10.516   5.160 -0.3840  0.5963  0.7060
23436SOL    HW177423   5.489  10.521   5.100 -0.2056  1.2511  0.9658
23436SOL    HW277424   5.372  10.602   5.152 -1.4490  0.0384  0.1412
23437SOL     OW77425   2.186  12.212   8.242  0.6842  0.8761  0.2514
23437SOL    HW177426   2.140  12.129   8.253  2.1070 -0.0076 -0.0894
23437SOL    HW277427   2.199  12.220   8.147  1.4393  0.9500  0.3486
23438SOL     OW77428   9.103   5.463   4.690 -0.6003  0.3680  0.2903
23438SOL    HW177429   9.107   5.510   4.773  2.3846 -2.2892  1.8599
23438SOL    HW277430   9.171   5.503   4.636  0.5636 -0.7483  0.8815
23439SOL     OW77431   6.039   7.383   6.349  0.2919  0.2688 -0.2201
23439SOL    HW177432   6.067   7.324   6.419 -0.8270 -1.0328 -0.8281
23439SOL    HW277433   5.973   7.438   6.389 -0.5538 -0.6643 -0.2831
23440SOL     OW77434   9.688   0.523   2.389  0.4692  0.0638  0.2771
23440SOL    HW177435   9.691   0.486   2.477  0.2645 -2.2175 -0.5978
23440SOL    HW277436   9.613   0.581   2.389  0.2043 -0.2693  1.4881
23441SOL     OW77437   0.941   5.947  12.585  0.5537  0.0784  0.2694
23441SOL    HW177438   1.025   5.969  12.545 -0.2743  1.4598 -0.7790
23441SOL    HW277439   0.879   6.008  12.546 -0.3513  1.4709  3.5465
23442SOL     OW77440  12.341  11.685   8.767 -0.1822 -0.0631  0.1762
23442SOL    HW177441  12.415  11.659   8.712 -0.9691  0.7108 -1.3214
23442SOL    HW277442  12.308  11.602   8.803  0.4413 -0.5879 -0.4201
23443SOL     OW77443   6.079   1.345   2.233 -0.1310  0.3974 -0.4065
23443SOL    HW177444   6.047   1.430   2.204  1.1947  1.0213 -0.0962
23443SOL    HW277445   6.136   1.365   2.307 -1.5719 -0.9507  1.1474
23444SOL     OW77446   6.137   6.038   1.534  0.1645  0.1452 -0.7235
23444SOL    HW177447   6.181   6.064   1.453 -0.4247  0.6643 -0.8805
23444SOL    HW277448   6.168   5.948   1.551  0.4661  0.1211 -1.3935
23445SOL     OW77449   7.596   2.912   2.910  0.1838 -0.2013  0.1875
23445SOL    HW177450   7.570   2.843   2.849 -0.1617  1.5515 -1.7469
23445SOL    HW277451   7.674   2.877   2.953  0.4117 -1.5295 -1.1979
23446SOL     OW77452   8.844  11.739   2.007 -0.5775 -0.1475 -0.2614
23446SOL    HW177453   8.923  11.686   2.000 -0.1095  0.3625  0.9090
23446SOL    HW277454   8.772  11.676   1.998 -0.0328 -0.9308  0.6402
23447SOL     OW77455   9.277   1.767   5.130  0.2639  0.6735 -0.0064
23447SOL    HW177456   9.346   1.746   5.068  1.5305  2.1812  0.8233
23447SOL    HW277457   9.259   1.860   5.115  0.3627  0.9765  1.6477
23448SOL     OW77458   7.737   9.598   7.475 -0.2851 -0.2363 -0.4595
23448SOL    HW177459   7.791   9.527   7.440 -1.3706 -0.4900 -1.6963
23448SOL    HW277460   7.669   9.554   7.525  1.2613  0.1227  2.1434
23449SOL     OW77461   8.077   6.141  12.053  0.0566 -0.4299 -0.2211
23449SOL    HW177462   8.026   6.222  12.054 -1.2431 -1.2170 -1.1943
23449SOL    HW277463   8.167   6.170  12.036 -0.1502  0.9025  0.7529
23450SOL     OW77464   4.098   0.982   8.349 -0.0846  0.9330  0.4673
23450SOL    HW177465   4.192   0.988   8.332 -0.0795 -1.3134 -0.5506
23450SOL    HW277466   4.060   0.953   8.266 -1.5630  0.8568  1.1360
23451SOL     OW77467   2.977   0.047   5.483  0.4754  0.0761 -0.2210
23451SOL    HW177468   2.903  -0.005   5.453  0.0289  0.5382  0.0781
23451SOL    HW277469   3.012  -0.002   5.558  1.0761 -0.6406 -0.9441
23452SOL     OW77470  10.638   4.754  10.444  0.2603 -0.5247 -0.0330
23452SOL    HW177471  10.602   4.841  10.462 -1.2914 -1.4506  1.6016
23452SOL    HW277472  10.707   4.770  10.379 -2.3515  1.5097 -2.5947
23453SOL     OW77473   1.445   7.763   8.469  0.2598 -0.4673 -0.5683
23453SOL    HW177474   1.509   7.825   8.434 -0.6070  0.0643 -1.2643
23453SOL    HW277475   1.360   7.802   8.447 -0.3001 -1.2811  0.1106
23454SOL     OW77476   4.744   1.566   4.137 -0.9342 -0.5765  0.0432
23454SOL    HW177477   4.837   1.557   4.114 -0.9423 -0.8414  0.1074
23454SOL    HW277478   4.708   1.622   4.069 -0.6865 -0.3174  0.1242
23455SOL     OW77479   7.778   7.199   3.031  0.0944 -0.0135  0.0072
23455SOL    HW177480   7.688   7.178   3.057  0.1770  0.8713  1.0574
23455SOL    HW277481   7.782   7.173   2.939 -1.1171 -0.4367  0.0507
23456SOL     OW77482   9.437   9.149   4.658  0.1985 -0.2169 -0.2763
23456SOL    HW177483   9.463   9.127   4.747  1.4218 -0.3185 -0.6363
23456SOL    HW277484   9.516   9.187   4.618 -0.5918  0.6935 -1.0374
23457SOL     OW77485   0.765   4.082  10.036  0.2347 -0.1321 -0.2577
23457SOL    HW177486   0.675   4.109  10.055  0.4845 -0.8251  2.2901
23457SOL    HW277487   0.763   3.987  10.045  0.9504 -0.2878 -1.5834
23458SOL     OW77488   5.284   5.950   3.934 -0.6428  0.1081  0.2388
23458SOL    HW177489   5.321   5.876   3.983  0.8295  0.4942 -0.2156
23458SOL    HW277490   5.210   5.913   3.886  0.2152 -1.1441 -0.1770
23459SOL     OW77491   0.515   2.147  11.946  0.1197  0.3956 -0.3549
23459SOL    HW177492   0.516   2.082  11.875 -0.2542 -0.4215  0.3644
23459SOL    HW277493   0.533   2.230  11.903 -1.5595  0.1407 -1.6618
23460SOL     OW77494  11.102   8.828   1.462  0.2278 -0.1520 -1.1309
23460SOL    HW177495  11.196   8.808   1.458  0.0976 -0.9447 -0.5693
23460SOL    HW277496  11.061   8.756   1.414 -0.0644  0.5377 -1.9413
23461SOL     OW77497  12.736  12.522   3.101 -0.2557 -0.2308  0.4058
23461SOL    HW177498  12.732  12.555   3.011 -0.0590 -0.5118  0.2899
23461SOL    HW277499  12.822  12.551   3.133  0.3474 -1.4522 -0.0350
23462SOL     OW77500   1.519   9.888   3.669 -0.5203  0.1840  0.3727
23462SOL    HW177501   1.433   9.923   3.647 -0.3538  0.2864 -0.1140
23462SOL    HW277502   1.577   9.921   3.602 -0.0071  0.4851  0.9554
23463SOL     OW77503  12.415   7.703   1.166 -0.4875 -0.5608  0.1837
23463SOL    HW177504  12.399   7.744   1.251 -0.7918  1.2240 -0.6693
23463SOL    HW277505  12.328   7.690   1.129 -0.4017 -2.2369  0.5209
23464SOL     OW77506   7.467   2.873   4.583 -0.9290  0.3110 -0.1202
23464SOL    HW177507   7.387   2.843   4.541 -0.3169  0.2822 -1.3086
23464SOL    HW277508   7.479   2.813   4.657  0.1141 -2.3507 -2.2607
23465SOL     OW77509   1.976  10.914   3.026  0.5405  0.7888  0.0788
23465SOL    HW177510   1.966  10.875   2.939  1.3023  1.4902 -0.3354
23465SOL    HW277511   1.901  10.973   3.034 -0.5291 -0.5948  0.6456
23466SOL     OW77512   4.937   2.058  12.786 -0.7711  0.9812  0.1301
23466SOL    HW177513   4.999   2.122  12.820 -2.4632  3.6304 -1.3784
23466SOL    HW277514   4.857   2.073  12.836 -1.0586 -0.3441  0.0959
23467SOL     OW77515   4.326   4.103  12.524  0.4446 -0.3584  0.5260
23467SOL    HW177516   4.307   4.066  12.610 -0.3753 -1.6603 -0.1794
23467SOL    HW277517   4.421   4.100  12.517  0.4275 -2.0684  0.6408
23468SOL     OW77518   7.435   2.593   0.710  0.1961  0.0239 -0.6766
23468SOL    HW177519   7.425   2.516   0.654  0.5972 -0.7972  0.3392
23468SOL    HW277520   7.419   2.667   0.652 -0.5015 -0.8298 -1.6145
23469SOL     OW77521   4.773  11.036   4.100 -0.6756  0.2023 -0.2589
23469SOL    HW177522   4.741  11.122   4.128 -0.2495 -0.2522  1.7695
23469SOL    HW277523   4.732  10.974   4.160  1.2270 -0.7203  0.1657
23470SOL     OW77524   5.556   0.883   7.656 -0.3624  0.5501 -0.3832
23470SOL    HW177525   5.494   0.860   7.587  0.3025 -1.8168 -0.2820
23470SOL    HW277526   5.637   0.903   7.610  0.4147 -2.1508 -0.3516
23471SOL     OW77527   4.005   3.646   8.449 -0.5475  0.2272 -0.5119
23471SOL    HW177528   3.915   3.674   8.462  0.2650  1.9413  2.0336
23471SOL    HW277529   4.056   3.727   8.446  1.1788 -0.7469  0.7510
23472SOL     OW77530   6.992   9.248   9.322 -0.0355  0.2590  0.6428
23472SOL    HW177531   7.010   9.196   9.400 -1.3983  2.2100  2.3795
23472SOL    HW277532   6.931   9.315   9.352 -2.7835 -0.4634 -2.6850
23473SOL     OW77533   0.567   7.900   0.544  0.5738 -0.8629  0.2476
23473SOL    HW177534   0.521   7.852   0.475 -0.8855 -2.0440  1.9354
23473SOL    HW277535   0.654   7.861   0.547  0.4720 -1.1656 -0.5582
23474SOL     OW77536   2.426   4.164   8.229 -0.3575 -0.2079  1.0100
23474SOL    HW177537   2.419   4.207   8.144  2.3617  1.3379  1.4249
23474SOL    HW277538   2.435   4.071   8.210  0.6265  0.1583 -0.4719
23475SOL     OW77539   4.918   6.954   1.303 -0.0974  0.3564  0.4558
23475SOL    HW177540   4.847   6.891   1.290  0.1937 -0.0151  0.6446
23475SOL    HW277541   4.929   6.958   1.398  0.0837  0.4652  0.4297
23476SOL     OW77542   0.132   9.448   3.491 -0.0265  0.4834 -0.0539
23476SOL    HW177543   0.076   9.422   3.418  0.3303 -0.2179 -0.0944
23476SOL    HW277544   0.076   9.501   3.547 -0.9351 -0.7111  0.2198
23477SOL     OW77545  10.395   5.806   3.966 -0.3572 -0.4276  0.1996
23477SOL    HW177546  10.439   5.725   3.938 -0.8368 -1.2986  1.8162
23477SOL    HW277547  10.310   5.776   4.000 -0.9063  0.8702  0.0138
23478SOL     OW77548   5.423   8.492   0.179  0.4725  0.4673  0.2485
23478SOL    HW177549   5.456   8.562   0.123 -0.9044 -2.8630 -5.6154
23478SOL    HW277550   5.329   8.510   0.187  0.2632 -0.1900 -0.5751
23479SOL     OW77551   3.099   5.976   5.328  0.4176 -0.0563  0.0434
23479SOL    HW177552   3.162   5.907   5.350  0.8870  0.6387  0.9868
23479SOL    HW277553   3.053   5.994   5.410 -0.5517 -0.0816 -0.4758
23480SOL     OW77554   9.430   7.908   5.660 -0.4709  0.4042 -0.3025
23480SOL    HW177555   9.457   7.844   5.595  1.1867  0.1525  0.5788
23480SOL    HW277556   9.508   7.961   5.676 -0.8747  0.5692  1.3435
23481SOL     OW77557  12.712   4.541   9.031  0.4983 -0.1169  0.0911
23481SOL    HW177558  12.619   4.548   9.050  0.8358  1.5271  1.4976
23481SOL    HW277559  12.726   4.596   8.954  0.3818  0.1317  0.2466
23482SOL     OW77560   5.380  11.536   3.091  0.5691 -0.6486 -0.1819
23482SOL    HW177561   5.288  11.511   3.098  0.8837 -1.8225 -0.0040
23482SOL    HW277562   5.422  11.497   3.168  1.9769 -3.9028 -2.3766
23483SOL     OW77563   3.430  12.751   7.520  0.0069 -0.1846  0.5633
23483SOL    HW177564   3.457  12.806   7.447 -2.1391 -1.1925 -1.1335
23483SOL    HW277565   3.419  12.664   7.481 -1.4313 -0.7074  2.0246
23484SOL     OW77566  12.755   8.415   5.918  0.2800  0.4121 -0.3853
23484SOL    HW177567  12.692   8.482   5.892 -1.4551 -0.7740  0.5321
23484SOL    HW277568  12.732   8.338   5.865  1.2096  0.0675 -0.3127
23485SOL     OW77569   1.907  11.342   5.287  0.8065  0.0963  0.0655
23485SOL    HW177570   1.815  11.333   5.311  0.4668 -1.5459 -1.6733
23485SOL    HW277571   1.940  11.252   5.284  2.4653  0.6505  0.5789
23486SOL     OW77572   7.265  10.001  12.666  0.0985 -0.5662  0.1553
23486SOL    HW177573   7.322  10.042  12.601  0.0445 -1.1428 -0.2573
23486SOL    HW277574   7.220   9.931  12.619  2.1501 -2.8777  1.4423
23487SOL     OW77575   7.978   2.939  11.079  0.0683 -0.4299 -0.5028
23487SOL    HW177576   8.052   2.922  11.020  2.0793  1.1020  1.3855
23487SOL    HW277577   7.924   3.003  11.032  1.0164 -0.0840 -1.1602
23488SOL     OW77578   8.344   5.985   1.741 -0.2959  0.1129  0.0709
23488SOL    HW177579   8.354   5.890   1.742  1.2891  0.1958  2.8683
23488SOL    HW277580   8.264   6.002   1.791 -0.8718  0.2841 -0.8724
23489SOL     OW77581   2.884  12.689  10.343 -0.0619  0.3219 -0.1791
23489SOL    HW177582   2.953  12.715  10.405 -0.3353  4.4502 -1.2909
23489SOL    HW277583   2.817  12.757  10.352 -1.6307 -0.7259 -2.7327
23490SOL     OW77584   0.045   1.309   9.118  0.1762  0.4236 -0.1812
23490SOL    HW177585   0.031   1.250   9.045  0.5478  0.8470 -0.6036
23490SOL    HW277586  -0.033   1.364   9.122 -0.3241 -0.3235  0.4335
23491SOL     OW77587   7.544   5.289  10.993 -0.3474 -0.3792 -0.3455
23491SOL    HW177588   7.496   5.363  11.032  0.0400 -0.8016  0.9837
23491SOL    HW277589   7.505   5.279  10.906  0.0908  1.8575 -0.8761
23492SOL     OW77590  12.021   9.975   5.461  0.4072 -0.8205 -0.6085
23492SOL    HW177591  12.021   9.881   5.443  2.1408 -0.9710 -0.0087
23492SOL    HW277592  12.027  10.016   5.375  1.1101 -1.3092 -0.7945
23493SOL     OW77593   9.051   2.489   4.318  0.0894 -1.0931  0.8635
23493SOL    HW177594   9.027   2.396   4.325 -0.6346 -0.9743  0.0307
23493SOL    HW277595   9.094   2.497   4.233 -1.7859 -0.2773 -0.0636
23494SOL     OW77596  11.924  11.865   0.137  0.2076  0.3764 -0.2702
23494SOL    HW177597  11.907  11.775   0.111  1.0908 -0.2220  1.0793
23494SOL    HW277598  12.020  11.874   0.133  0.0780  1.5658 -1.3184
23495SOL     OW77599   8.263   3.119  11.378  0.1414  0.1000  0.1704
23495SOL    HW177600   8.239   3.193  11.322 -1.9534 -0.8321 -0.2572
23495SOL    HW277601   8.359   3.123  11.384  0.1879  1.9081 -1.1103
23496SOL     OW77602   8.880   3.748   3.554  0.2491 -0.3963  0.4403
23496SOL    HW177603   8.935   3.826   3.542  1.6000 -1.2953  0.6565
23496SOL    HW277604   8.813   3.777   3.617 -0.9596  1.3794 -1.5130
23497SOL     OW77605  11.217   2.585   1.713 -0.0229  0.0378  0.6407
23497SOL    HW177606  11.155   2.658   1.710  0.1098  0.2421  2.2273
23497SOL    HW277607  11.164   2.508   1.691 -0.5925  0.3534  0.8906
23498SOL     OW77608  11.123   4.555  12.185  0.5413 -0.4431 -0.2425
23498SOL    HW177609  11.166   4.497  12.247 -1.8700 -1.4882  0.5319
23498SOL    HW277610  11.054   4.502  12.145 -1.9183  1.8373  0.6504
23499SOL     OW77611   5.060   9.065   0.849  0.1430 -0.0543 -0.6494
23499SOL    HW177612   5.031   9.120   0.776 -0.1578 -0.2334 -0.6680
23499SOL    HW277613   4.987   9.066   0.911  0.7327  0.7846  0.0506
23500SOL     OW77614   9.796   6.780   8.364 -0.3019 -0.0743  0.9253
23500SOL    HW177615   9.774   6.865   8.401 -0.0407 -0.0442  1.0134
23500SOL    HW277616   9.889   6.786   8.343 -0.7957  0.4813 -1.2993
23501SOL     OW77617  12.787   2.460   7.290  0.7919 -0.3086  0.2307
23501SOL    HW177618  12.873   2.493   7.317  1.0336 -1.1169  0.5094
23501SOL    HW277619  12.796   2.444   7.196  0.1533  1.9025 -0.2566
23502SOL     OW77620   3.616   4.334  10.632  0.2535 -0.2154 -0.4763
23502SOL    HW177621   3.662   4.250  10.642  2.2708  0.8597 -0.0466
23502SOL    HW277622   3.528   4.318  10.666  1.3019 -1.5730  1.8872
23503SOL     OW77623   3.124  12.014  10.542  0.1926  0.1794  0.2580
23503SOL    HW177624   3.043  11.966  10.524 -0.7234  1.9001 -0.4877
23503SOL    HW277625   3.139  12.002  10.636 -0.0437 -1.4554  0.1075
23504SOL     OW77626  11.390  12.793   2.528  0.1617 -0.5800  0.2406
23504SOL    HW177627  11.451  12.739   2.478 -0.2537 -0.9900  0.1602
23504SOL    HW277628  11.368  12.739   2.604 -1.9074 -1.4686 -0.9016
23505SOL     OW77629  11.966   0.128   1.687 -0.1166 -0.4770 -0.1536
23505SOL    HW177630  12.033   0.065   1.715  0.1813 -0.2694 -0.4008
23505SOL    HW277631  11.967   0.124   1.592 -0.1670 -0.1696 -0.1679
23506SOL     OW77632   4.918   9.742   6.962  0.0701  0.0151  0.2087
23506SOL    HW177633   5.005   9.726   6.926 -0.1887  0.0873 -0.4711
23506SOL    HW277634   4.929   9.736   7.057  1.0552  1.1685  0.1985
23507SOL     OW77635   0.191  11.254   7.535  0.2244  1.0011 -0.2701
23507SOL    HW177636   0.235  11.178   7.574  1.5045  0.9956 -1.6289
23507SOL    HW277637   0.153  11.300   7.609  0.1839 -0.4940  0.6738
23508SOL     OW77638   2.789   9.478   5.157  0.4008 -0.3668 -0.0557
23508SOL    HW177639   2.702   9.471   5.197  0.3047  1.3781  0.0765
23508SOL    HW277640   2.772   9.473   5.063  0.2352 -0.6201 -0.0154
23509SOL     OW77641   2.103   6.061   5.268 -0.3940  0.1181 -0.1118
23509SOL    HW177642   2.194   6.039   5.286 -0.2211  1.3545  0.6728
23509SOL    HW277643   2.098   6.066   5.173 -0.0784 -1.5991 -0.2558
23510SOL     OW77644  11.514   4.503   8.151 -0.0453 -0.4639  0.1722
23510SOL    HW177645  11.554   4.561   8.086 -1.4314 -0.2133 -0.4960
23510SOL    HW277646  11.466   4.438   8.099 -1.7162  0.1238  0.9029
23511SOL     OW77647   3.235   9.600   8.042 -0.2521 -0.2335  0.1758
23511SOL    HW177648   3.281   9.524   8.078  0.0958  0.4246  1.1542
23511SOL    HW277649   3.249   9.593   7.947  0.0249 -1.2203  0.2765
23512SOL     OW77650   9.770   9.176   4.810  0.3400 -0.4063 -0.3349
23512SOL    HW177651   9.680   9.177   4.843  0.1956 -1.7486 -0.6522
23512SOL    HW277652   9.785   9.266   4.779 -1.4566 -0.5607 -1.8150
23513SOL     OW77653   7.279   4.757   8.503  0.3019  0.3423 -0.4720
23513SOL    HW177654   7.329   4.698   8.560  0.3485  0.1834 -0.6765
23513SOL    HW277655   7.331   4.838   8.501  0.8077  0.0121 -1.0768
23514SOL     OW77656   1.315   8.594   0.476 -0.0915  0.1453  0.0212
23514SOL    HW177657   1.406   8.571   0.492 -0.1064  0.7860  1.1193
23514SOL    HW277658   1.307   8.684   0.508 -1.3491 -0.2553  0.9147
23515SOL     OW77659  10.937  10.446   7.210 -0.0099  0.1612 -0.4448
23515SOL    HW177660  10.977  10.490   7.285 -2.2971  0.6728  0.5857
23515SOL    HW277661  10.911  10.517   7.151 -2.3243  0.1989  0.5035
23516SOL     OW77662   1.615  11.727   1.424 -0.0773 -0.5914 -0.6106
23516SOL    HW177663   1.672  11.772   1.362 -0.5168  0.7452 -0.0768
23516SOL    HW277664   1.535  11.708   1.375 -0.3276  0.2390 -0.5292
23517SOL     OW77665   4.565  10.717   3.867  0.4326  0.2448 -0.3931
23517SOL    HW177666   4.659  10.721   3.850  0.6682 -1.5334  0.2577
23517SOL    HW277667   4.553  10.636   3.917 -1.5197  0.1214 -0.9752
23518SOL     OW77668   1.902  12.371   0.950  0.1498  0.5891  0.1997
23518SOL    HW177669   1.850  12.419   1.015 -1.4327  1.1122 -1.3453
23518SOL    HW277670   1.935  12.439   0.891  0.7320  0.0488 -0.1139
23519SOL     OW77671  12.125   3.039   2.429 -0.0197 -0.2295  0.1537
23519SOL    HW177672  12.095   2.954   2.397 -2.3211  0.4371  0.3524
23519SOL    HW277673  12.050   3.074   2.477  0.8719  1.9033  0.0925
23520SOL     OW77674   5.246  12.145   3.176 -0.0929 -0.0702 -0.1856
23520SOL    HW177675   5.212  12.097   3.251  1.2927  1.3238  1.4308
23520SOL    HW277676   5.183  12.216   3.162 -0.1334 -0.0841 -0.0736
23521SOL     OW77677   2.086  12.661   4.743  0.2392  0.1866  0.5456
23521SOL    HW177678   2.007  12.703   4.776  0.1259  1.1263 -0.8385
23521SOL    HW277679   2.148  12.733   4.730  0.5126 -0.2371 -0.5970
23522SOL     OW77680   1.551   7.086   1.518 -0.2804 -0.1285  0.4217
23522SOL    HW177681   1.479   7.147   1.538  0.9205  1.7248 -0.6369
23522SOL    HW277682   1.535   7.060   1.428  0.8379  1.0347 -0.1402
23523SOL     OW77683   5.452  12.738   1.974 -0.5038 -0.1547  0.0475
23523SOL    HW177684   5.519  12.779   2.029 -1.1425  0.2364  0.5490
23523SOL    HW277685   5.407  12.812   1.933 -0.2467 -0.4334 -0.7674
23524SOL     OW77686   6.697   4.100   4.521  0.2887  0.0184 -0.0027
23524SOL    HW177687   6.609   4.115   4.557 -0.8575 -1.9505 -1.7194
23524SOL    HW277688   6.749   4.072   4.596 -1.3739 -1.6574  0.6238
23525SOL     OW77689   6.254   6.256  10.172 -0.1247  0.1372  0.1022
23525SOL    HW177690   6.275   6.185  10.111  1.2656 -1.4875  2.3176
23525SOL    HW277691   6.165   6.236  10.202  0.0883 -0.4367  0.3711
23526SOL     OW77692   9.008  12.598   5.589 -0.2120  0.0750 -0.1515
23526SOL    HW177693   9.071  12.599   5.661 -1.8598  2.1758  1.3734
23526SOL    HW277694   8.931  12.553   5.625  0.3099 -2.5741 -2.0172
23527SOL     OW77695   9.383   1.837  10.882 -0.2442 -0.2546 -1.2159
23527SOL    HW177696   9.432   1.914  10.856 -0.1120 -0.0853 -0.4883
23527SOL    HW277697   9.393   1.776  10.809  1.9809 -0.6606 -0.6588
23528SOL     OW77698   4.286   4.165   4.262 -0.5527 -0.0662 -0.8239
23528SOL    HW177699   4.227   4.234   4.291  2.2230  1.6543  1.3221
23528SOL    HW277700   4.330   4.202   4.185  1.6573  1.1507  0.9117
23529SOL     OW77701   9.853   7.564   6.711  0.2989  0.4938  0.2664
23529SOL    HW177702   9.855   7.610   6.795  2.3918 -1.7815  1.5890
23529SOL    HW277703   9.768   7.521   6.708  0.4011  0.2020  1.4383
23530SOL     OW77704   4.997   1.389   1.774 -0.0786 -0.0318  0.1763
23530SOL    HW177705   4.915   1.432   1.748  0.8833  1.2838 -0.8227
23530SOL    HW277706   4.969   1.307   1.815 -1.8826  0.3222 -0.2549
23531SOL     OW77707  11.510  11.091   7.674  0.4687 -0.2012 -0.6173
23531SOL    HW177708  11.420  11.072   7.646 -0.0409  2.1744 -0.8097
23531SOL    HW277709  11.506  11.094   7.770  0.2132  0.3622 -0.6410
23532SOL     OW77710   7.919   4.658   6.289  0.1872 -0.4335 -0.0372
23532SOL    HW177711   7.913   4.750   6.261 -1.4022  0.4998  3.0158
23532SOL    HW277712   7.850   4.614   6.241 -0.3586  0.4099 -0.0502
23533SOL     OW77713   2.539   2.347   8.863 -0.2044  0.4265 -0.1069
23533SOL    HW177714   2.589   2.428   8.861 -0.5747  0.6488 -0.6789
23533SOL    HW277715   2.461   2.366   8.809 -0.6367 -0.0770  0.3331
23534SOL     OW77716   2.445  11.662   0.859  0.0172  0.2017  0.0672
23534SOL    HW177717   2.486  11.704   0.934  0.5156 -0.9637  0.4681
23534SOL    HW277718   2.443  11.730   0.791  2.6705  0.3199  0.0162
23535SOL     OW77719   3.205   5.837   6.409  0.1352  0.7295  0.2251
23535SOL    HW177720   3.284   5.874   6.447 -0.4393  1.4455  0.7454
23535SOL    HW277721   3.173   5.775   6.475 -0.2639  1.1629  0.4441
23536SOL     OW77722   0.640   6.907  12.460 -0.0542  0.2164 -0.0242
23536SOL    HW177723   0.715   6.937  12.408 -0.7998  0.2687 -1.1194
23536SOL    HW277724   0.646   6.956  12.541  0.2274  1.4017 -0.7340
23537SOL     OW77725   9.407  11.193   4.537  0.8857  0.3347 -0.5505
23537SOL    HW177726   9.407  11.211   4.631 -0.2067  1.3953 -0.7232
23537SOL    HW277727   9.500  11.191   4.513  1.2664 -1.5521  0.7939
23538SOL     OW77728   6.648   0.160   4.265  0.2686 -0.1936 -0.1284
23538SOL    HW177729   6.717   0.182   4.328  0.0968 -0.6841  0.2268
23538SOL    HW277730   6.588   0.234   4.268  0.5558  0.0418 -0.1307
23539SOL     OW77731   0.871   9.916   3.781 -0.2825 -0.5012 -0.6399
23539SOL    HW177732   0.954   9.952   3.812 -1.1722 -0.4709  1.9147
23539SOL    HW277733   0.831   9.987   3.730  0.7286 -0.1275 -0.9421
23540SOL     OW77734   9.610   6.231   7.937  0.0069  0.4696  0.2283
23540SOL    HW177735   9.563   6.283   8.003 -1.4940  1.1988 -1.3412
23540SOL    HW277736   9.591   6.140   7.960  0.1391  0.6831  1.2280
23541SOL     OW77737   5.949   5.969   0.198 -0.3893 -0.3991  0.1981
23541SOL    HW177738   6.035   5.928   0.206  0.0878  0.7940  1.4427
23541SOL    HW277739   5.947   6.006   0.110  0.8362  0.5580  0.5540
23542SOL     OW77740   1.110   8.554   5.862 -0.3468  0.4240  0.5187
23542SOL    HW177741   1.108   8.561   5.767 -2.7018  0.8598  0.5391
23542SOL    HW277742   1.185   8.608   5.888  0.3784  0.2331 -1.0786
23543SOL     OW77743   0.556  11.477   3.531  0.3569 -0.0002 -0.5651
23543SOL    HW177744   0.524  11.486   3.441 -0.9578  0.9882 -0.0246
23543SOL    HW277745   0.482  11.445   3.581  0.7311  0.5669  0.3844
23544SOL     OW77746   9.806  10.221   6.211  0.1308 -0.3146 -0.4103
23544SOL    HW177747   9.882  10.269   6.180  0.6972 -1.3131 -0.6277
23544SOL    HW277748   9.731  10.274   6.184  0.7238  0.3309 -0.8252
23545SOL     OW77749   6.283   0.316  10.423 -0.0087 -0.0606  0.9080
23545SOL    HW177750   6.248   0.349  10.340  0.8031  0.7480  0.8743
23545SOL    HW277751   6.319   0.394  10.466 -0.0278 -0.5508  1.8178
23546SOL     OW77752   5.240   7.482  10.709 -0.4973 -0.0511 -0.1567
23546SOL    HW177753   5.218   7.391  10.688  0.6033 -0.0432 -1.4957
23546SOL    HW277754   5.258   7.522  10.624 -1.6506  1.6310  0.3459
23547SOL     OW77755   2.198   1.215  12.891 -0.5937 -0.0874 -0.2484
23547SOL    HW177756   2.119   1.265  12.875 -0.4614 -0.4005 -2.0046
23547SOL    HW277757   2.184   1.175  12.977 -2.5188 -0.4917 -0.7061
23548SOL     OW77758  12.942   2.794   1.874  0.0638 -0.3710  0.5145
23548SOL    HW177759  12.994   2.766   1.949  1.0975  0.1274  0.0061
23548SOL    HW277760  13.005   2.833   1.814 -1.1422  2.0043  0.6827
23549SOL     OW77761   4.231   9.719   0.544 -0.0542 -0.2901 -0.7558
23549SOL    HW177762   4.200   9.643   0.593 -0.1507 -1.0944 -2.0024
23549SOL    HW277763   4.153   9.753   0.501  0.3125 -0.7411 -1.8220
23550SOL     OW77764   3.865   3.621   8.921 -0.0605  0.5754 -0.2745
23550SOL    HW177765   3.947   3.600   8.877 -0.5291 -0.2847 -0.7740
23550SOL    HW277766   3.802   3.632   8.849 -0.7663 -0.5252  0.1564
23551SOL     OW77767   3.837   5.065  10.642 -0.2025 -0.4035  0.1381
23551SOL    HW177768   3.746   5.068  10.670 -0.7582 -1.8400 -1.3372
23551SOL    HW277769   3.857   5.154  10.615 -1.4365 -0.2298 -0.2561
23552SOL     OW77770   1.413   0.249   3.233 -0.3296 -0.2645  0.6271
23552SOL    HW177771   1.426   0.284   3.145 -0.8541  0.4499  0.8261
23552SOL    HW277772   1.349   0.308   3.273 -3.2669 -2.8993  0.1339
23553SOL     OW77773   2.436  12.697   2.721  0.5090 -0.1216 -0.5360
23553SOL    HW177774   2.368  12.708   2.655 -0.3427 -0.5618  0.2330
23553SOL    HW277775   2.396  12.730   2.802  1.4104  0.1178 -0.1743
23554SOL     OW77776   0.006  11.302   5.527 -0.1557  0.3348 -0.3987
23554SOL    HW177777  -0.073  11.329   5.573 -0.8058 -0.5008 -0.9898
23554SOL    HW277778   0.035  11.223   5.572  0.4897  0.7712 -0.0334
23555SOL     OW77779   7.715   6.537   3.214  0.2273 -0.4942  0.2950
23555SOL    HW177780   7.629   6.501   3.236  0.1740 -0.5088  0.0719
23555SOL    HW277781   7.773   6.506   3.284 -0.5187  1.9872  2.1242
23556SOL     OW77782   4.397  10.015   7.037  0.1613 -0.4345  0.5940
23556SOL    HW177783   4.340  10.016   7.114  0.9314  1.7827  1.2080
23556SOL    HW277784   4.346   9.971   6.970 -1.1513 -1.0053  1.9154
23557SOL     OW77785  11.183   3.082   0.976  0.0207 -0.0145  0.5147
23557SOL    HW177786  11.195   3.165   0.931  0.1892  0.3025  1.1405
23557SOL    HW277787  11.167   3.019   0.906  0.5729  0.4177 -0.0103
23558SOL     OW77788  12.760  11.717   0.412  0.1992 -0.7733 -0.1381
23558SOL    HW177789  12.702  11.736   0.486 -0.5922  3.0964 -1.4954
23558SOL    HW277790  12.838  11.769   0.429 -0.2004  0.5802 -2.1286
23559SOL     OW77791  12.640   8.816  12.157 -0.1694 -0.0153 -0.1810
23559SOL    HW177792  12.571   8.750  12.163  0.2692 -0.4149  0.5242
23559SOL    HW277793  12.714   8.769  12.119 -0.5049  0.6051 -1.6916
23560SOL     OW77794   0.290  12.903   3.224 -0.3289 -0.5320  0.4738
23560SOL    HW177795   0.305  12.978   3.166 -2.0744 -0.6929 -0.2490
23560SOL    HW277796   0.248  12.838   3.168 -1.1567 -1.0748  1.6827
23561SOL     OW77797  11.354  11.033   3.304 -0.4171 -0.1008  0.3554
23561SOL    HW177798  11.343  11.103   3.368  1.9876 -0.8682  1.7388
23561SOL    HW277799  11.383  11.077   3.224  0.6502  0.5341  1.0774
23562SOL     OW77800  12.306   1.737  10.873  0.2130  0.5471  0.2346
23562SOL    HW177801  12.275   1.659  10.828 -0.0128  1.5432 -1.4205
23562SOL    HW277802  12.385   1.708  10.919  0.0387 -0.6893 -0.2062
23563SOL     OW77803  12.351  10.794  12.650 -0.1920 -0.0908 -0.6366
23563SOL    HW177804  12.446  10.796  12.661 -0.4833  0.2625  2.7152
23563SOL    HW277805  12.336  10.724  12.586  2.2086 -2.2068  0.9328
23564SOL     OW77806   5.368   8.206   6.303 -0.3612  0.2658 -0.3999
23564SOL    HW177807   5.307   8.256   6.249  0.4460 -1.3590 -2.9935
23564SOL    HW277808   5.454   8.240   6.279  0.0554 -0.9136 -0.6529
23565SOL     OW77809   7.514   3.646  11.969  0.4129  0.5026 -0.3152
23565SOL    HW177810   7.580   3.667  11.903 -1.8411  2.7648 -2.0556
23565SOL    HW277811   7.522   3.717  12.033 -0.4292  0.9398 -0.6766
23566SOL     OW77812   9.460   5.126   6.147  0.0246 -0.2303 -0.1786
23566SOL    HW177813   9.456   5.182   6.224 -0.4790 -0.8725  0.2791
23566SOL    HW277814   9.385   5.067   6.157 -1.0191  0.7111 -1.9711
23567SOL     OW77815  10.831   4.636   6.888  0.5852  0.7720  0.3785
23567SOL    HW177816  10.762   4.666   6.947 -0.2829 -0.0206 -0.2070
23567SOL    HW277817  10.820   4.689   6.809 -0.5405 -0.5658 -0.4095
23568SOL     OW77818  10.861   4.440   2.286 -0.6345 -0.0243  0.3138
23568SOL    HW177819  10.849   4.528   2.251  1.6127  0.3670  0.3737
23568SOL    HW277820  10.917   4.396   2.222 -0.4633 -0.8958  1.0402
23569SOL     OW77821   8.908   0.115   4.268 -0.3975 -0.0429  0.3254
23569SOL    HW177822   8.857   0.091   4.191 -1.1587 -0.0272  0.8037
23569SOL    HW277823   8.888   0.047   4.332  1.3329 -0.8435  0.0674
23570SOL     OW77824   0.385   3.303   7.239  0.8403  0.1619 -0.7322
23570SOL    HW177825   0.353   3.263   7.158 -1.2422  0.3262 -0.0489
23570SOL    HW277826   0.480   3.303   7.230  0.6905 -0.6007 -2.7964
23571SOL     OW77827   1.958  10.840   0.331  0.1555 -0.3542 -0.3552
23571SOL    HW177828   2.052  10.857   0.326  0.6930 -2.3656  1.2227
23571SOL    HW277829   1.933  10.870   0.418 -0.5022 -0.5366 -0.4780
23572SOL     OW77830   6.166   5.138   1.374 -0.0512 -0.2242 -0.3350
23572SOL    HW177831   6.228   5.072   1.405  0.3994  0.2002 -0.3081
23572SOL    HW277832   6.080   5.101   1.391  0.1933 -0.3761  0.6048
23573SOL     OW77833   1.982   6.397  10.847 -0.0899  0.2326  0.3767
23573SOL    HW177834   2.016   6.484  10.867  2.4415 -0.3429 -0.9545
23573SOL    HW277835   2.015   6.342  10.918 -0.0516  0.0379  0.2082
23574SOL     OW77836   1.099   7.918   2.537  0.5460  0.0283 -0.2683
23574SOL    HW177837   1.101   8.006   2.575  0.4875 -0.7765  1.7516
23574SOL    HW277838   1.101   7.859   2.613  0.5346 -1.7220 -1.5546
23575SOL     OW77839   8.974   3.926   7.423  0.2011  0.3161 -0.2852
23575SOL    HW177840   9.060   3.902   7.390 -0.4958  0.5967 -2.5010
23575SOL    HW277841   8.967   3.882   7.507  2.2203 -0.2577 -0.3679
23576SOL     OW77842  11.866   0.609   8.155 -0.9827 -0.2160  0.5393
23576SOL    HW177843  11.823   0.693   8.136 -0.9560 -0.0458  1.2242
23576SOL    HW277844  11.867   0.564   8.070  1.0759  1.4023 -0.3859
23577SOL     OW77845   5.002   6.262  12.128  0.7110  0.0009  0.3779
23577SOL    HW177846   5.074   6.251  12.067  1.9524 -0.3529  1.8582
23577SOL    HW277847   5.022   6.203  12.200 -1.0120 -0.0208  0.8874
23578SOL     OW77848   9.730   8.889   4.639 -0.3947  0.1483  0.3588
23578SOL    HW177849   9.711   8.977   4.608  1.4674  0.2843 -0.4720
23578SOL    HW277850   9.652   8.838   4.616 -1.0636  1.3325 -0.0691
23579SOL     OW77851   3.078   8.247  11.435  0.2628  0.0493 -0.1335
23579SOL    HW177852   3.158   8.301  11.438  0.2783  0.1060 -1.1563
23579SOL    HW277853   3.018   8.296  11.379 -1.6347  1.4533  2.9081
23580SOL     OW77854  10.026   7.545  10.879 -0.2249 -0.0300 -0.4720
23580SOL    HW177855  10.009   7.519  10.788 -2.2394 -0.4527 -0.0155
23580SOL    HW277856  10.054   7.465  10.922  1.3541  0.2934 -0.8004
23581SOL     OW77857  11.380   8.527   7.524 -0.1214 -0.2198 -0.3093
23581SOL    HW177858  11.471   8.533   7.551 -0.1846  1.9118 -0.4090
23581SOL    HW277859  11.330   8.562   7.598 -0.6170  1.2482 -1.2776
23582SOL     OW77860  11.651   3.217   1.043  0.3509 -0.6037  0.3048
23582SOL    HW177861  11.683   3.128   1.056 -0.1283 -0.8526 -0.1959
23582SOL    HW277862  11.557   3.207   1.027 -0.1765  0.1749  2.5646
23583SOL     OW77863  10.684  10.067  10.797 -0.4612  0.7230 -0.3824
23583SOL    HW177864  10.686  10.103  10.709  1.1631 -0.3707 -0.8190
23583SOL    HW277865  10.743  10.124  10.847  1.5209 -0.7803 -0.9007
23584SOL     OW77866   2.003   2.507   5.798  0.1300 -0.0602  0.6692
23584SOL    HW177867   2.021   2.598   5.821 -0.4931  0.2390 -0.0037
23584SOL    HW277868   1.909   2.496   5.814 -0.2964  0.0962 -1.3959
23585SOL     OW77869   2.855   7.140   6.869 -0.0408 -0.0131  0.8645
23585SOL    HW177870   2.926   7.077   6.878  1.2375  1.1838 -0.2858
23585SOL    HW277871   2.775   7.090   6.888  0.9990 -1.6875  0.9956
23586SOL     OW77872  12.037   9.387   4.500 -0.7829  0.2615 -0.0605
23586SOL    HW177873  12.121   9.427   4.480 -1.2814  1.7131  0.6077
23586SOL    HW277874  12.007   9.350   4.417 -0.6486  1.9707 -0.9072
23587SOL     OW77875   6.119  10.638  12.593 -0.7825 -0.1702 -0.3775
23587SOL    HW177876   6.032  10.666  12.622 -1.8062 -2.2414 -1.2635
23587SOL    HW277877   6.179  10.685  12.651 -2.5858 -1.4580  2.8045
23588SOL     OW77878  11.260   2.573  10.622  0.5127 -0.0454 -0.3980
23588SOL    HW177879  11.337   2.624  10.647 -0.1403 -0.1498  1.9976
23588SOL    HW277880  11.266   2.493  10.673  0.4990 -1.6033 -2.6747
23589SOL     OW77881  11.532   4.727  11.884 -0.2969 -0.1001  0.0938
23589SOL    HW177882  11.440   4.727  11.909 -0.5194 -0.8005 -0.6817
23589SOL    HW277883  11.561   4.636  11.895  0.4774  0.2339  0.9305
23590SOL     OW77884   2.187   1.380   4.767  0.6398 -0.6065  0.1542
23590SOL    HW177885   2.116   1.427   4.810 -1.1237 -2.2426 -0.7909
23590SOL    HW277886   2.258   1.381   4.831 -1.0774 -0.9889  2.2022
23591SOL     OW77887  12.805   1.068   4.509 -0.0169 -0.0867 -0.1278
23591SOL    HW177888  12.787   1.001   4.443 -0.7055 -0.2168  0.1839
23591SOL    HW277889  12.812   1.019   4.591  0.8471  0.0709 -0.1001
23592SOL     OW77890  10.143   3.282   1.598 -0.7088  0.1536  0.5773
23592SOL    HW177891  10.175   3.214   1.657  2.7234  0.7449 -0.3533
23592SOL    HW277892  10.164   3.250   1.510 -2.6716  0.7482 -0.1690
23593SOL     OW77893   7.033   1.096   7.402  0.3351 -0.0004 -0.0101
23593SOL    HW177894   6.976   1.163   7.440 -1.0440 -0.6626 -0.8218
23593SOL    HW277895   7.011   1.098   7.308  0.1483 -1.6737 -0.0212
23594SOL     OW77896   6.425   3.687   4.504 -0.1111  0.2793 -0.2521
23594SOL    HW177897   6.354   3.742   4.471 -1.1218  0.1895  1.6421
23594SOL    HW277898   6.381   3.608   4.536  0.8147  0.2571  1.0243
23595SOL     OW77899   9.545   3.447   0.880  0.0138 -0.2991  0.3376
23595SOL    HW177900   9.551   3.421   0.971 -0.2052 -0.5749  0.2736
23595SOL    HW277901   9.617   3.509   0.868 -0.2749  0.1390  0.8301
23596SOL     OW77902   6.075   2.322   1.293 -0.9670 -0.4825 -0.1256
23596SOL    HW177903   6.080   2.250   1.357 -1.8936 -0.6720 -0.2424
23596SOL    HW277904   6.165   2.348   1.278 -0.7192 -0.4905  1.2128
23597SOL     OW77905  11.288   7.323   4.199 -0.2243  0.4061  0.1617
23597SOL    HW177906  11.207   7.281   4.170 -0.6048 -0.2683  2.0555
23597SOL    HW277907  11.258   7.400   4.248  0.3633  1.1672 -0.6560
23598SOL     OW77908   9.219  10.274   5.262  0.0295 -0.1293 -0.2491
23598SOL    HW177909   9.198  10.329   5.337 -0.0433 -0.9616  0.3437
23598SOL    HW277910   9.282  10.210   5.295 -1.2513 -1.5572 -0.4397
23599SOL     OW77911   4.347   4.206   1.456  0.3470 -0.2441  0.2998
23599SOL    HW177912   4.403   4.159   1.394  1.2716  0.4415  0.6015
23599SOL    HW277913   4.260   4.169   1.442  0.9669 -1.7418  0.2252
23600SOL     OW77914   8.399   4.625   9.978  0.5591  0.0460  0.3307
23600SOL    HW177915   8.390   4.715   9.945 -0.3018 -0.7191 -1.6761
23600SOL    HW277916   8.313   4.604  10.014  1.1079  0.4011  1.9181
23601SOL     OW77917   6.146   4.985   8.852 -0.0751 -0.8057  0.1159
23601SOL    HW177918   6.234   5.022   8.857 -1.6200  3.1640  2.2908
23601SOL    HW277919   6.109   5.021   8.772 -0.8361  0.6475  1.0767
23602SOL     OW77920   0.096  11.947   2.573  0.4783 -0.0352  0.2696
23602SOL    HW177921   0.033  11.885   2.609  0.6443 -0.3289  0.0676
23602SOL    HW277922   0.044  12.008   2.522  0.0845  1.1618  2.0147
23603SOL     OW77923   8.743  10.746   3.272  0.5495  0.5789 -0.2157
23603SOL    HW177924   8.741  10.833   3.312  0.1832  0.0827  0.8892
23603SOL    HW277925   8.709  10.687   3.340  1.0462 -0.4695 -0.8437
23604SOL     OW77926   6.684   5.601   8.272 -0.0904  0.3624 -0.1542
23604SOL    HW177927   6.758   5.660   8.290 -0.4361  0.5967  0.5212
23604SOL    HW277928   6.635   5.598   8.354  0.2756 -1.3915  0.0294
23605SOL     OW77929   1.499   9.490   3.579 -0.0486  0.2937 -0.2358
23605SOL    HW177930   1.522   9.401   3.550 -0.1928  0.1733  0.0193
23605SOL    HW277931   1.421   9.512   3.528 -2.0824 -1.0511  2.0842
23606SOL     OW77932   5.481   6.717  11.392 -0.0378 -1.2288  0.3967
23606SOL    HW177933   5.389   6.737  11.374 -0.5441 -0.9859  2.8417
23606SOL    HW277934   5.518   6.694  11.307 -2.5356 -2.0791 -0.5459
23607SOL     OW77935   2.932   8.146   2.049  0.0205  0.5750 -0.0038
23607SOL    HW177936   2.841   8.120   2.034  0.0740 -1.7009  2.7966
23607SOL    HW277937   2.926   8.220   2.109  0.0315  0.6992 -0.1534
23608SOL     OW77938   7.626   1.963   6.535  0.1966 -0.0291  0.6158
23608SOL    HW177939   7.716   1.989   6.555 -0.4810  0.5849  3.1891
23608SOL    HW277940   7.616   1.878   6.576 -0.4241 -0.0676  0.3905
23609SOL     OW77941   3.719   1.424  10.799  0.0994 -0.0846  0.0628
23609SOL    HW177942   3.679   1.400  10.716  0.2554  0.0691 -0.0563
23609SOL    HW277943   3.734   1.518  10.793 -0.2837  0.0062  0.4320
23610SOL     OW77944   9.792  12.553   7.477  0.2315 -0.3543 -0.0691
23610SOL    HW177945   9.741  12.474   7.463 -0.2861 -0.1540  0.6400
23610SOL    HW277946   9.760  12.589   7.560  0.9886  0.1887  0.0025
23611SOL     OW77947   9.654   3.936   2.938 -0.5439 -0.9081  0.6343
23611SOL    HW177948   9.731   3.951   2.994 -1.9452  0.6508  2.2581
23611SOL    HW277949   9.596   3.882   2.991 -2.1498  1.0779  1.0216
23612SOL     OW77950   5.507   5.059   7.657  0.0427 -0.3864  0.0416
23612SOL    HW177951   5.440   5.070   7.589  0.3625  0.3663 -0.1649
23612SOL    HW277952   5.538   4.970   7.646 -0.2678 -0.4373 -0.4710
23613SOL     OW77953   4.123  11.942   7.322  0.5383  0.2573 -0.3678
23613SOL    HW177954   4.096  11.889   7.397 -0.5773  0.0804 -0.8746
23613SOL    HW277955   4.125  12.032   7.356 -1.7584  0.4309 -0.5354
23614SOL     OW77956   2.280   3.371   6.672  0.1860  0.0464  0.6899
23614SOL    HW177957   2.204   3.314   6.678  0.9840 -1.9584 -3.9616
23614SOL    HW277958   2.252   3.444   6.617  1.1887  0.0605  0.1685
23615SOL     OW77959  11.543  10.020   1.377 -0.5842 -0.3956 -0.5765
23615SOL    HW177960  11.517  10.065   1.458  1.3081 -0.6507  0.2308
23615SOL    HW277961  11.495   9.937   1.380 -0.0566 -0.6783  0.6220
23616SOL     OW77962  11.966  10.026   2.500 -0.5944 -0.0007 -0.5844
23616SOL    HW177963  12.060  10.009   2.493 -0.6129 -0.3683 -0.0063
23616SOL    HW277964  11.939   9.976   2.576 -0.7191  2.3448  1.0089
23617SOL     OW77965   0.411   2.559   6.235  0.0881 -0.0819 -0.4205
23617SOL    HW177966   0.342   2.498   6.257 -1.8750  1.6049 -1.4812
23617SOL    HW277967   0.384   2.595   6.150  1.7642  1.3567 -0.3956
23618SOL     OW77968  12.631   4.950  11.154 -0.1805  0.2464  0.6011
23618SOL    HW177969  12.700   4.993  11.104 -0.1584 -0.2503  0.1930
23618SOL    HW277970  12.579   5.021  11.191 -0.8363  0.6468 -1.0157
23619SOL     OW77971  10.934   0.048  10.475  0.1724 -0.2466  0.4236
23619SOL    HW177972  10.853  -0.003  10.478 -0.3515  0.5074  3.9474
23619SOL    HW277973  11.003  -0.014  10.501 -0.4556  0.5409  4.6440
23620SOL     OW77974   4.573  10.742   1.779  0.3268 -0.0123  0.0743
23620SOL    HW177975   4.510  10.743   1.707 -0.8096  1.1096  1.0368
23620SOL    HW277976   4.523  10.714   1.855  1.3018 -0.3452  0.6149
23621SOL     OW77977   9.771   9.059   2.894 -0.3269 -0.6776  0.7734
23621SOL    HW177978   9.847   9.063   2.952 -0.2699 -0.8116  0.7078
23621SOL    HW277979   9.696   9.067   2.952 -0.2456  2.1804  0.6357
23622SOL     OW77980   7.509  11.655   8.818  0.7174 -0.0266 -0.0702
23622SOL    HW177981   7.492  11.571   8.775  0.2146 -0.8099  1.6032
23622SOL    HW277982   7.537  11.712   8.746 -2.0593 -0.6695 -1.8507
23623SOL     OW77983   6.142  10.474   2.780 -0.5611 -0.1746  0.1073
23623SOL    HW177984   6.132  10.564   2.750 -0.3020 -0.7452 -1.7971
23623SOL    HW277985   6.054  10.447   2.805 -1.0210 -0.0251 -1.2747
23624SOL     OW77986   3.178   1.945   9.616 -0.0242 -0.3853 -0.1422
23624SOL    HW177987   3.253   1.949   9.675  1.5392  0.5297 -2.0861
23624SOL    HW277988   3.216   1.939   9.529 -2.2424 -0.9756 -1.1409
23625SOL     OW77989   2.501   1.459   4.541 -0.2465  0.0547  0.3296
23625SOL    HW177990   2.480   1.552   4.542 -0.5923 -0.0212  0.2800
23625SOL    HW277991   2.583   1.453   4.493 -0.0897  0.3609  0.5535
23626SOL     OW77992   0.298   4.686   6.730 -0.5847  0.6016  0.3620
23626SOL    HW177993   0.327   4.675   6.640 -0.1578 -1.5768  0.7100
23626SOL    HW277994   0.202   4.686   6.725 -0.5627  0.3333 -0.0875
23627SOL     OW77995   8.320   8.109   6.606  0.4423 -0.7366 -0.0897
23627SOL    HW177996   8.263   8.148   6.539  0.1730 -0.7713  0.1177
23627SOL    HW277997   8.273   8.123   6.688  0.0402 -2.0573 -0.0770
23628SOL     OW77998   0.229   4.826   5.079 -0.4476 -0.6092  0.0455
23628SOL    HW177999   0.260   4.852   5.165  0.8793 -0.6885 -0.3923
23628SOL    HW278000   0.195   4.737   5.091  0.2918 -0.8555  0.3716
23629SOL     OW78001   0.940   3.096   7.127  0.2967 -0.2215  0.0459
23629SOL    HW178002   0.941   3.038   7.202  1.6133  0.6780  0.7563
23629SOL    HW278003   0.993   3.052   7.061 -0.7055 -0.9239 -0.3092
23630SOL     OW78004   7.221   0.396  11.698  0.1839  0.3929 -0.5706
23630SOL    HW178005   7.259   0.317  11.736 -0.5743 -0.1564 -0.9327
23630SOL    HW278006   7.285   0.426  11.635 -0.5811 -1.3655 -2.2806
23631SOL     OW78007   1.332   1.238   5.863  0.0456  0.1403  0.2472
23631SOL    HW178008   1.381   1.189   5.929 -0.0899 -0.1763  0.1140
23631SOL    HW278009   1.331   1.182   5.786 -1.4749 -0.3633  0.5953
23632SOL     OW78010   4.733   0.711  12.184  0.2800 -0.5421 -0.5836
23632SOL    HW178011   4.716   0.804  12.202 -0.1146 -0.5455 -0.9368
23632SOL    HW278012   4.789   0.683  12.257  0.4430 -0.0154 -0.4991
23633SOL     OW78013   9.225  12.264   8.343 -0.2097  0.4446 -0.0285
23633SOL    HW178014   9.190  12.351   8.321 -2.4508 -0.5769 -0.7028
23633SOL    HW278015   9.276  12.279   8.423 -0.6389  2.3622 -0.0650
23634SOL     OW78016   1.340   4.565  12.556 -0.6974  0.1625  0.6733
23634SOL    HW178017   1.424   4.520  12.557 -0.8934 -0.3167 -1.1939
23634SOL    HW278018   1.361   4.655  12.583  0.2407 -0.1930  1.1604
23635SOL     OW78019  10.803  11.540   5.358  0.4416 -0.0325  0.1181
23635SOL    HW178020  10.875  11.481   5.382 -1.9685 -2.8417  0.9335
23635SOL    HW278021  10.827  11.623   5.399  2.2719 -1.4011  2.0961
23636SOL     OW78022   5.526   4.296   8.540 -0.3268 -0.6154  0.5826
23636SOL    HW178023   5.476   4.214   8.537  1.3455 -1.7177  1.4090
23636SOL    HW278024   5.562   4.299   8.629 -1.7520  1.9257  1.1686
23637SOL     OW78025   0.037   8.031  12.123 -0.3353 -0.6743 -0.1571
23637SOL    HW178026  -0.052   8.046  12.091 -0.6321  0.6446  1.1293
23637SOL    HW278027   0.092   8.036  12.045 -1.2474  0.0155 -0.7852
23638SOL     OW78028   6.333  11.481  10.338  0.0983  0.0648 -0.1790
23638SOL    HW178029   6.401  11.491  10.405 -0.5323 -0.1291  0.5123
23638SOL    HW278030   6.255  11.519  10.378 -0.0161  1.0454 -1.2826
23639SOL     OW78031   9.994   0.637   8.794 -0.5290  0.2488 -0.1887
23639SOL    HW178032  10.013   0.731   8.785 -1.3103  0.3103 -1.4324
23639SOL    HW278033  10.055   0.594   8.735 -2.0549  0.2196 -1.8097
23640SOL     OW78034  11.299   4.049   5.548 -0.3571  0.0798 -0.2508
23640SOL    HW178035  11.354   3.999   5.487 -0.9196 -1.0380  0.1262
23640SOL    HW278036  11.340   4.135   5.553  0.6276 -0.3353 -0.9494
23641SOL     OW78037   6.751   8.520  11.709 -0.3056 -0.3524 -0.4554
23641SOL    HW178038   6.773   8.566  11.790  0.1257 -0.0718 -0.7253
23641SOL    HW278039   6.825   8.538  11.650  0.0907 -1.7331 -0.4293
23642SOL     OW78040   2.503   1.329   9.220 -0.5277 -0.3348  0.4071
23642SOL    HW178041   2.581   1.341   9.167 -0.3230 -2.3878  0.1650
23642SOL    HW278042   2.434   1.376   9.173 -0.0089 -0.7846 -0.8322
23643SOL     OW78043  10.117   2.960   6.477 -0.1471  0.0966 -0.1415
23643SOL    HW178044  10.046   2.924   6.530 -0.7586  0.6878 -0.5306
23643SOL    HW278045  10.087   3.048   6.454 -0.3642 -0.4775 -2.2742
23644SOL     OW78046   1.080   0.606   7.099 -0.5786  0.2239 -0.6401
23644SOL    HW178047   1.160   0.560   7.073 -0.6353 -1.1396  1.3762
23644SOL    HW278048   1.103   0.699   7.096  1.8101 -0.1740  1.8544
23645SOL     OW78049   9.531   5.812   7.340  0.1635  0.0064 -0.9735
23645SOL    HW178050   9.443   5.844   7.320 -0.7334 -2.8957 -2.1641
23645SOL    HW278051   9.518   5.750   7.411  0.5675 -3.0332 -3.3352
23646SOL     OW78052   5.823   0.320  12.652 -0.3439  0.0863  0.2432
23646SOL    HW178053   5.826   0.294  12.560 -0.6894 -0.9257  0.5034
23646SOL    HW278054   5.735   0.295  12.682 -0.2566  0.4498  0.8316
23647SOL     OW78055   2.816   9.553  11.234 -0.2782  0.1080 -0.5488
23647SOL    HW178056   2.901   9.593  11.253 -0.9667  0.3955  2.3935
23647SOL    HW278057   2.757   9.627  11.223 -0.4125 -0.1087 -1.3546
23648SOL     OW78058   6.676   2.249   4.759  0.4922  0.0653  0.7716
23648SOL    HW178059   6.583   2.268   4.750  0.1731 -1.5195  0.4146
23648SOL    HW278060   6.712   2.262   4.671  0.5002  0.1649  0.7899
23649SOL     OW78061   7.347   2.218   6.907 -0.5474  0.4992  0.2223
23649SOL    HW178062   7.324   2.200   6.816 -1.7124  0.3002  0.5448
23649SOL    HW278063   7.305   2.148   6.957  1.7607 -0.5923  0.7663
23650SOL     OW78064   6.936   3.165   8.898 -0.1661  0.3741  0.8081
23650SOL    HW178065   6.895   3.082   8.921  0.3289  0.2535  1.2655
23650SOL    HW278066   6.988   3.188   8.974 -1.2831  1.7386  1.2077
23651SOL     OW78067  10.112  12.688   3.930 -0.4674  0.2344  0.1461
23651SOL    HW178068  10.100  12.689   4.024  1.6171 -1.0707  0.4907
23651SOL    HW278069  10.150  12.773   3.909  0.2396  0.0563  0.6849
23652SOL     OW78070  11.290  12.795   8.320 -0.0990  0.9690  0.2581
23652SOL    HW178071  11.226  12.861   8.295 -1.9279 -0.7362  0.1565
23652SOL    HW278072  11.238  12.717   8.337  1.7310  0.1424  2.6229
23653SOL     OW78073   5.824   7.973  12.233  0.0756  0.0405  0.2438
23653SOL    HW178074   5.762   8.041  12.208  0.1107 -0.5783 -1.7162
23653SOL    HW278075   5.910   8.014  12.224  0.0915 -0.1945 -0.8341
23654SOL     OW78076   4.537   3.070   0.746 -0.3638  0.5615 -0.0908
23654SOL    HW178077   4.507   3.081   0.656  2.0042 -2.1474 -1.3627
23654SOL    HW278078   4.493   2.992   0.778  2.0631 -1.1434 -0.6098
23655SOL     OW78079  11.141  10.614   9.165 -0.4909  0.2447 -0.0881
23655SOL    HW178080  11.137  10.644   9.074 -0.9728  0.3339 -0.0399
23655SOL    HW278081  11.232  10.629   9.191 -0.6253  1.2669 -0.1992
23656SOL     OW78082   4.000   6.966   2.348 -0.5292  0.4648 -0.3391
23656SOL    HW178083   4.010   7.053   2.386 -0.9428  0.6304 -0.6013
23656SOL    HW278084   3.921   6.931   2.390  1.1948 -0.9341  1.9349
23657SOL     OW78085   9.872   9.222   6.989  0.0960 -0.0387 -0.0614
23657SOL    HW178086   9.807   9.171   6.942 -0.7240  1.0876 -0.1923
23657SOL    HW278087   9.892   9.296   6.931 -1.1037  1.5058  1.3927
23658SOL     OW78088   7.779  12.753   5.301 -0.2620  0.1458  0.0497
23658SOL    HW178089   7.714  12.762   5.231 -1.2797  1.6226  1.1259
23658SOL    HW278090   7.863  12.770   5.258 -0.7909  0.3474 -0.9383
23659SOL     OW78091   5.634   0.793  11.046  0.1087 -0.3000  0.7556
23659SOL    HW178092   5.556   0.784  10.991  0.5123  1.0461 -0.0875
23659SOL    HW278093   5.642   0.709  11.091 -0.1318 -1.5284 -1.3956
23660SOL     OW78094   0.627   3.989   5.087 -0.4229 -0.7569  0.3278
23660SOL    HW178095   0.712   3.959   5.118 -0.1025 -0.8307 -0.6172
23660SOL    HW278096   0.611   4.070   5.135 -0.3922 -1.3773  1.4209
23661SOL     OW78097   9.808   1.734   0.407  0.2522  0.0567 -0.1633
23661SOL    HW178098   9.782   1.657   0.356  3.0202  0.0772 -1.7685
23661SOL    HW278099   9.757   1.806   0.369 -1.8918 -0.7843  0.9409
23662SOL     OW78100  10.367  12.588   4.668  0.1247 -0.1521 -0.0438
23662SOL    HW178101  10.434  12.610   4.733 -0.9644  0.9260  0.7508
23662SOL    HW278102  10.384  12.496   4.647  0.6799 -0.4529  1.5520
23663SOL     OW78103   9.607   5.535   9.717 -0.3835 -0.5973 -0.3743
23663SOL    HW178104   9.683   5.591   9.729 -0.9853 -0.1304  1.7264
23663SOL    HW278105   9.575   5.555   9.629 -0.1062  1.7952  0.0071
23664SOL     OW78106  10.016   3.133   3.861 -0.1023  0.2003  0.3043
23664SOL    HW178107  10.038   3.200   3.926 -1.0520 -0.5493  1.4383
23664SOL    HW278108  10.045   3.051   3.900 -1.9031 -0.4326  0.4318
23665SOL     OW78109   1.218   3.065   4.023  0.2023  0.5378  0.1379
23665SOL    HW178110   1.314   3.073   4.022  0.0618  3.5308 -0.5074
23665SOL    HW278111   1.200   2.988   3.970  2.2471  0.7245 -0.9621
23666SOL     OW78112   1.698   2.479   8.189 -0.8790 -0.0303 -0.6660
23666SOL    HW178113   1.783   2.466   8.148  0.4169  1.7605  1.2405
23666SOL    HW278114   1.693   2.574   8.204 -2.1901 -0.3573  1.2971
23667SOL     OW78115   0.988   0.924   0.412  0.3124  0.2715  0.0510
23667SOL    HW178116   1.031   0.991   0.466  0.4056  0.9752 -0.8710
23667SOL    HW278117   1.004   0.952   0.322 -2.4794  0.8449 -0.3479
23668SOL     OW78118   6.101   6.715   4.552  0.1176 -0.0344  0.2392
23668SOL    HW178119   6.122   6.724   4.459 -2.9670 -0.9164 -0.6642
23668SOL    HW278120   6.061   6.799   4.576  2.3460  0.8023  1.2987
23669SOL     OW78121   5.979   1.351  10.290  0.2797  0.3497 -0.2976
23669SOL    HW178122   6.045   1.420  10.290  3.3138 -2.2444 -1.6452
23669SOL    HW278123   5.918   1.375  10.221  0.7024  2.0802 -0.1168
23670SOL     OW78124   6.894   0.662   6.220 -0.4973 -0.1199 -0.0188
23670SOL    HW178125   6.838   0.681   6.295  0.6679  1.0218  0.6135
23670SOL    HW278126   6.946   0.586   6.248 -0.0518  0.3141  0.3549
23671SOL     OW78127   3.339   0.382   6.736 -0.5047  0.1617  0.0854
23671SOL    HW178128   3.263   0.327   6.754 -0.6934 -0.0489 -1.2489
23671SOL    HW278129   3.328   0.458   6.794 -0.2677 -1.1403  1.9131
23672SOL     OW78130   7.379  12.219  12.686 -0.0090 -0.4937  0.0129
23672SOL    HW178131   7.431  12.143  12.660  0.6098 -0.1437  0.1922
23672SOL    HW278132   7.419  12.247  12.769  0.7918  0.9553 -0.8157
23673SOL     OW78133  12.330   8.086  12.612  0.0128 -0.2929  0.4463
23673SOL    HW178134  12.307   8.079  12.519  2.0106  1.1459 -0.2513
23673SOL    HW278135  12.408   8.032  12.621 -0.9757 -1.5703  1.6681
23674SOL     OW78136   5.605   8.241   6.618 -0.8715  0.5854 -0.2083
23674SOL    HW178137   5.549   8.282   6.552  0.7623  1.3439 -1.1757
23674SOL    HW278138   5.653   8.173   6.571 -0.5712  0.3149  0.4730
23675SOL     OW78139   3.225   9.106   4.567 -0.4763  0.1819  0.0830
23675SOL    HW178140   3.199   9.015   4.582  0.0641 -0.3775 -2.0415
23675SOL    HW278141   3.225   9.115   4.472 -0.2092  2.3378  0.2464
23676SOL     OW78142   2.057   6.078   3.452 -0.1677  0.0866 -0.0453
23676SOL    HW178143   2.067   6.072   3.356 -1.2488 -1.7584 -0.1012
23676SOL    HW278144   1.972   6.120   3.465 -0.5066 -0.6167  0.0654
23677SOL     OW78145   3.548   5.294   5.586 -0.0658 -0.1474 -0.4016
23677SOL    HW178146   3.565   5.377   5.542  1.5114 -0.8458 -1.2159
23677SOL    HW278147   3.633   5.269   5.623 -0.5487 -1.3235 -0.0361
23678SOL     OW78148   7.208   2.329   7.963 -0.3949  0.3646 -0.4377
23678SOL    HW178149   7.259   2.264   8.012  0.7300  0.3124 -1.6049
23678SOL    HW278150   7.122   2.289   7.951  0.0236 -0.5635 -0.4117
23679SOL     OW78151   6.970   9.345   5.387 -0.1563  0.2525  0.0826
23679SOL    HW178152   7.053   9.328   5.343 -0.0262  2.8004 -0.8453
23679SOL    HW278153   6.904   9.329   5.321 -0.2098  0.6150  0.0446
23680SOL     OW78154   6.686   5.624   5.177  0.4445 -0.3846  0.9076
23680SOL    HW178155   6.731   5.612   5.261 -0.1223  0.0986  1.2845
23680SOL    HW278156   6.597   5.649   5.201 -0.1416 -1.6842  0.1622
23681SOL     OW78157   9.461  11.530  12.785 -0.1314  0.7636 -0.0444
23681SOL    HW178158   9.495  11.619  12.787  2.1847 -0.0623  0.5314
23681SOL    HW278159   9.400  11.526  12.858  1.9420  1.1354  1.8236
23682SOL     OW78160   6.415  11.537  11.545  0.2928 -0.2845  0.8112
23682SOL    HW178161   6.394  11.533  11.452  0.8157  0.4040  0.6535
23682SOL    HW278162   6.440  11.447  11.568  1.1860 -0.2520  0.0273
23683SOL     OW78163   1.804   0.823   6.211  0.1197  0.1115 -0.7778
23683SOL    HW178164   1.754   0.884   6.265 -1.1507 -1.7025  0.2422
23683SOL    HW278165   1.871   0.876   6.170 -0.1270  1.9539  1.0279
23684SOL     OW78166   0.181   4.256   3.984 -0.2629  0.2644 -0.2485
23684SOL    HW178167   0.274   4.252   4.006 -0.1232  1.3748 -0.6032
23684SOL    HW278168   0.179   4.280   3.892 -0.8955  1.0954 -0.0310
23685SOL     OW78169   0.622   1.312   2.512 -0.0296 -0.2223 -0.3233
23685SOL    HW178170   0.617   1.289   2.605  1.6354 -0.1681 -0.1829
23685SOL    HW278171   0.619   1.228   2.466 -1.3731 -0.2182 -0.2673
23686SOL     OW78172   3.358  11.515   2.848 -0.2638  0.2370 -0.1934
23686SOL    HW178173   3.291  11.551   2.790 -1.6102 -1.6209  0.1162
23686SOL    HW278174   3.398  11.444   2.797 -2.9327 -2.8991  1.6420
23687SOL     OW78175  10.531   1.916  10.657  0.3268 -0.7111  0.2186
23687SOL    HW178176  10.486   1.837  10.685 -0.3171  0.1783  1.8363
23687SOL    HW278177  10.461   1.974  10.627  0.8213 -0.8500 -1.2768
23688SOL     OW78178   8.315   8.501   1.201 -0.1641 -0.1378  0.1918
23688SOL    HW178179   8.314   8.416   1.157 -3.2809  0.5925 -1.3898
23688SOL    HW278180   8.277   8.484   1.288 -1.9376 -0.2346 -0.5635
23689SOL     OW78181   1.616  10.573   1.098  0.1084 -0.0016  0.2690
23689SOL    HW178182   1.584  10.490   1.064 -0.6834 -0.6181  2.3987
23689SOL    HW278183   1.538  10.618   1.131  0.5770  1.4212 -0.4379
23690SOL     OW78184   5.354   2.976   7.909 -0.1173  0.3380  0.0214
23690SOL    HW178185   5.436   2.930   7.891  0.4509  1.3506 -0.0985
23690SOL    HW278186   5.292   2.907   7.931  0.3754 -0.5710 -1.3082
23691SOL     OW78187   2.148   6.674   5.547  0.8698 -0.2889  0.9774
23691SOL    HW178188   2.161   6.669   5.452 -0.8285  1.8115  0.5700
23691SOL    HW278189   2.227   6.718   5.580  1.4430 -0.9841  0.5631
23692SOL     OW78190   1.870   0.193  11.960 -0.2852  0.1376 -0.2838
23692SOL    HW178191   1.798   0.226  12.014  2.1345 -0.5169  3.7858
23692SOL    HW278192   1.947   0.242  11.989  1.7435 -2.5022 -0.7453
23693SOL     OW78193   4.706  10.135  11.727  0.5013 -0.2649  0.1767
23693SOL    HW178194   4.715  10.151  11.633  0.3703 -2.5140 -0.2695
23693SOL    HW278195   4.617  10.166  11.747  0.2299 -0.5010 -0.6054
23694SOL     OW78196   6.284   2.348  12.230 -0.1771 -0.2609 -0.5210
23694SOL    HW178197   6.230   2.268  12.227  1.1059 -1.1395 -0.9839
23694SOL    HW278198   6.282   2.374  12.322 -2.5331  0.5757 -0.7315
23695SOL     OW78199   4.225   8.280  10.053  0.2177  0.2162  0.6070
23695SOL    HW178200   4.239   8.319   9.966 -0.2918 -3.5615 -1.4040
23695SOL    HW278201   4.287   8.208  10.057 -1.7261 -1.5039  2.0907
23696SOL     OW78202  10.924   9.640   3.484  0.1092  0.8216  0.3485
23696SOL    HW178203  10.973   9.563   3.513  0.3445  1.4262  1.6215
23696SOL    HW278204  10.990   9.695   3.441 -0.0259  0.4038 -0.4114
23697SOL     OW78205  12.934   6.938   5.122 -0.1408  0.3355  0.5469
23697SOL    HW178206  12.847   6.909   5.097 -0.4274  0.9818  0.7731
23697SOL    HW278207  12.927   7.034   5.126  0.6235  0.4049  0.3854
23698SOL     OW78208   9.271   1.986  11.287 -0.4272  0.1461  0.2986
23698SOL    HW178209   9.357   1.947  11.303 -0.1251  0.2284 -0.9943
23698SOL    HW278210   9.268   2.062  11.345  0.4014  0.1738  0.3187
23699SOL     OW78211   8.333  10.296   0.745  0.0787 -0.4362  0.9815
23699SOL    HW178212   8.348  10.213   0.701  1.4654  0.9522 -1.3539
23699SOL    HW278213   8.249  10.327   0.710  0.1282 -0.3241  0.9612
23700SOL     OW78214   0.334   3.345   8.880  0.0347 -0.0539  0.0775
23700SOL    HW178215   0.306   3.424   8.926 -0.1100 -0.8227  1.3551
23700SOL    HW278216   0.413   3.318   8.926 -0.1343 -0.8691 -0.1030
23701SOL     OW78217   6.793  10.554   5.425 -0.3549 -0.7833 -0.4585
23701SOL    HW178218   6.852  10.537   5.352  0.6100 -1.1758  0.3768
23701SOL    HW278219   6.832  10.629   5.470 -1.2373 -0.1982 -0.6432
23702SOL     OW78220   4.043   7.514   3.882  0.2683 -0.5090 -0.0177
23702SOL    HW178221   4.065   7.515   3.975 -0.6313  1.3829  0.2229
23702SOL    HW278222   3.949   7.495   3.879  0.5816 -2.1087 -0.6582
23703SOL     OW78223  11.755   4.228   0.414 -0.1472  0.2263 -0.2103
23703SOL    HW178224  11.806   4.305   0.437  0.3465 -0.4759  1.1970
23703SOL    HW278225  11.809   4.154   0.443 -1.2773 -0.5923 -0.1020
23704SOL     OW78226   9.702   5.417   8.707  0.6995  0.2105 -0.1087
23704SOL    HW178227   9.726   5.453   8.793  1.5454  1.2073 -0.7388
23704SOL    HW278228   9.763   5.458   8.646  1.0412 -1.5606 -1.0181
23705SOL     OW78229   8.274  12.008   6.534  0.5740 -0.1195  0.0857
23705SOL    HW178230   8.251  11.953   6.609  1.0437 -0.5294 -0.0656
23705SOL    HW278231   8.341  11.958   6.487  1.5130  0.8766  0.3195
23706SOL     OW78232   5.360   6.820   8.669 -0.2220 -0.7003  0.2667
23706SOL    HW178233   5.429   6.885   8.666 -1.2666  0.6400  2.7512
23706SOL    HW278234   5.280   6.869   8.650 -0.8602 -1.5519  0.6889
23707SOL     OW78235   3.425  10.192   3.434  0.0939  0.0535 -0.0388
23707SOL    HW178236   3.471  10.168   3.514 -2.5973 -1.3686  1.2204
23707SOL    HW278237   3.423  10.112   3.381  0.2283  0.4606 -0.6745
23708SOL     OW78238   9.685   9.302  11.875  0.1891  0.3539  0.1841
23708SOL    HW178239   9.667   9.216  11.838  1.5389 -0.2381  0.8292
23708SOL    HW278240   9.757   9.336  11.823  0.3436  0.6537  0.5882
23709SOL     OW78241  11.816   9.563   2.668 -0.1804  0.3933  0.2586
23709SOL    HW178242  11.792   9.551   2.577 -1.4269  0.2111  0.5874
23709SOL    HW278243  11.903   9.603   2.666 -0.7245  1.5548 -1.0126
23710SOL     OW78244  12.036   9.428   3.212 -0.0216 -0.1818 -0.0768
23710SOL    HW178245  11.988   9.503   3.179  0.8693 -0.1531 -1.4227
23710SOL    HW278246  11.969   9.365   3.238 -0.7735  0.5563 -0.2052
23711SOL     OW78247   1.529  12.569   6.434  0.0314  0.0391  0.4368
23711SOL    HW178248   1.539  12.585   6.527 -0.5068  0.4350  0.4238
23711SOL    HW278249   1.618  12.579   6.399  0.4439 -1.1733  1.0560
23712SOL     OW78250  10.519   1.110   7.073  0.1371  0.5390  0.8448
23712SOL    HW178251  10.594   1.165   7.051 -0.6922  2.3233  2.1827
23712SOL    HW278252  10.496   1.136   7.162 -2.0904  0.0693  0.4662
23713SOL     OW78253  10.353   5.792   7.095  0.5429  0.1969  0.0790
23713SOL    HW178254  10.347   5.821   7.186  1.2150 -1.6232  0.7456
23713SOL    HW278255  10.321   5.701   7.096  0.5721  0.1404 -1.5034
23714SOL     OW78256   7.848  10.005   1.452  0.4684 -0.0562  0.1716
23714SOL    HW178257   7.861   9.945   1.379 -0.1998 -0.5393  0.4503
23714SOL    HW278258   7.796  10.077   1.415 -1.6532 -1.2780  0.6336
23715SOL     OW78259   4.909   5.542   3.676 -0.3404 -0.1070 -0.0627
23715SOL    HW178260   4.995   5.581   3.658  0.5651 -2.2035 -0.5376
23715SOL    HW278261   4.922   5.493   3.757 -1.0188 -0.6673 -0.2954
23716SOL     OW78262  11.377  12.288   8.202  0.1393  0.0970  0.3290
23716SOL    HW178263  11.370  12.350   8.129 -1.6138 -1.2992 -0.7906
23716SOL    HW278264  11.292  12.295   8.246  0.0428 -1.2672  0.3782
23717SOL     OW78265   5.820   6.664   3.016  0.2027  0.3048 -0.4705
23717SOL    HW178266   5.804   6.665   2.922 -0.6305  0.7040 -0.3283
23717SOL    HW278267   5.733   6.671   3.055  0.6984  5.3140  0.3446
23718SOL     OW78268   0.634   1.470  11.675  0.0925  0.3148  0.0737
23718SOL    HW178269   0.560   1.413  11.693 -1.4432  2.2106  0.1898
23718SOL    HW278270   0.619   1.501  11.585  2.3599 -1.4845 -1.0175
23719SOL     OW78271   0.944   1.054   8.877 -0.6057  0.3540 -0.3781
23719SOL    HW178272   0.922   0.982   8.936 -0.1004  0.2541 -0.3071
23719SOL    HW278273   0.860   1.092   8.853 -0.8002  0.4854  0.5180
23720SOL     OW78274   0.559  12.041   6.089  0.4041  0.1988  0.4713
23720SOL    HW178275   0.635  12.049   6.032 -0.2492  0.2351 -0.4203
23720SOL    HW278276   0.579  12.094   6.166  0.2326  2.3151 -0.8850
23721SOL     OW78277   2.747   6.201   8.144 -0.0667  0.0356  0.4784
23721SOL    HW178278   2.703   6.264   8.086  3.5401  0.4825 -2.0681
23721SOL    HW278279   2.806   6.254   8.197 -0.2604 -0.8414  1.6168
23722SOL     OW78280   2.310   8.056   6.028  0.2390  0.0231  0.0804
23722SOL    HW178281   2.376   8.090   5.967  1.2018 -1.0141  0.5261
23722SOL    HW278282   2.258   8.133   6.052  0.4449  0.6223 -1.2986
23723SOL     OW78283   9.464  12.929  11.671 -0.0348  0.2384  0.0265
23723SOL    HW178284   9.414  12.996  11.720  2.0613  0.7391  1.6177
23723SOL    HW278285   9.428  12.846  11.703 -0.8843  0.5729 -0.0097
23724SOL     OW78286   4.848  11.632  10.818 -0.1176 -0.1352  0.0729
23724SOL    HW178287   4.771  11.575  10.818 -0.7110  0.6339 -0.5959
23724SOL    HW278288   4.840  11.682  10.899 -0.9297  0.7064 -0.5046
23725SOL     OW78289  12.549   1.816   6.381 -0.5040 -0.1695  0.0774
23725SOL    HW178290  12.606   1.801   6.457 -1.8881 -1.6825  0.8768
23725SOL    HW278291  12.588   1.762   6.312 -1.5467 -2.1510  0.9580
23726SOL     OW78292   0.105   7.977   0.016 -0.0395  0.4929 -0.4710
23726SOL    HW178293   0.157   7.897   0.006 -0.5382  0.0543  0.3203
23726SOL    HW278294   0.085   8.004  -0.073  1.0224  0.3241 -0.7734
23727SOL     OW78295  11.792   9.290   6.713 -0.0059  0.1854 -0.4109
23727SOL    HW178296  11.780   9.360   6.648 -1.7889 -0.0124 -0.3472
23727SOL    HW278297  11.771   9.210   6.666  1.7223 -0.3128 -0.3917
23728SOL     OW78298   3.497   7.483   3.563 -0.2133  0.3604  0.8093
23728SOL    HW178299   3.421   7.442   3.523 -0.1930  1.2283 -0.1534
23728SOL    HW278300   3.571   7.456   3.508 -0.4000  2.9600 -0.9220
23729SOL     OW78301   8.121   9.914   1.911  0.6435  0.0486  0.0484
23729SOL    HW178302   8.108   9.990   1.854  0.6687  0.4640  0.5866
23729SOL    HW278303   8.097   9.945   1.998  0.9312 -0.4804  0.3227
23730SOL     OW78304   4.906   9.383   1.726  1.0391 -0.2552  0.0431
23730SOL    HW178305   4.898   9.474   1.695  0.7316  0.4232  1.9435
23730SOL    HW278306   4.922   9.332   1.647 -0.9181  1.1678 -1.3761
23731SOL     OW78307   1.940  10.979  12.561 -0.1588 -0.1422  0.0812
23731SOL    HW178308   1.889  10.935  12.493 -2.4053 -0.1891  1.6878
23731SOL    HW278309   1.953  11.068  12.527  0.5842 -0.7439 -1.2724
23732SOL     OW78310   1.372   4.412   8.171  0.1502  0.6458 -0.4766
23732SOL    HW178311   1.374   4.324   8.133 -1.7381  0.6350 -0.6522
23732SOL    HW278312   1.399   4.469   8.099 -0.0504  0.3348 -0.8010
23733SOL     OW78313   3.379   2.599   7.101  0.0749 -0.2943 -0.0134
23733SOL    HW178314   3.439   2.525   7.096  1.0175  0.3711  0.9794
23733SOL    HW278315   3.312   2.572   7.163  2.0760  0.7370  2.7902
23734SOL     OW78316   3.993   3.392   4.076  0.1439 -0.3039  0.1748
23734SOL    HW178317   3.983   3.297   4.074 -0.5809 -0.2732  1.5237
23734SOL    HW278318   4.081   3.407   4.040 -0.9208 -1.2139 -3.1451
23735SOL     OW78319  11.052  10.712  11.835  0.2583  1.1424  0.1265
23735SOL    HW178320  10.956  10.712  11.841  0.2158 -1.3472  0.2211
23735SOL    HW278321  11.070  10.759  11.753 -1.1448  0.2781 -0.7259
23736SOL     OW78322   2.380  10.626   2.492 -0.0518 -0.0977 -0.8970
23736SOL    HW178323   2.314  10.672   2.545  0.1308 -1.8999  1.0693
23736SOL    HW278324   2.328  10.568   2.436 -0.2497 -1.3486  0.4870
23737SOL     OW78325   7.603   7.854   8.446  0.5421 -0.4049 -0.6654
23737SOL    HW178326   7.670   7.788   8.427  0.6363 -0.0158 -1.7395
23737SOL    HW278327   7.616   7.921   8.379  0.3847  0.6688  0.3511
23738SOL     OW78328   8.074   2.962   3.948  0.4024 -0.4340  0.1215
23738SOL    HW178329   8.095   2.924   4.033  1.3253 -0.1109  0.0527
23738SOL    HW278330   8.051   3.053   3.968  0.9271 -0.2703  0.0032
23739SOL     OW78331  11.009  12.668  12.327 -0.0588 -0.1355 -0.4381
23739SOL    HW178332  11.027  12.729  12.398  0.3965 -2.9881  2.1258
23739SOL    HW278333  11.088  12.671  12.272  0.1296  1.2178 -0.1187
23740SOL     OW78334   3.345   0.758   9.204 -0.3096  0.1043  0.1741
23740SOL    HW178335   3.396   0.723   9.277  0.0015  0.0000 -0.0923
23740SOL    HW278336   3.255   0.757   9.236 -0.1703  0.1040  0.5734
23741SOL     OW78337  11.206   4.322   7.200  0.2645  0.0547 -0.8264
23741SOL    HW178338  11.216   4.263   7.125  0.3494 -1.3400  0.2313
23741SOL    HW278339  11.296   4.335   7.231  0.2480  0.7954 -1.0908
23742SOL     OW78340  12.611  11.734   2.591  0.4325 -0.1133 -0.1911
23742SOL    HW178341  12.653  11.819   2.600  0.9714 -0.0556 -2.5803
23742SOL    HW278342  12.540  11.748   2.529 -0.4701 -1.1080  0.5694
23743SOL     OW78343   1.589   4.886  12.430  0.4737 -0.4519  0.7311
23743SOL    HW178344   1.612   4.800  12.466  0.5372 -0.7798 -0.0678
23743SOL    HW278345   1.595   4.875  12.335  1.1012  0.6104  0.6269
23744SOL     OW78346   1.038   8.497   7.779  0.5021 -0.0513  0.2335
23744SOL    HW178347   0.955   8.505   7.825 -0.7108  3.0189 -2.1412
23744SOL    HW278348   1.018   8.444   7.702  0.5837  1.0408 -0.5641
23745SOL     OW78349  12.776  11.070   3.885  0.4744  0.4224  0.2426
23745SOL    HW178350  12.726  11.151   3.877 -0.4133 -0.1952 -0.7460
23745SOL    HW278351  12.734  11.010   3.823 -0.2100 -1.4820  2.4300
23746SOL     OW78352   5.973   3.209   8.195 -0.0234 -1.2856  0.2892
23746SOL    HW178353   5.880   3.188   8.209 -0.8712  1.1838 -0.9681
23746SOL    HW278354   5.982   3.214   8.100  1.4379 -1.5135  0.3927
23747SOL     OW78355  11.854   9.241   3.323  0.0724  0.0508 -0.2652
23747SOL    HW178356  11.825   9.257   3.413  0.1256  0.3014 -0.2916
23747SOL    HW278357  11.780   9.196   3.282  1.0596 -2.5620  0.6568
23748SOL     OW78358   9.987   6.238  10.502 -0.1379 -0.0745 -0.3114
23748SOL    HW178359   9.935   6.210  10.578  1.6076 -1.0450  0.5808
23748SOL    HW278360  10.013   6.157  10.459  3.8617  0.0137  1.5286
23749SOL     OW78361   4.540  11.344   0.821  0.4373 -0.1911  0.0714
23749SOL    HW178362   4.584  11.293   0.753 -0.2061 -0.1169 -0.4158
23749SOL    HW278363   4.450  11.354   0.788  0.7110  1.8307 -0.1570
23750SOL     OW78364   2.110   7.066   1.402 -0.0515 -0.5163 -0.1213
23750SOL    HW178365   2.037   7.043   1.460 -0.4384 -1.1503 -0.8396
23750SOL    HW278366   2.083   7.033   1.316  0.8258 -0.2276 -0.5139
23751SOL     OW78367   2.302   7.007   4.444 -0.1261 -0.3351 -0.4189
23751SOL    HW178368   2.286   6.918   4.477 -1.3848  0.2030  0.5293
23751SOL    HW278369   2.337   7.054   4.520 -2.2880  0.7122  0.0161
23752SOL     OW78370   6.715   1.465   3.544 -0.5044  0.2233  0.5409
23752SOL    HW178371   6.802   1.437   3.570 -0.7093  1.2602  2.5273
23752SOL    HW278372   6.656   1.423   3.608 -1.7332 -1.9967 -1.8464
23753SOL     OW78373   7.130  10.048   6.610 -0.3293 -0.4368 -0.0580
23753SOL    HW178374   7.082  10.068   6.691 -0.6321  0.6823 -0.4999
23753SOL    HW278375   7.222  10.046   6.637 -0.3625  0.6567  0.1946
23754SOL     OW78376   3.294   1.025  11.861 -0.4223 -0.7683 -0.1202
23754SOL    HW178377   3.292   0.967  11.937  1.9947  1.5903  1.9238
23754SOL    HW278378   3.245   1.102  11.889  0.9040  0.3387 -0.7770
23755SOL     OW78379   6.963   7.523   6.430 -0.1706  0.7176 -0.0420
23755SOL    HW178380   6.955   7.497   6.338 -0.0156  0.7605 -0.0673
23755SOL    HW278381   7.045   7.483   6.459 -1.0655 -0.7563  0.5676
23756SOL     OW78382  11.718   8.073   6.163 -0.3769 -0.6302  1.0307
23756SOL    HW178383  11.762   7.989   6.151 -2.3428 -1.6504  0.3419
23756SOL    HW278384  11.766   8.133   6.107  0.3121 -1.6093  0.5324
23757SOL     OW78385   8.759   7.404   5.550  0.1002 -0.4023  0.0283
23757SOL    HW178386   8.696   7.388   5.620 -0.5064 -0.7449 -0.5842
23757SOL    HW278387   8.800   7.319   5.535  1.7292  0.0801  1.3516
23758SOL     OW78388   9.230   2.197   0.979 -0.2691 -1.0647  0.4951
23758SOL    HW178389   9.295   2.146   1.028 -0.4201 -0.7186  1.0646
23758SOL    HW278390   9.197   2.137   0.913  0.9314 -1.1255 -0.0741
23759SOL     OW78391   0.935  10.857   5.179  0.5583  0.1472  0.1990
23759SOL    HW178392   0.929  10.951   5.162  0.7561  0.0875 -0.2294
23759SOL    HW278393   0.891  10.845   5.262  1.5721  0.8011  0.8626
23760SOL     OW78394  11.981   9.034   4.813  0.4054  0.0554 -0.3765
23760SOL    HW178395  11.963   9.106   4.754 -0.9015  1.3561  1.5156
23760SOL    HW278396  11.902   9.025   4.866  0.6307 -2.5992 -0.3378
23761SOL     OW78397  12.324   5.295   6.475 -0.1496 -0.0550  0.1739
23761SOL    HW178398  12.304   5.306   6.382 -1.2102 -1.5050  0.1969
23761SOL    HW278399  12.242   5.265   6.514  0.7927 -1.4406  1.1902
23762SOL     OW78400   1.914   1.262   7.731  0.0213  0.4405  0.2606
23762SOL    HW178401   1.949   1.173   7.739 -2.7692 -0.7231  0.4624
23762SOL    HW278402   1.881   1.268   7.642  2.5788  2.3269 -0.6908
23763SOL     OW78403   8.902  11.674   2.278 -0.1859 -0.6649  0.1537
23763SOL    HW178404   8.894  11.720   2.194  2.4428  1.1024  0.7694
23763SOL    HW278405   8.813  11.675   2.314 -1.0257  0.1362 -1.7793
23764SOL     OW78406   2.911   2.618   4.537  0.5025 -0.2436 -0.3364
23764SOL    HW178407   2.980   2.643   4.598  0.1264 -0.8397  0.3524
23764SOL    HW278408   2.839   2.590   4.593 -0.2517  0.2433 -1.0512
23765SOL     OW78409   6.127   8.999  12.837 -0.0321  0.0503  0.2202
23765SOL    HW178410   6.078   9.067  12.883  0.0198 -0.4330  1.0170
23765SOL    HW278411   6.090   8.917  12.870 -0.5359 -0.3168 -1.2089
23766SOL     OW78412   2.924  11.018   5.308  0.1957  0.4941  0.6712
23766SOL    HW178413   2.858  11.085   5.288 -0.2746  0.1807  1.1256
23766SOL    HW278414   2.873  10.944   5.342  0.8133  0.4393  1.5274
23767SOL     OW78415  11.253  11.585   5.934 -0.1683 -0.0556  0.1528
23767SOL    HW178416  11.319  11.575   6.003 -0.7629  1.7814  1.0277
23767SOL    HW278417  11.210  11.668   5.952 -2.1093 -0.7420 -0.9506
23768SOL     OW78418   0.100   2.816   0.174  0.6834  0.1707  0.2137
23768SOL    HW178419   0.066   2.762   0.103  1.2722 -0.5935  0.4981
23768SOL    HW278420   0.126   2.898   0.132 -2.2265  1.1502  0.0954
23769SOL     OW78421  12.821  12.851   6.306 -0.2715 -0.4300  0.4902
23769SOL    HW178422  12.886  12.832   6.237  0.5118  1.2595  0.7139
23769SOL    HW278423  12.744  12.880   6.258 -0.3208 -0.8794  0.2836
23770SOL     OW78424   3.255   2.203   1.179 -0.2359 -0.1730  0.1000
23770SOL    HW178425   3.239   2.289   1.217  0.7857  0.4564 -0.8480
23770SOL    HW278426   3.345   2.182   1.205 -0.0408 -0.3932 -0.7415
23771SOL     OW78427   0.102  12.177   3.683  0.2145 -0.1195 -0.2662
23771SOL    HW178428   0.167  12.162   3.615  1.2012 -0.4464  0.7298
23771SOL    HW278429   0.035  12.230   3.640  1.6725  1.1864 -1.0065
23772SOL     OW78430   9.206   5.157   9.873  0.7273  0.3368  0.2652
23772SOL    HW178431   9.170   5.208   9.946 -0.7648  0.3749 -0.4509
23772SOL    HW278432   9.266   5.095   9.914  0.7198  1.0571  1.4096
23773SOL     OW78433   0.948   7.002   5.941  0.1742 -0.0506  0.0250
23773SOL    HW178434   0.995   6.938   5.994 -0.2169  0.2918  0.7936
23773SOL    HW278435   0.974   6.982   5.851 -1.6502 -2.7411 -0.0036
23774SOL     OW78436   7.367   7.156   6.852  0.1724 -0.2642 -0.2638
23774SOL    HW178437   7.303   7.094   6.817 -2.4669  2.0997  0.1158
23774SOL    HW278438   7.413   7.189   6.775  0.2793 -1.2254 -0.6291
23775SOL     OW78439   7.925   0.512   3.702  0.4896 -0.1210 -0.4258
23775SOL    HW178440   7.849   0.547   3.749  0.3548  0.9098 -1.3588
23775SOL    HW278441   7.980   0.474   3.770 -1.9623 -3.1979  0.0513
23776SOL     OW78442   1.653  11.969  10.780  0.2370  0.0215 -0.3839
23776SOL    HW178443   1.718  11.984  10.712 -0.2152  0.6630 -0.6800
23776SOL    HW278444   1.569  11.984  10.737 -0.0344  1.1451  0.4755
23777SOL     OW78445   1.486  12.177   9.275 -0.1186  0.3094 -0.0342
23777SOL    HW178446   1.557  12.206   9.218  0.5514 -0.8528  0.1678
23777SOL    HW278447   1.529  12.121   9.339 -0.7044  2.2410  2.1798
23778SOL     OW78448   8.165   6.517  12.727  0.0604 -0.3142 -0.0874
23778SOL    HW178449   8.186   6.589  12.786 -0.0206 -1.3742  1.2775
23778SOL    HW278450   8.197   6.439  12.771  0.4442 -1.1039 -1.6937
23779SOL     OW78451   4.787  11.456  11.961 -0.1602 -0.0734  0.5076
23779SOL    HW178452   4.704  11.436  12.004  0.2649 -1.9822  0.5195
23779SOL    HW278453   4.853  11.427  12.024  0.5393  0.9340  0.2664
23780SOL     OW78454   9.198   3.794   4.235 -0.0648  0.1174 -0.2041
23780SOL    HW178455   9.128   3.807   4.299 -0.4466  0.2315 -0.6378
23780SOL    HW278456   9.246   3.877   4.235 -0.4393  0.3351 -0.5133
23781SOL     OW78457   1.132   1.871  11.142 -0.8121  0.3278  0.0396
23781SOL    HW178458   1.173   1.905  11.062  1.3216  0.2135  1.0275
23781SOL    HW278459   1.052   1.922  11.151 -0.8298  0.7004 -1.8847
23782SOL     OW78460   1.465   9.335  11.001 -0.4046 -0.1239 -0.1702
23782SOL    HW178461   1.400   9.381  10.949 -1.4512 -1.4854 -0.1289
23782SOL    HW278462   1.465   9.246  10.967  2.4781  0.1262 -1.1171
23783SOL     OW78463   9.124   7.202   6.541  0.1923 -0.2167  0.6899
23783SOL    HW178464   9.092   7.246   6.620  0.3969  0.3952  0.4341
23783SOL    HW278465   9.053   7.212   6.478  1.4467  2.6240 -0.4437
23784SOL     OW78466   9.030   4.048  11.015 -0.2486  0.2865  0.5750
23784SOL    HW178467   9.069   4.006  11.092 -1.6961 -1.1237  0.5908
23784SOL    HW278468   9.041   3.985  10.944 -0.1568  0.9889 -0.0446
23785SOL     OW78469  12.855   1.326  11.123  0.3219  0.3638  0.5352
23785SOL    HW178470  12.883   1.327  11.032  0.2545  0.4939  0.5161
23785SOL    HW278471  12.763   1.353  11.121 -0.3218 -1.6195  0.4256
23786SOL     OW78472   2.297   0.097   1.987  0.0312  0.4781 -0.2014
23786SOL    HW178473   2.237   0.170   1.998  1.9115  1.9840  0.5575
23786SOL    HW278474   2.289   0.072   1.895  0.1943  2.4474 -0.7837
23787SOL     OW78475   7.630  12.389   9.105 -0.3412 -0.0732 -0.8568
23787SOL    HW178476   7.705  12.366   9.050  0.2146 -2.3263  0.6930
23787SOL    HW278477   7.569  12.316   9.093 -0.3418 -0.4543  1.1703
23788SOL     OW78478   4.486  11.403   9.057  0.5017 -0.6845 -0.2151
23788SOL    HW178479   4.457  11.341   8.990  0.3841 -0.9670  0.0978
23788SOL    HW278480   4.565  11.443   9.020 -0.1894 -0.0058 -1.0176
23789SOL     OW78481   4.482   5.413  11.295 -0.0151 -0.4805 -0.3224
23789SOL    HW178482   4.551   5.351  11.322 -0.3599 -0.2320  1.2182
23789SOL    HW278483   4.480   5.405  11.200  2.5821 -0.0531 -0.5079
23790SOL     OW78484   0.111   3.252   2.948 -0.0139 -0.2625 -0.7230
23790SOL    HW178485   0.198   3.212   2.959 -1.4820 -3.5544  0.2398
23790SOL    HW278486   0.050   3.179   2.953 -2.8306  1.6536 -3.2327
23791SOL     OW78487  12.696  11.591   3.051  0.6410 -0.3555 -0.3444
23791SOL    HW178488  12.652  11.543   3.120 -0.5271  1.2098  0.0545
23791SOL    HW278489  12.680  11.539   2.972 -0.5342 -0.6647  0.0717
23792SOL     OW78490   9.953   3.282   0.267  0.2633 -0.4161  0.3937
23792SOL    HW178491   9.924   3.201   0.224 -0.8268 -0.4106  1.0845
23792SOL    HW278492   9.895   3.291   0.343  0.8169  0.6587  0.7056
23793SOL     OW78493   2.464   5.927   0.598 -0.7454  0.2157  0.5838
23793SOL    HW178494   2.414   5.879   0.664 -2.9269 -1.4262 -2.0339
23793SOL    HW278495   2.405   5.998   0.572 -0.1175  0.5525  0.0640
23794SOL     OW78496   9.897   3.495   0.952  0.3920  0.2743  0.1311
23794SOL    HW178497   9.989   3.477   0.937  0.6287 -0.1923  1.9436
23794SOL    HW278498   9.894   3.540   1.036 -1.0983 -0.7464  0.6790
23795SOL     OW78499   0.863   7.136   4.935  0.7525  0.4488  0.0976
23795SOL    HW178500   0.935   7.102   4.882 -0.3298  1.1674 -1.9705
23795SOL    HW278501   0.833   7.213   4.887  0.0869  1.5182  2.1424
23796SOL     OW78502  10.926   4.221  10.901  0.0334  0.0313 -0.3665
23796SOL    HW178503  11.002   4.273  10.929  0.4684  0.5064 -2.2980
23796SOL    HW278504  10.867   4.223  10.976  1.7766 -0.0699  1.0703
23797SOL     OW78505   0.140   0.901   4.889 -0.1106 -0.3147  0.2053
23797SOL    HW178506   0.201   0.966   4.926 -2.4832  2.1816  0.0133
23797SOL    HW278507   0.063   0.951   4.865 -2.6373 -3.4044  1.1306
23798SOL     OW78508   2.242   5.263   5.947 -0.0123 -0.2668  0.0135
23798SOL    HW178509   2.157   5.218   5.949  0.2035 -0.7382  2.3789
23798SOL    HW278510   2.256   5.290   6.038  2.5301 -0.4761 -0.2526
23799SOL     OW78511   7.102  10.084   0.376  0.5036  0.4703 -0.4555
23799SOL    HW178512   7.037  10.138   0.330 -0.1301 -0.4044 -0.6244
23799SOL    HW278513   7.051  10.013   0.414  0.8435  1.7442  2.6139
23800SOL     OW78514   4.227   1.515  10.596 -0.2638  0.1278  0.4749
23800SOL    HW178515   4.141   1.478  10.615 -0.8656  1.6873  0.9597
23800SOL    HW278516   4.245   1.574  10.670  0.0368  1.7803 -0.8317
23801SOL     OW78517   1.135  10.728   6.958 -0.0603  0.0861  0.4293
23801SOL    HW178518   1.190  10.652   6.976 -0.5114 -0.1017  1.0778
23801SOL    HW278519   1.119  10.767   7.043  0.1546  0.9092  0.1012
23802SOL     OW78520   4.314   7.143  10.618 -0.4275 -0.5232  0.1617
23802SOL    HW178521   4.257   7.206  10.574  0.1319 -0.4467 -0.4555
23802SOL    HW278522   4.268   7.123  10.700 -1.1107 -0.1032 -0.1100
23803SOL     OW78523   4.705   2.385  10.019 -0.7758 -0.0010  0.3602
23803SOL    HW178524   4.735   2.470   9.988  0.8145  0.0500  1.8684
23803SOL    HW278525   4.610   2.395  10.029 -0.7482  1.2668 -0.3815
23804SOL     OW78526  12.330  10.636   2.455  0.4216 -0.2134  0.1854
23804SOL    HW178527  12.364  10.604   2.371 -0.7216 -1.5107  0.1787
23804SOL    HW278528  12.237  10.614   2.453  0.4662 -0.7004  1.9881
23805SOL     OW78529   5.810   3.623   9.642  0.4517  0.7807  0.0467
23805SOL    HW178530   5.781   3.692   9.582  0.9518  1.0116  0.0649
23805SOL    HW278531   5.904   3.613   9.623 -0.1015 -1.8220 -1.9124
23806SOL     OW78532   6.696   5.954   6.905  0.3231  0.6774 -0.7763
23806SOL    HW178533   6.742   5.985   6.828  3.5005  2.9131  1.7324
23806SOL    HW278534   6.726   5.864   6.917  1.7337  1.1178 -0.8590
23807SOL     OW78535   9.618   4.389   0.340 -0.1360  0.3541  0.3049
23807SOL    HW178536   9.645   4.351   0.424  2.2419 -0.9532 -0.9637
23807SOL    HW278537   9.699   4.400   0.291 -1.4061  1.5771 -1.6681
23808SOL     OW78538   4.714   7.060   6.466 -0.1446 -0.3293 -0.0747
23808SOL    HW178539   4.765   6.996   6.515 -1.0874 -0.7149  0.4326
23808SOL    HW278540   4.720   7.141   6.516  1.6534  0.2260 -1.0931
23809SOL     OW78541   8.628  12.921   0.498  0.4878  0.3909  0.3115
23809SOL    HW178542   8.537  12.930   0.526  0.2934 -0.4028 -0.0615
23809SOL    HW278543   8.667  12.861   0.562  1.3872  2.5231  1.8878
23810SOL     OW78544  11.966   0.818  12.448 -0.8389  0.4246  0.4945
23810SOL    HW178545  11.969   0.844  12.540 -0.9899 -0.3936  0.7346
23810SOL    HW278546  11.900   0.875  12.410 -1.9031 -0.2734  1.2418
23811SOL     OW78547  11.872   4.100   5.211 -0.3852  0.1381 -0.5203
23811SOL    HW178548  11.847   4.119   5.120 -1.2343  0.5647 -0.2128
23811SOL    HW278549  11.902   4.185   5.245  0.2257 -0.0878 -0.4865
23812SOL     OW78550   2.894  12.063   5.083  0.3685 -0.4563  0.3663
23812SOL    HW178551   2.824  11.998   5.074  0.1503 -0.4414  1.7007
23812SOL    HW278552   2.936  12.066   4.997 -0.4882 -1.3595 -0.1026
23813SOL     OW78553   2.801  11.100   2.318 -0.6970  0.3916 -0.2652
23813SOL    HW178554   2.803  11.118   2.412 -0.5058 -0.0070 -0.1920
23813SOL    HW278555   2.755  11.175   2.280  0.0231  0.9981  0.0382
23814SOL     OW78556   2.219  11.345   9.201  0.2325 -0.0592 -0.2360
23814SOL    HW178557   2.298  11.375   9.247 -0.0412  0.9118 -0.3725
23814SOL    HW278558   2.157  11.417   9.212  0.4497  0.6165 -2.8304
23815SOL     OW78559   6.844   0.168  11.150 -0.2320  0.0161  0.4152
23815SOL    HW178560   6.839   0.081  11.190 -0.3184 -0.3307 -0.3310
23815SOL    HW278561   6.878   0.224  11.219  1.6019 -0.9647  0.3670
23816SOL     OW78562   4.926  11.372  12.681 -0.1975  0.5658 -0.1571
23816SOL    HW178563   5.017  11.345  12.667 -1.2715 -3.2821 -1.1774
23816SOL    HW278564   4.920  11.391  12.774  1.1812 -1.7198  0.4918
23817SOL     OW78565   1.011   0.454  12.128 -0.0175 -0.3763  0.5614
23817SOL    HW178566   1.084   0.486  12.182 -0.3924  0.9148  0.3489
23817SOL    HW278567   0.942   0.433  12.192 -0.3326  0.8027  0.6341
23818SOL     OW78568   5.669   7.023   0.732  0.2546 -0.1507 -0.4593
23818SOL    HW178569   5.701   6.960   0.796  0.9375  1.2475  0.6218
23818SOL    HW278570   5.613   6.971   0.674  0.7555 -1.7312  0.3996
23819SOL     OW78571   6.935   7.041   4.937 -0.2814 -0.4289 -0.5979
23819SOL    HW178572   6.899   6.982   5.004 -1.9034 -1.6710 -2.4495
23819SOL    HW278573   7.017   6.999   4.910  0.4421  0.1379  0.6119
23820SOL     OW78574   3.065  12.475   7.902  0.2170  0.1575  0.6800
23820SOL    HW178575   3.073  12.405   7.966  0.8268 -1.5795 -1.1785
23820SOL    HW278576   3.111  12.549   7.941  0.0184 -0.6248  2.4758
23821SOL     OW78577   4.821   4.190   7.939 -0.6374 -0.1790 -0.0090
23821SOL    HW178578   4.871   4.270   7.923 -0.2733 -0.4414 -0.1905
23821SOL    HW278579   4.826   4.142   7.856 -1.2162 -0.1981 -0.0440
23822SOL     OW78580   3.909   6.726   8.679  0.2597  0.6774  0.0241
23822SOL    HW178581   3.947   6.686   8.757  1.8884  2.7160  0.3676
23822SOL    HW278582   3.838   6.667   8.654  1.4708 -1.5152  1.3861
23823SOL     OW78583   6.698   3.670   2.639 -0.7591 -0.1628 -0.0925
23823SOL    HW178584   6.696   3.642   2.731  0.6108  1.9609  0.6750
23823SOL    HW278585   6.607   3.694   2.620 -1.3051 -1.8176  0.2495
23824SOL     OW78586   5.276   3.179  12.770 -0.6272 -0.5295 -0.3722
23824SOL    HW178587   5.195   3.180  12.719 -1.2195 -1.3211  0.5287
23824SOL    HW278588   5.271   3.098  12.821  1.1142 -1.0123 -0.9071
23825SOL     OW78589   2.440   8.421  10.832  0.3121  0.0505  0.0892
23825SOL    HW178590   2.379   8.462  10.894  1.3556  0.2512  1.0175
23825SOL    HW278591   2.406   8.332  10.820  0.5562 -0.2789  1.6385
23826SOL     OW78592   9.844  12.364  11.051 -0.5655 -0.7059 -0.3449
23826SOL    HW178593   9.789  12.380  11.127  0.0085  0.9190 -0.2446
23826SOL    HW278594   9.862  12.270  11.054  0.9203 -0.4209  2.5622
23827SOL     OW78595   3.177  10.765   9.811  0.0771 -0.2558  0.3859
23827SOL    HW178596   3.084  10.745   9.798  0.0214  0.4021 -0.2552
23827SOL    HW278597   3.214  10.769   9.723  0.0735  2.4325  0.4357
23828SOL     OW78598   1.878   8.414   7.449  0.0396 -0.3400 -0.5319
23828SOL    HW178599   1.916   8.457   7.372  1.3029 -0.9315 -0.2651
23828SOL    HW278600   1.943   8.349   7.474 -0.9671 -1.0678  0.2441
23829SOL     OW78601   2.299   4.719   9.967  0.1685  0.5827  0.5664
23829SOL    HW178602   2.291   4.710   9.872 -0.1128  1.4572  0.4950
23829SOL    HW278603   2.323   4.632   9.998 -0.8907  0.0135 -0.1760
23830SOL     OW78604   7.086   9.936  12.024  0.4418  0.1964  0.0418
23830SOL    HW178605   7.139   9.858  12.005 -0.1349  0.0203 -0.9121
23830SOL    HW278606   7.147  10.009  12.018  1.3386 -0.2613  2.4651
23831SOL     OW78607   7.211   5.046   4.884  0.2331  0.0923  0.7286
23831SOL    HW178608   7.278   5.113   4.871  2.4398 -1.9352  0.7723
23831SOL    HW278609   7.222   5.018   4.975 -2.0164  0.9938  1.3291
23832SOL     OW78610  11.118   9.073   0.592  0.1646  0.1588 -0.2407
23832SOL    HW178611  11.196   9.128   0.584 -0.6211  1.6199  1.5359
23832SOL    HW278612  11.045   9.134   0.587 -0.8005 -0.9405  0.0785
23833SOL     OW78613   1.603   9.504   8.354  0.0998 -0.4394 -0.2297
23833SOL    HW178614   1.559   9.519   8.270 -1.5078  1.0187  0.7880
23833SOL    HW278615   1.556   9.430   8.393 -0.1622 -0.1457  0.0177
23834SOL     OW78616   5.462   6.205  11.554 -0.1436 -0.0775 -0.0061
23834SOL    HW178617   5.484   6.222  11.462 -1.4543  0.2115 -0.2765
23834SOL    HW278618   5.492   6.116  11.570 -1.0756 -0.6014 -1.0989
23835SOL     OW78619   4.449   0.674   5.892 -0.4297 -0.2124  0.7693
23835SOL    HW178620   4.501   0.595   5.904 -0.7658 -0.5994 -0.2407
23835SOL    HW278621   4.458   0.696   5.800 -2.8862 -0.9140  0.2760
23836SOL     OW78622  10.363   1.691   0.686  0.0393 -0.3520  0.0794
23836SOL    HW178623  10.395   1.603   0.705  2.9268  0.7278  0.7625
23836SOL    HW278624  10.371   1.738   0.769 -0.7354  0.7712 -0.4524
23837SOL     OW78625   7.288   4.806  12.219  0.1051 -0.3777  0.1183
23837SOL    HW178626   7.325   4.889  12.250 -0.0215  0.2728 -1.3604
23837SOL    HW278627   7.351   4.776  12.153 -0.3108 -1.0114  0.0063
23838SOL     OW78628   1.953   0.635   7.078  0.0835 -0.6730  0.0740
23838SOL    HW178629   2.049   0.630   7.083  0.1797  0.5058 -0.4078
23838SOL    HW278630   1.925   0.544   7.070  1.2708 -0.9287 -1.6892
23839SOL     OW78631   1.144   7.098   3.162 -0.2909 -0.0776  0.0758
23839SOL    HW178632   1.080   7.033   3.193 -1.0080  0.7413  0.3836
23839SOL    HW278633   1.112   7.123   3.075 -0.5853  0.5537  0.3532
23840SOL     OW78634  10.539   9.620   3.436 -0.2754 -0.0313  0.0702
23840SOL    HW178635  10.519   9.630   3.343  0.9533  0.3853 -0.1697
23840SOL    HW278636  10.610   9.556   3.437  1.1089  1.4566  0.5393
23841SOL     OW78637  10.008   0.671   5.301  0.2784 -0.6450  0.1303
23841SOL    HW178638   9.915   0.667   5.325  0.4382 -0.2254  0.8577
23841SOL    HW278639  10.034   0.760   5.323  0.8793 -0.7925  0.0254
23842SOL     OW78640   6.715   4.598   1.749 -0.9097 -0.8024 -0.0870
23842SOL    HW178641   6.678   4.617   1.835 -0.6876 -2.6213  0.4580
23842SOL    HW278642   6.792   4.655   1.743 -1.1347 -0.3943  0.7675
23843SOL     OW78643   0.680   4.151   2.971 -0.2792 -0.5514 -0.4008
23843SOL    HW178644   0.670   4.058   2.948 -1.1574 -0.2994 -1.1269
23843SOL    HW278645   0.597   4.191   2.944  0.3437  0.5681 -0.7179
23844SOL     OW78646  12.278   0.632  12.458  0.0020 -0.4771 -0.8570
23844SOL    HW178647  12.278   0.648  12.364 -0.5949  2.2430 -0.4744
23844SOL    HW278648  12.186   0.620  12.481  0.0132  0.0869 -0.4786
23845SOL     OW78649   8.759  12.521   5.751  0.0162 -0.3572 -0.0873
23845SOL    HW178650   8.708  12.532   5.831 -1.6839 -0.7064 -1.0842
23845SOL    HW278651   8.841  12.481   5.780 -1.1432 -1.8106  1.3201
23846SOL     OW78652   1.981   2.461   2.834  0.5515  0.1955  1.1090
23846SOL    HW178653   1.916   2.490   2.899  1.1291  0.2004  1.6995
23846SOL    HW278654   1.930   2.413   2.769 -0.4130  2.3039  0.2219
23847SOL     OW78655   0.374   3.565   6.930  0.1549  0.1465 -0.5646
23847SOL    HW178656   0.302   3.536   6.873 -0.2414  0.0638 -0.0295
23847SOL    HW278657   0.331   3.602   7.007  0.6822  0.6096 -0.4830
23848SOL     OW78658  12.258  12.078   0.911 -0.1175 -0.1035 -0.3809
23848SOL    HW178659  12.248  12.118   0.998 -0.3786 -1.4167  0.2264
23848SOL    HW278660  12.288  11.989   0.930 -0.8451 -0.6347 -1.6039
23849SOL     OW78661  10.443   4.890  11.819  0.1710  0.3178 -0.4912
23849SOL    HW178662  10.380   4.922  11.883 -0.1092 -1.2809  0.0806
23849SOL    HW278663  10.414   4.801  11.798  1.4036  0.0704 -1.3204
23850SOL     OW78664  11.685   5.511   5.932 -0.4516 -0.6812  0.0098
23850SOL    HW178665  11.642   5.434   5.895  1.3870 -1.4637 -0.5817
23850SOL    HW278666  11.731   5.551   5.858  0.8898 -0.6068  0.8580
23851SOL     OW78667   2.688   3.903   7.151 -0.2546 -0.0614 -0.0107
23851SOL    HW178668   2.606   3.856   7.167 -0.4001  0.1043 -0.2617
23851SOL    HW278669   2.712   3.938   7.237  0.0499 -0.9013  0.2607
23852SOL     OW78670   7.126   6.759  11.926 -0.5082  0.1714  0.0294
23852SOL    HW178671   7.085   6.778  11.842 -2.2993 -2.0714  0.3032
23852SOL    HW278672   7.120   6.842  11.975  0.5231  1.4989 -1.9452
23853SOL     OW78673   5.692  10.506   4.884 -0.2249  0.2286 -0.0597
23853SOL    HW178674   5.729  10.587   4.919 -0.6809  0.2871  0.3002
23853SOL    HW278675   5.718  10.439   4.948  1.9832 -0.3062 -1.4414
23854SOL     OW78676   9.639   6.402   1.122 -0.0329  0.4379  0.5234
23854SOL    HW178677   9.720   6.352   1.136 -0.2548  0.0080  0.2783
23854SOL    HW278678   9.646   6.474   1.184  0.2357  0.0383  0.9729
23855SOL     OW78679  12.559   2.623   3.573  0.2625  0.1152  0.1083
23855SOL    HW178680  12.505   2.560   3.524  0.8781 -1.4287  1.3171
23855SOL    HW278681  12.647   2.586   3.568  0.6756  1.0185  0.6773
23856SOL     OW78682  12.481  11.377   8.100  0.1708 -0.1820  0.2734
23856SOL    HW178683  12.538  11.313   8.058  0.1560  0.2982 -0.4818
23856SOL    HW278684  12.442  11.329   8.174  1.4743 -0.5363  0.7592
23857SOL     OW78685   2.237   5.334   5.547 -0.4426 -0.5003 -0.6043
23857SOL    HW178686   2.230   5.387   5.467 -1.8724 -1.6657 -1.3000
23857SOL    HW278687   2.188   5.254   5.527  1.8306 -2.2257  0.3059
23858SOL     OW78688  12.933   8.775   7.467  0.2667 -0.4025  0.1070
23858SOL    HW178689  12.866   8.776   7.536  0.9125 -0.3272  0.7511
23858SOL    HW278690  12.955   8.868   7.454 -1.2204 -0.2485 -1.5881
23859SOL     OW78691   8.404   1.735  10.308 -0.2149 -0.1690  0.1138
23859SOL    HW178692   8.374   1.680  10.235 -1.3971  1.2114 -0.4766
23859SOL    HW278693   8.368   1.693  10.385 -2.0986  0.3592 -0.4279
23860SOL     OW78694  10.828   4.581   2.540  0.1856 -0.2328  0.2852
23860SOL    HW178695  10.814   4.507   2.480 -0.7461 -0.8409  1.2233
23860SOL    HW278696  10.922   4.578   2.560  0.6738  0.4074 -1.6428
23861SOL     OW78697   7.119   6.044   7.818 -0.0683 -0.1232  0.2577
23861SOL    HW178698   7.028   6.057   7.790 -0.2585  2.1873  1.6436
23861SOL    HW278699   7.116   5.968   7.875 -0.8923 -0.7807 -0.6290
23862SOL     OW78700   0.218   4.339   2.567 -0.4541  0.2102 -0.1672
23862SOL    HW178701   0.147   4.278   2.544 -1.0201  0.2059  1.4980
23862SOL    HW278702   0.298   4.289   2.554 -0.5906  0.6350 -3.4418
23863SOL     OW78703   0.847  11.218   9.527 -0.1710 -0.0723 -0.4500
23863SOL    HW178704   0.931  11.265   9.522  0.6617 -1.2136  1.6287
23863SOL    HW278705   0.794  11.269   9.587 -0.0540 -0.6089  0.1233
23864SOL     OW78706  12.559   5.138   8.426  0.4602  0.0659  0.0485
23864SOL    HW178707  12.606   5.202   8.479  0.8957 -0.1146 -0.1159
23864SOL    HW278708  12.506   5.089   8.490 -0.1213  0.7906  0.1339
23865SOL     OW78709  12.365  11.829   2.056 -0.4559  0.1491 -0.2197
23865SOL    HW178710  12.372  11.736   2.035 -0.6989  0.2679 -0.8602
23865SOL    HW278711  12.445  11.867   2.018  1.0147 -0.1622  2.3159
23866SOL     OW78712  12.030   4.016   9.550  0.0463  0.1285  0.2032
23866SOL    HW178713  12.029   3.980   9.461  2.4099  0.6792 -0.1218
23866SOL    HW278714  12.119   3.999   9.582 -0.4020  0.9538  2.0415
23867SOL     OW78715   1.222   5.763   3.645  1.0198  0.1443 -0.3729
23867SOL    HW178716   1.131   5.733   3.640  0.7782  0.5790  1.1810
23867SOL    HW278717   1.216   5.855   3.671  1.9225 -0.2903  1.5570
23868SOL     OW78718   0.723   2.795  10.533  0.4179 -0.1544  0.0326
23868SOL    HW178719   0.795   2.823  10.590  0.7101  0.7234 -0.7353
23868SOL    HW278720   0.644   2.814  10.584  0.6153  1.9001 -0.3327
23869SOL     OW78721   8.479  11.301   4.395 -0.5176 -0.0217 -0.3031
23869SOL    HW178722   8.535  11.375   4.373  0.0649 -0.3483  0.0492
23869SOL    HW278723   8.430  11.283   4.315 -2.7378  2.4826  0.3659
23870SOL     OW78724   1.501  11.985   4.586  0.0631 -0.3220 -0.2175
23870SOL    HW178725   1.433  11.935   4.541  0.9508 -1.3336 -0.4658
23870SOL    HW278726   1.583  11.959   4.544  0.7791 -0.3334  1.1217
23871SOL     OW78727   9.919   9.571   3.078  0.5864 -0.1375 -0.3587
23871SOL    HW178728   9.884   9.586   2.990  1.3304  1.5769 -0.3994
23871SOL    HW278729   9.851   9.604   3.136  0.3086 -0.8108 -0.2929
23872SOL     OW78730   7.023   1.836   3.290  0.0366  0.3159  0.5308
23872SOL    HW178731   7.092   1.789   3.243 -0.6531 -0.7483  0.5336
23872SOL    HW278732   7.053   1.926   3.294  0.8735  0.1010 -0.5097
23873SOL     OW78733   1.906   9.929  11.925 -0.4376 -0.4155 -0.4791
23873SOL    HW178734   1.841   9.893  11.985 -0.4393 -0.6848 -0.6417
23873SOL    HW278735   1.990   9.908  11.965 -0.4166 -1.2585 -0.9358
23874SOL     OW78736   3.142   5.459   3.067  0.5964  0.0457 -0.3221
23874SOL    HW178737   3.226   5.429   3.102  0.5209 -1.1581 -1.1010
23874SOL    HW278738   3.124   5.540   3.114  1.9448  0.0583  0.2290
23875SOL     OW78739   4.762   1.646  11.294 -0.3048 -0.1726  0.2330
23875SOL    HW178740   4.723   1.616  11.211  0.1230  1.5133 -0.6139
23875SOL    HW278741   4.800   1.731  11.273  2.6945 -1.1058  1.3504
23876SOL     OW78742   5.525  12.739  11.876  0.0222  0.5656  0.0155
23876SOL    HW178743   5.562  12.795  11.943  1.2103  1.1865 -1.1037
23876SOL    HW278744   5.508  12.655  11.920  0.1191  1.1685  1.2220
23877SOL     OW78745   0.361   0.470   2.437  0.7988 -0.0302  0.2080
23877SOL    HW178746   0.302   0.544   2.449 -1.1159 -1.0249 -2.2048
23877SOL    HW278747   0.362   0.425   2.521 -1.1309  0.5478  0.5762
23878SOL     OW78748   4.957   4.860  12.463 -0.0996 -0.3483  0.1440
23878SOL    HW178749   5.028   4.832  12.521 -1.1501 -2.1787  0.5976
23878SOL    HW278750   4.976   4.817  12.379 -1.3614 -1.9499  0.6509
23879SOL     OW78751   6.805   7.086  12.718 -0.2444  0.2622  0.1719
23879SOL    HW178752   6.731   7.045  12.763 -0.0011  0.0783  0.4081
23879SOL    HW278753   6.808   7.175  12.753  0.3660 -0.0887  1.0361
23880SOL     OW78754   9.360   8.253  11.028 -0.6052 -0.5418 -0.2049
23880SOL    HW178755   9.444   8.286  11.058 -1.5082  3.1445 -1.2282
23880SOL    HW278756   9.379   8.166  10.994  2.4986 -0.3817  0.8267
23881SOL     OW78757   5.851   2.839   8.907  0.6091 -0.1543 -0.0861
23881SOL    HW178758   5.873   2.759   8.858 -1.5478  0.5164 -2.3812
23881SOL    HW278759   5.920   2.901   8.883  1.7266 -0.9878  0.8910
23882SOL     OW78760  12.541   6.246   8.241  0.3671  0.0461  0.5511
23882SOL    HW178761  12.615   6.306   8.255  0.2261  0.2986  0.2307
23882SOL    HW278762  12.566   6.194   8.164 -0.4879  1.2618 -0.5916
23883SOL     OW78763   0.717   0.662   0.518 -0.2815 -0.0331 -0.0032
23883SOL    HW178764   0.804   0.675   0.554 -0.8979 -0.4482  1.7553
23883SOL    HW278765   0.681   0.750   0.507  0.7624  0.2032 -1.9234
23884SOL     OW78766   7.373   3.007   2.327 -0.0178 -0.0705 -0.1696
23884SOL    HW178767   7.298   3.032   2.273 -0.9439  0.2025  1.1802
23884SOL    HW278768   7.389   2.916   2.304 -0.6474 -0.0782 -0.6250
23885SOL     OW78769  10.381   6.487   4.009 -0.4903 -0.0718 -0.4965
23885SOL    HW178770  10.456   6.451   3.961  0.0984  0.4958 -0.0177
23885SOL    HW278771  10.368   6.426   4.082 -0.5754 -0.2366 -0.6479
23886SOL     OW78772   4.744  11.987   1.017 -0.5494 -0.0154 -0.1002
23886SOL    HW178773   4.691  11.922   0.971  1.1801 -0.9496 -0.8645
23886SOL    HW278774   4.710  12.072   0.986 -0.8938 -0.5909 -1.3737
23887SOL     OW78775   9.767   9.793  11.910 -0.2146 -0.0716  0.2189
23887SOL    HW178776   9.724   9.711  11.884 -0.6480  0.4004 -0.5537
23887SOL    HW278777   9.856   9.766  11.933 -0.5686 -0.8722  0.6983
23888SOL     OW78778   0.870   4.428   3.910 -0.3672  0.3801  0.7015
23888SOL    HW178779   0.964   4.442   3.907 -0.6067  2.1124 -0.3313
23888SOL    HW278780   0.844   4.451   3.999  0.2637 -0.9447  1.2537
23889SOL     OW78781   9.606  10.628   1.661  0.1075 -0.2981  0.0044
23889SOL    HW178782   9.620  10.668   1.747 -0.5873  0.7247 -0.3470
23889SOL    HW278783   9.532  10.568   1.675  0.0312 -0.1757  0.1232
23890SOL     OW78784  10.831  11.378  12.739 -0.4296 -0.2224 -1.0013
23890SOL    HW178785  10.763  11.442  12.717 -1.0139 -0.9475 -1.3250
23890SOL    HW278786  10.801  11.296  12.699  1.0066 -0.3850 -1.7900
23891SOL     OW78787   7.338   6.617   5.264  0.1856  0.8379  0.3871
23891SOL    HW178788   7.391   6.682   5.217 -0.5326  0.6569 -0.7020
23891SOL    HW278789   7.390   6.536   5.259 -0.3116  0.5643 -1.0067
23892SOL     OW78790   5.096   4.978  10.808  0.5689  0.2578  0.5488
23892SOL    HW178791   5.167   4.993  10.870  1.4799  0.0894 -0.4215
23892SOL    HW278792   5.140   4.958  10.725 -0.6134 -0.5750  0.0925
23893SOL     OW78793   5.009   5.837   9.767  0.3895 -0.2394 -0.7221
23893SOL    HW178794   4.926   5.797   9.793  0.1921  1.3865  1.4046
23893SOL    HW278795   5.020   5.811   9.675 -2.3577 -0.6670 -1.0184
23894SOL     OW78796   5.666  12.800   0.517 -0.2179  0.6397  0.6898
23894SOL    HW178797   5.650  12.817   0.424 -0.4723  0.4488  0.6979
23894SOL    HW278798   5.659  12.886   0.559 -1.4513  0.5368  0.7241
23895SOL     OW78799   3.732   6.523  11.439  0.3388 -0.3635  0.3420
23895SOL    HW178800   3.787   6.590  11.400 -0.4084  0.4257  0.6187
23895SOL    HW278801   3.661   6.511  11.376 -1.4904  1.7198  1.8679
23896SOL     OW78802   0.741  11.253   1.593 -0.2818 -0.1991 -0.0009
23896SOL    HW178803   0.763  11.343   1.618 -0.1966 -0.6656  1.7556
23896SOL    HW278804   0.819  11.220   1.549  0.2672  0.1015  0.7350
23897SOL     OW78805   8.475   5.492  10.991  0.0756  0.1799 -0.1153
23897SOL    HW178806   8.432   5.484  11.076 -0.9378  1.4586 -0.4610
23897SOL    HW278807   8.418   5.551  10.941  1.4220  0.6655 -1.1593
23898SOL     OW78808   0.026   7.885   8.113  0.4285 -0.3978  0.2254
23898SOL    HW178809   0.108   7.852   8.076  0.0188  0.0468 -1.1491
23898SOL    HW278810   0.053   7.954   8.173  1.0743 -0.2795 -0.1895
23899SOL     OW78811  12.298  12.680  11.894  0.1443  0.2935 -1.1312
23899SOL    HW178812  12.232  12.612  11.878  0.5302 -0.2902 -0.3059
23899SOL    HW278813  12.309  12.681  11.989  0.5503  1.1379 -1.1766
23900SOL     OW78814  11.840   3.462   6.987 -0.7004  0.0381  0.5761
23900SOL    HW178815  11.768   3.518   6.956  0.0359  1.1625  0.8424
23900SOL    HW278816  11.799   3.377   7.003 -1.7571  0.3657 -0.2913
23901SOL     OW78817   4.622   8.165   6.823 -0.6311 -0.2078  0.3883
23901SOL    HW178818   4.544   8.194   6.776  0.5205  0.7414 -1.0341
23901SOL    HW278819   4.695   8.206   6.776  0.8391 -2.1821  0.7922
23902SOL     OW78820   7.732   9.701   8.840 -0.2282 -0.0794 -0.1724
23902SOL    HW178821   7.816   9.707   8.796  0.6319 -1.1726  1.2010
23902SOL    HW278822   7.695   9.618   8.810 -0.5641  0.1319 -0.3486
23903SOL     OW78823   1.895  11.062   4.443 -0.1089  0.1579 -0.8303
23903SOL    HW178824   1.939  11.113   4.375 -0.0345  0.1759 -0.7691
23903SOL    HW278825   1.928  11.098   4.526  1.4394 -1.2431 -0.7770
23904SOL     OW78826   1.015   4.439   1.787  0.6763  0.3678  0.1440
23904SOL    HW178827   1.003   4.376   1.716 -0.3604 -0.5095  1.0601
23904SOL    HW278828   0.938   4.495   1.783  0.1417 -0.2725  1.1297
23905SOL     OW78829   7.591   5.096   2.188 -0.1465 -0.5842  0.1600
23905SOL    HW178830   7.514   5.114   2.134 -0.7922 -0.4169  1.1092
23905SOL    HW278831   7.648   5.172   2.177  0.0213 -0.8307 -0.7614
23906SOL     OW78832   8.889   4.890   9.236 -0.8357  0.6933 -0.8155
23906SOL    HW178833   8.839   4.888   9.154 -2.2262 -0.6233  0.0307
23906SOL    HW278834   8.847   4.825   9.292  0.7413  0.8194  0.5883
23907SOL     OW78835   1.556   1.623   5.104 -0.0058 -0.3132 -0.3616
23907SOL    HW178836   1.463   1.632   5.126 -0.4176  2.0193 -2.6578
23907SOL    HW278837   1.560   1.548   5.045 -0.3777 -0.5906 -0.0398
23908SOL     OW78838  10.030  12.440   6.291  0.5824 -0.7073 -0.2913
23908SOL    HW178839  10.042  12.518   6.345 -0.6585  0.9137 -2.2258
23908SOL    HW278840  10.113  12.429   6.245  0.2837  0.3704 -1.1037
23909SOL     OW78841   6.750   3.941  11.772 -0.0489 -0.2216 -0.3958
23909SOL    HW178842   6.798   3.870  11.728 -0.5432 -0.3163 -0.8005
23909SOL    HW278843   6.805   3.965  11.846  1.5333  0.9066 -1.8533
23910SOL     OW78844   5.844  11.055   7.095  0.0732 -0.5592 -0.1300
23910SOL    HW178845   5.831  10.968   7.133  0.4393 -0.5829 -0.0600
23910SOL    HW278846   5.920  11.045   7.038  0.2725 -0.2266  0.0748
23911SOL     OW78847   1.589  11.216   5.281  0.5800 -0.1092  0.1893
23911SOL    HW178848   1.631  11.166   5.211 -0.3714  0.6090 -0.9355
23911SOL    HW278849   1.642  11.199   5.358  2.4522  0.1486 -0.9868
23912SOL     OW78850  12.740   3.696   8.322 -0.3734 -0.2394 -0.0903
23912SOL    HW178851  12.703   3.702   8.234  0.9614 -0.2230 -0.6792
23912SOL    HW278852  12.669   3.663   8.376 -1.3521  0.1786 -1.0892
23913SOL     OW78853   1.215  11.761   3.310 -0.1434  0.8269  0.2854
23913SOL    HW178854   1.283  11.805   3.259  2.0337 -2.4992  0.0295
23913SOL    HW278855   1.182  11.692   3.252 -0.2652 -0.6985  2.0758
23914SOL     OW78856   5.004   2.345   8.663  0.4399  0.1197  0.2038
23914SOL    HW178857   4.991   2.334   8.569 -0.8502 -0.0595  0.3874
23914SOL    HW278858   4.957   2.271   8.703  1.4802 -0.1483  0.9694
23915SOL     OW78859  11.761   2.843   2.756  0.1872  0.7612 -0.2977
23915SOL    HW178860  11.857   2.846   2.752  0.1245  1.7258 -1.7888
23915SOL    HW278861  11.742   2.783   2.828  1.9093  0.4231 -0.0826
23916SOL     OW78862  11.603   2.378  11.895 -0.0428 -0.1569  0.1511
23916SOL    HW178863  11.684   2.416  11.930  0.5570 -0.8302 -0.4602
23916SOL    HW278864  11.632   2.301  11.847 -1.1488 -0.9455  0.7036
23917SOL     OW78865   0.124   3.530   9.669  0.1723 -0.3420  0.4041
23917SOL    HW178866   0.200   3.474   9.682  0.5976  0.3109  0.7996
23917SOL    HW278867   0.160   3.611   9.633 -0.4567 -0.3893 -0.3720
23918SOL     OW78868   4.943   7.377   1.350  0.3951  0.3372  0.8130
23918SOL    HW178869   4.970   7.331   1.430 -0.9557  0.4592  1.3547
23918SOL    HW278870   4.897   7.310   1.299 -0.3255  0.7124  0.9607
23919SOL     OW78871   8.928  11.573   0.020  0.1181 -0.1933 -0.4076
23919SOL    HW178872   8.859  11.577   0.086  2.4208 -0.3862  2.1697
23919SOL    HW278873   8.996  11.518   0.059  2.4358  1.2578 -2.1135
23920SOL     OW78874  11.841  11.324   8.996 -0.1564 -0.1817  0.4837
23920SOL    HW178875  11.895  11.316   8.917 -0.4874 -0.4287  0.2801
23920SOL    HW278876  11.887  11.388   9.050 -0.5285  0.8503 -0.4056
23921SOL     OW78877  11.047  12.228   9.985  0.5152  0.3022  0.4438
23921SOL    HW178878  10.985  12.286   9.940  0.0977 -1.2239 -1.0540
23921SOL    HW278879  11.127  12.232   9.933  0.8381  0.3373  0.9344
23922SOL     OW78880   0.498   1.122   6.804  0.1044 -0.2766  0.4467
23922SOL    HW178881   0.578   1.169   6.780 -0.4378 -0.5275 -2.0355
23922SOL    HW278882   0.433   1.191   6.820 -0.5747 -0.0400 -2.7729
23923SOL     OW78883   1.281   1.026   0.687  0.5875  0.1524  0.1342
23923SOL    HW178884   1.364   1.070   0.706  0.4219  0.3889  0.3219
23923SOL    HW278885   1.253   0.991   0.771 -0.0404  1.0124  0.2970
23924SOL     OW78886  10.724   7.265   8.263 -0.5761 -0.0410 -0.0093
23924SOL    HW178887  10.706   7.358   8.280  0.2403 -0.0892  1.2571
23924SOL    HW278888  10.680   7.219   8.335 -0.1466 -0.5584 -0.0796
23925SOL     OW78889   4.991   9.851   9.600  0.0433 -0.1017 -0.1210
23925SOL    HW178890   5.003   9.842   9.505  0.8022  0.7203 -0.1160
23925SOL    HW278891   4.979   9.945   9.614 -1.3263 -0.3492  0.4759
23926SOL     OW78892   2.267   3.658   3.327 -0.0627  0.4705 -0.0823
23926SOL    HW178893   2.194   3.695   3.378 -1.6462 -0.7624 -1.3306
23926SOL    HW278894   2.231   3.647   3.239  2.1353  1.1540 -1.1402
23927SOL     OW78895   3.483  10.732   2.471  0.2090 -0.0473 -0.6856
23927SOL    HW178896   3.529  10.654   2.441  1.9871  0.8221 -0.3569
23927SOL    HW278897   3.440  10.766   2.393 -0.5889 -1.3305 -0.8291
23928SOL     OW78898  11.833   6.347  12.556  0.5098 -0.3827 -0.6973
23928SOL    HW178899  11.825   6.439  12.531  0.3375  0.0942  0.9953
23928SOL    HW278900  11.812   6.346  12.650  1.6348 -1.9740 -0.4325
23929SOL     OW78901   6.451   0.276  11.276 -0.0737 -0.1598 -0.0601
23929SOL    HW178902   6.479   0.265  11.367 -1.5322 -1.1724  0.3034
23929SOL    HW278903   6.435   0.370  11.267 -1.2987 -0.2250  1.1835
23930SOL     OW78904   3.750   7.685   1.884 -0.1135  0.1039  0.8901
23930SOL    HW178905   3.695   7.740   1.940 -0.9635  0.4985 -0.3069
23930SOL    HW278906   3.839   7.703   1.914 -0.3414  2.2763  0.4256
23931SOL     OW78907   7.407   9.636   9.919  0.6075  0.5490 -0.3033
23931SOL    HW178908   7.333   9.581   9.943  1.6043 -0.6860 -0.0003
23931SOL    HW278909   7.400   9.646   9.824  0.3362  0.0078 -0.3411
23932SOL     OW78910   6.185   9.809   9.756 -0.2969 -0.4157  0.1891
23932SOL    HW178911   6.160   9.733   9.703  2.2601 -1.5302  0.4197
23932SOL    HW278912   6.150   9.791   9.843 -2.8543  0.5007 -0.5740
23933SOL     OW78913  10.686   0.529   3.827  0.7346  0.4392  0.0699
23933SOL    HW178914  10.638   0.520   3.744  0.9207 -0.1701  0.0256
23933SOL    HW278915  10.634   0.592   3.877 -1.3592 -1.7442  0.8873
23934SOL     OW78916   8.049   1.530   2.995  0.1805 -0.1196 -0.8595
23934SOL    HW178917   8.119   1.566   3.049  0.7106 -1.2268 -0.7889
23934SOL    HW278918   7.968   1.552   3.042  0.5515  0.1705 -0.3536
23935SOL     OW78919   4.607   2.684   6.439  0.3026  0.3703  0.1336
23935SOL    HW178920   4.691   2.718   6.468 -0.3541  1.1799  1.1737
23935SOL    HW278921   4.560   2.761   6.406 -0.2058  0.0079 -0.0096
23936SOL     OW78922   2.828   8.695   5.423 -0.0377  0.2605  0.0916
23936SOL    HW178923   2.787   8.780   5.407  1.0566  0.7055 -0.4275
23936SOL    HW278924   2.879   8.707   5.502 -0.2301 -0.0496  0.2665
23937SOL     OW78925   2.174   3.752   8.872  0.1188  0.1567 -0.4182
23937SOL    HW178926   2.146   3.837   8.906 -0.2353 -0.3134  0.4997
23937SOL    HW278927   2.101   3.694   8.890  0.9291 -0.6724  0.2933
23938SOL     OW78928   5.858   7.915   5.341 -0.2017  0.5301 -0.0078
23938SOL    HW178929   5.839   7.971   5.265 -0.2450  0.1361 -0.2898
23938SOL    HW278930   5.844   7.972   5.416 -3.4643  0.0576 -0.1166
23939SOL     OW78931   5.607   3.722   2.918  0.3748  0.2907 -0.6413
23939SOL    HW178932   5.692   3.700   2.957  1.4175  1.4329 -2.1202
23939SOL    HW278933   5.546   3.722   2.991  1.7638  0.0028  0.5721
23940SOL     OW78934   2.582   5.722   1.660 -0.3395 -0.4382 -0.2370
23940SOL    HW178935   2.550   5.636   1.689 -0.7758 -0.8032 -1.7204
23940SOL    HW278936   2.583   5.775   1.740 -2.7000 -1.0110  0.2416
23941SOL     OW78937  12.125   1.591  11.483  0.2068  0.3607 -0.2199
23941SOL    HW178938  12.213   1.559  11.464  0.2897 -0.5769  1.4815
23941SOL    HW278939  12.073   1.512  11.497 -0.1436  0.8653  1.7781
23942SOL     OW78940   8.294   1.698   8.271  0.0177 -0.0827  0.0640
23942SOL    HW178941   8.345   1.778   8.283 -0.6421  0.6098 -1.4680
23942SOL    HW278942   8.231   1.699   8.344 -1.2564  1.8473 -0.9840
23943SOL     OW78943   2.142   3.012   9.181 -0.1090  0.1184 -0.0644
23943SOL    HW178944   2.069   3.031   9.240  1.1098  0.8704  1.2927
23943SOL    HW278945   2.160   3.095   9.138 -0.5691 -0.2680 -1.0143
23944SOL     OW78946   7.833   5.006   3.301 -0.1313  0.1764 -0.0077
23944SOL    HW178947   7.766   4.968   3.359 -0.7656  0.2456 -0.6863
23944SOL    HW278948   7.794   5.088   3.270  0.4367  0.4162 -0.1044
23945SOL     OW78949   8.442   8.824   2.158  0.1399 -0.0176  0.2828
23945SOL    HW178950   8.399   8.884   2.219 -3.3700 -3.1911  1.3826
23945SOL    HW278951   8.517   8.790   2.207  0.1550  0.9293  0.9508
23946SOL     OW78952   9.062  11.279   0.181  0.3488 -0.4404  0.2703
23946SOL    HW178953   9.141  11.333   0.189  0.0206  0.0857  0.0487
23946SOL    HW278954   9.056  11.260   0.087  0.0805 -0.2710  0.2509
23947SOL     OW78955   8.101  11.901   0.282  0.0032  0.4923 -0.1625
23947SOL    HW178956   8.083  11.817   0.325  0.1420  0.5625  0.0345
23947SOL    HW278957   8.046  11.964   0.329  2.0713  1.0571  1.7050
23948SOL     OW78958   3.333   4.466   4.253  0.0600  0.2262 -0.0879
23948SOL    HW178959   3.395   4.402   4.220 -1.0659 -0.0222 -1.8827
23948SOL    HW278960   3.384   4.546   4.263  0.9664 -0.3319 -0.0948
23949SOL     OW78961   2.761   4.458   2.313  0.1270 -0.0959  0.6196
23949SOL    HW178962   2.680   4.448   2.262 -0.2198  1.6994  0.7540
23949SOL    HW278963   2.735   4.513   2.387  1.1169 -0.8972  1.5916
23950SOL     OW78964   0.896   3.451  10.784 -0.2150 -0.1208 -0.0168
23950SOL    HW178965   0.834   3.497  10.727  1.1572  0.7643 -0.8693
23950SOL    HW278966   0.939   3.387  10.727  2.1094  1.6543 -0.4730
23951SOL     OW78967   4.255   8.688   8.391  0.2216  0.1838 -0.0868
23951SOL    HW178968   4.320   8.750   8.424  0.7656 -0.2015 -0.4131
23951SOL    HW278969   4.252   8.619   8.457  0.3144  0.0867 -0.1842
23952SOL     OW78970   6.408   6.428   7.295  0.4323 -0.0190 -0.4581
23952SOL    HW178971   6.383   6.499   7.355 -0.2506  1.1912 -2.0925
23952SOL    HW278972   6.421   6.472   7.211  2.7105 -1.4619 -0.9368
23953SOL     OW78973   9.912  11.212   8.958  0.3433  0.2508 -0.1374
23953SOL    HW178974   9.880  11.302   8.955  0.4650  0.2760 -0.6943
23953SOL    HW278975   9.946  11.202   9.047  0.3323  0.7544 -0.0751
23954SOL     OW78976  12.589   7.139   4.005 -0.6202  0.2687  0.0105
23954SOL    HW178977  12.643   7.122   3.927 -0.9026  0.1049 -0.1488
23954SOL    HW278978  12.600   7.060   4.059 -0.0389  0.5808  0.3650
23955SOL     OW78979   7.874   3.334   0.802  0.0761  0.0049  0.3854
23955SOL    HW178980   7.946   3.383   0.761 -0.6382  1.1054  0.4073
23955SOL    HW278981   7.892   3.243   0.779  1.1040  0.3278 -0.1910
23956SOL     OW78982   7.264   9.415   8.530 -0.6386  0.3343  0.1699
23956SOL    HW178983   7.344   9.449   8.491 -1.1359  0.0808 -1.1266
23956SOL    HW278984   7.204   9.490   8.532 -0.9212  0.1348 -0.4400
23957SOL     OW78985  10.657   2.197  10.459 -0.0150  0.1292  0.0841
23957SOL    HW178986  10.746   2.186  10.493  0.2098 -2.0439 -1.0212
23957SOL    HW278987  10.643   2.119  10.406 -2.3040  0.8364 -0.4201
23958SOL     OW78988   0.896   8.110   1.909 -0.0646  0.4532  0.1576
23958SOL    HW178989   0.900   8.197   1.868  0.0081  0.0875 -0.6180
23958SOL    HW278990   0.950   8.119   1.988 -1.1399  1.4939  0.8229
23959SOL     OW78991  12.397   2.745   6.159  0.1910  0.2006  0.0751
23959SOL    HW178992  12.380   2.755   6.066 -2.0713 -2.5002  0.0678
23959SOL    HW278993  12.345   2.669   6.185 -0.2587  1.5777  3.8263
23960SOL     OW78994   2.122  10.093  11.459  0.2658 -0.3889 -0.1325
23960SOL    HW178995   2.171  10.098  11.541  0.8286 -0.7861 -0.4433
23960SOL    HW278996   2.054  10.160  11.468  1.0436  0.3672  0.1761
23961SOL     OW78997   4.559   7.781   2.645 -0.6345  0.6034 -0.7009
23961SOL    HW178998   4.489   7.725   2.680  0.6428  0.1596  1.3049
23961SOL    HW278999   4.592   7.829   2.721 -0.1747  2.4329 -1.9885
23962SOL     OW79000   5.659   2.133   4.915 -0.1709 -0.5299  0.3005
23962SOL    HW179001   5.665   2.060   4.853  3.1829 -1.3439  1.3637
23962SOL    HW279002   5.650   2.092   5.001  3.2721  0.0807  1.0837
23963SOL     OW79003   4.647   0.642  10.402  0.8138  0.9745 -0.2192
23963SOL    HW179004   4.658   0.737  10.394  0.1153  0.9177 -2.5032
23963SOL    HW279005   4.574   0.632  10.462 -0.4199  1.9778 -1.4948
23964SOL     OW79006   9.350   8.067   6.411  0.5697  0.3628  0.1650
23964SOL    HW179007   9.426   8.018   6.440  1.3689  1.2721 -0.3295
23964SOL    HW279008   9.366   8.085   6.318  1.1204  2.9152  0.6789
23965SOL     OW79009   9.345  12.881  12.451  0.7428  0.3006  0.4291
23965SOL    HW179010   9.302  12.826  12.517  0.6829  0.4344  0.5023
23965SOL    HW279011   9.417  12.827  12.419  0.8789  0.2987  0.7295
23966SOL     OW79012   4.344   9.174   6.275 -0.5601 -0.4829  0.0307
23966SOL    HW179013   4.368   9.244   6.214  1.1642 -1.1843 -0.1585
23966SOL    HW279014   4.249   9.179   6.282 -0.5365  1.4370 -0.5028
23967SOL     OW79015  11.998   4.444   3.524 -0.2319 -0.0813  0.5473
23967SOL    HW179016  12.044   4.423   3.443 -1.9873 -0.6939 -0.3596
23967SOL    HW279017  11.950   4.363   3.545 -2.1895  1.0099  0.4944
23968SOL     OW79018   7.534   3.846   1.561 -0.0158  0.1580  0.2744
23968SOL    HW179019   7.485   3.763   1.561 -0.6592  0.4940 -1.2748
23968SOL    HW279020   7.489   3.900   1.626 -0.7466 -0.0726 -0.0297
23969SOL     OW79021   1.218   7.685   6.815  0.1904 -0.3763  0.1360
23969SOL    HW179022   1.182   7.734   6.889 -1.8261  2.4020 -2.4256
23969SOL    HW279023   1.300   7.730   6.794  0.2290 -0.4925  0.0364
23970SOL     OW79024  11.394   5.728   4.141 -0.1686  0.4885  0.3925
23970SOL    HW179025  11.457   5.691   4.203 -1.3438  0.0245  1.3478
23970SOL    HW279026  11.336   5.781   4.195 -1.0285  0.3213 -0.3501
23971SOL     OW79027   0.583  12.006   9.323  0.0410 -0.0353 -0.5379
23971SOL    HW179028   0.673  12.020   9.353  0.3162 -0.2712 -1.2363
23971SOL    HW279029   0.561  12.086   9.275 -0.7753  0.8050  1.1260
23972SOL     OW79030   5.196   9.611   2.008  0.1836 -0.7821 -0.1111
23972SOL    HW179031   5.177   9.701   2.033  0.1070 -0.7974 -0.1135
23972SOL    HW279032   5.252   9.578   2.078  0.3183 -0.6926 -0.1754
23973SOL     OW79033   2.161   6.105   4.986  0.2451  0.0532  0.5219
23973SOL    HW179034   2.137   6.018   4.954 -2.5175  0.5687  0.8738
23973SOL    HW279035   2.109   6.165   4.932  1.7916  1.4817  0.5472
23974SOL     OW79036   7.096   7.760   3.191  0.3872  0.0223  0.1419
23974SOL    HW179037   7.091   7.749   3.286 -2.6231 -1.9324 -0.1270
23974SOL    HW279038   7.140   7.681   3.160  1.2010  0.5733 -0.1264
23975SOL     OW79039  10.328   3.880   5.178 -0.6933  0.2511 -0.3036
23975SOL    HW179040  10.233   3.869   5.189 -1.1620  1.7719 -2.2091
23975SOL    HW279041  10.352   3.945   5.244 -1.0271  0.0373  0.0341
23976SOL     OW79042  11.412   4.070   8.126 -0.0250 -0.5471  0.4183
23976SOL    HW179043  11.473   4.025   8.067 -0.0170  1.4663 -1.2192
23976SOL    HW279044  11.368   3.999   8.173  2.9676 -2.1032  1.1301
23977SOL     OW79045   3.973   3.601   0.969  0.6441 -0.0512  0.8159
23977SOL    HW179046   3.996   3.575   0.880 -2.1705  1.1289 -0.3858
23977SOL    HW279047   3.920   3.529   1.003 -0.8895  0.7836  0.2964
23978SOL     OW79048   8.458   7.014   1.881  0.2486 -0.0151 -0.1043
23978SOL    HW179049   8.433   6.940   1.826 -0.2023 -0.1888  0.3338
23978SOL    HW279050   8.425   7.091   1.834  0.8404 -0.0703 -0.6299
23979SOL     OW79051   8.905   3.844  11.167  0.6061 -0.0386 -0.1637
23979SOL    HW179052   8.928   3.756  11.138 -0.1299  0.5810 -2.9545
23979SOL    HW279053   8.812   3.838  11.189  0.4916  0.0953 -0.6096
23980SOL     OW79054   4.182   2.988   2.487  0.4321  0.2051 -0.0469
23980SOL    HW179055   4.156   3.077   2.463  1.4423  0.2687 -0.9549
23980SOL    HW279056   4.241   2.960   2.417  3.0628  0.1843  1.9946
23981SOL     OW79057   0.851   9.267  10.666  0.5737 -0.3956 -0.1735
23981SOL    HW179058   0.803   9.185  10.653  0.4838 -0.7003  1.7619
23981SOL    HW279059   0.790   9.335  10.636  0.1538 -0.9600 -0.6252
23982SOL     OW79060   7.601   2.572   3.373  0.3013  0.3075  0.6198
23982SOL    HW179061   7.628   2.481   3.363  2.3451  0.8612  0.7353
23982SOL    HW279062   7.585   2.602   3.284  1.9790  0.4742  0.3408
23983SOL     OW79063   6.876  12.776   3.240 -0.1108 -0.1270  0.1233
23983SOL    HW179064   6.799  12.729   3.272  0.0835  0.7260  1.9747
23983SOL    HW279065   6.850  12.810   3.155 -2.6545  2.0648  1.6534
23984SOL     OW79066  12.956   3.276  11.309 -0.6786  0.1932  0.1136
23984SOL    HW179067  13.049   3.294  11.297 -0.2471 -1.4415  0.7388
23984SOL    HW279068  12.940   3.196  11.258 -1.9749  0.9493 -0.7511
23985SOL     OW79069   3.376  11.704   8.468 -0.1242  0.1455 -0.0183
23985SOL    HW179070   3.454  11.731   8.420 -0.1935  0.7169  0.1821
23985SOL    HW279071   3.385  11.609   8.477  1.0402  0.3287  0.8747
23986SOL     OW79072   4.361   6.152   7.287 -0.3251 -0.0849 -0.7976
23986SOL    HW179073   4.365   6.247   7.297  1.1043 -0.2788  1.3701
23986SOL    HW279074   4.302   6.124   7.357 -0.5299 -0.8197 -1.2572
23987SOL     OW79075   0.616   7.312   0.417 -0.0914  0.0610  0.2785
23987SOL    HW179076   0.681   7.318   0.347 -1.0696  1.3006 -0.5696
23987SOL    HW279077   0.621   7.221   0.446  1.4211 -0.0857 -0.3325
23988SOL     OW79078  10.825   2.895   5.823  0.8876  0.1883  0.4400
23988SOL    HW179079  10.900   2.945   5.857  1.3148 -1.2135  1.6510
23988SOL    HW279080  10.769   2.881   5.899  0.5509 -0.7960  0.0243
23989SOL     OW79081   0.525   6.327   3.837 -0.1073 -0.5586 -0.2174
23989SOL    HW179082   0.593   6.363   3.894 -0.8631  0.2619  0.1929
23989SOL    HW279083   0.442   6.357   3.875 -0.7394 -1.8931 -0.4591
23990SOL     OW79084   9.575  11.233   2.537 -0.5646  0.0943 -0.1641
23990SOL    HW179085   9.625  11.191   2.468  0.1372  0.8575 -0.1339
23990SOL    HW279086   9.513  11.290   2.490 -0.7034 -0.0672 -0.1787
23991SOL     OW79087   5.083  10.416   9.700  0.1882  0.3145  0.9129
23991SOL    HW179088   5.171  10.387   9.726  0.2431  0.4405  0.8701
23991SOL    HW279089   5.050  10.465   9.776  0.1853  0.3308  0.9015
23992SOL     OW79090   0.206  12.311  12.827 -0.2861 -0.0681  0.4249
23992SOL    HW179091   0.221  12.268  12.742 -0.8828  0.5921 -0.0263
23992SOL    HW279092   0.111  12.317  12.834 -0.3691 -2.2508  2.2492
23993SOL     OW79093  11.712   4.025   5.427  0.5558  0.1457  0.1598
23993SOL    HW179094  11.789   4.029   5.370  0.7883 -0.9851  0.3566
23993SOL    HW279095  11.695   4.116   5.451  0.6052  0.6122 -1.4926
23994SOL     OW79096   1.288   9.041   4.241  0.0766  0.5532  0.4777
23994SOL    HW179097   1.376   9.054   4.277  0.1446  1.7994 -0.0891
23994SOL    HW279098   1.254   9.130   4.227 -1.1561  0.0917  0.4032
23995SOL     OW79099   5.467   7.799   5.262 -0.4468  0.4907 -0.3011
23995SOL    HW179100   5.451   7.718   5.213 -0.5453 -0.0981  0.6780
23995SOL    HW279101   5.519   7.853   5.202 -2.3776  0.6994 -1.9091
23996SOL     OW79102   0.729   1.314   7.854  0.0654  0.0627 -0.3657
23996SOL    HW179103   0.696   1.281   7.937 -0.8115 -1.0674 -1.1261
23996SOL    HW279104   0.662   1.374   7.823 -0.0727 -0.2689 -0.7124
23997SOL     OW79105   8.776   3.525  12.438  0.1916 -0.3827 -0.7597
23997SOL    HW179106   8.814   3.484  12.360  0.7609  0.4345 -0.9209
23997SOL    HW279107   8.827   3.605  12.450  0.4081 -0.7235  0.7331
23998SOL     OW79108   6.634   8.763  11.211  0.4345  0.1715  0.2600
23998SOL    HW179109   6.684   8.753  11.130  0.1443  2.5391 -0.2889
23998SOL    HW279110   6.567   8.828  11.190 -0.0782  0.3353  2.2108
23999SOL     OW79111   5.586   2.476  12.944 -0.0809  0.5808 -0.2219
23999SOL    HW179112   5.563   2.400  12.890 -1.1643  1.6321 -1.2941
23999SOL    HW279113   5.654   2.521  12.895  1.1266 -0.0798  0.7880
24000SOL     OW79114   5.816   1.814  10.521  0.1343 -0.6711 -0.2838
24000SOL    HW179115   5.812   1.746  10.454  1.4317  0.2466 -1.3480
24000SOL    HW279116   5.905   1.807  10.556 -0.0452 -0.1562  0.2815
24001SOL     OW79117   2.461   6.858   9.817  0.0337  0.1329  0.0240
24001SOL    HW179118   2.396   6.809   9.768 -0.8110 -0.4474  1.6468
24001SOL    HW279119   2.534   6.869   9.756 -0.6367 -1.2290 -1.0857
24002SOL     OW79120   1.723   1.456  10.035  0.1229 -0.7463 -0.0326
24002SOL    HW179121   1.716   1.437   9.941 -3.4231  0.5739 -0.1923
24002SOL    HW279122   1.768   1.541  10.038  1.4396 -1.4150 -0.4157
24003SOL     OW79123   5.872   4.970  10.787  0.0830 -0.1376 -0.1037
24003SOL    HW179124   5.942   4.945  10.847 -0.4510 -1.1369  0.1392
24003SOL    HW279125   5.796   4.985  10.843 -0.6495 -1.8949 -0.5428
24004SOL     OW79126   3.980  10.121  10.388 -0.0551 -0.3672 -0.1011
24004SOL    HW179127   4.037  10.188  10.351 -1.6591  2.2413  1.8148
24004SOL    HW279128   3.924  10.094  10.316  0.2544  0.7814 -0.7962
24005SOL     OW79129   1.733   3.550   6.949  0.4140  0.0008 -0.1073
24005SOL    HW179130   1.741   3.523   7.040  1.5959  1.2209  0.1780
24005SOL    HW279131   1.761   3.473   6.899  0.9220 -0.2778  0.5882
24006SOL     OW79132  11.967  10.644  10.245 -0.0633 -0.2516  0.2341
24006SOL    HW179133  11.873  10.627  10.237 -0.3421  0.9142  0.8690
24006SOL    HW279134  11.995  10.588  10.317 -0.8259  1.2930  1.8017
24007SOL     OW79135   2.750   2.608  10.787 -0.4244 -0.0041  0.0010
24007SOL    HW179136   2.818   2.595  10.721 -1.4386  0.2250 -1.1251
24007SOL    HW279137   2.723   2.699  10.775  0.3481  0.4766  1.7052
24008SOL     OW79138   3.060   4.560   5.458 -0.4353  0.1158 -0.4993
24008SOL    HW179139   3.138   4.506   5.451  0.1447  0.9650 -0.7697
24008SOL    HW279140   3.015   4.549   5.375 -0.3998 -0.0580 -0.4959
24009SOL     OW79141   2.972   1.821   0.408  0.0836 -0.0351 -0.0881
24009SOL    HW179142   2.924   1.901   0.429 -1.4398 -0.5425 -1.4062
24009SOL    HW279143   2.907   1.752   0.415  1.5880 -1.3417  1.9363
24010SOL     OW79144   7.087   2.552   6.754 -0.1874 -0.3965 -0.2341
24010SOL    HW179145   7.006   2.593   6.784  2.6667  3.8962  2.7906
24010SOL    HW279146   7.098   2.582   6.664 -0.4768  1.7691  0.4071
24011SOL     OW79147   2.203   1.977  12.400  0.4929 -0.1699 -0.4892
24011SOL    HW179148   2.259   1.906  12.433  1.3233  1.1785  1.1765
24011SOL    HW279149   2.162   2.013  12.478 -0.7126  0.5402 -1.4239
24012SOL     OW79150   0.362   1.066   2.328  0.2551  0.1470  0.0893
24012SOL    HW179151   0.305   1.118   2.270 -0.3568 -0.1337  0.4236
24012SOL    HW279152   0.305   1.044   2.402  1.0246  0.5031  0.8029
24013SOL     OW79153   3.507   2.132   2.495  0.0535 -0.0375 -0.2624
24013SOL    HW179154   3.564   2.092   2.560  0.0586  0.9875  0.3665
24013SOL    HW279155   3.556   2.124   2.413  1.2302  1.0715  0.3106
24014SOL     OW79156  11.994  10.294   9.089 -0.2373 -0.3559  0.0684
24014SOL    HW179157  12.002  10.284   9.184  0.3707  1.0452  0.1988
24014SOL    HW279158  12.071  10.346   9.065 -1.1891  0.6206 -0.9495
24015SOL     OW79159   6.853  12.014   9.630 -0.2963 -0.3729 -0.5273
24015SOL    HW179160   6.795  11.951   9.588 -1.0525 -0.3088  0.3761
24015SOL    HW279161   6.914  12.041   9.562 -0.5385 -1.3954 -1.1593
24016SOL     OW79162  11.520   7.252   7.612 -0.4264  0.5557  0.5078
24016SOL    HW179163  11.530   7.219   7.523 -0.9534 -1.4226  1.1353
24016SOL    HW279164  11.543   7.345   7.606  1.0589  0.1306 -1.3872
24017SOL     OW79165   7.452   1.488   8.111  0.0238  0.0974  0.2836
24017SOL    HW179166   7.470   1.431   8.186 -0.4741 -0.5261 -0.0615
24017SOL    HW279167   7.523   1.469   8.049 -0.1247 -0.1297  0.1821
24018SOL     OW79168   6.274   0.905   3.629 -0.3957 -0.1979 -0.0070
24018SOL    HW179169   6.210   0.883   3.697  0.0295 -0.4936  0.3000
24018SOL    HW279170   6.262   0.999   3.615 -0.2826 -0.0708  0.7009
24019SOL     OW79171  11.175   1.021   4.843 -0.3597 -0.7785 -0.3715
24019SOL    HW179172  11.181   1.113   4.867 -0.0471 -1.0090  0.4744
24019SOL    HW279173  11.180   1.020   4.748 -0.2087  0.0660 -0.3766
24020SOL     OW79174   6.364   5.295   8.167 -0.6472  0.4289  0.7554
24020SOL    HW179175   6.339   5.269   8.079 -1.4548 -0.0502  1.1141
24020SOL    HW279176   6.430   5.230   8.193 -2.1581 -0.9261  1.3891
24021SOL     OW79177   3.268  12.844   1.429 -0.1136  0.3992 -0.1471
24021SOL    HW179178   3.351  12.839   1.476  0.1870 -2.0530 -0.7935
24021SOL    HW279179   3.205  12.801   1.487 -0.3102 -0.2049 -0.7877
24022SOL     OW79180   1.970   4.833   5.473  0.3163  0.1516  0.2836
24022SOL    HW179181   1.954   4.746   5.509  0.4680 -0.0500 -0.1283
24022SOL    HW279182   1.997   4.817   5.382  1.4369  0.5491  0.5275
24023SOL     OW79183   4.029  10.491   3.026 -0.0630 -0.1011 -0.5497
24023SOL    HW179184   3.959  10.434   2.993  1.0201 -0.3972 -2.4487
24023SOL    HW279185   4.060  10.446   3.105 -0.8467 -0.8618 -0.6448
24024SOL     OW79186   7.292  12.181  11.266 -0.0541  0.5053  0.2641
24024SOL    HW179187   7.382  12.199  11.239 -0.2457 -0.0861 -0.8433
24024SOL    HW279188   7.242  12.256  11.234 -0.2860 -0.2095 -1.1092
24025SOL     OW79189   4.708  12.907   6.930 -0.9203  0.6096 -0.4304
24025SOL    HW179190   4.669  12.991   6.908  0.3748  0.8230 -2.1573
24025SOL    HW279191   4.759  12.883   6.852  0.8672 -0.4961  0.9961
24026SOL     OW79192   4.028  10.436   9.318 -0.3348 -0.1707  0.3352
24026SOL    HW179193   3.942  10.395   9.308 -1.0887  1.1766  1.0119
24026SOL    HW279194   4.068  10.429   9.231 -0.2336 -2.6629  0.5129
24027SOL     OW79195   3.371   7.658   5.448  0.0896  0.2379  0.2437
24027SOL    HW179196   3.313   7.637   5.375 -0.0899  2.7010 -0.4222
24027SOL    HW279197   3.315   7.655   5.525 -0.2952 -0.0044 -0.0445
24028SOL     OW79198   1.898  10.360   2.943  0.6295 -0.0169 -0.1277
24028SOL    HW179199   1.850  10.331   3.021  0.0773  0.2757 -0.3524
24028SOL    HW279200   1.855  10.313   2.870  1.8291 -1.1238 -0.1595
24029SOL     OW79201   4.896  11.461   1.228  0.2251  0.4179  0.0478
24029SOL    HW179202   4.949  11.443   1.151 -0.9079 -0.6007 -0.5260
24029SOL    HW279203   4.930  11.401   1.295 -1.3285 -1.5830 -0.8598
24030SOL     OW79204   2.284  12.451   2.388 -0.8488 -0.0798  0.8121
24030SOL    HW179205   2.249  12.365   2.412  2.3024 -2.0357 -0.8696
24030SOL    HW279206   2.366  12.458   2.436 -0.5582  1.5676  0.1590
24031SOL     OW79207  12.172   5.291   7.852 -0.6909  0.4600 -0.2284
24031SOL    HW179208  12.145   5.215   7.801  1.4461  0.1321 -0.9558
24031SOL    HW279209  12.196   5.255   7.938 -2.2620  0.7349  0.3722
24032SOL     OW79210   4.875   2.108   8.743  0.7286 -0.0458 -0.7948
24032SOL    HW179211   4.882   2.047   8.817  0.9747  0.5119 -0.3438
24032SOL    HW279212   4.828   2.059   8.676 -1.5644  0.1645  0.5421
24033SOL     OW79213   9.763  12.056  11.127 -0.6145 -0.3699  0.2380
24033SOL    HW179214   9.849  12.016  11.117 -0.7206 -1.3234  2.3989
24033SOL    HW279215   9.709  12.015  11.060  0.7434  0.8281 -1.6815
24034SOL     OW79216   2.243   1.933   6.015  0.4138  0.0481 -0.3165
24034SOL    HW179217   2.178   1.863   6.007  0.7675 -0.3486  0.2079
24034SOL    HW279218   2.252   1.967   5.926  1.4308 -1.6634 -0.9129
24035SOL     OW79219   4.871  11.854   9.428 -0.2318 -0.0882  0.4953
24035SOL    HW179220   4.781  11.885   9.415  0.0279  0.2677 -0.6579
24035SOL    HW279221   4.868  11.762   9.401  0.1007  0.3966 -1.3267
24036SOL     OW79222   8.003   5.388   4.110  0.1578  0.4924  0.6049
24036SOL    HW179223   8.026   5.352   4.024  1.8229  1.2546  0.7034
24036SOL    HW279224   7.922   5.343   4.133  0.0521 -0.2436 -1.0470
24037SOL     OW79225  11.876   7.500   0.857  0.1455  0.0596 -0.3429
24037SOL    HW179226  11.792   7.479   0.817 -0.0229 -0.1340  0.1071
24037SOL    HW279227  11.894   7.427   0.916 -0.0490  0.7605  0.6111
24038SOL     OW79228   5.686   3.358   2.652  0.0295 -0.0971  0.6698
24038SOL    HW179229   5.702   3.292   2.720 -0.2671  0.3086  1.1443
24038SOL    HW279230   5.607   3.328   2.608  0.4493 -0.5779  0.2241
24039SOL     OW79231   4.918   9.701   4.024  0.0965  0.1296 -0.1748
24039SOL    HW179232   4.987   9.708   4.090 -0.2770  0.7640  0.1446
24039SOL    HW279233   4.882   9.789   4.016 -1.2090 -0.3501  0.2254
24040SOL     OW79234   3.000   3.247   7.699 -0.1424  0.2816 -0.2541
24040SOL    HW179235   2.937   3.275   7.632 -1.7499 -2.4714 -0.0314
24040SOL    HW279236   3.048   3.175   7.658 -0.3972 -0.7196  1.1195
24041SOL     OW79237   8.102   7.369   4.710  0.1443  0.0849  0.1924
24041SOL    HW179238   8.107   7.274   4.704  0.3055  0.0499  0.7943
24041SOL    HW279239   8.043   7.395   4.639  0.7936 -0.3854 -0.5252
24042SOL     OW79240   7.439   7.157  10.791 -0.0201  0.4911  0.1497
24042SOL    HW179241   7.499   7.164  10.864 -0.7168  0.7291  0.7096
24042SOL    HW279242   7.446   7.241  10.745 -1.2121  1.2148  1.2376
24043SOL     OW79243   4.554   2.810   5.291 -0.0969  0.1651  0.3430
24043SOL    HW179244   4.561   2.905   5.294  0.9621  0.0604  2.3786
24043SOL    HW279245   4.637   2.781   5.255 -0.2443 -0.0158  0.1452
24044SOL     OW79246   6.844   7.896  11.336 -0.1096  0.1634  0.1290
24044SOL    HW179247   6.889   7.819  11.301  0.2705 -0.0796  1.1317
24044SOL    HW279248   6.912   7.962  11.345  0.1126 -0.2656  1.8298
24045SOL     OW79249   8.530   4.688   7.747  0.7533 -0.2052 -0.0332
24045SOL    HW179250   8.509   4.689   7.840  1.4633 -1.2385  0.1605
24045SOL    HW279251   8.446   4.695   7.703  0.4854  1.5781  0.6552
24046SOL     OW79252   8.259   8.806   1.380 -0.3778 -0.2784  0.1456
24046SOL    HW179253   8.176   8.851   1.371  0.1260  0.2806 -2.2431
24046SOL    HW279254   8.322   8.874   1.403 -0.0214 -0.0739 -1.3104
24047SOL     OW79255   2.898   6.389   0.478 -0.4126  0.5143  0.2505
24047SOL    HW179256   2.977   6.341   0.503  0.0306  1.8140  1.5083
24047SOL    HW279257   2.872   6.351   0.394  0.6315 -1.0129  0.5751
24048SOL     OW79258  10.085   3.666   9.204  0.2928  0.1175  0.5804
24048SOL    HW179259  10.035   3.634   9.130  1.6919  0.4265 -0.5546
24048SOL    HW279260  10.037   3.636   9.281 -0.7592 -0.9180 -0.4403
24049SOL     OW79261  11.554   1.196   9.426 -0.5128 -0.2382  0.4334
24049SOL    HW179262  11.481   1.139   9.451 -0.5131 -0.7583 -0.7203
24049SOL    HW279263  11.590   1.226   9.510 -1.2150 -1.0295  1.0380
24050SOL     OW79264   8.235  10.979   5.386  0.3133 -0.4041 -0.0364
24050SOL    HW179265   8.177  11.042   5.427  1.2308 -0.1636  0.9281
24050SOL    HW279266   8.275  11.027   5.313 -0.0841 -0.3193 -0.1986
24051SOL     OW79267   6.675  12.618   1.222  0.4867 -0.6031  0.2435
24051SOL    HW179268   6.586  12.591   1.201 -0.2223  1.0157  1.0113
24051SOL    HW279269   6.714  12.541   1.264 -0.0494 -1.8063 -1.3326
24052SOL     OW79270  10.322   2.466   5.584  0.2866  0.2058 -0.5685
24052SOL    HW179271  10.292   2.456   5.675  0.6294 -1.9232 -0.6428
24052SOL    HW279272  10.246   2.442   5.532  0.6706 -0.4896 -0.8131
24053SOL     OW79273   6.695   1.644   0.723 -0.0584 -0.1637 -0.0074
24053SOL    HW179274   6.671   1.702   0.795 -0.1326  0.0765 -0.2240
24053SOL    HW279275   6.750   1.698   0.667  0.9458 -0.6893  0.4527
24054SOL     OW79276   3.820   4.034   7.223 -0.5444  0.4777 -0.3846
24054SOL    HW179277   3.896   3.976   7.215 -0.6604  0.4586 -1.4483
24054SOL    HW279278   3.792   4.025   7.314  0.3062 -0.0432 -0.1686
24055SOL     OW79279   2.697  11.172   4.899 -0.5692  0.6391  0.5200
24055SOL    HW179280   2.732  11.178   4.811 -0.7977  0.0981  0.3864
24055SOL    HW279281   2.628  11.105   4.893  0.7972 -0.9515  1.5340
24056SOL     OW79282   3.237   5.135   0.877 -0.0438 -0.3664  0.1416
24056SOL    HW179283   3.280   5.129   0.792 -0.8906  0.3368 -0.3485
24056SOL    HW279284   3.309   5.147   0.939  0.5204  0.1650 -0.5915
24057SOL     OW79285  10.900   9.822   3.903 -0.1981 -0.5204 -0.2409
24057SOL    HW179286  10.827   9.790   3.956  0.2351 -0.4840  0.3892
24057SOL    HW279287  10.863   9.833   3.816 -1.1468  0.2355  0.2342
24058SOL     OW79288   4.880   4.834   7.748 -0.5530  0.4717 -0.3496
24058SOL    HW179289   4.884   4.925   7.718  0.3873  0.9286  1.0498
24058SOL    HW279290   4.849   4.840   7.838  1.0813 -0.4247  0.3220
24059SOL     OW79291   7.657   5.171  12.221 -0.2192 -0.1571 -0.9549
24059SOL    HW179292   7.710   5.250  12.235  1.8531 -1.0728 -2.8459
24059SOL    HW279293   7.643   5.136  12.308  2.7768 -0.0691 -0.3027
24060SOL     OW79294   9.877   7.548   4.102 -0.1687 -0.1647  0.3813
24060SOL    HW179295   9.813   7.584   4.040  0.3731  1.0654  0.4976
24060SOL    HW279296   9.962   7.577   4.068  0.2668 -1.0502  0.6926
24061SOL     OW79297   5.620   3.998  10.192  0.2788  0.0453  0.3046
24061SOL    HW179298   5.548   3.936  10.179  1.6191 -1.7671  1.0989
24061SOL    HW279299   5.577   4.083  10.201 -1.6949 -0.8680 -0.0370
24062SOL     OW79300   8.959   9.327   2.766  0.3334 -0.1671  0.3090
24062SOL    HW179301   8.905   9.345   2.843  1.9873  1.3669  1.1802
24062SOL    HW279302   8.938   9.397   2.705 -0.7383 -1.2019 -0.5638
24063SOL     OW79303   4.668   3.452   0.775 -0.1990 -0.4142  0.6967
24063SOL    HW179304   4.581   3.434   0.811 -0.1629 -2.6899 -0.1218
24063SOL    HW279305   4.718   3.372   0.793  1.1980  0.1954 -0.2853
24064SOL     OW79306   1.412  12.587   4.673 -0.1866 -0.2400  0.6869
24064SOL    HW179307   1.464  12.546   4.604 -1.4057 -2.0581  0.7905
24064SOL    HW279308   1.476  12.637   4.724  1.3828 -1.9103  0.4804
24065SOL     OW79309   1.078   9.077   4.801  0.7883 -0.3560 -0.0363
24065SOL    HW179310   0.993   9.040   4.826 -0.9404  1.3653 -2.7399
24065SOL    HW279311   1.107   9.023   4.728 -0.1901  1.4979 -1.9127
24066SOL     OW79312   3.265   0.636  11.806  0.4293  0.1345 -0.1152
24066SOL    HW179313   3.202   0.663  11.873 -1.0455 -1.3982 -0.8320
24066SOL    HW279314   3.263   0.707  11.742  1.3181  1.2732  1.0591
24067SOL     OW79315   0.126   5.664   4.441 -0.0382 -0.4058  0.1376
24067SOL    HW179316   0.067   5.732   4.408 -0.6794 -0.7805  0.4947
24067SOL    HW279317   0.090   5.582   4.408  1.3720 -0.5209 -1.2503
24068SOL     OW79318   4.583   9.283   3.867 -0.3011 -0.4531 -0.2054
24068SOL    HW179319   4.655   9.221   3.882  1.0600  1.2250  0.6279
24068SOL    HW279320   4.622   9.351   3.812 -0.8980  1.0553  1.1642
24069SOL     OW79321  11.169   1.351   9.910  0.0358 -0.7355  0.3703
24069SOL    HW179322  11.223   1.425   9.937 -0.0638 -0.0867 -1.1244
24069SOL    HW279323  11.225   1.300   9.852 -0.1960 -1.3486  0.6776
24070SOL     OW79324  10.561   8.117   8.782 -0.0337 -0.1439 -0.1392
24070SOL    HW179325  10.572   8.152   8.694 -0.2403  1.7025  0.5167
24070SOL    HW279326  10.650   8.113   8.818 -0.0532  0.1509 -0.0573
24071SOL     OW79327   8.442   6.985   5.375  0.1473 -0.8484 -0.1781
24071SOL    HW179328   8.504   6.964   5.444 -0.4718  0.1153  0.6914
24071SOL    HW279329   8.469   7.071   5.344 -0.2114 -0.8211 -0.4180
24072SOL     OW79330   1.243   0.762   3.982  0.1525  0.6799  0.3844
24072SOL    HW179331   1.171   0.699   3.987  2.0462 -1.5282  3.1011
24072SOL    HW279332   1.317   0.712   3.947  1.1549  1.9987  0.5268
24073SOL     OW79333   0.777   6.420   8.065 -0.0992 -0.7511 -0.0069
24073SOL    HW179334   0.779   6.344   8.007 -0.2246 -0.2269 -0.7108
24073SOL    HW279335   0.785   6.495   8.006  1.9565 -0.2542  0.8168
24074SOL     OW79336   6.182   4.391  10.005 -0.1877 -0.5924  0.0940
24074SOL    HW179337   6.171   4.298  10.029  2.6651 -1.6472 -2.1502
24074SOL    HW279338   6.250   4.423  10.064 -0.5930 -0.1295  0.3183
24075SOL     OW79339   7.912  12.482   9.466  0.3733 -0.4418 -0.2910
24075SOL    HW179340   7.836  12.437   9.430  0.6598 -0.4316 -0.9256
24075SOL    HW279341   7.906  12.571   9.432  1.4408 -0.8248 -1.5614
24076SOL     OW79342   8.816  12.667  12.243 -0.0951 -0.1361  0.0749
24076SOL    HW179343   8.805  12.614  12.322  0.9777  0.3702  0.5851
24076SOL    HW279344   8.864  12.610  12.183 -1.2452 -0.6584 -0.3738
24077SOL     OW79345  12.550   1.119   2.591 -0.4979  0.1861  0.6051
24077SOL    HW179346  12.589   1.204   2.611  0.9108 -0.3467  0.2126
24077SOL    HW279347  12.596   1.057   2.648 -0.7295 -0.4651  0.0943
24078SOL     OW79348   1.920   1.601   7.659 -0.7705 -0.2540  0.5355
24078SOL    HW179349   1.879   1.687   7.649 -0.4806 -0.1627  0.0738
24078SOL    HW279350   1.849   1.539   7.643 -0.8150 -0.0961  0.0910
24079SOL     OW79351   7.912   1.824   1.412 -0.4861  0.5524 -0.0268
24079SOL    HW179352   7.893   1.792   1.500 -0.5059 -2.8057 -1.1111
24079SOL    HW279353   7.984   1.887   1.424 -0.1496 -0.1944  2.3322
24080SOL     OW79354   4.702   2.902   0.076  0.9003 -0.2017  0.2939
24080SOL    HW179355   4.747   2.878  -0.005  0.0900  2.4734 -1.0950
24080SOL    HW279356   4.610   2.908   0.051  0.8666  2.7625  0.7107
24081SOL     OW79357   2.867   9.150   4.757 -0.3178  0.3152 -0.4105
24081SOL    HW179358   2.931   9.107   4.813 -1.2058  0.5395  0.8090
24081SOL    HW279359   2.785   9.103   4.772 -0.9995  1.5723 -0.0525
24082SOL     OW79360  10.462   0.527   5.385 -0.6106  0.9356  0.1063
24082SOL    HW179361  10.505   0.597   5.434  0.9203  0.7858 -0.9570
24082SOL    HW279362  10.492   0.446   5.428  0.0690  0.8372 -0.5341
24083SOL     OW79363   7.949   2.522   3.520 -0.4685  0.8184 -0.2194
24083SOL    HW179364   8.043   2.520   3.502 -0.4229  0.2526  0.0623
24083SOL    HW279365   7.923   2.430   3.522 -0.9512  0.9589  0.1133
24084SOL     OW79366   3.911  10.489   3.388 -0.4607  0.4845  0.2894
24084SOL    HW179367   3.919  10.446   3.303  0.4607  1.3199 -0.0633
24084SOL    HW279368   3.816  10.496   3.402 -0.6199 -0.2525 -0.3500
24085SOL     OW79369   2.697   4.161   9.367 -0.3064  0.1023 -0.4961
24085SOL    HW179370   2.654   4.091   9.416  1.3175 -0.4269  0.2550
24085SOL    HW279371   2.730   4.220   9.434 -0.7050  1.0198 -1.0920
24086SOL     OW79372   3.507  11.352   5.419 -0.0199 -0.4514  0.5449
24086SOL    HW179373   3.425  11.398   5.402 -2.9739 -4.4015  2.5768
24086SOL    HW279374   3.517  11.356   5.514  1.0481 -1.6858  0.5107
24087SOL     OW79375  12.814   0.494   7.098  0.4605  0.3901  0.2083
24087SOL    HW179376  12.847   0.538   7.177 -0.1339  0.5716  0.3586
24087SOL    HW279377  12.770   0.416   7.130 -0.4868  0.8785  0.1289
24088SOL     OW79378   6.033  10.037   3.603  0.5270  0.5577  0.0472
24088SOL    HW179379   5.959  10.019   3.545  0.5744  1.8006 -0.4360
24088SOL    HW279380   6.073  10.116   3.567  1.2164  0.7339  1.1441
24089SOL     OW79381   8.545   7.605   9.777  0.3496 -0.5263 -0.3108
24089SOL    HW179382   8.637   7.590   9.796  0.8737  0.0326 -2.2214
24089SOL    HW279383   8.528   7.556   9.697 -1.3653 -1.6214  0.6449
24090SOL     OW79384   3.045   6.870   3.199 -0.2070 -0.2893  0.4525
24090SOL    HW179385   2.975   6.911   3.250 -0.0778  0.7949 -0.2044
24090SOL    HW279386   3.013   6.870   3.109  1.3824  2.1302 -0.2262
24091SOL     OW79387   3.362   1.615   6.322 -0.8386  0.0398  0.0644
24091SOL    HW179388   3.355   1.660   6.238 -2.7896  0.9402  0.6491
24091SOL    HW279389   3.345   1.523   6.301 -0.1547  0.0668 -0.6646
24092SOL     OW79390   9.399   4.658   9.840 -0.2651 -0.2905  0.3124
24092SOL    HW179391   9.481   4.676   9.887 -1.0900  0.7171  1.4310
24092SOL    HW279392   9.423   4.660   9.748  1.2085 -1.2669  0.6430
24093SOL     OW79393   4.716   9.468   3.293 -0.2289 -0.2618 -0.2262
24093SOL    HW179394   4.755   9.453   3.379 -1.4498 -0.3564  0.3192
24093SOL    HW279395   4.791   9.486   3.236  0.6515 -0.9144  0.6953
24094SOL     OW79396   7.563   1.105   2.848  0.0128  0.2303  0.8918
24094SOL    HW179397   7.629   1.036   2.847  0.4886  0.6332 -1.5777
24094SOL    HW279398   7.488   1.068   2.801  0.5239  1.5351 -1.0718
24095SOL     OW79399   8.824   5.799   1.328  0.1451 -0.2007 -0.4002
24095SOL    HW179400   8.767   5.873   1.307 -1.0638 -1.0295 -0.0958
24095SOL    HW279401   8.823   5.794   1.423 -2.6269 -2.7013 -0.4247
24096SOL     OW79402   1.709   6.167  10.986  0.3299 -0.1471 -0.2907
24096SOL    HW179403   1.691   6.214  10.905  2.1382 -1.4663 -1.5667
24096SOL    HW279404   1.637   6.105  10.994 -1.0820  1.5195  0.4075
24097SOL     OW79405   7.081   6.627   9.995 -0.4339  0.0275  0.0654
24097SOL    HW179406   7.034   6.546  10.015 -0.7162  0.0531 -0.4608
24097SOL    HW279407   7.173   6.605  10.008 -0.5165 -0.3469  0.0398
24098SOL     OW79408  11.763  12.864   8.068 -0.6470  0.0354 -0.5031
24098SOL    HW179409  11.836  12.819   8.025 -0.4771 -0.5410  0.3636
24098SOL    HW279410  11.688  12.806   8.054 -0.7159  0.1315 -0.5298
24099SOL     OW79411   4.956  12.786   4.079  0.0625  0.0560  0.5708
24099SOL    HW179412   5.024  12.719   4.081 -0.8492 -0.9672 -0.7121
24099SOL    HW279413   4.992  12.855   4.023  0.5397  0.1127  0.9401
24100SOL     OW79414   6.549  10.598   1.516 -0.1908 -0.2746 -0.1066
24100SOL    HW179415   6.490  10.543   1.566 -0.1942 -1.5188 -1.4321
24100SOL    HW279416   6.613  10.538   1.479 -0.6068  0.4821 -2.1820
24101SOL     OW79417   8.870   1.777  11.571  0.2327  0.3097  0.3904
24101SOL    HW179418   8.945   1.781  11.512  0.0290 -0.4962  0.0656
24101SOL    HW279419   8.819   1.855  11.551  1.4079  1.3445  1.2165
24102SOL     OW79420   4.272   1.213   0.726  0.6753 -0.2725  0.1431
24102SOL    HW179421   4.307   1.192   0.813 -0.9537  1.2778  1.2560
24102SOL    HW279422   4.253   1.307   0.730 -0.0092 -0.2898 -1.6928
24103SOL     OW79423   0.903   6.975   9.715 -0.0508 -0.0208 -0.1244
24103SOL    HW179424   0.987   6.951   9.676  0.2334  0.9412 -0.1285
24103SOL    HW279425   0.923   6.996   9.806  0.3481  3.3939 -0.8847
24104SOL     OW79426   8.219  11.787   4.051  1.1575  0.2303  0.0217
24104SOL    HW179427   8.224  11.882   4.044  0.7302  0.1150 -2.4889
24104SOL    HW279428   8.278  11.754   3.983  0.7037 -1.3036  0.3245
24105SOL     OW79429   7.311  10.052  12.159 -0.1885 -0.5936  0.3965
24105SOL    HW179430   7.338   9.997  12.233 -0.1033  1.7442  2.2401
24105SOL    HW279431   7.394  10.083  12.121 -0.1344  1.4223  1.9749
24106SOL     OW79432   7.803   9.046   2.830 -0.0535 -0.1122  0.0311
24106SOL    HW179433   7.819   9.136   2.856  1.6243 -0.3076 -0.1930
24106SOL    HW279434   7.805   9.049   2.734  1.2299 -0.5432  0.0204
24107SOL     OW79435   6.941   5.519   8.172  0.7251 -0.2089  0.0641
24107SOL    HW179436   6.892   5.476   8.243  3.1897 -1.7919  0.9469
24107SOL    HW279437   6.948   5.610   8.199  0.0454 -0.4049  0.9372
24108SOL     OW79438   9.796   1.589   2.664 -0.1058 -0.2926  0.0514
24108SOL    HW179439   9.836   1.556   2.745  0.5217 -0.5247 -0.3424
24108SOL    HW279440   9.717   1.536   2.653 -1.3599  1.1534  1.6145
24109SOL     OW79441   4.995  11.512   4.916 -0.1411 -0.3429  0.1245
24109SOL    HW179442   4.995  11.512   5.012  0.5872 -2.4785  0.1782
24109SOL    HW279443   4.917  11.461   4.892 -0.7771  0.8642 -0.4680
24110SOL     OW79444   7.717   6.169  11.608 -0.1924 -0.0138 -0.1509
24110SOL    HW179445   7.743   6.217  11.686 -0.5831  0.1662 -0.1288
24110SOL    HW279446   7.774   6.092  11.607 -0.7251 -0.4419  0.7565
24111SOL     OW79447   1.495   0.086   5.104  0.5484  0.1746 -0.3394
24111SOL    HW179448   1.585   0.055   5.094 -0.9472 -4.4931 -1.7028
24111SOL    HW279449   1.475   0.071   5.197  0.8689  0.2703 -0.2539
24112SOL     OW79450  11.594   7.522   1.440  0.6611  0.3066 -0.5674
24112SOL    HW179451  11.514   7.494   1.484  0.8448 -1.3914 -1.2379
24112SOL    HW279452  11.665   7.485   1.493  0.9800  0.8360 -0.6113
24113SOL     OW79453   1.052   2.210   5.807  0.0984  0.5871  0.7129
24113SOL    HW179454   1.091   2.126   5.834  0.6390  1.4928  3.0234
24113SOL    HW279455   0.994   2.188   5.735  3.3042 -1.1853 -1.6183
24114SOL     OW79456   2.504   3.316   1.255  0.4636  0.4420  0.2434
24114SOL    HW179457   2.445   3.370   1.203 -0.6704  0.9000  1.9314
24114SOL    HW279458   2.589   3.361   1.249 -0.2160  1.8607  0.7425
24115SOL     OW79459   5.172  10.594   0.041 -0.5646  0.1725 -0.3400
24115SOL    HW179460   5.096  10.542   0.067  0.0259 -1.3639 -1.4887
24115SOL    HW279461   5.170  10.670   0.098 -1.2227 -1.3235  1.7538
24116SOL     OW79462   2.214   2.446   4.541 -0.1168  0.3429 -0.7277
24116SOL    HW179463   2.126   2.441   4.505  0.0792  2.9092 -1.7308
24116SOL    HW279464   2.272   2.428   4.466  0.2695 -0.8130 -0.1889
24117SOL     OW79465   5.589   3.267   1.521 -0.3521  0.3370 -0.1629
24117SOL    HW179466   5.506   3.314   1.523 -0.4073  0.2340  0.0182
24117SOL    HW279467   5.639   3.303   1.595  0.2321  1.2402 -0.9777
24118SOL     OW79468   8.097   5.710   6.552  0.3236  0.5861 -0.4428
24118SOL    HW179469   8.025   5.657   6.516  1.0269 -1.1323  0.5796
24118SOL    HW279470   8.068   5.734   6.640  0.0478  1.8861 -0.8659
24119SOL     OW79471   1.853  11.072  11.011 -0.3625  0.5675 -0.5235
24119SOL    HW179472   1.785  11.096  10.948  1.7381  0.6581 -2.8867
24119SOL    HW279473   1.917  11.143  11.005  1.3321 -0.9042 -0.5350
24120SOL     OW79474   1.555  10.524   5.069 -0.4856 -0.0859  0.1121
24120SOL    HW179475   1.637  10.560   5.034  0.1043 -1.0464  0.4624
24120SOL    HW279476   1.501  10.601   5.089 -0.6766  0.5272 -2.4492
24121SOL     OW79477   2.765   2.102   9.249  0.0575 -0.1765  0.2267
24121SOL    HW179478   2.725   2.018   9.225  0.8347 -1.0791  1.9256
24121SOL    HW279479   2.711   2.136   9.320  0.5797  0.0432  0.5278
24122SOL     OW79480   1.582   9.070   1.554 -0.7013  0.0461  0.0186
24122SOL    HW179481   1.546   9.057   1.466  0.3652 -2.5192 -0.1222
24122SOL    HW279482   1.605   9.163   1.557 -0.4133  0.1269 -2.5519
24123SOL     OW79483   6.688   9.545  11.492 -0.1330 -0.4530  0.1616
24123SOL    HW179484   6.599   9.512  11.478  0.0450 -0.4883 -0.9570
24123SOL    HW279485   6.676   9.620  11.550 -0.9036 -0.4304 -0.0111
24124SOL     OW79486   3.699  12.590   8.040 -0.0977 -0.3868  0.0058
24124SOL    HW179487   3.718  12.651   7.968 -1.4759  0.6407  0.4631
24124SOL    HW279488   3.780  12.586   8.091  0.8746 -1.0615 -1.5217
24125SOL     OW79489   3.676  10.714   2.916  0.1357 -0.1507 -0.2549
24125SOL    HW179490   3.709  10.786   2.969  0.1430 -1.0114  0.9731
24125SOL    HW279491   3.599  10.749   2.871  0.8055  0.9286 -0.5722
24126SOL     OW79492  12.145  10.634   4.921 -0.7088 -0.2395  0.1099
24126SOL    HW179493  12.232  10.623   4.883  0.1307  0.7041  1.6642
24126SOL    HW279494  12.115  10.719   4.888 -1.1517 -0.6442 -0.5709
24127SOL     OW79495   0.676  11.828   3.018 -0.2461 -0.7299 -0.0305
24127SOL    HW179496   0.624  11.793   2.945 -0.5318  0.0708 -0.2257
24127SOL    HW279497   0.763  11.792   3.005 -0.1276 -0.0956 -1.1559
24128SOL     OW79498   8.107   6.335   6.263  0.0529  0.3340  0.6319
24128SOL    HW179499   8.055   6.308   6.339  0.2957  0.3386  0.8021
24128SOL    HW279500   8.195   6.302   6.281 -0.7522 -3.6069 -1.6957
24129SOL     OW79501   9.865   1.119   6.545 -0.6172  0.2482  0.2002
24129SOL    HW179502   9.828   1.202   6.515  0.8691  0.6254 -0.7061
24129SOL    HW279503   9.840   1.056   6.478 -1.8610 -0.0946  0.9574
24130SOL     OW79504  10.597   0.696  10.936 -0.0066  0.4600  0.4303
24130SOL    HW179505  10.657   0.656  10.998 -1.4405 -0.1084  1.4834
24130SOL    HW279506  10.630   0.786  10.926  1.8215 -0.2350 -0.1173
24131SOL     OW79507   4.133   0.492   1.321  0.3372  0.9584  0.5666
24131SOL    HW179508   4.094   0.475   1.407 -2.4998 -0.4760 -0.8621
24131SOL    HW279509   4.148   0.587   1.320  1.2405  0.9129  2.8895
24132SOL     OW79510   5.294   2.297  11.800  0.1899 -0.3097  0.0719
24132SOL    HW179511   5.278   2.206  11.825 -3.7232  0.4681  1.0890
24132SOL    HW279512   5.252   2.306  11.714  1.6751  0.2571 -0.6148
24133SOL     OW79513  10.595   7.104  11.828 -0.0528  0.3090  0.3299
24133SOL    HW179514  10.576   7.131  11.918 -2.6602 -1.9736  0.5886
24133SOL    HW279515  10.510   7.093  11.787  1.0403 -0.3031 -1.9482
24134SOL     OW79516  11.958   2.304   1.006 -0.5956  0.6077  0.0029
24134SOL    HW179517  11.882   2.347   1.047  0.1410  0.6701  1.3511
24134SOL    HW279518  11.983   2.236   1.069  0.9614  1.1270 -0.0262
24135SOL     OW79519   2.304   3.498   2.545  0.6049 -0.5353 -0.3941
24135SOL    HW179520   2.356   3.470   2.469  2.2864 -2.0567  1.2316
24135SOL    HW279521   2.232   3.435   2.548  0.2973 -0.2195 -0.9479
24136SOL     OW79522   5.584   0.158   0.777  0.5462  0.3919 -0.1203
24136SOL    HW179523   5.539   0.199   0.702 -1.6666 -1.4763  0.0809
24136SOL    HW279524   5.593   0.229   0.841  0.4748  1.4911 -1.2833
24137SOL     OW79525  11.865  12.599   3.004  0.7328  0.1284 -0.1524
24137SOL    HW179526  11.944  12.645   2.974  0.3403  0.9518  0.0389
24137SOL    HW279527  11.838  12.648   3.082  2.0238 -2.2373  1.9482
24138SOL     OW79528   9.421   2.998  10.449  0.1631 -0.2716  0.1399
24138SOL    HW179529   9.511   3.028  10.463 -0.1119  0.5192  0.2654
24138SOL    HW279530   9.405   3.013  10.356 -0.1401  0.4526  0.3025
24139SOL     OW79531   9.688   7.384  10.897  0.2114  0.0196  0.1297
24139SOL    HW179532   9.666   7.403  10.806 -0.7150 -1.7950 -0.0667
24139SOL    HW279533   9.733   7.463  10.928 -0.6433  1.1990 -1.4913
24140SOL     OW79534   3.426  10.636  11.692  0.4046  0.0476 -0.6217
24140SOL    HW179535   3.348  10.659  11.743  0.6583 -0.3680 -0.0423
24140SOL    HW279536   3.393  10.575  11.626  0.4525 -1.2165  0.4792
24141SOL     OW79537   2.838  11.742   9.853  0.2970 -0.4229  0.0330
24141SOL    HW179538   2.780  11.666   9.854  1.3675 -1.3211 -1.8858
24141SOL    HW279539   2.801  11.800   9.786  0.5888 -0.1379  0.1136
24142SOL     OW79540  12.101   9.423   2.546 -0.2020 -0.3100  0.0337
24142SOL    HW179541  12.139   9.461   2.626 -1.8427 -0.5540  0.9706
24142SOL    HW279542  12.116   9.490   2.479 -1.1004  1.0674  1.1482
24143SOL     OW79543   6.962   7.931   1.833  0.5461  0.7073 -0.1564
24143SOL    HW179544   6.990   7.843   1.858  0.1159  0.7386  0.4466
24143SOL    HW279545   7.040   7.985   1.843  1.0923  0.2265 -1.4951
24144SOL     OW79546   3.366   4.768   6.305  0.3122 -0.0247 -0.0021
24144SOL    HW179547   3.435   4.705   6.283  0.0866  0.3898 -2.0295
24144SOL    HW279548   3.342   4.809   6.222 -1.3274  0.9444  0.8867
24145SOL     OW79549   7.668   1.846   8.155 -0.6409 -0.2823  0.1020
24145SOL    HW179550   7.586   1.877   8.195 -0.0665  1.9576 -0.3464
24145SOL    HW279551   7.699   1.778   8.216 -2.4249 -0.6673  0.6656
24146SOL     OW79552   1.919   6.677   9.364 -0.3324 -0.5783  0.5843
24146SOL    HW179553   1.929   6.765   9.401  0.4260  0.2754 -1.4630
24146SOL    HW279554   1.968   6.620   9.423 -2.3523  0.0034  2.9821
24147SOL     OW79555  12.701   2.242  11.189  0.0313 -0.9869 -0.6758
24147SOL    HW179556  12.708   2.330  11.229 -1.9732  0.1085 -2.5526
24147SOL    HW279557  12.760   2.246  11.113 -0.2289 -1.2059 -0.8874
24148SOL     OW79558   1.833   8.470   1.530 -0.7181 -0.4268  0.4534
24148SOL    HW179559   1.778   8.548   1.536 -1.7633 -0.8594 -2.2648
24148SOL    HW279560   1.835   8.449   1.437  2.1042 -1.8710  0.7384
24149SOL     OW79561   7.025  11.532   0.278  0.1108  0.3463 -0.3185
24149SOL    HW179562   6.973  11.511   0.356  1.0410  1.0154  0.5043
24149SOL    HW279563   7.087  11.599   0.308  1.9027 -0.8958 -1.0839
24150SOL     OW79564   2.078   4.125  10.791  0.1081  0.0549 -0.2118
24150SOL    HW179565   1.992   4.086  10.775 -0.4559  0.0525  2.3408
24150SOL    HW279566   2.135   4.050  10.806  0.0045  0.0951  0.4111
24151SOL     OW79567   9.045   7.274   2.777  0.9603 -0.1976 -0.1151
24151SOL    HW179568   9.104   7.205   2.745 -0.4329 -1.7876  0.5694
24151SOL    HW279569   9.092   7.355   2.762  3.1425 -1.3686  0.0207
24152SOL     OW79570   7.967   1.253   9.658  0.2374 -0.3321  0.2174
24152SOL    HW179571   8.056   1.288   9.661 -0.0935  0.4496  1.2483
24152SOL    HW279572   7.962   1.210   9.573  1.8061 -0.9446  0.3987
24153SOL     OW79573   5.824  12.686   7.657  0.1712 -0.0825  0.0179
24153SOL    HW179574   5.915  12.665   7.640  0.8176  2.6568 -0.4720
24153SOL    HW279575   5.802  12.752   7.591 -2.1882 -0.6816  0.1113
24154SOL     OW79576   4.141  10.619   6.956 -1.1682  0.1430  0.3037
24154SOL    HW179577   4.169  10.539   7.000 -1.9613 -0.4089 -0.1798
24154SOL    HW279578   4.046  10.610   6.946 -1.2854  1.1827  0.3209
24155SOL     OW79579   1.840  12.271  11.963 -1.0838  0.3216 -0.2772
24155SOL    HW179580   1.907  12.224  11.913 -0.0664 -0.7042  1.9001
24155SOL    HW279581   1.757  12.238  11.929 -0.4299 -0.6175 -1.0192
24156SOL     OW79582  11.411   1.511   2.866  0.2842  0.2880 -0.5228
24156SOL    HW179583  11.336   1.452   2.871  1.0988 -0.8165 -0.8396
24156SOL    HW279584  11.447   1.511   2.955 -0.3545  1.1898 -0.2565
24157SOL     OW79585   5.314   1.518   3.165 -0.5884 -0.3913 -0.5323
24157SOL    HW179586   5.292   1.601   3.124  0.5896 -0.6529 -1.7588
24157SOL    HW279587   5.400   1.495   3.129 -1.8635 -3.2957 -2.1131
24158SOL     OW79588   8.233  11.609  10.714  0.5013 -0.1812 -0.6400
24158SOL    HW179589   8.316  11.570  10.686  0.6226 -0.0639 -0.4455
24158SOL    HW279590   8.238  11.700  10.686 -0.0766 -0.4656 -1.7263
24159SOL     OW79591   8.299  12.298   7.901  0.2188 -0.0758 -0.5733
24159SOL    HW179592   8.243  12.319   7.976  1.4788 -1.3427  0.7796
24159SOL    HW279593   8.385  12.332   7.926  0.5860 -0.2077 -1.6198
24160SOL     OW79594   0.216   5.803   2.616 -0.1020 -0.5503  0.4823
24160SOL    HW179595   0.191   5.882   2.664  1.0897 -0.4274  0.9476
24160SOL    HW279596   0.218   5.734   2.682  2.1408 -0.2607  0.8019
24161SOL     OW79597   4.204  11.742  10.643 -0.1323 -0.3806  0.0365
24161SOL    HW179598   4.284  11.785  10.673  1.7225 -3.1975 -0.4332
24161SOL    HW279599   4.133  11.795  10.678  1.9268  1.2656  2.0290
24162SOL     OW79600  10.625  12.549   6.617  0.4286  0.6384  0.3741
24162SOL    HW179601  10.716  12.528   6.635 -0.1345 -1.0195  1.5050
24162SOL    HW279602  10.590  12.473   6.571 -0.8892  0.3255  1.7953
24163SOL     OW79603  11.184   4.283   7.795 -0.0903 -0.0772  0.0222
24163SOL    HW179604  11.171   4.255   7.705  0.1325 -0.4669  0.1063
24163SOL    HW279605  11.140   4.368   7.801 -3.6811 -1.8004  0.6316
24164SOL     OW79606  11.682  11.876   4.282 -0.3561 -0.1485 -0.4779
24164SOL    HW179607  11.627  11.954   4.293  1.3200  1.2330 -1.4970
24164SOL    HW279608  11.702  11.874   4.188 -0.3286 -1.8052 -0.4588
24165SOL     OW79609   6.637   5.187   3.971  0.1506  0.4175  0.1917
24165SOL    HW179610   6.586   5.124   3.920  0.2436 -2.1055  2.9699
24165SOL    HW279611   6.571   5.238   4.018  0.1050 -0.3889  1.0217
24166SOL     OW79612  10.364   0.709   8.870  0.4898  0.2151 -0.5280
24166SOL    HW179613  10.383   0.651   8.943  0.1444  0.0175 -0.5939
24166SOL    HW279614  10.450   0.740   8.841  0.5451  3.2471  2.3043
24167SOL     OW79615   9.842   8.735   8.284 -0.1064 -0.3697  0.0380
24167SOL    HW179616   9.881   8.652   8.254  0.6120  0.0796 -0.3159
24167SOL    HW279617   9.838   8.726   8.379  3.3246  0.5376  0.3938
24168SOL     OW79618   0.383   3.065   4.213  0.0989 -0.2629 -0.4481
24168SOL    HW179619   0.452   3.032   4.271 -0.8646 -1.4871  0.0714
24168SOL    HW279620   0.372   3.157   4.238 -1.2170 -1.0582  2.3695
24169SOL     OW79621  11.897   3.462   3.570  0.4831  0.1365  0.3308
24169SOL    HW179622  11.946   3.527   3.519  0.2800  0.6214  0.7452
24169SOL    HW279623  11.827   3.434   3.512  0.8559 -0.0719 -0.0246
24170SOL     OW79624  12.164   7.373   1.740  0.2560 -0.1312  0.0698
24170SOL    HW179625  12.219   7.299   1.715 -0.6835 -1.0572  0.6276
24170SOL    HW279626  12.080   7.357   1.696  0.8927  2.1610 -2.1739
24171SOL     OW79627  11.482   3.477   4.162  0.5096  0.4878 -0.8654
24171SOL    HW179628  11.449   3.567   4.160  0.1877  0.4211  0.7436
24171SOL    HW279629  11.544   3.475   4.235 -0.0472 -0.7816 -0.3912
24172SOL     OW79630   7.101   7.209   6.377  0.2623 -0.0067  0.1913
24172SOL    HW179631   7.126   7.285   6.430 -0.5422 -0.4444  1.2440
24172SOL    HW279632   7.143   7.224   6.292  2.0769  0.4567  1.0991
24173SOL     OW79633  10.397  10.891   1.376  0.3077 -0.1268  0.4070
24173SOL    HW179634  10.322  10.856   1.425 -0.1009  0.5148  0.2543
24173SOL    HW279635  10.472  10.875   1.433  0.5419 -3.3600 -0.6130
24174SOL     OW79636   6.258  12.126   4.219  0.3010 -0.2747  0.0903
24174SOL    HW179637   6.287  12.215   4.201 -0.9162  0.2759  0.6829
24174SOL    HW279638   6.311  12.071   4.162 -0.1921  0.9891 -1.6618
24175SOL     OW79639   6.514   5.578   4.860 -0.3140  0.6215  0.1854
24175SOL    HW179640   6.471   5.567   4.945  1.2634  2.5621  1.3298
24175SOL    HW279641   6.607   5.586   4.882  0.4363 -1.3704 -1.9977
24176SOL     OW79642   6.185   4.767   9.971  0.5399 -0.3903  0.8080
24176SOL    HW179643   6.164   4.714  10.048  2.5927 -0.5077  1.3532
24176SOL    HW279644   6.149   4.853   9.992 -0.7921 -0.9617  0.9385
24177SOL     OW79645   3.099   3.908  12.193  0.6711 -0.2536 -0.1962
24177SOL    HW179646   3.103   3.903  12.288 -3.0234  1.6694  0.2607
24177SOL    HW279647   3.137   3.993  12.171 -2.1892  1.2519  0.1734
24178SOL     OW79648   1.779   6.466   9.743 -0.3059 -0.2640 -0.3765
24178SOL    HW179649   1.864   6.488   9.704 -0.1522 -1.5550 -0.8557
24178SOL    HW279650   1.729   6.428   9.670 -1.8990  1.8851 -0.4940
24179SOL     OW79651   8.774   5.498   2.289  0.3051 -0.3190 -0.4452
24179SOL    HW179652   8.699   5.524   2.342 -0.2671  0.1617 -1.4572
24179SOL    HW279653   8.767   5.403   2.282 -2.3345 -0.0572 -3.4726
24180SOL     OW79654  10.650   2.564   3.523  0.0944 -0.0994  0.1036
24180SOL    HW179655  10.744   2.557   3.507  0.3116 -0.0127  1.3017
24180SOL    HW279656  10.631   2.658   3.518 -0.2217 -0.2197 -1.6198
24181SOL     OW79657   9.875  12.839   7.022 -0.2666 -0.6781 -0.0071
24181SOL    HW179658   9.791  12.802   7.050 -0.3376 -0.2290  0.3909
24181SOL    HW279659   9.940  12.794   7.075 -0.3049 -0.6479  0.0671
24182SOL     OW79660   2.501  11.092  11.072  0.2965  0.0029 -0.2616
24182SOL    HW179661   2.595  11.110  11.082  0.5159 -1.1995 -0.0242
24182SOL    HW279662   2.459  11.177  11.083  1.3608  0.5541 -0.3556
24183SOL     OW79663   5.823   6.490   4.811  0.0298 -0.1076 -0.3120
24183SOL    HW179664   5.815   6.548   4.887  1.9481  2.7079 -2.0309
24183SOL    HW279665   5.917   6.474   4.804 -0.3119 -2.0499 -0.9389
24184SOL     OW79666  11.802  10.012   2.245  0.2629  0.3083  0.2448
24184SOL    HW179667  11.864   9.993   2.316 -0.0527  1.2839  0.8045
24184SOL    HW279668  11.856  10.044   2.173  0.5760 -0.5696  0.0768
24185SOL     OW79669   5.892   1.579   2.671  0.4661 -0.1490 -0.4982
24185SOL    HW179670   5.908   1.511   2.606 -0.0650  0.5425 -1.3735
24185SOL    HW279671   5.797   1.590   2.672  0.5454  0.6518 -0.4535
24186SOL     OW79672   6.515   3.876  10.262  0.8091  0.2648 -0.3877
24186SOL    HW179673   6.511   3.848  10.171 -0.2493  0.8618 -0.5273
24186SOL    HW279674   6.538   3.968  10.259 -1.2618  0.8353 -0.1604
24187SOL     OW79675  10.728   1.632   9.809  0.2146 -0.5191 -0.5803
24187SOL    HW179676  10.808   1.673   9.777  0.8195 -1.0126  0.2554
24187SOL    HW279677  10.710   1.677   9.892 -0.8882  0.2077 -1.1900
24188SOL     OW79678   0.343   9.439   8.648  0.6060 -0.1303 -0.1756
24188SOL    HW179679   0.373   9.417   8.560  1.8542  0.9501 -0.0539
24188SOL    HW279680   0.251   9.463   8.637  0.8342  0.3002 -1.2510
24189SOL     OW79681   6.866   0.271  11.612  0.0197 -0.0940  0.5758
24189SOL    HW179682   6.915   0.244  11.689 -1.6453  0.7728  2.0041
24189SOL    HW279683   6.775   0.254  11.634 -0.3883 -2.9034 -2.4772
24190SOL     OW79684   3.288  11.423   5.094 -0.2179 -0.2095  0.6363
24190SOL    HW179685   3.329  11.476   5.162 -1.7528  3.1611 -0.8470
24190SOL    HW279686   3.196  11.419   5.119 -0.3227 -1.3280  0.1492
24191SOL     OW79687   9.797  11.528   9.037  0.0338  0.3891  0.0963
24191SOL    HW179688   9.733  11.572   8.981 -0.0560  0.3807  0.1927
24191SOL    HW279689   9.866  11.592   9.050 -0.7911  1.0408  1.4640
24192SOL     OW79690   2.834   4.587   2.871 -0.1110  0.0514 -0.6171
24192SOL    HW179691   2.915   4.638   2.878  0.1563 -0.2773 -1.2934
24192SOL    HW279692   2.841   4.542   2.787  0.7507 -2.9295  0.8995
24193SOL     OW79693   9.572   5.711  11.890 -0.9235  0.4400 -0.1353
24193SOL    HW179694   9.534   5.782  11.942  1.2218  1.3254  0.3290
24193SOL    HW279695   9.632   5.755  11.830  1.0107 -0.9799  0.6515
24194SOL     OW79696   3.382   9.048   2.101  0.3562  0.1167  0.4483
24194SOL    HW179697   3.349   9.134   2.074 -0.7152 -0.1630  0.8106
24194SOL    HW279698   3.322   8.985   2.061  0.8024 -0.4439  0.6389
24195SOL     OW79699   0.064   9.920   5.793 -0.2136  0.1388  0.1990
24195SOL    HW179700   0.149   9.886   5.765 -0.1664  0.7887 -0.4984
24195SOL    HW279701   0.065   9.914   5.888 -0.1058 -1.5243  0.1161
24196SOL     OW79702  10.214   6.503   9.854 -0.0307  0.1680  0.2880
24196SOL    HW179703  10.149   6.573   9.859  1.3985  1.6495 -0.8756
24196SOL    HW279704  10.242   6.503   9.762  2.2778  0.2521  0.9344
24197SOL     OW79705   4.198  11.412  11.013  0.1483  0.1931 -0.0798
24197SOL    HW179706   4.219  11.503  11.034 -2.9477  0.8211  0.7763
24197SOL    HW279707   4.237  11.361  11.084 -0.4444  1.1579  0.9761
24198SOL     OW79708   8.794  12.383   7.011 -0.0751  0.3804  0.2426
24198SOL    HW179709   8.709  12.376   7.053  0.2211 -1.4412  0.6171
24198SOL    HW279710   8.789  12.324   6.936  0.7318  0.5578  0.0357
24199SOL     OW79711   0.454   1.450  12.064  0.4363  0.7924 -0.0703
24199SOL    HW179712   0.479   1.379  12.124 -0.0198  0.9776  0.3451
24199SOL    HW279713   0.523   1.515  12.074  0.5844  0.6356 -0.0649
24200SOL     OW79714   7.561  11.723   9.720  0.0935 -0.2916  0.3093
24200SOL    HW179715   7.489  11.762   9.769 -0.7227 -0.8522 -0.4367
24200SOL    HW279716   7.638  11.774   9.746 -0.2912 -0.5966  2.2219
24201SOL     OW79717   6.164   5.871   6.582  0.6199 -0.0782 -0.0875
24201SOL    HW179718   6.255   5.878   6.556  0.9640  1.4771  1.3882
24201SOL    HW279719   6.163   5.896   6.674 -1.4857  1.4680 -0.4486
24202SOL     OW79720  10.585  11.356  10.903  0.0866  0.8259 -0.4843
24202SOL    HW179721  10.579  11.368  10.997 -0.7138  0.3468 -0.4622
24202SOL    HW279722  10.584  11.444  10.867  0.7658  1.0215 -0.0256
24203SOL     OW79723   8.421   6.791  10.785 -0.1684  0.3756  0.0435
24203SOL    HW179724   8.514   6.786  10.765 -0.2698 -2.1859 -0.1954
24203SOL    HW279725   8.394   6.877  10.754  2.0393  1.0522 -0.1637
24204SOL     OW79726   1.345   0.362  12.735  0.3347  0.0146 -0.5553
24204SOL    HW179727   1.306   0.447  12.719 -1.2883 -0.1504  1.9623
24204SOL    HW279728   1.428   0.381  12.779 -0.2302  0.3044  0.3984
24205SOL     OW79729  12.046   3.239   8.314  0.0477  0.1671  0.0115
24205SOL    HW179730  11.980   3.189   8.267 -0.5877  1.0292 -0.0395
24205SOL    HW279731  12.117   3.251   8.251  0.2470 -0.7153  0.0509
24206SOL     OW79732   1.164   1.659   5.847 -0.7052  0.4242 -0.1934
24206SOL    HW179733   1.116   1.593   5.796 -0.1689  0.3805 -0.6472
24206SOL    HW279734   1.256   1.645   5.824 -0.6774  2.2475 -1.4069
24207SOL     OW79735   9.945   9.529   9.494  0.2600 -0.0902 -0.1246
24207SOL    HW179736   9.856   9.511   9.464 -0.8355 -0.8755  3.2457
24207SOL    HW279737   9.949   9.625   9.499 -0.1151 -0.0211 -0.9859
24208SOL     OW79738   4.235   3.974  10.365 -0.2220 -0.4793 -0.3650
24208SOL    HW179739   4.268   3.909  10.427 -0.1811 -1.5724 -1.4934
24208SOL    HW279740   4.189   3.923  10.299 -1.4114  0.7657 -0.5486
24209SOL     OW79741   7.260   8.409   8.372 -0.0944  0.0710 -0.1231
24209SOL    HW179742   7.238   8.441   8.459 -0.9952 -0.6948 -0.0530
24209SOL    HW279743   7.331   8.347   8.387 -1.3869 -1.3779  0.3186
24210SOL     OW79744   7.137   9.714   2.598  0.3750  0.3397 -0.4140
24210SOL    HW179745   7.052   9.736   2.635 -0.0081 -1.6152  0.0055
24210SOL    HW279746   7.118   9.688   2.508  0.9415  2.5086 -1.2121
24211SOL     OW79747   6.224   5.667   2.226  0.5338  0.2689 -0.0140
24211SOL    HW179748   6.191   5.738   2.282  1.9642  1.8033 -1.0112
24211SOL    HW279749   6.284   5.619   2.282 -0.7038 -0.4143  0.7746
24212SOL     OW79750   9.222   9.445   7.457  0.3602  0.0793 -1.0027
24212SOL    HW179751   9.218   9.363   7.408  1.1125 -1.2007  0.9610
24212SOL    HW279752   9.315   9.468   7.457  0.5793 -0.6427  0.8413
24213SOL     OW79753  12.106   8.713   9.159 -0.3085 -0.0956  0.0031
24213SOL    HW179754  12.162   8.689   9.085 -0.4492 -0.1759 -0.0752
24213SOL    HW279755  12.167   8.754   9.222 -0.3934  1.1494 -0.6971
24214SOL     OW79756   4.493  10.865   8.199 -0.3528 -0.3614  0.2227
24214SOL    HW179757   4.501  10.772   8.178 -1.0081 -0.8309  1.9142
24214SOL    HW279758   4.583  10.897   8.201 -0.1777 -0.6442 -1.5632
24215SOL     OW79759   5.649   2.300   3.823  1.0816 -0.2587 -0.1051
24215SOL    HW179760   5.684   2.388   3.808 -1.0872  0.4813 -1.3151
24215SOL    HW279761   5.677   2.250   3.746 -0.5200  0.3930 -1.1830
24216SOL     OW79762  10.720   8.145   7.318 -0.9004  0.1022  0.7063
24216SOL    HW179763  10.737   8.100   7.235 -0.3415  0.4270  0.6423
24216SOL    HW279764  10.787   8.213   7.323  0.0807 -0.9267  2.1882
24217SOL     OW79765   7.819   8.738   6.645 -0.2492 -0.3402 -0.3597
24217SOL    HW179766   7.803   8.825   6.607 -1.0637 -0.1216  0.4627
24217SOL    HW279767   7.896   8.750   6.701 -1.5440  0.3784  1.3543
24218SOL     OW79768   9.291   5.152   8.698  0.1034 -0.2226 -0.2836
24218SOL    HW179769   9.305   5.217   8.768  0.3270 -0.2136 -0.3345
24218SOL    HW279770   9.362   5.089   8.710  0.3409 -0.0417 -0.7054
24219SOL     OW79771   4.086   2.988   4.001  0.6176 -0.5835  0.1151
24219SOL    HW179772   4.046   2.983   3.915 -1.4943  0.6525  0.9491
24219SOL    HW279773   4.170   3.030   3.986  0.2341 -0.2705 -1.3067
24220SOL     OW79774   8.949   3.446  12.829 -0.0945 -0.0860  0.4026
24220SOL    HW179775   9.032   3.454  12.782 -0.4687 -2.0926 -0.6923
24220SOL    HW279776   8.890   3.507  12.785  0.1672 -0.3287 -0.2859
24221SOL     OW79777   0.689   1.332   1.515 -0.0993 -0.2817 -0.3934
24221SOL    HW179778   0.737   1.359   1.594  1.3135 -0.8279 -1.0327
24221SOL    HW279779   0.737   1.373   1.443 -0.5151 -0.9725 -1.0784
24222SOL     OW79780   5.030   6.167   0.416  0.4937  0.7201  0.2952
24222SOL    HW179781   5.005   6.257   0.395  2.5564  1.0566 -0.9470
24222SOL    HW279782   5.059   6.171   0.507 -0.3984  1.0793  0.5743
24223SOL     OW79783   7.337   8.210  11.015  0.1640 -0.5078  0.7512
24223SOL    HW179784   7.317   8.183  11.105  0.0108 -0.8062  0.6282
24223SOL    HW279785   7.301   8.140  10.961  2.6877 -1.7725  0.5817
24224SOL     OW79786   4.092   1.868   9.723 -0.1315  0.3218 -0.4008
24224SOL    HW179787   4.091   1.917   9.806 -0.0523 -0.1595 -0.1085
24224SOL    HW279788   4.066   1.931   9.657  0.0385  0.7779 -0.0371
24225SOL     OW79789   1.923  12.720  11.473 -0.2647  0.9995  0.2926
24225SOL    HW179790   2.011  12.734  11.439 -0.6691  2.3367 -0.2872
24225SOL    HW279791   1.935  12.666  11.551  0.7393 -1.7808 -1.6391
24226SOL     OW79792   8.781   6.533   2.490  0.1223 -0.2730 -0.3362
24226SOL    HW179793   8.798   6.440   2.505  0.9803 -0.1137 -0.2610
24226SOL    HW279794   8.802   6.546   2.398  2.0448  0.2526  0.1278
24227SOL     OW79795  10.226   8.663   5.058  0.0671 -0.3710 -0.0731
24227SOL    HW179796  10.189   8.576   5.069  0.4621 -0.5021  0.2687
24227SOL    HW279797  10.251   8.691   5.146 -1.2228  0.6294  0.0008
24228SOL     OW79798  11.650   9.318  10.451  0.5432  0.8920  0.4004
24228SOL    HW179799  11.667   9.232  10.490  0.6736  0.7497  0.0347
24228SOL    HW279800  11.564   9.343  10.485  0.3214  0.4310  0.1887
24229SOL     OW79801   2.299   7.704   5.242 -0.4688 -0.4658  0.1443
24229SOL    HW179802   2.333   7.787   5.210 -1.7586  0.5006  1.1773
24229SOL    HW279803   2.204   7.714   5.241 -0.6334 -1.7202  0.7965
24230SOL     OW79804  11.178   0.932   4.549  0.2186 -0.1562  0.2071
24230SOL    HW179805  11.130   0.989   4.489 -0.9575  1.9375  2.9545
24230SOL    HW279806  11.267   0.931   4.514 -0.2463  1.5284 -1.1890
24231SOL     OW79807   0.953  12.346   1.745  0.0312  0.3882 -0.2573
24231SOL    HW179808   0.959  12.349   1.650  0.2138 -1.5504 -0.3298
24231SOL    HW279809   0.861  12.364   1.764  0.2664  2.2921 -0.6713
24232SOL     OW79810  12.572   1.729   0.688  0.7466 -0.6890 -0.3750
24232SOL    HW179811  12.581   1.726   0.783 -1.1107  2.0848  0.0109
24232SOL    HW279812  12.523   1.649   0.666  1.5718 -1.5817  0.9107
24233SOL     OW79813   7.579   7.794   0.118 -0.5497 -0.8030 -0.4310
24233SOL    HW179814   7.657   7.845   0.144 -0.1379 -1.4315 -0.4048
24233SOL    HW279815   7.613   7.731   0.054 -1.3636  0.0404 -1.7289
24234SOL     OW79816   7.133   1.100   6.852 -0.1673 -0.2782  0.6911
24234SOL    HW179817   7.089   1.088   6.768 -0.3120  1.2279  0.5331
24234SOL    HW279818   7.210   1.152   6.832  1.2675 -2.1072  1.1127
24235SOL     OW79819   2.001   2.491   6.670 -0.2637 -0.6156  0.7892
24235SOL    HW179820   1.962   2.536   6.746  1.0396 -0.4689  1.4066
24235SOL    HW279821   2.083   2.538   6.655  0.2227 -1.6148  0.2538
24236SOL     OW79822   1.118   7.435   6.782  0.0041 -0.0397  0.5007
24236SOL    HW179823   1.159   7.521   6.781  1.2578 -0.6122  0.4672
24236SOL    HW279824   1.117   7.407   6.691  1.9475 -1.0952  0.7490
24237SOL     OW79825   4.624   2.749   7.628 -0.3021 -0.2368  0.5055
24237SOL    HW179826   4.593   2.818   7.569  0.5092  0.6411  1.0921
24237SOL    HW279827   4.662   2.796   7.703  0.3422 -1.3165  0.8744
24238SOL     OW79828   8.534   5.570   2.445 -0.2601  0.2351  0.4907
24238SOL    HW179829   8.527   5.601   2.355  1.8034 -0.4624  0.0434
24238SOL    HW279830   8.516   5.648   2.498  1.8783  1.5794 -0.5885
24239SOL     OW79831   5.639  10.557   2.926 -0.1029  0.3656  0.6356
24239SOL    HW179832   5.584  10.537   3.002  0.7781  1.3527  1.5835
24239SOL    HW279833   5.653  10.651   2.932  1.1899  0.2216  0.0791
24240SOL     OW79834   7.890   1.427  11.680  0.1466 -0.0637 -0.0969
24240SOL    HW179835   7.821   1.425  11.614 -0.5279  0.4848  0.5780
24240SOL    HW279836   7.895   1.337  11.712 -0.5783 -0.0174  0.1684
24241SOL     OW79837   8.363   8.823   0.939 -0.3426  0.5576  0.0938
24241SOL    HW179838   8.435   8.774   0.979 -0.2719  0.0026 -0.6802
24241SOL    HW279839   8.321   8.760   0.880 -0.2095  1.4345 -0.9836
24242SOL     OW79840   8.215   4.935   3.046  0.2313 -0.3169 -0.5395
24242SOL    HW179841   8.278   4.905   3.111  0.0440 -0.3362 -0.3676
24242SOL    HW279842   8.136   4.883   3.063 -0.7635  1.5607  0.9971
24243SOL     OW79843  12.908   8.616   2.943  0.5151 -0.1512 -0.4421
24243SOL    HW179844  12.975   8.645   3.005 -0.5457  0.5403  0.4207
24243SOL    HW279845  12.930   8.525   2.925  0.0893 -0.8301  2.0386
24244SOL     OW79846  11.299   6.845   4.562  0.2724  0.1452 -0.2042
24244SOL    HW179847  11.336   6.921   4.516 -0.7732  1.6246  1.3035
24244SOL    HW279848  11.205   6.861   4.565  0.1405 -0.6949  1.0368
24245SOL     OW79849   8.544   5.064  12.080 -0.3197 -0.1072 -0.3111
24245SOL    HW179850   8.539   4.983  12.130  0.9530 -0.9205 -1.4169
24245SOL    HW279851   8.622   5.108  12.112  0.7595 -0.8449 -1.7957
24246SOL     OW79852  11.653   9.031   9.135  0.3904  0.3252  0.3533
24246SOL    HW179853  11.651   8.944   9.095 -2.5488  0.5952 -0.3079
24246SOL    HW279854  11.628   9.016   9.227 -0.6277  0.4902  0.1138
24247SOL     OW79855   8.553   7.056   9.526 -0.5434 -0.0400  0.2264
24247SOL    HW179856   8.629   7.114   9.521  0.7273 -1.5312  1.3267
24247SOL    HW279857   8.506   7.084   9.605 -1.0127  0.6900 -0.2935
24248SOL     OW79858   7.590   1.122   1.891  0.5725  0.0037 -0.3098
24248SOL    HW179859   7.533   1.092   1.962 -0.7107  0.5194 -1.0871
24248SOL    HW279860   7.663   1.165   1.935  0.7944 -1.3621  0.7317
24249SOL     OW79861   3.642   0.896   6.960 -0.0129 -0.2381 -0.3661
24249SOL    HW179862   3.569   0.837   6.977 -0.6874  0.7010  0.0858
24249SOL    HW279863   3.635   0.964   7.027  2.3080 -1.0311  0.8018
24250SOL     OW79864   3.585   1.538   6.470 -0.5228  0.4135  0.0754
24250SOL    HW179865   3.575   1.450   6.434  1.3663  0.1141  0.1795
24250SOL    HW279866   3.614   1.591   6.397  3.8273 -0.3004  1.0241
24251SOL     OW79867   4.090   5.768   2.586 -0.7003 -0.8779  0.1358
24251SOL    HW179868   4.038   5.707   2.639 -2.2407  1.1331  1.1056
24251SOL    HW279869   4.181   5.741   2.601 -1.1408 -1.1142  2.9525
24252SOL     OW79870   6.469   8.742   1.263 -0.0562  0.6120 -0.4469
24252SOL    HW179871   6.477   8.775   1.174 -1.8135  0.8280 -0.5470
24252SOL    HW279872   6.400   8.795   1.302 -0.5700 -0.6960  0.4815
24253SOL     OW79873   7.284   0.039  12.786 -0.3169 -0.0265 -0.2623
24253SOL    HW179874   7.317  -0.031  12.729 -0.6367  0.9817 -1.7348
24253SOL    HW279875   7.341   0.035  12.863  1.0328 -0.5706 -1.2351
24254SOL     OW79876   5.587   1.771   9.650 -0.1104  0.3771 -0.2815
24254SOL    HW179877   5.499   1.807   9.663  0.5370  1.3506  1.9758
24254SOL    HW279878   5.581   1.722   9.568 -2.2791  1.8598 -1.1135
24255SOL     OW79879   8.486   9.752  10.910 -0.1520 -0.2389  0.0798
24255SOL    HW179880   8.544   9.676  10.919  1.2526  0.8239  0.2962
24255SOL    HW279881   8.493   9.776  10.817 -4.5273 -3.3171 -1.3945
24256SOL     OW79882   6.940  12.756   6.975 -0.3376  0.0459  0.3229
24256SOL    HW179883   6.966  12.764   6.884 -1.2484 -0.2825  0.0184
24256SOL    HW279884   7.005  12.698   7.014  0.2918  0.5195 -0.0103
24257SOL     OW79885   4.161  12.201   7.385 -0.0906  0.2391  0.4361
24257SOL    HW179886   4.210  12.227   7.307  1.5304 -2.4276  0.4445
24257SOL    HW279887   4.229  12.187   7.452 -0.9003 -2.4474  0.7943
24258SOL     OW79888   1.120  11.023   8.254 -0.3430 -0.7179 -0.2355
24258SOL    HW179889   1.111  11.089   8.186  0.0904 -0.5541 -0.1350
24258SOL    HW279890   1.183  11.060   8.316  0.6772 -1.6327 -0.6848
24259SOL     OW79891   4.155   1.954  10.712  0.3376  0.2498 -0.0982
24259SOL    HW179892   4.156   1.914  10.799  0.6173  1.9259  0.7019
24259SOL    HW279893   4.214   1.898  10.660  0.3474 -0.6410  0.8315
24260SOL     OW79894   3.754   2.484   7.712 -0.3429 -0.5915  0.0811
24260SOL    HW179895   3.708   2.437   7.643 -0.9781 -0.9454  0.7281
24260SOL    HW279896   3.810   2.546   7.666 -2.8980  1.2743 -0.7817
24261SOL     OW79897   9.421   9.296   6.142  0.3232 -0.6031 -0.3565
24261SOL    HW179898   9.385   9.303   6.231 -0.5131 -1.9474 -0.5749
24261SOL    HW279899   9.444   9.386   6.119  1.7479 -0.3766  1.7042
24262SOL     OW79900   9.797   6.952   0.984  0.3754 -0.1212 -0.0422
24262SOL    HW179901   9.776   7.045   0.976  1.8427  0.2512  0.2399
24262SOL    HW279902   9.891   6.950   1.002  0.4680 -1.6878 -0.5840
24263SOL     OW79903  12.799   3.571  11.439  0.0056  0.0429 -0.0010
24263SOL    HW179904  12.750   3.643  11.478 -0.0779  1.1262 -1.9895
24263SOL    HW279905  12.742   3.537  11.370 -0.0113 -2.0736  0.9661
24264SOL     OW79906   9.566   3.812   1.617  0.7883 -0.1768  0.0916
24264SOL    HW179907   9.518   3.878   1.667  0.6374 -0.1798 -0.0456
24264SOL    HW279908   9.498   3.751   1.587  0.6423  0.6722 -1.4108
24265SOL     OW79909   7.332   4.590   3.142  0.2902  0.2817 -0.3988
24265SOL    HW179910   7.334   4.653   3.213  0.6743  1.8953 -1.7940
24265SOL    HW279911   7.312   4.642   3.064 -0.1587 -1.4333 -1.4848
24266SOL     OW79912   5.343   4.638   7.399  0.2247 -0.4778 -0.4416
24266SOL    HW179913   5.320   4.698   7.329  0.2213  1.5628  1.2169
24266SOL    HW279914   5.395   4.570   7.356 -1.1544 -0.2406 -2.6609
24267SOL     OW79915   5.820  12.479   5.452 -0.8637  0.5309  0.2877
24267SOL    HW179916   5.861  12.543   5.510 -0.7550 -0.8697  1.8318
24267SOL    HW279917   5.733  12.465   5.489 -0.3812 -1.2272  0.8547
24268SOL     OW79918  10.479   6.245   7.710 -0.1731 -0.3853 -0.4202
24268SOL    HW179919  10.487   6.177   7.642  1.4352  0.0520 -0.7051
24268SOL    HW279920  10.393   6.229   7.749 -0.7013 -1.3055 -1.8578
24269SOL     OW79921  11.193   7.549   6.966 -0.2737 -0.2114 -0.7156
24269SOL    HW179922  11.277   7.508   6.945 -0.7224 -1.3531 -0.3526
24269SOL    HW279923  11.146   7.550   6.883  0.4406  1.3114 -1.1318
24270SOL     OW79924   5.845   1.897   0.780 -0.5569  0.0462 -0.0459
24270SOL    HW179925   5.770   1.956   0.768  0.0182  0.4719 -2.0158
24270SOL    HW279926   5.865   1.901   0.873 -1.1604  2.2118  0.0404
24271SOL     OW79927   6.940   5.829   9.605  0.8433 -0.4119 -0.1792
24271SOL    HW179928   6.902   5.894   9.546  1.0567  0.4208  0.5738
24271SOL    HW279929   6.952   5.876   9.687 -2.2086 -2.2687  1.5122
24272SOL     OW79930  11.424  10.689   0.432  0.1709  0.3857 -0.3301
24272SOL    HW179931  11.379  10.650   0.356  0.4545  1.3571 -1.0156
24272SOL    HW279932  11.353  10.715   0.490 -0.1567  1.2787 -1.0947
24273SOL     OW79933   2.116   3.703   2.077  0.4581 -0.7938 -0.3802
24273SOL    HW179934   2.199   3.748   2.093 -0.6172  0.7999  1.0888
24273SOL    HW279935   2.055   3.773   2.051 -0.3264 -2.0014 -2.0361
24274SOL     OW79936   1.182   1.774   8.435 -0.8478  0.0363 -0.2218
24274SOL    HW179937   1.088   1.756   8.443 -0.8907  0.2986 -0.1225
24274SOL    HW279938   1.225   1.700   8.477 -1.0075 -0.1953 -0.4671
24275SOL     OW79939   1.621  12.237   8.355 -0.6541  0.3340 -0.2696
24275SOL    HW179940   1.652  12.208   8.441  0.7273  1.3276 -0.3960
24275SOL    HW279941   1.696  12.220   8.297 -0.9809  1.1835 -0.9482
24276SOL     OW79942   5.126   2.414   1.308  0.0811  0.3052  0.3485
24276SOL    HW179943   5.116   2.322   1.284  1.1718  0.0019  0.9966
24276SOL    HW279944   5.094   2.462   1.232  0.2970 -0.6215 -0.3468
24277SOL     OW79945   6.682  11.181   8.470  0.0000 -0.1680  0.1667
24277SOL    HW179946   6.703  11.113   8.405 -0.0660 -1.0080  1.0026
24277SOL    HW279947   6.586  11.180   8.475 -0.0163  0.2275 -0.0686
24278SOL     OW79948   4.764   9.338   0.998  0.0778 -0.3604 -0.0265
24278SOL    HW179949   4.682   9.343   1.048  1.0767  2.4218  1.5992
24278SOL    HW279950   4.787   9.245   0.998 -2.3112 -1.0259  0.7273
24279SOL     OW79951   4.280  11.001   8.375 -0.0944  0.1723 -0.1881
24279SOL    HW179952   4.371  11.000   8.348  0.2443  2.0110  0.7191
24279SOL    HW279953   4.244  11.081   8.336 -0.7400  0.5715  1.1723
24280SOL     OW79954   1.851   3.814   6.913 -0.1652  0.2781 -0.0579
24280SOL    HW179955   1.817   3.726   6.926  1.6821 -0.5800 -0.6344
24280SOL    HW279956   1.819   3.864   6.988 -1.0914 -0.9272  0.3702
24281SOL     OW79957   8.792   6.338  10.810 -0.5685  0.8033  0.7013
24281SOL    HW179958   8.786   6.289  10.892 -1.1379  2.0972  1.4660
24281SOL    HW279959   8.886   6.346  10.793 -0.4509 -1.4737 -0.0589
24282SOL     OW79960   6.376   1.963  12.396  0.2529 -0.1679  0.6236
24282SOL    HW179961   6.432   1.943  12.471  0.1690  1.1079  1.0444
24282SOL    HW279962   6.291   1.982  12.434  0.1975  0.4480  0.2044
24283SOL     OW79963  10.717   8.129   4.317  0.6137  0.0366  0.2465
24283SOL    HW179964  10.654   8.083   4.373 -0.2646  0.1148 -0.6523
24283SOL    HW279965  10.663   8.186   4.262  1.4866  0.2433 -0.4148
24284SOL     OW79966   6.858   1.670   4.067  0.8641 -0.3533 -0.3027
24284SOL    HW179967   6.931   1.615   4.094 -0.2447 -1.5976  0.3031
24284SOL    HW279968   6.799   1.611   4.021  0.5804  0.7900 -1.4815
24285SOL     OW79969   7.196  12.939   9.987  0.5092  0.3154  0.6306
24285SOL    HW179970   7.102  12.936   9.999  0.6381  0.6982  1.9872
24285SOL    HW279971   7.231  12.939  10.076  1.7994 -0.0914  0.1494
24286SOL     OW79972   4.022   1.932   3.841  0.2195  0.2574  0.3760
24286SOL    HW179973   3.973   1.926   3.759  0.2646  1.4585  0.2525
24286SOL    HW279974   3.955   1.934   3.909  0.1877 -1.1104  0.4181
24287SOL     OW79975   9.031   6.833   1.032  0.1862  0.0506 -0.6093
24287SOL    HW179976   9.001   6.773   1.100 -0.4192  1.5310  0.4805
24287SOL    HW279977   9.123   6.810   1.018  0.1301 -0.7246  0.2103
24288SOL     OW79978   6.448   9.338   6.219  0.2820  0.2620 -0.2792
24288SOL    HW179979   6.408   9.251   6.214  0.0695  0.4156 -1.3745
24288SOL    HW279980   6.401   9.381   6.290  2.7702 -1.6898  2.8195
24289SOL     OW79981   2.673   0.687   7.536  0.1217 -0.1292 -0.3818
24289SOL    HW179982   2.742   0.633   7.574  0.9712  1.6152  0.6575
24289SOL    HW279983   2.609   0.623   7.503  0.0663 -1.8354  2.5912
24290SOL     OW79984   2.186  12.928   1.464 -0.3498 -0.7041  0.5750
24290SOL    HW179985   2.217  12.901   1.550 -1.7019 -0.8379  1.0429
24290SOL    HW279986   2.264  12.924   1.408  0.7011  0.1019  1.9349
24291SOL     OW79987   1.476   7.550   4.698  0.3025 -0.2794 -0.4046
24291SOL    HW179988   1.526   7.526   4.620 -1.8673 -1.1452 -1.6086
24291SOL    HW279989   1.425   7.626   4.671  0.1335 -0.0766  0.4557
24292SOL     OW79990   5.490   6.730   4.965 -0.2689 -0.2397  0.1933
24292SOL    HW179991   5.541   6.791   4.911  0.9455 -1.3564  0.0162
24292SOL    HW279992   5.514   6.643   4.932 -0.5235 -0.8999  1.6615
24293SOL     OW79993   5.786   7.811   9.524 -0.1424  1.0297 -0.0453
24293SOL    HW179994   5.825   7.810   9.436 -0.9122  2.0870 -0.4307
24293SOL    HW279995   5.839   7.874   9.573  0.4609  0.2296  0.3455
24294SOL     OW79996   4.768   7.369   3.289  0.1952  0.4106 -0.5777
24294SOL    HW179997   4.680   7.405   3.277  0.3224  0.3457 -1.8455
24294SOL    HW279998   4.755   7.294   3.347 -0.7011 -0.0744 -1.3897
24295SOL     OW79999  12.375  10.920   2.211 -0.2334 -0.1251  0.1871
24295SOL    HW180000  12.288  10.881   2.215 -0.5122  0.5906  1.2938
24295SOL    HW280001  12.396  10.943   2.301  0.9543  0.0531 -0.1104
24296SOL     OW80002   5.444  10.330   1.929  0.1769  0.0734  0.2074
24296SOL    HW180003   5.407  10.375   2.005  2.1155 -0.1453  1.3312
24296SOL    HW280004   5.507  10.392   1.892  0.5083 -0.4862 -0.1895
24297SOL     OW80005  12.553   2.230   8.834 -0.1770  0.4192  0.4422
24297SOL    HW180006  12.629   2.282   8.808 -1.8879  3.3586  0.8619
24297SOL    HW280007  12.512   2.205   8.751 -0.0305  0.8719  0.2273
24298SOL     OW80008   3.287  10.595   6.001  0.5980 -0.0208 -0.7537
24298SOL    HW180009   3.335  10.535   5.943  0.5026 -1.0549  0.1849
24298SOL    HW280010   3.350  10.615   6.071  0.0471 -0.4578 -0.1268
24299SOL     OW80011   5.243   4.030   8.162 -0.1362 -0.4105  0.7154
24299SOL    HW180012   5.255   3.952   8.108  1.0449  1.2289 -1.5647
24299SOL    HW280013   5.319   4.030   8.220  1.1023  0.1364 -0.8225
24300SOL     OW80014   7.326  10.865   0.731  0.0904 -0.6091 -0.2864
24300SOL    HW180015   7.391  10.933   0.748  2.7256 -2.5688 -1.7886
24300SOL    HW280016   7.306  10.873   0.638 -1.5146 -0.3630  0.0504
24301SOL     OW80017   3.066  10.725   3.867 -0.1303 -0.0658 -0.0011
24301SOL    HW180018   3.015  10.660   3.916  0.0864 -1.1569 -1.1820
24301SOL    HW280019   3.020  10.734   3.784  0.5851  0.3120 -0.3603
24302SOL     OW80020  12.523   3.847   0.465  0.4732  0.0114  0.5359
24302SOL    HW180021  12.510   3.847   0.560 -1.9703 -2.2461  0.3332
24302SOL    HW280022  12.513   3.755   0.440 -0.9848  0.7943 -2.1150
24303SOL     OW80023  10.207  12.110   4.181  0.4423 -0.3783  0.4518
24303SOL    HW180024  10.130  12.163   4.163  0.3111 -0.4913  0.6704
24303SOL    HW280025  10.202  12.090   4.275  0.5040 -0.7512  0.3789
24304SOL     OW80026  10.460  10.082   9.485  0.3867 -0.2941 -0.1838
24304SOL    HW180027  10.471  10.176   9.471  1.8768 -0.3802  0.2373
24304SOL    HW280028  10.399  10.075   9.558 -0.1571  0.3333 -0.5721
24305SOL     OW80029   5.343  10.020   0.715 -0.0723 -0.1104  0.0326
24305SOL    HW180030   5.413  10.034   0.780  0.1652 -1.5125  0.1082
24305SOL    HW280031   5.268   9.993   0.767 -0.7040  1.3941 -0.0501
24306SOL     OW80032   5.265   7.962   2.637  0.1334  0.4848  0.0475
24306SOL    HW180033   5.242   8.054   2.634 -0.8362  0.3598  1.9576
24306SOL    HW280034   5.295   7.948   2.727 -1.0832 -1.3307  0.2224
24307SOL     OW80035   6.890  12.157  10.284 -0.2016 -0.0609  0.1905
24307SOL    HW180036   6.872  12.135  10.192 -2.7443  2.2996 -0.0116
24307SOL    HW280037   6.983  12.140  10.295  0.3672  0.2831 -3.0548
24308SOL     OW80038   0.691   2.134   7.403  0.4859 -0.2561 -0.8225
24308SOL    HW180039   0.645   2.063   7.359  0.9548 -1.0575 -0.0556
24308SOL    HW280040   0.686   2.112   7.496  1.1923  0.3699 -0.6269
24309SOL     OW80041  10.306   4.302  11.647 -0.5965  0.0689  0.4480
24309SOL    HW180042  10.341   4.213  11.656  1.8490  0.9315  0.1745
24309SOL    HW280043  10.258   4.318  11.729 -1.0507 -1.4527  0.5108
24310SOL     OW80044   1.566   4.655   3.717 -0.0128 -0.1225  0.4603
24310SOL    HW180045   1.654   4.691   3.731  0.2447 -0.1413 -0.9778
24310SOL    HW280046   1.581   4.561   3.708 -0.2900 -0.2222  1.0156
24311SOL     OW80047   3.769   6.232  11.307  0.4167 -0.5379  0.1669
24311SOL    HW180048   3.804   6.313  11.269 -0.8696 -0.6052 -1.2720
24311SOL    HW280049   3.838   6.167  11.295  0.7835 -0.0744 -0.2883
24312SOL     OW80050   3.323  12.361   3.079  0.2303  0.0042  0.6188
24312SOL    HW180051   3.325  12.427   3.148  1.0908  0.9915 -0.3188
24312SOL    HW280052   3.244  12.310   3.097 -0.5366  1.3817  1.2802
24313SOL     OW80053   9.366   7.610  12.779  0.0893 -0.3002  0.2205
24313SOL    HW180054   9.341   7.667  12.852 -0.6159 -0.2816 -0.0275
24313SOL    HW280055   9.344   7.661  12.701 -4.1117 -2.2265 -0.1346
24314SOL     OW80056  12.616   2.830   5.299  0.2309 -0.3223 -0.4666
24314SOL    HW180057  12.522   2.819   5.287  0.2263 -1.3720  0.3543
24314SOL    HW280058  12.652   2.832   5.211 -0.4710 -0.8682 -0.7745
24315SOL     OW80059   8.125   2.289   9.791  0.8546  0.4448 -0.0333
24315SOL    HW180060   8.081   2.211   9.827  0.0173  2.0355  2.6862
24315SOL    HW280061   8.055   2.342   9.755  0.7825  1.7996  1.9600
24316SOL     OW80062   9.459  11.944  12.448 -0.0978  0.5788  0.1696
24316SOL    HW180063   9.407  11.925  12.527 -0.1523  0.6964  0.1627
24316SOL    HW280064   9.423  12.026  12.415 -1.6487 -0.6201 -1.2900
24317SOL     OW80065   5.321   2.013   2.931  0.4992  0.4766 -0.1194
24317SOL    HW180066   5.257   2.083   2.921 -0.5575 -0.2239  1.4438
24317SOL    HW280067   5.335   2.006   3.025  1.3829 -0.7180 -0.3116
24318SOL     OW80068   7.400   6.292   9.562  0.8020  0.2766  0.3027
24318SOL    HW180069   7.426   6.358   9.498  0.2191  0.9727  0.7667
24318SOL    HW280070   7.304   6.298   9.565  0.5779 -1.7818 -0.9053
24319SOL     OW80071   6.375   9.026  11.586 -0.2516  0.3975 -0.0675
24319SOL    HW180072   6.415   9.057  11.504  0.1582  0.3351  0.1059
24319SOL    HW280073   6.312   8.960  11.558 -0.4016  0.6627 -0.3651
24320SOL     OW80074   0.208  12.187  10.528  0.2988 -0.1254 -0.3559
24320SOL    HW180075   0.252  12.251  10.472  1.2781  0.5745  1.1379
24320SOL    HW280076   0.271  12.116  10.538  1.0809  0.7842  1.6223
24321SOL     OW80077  12.820   7.259   4.717  0.4208 -0.2602  0.1026
24321SOL    HW180078  12.762   7.335   4.711 -0.4360 -0.9091  0.0728
24321SOL    HW280079  12.908   7.297   4.714  0.0113  0.7054 -0.2352
24322SOL     OW80080   2.842   5.484   8.704  0.5069 -0.6727  0.1091
24322SOL    HW180081   2.915   5.443   8.750  1.6873  0.3832 -0.7335
24322SOL    HW280082   2.842   5.443   8.617  1.3974  0.7131 -0.5778
24323SOL     OW80083  11.084   8.727  10.912  0.5756 -0.1811 -0.0992
24323SOL    HW180084  11.077   8.790  10.983  1.7532 -0.3195  0.1528
24323SOL    HW280085  11.173   8.737  10.879  0.4982 -1.1075 -0.6309
24324SOL     OW80086   3.337   5.268   0.115 -0.2180  0.2155  0.2793
24324SOL    HW180087   3.430   5.273   0.093 -0.2980 -0.0704 -0.1328
24324SOL    HW280088   3.293   5.265   0.030 -0.6582  1.2349  0.4510
24325SOL     OW80089   1.776   1.184  10.572 -0.0751 -0.3599 -0.0186
24325SOL    HW180090   1.727   1.263  10.550 -0.1355 -0.1923  0.6846
24325SOL    HW280091   1.826   1.207  10.650  0.6724 -0.7176 -0.3877
24326SOL     OW80092  10.219   1.238   0.692 -0.1659 -0.0762  0.2007
24326SOL    HW180093  10.301   1.190   0.693 -0.8020 -1.1772  0.7320
24326SOL    HW280094  10.200   1.257   0.784  0.3628  1.7504 -0.0132
24327SOL     OW80095   2.966  10.860  12.461 -0.0439  0.2012  0.3526
24327SOL    HW180096   3.054  10.823  12.451  0.6558  1.5556  1.1105
24327SOL    HW280097   2.958  10.880  12.554 -0.3782  1.8206  0.0233
24328SOL     OW80098   1.344   3.041   1.963 -1.1152  0.0026 -0.2688
24328SOL    HW180099   1.269   2.984   1.947 -0.3574 -0.6612 -1.6885
24328SOL    HW280100   1.306   3.126   1.983 -2.2537 -0.7194  0.7690
24329SOL     OW80101   9.374   2.338   9.279 -0.0368 -0.6759 -0.4396
24329SOL    HW180102   9.409   2.359   9.193  0.2379 -2.0159 -0.6911
24329SOL    HW280103   9.380   2.419   9.329  0.6346 -0.1128 -1.4082
24330SOL     OW80104   3.631   4.823  12.533  0.2030 -0.3041 -0.0189
24330SOL    HW180105   3.617   4.902  12.481 -0.7212 -0.9481 -0.7855
24330SOL    HW280106   3.641   4.753  12.468 -0.1121 -0.9880  0.6596
24331SOL     OW80107   5.743   1.142   8.703 -0.7909  0.4779  0.7625
24331SOL    HW180108   5.684   1.213   8.677 -1.3125 -0.0909  0.4014
24331SOL    HW280109   5.825   1.161   8.657 -1.1377  0.4764  0.1488
24332SOL     OW80110   1.034   6.488   8.710  0.4827  0.0715 -0.2655
24332SOL    HW180111   1.090   6.555   8.751 -0.0531  0.7204 -0.5721
24332SOL    HW280112   1.048   6.410   8.762 -0.0591  0.8327  1.0742
24333SOL     OW80113   8.587   7.415   8.147 -0.0540  0.2949 -0.1414
24333SOL    HW180114   8.634   7.347   8.194  1.0963  1.7383  0.9138
24333SOL    HW280115   8.592   7.389   8.055  0.0474 -1.1878  0.2570
24334SOL     OW80116   0.967  11.069   5.567 -0.0926  0.6542  0.2385
24334SOL    HW180117   0.892  11.122   5.540  0.2791  0.3764 -1.4642
24334SOL    HW280118   0.932  10.980   5.572  0.0272  0.5809 -0.1870
24335SOL     OW80119   4.729  11.111   1.661  0.5307 -0.4412 -0.9760
24335SOL    HW180120   4.758  11.037   1.715  0.0975  0.0048 -0.1075
24335SOL    HW280121   4.710  11.180   1.724 -1.5662 -0.4252 -1.5422
24336SOL     OW80122   8.752   9.360   9.387  0.2904  0.1419 -0.1293
24336SOL    HW180123   8.695   9.437   9.386  0.8185  0.5818 -2.5790
24336SOL    HW280124   8.839   9.395   9.405  0.2088 -0.2228  1.0957
24337SOL     OW80125  10.480   9.462   9.586  0.3209  0.4377 -0.3274
24337SOL    HW180126  10.556   9.452   9.529 -0.7682  0.0210 -1.7628
24337SOL    HW280127  10.475   9.556   9.603 -0.6936  0.9264 -2.9275
24338SOL     OW80128  11.377   4.030   2.244 -0.5989 -0.2431  0.1133
24338SOL    HW180129  11.421   4.078   2.174 -0.7018  0.0746  0.2615
24338SOL    HW280130  11.356   3.945   2.207  0.6998 -0.6331  0.2196
24339SOL     OW80131   7.164   3.181   7.809  0.0044  0.1792  0.6623
24339SOL    HW180132   7.090   3.121   7.811 -1.1671  1.5159 -0.6214
24339SOL    HW280133   7.229   3.141   7.867 -1.9254 -0.7313  2.2995
24340SOL     OW80134  12.116   7.970   9.773 -0.0562 -0.0560 -0.5251
24340SOL    HW180135  12.207   7.993   9.793  0.1198 -0.7751 -0.4767
24340SOL    HW280136  12.065   8.009   9.844  0.1526  0.7850 -0.8212
24341SOL     OW80137  11.312  10.944   6.684 -0.4178 -0.4417 -0.2257
24341SOL    HW180138  11.407  10.943   6.672 -0.6158 -1.6226 -2.1206
24341SOL    HW280139  11.295  10.875   6.748  0.0249  0.1305  0.5258
24342SOL     OW80140   4.603   2.579   2.015 -0.4971  0.0498  0.2321
24342SOL    HW180141   4.607   2.560   2.109  1.6264  0.2149  0.2170
24342SOL    HW280142   4.548   2.657   2.009 -1.4848 -0.5450  1.2312
24343SOL     OW80143  10.285  11.352   3.053 -0.2022  0.4415 -0.3550
24343SOL    HW180144  10.201  11.352   3.008 -0.9449  1.7594  0.9599
24343SOL    HW280145  10.274  11.414   3.125  0.7337 -1.8848  1.9684
24344SOL     OW80146   4.048  10.866  11.357 -0.0528  0.3119  0.4780
24344SOL    HW180147   4.134  10.906  11.361 -0.2398  0.6120  1.8971
24344SOL    HW280148   4.015  10.890  11.270  0.4936  1.8780  0.6694
24345SOL     OW80149   2.384   0.462   8.986 -0.0363 -0.0321 -0.2034
24345SOL    HW180150   2.297   0.422   8.982 -0.0404 -0.0582  0.1561
24345SOL    HW280151   2.369   0.549   9.021 -0.3626  1.2808 -3.2699
24346SOL     OW80152   7.606  11.741  11.601  0.6879 -0.2694  0.1975
24346SOL    HW180153   7.614  11.750  11.506  1.1085  0.8901  0.3246
24346SOL    HW280154   7.679  11.684  11.626 -0.2049 -1.6833 -0.3080
24347SOL     OW80155   4.854   2.939   5.928  0.6206 -0.2290 -0.4006
24347SOL    HW180156   4.772   2.970   5.967  1.5220  1.4608  0.2471
24347SOL    HW280157   4.856   2.979   5.841  1.2464  0.6233 -0.0042
24348SOL     OW80158   7.620   5.656   8.115 -0.3848 -0.0937 -0.2646
24348SOL    HW180159   7.708   5.682   8.145 -0.5017 -1.6135  1.6189
24348SOL    HW280160   7.634   5.577   8.063 -0.5781  0.0476 -0.5332
24349SOL     OW80161  10.205   3.088   1.763  0.3565  0.0525  0.0576
24349SOL    HW180162  10.222   2.994   1.773 -0.9307 -0.0559  1.7063
24349SOL    HW280163  10.138   3.107   1.829 -1.4174  1.6012 -2.0534
24350SOL     OW80164   4.269   6.205   1.178  0.2325 -0.8417 -0.0486
24350SOL    HW180165   4.286   6.127   1.124  0.5630 -0.6841 -0.1722
24350SOL    HW280166   4.286   6.175   1.268  0.9324 -0.7595 -0.1452
24351SOL     OW80167   9.558   1.882   1.928  0.2494 -0.5613 -0.1969
24351SOL    HW180168   9.558   1.793   1.892 -0.4535 -1.2769  1.4849
24351SOL    HW280169   9.528   1.937   1.855 -1.9279 -2.0600 -0.5350
24352SOL     OW80170  12.210  12.550   2.587 -0.7636  0.2870  0.0984
24352SOL    HW180171  12.162  12.619   2.542 -0.8361 -0.7534 -1.5190
24352SOL    HW280172  12.143  12.501   2.634 -0.8258  0.7746  0.5290
24353SOL     OW80173  10.431  11.022   4.637  0.4343 -0.0593 -0.2175
24353SOL    HW180174  10.496  11.002   4.569  1.5125  0.9179  0.4746
24353SOL    HW280175  10.347  11.001   4.597  1.1072 -0.4763 -1.4814
24354SOL     OW80176   6.558  11.869   6.873  0.2115 -0.1422 -0.3870
24354SOL    HW180177   6.578  11.776   6.872  0.1981 -0.1516 -0.0274
24354SOL    HW280178   6.593  11.901   6.956 -0.9858 -0.1026  0.1193
24355SOL     OW80179   4.433   4.766   8.121  0.8246 -0.4073  0.4603
24355SOL    HW180180   4.439   4.672   8.106  0.2390 -0.5388  0.9902
24355SOL    HW280181   4.377   4.798   8.050  0.3293 -0.5970  0.7557
24356SOL     OW80182   4.749   5.109   5.849 -0.2856  0.0434 -0.1888
24356SOL    HW180183   4.834   5.121   5.891 -0.4382 -0.0660  0.1557
24356SOL    HW280184   4.693   5.073   5.918 -1.0341  1.5710  0.0330
24357SOL     OW80185   7.212  10.275   0.743  0.0114  0.1409 -0.0454
24357SOL    HW180186   7.155  10.352   0.749 -1.4881 -0.7871 -1.5746
24357SOL    HW280187   7.182  10.217   0.813 -1.7478 -0.7943 -1.4798
24358SOL     OW80188   9.959  10.964  10.439 -0.1894 -0.0342  0.1172
24358SOL    HW180189   9.988  10.899  10.503 -1.0556  0.0323  0.5896
24358SOL    HW280190   9.864  10.966  10.448 -0.2451  0.6449 -0.5282
24359SOL     OW80191   3.437   0.287   9.338  0.0958  0.2451 -0.1925
24359SOL    HW180192   3.448   0.194   9.320  3.8879 -0.1387  2.7968
24359SOL    HW280193   3.357   0.293   9.390 -1.1450 -0.9933 -1.8596
24360SOL     OW80194   5.203   4.045   9.336  0.1923  0.2580  0.4407
24360SOL    HW180195   5.257   4.119   9.364  1.3079 -0.2415 -0.3041
24360SOL    HW280196   5.132   4.084   9.285  0.7900  0.8279  0.0257
24361SOL     OW80197   0.294   2.430   5.832 -0.4357  0.3774  0.2334
24361SOL    HW180198   0.302   2.352   5.887 -1.0104 -0.6024 -1.0125
24361SOL    HW280199   0.248   2.399   5.754  0.4263  1.6952 -0.8383
24362SOL     OW80200   8.738   8.216   5.400  0.0468  0.2721 -0.8582
24362SOL    HW180201   8.797   8.285   5.431 -1.1803  1.7970 -1.7682
24362SOL    HW280202   8.789   8.170   5.333  0.5677  0.8792 -0.8845
24363SOL     OW80203   8.639   7.019   2.329  0.3509  0.3240  0.0557
24363SOL    HW180204   8.554   6.978   2.342  0.7260 -0.2173  0.8842
24363SOL    HW280205   8.699   6.969   2.384  0.7251  2.3401  1.5931
24364SOL     OW80206  12.060   1.245   8.467 -0.4271  0.1001 -0.0216
24364SOL    HW180207  12.067   1.149   8.471 -0.7020 -0.2828 -4.0784
24364SOL    HW280208  12.149   1.277   8.482 -0.0233 -0.9390 -0.1152
24365SOL     OW80209   7.996  10.230   0.447  0.3670 -0.6475 -0.1523
24365SOL    HW180210   8.014  10.252   0.538  0.0563 -2.7236  0.4480
24365SOL    HW280211   7.955  10.309   0.411 -2.2575 -0.7666  2.2950
24366SOL     OW80212   9.482   5.367   5.602 -0.0016  0.1019 -0.1639
24366SOL    HW180213   9.426   5.304   5.556  0.7338 -0.6226 -0.0897
24366SOL    HW280214   9.565   5.364   5.554 -0.1094  1.3991 -0.4682
24367SOL     OW80215   4.412   9.462   8.620 -0.2396  0.4926  0.5062
24367SOL    HW180216   4.425   9.449   8.526 -1.1825  1.4830  0.2165
24367SOL    HW280217   4.434   9.378   8.659 -2.1454 -0.7248 -0.8592
24368SOL     OW80218   3.618   0.072  10.199 -0.2844 -0.4871  0.6698
24368SOL    HW180219   3.594   0.165  10.194 -0.8834 -0.6886 -0.4156
24368SOL    HW280220   3.568   0.039  10.274 -1.0772 -0.2081  0.2840
24369SOL     OW80221  11.246   8.015  10.332 -0.0618 -0.0808 -0.4779
24369SOL    HW180222  11.225   7.944  10.271  1.2699 -0.5712 -0.3958
24369SOL    HW280223  11.342   8.020  10.331 -0.0966  1.2104  0.1043
24370SOL     OW80224   3.786   7.879   6.965 -0.3078  0.2488  0.6092
24370SOL    HW180225   3.762   7.900   7.055 -1.2332 -1.7713  0.8797
24370SOL    HW280226   3.743   7.947   6.912  2.1167  2.8810  1.7079
24371SOL     OW80227   4.330   4.486   8.679 -0.0794 -0.1526  0.5530
24371SOL    HW180228   4.349   4.579   8.687 -0.6389 -0.0723  0.9712
24371SOL    HW280229   4.245   4.481   8.636  0.0510 -0.4791  0.3194
24372SOL     OW80230   9.234  12.939  10.175 -0.2902  0.1624 -0.2910
24372SOL    HW180231   9.252  12.845  10.170 -0.1696  0.1933 -0.4452
24372SOL    HW280232   9.202  12.953  10.264  1.5198  0.2855  0.3796
24373SOL     OW80233   9.675  11.924   0.785 -0.0616 -0.1496  0.2070
24373SOL    HW180234   9.689  12.006   0.833 -0.4322 -1.2116  2.2374
24373SOL    HW280235   9.736  11.862   0.825 -0.1446 -1.0089 -0.9542
24374SOL     OW80236   8.331   2.820  11.514 -0.5932 -0.1628 -0.1181
24374SOL    HW180237   8.377   2.884  11.459 -1.2868 -0.0345 -0.5646
24374SOL    HW280238   8.372   2.828  11.600  0.4430 -0.2911 -0.5864
24375SOL     OW80239   0.480  10.223   8.516 -0.3282 -0.2461  0.1626
24375SOL    HW180240   0.504  10.166   8.443 -0.1437  0.4880 -0.3595
24375SOL    HW280241   0.421  10.169   8.570 -1.0758 -0.5557 -0.9262
24376SOL     OW80242   4.077   6.870  10.014  0.2693  0.1721 -0.2433
24376SOL    HW180243   4.173   6.873  10.014  0.3150 -0.9599 -0.3513
24376SOL    HW280244   4.053   6.906   9.928  0.5657  1.0394  0.0276
24377SOL     OW80245   9.455   3.691   3.232  0.2249 -0.2394  0.3765
24377SOL    HW180246   9.453   3.703   3.327 -2.0400 -0.2603  0.3872
24377SOL    HW280247   9.441   3.778   3.196 -0.0969 -0.4003  0.1013
24378SOL     OW80248   5.499   1.763   4.559  0.1554  0.3296  0.3053
24378SOL    HW180249   5.432   1.705   4.596 -2.0246  2.3497 -0.2438
24378SOL    HW280250   5.556   1.704   4.509 -1.4354 -1.4687  0.4750
24379SOL     OW80251   0.808   3.571   4.306  0.4157 -0.1797 -0.2091
24379SOL    HW180252   0.836   3.505   4.369 -2.1707  1.7200  3.2503
24379SOL    HW280253   0.725   3.538   4.273  0.0734  0.4282  0.0399
24380SOL     OW80254   4.919   8.610   9.427 -0.5211 -0.6274  0.2582
24380SOL    HW180255   4.964   8.668   9.489  0.6343 -0.4217 -0.7373
24380SOL    HW280256   4.832   8.597   9.466  0.1104 -0.3953  1.8431
24381SOL     OW80257   0.611   2.749   5.596 -0.4365  0.0575  0.6545
24381SOL    HW180258   0.662   2.678   5.557 -0.5197  0.4924 -0.2801
24381SOL    HW280259   0.638   2.751   5.688  0.2464 -0.5782  0.4726
24382SOL     OW80260   2.309  10.273  11.895 -0.6658  0.3332 -0.5339
24382SOL    HW180261   2.239  10.257  11.959 -0.1379  0.0158 -0.0168
24382SOL    HW280262   2.345  10.358  11.920 -0.1769  0.0140 -0.1294
24383SOL     OW80263   5.670   6.796  10.715 -0.1266 -0.3818 -0.3186
24383SOL    HW180264   5.623   6.767  10.636  0.8049 -1.1864 -0.5904
24383SOL    HW280265   5.760   6.766  10.702  0.3328  0.6016  0.4818
24384SOL     OW80266   7.223   0.755   3.380 -0.0703 -0.3044  0.3195
24384SOL    HW180267   7.318   0.755   3.393 -0.1953  0.9125  1.5645
24384SOL    HW280268   7.202   0.667   3.351  1.4084 -0.6872  0.3552
24385SOL     OW80269  10.290   5.378   5.465 -0.0751  0.4374 -0.7961
24385SOL    HW180270  10.352   5.308   5.484  0.2911  1.0442  0.3273
24385SOL    HW280271  10.207   5.333   5.449  0.3122 -0.2844 -0.8200
24386SOL     OW80272   0.011   0.774   0.542  0.2149  0.8272 -0.8370
24386SOL    HW180273   0.069   0.845   0.570  0.8777  0.5206 -1.3927
24386SOL    HW280274   0.033   0.701   0.599 -0.1580  0.9304 -0.5560
24387SOL     OW80275   6.851   5.293   4.835 -0.0629  0.0706 -0.0611
24387SOL    HW180276   6.827   5.288   4.928  1.3542  0.9697  0.3842
24387SOL    HW280277   6.898   5.211   4.818  0.3864  0.2543  0.2542
24388SOL     OW80278   0.179   2.299   8.696 -0.4896  0.3566  0.4462
24388SOL    HW180279   0.141   2.326   8.779 -0.8300  0.3261  0.3023
24388SOL    HW280280   0.148   2.209   8.684 -0.6599  0.4521  0.1603
24389SOL     OW80281   0.518   0.423   1.681 -0.9228 -0.3326  0.1150
24389SOL    HW180282   0.441   0.383   1.642 -0.6938  1.0954 -1.9739
24389SOL    HW280283   0.572   0.450   1.607  0.6061  0.5991  1.4785
24390SOL     OW80284   6.260   3.243  11.386 -0.4910  0.4606  0.0761
24390SOL    HW180285   6.322   3.232  11.313  0.2528  1.6676  0.4937
24390SOL    HW280286   6.309   3.215  11.463 -1.0913 -0.2856  0.1940
24391SOL     OW80287   2.465   1.307   7.201  0.6573 -0.1751  0.2751
24391SOL    HW180288   2.556   1.315   7.173  0.5278 -0.1776 -0.1473
24391SOL    HW280289   2.416   1.293   7.120  0.2678 -0.0585  0.4897
24392SOL     OW80290  11.203  11.784  10.524  0.7225 -0.2289 -0.6373
24392SOL    HW180291  11.257  11.819  10.595 -1.2872  0.7382  0.5014
24392SOL    HW280292  11.169  11.862  10.480  1.6969 -0.8136 -2.5644
24393SOL     OW80293  11.708   2.004  12.347  0.3132  0.0141 -0.0205
24393SOL    HW180294  11.781   2.053  12.385  0.2617  0.6487 -0.7167
24393SOL    HW280295  11.750   1.935  12.295  0.4249  0.2908 -0.3056
24394SOL     OW80296   2.660   5.075   0.456  0.2656  0.2404  0.5294
24394SOL    HW180297   2.645   5.116   0.541 -0.9260  0.1306  0.3890
24394SOL    HW280298   2.748   5.104   0.430  0.7716  0.0279  1.9245
24395SOL     OW80299   3.350   7.954   2.020 -0.0454  0.4298 -0.3760
24395SOL    HW180300   3.334   8.037   1.974 -0.6675 -0.1839 -1.3020
24395SOL    HW280301   3.357   7.889   1.950 -0.6690 -0.4754  0.3796
24396SOL     OW80302   1.617   7.506  11.091  0.1622 -0.6832  0.3078
24396SOL    HW180303   1.550   7.438  11.087 -0.5670  0.0513 -0.1906
24396SOL    HW280304   1.677   7.485  11.020  0.6411 -1.5097  0.9389
24397SOL     OW80305   9.419   3.201   3.803 -0.4404 -0.2517  0.5620
24397SOL    HW180306   9.365   3.136   3.758 -0.7668 -0.3015  1.0206
24397SOL    HW280307   9.495   3.213   3.746 -0.0254 -1.5533  0.8063
24398SOL     OW80308  10.352   4.634   0.789  0.0324 -0.4763  0.5072
24398SOL    HW180309  10.317   4.722   0.777 -0.9152 -0.5948  2.0237
24398SOL    HW280310  10.292   4.577   0.740 -0.9635 -0.5060  1.6980
24399SOL     OW80311   8.985   5.784   6.479  0.1244  0.6821  0.0596
24399SOL    HW180312   9.057   5.798   6.541  0.8300  0.9750 -0.8143
24399SOL    HW280313   8.937   5.708   6.514  0.9243  0.4148  0.5875
24400SOL     OW80314   4.810   9.632  10.149  0.1940  0.2319 -0.0673
24400SOL    HW180315   4.742   9.698  10.163  0.3248  0.4554 -0.4694
24400SOL    HW280316   4.857   9.663  10.072  0.5066 -0.1254 -0.0189
24401SOL     OW80317   6.758   3.310   6.749 -0.2993  0.4697 -0.6924
24401SOL    HW180318   6.791   3.221   6.735 -1.0951  0.2310 -1.1533
24401SOL    HW280319   6.834   3.366   6.738  0.1999 -0.1503 -0.4787
24402SOL     OW80320   2.324   0.575   3.182 -0.3108  0.2976 -0.0512
24402SOL    HW180321   2.328   0.652   3.125 -1.0581  0.1021 -0.3772
24402SOL    HW280322   2.354   0.607   3.267  1.4857  0.4351 -0.6924
24403SOL     OW80323   8.141   6.541   8.217  0.8293  0.1737 -0.2707
24403SOL    HW180324   8.116   6.450   8.200  0.1390  0.2208  0.4440
24403SOL    HW280325   8.063   6.580   8.257  0.7360  1.3789 -1.5576
24404SOL     OW80326   5.736   6.919   8.564  1.1257  0.0133  0.4329
24404SOL    HW180327   5.675   6.977   8.608  0.0612  0.8284 -1.9674
24404SOL    HW280328   5.806   6.976   8.533  1.6232 -0.4698  0.6392
24405SOL     OW80329   8.214   0.425   3.786  0.4716  0.0811  0.1458
24405SOL    HW180330   8.165   0.364   3.841  0.6101  0.0732  0.2624
24405SOL    HW280331   8.247   0.492   3.846 -0.3846  0.7441 -0.1079
24406SOL     OW80332   8.277   5.132   5.168 -0.5638  0.0735 -0.0973
24406SOL    HW180333   8.342   5.118   5.236 -1.5768  0.7076  1.0356
24406SOL    HW280334   8.234   5.214   5.192 -1.8722 -0.3944 -0.7448
24407SOL     OW80335   1.515   9.219  12.776  0.1017  0.1884 -0.0105
24407SOL    HW180336   1.455   9.147  12.757 -0.9289  0.9943  0.1028
24407SOL    HW280337   1.578   9.182  12.838  0.5797 -1.0762 -1.1966
24408SOL     OW80338   0.278  12.295  11.396 -0.3058 -0.5029  0.1383
24408SOL    HW180339   0.341  12.259  11.334  0.0306 -1.1153  0.8129
24408SOL    HW280340   0.225  12.356  11.345  1.6655  1.0346 -0.1791
24409SOL     OW80341   2.057  11.162   5.641  0.3483 -0.1453  0.4934
24409SOL    HW180342   2.103  11.202   5.567  0.3446  1.0126  1.0948
24409SOL    HW280343   1.994  11.229   5.669 -0.9160 -1.2581  0.4222
24410SOL     OW80344   9.251   3.701  12.471 -0.0327 -0.3141 -0.0231
24410SOL    HW180345   9.208   3.687  12.387 -1.2198 -1.4836  0.7372
24410SOL    HW280346   9.344   3.691  12.452  0.0159  2.3179 -1.7153
24411SOL     OW80347   4.809   0.922  11.532  0.4843 -0.3252 -0.4901
24411SOL    HW180348   4.824   0.926  11.626  0.4877 -0.4662 -0.4847
24411SOL    HW280349   4.828   1.011  11.501 -0.7389  0.0712 -0.1746
24412SOL     OW80350   9.709   2.227   6.430 -0.2765  0.2039 -0.0432
24412SOL    HW180351   9.653   2.169   6.482  0.1706 -0.3574 -0.1849
24412SOL    HW280352   9.676   2.218   6.340  1.6509 -2.1596 -0.6106
24413SOL     OW80353   4.370   0.779  10.259  0.0463 -0.4254  0.6893
24413SOL    HW180354   4.363   0.825  10.343 -0.5358 -0.0794  0.4606
24413SOL    HW280355   4.282   0.744  10.244 -0.5248  1.4903 -0.8799
24414SOL     OW80356   2.599   6.112   4.208  0.4247 -0.3798 -0.3334
24414SOL    HW180357   2.513   6.132   4.243  1.1865  1.1701  0.7779
24414SOL    HW280358   2.602   6.157   4.124  1.3225  2.6824  1.1748
24415SOL     OW80359   9.014   5.783   4.108 -0.4453 -0.7451 -0.1450
24415SOL    HW180360   8.958   5.705   4.107  1.0520 -1.8728 -0.4455
24415SOL    HW280361   8.963   5.849   4.153 -1.6027 -2.0404  0.5149
24416SOL     OW80362   2.076   5.515   7.640 -0.6265 -0.4206 -0.3725
24416SOL    HW180363   2.009   5.466   7.593 -0.6394  1.7752 -2.8776
24416SOL    HW280364   2.072   5.603   7.603  3.2510 -0.0067 -0.2481
24417SOL     OW80365   9.258   3.507   8.148  0.0187  0.1166 -0.0966
24417SOL    HW180366   9.305   3.479   8.226  1.4451  2.5968  0.0418
24417SOL    HW280367   9.186   3.561   8.181 -0.0358  0.2681 -0.4541
24418SOL     OW80368  10.036   2.115   9.278  0.1928  0.1198  0.3960
24418SOL    HW180369   9.986   2.162   9.345 -0.3782  1.9490 -1.2132
24418SOL    HW280370   9.971   2.094   9.211  0.6653 -2.0680  0.5489
24419SOL     OW80371   7.773   2.757   3.093 -0.0075  0.5767  0.3344
24419SOL    HW180372   7.682   2.731   3.109 -0.1449 -0.3185 -1.5943
24419SOL    HW280373   7.807   2.691   3.033  1.2485  2.0626 -0.6818
24420SOL     OW80374  10.938   6.181   8.354 -0.0692 -0.0150 -0.2055
24420SOL    HW180375  10.873   6.250   8.345  1.2112  1.0952 -1.6245
24420SOL    HW280376  10.902   6.107   8.306 -1.2980 -0.2330  1.0187
24421SOL     OW80377   5.614   9.256   0.395  0.1586 -0.0094 -0.1079
24421SOL    HW180378   5.632   9.162   0.405 -1.7168 -0.5461 -1.1654
24421SOL    HW280379   5.694   9.299   0.422  0.8815 -1.9049  0.9584
24422SOL     OW80380   6.355   3.628   2.903 -0.1987  0.5210 -0.3065
24422SOL    HW180381   6.312   3.698   2.951 -0.1034  0.7205 -0.5127
24422SOL    HW280382   6.303   3.619   2.823 -0.0166  0.5802 -0.4325
24423SOL     OW80383   8.212   6.857   5.352  0.4749  0.4199 -0.1991
24423SOL    HW180384   8.293   6.907   5.359  0.8365 -0.1185 -0.5070
24423SOL    HW280385   8.240   6.767   5.335 -0.1912  0.2503 -0.4381
24424SOL     OW80386   5.712   2.117   0.919  0.9102  0.1806  0.4044
24424SOL    HW180387   5.661   2.077   0.990  0.0448  1.1419  0.3489
24424SOL    HW280388   5.667   2.199   0.901 -0.3678 -1.1069 -2.9265
24425SOL     OW80389   6.435   9.758   6.359 -0.5142 -0.8635  0.3070
24425SOL    HW180390   6.485   9.803   6.427 -0.3039 -1.4856  0.5714
24425SOL    HW280391   6.352   9.736   6.401 -0.6039 -0.7552  0.1878
24426SOL     OW80392   9.736  11.655   9.756  0.9692 -0.2575 -0.0342
24426SOL    HW180393   9.649  11.686   9.781 -0.0402 -0.5900 -2.7760
24426SOL    HW280394   9.796  11.710   9.806 -0.8060  1.2279  0.6078
24427SOL     OW80395   9.712   3.637  11.542 -0.2707 -0.4586 -0.1108
24427SOL    HW180396   9.693   3.589  11.622  0.7025 -0.2986  0.2264
24427SOL    HW280397   9.776   3.582  11.496  1.2215  0.7128  0.5033
24428SOL     OW80398   2.024   9.085   0.813  0.5672  0.1843 -0.7214
24428SOL    HW180399   2.027   9.082   0.909 -0.7139  0.8959 -0.6340
24428SOL    HW280400   2.107   9.125   0.787  0.5505  0.7838  0.1354
24429SOL     OW80401   6.260   4.633   0.981  0.4218  0.0287  0.5270
24429SOL    HW180402   6.257   4.558   1.040 -1.0108 -1.3934 -1.2234
24429SOL    HW280403   6.211   4.701   1.027 -0.6528 -1.0405  1.0277
24430SOL     OW80404  12.342   9.594  10.946  0.0263 -0.3908  0.5969
24430SOL    HW180405  12.432   9.625  10.950  0.5852 -1.9353  0.6465
24430SOL    HW280406  12.298   9.656  10.888  1.1991  0.2110  0.3188
24431SOL     OW80407   2.215   3.827   5.793  0.2931  0.3360  0.1053
24431SOL    HW180408   2.148   3.828   5.861 -0.0660  0.4139 -0.2453
24431SOL    HW280409   2.178   3.773   5.723  0.6706  0.2302 -0.0172
24432SOL     OW80410   4.389   1.900   0.494 -0.6870  0.2228  0.4144
24432SOL    HW180411   4.443   1.827   0.465  0.5029  1.1028  0.3609
24432SOL    HW280412   4.427   1.928   0.577 -0.9579  0.9473  0.3083
24433SOL     OW80413   1.167   1.103   6.122  0.0832 -0.0608 -0.2926
24433SOL    HW180414   1.149   1.196   6.112  0.9943  0.5355  2.5867
24433SOL    HW280415   1.256   1.092   6.089  0.7465  0.5609  1.2122
24434SOL     OW80416   5.864   7.884   4.395 -0.0241  0.2026 -0.8086
24434SOL    HW180417   5.806   7.810   4.412 -0.3519  0.8575  1.1675
24434SOL    HW280418   5.920   7.854   4.324 -1.7778 -0.9940 -1.7561
24435SOL     OW80419  12.882   5.163   9.281 -0.2734 -0.1019 -1.1606
24435SOL    HW180420  12.896   5.110   9.359  0.5683  0.2223 -1.0832
24435SOL    HW280421  12.869   5.252   9.313  2.5616  0.5131 -1.4430
24436SOL     OW80422  11.422   9.846  10.298  0.5323  0.5484  0.6228
24436SOL    HW180423  11.370   9.868  10.375  0.4944  0.2106  0.6944
24436SOL    HW280424  11.509   9.826  10.333  0.9307  1.8435  0.4338
24437SOL     OW80425   6.435   5.424  11.858 -0.0048  0.2113 -1.0251
24437SOL    HW180426   6.460   5.361  11.791  2.9447  0.3038 -0.1636
24437SOL    HW280427   6.503   5.492  11.853 -0.6493  1.0657  0.9462
24438SOL     OW80428   5.102   2.014  12.347 -0.3855 -0.4956 -0.5473
24438SOL    HW180429   5.161   2.075  12.304 -1.7684 -0.0525 -1.9053
24438SOL    HW280430   5.159   1.946  12.383  1.1965  1.4257  0.8397
24439SOL     OW80431   5.681  10.280   7.038 -0.2374 -0.1730 -0.2550
24439SOL    HW180432   5.738  10.300   7.113 -0.7283  1.0337 -0.1823
24439SOL    HW280433   5.678  10.362   6.988 -1.5831 -0.3305 -0.4720
24440SOL     OW80434   4.445  11.631   6.223  0.3858  0.0549 -0.0738
24440SOL    HW180435   4.426  11.549   6.269  2.3006 -0.1999  0.3649
24440SOL    HW280436   4.416  11.616   6.133  0.9895 -1.2517 -0.0754
24441SOL     OW80437   9.292   9.091   2.697  0.2600  0.2984 -0.6410
24441SOL    HW180438   9.221   9.130   2.748  0.9988  1.4395 -0.4500
24441SOL    HW280439   9.287   9.134   2.612 -0.0637 -0.5501 -1.0618
24442SOL     OW80440   7.086   9.526   9.149  0.0482  0.3228 -0.0175
24442SOL    HW180441   7.126   9.516   9.063 -0.9844  0.0407 -0.4808
24442SOL    HW280442   7.092   9.619   9.168 -0.5588  0.5323 -0.8162
24443SOL     OW80443  10.102   8.154  11.207 -0.3944  0.7290  0.2105
24443SOL    HW180444  10.187   8.196  11.220 -0.1005  0.3684 -0.5098
24443SOL    HW280445  10.069   8.191  11.125  0.3598 -1.1983 -1.0353
24444SOL     OW80446   3.175   1.867   9.207 -0.1007  0.0646 -0.0776
24444SOL    HW180447   3.248   1.887   9.266  0.1175 -2.6285  0.6566
24444SOL    HW280448   3.100   1.853   9.264 -0.3667 -0.5727 -0.5697
24445SOL     OW80449   9.421   7.396  11.966 -0.6920 -0.4567  0.3900
24445SOL    HW180450   9.364   7.323  11.992 -0.6447 -0.7352 -0.2795
24445SOL    HW280451   9.365   7.453  11.913 -0.5025 -0.4388  0.2078
24446SOL     OW80452   2.237   6.472   5.955 -0.2914  0.8496  0.2189
24446SOL    HW180453   2.320   6.443   5.993 -0.8372 -0.6916  0.2968
24446SOL    HW280454   2.218   6.554   6.000  0.9158  0.9648  0.5715
24447SOL     OW80455   1.683  10.676  12.241  0.2532  0.6535  0.2369
24447SOL    HW180456   1.708  10.602  12.296 -1.5441  0.1068  0.3828
24447SOL    HW280457   1.620  10.725  12.293 -1.9967 -0.2317 -1.4816
24448SOL     OW80458  12.036   3.350   5.931 -0.3215 -0.1237 -0.1580
24448SOL    HW180459  11.971   3.337   6.000  0.0936  1.8308  0.6804
24448SOL    HW280460  12.120   3.336   5.974 -0.0885 -2.9936 -1.3235
24449SOL     OW80461   0.062   3.881  10.894 -0.4885 -0.8435  0.3196
24449SOL    HW180462  -0.003   3.926  10.947  0.5464  2.3052 -0.8879
24449SOL    HW280463   0.143   3.931  10.906  0.4165 -1.5212 -2.1993
24450SOL     OW80464   6.730  10.312   4.201 -0.1687  0.2448 -0.1091
24450SOL    HW180465   6.654  10.277   4.248  0.1766  0.6075  0.7430
24450SOL    HW280466   6.772  10.235   4.164 -1.2268  0.0854 -1.0259
24451SOL     OW80467  12.252   3.084  10.786  0.4310  0.2770  0.5919
24451SOL    HW180468  12.270   3.099  10.878 -0.9483  1.0985  0.7554
24451SOL    HW280469  12.295   3.001  10.766  2.2122  0.9175  1.5132
24452SOL     OW80470  12.968   6.497  12.812 -0.0048  0.2491 -0.3886
24452SOL    HW180471  13.045   6.443  12.796 -1.3157 -2.0253  0.4874
24452SOL    HW280472  12.913   6.484  12.735 -0.1420  0.7123 -0.3720
24453SOL     OW80473  10.959   4.480  10.707  0.5947 -0.5140  0.2830
24453SOL    HW180474  10.901   4.551  10.679  3.3404  0.8734 -2.4334
24453SOL    HW280475  11.005   4.517  10.783  0.6591 -0.1376  0.0639
24454SOL     OW80476   1.450   2.899   4.672 -0.3115  0.1118 -0.3297
24454SOL    HW180477   1.518   2.847   4.715 -1.9781 -1.5608  0.4409
24454SOL    HW280478   1.472   2.990   4.692  2.8963 -0.1480 -1.9868
24455SOL     OW80479   2.592   6.179   7.371  0.1642  0.1232 -0.8059
24455SOL    HW180480   2.533   6.129   7.314  0.8095 -0.3891 -1.0347
24455SOL    HW280481   2.573   6.146   7.459  1.7772 -1.8308 -1.1064
24456SOL     OW80482   0.769   2.890   6.745  0.2170  0.1208  0.8416
24456SOL    HW180483   0.729   2.864   6.662 -2.3403 -0.4084  2.1433
24456SOL    HW280484   0.790   2.807   6.788  0.9518  0.3934  1.0312
24457SOL     OW80485   7.233  11.525   5.443  0.5892  0.1030  0.2263
24457SOL    HW180486   7.243  11.532   5.348 -1.0968 -0.1186  0.0028
24457SOL    HW280487   7.194  11.439   5.457  1.1027  0.0073  1.1514
24458SOL     OW80488   3.520  10.066   0.016 -0.2456 -0.2617 -0.3458
24458SOL    HW180489   3.589  10.099   0.074 -0.8558  0.3690  0.0402
24458SOL    HW280490   3.510   9.974   0.040 -1.0922  0.1988  1.1888
24459SOL     OW80491   7.137  11.003  11.894 -0.6003  1.2952 -0.1139
24459SOL    HW180492   7.178  10.934  11.945 -3.0260 -0.8914 -0.9225
24459SOL    HW280493   7.210  11.045  11.848  0.9864 -0.7661  0.3750
24460SOL     OW80494   5.554  12.115   4.399 -0.2730  0.1310  0.1931
24460SOL    HW180495   5.498  12.116   4.477 -2.0228 -2.4609 -0.9130
24460SOL    HW280496   5.642  12.101   4.434 -1.1661 -2.3783  1.7406
24461SOL     OW80497   5.361  11.719   4.855 -0.0311  0.1656 -0.5602
24461SOL    HW180498   5.392  11.795   4.806  1.2696  1.3519  1.9112
24461SOL    HW280499   5.379  11.644   4.798 -0.1092  1.5691 -2.5068
24462SOL     OW80500   0.438   0.121  10.811 -0.7330  0.3143 -0.3445
24462SOL    HW180501   0.490   0.194  10.845 -0.5833  0.1181 -0.1392
24462SOL    HW280502   0.503   0.051  10.798 -0.8113  0.3517 -0.9258
24463SOL     OW80503   5.478   2.449   4.027 -0.0126  0.1331 -0.1817
24463SOL    HW180504   5.414   2.495   3.971  0.9381 -1.2409 -2.5481
24463SOL    HW280505   5.561   2.459   3.980  1.2791  0.6036  2.0708
24464SOL     OW80506   9.346   9.328  10.291 -0.1557 -0.1962  0.4005
24464SOL    HW180507   9.284   9.368  10.229 -1.1002 -0.3578  1.2134
24464SOL    HW280508   9.360   9.240  10.256  0.0815  0.0371 -0.1056
24465SOL     OW80509   2.184  12.688   9.599  0.3604  0.4206  0.0289
24465SOL    HW180510   2.139  12.631   9.536 -1.3108  0.8845  0.7630
24465SOL    HW280511   2.126  12.763   9.608  0.9114  0.6786  1.6038
24466SOL     OW80512   7.174   7.383   0.924 -0.5674 -0.1879 -0.2643
24466SOL    HW180513   7.181   7.288   0.922 -1.9776 -0.4672  2.6389
24466SOL    HW280514   7.098   7.401   0.981  1.3187  2.6339  1.6750
24467SOL     OW80515   6.041  12.046   3.179  0.3874  0.1009  0.3522
24467SOL    HW180516   6.056  12.051   3.273  0.5646  3.3143  0.2644
24467SOL    HW280517   5.957  12.089   3.165  0.8270  0.5872 -1.0342
24468SOL     OW80518  11.511   0.834  12.337 -0.3123  0.1166  0.0612
24468SOL    HW180519  11.564   0.914  12.345  0.3068 -0.1787 -0.8619
24468SOL    HW280520  11.575   0.767  12.314 -0.4755 -1.1258  2.7854
24469SOL     OW80521   5.626   0.430   7.195  0.1075 -0.7369  0.3118
24469SOL    HW180522   5.538   0.400   7.216  0.3526 -1.4419  0.3716
24469SOL    HW280523   5.617   0.475   7.112 -0.4275 -0.1834  0.6596
24470SOL     OW80524   5.903   0.356   5.037  0.0269 -0.0697  0.2756
24470SOL    HW180525   5.825   0.309   5.067 -0.1107 -0.3625 -0.4954
24470SOL    HW280526   5.931   0.307   4.959  2.0106 -1.0268  1.5020
24471SOL     OW80527  10.665  10.821   3.203 -0.3195  0.8625 -0.1726
24471SOL    HW180528  10.618  10.760   3.146  1.0727  1.2702 -1.8427
24471SOL    HW280529  10.596  10.874   3.244 -1.5178 -1.3186  0.7974
24472SOL     OW80530   9.560   6.030   6.448  0.8759  0.8823 -0.1197
24472SOL    HW180531   9.531   5.991   6.366  0.7599  0.7133  0.0020
24472SOL    HW280532   9.482   6.031   6.503  0.3128  3.1868 -0.8258
24473SOL     OW80533   2.162   2.209   9.902  0.1515  0.0397 -0.3265
24473SOL    HW180534   2.243   2.255   9.880 -0.4635  1.4119  0.1642
24473SOL    HW280535   2.135   2.167   9.820  1.3288 -0.3967 -0.5034
24474SOL     OW80536   4.263   2.689   0.931  0.0896 -0.1376  0.2495
24474SOL    HW180537   4.168   2.698   0.932  0.2516  2.4956 -0.1432
24474SOL    HW280538   4.281   2.617   0.990 -2.2082 -1.7833 -0.8660
24475SOL     OW80539   7.109   5.659   0.250  0.3795  0.0638  0.1373
24475SOL    HW180540   7.050   5.589   0.276  0.4911  0.5487  1.8204
24475SOL    HW280541   7.056   5.715   0.192  0.1642 -1.1332 -0.8676
24476SOL     OW80542   9.455   4.941   0.935  0.6039 -0.6418 -0.0533
24476SOL    HW180543   9.427   4.903   0.851  0.6969  1.6598 -1.2109
24476SOL    HW280544   9.526   4.884   0.965  0.2417 -1.7928 -1.2854
24477SOL     OW80545   4.741  10.636  12.901  0.2713  0.3115 -0.1586
24477SOL    HW180546   4.791  10.697  12.848  0.1662  0.8539  0.3454
24477SOL    HW280547   4.656  10.679  12.913 -0.6811 -1.0211 -1.8000
24478SOL     OW80548   0.609   2.382   5.849 -0.2091  0.2949 -0.6837
24478SOL    HW180549   0.605   2.396   5.944  0.1354 -0.4806 -0.5503
24478SOL    HW280550   0.540   2.439   5.814 -0.8271  0.0516  0.0916
24479SOL     OW80551   6.481   3.898   7.833  0.2877 -0.2649  0.5724
24479SOL    HW180552   6.385   3.898   7.838  0.2884 -0.8753  0.6395
24479SOL    HW280553   6.507   3.824   7.887  0.7914 -0.2480  0.3520
24480SOL     OW80554   2.953   5.185  10.719 -0.4860 -0.0404  0.3869
24480SOL    HW180555   2.886   5.213  10.782 -0.3001  2.6886 -0.4853
24480SOL    HW280556   2.941   5.243  10.644  1.4174 -0.9907 -0.7186
24481SOL     OW80557   8.639   9.577   6.415  0.0054  0.3958  0.3899
24481SOL    HW180558   8.653   9.661   6.460 -0.7062  0.2458  0.9133
24481SOL    HW280559   8.704   9.576   6.345  1.5750  0.3645  1.7883
24482SOL     OW80560  10.125   4.290   2.432 -0.1903 -0.2101 -0.6643
24482SOL    HW180561  10.216   4.274   2.407 -0.2236 -0.0785 -0.8701
24482SOL    HW280562  10.091   4.203   2.457 -0.8339 -0.7963 -3.2864
24483SOL     OW80563   1.005   6.761   0.395 -0.5727 -0.2043 -0.8792
24483SOL    HW180564   1.041   6.691   0.448  0.8042  1.8940  1.1727
24483SOL    HW280565   1.065   6.768   0.321 -0.1710 -0.5764 -0.5932
24484SOL     OW80566   3.469   5.923  11.799  0.4617 -0.0459 -0.6693
24484SOL    HW180567   3.530   5.863  11.843 -0.6206 -1.2326 -0.7136
24484SOL    HW280568   3.474   5.897  11.707  1.8824  1.6843 -1.1485
24485SOL     OW80569   4.888  10.848   2.064  0.5038 -0.1783 -0.5062
24485SOL    HW180570   4.880  10.754   2.047  1.7951 -0.3200 -0.4199
24485SOL    HW280571   4.861  10.858   2.155 -1.3666 -0.1885 -1.0342
24486SOL     OW80572   5.652   0.143   4.718  0.1498  0.1205 -0.1256
24486SOL    HW180573   5.688   0.221   4.758 -1.8569  2.3415 -2.3137
24486SOL    HW280574   5.557   0.151   4.731 -0.1960 -1.3492 -1.3855
24487SOL     OW80575  11.788  10.403   3.602  0.3164  0.2212  0.0452
24487SOL    HW180576  11.694  10.391   3.591 -0.4864  3.3659  2.0171
24487SOL    HW280577  11.821  10.421   3.513 -1.6784  2.6968 -0.3026
24488SOL     OW80578   3.971   8.514   8.279 -0.3004 -0.0474 -0.4232
24488SOL    HW180579   3.991   8.424   8.253  0.9860 -0.0541  0.4838
24488SOL    HW280580   4.044   8.565   8.243 -0.4338  0.4637  0.0340
24489SOL     OW80581   1.882  11.863   1.750 -0.0133 -0.1224  0.0209
24489SOL    HW180582   1.893  11.797   1.681 -2.3071  0.8777 -1.4219
24489SOL    HW280583   1.857  11.812   1.827  1.4747 -1.1678 -0.1386
24490SOL     OW80584  12.499   2.570   7.955 -0.0406  0.5153 -0.3392
24490SOL    HW180585  12.574   2.572   8.015 -0.4536  1.6127  0.1821
24490SOL    HW280586  12.538   2.562   7.868  0.7371  1.7751 -0.1333
24491SOL     OW80587   5.579   1.182   9.454  0.5016 -0.3333  0.2309
24491SOL    HW180588   5.554   1.262   9.502 -1.2387 -0.2210 -0.7764
24491SOL    HW280589   5.653   1.147   9.504  0.1511  0.9320  1.7427
24492SOL     OW80590  10.932   6.978   3.636 -1.1513  0.4986 -0.1637
24492SOL    HW180591  10.961   7.054   3.586 -1.6684 -0.1377 -1.4953
24492SOL    HW280592  10.877   6.929   3.574 -0.7869 -0.9757  0.6429
24493SOL     OW80593   5.948   0.263  10.913 -0.2783 -0.3021  0.5695
24493SOL    HW180594   6.005   0.289  10.841  0.4031 -0.4045  1.0671
24493SOL    HW280595   6.007   0.243  10.985 -0.8415 -1.8437  0.6439
24494SOL     OW80596   9.384   6.758  12.082 -0.2981 -0.8430 -0.6317
24494SOL    HW180597   9.360   6.693  12.015 -0.4820 -1.0551 -0.3610
24494SOL    HW280598   9.302   6.804  12.100 -0.3408 -1.0721 -0.2411
24495SOL     OW80599   1.483   3.729   6.255  0.0380 -0.0746  0.0894
24495SOL    HW180600   1.548   3.661   6.274 -0.3325 -0.2959  0.6031
24495SOL    HW280601   1.518   3.776   6.180  2.2868  1.7171  2.0971
24496SOL     OW80602   1.285   5.803  11.416 -0.2682 -0.3052  0.5871
24496SOL    HW180603   1.346   5.841  11.353 -0.5758 -2.0347 -0.8457
24496SOL    HW280604   1.207   5.858  11.409  0.0788  0.1497  0.2115
24497SOL     OW80605   0.510   6.628   6.569 -0.4256  0.8532  0.0707
24497SOL    HW180606   0.480   6.538   6.565 -1.7914  1.2631  0.3956
24497SOL    HW280607   0.437   6.679   6.532 -1.4200  2.1651  3.4392
24498SOL     OW80608   7.069  10.947   5.540  0.2912 -0.2477  0.2831
24498SOL    HW180609   7.113  11.024   5.575 -0.3478  0.0272  0.4973
24498SOL    HW280610   7.046  10.971   5.450 -1.0151  0.2848  0.7453
24499SOL     OW80611   0.345   2.712   6.818 -0.1853 -0.6415 -0.2522
24499SOL    HW180612   0.326   2.650   6.888  0.4616  1.0723  1.5730
24499SOL    HW280613   0.440   2.706   6.806 -0.3166 -1.0603 -1.1510
24500SOL     OW80614   4.306   3.612   7.581  0.5545  0.3957  0.4373
24500SOL    HW180615   4.257   3.693   7.594 -0.9398 -0.7621  2.5157
24500SOL    HW280616   4.244   3.543   7.601  1.7947 -1.3114 -1.2979
24501SOL     OW80617   0.674   4.536   3.745 -0.1993  0.1412  0.2687
24501SOL    HW180618   0.599   4.567   3.797 -0.5833 -0.2299 -0.0594
24501SOL    HW280619   0.729   4.490   3.808 -1.0678 -1.0199  0.2153
24502SOL     OW80620   2.110   3.447   5.157  0.0547  0.1558 -0.0586
24502SOL    HW180621   2.098   3.352   5.150 -1.8867  0.3572 -0.1408
24502SOL    HW280622   2.159   3.471   5.078  1.4008 -0.8684  0.4353
24503SOL     OW80623   1.789  11.661  11.231 -0.8419  0.3401 -0.1320
24503SOL    HW180624   1.859  11.647  11.296  0.0129 -2.1412 -1.4491
24503SOL    HW280625   1.748  11.743  11.258  1.7088  1.2275  1.4934
24504SOL     OW80626   7.652  12.760   2.810  0.5552  0.0844 -0.4521
24504SOL    HW180627   7.612  12.703   2.876  1.4746  0.1688  0.2005
24504SOL    HW280628   7.706  12.702   2.757  0.3567  0.1262 -0.7034
24505SOL     OW80629   7.789   3.195  10.431  0.5617  0.0798  0.2503
24505SOL    HW180630   7.812   3.138  10.357 -1.1681 -0.2512 -0.0737
24505SOL    HW280631   7.756   3.134  10.498  1.8916  0.3979  1.2500
24506SOL     OW80632   0.425  10.725   7.910 -0.3403  0.3606  0.1394
24506SOL    HW180633   0.420  10.821   7.902  0.9034  0.7906  3.1399
24506SOL    HW280634   0.369  10.705   7.986  0.4986 -1.1167  0.3969
24507SOL     OW80635   7.048   5.231  12.279  0.0601 -0.0660 -0.0567
24507SOL    HW180636   6.981   5.281  12.234  0.1341 -1.9249 -2.4261
24507SOL    HW280637   7.104   5.297  12.320 -1.1230  1.6496 -1.0761
24508SOL     OW80638   3.888   3.237  10.331  0.4693 -0.5823  0.2184
24508SOL    HW180639   3.812   3.195  10.292  0.5447 -0.2254 -0.3102
24508SOL    HW280640   3.862   3.252  10.422 -0.9789  1.5971 -0.4776
24509SOL     OW80641   8.509   1.255   9.020 -0.2457 -0.3526  0.4620
24509SOL    HW180642   8.492   1.341   8.981  0.1156  0.1025  1.2859
24509SOL    HW280643   8.455   1.254   9.099  1.3544 -0.0031  1.6188
24510SOL     OW80644   8.884  10.966   3.719 -0.4626 -0.4463 -0.3130
24510SOL    HW180645   8.934  11.030   3.771  0.6850  0.9971 -2.9807
24510SOL    HW280646   8.946  10.936   3.652 -2.3184 -0.8424 -1.9437
24511SOL     OW80647   1.927   2.091   9.961 -0.0255 -0.2701 -0.6353
24511SOL    HW180648   2.016   2.127   9.958  0.7620 -1.7873  1.3998
24511SOL    HW280649   1.908   2.083  10.055 -2.1508 -0.4192 -1.0260
24512SOL     OW80650   0.163   8.372  12.198 -0.0085 -0.0573 -0.4828
24512SOL    HW180651   0.220   8.357  12.123 -0.0986 -1.5320 -0.2968
24512SOL    HW280652   0.204   8.324  12.270 -1.4532 -1.1684 -0.3516
24513SOL     OW80653   9.236   8.813  12.296 -0.1023  0.2519  0.7108
24513SOL    HW180654   9.286   8.883  12.254 -1.7411  0.4165 -1.1258
24513SOL    HW280655   9.186   8.858  12.364 -0.9655  0.8613 -0.2978
24514SOL     OW80656   4.036  12.562   3.643  0.1705  0.3508  0.2008
24514SOL    HW180657   4.012  12.547   3.734 -0.7707  0.6105  0.0072
24514SOL    HW280658   4.130  12.544   3.639  0.0927 -0.3016  1.0796
24515SOL     OW80659   4.417   6.210   0.802  0.0222 -0.2380 -0.1402
24515SOL    HW180660   4.410   6.116   0.786  0.7492 -0.2030 -0.7257
24515SOL    HW280661   4.473   6.218   0.879 -1.2097 -0.3210  0.7814
24516SOL     OW80662  12.406   5.125   3.891 -0.1006 -0.7235 -0.3771
24516SOL    HW180663  12.404   5.120   3.986  0.8117  0.7127 -0.2395
24516SOL    HW280664  12.455   5.048   3.863  1.0787 -0.3048  0.4497
24517SOL     OW80665  10.049  11.821   4.552 -0.0104  0.6280 -0.6775
24517SOL    HW180666  10.065  11.757   4.483  0.1416 -0.0793 -0.0020
24517SOL    HW280667  10.084  11.903   4.518 -1.5465  0.7165 -2.1686
24518SOL     OW80668   1.395   8.656   9.670 -0.1313 -0.3256  0.0739
24518SOL    HW180669   1.434   8.569   9.661  1.1442  0.0837  1.3797
24518SOL    HW280670   1.328   8.644   9.737  2.5688  0.3920  3.1365
24519SOL     OW80671  10.282   6.439   1.344  0.2025 -0.1232 -0.4060
24519SOL    HW180672  10.190   6.418   1.328 -0.2899  2.1311 -0.8444
24519SOL    HW280673  10.282   6.489   1.426  0.8967  0.6838 -0.8803
24520SOL     OW80674   3.233  11.953   1.653  0.6185 -0.2739 -0.1215
24520SOL    HW180675   3.208  11.906   1.573  2.4126 -2.3975  0.4863
24520SOL    HW280676   3.285  12.027   1.622 -1.4493  0.8712 -1.0463
24521SOL     OW80677   9.860   8.414  12.775  0.3044  0.0983  0.1937
24521SOL    HW180678   9.873   8.470  12.699 -1.5155  0.1382 -0.1428
24521SOL    HW280679   9.783   8.361  12.753  1.2220 -1.6732  1.0117
24522SOL     OW80680  12.062   5.032   1.789  0.0353  0.1871  0.2576
24522SOL    HW180681  12.012   5.012   1.710  1.2684  2.2698 -1.1167
24522SOL    HW280682  12.006   5.002   1.861 -2.0248  0.1241 -1.3043
24523SOL     OW80683   6.683   9.462   1.520  0.4347  0.1324 -0.4602
24523SOL    HW180684   6.685   9.513   1.601 -1.1843  0.3303 -0.5017
24523SOL    HW280685   6.707   9.524   1.452  1.5747  0.0258 -0.1675
24524SOL     OW80686   8.562   1.183   7.294  1.0918  0.0013 -0.1020
24524SOL    HW180687   8.575   1.254   7.231  0.2897 -0.8660 -1.2944
24524SOL    HW280688   8.470   1.158   7.284  0.4343  0.9572  2.6835
24525SOL     OW80689   1.602  12.623  11.857  0.2403  0.6087  0.0359
24525SOL    HW180690   1.619  12.714  11.882  2.0421  1.0969 -2.5964
24525SOL    HW280691   1.686  12.579  11.865 -0.3652 -0.5768  0.1881
24526SOL     OW80692   3.422  12.475   5.300  0.2300  0.6242  0.4585
24526SOL    HW180693   3.507  12.490   5.259 -0.7077  0.2674 -1.7696
24526SOL    HW280694   3.417  12.381   5.313  0.1476  0.6379  0.5318
24527SOL     OW80695   0.528  11.567   0.979 -0.2876 -0.2774 -0.3964
24527SOL    HW180696   0.458  11.599   1.035 -1.8675 -1.7277 -1.4596
24527SOL    HW280697   0.572  11.500   1.031  0.7568  1.0384  0.4922
24528SOL     OW80698   3.214   2.633   4.280  0.2854  0.1352 -0.5670
24528SOL    HW180699   3.202   2.672   4.193 -1.4746  0.6078 -0.1539
24528SOL    HW280700   3.241   2.705   4.335  0.1624  0.1097 -0.4718
24529SOL     OW80701   0.723   6.827  11.785  0.3660  0.1338 -0.6042
24529SOL    HW180702   0.753   6.788  11.867  1.1615  2.3223  0.2257
24529SOL    HW280703   0.781   6.902  11.772 -0.4629  0.4790 -2.6048
24530SOL     OW80704   8.853   4.799   3.790 -0.1893 -0.0964  0.0083
24530SOL    HW180705   8.770   4.785   3.744 -0.2503  1.1789 -0.3051
24530SOL    HW280706   8.897   4.714   3.787  0.5105  0.2270 -3.8288
24531SOL     OW80707   5.206  11.338   6.803  0.0150 -0.4142 -0.4026
24531SOL    HW180708   5.288  11.387   6.811 -1.1152  1.4223  0.3394
24531SOL    HW280709   5.215  11.291   6.720  0.6463  2.0353 -1.8060
24532SOL     OW80710   5.019  12.265   5.384  0.4834  0.1867  0.0562
24532SOL    HW180711   5.037  12.359   5.375 -0.0790  0.4718  1.5811
24532SOL    HW280712   5.104  12.226   5.404  0.3868  0.6896  1.5103
24533SOL     OW80713   4.906  12.934  11.559 -0.3914  0.0011  0.3205
24533SOL    HW180714   4.923  13.027  11.548 -1.7039  0.1392 -0.8489
24533SOL    HW280715   4.936  12.894  11.478 -1.2764 -0.3612  0.1542
24534SOL     OW80716   4.403   0.726   7.779 -0.6910  0.0567  0.3727
24534SOL    HW180717   4.379   0.674   7.702  3.1399 -2.0298  0.3946
24534SOL    HW280718   4.450   0.801   7.743  1.8373 -1.3418  0.5517
24535SOL     OW80719  11.909  11.944   8.256  0.0529 -0.5210 -0.5235
24535SOL    HW180720  11.996  11.905   8.262  0.5029  0.4087 -0.9145
24535SOL    HW280721  11.871  11.931   8.343  0.9517 -0.0896 -0.0605
24536SOL     OW80722   4.520   8.974   9.831  0.7955 -0.0265  0.4487
24536SOL    HW180723   4.496   8.889   9.867 -2.7310  0.4311 -0.5181
24536SOL    HW280724   4.487   9.038   9.894 -0.0465  0.6552 -0.6345
24537SOL     OW80725  12.728  12.957   8.143 -0.3866 -0.4427  0.4965
24537SOL    HW180726  12.717  13.049   8.169 -0.8149 -0.6536  1.0738
24537SOL    HW280727  12.641  12.918   8.156 -0.7145 -0.5078 -1.4953
24538SOL     OW80728   0.832  11.326   5.483  0.2768 -0.0270 -0.1255
24538SOL    HW180729   0.784  11.281   5.553  0.8042 -0.6731 -0.1672
24538SOL    HW280730   0.837  11.417   5.512  0.0815 -0.1958  0.4582
24539SOL     OW80731   8.858   0.879   0.078 -0.5487  0.0345  0.1809
24539SOL    HW180732   8.904   0.823   0.015 -1.5970 -1.0949  0.3664
24539SOL    HW280733   8.925   0.907   0.140  0.4133  0.7657 -1.1298
24540SOL     OW80734   7.754   9.209   4.042 -0.1164 -0.2908 -0.1616
24540SOL    HW180735   7.743   9.146   3.971 -2.5025 -1.3094  0.9914
24540SOL    HW280736   7.715   9.290   4.008 -0.7372 -0.6103 -0.2186
24541SOL     OW80737   3.197  11.067   3.875 -0.3710 -0.2925 -0.5876
24541SOL    HW180738   3.212  11.069   3.781  0.0449  0.9842 -0.5137
24541SOL    HW280739   3.103  11.050   3.883 -0.2102 -1.5749 -1.1897
24542SOL     OW80740   9.827   7.032   7.677  0.0654 -0.4467 -0.1946
24542SOL    HW180741   9.904   6.991   7.639  0.9956  0.1657  0.9628
24542SOL    HW280742   9.810   7.108   7.621 -0.1047 -0.9426 -0.8277
24543SOL     OW80743  12.815   7.388   7.579 -0.1730 -0.0722 -0.4369
24543SOL    HW180744  12.817   7.311   7.637 -0.7445 -0.1306 -0.4900
24543SOL    HW280745  12.772   7.456   7.631  3.3378  1.3478  0.9451
24544SOL     OW80746   5.878   8.477   2.839  0.0007 -0.3135  0.3711
24544SOL    HW180747   5.831   8.518   2.911 -0.4684  0.7235 -0.4911
24544SOL    HW280748   5.917   8.399   2.877  0.0951  0.4082  1.8440
24545SOL     OW80749  12.803   5.363   4.045  0.2505  0.2432  0.4604
24545SOL    HW180750  12.892   5.395   4.028  0.4424 -0.6347 -0.3062
24545SOL    HW280751  12.746   5.431   4.010  0.6198  0.6528  0.6400
24546SOL     OW80752   5.369   0.266  10.800  0.1555 -0.0569 -0.3889
24546SOL    HW180753   5.416   0.227  10.726 -0.7003  0.1081 -1.0407
24546SOL    HW280754   5.372   0.199  10.868 -0.6188 -0.9810 -1.2236
24547SOL     OW80755   2.161  10.553  12.111 -0.5390  0.0008 -0.2495
24547SOL    HW180756   2.132  10.619  12.174 -0.6431 -1.1860  1.0150
24547SOL    HW280757   2.094  10.553  12.043  0.8642  3.1117 -1.8010
24548SOL     OW80758   8.961  10.786   9.106 -0.6607 -0.6034 -1.1688
24548SOL    HW180759   8.913  10.838   9.041 -0.2803 -1.2600 -1.9978
24548SOL    HW280760   8.948  10.832   9.188 -1.0932  0.2940 -1.7270
24549SOL     OW80761  10.727   8.628   6.432  0.0616  0.1464 -0.5028
24549SOL    HW180762  10.663   8.560   6.411 -1.5936  0.4398  2.8423
24549SOL    HW280763  10.801   8.581   6.470  0.0782  0.0661 -0.6347
24550SOL     OW80764   6.959   4.695   7.274 -0.2390  0.4702 -0.7027
24550SOL    HW180765   6.899   4.742   7.331  3.8782  1.9754  2.9337
24550SOL    HW280766   6.981   4.615   7.322  0.8676  0.1091 -1.7571
24551SOL     OW80767   6.472   2.506   8.146  0.8915  0.0501  0.1027
24551SOL    HW180768   6.399   2.552   8.104  0.7393  1.2316  1.5875
24551SOL    HW280769   6.462   2.524   8.239  1.6585 -1.8655  0.6048
24552SOL     OW80770   4.899  12.209   7.676  0.0229  0.0586 -0.1725
24552SOL    HW180771   4.966  12.180   7.739  0.3064  0.9276 -0.0681
24552SOL    HW280772   4.883  12.132   7.621  1.2407 -0.1134 -0.3107
24553SOL     OW80773   1.673   4.662   9.861  0.2689 -0.2987  0.4887
24553SOL    HW180774   1.749   4.635   9.809 -0.3172  0.1850 -0.6720
24553SOL    HW280775   1.704   4.735   9.914  0.9283 -0.9136  0.9671
24554SOL     OW80776   8.887   4.019   2.050  0.2195 -0.0599 -0.5599
24554SOL    HW180777   8.971   3.974   2.054  0.0015 -0.5926 -1.6112
24554SOL    HW280778   8.866   4.023   1.957 -0.4407  0.9819 -0.3923
24555SOL     OW80779   4.991   1.048  10.921  0.1143 -0.0164 -0.2486
24555SOL    HW180780   4.922   1.019  10.861 -0.9525  0.3709  0.7507
24555SOL    HW280781   5.014   1.136  10.890 -0.3855  0.1579 -0.1317
24556SOL     OW80782   5.937   1.950   9.060  0.5069 -0.1911  0.2293
24556SOL    HW180783   6.000   1.937   8.989  0.0982  0.1392 -0.1934
24556SOL    HW280784   5.860   1.987   9.018  1.0690  2.2454  1.1370
24557SOL     OW80785   6.870   7.531   3.275  0.5782 -0.6367 -0.3944
24557SOL    HW180786   6.898   7.596   3.210 -0.3481 -0.7069 -0.8891
24557SOL    HW280787   6.775   7.538   3.275  0.5495 -0.9566  0.6492
24558SOL     OW80788  10.139  12.451   5.690  0.2509 -0.2695 -0.1329
24558SOL    HW180789  10.139  12.461   5.595  1.9387  0.3586 -0.1019
24558SOL    HW280790  10.143  12.541   5.723 -2.8060 -0.3148  0.6385
24559SOL     OW80791   1.187  11.150  10.280 -0.2842 -0.5754 -0.5068
24559SOL    HW180792   1.232  11.174  10.199  1.2138 -1.7543 -0.0799
24559SOL    HW280793   1.109  11.102  10.250  0.2907 -1.0727 -1.2625
24560SOL     OW80794   4.335   8.320   1.870  0.0464 -0.4088  0.9080
24560SOL    HW180795   4.251   8.365   1.856  0.7222  0.3484 -1.1119
24560SOL    HW280796   4.310   8.230   1.892 -1.3392 -0.5498 -0.9469
24561SOL     OW80797  12.256   8.240   5.698 -0.2957  0.5893  0.3018
24561SOL    HW180798  12.268   8.276   5.610  0.0657 -1.9933 -0.8128
24561SOL    HW280799  12.162   8.251   5.716 -0.6483 -0.0020 -1.0099
24562SOL     OW80800   0.494   6.607  10.049  0.4151 -0.1410 -0.3920
24562SOL    HW180801   0.574   6.606  10.102  1.5706  1.2363 -2.0084
24562SOL    HW280802   0.429   6.648  10.106  1.1254 -0.3325  0.5943
24563SOL     OW80803   2.760   3.820   8.223 -0.0994 -0.1922  0.4103
24563SOL    HW180804   2.823   3.764   8.268  1.6659  1.3029 -0.0917
24563SOL    HW280805   2.738   3.772   8.143  1.2118 -0.3005  0.0959
24564SOL     OW80806   9.875  12.795  12.475 -0.2096  0.6233  0.0648
24564SOL    HW180807   9.955  12.833  12.511  0.9299 -0.5811 -1.0686
24564SOL    HW280808   9.878  12.703  12.502 -1.7283  0.7659  0.8252
24565SOL     OW80809   1.808   9.864  12.551 -0.5277  0.0585 -0.0647
24565SOL    HW180810   1.831   9.813  12.629  2.3391  0.9225 -0.2031
24565SOL    HW280811   1.741   9.925  12.580 -0.4360 -0.5047  1.3846
24566SOL     OW80812  12.552   8.739   3.809  0.0105  0.1724  0.4984
24566SOL    HW180813  12.644   8.725   3.833 -0.1101 -3.4882 -0.5373
24566SOL    HW280814  12.502   8.687   3.873 -0.8813 -2.2271 -1.9662
24567SOL     OW80815   6.943   7.275   3.237  0.0883  0.5753  0.9143
24567SOL    HW180816   6.889   7.353   3.238  0.1049  0.5958  2.9168
24567SOL    HW280817   7.014   7.293   3.299  1.3929 -0.1516 -0.2976
24568SOL     OW80818  11.347   7.175   1.725 -0.0938 -0.5809  0.0925
24568SOL    HW180819  11.427   7.127   1.744  0.0360 -0.1623  0.6276
24568SOL    HW280820  11.278   7.109   1.726 -0.1477 -0.5722  2.3619
24569SOL     OW80821   9.966  11.250   9.858 -0.0577  0.3090  0.2483
24569SOL    HW180822  10.029  11.221   9.924 -0.2687 -1.8474 -0.4271
24569SOL    HW280823   9.988  11.198   9.780 -2.1680  0.0735 -0.2413
24570SOL     OW80824   6.793   1.333   8.198 -0.0375  0.0060  0.2654
24570SOL    HW180825   6.847   1.384   8.258  0.3666  1.1643 -1.0341
24570SOL    HW280826   6.809   1.372   8.112 -0.9757 -1.2860 -0.5348
24571SOL     OW80827  11.006   8.904   6.272 -0.1196 -0.2765  0.3900
24571SOL    HW180828  11.060   8.909   6.193 -0.1185 -0.3701  0.3848
24571SOL    HW280829  11.049   8.964   6.334 -1.6563  1.9356 -0.5859
24572SOL     OW80830   2.242   3.788   7.551 -0.3419 -0.6214 -0.5921
24572SOL    HW180831   2.211   3.790   7.460 -0.9080 -0.6571 -0.4072
24572SOL    HW280832   2.174   3.836   7.599 -1.5203 -2.9950  0.2392
24573SOL     OW80833   9.847   5.829   4.600 -0.3159 -0.0772 -1.2242
24573SOL    HW180834   9.856   5.768   4.527 -0.5810  0.2523 -1.5392
24573SOL    HW280835   9.912   5.801   4.664  1.9238  1.3187 -2.7514
24574SOL     OW80836   9.418   4.301   8.456 -0.3360 -0.1794 -0.3738
24574SOL    HW180837   9.480   4.362   8.418 -1.1406  1.2847  0.5696
24574SOL    HW280838   9.363   4.354   8.514 -0.4416 -1.9396  1.2783
24575SOL     OW80839   8.808   0.190   0.582 -0.2122  0.5582 -0.3163
24575SOL    HW180840   8.765   0.107   0.560 -0.4471  0.6249 -0.1062
24575SOL    HW280841   8.886   0.191   0.526 -2.2008  2.0115 -3.3571
24576SOL     OW80842  10.502   1.292   4.576  0.4006 -0.0862 -1.1188
24576SOL    HW180843  10.424   1.336   4.541  0.4694  0.8571 -0.1202
24576SOL    HW280844  10.496   1.203   4.542 -0.9065  0.0822 -1.3805
24577SOL     OW80845   7.980   9.202  11.034  0.4446  0.5418 -0.2473
24577SOL    HW180846   7.982   9.254  10.953 -0.2703  2.3883  0.8537
24577SOL    HW280847   8.071   9.200  11.063  0.6342  0.2665 -0.8493
24578SOL     OW80848   0.847   4.599  11.196  0.6204  0.5137  0.6645
24578SOL    HW180849   0.757   4.619  11.222  0.1857 -0.5016  0.0233
24578SOL    HW280850   0.880   4.681  11.160 -0.9061  0.3173 -1.3773
24579SOL     OW80851   7.918   0.584   0.523 -0.0929  0.0591  0.2655
24579SOL    HW180852   7.915   0.679   0.513  0.1810  0.1289  0.8289
24579SOL    HW280853   7.990   0.557   0.465 -0.6295  0.1125 -0.4406
24580SOL     OW80854   1.347   6.278   2.792  0.6886  0.1899 -0.6976
24580SOL    HW180855   1.327   6.229   2.713  1.3488  0.6393 -1.1552
24580SOL    HW280856   1.413   6.224   2.837 -0.6732 -0.7450  0.2557
24581SOL     OW80857  12.047  12.598   1.760  0.2662 -0.1406  0.4062
24581SOL    HW180858  12.037  12.686   1.795  0.1131  0.0324 -0.0666
24581SOL    HW280859  12.076  12.546   1.835 -0.5566  0.1178  0.9159
24582SOL     OW80860   8.943   1.947   9.638 -0.4499 -0.2625  0.1374
24582SOL    HW180861   8.977   1.998   9.712  0.4956 -1.2112  0.3734
24582SOL    HW280862   9.003   1.966   9.566  1.0796 -2.4497  0.7326
24583SOL     OW80863   6.608   8.336   5.001  0.2678 -0.1387 -0.2158
24583SOL    HW180864   6.593   8.344   4.907 -0.4083 -0.7497 -0.1689
24583SOL    HW280865   6.627   8.243   5.014  0.1722 -0.0895  0.2715
24584SOL     OW80866   7.652   9.183   8.990 -0.1741  0.1042  0.6057
24584SOL    HW180867   7.663   9.273   8.962  1.5190 -0.3271 -0.2295
24584SOL    HW280868   7.690   9.179   9.078 -0.7272  0.3084  0.8569
24585SOL     OW80869   3.418   4.832   6.803 -0.5431  0.2346  1.0983
24585SOL    HW180870   3.339   4.883   6.819 -0.5053  0.5184  0.4061
24585SOL    HW280871   3.424   4.825   6.707  1.0918  1.5395  1.0572
24586SOL     OW80872  11.961   0.384   9.334  0.2102 -0.1024  0.0943
24586SOL    HW180873  11.893   0.448   9.352  0.8508  0.3585  0.9462
24586SOL    HW280874  11.992   0.356   9.420  2.6343  1.3683 -0.1959
24587SOL     OW80875   5.654   7.922   6.705  0.0054 -0.4891  0.3320
24587SOL    HW180876   5.747   7.941   6.717  0.1487 -0.9635 -0.0134
24587SOL    HW280877   5.632   7.959   6.620 -0.0598 -0.6210  0.2919
24588SOL     OW80878   0.925   2.186   9.255  0.1727 -0.1718  0.3270
24588SOL    HW180879   0.831   2.196   9.270  0.2015  1.2624 -0.2672
24588SOL    HW280880   0.955   2.275   9.233  1.2614 -0.9571 -1.6393
24589SOL     OW80881   3.761   8.796   1.351  0.1205 -0.4626 -0.0116
24589SOL    HW180882   3.741   8.721   1.295  1.1326  0.3390 -1.4943
24589SOL    HW280883   3.747   8.763   1.440 -1.8816 -1.6577 -0.7062
24590SOL     OW80884  12.406  10.637   5.246 -0.5382  0.1364  0.3287
24590SOL    HW180885  12.387  10.614   5.337  0.4129  0.8669  0.7193
24590SOL    HW280886  12.498  10.663   5.246 -1.5496  4.5183  0.0689
24591SOL     OW80887   0.612   4.033   7.541  0.0151 -0.4481  0.2662
24591SOL    HW180888   0.692   3.990   7.572  0.8433  0.5162 -0.4539
24591SOL    HW280889   0.542   3.996   7.595  1.0171 -0.9329  1.2697
24592SOL     OW80890   6.836  11.989   2.225 -0.3780 -0.0698 -0.1306
24592SOL    HW180891   6.885  12.070   2.233  0.7828 -0.5085 -2.1982
24592SOL    HW280892   6.785  11.984   2.306  1.6042  1.3201  1.2953
24593SOL     OW80893   4.071   3.616   4.583 -0.1032  1.0260  0.2869
24593SOL    HW180894   4.081   3.536   4.634  0.7813  1.4927  0.8752
24593SOL    HW280895   4.000   3.597   4.522 -0.5153  0.1168  1.0302
24594SOL     OW80896   5.455   5.121   3.292  0.1471 -0.1203  0.1968
24594SOL    HW180897   5.470   5.085   3.380  0.7203  1.9941  1.0424
24594SOL    HW280898   5.543   5.135   3.257 -0.0787 -0.8615 -0.7006
24595SOL     OW80899  10.084   0.101   7.966  0.0505 -0.3279  0.3609
24595SOL    HW180900  10.037   0.024   7.997 -0.3349 -0.1639  0.1850
24595SOL    HW280901  10.163   0.104   8.020 -0.0757 -0.6754  0.5691
24596SOL     OW80902  10.990   2.383   7.839 -0.1823  0.2485  0.7509
24596SOL    HW180903  11.005   2.448   7.771  1.1602  1.6905  2.3221
24596SOL    HW280904  10.907   2.410   7.880 -1.4134 -1.0895 -0.7485
24597SOL     OW80905  11.587   3.891  10.642  0.0112  0.1995 -0.0278
24597SOL    HW180906  11.657   3.837  10.679 -0.0102 -0.3007 -0.7088
24597SOL    HW280907  11.599   3.884  10.547 -2.2627 -1.6600 -0.2752
24598SOL     OW80908   4.795   5.743  11.552 -0.1499 -0.5035  0.7117
24598SOL    HW180909   4.783   5.691  11.632 -0.5649  0.2000  1.1184
24598SOL    HW280910   4.730   5.710  11.491 -0.5903 -0.2890  1.0611
24599SOL     OW80911   0.242  10.086   3.015 -0.4034 -0.1583  0.2047
24599SOL    HW180912   0.228  10.041   3.099 -1.0922  1.2532  0.8759
24599SOL    HW280913   0.287  10.167   3.039  2.0607 -1.0248 -1.1212
24600SOL     OW80914  11.750   7.779   7.708  0.6658  0.6123  0.1250
24600SOL    HW180915  11.735   7.704   7.650 -1.8385  1.6705 -0.7256
24600SOL    HW280916  11.831   7.819   7.674  1.1892 -0.7979 -0.3773
24601SOL     OW80917  11.659   0.174   5.662  0.4692  0.0370 -0.4248
24601SOL    HW180918  11.735   0.158   5.606  0.6049  0.3852 -0.3453
24601SOL    HW280919  11.664   0.107   5.730  0.2282 -0.4763 -0.9012
24602SOL     OW80920   3.461  10.808   3.145 -0.2502  0.0406  0.4407
24602SOL    HW180921   3.535  10.791   3.204 -1.2509 -1.6869  1.2923
24602SOL    HW280922   3.430  10.720   3.121 -1.9100  0.7298 -0.0252
24603SOL     OW80923   2.014   3.987   9.439  0.0583 -0.0210  0.2277
24603SOL    HW180924   2.009   3.892   9.424 -0.7237  0.1977 -1.0835
24603SOL    HW280925   1.957   4.025   9.372 -0.7527  1.3190  1.6207
24604SOL     OW80926   6.528   1.633   7.574  1.0310 -0.3020  0.4134
24604SOL    HW180927   6.508   1.710   7.627  0.4293 -1.0279  1.2853
24604SOL    HW280928   6.490   1.652   7.489 -2.2179 -0.9472  1.5415
24605SOL     OW80929   7.240  10.021   2.267  0.4863  0.2531 -0.0514
24605SOL    HW180930   7.305  10.082   2.233 -1.3850  1.5821 -1.4770
24605SOL    HW280931   7.176  10.012   2.196 -0.5762 -1.4650  1.0477
24606SOL     OW80932   5.930  11.866   5.843 -0.3859 -0.1112 -0.4823
24606SOL    HW180933   6.006  11.901   5.889 -0.8809 -0.3729  0.5508
24606SOL    HW280934   5.855  11.885   5.899 -0.7480 -2.2700 -0.1270
24607SOL     OW80935   0.128   4.787   7.024 -0.5260  0.2737  0.2156
24607SOL    HW180936   0.068   4.757   6.955 -0.0516 -1.7812  0.6110
24607SOL    HW280937   0.163   4.706   7.061 -0.0374  1.3560  2.2421
24608SOL     OW80938   8.762   6.031   7.278  0.0191 -0.0481 -0.3950
24608SOL    HW180939   8.831   5.965   7.272  0.7358  0.7404 -1.0676
24608SOL    HW280940   8.707   6.016   7.201 -1.0135 -1.1261  0.4995
24609SOL     OW80941   3.539  12.314   6.472 -0.6263 -0.0181  0.1899
24609SOL    HW180942   3.599  12.242   6.455 -0.2951  0.4069 -0.5007
24609SOL    HW280943   3.591  12.393   6.457 -1.2412  0.3610 -0.0012
24610SOL     OW80944   3.660   9.880  12.429  0.4313 -0.1114 -0.3015
24610SOL    HW180945   3.700   9.928  12.356  0.3794  1.0040  0.3796
24610SOL    HW280946   3.598   9.942  12.467  0.3839 -0.7112  0.6301
24611SOL     OW80947   4.805   6.649   4.054 -0.3010 -0.1634  0.0602
24611SOL    HW180948   4.871   6.603   4.105 -0.4701 -0.7037 -0.2060
24611SOL    HW280949   4.776   6.720   4.112  0.4259  0.0123  0.2205
24612SOL     OW80950   4.435   4.690   5.015 -0.5544  0.6156  0.1886
24612SOL    HW180951   4.401   4.603   5.037  0.4611 -0.0392 -0.7121
24612SOL    HW280952   4.395   4.710   4.930 -1.1681  1.2538  0.6224
24613SOL     OW80953   8.210   3.727   5.531 -0.3760  0.6466  0.4732
24613SOL    HW180954   8.246   3.797   5.584 -1.4550  1.0591  0.6912
24613SOL    HW280955   8.149   3.770   5.471  2.0995  0.4718 -2.4575
24614SOL     OW80956  11.626   5.032  11.865  0.4240 -0.0603 -0.6466
24614SOL    HW180957  11.668   4.974  11.801  1.9441  0.7896 -0.4805
24614SOL    HW280958  11.591   4.973  11.931 -1.4551 -0.9850 -2.3525
24615SOL     OW80959   5.236  10.144   9.519 -0.0736  0.0160  0.1736
24615SOL    HW180960   5.233  10.204   9.444 -0.0064 -1.6790 -1.2303
24615SOL    HW280961   5.327  10.144   9.546 -0.1082  0.6783  0.3086
24616SOL     OW80962   5.339   7.077   4.721 -0.5336  0.0943  0.5270
24616SOL    HW180963   5.339   7.016   4.795  0.0676  0.9023  1.2103
24616SOL    HW280964   5.421   7.126   4.729  0.1284 -0.6144 -1.3753
24617SOL     OW80965   7.244   4.504   4.764  0.4270 -0.0648  0.0985
24617SOL    HW180966   7.257   4.477   4.855 -0.3842 -0.7942  0.0075
24617SOL    HW280967   7.320   4.559   4.745  0.0224  1.1088  1.6002
24618SOL     OW80968   0.915  12.202   3.682 -0.7531 -0.4420  0.2211
24618SOL    HW180969   0.928  12.135   3.749 -1.2806 -0.7284  0.0473
24618SOL    HW280970   0.884  12.153   3.605  2.6137 -0.5483 -1.2383
24619SOL     OW80971   5.385   1.577   7.171 -0.5691 -0.3088  0.5416
24619SOL    HW180972   5.463   1.545   7.126 -1.4862 -0.5691 -0.9197
24619SOL    HW280973   5.385   1.532   7.255 -0.0291 -1.5527 -0.1090
24620SOL     OW80974   6.012  10.640   0.164 -0.3762  0.0765  0.1002
24620SOL    HW180975   6.096  10.629   0.208 -1.0819 -0.4699  1.3467
24620SOL    HW280976   6.030  10.705   0.095  1.2332 -0.5836 -0.1602
24621SOL     OW80977  12.445  10.677   8.766 -0.0164  0.4112 -0.3344
24621SOL    HW180978  12.475  10.631   8.688 -0.6366 -0.9554  0.1945
24621SOL    HW280979  12.515  10.740   8.786  2.1137 -2.0171  0.3571
24622SOL     OW80980   3.490  11.863   1.739  0.0258 -0.1688  0.5883
24622SOL    HW180981   3.509  11.796   1.673  1.2523  0.3739  0.3605
24622SOL    HW280982   3.399  11.887   1.723 -0.1367 -1.1038  0.0598
24623SOL     OW80983   8.147   0.502   9.315  0.3830  0.5588  0.1979
24623SOL    HW180984   8.071   0.495   9.373  1.5139  1.0295  1.8141
24623SOL    HW280985   8.219   0.465   9.366  0.9194 -1.7563 -2.0498
24624SOL     OW80986   6.747   9.767  10.229 -0.0660  0.1065 -0.3562
24624SOL    HW180987   6.704   9.779  10.144 -0.6089  2.2523  0.1545
24624SOL    HW280988   6.684   9.718  10.281 -0.2117 -0.2233 -0.8358
24625SOL     OW80989   0.652   9.662   1.778 -0.1403  0.4057  0.3474
24625SOL    HW180990   0.564   9.678   1.812 -1.3564 -1.5217 -1.5811
24625SOL    HW280991   0.663   9.567   1.787  2.1082  0.7083  1.2783
24626SOL     OW80992   8.462  12.380   4.247 -0.9288  0.3724  0.2361
24626SOL    HW180993   8.433  12.347   4.161 -0.7745  0.3250  0.2035
24626SOL    HW280994   8.556  12.368   4.247 -0.6323  2.2506 -0.4221
24627SOL     OW80995   9.208   7.061   4.005  0.5980 -0.1445  0.4479
24627SOL    HW180996   9.157   7.011   4.069  1.8739 -2.6063 -0.3344
24627SOL    HW280997   9.171   7.037   3.920 -0.3285  2.2020  0.0938
24628SOL     OW80998   8.055   7.684  11.286 -0.3175  0.3876 -0.6205
24628SOL    HW180999   8.104   7.643  11.214 -0.7271 -0.0026 -0.6827
24628SOL    HW281000   8.116   7.748  11.323 -0.1730  0.7491 -1.4530
24629SOL     OW81001   3.300   3.383   0.190 -0.0239 -0.0072 -0.0123
24629SOL    HW181002   3.276   3.475   0.197 -1.0836 -0.3300  0.9644
24629SOL    HW281003   3.248   3.350   0.117 -0.8676 -0.1800  0.6509
24630SOL     OW81004   5.020  12.444   0.466  0.6020 -0.0352  0.4495
24630SOL    HW181005   4.986  12.356   0.482 -1.8015  0.5284 -0.9889
24630SOL    HW281006   5.071  12.466   0.544  0.4065 -2.2914  1.2604
24631SOL     OW81007   6.780   2.018   8.579  0.2113 -0.2749  0.0518
24631SOL    HW181008   6.757   1.953   8.646 -0.1846  0.4455  0.6343
24631SOL    HW281009   6.859   2.061   8.614  1.3672 -1.4333 -1.0370
24632SOL     OW81010   5.524  10.947   5.921 -0.0682 -0.1843 -0.0770
24632SOL    HW181011   5.479  10.975   5.841  0.1241  1.3804  0.3374
24632SOL    HW281012   5.511  10.852   5.923 -1.2706 -0.0813 -1.2348
24633SOL     OW81013   0.770  12.748   7.374 -0.2548 -0.1355  0.3981
24633SOL    HW181014   0.768  12.680   7.441 -1.6471 -0.4647  0.0511
24633SOL    HW281015   0.790  12.828   7.421  0.1157 -0.5738  0.9999
24634SOL     OW81016  10.691   9.393   3.465 -0.0474  0.3758 -0.0533
24634SOL    HW181017  10.647   9.308   3.468 -1.0070  0.8766  1.3171
24634SOL    HW281018  10.735   9.400   3.550 -0.8382  1.6614  0.2846
24635SOL     OW81019   3.750   3.117   0.071  0.2708  0.4254  0.3111
24635SOL    HW181020   3.822   3.091   0.014 -1.3287 -0.4707 -1.4051
24635SOL    HW281021   3.750   3.212   0.067  2.1616  0.5391  1.4647
24636SOL     OW81022   8.702   3.874   1.839  0.0636  0.1811 -0.2299
24636SOL    HW181023   8.668   3.950   1.792 -0.1387  1.3352  1.6445
24636SOL    HW281024   8.633   3.809   1.833 -0.0081  0.3545 -1.3764
24637SOL     OW81025   9.739   7.282   7.021 -0.0601 -0.2220 -0.1363
24637SOL    HW181026   9.773   7.250   6.937  0.1807  1.2862 -0.6438
24637SOL    HW281027   9.796   7.355   7.044  0.7217 -1.4443  2.0574
24638SOL     OW81028  12.834  10.508   2.604  0.1149  0.0873 -0.0648
24638SOL    HW181029  12.895  10.518   2.531 -1.0604  3.0447 -0.8133
24638SOL    HW281030  12.751  10.484   2.563  0.0129 -0.6726  0.5716
24639SOL     OW81031   8.632   6.312   6.757  0.0746  0.1203 -0.1167
24639SOL    HW181032   8.685   6.332   6.680  0.2320 -3.1108 -0.9923
24639SOL    HW281033   8.545   6.292   6.721  0.5041 -2.8495  0.2222
24640SOL     OW81034  10.472   5.995  12.456  0.2935 -0.2761 -0.6980
24640SOL    HW181035  10.406   5.944  12.503 -0.0865  1.2783  0.5444
24640SOL    HW281036  10.555   5.958  12.484  0.0001 -1.2905 -1.1242
24641SOL     OW81037  10.319  12.600   7.576  0.2140  0.1885 -0.3762
24641SOL    HW181038  10.314  12.580   7.670  0.9334  0.7552 -0.2015
24641SOL    HW281039  10.250  12.548   7.536  1.0034 -1.4001  0.2405
24642SOL     OW81040  12.940   5.894   3.593  0.2470  0.3081 -0.3182
24642SOL    HW181041  12.904   5.903   3.681 -2.0534  4.0305 -1.4107
24642SOL    HW281042  13.015   5.953   3.592  1.2481 -0.9280 -0.4774
24643SOL     OW81043   6.159  12.266   7.142 -0.4757 -0.0725  0.3894
24643SOL    HW181044   6.109  12.242   7.220  1.9632 -0.8241  1.8277
24643SOL    HW281045   6.250  12.268   7.172  0.4157  0.9160 -2.1589
24644SOL     OW81046  11.078   2.609  10.434  0.4960  0.2233  0.1094
24644SOL    HW181047  11.140   2.628  10.364  0.0541  0.8103 -0.1319
24644SOL    HW281048  11.132   2.598  10.512  0.9471  0.0877 -0.2207
24645SOL     OW81049   4.804   4.551   6.961 -0.2244  0.0464 -0.3776
24645SOL    HW181050   4.748   4.626   6.943 -0.0171  0.1386 -0.6480
24645SOL    HW281051   4.787   4.491   6.888 -0.5541 -0.2653 -0.0466
24646SOL     OW81052   0.407   5.775  10.049  0.0146 -0.0076 -0.4915
24646SOL    HW181053   0.460   5.779   9.970 -1.0110 -1.3275 -1.2824
24646SOL    HW281054   0.375   5.685  10.052  0.4098 -0.1239  1.6913
24647SOL     OW81055  10.309   5.562   9.777  0.0513  0.2382 -0.3980
24647SOL    HW181056  10.292   5.655   9.791  0.7089  0.1901  0.8290
24647SOL    HW281057  10.307   5.551   9.681  1.3600  1.7705 -0.6348
24648SOL     OW81058  11.223   7.347   8.040 -0.0451  0.5637 -0.0513
24648SOL    HW181059  11.255   7.425   7.993  1.2218 -0.5350 -1.0769
24648SOL    HW281060  11.178   7.295   7.973 -0.7927  0.3327  0.6074
24649SOL     OW81061  12.448   0.316   4.656  1.0299  0.4067  0.3785
24649SOL    HW181062  12.456   0.320   4.752  0.6347 -1.3251  0.5291
24649SOL    HW281063  12.357   0.290   4.641  1.1299  0.5163 -0.4662
24650SOL     OW81064   4.763   7.561   0.475  0.5768 -0.1927  0.2632
24650SOL    HW181065   4.685   7.566   0.530 -0.3184 -0.6232 -0.9412
24650SOL    HW281066   4.794   7.471   0.488  0.8798 -0.0299  0.7199
24651SOL     OW81067   5.041   0.917   8.090  0.1934 -0.2130 -0.2327
24651SOL    HW181068   4.950   0.942   8.103  0.0351 -0.9495  0.1026
24651SOL    HW281069   5.086   0.999   8.072 -0.2695  0.3582  1.1124
24652SOL     OW81070   8.534   6.839   1.143  0.3618 -0.3183  0.2016
24652SOL    HW181071   8.622   6.830   1.182  0.3573 -2.1617 -0.1591
24652SOL    HW281072   8.550   6.856   1.051  0.3312 -0.3069  0.1982
24653SOL     OW81073   6.919   9.918   1.949 -0.1486  0.0418  0.7665
24653SOL    HW181074   6.838   9.962   1.921  0.6825  0.5814 -0.9104
24653SOL    HW281075   6.889   9.845   2.002 -1.7105  0.6614  0.7962
24654SOL     OW81076   7.436   2.600   7.336 -0.0340  1.0019 -0.8413
24654SOL    HW181077   7.371   2.570   7.273  1.1900  0.1984 -1.7492
24654SOL    HW281078   7.510   2.629   7.282  0.8403  0.7653  0.2142
24655SOL     OW81079  10.239   9.151   5.876 -0.0411  0.0006  0.2752
24655SOL    HW181080  10.238   9.132   5.969 -0.8169  0.4439  0.3715
24655SOL    HW281081  10.284   9.236   5.869 -0.4503  0.2220  0.3047
24656SOL     OW81082  12.397   1.495   4.498  0.2897 -0.3139 -0.3993
24656SOL    HW181083  12.303   1.506   4.485 -0.2459 -2.1267  1.4888
24656SOL    HW281084  12.405   1.425   4.563  2.9152  0.5880  0.3833
24657SOL     OW81085   0.419  11.074   6.973 -0.5227  0.0702 -0.1657
24657SOL    HW181086   0.417  11.009   7.043  1.3002  0.4891  0.3341
24657SOL    HW281087   0.507  11.112   6.978 -0.7749  0.9925 -1.8931
24658SOL     OW81088  11.311   1.634   9.461  0.1175 -0.0932 -0.3398
24658SOL    HW181089  11.336   1.708   9.516  1.9281 -0.1537 -1.0150
24658SOL    HW281090  11.363   1.560   9.494  0.9384 -0.2270 -1.8325
24659SOL     OW81091   5.486   0.296   9.742 -0.5772  0.2403 -0.1777
24659SOL    HW181092   5.554   0.331   9.683 -1.0479  0.1125 -0.8114
24659SOL    HW281093   5.405   0.335   9.709 -1.2923 -2.2587 -1.6167
24660SOL     OW81094   8.819   7.644   9.783 -0.5134 -0.2238  0.2721
24660SOL    HW181095   8.852   7.734   9.780 -1.8133  0.2725  0.1935
24660SOL    HW281096   8.847   7.611   9.869  0.8570 -0.1085 -0.1173
24661SOL     OW81097   9.651  11.351  10.919  0.2311 -0.2328  0.3869
24661SOL    HW181098   9.590  11.277  10.922 -0.5308  0.3696 -0.0394
24661SOL    HW281099   9.649  11.380  10.828 -0.1598  0.8731  0.7298
24662SOL     OW81100   0.550  12.930   4.091  0.2492 -0.4881  0.7019
24662SOL    HW181101   0.504  12.905   4.011  1.7040  2.8665 -1.3818
24662SOL    HW281102   0.488  12.984   4.139  0.1625 -0.5504  0.6595
24663SOL     OW81103  12.599   7.033   5.613 -0.2406 -0.6435  0.3724
24663SOL    HW181104  12.527   7.037   5.550  0.0638 -1.4778 -0.0463
24663SOL    HW281105  12.678   7.045   5.561  0.0705 -2.1853  0.4473
24664SOL     OW81106   9.159   5.265   1.728  0.1177 -0.1857 -0.5031
24664SOL    HW181107   9.106   5.193   1.763 -0.4296  1.4062  2.3178
24664SOL    HW281108   9.155   5.255   1.633 -0.1330 -3.6767 -0.2291
24665SOL     OW81109   7.025   9.238  12.788  0.3336  0.2199  0.1006
24665SOL    HW181110   7.008   9.291  12.866 -1.3217  2.1339 -1.4360
24665SOL    HW281111   6.989   9.152  12.808 -0.4816  0.8214  1.2857
24666SOL     OW81112   0.453   5.360   2.078 -0.0623  0.6606 -0.6098
24666SOL    HW181113   0.469   5.366   1.984  0.0215 -0.7343 -0.7138
24666SOL    HW281114   0.539   5.377   2.118  0.1652  0.1016 -0.8482
24667SOL     OW81115   3.849   6.108   0.713  0.7857 -0.7107 -1.0947
24667SOL    HW181116   3.945   6.104   0.706  1.0171  0.0957  1.0390
24667SOL    HW281117   3.829   6.067   0.797 -0.6759  0.0238 -1.0603
24668SOL     OW81118   2.719  12.827   3.132  0.1577 -0.2029  0.2738
24668SOL    HW181119   2.705  12.802   3.040  1.6029  1.0996 -0.3530
24668SOL    HW281120   2.737  12.745   3.177  1.2389 -0.6942 -0.9850
24669SOL     OW81121   3.298   1.071  11.294  0.3274 -0.0941 -0.3083
24669SOL    HW181122   3.242   0.995  11.312  0.4233 -0.2199 -0.5316
24669SOL    HW281123   3.237   1.145  11.287  0.3900  0.2073  1.7995
24670SOL     OW81124   0.383   9.324   2.862 -0.2682  0.1098  0.0654
24670SOL    HW181125   0.370   9.250   2.803 -0.0074 -0.7458  1.0483
24670SOL    HW281126   0.428   9.390   2.809  0.5089 -0.8765 -0.5287
24671SOL     OW81127   8.986   1.112   0.887 -0.2254 -0.5228  1.0187
24671SOL    HW181128   9.031   1.141   0.966 -0.8698 -0.1474  1.2578
24671SOL    HW281129   8.941   1.032   0.913  0.5060 -1.0415  0.7090
24672SOL     OW81130   7.803   5.868  10.407 -0.5252 -0.0732  0.6097
24672SOL    HW181131   7.844   5.786  10.383  4.0502  1.9903  0.4105
24672SOL    HW281132   7.745   5.889  10.333  0.3862 -1.7659 -0.6316
24673SOL     OW81133  11.734  12.412   7.491  0.4693  0.1184  0.1694
24673SOL    HW181134  11.813  12.452   7.455 -0.1047 -0.7769 -2.2840
24673SOL    HW281135  11.765  12.331   7.532  1.2174  1.4589  2.4421
24674SOL     OW81136   3.724   5.587   9.175 -0.6479  0.6289 -0.2334
24674SOL    HW181137   3.747   5.578   9.267 -0.0118 -0.4525 -0.4811
24674SOL    HW281138   3.648   5.530   9.163 -0.2315  0.1315 -0.5448
24675SOL     OW81139  10.239   3.159   9.593  0.3695  0.2586  0.0477
24675SOL    HW181140  10.283   3.076   9.608  1.8591  0.4947 -2.4001
24675SOL    HW281141  10.175   3.139   9.524  0.5029  1.0569 -0.3138
24676SOL     OW81142   4.667   8.073   9.538 -0.2290 -0.6488  0.2423
24676SOL    HW181143   4.607   8.141   9.569  1.2331  0.6610  0.2782
24676SOL    HW281144   4.610   7.999   9.518 -1.8175  0.4164  0.6417
24677SOL     OW81145   8.286   5.436  12.590  0.2403  0.2102 -0.1885
24677SOL    HW181146   8.240   5.437  12.506  0.0334 -0.9497 -0.1125
24677SOL    HW281147   8.217   5.449  12.655  0.0113 -1.3142 -0.0869
24678SOL     OW81148   3.626   3.119   2.500  0.3916  0.1890  0.2168
24678SOL    HW181149   3.653   3.195   2.552 -0.5176 -0.0148  1.0020
24678SOL    HW281150   3.569   3.156   2.432  0.6301  0.3070  0.0782
24679SOL     OW81151   3.377  10.008  12.046 -0.2792  0.3022 -0.2052
24679SOL    HW181152   3.409  10.015  11.956 -2.4625  0.2607 -1.0622
24679SOL    HW281153   3.365   9.914  12.060 -1.6607  0.3917 -0.5859
24680SOL     OW81154   5.016   6.769   3.574 -0.7913  0.2422 -0.0565
24680SOL    HW181155   4.989   6.858   3.596  2.2706  1.4142 -0.6232
24680SOL    HW281156   4.973   6.750   3.490  0.3693  2.1908 -1.1552
24681SOL     OW81157  10.631   1.367   6.727  0.7151  0.0495  0.2254
24681SOL    HW181158  10.645   1.301   6.659 -0.2053  0.4467 -0.3568
24681SOL    HW281159  10.536   1.376   6.733  0.7841 -0.0175  1.6114
24682SOL     OW81160   7.065   1.728   3.576  0.0035  0.5558 -0.3447
24682SOL    HW181161   7.137   1.792   3.581  0.6818 -0.2197 -0.0246
24682SOL    HW281162   7.036   1.732   3.485 -0.6488  2.0476 -0.1021
24683SOL     OW81163  12.569   8.042   1.500  0.1015  0.3775 -0.2696
24683SOL    HW181164  12.581   7.955   1.540 -1.1655  1.0005  1.6281
24683SOL    HW281165  12.490   8.034   1.448  0.0199  0.3690 -0.1455
24684SOL     OW81166   6.516   4.762   6.285 -0.2863 -0.1231  0.5582
24684SOL    HW181167   6.581   4.693   6.280 -3.0099 -2.7916 -3.0510
24684SOL    HW281168   6.520   4.806   6.200 -1.2852  1.6122  1.3325
24685SOL     OW81169   0.008   1.504   5.128  0.4606 -0.1904 -0.1555
24685SOL    HW181170  -0.069   1.486   5.074  0.4257 -0.5391  0.0098
24685SOL    HW281171   0.005   1.438   5.197 -0.1903  1.0018  1.0060
24686SOL     OW81172   7.687   1.768   9.120 -0.4206 -0.1319  0.2324
24686SOL    HW181173   7.736   1.803   9.194 -0.4419 -0.0967  0.2301
24686SOL    HW281174   7.623   1.707   9.159 -1.4416  1.0010  0.3851
24687SOL     OW81175   9.840  10.297   1.672 -0.2802 -0.6378  0.3866
24687SOL    HW181176   9.813  10.385   1.700 -1.9835 -0.9143 -0.3066
24687SOL    HW281177   9.763  10.243   1.683 -0.1655 -1.3937 -2.0206
24688SOL     OW81178   2.711   4.107   9.826 -0.0448  0.3684 -0.4143
24688SOL    HW181179   2.686   4.018   9.849  0.1100  0.1919 -0.9185
24688SOL    HW281180   2.798   4.099   9.787  0.0374  0.7581 -0.3210
24689SOL     OW81181   0.030   8.534   9.034  0.0775  0.3035  0.1804
24689SOL    HW181182  -0.053   8.494   9.059  0.3369  0.2363  0.9488
24689SOL    HW281183   0.032   8.617   9.082  0.2959  0.4647 -0.1036
24690SOL     OW81184   9.045   4.928  11.817  0.0703  0.1981 -0.4655
24690SOL    HW181185   9.099   4.943  11.895  0.3283 -2.4462 -0.0374
24690SOL    HW281186   9.104   4.883  11.756 -0.5295  0.9856 -1.6728
24691SOL     OW81187  12.832   7.106   7.728 -0.1685 -0.0013  0.1769
24691SOL    HW181188  12.746   7.131   7.760  0.0631  0.7894  0.2004
24691SOL    HW281189  12.868   7.050   7.797 -0.0811  0.8631  0.8623
24692SOL     OW81190   8.410   1.361  12.758  0.1632 -0.6363 -0.1965
24692SOL    HW181191   8.351   1.416  12.809  0.9854 -1.3648  1.6104
24692SOL    HW281192   8.368   1.275  12.759 -0.1092 -0.5313 -1.2976
24693SOL     OW81193   9.733   2.428   1.578  0.2292  0.1850 -0.0718
24693SOL    HW181194   9.738   2.339   1.541  1.3358  0.4363 -0.5676
24693SOL    HW281195   9.778   2.421   1.662  0.4602  0.3116 -0.1849
24694SOL     OW81196   9.606   7.858  12.386 -0.1724 -0.7089 -0.0067
24694SOL    HW181197   9.617   7.777  12.436 -3.2659 -0.7941  0.7073
24694SOL    HW281198   9.555   7.832  12.310  0.2682  0.3138 -0.6651
24695SOL     OW81199   1.480   7.846   9.448  0.0684 -0.2022 -0.2163
24695SOL    HW181200   1.393   7.864   9.413 -1.2685  3.2210  3.8818
24695SOL    HW281201   1.537   7.908   9.402 -0.3464 -0.1557 -0.6800
24696SOL     OW81202  11.214   0.262   3.014 -0.0643 -0.2643 -0.0496
24696SOL    HW181203  11.252   0.341   2.977 -0.1821 -1.1531 -2.2331
24696SOL    HW281204  11.281   0.195   3.004 -0.8715 -1.0197 -0.6819
24697SOL     OW81205  11.018   9.391   3.574 -0.1243 -0.4957  0.4098
24697SOL    HW181206  11.001   9.296   3.568 -0.2042 -0.3950 -2.1786
24697SOL    HW281207  11.112   9.397   3.587 -0.1411 -0.9260  0.7855
24698SOL     OW81208  11.307  10.192  10.872  0.3842 -0.0653 -0.4267
24698SOL    HW181209  11.315  10.098  10.885 -0.7906 -0.2243 -0.7261
24698SOL    HW281210  11.335  10.230  10.955 -0.4637 -0.7557  0.1957
24699SOL     OW81211   4.595   4.470   8.968 -0.3704  0.5148  0.0716
24699SOL    HW181212   4.500   4.470   8.970 -0.4150 -1.0869 -0.6719
24699SOL    HW281213   4.620   4.555   9.006 -2.0901  1.5970 -1.0938
24700SOL     OW81214   7.750   8.210   4.382 -0.2002  0.0910 -0.2188
24700SOL    HW181215   7.793   8.127   4.403 -0.5330  0.0425  0.2927
24700SOL    HW281216   7.687   8.223   4.453 -1.0539  0.1489 -0.9615
24701SOL     OW81217   7.882   0.251   3.232 -0.3105 -0.4345  0.7858
24701SOL    HW181218   7.851   0.300   3.156  0.6983  1.0981  1.2947
24701SOL    HW281219   7.944   0.310   3.274 -0.6087 -1.3487  2.6341
24702SOL     OW81220  10.040   5.738   4.774  0.4610  0.5734 -0.5637
24702SOL    HW181221  10.037   5.767   4.865  0.5921 -1.2565  0.0552
24702SOL    HW281222  10.132   5.722   4.757  0.3596  0.2051 -0.7779
24703SOL     OW81223   5.161  10.608   7.597  0.3478 -0.2590  0.1370
24703SOL    HW181224   5.168  10.680   7.659 -0.1983 -0.4908  0.4789
24703SOL    HW281225   5.191  10.644   7.514  0.4771  0.2382  0.3985
24704SOL     OW81226  11.285   0.929  12.462  0.3459  0.4243  0.0755
24704SOL    HW181227  11.333   0.874  12.400 -0.2297  0.6629 -0.5968
24704SOL    HW281228  11.336   1.010  12.468  1.1114 -0.0945  0.9484
24705SOL     OW81229   4.644   3.544   6.215 -0.0867  0.1652 -0.1661
24705SOL    HW181230   4.669   3.494   6.138 -0.2362 -0.3687  0.1295
24705SOL    HW281231   4.661   3.485   6.289  1.8159  1.3060  0.3808
24706SOL     OW81232  10.500   9.267   5.777 -0.1587 -0.3190  0.6962
24706SOL    HW181233  10.575   9.298   5.828  0.3421 -0.4309  0.0337
24706SOL    HW281234  10.518   9.296   5.688 -1.5408  0.7946  0.7517
24707SOL     OW81235  12.540   3.757   8.717 -0.2099 -0.5700  0.4994
24707SOL    HW181236  12.498   3.835   8.682  0.1100 -1.1416 -1.2271
24707SOL    HW281237  12.565   3.781   8.806 -2.4845  0.4091  0.9412
24708SOL     OW81238   6.739  11.482   3.064  0.4330  0.2423 -0.2538
24708SOL    HW181239   6.653  11.470   3.104 -0.0547 -1.5983 -1.7101
24708SOL    HW281240   6.740  11.574   3.037 -0.8312  0.4485  0.3312
24709SOL     OW81241  10.716   4.602   8.095 -0.2760 -0.5951  0.1148
24709SOL    HW181242  10.635   4.645   8.121  0.1284  0.3281 -0.1200
24709SOL    HW281243  10.724   4.528   8.155 -1.5894 -1.0575 -0.2444
24710SOL     OW81244   1.657  11.904   2.466  0.2628  0.6622  0.1950
24710SOL    HW181245   1.594  11.973   2.443  0.8017  0.9162 -0.5569
24710SOL    HW281246   1.722  11.949   2.521 -0.7379  0.1745  1.8259
24711SOL     OW81247   8.223   7.095   0.194  0.4388 -0.4401 -0.3373
24711SOL    HW181248   8.194   7.005   0.177  2.2718 -0.9547 -0.9449
24711SOL    HW281249   8.245   7.129   0.107  0.9665  0.1686  0.0298
24712SOL     OW81250   0.074   0.952  10.005  0.5567  0.0370  0.1009
24712SOL    HW181251   0.000   0.930   9.948  2.3806 -2.1493 -1.6009
24712SOL    HW281252   0.092   1.044   9.986 -0.8020  0.1895 -0.5368
24713SOL     OW81253  12.510  11.587   0.765 -0.4745  0.4152  0.7842
24713SOL    HW181254  12.512  11.532   0.687  1.0909 -2.1010  2.4442
24713SOL    HW281255  12.560  11.665   0.741 -1.8756  0.7409 -1.3316
24714SOL     OW81256   2.070   4.438  12.604  0.0540  0.3932  0.5573
24714SOL    HW181257   2.112   4.366  12.652  2.5651  0.5121 -1.2869
24714SOL    HW281258   2.112   4.517  12.638 -1.3964  0.8919  1.2794
24715SOL     OW81259  12.701   2.260   3.436  0.2228 -0.2536  0.3648
24715SOL    HW181260  12.793   2.285   3.431  0.3512 -0.3452  1.7324
24715SOL    HW281261  12.654   2.342   3.454  0.2806 -0.4643  1.5994
24716SOL     OW81262   6.920   8.761   2.723  0.1086  0.5933 -1.1570
24716SOL    HW181263   6.946   8.696   2.789 -1.7264 -0.0724 -1.0532
24716SOL    HW281264   6.995   8.821   2.719  0.6248  0.1727  0.9037
24717SOL     OW81265   7.694   8.722  10.020  0.8298  0.3368 -0.4612
24717SOL    HW181266   7.621   8.690  10.073  1.8410 -2.6172 -0.6690
24717SOL    HW281267   7.660   8.722   9.930  0.7062  0.3045 -0.4153
24718SOL     OW81268   3.707   8.910   3.772  0.2933 -0.4960 -0.0403
24718SOL    HW181269   3.730   8.982   3.829  0.9415 -0.6709 -0.0785
24718SOL    HW281270   3.790   8.876   3.741 -0.0228 -0.9755 -0.3769
24719SOL     OW81271   1.243   3.758   8.332  0.4528 -0.3100  0.0771
24719SOL    HW181272   1.286   3.692   8.386 -0.3961 -0.9366 -0.0036
24719SOL    HW281273   1.303   3.833   8.334 -0.0877  0.1505  2.8665
24720SOL     OW81274   5.832   6.871   8.850  0.4531 -0.2208  0.3171
24720SOL    HW181275   5.787   6.879   8.766  0.7343  1.7774  0.3008
24720SOL    HW281276   5.923   6.851   8.827  0.3183 -0.6963  0.1961
24721SOL     OW81277   0.648   3.718  12.715 -0.2029 -0.4351 -0.2351
24721SOL    HW181278   0.630   3.631  12.750  1.9051 -0.9929 -0.3763
24721SOL    HW281279   0.562   3.759  12.705 -1.0768 -1.1359  3.2026
24722SOL     OW81280   6.151   1.837   9.311 -0.0273  0.2636  0.1148
24722SOL    HW181281   6.067   1.880   9.324  0.2607  0.7893  0.2763
24722SOL    HW281282   6.194   1.889   9.243  0.0590 -0.1562 -0.1525
24723SOL     OW81283   2.256   3.627   8.653 -0.2457 -0.1144  0.4186
24723SOL    HW181284   2.217   3.668   8.730 -1.3493 -0.9246  0.3154
24723SOL    HW281285   2.308   3.697   8.612 -1.9671  1.1569  0.3059
24724SOL     OW81286   8.725   4.095   6.171 -0.4216 -0.3222 -0.4636
24724SOL    HW181287   8.787   4.145   6.118 -2.2372  0.8369 -1.5911
24724SOL    HW281288   8.681   4.161   6.225  0.0959 -1.2718  1.1944
24725SOL     OW81289   9.429   8.660  10.359  0.1509 -0.7281 -0.1593
24725SOL    HW181290   9.385   8.577  10.339  2.8881 -2.2091 -0.4865
24725SOL    HW281291   9.486   8.676  10.284  0.5903  0.8459  0.4669
24726SOL     OW81292   4.453   9.643   8.824  0.4490  0.3721 -0.5639
24726SOL    HW181293   4.454   9.598   8.740  1.7277  0.4136 -0.5991
24726SOL    HW281294   4.463   9.573   8.889  0.2716  0.4153 -0.4885
24727SOL     OW81295   3.482   0.810   7.448 -0.3752  0.4417 -0.5246
24727SOL    HW181296   3.546   0.872   7.413  0.9471  0.0136  1.0051
24727SOL    HW281297   3.503   0.805   7.541 -1.9721 -0.5421 -0.1822
24728SOL     OW81298  12.032  10.049   0.081  0.0060  0.4086  0.5540
24728SOL    HW181299  11.989  10.014   0.159 -1.5968  0.5938 -0.2004
24728SOL    HW281300  12.049   9.972   0.026  0.5332  0.3468  0.8034
24729SOL     OW81301   5.493   7.196   9.080 -0.0886 -0.1455  0.5308
24729SOL    HW181302   5.491   7.247   8.999 -0.2838 -0.8215  0.0902
24729SOL    HW281303   5.584   7.166   9.088  0.2611  1.0717  1.3232
24730SOL     OW81304   5.346   3.009   4.198 -0.3266 -0.1833  0.1280
24730SOL    HW181305   5.261   3.000   4.156 -0.6118  1.2513  0.3501
24730SOL    HW281306   5.330   3.065   4.274  0.6733 -0.5742  0.6518
24731SOL     OW81307   8.717   3.042   6.789  1.0180 -0.2610 -0.6414
24731SOL    HW181308   8.760   2.966   6.829 -0.4879  0.3409  2.4087
24731SOL    HW281309   8.658   3.005   6.724  0.7782 -1.6778  0.3383
24732SOL     OW81310   4.063   7.573   9.619 -0.3544  0.8556 -0.1935
24732SOL    HW181311   4.009   7.602   9.545 -0.4120  0.5756 -0.2623
24732SOL    HW281312   4.147   7.616   9.605 -0.6962  1.6349  0.1514
24733SOL     OW81313   1.210   2.064  11.895 -0.2425  0.1398  0.4463
24733SOL    HW181314   1.168   2.113  11.966 -2.3896  0.3120 -0.8470
24733SOL    HW281315   1.139   2.016  11.853  0.9166  0.0924 -1.6337
24734SOL     OW81316   7.745   5.872  10.868  0.2044 -0.2523  0.1566
24734SOL    HW181317   7.700   5.953  10.845  0.0048  0.1740  1.8699
24734SOL    HW281318   7.821   5.870  10.810  1.1262  2.0402  1.1533
24735SOL     OW81319   4.248   1.933   1.726 -0.1997  0.1018  0.4687
24735SOL    HW181320   4.338   1.948   1.757 -0.3570  2.4948 -0.0357
24735SOL    HW281321   4.207   2.019   1.728 -2.1617 -0.7433 -0.4051
24736SOL     OW81322   7.096  12.505   9.512  0.0697  0.0512  0.9046
24736SOL    HW181323   7.134  12.439   9.570 -1.8255 -1.4390  0.5827
24736SOL    HW281324   7.010  12.524   9.550 -1.5574 -1.5183 -1.6692
24737SOL     OW81325   8.596   3.145   8.571  0.5746 -0.0884 -0.1197
24737SOL    HW181326   8.509   3.118   8.541  0.7258 -0.9583  0.2094
24737SOL    HW281327   8.625   3.209   8.506  0.2252 -0.7667 -0.9556
24738SOL     OW81328   7.816   2.717  11.979 -0.2733 -0.1835  0.1280
24738SOL    HW181329   7.895   2.696  11.930  0.3156  2.1577 -0.0241
24738SOL    HW281330   7.801   2.639  12.034  0.1403 -2.0770 -2.2645
24739SOL     OW81331  10.716   6.746   6.268 -0.0535  0.1393 -0.3915
24739SOL    HW181332  10.735   6.653   6.275 -0.7247  0.0846  1.1099
24739SOL    HW281333  10.724   6.766   6.175  1.3195 -1.1401 -0.5730
24740SOL     OW81334  10.796   2.440   2.905  0.3794 -0.0386  0.1962
24740SOL    HW181335  10.784   2.522   2.952  0.0554 -0.4894  0.9262
24740SOL    HW281336  10.723   2.385   2.933  2.1814 -1.6518  2.1197
24741SOL     OW81337  11.508   4.073   3.840  0.1022  0.1224  0.0692
24741SOL    HW181338  11.432   4.057   3.783 -1.1875 -0.4376  1.8699
24741SOL    HW281339  11.509   4.168   3.852 -1.0743  0.0396  0.9888
24742SOL     OW81340   6.163   7.604   0.473  0.7325  0.2397  0.9493
24742SOL    HW181341   6.094   7.647   0.424  1.0739 -1.3881 -1.0893
24742SOL    HW281342   6.136   7.512   0.478  2.3471 -0.2799  0.8196
24743SOL     OW81343   5.656  11.746   2.202  1.1502 -0.1142 -0.1818
24743SOL    HW181344   5.642  11.699   2.284 -2.1181 -1.7328 -1.4788
24743SOL    HW281345   5.719  11.693   2.154  1.0372 -0.6357  0.2335
24744SOL     OW81346   6.686   2.700  11.734  0.1548 -0.0528 -0.1711
24744SOL    HW181347   6.751   2.632  11.714  0.6879  0.0288  1.1766
24744SOL    HW281348   6.738   2.774  11.764 -0.5426 -0.3969  2.1556
24745SOL     OW81349   3.413   1.907  12.612  0.0917 -0.2154 -0.1531
24745SOL    HW181350   3.419   2.001  12.594 -1.4912  0.0376  0.4438
24745SOL    HW281351   3.437   1.899  12.704  1.6274 -0.6128 -0.5635
24746SOL     OW81352   0.255   1.753   4.381  0.0274 -0.1676  0.1341
24746SOL    HW181353   0.166   1.783   4.396 -0.4874 -1.2255 -0.6905
24746SOL    HW281354   0.300   1.829   4.344 -0.7606  0.1437 -0.2091
24747SOL     OW81355   9.563   8.200   3.599 -0.1190  0.6103 -0.2311
24747SOL    HW181356   9.620   8.159   3.664  3.1441  2.2421 -1.8177
24747SOL    HW281357   9.531   8.279   3.643 -1.5237 -0.4850  0.7885
24748SOL     OW81358   5.813   4.902  10.012  0.7360 -0.3878  0.4273
24748SOL    HW181359   5.820   4.810  10.035 -0.6334 -0.5711  0.2126
24748SOL    HW281360   5.899   4.939  10.032  1.0780 -1.5582  1.1963
24749SOL     OW81361   7.776  10.537   3.290  0.3100 -0.6616  0.1508
24749SOL    HW181362   7.735  10.478   3.353 -2.5457  1.2201  0.2052
24749SOL    HW281363   7.817  10.605   3.343 -1.0653  0.2726  0.0598
24750SOL     OW81364   2.487   0.217   5.676  0.0585  0.1632 -0.2127
24750SOL    HW181365   2.401   0.259   5.668 -0.0570 -0.2290 -1.2687
24750SOL    HW281366   2.477   0.155   5.748 -0.7058 -0.2262 -0.6354
24751SOL     OW81367   2.291   0.962   0.520  0.0630 -0.1516  0.1237
24751SOL    HW181368   2.333   0.916   0.593  1.4110  0.8645  0.0224
24751SOL    HW281369   2.208   0.992   0.556 -0.1502 -1.3245  0.6539
24752SOL     OW81370   8.911   1.412   8.951  0.1667  0.0759  0.4277
24752SOL    HW181371   8.902   1.440   8.860  1.1620 -0.0589  0.2740
24752SOL    HW281372   8.860   1.476   9.001  0.4828  0.7822 -0.1291
24753SOL     OW81373   5.405  10.154   1.353  0.7688 -0.3913  0.2383
24753SOL    HW181374   5.378  10.188   1.267  1.3792  0.6437  0.4377
24753SOL    HW281375   5.470  10.087   1.332 -0.1101 -1.1443 -0.1469
24754SOL     OW81376  12.606   3.458   9.522 -0.1709 -0.4344 -0.1091
24754SOL    HW181377  12.695   3.485   9.499 -0.7963  1.9816 -0.0337
24754SOL    HW281378  12.617   3.391   9.589  1.5705 -1.2704 -1.1769
24755SOL     OW81379   9.007   3.332  10.386 -0.2867  0.2974 -0.2569
24755SOL    HW181380   9.025   3.238  10.391 -0.9698  0.1186 -1.1013
24755SOL    HW281381   9.018   3.362  10.477  1.4907 -0.2850 -0.2214
24756SOL     OW81382  12.708   3.295  10.617 -0.2395 -0.0030  0.1187
24756SOL    HW181383  12.638   3.347  10.657 -0.4751  0.2150 -0.5535
24756SOL    HW281384  12.724   3.224  10.679 -1.2267 -0.1917  0.1751
24757SOL     OW81385   6.663   2.900   4.468  0.0069  0.9327 -0.1875
24757SOL    HW181386   6.646   2.961   4.540 -0.9730  0.9772 -0.4423
24757SOL    HW281387   6.758   2.902   4.456  0.3222  0.0859  1.8277
24758SOL     OW81388   4.615   5.232   4.821  0.5736 -0.1822  0.9900
24758SOL    HW181389   4.585   5.217   4.910 -1.3062 -1.5534  0.2129
24758SOL    HW281390   4.625   5.144   4.784  3.0706  0.3127  0.3507
24759SOL     OW81391   1.244   2.718   7.568 -0.4697  0.3439  0.0183
24759SOL    HW181392   1.238   2.623   7.559  0.4814  0.1565  1.1684
24759SOL    HW281393   1.292   2.747   7.490  0.7579 -0.3227  0.5128
24760SOL     OW81394   7.875  12.079   4.701 -0.1955 -0.1420  0.6265
24760SOL    HW181395   7.967  12.095   4.719 -0.1540 -0.5646  0.7850
24760SOL    HW281396   7.857  11.992   4.736 -0.8982  0.3339  1.5026
24761SOL     OW81397  12.345   4.979   7.396  0.2716 -0.4778  0.2686
24761SOL    HW181398  12.440   4.994   7.391  0.2453 -0.3216  0.2322
24761SOL    HW281399  12.306   5.059   7.362  0.1129 -0.1275  1.2443
24762SOL     OW81400   9.224   8.637   1.014 -0.4996  0.0856 -0.5699
24762SOL    HW181401   9.195   8.692   0.941  1.4923  0.4367 -1.1629
24762SOL    HW281402   9.228   8.549   0.977  0.5342  0.2668 -0.9216
24763SOL     OW81403   7.521   7.928   9.627  0.2768 -0.0892 -0.0800
24763SOL    HW181404   7.504   7.835   9.609  1.1872 -0.2305 -0.2860
24763SOL    HW281405   7.567   7.928   9.710 -3.1712  0.5113  2.0008
24764SOL     OW81406  11.580   3.423  12.077  0.8280  0.0758  0.1000
24764SOL    HW181407  11.584   3.383  12.164  0.3611  1.1312  0.6254
24764SOL    HW281408  11.597   3.351  12.017  1.0987 -0.6875  1.0625
24765SOL     OW81409  10.504   6.806   5.007  0.2308  0.1979  0.3831
24765SOL    HW181410  10.471   6.866   4.940 -0.0197  0.4910  0.7611
24765SOL    HW281411  10.476   6.719   4.978 -0.9429  0.4388  0.7215
24766SOL     OW81412   1.114   5.599   4.498 -0.6539 -0.1108  0.4442
24766SOL    HW181413   1.080   5.640   4.418  0.7471  3.5261  1.5131
24766SOL    HW281414   1.056   5.629   4.567 -0.1644 -0.8152  1.1767
24767SOL     OW81415   1.164   2.830   1.726  0.5623 -0.1773  0.1715
24767SOL    HW181416   1.125   2.844   1.812 -0.6644  1.7078 -0.6147
24767SOL    HW281417   1.241   2.776   1.743 -0.4740 -1.1283  2.2362
24768SOL     OW81418   7.351   2.507  10.975 -0.3179 -0.2178 -0.0979
24768SOL    HW181419   7.361   2.500  10.880  1.3450  1.1715 -0.0642
24768SOL    HW281420   7.393   2.428  11.008  0.8182  0.2139 -0.4619
24769SOL     OW81421  10.938   0.268   6.659  0.3098 -0.1762  0.0955
24769SOL    HW181422  11.007   0.222   6.611  2.6238  0.7752  2.2564
24769SOL    HW281423  10.887   0.311   6.592  1.7163 -1.0636 -1.6400
24770SOL     OW81424   4.172   2.729   6.465  0.7080  0.5133 -0.3840
24770SOL    HW181425   4.257   2.756   6.499  1.3073 -1.5564 -0.1171
24770SOL    HW281426   4.181   2.737   6.370  1.2930  0.0788 -0.3707
24771SOL     OW81427  10.306   4.387   8.212  0.4817  0.0391  0.4867
24771SOL    HW181428  10.279   4.299   8.239 -0.3460  0.4551  1.0587
24771SOL    HW281429  10.375   4.372   8.147  1.0155 -1.0141  1.2578
24772SOL     OW81430   3.522   5.413  10.710 -0.1396 -0.7200 -0.2108
24772SOL    HW181431   3.558   5.324  10.704  2.3458  0.1095  0.9486
24772SOL    HW281432   3.475   5.425  10.628  1.3425 -2.3678 -1.3906
24773SOL     OW81433  11.013   4.400   4.506 -0.0082 -0.7001 -0.0282
24773SOL    HW181434  11.055   4.417   4.421 -0.8587 -0.2842 -0.3830
24773SOL    HW281435  10.942   4.339   4.485 -2.3383  1.8997 -0.2436
24774SOL     OW81436   5.058  10.193   2.352 -0.0135 -0.4103 -0.6097
24774SOL    HW181437   5.067  10.214   2.445 -2.9412 -0.9028 -0.1319
24774SOL    HW281438   5.058  10.278   2.308  1.0412 -0.1599 -0.1671
24775SOL     OW81439  11.027  12.700   1.884 -0.0822  0.5031 -0.1107
24775SOL    HW181440  11.008  12.741   1.968 -1.2057  1.4565 -0.8028
24775SOL    HW281441  11.013  12.606   1.898  0.8063  0.5253  1.0348
24776SOL     OW81442   8.996  10.251  11.569 -0.2000 -0.1126  0.0110
24776SOL    HW181443   9.010  10.341  11.599 -2.0818 -0.0506  0.8500
24776SOL    HW281444   9.068  10.202  11.608  0.0200  0.7875  0.7977
24777SOL     OW81445  10.154   3.926   9.723  0.6120 -0.0408  0.5727
24777SOL    HW181446  10.229   3.912   9.780  0.0746  0.4138  1.4036
24777SOL    HW281447  10.189   3.917   9.634  1.3906 -1.0677  0.9659
24778SOL     OW81448   7.398   6.017  11.461  0.3584  0.5794 -0.5557
24778SOL    HW181449   7.475   6.073  11.452  1.0941 -0.2374  0.4640
24778SOL    HW281450   7.419   5.959  11.534 -1.8956  1.4140  0.8387
24779SOL     OW81451   9.414   3.021   2.973 -0.5290 -0.2654  0.0402
24779SOL    HW181452   9.363   3.071   2.909 -0.4031 -2.5761 -2.0452
24779SOL    HW281453   9.501   3.060   2.969  0.5147 -2.4046 -4.0723
24780SOL     OW81454   5.477   1.869   5.107  0.1337  0.1197 -0.0794
24780SOL    HW181455   5.551   1.824   5.067 -0.0545 -0.6509  0.3974
24780SOL    HW281456   5.406   1.860   5.044  0.1103 -0.2335 -0.0079
24781SOL     OW81457   9.296  12.222   9.722  0.0306 -0.5357 -0.0876
24781SOL    HW181458   9.388  12.245   9.724 -0.9683  4.9710 -1.4933
24781SOL    HW281459   9.265  12.238   9.811  0.1278 -0.9331  0.0207
24782SOL     OW81460   0.530   9.796   0.647 -0.4937  0.1872  0.0709
24782SOL    HW181461   0.518   9.781   0.553 -0.3727  2.6036 -0.3947
24782SOL    HW281462   0.621   9.769   0.664 -0.5034 -0.2291 -0.5081
24783SOL     OW81463   8.376  11.742   3.324 -0.3010 -0.3088  0.3247
24783SOL    HW181464   8.313  11.670   3.317 -0.4930 -0.1489  0.3713
24783SOL    HW281465   8.399  11.762   3.233 -2.3122  1.3564  0.0968
24784SOL     OW81466  12.023   5.842  10.299 -0.5498  0.2548 -0.2479
24784SOL    HW181467  12.062   5.779  10.359 -0.9884  0.8763  0.7112
24784SOL    HW281468  11.929   5.839  10.319 -0.7011  0.4825 -0.8955
24785SOL     OW81469   5.790   0.602  10.930 -0.0097  0.7795  0.7023
24785SOL    HW181470   5.702   0.586  10.963 -0.3133  1.2175  0.1262
24785SOL    HW281471   5.778   0.667  10.860  0.7694  0.8611  0.6343
24786SOL     OW81472  12.958   9.373  11.302  0.4347  0.0110 -0.2890
24786SOL    HW181473  13.014   9.313  11.253  0.5824 -0.0485 -0.0448
24786SOL    HW281474  12.869   9.343  11.283  0.5063 -0.2548 -0.2072
24787SOL     OW81475  11.979   5.669   0.224  0.5833  0.1769  0.3081
24787SOL    HW181476  12.073   5.665   0.204  0.5268  1.8419 -0.4590
24787SOL    HW281477  11.970   5.748   0.278 -0.5955  1.0353 -1.0873
24788SOL     OW81478  11.507   0.385  11.819 -0.1010 -0.6801  0.4912
24788SOL    HW181479  11.458   0.454  11.864 -0.2590  1.3896 -2.5144
24788SOL    HW281480  11.443   0.344  11.761  0.7274 -1.0769 -0.1606
24789SOL     OW81481   1.271   9.129   6.106  0.0337 -0.2262 -0.2932
24789SOL    HW181482   1.276   9.049   6.158 -0.3517 -0.2695 -0.3207
24789SOL    HW281483   1.271   9.200   6.171 -0.8108 -0.2917 -0.2090
24790SOL     OW81484   1.138  12.395   9.039 -0.4087 -0.8617 -0.4709
24790SOL    HW181485   1.132  12.437   8.953 -0.3198  1.0732  0.4163
24790SOL    HW281486   1.150  12.302   9.019 -0.9634 -0.5547 -2.5372
24791SOL     OW81487   2.272   4.725  10.258  0.2545 -0.1504  0.0815
24791SOL    HW181488   2.262   4.704  10.350  2.8440 -0.0371  0.4750
24791SOL    HW281489   2.337   4.663  10.226  1.1862  1.3130 -1.0360
24792SOL     OW81490   0.730   6.802   5.783 -0.5176  0.4899 -0.1696
24792SOL    HW181491   0.714   6.818   5.876  1.9520  1.3938  0.1558
24792SOL    HW281492   0.768   6.714   5.780 -1.6117  0.0033 -0.4947
24793SOL     OW81493   0.777   3.398   1.116 -0.1793 -0.2462  0.7421
24793SOL    HW181494   0.717   3.409   1.043  2.4268 -0.8051 -1.6822
24793SOL    HW281495   0.782   3.303   1.128 -1.5421 -0.1373  2.6134
24794SOL     OW81496   5.466   4.954   9.338 -0.1599 -0.6737 -0.1714
24794SOL    HW181497   5.507   4.997   9.413 -0.4736 -2.9804  1.4256
24794SOL    HW281498   5.533   4.956   9.270  0.6247  0.2992  0.5905
24795SOL     OW81499  11.860   3.515   5.320 -0.4768 -0.0714  0.3992
24795SOL    HW181500  11.832   3.518   5.228  0.2757  0.0639  0.1623
24795SOL    HW281501  11.876   3.606   5.343  0.2747 -0.1821  0.3536
24796SOL     OW81502   6.797   1.496  10.569 -0.0271 -0.6946  0.1095
24796SOL    HW181503   6.726   1.442  10.534  0.9391 -2.9750  1.4264
24796SOL    HW281504   6.876   1.460  10.528  0.6163 -0.0194  0.7376
24797SOL     OW81505   4.255   8.092   8.681 -0.1454 -0.2092  0.0077
24797SOL    HW181506   4.269   8.162   8.744 -0.1374 -0.1830 -0.0231
24797SOL    HW281507   4.269   8.012   8.731 -1.6828 -0.2410  0.4550
24798SOL     OW81508  11.605  12.627   2.381  0.0427  0.0364  0.1061
24798SOL    HW181509  11.555  12.572   2.321 -0.6569 -0.4726  1.1399
24798SOL    HW281510  11.658  12.566   2.432  1.1469  0.5155 -0.4268
24799SOL     OW81511  10.781   8.047   1.054  0.8601  0.1574  0.1061
24799SOL    HW181512  10.830   8.063   0.974 -1.2194  0.0687 -1.2425
24799SOL    HW281513  10.776   8.132   1.097  0.6572  0.5272 -0.6447
24800SOL     OW81514   7.234  12.650   9.913 -0.4004  0.2664 -0.3363
24800SOL    HW181515   7.188  12.724   9.952  0.5170  1.6064 -1.6883
24800SOL    HW281516   7.313  12.688   9.875  1.2103 -1.7503  0.7832
24801SOL     OW81517   9.380   0.365  12.803 -0.0429  0.0668 -0.4986
24801SOL    HW181518   9.465   0.321  12.797  0.2004  0.5529 -0.6510
24801SOL    HW281519   9.362   0.395  12.714  0.0236  0.7002 -0.3011
24802SOL     OW81520   6.430   2.970   2.813 -0.1974  0.0044  1.2966
24802SOL    HW181521   6.421   2.934   2.725 -2.0675  2.5389  0.3150
24802SOL    HW281522   6.454   2.895   2.868 -3.7585 -2.7481 -0.4850
24803SOL     OW81523   8.856   1.971   5.631 -0.4558  0.0277 -0.0340
24803SOL    HW181524   8.778   1.959   5.685 -0.6416 -0.1746 -0.3513
24803SOL    HW281525   8.919   2.012   5.691 -0.9627  0.6400  0.0865
24804SOL     OW81526   8.436   0.106   5.406  0.3466  0.1823  0.7111
24804SOL    HW181527   8.344   0.094   5.382  0.5577 -1.8338  0.7263
24804SOL    HW281528   8.440   0.080   5.498  0.7132  1.6041  1.1219
24805SOL     OW81529   9.118   8.131   7.080 -0.0702  0.5151  0.5454
24805SOL    HW181530   9.171   8.210   7.067  0.0561  0.7855  2.4979
24805SOL    HW281531   9.042   8.144   7.023  0.7974  1.2212 -0.4962
24806SOL     OW81532   1.148   3.261   3.612  0.0031 -0.4499  0.3736
24806SOL    HW181533   1.093   3.257   3.690 -0.2573 -0.7766  0.1756
24806SOL    HW281534   1.219   3.200   3.630  1.3634  1.3448  1.4256
24807SOL     OW81535   4.894   9.889   2.549  0.0945 -0.0800  0.2330
24807SOL    HW181536   4.897   9.939   2.631  2.3305  2.1715 -1.0970
24807SOL    HW281537   4.982   9.855   2.538 -0.2135 -0.4773 -1.1730
24808SOL     OW81538   8.412   5.736   3.496 -0.1256 -0.3473 -0.1177
24808SOL    HW181539   8.388   5.819   3.535  0.5456 -0.4686  0.5904
24808SOL    HW281540   8.495   5.753   3.451 -0.5654 -0.3638 -0.9456
24809SOL     OW81541  12.080  11.962   2.648  0.2636 -0.2416  0.4822
24809SOL    HW181542  12.110  12.052   2.631  0.5374 -0.3414  0.4366
24809SOL    HW281543  12.117  11.941   2.734 -0.1431 -0.1636  0.6807
24810SOL     OW81544   5.817   2.651   4.473 -0.0938 -0.3915 -0.2543
24810SOL    HW181545   5.807   2.736   4.515 -0.6488 -1.2216  1.3976
24810SOL    HW281546   5.731   2.610   4.482 -0.0635 -0.8158 -1.7626
24811SOL     OW81547   0.391   1.566   4.509 -0.6307 -0.5839 -0.1799
24811SOL    HW181548   0.441   1.534   4.433 -0.7787  0.0971 -0.5681
24811SOL    HW281549   0.319   1.616   4.471 -0.8221 -0.4083  0.4079
24812SOL     OW81550   5.026  10.347   1.569  0.4319 -0.6712 -0.1478
24812SOL    HW181551   5.052  10.266   1.526  1.5897  0.3784 -1.5369
24812SOL    HW281552   4.995  10.403   1.497 -0.2296  0.1738  0.7625
24813SOL     OW81553   1.191   8.864  11.075  0.3375  0.5551  0.1536
24813SOL    HW181554   1.187   8.876  10.981  0.0710  0.1776  0.1137
24813SOL    HW281555   1.135   8.788  11.092  0.8710  0.2415  0.5459
24814SOL     OW81556   5.049   2.832   7.001 -0.4910  0.2390  0.3120
24814SOL    HW181557   5.117   2.809   7.065  1.4496  0.8000 -1.4187
24814SOL    HW281558   5.001   2.751   6.986  1.4106 -0.8518 -0.1877
24815SOL     OW81559  12.425   7.405   7.388 -0.0311 -0.3838 -0.2198
24815SOL    HW181560  12.365   7.373   7.321  0.5391 -0.9375 -0.4718
24815SOL    HW281561  12.375   7.402   7.470  0.1046 -2.2438 -0.1714
24816SOL     OW81562   3.055   4.342   6.317 -0.3885 -0.2312 -0.3957
24816SOL    HW181563   3.003   4.319   6.394  1.2123  0.1253  0.8412
24816SOL    HW281564   3.037   4.435   6.303 -0.0274 -0.0801  0.1025
24817SOL     OW81565  10.620   4.310   0.532  0.5278  0.1150 -0.0078
24817SOL    HW181566  10.631   4.289   0.625  2.8530 -0.7459 -0.3993
24817SOL    HW281567  10.707   4.340   0.505 -0.1979  0.6589 -1.8314
24818SOL     OW81568   0.188   1.915   0.721 -0.4924 -0.0143  0.3779
24818SOL    HW181569   0.171   1.821   0.727  0.4215 -0.2259 -0.1246
24818SOL    HW281570   0.159   1.939   0.634  0.3808 -0.0876  0.0543
24819SOL     OW81571   1.108   5.348  12.639 -0.1957 -0.2145 -0.5724
24819SOL    HW181572   1.199   5.322  12.653 -0.2400 -1.9858 -2.9416
24819SOL    HW281573   1.060   5.265  12.633 -1.7982  0.6551 -0.4218
24820SOL     OW81574  11.084  11.142   1.502  0.8466  0.0540  0.5134
24820SOL    HW181575  11.151  11.210   1.500  0.4293  0.4829  0.9899
24820SOL    HW281576  11.121  11.074   1.557  1.5367 -0.4052 -0.4831
24821SOL     OW81577   1.113   4.525   9.715  0.6319  0.0592 -0.3007
24821SOL    HW181578   1.129   4.600   9.772  0.4880  0.3158 -0.5927
24821SOL    HW281579   1.032   4.547   9.669 -0.0918 -0.8296  0.5095
24822SOL     OW81580   1.864   6.695   6.644  0.8648  0.6720 -0.1498
24822SOL    HW181581   1.820   6.729   6.566 -0.5108 -0.6494  0.0085
24822SOL    HW281582   1.837   6.755   6.714 -0.2391  0.2314 -0.1722
24823SOL     OW81583   4.882   8.463   6.116  0.0585 -0.0427 -0.0800
24823SOL    HW181584   4.908   8.377   6.148  1.1297  0.3654  0.1633
24823SOL    HW281585   4.957   8.520   6.134 -1.1694  1.2780  1.1067
24824SOL     OW81586   8.062   7.233   0.675 -0.2805 -0.0818 -0.2585
24824SOL    HW181587   8.145   7.270   0.644 -0.8713 -0.1690 -1.9992
24824SOL    HW281588   8.023   7.304   0.726  0.1861  0.4833 -0.6703
24825SOL     OW81589   0.569   0.200   0.004  0.0359  0.3433 -0.2635
24825SOL    HW181590   0.485   0.159   0.023 -0.3155  1.3403  0.4091
24825SOL    HW281591   0.546   0.285  -0.032  0.7546  0.8385  0.4287
24826SOL     OW81592   8.056   0.316   1.237 -0.1340  0.0975  0.3525
24826SOL    HW181593   8.120   0.280   1.175  0.1773 -0.8739  1.1950
24826SOL    HW281594   8.009   0.382   1.188  2.1458  1.5371 -0.0537
24827SOL     OW81595   1.642   2.996   4.424 -0.2011 -0.0726  0.2117
24827SOL    HW181596   1.619   3.041   4.343 -0.0821  0.3563  0.4171
24827SOL    HW281597   1.559   2.957   4.453 -0.5391  0.9026  0.5896
24828SOL     OW81598   7.879   7.281  11.009 -0.3838 -0.1203  0.1927
24828SOL    HW181599   7.875   7.353  11.072 -3.7280 -0.2087  0.2248
24828SOL    HW281600   7.943   7.311  10.944 -0.1774  1.9563  1.2502
24829SOL     OW81601   5.861   8.116   5.152  0.2383 -0.4675  0.1579
24829SOL    HW181602   5.883   8.169   5.228  0.2687 -1.0126  0.5303
24829SOL    HW281603   5.839   8.180   5.084  1.8699  0.0743  0.0970
24830SOL     OW81604  11.303   1.038   1.562 -0.2232 -0.1086  0.2717
24830SOL    HW181605  11.305   1.078   1.648 -1.1099 -0.8399  0.6473
24830SOL    HW281606  11.240   1.090   1.512 -0.5760 -0.3816  0.4292
24831SOL     OW81607   8.691   7.739   5.756  0.0133 -0.1547  0.4142
24831SOL    HW181608   8.707   7.681   5.831  0.5616  1.4443  1.5925
24831SOL    HW281609   8.759   7.806   5.764 -0.8289  0.8593 -0.6826
24832SOL     OW81610   0.522  12.282   4.531 -0.2992 -0.2201  0.3702
24832SOL    HW181611   0.520  12.199   4.483  4.7847  0.0714 -0.9043
24832SOL    HW281612   0.557  12.258   4.617 -0.1830  0.4567  0.5131
24833SOL     OW81613   9.729   0.263   6.655  0.1381 -0.1300  0.3644
24833SOL    HW181614   9.660   0.199   6.636  1.0648 -1.4274  1.2239
24833SOL    HW281615   9.774   0.228   6.731  2.2191  0.2989 -0.6001
24834SOL     OW81616   1.980  10.939   6.661  0.1184  0.4971 -0.6421
24834SOL    HW181617   1.955  10.981   6.744  0.8553  1.8465 -1.0618
24834SOL    HW281618   2.074  10.926   6.669 -0.1001 -1.1729 -0.5127
24835SOL     OW81619   8.796  10.393   7.334  0.3843  0.2850  0.7630
24835SOL    HW181620   8.742  10.465   7.370  0.2807 -0.5113  2.2749
24835SOL    HW281621   8.810  10.418   7.243 -0.9872  1.4484  0.8241
24836SOL     OW81622   8.805   4.351   5.317  0.2386 -0.3581  0.2306
24836SOL    HW181623   8.784   4.444   5.329 -0.0172 -0.5918  1.9193
24836SOL    HW281624   8.736   4.318   5.260 -0.3297  0.2657  0.5337
24837SOL     OW81625   0.194   0.614  12.362 -0.6262 -0.5467  0.0563
24837SOL    HW181626   0.216   0.663  12.282  0.2194  1.1547  1.2610
24837SOL    HW281627   0.267   0.553  12.374 -0.0679  0.1396  0.2320
24838SOL     OW81628   7.861  12.216   5.532 -0.0488 -0.1408  0.5965
24838SOL    HW181629   7.902  12.261   5.458  2.1700  1.6991  2.7359
24838SOL    HW281630   7.916  12.139   5.546 -0.4164 -0.4422  0.3826
24839SOL     OW81631  11.308  10.571  11.228 -0.3245 -0.0303 -0.0683
24839SOL    HW181632  11.227  10.578  11.278 -1.8182 -2.7612 -1.8071
24839SOL    HW281633  11.367  10.523  11.286  0.1962  2.0613  1.2510
24840SOL     OW81634   9.107   7.656  10.673 -0.1064  0.2999 -0.6770
24840SOL    HW181635   9.202   7.653  10.660 -0.0110 -2.0047  0.0831
24840SOL    HW281636   9.096   7.688  10.762  0.0034  0.1287 -0.6002
24841SOL     OW81637   1.336  11.248   5.422 -0.6400 -0.5277 -0.2524
24841SOL    HW181638   1.426  11.242   5.388 -1.2602  2.4543 -2.8998
24841SOL    HW281639   1.284  11.198   5.358 -0.9941 -1.8109  0.9913
24842SOL     OW81640   3.731  10.511   7.741 -0.4031 -0.1479 -0.0098
24842SOL    HW181641   3.806  10.526   7.798 -1.0598  1.6251  0.4640
24842SOL    HW281642   3.767  10.509   7.653  0.3065 -0.3431  0.2747
24843SOL     OW81643   7.626   0.108  10.126 -0.2733  0.0216 -0.3518
24843SOL    HW181644   7.676   0.075  10.051 -0.0833 -1.1132  0.2548
24843SOL    HW281645   7.577   0.183  10.091 -2.9713 -2.5476 -2.6315
24844SOL     OW81646  10.208  10.765  12.569 -0.0363  0.2865  0.2355
24844SOL    HW181647  10.206  10.695  12.504  1.3917  0.3421  0.1178
24844SOL    HW281648  10.165  10.839  12.527 -0.5250 -0.1613 -0.0590
24845SOL     OW81649   0.081   5.854  10.864 -0.4978 -0.9926 -0.3620
24845SOL    HW181650   0.151   5.917  10.848  0.6253 -1.0138  3.5088
24845SOL    HW281651   0.126   5.770  10.875 -1.1842 -1.2069  1.0890
24846SOL     OW81652  11.803   8.982   7.256 -0.1066 -0.5661 -0.1892
24846SOL    HW181653  11.815   9.068   7.217 -3.8576  0.2160  0.0394
24846SOL    HW281654  11.786   8.999   7.349 -1.2928 -1.4913 -0.2112
24847SOL     OW81655   1.685  11.887   0.797  0.3409  0.0829 -0.5209
24847SOL    HW181656   1.706  11.979   0.809 -0.4653  0.2165 -0.1277
24847SOL    HW281657   1.614  11.870   0.858  1.6698 -1.2520  0.7490
24848SOL     OW81658  10.345  12.273   1.009 -0.0354  0.3172  0.2047
24848SOL    HW181659  10.277  12.234   0.956  1.2393 -0.5971 -0.8006
24848SOL    HW281660  10.334  12.233   1.096 -1.3417  0.8978  0.3360
24849SOL     OW81661  12.214   2.591   4.790  1.0267 -0.2197 -0.1022
24849SOL    HW181662  12.243   2.544   4.712  0.6328  0.6406 -0.7755
24849SOL    HW281663  12.255   2.677   4.784 -2.2422  1.3888 -1.5767
24850SOL     OW81664  10.512   7.629   3.714 -0.5188  0.2181 -0.1641
24850SOL    HW181665  10.598   7.606   3.746 -0.7154  1.5324  1.4429
24850SOL    HW281666  10.491   7.562   3.648  1.0861 -0.9467  0.4689
24851SOL     OW81667   5.268   2.336   4.195 -0.1788 -0.1755 -0.4077
24851SOL    HW181668   5.340   2.357   4.135  0.0632 -1.7179 -0.7044
24851SOL    HW281669   5.285   2.390   4.272  0.3951  0.6653 -1.1006
24852SOL     OW81670  10.788  11.826   2.811 -0.5043  0.3176  0.1306
24852SOL    HW181671  10.858  11.862   2.756 -0.9924 -0.2595 -0.8959
24852SOL    HW281672  10.716  11.887   2.800 -0.9650 -0.3625 -0.7457
24853SOL     OW81673   9.400   0.765   9.921  0.5990  0.0443  0.0106
24853SOL    HW181674   9.416   0.738  10.012 -1.9090 -0.4545  0.3833
24853SOL    HW281675   9.332   0.831   9.928  1.3696  1.0419 -1.4636
24854SOL     OW81676   9.806   1.711   3.582  0.3840 -0.1526 -0.3965
24854SOL    HW181677   9.739   1.653   3.548  1.6212 -1.4188 -0.7759
24854SOL    HW281678   9.819   1.777   3.514  1.2501 -1.3508 -1.4232
24855SOL     OW81679   0.201   5.695   4.154  0.0070 -0.5738 -0.2359
24855SOL    HW181680   0.199   5.787   4.129 -1.4423  0.2227  2.4192
24855SOL    HW281681   0.255   5.693   4.233 -0.1193 -1.9669 -0.1635
24856SOL     OW81682  11.560   5.014   7.433 -0.2245 -0.7446  0.2039
24856SOL    HW181683  11.653   5.034   7.445  0.1697 -1.2677 -1.6597
24856SOL    HW281684  11.557   4.918   7.428 -0.8159 -0.7109 -0.1752
24857SOL     OW81685   3.554  10.863   4.698  0.2404  0.5467  0.2442
24857SOL    HW181686   3.557  10.909   4.782 -0.8474  0.3533  0.4067
24857SOL    HW281687   3.481  10.904   4.651 -0.5569 -0.7656  0.2653
24858SOL     OW81688  12.798   9.447   5.767  0.4397  0.1731 -0.3897
24858SOL    HW181689  12.857   9.499   5.713  0.0340  1.8810  0.7334
24858SOL    HW281690  12.832   9.457   5.856  0.0563 -1.1189 -0.0762
24859SOL     OW81691   8.202   5.650   2.337  0.5685 -0.2182  0.0358
24859SOL    HW181692   8.163   5.571   2.375 -0.5035  0.3318  0.1166
24859SOL    HW281693   8.226   5.704   2.412  0.9734 -0.3076 -0.0261
24860SOL     OW81694  10.159   4.895   9.703 -0.2472  0.2147 -0.2876
24860SOL    HW181695  10.129   4.824   9.760  0.4715  0.1104 -0.0317
24860SOL    HW281696  10.201   4.957   9.763 -1.2014  1.0578 -0.4452
24861SOL     OW81697   6.341   5.846  12.057 -0.0904  0.3004  0.5957
24861SOL    HW181698   6.357   5.803  11.973  0.4936 -0.7102  1.2055
24861SOL    HW281699   6.279   5.788  12.102 -1.0660  1.2680  0.5390
24862SOL     OW81700   1.042   2.890   3.248  0.3562 -0.6674  0.3477
24862SOL    HW181701   0.990   2.969   3.264 -0.0582 -0.9343  0.3336
24862SOL    HW281702   1.107   2.890   3.318  0.7245 -0.0121  0.0135
24863SOL     OW81703   5.042  11.237   8.352  0.1898 -0.5777  0.5065
24863SOL    HW181704   5.105  11.306   8.372  0.5485 -1.0078  0.8930
24863SOL    HW281705   5.034  11.240   8.257  0.7414 -0.4666  0.4552
24864SOL     OW81706   9.669   2.754  11.110 -0.8141 -0.1181 -0.1777
24864SOL    HW181707   9.751   2.704  11.111  0.3651  1.7068  0.6254
24864SOL    HW281708   9.612   2.709  11.172 -0.1594 -1.0245 -0.2187
24865SOL     OW81709   3.901   6.252   5.850 -0.4920  0.4235  0.0955
24865SOL    HW181710   3.869   6.167   5.819 -0.7148  0.1879  0.9368
24865SOL    HW281711   3.937   6.294   5.772 -0.7946 -0.2532 -0.4224
24866SOL     OW81712  12.187   5.619  10.127 -0.0890 -0.1443 -0.0806
24866SOL    HW181713  12.147   5.704  10.142  1.4309  0.7433 -0.8950
24866SOL    HW281714  12.228   5.625  10.041  2.7045 -0.5972  1.1145
24867SOL     OW81715   9.586   9.074   7.329 -0.0948 -0.0414 -0.2002
24867SOL    HW181716   9.664   9.126   7.345  0.3766 -0.4928 -0.9701
24867SOL    HW281717   9.588   9.007   7.398  0.9732 -0.9046 -1.0337
24868SOL     OW81718   3.570  10.924   0.334 -0.1924  0.9400 -0.2371
24868SOL    HW181719   3.628  10.867   0.283  1.3170  1.9150  0.3113
24868SOL    HW281720   3.553  10.876   0.415 -1.6971 -0.1379 -1.1429
24869SOL     OW81721  10.759  10.722   8.426  0.2455  0.6424  0.3194
24869SOL    HW181722  10.692  10.724   8.357  0.0912  0.2691  0.4513
24869SOL    HW281723  10.715  10.757   8.503 -0.0949 -0.4539  0.6457
24870SOL     OW81724   9.752  12.811   2.565 -0.0365  0.0759 -0.0677
24870SOL    HW181725   9.670  12.851   2.593 -0.6297 -0.2847 -1.2479
24870SOL    HW281726   9.811  12.824   2.639 -1.4332 -0.5368  1.1962
24871SOL     OW81727  12.721   8.583  12.969 -0.1802 -0.3637 -0.0141
24871SOL    HW181728  12.646   8.599  12.912  0.3019  1.0132 -0.3038
24871SOL    HW281729  12.778   8.659  12.956  0.0382 -0.0717  2.1678
24872SOL     OW81730  10.096   9.768  12.275 -0.1784  0.0994  0.1320
24872SOL    HW181731  10.108   9.849  12.226  0.2431  0.2228  0.4332
24872SOL    HW281732  10.028   9.721  12.227 -1.9211  1.5327  1.0703
24873SOL     OW81733   8.692  12.927   2.376  0.1183 -0.0645  0.3760
24873SOL    HW181734   8.713  12.886   2.460 -1.7989  1.6920  1.8426
24873SOL    HW281735   8.770  12.976   2.353  0.9384 -1.1642  0.7534
24874SOL     OW81736   2.402   6.709   0.789 -0.2162  0.0814 -0.0799
24874SOL    HW181737   2.479   6.652   0.798 -0.0964  0.0785 -1.0927
24874SOL    HW281738   2.327   6.651   0.803 -0.0895 -0.3188 -0.9961
24875SOL     OW81739   6.350   5.094   6.701 -0.6129 -0.0328 -0.0083
24875SOL    HW181740   6.264   5.088   6.660  0.2530 -2.2326 -1.7405
24875SOL    HW281741   6.380   5.004   6.706  1.3525  0.6288  1.1142
24876SOL     OW81742   1.734  11.692   8.911  0.3542 -0.2620 -0.8334
24876SOL    HW181743   1.648  11.717   8.946  0.5599 -0.6690  0.0087
24876SOL    HW281744   1.752  11.606   8.951  2.3245  0.9692  1.1719
24877SOL     OW81745   7.094   2.377   0.519 -0.3534  0.1450  0.0181
24877SOL    HW181746   7.034   2.333   0.458  1.8665 -0.5339 -1.7890
24877SOL    HW281747   7.036   2.420   0.582 -2.7162 -2.5100 -0.1254
24878SOL     OW81748   6.956   5.125   0.327 -0.5850  0.2567 -0.0244
24878SOL    HW181749   7.027   5.142   0.265  0.7760  2.0040  1.8801
24878SOL    HW281750   6.985   5.050   0.378 -0.6284  0.2719  0.0227
24879SOL     OW81751   1.621   1.889   4.795  0.5620  0.1641  0.3127
24879SOL    HW181752   1.606   1.795   4.809  0.9321  0.2421  1.2789
24879SOL    HW281753   1.613   1.900   4.700  2.1765 -1.1384 -0.0197
24880SOL     OW81754   6.722   8.779   9.987  0.3704 -0.3874 -0.4871
24880SOL    HW181755   6.790   8.820   9.934  0.9433 -0.5174  0.1303
24880SOL    HW281756   6.649   8.841   9.986  1.1260  0.5284  0.2078
24881SOL     OW81757  12.194   0.054   8.786 -0.0884 -0.0662  0.0219
24881SOL    HW181758  12.182   0.106   8.865  0.4578  0.8165 -0.4594
24881SOL    HW281759  12.212  -0.034   8.818 -1.2401 -0.0280  0.8498
24882SOL     OW81760   3.807   1.762   5.286  0.1217 -0.3421  0.2383
24882SOL    HW181761   3.762   1.791   5.207 -2.6810 -0.0578  1.8280
24882SOL    HW281762   3.884   1.818   5.292 -0.5929  0.8711 -1.2870
24883SOL     OW81763   7.240  10.072   3.615  0.3023 -0.3133  0.0711
24883SOL    HW181764   7.150  10.073   3.584 -0.3919  0.1046  1.9787
24883SOL    HW281765   7.258   9.980   3.633 -0.3448 -0.2055  1.3052
24884SOL     OW81766   8.156   1.579   2.592  0.1573  0.1334 -0.1427
24884SOL    HW181767   8.197   1.521   2.656  1.3048  0.3557 -0.6497
24884SOL    HW281768   8.084   1.620   2.640  1.6716  1.1685  1.3798
24885SOL     OW81769   5.773   8.546   3.089  0.1891 -0.2973  0.2326
24885SOL    HW181770   5.852   8.582   3.129  0.6279  0.4196 -1.1752
24885SOL    HW281771   5.706   8.554   3.156  1.3702 -1.2779  1.6065
24886SOL     OW81772  10.093   3.518  12.872  0.3750 -0.0441 -0.5122
24886SOL    HW181773  10.048   3.557  12.797 -0.0796  0.2295 -0.1048
24886SOL    HW281774  10.051   3.433  12.884 -0.8361  0.6862  0.5748
24887SOL     OW81775  12.436   6.912  12.498  0.2121 -0.4483  0.3044
24887SOL    HW181776  12.493   6.978  12.538  0.3016 -0.7860  0.7382
24887SOL    HW281777  12.475   6.894  12.413 -0.1025  0.4435 -0.0397
24888SOL     OW81778   2.782  12.495   8.293  0.3325  0.2164  0.5897
24888SOL    HW181779   2.806  12.487   8.385 -2.0096  1.9706  1.4321
24888SOL    HW281780   2.845  12.558   8.257 -0.1981  1.3829  1.6367
24889SOL     OW81781   5.117   0.338  12.466 -0.1678  0.1256 -0.8352
24889SOL    HW181782   5.039   0.298  12.429 -1.2754  1.1584  0.2840
24889SOL    HW281783   5.174   0.355  12.391 -1.7624  0.9505 -1.9198
24890SOL     OW81784  12.423   1.171   8.676 -0.2020 -0.0066 -0.5070
24890SOL    HW181785  12.368   1.155   8.753  0.9543  0.4775  0.4326
24890SOL    HW281786  12.377   1.240   8.628 -0.6407  0.0826  0.0279
24891SOL     OW81787   7.162   6.809   9.273  0.0154  0.1274 -0.0603
24891SOL    HW181788   7.086   6.855   9.236 -0.0561  1.6637  1.8086
24891SOL    HW281789   7.217   6.880   9.307  1.2717 -1.0804  0.4811
24892SOL     OW81790  11.948   3.689  12.126 -0.2517  0.6118  0.3478
24892SOL    HW181791  12.009   3.748  12.171  0.1525  0.0717  0.5150
24892SOL    HW281792  11.882   3.747  12.089  0.4623  1.2248  0.0097
24893SOL     OW81793   6.191  10.789   5.179  0.1591 -0.5402  0.0741
24893SOL    HW181794   6.274  10.820   5.143 -0.8527  1.3798 -0.7378
24893SOL    HW281795   6.154  10.733   5.110  0.2860 -0.5231 -0.0072
24894SOL     OW81796   7.262  10.497   9.235 -0.4971 -0.1617 -0.0073
24894SOL    HW181797   7.333  10.464   9.290 -0.9326 -0.8724  0.1416
24894SOL    HW281798   7.302  10.566   9.182  0.9440 -2.1527 -1.6897
24895SOL     OW81799  11.020   9.634  12.177  0.2039  0.5872 -0.1714
24895SOL    HW181800  10.931   9.658  12.150 -0.5271  0.4582  1.9457
24895SOL    HW281801  11.051   9.575  12.108 -1.4355  0.4659 -0.8499
24896SOL     OW81802   8.883   8.331  10.421 -0.1003 -0.4818  0.5665
24896SOL    HW181803   8.891   8.365  10.510  0.1680 -2.3636  1.3074
24896SOL    HW281804   8.789   8.333  10.402 -0.3020 -1.2387  1.4137
24897SOL     OW81805   5.155   7.052   6.952 -0.1906  0.2409  0.0987
24897SOL    HW181806   5.130   7.131   7.001 -0.7074 -0.9531  1.8527
24897SOL    HW281807   5.232   7.019   6.999  0.7361  0.3046 -1.3298
24898SOL     OW81808   8.878   1.458   4.346 -0.3320 -0.0442  0.0530
24898SOL    HW181809   8.896   1.365   4.337  1.7248  0.3115 -0.0661
24898SOL    HW281810   8.818   1.465   4.420  2.7701 -1.2335  2.9506
24899SOL     OW81811   4.548   6.335   1.063  0.4509 -0.3699 -0.4826
24899SOL    HW181812   4.492   6.374   1.130 -0.0699 -0.3403 -0.9216
24899SOL    HW281813   4.554   6.243   1.087 -1.0682 -0.7184 -1.2478
24900SOL     OW81814   8.029   0.246  11.759 -0.1058  0.0578 -0.4376
24900SOL    HW181815   8.042   0.287  11.673  1.3857  0.0597 -0.2416
24900SOL    HW281816   7.975   0.309  11.807  1.6659  1.6119 -0.3370
24901SOL     OW81817  12.710   8.346   4.966  0.0899  0.0949  0.0211
24901SOL    HW181818  12.620   8.358   4.994 -0.0215  2.3929 -1.1147
24901SOL    HW281819  12.762   8.404   5.021  0.2993  1.9149 -1.9504
24902SOL     OW81820  10.749   5.962  11.369  0.0838  0.9838  0.2040
24902SOL    HW181821  10.681   5.912  11.414  0.0537  1.1683  0.3644
24902SOL    HW281822  10.814   5.979  11.437  0.4361  0.5490 -0.0191
24903SOL     OW81823   4.610   9.731   3.575  0.0606  0.1484  0.1192
24903SOL    HW181824   4.553   9.682   3.634 -0.6762 -0.6883 -1.2230
24903SOL    HW281825   4.696   9.688   3.584 -0.3813 -0.8995 -0.4211
24904SOL     OW81826   7.732  10.525   6.268 -0.1010  0.3806  0.9044
24904SOL    HW181827   7.791  10.465   6.312  0.2903  1.1228  1.4244
24904SOL    HW281828   7.774  10.611   6.277 -0.6900  0.7484  0.2687
24905SOL     OW81829   4.059  10.821   4.297  0.0173  0.1067 -0.3243
24905SOL    HW181830   4.137  10.815   4.353  0.7624  0.0165 -1.3303
24905SOL    HW281831   4.015  10.737   4.308  0.3898 -0.0734 -0.1872
24906SOL     OW81832   5.272   1.917   0.270 -0.2294 -0.3694  0.6036
24906SOL    HW181833   5.238   2.007   0.278  1.0713  0.3346 -1.0921
24906SOL    HW281834   5.364   1.924   0.293  0.4674 -0.7408 -1.7521
24907SOL     OW81835   4.245  10.933   4.052  0.5674  0.1924 -0.4446
24907SOL    HW181836   4.295  10.927   4.133 -0.1388  0.5322  0.0284
24907SOL    HW281837   4.173  10.871   4.064  1.3737 -0.9848 -1.4947
24908SOL     OW81838  12.497   3.215   2.814  0.5944  0.1335  0.2311
24908SOL    HW181839  12.487   3.310   2.806  0.5592  0.0571 -0.7135
24908SOL    HW281840  12.551   3.190   2.739  0.2825 -0.6436  0.2583
24909SOL     OW81841   8.784  10.445   9.616  0.3465 -0.1986 -0.0809
24909SOL    HW181842   8.812  10.536   9.622  0.2324 -0.2145  0.8458
24909SOL    HW281843   8.865  10.394   9.629  1.2003 -0.3035 -4.3926
24910SOL     OW81844  10.438   4.377   7.482 -0.2557 -0.0016 -0.3938
24910SOL    HW181845  10.386   4.318   7.428  0.8435  0.2636 -1.8103
24910SOL    HW281846  10.525   4.376   7.442  0.7762 -0.2029  1.7105
24911SOL     OW81847  11.768   5.280  10.072 -0.1308 -0.5510 -0.6117
24911SOL    HW181848  11.798   5.229   9.997 -0.1315  1.3226 -1.9406
24911SOL    HW281849  11.830   5.353  10.079 -1.1179  0.2544  0.1210
24912SOL     OW81850   2.939   5.523   6.375 -0.0137  0.9038 -0.0518
24912SOL    HW181851   2.860   5.523   6.320 -1.3481 -0.2493  1.7532
24912SOL    HW281852   2.928   5.447   6.432  2.9961 -0.0005 -0.4993
24913SOL     OW81853   4.574  11.866   2.966 -0.4749 -0.3508  0.2813
24913SOL    HW181854   4.571  11.785   3.017 -0.9124  0.6932  2.0117
24913SOL    HW281855   4.661  11.902   2.982 -0.7353  0.1576  0.5929
24914SOL     OW81856   6.203   9.142  10.795  0.4792  0.5379  0.4955
24914SOL    HW181857   6.277   9.157  10.855  2.9362 -0.3450 -2.0994
24914SOL    HW281858   6.164   9.060  10.825  2.7311 -0.7964  0.0024
24915SOL     OW81859   0.059   3.746  12.501  0.0495 -0.2041 -0.5169
24915SOL    HW181860  -0.007   3.693  12.456 -0.6574  1.1179 -1.0674
24915SOL    HW281861   0.009   3.805  12.557  0.7692  0.5739 -0.6706
24916SOL     OW81862   6.281   7.993   3.500  0.5755 -0.5733 -0.0993
24916SOL    HW181863   6.278   7.959   3.590  0.0178  0.0277  0.1186
24916SOL    HW281864   6.258   8.086   3.509 -3.1915 -1.2103 -1.2265
24917SOL     OW81865  11.399   4.003  12.713 -0.0621 -0.1113 -0.4120
24917SOL    HW181866  11.338   3.972  12.646 -0.4369  2.4248 -1.3737
24917SOL    HW281867  11.422   3.925  12.763 -3.6115 -1.3136 -0.3662
24918SOL     OW81868   6.730   0.386   7.980 -0.1281 -0.5340  0.3203
24918SOL    HW181869   6.674   0.441   7.924 -0.4163  0.1321  1.2430
24918SOL    HW281870   6.737   0.434   8.062  1.6421 -0.7016  0.3100
24919SOL     OW81871  11.236  11.872   8.854 -0.2213 -0.2393  0.3170
24919SOL    HW181872  11.217  11.778   8.848 -1.2933  0.0266 -0.9035
24919SOL    HW281873  11.247  11.900   8.763  1.8781  0.5028  0.7420
24920SOL     OW81874   7.043  12.481  11.598  0.4456  0.1279  0.1628
24920SOL    HW181875   6.985  12.512  11.528  1.5389  1.0330 -0.3704
24920SOL    HW281876   6.993  12.496  11.678  0.9853  3.7550  0.0049
24921SOL     OW81877   0.910   6.119   0.198 -0.6405 -0.0793 -0.1480
24921SOL    HW181878   0.924   6.214   0.209 -0.0447  0.0158 -1.5690
24921SOL    HW281879   0.831   6.101   0.249  0.1771  0.8542  1.5675
24922SOL     OW81880   2.526   8.224   2.422 -0.3111  0.1777 -0.1258
24922SOL    HW181881   2.437   8.213   2.389  0.1782 -2.0668 -0.8656
24922SOL    HW281882   2.533   8.160   2.493  1.2618 -1.0962 -1.3637
24923SOL     OW81883   0.146   5.149   8.217 -0.3008 -0.3341 -0.2311
24923SOL    HW181884   0.075   5.165   8.155 -0.3338  1.3612  0.2052
24923SOL    HW281885   0.116   5.074   8.269 -1.7682  0.3269 -0.0741
24924SOL     OW81886   5.581   6.606  12.950  0.0753  0.0770  0.2227
24924SOL    HW181887   5.603   6.682  13.005  0.1035  0.0998  0.1792
24924SOL    HW281888   5.655   6.546  12.961  0.1454  0.1418  0.0996
24925SOL     OW81889   3.149  10.400   8.273  0.1248 -0.1971  0.3830
24925SOL    HW181890   3.143  10.305   8.259  0.7433 -0.1399 -0.3553
24925SOL    HW281891   3.178  10.408   8.364 -0.6107 -0.6958  0.6675
24926SOL     OW81892  11.000   5.222   7.782 -0.2175  0.1554 -0.1642
24926SOL    HW181893  11.015   5.180   7.866 -0.2512  1.8841  0.7439
24926SOL    HW281894  11.085   5.217   7.738  0.5210  1.4395  1.0319
24927SOL     OW81895  10.670   6.753   7.838  0.4283  0.5503 -0.1187
24927SOL    HW181896  10.682   6.683   7.774 -0.4989  0.0073  0.2845
24927SOL    HW281897  10.674   6.833   7.786 -1.1327  0.0949 -1.0266
24928SOL     OW81898  10.123   6.024   6.291  0.3187 -0.1610  0.4985
24928SOL    HW181899  10.170   5.997   6.212 -3.2492 -0.5737 -1.7506
24928SOL    HW281900  10.127   5.948   6.349  2.5547 -0.0493  0.5662
24929SOL     OW81901   5.472   4.722  11.244  0.3464 -0.2085  0.1679
24929SOL    HW181902   5.568   4.731  11.242  0.4602 -1.2243 -1.5743
24929SOL    HW281903   5.457   4.644  11.297  0.6137 -0.9241 -0.7715
24930SOL     OW81904   8.121   0.063   6.118 -0.7694  0.2965 -0.7041
24930SOL    HW181905   8.179   0.083   6.045  0.5967  0.4205  0.3479
24930SOL    HW281906   8.126   0.140   6.174  1.0583 -1.0710  1.2202
24931SOL     OW81907   0.329   2.084  11.246 -0.5507  0.2641 -0.3308
24931SOL    HW181908   0.239   2.100  11.217 -0.8086  0.6722  0.6566
24931SOL    HW281909   0.353   2.164  11.293 -0.4175 -0.6489  1.2125
24932SOL     OW81910   3.964   6.618   7.206  0.0871  0.6586  0.6755
24932SOL    HW181911   3.917   6.670   7.270 -0.5219 -0.1932  0.9365
24932SOL    HW281912   4.030   6.571   7.258 -0.5413 -0.1883  0.7234
24933SOL     OW81913   8.318  10.950   3.140  0.1485  0.3403 -0.6939
24933SOL    HW181914   8.325  10.864   3.098  1.6728  0.8667 -1.5933
24933SOL    HW281915   8.377  10.946   3.215 -1.1851  0.0174  0.3793
24934SOL     OW81916  10.893   3.648   0.855 -0.3244  0.3337  0.5024
24934SOL    HW181917  10.931   3.620   0.938  1.3886  0.6509 -0.1304
24934SOL    HW281918  10.944   3.602   0.788 -2.7223 -1.1896 -0.3902
24935SOL     OW81919   9.349   6.948   7.700  0.1479 -0.4018 -0.5517
24935SOL    HW181920   9.434   6.911   7.725  0.4724 -0.2462 -1.3942
24935SOL    HW281921   9.333   7.017   7.764  0.2090 -1.0481  0.1761
24936SOL     OW81922   5.774   7.553   1.462 -0.2658 -0.2468 -0.2181
24936SOL    HW181923   5.725   7.480   1.424 -1.3910  0.6692 -0.5679
24936SOL    HW281924   5.792   7.525   1.552  0.6926 -1.5980 -0.7949
24937SOL     OW81925   0.717   4.585  10.163 -0.0122  0.9723 -0.1191
24937SOL    HW181926   0.693   4.636  10.085  0.4411 -0.0633 -0.9700
24937SOL    HW281927   0.634   4.568  10.207 -0.5960 -0.3846 -1.6421
24938SOL     OW81928   7.015   5.878   2.610 -0.1695  0.2507  0.1746
24938SOL    HW181929   6.972   5.793   2.622  1.9279 -0.7149  1.7314
24938SOL    HW281930   7.024   5.912   2.699  1.1882  0.9192 -0.1916
24939SOL     OW81931   7.517  12.040   3.039 -0.1488  0.0314 -0.4207
24939SOL    HW181932   7.580  12.109   3.018 -0.9268  1.1997  0.9278
24939SOL    HW281933   7.498  12.052   3.132  1.2978 -3.3676  0.4708
24940SOL     OW81934   1.062   8.473   3.868 -0.5216  0.4036  0.6528
24940SOL    HW181935   0.990   8.524   3.832 -0.1224  0.2183 -0.4511
24940SOL    HW281936   1.033   8.382   3.859 -0.7682  0.3776  1.5955
24941SOL     OW81937   9.728   2.843   5.141  0.3236 -0.0493 -0.2384
24941SOL    HW181938   9.758   2.753   5.129 -1.4618 -0.5720 -1.1935
24941SOL    HW281939   9.788   2.895   5.087  1.2219 -0.6734  0.1274
24942SOL     OW81940  12.708   1.456   5.696  0.1067  0.2253 -0.4872
24942SOL    HW181941  12.672   1.368   5.711 -0.9533  0.6825 -0.2997
24942SOL    HW281942  12.773   1.443   5.626  0.4693 -0.8174  0.0186
24943SOL     OW81943   9.413   6.248   1.183  0.1351 -0.4205  0.1073
24943SOL    HW181944   9.464   6.328   1.173 -0.9806  0.2462 -0.5057
24943SOL    HW281945   9.356   6.246   1.106 -2.7434  0.3573  2.0424
24944SOL     OW81946  11.591   7.517   7.557  1.0597  0.5289  0.3244
24944SOL    HW181947  11.640   7.499   7.477 -0.4313 -0.7949 -0.3581
24944SOL    HW281948  11.523   7.580   7.530 -1.1721 -1.9389 -0.2272
24945SOL     OW81949   6.073   7.584  12.489  0.1259  0.1264 -0.3834
24945SOL    HW181950   6.050   7.495  12.460  0.2666  0.6621 -2.2501
24945SOL    HW281951   6.011   7.641  12.444  0.4683  1.0360  0.2738
24946SOL     OW81952   6.964   8.676   7.501  0.0335 -0.2271 -0.2976
24946SOL    HW181953   7.043   8.652   7.452 -0.2364  1.4756 -1.6836
24946SOL    HW281954   6.993   8.680   7.592  0.8691 -2.2154 -0.4210
24947SOL     OW81955  12.281  10.405   2.155 -0.0203  0.6234  0.1093
24947SOL    HW181956  12.359  10.454   2.181  1.1478 -1.2661  0.3398
24947SOL    HW281957  12.306  10.363   2.073 -2.2202  3.1178 -2.0500
24948SOL     OW81958   8.683   1.309   6.920  0.3812  0.1256 -0.2181
24948SOL    HW181959   8.711   1.218   6.922  1.5299  0.4787  0.3520
24948SOL    HW281960   8.755   1.356   6.877  0.7638  1.0671  1.3530
24949SOL     OW81961   1.893   7.988   0.344  0.3461  0.5116 -0.0564
24949SOL    HW181962   1.945   7.918   0.304  0.0377 -0.3797  1.0444
24949SOL    HW281963   1.941   8.068   0.324  1.3614 -0.1396 -0.3023
24950SOL     OW81964  11.184   3.447  12.493 -0.4135 -0.1350  0.8051
24950SOL    HW181965  11.145   3.474  12.576 -0.1579  0.0751  0.8579
24950SOL    HW281966  11.110   3.440  12.433 -0.4786  0.8480  0.7466
24951SOL     OW81967   2.123   4.687   0.020 -0.5629 -0.4375  0.1700
24951SOL    HW181968   2.211   4.700   0.056 -0.8915  2.0141  0.2255
24951SOL    HW281969   2.137   4.683  -0.075 -0.4732  1.1477  0.0944
24952SOL     OW81970   4.869   2.115   9.803 -0.0471 -0.1797 -0.3803
24952SOL    HW181971   4.830   2.093   9.888  1.7778  0.8786  0.7924
24952SOL    HW281972   4.963   2.117   9.820  0.3607 -0.0127 -2.4636
24953SOL     OW81973   8.305   0.121  12.716 -0.1336  0.1775 -0.0586
24953SOL    HW181974   8.399   0.135  12.708  0.3070 -1.0663  2.3460
24953SOL    HW281975   8.288   0.121  12.810 -2.4747 -0.0760 -0.4232
24954SOL     OW81976   0.308   4.067   7.393 -0.8371  0.9554  0.0832
24954SOL    HW181977   0.340   4.003   7.457  0.0010  2.2244  0.9708
24954SOL    HW281978   0.236   4.022   7.349 -0.0651 -0.7238  0.4380
24955SOL     OW81979   5.740  11.481   6.595  0.3437 -0.5133 -0.4356
24955SOL    HW181980   5.694  11.473   6.511  0.0987  1.7289 -0.5917
24955SOL    HW281981   5.819  11.530   6.575 -0.1012  0.7656  0.7266
24956SOL     OW81982  12.756   5.269   4.547  0.4012 -0.3021 -0.5469
24956SOL    HW181983  12.796   5.199   4.495  2.2855 -0.3576  0.8347
24956SOL    HW281984  12.671   5.285   4.506  0.1857 -2.9345 -1.3094
24957SOL     OW81985   5.201   3.770  10.390 -0.5530  0.0137  0.4257
24957SOL    HW181986   5.185   3.764  10.484  0.9006 -0.0139  0.6876
24957SOL    HW281987   5.124   3.816  10.356 -0.7123  0.7793  1.7354
24958SOL     OW81988   6.532   2.971   2.115  0.2759 -0.2243  0.1379
24958SOL    HW181989   6.574   3.017   2.188 -0.2339 -1.0970  0.9937
24958SOL    HW281990   6.439   2.967   2.139  0.0649 -0.3330 -0.6646
24959SOL     OW81991   2.146   2.591   7.920  0.2124  0.4513 -0.1965
24959SOL    HW181992   2.177   2.534   7.849  0.6009  0.0255  0.3094
24959SOL    HW281993   2.226   2.628   7.957  0.0503  0.2215  0.3923
24960SOL     OW81994  10.466   7.757   2.806  0.2792 -0.0814 -0.2874
24960SOL    HW181995  10.427   7.843   2.824 -0.1166  0.4633 -3.2221
24960SOL    HW281996  10.391   7.701   2.786  0.6816 -0.1607 -1.7119
24961SOL     OW81997   5.898   4.470   2.244 -0.3944  0.0357  0.7816
24961SOL    HW181998   5.983   4.452   2.202 -1.0589  0.7104 -0.9440
24961SOL    HW281999   5.850   4.387   2.236 -0.7138  0.3123 -0.3347
24962SOL     OW82000   6.211  10.887   1.117  0.4413  0.2268  0.2254
24962SOL    HW182001   6.119  10.882   1.142  0.4275 -3.4534 -0.1056
24962SOL    HW282002   6.258  10.896   1.201 -0.0469 -3.5173  1.0654
24963SOL     OW82003   6.649  10.189  10.613  0.1128  0.6461  0.2078
24963SOL    HW182004   6.662  10.096  10.595 -0.7517  0.7197 -0.9277
24963SOL    HW282005   6.629  10.194  10.707 -2.4223 -0.6284 -0.1943
24964SOL     OW82006   7.242  12.656  10.546 -0.6051 -0.0571 -0.4667
24964SOL    HW182007   7.324  12.691  10.512  0.0910  0.9785  2.0441
24964SOL    HW282008   7.186  12.647  10.469  1.2839  0.7922 -2.0273
24965SOL     OW82009   7.730   3.459   2.505  0.4822 -0.4662 -0.0686
24965SOL    HW182010   7.815   3.473   2.545 -0.2579 -0.9062  1.7701
24965SOL    HW282011   7.668   3.503   2.564 -0.4349  1.5480 -2.3698
24966SOL     OW82012   8.682  11.774   4.431  0.3550 -0.2236  0.2490
24966SOL    HW182013   8.764  11.823   4.421  0.1130  0.3005  0.7617
24966SOL    HW282014   8.687  11.738   4.520 -0.7506  1.3398  1.0132
24967SOL     OW82015   8.745   4.819   0.990 -0.8229 -0.3627  0.5716
24967SOL    HW182016   8.803   4.831   1.065  0.2229  1.6537 -0.4949
24967SOL    HW282017   8.779   4.878   0.923 -2.0116 -1.7427 -1.3475
24968SOL     OW82018   2.053  12.326   5.856  0.4529  0.2073 -0.3810
24968SOL    HW182019   2.044  12.238   5.818  0.5810  0.2880 -0.6050
24968SOL    HW282020   2.117  12.369   5.799  0.2175  0.5218 -0.4100
24969SOL     OW82021  11.612   0.676   3.379 -0.2429  0.1574 -0.2607
24969SOL    HW182022  11.677   0.743   3.358 -0.3870  0.3329 -0.1492
24969SOL    HW282023  11.570   0.708   3.459  0.9320 -0.9436  0.8481
24970SOL     OW82024   7.796   3.759  10.710  0.0505  0.2102 -0.1031
24970SOL    HW182025   7.732   3.737  10.642 -0.6635  1.8837 -0.0322
24970SOL    HW282026   7.878   3.773  10.662 -0.1506  0.1461 -0.4675
24971SOL     OW82027   7.924   6.957   1.545  0.2582 -0.0231  0.2148
24971SOL    HW182028   8.004   7.008   1.559  0.3938  0.1444 -1.0654
24971SOL    HW282029   7.955   6.868   1.526  0.0516 -0.4097  1.5663
24972SOL     OW82030   8.151  10.927   4.184  0.2718  0.0758 -0.2779
24972SOL    HW182031   8.240  10.961   4.178  0.3769  0.0866  1.0836
24972SOL    HW282032   8.101  10.997   4.226 -0.4106  0.1023 -1.1063
24973SOL     OW82033   6.507  10.881   4.338  0.2692 -1.0417 -0.3008
24973SOL    HW182034   6.532  10.957   4.286 -1.0276  0.0112  0.5356
24973SOL    HW282035   6.589  10.839   4.362  1.0381  0.4161 -0.3286
24974SOL     OW82036   9.683   0.548   0.858  0.2286  0.2442 -0.2570
24974SOL    HW182037   9.767   0.564   0.816  0.2536  0.3525 -0.1655
24974SOL    HW282038   9.628   0.511   0.788  0.9222 -1.6618  0.1712
24975SOL     OW82039  10.987   6.695   1.297 -0.4918 -0.8543  0.2275
24975SOL    HW182040  11.054   6.708   1.364 -0.7683 -0.3637  0.4052
24975SOL    HW282041  11.033   6.713   1.215 -0.5553  0.0586  0.3884
24976SOL     OW82042   0.125   1.905   5.076  0.2695  0.3328  0.6769
24976SOL    HW182043   0.069   1.982   5.069 -0.7743 -0.4354  0.3821
24976SOL    HW282044   0.202   1.927   5.024 -0.1655  1.0449  0.3105
24977SOL     OW82045  12.228   8.507   6.258  0.3322 -0.4318  0.3803
24977SOL    HW182046  12.142   8.467   6.269 -1.4112  3.0971  1.0167
24977SOL    HW282047  12.258   8.524   6.347  0.1299  1.1956  0.1830
24978SOL     OW82048   8.842   1.646   7.886 -0.3743 -0.0968  0.2164
24978SOL    HW182049   8.888   1.577   7.837 -1.2893  0.3465 -1.3326
24978SOL    HW282050   8.885   1.727   7.858  0.2030  0.0436  1.4691
24979SOL     OW82051   7.899  12.311   2.912 -0.5595  0.0486 -0.4519
24979SOL    HW182052   7.816  12.297   2.958 -0.5255  0.8225 -0.1428
24979SOL    HW282053   7.879  12.375   2.844 -0.1336  0.5589 -0.1083
24980SOL     OW82054   7.660   8.716   2.495 -0.0687 -1.2139  0.1569
24980SOL    HW182055   7.647   8.660   2.571 -1.7870 -3.3005 -1.5461
24980SOL    HW282056   7.748   8.696   2.464  0.4124 -0.7881  1.1974
24981SOL     OW82057   6.363  10.968   1.732 -0.4270  0.1267  0.7178
24981SOL    HW182058   6.312  11.026   1.675  0.8481 -1.5407 -2.3922
24981SOL    HW282059   6.454  10.985   1.707  0.0026 -2.8026  0.0000
24982SOL     OW82060   9.083   9.501  11.522 -0.4559  0.4241 -0.1680
24982SOL    HW182061   9.061   9.497  11.429  0.5962 -0.9646 -0.3830
24982SOL    HW282062   9.130   9.583  11.532 -1.8896  1.3297 -0.5348
24983SOL     OW82063   0.019   8.541  10.247 -0.5675 -0.0899  0.6353
24983SOL    HW182064   0.023   8.477  10.177 -1.2313  0.5459 -0.0112
24983SOL    HW282065   0.109   8.552  10.276 -0.1447  0.3023 -0.7461
24984SOL     OW82066   5.674  11.103   5.035 -0.4633 -0.3201  0.0313
24984SOL    HW182067   5.676  11.150   4.952 -0.5432  0.8062  0.6439
24984SOL    HW282068   5.607  11.149   5.087  1.8982  1.1937  1.9438
24985SOL     OW82069  10.194   5.364   2.208  0.2688  0.1380  0.0125
24985SOL    HW182070  10.281   5.336   2.236  0.3854 -0.5109 -0.9639
24985SOL    HW282071  10.143   5.284   2.203  0.4914  0.0552 -2.3951
24986SOL     OW82072  10.019   0.215   4.979  0.0734 -0.3509 -0.2995
24986SOL    HW182073  10.060   0.232   4.894 -0.5700 -1.7406 -0.9162
24986SOL    HW282074   9.930   0.249   4.971 -0.1021 -0.8103 -0.3028
24987SOL     OW82075  11.840   0.430   6.037  0.6155  0.2633  0.0263
24987SOL    HW182076  11.924   0.439   5.993 -0.1654  0.2317 -1.5467
24987SOL    HW282077  11.775   0.440   5.967 -0.6658 -0.7453  1.0190
24988SOL     OW82078   9.795  11.793   0.985  0.2246  0.1777 -0.6004
24988SOL    HW182079   9.891  11.790   0.992  0.0964 -0.6370  1.1426
24988SOL    HW282080   9.769  11.865   1.042 -0.2403  0.1023 -0.7151
24989SOL     OW82081   0.521   2.203   0.152 -0.0460  0.1024  0.0166
24989SOL    HW182082   0.474   2.157   0.082 -0.1387 -1.5049  1.0693
24989SOL    HW282083   0.521   2.141   0.225  0.8175  1.3834  1.1543
24990SOL     OW82084   5.954   7.744   0.776 -0.4516  0.0144  0.6134
24990SOL    HW182085   6.035   7.761   0.726 -0.0369 -1.1192  0.8682
24990SOL    HW282086   5.967   7.789   0.859  1.0123 -2.1771  1.6362
24991SOL     OW82087   6.456  10.073  10.872 -0.0509 -0.3391  0.1833
24991SOL    HW182088   6.395  10.140  10.840  0.7335 -0.8243 -2.6618
24991SOL    HW282089   6.445  10.000  10.810  2.6204 -0.8373  0.1846
24992SOL     OW82090   4.392   4.466   8.053 -0.5265  0.4535 -0.1156
24992SOL    HW182091   4.336   4.413   8.111  0.4448 -2.8090 -1.9266
24992SOL    HW282092   4.339   4.479   7.974 -0.2733  1.1073 -0.1828
24993SOL     OW82093   7.428  11.096  11.793 -0.2289 -0.5145 -0.2127
24993SOL    HW182094   7.504  11.091  11.851 -1.3095  0.1895  1.3465
24993SOL    HW282095   7.428  11.186  11.761 -1.1443 -0.0812  0.9183
24994SOL     OW82096   3.679  12.301  10.596  0.0791  0.5265 -0.2154
24994SOL    HW182097   3.750  12.345  10.643  0.2972  2.0105 -1.8119
24994SOL    HW282098   3.612  12.369  10.587 -0.4093 -0.0610 -1.0410
24995SOL     OW82099   3.939   6.031  11.215  0.1295  0.1914 -0.2424
24995SOL    HW182100   3.918   5.956  11.159 -3.4014  0.6728  0.2048
24995SOL    HW282101   3.996   5.996  11.283 -1.7501 -2.2670  0.1973
24996SOL     OW82102   3.627   2.662   8.341  0.0005  0.3214 -0.2623
24996SOL    HW182103   3.543   2.670   8.386 -0.4101 -1.5915 -0.5998
24996SOL    HW282104   3.615   2.710   8.259 -1.0027 -0.4728 -0.5987
24997SOL     OW82105  10.851  11.587   1.076  0.0544 -0.1903 -0.5799
24997SOL    HW182106  10.911  11.637   1.131  0.0793 -1.6971  0.7995
24997SOL    HW282107  10.888  11.593   0.988  0.7847  1.0639 -0.2068
24998SOL     OW82108   7.064   9.968   7.890  0.6601 -0.4647  0.7455
24998SOL    HW182109   7.012  10.000   7.816 -0.3016  0.0210  1.5966
24998SOL    HW282110   7.023   9.885   7.914 -1.2274  0.9390  2.8061
24999SOL     OW82111   6.782   9.721   4.782  0.2992 -0.1332  0.2444
24999SOL    HW182112   6.796   9.708   4.688  1.7677  0.5148  0.3451
24999SOL    HW282113   6.757   9.635   4.815 -1.5522 -0.1097 -0.9278
25000SOL     OW82114   7.805   0.889   8.234  0.4378  0.4804 -0.4899
25000SOL    HW182115   7.832   0.805   8.272  0.8585 -0.0954 -1.9632
25000SOL    HW282116   7.813   0.952   8.306  0.7793 -0.6166  0.4662
25001SOL     OW82117   4.229   8.059   1.850  0.3713  0.2308  0.6549
25001SOL    HW182118   4.136   8.052   1.826 -0.6966 -2.2180  4.5411
25001SOL    HW282119   4.276   8.052   1.767 -2.8446  0.8731 -1.4144
25002SOL     OW82120   6.601  11.873   5.334  0.6938 -0.0570 -0.0835
25002SOL    HW182121   6.684  11.909   5.364 -1.6284  3.6446  2.6668
25002SOL    HW282122   6.565  11.827   5.410 -0.8022  0.5369 -0.3903
25003SOL     OW82123   3.102   1.661   7.713  0.4316  0.0345 -0.7641
25003SOL    HW182124   3.173   1.725   7.707  0.8213 -0.3518 -0.3396
25003SOL    HW282125   3.066   1.673   7.801  0.2413 -0.0476 -0.8316
25004SOL     OW82126   3.376   1.505   3.932  0.3686  0.0761 -0.3632
25004SOL    HW182127   3.319   1.460   3.994 -0.0436 -0.0596 -0.8309
25004SOL    HW282128   3.446   1.443   3.914 -0.1792 -0.3836 -0.9801
25005SOL     OW82129   6.257  12.845  10.991 -0.2657  0.4531 -0.4250
25005SOL    HW182130   6.249  12.757  10.955 -2.2889  0.4388 -0.0426
25005SOL    HW282131   6.316  12.835  11.066  1.7081 -0.0292 -1.9559
25006SOL     OW82132   4.090  10.455  10.025 -0.3194  0.2814  0.5803
25006SOL    HW182133   4.027  10.415   9.965  0.5112 -1.7389  0.9656
25006SOL    HW282134   4.070  10.414  10.110 -1.0805  2.6305  1.6253
25007SOL     OW82135   0.198  12.415   6.597  0.0956  0.3389  0.1224
25007SOL    HW182136   0.277  12.469   6.601 -0.4928  1.2187  0.3104
25007SOL    HW282137   0.129  12.476   6.569 -0.6786 -0.2024  0.7903
25008SOL     OW82138   4.964   9.709   7.296  0.1446  0.0687 -0.0983
25008SOL    HW182139   4.925   9.625   7.319 -0.7259  1.0645  2.3743
25008SOL    HW282140   4.891   9.762   7.263  0.6588 -0.0524 -1.5111
25009SOL     OW82141   9.012  11.132   7.865 -0.0669 -0.0267  0.1331
25009SOL    HW182142   9.017  11.127   7.770 -2.6111  1.1701 -0.1617
25009SOL    HW282143   9.062  11.212   7.887  1.8636 -1.1433  0.0462
25010SOL     OW82144  11.355   8.506   4.037 -0.5157 -0.4816 -0.5163
25010SOL    HW182145  11.331   8.414   4.028  1.8205 -1.0142 -2.1970
25010SOL    HW282146  11.362   8.520   4.132  1.7270 -2.8621 -0.2281
25011SOL     OW82147   0.353  10.556  10.066  0.0085  0.2954 -0.0995
25011SOL    HW182148   0.398  10.587  10.145  1.9516 -1.4603 -0.4189
25011SOL    HW282149   0.261  10.576  10.081  0.3246  0.0539  2.6058
25012SOL     OW82150  11.408  10.824   9.008 -0.4586 -0.1794 -0.2037
25012SOL    HW182151  11.399  10.774   9.089 -0.1336  0.9204  0.5285
25012SOL    HW282152  11.319  10.832   8.974 -0.3474 -2.8218 -1.3414
25013SOL     OW82153   7.735   5.609   6.755 -0.5800  0.4396 -0.6350
25013SOL    HW182154   7.767   5.582   6.841 -1.0131  0.8772 -0.3334
25013SOL    HW282155   7.762   5.538   6.696  0.1598  0.3752 -0.2343
25014SOL     OW82156   1.992   9.175  12.839 -0.0483 -0.1213 -0.0319
25014SOL    HW182157   2.050   9.101  12.822 -0.7315 -0.1752 -2.5211
25014SOL    HW282158   1.911   9.135  12.872 -0.2200 -0.4608 -0.8442
25015SOL     OW82159   9.863   1.878  10.050 -0.1694 -0.4210  0.1890
25015SOL    HW182160   9.864   1.860   9.956 -0.3995 -0.2563  0.1522
25015SOL    HW282161   9.788   1.827  10.082  0.3351 -1.0325  0.3987
25016SOL     OW82162   7.860   2.189   0.057  0.0891  0.9153 -0.1031
25016SOL    HW182163   7.909   2.264   0.091 -0.7819  1.1513  0.6777
25016SOL    HW282164   7.830   2.142   0.136  1.2879 -0.7297 -0.5593
25017SOL     OW82165   1.556   7.972   2.952  0.6203 -0.1084 -0.3935
25017SOL    HW182166   1.589   8.042   3.008 -1.1425  1.0725 -0.7626
25017SOL    HW282167   1.547   8.013   2.866 -0.5643 -0.7333 -0.5875
25018SOL     OW82168   0.149   2.525   3.950 -0.0900 -0.1764  0.2569
25018SOL    HW182169   0.059   2.555   3.965 -0.1882  0.3911 -1.2640
25018SOL    HW282170   0.200   2.568   4.019 -0.8688  0.1373  0.6504
25019SOL     OW82171   5.682   3.656   3.575 -0.5466 -0.1922 -0.0565
25019SOL    HW182172   5.690   3.751   3.578 -1.4325 -0.1464  1.6947
25019SOL    HW282173   5.750   3.628   3.514  0.2107  1.4981 -0.0277
25020SOL     OW82174   6.016   9.220   0.014  0.0995 -0.0425 -0.5202
25020SOL    HW182175   5.949   9.286  -0.007  1.0185  0.8298 -0.8126
25020SOL    HW282176   5.993   9.189   0.102 -2.2697 -1.7924 -1.6685
25021SOL     OW82177   2.901  11.484  10.110  0.0734 -0.2461 -0.7209
25021SOL    HW182178   2.874  11.528  10.191  0.5497  0.0950 -0.7425
25021SOL    HW282179   2.835  11.509  10.046  1.6973  2.6828 -1.4492
25022SOL     OW82180   1.780   8.040   9.557 -0.3073 -0.2768  0.3470
25022SOL    HW182181   1.815   8.039   9.468 -1.2893 -2.0983 -0.0697
25022SOL    HW282182   1.856   8.030   9.613  0.1069 -1.8163 -0.4309
25023SOL     OW82183  11.488  12.008  12.525 -0.2127 -0.4383 -0.6047
25023SOL    HW182184  11.494  11.913  12.529 -0.1788 -0.5451 -2.3972
25023SOL    HW282185  11.565  12.035  12.476 -0.9953  0.3734 -1.4341
25024SOL     OW82186  10.510   6.855   3.677 -0.1069  0.1890 -0.1871
25024SOL    HW182187  10.452   6.901   3.737  0.4071 -0.5397  0.8945
25024SOL    HW282188  10.597   6.887   3.698  0.0872 -0.1182 -0.5050
25025SOL     OW82189   9.456   8.821   1.492 -0.3216 -0.1039  0.3776
25025SOL    HW182190   9.468   8.910   1.525 -2.6593  0.2965  0.2769
25025SOL    HW282191   9.377   8.825   1.439  0.6056 -1.8449 -1.2625
25026SOL     OW82192   7.071  12.926   0.038  0.3562 -0.1629 -0.5914
25026SOL    HW182193   7.034  12.839   0.025  0.4715 -0.2349 -0.4457
25026SOL    HW282194   7.076  12.964  -0.049  1.0230 -0.5950 -0.7496
25027SOL     OW82195   3.585   0.570   4.184  0.9829 -0.5019  0.1202
25027SOL    HW182196   3.566   0.594   4.274  1.3882 -1.5625  0.5021
25027SOL    HW282197   3.582   0.475   4.183  1.2384 -0.5174 -0.9357
25028SOL     OW82198  11.764  11.557   9.559  0.3916 -0.6487 -0.3634
25028SOL    HW182199  11.802  11.641   9.586 -1.7669 -0.0719  1.1405
25028SOL    HW282200  11.729  11.520   9.640 -1.7031 -1.3772 -1.5401
25029SOL     OW82201   5.065   5.439  11.838  0.0839  0.5898 -0.0357
25029SOL    HW182202   5.107   5.384  11.772  0.7661  1.0515  0.0052
25029SOL    HW282203   5.081   5.529  11.808 -2.1807  0.7955 -0.8340
25030SOL     OW82204   3.222   8.736   2.491 -0.3091  0.3281  0.1524
25030SOL    HW182205   3.248   8.651   2.526  1.2938  0.2008 -1.2588
25030SOL    HW282206   3.132   8.723   2.461  0.2269 -1.1776 -0.9016
25031SOL     OW82207   1.351   6.005   2.369 -0.5631  0.7422  0.2849
25031SOL    HW182208   1.363   6.065   2.295 -0.0001  0.3558  0.0556
25031SOL    HW282209   1.439   5.974   2.389 -0.6616  1.0908  1.3355
25032SOL     OW82210   9.132  12.256   8.719  0.1928 -0.1758 -0.1790
25032SOL    HW182211   9.219  12.265   8.681  0.2277 -2.5527 -0.8225
25032SOL    HW282212   9.147  12.222   8.807 -0.0827 -0.3027 -0.1804
25033SOL     OW82213   3.777   8.241   0.563  0.5865  0.7157  0.1482
25033SOL    HW182214   3.808   8.176   0.627  0.9278  0.8977  0.1757
25033SOL    HW282215   3.691   8.267   0.595  1.0510  1.3302  0.9503
25034SOL     OW82216   8.339   7.572   5.601 -0.1318 -0.7358  0.3494
25034SOL    HW182217   8.339   7.666   5.619  1.1726 -0.8285  0.9513
25034SOL    HW282218   8.363   7.565   5.509  0.2050 -0.4907  0.4170
25035SOL     OW82219   8.663   1.155   1.339  0.9470 -0.6598 -0.0675
25035SOL    HW182220   8.728   1.106   1.391  0.5567 -0.7962  0.2923
25035SOL    HW282221   8.582   1.148   1.389  1.0476  1.0203  0.3842
25036SOL     OW82222   3.910  11.409   7.384  0.0480  0.6518  0.0208
25036SOL    HW182223   3.828  11.457   7.388 -0.0866  0.6643 -1.8799
25036SOL    HW282224   3.938  11.401   7.475 -1.5356  1.5236  0.6213
25037SOL     OW82225   5.474   0.959  11.656  0.1363  0.0739  0.0514
25037SOL    HW182226   5.472   1.037  11.712  0.3529 -0.4942  0.8563
25037SOL    HW282227   5.506   0.889  11.712  2.9257  0.0045 -1.4608
25038SOL     OW82228   2.343   4.527   2.258  0.4952 -0.3423  0.0894
25038SOL    HW182229   2.360   4.621   2.255  1.2879 -0.4540  0.7878
25038SOL    HW282230   2.293   4.514   2.339  1.6348 -0.6992  0.7566
25039SOL     OW82231   3.698  11.470   0.962  0.5884 -0.3151  0.1221
25039SOL    HW182232   3.757  11.407   1.003  0.2715  0.1741  1.3790
25039SOL    HW282233   3.738  11.489   0.877  2.5288  0.3907  1.1419
25040SOL     OW82234   5.411   9.786   4.156  0.1510  0.8334  0.6501
25040SOL    HW182235   5.454   9.841   4.091  0.9224 -2.2173 -1.6736
25040SOL    HW282236   5.483   9.747   4.206 -0.3496  1.4386  1.8964
25041SOL     OW82237   8.096   2.281   1.418  0.5577 -0.1366 -0.0033
25041SOL    HW182238   8.074   2.372   1.439 -0.7215 -0.6231  0.9098
25041SOL    HW282239   8.158   2.288   1.346  1.5470  1.5042  0.9236
25042SOL     OW82240   7.292   3.549   5.701 -0.5713  0.5544  0.5628
25042SOL    HW182241   7.200   3.549   5.727 -0.7591  1.9544 -0.0258
25042SOL    HW282242   7.307   3.462   5.664 -2.4120  1.1669 -1.8391
25043SOL     OW82243  11.174   0.289   7.313 -0.3130  0.0540 -0.2070
25043SOL    HW182244  11.173   0.194   7.296 -0.9645 -0.0510  0.3600
25043SOL    HW282245  11.102   0.323   7.260 -0.3499  0.1687 -0.0824
25044SOL     OW82246   9.534   3.633  12.475 -0.7345  0.0731 -0.0602
25044SOL    HW182247   9.599   3.564  12.492  0.0344  0.7661 -0.1202
25044SOL    HW282248   9.579   3.714  12.499 -0.9648  0.7270 -1.7489
25045SOL     OW82249  11.744   1.015  10.385 -0.0606  0.1541 -0.0826
25045SOL    HW182250  11.733   0.995  10.293 -0.2423  1.3496 -0.3341
25045SOL    HW282251  11.678   1.081  10.404  0.3292  0.3191  0.7632
25046SOL     OW82252  11.872   7.857  11.699 -0.4036 -0.1898  0.1839
25046SOL    HW182253  11.826   7.902  11.628 -1.5841  0.0853  1.0863
25046SOL    HW282254  11.884   7.768  11.668 -0.4474  0.0536 -0.5580
25047SOL     OW82255   1.425  11.324   1.577 -0.2438 -0.1132  0.0174
25047SOL    HW182256   1.514  11.350   1.601 -0.4748  1.5155 -0.7746
25047SOL    HW282257   1.392  11.277   1.653  1.1292 -0.3263  0.5046
25048SOL     OW82258   1.151   0.139   2.245  0.0499 -0.5571 -0.0711
25048SOL    HW182259   1.067   0.182   2.260  0.9103  0.8237  0.9588
25048SOL    HW282260   1.199   0.198   2.187  1.2449 -0.0646  1.3453
25049SOL     OW82261   8.677   8.303   6.211 -0.8371 -0.6712 -0.3191
25049SOL    HW182262   8.746   8.288   6.275 -0.5320  0.5230 -0.3347
25049SOL    HW282263   8.715   8.277   6.127  0.3665  1.7605 -0.6304
25050SOL     OW82264  10.487   7.037   6.657  0.6223 -0.1032 -0.0342
25050SOL    HW182265  10.557   6.977   6.631  0.8845 -0.6833  1.8881
25050SOL    HW282266  10.495   7.043   6.752  0.6062  2.9972 -0.1255
25051SOL     OW82267  10.022   9.062   4.442  0.4049  0.0593 -0.8650
25051SOL    HW182268  10.061   9.135   4.491 -1.1491  0.0213  0.5279
25051SOL    HW282269  10.059   8.984   4.483 -2.2621 -0.0429  1.7033
25052SOL     OW82270   7.051   8.807   0.744  0.0283  0.1473  0.0092
25052SOL    HW182271   6.995   8.816   0.668 -2.7789  0.4017  1.9715
25052SOL    HW282272   7.014   8.734   0.794  1.4321  0.3281  1.4183
25053SOL     OW82273   1.284   7.166  12.348 -0.8048  0.4054  0.0635
25053SOL    HW182274   1.289   7.080  12.391 -1.9576  0.7101  0.8693
25053SOL    HW282275   1.190   7.186  12.345 -0.7096  0.7718 -1.9188
25054SOL     OW82276  10.064   6.303   1.426 -0.1083  0.1454  0.6385
25054SOL    HW182277  10.141   6.271   1.474  0.4525 -0.1806 -0.4551
25054SOL    HW282278  10.027   6.370   1.483  1.3218  0.7157  0.9383
25055SOL     OW82279   7.149  10.018   4.257  0.2754  0.5177 -0.6202
25055SOL    HW182280   7.114  10.076   4.189  1.3927  0.8986 -0.8999
25055SOL    HW282281   7.186  10.078   4.322  0.0043  0.1400 -0.1186
25056SOL     OW82282   4.644   5.783   7.567  0.4642 -0.0245 -0.2398
25056SOL    HW182283   4.570   5.740   7.609  0.5890 -1.0521 -1.0240
25056SOL    HW282284   4.713   5.784   7.633  1.0772 -2.7331 -0.7116
25057SOL     OW82285  10.352  12.900   3.621  0.1816  0.8240 -0.1751
25057SOL    HW182286  10.368  12.960   3.549  2.8162 -0.0563 -0.4361
25057SOL    HW282287  10.384  12.815   3.589 -2.8009 -0.6388  0.4139
25058SOL     OW82288   5.075  10.776   8.397 -0.5086 -0.1206 -0.2450
25058SOL    HW182289   4.991  10.767   8.441 -0.1325  0.4856  0.6241
25058SOL    HW282290   5.139  10.781   8.468  0.0377  1.6230 -0.8112
25059SOL     OW82291   7.969   9.002   5.143  0.5152  0.6130 -0.0221
25059SOL    HW182292   7.890   9.042   5.107 -0.3782 -1.1565 -0.1152
25059SOL    HW282293   8.009   8.958   5.068 -0.4708 -1.6820  0.7151
25060SOL     OW82294   8.929   3.714  10.172 -0.5487  0.2951 -0.4403
25060SOL    HW182295   8.991   3.667  10.227 -2.0408 -0.3933  0.7280
25060SOL    HW282296   8.957   3.694  10.082  0.8991  0.0216  0.0515
25061SOL     OW82297   6.290   0.259   7.576 -0.2931 -0.4768  0.3032
25061SOL    HW182298   6.307   0.352   7.564 -0.2128 -0.4153  0.8792
25061SOL    HW282299   6.196   0.254   7.594 -0.2184 -0.4585  0.7149
25062SOL     OW82300   8.208   0.455  10.000 -0.4626 -0.0593 -0.1328
25062SOL    HW182301   8.164   0.374  10.027 -1.3821  0.3306 -0.4076
25062SOL    HW282302   8.280   0.464  10.062 -2.1279  0.4760  1.8568
25063SOL     OW82303   2.646   5.155   7.208 -0.5586 -0.4493 -0.0548
25063SOL    HW182304   2.707   5.082   7.205 -1.2543 -1.0457  0.0759
25063SOL    HW282305   2.665   5.199   7.291 -1.2484 -1.4670  0.6566
25064SOL     OW82306  10.637   3.030   0.693  0.2888  0.7448  0.1466
25064SOL    HW182307  10.586   3.076   0.759  0.8522  0.2374  0.9679
25064SOL    HW282308  10.728   3.047   0.718  0.5374  1.8662 -1.4480
25065SOL     OW82309   0.546  11.554  12.766  0.0295 -0.1351 -0.2856
25065SOL    HW182310   0.524  11.647  12.773 -2.2870 -0.6980  1.1788
25065SOL    HW282311   0.628  11.545  12.813  0.8995  1.3193 -1.4443
25066SOL     OW82312   6.789   8.782   2.203 -0.1691  0.1897 -0.0682
25066SOL    HW182313   6.850   8.736   2.146 -2.2804 -1.4403 -1.1424
25066SOL    HW282314   6.721   8.815   2.145  0.2206  3.0813  0.9345
25067SOL     OW82315   0.881   3.884   8.797  0.3900 -0.2596  0.0645
25067SOL    HW182316   0.909   3.975   8.813  0.8001 -0.7289  2.4353
25067SOL    HW282317   0.786   3.887   8.802  0.4189 -0.0070  0.5481
25068SOL     OW82318  11.847   2.865   7.957 -0.1095  0.2168 -0.1660
25068SOL    HW182319  11.841   2.956   7.987  2.1867 -0.0008  1.1867
25068SOL    HW282320  11.849   2.872   7.862 -1.5206  1.4342 -0.1454
25069SOL     OW82321  12.769   7.041   3.786  0.2853  0.3966 -0.1695
25069SOL    HW182322  12.831   7.029   3.858 -1.3575 -0.2343  1.2378
25069SOL    HW282323  12.749   6.953   3.756 -0.8329  0.4844  0.2543
25070SOL     OW82324  10.010   4.117   8.833  0.0087  0.0652 -0.4937
25070SOL    HW182325  10.082   4.059   8.858  0.0591 -0.7291 -2.3505
25070SOL    HW282326   9.984   4.088   8.746 -2.6405  0.2718  0.1371
25071SOL     OW82327   2.265   0.821   7.223 -0.6676  0.0647  0.2217
25071SOL    HW182328   2.268   0.799   7.130 -0.1356 -0.8740  0.4510
25071SOL    HW282329   2.354   0.808   7.254 -0.4893  1.8268  0.5617
25072SOL     OW82330   8.770   6.243  12.053  0.4841  0.1656  0.2188
25072SOL    HW182331   8.787   6.152  12.029 -1.2629 -0.1177 -0.0793
25072SOL    HW282332   8.849   6.290  12.027  0.7010 -0.9723 -1.3213
25073SOL     OW82333   1.513   4.075   2.631 -0.1569 -0.0198 -0.3376
25073SOL    HW182334   1.594   4.110   2.594 -0.1583  1.6947  1.1618
25073SOL    HW282335   1.521   3.980   2.620  2.6527 -0.0292  0.8699
25074SOL     OW82336   7.845   2.036   1.829 -0.5604  0.0934 -0.3138
25074SOL    HW182337   7.894   2.021   1.910 -0.6196  0.9828 -0.0982
25074SOL    HW282338   7.762   2.073   1.858 -1.6714 -2.0294 -0.6322
25075SOL     OW82339   7.557  10.434   8.360 -0.0586  0.2702 -0.2102
25075SOL    HW182340   7.563  10.516   8.311  3.0757  0.3963  0.1435
25075SOL    HW282341   7.534  10.369   8.293 -1.6265  1.2421 -0.6720
25076SOL     OW82342  10.031   4.953   2.487  0.1477  0.0438  0.4030
25076SOL    HW182343   9.956   4.925   2.435 -0.2563  0.5965  0.6767
25076SOL    HW282344  10.105   4.903   2.452 -0.3562 -0.5479  0.1700
25077SOL     OW82345  11.723   3.207   3.880 -0.0246 -0.2046 -0.1129
25077SOL    HW182346  11.675   3.290   3.878  0.4826  0.3387  3.6471
25077SOL    HW282347  11.658   3.143   3.910  0.3845 -0.5224  0.0899
25078SOL     OW82348  10.599   4.540   9.366  0.1019  0.5766  0.0115
25078SOL    HW182349  10.556   4.625   9.355  0.0175  0.7406  1.4685
25078SOL    HW282350  10.675   4.544   9.308 -0.4488  1.2385 -0.7040
25079SOL     OW82351   2.322   9.722   8.154 -0.0705 -0.4301 -0.1621
25079SOL    HW182352   2.291   9.645   8.201  0.0681 -0.6002 -0.3443
25079SOL    HW282353   2.401   9.749   8.202 -0.3505 -0.1568  0.1428
25080SOL     OW82354  11.533  10.329   4.054 -0.3508 -0.0485 -0.1251
25080SOL    HW182355  11.468  10.388   4.092  0.1298 -0.4994  1.4538
25080SOL    HW282356  11.590  10.385   4.002 -1.2919  0.5134 -0.5818
25081SOL     OW82357   6.294   9.269  12.364  0.0241 -0.1285  0.4250
25081SOL    HW182358   6.288   9.174  12.372 -1.4031  0.0272  1.7052
25081SOL    HW282359   6.227   9.292  12.300 -0.9071  0.1328  1.4546
25082SOL     OW82360   5.618  12.264   1.548  0.4091 -0.3554  0.2871
25082SOL    HW182361   5.564  12.302   1.479  0.2853  1.6308  1.3847
25082SOL    HW282362   5.559  12.205   1.595  0.5164 -1.7895 -1.2719
25083SOL     OW82363   1.708   6.009  12.777 -0.1442  0.5586  0.2315
25083SOL    HW182364   1.775   6.011  12.709 -1.3867 -0.6740 -1.0800
25083SOL    HW282365   1.688   6.101  12.793  0.0808  0.8691 -1.1650
25084SOL     OW82366   6.760   4.270   5.526 -0.0367  0.2048 -0.0335
25084SOL    HW182367   6.796   4.186   5.553  0.2026  0.2606 -0.1780
25084SOL    HW282368   6.827   4.334   5.550  1.2729  0.0420 -2.8385
25085SOL     OW82369   7.515   5.582   0.529  0.6134  0.2709 -0.6775
25085SOL    HW182370   7.574   5.633   0.585  0.7170  1.0405 -1.4726
25085SOL    HW282371   7.440   5.640   0.513 -0.0198 -0.4224 -0.2904
25086SOL     OW82372   6.702   2.986  12.392  0.2316 -0.1958  0.6695
25086SOL    HW182373   6.785   2.939  12.380  0.7737  1.2229 -1.9845
25086SOL    HW282374   6.727   3.078  12.401 -1.0320  0.2665 -0.2417
25087SOL     OW82375   1.527   7.386  10.282 -0.3957  0.4160 -0.2179
25087SOL    HW182376   1.588   7.315  10.265 -2.0648 -1.2594  0.4699
25087SOL    HW282377   1.481   7.399  10.199 -2.0169 -1.2913  0.3517
25088SOL     OW82378   1.748   5.053   6.174 -0.1995  0.5495 -0.3869
25088SOL    HW182379   1.758   5.132   6.120 -0.1649 -0.0907 -1.3483
25088SOL    HW282380   1.822   4.997   6.149 -0.0047  0.3577  0.5615
25089SOL     OW82381   4.731   8.900   4.741  0.1400  0.0778  0.0730
25089SOL    HW182382   4.722   8.805   4.754 -0.1460  0.1028  0.0537
25089SOL    HW282383   4.772   8.908   4.655 -0.2749 -0.0157 -0.1364
25090SOL     OW82384   8.462   2.337  12.871  0.8149  0.2765  0.4193
25090SOL    HW182385   8.440   2.398  12.801 -0.0612  0.4011  0.7892
25090SOL    HW282386   8.545   2.369  12.906  0.6049  0.9711  0.2955
25091SOL     OW82387   9.366   4.641  11.892  0.2911 -1.0798  0.4869
25091SOL    HW182388   9.350   4.692  11.813 -0.5908 -1.3029  0.5078
25091SOL    HW282389   9.438   4.686  11.935 -0.8750  0.5744  0.8230
25092SOL     OW82390  12.671  10.259   1.052 -0.2259  0.1226 -0.6310
25092SOL    HW182391  12.579  10.259   1.027 -0.0410  0.4932 -1.3384
25092SOL    HW282392  12.680  10.184   1.111 -0.6004 -1.0219 -1.9835
25093SOL     OW82393  10.741   5.403   2.936  0.4966  0.0119 -0.2612
25093SOL    HW182394  10.788   5.413   3.019 -1.2343 -0.9466  0.8927
25093SOL    HW282395  10.715   5.492   2.912  0.9138  0.2806  0.2679
25094SOL     OW82396   0.753  12.172   8.813 -0.1922  0.6158  0.1488
25094SOL    HW182397   0.726  12.260   8.784 -2.0024 -0.9698 -3.6057
25094SOL    HW282398   0.672  12.133   8.847 -0.0552 -0.4690 -0.7445
25095SOL     OW82399   4.751   6.331   8.591  0.0177 -0.1426  0.3989
25095SOL    HW182400   4.821   6.296   8.536  0.8300  0.5134  0.9842
25095SOL    HW282401   4.746   6.270   8.665 -0.6472 -0.6764 -0.0717
25096SOL     OW82402   3.346   5.019   2.439  0.0718  0.1673 -0.2500
25096SOL    HW182403   3.391   4.971   2.507  0.2631 -0.7071 -0.9713
25096SOL    HW282404   3.317   4.952   2.377  0.5949  0.9895 -1.4340
25097SOL     OW82405   3.028   9.699   3.658  1.1929  0.4612 -0.0266
25097SOL    HW182406   2.971   9.756   3.710 -0.7149  0.7977 -2.2954
25097SOL    HW282407   3.074   9.759   3.599  0.3009 -0.1276 -1.3982
25098SOL     OW82408   6.388  11.314   6.449 -0.0243  0.2726 -0.6970
25098SOL    HW182409   6.422  11.268   6.372 -2.0079 -0.6625 -1.0899
25098SOL    HW282410   6.392  11.248   6.519 -2.2502 -0.3985 -1.1022
25099SOL     OW82411   9.981   8.669   5.290 -0.0720  0.2562 -0.1900
25099SOL    HW182412  10.060   8.615   5.282  0.4453  1.1388 -1.1662
25099SOL    HW282413  10.014   8.758   5.303 -0.9164  0.5876 -0.2825
25100SOL     OW82414   2.512   9.033   3.911 -0.1410 -0.2533 -0.3519
25100SOL    HW182415   2.528   9.119   3.951  1.6751  0.0181 -1.5277
25100SOL    HW282416   2.488   9.053   3.820  0.8281 -0.9672 -0.7855
25101SOL     OW82417   7.162  12.739  11.031  0.0557  0.0892 -0.4898
25101SOL    HW182418   7.125  12.681  10.965 -0.5814  2.2631 -2.1700
25101SOL    HW282419   7.114  12.718  11.111  1.0589 -2.8221 -0.5466
25102SOL     OW82420  12.062   4.492   0.051 -0.2680  0.3119  0.2712
25102SOL    HW182421  11.989   4.463   0.105 -0.6074  1.4389  0.4389
25102SOL    HW282422  12.139   4.481   0.106 -0.6265  1.5808  1.0634
25103SOL     OW82423   8.173   3.954  10.781  0.2264  0.5428  0.1795
25103SOL    HW182424   8.114   3.945  10.706  0.0334 -3.2596  0.5805
25103SOL    HW282425   8.115   3.979  10.854  0.3503  3.8041 -0.7144
25104SOL     OW82426   4.278  12.685   1.291 -0.2979 -0.7471  0.2463
25104SOL    HW182427   4.193  12.708   1.328  0.3852  0.7846  0.9971
25104SOL    HW282428   4.280  12.728   1.206  0.4192  0.8885  1.0389
25105SOL     OW82429  12.507   8.027   0.839 -0.4801 -0.6419 -0.4650
25105SOL    HW182430  12.564   7.952   0.857 -1.1114 -0.8861  0.5817
25105SOL    HW282431  12.492   8.068   0.924 -2.6502 -1.1588 -0.5371
25106SOL     OW82432   5.889  10.399   2.877 -0.3791  0.4196 -0.2370
25106SOL    HW182433   5.808  10.440   2.906 -0.2766  0.1383  0.4595
25106SOL    HW282434   5.931  10.369   2.958  0.4244  0.5779 -0.5891
25107SOL     OW82435  11.188  10.273   7.859  0.1811  0.4219 -0.3016
25107SOL    HW182436  11.126  10.329   7.905  0.4217 -0.4182  1.1203
25107SOL    HW282437  11.255  10.253   7.924  0.3819 -1.0685 -0.9182
25108SOL     OW82438   4.081  10.343   9.563 -0.4619 -0.0364 -0.1365
25108SOL    HW182439   4.084  10.369   9.471  0.1213 -0.2048 -0.1668
25108SOL    HW282440   4.164  10.298   9.579 -0.2363  0.6344  0.6669
25109SOL     OW82441   3.106  11.902   8.195 -0.3506  0.1118  0.6459
25109SOL    HW182442   3.101  11.815   8.156  1.3885  0.0698  0.4195
25109SOL    HW282443   3.063  11.959   8.132 -1.7733 -0.5948  0.9365
25110SOL     OW82444   1.549   6.867  10.160  0.3477 -0.4286 -0.0818
25110SOL    HW182445   1.465   6.867  10.115  0.7209 -1.6144 -0.8158
25110SOL    HW282446   1.527   6.890  10.251 -0.5872  0.5608 -0.5349
25111SOL     OW82447   2.055  11.404  11.342 -0.4025 -0.0239 -0.6537
25111SOL    HW182448   2.039  11.496  11.362  1.1518 -0.0738  1.1949
25111SOL    HW282449   1.995  11.356  11.399 -0.8609 -0.1499 -1.2455
25112SOL     OW82450   3.956   5.388   9.084 -0.3679  0.1352  0.1460
25112SOL    HW182451   3.946   5.393   8.989 -1.3838 -0.7756  0.1811
25112SOL    HW282452   3.882   5.438   9.118  0.3133  0.9459  0.4773
25113SOL     OW82453   7.977   3.354   3.114  0.2753 -0.1638  0.0800
25113SOL    HW182454   8.012   3.357   3.025  2.1100 -1.0727  0.7341
25113SOL    HW282455   7.884   3.332   3.102  1.1301 -3.5336 -1.5484
25114SOL     OW82456  10.552   0.278  10.040  0.1224  0.1614  0.0318
25114SOL    HW182457  10.625   0.253   9.985  0.0223  1.4296 -0.7094
25114SOL    HW282458  10.592   0.303  10.123  0.3336 -1.0406  0.3159
25115SOL     OW82459   9.797   3.300   3.787  0.6910  0.0727 -0.0943
25115SOL    HW182460   9.740   3.252   3.727 -2.2005  0.8812  1.7878
25115SOL    HW282461   9.848   3.232   3.831 -0.4648 -0.9327 -0.2426
25116SOL     OW82462   6.429   1.496   5.309  0.0693  0.0180  0.1022
25116SOL    HW182463   6.450   1.460   5.223 -0.3360  1.4313 -0.6253
25116SOL    HW282464   6.345   1.457   5.332  0.0653 -0.1861 -0.2595
25117SOL     OW82465   0.134   9.414   2.651  0.1280  0.0129 -0.1072
25117SOL    HW182466   0.212   9.361   2.634  0.4002  0.5479 -0.5643
25117SOL    HW282467   0.118   9.459   2.568 -1.1013 -0.6439 -0.2478
25118SOL     OW82468  10.597   4.193   1.155  0.0292 -0.7025  0.0283
25118SOL    HW182469  10.529   4.242   1.107  0.2182 -0.0966  0.3721
25118SOL    HW282470  10.570   4.198   1.246  0.6367 -0.2888  0.1901
25119SOL     OW82471   2.496   8.608   6.469  0.4291 -0.4115 -0.5039
25119SOL    HW182472   2.428   8.550   6.435  0.0651  0.8355 -2.0340
25119SOL    HW282473   2.576   8.556   6.466 -0.0096 -1.0673 -1.1880
25120SOL     OW82474   6.434   3.467   9.686 -0.0916  0.6171 -0.1081
25120SOL    HW182475   6.430   3.561   9.698 -0.8925  0.6914 -0.8310
25120SOL    HW282476   6.509   3.453   9.628  0.1169  0.7965  0.1214
25121SOL     OW82477   5.764   0.809   0.212 -0.0807  0.1034 -0.4100
25121SOL    HW182478   5.725   0.888   0.250 -0.1186 -0.1416  0.0666
25121SOL    HW282479   5.853   0.836   0.186  0.6761 -0.2283  1.6911
25122SOL     OW82480   8.623   2.082  11.389  0.3733 -0.2399  0.3490
25122SOL    HW182481   8.680   2.151  11.355 -0.3361 -0.2446 -0.9007
25122SOL    HW282482   8.602   2.027  11.313 -1.2796 -0.2362  0.7552
25123SOL     OW82483   5.390   2.601   5.397 -0.1535  0.1726 -0.1319
25123SOL    HW182484   5.325   2.578   5.464 -1.3499 -1.7220 -1.8356
25123SOL    HW282485   5.347   2.666   5.342  0.1919  0.4443 -0.0913
25124SOL     OW82486   4.412   1.898   8.387  0.0121 -0.0525  0.2797
25124SOL    HW182487   4.320   1.872   8.381  0.1796 -1.2092  1.8455
25124SOL    HW282488   4.415   1.987   8.354 -1.4059 -0.5144 -1.1808
25125SOL     OW82489   5.370   5.627   1.254  0.2955  0.0556 -0.2718
25125SOL    HW182490   5.409   5.714   1.243  0.8791 -0.1114  0.4038
25125SOL    HW282491   5.420   5.571   1.195 -1.1928  0.4641 -2.0271
25126SOL     OW82492  10.321   2.920  10.266  0.7221  0.3879  0.2371
25126SOL    HW182493  10.325   3.015  10.282 -0.9417  0.2134  2.0481
25126SOL    HW282494  10.260   2.912  10.192 -2.1504  0.6383  2.4234
25127SOL     OW82495   2.839   2.260  10.753 -0.1240 -0.2536 -0.0191
25127SOL    HW182496   2.860   2.320  10.824 -0.9184  0.6462 -0.5298
25127SOL    HW282497   2.757   2.218  10.781 -0.5546  0.2627 -0.4927
25128SOL     OW82498   7.236   6.905   0.232 -0.7119  0.1614  0.3264
25128SOL    HW182499   7.299   6.840   0.200  0.1442  1.2765 -0.3435
25128SOL    HW282500   7.187   6.931   0.154  0.4641  1.9128  0.1197
25129SOL     OW82501  12.450  12.309   0.526 -0.3597 -0.5627 -0.1959
25129SOL    HW182502  12.530  12.278   0.485 -0.8048 -0.6840 -0.9852
25129SOL    HW282503  12.478  12.344   0.611  0.2903 -2.1906  0.2856
25130SOL     OW82504   7.180  12.303   2.100 -0.3429  0.1059 -0.1213
25130SOL    HW182505   7.234  12.380   2.084 -0.4399  0.3862  0.8585
25130SOL    HW282506   7.241  12.239   2.137 -0.3226 -0.2009 -0.6675
25131SOL     OW82507  12.109  11.843   8.577  0.0044  0.2967  0.9641
25131SOL    HW182508  12.086  11.758   8.615  0.2295 -0.8246 -1.2795
25131SOL    HW282509  12.025  11.884   8.558 -0.1098 -0.0974  0.6172
25132SOL     OW82510   6.550  10.933  11.891 -0.4962  0.3125  0.0283
25132SOL    HW182511   6.626  10.971  11.847  0.8864 -0.1991  1.8244
25132SOL    HW282512   6.563  10.838  11.885 -1.7924  0.1743 -0.9233
25133SOL     OW82513   9.891   6.275   1.228  0.1539  0.2174  0.2865
25133SOL    HW182514   9.956   6.294   1.296  1.2882  2.8967 -1.4036
25133SOL    HW282515   9.903   6.183   1.208  0.4982 -0.3981  2.9123
25134SOL     OW82516   8.206   0.127   2.622 -0.3342 -0.2166 -0.2425
25134SOL    HW182517   8.234   0.118   2.713 -1.1049 -0.8436 -0.0534
25134SOL    HW282518   8.113   0.146   2.627 -0.5274 -0.9197 -0.9144
25135SOL     OW82519   2.736   1.372   7.095 -0.0084 -0.1616 -0.1159
25135SOL    HW182520   2.818   1.362   7.046 -0.2783  2.1424 -1.1515
25135SOL    HW282521   2.675   1.411   7.033 -1.7096 -1.1530  0.8553
25136SOL     OW82522   6.107  11.851   9.244 -0.5974  0.4818 -0.0420
25136SOL    HW182523   6.078  11.769   9.204 -1.8211  1.0293 -0.3236
25136SOL    HW282524   6.116  11.831   9.337  1.5340 -0.6016 -0.4364
25137SOL     OW82525  12.931   0.843   8.277 -0.0618  0.1354 -0.7770
25137SOL    HW182526  12.842   0.878   8.276 -0.0314  0.3778  1.3248
25137SOL    HW282527  12.920   0.749   8.263 -0.7578  0.0146  0.4926
25138SOL     OW82528   5.829   6.603   5.321 -0.3950  0.1720  0.1254
25138SOL    HW182529   5.873   6.652   5.391 -1.2569  0.7376  0.2875
25138SOL    HW282530   5.894   6.539   5.292  0.5023  0.9357  0.4053
25139SOL     OW82531   0.507  12.858   1.156 -0.1198  0.2986  0.0182
25139SOL    HW182532   0.412  12.855   1.168 -0.1686  1.4741  0.0614
25139SOL    HW282533   0.522  12.938   1.105  0.8542  0.1768  0.0972
25140SOL     OW82534   4.283   6.370  11.605 -0.1819  0.0450 -0.0182
25140SOL    HW182535   4.263   6.407  11.692 -1.1476 -0.3576 -0.0606
25140SOL    HW282536   4.217   6.409  11.547  1.5107  1.6978 -0.9585
25141SOL     OW82537   6.813   9.951   3.014 -0.4327 -0.3697  0.2471
25141SOL    HW182538   6.722   9.959   3.043 -0.4305 -0.8882  0.4016
25141SOL    HW282539   6.812   9.879   2.952 -0.0848 -0.5209  0.4185
25142SOL     OW82540   7.243   9.723   4.497  0.2808  0.2551  0.3821
25142SOL    HW182541   7.228   9.797   4.439  1.2333  0.8204  0.8336
25142SOL    HW282542   7.334   9.698   4.482  0.8911  1.0978  2.3703
25143SOL     OW82543   8.694   3.126   2.443  0.6130  0.3573 -0.6930
25143SOL    HW182544   8.709   3.062   2.512 -0.3886 -0.4429 -1.2050
25143SOL    HW282545   8.600   3.140   2.443  0.7565  1.4415 -0.9544
25144SOL     OW82546  10.712  11.384   1.511  0.1850  0.4680 -0.3052
25144SOL    HW182547  10.647  11.318   1.535  0.9912 -0.3091 -0.2098
25144SOL    HW282548  10.737  11.361   1.422 -0.1912  1.1917 -0.5956
25145SOL     OW82549   0.551  12.347  12.176 -0.2652  0.0448  0.2228
25145SOL    HW182550   0.508  12.302  12.249  0.2885 -1.2750 -0.2354
25145SOL    HW282551   0.515  12.305  12.097 -1.3112  1.8563 -0.3184
25146SOL     OW82552   1.771   4.935   9.313  0.9332  0.0164 -0.0391
25146SOL    HW182553   1.835   4.880   9.357 -1.0220 -3.0734 -0.7027
25146SOL    HW282554   1.766   4.899   9.224  0.3816  2.0635 -0.8937
25147SOL     OW82555   1.217  10.843   4.750 -0.1782  0.5744  0.1576
25147SOL    HW182556   1.285  10.899   4.787 -1.2398  1.4341  0.8928
25147SOL    HW282557   1.136  10.893   4.761 -1.0521 -0.7537  0.0892
25148SOL     OW82558  12.837  10.360  12.079 -0.0652 -0.1603  0.0107
25148SOL    HW182559  12.833  10.277  12.030 -1.4988 -0.2795  0.2715
25148SOL    HW282560  12.764  10.411  12.044 -2.9960 -1.3010  3.7939
25149SOL     OW82561   6.262  10.648   0.299  0.4267  0.1319 -0.7480
25149SOL    HW182562   6.351  10.655   0.333 -0.0753  0.8100  0.4891
25149SOL    HW282563   6.207  10.640   0.377 -0.7436  1.4856 -1.3837
25150SOL     OW82564   1.602   3.011   2.040 -0.0740 -0.1444  0.0642
25150SOL    HW182565   1.643   2.935   1.999  0.7401  1.2286 -1.8190
25150SOL    HW282566   1.518   3.020   1.995 -0.6962 -0.5653  1.0929
25151SOL     OW82567   1.053   3.482   5.960  0.5515  0.7522  0.0268
25151SOL    HW182568   0.979   3.539   5.979  1.0986  2.3421 -2.2297
25151SOL    HW282569   1.117   3.502   6.027 -0.0173  1.3717  0.3936
25152SOL     OW82570   1.571  10.464   0.428 -0.7116 -0.5784  1.2027
25152SOL    HW182571   1.536  10.470   0.516 -0.9258 -2.6188  1.3056
25152SOL    HW282572   1.663  10.441   0.440 -0.6962 -0.6900  0.8977
25153SOL     OW82573  12.123   9.385   7.104 -0.4626 -0.2692 -0.5867
25153SOL    HW182574  12.125   9.290   7.091  1.3947 -0.1743 -1.1443
25153SOL    HW282575  12.209   9.416   7.076 -1.8403  1.9231 -2.8453
25154SOL     OW82576   5.856   2.288   9.710  0.1054 -0.1313 -0.7418
25154SOL    HW182577   5.771   2.325   9.687  0.2485  1.0990  0.5805
25154SOL    HW282578   5.847   2.194   9.694 -0.8855  0.2181 -2.3635
25155SOL     OW82579  11.138   2.591   8.734  0.8993 -0.8985 -0.0476
25155SOL    HW182580  11.175   2.663   8.785  3.1393 -1.0256 -1.3967
25155SOL    HW282581  11.045   2.593   8.757  0.3220  3.8290 -1.6245
25156SOL     OW82582   0.981   2.544   1.638  0.3559 -0.0613  0.3829
25156SOL    HW182583   1.071   2.571   1.623  0.2708 -0.8058 -1.7937
25156SOL    HW282584   0.952   2.509   1.554 -2.3213  1.1431  0.6952
25157SOL     OW82585   8.538  11.418  12.621  0.8229 -0.4888  0.0661
25157SOL    HW182586   8.632  11.436  12.615  0.5541  1.0781  0.0275
25157SOL    HW282587   8.517  11.429  12.714  0.7993 -1.6288  0.2145
25158SOL     OW82588   8.468   9.763   2.549  0.0627  0.7469  1.0379
25158SOL    HW182589   8.375   9.777   2.567  0.2824  0.4767  2.4587
25158SOL    HW282590   8.514   9.807   2.620  1.0111  0.5600  0.5542
25159SOL     OW82591   3.626  10.576   8.888 -0.2267 -0.4570 -0.5879
25159SOL    HW182592   3.560  10.569   8.958 -0.1053 -1.1085 -0.5286
25159SOL    HW282593   3.620  10.666   8.858  0.6390  0.2262  1.1649
25160SOL     OW82594   9.583   5.319   1.150  0.2049  0.6530 -0.6984
25160SOL    HW182595   9.503   5.306   1.099 -1.0954 -1.5035  1.6853
25160SOL    HW282596   9.640   5.246   1.125  0.0339  0.2576  0.0362
25161SOL     OW82597  11.592   9.283   6.928 -0.2262 -0.3640  0.2377
25161SOL    HW182598  11.593   9.211   6.866 -0.3675  0.4859 -0.7821
25161SOL    HW282599  11.666   9.266   6.987 -0.6511 -1.6598  0.4215
25162SOL     OW82600   9.528   6.484   3.109  0.9561  0.1898 -0.6957
25162SOL    HW182601   9.501   6.450   3.194  0.9821 -0.0660 -0.7884
25162SOL    HW282602   9.573   6.411   3.067 -0.9071 -0.4192 -1.7952
25163SOL     OW82603   9.571  12.936   9.599  0.6008  0.0300  0.3971
25163SOL    HW182604   9.515  12.998   9.644 -0.6884 -1.0992  0.4131
25163SOL    HW282605   9.601  12.983   9.521 -2.2813 -0.0403 -0.8667
25164SOL     OW82606   7.579   3.641   8.400 -0.1244  0.2077 -0.4970
25164SOL    HW182607   7.606   3.549   8.394  0.4839  0.0253  2.9705
25164SOL    HW282608   7.495   3.638   8.446 -0.8605  1.3692 -1.6980
25165SOL     OW82609   0.476   5.020   4.098 -0.5842  0.1733  0.0948
25165SOL    HW182610   0.445   5.098   4.145  4.1868  1.6940  1.2598
25165SOL    HW282611   0.480   4.952   4.166 -1.5270 -0.1069 -0.1211
25166SOL     OW82612   6.369   5.268   1.799 -0.2120  0.0052 -0.0134
25166SOL    HW182613   6.416   5.340   1.842 -1.1042  0.7993 -0.3334
25166SOL    HW282614   6.276   5.290   1.810 -0.5665 -1.9311  1.2896
25167SOL     OW82615   2.828  12.672   0.144 -0.1784 -0.3975 -0.3548
25167SOL    HW182616   2.768  12.599   0.152 -2.7741  1.4111 -1.7634
25167SOL    HW282617   2.804  12.731   0.215 -0.7273  0.7294 -1.4314
25168SOL     OW82618  10.616   9.816   5.085  0.0382  0.5649  0.1811
25168SOL    HW182619  10.642   9.758   5.013 -1.6491  0.4513 -0.3967
25168SOL    HW282620  10.681   9.802   5.153  0.6636 -0.6783 -0.6405
25169SOL     OW82621  11.446   8.755   5.566 -1.0637 -0.2570  0.3298
25169SOL    HW182622  11.483   8.824   5.511 -1.9609  1.3085  1.6199
25169SOL    HW282623  11.523   8.712   5.605 -0.3865 -1.6280 -2.3077
25170SOL     OW82624   4.975   0.617  10.193 -0.0828 -0.4652  0.1592
25170SOL    HW182625   4.913   0.685  10.221 -0.6661 -1.1275  0.4861
25170SOL    HW282626   4.937   0.535  10.225  2.4023 -0.6519  2.9465
25171SOL     OW82627  12.741   4.224   4.423  0.4112  0.3930  0.6140
25171SOL    HW182628  12.769   4.208   4.514 -2.7337 -1.0150  1.4543
25171SOL    HW282629  12.760   4.317   4.409 -0.0311  0.9402  3.1301
25172SOL     OW82630  11.054  10.576   6.088  0.2294 -0.0396 -0.1938
25172SOL    HW182631  11.100  10.639   6.033  1.3183 -0.4085  0.2580
25172SOL    HW282632  10.978  10.623   6.121  0.2819  0.5958 -0.9552
25173SOL     OW82633   7.811  12.874   3.950 -0.4728 -0.2621 -0.1782
25173SOL    HW182634   7.845  12.785   3.952 -1.8509 -0.8058  0.4632
25173SOL    HW282635   7.873  12.924   4.002 -1.2129 -1.4820  2.0292
25174SOL     OW82636   3.862   7.318   8.384 -0.0339  0.3872 -0.2314
25174SOL    HW182637   3.831   7.370   8.458 -2.1551  1.1102 -1.5187
25174SOL    HW282638   3.836   7.229   8.404 -0.8949  0.6304 -0.2090
25175SOL     OW82639   6.700  10.375  12.729  0.1139  0.1829  0.1168
25175SOL    HW182640   6.760  10.427  12.781 -1.1613  2.0170 -0.1329
25175SOL    HW282641   6.654  10.319  12.792  0.0686  0.8578  0.6881
25176SOL     OW82642   1.854   1.155   1.830 -0.3115  0.4985 -0.3400
25176SOL    HW182643   1.785   1.221   1.833 -1.3849 -0.6119  0.1875
25176SOL    HW282644   1.932   1.199   1.865 -1.0162  1.4606  0.0346
25177SOL     OW82645   2.986   2.641  12.221 -0.3625 -0.6520 -0.6447
25177SOL    HW182646   3.053   2.677  12.279 -2.8450 -0.1246  2.1492
25177SOL    HW282647   3.020   2.555  12.196  1.4979 -0.2728  0.3827
25178SOL     OW82648   5.013  11.517  10.309  0.2700  0.6047  0.3327
25178SOL    HW182649   4.948  11.575  10.348 -0.7791  0.2135 -0.7891
25178SOL    HW282650   4.962  11.451  10.263  1.3935  1.4198 -2.2862
25179SOL     OW82651   6.381   1.912   4.836  0.5380 -0.0096  1.4405
25179SOL    HW182652   6.413   1.990   4.791  0.1427 -0.1685  0.8777
25179SOL    HW282653   6.441   1.843   4.810 -0.8844 -0.5834 -0.5892
25180SOL     OW82654  10.600   5.280   6.605 -0.4038 -0.0417 -0.5639
25180SOL    HW182655  10.620   5.186   6.598  0.1928 -0.0877  1.1760
25180SOL    HW282656  10.664   5.313   6.668 -0.1109  1.7129 -1.6987
25181SOL     OW82657   6.890   5.117   4.008  1.0388  0.0252 -0.1571
25181SOL    HW182658   6.909   5.121   4.101  1.2295  1.2522 -0.2335
25181SOL    HW282659   6.796   5.135   4.002  1.0232 -0.0695 -0.1975
25182SOL     OW82660  10.641  12.166   9.781  0.0576 -0.6848  0.0017
25182SOL    HW182661  10.681  12.241   9.823 -0.2040 -0.5806  0.0673
25182SOL    HW282662  10.548  12.173   9.801  0.1230 -1.4246  0.6235
25183SOL     OW82663   1.604   0.136   1.924 -0.2247  0.0181  0.1813
25183SOL    HW182664   1.685   0.183   1.904 -0.5164  0.3925 -0.1359
25183SOL    HW282665   1.620   0.046   1.896 -0.3788  0.3792 -1.1269
25184SOL     OW82666   8.440   3.224   9.711 -0.2384  0.0266  0.1635
25184SOL    HW182667   8.404   3.135   9.714 -0.1091 -0.0249  0.1729
25184SOL    HW282668   8.534   3.212   9.723 -0.3250  0.2421  1.1768
25185SOL     OW82669  12.864   7.381   6.249  0.2096  0.1190 -0.5287
25185SOL    HW182670  12.777   7.356   6.219  0.9055 -3.2215 -0.0829
25185SOL    HW282671  12.907   7.418   6.172 -0.9202 -0.1447 -1.2963
25186SOL     OW82672   5.913  12.209   9.369  0.0793 -0.7333  0.2460
25186SOL    HW182673   5.981  12.213   9.302  0.5520  1.1942  0.8000
25186SOL    HW282674   5.934  12.130   9.419 -0.3360 -2.2847 -1.8507
25187SOL     OW82675   1.727   2.609   8.785 -0.0564 -0.8426 -0.5252
25187SOL    HW182676   1.689   2.695   8.769  2.0109  0.2985  0.2874
25187SOL    HW282677   1.770   2.586   8.703 -0.3947 -0.9864 -0.6628
25188SOL     OW82678   4.835  10.381  12.718  0.4082  0.0858  0.2026
25188SOL    HW182679   4.779  10.336  12.780 -0.9960 -0.1563 -1.1742
25188SOL    HW282680   4.814  10.473  12.729 -0.7267 -0.0412 -0.6867
25189SOL     OW82681   6.892   4.532  12.739 -0.4810  0.4337 -0.0925
25189SOL    HW182682   6.888   4.627  12.748 -0.9423  0.4347 -0.2716
25189SOL    HW282683   6.840   4.499  12.812 -0.4933  0.3234 -0.1518
25190SOL     OW82684  12.356   0.373   1.902  0.8205  0.5627 -0.0729
25190SOL    HW182685  12.415   0.444   1.927  1.6649 -0.3660  0.6141
25190SOL    HW282686  12.310   0.351   1.983  0.3026  0.5517 -0.3637
25191SOL     OW82687   0.662  10.514   6.746 -0.1971 -0.2111  0.0972
25191SOL    HW182688   0.718  10.579   6.789  0.5794 -1.4346  0.9934
25191SOL    HW282689   0.680  10.524   6.653  0.1364  0.6440  0.2462
25192SOL     OW82690   7.450  10.113   1.203  0.2460  0.0766 -0.5091
25192SOL    HW182691   7.462  10.143   1.113  0.7509 -0.8294 -0.7577
25192SOL    HW282692   7.367  10.152   1.230  0.6496  1.3030 -0.9613
25193SOL     OW82693   0.008  10.577   2.058  0.5998 -0.4049  0.0316
25193SOL    HW182694   0.020  10.604   1.967 -0.8330  4.1710  0.9628
25193SOL    HW282695   0.080  10.618   2.105  0.5847 -1.6326  1.2049
25194SOL     OW82696   4.129   2.473   8.384 -0.2164  0.5279  0.0396
25194SOL    HW182697   4.040   2.505   8.369 -0.3914  0.7076  1.3104
25194SOL    HW282698   4.182   2.552   8.393  0.1187  0.4210 -0.8830
25195SOL     OW82699   2.895   6.595   4.536 -0.3932 -0.3561  0.4111
25195SOL    HW182700   2.843   6.642   4.471 -1.7256 -2.9611 -0.5524
25195SOL    HW282701   2.831   6.560   4.597  0.5459 -0.8540  1.1382
25196SOL     OW82702  11.070   9.124   9.081  0.1061  0.0153  0.0656
25196SOL    HW182703  11.009   9.118   9.007  0.0293 -0.7416  0.1756
25196SOL    HW282704  11.087   9.033   9.105  1.0740  0.2242  0.2171
25197SOL     OW82705   8.768  11.120   0.053 -0.1191  0.0797  0.3831
25197SOL    HW182706   8.678  11.136   0.084 -0.3361 -0.7500  0.1954
25197SOL    HW282707   8.785  11.193  -0.007 -0.3986  0.6365  0.9670
25198SOL     OW82708   0.871  11.161   6.829 -0.0395  0.4521  0.1269
25198SOL    HW182709   0.810  11.132   6.762  0.1558 -0.2269  0.2344
25198SOL    HW282710   0.818  11.169   6.908 -0.0919  0.3897  0.0977
25199SOL     OW82711  12.003   0.331   2.729  0.1421 -0.3539 -0.6521
25199SOL    HW182712  11.959   0.304   2.811  0.8705  0.3682 -0.0101
25199SOL    HW282713  11.941   0.391   2.688  0.1091 -0.0885 -0.2247
25200SOL     OW82714   2.202   3.763   0.916  0.4847  0.0381 -0.4386
25200SOL    HW182715   2.144   3.732   0.986 -0.1457  1.7793 -0.1539
25200SOL    HW282716   2.170   3.719   0.837  0.3229 -0.8702  0.1154
25201SOL     OW82717   8.446   7.241   9.726 -0.0289  0.3024 -0.4617
25201SOL    HW182718   8.456   7.202   9.813  0.1461  0.7180 -0.2948
25201SOL    HW282719   8.366   7.202   9.692 -0.0802  0.1106 -0.1295
25202SOL     OW82720   8.499   3.065   1.198  0.7563 -0.0713 -0.5633
25202SOL    HW182721   8.588   3.039   1.171  0.1844 -1.8789 -0.8137
25202SOL    HW282722   8.492   3.036   1.289  0.0462 -0.9734 -0.8942
25203SOL     OW82723  12.915   2.068   5.698 -0.0492 -0.2046 -0.2828
25203SOL    HW182724  12.860   2.103   5.628 -0.0947 -0.4199 -0.3575
25203SOL    HW282725  12.914   2.135   5.766 -0.2520 -0.1262 -0.3630
25204SOL     OW82726   6.769   8.387   4.529 -0.0024  0.5499 -0.5465
25204SOL    HW182727   6.724   8.471   4.528 -0.6868  0.1880 -1.2724
25204SOL    HW282728   6.704   8.325   4.496  0.4769 -0.2718  0.0412
25205SOL     OW82729   7.082   2.353   5.487  0.2913 -0.2441  0.0800
25205SOL    HW182730   7.039   2.270   5.507  1.6964 -1.1004 -0.2263
25205SOL    HW282731   7.015   2.405   5.442 -0.3698 -1.5810 -0.5568
25206SOL     OW82732  12.505   3.612   6.512 -0.7845 -0.0963 -0.3049
25206SOL    HW182733  12.430   3.633   6.455 -0.3627 -0.9757 -1.2233
25206SOL    HW282734  12.480   3.530   6.554 -0.8218  0.2235  0.2976
25207SOL     OW82735   5.980   2.720  12.283  0.2151 -0.2432 -0.1694
25207SOL    HW182736   5.931   2.744  12.205 -0.7502 -0.3709  0.3791
25207SOL    HW282737   6.072   2.722  12.256 -0.0282  0.8930 -0.9812
25208SOL     OW82738   5.758   0.606   5.027 -0.1005 -0.0172 -0.0907
25208SOL    HW182739   5.668   0.583   5.049  0.8156 -1.5837  2.4386
25208SOL    HW282740   5.807   0.525   5.037  1.3376  0.1987 -3.7352
25209SOL     OW82741   3.422   5.806  10.896 -0.4617 -0.2435  0.3454
25209SOL    HW182742   3.389   5.833  10.811  0.3276 -0.3323  0.0126
25209SOL    HW282743   3.515   5.789  10.883 -0.2265  0.1789  1.3221
25210SOL     OW82744   0.090  11.715  12.104 -0.2842 -0.2383 -0.2932
25210SOL    HW182745   0.035  11.671  12.169  0.3617 -0.9147 -0.1932
25210SOL    HW282746   0.114  11.646  12.042  1.0396 -0.1315  0.0720
25211SOL     OW82747  11.584  12.600  10.795 -0.7931  0.2381 -0.2453
25211SOL    HW182748  11.665  12.650  10.799 -1.3665  1.1305  0.6391
25211SOL    HW282749  11.596  12.531  10.860 -1.1426  1.0182  0.6743
25212SOL     OW82750   5.210   4.287   6.654  0.3680  0.0375 -0.1517
25212SOL    HW182751   5.250   4.332   6.579  1.0148  2.2587  1.4143
25212SOL    HW282752   5.285   4.258   6.707 -0.0798 -1.6699 -0.3893
25213SOL     OW82753   2.267   6.096   0.568  0.7666  0.3014  0.0149
25213SOL    HW182754   2.242   6.188   0.557 -2.3920 -0.2867  1.3227
25213SOL    HW282755   2.219   6.050   0.498 -3.6019 -1.0381  3.4250
25214SOL     OW82756  11.170   5.098  10.950  0.0577  0.1578  0.1245
25214SOL    HW182757  11.144   5.079  11.040  0.1911 -0.5379  0.0233
25214SOL    HW282758  11.089   5.086  10.899 -0.1227  0.9924  0.2059
25215SOL     OW82759  11.857   3.044   5.855 -0.3613 -0.2530  0.1323
25215SOL    HW182760  11.934   3.041   5.912 -0.2607  0.6680  0.0619
25215SOL    HW282761  11.782   3.036   5.916 -0.2482  0.4905  0.3815
25216SOL     OW82762  11.684   4.446   1.271 -0.1979 -0.0853 -0.3653
25216SOL    HW182763  11.624   4.418   1.202  0.7029  0.5231 -1.4295
25216SOL    HW282764  11.770   4.413   1.243 -0.0639 -1.4603  1.4084
25217SOL     OW82765   2.315  11.051   7.414 -0.1507  0.3771 -0.2532
25217SOL    HW182766   2.261  11.070   7.491  0.0081 -0.3780  0.0498
25217SOL    HW282767   2.253  11.016   7.350 -0.5532  2.3095 -1.0221
25218SOL     OW82768   3.191   4.057   9.546  0.0883 -0.1573 -0.3347
25218SOL    HW182769   3.244   3.978   9.554 -0.9056 -0.8254 -0.1634
25218SOL    HW282770   3.161   4.057   9.456 -0.0928 -0.0867 -0.2745
25219SOL     OW82771   6.355   1.714   5.498  0.0533 -0.1555 -0.0606
25219SOL    HW182772   6.391   1.641   5.446  1.4273  0.2830  0.2207
25219SOL    HW282773   6.288   1.673   5.553  0.5991 -1.1651 -0.1165
25220SOL     OW82774   3.983   9.949  12.535  0.1522 -0.2308 -1.1676
25220SOL    HW182775   4.048   9.887  12.502  2.1758  1.1128  0.0794
25220SOL    HW282776   3.941   9.985  12.456  0.3481 -1.6792 -1.9662
25221SOL     OW82777   9.312   1.689  11.665 -0.2770  0.5594  0.2479
25221SOL    HW182778   9.378   1.688  11.595 -1.2749 -0.3248 -0.7203
25221SOL    HW282779   9.347   1.629  11.731  0.1549  0.5413  0.0132
25222SOL     OW82780   1.338   9.651  10.470  0.0310 -0.0019  0.3833
25222SOL    HW182781   1.370   9.644  10.380  0.0033  1.0034  0.2788
25222SOL    HW282782   1.418   9.665  10.522  0.0297 -0.3991  0.4935
25223SOL     OW82783   9.356   7.201   0.738 -0.1814  0.5874  0.3307
25223SOL    HW182784   9.321   7.279   0.782  2.1126  1.0245  1.5190
25223SOL    HW282785   9.432   7.233   0.690  2.2193 -1.2210  2.7094
25224SOL     OW82786  10.335   7.056   2.826 -0.6249  0.8829 -0.1731
25224SOL    HW182787  10.280   7.046   2.748  0.5659  2.1574 -1.2210
25224SOL    HW282788  10.278   7.033   2.899 -1.4794 -1.4175 -1.4677
25225SOL     OW82789   9.231  11.372   0.648  0.1648 -0.2716 -0.0160
25225SOL    HW182790   9.232  11.433   0.721 -0.0840 -0.2525 -0.0289
25225SOL    HW282791   9.315  11.387   0.603  0.0733  0.1091 -0.0620
25226SOL     OW82792   7.512   5.696   5.132 -0.3665 -0.7082  0.0663
25226SOL    HW182793   7.569   5.626   5.164 -0.6464 -0.6003  0.8228
25226SOL    HW282794   7.466   5.727   5.210 -2.1841 -1.4337 -0.6485
25227SOL     OW82795   0.504  12.171   5.531  0.3817 -0.0700  0.2497
25227SOL    HW182796   0.429  12.183   5.472  0.2025  0.2741  0.5395
25227SOL    HW282797   0.488  12.088   5.574 -0.4827  0.5769  1.2216
25228SOL     OW82798   7.502   2.140  12.794  0.5510 -0.0631 -0.3039
25228SOL    HW182799   7.582   2.192  12.801  0.1673  0.4161  0.6059
25228SOL    HW282800   7.439   2.183  12.851  0.1151 -1.3296  0.2133
25229SOL     OW82801  11.169   5.488   3.254  0.3773 -0.1659  0.1611
25229SOL    HW182802  11.204   5.573   3.228  1.4296  0.0685  2.1579
25229SOL    HW282803  11.113   5.506   3.330  2.3101 -1.4222  1.9951
25230SOL     OW82804  10.075   2.993  10.632 -0.3843 -0.3363 -0.6935
25230SOL    HW182805  10.125   3.067  10.667 -0.0180 -1.0771  0.4092
25230SOL    HW282806   9.987   3.028  10.620 -0.2440  0.2563 -0.0965
25231SOL     OW82807   3.713   8.727   3.991 -0.2450 -0.2267  0.2062
25231SOL    HW182808   3.640   8.765   3.942  0.9567 -0.1158 -1.6312
25231SOL    HW282809   3.703   8.632   3.979  0.4525 -0.1792 -0.9789
25232SOL     OW82810   5.535   5.262   7.822  0.3861  0.0693  0.2327
25232SOL    HW182811   5.539   5.181   7.770  2.1391  0.1255  0.2043
25232SOL    HW282812   5.585   5.325   7.771 -0.7151  1.1139  0.4058
25233SOL     OW82813   8.176   9.394   8.773  0.4646 -0.0479  0.4428
25233SOL    HW182814   8.228   9.315   8.787  2.1809  0.6629 -1.4317
25233SOL    HW282815   8.196   9.449   8.849 -2.0294 -1.9099  2.6564
25234SOL     OW82816   4.693   3.314   3.722 -0.0099 -0.6135 -0.2875
25234SOL    HW182817   4.768   3.372   3.733  0.0547 -0.6714 -0.4176
25234SOL    HW282818   4.728   3.227   3.740  0.0063 -0.6652 -0.5673
25235SOL     OW82819  10.320  10.249   0.895 -0.6112 -0.1803  0.2555
25235SOL    HW182820  10.318  10.203   0.811  2.2872 -2.8326  1.4284
25235SOL    HW282821  10.236  10.228   0.936 -1.1122 -0.7738 -1.0058
25236SOL     OW82822   1.884  12.949   7.267  0.2386  0.0159 -0.1060
25236SOL    HW182823   1.810  12.901   7.229  0.4231 -0.0483 -0.3811
25236SOL    HW282824   1.915  13.005   7.196  0.8195 -0.3719 -0.1613
25237SOL     OW82825   1.448  12.917   8.762 -0.4376  0.4440 -0.2818
25237SOL    HW182826   1.495  12.970   8.826 -0.3530 -0.4837  0.4497
25237SOL    HW282827   1.450  12.969   8.682 -1.5941  2.2035  0.7456
25238SOL     OW82828   3.558   4.010   9.470  0.6923 -0.1376 -0.1760
25238SOL    HW182829   3.548   3.945   9.540  2.0752  0.2695  0.4345
25238SOL    HW282830   3.642   3.990   9.430  0.3070  0.1810 -1.1732
25239SOL     OW82831  10.947   5.735   4.038 -0.4018 -0.4428 -0.0097
25239SOL    HW182832  10.993   5.814   4.010 -1.7936  0.7698  0.9904
25239SOL    HW282833  10.932   5.687   3.957 -1.2473  1.2796 -0.9295
25240SOL     OW82834   6.998   4.356   6.821  0.3502 -0.3223 -0.0014
25240SOL    HW182835   7.013   4.428   6.883  1.3484  0.1264 -0.7490
25240SOL    HW282836   7.075   4.300   6.830 -0.2542 -1.1412  0.3154
25241SOL     OW82837   7.516   5.159   9.792 -0.0842  0.0636 -0.4832
25241SOL    HW182838   7.513   5.254   9.799  3.0110  0.1221  2.2527
25241SOL    HW282839   7.584   5.142   9.726 -0.3614 -0.2744 -0.6874
25242SOL     OW82840   8.097  11.009   8.571  0.0847  0.1453 -0.3379
25242SOL    HW182841   8.051  10.991   8.489  0.1695  2.1042 -0.8603
25242SOL    HW282842   8.173  11.061   8.545 -0.3488  1.5517  1.0282
25243SOL     OW82843  12.919   4.765   5.523 -0.3098 -0.0477  0.2233
25243SOL    HW182844  12.998   4.728   5.562 -0.4024 -1.0660 -0.4940
25243SOL    HW282845  12.878   4.816   5.593  0.6842  0.0253  0.7619
25244SOL     OW82846   6.218   9.401   7.319 -0.1160 -0.3515 -0.2984
25244SOL    HW182847   6.276   9.431   7.388  0.8838  0.7489 -1.5534
25244SOL    HW282848   6.133   9.440   7.339  0.4650  0.9552 -0.3359
25245SOL     OW82849   0.764   7.483   8.233  0.1894  0.2848 -0.0840
25245SOL    HW182850   0.807   7.550   8.286 -0.3284 -1.0310  2.1547
25245SOL    HW282851   0.820   7.474   8.155  0.9782  2.3231  0.1891
25246SOL     OW82852   6.712   6.111   8.823 -0.2417 -0.2040  0.0094
25246SOL    HW182853   6.628   6.109   8.868 -0.1538 -3.0808  0.2026
25246SOL    HW282854   6.777   6.122   8.892 -0.3471  0.3229  0.0307
25247SOL     OW82855  12.520   3.510   6.063  0.2930  0.7043 -0.0508
25247SOL    HW182856  12.504   3.451   6.137  1.0973  0.5670  0.0294
25247SOL    HW282857  12.433   3.535   6.033 -0.0581 -0.1258  0.2340
25248SOL     OW82858   4.675   5.864   8.083 -0.2047  0.1770 -0.2468
25248SOL    HW182859   4.709   5.858   8.172 -0.8053 -0.6785 -0.0556
25248SOL    HW282860   4.714   5.943   8.046  0.3736  0.3047  0.6367
25249SOL     OW82861   7.079   3.454  11.899 -0.0169 -0.3777  0.3345
25249SOL    HW182862   6.995   3.472  11.942 -0.3607  0.0088 -0.4641
25249SOL    HW282863   7.142   3.510  11.944 -0.1594 -0.7382  1.0011
25250SOL     OW82864  10.582  11.512   9.932  0.1408 -0.5843 -0.3305
25250SOL    HW182865  10.577  11.605   9.954 -0.0453 -0.4788 -0.7961
25250SOL    HW282866  10.499  11.493   9.890  0.3583 -0.8506 -0.6482
25251SOL     OW82867  10.097  10.605   4.549 -0.3317  0.0710  0.2996
25251SOL    HW182868  10.029  10.567   4.494 -0.5596  0.1024  0.5595
25251SOL    HW282869  10.083  10.700   4.543  0.2456  0.1232 -0.3631
25252SOL     OW82870  11.448   1.093   8.837 -0.0345 -0.1796  0.1418
25252SOL    HW182871  11.504   1.113   8.912  1.0866  0.3542 -0.7998
25252SOL    HW282872  11.382   1.034   8.871 -0.9704  1.8486  2.0999
25253SOL     OW82873   6.134   6.142   0.735  0.6986 -0.2939 -0.1486
25253SOL    HW182874   6.110   6.225   0.695  1.7704 -0.0476 -0.2990
25253SOL    HW282875   6.135   6.079   0.662  0.1005 -0.3984 -0.0700
25254SOL     OW82876   8.453  10.262  12.617 -0.3112 -0.0516  0.3950
25254SOL    HW182877   8.367  10.259  12.659 -0.6701 -1.3613 -0.3997
25254SOL    HW282878   8.510  10.211  12.675  0.0703  1.2036  1.1660
25255SOL     OW82879   6.261   8.001   1.313  0.6177  0.1391  0.2596
25255SOL    HW182880   6.303   7.939   1.253  0.0806  0.5830 -0.5946
25255SOL    HW282881   6.330   8.062   1.336  0.7230  0.2242 -0.2678
25256SOL     OW82882  12.118   1.964   2.283 -0.2037  0.0973 -0.2518
25256SOL    HW182883  12.107   1.888   2.341  0.6912 -0.5978 -0.9586
25256SOL    HW282884  12.189   1.938   2.224  1.1476  2.0432  0.4115
25257SOL     OW82885   8.696   3.442   8.755  0.4607 -0.6367  0.3531
25257SOL    HW182886   8.620   3.483   8.713  1.7894  2.6066  0.8207
25257SOL    HW282887   8.658   3.377   8.814 -2.0402  1.1190  0.8624
25258SOL     OW82888   0.115   8.881  11.094 -0.1711 -0.2396 -0.7191
25258SOL    HW182889   0.102   8.972  11.120  0.0990  0.1444 -1.8777
25258SOL    HW282890   0.092   8.830  11.172 -1.2674  0.7711 -0.3542
25259SOL     OW82891  12.584   5.361   6.476 -1.0381 -0.2492 -0.1715
25259SOL    HW182892  12.489   5.364   6.488 -0.9929  0.9038  0.0332
25259SOL    HW282893  12.617   5.432   6.532 -0.1565  0.0945 -1.1027
25260SOL     OW82894   5.177   9.391   2.427  0.6340 -0.3074 -0.3137
25260SOL    HW182895   5.211   9.480   2.438  0.9262 -0.1093 -2.4320
25260SOL    HW282896   5.099   9.389   2.482  0.8252  1.1270  0.0702
25261SOL     OW82897   6.860   5.772   8.640 -0.5401 -0.4548 -0.3349
25261SOL    HW182898   6.809   5.709   8.690 -1.1631  0.4057  0.1521
25261SOL    HW282899   6.884   5.840   8.703 -0.3619  0.0780 -0.9501
25262SOL     OW82900  11.398   0.352   6.915  0.0856 -0.6843  0.0758
25262SOL    HW182901  11.312   0.312   6.906  0.4811 -1.6982  0.6481
25262SOL    HW282902  11.420   0.342   7.008  1.7074 -2.3683 -0.4080
25263SOL     OW82903   1.980   1.134  12.131  0.3414 -0.0726  0.7377
25263SOL    HW182904   2.048   1.185  12.175  2.2155 -1.0013 -0.9435
25263SOL    HW282905   1.971   1.175  12.045 -0.7815 -0.3556  0.7079
25264SOL     OW82906  10.550   2.704   9.643  0.8398 -0.3534 -0.2335
25264SOL    HW182907  10.524   2.613   9.628 -0.0023 -0.2424  0.3970
25264SOL    HW282908  10.635   2.713   9.601 -0.2378 -0.7021 -2.6130
25265SOL     OW82909  12.015   7.797   6.461  0.8960 -0.1824  0.2832
25265SOL    HW182910  11.930   7.828   6.430  0.4799 -0.5353  1.0523
25265SOL    HW282911  12.006   7.792   6.556  1.1065 -2.1835  0.2459
25266SOL     OW82912  10.279  12.661   5.322  0.2168 -0.4744  0.4159
25266SOL    HW182913  10.205  12.664   5.382 -0.5742  0.8175 -0.5781
25266SOL    HW282914  10.337  12.595   5.359 -2.4809 -3.2966  0.0327
25267SOL     OW82915   1.761   1.919  11.228  0.2238  0.3203 -0.3393
25267SOL    HW182916   1.810   1.990  11.188  0.1591  0.4892 -0.1161
25267SOL    HW282917   1.825   1.872  11.281 -0.0486  1.1045  0.7160
25268SOL     OW82918   4.145  12.195  10.563  0.6733  0.2034  0.6825
25268SOL    HW182919   4.159  12.165  10.652  2.1011 -0.7434  0.1668
25268SOL    HW282920   4.232  12.199  10.524 -0.0663 -2.7979 -1.7040
25269SOL     OW82921   4.840   6.680   3.377  0.0704  0.6147  0.3844
25269SOL    HW182922   4.812   6.754   3.323 -0.4138  0.3483  0.2589
25269SOL    HW282923   4.766   6.619   3.373  0.6185 -0.0543  0.1462
25270SOL     OW82924  10.333   3.599   1.444  0.1892  0.2310  0.3834
25270SOL    HW182925  10.403   3.534   1.443 -1.4968 -1.6973  0.9026
25270SOL    HW282926  10.303   3.601   1.535  0.7617  2.4469  0.5796
25271SOL     OW82927   5.068   0.649   7.889  0.0834  0.1021  0.2229
25271SOL    HW182928   5.159   0.679   7.888 -0.5513  2.2802  1.0924
25271SOL    HW282929   5.030   0.691   7.966 -2.2744  1.3213 -1.5028
25272SOL     OW82930  11.745   8.893   6.339  0.7064  0.1924 -0.2579
25272SOL    HW182931  11.774   8.951   6.269 -1.6968  1.2362 -0.4689
25272SOL    HW282932  11.665   8.853   6.306  1.2599 -1.8238  0.6595
25273SOL     OW82933   5.388  10.287   1.090 -0.3364  0.4412  0.0961
25273SOL    HW182934   5.400  10.359   1.152  0.6114  1.0307 -0.7645
25273SOL    HW282935   5.466  10.233   1.100 -0.5578  0.0937 -0.0156
25274SOL     OW82936   1.245  10.220  12.412  0.7762 -0.0399  0.3698
25274SOL    HW182937   1.206  10.199  12.328 -0.2741 -1.2862  1.1173
25274SOL    HW282938   1.315  10.282  12.392  0.5567 -0.3131 -1.4010
25275SOL     OW82939   7.236   3.951   2.075  0.4180  0.0250  0.1615
25275SOL    HW182940   7.221   4.038   2.039 -1.4338 -0.6813 -0.8954
25275SOL    HW282941   7.267   3.967   2.164  0.0705  1.7618 -0.0006
25276SOL     OW82942   7.368   2.829  11.550  0.3105 -0.3563  0.5123
25276SOL    HW182943   7.376   2.924  11.541 -0.5023 -0.4617 -2.4219
25276SOL    HW282944   7.458   2.797  11.542  0.4159  0.0903 -0.1709
25277SOL     OW82945   5.290   4.401   1.365  0.1833 -0.0671 -0.6438
25277SOL    HW182946   5.346   4.471   1.397 -0.9682  0.2166  0.8291
25277SOL    HW282947   5.332   4.321   1.396  0.2322  0.1003 -0.2675
25278SOL     OW82948   3.476   9.045  11.887  0.0268 -0.1204 -0.5851
25278SOL    HW182949   3.409   8.982  11.860 -0.8636 -0.3439  1.9142
25278SOL    HW282950   3.489   9.028  11.980  0.3884  2.8132 -0.0174
25279SOL     OW82951   1.470   3.498  11.175 -0.0707  0.2561 -0.1309
25279SOL    HW182952   1.482   3.592  11.188 -1.1606  0.3801  0.0549
25279SOL    HW282953   1.509   3.458  11.252 -2.8899  0.7787  1.6990
25280SOL     OW82954   4.106   9.418   1.932  0.2067 -0.4823  0.0331
25280SOL    HW182955   4.115   9.468   1.851 -1.2879  1.3098  0.8988
25280SOL    HW282956   4.176   9.452   1.988 -0.0953 -0.1803  0.2281
25281SOL     OW82957   3.477   9.777   3.831 -0.4992  0.2877  0.2799
25281SOL    HW182958   3.445   9.780   3.921 -0.7318 -1.7589  0.3190
25281SOL    HW282959   3.438   9.698   3.794 -0.1566  0.9101 -1.5397
25282SOL     OW82960   0.269   9.457   4.990 -0.1098 -0.1695 -0.8609
25282SOL    HW182961   0.265   9.364   5.010  1.1244  0.1854  1.3342
25282SOL    HW282962   0.357   9.484   5.017 -1.2326  2.0913  0.8281
25283SOL     OW82963   7.347   1.814   4.096  0.1228 -0.0259  0.0480
25283SOL    HW182964   7.433   1.844   4.125 -0.3532  0.5136  0.9404
25283SOL    HW282965   7.332   1.858   4.013  0.6528 -0.0349 -0.0544
25284SOL     OW82966   1.177   3.204   4.781  0.6397 -0.1861 -0.3462
25284SOL    HW182967   1.246   3.219   4.846  0.7857  0.5511 -0.6592
25284SOL    HW282968   1.095   3.219   4.830  0.4769 -4.0758  0.8617
25285SOL     OW82969   3.091   9.560   1.416 -0.0232 -0.2039 -0.1519
25285SOL    HW182970   3.182   9.531   1.421  0.7513  1.9725 -0.4936
25285SOL    HW282971   3.061   9.557   1.507  0.6971 -0.0769  0.1016
25286SOL     OW82972  12.090  11.393  11.360 -0.4158  0.5114 -0.5070
25286SOL    HW182973  12.005  11.351  11.345 -0.8330  1.2163 -0.1431
25286SOL    HW282974  12.147  11.321  11.387 -0.7780 -0.0412 -1.1657
25287SOL     OW82975   9.437   0.482   6.849  0.3517  0.1224 -0.4120
25287SOL    HW182976   9.448   0.552   6.913  0.0202  0.4232 -0.6795
25287SOL    HW282977   9.492   0.411   6.881 -1.4203 -0.5457  1.3914
25288SOL     OW82978  11.977   8.949   9.021  0.0118  0.2587  0.5594
25288SOL    HW182979  11.887   8.934   9.050 -0.2053  0.1048 -0.1854
25288SOL    HW282980  12.027   8.878   9.062 -0.6242 -1.2031 -1.0385
25289SOL     OW82981  10.292   8.462   0.549 -0.0201 -0.2410  0.2839
25289SOL    HW182982  10.217   8.521   0.543 -1.8685 -2.4974 -0.4783
25289SOL    HW282983  10.337   8.488   0.630  0.1069  3.0069 -0.7011
25290SOL     OW82984   5.714   4.914   2.889  0.2462  0.2887  0.4919
25290SOL    HW182985   5.726   5.002   2.855 -1.4165  0.0055 -1.0166
25290SOL    HW282986   5.707   4.925   2.984 -1.3936  1.9907  0.2309
25291SOL     OW82987   5.942   8.799  12.613 -0.0201 -0.4870  0.1066
25291SOL    HW182988   5.956   8.728  12.676  1.2266 -0.1229  0.2611
25291SOL    HW282989   5.852   8.827  12.628  0.2621 -0.3621  1.7805
25292SOL     OW82990   3.822   1.071   6.468 -0.0804 -0.4066  0.0144
25292SOL    HW182991   3.747   1.086   6.526 -0.0146  0.7568 -0.1796
25292SOL    HW282992   3.786   1.024   6.393 -0.3335 -1.1278  0.5755
25293SOL     OW82993   0.596  12.071  12.286  0.1298 -0.1175 -0.1414
25293SOL    HW182994   0.559  12.142  12.339 -0.8689 -0.9613  0.3402
25293SOL    HW282995   0.552  12.080  12.201  0.1832 -0.0204 -0.1599
25294SOL     OW82996   1.306   7.178   3.611 -0.1578  0.5274  0.0390
25294SOL    HW182997   1.291   7.096   3.563 -2.1675  0.1166  1.2707
25294SOL    HW282998   1.252   7.243   3.566  1.6946  1.3461 -1.1489
25295SOL     OW82999   9.714   9.585   6.283  0.2355  0.5153 -0.3282
25295SOL    HW183000   9.781   9.519   6.264  0.6172  1.3818 -2.2441
25295SOL    HW283001   9.753   9.639   6.352  1.6194  1.0944 -1.5088
25296SOL     OW83002   1.844  11.541  10.157 -0.1433  0.2506  0.2501
25296SOL    HW183003   1.929  11.514  10.122 -1.8992 -4.2859 -1.2540
25296SOL    HW283004   1.821  11.620  10.108  1.5696 -0.6372 -2.1649
25297SOL     OW83005  12.591   0.551  11.068 -0.5184 -0.1006  0.3775
25297SOL    HW183006  12.548   0.635  11.051 -0.3716  0.0267  0.6332
25297SOL    HW283007  12.564   0.528  11.157  0.9675  0.6065  1.0338
25298SOL     OW83008   4.049   6.423   2.691  0.4805 -0.5043 -0.3581
25298SOL    HW183009   4.059   6.511   2.652  2.1028  0.4795  2.0671
25298SOL    HW283010   3.963   6.394   2.662 -0.2918  2.0761 -0.9103
25299SOL     OW83011   3.935   5.387   7.375  0.2128  0.3168 -0.2031
25299SOL    HW183012   3.916   5.364   7.284  0.5570  0.1985 -0.2461
25299SOL    HW283013   3.849   5.389   7.417  0.2171 -3.1152  0.3091
25300SOL     OW83014   8.274  10.345  11.864  0.1256 -0.0903 -0.1121
25300SOL    HW183015   8.329  10.420  11.842 -1.3545  1.2158  0.4243
25300SOL    HW283016   8.328  10.292  11.923  1.2776  0.4285 -0.6820
25301SOL     OW83017   0.095   3.306  10.943  0.0554 -0.7415 -0.2050
25301SOL    HW183018   0.032   3.315  11.014  1.4995 -1.0933  1.1869
25301SOL    HW283019   0.095   3.391  10.899 -0.6194 -0.4055  0.4399
25302SOL     OW83020   3.861  10.940   6.171  0.1006  0.2695 -0.2416
25302SOL    HW183021   3.954  10.959   6.165  0.2516 -0.4602 -0.3178
25302SOL    HW283022   3.849  10.859   6.120 -0.5595  0.3117 -0.1722
25303SOL     OW83023   8.392   6.901   6.779 -0.2099 -0.4933 -0.2525
25303SOL    HW183024   8.425   6.932   6.695  0.9268  1.3020  0.7779
25303SOL    HW283025   8.301   6.931   6.782 -0.9650 -2.4552 -1.6857
25304SOL     OW83026   9.164   4.646   5.917  0.2847  0.3028 -0.3340
25304SOL    HW183027   9.141   4.696   5.838  0.0935  1.1777  0.2512
25304SOL    HW283028   9.257   4.663   5.929 -0.1431  2.1153  0.9034
25305SOL     OW83029   2.731   1.234   0.799 -0.1228 -0.1078  0.1034
25305SOL    HW183030   2.819   1.240   0.838  0.2171  0.4405 -0.7195
25305SOL    HW283031   2.708   1.325   0.777 -0.5844 -0.3277 -0.3499
25306SOL     OW83032  10.216   9.222  11.385  0.4162  0.0291 -0.1806
25306SOL    HW183033  10.238   9.155  11.320  1.3280  0.8399 -0.7325
25306SOL    HW283034  10.231   9.178  11.469  0.6269 -0.5868 -0.5311
25307SOL     OW83035   9.059   6.964   2.137 -0.0086  0.9077 -0.4940
25307SOL    HW183036   9.070   6.869   2.132  2.3948  1.0044  1.3311
25307SOL    HW283037   9.047   6.982   2.230  1.0223  2.4855 -0.6301
25308SOL     OW83038   0.101   7.490   3.227  0.6540  0.0085  0.3853
25308SOL    HW183039   0.005   7.487   3.228  0.6136 -2.0794 -1.3984
25308SOL    HW283040   0.122   7.581   3.207 -0.8975  0.6738  1.5447
25309SOL     OW83041   7.785  11.029   4.341 -0.4716  0.1189 -0.0339
25309SOL    HW183042   7.822  10.967   4.404  0.4540  0.1515 -0.5210
25309SOL    HW283043   7.763  11.106   4.394 -0.2270 -0.0598  0.3354
25310SOL     OW83044   0.063   3.766   4.005  0.5110 -0.2884 -0.4160
25310SOL    HW183045   0.027   3.845   3.964  0.8445 -0.6541 -1.4515
25310SOL    HW283046   0.121   3.729   3.938  3.0903  0.4491  1.2550
25311SOL     OW83047   5.544   8.449   1.737  0.7625 -0.2102 -0.1127
25311SOL    HW183048   5.542   8.538   1.702  0.5233 -0.0382  0.3245
25311SOL    HW283049   5.463   8.410   1.706 -0.0489  0.3305  1.2063
25312SOL     OW83050   0.129   7.992   3.683  0.2037  0.4760  0.4443
25312SOL    HW183051   0.069   8.056   3.722 -0.1480  1.0106 -0.9051
25312SOL    HW283052   0.076   7.943   3.621  0.3878 -1.4193  1.6968
25313SOL     OW83053   3.447   6.600  12.766  0.2279  0.5397 -0.0137
25313SOL    HW183054   3.427   6.552  12.847 -0.8763  1.3904  0.2490
25313SOL    HW283055   3.362   6.632  12.736  0.8864  2.1448 -0.2855
25314SOL     OW83056   8.010   8.622   0.967  0.1333  0.2436 -0.0590
25314SOL    HW183057   8.019   8.716   0.985 -0.6005  0.0302  1.5918
25314SOL    HW283058   8.013   8.581   1.053  2.4494 -1.4728 -0.8838
25315SOL     OW83059  12.272  12.636   0.890 -0.1839 -0.4833  0.7431
25315SOL    HW183060  12.308  12.550   0.912  0.5207 -0.8559 -1.5903
25315SOL    HW283061  12.205  12.618   0.824 -1.7802  0.5803  1.9997
25316SOL     OW83062   9.324   8.693  10.881  0.5295 -0.0251  0.6373
25316SOL    HW183063   9.268   8.745  10.937  0.4718  0.0096  0.5473
25316SOL    HW283064   9.318   8.604  10.916  0.7855  0.0635  0.9142
25317SOL     OW83065   7.752   6.669   4.409  0.2169 -0.4504 -0.1530
25317SOL    HW183066   7.759   6.578   4.379 -1.4372 -0.4704 -0.5551
25317SOL    HW283067   7.708   6.715   4.338  1.5083  0.8174 -0.1782
25318SOL     OW83068   1.636  10.436   8.933  0.5979  0.6627 -0.5016
25318SOL    HW183069   1.643  10.361   8.993 -0.8267  1.6973  1.0604
25318SOL    HW283070   1.700  10.417   8.864  0.0690 -2.1226 -0.3593
25319SOL     OW83071   5.281   2.339  10.255 -0.2796 -0.2983  0.8558
25319SOL    HW183072   5.225   2.367  10.328 -3.5689 -1.7339 -0.8766
25319SOL    HW283073   5.314   2.421  10.218 -2.0427  0.7480  1.4317
25320SOL     OW83074   5.759   1.840   1.200 -0.0413 -0.5576 -0.1104
25320SOL    HW183075   5.709   1.922   1.201  0.4935 -0.2154  0.7381
25320SOL    HW283076   5.849   1.867   1.219  0.2067 -1.3087 -0.1762
25321SOL     OW83077  11.730  11.178  10.681  0.1567  0.0730  0.2002
25321SOL    HW183078  11.744  11.221  10.597  2.1192 -2.0834 -0.6859
25321SOL    HW283079  11.816  11.143  10.705 -0.3649  0.5834  3.1195
25322SOL     OW83080   9.644  11.088  10.715  0.1091 -0.0822  0.2627
25322SOL    HW183081   9.712  11.023  10.696 -0.9397 -0.7298 -1.5331
25322SOL    HW283082   9.680  11.171  10.683  0.0001 -0.4628 -0.9012
25323SOL     OW83083   3.628  11.536  12.749  0.1121  0.0130  0.3784
25323SOL    HW183084   3.679  11.457  12.767 -1.2193 -0.6123  1.5706
25323SOL    HW283085   3.574  11.513  12.674 -0.6297 -0.4135  1.0235
25324SOL     OW83086   7.271   2.831   1.579 -0.2898  0.1921  0.5983
25324SOL    HW183087   7.234   2.760   1.526  1.4252 -0.6956  0.5096
25324SOL    HW283088   7.291   2.901   1.517  2.2539 -1.0634 -0.1616
25325SOL     OW83089   3.420   1.454   5.367 -0.2061  0.6205 -0.3583
25325SOL    HW183090   3.474   1.392   5.414 -1.7515 -0.1034  0.5471
25325SOL    HW283091   3.389   1.515   5.434  0.3883  1.7221 -1.0494
25326SOL     OW83092   9.259   8.831   0.228  0.0838 -0.0982 -0.0402
25326SOL    HW183093   9.325   8.898   0.209  0.0758  0.3055  1.2596
25326SOL    HW283094   9.309   8.756   0.259 -0.0181 -0.0267  0.3032
25327SOL     OW83095   5.382   3.183   8.155  0.3095 -0.1307 -0.2108
25327SOL    HW183096   5.297   3.212   8.123  0.3746 -0.7311 -0.9545
25327SOL    HW283097   5.403   3.244   8.226  0.2198  1.3024 -1.3709
25328SOL     OW83098   2.633  10.389   3.088  0.1107  0.1480 -0.2898
25328SOL    HW183099   2.688  10.352   3.019  0.2834  0.5272 -0.3578
25328SOL    HW283100   2.693  10.404   3.161  0.6787  2.8664 -1.1681
25329SOL     OW83101   5.594   0.718   7.874  0.2512  0.5138 -0.4251
25329SOL    HW183102   5.659   0.749   7.936 -0.1222 -0.6450  0.5702
25329SOL    HW283103   5.617   0.761   7.791  2.0259  0.4356  0.0030
25330SOL     OW83104   5.954   5.192   5.537  0.0701 -0.0773 -0.0603
25330SOL    HW183105   5.925   5.104   5.558  0.0187  0.2702  1.4121
25330SOL    HW283106   5.886   5.249   5.573  0.7115  0.6017  0.1022
25331SOL     OW83107   5.143   3.626  12.321  0.1897  0.3791 -0.5195
25331SOL    HW183108   5.126   3.659  12.410 -1.2848 -0.6160 -0.4004
25331SOL    HW283109   5.233   3.654  12.303  0.7226  0.1713  1.4880
25332SOL     OW83110  12.691   5.928  12.711  0.1369 -0.0446 -0.3241
25332SOL    HW183111  12.784   5.905  12.705  0.2046  0.0810  0.2128
25332SOL    HW283112  12.688   5.999  12.774 -0.3663 -0.2908 -0.0649
25333SOL     OW83113   8.824   0.902  11.433  0.1212 -0.3689  0.3200
25333SOL    HW183114   8.805   0.905  11.340  0.8199 -0.9351  0.1436
25333SOL    HW283115   8.873   0.982  11.451  0.7581 -0.6797  0.0062
25334SOL     OW83116  12.193   0.490   8.444  0.1102 -0.4283  0.4189
25334SOL    HW183117  12.254   0.511   8.515  1.5099 -0.5702 -0.6974
25334SOL    HW283118  12.202   0.395   8.433 -3.3831 -1.2216  2.9335
25335SOL     OW83119   8.760  12.164   5.802  0.0350 -0.1056 -0.1542
25335SOL    HW183120   8.685  12.208   5.761 -0.8664 -0.7849  0.7256
25335SOL    HW283121   8.810  12.129   5.728  0.8762  2.4587 -0.9214
25336SOL     OW83122   0.930   6.673   6.419 -0.0180 -0.3765 -0.0741
25336SOL    HW183123   1.007   6.617   6.413  0.2981  0.0031  0.3566
25336SOL    HW283124   0.894   6.654   6.506  0.5441  0.6558  0.3997
25337SOL     OW83125   9.599  10.131   4.936  0.4031  0.2124 -0.2339
25337SOL    HW183126   9.511  10.094   4.929  0.5038  0.1696 -1.6573
25337SOL    HW283127   9.586  10.226   4.940  0.2779  0.1897 -0.1235
25338SOL     OW83128   7.666   8.181   7.098 -0.2726  0.4123  0.1588
25338SOL    HW183129   7.633   8.210   7.183 -2.3956 -2.9057  0.6654
25338SOL    HW283130   7.610   8.225   7.034  0.5646  2.0133  0.4841
25339SOL     OW83131   6.777   6.897   7.468 -0.5354 -0.1301  0.1800
25339SOL    HW183132   6.825   6.979   7.468  0.7581 -0.8368 -1.2439
25339SOL    HW283133   6.784   6.864   7.558  2.8418 -0.8395 -0.2232
25340SOL     OW83134   0.728  11.745   0.975  0.8368  0.2956 -0.0118
25340SOL    HW183135   0.698  11.790   1.054  1.6827 -0.3921  0.7298
25340SOL    HW283136   0.657  11.686   0.952  1.3136 -0.8943  1.3809
25341SOL     OW83137   5.801   7.843   1.679  0.3841  0.5338 -0.2458
25341SOL    HW183138   5.767   7.844   1.768 -1.5244 -2.9349 -0.7476
25341SOL    HW283139   5.874   7.780   1.682  0.0030  0.0279 -1.1834
25342SOL     OW83140   2.309   7.126  10.231  0.1395  0.3064  0.6119
25342SOL    HW183141   2.247   7.176  10.177 -0.2084 -1.4083 -0.6221
25342SOL    HW283142   2.254   7.079  10.293  0.5126  1.9460  2.2738
25343SOL     OW83143   6.392   4.143   4.647 -0.0480  0.0446  0.3439
25343SOL    HW183144   6.415   4.198   4.721  0.9374  0.9798 -0.6225
25343SOL    HW283145   6.366   4.060   4.686  1.0022  0.3223  1.7150
25344SOL     OW83146  10.157  10.740  11.240 -0.0472  0.0891 -0.1246
25344SOL    HW183147  10.232  10.713  11.187  3.1641 -0.6208  4.2066
25344SOL    HW283148  10.112  10.658  11.260  0.0436  0.0660 -0.0130
25345SOL     OW83149  11.391   7.570   8.481 -0.0711  0.0980 -0.1908
25345SOL    HW183150  11.485   7.559   8.493 -0.2945 -1.1566  0.4790
25345SOL    HW283151  11.383   7.654   8.435  1.5014 -0.8378 -2.3207
25346SOL     OW83152   2.436   9.130   1.524 -0.3122  0.3647  0.1361
25346SOL    HW183153   2.395   9.053   1.563 -1.6988  0.1732 -1.5876
25346SOL    HW283154   2.374   9.201   1.542  0.0471  0.7004  0.0645
25347SOL     OW83155   1.578   0.941   9.269  0.4154  0.6418  0.2063
25347SOL    HW183156   1.641   0.887   9.317  0.7713  1.4252  0.6423
25347SOL    HW283157   1.573   0.900   9.183  0.0435 -0.5704  0.7769
25348SOL     OW83158  12.294   9.144   3.335  0.0608 -0.4813  0.0791
25348SOL    HW183159  12.378   9.158   3.292  1.0827 -2.9055  1.0918
25348SOL    HW283160  12.314   9.138   3.428 -1.3209 -0.4691  0.4078
25349SOL     OW83161   3.986   2.468   9.635  0.0842  0.2693  0.3045
25349SOL    HW183162   4.022   2.379   9.636 -1.8615 -0.6956 -2.6244
25349SOL    HW283163   3.892   2.457   9.650 -0.1919  1.8008 -0.0738
25350SOL     OW83164   8.114   6.105   2.340 -0.3064  0.2708  0.6165
25350SOL    HW183165   8.047   6.165   2.373 -1.2385  0.6622 -1.7953
25350SOL    HW283166   8.190   6.121   2.397 -1.7847  0.8161  2.5467
25351SOL     OW83167  12.842   0.358   1.131  0.3640  0.0893  0.8237
25351SOL    HW183168  12.802   0.271   1.133  0.5222  0.0002  0.2402
25351SOL    HW283169  12.823   0.391   1.043  0.0997  0.7401  1.1245
25352SOL     OW83170   8.663  12.696   0.675 -0.1232 -0.0612  0.2742
25352SOL    HW183171   8.592  12.647   0.635 -0.7998  0.6508  0.5696
25352SOL    HW283172   8.665  12.666   0.766  2.0571 -2.4081 -0.4369
25353SOL     OW83173   0.340   4.875   0.010 -0.0826 -0.2322 -0.0601
25353SOL    HW183174   0.428   4.899  -0.019  0.1688 -0.6530  0.3253
25353SOL    HW283175   0.283   4.899  -0.063  0.4444 -0.6221 -0.6173
25354SOL     OW83176   0.598   6.488  12.228 -0.0325  0.0256 -0.1849
25354SOL    HW183177   0.574   6.548  12.299 -0.3218  0.9532 -1.0596
25354SOL    HW283178   0.662   6.429  12.268  0.1075  0.7796  0.7422
25355SOL     OW83179   4.170  12.955   0.635  0.0617  0.1062  0.6777
25355SOL    HW183180   4.177  12.976   0.728 -0.5503 -1.3771  1.0850
25355SOL    HW283181   4.105  13.017   0.601 -1.5487 -0.9310  1.7852
25356SOL     OW83182   0.025  11.344   9.004 -0.6778 -0.7253 -0.1855
25356SOL    HW183183  -0.006  11.312   8.919 -1.9455 -0.1011  0.0244
25356SOL    HW283184   0.108  11.386   8.985 -1.5079  0.4722 -1.3412
25357SOL     OW83185   8.543   0.794  11.939  0.2544  0.1969 -0.6094
25357SOL    HW183186   8.525   0.852  12.013  1.7834 -1.1220  0.8692
25357SOL    HW283187   8.634   0.813  11.915 -0.2457  0.6930 -2.2865
25358SOL     OW83188  10.391   4.406   7.737  0.2923 -0.1114  0.0258
25358SOL    HW183189  10.393   4.393   7.643  1.5222  0.2593 -0.0228
25358SOL    HW283190  10.371   4.499   7.748  1.2813  0.1111  0.0778
25359SOL     OW83191  12.144   5.915  11.416  0.5980  0.5767 -0.7204
25359SOL    HW183192  12.130   5.833  11.463  0.0370  1.0113 -0.1318
25359SOL    HW283193  12.095   5.904  11.334  0.3459  0.4205 -0.5476
25360SOL     OW83194   0.047   7.780  11.100  0.2327 -0.4251 -0.0505
25360SOL    HW183195  -0.025   7.761  11.041  1.4673 -3.1769 -0.8413
25360SOL    HW283196   0.125   7.752  11.052  1.3038 -2.9532  2.8465
25361SOL     OW83197   5.516   0.748   5.248  0.1676 -0.1583  0.0496
25361SOL    HW183198   5.438   0.786   5.206 -0.3757  0.3795  1.4544
25361SOL    HW283199   5.527   0.663   5.207 -0.6361  0.1226 -0.7908
25362SOL     OW83200   5.292   2.428   3.354 -0.2834 -0.1353 -0.3157
25362SOL    HW183201   5.330   2.436   3.441 -0.1806 -1.0391 -0.2666
25362SOL    HW283202   5.204   2.395   3.369  0.6234 -2.9456 -0.6393
25363SOL     OW83203   6.977   7.485  12.044  0.3180 -0.0891 -0.3715
25363SOL    HW183204   6.927   7.404  12.033  0.2067 -0.1225  0.3207
25363SOL    HW283205   7.067   7.461  12.024  0.2521 -0.3328 -0.3770
25364SOL     OW83206  11.491   9.342   9.706  0.0317  0.5505 -0.4431
25364SOL    HW183207  11.436   9.295   9.769 -0.9877  1.4944 -0.5842
25364SOL    HW283208  11.430   9.370   9.637  0.7310  1.4077 -0.7409
25365SOL     OW83209   9.115  11.580   8.356  0.3171  0.3498 -0.3230
25365SOL    HW183210   9.033  11.563   8.401 -0.6927  1.1989 -1.7476
25365SOL    HW283211   9.158  11.648   8.407  1.3428 -1.7047  1.7744
25366SOL     OW83212   8.399   5.263   6.631 -0.6282 -0.3834 -0.9067
25366SOL    HW183213   8.356   5.297   6.709  0.5829  0.1411 -0.4558
25366SOL    HW283214   8.477   5.218   6.663 -0.2513 -0.3892 -1.7912
25367SOL     OW83215   4.775   2.259  12.159  0.0624  0.0796  0.4114
25367SOL    HW183216   4.871   2.255  12.152  0.1770  1.3227  0.9805
25367SOL    HW283217   4.747   2.311  12.084 -0.0228  0.8753  0.9752
25368SOL     OW83218   2.015   6.388   2.048 -0.2963 -0.1621  0.3886
25368SOL    HW183219   1.925   6.399   2.078 -0.1281 -0.7223  1.1134
25368SOL    HW283220   2.043   6.476   2.023 -1.3693 -0.1280 -0.8161
25369SOL     OW83221   1.400   6.386   0.220  0.4671 -0.1908 -0.3643
25369SOL    HW183222   1.399   6.464   0.275  0.9129 -0.4409  0.0037
25369SOL    HW283223   1.434   6.317   0.277 -0.8131 -0.8790 -0.3982
25370SOL     OW83224   7.491  10.353  10.690  1.1537 -0.2107  0.3304
25370SOL    HW183225   7.439  10.416  10.641 -0.5694 -1.4442  0.4683
25370SOL    HW283226   7.575  10.351  10.645  0.0298 -0.4514 -1.9035
25371SOL     OW83227   1.953   8.930   1.935  0.5931 -0.4093 -0.1568
25371SOL    HW183228   1.952   8.906   1.842 -0.9616  0.1971 -0.3298
25371SOL    HW283229   1.874   8.982   1.947  1.4685  0.7028  1.2117
25372SOL     OW83230  10.800   2.849   1.686  0.3545 -0.1341 -0.5007
25372SOL    HW183231  10.711   2.814   1.690  0.0385  0.6957 -0.1798
25372SOL    HW283232  10.824   2.867   1.777  0.3957  0.7578 -0.6764
25373SOL     OW83233   7.976   7.705   1.482  0.0283 -0.4775 -0.2615
25373SOL    HW183234   8.051   7.705   1.542  1.2234 -1.8328 -1.7029
25373SOL    HW283235   7.950   7.614   1.475 -1.2305 -0.1246 -0.4597
25374SOL     OW83236  11.421  12.443  10.050 -0.2366 -0.0964 -0.1293
25374SOL    HW183237  11.333  12.478  10.035 -0.3671 -1.1269 -2.0287
25374SOL    HW283238  11.478  12.520  10.046 -0.9265  0.4429  0.0965
25375SOL     OW83239   3.331   6.288   1.699 -0.7315 -0.0291 -0.2649
25375SOL    HW183240   3.344   6.210   1.644 -1.8821 -0.5853  0.2245
25375SOL    HW283241   3.385   6.272   1.776  1.1387  0.8946 -1.3016
25376SOL     OW83242   7.005   8.077   9.784  0.0421 -0.5436 -0.2257
25376SOL    HW183243   6.996   8.112   9.872  0.5507  0.5619 -0.6017
25376SOL    HW283244   7.090   8.032   9.784  0.5948  0.4816 -0.4819
25377SOL     OW83245   6.236   5.348   2.111  0.5797  0.8719  0.0071
25377SOL    HW183246   6.142   5.366   2.102  0.3730 -0.2406 -0.1577
25377SOL    HW283247   6.265   5.410   2.178 -0.1533  1.6011 -0.3220
25378SOL     OW83248   6.747   8.734  11.457 -0.0972 -0.0264 -0.5210
25378SOL    HW183249   6.693   8.741  11.378  1.9227  1.1421 -1.9109
25378SOL    HW283250   6.686   8.744  11.529 -1.9657 -0.5961 -1.9422
25379SOL     OW83251   3.973   8.075   1.089  0.0400 -0.2968 -0.5705
25379SOL    HW183252   4.042   8.137   1.110  0.1972 -0.1404 -1.5117
25379SOL    HW283253   3.909   8.084   1.160  1.2833 -0.9101  0.6667
25380SOL     OW83254   3.285  10.173   8.436 -0.2122  0.2596  0.1613
25380SOL    HW183255   3.329  10.124   8.505  0.1380 -0.5278 -0.5942
25380SOL    HW283256   3.227  10.234   8.482  0.2406 -0.0348  1.1384
25381SOL     OW83257   2.389  11.836   5.105 -0.2667  0.1521  0.3446
25381SOL    HW183258   2.451  11.770   5.137 -0.4063 -0.0885  0.1159
25381SOL    HW283259   2.345  11.795   5.031  1.4092  1.3546 -1.4385
25382SOL     OW83260   1.342   3.733   2.894 -0.1589 -0.4074 -0.4639
25382SOL    HW183261   1.318   3.803   2.833  0.4569 -1.3165 -1.8085
25382SOL    HW283262   1.383   3.667   2.839  0.1768 -1.3976  0.9233
25383SOL     OW83263   9.909  10.194   2.803 -0.1649  0.1449  0.5950
25383SOL    HW183264   9.814  10.185   2.812 -0.0744 -2.4295 -0.2050
25383SOL    HW283265   9.921  10.272   2.750 -1.8369  0.4524  0.6061
25384SOL     OW83266   1.555   1.235  12.255  0.1551 -0.1587  0.4456
25384SOL    HW183267   1.468   1.203  12.279  0.3812  0.0902  1.6648
25384SOL    HW283268   1.598   1.160  12.214  0.1069 -0.9500  1.7835
25385SOL     OW83269  10.071   1.313   3.615  0.1011 -0.0093 -0.5071
25385SOL    HW183270  10.064   1.353   3.528 -0.4722 -1.1919 -1.0266
25385SOL    HW283271   9.982   1.320   3.652 -0.1201 -1.1451 -0.7810
25386SOL     OW83272   4.746   6.735  11.963 -0.2500  0.1730  0.3759
25386SOL    HW183273   4.820   6.682  11.992 -1.2239 -0.1490  2.4361
25386SOL    HW283274   4.784   6.801  11.905  1.6088 -0.1067  1.2299
25387SOL     OW83275  10.451   0.132   1.953  0.4345  0.4017 -0.3031
25387SOL    HW183276  10.490   0.048   1.929  1.6418  0.2168  1.9822
25387SOL    HW283277  10.493   0.195   1.895 -0.5371 -0.5464 -2.0944
25388SOL     OW83278  11.433   1.614   8.802  0.4914 -0.3586  0.0087
25388SOL    HW183279  11.389   1.529   8.799 -1.5931  0.6630 -0.2632
25388SOL    HW283280  11.519   1.598   8.763 -0.1724 -2.1564 -0.8393
25389SOL     OW83281  11.846   5.877   6.773 -0.3986 -0.2820  0.0053
25389SOL    HW183282  11.803   5.959   6.752  0.5041 -0.1391 -1.3693
25389SOL    HW283283  11.776   5.821   6.806 -1.4277  0.3314 -1.0821
25390SOL     OW83284   3.788   0.041  10.737  0.0952  0.3369 -0.2064
25390SOL    HW183285   3.792   0.035  10.832  0.0639 -0.2246 -0.2346
25390SOL    HW283286   3.752   0.128  10.720  0.7209  0.7002  0.2746
25391SOL     OW83287   2.979   7.577   0.638 -0.2093 -0.0249 -0.1613
25391SOL    HW183288   3.013   7.666   0.648  0.8044 -0.3914 -0.2559
25391SOL    HW283289   2.970   7.545   0.728 -1.6897  0.5545 -0.0652
25392SOL     OW83290  12.325   4.963  10.720 -0.1179  0.1097  0.3448
25392SOL    HW183291  12.290   4.959  10.632  2.2549  0.0381 -0.6678
25392SOL    HW283292  12.351   5.054  10.732  2.1078 -0.4092 -0.1536
25393SOL     OW83293   7.597  10.794  10.853  0.7085 -0.5396  0.5404
25393SOL    HW183294   7.664  10.764  10.915  0.5989  1.3995  1.6598
25393SOL    HW283295   7.632  10.771  10.767  2.7063  0.1911  1.1146
25394SOL     OW83296   8.886   4.264   0.135  0.1475 -0.0628 -0.1489
25394SOL    HW183297   8.981   4.273   0.127  0.0683  1.0950  0.1146
25394SOL    HW283298   8.851   4.343   0.095 -0.5833  1.2217  2.7522
25395SOL     OW83299   2.223   5.731  12.917  0.2353  0.1483 -0.3010
25395SOL    HW183300   2.192   5.640  12.921 -0.0695  0.2706  0.2749
25395SOL    HW283301   2.312   5.728  12.953  0.0817  0.1391  0.0778
25396SOL     OW83302   9.012   1.702   9.533 -0.0547  0.2938 -0.1564
25396SOL    HW183303   9.000   1.784   9.582 -0.1772 -0.5807  1.3606
25396SOL    HW283304   9.075   1.723   9.465  0.9581  1.3433  1.0524
25397SOL     OW83305   5.362   1.489  12.888  0.3428  0.7222  0.5327
25397SOL    HW183306   5.357   1.552  12.816  0.0549  0.6849  0.5210
25397SOL    HW283307   5.356   1.403  12.845 -1.4947  0.7136  0.7311
25398SOL     OW83308  10.192   1.473   7.265 -0.1269 -0.7308 -0.2337
25398SOL    HW183309  10.258   1.434   7.324 -0.3966 -1.4501 -0.4047
25398SOL    HW283310  10.136   1.524   7.324  1.1931  0.7967 -0.2044
25399SOL     OW83311   0.460   5.857   2.271  0.2368  0.0752 -0.5054
25399SOL    HW183312   0.446   5.899   2.186  2.4162 -1.8319 -1.9059
25399SOL    HW283313   0.555   5.860   2.284  0.4726 -3.5825 -0.3363
25400SOL     OW83314   8.200   8.067  10.728  0.2233 -0.2197 -0.6862
25400SOL    HW183315   8.243   8.125  10.790 -2.9104  1.1783  0.4037
25400SOL    HW283316   8.145   8.124  10.675 -2.2647 -2.0036 -0.2190
25401SOL     OW83317  10.723  10.595  11.031  0.1437  0.5111  0.1850
25401SOL    HW183318  10.657  10.588  10.962  1.8533  0.3115 -1.5091
25401SOL    HW283319  10.677  10.638  11.103 -1.7203  0.7598 -1.0692
25402SOL     OW83320  10.133   9.979  10.010  0.0049  0.4557  0.3015
25402SOL    HW183321  10.171   9.984   9.923  2.1769  0.1762  1.1539
25402SOL    HW283322  10.158   9.893  10.043 -2.0059 -0.0211  0.7095
25403SOL     OW83323   3.782   9.800   4.795  0.6184 -0.0900 -0.2222
25403SOL    HW183324   3.852   9.740   4.769  0.6644 -0.3900  0.5560
25403SOL    HW283325   3.778   9.865   4.725  1.4117 -0.2971 -0.4673
25404SOL     OW83326   4.650   0.519   1.956  0.7104 -0.1746 -0.1022
25404SOL    HW183327   4.602   0.599   1.933  1.1328  1.0063  2.7008
25404SOL    HW283328   4.742   0.547   1.956  0.8047 -0.3274  1.7696
25405SOL     OW83329   5.867   0.289   6.491  0.1534  0.1732 -0.1458
25405SOL    HW183330   5.802   0.219   6.492 -0.6627  0.8907 -1.3457
25405SOL    HW283331   5.924   0.270   6.566 -1.4023 -0.4752  0.9013
25406SOL     OW83332  10.766   2.635   6.354 -0.4893  0.0211  0.6961
25406SOL    HW183333  10.832   2.572   6.326  0.8816  1.0267  1.5007
25406SOL    HW283334  10.701   2.583   6.402  1.4438 -0.6645  2.7793
25407SOL     OW83335   2.719  11.979   2.892  0.4160 -0.0965 -0.0827
25407SOL    HW183336   2.629  11.948   2.902 -1.0784  3.3649 -1.3886
25407SOL    HW283337   2.742  12.014   2.978 -0.2636  0.7964 -0.2548
25408SOL     OW83338   2.871  10.300   8.132  1.0520  0.2316 -0.4796
25408SOL    HW183339   2.941  10.361   8.109  2.4146 -0.3276  1.8313
25408SOL    HW283340   2.910  10.213   8.121 -0.3708 -0.2615 -2.2419
25409SOL     OW83341   6.218   7.269   6.143  0.0603 -0.2467  0.2770
25409SOL    HW183342   6.174   7.305   6.220  2.1327  0.4845  1.2109
25409SOL    HW283343   6.303   7.314   6.141  0.3511 -0.7643 -2.0469
25410SOL     OW83344  12.225   3.916   6.168  0.2464  0.8426  0.4820
25410SOL    HW183345  12.138   3.952   6.150 -0.1040  0.7445  1.8946
25410SOL    HW283346  12.221   3.826   6.136  0.2382  1.1864 -0.5400
25411SOL     OW83347  11.334   5.496   3.830 -0.5129  0.4902  0.4812
25411SOL    HW183348  11.390   5.560   3.874 -0.4343  0.8146 -0.0819
25411SOL    HW283349  11.320   5.532   3.742  1.2807 -1.2593 -0.6113
25412SOL     OW83350   9.558   1.212   0.147 -0.0911  0.1714  0.1292
25412SOL    HW183351   9.524   1.142   0.202 -0.6726  0.8558  0.6630
25412SOL    HW283352   9.504   1.210   0.068 -1.8652  1.6586  1.2378
25413SOL     OW83353  10.519   7.952   6.271  0.0863  0.4024 -0.1175
25413SOL    HW183354  10.495   7.895   6.345  0.2812  1.4220  0.7519
25413SOL    HW283355  10.542   7.891   6.201  0.3084 -0.5997  0.7925
25414SOL     OW83356   4.585  12.491   5.260 -0.1726 -0.4278  0.4892
25414SOL    HW183357   4.576  12.473   5.167  1.0124 -1.7604  0.5894
25414SOL    HW283358   4.644  12.423   5.292  0.3442  0.6616  1.9956
25415SOL     OW83359   0.582  11.636   0.494  0.5335 -0.6687 -0.1593
25415SOL    HW183360   0.522  11.685   0.438  0.5864 -1.5444 -1.0060
25415SOL    HW283361   0.528  11.606   0.567  0.7070  1.4584  0.9307
25416SOL     OW83362   7.977   9.170  11.328  0.3750  0.2835  0.3074
25416SOL    HW183363   7.974   9.252  11.376 -3.0188  0.1569  0.5249
25416SOL    HW283364   7.948   9.192  11.239  1.9383 -0.3018 -0.3944
25417SOL     OW83365   0.017   9.034   1.842 -0.5083  0.1257  0.2520
25417SOL    HW183366  -0.010   9.092   1.771 -0.1143  0.5421  0.4357
25417SOL    HW283367   0.016   9.090   1.920  1.1355  0.2337  0.2299
25418SOL     OW83368   2.959   8.384   1.418  0.7677 -0.4323 -0.4032
25418SOL    HW183369   2.906   8.430   1.483 -0.3395 -0.7109 -1.0820
25418SOL    HW283370   3.048   8.416   1.433  0.3666  0.2947  0.5484
25419SOL     OW83371   1.686  11.973   3.370 -0.3466 -0.5205 -0.0570
25419SOL    HW183372   1.746  12.010   3.306 -0.8280 -0.7988 -0.6775
25419SOL    HW283373   1.730  11.985   3.454  0.2173 -0.0091 -0.4220
25420SOL     OW83374   4.872   4.535   4.880 -0.2693 -0.1691 -0.1210
25420SOL    HW183375   4.841   4.448   4.857 -0.3428 -0.4305  0.9074
25420SOL    HW283376   4.796   4.577   4.920 -0.0353  0.1152  0.0301
25421SOL     OW83377  10.203  11.860   8.579  0.2743  0.1965  0.1888
25421SOL    HW183378  10.276  11.877   8.638 -0.5605  1.9474  0.7881
25421SOL    HW283379  10.184  11.767   8.590  1.5772  0.0006  0.9662
25422SOL     OW83380   9.290   1.215   2.326  0.1719  0.2193  0.1551
25422SOL    HW183381   9.353   1.285   2.310  1.1201 -0.7500 -0.5339
25422SOL    HW283382   9.315   1.146   2.264 -0.5843 -0.8224  0.9703
25423SOL     OW83383   9.674   3.411  12.480  0.0646 -0.0740  0.2098
25423SOL    HW183384   9.624   3.338  12.516  0.2675  0.4420  1.6350
25423SOL    HW283385   9.757   3.409  12.529  1.0306 -0.2922 -1.3801
25424SOL     OW83386   7.694   7.693   9.169  0.3669 -0.2689  0.3339
25424SOL    HW183387   7.692   7.741   9.086  0.9393 -1.7008 -0.5373
25424SOL    HW283388   7.663   7.757   9.234 -0.5466  0.7373 -1.0318
25425SOL     OW83389  11.449   6.152   7.462  0.1954  0.4559 -0.2380
25425SOL    HW183390  11.542   6.171   7.457  0.4764 -1.1238 -1.5732
25425SOL    HW283391  11.423   6.129   7.373 -1.0050 -1.1367  0.4649
25426SOL     OW83392  11.010   6.585   4.025  0.4395 -0.5796 -0.0402
25426SOL    HW183393  10.924   6.626   4.029  0.5445 -0.4328  0.7874
25426SOL    HW283394  11.059   6.639   3.963 -0.0667 -0.6825 -0.5382
25427SOL     OW83395   4.281   7.582   5.585  0.1615 -0.5456 -0.1275
25427SOL    HW183396   4.267   7.664   5.633  0.3361 -0.2346 -0.6029
25427SOL    HW283397   4.316   7.609   5.500  0.2900 -1.1187 -0.2624
25428SOL     OW83398   1.566  11.012   6.304 -0.0889 -0.2473 -0.1273
25428SOL    HW183399   1.499  11.064   6.258  0.9342  1.6465  0.4072
25428SOL    HW283400   1.526  10.994   6.389 -0.3004  0.0376 -0.1607
25429SOL     OW83401   6.454   9.541   2.337 -0.9788 -0.0535 -0.7036
25429SOL    HW183402   6.394   9.615   2.334  1.0718  1.8709  1.0829
25429SOL    HW283403   6.527   9.568   2.280  0.1400 -0.2663  0.5618
25430SOL     OW83404   4.246   7.060   9.226  0.3796 -0.4343 -0.6827
25430SOL    HW183405   4.332   7.096   9.205  0.4496  0.4466  0.8974
25430SOL    HW283406   4.255   6.965   9.215  1.4267 -0.3063 -0.9506
25431SOL     OW83407   1.223   5.513  10.560 -0.1799  0.2160 -0.0503
25431SOL    HW183408   1.311   5.546  10.578 -0.8508  2.5036 -0.6491
25431SOL    HW283409   1.172   5.536  10.637 -0.2754 -1.1519  0.3181
25432SOL     OW83410   4.927   8.780   2.629  0.1602  0.4762 -0.0817
25432SOL    HW183411   4.859   8.846   2.640  0.6427  0.9394  0.1388
25432SOL    HW283412   4.921   8.755   2.536  0.8697  1.8403 -0.5284
25433SOL     OW83413  11.803   5.019   1.320  0.0621  0.1746 -0.0444
25433SOL    HW183414  11.885   5.069   1.320 -0.2946  0.7836  1.3505
25433SOL    HW283415  11.791   4.993   1.228  1.8725 -0.0376 -0.2565
25434SOL     OW83416   5.250   3.338   1.790  0.4861 -0.0703  0.0548
25434SOL    HW183417   5.181   3.346   1.723 -0.9578 -2.4198  1.1124
25434SOL    HW283418   5.219   3.391   1.863  0.8376  0.5288 -0.2293
25435SOL     OW83419   6.565   3.378   6.543 -0.5149  0.1079  0.2237
25435SOL    HW183420   6.625   3.363   6.617 -0.8032 -1.7886  0.1302
25435SOL    HW283421   6.572   3.471   6.525  0.4339  0.4036  1.9080
25436SOL     OW83422   6.457   8.986   4.941  0.6681  0.2049  0.2253
25436SOL    HW183423   6.454   8.921   4.871 -0.6293  0.0580  0.3912
25436SOL    HW283424   6.389   9.049   4.918  0.5076  0.3773  1.1411
25437SOL     OW83425   8.784  10.447   7.047  0.7607  0.0423 -0.0256
25437SOL    HW183426   8.689  10.453   7.055  0.5508 -0.7758 -1.5172
25437SOL    HW283427   8.811  10.535   7.020  0.1916 -0.1655 -1.3677
25438SOL     OW83428   5.237   5.019   8.055  0.0421  0.3068 -0.4289
25438SOL    HW183429   5.221   4.964   7.978 -1.1338  0.1508 -0.1011
25438SOL    HW283430   5.156   5.071   8.064  1.0407  1.9795 -0.6320
25439SOL     OW83431   5.610   6.833   8.280  0.0860  0.2330  0.3437
25439SOL    HW183432   5.676   6.857   8.215  0.2261  1.8796  1.0332
25439SOL    HW283433   5.660   6.800   8.354 -0.0278 -0.8413 -0.0411
25440SOL     OW83434   6.962   4.093   5.632  0.3015  0.4951 -0.1319
25440SOL    HW183435   7.054   4.067   5.637 -0.2418 -1.4700  0.4627
25440SOL    HW283436   6.941   4.127   5.719  0.3624  0.6271 -0.1677
25441SOL     OW83437  11.445  12.114   7.435  0.3848  0.6492 -0.5336
25441SOL    HW183438  11.530  12.110   7.479  0.0592  0.9820  0.1560
25441SOL    HW283439  11.395  12.042   7.474  0.7076 -0.2736 -1.7593
25442SOL     OW83440   0.683   0.210  10.216  0.3768  0.3418 -0.2432
25442SOL    HW183441   0.605   0.263  10.233  1.2909  1.5149  0.4222
25442SOL    HW283442   0.691   0.153  10.292 -0.1097 -0.1573 -0.5552
25443SOL     OW83443   4.704  12.102   5.035 -0.1247 -0.0122 -0.3092
25443SOL    HW183444   4.686  12.195   5.021  0.0010  0.4205  2.0561
25443SOL    HW283445   4.798  12.093   5.022  0.8278  1.2833  3.9928
25444SOL     OW83446   4.550   1.395  12.752 -0.1706  0.0224 -0.0288
25444SOL    HW183447   4.626   1.449  12.729 -1.2958  1.7914  0.1840
25444SOL    HW283448   4.486   1.413  12.684 -0.3420 -1.6601 -0.3523
25445SOL     OW83449  11.298   0.147  12.004 -0.4304 -0.2018 -0.3022
25445SOL    HW183450  11.215   0.108  12.031 -0.9710 -0.0134 -1.6281
25445SOL    HW283451  11.328   0.195  12.082 -1.0537 -1.0790  0.5033
25446SOL     OW83452   1.668   4.186   0.551 -0.0454 -0.0721  0.3370
25446SOL    HW183453   1.573   4.186   0.566  0.0971  1.1973  1.3786
25446SOL    HW283454   1.706   4.198   0.638  0.9542  3.0599 -0.4324
25447SOL     OW83455  10.302  12.333   8.367 -0.0859 -0.0523 -0.3087
25447SOL    HW183456  10.252  12.272   8.422 -0.2163 -0.0696 -0.4438
25447SOL    HW283457  10.252  12.415   8.371  0.6916  0.3912  0.7857
25448SOL     OW83458   3.253   0.670   1.274  0.0475  0.0704 -0.2308
25448SOL    HW183459   3.324   0.718   1.317  0.3914  0.4236 -1.1804
25448SOL    HW283460   3.213   0.734   1.215  1.1553 -1.0432 -2.2906
25449SOL     OW83461   9.937   0.374  11.538 -0.0412 -0.9928 -0.1721
25449SOL    HW183462   9.848   0.370  11.502 -0.6437  2.2562  0.7195
25449SOL    HW283463   9.949   0.289  11.581 -3.1219 -1.1545  0.5766
25450SOL     OW83464   4.695  10.741   2.877 -0.4918  0.3176  0.2482
25450SOL    HW183465   4.676  10.650   2.854  0.1674 -0.3704  2.1693
25450SOL    HW283466   4.719  10.782   2.795 -3.4217 -0.5122 -1.1561
25451SOL     OW83467   1.735   7.062   6.422  0.4780 -0.1232 -0.0084
25451SOL    HW183468   1.719   6.968   6.435  0.8562 -0.0378  1.1554
25451SOL    HW283469   1.815   7.065   6.370  0.6562 -0.4436  0.2410
25452SOL     OW83470   7.374  11.209  11.255  0.1271 -0.3145 -0.2345
25452SOL    HW183471   7.337  11.270  11.318 -1.2388 -0.3333 -0.9700
25452SOL    HW283472   7.400  11.133  11.307 -1.4318 -0.5347  0.2574
25453SOL     OW83473   0.246   2.019   0.963  0.4834  0.0538 -0.1881
25453SOL    HW183474   0.212   1.983   0.882 -0.2007 -3.2713  1.3926
25453SOL    HW283475   0.170   2.022   1.022  1.5207 -0.7841  1.2821
25454SOL     OW83476   2.364   9.787   7.187  0.0767 -0.0059  0.0021
25454SOL    HW183477   2.280   9.826   7.160  0.1247 -0.7784 -1.3564
25454SOL    HW283478   2.376   9.818   7.277 -0.3079  2.3754 -0.6795
25455SOL     OW83479   4.291   5.362   7.863  0.2508  0.7030  0.3152
25455SOL    HW183480   4.267   5.287   7.809  0.6708 -0.7677  2.0591
25455SOL    HW283481   4.302   5.435   7.801 -0.3497 -0.6208 -1.4060
25456SOL     OW83482   2.781   1.199   6.377  0.1324 -0.0248  0.0190
25456SOL    HW183483   2.690   1.216   6.402  0.1824 -0.9081  0.8410
25456SOL    HW283484   2.825   1.284   6.386 -0.5122  0.3152  0.0300
25457SOL     OW83485  12.499   7.982   5.846  0.4217 -0.1163 -0.4407
25457SOL    HW183486  12.546   8.027   5.917 -1.5393  1.1272  0.1566
25457SOL    HW283487  12.515   7.889   5.863 -0.0254  0.1364  1.6985
25458SOL     OW83488   8.741   1.823   4.385  0.1783  0.3117 -0.2670
25458SOL    HW183489   8.699   1.869   4.458  1.2230 -1.0484  1.2631
25458SOL    HW283490   8.738   1.731   4.411 -0.4562 -0.3675 -2.5107
25459SOL     OW83491   1.937   7.771   8.705  0.1938  0.4449 -0.2570
25459SOL    HW183492   1.917   7.841   8.768 -3.3155 -1.3640  0.9208
25459SOL    HW283493   1.938   7.815   8.620 -1.0936  2.1049  0.5191
25460SOL     OW83494   4.539   6.712   2.516 -0.1869 -0.1273 -0.0424
25460SOL    HW183495   4.621   6.665   2.505  0.7430  1.4244  0.0193
25460SOL    HW283496   4.562   6.790   2.568 -1.5695  0.6496 -0.5327
25461SOL     OW83497   5.742   2.980   0.093 -0.1527 -0.0099 -0.0395
25461SOL    HW183498   5.669   2.995   0.034  1.5032  2.9030 -1.5544
25461SOL    HW283499   5.783   2.899   0.060 -0.7934  0.1292 -1.2244
25462SOL     OW83500   3.527   1.816   7.137  0.3973  0.6841 -0.6887
25462SOL    HW183501   3.581   1.812   7.216 -0.9782  1.9333  0.3748
25462SOL    HW283502   3.543   1.904   7.102 -0.4072  0.8202 -0.7324
25463SOL     OW83503  12.242  12.585   2.974 -0.5698  0.1036 -0.0009
25463SOL    HW183504  12.266  12.509   2.921 -3.2048  0.6327 -2.1571
25463SOL    HW283505  12.255  12.556   3.064  0.9504 -1.9813 -0.8042
25464SOL     OW83506   8.027   1.723   0.929  0.3476  0.4023  0.2590
25464SOL    HW183507   7.961   1.731   0.998 -0.9351  0.0830 -0.8819
25464SOL    HW283508   8.029   1.629   0.909 -0.1296  0.6031 -0.8698
25465SOL     OW83509   4.213   1.872  10.182 -0.1706  0.1153 -0.0351
25465SOL    HW183510   4.136   1.859  10.127 -1.6955 -0.0412  2.0090
25465SOL    HW283511   4.220   1.791  10.233  2.1584 -0.4039 -1.0417
25466SOL     OW83512   1.769  10.622   8.580 -0.3065  0.4769  0.3611
25466SOL    HW183513   1.701  10.663   8.634 -0.7150 -0.1085  0.3012
25466SOL    HW283514   1.779  10.534   8.616 -0.8178 -0.0413 -0.7125
25467SOL     OW83515  11.768   2.582   6.881  0.1005  0.5260 -0.2505
25467SOL    HW183516  11.735   2.604   6.968  0.7134  0.3870  0.0279
25467SOL    HW283517  11.852   2.629   6.875  0.0749  0.5149 -0.7565
25468SOL     OW83518   7.325   9.926  10.811  0.2825 -0.0256  0.2044
25468SOL    HW183519   7.269  10.000  10.835  0.6565  0.8015 -1.3911
25468SOL    HW283520   7.370   9.903  10.893 -0.4356  0.9780  0.9066
25469SOL     OW83521   7.547   5.496   4.341 -0.0198  0.0989 -0.3952
25469SOL    HW183522   7.563   5.505   4.435  0.5405  1.3683 -0.5936
25469SOL    HW283523   7.452   5.487   4.333  0.1051 -3.5414  0.5077
25470SOL     OW83524  11.895   2.740   1.984 -0.0363 -0.3068 -0.0746
25470SOL    HW183525  11.942   2.665   1.947 -2.4581 -1.3165 -1.2871
25470SOL    HW283526  11.897   2.806   1.915  2.2352  0.9411  1.0484
25471SOL     OW83527   1.750   9.516   1.938 -0.0512 -0.7444  0.1648
25471SOL    HW183528   1.708   9.451   1.882 -0.0397 -3.1202  2.7266
25471SOL    HW283529   1.834   9.532   1.896  0.1196 -2.7243 -0.3606
25472SOL     OW83530  12.751   8.700   9.367  0.5138 -0.5767  0.2788
25472SOL    HW183531  12.726   8.658   9.449 -1.4716 -2.7835 -1.3016
25472SOL    HW283532  12.769   8.627   9.307  0.0044  0.8679 -1.7618
25473SOL     OW83533  11.273   9.265   9.186 -0.7865  0.3407  0.0769
25473SOL    HW183534  11.217   9.209   9.132 -0.1241 -0.4267  0.1695
25473SOL    HW283535  11.251   9.354   9.159 -1.3408  0.0121 -0.5825
25474SOL     OW83536   5.428   6.381   4.452 -0.1902  0.3560  0.7486
25474SOL    HW183537   5.352   6.331   4.421 -0.5752  0.8169  0.9371
25474SOL    HW283538   5.498   6.316   4.459 -1.0844 -0.4793  2.4675
25475SOL     OW83539   4.502   6.116  10.477  0.0601  0.2296  0.1094
25475SOL    HW183540   4.446   6.149  10.408  0.2446  1.2538  0.4342
25475SOL    HW283541   4.442   6.078  10.541 -0.4762  2.8722  1.3038
25476SOL     OW83542   1.965  11.449  12.320  0.1284  0.1671 -0.4803
25476SOL    HW183543   2.009  11.512  12.263  0.8331 -0.1626 -0.3215
25476SOL    HW283544   1.943  11.498  12.398 -0.0108  0.3974 -0.6633
25477SOL     OW83545   1.298   0.887   7.420  0.6744  0.1287  0.0698
25477SOL    HW183546   1.297   0.911   7.513  1.1906  1.6973 -0.3028
25477SOL    HW283547   1.217   0.837   7.407  0.2317  0.5294  1.2025
25478SOL     OW83548   3.094  12.463  10.051  0.2122 -0.5018  0.5619
25478SOL    HW183549   3.093  12.558  10.057 -2.8268  0.0037 -3.4573
25478SOL    HW283550   3.017  12.434  10.100  1.1544 -0.9853  1.8167
25479SOL     OW83551  11.671   2.732  10.796 -0.0825  0.3250  0.4151
25479SOL    HW183552  11.617   2.755  10.720 -1.2558  1.5250  1.5618
25479SOL    HW283553  11.649   2.798  10.862  3.7290  1.7275  0.5534
25480SOL     OW83554   7.017   0.436   8.678  0.0611  0.0534  0.6551
25480SOL    HW183555   6.964   0.359   8.699  0.5464 -0.0597  1.4843
25480SOL    HW283556   6.994   0.499   8.746  0.1606  0.4100  0.3591
25481SOL     OW83557   9.100   0.607   9.028  0.3088 -0.6767  0.1826
25481SOL    HW183558   9.073   0.551   9.101  0.9006 -1.5978 -0.2815
25481SOL    HW283559   9.045   0.580   8.955  1.6699 -1.7931 -0.4680
25482SOL     OW83560   8.733   0.594   7.542 -0.3836 -1.2145  0.1419
25482SOL    HW183561   8.764   0.684   7.552 -2.7576 -0.2055 -0.8013
25482SOL    HW283562   8.794   0.541   7.594  0.8242  0.9713  1.0671
25483SOL     OW83563   0.126   7.351  12.272 -0.5456 -0.2553  0.7138
25483SOL    HW183564   0.107   7.430  12.221  0.6831 -0.3331  0.1110
25483SOL    HW283565   0.118   7.380  12.363  1.3256  1.0049  0.5465
25484SOL     OW83566   8.392   9.464   0.396  0.0548 -0.1889  0.3302
25484SOL    HW183567   8.413   9.492   0.485  2.4424  1.2985 -0.5912
25484SOL    HW283568   8.413   9.371   0.394 -0.2794 -0.2922  1.3753
25485SOL     OW83569  11.230   5.206  11.538 -0.3448 -0.0796  0.2723
25485SOL    HW183570  11.314   5.162  11.523 -0.7017 -0.0481 -2.2215
25485SOL    HW283571  11.226   5.218  11.632  2.0877 -0.8133  0.5383
25486SOL     OW83572   9.461  11.974   5.632  0.4449 -0.0261 -0.3382
25486SOL    HW183573   9.530  12.036   5.608  0.6027  0.0966  0.4064
25486SOL    HW283574   9.444  11.926   5.551  1.6420 -0.2918 -0.4585
25487SOL     OW83575   9.897   5.043   9.565  0.8857  0.1142 -0.1883
25487SOL    HW183576   9.988   5.014   9.571  0.1304 -2.3034  0.5225
25487SOL    HW283577   9.886   5.105   9.638  2.2710  1.5154 -1.1072
25488SOL     OW83578   1.943   4.247   7.539 -0.2803  0.9113 -0.2642
25488SOL    HW183579   2.038   4.253   7.545 -0.2294  0.4958 -0.6535
25488SOL    HW283580   1.918   4.181   7.603 -0.2943  0.9251 -0.2554
25489SOL     OW83581   7.827   0.586   6.115 -0.3626  0.3514 -0.2463
25489SOL    HW183582   7.743   0.601   6.072 -0.3603 -0.6190 -0.6057
25489SOL    HW283583   7.892   0.614   6.051 -0.4027  1.2728  0.1009
25490SOL     OW83584   5.515  10.250   0.239  0.2954 -0.0489 -0.0235
25490SOL    HW183585   5.435  10.247   0.292 -0.0281 -1.2675 -0.5574
25490SOL    HW283586   5.488  10.294   0.158  0.6424  1.2513  0.5386
25491SOL     OW83587   2.931   8.466   1.689 -0.2129 -0.4855 -0.6576
25491SOL    HW183588   2.863   8.446   1.753 -1.4756  0.2242 -1.7290
25491SOL    HW283589   2.935   8.562   1.687  0.2273 -0.5080 -1.2108
25492SOL     OW83590   8.657   6.684  12.838  0.2805 -0.7899 -0.7958
25492SOL    HW183591   8.640   6.590  12.837  1.0443 -0.9336 -0.3828
25492SOL    HW283592   8.751   6.692  12.851 -0.1642  0.0471  3.0428
25493SOL     OW83593   7.588   7.197   3.313 -0.0073  0.2862 -0.0775
25493SOL    HW183594   7.554   7.286   3.326  1.1737  0.7524 -0.0475
25493SOL    HW283595   7.680   7.203   3.339  0.0232 -1.0157  0.1741
25494SOL     OW83596   0.186  11.639  11.811  0.0327 -0.1385 -0.1995
25494SOL    HW183597   0.276  11.624  11.840  1.4738  0.6009 -3.7970
25494SOL    HW283598   0.165  11.726  11.843  0.4215 -0.4472  0.9611
25495SOL     OW83599  10.595   8.081   2.568 -0.0064 -0.1993 -0.0808
25495SOL    HW183600  10.522   8.132   2.534 -1.3100 -1.3458  0.8924
25495SOL    HW283601  10.642   8.051   2.490  1.3105  3.0432 -0.7027
25496SOL     OW83602  12.689   9.266   9.594 -0.1479 -0.1547  0.0224
25496SOL    HW183603  12.605   9.299   9.562 -0.0237  0.6448  0.4848
25496SOL    HW283604  12.673   9.174   9.612 -0.2521 -0.6539 -2.2526
25497SOL     OW83605   3.788   1.551   1.665  0.1391 -0.1606  0.2507
25497SOL    HW183606   3.857   1.520   1.724  0.4508 -1.1589 -0.6156
25497SOL    HW283607   3.706   1.526   1.709  0.3404 -0.1261  0.6567
25498SOL     OW83608   7.286   1.356   7.890  0.1738 -0.3762  0.3681
25498SOL    HW183609   7.340   1.407   7.829 -2.1164  1.9166  0.0895
25498SOL    HW283610   7.300   1.397   7.975  0.5638 -1.2137  0.7152
25499SOL     OW83611  11.371   7.965   4.377 -0.0612  0.3296  0.4059
25499SOL    HW183612  11.441   8.006   4.327  1.2189 -0.7095  1.2876
25499SOL    HW283613  11.406   7.955   4.465 -0.2124 -2.6757  0.2335
25500SOL     OW83614   1.514  12.035   0.136  0.1325  0.5226 -0.2243
25500SOL    HW183615   1.470  12.094   0.197  0.4002 -0.3356  0.8278
25500SOL    HW283616   1.579  12.089   0.093 -0.0926  1.1603  0.2266
25501SOL     OW83617   8.291   2.760   8.760  0.5744  0.2630 -0.0668
25501SOL    HW183618   8.207   2.762   8.715  0.5554 -0.0403 -0.0438
25501SOL    HW283619   8.304   2.669   8.784 -0.6158  0.7102  2.7735
25502SOL     OW83620   4.450   8.374  12.493 -0.4108  0.4291 -0.1191
25502SOL    HW183621   4.397   8.313  12.545  1.1272 -1.5836 -0.7783
25502SOL    HW283622   4.412   8.368  12.405 -1.0582  1.4745  0.0617
25503SOL     OW83623   0.174   3.706   4.497 -0.5926 -0.5788 -0.1218
25503SOL    HW183624   0.165   3.780   4.436 -1.0166  0.7094  1.4374
25503SOL    HW283625   0.134   3.632   4.451 -0.1575  0.1310 -1.7271
25504SOL     OW83626   4.543  10.887   9.532 -0.0743  0.1059 -0.4647
25504SOL    HW183627   4.556  10.863   9.440  0.5400 -1.5746  0.0184
25504SOL    HW283628   4.515  10.806   9.574 -0.3772  0.8559  0.8440
25505SOL     OW83629   9.601   2.188   9.758  0.2470 -0.6388  0.2685
25505SOL    HW183630   9.597   2.228   9.671 -0.7769  1.6783  1.2990
25505SOL    HW283631   9.515   2.149   9.770  0.3382 -0.8284  0.3038
25506SOL     OW83632   8.814   8.317   9.110  0.5088 -0.0465  0.2972
25506SOL    HW183633   8.825   8.222   9.118  1.8896 -0.0391 -0.9827
25506SOL    HW283634   8.750   8.328   9.039  0.5734 -0.0138  0.2447
25507SOL     OW83635   6.270   9.887   0.981  0.1768  0.2975  0.2055
25507SOL    HW183636   6.263   9.938   1.062  1.4781  0.8186  0.0089
25507SOL    HW283637   6.354   9.913   0.944 -0.6692  0.5173 -1.6245
25508SOL     OW83638   0.201   2.854   9.031  0.4832 -0.0718  0.5778
25508SOL    HW183639   0.191   2.883   8.940  0.0546 -1.7729  0.0495
25508SOL    HW283640   0.124   2.889   9.075  0.5041  0.4556  0.2081
25509SOL     OW83641   9.782   3.874  11.793 -0.0805 -0.2523  0.8343
25509SOL    HW183642   9.871   3.906  11.779 -0.4490  0.3729 -0.1278
25509SOL    HW283643   9.778   3.793  11.743  0.9959 -2.1862  3.6332
25510SOL     OW83644   7.401   8.912  12.206  0.0212 -0.0847 -0.1469
25510SOL    HW183645   7.339   8.979  12.235 -0.6237 -0.3165 -0.9440
25510SOL    HW283646   7.427   8.941  12.118  0.0182 -0.6892 -0.3508
25511SOL     OW83647   3.854   6.454   3.365 -0.0533  0.3671 -0.2766
25511SOL    HW183648   3.842   6.540   3.323 -1.1924  1.0462  1.3595
25511SOL    HW283649   3.846   6.472   3.458  0.4620 -1.4225  0.1332
25512SOL     OW83650   4.109   8.382  10.918  0.0598 -0.0145  1.3665
25512SOL    HW183651   4.048   8.425  10.858  0.1390 -0.2258  1.1339
25512SOL    HW283652   4.192   8.381  10.870  0.5491  1.3238  2.1223
25513SOL     OW83653   1.250  10.271   3.445 -0.5119  0.6658 -0.4665
25513SOL    HW183654   1.248  10.337   3.376 -0.1119 -0.0680 -1.2017
25513SOL    HW283655   1.160  10.240   3.450 -0.4178  0.2509 -1.1457
25514SOL     OW83656   7.349   2.171   3.210 -0.5551  0.0981 -0.2782
25514SOL    HW183657   7.421   2.232   3.227 -0.2285  0.1405 -1.7542
25514SOL    HW283658   7.386   2.105   3.151 -1.2759 -0.8125  0.2443
25515SOL     OW83659   7.283   4.679   1.079  0.7482 -0.1358 -0.1298
25515SOL    HW183660   7.209   4.626   1.050  0.4717 -0.3440  0.9310
25515SOL    HW283661   7.344   4.677   1.005 -0.8028  1.0303 -1.5183
25516SOL     OW83662   1.647   1.403   9.761  0.4001  0.7288  0.2668
25516SOL    HW183663   1.572   1.343   9.757  1.0342 -0.0946  0.4399
25516SOL    HW283664   1.622   1.477   9.706 -0.5347  0.4560  0.3136
25517SOL     OW83665   2.735   6.055   4.699  0.0166  0.0352  0.0280
25517SOL    HW183666   2.707   6.080   4.787  0.8907 -1.1956  0.6824
25517SOL    HW283667   2.830   6.065   4.699 -0.1839  3.6234 -1.9916
25518SOL     OW83668   9.788   1.678   7.267  0.6789 -0.4620  0.5074
25518SOL    HW183669   9.757   1.713   7.183  0.3598 -0.3688  0.6632
25518SOL    HW283670   9.714   1.689   7.327  0.1580 -2.3943  0.2914
25519SOL     OW83671  11.163   6.699   3.814  0.0767  0.1536 -0.4480
25519SOL    HW183672  11.249   6.657   3.806 -0.6078 -0.9680 -3.1064
25519SOL    HW283673  11.176   6.788   3.781  0.4097  0.3334  0.1496
25520SOL     OW83674  12.189   4.845  11.268  0.3994 -0.0207  0.2925
25520SOL    HW183675  12.258   4.825  11.205  1.1706  0.9613  0.7999
25520SOL    HW283676  12.119   4.782  11.248  1.0959 -0.4805 -0.7712
25521SOL     OW83677   0.424   6.460   8.725  0.0406 -0.1638  0.2870
25521SOL    HW183678   0.489   6.486   8.659  0.0586 -0.0015  0.3669
25521SOL    HW283679   0.358   6.411   8.676  0.9175 -1.5247  0.4256
25522SOL     OW83680   1.835   9.827   4.299  0.0266 -0.0569  0.2033
25522SOL    HW183681   1.925   9.857   4.302 -0.1054  0.4961 -0.8792
25522SOL    HW283682   1.816   9.798   4.388  1.9897 -2.3465 -0.0436
25523SOL     OW83683   4.815   0.808   1.730  0.5163 -0.2394  0.5362
25523SOL    HW183684   4.801   0.713   1.727 -1.3872 -0.0077  0.8882
25523SOL    HW283685   4.781   0.840   1.646  0.1129  0.2501  0.8840
25524SOL     OW83686   1.341  10.808   3.684 -0.5073  0.5387 -0.7670
25524SOL    HW183687   1.326  10.870   3.755 -0.0975 -0.5791  0.3413
25524SOL    HW283688   1.260  10.808   3.633 -0.4802  2.0164 -0.8257
25525SOL     OW83689   4.346   2.457   1.418 -0.3369 -0.0208 -0.4278
25525SOL    HW183690   4.403   2.381   1.402 -1.5711 -0.7526 -1.5435
25525SOL    HW283691   4.269   2.419   1.460 -0.1923  0.9104  0.7237
25526SOL     OW83692   9.131   8.043   6.555  0.0584 -0.3206  0.5317
25526SOL    HW183693   9.116   7.949   6.571  0.3133 -0.6125 -0.8290
25526SOL    HW283694   9.221   8.047   6.524 -0.4527  0.1607 -0.9601
25527SOL     OW83695   7.064   9.225   4.075 -0.4619 -1.0586  0.0566
25527SOL    HW183696   7.134   9.283   4.107 -3.6540  2.8840  0.6468
25527SOL    HW283697   7.075   9.225   3.980  1.7265 -2.6118  0.2429
25528SOL     OW83698   6.896   0.918   5.807 -0.2501 -0.1230 -0.9307
25528SOL    HW183699   6.883   0.949   5.897  1.5143  0.8621 -0.9735
25528SOL    HW283700   6.990   0.899   5.801 -0.1371  0.7879 -2.8487
25529SOL     OW83701   2.106   1.639   7.884 -0.0964 -0.6994 -0.0436
25529SOL    HW183702   2.102   1.716   7.827  1.7894 -0.0860  0.6124
25529SOL    HW283703   2.189   1.646   7.929 -0.6314 -2.2734  1.2811
25530SOL     OW83704   9.419   5.223   6.648  0.2431  0.1545  0.1644
25530SOL    HW183705   9.425   5.239   6.554 -0.7529 -0.8934 -0.1000
25530SOL    HW283706   9.509   5.230   6.679  0.5709  0.6450 -0.8325
25531SOL     OW83707   1.313  10.516   7.019  0.1013  0.2158  0.4039
25531SOL    HW183708   1.314  10.443   6.957 -1.2026 -1.1402  1.8993
25531SOL    HW283709   1.358  10.483   7.096  1.3888  1.7604  0.3593
25532SOL     OW83710   2.500   9.233   5.758  0.0648 -0.2817  0.2065
25532SOL    HW183711   2.533   9.259   5.844  0.1255 -1.8297  0.6641
25532SOL    HW283712   2.407   9.257   5.761 -0.1525 -1.1705  1.0625
25533SOL     OW83713  12.832   4.210   0.308 -0.1359 -0.5821 -0.3432
25533SOL    HW183714  12.826   4.253   0.394  1.2607 -1.5223  0.2644
25533SOL    HW283715  12.848   4.118   0.329  2.8178 -0.4473 -1.5380
25534SOL     OW83716   6.187   8.251   8.521  0.0559  0.5376  0.2045
25534SOL    HW183717   6.186   8.346   8.531 -1.6596  0.5322  0.3774
25534SOL    HW283718   6.127   8.233   8.448  0.2871 -0.4162  0.2263
25535SOL     OW83719   7.433   5.505   5.388 -0.3187  0.6575  1.0763
25535SOL    HW183720   7.371   5.448   5.434 -0.9465  0.7892  0.4173
25535SOL    HW283721   7.519   5.478   5.420 -0.7285  0.6309  2.1791
25536SOL     OW83722  11.080   0.268   3.261 -0.0823 -0.3360  0.0680
25536SOL    HW183723  11.072   0.178   3.290 -2.3596 -0.2876 -0.2272
25536SOL    HW283724  11.133   0.263   3.181  0.1402 -1.3491  0.2734
25537SOL     OW83725   2.531   2.976   0.190 -0.7949  0.1727 -0.0354
25537SOL    HW183726   2.573   3.004   0.271 -2.8161  1.8745  0.4950
25537SOL    HW283727   2.604   2.958   0.130  0.6966  0.8799  1.4972
25538SOL     OW83728  12.767   1.075   6.621 -0.4856  0.3477 -0.2761
25538SOL    HW183729  12.834   1.119   6.569 -0.7869  0.5638 -0.4901
25538SOL    HW283730  12.781   1.106   6.710 -1.8843  2.4147 -0.7105
25539SOL     OW83731   4.826  11.539   4.631 -0.2054 -0.0727 -0.2211
25539SOL    HW183732   4.841  11.474   4.701  2.0752 -0.3258 -0.8362
25539SOL    HW283733   4.835  11.489   4.550 -0.5934  0.6225 -0.7029
25540SOL     OW83734   6.512  12.187  11.215  0.1105 -0.8071  0.2132
25540SOL    HW183735   6.517  12.144  11.130 -1.5327 -0.2876 -0.1722
25540SOL    HW283736   6.495  12.116  11.277  0.0963 -1.0424 -0.0584
25541SOL     OW83737   4.613   6.739  10.867 -0.3009 -0.5512  0.5200
25541SOL    HW183738   4.528   6.784  10.859  0.2613  0.8185  1.7562
25541SOL    HW283739   4.649   6.740  10.779  0.0533  2.2901  0.6074
25542SOL     OW83740   1.056  11.263   5.759 -0.4116 -0.6976 -0.4932
25542SOL    HW183741   1.103  11.330   5.710 -1.1809  0.3565  0.1673
25542SOL    HW283742   1.038  11.194   5.695 -0.8021  0.3370 -1.5332
25543SOL     OW83743   5.081  11.155   4.452 -0.4599  0.4538 -0.4516
25543SOL    HW183744   5.098  11.119   4.365  0.8753  0.4060 -0.1970
25543SOL    HW283745   5.081  11.079   4.510 -1.4351  0.4760 -0.3969
25544SOL     OW83746   3.662  12.687   0.674  0.3391 -0.1113 -0.0641
25544SOL    HW183747   3.650  12.605   0.625  1.7854  0.9280 -2.3285
25544SOL    HW283748   3.757  12.699   0.678  0.1799  0.9042  1.2587
25545SOL     OW83749  10.266   4.908   4.498 -0.0909 -0.1468 -0.2893
25545SOL    HW183750  10.282   4.854   4.420 -0.9317 -0.1881 -0.4527
25545SOL    HW283751  10.351   4.944   4.521  0.7407 -2.4262  0.4876
25546SOL     OW83752   5.625   8.016   2.589  0.1678 -0.9041 -0.0210
25546SOL    HW183753   5.567   7.971   2.527  0.1005 -0.5760 -0.2005
25546SOL    HW283754   5.565   8.065   2.646  0.0810 -2.9329  1.7324
25547SOL     OW83755   4.394  12.170   6.212  0.0215  0.4414  0.7176
25547SOL    HW183756   4.476  12.184   6.164 -0.4682  0.3406 -0.1839
25547SOL    HW283757   4.388  12.075   6.221 -0.1782  0.4228  0.4292
25548SOL     OW83758   9.256   9.004   1.415 -0.0818 -0.4658 -0.3821
25548SOL    HW183759   9.174   9.048   1.392 -0.1688 -0.5779 -0.2836
25548SOL    HW283760   9.315   9.025   1.343  0.0741  0.3425 -0.0329
25549SOL     OW83761  11.789   6.627   8.604 -0.5234 -0.0487 -0.7949
25549SOL    HW183762  11.793   6.719   8.630 -1.3968  0.1479 -1.2954
25549SOL    HW283763  11.875   6.591   8.626 -0.0068  1.0026 -1.0412
25550SOL     OW83764   0.046   5.949  10.436 -0.1720  0.2797 -0.3162
25550SOL    HW183765   0.003   5.954  10.350 -0.1872 -0.3026 -0.3471
25550SOL    HW283766  -0.024   5.968  10.498 -0.4239 -0.3814 -0.3823
25551SOL     OW83767   1.877  11.959  12.367  0.0768  0.6451  0.3390
25551SOL    HW183768   1.903  12.029  12.306 -1.5511  1.9901  1.1340
25551SOL    HW283769   1.788  11.937  12.342  0.5755 -1.2291  0.0795
25552SOL     OW83770  10.760   3.451   7.826  0.0713  0.3540  0.1341
25552SOL    HW183771  10.749   3.517   7.758  1.0898  1.0763  0.6379
25552SOL    HW283772  10.675   3.407   7.832 -0.4268  1.1892 -0.6545
25553SOL     OW83773   3.126  11.535   9.100  0.8168 -0.3629  0.1904
25553SOL    HW183774   3.211  11.526   9.057  1.2673 -0.7939  1.1356
25553SOL    HW283775   3.111  11.450   9.142 -1.0295 -1.0099 -1.6047
25554SOL     OW83776  11.306   5.844  10.091 -0.0404  0.3023 -0.0034
25554SOL    HW183777  11.317   5.849   9.996 -0.3886  0.2017 -0.0527
25554SOL    HW283778  11.321   5.934  10.122 -0.6564  0.4904 -0.2402
25555SOL     OW83779   5.058   6.884  11.104 -0.5360 -0.1066 -0.1426
25555SOL    HW183780   5.129   6.843  11.055  1.8502  1.5628  1.6848
25555SOL    HW283781   5.019   6.946  11.043  0.4743 -0.1051 -0.8068
25556SOL     OW83782   7.053   4.145   9.115  0.3809  1.0209 -0.2945
25556SOL    HW183783   7.057   4.131   9.209  0.7493  1.2529 -0.2740
25556SOL    HW283784   7.066   4.059   9.076  1.5397  1.1197 -0.1553
25557SOL     OW83785   4.549  11.900   6.524 -0.0095  0.1772  0.0606
25557SOL    HW183786   4.472  11.864   6.568 -0.7411  0.0708 -1.2480
25557SOL    HW283787   4.623  11.856   6.566 -0.7949 -1.7146 -0.4086
25558SOL     OW83788  10.586   0.437   6.409 -0.1992  0.0928 -0.0316
25558SOL    HW183789  10.548   0.381   6.341 -0.3810 -1.0981  1.0285
25558SOL    HW283790  10.519   0.441   6.477  0.5326  0.1290  0.6955
25559SOL     OW83791   8.573   9.619   3.804  0.3505  0.6239  0.6169
25559SOL    HW183792   8.527   9.542   3.771  0.7663 -0.0153  1.5023
25559SOL    HW283793   8.509   9.662   3.862 -0.4093  1.7912 -0.9980
25560SOL     OW83794   5.776   1.226   5.808  0.6233 -0.1626 -0.0516
25560SOL    HW183795   5.726   1.272   5.875  3.0911  0.7191  1.2849
25560SOL    HW283796   5.792   1.139   5.845  0.0311 -0.4757 -0.5153
25561SOL     OW83797   7.491   0.848   2.666 -0.0843 -0.1823  0.1786
25561SOL    HW183798   7.564   0.900   2.635 -0.7456 -0.0641 -1.2841
25561SOL    HW283799   7.531   0.777   2.717  1.1180 -0.5312 -1.1840
25562SOL     OW83800   1.714  10.463   6.260  0.1375  0.0164  0.0619
25562SOL    HW183801   1.718  10.555   6.288 -1.4865  0.7819 -1.9220
25562SOL    HW283802   1.787  10.454   6.199 -0.0239  0.1539 -0.1533
25563SOL     OW83803   0.818   9.041   7.781 -0.4668  0.2030  0.3114
25563SOL    HW183804   0.868   9.056   7.701  0.0263  1.6125  0.8499
25563SOL    HW283805   0.857   8.962   7.818 -1.2680 -0.9712 -1.2389
25564SOL     OW83806  10.989   6.066   0.188  0.4145  0.5188  0.0362
25564SOL    HW183807  10.960   6.106   0.106 -0.5273 -0.0235  0.0830
25564SOL    HW283808  10.964   6.129   0.256 -1.8542 -0.4454  0.1945
25565SOL     OW83809   4.336  11.098   6.126  0.4007 -0.0370  0.0370
25565SOL    HW183810   4.425  11.073   6.104 -0.2907 -2.2417 -0.4942
25565SOL    HW283811   4.331  11.090   6.221  0.7132 -0.0801  0.0514
25566SOL     OW83812  12.817  12.689   0.120  0.4621 -0.4784  0.8776
25566SOL    HW183813  12.856  12.622   0.176  1.7222 -0.2910  0.2418
25566SOL    HW283814  12.823  12.652   0.032 -0.3308 -0.2113  0.7021
25567SOL     OW83815   8.674   0.321   0.285  0.3127  0.0778  0.5402
25567SOL    HW183816   8.739   0.252   0.295  0.1324 -0.1852 -0.0818
25567SOL    HW283817   8.683   0.350   0.194  0.0809  0.5660  0.6677
25568SOL     OW83818   8.112   5.878   6.331 -0.3331  0.0366 -0.0090
25568SOL    HW183819   8.113   5.813   6.402 -1.2545 -1.1855 -1.0552
25568SOL    HW283820   8.166   5.950   6.363 -0.9452 -0.3526  2.0399
25569SOL     OW83821   2.911   1.669   6.983  0.1924  0.3238 -0.1710
25569SOL    HW183822   2.906   1.700   6.893 -0.9432 -0.2973 -0.3374
25569SOL    HW283823   2.961   1.588   6.978 -1.8788 -1.0026 -0.6415
25570SOL     OW83824   6.423   0.977   7.642  0.6005  0.1185 -0.0128
25570SOL    HW183825   6.434   1.041   7.571  0.3800  0.1700 -0.0000
25570SOL    HW283826   6.482   1.007   7.711  1.8205 -0.6536 -0.6719
25571SOL     OW83827   7.515  10.347   6.935  0.4434  0.5951  0.2763
25571SOL    HW183828   7.509  10.407   6.861 -0.0877 -1.5059 -1.4709
25571SOL    HW283829   7.609  10.341   6.953  0.9759 -1.3189 -2.4751
25572SOL     OW83830   8.978  12.452   9.962 -0.1596  0.1862 -0.0523
25572SOL    HW183831   9.024  12.370   9.981  2.4211  1.4030 -0.6016
25572SOL    HW283832   8.889  12.425   9.943 -0.4180 -2.1333  3.4127
25573SOL     OW83833   5.943   4.653  10.943 -0.2161 -0.1926 -0.7053
25573SOL    HW183834   5.914   4.611  10.863 -0.9804 -2.0270  0.4751
25573SOL    HW283835   6.031   4.617  10.959 -1.2171 -2.1919  0.7778
25574SOL     OW83836  11.706  10.102   8.323 -0.5299  0.0654  0.0197
25574SOL    HW183837  11.763  10.119   8.398 -1.0986  1.7489  0.0968
25574SOL    HW283838  11.709  10.182   8.271  1.5476 -1.7340 -2.9950
25575SOL     OW83839   3.191   1.048  10.736 -0.0210 -0.0046  0.3979
25575SOL    HW183840   3.205   0.955  10.718  2.3482  0.1240  1.3057
25575SOL    HW283841   3.151   1.081  10.655 -5.3509 -2.5477  1.5419
25576SOL     OW83842   1.065   0.898  11.944 -0.3645  0.3545 -0.2804
25576SOL    HW183843   0.973   0.919  11.961 -0.7483  2.0312 -3.7387
25576SOL    HW283844   1.071   0.803  11.957 -3.4582 -0.3942 -3.0654
25577SOL     OW83845   9.770   6.135   5.675 -0.4201  1.0033 -0.1301
25577SOL    HW183846   9.733   6.223   5.668 -0.2662  1.1171  0.4572
25577SOL    HW283847   9.694   6.078   5.683 -0.5374  1.0388 -0.9163
25578SOL     OW83848   4.382   5.975   0.617  0.0873 -0.5469 -0.2778
25578SOL    HW183849   4.431   5.895   0.638  0.8802 -0.2745 -1.0168
25578SOL    HW283850   4.430   6.014   0.544  0.7495  1.5158  1.1737
25579SOL     OW83851   9.942   0.895  12.370 -0.2920 -0.0266  0.2611
25579SOL    HW183852   9.997   0.851  12.435  1.8673  2.5436  0.3178
25579SOL    HW283853  10.004   0.933  12.308 -2.2524 -1.4589 -2.8045
25580SOL     OW83854   3.667   6.947   2.913 -0.3047  0.4139 -0.1443
25580SOL    HW183855   3.668   7.002   2.835 -1.3056  1.0823  0.2935
25580SOL    HW283856   3.574   6.928   2.927 -0.1204  0.2015  0.8179
25581SOL     OW83857   4.801   4.684  11.949  0.3249  0.6109  0.1595
25581SOL    HW183858   4.791   4.740  12.026  1.3268  0.4597  0.4191
25581SOL    HW283859   4.751   4.606  11.969  1.6506  0.0040  1.2547
25582SOL     OW83860  11.553  11.853   6.316 -0.3218 -0.0806  0.3550
25582SOL    HW183861  11.632  11.799   6.306 -0.2510  0.3251 -1.8628
25582SOL    HW283862  11.508  11.816   6.391  0.6024 -2.1096 -0.0144
25583SOL     OW83863   4.814   3.948   0.758 -0.4861  0.4415  0.5565
25583SOL    HW183864   4.815   3.916   0.667 -1.0311  0.0245  0.6946
25583SOL    HW283865   4.842   3.873   0.810 -2.2618 -0.0003  0.9309
25584SOL     OW83866   0.298   5.525  10.087  0.0109  0.0795  0.2109
25584SOL    HW183867   0.293   5.432  10.066  2.0847 -0.1742  0.6591
25584SOL    HW283868   0.267   5.531  10.177  3.1397 -0.7888  1.4745
25585SOL     OW83869   7.513   6.883   2.300 -0.2341  0.1828 -0.5018
25585SOL    HW183870   7.425   6.871   2.335 -0.8171  2.9857 -0.7756
25585SOL    HW283871   7.557   6.940   2.363  1.3744 -1.0043 -0.4730
25586SOL     OW83872   2.455   1.908   0.932 -0.0144 -0.2097  0.5694
25586SOL    HW183873   2.361   1.923   0.935  0.0855  0.3701  1.0195
25586SOL    HW283874   2.477   1.873   1.018  0.4148  1.1998  1.0685
25587SOL     OW83875   4.197   3.945   9.807 -0.3509 -0.0545 -0.5779
25587SOL    HW183876   4.228   3.869   9.855  0.9124 -0.1183 -1.4519
25587SOL    HW283877   4.273   3.975   9.757 -1.2100  0.9185 -1.3539
25588SOL     OW83878   0.654   0.016  10.418  0.0319  0.3446  0.2884
25588SOL    HW183879   0.684  -0.075  10.408  2.8023  1.3488 -2.1045
25588SOL    HW283880   0.694   0.046  10.500 -1.4141 -0.6861  1.4270
25589SOL     OW83881   9.774   4.378   3.781  0.3712  0.6158  0.2764
25589SOL    HW183882   9.702   4.431   3.746  1.0596  1.2397 -0.2390
25589SOL    HW283883   9.739   4.341   3.862 -1.0334 -0.3057 -0.6877
25590SOL     OW83884   9.914   8.988   5.608 -0.0962  0.3206  0.0654
25590SOL    HW183885   9.982   9.056   5.604  0.8857 -0.6038  0.3636
25590SOL    HW283886   9.907   8.967   5.701  1.1690 -1.4459 -0.1705
25591SOL     OW83887  12.529   3.287   5.146 -0.1256 -0.3933  0.3306
25591SOL    HW183888  12.567   3.201   5.129 -0.1881 -0.7057  1.6028
25591SOL    HW283889  12.505   3.284   5.239 -3.0430 -0.1613 -0.3165
25592SOL     OW83890   0.738  10.411   7.192  0.3373 -0.2667  0.2477
25592SOL    HW183891   0.669  10.361   7.234  1.2870 -1.3047  0.6246
25592SOL    HW283892   0.779  10.349   7.131  0.9605  0.3112  0.0642
25593SOL     OW83893   5.907  11.219   6.816 -0.6139 -0.0790 -0.1210
25593SOL    HW183894   5.827  11.258   6.782  0.6526  0.6786 -2.4967
25593SOL    HW283895   5.940  11.164   6.744  0.5779 -1.0222  1.0853
25594SOL     OW83896   1.446  10.160   6.040  0.2960 -0.7404 -0.2625
25594SOL    HW183897   1.423  10.244   6.081 -1.8412 -1.0823 -0.6824
25594SOL    HW283898   1.411  10.094   6.100  1.9742 -1.3921  0.0692
25595SOL     OW83899   0.444   0.258   8.564  0.1395  0.2796  0.5835
25595SOL    HW183900   0.475   0.185   8.510  1.3528  0.4851  0.9691
25595SOL    HW283901   0.502   0.257   8.640  1.5623  2.8785 -0.3562
25596SOL     OW83902   1.877  12.618   5.413  0.1772 -0.0930 -0.3462
25596SOL    HW183903   1.895  12.657   5.327 -0.0530  0.2881 -0.2265
25596SOL    HW283904   1.799  12.564   5.399  0.0484  0.0913 -0.3437
25597SOL     OW83905   9.996   8.991   7.089 -0.1734 -0.1125 -0.1820
25597SOL    HW183906   9.957   9.066   7.044 -1.6650 -0.5444  0.3357
25597SOL    HW283907  10.079   8.977   7.044 -0.1668  1.4329 -0.7103
25598SOL     OW83908   6.097   8.138   3.280  0.3502  0.6811 -0.0196
25598SOL    HW183909   6.065   8.227   3.294  0.7201  1.4246 -3.2039
25598SOL    HW283910   6.192   8.146   3.286  0.3662  0.4140  0.0718
25599SOL     OW83911   7.380   7.279  11.956 -0.0333 -0.2553 -0.0091
25599SOL    HW183912   7.316   7.301  11.888  0.1141 -0.1761 -0.1229
25599SOL    HW283913   7.327   7.265  12.035 -0.2263 -0.5934 -0.1954
25600SOL     OW83914  11.367  12.813  10.132 -0.4015  0.2584  0.3002
25600SOL    HW183915  11.405  12.900  10.145  0.3683  0.0099 -0.1713
25600SOL    HW283916  11.426  12.770  10.069 -2.2969  0.3696 -1.6647
25601SOL     OW83917   1.824   9.764   6.915  0.0326 -0.3801 -0.5529
25601SOL    HW183918   1.736   9.768   6.879  0.0789  0.5802 -0.5656
25601SOL    HW283919   1.837   9.671   6.936 -0.2637 -0.8602 -2.3274
25602SOL     OW83920  10.614  12.590   7.651  0.1781  0.1582 -0.1870
25602SOL    HW183921  10.557  12.557   7.720 -1.3909 -1.3024 -2.0730
25602SOL    HW283922  10.700  12.553   7.672 -0.0047  0.6018  1.4984
25603SOL     OW83923  11.936   6.200  11.013  0.3377 -0.4392  0.2289
25603SOL    HW183924  11.997   6.220  10.942 -0.4210 -0.0334 -0.3264
25603SOL    HW283925  11.889   6.282  11.029  0.9592 -0.3308  1.6840
25604SOL     OW83926   7.207   8.423   0.192  0.6565 -0.0851 -0.0142
25604SOL    HW183927   7.283   8.449   0.140  0.9561 -1.7332 -0.4603
25604SOL    HW283928   7.244   8.378   0.268  0.1623  0.8779  0.8302
25605SOL     OW83929   7.001   4.791   6.865 -0.5463 -0.2479 -0.1420
25605SOL    HW183930   6.984   4.710   6.911  0.7700 -0.6797 -0.3758
25605SOL    HW283931   7.092   4.784   6.836 -0.6206  1.0088 -0.7652
25606SOL     OW83932   6.751  10.439   8.585 -0.4398 -0.4608 -0.0191
25606SOL    HW183933   6.658  10.423   8.566 -0.2219 -0.0547 -1.6269
25606SOL    HW283934   6.774  10.373   8.650 -1.7761 -0.7740  0.1715
25607SOL     OW83935  12.027   5.893   0.769 -0.9641 -0.0555  0.8186
25607SOL    HW183936  12.073   5.916   0.689 -1.0985  0.5713  0.9178
25607SOL    HW283937  12.091   5.841   0.819  0.3270  2.2083  1.7156
25608SOL     OW83938   5.406   0.841   7.415 -0.2083 -0.1253 -0.1269
25608SOL    HW183939   5.396   0.854   7.321  0.0496  0.8713 -0.0281
25608SOL    HW283940   5.321   0.807   7.444  0.0828 -1.5758 -0.8935
25609SOL     OW83941   8.750   5.553   5.127  0.4730 -0.1283  0.6557
25609SOL    HW183942   8.690   5.623   5.099 -0.0248 -0.8697 -0.1716
25609SOL    HW283943   8.789   5.521   5.046 -0.3474 -1.7450  0.8683
25610SOL     OW83944  11.882   6.267  12.858  0.0832  0.1524  0.4652
25610SOL    HW183945  11.833   6.195  12.899  0.6710 -0.1618  0.6328
25610SOL    HW283946  11.921   6.314  12.932  3.0614 -1.7605  0.2943
25611SOL     OW83947   0.544   0.183   3.782  0.2404  0.3067  0.5456
25611SOL    HW183948   0.580   0.270   3.766  2.1400 -0.4903  0.2180
25611SOL    HW283949   0.476   0.173   3.716  0.0635  1.4924  0.5240
25612SOL     OW83950  12.516  10.834   9.794  0.1882 -0.0080 -0.6298
25612SOL    HW183951  12.511  10.929   9.801 -1.7274  0.0021 -1.5526
25612SOL    HW283952  12.546  10.818   9.705 -1.0144 -0.2544 -1.0058
25613SOL     OW83953   9.196   4.784  10.007  0.7522  0.1553  0.0927
25613SOL    HW183954   9.262   4.747   9.948  0.7183 -0.6781  0.5581
25613SOL    HW283955   9.245   4.844  10.063  0.8121  0.8360 -0.6700
25614SOL     OW83956  11.493   2.858   8.943  0.1473 -0.2738  0.4593
25614SOL    HW183957  11.550   2.806   8.886 -0.8905 -2.2981  1.1666
25614SOL    HW283958  11.530   2.946   8.941  1.1869 -0.6985 -1.9020
25615SOL     OW83959   7.369   9.378   5.441  0.2022 -0.3189  0.1315
25615SOL    HW183960   7.318   9.344   5.368  2.4376  2.2430 -2.8745
25615SOL    HW283961   7.453   9.333   5.435  0.4560 -0.0113  1.1042
25616SOL     OW83962   5.451  11.361   8.286  0.2833 -0.3572 -0.6150
25616SOL    HW183963   5.438  11.408   8.204  0.9029  0.5344 -0.2157
25616SOL    HW283964   5.363  11.331   8.310  0.1456 -0.9122 -1.7592
25617SOL     OW83965  12.969  11.873  12.358  0.3062  0.1663  0.4451
25617SOL    HW183966  12.963  11.958  12.401 -0.9096  0.8395 -0.9851
25617SOL    HW283967  12.893  11.825  12.388 -0.6972  0.7337 -1.0374
25618SOL     OW83968   2.890   4.670   4.226 -0.3935  0.1430  0.1541
25618SOL    HW183969   2.870   4.596   4.283 -1.6153  1.4200  1.4673
25618SOL    HW283970   2.981   4.657   4.201 -0.2189 -1.1625  1.3391
25619SOL     OW83971   0.683   2.355   7.252 -0.0260 -0.2879 -0.0068
25619SOL    HW183972   0.665   2.428   7.312  0.7486  0.1133 -0.2392
25619SOL    HW283973   0.696   2.279   7.309 -0.5889 -0.1891  0.2545
25620SOL     OW83974   1.738  12.708   7.590  0.1762 -0.1134  0.1001
25620SOL    HW183975   1.648  12.719   7.621  0.7754  0.3954  1.7345
25620SOL    HW283976   1.760  12.792   7.550 -0.2669 -0.4585 -0.9322
25621SOL     OW83977   9.832   7.467   7.582  0.4990 -0.7978  0.0717
25621SOL    HW183978   9.751   7.476   7.632 -0.1546  0.3266 -1.1228
25621SOL    HW283979   9.804   7.471   7.491  2.0134  1.0485 -0.3587
25622SOL     OW83980   8.990  11.102   7.099 -0.3538 -0.1806 -0.9187
25622SOL    HW183981   8.915  11.052   7.066 -1.6829  2.1233 -1.5886
25622SOL    HW283982   9.016  11.158   7.025  1.7959 -0.6324 -0.5578
25623SOL     OW83983  11.988   3.729  12.685 -0.6912 -0.2482 -0.6889
25623SOL    HW183984  12.019   3.770  12.766  0.5560 -2.9343  0.3493
25623SOL    HW283985  11.893   3.735  12.689 -0.6307  0.0017  0.8098
25624SOL     OW83986   0.831  10.005   2.322  0.4173  0.2466 -0.1290
25624SOL    HW183987   0.870  10.091   2.307  0.5310  0.0472 -1.0671
25624SOL    HW283988   0.738  10.022   2.334  0.8733  0.9121  3.7688
25625SOL     OW83989   7.257   7.518  10.458 -0.1421 -0.3966  0.0800
25625SOL    HW183990   7.262   7.423  10.465  0.1394 -0.4065 -0.2126
25625SOL    HW283991   7.339   7.543  10.414  0.2562  0.0690  1.0390
25626SOL     OW83992   0.106  10.932   0.632  0.0126  0.4452  0.5866
25626SOL    HW183993   0.089  10.978   0.550  1.0811  0.9237  0.6094
25626SOL    HW283994   0.103  10.840   0.609 -1.9169  0.5073  0.4871
25627SOL     OW83995   8.162   0.096   4.518  0.3327  0.2678 -0.3357
25627SOL    HW183996   8.113   0.175   4.494 -1.6452 -1.2377 -1.6212
25627SOL    HW283997   8.253   0.125   4.524  0.0898  2.1376 -3.5085
25628SOL     OW83998   3.890   4.172  12.756 -0.3720  0.1051 -1.0888
25628SOL    HW183999   3.856   4.261  12.758 -4.1736 -1.1532  1.5662
25628SOL    HW284000   3.864   4.138  12.670 -1.6857  0.6727 -0.9317
25629SOL     OW84001   7.591   5.003   9.534  0.3036 -0.2777 -0.3223
25629SOL    HW184002   7.508   4.958   9.517 -0.3103  0.2414  1.1378
25629SOL    HW284003   7.594   5.074   9.470 -2.1677  1.9585  1.8163
25630SOL     OW84004  12.564  12.335   9.004 -0.3454 -0.3870  0.4194
25630SOL    HW184005  12.515  12.256   8.981 -0.1371 -0.9846  1.9367
25630SOL    HW284006  12.651  12.321   8.966 -0.3308 -0.8522  0.6203
25631SOL     OW84007   8.038   4.539   8.695 -0.0069  0.1657  0.4742
25631SOL    HW184008   8.130   4.539   8.720  0.1808  0.6595 -0.1827
25631SOL    HW284009   8.019   4.448   8.673  0.9421  0.4017 -1.5158
25632SOL     OW84010   9.658   3.379   5.517  0.0855 -0.5186  0.3900
25632SOL    HW184011   9.576   3.408   5.557 -0.5229 -2.2652  0.5265
25632SOL    HW284012   9.694   3.317   5.580  1.1019 -0.3959 -0.0486
25633SOL     OW84013   7.317  11.933  12.523  0.2483 -0.4940 -0.1840
25633SOL    HW184014   7.345  11.859  12.469  0.2206 -0.1704 -0.6488
25633SOL    HW284015   7.228  11.953  12.494 -0.2480 -1.1140  0.8569
25634SOL     OW84016   0.180   3.472   6.759 -0.6559 -0.0228 -0.1868
25634SOL    HW184017   0.195   3.452   6.667  0.0864  0.9044 -0.2811
25634SOL    HW284018   0.089   3.448   6.774 -0.3826 -1.5574 -0.7750
25635SOL     OW84019   0.967   9.653  11.839  0.3246  0.1409 -0.4403
25635SOL    HW184020   1.006   9.740  11.833  0.9005 -0.0371  0.5219
25635SOL    HW284021   1.026   9.598  11.787  0.0379  0.2879 -0.9316
25636SOL     OW84022   1.402  11.084   2.331 -0.1407 -0.1329  0.0435
25636SOL    HW184023   1.326  11.118   2.378 -1.2393 -0.7035 -1.2498
25636SOL    HW284024   1.477  11.123   2.375 -1.2386  1.9942  0.1575
25637SOL     OW84025   6.933   0.548   7.743 -0.5657 -0.3713 -0.0802
25637SOL    HW184026   6.987   0.625   7.753  0.2122 -0.8062 -0.7686
25637SOL    HW284027   6.853   0.580   7.700 -0.7939  0.2413  0.7838
25638SOL     OW84028   3.735   9.336  10.067 -0.1413  0.2502 -0.1389
25638SOL    HW184029   3.816   9.386  10.056  0.2705 -0.3355  0.1512
25638SOL    HW284030   3.678   9.394  10.118  0.2960  0.4579  0.1219
25639SOL     OW84031   6.239  12.422   1.848  0.0937 -0.1019  0.0121
25639SOL    HW184032   6.225  12.328   1.844 -0.8729  0.0514 -0.2841
25639SOL    HW284033   6.153  12.461   1.831  1.0104  0.8822 -3.0626
25640SOL     OW84034  11.115   8.093   0.584 -0.0483  0.1826  0.1809
25640SOL    HW184035  11.163   8.050   0.655  0.3581  0.0126 -0.1894
25640SOL    HW284036  11.093   8.179   0.619  2.3991  1.1018 -0.3513
25641SOL     OW84037  10.067   8.096   0.750  0.4171 -0.0738  0.0243
25641SOL    HW184038  10.086   8.003   0.738 -0.0821  0.0327 -1.9320
25641SOL    HW284039  10.010   8.119   0.677  2.0005  2.1959 -0.6147
25642SOL     OW84040   6.617   3.588  11.365  0.2679  0.2885 -0.5463
25642SOL    HW184041   6.655   3.583  11.277  1.4236  0.9721 -0.1155
25642SOL    HW284042   6.607   3.681  11.381  1.3830  0.2502  0.5537
25643SOL     OW84043  12.817   4.784   0.885  0.7071 -0.3799 -0.2881
25643SOL    HW184044  12.769   4.701   0.895  0.5701 -0.1789  0.8149
25643SOL    HW284045  12.875   4.788   0.961  1.9195 -0.2279 -1.1906
25644SOL     OW84046  11.199  11.715   2.914  0.4595  0.1039 -0.0713
25644SOL    HW184047  11.204  11.810   2.927  1.4769 -0.0502  0.8146
25644SOL    HW284048  11.184  11.680   3.002 -1.9971 -0.4615 -0.6573
25645SOL     OW84049   5.494  10.240   0.606  0.1434  0.1419 -0.0697
25645SOL    HW184050   5.425  10.226   0.671 -0.2523  0.9176 -0.3140
25645SOL    HW284051   5.458  10.307   0.547  0.9214  0.2154 -0.4675
25646SOL     OW84052   9.725  12.282   7.422 -0.6865 -0.3457  0.3622
25646SOL    HW184053   9.801  12.224   7.412 -1.7753 -1.6554 -0.5772
25646SOL    HW284054   9.651  12.231   7.390 -1.9004  1.1026  0.7567
25647SOL     OW84055   0.455  11.803   9.448  0.0837 -0.0550 -0.2107
25647SOL    HW184056   0.394  11.825   9.518  0.9760 -2.0010  1.2553
25647SOL    HW284057   0.490  11.887   9.420 -0.9215  0.8404  1.0863
25648SOL     OW84058   3.576   0.649   2.591 -0.2813 -0.0096 -0.6102
25648SOL    HW184059   3.625   0.617   2.667  0.6013 -1.0270 -1.5726
25648SOL    HW284060   3.487   0.617   2.605 -0.1490 -0.1349  0.0130
25649SOL     OW84061   1.805   7.505   1.183 -0.2629 -0.2635 -0.4099
25649SOL    HW184062   1.827   7.584   1.133 -1.1587  0.2785  0.0229
25649SOL    HW284063   1.726   7.471   1.140  0.5671 -1.4028 -1.0996
25650SOL     OW84064   9.938   1.150   7.560  0.8576  0.2487 -0.2283
25650SOL    HW184065   9.862   1.163   7.502  1.6689  0.1813 -1.3536
25650SOL    HW284066   9.991   1.085   7.514  0.3773 -1.6817  1.7840
25651SOL     OW84067   1.360   5.594   6.793  0.4120  0.2236 -0.6481
25651SOL    HW184068   1.323   5.604   6.881  0.8206 -1.2340 -0.2811
25651SOL    HW284069   1.297   5.638   6.736 -0.6008 -0.0262  0.2322
25652SOL     OW84070  12.350   5.099  11.059  0.0490  0.4221  0.5287
25652SOL    HW184071  12.288   5.029  11.040  1.9241 -0.7925 -1.4576
25652SOL    HW284072  12.301   5.180  11.044 -1.4200 -0.4695  0.3935
25653SOL     OW84073   8.624  11.323  10.049  0.0975  0.2253 -0.4972
25653SOL    HW184074   8.534  11.334  10.020  0.2728  1.6633 -0.5833
25653SOL    HW284075   8.675  11.375   9.987  0.7932  0.8467  0.5672
25654SOL     OW84076   8.506  10.495   2.967  0.3679 -0.7688  0.7066
25654SOL    HW184077   8.471  10.567   3.020  0.3210  0.3678 -0.7865
25654SOL    HW284078   8.592  10.478   3.004  0.8950  0.9234  0.3646
25655SOL     OW84079   1.299   3.404   7.049 -0.0662 -0.2899 -0.2007
25655SOL    HW184080   1.204   3.398   7.062 -0.2022  1.2269 -0.3414
25655SOL    HW284081   1.309   3.451   6.966  0.8122 -0.3352 -0.1282
25656SOL     OW84082   4.451   4.042   6.692 -0.1414  0.0329  0.1819
25656SOL    HW184083   4.432   4.024   6.784  1.4497  1.7330  0.9014
25656SOL    HW284084   4.397   4.118   6.671  0.8540  0.7922  0.2924
25657SOL     OW84085  10.758   7.613   3.802 -0.8856  0.0612  0.0735
25657SOL    HW184086  10.715   7.687   3.844  0.5615 -0.2506  2.3381
25657SOL    HW284087  10.798   7.565   3.875  1.3625 -0.8589 -1.6367
25658SOL     OW84088   9.773  11.437   3.502  0.4413 -0.4218 -0.0856
25658SOL    HW184089   9.695  11.390   3.532  0.6146  0.4237  1.8318
25658SOL    HW284090   9.835  11.429   3.574  0.5659  2.4440  0.2540
25659SOL     OW84091   1.143   9.020   8.055 -0.2305 -0.0669  0.2555
25659SOL    HW184092   1.148   8.997   8.148  0.1765  0.7390  0.4427
25659SOL    HW284093   1.210   8.966   8.014  1.8232  1.8236  0.9274
25660SOL     OW84094   3.234   1.028   5.408  0.3811 -0.0955  0.2054
25660SOL    HW184095   3.211   1.120   5.414  3.3296  0.7288  0.0555
25660SOL    HW284096   3.159   0.988   5.364 -0.7378  2.2984 -0.2210
25661SOL     OW84097  12.487   8.556   9.967  0.6886 -0.6771  0.2325
25661SOL    HW184098  12.500   8.528  10.058 -0.0700  0.7545  0.8247
25661SOL    HW284099  12.401   8.597   9.967  1.0246  0.0845 -0.9470
25662SOL     OW84100   5.809   9.102   4.143  0.2613 -0.1132  0.3741
25662SOL    HW184101   5.788   9.193   4.160 -0.6446  0.2539 -2.2247
25662SOL    HW284102   5.735   9.070   4.091  0.5434 -2.3584  1.2302
25663SOL     OW84103   4.697   9.519   7.552  0.4715  0.0928 -0.0227
25663SOL    HW184104   4.717   9.452   7.487  1.5754  0.2528  0.1319
25663SOL    HW284105   4.651   9.472   7.622 -0.0822 -0.2141 -0.5865
25664SOL     OW84106   2.532   1.578   4.212  0.0541 -0.3444 -0.3788
25664SOL    HW184107   2.521   1.644   4.281 -0.6852 -0.2929 -0.5467
25664SOL    HW284108   2.610   1.608   4.164 -1.0733  1.2061 -1.3280
25665SOL     OW84109  12.519  12.815   3.173 -0.0874 -0.0598 -0.3008
25665SOL    HW184110  12.490  12.823   3.082 -2.4023  2.3594  0.4897
25665SOL    HW284111  12.476  12.736   3.205 -2.1582  0.9423 -0.4508
25666SOL     OW84112   7.254   9.953   1.717  0.2144  0.1859 -0.4370
25666SOL    HW184113   7.265   9.862   1.746  1.8153 -0.1566 -1.9461
25666SOL    HW284114   7.206   9.947   1.635  1.7174  0.5392 -1.3717
25667SOL     OW84115   8.231  10.684   9.411  0.3611 -0.4016  0.4993
25667SOL    HW184116   8.276  10.675   9.495  1.0301  2.1730  0.5002
25667SOL    HW284117   8.280  10.627   9.352  1.4850 -0.3094  1.2975
25668SOL     OW84118  11.962   2.755   4.601 -0.1808  0.3223 -0.2289
25668SOL    HW184119  11.901   2.796   4.539 -0.2859 -1.1219 -1.1367
25668SOL    HW284120  11.942   2.795   4.685 -3.1151 -0.7979 -0.2766
25669SOL     OW84121  10.906   4.976   9.922  0.0524 -0.3428 -0.3722
25669SOL    HW184122  10.975   5.031   9.960  0.2254 -0.4535 -0.5275
25669SOL    HW284123  10.916   4.986   9.828 -1.3426  1.1323 -0.3917
25670SOL     OW84124   0.318   8.254   8.794  0.2072 -0.4401  0.1225
25670SOL    HW184125   0.410   8.240   8.816  0.5277 -0.3156 -1.0666
25670SOL    HW284126   0.278   8.284   8.875  1.5734  1.1295  0.2670
25671SOL     OW84127   2.215   1.082   1.992  0.0082 -0.5234  0.7040
25671SOL    HW184128   2.282   1.042   2.048  1.3544 -1.1257 -1.2102
25671SOL    HW284129   2.198   1.016   1.925 -0.8380  0.5124 -0.1351
25672SOL     OW84130  10.585   1.726   3.793  0.1332  0.1510  0.1792
25672SOL    HW184131  10.558   1.772   3.873 -0.8156  1.8242 -1.0175
25672SOL    HW284132  10.505   1.683   3.762  0.1898  0.4693 -0.4373
25673SOL     OW84133   0.269   0.979   1.351  0.1867 -0.0114  0.0899
25673SOL    HW184134   0.249   0.985   1.444  1.2255  0.6881  0.2804
25673SOL    HW284135   0.324   0.901   1.344  1.3388  0.7526  0.3103
25674SOL     OW84136   0.758   8.673   6.602  0.0422 -0.4525  0.0318
25674SOL    HW184137   0.845   8.701   6.574 -0.8815  0.5073 -2.1727
25674SOL    HW284138   0.745   8.588   6.561 -0.3542 -0.1975 -0.3946
25675SOL     OW84139   5.129   1.476   6.046 -0.3947  0.5304 -0.9420
25675SOL    HW184140   5.103   1.554   6.095  0.3177  0.8346 -1.0465
25675SOL    HW284141   5.046   1.431   6.027 -0.7380  0.8037 -0.1284
25676SOL     OW84142  12.304   1.348   5.908 -1.3444  0.3705  0.1329
25676SOL    HW184143  12.330   1.270   5.858 -1.9846 -0.7109  1.4139
25676SOL    HW284144  12.227   1.320   5.957 -0.4080  1.1554  2.1917
25677SOL     OW84145   5.673   0.133   2.482 -0.2092 -0.2110  0.3118
25677SOL    HW184146   5.634   0.098   2.402 -0.1365 -0.1609  0.2545
25677SOL    HW284147   5.665   0.228   2.473 -0.6642 -0.2202  0.5981
25678SOL     OW84148  11.202  10.200   5.807  0.6656 -0.0103 -0.7609
25678SOL    HW184149  11.174  10.144   5.879 -0.8470 -0.3097 -1.5353
25678SOL    HW284150  11.195  10.289   5.842  2.3927 -0.2193  0.2423
25679SOL     OW84151   4.313   5.231   2.761  0.3670 -0.2155 -0.0506
25679SOL    HW184152   4.356   5.309   2.727 -0.7049  0.6182  0.4445
25679SOL    HW284153   4.336   5.229   2.854 -0.2360 -0.0326  0.1118
25680SOL     OW84154   9.034   2.801   1.177 -0.1350 -0.5041 -0.2993
25680SOL    HW184155   9.041   2.882   1.126  1.1365  0.1768  0.8748
25680SOL    HW284156   8.945   2.802   1.213 -0.1272  0.4021 -0.2816
25681SOL     OW84157   7.413   0.393   0.231 -0.0487  0.1257  0.2098
25681SOL    HW184158   7.437   0.328   0.297  0.2393 -1.4418 -1.3529
25681SOL    HW284159   7.456   0.362   0.151 -2.9838  0.0987 -1.4897
25682SOL     OW84160   0.380   7.406   2.721  0.0933 -0.3726  0.2240
25682SOL    HW184161   0.396   7.488   2.768 -2.0202 -0.4794  1.2368
25682SOL    HW284162   0.460   7.391   2.670 -0.1976  3.4144 -1.6846
25683SOL     OW84163   2.306   5.016   1.103 -0.9519 -0.3244  0.3796
25683SOL    HW184164   2.356   5.077   1.158  2.9353 -2.1428 -0.8051
25683SOL    HW284165   2.331   5.039   1.014 -1.1654 -2.1748 -0.1893
25684SOL     OW84166   1.015   6.169   2.188 -0.1886  0.3906  0.3565
25684SOL    HW184167   0.957   6.134   2.121  0.4842 -0.4156  0.1802
25684SOL    HW284168   1.020   6.100   2.254 -0.0014  0.7506  0.7283
25685SOL     OW84169   8.566  10.452   2.209  0.2226  0.8288 -0.1338
25685SOL    HW184170   8.606  10.425   2.127 -0.2591  0.1607 -0.1565
25685SOL    HW284171   8.614  10.530   2.235  2.9599 -1.0322  0.8642
25686SOL     OW84172   0.350  11.933   9.897 -0.5703  0.4705 -0.3069
25686SOL    HW184173   0.405  11.922   9.974 -0.2540 -0.2595 -0.6262
25686SOL    HW284174   0.262  11.945   9.932 -0.3417  0.7712  0.1811
25687SOL     OW84175   6.520   4.268   2.154  0.3879  0.2649  0.0120
25687SOL    HW184176   6.485   4.306   2.074 -0.4921 -1.8670 -0.6788
25687SOL    HW284177   6.532   4.175   2.134  0.0239 -0.3720  2.3734
25688SOL     OW84178   3.507  10.209   6.785  0.1497  0.0292 -0.5546
25688SOL    HW184179   3.493  10.304   6.782 -1.9341 -0.2575 -1.0478
25688SOL    HW284180   3.473  10.183   6.871  1.2100 -0.2337 -0.1940
25689SOL     OW84181  11.774  10.283   2.999 -0.0499  0.3574  0.3413
25689SOL    HW184182  11.710  10.211   3.008  1.3695 -0.8887  0.9380
25689SOL    HW284183  11.847  10.244   2.951  0.1906  1.8223 -0.5400
25690SOL     OW84184   7.600   9.841   0.791 -0.5281  0.0991  0.5170
25690SOL    HW184185   7.610   9.748   0.810 -0.2281 -0.0273 -0.2158
25690SOL    HW284186   7.510   9.849   0.760  0.0253 -0.3063 -1.2980
25691SOL     OW84187   3.092   1.226  11.967 -0.7789  0.3259  0.1287
25691SOL    HW184188   3.106   1.253  11.877  0.8540 -0.1742  0.1943
25691SOL    HW284189   3.044   1.143  11.960  1.0253 -0.7320 -0.4066
25692SOL     OW84190   2.665   2.851   9.710  0.7483 -0.0355 -0.2185
25692SOL    HW184191   2.611   2.848   9.631 -0.2324 -0.3256  0.4355
25692SOL    HW284192   2.697   2.942   9.713 -1.2182  0.6999  0.3165
25693SOL     OW84193   8.763   9.017  10.539  0.0006 -0.0581  0.2385
25693SOL    HW184194   8.858   9.009  10.553  0.0047  0.4534  0.5577
25693SOL    HW284195   8.748   8.977  10.454  0.2754 -1.5403  0.8464
25694SOL     OW84196   6.673   2.941  10.781  0.1066 -0.2827  0.5706
25694SOL    HW184197   6.583   2.972  10.772 -0.0675 -1.3030 -1.8247
25694SOL    HW284198   6.694   2.954  10.874 -2.6366 -0.4008  1.2697
25695SOL     OW84199   8.766   6.229   0.690 -0.2211  0.6337  0.0592
25695SOL    HW184200   8.730   6.295   0.630  0.2288  0.7290 -0.1059
25695SOL    HW284201   8.854   6.212   0.657 -1.3406 -2.3445 -1.8099
25696SOL     OW84202   5.523  12.027   2.846  0.0313  0.1470 -0.2350
25696SOL    HW184203   5.532  12.046   2.939  2.0607 -1.3595 -0.0494
25696SOL    HW284204   5.563  12.103   2.802 -2.4264  1.6614 -0.0173
25697SOL     OW84205   9.678   2.885   4.719  0.3347  0.5569  0.3128
25697SOL    HW184206   9.773   2.892   4.712  0.7785 -3.1177  0.8674
25697SOL    HW284207   9.647   2.886   4.628  0.9930  0.7528  0.0863
25698SOL     OW84208  11.194   8.325   2.228 -0.2224  0.5752 -0.0775
25698SOL    HW184209  11.162   8.258   2.289  1.5905 -0.3135 -0.0384
25698SOL    HW284210  11.258   8.279   2.174  0.2515  2.0299 -0.7871
25699SOL     OW84211   4.722   7.268   3.783 -0.1181  0.1938 -0.2743
25699SOL    HW184212   4.752   7.247   3.872  0.2965  1.8082  0.0079
25699SOL    HW284213   4.658   7.201   3.763  1.1918 -1.3566  0.4667
25700SOL     OW84214   5.971  10.126   1.454 -0.9435 -0.2991 -0.0471
25700SOL    HW184215   5.931  10.057   1.507 -0.4051 -2.3540 -2.1439
25700SOL    HW284216   6.042  10.161   1.509 -2.1407 -0.3387  1.6110
25701SOL     OW84217   0.382  12.838   4.639  0.5615  0.2340  0.7843
25701SOL    HW184218   0.312  12.773   4.628 -0.3049  1.2630  0.0442
25701SOL    HW284219   0.451  12.791   4.687 -0.2904 -1.0428  0.8054
25702SOL     OW84220   0.340   5.606   4.572  0.4137 -0.6391  0.3223
25702SOL    HW184221   0.333   5.519   4.534  1.0248  0.3033 -2.1293
25702SOL    HW284222   0.268   5.655   4.533 -1.7799 -0.6537  3.8659
25703SOL     OW84223   7.958   4.756  10.169  0.6315  0.2345 -0.1837
25703SOL    HW184224   7.932   4.743  10.260 -0.1121 -0.7075 -0.5178
25703SOL    HW284225   7.890   4.813  10.133 -1.6836 -2.9602 -1.3053
25704SOL     OW84226   9.780  11.862   1.454  0.9391 -0.0484 -0.2550
25704SOL    HW184227   9.699  11.911   1.471  0.2440 -1.2148 -0.0885
25704SOL    HW284228   9.832  11.874   1.534  0.7237  0.3094 -0.1637
25705SOL     OW84229   8.858   9.572   5.010  0.0160  0.2864 -0.5514
25705SOL    HW184230   8.940   9.524   5.020 -0.4205  0.0130  2.4571
25705SOL    HW284231   8.880   9.662   5.036 -0.5874  0.2685  0.0180
25706SOL     OW84232   5.156  11.975  10.283  0.2776 -0.1496 -0.0563
25706SOL    HW184233   5.251  11.965  10.284  0.0535 -3.1317 -0.3553
25706SOL    HW284234   5.130  11.948  10.195 -0.8250  1.5832 -0.3159
25707SOL     OW84235   2.954   3.205   9.819 -0.4674 -0.6562 -0.0964
25707SOL    HW184236   2.890   3.274   9.837  0.8547  0.6129 -0.1185
25707SOL    HW284237   2.901   3.132   9.785 -1.8335  0.5393 -0.6578
25708SOL     OW84238   4.679   8.613   0.683 -0.1597 -0.0835 -0.3344
25708SOL    HW184239   4.704   8.582   0.770 -0.0041  1.8157  0.3501
25708SOL    HW284240   4.704   8.543   0.624 -0.4200 -1.4935  1.1662
25709SOL     OW84241   1.512   7.312   7.373 -0.0045 -0.6761  0.3156
25709SOL    HW184242   1.479   7.320   7.463 -0.3251 -0.1260  0.1515
25709SOL    HW284243   1.510   7.401   7.338 -0.7119 -1.0124 -0.5289
25710SOL     OW84244   0.842   8.430   9.146 -0.3716 -1.1148  0.7483
25710SOL    HW184245   0.823   8.478   9.227 -0.5609  0.2314 -0.0605
25710SOL    HW284246   0.937   8.437   9.136 -0.3171 -1.5048  0.9855
25711SOL     OW84247  11.104   3.162  12.640 -0.2465 -0.2451 -0.7146
25711SOL    HW184248  11.131   3.072  12.625 -0.8639 -0.5762  0.0466
25711SOL    HW284249  11.132   3.209  12.562  1.6367 -0.7336 -0.3739
25712SOL     OW84250  12.071  11.283   7.545  0.2198 -0.1765  0.1357
25712SOL    HW184251  11.980  11.265   7.521  0.1529 -0.2347  0.4238
25712SOL    HW284252  12.106  11.198   7.572  0.1831 -0.0515  0.5883
25713SOL     OW84253   6.135   1.133   7.101  0.4676  0.2316  0.2873
25713SOL    HW184254   6.041   1.118   7.093  0.2864 -0.0116  2.3143
25713SOL    HW284255   6.163   1.158   7.013 -1.6781  1.3725 -0.1465
25714SOL     OW84256   4.642   5.363   3.449 -0.7730 -0.3995 -0.0858
25714SOL    HW184257   4.646   5.455   3.425 -1.5604 -1.0466 -3.2215
25714SOL    HW284258   4.708   5.321   3.394 -1.4058 -1.8617  0.2128
25715SOL     OW84259   6.457   3.751   0.126  0.1586  0.3693 -0.0062
25715SOL    HW184260   6.369   3.742   0.161  0.4954  0.0060  0.7648
25715SOL    HW284261   6.491   3.831   0.165  1.0324 -0.7501  1.6412
25716SOL     OW84262   6.578   7.393   0.733 -0.2264 -0.3050 -0.3872
25716SOL    HW184263   6.581   7.468   0.673 -0.1429 -1.5407 -2.0248
25716SOL    HW284264   6.489   7.394   0.768 -0.1023  0.7762 -0.0617
25717SOL     OW84265   6.217   1.981   2.917 -0.4815  0.3442 -0.3700
25717SOL    HW184266   6.123   1.962   2.921 -0.4045  0.1649  1.2806
25717SOL    HW284267   6.249   1.928   2.845 -1.7345  0.8204 -1.3082
25718SOL     OW84268  11.432  12.181   5.139 -0.4498  0.0228  0.3692
25718SOL    HW184269  11.407  12.115   5.204 -0.6760 -1.8519 -1.5216
25718SOL    HW284270  11.450  12.259   5.191 -0.0128 -1.5362  2.7526
25719SOL     OW84271   6.484   9.666   3.302 -0.2095 -0.7155  0.2541
25719SOL    HW184272   6.441   9.586   3.333 -1.2492 -0.5008 -0.5645
25719SOL    HW284273   6.567   9.635   3.265  0.0436 -1.2305  1.2145
25720SOL     OW84274   1.122   3.847   4.564  0.1469  0.9446  0.3064
25720SOL    HW184275   1.033   3.850   4.527  0.0836  0.4182  0.4166
25720SOL    HW284276   1.180   3.848   4.488  0.0159 -0.1159  0.1771
25721SOL     OW84277  12.597   7.409  11.180 -0.3119  0.0562 -0.1191
25721SOL    HW184278  12.626   7.485  11.231 -0.5706 -0.4782  0.8609
25721SOL    HW284279  12.578   7.443  11.093  1.5155  0.7538 -0.2921
25722SOL     OW84280   8.781   1.058   2.828 -0.3327 -0.2532 -0.0862
25722SOL    HW184281   8.766   0.977   2.778  1.6559 -0.8981  0.2615
25722SOL    HW284282   8.743   1.040   2.914  1.4035 -1.4573  0.4771
25723SOL     OW84283   0.441   3.973   2.872 -0.4992 -0.1799  0.0134
25723SOL    HW184284   0.415   4.064   2.884 -1.9147 -0.6090  0.3679
25723SOL    HW284285   0.502   3.956   2.944  0.7059  0.7980 -0.7372
25724SOL     OW84286   4.755   5.327   7.540 -0.8411 -0.2262 -0.2814
25724SOL    HW184287   4.723   5.367   7.621  0.6485  3.6298 -1.3896
25724SOL    HW284288   4.676   5.315   7.487 -1.4406  0.5236  0.4229
25725SOL     OW84289   2.786   1.228   1.306  0.1626  0.0549 -0.8603
25725SOL    HW184290   2.855   1.245   1.242 -0.1573 -0.1574 -1.2661
25725SOL    HW284291   2.765   1.314   1.343 -0.0956  0.2736 -1.5033
25726SOL     OW84292   4.992   2.985   1.798 -0.4592  0.0821  0.4149
25726SOL    HW184293   5.020   2.926   1.868 -1.2893 -1.8567 -0.8123
25726SOL    HW284294   4.896   2.981   1.800 -0.5147  0.8753 -0.1351
25727SOL     OW84295   7.988   0.395   3.482 -0.0099 -0.1696  0.3088
25727SOL    HW184296   7.953   0.426   3.565 -0.4025  0.4422 -0.0747
25727SOL    HW284297   7.964   0.302   3.479 -0.8188  0.0235  0.4587
25728SOL     OW84298   1.848   7.288   2.228  0.1199 -0.8437  0.4490
25728SOL    HW184299   1.877   7.334   2.307 -0.4695 -0.7985  0.6483
25728SOL    HW284300   1.898   7.328   2.157 -0.6585  0.3869  0.5657
25729SOL     OW84301   6.792   0.370   3.947 -0.1083 -0.3937  0.2562
25729SOL    HW184302   6.701   0.354   3.919 -0.1998 -0.1789  0.4262
25729SOL    HW284303   6.839   0.290   3.924 -0.3488 -0.5157  0.1882
25730SOL     OW84304   6.949   8.897  12.156  0.3162  0.1454  0.3879
25730SOL    HW184305   6.967   8.810  12.120 -2.2711  0.5575 -2.2321
25730SOL    HW284306   6.940   8.953  12.079 -0.5537  2.2085  1.9120
25731SOL     OW84307   9.187   8.535   3.266 -0.2867 -0.2946  0.4323
25731SOL    HW184308   9.107   8.578   3.234 -0.9901 -2.5925 -1.2291
25731SOL    HW284309   9.158   8.487   3.344 -0.3253 -0.4205  0.3410
25732SOL     OW84310   6.395   7.425   8.084  0.0563  0.2028 -0.0908
25732SOL    HW184311   6.341   7.504   8.091 -0.4785 -0.2016  0.4558
25732SOL    HW284312   6.334   7.353   8.100  0.3912 -0.3751 -1.3067
25733SOL     OW84313   6.475  10.379   1.018  0.4659 -0.2415 -0.2020
25733SOL    HW184314   6.436  10.334   0.943 -1.8398 -3.1923  2.5132
25733SOL    HW284315   6.419  10.456   1.031 -1.0150 -1.3561  0.2350
25734SOL     OW84316   8.465   3.561   8.633  0.2305 -0.9093 -0.3057
25734SOL    HW184317   8.441   3.635   8.688 -0.1368  1.2017 -3.1027
25734SOL    HW284318   8.390   3.550   8.574  0.1742 -3.7218  0.1495
25735SOL     OW84319   0.597   4.090  12.599 -0.0217 -0.9861 -0.1829
25735SOL    HW184320   0.667   4.110  12.662  0.5074 -0.9142 -0.7902
25735SOL    HW284321   0.527   4.053  12.653 -0.4463  1.0631  0.7868
25736SOL     OW84322   3.309   6.896   4.651 -0.3186 -0.2876 -0.0659
25736SOL    HW184323   3.365   6.860   4.582  0.7767  0.0794  0.5902
25736SOL    HW284324   3.371   6.938   4.711 -1.1325 -1.4316  1.6428
25737SOL     OW84325  11.772   8.674   7.409  0.2149  0.2787 -0.0120
25737SOL    HW184326  11.760   8.768   7.422  0.0005  0.2785 -0.2006
25737SOL    HW284327  11.712   8.633   7.470  0.9628  0.2516  0.7198
25738SOL     OW84328   5.318   9.783   8.806  0.2514  0.2082 -0.1707
25738SOL    HW184329   5.285   9.698   8.836  1.4768  0.2483  1.4219
25738SOL    HW284330   5.413   9.777   8.819  0.7482  0.6826 -3.0558
25739SOL     OW84331   5.835   6.383   9.140 -0.5028  0.1471 -0.2778
25739SOL    HW184332   5.768   6.411   9.202 -0.3488 -0.0015 -0.0441
25739SOL    HW284333   5.794   6.394   9.054 -0.1590  1.8523 -0.2478
25740SOL     OW84334   5.967   7.984   3.477 -0.8073 -0.0864  0.4364
25740SOL    HW184335   5.945   7.895   3.449 -0.6140  0.0868 -0.2910
25740SOL    HW284336   6.016   8.021   3.403 -0.0969  0.3173  1.0961
25741SOL     OW84337   5.961   1.057   3.526 -0.0069  0.0169 -0.2687
25741SOL    HW184338   5.922   1.090   3.607 -1.5674 -0.0791 -0.9427
25741SOL    HW284339   6.055   1.072   3.537 -0.2671  0.8084  1.1829
25742SOL     OW84340  12.108   5.506   2.383 -0.3573  0.5778  0.4106
25742SOL    HW184341  12.199   5.491   2.359 -0.5752  1.1111 -0.9047
25742SOL    HW284342  12.110   5.524   2.477  0.8361  0.2140  0.4746
25743SOL     OW84343   6.507   8.380   6.460  0.5427 -0.3127  0.0983
25743SOL    HW184344   6.419   8.417   6.451  0.2695 -1.4649 -4.0931
25743SOL    HW284345   6.492   8.290   6.490  0.3506 -0.3359 -0.0695
25744SOL     OW84346   6.662   0.495  12.664 -0.3595 -0.5335 -0.0947
25744SOL    HW184347   6.573   0.528  12.674  0.6817  2.1284  1.3730
25744SOL    HW284348   6.707   0.523  12.743  1.6836 -2.2675 -0.5521
25745SOL     OW84349  12.436   2.228   1.549 -0.2666 -0.4102 -0.0709
25745SOL    HW184350  12.412   2.195   1.462  0.1964 -0.1284 -0.3104
25745SOL    HW284351  12.526   2.198   1.561 -0.5879 -1.1070  0.6425
25746SOL     OW84352  11.763   9.524   0.409  0.2271  0.4848 -0.8374
25746SOL    HW184353  11.744   9.535   0.502 -2.0503  0.3369 -1.2089
25746SOL    HW284354  11.776   9.613   0.376  1.0130  0.5388 -0.3996
25747SOL     OW84355   7.913  10.929   4.575 -0.0732  0.7640  0.0404
25747SOL    HW184356   7.991  10.884   4.542 -0.5956  0.4669 -0.8305
25747SOL    HW284357   7.947  11.005   4.621  0.7637  0.2211  0.3503
25748SOL     OW84358   8.872   5.511   7.247 -0.1418  0.3209 -0.4327
25748SOL    HW184359   8.866   5.501   7.152  1.3439 -0.5085 -0.4657
25748SOL    HW284360   8.910   5.429   7.278 -1.2005  0.3158  0.9705
25749SOL     OW84361   5.735  12.708  10.417 -0.6881 -0.0536 -0.6718
25749SOL    HW184362   5.703  12.620  10.400  2.1438 -0.9642 -1.8867
25749SOL    HW284363   5.736  12.716  10.512  1.3110 -2.3379 -0.4211
25750SOL     OW84364   3.492   6.526   7.621  0.0980 -0.0419 -0.8707
25750SOL    HW184365   3.424   6.592   7.632  0.0883 -0.3300  1.0897
25750SOL    HW284366   3.554   6.543   7.692  1.1987 -0.8291 -1.6158
25751SOL     OW84367   3.584   1.942  11.955 -0.4201  0.3094 -0.1071
25751SOL    HW184368   3.659   1.932  12.013  0.4385  1.4293 -0.9814
25751SOL    HW284369   3.561   1.852  11.928  0.0152 -0.1028  0.8807
25752SOL     OW84370   9.591   3.654   4.587  0.3273  0.1012  0.0258
25752SOL    HW184371   9.626   3.585   4.643  0.3407  1.1042  1.3119
25752SOL    HW284372   9.558   3.609   4.510  0.6642 -1.2927  0.6716
25753SOL     OW84373   5.234   1.061   1.963 -0.6311  0.2058  0.1103
25753SOL    HW184374   5.209   1.029   1.877  0.8687 -0.1787 -0.1958
25753SOL    HW284375   5.279   1.144   1.947 -0.2421  0.0786  0.5085
25754SOL     OW84376   1.403   5.136   8.697  0.3824  0.1253 -0.7099
25754SOL    HW184377   1.475   5.157   8.638  0.5659  0.5753 -0.3273
25754SOL    HW284378   1.326   5.126   8.640  0.7864 -0.5797 -1.1442
25755SOL     OW84379   6.923   5.472   8.973  0.8156  0.2602  0.0367
25755SOL    HW184380   6.983   5.398   8.965 -1.4413 -1.5737 -0.9199
25755SOL    HW284381   6.888   5.466   9.062 -0.6531 -0.9330 -0.5861
25756SOL     OW84382   5.870   9.009   6.789  0.3716  0.2890 -0.7922
25756SOL    HW184383   5.831   9.007   6.701  2.1102 -2.1581 -1.6309
25756SOL    HW284384   5.823   8.942   6.838  0.3482  0.6579 -0.3037
25757SOL     OW84385  12.774  12.508  12.399 -0.5617 -0.0247 -0.2682
25757SOL    HW184386  12.867  12.508  12.423 -0.0893  0.5340 -1.9446
25757SOL    HW284387  12.745  12.598  12.413 -0.9091 -0.2406  0.4286
25758SOL     OW84388   5.034   7.055   5.018 -0.5194  0.3616  0.2388
25758SOL    HW184389   5.013   7.067   5.111  1.3055  1.0286  0.6066
25758SOL    HW284390   5.004   6.966   4.998 -1.3387  0.3705  1.3372
25759SOL     OW84391  11.452   8.229   0.562 -0.2245 -1.0650 -0.4212
25759SOL    HW184392  11.412   8.155   0.607 -2.8794  1.3502  1.6144
25759SOL    HW284393  11.388   8.253   0.494  1.3790 -1.5749 -2.1904
25760SOL     OW84394   6.793  10.380   9.129  0.5316  0.4982  0.1990
25760SOL    HW184395   6.744  10.353   9.206  0.9286  1.8900  0.9852
25760SOL    HW284396   6.736  10.442   9.083 -0.7377 -2.1524 -2.0636
25761SOL     OW84397  12.584  10.454   4.164  0.2350  0.1023 -0.2864
25761SOL    HW184398  12.646  10.397   4.118 -0.2600 -1.0959  0.4712
25761SOL    HW284399  12.516  10.394   4.196  0.4803  0.8649  1.8739
25762SOL     OW84400   7.729   5.294   0.741  0.1235 -0.1032 -0.3595
25762SOL    HW184401   7.705   5.231   0.809  1.0016 -0.1523 -0.0885
25762SOL    HW284402   7.767   5.242   0.671 -1.1941 -0.1006 -1.1031
25763SOL     OW84403   7.384   8.222   0.323  0.4367 -0.0623  0.2932
25763SOL    HW184404   7.402   8.157   0.391  0.0492  0.8953  1.3422
25763SOL    HW284405   7.470   8.251   0.294  0.6453  0.8040  1.6666
25764SOL     OW84406   7.407   6.310   6.548  0.6316 -0.3767  0.6102
25764SOL    HW184407   7.408   6.217   6.530 -0.0958 -0.2793  0.0441
25764SOL    HW284408   7.475   6.347   6.491 -1.4324 -0.1106 -1.8225
25765SOL     OW84409   1.510  12.122  12.207 -0.1090  0.1711  0.2693
25765SOL    HW184410   1.589  12.067  12.209 -0.4405 -0.4523 -1.4492
25765SOL    HW284411   1.509  12.158  12.118 -1.3930  0.7331  0.4963
25766SOL     OW84412  12.275   8.052  10.575  0.3830 -0.6348  0.0724
25766SOL    HW184413  12.290   7.981  10.512 -0.0981 -1.2544  0.6305
25766SOL    HW284414  12.207   8.017  10.634  0.4448  0.1295  0.6133
25767SOL     OW84415  11.183   3.978   9.049  0.2580 -0.3810  0.6166
25767SOL    HW184416  11.250   3.915   9.020 -1.0740 -2.3510  1.5528
25767SOL    HW284417  11.184   4.047   8.983 -0.4539 -3.0381 -2.4241
25768SOL     OW84418   4.015  11.037   8.042  0.1259 -0.4204  0.3452
25768SOL    HW184419   4.031  10.943   8.029 -2.1724 -0.6746 -1.1241
25768SOL    HW284420   3.983  11.044   8.132  0.0895 -1.0603  0.3865
25769SOL     OW84421   1.571  12.046   2.165 -0.2804 -0.2901  0.1666
25769SOL    HW184422   1.619  12.069   2.086  0.0559  0.4163  0.5688
25769SOL    HW284423   1.507  11.982   2.136 -1.0023  0.8832 -0.9296
25770SOL     OW84424   1.522   9.331   0.726  0.3464  0.2643 -0.2095
25770SOL    HW184425   1.509   9.405   0.666 -0.2695  0.3691  0.0459
25770SOL    HW284426   1.529   9.372   0.812 -3.1710 -0.0999  0.3962
25771SOL     OW84427   0.676   2.794   0.605  0.0755  0.2237  0.6473
25771SOL    HW184428   0.603   2.745   0.566  0.6521 -0.7380  0.7507
25771SOL    HW284429   0.646   2.885   0.606 -0.9423 -0.0964  0.2726
25772SOL     OW84430   1.212   4.642   1.250  0.4107  0.3967 -0.5837
25772SOL    HW184431   1.258   4.716   1.290  0.9650  0.1573 -0.7678
25772SOL    HW284432   1.142   4.683   1.199  0.1265  0.7390  0.0665
25773SOL     OW84433  10.604   2.061  12.484 -0.0827  0.6213  0.0027
25773SOL    HW184434  10.649   2.037  12.565 -0.4601  2.7949  0.9341
25773SOL    HW284435  10.668   2.044  12.415  0.7500  0.0165  0.8981
25774SOL     OW84436  12.418   1.242   4.600  0.3697 -0.1374  1.0573
25774SOL    HW184437  12.409   1.178   4.671  1.7563 -0.3576  1.0551
25774SOL    HW284438  12.365   1.206   4.529 -0.1657 -0.4612  1.6056
25775SOL     OW84439   3.870   4.257   9.766  0.1996 -0.0310  0.5178
25775SOL    HW184440   3.782   4.228   9.741  0.3918 -0.9976  0.9203
25775SOL    HW284441   3.867   4.352   9.758 -1.1638  0.0299  1.3755
25776SOL     OW84442   4.181   2.486   5.393 -0.0313 -0.3953  0.7124
25776SOL    HW184443   4.200   2.405   5.440 -0.4792 -1.7289 -1.3231
25776SOL    HW284444   4.263   2.536   5.398  1.1555 -2.1569 -0.2962
25777SOL     OW84445   0.111   2.303   9.128  0.4409  0.4513 -0.3317
25777SOL    HW184446   0.033   2.311   9.072  1.5721  0.1216 -2.0369
25777SOL    HW284447   0.148   2.392   9.129  1.5626  0.0544 -1.9220
25778SOL     OW84448   3.524   0.269   7.037 -0.0125 -0.3693 -0.1511
25778SOL    HW184449   3.539   0.192   6.983  0.1419 -0.6129  0.2315
25778SOL    HW284450   3.429   0.277   7.043 -0.0423  0.2301 -1.2529
25779SOL     OW84451  12.152   2.943   6.122  0.5258  0.5026  0.0117
25779SOL    HW184452  12.133   2.982   6.037  0.4526 -0.6081 -0.4998
25779SOL    HW284453  12.133   3.012   6.186 -1.6167  0.6354 -0.7140
25780SOL     OW84454  10.685  10.232   5.054 -0.1631  0.0150  0.1743
25780SOL    HW184455  10.629  10.205   4.981 -0.5699  0.5860  0.2642
25780SOL    HW284456  10.760  10.174   5.050 -0.9488 -1.0406  0.2938
25781SOL     OW84457   6.196   6.311   1.885 -0.2100  0.1230  0.0927
25781SOL    HW184458   6.247   6.350   1.814 -2.2020  0.2092 -1.3471
25781SOL    HW284459   6.113   6.286   1.845 -0.5174 -1.9920  1.8725
25782SOL     OW84460  11.091   0.092   4.893  0.4626 -0.0913  1.0524
25782SOL    HW184461  11.146   0.016   4.874  0.3283  0.2696 -1.0270
25782SOL    HW284462  11.085   0.095   4.988  1.3342 -2.0589  1.2016
25783SOL     OW84463  12.608   5.278   1.816  0.2629  0.2907  0.0897
25783SOL    HW184464  12.603   5.373   1.813  1.3469  0.5304  3.0503
25783SOL    HW284465  12.528   5.250   1.859  1.2153  0.1539  1.8654
25784SOL     OW84466   6.066   0.401  11.251  0.3959 -0.0650 -0.5004
25784SOL    HW184467   6.120   0.436  11.321  0.5691  0.6109 -0.9619
25784SOL    HW284468   6.015   0.331  11.292  2.4792 -1.5557 -0.3237
25785SOL     OW84469   6.183  10.860  10.738 -0.0424  0.3048  0.1653
25785SOL    HW184470   6.099  10.828  10.769  0.5451  0.1896  1.7352
25785SOL    HW284471   6.162  10.919  10.666 -1.4496  0.1718  0.4471
25786SOL     OW84472   9.772   8.646  10.382 -0.0027  0.2315 -0.3081
25786SOL    HW184473   9.789   8.698  10.460  2.5535  1.1737 -1.3770
25786SOL    HW284474   9.685   8.608  10.397  0.3348  0.4425  2.9030
25787SOL     OW84475   2.082   2.065   8.179  0.1312 -0.2866  0.1295
25787SOL    HW184476   2.137   2.050   8.102  0.9729 -0.0872  0.6832
25787SOL    HW284477   2.085   1.981   8.226 -0.8897 -0.6121 -0.3615
25788SOL     OW84478  12.687   1.900   5.383  0.1999 -0.2499 -0.5250
25788SOL    HW184479  12.725   1.985   5.408 -1.0804  0.0506  0.4687
25788SOL    HW284480  12.745   1.835   5.422  1.2117  0.1506 -1.3159
25789SOL     OW84481   3.132  11.524  11.039  0.0734 -0.2012 -0.3354
25789SOL    HW184482   3.120  11.514  11.133  1.5700 -0.7474 -0.1684
25789SOL    HW284483   3.185  11.448  11.013  0.9298  0.6907 -1.3424
25790SOL     OW84484   3.610  12.693   3.036  0.3298 -0.0765 -0.2610
25790SOL    HW184485   3.618  12.668   3.128 -3.3572  2.9945  1.1538
25790SOL    HW284486   3.572  12.617   2.993  0.0195 -0.8089  1.2483
25791SOL     OW84487   9.752   0.063  12.428  0.0537  0.3134 -0.0833
25791SOL    HW184488   9.789  -0.023  12.444  2.5920  1.3787  0.2175
25791SOL    HW284489   9.787   0.118  12.497 -0.7332  1.8175 -0.8230
25792SOL     OW84490  12.478  10.579   4.477  0.5235 -0.1451  0.6563
25792SOL    HW184491  12.518  10.513   4.534 -0.1089 -1.6169 -0.5378
25792SOL    HW284492  12.551  10.615   4.428  1.0923  1.2037  2.3755
25793SOL     OW84493   8.461   9.017   9.525 -0.4908 -0.3166 -0.0619
25793SOL    HW184494   8.484   9.071   9.449  0.5807 -0.7823 -0.0933
25793SOL    HW284495   8.485   8.928   9.499 -1.2484 -0.6548  0.3795
25794SOL     OW84496   0.793   1.327   3.495  0.4472  0.1236 -0.0918
25794SOL    HW184497   0.713   1.357   3.452  2.1964  2.9673 -1.6159
25794SOL    HW284498   0.807   1.388   3.568  0.4555 -1.3198  1.1768
25795SOL     OW84499  11.961   5.532   7.325  0.2699  0.4320 -0.1146
25795SOL    HW184500  11.964   5.561   7.416 -0.0963  2.2982 -0.6482
25795SOL    HW284501  11.868   5.526   7.304  0.2918  2.2247 -0.9628
25796SOL     OW84502   1.870   9.932   6.474  0.1018 -0.2928 -0.5624
25796SOL    HW184503   1.847   9.943   6.566  0.0471  2.0706 -0.7873
25796SOL    HW284504   1.799   9.975   6.426  0.2601 -1.2665 -1.7044
25797SOL     OW84505   6.686   1.463   3.283 -0.0368  0.1678 -0.2760
25797SOL    HW184506   6.708   1.487   3.373  0.6775  2.9251 -1.0791
25797SOL    HW284507   6.646   1.376   3.290 -0.4605  0.5004  2.7346
25798SOL     OW84508   4.993  11.246   3.105  0.4001  0.0178 -0.4113
25798SOL    HW184509   4.899  11.249   3.122  0.5050  1.4026 -0.0184
25798SOL    HW284510   5.021  11.164   3.146 -0.3840  0.3276  0.8148
25799SOL     OW84511   5.902   0.581   6.645 -0.0811 -0.2711  0.0778
25799SOL    HW184512   5.902   0.539   6.730 -0.1090  0.2330  0.3330
25799SOL    HW284513   5.907   0.509   6.582  0.5422 -0.6199  0.5142
25800SOL     OW84514   6.907   9.104   2.132  0.6582  0.1967  0.2198
25800SOL    HW184515   6.840   9.100   2.200  0.7048  0.4009  0.2794
25800SOL    HW284516   6.990   9.108   2.181  0.6020  2.5645  0.2139
25801SOL     OW84517   8.914   3.165   9.297  0.6057  0.1502 -0.0328
25801SOL    HW184518   8.866   3.212   9.228 -0.1348  2.5650  1.9857
25801SOL    HW284519   8.993   3.217   9.311  0.6619 -0.2113  1.0465
25802SOL     OW84520   3.436  10.507   5.760  0.3099 -0.4272 -0.2948
25802SOL    HW184521   3.400  10.560   5.688  0.5033  1.4648  0.9221
25802SOL    HW284522   3.524  10.542   5.773 -0.0929  0.0172  1.5362
25803SOL     OW84523  12.337   4.289   3.679  0.1906  0.6956  0.1055
25803SOL    HW184524  12.418   4.245   3.705  0.2215  0.2951 -0.6490
25803SOL    HW284525  12.306   4.239   3.604 -0.5295  1.1119  0.1227
25804SOL     OW84526   7.587  12.589   2.569  0.2756  0.2225 -0.1199
25804SOL    HW184527   7.522  12.559   2.633 -0.1835  1.8187  0.1976
25804SOL    HW284528   7.671  12.574   2.612  0.0546 -0.2507  0.1702
25805SOL     OW84529   2.148  12.922  11.506 -0.4227  0.2472  0.3672
25805SOL    HW184530   2.100  13.003  11.494 -0.9002 -0.1404 -0.4197
25805SOL    HW284531   2.130  12.897  11.597 -0.8656  0.6449  0.3917
25806SOL     OW84532   2.666   8.083   8.278  0.8953  0.0829  0.3937
25806SOL    HW184533   2.757   8.114   8.284  1.8422 -2.7143  2.4057
25806SOL    HW284534   2.669   8.011   8.216  0.8031 -2.0782  2.7571
25807SOL     OW84535   2.755   9.654   7.123  0.2976  0.5892 -0.0126
25807SOL    HW184536   2.792   9.584   7.176  0.3609  1.8891  1.7425
25807SOL    HW284537   2.660   9.638   7.125  0.3920 -0.1863 -0.7777
25808SOL     OW84538   6.555   0.640   8.357  0.2774  0.7304  0.7206
25808SOL    HW184539   6.524   0.642   8.447  0.0008  1.2405  0.6202
25808SOL    HW284540   6.531   0.726   8.321  0.2037  0.4627  0.1050
25809SOL     OW84541   5.311  10.765   5.101 -0.0062  0.1700 -0.0315
25809SOL    HW184542   5.268  10.824   5.162 -0.4686  1.1423 -1.2578
25809SOL    HW284543   5.310  10.811   5.017 -0.4632 -1.5954 -1.0712
25810SOL     OW84544   6.940   7.924   6.754 -0.5556 -0.9219  0.2363
25810SOL    HW184545   6.964   7.871   6.831 -2.9905 -0.0207  1.7185
25810SOL    HW284546   6.888   7.865   6.700 -2.9497 -0.3043  1.7085
25811SOL     OW84547   3.845  10.791   0.680 -0.1685  0.4074  0.0436
25811SOL    HW184548   3.866  10.721   0.617  0.4975  0.1984  0.4895
25811SOL    HW284549   3.759  10.767   0.715 -0.2115  0.1337 -0.2478
25812SOL     OW84550   1.544   8.072   7.619  0.4421 -0.3143 -0.7894
25812SOL    HW184551   1.550   8.107   7.708 -1.6155 -1.4354 -0.1264
25812SOL    HW284552   1.534   8.149   7.563 -1.1839  0.3272  0.3121
25813SOL     OW84553   6.210   7.549  12.728  0.1232  0.3371  0.1075
25813SOL    HW184554   6.163   7.559  12.645 -0.2702  0.1417  0.3048
25813SOL    HW284555   6.303   7.543  12.703 -0.1151 -1.7033 -0.5077
25814SOL     OW84556   4.070   9.016   7.406  0.6252 -0.1086 -0.2192
25814SOL    HW184557   4.119   9.076   7.461 -0.2893  0.0235  0.4719
25814SOL    HW284558   3.983   9.055   7.398  0.9660  0.3116 -2.4797
25815SOL     OW84559   9.705  12.256  12.490  0.1827  0.2605  0.0785
25815SOL    HW184560   9.706  12.161  12.499 -0.3741  0.2472  0.0416
25815SOL    HW284561   9.620  12.282  12.526  0.2726  0.7296 -0.0483
25816SOL     OW84562  12.249   5.976   3.208 -0.3124 -0.5004  0.4822
25816SOL    HW184563  12.168   5.987   3.258 -0.2783  0.0015  0.4306
25816SOL    HW284564  12.297   6.057   3.221 -0.5062 -0.1630 -0.7262
25817SOL     OW84565   3.835   2.204   5.064 -0.6765  0.1842  0.1745
25817SOL    HW184566   3.920   2.176   5.099 -0.2333  1.2461 -0.0376
25817SOL    HW284567   3.776   2.200   5.139  0.7252  4.6447  1.8085
25818SOL     OW84568  10.613   4.256   3.038  0.4272 -0.1206 -0.3119
25818SOL    HW184569  10.567   4.226   3.116  1.9035 -0.9790  0.2663
25818SOL    HW284570  10.674   4.323   3.070 -0.2466  0.8702 -1.0355
25819SOL     OW84571  11.339   5.592   4.425 -0.3471  0.4102 -0.6169
25819SOL    HW184572  11.366   5.501   4.442 -0.6660  0.0654 -1.8474
25819SOL    HW284573  11.252   5.599   4.464  0.5403  0.8807  1.4423
25820SOL     OW84574  12.341   1.581   7.784  0.2066 -0.0609 -0.3259
25820SOL    HW184575  12.352   1.556   7.692 -1.6667 -0.1531 -0.5575
25820SOL    HW284576  12.339   1.677   7.783 -0.1390 -0.0691 -0.4238
25821SOL     OW84577  11.332  11.884   6.804 -0.0911  0.2690  0.3382
25821SOL    HW184578  11.395  11.881   6.875  0.4592 -0.3472 -0.1639
25821SOL    HW284579  11.381  11.854   6.727 -0.5369  1.3658 -0.4027
25822SOL     OW84580   5.567   6.601   8.738  0.6523  0.1576 -0.7478
25822SOL    HW184581   5.523   6.516   8.739  0.4330  0.2694  0.7044
25822SOL    HW284582   5.525   6.651   8.809  1.6965  1.0037 -0.7051
25823SOL     OW84583   3.437  11.175   1.211 -0.0894  0.4074  0.5388
25823SOL    HW184584   3.425  11.157   1.118  0.4099 -0.1180  0.5756
25823SOL    HW284585   3.402  11.264   1.222 -0.7211  0.2400 -0.0270
25824SOL     OW84586   2.515   6.648  10.172 -0.0945 -0.2510 -0.6212
25824SOL    HW184587   2.600   6.684  10.199 -0.7552  0.0185  1.2704
25824SOL    HW284588   2.485   6.707  10.103  0.4455  0.7653 -0.0209
25825SOL     OW84589   7.621  10.715   6.956  0.2614 -0.3120  0.1106
25825SOL    HW184590   7.679  10.676   7.021  0.9761 -1.0271 -0.9245
25825SOL    HW284591   7.600  10.802   6.991  2.1434  0.0592  0.3918
25826SOL     OW84592   3.911  12.123   8.105 -0.4797  0.3514 -0.5188
25826SOL    HW184593   3.832  12.151   8.060 -1.2518 -0.3312  0.3577
25826SOL    HW284594   3.879  12.077   8.183  0.7262 -1.7366 -1.1730
25827SOL     OW84595   2.588   4.091   8.727  0.1511  0.1792  0.2048
25827SOL    HW184596   2.559   4.102   8.636  1.6312  0.8559 -0.2188
25827SOL    HW284597   2.571   3.999   8.747 -0.4523  0.0938 -0.6668
25828SOL     OW84598   6.126   0.320  11.861 -0.7371 -0.6754  0.0510
25828SOL    HW184599   6.049   0.288  11.907 -1.8803  0.2422 -1.1465
25828SOL    HW284600   6.126   0.415  11.876  0.4482 -0.7132  0.4313
25829SOL     OW84601   6.112  11.753   5.654  0.1897  0.1532  0.1022
25829SOL    HW184602   6.055  11.778   5.726 -1.1989 -0.0472 -0.9035
25829SOL    HW284603   6.162  11.678   5.687 -0.0955  0.3548  0.9972
25830SOL     OW84604   8.079  10.186   1.482  0.2071 -0.3283 -0.0618
25830SOL    HW184605   8.003  10.137   1.513  0.9160 -2.3385 -1.3324
25830SOL    HW284606   8.140  10.184   1.556 -0.3616 -0.0545  0.4202
25831SOL     OW84607   0.836   4.331  11.182 -0.5023  0.4355 -0.3237
25831SOL    HW184608   0.846   4.426  11.179  2.3804  0.3157  1.6350
25831SOL    HW284609   0.849   4.302  11.092  3.1397  1.6857 -0.3651
25832SOL     OW84610   5.282   9.517   8.880 -0.4681 -0.2038 -0.3213
25832SOL    HW184611   5.251   9.452   8.817 -2.2453  0.8499 -0.6185
25832SOL    HW284612   5.357   9.476   8.923 -1.1498 -2.1915 -0.9263
25833SOL     OW84613   7.737   5.838   5.009 -0.2635  0.3120  0.1994
25833SOL    HW184614   7.809   5.805   4.955  0.3885  1.1363  0.5379
25833SOL    HW284615   7.663   5.780   4.989  0.7959 -1.2892  0.7076
25834SOL     OW84616   7.972   2.255   9.349  0.0092 -0.0055  0.1731
25834SOL    HW184617   7.893   2.279   9.301 -0.8331 -0.0775  1.4490
25834SOL    HW284618   8.005   2.337   9.386  0.4307 -0.0001 -0.2135
25835SOL     OW84619  12.931   5.786   2.821  0.0472  0.2745 -0.2051
25835SOL    HW184620  12.857   5.751   2.870 -0.7851 -0.2196 -1.7551
25835SOL    HW284621  13.000   5.720   2.831  0.1844  0.5540  0.9129
25836SOL     OW84622   0.586   3.457   0.934 -0.4399 -0.1468 -0.6051
25836SOL    HW184623   0.602   3.419   0.848  1.7951 -0.4376 -0.1295
25836SOL    HW284624   0.557   3.546   0.916 -0.1047 -0.2357 -1.6681
25837SOL     OW84625   1.291  12.642   3.139  0.0208  0.0123 -0.0589
25837SOL    HW184626   1.273  12.566   3.085  0.6556  0.7050 -1.2979
25837SOL    HW284627   1.372  12.678   3.103 -0.6865  1.7192 -0.0317
25838SOL     OW84628  11.586  11.606   8.666  0.2450  0.2446 -0.3058
25838SOL    HW184629  11.491  11.604   8.672  0.1648  1.4457 -0.9561
25838SOL    HW284630  11.616  11.567   8.748 -0.8042  0.6750  0.2957
25839SOL     OW84631   7.608   0.574  11.051 -0.4733 -0.1923  0.3502
25839SOL    HW184632   7.636   0.628  10.978 -0.8679 -2.0301 -1.2440
25839SOL    HW284633   7.545   0.628  11.098  0.6344  1.4491  0.0290
25840SOL     OW84634  12.476   5.946  10.379  0.0064 -0.0835 -0.3552
25840SOL    HW184635  12.390   5.958  10.420 -0.3850  1.4020 -1.5224
25840SOL    HW284636  12.524   6.025  10.400  0.0910  0.3431 -1.9932
25841SOL     OW84637   7.118   6.367   7.732 -0.6341  0.9658 -0.2408
25841SOL    HW184638   7.062   6.442   7.754 -0.9524  1.0539 -1.2792
25841SOL    HW284639   7.085   6.337   7.648  0.4858  0.6196 -0.5745
25842SOL     OW84640   8.377  11.406   5.732  0.0326 -0.0136 -0.3871
25842SOL    HW184641   8.430  11.485   5.716  1.5414 -0.6954  0.9466
25842SOL    HW284642   8.321  11.430   5.807 -0.5900  0.2557 -0.9276
25843SOL     OW84643   2.259   6.389   0.144 -0.1186 -0.1636  0.4391
25843SOL    HW184644   2.277   6.462   0.204 -0.0000 -0.5121  0.8332
25843SOL    HW284645   2.340   6.377   0.095 -0.8229  1.4082 -1.2135
25844SOL     OW84646   9.728   3.088   2.648  0.3711  0.3808  0.3288
25844SOL    HW184647   9.680   3.153   2.596  0.7849 -0.4533 -1.1610
25844SOL    HW284648   9.815   3.086   2.608 -0.2292 -2.5803 -1.1320
25845SOL     OW84649   3.359   2.207  12.581 -0.7460  0.1331 -0.2378
25845SOL    HW184650   3.365   2.222  12.487 -1.1876 -3.8500 -1.0623
25845SOL    HW284651   3.428   2.262  12.618  2.6535 -1.5317 -3.4272
25846SOL     OW84652   9.134   1.557   4.961  0.0465 -0.0360  0.4122
25846SOL    HW184653   9.152   1.589   4.873  0.8276 -0.4284  0.4213
25846SOL    HW284654   9.156   1.631   5.018 -2.1700  0.8764  0.2173
25847SOL     OW84655   7.242   9.799   6.861 -0.2170  0.4921 -0.1856
25847SOL    HW184656   7.300   9.874   6.873  0.1539  0.3672 -1.1423
25847SOL    HW284657   7.154   9.836   6.866 -0.0508  0.8335  0.3088
25848SOL     OW84658   9.181   6.469   6.988 -0.3091 -0.5627 -0.6420
25848SOL    HW184659   9.153   6.550   7.031 -0.8801 -0.5994 -0.9300
25848SOL    HW284660   9.175   6.488   6.895 -0.8559 -1.0599 -0.7193
25849SOL     OW84661   7.635   0.689   3.828  0.2077  0.0430 -0.4569
25849SOL    HW184662   7.614   0.622   3.762 -0.0622 -1.7166  1.3264
25849SOL    HW284663   7.553   0.736   3.841  0.2434  0.3593 -1.2967
25850SOL     OW84664   6.912   0.070   1.833 -0.7098  0.1242 -0.1009
25850SOL    HW184665   6.838   0.128   1.815  0.7131  1.8356 -0.8328
25850SOL    HW284666   6.982   0.103   1.776  0.4163 -1.8470  0.0634
25851SOL     OW84667  10.284  11.591  12.084 -0.4970  0.4886 -0.1327
25851SOL    HW184668  10.289  11.499  12.110 -1.0874  0.3510 -0.4703
25851SOL    HW284669  10.355  11.601  12.020 -1.1096 -0.0297 -0.9239
25852SOL     OW84670   8.712   2.131   1.394  0.0353  0.0985 -0.4150
25852SOL    HW184671   8.707   2.195   1.323  1.2687  0.6062 -0.0677
25852SOL    HW284672   8.790   2.156   1.443  0.1418 -1.2612  0.1420
25853SOL     OW84673   2.784   1.309  11.217  0.0380  0.1870  0.1080
25853SOL    HW184674   2.700   1.280  11.251 -0.2817 -1.2658 -1.7545
25853SOL    HW284675   2.841   1.233  11.224  1.1501  1.0557  1.0580
25854SOL     OW84676   6.761  12.020   6.120  0.0793  0.2063 -0.5160
25854SOL    HW184677   6.825  12.018   6.050  0.5363  1.7631 -0.1816
25854SOL    HW284678   6.777  11.940   6.170  0.7325 -0.1718 -1.3122
25855SOL     OW84679   5.110  11.798   7.634  0.4003  0.0182 -0.4251
25855SOL    HW184680   5.136  11.714   7.595 -1.4966 -0.1233 -1.4981
25855SOL    HW284681   5.154  11.863   7.579  0.5295 -0.2482 -0.6444
25856SOL     OW84682  11.720   1.878   4.515 -0.1597 -0.0575  0.2235
25856SOL    HW184683  11.669   1.954   4.487  0.5945  0.2088 -0.4316
25856SOL    HW284684  11.807   1.912   4.535 -0.2989 -0.4562  1.6761
25857SOL     OW84685   3.886  10.629   4.604 -0.4348  0.0414  0.0114
25857SOL    HW184686   3.870  10.535   4.595 -0.8339  0.1196 -0.1159
25857SOL    HW284687   3.882  10.663   4.514  1.8491 -0.1382 -0.2260
25858SOL     OW84688   4.402   2.458  11.430  0.1403  0.2426 -0.4531
25858SOL    HW184689   4.312   2.431  11.412  0.6502 -1.4806 -0.5940
25858SOL    HW284690   4.449   2.441  11.349  0.6953  0.7324 -0.2447
25859SOL     OW84691   4.072  10.322   3.218  0.2068 -0.4089  0.1209
25859SOL    HW184692   4.119  10.265   3.158  1.5659 -1.2506  1.9091
25859SOL    HW284693   4.043  10.265   3.289 -0.7158  0.6795  0.6640
25860SOL     OW84694   2.912   5.581   5.384 -0.0584 -0.1557 -0.2559
25860SOL    HW184695   2.939   5.597   5.294  0.8693 -0.0525  0.0293
25860SOL    HW284696   2.968   5.509   5.414 -0.8046 -0.6329  0.0404
25861SOL     OW84697   9.389  12.011   0.038  0.3439 -0.4684 -0.1075
25861SOL    HW184698   9.429  12.035   0.122  0.7772  1.5953 -0.8327
25861SOL    HW284699   9.299  12.042   0.045  0.5699  0.3276 -0.6326
25862SOL     OW84700   2.089   7.387  11.155 -0.0442  0.1781 -0.1406
25862SOL    HW184701   2.048   7.440  11.087  2.0141 -1.9110 -3.2687
25862SOL    HW284702   2.015   7.340  11.195 -1.3008  1.0627 -1.3143
25863SOL     OW84703   1.190  12.714   5.305 -0.3907  0.2202 -0.0599
25863SOL    HW184704   1.156  12.758   5.227 -3.2008 -2.1275 -0.3129
25863SOL    HW284705   1.151  12.762   5.379  0.3259  0.9509 -0.1398
25864SOL     OW84706   8.061  11.470   5.764 -0.5337 -0.2242 -1.0578
25864SOL    HW184707   8.071  11.563   5.745  0.5102 -0.3342 -1.1459
25864SOL    HW284708   8.054  11.428   5.678 -0.2300 -0.2957 -1.0496
25865SOL     OW84709   7.967   5.672  11.453 -0.0157  0.1837  0.1793
25865SOL    HW184710   7.874   5.659  11.473 -0.4166  0.4900 -1.3521
25865SOL    HW284711   7.977   5.638  11.364  1.3624  0.1190  0.3419
25866SOL     OW84712   9.991  12.415   5.184 -0.2534 -0.2966  0.0535
25866SOL    HW184713  10.015  12.425   5.092  0.6784  1.2755  0.4280
25866SOL    HW284714   9.927  12.344   5.185 -2.2126  1.2567 -2.1635
25867SOL     OW84715   4.157   3.222   8.908 -0.5708 -0.0445  0.3688
25867SOL    HW184716   4.081   3.165   8.900 -0.3613 -0.5567  1.7576
25867SOL    HW284717   4.214   3.196   8.836 -0.7571 -1.1876  0.6139
25868SOL     OW84718   7.001   2.157   7.700 -0.4291  0.3518  0.0370
25868SOL    HW184719   6.964   2.246   7.702  0.7423  0.8568  0.4860
25868SOL    HW284720   6.957   2.111   7.771  0.3359  1.1857  1.0932
25869SOL     OW84721   0.569   7.823   8.106 -0.2342  0.5431  0.5515
25869SOL    HW184722   0.621   7.807   8.184 -1.9849  2.3620  2.1969
25869SOL    HW284723   0.581   7.916   8.087 -1.9834  0.7778  0.3858
25870SOL     OW84724   8.887   8.348  12.902  0.0366 -0.7532 -0.4657
25870SOL    HW184725   8.813   8.290  12.885  1.0100 -1.7421 -1.5057
25870SOL    HW284726   8.921   8.370  12.815  0.1257  0.8417 -0.0663
25871SOL     OW84727  11.759  11.551   1.449 -0.2978 -0.3196  0.3979
25871SOL    HW184728  11.697  11.486   1.483  0.9910 -1.3652  0.8957
25871SOL    HW284729  11.759  11.621   1.515  0.0639 -0.9830  1.1256
25872SOL     OW84730   9.202   2.833   9.915 -0.2016 -0.7959  0.4750
25872SOL    HW184731   9.292   2.866   9.909 -0.1476 -1.1622 -1.2539
25872SOL    HW284732   9.148   2.909   9.891 -0.1030 -1.6334 -2.8849
25873SOL     OW84733   0.853   1.119   9.221 -0.1984 -0.2067 -0.6052
25873SOL    HW184734   0.947   1.116   9.237 -0.1381  1.0455 -0.6925
25873SOL    HW284735   0.821   1.035   9.255  1.0545 -1.0426 -1.3660
25874SOL     OW84736  11.465   9.195   6.250  0.3928  0.0334  0.1997
25874SOL    HW184737  11.447   9.286   6.229 -0.8368  0.0938  1.4000
25874SOL    HW284738  11.555   9.181   6.220  0.5184  1.5617 -0.2120
25875SOL     OW84739   5.925   4.586   4.174 -0.1022  0.2397 -0.0013
25875SOL    HW184740   5.836   4.555   4.158  0.0884 -0.4866  0.2760
25875SOL    HW284741   5.935   4.581   4.269 -0.2013  1.5787  0.0877
25876SOL     OW84742  11.769   9.897   8.160  0.2940  0.6261 -0.0700
25876SOL    HW184743  11.833   9.929   8.095  0.9018  0.1318  0.2715
25876SOL    HW284744  11.766   9.966   8.226  2.6970 -0.5398  1.4170
25877SOL     OW84745   6.411   4.723   5.287 -0.0536  0.2011 -0.3614
25877SOL    HW184746   6.472   4.677   5.230 -0.1264 -0.2861 -0.0531
25877SOL    HW284747   6.407   4.670   5.366  0.7130  1.3098  0.4627
25878SOL     OW84748   6.528   7.701   5.468 -0.5150  0.0530  0.3731
25878SOL    HW184749   6.483   7.728   5.549 -0.8620  0.8613 -0.0797
25878SOL    HW284750   6.460   7.704   5.401  0.4009  2.4860 -0.5777
25879SOL     OW84751  11.431   6.412   2.359 -0.5135 -0.0393 -0.4664
25879SOL    HW184752  11.425   6.415   2.454 -1.5426  0.4516 -0.5453
25879SOL    HW284753  11.524   6.394   2.342 -0.3549 -0.3124  0.6241
25880SOL     OW84754   2.743   0.032   1.098  0.6703  0.1433 -0.3070
25880SOL    HW184755   2.688   0.037   1.176  0.5122 -0.0930 -0.4053
25880SOL    HW284756   2.779   0.121   1.089 -0.1614  0.4696 -0.5828
25881SOL     OW84757  11.923   2.635   0.758  0.1924  0.2303  0.3267
25881SOL    HW184758  11.900   2.613   0.848  1.7050 -1.5207  0.3526
25881SOL    HW284759  12.000   2.692   0.766  0.2564  0.1710  0.1440
25882SOL     OW84760  12.660   9.326  12.549 -0.0018 -0.6662 -0.4801
25882SOL    HW184761  12.710   9.258  12.503  0.9826  0.0639 -0.5117
25882SOL    HW284762  12.722   9.364  12.610  0.0810  1.6064 -1.8885
25883SOL     OW84763   2.938   4.701   1.899 -0.4082  0.8282  0.0073
25883SOL    HW184764   2.845   4.679   1.897 -0.8340  2.4233  0.7113
25883SOL    HW284765   2.948   4.766   1.829 -0.5139  2.9617  1.8624
25884SOL     OW84766   0.967   7.527   1.099  0.4721  0.4705  0.3464
25884SOL    HW184767   1.059   7.553   1.096  1.0834 -1.4895  0.7249
25884SOL    HW284768   0.924   7.586   1.037  2.5002 -0.4903 -2.1636
25885SOL     OW84769   8.854   7.675   2.785 -0.0337  0.2648 -0.2103
25885SOL    HW184770   8.930   7.618   2.786 -1.5789 -1.9160  1.1616
25885SOL    HW284771   8.869   7.738   2.856  0.8945  0.4763 -0.5873
25886SOL     OW84772   4.484   2.919   7.870  0.1753  0.7799 -0.1664
25886SOL    HW184773   4.537   2.878   7.940  1.1262 -1.4079 -2.0238
25886SOL    HW284774   4.549   2.956   7.811 -0.6134  2.3019 -0.1107
25887SOL     OW84775  11.371   0.109   4.158 -0.4175 -0.3370  0.6231
25887SOL    HW184776  11.288   0.074   4.190 -0.3978 -0.0021  1.0514
25887SOL    HW284777  11.437   0.064   4.210 -0.2902 -1.0595 -0.1411
25888SOL     OW84778   9.360  12.820   6.928  0.1999  0.1677  0.1619
25888SOL    HW184779   9.411  12.799   7.006  1.7389  0.3936 -0.7433
25888SOL    HW284780   9.375  12.914   6.915  1.6294 -0.2474 -1.5233
25889SOL     OW84781   7.407   5.921  10.536  0.0027  0.0616  0.0521
25889SOL    HW184782   7.365   5.897  10.454  1.7698 -1.1728 -0.5361
25889SOL    HW284783   7.342   5.900  10.603 -1.6564  1.5647 -1.0104
25890SOL     OW84784   3.700   6.647   4.503 -0.0365  0.0076  0.3587
25890SOL    HW184785   3.695   6.584   4.431 -1.3008  0.2528  0.2110
25890SOL    HW284786   3.669   6.599   4.580 -0.3437  0.2465  0.3859
25891SOL     OW84787   0.743   3.415  11.013 -0.0022 -0.3578 -0.2006
25891SOL    HW184788   0.790   3.340  11.049  1.1517  0.5246  0.2090
25891SOL    HW284789   0.767   3.416  10.920 -0.9406 -1.1426 -0.4696
25892SOL     OW84790   4.607   0.979  12.831  0.0701  0.3854  0.8244
25892SOL    HW184791   4.635   0.955  12.743 -0.4790  2.9236 -0.1134
25892SOL    HW284792   4.631   0.903  12.885 -1.2176 -2.0380 -1.7442
25893SOL     OW84793  10.012  10.409   6.500  0.4113 -0.5333  0.4095
25893SOL    HW184794  10.084  10.439   6.555  0.2604  0.3661  0.1422
25893SOL    HW284795   9.982  10.328   6.541  0.9278 -0.3902  1.0867
25894SOL     OW84796   2.790  11.469   1.314 -0.4858 -0.2110 -0.2751
25894SOL    HW184797   2.725  11.480   1.383 -1.1491  0.0586 -0.9349
25894SOL    HW284798   2.811  11.559   1.287  2.3286 -0.0625  1.8805
25895SOL     OW84799   7.580  12.160   6.608  0.1998  0.5296 -0.0628
25895SOL    HW184800   7.609  12.251   6.607  0.3827  0.5163  1.6110
25895SOL    HW284801   7.609  12.126   6.692 -1.3761 -0.5786  0.0842
25896SOL     OW84802   0.943   9.686   3.109  0.2301  0.0373  0.1363
25896SOL    HW184803   0.888   9.633   3.166 -0.1198  0.1853 -0.0602
25896SOL    HW284804   0.919   9.659   3.020 -0.4726  1.0286  0.0109
25897SOL     OW84805  11.329   5.313   2.839  0.1127 -0.0885 -0.3743
25897SOL    HW184806  11.379   5.357   2.908 -0.9693 -1.0429  1.0664
25897SOL    HW284807  11.332   5.373   2.765 -0.7555  2.1320  1.2936
25898SOL     OW84808   7.049   8.891  12.650  0.4289  0.0373  0.3441
25898SOL    HW184809   7.085   8.863  12.567  0.3795  0.2853  0.2365
25898SOL    HW284810   7.002   8.972  12.630 -0.5551 -0.5071  0.3996
25899SOL     OW84811   5.558   9.602   6.830 -0.0653  0.5210  0.6248
25899SOL    HW184812   5.617   9.532   6.800  1.0763  1.7422 -0.0947
25899SOL    HW284813   5.529   9.646   6.750 -1.7727  0.1283  0.9898
25900SOL     OW84814  11.689   8.170   5.781 -0.2065 -0.1498 -0.4628
25900SOL    HW184815  11.649   8.090   5.814 -1.7652  0.6704 -0.2931
25900SOL    HW284816  11.674   8.167   5.687 -0.4344  0.0231 -0.4333
25901SOL     OW84817  10.965   2.875  11.732  0.1473  0.2622  0.3447
25901SOL    HW184818  11.044   2.834  11.697 -0.0735 -1.1056  1.3704
25901SOL    HW284819  10.900   2.804  11.733 -0.2641  0.6226  2.1385
25902SOL     OW84820   4.580   3.008   4.582 -0.7441  0.2266 -0.0380
25902SOL    HW184821   4.596   2.918   4.612  0.4969  0.8055  1.1602
25902SOL    HW284822   4.489   3.008   4.553 -0.8997 -1.3083  0.3842
25903SOL     OW84823  12.572  10.493  11.975 -0.2390  0.2299 -0.1681
25903SOL    HW184824  12.606  10.582  11.970 -1.5240  0.8460  1.5486
25903SOL    HW284825  12.591  10.465  12.064  0.5713 -1.4403 -0.8046
25904SOL     OW84826   9.323   6.546   7.653 -0.4360 -0.1780  0.0944
25904SOL    HW184827   9.314   6.451   7.650 -0.9900 -0.1214 -0.1625
25904SOL    HW284828   9.418   6.561   7.659 -0.2839 -0.7268 -0.7102
25905SOL     OW84829   9.979   3.746  12.462  0.0893  0.5291  0.2847
25905SOL    HW184830   9.912   3.724  12.398 -0.4277 -2.7822  1.7708
25905SOL    HW284831  10.058   3.762  12.410 -0.6566 -0.5752 -1.2574
25906SOL     OW84832  10.580   7.960   1.362  0.0689 -0.5723  0.1065
25906SOL    HW184833  10.640   8.034   1.362 -1.5016  0.7715  1.2109
25906SOL    HW284834  10.622   7.896   1.420  1.1760 -0.3509 -0.4163
25907SOL     OW84835   5.591   5.290  11.596 -0.2141 -0.7092  0.3944
25907SOL    HW184836   5.682   5.267  11.617 -0.0345 -0.7663 -0.4138
25907SOL    HW284837   5.596   5.327  11.507 -1.1266 -1.7284 -0.0942
25908SOL     OW84838  12.928   9.998  12.306 -0.2324  0.4381  0.6124
25908SOL    HW184839  12.966  10.082  12.333 -1.1359  1.2134 -0.4406
25908SOL    HW284840  12.937   9.942  12.383  3.4085  0.3869  0.3152
25909SOL     OW84841   6.397  10.754  12.637 -0.3400 -0.2777 -0.3042
25909SOL    HW184842   6.438  10.673  12.607 -2.8823 -1.9781  0.4288
25909SOL    HW284843   6.377  10.803  12.557  1.3618 -0.2649 -0.7465
25910SOL     OW84844   1.830   3.085   1.768  0.2532  0.1462  0.0447
25910SOL    HW184845   1.853   3.089   1.861  0.1885 -0.5062  0.0925
25910SOL    HW284846   1.896   3.027   1.730 -0.2256 -0.2666 -0.1589
25911SOL     OW84847   3.830  10.903   3.099 -0.0813  0.1410 -0.0775
25911SOL    HW184848   3.781  10.879   3.177 -0.4888 -1.3924 -0.7768
25911SOL    HW284849   3.916  10.863   3.110  0.9347  2.3867  0.9010
25912SOL     OW84850   8.613  11.476   9.082 -0.3403 -0.1505  0.2955
25912SOL    HW184851   8.682  11.463   9.016 -0.3679  1.7230 -0.1717
25912SOL    HW284852   8.646  11.546   9.137 -1.4812  0.1434  0.6322
25913SOL     OW84853   2.009   1.643   8.481 -0.1947  0.0859 -0.3293
25913SOL    HW184854   1.978   1.706   8.416 -1.1115  0.8802  0.8344
25913SOL    HW284855   1.941   1.576   8.484 -2.0912  1.9218  2.3561
25914SOL     OW84856   8.926   7.770   6.947  0.9181  0.1756 -0.1905
25914SOL    HW184857   8.860   7.709   6.981  2.4970 -1.8535 -0.5376
25914SOL    HW284858   8.900   7.855   6.981 -1.2629 -0.7138  0.5597
25915SOL     OW84859   0.465  11.984   1.396 -0.1382 -0.1888  0.2781
25915SOL    HW184860   0.404  12.039   1.444  0.1995 -0.0169  0.5122
25915SOL    HW284861   0.410  11.937   1.333 -0.4316  0.3789  0.1025
25916SOL     OW84862  11.267   1.496  12.449  0.1725 -0.5090  0.5798
25916SOL    HW184863  11.264   1.536  12.536 -0.1299  1.9015 -0.4590
25916SOL    HW284864  11.178   1.466  12.432 -0.1632  0.5390  0.4565
25917SOL     OW84865   0.179   3.952   0.982 -0.2228  0.2709  0.1283
25917SOL    HW184866   0.150   4.024   0.926  1.0049 -0.8132 -2.0181
25917SOL    HW284867   0.255   3.987   1.028 -0.5771  0.8256  0.3057
25918SOL     OW84868   0.613   5.126   1.000 -0.3585  0.1980 -0.0121
25918SOL    HW184869   0.569   5.106   0.918  0.9176 -0.0101 -0.6677
25918SOL    HW284870   0.559   5.084   1.067 -0.2930 -1.4055 -0.9232
25919SOL     OW84871   4.969   6.797   5.003  0.0908 -0.4267  0.1345
25919SOL    HW184872   4.886   6.764   4.969 -0.1161  0.0775  0.1338
25919SOL    HW284873   5.031   6.726   4.989 -0.0972 -0.4138 -0.8771
25920SOL     OW84874   6.842   0.193   3.239  0.1879 -0.2632 -0.1935
25920SOL    HW184875   6.822   0.249   3.164 -2.3219  1.0730  1.3716
25920SOL    HW284876   6.761   0.146   3.257  0.9785 -1.1698  1.1997
25921SOL     OW84877   2.137   6.126   2.434  0.3170 -0.0640 -0.0273
25921SOL    HW184878   2.163   6.190   2.367 -0.1323  0.0426 -0.1001
25921SOL    HW284879   2.050   6.097   2.407  0.2864 -0.2890  0.3132
25922SOL     OW84880   9.474  11.839   5.864 -0.4131  0.1666 -0.4057
25922SOL    HW184881   9.468  11.896   5.788  0.3581  0.0719 -0.5526
25922SOL    HW284882   9.448  11.752   5.831 -0.4575  0.2031 -0.4673
25923SOL     OW84883  10.428  11.153   6.867 -0.3203 -0.2912 -0.4904
25923SOL    HW184884  10.511  11.111   6.844  0.8144 -0.0010  2.7035
25923SOL    HW284885  10.446  11.247   6.865 -0.5909 -0.2189  0.1180
25924SOL     OW84886  12.308   2.775   8.851  0.4098 -0.9894 -0.1776
25924SOL    HW184887  12.223   2.741   8.821  0.0371 -1.8613  1.7404
25924SOL    HW284888  12.319   2.738   8.939  2.4641 -0.3176 -0.1103
25925SOL     OW84889   1.104  10.969   6.812  0.1606  0.2590  0.3289
25925SOL    HW184890   1.099  10.890   6.867  0.2925  0.8579  1.2205
25925SOL    HW284891   1.039  11.028   6.849  0.0851  0.5900 -0.3158
25926SOL     OW84892   2.041  12.555   0.433  0.2374  0.0498  0.0959
25926SOL    HW184893   1.954  12.586   0.409  0.4375 -0.4466 -1.3722
25926SOL    HW284894   2.089  12.634   0.458  0.4545  0.8779 -2.6510
25927SOL     OW84895   7.714   5.742  12.737 -0.0352 -0.0972  0.4381
25927SOL    HW184896   7.740   5.834  12.737 -0.7295  0.1630 -2.0269
25927SOL    HW284897   7.710   5.719  12.830  0.9027  2.1216  1.1025
25928SOL     OW84898   9.162   7.402   6.053 -0.4016 -0.0524  0.3386
25928SOL    HW184899   9.226   7.451   6.104 -0.9874  1.7949 -0.6047
25928SOL    HW284900   9.175   7.311   6.079  2.8391  0.1645 -0.0776
25929SOL     OW84901   0.156  11.534   4.050  0.5864  0.3190  0.3049
25929SOL    HW184902   0.187  11.610   4.099 -0.3113  0.1898  1.1001
25929SOL    HW284903   0.172  11.556   3.958  1.2076  1.0584  0.5796
25930SOL     OW84904  11.161   6.543   8.915 -0.4215 -0.6544 -0.3543
25930SOL    HW184905  11.212   6.574   8.840  1.1155 -1.7472  0.1934
25930SOL    HW284906  11.219   6.555   8.990 -1.4272 -0.8614  0.4795
25931SOL     OW84907  12.137   6.770   4.612  0.0318  0.4776 -0.3206
25931SOL    HW184908  12.066   6.829   4.587  0.1021  0.4168 -0.6776
25931SOL    HW284909  12.192   6.764   4.533 -1.2227 -1.8882 -1.1364
25932SOL     OW84910   8.671   6.315   0.933  0.0991 -0.0683  0.5192
25932SOL    HW184911   8.587   6.268   0.936 -1.1840  2.0099 -0.5980
25932SOL    HW284912   8.713   6.281   0.854  0.3095 -1.0921  1.0584
25933SOL     OW84913   9.439   9.497  12.349  0.1237 -0.5772  0.3177
25933SOL    HW184914   9.489   9.495  12.268 -0.2639  0.8694  0.0090
25933SOL    HW284915   9.455   9.585  12.385 -3.0588  0.4581 -0.4326
25934SOL     OW84916  11.519   4.438   1.505  0.0678  0.1917  0.0675
25934SOL    HW184917  11.537   4.529   1.526  0.7319  0.3400 -1.0211
25934SOL    HW284918  11.582   4.417   1.435 -0.3166 -0.9861  0.0486
25935SOL     OW84919   8.759  12.357   3.767  0.1102 -0.4240 -0.0063
25935SOL    HW184920   8.669  12.332   3.745  0.1892  0.4327 -1.4448
25935SOL    HW284921   8.787  12.293   3.832 -1.1213 -1.4542 -0.4578
25936SOL     OW84922   4.098   2.410  10.876  0.1198 -0.7691 -0.3133
25936SOL    HW184923   4.164   2.456  10.927  0.4979  0.5270 -1.8914
25936SOL    HW284924   4.147   2.354  10.817 -0.2535 -1.0165 -0.3955
25937SOL     OW84925   1.649   0.004  11.517 -0.0613 -0.2219 -0.7850
25937SOL    HW184926   1.593   0.080  11.499  1.1563  0.3082 -2.5259
25937SOL    HW284927   1.705   0.032  11.590 -0.9515 -0.1976 -0.0874
25938SOL     OW84928   9.993   5.523   5.352 -0.0269  0.0871 -0.3329
25938SOL    HW184929  10.070   5.509   5.297 -0.0339  0.3503 -0.4105
25938SOL    HW284930   9.925   5.550   5.290  0.2450  1.4239 -0.0616
25939SOL     OW84931  11.915   0.680  10.889  0.5184 -0.3883 -0.2978
25939SOL    HW184932  12.008   0.660  10.890  0.1022 -2.5536 -0.9356
25939SOL    HW284933  11.897   0.716  10.976  1.9021 -0.0759 -0.1222
25940SOL     OW84934   6.676   2.541   2.687  0.2189  0.0529 -0.6963
25940SOL    HW184935   6.608   2.474   2.693 -0.3280  0.6110 -0.5015
25940SOL    HW284936   6.746   2.510   2.744  0.3067 -0.7340 -1.2253
25941SOL     OW84937   0.143   9.902  10.110 -0.2927  0.7935  0.3958
25941SOL    HW184938   0.153   9.818  10.153  1.0751  1.3058  1.1484
25941SOL    HW284939   0.052   9.904  10.080 -0.3741 -0.8727  0.4885
25942SOL     OW84940   1.383  11.670   1.321 -0.2002  0.4329  0.5935
25942SOL    HW184941   1.352  11.581   1.339  1.6128 -0.8250 -2.0087
25942SOL    HW284942   1.314  11.709   1.268 -0.9479  0.6129  1.6485
25943SOL     OW84943   9.034  11.145   6.528 -0.5005  0.2564 -0.0058
25943SOL    HW184944   8.958  11.196   6.556 -0.5296  0.4608 -0.4408
25943SOL    HW284945   8.997  11.076   6.472 -0.2851  1.0137 -1.1251
25944SOL     OW84946   3.889   0.559   1.182 -0.4267  0.3358  0.2060
25944SOL    HW184947   3.856   0.639   1.222 -0.1749 -0.2841  1.7293
25944SOL    HW284948   3.943   0.519   1.250 -0.2952 -0.9693 -0.6311
25945SOL     OW84949  10.379  12.547   2.445 -0.2357 -0.1439  0.2093
25945SOL    HW184950  10.361  12.551   2.351  0.3321  0.7892  0.1345
25945SOL    HW284951  10.313  12.605   2.484 -0.3069 -0.3278  0.3630
25946SOL     OW84952  11.464   8.339   5.488  0.3626  0.0311 -0.9679
25946SOL    HW184953  11.538   8.395   5.467 -1.2827  1.9300 -2.1000
25946SOL    HW284954  11.502   8.252   5.499  3.0142  1.2771  0.6998
25947SOL     OW84955   9.288  11.316  11.962 -0.7466 -0.1891  0.0107
25947SOL    HW184956   9.256  11.300  11.874  0.7437 -2.2329 -0.2415
25947SOL    HW284957   9.378  11.348  11.950 -0.7697  0.2070  0.7851
25948SOL     OW84958   7.314  10.175   7.814 -0.9398 -0.2814 -0.3955
25948SOL    HW184959   7.250  10.188   7.745 -0.5658  0.2805 -0.6450
25948SOL    HW284960   7.359  10.259   7.821 -1.2150 -0.2139  0.7831
25949SOL     OW84961  12.738   7.518  10.368 -0.8453  0.4973 -0.6462
25949SOL    HW184962  12.703   7.434  10.335  0.6244 -1.0625  1.5105
25949SOL    HW284963  12.673   7.547  10.432 -1.1767  0.8406 -1.1306
25950SOL     OW84964   7.982   0.178   5.665 -1.3079 -0.4297  0.0802
25950SOL    HW184965   7.918   0.133   5.719 -2.5156  0.0832 -0.8698
25950SOL    HW284966   7.962   0.151   5.576  0.5031 -1.0898 -0.1746
25951SOL     OW84967   4.053   6.973   9.753 -0.3037 -0.2296 -0.0551
25951SOL    HW184968   4.120   7.036   9.729 -1.4448  0.8751 -0.4206
25951SOL    HW284969   4.078   6.893   9.706  1.8930 -0.5068  1.4605
25952SOL     OW84970   8.188   6.450   4.384 -0.0407  0.1613  0.2519
25952SOL    HW184971   8.152   6.460   4.472 -1.1587  0.9584 -0.2793
25952SOL    HW284972   8.206   6.356   4.376 -1.5009 -0.1905  0.7415
25953SOL     OW84973   1.919   6.975   7.421  0.0267 -0.2209  0.1422
25953SOL    HW184974   2.007   6.937   7.424  0.0557 -0.1754 -0.0775
25953SOL    HW284975   1.895   6.987   7.512  1.4053  2.4360  0.2674
25954SOL     OW84976  12.484   9.630   0.950 -0.6453 -0.0211 -0.1728
25954SOL    HW184977  12.422   9.653   0.880 -0.0897 -1.4011 -1.1677
25954SOL    HW284978  12.564   9.678   0.927 -1.1391  1.3116  0.7975
25955SOL     OW84979   0.258   2.816   1.544 -0.3394 -0.4944 -0.1857
25955SOL    HW184980   0.226   2.851   1.627  1.2568 -2.0392  1.1597
25955SOL    HW284981   0.206   2.861   1.477 -0.9732  1.5610  1.5787
25956SOL     OW84982   2.687   0.906   8.599 -0.4367 -0.2306 -0.6462
25956SOL    HW184983   2.724   0.832   8.646  0.0880 -1.0519 -2.2570
25956SOL    HW284984   2.629   0.867   8.533 -0.3807  0.7927 -1.3344
25957SOL     OW84985   5.103   5.322   6.154  0.2968 -0.3784  0.0557
25957SOL    HW184986   5.054   5.404   6.165  1.5935  0.3335  0.7886
25957SOL    HW284987   5.175   5.345   6.095  0.2085 -1.2065 -0.3832
25958SOL     OW84988   7.018   3.991   1.517 -0.1746 -0.2212  0.3005
25958SOL    HW184989   6.935   3.960   1.481 -0.0202 -0.6883  0.3476
25958SOL    HW284990   7.073   3.913   1.524 -0.1916 -0.1361  1.5417
25959SOL     OW84991   4.537   9.535   7.924  0.3267  0.3241  0.2384
25959SOL    HW184992   4.572   9.468   7.983 -0.0620  0.7497  0.9641
25959SOL    HW284993   4.525   9.489   7.840  1.6705 -0.0785  0.2358
25960SOL     OW84994   5.676   7.607  10.966 -0.0301  0.0152 -0.2392
25960SOL    HW184995   5.689   7.518  10.999 -0.7863  1.0996  3.4129
25960SOL    HW284996   5.581   7.619  10.967  0.1005  1.1109  0.1116
25961SOL     OW84997   1.456  11.522   5.326  0.6096  0.1066 -0.1947
25961SOL    HW184998   1.415  11.480   5.401 -1.4181  1.1135 -0.6619
25961SOL    HW284999   1.438  11.464   5.252 -1.5210  1.2635 -0.6944
25962SOL     OW85000  11.902  12.192   7.571 -0.1050  0.1218 -0.1630
25962SOL    HW185001  11.973  12.159   7.516 -0.9034  0.4862 -1.4637
25962SOL    HW285002  11.882  12.120   7.631  0.9685 -0.1866 -0.1516
25963SOL     OW85003   4.745   2.511   6.244  0.5168 -0.3266  0.1043
25963SOL    HW185004   4.698   2.531   6.326  1.0786 -0.0521  0.3636
25963SOL    HW285005   4.807   2.443   6.268  0.7139 -0.2137 -0.0835
25964SOL     OW85006  12.704   9.876   1.048 -0.1671  0.2309  0.3644
25964SOL    HW185007  12.676   9.955   1.002 -3.3026 -0.8335  0.1629
25964SOL    HW285008  12.799   9.873   1.036  0.1876  4.2195  0.9232
25965SOL     OW85009   3.736  12.440  11.112 -0.2367 -0.1686 -0.4187
25965SOL    HW185010   3.682  12.510  11.075  0.1759 -0.0776 -0.8574
25965SOL    HW285011   3.817  12.443  11.061  0.6897  0.4888  1.0024
25966SOL     OW85012  12.415   4.632   9.825 -0.4432 -0.0717  0.4925
25966SOL    HW185013  12.434   4.561   9.887 -0.2760  1.0495  1.7756
25966SOL    HW285014  12.463   4.608   9.746  1.2876 -0.3968  1.5816
25967SOL     OW85015   5.118  12.687   9.998  0.3095 -0.0591  0.3510
25967SOL    HW185016   5.179  12.626  10.039 -0.8121 -0.4970  1.4300
25967SOL    HW285017   5.102  12.754  10.065 -0.1776  0.2003 -0.0171
25968SOL     OW85018   9.976   2.820   0.493  0.3102 -0.2217 -0.1209
25968SOL    HW185019  10.009   2.786   0.409 -0.7725 -0.8869 -0.2942
25968SOL    HW285020   9.926   2.748   0.530 -0.4345  0.5511  0.4136
25969SOL     OW85021   6.991   3.550   8.682 -0.9276 -0.2051  0.6043
25969SOL    HW185022   7.004   3.640   8.654  0.7385  0.1646  2.4124
25969SOL    HW285023   6.954   3.506   8.605 -0.4037  1.6695 -0.7765
25970SOL     OW85024   5.768  12.523   4.556 -0.0918  0.3262 -0.4234
25970SOL    HW185025   5.770  12.428   4.568 -0.8403  0.4481  0.9061
25970SOL    HW285026   5.793  12.557   4.642 -0.2026  1.3353 -0.7869
25971SOL     OW85027   1.638   8.839   8.707 -0.3163 -1.2582  0.4666
25971SOL    HW185028   1.687   8.765   8.671  0.8304 -0.2640 -0.0910
25971SOL    HW285029   1.570   8.855   8.641 -0.5793 -1.8086  0.5946
25972SOL     OW85030  12.620  11.018  10.130 -0.7695  0.0102  0.3111
25972SOL    HW185031  12.536  10.989  10.096 -0.6655 -0.9114  0.8155
25972SOL    HW285032  12.628  10.975  10.215  0.7920 -0.9469 -0.2832
25973SOL     OW85033  10.731  10.789   2.803 -0.2621 -0.0573 -0.0677
25973SOL    HW185034  10.681  10.869   2.822 -1.2132 -0.5632 -0.3958
25973SOL    HW285035  10.822  10.819   2.799 -0.6304  1.0683 -0.4773
25974SOL     OW85036   5.164  11.134   5.937 -0.5340 -0.1922  0.2439
25974SOL    HW185037   5.144  11.040   5.945  0.3376 -0.2671  1.8912
25974SOL    HW285038   5.243  11.137   5.883 -0.4721 -0.4216  0.3209
25975SOL     OW85039   7.625  12.264   4.165  0.5934 -0.2126 -0.0337
25975SOL    HW185040   7.624  12.297   4.255  0.8884 -1.3847  0.4074
25975SOL    HW285041   7.714  12.282   4.134  0.9337 -1.1078  0.4065
25976SOL     OW85042   7.787  11.240  12.733 -0.1453  0.1237 -0.9036
25976SOL    HW185043   7.787  11.252  12.828  2.7224 -1.6007 -0.5645
25976SOL    HW285044   7.739  11.316  12.699 -4.5507 -0.9834  1.9492
25977SOL     OW85045  11.832   2.234   1.559  0.3135  0.3507 -0.1666
25977SOL    HW185046  11.914   2.265   1.598 -0.5810  0.8350  1.4204
25977SOL    HW285047  11.774   2.218   1.633 -0.8517 -0.5541 -1.2184
25978SOL     OW85048   1.577  12.469   5.559 -0.8606  0.0204 -0.0984
25978SOL    HW185049   1.636  12.406   5.517  0.5639  1.4196 -0.3070
25978SOL    HW285050   1.496  12.463   5.509  0.3761  0.7533 -2.3520
25979SOL     OW85051   8.239   7.211   9.054  0.3979 -0.0962  0.3147
25979SOL    HW185052   8.231   7.269   9.130  0.2140  1.7606 -1.0609
25979SOL    HW285053   8.333   7.194   9.047  0.5844  0.9371  0.1183
25980SOL     OW85054   8.907   0.152   3.782 -0.1742 -0.0431  0.4208
25980SOL    HW185055   8.970   0.207   3.829 -0.7455  1.2664 -0.3009
25980SOL    HW285056   8.937   0.062   3.798  1.8851  0.5381  0.1035
25981SOL     OW85057  11.940  10.378   5.261  0.1576  0.1923  0.1214
25981SOL    HW185058  11.942  10.288   5.294 -0.3842 -0.2507 -1.0040
25981SOL    HW285059  12.022  10.387   5.213 -0.4899 -0.2575 -1.1177
25982SOL     OW85060  10.983  12.074   2.961  0.1812 -0.3776 -0.2527
25982SOL    HW185061  10.897  12.067   3.001  0.4509  2.3129  1.0393
25982SOL    HW285062  10.971  12.133   2.887  0.6952 -0.9996 -0.8488
25983SOL     OW85063   2.907   5.845   1.729  0.1546 -0.0747  0.1535
25983SOL    HW185064   2.962   5.843   1.808  0.2711 -0.7610  0.0622
25983SOL    HW285065   2.875   5.756   1.720 -1.4381  0.4285  0.5161
25984SOL     OW85066  12.582   3.973   2.002 -0.2552  0.5629  0.1544
25984SOL    HW185067  12.553   3.926   1.924  0.1181  1.0937 -0.3142
25984SOL    HW285068  12.660   4.021   1.974  0.7298 -0.3449  1.2222
25985SOL     OW85069   3.887   4.740   4.459  0.4024  0.4715 -0.4618
25985SOL    HW185070   3.860   4.769   4.546 -1.2354 -0.9663 -0.4201
25985SOL    HW285071   3.947   4.667   4.476  1.7404  1.4988 -0.5773
25986SOL     OW85072   2.513   0.149   5.408  0.3044 -0.1369 -0.0031
25986SOL    HW185073   2.534   0.239   5.384  1.0810  0.0681  1.3165
25986SOL    HW285074   2.506   0.151   5.504  1.5180 -1.6889  0.1660
25987SOL     OW85075   9.768   1.171   9.304  0.6444  0.2879 -0.2137
25987SOL    HW185076   9.748   1.080   9.325 -1.6545  1.2404  2.2567
25987SOL    HW285077   9.699   1.197   9.243  1.0672  0.5061 -0.6034
25988SOL     OW85078   9.835   4.288   4.650 -0.0137 -0.3042  0.1922
25988SOL    HW185079   9.814   4.318   4.739  0.7330  0.6907  0.0552
25988SOL    HW285080   9.865   4.367   4.605  1.1424 -1.0918 -0.4742
25989SOL     OW85081   9.629  11.650  12.111  0.2748  0.2745  0.2784
25989SOL    HW185082   9.660  11.632  12.200  0.4276 -1.0533 -0.0258
25989SOL    HW285083   9.534  11.651  12.117  0.2836  0.0304  0.4196
25990SOL     OW85084  12.824   6.046  10.266  0.4352  0.2572 -0.0801
25990SOL    HW185085  12.862   6.105  10.201 -0.1507 -1.2415 -1.8540
25990SOL    HW285086  12.743   6.015  10.227  0.1423 -0.8500  1.2886
25991SOL     OW85087   0.473   2.387   1.749 -0.1549  0.7803 -0.2911
25991SOL    HW185088   0.442   2.315   1.805 -0.1192  0.5550 -0.5636
25991SOL    HW285089   0.429   2.372   1.665 -1.9110  2.3138  0.2787
25992SOL     OW85090  12.302   8.369   4.205  0.5888 -0.3905  0.0050
25992SOL    HW185091  12.367   8.299   4.206 -1.7637 -2.7302  0.9240
25992SOL    HW285092  12.347   8.444   4.244  2.4243 -2.2431  1.7295
25993SOL     OW85093   6.160   6.100  10.871  0.1950 -0.1578 -0.0651
25993SOL    HW185094   6.244   6.082  10.914  0.7080  0.1435 -0.9026
25993SOL    HW285095   6.178   6.178  10.818 -0.8910  0.4911  0.4949
25994SOL     OW85096   1.304  10.071   9.076 -0.0701 -0.3590  0.3720
25994SOL    HW185097   1.364  10.004   9.042  1.6518  0.0060  2.4852
25994SOL    HW285098   1.354  10.116   9.144 -2.1199  1.2885  0.8940
25995SOL     OW85099   3.856   9.569  12.836  0.1726  0.4264  0.1384
25995SOL    HW185100   3.797   9.553  12.762  0.9231 -0.9709 -0.2168
25995SOL    HW285101   3.907   9.645  12.810 -0.0462  0.3655 -0.4955
25996SOL     OW85102   6.129   5.310   0.371 -0.8910  0.2963 -1.0383
25996SOL    HW185103   6.051   5.254   0.372 -1.1604  0.6611 -1.1529
25996SOL    HW285104   6.201   5.253   0.397 -1.1872 -0.0641 -1.0090
25997SOL     OW85105  12.055   0.928  11.038  0.1789  0.1483 -0.1484
25997SOL    HW185106  11.967   0.911  11.069 -0.2765  2.0722 -0.3132
25997SOL    HW285107  12.101   0.844  11.051 -2.1607 -1.5565 -1.9718
25998SOL     OW85108   8.985   4.461   3.464 -0.0589 -0.1912  0.2369
25998SOL    HW185109   9.036   4.428   3.391 -0.9742  0.6367 -0.8037
25998SOL    HW285110   8.996   4.556   3.461  1.2156 -0.2053  2.1976
25999SOL     OW85111   5.525  12.179   3.177  0.1213 -0.3154  0.5625
25999SOL    HW185112   5.511  12.263   3.222  0.6736  0.3321 -0.4320
25999SOL    HW285113   5.439  12.154   3.144  0.3824  1.3173 -1.5727
26000SOL     OW85114   6.165   9.827   2.537  0.3630 -0.1363  0.2957
26000SOL    HW185115   6.203   9.800   2.620 -0.1537 -0.2191  0.5072
26000SOL    HW285116   6.119   9.749   2.505  2.0214 -0.6818 -0.9405
26001SOL     OW85117   3.453  12.126  12.949 -0.0885 -0.2936 -0.5560
26001SOL    HW185118   3.420  12.042  12.982  0.9631 -0.2950  0.5594
26001SOL    HW285119   3.505  12.161  13.021 -1.1248  1.6958 -0.6912
26002SOL     OW85120   7.279   7.960  10.932 -0.4314  0.3182 -0.3400
26002SOL    HW185121   7.285   7.935  10.840  0.4006 -0.8543  0.0188
26002SOL    HW285122   7.264   7.878  10.979  0.2816  0.7479  0.6794
26003SOL     OW85123   0.797   8.139   9.385  0.0778 -0.6259  0.4216
26003SOL    HW185124   0.708   8.136   9.420 -0.0324 -0.1090  0.1891
26003SOL    HW285125   0.850   8.170   9.459 -0.1387  0.3497  0.1899
26004SOL     OW85126  12.887   8.185  11.071  0.5824  0.4926 -0.3202
26004SOL    HW185127  12.924   8.255  11.017  0.7603 -0.0580 -0.9291
26004SOL    HW285128  12.846   8.230  11.145  1.8787  1.1745  0.0278
26005SOL     OW85129  11.240   5.440   9.389 -0.0738  0.0069 -0.1133
26005SOL    HW185130  11.334   5.438   9.374  0.1677  1.8305  0.8680
26005SOL    HW285131  11.227   5.398   9.474 -0.2651 -0.9662 -0.6066
26006SOL     OW85132   8.430   3.692   6.369  0.0473 -0.5548 -0.6119
26006SOL    HW185133   8.475   3.610   6.352  0.0513 -0.3991 -1.3982
26006SOL    HW285134   8.386   3.713   6.287  0.4468  0.4767 -0.5796
26007SOL     OW85135   7.704   6.706   8.847 -0.0926 -0.2181 -0.1138
26007SOL    HW185136   7.774   6.645   8.821 -0.2108 -0.1660 -0.5662
26007SOL    HW285137   7.646   6.653   8.901 -0.1814 -0.5072 -0.4812
26008SOL     OW85138   9.397   7.106   5.137 -0.4992 -0.5319  0.3019
26008SOL    HW185139   9.335   7.080   5.069  1.7343 -2.8108 -1.0383
26008SOL    HW285140   9.408   7.200   5.125 -1.0074 -0.6966 -1.7801
26009SOL     OW85141  10.475   3.692   2.508 -0.1523 -0.3480  0.3636
26009SOL    HW185142  10.520   3.691   2.593 -1.0047 -0.3911  0.8231
26009SOL    HW285143  10.382   3.687   2.530 -0.4147  0.2332 -0.5544
26010SOL     OW85144   8.036  11.204   1.926 -0.3213  0.2973  0.5702
26010SOL    HW185145   8.030  11.121   1.973 -0.8881 -0.7005 -1.1918
26010SOL    HW285146   7.987  11.190   1.845 -0.4811  2.3753  0.2530
26011SOL     OW85147   4.365   3.572   4.579  0.4094  0.0748 -0.1966
26011SOL    HW185148   4.402   3.527   4.503  2.4077 -0.0734  0.7927
26011SOL    HW285149   4.271   3.554   4.574  0.6695 -1.0750 -1.8574
26012SOL     OW85150   1.391  10.873   4.129  0.5164  0.0461  0.5349
26012SOL    HW185151   1.391  10.843   4.220 -1.0252 -1.1630  0.1973
26012SOL    HW285152   1.318  10.935   4.124  0.0004 -0.5794 -0.0451
26013SOL     OW85153   0.336   3.779   3.581 -0.2718  0.1267  0.4184
26013SOL    HW185154   0.324   3.696   3.626  0.9739 -0.0960  0.3767
26013SOL    HW285155   0.254   3.794   3.535 -0.9943 -0.4170  1.5014
26014SOL     OW85156   1.770   1.280   6.910 -0.0036 -0.6859  0.3073
26014SOL    HW185157   1.771   1.185   6.917 -0.9618 -0.6671  0.9104
26014SOL    HW285158   1.816   1.299   6.828  0.1264 -1.6664  0.1454
26015SOL     OW85159  12.181   8.826   7.296  0.2747  0.1365  0.6701
26015SOL    HW185160  12.122   8.773   7.243  0.7993  0.9638 -0.8102
26015SOL    HW285161  12.148   8.817   7.385 -1.3030 -0.4439  0.0680
26016SOL     OW85162   0.776   3.530   5.745 -0.3113  0.0960 -0.0508
26016SOL    HW185163   0.740   3.607   5.790 -0.5280 -0.7560  1.2941
26016SOL    HW285164   0.726   3.524   5.664 -3.6702 -1.3098  1.9170
26017SOL     OW85165   8.020   0.106   8.788  0.1927  0.2049 -0.1066
26017SOL    HW185166   7.971   0.167   8.733  0.0406 -1.7897 -2.3539
26017SOL    HW285167   8.083   0.161   8.835 -2.5256  2.5395  1.0845
26018SOL     OW85168   0.272   6.378  10.690  0.2809 -0.3235 -0.5492
26018SOL    HW185169   0.334   6.313  10.658  1.0699  0.6517 -1.0316
26018SOL    HW285170   0.186   6.342  10.669  0.7088 -1.1341 -0.9381
26019SOL     OW85171  11.519  10.331  11.446 -0.2158 -0.0223 -0.1345
26019SOL    HW185172  11.542  10.310  11.537 -0.8451  2.8688  0.8004
26019SOL    HW285173  11.591  10.386  11.415 -1.8863  2.5274  0.1623
26020SOL     OW85174   9.794   3.776   5.118  0.2949 -0.5837  0.4163
26020SOL    HW185175   9.853   3.828   5.173 -0.5396  0.1620  0.6319
26020SOL    HW285176   9.794   3.689   5.158  0.3150 -0.2587  1.1425
26021SOL     OW85177   5.300   0.863   3.540 -0.5651  0.1774  0.4954
26021SOL    HW185178   5.226   0.818   3.497 -0.1953 -0.5473  0.6006
26021SOL    HW285179   5.375   0.805   3.525  0.9319  2.6764 -3.0503
26022SOL     OW85180   4.362   8.857  11.144  0.4487  0.2164  0.1045
26022SOL    HW185181   4.447   8.901  11.154  0.1883  0.8486 -0.4035
26022SOL    HW285182   4.376   8.769  11.180  1.2876  0.3531  0.1309
26023SOL     OW85183   8.200   9.466  12.894 -0.6358  0.6414  0.7839
26023SOL    HW185184   8.260   9.512  12.952  1.3192 -1.1604  0.3300
26023SOL    HW285185   8.244   9.383  12.874 -2.5906 -0.1098 -0.8649
26024SOL     OW85186   8.811   0.390   6.642 -0.1060  0.2407 -0.2967
26024SOL    HW185187   8.902   0.414   6.628  0.0010  0.8953  1.2949
26024SOL    HW285188   8.762   0.471   6.629 -0.0755  0.7040  1.9962
26025SOL     OW85189   1.312  10.104   6.280  0.6215 -0.4062 -0.7698
26025SOL    HW185190   1.284  10.187   6.242 -1.1372  0.3030  1.7999
26025SOL    HW285191   1.245  10.042   6.253  0.0197 -0.1611  0.0946
26026SOL     OW85192   1.575   1.604   3.380  0.4316 -0.0169 -0.6805
26026SOL    HW185193   1.490   1.583   3.419  1.3511 -0.9189  0.9651
26026SOL    HW285194   1.575   1.558   3.296 -0.1314 -1.2529 -0.0201
26027SOL     OW85195   8.583   3.330   1.639  0.1605  0.2152  0.1753
26027SOL    HW185196   8.650   3.265   1.616  0.3963 -0.4623  2.4688
26027SOL    HW285197   8.546   3.357   1.555  1.1450 -1.7289 -0.9742
26028SOL     OW85198   6.628   4.042   5.658 -0.0843 -0.1192 -0.3899
26028SOL    HW185199   6.570   4.117   5.645 -0.4237 -0.6228 -2.2018
26028SOL    HW285200   6.616   4.017   5.749 -1.4960  0.7962 -0.2967
26029SOL     OW85201   9.520  11.682  10.601  0.0729  0.3035 -0.2640
26029SOL    HW185202   9.435  11.725  10.612 -0.4028 -0.4765 -0.7579
26029SOL    HW285203   9.549  11.708  10.514 -0.0225 -0.0454 -0.4002
26030SOL     OW85204  11.043   8.041   2.191 -0.7899  0.0109 -0.2023
26030SOL    HW185205  10.966   8.017   2.138 -1.8591  1.0460  0.8389
26030SOL    HW285206  11.037   7.985   2.268 -0.8236  0.5058  0.1565
26031SOL     OW85207   2.034  10.209  10.685  0.2014 -0.3880 -0.2122
26031SOL    HW185208   2.087  10.163  10.750  0.8650  0.1826 -0.3429
26031SOL    HW285209   2.015  10.294  10.725 -0.2001 -0.4015 -0.3696
26032SOL     OW85210   3.349   4.742   7.683 -0.0024 -0.2767  0.5851
26032SOL    HW185211   3.422   4.683   7.704 -0.2791 -1.8902 -2.3770
26032SOL    HW285212   3.392   4.821   7.651  0.4799 -0.8418 -0.2162
26033SOL     OW85213  10.233   3.332   6.577  0.4312  0.1613  0.5448
26033SOL    HW185214  10.203   3.388   6.506  1.9339  1.0726  0.5741
26033SOL    HW285215  10.159   3.325   6.636  0.0137  1.6114  0.2179
26034SOL     OW85216   0.348   4.504   0.703 -0.0141  0.7422  0.1387
26034SOL    HW185217   0.333   4.558   0.780 -0.8835 -0.9025  1.1845
26034SOL    HW285218   0.291   4.542   0.636 -0.1923  1.4399  0.6725
26035SOL     OW85219  10.839  12.804   7.097 -0.1012  0.1340  0.5989
26035SOL    HW185220  10.892  12.764   7.166 -1.1309 -0.2882  1.1783
26035SOL    HW285221  10.765  12.743   7.085  1.0876 -0.9387 -2.3757
26036SOL     OW85222   7.983   1.996   3.678  0.3846 -0.1606  0.0832
26036SOL    HW185223   7.916   1.960   3.618  0.8286  1.1697 -1.2732
26036SOL    HW285224   8.064   1.953   3.651  0.3930 -0.4119  0.5062
26037SOL     OW85225  12.167   6.788   7.508  0.3928  0.4352 -0.0442
26037SOL    HW185226  12.182   6.737   7.428  1.7536  0.9225 -0.1188
26037SOL    HW285227  12.184   6.879   7.481  2.5876  0.4444  1.1878
26038SOL     OW85228   4.210   5.635  10.462 -0.0991  0.0692 -0.2620
26038SOL    HW185229   4.296   5.654  10.498 -0.2046  0.8273 -0.3869
26038SOL    HW285230   4.180   5.558  10.510  0.0758  0.6148  0.7416
26039SOL     OW85231  12.613   1.716   2.849  0.0226  0.3484  0.0917
26039SOL    HW185232  12.596   1.785   2.912 -1.2821 -2.6654  3.3799
26039SOL    HW285233  12.526   1.683   2.825  0.5814  0.0820 -1.7434
26040SOL     OW85234  10.227   5.783   2.579 -0.1063 -0.1950 -0.3255
26040SOL    HW185235  10.199   5.784   2.488 -2.1586  0.6156  0.2658
26040SOL    HW285236  10.266   5.870   2.593 -0.9110  0.1507 -0.1421
26041SOL     OW85237   0.864  10.128  10.415  0.2327  0.1011  0.5569
26041SOL    HW185238   0.940  10.115  10.472 -1.1646 -0.5364  2.3598
26041SOL    HW285239   0.797  10.068  10.449 -0.4305 -0.9170 -2.2947
26042SOL     OW85240   9.261   1.765   0.716 -0.1163 -0.1076 -0.4195
26042SOL    HW185241   9.343   1.767   0.666 -0.3889 -0.1271 -0.8825
26042SOL    HW285242   9.254   1.675   0.747  1.2798  0.4736  1.7753
26043SOL     OW85243   4.872  11.597   3.478  0.0700  0.4012  0.1216
26043SOL    HW185244   4.951  11.549   3.454  1.5427  2.0848  1.3043
26043SOL    HW285245   4.800  11.539   3.453  1.6433 -1.0318 -1.3632
26044SOL     OW85246   3.176   2.768   5.450 -0.0604 -0.4635  0.2254
26044SOL    HW185247   3.113   2.801   5.514  0.7835  1.1187  0.2836
26044SOL    HW285248   3.210   2.846   5.408  0.7897 -1.3835 -0.8473
26045SOL     OW85249   6.190  11.369   9.968 -0.4400 -0.2157 -0.3331
26045SOL    HW185250   6.130  11.304   9.932 -1.4081 -0.6740  1.8881
26045SOL    HW285251   6.249  11.320  10.025 -0.3610  0.6758  0.3887
26046SOL     OW85252   1.992   6.530   4.330  0.0436 -0.0964 -0.3743
26046SOL    HW185253   1.928   6.514   4.260  0.1489  0.9315 -0.7346
26046SOL    HW285254   2.031   6.444   4.348 -2.1452 -0.9490  0.5828
26047SOL     OW85255  10.691   3.235   6.322 -0.2591 -0.7952 -0.9696
26047SOL    HW185256  10.768   3.215   6.269  1.1322  1.4292  0.0582
26047SOL    HW285257  10.617   3.210   6.267  1.1562 -1.2310 -2.7702
26048SOL     OW85258  10.186   0.046   7.728  0.3132 -0.0165 -0.0812
26048SOL    HW185259  10.161   0.075   7.816 -1.3753  0.2663 -0.6128
26048SOL    HW285260  10.135   0.101   7.669 -0.2708 -1.6576 -1.1869
26049SOL     OW85261   2.240   7.159   3.966  0.6915  0.2302  0.4143
26049SOL    HW185262   2.323   7.115   3.954  0.4161 -0.0922 -0.3688
26049SOL    HW285263   2.242   7.231   3.903  0.0044 -0.3392 -0.2824
26050SOL     OW85264   7.087   8.507   5.080  0.2039 -0.3350  0.0133
26050SOL    HW185265   7.110   8.524   4.989 -0.0386 -0.8288 -0.1440
26050SOL    HW285266   6.998   8.540   5.090  0.5846  0.6325  0.3474
26051SOL     OW85267   9.745   1.252   2.673 -0.8033 -0.3303 -0.0396
26051SOL    HW185268   9.761   1.247   2.579  1.3936 -2.5683  0.3402
26051SOL    HW285269   9.663   1.205   2.686 -1.7162  0.9727 -0.9071
26052SOL     OW85270  10.801  11.441   2.749 -0.1307 -0.9852 -0.1826
26052SOL    HW185271  10.737  11.477   2.688  0.8706 -0.6437 -1.0640
26052SOL    HW285272  10.772  11.471   2.835 -0.1737  0.6343 -0.7407
26053SOL     OW85273   3.855   9.823   2.806  0.0390  0.1105 -0.5214
26053SOL    HW185274   3.893   9.737   2.824 -1.0206 -1.0650 -3.2685
26053SOL    HW285275   3.885   9.845   2.718 -1.3982  1.5611 -0.7121
26054SOL     OW85276   6.078   5.733   8.967 -0.2226  0.1525 -0.4985
26054SOL    HW185277   6.118   5.647   8.958 -1.9507 -0.6882 -0.6893
26054SOL    HW285278   5.984   5.717   8.952 -0.7695  1.8219  0.8095
26055SOL     OW85279   0.852  10.762   0.531 -0.3636 -0.1144 -0.9666
26055SOL    HW185280   0.846  10.668   0.550 -0.0854 -0.1416 -1.0172
26055SOL    HW285281   0.853  10.803   0.618  0.0002 -0.1852 -0.9387
26056SOL     OW85282   0.967   7.786  11.240 -0.2928  0.3754 -0.1939
26056SOL    HW185283   0.988   7.694  11.225 -0.6295  0.3412 -0.4852
26056SOL    HW285284   0.889   7.802  11.185 -1.0802  0.4714  0.9148
26057SOL     OW85285   2.060   1.896   7.745 -0.6356 -0.4705 -0.1968
26057SOL    HW185286   1.986   1.880   7.804 -1.1326  0.1359 -0.6438
26057SOL    HW285287   2.024   1.949   7.674  0.0474 -0.8546 -0.8489
26058SOL     OW85288  10.356  10.719  11.023  0.3302  0.0166 -0.0608
26058SOL    HW185289  10.301  10.745  10.949  0.8701  1.0626 -0.1026
26058SOL    HW285290  10.419  10.657  10.986 -0.6361 -1.0061 -0.0627
26059SOL     OW85291  12.892   3.148  12.181 -0.0410  0.0398 -0.3261
26059SOL    HW185292  12.831   3.129  12.110 -0.3027  1.0355 -0.3897
26059SOL    HW285293  12.852   3.221  12.228 -0.8702 -1.8420  2.0932
26060SOL     OW85294  11.068   4.783  12.321 -0.1995 -0.1072 -0.3795
26060SOL    HW185295  11.084   4.701  12.274 -0.0499  0.4620 -1.3438
26060SOL    HW285296  11.156   4.817  12.340 -0.2528 -0.4973  0.6355
26061SOL     OW85297   3.573   6.372   3.802 -0.2455 -0.2105  1.0770
26061SOL    HW185298   3.536   6.297   3.755  0.1311  0.1109  0.2609
26061SOL    HW285299   3.665   6.348   3.818  0.1806  0.5118 -0.1536
26062SOL     OW85300  12.330  12.192   4.487  0.7444 -0.1629  0.3049
26062SOL    HW185301  12.386  12.154   4.419  0.9698  2.0019 -0.8073
26062SOL    HW285302  12.241  12.182   4.455  0.7004 -0.9533  0.6656
26063SOL     OW85303   7.479   9.079  10.638 -0.0309  0.1287 -0.3182
26063SOL    HW185304   7.389   9.046  10.648  0.4037 -1.3747 -1.0654
26063SOL    HW285305   7.481   9.116  10.550  0.0597  0.2624 -0.2594
26064SOL     OW85306   5.069  10.885   5.973 -0.4960 -0.1050 -0.4303
26064SOL    HW185307   5.130  10.815   5.998 -0.2290  1.0216  2.4872
26064SOL    HW285308   4.989  10.864   6.020 -1.8917 -0.6244 -2.8717
26065SOL     OW85309   7.930  12.358   6.962  0.2322  0.0268 -0.5544
26065SOL    HW185310   7.876  12.407   6.900 -0.6578 -2.2396 -1.6673
26065SOL    HW285311   7.868  12.306   7.013  0.9912  1.3427  1.9187
26066SOL     OW85312   5.782   4.899   4.320 -0.1097 -0.1615 -0.3748
26066SOL    HW185313   5.694   4.863   4.333  0.7592 -2.2162  0.1054
26066SOL    HW285314   5.814   4.916   4.408 -0.0594  0.7492 -0.5562
26067SOL     OW85315   4.647  11.893  12.190 -0.4278  0.0408  0.2655
26067SOL    HW185316   4.724  11.840  12.208 -0.0744  0.0319 -1.1480
26067SOL    HW285317   4.680  11.982  12.182 -0.4113 -0.0671 -1.1213
26068SOL     OW85318   1.536   4.234   2.331 -0.2028  0.2641 -0.1740
26068SOL    HW185319   1.479   4.254   2.257  0.3843  2.0928 -0.1685
26068SOL    HW285320   1.542   4.138   2.330 -1.2580  0.1665 -1.6775
26069SOL     OW85321   2.690   3.774   7.443  0.0050 -0.0340 -0.2261
26069SOL    HW185322   2.625   3.742   7.381  0.3625 -0.1634 -0.5319
26069SOL    HW285323   2.639   3.826   7.506 -0.4341 -0.3702 -0.2997
26070SOL     OW85324   6.979   8.480   9.459 -0.0674 -0.4241  0.7275
26070SOL    HW185325   7.062   8.436   9.475 -0.6230 -1.1878  1.5968
26070SOL    HW285326   6.958   8.458   9.368  0.5551 -0.4295  0.5788
26071SOL     OW85327   6.266  12.513   7.593  0.8574  0.3075  0.4642
26071SOL    HW185328   6.283  12.423   7.563 -0.5480  0.0970  0.2696
26071SOL    HW285329   6.219  12.502   7.676  1.0514  0.8777  0.6548
26072SOL     OW85330   9.582   8.467   5.634 -0.2572 -0.1378  0.5592
26072SOL    HW185331   9.662   8.520   5.633 -1.7898  2.4155  2.4743
26072SOL    HW285332   9.610   8.382   5.667  1.9237  0.0915 -0.5001
26073SOL     OW85333   8.955   2.565   5.751 -0.1247  0.4172  0.8228
26073SOL    HW185334   8.888   2.498   5.765  1.6021 -1.4620  0.7811
26073SOL    HW285335   8.994   2.579   5.837  0.5379  0.1753  0.5764
26074SOL     OW85336  12.754  12.785   9.351 -0.1673 -0.4852  0.1712
26074SOL    HW185337  12.836  12.737   9.363  0.8196  1.3887  1.7749
26074SOL    HW285338  12.776  12.855   9.289 -0.2802  0.4991  1.1987
26075SOL     OW85339  12.450   5.742  12.728 -0.0169  0.4712  0.2452
26075SOL    HW185340  12.399   5.811  12.685 -0.3391 -0.3234 -0.6652
26075SOL    HW285341  12.487   5.785  12.805  1.2294  2.1466 -1.2201
26076SOL     OW85342   6.857   4.133   0.247 -0.0666 -0.0983  0.5822
26076SOL    HW185343   6.865   4.229   0.251 -0.0188  0.0903 -2.0127
26076SOL    HW285344   6.770   4.118   0.210  0.3045 -1.0170  0.0547
26077SOL     OW85345   0.174   9.929   3.531 -0.0927 -0.0001  0.4468
26077SOL    HW185346   0.222   9.854   3.497  0.7159  0.8450 -0.3607
26077SOL    HW285347   0.089   9.894   3.556  1.1047 -1.6659  2.5203
26078SOL     OW85348   0.345   6.744   8.772  0.3443  0.0350  0.0346
26078SOL    HW185349   0.346   6.653   8.744  0.9455  0.9370 -3.3409
26078SOL    HW285350   0.420   6.752   8.832  1.3435 -1.3471 -0.9661
26079SOL     OW85351  10.702   3.340   0.444  0.2460  0.6146  0.3332
26079SOL    HW185352  10.664   3.397   0.377  0.4063  0.1854 -0.1338
26079SOL    HW285353  10.709   3.254   0.401 -1.6061 -0.2006  1.5696
26080SOL     OW85354  10.734  11.137   8.404  0.1650 -0.3507 -0.1619
26080SOL    HW185355  10.787  11.064   8.373 -0.1521 -1.7759  2.3221
26080SOL    HW285356  10.648  11.122   8.366  0.8826  0.6683 -2.3353
26081SOL     OW85357   1.354   1.172   6.777 -0.2231  0.2488 -0.4171
26081SOL    HW185358   1.376   1.236   6.710  0.6199  1.7455  1.2149
26081SOL    HW285359   1.269   1.136   6.749 -0.1785  1.2601 -1.9453
26082SOL     OW85360   7.380   2.486   5.994 -0.6395  0.5858 -0.0003
26082SOL    HW185361   7.373   2.443   5.909  0.5552 -0.4986  0.4306
26082SOL    HW285362   7.423   2.570   5.975 -2.1947  1.2776 -0.7135
26083SOL     OW85363  12.349   3.687   1.028 -0.0597 -0.3892 -0.6485
26083SOL    HW185364  12.334   3.631   1.104  2.3038  0.2452  0.4043
26083SOL    HW285365  12.329   3.632   0.952 -1.0446 -1.5125  0.4013
26084SOL     OW85366   7.833   7.413   3.321  0.8411 -0.4760  0.5723
26084SOL    HW185367   7.813   7.395   3.230  2.3563 -1.9827  0.4876
26084SOL    HW285368   7.927   7.395   3.329  0.7205 -0.4954  2.4515
26085SOL     OW85369  10.582   3.173   3.312 -0.5572 -0.7813  0.1724
26085SOL    HW185370  10.617   3.132   3.391  0.3444 -0.7261 -0.1872
26085SOL    HW285371  10.653   3.231   3.282 -1.5401  0.5255  0.2893
26086SOL     OW85372   9.942   9.957   1.171  0.2122 -0.4812 -0.0513
26086SOL    HW185373   9.891   9.954   1.091  1.5887 -1.1941 -0.9296
26086SOL    HW285374   9.891   9.906   1.234 -0.2446 -1.0371 -0.8598
26087SOL     OW85375  12.592   4.523   2.805 -0.6925 -0.3653  0.2464
26087SOL    HW185376  12.549   4.587   2.748  0.3582  0.2232  0.0812
26087SOL    HW285377  12.684   4.526   2.778 -0.3576 -0.8141  1.2901
26088SOL     OW85378  10.272  11.253  12.690  0.0014 -0.1634  0.4466
26088SOL    HW185379  10.335  11.305  12.641 -0.2134 -0.4610 -0.1620
26088SOL    HW285380  10.190  11.303  12.684  0.1417  0.1462  1.1003
26089SOL     OW85381   0.614  10.800   8.446 -0.8516 -0.5998 -0.4239
26089SOL    HW185382   0.583  10.756   8.525 -1.8209 -1.7069 -1.3870
26089SOL    HW285383   0.656  10.730   8.395  0.5654  0.2698 -0.5183
26090SOL     OW85384  12.460   5.418  12.013  0.3863  0.5466  0.0775
26090SOL    HW185385  12.543   5.448  11.976 -0.6048  2.1748 -0.9289
26090SOL    HW285386  12.428   5.352  11.952 -0.3460  1.8941 -1.0480
26091SOL     OW85387   2.928   6.599   6.879 -0.0093  0.0408 -0.0089
26091SOL    HW185388   2.915   6.522   6.824  1.2649 -0.5479  0.4670
26091SOL    HW285389   3.019   6.624   6.864 -0.0150  0.6418  0.8671
26092SOL     OW85390  12.597   0.079   9.900 -0.0205 -0.2513  0.3496
26092SOL    HW185391  12.654   0.111   9.970 -2.4885  2.2740  1.3868
26092SOL    HW285392  12.625   0.129   9.823  0.2165 -0.2246  0.4507
26093SOL     OW85393  11.192   4.164   4.067 -0.2704 -0.3003 -0.4385
26093SOL    HW185394  11.232   4.249   4.049 -0.6145 -0.0436  0.0028
26093SOL    HW285395  11.256   4.118   4.120 -0.6705  0.2221  0.5198
26094SOL     OW85396   0.728   9.228  12.044  1.0027 -0.5161  0.4814
26094SOL    HW185397   0.723   9.252  12.136 -0.0547 -1.8029  0.7995
26094SOL    HW285398   0.679   9.296  11.998  2.5196  0.7737  0.6952
26095SOL     OW85399   4.074   3.682   4.943 -0.0410  0.4088 -0.0761
26095SOL    HW185400   4.069   3.586   4.939  0.1379  0.4297 -0.9503
26095SOL    HW285401   4.135   3.706   4.873 -0.0863  1.1648  0.1344
26096SOL     OW85402   2.800   3.461  11.024  0.3631 -0.2582  1.1385
26096SOL    HW185403   2.705   3.470  11.020  0.1071 -2.6068 -1.2605
26096SOL    HW285404   2.816   3.368  11.008  3.0883  0.0929  1.3228
26097SOL     OW85405   6.444   9.926  10.340 -0.1786  0.0059  0.0503
26097SOL    HW185406   6.398   9.981  10.403  0.0684 -1.9779  2.0771
26097SOL    HW285407   6.526   9.972  10.323  0.6796 -0.3447  2.8293
26098SOL     OW85408   9.040   2.282  10.792 -0.3981 -0.3353 -0.1751
26098SOL    HW185409   9.017   2.375  10.787 -1.7649 -0.6955 -2.5763
26098SOL    HW285410   9.128   2.277  10.755  0.2952  0.1463  1.3677
26099SOL     OW85411   8.077   9.373   0.581 -0.5524 -0.7792 -0.2920
26099SOL    HW185412   8.121   9.383   0.666 -1.1523  1.6779 -0.1895
26099SOL    HW285413   8.074   9.278   0.567 -0.5371 -1.2908  2.4863
26100SOL     OW85414   7.578   4.929   0.818 -0.3324  0.4795  0.5794
26100SOL    HW185415   7.513   4.868   0.853  1.7443 -1.2393  1.7364
26100SOL    HW285416   7.560   5.012   0.861 -1.1698 -0.2058  1.5796
26101SOL     OW85417   7.666   6.653   5.431  0.5465  0.5315  0.0451
26101SOL    HW185418   7.655   6.577   5.374 -2.1162 -0.2113  1.4099
26101SOL    HW285419   7.598   6.714   5.403 -2.0646 -0.5698  3.3609
26102SOL     OW85420   5.279   0.924   9.081  0.1180 -0.2847  0.3261
26102SOL    HW185421   5.311   0.931   9.171  1.1714 -1.0623  0.0315
26102SOL    HW285422   5.355   0.948   9.028 -0.4128 -0.1285 -0.3694
26103SOL     OW85423   4.048   8.988  12.327 -0.4297  0.7859  0.2818
26103SOL    HW185424   4.109   8.967  12.398  2.0592  0.0011 -1.9401
26103SOL    HW285425   4.038   8.905  12.280  0.2140  1.8540 -1.8444
26104SOL     OW85426   9.817   7.493   0.464 -0.0645 -0.1297 -0.3685
26104SOL    HW185427   9.835   7.578   0.425  0.3180 -0.5282 -1.0916
26104SOL    HW285428   9.882   7.484   0.534  1.3587 -0.7373 -1.7068
26105SOL     OW85429   1.690   3.521   3.984  0.3092 -0.3121 -0.2740
26105SOL    HW185430   1.759   3.581   4.012 -0.1547  0.4630 -0.7886
26105SOL    HW285431   1.649   3.493   4.066  0.0726  0.6213 -0.0604
26106SOL     OW85432   7.566   1.580  10.663  0.7639 -0.1531 -0.3347
26106SOL    HW185433   7.576   1.559  10.570  0.1613 -0.1917 -0.3961
26106SOL    HW285434   7.487   1.533  10.690  2.1273 -1.9593  0.7634
26107SOL     OW85435   9.519   4.590   3.954 -0.0208 -1.0332 -0.5183
26107SOL    HW185436   9.423   4.585   3.951 -0.0586 -0.3442 -0.4892
26107SOL    HW285437   9.541   4.559   4.042 -0.3101  0.0665 -0.0375
26108SOL     OW85438   9.083   5.151  11.634 -0.1862  0.1265  0.2051
26108SOL    HW185439   9.068   5.077  11.693  0.0580  0.1100  0.2457
26108SOL    HW285440   9.128   5.216  11.688 -2.6243  1.3531  0.9207
26109SOL     OW85441   8.680   9.820  11.260 -0.9641  0.1132 -0.3174
26109SOL    HW185442   8.606   9.865  11.219 -0.9088 -0.0038 -0.5502
26109SOL    HW285443   8.650   9.799  11.348 -0.4386  2.0000  0.3488
26110SOL     OW85444   3.531   9.337  10.758  0.0337 -0.2143 -0.7277
26110SOL    HW185445   3.540   9.431  10.770  2.0000 -0.5763  1.3498
26110SOL    HW285446   3.499   9.305  10.842 -0.4994 -1.4266 -1.3663
26111SOL     OW85447   0.576   0.147  11.153 -0.0374 -0.2845 -0.3635
26111SOL    HW185448   0.617   0.170  11.070 -0.4796  1.7586 -0.0557
26111SOL    HW285449   0.595   0.054  11.163  3.2134  0.1912 -0.9401
26112SOL     OW85450   1.752   2.064   1.848 -0.5540  0.2230 -0.3225
26112SOL    HW185451   1.776   2.097   1.762  1.7060  1.4775  0.7021
26112SOL    HW285452   1.759   1.969   1.840 -1.5771  0.2345 -1.8068
26113SOL     OW85453   3.582   7.825   3.479  0.3121 -0.2921 -0.4118
26113SOL    HW185454   3.643   7.833   3.552 -1.4948 -0.5674  1.1911
26113SOL    HW285455   3.585   7.732   3.455  0.2876 -0.3677 -0.1239
26114SOL     OW85456  12.513   9.617   5.792 -0.6439 -0.1969 -0.0705
26114SOL    HW185457  12.576   9.633   5.722  0.1071  1.4700  0.9415
26114SOL    HW285458  12.456   9.693   5.791 -1.8207 -1.0461 -0.0635
26115SOL     OW85459   2.993   9.120   0.334 -0.1226  0.4570 -0.6383
26115SOL    HW185460   3.087   9.115   0.350  0.4401  1.3997 -3.1196
26115SOL    HW285461   2.957   9.166   0.411  1.6793  1.4606 -0.3423
26116SOL     OW85462  12.747   0.889   0.003  0.5390  0.6209 -0.3788
26116SOL    HW185463  12.799   0.895   0.084 -0.2400  2.8984  0.0472
26116SOL    HW285464  12.660   0.864   0.033  0.1045  2.0261 -0.3924
26117SOL     OW85465   8.449   6.592   6.853 -0.6646 -0.6146  0.0752
26117SOL    HW185466   8.536   6.613   6.819 -0.3560 -1.3098  0.4310
26117SOL    HW285467   8.389   6.644   6.798  0.0112  0.4420  0.2997
26118SOL     OW85468   1.511   5.709   9.754  0.1544 -0.0626 -0.0278
26118SOL    HW185469   1.528   5.649   9.681  0.0084 -0.7414  0.4791
26118SOL    HW285470   1.579   5.687   9.818 -0.7708 -0.7187  0.7730
26119SOL     OW85471   1.836   9.065   4.108  0.1250  0.3848 -0.0230
26119SOL    HW185472   1.918   9.098   4.070  0.3236  0.6650  0.6254
26119SOL    HW285473   1.864   9.002   4.174 -0.1950  0.2279 -0.0362
26120SOL     OW85474   0.258   5.949   7.419  0.3228  0.0299  0.8315
26120SOL    HW185475   0.340   5.953   7.370 -0.9254 -2.7055 -1.8256
26120SOL    HW285476   0.279   5.898   7.497  1.2953 -0.0264  0.5484
26121SOL     OW85477   4.090   0.891   1.844 -0.0552 -0.6024  0.0630
26121SOL    HW185478   4.006   0.856   1.876 -1.2887  0.3561 -1.9104
26121SOL    HW285479   4.084   0.884   1.749  2.3850 -1.0053 -0.1161
26122SOL     OW85480  10.468   3.025   7.697 -0.3857  0.1820  0.2863
26122SOL    HW185481  10.448   2.948   7.752 -0.7743  0.3808  0.4227
26122SOL    HW285482  10.441   3.100   7.750  0.3380  0.4390  0.3066
26123SOL     OW85483   0.296  12.615   5.450 -0.1630 -0.1468 -0.4821
26123SOL    HW185484   0.311  12.698   5.406  0.7861  0.1819  0.4194
26123SOL    HW285485   0.367  12.608   5.514 -0.1585 -1.7026 -0.6073
26124SOL     OW85486   8.581  12.121   7.020 -0.0142 -0.2299 -0.6596
26124SOL    HW185487   8.511  12.172   7.061  1.5055  1.5050 -0.0672
26124SOL    HW285488   8.570  12.136   6.926 -0.3353  0.1970 -0.5584
26125SOL     OW85489   4.570  10.133  12.576 -0.4308 -0.2601  0.1428
26125SOL    HW185490   4.664  10.146  12.579 -0.4585  0.8764 -1.9346
26125SOL    HW285491   4.542  10.133  12.668  1.3692  1.1121  0.7312
26126SOL     OW85492  10.402   7.897   5.500  0.0283 -0.7066  0.8428
26126SOL    HW185493  10.460   7.959   5.545  0.9688 -1.1330  0.2477
26126SOL    HW285494  10.401   7.820   5.557 -1.3772 -0.0744  1.7323
26127SOL     OW85495   8.963  11.743   7.047 -0.3193 -0.4476  0.3859
26127SOL    HW185496   8.884  11.787   7.016 -0.6763 -1.2442  0.1397
26127SOL    HW285497   9.033  11.805   7.032 -0.8703  0.1893  0.4128
26128SOL     OW85498   6.724   5.139  11.924  0.1192  0.1962 -0.1710
26128SOL    HW185499   6.817   5.146  11.945  0.6627  1.1292 -2.4988
26128SOL    HW285500   6.684   5.213  11.968  0.4857 -0.1529  0.7694
26129SOL     OW85501   8.125   9.013   2.701 -0.2989  0.7448  0.2258
26129SOL    HW185502   8.165   9.018   2.787 -0.2015 -0.4120  0.2680
26129SOL    HW285503   8.137   9.100   2.663 -0.1992  1.2101  1.3075
26130SOL     OW85504   3.702  10.762   0.169 -0.3031  0.1093 -0.0601
26130SOL    HW185505   3.757  10.774   0.091 -0.9836 -0.8163 -0.7040
26130SOL    HW285506   3.681  10.668   0.169 -3.6136  0.7245 -1.0571
26131SOL     OW85507   9.613   4.142   8.607 -0.1794 -0.6556  0.7238
26131SOL    HW185508   9.690   4.199   8.612  0.4442 -1.2497 -1.1397
26131SOL    HW285509   9.546   4.195   8.565  0.2546 -1.1109 -0.5854
26132SOL     OW85510   4.176  11.283   5.823  0.5283 -0.3409  0.5998
26132SOL    HW185511   4.099  11.262   5.770  1.4007 -0.8290 -0.5174
26132SOL    HW285512   4.236  11.211   5.808  1.9787  0.9481 -0.0989
26133SOL     OW85513   0.774   3.007   3.321  0.0049 -0.1872 -0.1767
26133SOL    HW185514   0.705   3.072   3.312 -0.0570 -0.1561  0.4326
26133SOL    HW285515   0.752   2.939   3.258 -2.2277 -1.6123  1.9513
26134SOL     OW85516   5.111   2.632   4.098  0.2196 -0.1313  0.0507
26134SOL    HW185517   5.071   2.563   4.045  0.7739  0.2385 -0.8632
26134SOL    HW285518   5.103   2.601   4.188  2.7743 -2.6405 -0.4547
26135SOL     OW85519  12.373   5.449   5.569 -0.0365 -0.2611  0.1398
26135SOL    HW185520  12.310   5.486   5.631 -0.2825  1.2225 -0.9283
26135SOL    HW285521  12.431   5.522   5.548  0.0714 -0.7410 -1.3260
26136SOL     OW85522   3.139   7.275   2.923 -0.1721  0.0609  0.0311
26136SOL    HW185523   3.101   7.272   3.011 -1.1621  0.1085 -0.3831
26136SOL    HW285524   3.070   7.313   2.869 -1.1190 -3.4237 -1.5229
26137SOL     OW85525   2.847  12.422   9.862  0.1373  0.1490  0.4683
26137SOL    HW185526   2.906  12.493   9.885  0.2016 -0.2469  1.6297
26137SOL    HW285527   2.762  12.464   9.848  0.0502  0.4152  1.6731
26138SOL     OW85528  10.630   7.313  12.021  0.3632  0.2751 -0.3503
26138SOL    HW185529  10.672   7.395  11.993 -1.7333  1.1547 -1.0863
26138SOL    HW285530  10.629   7.319  12.117  3.9057 -0.8702 -0.0928
26139SOL     OW85531   1.286  10.576  11.059 -0.1817 -0.4910  0.4224
26139SOL    HW185532   1.272  10.501  11.116 -0.7351  0.5207  1.6561
26139SOL    HW285533   1.325  10.643  11.116 -0.6437  0.5092 -0.4067
26140SOL     OW85534  11.250   0.953   6.169  0.1854 -0.7222 -0.2767
26140SOL    HW185535  11.184   0.981   6.232 -0.1697 -0.0592 -0.9195
26140SOL    HW285536  11.259   1.028   6.110  2.7481 -0.0889  0.7604
26141SOL     OW85537   5.702   9.314  10.778  0.4362 -0.0575 -0.0333
26141SOL    HW185538   5.751   9.294  10.858 -0.3093 -1.0698  0.1933
26141SOL    HW285539   5.668   9.229  10.749 -0.0331  0.4233 -0.9474
26142SOL     OW85540   5.832   2.418   0.253 -0.2130  0.3283 -1.3712
26142SOL    HW185541   5.904   2.477   0.277 -0.6353  0.3736 -0.1609
26142SOL    HW285542   5.757   2.476   0.241 -0.5681  0.0766 -0.4314
26143SOL     OW85543   3.540   5.202   7.354  0.0129 -0.4877  0.2851
26143SOL    HW185544   3.615   5.180   7.298 -0.2529  0.4327 -0.4664
26143SOL    HW285545   3.482   5.126   7.346  0.2215 -0.5989 -0.2753
26144SOL     OW85546   2.838   8.328   4.398  0.1102  0.0214 -0.2814
26144SOL    HW185547   2.745   8.350   4.388  0.0509 -0.0046  0.1938
26144SOL    HW285548   2.866   8.375   4.477  0.7605  0.8417 -0.9829
26145SOL     OW85549  11.656  12.955   5.316 -0.5288 -0.0736 -0.4619
26145SOL    HW185550  11.743  12.996   5.311 -1.4238  1.8957 -0.7218
26145SOL    HW285551  11.675  12.861   5.325  1.6740  0.4442  1.7363
26146SOL     OW85552   9.388   7.803   2.967 -0.1604 -0.2189 -0.4327
26146SOL    HW185553   9.384   7.777   3.059 -0.0637  0.2643 -0.2866
26146SOL    HW285554   9.481   7.804   2.946 -0.2609 -2.5263 -1.1956
26147SOL     OW85555   5.073  10.557   3.706 -0.2791 -0.0773 -1.0685
26147SOL    HW185556   5.122  10.498   3.649  0.0649  1.1567 -2.0922
26147SOL    HW285557   5.058  10.635   3.653 -2.0499  0.1848 -0.2738
26148SOL     OW85558   3.726   9.366   5.994  0.1272 -0.0076 -0.6058
26148SOL    HW185559   3.802   9.364   6.052 -0.1542 -0.8349 -0.2529
26148SOL    HW285560   3.761   9.400   5.911  0.7116  0.3551 -0.2242
26149SOL     OW85561   3.431   8.295   3.665  0.0807  0.1712 -0.2461
26149SOL    HW185562   3.353   8.336   3.702 -2.0384 -2.1025 -1.8822
26149SOL    HW285563   3.431   8.206   3.702  1.5484 -0.0895 -0.7965
26150SOL     OW85564   9.133   5.394   5.171  0.3903 -0.2287 -0.4233
26150SOL    HW185565   9.196   5.323   5.162  0.3696 -0.0879 -2.1443
26150SOL    HW285566   9.085   5.394   5.087 -0.0623  1.3688 -0.2030
26151SOL     OW85567   7.852  10.918   1.808 -0.6959  0.5208 -0.3271
26151SOL    HW185568   7.877  11.005   1.777  0.1303  0.5474  0.3577
26151SOL    HW285569   7.891  10.912   1.896 -2.4695  0.2437  0.4827
26152SOL     OW85570   3.774  10.589   9.732  0.0089 -0.5806  0.0977
26152SOL    HW185571   3.756  10.497   9.752  0.8996 -0.8331 -0.2170
26152SOL    HW285572   3.783  10.591   9.637 -1.0285  0.0319 -0.0048
26153SOL     OW85573   7.816   2.815  11.225  0.4905  0.5746 -0.1969
26153SOL    HW185574   7.873   2.865  11.166 -1.1637  0.1281 -2.3024
26153SOL    HW285575   7.729   2.821  11.185 -0.2047 -2.0717  0.7188
26154SOL     OW85576  12.526  11.177  12.649 -0.2177  0.3368 -0.1716
26154SOL    HW185577  12.440  11.213  12.670 -1.1386 -0.6753 -1.9540
26154SOL    HW285578  12.536  11.193  12.555 -0.2010 -2.9354 -0.8210
26155SOL     OW85579   9.502   9.866   5.336  0.1762  0.1328 -0.3687
26155SOL    HW185580   9.596   9.849   5.346 -0.1875 -2.7166 -0.9699
26155SOL    HW285581   9.498   9.942   5.277  2.1077 -0.3033 -1.1377
26156SOL     OW85582  11.608   8.827   7.133  0.3198  0.6222 -0.2001
26156SOL    HW185583  11.678   8.867   7.184  1.1695  0.5344 -1.2578
26156SOL    HW285584  11.542   8.803   7.197  0.3832  2.4722  0.6164
26157SOL     OW85585   8.558   2.239   8.469  0.1673 -1.0666  0.2195
26157SOL    HW185586   8.593   2.293   8.540 -1.0113 -0.1647  0.1408
26157SOL    HW285587   8.619   2.254   8.396  1.0749 -1.5770  0.8425
26158SOL     OW85588   3.674   5.071   7.785 -0.3411 -0.7175 -0.0840
26158SOL    HW185589   3.754   5.068   7.732 -0.3530  0.0964 -0.1612
26158SOL    HW285590   3.684   5.149   7.839 -1.6401  0.1159 -1.0014
26159SOL     OW85591   6.967   6.591   4.404 -0.1974  0.7721  0.2614
26159SOL    HW185592   7.061   6.596   4.388 -0.2153 -0.0031 -0.1493
26159SOL    HW285593   6.933   6.676   4.375  0.6279  1.8944  2.3949
26160SOL     OW85594   9.154  10.382   8.803  0.6431 -0.3606  0.2995
26160SOL    HW185595   9.086  10.423   8.856  0.6250  0.3434 -0.2469
26160SOL    HW285596   9.232  10.435   8.820  0.6290 -0.1011 -0.3902
26161SOL     OW85597   1.911  12.853   9.317  0.2464  0.5982  0.6742
26161SOL    HW185598   1.841  12.876   9.378 -0.8642  0.2606 -0.4094
26161SOL    HW285599   1.918  12.758   9.323  0.3480  0.5942  0.5127
26162SOL     OW85600  12.877  10.254   0.348 -0.5997  0.2373  0.0715
26162SOL    HW185601  12.951  10.227   0.402 -0.7197  3.6603  2.2087
26162SOL    HW285602  12.800  10.217   0.392 -0.4387 -0.6032 -0.3193
26163SOL     OW85603   5.859  11.044   5.400 -0.2476  0.1035  0.2975
26163SOL    HW185604   5.780  10.990   5.391 -0.3304  0.2010  0.4406
26163SOL    HW285605   5.827  11.134   5.404 -0.0015  0.3496 -1.9289
26164SOL     OW85606   2.676   2.531  12.846 -0.0839 -0.2082 -0.5444
26164SOL    HW185607   2.731   2.469  12.894  0.5782  2.2319  2.1743
26164SOL    HW285608   2.586   2.508  12.871  0.1473 -0.1493  0.3726
26165SOL     OW85609   4.440   6.726   0.884 -0.0104 -0.4005 -0.2653
26165SOL    HW185610   4.345   6.739   0.884  0.1780  1.1814 -0.4516
26165SOL    HW285611   4.464   6.731   0.976 -0.0266 -0.1466 -0.2752
26166SOL     OW85612  11.594   4.347   3.896  0.0178 -0.1603  0.1004
26166SOL    HW185613  11.651   4.371   3.969 -1.2632 -0.7441  1.3348
26166SOL    HW285614  11.649   4.360   3.818  1.6160 -0.0897  1.1799
26167SOL     OW85615   5.873   8.369   0.777  0.2701 -0.1768  0.6897
26167SOL    HW185616   5.881   8.370   0.872  1.1366  0.8362  0.6199
26167SOL    HW285617   5.804   8.432   0.757  0.4462 -0.0001  0.6282
26168SOL     OW85618   3.942   0.950  11.910  0.1669 -0.7566  0.5315
26168SOL    HW185619   3.858   0.966  11.954  0.2902  0.3725  0.3879
26168SOL    HW285620   3.962   0.858  11.929 -1.3123 -1.1737  0.1968
26169SOL     OW85621   9.059   2.864   3.650 -0.3026 -0.3812  0.2158
26169SOL    HW185622   9.093   2.951   3.668 -1.0272 -0.0492  0.0094
26169SOL    HW285623   8.968   2.878   3.624 -0.2758 -1.1486 -0.3393
26170SOL     OW85624   8.244   5.721  12.517  0.0809  0.8263 -0.3753
26170SOL    HW185625   8.189   5.656  12.474 -0.5942  1.8294 -1.0913
26170SOL    HW285626   8.302   5.754  12.449  2.3819 -0.9696  0.6113
26171SOL     OW85627  11.347   8.008   5.187  0.7556 -0.5925 -0.5396
26171SOL    HW185628  11.315   8.062   5.259  0.6897  0.4543 -1.3426
26171SOL    HW285629  11.391   8.069   5.128  1.1662 -1.4924 -1.1915
26172SOL     OW85630   2.607   9.600   6.781  0.2131 -0.7692 -0.3364
26172SOL    HW185631   2.688   9.605   6.831  0.6458  0.8943 -1.1467
26172SOL    HW285632   2.633   9.620   6.691 -1.3479  1.7613 -0.2998
26173SOL     OW85633   9.745   6.014   4.897 -0.2758 -0.6491 -0.1035
26173SOL    HW185634   9.715   5.952   4.963  0.8577 -0.4705  0.6078
26173SOL    HW285635   9.773   6.091   4.947 -1.4821  0.3979 -0.9567
26174SOL     OW85636  10.467   1.168  11.829  0.3067  0.5742  0.2636
26174SOL    HW185637  10.435   1.254  11.855 -0.1234  0.0938  1.3964
26174SOL    HW285638  10.492   1.178  11.737 -1.7643  1.3612 -0.2739
26175SOL     OW85639   3.397   9.774   6.845 -0.4864 -0.3302  0.1466
26175SOL    HW185640   3.468   9.832   6.819 -0.6369 -0.6258 -0.9823
26175SOL    HW285641   3.322   9.832   6.859  0.2108  0.1215  2.4610
26176SOL     OW85642   6.887   4.346   0.048  0.3551 -0.8285  0.4096
26176SOL    HW185643   6.827   4.288   0.000  0.2841 -0.2663 -0.1980
26176SOL    HW285644   6.973   4.307   0.033  0.2728 -0.9670  0.2850
26177SOL     OW85645   8.852   5.126  10.828 -0.4300 -0.3887 -0.0736
26177SOL    HW185646   8.777   5.182  10.844 -1.5466 -1.5830 -0.9067
26177SOL    HW285647   8.830   5.078  10.748  2.5201  1.3983 -2.1711
26178SOL     OW85648   3.365   8.279   7.060 -0.0421  0.2555 -0.1565
26178SOL    HW185649   3.334   8.325   7.138 -1.5784 -1.4870  0.3413
26178SOL    HW285650   3.287   8.236   7.024  1.0295 -0.7921 -1.3890
26179SOL     OW85651   1.529   7.267   5.704  0.2609 -0.5369  0.0320
26179SOL    HW185652   1.499   7.192   5.755  0.8278 -0.7472  0.0712
26179SOL    HW285653   1.587   7.229   5.638  1.5209 -0.0434  0.8066
26180SOL     OW85654   5.574   7.106  10.374 -0.3390 -0.6800 -0.0162
26180SOL    HW185655   5.500   7.066  10.328 -1.0189  0.7612 -0.2485
26180SOL    HW285656   5.536   7.139  10.455 -0.7283  2.6936 -1.4067
26181SOL     OW85657  12.479  11.132  11.528 -0.2708 -0.6737  0.1379
26181SOL    HW185658  12.461  11.140  11.434 -0.3899 -0.2077  0.1954
26181SOL    HW285659  12.495  11.222  11.556 -1.4332 -0.6469  0.7966
26182SOL     OW85660   2.301   4.282  11.137 -0.0095 -0.3935  0.3386
26182SOL    HW185661   2.288   4.360  11.084 -0.9462 -1.4274 -1.0288
26182SOL    HW285662   2.379   4.300  11.189  0.0175  1.2762 -0.2413
26183SOL     OW85663   1.011   4.821   0.357 -0.4905  0.3527 -0.2547
26183SOL    HW185664   1.082   4.828   0.293  0.1179 -1.6833  0.1093
26183SOL    HW285665   0.994   4.911   0.384  1.4283  0.9779 -0.9378
26184SOL     OW85666   6.195  10.314   1.226 -0.0763  0.5537 -0.6229
26184SOL    HW185667   6.238  10.229   1.218 -0.5736  0.1196  1.0183
26184SOL    HW285668   6.150  10.311   1.310 -2.6983  1.2844 -1.8795
26185SOL     OW85669   7.672   9.299   9.825  0.8303  0.0989  0.4686
26185SOL    HW185670   7.744   9.341   9.870  0.2302  2.5453 -0.6906
26185SOL    HW285671   7.713   9.251   9.753  1.6190 -2.3651  2.4051
26186SOL     OW85672   2.618   5.947   6.570  0.1324 -0.3406 -1.0854
26186SOL    HW185673   2.699   5.958   6.519  0.1301  0.4816 -0.9348
26186SOL    HW285674   2.585   5.861   6.545  0.4015 -0.1631 -2.0989
26187SOL     OW85675   9.175   8.263   1.590 -0.5085 -0.4970  0.7151
26187SOL    HW185676   9.202   8.275   1.681 -0.6086  2.0212  0.4834
26187SOL    HW285677   9.240   8.313   1.539 -0.7064 -1.4973 -0.5764
26188SOL     OW85678   6.974   2.661   9.317 -0.2384  0.2586  0.1771
26188SOL    HW185679   6.921   2.592   9.277 -1.5178  0.9688  0.5707
26188SOL    HW285680   6.964   2.648   9.411 -2.1365  2.0749  0.3220
26189SOL     OW85681  10.051  12.351   3.713  0.0353 -0.0129 -0.0570
26189SOL    HW185682  10.093  12.356   3.799  2.2456 -0.0992 -1.0492
26189SOL    HW285683  10.073  12.434   3.671 -0.5850 -0.1822 -0.7364
26190SOL     OW85684   1.307  10.112   4.975  0.4489  0.0188  0.1104
26190SOL    HW185685   1.252  10.105   5.053 -0.0462  2.8933  0.1180
26190SOL    HW285686   1.262  10.058   4.910 -1.0473  0.3209  0.8363
26191SOL     OW85687   2.986   5.750   1.223  0.0702 -0.6233 -0.2434
26191SOL    HW185688   3.020   5.832   1.260  1.3762 -1.0392 -0.4408
26191SOL    HW285689   2.945   5.775   1.141 -0.5078 -0.0368  0.2155
26192SOL     OW85690   5.443   1.008   3.744 -0.5262  0.6818 -0.0998
26192SOL    HW185691   5.387   0.961   3.805  0.6017 -0.3812  0.1557
26192SOL    HW285692   5.400   0.999   3.659 -0.2235 -1.0358 -0.0937
26193SOL     OW85693   7.065  11.995  12.443  0.4708 -0.3235 -0.0925
26193SOL    HW185694   7.055  12.037  12.358 -0.6687 -0.9443 -0.2931
26193SOL    HW285695   6.983  12.013  12.488  0.7642 -0.6389  0.5836
26194SOL     OW85696  11.323   3.293   8.737  0.3592  0.0680  0.2547
26194SOL    HW185697  11.241   3.271   8.782 -0.6495  1.5586 -0.7695
26194SOL    HW285698  11.366   3.357   8.794  0.6100 -0.3760  0.5729
26195SOL     OW85699   3.409   5.950   8.564 -0.3341  0.1510  0.1007
26195SOL    HW185700   3.443   5.929   8.651 -0.1401  0.7301  0.1710
26195SOL    HW285701   3.478   6.002   8.523 -1.8797  3.1587  1.0178
26196SOL     OW85702   6.247   7.960   3.767  0.4234 -0.4209  0.1961
26196SOL    HW185703   6.182   8.031   3.763  1.0150  0.2380  1.6258
26196SOL    HW285704   6.199   7.886   3.804  0.8471  0.5933  2.9876
26197SOL     OW85705   1.154  12.154   4.055 -0.3432 -0.0089  0.3961
26197SOL    HW185706   1.158  12.066   4.017 -1.8562  0.7933 -1.7979
26197SOL    HW285707   1.176  12.212   3.982 -1.7047  1.5403  1.1624
26198SOL     OW85708   2.424  10.347   8.913  0.1352  0.4344 -0.6581
26198SOL    HW185709   2.471  10.338   8.997 -1.1310  0.3437  0.0597
26198SOL    HW285710   2.422  10.441   8.897  0.1371  0.4701 -0.4517
26199SOL     OW85711   4.800   1.225   7.414  0.5592  0.0740  0.1670
26199SOL    HW185712   4.724   1.167   7.409  1.0694 -0.6817  0.7725
26199SOL    HW285713   4.855   1.199   7.339  0.0135  0.9503 -0.5549
26200SOL     OW85714   0.114   5.023   7.923 -0.0954  0.2796  0.2684
26200SOL    HW185715   0.097   4.953   7.987  0.3511 -1.6534 -1.6076
26200SOL    HW285716   0.033   5.074   7.922 -1.5894 -1.9353 -0.2846
26201SOL     OW85717   9.544  11.222  10.175  0.4554 -0.2114  0.3494
26201SOL    HW185718   9.583  11.218  10.087  0.6594 -0.1432  0.4358
26201SOL    HW285719   9.618  11.210  10.234  0.8505  2.7822  0.6152
26202SOL     OW85720  11.680   8.019   5.088  0.2180  0.3119 -0.5630
26202SOL    HW185721  11.728   7.987   5.164 -0.3689 -0.9104 -0.6843
26202SOL    HW285722  11.724   8.101   5.064  0.6032  0.5616  0.8924
26203SOL     OW85723   9.362   7.446   2.931 -0.1081 -0.3468  0.3119
26203SOL    HW185724   9.325   7.514   2.987  0.6110  1.7441 -1.5941
26203SOL    HW285725   9.452   7.437   2.961 -0.3131 -0.7890  0.8209
26204SOL     OW85726   4.489   8.002   8.457 -0.0144  0.1943  0.3746
26204SOL    HW185727   4.407   7.961   8.486 -0.9019  1.6824  0.0707
26204SOL    HW285728   4.502   8.074   8.518 -0.7993  2.0872 -1.5543
26205SOL     OW85729   6.661  10.406   5.046 -0.1041  0.4596  0.7902
26205SOL    HW185730   6.714  10.328   5.063  0.5923  0.8765  0.5549
26205SOL    HW285731   6.579  10.388   5.091  0.8773  0.5701  2.7296
26206SOL     OW85732   5.419  10.877   1.557 -0.0570 -0.5656 -0.3498
26206SOL    HW185733   5.328  10.871   1.585 -0.0133 -1.5141 -0.3696
26206SOL    HW285734   5.451  10.958   1.598 -0.5609 -0.8627  0.6711
26207SOL     OW85735   3.898  12.778   8.443 -0.2756 -0.0467 -0.4023
26207SOL    HW185736   3.850  12.756   8.523 -0.1940 -0.6119 -0.5081
26207SOL    HW285737   3.832  12.818   8.386 -0.1870  0.9879  0.2011
26208SOL     OW85738   0.434   3.031  12.839  0.0801  0.2682 -0.9092
26208SOL    HW185739   0.339   3.044  12.842  0.3911  3.0879  0.3235
26208SOL    HW285740   0.452   2.976  12.915 -0.6178 -1.1300 -1.7159
26209SOL     OW85741   6.023   4.401   6.408 -0.3119  0.2720 -0.5242
26209SOL    HW185742   6.081   4.419   6.482 -0.7168  0.4324 -0.2437
26209SOL    HW285743   6.072   4.432   6.331  1.2760 -2.2705 -0.6710
26210SOL     OW85744   6.828  11.900   7.621  0.3916 -0.1211  0.4185
26210SOL    HW185745   6.852  11.813   7.653  1.1012 -0.3635 -0.7101
26210SOL    HW285746   6.761  11.930   7.682 -1.1264 -2.1563 -0.1255
26211SOL     OW85747   5.475   0.988  11.393 -0.0291 -0.8934  0.5927
26211SOL    HW185748   5.562   0.964  11.361 -0.0383 -0.3537  0.1609
26211SOL    HW285749   5.478   0.969  11.486  0.7715 -0.2575  0.7068
26212SOL     OW85750   4.207  10.393   5.180 -0.3364 -0.0121  0.2155
26212SOL    HW185751   4.290  10.438   5.161  1.0536 -2.2607  0.6053
26212SOL    HW285752   4.192  10.338   5.103 -0.3114 -1.2183  1.0507
26213SOL     OW85753   1.110   9.703   8.426 -0.4972  0.0126 -0.0620
26213SOL    HW185754   1.080   9.681   8.514 -3.4933 -1.0571 -1.1928
26213SOL    HW285755   1.030   9.725   8.378  0.6501 -1.7462 -3.1048
26214SOL     OW85756   4.398  10.520  12.915  0.3038  0.4426  0.1060
26214SOL    HW185757   4.444  10.598  12.947  0.9935  0.5116 -1.0165
26214SOL    HW285758   4.427  10.450  12.974  0.4805  0.8299  0.4876
26215SOL     OW85759  12.086  11.325   2.538  0.2804  0.2363  0.5510
26215SOL    HW185760  12.062  11.370   2.619 -2.4361  1.0245 -0.5765
26215SOL    HW285761  12.045  11.376   2.469  0.5064 -1.7336 -1.1448
26216SOL     OW85762   0.275   4.181   3.519  0.0985 -0.0924  0.0766
26216SOL    HW185763   0.283   4.232   3.600  1.3673 -0.0680 -0.0542
26216SOL    HW285764   0.356   4.130   3.515 -0.8970 -1.7637 -0.0533
26217SOL     OW85765   9.784   7.527   1.367  0.1334  0.2742 -0.1416
26217SOL    HW185766   9.823   7.440   1.362  0.7747  0.6095 -1.7775
26217SOL    HW285767   9.702   7.520   1.319  0.7232  0.8024 -1.2778
26218SOL     OW85768  11.966  10.131  10.037 -0.6362 -0.1038  0.5378
26218SOL    HW185769  11.990  10.214  10.078 -1.4052 -0.0097  0.8063
26218SOL    HW285770  11.906  10.090  10.099  0.7609 -1.4955  1.0522
26219SOL     OW85771   9.766   8.391   7.132  0.2550  0.4553 -0.3850
26219SOL    HW185772   9.823   8.320   7.101 -1.2872 -1.7224  1.4024
26219SOL    HW285773   9.814   8.471   7.111  2.5892 -1.1296 -1.5797
26220SOL     OW85774   6.286  11.723  10.908  0.0672  0.2281  0.0142
26220SOL    HW185775   6.200  11.713  10.867 -0.6699  0.5629  1.4180
26220SOL    HW285776   6.334  11.645  10.883 -1.6110 -1.3397  1.4517
26221SOL     OW85777   6.439   0.598  12.802  0.1297  0.2389 -0.6666
26221SOL    HW185778   6.449   0.621  12.894  2.2010 -0.1639 -0.7480
26221SOL    HW285779   6.392   0.515  12.803 -1.6905  1.2054 -0.1159
26222SOL     OW85780   5.939   3.596   3.995  0.5608  0.4718  0.2759
26222SOL    HW185781   6.000   3.522   4.001  0.3495  0.2299 -0.4976
26222SOL    HW285782   5.971   3.648   3.921 -0.8069 -0.2721 -0.8812
26223SOL     OW85783   6.015   8.313   1.904 -0.1101 -0.1909 -0.0737
26223SOL    HW185784   5.938   8.330   1.851  0.8633 -0.2407 -1.5677
26223SOL    HW285785   5.999   8.228   1.945 -1.2658  0.2665  0.4701
26224SOL     OW85786  12.547   5.492   4.171  0.1902  0.4155 -0.2181
26224SOL    HW185787  12.581   5.537   4.094 -1.5653  0.6251 -0.9168
26224SOL    HW285788  12.617   5.500   4.236  1.7403  0.2220 -1.7637
26225SOL     OW85789   2.115  12.573  11.934 -0.2847 -0.3836  0.5610
26225SOL    HW185790   2.096  12.660  11.900  1.3960 -0.8690 -1.8971
26225SOL    HW285791   2.032  12.541  11.968 -1.1852  1.7098  0.4469
26226SOL     OW85792  11.690   9.567   9.046 -0.1142  0.1376  0.3105
26226SOL    HW185793  11.666   9.474   9.041  1.9341 -0.3745 -3.5907
26226SOL    HW285794  11.772   9.568   9.095  1.6634 -0.7357 -2.4069
26227SOL     OW85795   8.074   5.000   9.867  0.2527  0.1294  0.0088
26227SOL    HW185796   8.087   5.060   9.941 -0.4349  1.4479 -0.9062
26227SOL    HW285797   8.036   5.055   9.799 -1.2882 -1.5693 -0.5449
26228SOL     OW85798   8.011   3.229   9.426 -0.0545 -0.6268 -0.4988
26228SOL    HW185799   7.934   3.173   9.423 -0.3312 -0.2482 -0.5383
26228SOL    HW285800   8.067   3.189   9.492  0.8400 -2.3247 -2.1926
26229SOL     OW85801   2.058   4.293   0.838  0.0522 -0.0626  0.0683
26229SOL    HW185802   2.149   4.264   0.839  0.9216  2.3174 -1.2595
26229SOL    HW285803   2.052   4.350   0.761 -3.1671 -1.8194 -1.1637
26230SOL     OW85804  12.057  11.719   9.668 -0.0514  0.4308  0.0919
26230SOL    HW185805  12.059  11.765   9.584 -0.8783  0.6922  0.2077
26230SOL    HW285806  11.967  11.730   9.700 -0.3075 -1.3381  0.0875
26231SOL     OW85807   6.750   5.125   9.009  0.0702  0.3026 -0.7556
26231SOL    HW185808   6.785   5.051   8.960 -0.4509 -1.3692  1.2376
26231SOL    HW285809   6.795   5.121   9.093  0.6606  2.8183 -0.8849
26232SOL     OW85810   3.566   9.895   5.097 -0.0934  0.0723  0.1012
26232SOL    HW185811   3.477   9.881   5.130 -0.0803 -0.6891 -0.1663
26232SOL    HW285812   3.622   9.849   5.159 -0.1093 -1.8977 -1.2257
26233SOL     OW85813   1.272   5.354   9.016 -0.4541 -0.3658 -0.4322
26233SOL    HW185814   1.250   5.305   9.095  1.7332 -0.1657  0.3544
26233SOL    HW285815   1.312   5.434   9.048  0.8135 -0.4487 -1.7253
26234SOL     OW85816   1.538  11.166  10.367 -0.3952  0.1428  0.3113
26234SOL    HW185817   1.487  11.108  10.311 -0.1463 -0.9047  1.1424
26234SOL    HW285818   1.557  11.114  10.445  0.4801  1.0903  0.7565
26235SOL     OW85819   9.183   8.699   6.773 -0.2717  0.0474  0.2870
26235SOL    HW185820   9.140   8.626   6.728 -0.5144  1.1710 -1.3990
26235SOL    HW285821   9.263   8.661   6.809 -2.2177 -1.9540  2.9424
26236SOL     OW85822  10.013   4.686  12.051 -0.0880  0.5212 -0.5758
26236SOL    HW185823  10.076   4.680  12.123 -0.7158  3.0510  0.3152
26236SOL    HW285824  10.061   4.727  11.980  0.3742 -1.4619 -1.4652
26237SOL     OW85825  11.421   9.856  10.781  0.0201  0.3344 -0.0843
26237SOL    HW185826  11.376   9.821  10.857 -1.1456  0.8797 -0.4883
26237SOL    HW285827  11.495   9.905  10.816  1.4027 -2.0536  0.5082
26238SOL     OW85828   5.391   1.004   5.940  0.2772  0.1183  0.4960
26238SOL    HW185829   5.326   1.073   5.954 -0.9881 -1.2433  1.6868
26238SOL    HW285830   5.461   1.024   6.001  0.6257  1.1308 -0.1985
26239SOL     OW85831   4.138  12.671  12.333  0.2979  0.0877 -0.6176
26239SOL    HW185832   4.070  12.691  12.269  2.2933  0.8974 -2.6435
26239SOL    HW285833   4.112  12.587  12.370 -0.6905 -0.7424 -2.9873
26240SOL     OW85834   6.962   9.410  12.587  0.1014  0.3818 -0.0356
26240SOL    HW185835   6.981   9.334  12.643 -2.2203 -1.0537 -1.0106
26240SOL    HW285836   6.900   9.462  12.638  0.0333  0.4863 -0.2248
26241SOL     OW85837   8.141   0.836  10.267 -0.4108 -0.1391 -0.4482
26241SOL    HW185838   8.128   0.743  10.287  1.1256 -0.1227  0.8323
26241SOL    HW285839   8.215   0.862  10.322 -1.4807  2.1305  0.0287
26242SOL     OW85840   0.624   7.749   1.803 -0.4754  0.3424 -0.3437
26242SOL    HW185841   0.558   7.817   1.796  0.2328  0.9492 -1.4861
26242SOL    HW285842   0.668   7.766   1.886  0.3936  1.9867 -1.0807
26243SOL     OW85843   7.221   4.190   1.520 -0.3356  0.1435  0.8506
26243SOL    HW185844   7.137   4.162   1.556 -0.4349 -0.8235 -0.0796
26243SOL    HW285845   7.204   4.275   1.481 -1.0972 -0.4044 -0.0465
26244SOL     OW85846   8.496   2.507   2.519  0.0676  0.2263 -0.3483
26244SOL    HW185847   8.512   2.447   2.592 -2.6847  1.0596  1.1007
26244SOL    HW285848   8.514   2.456   2.441  0.3574 -1.6281  0.8682
26245SOL     OW85849   2.001   8.209  12.000  0.8781  0.0705  0.1955
26245SOL    HW185850   1.920   8.226  11.952  0.4399 -0.6280  0.6762
26245SOL    HW285851   2.032   8.125  11.966  0.8801 -0.1386  0.7097
26246SOL     OW85852  10.039   7.831   0.740  0.3407 -0.4568 -0.6249
26246SOL    HW185853   9.948   7.820   0.767 -0.0950  0.3664 -1.6882
26246SOL    HW285854  10.089   7.814   0.819 -0.6724 -1.7858 -0.2231
26247SOL     OW85855   4.680  12.372   3.587 -0.4273 -0.7887 -0.4011
26247SOL    HW185856   4.648  12.304   3.527 -0.2011 -0.5000 -0.8462
26247SOL    HW285857   4.662  12.336   3.674 -1.1492 -1.0248 -0.6356
26248SOL     OW85858   9.315   2.773   5.278  0.2657 -0.3160 -0.0718
26248SOL    HW185859   9.370   2.837   5.233  0.7754 -1.2325 -0.8070
26248SOL    HW285860   9.286   2.817   5.357 -0.0361  1.0944 -0.9355
26249SOL     OW85861   8.183   0.765   4.265 -0.3116 -0.1707  0.2424
26249SOL    HW185862   8.120   0.800   4.328  0.3086 -1.8038  1.8805
26249SOL    HW285863   8.224   0.692   4.311  3.4500  1.3129 -0.3746
26250SOL     OW85864   3.668   7.461   4.761 -0.4345 -0.0467 -0.1050
26250SOL    HW185865   3.656   7.553   4.782  0.2101  0.4212 -1.6382
26250SOL    HW285866   3.680   7.459   4.666  0.9178 -1.5584  0.0478
26251SOL     OW85867  11.090   2.807   1.704  0.3598 -0.0810 -0.2167
26251SOL    HW185868  10.999   2.836   1.699 -0.0568 -1.1805  0.6850
26251SOL    HW285869  11.136   2.879   1.748 -0.3057 -0.0132  0.3869
26252SOL     OW85870  10.070   4.561   3.134  0.4195 -0.3772 -0.2152
26252SOL    HW185871  10.068   4.645   3.089  2.7925 -1.3094 -2.2675
26252SOL    HW285872   9.982   4.525   3.121  0.0665  0.7993 -1.2605
26253SOL     OW85873   4.674   6.397   0.829 -0.3710  0.1067  0.5864
26253SOL    HW185874   4.691   6.318   0.779 -1.4360  0.4802 -0.4116
26253SOL    HW285875   4.628   6.366   0.908  1.6438 -0.5214  1.5794
26254SOL     OW85876   9.518   3.662  11.341 -0.1105  0.4453  0.3398
26254SOL    HW185877   9.589   3.666  11.406  1.3353 -0.0677 -1.1461
26254SOL    HW285878   9.482   3.751  11.339  2.3288  1.4929 -0.7814
26255SOL     OW85879  12.567   5.121  12.333 -0.2524  0.3224 -0.3088
26255SOL    HW185880  12.641   5.178  12.354  0.6313 -0.8602 -0.0974
26255SOL    HW285881  12.554   5.069  12.412  0.7016 -1.5974 -1.3456
26256SOL     OW85882   2.404   8.269   2.718  0.3377 -0.2118 -0.1219
26256SOL    HW185883   2.496   8.244   2.715  0.5720  0.2526  1.8811
26256SOL    HW285884   2.387   8.287   2.811 -1.9803 -1.0623 -0.3228
26257SOL     OW85885   8.971   5.173  12.714 -0.1988  0.3127  0.1724
26257SOL    HW185886   9.009   5.250  12.672  2.1623 -0.6257  0.4271
26257SOL    HW285887   8.979   5.190  12.808  0.2839 -0.1889  0.2308
26258SOL     OW85888   0.767   7.068   0.943  0.0423  0.3023 -0.1723
26258SOL    HW185889   0.724   7.097   1.023 -0.0096  1.3946 -0.5710
26258SOL    HW285890   0.705   7.009   0.901 -0.4998  0.7827 -0.0580
26259SOL     OW85891  12.880   1.163   9.685  0.3717 -0.0544 -0.7604
26259SOL    HW185892  12.867   1.215   9.606 -0.4333  0.1262 -0.5148
26259SOL    HW285893  12.796   1.120   9.699  1.3114 -2.2414 -1.5269
26260SOL     OW85894   6.587   0.260  11.508 -0.7635 -0.1094 -0.0788
26260SOL    HW185895   6.567   0.334  11.565 -0.9777 -0.5769  0.4600
26260SOL    HW285896   6.570   0.183  11.561  1.0799 -0.5646 -0.0597
26261SOL     OW85897   3.052   2.067   9.992  0.5066  0.3445  0.1055
26261SOL    HW185898   3.073   2.073   9.898  1.1729 -0.0414  0.2204
26261SOL    HW285899   2.980   2.005   9.996 -0.0235  0.9309 -0.2170
26262SOL     OW85900   6.831   8.744   7.984 -0.0162  0.0692 -0.3045
26262SOL    HW185901   6.856   8.824   8.029 -0.5604  1.5937 -2.5699
26262SOL    HW285902   6.911   8.692   7.982  0.1494  0.1669  1.8628
26263SOL     OW85903  11.480   4.607   6.304 -0.2668 -0.5459 -0.3743
26263SOL    HW185904  11.463   4.530   6.358 -0.2964 -0.0917  0.2870
26263SOL    HW285905  11.464   4.578   6.215 -1.4024 -0.9935 -0.0428
26264SOL     OW85906   2.469  10.128   9.920  0.0512 -0.1356  0.2234
26264SOL    HW185907   2.543  10.164   9.871  0.6107 -0.9310  0.4573
26264SOL    HW285908   2.458  10.188   9.994  0.2712  0.1573  0.0186
26265SOL     OW85909   6.525   5.137   5.478  0.1271  0.2607 -0.1048
26265SOL    HW185910   6.482   5.119   5.394  2.4408  1.1979 -1.6178
26265SOL    HW285911   6.534   5.052   5.520  1.0282 -0.6231 -1.9697
26266SOL     OW85912   3.000   1.319   0.355  0.0540  0.0568  0.7534
26266SOL    HW185913   3.073   1.377   0.376 -0.4888  1.0582  0.0092
26266SOL    HW285914   3.038   1.232   0.354  1.3721  0.5983 -0.0998
26267SOL     OW85915   1.757   0.704   8.349  0.8561  0.3278  0.3352
26267SOL    HW185916   1.796   0.791   8.345  1.9702 -0.1941 -0.9854
26267SOL    HW285917   1.693   0.704   8.278 -0.0363  0.4547  1.1159
26268SOL     OW85918   7.878  11.660   6.131  0.1704  0.1870 -0.0173
26268SOL    HW185919   7.879  11.754   6.146  0.5278  0.6205 -2.3178
26268SOL    HW285920   7.812  11.648   6.063 -1.7571 -1.5989  2.0136
26269SOL     OW85921   4.505   7.588   3.251 -0.3627  0.3830 -0.3541
26269SOL    HW185922   4.455   7.656   3.296 -1.1726  1.6625 -2.9921
26269SOL    HW285923   4.439   7.533   3.209  0.3652 -0.2145 -0.7459
26270SOL     OW85924   0.675  12.193   9.575 -0.1846 -0.0082  0.0497
26270SOL    HW185925   0.623  12.120   9.609  1.4649 -0.7467  1.1107
26270SOL    HW285926   0.706  12.238   9.653  0.8295  0.3536 -0.5450
26271SOL     OW85927   6.010   5.081  12.946 -0.7777  0.1724 -0.3397
26271SOL    HW185928   6.096   5.051  12.973 -0.6406 -0.0388 -1.0080
26271SOL    HW285929   5.957   5.076  13.026 -0.5235 -0.9654 -0.2249
26272SOL     OW85930   5.349   4.866   2.409 -0.1503 -0.0963  0.1272
26272SOL    HW185931   5.331   4.888   2.501  1.5943 -0.8843  0.6898
26272SOL    HW285932   5.429   4.914   2.388  0.8982 -1.8986 -0.1684
26273SOL     OW85933   5.386  12.751   0.447  0.3044  0.6680  0.1326
26273SOL    HW185934   5.353  12.840   0.451 -0.1374  0.4757  1.1043
26273SOL    HW285935   5.461  12.750   0.506  0.1586  0.3347  0.3137
26274SOL     OW85936   1.387   8.760   5.383  0.0517 -0.4236  0.5960
26274SOL    HW185937   1.418   8.669   5.377 -0.6486 -0.7149  1.1367
26274SOL    HW285938   1.466   8.812   5.394  0.7965 -0.6071 -2.7410
26275SOL     OW85939   5.733   5.698   1.455 -0.1912  0.6170  0.2852
26275SOL    HW185940   5.757   5.613   1.417 -0.0602  0.6511  0.2910
26275SOL    HW285941   5.780   5.701   1.539 -0.5009  0.5296  0.4648
26276SOL     OW85942  12.109   9.132  10.653 -0.7735 -0.0547 -0.2168
26276SOL    HW185943  12.088   9.189  10.580  0.3247  1.6020  0.6995
26276SOL    HW285944  12.180   9.076  10.621 -1.4785 -0.5445 -0.9485
26277SOL     OW85945   8.543   5.161   1.027  0.6583 -0.1326 -0.1208
26277SOL    HW185946   8.569   5.248   0.994  0.7462  0.0426  0.3971
26277SOL    HW285947   8.544   5.105   0.950 -0.3866  0.5467 -0.6530
26278SOL     OW85948   7.501   5.016   1.154  0.3689 -0.0234  0.0074
26278SOL    HW185949   7.595   5.020   1.136  0.5344 -0.1704  0.7953
26278SOL    HW285950   7.492   4.945   1.218 -0.5734 -1.6426 -1.8330
26279SOL     OW85951  12.167   5.587   2.652 -0.1956 -0.1327  0.7298
26279SOL    HW185952  12.100   5.613   2.715  0.0076  1.1866  0.4271
26279SOL    HW285953  12.220   5.523   2.699 -1.1027 -0.4949  1.2915
26280SOL     OW85954  12.920  11.945   2.157  0.4327  0.1757 -0.3101
26280SOL    HW185955  13.012  11.948   2.183  0.4984  0.8849 -0.5813
26280SOL    HW285956  12.894  11.854   2.169  0.6202  0.3396  1.6080
26281SOL     OW85957   9.318   3.613   4.503  0.7611 -0.0022  0.3975
26281SOL    HW185958   9.227   3.628   4.481  0.0796 -1.6690  1.8319
26281SOL    HW285959   9.344   3.690   4.553  0.4057  0.8425 -0.6850
26282SOL     OW85960  10.653  12.409   2.316  1.1202  0.6802  0.1444
26282SOL    HW185961  10.637  12.498   2.350 -1.0561  0.1119  0.7635
26282SOL    HW285962  10.605  12.406   2.234 -0.0549 -0.3406  0.8310
26283SOL     OW85963   9.254   6.928   1.704  0.0157  0.7328  0.0648
26283SOL    HW185964   9.290   6.843   1.681 -1.9970  0.0651 -0.8814
26283SOL    HW285965   9.257   6.932   1.799 -0.6352 -0.7961  0.1749
26284SOL     OW85966  11.827   8.380   9.091  0.4526  0.2257  0.0226
26284SOL    HW185967  11.790   8.467   9.076 -1.4764 -0.2180  1.8005
26284SOL    HW285968  11.903   8.376   9.032 -0.5415  2.3492 -1.5479
26285SOL     OW85969   1.613   7.423   2.418  0.0299 -0.1968 -0.4781
26285SOL    HW185970   1.700   7.414   2.455  0.0342 -0.0725 -0.4599
26285SOL    HW285971   1.570   7.340   2.439 -0.0892  0.0155  0.1280
26286SOL     OW85972   2.586   9.700  10.768 -0.0003  0.2358  0.0662
26286SOL    HW185973   2.650   9.737  10.829  0.4772 -0.4229 -0.0252
26286SOL    HW285974   2.592   9.606  10.781  0.5625  0.0437 -1.4499
26287SOL     OW85975   4.918   2.589   6.971  1.0090  0.3395  0.1121
26287SOL    HW185976   4.911   2.530   6.896 -0.3364 -0.7526  1.0750
26287SOL    HW285977   4.932   2.532   7.046 -0.9985  1.1476  1.1721
26288SOL     OW85978  10.903  11.009   9.447  0.6000  0.1855  0.3806
26288SOL    HW185979  10.832  11.068   9.472 -0.0804  0.6229 -2.2629
26288SOL    HW285980  10.862  10.922   9.445  0.2737  0.3498 -0.5294
26289SOL     OW85981   2.171  10.214   9.981  0.1128 -0.0027  0.5217
26289SOL    HW185982   2.101  10.168  10.028  1.2505 -1.7967  0.5547
26289SOL    HW285983   2.251  10.190  10.028  1.0730 -0.3734 -1.2487
26290SOL     OW85984   7.461   2.132  10.677  0.3496 -0.0790  0.4512
26290SOL    HW185985   7.382   2.173  10.711  0.1041  0.1999 -0.4260
26290SOL    HW285986   7.446   2.038  10.686 -0.4017 -0.0517 -0.3795
26291SOL     OW85987  12.750   4.209   3.360 -0.3410 -0.1775 -0.1037
26291SOL    HW185988  12.823   4.187   3.418 -1.2810 -1.2822  0.7228
26291SOL    HW285989  12.760   4.302   3.343 -0.0711  0.2156  1.9244
26292SOL     OW85990   5.443   5.584   2.319  0.0533  0.0928  0.3593
26292SOL    HW185991   5.506   5.630   2.375  1.3188 -1.0245 -0.0834
26292SOL    HW285992   5.364   5.638   2.323  1.6933  2.8195 -0.8769
26293SOL     OW85993   3.378   0.008   7.346  0.5082 -0.3107 -0.3726
26293SOL    HW185994   3.371   0.101   7.322 -0.7575 -0.0233  1.0001
26293SOL    HW285995   3.472  -0.007   7.355  0.6874  1.1232  0.4265
26294SOL     OW85996   9.656   8.703   9.629 -0.5281 -0.5286  0.3175
26294SOL    HW185997   9.678   8.762   9.558 -0.8195  0.3234  0.9148
26294SOL    HW285998   9.731   8.645   9.637  0.0136  0.1374  0.0945
26295SOL     OW85999   1.357   0.549   2.848 -0.1417  0.0494  0.3258
26295SOL    HW186000   1.398   0.512   2.770  0.9520  1.7436  0.0386
26295SOL    HW286001   1.418   0.530   2.919  0.2569  0.9549  0.2378
26296SOL     OW86002  11.806  10.805   7.053 -0.4425  0.4948  0.3833
26296SOL    HW186003  11.786  10.726   7.003  1.4976 -0.0786  0.4315
26296SOL    HW286004  11.723  10.852   7.058 -1.9763 -2.1280  1.4669
26297SOL     OW86005   1.867   4.818   0.099  0.0608  0.1089  0.0668
26297SOL    HW186006   1.813   4.836   0.177 -3.3659 -3.1704 -1.2035
26297SOL    HW286007   1.867   4.901   0.050  1.0576  1.8216  2.7476
26298SOL     OW86008   6.531   3.205   2.689 -0.3502  0.1268 -0.2617
26298SOL    HW186009   6.474   3.269   2.732 -0.6509 -1.0109  1.1313
26298SOL    HW286010   6.493   3.120   2.713  0.5500 -0.5977 -1.3126
26299SOL     OW86011   9.195   2.090   4.758 -0.1251 -0.0915  0.1952
26299SOL    HW186012   9.103   2.108   4.738  0.0854 -0.8814 -1.7060
26299SOL    HW286013   9.242   2.168   4.730  0.0199 -0.6633 -1.2436
26300SOL     OW86014   8.347   6.989   6.303 -0.0726  0.1958 -0.1694
26300SOL    HW186015   8.406   7.052   6.343 -0.7615  0.9640 -0.3368
26300SOL    HW286016   8.315   6.936   6.377  1.2653 -0.6299 -0.1540
26301SOL     OW86017   6.397   2.936   5.805 -0.2606  0.5169  0.0838
26301SOL    HW186018   6.306   2.922   5.782 -0.0960  0.9447 -0.9187
26301SOL    HW286019   6.397   2.949   5.900 -1.0814 -0.6197  0.2583
26302SOL     OW86020  12.501   0.694   4.715  0.4563  0.3126 -0.2281
26302SOL    HW186021  12.421   0.729   4.755 -0.0619  1.5665 -2.2152
26302SOL    HW286022  12.481   0.689   4.621  2.1895 -0.8599 -0.5841
26303SOL     OW86023   1.887   9.348   7.319  0.5769 -0.8958 -0.1846
26303SOL    HW186024   1.821   9.290   7.283 -0.3078 -0.2462  0.3389
26303SOL    HW286025   1.847   9.384   7.398 -0.4012  3.0873 -2.2133
26304SOL     OW86026   8.126   7.083   4.709  0.1198  0.0586  0.1816
26304SOL    HW186027   8.106   7.004   4.659 -0.9866  0.3049  0.2163
26304SOL    HW286028   8.113   7.058   4.800 -0.6928  0.4063  0.1652
26305SOL     OW86029   2.395  10.797   5.015  0.6951  0.0546 -0.1933
26305SOL    HW186030   2.395  10.851   4.937  0.0511 -0.4022 -0.5115
26305SOL    HW286031   2.363  10.711   4.986 -0.5386  0.1662  0.7565
26306SOL     OW86032   5.528  11.839  12.044  0.5887  0.0446 -0.4561
26306SOL    HW186033   5.571  11.773  11.990 -0.6449 -1.3701  0.1924
26306SOL    HW286034   5.598  11.881  12.093  1.4077 -0.8401 -0.8467
26307SOL     OW86035   3.973   9.115   6.029 -0.2560  0.5177  0.0645
26307SOL    HW186036   3.993   9.156   6.113 -1.4046  1.2736 -0.0147
26307SOL    HW286037   3.884   9.082   6.039 -0.2047  0.1426 -0.6750
26308SOL     OW86038  12.121   0.248   6.344  0.2573  0.2980  0.1799
26308SOL    HW186039  12.069   0.286   6.416 -1.3528 -0.0248 -0.7735
26308SOL    HW286040  12.178   0.185   6.388 -0.0255  0.7759  1.2958
26309SOL     OW86041   3.576  11.815   8.215  0.0105  0.0400 -0.1315
26309SOL    HW186042   3.553  11.844   8.127  0.9728 -0.3207 -0.5157
26309SOL    HW286043   3.646  11.874   8.243  0.7724 -0.7873 -0.2347
26310SOL     OW86044   3.587   5.394   3.059 -0.6216 -0.0517 -0.0961
26310SOL    HW186045   3.645   5.466   3.034  1.3071 -0.6566  2.2215
26310SOL    HW286046   3.639   5.315   3.048 -1.4518 -0.7580  0.7789
26311SOL     OW86047   1.036   0.827   0.167 -0.7807 -0.1015  0.0283
26311SOL    HW186048   1.063   0.740   0.137 -1.0663 -0.4172  0.6645
26311SOL    HW286049   0.964   0.851   0.109  0.3437  0.4202 -1.1961
26312SOL     OW86050  12.159   0.041   0.196  0.2897 -0.0583 -0.3902
26312SOL    HW186051  12.165  -0.015   0.118 -2.1823 -0.1210 -0.6136
26312SOL    HW286052  12.231   0.011   0.252  0.4459 -1.9110 -1.4663
26313SOL     OW86053   9.461   8.037   0.914 -0.1924 -0.1699 -0.0093
26313SOL    HW186054   9.437   7.951   0.951 -0.5266  0.0674  0.3301
26313SOL    HW286055   9.404   8.099   0.960  0.6111  0.3283  0.3180
26314SOL     OW86056   0.147   3.522   1.587  0.2532  0.3764 -0.4051
26314SOL    HW186057   0.119   3.458   1.653  1.8199  0.1562  0.0916
26314SOL    HW286058   0.065   3.552   1.547 -0.5365 -2.2803 -1.0035
26315SOL     OW86059   4.681   1.720   2.713  0.3744 -0.0277 -0.0672
26315SOL    HW186060   4.715   1.655   2.652  0.4443  0.7665 -0.8905
26315SOL    HW286061   4.755   1.778   2.730  0.4190 -0.3685  0.9596
26316SOL     OW86062   6.769   6.713   1.878 -0.2341 -0.4759 -0.2486
26316SOL    HW186063   6.678   6.717   1.848 -0.3613 -1.1822  0.0317
26316SOL    HW286064   6.821   6.723   1.798 -0.5188  1.6528 -0.2250
26317SOL     OW86065   1.108   7.957   9.565 -0.1853 -0.6152  0.4090
26317SOL    HW186066   1.175   7.945   9.498 -1.4572  0.4008 -1.1420
26317SOL    HW286067   1.130   8.041   9.606 -0.9618  0.1749 -0.7272
26318SOL     OW86068   7.555   8.747   4.624 -0.2591 -0.3681  0.6335
26318SOL    HW186069   7.583   8.837   4.642  1.3318 -0.8249  0.6412
26318SOL    HW286070   7.632   8.705   4.585 -1.0020 -1.6970  0.5213
26319SOL     OW86071   5.060   4.146   7.393 -0.2664 -0.0264  0.2956
26319SOL    HW186072   5.107   4.064   7.377 -1.4526 -0.5722 -0.5775
26319SOL    HW286073   5.072   4.196   7.312  0.4365  0.6742  0.8168
26320SOL     OW86074   4.260   8.073   6.785 -0.5423 -0.0702 -0.0080
26320SOL    HW186075   4.256   7.980   6.806  0.8077 -0.3629 -0.9263
26320SOL    HW286076   4.289   8.076   6.694  2.3701  1.2615  0.8568
26321SOL     OW86077   4.480   9.404   7.693  0.1392  0.1309 -0.5110
26321SOL    HW186078   4.438   9.330   7.737  2.1407  0.6394  2.5860
26321SOL    HW286079   4.408   9.454   7.656 -1.6369 -1.1314  1.0329
26322SOL     OW86080   8.495  10.818   2.295  0.2528  0.1791 -0.4033
26322SOL    HW186081   8.488  10.830   2.200  2.2344 -2.3294 -0.9777
26322SOL    HW286082   8.574  10.865   2.320  0.1406  0.2185 -0.1166
26323SOL     OW86083   9.207   7.067   0.255 -0.2647 -0.3787  0.2948
26323SOL    HW186084   9.140   7.121   0.213 -0.5126 -1.0801 -0.2322
26323SOL    HW286085   9.179   7.060   0.346  0.4844  1.4890  0.7144
26324SOL     OW86086   0.620   2.940   0.953  0.0914 -0.6340  0.4365
26324SOL    HW186087   0.528   2.938   0.980 -0.3048  0.3816 -0.7507
26324SOL    HW286088   0.620   2.991   0.872  1.8257  0.1200  0.8656
26325SOL     OW86089   3.036   8.809   9.902  0.2851 -0.2204  0.5878
26325SOL    HW186090   3.040   8.895   9.861 -0.4627  0.3455  1.6512
26325SOL    HW286091   2.971   8.819   9.972 -1.4375 -2.2205 -0.6231
26326SOL     OW86092   4.299   2.602   9.421  0.1762 -0.0216  1.0100
26326SOL    HW186093   4.218   2.557   9.398 -0.3526 -0.7856  3.9044
26326SOL    HW286094   4.276   2.656   9.496  1.9160  1.3842  0.6069
26327SOL     OW86095   3.025  11.834   2.297  0.1774  0.3631  0.5924
26327SOL    HW186096   2.963  11.874   2.236  0.7670  0.2885 -0.0718
26327SOL    HW286097   2.971  11.778   2.353 -0.3101 -0.0381 -0.2541
26328SOL     OW86098   7.358   3.072   0.117 -0.6500 -0.5082  0.1303
26328SOL    HW186099   7.266   3.060   0.138 -0.0921 -1.0082  2.6350
26328SOL    HW286100   7.384   2.990   0.075 -1.2593 -0.5080 -0.2526
26329SOL     OW86101  11.176   4.947   1.109  0.2390  0.0857  0.0853
26329SOL    HW186102  11.155   5.040   1.120  0.8653  0.3197 -0.6452
26329SOL    HW286103  11.113   4.902   1.165 -0.0600  0.9503  0.4642
26330SOL     OW86104   6.840   9.403  11.330 -0.1256 -0.3439 -0.6726
26330SOL    HW186105   6.789   9.473  11.371  1.8482 -0.0359  1.4721
26330SOL    HW286106   6.813   9.323  11.376  2.0730 -0.0022  1.4330
26331SOL     OW86107   5.928  11.017   5.090  0.0457  0.5802 -0.4804
26331SOL    HW186108   5.970  11.067   5.160  2.0771 -0.4036 -0.9000
26331SOL    HW286109   5.838  11.050   5.087 -0.3919  0.1769  3.0502
26332SOL     OW86110   7.089   0.609   4.494 -0.0128 -0.6033  0.0176
26332SOL    HW186111   7.094   0.701   4.519  1.9794 -0.0103 -2.2015
26332SOL    HW286112   7.001   0.598   4.459 -0.4895  0.2601  0.8944
26333SOL     OW86113   9.471   2.630   8.626  0.0589 -0.2536 -0.1530
26333SOL    HW186114   9.426   2.546   8.620 -0.6025 -0.0035  0.9755
26333SOL    HW286115   9.563   2.608   8.634  0.0587 -0.8108 -1.3957
26334SOL     OW86116   7.481  12.650  10.421 -0.0209  0.0983  0.3478
26334SOL    HW186117   7.540  12.584  10.382 -1.3288 -1.1267  0.3519
26334SOL    HW286118   7.521  12.734  10.398  1.5695 -0.6715  0.1030
26335SOL     OW86119  12.130   7.110   0.123  0.3030 -0.3190  0.3564
26335SOL    HW186120  12.113   7.071   0.209 -0.1204 -0.3844  0.2441
26335SOL    HW286121  12.171   7.040   0.073 -0.8760 -0.7764  0.0079
26336SOL     OW86122  11.708   7.056   7.711 -0.3223 -0.2293  0.0437
26336SOL    HW186123  11.642   7.118   7.678 -0.0987  1.6513  2.8111
26336SOL    HW286124  11.767   7.042   7.636 -1.3858  1.5128 -1.1929
26337SOL     OW86125   4.282   3.604   0.616 -0.0658  0.3684  0.3709
26337SOL    HW186126   4.334   3.684   0.621  1.2260 -0.4370  0.3888
26337SOL    HW286127   4.316   3.557   0.540 -1.7944  0.4721 -0.5268
26338SOL     OW86128  10.911  12.527   0.877 -0.7295  0.0798  0.5430
26338SOL    HW186129  10.887  12.515   0.968 -1.4609 -0.0337  0.3408
26338SOL    HW286130  10.898  12.441   0.837 -1.1869  0.3278  0.1586
26339SOL     OW86131  11.458   4.614   3.831 -0.1825 -0.5830 -0.2935
26339SOL    HW186132  11.499   4.529   3.846 -0.3367 -0.4994  0.6707
26339SOL    HW286133  11.476   4.633   3.739  1.3947 -0.8346 -0.0648
26340SOL     OW86134   1.112   4.509  11.280 -0.1728  0.8077  0.3455
26340SOL    HW186135   1.019   4.531  11.285 -0.1783  0.8009  0.2699
26340SOL    HW286136   1.119   4.451  11.204 -0.1821  0.4216  0.6382
26341SOL     OW86137  11.961   4.479  12.381 -0.4875 -0.3463 -0.4145
26341SOL    HW186138  11.955   4.513  12.292  0.2791 -0.0507 -0.3592
26341SOL    HW286139  11.985   4.555  12.434 -2.8160 -0.0681  0.3657
26342SOL     OW86140   2.996  10.943   3.429  0.5851  0.5432 -0.7434
26342SOL    HW186141   3.081  10.980   3.406  0.1547  2.1687  0.0814
26342SOL    HW286142   2.933  11.010   3.402 -0.2847  0.1546  0.2451
26343SOL     OW86143   9.528   6.271   4.757  1.0418 -0.1662  0.3207
26343SOL    HW186144   9.477   6.239   4.682  1.5332  2.1783 -1.1444
26343SOL    HW286145   9.552   6.193   4.806 -1.1368 -1.6111 -0.7710
26344SOL     OW86146   9.531   7.908   4.573  0.1787  0.4177 -0.1577
26344SOL    HW186147   9.491   7.846   4.511  0.5949  0.3442 -0.3536
26344SOL    HW286148   9.561   7.853   4.646  2.2274  0.1128 -1.1605
26345SOL     OW86149   3.888   2.061   4.608 -0.0500 -0.3542 -0.1620
26345SOL    HW186150   3.811   2.035   4.559  0.6301 -2.5333 -0.1903
26345SOL    HW286151   3.959   2.059   4.544  0.2134  0.6212  0.0846
26346SOL     OW86152   8.758  12.952   0.913 -0.1364  0.0631 -0.2491
26346SOL    HW186153   8.822  12.998   0.967 -0.1549 -0.9509  0.6715
26346SOL    HW286154   8.795  12.864   0.901 -1.1842 -0.4391  0.0307
26347SOL     OW86155  12.133   0.924   9.553  0.1176 -0.2746 -0.3251
26347SOL    HW186156  12.089   0.898   9.472  0.8987 -0.9904 -0.5254
26347SOL    HW286157  12.068   0.979   9.598  0.2913  1.6669 -2.2434
26348SOL     OW86158   8.911  11.058  10.574  0.0511 -0.4306  0.7408
26348SOL    HW186159   8.828  11.069  10.621 -0.5374  0.0864 -0.3574
26348SOL    HW286160   8.954  11.143  10.583  0.4304 -0.6750  1.2464
26349SOL     OW86161   2.085   7.193   4.493 -0.1847  0.5599  0.4527
26349SOL    HW186162   2.156   7.134   4.465 -0.7581 -0.1277  0.4145
26349SOL    HW286163   2.125   7.280   4.495 -0.0628  0.6609 -2.4175
26350SOL     OW86164  12.287  12.192  10.983  0.0096  0.3699  0.1575
26350SOL    HW186165  12.358  12.139  11.018 -0.2748 -0.0761  0.0737
26350SOL    HW286166  12.256  12.143  10.906  0.2286  1.0252 -0.3627
26351SOL     OW86167   1.834   8.112   4.701  0.1980  0.3213 -0.0696
26351SOL    HW186168   1.864   8.050   4.634 -1.6340 -1.1344  0.3582
26351SOL    HW286169   1.742   8.127   4.680 -0.0371  0.9431  1.2929
26352SOL     OW86170   6.032   0.690   6.372 -0.0096 -0.0049  0.4390
26352SOL    HW186171   6.031   0.623   6.440 -0.5947 -1.4733 -0.9264
26352SOL    HW286172   5.983   0.763   6.409  0.9221 -0.1741  2.0977
26353SOL     OW86173   9.014   4.730   8.017  0.5586 -0.9078 -0.1559
26353SOL    HW186174   8.928   4.707   7.983  0.2825 -0.4538  0.2233
26353SOL    HW286175   9.015   4.694   8.106  0.3185  0.0673  0.2529
26354SOL     OW86176   4.705  10.029   4.524 -0.2436  0.5071 -0.1382
26354SOL    HW186177   4.663   9.944   4.516  1.8549 -0.5979 -0.3323
26354SOL    HW286178   4.799  10.009   4.527  0.4741  2.9431 -2.3201
26355SOL     OW86179   7.822   1.340   4.434 -0.4330 -0.3367 -0.8303
26355SOL    HW186180   7.883   1.286   4.383 -1.6547 -3.1272  0.4871
26355SOL    HW286181   7.836   1.313   4.525 -0.9132  1.8444 -0.0506
26356SOL     OW86182   0.565   2.108   8.997 -0.2169 -0.2903  0.2755
26356SOL    HW186183   0.645   2.078   8.954 -0.5207 -1.3258  0.4160
26356SOL    HW286184   0.497   2.097   8.931 -0.2603  0.5230  0.1782
26357SOL     OW86185  10.710   9.747   2.733  0.1023  0.1716  0.4330
26357SOL    HW186186  10.774   9.692   2.689 -0.4881  0.3158 -0.6257
26357SOL    HW286187  10.626   9.722   2.695 -0.5263 -0.1474  1.9238
26358SOL     OW86188   3.049   1.971  11.788  0.2516 -0.1878 -0.0702
26358SOL    HW186189   3.119   1.999  11.847  0.3331 -2.5265  1.0598
26358SOL    HW286190   3.067   1.878  11.772 -1.9598 -0.5800 -0.6318
26359SOL     OW86191   0.460   9.389   2.521  0.0716  0.0441  0.1018
26359SOL    HW186192   0.502   9.329   2.460 -0.1880 -0.9194  0.8512
26359SOL    HW286193   0.528   9.413   2.584  0.0304  0.0810  0.1334
26360SOL     OW86194  10.577   2.555   1.721 -0.6625  0.6406  0.0313
26360SOL    HW186195  10.515   2.547   1.649 -1.1877 -0.6584  0.6000
26360SOL    HW286196  10.565   2.645   1.753 -0.0105  1.4472 -1.8294
26361SOL     OW86197   0.430   1.451   9.006  0.1152 -0.2844  0.4116
26361SOL    HW186198   0.438   1.414   9.094  1.3807 -0.3918  0.2634
26361SOL    HW286199   0.504   1.512   8.999  0.6418 -1.0335 -0.9416
26362SOL     OW86200   3.375  12.594   2.272 -0.2366 -0.4966  0.1745
26362SOL    HW186201   3.406  12.564   2.357 -0.0144 -4.1534 -0.9984
26362SOL    HW286202   3.295  12.544   2.256  0.3778 -0.8850 -2.1894
26363SOL     OW86203  11.237   2.392   8.932  0.1180 -0.2275 -0.3078
26363SOL    HW186204  11.151   2.362   8.961 -0.0129  1.2110  0.8594
26363SOL    HW286205  11.220   2.431   8.846 -0.5858  0.9004  0.3239
26364SOL     OW86206   7.549  11.543   2.154 -0.1178  0.1355  0.5929
26364SOL    HW186207   7.454  11.547   2.167 -0.0474  0.6009  0.9747
26364SOL    HW286208   7.586  11.575   2.236  0.3602  0.8339  0.1139
26365SOL     OW86209  10.493  12.621   2.814  0.0099 -0.1490 -0.0201
26365SOL    HW186210  10.456  12.673   2.884  0.8677 -2.8521  2.6540
26365SOL    HW286211  10.417  12.594   2.762 -1.3917 -1.9654  2.7498
26366SOL     OW86212   8.787  10.578   1.054 -0.1155  0.4951 -0.0793
26366SOL    HW186213   8.819  10.643   0.991  0.3714  0.6573  0.3368
26366SOL    HW286214   8.786  10.496   1.005  2.3453  0.1718  0.3002
26367SOL     OW86215   5.085   1.225  11.712  0.2834 -0.2262 -0.1406
26367SOL    HW186216   5.116   1.262  11.629  0.2955 -0.3435 -0.1899
26367SOL    HW286217   5.119   1.284  11.779  2.2479 -1.3633 -0.0594
26368SOL     OW86218   0.545  10.288  10.831  0.6607 -0.2210  0.2843
26368SOL    HW186219   0.486  10.332  10.769  0.8961 -0.1465  0.1104
26368SOL    HW286220   0.488  10.260  10.902  0.4513  0.0581  0.2291
26369SOL     OW86221  11.858   4.049   1.878  0.5161  0.0848 -0.0133
26369SOL    HW186222  11.783   4.030   1.934 -0.2768  2.7500 -0.0390
26369SOL    HW286223  11.875   4.142   1.891  1.6263  0.3371 -2.6080
26370SOL     OW86224  10.121   4.130   3.341  0.2113 -0.2119 -0.2965
26370SOL    HW186225  10.029   4.150   3.325  0.0382 -1.4609 -1.0212
26370SOL    HW286226  10.133   4.145   3.434 -0.9148 -0.6712 -0.0544
26371SOL     OW86227  12.524   0.874  10.490 -0.3268 -0.3159  0.0577
26371SOL    HW186228  12.536   0.788  10.530  3.8675  1.0706  2.4352
26371SOL    HW286229  12.471   0.923  10.553  1.6906  0.2520  1.4042
26372SOL     OW86230   4.631   9.346   8.069 -0.6575  0.0524 -0.1647
26372SOL    HW186231   4.678   9.278   8.020 -0.8555  0.5743 -1.1175
26372SOL    HW286232   4.682   9.357   8.149 -0.2136 -0.7085 -0.3303
26373SOL     OW86233   7.806   4.434   1.532 -0.0752 -0.4109 -0.5082
26373SOL    HW186234   7.866   4.377   1.484 -0.4089 -0.5367 -0.7808
26373SOL    HW286235   7.721   4.420   1.491 -0.4069 -0.6535  0.2290
26374SOL     OW86236   0.096   3.556   6.165 -0.1060 -0.2784  0.1265
26374SOL    HW186237   0.044   3.476   6.156 -0.5041 -0.4431  2.9413
26374SOL    HW286238   0.034   3.622   6.195  0.7620  0.3341  0.6183
26375SOL     OW86239  12.050   5.732   8.603 -0.4624 -0.0674 -0.0626
26375SOL    HW186240  12.017   5.821   8.615 -2.3515 -0.7610  0.1770
26375SOL    HW286241  12.027   5.709   8.513 -1.7242 -0.9582  0.4507
26376SOL     OW86242   3.251   2.051  10.502  0.2465 -0.6165  0.3000
26376SOL    HW186243   3.322   2.071  10.441  0.4399 -0.8056  0.4628
26376SOL    HW286244   3.289   1.989  10.563  0.1439 -0.2052  0.7882
26377SOL     OW86245   2.352   9.389   9.000 -0.0495 -0.4893 -0.3878
26377SOL    HW186246   2.285   9.419   9.061  1.6787 -1.5539  2.2039
26377SOL    HW286247   2.345   9.449   8.926 -2.2505  0.9013  0.8313
26378SOL     OW86248  11.900   3.157   9.740  0.1466  0.2800 -0.5077
26378SOL    HW186249  11.934   3.218   9.805 -1.6634  0.5768  0.2311
26378SOL    HW286250  11.830   3.205   9.696  0.8172 -0.1906 -2.1742
26379SOL     OW86251  11.469   3.512   6.173 -0.1700  0.7491 -0.0513
26379SOL    HW186252  11.537   3.479   6.114 -0.6349  0.2213 -0.3092
26379SOL    HW286253  11.496   3.601   6.193  0.2787  0.7540 -0.6347
26380SOL     OW86254   4.003   4.135  12.435 -0.2486 -0.7700 -0.1942
26380SOL    HW186255   4.013   4.215  12.384  1.0183 -1.0108 -0.3550
26380SOL    HW286256   4.090   4.119  12.472 -0.9240 -1.0827  1.3299
26381SOL     OW86257   9.991   4.192   2.946  0.9044  0.0172 -0.3281
26381SOL    HW186258  10.064   4.151   2.899  0.2319 -1.5248 -0.0653
26381SOL    HW286259   9.951   4.121   2.995 -1.1171  0.7191 -0.8883
26382SOL     OW86260  10.307   1.428   0.194 -0.3193  0.0714  0.3821
26382SOL    HW186261  10.358   1.499   0.234 -0.1099  0.0521  0.1551
26382SOL    HW286262  10.308   1.449   0.100 -1.1982  0.3744  0.4298
26383SOL     OW86263   8.736   0.506   5.761  0.3914  0.0250  0.5600
26383SOL    HW186264   8.807   0.449   5.790  0.5374  0.1795  0.5019
26383SOL    HW286265   8.765   0.540   5.676  0.2636  0.1133  0.5518
26384SOL     OW86266   5.426   7.563   2.926  0.0201 -0.2288 -0.1054
26384SOL    HW186267   5.338   7.540   2.957  0.2269 -0.2971  0.4538
26384SOL    HW286268   5.436   7.655   2.951  0.8001 -0.7149  1.5541
26385SOL     OW86269   7.804   2.664   7.658 -0.6672  0.1272  0.5006
26385SOL    HW186270   7.796   2.587   7.714  2.0293 -1.6227 -1.2644
26385SOL    HW286271   7.734   2.655   7.594 -0.8081 -0.4392  0.7310
26386SOL     OW86272  11.081   9.820   4.975  0.1002  0.0816  0.1692
26386SOL    HW186273  11.066   9.859   5.061 -0.5511  1.3209 -0.4675
26386SOL    HW286274  11.137   9.883   4.929 -1.3053  0.5244 -1.0310
26387SOL     OW86275   0.537  10.304   5.156  0.2445  0.4010 -0.3582
26387SOL    HW186276   0.583  10.272   5.077  0.4434 -0.8890  0.2494
26387SOL    HW286277   0.606  10.309   5.222 -0.2550 -0.4015  0.2392
26388SOL     OW86278   5.840   3.039   3.442  0.3613  0.4887  0.0241
26388SOL    HW186279   5.776   3.003   3.381 -0.2533 -0.6647  1.2965
26388SOL    HW286280   5.805   3.125   3.465  0.2468  0.6448 -0.7147
26389SOL     OW86281   7.163  11.887   1.842 -0.3412  0.9250 -0.4479
26389SOL    HW186282   7.111  11.927   1.912 -0.5084  0.4458 -0.2964
26389SOL    HW286283   7.100  11.861   1.776 -0.3831 -0.3235  0.0618
26390SOL     OW86284  11.240   0.275   1.151 -0.3554  0.6589  0.2815
26390SOL    HW186285  11.329   0.299   1.127 -0.4224  1.2206  0.5748
26390SOL    HW286286  11.213   0.212   1.084  0.7793 -0.6601  0.9980
26391SOL     OW86287  12.729   3.854   0.940 -0.2660  0.3316  0.3587
26391SOL    HW186288  12.753   3.847   0.848  1.1707 -0.5556  0.7574
26391SOL    HW286289  12.693   3.769   0.963 -0.6566  0.5611  0.6010
26392SOL     OW86290  11.285  12.481   4.179  0.9572  0.5943 -0.0445
26392SOL    HW186291  11.226  12.426   4.127  1.8682  0.5314 -1.0691
26392SOL    HW286292  11.281  12.445   4.267 -0.5541  0.6328 -0.0822
26393SOL     OW86293   3.332   8.299   4.500  0.1312 -0.9991 -0.1861
26393SOL    HW186294   3.359   8.255   4.419 -1.0239 -1.6649 -0.2294
26393SOL    HW286295   3.320   8.390   4.475  1.1463 -0.9185 -0.4319
26394SOL     OW86296   0.314   6.393   5.994  0.6513 -0.5355  0.2186
26394SOL    HW186297   0.275   6.479   5.978  0.3712 -0.7317 -0.1686
26394SOL    HW286298   0.351   6.399   6.082  0.2126 -0.1746  0.3783
26395SOL     OW86299   9.676   2.362   0.696 -0.3566  0.0991 -0.3996
26395SOL    HW186300   9.722   2.300   0.752  0.8219  3.0839  2.2271
26395SOL    HW286301   9.601   2.392   0.748 -0.5280  1.3422 -1.2921
26396SOL     OW86302  10.248   5.999   2.895 -0.1235 -0.1254 -0.4525
26396SOL    HW186303  10.269   5.910   2.866 -1.3887 -0.7001  0.2792
26396SOL    HW286304  10.280   6.056   2.825  2.0575 -1.0230 -0.2599
26397SOL     OW86305   0.854   9.928   1.000 -0.5152 -0.0336 -0.0252
26397SOL    HW186306   0.813   9.999   0.950 -0.2999 -0.3013 -0.5941
26397SOL    HW286307   0.944   9.925   0.968  0.2406  1.0999  1.8002
26398SOL     OW86308   2.035   1.774   6.023  0.0511 -0.5687  0.2437
26398SOL    HW186309   1.968   1.835   6.053 -0.5054 -1.0523  0.0100
26398SOL    HW286310   1.990   1.720   5.958  1.1068  0.1696 -1.1509
26399SOL     OW86311  12.059  10.805   6.751 -0.2165 -0.2410  0.0349
26399SOL    HW186312  12.003  10.880   6.733 -1.0135 -0.8352 -0.0324
26399SOL    HW286313  12.005  10.729   6.727 -0.0841 -0.9160  1.7781
26400SOL     OW86314  12.302  10.247   9.385  0.4414  0.2168  0.3127
26400SOL    HW186315  12.324  10.215   9.473  0.8654  0.5592  0.3300
26400SOL    HW286316  12.383  10.286   9.352  1.2919 -2.7811 -1.5269
26401SOL     OW86317   5.279   0.519   1.691  0.0178 -0.3019 -0.0497
26401SOL    HW186318   5.334   0.477   1.757  0.6012 -0.5444 -0.6722
26401SOL    HW286319   5.321   0.496   1.607 -0.2969  0.5844 -0.4592
26402SOL     OW86320   2.806   1.073   2.413 -0.0837 -0.4179  0.5610
26402SOL    HW186321   2.893   1.095   2.446 -0.4690  0.9300  0.7587
26402SOL    HW286322   2.776   1.154   2.371 -0.9904 -1.0586 -0.0488
26403SOL     OW86323   9.238   3.428   0.082 -0.4275  0.1853 -0.0093
26403SOL    HW186324   9.224   3.521   0.067  2.1398  0.7634  0.6664
26403SOL    HW286325   9.175   3.405   0.150 -0.6577  1.5988  0.2877
26404SOL     OW86326  11.758   1.587  11.940  0.3342  0.5711 -0.2780
26404SOL    HW186327  11.683   1.631  11.980 -3.0138 -3.5808 -1.1978
26404SOL    HW286328  11.743   1.595  11.846 -0.7735 -2.6207 -0.5030
26405SOL     OW86329   3.605   8.141   1.009 -0.4520 -0.1555 -0.2249
26405SOL    HW186330   3.583   8.233   1.028 -0.8412 -0.1802 -0.5606
26405SOL    HW286331   3.688   8.127   1.055  0.9482  1.1212 -2.1891
26406SOL     OW86332   2.644   3.369   9.180 -0.1404  0.1805 -0.6837
26406SOL    HW186333   2.630   3.460   9.207  0.6349  0.0685  0.1270
26406SOL    HW286334   2.595   3.361   9.098 -0.9397  1.0821 -0.3203
26407SOL     OW86335   1.292   3.344  11.031  0.0860  0.1133  0.1988
26407SOL    HW186336   1.356   3.398  11.078  0.8797 -0.2602 -0.4280
26407SOL    HW286337   1.340   3.264  11.009 -0.9073 -0.6261  0.6192
26408SOL     OW86338   4.967  10.845   2.337 -0.6525  0.6770 -0.2106
26408SOL    HW186339   4.969  10.930   2.381  1.1220  0.8850 -0.6312
26408SOL    HW286340   4.933  10.784   2.403 -1.9109  1.6760  0.1066
26409SOL     OW86341   2.167   7.773   0.637  0.2728 -0.0305 -0.1832
26409SOL    HW186342   2.144   7.763   0.729  0.3647  0.9319 -0.0478
26409SOL    HW286343   2.225   7.849   0.634 -0.0508  0.2009 -1.0835
26410SOL     OW86344   7.145   6.287  10.510  0.3077 -0.0737 -0.2474
26410SOL    HW186345   7.102   6.289  10.595 -2.0210  1.0964 -1.3390
26410SOL    HW286346   7.233   6.322  10.526 -0.3894  1.0022  1.5364
26411SOL     OW86347   6.014   1.425   5.717 -0.4012 -0.1388  0.8233
26411SOL    HW186348   5.999   1.331   5.720 -0.4571 -0.1867 -0.4032
26411SOL    HW286349   5.988   1.456   5.803 -1.8977 -1.0343  0.7284
26412SOL     OW86350   8.874   0.847   6.089 -0.1971 -0.9698  0.4073
26412SOL    HW186351   8.781   0.869   6.086  0.0356 -0.0058 -1.1652
26412SOL    HW286352   8.877   0.752   6.090 -1.2116 -0.9985  0.8587
26413SOL     OW86353   7.628   0.825   1.834  0.0454  0.0112  0.7452
26413SOL    HW186354   7.640   0.760   1.903  0.3795 -0.1325  0.5529
26413SOL    HW286355   7.668   0.905   1.869  0.5801 -0.1703  0.5558
26414SOL     OW86356   9.037   2.397   6.032  0.5108  0.5228 -0.1983
26414SOL    HW186357   8.944   2.418   6.034  0.5414  0.7236 -0.7176
26414SOL    HW286358   9.044   2.316   6.083 -0.0313  0.1755 -0.6655
26415SOL     OW86359   6.356   6.205   2.510 -0.2499 -0.1662  0.3887
26415SOL    HW186360   6.310   6.232   2.590  1.3096  0.2137  1.1894
26415SOL    HW286361   6.444   6.242   2.519  0.7315 -2.1909 -0.3582
26416SOL     OW86362   8.523   9.228   4.136  0.5261  0.3680 -0.2288
26416SOL    HW186363   8.442   9.238   4.086 -0.2056  0.0523  0.8612
26416SOL    HW286364   8.497   9.239   4.227  1.3922 -1.3732  0.2777
26417SOL     OW86365   2.062   0.289   2.596  0.3269  0.3767 -0.0846
26417SOL    HW186366   1.996   0.267   2.530  0.8384 -2.1735  0.1294
26417SOL    HW286367   2.103   0.368   2.564 -1.4846  0.9131 -1.2445
26418SOL     OW86368   7.095   8.121   1.209 -0.0632 -0.6208  0.0688
26418SOL    HW186369   7.182   8.141   1.243 -0.2922  1.8686 -0.5863
26418SOL    HW286370   7.035   8.171   1.265 -0.7918 -0.0493 -1.1707
26419SOL     OW86371   3.506  12.708  11.183  0.1068  0.9215  0.0296
26419SOL    HW186372   3.506  12.718  11.278 -1.7493  2.0289 -0.0283
26419SOL    HW286373   3.413  12.707  11.159  0.5253  1.9350 -1.8813
26420SOL     OW86374   0.774   8.016   5.018  0.4912 -0.2236 -0.0691
26420SOL    HW186375   0.775   8.053   4.930  1.1140  0.0185  0.0407
26420SOL    HW286376   0.852   8.050   5.061  0.8525 -1.3034  0.1840
26421SOL     OW86377  10.620  11.203  10.332 -0.1710  0.3221 -0.2112
26421SOL    HW186378  10.666  11.276  10.292  1.1332 -0.4113 -0.1152
26421SOL    HW286379  10.621  11.223  10.426 -0.3117  0.4514 -0.2370
26422SOL     OW86380   3.131   3.901   8.231  0.1984  0.0592 -0.1189
26422SOL    HW186381   3.097   3.838   8.294 -0.4044  0.9495  0.4857
26422SOL    HW286382   3.179   3.964   8.285 -2.5679  2.3734 -0.0843
26423SOL     OW86383   2.318   0.629   9.815  0.0462  0.2334 -0.3744
26423SOL    HW186384   2.307   0.557   9.877  1.7185 -1.8348 -2.3356
26423SOL    HW286385   2.232   0.641   9.776 -0.2286 -0.7467 -0.0871
26424SOL     OW86386   0.958   7.280   2.702  0.6732  0.4752 -0.2120
26424SOL    HW186387   0.944   7.296   2.609 -0.9838  0.7096  0.0368
26424SOL    HW286388   0.909   7.199   2.719  0.1517  0.9584  0.6384
26425SOL     OW86389   3.037  12.634   3.764 -0.6915 -0.1945  0.3179
26425SOL    HW186390   2.966  12.688   3.798  0.4536  2.1893 -0.7761
26425SOL    HW286391   2.996  12.575   3.701 -2.0788 -1.1082  1.9982
26426SOL     OW86392   3.547   8.839   9.265  0.4209 -0.3938 -1.0648
26426SOL    HW186393   3.519   8.775   9.331 -0.3186 -0.0112 -0.9976
26426SOL    HW286394   3.547   8.923   9.311  1.0445 -0.2933 -1.2456
26427SOL     OW86395   3.333   8.123   6.179 -0.1778  0.4419 -0.4664
26427SOL    HW186396   3.309   8.097   6.268  0.8587  0.3250 -0.2001
26427SOL    HW286397   3.274   8.074   6.122 -1.6694  1.4258  0.1766
26428SOL     OW86398   7.342  11.550   2.907 -0.4179 -0.3787  0.4999
26428SOL    HW186399   7.259  11.591   2.932 -0.5941  0.9563 -1.8940
26428SOL    HW286400   7.405  11.622   2.909 -0.2155 -0.4300 -1.4481
26429SOL     OW86401   7.388  12.381   1.078  0.2763 -0.1585 -0.2269
26429SOL    HW186402   7.419  12.322   1.010 -0.7475 -1.6469  0.5397
26429SOL    HW286403   7.395  12.331   1.159 -1.4811  0.4046  0.3253
26430SOL     OW86404   6.369  10.865   4.614 -0.2055  0.1192  0.0469
26430SOL    HW186405   6.407  10.854   4.527  0.8222 -0.6203  0.5661
26430SOL    HW286406   6.282  10.825   4.607  0.2221 -0.7731 -0.4102
26431SOL     OW86407   4.160   6.823  12.662  0.9469 -0.4248 -0.3114
26431SOL    HW186408   4.155   6.790  12.752  0.3294 -0.4356 -0.3460
26431SOL    HW286409   4.219   6.763  12.617 -0.1551 -1.4953 -0.3761
26432SOL     OW86410  10.401   6.993   3.184  0.1933 -0.7517  0.4227
26432SOL    HW186411  10.408   6.933   3.257  1.0705  0.6568  1.5399
26432SOL    HW286412  10.428   6.942   3.107  1.6856 -1.5631  1.4460
26433SOL     OW86413   9.195  12.416   2.450 -0.3384  0.4538 -0.3080
26433SOL    HW186414   9.145  12.490   2.414 -1.2800  0.5550  1.1553
26433SOL    HW286415   9.187  12.425   2.545 -1.4297 -2.1316 -0.0589
26434SOL     OW86416  11.572   2.326   5.049  0.5886  0.2089 -0.2259
26434SOL    HW186417  11.526   2.373   4.980 -1.7093 -0.4236  0.7693
26434SOL    HW286418  11.568   2.383   5.125  0.8516 -0.1401  0.0571
26435SOL     OW86419   3.373   7.267   6.760 -0.0910 -0.3789 -1.1377
26435SOL    HW186420   3.363   7.300   6.670 -1.9062 -2.2853 -1.7268
26435SOL    HW286421   3.350   7.175   6.754 -1.9530 -0.2089  1.5606
26436SOL     OW86422  12.060   5.923  12.370 -0.1423 -0.2600  0.2780
26436SOL    HW186423  11.998   5.991  12.396  1.8899  1.5015  0.7913
26436SOL    HW286424  12.048   5.915  12.275 -0.8106  0.4003  0.2984
26437SOL     OW86425   5.199  12.934   8.676 -0.5401 -0.0944  0.0272
26437SOL    HW186426   5.220  13.021   8.708  1.2992 -0.0099 -1.2604
26437SOL    HW286427   5.118  12.946   8.626 -0.3847  0.8562 -0.0125
26438SOL     OW86428   5.956  12.486   3.545  0.6437 -0.0741  0.6543
26438SOL    HW186429   5.977  12.443   3.628 -0.1737 -2.3361 -0.2337
26438SOL    HW286430   6.019  12.449   3.482  0.3814  0.5802 -0.0049
26439SOL     OW86431   7.552   2.996   0.977 -0.1250 -0.2053 -0.2425
26439SOL    HW186432   7.544   2.902   0.996  2.3070 -0.7613 -1.5833
26439SOL    HW286433   7.640   3.019   1.008 -0.1137  1.2837 -1.2920
26440SOL     OW86434   9.100   1.023   1.637  0.2718 -0.1472  0.0318
26440SOL    HW186435   9.123   0.978   1.719  1.2755 -1.8430 -1.1129
26440SOL    HW286436   9.185   1.044   1.597 -0.1894  1.6511 -0.1095
26441SOL     OW86437   4.976  11.225   6.398 -0.0566 -0.9085  0.5270
26441SOL    HW186438   5.021  11.154   6.351  1.5696  0.3366  0.1174
26441SOL    HW286439   5.034  11.300   6.389 -3.3758  1.6366 -2.3876
26442SOL     OW86440   6.576   3.747   3.833  0.5676 -0.1759 -0.2952
26442SOL    HW186441   6.613   3.681   3.891  0.3502 -0.1810 -0.1617
26442SOL    HW286442   6.485   3.721   3.822  0.1955  0.7021  0.6150
26443SOL     OW86443  12.370   7.727  12.462  0.1685 -0.5873 -0.3517
26443SOL    HW186444  12.284   7.769  12.452 -0.0185 -0.8204  0.2070
26443SOL    HW286445  12.421   7.789  12.512  0.3130 -0.4698 -0.6427
26444SOL     OW86446   9.481  11.984   6.862 -0.1246 -0.4150  0.1938
26444SOL    HW186447   9.556  11.944   6.819 -0.1359  0.1570 -0.3692
26444SOL    HW286448   9.510  11.997   6.953 -0.4561 -2.5571  0.6518
26445SOL     OW86449   6.837   5.482  10.807  0.0173 -0.0212  0.2057
26445SOL    HW186450   6.758   5.500  10.857  0.2250  1.1729  0.1481
26445SOL    HW286451   6.907   5.523  10.858  0.4074  0.1013 -0.4135
26446SOL     OW86452   8.358  11.476   1.526 -0.7456  0.1664 -0.8832
26446SOL    HW186453   8.408  11.527   1.462  1.0562  0.3071  0.5611
26446SOL    HW286454   8.346  11.391   1.485  1.0619 -0.0005 -1.1720
26447SOL     OW86455   9.576   2.258   9.485 -0.1731 -0.4010 -0.6654
26447SOL    HW186456   9.538   2.345   9.497 -0.3099 -0.6640  1.0317
26447SOL    HW286457   9.506   2.207   9.443 -0.9515 -0.3074  0.4800
26448SOL     OW86458  10.666  10.582   2.654  0.7190 -0.7096  0.1126
26448SOL    HW186459  10.672  10.659   2.710  3.3634 -0.5142 -0.3093
26448SOL    HW286460  10.697  10.510   2.709  1.6048 -0.8303 -0.5263
26449SOL     OW86461   9.309   3.156   4.576  0.7428  0.2864 -0.3558
26449SOL    HW186462   9.363   3.195   4.507  1.5308  0.3790  0.2888
26449SOL    HW286463   9.322   3.213   4.651 -1.4884  1.2005 -0.5768
26450SOL     OW86464   1.464   7.469   4.281 -0.2861 -0.0095  0.8887
26450SOL    HW186465   1.424   7.413   4.215 -1.6171  0.2523  1.4435
26450SOL    HW286466   1.470   7.555   4.240 -0.2733 -0.0499  0.8060
26451SOL     OW86467   4.229   2.134  11.429 -0.6756 -0.2603  0.2176
26451SOL    HW186468   4.288   2.102  11.496 -1.3302 -0.3047  0.7850
26451SOL    HW286469   4.286   2.170  11.361  0.1050 -2.5637 -0.4352
26452SOL     OW86470   1.381   3.630   0.113 -0.5779  0.6808  0.1824
26452SOL    HW186471   1.438   3.559   0.084  1.0853  2.1774 -0.4635
26452SOL    HW286472   1.309   3.631   0.049 -0.3344 -0.0706 -0.1133
26453SOL     OW86473   2.349   6.954   3.049 -0.3605  0.1738  0.0181
26453SOL    HW186474   2.413   6.885   3.034 -1.2086 -0.8788  1.0354
26453SOL    HW286475   2.301   6.961   2.967 -1.9658 -2.3139  0.6321
26454SOL     OW86476   5.377   7.140   1.270  0.2266  1.1522 -0.7102
26454SOL    HW186477   5.282   7.137   1.254  0.5312 -0.6041 -2.6397
26454SOL    HW286478   5.416   7.129   1.183  2.1864 -0.6909  0.2985
26455SOL     OW86479   1.643   3.733   3.441 -0.4920 -0.7667  0.3339
26455SOL    HW186480   1.723   3.693   3.476  0.6004  1.0736  0.0472
26455SOL    HW286481   1.665   3.826   3.431 -2.1625 -0.4876 -1.2195
26456SOL     OW86482   0.316   1.542   8.701  0.0965  0.0946  0.2522
26456SOL    HW186483   0.406   1.568   8.721  0.7412 -2.8027  1.5297
26456SOL    HW286484   0.262   1.613   8.738  1.7706  2.9976 -2.4202
26457SOL     OW86485   6.490   9.713   4.590  0.1665 -0.0557 -0.1309
26457SOL    HW186486   6.406   9.703   4.635 -1.0845  1.2707 -1.9728
26457SOL    HW286487   6.512   9.625   4.560  0.3330 -0.7156  1.7625
26458SOL     OW86488   1.804   4.093  10.723 -0.1330  0.2072  0.0323
26458SOL    HW186489   1.838   4.006  10.703  2.6442  1.1377  0.3138
26458SOL    HW286490   1.754   4.118  10.645 -0.1787 -1.2507 -0.4231
26459SOL     OW86491  11.987  12.508   5.840 -0.4561 -0.2554  0.0419
26459SOL    HW186492  11.969  12.578   5.903  0.2694 -0.2224  0.2266
26459SOL    HW286493  11.995  12.429   5.893 -0.5945 -0.3598 -0.0917
26460SOL     OW86494   0.374   6.408  10.368  0.4135  0.4343  0.1672
26460SOL    HW186495   0.347   6.464  10.441 -1.2470 -1.4640  1.0848
26460SOL    HW286496   0.450   6.360  10.401 -2.4278 -3.1550  2.2592
26461SOL     OW86497   6.352   8.507   9.462 -0.1545  0.1843 -0.1012
26461SOL    HW186498   6.441   8.540   9.453  0.5408 -1.2860  1.0507
26461SOL    HW286499   6.322   8.540   9.547  0.0241 -0.9192  0.4028
26462SOL     OW86500  10.216   3.777   4.088 -0.0380 -0.3163  0.2272
26462SOL    HW186501  10.165   3.777   4.169 -0.4830 -0.9405 -0.0468
26462SOL    HW286502  10.187   3.699   4.041 -1.4043  1.2064 -1.5710
26463SOL     OW86503  10.231   2.097   0.824 -0.4997  0.2036 -0.0706
26463SOL    HW186504  10.164   2.117   0.889  1.3919  1.0541  1.7215
26463SOL    HW286505  10.239   2.177   0.772 -0.0678  0.5236  0.4805
26464SOL     OW86506  10.961   1.347  10.789  0.0224 -0.1670 -0.5891
26464SOL    HW186507  10.948   1.441  10.804 -0.4956 -0.2212 -0.6921
26464SOL    HW286508  10.890   1.322  10.730 -1.4199 -1.1661  1.4840
26465SOL     OW86509   3.833   7.804   3.289  0.6706 -0.1084  0.2804
26465SOL    HW186510   3.819   7.874   3.352  0.5813  1.1441 -1.0939
26465SOL    HW286511   3.895   7.840   3.225  2.9985 -2.2924  1.1176
26466SOL     OW86512   2.280   2.207   0.397  0.3195  0.2663  0.0763
26466SOL    HW186513   2.248   2.297   0.391  0.8236  0.4258 -0.2878
26466SOL    HW286514   2.227   2.159   0.333 -2.0085 -0.3381  2.2992
26467SOL     OW86515   1.589   8.637   0.598  0.3703  0.1660  0.1247
26467SOL    HW186516   1.655   8.613   0.664 -0.3013  0.3569  0.8904
26467SOL    HW286517   1.562   8.725   0.624 -0.5216 -0.0986  0.1072
26468SOL     OW86518   3.919   7.221  10.035 -0.3984  0.3322  0.1005
26468SOL    HW186519   3.895   7.161   9.964 -1.7877  1.6026 -0.5578
26468SOL    HW286520   4.011   7.200  10.054 -0.5529 -1.3002 -0.7759
26469SOL     OW86521   8.747  11.844   9.643  0.4829 -0.1705 -0.5943
26469SOL    HW186522   8.669  11.842   9.700  1.7239 -0.7465  1.1727
26469SOL    HW286523   8.799  11.916   9.678  1.0699 -0.2435 -1.3160
26470SOL     OW86524   0.290   7.237  11.715 -0.0280  0.5896 -0.1810
26470SOL    HW186525   0.227   7.229  11.644 -0.5792  0.5705  0.3054
26470SOL    HW286526   0.321   7.147  11.729  2.5750  0.9680 -2.5877
26471SOL     OW86527   0.121   2.756  12.615  0.0907 -0.5964 -0.0132
26471SOL    HW186528   0.042   2.728  12.570 -1.1756  1.9479  0.4197
26471SOL    HW286529   0.137   2.845  12.583  1.1062  0.0130  1.9721
26472SOL     OW86530   9.344   4.877   0.694 -0.1446 -0.5333  0.6576
26472SOL    HW186531   9.378   4.950   0.642 -1.0991 -0.0099  0.7394
26472SOL    HW286532   9.285   4.831   0.635 -2.8839  1.2761  1.7809
26473SOL     OW86533  11.026   2.070   8.914  0.5917 -0.2567  0.3933
26473SOL    HW186534  10.969   2.050   8.988  1.6750 -2.0323  0.8158
26473SOL    HW286535  11.043   1.985   8.873  0.2451  0.6387 -1.7548
26474SOL     OW86536   9.378  11.601  12.208 -0.3146  0.5040  0.4379
26474SOL    HW186537   9.289  11.625  12.186 -1.0908 -1.5439  1.0797
26474SOL    HW286538   9.383  11.610  12.303 -0.6249 -1.6062  0.6984
26475SOL     OW86539   1.673   4.495   9.490 -0.5238 -0.2982 -0.1672
26475SOL    HW186540   1.675   4.400   9.493 -0.2559 -0.2724  0.7954
26475SOL    HW286541   1.595   4.519   9.540 -0.2954  0.0052  0.0465
26476SOL     OW86542   7.463   3.600  12.775 -0.1806  0.5495  0.0697
26476SOL    HW186543   7.521   3.554  12.835  0.7864  0.8727 -0.5996
26476SOL    HW286544   7.408   3.655  12.831 -0.4092 -0.3680  0.7670
26477SOL     OW86545   4.974   0.789  11.063 -0.2183 -1.0490 -0.2618
26477SOL    HW186546   5.010   0.863  11.014 -0.9886 -0.1452  0.4938
26477SOL    HW286547   4.886   0.818  11.088  0.0534 -1.5677  1.4218
26478SOL     OW86548  12.678   2.191   1.719 -0.7218  0.7398 -0.3359
26478SOL    HW186549  12.730   2.268   1.742 -2.9295  2.3054 -0.2797
26478SOL    HW286550  12.640   2.162   1.802 -1.0317  0.4559 -0.5770
26479SOL     OW86551   4.597   5.159   5.082  0.3208  0.2597  0.0953
26479SOL    HW186552   4.527   5.159   5.148 -0.9072 -2.1881 -1.0574
26479SOL    HW286553   4.659   5.093   5.114 -1.3308 -2.5603 -2.0105
26480SOL     OW86554   6.081   6.918   4.037  0.4949 -0.0220  0.2573
26480SOL    HW186555   5.998   6.874   4.057  0.7542 -1.2470 -1.2106
26480SOL    HW286556   6.086   6.989   4.101 -0.2383 -1.7416  2.3375
26481SOL     OW86557  10.404   7.124  11.416 -0.2729  0.2484 -0.0232
26481SOL    HW186558  10.389   7.104  11.324 -1.6768 -1.2715  0.4953
26481SOL    HW286559  10.464   7.199  11.414  0.5426 -0.3775 -2.1384
26482SOL     OW86560  12.917   0.005   9.212  0.5106 -0.2147  0.0285
26482SOL    HW186561  12.881   0.016   9.124  3.3549 -1.5401 -1.4522
26482SOL    HW286562  12.931   0.094   9.244 -0.9230  0.2844 -0.6436
26483SOL     OW86563   5.214   5.571   6.387  0.4341 -0.4739 -0.1914
26483SOL    HW186564   5.143   5.571   6.322  0.4198 -0.2456 -0.1752
26483SOL    HW286565   5.291   5.600   6.338  0.2445  0.5354  0.0900
26484SOL     OW86566  10.572   3.967  10.372 -0.2955  0.1374 -0.4329
26484SOL    HW186567  10.498   3.993  10.316 -1.3876  0.0193  0.9006
26484SOL    HW286568  10.643   3.949  10.310 -0.8632  1.8411 -1.6655
26485SOL     OW86569   7.280   7.904  12.207 -0.4681  0.1206 -0.4792
26485SOL    HW186570   7.252   7.900  12.299 -1.9690 -0.5028 -0.9403
26485SOL    HW286571   7.232   7.978  12.170 -0.2002  0.0978 -0.8739
26486SOL     OW86572   5.499   4.537  11.467  0.0497 -0.2125 -0.4091
26486SOL    HW186573   5.487   4.446  11.440 -0.2778 -0.2333 -0.2061
26486SOL    HW286574   5.590   4.542  11.495 -0.0625 -0.6107  0.0590
26487SOL     OW86575   7.631   5.081   3.025  0.2811  0.8240 -0.0585
26487SOL    HW186576   7.687   5.131   3.085  0.5439 -0.9838  1.3043
26487SOL    HW286577   7.549   5.072   3.072 -0.0299  0.6371 -0.6314
26488SOL     OW86578   5.034   5.871   1.256  0.2570 -0.4878  0.5933
26488SOL    HW186579   5.070   5.801   1.201  0.9819  0.4967 -0.2332
26488SOL    HW286580   5.109   5.908   1.301 -0.1024 -0.1532  0.9302
26489SOL     OW86581   3.570   2.170   9.795 -0.5012  0.2100  0.2592
26489SOL    HW186582   3.618   2.200   9.718 -0.5963 -0.8525 -0.2309
26489SOL    HW286583   3.630   2.110   9.839 -1.0526 -0.4500  0.1222
26490SOL     OW86584  10.319  12.780  12.006 -0.2524  0.0949  0.2226
26490SOL    HW186585  10.344  12.870  12.026 -1.2235  0.9837 -2.2068
26490SOL    HW286586  10.224  12.782  11.999 -0.1606 -0.3383 -2.7647
26491SOL     OW86587   5.566   5.255   0.065 -0.4858 -0.2435 -0.3664
26491SOL    HW186588   5.515   5.225  -0.010  0.2112 -1.4517 -0.3760
26491SOL    HW286589   5.545   5.193   0.135  0.4309 -0.3513 -0.1701
26492SOL     OW86590   6.686  12.358   4.916 -0.0974  0.2463 -0.4380
26492SOL    HW186591   6.660  12.274   4.956 -0.1321  0.2310 -0.4922
26492SOL    HW286592   6.665  12.423   4.983  0.1386  0.1899 -0.3058
26493SOL     OW86593   6.874   9.806   2.652 -0.1383 -0.5356 -0.6418
26493SOL    HW186594   6.782   9.828   2.640 -0.3023 -1.9970 -2.5599
26493SOL    HW286595   6.919   9.891   2.656 -1.6289  0.2484  1.6935
26494SOL     OW86596   5.597   4.788   7.026  0.4935  0.4234 -0.2636
26494SOL    HW186597   5.536   4.719   7.000  0.7621 -0.1687  0.6217
26494SOL    HW286598   5.681   4.743   7.038  0.4938  0.7330  1.1119
26495SOL     OW86599  11.732   6.720   1.066  0.0920 -0.7595 -0.3692
26495SOL    HW186600  11.806   6.678   1.022  0.5172  0.3051 -0.6940
26495SOL    HW286601  11.740   6.813   1.044 -0.6936 -0.4631  0.5226
26496SOL     OW86602  10.003   2.815   5.095 -0.1953  0.1956  0.5688
26496SOL    HW186603  10.002   2.771   5.011 -1.0914 -0.1503  0.7564
26496SOL    HW286604  10.096   2.818   5.119  0.0638  0.2688 -0.4012
26497SOL     OW86605   0.967   0.631  10.561 -0.3939  0.3363 -0.8806
26497SOL    HW186606   0.919   0.554  10.532  0.3725 -2.6048  4.3597
26497SOL    HW286607   1.058   0.615  10.535 -0.2005 -0.7663  0.3805
26498SOL     OW86608   4.636  12.924   8.391  0.4100 -0.2253 -0.4608
26498SOL    HW186609   4.711  12.907   8.334  1.0991 -0.4301  0.4816
26498SOL    HW286610   4.624  13.019   8.388  0.5400 -0.2175 -0.8110
26499SOL     OW86611  11.941   0.807   2.162  0.3545  0.0906  0.4693
26499SOL    HW186612  12.013   0.865   2.137 -0.3214 -0.2335 -2.6787
26499SOL    HW286613  11.869   0.865   2.185  0.7602  0.4324  0.8891
26500SOL     OW86614   7.022   0.293  10.521 -0.2063 -0.1624  0.3050
26500SOL    HW186615   7.037   0.203  10.549 -1.5604 -0.5930 -0.2638
26500SOL    HW286616   7.026   0.289  10.426 -1.4791  0.1261  0.2282
26501SOL     OW86617  12.235   2.567   1.259  0.6403  0.3363  0.5269
26501SOL    HW186618  12.190   2.565   1.344  0.0510  1.1585  0.2454
26501SOL    HW286619  12.171   2.533   1.197  0.8817  0.2500  0.3257
26502SOL     OW86620   8.977   0.116   2.370 -0.5485  0.0786 -0.4592
26502SOL    HW186621   8.931   0.200   2.374  0.3059  0.5226  0.3191
26502SOL    HW286622   9.017   0.114   2.284 -1.9105 -0.2738 -1.1231
26503SOL     OW86623   5.611   8.015   3.368  0.5071  0.2987 -0.0474
26503SOL    HW186624   5.522   7.985   3.386  0.5647  0.1364 -0.0298
26503SOL    HW286625   5.626   8.084   3.431  0.7535 -0.3550  0.6238
26504SOL     OW86626  10.105   7.680  11.379  0.1215 -0.3450 -0.9385
26504SOL    HW186627  10.063   7.763  11.356  0.7955 -0.0876 -1.2684
26504SOL    HW286628  10.032   7.620  11.396 -0.3910  0.7192  0.8719
26505SOL     OW86629   9.543   2.105  10.294  0.2971 -0.1014  0.5447
26505SOL    HW186630   9.604   2.178  10.301 -0.6287  0.6151  1.2455
26505SOL    HW286631   9.596   2.028  10.313  1.1038  0.4577  0.6105
26506SOL     OW86632   3.272   9.523   7.775 -0.8420  0.2045  0.1101
26506SOL    HW186633   3.215   9.531   7.699 -1.3575 -0.6281  0.4031
26506SOL    HW286634   3.354   9.564   7.748 -1.0876  0.0940 -0.8241
26507SOL     OW86635  11.137  11.611  12.895  0.1482 -0.1800  0.5013
26507SOL    HW186636  11.135  11.555  12.817 -0.4613  0.6859 -0.1340
26507SOL    HW286637  11.229  11.636  12.904  0.2172 -0.2446  0.0262
26508SOL     OW86638   3.726   0.441   7.769 -0.3114  0.0078 -0.0403
26508SOL    HW186639   3.649   0.498   7.771 -0.1028  0.2825  1.5627
26508SOL    HW286640   3.800   0.501   7.775 -0.0967 -0.3926  1.9228
26509SOL     OW86641   1.002  10.827   3.941 -0.6757  0.1975 -0.1437
26509SOL    HW186642   1.064  10.852   4.010 -1.9512 -0.0697  1.1629
26509SOL    HW286643   0.944  10.903   3.934 -0.5355  0.2342 -0.9755
26510SOL     OW86644  12.799   6.289   8.613  0.2674  0.2100 -0.4290
26510SOL    HW186645  12.782   6.268   8.705  1.8553 -0.7863 -0.3149
26510SOL    HW286646  12.802   6.385   8.610  1.6808  0.2447  0.8917
26511SOL     OW86647  12.622   0.540   6.013 -0.2024 -0.0688 -0.6684
26511SOL    HW186648  12.637   0.589   5.932  1.3917  0.2647 -0.2134
26511SOL    HW286649  12.645   0.601   6.083  0.1248 -0.8872 -0.0337
26512SOL     OW86650   9.820   9.412  12.288  0.2678  0.6404 -0.3078
26512SOL    HW186651   9.856   9.344  12.345 -0.7193  0.7061  0.4177
26512SOL    HW286652   9.748   9.370  12.243 -0.6759  1.3146  0.5186
26513SOL     OW86653  11.979   9.927   4.856 -0.0036 -0.4666 -0.9150
26513SOL    HW186654  11.969  10.017   4.886  0.4055 -0.4627 -0.7854
26513SOL    HW286655  11.966   9.932   4.761  2.1107  0.0785 -1.2192
26514SOL     OW86656  10.166  10.549   9.730  0.1829  0.4504  0.5353
26514SOL    HW186657  10.122  10.486   9.674 -0.2646  1.0080  0.2518
26514SOL    HW286658  10.223  10.598   9.672 -0.1736  0.9318  0.5820
26515SOL     OW86659   7.498   2.993   5.854  0.0813 -0.4323  0.3708
26515SOL    HW186660   7.522   3.044   5.931  0.2312 -2.0259  1.4095
26515SOL    HW286661   7.565   3.016   5.789  1.8453 -1.4431  1.7651
26516SOL     OW86662  11.779   4.830   7.807  0.5281 -0.0230  0.1041
26516SOL    HW186663  11.744   4.908   7.764  0.1040  0.6328  1.5536
26516SOL    HW286664  11.856   4.806   7.755 -0.2097  0.4473 -1.2510
26517SOL     OW86665   7.836   2.336   2.034  1.1090 -0.2823 -0.2639
26517SOL    HW186666   7.770   2.302   1.973  1.9283  0.9678 -1.9227
26517SOL    HW286667   7.801   2.316   2.121 -1.8894  1.0799 -1.0311
26518SOL     OW86668   4.733   6.901   5.659  0.2399 -0.9612 -0.5853
26518SOL    HW186669   4.646   6.936   5.679  0.0858 -1.1208 -0.9517
26518SOL    HW286670   4.751   6.932   5.570  1.1832  0.2820  0.0095
26519SOL     OW86671   0.084   2.957   7.466 -0.0279  0.7532  0.3344
26519SOL    HW186672   0.134   2.901   7.407 -0.3593  0.3958  0.3904
26519SOL    HW286673   0.137   3.037   7.474 -1.1027  1.8315 -2.3225
26520SOL     OW86674   9.464   5.211   6.980 -0.1778  0.0257  0.1708
26520SOL    HW186675   9.441   5.119   6.967  0.4896 -0.0042 -0.9576
26520SOL    HW286676   9.559   5.212   6.985 -0.2436  0.4514  2.1985
26521SOL     OW86677   3.636   2.613   4.428 -0.2230 -0.2011  0.3050
26521SOL    HW186678   3.556   2.573   4.394 -0.6656 -0.5074  1.6560
26521SOL    HW286679   3.631   2.602   4.523  1.9329 -1.2091  0.3852
26522SOL     OW86680  12.900   2.289   4.088  0.6882 -0.1293  0.6453
26522SOL    HW186681  12.961   2.295   4.162  2.5692 -0.4912 -0.7957
26522SOL    HW286682  12.874   2.379   4.071  0.1405 -0.0511  1.7818
26523SOL     OW86683   8.005   2.596   6.137  0.2163 -0.0248  0.7295
26523SOL    HW186684   8.031   2.534   6.205 -1.2972 -1.7319 -0.1724
26523SOL    HW286685   7.934   2.553   6.091 -0.1283  1.9290 -0.6946
26524SOL     OW86686   8.373   1.419  10.154 -0.0207 -0.2106 -0.4469
26524SOL    HW186687   8.318   1.349  10.118 -0.7167  0.7548 -1.3399
26524SOL    HW286688   8.409   1.463  10.077  0.2918  0.5036  0.0918
26525SOL     OW86689   6.556   9.552   3.665  0.4999  0.3745  0.1055
26525SOL    HW186690   6.502   9.474   3.667 -0.0525  0.7356  2.2527
26525SOL    HW286691   6.508   9.613   3.609  0.7190 -0.6383 -1.2277
26526SOL     OW86692   5.297   6.533  11.125  0.3329 -0.2802 -0.5593
26526SOL    HW186693   5.383   6.492  11.126  0.1818 -0.5986  0.6021
26526SOL    HW286694   5.266   6.527  11.215 -0.3571  1.0038 -0.6834
26527SOL     OW86695   6.500   7.683   2.786 -0.3357  0.5765  0.5506
26527SOL    HW186696   6.489   7.689   2.881  0.1708 -0.6121  0.7013
26527SOL    HW286697   6.415   7.709   2.751 -0.7827  0.2433  1.3620
26528SOL     OW86698   0.069   3.230   9.584 -0.3740  0.2107 -0.2549
26528SOL    HW186699   0.162   3.249   9.602 -0.0052 -0.0047 -1.8512
26528SOL    HW286700   0.070   3.180   9.503 -1.9740  1.2419 -0.9475
26529SOL     OW86701   9.979   7.801  11.948  0.3593 -0.0544  0.1879
26529SOL    HW186702   9.884   7.796  11.952  0.2782  0.4170 -0.8182
26529SOL    HW286703   9.999   7.893  11.967  0.5472  0.0447 -0.4689
26530SOL     OW86704   2.372  11.060   2.604  0.1036 -0.0757 -0.3079
26530SOL    HW186705   2.422  11.004   2.544 -0.9553  0.4671 -1.7324
26530SOL    HW286706   2.369  11.009   2.685  1.2040 -1.0260 -0.8222
26531SOL     OW86707   4.889   5.252   4.274 -0.3994  0.5499  0.3267
26531SOL    HW186708   4.926   5.164   4.271  1.7891  1.4277 -1.5507
26531SOL    HW286709   4.843   5.256   4.357  0.1892 -2.0725  0.8620
26532SOL     OW86710   6.239   8.186   4.721 -0.1077  0.1559 -0.0223
26532SOL    HW186711   6.153   8.145   4.725  0.0292 -0.3631 -1.8718
26532SOL    HW286712   6.221   8.279   4.736 -0.6378 -0.2338  2.2255
26533SOL     OW86713   3.599   1.214   9.436 -0.4991  0.4033 -0.1738
26533SOL    HW186714   3.513   1.192   9.399 -0.1812  1.2419 -1.4828
26533SOL    HW286715   3.581   1.231   9.529 -1.2222 -2.3526  0.2732
26534SOL     OW86716  12.253   8.456   0.419  0.2482  0.0287  0.1221
26534SOL    HW186717  12.335   8.505   0.426  0.8901 -0.9035 -0.5225
26534SOL    HW286718  12.227   8.466   0.327 -1.7901  2.4620  0.8467
26535SOL     OW86719   7.210  10.433  11.263 -0.2061  0.0326 -0.5388
26535SOL    HW186720   7.193  10.521  11.297  0.5571  0.3634 -1.0004
26535SOL    HW286721   7.177  10.375  11.331 -1.8857  0.6481 -0.7759
26536SOL     OW86722   0.270   9.985   0.887 -0.0570  0.5029 -0.1727
26536SOL    HW186723   0.322   9.910   0.914 -0.4867  0.0651 -0.5492
26536SOL    HW286724   0.330  10.060   0.894  0.2564  0.1900  0.5891
26537SOL     OW86725   2.711   6.252  12.680  0.2759  0.2420  0.0699
26537SOL    HW186726   2.764   6.301  12.743  0.8791 -1.2258  0.7349
26537SOL    HW286727   2.722   6.161  12.705  1.2080 -0.4839 -2.6589
26538SOL     OW86728   6.825  12.039   9.024  0.3242 -0.0109 -0.2487
26538SOL    HW186729   6.856  11.991   9.101  2.7625 -0.9633 -1.7047
26538SOL    HW286730   6.804  11.971   8.960 -0.7230  0.7832 -0.7827
26539SOL     OW86731   7.809   9.093  11.810  1.3061  0.4849  0.0750
26539SOL    HW186732   7.799   9.021  11.872  1.6107  0.5195  0.1658
26539SOL    HW286733   7.897   9.082  11.774  0.3575 -0.8405 -1.9982
26540SOL     OW86734  10.358  11.094   5.210 -0.2994  0.4535  0.4846
26540SOL    HW186735  10.379  11.133   5.295 -0.8774  0.6837  0.5285
26540SOL    HW286736  10.308  11.162   5.165 -1.1420 -0.1591  0.4763
26541SOL     OW86737   5.731  11.765   8.529 -0.6765  0.1619 -0.0222
26541SOL    HW186738   5.684  11.751   8.447 -1.5134 -1.3572  0.6691
26541SOL    HW286739   5.737  11.678   8.568  0.1673  0.7778  1.2910
26542SOL     OW86740   8.260   3.792  11.042  0.1500  0.3482  0.2057
26542SOL    HW186741   8.316   3.737  11.097 -0.6856 -1.6066 -0.7907
26542SOL    HW286742   8.299   3.788  10.955 -0.1117  1.1043  0.0398
26543SOL     OW86743   5.687   9.318   2.846 -0.8360 -0.1965  0.4366
26543SOL    HW186744   5.712   9.363   2.764 -0.8324 -1.6726 -0.4011
26543SOL    HW286745   5.713   9.379   2.915  1.4465  0.0538 -0.5525
26544SOL     OW86746  11.186   4.309  10.555 -0.1687  0.2884 -0.1553
26544SOL    HW186747  11.232   4.236  10.596 -0.8609 -0.1308 -0.1009
26544SOL    HW286748  11.124   4.338  10.622 -0.5958  0.2649 -0.5357
26545SOL     OW86749   4.962   6.127   1.765 -0.1988  0.1578 -0.4613
26545SOL    HW186750   4.996   6.080   1.689  0.6581 -1.2577  0.7151
26545SOL    HW286751   5.035   6.126   1.828 -1.0272  0.8552  0.5518
26546SOL     OW86752   9.347   0.516  11.174  0.5632 -0.0877  0.2164
26546SOL    HW186753   9.348   0.462  11.253 -1.6701 -1.8359 -0.8414
26546SOL    HW286754   9.332   0.605  11.206  0.7282 -0.6013  1.8085
26547SOL     OW86755   3.301   8.236   8.549  0.3427  0.5684  0.2199
26547SOL    HW186756   3.379   8.218   8.601  0.6103  1.7581  0.2454
26547SOL    HW286757   3.247   8.293   8.604 -1.1444 -1.2091  0.7117
26548SOL     OW86758   9.354   0.125   6.269 -0.4627 -0.1245  0.0355
26548SOL    HW186759   9.287   0.171   6.319 -3.2617 -0.6377 -2.8932
26548SOL    HW286760   9.354   0.037   6.304 -0.1370  0.2774  1.0860
26549SOL     OW86761   0.532   7.719   5.731 -0.1099  0.1077  0.3379
26549SOL    HW186762   0.493   7.806   5.730  0.8924  0.5636  0.3707
26549SOL    HW286763   0.500   7.680   5.812 -1.8995 -0.2022 -0.4494
26550SOL     OW86764  10.370  11.904  10.954 -0.3306  0.2668  0.8466
26550SOL    HW186765  10.421  11.962  11.011  0.6259 -1.7715  2.1760
26550SOL    HW286766  10.325  11.844  11.014  1.3845 -2.5223 -0.4586
26551SOL     OW86767   2.506   1.231  11.075  0.3491  0.2380 -0.0155
26551SOL    HW186768   2.601   1.225  11.060  0.4631  0.6449  0.5308
26551SOL    HW286769   2.486   1.152  11.127  0.3319 -0.0127 -0.3993
26552SOL     OW86770   5.621   7.536   3.876  0.5359  0.5216  0.1233
26552SOL    HW186771   5.711   7.566   3.874  0.5873  0.3547 -0.4816
26552SOL    HW286772   5.587   7.557   3.788  0.3443 -0.4667 -0.0520
26553SOL     OW86773   4.048   2.149  10.486  0.4397  0.4016 -0.4159
26553SOL    HW186774   3.990   2.208  10.438 -1.0021 -0.3307  0.3657
26553SOL    HW286775   4.009   2.062  10.475 -0.5571  0.3036  2.8345
26554SOL     OW86776   3.669  11.370   1.473 -0.0427  0.7042 -0.7851
26554SOL    HW186777   3.743  11.384   1.533  1.0064  1.5292 -2.1971
26554SOL    HW286778   3.697  11.299   1.416 -0.1705  1.2734 -1.5720
26555SOL     OW86779   7.276   5.443   2.983  0.5002  0.1626 -0.1878
26555SOL    HW186780   7.362   5.415   2.954 -0.0606 -1.4284 -0.4154
26555SOL    HW286781   7.265   5.403   3.069  0.2807  0.9726  0.1702
26556SOL     OW86782  11.108   2.819   6.441  0.1323 -0.1770  0.5490
26556SOL    HW186783  11.032   2.820   6.500 -0.0986 -1.6981  0.3056
26556SOL    HW286784  11.174   2.872   6.486 -1.3540  2.0099  0.3353
26557SOL     OW86785   2.025   2.707   4.647  0.2130 -0.1315  0.5797
26557SOL    HW186786   1.961   2.673   4.584 -1.3782  2.0954  0.8797
26557SOL    HW286787   2.108   2.705   4.599 -0.2723 -1.8818 -0.2799
26558SOL     OW86788  12.707   8.812   7.652  0.0513 -0.1597 -0.2613
26558SOL    HW186789  12.740   8.868   7.722 -0.1942  0.3252 -0.5301
26558SOL    HW286790  12.640   8.758   7.695  0.2993 -0.2584  0.0018
26559SOL     OW86791   0.039   7.445  11.629  0.4477 -0.2135 -0.6413
26559SOL    HW186792  -0.036   7.426  11.685  1.5704 -0.7760  0.7197
26559SOL    HW286793   0.031   7.383  11.556  0.1602 -0.9659  0.0242
26560SOL     OW86794   0.465   8.048  10.946 -0.8258  0.5970  0.5453
26560SOL    HW186795   0.551   8.045  10.904 -1.1471 -0.8512 -0.0755
26560SOL    HW286796   0.480   8.091  11.029  0.0897  2.3169 -0.4548
26561SOL     OW86797  10.263  12.812   8.536 -0.0234 -0.0218  0.3631
26561SOL    HW186798  10.315  12.886   8.568  0.0572  0.5442 -1.0261
26561SOL    HW286799  10.172  12.843   8.540 -0.2138 -0.6631  1.8565
26562SOL     OW86800   1.892   5.335   1.475 -1.1798  0.0062 -0.5602
26562SOL    HW186801   1.836   5.406   1.505 -0.2885  0.1991  0.7349
26562SOL    HW286802   1.977   5.376   1.458 -0.5288 -0.7975  0.6121
26563SOL     OW86803   1.105   4.770   4.435 -0.1775  0.0572  0.6352
26563SOL    HW186804   1.049   4.780   4.358  0.2500  1.5411  0.4863
26563SOL    HW286805   1.053   4.716   4.495 -0.8131 -0.5032 -0.3933
26564SOL     OW86806   0.813   6.242  10.574  0.4292 -0.1654 -0.0097
26564SOL    HW186807   0.873   6.179  10.613  0.3099 -0.3954 -0.1938
26564SOL    HW286808   0.779   6.292  10.649  1.1411  0.2287  0.0566
26565SOL     OW86809   8.176   7.549  12.746  0.7843 -0.3174 -0.4167
26565SOL    HW186810   8.260   7.503  12.750  0.8130 -0.1938  0.4210
26565SOL    HW286811   8.184   7.605  12.669  1.1651 -0.8988 -0.8102
26566SOL     OW86812   8.972   4.159   2.455  0.3063 -0.6228  0.3466
26566SOL    HW186813   9.059   4.120   2.445  1.1959  1.3763 -0.1117
26566SOL    HW286814   8.934   4.156   2.367 -0.3682 -2.0437  0.6617
26567SOL     OW86815   0.955   0.996   0.982  0.0906  0.1526 -0.1929
26567SOL    HW186816   1.043   0.979   0.948 -0.2339 -0.2737 -0.8428
26567SOL    HW286817   0.905   1.024   0.906 -0.3966  0.1666  0.1304
26568SOL     OW86818  10.057   4.605   5.086 -0.4075  0.0085  0.8055
26568SOL    HW186819  10.111   4.656   5.147  0.6127 -0.0641  0.0007
26568SOL    HW286820  10.084   4.514   5.099  2.0048  0.2307 -1.7320
26569SOL     OW86821  10.192   2.023   4.482  0.1464  0.4788  0.3861
26569SOL    HW186822  10.143   2.081   4.541 -0.0508  2.4418 -1.6103
26569SOL    HW286823  10.132   2.006   4.409 -0.1311 -3.0286  1.2277
26570SOL     OW86824   1.081   2.482   0.562 -0.0514 -0.3207 -0.4641
26570SOL    HW186825   1.014   2.550   0.561  1.3822  1.1589  0.0946
26570SOL    HW286826   1.163   2.529   0.581  1.3212 -1.9171 -2.1020
26571SOL     OW86827   0.725  11.694   3.557  0.2849 -0.2394  0.5512
26571SOL    HW186828   0.682  11.611   3.579  0.3260 -0.7760 -1.2772
26571SOL    HW286829   0.728  11.695   3.462  0.2585  1.9005  0.5341
26572SOL     OW86830   1.585   0.256   4.748  0.8781 -0.0878  0.1073
26572SOL    HW186831   1.543   0.209   4.676  0.4719  0.0472  0.2511
26572SOL    HW286832   1.678   0.237   4.738  0.7140 -0.9835  0.2143
26573SOL     OW86833   4.017   3.629  12.250  0.1657  0.1889  0.1218
26573SOL    HW186834   3.935   3.667  12.282  0.3118  0.5911  0.0288
26573SOL    HW286835   4.007   3.535  12.264 -0.0363  0.2961  0.7545
26574SOL     OW86836  10.586   8.595   8.954  0.4598  0.3711 -0.1156
26574SOL    HW186837  10.613   8.685   8.972 -2.7820  1.5291 -0.2851
26574SOL    HW286838  10.589   8.587   8.859  0.6678  0.3228 -0.1052
26575SOL     OW86839   3.768  11.504   3.014 -0.3572  0.3386 -0.3672
26575SOL    HW186840   3.802  11.436   3.073  0.3270 -0.8777 -2.0559
26575SOL    HW286841   3.673  11.497   3.022 -0.3014  1.3540  1.7901
26576SOL     OW86842   4.803  11.164  12.379  0.0274 -0.4490  0.0891
26576SOL    HW186843   4.742  11.128  12.314 -0.6319  0.6624  0.0663
26576SOL    HW286844   4.839  11.243  12.337  1.1543 -0.8410  0.2786
26577SOL     OW86845   6.103  12.011   6.390 -0.1853 -0.4533  0.1486
26577SOL    HW186846   6.077  11.975   6.306 -0.3670  0.7685 -0.3319
26577SOL    HW286847   6.021  12.018   6.440 -0.4809  1.1946 -0.5139
26578SOL     OW86848   7.498   0.217   2.379  0.0284 -0.3034  0.0970
26578SOL    HW186849   7.403   0.222   2.364 -0.3064 -2.1331  1.3115
26578SOL    HW286850   7.523   0.130   2.348  1.1222 -0.2403  0.7547
26579SOL     OW86851  10.887  10.466   4.377 -0.0607  0.3245  0.3050
26579SOL    HW186852  10.872  10.560   4.364 -2.0214  0.0051 -0.1032
26579SOL    HW286853  10.802  10.433   4.407  0.6743 -1.2812  0.6938
26580SOL     OW86854  11.498   4.418   6.482  0.6634  0.5355 -0.1312
26580SOL    HW186855  11.555   4.354   6.439  1.7322  1.0897  0.4402
26580SOL    HW286856  11.547   4.447   6.558 -0.5352  0.7852  0.5614
26581SOL     OW86857   5.190   3.950  12.132 -0.1754  0.0542 -0.1588
26581SOL    HW186858   5.284   3.961  12.119 -0.3387  1.6766 -0.2178
26581SOL    HW286859   5.159   4.036  12.160 -1.5661 -0.5873  0.3901
26582SOL     OW86860  11.687   1.515   6.366 -0.1893 -0.2019 -0.5578
26582SOL    HW186861  11.623   1.452   6.398  0.8017 -0.9967 -0.1143
26582SOL    HW286862  11.750   1.524   6.438 -0.7113  1.8821 -0.2882
26583SOL     OW86863  12.546   3.966   6.175 -0.1292 -0.1583  0.3331
26583SOL    HW186864  12.575   3.907   6.106  0.3893 -0.8034  1.0878
26583SOL    HW286865  12.456   3.941   6.191 -0.2037 -0.1104  0.0032
26584SOL     OW86866   4.032   7.980   4.203 -0.1853 -0.4044  0.5311
26584SOL    HW186867   3.945   7.983   4.162  0.8874 -0.6061 -1.9011
26584SOL    HW286868   4.070   8.066   4.184  0.9750 -1.1010 -0.4165
26585SOL     OW86869  11.204   0.158   5.179  1.1264 -0.3014  0.0718
26585SOL    HW186870  11.179   0.135   5.269  0.5972 -2.0916 -0.4906
26585SOL    HW286871  11.180   0.250   5.171 -0.7821 -0.6431  1.1338
26586SOL     OW86872   8.958   1.005   5.436 -0.0448 -0.3896 -0.0208
26586SOL    HW186873   9.020   0.980   5.504  0.1339 -0.8772 -0.3553
26586SOL    HW286874   8.897   1.065   5.479  0.9113  0.4397  0.2079
26587SOL     OW86875  11.453   2.956   8.545  0.3367 -0.3597 -0.1188
26587SOL    HW186876  11.448   2.895   8.471  0.0797  0.6243 -0.9422
26587SOL    HW286877  11.537   2.936   8.587  0.1707 -1.3946 -0.2567
26588SOL     OW86878   3.988   0.080   6.053 -0.6735  0.7858 -0.0918
26588SOL    HW186879   3.932   0.112   5.982 -1.4150  1.7158  0.8625
26588SOL    HW286880   3.938   0.099   6.132 -0.4372 -1.3943  0.6369
26589SOL     OW86881   3.794   4.513  10.425 -0.1138  0.1734 -0.4926
26589SOL    HW186882   3.721   4.478  10.476 -0.8527  1.9404 -0.2469
26589SOL    HW286883   3.872   4.477  10.468 -0.7998 -0.6944  0.0704
26590SOL     OW86884   8.583   2.547   1.981 -0.6597  0.0375  0.1252
26590SOL    HW186885   8.575   2.460   2.019  1.2673  0.1320  0.9149
26590SOL    HW286886   8.578   2.606   2.056 -2.9067  0.7246 -0.5023
26591SOL     OW86887   9.997   0.144   2.921 -0.3562  0.1506  0.1870
26591SOL    HW186888  10.067   0.100   2.970  0.0682  0.1619 -0.3974
26591SOL    HW286889   9.918   0.130   2.974 -0.7040 -3.2554 -0.9770
26592SOL     OW86890   3.755   1.055   2.424 -0.2265  0.2697 -0.0076
26592SOL    HW186891   3.791   0.976   2.384  0.6077  0.3199  0.6130
26592SOL    HW286892   3.732   1.111   2.349 -0.6814 -0.4849 -0.4468
26593SOL     OW86893   8.367  11.813   9.400 -0.0130 -0.2076 -0.3288
26593SOL    HW186894   8.383  11.908   9.399  0.2725 -0.2425  0.5420
26593SOL    HW286895   8.455  11.775   9.405 -0.0216 -0.5686 -2.2213
26594SOL     OW86896   0.916   7.943   2.206  0.8991  0.0226 -0.0752
26594SOL    HW186897   0.875   7.951   2.292  0.0610 -0.8066 -0.3816
26594SOL    HW286898   0.984   8.010   2.206 -0.9451  2.0206  0.1639
26595SOL     OW86899  11.717   2.975  10.952  0.3945 -0.1497 -0.5759
26595SOL    HW186900  11.686   3.050  10.901  0.3450 -0.7654 -1.4852
26595SOL    HW286901  11.804   2.957  10.918  0.9491  0.2991  0.5533
26596SOL     OW86902   8.254   1.144   7.768  0.4258  0.0053  0.5552
26596SOL    HW186903   8.193   1.163   7.697 -1.7396 -0.1519  2.2537
26596SOL    HW286904   8.313   1.220   7.770  0.3408  0.1455 -1.1715
26597SOL     OW86905   6.472   3.496  10.634 -0.3456  0.0862 -0.1106
26597SOL    HW186906   6.457   3.554  10.559 -0.3791  1.4619  0.9139
26597SOL    HW286907   6.566   3.476  10.630 -0.3849  0.0108 -0.6254
26598SOL     OW86908   1.653  10.475   3.867 -0.0208 -0.1042 -0.2012
26598SOL    HW186909   1.624  10.565   3.881  0.0678  0.1339 -1.4770
26598SOL    HW286910   1.580  10.422   3.898 -0.3033  0.4102  0.0355
26599SOL     OW86911   5.807   8.444   5.686 -0.1582 -0.6377  0.1825
26599SOL    HW186912   5.879   8.388   5.714  0.8587  0.0719 -0.9447
26599SOL    HW286913   5.742   8.383   5.650  0.4208 -1.1776  0.0375
26600SOL     OW86914   1.147   4.187   8.305 -0.0713 -0.2727 -0.3949
26600SOL    HW186915   1.107   4.246   8.369 -0.9816 -0.9891 -0.2908
26600SOL    HW286916   1.176   4.244   8.234  0.1550  0.4310  0.2481
26601SOL     OW86917  11.225   9.748  12.332  0.7091  0.0002 -0.1352
26601SOL    HW186918  11.232   9.675  12.394 -1.1980  0.2260  0.3909
26601SOL    HW286919  11.153   9.723  12.274 -0.8077  1.9583  0.8022
26602SOL     OW86920   2.766   0.753   9.951  0.0908  0.6117  0.1084
26602SOL    HW186921   2.834   0.766   9.885  0.6431  1.3314  0.8129
26602SOL    HW286922   2.773   0.660   9.975 -0.1431  0.3294 -0.8508
26603SOL     OW86923   2.430  10.577   4.562  0.3097 -0.5036  0.1676
26603SOL    HW186924   2.496  10.609   4.624  0.2353  1.1239 -0.5581
26603SOL    HW286925   2.379  10.514   4.613 -1.1986  2.4030  2.5457
26604SOL     OW86926  10.382   8.834  12.861  0.1801 -0.2440  0.1570
26604SOL    HW186927  10.378   8.928  12.839  0.5792  0.0059  1.0954
26604SOL    HW286928  10.467   8.823  12.903  0.6801 -1.2988 -1.0803
26605SOL     OW86929   4.243  12.101   0.015  0.3494  0.0182  0.3002
26605SOL    HW186930   4.233  12.086   0.109 -0.9344  0.6150  0.2792
26605SOL    HW286931   4.290  12.184   0.009 -0.2378  0.3723  0.4390
26606SOL     OW86932   8.138   4.309   4.007 -0.2285  0.2461  0.3993
26606SOL    HW186933   8.169   4.222   4.030 -0.7712  0.0715  0.4900
26606SOL    HW286934   8.094   4.340   4.086 -0.7480  0.2736  0.1005
26607SOL     OW86935   8.447   9.363   6.727 -0.1812 -0.2454  0.1955
26607SOL    HW186936   8.430   9.457   6.715 -2.3259 -0.7852 -1.8132
26607SOL    HW286937   8.361   9.325   6.742  0.7231 -1.8752  1.5717
26608SOL     OW86938  12.640   5.314  10.480  0.5821  0.3502  0.0726
26608SOL    HW186939  12.627   5.226  10.518 -0.5171  1.0087  1.3293
26608SOL    HW286940  12.647   5.372  10.556 -0.9043  1.6327 -0.7035
26609SOL     OW86941  11.319   5.863   9.798  0.7964  0.2410  0.1442
26609SOL    HW186942  11.281   5.807   9.730  0.2189 -0.9006  1.3632
26609SOL    HW286943  11.407   5.882   9.767  0.1885  0.6321 -1.4190
26610SOL     OW86944   8.136   9.010   3.394  0.2101 -0.2500 -0.2834
26610SOL    HW186945   8.056   9.028   3.344 -0.9041 -1.4785  0.9689
26610SOL    HW286946   8.119   9.045   3.481  1.1644 -0.2717 -0.0798
26611SOL     OW86947   0.608   1.878   0.130 -0.2796 -0.2256 -0.4516
26611SOL    HW186948   0.522   1.870   0.172 -0.0046 -0.6362  0.0542
26611SOL    HW286949   0.660   1.928   0.193 -0.0411 -0.3117 -0.5795
26612SOL     OW86950   8.771  12.039   0.552  0.1121 -0.1081 -0.4038
26612SOL    HW186951   8.761  12.129   0.582 -2.5806 -1.0373  1.9161
26612SOL    HW286952   8.773  11.987   0.632  0.2325 -2.2176 -1.6977
26613SOL     OW86953  12.412   1.748   6.059 -0.1755 -0.1847 -0.1167
26613SOL    HW186954  12.451   1.662   6.076  0.4975  0.0552 -0.4080
26613SOL    HW286955  12.332   1.748   6.112 -0.7815 -1.4121 -0.9679
26614SOL     OW86956   7.895  12.810   4.283  0.3429  0.3400  0.0069
26614SOL    HW186957   7.869  12.889   4.332 -0.9577 -0.4663  0.6632
26614SOL    HW286958   7.813  12.775   4.248  0.5126 -2.0017  1.7080
26615SOL     OW86959   9.587   1.147   6.347 -0.0545  0.2548 -0.1822
26615SOL    HW186960   9.558   1.163   6.257  0.5339  2.4126 -0.0236
26615SOL    HW286961   9.642   1.068   6.340  1.6934  1.5194 -2.1283
26616SOL     OW86962   7.226   3.703   4.807  0.1476  0.1343 -0.4087
26616SOL    HW186963   7.272   3.786   4.802  0.6196 -0.1572 -1.2541
26616SOL    HW286964   7.267   3.649   4.739 -2.2767  0.2833 -2.1380
26617SOL     OW86965  11.346   2.175  11.946  0.0052  0.4867  0.3438
26617SOL    HW186966  11.393   2.255  11.967  0.6801 -0.0773  1.0376
26617SOL    HW286967  11.253   2.199  11.953  0.1789  0.8040  2.2401
26618SOL     OW86968   8.992   0.999   8.199  0.2599  0.2491 -0.1195
26618SOL    HW186969   9.076   0.953   8.209  0.6278  1.2449  2.0182
26618SOL    HW286970   8.930   0.947   8.250 -0.6257 -0.7761 -2.1207
26619SOL     OW86971   0.807   3.598   1.316  0.1168 -0.3808  0.0745
26619SOL    HW186972   0.865   3.533   1.355  0.5404  0.5055  0.9745
26619SOL    HW286973   0.809   3.579   1.222  1.0500 -1.0027  0.2075
26620SOL     OW86974   1.921  10.590  11.503 -0.1898  0.1668  0.0070
26620SOL    HW186975   1.947  10.626  11.587 -0.1408 -2.8342  1.4373
26620SOL    HW286976   2.001  10.592  11.450  0.2792  0.3612  0.7126
26621SOL     OW86977   1.119   6.376   7.599  0.4558 -0.3112  0.2832
26621SOL    HW186978   1.176   6.410   7.668 -1.1380  0.2555  1.3782
26621SOL    HW286979   1.095   6.453   7.548  0.6898 -0.5544 -0.2001
26622SOL     OW86980   4.250   4.112   0.179  0.0954  0.3154 -0.2085
26622SOL    HW186981   4.194   4.035   0.167 -1.3616  1.4424 -1.1446
26622SOL    HW286982   4.329   4.079   0.220 -0.6069 -1.6265 -0.3217
26623SOL     OW86983   4.322   6.650   2.364  0.0606  0.0683 -0.3768
26623SOL    HW186984   4.340   6.684   2.276 -0.9421 -0.3106 -0.7503
26623SOL    HW286985   4.407   6.651   2.408  0.3877  1.2721 -0.9887
26624SOL     OW86986   3.554   0.695   7.824 -0.0032  0.2069  0.2708
26624SOL    HW186987   3.485   0.757   7.799 -2.6936 -2.0405  1.5773
26624SOL    HW286988   3.634   0.733   7.786 -1.9057  2.8866 -1.5244
26625SOL     OW86989   0.512   3.911   1.914  0.1870  0.6769 -0.5006
26625SOL    HW186990   0.493   3.892   2.006  2.8540 -0.2651 -0.0642
26625SOL    HW286991   0.477   3.836   1.866  0.6603  0.1212  0.0040
26626SOL     OW86992   3.758   3.255   4.858  0.0878 -0.8357 -0.1160
26626SOL    HW186993   3.810   3.176   4.846  0.2324 -0.6087 -0.9982
26626SOL    HW286994   3.780   3.311   4.784  1.8292  1.0841  1.7339
26627SOL     OW86995   6.503   8.316   5.430 -0.4338  0.1030 -0.4586
26627SOL    HW186996   6.506   8.389   5.369 -0.4601 -0.0525 -0.6447
26627SOL    HW286997   6.472   8.242   5.378 -0.6217  0.0125 -0.2183
26628SOL     OW86998   3.802   1.645   0.031 -0.2467  0.5392 -0.0476
26628SOL    HW186999   3.897   1.657   0.018  0.1937 -2.3331 -0.1220
26628SOL    HW287000   3.780   1.704   0.103  1.9325  0.1625  1.0144
26629SOL     OW87001   8.659   9.983   3.777  0.5421  0.2314  0.1820
26629SOL    HW187002   8.590   9.995   3.842  0.1353  0.3087 -0.2508
26629SOL    HW287003   8.612   9.975   3.694  0.9675 -1.1015  0.0367
26630SOL     OW87004   1.911   8.517   5.829 -0.0186 -0.1300  0.1898
26630SOL    HW187005   1.927   8.496   5.737 -1.5869 -1.0685  0.0835
26630SOL    HW287006   1.996   8.508   5.871  0.8249  0.7587 -1.2320
26631SOL     OW87007   6.443   5.369   8.987  0.3676 -0.5911  0.2074
26631SOL    HW187008   6.469   5.328   9.070  1.7402  0.3900  0.2986
26631SOL    HW287009   6.512   5.344   8.926  0.5461  0.4929 -0.0584
26632SOL     OW87010   6.134   0.643  11.578  0.0355  0.5086 -0.2090
26632SOL    HW187011   6.164   0.554  11.559  1.1604  0.7855  0.1930
26632SOL    HW287012   6.154   0.655  11.671 -0.5464  1.0193 -0.1481
26633SOL     OW87013   8.888   7.261   6.967 -0.6099 -0.0109  0.5245
26633SOL    HW187014   8.847   7.347   6.978 -0.7950 -0.1434  0.8970
26633SOL    HW287015   8.875   7.240   6.875  1.7464  1.5344 -0.2538
26634SOL     OW87016   5.701   6.129   1.328  0.3665 -0.3284  0.2853
26634SOL    HW187017   5.755   6.202   1.299  1.0291 -0.8290  0.2425
26634SOL    HW287018   5.763   6.066   1.365 -0.0071 -1.5399 -1.0545
26635SOL     OW87019   4.816   8.359   2.255 -0.0970  0.6860 -0.3938
26635SOL    HW187020   4.817   8.439   2.307 -0.2504  1.1314 -1.0628
26635SOL    HW287021   4.848   8.386   2.169 -1.4792  0.3472 -1.0520
26636SOL     OW87022   3.385   9.931   3.300 -0.1638  0.3028  0.1596
26636SOL    HW187023   3.406   9.894   3.215  0.2473 -1.4650  0.9899
26636SOL    HW287024   3.410   9.864   3.363  1.3568  2.2978  1.8394
26637SOL     OW87025  11.740   5.950   2.984  0.0360  0.0083  0.1412
26637SOL    HW187026  11.831   5.923   2.966 -1.0026 -2.4860 -1.9834
26637SOL    HW287027  11.746   6.045   2.995  2.7582  0.1236 -1.3139
26638SOL     OW87028   6.544   1.014  10.848 -0.6650 -0.0817 -0.1333
26638SOL    HW187029   6.475   1.079  10.856 -0.6327  0.3649 -2.6864
26638SOL    HW287030   6.585   1.033  10.764  0.6001 -2.2219 -0.0663
26639SOL     OW87031   7.648   4.059   3.345  0.0379 -0.3455  0.3643
26639SOL    HW187032   7.651   3.964   3.336  1.1929 -0.2715 -0.2553
26639SOL    HW287033   7.710   4.091   3.280  0.1696  0.8049  1.0323
26640SOL     OW87034  11.990   7.692  11.352 -0.1602  0.3018  0.1558
26640SOL    HW187035  11.972   7.786  11.339 -1.3030  0.0445 -0.2303
26640SOL    HW287036  12.083   7.683  11.332 -0.1244  1.2912 -0.1987
26641SOL     OW87037   7.528   5.332   5.769  0.1441  0.3686  0.1542
26641SOL    HW187038   7.487   5.271   5.831 -0.7819 -0.3459 -1.1234
26641SOL    HW287039   7.595   5.377   5.821  0.0039 -0.8393  1.4457
26642SOL     OW87040  10.245   1.164   2.856 -0.6529 -0.2471 -0.0054
26642SOL    HW187041  10.180   1.234   2.858  1.3567  1.7842  2.0474
26642SOL    HW287042  10.311   1.195   2.793  0.2358 -0.2619  0.8897
26643SOL     OW87043   9.873   0.212  10.556 -0.0731 -0.0988  0.1289
26643SOL    HW187044   9.898   0.220  10.464 -1.0272  1.2285 -0.0555
26643SOL    HW287045   9.779   0.194  10.554 -0.5342  1.9342  0.8197
26644SOL     OW87046   6.407  10.474   2.629 -0.0286 -0.2749 -0.5972
26644SOL    HW187047   6.474  10.411   2.601  0.2693 -0.0312 -0.4347
26644SOL    HW287048   6.350  10.424   2.688 -0.8938 -0.9082 -1.9144
26645SOL     OW87049   4.792   9.606   3.784 -0.2067 -0.9907 -0.0754
26645SOL    HW187050   4.824   9.643   3.866 -0.9330  1.0280 -0.6387
26645SOL    HW287051   4.864   9.620   3.722 -0.0832 -1.4859 -0.0434
26646SOL     OW87052  12.017  12.761   6.025  0.0762 -0.3117  0.6827
26646SOL    HW187053  12.029  12.805   5.941 -1.5641 -0.4422  0.3470
26646SOL    HW287054  12.105  12.757   6.063  0.8248 -0.1693 -0.9755
26647SOL     OW87055   2.993   5.344   1.632  0.3421 -0.1574 -0.0916
26647SOL    HW187056   3.065   5.285   1.653  2.0315  1.4613 -0.9396
26647SOL    HW287057   3.011   5.372   1.542 -0.9193  0.8925 -0.0452
26648SOL     OW87058   7.193   1.595   0.527 -0.7944  0.4639  0.3431
26648SOL    HW187059   7.202   1.544   0.608  3.0165  0.9278  0.3703
26648SOL    HW287060   7.225   1.682   0.550 -0.3843  0.8246 -1.4643
26649SOL     OW87061   6.442   9.132   6.991  0.1570 -0.4158  0.6814
26649SOL    HW187062   6.434   9.208   7.048  0.7730  0.2398 -0.0820
26649SOL    HW287063   6.354   9.094   6.988 -0.9702  2.0561 -1.3442
26650SOL     OW87064   8.031   3.482  12.326  0.3673  0.1388  0.2292
26650SOL    HW187065   8.044   3.438  12.410  1.8588  1.7208  0.8855
26650SOL    HW287066   7.941   3.512  12.329  0.2163 -0.3541  1.0090
26651SOL     OW87067  12.279   0.965  10.901  0.0097 -0.2640 -0.0633
26651SOL    HW187068  12.189   0.973  10.935 -0.2452 -1.0837 -0.5023
26651SOL    HW287069  12.332   1.016  10.962 -0.2613 -2.5023  2.2728
26652SOL     OW87070  10.563  11.440  12.585 -0.0339  0.0974 -0.0949
26652SOL    HW187071  10.585  11.501  12.656  0.6693 -0.5991  0.2949
26652SOL    HW287072  10.567  11.493  12.506 -1.3272  1.0150  0.4068
26653SOL     OW87073  11.433   6.501   1.463  0.1227 -0.1705  0.0419
26653SOL    HW187074  11.463   6.564   1.398  0.5738 -1.2266 -0.7956
26653SOL    HW287075  11.509   6.489   1.521  0.3651 -0.6420 -0.3614
26654SOL     OW87076  11.096   4.483   3.017  0.3721 -0.4874 -0.1893
26654SOL    HW187077  11.055   4.567   2.997  0.9183 -0.4078 -1.0296
26654SOL    HW287078  11.185   4.491   2.982  0.3494 -1.4974 -0.5148
26655SOL     OW87079  11.651   9.586  12.285 -0.0720  0.2890 -0.1553
26655SOL    HW187080  11.611   9.672  12.301 -0.1631  0.4153 -1.0200
26655SOL    HW287081  11.702   9.569  12.364 -1.4403  0.3443  0.7688
26656SOL     OW87082   0.331   9.999   0.193 -0.2815 -0.5326 -0.3855
26656SOL    HW187083   0.379   9.946   0.130 -0.2613 -1.4827  0.3978
26656SOL    HW287084   0.264  10.044   0.142  2.3678  2.1071 -1.8175
26657SOL     OW87085   0.573   2.744   4.088 -0.4724 -0.0445  0.4088
26657SOL    HW187086   0.535   2.751   4.001 -1.3337 -0.9111  0.7049
26657SOL    HW287087   0.648   2.685   4.076  1.0408  1.9171 -0.2344
26658SOL     OW87088   5.995   8.513   4.668  0.3216  0.6294  0.0998
26658SOL    HW187089   6.029   8.458   4.598 -1.6255 -0.3889 -0.1296
26658SOL    HW287090   5.911   8.473   4.690 -1.0934  3.3715  0.0830
26659SOL     OW87091   6.980   0.842   7.071  0.0422  0.7072  0.0899
26659SOL    HW187092   7.062   0.882   7.098 -0.0100  0.6889  0.2817
26659SOL    HW287093   6.970   0.766   7.129  0.0328  0.5446 -0.1251
26660SOL     OW87094   6.509   5.417   4.642 -0.3655 -0.2092 -0.0774
26660SOL    HW187095   6.490   5.334   4.686 -3.4285 -0.2555 -1.2579
26660SOL    HW287096   6.507   5.483   4.711  1.0357 -0.9249  0.6961
26661SOL     OW87097  10.972   2.837   8.955  0.4194  0.0347  0.6680
26661SOL    HW187098  11.063   2.809   8.966  0.4191  0.2521  1.2635
26661SOL    HW287099  10.922   2.777   9.010  0.2006 -0.0669  0.3607
26662SOL     OW87100   6.155   3.874   9.850 -0.6671  0.1951 -0.5869
26662SOL    HW187101   6.141   3.914   9.764 -2.0534  0.9878 -0.0200
26662SOL    HW287102   6.069   3.878   9.892  0.1883  0.6330  1.1859
26663SOL     OW87103   6.224   4.267   5.841 -0.0969  0.0477  0.1083
26663SOL    HW187104   6.238   4.251   5.748 -0.9008 -0.8812  0.1312
26663SOL    HW287105   6.202   4.360   5.847  0.1284  0.1481 -0.6076
26664SOL     OW87106   0.991   1.159   4.264 -0.0495  0.2004  0.2343
26664SOL    HW187107   0.948   1.148   4.349  1.3767  2.2398  1.3183
26664SOL    HW287108   1.043   1.079   4.254 -0.7489 -0.3677  0.9557
26665SOL     OW87109   2.628   1.662  11.980  0.2231 -0.3010 -0.3949
26665SOL    HW187110   2.581   1.710  11.912  2.3061 -1.5992 -2.9365
26665SOL    HW287111   2.720   1.664  11.952  0.9777 -2.0810  1.6588
26666SOL     OW87112   5.939   2.612   8.318  0.5169 -0.0160 -0.6220
26666SOL    HW187113   5.920   2.667   8.394  2.4984 -0.5836  0.3292
26666SOL    HW287114   6.030   2.586   8.328  0.3386 -1.5320 -2.3084
26667SOL     OW87115   6.537   9.107   9.265 -0.0633  0.0769  0.3928
26667SOL    HW187116   6.568   9.193   9.239 -0.3315 -0.0925 -0.5521
26667SOL    HW287117   6.585   9.046   9.209 -2.3594 -0.1658 -1.4805
26668SOL     OW87118   5.809   9.956   9.398 -0.3582 -0.6677  0.3711
26668SOL    HW187119   5.895   9.991   9.420 -0.6553  0.4446 -0.1509
26668SOL    HW287120   5.795   9.885   9.460  1.0183 -0.9972  0.3292
26669SOL     OW87121  12.795   6.441  12.587  0.2754 -0.1376 -0.1256
26669SOL    HW187122  12.797   6.396  12.503 -1.7972 -2.1792  0.8225
26669SOL    HW287123  12.728   6.509  12.576  0.6190  0.1592 -0.3837
26670SOL     OW87124   5.477   1.841   8.470  0.2492  1.0683 -0.3882
26670SOL    HW187125   5.553   1.840   8.411 -0.3123  2.0442 -1.1559
26670SOL    HW287126   5.484   1.924   8.516  0.0236  0.8489  0.0426
26671SOL     OW87127   7.794   5.015   1.149  0.1178 -0.1586 -0.8764
26671SOL    HW187128   7.824   4.978   1.066  0.9814  1.9758 -1.5798
26671SOL    HW287129   7.854   5.088   1.166 -1.9903  1.4824 -0.0452
26672SOL     OW87130   0.482   6.740   6.188  0.3640  0.1994 -0.1182
26672SOL    HW187131   0.536   6.770   6.262  1.6721 -0.2480 -0.8598
26672SOL    HW287132   0.396   6.779   6.205  0.8366  0.7485  1.2288
26673SOL     OW87133   5.398   4.871   0.173 -0.1573 -0.3511 -0.7820
26673SOL    HW187134   5.453   4.875   0.095  0.7922  0.0886 -0.1065
26673SOL    HW287135   5.455   4.898   0.244 -1.2776  0.2386 -0.0736
26674SOL     OW87136  12.266   9.831   8.700  0.4307  0.2083  0.7112
26674SOL    HW187137  12.350   9.803   8.665  0.5975 -0.9232  1.9376
26674SOL    HW287138  12.278   9.830   8.795 -1.3455 -1.3178  0.9753
26675SOL     OW87139   6.385   0.100   8.824  0.0505 -1.1187  0.1964
26675SOL    HW187140   6.446   0.154   8.874 -0.5674 -0.1571 -0.0576
26675SOL    HW287141   6.308   0.155   8.812 -1.0588 -2.4383  0.8672
26676SOL     OW87142   8.451   2.029   4.256 -0.3390  0.2554 -0.2940
26676SOL    HW187143   8.499   1.961   4.208 -1.4883  0.4791 -1.8232
26676SOL    HW287144   8.399   1.980   4.320  0.2354 -0.1385 -0.1115
26677SOL     OW87145   3.473   8.525   8.514 -0.4822  0.0362 -0.5047
26677SOL    HW187146   3.457   8.581   8.590 -1.1339 -3.6417  2.3937
26677SOL    HW287147   3.389   8.520   8.469 -0.9583 -0.1813  0.3908
26678SOL     OW87148   6.739   7.962   1.650  0.1412 -0.2257  0.2799
26678SOL    HW187149   6.701   7.941   1.735 -0.9142  1.4891  0.2957
26678SOL    HW287150   6.833   7.952   1.662 -0.0665 -1.1941  1.2768
26679SOL     OW87151   4.710   5.051   3.547 -0.1048 -0.5443  0.1369
26679SOL    HW187152   4.702   5.146   3.539 -2.0686 -0.6059  0.8262
26679SOL    HW287153   4.770   5.038   3.620 -0.3105  0.1763  0.4438
26680SOL     OW87154  10.399   0.558  10.786 -0.0835  0.3741  0.7989
26680SOL    HW187155  10.338   0.563  10.860  1.6882  0.0164  2.3548
26680SOL    HW287156  10.482   0.589  10.822  1.1856 -1.2251 -0.6463
26681SOL     OW87157   1.733   6.994   8.578 -0.0022 -0.1339 -0.2090
26681SOL    HW187158   1.749   7.019   8.487 -0.7080 -1.7220 -0.8095
26681SOL    HW287159   1.638   6.985   8.584  0.0407 -0.0792  0.6869
26682SOL     OW87160   3.280   3.070   0.128 -0.3221 -0.2149 -0.6030
26682SOL    HW187161   3.372   3.047   0.140 -0.0518  1.1292  0.1407
26682SOL    HW287162   3.264   3.055   0.035  0.2385 -1.8041 -0.4618
26683SOL     OW87163  11.726  12.494  11.349 -0.4165  0.8373  0.1532
26683SOL    HW187164  11.745  12.571  11.402  0.4630  1.6244 -1.2340
26683SOL    HW287165  11.711  12.529  11.261  0.2060 -0.5841 -0.5544
26684SOL     OW87166  10.469   7.250   1.830 -0.4046 -0.0035 -0.2867
26684SOL    HW187167  10.546   7.196   1.811 -0.9933 -0.8401 -0.3494
26684SOL    HW287168  10.497   7.306   1.903  0.2596 -0.2929 -0.3058
26685SOL     OW87169   2.402   0.681   3.715  0.2038 -0.5489 -0.6513
26685SOL    HW187170   2.434   0.672   3.804 -0.4705 -2.0889 -0.5463
26685SOL    HW287171   2.362   0.768   3.712 -0.5130 -0.8233  0.7723
26686SOL     OW87172  10.132   9.393   8.740 -0.0626  0.3578 -0.4063
26686SOL    HW187173  10.162   9.345   8.817  1.2370  0.0288 -1.0872
26686SOL    HW287174  10.062   9.339   8.704  0.2908 -0.2157 -0.2459
26687SOL     OW87175   6.983   3.405   9.342 -0.3825  0.9867  0.3134
26687SOL    HW187176   6.896   3.414   9.379 -0.3225 -2.7369  1.7296
26687SOL    HW287177   7.011   3.317   9.365  3.4024  1.6518 -0.9419
26688SOL     OW87178  11.905   4.744   4.754 -0.8157 -0.4528  0.0255
26688SOL    HW187179  11.869   4.705   4.675  2.9313 -0.9330 -1.6672
26688SOL    HW287180  11.916   4.670   4.814  0.4688 -0.9649 -0.7934
26689SOL     OW87181   5.843   2.742   0.632 -0.4471  0.0412  0.3218
26689SOL    HW187182   5.905   2.677   0.665  1.6446  1.0443 -1.3168
26689SOL    HW287183   5.850   2.815   0.693  0.3317  0.3086 -0.0729
26690SOL     OW87184   1.031   1.066  10.681  0.4041  0.3551  0.2529
26690SOL    HW187185   1.009   1.091  10.771  0.6451 -0.1476  0.4575
26690SOL    HW287186   0.967   0.998  10.660  0.9352 -0.1875  0.3806
26691SOL     OW87187   6.593   7.913   4.076 -0.3785 -0.2093 -0.2191
26691SOL    HW187188   6.658   7.861   4.124 -0.1406  0.3838  0.1061
26691SOL    HW287189   6.635   7.932   3.992 -1.0060 -1.7159 -0.9195
26692SOL     OW87190   8.706   2.837   8.738 -0.0276 -0.1475 -0.4997
26692SOL    HW187191   8.754   2.912   8.771  0.1050 -0.4458 -0.0077
26692SOL    HW287192   8.770   2.766   8.736 -0.7346 -0.8954  1.3992
26693SOL     OW87193   1.415   3.750   7.286  0.3584  0.2838 -0.5034
26693SOL    HW187194   1.402   3.655   7.293 -0.3420  0.3209 -1.1707
26693SOL    HW287195   1.446   3.763   7.196  2.3402  0.5142  0.1571
26694SOL     OW87196   4.537   6.978   7.071  0.5124  0.4831  0.1402
26694SOL    HW187197   4.588   6.927   7.135 -0.4775 -0.3515  0.2957
26694SOL    HW287198   4.586   6.969   6.989  0.4455 -0.6028  0.2062
26695SOL     OW87199   0.090  10.510  12.795 -0.3121 -0.0947  0.3327
26695SOL    HW187200   0.114  10.584  12.851 -0.0680 -0.9281  1.3700
26695SOL    HW287201   0.153  10.441  12.818 -0.0597 -0.3993 -1.1498
26696SOL     OW87202   3.289   0.399   6.224 -0.3559  0.1006 -0.5019
26696SOL    HW187203   3.324   0.431   6.307  0.6182 -0.8691 -0.5197
26696SOL    HW287204   3.308   0.470   6.162  0.8797 -0.0558 -0.3407
26697SOL     OW87205   5.397  12.644   1.055  0.1494 -0.4641 -0.4189
26697SOL    HW187206   5.459  12.673   1.122 -0.9079  1.1278 -0.0970
26697SOL    HW287207   5.438  12.669   0.972  0.2632 -0.0819 -0.2479
26698SOL     OW87208   7.711  11.446   8.797 -0.3112  0.5484 -0.6945
26698SOL    HW187209   7.791  11.413   8.756 -0.0154  1.9655 -1.3088
26698SOL    HW287210   7.641  11.391   8.762  0.1880  0.4165 -1.4959
26699SOL     OW87211   6.384   4.010   7.548  0.4136  0.0151  0.6344
26699SOL    HW187212   6.314   4.067   7.515  1.4757 -0.1432 -2.0762
26699SOL    HW287213   6.338   3.933   7.582 -0.7643 -0.0110 -0.9400
26700SOL     OW87214   2.312   9.298   0.919  0.0156 -0.1551 -0.1286
26700SOL    HW187215   2.253   9.360   0.961  1.3716 -1.0137  3.4417
26700SOL    HW287216   2.356   9.254   0.992 -0.0502 -4.5609 -2.4175
26701SOL     OW87217   5.070   1.532   1.304 -0.0523 -0.2016  0.5797
26701SOL    HW187218   4.978   1.525   1.279  0.1651 -3.4514  0.3025
26701SOL    HW287219   5.076   1.484   1.387  1.2865  0.5936  0.9747
26702SOL     OW87220   0.425   0.403   8.149 -0.5373 -0.5194  0.0693
26702SOL    HW187221   0.487   0.342   8.111  1.2810  0.6755  0.9768
26702SOL    HW287222   0.415   0.472   8.082  0.9956  0.4861  0.8280
26703SOL     OW87223   0.322   1.117   4.192 -0.0538  0.1901  0.0968
26703SOL    HW187224   0.235   1.078   4.199 -0.8628  1.3561 -2.3193
26703SOL    HW287225   0.378   1.045   4.160 -0.6757  0.0010 -0.6117
26704SOL     OW87226   5.646  11.616   0.556 -0.5988 -0.4120 -0.5031
26704SOL    HW187227   5.631  11.587   0.646  2.2504 -0.2986  0.1018
26704SOL    HW287228   5.584  11.687   0.542 -1.5929 -0.9284  1.0844
26705SOL     OW87229   9.875   6.698   1.101  0.0456  0.0536 -0.5975
26705SOL    HW187230   9.938   6.679   1.031  1.6093  2.0280  0.1857
26705SOL    HW287231   9.820   6.768   1.066  0.2933  0.4719 -0.1552
26706SOL     OW87232  10.736   4.637  10.167 -0.2501 -0.1007  0.9022
26706SOL    HW187233  10.703   4.671  10.084 -1.1166  1.5910  1.8825
26706SOL    HW287234  10.823   4.676  10.176 -0.9694  1.4161  1.7010
26707SOL     OW87235   2.117  11.118   9.835  0.2074  0.0900 -0.0032
26707SOL    HW187236   2.113  11.199   9.886  2.9302  0.1650  0.1952
26707SOL    HW287237   2.150  11.053   9.897  1.2042 -0.3938 -1.0174
26708SOL     OW87238  11.538   2.295   4.540 -0.1083 -0.1052  0.0791
26708SOL    HW187239  11.585   2.378   4.542 -0.1110 -0.0835 -0.4269
26708SOL    HW287240  11.588   2.237   4.596  0.5218 -0.0815 -0.4390
26709SOL     OW87241  10.351   7.317   2.163 -0.1938 -0.5777 -0.3502
26709SOL    HW187242  10.285   7.281   2.103 -0.3252 -3.2855  1.2514
26709SOL    HW287243  10.401   7.378   2.109 -2.3646 -0.3804 -2.2996
26710SOL     OW87244   4.552   7.568   0.656  0.6492  0.1218  0.1659
26710SOL    HW187245   4.457   7.580   0.649  0.6454  0.6579  0.9522
26710SOL    HW287246   4.567   7.554   0.750  1.7021  3.5167  0.6295
26711SOL     OW87247  11.675   7.455   1.156 -0.7783  0.3804 -0.7278
26711SOL    HW187248  11.646   7.479   1.244  0.4894  0.6071 -0.3610
26711SOL    HW287249  11.723   7.532   1.125  0.3886 -0.3828 -0.8747
26712SOL     OW87250  12.830   9.424  12.763 -0.0512  0.1691  0.3118
26712SOL    HW187251  12.873   9.480  12.827  0.7412 -0.8356  0.6995
26712SOL    HW287252  12.845   9.335  12.795 -0.7382 -0.2945 -0.5987
26713SOL     OW87253  10.167   1.969   9.810 -0.0455 -0.0115  0.2386
26713SOL    HW187254  10.147   2.053   9.851 -0.1095  0.1525 -0.1257
26713SOL    HW287255  10.222   1.924   9.874  1.3930  0.9784 -0.2545
26714SOL     OW87256  11.342   7.357  11.528 -0.2368  0.3333 -0.1742
26714SOL    HW187257  11.348   7.279  11.583 -2.0346 -1.2359 -2.0477
26714SOL    HW287258  11.425   7.358  11.480  0.3948  0.4400  0.8731
26715SOL     OW87259   6.542  12.046  10.999 -0.1974  0.0418 -0.5797
26715SOL    HW187260   6.617  12.047  10.940 -0.3213 -0.8716 -0.7712
26715SOL    HW287261   6.522  11.953  11.010 -2.3735  0.2929 -1.8994
26716SOL     OW87262   6.701   4.885  12.444 -0.2616  0.0049  0.3587
26716SOL    HW187263   6.667   4.939  12.374 -1.0966  0.6223  1.2201
26716SOL    HW287264   6.796   4.895  12.438 -0.2497 -0.7661 -1.2958
26717SOL     OW87265   4.526   4.822   7.171  0.2175 -0.1019  0.2669
26717SOL    HW187266   4.583   4.850   7.242  0.5736  0.3596 -0.1979
26717SOL    HW287267   4.581   4.825   7.093 -0.2257 -0.4159 -0.0637
26718SOL     OW87268   9.752   9.164   0.290  0.0140  0.1742 -0.1097
26718SOL    HW187269   9.720   9.075   0.299  0.1680  0.1947  0.7282
26718SOL    HW287270   9.745   9.201   0.379  0.4681  0.8112 -0.3332
26719SOL     OW87271  11.291   2.544   2.329  0.4963  0.2046  0.3176
26719SOL    HW187272  11.247   2.520   2.248  0.3264  1.4894  0.0100
26719SOL    HW287273  11.249   2.625   2.357 -0.1004 -0.6845  2.2257
26720SOL     OW87274   0.738  12.162   0.332  0.0334  0.4162 -0.7904
26720SOL    HW187275   0.732  12.136   0.424  0.5929  0.5928 -0.7011
26720SOL    HW287276   0.826  12.197   0.322 -0.2648  1.0791 -1.2246
26721SOL     OW87277   8.744   3.982   7.282 -0.0631  0.0064  0.2306
26721SOL    HW187278   8.832   3.972   7.318  0.5586  0.9613 -0.9364
26721SOL    HW287279   8.746   3.932   7.200 -0.7360 -0.2987  0.4000
26722SOL     OW87280   2.496   8.049   5.285 -0.4130  0.5574  0.3138
26722SOL    HW187281   2.505   7.985   5.215  0.8944  1.8494 -0.7655
26722SOL    HW287282   2.550   8.016   5.356  0.1554  0.4001 -0.1870
26723SOL     OW87283   6.345  10.703   0.720  0.0794 -0.3198 -1.0787
26723SOL    HW187284   6.408  10.774   0.714 -1.7041  1.6915  1.7608
26723SOL    HW287285   6.363  10.661   0.804 -1.6634 -0.3224 -0.6596
26724SOL     OW87286  12.158   6.082   8.427  0.0852 -0.2579  0.1190
26724SOL    HW187287  12.242   6.035   8.429  1.3838  1.9276  1.8383
26724SOL    HW287288  12.176   6.160   8.375  0.0242  1.6128  2.7060
26725SOL     OW87289   1.521   6.938  11.061  0.3665 -0.1482 -0.3563
26725SOL    HW187290   1.462   7.009  11.086  1.3908  1.0614 -1.2455
26725SOL    HW287291   1.466   6.876  11.014 -0.1998  0.9940 -1.2421
26726SOL     OW87292   7.393   0.565  12.403  0.1482 -0.1905  0.3442
26726SOL    HW187293   7.424   0.581  12.314  2.0523  0.1001  1.0030
26726SOL    HW287294   7.395   0.652  12.444 -1.6387 -0.1605  0.4222
26727SOL     OW87295   7.294   8.137   9.291  0.3538 -0.0773  0.0546
26727SOL    HW187296   7.281   8.055   9.243 -0.9050  0.0227  0.1877
26727SOL    HW287297   7.265   8.117   9.380 -1.1484  0.8354 -0.2048
26728SOL     OW87298   2.474   1.656  10.098 -0.2288  0.1346 -0.2108
26728SOL    HW187299   2.465   1.697  10.183  0.5736 -0.3467  0.1199
26728SOL    HW287300   2.458   1.563  10.114 -0.0340  0.0359 -0.5703
26729SOL     OW87301  12.045  12.258   9.354  0.1043  0.4610 -0.4409
26729SOL    HW187302  12.101  12.336   9.349 -0.3204  0.8711  0.7651
26729SOL    HW287303  12.025  12.249   9.448 -1.6879  0.2260 -0.8033
26730SOL     OW87304  11.301   4.676  10.705 -0.5107 -0.6034  0.2324
26730SOL    HW187305  11.315   4.626  10.625  2.1942  0.6025 -0.1720
26730SOL    HW287306  11.227   4.733  10.685  0.1797 -0.2390 -1.5118
26731SOL     OW87307   6.751   7.884   2.976  0.3445  0.1686 -0.3541
26731SOL    HW187308   6.734   7.978   2.977  0.1944  0.1440  1.5773
26731SOL    HW287309   6.712   7.854   2.894 -0.2764  1.6671 -0.6368
26732SOL     OW87310   6.030   5.863   3.502 -0.3321 -0.7868 -0.2383
26732SOL    HW187311   5.992   5.775   3.510 -0.6063 -0.9751 -2.6379
26732SOL    HW287312   6.123   5.851   3.518 -0.5845 -1.1944  1.0364
26733SOL     OW87313   2.312   4.224   1.451 -0.1047 -0.3945 -0.2955
26733SOL    HW187314   2.396   4.256   1.417  0.2319 -1.0912 -0.1399
26733SOL    HW287315   2.336   4.149   1.507 -0.8534 -0.7536 -0.4481
26734SOL     OW87316   7.928   4.449  12.040  0.1256  0.1836  0.0845
26734SOL    HW187317   7.864   4.488  11.981  0.5791 -1.0315 -1.2692
26734SOL    HW287318   7.935   4.512  12.112 -1.6965  0.9006 -0.2986
26735SOL     OW87319   0.584   5.956   0.053  0.0488  0.8897  0.3200
26735SOL    HW187320   0.544   6.028   0.004  0.6058  0.9772 -0.0210
26735SOL    HW287321   0.661   5.933   0.002 -0.7852 -0.7870 -0.2329
26736SOL     OW87322   5.805   4.622   0.495 -0.1175 -0.0739  0.5757
26736SOL    HW187323   5.721   4.628   0.449  0.7108 -1.3803 -1.1969
26736SOL    HW287324   5.850   4.703   0.473 -0.0437 -0.3452 -0.3157
26737SOL     OW87325   4.894   4.615   6.644 -0.6031 -0.2083 -0.3063
26737SOL    HW187326   4.931   4.617   6.556  0.7588 -0.6734  0.2294
26737SOL    HW287327   4.816   4.561   6.636 -1.0123  0.5096 -1.4048
26738SOL     OW87328   2.795   4.665   5.348  0.1353  0.2260  0.2935
26738SOL    HW187329   2.837   4.738   5.302 -0.8921  1.1414  0.7717
26738SOL    HW287330   2.819   4.677   5.439  0.0595 -0.1050  0.3565
26739SOL     OW87331   8.583   4.622   6.186  0.1188 -0.0342 -0.0761
26739SOL    HW187332   8.662   4.672   6.207 -0.0847 -0.2566  1.3621
26739SOL    HW287333   8.531   4.625   6.267 -1.1339 -0.2842 -0.8446
26740SOL     OW87334   4.608  10.928   8.579  0.0493 -0.2249  0.1234
26740SOL    HW187335   4.577  10.843   8.548  0.1868  0.3961 -1.8233
26740SOL    HW287336   4.678  10.952   8.518 -0.2773  1.4772  0.3763
26741SOL     OW87337   2.929   8.998   2.588  0.4961  0.6168  0.3351
26741SOL    HW187338   2.940   8.956   2.504  2.4516  2.3796 -0.3749
26741SOL    HW287339   2.868   8.941   2.636  1.5384 -1.9249 -1.1852
26742SOL     OW87340   6.087   2.619   1.871 -0.5375 -0.2203  0.0054
26742SOL    HW187341   6.108   2.666   1.790 -1.3496 -1.8314 -1.1981
26742SOL    HW287342   6.172   2.585   1.901  0.0998  2.0964  1.0184
26743SOL     OW87343  11.728   9.568  11.993 -0.2309  0.2616 -0.0119
26743SOL    HW187344  11.719   9.555  12.087 -1.3413 -1.3535 -0.2919
26743SOL    HW287345  11.642   9.545  11.957  0.4767 -0.2291 -1.5046
26744SOL     OW87346   2.775   7.671   2.111 -0.1851 -0.3760  0.0884
26744SOL    HW187347   2.703   7.653   2.171  1.7152 -0.7316  2.4532
26744SOL    HW287348   2.811   7.755   2.142 -0.3847  0.4998 -1.9112
26745SOL     OW87349   7.256  11.324  11.034  0.0626  0.6811  0.1157
26745SOL    HW187350   7.306  11.286  11.107  1.2556  1.1098 -0.4546
26745SOL    HW287351   7.167  11.333  11.068 -0.1504 -1.9975  0.5034
26746SOL     OW87352   7.081   7.957  10.075 -0.3349 -0.4628 -0.3180
26746SOL    HW187353   7.157   7.919  10.119 -0.6245  0.5177  1.1213
26746SOL    HW287354   7.108   8.047  10.055 -1.2222  0.0061  0.5304
26747SOL     OW87355   3.093   9.082   2.933  0.1214 -0.0335  0.1926
26747SOL    HW187356   3.082   9.089   3.028  0.8546  1.3423  0.2024
26747SOL    HW287357   3.171   9.133   2.914 -0.0917 -0.1754 -1.1792
26748SOL     OW87358   5.281   9.878  10.676  0.2693  0.1900  0.4511
26748SOL    HW187359   5.354   9.817  10.685 -0.9138 -1.7255 -1.7846
26748SOL    HW287360   5.203   9.823  10.674 -0.9055  1.7810 -1.0787
26749SOL     OW87361  12.310  11.213   9.926  0.2136 -0.2046 -0.3542
26749SOL    HW187362  12.388  11.260   9.895  1.2460 -1.4494  0.2518
26749SOL    HW287363  12.251  11.282   9.956  1.7085  0.7207  0.6019
26750SOL     OW87364   7.138  12.668   3.667  0.4674 -0.0146  0.3975
26750SOL    HW187365   7.154  12.762   3.665  0.1874  0.0265 -0.0158
26750SOL    HW287366   7.155  12.643   3.758 -0.4123  0.6071  0.7467
26751SOL     OW87367   8.943   0.587   0.260  0.4158  0.1719  0.0400
26751SOL    HW187368   8.858   0.604   0.218  0.2054  0.5823  0.6222
26751SOL    HW287369   8.931   0.504   0.306  0.7003 -0.3691 -0.8328
26752SOL     OW87370  12.929  12.548  11.528 -0.5219  0.1740 -0.4193
26752SOL    HW187371  12.879  12.512  11.601  1.9771 -0.5897  1.0469
26752SOL    HW287372  12.962  12.632  11.560 -0.2947  0.3418 -1.0836
26753SOL     OW87373   9.632   5.101   4.781 -0.0862  0.7178 -0.2428
26753SOL    HW187374   9.586   5.183   4.802  0.4064  0.6718  1.1953
26753SOL    HW287375   9.692   5.124   4.710 -0.1597  1.5444 -0.0469
26754SOL     OW87376   4.712   2.499   7.601  0.1842 -0.7305  0.4147
26754SOL    HW187377   4.785   2.545   7.644 -0.4417 -0.0414  0.7845
26754SOL    HW287378   4.636   2.554   7.620  0.1120  0.7065 -3.2058
26755SOL     OW87379   5.599   8.492   5.957  0.5719  0.6083 -0.3948
26755SOL    HW187380   5.683   8.449   5.973 -0.2726 -0.9497  0.1022
26755SOL    HW287381   5.588   8.550   6.032  0.1628 -0.9481  0.8140
26756SOL     OW87382   8.962  11.044   2.753  0.1153  0.8916  0.6875
26756SOL    HW187383   8.958  10.949   2.748 -1.3017  0.9507  0.3281
26756SOL    HW287384   9.003  11.062   2.837  1.8954 -0.0251  0.0625
26757SOL     OW87385  10.134  10.235   5.560 -0.7598 -0.0526 -0.1280
26757SOL    HW187386  10.226  10.208   5.560 -0.8416 -0.3937 -1.1073
26757SOL    HW287387  10.136  10.327   5.587 -0.0330  0.1988 -0.9872
26758SOL     OW87388   5.208   8.436   2.254  0.4148  0.0435  0.2060
26758SOL    HW187389   5.124   8.482   2.257  1.6429  2.4061  0.7806
26758SOL    HW287390   5.247   8.452   2.340  1.3680 -1.1991  0.0250
26759SOL     OW87391   3.431   2.128   0.238  0.5274  0.1666 -0.2994
26759SOL    HW187392   3.357   2.075   0.267  0.6367  0.5333  0.6752
26759SOL    HW287393   3.493   2.127   0.311  0.5814  1.5302 -0.2942
26760SOL     OW87394  10.010   7.376   5.222  0.4254  0.4642  0.7416
26760SOL    HW187395  10.003   7.441   5.152  0.7008  1.9870  2.0459
26760SOL    HW287396  10.099   7.341   5.213  0.3420  0.3994  0.1346
26761SOL     OW87397   9.926   2.444   7.460  0.5305  0.3478 -0.2047
26761SOL    HW187398   9.870   2.447   7.537 -0.5250 -3.2237 -0.6655
26761SOL    HW287399  10.013   2.467   7.493 -0.3210  1.1989  1.5418
26762SOL     OW87400   0.755  12.764   8.998 -0.3077  0.3030  0.1853
26762SOL    HW187401   0.689  12.829   9.024  0.5778  1.7480 -0.9848
26762SOL    HW287402   0.786  12.795   8.913  1.1163 -0.9310  0.2200
26763SOL     OW87403   3.175   9.705   5.957  0.3504  0.5579 -0.1333
26763SOL    HW187404   3.230   9.727   6.032  1.3541 -1.4347 -0.2036
26763SOL    HW287405   3.132   9.623   5.983  0.2921  0.1317 -1.5184
26764SOL     OW87406  11.925   3.718   0.576 -0.6362 -0.0073  0.4679
26764SOL    HW187407  11.910   3.623   0.578  1.3685 -0.3786  0.0929
26764SOL    HW287408  11.935   3.742   0.668  2.1751 -0.8128  0.4510
26765SOL     OW87409   5.327   5.022  10.216  0.0774 -0.3224 -0.5249
26765SOL    HW187410   5.367   4.995  10.299 -1.4356  2.2168  1.1690
26765SOL    HW287411   5.334   5.117  10.216 -1.0634 -0.1856 -2.7685
26766SOL     OW87412   3.921   1.926   2.211 -0.0822  0.0646  0.3462
26766SOL    HW187413   3.901   1.834   2.230  0.1121  0.4385  2.6605
26766SOL    HW287414   4.011   1.926   2.180 -0.3931 -0.5938 -0.6188
26767SOL     OW87415   4.260   6.749  11.906  0.6100  0.3455  0.2380
26767SOL    HW187416   4.349   6.759  11.873  1.0937  0.7219  1.5730
26767SOL    HW287417   4.244   6.654  11.904  0.8675  0.3128 -0.4193
26768SOL     OW87418   8.856   1.743   2.213 -0.0167 -0.2936  0.1348
26768SOL    HW187419   8.822   1.668   2.262 -0.2629 -0.2631  0.0107
26768SOL    HW287420   8.909   1.704   2.143 -1.3346 -0.4136 -0.8390
26769SOL     OW87421  11.244   6.613   0.535  0.3980  0.4383  0.5664
26769SOL    HW187422  11.198   6.620   0.619  3.3939  1.8315  2.2653
26769SOL    HW287423  11.312   6.681   0.539  0.8398  0.3836 -2.9165
26770SOL     OW87424  12.334   5.219  11.851 -0.2966  0.1543  0.3922
26770SOL    HW187425  12.286   5.166  11.914 -2.1142 -0.2091 -1.2115
26770SOL    HW287426  12.401   5.160  11.816 -0.6293 -0.2690  0.4748
26771SOL     OW87427  10.068  12.477   7.438 -0.2203  0.2115  0.0431
26771SOL    HW187428   9.984  12.495   7.480 -0.0060  1.4578 -0.0312
26771SOL    HW287429  10.047  12.461   7.347 -0.5980 -1.6943  0.4223
26772SOL     OW87430   5.353  12.391   1.679 -0.4676 -0.3070  0.0537
26772SOL    HW187431   5.391  12.304   1.693 -0.8627 -0.6956 -1.1754
26772SOL    HW287432   5.265  12.373   1.647 -1.7429  0.5860  2.8317
26773SOL     OW87433   5.914   6.178   4.397 -0.2437  0.2736  0.0146
26773SOL    HW187434   5.944   6.100   4.351  0.4906  0.8961 -0.5893
26773SOL    HW287435   5.954   6.251   4.349 -0.5587  0.9979  0.8277
26774SOL     OW87436  10.490   9.343   1.648  0.2783  0.2634 -0.6501
26774SOL    HW187437  10.584   9.329   1.646 -0.0501 -2.4741 -1.9490
26774SOL    HW287438  10.473   9.409   1.581  1.2275  0.6041 -0.5604
26775SOL     OW87439  10.395   6.910   0.226  0.1163  0.0257 -0.2316
26775SOL    HW187440  10.490   6.915   0.232 -0.0095  0.8041  2.3351
26775SOL    HW287441  10.368   6.999   0.204 -0.1139  0.6902  2.4508
26776SOL     OW87442   7.106   2.777   0.539 -0.1037 -0.0085 -0.5516
26776SOL    HW187443   7.104   2.728   0.457 -0.8851 -1.5758  0.3554
26776SOL    HW287444   7.200   2.789   0.558  0.4126 -4.4977  1.0005
26777SOL     OW87445   8.871   7.206  12.437 -0.2184 -0.3323 -0.3054
26777SOL    HW187446   8.788   7.241  12.404 -0.2003  0.2380  0.2247
26777SOL    HW287447   8.933   7.220  12.366 -0.3783  0.0837 -0.3673
26778SOL     OW87448   9.042   0.437   2.032 -0.0949  0.1199 -0.4847
26778SOL    HW187449   8.993   0.493   2.093  0.0820 -1.3558  1.1012
26778SOL    HW287450   8.976   0.382   1.991 -0.2154  1.1285 -1.6895
26779SOL     OW87451  11.541   2.553   6.180 -0.2695  0.3020 -0.4155
26779SOL    HW187452  11.456   2.512   6.164  0.2718 -0.5950 -1.0542
26779SOL    HW287453  11.605   2.486   6.159  0.7078  1.8576 -2.9253
26780SOL     OW87454   7.190   8.100   7.613  0.5315  0.4782 -0.4695
26780SOL    HW187455   7.190   8.153   7.693  0.4083 -0.7168  0.3547
26780SOL    HW287456   7.223   8.015   7.641 -0.0100 -0.1220 -1.5863
26781SOL     OW87457   6.795   6.749   6.219 -0.1153  0.4791  0.1065
26781SOL    HW187458   6.763   6.787   6.138  1.6151 -0.0022 -0.8486
26781SOL    HW287459   6.725   6.689   6.247 -0.1206 -0.5291 -1.8878
26782SOL     OW87460   7.756   2.352   7.727 -1.1750 -0.3028  0.1629
26782SOL    HW187461   7.673   2.324   7.688 -0.6524 -1.2453 -0.3062
26782SOL    HW287462   7.730   2.404   7.803 -2.1989 -1.4184  0.6128
26783SOL     OW87463   6.626   6.496   6.789  0.2778 -0.6907  0.5386
26783SOL    HW187464   6.695   6.477   6.726  0.0215 -1.7186  0.5469
26783SOL    HW287465   6.631   6.425   6.853 -0.5684 -0.6017  0.7179
26784SOL     OW87466  12.183   9.947   7.514 -0.9258 -0.1684 -0.1340
26784SOL    HW187467  12.098   9.909   7.493 -1.3825  0.2186  0.9228
26784SOL    HW287468  12.172   9.983   7.602  0.2001  0.2892 -0.1607
26785SOL     OW87469   5.255  12.152   0.297 -0.0600  0.2191 -0.2008
26785SOL    HW187470   5.238  12.140   0.390 -2.6421  1.8905 -0.3539
26785SOL    HW287471   5.263  12.063   0.262  1.3020 -0.4286  1.6026
26786SOL     OW87472  12.350   6.123  10.198  0.6789 -0.0596 -0.3250
26786SOL    HW187473  12.333   6.199  10.253  1.7528 -0.8199  1.1293
26786SOL    HW287474  12.407   6.067  10.250  1.1014 -1.2092 -1.9166
26787SOL     OW87475  10.704   8.442   7.082  0.9207 -0.1754  0.1354
26787SOL    HW187476  10.750   8.485   7.011 -0.8404  0.9420 -0.3824
26787SOL    HW287477  10.698   8.350   7.055  1.4360 -0.0251 -0.5037
26788SOL     OW87478  11.642  11.812   9.982  0.6348 -0.6293 -0.8988
26788SOL    HW187479  11.578  11.760  10.031  1.2386 -2.0003 -1.4992
26788SOL    HW287480  11.594  11.890   9.954  0.0100 -0.2694  1.0163
26789SOL     OW87481  10.508   3.907  11.276  0.1394  0.0875  0.0712
26789SOL    HW187482  10.460   3.830  11.248 -1.5720  1.0028  0.3308
26789SOL    HW287483  10.444   3.978  11.271  1.6288  1.4765 -0.0682
26790SOL     OW87484   8.719   9.012   6.151 -0.2364  0.2408  0.3084
26790SOL    HW187485   8.782   9.025   6.080 -3.4560  0.7985 -2.6945
26790SOL    HW287486   8.722   9.095   6.200  0.7088  0.5908 -0.3005
26791SOL     OW87487   7.722   9.870  10.060 -0.4617  0.6104  0.1865
26791SOL    HW187488   7.747   9.820   9.982 -0.4283  2.0419 -0.7777
26791SOL    HW287489   7.673   9.808  10.114 -0.7392 -0.3624 -1.1174
26792SOL     OW87490  11.851   7.630   8.294  0.6324 -0.5242 -0.1507
26792SOL    HW187491  11.845   7.635   8.389 -0.4887  0.1377 -0.2443
26792SOL    HW287492  11.788   7.695   8.262 -0.1503 -1.8038 -1.3471
26793SOL     OW87493   4.773   0.901   9.967  0.1976 -0.3623 -0.5366
26793SOL    HW187494   4.704   0.918  10.031  0.1074  1.7372 -1.1328
26793SOL    HW287495   4.726   0.866   9.890 -0.4850  2.3637 -1.4634
26794SOL     OW87496   0.692   3.385   4.578 -0.0006 -0.0143 -0.4035
26794SOL    HW187497   0.751   3.444   4.624  0.7322  0.5403 -1.9759
26794SOL    HW287498   0.749   3.329   4.526 -0.8188  0.2843 -1.6827
26795SOL     OW87499   8.506   5.633   2.193 -0.1655  0.3818  0.4393
26795SOL    HW187500   8.516   5.714   2.143 -1.8282 -0.1265 -0.7950
26795SOL    HW287501   8.421   5.598   2.167 -0.1742 -0.9878  2.1106
26796SOL     OW87502   9.332   0.960   1.034  0.0466  0.0221 -0.3805
26796SOL    HW187503   9.278   0.881   1.044 -0.0987  0.3778  2.7548
26796SOL    HW287504   9.385   0.963   1.115  1.4271  2.1384 -1.2686
26797SOL     OW87505   5.502   5.565   3.215 -0.5595  0.5941 -0.5311
26797SOL    HW187506   5.579   5.594   3.165 -0.2835  2.3103  0.7635
26797SOL    HW287507   5.468   5.491   3.166  0.8732  0.9172 -2.1297
26798SOL     OW87508   6.485   3.208   6.303  0.0173 -1.0344  0.1662
26798SOL    HW187509   6.514   3.287   6.348 -0.3957 -1.1292  0.6152
26798SOL    HW287510   6.404   3.233   6.259  0.1431 -1.0820 -0.0957
26799SOL     OW87511   0.219   2.940   1.790 -0.2628 -0.0358 -0.0315
26799SOL    HW187512   0.274   2.905   1.859 -0.6951  0.9169  0.8137
26799SOL    HW287513   0.197   3.028   1.819  2.3659  1.8043 -2.9451
26800SOL     OW87514   3.765  11.492   2.725  0.4390 -0.1351  0.1259
26800SOL    HW187515   3.830  11.427   2.698 -0.0081 -0.7964  0.6150
26800SOL    HW287516   3.786  11.509   2.816  2.1748  2.3626 -0.6383
26801SOL     OW87517   8.452   1.120   6.578  0.3009 -0.1796 -0.3330
26801SOL    HW187518   8.397   1.111   6.656  0.6434 -0.2880 -0.1015
26801SOL    HW287519   8.394   1.097   6.505 -0.3454  1.0284 -0.2244
26802SOL     OW87520   6.760   4.610   5.391  0.2323 -0.0347 -0.1528
26802SOL    HW187521   6.817   4.582   5.462  0.5863 -2.5782 -1.3089
26802SOL    HW287522   6.705   4.679   5.428 -0.5161 -2.1405  2.9648
26803SOL     OW87523  10.218   1.550   2.259 -0.0546  0.4721  0.4034
26803SOL    HW187524  10.304   1.509   2.253  0.2860  1.3728 -1.8099
26803SOL    HW287525  10.164   1.486   2.306  1.6040 -0.4287  1.1720
26804SOL     OW87526   9.234  11.239  12.230 -0.1061  0.1155 -0.2614
26804SOL    HW187527   9.238  11.276  12.142  0.0293  1.6463  0.3596
26804SOL    HW287528   9.310  11.276  12.275  0.1010 -1.0263  0.3730
26805SOL     OW87529   7.188   4.818   1.323 -0.0194 -0.4365 -0.4947
26805SOL    HW187530   7.183   4.766   1.243  1.2630  1.9035 -2.2509
26805SOL    HW287531   7.282   4.824   1.341 -0.2613 -0.3880  0.8184
26806SOL     OW87532  11.284  12.865   4.819 -0.0062  0.0401 -0.3986
26806SOL    HW187533  11.349  12.820   4.872 -0.1325  0.4185  0.0865
26806SOL    HW287534  11.328  12.883   4.736  0.1156 -0.7689 -0.5210
26807SOL     OW87535  11.449   8.994   4.527 -0.0477 -0.6025  0.1125
26807SOL    HW187536  11.543   8.997   4.509 -0.0700 -1.0423 -0.0923
26807SOL    HW287537  11.434   8.907   4.563 -0.6766 -1.2478 -1.6219
26808SOL     OW87538   1.511   6.315   6.642  0.1733 -0.1035 -0.4284
26808SOL    HW187539   1.579   6.381   6.632 -0.3634  0.6258  0.5693
26808SOL    HW287540   1.475   6.330   6.729  1.5859 -3.2080  0.8004
26809SOL     OW87541   5.336   0.870   6.757  0.3211  0.0296  0.7424
26809SOL    HW187542   5.417   0.900   6.713  0.5617 -1.0667  0.4060
26809SOL    HW287543   5.273   0.940   6.739  1.2335  0.9911  1.1536
26810SOL     OW87544   1.905   6.073  11.948 -0.2079 -0.1719 -0.1044
26810SOL    HW187545   1.946   6.002  11.898 -0.1049  0.3939 -0.8497
26810SOL    HW287546   1.917   6.048  12.040 -0.4242 -1.2457 -0.3543
26811SOL     OW87547   4.430   5.927   5.621  0.0575 -0.1310  0.4169
26811SOL    HW187548   4.374   5.948   5.546 -0.3083 -0.5100  0.5818
26811SOL    HW287549   4.466   5.841   5.601  0.4696  0.0474  0.3814
26812SOL     OW87550   8.463   8.639   7.132 -0.2838 -0.5072 -0.7763
26812SOL    HW187551   8.532   8.621   7.196  0.1346  0.6213 -0.8849
26812SOL    HW287552   8.453   8.557   7.083  0.9940 -0.6763 -0.7800
26813SOL     OW87553   9.026   6.620   7.948 -0.5046 -0.5786 -0.1263
26813SOL    HW187554   8.958   6.656   8.005 -1.5920  1.6344 -2.6068
26813SOL    HW287555   8.980   6.551   7.899 -0.4082 -0.4223 -0.4340
26814SOL     OW87556   6.577  10.819   1.329 -0.5733  0.0885  0.7246
26814SOL    HW187557   6.660  10.865   1.316 -1.5621  1.8268  0.2909
26814SOL    HW287558   6.588  10.775   1.413  1.3518 -1.0445 -0.0620
26815SOL     OW87559  12.261   8.672   8.239 -0.1533  0.4353  0.1006
26815SOL    HW187560  12.189   8.703   8.184  1.0817  2.6865 -0.3577
26815SOL    HW287561  12.220   8.655   8.324 -1.2169  1.9210 -0.0696
26816SOL     OW87562  10.532   4.857   9.082 -0.2266  0.2143  0.1665
26816SOL    HW187563  10.440   4.870   9.059 -0.0534 -0.8232 -1.2702
26816SOL    HW287564  10.530   4.821   9.170 -1.0963  1.5979  0.7524
26817SOL     OW87565   8.544   7.277   1.971 -0.4235 -0.1013  0.3902
26817SOL    HW187566   8.505   7.281   2.059 -1.4607  1.7417 -0.1150
26817SOL    HW287567   8.472   7.294   1.911  0.8665  2.4672 -0.6280
26818SOL     OW87568   7.994  11.356   3.967 -0.2402 -0.3996 -0.1342
26818SOL    HW187569   7.915  11.328   4.013 -0.8417  1.2785 -0.0969
26818SOL    HW287570   7.961  11.403   3.890  0.6989  0.6607  0.0878
26819SOL     OW87571  11.508   4.822   3.410  0.1654  0.0244  0.3828
26819SOL    HW187572  11.460   4.741   3.422 -0.4989  0.3381 -0.1064
26819SOL    HW287573  11.533   4.849   3.499  0.6686 -0.8642  0.5256
26820SOL     OW87574   1.818   9.478   6.961 -0.1655  0.2032  0.2244
26820SOL    HW187575   1.790   9.434   6.881 -0.0866 -1.7026  1.1728
26820SOL    HW287576   1.737   9.500   7.007 -0.2063 -0.7296  0.6254
26821SOL     OW87577  11.297   2.744   6.017 -0.4882 -0.5016  0.3279
26821SOL    HW187578  11.236   2.799   6.066  0.2651  1.7885 -1.1582
26821SOL    HW287579  11.316   2.671   6.076  0.5596  2.1668  3.5763
26822SOL     OW87580   8.010  10.442   1.655  0.1703  0.3471 -0.0169
26822SOL    HW187581   7.936  10.452   1.716  0.4812  3.3917  0.0050
26822SOL    HW287582   7.970  10.451   1.569  0.4175  1.5336 -0.0207
26823SOL     OW87583   4.902   1.157   0.430 -0.2449  0.4709 -0.2297
26823SOL    HW187584   4.970   1.137   0.494 -0.6248  3.7635  1.4076
26823SOL    HW287585   4.878   1.072   0.393  1.0086 -1.4404  2.9632
26824SOL     OW87586   2.466  11.872   2.256  0.3855  0.1113 -0.4416
26824SOL    HW187587   2.523  11.917   2.319 -0.4500  0.3925  0.1349
26824SOL    HW287588   2.440  11.791   2.301 -0.1289  0.2631 -0.4606
26825SOL     OW87589   2.505   8.814  10.737 -0.2598  0.3511  0.2179
26825SOL    HW187590   2.541   8.885  10.789  2.3100 -1.0337  0.5100
26825SOL    HW287591   2.542   8.827  10.650 -3.6297  2.0094 -1.1494
26826SOL     OW87592   9.322   7.839  11.265 -0.2913  0.0579 -0.0952
26826SOL    HW187593   9.350   7.753  11.235 -0.4597 -0.5359  1.3558
26826SOL    HW287594   9.376   7.856  11.343  0.2184  1.5678 -0.7338
26827SOL     OW87595   7.139   4.196  10.313  0.2913 -0.2026 -0.0298
26827SOL    HW187596   7.199   4.133  10.274 -0.0644 -0.8887  0.5150
26827SOL    HW287597   7.159   4.279  10.270 -2.1646 -1.4301 -4.0784
26828SOL     OW87598   4.965   5.226  11.312  0.4246 -0.4321 -0.4043
26828SOL    HW187599   4.990   5.318  11.302  0.1148 -0.5045 -2.2996
26828SOL    HW287600   5.044   5.177  11.288 -0.4153 -0.6370 -3.0297
26829SOL     OW87601   5.932   3.573  12.013 -0.8636  0.2049 -0.2416
26829SOL    HW187602   5.936   3.478  12.014  1.0590  0.2578  1.3835
26829SOL    HW287603   5.871   3.596  12.083 -0.9254  0.1962 -0.2921
26830SOL     OW87604   7.608   7.117  11.979 -0.7176  0.2398 -0.5495
26830SOL    HW187605   7.535   7.173  12.005 -0.7600 -0.7603  1.7441
26830SOL    HW287606   7.652   7.096  12.061  0.0264 -2.0677 -1.4524
26831SOL     OW87607  12.773   9.690   1.834  0.2182  0.0181  0.2028
26831SOL    HW187608  12.716   9.613   1.823  0.2927 -0.1846  1.1392
26831SOL    HW287609  12.851   9.669   1.784 -0.4331  0.2049 -0.9209
26832SOL     OW87610   2.484   3.973   3.100 -0.0557  0.2483  0.3108
26832SOL    HW187611   2.498   4.052   3.152  0.5464 -0.0012  0.5362
26832SOL    HW287612   2.426   3.918   3.153  0.4701  0.0405  0.6798
26833SOL     OW87613  11.827   5.488  10.421  0.4109  0.1523  0.2415
26833SOL    HW187614  11.874   5.450  10.346  0.5488 -0.7209  0.7455
26833SOL    HW287615  11.814   5.580  10.398  1.5768  0.1987 -0.3054
26834SOL     OW87616   7.429   0.907  12.969 -0.2610  0.4921  0.1196
26834SOL    HW187617   7.495   0.851  12.928  1.5660  1.4508  1.5953
26834SOL    HW287618   7.418   0.870  13.056 -0.7185  1.1058  0.3260
26835SOL     OW87619   0.983   6.598   7.419  0.1944 -0.4583 -0.0275
26835SOL    HW187620   0.928   6.670   7.448  0.1842 -0.8151  0.8838
26835SOL    HW287621   1.066   6.640   7.395 -0.4684  0.0856 -1.4765
26836SOL     OW87622   2.566   5.632   9.269 -0.0016  0.7296  0.0131
26836SOL    HW187623   2.657   5.613   9.292 -0.1919 -0.5754 -0.2401
26836SOL    HW287624   2.552   5.723   9.298  1.0530  0.5909  1.0115
26837SOL     OW87625   9.562   2.600   0.269 -0.3515 -0.5751  0.1557
26837SOL    HW187626   9.650   2.569   0.289  0.2751 -0.0452 -1.6090
26837SOL    HW287627   9.508   2.521   0.271  0.3793 -1.0864  0.1429
26838SOL     OW87628   5.987   5.997   4.220  0.2141 -0.8219 -0.1087
26838SOL    HW187629   5.931   5.937   4.170 -0.4490 -0.4865  0.2061
26838SOL    HW287630   5.982   6.080   4.173  0.3910 -0.7702 -0.0386
26839SOL     OW87631   2.570  10.827   8.961 -0.3625  0.3094  0.1102
26839SOL    HW187632   2.540  10.917   8.965  1.5943  0.9994  0.3002
26839SOL    HW287633   2.654  10.832   8.916 -0.0006 -1.3679  0.5358
26840SOL     OW87634  10.180   0.856   6.786 -0.4383 -0.7657  0.5540
26840SOL    HW187635  10.246   0.922   6.803  0.1608 -1.1512 -0.2080
26840SOL    HW287636  10.225   0.788   6.735 -1.4487 -0.9389 -0.1637
26841SOL     OW87637  12.896   8.047  10.821  0.4344 -0.0524  0.1377
26841SOL    HW187638  12.980   8.060  10.777 -0.1424  0.5362 -0.8157
26841SOL    HW287639  12.910   8.081  10.909  0.6973  1.6856 -0.5423
26842SOL     OW87640   3.592  12.449   1.683  0.2075 -0.3213  0.3094
26842SOL    HW187641   3.497  12.450   1.676  0.1225  0.9696  1.4400
26842SOL    HW287642   3.613  12.359   1.710 -0.7758 -0.3155  1.1272
26843SOL     OW87643  11.187   1.027   1.847 -0.3337  0.3407 -0.1001
26843SOL    HW187644  11.146   0.975   1.916 -2.0571 -0.5249 -1.6878
26843SOL    HW287645  11.281   1.024   1.868 -0.9104  1.7795  3.2436
26844SOL     OW87646   8.913  11.103   9.536 -0.1552 -0.5593  0.0013
26844SOL    HW187647   8.838  11.085   9.480 -0.0848  0.3630 -0.4047
26844SOL    HW287648   8.916  11.198   9.544 -0.0212 -0.6580  1.3999
26845SOL     OW87649   8.888   7.560   3.795  0.1615  0.1944 -0.1998
26845SOL    HW187650   8.982   7.563   3.811  0.3639 -0.1152 -1.2573
26845SOL    HW287651   8.879   7.579   3.701 -0.8236  0.1445 -0.1274
26846SOL     OW87652   4.328   2.176   0.377 -0.2428  0.1687  0.2777
26846SOL    HW187653   4.350   2.086   0.404  0.0718  0.3078  0.4900
26846SOL    HW287654   4.278   2.165   0.296 -0.3192 -0.2054  0.3736
26847SOL     OW87655  10.492   0.414   2.138  0.2802  0.2120  0.2580
26847SOL    HW187656  10.402   0.388   2.158  0.2178  1.1308  1.2816
26847SOL    HW287657  10.547   0.356   2.190  0.2392  0.3522  0.4582
26848SOL     OW87658   5.465   2.120   5.471 -0.6178 -0.1515  0.1893
26848SOL    HW187659   5.469   2.195   5.413  1.0210 -0.0924  0.3221
26848SOL    HW287660   5.373   2.093   5.470 -0.9049  0.7770 -1.2140
26849SOL     OW87661   8.224   4.908  11.471 -0.5683  0.0769 -0.5860
26849SOL    HW187662   8.306   4.865  11.491 -0.7764  0.6299  1.7549
26849SOL    HW287663   8.235   4.942  11.382  1.7363  0.1516 -0.3166
26850SOL     OW87664   6.643  11.959   7.106 -0.4855 -0.6045 -0.6527
26850SOL    HW187665   6.654  11.917   7.192  0.1828 -2.0853 -1.4322
26850SOL    HW287666   6.628  12.052   7.127 -3.8081 -1.3873  1.2436
26851SOL     OW87667   4.219   9.345  11.513 -0.1647 -0.6973 -0.2665
26851SOL    HW187668   4.276   9.287  11.462 -0.2043 -0.1436 -0.9638
26851SOL    HW287669   4.278   9.406  11.556 -0.1951 -0.4829 -0.5285
26852SOL     OW87670   4.442   7.531  11.432  0.0287  0.4983  0.3870
26852SOL    HW187671   4.388   7.479  11.373  0.3156  0.1699  0.4080
26852SOL    HW287672   4.515   7.561  11.378  0.8909 -0.7192  0.7995
26853SOL     OW87673   6.584   8.151   3.780  0.2120  0.8802 -0.5070
26853SOL    HW187674   6.659   8.209   3.795  0.7934  0.1855 -0.6906
26853SOL    HW287675   6.621   8.063   3.781 -0.9923  0.2924  2.2193
26854SOL     OW87676   8.980   0.432  12.066 -0.0914  0.4524 -0.2397
26854SOL    HW187677   8.971   0.375  11.989 -1.0512  0.2893 -0.0240
26854SOL    HW287678   9.057   0.485  12.048  1.8050 -1.9601  0.2218
26855SOL     OW87679  11.933   5.829   3.537  0.3810 -0.1901  0.5951
26855SOL    HW187680  11.979   5.749   3.563 -0.1558 -1.0896 -1.0656
26855SOL    HW287681  11.991   5.900   3.565  0.3558 -1.0645  3.1033
26856SOL     OW87682   3.267   9.919   0.418  0.0016 -0.3678 -0.1917
26856SOL    HW187683   3.191   9.939   0.472 -0.5311 -1.8741 -0.3222
26856SOL    HW287684   3.230   9.892   0.334  0.7499  0.3324 -0.7508
26857SOL     OW87685   1.527   8.466  11.593  0.3766  0.2022  0.4872
26857SOL    HW187686   1.564   8.521  11.663 -0.1827  0.8951  0.2468
26857SOL    HW287687   1.480   8.397  11.639 -1.5800  1.6892  0.8722
26858SOL     OW87688   8.340   8.639   1.590 -0.2211  0.0461  0.2970
26858SOL    HW187689   8.333   8.699   1.515 -2.5310  0.5061  0.7885
26858SOL    HW287690   8.431   8.645   1.617  0.4185  0.7199 -1.7760
26859SOL     OW87691   6.946   4.556  10.351  0.0869  0.0691 -0.2696
26859SOL    HW187692   6.911   4.493  10.413  0.0289  0.1588 -0.2106
26859SOL    HW287693   7.021   4.595  10.396  0.3088 -0.1743 -0.4227
26860SOL     OW87694   4.464   2.138   4.448  0.3493 -0.4628 -0.5006
26860SOL    HW187695   4.469   2.147   4.353 -0.7531  0.1976 -0.5228
26860SOL    HW287696   4.525   2.067   4.469  1.7073  0.3453 -1.5305
26861SOL     OW87697   0.963   7.050   8.745 -0.7618 -0.3120 -0.1343
26861SOL    HW187698   0.957   7.041   8.650  0.5516  0.7999 -0.3547
26861SOL    HW287699   1.043   7.004   8.769 -1.2365 -0.8289  0.4780
26862SOL     OW87700   2.263   8.295   1.773 -0.3090  0.2364 -0.1380
26862SOL    HW187701   2.204   8.274   1.845 -0.3362 -2.6019 -0.8858
26862SOL    HW287702   2.207   8.296   1.695  0.0788  1.1287 -0.4242
26863SOL     OW87703   0.989   1.714   5.407  0.6828  0.4069  0.0281
26863SOL    HW187704   0.953   1.700   5.494  1.6550 -1.2371  0.2040
26863SOL    HW287705   0.931   1.664   5.349  1.3105 -0.3115  0.0161
26864SOL     OW87706   7.464  11.571   5.592  0.1113  0.0969 -0.0153
26864SOL    HW187707   7.398  11.534   5.533 -0.5358  0.4608  0.4756
26864SOL    HW287708   7.508  11.638   5.540 -0.7683  0.7356  0.0535
26865SOL     OW87709   2.662  12.674   2.902  0.3337  0.3004  0.3189
26865SOL    HW187710   2.741  12.682   2.848 -0.1414  0.2120 -0.4072
26865SOL    HW287711   2.591  12.658   2.839 -0.0441 -1.1348  1.0752
26866SOL     OW87712   6.757   9.327   3.076  0.0236  0.1417 -0.0515
26866SOL    HW187713   6.807   9.350   3.154 -0.1918  1.5928 -0.3166
26866SOL    HW287714   6.810   9.359   3.003 -1.1609  1.5682 -0.3437
26867SOL     OW87715   6.906   7.910   7.693 -0.2532  0.5530  0.3799
26867SOL    HW187716   6.934   7.988   7.740 -0.6722  0.9243  0.0237
26867SOL    HW287717   6.812   7.920   7.684 -0.0102  1.3438 -2.0078
26868SOL     OW87718  11.481   1.149   3.435 -0.1988  0.4556 -0.2265
26868SOL    HW187719  11.406   1.202   3.407  0.5022  1.0384 -1.0768
26868SOL    HW287720  11.518   1.196   3.509 -1.2672 -0.3872  0.8920
26869SOL     OW87721   1.859  11.647  10.426  0.3787 -0.0657  0.5197
26869SOL    HW187722   1.950  11.662  10.452  0.3652 -0.1016  0.5882
26869SOL    HW287723   1.863  11.569  10.371  0.7314  1.2715 -1.4540
26870SOL     OW87724   2.417   2.860  12.443 -0.0399 -0.8154  0.1396
26870SOL    HW187725   2.409   2.873  12.349  0.0207 -1.3201  0.0649
26870SOL    HW287726   2.511   2.869  12.460 -0.1812  0.5159  0.3419
26871SOL     OW87727   3.026   5.956   3.638 -0.5083 -0.1325  0.0199
26871SOL    HW187728   2.939   5.923   3.663 -0.5176 -0.5682 -0.5665
26871SOL    HW287729   3.065   5.984   3.720 -0.5503 -1.4941  0.5273
26872SOL     OW87730  11.734   1.030   6.736  0.3965  0.2466  0.0571
26872SOL    HW187731  11.727   0.951   6.683  0.6026 -1.2633  2.1368
26872SOL    HW287732  11.647   1.039   6.776  0.3584  1.1250 -0.2106
26873SOL     OW87733   2.615   0.938   2.526 -0.3343  0.2010 -0.4718
26873SOL    HW187734   2.604   0.965   2.617  2.6244 -2.2794  0.7692
26873SOL    HW287735   2.691   0.987   2.495  0.6228 -1.2949 -0.5392
26874SOL     OW87736   5.670   5.781   8.534  0.1408 -0.4931 -0.0733
26874SOL    HW187737   5.605   5.824   8.591 -1.1510 -0.6997 -1.3267
26874SOL    HW287738   5.689   5.698   8.578 -0.5338 -0.4735  0.2788
26875SOL     OW87739   8.248   1.731   4.897 -0.1039 -0.4122  0.4555
26875SOL    HW187740   8.168   1.691   4.930  0.4792 -1.9504  0.1082
26875SOL    HW287741   8.218   1.794   4.831 -1.0243 -1.0225  0.2775
26876SOL     OW87742   1.878   7.829  10.119 -1.1692 -0.2847 -0.3252
26876SOL    HW187743   1.964   7.870  10.120 -1.1074 -0.2554 -2.4121
26876SOL    HW287744   1.817   7.901  10.132 -0.9015 -0.1825  0.3591
26877SOL     OW87745  10.896   9.024  11.740 -0.1018  0.5226 -0.1339
26877SOL    HW187746  10.869   9.064  11.658  1.7588  2.2864  0.0482
26877SOL    HW287747  10.824   9.043  11.801 -0.4941  1.1599 -0.7868
26878SOL     OW87748   6.953   4.060   1.130 -0.2228 -0.0215 -0.2420
26878SOL    HW187749   6.889   3.994   1.157 -1.2642  0.9053 -0.4067
26878SOL    HW287750   7.018   4.011   1.080 -2.0778 -0.6432 -2.2055
26879SOL     OW87751   2.287   3.623   6.550 -0.7667 -0.0935  0.6146
26879SOL    HW187752   2.274   3.705   6.502  0.6788 -1.5037 -2.4281
26879SOL    HW287753   2.376   3.629   6.584 -1.2937  0.3048  1.9739
26880SOL     OW87754  10.631   6.249   4.733 -0.4132  0.5262 -0.1865
26880SOL    HW187755  10.580   6.330   4.728 -0.6710  0.2971 -1.4170
26880SOL    HW287756  10.614   6.204   4.651 -1.2476 -1.3726  0.9473
26881SOL     OW87757   9.263   4.829   8.373  0.0061 -0.1297 -0.5463
26881SOL    HW187758   9.211   4.767   8.322 -1.2694  0.0543  0.4801
26881SOL    HW287759   9.321   4.775   8.426 -0.0235 -0.3853 -0.7729
26882SOL     OW87760   8.852  10.461   4.531 -0.6365 -0.7732  0.4402
26882SOL    HW187761   8.894  10.463   4.445 -1.3281  0.7748  0.1058
26882SOL    HW287762   8.922  10.433   4.590  0.4376  0.1204 -0.3421
26883SOL     OW87763   5.805  12.587  12.021  0.1162 -0.7159 -0.1719
26883SOL    HW187764   5.857  12.596  12.100  0.1000  0.4747 -0.2903
26883SOL    HW287765   5.866  12.606  11.950 -0.1034 -0.8474 -0.3962
26884SOL     OW87766   5.868   7.419   2.813 -0.1158  0.1955  0.5707
26884SOL    HW187767   5.795   7.420   2.875 -0.1777 -0.0248  0.5034
26884SOL    HW287768   5.943   7.391   2.865 -0.1062  0.3010  0.6129
26885SOL     OW87769   4.803   5.808   4.051 -0.1750  0.1459  0.6612
26885SOL    HW187770   4.800   5.784   3.958 -0.9755 -0.7196  0.8889
26885SOL    HW287771   4.749   5.887   4.057  1.7479  1.5897  0.0489
26886SOL     OW87772   5.084   7.164   9.868  0.4204  0.3158 -0.5112
26886SOL    HW187773   5.157   7.102   9.870  0.9725  0.9675  0.8895
26886SOL    HW287774   5.006   7.110   9.867  0.8990 -0.4121  0.4107
26887SOL     OW87775   5.190   6.148  10.339  0.1154 -0.4344 -0.3248
26887SOL    HW187776   5.101   6.125  10.312 -0.8938  2.7688 -0.1345
26887SOL    HW287777   5.189   6.243  10.347  3.8978 -0.1176 -1.4695
26888SOL     OW87778   0.986   5.968   7.677  0.1080  0.0749  0.4219
26888SOL    HW187779   0.915   5.927   7.727 -0.0760  0.5044  0.5208
26888SOL    HW287780   1.044   6.003   7.744 -0.0418  0.4884  0.3402
26889SOL     OW87781   1.926   6.037  10.909  0.3067 -0.6543  0.0016
26889SOL    HW187782   1.861   6.103  10.937  1.0645 -0.4178  1.3053
26889SOL    HW287783   1.873   5.965  10.874 -0.7679 -0.9378  2.0376
26890SOL     OW87784   3.924   7.514   3.230 -0.2189 -0.3758 -0.3733
26890SOL    HW187785   3.968   7.515   3.145  0.3288 -0.5119 -0.0924
26890SOL    HW287786   3.866   7.590   3.227 -0.1858 -0.3667 -0.8607
26891SOL     OW87787   5.409   0.203   8.948  0.1493  0.2651 -0.0956
26891SOL    HW187788   5.341   0.201   8.880  0.0802 -0.8885 -0.0082
26891SOL    HW287789   5.487   0.236   8.902  0.3625 -1.3806 -1.0150
26892SOL     OW87790  11.827   1.286   5.114 -0.6378 -0.2588  0.0019
26892SOL    HW187791  11.817   1.191   5.106 -1.8589 -0.0516 -1.2782
26892SOL    HW287792  11.768   1.322   5.048 -0.9106  1.4136  1.1008
26893SOL     OW87793  10.163   3.531   2.163  0.7493 -0.1887  0.3506
26893SOL    HW187794  10.080   3.502   2.199 -0.6248  1.9779 -0.8682
26893SOL    HW287795  10.172   3.621   2.193  0.9731  0.7174 -2.2529
26894SOL     OW87796   9.950   5.901   4.346 -0.5048 -0.2479  0.1022
26894SOL    HW187797   9.959   5.809   4.370 -2.1660 -0.5899 -0.4926
26894SOL    HW287798   9.916   5.943   4.425 -0.3806 -0.2545  0.1606
26895SOL     OW87799   7.241   2.806   6.890 -0.1078  0.5053 -0.3837
26895SOL    HW187800   7.172   2.853   6.841 -0.1417  0.5969 -0.2476
26895SOL    HW287801   7.220   2.714   6.878  0.8092  0.4556 -1.9180
26896SOL     OW87802   5.695  12.236   4.085 -0.8723  0.2387  0.5185
26896SOL    HW187803   5.738  12.162   4.128  0.1457 -0.4081 -1.4913
26896SOL    HW287804   5.623  12.196   4.036 -0.1225  0.4954 -0.8373
26897SOL     OW87805   9.084   2.734   3.187 -1.4501  0.4399  0.3048
26897SOL    HW187806   9.125   2.820   3.176 -1.2247  0.1980 -0.8450
26897SOL    HW287807   9.000   2.742   3.142 -1.5530  0.1351  0.4405
26898SOL     OW87808   0.648   4.352  12.825 -0.4247 -0.1552 -0.2501
26898SOL    HW187809   0.703   4.278  12.796 -0.4385 -0.0304 -0.5984
26898SOL    HW287810   0.677   4.369  12.915 -0.8365 -0.9735  0.0472
26899SOL     OW87811   8.394  10.888  12.359 -0.2607 -1.0250 -0.5515
26899SOL    HW187812   8.400  10.982  12.373 -1.3424 -0.9004 -0.8220
26899SOL    HW287813   8.455  10.850  12.422 -1.4415 -0.2490  1.1157
26900SOL     OW87814   0.266   0.468   8.603  0.0901  0.3601  0.0463
26900SOL    HW187815   0.332   0.400   8.614  0.2385  0.2458 -1.3619
26900SOL    HW287816   0.265   0.486   8.509 -3.0676 -0.8447 -0.2876
26901SOL     OW87817   1.973   9.983  11.247  0.1017 -0.2658 -0.5640
26901SOL    HW187818   2.002  10.034  11.172 -0.1212  0.2423 -0.3087
26901SOL    HW287819   2.032  10.010  11.318  0.2669 -0.6904 -0.5322
26902SOL     OW87820   5.808   5.490   5.165 -0.0959  0.1075 -0.3728
26902SOL    HW187821   5.724   5.503   5.208 -0.3541  0.8421 -1.0618
26902SOL    HW287822   5.843   5.409   5.202 -0.0057  1.0353  1.6885
26903SOL     OW87823   8.617   6.549   5.554 -0.9748  0.3116  0.0123
26903SOL    HW187824   8.535   6.501   5.565 -0.2693 -0.6838  1.1675
26903SOL    HW287825   8.628   6.596   5.637  0.6802 -1.3053  0.7904
26904SOL     OW87826   7.787  11.227   3.732  0.0952  0.2518 -0.4972
26904SOL    HW187827   7.733  11.156   3.697  2.9986 -2.1837 -0.4893
26904SOL    HW287828   7.834  11.262   3.656 -0.5037  1.4664 -0.3334
26905SOL     OW87829   2.957   5.299   5.954 -0.3218  0.8606 -0.0207
26905SOL    HW187830   2.962   5.389   5.987  1.8610  1.1401 -0.9711
26905SOL    HW287831   2.936   5.308   5.862 -0.1530  0.3965 -0.1094
26906SOL     OW87832  11.463   2.445   9.258 -0.7744 -0.1492 -0.2865
26906SOL    HW187833  11.377   2.466   9.221 -0.0199 -1.1105 -2.8349
26906SOL    HW287834  11.521   2.513   9.223 -0.2529 -0.2969  0.2797
26907SOL     OW87835   8.553  10.910   9.200  0.0215  0.2032 -0.1876
26907SOL    HW187836   8.471  10.956   9.188  0.2115  0.7802  0.6768
26907SOL    HW287837   8.602  10.927   9.120 -0.7143 -0.2028 -0.7394
26908SOL     OW87838   0.938   9.004  12.673 -0.5272 -0.5381  0.2679
26908SOL    HW187839   0.977   8.927  12.715 -1.1847 -1.0516 -0.0481
26908SOL    HW287840   0.930   9.068  12.744  3.7770  0.8191 -0.1912
26909SOL     OW87841   8.939   3.758   4.936 -0.1518 -0.4124  0.3191
26909SOL    HW187842   8.944   3.788   5.027 -1.5571  0.1834  0.2232
26909SOL    HW287843   8.939   3.662   4.943  0.4881 -0.3830  0.8824
26910SOL     OW87844   2.834   9.883  12.376  0.2539 -0.3875  0.0915
26910SOL    HW187845   2.837   9.933  12.295  1.4728 -3.1715 -1.7075
26910SOL    HW287846   2.909   9.913  12.426  0.5393  0.0895 -0.6161
26911SOL     OW87847  11.031   7.211   0.153 -0.2607 -0.3756 -0.1206
26911SOL    HW187848  10.936   7.212   0.144 -0.2564  0.3994 -0.1412
26911SOL    HW287849  11.064   7.208   0.063 -0.2648  1.2273 -0.2038
26912SOL     OW87850  10.469   7.303  12.907 -0.2502  0.2137  0.0874
26912SOL    HW187851  10.465   7.351  12.824  0.4349 -0.8351 -0.5609
26912SOL    HW287852  10.547   7.248  12.900 -1.8626 -2.2097  0.1352
26913SOL     OW87853   6.983   3.219   4.368 -0.3720 -0.2259  0.2816
26913SOL    HW187854   6.897   3.260   4.375  0.0182  1.2877 -2.4069
26913SOL    HW287855   7.041   3.277   4.417 -0.8422 -1.4057  2.3488
26914SOL     OW87856   3.365  11.114   0.328  0.1487  0.0356 -0.1771
26914SOL    HW187857   3.319  11.123   0.244  2.2864 -0.2944 -1.4675
26914SOL    HW287858   3.449  11.075   0.305  0.8723  0.0914  2.1279
26915SOL     OW87859   7.729   2.849   2.426  0.0511 -0.5297  0.0159
26915SOL    HW187860   7.733   2.763   2.466  0.4466 -0.9016 -0.7990
26915SOL    HW287861   7.658   2.895   2.473  0.3566 -1.0111  0.9767
26916SOL     OW87862   6.830   1.104   3.474  0.0984  0.8629  0.4740
26916SOL    HW187863   6.767   1.158   3.426  1.4948  0.3279 -2.1674
26916SOL    HW287864   6.861   1.041   3.409  0.2250 -1.6793  2.8291
26917SOL     OW87865   1.443   4.449   5.821  0.5682 -0.1026 -0.5283
26917SOL    HW187866   1.348   4.458   5.826  0.5020 -0.7254 -0.6615
26917SOL    HW287867   1.476   4.538   5.835 -0.0021 -0.0133  0.3108
26918SOL     OW87868   0.345   1.417   6.764 -0.1854  0.2007  0.3621
26918SOL    HW187869   0.413   1.461   6.815 -1.0504 -0.3620  2.0606
26918SOL    HW287870   0.263   1.451   6.798 -0.8284  1.1564 -1.9246
26919SOL     OW87871  10.784   5.596   0.828  0.7454 -0.2650 -0.0323
26919SOL    HW187872  10.749   5.543   0.756  1.4780 -1.0770  0.1911
26919SOL    HW287873  10.879   5.582   0.823  0.8860  0.4650  0.4814
26920SOL     OW87874  12.795   4.361  12.798  0.2771 -0.2139  0.3482
26920SOL    HW187875  12.849   4.341  12.874 -0.7904 -0.8245  0.9784
26920SOL    HW287876  12.782   4.456  12.802 -1.0364 -0.4100  1.8479
26921SOL     OW87877   8.519  12.695  11.413 -0.7746  0.2493  0.4300
26921SOL    HW187878   8.513  12.602  11.435 -1.5248  0.2499  0.2765
26921SOL    HW287879   8.611  12.717  11.428 -1.2533  0.4182  4.1828
26922SOL     OW87880  11.702   0.432  10.298 -0.4012 -0.2181  0.2264
26922SOL    HW187881  11.621   0.438  10.349 -0.8155 -0.8736 -0.3246
26922SOL    HW287882  11.770   0.466  10.356 -0.5828 -2.4370  1.8476
26923SOL     OW87883   8.346   6.099   6.991 -0.1009  0.1191  0.1035
26923SOL    HW187884   8.314   6.164   7.053  0.7304  0.8604 -0.2229
26923SOL    HW287885   8.417   6.054   7.038 -1.3505 -1.3184  0.7216
26924SOL     OW87886  10.430   1.311   7.356 -0.0752  0.0353  0.0885
26924SOL    HW187887  10.375   1.237   7.334  0.9548 -1.0449  1.0125
26924SOL    HW287888  10.390   1.348   7.435  0.4255 -0.6934  0.7054
26925SOL     OW87889   6.232   0.599  11.850  0.0119 -0.1531  0.2254
26925SOL    HW187890   6.311   0.555  11.817  0.3039 -0.0141  0.7179
26925SOL    HW287891   6.266   0.671  11.904 -0.4351 -0.6899  1.2555
26926SOL     OW87892   3.652  12.707   2.211  0.5526  0.5513 -0.4157
26926SOL    HW187893   3.564  12.677   2.235  0.5283  0.1485 -0.9978
26926SOL    HW287894   3.670  12.666   2.127  1.5235  0.1877 -0.0466
26927SOL     OW87895   4.363  11.878  10.395  0.1582 -0.5734  0.4706
26927SOL    HW187896   4.441  11.825  10.377  1.4971  0.7381  2.0791
26927SOL    HW287897   4.292  11.814  10.403  0.7904 -1.7334 -2.0814
26928SOL     OW87898   6.725  10.171  12.938  0.3643 -0.7255 -0.5419
26928SOL    HW187899   6.772  10.248  12.970  1.9283 -2.1531  0.7967
26928SOL    HW287900   6.757  10.159  12.849  0.9648 -0.4437 -0.3735
26929SOL     OW87901  10.745   7.212   6.703 -0.4073  0.6604  0.8243
26929SOL    HW187902  10.801   7.235   6.777 -0.8605 -0.5205  1.5659
26929SOL    HW287903  10.656   7.228   6.734 -0.7676 -1.9756  1.4245
26930SOL     OW87904   5.602   7.380   7.396 -0.0057 -0.0327  0.5650
26930SOL    HW187905   5.516   7.407   7.428 -0.2723 -0.3923  0.1586
26930SOL    HW287906   5.660   7.453   7.418 -0.5239  0.4513  0.3436
26931SOL     OW87907   7.625  10.617  12.058 -0.1036  0.1051 -0.4580
26931SOL    HW187908   7.576  10.536  12.042  0.2482  0.0028 -1.0191
26931SOL    HW287909   7.580  10.657  12.133 -0.1267 -0.7293 -0.0151
26932SOL     OW87910   4.073  12.918   3.205 -0.2563 -0.1934  0.0821
26932SOL    HW187911   4.145  12.877   3.253 -0.2811  1.0829  1.2549
26932SOL    HW287912   4.061  13.003   3.247 -0.8520  0.6372 -1.6536
26933SOL     OW87913   2.613   4.589   5.633  0.0640 -0.2587 -0.1075
26933SOL    HW187914   2.682   4.529   5.606 -1.8782 -1.9171 -1.6815
26933SOL    HW287915   2.597   4.568   5.725  1.5243  0.1067  0.2650
26934SOL     OW87916   5.395   1.346  10.299  0.1191 -0.1242 -0.5160
26934SOL    HW187917   5.485   1.317  10.283  0.1337 -1.1736  1.2500
26934SOL    HW287918   5.404   1.436  10.329  0.7100 -0.5807  0.7379
26935SOL     OW87919   4.025   3.769  12.560  0.0162 -0.0170  0.7276
26935SOL    HW187920   3.964   3.713  12.511  1.1527  0.6877 -1.6538
26935SOL    HW287921   4.104   3.716  12.570  0.1580  0.2147  0.8379
26936SOL     OW87922   2.402   6.597  10.423 -0.2388 -0.5903  0.0939
26936SOL    HW187923   2.434   6.613  10.334 -0.8088 -1.7962 -0.3502
26936SOL    HW287924   2.480   6.575  10.473 -0.0852 -1.4112 -0.4828
26937SOL     OW87925   2.927  10.378   0.718  0.0488 -0.1273 -0.5890
26937SOL    HW187926   2.912  10.346   0.807  2.1758 -0.2654 -0.2331
26937SOL    HW287927   2.859  10.445   0.705  0.3900  0.7238  1.5606
26938SOL     OW87928   6.139   1.951   6.841 -0.4787 -0.3420  0.5206
26938SOL    HW187929   6.080   1.883   6.874 -0.2934 -0.0365  1.5051
26938SOL    HW287930   6.092   2.033   6.854 -0.1774 -0.1676  0.5359
26939SOL     OW87931   2.980   1.699  12.496  0.4668  0.4766  0.3271
26939SOL    HW187932   2.973   1.793  12.512 -0.2887  0.4349  0.2558
26939SOL    HW287933   3.070   1.678  12.520  0.3882  1.0557  1.1995
26940SOL     OW87934   4.455  10.507   5.157 -0.4917 -1.0700 -0.0285
26940SOL    HW187935   4.521  10.571   5.182  1.0703 -3.1509  1.5875
26940SOL    HW287936   4.430  10.531   5.068  1.7277  0.3980 -0.3218
26941SOL     OW87937   0.629  11.016   3.404  0.4109  0.2000  0.8820
26941SOL    HW187938   0.648  11.069   3.327 -0.0830 -0.4441  0.3072
26941SOL    HW287939   0.555  11.061   3.446  1.1242  0.9369  1.3736
26942SOL     OW87940   1.851   0.195   4.667  0.1251  0.5809  0.7273
26942SOL    HW187941   1.849   0.242   4.583  0.0135 -0.8896 -0.1200
26942SOL    HW287942   1.943   0.191   4.691  0.2200  0.4322  0.3379
26943SOL     OW87943   9.811   3.720   7.379 -0.4778  0.6563  0.6461
26943SOL    HW187944   9.724   3.703   7.341  0.6899  0.5253 -2.1884
26943SOL    HW287945   9.792   3.758   7.465 -3.5082  4.1514 -1.2668
26944SOL     OW87946   1.852   7.876   1.747  0.3420 -0.4366  0.6498
26944SOL    HW187947   1.815   7.904   1.831  0.0715 -0.0056  0.3917
26944SOL    HW287948   1.947   7.873   1.762  0.5344  1.9873  0.3174
26945SOL     OW87949   6.686   8.929   8.239 -0.1988 -0.4353  0.0798
26945SOL    HW187950   6.620   8.878   8.287  0.0839  0.7435  1.7922
26945SOL    HW287951   6.642   8.952   8.157 -0.7188 -2.4604 -0.2626
26946SOL     OW87952   7.647   6.923   2.062  0.2828 -0.2045  0.4343
26946SOL    HW187953   7.613   6.906   2.150  2.0807 -3.3663  0.6839
26946SOL    HW287954   7.702   7.001   2.072 -2.8648  2.1329  1.0147
26947SOL     OW87955   1.686  11.683  10.619 -0.2932 -0.3501  0.3574
26947SOL    HW187956   1.745  11.743  10.664 -0.2349  1.1679 -1.5902
26947SOL    HW287957   1.736  11.650  10.544 -0.9070 -1.4781  0.4203
26948SOL     OW87958   7.601   3.467   7.478 -0.4985  0.4694 -0.0287
26948SOL    HW187959   7.544   3.542   7.494  0.0592  0.7744  0.5940
26948SOL    HW287960   7.616   3.430   7.565  2.7918  2.2861  0.3508
26949SOL     OW87961  11.968  11.849   0.461  0.2383 -0.3258  0.4153
26949SOL    HW187962  12.059  11.824   0.477  0.0209 -0.3869  1.6472
26949SOL    HW287963  11.974  11.922   0.400  0.9974 -1.7649 -1.3324
26950SOL     OW87964  11.816   1.212   9.973 -0.0901  0.1007  0.1459
26950SOL    HW187965  11.862   1.287  10.011 -1.0123  0.6936  0.1291
26950SOL    HW287966  11.885   1.159   9.933  0.5561  1.0860 -0.0807
26951SOL     OW87967   4.392   3.440   8.629 -0.2698  0.2392 -0.3803
26951SOL    HW187968   4.473   3.438   8.579 -0.4089 -0.0476 -0.5981
26951SOL    HW287969   4.409   3.502   8.700  0.2436 -0.0464 -0.2445
26952SOL     OW87970   1.797   1.139  10.284  0.0841 -0.2813  0.0119
26952SOL    HW187971   1.768   1.099  10.366 -0.0523 -0.1752  0.0149
26952SOL    HW287972   1.716   1.164  10.239  0.0991 -1.3879 -0.6859
26953SOL     OW87973   5.835   1.445   2.413 -0.1070  0.1228  0.6057
26953SOL    HW187974   5.842   1.540   2.404 -0.2896  0.2301  1.4862
26953SOL    HW287975   5.868   1.410   2.330 -1.3290  0.9900 -0.2733
26954SOL     OW87976  11.062  10.268   7.568 -0.1568  0.7358  0.0904
26954SOL    HW187977  11.139  10.264   7.625 -0.5267  0.0873  0.5608
26954SOL    HW287978  11.031  10.358   7.577  0.0788  0.7770  0.5407
26955SOL     OW87979   7.867   2.164   1.366 -0.0013  0.0114 -0.0360
26955SOL    HW187980   7.945   2.217   1.381 -1.4166  1.9385  0.9323
26955SOL    HW287981   7.826   2.156   1.452 -1.4816  0.0979 -0.6899
26956SOL     OW87982   8.318   7.666   9.425  0.3250  0.0135 -0.2570
26956SOL    HW187983   8.266   7.695   9.500  2.0872  1.1385  0.6184
26956SOL    HW287984   8.256   7.620   9.369 -1.3225  0.2087  1.2920
26957SOL     OW87985  10.177   5.948   8.234  0.2328 -0.4219  0.2011
26957SOL    HW187986  10.167   5.907   8.320 -0.5037  1.0458  0.8540
26957SOL    HW287987  10.125   6.028   8.240 -0.1125 -0.4549 -1.7371
26958SOL     OW87988  12.966   3.250   1.839 -0.0313  0.2056 -0.0492
26958SOL    HW187989  12.961   3.186   1.768 -2.4120 -2.3651  2.1768
26958SOL    HW287990  13.059   3.253   1.864  0.4453 -0.6886 -1.6408
26959SOL     OW87991   7.898   6.470   8.891 -0.8108 -0.7176  0.0896
26959SOL    HW187992   7.929   6.396   8.944 -2.4436 -0.8861  0.8960
26959SOL    HW287993   7.822   6.436   8.845  1.3211 -0.9908 -3.5832
26960SOL     OW87994   8.521   3.622   4.359 -0.1231  0.1425  0.1666
26960SOL    HW187995   8.574   3.556   4.314  0.0858  0.3788  0.0678
26960SOL    HW287996   8.556   3.706   4.330  0.0292  0.3012  0.7832
26961SOL     OW87997   2.242  12.216   9.722  0.7654 -0.0479 -0.0568
26961SOL    HW187998   2.240  12.272   9.645  0.4631 -1.6782 -1.2981
26961SOL    HW287999   2.155  12.176   9.726 -0.0846  1.8161  2.5984
26962SOL     OW88000   0.342   9.290   3.548 -0.3604  0.6648  0.0840
26962SOL    HW188001   0.264   9.337   3.517  0.0331  0.9089 -0.5553
26962SOL    HW288002   0.398   9.359   3.585 -0.1522  0.5855 -0.0816
26963SOL     OW88003   2.336  12.570  12.095  0.0724  0.6195  0.9693
26963SOL    HW188004   2.369  12.654  12.127  1.1594  0.2785  0.7921
26963SOL    HW288005   2.258  12.593  12.044  0.1752  1.4894  1.1773
26964SOL     OW88006   5.962  11.953  12.067  0.3251  0.0578 -0.0105
26964SOL    HW188007   6.028  11.942  12.135  0.8943  1.5467 -0.2760
26964SOL    HW288008   5.879  11.940  12.112  0.7354  0.0524  0.7650
26965SOL     OW88009   2.431   6.882   1.001  0.2539 -0.0834 -0.0009
26965SOL    HW188010   2.406   6.827   0.926 -0.2594 -1.5627  1.2153
26965SOL    HW288011   2.410   6.829   1.078  2.7944  0.4995  1.1916
26966SOL     OW88012   0.142  12.501   1.333 -0.1558  0.2565 -0.1683
26966SOL    HW188013   0.112  12.432   1.392  2.5281  0.1728  1.2377
26966SOL    HW288014   0.141  12.581   1.386  0.0765  0.6266 -0.7115
26967SOL     OW88015   5.584  11.138  11.687 -0.4730 -0.2656  0.0286
26967SOL    HW188016   5.643  11.064  11.701 -0.7382 -0.5770 -0.5166
26967SOL    HW288017   5.615  11.204  11.750 -0.7571 -1.1281  1.1046
26968SOL     OW88018  12.716  11.966   2.346 -0.3867  0.1446 -0.8299
26968SOL    HW188019  12.799  11.968   2.299  0.4152  1.2057  0.5466
26968SOL    HW288020  12.659  12.024   2.297 -0.1092 -0.0750 -1.4204
26969SOL     OW88021  12.664   5.167   1.466  0.5649  0.6279 -0.1041
26969SOL    HW188022  12.607   5.093   1.445  0.9729  0.3971 -0.4198
26969SOL    HW288023  12.706   5.143   1.549  2.9249 -0.8689 -1.6085
26970SOL     OW88024   2.916   2.135   6.027  0.1795 -0.2958 -0.0180
26970SOL    HW188025   2.999   2.181   6.032  0.1335  0.0847 -1.9147
26970SOL    HW288026   2.850   2.204   6.026  0.0754 -0.3409 -2.2024
26971SOL     OW88027   5.587   3.387   7.333  0.1666  0.2203 -0.2244
26971SOL    HW188028   5.625   3.321   7.391  0.0529 -0.1587 -0.5792
26971SOL    HW288029   5.493   3.373   7.340  0.1933 -0.8236 -1.6457
26972SOL     OW88030   7.371  10.023   3.280  0.7805  0.6100 -0.0674
26972SOL    HW188031   7.332   9.939   3.303  0.5850 -0.0127 -2.4537
26972SOL    HW288032   7.463  10.004   3.263  0.8116  0.9468 -0.2937
26973SOL     OW88033   6.993  10.279   9.978 -0.4893  0.0929 -0.0715
26973SOL    HW188034   6.966  10.255   9.889  2.1107  0.6057 -1.1035
26973SOL    HW288035   6.939  10.355  10.000 -0.1640  0.9077 -1.8753
26974SOL     OW88036   4.791   3.487   9.435  0.0234 -0.2386 -0.4089
26974SOL    HW188037   4.818   3.561   9.489  1.3500 -0.6880 -0.4218
26974SOL    HW288038   4.696   3.481   9.449  0.3380 -0.5210  2.1119
26975SOL     OW88039   7.209   6.132   5.644  0.2541  0.1268 -0.1872
26975SOL    HW188040   7.128   6.109   5.688  1.7249  0.5977  3.0107
26975SOL    HW288041   7.194   6.107   5.552 -2.8752 -1.2417  0.5679
26976SOL     OW88042   3.390  10.868   3.601  0.5120 -0.4261  0.0086
26976SOL    HW188043   3.483  10.845   3.599  0.7752  0.2973  2.0598
26976SOL    HW288044   3.352  10.810   3.667 -0.6564 -1.1116 -1.2008
26977SOL     OW88045   6.158   8.899   6.980 -0.0469 -0.3633 -0.6819
26977SOL    HW188046   6.165   8.893   6.885 -1.0840 -0.0488 -0.7848
26977SOL    HW288047   6.091   8.835   7.004 -0.0368 -0.2023 -0.1990
26978SOL     OW88048   6.855   7.456   9.044  0.3102  0.0714 -0.7673
26978SOL    HW188049   6.936   7.491   9.007 -0.3261 -0.0721 -2.3706
26978SOL    HW288050   6.859   7.481   9.137  2.5151 -0.5629 -0.6204
26979SOL     OW88051  10.095   2.558  12.409 -0.0962  0.2860  0.4093
26979SOL    HW188052  10.013   2.559  12.359  0.8542 -0.6731 -1.2432
26979SOL    HW288053  10.142   2.636  12.379  0.3221 -0.0905  0.0858
26980SOL     OW88054  11.080   7.294   5.760  0.3444 -0.0362 -0.1471
26980SOL    HW188055  11.043   7.354   5.695 -0.3602  0.0505  0.3291
26980SOL    HW288056  11.144   7.242   5.711 -0.8571 -0.6303 -1.1325
26981SOL     OW88057  11.498   8.073   8.272  0.0585  0.1124 -0.3135
26981SOL    HW188058  11.567   8.019   8.311  0.0556  0.1148 -0.3050
26981SOL    HW288059  11.418   8.049   8.319 -0.1641 -0.7147 -1.0880
26982SOL     OW88060   3.079   3.652   5.351 -0.0049 -0.4093  0.1743
26982SOL    HW188061   3.001   3.707   5.350  1.5105  1.8953 -1.5513
26982SOL    HW288062   3.076   3.605   5.267  0.6364  0.0044 -0.0887
26983SOL     OW88063   0.098  10.457   2.457  0.6966 -0.1311 -0.2331
26983SOL    HW188064   0.184  10.415   2.466  1.5977  1.6019 -0.2230
26983SOL    HW288065   0.052  10.404   2.393  1.8575 -0.9855 -0.3947
26984SOL     OW88066   3.812   4.355  10.917  0.0776 -0.2507 -0.5547
26984SOL    HW188067   3.875   4.411  10.963  0.6316 -3.6161  3.3430
26984SOL    HW288068   3.866   4.299  10.862 -0.1428  0.5053 -1.5769
26985SOL     OW88069   0.558   9.507   3.250  0.3146  0.6988 -0.3131
26985SOL    HW188070   0.537   9.575   3.186  1.6645  2.1476  0.6912
26985SOL    HW288071   0.501   9.433   3.227  1.0199  0.9736 -3.4253
26986SOL     OW88072  11.483  11.559   9.821 -0.2860 -0.3750 -0.1068
26986SOL    HW188073  11.480  11.464   9.819 -0.0521 -0.3883  0.1903
26986SOL    HW288074  11.448  11.584   9.906  0.8004 -0.2492  0.3167
26987SOL     OW88075   9.988  11.416  10.436 -0.5866 -1.0366 -0.0439
26987SOL    HW188076   9.982  11.370  10.353 -0.9699 -0.7533 -0.1764
26987SOL    HW288077  10.081  11.416  10.458 -0.1691  0.8453 -1.5829
26988SOL     OW88078   3.668   5.330  11.065 -0.0633 -0.1297  0.3892
26988SOL    HW188079   3.591   5.370  11.027 -0.0901 -0.4018  0.1504
26988SOL    HW288080   3.635   5.254  11.112  0.1711 -0.9205 -0.6835
26989SOL     OW88081  12.573   0.464   4.471  0.2840  0.0893 -0.2909
26989SOL    HW188082  12.531   0.403   4.532  0.8145 -0.5724 -0.5735
26989SOL    HW288083  12.516   0.541   4.471 -0.3548 -0.3726  0.1362
26990SOL     OW88084   7.083   3.187   1.745 -0.2465 -0.1762  0.2047
26990SOL    HW188085   7.043   3.135   1.676  0.5093 -2.1992  1.2339
26990SOL    HW288086   7.010   3.234   1.785 -0.9287 -0.3399 -0.8148
26991SOL     OW88087  12.175   6.156   1.320  0.0565  0.2662 -0.0809
26991SOL    HW188088  12.156   6.137   1.412  1.5200  0.3070  0.2602
26991SOL    HW288089  12.194   6.070   1.282  0.3425  0.3449 -0.1175
26992SOL     OW88090   7.761   1.609   2.513 -0.2259 -0.0031  0.0068
26992SOL    HW188091   7.717   1.669   2.452  1.5900  1.8632  0.4055
26992SOL    HW288092   7.806   1.547   2.456  0.8061  1.2322 -0.5692
26993SOL     OW88093   0.601   7.487   6.946  0.0287 -0.0857 -0.1512
26993SOL    HW188094   0.602   7.466   7.040 -0.6895  0.0846 -0.0960
26993SOL    HW288095   0.594   7.582   6.943 -0.0036 -0.0950 -0.3796
26994SOL     OW88096   9.490   0.440   3.667  0.6139 -0.0762 -0.7486
26994SOL    HW188097   9.525   0.526   3.691 -0.7741  0.8777 -1.9125
26994SOL    HW288098   9.434   0.458   3.591 -1.8922 -1.5655  0.6305
26995SOL     OW88099   7.335   3.278   5.664 -0.3606  0.2282 -0.4198
26995SOL    HW188100   7.413   3.282   5.719 -0.9021 -1.3266  0.4951
26995SOL    HW288101   7.365   3.234   5.584 -0.3738 -0.6835  0.0723
26996SOL     OW88102  10.634   1.368  10.722  0.6988  0.2575  0.4523
26996SOL    HW188103  10.573   1.306  10.681  1.1812  0.3694 -0.4839
26996SOL    HW288104  10.662   1.325  10.802  0.5408 -0.4686  0.1286
26997SOL     OW88105  12.592   9.323   3.619  0.2828 -0.0938 -0.3360
26997SOL    HW188106  12.655   9.263   3.578 -1.1921 -1.4555 -0.7149
26997SOL    HW288107  12.507   9.291   3.590 -0.8667 -0.8662  3.4074
26998SOL     OW88108   4.938   5.423   0.803  0.4227 -0.7659 -0.3871
26998SOL    HW188109   4.912   5.464   0.720 -1.0731  1.1555  0.9408
26998SOL    HW288110   4.897   5.477   0.870  1.2802 -2.4834  1.6255
26999SOL     OW88111   1.329   4.860   3.938 -0.2352  0.5064  0.0694
26999SOL    HW188112   1.312   4.919   4.011  0.6661  1.3151 -0.3561
26999SOL    HW288113   1.348   4.918   3.864  1.8589 -0.2886 -0.0857
27000SOL     OW88114   2.325  11.472   9.815  0.2427 -0.0442  0.2089
27000SOL    HW188115   2.234  11.503   9.812  0.9074  2.0009 -0.6700
27000SOL    HW288116   2.371  11.528   9.753  2.0512 -1.3139  0.3337
27001SOL     OW88117   9.000  12.277   4.385 -0.0067  0.1711  0.1081
27001SOL    HW188118   9.047  12.206   4.428 -3.2469 -2.6284 -0.4999
27001SOL    HW288119   9.051  12.297   4.307 -0.2913 -3.6392 -1.2335
27002SOL     OW88120   5.461   9.297   0.023 -0.1240  0.7666 -0.2419
27002SOL    HW188121   5.494   9.340   0.102  0.9155 -1.5268  0.6613
27002SOL    HW288122   5.511   9.337  -0.048  0.2826  1.5471  0.4621
27003SOL     OW88123  12.630   2.931   8.463  0.3683 -0.7026  0.0018
27003SOL    HW188124  12.594   2.875   8.395  0.6474 -1.0279  0.1150
27003SOL    HW288125  12.589   2.902   8.544  0.7626 -0.9727  0.1089
27004SOL     OW88126   6.215  11.342   6.841 -0.1590 -0.4474  0.0491
27004SOL    HW188127   6.287  11.283   6.859 -0.0005 -0.0078  0.9158
27004SOL    HW288128   6.241  11.390   6.762  1.6887  1.4882  1.7050
27005SOL     OW88129   3.760   3.206   1.668 -0.1088  0.7289 -0.5061
27005SOL    HW188130   3.745   3.119   1.632  0.3219  0.1705  0.6159
27005SOL    HW288131   3.847   3.231   1.634  0.2438  0.2548  0.0268
27006SOL     OW88132  12.502   7.002   7.762 -0.0771  0.2208 -0.4205
27006SOL    HW188133  12.560   6.960   7.826  0.4876  0.7755 -0.5486
27006SOL    HW288134  12.480   6.932   7.700  0.0740 -0.1110 -0.1064
27007SOL     OW88135   2.481   2.878   8.412  0.0699 -0.2838 -0.1407
27007SOL    HW188136   2.435   2.921   8.484 -2.0578  0.1346 -1.6276
27007SOL    HW288137   2.501   2.791   8.445 -1.5860 -0.3883  0.7170
27008SOL     OW88138   8.055   7.995  11.913  0.4468  0.0270 -0.1917
27008SOL    HW188139   7.981   8.040  11.872  1.0184 -0.2081 -1.5382
27008SOL    HW288140   8.059   8.032  12.002 -1.5196 -0.2559  0.0676
27009SOL     OW88141   9.910   3.207  12.698 -0.3013  0.5646 -0.0852
27009SOL    HW188142   9.913   3.268  12.772  2.3676  1.1284 -0.5534
27009SOL    HW288143   9.961   3.131  12.727 -1.5152 -0.3997 -0.4070
27010SOL     OW88144   4.212   8.436   3.430  0.0029 -0.3414 -0.4797
27010SOL    HW188145   4.262   8.484   3.495 -0.4508  0.5130 -0.7517
27010SOL    HW288146   4.259   8.450   3.348  0.9806 -2.0065 -0.2424
27011SOL     OW88147   7.819   8.116   8.645  0.5195 -0.5578  0.0350
27011SOL    HW188148   7.857   8.122   8.733  0.6694  0.0336 -0.0632
27011SOL    HW288149   7.825   8.205   8.611 -2.8741  0.0943  0.8043
27012SOL     OW88150   5.621   9.844   3.098  0.4926  0.4202  0.0122
27012SOL    HW188151   5.615   9.855   3.193 -0.5887 -0.8835  0.1275
27012SOL    HW288152   5.638   9.751   3.086  0.5358  0.5577 -1.0845
27013SOL     OW88153   3.864   0.648   8.045  0.3458 -0.0135 -0.3218
27013SOL    HW188154   3.935   0.711   8.040  0.0671  0.3812  0.4549
27013SOL    HW288155   3.786   0.702   8.060  0.0169 -0.4996 -0.2766
27014SOL     OW88156   7.509  10.843   8.050  0.1774 -0.4456  0.1323
27014SOL    HW188157   7.476  10.921   8.096  0.3858 -0.2968  0.0337
27014SOL    HW288158   7.575  10.878   7.990 -0.5095 -0.5652 -0.7069
27015SOL     OW88159   8.522  10.192   9.626  0.6448 -0.1313 -0.2725
27015SOL    HW188160   8.507  10.256   9.556 -0.6819  1.2478  1.1799
27015SOL    HW288161   8.611  10.160   9.610  0.4786  0.3179 -2.4088
27016SOL     OW88162   2.248   3.769   7.244  0.6333 -0.5002  0.7020
27016SOL    HW188163   2.200   3.745   7.165  0.2462  0.2090  0.7103
27016SOL    HW288164   2.280   3.858   7.226  3.3474 -1.5197  0.0427
27017SOL     OW88165  12.071   9.342  12.651  0.3633  0.3208  0.0892
27017SOL    HW188166  12.134   9.372  12.586 -0.0131 -1.5590 -1.2555
27017SOL    HW288167  12.123   9.297  12.717  0.5528  0.1324 -0.1895
27018SOL     OW88168   6.941   4.195   5.888  0.3568 -0.0265 -0.3790
27018SOL    HW188169   7.036   4.182   5.881  0.2880 -0.4972 -0.4276
27018SOL    HW288170   6.915   4.147   5.966 -0.2557 -2.2324 -1.8524
27019SOL     OW88171  10.265   2.527   8.735 -0.0639 -0.5851  0.2814
27019SOL    HW188172  10.179   2.540   8.774  0.0232 -1.1533  0.6674
27019SOL    HW288173  10.259   2.443   8.690  0.5849 -1.1066  1.1445
27020SOL     OW88174  11.363   6.374  10.218  0.3289  0.1293  0.0561
27020SOL    HW188175  11.284   6.385  10.165  0.7269  2.6329 -0.1487
27020SOL    HW288176  11.338   6.409  10.304 -0.2201 -3.5946  1.5917
27021SOL     OW88177  11.276  11.784   4.074  0.0959 -0.6068  0.4515
27021SOL    HW188178  11.333  11.846   4.028 -1.0060 -0.1026 -0.2674
27021SOL    HW288179  11.196  11.782   4.022 -1.5408  0.6125  2.7434
27022SOL     OW88180   5.649   7.678   4.319  0.2481  0.5259 -0.2827
27022SOL    HW188181   5.585   7.608   4.301 -0.2837  0.6230  1.1377
27022SOL    HW288182   5.597   7.758   4.317  1.0681  1.1160 -3.1867
27023SOL     OW88183  12.486   2.000  11.946  0.1677 -0.3099 -0.2030
27023SOL    HW188184  12.430   2.059  11.996 -0.3740 -1.9457  1.2504
27023SOL    HW288185  12.543   1.960  12.012 -2.5317 -4.7866 -0.1138
27024SOL     OW88186   1.375   5.625   9.067 -0.0127 -0.5511 -0.1320
27024SOL    HW188187   1.435   5.617   9.141  0.9130 -2.1063 -1.0106
27024SOL    HW288188   1.361   5.720   9.058  2.3011 -0.1232  0.1317
27025SOL     OW88189   2.371   3.380   1.483  0.0083 -0.6878  0.5473
27025SOL    HW188190   2.406   3.361   1.395 -0.1265 -1.3159  0.6212
27025SOL    HW288191   2.423   3.326   1.541  0.6304  0.3323  0.9554
27026SOL     OW88192   6.004   6.250   9.677  0.0314 -0.3162 -0.4574
27026SOL    HW188193   5.975   6.338   9.651  0.1054  0.1658  0.9786
27026SOL    HW288194   5.953   6.191   9.623 -0.0999  0.6136 -1.3836
27027SOL     OW88195   3.963   7.597   8.940  0.5890 -0.0342  0.1128
27027SOL    HW188196   3.884   7.634   8.977  2.1573  1.3804  2.2745
27027SOL    HW288197   3.974   7.642   8.856 -0.4247  0.3493  0.1790
27028SOL     OW88198   6.566  12.034   8.905 -0.0388 -0.2764  0.7897
27028SOL    HW188199   6.596  12.114   8.949 -0.9415  0.4840  0.0563
27028SOL    HW288200   6.645  12.001   8.861  0.0125  1.1019 -0.2162
27029SOL     OW88201   2.153   0.254  12.070 -0.3904 -0.6508 -0.7748
27029SOL    HW188202   2.137   0.229  11.979 -0.2898  1.1779 -1.3352
27029SOL    HW288203   2.202   0.336  12.064 -1.8673  0.4152  0.9189
27030SOL     OW88204   8.107   8.955   2.043 -0.1986 -0.4361 -0.3404
27030SOL    HW188205   8.189   8.954   1.994  0.9568  1.2860  1.4014
27030SOL    HW288206   8.134   8.942   2.134 -1.6774  1.6261  0.4574
27031SOL     OW88207  10.397   6.125   0.302 -0.9945  0.8563 -0.2744
27031SOL    HW188208  10.491   6.139   0.311 -0.6994 -1.2906  0.6298
27031SOL    HW288209  10.385   6.095   0.212 -0.6329  0.1302 -0.0929
27032SOL     OW88210   2.354   3.979   2.830 -0.1293  0.5644 -1.1690
27032SOL    HW188211   2.376   3.925   2.906  0.9990  0.9343 -1.2143
27032SOL    HW288212   2.347   4.068   2.865 -0.2651  0.6364 -1.3808
27033SOL     OW88213   1.665   5.860   4.245 -0.8473 -0.1349  0.1036
27033SOL    HW188214   1.708   5.938   4.212  1.1832 -0.8566  0.9062
27033SOL    HW288215   1.636   5.813   4.167 -2.1272  1.3630 -0.3923
27034SOL     OW88216   1.089   4.061   1.820 -0.2978 -0.7999 -0.0547
27034SOL    HW188217   1.038   4.019   1.889  0.8471 -0.0520  1.3010
27034SOL    HW288218   1.116   3.989   1.763 -1.6287 -1.3758  0.0182
27035SOL     OW88219   5.581  10.649  11.808  0.2255  0.2607  0.3932
27035SOL    HW188220   5.496  10.607  11.812 -0.4561  1.5034 -0.3309
27035SOL    HW288221   5.562  10.742  11.799  1.6768  0.6985  1.4134
27036SOL     OW88222   5.412   9.526   6.150  0.1764  0.3656  0.5646
27036SOL    HW188223   5.435   9.590   6.083 -1.6554 -0.4276 -0.9160
27036SOL    HW288224   5.465   9.449   6.130  1.0215  0.7582  1.2226
27037SOL     OW88225   3.636   2.132  12.801 -0.4500 -0.8378 -0.4238
27037SOL    HW188226   3.658   2.094  12.886  1.6938 -0.3057 -0.7012
27037SOL    HW288227   3.564   2.192  12.820  0.3907 -0.2675  1.1345
27038SOL     OW88228   6.738  11.364   3.471 -0.3982 -0.6540 -0.0970
27038SOL    HW188229   6.790  11.332   3.545  0.9317 -1.1628 -1.1915
27038SOL    HW288230   6.657  11.314   3.476 -0.9779  0.3717  1.8308
27039SOL     OW88231   9.491   2.205  12.756  0.2351 -0.0456  0.1351
27039SOL    HW188232   9.406   2.227  12.717  0.3309 -0.5502 -0.3687
27039SOL    HW288233   9.509   2.277  12.817 -1.5585 -0.9678  1.8687
27040SOL     OW88234   2.110  10.104   0.353  0.4953  0.4747 -0.0883
27040SOL    HW188235   2.026  10.149   0.351  0.9390  1.2951 -1.3303
27040SOL    HW288236   2.150  10.132   0.436  0.3162  1.5517 -0.3484
27041SOL     OW88237   6.019   3.161   7.913 -0.1574 -0.5625 -0.0381
27041SOL    HW188238   6.087   3.137   7.850 -0.0067  0.1797 -0.1746
27041SOL    HW288239   5.937   3.145   7.867 -0.0825 -1.4666  0.1281
27042SOL     OW88240   9.820   1.528   3.180 -0.1060 -0.3627 -0.4370
27042SOL    HW188241   9.774   1.558   3.258  1.0821  0.0051  0.1454
27042SOL    HW288242   9.750   1.505   3.118 -1.0563  0.1447  0.4200
27043SOL     OW88243   0.450   5.178  12.353  0.0746  0.4619 -0.0981
27043SOL    HW188244   0.402   5.261  12.346  0.4355  0.8477  1.4487
27043SOL    HW288245   0.479   5.159  12.264  0.2159  2.1572 -0.4581
27044SOL     OW88246   9.859   8.272   5.797  0.4825 -0.3122  0.0145
27044SOL    HW188247   9.884   8.216   5.724 -1.2194 -1.4831  0.2551
27044SOL    HW288248   9.894   8.358   5.775  1.3527 -0.9927 -1.4038
27045SOL     OW88249  12.119   5.219   3.410  0.3855  0.1073 -0.0106
27045SOL    HW188250  12.049   5.285   3.411 -1.8556 -2.1139  0.3670
27045SOL    HW288251  12.148   5.216   3.319  1.1456  2.1115  0.1026
27046SOL     OW88252   9.218  10.774   4.768  0.4979  0.6488 -0.3983
27046SOL    HW188253   9.130  10.755   4.800 -0.0026  1.2735 -1.3421
27046SOL    HW288254   9.242  10.855   4.813  1.2517 -0.3315  1.0454
27047SOL     OW88255   5.279  10.649  10.032  0.0971 -0.3977  0.0225
27047SOL    HW188256   5.317  10.737  10.021 -0.0392 -0.3803 -0.3159
27047SOL    HW288257   5.325  10.595   9.969 -0.4643 -0.3699 -0.4149
27048SOL     OW88258   6.611   1.053  10.573 -0.0226  0.1931 -0.0034
27048SOL    HW188259   6.551   1.065  10.499 -0.8183  1.1080  0.7683
27048SOL    HW288260   6.693   1.025  10.532 -0.6218  0.0648 -1.1777
27049SOL     OW88261   2.957   4.465   9.265 -0.1230  0.1082 -0.1861
27049SOL    HW188262   2.925   4.436   9.351 -1.3767 -0.6286 -0.8771
27049SOL    HW288263   2.942   4.390   9.207 -0.1780  0.9230 -1.2488
27050SOL     OW88264   2.116   4.518   8.144  0.1789 -0.3244  0.9756
27050SOL    HW188265   2.074   4.458   8.082 -3.1000  1.2452  1.4757
27050SOL    HW288266   2.203   4.533   8.108 -0.9400 -0.9200 -2.2562
27051SOL     OW88267   2.539   0.018   2.123 -0.0179 -0.1271  0.1057
27051SOL    HW188268   2.532  -0.047   2.192  0.0480  0.1507  0.3742
27051SOL    HW288269   2.449   0.038   2.099 -0.0447 -0.0303  0.2907
27052SOL     OW88270  10.727   2.570   7.944  0.4201 -0.7577  0.0242
27052SOL    HW188271  10.808   2.610   7.977  1.5719 -0.3098 -3.0283
27052SOL    HW288272  10.674   2.645   7.916  0.0932 -1.1431 -0.3915
27053SOL     OW88273   0.568  11.977   9.719 -0.3440 -0.3207  0.0608
27053SOL    HW188274   0.486  11.947   9.759 -0.7523 -0.2769 -0.7320
27053SOL    HW288275   0.616  11.897   9.699 -0.2410 -0.3498  0.4185
27054SOL     OW88276   4.308   0.155   3.903  0.2377 -0.4512  0.9052
27054SOL    HW188277   4.265   0.116   3.827 -1.9425  1.9206  0.7924
27054SOL    HW288278   4.290   0.094   3.975  0.2909 -1.5428  0.0211
27055SOL     OW88279   4.530   9.442  11.362 -0.0569 -0.3145 -0.2745
27055SOL    HW188280   4.610   9.495  11.363  0.1719 -0.4068 -3.7869
27055SOL    HW288281   4.561   9.354  11.343 -0.9269 -0.5461 -0.6300
27056SOL     OW88282  10.406  12.283  12.244 -0.0337 -0.0685  0.5029
27056SOL    HW188283  10.367  12.303  12.329 -1.0500  0.4008 -0.0475
27056SOL    HW288284  10.445  12.365  12.215 -0.5630  0.0394  0.0810
27057SOL     OW88285   8.447  10.922  10.340 -0.4808 -0.4189 -0.2890
27057SOL    HW188286   8.470  10.923  10.433  0.5936 -0.0430 -0.5423
27057SOL    HW288287   8.374  10.860  10.335 -1.3386  0.4247  0.9649
27058SOL     OW88288  10.068   2.942   7.709 -0.1616 -0.3145  0.0283
27058SOL    HW188289  10.124   2.951   7.786 -0.1356 -1.0921  0.1083
27058SOL    HW288290  10.078   3.025   7.662  1.8552 -0.7780 -0.4811
27059SOL     OW88291   8.261  12.118   0.030  0.5572  0.7359  0.0631
27059SOL    HW188292   8.271  12.102   0.124 -0.5567  1.7417  0.3712
27059SOL    HW288293   8.351  12.129  -0.002  0.8951  1.8784  1.2940
27060SOL     OW88294  11.212   8.155   2.003 -0.1609  0.0729  0.3334
27060SOL    HW188295  11.140   8.115   2.052 -0.4680 -2.9559 -2.2148
27060SOL    HW288296  11.170   8.196   1.927  0.6536 -0.3199 -0.3531
27061SOL     OW88297   8.018  11.666   1.316 -0.1247  0.1332 -0.0677
27061SOL    HW188298   8.024  11.761   1.311 -1.2675  0.2277  0.1157
27061SOL    HW288299   8.038  11.636   1.228  0.2366  0.5417 -0.1275
27062SOL     OW88300   0.002   3.143   5.811 -0.2967 -0.6536  0.4007
27062SOL    HW188301  -0.053   3.135   5.889 -0.8426 -0.1741  0.0669
27062SOL    HW288302   0.049   3.059   5.807 -1.6243 -1.4166  0.2253
27063SOL     OW88303  11.375   6.178   4.827  0.0022 -0.3703  0.5005
27063SOL    HW188304  11.327   6.210   4.904 -0.7049 -0.5926  0.1634
27063SOL    HW288305  11.458   6.226   4.829 -0.6816  0.8639  0.4832
27064SOL     OW88306   0.767   8.946   6.154  0.3843  0.0587 -0.2166
27064SOL    HW188307   0.839   8.902   6.108  1.1872  0.3390  0.7217
27064SOL    HW288308   0.809   8.985   6.231 -0.5916  1.1289 -0.2051
27065SOL     OW88309   9.392   7.398   9.806  0.4251 -0.0670  1.0561
27065SOL    HW188310   9.403   7.492   9.795 -0.4659  0.0175  0.8683
27065SOL    HW288311   9.307   7.378   9.766  0.4968 -0.9116  1.3036
27066SOL     OW88312   0.543   8.236   0.441  0.2346  0.5084  0.3925
27066SOL    HW188313   0.468   8.238   0.381  0.5382 -1.3481 -0.1424
27066SOL    HW288314   0.505   8.250   0.528 -0.4519  1.5422 -0.0609
27067SOL     OW88315   5.379  12.246   2.726  0.0245 -0.1050  0.0024
27067SOL    HW188316   5.308  12.204   2.775 -0.0971  0.8756  0.7169
27067SOL    HW288317   5.442  12.271   2.793 -0.5377  2.0254 -0.1848
27068SOL     OW88318   6.153   5.511   8.205  0.6199 -0.1494  0.3665
27068SOL    HW188319   6.178   5.429   8.161 -2.5658 -0.4227 -1.2288
27068SOL    HW288320   6.079   5.486   8.260 -0.1294  1.5719  0.1815
27069SOL     OW88321   1.192   5.239  10.861  0.0248  0.1966  0.1166
27069SOL    HW188322   1.175   5.253  10.768 -0.5818  0.8553  0.3184
27069SOL    HW288323   1.261   5.172  10.863  0.2360  0.3703 -0.8087
27070SOL     OW88324   2.112   2.090   5.210 -0.4106 -0.3012  0.0661
27070SOL    HW188325   2.185   2.037   5.180 -0.3461  0.4855 -1.2508
27070SOL    HW288326   2.036   2.032   5.206  0.1433 -1.2088  1.7236
27071SOL     OW88327   1.776   2.185  12.663  0.0227  0.4224  0.3752
27071SOL    HW188328   1.743   2.210  12.577 -0.7897 -1.1231  0.1886
27071SOL    HW288329   1.698   2.174  12.717  0.4439  0.1120  0.9388
27072SOL     OW88330   4.255   9.803  10.120  0.6174 -0.0736 -0.1885
27072SOL    HW188331   4.176   9.821  10.070  0.9416 -0.1395 -0.7327
27072SOL    HW288332   4.239   9.718  10.160  0.3549 -0.0171 -0.1715
27073SOL     OW88333   5.034  11.290   5.551 -0.3116 -0.3411 -0.2094
27073SOL    HW188334   4.974  11.216   5.550 -1.4944  0.5972 -1.2766
27073SOL    HW288335   5.119  11.252   5.528 -0.5834 -1.5880  0.7562
27074SOL     OW88336   2.077  12.548   8.551  0.1583  0.3298 -0.1752
27074SOL    HW188337   2.149  12.565   8.491 -0.3210  3.5502  0.0046
27074SOL    HW288338   2.017  12.621   8.539 -2.7018 -1.7452  0.3217
27075SOL     OW88339   7.621   7.896   3.442  0.2998 -0.2635 -0.2547
27075SOL    HW188340   7.627   7.802   3.460 -0.1679 -0.1648  0.4472
27075SOL    HW288341   7.554   7.903   3.375 -1.2856 -0.2703  1.2574
27076SOL     OW88342   3.308   6.964  11.866 -0.4279  0.2269  0.3083
27076SOL    HW188343   3.273   6.942  11.779 -0.5755  0.0325  0.4158
27076SOL    HW288344   3.242   6.931  11.927  0.9890 -2.2706  0.6261
27077SOL     OW88345   3.807   2.076   4.052  0.0085 -0.4187  0.1170
27077SOL    HW188346   3.765   1.992   4.069  0.2006 -0.2227  1.7534
27077SOL    HW288347   3.734   2.139   4.053  0.0219 -0.4051  0.2265
27078SOL     OW88348   4.241  12.332  11.529 -0.2169  0.1044 -0.2484
27078SOL    HW188349   4.200  12.393  11.590 -1.8116  1.6104 -2.6805
27078SOL    HW288350   4.176  12.264  11.516  1.1352 -1.6783  1.6113
27079SOL     OW88351   1.627   3.012   2.341 -0.0141  0.4171 -0.0251
27079SOL    HW188352   1.615   3.062   2.260 -0.0137  1.0886  0.3777
27079SOL    HW288353   1.538   2.993   2.370 -0.0817  2.0358  0.9276
27080SOL     OW88354   1.749   4.315   8.404 -0.5634 -0.4505 -0.4480
27080SOL    HW188355   1.822   4.270   8.360 -1.3210 -1.7153 -0.4513
27080SOL    HW288356   1.779   4.327   8.494 -0.7430 -1.9673 -0.1580
27081SOL     OW88357  10.461   8.480   9.327 -0.9812 -0.1749  0.1358
27081SOL    HW188358  10.421   8.476   9.414 -1.2248  0.4390  0.0581
27081SOL    HW288359  10.416   8.552   9.283 -2.4813 -1.9059 -1.3235
27082SOL     OW88360   4.153  11.782  12.331 -0.3029 -0.0105  0.1853
27082SOL    HW188361   4.228  11.805  12.275 -0.4110  1.5928  0.6501
27082SOL    HW288362   4.188  11.782  12.420 -0.6713 -0.1065  0.3332
27083SOL     OW88363   4.711   5.156   7.223 -0.3273 -0.3802  0.1599
27083SOL    HW188364   4.741   5.068   7.243  0.2434  0.0473  1.3137
27083SOL    HW288365   4.652   5.178   7.295  0.5306  0.6273  0.5875
27084SOL     OW88366   1.272   9.242  10.611 -0.3913  0.7438 -0.2088
27084SOL    HW188367   1.311   9.239  10.698  0.6475 -0.1257 -0.6952
27084SOL    HW288368   1.343   9.223  10.551 -1.5693 -1.1196 -1.1141
27085SOL     OW88369   1.432   2.922   1.018  0.1539 -0.7245 -0.2177
27085SOL    HW188370   1.521   2.931   1.054 -0.2910  0.1646  0.6914
27085SOL    HW288371   1.386   2.867   1.081 -0.2045 -0.4175 -0.2111
27086SOL     OW88372   0.445   6.695  12.080 -0.6650 -0.7710  0.6887
27086SOL    HW188373   0.389   6.641  12.137 -3.8291  2.0549  0.5877
27086SOL    HW288374   0.446   6.780  12.123  0.7027  0.2260 -1.1996
27087SOL     OW88375   3.685  11.985   7.839  0.1885 -0.3057  0.4751
27087SOL    HW188376   3.749  11.922   7.872  1.7929  0.9121 -0.1696
27087SOL    HW288377   3.722  12.015   7.756 -2.6458 -1.6659 -1.4391
27088SOL     OW88378   5.121   5.560   8.286  0.1861 -0.0392  0.0217
27088SOL    HW188379   5.141   5.483   8.232  1.8039  0.4466 -0.1030
27088SOL    HW288380   5.026   5.569   8.279 -0.0992 -2.1975  0.2843
27089SOL     OW88381   1.373   9.904   7.366  0.0373 -0.1970  0.0960
27089SOL    HW188382   1.286   9.943   7.356 -0.7299 -1.5572  1.0573
27089SOL    HW288383   1.397   9.923   7.457 -1.4318 -3.8130  1.4385
27090SOL     OW88384   7.969   0.702   2.098 -0.0640 -0.1039  0.4930
27090SOL    HW188385   8.021   0.622   2.097  0.1158  0.0147  0.1800
27090SOL    HW288386   8.004   0.754   2.170  2.0292  1.1364 -1.3099
27091SOL     OW88387   0.326  11.245   1.927  0.1841 -0.3351 -0.1140
27091SOL    HW188388   0.285  11.248   2.013  2.0623 -1.4832  0.8862
27091SOL    HW288389   0.310  11.332   1.889  0.6936  0.7419  2.0410
27092SOL     OW88390   6.665   3.005   4.010  0.0352 -0.0138  0.3359
27092SOL    HW188391   6.742   3.052   3.975  0.3035 -0.0266  0.9033
27092SOL    HW288392   6.594   3.029   3.951  0.1805  1.0773  0.5846
27093SOL     OW88393  11.580   5.147   9.872 -0.3053  0.6456  0.4029
27093SOL    HW188394  11.615   5.231   9.843 -0.0844  0.2947 -0.3798
27093SOL    HW288395  11.653   5.105   9.919  0.1581  0.1644 -0.7155
27094SOL     OW88396   8.037   2.679  11.410 -0.1785  0.6103 -0.1266
27094SOL    HW188397   7.969   2.672  11.344  0.2267 -0.0930 -0.4813
27094SOL    HW288398   8.066   2.770  11.405 -0.1089  0.5547 -0.9730
27095SOL     OW88399   1.588   9.955   4.229 -0.1212 -0.1542  0.3653
27095SOL    HW188400   1.559   9.900   4.302 -0.1915 -1.4681 -0.6105
27095SOL    HW288401   1.680   9.933   4.217 -0.0670  0.1782  0.1602
27096SOL     OW88402   3.441   0.571   1.750  0.4859 -0.7689 -0.2857
27096SOL    HW188403   3.368   0.510   1.739 -0.7827  0.7447 -0.5917
27096SOL    HW288404   3.499   0.553   1.676  0.3058 -1.7817 -0.2021
27097SOL     OW88405  12.880   2.565   7.875 -0.4562  0.2864 -0.1402
27097SOL    HW188406  12.847   2.534   7.791 -0.0256 -1.2359  0.2215
27097SOL    HW288407  12.925   2.647   7.854  2.9260 -1.8409 -2.1267
27098SOL     OW88408  10.345   7.516   6.231  0.3741  0.5234  0.2261
27098SOL    HW188409  10.285   7.511   6.305  1.6575 -1.8964  1.2300
27098SOL    HW288410  10.292   7.495   6.155 -0.4715  0.4689  0.8211
27099SOL     OW88411  10.893  11.683   1.799  0.1867  0.2140  0.4937
27099SOL    HW188412  10.978  11.727   1.798  0.3577 -0.1209  0.0757
27099SOL    HW288413  10.895  11.623   1.724 -0.5423  0.4363  0.2842
27100SOL     OW88414   0.336   3.326   0.010  0.1469 -0.2119 -0.5415
27100SOL    HW188415   0.266   3.279  -0.034  0.3447 -0.5808 -0.4644
27100SOL    HW288416   0.375   3.262   0.069  0.8815 -0.1595 -0.9552
27101SOL     OW88417   2.989   3.697   6.756  0.2485  0.5872 -0.5067
27101SOL    HW188418   2.920   3.710   6.691 -0.0827  1.1047 -0.0551
27101SOL    HW288419   2.966   3.754   6.828  0.7245  0.1654 -0.0075
27102SOL     OW88420   3.310  12.359   3.734  0.0549  0.7567  0.9688
27102SOL    HW188421   3.337  12.270   3.713 -0.7090 -0.2644  3.8241
27102SOL    HW288422   3.388  12.413   3.717  2.0488 -1.1712  3.2136
27103SOL     OW88423   9.962   0.787  10.525  0.0911  0.3995 -0.3742
27103SOL    HW188424   9.902   0.721  10.491 -1.2363  1.5487 -0.3304
27103SOL    HW288425  10.025   0.801  10.455  1.9823 -2.6664  0.4850
27104SOL     OW88426   4.097  12.125   3.192 -0.4167 -0.1645 -0.1345
27104SOL    HW188427   4.141  12.204   3.160  1.1073 -0.7239  0.4975
27104SOL    HW288428   4.009  12.129   3.153  0.2968  0.8026 -1.7312
27105SOL     OW88429   5.211   4.065   6.011 -0.1906 -0.0163  0.2001
27105SOL    HW188430   5.116   4.054   6.014 -0.1852 -1.0514 -1.8535
27105SOL    HW288431   5.225   4.130   5.943  0.6077 -0.4288 -0.0320
27106SOL     OW88432   4.513   5.912   2.551  0.4242 -0.4406 -0.1473
27106SOL    HW188433   4.551   5.878   2.470  1.5759  0.2365  0.0993
27106SOL    HW288434   4.588   5.939   2.604 -0.3929  1.6555  0.0374
27107SOL     OW88435  11.012   1.600   2.070  0.7714  0.1807 -0.4989
27107SOL    HW188436  11.051   1.682   2.101 -0.5314  1.1075 -1.2314
27107SOL    HW288437  11.077   1.565   2.009  1.2282  0.8025 -0.3775
27108SOL     OW88438  10.107   8.924   3.485  0.0342 -0.6405  0.4763
27108SOL    HW188439  10.032   8.953   3.536 -1.8597 -1.8757 -1.4389
27108SOL    HW288440  10.134   8.842   3.527 -1.4827 -1.6237 -0.3525
27109SOL     OW88441   5.197   8.692  12.799  0.0294  0.3696 -0.0611
27109SOL    HW188442   5.177   8.745  12.876 -0.9101  1.6304 -1.1181
27109SOL    HW288443   5.251   8.620  12.832  1.0253  1.7634  1.5000
27110SOL     OW88444  11.360  11.779   7.471  0.2856  0.5048  0.6862
27110SOL    HW188445  11.303  11.843   7.513 -0.3793 -0.8498  1.9850
27110SOL    HW288446  11.371  11.711   7.537  2.0811 -0.0712 -0.1451
27111SOL     OW88447   3.288   7.386  11.814  0.0774  0.1577  0.7045
27111SOL    HW188448   3.195   7.364  11.809 -0.9150  3.7455  0.8144
27111SOL    HW288449   3.322   7.367  11.727 -0.8172 -0.8802  0.5645
27112SOL     OW88450   9.410   1.108   7.905 -0.5160  0.1147 -0.0264
27112SOL    HW188451   9.334   1.117   7.963 -0.8279  1.3031 -0.5801
27112SOL    HW288452   9.403   1.182   7.846  1.1398  0.3009 -0.0372
27113SOL     OW88453   8.800   2.816   0.639 -0.3824  0.0596  0.1070
27113SOL    HW188454   8.770   2.843   0.726  0.7046 -0.8704  0.7903
27113SOL    HW288455   8.883   2.861   0.626 -1.3145  1.5129 -1.1913
27114SOL     OW88456   9.107   1.533   7.241  0.5119 -0.3782 -0.7073
27114SOL    HW188457   9.133   1.619   7.273  0.1172  0.2199 -1.9175
27114SOL    HW288458   9.015   1.543   7.216  1.0138 -0.4955 -2.8590
27115SOL     OW88459  12.326   1.608   3.675 -0.1864  0.1059 -0.2575
27115SOL    HW188460  12.347   1.535   3.618 -3.2620  0.4321 -2.0386
27115SOL    HW288461  12.294   1.676   3.616 -0.1511  1.8173  1.5862
27116SOL     OW88462   9.167   2.103   8.963 -0.3244  0.4815 -0.5095
27116SOL    HW188463   9.175   2.030   8.901  0.2886  0.0507  0.0568
27116SOL    HW288464   9.257   2.117   8.994 -0.3395  1.8722 -1.0393
27117SOL     OW88465   7.950   7.008   5.451 -0.0159  0.2126  0.4889
27117SOL    HW188466   7.993   7.008   5.366 -1.0440  0.7123 -0.0453
27117SOL    HW288467   7.955   6.917   5.481 -1.7095 -0.5051 -1.1890
27118SOL     OW88468   1.494  11.782   3.239  0.2020  0.2672 -0.0485
27118SOL    HW188469   1.544  11.859   3.267  0.8885 -0.7907  1.7993
27118SOL    HW288470   1.514  11.773   3.146  0.4632  2.0484 -0.2021
27119SOL     OW88471   4.310   5.653   8.638  0.1722 -0.6166 -0.0780
27119SOL    HW188472   4.241   5.648   8.573  0.6678  0.0604 -0.6794
27119SOL    HW288473   4.271   5.703   8.710  0.1581  0.1396 -0.5964
27120SOL     OW88474   8.328  10.371   9.344 -0.5084 -0.2279  0.2545
27120SOL    HW188475   8.378  10.410   9.272 -0.6209  2.3405  1.4469
27120SOL    HW288476   8.389  10.370   9.418 -0.1353 -3.5820  0.0447
27121SOL     OW88477   6.107   0.987   9.773 -0.1363  0.3552 -0.0999
27121SOL    HW188478   6.158   1.011   9.850 -1.2481  2.5236  0.0302
27121SOL    HW288479   6.155   1.026   9.700  0.5210 -1.0763 -0.4765
27122SOL     OW88480   6.039   2.273   7.736  0.0039  0.5407  0.1253
27122SOL    HW188481   6.011   2.232   7.654 -1.3524  0.8458  0.4106
27122SOL    HW288482   6.049   2.366   7.715  0.9258  0.4284  0.0122
27123SOL     OW88483   5.419   9.769   1.476 -0.1067  0.9797  0.5114
27123SOL    HW188484   5.397   9.680   1.505  1.0359  1.1080  1.8750
27123SOL    HW288485   5.341   9.799   1.430  0.1653 -1.4317 -1.7711
27124SOL     OW88486  11.826   6.154   3.747 -0.2506  0.5846 -0.6488
27124SOL    HW188487  11.868   6.096   3.683 -0.8669 -0.5581 -0.0544
27124SOL    HW288488  11.741   6.174   3.707 -0.9376 -0.7150  0.0823
27125SOL     OW88489   1.007   9.703   5.797  0.5417  0.0473  0.0909
27125SOL    HW188490   1.097   9.735   5.795  1.1311 -1.5572 -0.7811
27125SOL    HW288491   1.015   9.614   5.831 -0.7027 -0.1898 -0.2128
27126SOL     OW88492  11.513   1.120   1.268  0.1408  0.2406  0.2917
27126SOL    HW188493  11.477   1.068   1.197  0.2264  1.7038 -0.8539
27126SOL    HW288494  11.549   1.055   1.329  0.7801 -1.0347 -1.3667
27127SOL     OW88495  12.666   6.703   6.395 -0.7834 -0.3048  0.4849
27127SOL    HW188496  12.571   6.690   6.396 -0.9820  0.4135 -1.9266
27127SOL    HW288497  12.700   6.625   6.350 -0.3007 -0.2634  0.7793
27128SOL     OW88498  12.584  12.678  10.447 -0.3623  0.4508  0.4079
27128SOL    HW188499  12.597  12.598  10.396 -0.5822 -0.5186  1.8039
27128SOL    HW288500  12.580  12.748  10.382 -0.7972 -0.7449 -0.9074
27129SOL     OW88501   4.093   7.796   4.928 -0.4726 -0.7302  0.1815
27129SOL    HW188502   4.105   7.714   4.881 -2.2089 -0.6350 -0.4902
27129SOL    HW288503   4.158   7.855   4.891  0.3161 -1.5918  0.1760
27130SOL     OW88504   5.677   5.830   0.909 -0.3981 -0.0301 -0.3761
27130SOL    HW188505   5.769   5.814   0.889 -0.2809 -0.6112  0.5410
27130SOL    HW288506   5.677   5.913   0.957 -0.3448 -0.0642 -0.3175
27131SOL     OW88507   4.617  10.785  12.095 -0.2411 -0.6826  0.5456
27131SOL    HW188508   4.568  10.749  12.169  0.9507  1.6631  2.6295
27131SOL    HW288509   4.618  10.880  12.111  0.6788 -0.1413 -2.1455
27132SOL     OW88510   2.044   2.869  10.830  0.4295  0.5932  0.2898
27132SOL    HW188511   2.023   2.792  10.777  0.4736  0.9473 -0.2572
27132SOL    HW288512   2.042   2.838  10.920  0.8627 -0.1442  0.0552
27133SOL     OW88513   0.360   1.261   1.336 -0.6689 -0.5537 -0.2202
27133SOL    HW188514   0.393   1.225   1.419  0.3818 -0.5244 -0.6049
27133SOL    HW288515   0.343   1.184   1.282 -1.3101 -0.5713  0.0053
27134SOL     OW88516   9.147   3.094   4.143 -0.6395  0.3881  0.1595
27134SOL    HW188517   9.175   3.175   4.101 -1.1349  0.0008 -0.9501
27134SOL    HW288518   9.071   3.118   4.196 -0.0159  0.8768  0.8590
27135SOL     OW88519   3.364  12.481   7.446  0.3498  0.6801 -0.0493
27135SOL    HW188520   3.286  12.455   7.494  0.4139  0.0710 -0.2601
27135SOL    HW288521   3.437  12.449   7.499  0.4123 -1.7395 -1.4199
27136SOL     OW88522   3.615  10.956  12.641  0.1665  0.7318 -0.4733
27136SOL    HW188523   3.705  10.983  12.624  0.4300  0.4929  0.4862
27136SOL    HW288524   3.562  11.019  12.592  0.8440  0.9999 -0.8811
27137SOL     OW88525   0.920   2.695   0.510  1.0442 -0.0417  0.1324
27137SOL    HW188526   0.829   2.720   0.527  1.1175 -0.4661  1.2179
27137SOL    HW288527   0.970   2.773   0.534  0.9307  0.5322 -1.3571
27138SOL     OW88528   0.590   0.864   2.706  0.6700 -0.1890 -0.3077
27138SOL    HW188529   0.673   0.840   2.747 -0.1043 -0.1884  1.3583
27138SOL    HW288530   0.541   0.783   2.702 -0.8071  0.4209  2.6091
27139SOL     OW88531  10.036   1.017   2.109 -0.4862 -0.0044 -0.0292
27139SOL    HW188532   9.970   0.949   2.120 -1.2995  0.5805 -1.0742
27139SOL    HW288533  10.119   0.969   2.103 -0.8366 -0.7734  0.9330
27140SOL     OW88534  10.804   0.209   1.287 -0.2763 -0.3425  0.0174
27140SOL    HW188535  10.894   0.177   1.296 -0.5750 -1.4053 -0.7035
27140SOL    HW288536  10.762   0.147   1.228 -1.0023  1.1400 -1.0771
27141SOL     OW88537   9.809   6.680  10.791  0.2219  0.5268  0.0410
27141SOL    HW188538   9.786   6.696  10.699  2.0574 -0.2733 -0.5836
27141SOL    HW288539   9.884   6.621  10.788 -1.8587 -2.5339  2.1308
27142SOL     OW88540   9.832   9.395   5.066  0.7581  0.4753  0.5399
27142SOL    HW188541   9.924   9.420   5.077  1.4269 -0.5196 -1.9729
27142SOL    HW288542   9.808   9.430   4.980 -0.7827 -0.4573  0.5547
27143SOL     OW88543   5.588   3.243  11.096  0.0958  0.3589 -0.5094
27143SOL    HW188544   5.575   3.335  11.115  0.1829  1.0436 -3.3524
27143SOL    HW288545   5.500   3.207  11.087  0.0715  0.2992 -0.0677
27144SOL     OW88546   5.508   6.679   1.327 -0.0369 -0.1815 -0.1341
27144SOL    HW188547   5.457   6.616   1.377  0.1195  1.5986  2.4258
27144SOL    HW288548   5.582   6.628   1.292 -0.2056 -1.5291  1.3758
27145SOL     OW88549   0.632   7.712  12.489  0.4306 -0.1564  0.6266
27145SOL    HW188550   0.548   7.695  12.532  0.2205 -0.9514 -0.0769
27145SOL    HW288551   0.672   7.782  12.542  0.4008 -1.4208  2.4305
27146SOL     OW88552   8.443   0.360   8.070  0.0869  0.6141  0.0740
27146SOL    HW188553   8.392   0.424   8.019 -0.5418  0.5968  0.6568
27146SOL    HW288554   8.532   0.366   8.035  0.2149  2.3580  0.5983
27147SOL     OW88555   5.866   2.360   9.979  0.2463  0.4534  0.0383
27147SOL    HW188556   5.959   2.340   9.993 -0.1129 -0.9352  0.6440
27147SOL    HW288557   5.855   2.357   9.884  0.8351  0.7057 -0.0405
27148SOL     OW88558  10.789   1.387   5.431  0.0341  0.1052 -0.3027
27148SOL    HW188559  10.755   1.408   5.518 -0.1173  1.2480 -0.6207
27148SOL    HW288560  10.844   1.310   5.445  0.1636  0.3809  0.8415
27149SOL     OW88561  10.275   9.055  11.606 -0.2662  0.7833  0.0234
27149SOL    HW188562  10.242   8.995  11.539 -1.7277  1.1808  0.3411
27149SOL    HW288563  10.368   9.036  11.612  0.0399  1.1860 -2.5480
27150SOL     OW88564   6.272   1.163   4.941 -0.2356  0.3376 -0.2536
27150SOL    HW188565   6.267   1.182   5.035  3.0827  0.3000  0.0705
27150SOL    HW288566   6.297   1.247   4.901  2.1160 -0.4039 -0.5062
27151SOL     OW88567   1.039  11.228   0.706 -0.3317 -0.3537  0.3471
27151SOL    HW188568   1.126  11.189   0.713 -0.0024  0.4407  0.9665
27151SOL    HW288569   1.027  11.246   0.613 -0.3898 -1.6592  0.0853
27152SOL     OW88570   1.717   0.686   7.215 -0.0670 -0.3385  0.0737
27152SOL    HW188571   1.672   0.626   7.155  1.4672 -1.8630  0.3606
27152SOL    HW288572   1.800   0.704   7.171 -0.1741  0.9605  0.3806
27153SOL     OW88573   9.854   3.459   6.995 -0.1694 -0.5072 -0.6822
27153SOL    HW188574   9.761   3.438   6.997 -1.2641  2.6661 -4.5300
27153SOL    HW288575   9.890   3.403   6.926  1.1414 -2.3571  1.3671
27154SOL     OW88576  11.773   3.262   4.453  0.1675  0.0329 -0.1672
27154SOL    HW188577  11.719   3.225   4.383 -1.9307  1.8077  0.4113
27154SOL    HW288578  11.747   3.214   4.532 -1.4038  1.5767  0.2997
27155SOL     OW88579  11.983   8.801   8.262 -0.5500  0.1246 -0.1697
27155SOL    HW188580  11.922   8.855   8.212  1.3154  0.9067 -1.7325
27155SOL    HW288581  11.968   8.825   8.353 -1.4608  1.4816 -0.6496
27156SOL     OW88582   6.071  11.021   2.980  0.3742  0.1572 -0.0618
27156SOL    HW188583   6.144  11.048   3.035  2.1675 -0.8120 -1.8226
27156SOL    HW288584   6.077  10.926   2.977 -0.5794  0.1013 -0.7327
27157SOL     OW88585   4.068   5.361   2.656  0.1864 -0.1991 -0.2430
27157SOL    HW188586   4.020   5.348   2.738 -3.1123  0.5638 -1.8809
27157SOL    HW288587   4.138   5.295   2.658 -1.8688 -2.4968  1.7192
27158SOL     OW88588   7.967   2.125   2.714 -0.2832 -0.0615  0.3696
27158SOL    HW188589   8.020   2.114   2.793 -0.5464  0.2258  0.5928
27158SOL    HW288590   7.994   2.054   2.656  1.1059  0.6952  0.0470
27159SOL     OW88591   0.184   4.367   6.753  0.5981  0.3411 -0.5238
27159SOL    HW188592   0.195   4.451   6.708 -0.3410 -0.3866 -2.2149
27159SOL    HW288593   0.092   4.345   6.739  0.5765 -0.5018  0.7799
27160SOL     OW88594   1.380  12.701  12.785  0.5762 -0.9309 -0.1849
27160SOL    HW188595   1.441  12.679  12.715 -0.7931 -2.2475 -1.0479
27160SOL    HW288596   1.315  12.631  12.782 -1.3390  0.7373  0.2586
27161SOL     OW88597   9.792   3.263   9.950 -0.1888  0.2764 -0.4362
27161SOL    HW188598   9.821   3.307  10.030 -0.2717 -1.3366  0.5137
27161SOL    HW288599   9.871   3.257   9.895  0.0119  0.8163 -0.2126
27162SOL     OW88600  12.651  12.943   7.455 -0.5909  0.0791  0.1370
27162SOL    HW188601  12.601  13.010   7.408 -0.0196  0.0742 -0.4900
27162SOL    HW288602  12.652  12.868   7.396 -0.3908 -0.1385  0.4141
27163SOL     OW88603   4.797  10.318   4.043  0.4846  0.1771 -0.1467
27163SOL    HW188604   4.725  10.322   4.106  0.0813 -1.3326 -0.4528
27163SOL    HW288605   4.825  10.226   4.046 -0.1103 -0.1842 -2.7431
27164SOL     OW88606  10.614   4.215   3.627 -0.5392 -0.3421  0.0444
27164SOL    HW188607  10.586   4.152   3.694 -1.4572 -1.4803 -1.3658
27164SOL    HW288608  10.706   4.232   3.648 -1.2803  0.8618  2.7516
27165SOL     OW88609   2.475   0.560   6.348  0.1855  0.2192 -0.1440
27165SOL    HW188610   2.566   0.569   6.317 -0.2823 -0.0058 -1.6640
27165SOL    HW288611   2.437   0.495   6.290 -1.4234  1.5099 -0.6073
27166SOL     OW88612   5.751  12.581   6.721  0.3632  0.4495  0.4799
27166SOL    HW188613   5.760  12.518   6.650 -0.7821  2.7072 -1.8418
27166SOL    HW288614   5.841  12.603   6.745  0.7713 -1.3093  0.7057
27167SOL     OW88615   6.843   9.917   6.194  0.3623  0.2940  0.5505
27167SOL    HW188616   6.914   9.953   6.141  0.2987 -0.5190 -0.1049
27167SOL    HW288617   6.807   9.993   6.239  0.4028  1.0312 -0.5972
27168SOL     OW88618   9.329  12.414  11.813 -0.6937 -0.0204 -0.3231
27168SOL    HW188619   9.383  12.345  11.774  1.8269  2.0741 -0.8471
27168SOL    HW288620   9.370  12.431  11.898 -1.0284  1.0772 -0.3646
27169SOL     OW88621  10.735   0.229   7.909 -0.1504 -0.0186 -0.1073
27169SOL    HW188622  10.644   0.225   7.938 -0.1979  0.1163 -0.2335
27169SOL    HW288623  10.759   0.322   7.918  0.3214 -0.2397  0.9736
27170SOL     OW88624   5.342  10.863   4.696  0.3156 -0.0704  0.2319
27170SOL    HW188625   5.318  10.954   4.715  0.1012 -0.4599  2.0155
27170SOL    HW288626   5.421  10.848   4.748  1.6386 -0.2854 -1.7499
27171SOL     OW88627   5.909   9.357   0.574 -0.0578  0.6131  0.0614
27171SOL    HW188628   5.932   9.432   0.629  1.4332 -0.6728  1.3098
27171SOL    HW288629   5.976   9.356   0.506 -0.0522  0.3973  0.0705
27172SOL     OW88630   0.085   5.452   8.138 -0.5174  0.0310 -0.1582
27172SOL    HW188631   0.134   5.446   8.056  1.2019 -0.8966  0.8743
27172SOL    HW288632   0.001   5.490   8.113  0.2346  0.4800 -2.2224
27173SOL     OW88633   1.319   5.417   2.609  0.8798  0.2459 -0.4178
27173SOL    HW188634   1.250   5.482   2.625 -1.7881 -2.6628  0.7699
27173SOL    HW288635   1.347   5.435   2.519  0.4822  3.1432 -0.0724
27174SOL     OW88636   7.314   7.517  10.928  0.3616  0.0416 -0.2165
27174SOL    HW188637   7.293   7.589  10.987  2.2781 -0.3573  1.0331
27174SOL    HW288638   7.397   7.542  10.889  0.0663 -0.6078 -1.3075
27175SOL     OW88639   2.057   9.842  10.784  0.1031  0.2396 -0.0406
27175SOL    HW188640   2.006   9.802  10.854  1.6179 -2.1814 -0.1719
27175SOL    HW288641   2.148   9.836  10.814  0.5450  2.1008 -0.8738
27176SOL     OW88642  11.656  10.924   7.543 -0.1651  0.2630  0.7019
27176SOL    HW188643  11.596  10.990   7.579  0.6043  0.8453  0.9457
27176SOL    HW288644  11.732  10.974   7.514 -0.3114 -0.3322 -0.7620
27177SOL     OW88645  10.227   1.107   3.254  0.2072  0.8437  0.0158
27177SOL    HW188646  10.281   1.178   3.289  0.3913  0.4419  0.5701
27177SOL    HW288647  10.168   1.085   3.326  0.7057 -0.1181  0.1434
27178SOL     OW88648   3.437   1.496   0.256 -0.0991 -0.3543 -1.1195
27178SOL    HW188649   3.458   1.435   0.185  0.8561 -3.5081  1.5796
27178SOL    HW288650   3.517   1.547   0.267  1.0658 -2.2732 -0.1830
27179SOL     OW88651   4.053   9.525   0.673 -0.0808  0.5589  0.0037
27179SOL    HW188652   4.142   9.490   0.681  0.5771  2.5630  2.7446
27179SOL    HW288653   3.997   9.458   0.711  0.6521  0.5807  1.1585
27180SOL     OW88654  12.146   6.596   8.976 -0.0376  0.5922  0.0751
27180SOL    HW188655  12.094   6.623   8.901  0.0028 -1.5467 -0.7885
27180SOL    HW288656  12.081   6.565   9.040  0.0264  0.5827  0.1360
27181SOL     OW88657   0.123   5.046   2.918 -0.4103  0.1339  0.3764
27181SOL    HW188658   0.190   5.045   2.985  0.8307  0.1988 -0.8160
27181SOL    HW288659   0.041   5.054   2.966  0.4720  0.8085  1.8294
27182SOL     OW88660  10.769   1.506   4.994  0.4313 -0.0631 -0.3235
27182SOL    HW188661  10.746   1.565   5.066 -0.3630  0.4868 -1.0173
27182SOL    HW288662  10.778   1.420   5.035  0.8310  0.3871  0.5688
27183SOL     OW88663   8.366   3.557   2.221 -0.6039  0.0337 -0.3348
27183SOL    HW188664   8.285   3.505   2.220 -1.0867  0.6827  1.2184
27183SOL    HW288665   8.356   3.614   2.297  0.9865  0.6856 -0.5864
27184SOL     OW88666  10.107  10.330   7.457  0.1533 -0.5141  0.1114
27184SOL    HW188667  10.198  10.338   7.484  0.5391  0.3328 -1.3269
27184SOL    HW288668  10.095  10.237   7.440  0.9209 -0.5599 -0.2262
27185SOL     OW88669   2.500  11.501   4.513 -0.3147  0.2650 -0.2548
27185SOL    HW188670   2.527  11.512   4.422 -3.0476 -0.2273 -1.2097
27185SOL    HW288671   2.469  11.411   4.517  0.4638  0.0354  1.4140
27186SOL     OW88672  10.680   9.159  12.934 -0.1477  0.3164  0.1390
27186SOL    HW188673  10.698   9.231  12.873 -0.3267  0.8921  0.7427
27186SOL    HW288674  10.708   9.193  13.019  0.8060 -0.7548  0.2789
27187SOL     OW88675  12.474   1.789   5.032 -0.1531  0.4206 -0.2087
27187SOL    HW188676  12.380   1.770   5.025 -0.0501 -0.5988  0.9117
27187SOL    HW288677  12.514   1.741   4.960 -0.0750 -2.5668  1.6636
27188SOL     OW88678   1.095   7.514   2.186 -0.1891  0.3161 -0.9639
27188SOL    HW188679   1.149   7.572   2.132 -0.2048  0.8565 -0.4118
27188SOL    HW288680   1.138   7.514   2.272  0.4336 -1.3727 -1.2507
27189SOL     OW88681  12.247   3.459   9.667 -1.2522 -0.2025 -0.3204
27189SOL    HW188682  12.215   3.547   9.687 -0.7321  0.0693 -0.6545
27189SOL    HW288683  12.218   3.443   9.578 -0.9818 -0.1952 -0.4111
27190SOL     OW88684   1.263   6.276   9.275  0.0991  0.0571 -0.0786
27190SOL    HW188685   1.214   6.351   9.240 -0.9252 -0.6292 -0.1434
27190SOL    HW288686   1.240   6.203   9.218  0.4261 -0.4968  0.4894
27191SOL     OW88687   7.075   8.005   4.512 -0.6050 -0.3421  0.0352
27191SOL    HW188688   7.002   8.002   4.450 -0.4455 -0.9418 -0.1319
27191SOL    HW288689   7.076   8.095   4.544 -0.8945 -0.1103 -0.5938
27192SOL     OW88690   7.481   1.937   4.559  0.6590  0.4703  0.0054
27192SOL    HW188691   7.499   1.984   4.478  1.5901  0.8685  0.4304
27192SOL    HW288692   7.502   1.999   4.629  0.1276  0.0435  0.5635
27193SOL     OW88693  11.469   3.873  11.411  0.0734  0.3439  0.3206
27193SOL    HW188694  11.448   3.907  11.498  2.0047 -0.9157  1.3424
27193SOL    HW288695  11.513   3.946  11.366 -0.9546  1.0059  0.3639
27194SOL     OW88696   8.141  12.486   0.992  0.3683 -0.1518 -0.4305
27194SOL    HW188697   8.161  12.579   0.977  1.7768 -0.3845 -0.1300
27194SOL    HW288698   8.208  12.457   1.054 -0.4308 -1.2262 -0.0511
27195SOL     OW88699  11.596   1.705   9.044 -0.1397  0.1526 -0.3791
27195SOL    HW188700  11.681   1.663   9.033 -0.1739  0.3565 -1.4766
27195SOL    HW288701  11.539   1.660   8.982 -0.7068  0.3730 -0.0254
27196SOL     OW88702   5.137   8.739  11.206  0.0538  0.2456  0.0609
27196SOL    HW188703   5.209   8.739  11.144  1.3291  0.3369  1.4871
27196SOL    HW288704   5.115   8.646  11.217  0.5047  0.1531  0.2124
27197SOL     OW88705   4.980   3.744  11.681  0.1469 -0.1978  0.3997
27197SOL    HW188706   5.011   3.730  11.591 -0.5401 -2.4028  0.4552
27197SOL    HW288707   4.990   3.838  11.695  3.2010 -0.2020 -0.8861
27198SOL     OW88708   0.262   9.265  12.953 -0.0869 -0.0240 -0.1702
27198SOL    HW188709   0.284   9.354  12.982  1.7067  0.3739 -2.4789
27198SOL    HW288710   0.271   9.268  12.858 -0.9701 -2.4620 -0.3917
27199SOL     OW88711  12.706   9.618   2.219 -0.6571  0.0278 -0.1098
27199SOL    HW188712  12.647   9.678   2.266 -0.0328 -1.2229  2.4576
27199SOL    HW288713  12.648   9.548   2.189 -0.8996  0.2555 -0.1870
27200SOL     OW88714   2.776   5.433   1.381  0.0732  0.1208 -0.3255
27200SOL    HW188715   2.731   5.368   1.436  0.2087  0.7015  0.4768
27200SOL    HW288716   2.711   5.455   1.314 -0.7009  0.6024  0.5472
27201SOL     OW88717   1.386  10.286   7.202  0.3563  0.5128  0.1937
27201SOL    HW188718   1.365  10.280   7.109 -0.9152  0.7719  0.4390
27201SOL    HW288719   1.476  10.317   7.205  0.6192 -0.0941 -0.9484
27202SOL     OW88720  11.536   4.076   6.107  0.4169  0.2739  0.0471
27202SOL    HW188721  11.454   4.125   6.099 -0.4581 -1.2072 -0.6538
27202SOL    HW288722  11.582   4.117   6.180 -1.2717  0.7103  0.9196
27203SOL     OW88723  11.927   4.491  11.700 -0.3679 -1.0574  0.0605
27203SOL    HW188724  11.965   4.579  11.705 -0.8369 -0.9342  2.0397
27203SOL    HW288725  11.971   4.450  11.626  0.3194  0.6205 -0.5075
27204SOL     OW88726   5.940   7.569   9.213 -0.3174  0.3879  0.0434
27204SOL    HW188727   6.029   7.537   9.202 -0.4265 -0.3833  1.2462
27204SOL    HW288728   5.894   7.541   9.134  0.2090 -0.2806 -0.0332
27205SOL     OW88729   5.823   4.376  10.510 -0.2598  0.0019 -0.5855
27205SOL    HW188730   5.728   4.393  10.513 -0.1746  0.4098 -0.0830
27205SOL    HW288731   5.842   4.334  10.594 -0.0277 -0.2678 -0.7724
27206SOL     OW88732   0.986   1.365  10.772 -0.1694  0.4071  0.2235
27206SOL    HW188733   0.985   1.456  10.801  1.3892  0.6741 -0.4726
27206SOL    HW288734   1.073   1.332  10.795 -0.4586 -0.6980 -0.1693
27207SOL     OW88735   5.921   9.015   8.751  0.2894  0.3884 -0.1760
27207SOL    HW188736   5.916   8.920   8.742  1.0788  0.2758  0.4573
27207SOL    HW288737   5.847   9.038   8.806 -1.2713  0.4330 -2.1813
27208SOL     OW88738  11.548   7.796   1.453  0.0521 -0.2610 -0.0809
27208SOL    HW188739  11.485   7.780   1.523 -0.8196  1.3937 -0.4466
27208SOL    HW288740  11.588   7.710   1.437 -0.3092 -0.8483  1.8569
27209SOL     OW88741   5.927  10.689  11.338  0.3629 -0.5288 -0.4980
27209SOL    HW188742   5.834  10.669  11.332  0.1041 -0.0203  1.3561
27209SOL    HW288743   5.968  10.608  11.369  0.6961 -1.0103 -2.0947
27210SOL     OW88744   1.120   1.167  11.067 -0.3206  0.0081 -0.0676
27210SOL    HW188745   1.138   1.095  11.006  0.0508  1.0587 -1.2440
27210SOL    HW288746   1.136   1.246  11.016  2.4487  0.9967  2.1058
27211SOL     OW88747   8.698   8.379   9.542  0.1112  0.3553  0.5503
27211SOL    HW188748   8.765   8.310   9.539 -0.8529 -0.6190  0.5571
27211SOL    HW288749   8.637   8.349   9.610 -1.6278 -0.0501 -1.1077
27212SOL     OW88750   1.939   8.859   8.515 -0.4868  0.5588 -0.2206
27212SOL    HW188751   1.848   8.829   8.509 -0.0249 -1.0300  0.2016
27212SOL    HW288752   1.974   8.847   8.427 -0.3251 -0.0872 -0.0711
27213SOL     OW88753  12.023   0.706   2.731 -0.2854  0.0999 -0.3102
27213SOL    HW188754  12.073   0.638   2.777 -2.1906 -0.7617  0.6186
27213SOL    HW288755  12.076   0.727   2.655  0.3709 -2.5104 -0.6818
27214SOL     OW88756   7.158   4.695  10.773 -0.5260  0.3315  0.1921
27214SOL    HW188757   7.134   4.703  10.680 -1.8714 -0.8098  0.4036
27214SOL    HW288758   7.233   4.754  10.783 -0.7838  1.0204 -1.4560
27215SOL     OW88759   9.632   9.856   4.070  0.4696 -0.4415  0.1496
27215SOL    HW188760   9.720   9.892   4.075  0.5808 -0.2227 -2.1993
27215SOL    HW288761   9.644   9.766   4.040 -0.1182 -0.1253 -1.1023
27216SOL     OW88762  12.936   2.060   8.120  0.1682 -0.5796  0.0918
27216SOL    HW188763  12.945   2.147   8.081 -0.9966 -0.7745 -0.6414
27216SOL    HW288764  13.000   2.059   8.191 -0.2836  1.1144  0.5501
27217SOL     OW88765  11.216   8.558  10.465 -0.0156  0.4106 -0.0774
27217SOL    HW188766  11.166   8.554  10.384 -1.0082 -0.0657  0.5416
27217SOL    HW288767  11.216   8.468  10.498 -1.1221  0.8762  1.3174
27218SOL     OW88768  11.744   4.718   1.121 -0.1320 -0.2527  0.3054
27218SOL    HW188769  11.680   4.699   1.190 -2.3843  1.4640 -1.1692
27218SOL    HW288770  11.721   4.659   1.050  0.0384  0.2474 -0.1707
27219SOL     OW88771   6.941  10.514  11.939 -0.2640 -0.3971  0.1256
27219SOL    HW188772   7.020  10.463  11.955  0.5528  1.0652  0.9424
27219SOL    HW288773   6.946  10.587  12.001 -0.9281  1.1687 -1.5790
27220SOL     OW88774   9.304  11.121   8.014 -0.3224  0.2751  0.0503
27220SOL    HW188775   9.288  11.035   7.974  0.3264  0.0958  0.1538
27220SOL    HW288776   9.240  11.179   7.973 -0.0384 -0.0271 -0.8449
27221SOL     OW88777   8.555   8.093   6.496 -0.4383 -0.5862  0.4283
27221SOL    HW188778   8.468   8.091   6.536 -0.3790  0.5455  0.6438
27221SOL    HW288779   8.573   8.186   6.482  0.3179 -0.8604 -0.5465
27222SOL     OW88780   6.124   4.661  11.299  0.3174  0.9331  0.5430
27222SOL    HW188781   6.183   4.693  11.367  0.1827  1.2739  0.5018
27222SOL    HW288782   6.056   4.614  11.348  1.4435 -0.8269  0.4955
27223SOL     OW88783   5.687   0.131   7.689 -0.1845  0.4715 -0.1308
27223SOL    HW188784   5.760   0.095   7.639 -0.6189  1.4382 -1.5379
27223SOL    HW288785   5.719   0.216   7.720 -0.1367  0.1507  0.6985
27224SOL     OW88786   5.118   7.633   9.848 -0.2298 -0.7358 -0.2398
27224SOL    HW188787   5.200   7.588   9.868  0.0622 -0.6500 -1.2289
27224SOL    HW288788   5.055   7.563   9.834 -0.1224 -0.8153 -0.3290
27225SOL     OW88789   1.912   2.945   3.195 -0.2116  0.4075 -0.2586
27225SOL    HW188790   1.940   3.036   3.202  1.3477 -0.1124  0.8276
27225SOL    HW288791   1.833   2.940   3.249 -1.4047  1.4832 -1.8246
27226SOL     OW88792  12.919   0.621   7.615  0.1342  0.0573  0.0911
27226SOL    HW188793  12.841   0.604   7.561  0.1108 -1.1619  0.4602
27226SOL    HW288794  12.901   0.704   7.658 -0.0175  0.8769 -1.4685
27227SOL     OW88795   4.778  12.635   8.299 -0.4880  0.6961  0.2567
27227SOL    HW188796   4.773  12.625   8.204  0.2651  1.6632  0.1003
27227SOL    HW288797   4.804  12.727   8.312 -0.5056  0.5513  1.3888
27228SOL     OW88798   6.002   6.293   9.347  0.2880  0.1112 -0.6300
27228SOL    HW188799   5.983   6.375   9.393  0.6183 -0.8764  1.3623
27228SOL    HW288800   5.943   6.294   9.272  0.2955  2.1635 -0.6735
27229SOL     OW88801   6.307   0.507  12.141  0.1850 -0.5411 -0.0158
27229SOL    HW188802   6.332   0.430  12.092  0.1045 -0.0816 -0.7869
27229SOL    HW288803   6.381   0.567  12.133 -0.7680  0.5142 -1.6655
27230SOL     OW88804   5.925  12.395   0.006 -0.2066  0.1245  0.1320
27230SOL    HW188805   6.005  12.344  -0.005 -0.9014 -0.9017 -0.3470
27230SOL    HW288806   5.911  12.436  -0.079  0.2301  0.9560  0.4515
27231SOL     OW88807   2.286   0.719   7.556 -0.0752  0.0881  0.0941
27231SOL    HW188808   2.346   0.645   7.558  0.0720  0.1046 -1.8571
27231SOL    HW288809   2.337   0.791   7.594  0.9891 -0.0310 -1.0159
27232SOL     OW88810   9.504   8.937  11.946 -0.3645 -0.1559  0.3822
27232SOL    HW188811   9.573   8.885  11.905  1.1564  1.0214  1.3590
27232SOL    HW288812   9.446   8.961  11.874  1.4741  0.6995 -0.8838
27233SOL     OW88813  10.921   3.754   7.795 -0.2352 -0.5802  0.5314
27233SOL    HW188814  10.874   3.821   7.844 -1.0186 -1.5283  1.1245
27233SOL    HW288815  10.952   3.693   7.862 -2.7763 -2.8217 -0.1435
27234SOL     OW88816   2.227   5.737  11.843 -0.0542  0.1827  0.6366
27234SOL    HW188817   2.309   5.691  11.827  0.0960  0.8721 -0.6950
27234SOL    HW288818   2.167   5.669  11.875  0.1380 -0.9730 -1.3399
27235SOL     OW88819   4.695   3.553  11.223 -0.6149  0.0376  0.4284
27235SOL    HW188820   4.602   3.572  11.235 -0.2862  0.4025  2.7720
27235SOL    HW288821   4.731   3.549  11.311  1.6846  0.2313 -0.4283
27236SOL     OW88822   7.904   3.112   5.790  0.5101 -0.8185 -0.1862
27236SOL    HW188823   7.906   3.188   5.732  1.3255 -0.9088 -0.2855
27236SOL    HW288824   7.813   3.082   5.787  0.3126 -0.2007 -0.6023
27237SOL     OW88825   4.686   7.632  10.693  0.1516  0.3568  0.1519
27237SOL    HW188826   4.683   7.639  10.597  1.3401 -1.3582 -0.0544
27237SOL    HW288827   4.706   7.540  10.710  0.0215  0.6384  2.0705
27238SOL     OW88828  10.888   7.373   7.658 -0.3652 -0.1580 -0.5745
27238SOL    HW188829  10.951   7.428   7.613  0.6365 -0.6689  0.1821
27238SOL    HW288830  10.889   7.403   7.748 -0.1563 -1.0843 -0.2526
27239SOL     OW88831   3.418   4.717  10.638 -0.1029  0.1020 -0.0419
27239SOL    HW188832   3.474   4.687  10.709  0.3466  0.0083 -0.4289
27239SOL    HW288833   3.368   4.640  10.611  0.4980 -0.1238 -0.5292
27240SOL     OW88834   2.715   6.745   5.647 -0.0943 -0.0888  0.3346
27240SOL    HW188835   2.733   6.728   5.555 -0.8308  2.3253 -0.3061
27240SOL    HW288836   2.756   6.671   5.693  0.1250 -1.4442 -1.8974
27241SOL     OW88837   1.568   7.335   1.049 -0.1427 -0.2506 -0.4531
27241SOL    HW188838   1.495   7.294   1.094  0.6474 -2.0803 -0.7300
27241SOL    HW288839   1.533   7.418   1.015 -1.2279  0.3496  1.9243
27242SOL     OW88840   4.318   6.024   3.980  0.6784 -0.2011  0.0753
27242SOL    HW188841   4.319   6.114   4.013 -0.9574  0.0246 -0.3937
27242SOL    HW288842   4.225   6.003   3.971  1.0412 -1.7692 -0.3104
27243SOL     OW88843  11.844  11.514   8.567 -0.2527 -0.1608  0.1721
27243SOL    HW188844  11.783  11.441   8.556 -0.5674  0.3474 -2.0000
27243SOL    HW288845  11.788  11.592   8.567  0.2833  0.2326 -0.5083
27244SOL     OW88846  12.829   4.469   2.647 -0.2213  0.3155  0.8618
27244SOL    HW188847  12.851   4.544   2.592 -1.5677 -0.0112 -0.1894
27244SOL    HW288848  12.810   4.398   2.585 -2.2730  0.0590  1.6869
27245SOL     OW88849   8.112   2.898  11.686 -0.4736 -0.2052 -0.3015
27245SOL    HW188850   8.183   2.849  11.645 -0.2161 -0.6070  0.5995
27245SOL    HW288851   8.055   2.924  11.613  0.4759 -0.0583 -1.0072
27246SOL     OW88852   0.956   1.645   6.262 -0.8416 -0.1557 -0.3318
27246SOL    HW188853   1.047   1.618   6.260 -0.5783  0.4856  1.0910
27246SOL    HW288854   0.959   1.740   6.248 -1.1575  0.0345  0.7354
27247SOL     OW88855   9.013  12.231  11.418 -0.0261 -0.0825 -0.3191
27247SOL    HW188856   9.101  12.198  11.400 -0.1537  0.3538 -1.8845
27247SOL    HW288857   8.970  12.233  11.333 -2.3420 -2.3935  0.6370
27248SOL     OW88858  12.917   9.165   4.895  0.1214 -0.2418 -0.0620
27248SOL    HW188859  12.890   9.178   4.986  1.0286  1.1386  0.0427
27248SOL    HW288860  12.932   9.254   4.861 -1.1638 -0.6500 -1.8808
27249SOL     OW88861   4.358  11.078   4.812  0.0664  0.4817 -0.2032
27249SOL    HW188862   4.322  10.994   4.783 -1.2305  1.7040 -2.5392
27249SOL    HW288863   4.413  11.107   4.739  2.9960  0.3462  1.8228
27250SOL     OW88864  10.566   0.297  12.073  0.1184 -0.3474  0.0166
27250SOL    HW188865  10.560   0.283  12.168 -0.9981 -0.4914 -0.0649
27250SOL    HW288866  10.595   0.387  12.064 -0.9730  0.0689  0.4991
27251SOL     OW88867   5.895   0.155   8.878 -1.1510 -0.3013  0.2958
27251SOL    HW188868   5.923   0.138   8.968 -1.2538 -1.1075  0.1880
27251SOL    HW288869   5.974   0.186   8.834 -0.9397 -0.5236  0.5119
27252SOL     OW88870  10.641   3.298  10.168 -0.0607 -0.2306  0.2018
27252SOL    HW188871  10.571   3.314  10.104  0.4532 -0.3374 -0.4003
27252SOL    HW288872  10.595   3.285  10.251 -0.7289  0.1368 -0.1016
27253SOL     OW88873   5.716   0.843   8.458 -0.2302 -0.1634  0.8237
27253SOL    HW188874   5.771   0.772   8.424  0.7247  0.0507  1.8277
27253SOL    HW288875   5.677   0.883   8.380  1.1763 -0.2345  0.0398
27254SOL     OW88876   3.856   8.707   4.325  0.4642  0.7341  0.0906
27254SOL    HW188877   3.867   8.787   4.375 -0.2300  0.4501  0.7180
27254SOL    HW288878   3.942   8.691   4.286  0.9374  1.1363  0.9359
27255SOL     OW88879   0.007   0.119   1.455 -0.3617  0.4218 -0.2359
27255SOL    HW188880   0.055   0.202   1.450 -0.7676  0.7332  0.7740
27255SOL    HW288881  -0.073   0.134   1.404  0.6061 -0.1318 -2.0135
27256SOL     OW88882   0.308  12.758  12.762  0.1819 -0.3053 -1.0803
27256SOL    HW188883   0.257  12.836  12.739  0.1440  0.3067  0.8921
27256SOL    HW288884   0.294  12.748  12.856  2.2413 -1.1978 -0.8275
27257SOL     OW88885   3.568   4.083   3.644 -0.3643  0.5933 -0.0476
27257SOL    HW188886   3.506   4.155   3.654 -1.2266 -0.0153 -0.8357
27257SOL    HW288887   3.543   4.020   3.712 -1.2689 -0.0838 -0.9663
27258SOL     OW88888   1.929  12.389   7.829 -0.1005 -0.0653 -0.1341
27258SOL    HW188889   1.926  12.475   7.787 -0.1809 -0.6179 -1.2828
27258SOL    HW288890   1.845  12.382   7.875 -0.1307  0.4220 -0.1068
27259SOL     OW88891   3.014   2.217   9.168 -0.3211  0.1858  0.2009
27259SOL    HW188892   2.921   2.203   9.187 -0.4321  0.3511 -0.2121
27259SOL    HW288893   3.014   2.279   9.095  0.0929 -0.7081 -0.5722
27260SOL     OW88894   1.304   3.216   3.103 -0.2880  0.1959  0.3165
27260SOL    HW188895   1.271   3.197   3.191 -1.5120  0.7406  0.0084
27260SOL    HW288896   1.259   3.154   3.046 -2.1646  2.0098 -0.3268
27261SOL     OW88897   7.581   1.918  12.630  0.8678 -0.7863  0.1932
27261SOL    HW188898   7.587   1.834  12.677  0.2544 -0.2818  1.1996
27261SOL    HW288899   7.555   1.981  12.697  1.5130  0.2581 -0.5143
27262SOL     OW88900   3.242  10.452   2.576  0.4822 -0.1732  0.2238
27262SOL    HW188901   3.212  10.542   2.563  0.5081 -0.3434 -1.1794
27262SOL    HW288902   3.335  10.455   2.555  0.8198 -0.2626  1.5815
27263SOL     OW88903   4.370   1.089  12.866 -0.1466  0.1468 -0.2787
27263SOL    HW188904   4.370   1.171  12.815  0.3369  1.0797  1.1671
27263SOL    HW288905   4.455   1.049  12.845 -0.0613  0.3903 -0.4079
27264SOL     OW88906   3.897   4.080   3.028  0.0336  0.0180  0.4543
27264SOL    HW188907   3.962   4.149   3.037  0.6928 -0.4592 -0.4946
27264SOL    HW288908   3.836   4.113   2.962  0.3349 -0.2867  0.0191
27265SOL     OW88909   6.476   8.774   7.273 -0.2235  0.3069  0.4339
27265SOL    HW188910   6.464   8.716   7.348  1.6152 -4.1358 -2.3276
27265SOL    HW288911   6.564   8.811   7.285 -0.8815  1.6427  1.5297
27266SOL     OW88912   4.903   3.850   2.244  0.5426  0.3943 -0.1691
27266SOL    HW188913   4.988   3.807   2.253 -0.0085 -0.6073  0.5116
27266SOL    HW288914   4.877   3.833   2.154 -0.3095 -2.0476  0.4436
27267SOL     OW88915   3.842   1.764   0.969  0.1447  0.2881  0.1485
27267SOL    HW188916   3.794   1.710   1.031 -0.7930 -0.1166 -0.8942
27267SOL    HW288917   3.894   1.823   1.024  2.2943 -2.5115  1.3592
27268SOL     OW88918   7.063   1.047  10.948 -0.4615 -0.0435 -0.1163
27268SOL    HW188919   7.010   0.970  10.930  0.1957 -0.6970  0.6804
27268SOL    HW288920   7.007   1.121  10.924 -0.8361 -0.7652 -1.5868
27269SOL     OW88921   2.320   0.477   7.973  0.4338  0.5368 -0.1308
27269SOL    HW188922   2.250   0.453   7.912 -1.0026 -0.4977  1.8106
27269SOL    HW288923   2.283   0.547   8.026  1.3872  0.9051  0.0712
27270SOL     OW88924  10.408   2.891   5.822 -0.0899 -0.1225  0.2787
27270SOL    HW188925  10.404   2.856   5.733 -0.1603 -1.1121  0.6538
27270SOL    HW288926  10.340   2.842   5.870 -0.0285  0.3669  0.8869
27271SOL     OW88927   7.176  11.763   4.310 -0.1615  0.0859  0.0442
27271SOL    HW188928   7.173  11.803   4.397 -0.2286  0.5826 -0.1831
27271SOL    HW288929   7.216  11.830   4.254  0.1956 -0.3605 -0.2391
27272SOL     OW88930   2.904  10.027   4.392  0.1882 -0.7908 -0.1953
27272SOL    HW188931   2.935  10.086   4.461  1.1748 -2.3751  0.7802
27272SOL    HW288932   2.817  10.059   4.370 -0.6016 -0.8362  2.5403
27273SOL     OW88933   3.583   2.331   4.536  0.6977 -0.0083 -0.3495
27273SOL    HW188934   3.531   2.411   4.543  1.7875  0.6760  0.1960
27273SOL    HW288935   3.642   2.334   4.611  0.1838 -1.7637  0.1598
27274SOL     OW88936  11.261   0.022   2.375  0.4852  0.3105 -0.2210
27274SOL    HW188937  11.297  -0.009   2.292  0.0001  0.8901 -0.6523
27274SOL    HW288938  11.282  -0.047   2.438 -0.5588 -0.9021 -1.1585
27275SOL     OW88939   2.967   1.200   3.778  0.3192 -0.6319 -0.1301
27275SOL    HW188940   2.881   1.233   3.803  0.2295 -1.1106  0.2061
27275SOL    HW288941   2.988   1.135   3.845  0.3960 -1.4101 -0.8877
27276SOL     OW88942   2.687   3.466   5.303 -0.3918 -0.8151  0.4336
27276SOL    HW188943   2.751   3.408   5.261 -0.4222 -0.9073  0.5152
27276SOL    HW288944   2.603   3.426   5.283 -0.5993  0.4337 -1.5087
27277SOL     OW88945   4.913   4.492   6.064 -0.0494 -0.1505  0.5094
27277SOL    HW188946   4.928   4.572   6.014 -1.1334 -1.8871 -2.8417
27277SOL    HW288947   4.844   4.446   6.017  0.4326 -3.0158  2.3564
27278SOL     OW88948  12.821   5.116  11.716 -0.9900  0.3817  0.3220
27278SOL    HW188949  12.870   5.129  11.797 -2.1647  0.0745  1.1096
27278SOL    HW288950  12.882   5.141  11.646 -0.0128  0.8025  1.3023
27279SOL     OW88951   7.957   1.675   5.625  0.3649  0.0347  0.2336
27279SOL    HW188952   7.889   1.736   5.655  2.7402  1.8974  2.2315
27279SOL    HW288953   7.999   1.645   5.705  2.4632 -0.3853 -0.9640
27280SOL     OW88954   6.953  12.936   3.694  0.4819 -0.5951 -0.1377
27280SOL    HW188955   7.046  12.949   3.673  0.2709  2.9756  0.4596
27280SOL    HW288956   6.953  12.902   3.784  1.1673 -2.2611 -0.7276
27281SOL     OW88957   1.708   9.912  11.293 -0.1562  0.2119 -0.2141
27281SOL    HW188958   1.798   9.932  11.270  0.5804 -1.0759  1.3548
27281SOL    HW288959   1.675   9.990  11.337  1.6052 -0.6105  2.9069
27282SOL     OW88960   5.851   8.673   5.092 -0.4378  0.6178  0.0631
27282SOL    HW188961   5.921   8.615   5.063 -1.7583 -0.3585 -1.3349
27282SOL    HW288962   5.841   8.653   5.186  0.7298  0.3533  0.1428
27283SOL     OW88963   4.872   8.610   5.088  0.7242 -0.0474 -0.4088
27283SOL    HW188964   4.950   8.636   5.136  2.0365 -1.7724 -1.5041
27283SOL    HW288965   4.875   8.660   5.006  0.6591 -0.0900 -0.4384
27284SOL     OW88966   6.607  11.128   3.947  0.5078 -0.0999  0.0135
27284SOL    HW188967   6.684  11.168   3.988 -0.3373  0.2535  1.2921
27284SOL    HW288968   6.545  11.199   3.937 -0.6291 -0.8353  1.3948
27285SOL     OW88969   3.609   7.788   1.142 -0.6688  0.3415 -0.3260
27285SOL    HW188970   3.571   7.701   1.136  0.2699 -0.0723 -0.4935
27285SOL    HW288971   3.639   7.808   1.053 -0.9518  0.8757 -0.3072
27286SOL     OW88972   5.142   0.266   2.559 -0.0877 -0.5960 -0.2243
27286SOL    HW188973   5.156   0.198   2.625  2.1319  0.5275  0.5774
27286SOL    HW288974   5.211   0.250   2.494  0.5965  0.9346  0.0775
27287SOL     OW88975   5.558   6.164   2.349  0.4131  0.2746  0.2957
27287SOL    HW188976   5.586   6.091   2.294 -1.4306 -0.5938  0.4414
27287SOL    HW288977   5.582   6.138   2.438 -1.8141 -1.0877  0.5995
27288SOL     OW88978   5.830   4.143   2.094  0.7938 -0.4171 -0.6179
27288SOL    HW188979   5.875   4.219   2.057  2.2494 -1.7735 -1.8112
27288SOL    HW288980   5.815   4.166   2.186  1.5275  1.1510 -0.8566
27289SOL     OW88981  12.009   2.650   8.069  0.0242 -0.1412  0.2168
27289SOL    HW188982  11.954   2.709   8.017  0.2863  0.8309  1.0074
27289SOL    HW288983  12.099   2.674   8.045  0.1297 -0.3823  0.3702
27290SOL     OW88984  11.955   3.890   2.830  0.4643  0.2062  0.5479
27290SOL    HW188985  11.865   3.883   2.798 -0.4090  0.5256  2.7529
27290SOL    HW288986  12.003   3.930   2.757 -0.4880 -2.5030 -1.7599
27291SOL     OW88987  10.128   0.348   9.170  0.2228 -0.4956 -0.0220
27291SOL    HW188988  10.159   0.418   9.228  0.6644 -2.0498  1.7126
27291SOL    HW288989  10.206   0.295   9.153 -0.3205 -1.1986 -0.3656
27292SOL     OW88990   3.959   0.521   4.365 -0.3803  0.6391 -0.0757
27292SOL    HW188991   3.981   0.582   4.435 -0.2469 -0.1778  0.6191
27292SOL    HW288992   3.982   0.567   4.284  0.6999  1.0991  0.4804
27293SOL     OW88993   8.543  11.617   5.395  0.3589 -0.9761 -0.7897
27293SOL    HW188994   8.473  11.574   5.346 -2.4004  2.1703 -0.0056
27293SOL    HW288995   8.580  11.679   5.332 -1.6108  1.4129  0.2386
27294SOL     OW88996   8.028   6.018   6.676  0.2311  0.6311  0.0139
27294SOL    HW188997   7.977   5.942   6.704  1.3085 -0.3391 -0.5875
27294SOL    HW288998   7.996   6.035   6.587 -0.7540  1.5680  0.5225
27295SOL     OW88999  11.071   9.330   2.705 -0.0275 -0.4278  0.2628
27295SOL    HW189000  11.063   9.245   2.749 -2.7980  0.3264  1.4018
27295SOL    HW289001  10.999   9.332   2.642 -1.1609  1.7125  1.5195
27296SOL     OW89002   9.745   9.643   5.537  0.3181  0.4922  0.2184
27296SOL    HW189003   9.742   9.607   5.625  0.0822 -0.6324 -0.2374
27296SOL    HW289004   9.738   9.738   5.550 -1.0772  0.2688  1.3422
27297SOL     OW89005  10.781   5.710   3.200 -0.6709  0.1184  0.1043
27297SOL    HW189006  10.845   5.659   3.151 -1.6001 -1.4431  0.4479
27297SOL    HW289007  10.750   5.775   3.137  2.1084  1.7687  0.2933
27298SOL     OW89008   1.118   2.586  11.730 -0.0313  0.6526 -0.2901
27298SOL    HW189009   1.116   2.503  11.778 -0.4574 -0.4590 -2.1244
27298SOL    HW289010   1.088   2.651  11.794 -1.5856 -0.8991  0.6577
27299SOL     OW89011  10.182   8.699   4.787  0.2696 -0.2986 -0.7156
27299SOL    HW189012  10.223   8.697   4.874  0.8239 -2.8357 -0.9288
27299SOL    HW289013  10.100   8.746   4.799  0.3411 -0.5905  1.1987
27300SOL     OW89014   2.882   2.400  12.969 -0.1610  0.0756 -0.6671
27300SOL    HW189015   2.927   2.359  13.043  0.0530  1.5402  0.0623
27300SOL    HW289016   2.933   2.376  12.892  0.2106 -0.6221 -0.2061
27301SOL     OW89017   2.199  12.563  12.966 -0.0062  0.1936  0.5180
27301SOL    HW189018   2.253  12.509  12.908  0.0184  0.4908  0.2645
27301SOL    HW289019   2.150  12.499  13.018 -2.2194 -0.1735 -1.7862
27302SOL     OW89020  11.241   4.438  11.436 -0.1446  0.2973 -0.4592
27302SOL    HW189021  11.278   4.525  11.454  2.0704 -0.6294 -0.2860
27302SOL    HW289022  11.193   4.450  11.354 -2.0100  2.2168  0.7816
27303SOL     OW89023   7.824  12.184   9.016  0.0680 -0.3736 -0.0096
27303SOL    HW189024   7.886  12.179   8.943 -0.7410 -1.0987 -0.6732
27303SOL    HW289025   7.831  12.099   9.058 -0.4011 -0.4263 -0.0356
27304SOL     OW89026   0.200   9.427   7.571  0.3546 -0.4094 -0.2732
27304SOL    HW189027   0.240   9.356   7.522  1.3823 -2.3085  3.0484
27304SOL    HW289028   0.273   9.486   7.592  0.0447  0.0435 -0.4533
27305SOL     OW89029   9.415  12.471   7.472 -0.4093 -0.7382  0.1885
27305SOL    HW189030   9.362  12.420   7.534  0.9877 -1.3552  0.9273
27305SOL    HW289031   9.480  12.515   7.527 -1.6840  2.0884 -0.4024
27306SOL     OW89032   3.890   5.181   4.265  0.0113  0.0318 -0.7861
27306SOL    HW189033   3.865   5.260   4.313 -0.5624 -0.7102  0.1836
27306SOL    HW289034   3.820   5.118   4.285  1.0252 -1.0785 -0.6078
27307SOL     OW89035   5.977   6.245  12.675 -0.0993  0.4438  0.0470
27307SOL    HW189036   6.072   6.247  12.661  0.0204 -0.1504  0.7055
27307SOL    HW289037   5.942   6.203  12.597  0.4218 -1.5754  0.8393
27308SOL     OW89038   6.305   2.117   2.217  0.6629 -0.0156 -0.2279
27308SOL    HW189039   6.258   2.144   2.139  0.7526  1.0176  0.0570
27308SOL    HW289040   6.392   2.157   2.208  0.8328 -0.2833  0.1675
27309SOL     OW89041  11.005   8.532   2.908 -0.1739  0.4373 -0.6090
27309SOL    HW189042  10.969   8.590   2.841  0.9918  0.6556 -1.0725
27309SOL    HW289043  10.929   8.487   2.944 -0.8537  0.4116 -1.9902
27310SOL     OW89044  10.201   1.478  12.374  0.2668  0.2554  0.3799
27310SOL    HW189045  10.226   1.395  12.415  0.3453 -0.0131 -0.1968
27310SOL    HW289046  10.283   1.527  12.369  0.8252 -0.7464 -1.7867
27311SOL     OW89047  10.679  10.601   4.886  0.2287  0.6003 -0.2450
27311SOL    HW189048  10.631  10.684   4.877 -0.6089  0.1641  0.1174
27311SOL    HW289049  10.622  10.536   4.845  0.6621  0.1287 -0.1020
27312SOL     OW89050   8.422  11.298   4.125  0.1868 -0.1913 -0.2000
27312SOL    HW189051   8.448  11.302   4.033 -0.0411 -2.4369 -0.4190
27312SOL    HW289052   8.383  11.384   4.142  0.1910  0.2707 -2.2106
27313SOL     OW89053   5.186   8.836   7.833 -0.0803  0.5380 -0.0203
27313SOL    HW189054   5.194   8.814   7.740  2.6348  1.7380 -0.1628
27313SOL    HW289055   5.234   8.766   7.878 -1.4789 -0.1006  0.5376
27314SOL     OW89056   6.940   1.195  10.213 -0.0372 -0.4004 -0.2635
27314SOL    HW189057   6.977   1.220  10.297 -0.7077 -0.7948  0.1579
27314SOL    HW289058   6.875   1.127  10.234  3.4942 -4.6740 -1.4878
27315SOL     OW89059   7.026   1.962   0.382 -0.3277  0.0121  0.1105
27315SOL    HW189060   6.993   1.903   0.314  0.6804 -0.5390  0.0886
27315SOL    HW289061   6.947   2.003   0.418 -1.0463 -1.3101  0.1012
27316SOL     OW89062   9.774   9.835   6.121  0.0825  0.3154  0.3163
27316SOL    HW189063   9.860   9.830   6.078  0.1550  1.9108  0.2036
27316SOL    HW289064   9.756   9.745   6.149  0.5460 -0.5727 -2.0286
27317SOL     OW89065  11.185  12.029   0.462  0.5204 -0.0311  0.6061
27317SOL    HW189066  11.213  11.972   0.534 -1.2283  0.4468  1.7298
27317SOL    HW289067  11.207  12.117   0.491  2.3933  0.0119 -0.7403
27318SOL     OW89068   5.211   0.079   0.905 -0.1325 -0.0613 -0.1807
27318SOL    HW189069   5.235   0.149   0.845 -0.3195 -1.2552 -1.7230
27318SOL    HW289070   5.294   0.055   0.948  0.1411  0.3666 -0.4649
27319SOL     OW89071  12.932  12.486   4.892 -0.1924 -0.1113  0.5453
27319SOL    HW189072  13.001  12.471   4.957 -0.2373 -0.9216  0.4141
27319SOL    HW289073  12.856  12.441   4.928 -0.8903  1.4252  1.0627
27320SOL     OW89074   6.013   8.871   8.226  0.4277 -0.2346 -0.0357
27320SOL    HW189075   5.989   8.792   8.275 -2.3160  0.2027 -0.5037
27320SOL    HW289076   5.997   8.943   8.287 -0.9587  0.1743 -0.8441
27321SOL     OW89077   6.901   2.881   0.715  0.6619  0.2503  0.3176
27321SOL    HW189078   6.995   2.883   0.696  0.4641 -1.2723 -1.0692
27321SOL    HW289079   6.895   2.899   0.808  2.5176 -1.7093  0.9088
27322SOL     OW89080  12.383   1.431   2.439 -0.0538  0.2512 -0.4608
27322SOL    HW189081  12.459   1.407   2.492 -0.9240  1.7082  1.5664
27322SOL    HW289082  12.317   1.457   2.502 -3.0146 -2.7543 -1.9906
27323SOL     OW89083   3.730   1.495   7.252 -0.0737 -0.0608  0.6672
27323SOL    HW189084   3.705   1.405   7.232  2.2679 -0.4710 -0.8501
27323SOL    HW289085   3.748   1.495   7.346 -0.3692 -1.1015  0.7300
27324SOL     OW89086   2.203   1.674   0.888 -0.7597 -0.2084 -0.0536
27324SOL    HW189087   2.156   1.678   0.971  0.1276 -1.0595  0.5242
27324SOL    HW289088   2.137   1.653   0.823 -0.9963 -2.9485  0.9602
27325SOL     OW89089   6.172   1.844   8.375  0.2632 -0.6186  0.4454
27325SOL    HW189090   6.084   1.881   8.374 -0.3132 -1.8923  0.8459
27325SOL    HW289091   6.208   1.869   8.460  0.1547 -0.3800  0.4203
27326SOL     OW89092   4.803   0.230   7.882  0.3403 -0.2622  0.0239
27326SOL    HW189093   4.870   0.286   7.921 -0.3467  1.8892 -1.7067
27326SOL    HW289094   4.847   0.189   7.807 -0.2745  1.3629 -1.2770
27327SOL     OW89095  12.114   1.746   3.534 -0.3138 -0.6677 -0.3486
27327SOL    HW189096  12.062   1.683   3.583  0.2084 -1.8587 -1.2581
27327SOL    HW289097  12.074   1.747   3.447  0.3113 -0.5378 -0.6425
27328SOL     OW89098   0.022   8.321   1.653  0.0595  0.5420  0.4507
27328SOL    HW189099   0.005   8.294   1.563  0.2673  1.5384  0.0937
27328SOL    HW289100   0.015   8.417   1.650  1.3065  0.6758  1.2320
27329SOL     OW89101  10.472  12.362  10.902 -0.0087 -0.4532  0.1430
27329SOL    HW189102  10.424  12.419  10.961  0.6074 -0.0582  0.2683
27329SOL    HW289103  10.533  12.420  10.856  0.0769 -0.8814 -0.2979
27330SOL     OW89104   5.977   3.291   3.587 -0.3386 -0.1735 -0.1208
27330SOL    HW189105   6.060   3.244   3.588 -0.8102 -1.0164  0.1034
27330SOL    HW289106   6.002   3.384   3.591  0.5658 -0.4413  0.9323
27331SOL     OW89107   7.291   3.136   1.535  0.1393 -0.2932  0.2050
27331SOL    HW189108   7.259   3.125   1.624 -1.2889  0.1267 -0.2235
27331SOL    HW289109   7.377   3.177   1.545 -1.4638  3.2045  1.3821
27332SOL     OW89110   7.557   5.966   2.052 -0.2081 -0.2403 -0.2536
27332SOL    HW189111   7.495   5.958   1.979  0.1771  0.1457 -0.6264
27332SOL    HW289112   7.583   5.876   2.072 -0.2829 -0.3417 -0.6142
27333SOL     OW89113   5.066   0.901   1.742  0.1732  0.1581  0.1419
27333SOL    HW189114   4.983   0.854   1.733  0.2970  0.2029 -1.6105
27333SOL    HW289115   5.103   0.901   1.654  1.1262  1.8206  0.5012
27334SOL     OW89116   3.128   4.622   0.895 -0.1092 -0.5686 -0.3442
27334SOL    HW189117   3.120   4.597   0.803  0.2389 -1.0561 -0.2445
27334SOL    HW289118   3.132   4.539   0.942  1.0923 -0.3379 -0.0064
27335SOL     OW89119   0.284  10.899   5.971  0.4578  0.4932 -0.4312
27335SOL    HW189120   0.238  10.938   6.046 -0.9095  0.2114 -1.0765
27335SOL    HW289121   0.227  10.827   5.943  0.3960  1.2421 -2.3731
27336SOL     OW89122  12.181   9.481  11.361 -0.0332  0.7507 -0.3949
27336SOL    HW189123  12.228   9.518  11.436  0.5507  2.0002 -1.3342
27336SOL    HW289124  12.174   9.554  11.299  0.6955 -0.5858 -2.1313
27337SOL     OW89125   1.214   0.717  11.560  0.1715 -0.7657  0.1761
27337SOL    HW189126   1.167   0.786  11.514 -0.0943 -0.1418  1.3225
27337SOL    HW289127   1.145   0.659  11.594  0.3815 -1.4717 -0.5685
27338SOL     OW89128   4.068   0.545   0.237  0.2203 -0.6997  0.1676
27338SOL    HW189129   4.035   0.474   0.291  0.4800 -1.9781 -1.2916
27338SOL    HW289130   4.162   0.547   0.253  0.0902 -0.0047  0.9429
27339SOL     OW89131   3.424   7.346   0.310  0.0857  0.0029 -0.3330
27339SOL    HW189132   3.397   7.327   0.400 -0.2232  0.7751 -0.2564
27339SOL    HW289133   3.343   7.340   0.259 -0.0253  1.1026 -0.3042
27340SOL     OW89134  10.796  11.237  11.250 -0.0015 -0.0723  0.0461
27340SOL    HW189135  10.826  11.292  11.178 -1.5400  0.8608  0.0668
27340SOL    HW289136  10.824  11.283  11.329 -0.3695  0.1337  0.0567
27341SOL     OW89137   7.167  11.069   9.770 -0.0001  0.5698  0.6119
27341SOL    HW189138   7.244  11.024   9.806 -0.6931  0.0118  1.4435
27341SOL    HW289139   7.189  11.084   9.678  0.7655 -0.3422  0.6260
27342SOL     OW89140   6.739   4.421   7.337 -0.3897 -0.0448  0.0185
27342SOL    HW189141   6.737   4.383   7.424 -2.9142  1.0207  0.5144
27342SOL    HW289142   6.811   4.483   7.339 -0.2440 -0.2447  1.2518
27343SOL     OW89143  12.540   3.205   1.467 -0.0441 -0.3592 -0.2350
27343SOL    HW189144  12.594   3.258   1.408 -0.0802  1.1420  1.0273
27343SOL    HW289145  12.598   3.182   1.539 -0.6024 -0.2633  0.2531
27344SOL     OW89146  10.615   0.443   6.830  0.3490 -0.0845  0.1022
27344SOL    HW189147  10.538   0.437   6.774 -1.8183 -0.7337  2.9381
27344SOL    HW289148  10.654   0.355   6.826  0.2146 -0.1271 -0.3721
27345SOL     OW89149   1.596  12.018   4.862  0.3293  0.1848 -0.2832
27345SOL    HW189150   1.526  11.982   4.917 -1.0403  2.7206 -0.2120
27345SOL    HW289151   1.550  12.061   4.790  1.8350  1.4564 -0.5416
27346SOL     OW89152   2.348   1.398  12.003  0.2355 -0.0952  0.6423
27346SOL    HW189153   2.262   1.371  11.972  0.6623 -0.9667  0.1937
27346SOL    HW289154   2.379   1.460  11.937  0.2715 -0.3731  0.3952
27347SOL     OW89155  12.636  10.640   7.245  0.6382 -0.2551  0.5182
27347SOL    HW189156  12.563  10.688   7.206  1.0984 -1.4127 -1.9341
27347SOL    HW289157  12.595  10.576   7.302 -0.1040  0.9086  1.3367
27348SOL     OW89158  11.875   4.003   0.766 -0.0067  0.0018 -0.0476
27348SOL    HW189159  11.870   3.907   0.768 -1.2931  0.0638  0.2467
27348SOL    HW289160  11.793   4.031   0.726 -0.7888  1.0662  2.1575
27349SOL     OW89161  12.441   0.554   7.114  0.5432  0.2421 -0.3212
27349SOL    HW189162  12.470   0.522   7.199  0.0998 -0.5620 -0.4557
27349SOL    HW289163  12.355   0.593   7.130  1.5935  2.5539  0.0643
27350SOL     OW89164   4.040   2.055   9.127 -0.1677  0.0267 -0.2135
27350SOL    HW189165   3.970   2.056   9.061  0.0827  0.7418 -0.4695
27350SOL    HW289166   4.121   2.054   9.076  0.0289 -1.3169  0.0784
27351SOL     OW89167   4.259   9.051  10.178 -0.4982 -0.4781  0.3347
27351SOL    HW189168   4.199   9.007  10.118 -0.1503  0.3375 -0.6463
27351SOL    HW289169   4.214   9.132  10.203 -0.1896 -0.2901  0.2975
27352SOL     OW89170   2.734   7.207   4.566 -0.2922 -0.8643 -0.2464
27352SOL    HW189171   2.666   7.252   4.515 -0.4278 -0.5352  0.2109
27352SOL    HW289172   2.752   7.127   4.517 -1.2017 -1.0870 -0.2501
27353SOL     OW89173   0.933   9.626   5.554  0.6793 -0.1018  0.4302
27353SOL    HW189174   0.966   9.660   5.637 -0.1066 -0.3639  0.8543
27353SOL    HW289175   0.968   9.686   5.488  2.0970 -0.4431  0.8450
27354SOL     OW89176   3.308  12.874  12.717 -0.3850  0.0172  0.1355
27354SOL    HW189177   3.335  12.965  12.729 -0.3816 -0.0295  0.4991
27354SOL    HW289178   3.384  12.832  12.675  0.3515 -0.2414  1.6481
27355SOL     OW89179  12.367   2.934   5.023 -0.0179 -0.1825 -0.0636
27355SOL    HW189180  12.361   3.005   5.087  2.5218  1.1224 -1.1065
27355SOL    HW289181  12.293   2.948   4.964 -0.5433  0.5467  0.7495
27356SOL     OW89182   5.478   3.848   8.060 -0.6181  0.2379  0.4133
27356SOL    HW189183   5.525   3.931   8.062 -0.5543  0.1977  0.5846
27356SOL    HW289184   5.511   3.799   8.136  0.8481 -0.7832 -0.8257
27357SOL     OW89185   3.087   8.691  12.688  0.3512 -0.7357 -0.2114
27357SOL    HW189186   3.019   8.733  12.635  1.1523  0.7302 -0.1126
27357SOL    HW289187   3.137   8.638  12.625 -0.5542 -1.4448 -0.3656
27358SOL     OW89188  11.202   8.168  12.933 -0.1484 -0.4317  0.1345
27358SOL    HW189189  11.113   8.157  12.900 -0.5700 -1.2284  1.4344
27358SOL    HW289190  11.205   8.258  12.966 -0.2306 -0.1617 -0.5940
27359SOL     OW89191   6.525   3.508   8.809  0.4554  0.0893  0.4230
27359SOL    HW189192   6.460   3.438   8.812 -1.6106  1.9182  1.7165
27359SOL    HW289193   6.609   3.463   8.818 -0.6993 -2.2764  0.1443
27360SOL     OW89194   4.302  12.813   2.356  0.1329  0.4064  0.4025
27360SOL    HW189195   4.222  12.848   2.396 -1.1282 -1.3659 -0.4564
27360SOL    HW289196   4.306  12.722   2.385  0.9073 -0.0165 -0.9305
27361SOL     OW89197   1.521  12.672   9.586  0.7768  0.2533  0.1536
27361SOL    HW189198   1.455  12.732   9.621 -0.1986 -1.3741  1.2302
27361SOL    HW289199   1.506  12.672   9.491 -1.7244 -1.0755  0.4761
27362SOL     OW89200   1.481   6.775   2.201  0.4513  0.1892 -0.2912
27362SOL    HW189201   1.566   6.787   2.242  1.4642 -0.7958 -1.9609
27362SOL    HW289202   1.453   6.687   2.228  0.7349 -0.1304 -1.0133
27363SOL     OW89203  10.282   9.615   2.435  0.1908 -0.1420 -0.4993
27363SOL    HW189204  10.269   9.615   2.340  0.1442  0.5860 -0.4932
27363SOL    HW289205  10.202   9.653   2.471  1.0727  1.5877 -0.2940
27364SOL     OW89206   9.910  10.259   8.575  0.8370 -0.0046  0.1053
27364SOL    HW189207   9.827  10.227   8.539  1.0178  1.8609 -2.2268
27364SOL    HW289208   9.929  10.200   8.647 -2.1033 -0.9935  0.2058
27365SOL     OW89209  12.407   7.914   4.263  0.1345 -0.0791  0.0640
27365SOL    HW189210  12.452   7.840   4.221  1.8609  1.4367 -0.8866
27365SOL    HW289211  12.315   7.887   4.265  0.7083 -2.3062 -0.0937
27366SOL     OW89212   2.228  11.182  12.302 -0.1583  1.0094  0.0138
27366SOL    HW189213   2.207  11.271  12.275 -0.3957  0.4097 -1.9476
27366SOL    HW289214   2.158  11.158  12.363  1.6935  3.2486  3.2445
27367SOL     OW89215   9.453   9.868   5.731 -0.2373 -0.0112 -0.2210
27367SOL    HW189216   9.530   9.905   5.688  1.5757 -3.0551  0.0472
27367SOL    HW289217   9.434   9.927   5.804  1.7938  0.9172 -0.3933
27368SOL     OW89218   5.834  10.289   8.239 -0.4874 -0.0542  0.5138
27368SOL    HW189219   5.918  10.287   8.194 -0.8615 -0.1840 -0.1799
27368SOL    HW289220   5.855  10.267   8.330  0.8678  3.9358  1.3664
27369SOL     OW89221   7.058   0.888   4.553  0.8770  0.6495 -0.8644
27369SOL    HW189222   7.034   0.953   4.487  1.5983  3.7534  1.7259
27369SOL    HW289223   6.979   0.874   4.604  0.5538 -1.1017 -1.7499
27370SOL     OW89224  10.575   4.415   9.049  0.3089  0.7951 -1.0071
27370SOL    HW189225  10.525   4.366   9.115  2.0434 -0.4801 -0.5679
27370SOL    HW289226  10.523   4.406   8.969 -0.5998  0.2503 -0.3890
27371SOL     OW89227   7.988   2.481   1.849  0.6418 -0.6188  0.2056
27371SOL    HW189228   7.929   2.429   1.904  1.4189 -2.0560 -0.2778
27371SOL    HW289229   7.984   2.568   1.887  0.8718 -1.4793  2.3465
27372SOL     OW89230  11.139   9.154  11.722  0.2401 -0.2175  0.2145
27372SOL    HW189231  11.207   9.124  11.782 -0.5064 -1.3237  0.5301
27372SOL    HW289232  11.064   9.097  11.739 -1.3323  1.9400  0.9698
27373SOL     OW89233   1.679   9.303   0.275 -0.1421  0.4313  0.1310
27373SOL    HW189234   1.773   9.324   0.269 -0.0359 -0.1512 -0.2955
27373SOL    HW289235   1.674   9.240   0.347 -0.2397  0.6584  0.3219
27374SOL     OW89236   2.012   1.282   3.329 -0.4039  0.1821  0.2758
27374SOL    HW189237   1.951   1.209   3.339  0.7074 -0.5661  2.0729
27374SOL    HW289238   1.959   1.351   3.289 -2.0998 -0.8572  0.5935
27375SOL     OW89239  11.255   4.936   7.114 -0.5491  0.0856  0.4976
27375SOL    HW189240  11.244   4.857   7.061  0.9871 -1.2353  2.0156
27375SOL    HW289241  11.170   4.951   7.153 -0.8760 -0.7954  0.1452
27376SOL     OW89242   4.946   4.358   5.368  0.1412  0.0083 -0.1981
27376SOL    HW189243   5.027   4.364   5.318  0.4225  0.7783  0.3378
27376SOL    HW289244   4.932   4.264   5.380  1.4514 -0.1129  0.4979
27377SOL     OW89245   3.305   9.490   7.412  0.5445 -0.5726  0.5588
27377SOL    HW189246   3.307   9.586   7.412  0.2925 -0.5535 -0.6593
27377SOL    HW289247   3.381   9.465   7.464 -0.2339  0.2769  2.1882
27378SOL     OW89248   6.085   9.811   1.460 -0.6312  0.3025 -0.3760
27378SOL    HW189249   6.059   9.736   1.408  0.4164 -0.5434  0.2829
27378SOL    HW289250   6.017   9.819   1.527 -0.9919  0.2408 -0.7312
27379SOL     OW89251   5.813   5.670   0.039  0.1622 -0.3133  0.0011
27379SOL    HW189252   5.894   5.682  -0.010  1.0703  0.3525  1.5966
27379SOL    HW289253   5.753   5.629  -0.024  1.2442  0.5294 -1.6494
27380SOL     OW89254   4.143   7.306   8.247 -0.1454 -0.1551  0.1978
27380SOL    HW189255   4.106   7.262   8.323  1.0025 -0.5746  0.5361
27380SOL    HW289256   4.148   7.237   8.180 -2.1158  0.4507 -0.6338
27381SOL     OW89257   9.195   3.107   3.639 -0.2380  0.0556  0.0399
27381SOL    HW189258   9.212   3.154   3.557  1.6404  1.3622  1.1110
27381SOL    HW289259   9.147   3.170   3.693  1.8028  0.6187  1.2759
27382SOL     OW89260   3.074   0.857   7.775  0.0961  0.4469 -0.0801
27382SOL    HW189261   3.053   0.896   7.690 -2.3297 -0.8554 -0.1519
27382SOL    HW289262   3.014   0.899   7.836 -0.8040 -1.2890  0.2777
27383SOL     OW89263  11.886   7.519  12.807  0.4005  0.4217  0.0713
27383SOL    HW189264  11.812   7.487  12.755  1.5336 -0.5951 -0.9985
27383SOL    HW289265  11.960   7.466  12.777  1.9382  2.6084 -0.2224
27384SOL     OW89266  12.144   2.560  11.106  0.4804  0.4453 -0.0460
27384SOL    HW189267  12.212   2.592  11.047  1.2164 -0.3236  0.3758
27384SOL    HW289268  12.119   2.475  11.070  1.6571 -0.5080  1.2895
27385SOL     OW89269  10.931  10.422  11.687 -0.1511 -0.3708 -0.1715
27385SOL    HW189270  11.011  10.467  11.714  2.5753 -3.9140 -1.4120
27385SOL    HW289271  10.884  10.406  11.769  0.5922  1.4544  0.6644
27386SOL     OW89272   8.974   7.998  12.831 -0.2095  0.1539 -0.0681
27386SOL    HW189273   9.053   7.997  12.777  0.9013 -0.0805  1.4958
27386SOL    HW289274   8.909   8.043  12.778  0.6744 -0.5019 -1.7867
27387SOL     OW89275   0.653   3.756  11.466 -0.1139 -0.5273 -0.0592
27387SOL    HW189276   0.708   3.823  11.506 -0.3279 -0.5184  0.2224
27387SOL    HW289277   0.700   3.732  11.386  1.9456 -2.7971  1.6797
27388SOL     OW89278   8.100   0.341  12.706  0.6111  0.2066  0.3388
27388SOL    HW189279   8.155   0.312  12.633 -0.0573 -0.3323  0.0286
27388SOL    HW289280   8.054   0.262  12.733  0.1113  0.6145  0.6922
27389SOL     OW89281   7.947   4.350   3.294 -0.2580  0.2078 -0.0708
27389SOL    HW189282   7.932   4.292   3.218 -0.6591  1.4168 -0.9460
27389SOL    HW289283   7.915   4.300   3.369  0.6233 -1.2367 -0.6101
27390SOL     OW89284  10.722   6.272   7.864 -0.5368 -0.4793 -0.7174
27390SOL    HW189285  10.712   6.237   7.953  0.1562  1.2176  0.0552
27390SOL    HW289286  10.633   6.295   7.837 -0.4175  3.0596  1.3124
27391SOL     OW89287   3.712  10.176   4.057 -0.6636  0.6503 -0.4321
27391SOL    HW189288   3.707  10.097   4.003  2.4509  0.5036 -0.6614
27391SOL    HW289289   3.764  10.237   4.005 -1.2321  2.0922  0.6332
27392SOL     OW89290  11.536   7.129   3.117  0.4219  0.0686 -0.0095
27392SOL    HW189291  11.518   7.044   3.157  0.6876  0.3425  0.7110
27392SOL    HW289292  11.457   7.149   3.066  0.0935 -0.3190  0.3390
27393SOL     OW89293   2.423  10.028   7.729 -0.5687 -0.1166  0.0206
27393SOL    HW189294   2.451   9.989   7.812 -1.9794  0.4522  0.8143
27393SOL    HW289295   2.497  10.017   7.670 -0.2696 -2.3938  0.7349
27394SOL     OW89296   6.174   0.201   9.932  0.0314  0.2321  0.3800
27394SOL    HW189297   6.102   0.193   9.995  0.1509  0.6683  0.5733
27394SOL    HW289298   6.186   0.295   9.921 -0.0236  0.1581 -0.3382
27395SOL     OW89299  10.441  11.790   5.401  0.0381 -0.2122  0.2131
27395SOL    HW189300  10.460  11.758   5.490 -0.3575 -1.0156  0.0165
27395SOL    HW289301  10.410  11.712   5.354  1.8203 -0.1825 -1.1128
27396SOL     OW89302   8.217   0.813  11.952 -0.1169 -0.1730  0.1928
27396SOL    HW189303   8.153   0.824  12.022 -0.1386  0.0886  0.1329
27396SOL    HW289304   8.301   0.838  11.992 -0.3098  1.2013 -0.2228
27397SOL     OW89305   1.866  12.766   4.844  0.8798 -0.1082  0.1388
27397SOL    HW189306   1.821  12.684   4.866  0.1866 -0.1665 -1.3349
27397SOL    HW289307   1.795  12.824   4.817  1.4246  0.8094  0.6578
27398SOL     OW89308   1.877   1.768   6.348  0.5420 -0.4730  0.2808
27398SOL    HW189309   1.894   1.776   6.254  1.3970 -0.3380  0.4372
27398SOL    HW289310   1.807   1.702   6.354 -0.7105  0.7148 -0.5346
27399SOL     OW89311   3.147  10.224   1.606  0.0003 -0.3879 -0.1122
27399SOL    HW189312   3.163  10.308   1.564 -1.3602 -0.7655 -1.4930
27399SOL    HW289313   3.100  10.246   1.686  0.3949  0.2053 -0.0345
27400SOL     OW89314   8.574  11.578   1.355  0.1606 -0.0988  0.1123
27400SOL    HW189315   8.661  11.587   1.315  1.0925 -2.2229  1.4978
27400SOL    HW289316   8.577  11.637   1.431 -0.5322  1.6472 -1.1527
27401SOL     OW89317   4.762   5.878  12.073  0.1472 -0.1921  0.5103
27401SOL    HW189318   4.839   5.823  12.089  0.7747 -0.0655 -1.7783
27401SOL    HW289319   4.688   5.817  12.076  0.8143 -1.2081 -1.8007
27402SOL     OW89320  12.517   0.091   2.674 -0.2311  0.4210 -0.3309
27402SOL    HW189321  12.446   0.026   2.672  0.0498  0.1193 -0.8864
27402SOL    HW289322  12.492   0.152   2.743 -1.6159  0.9693 -1.2695
27403SOL     OW89323   2.333   9.474   4.982 -0.0131 -0.0418  0.5403
27403SOL    HW189324   2.258   9.489   5.040 -0.8716  0.3276 -0.6221
27403SOL    HW289325   2.389   9.551   4.995  0.2491 -0.3768  1.5045
27404SOL     OW89326   8.617   3.825   5.173 -0.1870  0.0148  0.8596
27404SOL    HW189327   8.550   3.888   5.197  1.6005  3.0145 -1.2428
27404SOL    HW289328   8.623   3.832   5.077 -0.0126 -3.6393  0.4470
27405SOL     OW89329   3.969   8.212   9.887  0.9103  0.6245 -0.0359
27405SOL    HW189330   4.012   8.200   9.972 -0.6383 -0.3768  0.6334
27405SOL    HW289331   4.000   8.139   9.834  0.0389 -0.1285  0.4649
27406SOL     OW89332  10.219   1.202  12.412 -0.2364 -0.2134  0.2111
27406SOL    HW189333  10.177   1.140  12.352 -1.7685  0.6989  0.2752
27406SOL    HW289334  10.156   1.214  12.483 -0.9181  2.8170 -0.7418
27407SOL     OW89335  12.018   9.109   6.514 -0.2106  0.2598 -0.2890
27407SOL    HW189336  12.053   9.084   6.428 -0.3927  1.2697 -0.6688
27407SOL    HW289337  12.066   9.054   6.576  1.1971  0.7453 -0.8987
27408SOL     OW89338   3.228   2.386   4.333 -0.1663 -0.1446  0.1578
27408SOL    HW189339   3.199   2.363   4.421 -0.6680 -1.1084 -0.2380
27408SOL    HW289340   3.240   2.481   4.336  1.6506 -0.3577  1.7687
27409SOL     OW89341   9.026   7.155   7.711  0.3623  0.2841  0.2546
27409SOL    HW189342   9.043   7.159   7.617  2.2462  0.2741  0.5564
27409SOL    HW289343   9.103   7.195   7.751  0.4771 -1.3688  1.8504
27410SOL     OW89344   5.859   2.316   5.092 -0.6469 -0.8470 -0.0281
27410SOL    HW189345   5.792   2.258   5.126 -1.9050  0.1357 -0.7527
27410SOL    HW289346   5.874   2.285   5.002 -0.3168 -0.8948  0.0412
27411SOL     OW89347   5.337   2.141   7.507  0.3167 -0.1300  0.2500
27411SOL    HW189348   5.352   2.152   7.601  2.1931 -0.8311  0.0772
27411SOL    HW289349   5.342   2.229   7.472 -2.9432  0.5162  1.0375
27412SOL     OW89350   9.085   1.199   4.767 -0.0541  0.4772  0.0152
27412SOL    HW189351   9.095   1.246   4.685 -1.3001 -0.8338 -0.9534
27412SOL    HW289352   9.086   1.107   4.742  1.7421 -0.0588  1.7690
27413SOL     OW89353   3.294   2.878   9.645 -0.1783  0.0057 -0.0218
27413SOL    HW189354   3.219   2.833   9.683 -0.5525  0.6994  0.0623
27413SOL    HW289355   3.369   2.825   9.672 -0.6470 -0.8802 -0.3818
27414SOL     OW89356   2.760  12.925   8.032 -0.3795  0.2280 -0.3823
27414SOL    HW189357   2.841  12.961   8.069 -0.1600 -0.1776 -0.4560
27414SOL    HW289358   2.695  12.935   8.101 -0.5074  1.4027 -0.6462
27415SOL     OW89359  12.612  11.639  12.244 -0.3495  0.4362 -0.6489
27415SOL    HW189360  12.552  11.582  12.196 -1.4626  1.3269 -0.3544
27415SOL    HW289361  12.699  11.602  12.226 -0.9135 -0.5040 -1.6048
27416SOL     OW89362   3.788   1.651   7.895  0.2781 -0.0432 -0.1931
27416SOL    HW189363   3.853   1.655   7.825 -1.4019  1.3841 -1.7692
27416SOL    HW289364   3.750   1.739   7.899 -0.8952 -0.5583  1.3359
27417SOL     OW89365   0.947  10.895  11.645 -0.7043  0.4278 -0.5110
27417SOL    HW189366   0.894  10.934  11.715 -0.8976  0.3394 -0.6070
27417SOL    HW289367   1.021  10.855  11.690 -0.9291  0.2039 -0.3403
27418SOL     OW89368  11.702   3.197   6.314  0.2782  0.3061  0.1291
27418SOL    HW189369  11.616   3.162   6.291  0.1807  1.4111 -1.3709
27418SOL    HW289370  11.711   3.180   6.407 -1.7020  0.4232  0.3894
27419SOL     OW89371   9.287  10.309   9.227 -0.2254 -0.0206 -0.6846
27419SOL    HW189372   9.278  10.391   9.275 -3.6487  0.6888 -2.2394
27419SOL    HW289373   9.347  10.329   9.155  0.6905  0.4375  0.1883
27420SOL     OW89374   5.601   9.827   3.384 -0.0280  1.0085 -0.7591
27420SOL    HW189375   5.543   9.857   3.454  0.4581  0.7975 -0.2573
27420SOL    HW289376   5.558   9.750   3.347  0.3091  0.3722  0.1409
27421SOL     OW89377   8.636  12.840  10.150  0.0173  0.6224 -0.0768
27421SOL    HW189378   8.726  12.853  10.181  0.1347 -1.9100  0.8452
27421SOL    HW289379   8.646  12.811  10.059  0.1567  0.0015  0.1356
27422SOL     OW89380   8.556   3.768   8.288 -0.4373 -0.2223  0.1581
27422SOL    HW189381   8.628   3.831   8.277 -1.5863  0.8335 -1.8412
27422SOL    HW289382   8.502   3.779   8.210 -1.5868 -2.5776  0.5284
27423SOL     OW89383  12.890   5.500  12.264  0.1814 -0.0709  0.4243
27423SOL    HW189384  12.795   5.491  12.256  0.0664 -0.9439  2.3094
27423SOL    HW289385  12.903   5.545  12.348  1.4076  1.5968 -0.5850
27424SOL     OW89386   9.680   0.084   3.297 -0.2018 -0.6849  0.7762
27424SOL    HW189387   9.607   0.146   3.299  0.3678  0.6231 -4.3787
27424SOL    HW289388   9.638  -0.002   3.292 -1.6366  0.0598 -2.4569
27425SOL     OW89389   0.393   2.018   5.827 -0.3858  0.6187 -0.1534
27425SOL    HW189390   0.486   2.008   5.808 -0.3599  0.9318 -0.1920
27425SOL    HW289391   0.376   1.956   5.897 -0.4704 -0.5458 -1.1596
27426SOL     OW89392  11.575   5.557  11.188 -0.2153  0.2714 -0.2596
27426SOL    HW189393  11.599   5.486  11.247 -2.3943  1.4093  2.2235
27426SOL    HW289394  11.615   5.635  11.226 -0.3116  0.8216 -1.2473
27427SOL     OW89395   7.582   4.678   0.510  0.0541  0.0598 -0.1631
27427SOL    HW189396   7.523   4.717   0.446  0.5898  0.3903 -0.4526
27427SOL    HW289397   7.651   4.638   0.458 -0.4094 -1.1820  0.1259
27428SOL     OW89398  12.636  12.846   5.511 -0.8202  0.3365 -0.1718
27428SOL    HW189399  12.636  12.907   5.585 -2.0183 -0.2779  0.3660
27428SOL    HW289400  12.718  12.864   5.465  0.4643  0.0251  1.8925
27429SOL     OW89401  10.031   5.242   2.854 -0.0406 -0.1285  0.6698
27429SOL    HW189402   9.950   5.265   2.901 -1.9231  1.1739 -2.7954
27429SOL    HW289403  10.008   5.165   2.803  1.0810 -0.0461  0.0083
27430SOL     OW89404   0.319   8.810   9.810 -0.2252  0.6052 -0.3113
27430SOL    HW189405   0.266   8.830   9.886 -1.0865 -0.8059 -0.5039
27430SOL    HW289406   0.407   8.794   9.845 -0.5083  0.4420  0.3278
27431SOL     OW89407   4.320   9.055   8.974 -0.8517 -0.3828  0.1413
27431SOL    HW189408   4.233   9.016   8.986 -0.8876 -0.9849 -1.7206
27431SOL    HW289409   4.375   8.981   8.945 -0.4244  0.5234 -1.4719
27432SOL     OW89410  10.402  12.262   3.067  0.0785  0.6624 -0.2621
27432SOL    HW189411  10.418  12.171   3.091 -0.5190  0.2981 -1.2280
27432SOL    HW289412  10.487  12.305   3.079  1.2275 -0.7022 -2.8450
27433SOL     OW89413   9.527   7.936   9.905  0.8289 -0.0981 -0.4590
27433SOL    HW189414   9.439   7.937   9.941  1.6917 -0.0159  1.7869
27433SOL    HW289415   9.517   7.893   9.820 -1.1607 -1.2631  0.2917
27434SOL     OW89416   8.104   8.871   1.070 -0.4875 -0.4623 -0.2697
27434SOL    HW189417   8.194   8.863   1.038 -0.9800 -2.9998 -1.2735
27434SOL    HW289418   8.114   8.889   1.164  1.0481  0.0692 -0.5054
27435SOL     OW89419   6.327  12.604  11.709 -0.3436  0.0776 -0.1224
27435SOL    HW189420   6.293  12.567  11.627 -0.1454  1.7210 -0.9751
27435SOL    HW289421   6.351  12.527  11.761 -1.7103 -1.0322 -1.0622
27436SOL     OW89422   0.235   6.955   8.657 -0.2511  0.3779 -0.0761
27436SOL    HW189423   0.149   6.975   8.695 -0.4165 -0.4269  0.0016
27436SOL    HW289424   0.262   6.875   8.702  1.4891  1.7122  1.4315
27437SOL     OW89425   2.332   5.782   9.965  0.4302 -0.0109  0.0302
27437SOL    HW189426   2.329   5.686   9.966 -1.4583 -0.0034  0.2306
27437SOL    HW289427   2.242   5.808   9.943  1.1589  1.7225 -1.1029
27438SOL     OW89428   3.184   6.115   3.841 -0.2387  0.9821 -0.0972
27438SOL    HW189429   3.222   6.042   3.792  1.9825  2.3684 -0.5718
27438SOL    HW289430   3.119   6.074   3.897 -1.0658 -1.0082 -2.3093
27439SOL     OW89431   3.958   8.752   3.063  0.1463 -0.0518 -0.4806
27439SOL    HW189432   4.000   8.763   2.977 -0.2374 -1.4805 -0.8925
27439SOL    HW289433   3.908   8.671   3.054 -2.3585  1.3381  0.1525
27440SOL     OW89434   1.307   6.973  10.414  0.4097 -0.6154 -0.3976
27440SOL    HW189435   1.390   7.019  10.404  0.1813 -0.3506 -1.1992
27440SOL    HW289436   1.292   6.969  10.508  1.2134 -0.4567 -0.2596
27441SOL     OW89437   9.421   2.100   9.068  0.0767 -0.1006  0.6512
27441SOL    HW189438   9.502   2.148   9.056 -0.5277  0.5601 -1.0833
27441SOL    HW289439   9.443   2.009   9.051  0.0945  0.3175 -2.0293
27442SOL     OW89440  10.882  11.743  10.361  0.0027 -0.1650  0.2290
27442SOL    HW189441  10.802  11.769  10.406  1.8568  2.9326  2.0467
27442SOL    HW289442  10.885  11.798  10.283 -0.9995 -2.4019 -1.4905
27443SOL     OW89443  10.922   9.062   7.404 -0.3339  0.9886  0.9385
27443SOL    HW189444  11.009   9.095   7.430 -0.1475  0.7469  0.6165
27443SOL    HW289445  10.862   9.104   7.466  0.1918 -0.2443  2.3328
27444SOL     OW89446   0.693   6.052   0.317  0.3393 -0.4375  0.4543
27444SOL    HW189447   0.619   6.081   0.370 -0.1313  0.9102 -0.8768
27444SOL    HW289448   0.655   5.989   0.256  0.8293 -1.7785  1.4775
27445SOL     OW89449   7.261   4.061   5.035 -0.2406 -0.2407  0.8537
27445SOL    HW189450   7.182   4.041   5.086 -1.1605 -0.6775 -0.6775
27445SOL    HW289451   7.329   4.005   5.073 -1.2275 -1.5416  0.7812
27446SOL     OW89452  12.184   7.101   6.327  0.1269 -0.4048  0.1685
27446SOL    HW189453  12.170   7.192   6.354  1.7776  0.5994 -2.0345
27446SOL    HW289454  12.106   7.080   6.274  0.3324  0.2283 -0.4116
27447SOL     OW89455   1.027   2.086   6.432  0.1285  0.0875  0.0596
27447SOL    HW189456   1.070   2.062   6.514 -1.9659 -1.1167  0.9091
27447SOL    HW289457   1.055   2.175   6.415 -0.7175  1.0601  3.1040
27448SOL     OW89458   9.481   5.154   9.471 -0.2959  0.1704 -0.0913
27448SOL    HW189459   9.414   5.197   9.417 -0.6489  0.3576  0.4869
27448SOL    HW289460   9.508   5.222   9.533 -0.2305 -0.1847  0.2707
27449SOL     OW89461   4.818   7.316   7.813  0.0067 -0.4082  0.3418
27449SOL    HW189462   4.754   7.324   7.741  1.7675  1.8590 -1.1309
27449SOL    HW289463   4.858   7.403   7.818  1.8198 -1.2868  2.3187
27450SOL     OW89464   1.909   2.258   8.833 -0.3174 -0.1331  0.1111
27450SOL    HW189465   1.820   2.294   8.835  0.1972  1.1931  0.3077
27450SOL    HW289466   1.909   2.198   8.758 -0.7356  1.7186 -1.4764
27451SOL     OW89467  12.917  12.288   5.520 -0.5331  0.3462 -0.1493
27451SOL    HW189468  12.833  12.282   5.565  0.6079  0.1898  2.1225
27451SOL    HW289469  12.961  12.361   5.562  0.5268  0.3413 -1.2048
27452SOL     OW89470  10.651   8.840   7.370 -0.6773  0.2274 -0.2034
27452SOL    HW189471  10.725   8.780   7.369 -0.6871  0.1951  0.8188
27452SOL    HW289472  10.592   8.806   7.437 -1.4690  0.4443 -0.7695
27453SOL     OW89473   0.983   1.100   0.685  0.0411  0.3206  0.1375
27453SOL    HW189474   0.963   1.167   0.750  1.1059  0.9712 -0.1902
27453SOL    HW289475   1.078   1.090   0.689  0.0148 -0.3361 -0.6414
27454SOL     OW89476  12.664   2.296   3.856  0.3393  0.2957  0.2663
27454SOL    HW189477  12.705   2.372   3.815 -0.1876 -0.0971 -1.0700
27454SOL    HW289478  12.663   2.315   3.949 -0.2564  2.1627 -0.0902
27455SOL     OW89479   8.947   7.767   9.079  0.5867  0.3670  0.1070
27455SOL    HW189480   8.961   7.733   9.167  0.3309 -0.3070 -0.1133
27455SOL    HW289481   8.912   7.694   9.029  2.1862  0.2792 -0.9676
27456SOL     OW89482  10.337  12.218   5.651 -0.0002  0.4566 -0.1080
27456SOL    HW189483  10.285  12.297   5.665 -0.3770  0.1298  0.3872
27456SOL    HW289484  10.297  12.175   5.575  0.2654  0.7884 -0.4373
27457SOL     OW89485  12.463   5.766   5.814  0.0140  0.5809  0.4482
27457SOL    HW189486  12.533   5.709   5.782  0.4293  0.1832  1.9902
27457SOL    HW289487  12.465   5.756   5.909 -0.1986  2.8298  0.7485
27458SOL     OW89488   8.348  11.489   5.214 -0.1755  0.3971 -0.7170
27458SOL    HW189489   8.406  11.480   5.139  0.5188  1.5667 -0.3461
27458SOL    HW289490   8.262  11.510   5.176 -0.0109  0.1979 -1.2057
27459SOL     OW89491   4.270   9.152   9.295  0.3640 -0.2333  0.5653
27459SOL    HW189492   4.363   9.165   9.277  0.7267 -0.5207  2.0822
27459SOL    HW289493   4.232   9.123   9.212  1.1876  2.0215 -0.6738
27460SOL     OW89494   9.422  11.748   9.431  0.5705  0.2342 -0.3881
27460SOL    HW189495   9.389  11.838   9.426 -1.4643 -0.4947 -0.6657
27460SOL    HW289496   9.513  11.758   9.460 -0.0777  2.2853  1.1686
27461SOL     OW89497   1.127   7.082  10.910  0.0586 -0.4104  0.1174
27461SOL    HW189498   1.208   7.048  10.871  0.4961  0.0140  0.6417
27461SOL    HW289499   1.142   7.176  10.919 -0.5987 -0.2864 -0.0126
27462SOL     OW89500   1.531  11.707  12.868 -0.5615  0.0357 -0.9297
27462SOL    HW189501   1.542  11.641  12.800 -0.0761 -0.0930 -0.7308
27462SOL    HW289502   1.494  11.783  12.822  0.9115  0.3802 -1.5839
27463SOL     OW89503   7.766   4.228   1.121 -0.1567 -0.3683 -0.0607
27463SOL    HW189504   7.769   4.138   1.153  0.0806 -0.3076  0.0952
27463SOL    HW289505   7.782   4.220   1.027 -0.8412 -0.5450 -0.1681
27464SOL     OW89506  11.380   9.960   3.212  0.3930 -0.2798  0.4183
27464SOL    HW189507  11.398   9.867   3.196 -0.0023 -0.6826  2.1501
27464SOL    HW289508  11.286   9.970   3.192  0.4133 -0.2667  0.3274
27465SOL     OW89509   2.890   3.204   0.691  0.2058  0.2787 -0.2107
27465SOL    HW189510   2.820   3.141   0.673  0.8430 -0.4755 -0.1104
27465SOL    HW289511   2.963   3.150   0.720  1.2574  0.9239 -1.5814
27466SOL     OW89512   9.984   3.058   8.479 -0.5556 -0.1113  0.6604
27466SOL    HW189513  10.017   3.122   8.542  0.5180  1.2156 -1.1550
27466SOL    HW289514   9.893   3.084   8.465 -1.2829 -1.3528  2.7315
27467SOL     OW89515   6.641   8.043   8.098  0.1982  0.5461 -0.4783
27467SOL    HW189516   6.696   8.072   8.172  0.4959 -0.1122 -0.4338
27467SOL    HW289517   6.552   8.044   8.133  0.2812  0.7440 -0.2679
27468SOL     OW89518   0.961  11.884   4.400 -0.0029  0.5722 -0.6217
27468SOL    HW189519   0.886  11.847   4.446 -0.2488  0.0549 -1.4288
27468SOL    HW289520   0.933  11.892   4.309  0.5181  1.4735 -0.7175
27469SOL     OW89521   3.147   0.572   4.969 -0.3282 -1.3611 -0.2402
27469SOL    HW189522   3.065   0.587   5.017 -0.3333  2.1018 -1.0282
27469SOL    HW289523   3.196   0.653   4.981  2.3921 -2.7761 -1.0396
27470SOL     OW89524   1.999   6.731   2.926 -0.1163  0.3309 -0.2360
27470SOL    HW189525   2.073   6.674   2.946  0.2308  0.6433 -0.6142
27470SOL    HW289526   1.939   6.718   3.000  1.9071  2.7632  2.0714
27471SOL     OW89527   5.074  10.035   8.344 -0.4652 -0.1836 -0.1046
27471SOL    HW189528   5.131   9.993   8.408  1.4856  1.3825 -0.7107
27471SOL    HW289529   5.123  10.030   8.261 -1.9550 -0.2401 -1.0197
27472SOL     OW89530   4.030   3.917   8.178  0.7694  0.5049 -0.2365
27472SOL    HW189531   4.081   3.856   8.232 -2.1099 -1.6329  0.2969
27472SOL    HW289532   4.026   3.874   8.093 -1.3471 -0.1965  0.1653
27473SOL     OW89533   5.236   6.169   2.715 -0.3140 -0.2691  0.1563
27473SOL    HW189534   5.190   6.179   2.632 -0.2159  0.7048  0.2055
27473SOL    HW289535   5.219   6.250   2.762  0.3996 -0.4215  0.7002
27474SOL     OW89536  10.347   5.566  11.600  0.0069  0.1759 -0.3324
27474SOL    HW189537  10.400   5.574  11.679 -0.0890 -0.6240 -0.1754
27474SOL    HW289538  10.258   5.589  11.628  0.1383  0.8441 -0.4393
27475SOL     OW89539   0.759   3.923   9.222  0.0111  1.0360 -0.0404
27475SOL    HW189540   0.852   3.928   9.244  0.6060 -1.4782 -1.6295
27475SOL    HW289541   0.715   3.904   9.305  1.3288 -0.8886  0.2816
27476SOL     OW89542   5.485   6.830   0.658 -0.3373 -0.3769  0.0235
27476SOL    HW189543   5.534   6.781   0.592 -0.8400  1.2217 -1.6142
27476SOL    HW289544   5.514   6.793   0.742  2.6050 -0.4493 -0.9213
27477SOL     OW89545   3.305   8.002  12.351  0.4759 -0.0502 -0.1328
27477SOL    HW189546   3.325   7.953  12.271  0.2856 -0.8946  0.3284
27477SOL    HW289547   3.381   7.991  12.407  0.3528  0.0164  0.0502
27478SOL     OW89548   8.899   9.655   8.194  0.2801 -0.7097  0.1609
27478SOL    HW189549   8.890   9.736   8.144  1.0626 -2.1983 -2.5728
27478SOL    HW289550   8.968   9.673   8.258 -2.2559  1.9575  2.4158
27479SOL     OW89551   7.933  10.188   6.212 -0.6394  0.2794  0.5596
27479SOL    HW189552   7.919  10.195   6.306 -3.7456  0.0540  0.2288
27479SOL    HW289553   7.947  10.095   6.197 -1.0458  0.1892  0.7205
27480SOL     OW89554  10.444   2.300   7.583  0.1711  0.5156 -0.0319
27480SOL    HW189555  10.497   2.227   7.553  0.5977  0.1507  1.5149
27480SOL    HW289556  10.495   2.339   7.654 -0.5747  1.6049 -0.0735
27481SOL     OW89557   3.903   4.989   3.239  0.4040 -0.0839  0.7917
27481SOL    HW189558   3.881   5.073   3.280 -0.1245 -0.9745  2.4103
27481SOL    HW289559   3.961   4.947   3.303  0.6266 -0.9731  0.0132
27482SOL     OW89560   0.279   4.072  10.678  0.3078  0.2954  0.2123
27482SOL    HW189561   0.292   3.983  10.710  0.0231  1.0415  2.5638
27482SOL    HW289562   0.361   4.094  10.633 -0.5799 -2.0181 -2.8716
27483SOL     OW89563   2.524   5.761   6.872  0.4099 -0.1782 -0.1298
27483SOL    HW189564   2.608   5.718   6.890  0.0409 -0.5400  0.8028
27483SOL    HW289565   2.513   5.824   6.943 -0.1631 -0.2240 -0.1708
27484SOL     OW89566   5.448  10.339   5.397  0.4570 -0.0159 -0.4392
27484SOL    HW189567   5.464  10.391   5.318  2.5371 -1.0090 -0.7381
27484SOL    HW289568   5.398  10.397   5.454  0.3207  1.3155 -1.8346
27485SOL     OW89569  10.202   5.203  11.670 -0.5032 -0.4164  0.4674
27485SOL    HW189570  10.144   5.247  11.732 -0.5186 -0.6300  0.6061
27485SOL    HW289571  10.289   5.212  11.708 -0.1228  1.7250 -0.7521
27486SOL     OW89572   7.379   6.002   4.421 -0.1225  0.3868 -0.3708
27486SOL    HW189573   7.449   5.951   4.461 -0.8639 -0.0634  0.4006
27486SOL    HW289574   7.327   6.033   4.495 -1.7778 -0.8199 -0.9604
27487SOL     OW89575   4.567  12.496   2.341  0.0654 -0.2887 -0.2089
27487SOL    HW189576   4.629  12.509   2.413  0.6333 -1.2736 -0.4977
27487SOL    HW289577   4.606  12.543   2.267 -0.6714  0.9873  0.1692
27488SOL     OW89578   2.842   3.401   8.743  0.4444  0.4043  0.6957
27488SOL    HW189579   2.870   3.357   8.663  0.5096 -0.8123  1.3634
27488SOL    HW289580   2.750   3.378   8.752  0.1930  1.3024  0.4913
27489SOL     OW89581   0.824   0.878   2.019  0.0013  0.0534  0.6803
27489SOL    HW189582   0.823   0.861   1.925  0.1747 -0.8484  0.8325
27489SOL    HW289583   0.736   0.854   2.049  0.2217 -0.5410  0.8827
27490SOL     OW89584   1.321   1.412  11.702 -0.6681  0.2386  0.4752
27490SOL    HW189585   1.369   1.401  11.620 -0.1418  0.7785  0.7109
27490SOL    HW289586   1.261   1.337  11.704  0.2902 -0.5537  0.2713
27491SOL     OW89587   9.524  11.427   2.248 -0.1128  0.1782 -0.3250
27491SOL    HW189588   9.488  11.383   2.171 -1.3585  1.4450 -0.5067
27491SOL    HW289589   9.463  11.406   2.318  0.4059 -0.0391  0.0695
27492SOL     OW89590   0.440  10.573   9.797 -0.6767 -0.5004  0.4516
27492SOL    HW189591   0.420  10.581   9.890 -1.1132 -1.8811  0.4933
27492SOL    HW289592   0.370  10.621   9.753  0.0264  0.9440  0.8352
27493SOL     OW89593   3.893  12.587   0.977  0.1168  0.2373 -0.0851
27493SOL    HW189594   3.828  12.625   1.036  0.0485  1.0333 -0.6568
27493SOL    HW289595   3.945  12.662   0.948  1.4175 -0.3949  0.5076
27494SOL     OW89596  10.988   0.051   7.922  0.4391 -0.2065  0.1681
27494SOL    HW189597  10.928   0.081   7.853 -0.6013 -0.9006  0.7425
27494SOL    HW289598  11.042  -0.015   7.879 -0.1610 -0.5919 -0.0060
27495SOL     OW89599   6.197   4.591   4.110  0.1438  0.2393 -0.2736
27495SOL    HW189600   6.102   4.579   4.117  0.2757 -0.6443  0.1356
27495SOL    HW289601   6.234   4.513   4.150  1.0382 -0.4806 -2.3997
27496SOL     OW89602   1.050   8.205   2.874  0.6744 -0.1160 -0.0253
27496SOL    HW189603   1.032   8.136   2.938  0.7256  0.5926  0.7726
27496SOL    HW289604   1.009   8.283   2.911  0.8404  0.3387 -0.7865
27497SOL     OW89605   7.067   0.887   3.619  0.1381 -0.7508  0.0716
27497SOL    HW189606   6.975   0.883   3.646 -0.4958  2.9974 -0.9703
27497SOL    HW289607   7.068   0.851   3.531 -0.8337  1.1190 -0.7536
27498SOL     OW89608  11.837   6.785   6.738  0.6029 -0.4529 -0.1228
27498SOL    HW189609  11.794   6.710   6.698 -1.7488  0.2230  0.9622
27498SOL    HW289610  11.860   6.841   6.665 -0.6451 -0.7267 -0.7483
27499SOL     OW89611   7.766   7.374  12.071  0.7029  0.3266  0.4700
27499SOL    HW189612   7.810   7.364  12.155  1.0613 -1.8869  0.0884
27499SOL    HW289613   7.788   7.294  12.023 -2.3031 -0.1044 -0.4043
27500SOL     OW89614   3.399  12.903   9.947 -0.0515 -0.6351  0.3489
27500SOL    HW189615   3.391  12.989   9.905 -0.3857 -1.0922 -0.5452
27500SOL    HW289616   3.372  12.919  10.038  0.6841  0.3651  0.4143
27501SOL     OW89617  10.112   6.983   9.495 -0.0609 -0.5539 -0.2197
27501SOL    HW189618  10.145   6.900   9.461  1.5054  0.1809 -0.5561
27501SOL    HW289619  10.063   7.021   9.422  0.9256 -0.2721 -0.7508
27502SOL     OW89620   2.962   2.600   7.629 -0.1459  0.0619  0.3031
27502SOL    HW189621   2.928   2.671   7.575  1.6974 -1.2348 -2.8058
27502SOL    HW289622   3.053   2.627   7.648  0.7903 -1.6492 -1.4668
27503SOL     OW89623   5.695   9.135   5.020  0.3180 -0.8459  0.9116
27503SOL    HW189624   5.746   9.054   5.017  0.4563 -0.7274 -1.0885
27503SOL    HW289625   5.677   9.156   4.928 -4.6424 -1.6828  1.4231
27504SOL     OW89626  11.407   7.105   5.762 -0.2729 -0.0205 -0.7553
27504SOL    HW189627  11.361   7.134   5.683  1.2253  1.0264 -1.2828
27504SOL    HW289628  11.481   7.054   5.729  1.0528  1.4186 -0.1228
27505SOL     OW89629  11.830   1.385   3.558  0.2125  0.3948  0.0084
27505SOL    HW189630  11.872   1.350   3.637 -2.1702  0.8401  1.5745
27505SOL    HW289631  11.757   1.326   3.541 -0.5296  1.4504 -0.6349
27506SOL     OW89632  12.209  10.390   8.647 -0.1722 -0.1490  0.3882
27506SOL    HW189633  12.230  10.372   8.556  0.0120 -2.1786  0.7854
27506SOL    HW289634  12.276  10.342   8.697 -1.1075 -0.2481  1.5916
27507SOL     OW89635  12.659   2.026   5.056  0.3832  0.3806  0.2403
27507SOL    HW189636  12.674   1.986   4.970  0.5749  0.2576  0.3308
27507SOL    HW289637  12.682   2.118   5.044  0.6613  0.3103  0.2276
27508SOL     OW89638   0.761   5.336   1.039  0.2099  0.0288 -0.6417
27508SOL    HW189639   0.697   5.270   1.013 -2.0663  1.5824  0.6620
27508SOL    HW289640   0.803   5.299   1.117 -0.4166 -0.2582 -0.4326
27509SOL     OW89641   2.038   9.003   9.868 -0.3027 -0.4030  0.0193
27509SOL    HW189642   2.095   8.973   9.939  3.4465 -0.4667 -2.7070
27509SOL    HW289643   1.969   8.938   9.864  0.2071 -1.2363  2.5495
27510SOL     OW89644   1.105   6.235   3.142  0.1008 -0.3885  0.2267
27510SOL    HW189645   1.193   6.203   3.125 -0.4558 -1.8355 -0.0004
27510SOL    HW289646   1.059   6.161   3.183 -1.3133 -0.0090 -0.6011
27511SOL     OW89647   3.778   1.736   2.630 -0.6453 -0.3064 -0.7973
27511SOL    HW189648   3.775   1.644   2.657 -0.8378  0.5080  2.3867
27511SOL    HW289649   3.864   1.747   2.589  0.8445 -1.2163  1.8902
27512SOL     OW89650   2.920   6.954   1.231  0.2278  0.1090 -0.3638
27512SOL    HW189651   2.887   6.875   1.275 -1.2508  1.3627  0.8752
27512SOL    HW289652   2.969   6.920   1.156  0.8075 -2.0254  0.8920
27513SOL     OW89653   0.029   0.210   4.291  0.0031 -0.2296 -0.3366
27513SOL    HW189654  -0.056   0.184   4.256 -1.4620  2.7351  0.6348
27513SOL    HW289655   0.059   0.134   4.340 -1.2826 -1.9171 -1.9889
27514SOL     OW89656   2.793   0.928   5.898  0.4177 -0.3508  0.3619
27514SOL    HW189657   2.711   0.889   5.928 -0.3197  1.3478  0.6926
27514SOL    HW289658   2.825   0.868   5.831 -0.8241 -1.3148  0.5950
27515SOL     OW89659  12.325   3.917  10.618 -0.5185 -0.2922  0.1942
27515SOL    HW189660  12.352   3.962  10.538  0.9810  0.9698  1.3474
27515SOL    HW289661  12.289   3.986  10.673 -0.9838 -1.0396  0.8474
27516SOL     OW89662   1.095   0.191  11.335 -0.6115  0.4372 -0.0626
27516SOL    HW189663   1.163   0.187  11.267  0.9369  1.5691  1.3458
27516SOL    HW289664   1.077   0.099  11.355  1.3715  0.0745  0.3074
27517SOL     OW89665  11.303   2.156   6.229 -0.0180  0.3840  0.6924
27517SOL    HW189666  11.307   2.187   6.320  1.4927 -0.7856  1.0653
27517SOL    HW289667  11.308   2.061   6.236 -0.2333  0.2554 -0.6257
27518SOL     OW89668   5.071   2.937  10.327  0.4315  0.5458 -0.3667
27518SOL    HW189669   5.092   2.938  10.420 -0.2616 -1.9330 -0.1180
27518SOL    HW289670   5.122   3.010  10.290  1.3853  1.0431  1.7830
27519SOL     OW89671  12.051   3.478  12.778  0.7172 -0.0055  0.0943
27519SOL    HW189672  12.056   3.562  12.734  1.3193  0.0591  0.2841
27519SOL    HW289673  11.961   3.473  12.811  0.3744  0.1155 -0.7893
27520SOL     OW89674   9.665   7.295  11.920  0.6836  0.4017  0.7534
27520SOL    HW189675   9.591   7.334  11.967  0.3358  1.1639 -0.3957
27520SOL    HW289676   9.699   7.229  11.981 -0.4569  0.5665  1.6139
27521SOL     OW89677   8.510   6.435   8.416  0.2890  0.6403  0.8195
27521SOL    HW189678   8.481   6.441   8.325 -0.4815 -0.8680  0.9278
27521SOL    HW289679   8.455   6.366   8.453  2.4115 -0.6580  1.7129
27522SOL     OW89680   4.370   9.845   2.467 -0.1019 -0.0126 -0.0126
27522SOL    HW189681   4.385   9.793   2.546  1.0384 -1.4787 -1.1538
27522SOL    HW289682   4.398   9.934   2.491  2.3629 -0.8831  0.5971
27523SOL     OW89683   7.147   6.329  11.025  0.8109  0.1094  1.0615
27523SOL    HW189684   7.099   6.342  10.944  1.1164  0.1458  0.8837
27523SOL    HW289685   7.087   6.280  11.081  0.9291 -0.7267  0.4799
27524SOL     OW89686  10.265   1.549   4.792  0.0709  0.3466 -0.5181
27524SOL    HW189687  10.228   1.470   4.753 -1.4129  2.0578 -2.8583
27524SOL    HW289688  10.337   1.573   4.734  1.6221 -0.1094  1.1191
27525SOL     OW89689   9.232  12.163   4.489  0.1446  0.0487  0.0773
27525SOL    HW189690   9.275  12.249   4.495  1.0526 -0.4153  0.3802
27525SOL    HW289691   9.299  12.101   4.518 -0.3092 -0.8186 -0.6775
27526SOL     OW89692   2.991   9.957   3.156  0.4395  0.5748 -0.0452
27526SOL    HW189693   2.908   9.961   3.107  0.6189  0.7800 -0.3389
27526SOL    HW289694   2.965   9.940   3.246  0.0948  0.2694 -0.1986
27527SOL     OW89695  11.587   3.867   8.068  0.0664 -0.3000  0.2944
27527SOL    HW189696  11.586   3.771   8.076  2.4266 -0.3849  0.1916
27527SOL    HW289697  11.599   3.899   8.157  0.2992 -0.1584  0.2138
27528SOL     OW89698   9.512  12.339   8.239  0.1148 -0.4374  0.1956
27528SOL    HW189699   9.600  12.369   8.261  0.5131 -0.8274 -0.7909
27528SOL    HW289700   9.515  12.244   8.250 -0.9725 -0.2472  2.7381
27529SOL     OW89701   1.695   6.197   9.185  0.3278 -0.0678  0.2103
27529SOL    HW189702   1.750   6.253   9.239 -0.9048  1.5013 -0.0790
27529SOL    HW289703   1.679   6.248   9.106 -0.6290 -0.9304 -0.1770
27530SOL     OW89704  11.440   3.235   1.689  0.0174 -0.6760  0.0221
27530SOL    HW189705  11.345   3.232   1.677  0.3051 -1.2458 -2.5313
27530SOL    HW289706  11.452   3.285   1.771 -2.4276  0.2653 -0.1114
27531SOL     OW89707   1.545   0.545   3.032 -0.0732 -0.5105 -0.2773
27531SOL    HW189708   1.575   0.635   3.017 -1.8882 -0.0357 -1.3579
27531SOL    HW289709   1.621   0.500   3.069  0.8409  1.4933  0.4087
27532SOL     OW89710   1.546   1.343   5.730  0.0623  0.2208  0.2875
27532SOL    HW189711   1.524   1.401   5.657  0.0290  0.2156  0.2936
27532SOL    HW289712   1.462   1.320   5.769 -0.0123 -0.8573 -0.4920
27533SOL     OW89713   1.652   2.238  11.748 -0.5419  0.2434  0.4172
27533SOL    HW189714   1.566   2.281  11.753 -0.1883  0.9630  0.3891
27533SOL    HW289715   1.684   2.237  11.838 -0.6344 -0.1516  0.4482
27534SOL     OW89716   9.889   1.281   5.033 -0.2927 -0.1472 -0.3927
27534SOL    HW189717   9.966   1.227   5.047  0.2126  0.1304 -1.9768
27534SOL    HW289718   9.831   1.260   5.107  1.3729 -0.1771  0.9630
27535SOL     OW89719   7.008  11.415  12.250 -0.2930  0.2754 -0.0180
27535SOL    HW189720   7.048  11.340  12.294  0.7657  1.5264  1.2276
27535SOL    HW289721   6.918  11.418  12.284 -0.8539 -1.2821 -1.2296
27536SOL     OW89722  10.695   3.972   2.939 -0.7049  0.0171 -0.4394
27536SOL    HW189723  10.681   4.066   2.951  1.9991  0.6798 -1.6887
27536SOL    HW289724  10.768   3.951   2.997 -0.4528 -1.0328 -1.1184
27537SOL     OW89725   7.728  10.233  11.277 -0.1238  0.1191 -0.3254
27537SOL    HW189726   7.668  10.305  11.292 -0.6805 -0.4593  0.2688
27537SOL    HW289727   7.776  10.224  11.359 -0.8847 -0.9403  0.0188
27538SOL     OW89728   3.726   1.346   5.798 -0.0285 -0.1434  0.0669
27538SOL    HW189729   3.768   1.328   5.714 -2.1706 -1.4881 -0.7830
27538SOL    HW289730   3.656   1.407   5.777 -1.6581 -1.7669  0.4985
27539SOL     OW89731   1.614   1.733   1.775  0.7162  0.0716 -0.0944
27539SOL    HW189732   1.613   1.757   1.682  1.8489  0.6543  0.0224
27539SOL    HW289733   1.664   1.652   1.779  1.7527  0.7122  0.1367
27540SOL     OW89734   0.319   5.418   7.430  0.0978 -0.2298 -0.2581
27540SOL    HW189735   0.377   5.445   7.359  0.4372 -0.5877 -0.1235
27540SOL    HW289736   0.312   5.323   7.420 -2.0848 -0.0186 -1.4954
27541SOL     OW89737   2.229   8.604   4.835 -0.2201  0.2039 -0.0495
27541SOL    HW189738   2.238   8.657   4.914  0.8166  0.5751 -0.4033
27541SOL    HW289739   2.315   8.565   4.822 -0.5689 -0.3958 -0.6223
27542SOL     OW89740   0.482   8.522  11.394 -0.2370  0.1132 -0.6770
27542SOL    HW189741   0.499   8.442  11.444  1.3791  0.8057 -0.0438
27542SOL    HW289742   0.414   8.567  11.442  1.6580  1.0300  1.2894
27543SOL     OW89743   2.825   8.917   9.622  0.4947 -0.4877  0.2073
27543SOL    HW189744   2.836   8.965   9.703  0.8712  0.1507 -0.2179
27543SOL    HW289745   2.914   8.892   9.596  0.3791 -0.6796 -0.0120
27544SOL     OW89746   7.445   0.533   1.959  0.1617 -0.0416 -0.3238
27544SOL    HW189747   7.519   0.555   2.016 -0.3715  0.2001  0.2943
27544SOL    HW289748   7.373   0.586   1.993 -0.3330 -0.3871 -0.8246
27545SOL     OW89749   7.841   6.258   6.773  0.0339 -0.0903 -0.6614
27545SOL    HW189750   7.856   6.166   6.751  3.3056  0.2104 -0.1687
27545SOL    HW289751   7.834   6.259   6.868  0.8032  0.1968 -0.5948
27546SOL     OW89752   7.409   7.544   6.337  0.4086 -0.5355  0.1778
27546SOL    HW189753   7.447   7.612   6.393 -0.8364  0.8600 -0.5813
27546SOL    HW289754   7.468   7.540   6.261 -0.9309  1.8160 -1.1235
27547SOL     OW89755  12.617   4.290   0.939  0.6785 -0.0971 -0.5451
27547SOL    HW189756  12.550   4.287   0.872  1.8391  2.6439 -1.9972
27547SOL    HW289757  12.584   4.352   1.004  0.7835 -0.6095  0.0139
27548SOL     OW89758   5.107   2.527  11.961  0.5085 -0.1610  0.1862
27548SOL    HW189759   5.187   2.565  11.997  2.3059 -2.1566 -1.4616
27548SOL    HW289760   5.086   2.583  11.886  0.4162  0.2886  0.5405
27549SOL     OW89761   8.675   6.185   5.231  0.0460  1.0779 -0.4020
27549SOL    HW189762   8.644   6.155   5.317  1.4293  2.4359  0.6240
27549SOL    HW289763   8.710   6.106   5.189  0.6252  0.6368  0.8735
27550SOL     OW89764   7.612   2.395   9.812  0.5186  0.0998 -0.5695
27550SOL    HW189765   7.529   2.436   9.840  0.6152  0.3874 -0.6976
27550SOL    HW289766   7.633   2.438   9.729  0.3583 -0.5765 -0.9713
27551SOL     OW89767  10.172   3.277   3.636  0.0477  0.0202  0.5100
27551SOL    HW189768  10.098   3.266   3.696 -1.5309  0.4184 -1.2357
27551SOL    HW289769  10.218   3.194   3.640 -0.3656 -0.1762  1.7916
27552SOL     OW89770   1.612   5.201   9.460  0.3191  0.4476  0.1279
27552SOL    HW189771   1.577   5.179   9.373  0.1871  1.6398 -0.1295
27552SOL    HW289772   1.535   5.206   9.517  0.5297 -2.0515  0.7472
27553SOL     OW89773   9.483   8.550   8.931 -0.7769  0.4028  0.0519
27553SOL    HW189774   9.519   8.548   9.020 -1.2329  0.4899  0.2405
27553SOL    HW289775   9.558   8.574   8.876  0.0504 -1.7920  0.1311
27554SOL     OW89776   3.511  12.589   1.376 -0.1645 -0.0599  0.3201
27554SOL    HW189777   3.430  12.606   1.423 -0.8262  0.0751 -0.8344
27554SOL    HW289778   3.523  12.494   1.380 -0.6504 -0.1328  0.0723
27555SOL     OW89779   8.211   0.191   9.299 -0.2477  0.1465  0.2121
27555SOL    HW189780   8.165   0.262   9.344  0.1286  0.9103 -0.5666
27555SOL    HW289781   8.144   0.151   9.244 -0.1095  0.9531 -0.5652
27556SOL     OW89782   5.849   7.811   9.265 -0.1669  0.1665 -0.0694
27556SOL    HW189783   5.904   7.887   9.250  0.2354 -0.2750 -0.8764
27556SOL    HW289784   5.910   7.738   9.273 -0.6020 -0.2654 -0.5814
27557SOL     OW89785  11.596   3.450   3.927  0.2976 -0.1660  0.7367
27557SOL    HW189786  11.581   3.476   4.018 -0.0343  0.7683  0.4304
27557SOL    HW289787  11.519   3.483   3.880  1.3882  1.1602 -0.2035
27558SOL     OW89788   7.243  11.998  11.873  0.1437  0.1076  0.8700
27558SOL    HW189789   7.155  11.970  11.847 -0.2051  0.8383  1.2269
27558SOL    HW289790   7.302  11.940  11.825 -0.5198  0.3540 -0.2793
27559SOL     OW89791   1.792   3.132  10.266  0.1241 -0.3172 -0.3119
27559SOL    HW189792   1.876   3.122  10.221  1.9060  1.0443  2.4334
27559SOL    HW289793   1.773   3.226  10.260 -0.4411 -0.3796  0.3779
27560SOL     OW89794  10.093   6.889   1.395  0.8078 -0.6026  0.0624
27560SOL    HW189795  10.109   6.924   1.483  0.4916 -1.4843  0.4827
27560SOL    HW289796  10.016   6.936   1.364  1.5205  0.4502 -0.1682
27561SOL     OW89797   0.596   0.085  12.458  0.0271 -0.3216  0.8208
27561SOL    HW189798   0.545   0.048  12.387  0.3752  0.5228  0.1173
27561SOL    HW289799   0.672   0.125  12.415 -0.5474  1.5814  1.4891
27562SOL     OW89800   5.333   0.191   8.694 -0.1426  0.2060  0.5065
27562SOL    HW189801   5.397   0.259   8.675  1.2976 -0.9390  1.0746
27562SOL    HW289802   5.376   0.109   8.667 -0.7794 -0.7416  2.2167
27563SOL     OW89803   5.018   7.577   4.930  0.2008 -0.6932 -0.1376
27563SOL    HW189804   5.026   7.585   4.835  0.7582 -1.2350 -0.1455
27563SOL    HW289805   4.993   7.486   4.944 -1.3884 -0.2258  0.1670
27564SOL     OW89806   0.668   3.189  11.285 -0.3055 -0.1776 -0.5715
27564SOL    HW189807   0.687   3.095  11.293  0.4796 -0.0727 -1.0848
27564SOL    HW289808   0.708   3.229  11.362 -0.0205 -0.1835 -0.7135
27565SOL     OW89809  11.503   1.624  12.320  0.0031 -0.0461 -0.4148
27565SOL    HW189810  11.438   1.621  12.391  0.2573  0.7182 -0.1447
27565SOL    HW289811  11.587   1.619  12.365  0.1835  1.0691 -0.6094
27566SOL     OW89812   6.945  11.750   8.428 -0.5521  0.6730  0.3135
27566SOL    HW189813   7.018  11.749   8.490 -0.3510 -0.2357  0.0785
27566SOL    HW289814   6.941  11.660   8.394 -0.9940  1.0222 -0.5946
27567SOL     OW89815  10.512   1.116   6.596 -0.0222  0.4835  0.2211
27567SOL    HW189816  10.424   1.095   6.565 -0.6811 -2.7007  3.5193
27567SOL    HW289817  10.567   1.109   6.518 -1.8534 -4.2463 -0.9897
27568SOL     OW89818   1.753   2.655   5.534 -0.5325 -0.2989  0.3631
27568SOL    HW189819   1.829   2.714   5.534  0.2702 -1.2801  1.9131
27568SOL    HW289820   1.677   2.714   5.537  0.2427  0.6865  1.9105
27569SOL     OW89821   9.678   7.141   4.116  0.4634  0.2156  0.2807
27569SOL    HW189822   9.612   7.096   4.063 -0.3245  1.3591  0.2594
27569SOL    HW289823   9.730   7.191   4.052  1.2846 -0.5802  0.3106
27570SOL     OW89824   2.696  10.159   3.428  0.2077 -0.3026  0.7804
27570SOL    HW189825   2.634  10.168   3.356  1.0491 -1.4865 -0.1148
27570SOL    HW289826   2.689  10.242   3.476 -2.9843 -0.8437  1.4877
27571SOL     OW89827   1.298   9.086  11.750  0.1308  0.4793  0.6532
27571SOL    HW189828   1.249   9.120  11.675 -0.2297 -0.6635  0.3543
27571SOL    HW289829   1.246   9.113  11.826 -1.2501 -1.0955  0.3163
27572SOL     OW89830   1.971  11.904   0.553  0.4554 -0.2033  0.5616
27572SOL    HW189831   1.987  11.994   0.525 -0.3957 -0.5232 -1.0701
27572SOL    HW289832   2.057  11.863   0.554  1.2295  1.1810  3.6592
27573SOL     OW89833  12.771   2.673  10.500  0.5760 -0.3043 -0.0661
27573SOL    HW189834  12.748   2.764  10.485 -0.3430 -0.2127  1.5744
27573SOL    HW289835  12.754   2.629  10.417  0.1550  0.8591 -0.6112
27574SOL     OW89836  11.522   1.000  11.818 -0.4935  0.7315 -0.0793
27574SOL    HW189837  11.565   0.921  11.851 -0.2961  1.1721  0.7554
27574SOL    HW289838  11.433   0.996  11.853 -0.5863  0.7000 -0.3226
27575SOL     OW89839   2.304   6.552   0.418 -0.3241 -0.0651  0.7308
27575SOL    HW189840   2.333   6.487   0.483 -2.0971 -2.6877 -0.8921
27575SOL    HW289841   2.366   6.543   0.346 -0.5383  0.1282  0.5217
27576SOL     OW89842   3.658  11.337   3.818  0.6744 -0.2775 -0.3924
27576SOL    HW189843   3.617  11.270   3.873  3.0393 -0.9211  0.6824
27576SOL    HW289844   3.597  11.411   3.822  0.4195 -0.5151  2.6466
27577SOL     OW89845   2.597   7.436   5.454 -0.4902 -0.4292 -0.4459
27577SOL    HW189846   2.639   7.494   5.517 -0.5664  1.5374 -2.0952
27577SOL    HW289847   2.661   7.368   5.436  0.9039  0.9268 -0.7956
27578SOL     OW89848  11.973   4.150   2.961 -0.0006  0.0373  0.3568
27578SOL    HW189849  11.962   4.060   2.931 -0.9114  0.4445 -0.5674
27578SOL    HW289850  11.919   4.156   3.040  0.5212 -0.3722  0.7576
27579SOL     OW89851   5.588   6.056   1.065  0.0746  0.3142  0.0039
27579SOL    HW189852   5.610   6.149   1.055 -0.4392  0.5236  0.8253
27579SOL    HW289853   5.594   6.039   1.159 -0.1404 -0.4153 -0.1077
27580SOL     OW89854   7.107   4.957   9.205 -0.1798  0.2378  0.2539
27580SOL    HW189855   7.043   4.916   9.146 -0.0567  0.0175  0.2736
27580SOL    HW289856   7.167   5.004   9.147  1.0311 -1.4695  0.0472
27581SOL     OW89857   9.300   2.904   3.188 -0.1081 -0.2070 -0.2655
27581SOL    HW189858   9.350   2.966   3.135 -0.3538  2.8293  2.6655
27581SOL    HW289859   9.360   2.880   3.259 -1.4347  0.4054  1.1434
27582SOL     OW89860  10.752   7.626   9.502  0.2298 -0.8387  0.1939
27582SOL    HW189861  10.802   7.583   9.571  1.4514  0.5750  0.2465
27582SOL    HW289862  10.818   7.655   9.439 -0.5574  0.6133 -0.0023
27583SOL     OW89863   9.196   9.722   4.258 -0.0455  0.6404  0.2796
27583SOL    HW189864   9.132   9.685   4.198  1.8637 -1.2331 -0.7201
27583SOL    HW289865   9.199   9.660   4.331 -0.5339  1.5853  1.1241
27584SOL     OW89866   3.031   4.160  11.558  0.4957 -0.0662  0.4915
27584SOL    HW189867   3.087   4.128  11.487 -1.4730 -0.4306 -0.9904
27584SOL    HW289868   2.945   4.122  11.539 -0.7943  2.2153  1.4289
27585SOL     OW89869   5.196   3.402   1.291 -0.6367 -0.4058 -0.4772
27585SOL    HW189870   5.177   3.485   1.248 -1.0928  0.6210  1.5809
27585SOL    HW289871   5.110   3.362   1.306 -0.7517  0.5057  1.7316
27586SOL     OW89872  11.994  10.519   3.743 -0.8480  0.0906 -0.1315
27586SOL    HW189873  12.056  10.471   3.688 -1.1555  0.3775 -0.7377
27586SOL    HW289874  11.908  10.491   3.712 -1.0779  2.1459 -1.5689
27587SOL     OW89875   9.248   8.478   8.820 -0.3579  0.2584  0.6192
27587SOL    HW189876   9.300   8.549   8.858 -0.3265  1.3925 -1.3983
27587SOL    HW289877   9.293   8.398   8.847  0.5975  1.0800  1.5330
27588SOL     OW89878   3.813   7.531   5.406 -0.0771 -0.3784  0.0406
27588SOL    HW189879   3.783   7.440   5.410 -0.3819 -0.2429  1.0055
27588SOL    HW289880   3.757   7.577   5.468  1.2480  0.1391  0.8905
27589SOL     OW89881   2.192  10.777   2.669 -0.4819 -0.3866 -0.2364
27589SOL    HW189882   2.244  10.857   2.679 -2.2446  0.7948 -0.2545
27589SOL    HW289883   2.187  10.741   2.758  1.2595 -1.1437 -0.3962
27590SOL     OW89884   0.542   2.023   8.518 -0.2102  0.3125  0.4521
27590SOL    HW189885   0.477   1.953   8.508 -3.2554  2.9597 -0.1442
27590SOL    HW289886   0.573   2.014   8.608 -1.1113 -1.2846  0.6527
27591SOL     OW89887   8.103   8.619   8.615 -0.5864  0.1759  0.2293
27591SOL    HW189888   8.188   8.660   8.602 -0.7528  1.5051  2.6984
27591SOL    HW289889   8.116   8.528   8.588  0.7607  0.9805 -2.1212
27592SOL     OW89890   7.052   3.926  10.001 -0.0236 -0.1820 -0.5821
27592SOL    HW189891   7.050   3.931  10.097 -0.6496 -0.8873 -0.5495
27592SOL    HW289892   6.990   3.993   9.972  1.3899  1.1738 -0.5568
27593SOL     OW89893   6.352   5.644   1.384  0.5875  0.1862 -0.1177
27593SOL    HW189894   6.296   5.567   1.390  0.8825 -0.0280 -0.1368
27593SOL    HW289895   6.352   5.666   1.291  0.7620  0.0188 -0.1574
27594SOL     OW89896   7.689   1.540  10.432  0.2549 -0.1075 -0.9811
27594SOL    HW189897   7.692   1.463  10.489 -2.3605  0.4936  0.1319
27594SOL    HW289898   7.780   1.557  10.409  1.2144 -1.6591  1.2874
27595SOL     OW89899   8.611   2.913   7.506  0.1168 -1.7219 -0.0013
27595SOL    HW189900   8.590   2.908   7.413  1.5335 -2.3728 -0.2989
27595SOL    HW289901   8.525   2.915   7.549 -0.5933  0.3667 -1.3672
27596SOL     OW89902   4.708   9.940   9.978 -0.4713 -0.0552  0.1603
27596SOL    HW189903   4.787   9.974  10.022 -0.0134 -0.5173 -0.2971
27596SOL    HW289904   4.643  10.009   9.990  0.3868  0.9221 -0.5870
27597SOL     OW89905   8.246   1.232   0.143 -0.2544  0.0098  0.4297
27597SOL    HW189906   8.309   1.213   0.213 -1.1399  2.3630  2.0020
27597SOL    HW289907   8.195   1.152   0.134  0.6048 -0.7191  1.7175
27598SOL     OW89908   3.556  12.103   9.786 -0.0154 -0.2133 -0.2956
27598SOL    HW189909   3.501  12.179   9.806  0.3313 -0.4238  1.6305
27598SOL    HW289910   3.583  12.116   9.695 -2.1589  0.5702 -0.8887
27599SOL     OW89911   7.802  12.798   4.606 -0.1242  0.1480 -0.5249
27599SOL    HW189912   7.852  12.749   4.541 -0.5895 -0.4714 -0.4308
27599SOL    HW289913   7.801  12.888   4.574  0.2291 -0.0232 -1.0154
27600SOL     OW89914   9.906   3.910   0.926  0.3311 -0.0267 -0.4379
27600SOL    HW189915   9.833   3.868   0.971  1.4693 -1.4176  0.1847
27600SOL    HW289916   9.867   3.985   0.881 -1.4778 -0.7878 -0.1997
27601SOL     OW89917   5.048   7.574   4.274  0.2972  1.0917  0.2663
27601SOL    HW189918   5.045   7.494   4.221  0.2194  2.4242 -1.8408
27601SOL    HW289919   5.044   7.543   4.364 -0.7270 -1.2389 -0.5060
27602SOL     OW89920   2.498   6.543   9.348  0.1108 -0.0674 -0.1966
27602SOL    HW189921   2.436   6.608   9.380  0.7274  1.3299 -1.7239
27602SOL    HW289922   2.521   6.572   9.260  2.1038 -1.1363 -0.1042
27603SOL     OW89923   4.222   2.483   2.069  0.1799 -0.5488 -0.7503
27603SOL    HW189924   4.164   2.407   2.059  0.7005 -1.0312 -0.2232
27603SOL    HW289925   4.190   2.527   2.148 -0.5930  0.2235 -1.4709
27604SOL     OW89926   1.237   5.407  11.074 -0.3245 -0.5230 -0.4521
27604SOL    HW189927   1.175   5.476  11.094  1.1726  0.5992  0.5442
27604SOL    HW289928   1.214   5.378  10.986 -1.6151  0.5366 -0.4810
27605SOL     OW89929   5.994   5.052   6.303  0.4540 -0.4961 -0.2222
27605SOL    HW189930   6.047   5.064   6.224 -1.6697  1.8494 -1.4391
27605SOL    HW289931   5.936   4.979   6.281  1.6031 -1.6086  0.2741
27606SOL     OW89932   6.608   6.728   6.934  0.1318 -0.2858 -0.0955
27606SOL    HW189933   6.696   6.742   6.969  0.8251 -1.6682 -1.1886
27606SOL    HW289934   6.621   6.671   6.858 -1.5569  0.6780 -1.1749
27607SOL     OW89935   2.583   6.793   3.057  1.1206 -0.6133  0.0362
27607SOL    HW189936   2.591   6.719   3.118  0.7823 -0.0539  0.7774
27607SOL    HW289937   2.631   6.765   2.979  3.4340 -0.5355  1.3286
27608SOL     OW89938   3.300   3.130   9.202 -0.0348  0.1597 -0.8345
27608SOL    HW189939   3.392   3.138   9.225 -0.4899  0.0948  1.2016
27608SOL    HW289940   3.262   3.077   9.273 -1.3118 -1.3343 -2.5239
27609SOL     OW89941   9.444   5.673   5.114  0.4776 -0.3458 -0.1222
27609SOL    HW189942   9.495   5.612   5.167  0.7786  0.0521  0.0515
27609SOL    HW289943   9.456   5.758   5.156 -1.4912 -0.4602  0.7622
27610SOL     OW89944  11.011   1.267   1.814  0.4392 -0.6107  0.7111
27610SOL    HW189945  11.082   1.203   1.824  1.7711  1.0043  2.3361
27610SOL    HW289946  10.995   1.298   1.903 -1.4941 -0.0225  0.2057
27611SOL     OW89947   6.887  11.137   4.029  0.1100  0.5285 -0.5879
27611SOL    HW189948   6.975  11.112   4.000 -0.0041 -2.4956  1.2191
27611SOL    HW289949   6.903  11.204   4.096  1.2377 -0.9110  0.6768
27612SOL     OW89950   4.219  12.271   6.024  0.4102  0.5647 -0.6664
27612SOL    HW189951   4.284  12.231   6.082 -1.2378  0.2190  1.0650
27612SOL    HW289952   4.142  12.215   6.034 -0.0177  0.6107 -3.1080
27613SOL     OW89953   6.917   1.176   1.437  0.3548 -0.4197 -0.6013
27613SOL    HW189954   6.913   1.088   1.401 -0.2943 -0.4856 -0.3798
27613SOL    HW289955   6.967   1.167   1.518  0.6060 -0.5165 -0.7671
27614SOL     OW89956  11.909   8.694  10.300  0.1704 -0.1119  0.6996
27614SOL    HW189957  11.960   8.716  10.378 -0.2189  0.0773  0.9035
27614SOL    HW289958  11.904   8.776  10.251  2.8644 -0.8393 -0.9842
27615SOL     OW89959   2.284   0.884   2.603  0.2893 -0.1922  0.4643
27615SOL    HW189960   2.320   0.831   2.532  1.2442  0.8318  0.1590
27615SOL    HW289961   2.220   0.827   2.646  0.8031 -1.3462 -0.2674
27616SOL     OW89962   8.810  11.370  12.581  0.2412  0.3503  0.3395
27616SOL    HW189963   8.788  11.398  12.493  0.3718  1.0586  0.5278
27616SOL    HW289964   8.903  11.347  12.577  0.4785  1.2568  0.5027
27617SOL     OW89965   2.938   0.497   9.320 -0.4848  0.1497  0.2158
27617SOL    HW189966   2.978   0.583   9.306 -0.2813 -0.2441 -1.9525
27617SOL    HW289967   2.859   0.498   9.266 -0.4854 -1.0162  0.1685
27618SOL     OW89968   1.593   7.129  12.461  0.2206 -0.1585  0.1235
27618SOL    HW189969   1.582   7.157  12.551  0.2072  0.3085 -0.0216
27618SOL    HW289970   1.521   7.069  12.445  0.8903 -1.1704  0.7895
27619SOL     OW89971  12.259   3.559   0.723 -0.6842 -0.4214  0.0728
27619SOL    HW189972  12.204   3.526   0.794 -0.5904 -1.6883 -0.4082
27619SOL    HW289973  12.293   3.480   0.681  0.6506  0.3136 -0.3025
27620SOL     OW89974   3.519  12.313  12.241  0.3589  0.0396 -0.2054
27620SOL    HW189975   3.521  12.238  12.301  2.6141  0.5958  0.5084
27620SOL    HW289976   3.546  12.388  12.295 -0.1311  1.0412 -1.3127
27621SOL     OW89977  12.265   6.784   2.404 -0.6119  0.0606 -0.1779
27621SOL    HW189978  12.172   6.783   2.424 -0.3794  0.7692  1.0444
27621SOL    HW289979  12.294   6.694   2.419 -1.3770 -0.5549 -2.1278
27622SOL     OW89980   3.644   3.597   3.422 -0.3405  0.1808 -0.3416
27622SOL    HW189981   3.549   3.599   3.438 -0.2478 -0.7534  0.4469
27622SOL    HW289982   3.657   3.522   3.365 -0.0359  0.0622 -0.1188
27623SOL     OW89983   4.069   6.197   9.476  0.0338  0.0713 -0.4171
27623SOL    HW189984   4.100   6.137   9.408  1.0281 -0.2288  0.2800
27623SOL    HW289985   4.105   6.161   9.557 -1.8290 -0.0573  0.3962
27624SOL     OW89986   1.406   4.250   2.055  0.3229  0.0363  0.3528
27624SOL    HW189987   1.352   4.285   1.985 -1.5766  2.8558  2.9619
27624SOL    HW289988   1.436   4.165   2.023 -0.8641  0.9252 -3.5461
27625SOL     OW89989   0.395   2.821  11.343  0.6401 -0.1145  0.2328
27625SOL    HW189990   0.320   2.806  11.401  0.3993  0.2139  0.0131
27625SOL    HW289991   0.381   2.910  11.309  1.2804  0.0631  0.4150
27626SOL     OW89992   1.621   2.987   3.316 -0.2148  0.1039 -0.2133
27626SOL    HW189993   1.634   2.973   3.223 -0.5370  1.2175 -0.4407
27626SOL    HW289994   1.540   3.036   3.322 -1.3278 -1.7429  0.8105
27627SOL     OW89995   4.176   6.017   7.809 -0.0959 -0.2114 -0.0815
27627SOL    HW189996   4.252   5.969   7.842 -0.4299 -0.1230  0.8777
27627SOL    HW289997   4.178   6.005   7.715  0.2120 -1.5386  0.0771
27628SOL     OW89998  12.013   3.507   2.729 -0.3023  0.3373  0.2431
27628SOL    HW189999  12.012   3.468   2.642  2.3948  0.5377  0.0438
27628SOL    HW290000  12.005   3.432   2.788  0.1337 -0.0315 -0.1586
27629SOL     OW90001   0.707   6.957  10.022  0.1229  0.7744  0.4684
27629SOL    HW190002   0.612   6.958  10.022  0.1203  0.5548  0.4519
27629SOL    HW290003   0.731   6.932  10.111  0.1612  0.5485  0.3950
27630SOL     OW90004   5.092  10.932   0.441  0.2261  0.1441  0.4786
27630SOL    HW190005   5.042  11.006   0.407  1.0205  1.2483  1.6307
27630SOL    HW290006   5.029  10.882   0.493  0.2081  1.3466  1.6595
27631SOL     OW90007   9.379   2.517   9.850  0.2836 -0.4199  0.5859
27631SOL    HW190008   9.343   2.459   9.917  1.0902  0.2545  1.6270
27631SOL    HW290009   9.425   2.585   9.898  1.9012 -0.5504 -0.6565
27632SOL     OW90010   8.469  12.115   6.778 -0.1011  0.0113 -0.5073
27632SOL    HW190011   8.381  12.147   6.796 -0.2866 -0.6509 -0.1806
27632SOL    HW290012   8.500  12.168   6.705 -0.2950  1.0670  0.1651
27633SOL     OW90013   2.178   1.878   7.328 -0.4826 -0.2668  0.1787
27633SOL    HW190014   2.187   1.962   7.373 -0.1313 -1.0306  1.5852
27633SOL    HW290015   2.136   1.821   7.392 -1.2841 -1.0111 -0.9684
27634SOL     OW90016   7.624  11.301  11.080  0.1838  0.6295  0.5901
27634SOL    HW190017   7.545  11.283  11.131 -0.7089  0.9340 -0.6273
27634SOL    HW290018   7.624  11.234  11.012  0.7060  0.9308  0.2865
27635SOL     OW90019   2.239   9.851   2.341 -0.4030  0.0070  0.2032
27635SOL    HW190020   2.229   9.940   2.372 -0.6569 -0.4936  1.6138
27635SOL    HW290021   2.150   9.820   2.326 -0.3408 -0.1626  0.1808
27636SOL     OW90022   4.436   4.814   1.231  0.0436  0.1423 -0.3959
27636SOL    HW190023   4.493   4.752   1.276  0.2187  0.2723 -0.4402
27636SOL    HW290024   4.386   4.761   1.170  1.3541  0.2589 -1.6180
27637SOL     OW90025   2.704   0.450   3.317 -0.2328  0.5188  0.0488
27637SOL    HW190026   2.658   0.533   3.326 -0.5536  0.6104 -1.9975
27637SOL    HW290027   2.793   0.475   3.289 -0.3840  0.1910 -0.7541
27638SOL     OW90028   1.820   2.732   8.082 -0.3793 -0.0889 -0.2655
27638SOL    HW190029   1.871   2.698   8.008  1.1125  1.0472  0.1707
27638SOL    HW290030   1.735   2.753   8.045 -0.0691 -0.7015 -1.3796
27639SOL     OW90031   2.756   4.496   1.313 -0.6692  0.6447 -0.0620
27639SOL    HW190032   2.821   4.488   1.383 -1.8999  0.8962  1.1678
27639SOL    HW290033   2.803   4.536   1.240  0.3664  1.5150  1.0455
27640SOL     OW90034   4.120   6.893   4.486 -0.7293 -0.5237  0.1705
27640SOL    HW190035   4.080   6.886   4.573 -1.3230 -0.0016 -0.0509
27640SOL    HW290036   4.214   6.890   4.503 -0.8401 -1.8514  0.7025
27641SOL     OW90037   4.754   1.704  12.957  0.1775 -0.6864  0.1059
27641SOL    HW190038   4.664   1.735  12.956 -0.1712 -1.6474  0.2272
27641SOL    HW290039   4.797   1.755  13.025  0.5803  2.0099 -1.9830
27642SOL     OW90040  10.514   2.794   1.768 -0.3620 -0.2024 -0.3855
27642SOL    HW190041  10.419   2.783   1.755 -0.4166 -0.1921  0.0054
27642SOL    HW290042  10.521   2.869   1.826 -0.1089 -0.1914 -0.4316
27643SOL     OW90043   6.931   1.453   6.835 -0.1842 -0.2369  0.5416
27643SOL    HW190044   6.937   1.514   6.909 -0.0547 -1.7718  1.8562
27643SOL    HW290045   7.010   1.399   6.842  0.2873  0.1576 -1.2822
27644SOL     OW90046  12.155   9.636   3.959  0.2230  0.8768 -0.3931
27644SOL    HW190047  12.119   9.636   4.047 -0.5232  1.9366 -0.6790
27644SOL    HW290048  12.081   9.657   3.902  0.6818  0.1939 -1.2873
27645SOL     OW90049  10.567  12.036  11.140 -0.3323 -0.8302 -0.1605
27645SOL    HW190050  10.540  11.951  11.175 -1.9656 -0.5840 -0.7240
27645SOL    HW290051  10.544  12.099  11.209 -2.0222 -0.5307 -0.9461
27646SOL     OW90052   0.024   4.592   7.609  0.2081 -0.0645 -0.2325
27646SOL    HW190053   0.013   4.632   7.522  1.0426 -1.2897 -0.9281
27646SOL    HW290054   0.073   4.657   7.659 -1.3172  1.1701 -0.2680
27647SOL     OW90055   9.124   4.976  10.854 -0.2058  0.1258 -0.1126
27647SOL    HW190056   9.173   4.980  10.771 -0.2708  0.4896 -0.1326
27647SOL    HW290057   9.184   4.934  10.915  0.1722  0.6669 -0.1100
27648SOL     OW90058  10.401   4.719  11.263  0.1489 -0.2281  0.0202
27648SOL    HW190059  10.335   4.748  11.199 -1.6079 -1.6816  1.0778
27648SOL    HW290060  10.416   4.627  11.241  0.4256 -0.4070  0.9433
27649SOL     OW90061   4.684  11.304  10.071  0.0234 -0.2245  0.2977
27649SOL    HW190062   4.648  11.257   9.996  0.9923  0.6085 -0.7158
27649SOL    HW290063   4.681  11.396  10.046  0.8806  0.0174  1.0422
27650SOL     OW90064   8.393   4.664   4.163 -0.0402  0.1285  0.3294
27650SOL    HW190065   8.403   4.742   4.218  1.9859 -0.4908  0.9216
27650SOL    HW290066   8.482   4.628   4.156 -0.6812 -1.2688 -1.2095
27651SOL     OW90067   1.802   2.031   6.398  0.1983 -0.2461  0.1386
27651SOL    HW190068   1.793   1.998   6.487  0.8873  0.5660  0.5235
27651SOL    HW290069   1.799   1.953   6.343  1.0460 -0.8777  0.9653
27652SOL     OW90070   3.863   7.442   6.174 -0.4138  0.4087  0.1053
27652SOL    HW190071   3.880   7.464   6.082  0.9713 -1.2669 -0.1011
27652SOL    HW290072   3.899   7.516   6.223  0.3370  0.5851 -0.6770
27653SOL     OW90073   7.004   0.860  11.428  0.2896  0.2298 -0.9577
27653SOL    HW190074   7.051   0.935  11.391 -0.6142  1.7780  0.8835
27653SOL    HW290075   6.992   0.882  11.520 -0.6568 -1.8827 -0.5211
27654SOL     OW90076   9.433   8.629   6.861 -0.4585 -0.5017  0.5598
27654SOL    HW190077   9.451   8.619   6.955  0.6397 -0.1812  0.4006
27654SOL    HW290078   9.463   8.717   6.840 -2.6395  0.2463  0.3074
27655SOL     OW90079   1.488  12.635  12.159  0.1217 -0.2277 -0.6512
27655SOL    HW190080   1.441  12.612  12.079  2.3252 -1.7593 -1.5997
27655SOL    HW290081   1.567  12.679  12.129 -0.0492  1.1923  0.8334
27656SOL     OW90082   0.709   4.964   5.298 -0.1363 -0.7861 -0.4557
27656SOL    HW190083   0.627   4.916   5.309  0.4986 -1.5837  1.1437
27656SOL    HW290084   0.768   4.927   5.365  0.9762  0.9443 -0.4076
27657SOL     OW90085  11.941   8.591   1.286  0.2949 -0.6452  0.3744
27657SOL    HW190086  12.022   8.607   1.335 -0.4194  2.3511  0.8032
27657SOL    HW290087  11.886   8.541   1.347  0.6272  0.2391  1.4458
27658SOL     OW90088   4.407   9.778   7.989  0.6983  0.6397 -0.0944
27658SOL    HW190089   4.440   9.692   7.964  1.6001  1.0835 -0.4852
27658SOL    HW290090   4.431   9.835   7.917 -0.9471  1.0066 -0.3837
27659SOL     OW90091   5.178  10.368   9.374 -0.0850 -0.0795  0.2379
27659SOL    HW190092   5.161  10.457   9.342  0.8970 -0.3596 -1.1775
27659SOL    HW290093   5.148  10.369   9.465 -0.9331  1.4308 -0.0223
27660SOL     OW90094   6.671  10.967   2.911 -0.2324 -0.2511 -0.3740
27660SOL    HW190095   6.734  10.900   2.885  0.6893  0.8677 -1.0964
27660SOL    HW290096   6.700  10.994   2.998 -1.2150 -1.4719  0.3760
27661SOL     OW90097  11.774   8.069   0.357  0.2464 -0.4144 -0.1384
27661SOL    HW190098  11.706   8.135   0.345 -0.1397 -0.6698  0.5510
27661SOL    HW290099  11.830   8.105   0.426  0.7754 -0.2301 -0.6634
27662SOL     OW90100   5.467   3.345   9.314  0.1395 -0.2496 -0.5123
27662SOL    HW190101   5.428   3.259   9.300 -0.2180 -0.0033 -1.0570
27662SOL    HW290102   5.496   3.373   9.227 -1.2222  0.8794 -0.6480
27663SOL     OW90103   5.741   2.027  11.913  0.4705 -0.0937 -0.0452
27663SOL    HW190104   5.741   2.038  11.818 -0.6836  3.0162  0.2156
27663SOL    HW290105   5.815   2.079  11.943 -0.2109  0.3790  0.8619
27664SOL     OW90106   9.802   8.051  12.281  0.2538 -0.3155  0.0904
27664SOL    HW190107   9.774   8.025  12.369 -0.6838  0.6184  0.0851
27664SOL    HW290108   9.793   7.971  12.229 -0.6820 -0.4982  0.5030
27665SOL     OW90109  12.914   8.178   9.614  0.2405  0.0864 -0.5967
27665SOL    HW190110  12.922   8.142   9.703  2.3571 -1.4663 -1.3227
27665SOL    HW290111  12.982   8.245   9.609 -0.6557  0.9978 -0.6921
27666SOL     OW90112   0.808   9.953  11.343  0.0176 -0.2580 -0.1104
27666SOL    HW190113   0.725   9.907  11.355  1.0012 -2.3206 -0.5788
27666SOL    HW290114   0.790  10.044  11.367 -1.6290 -1.1968  2.7485
27667SOL     OW90115   3.814  11.899   6.815  0.3863 -0.4162 -0.5272
27667SOL    HW190116   3.748  11.943   6.869  2.2988 -0.4451  2.0706
27667SOL    HW290117   3.767  11.828   6.772 -1.4339  0.0670  0.5656
27668SOL     OW90118   1.965  12.865   9.044 -0.3173 -0.2608  0.2415
27668SOL    HW190119   1.975  12.894   9.134  0.6256 -0.0061  0.0642
27668SOL    HW290120   1.875  12.889   9.021 -0.6179 -0.4815  1.1619
27669SOL     OW90121  10.521   0.987  10.266  0.0279 -0.3350 -0.3217
27669SOL    HW190122  10.545   0.897  10.288 -0.2475 -0.3668 -0.1509
27669SOL    HW290123  10.592   1.018  10.210  1.0899 -0.0380  1.1067
27670SOL     OW90124  12.754   0.290   8.197  0.3394  0.0699  0.2405
27670SOL    HW190125  12.724   0.349   8.128  0.8569  1.9952  1.5531
27670SOL    HW290126  12.716   0.326   8.277 -0.5273 -2.2954  0.9610
27671SOL     OW90127   3.152  11.925  12.739 -0.3903 -0.3726  0.0371
27671SOL    HW190128   3.139  11.834  12.765  2.0873 -0.6777  0.3793
27671SOL    HW290129   3.115  11.976  12.811 -1.8987 -1.0613 -0.2038
27672SOL     OW90130  12.111  12.791  12.308  0.3031  0.2080 -0.0632
27672SOL    HW190131  12.108  12.701  12.341  0.9329 -0.2445 -1.1808
27672SOL    HW290132  12.044  12.837  12.358  0.8833 -0.5573  1.4630
27673SOL     OW90133   3.471   7.121   8.083  0.1354 -0.2184  0.6836
27673SOL    HW190134   3.420   7.168   8.017  0.1374 -1.2330 -0.0659
27673SOL    HW290135   3.412   7.114   8.159 -0.2765 -0.0185  0.3839
27674SOL     OW90136  10.552   4.527   3.712 -0.0263  0.0457 -0.2418
27674SOL    HW190137  10.457   4.530   3.717 -0.3173 -2.8582 -1.8393
27674SOL    HW290138  10.577   4.448   3.759  1.4627  0.0012 -1.0295
27675SOL     OW90139   9.125   9.889   3.915 -0.0347 -0.2751 -0.0149
27675SOL    HW190140   9.168   9.959   3.867  1.9111 -0.0941  1.8075
27675SOL    HW290141   9.044   9.928   3.947  0.4917  0.8192  0.0414
27676SOL     OW90142  10.441   5.166  12.803  0.0992 -0.2414  0.3927
27676SOL    HW190143  10.398   5.124  12.877  1.1107 -0.7058  0.7337
27676SOL    HW290144  10.520   5.115  12.789 -0.0250 -0.0920 -0.9486
27677SOL     OW90145   7.430  12.273   8.670 -0.3731  0.5397  0.1073
27677SOL    HW190146   7.357  12.315   8.716 -0.2907  0.8279 -0.0224
27677SOL    HW290147   7.398  12.262   8.580 -1.6480 -2.6404  0.8199
27678SOL     OW90148   3.773   2.165   6.210 -0.5140  0.0461 -0.8427
27678SOL    HW190149   3.739   2.111   6.281 -0.8689 -0.6781 -1.5437
27678SOL    HW290150   3.811   2.241   6.253 -1.8162  0.2203  0.0618
27679SOL     OW90151   6.193   7.965   4.218 -0.1581  0.6208  0.2088
27679SOL    HW190152   6.255   7.959   4.291 -0.3223  0.4433  0.3335
27679SOL    HW290153   6.232   7.911   4.149  0.3725  1.3910 -0.1069
27680SOL     OW90154  12.512   1.981  10.973 -0.2737 -0.2565  0.5913
27680SOL    HW190155  12.515   1.894  11.013  1.2319 -0.2964  0.4780
27680SOL    HW290156  12.587   2.027  11.011  0.7787 -0.0556 -1.5653
27681SOL     OW90157   2.838   9.780   4.188  0.2332 -0.2492  0.1014
27681SOL    HW190158   2.822   9.840   4.261 -0.1834 -0.1775 -0.0440
27681SOL    HW290159   2.927   9.801   4.158 -0.7234  1.9875 -1.4784
27682SOL     OW90160   5.591   2.858  10.550  0.1564 -0.4481  0.0301
27682SOL    HW190161   5.580   2.874  10.644 -0.7124 -2.5279  0.3313
27682SOL    HW290162   5.518   2.800  10.527  0.9797 -0.8528 -1.6987
27683SOL     OW90163  11.715   8.706   1.594 -0.1368 -0.5049 -0.0763
27683SOL    HW190164  11.742   8.763   1.521 -0.8861 -1.8336 -1.4386
27683SOL    HW290165  11.632   8.743   1.624 -1.0770 -1.3359 -1.5449
27684SOL     OW90166   8.022  10.828   8.003  0.1495 -0.1518  0.1086
27684SOL    HW190167   8.003  10.921   8.015 -0.1526 -0.2498  0.4191
27684SOL    HW290168   7.997  10.788   8.086 -0.0262 -0.5572 -0.1374
27685SOL     OW90169   3.810   6.017   0.989  0.4268 -0.3132 -0.4134
27685SOL    HW190170   3.755   5.952   1.032 -0.9269  1.0450  0.0280
27685SOL    HW290171   3.859   6.059   1.060 -0.1384  0.4152 -0.4400
27686SOL     OW90172   8.998   8.169   8.888  0.1437 -0.0914 -0.3734
27686SOL    HW190173   9.067   8.102   8.887 -1.4932 -1.9094  0.9912
27686SOL    HW290174   9.007   8.211   8.973  0.0914  0.2493 -0.5349
27687SOL     OW90175  11.192   7.703   9.568 -0.6959 -0.5580  0.0844
27687SOL    HW190176  11.278   7.667   9.589  0.3398  0.4033 -2.2109
27687SOL    HW290177  11.180   7.685   9.475 -3.0711 -0.7764  0.3641
27688SOL     OW90178   9.753   8.303  12.172  0.1007  0.3860  0.0152
27688SOL    HW190179   9.661   8.276  12.174  0.4270 -0.9145 -0.8906
27688SOL    HW290180   9.792   8.259  12.247  0.5029 -1.2902 -1.1125
27689SOL     OW90181  12.823   7.002   0.168  0.1008 -0.0965 -0.0625
27689SOL    HW190182  12.814   7.038   0.257  1.5893 -1.8203  0.8589
27689SOL    HW290183  12.768   6.923   0.169  1.2867 -0.9444 -0.1458
27690SOL     OW90184   7.990   6.884   7.134 -0.3858 -0.4692 -0.4425
27690SOL    HW190185   8.069   6.832   7.151  1.6211  2.1526 -1.1049
27690SOL    HW290186   7.972   6.870   7.041  0.2937  0.1632 -0.6769
27691SOL     OW90187   5.790   8.375   1.061  0.0397  0.2118 -0.6128
27691SOL    HW190188   5.728   8.447   1.052 -0.6330 -0.1329  0.9087
27691SOL    HW290189   5.736   8.296   1.053  0.3936 -0.1012  0.0144
27692SOL     OW90190   0.310   0.153  12.946  0.4919  0.8865 -0.5181
27692SOL    HW190191   0.251   0.115  12.880 -0.1465  1.0371 -0.0404
27692SOL    HW290192   0.266   0.234  12.973  1.5119  1.6269 -1.0337
27693SOL     OW90193  11.192  10.334   4.148  0.2510  0.3913  0.3713
27693SOL    HW190194  11.149  10.365   4.069  0.2530 -0.0810  0.1772
27693SOL    HW290195  11.233  10.251   4.122  0.9597  0.6468  0.6523
27694SOL     OW90196   8.243   8.540   3.221 -0.5293 -0.1167  0.3522
27694SOL    HW190197   8.239   8.481   3.146  0.0903 -0.5349  0.6395
27694SOL    HW290198   8.238   8.628   3.183 -0.8744 -0.3345 -0.1223
27695SOL     OW90199   6.164   8.684   5.268  0.1400 -0.6346 -0.0020
27695SOL    HW190200   6.228   8.715   5.204  1.5948 -1.7951  0.8052
27695SOL    HW290201   6.190   8.726   5.350 -1.3117  0.3310  0.0070
27696SOL     OW90202  12.262   2.962   6.823 -0.2286 -0.5262  0.1156
27696SOL    HW190203  12.295   2.895   6.883  0.7920 -1.0843 -1.0070
27696SOL    HW290204  12.282   3.045   6.866  0.1621 -0.9223  0.7111
27697SOL     OW90205  10.329   8.979  11.245 -0.3311  0.0285 -0.1238
27697SOL    HW190206  10.315   8.911  11.179 -0.1353 -0.0356 -0.0984
27697SOL    HW290207  10.417   9.011  11.229 -0.0908 -0.3342  0.4232
27698SOL     OW90208   0.181   4.106   8.784  0.3096 -0.2913 -0.2252
27698SOL    HW190209   0.198   4.141   8.697  0.0653 -1.0730 -0.5980
27698SOL    HW290210   0.087   4.112   8.795  0.4340  0.7207  0.3955
27699SOL     OW90211   8.110   4.632   1.904 -0.6875  0.8210  0.1264
27699SOL    HW190212   8.042   4.633   1.836 -0.8494  1.4000  0.2900
27699SOL    HW290213   8.105   4.719   1.943  1.7955  1.7965 -1.4741
27700SOL     OW90214  11.193   9.549   5.025  0.7988 -0.0467  0.5403
27700SOL    HW190215  11.183   9.639   4.993  0.7997  0.0348  0.7729
27700SOL    HW290216  11.286   9.541   5.046  0.6989  0.0648  1.0251
27701SOL     OW90217  10.658   4.314   8.714 -0.4498 -0.6612 -0.0635
27701SOL    HW190218  10.746   4.276   8.709 -0.0684 -0.0795  1.6561
27701SOL    HW290219  10.672   4.408   8.701 -0.8133 -0.5576  0.2834
27702SOL     OW90220   1.943   0.378   2.226  0.4510 -0.2390  1.1065
27702SOL    HW190221   1.968   0.469   2.243 -1.8573  0.8810 -0.8186
27702SOL    HW290222   1.858   0.384   2.182  2.4559 -2.9492 -3.9766
27703SOL     OW90223  11.611   1.203   7.207 -0.3156  0.5777 -0.4562
27703SOL    HW190224  11.615   1.142   7.281  1.0464  1.3021  0.0886
27703SOL    HW290225  11.581   1.285   7.245  1.2553  1.2009 -0.5150
27704SOL     OW90226   1.626   7.071   2.049 -0.3245  0.5050  0.6363
27704SOL    HW190227   1.669   7.105   1.971  1.0799  0.4684  1.3668
27704SOL    HW290228   1.536   7.105   2.044 -1.0968 -1.5618 -2.2746
27705SOL     OW90229   6.815   4.803   7.461 -0.1435 -0.3037 -1.0813
27705SOL    HW190230   6.768   4.740   7.516  3.1823 -1.7239  0.4795
27705SOL    HW290231   6.798   4.888   7.501 -0.1742 -0.9656  0.3724
27706SOL     OW90232  11.069   6.655   7.666  0.5357 -0.4079  0.0574
27706SOL    HW190233  11.099   6.573   7.628 -0.0502 -0.8358  0.4896
27706SOL    HW290234  11.058   6.635   7.759  0.3009  0.1330  0.1471
27707SOL     OW90235   5.544   7.453  12.822 -0.5178 -0.1842  0.4659
27707SOL    HW190236   5.552   7.369  12.777 -0.7924  0.1071 -0.1460
27707SOL    HW290237   5.635   7.480  12.838 -0.3742  0.1102 -0.7134
27708SOL     OW90238   3.895  11.888   6.052 -0.3357  0.4021 -0.2039
27708SOL    HW190239   3.987  11.898   6.079 -0.9429  1.2550  1.7897
27708SOL    HW290240   3.878  11.794   6.061 -0.1778  0.4952  1.4727
27709SOL     OW90241   2.366   8.380   6.421  0.5748 -0.3773 -0.1942
27709SOL    HW190242   2.298   8.354   6.359  0.6581  0.1692 -0.5201
27709SOL    HW290243   2.343   8.335   6.502  0.4251 -1.0454 -0.5965
27710SOL     OW90244  11.531   2.012   7.079 -0.1493  0.4224  0.1266
27710SOL    HW190245  11.511   2.106   7.084  1.3018  0.8097 -0.7870
27710SOL    HW290246  11.446   1.969   7.090 -0.7335  1.8017  1.4221
27711SOL     OW90247  12.899  12.779  11.869  0.5956  0.0256 -0.4992
27711SOL    HW190248  12.835  12.737  11.927  2.9168 -1.5930  1.0945
27711SOL    HW290249  12.925  12.858  11.916 -0.3287  0.7791 -1.2320
27712SOL     OW90250   1.433   4.213  11.474 -0.0076 -0.4026  0.3675
27712SOL    HW190251   1.394   4.132  11.509  0.8282 -1.0046 -0.0577
27712SOL    HW290252   1.374   4.282  11.504 -0.7527 -1.1664  0.7324
27713SOL     OW90253  12.093   7.058   5.511 -0.2560 -0.0646  0.6378
27713SOL    HW190254  12.129   7.116   5.577  1.5975 -0.7041  0.2319
27713SOL    HW290255  12.043   7.115   5.454  0.9228  1.0298  0.6606
27714SOL     OW90256   7.317   4.288   7.415  0.8575  0.2042  0.4585
27714SOL    HW190257   7.405   4.255   7.430  0.0368 -1.9663  0.8857
27714SOL    HW290258   7.292   4.253   7.329  0.4436  0.8695  0.2979
27715SOL     OW90259  12.668  12.649   7.352  0.2698 -0.3846  1.1561
27715SOL    HW190260  12.596  12.634   7.291  0.1418  1.5467  0.7692
27715SOL    HW290261  12.738  12.591   7.321 -0.1520 -0.2091 -0.1902
27716SOL     OW90262   0.252   8.038   1.969 -0.3439  0.0999  0.7714
27716SOL    HW190263   0.223   8.115   1.920 -0.6856 -0.4324  0.1240
27716SOL    HW290264   0.231   8.059   2.060 -1.1120  0.4769  0.5218
27717SOL     OW90265  12.399   0.043  10.084 -0.4469  0.2887 -0.5799
27717SOL    HW190266  12.311   0.062  10.052 -0.4930 -0.0824 -0.6835
27717SOL    HW290267  12.455   0.047  10.007 -0.0154  2.5697 -0.2051
27718SOL     OW90268  11.085   0.532  12.035  0.6365 -0.2487  0.0134
27718SOL    HW190269  11.173   0.546  12.071  0.4474 -0.7357  0.6744
27718SOL    HW290270  11.100   0.514  11.942  1.0787  1.6852 -0.3221
27719SOL     OW90271   2.943   5.305   8.495  0.2777  0.3903 -0.1028
27719SOL    HW190272   3.011   5.249   8.534 -0.4928  0.6811  1.7894
27719SOL    HW290273   2.888   5.244   8.445 -0.5221 -0.6286  1.8868
27720SOL     OW90274   5.547   9.057  10.819  0.0039 -0.3407  0.8054
27720SOL    HW190275   5.529   9.116  10.892  0.0914  0.5435  0.1205
27720SOL    HW290276   5.506   8.974  10.845 -3.2908  0.9471  0.2624
27721SOL     OW90277   5.710   4.457   6.932 -0.3057  0.3501  0.0095
27721SOL    HW190278   5.617   4.438   6.943  0.5804 -3.8636  1.9812
27721SOL    HW290279   5.741   4.393   6.868  1.3443  1.5332 -0.4643
27722SOL     OW90280   5.336   7.107   6.193  0.2471 -0.4517  0.0244
27722SOL    HW190281   5.340   7.076   6.284 -1.0213 -0.2679  0.1619
27722SOL    HW290282   5.265   7.057   6.154  0.3300 -0.0300 -0.6767
27723SOL     OW90283   2.534  11.892   1.964  0.3089  0.3533 -0.0337
27723SOL    HW190284   2.533  11.911   2.058  1.7780  0.0119  0.0669
27723SOL    HW290285   2.593  11.958   1.927  1.7781 -1.0806 -0.3398
27724SOL     OW90286  11.844   8.240  11.501  0.2628  0.2559  0.3989
27724SOL    HW190287  11.904   8.188  11.448  1.4152 -0.0021  1.9006
27724SOL    HW290288  11.803   8.300  11.438  0.9752 -0.5621 -0.9015
27725SOL     OW90289   3.065   7.883   6.977 -0.4176 -0.0260  0.0617
27725SOL    HW190290   3.043   7.806   7.029 -0.4236  0.7503  1.2561
27725SOL    HW290291   3.080   7.850   6.889  1.9559 -1.7481  1.0347
27726SOL     OW90292   3.865  10.516   1.801 -0.3275  0.2906 -0.0578
27726SOL    HW190293   3.866  10.421   1.806 -0.1845  0.2100 -1.3770
27726SOL    HW290294   3.935  10.538   1.740 -1.1587  1.1716 -0.7187
27727SOL     OW90295   5.875   4.373   5.963 -0.2350  0.3173  0.0716
27727SOL    HW190296   5.852   4.296   6.014 -0.5590 -0.0652 -0.6314
27727SOL    HW290297   5.968   4.386   5.980 -0.0725 -0.4921 -0.1329
27728SOL     OW90298   8.882  11.632  12.432 -0.1354 -0.2510  0.2087
27728SOL    HW190299   8.840  11.558  12.388  0.2556 -1.0796  1.1729
27728SOL    HW290300   8.816  11.700  12.433 -1.7809 -1.7196  2.2209
27729SOL     OW90301   3.553   2.951   0.159  0.1118 -0.5006 -0.4377
27729SOL    HW190302   3.613   2.879   0.181  1.4908  0.4886 -0.7855
27729SOL    HW290303   3.595   2.994   0.085  0.0012  1.4316  0.5667
27730SOL     OW90304   7.414   0.840   8.531 -0.2155 -0.1467  0.0710
27730SOL    HW190305   7.482   0.782   8.497 -0.4410 -0.9246  0.9296
27730SOL    HW290306   7.455   0.884   8.606 -0.1076  0.6761 -0.4540
27731SOL     OW90307   9.901  10.077   3.059  0.2912  0.0219  0.1622
27731SOL    HW190308   9.988  10.104   3.088  0.6761 -1.4294  0.4191
27731SOL    HW290309   9.909  10.067   2.964  0.5215 -0.4648  0.2276
27732SOL     OW90310   0.798   0.649   1.183 -0.5590  0.1362 -0.3630
27732SOL    HW190311   0.811   0.555   1.174  0.1862  0.2178 -0.1975
27732SOL    HW290312   0.785   0.680   1.093 -2.8688 -0.3877 -0.2650
27733SOL     OW90313  12.501   8.506   1.439 -0.5841 -0.1480 -0.5964
27733SOL    HW190314  12.468   8.417   1.455  1.3228 -0.6354  1.2708
27733SOL    HW290315  12.543   8.501   1.353  0.4542 -1.4140 -0.0524
27734SOL     OW90316   4.012  10.629   1.530 -0.1477  0.2631  0.1136
27734SOL    HW190317   4.066  10.620   1.452 -0.1336  1.7662 -0.0791
27734SOL    HW290318   3.926  10.597   1.503 -0.3505  1.5134 -0.7850
27735SOL     OW90319  11.211   7.123   7.831  0.3947 -0.6338 -0.1202
27735SOL    HW190320  11.132   7.072   7.818 -0.2143 -0.0840  1.1970
27735SOL    HW290321  11.280   7.058   7.847 -0.2019 -1.0819  0.7090
27736SOL     OW90322   1.001  12.624   0.303 -0.0084 -0.6547  0.1382
27736SOL    HW190323   1.010  12.713   0.337  0.6690 -0.4585 -0.5116
27736SOL    HW290324   0.931  12.630   0.238  0.0338 -0.5956  0.0979
27737SOL     OW90325   8.704   6.788  10.638  0.0127 -0.2943  0.0918
27737SOL    HW190326   8.738   6.871  10.673 -0.1037 -0.7690  1.3654
27737SOL    HW290327   8.782   6.740  10.611  0.0124  1.1154 -2.8800
27738SOL     OW90328   9.193  10.640   9.963  0.4582 -0.0062 -0.0795
27738SOL    HW190329   9.142  10.572   9.917  1.0068  0.2086 -1.0349
27738SOL    HW290330   9.190  10.614  10.055 -3.3593  1.2135  0.3310
27739SOL     OW90331   4.839   7.272  12.823  0.8586  0.0496 -0.4853
27739SOL    HW190332   4.884   7.287  12.740  0.9271 -1.6729 -0.8062
27739SOL    HW290333   4.888   7.200  12.864 -0.7696 -0.9658 -0.2282
27740SOL     OW90334  12.144  12.099   6.123  0.5740  0.4800 -0.2283
27740SOL    HW190335  12.073  12.147   6.080 -1.4821 -1.5571  0.6192
27740SOL    HW290336  12.218  12.107   6.063 -0.6578  1.8881 -1.6688
27741SOL     OW90337  12.543   3.255   0.762  0.0943 -0.5754 -0.4838
27741SOL    HW190338  12.558   3.344   0.730  0.3515 -0.1083  0.8792
27741SOL    HW290339  12.561   3.199   0.686  0.9923  0.4587 -1.0622
27742SOL     OW90340   2.435   6.543   7.802  0.2195  0.2040 -0.4410
27742SOL    HW190341   2.411   6.500   7.720 -2.8285  0.5661  0.1445
27742SOL    HW290342   2.393   6.490   7.870  0.1543  1.5830  0.6464
27743SOL     OW90343  11.496   2.888   2.934 -0.1863  0.0818  0.0436
27743SOL    HW190344  11.464   2.800   2.914 -0.9388 -0.0095  1.5282
27743SOL    HW290345  11.418   2.942   2.940  0.1398  0.4754  0.8682
27744SOL     OW90346   6.810   2.247   3.104 -0.4388  0.2339  0.4830
27744SOL    HW190347   6.757   2.246   3.184  0.4478  2.2567  1.1535
27744SOL    HW290348   6.807   2.338   3.074  0.0654 -0.2820 -1.2584
27745SOL     OW90349   2.784   5.202   9.246  0.1271 -0.6439  0.2162
27745SOL    HW190350   2.698   5.159   9.248  0.9915 -2.8030 -2.3277
27745SOL    HW290351   2.787   5.246   9.161  0.6793  1.5491  1.2936
27746SOL     OW90352   7.058   9.904  10.436 -0.0349 -0.5609 -0.4450
27746SOL    HW190353   7.133   9.866  10.480 -1.0380 -2.1953 -0.0670
27746SOL    HW290354   6.994   9.833  10.430 -1.3301  0.6041 -1.2831
27747SOL     OW90355   5.646   6.479  10.528  0.1578  0.0502 -0.1666
27747SOL    HW190356   5.720   6.498  10.471  1.5206 -0.3104  1.3988
27747SOL    HW290357   5.585   6.551  10.514  1.4923  1.1777 -0.4016
27748SOL     OW90358   2.123   4.983   5.806  0.2265  0.0592  0.6966
27748SOL    HW190359   2.083   5.037   5.737  0.3044 -1.9654 -1.0531
27748SOL    HW290360   2.216   4.981   5.785  1.4663  4.3080  4.4527
27749SOL     OW90361  11.546   5.135   2.788  0.3642 -0.5600  0.2184
27749SOL    HW190362  11.593   5.143   2.871 -0.6763 -1.4703  0.9083
27749SOL    HW290363  11.474   5.198   2.794  1.4258  0.8510 -0.8507
27750SOL     OW90364   8.323   3.133   7.385 -0.0060  0.5999 -0.4353
27750SOL    HW190365   8.262   3.174   7.324 -0.5020  1.1647  0.4130
27750SOL    HW290366   8.305   3.176   7.469 -0.5913 -1.3932  0.5082
27751SOL     OW90367  12.906  10.049   5.333 -0.4279  0.4327  0.2647
27751SOL    HW190368  12.817  10.047   5.297 -0.4130 -0.7104  0.2351
27751SOL    HW290369  12.924   9.958   5.357 -0.1063  1.0131  2.3789
27752SOL     OW90370   4.171   7.117   8.046  0.4854  0.6270 -0.1608
27752SOL    HW190371   4.168   7.153   7.957  0.5151  1.9037  0.3338
27752SOL    HW290372   4.236   7.047   8.041 -0.8723 -0.6015 -1.5759
27753SOL     OW90373   2.557   2.021   3.114  0.5229 -0.0345 -0.3430
27753SOL    HW190374   2.568   1.933   3.080  0.9589 -0.1916  0.1871
27753SOL    HW290375   2.467   2.044   3.092 -1.0512 -2.1669  2.9345
27754SOL     OW90376   0.057   1.794   5.821 -0.3958 -0.1921  0.4352
27754SOL    HW190377  -0.019   1.756   5.776  0.4515 -0.2559 -0.9822
27754SOL    HW290378   0.056   1.751   5.907 -0.7690 -1.7850 -0.3119
27755SOL     OW90379   8.208   3.781   2.694 -0.0781  0.3689 -0.6433
27755SOL    HW190380   8.263   3.825   2.759 -0.2409  1.0946 -0.9839
27755SOL    HW290381   8.138   3.740   2.746  0.9046 -0.7960 -0.1816
27756SOL     OW90382   5.329   0.949  10.029  0.2227 -0.4788 -0.5414
27756SOL    HW190383   5.370   1.033  10.048 -0.5853 -0.3174  0.6652
27756SOL    HW290384   5.333   0.901  10.112 -1.2948 -0.7500 -0.5847
27757SOL     OW90385   8.039   7.269   6.512  0.0645 -0.4058 -0.0807
27757SOL    HW190386   8.129   7.278   6.543  0.0839  0.2148 -0.3014
27757SOL    HW290387   8.047   7.223   6.428  0.1480 -0.6252  0.0470
27758SOL     OW90388   0.929   6.237   5.362 -0.1262 -0.2644 -0.3660
27758SOL    HW190389   0.841   6.202   5.379 -0.0135  0.4252  1.8693
27758SOL    HW290390   0.986   6.160   5.363 -0.2386 -0.3813  1.9297
27759SOL     OW90391  12.646   2.914   7.823 -0.1032 -0.3503  0.7351
27759SOL    HW190392  12.618   2.897   7.913 -0.7232  1.5203  0.9437
27759SOL    HW290393  12.741   2.907   7.826 -0.0657  0.4311  1.7243
27760SOL     OW90394   6.281   1.688   3.633 -0.0865 -0.1215  0.1799
27760SOL    HW190395   6.223   1.666   3.706 -0.1320 -0.3271  0.0825
27760SOL    HW290396   6.237   1.761   3.589  0.9622  1.4254  1.5857
27761SOL     OW90397  12.944  11.959   0.817 -0.6414  0.2728 -0.0902
27761SOL    HW190398  12.926  11.958   0.723 -1.9713  0.3196  0.1531
27761SOL    HW290399  12.917  11.873   0.848 -0.5159  0.3716  0.3019
27762SOL     OW90400  10.889   7.941   1.490 -0.4566 -0.0677  0.3399
27762SOL    HW190401  10.974   7.949   1.533 -0.9927  0.9651  1.2832
27762SOL    HW290402  10.841   7.877   1.543 -0.7537  0.4248  0.6789
27763SOL     OW90403   8.323   4.243   0.632  0.2712  0.4731 -0.5613
27763SOL    HW190404   8.258   4.180   0.664  1.4077 -1.9877 -2.7399
27763SOL    HW290405   8.271   4.315   0.597 -1.3370 -1.2614 -1.9433
27764SOL     OW90406   6.966  11.053   1.487 -0.2666  0.5336 -0.3590
27764SOL    HW190407   7.048  11.096   1.512 -0.3694  0.9288 -0.6870
27764SOL    HW290408   6.957  10.980   1.548  0.8467 -0.1246 -0.9472
27765SOL     OW90409  10.306   3.296   8.736  0.1779 -0.5318  0.5953
27765SOL    HW190410  10.353   3.236   8.793  0.5955  0.4339  1.2841
27765SOL    HW290411  10.374   3.352   8.697 -0.2890  0.2190  0.8252
27766SOL     OW90412  12.566   3.289   6.347  0.3312  0.3327 -0.3621
27766SOL    HW190413  12.531   3.218   6.293  0.3095  0.1797 -0.1497
27766SOL    HW290414  12.657   3.298   6.319  0.7265 -0.6642  0.4970
27767SOL     OW90415  10.797   5.995   5.162 -0.4158 -0.6600 -0.0596
27767SOL    HW190416  10.777   5.997   5.068  1.3214 -0.2164 -0.4547
27767SOL    HW290417  10.851   5.917   5.174 -1.8955 -1.5844  0.8835
27768SOL     OW90418   2.017  11.569   5.366 -0.0546  0.1664 -0.0099
27768SOL    HW190419   1.963  11.495   5.340 -0.7835  0.6666  0.0720
27768SOL    HW290420   1.957  11.642   5.371  0.2959  0.3663  1.8025
27769SOL     OW90421   5.152   4.989   9.463 -0.0708 -0.0676  0.1915
27769SOL    HW190422   5.242   4.997   9.495  0.3767 -5.1895  1.0572
27769SOL    HW290423   5.159   5.010   9.369  2.2857 -1.2102  0.0332
27770SOL     OW90424   6.763   6.751   8.081 -0.3130  0.1837 -0.4176
27770SOL    HW190425   6.692   6.807   8.111 -0.1416 -1.7064  4.4616
27770SOL    HW290426   6.721   6.672   8.049 -0.4882 -0.1855  0.6936
27771SOL     OW90427   0.346   7.588   4.686  0.0174 -0.9557  0.1910
27771SOL    HW190428   0.396   7.670   4.679 -1.6195  0.0209 -0.8367
27771SOL    HW290429   0.331   7.577   4.780 -0.4159  0.3916  0.3050
27772SOL     OW90430  12.377  11.438   1.803 -0.5096  0.5417  0.3409
27772SOL    HW190431  12.324  11.371   1.759  2.0733 -1.6933  0.3473
27772SOL    HW290432  12.325  11.465   1.878 -1.4400 -1.9927  0.7062
27773SOL     OW90433   8.302   5.644   5.086  0.1815 -0.3786 -0.1159
27773SOL    HW190434   8.337   5.690   5.009  2.4175 -0.7957  0.5770
27773SOL    HW290435   8.226   5.597   5.053  2.4639 -2.5788 -2.7820
27774SOL     OW90436  12.407   7.014   7.328  1.2938 -0.3455  0.0981
27774SOL    HW190437  12.484   7.070   7.343 -0.2077  1.3469  2.1120
27774SOL    HW290438  12.353   7.027   7.405 -1.3474 -0.9448 -1.5252
27775SOL     OW90439  10.736  10.015   0.051 -0.0234 -0.1884  0.3257
27775SOL    HW190440  10.706  10.033  -0.038  0.7829 -0.1024  0.0614
27775SOL    HW290441  10.681   9.943   0.081 -2.1329  1.5047  0.7692
27776SOL     OW90442   3.384  12.794   5.769  0.0481  0.2030 -0.0916
27776SOL    HW190443   3.321  12.860   5.800 -0.4869 -0.1279 -0.4536
27776SOL    HW290444   3.388  12.809   5.675 -1.2696 -1.2806 -0.4167
27777SOL     OW90445   7.414   4.909   0.015  0.5711 -0.2651  0.1474
27777SOL    HW190446   7.371   4.823   0.022  1.7323 -0.7716  1.9279
27777SOL    HW290447   7.492   4.893  -0.038  0.2042 -0.0490 -0.4628
27778SOL     OW90448   7.146   6.574   9.403  0.2406 -0.2594 -0.2986
27778SOL    HW190449   7.231   6.544   9.438 -0.2205 -0.7477  0.4366
27778SOL    HW290450   7.168   6.648   9.347  1.3497 -1.5559 -1.6537
27779SOL     OW90451   9.074   3.585  11.005 -0.7080 -0.6169  0.6895
27779SOL    HW190452   9.148   3.618  10.954 -1.0787  1.0300  1.1841
27779SOL    HW290453   8.997   3.603  10.951 -1.2643  2.3781  2.2508
27780SOL     OW90454   8.597   1.972   7.558  0.1087  0.1171 -0.6045
27780SOL    HW190455   8.504   1.951   7.562 -0.2758  0.9768 -3.1102
27780SOL    HW290456   8.638   1.893   7.523 -0.1677  0.6899 -2.3291
27781SOL     OW90457  12.454   2.640  10.468  0.1998  0.6096  0.3333
27781SOL    HW190458  12.528   2.597  10.425 -0.7991  0.4033 -1.2733
27781SOL    HW290459  12.490   2.676  10.548  2.4383  2.0313 -1.2197
27782SOL     OW90460  12.144   4.844   7.840 -0.5829  0.5214 -0.4961
27782SOL    HW190461  12.228   4.887   7.824 -0.3876  0.7013  0.8290
27782SOL    HW290462  12.162   4.751   7.825  0.1973  0.4161  0.8756
27783SOL     OW90463   5.218   0.834   9.820  0.4147 -0.1216 -0.3571
27783SOL    HW190464   5.260   0.895   9.882  1.1170 -0.0387 -0.9032
27783SOL    HW290465   5.147   0.795   9.870 -0.2092  1.3271 -0.0595
27784SOL     OW90466   3.847   6.732   5.091 -0.2069  0.4432 -0.2660
27784SOL    HW190467   3.755   6.716   5.071  0.0229  0.1977 -1.1742
27784SOL    HW290468   3.875   6.796   5.026  0.6387 -0.5919 -0.9374
27785SOL     OW90469   8.781   2.370   5.811  0.3746 -0.2952 -0.8335
27785SOL    HW190470   8.699   2.391   5.765  0.0820  0.7696  0.1091
27785SOL    HW290471   8.758   2.297   5.868 -0.6387  1.4053  1.1264
27786SOL     OW90472   0.597   2.665   0.834  0.1132  0.0907  0.3731
27786SOL    HW190473   0.541   2.734   0.871 -0.7480 -0.5126  0.2212
27786SOL    HW290474   0.640   2.707   0.760 -2.5761 -0.2697 -1.5195
27787SOL     OW90475   2.994   7.326   9.500  0.3062 -0.4151 -0.2873
27787SOL    HW190476   3.044   7.353   9.423  0.4666 -1.2591 -0.4978
27787SOL    HW290477   2.939   7.254   9.468 -0.5653  0.0717  0.0919
27788SOL     OW90478   8.790   9.978  12.083  0.3006  0.3138 -0.2675
27788SOL    HW190479   8.867  10.012  12.039 -0.7200  0.0647 -2.3591
27788SOL    HW290480   8.730   9.955  12.013 -0.5430 -2.2853  1.1589
27789SOL     OW90481   6.083  12.944   5.119 -0.1545  0.4756 -0.3281
27789SOL    HW190482   6.172  12.907   5.116  0.5022  1.5767  2.5161
27789SOL    HW290483   6.036  12.889   5.181 -0.1073  2.3923  1.5117
27790SOL     OW90484   7.938  10.297  12.687 -0.0228  0.0322 -0.0114
27790SOL    HW190485   7.851  10.276  12.722  0.4119  0.6202  1.4851
27790SOL    HW290486   7.968  10.372  12.739  0.8728  0.6546 -1.3508
27791SOL     OW90487   3.531   1.755   0.526 -0.7248 -0.2688 -0.1837
27791SOL    HW190488   3.474   1.686   0.561 -1.9179  0.0695 -1.3637
27791SOL    HW290489   3.530   1.824   0.593  2.9518 -2.4743  2.5095
27792SOL     OW90490   8.716   9.823   0.870  0.5173 -0.1077 -0.4045
27792SOL    HW190491   8.742   9.899   0.817  0.5841 -0.3546 -0.7305
27792SOL    HW290492   8.649   9.857   0.929 -0.1123  0.0077 -1.1657
27793SOL     OW90493   1.695   1.229   8.593  0.2732  0.3669  0.6243
27793SOL    HW190494   1.741   1.160   8.641 -0.0027 -0.6297 -0.4944
27793SOL    HW290495   1.667   1.290   8.660 -0.5205 -1.2140  1.7944
27794SOL     OW90496   5.038   4.425   2.098 -0.8103  0.9640 -0.3204
27794SOL    HW190497   4.987   4.354   2.059 -0.4412 -0.7501  2.0981
27794SOL    HW290498   5.126   4.391   2.105 -0.8284  1.2129  1.8126
27795SOL     OW90499   0.427   4.041   9.019  0.2662 -0.4381  0.3077
27795SOL    HW190500   0.352   4.098   9.002 -0.0327 -0.9031  0.0566
27795SOL    HW290501   0.439   4.046   9.114 -1.7076 -2.3434  0.7437
27796SOL     OW90502   2.870  11.538   6.866 -0.1632  0.2272 -0.9114
27796SOL    HW190503   2.956  11.501   6.848 -0.2602 -0.4657 -0.0570
27796SOL    HW290504   2.832  11.479   6.932 -0.4931  1.6421  0.2060
27797SOL     OW90505   9.745   8.168   2.374  0.5804  0.1540  0.1506
27797SOL    HW190506   9.775   8.258   2.386  0.1791  0.3342 -0.1697
27797SOL    HW290507   9.651   8.171   2.390 -0.3639  0.7548 -4.1555
27798SOL     OW90508   0.644  10.211  12.794  0.1384  0.2220 -0.1562
27798SOL    HW190509   0.736  10.220  12.772  0.4264  0.4397  1.0744
27798SOL    HW290510   0.604  10.292  12.761  0.0147 -0.6403 -2.3045
27799SOL     OW90511  11.652   7.766   5.348  0.2713 -0.1437  0.2575
27799SOL    HW190512  11.665   7.855   5.382 -0.5311  0.4583 -0.9528
27799SOL    HW290513  11.741   7.729   5.345  0.4184 -0.2000  2.7887
27800SOL     OW90514   7.481   1.311  11.219 -0.0032 -0.2051  0.6867
27800SOL    HW190515   7.483   1.362  11.137 -0.4225  0.1909  0.9178
27800SOL    HW290516   7.390   1.313  11.247  0.0805 -0.6109  1.0009
27801SOL     OW90517   8.401  10.196   4.415  0.1391  0.7814  0.2549
27801SOL    HW190518   8.359  10.129   4.360  1.6205  1.0982 -1.3342
27801SOL    HW290519   8.328  10.237   4.462 -0.8680 -1.6100  0.9724
27802SOL     OW90520  10.076   8.160   5.923 -0.1496  0.5265 -0.5678
27802SOL    HW190521  10.093   8.131   5.834 -0.0105  0.5463 -0.5472
27802SOL    HW290522   9.995   8.211   5.917 -1.0612 -0.8361 -0.4242
27803SOL     OW90523   6.099   4.237  12.193 -0.2273  0.2135 -0.0753
27803SOL    HW190524   6.139   4.152  12.172  1.4741  1.9289 -5.1111
27803SOL    HW290525   6.174   4.295  12.209 -1.2182  1.4892  0.0662
27804SOL     OW90526  12.308   0.543   7.582 -0.0106 -0.0718 -0.0910
27804SOL    HW190527  12.395   0.549   7.543 -0.1769  0.5027 -0.3915
27804SOL    HW290528  12.276   0.634   7.584  0.1158 -0.0230  1.6826
27805SOL     OW90529   3.266   6.294   8.828 -0.0473 -0.0399  0.5985
27805SOL    HW190530   3.236   6.287   8.737  0.2309 -1.4424  0.5844
27805SOL    HW290531   3.229   6.377   8.860  1.4490  1.4670 -1.3617
27806SOL     OW90532   0.102   2.856   6.167  0.1707 -0.2744  0.5286
27806SOL    HW190533   0.042   2.815   6.106 -0.1099  0.6879  0.1425
27806SOL    HW290534   0.082   2.816   6.252  0.7998 -1.8720 -0.0409
27807SOL     OW90535   1.156   1.394   6.068 -0.0100 -0.1129 -0.6940
27807SOL    HW190536   1.143   1.449   6.145  0.7232 -0.9979  0.0962
27807SOL    HW290537   1.251   1.398   6.052 -0.0869 -0.3648 -1.2180
27808SOL     OW90538   0.187   9.287   0.345  0.4671 -0.3119  0.7580
27808SOL    HW190539   0.263   9.322   0.299  2.2185 -3.6196  0.8523
27808SOL    HW290540   0.197   9.319   0.435  0.2479  1.3946  0.2113
27809SOL     OW90541  10.652   8.167   2.980  0.1714 -0.1129  0.6752
27809SOL    HW190542  10.657   8.123   2.895  0.1106 -1.4041  1.3111
27809SOL    HW290543  10.569   8.215   2.978 -1.2568 -2.3836  0.9905
27810SOL     OW90544   5.136   4.664  12.573  0.3027 -0.3856 -0.4282
27810SOL    HW190545   5.115   4.589  12.517  1.4589 -1.7002  0.8334
27810SOL    HW290546   5.123   4.632  12.662  0.1295  1.1587  0.1420
27811SOL     OW90547   1.005  12.603   8.153 -0.2545  0.5045  0.0209
27811SOL    HW190548   1.063  12.633   8.083  3.0974 -2.4223  1.2439
27811SOL    HW290549   1.031  12.654   8.230  1.5550 -1.4045  0.7836
27812SOL     OW90550   2.672   1.687   8.120 -0.2035  0.0123  0.0402
27812SOL    HW190551   2.692   1.719   8.032  1.1442 -2.3420 -0.6030
27812SOL    HW290552   2.742   1.722   8.175 -1.7835  2.6146  0.5532
27813SOL     OW90553   9.529   9.947   8.611  0.1519  0.0048  0.0711
27813SOL    HW190554   9.587   9.884   8.654  2.8110  2.8917  1.1330
27813SOL    HW290555   9.475   9.982   8.682  0.0546  0.2721 -0.1338
27814SOL     OW90556   4.770   9.839   7.198 -0.3740  0.3479  0.2927
27814SOL    HW190557   4.686   9.802   7.173 -1.0279  0.6615  1.9081
27814SOL    HW290558   4.758   9.934   7.189  0.1877  0.3590 -0.5239
27815SOL     OW90559   0.715   9.686   6.162  0.3462 -0.2689  0.0616
27815SOL    HW190560   0.791   9.699   6.219  1.1501  0.6306 -1.1715
27815SOL    HW290561   0.641   9.723   6.211  1.1752  1.3136  0.1651
27816SOL     OW90562   9.130   1.984   9.430 -0.1345  0.2861 -0.4032
27816SOL    HW190563   9.224   2.001   9.437 -0.0942 -0.0180 -0.1584
27816SOL    HW290564   9.106   2.016   9.343  0.1900  0.3940 -0.4540
27817SOL     OW90565   3.620   0.634   0.949  0.0258  0.2681 -0.0469
27817SOL    HW190566   3.644   0.713   0.996  0.1863 -0.4881  1.1661
27817SOL    HW290567   3.536   0.608   0.988  0.0331 -0.2257 -0.3564
27818SOL     OW90568  12.228   1.018  11.262  0.2370 -0.0408 -0.0467
27818SOL    HW190569  12.169   1.056  11.198  0.6434  0.7032  0.0039
27818SOL    HW290570  12.315   1.044  11.233  0.4075  0.6537  1.0034
27819SOL     OW90571  11.201  10.543   5.558  0.3065  0.5271  0.5883
27819SOL    HW190572  11.258  10.562   5.483 -0.8521 -0.8163 -0.6903
27819SOL    HW290573  11.165  10.628   5.584  0.4123  0.9609 -0.6329
27820SOL     OW90574   9.255   5.498   3.893  0.2746 -0.0273 -0.7715
27820SOL    HW190575   9.259   5.557   3.968 -1.6822 -1.0273  0.1982
27820SOL    HW290576   9.166   5.510   3.858  0.1444 -1.6880 -1.1112
27821SOL     OW90577   3.437   7.183   3.711 -0.5169 -1.0012 -0.6768
27821SOL    HW190578   3.488   7.232   3.647 -1.4206 -0.5669 -1.0771
27821SOL    HW290579   3.427   7.243   3.785 -1.7070 -0.5243 -1.2063
27822SOL     OW90580   8.466  12.514   9.621 -0.2181  0.3122  0.5281
27822SOL    HW190581   8.552  12.507   9.579 -0.4792  0.1921  0.0147
27822SOL    HW290582   8.451  12.608   9.627 -0.3444  0.3285  0.0102
27823SOL     OW90583   4.724  12.137   2.688  0.0424  0.0410  0.0323
27823SOL    HW190584   4.802  12.156   2.636 -1.8473  0.4123 -2.8817
27823SOL    HW290585   4.714  12.042   2.680  0.8645 -0.2029  1.5325
27824SOL     OW90586   3.363   1.565   0.643 -0.2575  0.6566  0.2688
27824SOL    HW190587   3.300   1.618   0.594 -1.4577  2.8755  3.7839
27824SOL    HW290588   3.324   1.478   0.647 -0.4602  0.6038 -1.9313
27825SOL     OW90589  11.130  11.801  11.487  0.3652 -0.3043  0.1929
27825SOL    HW190590  11.181  11.720  11.497  2.9083  1.0754 -0.6229
27825SOL    HW290591  11.146  11.850  11.568  0.5710  0.2627 -0.1859
27826SOL     OW90592  11.988   3.666   8.641 -0.0776  0.2793  0.0564
27826SOL    HW190593  12.039   3.587   8.660  0.9463  1.3980  2.3093
27826SOL    HW290594  11.901   3.648   8.678 -0.5784 -0.6156 -1.4619
27827SOL     OW90595   7.795   7.327   6.631 -0.4061  0.5493  0.5343
27827SOL    HW190596   7.879   7.295   6.599 -0.6598 -0.0566  0.4558
27827SOL    HW290597   7.807   7.421   6.640 -0.4402  0.8125 -1.7326
27828SOL     OW90598  12.609  12.592   7.619  0.1445 -0.0338 -0.2824
27828SOL    HW190599  12.589  12.500   7.606  0.2824  0.2098 -2.5592
27828SOL    HW290600  12.617  12.628   7.531  1.0624  1.9533  0.5459
27829SOL     OW90601  12.508   3.714   1.464 -0.5870  0.1813  0.2250
27829SOL    HW190602  12.485   3.726   1.372  2.1577 -1.3486 -0.7760
27829SOL    HW290603  12.451   3.643   1.494  0.0480 -0.9083 -1.0308
27830SOL     OW90604   9.759   9.914   5.519 -0.2067 -0.1364  0.3637
27830SOL    HW190605   9.749   9.999   5.561 -1.7194  0.1424 -0.4611
27830SOL    HW290606   9.830   9.926   5.456  0.1655  0.2565  0.8566
27831SOL     OW90607   7.333   1.042   6.237  0.0728  0.6350 -0.7745
27831SOL    HW190608   7.363   1.128   6.266 -0.1507 -0.0081  1.5330
27831SOL    HW290609   7.410   0.986   6.245 -0.0450  0.3943 -1.2923
27832SOL     OW90610   2.139   6.835   5.029  0.0926 -0.1259  0.1228
27832SOL    HW190611   2.118   6.910   5.085  1.4091 -0.0010  0.4828
27832SOL    HW290612   2.208   6.868   4.971 -0.7633 -0.4590 -1.1248
27833SOL     OW90613   1.079  12.748   6.078  0.0937  0.0390  0.4987
27833SOL    HW190614   1.111  12.664   6.111 -0.2970 -0.3135 -0.0158
27833SOL    HW290615   1.041  12.791   6.155  0.1162 -0.3414  0.7216
27834SOL     OW90616   4.176   4.677   1.434 -0.1035  0.3303 -0.1525
27834SOL    HW190617   4.217   4.630   1.362  0.6156  0.9901 -0.1864
27834SOL    HW290618   4.197   4.624   1.511  0.4924  0.4548 -0.2222
27835SOL     OW90619  10.998   6.963   7.790 -0.1238  0.2103 -0.8595
27835SOL    HW190620  10.938   6.926   7.854 -1.1369  2.8080 -0.1838
27835SOL    HW290621  10.942   6.984   7.715 -0.4510  3.5921  0.1550
27836SOL     OW90622  11.851  10.121   4.095  0.5775 -0.0717 -0.9650
27836SOL    HW190623  11.828  10.151   4.183 -1.3019 -0.4425 -1.3024
27836SOL    HW290624  11.877  10.201   4.049  1.6972  0.1096 -0.0688
27837SOL     OW90625   4.833   6.178   4.126  0.0813  0.4494 -0.0407
27837SOL    HW190626   4.811   6.103   4.071  1.0307 -0.5229  0.8654
27837SOL    HW290627   4.873   6.241   4.066  1.1353 -0.6070 -0.4783
27838SOL     OW90628   3.191  12.499   1.086  0.1797 -0.1843  0.3657
27838SOL    HW190629   3.139  12.440   1.140 -0.1966 -1.3139 -1.1512
27838SOL    HW290630   3.127  12.543   1.030  0.7984 -2.0241 -1.9370
27839SOL     OW90631  10.486  10.346   2.308 -0.0569  0.4844  0.3464
27839SOL    HW190632  10.413  10.297   2.268  1.6628 -2.2225  0.2214
27839SOL    HW290633  10.511  10.293   2.384 -0.0770  2.9505  2.1726
27840SOL     OW90634   5.833  10.858   3.244 -0.3678 -0.2695 -0.6194
27840SOL    HW190635   5.904  10.819   3.194  1.1191 -0.4032  1.4466
27840SOL    HW290636   5.767  10.789   3.252  1.1159 -1.5884  0.8575
27841SOL     OW90637   0.751   8.200   3.161 -0.1918  0.3061 -0.3266
27841SOL    HW190638   0.825   8.246   3.122  0.5307 -1.3953 -1.0864
27841SOL    HW290639   0.675   8.232   3.112 -0.2141  2.8991  1.1933
27842SOL     OW90640   8.293   3.954   8.967 -0.0796 -1.0448 -0.0679
27842SOL    HW190641   8.260   4.011   8.897 -1.0636 -0.6759  0.6634
27842SOL    HW290642   8.215   3.910   9.000 -0.2286  1.1062  2.8495
27843SOL     OW90643   3.104   1.600  10.929 -0.2895  0.3733  0.5568
27843SOL    HW190644   3.015   1.612  10.895 -0.4878 -1.2525  0.4247
27843SOL    HW290645   3.119   1.677  10.984 -1.4361  1.1120 -0.1115
27844SOL     OW90646   0.409   6.010   8.702 -0.0011 -0.4613  0.2024
27844SOL    HW190647   0.412   5.956   8.781 -1.0251 -1.7724 -0.6187
27844SOL    HW290648   0.354   6.084   8.726 -0.0255 -0.6698  0.8149
27845SOL     OW90649   6.535   3.262   9.860 -0.2731  0.3666 -0.0893
27845SOL    HW190650   6.507   3.349   9.833 -2.3184 -0.2197 -0.0298
27845SOL    HW290651   6.495   3.250   9.946  0.2495 -0.5208  0.0457
27846SOL     OW90652  12.713   2.515   1.210 -0.1337  0.0425 -0.0229
27846SOL    HW190653  12.634   2.555   1.172  0.7276  1.5175 -0.3072
27846SOL    HW290654  12.681   2.469   1.288 -1.4870 -0.6236 -0.9145
27847SOL     OW90655   5.365   8.461   7.007 -0.2564 -0.1253 -0.0187
27847SOL    HW190656   5.347   8.401   6.935 -2.7975  1.7458 -1.1030
27847SOL    HW290657   5.307   8.432   7.078 -0.7943  0.4466 -0.2145
27848SOL     OW90658   8.090   7.623   3.488  0.3272  0.7988 -0.5983
27848SOL    HW190659   8.115   7.700   3.438  1.3005  0.5538 -0.5125
27848SOL    HW290660   8.004   7.644   3.523  1.2211  2.4894  0.7178
27849SOL     OW90661   5.463   3.724   9.251  0.1759 -0.0812  0.4175
27849SOL    HW190662   5.547   3.733   9.207 -0.5613  0.2025 -0.9765
27849SOL    HW290663   5.484   3.679   9.333  1.8580  1.2051  0.7474
27850SOL     OW90664   1.226   3.887   4.335  0.1491  0.1362  0.7647
27850SOL    HW190665   1.226   3.975   4.297  2.2344 -0.0683  0.1786
27850SOL    HW290666   1.193   3.831   4.264 -2.4433  0.5282  1.5550
27851SOL     OW90667   1.830   7.748   1.330 -0.4331 -0.0520 -0.1081
27851SOL    HW190668   1.810   7.658   1.357  0.4576 -0.0992  0.4097
27851SOL    HW290669   1.801   7.752   1.239  0.5937 -1.2319 -0.5165
27852SOL     OW90670   7.271   1.540  10.355 -0.0353 -0.1304  0.0146
27852SOL    HW190671   7.204   1.573  10.295 -0.1104 -1.0126 -0.3923
27852SOL    HW290672   7.347   1.597  10.339  0.1420 -0.7242 -1.3500
27853SOL     OW90673   0.994   4.006   6.915  0.1994  0.4352 -0.3385
27853SOL    HW190674   0.902   3.983   6.928 -0.8661  2.6969 -2.7412
27853SOL    HW290675   1.030   4.014   7.003 -2.4185  1.2585  0.7586
27854SOL     OW90676   1.778   2.781   1.979 -0.5009  0.7271 -0.6246
27854SOL    HW190677   1.832   2.857   2.000 -0.7111  0.5730  0.5928
27854SOL    HW290678   1.826   2.707   2.017 -0.7962  0.3921 -0.9001
27855SOL     OW90679   6.667   0.404   9.452  0.2239 -0.1799 -0.2450
27855SOL    HW190680   6.688   0.430   9.542  0.4143  0.0491 -0.3536
27855SOL    HW290681   6.572   0.401   9.450  0.1669  1.3153 -0.4477
27856SOL     OW90682  10.182   7.972   5.025  0.2185 -0.3691 -0.3519
27856SOL    HW190683  10.100   7.947   4.983 -0.5138  0.0795  0.7401
27856SOL    HW290684  10.194   7.908   5.095  0.4479 -0.0551 -0.0971
27857SOL     OW90685   8.495  10.809  12.613  0.2287  0.2007  0.3314
27857SOL    HW190686   8.538  10.808  12.698  0.3691  4.1934  0.4944
27857SOL    HW290687   8.431  10.880  12.619  0.5207  0.9275 -2.9650
27858SOL     OW90688   0.781   8.819  12.245  0.1982 -0.5675 -0.5973
27858SOL    HW190689   0.690   8.835  12.218  0.4241 -0.1862 -1.1440
27858SOL    HW290690   0.776   8.812  12.341 -0.2332  0.6573 -0.5157
27859SOL     OW90691  12.477   6.544   7.109 -0.2184  0.0879  0.4048
27859SOL    HW190692  12.455   6.453   7.131 -0.0174 -0.1970 -0.5175
27859SOL    HW290693  12.571   6.550   7.124  0.0783 -0.3596 -1.1649
27860SOL     OW90694   0.565   5.660  11.369  0.2900  0.2763 -0.0854
27860SOL    HW190695   0.611   5.616  11.441  1.9292  1.2341 -0.4964
27860SOL    HW290696   0.560   5.594  11.300  0.4263 -0.0488  0.2098
27861SOL     OW90697  11.384   5.756   5.826 -0.2027 -0.1040 -0.3314
27861SOL    HW190698  11.382   5.839   5.874  0.4866 -0.4469  0.3034
27861SOL    HW290699  11.334   5.774   5.746 -1.3798  0.4762  0.5030
27862SOL     OW90700  10.598  12.251   5.586  0.0616  0.5964  1.1904
27862SOL    HW190701  10.610  12.334   5.540  0.4776 -0.0028  0.1832
27862SOL    HW290702  10.530  12.269   5.651 -1.4152  1.1808 -0.4347
27863SOL     OW90703   2.336   9.419   7.932  0.9272  0.0089 -0.1336
27863SOL    HW190704   2.243   9.430   7.948  0.7920 -1.5755  0.3793
27863SOL    HW290705   2.369   9.507   7.917 -0.2219  0.8725  2.0777
27864SOL     OW90706   9.446  11.115   1.759 -0.0676  0.2750  0.6495
27864SOL    HW190707   9.519  11.177   1.751 -0.1699  0.3287  0.1167
27864SOL    HW290708   9.471  11.041   1.704 -0.6324  0.5018  0.0895
27865SOL     OW90709   0.419   5.338   0.839  0.0282  0.1807 -0.0385
27865SOL    HW190710   0.501   5.384   0.825 -0.2549  0.6372 -0.2454
27865SOL    HW290711   0.432   5.288   0.919  1.1389 -1.2152 -1.0485
27866SOL     OW90712  11.924  12.122   1.113  0.5208  0.2558 -0.1820
27866SOL    HW190713  11.855  12.174   1.154  0.3003  0.7327 -1.1396
27866SOL    HW290714  11.887  12.034   1.105 -0.2448  0.6574 -1.2920
27867SOL     OW90715  10.573  10.561  11.689  0.0623 -0.0064 -0.6703
27867SOL    HW190716  10.486  10.569  11.727  1.4071  3.3123  2.3373
27867SOL    HW290717  10.602  10.473  11.712 -1.3524 -0.0441  1.1821
27868SOL     OW90718   3.812   7.009   3.514 -0.3349  0.0499 -0.3528
27868SOL    HW190719   3.756   6.936   3.489 -2.1622  1.7045 -1.3903
27868SOL    HW290720   3.864   7.026   3.436 -0.5069  0.3548 -0.4036
27869SOL     OW90721   2.144   3.786   6.738 -0.3005 -0.4979  0.0604
27869SOL    HW190722   2.210   3.717   6.729  0.5056  0.1154  0.9744
27869SOL    HW290723   2.116   3.804   6.648  0.3052 -1.2265 -0.2896
27870SOL     OW90724   0.026  12.854   1.172 -0.0244  0.2948  0.1706
27870SOL    HW190725  -0.025  12.842   1.252  0.4718  0.2086  0.4782
27870SOL    HW290726   0.025  12.948   1.157  3.1801  0.8308  2.5055
27871SOL     OW90727   6.188   4.788   2.501 -0.4500 -0.0819 -0.5133
27871SOL    HW190728   6.126   4.730   2.546  0.6850  0.0170  1.3049
27871SOL    HW290729   6.274   4.752   2.524  0.2126  0.7687 -1.5736
27872SOL     OW90730   2.682   2.313   4.446  0.6453 -0.3921  0.0258
27872SOL    HW190731   2.723   2.272   4.521 -1.6468 -1.6728  0.6592
27872SOL    HW290732   2.630   2.244   4.405 -1.8811  1.3494  0.0499
27873SOL     OW90733   5.210  12.245   9.061  0.0987 -0.4006 -0.5339
27873SOL    HW190734   5.142  12.231   9.127  0.4188 -1.3487 -0.3990
27873SOL    HW290735   5.186  12.187   8.989  1.0896 -1.1829 -0.2455
27874SOL     OW90736   0.616   1.678  10.135 -0.6227 -0.1620  0.0845
27874SOL    HW190737   0.687   1.715  10.082  0.0459 -0.8300  0.4962
27874SOL    HW290738   0.624   1.723  10.219  0.0293 -1.0212  0.4998
27875SOL     OW90739   2.850   4.784   6.788 -0.1772  0.0359 -1.1844
27875SOL    HW190740   2.855   4.833   6.870 -3.7813 -0.3277 -0.5860
27875SOL    HW290741   2.852   4.692   6.815  0.1382 -0.0997 -1.6596
27876SOL     OW90742   0.601  12.020  12.618  0.1646 -0.5985 -0.4403
27876SOL    HW190743   0.634  11.987  12.535 -1.3222 -1.0515 -0.8882
27876SOL    HW290744   0.674  12.071  12.655  0.5091  0.5248 -2.5087
27877SOL     OW90745   4.550   3.381   2.250  0.2918  0.0482 -0.0835
27877SOL    HW190746   4.480   3.427   2.204 -0.1467 -0.6984 -0.1711
27877SOL    HW290747   4.510   3.350   2.331  1.0133  1.2116  0.7592
27878SOL     OW90748   3.212   3.633   6.605 -0.3119 -0.5939  0.7592
27878SOL    HW190749   3.125   3.651   6.642 -0.6683  1.0263 -0.7325
27878SOL    HW290750   3.195   3.573   6.532 -0.2516  0.0361  0.2167
27879SOL     OW90751  10.838   0.545   5.884 -0.5867 -0.0038 -0.0894
27879SOL    HW190752  10.894   0.468   5.882 -0.9836 -0.3413 -3.1237
27879SOL    HW290753  10.770   0.524   5.949  0.8537 -0.9900  1.1585
27880SOL     OW90754  10.595   0.733  10.285 -0.1565 -0.4172 -0.4574
27880SOL    HW190755  10.666   0.671  10.270 -1.3677 -1.4259 -2.3084
27880SOL    HW290756  10.515   0.681  10.280 -1.0950  0.7842  1.0243
27881SOL     OW90757   6.452   4.463  11.246  0.7536  0.7040 -0.0230
27881SOL    HW190758   6.456   4.465  11.151 -1.2572 -0.4438 -0.1717
27881SOL    HW290759   6.513   4.393  11.272  0.2713  0.0795 -0.5604
27882SOL     OW90760   5.576   2.839   7.803 -1.3057  0.1229  0.4286
27882SOL    HW190761   5.548   2.750   7.825 -0.4142 -0.1717  0.3909
27882SOL    HW290762   5.649   2.857   7.862 -0.8540  0.4562 -0.2155
27883SOL     OW90763   2.154   6.686   4.487  0.2419  0.7003  0.0834
27883SOL    HW190764   2.096   6.627   4.440  2.5071 -1.2298 -0.4718
27883SOL    HW290765   2.107   6.707   4.568 -0.9734 -1.1991 -0.0726
27884SOL     OW90766   7.722  12.497   1.077 -0.2779 -0.2900  0.2359
27884SOL    HW190767   7.760  12.418   1.039  0.7365  0.0327  0.5698
27884SOL    HW290768   7.628  12.487   1.062 -0.0989 -1.2296 -0.3433
27885SOL     OW90769   9.830   7.114   6.156  0.0061  0.5967  0.9868
27885SOL    HW190770   9.890   7.043   6.131 -0.3800  0.8885 -0.8324
27885SOL    HW290771   9.888   7.188   6.175  0.3664  0.0386  2.2067
27886SOL     OW90772   7.645  12.643   1.686  0.4377 -0.3169 -0.8791
27886SOL    HW190773   7.610  12.624   1.773 -1.0627  0.2308 -1.3346
27886SOL    HW290774   7.729  12.687   1.703 -0.1746  0.4379  0.3055
27887SOL     OW90775  12.501   8.634   2.895 -0.1982  0.2578  0.3807
27887SOL    HW190776  12.441   8.679   2.956 -2.5152 -0.7115 -1.0347
27887SOL    HW290777  12.474   8.542   2.899  1.0914 -0.1792 -0.4694
27888SOL     OW90778  10.664  11.303   9.395 -0.3509  0.2303  0.6194
27888SOL    HW190779  10.603  11.232   9.377  0.2160  0.0405 -0.6895
27888SOL    HW290780  10.648  11.327   9.486 -4.1558  1.8758 -0.2747
27889SOL     OW90781  12.016   0.125   5.889 -0.2430 -1.1873 -0.1036
27889SOL    HW190782  12.057   0.058   5.834  1.1811 -0.0196 -0.5438
27889SOL    HW290783  11.923   0.101   5.892 -0.3390 -1.4602 -2.8194
27890SOL     OW90784  11.105   5.390   4.006 -0.4302  0.3574  0.3977
27890SOL    HW190785  11.168   5.318   4.012 -0.9414  0.0305  4.2191
27890SOL    HW290786  11.157   5.464   3.973  0.8679 -0.9138 -0.5706
27891SOL     OW90787   4.669   2.398   4.967 -0.3735 -0.2031 -0.1196
27891SOL    HW190788   4.738   2.433   5.024 -0.5851  1.6000 -0.9230
27891SOL    HW290789   4.670   2.304   4.985  3.5135 -0.5582 -1.3360
27892SOL     OW90790   7.830   2.093   5.810 -0.5200  0.0417 -0.3650
27892SOL    HW190791   7.812   2.107   5.903 -1.7458 -0.4352 -0.5138
27892SOL    HW290792   7.769   2.152   5.764  1.5726  1.9327 -0.8780
27893SOL     OW90793   5.269   8.160   2.363 -0.5455 -0.1731 -0.6805
27893SOL    HW190794   5.346   8.141   2.310 -0.3459 -0.0513 -0.4406
27893SOL    HW290795   5.255   8.254   2.352 -1.2187 -0.3583 -1.4570
27894SOL     OW90796   2.515   9.485   4.375 -0.0252  0.0567  0.4341
27894SOL    HW190797   2.580   9.419   4.350  0.1226  0.0406  0.8506
27894SOL    HW290798   2.437   9.461   4.325  0.8545  1.2755 -1.6477
27895SOL     OW90799   0.133  11.136   6.392  0.0584  0.2830 -0.4601
27895SOL    HW190800   0.089  11.081   6.457  1.3909 -0.7062 -0.3561
27895SOL    HW290801   0.103  11.225   6.411  0.3431  0.0013  1.4700
27896SOL     OW90802   1.383   2.951   6.236  0.2482 -0.8037 -0.0506
27896SOL    HW190803   1.414   2.866   6.265  0.2293 -1.2386 -1.2488
27896SOL    HW290804   1.304   2.932   6.185 -1.8731  0.2263  2.5772
27897SOL     OW90805  10.263   2.841   9.978  0.3297  0.4675 -0.4946
27897SOL    HW190806  10.202   2.777   9.941 -1.2568 -0.1634  2.8369
27897SOL    HW290807  10.349   2.800   9.972 -0.4149 -1.2079 -0.0907
27898SOL     OW90808   4.688   7.419   7.596 -0.6979 -0.1129  0.1812
27898SOL    HW190809   4.690   7.454   7.507 -0.4583 -0.4112  0.0658
27898SOL    HW290810   4.681   7.324   7.585 -0.4009 -0.1737  0.4752
27899SOL     OW90811   7.253   2.483   2.743  0.2165 -0.0312  0.0906
27899SOL    HW190812   7.308   2.467   2.666  0.6246  1.1780  0.1047
27899SOL    HW290813   7.176   2.429   2.729  0.8751 -0.8424 -0.5264
27900SOL     OW90814   7.599   2.621  11.655 -0.3329  0.4795 -0.0001
27900SOL    HW190815   7.642   2.680  11.593 -1.0142  0.1652 -0.7856
27900SOL    HW290816   7.598   2.536  11.612 -2.3022  0.6070 -0.3016
27901SOL     OW90817   6.130  11.024  10.219 -0.0871 -0.4367 -0.2991
27901SOL    HW190818   6.176  11.107  10.226  1.2987 -1.1969  0.0685
27901SOL    HW290819   6.049  11.044  10.171 -0.5473  1.3939  1.1366
27902SOL     OW90820   4.216   4.713   3.616  0.3986 -0.1843 -0.0362
27902SOL    HW190821   4.285   4.771   3.584 -3.0115  3.0911 -2.3301
27902SOL    HW290822   4.190   4.752   3.700 -0.5219  0.4098 -0.5824
27903SOL     OW90823  10.829   5.311   1.462  0.0537 -0.4287  0.2847
27903SOL    HW190824  10.853   5.347   1.548 -0.5926  1.1156 -0.1410
27903SOL    HW290825  10.739   5.280   1.474 -0.5101  0.9605 -0.1286
27904SOL     OW90826   6.707   6.373   7.252  0.3754 -0.3593  0.1855
27904SOL    HW190827   6.756   6.320   7.315 -0.2493 -0.4381  0.6230
27904SOL    HW290828   6.618   6.377   7.289  0.6637  1.9651  0.7904
27905SOL     OW90829   2.581   2.452   7.854  0.0200  1.1731 -0.0239
27905SOL    HW190830   2.505   2.474   7.907  0.4499 -0.0954  1.1751
27905SOL    HW290831   2.642   2.525   7.868 -0.7053  1.9087 -0.5389
27906SOL     OW90832   5.330   5.302  10.680  0.5622  0.4631 -0.4243
27906SOL    HW190833   5.331   5.286  10.774 -4.4481  0.8730 -0.0256
27906SOL    HW290834   5.340   5.215  10.640 -3.0213 -0.7659  0.8971
27907SOL     OW90835   6.402   9.504   7.911  0.3730 -0.2519 -0.4798
27907SOL    HW190836   6.445   9.428   7.952  0.6848 -0.2067 -0.7133
27907SOL    HW290837   6.396   9.569   7.981  0.2038 -0.4528 -0.3059
27908SOL     OW90838   2.015   7.275   1.770  0.0085 -0.4353  0.5624
27908SOL    HW190839   2.082   7.329   1.730 -0.1704  0.7368  1.7805
27908SOL    HW290840   2.020   7.191   1.723  2.2935 -0.3738  0.6123
27909SOL     OW90841   1.221   1.083   1.760 -0.4234 -0.3745  0.3316
27909SOL    HW190842   1.258   0.996   1.771  2.6743  1.0469  2.7449
27909SOL    HW290843   1.295   1.136   1.728 -1.2011  2.0109  2.1898
27910SOL     OW90844   9.991   9.227   0.048  0.0348  0.1506  0.3244
27910SOL    HW190845   9.959   9.317   0.039  0.8443  0.4024 -0.1863
27910SOL    HW290846   9.946   9.179  -0.021 -0.7092  0.0665  0.8576
27911SOL     OW90847   8.538   8.225   4.356 -0.5232  0.1571 -0.3592
27911SOL    HW190848   8.550   8.181   4.273 -1.0705 -0.9388  0.1256
27911SOL    HW290849   8.620   8.209   4.404  0.2799  1.8009 -1.1081
27912SOL     OW90850   1.204  12.471   4.819 -0.1609 -0.3143  0.1760
27912SOL    HW190851   1.265  12.464   4.747  0.0321  1.5796  0.1027
27912SOL    HW290852   1.152  12.549   4.799 -1.5123 -0.9503  1.0436
27913SOL     OW90853   7.519   1.930   8.992 -1.2330  0.0293 -0.0297
27913SOL    HW190854   7.576   1.871   9.041 -2.2743 -1.3025 -0.3839
27913SOL    HW290855   7.535   2.016   9.032  0.1049 -0.5108  0.6722
27914SOL     OW90856   8.550   4.357   1.354 -0.4087  0.1509 -0.1681
27914SOL    HW190857   8.523   4.413   1.281 -0.5331 -0.3778 -0.5334
27914SOL    HW290858   8.467   4.325   1.392 -0.3476  0.4769  0.2526
27915SOL     OW90859   8.419   0.036  12.406  0.1857 -0.2340  0.1432
27915SOL    HW190860   8.352   0.042  12.338  0.5386 -0.3114 -0.2153
27915SOL    HW290861   8.406  -0.050  12.446  0.4691 -0.5055 -0.3459
27916SOL     OW90862   0.531   2.662  12.875 -0.2929 -0.0781  0.0314
27916SOL    HW190863   0.444   2.702  12.873  0.0118  0.5837 -0.6041
27916SOL    HW290864   0.530   2.605  12.952 -0.2026  2.4230  2.0280
27917SOL     OW90865  10.252   2.210   3.458 -0.7056 -0.5953 -0.5950
27917SOL    HW190866  10.285   2.162   3.382  1.8933 -0.6423  0.4957
27917SOL    HW290867  10.312   2.284   3.468 -0.7602 -0.7881  1.6091
27918SOL     OW90868  10.210   5.367   9.299  0.2094 -0.6296  0.2647
27918SOL    HW190869  10.155   5.379   9.377  0.0276 -0.2349  0.0813
27918SOL    HW290870  10.158   5.312   9.241  0.0644 -0.3728  0.1494
27919SOL     OW90871   2.327  10.653  11.645 -0.3734  0.0069  0.3106
27919SOL    HW190872   2.385  10.705  11.702  0.1658 -0.7643  0.4776
27919SOL    HW290873   2.301  10.579  11.698 -0.4459 -0.3443 -0.2082
27920SOL     OW90874   2.661   4.058   7.733 -0.4053  0.5782 -0.3481
27920SOL    HW190875   2.603   4.034   7.661  0.3301  0.8478 -1.0347
27920SOL    HW290876   2.717   4.127   7.698 -0.8026  1.5463  0.8311
27921SOL     OW90877   4.218   1.876   4.829  0.4094 -0.0340 -0.2080
27921SOL    HW190878   4.292   1.925   4.791  0.0850 -0.3470 -1.2752
27921SOL    HW290879   4.147   1.940   4.832  0.2210 -0.2065 -0.8413
27922SOL     OW90880  10.867   4.698   9.497 -0.0262 -0.2036 -0.5278
27922SOL    HW190881  10.809   4.687   9.572  1.4964 -1.7016  0.4859
27922SOL    HW290882  10.809   4.688   9.421 -1.0990 -1.7138  0.4438
27923SOL     OW90883   5.513   3.674   4.760 -0.5894 -0.7740  0.1076
27923SOL    HW190884   5.596   3.645   4.722 -0.3079  1.5697 -1.2830
27923SOL    HW290885   5.538   3.737   4.827 -1.1991 -0.3008 -0.0960
27924SOL     OW90886   9.174   8.704  10.662 -0.1815 -0.4759 -0.1631
27924SOL    HW190887   9.247   8.702  10.724 -1.1543  3.8841  1.4842
27924SOL    HW290888   9.106   8.755  10.706 -1.0565  2.8544 -4.6122
27925SOL     OW90889   9.634  10.062   5.209  0.0747 -0.1219  0.8396
27925SOL    HW190890   9.724  10.093   5.221 -0.0916  0.3623  0.8686
27925SOL    HW290891   9.615  10.078   5.117  0.4300 -1.3550  0.5389
27926SOL     OW90892   4.062   0.018   7.734 -0.7838 -0.5351  0.4378
27926SOL    HW190893   4.063   0.036   7.828 -1.8128 -1.0574  0.5614
27926SOL    HW290894   3.981   0.057   7.703  0.5806  1.6241 -0.6795
27927SOL     OW90895   8.008   3.923  10.528  0.0992  0.7228 -0.4117
27927SOL    HW190896   7.979   4.009  10.497 -0.4740  0.5027 -0.4995
27927SOL    HW290897   8.081   3.900  10.471  0.2320  1.1359 -0.4094
27928SOL     OW90898   0.862   4.447   1.455  0.3898  0.0700 -0.1539
27928SOL    HW190899   0.901   4.529   1.486  0.0012  0.1529  0.1151
27928SOL    HW290900   0.832   4.403   1.534 -3.7512  1.8400 -0.5012
27929SOL     OW90901   9.425   5.380   5.870  0.1004 -0.3546 -0.0956
27929SOL    HW190902   9.438   5.362   5.777  0.4791 -0.7383  0.0276
27929SOL    HW290903   9.429   5.294   5.912  2.4133  0.0078  0.5623
27930SOL     OW90904   8.965   3.712   0.947  0.0013  0.1838 -0.2679
27930SOL    HW190905   8.967   3.747   0.858  0.2498 -0.4247 -0.5066
27930SOL    HW290906   9.056   3.691   0.967 -0.3315 -2.4111 -1.0043
27931SOL     OW90907   1.396   0.025   5.368 -0.5993 -0.0300 -0.1440
27931SOL    HW190908   1.394   0.067   5.454 -0.5055  2.0584 -1.1265
27931SOL    HW290909   1.401  -0.069   5.389  0.8840  0.4514  2.1437
27932SOL     OW90910  11.482   2.677   9.813  0.2658  0.0884 -0.4882
27932SOL    HW190911  11.527   2.672   9.729  0.6449 -2.5916 -0.2100
27932SOL    HW290912  11.489   2.589   9.850 -2.4135  0.3901  1.0313
27933SOL     OW90913   1.824   3.783   0.709  0.3299  0.3709 -0.3231
27933SOL    HW190914   1.836   3.774   0.615 -1.1966 -0.4733 -0.4672
27933SOL    HW290915   1.845   3.875   0.727 -2.0491  1.3180 -1.9606
27934SOL     OW90916  12.187   2.841   7.732 -0.2145  0.4890  0.4498
27934SOL    HW190917  12.132   2.781   7.681  2.0527 -1.4171  0.0442
27934SOL    HW290918  12.195   2.799   7.817 -0.1079  1.2015  0.7936
27935SOL     OW90919   2.554  12.305   2.104 -0.0182 -0.9259 -0.0969
27935SOL    HW190920   2.460  12.319   2.090  0.0818  0.2613  0.2910
27935SOL    HW290921   2.591  12.393   2.103  1.3939 -1.4805 -2.2319
27936SOL     OW90922   8.456   6.110   4.467 -0.0982  0.1081  0.4581
27936SOL    HW190923   8.501   6.193   4.483  0.8276 -0.0163 -1.2973
27936SOL    HW290924   8.373   6.134   4.426  0.6088  0.1812 -1.0069
27937SOL     OW90925   5.791   3.595   0.804  0.2914  0.2718 -0.6536
27937SOL    HW190926   5.876   3.640   0.811  0.0015  1.0846 -2.1076
27937SOL    HW290927   5.808   3.509   0.841  1.4850  0.7656  0.0347
27938SOL     OW90928   9.747   4.601   8.864  0.4756 -0.1172  0.4350
27938SOL    HW190929   9.764   4.624   8.955 -1.1982 -1.5774  1.1636
27938SOL    HW290930   9.777   4.510   8.856 -0.2586 -0.3093 -0.2122
27939SOL     OW90931   8.152  11.806   1.015 -0.2142 -0.9735  0.1955
27939SOL    HW190932   8.091  11.863   0.969  0.4961 -1.5291 -1.5162
27939SOL    HW290933   8.213  11.865   1.059 -0.8632 -0.4290  0.3675
27940SOL     OW90934   1.478   9.996   3.961 -0.0414 -0.1452  0.0988
27940SOL    HW190935   1.403   9.950   3.926 -0.6696  0.5480  0.4956
27940SOL    HW290936   1.489   9.961   4.050  0.9404 -1.1963 -0.4128
27941SOL     OW90937  10.526   0.683   2.096 -0.6518  0.3684 -0.3590
27941SOL    HW190938  10.490   0.600   2.125  1.2302  0.5244  2.9750
27941SOL    HW290939  10.598   0.659   2.038 -0.7075 -0.2949 -0.1632
27942SOL     OW90940   7.425   6.165   8.688  0.3817 -0.3776 -0.1703
27942SOL    HW190941   7.473   6.085   8.711 -0.7826 -1.1600 -0.3916
27942SOL    HW290942   7.462   6.191   8.603  1.6350  0.0550  0.4746
27943SOL     OW90943   6.016   4.783  11.709  1.0154 -0.1226 -0.2239
27943SOL    HW190944   5.954   4.722  11.669 -0.2341  0.9755 -0.0316
27943SOL    HW290945   6.038   4.743  11.793  0.1172 -0.2536 -0.0495
27944SOL     OW90946  12.229   9.555   5.905  0.4607 -0.0825 -0.2462
27944SOL    HW190947  12.171   9.625   5.936  1.0178 -0.1752  1.0742
27944SOL    HW290948  12.280   9.596   5.835  0.1756  0.5781 -0.0744
27945SOL     OW90949   9.267   4.724   0.935  0.0001  0.2904  0.0716
27945SOL    HW190950   9.304   4.638   0.953 -0.9094  0.1423  1.3251
27945SOL    HW290951   9.313   4.754   0.856 -0.1150 -1.5966 -0.7520
27946SOL     OW90952   2.754   0.325   3.065 -0.5907 -0.0123 -0.7301
27946SOL    HW190953   2.698   0.336   3.142 -0.1792  0.1473 -0.4486
27946SOL    HW290954   2.841   0.354   3.094  0.3059 -2.8384 -0.2956
27947SOL     OW90955   7.474  12.710   9.724 -0.3396  0.0626 -0.3360
27947SOL    HW190956   7.437  12.733   9.639  1.6185  1.2493 -0.9341
27947SOL    HW290957   7.463  12.615   9.730  1.8399 -0.5239 -3.1903
27948SOL     OW90958  10.492   9.772   2.127  0.4608  0.1203  0.3881
27948SOL    HW190959  10.524   9.737   2.210 -0.0247  0.1676  0.5984
27948SOL    HW290960  10.532   9.716   2.061  1.1344  0.3046  0.6339
27949SOL     OW90961   9.965   2.153   3.462  0.5340 -0.2975 -0.4815
27949SOL    HW190962  10.059   2.158   3.447  0.5216  0.6635 -0.3265
27949SOL    HW290963   9.927   2.217   3.401 -0.0607 -0.9825 -0.8478
27950SOL     OW90964   1.430  12.461  11.429 -0.2037  0.6432 -0.1119
27950SOL    HW190965   1.506  12.416  11.392 -1.3729 -1.2081 -0.3611
27950SOL    HW290966   1.466  12.510  11.503  1.2968  0.1687 -0.4787
27951SOL     OW90967  11.206   5.393  12.183  0.2681 -0.0775 -0.0479
27951SOL    HW190968  11.125   5.361  12.222  0.6624 -0.2469  0.6601
27951SOL    HW290969  11.217   5.341  12.104 -1.6177  1.6625 -1.5796
27952SOL     OW90970   7.577   6.192  10.533  0.5588  0.0065 -0.0120
27952SOL    HW190971   7.670   6.211  10.544  1.0515 -1.6239 -0.9653
27952SOL    HW290972   7.564   6.109  10.577 -0.5072  0.3221  0.2929
27953SOL     OW90973   2.956  10.354   4.915 -0.7754 -0.1359 -0.2820
27953SOL    HW190974   2.978  10.301   4.992  0.5803  0.5359 -0.1833
27953SOL    HW290975   2.946  10.290   4.845 -1.3238 -0.7014  0.2953
27954SOL     OW90976   5.329  10.597   6.447  0.1669  0.4446 -0.4034
27954SOL    HW190977   5.249  10.629   6.406  0.8916  1.6113 -0.9650
27954SOL    HW290978   5.316  10.614   6.541 -0.0479  1.0722 -0.5412
27955SOL     OW90979  10.476  11.994   3.031  0.2395  0.0022 -0.5149
27955SOL    HW190980  10.392  11.948   3.036  0.3433 -0.1303  0.1145
27955SOL    HW290981  10.488  12.012   2.938 -0.7685  0.5538 -0.5522
27956SOL     OW90982   6.426  11.626   4.913  0.3282 -0.2950 -0.2781
27956SOL    HW190983   6.426  11.530   4.908 -0.4560 -0.4489  1.7173
27956SOL    HW290984   6.381  11.645   4.995 -1.3714  1.8474 -1.6024
27957SOL     OW90985   2.978  12.709   4.540 -0.0228  0.5977  0.0852
27957SOL    HW190986   2.904  12.680   4.593  1.6851 -1.0305  1.7100
27957SOL    HW290987   3.008  12.790   4.582 -1.1131  1.5568 -0.8878
27958SOL     OW90988   1.788   5.735  12.213 -0.4310  0.3018  0.0854
27958SOL    HW190989   1.818   5.809  12.160 -0.8834  1.8118  1.8353
27958SOL    HW290990   1.844   5.736  12.291 -1.8460  0.2078  1.1625
27959SOL     OW90991   1.948  12.298  10.076  0.1308  0.2421 -0.2479
27959SOL    HW190992   1.943  12.339   9.990 -2.0021  0.0158 -0.2891
27959SOL    HW290993   1.962  12.371  10.136  0.8029  0.4932 -0.6941
27960SOL     OW90994   7.895   4.152   6.971 -0.1735 -0.6760 -0.4858
27960SOL    HW190995   7.926   4.225   7.023 -0.2774 -1.4423  0.6921
27960SOL    HW290996   7.806   4.177   6.945 -0.7933 -0.9845  1.1932
27961SOL     OW90997   3.571   2.794   7.540  0.1531 -0.1052 -1.0006
27961SOL    HW190998   3.648   2.810   7.486 -0.1181 -0.2571 -1.4402
27961SOL    HW290999   3.568   2.699   7.549  0.5988 -0.0428 -0.1178
27962SOL     OW91000   9.320   0.360   9.165  0.2362  0.1618  0.3114
27962SOL    HW191001   9.399   0.405   9.195  0.2458 -0.7511  1.7777
27962SOL    HW291002   9.353   0.283   9.118  0.2133  1.2001 -1.4698
27963SOL     OW91003   4.407   1.191  10.254 -0.4701  0.3511  0.1335
27963SOL    HW191004   4.408   1.255  10.325 -2.2930  0.4292  0.1300
27963SOL    HW291005   4.375   1.239  10.178 -1.4203 -0.4370  0.0181
27964SOL     OW91006   7.358   7.011   8.569  0.3037  0.0855 -1.4653
27964SOL    HW191007   7.426   7.064   8.609 -0.3010 -1.5988  2.1611
27964SOL    HW291008   7.406   6.950   8.512  1.6550  0.2622 -0.5633
27965SOL     OW91009  10.363   1.304   3.412 -0.2914 -0.1338 -0.3417
27965SOL    HW191010  10.325   1.277   3.496  0.3806 -1.1201 -0.3398
27965SOL    HW291011  10.352   1.399   3.411  0.0902 -0.0450  1.0647
27966SOL     OW91012  10.555   0.595  12.526  0.4125 -0.2390 -0.0986
27966SOL    HW191013  10.638   0.620  12.484  0.1051 -2.0386 -1.9163
27966SOL    HW291014  10.494   0.582  12.454 -0.9798 -0.6981  1.1035
27967SOL     OW91015  11.255  10.728   6.873 -0.0423 -0.1391 -0.3896
27967SOL    HW191016  11.194  10.659   6.844 -1.4561  1.8425 -2.5465
27967SOL    HW291017  11.227  10.748   6.962 -2.0465  0.0794 -0.9981
27968SOL     OW91018  10.554   4.354   6.009  0.0231 -0.6564  0.2220
27968SOL    HW191019  10.640   4.361   5.968 -0.3220  1.6494 -0.2328
27968SOL    HW291020  10.492   4.346   5.936 -0.3836  0.9728  0.3444
27969SOL     OW91021   2.568  12.927   9.683  0.6075  0.3672  0.7995
27969SOL    HW191022   2.565  13.022   9.695 -0.7429  0.5438 -0.7138
27969SOL    HW291023   2.486  12.895   9.720  0.4727 -0.0587  0.1468
27970SOL     OW91024   4.992   9.446   8.476  0.4022  0.3602 -0.1475
27970SOL    HW191025   4.900   9.434   8.500  0.5952  0.2736  0.5934
27970SOL    HW291026   4.991   9.512   8.407 -0.0829  1.6676  1.0677
27971SOL     OW91027   4.830   7.942  11.354 -0.1238 -0.2154 -0.0083
27971SOL    HW191028   4.884   7.883  11.406 -0.0789  1.1035  1.5036
27971SOL    HW291029   4.743   7.937  11.395 -0.4278 -0.1387 -0.6279
27972SOL     OW91030  10.935   9.180  10.099 -0.1321 -0.0539 -0.2321
27972SOL    HW191031  11.007   9.119  10.114 -1.1823 -0.9675  1.5175
27972SOL    HW291032  10.859   9.123  10.082 -0.5266  0.8750 -1.8685
27973SOL     OW91033  12.351   5.439  11.676  0.3714  0.1285  0.0682
27973SOL    HW191034  12.337   5.357  11.724  3.0826  0.0152  0.8470
27973SOL    HW291035  12.358   5.506  11.745  5.5424 -0.2150  0.2768
27974SOL     OW91036   4.986   7.314   2.811 -0.2872  0.2741  0.3325
27974SOL    HW191037   5.031   7.286   2.890  0.6804 -0.0938 -0.3193
27974SOL    HW291038   4.904   7.266   2.811  0.6380 -1.3832  0.0452
27975SOL     OW91039  10.194   8.384   6.884 -0.5496  0.0326  0.5751
27975SOL    HW191040  10.181   8.478   6.898 -0.1273  0.4089 -1.2942
27975SOL    HW291041  10.264   8.360   6.944  0.2528  1.2248  0.1564
27976SOL     OW91042   9.276   5.751   3.072 -0.0698 -0.4042  0.5607
27976SOL    HW191043   9.333   5.704   3.133  0.5249 -0.9793 -0.4050
27976SOL    HW291044   9.332   5.819   3.036 -0.7203  0.6062  1.4050
27977SOL     OW91045   2.796   9.709   1.586 -0.3225  0.4272  0.5037
27977SOL    HW191046   2.748   9.770   1.641 -0.4361 -0.4019  1.3556
27977SOL    HW291047   2.771   9.732   1.496 -2.9534 -0.4744  0.9176
27978SOL     OW91048   8.680   2.957   0.896  0.3152  0.0942 -0.1295
27978SOL    HW191049   8.721   3.009   0.965  0.1770  0.5927 -0.4131
27978SOL    HW291050   8.676   3.017   0.821  2.4630 -1.0764 -1.2867
27979SOL     OW91051   0.944   9.967  12.244 -0.3492  0.1164  0.4143
27979SOL    HW191052   1.032   9.969  12.281  0.2549  0.0133 -0.9652
27979SOL    HW291053   0.911   9.879  12.263  0.3958 -0.3198 -0.2880
27980SOL     OW91054   6.270   3.442   5.003  0.4294  0.2008  0.5656
27980SOL    HW191055   6.279   3.394   5.085  0.1423  0.4978  0.7735
27980SOL    HW291056   6.218   3.385   4.946  1.6432 -0.5362  0.1552
27981SOL     OW91057   7.977   4.982   0.232 -0.4646 -0.5435  0.4067
27981SOL    HW191058   8.033   4.965   0.156  0.2836  0.0511  0.8114
27981SOL    HW291059   8.031   5.034   0.291 -2.0976  1.8641 -0.0874
27982SOL     OW91060   5.855  12.078   4.263 -0.5753  0.0297  0.3103
27982SOL    HW191061   5.941  12.041   4.286 -0.2298  0.5858 -0.0716
27982SOL    HW291062   5.846  12.155   4.320  0.0766  1.1382 -1.0454
27983SOL     OW91063  12.536   8.984   3.921  0.0039 -0.2352 -0.0621
27983SOL    HW191064  12.571   8.942   3.843  0.2352  0.2851 -0.2486
27983SOL    HW291065  12.445   8.955   3.926  0.4820 -1.7314  0.5154
27984SOL     OW91066   4.653  12.866   9.806 -0.1432  0.6097 -0.3771
27984SOL    HW191067   4.674  12.926   9.878 -2.0058 -0.2386  0.9509
27984SOL    HW291068   4.637  12.782   9.849  0.4159 -0.3703 -1.9999
27985SOL     OW91069  11.462   8.072   6.080 -0.3003 -0.6013 -0.1156
27985SOL    HW191070  11.540   8.105   6.124 -0.8207 -1.3773  1.4396
27985SOL    HW291071  11.481   7.979   6.063 -0.9721 -0.8604  0.5017
27986SOL     OW91072   5.715   5.423   8.983  0.2444  0.3467 -0.3029
27986SOL    HW191073   5.634   5.389   8.946 -0.9189  0.9468  1.5488
27986SOL    HW291074   5.758   5.347   9.020  0.1263  0.1479 -0.5687
27987SOL     OW91075   0.644   2.189   0.610 -0.2303  0.2354  0.0180
27987SOL    HW191076   0.656   2.283   0.601  1.3985  0.0336 -0.1131
27987SOL    HW291077   0.586   2.180   0.686 -2.1639  1.3798 -1.2341
27988SOL     OW91078   8.497   4.942   4.813  0.4595 -0.7648 -0.0956
27988SOL    HW191079   8.406   4.965   4.834  0.7319 -0.8532  1.2993
27988SOL    HW291080   8.532   4.907   4.895  1.8789 -0.3479 -0.5015
27989SOL     OW91081  10.580   2.051   5.392  0.0559  0.3966  0.3609
27989SOL    HW191082  10.571   1.957   5.375  1.1492  0.3513 -0.0428
27989SOL    HW291083  10.498   2.088   5.360 -0.2454 -0.3800  0.1945
27990SOL     OW91084   0.212   8.532  11.509 -0.5792  0.1144  0.5023
27990SOL    HW191085   0.139   8.482  11.545 -0.4043  1.1186  2.3486
27990SOL    HW291086   0.200   8.621  11.544  0.9843  0.5377  0.0520
27991SOL     OW91087   9.914  10.840  11.016  0.4098 -0.1897 -0.1028
27991SOL    HW191088   9.933  10.933  11.004 -0.8765  0.3918  1.9159
27991SOL    HW291089   9.977  10.810  11.081  0.6672 -0.6747 -0.5736
27992SOL     OW91090   3.410  10.729   2.195  0.0851 -0.3574 -0.6318
27992SOL    HW191091   3.352  10.653   2.195 -0.0430 -0.3095 -2.6532
27992SOL    HW291092   3.353  10.804   2.181  0.4904 -0.2064 -1.6025
27993SOL     OW91093   0.258   1.868   3.663 -0.0871 -0.0711  0.5135
27993SOL    HW191094   0.264   1.773   3.663 -1.6265 -0.1992 -0.0404
27993SOL    HW291095   0.266   1.892   3.571 -0.3696  0.2821  0.5792
27994SOL     OW91096   2.127  10.776  12.264 -0.2687 -0.8178 -0.2101
27994SOL    HW191097   2.152  10.809  12.350  0.0806 -1.4844 -0.0516
27994SOL    HW291098   2.037  10.807  12.251 -0.7399 -1.6523  0.8806
27995SOL     OW91099   8.424   4.131   6.661  0.5753  0.0422 -0.0605
27995SOL    HW191100   8.485   4.082   6.716 -0.4765 -0.6496  0.5204
27995SOL    HW291101   8.354   4.158   6.720 -0.0754  0.1560 -0.8635
27996SOL     OW91102   8.135   6.962  11.824 -0.1920  0.0619 -0.5705
27996SOL    HW191103   8.086   7.045  11.821 -0.5023 -0.0163  1.1620
27996SOL    HW291104   8.226   6.988  11.830 -0.3686  0.3987  1.7775
27997SOL     OW91105   0.628   5.049  10.889 -0.1722  0.1585 -0.4366
27997SOL    HW191106   0.654   4.961  10.861  0.2086 -0.7046  2.3291
27997SOL    HW291107   0.711   5.095  10.902 -0.2445 -0.0329  0.8353
27998SOL     OW91108   5.800  12.248   3.178  0.0484  0.8581 -0.2221
27998SOL    HW191109   5.805  12.311   3.249  0.5833  0.7123 -0.1292
27998SOL    HW291110   5.708  12.218   3.179  0.2552  0.1881  0.9885
27999SOL     OW91111   2.764   7.430  10.562 -0.4935 -0.3613 -0.1635
27999SOL    HW191112   2.689   7.407  10.617 -0.0944 -2.2495 -0.3547
27999SOL    HW291113   2.776   7.355  10.504  0.6536  0.5282 -1.1369
28000SOL     OW91114   4.509   0.884   6.994  0.2862 -0.7513 -0.7411
28000SOL    HW191115   4.599   0.902   6.967  0.5855  1.9553  1.5102
28000SOL    HW291116   4.515   0.806   7.048  1.3715 -0.4471 -0.3931
28001SOL     OW91117  11.033   4.610  10.375  0.1729 -0.0766  0.9165
28001SOL    HW191118  10.957   4.661  10.347  0.4131 -0.1718  0.0644
28001SOL    HW291119  11.076   4.666  10.439  0.4051  0.7978  0.0322
28002SOL     OW91120   4.909   4.279  11.940  0.2776  0.1362 -0.9547
28002SOL    HW191121   4.830   4.266  11.886 -2.0945 -2.4795  2.6557
28002SOL    HW291122   4.971   4.214  11.907 -0.4857 -0.2888 -1.6029
28003SOL     OW91123   4.143   3.863   4.665 -0.1701 -0.5353  0.1072
28003SOL    HW191124   4.210   3.912   4.619  0.6484 -0.5188  1.2819
28003SOL    HW291125   4.140   3.778   4.621 -1.1380  0.2927 -1.5168
28004SOL     OW91126  12.815   5.479   9.006  0.0298 -0.2145 -0.3813
28004SOL    HW191127  12.792   5.478   9.099  0.7480 -1.1259 -0.1986
28004SOL    HW291128  12.750   5.421   8.965 -0.2523  0.1421 -0.4412
28005SOL     OW91129   8.960   8.894   8.732  0.0766  0.0757  0.1774
28005SOL    HW191130   8.962   8.957   8.660  0.1993  0.2562  0.3392
28005SOL    HW291131   8.973   8.809   8.689  2.0000  0.3219  0.1585
28006SOL     OW91132   5.546   6.953   4.442 -0.0096 -0.3792  0.0105
28006SOL    HW191133   5.485   6.884   4.468 -0.1173  0.2674  1.5718
28006SOL    HW291134   5.629   6.908   4.429 -0.7655 -1.2791 -2.1878
28007SOL     OW91135   3.548   8.659   2.640 -0.3210 -0.5117 -0.0266
28007SOL    HW191136   3.496   8.727   2.598 -0.6209 -1.2697 -0.9233
28007SOL    HW291137   3.508   8.648   2.726 -0.4550  0.2296  0.0140
28008SOL     OW91138   9.553  10.137   4.442 -0.3765 -0.3052  0.1242
28008SOL    HW191139   9.580  10.048   4.464  0.5920  0.4978  2.3903
28008SOL    HW291140   9.476  10.153   4.497 -0.1797  0.4590  0.1895
28009SOL     OW91141   6.736  12.255   8.183 -0.1298 -0.5054 -0.0329
28009SOL    HW191142   6.684  12.314   8.128 -0.7326 -0.6776  0.3516
28009SOL    HW291143   6.697  12.262   8.270  2.3336  1.6840  1.0327
28010SOL     OW91144   2.823   5.134  12.095 -0.5804  0.3623 -0.6817
28010SOL    HW191145   2.902   5.097  12.054 -0.3239  0.8406 -0.6305
28010SOL    HW291146   2.845   5.139  12.188 -0.9446 -0.1742 -0.5626
28011SOL     OW91147  12.162   4.978   4.246  0.0769  0.2112  0.6394
28011SOL    HW191148  12.077   4.985   4.289 -0.9992 -1.4660 -1.0614
28011SOL    HW291149  12.171   5.061   4.198 -0.6305  0.3788  0.7804
28012SOL     OW91150   9.697   3.227   9.225  0.4360 -0.2188  0.2269
28012SOL    HW191151   9.753   3.185   9.290  1.0717 -1.6416 -1.1698
28012SOL    HW291152   9.722   3.320   9.228  1.0844 -0.4152  1.3616
28013SOL     OW91153   8.956   0.502  10.390 -0.3341 -0.0722 -0.3924
28013SOL    HW191154   8.942   0.594  10.366  2.0461  0.4155 -0.1953
28013SOL    HW291155   9.052   0.492  10.390 -0.5261 -2.4440  0.0330
28014SOL     OW91156  10.678  11.091   1.558 -0.1448 -0.1643 -0.2034
28014SOL    HW191157  10.717  11.137   1.633  1.5815 -1.3301 -0.3303
28014SOL    HW291158  10.611  11.035   1.597  1.3130 -1.3998  0.6377
28015SOL     OW91159   3.602  10.102   5.709 -0.2050  0.0397  0.3530
28015SOL    HW191160   3.640  10.157   5.640  0.8596 -1.0168  0.0512
28015SOL    HW291161   3.534  10.051   5.665  1.0410 -1.2607 -0.1965
28016SOL     OW91162   2.641   2.282   3.067  0.6478  0.0500  0.0360
28016SOL    HW191163   2.603   2.200   3.100 -2.3742  1.1454 -0.4100
28016SOL    HW291164   2.705   2.307   3.134 -1.1281 -0.7794  2.1972
28017SOL     OW91165   5.727   0.431   7.639 -0.1612  0.5179  0.2921
28017SOL    HW191166   5.784   0.506   7.623  0.4222 -0.3172 -1.9198
28017SOL    HW291167   5.717   0.389   7.554 -0.4061 -1.9538  1.4323
28018SOL     OW91168  12.513   8.590   3.291 -0.1609  0.2489  0.8291
28018SOL    HW191169  12.601   8.621   3.314 -0.1542  1.3447 -0.5428
28018SOL    HW291170  12.527   8.501   3.259  0.5148  0.5337  0.2958
28019SOL     OW91171   0.119   9.318   1.442  0.4283 -0.3420 -0.2739
28019SOL    HW191172   0.115   9.237   1.391  1.2499  0.8262 -2.2812
28019SOL    HW291173   0.110   9.388   1.378 -0.7211  1.2069  1.4633
28020SOL     OW91174   2.648  10.311   9.786 -0.7101  0.0896 -0.2439
28020SOL    HW191175   2.731  10.351   9.812 -1.1909  1.1339 -0.2502
28020SOL    HW291176   2.659  10.295   9.692 -0.7938  0.9905 -0.4238
28021SOL     OW91177   3.481   4.672   5.434 -0.5235  0.9271 -0.1032
28021SOL    HW191178   3.510   4.749   5.384  2.1283 -0.6888 -1.3064
28021SOL    HW291179   3.456   4.608   5.367 -4.2102  1.1374  0.8855
28022SOL     OW91180   9.322   3.936  12.887  0.5405 -0.0521 -0.4242
28022SOL    HW191181   9.290   3.949  12.798  2.1536 -0.5698 -1.1331
28022SOL    HW291182   9.284   4.007  12.938  1.5785  1.7595 -2.0776
28023SOL     OW91183   4.193  11.022   5.158 -0.0103 -0.1342 -0.2027
28023SOL    HW191184   4.149  11.048   5.077 -1.1792  0.0348  0.4604
28023SOL    HW291185   4.286  11.034   5.140 -0.3525  1.9839 -0.8046
28024SOL     OW91186   4.942   8.616   3.631 -0.0721 -0.0699  0.6990
28024SOL    HW191187   4.889   8.684   3.674 -0.2403  0.1801  0.1203
28024SOL    HW291188   4.891   8.593   3.553 -0.1901 -1.1261  1.0711
28025SOL     OW91189   0.786   2.413  10.117  0.0824 -0.4567  0.3179
28025SOL    HW191190   0.879   2.396  10.104 -0.4671 -1.9689 -2.0720
28025SOL    HW291191   0.750   2.330  10.149 -0.3654  0.3281  1.9605
28026SOL     OW91192   5.691   4.028  10.469 -0.0397 -0.3434  0.0672
28026SOL    HW191193   5.640   4.107  10.488  1.4684  0.5977  0.4110
28026SOL    HW291194   5.676   4.012  10.376 -0.7145  0.0850  0.0921
28027SOL     OW91195   6.414  10.513   7.862  0.0535 -0.2427 -0.0497
28027SOL    HW191196   6.398  10.477   7.775  0.0642  0.4486 -0.3454
28027SOL    HW291197   6.494  10.564   7.852 -0.6904  0.9599  0.0263
28028SOL     OW91198  12.675  10.205   7.164  0.0269  0.4494  0.2789
28028SOL    HW191199  12.740  10.265   7.130  1.1306 -0.3186  0.9721
28028SOL    HW291200  12.719  10.159   7.235 -1.2300 -0.1918  0.6861
28029SOL     OW91201   2.058   9.527   0.680 -0.1779 -0.2005  0.1501
28029SOL    HW191202   2.072   9.620   0.664 -0.2360  0.1261  1.8405
28029SOL    HW291203   1.983   9.524   0.740  1.9656 -1.0954  2.9712
28030SOL     OW91204   4.070   3.166   6.985  0.2839 -0.5337  0.4700
28030SOL    HW191205   4.064   3.104   7.058  1.1827 -0.2662  0.7859
28030SOL    HW291206   4.162   3.193   6.985 -0.2277  1.3293  0.7903
28031SOL     OW91207  11.069   2.331   4.238  0.1483  0.0522 -0.0833
28031SOL    HW191208  11.159   2.361   4.255 -0.0051  0.6507 -0.3314
28031SOL    HW291209  11.080   2.244   4.200  0.6047 -0.0801  0.3333
28032SOL     OW91210  10.164   3.460   0.931  0.2254  0.1966  0.0583
28032SOL    HW191211  10.194   3.479   0.842  2.2788 -1.3427  0.3245
28032SOL    HW291212  10.179   3.541   0.979 -2.1515  1.4713 -1.2217
28033SOL     OW91213   7.304   8.301   1.950  0.0924  0.6620 -0.1792
28033SOL    HW191214   7.282   8.375   1.894 -1.1236 -0.5318 -1.3274
28033SOL    HW291215   7.264   8.323   2.035 -0.7199  1.0802 -0.6574
28034SOL     OW91216   9.762   2.177   0.154 -0.5322 -0.3948  0.7340
28034SOL    HW191217   9.854   2.189   0.130 -1.0778  0.3575 -1.1689
28034SOL    HW291218   9.740   2.089   0.123 -1.1395  0.4457 -1.4789
28035SOL     OW91219   2.678   6.415   1.539  0.0001  0.0460 -0.0027
28035SOL    HW191220   2.725   6.403   1.621 -0.4661 -0.4252  0.2046
28035SOL    HW291221   2.689   6.331   1.493 -0.6849 -0.0924  0.0779
28036SOL     OW91222  11.943   7.388   8.254 -0.1325  0.2004 -0.1440
28036SOL    HW191223  11.883   7.460   8.274 -0.6528 -0.8763  2.6023
28036SOL    HW291224  11.939   7.331   8.331  3.0185 -0.9092 -0.6554
28037SOL     OW91225  11.642   0.422   2.432 -0.0324 -0.3994  0.1866
28037SOL    HW191226  11.685   0.465   2.506 -0.2896  0.7433 -0.3048
28037SOL    HW291227  11.695   0.343   2.416  0.4856 -0.2472  1.0731
28038SOL     OW91228   2.799   0.427   4.307 -0.7998 -0.1751  0.3339
28038SOL    HW191229   2.812   0.392   4.395 -1.8210 -2.1629 -0.2519
28038SOL    HW291230   2.739   0.366   4.265  0.5446  0.0704 -2.1403
28039SOL     OW91231   4.021   3.239   4.545 -0.5001  0.0213  0.5300
28039SOL    HW191232   4.096   3.228   4.604  0.8502  1.4825 -0.8322
28039SOL    HW291233   4.059   3.266   4.462 -2.6123  1.8401  0.0660
28040SOL     OW91234   2.562  12.499   6.477  0.2304  0.1663  0.8158
28040SOL    HW191235   2.480  12.485   6.430  0.6604 -0.5163  0.2567
28040SOL    HW291236   2.546  12.577   6.529 -1.0796 -0.4383  1.3833
28041SOL     OW91237   2.616   0.407  11.625 -0.2246  0.0381  0.2196
28041SOL    HW191238   2.684   0.473  11.640 -0.7194  0.4392  0.7771
28041SOL    HW291239   2.542   0.456  11.589 -0.3680 -0.3232  0.0147
28042SOL     OW91240   7.564   5.101   8.027 -0.1619 -0.3946  0.2114
28042SOL    HW191241   7.536   5.068   7.942 -0.3458 -0.7836  0.4195
28042SOL    HW291242   7.541   5.031   8.089 -1.0529  0.3463  0.7397
28043SOL     OW91243  11.928   8.452   2.319 -0.2410 -0.1323 -0.1839
28043SOL    HW191244  12.014   8.479   2.350 -0.6897  1.5363 -0.2643
28043SOL    HW291245  11.870   8.525   2.342 -1.2439 -0.3243 -1.8555
28044SOL     OW91246   3.008   6.679   8.119 -0.1020  0.2585  0.1044
28044SOL    HW191247   2.942   6.707   8.055  0.4946 -2.3321 -1.8142
28044SOL    HW291248   2.960   6.623   8.180 -0.6532  2.6622  2.0289
28045SOL     OW91249   8.744   6.355  12.353  0.2098 -0.2512 -0.8404
28045SOL    HW191250   8.721   6.291  12.420  1.7890 -0.5125 -0.5000
28045SOL    HW291251   8.787   6.305  12.285  2.2677  0.5058 -0.1713
28046SOL     OW91252   8.916   3.422  11.608  0.1230  0.6613 -0.0631
28046SOL    HW191253   8.839   3.479  11.603 -0.2897  0.0945 -0.2331
28046SOL    HW291254   8.923   3.400  11.701 -1.0838 -0.8459 -0.2983
28047SOL     OW91255  10.161   3.871   6.798 -0.2469  0.0715 -0.2153
28047SOL    HW191256  10.122   3.790   6.832  3.0299 -0.9029  1.6708
28047SOL    HW291257  10.221   3.841   6.729  1.5009  0.7358  0.9601
28048SOL     OW91258  10.564   9.924   1.477  0.0845  0.1773  0.6065
28048SOL    HW191259  10.586   9.912   1.384 -0.6170 -1.2761  0.5944
28048SOL    HW291260  10.531  10.014   1.482 -4.4740 -1.0030 -1.6285
28049SOL     OW91261   1.256  12.758   0.595 -0.0093 -0.1419 -0.0305
28049SOL    HW191262   1.336  12.752   0.542  0.4660  0.0524  0.6487
28049SOL    HW291263   1.193  12.802   0.538  0.8724  1.1946 -0.0198
28050SOL     OW91264   8.176   3.603   4.638  0.4906 -0.1336  0.0188
28050SOL    HW191265   8.227   3.643   4.568  0.3019 -0.4786 -0.3183
28050SOL    HW291266   8.199   3.653   4.716  0.6654  0.2834 -0.2990
28051SOL     OW91267  10.168   1.352   0.943 -0.2986  0.6185 -0.2209
28051SOL    HW191268  10.116   1.432   0.942  0.3060  1.0208  0.1431
28051SOL    HW291269  10.230   1.364   1.014 -0.4760 -0.3575  0.1215
28052SOL     OW91270   5.287   0.865  11.230 -0.3124 -0.6461 -0.1714
28052SOL    HW191271   5.358   0.892  11.289 -0.7424 -1.0190  0.5286
28052SOL    HW291272   5.295   0.924  11.155 -0.1486  0.2666  0.5426
28053SOL     OW91273   0.701  10.842   6.925 -0.0575 -0.3638 -0.2067
28053SOL    HW191274   0.624  10.807   6.880  0.3509 -3.3040  1.1268
28053SOL    HW291275   0.771  10.780   6.905  1.0451  0.2865  1.4202
28054SOL     OW91276   9.958   9.630   5.953 -0.1961  0.2347  0.3484
28054SOL    HW191277   9.992   9.716   5.976  0.2439 -0.0568  0.8012
28054SOL    HW291278   9.939   9.636   5.859 -0.2413  0.8424  0.3930
28055SOL     OW91279   0.765   1.469   0.683  0.1169 -0.3242 -0.5511
28055SOL    HW191280   0.821   1.452   0.759 -1.2406  1.0453  0.8265
28055SOL    HW291281   0.680   1.432   0.707 -1.1362  2.5756 -0.1048
28056SOL     OW91282   9.809   6.521   8.317  0.0893  0.4566 -0.0788
28056SOL    HW191283   9.784   6.607   8.350  0.7161  0.0788  1.5006
28056SOL    HW291284   9.891   6.501   8.363  0.5883 -0.4759 -1.3193
28057SOL     OW91285   3.939   6.275   3.003  0.4973 -0.5308  0.5512
28057SOL    HW191286   3.967   6.187   2.977 -1.6348 -0.9650 -0.4181
28057SOL    HW291287   3.867   6.260   3.065  1.4604  0.5646  2.0100
28058SOL     OW91288   5.776   7.399   1.707  0.1049  0.2101  0.1155
28058SOL    HW191289   5.771   7.448   1.789  0.2455  0.2784  0.0836
28058SOL    HW291290   5.847   7.337   1.721  0.6302  0.7194 -0.2184
28059SOL     OW91291   5.425  12.729   4.649  0.7776 -0.2268  0.2835
28059SOL    HW191292   5.463  12.693   4.569  1.0045  1.4189 -0.3947
28059SOL    HW291293   5.331  12.734   4.631  0.3232 -2.8591  1.3895
28060SOL     OW91294   1.277   5.801   1.984 -0.0654 -0.0149  0.6512
28060SOL    HW191295   1.313   5.760   2.062 -0.8853 -1.2682  0.3922
28060SOL    HW291296   1.256   5.728   1.926 -0.7284  0.8219 -0.1904
28061SOL     OW91297   1.478   0.126   4.181  0.1123  0.2597 -0.4807
28061SOL    HW191298   1.387   0.147   4.199 -0.4615 -2.2188 -0.1745
28061SOL    HW291299   1.480   0.100   4.089  0.3189 -0.5248 -0.2651
28062SOL     OW91300   6.982  10.184   3.047 -0.0235  0.2158  0.3342
28062SOL    HW191301   6.932  10.110   3.011 -0.7725  0.6093  0.5517
28062SOL    HW291302   7.044  10.143   3.107  0.4628 -0.3464 -0.5295
28063SOL     OW91303   0.627   2.441   0.618 -0.1100 -0.0134 -0.2053
28063SOL    HW191304   0.607   2.480   0.703  0.0113  0.2781 -0.3068
28063SOL    HW291305   0.621   2.514   0.556  3.8549  0.8067  0.0733
28064SOL     OW91306  12.211  10.759   8.839 -0.0654 -0.4050  0.1512
28064SOL    HW191307  12.288  10.723   8.793 -1.8799 -2.2569 -1.6561
28064SOL    HW291308  12.189  10.693   8.905 -0.4617 -0.1913  0.2336
28065SOL     OW91309   0.815  10.545   0.147  0.0990  0.1498 -0.1217
28065SOL    HW191310   0.819  10.641   0.152  0.2214  0.1202  0.3536
28065SOL    HW291311   0.731  10.522   0.185 -0.4882  0.1426 -1.3752
28066SOL     OW91312   7.664   4.292   7.198  0.2105 -0.3251  0.5484
28066SOL    HW191313   7.658   4.229   7.270  1.4339 -2.1849 -0.8699
28066SOL    HW291314   7.758   4.311   7.190  0.2733 -1.1473 -1.2947
28067SOL     OW91315   6.163   5.941  12.822  0.1717 -0.1681  0.5453
28067SOL    HW191316   6.124   6.000  12.886  1.0503  0.4851  0.4854
28067SOL    HW291317   6.139   5.853  12.853 -2.0231  0.2027  0.0621
28068SOL     OW91318   6.677  11.586   0.088  0.2493 -0.2306 -0.0166
28068SOL    HW191319   6.642  11.658   0.035  0.4578  1.4977  2.0419
28068SOL    HW291320   6.600  11.545   0.127  0.1543 -0.9360 -0.9097
28069SOL     OW91321  11.439  10.678   6.378  0.2776 -0.4439  0.2151
28069SOL    HW191322  11.350  10.686   6.411  0.5290  2.6540  0.3839
28069SOL    HW291323  11.430  10.626   6.297 -1.5648 -0.6185  0.4838
28070SOL     OW91324   0.160   1.388   5.932  0.1945 -0.1662 -0.0142
28070SOL    HW191325   0.143   1.295   5.917  0.2249 -0.1538 -0.1242
28070SOL    HW291326   0.252   1.392   5.957  0.4789 -0.0469 -1.0624
28071SOL     OW91327   0.073  10.239  12.394  0.0032  0.1350 -0.2149
28071SOL    HW191328   0.136  10.266  12.327  0.8604  1.2498  1.0017
28071SOL    HW291329   0.120  10.245  12.476 -1.7024  1.1074  0.7551
28072SOL     OW91330   8.692   6.753   3.835  0.2665  0.3429  0.5911
28072SOL    HW191331   8.612   6.708   3.810  0.7130 -0.3375  0.3564
28072SOL    HW291332   8.687   6.759   3.931 -0.3773  0.9116  0.5246
28073SOL     OW91333   7.519   1.561   7.808 -0.6617 -0.1913  0.0470
28073SOL    HW191334   7.459   1.625   7.767  0.1462  0.1596 -0.6214
28073SOL    HW291335   7.581   1.615   7.857 -0.8221 -0.5533  0.6564
28074SOL     OW91336  12.437   2.604   6.747  0.4633 -0.7887 -0.1197
28074SOL    HW191337  12.423   2.667   6.676 -1.1783  0.2714  1.0420
28074SOL    HW291338  12.401   2.648   6.824  4.6437 -0.6887  2.0332
28075SOL     OW91339  11.301   4.092   2.995  0.4785 -0.0159 -0.3343
28075SOL    HW191340  11.263   4.037   2.926 -1.0587 -0.2485  0.6604
28075SOL    HW291341  11.394   4.068   2.995  0.0330 -1.9407 -0.5759
28076SOL     OW91342   4.287   7.176   2.334  0.4816  0.3499  0.3880
28076SOL    HW191343   4.339   7.224   2.270  0.7483 -0.2724  0.1283
28076SOL    HW291344   4.202   7.163   2.293 -0.0251  1.7162  0.9709
28077SOL     OW91345   0.678   2.450   8.202 -0.5867 -0.0171 -0.1029
28077SOL    HW191346   0.748   2.387   8.184 -1.9695 -1.5926 -0.2674
28077SOL    HW291347   0.616   2.402   8.257 -1.2914  1.4941  0.4743
28078SOL     OW91348   1.318   6.802   5.252 -0.4989  0.6389 -0.6059
28078SOL    HW191349   1.223   6.787   5.246 -0.3088 -1.0846  0.2058
28078SOL    HW291350   1.346   6.749   5.326  1.1636  0.9185 -0.9999
28079SOL     OW91351  12.820  10.481   3.329  0.1037 -0.0282 -0.0909
28079SOL    HW191352  12.783  10.449   3.247  0.1058 -0.5945  0.1291
28079SOL    HW291353  12.908  10.511   3.305 -0.3546  1.0268 -0.5505
28080SOL     OW91354  11.053   8.459  10.918 -0.4064  0.5313 -0.4489
28080SOL    HW191355  11.051   8.554  10.912  0.6557  0.5372 -0.9929
28080SOL    HW291356  11.046   8.429  10.827  0.3141  0.1260 -0.3737
28081SOL     OW91357   7.889   5.524   2.971 -0.3552  0.1363 -0.0258
28081SOL    HW191358   7.804   5.556   3.002  0.2130  0.7362  0.9675
28081SOL    HW291359   7.950   5.596   2.988  0.5589 -0.6764  0.2801
28082SOL     OW91360   4.291   0.337   9.886 -0.0020  0.1876  0.0133
28082SOL    HW191361   4.268   0.368   9.798 -1.5854 -0.3779  0.2065
28082SOL    HW291362   4.260   0.406   9.944  2.1184  1.1426  0.1208
28083SOL     OW91363   6.357   0.134   2.394 -0.5542 -0.2683  0.3421
28083SOL    HW191364   6.367   0.173   2.481 -0.7859 -1.5068  0.9463
28083SOL    HW291365   6.266   0.152   2.371 -0.2135  0.9425 -0.0997
28084SOL     OW91366   6.483   0.893   2.162 -0.1729 -0.6049 -0.5629
28084SOL    HW191367   6.395   0.919   2.190 -0.7703  0.4221 -3.0806
28084SOL    HW291368   6.487   0.799   2.179 -1.6543 -0.6243 -0.1384
28085SOL     OW91369   9.022   7.810   9.438  0.2695 -0.2559  0.5572
28085SOL    HW191370   9.104   7.846   9.405  1.3021 -2.5421  0.4257
28085SOL    HW291371   9.009   7.854   9.522  1.3871  0.4653  0.3768
28086SOL     OW91372  11.726   4.583  10.598 -0.2001 -0.0084  0.4848
28086SOL    HW191373  11.687   4.669  10.612 -0.7772 -0.4895  2.0704
28086SOL    HW291374  11.805   4.601  10.546 -1.3210  1.2238 -0.9021
28087SOL     OW91375   7.145   2.188   9.346 -0.1272  0.2368  0.2138
28087SOL    HW191376   7.085   2.180   9.420  0.0708 -0.8661  0.2668
28087SOL    HW291377   7.163   2.098   9.320  2.0476  0.4946  0.6423
28088SOL     OW91378  10.823   7.514   8.603  0.0044 -0.4718  0.1410
28088SOL    HW191379  10.852   7.521   8.512  2.3892 -2.2887  0.6476
28088SOL    HW291380  10.785   7.600   8.623  1.3175  0.6769 -1.9358
28089SOL     OW91381   7.953   6.488   9.842  0.5833  0.0210  0.3280
28089SOL    HW191382   7.861   6.463   9.856 -0.3354  3.1216  0.5775
28089SOL    HW291383   7.987   6.506   9.929  1.4153 -0.8955  0.2139
28090SOL     OW91384   0.408   2.218   4.106  0.5174 -0.2192 -0.4962
28090SOL    HW191385   0.403   2.153   4.036  1.3667 -0.1171 -0.6599
28090SOL    HW291386   0.367   2.176   4.181  1.3101 -1.0491 -0.5168
28091SOL     OW91387  11.118   2.766   3.603 -0.0037 -0.0978 -0.2532
28091SOL    HW191388  11.147   2.759   3.693 -0.4532 -2.1578 -0.2287
28091SOL    HW291389  11.185   2.819   3.560 -0.0057  1.2847  1.3432
28092SOL     OW91390   2.105  12.366   1.454 -0.4696  0.1846 -0.2017
28092SOL    HW191391   2.044  12.373   1.381 -0.1704  0.5384 -0.4160
28092SOL    HW291392   2.049  12.356   1.531 -0.8452  1.6481 -0.2540
28093SOL     OW91393   9.087  10.624  10.485  0.0055 -0.3256  0.4655
28093SOL    HW191394   9.077  10.629  10.390  2.9283  0.2872  0.1109
28093SOL    HW291395   9.101  10.531  10.503  2.5119 -0.1274 -0.1554
28094SOL     OW91396   4.642   6.100   1.238 -0.4193 -0.6990 -0.2106
28094SOL    HW191397   4.705   6.124   1.306 -0.7966 -0.9502  0.2331
28094SOL    HW291398   4.560   6.086   1.285 -0.4962 -1.6928 -0.6099
28095SOL     OW91399   2.348   1.693   3.088 -0.0452 -0.3140 -0.5129
28095SOL    HW191400   2.440   1.720   3.094 -0.0321 -0.3400 -0.6046
28095SOL    HW291401   2.352   1.597   3.090 -0.1612 -0.3167  1.0064
28096SOL     OW91402   5.129   7.151   0.220 -0.0104 -0.6609 -0.6130
28096SOL    HW191403   5.149   7.110   0.304 -0.7281  0.1799 -0.0178
28096SOL    HW291404   5.037   7.178   0.227  0.6046  1.6906 -0.6911
28097SOL     OW91405   5.664   5.761   5.428  0.4288  0.4201 -0.3071
28097SOL    HW191406   5.689   5.789   5.516  0.8391  0.1445 -0.3357
28097SOL    HW291407   5.700   5.829   5.371 -0.6467  1.1147 -0.2111
28098SOL     OW91408   8.726   8.784   8.894  0.2693 -0.0097 -0.2551
28098SOL    HW191409   8.753   8.756   8.981 -0.4938  0.7955  0.2589
28098SOL    HW291410   8.775   8.865   8.878 -0.3683  0.4065 -0.1296
28099SOL     OW91411   4.854   3.487   2.488 -0.2379 -0.4403  0.5727
28099SOL    HW191412   4.814   3.535   2.415 -0.1132  0.2750  0.9586
28099SOL    HW291413   4.873   3.555   2.553 -1.4092 -1.1891  1.7673
28100SOL     OW91414   0.952   2.010   2.670  0.3475 -0.1226 -0.2456
28100SOL    HW191415   0.936   2.061   2.590 -0.5227 -0.3014 -0.2019
28100SOL    HW291416   0.934   2.071   2.742  2.2311  0.3810 -0.1408
28101SOL     OW91417   2.277   1.807  11.420 -0.5612 -0.1323 -0.2721
28101SOL    HW191418   2.364   1.794  11.382  0.1888 -1.2002  1.6492
28101SOL    HW291419   2.292   1.868  11.492 -1.8809  1.5841 -1.3740
28102SOL     OW91420   5.434   6.108   1.690 -0.5290  0.0763  0.1991
28102SOL    HW191421   5.487   6.138   1.764  0.7239 -0.6586 -0.3559
28102SOL    HW291422   5.455   6.015   1.681 -1.2644 -0.0319 -0.5826
28103SOL     OW91423   6.965  10.782  10.570  0.0260  0.4291  0.0078
28103SOL    HW191424   7.039  10.726  10.544  0.4548  1.1534 -0.3623
28103SOL    HW291425   7.001  10.870  10.572 -0.2659  0.5404  2.0660
28104SOL     OW91426   7.539  12.469   1.495 -0.0127 -0.0322  0.2358
28104SOL    HW191427   7.496  12.404   1.550 -0.1575 -0.0024  0.1583
28104SOL    HW291428   7.570  12.536   1.557 -0.4539  0.1594  0.2546
28105SOL     OW91429   8.702   2.346   7.759  0.4168  0.4717 -0.0045
28105SOL    HW191430   8.707   2.371   7.852  1.0578 -2.4928  0.8816
28105SOL    HW291431   8.616   2.376   7.731 -0.0555  0.9152  1.7602
28106SOL     OW91432   9.273  10.191   6.484 -0.5157 -0.1289 -0.2220
28106SOL    HW191433   9.233  10.270   6.448 -0.7842  0.3617  1.0934
28106SOL    HW291434   9.201  10.147   6.529 -0.2287 -0.8247 -0.4263
28107SOL     OW91435   1.128   2.016   1.110 -0.1074 -0.3603 -0.1300
28107SOL    HW191436   1.110   1.948   1.045 -1.5667 -1.5387  1.4102
28107SOL    HW291437   1.052   2.074   1.105  0.1524 -0.0080 -0.0213
28108SOL     OW91438   3.301   4.820   3.202  0.1707  0.0663  0.0134
28108SOL    HW191439   3.212   4.843   3.227  0.0222 -0.6278  0.1545
28108SOL    HW291440   3.306   4.725   3.215 -0.1331 -0.5114 -3.1485
28109SOL     OW91441  10.626   1.791  10.019 -0.1039  0.0267  0.3158
28109SOL    HW191442  10.683   1.741  10.077  0.4041  0.9775  0.6545
28109SOL    HW291443  10.537   1.771  10.049  0.0920 -0.6606  0.4446
28110SOL     OW91444   2.679   0.061   6.012 -0.1622 -0.6149 -0.0252
28110SOL    HW191445   2.643  -0.022   5.982 -3.3563  0.9348 -0.8954
28110SOL    HW291446   2.705   0.106   5.932 -2.0978  0.6902  0.0027
28111SOL     OW91447  12.103   3.707  12.433  0.0703 -0.4904  0.1488
28111SOL    HW191448  12.045   3.747  12.498  0.9082 -0.6138  0.9984
28111SOL    HW291449  12.109   3.772  12.363  1.4670  0.9681  1.5265
28112SOL     OW91450  11.043   4.847   8.165 -0.1529  0.0860 -0.3161
28112SOL    HW191451  11.018   4.902   8.239 -0.6620  0.6765 -0.9177
28112SOL    HW291452  11.118   4.797   8.197 -0.2449  0.4699  0.5328
28113SOL     OW91453  11.881  12.425   4.462  0.1456  0.0745 -0.3587
28113SOL    HW191454  11.854  12.454   4.375  1.6436  2.1731 -0.2119
28113SOL    HW291455  11.939  12.494   4.493  1.3120 -1.6276  1.4797
28114SOL     OW91456   0.727   4.905   6.894  0.8245  0.2704  0.2225
28114SOL    HW191457   0.785   4.969   6.853  0.1857 -1.0128 -2.9439
28114SOL    HW291458   0.778   4.824   6.897  1.0669  0.4378  2.7191
28115SOL     OW91459   0.008   4.144  11.196  0.3584  0.3349  0.4267
28115SOL    HW191460   0.026   4.050  11.194  1.6552  0.5612  0.7646
28115SOL    HW291461   0.055   4.179  11.120 -0.1794  0.7059  0.2570
28116SOL     OW91462   5.174  10.224   9.041 -0.3127 -0.8269 -0.3935
28116SOL    HW191463   5.232  10.301   9.040  0.1468 -1.0759  1.9149
28116SOL    HW291464   5.231  10.151   9.066 -1.5487 -1.0799  1.9669
28117SOL     OW91465   3.993   4.288   6.679 -0.3748  0.0700 -0.3408
28117SOL    HW191466   3.946   4.280   6.762  1.3422 -2.5604  0.4968
28117SOL    HW291467   3.950   4.360   6.633 -2.7635  0.1792  1.9032
28118SOL     OW91468  10.974   6.009   2.931  0.7897 -0.4486 -0.5659
28118SOL    HW191469  11.001   5.969   2.848  0.4119  0.0738 -0.9501
28118SOL    HW291470  11.056   6.032   2.975  1.0263  1.0507 -1.6824
28119SOL     OW91471   6.628   4.096  11.174 -0.0594  0.4273 -0.7719
28119SOL    HW191472   6.618   4.038  11.098  0.4353  1.6888 -1.8324
28119SOL    HW291473   6.672   4.173  11.140  2.3842  0.0704  1.2737
28120SOL     OW91474  11.532   4.283   3.316 -0.2187 -0.2100  0.8083
28120SOL    HW191475  11.515   4.258   3.407  0.1151  0.9589  1.2042
28120SOL    HW291476  11.616   4.328   3.319  0.4148 -1.2559 -0.2883
28121SOL     OW91477   9.454   8.365   6.844 -0.0984 -0.0201  0.5232
28121SOL    HW191478   9.447   8.461   6.847 -1.6455 -0.0064 -1.2609
28121SOL    HW291479   9.514   8.349   6.770  0.1500 -0.4287  0.8137
28122SOL     OW91480  12.861   3.279   4.749 -0.7212  0.0326 -0.4260
28122SOL    HW191481  12.930   3.322   4.800 -0.0177 -0.0402 -1.2986
28122SOL    HW291482  12.826   3.347   4.693 -1.4738  0.1023  0.1072
28123SOL     OW91483  10.190   1.807  10.306 -0.1700  0.4001 -0.0385
28123SOL    HW191484  10.166   1.738  10.244  1.2197  0.0408 -0.1932
28123SOL    HW291485  10.263   1.771  10.356 -0.7144  1.0112  1.2593
28124SOL     OW91486  11.713  12.623   0.669 -0.4673 -0.1068 -0.1908
28124SOL    HW191487  11.717  12.528   0.666 -0.4518 -0.2086  1.7869
28124SOL    HW291488  11.791  12.649   0.718 -0.7543  0.8899 -0.2402
28125SOL     OW91489  11.495  11.261   3.009 -0.0038  0.5218 -1.1052
28125SOL    HW191490  11.559  11.320   3.049 -0.4957  1.1484 -1.2475
28125SOL    HW291491  11.480  11.297   2.922  1.8639 -1.4100 -2.3478
28126SOL     OW91492   8.764   4.308   7.545  0.6967  0.2031  0.3029
28126SOL    HW191493   8.840   4.280   7.493 -0.2610  0.0414 -1.0812
28126SOL    HW291494   8.691   4.304   7.483 -0.6286 -0.6021  1.8546
28127SOL     OW91495   0.644   5.333  12.532 -0.0757  0.1225  0.2236
28127SOL    HW191496   0.580   5.271  12.496  0.1119 -0.4880  0.9109
28127SOL    HW291497   0.726   5.283  12.535  0.2570  0.6548  0.0687
28128SOL     OW91498   6.877   6.877   5.191  0.1176 -0.1442  0.2665
28128SOL    HW191499   6.883   6.782   5.196 -1.3096 -0.2357  0.9871
28128SOL    HW291500   6.966   6.908   5.203  0.5554 -1.3789  0.3375
28129SOL     OW91501   9.994   2.322   6.398 -0.8124  0.0755  0.1408
28129SOL    HW191502   9.962   2.324   6.307  2.1951 -0.5995 -1.0476
28129SOL    HW291503   9.930   2.268   6.444 -1.6575 -0.7956 -1.9149
28130SOL     OW91504  11.542   3.760   2.469  0.1924 -0.2211  0.1115
28130SOL    HW191505  11.474   3.699   2.497  0.7031 -0.5352  0.6820
28130SOL    HW291506  11.512   3.845   2.501 -0.6446 -0.1083 -0.9004
28131SOL     OW91507   0.638   4.108   2.230  0.4664 -0.3228  0.5497
28131SOL    HW191508   0.676   4.113   2.142  2.6269 -1.6469  1.3547
28131SOL    HW291509   0.713   4.111   2.289 -0.8783 -0.4790  2.3443
28132SOL     OW91510  11.810   8.464  12.060 -0.0611  0.4092  0.6518
28132SOL    HW191511  11.821   8.376  12.024  2.0924  0.8103  0.1388
28132SOL    HW291512  11.755   8.509  11.996  1.1666  0.2088 -0.6113
28133SOL     OW91513   2.689   2.787   4.927 -0.4641  0.2621  0.2017
28133SOL    HW191514   2.675   2.692   4.927  3.6139 -0.5138  1.4948
28133SOL    HW291515   2.629   2.820   4.994 -1.5312 -1.4159  0.1428
28134SOL     OW91516   3.577   4.158   9.864  0.5399 -0.3169  0.0837
28134SOL    HW191517   3.510   4.093   9.887  0.7876  0.2295  2.6055
28134SOL    HW291518   3.559   4.232   9.922  1.9799  0.7307 -0.7698
28135SOL     OW91519   5.167   2.173   8.958 -0.0798 -0.1438  0.0982
28135SOL    HW191520   5.096   2.235   8.975  1.6317  1.6434  1.2691
28135SOL    HW291521   5.243   2.213   9.000  1.1782 -3.0052  0.7844
28136SOL     OW91522   9.517   2.794  10.682  0.1323  0.8774  0.1402
28136SOL    HW191523   9.521   2.712  10.632  1.9252  0.3422  1.0911
28136SOL    HW291524   9.460   2.850  10.629 -0.3129 -0.6153 -1.0645
28137SOL     OW91525   5.663  11.405   5.741  0.2263 -0.1995  0.3274
28137SOL    HW191526   5.650  11.486   5.790  1.0849  0.9206 -1.2456
28137SOL    HW291527   5.720  11.428   5.669  1.5153 -2.4878  0.5078
28138SOL     OW91528   6.970   1.473  11.420  0.1532 -0.1938  0.2531
28138SOL    HW191529   6.945   1.459  11.329 -2.8611  2.1185  0.5739
28138SOL    HW291530   6.926   1.554  11.445  3.2494  0.8992  2.9493
28139SOL     OW91531   6.863   4.967   0.946  0.7133  0.1752  0.4647
28139SOL    HW191532   6.806   5.036   0.913 -1.4649 -1.7737 -0.0822
28139SOL    HW291533   6.935   4.963   0.883 -1.5818 -1.1414 -2.2974
28140SOL     OW91534   1.146   6.047   0.444  0.3053  0.3445  0.0005
28140SOL    HW191535   1.081   5.981   0.419  1.1123 -1.4223  2.1912
28140SOL    HW291536   1.184   6.077   0.361 -0.9412 -1.0404 -1.1247
28141SOL     OW91537   8.933   5.551   4.326 -0.4910 -0.3307 -0.4291
28141SOL    HW191538   8.893   5.629   4.365  0.2482  0.1808 -0.6750
28141SOL    HW291539   8.890   5.543   4.240 -0.4251 -0.0810 -0.4842
28142SOL     OW91540   1.212   3.770   9.322 -0.2143  0.4477  0.0402
28142SOL    HW191541   1.143   3.834   9.303 -1.2496 -0.6430 -0.0020
28142SOL    HW291542   1.279   3.787   9.256 -0.5595  1.3568 -0.0925
28143SOL     OW91543  12.326   2.552   4.537  0.2601  0.4391 -0.1721
28143SOL    HW191544  12.295   2.638   4.510 -2.9720  0.2653  2.2903
28143SOL    HW291545  12.313   2.496   4.461  0.1454  1.6413 -1.0606
28144SOL     OW91546  11.407  11.633  12.871 -0.2652  0.0746  0.2373
28144SOL    HW191547  11.437  11.542  12.873  0.1418  0.2006 -0.1031
28144SOL    HW291548  11.458  11.676  12.939  1.2398  0.5599 -1.1471
28145SOL     OW91549  10.100  10.469   4.787 -0.1644 -0.3159 -0.8410
28145SOL    HW191550  10.080  10.555   4.823  0.3563  0.0762 -1.4687
28145SOL    HW291551  10.106  10.483   4.693  3.6550 -0.2270 -0.7235
28146SOL     OW91552   0.494   2.685   4.859  1.0953  0.4361  0.2006
28146SOL    HW191553   0.512   2.778   4.868  1.5124  0.2290  1.9448
28146SOL    HW291554   0.402   2.680   4.832  1.3015  1.3532 -0.6849
28147SOL     OW91555  11.528   7.406  11.827 -0.1521  0.4474 -0.3051
28147SOL    HW191556  11.571   7.341  11.772 -0.2262  1.3704 -1.4769
28147SOL    HW291557  11.565   7.391  11.914  1.7041  0.4542 -1.0499
28148SOL     OW91558   7.235   7.165   5.128  0.6662 -0.4038 -0.0151
28148SOL    HW191559   7.266   7.245   5.086  1.4871 -0.3522  0.6501
28148SOL    HW291560   7.308   7.104   5.122  0.3769 -0.7915  0.2989
28149SOL     OW91561   1.697   4.333   3.449 -0.2000 -0.0250 -0.0730
28149SOL    HW191562   1.640   4.340   3.373 -0.1242  0.1975 -0.1097
28149SOL    HW291563   1.785   4.344   3.414 -0.0781 -1.0893 -0.1236
28150SOL     OW91564   0.289   8.570   1.709 -0.0988 -0.3023  0.0328
28150SOL    HW191565   0.370   8.604   1.748 -1.3718 -0.2083  2.8109
28150SOL    HW291566   0.303   8.475   1.705  0.3753 -0.2295 -0.0978
28151SOL     OW91567   0.747  12.616   1.225  0.1855  0.4660 -0.5559
28151SOL    HW191568   0.767  12.527   1.197  1.1640  0.5720 -0.2184
28151SOL    HW291569   0.725  12.607   1.318  0.8489  0.6464 -0.3767
28152SOL     OW91570  12.683   4.578   5.753 -0.1424 -0.2130  0.3842
28152SOL    HW191571  12.715   4.556   5.841 -0.2118 -1.2365  0.1666
28152SOL    HW291572  12.634   4.660   5.765  0.4679  0.0533  1.1621
28153SOL     OW91573   8.061   8.638   9.616 -0.0115 -0.1659 -0.0751
28153SOL    HW191574   8.049   8.598   9.702 -1.0559 -0.0684 -0.1671
28153SOL    HW291575   8.146   8.682   9.623  0.2389 -0.7325  0.6719
28154SOL     OW91576   0.811   3.800   5.171 -0.0838  0.2938 -0.6491
28154SOL    HW191577   0.864   3.801   5.251 -0.4882  3.3191 -0.2837
28154SOL    HW291578   0.743   3.735   5.188  0.1351  0.5104  1.2712
28155SOL     OW91579   8.863   5.041   5.898 -0.3916  0.0561 -0.0828
28155SOL    HW191580   8.829   5.063   5.985  1.1302 -1.5296  0.9796
28155SOL    HW291581   8.937   5.099   5.884  1.0035 -1.4213  0.8813
28156SOL     OW91582  12.390   3.500   8.754  0.0410  0.0324 -0.1973
28156SOL    HW191583  12.412   3.594   8.753 -1.9111  0.5363  0.3849
28156SOL    HW291584  12.474   3.456   8.766  0.7014  1.8287  2.6461
28157SOL     OW91585   3.752   3.380   3.262 -0.0399  0.0467  0.3921
28157SOL    HW191586   3.731   3.287   3.271 -0.2419  0.0863  0.3447
28157SOL    HW291587   3.787   3.388   3.174  3.4119 -0.6175  1.5621
28158SOL     OW91588   3.198   9.380  11.460  0.0814 -0.0798 -0.0416
28158SOL    HW191589   3.232   9.453  11.513  0.1845  0.2540 -0.5675
28158SOL    HW291590   3.194   9.414  11.371 -2.5363  0.2015  0.1227
28159SOL     OW91591   5.786  12.169   4.514 -0.9365 -0.4882 -0.1295
28159SOL    HW191592   5.724  12.144   4.581  0.6588 -0.9710  1.2239
28159SOL    HW291593   5.872  12.148   4.550  0.1359  1.3496 -1.3707
28160SOL     OW91594   2.413   7.781   0.895  0.3452  0.3312 -0.2005
28160SOL    HW191595   2.326   7.746   0.914  0.4146 -0.7535 -1.6852
28160SOL    HW291596   2.398   7.843   0.823  0.8382 -0.1138 -0.6932
28161SOL     OW91597   2.020  12.658   7.934 -0.0545 -0.1152 -0.0528
28161SOL    HW191598   1.995  12.615   8.016 -0.8875  2.0954  0.9406
28161SOL    HW291599   2.115  12.672   7.943  0.4599 -2.5846 -0.8828
28162SOL     OW91600   6.054   4.498  11.723  0.1390  0.1356  0.3542
28162SOL    HW191601   6.136   4.501  11.773  0.6892  1.6643 -0.5693
28162SOL    HW291602   5.987   4.526  11.786  0.8199  2.0038  0.3313
28163SOL     OW91603   5.983   2.154   7.298  0.2485 -0.3333  0.2224
28163SOL    HW191604   5.996   2.235   7.346 -2.5579 -0.2732  1.0276
28163SOL    HW291605   5.923   2.103   7.351 -0.4893 -1.6328 -1.7216
28164SOL     OW91606   1.986   3.792   6.482  0.6499  0.3535 -0.3010
28164SOL    HW191607   1.912   3.758   6.532  1.5982 -0.2155  0.7709
28164SOL    HW291608   2.007   3.722   6.420  0.1766  0.5936 -0.7350
28165SOL     OW91609   2.259   5.277  11.055 -0.7856 -0.5637 -0.0290
28165SOL    HW191610   2.313   5.354  11.036 -0.7472 -0.7092 -0.5322
28165SOL    HW291611   2.320   5.204  11.057 -0.9568 -0.7303 -0.6131
28166SOL     OW91612   0.426   9.420   7.095  0.4294  0.0511  0.0230
28166SOL    HW191613   0.359   9.353   7.083 -1.1288  1.4129  0.6733
28166SOL    HW291614   0.466   9.399   7.179 -0.6259  0.3757  0.6255
28167SOL     OW91615   4.618   0.008   0.735  0.2800  0.2241  0.0943
28167SOL    HW191616   4.680   0.036   0.668  0.5086 -0.3742  0.0520
28167SOL    HW291617   4.547   0.072   0.731  0.3694  0.2850 -0.6027
28168SOL     OW91618   2.994   6.125   0.148 -0.3383 -0.0212 -0.5010
28168SOL    HW191619   3.000   6.057   0.215 -1.6145 -1.0830 -1.3997
28168SOL    HW291620   2.987   6.076   0.066 -0.4119  1.2270 -1.2617
28169SOL     OW91621  12.478  10.750   1.930 -0.3497  0.5133 -0.4893
28169SOL    HW191622  12.388  10.772   1.903 -0.2644  1.3609 -0.1241
28169SOL    HW291623  12.522  10.727   1.849 -0.7633  0.5828 -0.7399
28170SOL     OW91624   9.790  12.665  11.115 -0.3077 -0.2415 -0.0084
28170SOL    HW191625   9.776  12.577  11.149 -1.0676  0.0966  0.6165
28170SOL    HW291626   9.808  12.654  11.022 -0.4503 -1.0509  0.0587
28171SOL     OW91627   7.531   9.694  10.937  0.2135 -0.2429 -0.0221
28171SOL    HW191628   7.499   9.735  10.856 -2.2979 -0.4529  0.7622
28171SOL    HW291629   7.563   9.608  10.910  2.8853  1.0175 -1.2594
28172SOL     OW91630  12.894   9.701  11.882  0.0768  0.1493 -0.0815
28172SOL    HW191631  12.930   9.663  11.962  1.6716  2.1099  0.2070
28172SOL    HW291632  12.962   9.686  11.815 -1.3254 -1.6724 -1.1970
28173SOL     OW91633   4.737  10.487   1.786 -0.0714  0.0813 -0.0710
28173SOL    HW191634   4.768  10.544   1.856 -1.3412 -0.4874  0.9798
28173SOL    HW291635   4.807  10.422   1.776  0.1092  0.1436  0.7060
28174SOL     OW91636   7.557   0.963   0.611 -0.1209 -0.3479  0.1129
28174SOL    HW191637   7.546   1.041   0.556  0.4420 -1.3593 -1.5044
28174SOL    HW291638   7.479   0.911   0.594 -0.3474 -0.2911  0.9506
28175SOL     OW91639  12.366   5.532   2.313  0.7102  0.2258 -0.4691
28175SOL    HW191640  12.385   5.618   2.349  1.1681 -0.5305  1.1823
28175SOL    HW291641  12.420   5.472   2.363  0.0363 -1.0931 -1.2507
28176SOL     OW91642   2.147   1.598  11.255 -0.0622 -0.0677 -0.0696
28176SOL    HW191643   2.176   1.680  11.294 -0.1259  0.8420 -1.8322
28176SOL    HW291644   2.226   1.559  11.218 -0.1389 -0.4901  0.1983
28177SOL     OW91645   4.544   7.196   8.800  0.0466  0.0852  0.5737
28177SOL    HW191646   4.579   7.171   8.714 -1.9644 -1.0036  0.0013
28177SOL    HW291647   4.617   7.183   8.861  1.0957 -0.4943 -0.7632
28178SOL     OW91648  11.334  10.559   8.031  0.2123 -0.1817 -0.8150
28178SOL    HW191649  11.245  10.539   8.000 -1.2083  4.1025 -0.1446
28178SOL    HW291650  11.371  10.615   7.963  1.0723  0.8528  0.4767
28179SOL     OW91651   5.551   3.599  10.125 -0.0159  0.4817 -0.0288
28179SOL    HW191652   5.597   3.527  10.169 -1.7027  0.4300  1.7911
28179SOL    HW291653   5.604   3.618  10.048  1.7533 -1.1134  0.7234
28180SOL     OW91654   4.548   4.899   2.929 -0.4158  0.1669 -0.1944
28180SOL    HW191655   4.463   4.869   2.898  0.0075 -0.2315 -1.0075
28180SOL    HW291656   4.607   4.825   2.913 -0.0167  0.2408  0.8459
28181SOL     OW91657   6.258   4.203   7.800  0.1174 -0.3157  0.2818
28181SOL    HW191658   6.195   4.159   7.856 -0.8224 -1.0706 -1.3055
28181SOL    HW291659   6.205   4.241   7.730  1.0708  2.0086  0.7282
28182SOL     OW91660  12.660  12.315   4.820 -0.2255  0.3813  0.7481
28182SOL    HW191661  12.648  12.319   4.915 -2.6730  0.2823  0.5125
28182SOL    HW291662  12.583  12.268   4.788 -1.8862  4.2791 -1.6449
28183SOL     OW91663   3.096   6.497  11.044  0.4464  0.4952 -0.5665
28183SOL    HW191664   3.136   6.448  10.972 -1.0981  2.2890 -2.7816
28183SOL    HW291665   3.091   6.587  11.011 -0.4149  1.3698  1.7901
28184SOL     OW91666   2.915   3.772   9.775 -0.0179 -0.0827  0.8613
28184SOL    HW191667   2.955   3.842   9.826 -1.0740  0.8810  0.4115
28184SOL    HW291668   2.980   3.702   9.774 -0.2701 -0.5601  4.3405
28185SOL     OW91669  11.241   7.599   5.839  0.3216 -0.1657  0.3376
28185SOL    HW191670  11.154   7.574   5.806  0.6019 -0.6677 -0.0242
28185SOL    HW291671  11.222   7.658   5.912 -0.3240 -0.1114  0.1314
28186SOL     OW91672   6.706   1.422   9.642 -0.1750 -0.3341 -0.2441
28186SOL    HW191673   6.678   1.400   9.731 -0.1271  1.8383  0.3502
28186SOL    HW291674   6.686   1.515   9.633 -0.0262 -0.4752 -2.4708
28187SOL     OW91675   5.196  12.936   7.873 -0.1530  0.2199 -0.1480
28187SOL    HW191676   5.280  12.978   7.856 -0.2006 -0.0104 -1.0059
28187SOL    HW291677   5.136  12.976   7.810 -0.9769  1.2168  1.2248
28188SOL     OW91678   0.990   8.268  10.997 -0.1945  0.1964  0.2305
28188SOL    HW191679   1.074   8.225  11.014  0.3073  1.0767  0.0005
28188SOL    HW291680   0.925   8.199  11.012  0.4383 -0.0396  2.1761
28189SOL     OW91681   8.469   9.207   9.893  0.4376 -0.2128 -0.0767
28189SOL    HW191682   8.378   9.235   9.884 -0.3309 -2.9697 -2.3290
28189SOL    HW291683   8.515   9.251   9.821  0.8004  0.6429  0.6515
28190SOL     OW91684   0.488  10.914   4.251  0.2861 -0.2306 -0.1490
28190SOL    HW191685   0.484  11.004   4.217 -0.6763  0.3595  1.3924
28190SOL    HW291686   0.528  10.863   4.181  0.4345  1.3226 -1.2394
28191SOL     OW91687   8.602   6.842   2.866  0.2075  0.1033  0.5692
28191SOL    HW191688   8.642   6.770   2.817  1.8053  1.7964 -0.7583
28191SOL    HW291689   8.514   6.812   2.886  0.2002 -1.4979 -1.5423
28192SOL     OW91690   6.854   3.458  12.451  0.0784  0.1287  0.2513
28192SOL    HW191691   6.947   3.478  12.440 -0.5823  2.9363 -1.3414
28192SOL    HW291692   6.828   3.507  12.529 -0.3333  0.5262 -0.1282
28193SOL     OW91693   1.711   3.182   2.560 -0.2379  0.3791 -0.1105
28193SOL    HW191694   1.668   3.266   2.543 -0.6511  0.0269 -0.8284
28193SOL    HW291695   1.730   3.147   2.474  0.0420 -0.2186  0.1900
28194SOL     OW91696   9.397   2.829   3.681 -0.0963 -0.3644  0.6309
28194SOL    HW191697   9.351   2.767   3.625 -0.1246  1.1347 -1.1085
28194SOL    HW291698   9.327   2.872   3.732 -0.1526 -1.1555  1.2355
28195SOL     OW91699   7.107   1.931  12.901 -0.4581 -0.5244  0.0384
28195SOL    HW191700   7.038   1.904  12.961 -0.5466  1.3114  0.8208
28195SOL    HW291701   7.061   1.962  12.823 -0.8137  3.0488  1.4774
28196SOL     OW91702   9.450   5.639  10.379  0.3720 -0.0227 -0.1361
28196SOL    HW191703   9.477   5.687  10.301  0.9367  0.5068  0.3733
28196SOL    HW291704   9.417   5.706  10.438 -0.8961 -0.5198 -0.2489
28197SOL     OW91705   3.317  12.382   8.580  0.3426 -0.0769 -0.4109
28197SOL    HW191706   3.235  12.422   8.608  0.5893  1.2250 -1.4323
28197SOL    HW291707   3.294  12.291   8.563 -1.6907  0.8072 -3.4128
28198SOL     OW91708   3.759   9.155   7.190  0.0660  0.0213 -0.5041
28198SOL    HW191709   3.724   9.127   7.275  3.8251 -0.5690  1.0200
28198SOL    HW291710   3.762   9.251   7.195  0.6530 -0.0292  0.2262
28199SOL     OW91711  12.366   6.638   6.369 -0.5431 -0.0548  0.3423
28199SOL    HW191712  12.341   6.724   6.336 -0.0944  0.4517  1.2717
28199SOL    HW291713  12.358   6.646   6.464 -1.3032 -1.3050  0.3989
28200SOL     OW91714   3.112   5.088   9.423 -0.2416 -0.1355 -0.3371
28200SOL    HW191715   3.195   5.075   9.378  1.0770  3.0077  0.8574
28200SOL    HW291716   3.070   5.161   9.377 -1.9908 -1.1249 -0.4125
28201SOL     OW91717   6.763   1.239   2.010  0.0271  0.0120 -0.7783
28201SOL    HW191718   6.724   1.309   2.063 -0.6860  0.3546 -1.7140
28201SOL    HW291719   6.700   1.225   1.939 -0.1874 -2.0662 -0.2501
28202SOL     OW91720  12.000   2.069  11.607  0.1063 -0.3933  0.1997
28202SOL    HW191721  11.960   1.982  11.601 -1.5321  0.1999  1.7529
28202SOL    HW291722  12.091   2.055  11.581 -0.6113 -2.1568 -1.6515
28203SOL     OW91723   5.040   1.144   0.157 -0.4092  0.3966  0.4145
28203SOL    HW191724   4.998   1.194   0.227 -1.7372  1.0779 -0.8243
28203SOL    HW291725   4.990   1.062   0.153 -1.3113  0.9801 -0.7007
28204SOL     OW91726   7.586   9.867   1.240  0.2664 -0.1180  0.2605
28204SOL    HW191727   7.547   9.954   1.240 -1.7116 -0.9473  0.4667
28204SOL    HW291728   7.651   9.869   1.170  0.3499  1.5499  0.3558
28205SOL     OW91729   4.538   3.330  12.893 -0.5043 -0.2260 -0.0855
28205SOL    HW191730   4.569   3.279  12.968 -1.0736 -0.6803 -0.1508
28205SOL    HW291731   4.461   3.282  12.861 -2.1265  1.5871  0.9170
28206SOL     OW91732   1.392   5.394   3.591  0.1052 -0.1174 -0.3467
28206SOL    HW191733   1.450   5.343   3.647 -1.4675  0.0809  1.5836
28206SOL    HW291734   1.350   5.330   3.534  0.5952 -0.5385 -0.2396
28207SOL     OW91735   7.074   3.126   9.162 -0.3350  0.2022 -0.8263
28207SOL    HW191736   7.015   3.071   9.214 -0.9524  1.8098  0.2516
28207SOL    HW291737   7.129   3.170   9.226  0.0417  0.9491 -1.6406
28208SOL     OW91738   0.468  12.032  10.545 -0.1201  0.7357 -0.2475
28208SOL    HW191739   0.522  11.961  10.510  0.2934 -0.2471  2.1739
28208SOL    HW291740   0.397  11.988  10.591 -0.6348  1.9294  0.1428
28209SOL     OW91741   0.428   3.289   0.369  0.1346 -0.4287  0.3086
28209SOL    HW191742   0.465   3.272   0.282 -0.7459 -1.1790  0.0630
28209SOL    HW291743   0.477   3.364   0.401  0.7553 -0.3881 -0.6679
28210SOL     OW91744  11.634  11.221   9.197  0.2132  0.3769 -0.2368
28210SOL    HW191745  11.674  11.287   9.254 -1.8744  1.3393  0.1927
28210SOL    HW291746  11.642  11.258   9.109  0.9710  0.1603 -0.2734
28211SOL     OW91747   1.517   7.657   0.931 -0.1858  0.0418  0.0364
28211SOL    HW191748   1.442   7.716   0.919  0.6091  1.5667  1.9233
28211SOL    HW291749   1.556   7.651   0.844 -1.2172  1.0429 -0.5343
28212SOL     OW91750  12.467   9.403   9.565  0.3693 -0.3052  0.6727
28212SOL    HW191751  12.373   9.404   9.584 -0.2358 -2.2125 -1.7192
28212SOL    HW291752  12.483   9.484   9.517 -0.3872 -0.6416 -0.1720
28213SOL     OW91753   3.307   1.922  12.333  0.6698 -0.1346  0.2872
28213SOL    HW191754   3.288   2.015  12.320  1.3435  0.2609  1.8733
28213SOL    HW291755   3.252   1.897  12.407 -0.6459 -1.4348 -1.0601
28214SOL     OW91756   2.946  12.682   7.174  0.4100 -0.2954 -0.7016
28214SOL    HW191757   3.026  12.731   7.189  0.8593 -1.2230  0.0206
28214SOL    HW291758   2.876  12.746   7.186  0.8274 -0.3360  2.8406
28215SOL     OW91759   3.385   9.751   4.576 -0.4382 -0.0708 -0.0655
28215SOL    HW191760   3.311   9.697   4.606 -0.1826 -0.7606 -0.6461
28215SOL    HW291761   3.441   9.760   4.653 -0.3297 -0.9124 -0.0371
28216SOL     OW91762   4.065   1.261   3.323  0.4818  0.4152 -0.1202
28216SOL    HW191763   4.091   1.238   3.234  0.7264  0.5344 -0.0801
28216SOL    HW291764   4.136   1.231   3.379 -1.3437 -3.2274  0.5175
28217SOL     OW91765   0.990   1.943   7.728  0.1305  0.4297  0.1990
28217SOL    HW191766   0.925   1.939   7.799  0.0170  0.2341  0.0843
28217SOL    HW291767   0.965   2.021   7.678  0.1543  0.5151  0.3197
28218SOL     OW91768   6.185   4.931  12.524 -0.5529  0.1644  0.2029
28218SOL    HW191769   6.237   4.854  12.503 -1.3017 -0.5258  0.8177
28218SOL    HW291770   6.150   4.913  12.611 -2.1401  0.4269 -0.3483
28219SOL     OW91771   5.945   8.153   4.439 -0.4698 -0.4715 -0.7860
28219SOL    HW191772   5.939   8.166   4.344  2.1480 -0.1743 -0.9803
28219SOL    HW291773   5.948   8.058   4.450  2.0073 -0.5439 -1.3424
28220SOL     OW91774   3.588   6.271  11.560  0.2149  0.1348  0.1222
28220SOL    HW191775   3.650   6.213  11.606  0.4828  0.6201  0.3779
28220SOL    HW291776   3.629   6.287  11.475 -0.1085 -0.4681 -0.1573
28221SOL     OW91777   4.084   6.782   2.175  0.0190  0.2966  0.2468
28221SOL    HW191778   4.045   6.829   2.248 -1.7206  1.6908 -1.4554
28221SOL    HW291779   4.172   6.818   2.168 -0.2257  1.0580  0.8921
28222SOL     OW91780  10.372   3.615   7.938  0.0024 -0.5451  0.1502
28222SOL    HW191781  10.449   3.595   7.991  0.2212  1.8460  0.8645
28222SOL    HW291782  10.406   3.640   7.853  0.5312  3.9972  1.4386
28223SOL     OW91783   9.546   6.193   9.295  0.1836  0.4016  0.5452
28223SOL    HW191784   9.636   6.224   9.308 -0.2174  2.4971 -1.0845
28223SOL    HW291785   9.529   6.208   9.202 -1.5162 -0.9593  0.5871
28224SOL     OW91786  12.477   7.950  10.878  0.3454  0.0392  0.1702
28224SOL    HW191787  12.571   7.933  10.874  0.6454  1.1531  1.5344
28224SOL    HW291788  12.466   8.034  10.835 -0.2104 -0.5749 -0.9354
28225SOL     OW91789   8.560  12.142   9.094  0.3033  0.4538 -0.4764
28225SOL    HW191790   8.490  12.179   9.148  2.0950 -1.1811  3.3479
28225SOL    HW291791   8.532  12.052   9.075 -0.2678  0.9817 -2.3725
28226SOL     OW91792   6.101   2.657   5.588  0.4440 -0.4492  0.1260
28226SOL    HW191793   6.033   2.605   5.630  1.3542 -0.5528  1.5548
28226SOL    HW291794   6.093   2.637   5.495 -1.3752 -0.5479  0.2626
28227SOL     OW91795   5.213   0.330   5.367  0.2701  0.0444 -0.0728
28227SOL    HW191796   5.306   0.308   5.357  0.3499  0.3780 -0.0621
28227SOL    HW291797   5.196   0.396   5.300  0.2133  0.4999  0.3855
28228SOL     OW91798   1.782   2.389   4.053 -0.3334 -0.0869 -0.0561
28228SOL    HW191799   1.745   2.391   4.142  1.0553  1.6932  0.5331
28228SOL    HW291800   1.850   2.321   4.058  1.2918  1.5343  0.9606
28229SOL     OW91801   8.751   2.914  10.369  0.3621 -0.3213 -0.3368
28229SOL    HW191802   8.847   2.916  10.375  0.4491  1.0303 -1.6659
28229SOL    HW291803   8.722   2.975  10.436  0.3863 -1.0338  0.3426
28230SOL     OW91804  10.224   4.380   5.283 -0.2742 -0.3813  0.7622
28230SOL    HW191805  10.253   4.328   5.207 -1.1144  1.2596 -0.7383
28230SOL    HW291806  10.139   4.343   5.306 -0.6081 -0.0759  0.0622
28231SOL     OW91807  10.445  12.962   9.508  0.0965 -0.7460  0.3616
28231SOL    HW191808  10.528  12.968   9.461 -0.4090 -1.6512 -0.7007
28231SOL    HW291809  10.459  13.011   9.589  1.4821 -0.4278 -0.0517
28232SOL     OW91810   0.023   5.789   1.813 -0.0874 -0.3888  0.1236
28232SOL    HW191811  -0.036   5.760   1.743  1.6931  1.1726 -2.1509
28232SOL    HW291812   0.110   5.761   1.785  0.7884  1.0315  1.3078
28233SOL     OW91813   8.488   2.952   7.260  0.3953  0.3905 -0.0938
28233SOL    HW191814   8.438   3.013   7.315 -0.3218  0.8229 -1.1848
28233SOL    HW291815   8.422   2.909   7.206  0.9980 -0.6437 -0.0283
28234SOL     OW91816   0.554   0.161   5.107  0.5553  0.2029 -0.6718
28234SOL    HW191817   0.563   0.104   5.183 -0.2193 -1.4087 -1.7263
28234SOL    HW291818   0.625   0.134   5.048  0.0700  0.1768 -1.2604
28235SOL     OW91819   7.362   9.859   2.677  0.0724  0.2392  0.1629
28235SOL    HW191820   7.401   9.831   2.760 -1.3294  0.4812  0.9361
28235SOL    HW291821   7.304   9.786   2.652  0.8463 -0.0424 -0.8746
28236SOL     OW91822   2.341   8.256   6.669 -0.1737 -0.1686  0.3019
28236SOL    HW191823   2.429   8.292   6.661 -0.7252  1.1750  0.1111
28236SOL    HW291824   2.353   8.161   6.659  1.0059  0.1441 -1.8063
28237SOL     OW91825   9.656   0.566   9.927  0.2616 -0.4984  0.3527
28237SOL    HW191826   9.575   0.615   9.913  0.0372 -0.9948 -0.0853
28237SOL    HW291827   9.693   0.606  10.006  0.3016  0.6607 -0.2300
28238SOL     OW91828   4.884  11.356  11.705  0.2328  0.1038  0.5422
28238SOL    HW191829   4.838  11.391  11.781  0.4088 -1.1638  1.2578
28238SOL    HW291830   4.840  11.272  11.687  1.7488 -0.7649  0.7537
28239SOL     OW91831   0.554   6.538   4.278  0.0408  0.7391  0.2202
28239SOL    HW191832   0.467   6.514   4.245  0.0788 -0.0482  0.6771
28239SOL    HW291833   0.561   6.631   4.261 -1.0960  0.9127  0.6327
28240SOL     OW91834   9.313  12.875   4.140 -0.3955 -0.0456 -0.6080
28240SOL    HW191835   9.249  12.886   4.210  0.0998 -0.3121 -0.1069
28240SOL    HW291836   9.361  12.958   4.138  0.1434 -0.3342 -0.0621
28241SOL     OW91837  11.898   2.275   9.032 -0.1880  0.1246  0.1968
28241SOL    HW191838  11.896   2.205   8.966 -1.4573  0.3816 -0.0746
28241SOL    HW291839  11.896   2.229   9.116  1.9405 -0.2207  0.1016
28242SOL     OW91840   0.860  12.526   4.030 -0.7675 -0.0514  0.0899
28242SOL    HW191841   0.809  12.590   3.980  0.0699  0.6714  0.1308
28242SOL    HW291842   0.941  12.572   4.052 -0.2005 -1.0908  0.2418
28243SOL     OW91843   4.347   0.040  11.993  0.2094 -0.1042 -0.0063
28243SOL    HW191844   4.351   0.053  12.088  0.4592  0.4208 -0.0848
28243SOL    HW291845   4.280  -0.027  11.981  1.0772 -1.1286  0.6286
28244SOL     OW91846   5.171   5.238   7.227  0.3420  0.3172  0.1547
28244SOL    HW191847   5.189   5.148   7.254  1.3986 -0.0615 -1.6343
28244SOL    HW291848   5.098   5.265   7.282  1.5002 -0.8013  2.3691
28245SOL     OW91849   2.801  11.862   8.280  0.2256  0.0712 -0.7092
28245SOL    HW191850   2.812  11.825   8.368 -0.0289 -0.4321 -0.8879
28245SOL    HW291851   2.706  11.873   8.271  0.1712 -0.8436 -1.3145
28246SOL     OW91852   8.859   8.835  12.333 -0.2178 -0.4910  0.7629
28246SOL    HW191853   8.823   8.897  12.269 -0.5797 -0.0228  1.4053
28246SOL    HW291854   8.950   8.863  12.344 -0.1626 -0.5529  0.4826
28247SOL     OW91855   2.218   8.843   4.575  0.1956  0.0065  0.2547
28247SOL    HW191856   2.291   8.861   4.635  1.8928  0.0233 -1.7015
28247SOL    HW291857   2.191   8.929   4.544  1.4830 -0.1203 -1.3599
28248SOL     OW91858   0.810   3.914  11.607  0.0474  0.3481 -0.2820
28248SOL    HW191859   0.899   3.884  11.628 -0.8091 -0.9105  1.8701
28248SOL    HW291860   0.786   3.970  11.680 -1.5635 -0.7691  0.0810
28249SOL     OW91861   5.574  12.592  12.158 -0.3086 -0.7793  0.3856
28249SOL    HW191862   5.645  12.607  12.096 -1.9110 -2.3748 -1.9797
28249SOL    HW291863   5.619  12.575  12.241  1.9271  1.3760 -0.2449
28250SOL     OW91864  11.100   2.920   9.254  0.4172  0.3172 -0.2901
28250SOL    HW191865  11.052   2.846   9.218  0.0198 -0.0327  0.9129
28250SOL    HW291866  11.096   2.908   9.349  3.3357 -0.0032 -0.1129
28251SOL     OW91867   7.192   5.462  12.339 -0.5101  0.4280 -0.2641
28251SOL    HW191868   7.273   5.432  12.297  0.6031 -1.2644  2.7845
28251SOL    HW291869   7.210   5.553  12.363  0.4472  0.1325  0.1917
28252SOL     OW91870   7.757  10.829   7.874 -0.0914 -0.0758  0.3965
28252SOL    HW191871   7.801  10.750   7.906  0.1817 -0.3513 -0.6180
28252SOL    HW291872   7.777  10.831   7.781 -1.6941  0.1476  0.0320
28253SOL     OW91873   6.382   3.749  11.770  0.1505  0.6320 -0.4475
28253SOL    HW191874   6.337   3.710  11.845  1.9039 -0.2776  0.2004
28253SOL    HW291875   6.348   3.702  11.694  2.2176 -2.4294  0.2942
28254SOL     OW91876   8.703   2.456  12.779 -0.0439  0.1095 -0.6419
28254SOL    HW191877   8.775   2.516  12.762  1.2852 -1.2208  0.0709
28254SOL    HW291878   8.711   2.388  12.712  0.0330 -0.6092  0.0740
28255SOL     OW91879   2.668   0.894   6.754  0.3300 -1.0741 -0.1018
28255SOL    HW191880   2.703   0.975   6.792  1.0632 -1.5731  0.3177
28255SOL    HW291881   2.611   0.923   6.683  0.5250 -0.1920  0.0906
28256SOL     OW91882   1.784   0.162  11.093  0.4920 -0.3522  0.3211
28256SOL    HW191883   1.827   0.125  11.170  1.2189  0.8391  0.5089
28256SOL    HW291884   1.722   0.226  11.129 -1.0656 -1.6178  0.0255
28257SOL     OW91885   7.806   2.059   2.139 -0.1447 -0.6544 -0.2456
28257SOL    HW191886   7.797   2.106   2.222 -1.7801 -0.9094 -0.2443
28257SOL    HW291887   7.716   2.042   2.111  0.3592 -0.3339 -2.2221
28258SOL     OW91888   8.500  10.130   0.159  0.2343 -0.4754 -0.7431
28258SOL    HW191889   8.559  10.069   0.204  0.4645  1.0109  1.1098
28258SOL    HW291890   8.421  10.131   0.213  1.1925  2.7174  0.8512
28259SOL     OW91891   1.164   6.891   6.111 -0.6135  0.3340  0.7019
28259SOL    HW191892   1.201   6.823   6.054 -0.7571  1.0943 -0.3356
28259SOL    HW291893   1.238   6.946   6.134 -0.7410  0.6962  0.2749
28260SOL     OW91894   7.844   1.267   8.623 -0.2947 -0.2168  0.3696
28260SOL    HW191895   7.813   1.307   8.704 -1.8609 -1.5602  0.5058
28260SOL    HW291896   7.939   1.260   8.633 -0.4567 -0.2987  2.0576
28261SOL     OW91897  11.423   6.162   7.179  0.1310 -0.0528  0.8763
28261SOL    HW191898  11.334   6.143   7.150  0.9113 -2.7391 -0.0681
28261SOL    HW291899  11.430   6.257   7.177 -2.2861  0.1607 -0.3189
28262SOL     OW91900   0.649  11.414   2.170 -0.5638 -0.3831  0.2074
28262SOL    HW191901   0.690  11.494   2.201  1.2582 -1.1026 -0.2095
28262SOL    HW291902   0.562  11.414   2.210 -1.1232  2.4135 -0.7818
28263SOL     OW91903   3.852   0.201   8.716 -0.6218  0.2596  0.3469
28263SOL    HW191904   3.829   0.281   8.764 -1.0431 -0.0838  0.7153
28263SOL    HW291905   3.878   0.232   8.629  0.3170  0.9067  0.8398
28264SOL     OW91906   4.838   0.541  11.615  0.1901  0.6046  0.4354
28264SOL    HW191907   4.817   0.558  11.523  0.9386  0.6748  0.2697
28264SOL    HW291908   4.790   0.461  11.636 -1.8010  1.7879  0.6574
28265SOL     OW91909  12.823   8.635   0.818 -0.7832  0.3631  0.2831
28265SOL    HW191910  12.790   8.705   0.874  0.7029  0.8686  0.5727
28265SOL    HW291911  12.905   8.607   0.860 -0.0099  0.2376 -1.2094
28266SOL     OW91912   3.663   1.103   6.105  0.4318 -0.0585  0.1290
28266SOL    HW191913   3.614   1.066   6.032  3.3524 -1.2796 -1.3698
28266SOL    HW291914   3.725   1.163   6.065  0.6362  0.9627  1.8592
28267SOL     OW91915   7.504   0.502  10.684  0.4738 -0.5776 -0.2579
28267SOL    HW191916   7.592   0.532  10.662  0.9256 -0.4538  1.5835
28267SOL    HW291917   7.517   0.430  10.745 -0.6975 -0.7826 -0.2229
28268SOL     OW91918   7.244  11.972   7.218  0.8134 -0.1422  0.4771
28268SOL    HW191919   7.182  11.994   7.288 -0.6894  1.1418 -1.1574
28268SOL    HW291920   7.300  12.050   7.211  0.6095 -0.0434 -0.0919
28269SOL     OW91921  11.988   2.668   5.733 -0.1129 -0.1810  0.2550
28269SOL    HW191922  12.041   2.609   5.680 -0.0479  0.0335  0.0770
28269SOL    HW291923  11.933   2.715   5.670  0.2399  0.3530  0.3316
28270SOL     OW91924   1.641   4.903   8.836 -0.1168 -0.5071 -0.3513
28270SOL    HW191925   1.579   4.926   8.905  0.4427  1.0976 -0.3317
28270SOL    HW291926   1.587   4.891   8.758 -0.4452  1.6432 -0.5215
28271SOL     OW91927   0.902  10.773   7.581  0.3497  0.2545 -0.7616
28271SOL    HW191928   0.874  10.854   7.539 -2.7463  0.1372  0.8002
28271SOL    HW291929   0.846  10.706   7.543 -2.3696  0.0948  3.0445
28272SOL     OW91930  10.774   2.780   1.347 -0.6899 -0.0867 -1.0414
28272SOL    HW191931  10.859   2.735   1.354 -0.4946  0.4568  0.3343
28272SOL    HW291932  10.792   2.870   1.373 -1.4649  0.3301 -1.9072
28273SOL     OW91933  12.829   9.323   7.948  0.0645 -0.0827 -0.0128
28273SOL    HW191934  12.820   9.377   8.026 -0.2645 -0.8593  0.4991
28273SOL    HW291935  12.753   9.264   7.951  0.2916 -0.4170 -0.6795
28274SOL     OW91936   9.119  12.335   9.540 -0.1301 -0.1083  0.1648
28274SOL    HW191937   9.093  12.409   9.596  0.6705  0.5596 -0.3181
28274SOL    HW291938   9.173  12.280   9.597  1.7937  1.2465 -0.2479
28275SOL     OW91939   5.295   2.998   7.237  0.0280  0.3263 -0.6581
28275SOL    HW191940   5.302   2.916   7.188 -1.4168 -0.5217  0.4653
28275SOL    HW291941   5.307   2.973   7.328 -1.0972  1.2338 -0.2333
28276SOL     OW91942  12.808   4.757   7.860 -0.6810  0.3688 -0.4355
28276SOL    HW191943  12.780   4.677   7.904 -0.2410  0.7053  0.4711
28276SOL    HW291944  12.773   4.828   7.913  2.7247  0.8588  1.4936
28277SOL     OW91945   2.463   6.264  10.741 -0.2318 -0.1792  0.0907
28277SOL    HW191946   2.478   6.219  10.824 -1.7526  2.1443  1.7266
28277SOL    HW291947   2.369   6.253  10.724 -0.3688  1.2132 -0.1567
28278SOL     OW91948   9.696   5.285   2.622 -0.1055 -0.3197  0.2306
28278SOL    HW191949   9.673   5.306   2.713  0.5940 -1.7439  0.7679
28278SOL    HW291950   9.715   5.370   2.582  0.2058  0.2825  1.5898
28279SOL     OW91951   4.287   9.396   5.337  0.3600 -0.4208 -0.5355
28279SOL    HW191952   4.320   9.361   5.255  0.5129 -1.7364  0.0524
28279SOL    HW291953   4.204   9.351   5.351 -0.4506  0.9537 -0.7212
28280SOL     OW91954   9.632   4.345   0.873 -0.3192 -0.2779  0.2137
28280SOL    HW191955   9.704   4.404   0.892  0.1188 -0.9356  0.6457
28280SOL    HW291956   9.553   4.398   0.882  0.0471  0.1477  0.9526
28281SOL     OW91957   2.714   6.408   7.154  0.7422  0.2264  0.0078
28281SOL    HW191958   2.661   6.423   7.232  1.0279 -2.2107  0.7757
28281SOL    HW291959   2.660   6.352   7.099  1.6458 -0.5040 -0.1684
28282SOL     OW91960  11.693   5.740  12.796 -0.8250 -0.4075  0.3516
28282SOL    HW191961  11.704   5.681  12.721 -0.9079 -1.5084  1.1666
28282SOL    HW291962  11.780   5.775  12.812 -0.6376 -0.8240  0.2536
28283SOL     OW91963  10.912  11.328   7.634  0.4209 -0.4357  0.6773
28283SOL    HW191964  11.002  11.355   7.617  0.0985  0.3356  0.1679
28283SOL    HW291965  10.872  11.323   7.548  0.2689 -1.8730  0.8106
28284SOL     OW91966  10.968   6.614  12.100  0.1922  0.5369  0.3052
28284SOL    HW191967  10.892   6.557  12.091 -0.5613  1.4535  0.6965
28284SOL    HW291968  11.038   6.569  12.052 -0.9938  0.4209 -1.3691
28285SOL     OW91969  11.426  11.083  10.059 -0.1425 -0.3315 -0.6668
28285SOL    HW191970  11.386  11.038  10.133 -1.3742  1.3203 -0.2597
28285SOL    HW291971  11.443  11.015   9.994 -0.1938 -1.6192  0.6345
28286SOL     OW91972   8.595   0.381   3.765  0.3506 -0.2633  0.0906
28286SOL    HW191973   8.679   0.409   3.802  0.8121 -0.2403 -0.9281
28286SOL    HW291974   8.545   0.348   3.840  2.0381 -2.2151  0.4406
28287SOL     OW91975   7.598   8.166   9.523  0.4689 -0.3336  0.3498
28287SOL    HW191976   7.616   8.074   9.542  2.3675 -0.8077 -2.9237
28287SOL    HW291977   7.677   8.212   9.552  0.3238 -0.0129  0.2442
28288SOL     OW91978  10.844   2.429   3.813  0.5042  0.1762  0.6909
28288SOL    HW191979  10.910   2.369   3.848 -1.0087 -1.2466  1.1967
28288SOL    HW291980  10.890   2.477   3.744  1.6817 -1.8437 -0.0014
28289SOL     OW91981   9.043   3.660   5.909  0.3476  0.9811 -0.2837
28289SOL    HW191982   9.050   3.583   5.852  0.3964  0.4985  0.3563
28289SOL    HW291983   9.113   3.717   5.880 -0.1925  1.1546 -1.3037
28290SOL     OW91984   1.079   5.277   4.919  0.1526  0.0420  0.2047
28290SOL    HW191985   1.173   5.283   4.939  0.0991  1.9677  0.1232
28290SOL    HW291986   1.076   5.252   4.827  0.5329 -1.5492  0.5961
28291SOL     OW91987   5.224   3.673   4.794  0.3636  0.7192 -0.0573
28291SOL    HW191988   5.263   3.730   4.861  1.0598 -0.7038  0.8114
28291SOL    HW291989   5.224   3.726   4.714 -0.4030  2.4493  1.0116
28292SOL     OW91990  11.474   4.128  10.629  0.3938 -0.2070 -0.2709
28292SOL    HW191991  11.520   4.044  10.634 -1.4098 -1.2683 -0.4680
28292SOL    HW291992  11.392   4.114  10.678  0.1287  1.4964 -0.1615
28293SOL     OW91993  11.842   6.631  10.454 -0.2088  0.3773  0.0897
28293SOL    HW191994  11.902   6.658  10.385  0.7608  0.4866  0.9410
28293SOL    HW291995  11.892   6.643  10.535 -1.6895  1.3270  0.9131
28294SOL     OW91996  10.343  11.421   0.811  0.1137 -0.2136  0.9183
28294SOL    HW191997  10.273  11.486   0.809  1.1551  0.9926 -1.5186
28294SOL    HW291998  10.303  11.344   0.850 -2.1266  0.8875  0.9813
28295SOL     OW91999   7.326  10.067  10.294  0.0999  0.0874  0.0514
28295SOL    HW192000   7.296  10.154  10.321  0.2825  0.4227 -0.7931
28295SOL    HW292001   7.287  10.054  10.208  0.7697 -0.3024 -0.1968
28296SOL     OW92002   6.543   2.319   2.125  0.5002  0.4847 -0.2987
28296SOL    HW192003   6.512   2.322   2.215 -0.5443  1.4753 -0.6622
28296SOL    HW292004   6.591   2.401   2.114  1.6800 -0.1889 -0.2956
28297SOL     OW92005   9.098  10.238   6.091  0.2553  0.0556 -0.1081
28297SOL    HW192006   9.067  10.272   6.175  2.5310  0.9474  0.4436
28297SOL    HW292007   9.068  10.147   6.090 -1.2077  0.4746  0.8983
28298SOL     OW92008   4.151   5.829   9.821 -0.1871  0.1392 -0.5143
28298SOL    HW192009   4.059   5.818   9.801 -0.5592  0.1510  1.0550
28298SOL    HW292010   4.154   5.903   9.882  1.0867  1.4456 -2.0763
28299SOL     OW92011   1.815   6.333  11.950 -0.6529  0.0472  0.4052
28299SOL    HW192012   1.833   6.239  11.949 -1.2979 -0.1576  2.8196
28299SOL    HW292013   1.787   6.353  11.861  1.2672 -1.6436 -0.6715
28300SOL     OW92014   3.183   1.938   6.812 -0.1503 -0.4211  0.0206
28300SOL    HW192015   3.142   2.009   6.763  0.2105  0.9242  1.5833
28300SOL    HW292016   3.134   1.935   6.894 -1.0934 -2.9687 -0.5491
28301SOL     OW92017   6.598   1.057   3.638  0.6055 -0.3069 -0.6096
28301SOL    HW192018   6.686   1.080   3.608  0.5286 -0.7411 -1.1974
28301SOL    HW292019   6.610   1.023   3.726  1.0692 -0.6811 -0.8181
28302SOL     OW92020   2.758   3.524   1.928  0.7246  0.6268 -0.2610
28302SOL    HW192021   2.784   3.448   1.876  0.9461  0.3721  0.2135
28302SOL    HW292022   2.743   3.594   1.864  1.4616  0.4562 -0.6258
28303SOL     OW92023  12.164   5.854   2.647 -0.2902 -0.1746  0.9910
28303SOL    HW192024  12.246   5.886   2.685  0.4070 -0.6113 -0.0948
28303SOL    HW292025  12.182   5.763   2.624 -1.3243 -0.4988  1.3994
28304SOL     OW92026   3.481   3.074   9.659  0.0617  0.0023 -0.3855
28304SOL    HW192027   3.396   3.038   9.636  0.3800 -0.4993 -0.8198
28304SOL    HW292028   3.501   3.136   9.588  1.3630 -2.0681 -1.9618
28305SOL     OW92029   2.525   2.429  11.474  0.1189  0.1875  0.0009
28305SOL    HW192030   2.591   2.495  11.497 -0.9326  1.4955 -0.6253
28305SOL    HW292031   2.495   2.395  11.558  0.2189  0.9787  0.3661
28306SOL     OW92032  10.006  12.209   1.742 -0.1558  0.2240 -0.7516
28306SOL    HW192033   9.950  12.275   1.701 -1.1340 -2.4468 -4.2586
28306SOL    HW292034  10.095  12.230   1.711 -0.1862  0.8010 -0.4634
28307SOL     OW92035   2.141   0.238   4.702 -0.1492 -0.3121 -0.0867
28307SOL    HW192036   2.127   0.221   4.609  0.6264  3.0611 -0.9392
28307SOL    HW292037   2.225   0.196   4.722 -1.1534 -2.6239 -0.3293
28308SOL     OW92038   6.208   2.196   1.976 -0.1404  0.3069 -0.3355
28308SOL    HW192039   6.248   2.120   1.933 -1.6928  0.2875 -1.8399
28308SOL    HW292040   6.218   2.268   1.913 -1.1739  0.6400 -0.1476
28309SOL     OW92041  12.570   2.565   4.224  0.2619 -0.1331 -0.0722
28309SOL    HW192042  12.552   2.594   4.135 -0.4206 -0.2313  0.0288
28309SOL    HW292043  12.546   2.640   4.279  0.2037 -0.2499  0.0626
28310SOL     OW92044  10.246  10.864   9.823 -1.0207 -0.4149  0.0307
28310SOL    HW192045  10.292  10.887   9.904  0.7168  1.2422 -1.3432
28310SOL    HW292046  10.166  10.821   9.853 -0.5879  0.3941  2.6375
28311SOL     OW92047   6.973   7.239   5.133 -0.0412 -0.1927  0.1830
28311SOL    HW192048   6.947   7.208   5.046 -1.4744  1.3838 -0.0080
28311SOL    HW292049   7.058   7.198   5.149 -0.4777 -1.7767 -1.2630
28312SOL     OW92050   8.859   1.554  12.268  0.6139 -0.0264 -0.5580
28312SOL    HW192051   8.923   1.597  12.212 -0.3113  2.0628 -0.1207
28312SOL    HW292052   8.909   1.525  12.344  1.1922  0.7936 -0.6138
28313SOL     OW92053   1.851   6.533  12.756 -0.4326  0.4356 -0.7806
28313SOL    HW192054   1.837   6.484  12.838  0.6309  0.0246 -0.8301
28313SOL    HW292055   1.764   6.541  12.718 -0.6665 -1.2971 -0.6891
28314SOL     OW92056   1.669  10.900   4.170 -0.0661  0.2575 -0.3075
28314SOL    HW192057   1.637  10.892   4.260 -2.2806 -1.1256 -1.1241
28314SOL    HW292058   1.590  10.893   4.116  1.4782 -2.1306 -2.4875
28315SOL     OW92059   7.464   5.667  11.971  0.1439 -0.2028 -0.4749
28315SOL    HW192060   7.518   5.709  11.905 -0.5604  2.5345  0.5294
28315SOL    HW292061   7.521   5.602  12.012  2.8454  2.5747  0.5838
28316SOL     OW92062  10.918   0.441   9.893 -0.4364  0.3285  0.2866
28316SOL    HW192063  10.871   0.503   9.837  1.4166  2.4509  0.9139
28316SOL    HW292064  10.970   0.389   9.832 -1.6133 -0.2837 -0.2214
28317SOL     OW92065   4.805   9.320  11.469  0.0890 -0.4218  1.3425
28317SOL    HW192066   4.824   9.304  11.376 -2.6775  1.1323  0.3954
28317SOL    HW292067   4.886   9.360  11.502  1.0366 -0.7105 -0.4616
28318SOL     OW92068  12.254   0.474   2.140  0.3449 -0.6273 -0.4640
28318SOL    HW192069  12.160   0.458   2.144  0.3329 -0.3824  0.6012
28318SOL    HW292070  12.264   0.568   2.158  0.7591 -0.5313 -1.1487
28319SOL     OW92071  11.420   1.071  10.492  0.1045 -0.1805  0.3215
28319SOL    HW192072  11.409   1.034  10.580 -2.7470 -2.0241 -0.6842
28319SOL    HW292073  11.398   1.164  10.503 -0.4054 -0.4196  1.5083
28320SOL     OW92074  11.802   7.110  10.722  0.5633  0.2702 -0.2369
28320SOL    HW192075  11.770   7.034  10.772  3.3382 -1.7110 -1.2232
28320SOL    HW292076  11.816   7.178  10.788  1.7967 -1.4398  1.3754
28321SOL     OW92077   1.843   5.639   0.810 -0.3155 -0.0729 -0.3594
28321SOL    HW192078   1.826   5.607   0.721  0.0063  1.0150 -0.8250
28321SOL    HW292079   1.929   5.680   0.805 -0.5333  0.4910  0.3169
28322SOL     OW92080   4.269   4.381  12.718 -0.4783  0.1530 -0.3721
28322SOL    HW192081   4.194   4.441  12.714  0.8657  2.0467  0.9946
28322SOL    HW292082   4.237   4.308  12.770 -1.1500  1.3681  1.0213
28323SOL     OW92083   5.090   1.405  12.647 -0.1222 -0.2232 -0.1505
28323SOL    HW192084   5.023   1.350  12.605  1.5805 -2.9025  0.3931
28323SOL    HW292085   5.060   1.414  12.737 -0.9112  0.6538 -0.4834
28324SOL     OW92086   0.136   6.053  11.115  0.4873 -0.3032  0.1741
28324SOL    HW192087   0.154   5.995  11.189  1.1444  0.6731  0.8054
28324SOL    HW292088   0.072   6.116  11.149  0.9478  0.2737 -0.0197
28325SOL     OW92089   0.589   7.115   8.081 -0.1945  0.0261 -0.0079
28325SOL    HW192090   0.583   7.197   8.031 -0.8139  0.1939  0.3282
28325SOL    HW292091   0.682   7.097   8.086 -0.0532 -2.5986 -5.4031
28326SOL     OW92092   5.664  11.254   6.700  0.6199 -0.1526  0.6205
28326SOL    HW192093   5.696  11.333   6.657 -0.7079 -0.1443 -0.4273
28326SOL    HW292094   5.578  11.238   6.659  1.7501 -3.3550 -0.8176
28327SOL     OW92095   0.151   1.940   9.342  0.1163  0.5073  0.2659
28327SOL    HW192096   0.243   1.928   9.364  0.1182 -0.6717 -0.3085
28327SOL    HW292097   0.149   2.019   9.287  0.4660  1.8234  2.0476
28328SOL     OW92098   0.625   3.120   0.731 -0.0085 -0.1957  0.7475
28328SOL    HW192099   0.686   3.193   0.720 -1.1616  0.8053  0.7950
28328SOL    HW292100   0.539   3.161   0.734 -0.7313 -1.6130  0.2555
28329SOL     OW92101   1.465   2.614  10.329  0.2699 -0.7585 -0.5520
28329SOL    HW192102   1.462   2.707  10.308 -0.8924 -0.7728 -0.5325
28329SOL    HW292103   1.431   2.570  10.251 -0.0705 -1.0933 -0.2226
28330SOL     OW92104   9.104   2.786   7.210 -0.1202 -0.1069  0.0476
28330SOL    HW192105   9.157   2.736   7.273 -1.5144 -2.1598 -0.3101
28330SOL    HW292106   9.153   2.779   7.128 -0.5558 -1.4427 -0.1303
28331SOL     OW92107   6.223   5.618   7.289  0.4873  0.4573 -0.6871
28331SOL    HW192108   6.224   5.666   7.372 -0.8084  0.1983 -0.5063
28331SOL    HW292109   6.254   5.530   7.312 -0.8794  0.0720 -0.2566
28332SOL     OW92110   9.852  10.451  10.394  0.0645  0.4774 -0.2456
28332SOL    HW192111   9.905  10.374  10.415 -0.2924  0.6372  1.3674
28332SOL    HW292112   9.770  10.437  10.441  0.0533  1.9150  0.2071
28333SOL     OW92113   3.938   1.430  12.126  0.1324  0.1001 -0.3407
28333SOL    HW192114   3.893   1.447  12.209 -0.8077  0.2827 -0.8643
28333SOL    HW292115   4.021   1.390  12.151 -0.5842 -0.8201  0.6476
28334SOL     OW92116  11.885   3.346   2.190 -0.6698  0.2245 -0.4171
28334SOL    HW192117  11.796   3.380   2.179 -0.1236  1.8973  0.0114
28334SOL    HW292118  11.892   3.276   2.125 -1.6125  1.4807 -1.9603
28335SOL     OW92119   6.620   1.299  10.698 -0.1121  0.3743 -0.0040
28335SOL    HW192120   6.643   1.223  10.645  2.7575  1.4959 -0.5308
28335SOL    HW292121   6.585   1.363  10.635  0.4655  0.6293 -0.0664
28336SOL     OW92122  12.239   5.705   9.425  0.0910 -0.2326  0.2845
28336SOL    HW192123  12.234   5.786   9.374 -0.0552 -0.4382 -0.0315
28336SOL    HW292124  12.178   5.646   9.381  1.2091 -0.9675 -0.3099
28337SOL     OW92125   0.485   9.241   0.178 -0.0360  0.1469 -0.4329
28337SOL    HW192126   0.485   9.148   0.201 -1.3882  0.2974  0.2846
28337SOL    HW292127   0.470   9.243   0.083 -0.6344 -0.3451 -0.3467
28338SOL     OW92128   6.826  10.297   8.834  0.5028  0.6043 -0.2029
28338SOL    HW192129   6.819  10.201   8.829  1.0653  0.5914 -0.8841
28338SOL    HW292130   6.791  10.319   8.920 -0.5604 -0.1229 -0.4350
28339SOL     OW92131   8.597   5.449  12.188 -0.1664  0.2901 -0.5067
28339SOL    HW192132   8.514   5.486  12.159 -0.9967 -0.8090  0.4042
28339SOL    HW292133   8.655   5.460  12.112 -1.4881 -0.0397 -1.6114
28340SOL     OW92134   0.266   8.525   2.472 -0.1562 -0.0937  0.4325
28340SOL    HW192135   0.204   8.497   2.539  1.1525 -2.4580  0.7435
28340SOL    HW292136   0.352   8.510   2.511  0.6275 -0.4862 -1.3723
28341SOL     OW92137   7.082   0.378   9.624  0.0646 -0.4137 -0.0984
28341SOL    HW192138   7.078   0.283   9.613 -1.8596 -0.4090  0.2524
28341SOL    HW292139   7.053   0.413   9.540 -0.0555 -0.1413  0.0557
28342SOL     OW92140   2.165   9.795  10.504 -0.0638 -0.0126 -0.5062
28342SOL    HW192141   2.168   9.851  10.582  0.9852 -1.3420  0.4656
28342SOL    HW292142   2.074   9.766  10.499 -0.7183  2.0141 -1.2520
28343SOL     OW92143   0.745   7.411   1.211  0.2117  0.3099 -0.9100
28343SOL    HW192144   0.681   7.397   1.142 -0.8362  2.6785 -0.5380
28343SOL    HW292145   0.823   7.442   1.166  0.6660 -1.2429 -1.2470
28344SOL     OW92146   1.660   1.592  11.338  0.0480 -0.0427 -0.2601
28344SOL    HW192147   1.743   1.629  11.369  0.8384 -0.6245 -1.5783
28344SOL    HW292148   1.626   1.657  11.276  0.0550 -0.2623 -0.4992
28345SOL     OW92149   2.395   3.509   0.433  0.2670  0.1214  0.0303
28345SOL    HW192150   2.445   3.487   0.354 -2.0541  1.5929 -2.0036
28345SOL    HW292151   2.459   3.503   0.504  2.2926 -2.0691 -1.7938
28346SOL     OW92152   8.829  12.702   0.977 -0.1522 -0.0355 -0.3913
28346SOL    HW192153   8.818  12.712   1.072  1.0270  0.6758 -0.3181
28346SOL    HW292154   8.923  12.710   0.962 -0.3868  0.5379 -1.7032
28347SOL     OW92155   5.113  12.509   5.315 -0.4311 -0.6546 -0.3713
28347SOL    HW192156   5.192  12.561   5.303  0.3813 -1.6115  0.5544
28347SOL    HW292157   5.058  12.529   5.240  1.1904 -0.8467 -1.6555
28348SOL     OW92158   5.191  11.497   9.125  0.4856 -0.6151  0.3187
28348SOL    HW192159   5.265  11.445   9.095  1.0228  1.7632 -3.0573
28348SOL    HW292160   5.114  11.444   9.104  1.0897 -1.0622 -0.8775
28349SOL     OW92161   0.958   5.987   3.166 -0.1574 -0.4107 -0.0603
28349SOL    HW192162   0.869   6.011   3.137  0.5521  1.5406 -0.7648
28349SOL    HW292163   0.944   5.938   3.247 -1.9283 -1.1571 -0.7599
28350SOL     OW92164   9.528   2.682  11.341 -0.1667 -0.6207  0.2130
28350SOL    HW192165   9.464   2.616  11.315  0.1879 -1.8844  2.2522
28350SOL    HW292166   9.496   2.714  11.426 -0.2071  1.7142 -0.6121
28351SOL     OW92167  10.061  10.757   8.085 -0.3661  0.2464  0.0926
28351SOL    HW192168  10.116  10.725   8.156  0.8261 -1.1248 -1.3861
28351SOL    HW292169   9.991  10.693   8.077  0.6017 -0.6900 -1.2119
28352SOL     OW92170   8.938   9.891   1.334  0.2212  0.0568  0.3016
28352SOL    HW192171   8.995   9.968   1.344 -0.3499  0.2743  2.6153
28352SOL    HW292172   8.918   9.866   1.424 -1.7868 -1.1842 -0.4476
28353SOL     OW92173   8.521   3.691   0.961  0.2721 -0.4872 -0.0554
28353SOL    HW192174   8.425   3.689   0.963  0.2635  0.1164  1.2323
28353SOL    HW292175   8.543   3.669   0.871 -1.0508 -1.3580 -0.1963
28354SOL     OW92176   3.935  10.924   3.487 -0.7120 -0.3209 -0.2288
28354SOL    HW192177   3.904  10.959   3.404 -1.6947  1.2984  0.7553
28354SOL    HW292178   4.029  10.940   3.487 -0.8369  0.4526 -0.6863
28355SOL     OW92179  11.538   0.621   8.210  0.1633  0.4014 -0.3770
28355SOL    HW192180  11.549   0.648   8.301 -2.8435 -0.8253  0.4767
28355SOL    HW292181  11.602   0.673   8.162  1.4958  1.4927  2.3359
28356SOL     OW92182   9.039  11.610   6.025 -0.5142  0.0329  0.9554
28356SOL    HW192183   9.040  11.630   5.931  0.5693  0.6216  1.0764
28356SOL    HW292184   9.114  11.658   6.060  0.8102 -2.3612  1.6428
28357SOL     OW92185   2.895   0.019   6.568 -0.7165  0.2408  0.2601
28357SOL    HW192186   2.986  -0.008   6.558 -0.6843  0.2223  0.5812
28357SOL    HW292187   2.844  -0.058   6.543 -0.6856  0.7470 -1.4801
28358SOL     OW92188   4.388   4.684   5.621 -0.1122  0.3790 -0.3172
28358SOL    HW192189   4.478   4.660   5.598 -0.3213 -0.4998 -0.2497
28358SOL    HW292190   4.342   4.685   5.537 -0.1010  0.5820 -0.3222
28359SOL     OW92191   7.089   1.854   8.263 -0.0702 -0.3588  0.1614
28359SOL    HW192192   7.163   1.836   8.206 -0.9009 -1.7297 -0.5479
28359SOL    HW292193   7.128   1.891   8.342  1.3478 -0.8452 -0.2800
28360SOL     OW92194   2.752   7.961   1.391  0.2922  0.1362  0.0084
28360SOL    HW192195   2.847   7.958   1.387  0.3703  1.2589  0.6695
28360SOL    HW292196   2.723   7.900   1.323  1.4730 -0.8458  0.3577
28361SOL     OW92197  10.697   1.833   2.941 -0.7552 -0.0727  0.3709
28361SOL    HW192198  10.681   1.771   2.870  0.9187  0.6583 -0.7094
28361SOL    HW292199  10.744   1.782   3.007 -1.7556 -0.5996  0.6861
28362SOL     OW92200  11.835   5.474   8.483 -0.2623 -0.0818 -0.4041
28362SOL    HW192201  11.882   5.511   8.408  0.1911  0.0372 -0.0652
28362SOL    HW292202  11.899   5.475   8.554 -1.1098  1.1797  0.3845
28363SOL     OW92203   5.270   1.213  12.795 -0.0668  0.1828  0.1834
28363SOL    HW192204   5.185   1.171  12.781 -0.4542  0.7844  0.6905
28363SOL    HW292205   5.295   1.187  12.884  1.3088 -1.7497 -0.6902
28364SOL     OW92206   3.893   9.473   1.411 -0.1761  0.1058 -0.2546
28364SOL    HW192207   3.901   9.498   1.319  0.1691  0.8097 -0.0413
28364SOL    HW292208   3.814   9.518   1.441 -0.4302 -0.3227 -0.2571
28365SOL     OW92209   6.306  12.082   2.277 -0.3266 -0.2021  0.0806
28365SOL    HW192210   6.348  12.058   2.360  0.3230  0.0716 -0.1608
28365SOL    HW292211   6.241  12.147   2.302 -1.2844 -1.3237  0.5837
28366SOL     OW92212  11.630   8.655   0.681  0.2587  0.2425  0.0832
28366SOL    HW192213  11.591   8.609   0.606 -0.0018 -0.7271  0.7932
28366SOL    HW292214  11.688   8.591   0.722 -0.1271  0.5246  1.1095
28367SOL     OW92215   3.738   6.431   1.581  0.5655 -0.3651 -0.1739
28367SOL    HW192216   3.658   6.428   1.528  0.9674 -0.2114 -0.7993
28367SOL    HW292217   3.751   6.525   1.600  0.2557 -0.4444  0.4664
28368SOL     OW92218  11.440   7.489   0.999 -0.6378  0.0324  0.2428
28368SOL    HW192219  11.400   7.406   0.973 -0.0255  0.5310 -2.6954
28368SOL    HW292220  11.528   7.465   1.027 -1.0693 -0.4664  1.2278
28369SOL     OW92221   0.146   5.978   5.683  0.3695 -0.2534 -0.5812
28369SOL    HW192222   0.231   5.973   5.728  0.9297 -1.2852 -1.7005
28369SOL    HW292223   0.154   6.055   5.627 -0.7964  1.8142  1.8896
28370SOL     OW92224   3.649  12.856   6.316  0.8015 -0.2135 -0.2131
28370SOL    HW192225   3.729  12.865   6.368  1.7310  0.8639 -1.7346
28370SOL    HW292226   3.670  12.786   6.254 -0.0282 -0.9929  0.3711
28371SOL     OW92227   4.382   7.347   4.155  0.3538 -0.0316 -0.3228
28371SOL    HW192228   4.288   7.363   4.149 -0.1434 -2.6819 -0.6040
28371SOL    HW292229   4.420   7.404   4.087 -1.0484  0.8558 -0.4121
28372SOL     OW92230   4.296   0.699   8.938  0.5525 -0.5530 -0.0084
28372SOL    HW192231   4.352   0.727   9.010 -1.0110  0.7066  0.7853
28372SOL    HW292232   4.258   0.780   8.904 -1.1799 -1.3747 -0.1500
28373SOL     OW92233   7.015   9.572   0.257  0.3465 -0.4779 -0.1113
28373SOL    HW192234   7.103   9.602   0.235  0.5609 -1.0066  0.0266
28373SOL    HW292235   6.989   9.519   0.182  0.2558 -0.5605 -0.0201
28374SOL     OW92236  11.072  10.447   8.030 -0.6470  0.0388 -0.0090
28374SOL    HW192237  11.019  10.497   8.091 -1.9769 -2.0892  0.7046
28374SOL    HW292238  11.017  10.438   7.952 -0.4788 -0.3705 -0.0841
28375SOL     OW92239   1.377   3.303   6.719  0.0546 -1.0741 -0.5583
28375SOL    HW192240   1.329   3.326   6.639  0.5166 -1.0909 -0.8522
28375SOL    HW292241   1.338   3.357   6.787  0.4695 -0.1164 -1.0480
28376SOL     OW92242  11.407   4.282   8.649  0.3176  0.0868 -0.1348
28376SOL    HW192243  11.481   4.291   8.710  0.1885  1.0462 -0.1061
28376SOL    HW292244  11.448   4.260   8.565  0.6661  0.8240 -0.1671
28377SOL     OW92245   3.010   0.303  10.409  0.0801  0.3037  0.5135
28377SOL    HW192246   3.045   0.264  10.328 -0.7544  0.5833  0.0100
28377SOL    HW292247   2.946   0.241  10.441  2.6288 -1.3984  2.7715
28378SOL     OW92248   6.118   7.005   7.394  0.2677  0.8000  0.5449
28378SOL    HW192249   6.206   7.025   7.363  0.2696  2.1305  1.3440
28378SOL    HW292250   6.113   7.045   7.481 -1.3510  1.3539  0.2349
28379SOL     OW92251   0.433   7.577  12.203  0.6251 -0.3751  0.0458
28379SOL    HW192252   0.494   7.597  12.273 -0.1705 -2.4648  1.4150
28379SOL    HW292253   0.486   7.579  12.123  1.7421  1.0939  0.7844
28380SOL     OW92254   8.846   0.021   4.801 -0.2600  0.8550  0.7048
28380SOL    HW192255   8.861  -0.072   4.784  0.2931  0.9753  0.5011
28380SOL    HW292256   8.853   0.030   4.896 -1.2651  0.5340  0.8185
28381SOL     OW92257  10.707   2.575   4.380  0.1458 -0.6613 -0.7601
28381SOL    HW192258  10.642   2.580   4.450  0.3129 -2.8257 -0.3836
28381SOL    HW292259  10.751   2.491   4.394  3.1951  0.8144 -0.8955
28382SOL     OW92260  12.684   6.096  12.104  0.0486 -0.0232  0.2453
28382SOL    HW192261  12.625   6.137  12.041 -0.1891 -1.4658 -0.5033
28382SOL    HW292262  12.770   6.131  12.084  0.2270 -1.5057 -1.8658
28383SOL     OW92263   8.557   8.770   9.424 -0.4932  0.5950  0.0791
28383SOL    HW192264   8.610   8.753   9.501 -0.5228  1.9187  0.4157
28383SOL    HW292265   8.577   8.698   9.364  0.1048 -0.0298  1.0124
28384SOL     OW92266   5.290   2.966   0.518 -0.0644  0.4853 -0.5015
28384SOL    HW192267   5.331   3.002   0.440 -0.9720  1.8695 -0.3748
28384SOL    HW292268   5.198   2.993   0.512 -0.4142 -0.4084  0.4513
28385SOL     OW92269   5.596   0.564   9.963 -0.2197 -0.3243 -0.2188
28385SOL    HW192270   5.654   0.577  10.038  0.6211 -0.2324 -0.8670
28385SOL    HW292271   5.554   0.480   9.980 -0.0852 -0.2771  0.3853
28386SOL     OW92272  10.995   7.974   2.961  0.0863 -0.0146  0.1874
28386SOL    HW192273  10.954   8.016   2.885  0.5402  3.1163  1.5435
28386SOL    HW292274  10.938   7.996   3.034  1.1341 -0.5980  1.2022
28387SOL     OW92275  11.171   0.092   9.454  0.2213 -0.4240  0.1687
28387SOL    HW192276  11.222   0.125   9.380  1.1707 -0.5479  0.7480
28387SOL    HW292277  11.212   0.132   9.531 -0.7977 -0.2353  0.6342
28388SOL     OW92278   5.740   1.743  11.888  0.1842 -0.6008 -0.0399
28388SOL    HW192279   5.764   1.834  11.909  0.2709 -0.6591  0.1175
28388SOL    HW292280   5.759   1.734  11.795 -1.7938  0.1770 -0.5603
28389SOL     OW92281   6.512   3.965   7.282  0.1291 -1.0906  0.5907
28389SOL    HW192282   6.523   3.967   7.377 -1.7230 -0.3586  0.8245
28389SOL    HW292283   6.437   4.022   7.265 -0.2696 -2.0796 -1.2126
28390SOL     OW92284   9.466  11.397   1.837  0.2318  0.5671 -0.2438
28390SOL    HW192285   9.539  11.429   1.784  0.1427 -1.2924 -1.5920
28390SOL    HW292286   9.388  11.435   1.797  0.3367  1.3146  0.2437
28391SOL     OW92287   2.016   3.738   3.388 -0.9951  0.7220  0.1237
28391SOL    HW192288   1.961   3.737   3.466  0.7756  0.1995  1.4180
28391SOL    HW292289   1.960   3.700   3.320 -2.1044 -0.1707  1.4613
28392SOL     OW92290   3.284   0.231  10.248  0.1884  0.3873  0.3699
28392SOL    HW192291   3.281   0.137  10.233  0.8923  0.4724 -0.4000
28392SOL    HW292292   3.331   0.241  10.330  2.0167  0.1226 -0.5891
28393SOL     OW92293  11.631   4.342  10.512 -0.0687 -0.0682 -0.2318
28393SOL    HW192294  11.663   4.427  10.541  0.9053 -0.5108  0.0189
28393SOL    HW292295  11.578   4.310  10.585  0.0517  0.0599 -0.0872
28394SOL     OW92296   7.538   3.333   7.991  0.3172 -0.2795  0.4336
28394SOL    HW192297   7.507   3.367   7.907  0.7978 -1.7639 -0.3585
28394SOL    HW292298   7.565   3.412   8.039 -1.7191  0.7787 -0.0351
28395SOL     OW92299   0.907   9.093   1.521  0.1751  0.6472 -0.2900
28395SOL    HW192300   0.824   9.064   1.560 -0.8458  2.2990 -1.1186
28395SOL    HW292301   0.961   9.014   1.518 -0.8399 -0.1872  1.5457
28396SOL     OW92302   7.744   2.423  10.883 -0.1831 -0.0018  0.3013
28396SOL    HW192303   7.814   2.445  10.945  0.7704  0.2428 -0.8310
28396SOL    HW292304   7.735   2.502  10.829  0.2965 -0.8472 -1.0500
28397SOL     OW92305  12.240   4.187   5.071  0.0248 -0.2327  1.0185
28397SOL    HW192306  12.279   4.105   5.042  0.2602  0.3750 -0.4901
28397SOL    HW292307  12.154   4.189   5.030  0.5959  0.9238 -0.2001
28398SOL     OW92308   4.689   9.762   7.844 -0.0772  0.5777 -0.6065
28398SOL    HW192309   4.776   9.739   7.814 -1.5271 -0.3081 -4.7731
28398SOL    HW292310   4.646   9.678   7.862 -0.8793  0.8162 -1.3265
28399SOL     OW92311   9.165  12.392   9.278  0.0075 -0.5091 -0.6428
28399SOL    HW192312   9.093  12.339   9.244  0.7461 -1.8163 -0.2368
28399SOL    HW292313   9.178  12.360   9.367  0.4563  0.3975 -0.3736
28400SOL     OW92314   3.981   5.100   6.719  0.1469 -0.0355 -0.0395
28400SOL    HW192315   3.890   5.118   6.743 -0.2237 -0.7669 -0.8654
28400SOL    HW292316   3.983   5.007   6.696  1.0208  0.0575 -0.3983
28401SOL     OW92317   3.384   3.080  12.082  0.0659 -0.0316  0.1252
28401SOL    HW192318   3.354   3.065  12.171  2.4210 -0.0891  0.9848
28401SOL    HW292319   3.354   3.004  12.033 -1.5349  0.1571  0.7475
28402SOL     OW92320   2.559   6.405   8.261  0.2129  0.6317  0.1993
28402SOL    HW192321   2.560   6.373   8.171 -1.8570  1.0299 -0.0124
28402SOL    HW292322   2.651   6.414   8.284  0.7923  0.9938 -2.0385
28403SOL     OW92323   9.040   5.826   2.336  0.2050  0.4354 -0.1277
28403SOL    HW192324   8.964   5.778   2.302 -1.6860  2.0273  1.5652
28403SOL    HW292325   9.112   5.763   2.331 -1.1022 -1.0165 -2.1936
28404SOL     OW92326  10.642   2.211   3.871 -0.1117  0.0069 -0.4886
28404SOL    HW192327  10.704   2.272   3.910 -0.3760 -0.6287  1.0124
28404SOL    HW292328  10.653   2.130   3.922 -0.2634 -0.9799 -1.9611
28405SOL     OW92329   1.853   8.089  11.063 -0.1660 -0.0411  0.3877
28405SOL    HW192330   1.900   8.034  11.126  0.1193 -0.3747 -0.1120
28405SOL    HW292331   1.761   8.078  11.087 -0.0899 -0.5133  0.4730
28406SOL     OW92332   3.482  11.805   9.800  0.1101  0.2613 -0.1585
28406SOL    HW192333   3.530  11.885   9.820  0.0399 -0.1354  1.7450
28406SOL    HW292334   3.443  11.779   9.883 -0.6432 -1.2513 -0.9490
28407SOL     OW92335   1.076   0.562   1.256  0.1942  0.3006  0.0018
28407SOL    HW192336   1.049   0.470   1.256  1.1085  0.0007  1.1406
28407SOL    HW292337   0.996   0.610   1.237 -0.3744 -0.7109 -0.2647
28408SOL     OW92338   0.777   4.805   6.230 -0.2405 -0.1838  0.6550
28408SOL    HW192339   0.745   4.867   6.296 -1.2217 -0.3640  0.3710
28408SOL    HW292340   0.750   4.720   6.263  0.4332 -0.3971  0.6634
28409SOL     OW92341   8.560   4.235   0.477  0.2570  0.8475 -0.0436
28409SOL    HW192342   8.589   4.319   0.512  0.7706  0.7830 -0.3066
28409SOL    HW292343   8.475   4.220   0.518 -0.9358  2.5907 -1.7717
28410SOL     OW92344   3.120   5.661   6.585  0.4000 -0.4847  0.2429
28410SOL    HW192345   3.171   5.592   6.627 -0.1965 -0.0140  1.8545
28410SOL    HW292346   3.029   5.636   6.602  0.1791  0.8452  1.1771
28411SOL     OW92347   3.854   4.131   0.065 -0.7535  0.1337 -0.2146
28411SOL    HW192348   3.777   4.074   0.060 -0.2016 -0.6089 -0.5777
28411SOL    HW292349   3.882   4.140  -0.026  0.1555 -0.4228 -0.0047
28412SOL     OW92350   6.920   7.494   2.622  0.1238 -0.3312 -0.2510
28412SOL    HW192351   6.855   7.507   2.690 -0.9399  0.1374 -1.3326
28412SOL    HW292352   7.002   7.524   2.661 -0.7729  1.6028  0.2285
28413SOL     OW92353   2.050   2.088   4.514  0.1575 -0.5152  0.1297
28413SOL    HW192354   1.972   2.143   4.502 -0.0469 -1.0206 -0.9871
28413SOL    HW292355   2.060   2.082   4.608 -1.4855 -0.8814  0.3175
28414SOL     OW92356   0.110  10.402   0.886  0.0032  0.0284  0.0737
28414SOL    HW192357   0.196  10.440   0.872 -0.8146  1.9218 -0.1478
28414SOL    HW292358   0.085  10.429   0.974 -0.4252 -0.3877  0.0895
28415SOL     OW92359   5.898   9.079   9.897 -0.0301 -0.0798 -0.3411
28415SOL    HW192360   5.846   9.024   9.955 -0.7461  1.4068  0.5018
28415SOL    HW292361   5.985   9.082   9.937  0.0663 -0.7499 -0.5011
28416SOL     OW92362   0.616   6.301   6.896  0.6681  0.3416  0.5488
28416SOL    HW192363   0.694   6.317   6.844 -0.1939  0.1893 -0.8389
28416SOL    HW292364   0.544   6.305   6.833 -0.4718  0.7306  1.8369
28417SOL     OW92365   2.161   2.931   2.529 -0.3708 -0.8402  0.6970
28417SOL    HW192366   2.250   2.903   2.549 -0.3984 -1.9026 -0.5052
28417SOL    HW292367   2.105   2.877   2.585 -0.3762 -2.5967 -0.9096
28418SOL     OW92368   6.128   1.129   1.414 -0.3826  0.3676 -0.0622
28418SOL    HW192369   6.142   1.058   1.351  1.2856 -0.5713  1.2918
28418SOL    HW292370   6.034   1.148   1.407 -0.7276 -1.4229 -1.0307
28419SOL     OW92371   2.031   9.113  10.193 -0.2282 -0.4923 -0.1584
28419SOL    HW192372   1.969   9.047  10.164 -0.5053 -0.8686  1.2014
28419SOL    HW292373   2.117   9.078  10.169 -0.4552 -0.6862 -0.6810
28420SOL     OW92374  12.220   7.328   6.008  0.3990 -0.0819  0.7939
28420SOL    HW192375  12.161   7.298   6.077 -0.2001 -1.2723 -0.1859
28420SOL    HW292376  12.215   7.423   6.011 -0.2105 -0.1336  1.8702
28421SOL     OW92377   9.342   9.328  11.469 -0.2432 -0.2556  0.9152
28421SOL    HW192378   9.339   9.250  11.524 -0.7551 -0.8303  0.0924
28421SOL    HW292379   9.250   9.349  11.452 -0.1420  1.0030  1.7655
28422SOL     OW92380   4.171   9.622   8.875  0.6008 -0.2083  0.4660
28422SOL    HW192381   4.169   9.569   8.954  0.1273 -1.0419 -0.0941
28422SOL    HW292382   4.265   9.633   8.857  0.7297  0.6464  1.5582
28423SOL     OW92383   7.848  12.787  11.811  0.2682 -0.0736 -0.3086
28423SOL    HW192384   7.788  12.724  11.772 -1.4442  1.0365  0.4108
28423SOL    HW292385   7.884  12.742  11.888 -1.9666  0.2025  0.9818
28424SOL     OW92386   8.727   9.680   9.070  0.1693 -0.0053 -0.6846
28424SOL    HW192387   8.722   9.706   8.978 -3.5791 -0.9878 -0.9579
28424SOL    HW292388   8.760   9.757   9.115  1.1333  0.8436 -2.7258
28425SOL     OW92389   7.746   4.924   8.601 -0.2926 -0.2670  0.4386
28425SOL    HW192390   7.821   4.959   8.648  0.5607  0.1060 -1.1431
28425SOL    HW292391   7.781   4.896   8.516 -1.6024 -1.7413  0.3365
28426SOL     OW92392   3.852  11.009  11.588 -0.4472  0.4847 -0.2626
28426SOL    HW192393   3.782  10.948  11.613  0.4628  0.0159  1.2769
28426SOL    HW292394   3.925  10.952  11.563  0.2800  0.9088  0.8127
28427SOL     OW92395  10.320   1.215   0.327 -0.2998  0.2964  0.5338
28427SOL    HW192396  10.402   1.188   0.286 -0.5461  0.3390  0.0175
28427SOL    HW292397  10.293   1.292   0.277 -0.6305  0.3133  0.7394
28428SOL     OW92398  12.502   2.282   4.735 -0.0348 -0.3382 -0.3491
28428SOL    HW192399  12.451   2.245   4.806  0.2595 -0.4101 -0.1732
28428SOL    HW292400  12.485   2.224   4.660 -0.3430 -0.2622 -0.3411
28429SOL     OW92401   9.937   6.575  12.468  0.5120 -0.5803 -0.0848
28429SOL    HW192402   9.880   6.587  12.392 -1.6637 -0.4529  1.4486
28429SOL    HW292403   9.913   6.489  12.503 -2.1195  1.1743  3.0596
28430SOL     OW92404  12.406   4.015  10.377 -0.3390  0.2380 -0.3015
28430SOL    HW192405  12.488   3.996  10.422 -1.0430  0.7761  1.2635
28430SOL    HW292406  12.405   3.955  10.303  0.9874 -0.4786  0.2348
28431SOL     OW92407   9.195   1.847   2.490  0.4273 -0.2201  0.2434
28431SOL    HW192408   9.194   1.942   2.481  1.5094 -0.3687 -2.6936
28431SOL    HW292409   9.103   1.823   2.499 -0.2551  0.9884 -2.3256
28432SOL     OW92410   8.044   5.549  10.429 -0.2889 -0.1749  0.5330
28432SOL    HW192411   8.106   5.622  10.429 -0.5309  0.0312  0.0900
28432SOL    HW292412   8.071   5.493  10.356  0.5185 -1.0743  1.4865
28433SOL     OW92413  11.635   9.249   4.180 -0.2627 -0.4361  0.2805
28433SOL    HW192414  11.656   9.181   4.244  0.6391  0.3188  0.8094
28433SOL    HW292415  11.541   9.264   4.190 -0.4530 -1.4990  0.2402
28434SOL     OW92416   2.442   5.323   7.364 -0.0851  0.5258 -0.4030
28434SOL    HW192417   2.353   5.294   7.344 -0.5176  0.7834  1.0077
28434SOL    HW292418   2.432   5.413   7.394  0.6540  0.5772 -0.2915
28435SOL     OW92419  10.661   2.307   9.666 -0.3318  0.9502 -0.1290
28435SOL    HW192420  10.729   2.328   9.601  0.4808  0.2263  0.4684
28435SOL    HW292421  10.590   2.367   9.645 -0.3577  0.3093 -2.1029
28436SOL     OW92422   3.495  11.822   0.620  0.1492 -0.5460  0.0638
28436SOL    HW192423   3.442  11.743   0.607  0.5903 -0.5565 -2.0126
28436SOL    HW292424   3.573  11.807   0.566  1.2089  0.4575  1.2530
28437SOL     OW92425   8.138   3.574   3.443  0.5135 -0.3227 -0.2256
28437SOL    HW192426   8.150   3.668   3.433  0.5663 -0.4115 -1.1023
28437SOL    HW292427   8.045   3.560   3.429  0.2954 -0.2723  1.0896
28438SOL     OW92428  10.677  11.614   2.951 -0.5120 -0.2042 -0.2390
28438SOL    HW192429  10.709  11.671   2.880  1.3131 -0.6200  0.2086
28438SOL    HW292430  10.704  11.658   3.031 -0.9543 -0.6537  0.1601
28439SOL     OW92431  11.300   8.309   8.405  0.2922 -0.3982 -0.1265
28439SOL    HW192432  11.319   8.335   8.315  0.3380  1.2344  0.3309
28439SOL    HW292433  11.348   8.371   8.459 -1.1431 -0.2465  1.0371
28440SOL     OW92434   8.357   1.274   5.042  0.4744 -0.0980  0.0532
28440SOL    HW192435   8.307   1.324   5.107 -0.2194  0.0856 -0.6130
28440SOL    HW292436   8.433   1.242   5.091 -1.5413 -2.5585  1.8004
28441SOL     OW92437  12.004   7.312   1.964 -0.0872  0.0735  0.7856
28441SOL    HW192438  12.004   7.397   2.010 -0.2843  0.8268 -0.5475
28441SOL    HW292439  12.058   7.327   1.887 -1.5693 -0.4789 -0.4041
28442SOL     OW92440   4.775   7.605  11.971 -0.3299  0.3934  0.0369
28442SOL    HW192441   4.735   7.690  11.986 -0.7945  0.3476 -0.8395
28442SOL    HW292442   4.712   7.558  11.916 -0.7738 -1.0719  1.7021
28443SOL     OW92443  11.510   7.931   7.630 -0.0480  0.1323 -0.1557
28443SOL    HW192444  11.570   7.868   7.670 -0.3329  0.3348  0.6034
28443SOL    HW292445  11.425   7.887   7.632 -0.4587  0.9423  1.3623
28444SOL     OW92446  10.909   9.473   4.153  0.1944  0.0277 -0.1428
28444SOL    HW192447  10.872   9.470   4.065 -0.7788  0.3906  0.2395
28444SOL    HW292448  10.986   9.415   4.149 -1.1668 -1.8511 -0.6353
28445SOL     OW92449   6.838  12.701   9.138  0.3190 -0.0689  0.0555
28445SOL    HW192450   6.883  12.747   9.209  0.9441  1.0693 -1.0359
28445SOL    HW292451   6.829  12.767   9.069 -0.8082 -0.9799 -0.7022
28446SOL     OW92452   8.367   0.812   9.147  0.2161  0.1288  0.1019
28446SOL    HW192453   8.340   0.776   9.231 -0.4919  1.0644  0.2990
28446SOL    HW292454   8.375   0.906   9.163  2.5280  0.0434 -0.2555
28447SOL     OW92455   7.559   8.746   4.972 -0.1032 -0.1614  0.2163
28447SOL    HW192456   7.521   8.666   4.936 -1.2311 -0.0762  1.1293
28447SOL    HW292457   7.634   8.765   4.916 -0.7897 -0.9485 -1.0233
28448SOL     OW92458   6.407  11.420  12.647 -0.0363  0.2146  0.0106
28448SOL    HW192459   6.367  11.421  12.734  0.1621 -0.1883  0.1102
28448SOL    HW292460   6.361  11.351  12.600 -0.0630  0.3527 -0.1654
28449SOL     OW92461  12.099  11.385   0.424 -0.3445  0.1103  0.3126
28449SOL    HW192462  12.120  11.421   0.338  0.5437 -0.2729  0.3512
28449SOL    HW292463  12.021  11.432   0.452  1.0719  2.4514  0.6109
28450SOL     OW92464   0.588   8.987   0.388 -0.3703  0.2440 -0.0353
28450SOL    HW192465   0.495   8.990   0.364 -0.8665  0.1787  1.7334
28450SOL    HW292466   0.591   9.023   0.476  1.3282  0.4001 -0.1243
28451SOL     OW92467   8.186  12.156   3.508 -0.3371  0.3164 -0.0585
28451SOL    HW192468   8.242  12.078   3.505 -0.9616 -0.1873  0.9012
28451SOL    HW292469   8.180  12.185   3.417 -1.0955 -1.4923 -0.6247
28452SOL     OW92470   8.175   6.198   7.179 -0.3714 -0.2718  0.5645
28452SOL    HW192471   8.192   6.264   7.246  0.2196  0.1083  0.0509
28452SOL    HW292472   8.084   6.213   7.154  0.3558  1.9579 -1.2084
28453SOL     OW92473   6.745  10.807   2.597  0.1164  0.2421  0.3223
28453SOL    HW192474   6.805  10.828   2.669 -1.1166  1.6640  0.9724
28453SOL    HW292475   6.699  10.728   2.627 -0.2131  0.6830  1.0064
28454SOL     OW92476  12.803  10.902   3.636 -0.0365  0.0850 -0.4401
28454SOL    HW192477  12.806  10.843   3.561 -0.4044 -0.5474  0.0284
28454SOL    HW292478  12.854  10.857   3.704  0.0529  0.5155 -0.2203
28455SOL     OW92479   7.261   9.500   3.394 -0.0759 -0.5185  0.0038
28455SOL    HW192480   7.292   9.417   3.430  1.6062 -0.0481 -0.2983
28455SOL    HW292481   7.167   9.486   3.379  0.1285 -2.2687  0.1949
28456SOL     OW92482   5.748   0.721  12.433  0.1946  0.0849  1.0431
28456SOL    HW192483   5.692   0.764  12.499 -0.1338  1.4074 -0.0562
28456SOL    HW292484   5.824   0.692  12.483  0.0668  1.2657  1.9902
28457SOL     OW92485   8.165   7.518   4.899 -0.5885  0.0337 -0.2306
28457SOL    HW192486   8.091   7.529   4.958 -0.4872  1.7166 -0.3717
28457SOL    HW292487   8.136   7.452   4.836 -2.4729  1.5089 -1.0143
28458SOL     OW92488   0.096   0.471   6.316  0.4128 -0.0843  0.0382
28458SOL    HW192489   0.035   0.399   6.335  1.0212 -0.8676 -0.9326
28458SOL    HW292490   0.041   0.539   6.277  0.2778 -1.1344 -1.6693
28459SOL     OW92491   3.157   2.473   6.589  0.1788 -0.3182  0.6362
28459SOL    HW192492   3.110   2.551   6.561  0.6490 -0.6441 -1.1889
28459SOL    HW292493   3.092   2.403   6.584 -0.0845 -0.1744  1.7050
28460SOL     OW92494   7.301   0.259  11.027 -0.3673 -0.1399 -0.2429
28460SOL    HW192495   7.250   0.178  11.034 -0.5765 -0.0031 -0.1700
28460SOL    HW292496   7.250   0.323  11.077  1.4672 -0.7447  2.6743
28461SOL     OW92497   0.412  10.644   4.512 -0.1576 -0.4719  0.3789
28461SOL    HW192498   0.475  10.693   4.565 -1.6025 -0.1434  1.8477
28461SOL    HW292499   0.344  10.617   4.573 -0.9989 -1.6127 -0.9937
28462SOL     OW92500   7.919  11.971   8.641 -0.2538 -0.2788  0.3062
28462SOL    HW192501   7.861  11.895   8.644  0.5255 -0.8736  0.9248
28462SOL    HW292502   7.964  11.964   8.557 -0.4137 -0.3235  0.2242
28463SOL     OW92503   2.143   2.435   5.323  0.1015  0.6858 -0.2388
28463SOL    HW192504   2.143   2.527   5.348  1.1295  0.6455 -0.0403
28463SOL    HW292505   2.235   2.414   5.308  0.1053 -0.7443  1.3815
28464SOL     OW92506  12.237   0.174   9.055 -0.6489 -0.1453  0.0245
28464SOL    HW192507  12.326   0.139   9.061 -0.6330 -0.2916 -0.9487
28464SOL    HW292508  12.248   0.268   9.069 -0.6420 -0.4244  2.2037
28465SOL     OW92509   4.670  10.154   4.838  0.2614 -0.2309  0.2256
28465SOL    HW192510   4.743  10.194   4.790 -1.5569  0.6271 -2.0597
28465SOL    HW292511   4.616  10.228   4.866 -1.2372 -0.8619 -0.8060
28466SOL     OW92512   2.927   7.384   8.884 -0.5819  0.1773  0.2670
28466SOL    HW192513   2.956   7.360   8.796 -0.4965 -0.2736  0.4176
28466SOL    HW292514   3.007   7.402   8.933 -0.6541  1.1521  0.0559
28467SOL     OW92515  10.360   3.465   5.801  0.4293 -0.0121 -0.5476
28467SOL    HW192516  10.330   3.386   5.756  1.3062 -0.5335 -0.2282
28467SOL    HW292517  10.403   3.434   5.880  1.4244  0.7357 -0.7746
28468SOL     OW92518   1.930   2.640   7.731 -0.4583 -0.0181  0.1191
28468SOL    HW192519   1.999   2.589   7.774 -1.1528 -0.8432  0.2863
28468SOL    HW292520   1.849   2.607   7.770 -0.8903  1.8076  0.8382
28469SOL     OW92521   8.999   9.836   0.369  0.0661 -0.0352 -0.3864
28469SOL    HW192522   8.976   9.829   0.461  3.3819 -1.2074  0.4936
28469SOL    HW292523   9.043   9.921   0.362  1.2023 -0.6243 -0.5097
28470SOL     OW92524   7.176   0.301   1.155 -0.7491  0.3070  0.5479
28470SOL    HW192525   7.255   0.348   1.182  0.2179 -0.9891  0.0844
28470SOL    HW292526   7.195   0.274   1.065 -1.7497  0.0223  0.4162
28471SOL     OW92527   8.806  12.541   7.991 -0.1336  0.2908  0.4549
28471SOL    HW192528   8.852  12.625   7.995  0.9227 -0.2578  0.1606
28471SOL    HW292529   8.863  12.480   8.038 -0.6237 -0.3764  0.1919
28472SOL     OW92530   2.081   7.233   5.039  0.5869  0.0103 -0.2801
28472SOL    HW192531   2.019   7.178   5.086  1.4615 -0.7907 -0.0298
28472SOL    HW292532   2.060   7.218   4.946  0.6880 -0.5998 -0.2082
28473SOL     OW92533   0.757   3.036   6.005  0.1776 -0.1330 -0.8637
28473SOL    HW192534   0.771   3.041   6.100 -1.5426 -0.2417 -0.5726
28473SOL    HW292535   0.785   3.122   5.972  1.7705 -0.4588 -0.4260
28474SOL     OW92536   5.702   3.040   4.964  0.1147  0.5971 -0.1815
28474SOL    HW192537   5.708   3.135   4.964  2.0339  0.6079 -3.4252
28474SOL    HW292538   5.622   3.020   4.915 -0.5478  0.4683  0.9038
28475SOL     OW92539   7.129   6.108   8.351  0.5091 -0.0544 -0.4756
28475SOL    HW192540   7.043   6.104   8.309  0.4959 -1.6567 -0.3630
28475SOL    HW292541   7.174   6.180   8.307 -1.1350  1.3118 -0.0143
28476SOL     OW92542   4.707   1.569   1.079  0.0090 -0.2625  0.6504
28476SOL    HW192543   4.698   1.522   1.162  1.7848 -1.2079  0.3638
28476SOL    HW292544   4.621   1.559   1.036  0.5154 -4.2638  0.1363
28477SOL     OW92545   1.643   6.914   2.767  0.1990 -0.3902 -0.0535
28477SOL    HW192546   1.698   6.846   2.728  0.0312 -0.1400 -0.7365
28477SOL    HW292547   1.701   6.989   2.776  1.1045 -1.3149  3.0167
28478SOL     OW92548  12.551   5.769   1.750  0.0043 -0.0397 -0.1634
28478SOL    HW192549  12.555   5.757   1.655  0.4997  0.3310 -0.1951
28478SOL    HW292550  12.606   5.846   1.767  0.8520 -0.7701  0.5352
28479SOL     OW92551   9.993   4.079   4.610 -0.0455  0.6332  0.1381
28479SOL    HW192552   9.935   4.151   4.632 -0.6095  1.0405 -2.4353
28479SOL    HW292553   9.936   4.001   4.611 -0.4449  0.8826 -1.3461
28480SOL     OW92554   2.984  12.665   8.673 -0.3427  0.5334  0.0286
28480SOL    HW192555   3.059  12.723   8.672  0.4933 -0.5286 -0.7636
28480SOL    HW292556   2.908  12.723   8.665  0.4954  1.4511 -1.6733
28481SOL     OW92557  10.391   8.083   7.332  0.4397 -0.5750  0.4212
28481SOL    HW192558  10.448   8.011   7.361 -0.2960 -1.5059 -0.3696
28481SOL    HW292559  10.314   8.077   7.389  0.4671 -0.2797  0.4907
28482SOL     OW92560   3.300  10.881   4.977  0.0801 -0.3840 -0.3061
28482SOL    HW192561   3.275  10.826   4.903  0.9462  0.3146 -1.1381
28482SOL    HW292562   3.217  10.914   5.012 -0.3064 -0.1882 -1.3797
28483SOL     OW92563   8.548   9.425  10.824 -0.3194 -0.0129 -0.2675
28483SOL    HW192564   8.540   9.383  10.738 -1.8073 -0.1470 -0.0922
28483SOL    HW292565   8.642   9.435  10.837 -0.0518 -0.0620 -1.8800
28484SOL     OW92566   7.749   8.573  11.876  0.2975  0.6715 -0.8332
28484SOL    HW192567   7.719   8.583  11.966  0.7630 -0.2959 -0.5647
28484SOL    HW292568   7.731   8.658  11.836 -2.6512  0.2452 -0.6660
28485SOL     OW92569   0.178   6.211   7.546  0.1789 -0.3672 -0.5250
28485SOL    HW192570   0.248   6.259   7.590 -0.9830 -1.6031  3.0493
28485SOL    HW292571   0.220   6.132   7.512  0.8019 -0.5348  0.5627
28486SOL     OW92572   4.984  10.797   5.011  0.1180  0.1218 -0.1477
28486SOL    HW192573   4.981  10.885   5.050  0.9042  0.5534 -1.0208
28486SOL    HW292574   4.986  10.738   5.086 -0.3899  0.8533  0.4569
28487SOL     OW92575   7.707   1.500   4.128 -0.2213  0.0059  0.6047
28487SOL    HW192576   7.773   1.503   4.058 -1.2129 -0.3616 -0.3866
28487SOL    HW292577   7.638   1.444   4.092 -0.7258 -0.2447  1.9270
28488SOL     OW92578  10.142   6.208   3.977 -0.3469 -0.1643 -0.1122
28488SOL    HW192579  10.134   6.146   3.904 -1.7022  0.4511 -0.5180
28488SOL    HW292580  10.144   6.294   3.935 -1.6877  0.2259  0.5917
28489SOL     OW92581   5.296   3.222   2.169  0.6640 -0.1048 -0.2855
28489SOL    HW192582   5.295   3.303   2.119 -0.5866 -1.5950 -2.8953
28489SOL    HW292583   5.220   3.229   2.227  1.0432  0.9084  0.0985
28490SOL     OW92584   2.927   9.738   2.873 -0.0857  0.1274  0.3692
28490SOL    HW192585   2.835   9.718   2.891 -1.4417  3.3026 -1.9859
28490SOL    HW292586   2.958   9.780   2.953 -1.5438  1.2480  0.4040
28491SOL     OW92587   0.308   0.398  11.409 -0.3159 -0.4079  0.3345
28491SOL    HW192588   0.309   0.454  11.487  0.9206  0.6937 -0.4229
28491SOL    HW292589   0.216   0.375  11.398 -0.5734 -0.2913  1.8931
28492SOL     OW92590   0.578  12.305   5.133 -0.1713  0.2494 -0.1729
28492SOL    HW192591   0.514  12.371   5.161 -0.8388  0.6761 -2.4354
28492SOL    HW292592   0.525  12.238   5.090  0.6883 -0.7450  0.2936
28493SOL     OW92593   7.918   3.820   7.682 -0.7476 -0.1841  0.0741
28493SOL    HW192594   7.966   3.893   7.644  1.0674 -1.2168  0.2847
28493SOL    HW292595   7.833   3.857   7.706 -0.0578  1.7190 -0.2865
28494SOL     OW92596  10.588   9.460   7.373 -0.0363 -0.4813  0.0263
28494SOL    HW192597  10.576   9.398   7.302  0.9659 -0.5524 -0.0945
28494SOL    HW292598  10.516   9.442   7.433  0.1231 -1.6187 -0.1051
28495SOL     OW92599  11.450   1.992  11.085 -0.3117 -0.4529 -0.6825
28495SOL    HW192600  11.432   2.054  11.014 -2.2740 -0.3658 -0.1590
28495SOL    HW292601  11.496   2.044  11.151 -0.0388 -0.0931 -1.1516
28496SOL     OW92602  12.818   6.805   8.164 -0.0619 -0.0214  0.2954
28496SOL    HW192603  12.853   6.809   8.075  0.5498 -1.7269  0.4145
28496SOL    HW292604  12.754   6.733   8.161  0.1898 -0.3058  1.2833
28497SOL     OW92605   1.299  10.669   2.811  0.1033 -0.4878 -0.2702
28497SOL    HW192606   1.248  10.683   2.731  0.9847 -0.7162 -0.9008
28497SOL    HW292607   1.330  10.756   2.835 -0.0428 -0.4371 -0.2674
28498SOL     OW92608   1.010  12.245   0.292  0.3069 -0.3022  0.0782
28498SOL    HW192609   0.997  12.246   0.197 -1.9747 -0.7243  0.3202
28498SOL    HW292610   1.029  12.336   0.315 -0.5634  0.0762 -0.6432
28499SOL     OW92611   4.291   8.187  11.819 -0.4149  0.0448 -0.1931
28499SOL    HW192612   4.223   8.234  11.867 -1.1681 -0.2991 -0.9031
28499SOL    HW292613   4.371   8.200  11.871 -1.2778 -0.6524  1.3666
28500SOL     OW92614   2.091   5.787   6.872  0.6014 -0.0537  0.1425
28500SOL    HW192615   2.117   5.805   6.962  1.1841 -1.3481  0.2537
28500SOL    HW292616   2.085   5.873   6.831  0.1267  0.5682  1.4618
28501SOL     OW92617   6.574  12.643  10.784 -0.2394  0.3889  0.3496
28501SOL    HW192618   6.595  12.563  10.735  1.5182  0.9214  0.1657
28501SOL    HW292619   6.651  12.699  10.774 -1.4910  2.2058  0.3347
28502SOL     OW92620   1.669   6.015  12.406 -0.2885  0.1401  0.6436
28502SOL    HW192621   1.760   6.033  12.432  0.5381 -1.5473 -0.8357
28502SOL    HW292622   1.649   5.931  12.447  0.1595 -1.2987 -1.8727
28503SOL     OW92623   6.426  11.145   8.550  0.0721  0.5260 -0.0940
28503SOL    HW192624   6.380  11.176   8.628 -0.2841  0.5810 -0.3259
28503SOL    HW292625   6.446  11.053   8.569  0.7518  0.7682  0.4173
28504SOL     OW92626   3.658  11.942   0.417  0.1437 -0.7334  0.1057
28504SOL    HW192627   3.733  11.945   0.357  1.6306 -0.2485  1.8926
28504SOL    HW292628   3.596  11.883   0.375  1.4103 -0.9333 -1.5826
28505SOL     OW92629  11.002   2.652   7.712 -0.0068 -0.2309 -0.4777
28505SOL    HW192630  10.976   2.744   7.707 -1.7041 -0.6921 -0.8635
28505SOL    HW292631  11.003   2.622   7.621 -0.1374 -0.7591 -0.3113
28506SOL     OW92632   5.880  12.866   1.862  0.1031 -0.2697 -0.2513
28506SOL    HW192633   5.901  12.959   1.872 -0.6545 -0.2485  1.3070
28506SOL    HW292634   5.853  12.837   1.949  1.8046 -2.3559 -0.3121
28507SOL     OW92635  12.133   8.827   5.200  0.1091 -0.1985  0.5611
28507SOL    HW192636  12.173   8.746   5.167 -0.5850 -1.2552  2.1924
28507SOL    HW292637  12.046   8.828   5.160 -1.0947 -1.9674  2.8755
28508SOL     OW92638   0.418  12.525   8.242 -0.0273  0.1860  0.0557
28508SOL    HW192639   0.464  12.542   8.160 -1.1899  0.2266 -0.6172
28508SOL    HW292640   0.481  12.479   8.297  1.5867  2.2772  0.0718
28509SOL     OW92641   6.980  10.046   8.282  0.3846 -0.4730  0.6234
28509SOL    HW192642   6.909  10.095   8.325 -0.4547  0.6900 -1.8880
28509SOL    HW292643   6.939   9.964   8.254  0.2130 -0.1484 -0.1102
28510SOL     OW92644   9.698  12.036  10.704  0.3180  0.3448  0.0929
28510SOL    HW192645   9.705  12.001  10.615  0.9483  0.4719  0.0897
28510SOL    HW292646   9.787  12.062  10.727  0.0820  0.7181  0.6001
28511SOL     OW92647   3.844   2.058   8.944 -0.0185 -0.1364  0.0523
28511SOL    HW192648   3.781   2.130   8.947  2.2568  2.0394 -0.7673
28511SOL    HW292649   3.795   1.985   8.907 -2.1566  1.3072 -0.1509
28512SOL     OW92650   7.582  11.997  10.304 -0.2377  0.0276  0.1376
28512SOL    HW192651   7.547  12.085  10.315 -1.8794 -0.7724  2.1032
28512SOL    HW292652   7.592  11.964  10.394  0.9645 -1.5685 -0.5225
28513SOL     OW92653  10.799   3.894  10.209 -0.1884 -0.1138  0.6489
28513SOL    HW192654  10.843   3.967  10.252 -1.5157 -0.2497  2.3702
28513SOL    HW292655  10.861   3.822  10.216  0.0385  0.1402  1.4674
28514SOL     OW92656   9.397  11.663   9.180 -0.2379 -0.0380  0.3289
28514SOL    HW192657   9.430  11.747   9.146  1.7722 -1.9047 -2.8228
28514SOL    HW292658   9.403  11.672   9.276  1.2673  2.9014  0.0777
28515SOL     OW92659  11.758   2.007   6.675 -0.8448  0.2104  0.2585
28515SOL    HW192660  11.852   1.996   6.664 -0.8187  1.5289 -1.0239
28515SOL    HW292661  11.748   2.046   6.762 -0.1094  1.1661 -0.0759
28516SOL     OW92662   2.772   3.008   8.933  0.8457 -0.0913  0.2287
28516SOL    HW192663   2.832   2.992   8.861  3.6843  0.4665  2.2910
28516SOL    HW292664   2.817   3.070   8.989 -2.2866  1.4522  1.3149
28517SOL     OW92665  12.477   4.737   6.528  0.3203  0.6493 -0.3918
28517SOL    HW192666  12.500   4.776   6.445 -0.9615  0.3922 -0.9000
28517SOL    HW292667  12.559   4.704   6.564  1.0716  1.8621 -0.9569
28518SOL     OW92668   7.040   4.233   7.230  0.3769  0.0644 -0.2767
28518SOL    HW192669   7.007   4.157   7.280  1.1606  0.6002  1.1033
28518SOL    HW292670   6.974   4.247   7.162 -1.1819 -0.1868  1.1234
28519SOL     OW92671   8.897   9.195  10.063  0.1013 -0.3467  0.2327
28519SOL    HW192672   8.836   9.143  10.011  0.7150 -0.5480 -0.2908
28519SOL    HW292673   8.943   9.130  10.117 -1.6415 -0.0255  2.2692
28520SOL     OW92674   0.925   3.658  12.788 -0.0253 -0.0959  0.6096
28520SOL    HW192675   0.833   3.672  12.769 -0.1091 -0.4479  0.7564
28520SOL    HW292676   0.928   3.573  12.833  0.3740 -0.1172  0.5467
28521SOL     OW92677   7.619   7.788   5.714 -0.3448 -0.1281 -0.4040
28521SOL    HW192678   7.630   7.696   5.688 -0.5560 -0.7061  1.4204
28521SOL    HW292679   7.693   7.805   5.772 -0.6922  0.6523 -0.1865
28522SOL     OW92680   3.188   5.250  11.779 -0.4986 -0.2189  0.2648
28522SOL    HW192681   3.124   5.202  11.830 -0.6270 -0.6975 -0.3241
28522SOL    HW292682   3.140   5.323  11.741  0.1191  1.5813  2.7316
28523SOL     OW92683   9.332   5.360  10.701 -0.0394  0.2190 -0.0167
28523SOL    HW192684   9.425   5.381  10.709 -0.0131  0.3974 -0.7348
28523SOL    HW292685   9.323   5.323  10.613 -0.8611  1.3532 -0.4259
28524SOL     OW92686   8.319   8.018   7.181 -1.0357 -0.0471  0.0044
28524SOL    HW192687   8.347   7.929   7.163 -2.0072 -0.2905 -0.3854
28524SOL    HW292688   8.299   8.020   7.274 -0.5332 -0.0925  0.1145
28525SOL     OW92689   0.182   7.831   2.309 -0.3114 -0.0127  0.1795
28525SOL    HW192690   0.157   7.818   2.218  0.4295  1.3911 -0.2463
28525SOL    HW292691   0.116   7.890   2.345  0.1101  0.4654  0.1823
28526SOL     OW92692   9.932   0.899   9.015  0.6687  0.6913 -0.2474
28526SOL    HW192693   9.910   0.908   8.922  0.4054  0.5472 -0.2007
28526SOL    HW292694  10.007   0.957   9.028  0.6652  0.7611 -0.5357
28527SOL     OW92695  12.766  12.916   4.293  0.1953 -0.3302 -0.3333
28527SOL    HW192696  12.752  12.980   4.223  1.6128 -0.4906 -0.7951
28527SOL    HW292697  12.685  12.918   4.343 -0.2721  0.9080 -1.0766
28528SOL     OW92698   2.137   9.913   7.071  0.2195 -0.9853  0.6718
28528SOL    HW192699   2.058   9.915   7.126 -0.0393 -1.1980  0.3134
28528SOL    HW292700   2.111   9.959   6.991  0.4659 -1.0316  0.5661
28529SOL     OW92701  10.316   3.446   4.897  0.2522 -0.5916  0.2109
28529SOL    HW192702  10.397   3.394   4.899  1.2619  0.9491  1.2287
28529SOL    HW292703  10.340   3.529   4.938 -1.5498  0.3644 -0.5747
28530SOL     OW92704   8.582  11.635   2.269  0.0324 -0.2350 -0.1244
28530SOL    HW192705   8.614  11.567   2.329  0.4429 -0.4638 -0.5953
28530SOL    HW292706   8.614  11.608   2.183 -1.4345 -0.4674 -0.6229
28531SOL     OW92707   7.205   3.312   4.568 -0.0739  0.1481  0.1171
28531SOL    HW192708   7.223   3.404   4.546 -1.5382  0.4673  0.1499
28531SOL    HW292709   7.276   3.263   4.525  0.0897  1.1909 -0.8658
28532SOL     OW92710   2.749   2.971   1.892 -0.1742  0.4066  0.3599
28532SOL    HW192711   2.806   2.926   1.955 -0.6616  0.4163  0.8110
28532SOL    HW292712   2.661   2.957   1.925 -0.3710  1.2276  0.1976
28533SOL     OW92713   5.154  12.136  11.206  0.2649 -0.0173 -0.0240
28533SOL    HW192714   5.160  12.101  11.117  2.7506  2.2925 -0.9182
28533SOL    HW292715   5.242  12.124  11.242 -0.3995  0.0910  1.7452
28534SOL     OW92716   8.962   6.418   5.996 -0.0896  0.0812 -0.2909
28534SOL    HW192717   9.054   6.409   6.022 -0.0158  0.5246 -0.4034
28534SOL    HW292718   8.914   6.415   6.079  0.1348  1.2916 -0.1103
28535SOL     OW92719  11.626   7.430   9.833 -0.6824 -0.2251 -0.4099
28535SOL    HW192720  11.707   7.378   9.838 -0.6032 -0.2088 -1.2981
28535SOL    HW292721  11.571   7.382   9.771 -0.0822  1.4122 -2.3189
28536SOL     OW92722   6.046   2.549   0.347 -0.0646  0.3664  0.0559
28536SOL    HW192723   6.135   2.518   0.327 -0.0125  1.0810 -0.8495
28536SOL    HW292724   6.053   2.644   0.347 -0.7381  0.4241  0.4778
28537SOL     OW92725   6.140   5.133   5.094  0.3748 -0.1723 -0.4551
28537SOL    HW192726   6.084   5.078   5.149  0.2493 -0.0300 -0.4382
28537SOL    HW292727   6.201   5.072   5.052  0.4451 -0.2879 -0.1891
28538SOL     OW92728   3.315  12.258   5.061  0.0782 -1.3388  0.2094
28538SOL    HW192729   3.402  12.294   5.043 -0.1638 -1.7582 -2.2130
28538SOL    HW292730   3.332  12.176   5.106  1.0991 -2.1699 -1.5632
28539SOL     OW92731   7.883   2.082   3.920  0.3612 -0.1976 -0.2005
28539SOL    HW192732   7.849   2.170   3.901  2.4699  0.8413  0.5103
28539SOL    HW292733   7.896   2.043   3.833 -1.1548 -0.0605 -0.5147
28540SOL     OW92734  12.393   0.883   1.921 -0.2995 -0.1046  0.3425
28540SOL    HW192735  12.411   0.856   1.831 -2.1036  2.2467 -0.8252
28540SOL    HW292736  12.479   0.905   1.957  0.4639 -1.2268 -0.7434
28541SOL     OW92737   2.181  10.429   4.840  0.0709 -0.3214 -0.5729
28541SOL    HW192738   2.146  10.509   4.802  1.3708  1.1133  1.1413
28541SOL    HW292739   2.105  10.383   4.875 -0.5283  0.8259 -0.3503
28542SOL     OW92740   4.179   2.043   2.121 -0.2236 -1.0399  0.0692
28542SOL    HW192741   4.243   1.989   2.075 -0.8837 -0.5891 -1.4358
28542SOL    HW292742   4.156   2.112   2.058  0.0024  0.5476  1.6385
28543SOL     OW92743  11.778   8.895   3.955 -0.8331 -0.3026 -0.1519
28543SOL    HW192744  11.867   8.924   3.974 -1.0934  1.7553 -1.7161
28543SOL    HW292745  11.784   8.799   3.952  0.8679 -0.3097  1.7294
28544SOL     OW92746   4.177   2.023   6.344  1.0825  0.2553  0.6330
28544SOL    HW192747   4.219   2.075   6.412  1.0064 -1.0050  1.6873
28544SOL    HW292748   4.122   1.961   6.392 -1.1608  1.1040 -0.6510
28545SOL     OW92749   3.532  10.676   4.384 -0.1050  0.0039 -0.0858
28545SOL    HW192750   3.535  10.609   4.452  1.3386 -1.3679 -1.4110
28545SOL    HW292751   3.444  10.713   4.391  0.8320  1.9188  4.2866
28546SOL     OW92752   1.408   0.855   5.402  0.1140  0.4265  0.3685
28546SOL    HW192753   1.364   0.829   5.483 -0.4845 -1.2019 -0.4356
28546SOL    HW292754   1.451   0.776   5.371  0.0959  0.9393 -1.0474
28547SOL     OW92755   8.003  11.829   4.891  0.4065 -0.1467  0.4309
28547SOL    HW192756   8.060  11.906   4.888  0.2465 -0.0500 -0.3864
28547SOL    HW292757   8.055  11.760   4.850 -0.2012  0.0439 -0.7085
28548SOL     OW92758   4.057   9.183   1.404 -0.0721 -0.5443 -0.2925
28548SOL    HW192759   3.988   9.145   1.350 -0.1170 -1.1068  0.1413
28548SOL    HW292760   4.057   9.276   1.382 -0.4545 -0.6732 -0.8531
28549SOL     OW92761   9.564   0.740   8.211 -0.0176  0.4733  0.3933
28549SOL    HW192762   9.584   0.821   8.257  1.2717  0.0279  0.6771
28549SOL    HW292763   9.519   0.768   8.132  0.2841  1.4595  0.5523
28550SOL     OW92764   4.398   9.708   2.709 -0.0407 -0.6583 -0.1534
28550SOL    HW192765   4.325   9.692   2.769  0.2386 -0.2593  0.3031
28550SOL    HW292766   4.467   9.743   2.765  0.4910 -1.0071 -0.5900
28551SOL     OW92767   8.371  11.489   7.206  0.0572  0.2992 -0.8792
28551SOL    HW192768   8.443  11.488   7.269 -0.2853  1.4718 -0.4320
28551SOL    HW292769   8.385  11.412   7.152  0.9068 -0.2062  0.0254
28552SOL     OW92770   6.443   4.376   1.889  0.1098 -0.6026 -0.1147
28552SOL    HW192771   6.451   4.433   1.813  0.2920  0.5496  0.7382
28552SOL    HW292772   6.360   4.331   1.877  0.6848 -1.3192 -1.5658
28553SOL     OW92773   7.876   4.572   6.897  0.1761 -0.0247  0.0044
28553SOL    HW192774   7.928   4.579   6.818  0.6383  1.6842  0.4167
28553SOL    HW292775   7.786   4.588   6.868  0.3344  0.5271 -0.2032
28554SOL     OW92776   5.857   3.366  12.633 -0.5178  0.0162  0.4097
28554SOL    HW192777   5.844   3.276  12.664  2.4842 -0.5472  0.3651
28554SOL    HW292778   5.889   3.355  12.544  2.4232  0.8885  1.2612
28555SOL     OW92779   3.696   4.227   5.578  0.0598 -0.2602 -0.4740
28555SOL    HW192780   3.657   4.313   5.560 -0.4393 -0.7660 -1.9497
28555SOL    HW292781   3.640   4.190   5.647  2.4399  2.0199  3.0053
28556SOL     OW92782   8.310  11.291   1.913  0.0846 -0.2152  0.4293
28556SOL    HW192783   8.310  11.235   1.835  2.0221  0.4151 -0.0782
28556SOL    HW292784   8.218  11.297   1.938 -0.6143 -0.3798 -1.8747
28557SOL     OW92785  11.447   7.734   0.815  0.7020  0.1065  0.0612
28557SOL    HW192786  11.429   7.711   0.906  2.5435 -2.4227 -0.1188
28557SOL    HW292787  11.511   7.806   0.821 -0.3934  1.0685  0.6945
28558SOL     OW92788   4.010   1.094   2.815  0.3039  0.0333 -0.2334
28558SOL    HW192789   4.011   1.078   2.721 -0.3309  1.1649 -0.4505
28558SOL    HW292790   4.097   1.071   2.845  0.0116 -1.9868 -0.8023
28559SOL     OW92791  11.955   2.987  10.796  0.3865 -0.3686  0.0637
28559SOL    HW192792  12.041   3.029  10.788 -0.3075  1.0235 -0.3849
28559SOL    HW292793  11.933   2.960  10.707  0.7809 -1.6554  0.3323
28560SOL     OW92794   0.615   3.944  12.915  0.5255  0.6999  0.4671
28560SOL    HW192795   0.549   3.957  12.847  1.1940 -0.9531 -0.5481
28560SOL    HW292796   0.622   4.030  12.957 -2.7864  0.7569  1.1583
28561SOL     OW92797   0.210   1.168  12.508  0.5119  0.0082  0.2420
28561SOL    HW192798   0.242   1.114  12.581  0.2088 -1.2254 -0.5256
28561SOL    HW292799   0.115   1.169  12.519  0.5770  1.3078  0.8698
28562SOL     OW92800   3.696   3.878   8.030 -0.1105 -0.1926 -0.2927
28562SOL    HW192801   3.674   3.956   8.080 -1.0325 -0.7457  0.2027
28562SOL    HW292802   3.792   3.874   8.031 -0.0411  1.0688 -0.5690
28563SOL     OW92803  12.753   6.665   7.159 -0.2495  0.5487  0.5190
28563SOL    HW192804  12.814   6.605   7.203 -0.0199  1.0112  0.8509
28563SOL    HW292805  12.712   6.713   7.231  0.2979  1.4785  0.2258
28564SOL     OW92806   2.796   6.101   2.093  0.2881  0.4270 -0.0238
28564SOL    HW192807   2.743   6.054   2.158  0.2816  0.8745  0.2997
28564SOL    HW292808   2.869   6.137   2.143  0.4663  0.4916 -0.3268
28565SOL     OW92809   5.966   9.281  11.713 -0.1065  0.4744 -0.2036
28565SOL    HW192810   5.906   9.284  11.638 -1.8283 -1.2917  1.0049
28565SOL    HW292811   5.908   9.270  11.789  1.7475 -2.2852  0.9465
28566SOL     OW92812  11.867   0.605   2.920  0.6045 -0.3680  1.1174
28566SOL    HW192813  11.937   0.545   2.945  1.4020 -0.1219 -0.3659
28566SOL    HW292814  11.903   0.652   2.844 -1.2101 -0.2919  0.2629
28567SOL     OW92815  10.626  12.525   4.491  0.3245 -0.4012  0.5328
28567SOL    HW192816  10.614  12.600   4.550 -1.7582 -0.4771  0.2584
28567SOL    HW292817  10.718  12.531   4.464  0.6646  1.0451  1.8523
28568SOL     OW92818  10.522  11.603   0.949  0.4713 -0.3408 -0.7580
28568SOL    HW192819  10.572  11.634   0.873  0.1970 -0.3515 -0.9434
28568SOL    HW292820  10.472  11.528   0.917  0.5888 -0.5374 -0.4879
28569SOL     OW92821   3.401   4.933  12.771 -0.1296  0.4411 -0.4218
28569SOL    HW192822   3.424   4.963  12.859 -0.0132 -0.2337 -0.2091
28569SOL    HW292823   3.485   4.922  12.727 -0.1531  0.2079 -0.4127
28570SOL     OW92824   7.099  11.251   1.703  0.2746  0.5021 -0.0310
28570SOL    HW192825   7.172  11.191   1.689 -0.4787 -0.2156 -1.1154
28570SOL    HW292826   7.134  11.338   1.685  0.8496  0.1551 -0.6300
28571SOL     OW92827   8.991   7.816   6.693 -0.2046 -0.1782  0.4480
28571SOL    HW192828   8.913   7.856   6.654  0.6944  0.4481 -0.7506
28571SOL    HW292829   8.966   7.801   6.784 -1.3620  0.9864  0.3620
28572SOL     OW92830   4.808   4.855   8.321  0.2360 -0.0206 -0.0553
28572SOL    HW192831   4.785   4.763   8.311  1.9988 -0.2730 -2.8150
28572SOL    HW292832   4.738   4.903   8.278 -0.5586 -0.0492  1.1697
28573SOL     OW92833  10.587   9.677   5.412 -0.6924  0.1388  0.1563
28573SOL    HW192834  10.663   9.701   5.359 -0.3842  0.5214  0.7583
28573SOL    HW292835  10.575   9.751   5.472  0.2015 -1.1178  1.9873
28574SOL     OW92836   2.172   2.836  11.852  0.9178 -0.0533 -0.0907
28574SOL    HW192837   2.185   2.781  11.774  1.5480  0.1406 -0.1293
28574SOL    HW292838   2.131   2.778  11.916 -1.0226  0.1622 -1.0511
28575SOL     OW92839   1.781   5.033   0.707  0.3633  0.0427  0.1568
28575SOL    HW192840   1.768   5.127   0.691  1.2820 -0.1128 -1.7582
28575SOL    HW292841   1.692   4.999   0.719 -0.1033  0.9391 -0.5528
28576SOL     OW92842   9.221  10.489   2.671 -0.6988  0.2531  0.1937
28576SOL    HW192843   9.288  10.485   2.738 -1.4483 -1.4565  0.9108
28576SOL    HW292844   9.139  10.501   2.719 -0.9783  2.1461 -0.6544
28577SOL     OW92845   6.338   6.831   2.998 -0.2458  0.2239 -0.5310
28577SOL    HW192846   6.328   6.760   3.060 -0.9440  1.4564  0.8180
28577SOL    HW292847   6.270   6.816   2.933 -1.2703  0.3723  0.4773
28578SOL     OW92848   7.933   7.077   8.688 -0.3551  0.6815  0.1362
28578SOL    HW192849   7.844   7.093   8.656  0.1263  1.6696 -0.7790
28578SOL    HW292850   7.940   6.982   8.691 -1.5756  0.5773  0.6389
28579SOL     OW92851   8.001   5.853  12.813 -0.2321  0.1971  0.1816
28579SOL    HW192852   7.938   5.792  12.851  0.7406  0.0592  1.6492
28579SOL    HW292853   7.947   5.917  12.767 -1.5541  0.6220  2.1673
28580SOL     OW92854   1.624   6.492   5.464  0.1072 -0.0204 -0.4368
28580SOL    HW192855   1.676   6.572   5.472 -0.1227  0.1703 -0.8219
28580SOL    HW292856   1.576   6.503   5.382 -0.0714 -0.4686 -0.3926
28581SOL     OW92857   0.956   8.348   7.508 -0.3176  0.4982  0.2941
28581SOL    HW192858   0.942   8.427   7.455  0.1113  0.4545  0.1120
28581SOL    HW292859   0.982   8.281   7.445  2.6099  1.0506  0.7851
28582SOL     OW92860   0.694   9.415   2.378 -0.0760  0.2371 -0.5897
28582SOL    HW192861   0.742   9.457   2.308  1.0911  0.4144  0.2831
28582SOL    HW292862   0.622   9.475   2.397  0.2550  0.7337 -0.8823
28583SOL     OW92863   2.605   5.536  12.664 -0.8403 -0.4740 -0.0113
28583SOL    HW192864   2.639   5.609  12.613  0.0756  0.7472  2.1814
28583SOL    HW292865   2.521   5.567  12.698  0.0634  0.0857  1.8468
28584SOL     OW92866   7.402   7.648   0.544  0.6208  0.1397  0.0421
28584SOL    HW192867   7.312   7.626   0.566  0.0540 -1.8246 -3.4679
28584SOL    HW292868   7.451   7.568   0.560  1.2855  0.4865 -0.2122
28585SOL     OW92869  12.745   5.022   0.419 -0.2152 -0.1042  0.7978
28585SOL    HW192870  12.797   4.992   0.494  1.3564 -1.6129 -0.7910
28585SOL    HW292871  12.703   5.102   0.450  0.6813 -0.4587  3.1564
28586SOL     OW92872   5.597   4.375   9.935  0.1459 -0.4732  0.0134
28586SOL    HW192873   5.632   4.316   9.869 -0.7770 -1.7028  0.5839
28586SOL    HW292874   5.532   4.428   9.888  0.1692 -0.6879 -0.2600
28587SOL     OW92875   1.034   2.799   5.794 -0.0310 -0.4054  0.1607
28587SOL    HW192876   0.994   2.884   5.774 -0.5546  0.4264  3.9305
28587SOL    HW292877   0.960   2.738   5.799  0.1159 -0.6488 -0.5093
28588SOL     OW92878  12.942   1.248   1.214 -0.0925 -0.0550 -0.5196
28588SOL    HW192879  12.902   1.320   1.165  1.1754  2.4996  1.8601
28588SOL    HW292880  12.884   1.235   1.289  0.4612 -0.4709 -0.1539
28589SOL     OW92881   7.123   3.356  10.239  0.1855 -0.2667  0.5018
28589SOL    HW192882   7.204   3.310  10.261  1.0983  0.7190 -0.6468
28589SOL    HW292883   7.105   3.331  10.148 -0.6452 -0.2526  0.6554
28590SOL     OW92884   1.411   3.767  11.719  0.1991 -0.2287 -0.0090
28590SOL    HW192885   1.492   3.730  11.686 -0.4579 -0.9247 -0.9076
28590SOL    HW292886   1.428   3.861  11.726  1.0409 -0.3546 -0.2831
28591SOL     OW92887   7.371   6.024  12.814  0.7133  0.2270 -0.1909
28591SOL    HW192888   7.278   6.021  12.790  0.4829  2.1513  0.3538
28591SOL    HW292889   7.400   5.932  12.807 -0.8980 -0.2288 -1.5673
28592SOL     OW92890   5.428   3.089   1.207  0.2551  0.4631  0.3061
28592SOL    HW192891   5.422   2.997   1.233  0.2200  0.2453 -0.4544
28592SOL    HW292892   5.363   3.134   1.261  0.7824  0.1667  1.2111
28593SOL     OW92893   4.102   8.001   9.714  0.1339 -0.1310  0.1864
28593SOL    HW192894   4.142   8.017   9.629 -0.1035 -0.2137  0.0615
28593SOL    HW292895   4.152   7.928   9.751  0.8253  0.4855  0.5019
28594SOL     OW92896   4.215  11.237   6.503 -0.4900 -0.9386  0.1447
28594SOL    HW192897   4.129  11.277   6.515 -0.5858 -1.1330  0.1009
28594SOL    HW292898   4.200  11.144   6.515 -0.4903 -1.0967 -0.9817
28595SOL     OW92899   5.119   8.982   3.188 -0.2464 -0.2052 -0.3447
28595SOL    HW192900   5.025   8.987   3.173 -0.5933 -0.8928  1.3651
28595SOL    HW292901   5.131   8.904   3.242  1.1442  0.5720  0.5495
28596SOL     OW92902  12.385   8.023   9.811 -0.1891  0.0182 -0.1752
28596SOL    HW192903  12.422   8.109   9.830  0.0778 -0.1864  0.2427
28596SOL    HW292904  12.414   8.003   9.722  1.6784 -0.6387  0.5432
28597SOL     OW92905   4.716   0.225   2.633  0.6638  0.0426 -0.5297
28597SOL    HW192906   4.726   0.308   2.586  1.0573 -0.3409 -1.1399
28597SOL    HW292907   4.748   0.158   2.572  0.3787 -0.5590 -0.0387
28598SOL     OW92908  10.261   1.124   3.602  0.4706 -0.3905 -0.3264
28598SOL    HW192909  10.182   1.173   3.626  1.5969  0.7751  1.1750
28598SOL    HW292910  10.228   1.049   3.553 -1.6234 -0.2793  0.7900
28599SOL     OW92911  11.897   2.145  12.657  0.0912 -0.0237  0.6513
28599SOL    HW192912  11.929   2.206  12.590 -0.5865 -1.1783 -0.8024
28599SOL    HW292913  11.806   2.171  12.670  0.4572  0.7632  1.8464
28600SOL     OW92914   3.001  10.971   7.201 -0.5038  0.9904  0.0894
28600SOL    HW192915   2.915  10.950   7.238 -1.2795  0.2025 -2.0024
28600SOL    HW292916   2.997  10.938   7.111  2.3319  0.1428  0.1869
28601SOL     OW92917   8.196   0.777   2.743 -0.0439 -0.2882 -0.2502
28601SOL    HW192918   8.287   0.782   2.714  0.2656 -0.6520  0.6235
28601SOL    HW292919   8.154   0.717   2.681  0.3912 -0.3900 -0.4483
28602SOL     OW92920   3.716   3.839   6.502 -0.1453  0.1100 -0.5511
28602SOL    HW192921   3.670   3.877   6.427 -0.0868  0.2857 -0.4976
28602SOL    HW292922   3.755   3.914   6.547 -1.4582  0.1804  0.5243
28603SOL     OW92923   3.659   2.537   1.969  0.1583 -0.2791  0.0810
28603SOL    HW192924   3.715   2.460   1.972 -0.1395 -0.4931  0.3195
28603SOL    HW292925   3.612   2.534   2.053  1.0086  0.8141  0.6205
28604SOL     OW92926  10.117  11.141   2.648 -0.0070 -0.1365 -0.2080
28604SOL    HW192927  10.037  11.141   2.700 -0.8026 -0.0199 -1.3970
28604SOL    HW292928  10.171  11.072   2.688 -1.1404 -0.9709 -0.0626
28605SOL     OW92929   5.857   0.309   4.424  0.1045  0.0990  0.7193
28605SOL    HW192930   5.853   0.287   4.331 -0.2335 -3.3585  1.4072
28605SOL    HW292931   5.949   0.293   4.448  0.9373  3.6882  0.5675
28606SOL     OW92932  10.795   7.668  11.518 -0.4654  0.5333  0.0425
28606SOL    HW192933  10.746   7.649  11.438  1.6243 -0.1149 -1.1815
28606SOL    HW292934  10.841   7.586  11.537 -1.5212  0.4204  2.4196
28607SOL     OW92935   3.725   7.029   4.338 -0.3188  0.0461  0.0210
28607SOL    HW192936   3.637   7.058   4.363 -0.7630 -0.5735 -0.7991
28607SOL    HW292937   3.711   6.954   4.281  0.7183  0.6519 -1.0695
28608SOL     OW92938  12.881   1.349   8.636 -0.4869 -0.3463 -0.2419
28608SOL    HW192939  12.937   1.280   8.672 -1.4638 -0.4225  1.2279
28608SOL    HW292940  12.942   1.413   8.600  0.5953 -0.2884  1.5633
28609SOL     OW92941   4.876  10.942   2.724  0.1189  0.3086  0.7902
28609SOL    HW192942   4.941  10.993   2.774 -0.6026 -0.1880  2.3010
28609SOL    HW292943   4.806  11.004   2.706 -0.0033  0.2751  1.1487
28610SOL     OW92944   4.074   1.989   4.174 -0.1354 -0.5821  0.0289
28610SOL    HW192945   4.034   1.917   4.224 -1.0706  0.3937  0.7239
28610SOL    HW292946   4.000   2.035   4.136  0.3963  0.5323  0.3088
28611SOL     OW92947  12.320   1.876  12.604 -0.0709  0.1181  0.3801
28611SOL    HW192948  12.397   1.842  12.558 -0.9082  0.0099 -1.0038
28611SOL    HW292949  12.343   1.965  12.627  0.8798 -0.2738  0.9844
28612SOL     OW92950   4.439   4.029   0.341 -0.5245 -0.2844  0.4121
28612SOL    HW192951   4.461   3.946   0.300  0.0346 -0.6597  1.4635
28612SOL    HW292952   4.523   4.071   0.359 -0.7993  0.6248 -0.2989
28613SOL     OW92953   9.478   4.729   8.856 -0.3617 -0.0015  0.2565
28613SOL    HW192954   9.553   4.679   8.890 -0.5157  0.0339  0.6549
28613SOL    HW292955   9.518   4.798   8.804 -0.1253 -0.1831  0.1920
28614SOL     OW92956  10.100   2.169  10.409  0.0839  0.9784  0.3540
28614SOL    HW192957  10.032   2.193  10.471  1.1061  0.5854  1.6571
28614SOL    HW292958  10.055   2.111  10.347 -0.5724 -0.0422  1.7351
28615SOL     OW92959   5.021   3.081   9.166 -0.1419  0.1042 -0.2107
28615SOL    HW192960   4.967   3.130   9.229  1.1949 -0.5694  1.5632
28615SOL    HW292961   4.961   3.017   9.128 -0.5645 -0.9042  2.0124
28616SOL     OW92962  10.434   0.891  12.886  0.2036  0.1330 -0.2569
28616SOL    HW192963  10.502   0.938  12.838  2.0962 -0.9317  1.2412
28616SOL    HW292964  10.404   0.824  12.825  0.7840  0.3672 -0.8177
28617SOL     OW92965   6.638   6.881  12.844 -0.0993 -0.2321 -0.5384
28617SOL    HW192966   6.580   6.886  12.920 -1.0523 -0.5527 -1.2173
28617SOL    HW292967   6.578   6.876  12.769  0.8173 -0.1893 -1.2905
28618SOL     OW92968   5.849   7.406   3.210 -0.1822  0.4058  0.0849
28618SOL    HW192969   5.779   7.422   3.147 -1.0702 -0.8411  0.7107
28618SOL    HW292970   5.810   7.426   3.295  0.6580  1.0109  0.3371
28619SOL     OW92971   7.368   8.870   5.119  0.1641 -0.4354  0.1724
28619SOL    HW192972   7.342   8.795   5.173  0.5144 -0.0850  0.8475
28619SOL    HW292973   7.437   8.835   5.062 -1.7708 -1.4148 -1.7503
28620SOL     OW92974  11.205   8.152   5.727  0.5411  0.1562 -0.6428
28620SOL    HW192975  11.197   8.247   5.728  1.2645  0.2650 -2.2522
28620SOL    HW292976  11.297   8.135   5.748  0.6358 -0.1320 -1.2677
28621SOL     OW92977   7.848   5.346  12.291  0.3191 -0.2271  0.2843
28621SOL    HW192978   7.835   5.419  12.352 -0.6599  0.7961 -1.0911
28621SOL    HW292979   7.928   5.303  12.321 -0.0688  0.3040  2.2059
28622SOL     OW92980   0.166   7.255   4.938 -0.1045 -0.3086 -0.4213
28622SOL    HW192981   0.248   7.255   4.988 -0.3331  0.9573 -0.0134
28622SOL    HW292982   0.098   7.271   5.003 -0.5864 -0.4115 -0.8930
28623SOL     OW92983   6.947   9.732   7.555 -0.4439 -0.4025  0.0178
28623SOL    HW192984   7.040   9.752   7.545 -0.3679 -0.3972  0.6830
28623SOL    HW292985   6.938   9.706   7.647 -0.7535 -2.2181 -0.4731
28624SOL     OW92986   3.992   9.538   2.855  0.1465 -0.3152  0.0248
28624SOL    HW192987   3.983   9.473   2.924 -1.0738  0.1982  0.3829
28624SOL    HW292988   4.077   9.578   2.870 -0.3428  0.2040  1.6296
28625SOL     OW92989   8.249   6.756  10.450  0.1453 -0.6920 -0.1542
28625SOL    HW192990   8.218   6.673  10.487  0.3117  0.8204  3.8325
28625SOL    HW292991   8.179   6.818  10.469  1.6497  0.8660  0.5095
28626SOL     OW92992   8.542  10.531  11.696 -0.4779  0.0739  0.1346
28626SOL    HW192993   8.456  10.570  11.679 -1.2621 -1.6552 -0.1101
28626SOL    HW292994   8.582  10.525  11.609 -1.0573 -1.1349 -0.0786
28627SOL     OW92995   4.962   1.227  12.274 -1.2979  0.4760 -0.2448
28627SOL    HW192996   4.916   1.266  12.349 -0.3783  0.2475  0.4591
28627SOL    HW292997   4.929   1.275  12.198 -1.8705  1.0647  0.3589
28628SOL     OW92998   7.669   8.424   1.524 -0.3120 -0.4456  0.3442
28628SOL    HW192999   7.647   8.343   1.571  0.1623 -0.9769 -0.3326
28628SOL    HW293000   7.750   8.454   1.565 -1.9605  1.3219  2.5989
28629SOL     OW93001   5.938  12.065   6.965 -0.2770  0.1712 -0.1798
28629SOL    HW193002   5.906  11.976   6.952 -0.6785  0.2510  0.2286
28629SOL    HW293003   6.013  12.055   7.023 -0.7720  0.1609  0.4691
28630SOL     OW93004   7.142   9.184  10.777 -0.5021 -0.1424 -0.0076
28630SOL    HW193005   7.217   9.217  10.825  0.8085 -0.1126 -1.9908
28630SOL    HW293006   7.173   9.103  10.736 -1.2722  0.2941 -1.5302
28631SOL     OW93007   2.568   5.548   5.125 -0.4164 -0.2835 -0.2540
28631SOL    HW193008   2.532   5.552   5.036 -0.8643  0.4010 -0.0504
28631SOL    HW293009   2.635   5.616   5.127 -0.9646  0.2616  0.1642
28632SOL     OW93010   4.277   3.163   3.936 -0.7250  0.1925 -0.1106
28632SOL    HW193011   4.302   3.242   3.889 -1.4134  0.7609  0.4390
28632SOL    HW293012   4.359   3.131   3.974 -0.4441  0.6794 -0.2899
28633SOL     OW93013  11.421   7.971   0.649  0.1485  0.7634 -0.0379
28633SOL    HW193014  11.503   7.948   0.694 -0.0493 -0.9531 -0.4912
28633SOL    HW293015  11.445   7.973   0.556 -0.6049 -1.1894 -0.3019
28634SOL     OW93016   9.971   2.152   3.040 -0.2976 -0.5023  0.4107
28634SOL    HW193017   9.888   2.107   3.031 -0.1410 -0.5507 -0.8962
28634SOL    HW293018  10.037   2.082   3.037  0.0006 -0.2031 -2.4933
28635SOL     OW93019   0.597  12.773   5.176  0.1538  0.4549 -0.0923
28635SOL    HW193020   0.615  12.821   5.095  1.6253  1.0643  0.5461
28635SOL    HW293021   0.641  12.689   5.165  0.0411  0.3932 -0.0700
28636SOL     OW93022   1.406   2.578   9.526  0.2892 -0.2973  0.0670
28636SOL    HW193023   1.337   2.531   9.479  0.1393  2.8693 -3.3348
28636SOL    HW293024   1.359   2.630   9.592 -0.5668  1.0344 -1.5212
28637SOL     OW93025  10.285  12.792   0.383 -0.2760  0.2347  0.0259
28637SOL    HW193026  10.201  12.831   0.360  0.4230  2.3993  0.8387
28637SOL    HW293027  10.297  12.814   0.476  0.2587 -1.8875  0.5254
28638SOL     OW93028   5.682   1.959   2.875 -0.4706 -0.0408 -0.1483
28638SOL    HW193029   5.651   1.870   2.890 -0.6555  0.3350  2.1515
28638SOL    HW293030   5.774   1.958   2.900 -0.3124  0.2846 -0.7021
28639SOL     OW93031   7.926   4.283   3.015  0.4035 -0.3995  0.7703
28639SOL    HW193032   8.009   4.247   2.983  0.4636  0.6614 -0.3040
28639SOL    HW293033   7.861   4.257   2.950  0.3158  0.7703  0.3742
28640SOL     OW93034   6.493   0.011   3.758 -0.5104 -0.4133 -0.2201
28640SOL    HW193035   6.439  -0.018   3.684 -0.5030 -0.3173 -0.2633
28640SOL    HW293036   6.575   0.040   3.718  0.0647 -1.7363 -0.0510
28641SOL     OW93037   8.647   6.137   0.074  0.2274 -0.6129 -0.0524
28641SOL    HW193038   8.608   6.200   0.135  2.1277 -1.0165  1.6766
28641SOL    HW293039   8.607   6.159  -0.010 -1.5220  0.8290  1.0601
28642SOL     OW93040   4.382   1.897  10.563 -0.1387  0.3050  0.0690
28642SOL    HW193041   4.436   1.962  10.606  0.6071  0.3867 -0.9442
28642SOL    HW293042   4.341   1.944  10.490 -0.6988 -0.0213  0.1690
28643SOL     OW93043   7.314   7.534   8.767  0.7223 -0.0786 -0.3014
28643SOL    HW193044   7.401   7.571   8.783  1.1051 -1.0875  0.0663
28643SOL    HW293045   7.286   7.573   8.685  1.4194  0.4441 -0.3033
28644SOL     OW93046   0.554  12.688   4.801 -0.6366  0.3117 -0.2840
28644SOL    HW193047   0.620  12.622   4.779 -1.7654 -0.3393 -1.9663
28644SOL    HW293048   0.594  12.740   4.869  1.1882 -0.7308 -0.4857
28645SOL     OW93049   8.788   7.759   6.213 -0.0088  0.8075 -0.1711
28645SOL    HW193050   8.801   7.848   6.179  0.6398  0.0624 -2.0245
28645SOL    HW293051   8.843   7.704   6.157  1.6412 -0.5067  2.5432
28646SOL     OW93052   6.253   3.416  10.750 -0.6080  0.1931 -0.1172
28646SOL    HW193053   6.323   3.451  10.695  1.6293 -2.3722  0.9121
28646SOL    HW293054   6.279   3.438  10.840 -1.3371 -0.4222  0.2634
28647SOL     OW93055   8.101  11.476   6.069 -0.2136 -0.2894 -0.0912
28647SOL    HW193056   8.106  11.539   5.997 -2.3745 -0.5168 -0.4977
28647SOL    HW293057   8.186  11.431   6.067  0.0976  0.2812 -1.9587
28648SOL     OW93058   5.758   6.962  12.563  0.2258  0.3049 -0.0188
28648SOL    HW193059   5.812   7.040  12.553 -1.3632  1.2536 -1.8869
28648SOL    HW293060   5.811   6.891  12.527  1.4453  0.5796  1.1502
28649SOL     OW93061  11.989   1.681   1.741  0.3347  0.5323 -0.9101
28649SOL    HW193062  12.074   1.697   1.701  0.4710  2.0151 -0.0898
28649SOL    HW293063  12.007   1.677   1.835  0.0742 -3.2213 -0.8640
28650SOL     OW93064   9.375   6.613   9.290  0.8621 -0.0739  0.0619
28650SOL    HW193065   9.420   6.555   9.229  0.2504 -0.8828  0.3515
28650SOL    HW293066   9.364   6.559   9.369  1.8393  1.0167  0.9673
28651SOL     OW93067  11.681   3.385   3.395  0.3553  0.0849  0.0204
28651SOL    HW193068  11.597   3.342   3.411  1.0564 -1.0893  0.6040
28651SOL    HW293069  11.697   3.370   3.302 -0.1943  0.5514 -0.1605
28652SOL     OW93070   6.886   0.373  11.353  0.2637 -0.3950 -0.2836
28652SOL    HW193071   6.878   0.333  11.439  1.5588 -0.4418 -0.1647
28652SOL    HW293072   6.837   0.455  11.360  1.0715  0.0311  0.7928
28653SOL     OW93073   8.718   2.248  12.576  0.3938  0.1283  0.4184
28653SOL    HW193074   8.793   2.253  12.517 -1.4930  4.1676 -2.0844
28653SOL    HW293075   8.654   2.194  12.529  1.0302 -1.9581  1.8156
28654SOL     OW93076   2.591   8.487   8.226 -0.1591  0.4904 -0.2268
28654SOL    HW193077   2.551   8.513   8.309 -0.9202  1.4473 -0.8777
28654SOL    HW293078   2.574   8.560   8.166 -0.5188 -0.6088 -1.5220
28655SOL     OW93079   4.058   4.470   8.509  0.1821 -0.0663  0.1173
28655SOL    HW193080   3.998   4.531   8.465  1.1849  0.3403 -0.7454
28655SOL    HW293081   4.002   4.399   8.540 -0.8078  0.5338 -0.2399
28656SOL     OW93082   6.763   9.554   8.807  0.5978  0.3817 -0.5805
28656SOL    HW193083   6.820   9.476   8.804  0.1167 -0.0002 -4.1485
28656SOL    HW293084   6.813   9.622   8.762  0.3976  1.7869  1.1994
28657SOL     OW93085   9.563   0.643  11.411  0.5055 -0.5815  0.0151
28657SOL    HW193086   9.600   0.699  11.343  1.5445 -0.9887  0.2112
28657SOL    HW293087   9.499   0.698  11.456  0.5956  0.0350 -0.6012
28658SOL     OW93088   2.001  11.808   9.507  0.1367  0.2197 -0.1948
28658SOL    HW193089   2.014  11.764   9.423 -1.3598  0.4238 -0.5795
28658SOL    HW293090   1.915  11.778   9.536  0.3918  0.5999  0.9935
28659SOL     OW93091   1.054   5.697   2.953 -0.3691 -0.7491 -0.6051
28659SOL    HW193092   1.127   5.637   2.963 -0.2837 -0.7467 -1.2019
28659SOL    HW293093   1.095   5.784   2.945 -0.4806 -0.6342  0.0092
28660SOL     OW93094   5.263  12.738  11.538  0.1577  0.1501 -0.4325
28660SOL    HW193095   5.259  12.766  11.629 -0.0168 -0.7711 -0.1407
28660SOL    HW293096   5.242  12.644  11.541  0.3824  0.0562 -1.3921
28661SOL     OW93097   5.243   9.903   0.048  0.0773 -0.2950 -0.0117
28661SOL    HW193098   5.332   9.877   0.073 -0.4563 -0.3677  2.0209
28661SOL    HW293099   5.219   9.970   0.112 -1.7288 -1.0817  0.1858
28662SOL     OW93100   4.287  12.860  12.502  0.1271 -0.4869 -0.1033
28662SOL    HW193101   4.244  12.782  12.467  0.6015 -0.5599 -0.5317
28662SOL    HW293102   4.351  12.827  12.565 -0.9192 -0.3437  1.0807
28663SOL     OW93103   5.825   8.864   5.545  0.6730 -0.0472 -0.1488
28663SOL    HW193104   5.822   8.793   5.481 -2.3015 -0.0320 -0.1934
28663SOL    HW293105   5.822   8.820   5.630 -1.7961 -0.1032 -0.1782
28664SOL     OW93106   4.299   2.526  11.688  0.0778  0.2312  0.1064
28664SOL    HW193107   4.338   2.487  11.609  0.3582 -2.6588  1.5345
28664SOL    HW293108   4.375   2.551  11.741 -0.0947  0.4084  0.2686
28665SOL     OW93109   3.132   5.306   3.366  0.5122 -1.0957  0.1228
28665SOL    HW193110   3.218   5.341   3.347  0.4459 -1.6942 -1.3650
28665SOL    HW293111   3.082   5.382   3.398  0.9685 -0.2592 -1.0601
28666SOL     OW93112   2.738  12.778   2.370 -0.0103 -0.1077  0.0541
28666SOL    HW193113   2.767  12.827   2.293  1.4676  0.6202  1.0114
28666SOL    HW293114   2.646  12.802   2.380 -0.0776  0.2150 -1.1540
28667SOL     OW93115   4.094  11.730  10.401  0.1833  0.0388 -0.4633
28667SOL    HW193116   4.123  11.726  10.492  1.1058 -2.7519 -0.7824
28667SOL    HW293117   3.999  11.743  10.406  0.3516  0.9481  0.8262
28668SOL     OW93118   0.550   8.911  11.761 -0.2353  0.1834 -0.5077
28668SOL    HW193119   0.629   8.923  11.709 -0.3199 -0.4077 -0.7792
28668SOL    HW293120   0.551   8.818  11.784  0.3771  0.6345  1.4756
28669SOL     OW93121   9.804  10.327  11.681  0.0582 -0.4210 -0.2261
28669SOL    HW193122   9.790  10.234  11.661 -0.2153 -0.5819  0.6384
28669SOL    HW293123   9.731  10.372  11.640 -0.2762 -0.6912  0.0648
28670SOL     OW93124   4.050   0.888   2.600  0.1509 -0.2173 -0.0974
28670SOL    HW193125   4.140   0.885   2.634 -0.6154 -2.3224  2.0397
28670SOL    HW293126   4.021   0.797   2.603 -1.8344  0.3270 -1.4502
28671SOL     OW93127   4.139  12.782   4.307  0.3145  0.2549 -0.0897
28671SOL    HW193128   4.193  12.848   4.351  2.5748  0.5086 -2.9840
28671SOL    HW293129   4.201  12.717   4.276 -1.6734 -2.3425  0.9830
28672SOL     OW93130   7.331   9.944   1.407 -0.4451 -0.4408  0.2096
28672SOL    HW193131   7.365   9.997   1.336  1.1558 -0.9128  0.5949
28672SOL    HW293132   7.404   9.888   1.434 -1.2065 -0.7719  1.7500
28673SOL     OW93133   9.232   6.099   2.631 -0.0279  0.2909 -0.9663
28673SOL    HW193134   9.164   6.079   2.565 -0.5783 -0.4524 -0.1931
28673SOL    HW293135   9.280   6.017   2.642  2.3571  1.2887 -2.9586
28674SOL     OW93136   8.361  10.710   1.964  0.1301  0.4894 -0.7097
28674SOL    HW193137   8.332  10.653   2.036 -1.1359  0.5602 -1.1362
28674SOL    HW293138   8.348  10.657   1.886  3.1574 -0.2572 -0.8375
28675SOL     OW93139   6.445   8.239  10.523  0.2831  0.1127  0.4818
28675SOL    HW193140   6.363   8.289  10.519 -1.2409 -2.2506 -0.6339
28675SOL    HW293141   6.491   8.263  10.443  0.0725  0.5189  0.4795
28676SOL     OW93142   1.159   8.862  10.210 -0.1694  0.4259 -0.2855
28676SOL    HW193143   1.091   8.838  10.273  0.9021 -0.1525  0.6915
28676SOL    HW293144   1.203   8.780  10.190 -0.4405  0.6152 -1.7673
28677SOL     OW93145   8.581   8.838   1.245  0.1139  0.4752  0.5051
28677SOL    HW193146   8.553   8.774   1.180  0.3051 -0.0276  0.9136
28677SOL    HW293147   8.676   8.827   1.252  0.1398  0.7547  0.6271
28678SOL     OW93148   6.813  11.386   7.068 -0.2125 -0.1173 -0.2805
28678SOL    HW193149   6.782  11.464   7.022 -0.1684  0.9323  1.3842
28678SOL    HW293150   6.737  11.357   7.119  0.1708 -0.3363  0.1701
28679SOL     OW93151   0.798   7.686   5.868  0.1255 -0.2086 -0.0757
28679SOL    HW193152   0.859   7.626   5.824  0.3017 -0.7452  0.8831
28679SOL    HW293153   0.725   7.696   5.806 -0.9915 -3.1747  0.6125
28680SOL     OW93154   3.503   0.343   0.042  0.3845 -0.2408  0.2296
28680SOL    HW193155   3.591   0.313   0.063  0.8296  2.0756  2.0936
28680SOL    HW293156   3.446   0.273   0.072  1.5392 -1.6189 -0.6785
28681SOL     OW93157   1.950  10.566  11.941  0.5972 -0.6579  0.1659
28681SOL    HW193158   1.855  10.568  11.954  0.4572 -0.4154 -0.8056
28681SOL    HW293159   1.965  10.625  11.867  1.5233 -0.5876  0.4040
28682SOL     OW93160   4.517   4.395  11.613  0.6459  0.7615  0.4480
28682SOL    HW193161   4.530   4.482  11.575 -1.2514  0.3873 -1.2378
28682SOL    HW293162   4.546   4.334  11.545  2.0572  0.0362  1.6540
28683SOL     OW93163  10.696   6.477   1.050  0.3374 -0.0944 -0.1888
28683SOL    HW193164  10.608   6.464   1.017  1.3497 -1.1146 -2.7047
28683SOL    HW293165  10.709   6.571   1.050 -0.4144  0.0114 -0.7480
28684SOL     OW93166   5.674   9.528   5.290  0.0612 -0.2788 -0.3802
28684SOL    HW193167   5.612   9.561   5.225  1.3529 -0.4240 -1.7451
28684SOL    HW293168   5.690   9.437   5.265  0.8727 -0.2208 -0.1068
28685SOL     OW93169   8.975   3.998   9.087  0.4766  0.5545 -0.6108
28685SOL    HW193170   8.972   4.085   9.128 -2.6198  0.5679 -0.6443
28685SOL    HW293171   9.000   4.015   8.996  1.2771  1.2195 -0.2819
28686SOL     OW93172  12.529   3.399  12.549  0.1112  0.3412 -0.5062
28686SOL    HW193173  12.434   3.414  12.557 -0.0020  0.7614 -2.3010
28686SOL    HW293174  12.536   3.314  12.507  0.4430  1.2690 -2.4272
28687SOL     OW93175   9.884  12.653   2.235  0.4129 -0.0182  0.2747
28687SOL    HW193176   9.942  12.613   2.299 -0.6515 -1.8884  0.1315
28687SOL    HW293177   9.873  12.743   2.266  1.4863 -0.3207  1.6085
28688SOL     OW93178  10.047   8.944   0.546  0.4816 -0.1533 -0.3697
28688SOL    HW193179   9.955   8.950   0.572  0.4536 -1.4755 -0.0877
28688SOL    HW293180  10.048   8.968   0.453 -0.1529 -0.1588 -0.3799
28689SOL     OW93181  11.105  10.349   2.786  0.0271  0.3910  0.2421
28689SOL    HW193182  11.196  10.326   2.766  0.0830 -0.3897  1.2598
28689SOL    HW293183  11.068  10.268   2.822 -1.6431  0.1159 -1.8989
28690SOL     OW93184  10.391   1.879   0.899  0.0129 -0.0038  1.1620
28690SOL    HW193185  10.441   1.924   0.967 -0.1205  1.6178  0.2509
28690SOL    HW293186  10.328   1.944   0.869 -0.6631 -1.0428  0.2367
28691SOL     OW93187  12.321  10.049   4.733  0.5061 -0.1136  0.3870
28691SOL    HW193188  12.335  10.140   4.759  0.4284  0.5444 -1.7210
28691SOL    HW293189  12.305  10.053   4.639 -1.0199 -2.1566  0.4921
28692SOL     OW93190   4.481   1.982   2.952  0.7099  0.0054  0.2154
28692SOL    HW193191   4.569   2.009   2.978  1.3047 -1.0087 -0.6608
28692SOL    HW293192   4.446   1.937   3.029 -0.6773  3.7934  2.0929
28693SOL     OW93193   2.202   2.009   0.952 -0.3458 -0.4422  0.2800
28693SOL    HW193194   2.143   2.021   0.877 -0.1150  0.4241  0.2206
28693SOL    HW293195   2.240   2.096   0.966  0.1533 -0.7621  0.9558
28694SOL     OW93196   0.750   7.464   0.685  0.4966  0.7256 -0.5391
28694SOL    HW193197   0.698   7.404   0.738  2.5218 -0.9503 -0.3298
28694SOL    HW293198   0.710   7.459   0.598  0.9214 -1.4233 -0.6776
28695SOL     OW93199   1.651   3.793   3.712 -0.0889 -0.2758 -0.3489
28695SOL    HW193200   1.702   3.732   3.765 -0.1710  1.0343  1.3637
28695SOL    HW293201   1.622   3.743   3.636  0.9350 -1.9593  0.3403
28696SOL     OW93202   6.252   1.832   2.252  0.4112  0.2351  0.5787
28696SOL    HW193203   6.292   1.919   2.251 -0.4921  0.6792  1.3800
28696SOL    HW293204   6.313   1.778   2.301  0.5842  0.6262  0.7996
28697SOL     OW93205   3.158  11.873   2.025  0.7134  0.1912  0.7568
28697SOL    HW193206   3.131  11.833   2.108  0.8197  0.4125  0.8989
28697SOL    HW293207   3.219  11.809   1.987 -0.5808 -0.6721  0.0607
28698SOL     OW93208  10.062   2.226   7.364 -0.0623  0.1849 -0.7945
28698SOL    HW193209  10.035   2.315   7.386 -0.3377  0.0879 -0.7378
28698SOL    HW293210  10.112   2.197   7.440 -0.4694  0.0810 -0.5649
28699SOL     OW93211  10.797  12.275   5.238  0.0898 -0.1777 -0.4066
28699SOL    HW193212  10.890  12.257   5.224 -0.0633 -0.1485 -1.6506
28699SOL    HW293213  10.791  12.309   5.327  1.0393 -1.7216  0.2829
28700SOL     OW93214   8.102   2.960   8.842  0.1945  0.2075  0.3581
28700SOL    HW193215   8.080   2.897   8.774  1.9844  1.7076 -1.7461
28700SOL    HW293216   8.195   2.943   8.861  0.9929  2.6540 -0.9053
28701SOL     OW93217   8.159  12.621   4.167  0.5034 -0.0709 -0.1729
28701SOL    HW193218   8.236  12.604   4.114  2.2903  3.6213  0.8637
28701SOL    HW293219   8.189  12.610   4.258 -0.9261 -0.9384  0.2332
28702SOL     OW93220   2.132   0.095   7.595  0.2953  0.2233 -0.3400
28702SOL    HW193221   2.110   0.130   7.682  2.9678  0.0463  0.5018
28702SOL    HW293222   2.227   0.090   7.595  0.2598 -2.2786 -2.3281
28703SOL     OW93223   2.865   6.772   7.902  0.2159  0.1925 -0.2379
28703SOL    HW193224   2.780   6.732   7.882 -0.0832  0.7951 -0.1934
28703SOL    HW293225   2.912   6.774   7.819  0.1016  0.0568 -0.3056
28704SOL     OW93226   2.528   7.610  11.149 -0.2751 -0.1896  0.1754
28704SOL    HW193227   2.521   7.595  11.055  1.1807 -0.8786  0.1545
28704SOL    HW293228   2.487   7.533  11.189 -1.2061  0.2669  0.1229
28705SOL     OW93229   4.867   1.870   2.290 -0.3116  0.6376 -0.0913
28705SOL    HW193230   4.930   1.826   2.348  0.4145  0.9267 -0.6408
28705SOL    HW293231   4.824   1.799   2.242  0.3181  0.4804 -0.4347
28706SOL     OW93232  10.628   4.229   1.970  0.1421 -0.0779 -0.3149
28706SOL    HW193233  10.672   4.147   1.947  0.9854 -0.1672  1.4606
28706SOL    HW293234  10.698   4.294   1.969 -0.2283  0.3273 -0.1740
28707SOL     OW93235   4.518   0.537   8.368  0.7421 -0.1474 -0.1931
28707SOL    HW193236   4.462   0.459   8.366  0.2247  0.2150  0.2707
28707SOL    HW293237   4.570   0.529   8.288  1.2429 -1.3682  0.2274
28708SOL     OW93238   9.248   1.211   6.916  0.2737 -0.0499  0.9133
28708SOL    HW193239   9.249   1.284   6.978 -0.2409 -0.0644  0.9479
28708SOL    HW293240   9.333   1.169   6.926  1.9417  2.4669 -1.4310
28709SOL     OW93241   8.424  12.166  10.117 -0.8266  0.1558 -0.1559
28709SOL    HW193242   8.386  12.079  10.126 -1.9506  0.6697  0.2295
28709SOL    HW293243   8.500  12.164  10.175  0.1682 -1.0978 -1.4391
28710SOL     OW93244  11.808   0.911   4.241  0.6288  0.1549 -0.3815
28710SOL    HW193245  11.738   0.849   4.222  0.5200 -0.0805  0.6934
28710SOL    HW293246  11.813   0.912   4.337  0.5156  1.9275 -0.3646
28711SOL     OW93247   6.752   3.441  10.649  0.0953 -0.2262  0.1520
28711SOL    HW193248   6.748   3.349  10.677  4.0837 -0.6786 -0.2237
28711SOL    HW293249   6.732   3.439  10.556  0.7411 -0.8178  0.0194
28712SOL     OW93250   7.980   0.979   9.033  0.8948 -0.2570 -0.4844
28712SOL    HW193251   8.071   1.000   9.012  0.2961  1.2497 -1.6680
28712SOL    HW293252   7.951   1.051   9.089 -0.3758  0.7999 -2.3991
28713SOL     OW93253   7.436   7.388   2.771 -0.1847  0.0525  0.7804
28713SOL    HW193254   7.388   7.356   2.695 -2.1386 -0.1055  1.9896
28713SOL    HW293255   7.382   7.362   2.846  1.5855  0.3248  2.2228
28714SOL     OW93256   1.792  12.320   3.636  0.0487  0.3180 -0.1812
28714SOL    HW193257   1.806  12.367   3.718 -0.8406 -2.1822  1.5019
28714SOL    HW293258   1.722  12.368   3.592 -0.7752  0.6566  1.4369
28715SOL     OW93259   8.758   7.454  10.624 -0.1772  0.3115 -0.1096
28715SOL    HW193260   8.700   7.417  10.557 -0.3639  1.1506 -0.4289
28715SOL    HW293261   8.736   7.406  10.704 -0.3398 -0.3202 -0.5273
28716SOL     OW93262   1.412   2.665   7.799 -0.0869 -0.0962 -0.6581
28716SOL    HW193263   1.348   2.712   7.746  0.4357 -0.6041 -1.7742
28716SOL    HW293264   1.428   2.584   7.750  1.2948 -0.0380 -0.3241
28717SOL     OW93265   4.818  12.131   1.311  0.6477 -0.5677  0.3315
28717SOL    HW193266   4.801  12.105   1.402  0.5399 -1.3427  0.0932
28717SOL    HW293267   4.732  12.150   1.275  0.6044 -1.1380  0.1306
28718SOL     OW93268   5.015   0.595   1.629  0.3262  0.3348 -1.1399
28718SOL    HW193269   5.102   0.570   1.660  0.3084  1.2718 -0.2943
28718SOL    HW293270   4.957   0.574   1.703 -0.5624 -2.4714 -2.5008
28719SOL     OW93271  11.195  10.792   7.159  0.2811 -0.1427  0.2257
28719SOL    HW193272  11.203  10.706   7.202 -0.2242  0.0678  0.7440
28719SOL    HW293273  11.119  10.832   7.200  0.3533  0.4457 -0.2151
28720SOL     OW93274  10.525   7.505   9.374 -0.5531  0.1605 -0.5765
28720SOL    HW193275  10.566   7.467   9.296  0.2853  0.1598 -0.1515
28720SOL    HW293276  10.595   7.555   9.416 -0.1143 -2.1669  1.7115
28721SOL     OW93277   8.898  11.443  11.157  0.6431  0.6200  0.0758
28721SOL    HW193278   8.913  11.459  11.063  3.0857  0.4493  0.3804
28721SOL    HW293279   8.803  11.429  11.163  0.3382  1.1026 -2.2879
28722SOL     OW93280  12.405   7.797   9.501  0.0993  0.1189 -0.2373
28722SOL    HW193281  12.315   7.764   9.501  0.2127 -0.2327  0.4992
28722SOL    HW293282  12.445   7.753   9.576  0.5805  1.0885  0.0833
28723SOL     OW93283   2.161   6.797   8.797  0.2867  0.2874 -0.1319
28723SOL    HW193284   2.153   6.823   8.889  1.6614 -0.7663  0.3061
28723SOL    HW293285   2.074   6.815   8.760 -0.4033  0.3861  1.4452
28724SOL     OW93286   5.244   5.281   9.660 -0.0675 -0.3697 -0.3485
28724SOL    HW193287   5.298   5.202   9.648 -0.4933 -0.7779  0.3042
28724SOL    HW293288   5.158   5.247   9.686 -0.6437  0.2729 -1.3600
28725SOL     OW93289   1.855   8.307   7.771  0.0451  0.3067  0.1568
28725SOL    HW193290   1.918   8.280   7.705  1.3995  0.3944  1.3650
28725SOL    HW293291   1.862   8.402   7.774  0.1556  0.2854  0.5860
28726SOL     OW93292   1.724  11.170   8.207  0.3416  0.2567  0.3078
28726SOL    HW193293   1.806  11.200   8.168  1.5039 -1.3742  1.3529
28726SOL    HW293294   1.748  11.146   8.297 -1.2697 -0.2998  0.6173
28727SOL     OW93295   6.473   8.970   3.834 -0.3212  0.9793  0.5595
28727SOL    HW193296   6.485   8.896   3.894  0.5350  0.7913  0.1787
28727SOL    HW293297   6.379   8.986   3.832 -0.4398  0.3662  1.2077
28728SOL     OW93298   3.763   9.426   7.250  0.1518 -0.1796 -0.1867
28728SOL    HW193299   3.703   9.479   7.301 -1.6949  0.2284 -2.5990
28728SOL    HW293300   3.823   9.389   7.314 -2.1646  0.0526  2.2769
28729SOL     OW93301  10.906   4.100  12.789 -0.4130 -0.0757 -0.1535
28729SOL    HW193302  10.920   4.151  12.868  0.5718 -0.3669 -0.1270
28729SOL    HW293303  10.958   4.145  12.722 -0.7191 -0.2039 -0.4780
28730SOL     OW93304   5.892  11.355   4.770  0.1544  0.1287  0.4825
28730SOL    HW193305   5.981  11.385   4.792 -0.4782  1.1180  1.8486
28730SOL    HW293306   5.835  11.418   4.813 -1.2678  1.1082 -2.5400
28731SOL     OW93307   6.431   1.414   0.103  0.6610 -0.4238 -0.4525
28731SOL    HW193308   6.458   1.322   0.112  0.6139 -0.6833 -2.4953
28731SOL    HW293309   6.423   1.445   0.193  1.0782 -2.3028  0.2899
28732SOL     OW93310   2.538  11.410   0.192 -0.1603 -0.1283  0.1726
28732SOL    HW193311   2.625  11.444   0.173 -0.7479  1.1704 -0.2860
28732SOL    HW293312   2.546  11.370   0.279  0.9919 -0.4341 -0.0615
28733SOL     OW93313   6.897   7.465   6.165 -0.4422 -0.2047 -0.0600
28733SOL    HW193314   6.820   7.500   6.120 -0.0739  0.1028 -0.4639
28733SOL    HW293315   6.961   7.451   6.095  0.0118 -0.0653  0.3245
28734SOL     OW93316  10.341   0.131  12.787  0.0414  0.1095 -0.3099
28734SOL    HW193317  10.265   0.110  12.731 -0.0148  1.1215 -0.6488
28734SOL    HW293318  10.416   0.126  12.728  0.4438 -2.1745  0.3123
28735SOL     OW93319   8.881   0.811  11.721  0.1901  0.1226  0.1438
28735SOL    HW193320   8.889   0.823  11.626  0.6628  0.8124  0.2655
28735SOL    HW293321   8.935   0.880  11.759 -0.2918  0.0849  0.9260
28736SOL     OW93322   8.373   8.990   4.722  0.1094  1.3269 -0.3015
28736SOL    HW193323   8.424   9.047   4.779  0.3622 -1.2516  2.2304
28736SOL    HW293324   8.430   8.915   4.705 -1.8004 -0.3964  0.4520
28737SOL     OW93325   8.969   4.946   0.407 -0.9927  0.2166  0.1864
28737SOL    HW193326   9.046   4.999   0.428 -1.3127  0.5708  0.4583
28737SOL    HW293327   8.987   4.913   0.319  0.3671 -1.3196  0.9862
28738SOL     OW93328   7.740   0.265   0.219  0.5047  0.1558 -0.6591
28738SOL    HW193329   7.822   0.267   0.170  0.2670  0.2118 -1.0557
28738SOL    HW293330   7.729   0.355   0.251  1.4163 -0.1989  0.7757
28739SOL     OW93331   2.679   0.978   5.262  0.0670 -0.5028  0.1612
28739SOL    HW193332   2.630   1.003   5.340  0.8911  1.1277  0.1979
28739SOL    HW293333   2.662   1.048   5.199  0.8256 -0.8913 -0.4926
28740SOL     OW93334   6.642   1.466  11.353 -0.4955  0.4347  0.1610
28740SOL    HW193335   6.709   1.469  11.286  0.1087 -0.1896  0.7197
28740SOL    HW293336   6.664   1.538  11.413 -1.8382  1.8928 -1.0205
28741SOL     OW93337  10.091   4.404  12.378  0.3498  0.2532  0.0316
28741SOL    HW193338  10.142   4.366  12.306  0.5307 -0.8252  0.6992
28741SOL    HW293339  10.155   4.453  12.430  0.0313  1.9572 -1.0992
28742SOL     OW93340   5.117  11.662   5.825  0.0373 -0.0120  0.2646
28742SOL    HW193341   5.103  11.572   5.854 -0.9586 -0.0180 -0.2109
28742SOL    HW293342   5.065  11.716   5.885  0.8873  0.2962  0.7573
28743SOL     OW93343  10.440   1.018   4.606 -0.0574  0.0334  0.7895
28743SOL    HW193344  10.394   0.990   4.527  0.3160 -0.3797  0.7105
28743SOL    HW293345  10.521   0.967   4.605  0.9291  1.5478  0.3260
28744SOL     OW93346   5.080   2.508   9.323 -0.3885 -0.2124  0.1801
28744SOL    HW193347   5.164   2.548   9.297 -1.6700  0.7781 -2.8486
28744SOL    HW293348   5.081   2.422   9.282 -1.5084  0.4823 -1.3953
28745SOL     OW93349   2.732   3.597  10.508  0.2321  1.1140  0.0075
28745SOL    HW193350   2.665   3.552  10.559 -0.5386  2.0878 -0.1154
28745SOL    HW293351   2.683   3.644  10.441  1.1686  0.5441 -1.1032
28746SOL     OW93352   5.209   9.637  11.811  0.5445 -0.3333  0.2772
28746SOL    HW193353   5.272   9.709  11.810  0.3999 -0.1996 -0.5014
28746SOL    HW293354   5.259   9.560  11.835  0.6607  0.0621  1.3389
28747SOL     OW93355   0.285   0.118  11.275 -0.0338 -0.5781 -0.0977
28747SOL    HW193356   0.244   0.038  11.307  0.0402  0.0315  1.6030
28747SOL    HW293357   0.258   0.124  11.183 -0.6427 -2.1476 -0.0401
28748SOL     OW93358   2.918   7.467   4.960 -0.3453  0.0872 -0.6935
28748SOL    HW193359   2.949   7.386   5.000 -0.0914 -0.1650 -1.3850
28748SOL    HW293360   2.992   7.499   4.910 -0.3297  0.9449 -0.1398
28749SOL     OW93361   1.965   3.166   4.756  0.4269  0.3110  0.6164
28749SOL    HW193362   2.000   3.227   4.692 -0.8885  0.2685 -0.1873
28749SOL    HW293363   1.905   3.110   4.706 -0.2187 -0.0847  1.7731
28750SOL     OW93364   3.212  10.400  10.463 -0.5036  0.0343 -0.3984
28750SOL    HW193365   3.211  10.481  10.412 -1.6857 -0.1714 -0.7265
28750SOL    HW293366   3.196  10.427  10.553 -2.1095  0.0758 -0.6741
28751SOL     OW93367   2.094   0.366   7.419  0.0157 -0.8375 -0.2715
28751SOL    HW193368   2.162   0.390   7.481  0.5136  1.4560 -1.6037
28751SOL    HW293369   2.017   0.414   7.448 -0.0787 -0.7077 -0.7293
28752SOL     OW93370   6.855   6.906  11.894  0.2541 -0.4846  0.2600
28752SOL    HW193371   6.943   6.923  11.860  0.4417 -2.1008 -0.1546
28752SOL    HW293372   6.844   6.811  11.886 -0.7035 -0.6157  2.3151
28753SOL     OW93373   9.364   4.389  10.988 -0.0470 -0.4216  0.6149
28753SOL    HW193374   9.332   4.474  10.961  1.1451  0.6038  2.2107
28753SOL    HW293375   9.295   4.354  11.044 -0.0163  0.0618  0.9598
28754SOL     OW93376   9.496  12.340   0.542 -0.1504  0.3674  0.0537
28754SOL    HW193377   9.418  12.359   0.594 -0.7019 -1.1781 -0.1503
28754SOL    HW293378   9.563  12.318   0.606 -0.8549 -1.6296  0.1723
28755SOL     OW93379   2.529  10.877   9.229 -0.3532 -0.5832  0.0628
28755SOL    HW193380   2.529  10.796   9.280  0.4457 -1.4209 -1.2076
28755SOL    HW293381   2.544  10.848   9.139  0.6001  1.0418 -0.3276
28756SOL     OW93382   4.306   7.886  10.729  0.8179 -0.0907 -0.0708
28756SOL    HW193383   4.285   7.793  10.741 -1.7641  0.3116 -0.7302
28756SOL    HW293384   4.360   7.909  10.804 -1.0975 -1.4402  1.8574
28757SOL     OW93385  12.205  12.126   6.381 -0.1482 -0.5710  0.4449
28757SOL    HW193386  12.183  12.130   6.288 -1.8186 -0.7770  0.7948
28757SOL    HW293387  12.196  12.034   6.404 -0.1777 -0.4551  0.9081
28758SOL     OW93388   5.711   1.323   8.157 -0.1631  0.0551 -0.4093
28758SOL    HW193389   5.740   1.414   8.149  0.4357  0.0447  1.1960
28758SOL    HW293390   5.789   1.276   8.187 -0.4934 -0.9754 -1.1364
28759SOL     OW93391  12.486   8.068  11.193  0.5596 -0.6576 -0.0917
28759SOL    HW193392  12.459   8.021  11.114  0.4644 -0.3481 -0.2430
28759SOL    HW293393  12.417   8.049  11.257  1.8922 -3.0523  0.7712
28760SOL     OW93394   4.671   0.743  12.963 -0.2223  0.1940  0.2735
28760SOL    HW193395   4.759   0.708  12.953 -0.5601 -0.5096 -0.2757
28760SOL    HW293396   4.614   0.667  12.960 -0.9601  0.7565 -0.8336
28761SOL     OW93397   5.297   3.217   7.807  0.5176  0.3161 -0.0374
28761SOL    HW193398   5.314   3.133   7.851 -0.6405  0.5814  0.9653
28761SOL    HW293399   5.361   3.277   7.845 -1.3511  0.8999  2.4839
28762SOL     OW93400  11.227  11.331  10.076  0.1285 -0.0387 -0.8982
28762SOL    HW193401  11.151  11.366  10.031 -0.0865 -0.6540 -1.0262
28762SOL    HW293402  11.235  11.241  10.043 -0.9122 -1.0305  1.3070
28763SOL     OW93403   7.433   8.033  11.519  0.5687 -0.1986 -0.6890
28763SOL    HW193404   7.467   8.118  11.548  1.4880 -0.4179 -1.0841
28763SOL    HW293405   7.449   7.975  11.593  0.9944 -0.2823 -0.8436
28764SOL     OW93406   2.263  12.861   4.602  0.0054 -0.6401  0.0115
28764SOL    HW193407   2.311  12.899   4.676 -1.2087 -0.2068  0.6032
28764SOL    HW293408   2.277  12.923   4.530 -1.0871  0.4369  0.6762
28765SOL     OW93409  12.831   8.344   2.655 -0.4473 -0.0318 -0.4900
28765SOL    HW193410  12.792   8.331   2.569  0.7238  0.9847 -1.2015
28765SOL    HW293411  12.766   8.394   2.704  0.0408  1.9436 -1.7650
28766SOL     OW93412   4.292  10.878   2.300 -0.3347 -0.1016 -0.0392
28766SOL    HW193413   4.309  10.907   2.211  0.9963 -2.5863 -0.6876
28766SOL    HW293414   4.207  10.834   2.296 -1.3293  1.6745  0.4702
28767SOL     OW93415   0.885   9.935   0.194  0.4591 -0.2665 -0.1232
28767SOL    HW193416   0.912  10.003   0.132 -1.0869 -0.2997 -0.8740
28767SOL    HW293417   0.790   9.926   0.181  0.5867 -2.4508  0.0710
28768SOL     OW93418   6.742   4.465   4.898  0.4570 -0.3182 -0.0216
28768SOL    HW193419   6.659   4.512   4.901 -0.8906 -2.5693  0.3627
28768SOL    HW293420   6.764   4.448   4.990  1.7832  0.8869 -0.0741
28769SOL     OW93421   2.985   6.114  10.088 -0.1762 -0.2299 -0.1684
28769SOL    HW193422   3.024   6.126  10.175 -1.0623  0.2489  0.1700
28769SOL    HW293423   3.029   6.036  10.054  1.4695  0.5820 -0.0256
28770SOL     OW93424   6.719   4.929   5.336 -0.1144  0.1238 -0.3824
28770SOL    HW193425   6.696   4.887   5.419 -1.4300 -0.7868 -1.1758
28770SOL    HW293426   6.643   4.983   5.314 -0.3308 -0.6558 -1.6271
28771SOL     OW93427   5.127   8.636   8.707  0.5602 -0.4762  0.0039
28771SOL    HW193428   5.069   8.618   8.781  3.2959  0.0721  2.4488
28771SOL    HW293429   5.083   8.706   8.658 -0.1984  1.0290  2.6405
28772SOL     OW93430   7.635  10.212   0.916 -0.2458 -0.2098  0.2686
28772SOL    HW193431   7.557  10.267   0.917  0.0495  0.2364 -0.4175
28772SOL    HW293432   7.616  10.146   0.849  0.6279  0.9178 -1.1452
28773SOL     OW93433   0.192   2.106   4.436  0.0397 -0.4658  0.1121
28773SOL    HW193434   0.116   2.110   4.377 -0.5198 -2.3906  0.6364
28773SOL    HW293435   0.267   2.099   4.377 -0.1928  0.9973 -0.4077
28774SOL     OW93436   1.722  10.013   3.517  0.6224  0.4942 -0.1355
28774SOL    HW193437   1.657  10.076   3.488  0.9336  0.7666 -0.2479
28774SOL    HW293438   1.799  10.031   3.463  0.9782  0.5528  0.3787
28775SOL     OW93439   4.497  12.283   2.593 -0.2210 -0.5207 -0.2755
28775SOL    HW193440   4.547  12.361   2.616 -0.6576 -0.9075  2.2648
28775SOL    HW293441   4.554  12.210   2.618 -1.2602 -0.9678  0.8621
28776SOL     OW93442   0.253   7.688   6.395 -0.0456 -0.3106  0.1280
28776SOL    HW193443   0.164   7.653   6.395 -0.6174  1.0996 -0.0649
28776SOL    HW293444   0.258   7.743   6.317  0.0936  1.7796  1.5210
28777SOL     OW93445   7.186   0.378   0.394  0.1127  0.6361 -0.1391
28777SOL    HW193446   7.257   0.383   0.330  0.0738  3.0600 -0.0655
28777SOL    HW293447   7.230   0.385   0.479 -0.0339 -0.2767  0.0224
28778SOL     OW93448   3.833  12.748  10.788 -0.3209  0.3489 -0.0442
28778SOL    HW193449   3.785  12.746  10.870  1.8822  1.4416  1.3919
28778SOL    HW293450   3.843  12.841  10.768  1.3901  0.1987 -0.0820
28779SOL     OW93451   0.709  11.239  10.292 -0.0606 -0.3890  0.4931
28779SOL    HW193452   0.738  11.242  10.384 -0.6897  2.3682  0.6877
28779SOL    HW293453   0.782  11.276  10.243  0.2285 -1.7565 -0.1284
28780SOL     OW93454   5.558  12.651   3.117 -0.2578 -0.4127  0.6018
28780SOL    HW193455   5.486  12.673   3.177 -1.4856 -2.4660 -0.0221
28780SOL    HW293456   5.517  12.654   3.030  0.7738 -0.3268  0.1099
28781SOL     OW93457   4.147  11.540  12.098 -0.2595 -0.0468 -0.2270
28781SOL    HW193458   4.188  11.620  12.132  0.0799 -0.4697  0.3699
28781SOL    HW293459   4.124  11.490  12.175  0.2462 -0.8841 -0.6042
28782SOL     OW93460  12.655   7.258  10.069  0.3192  0.5221 -0.2893
28782SOL    HW193461  12.594   7.294  10.134  0.2662 -0.0757 -0.0026
28782SOL    HW293462  12.599   7.215  10.004  0.4336 -0.2398  0.1027
28783SOL     OW93463   7.810  11.777   6.855  0.8028  0.1180  0.3996
28783SOL    HW193464   7.723  11.772   6.894  1.7969 -0.4280  2.6903
28783SOL    HW293465   7.840  11.866   6.873  0.0144  0.9879 -2.1616
28784SOL     OW93466   1.943  11.977  12.800 -0.1961  0.1741  0.1680
28784SOL    HW193467   1.960  12.052  12.857 -0.3346  0.5930 -0.3360
28784SOL    HW293468   2.018  11.918  12.813  0.1050  0.5793  0.2680
28785SOL     OW93469   1.750   2.842   6.928  0.5747 -0.4583  0.1364
28785SOL    HW193470   1.730   2.782   7.000  3.9637 -0.6065  1.1048
28785SOL    HW293471   1.756   2.928   6.969  1.2720 -0.3380 -0.2113
28786SOL     OW93472   2.429   1.115   8.888  0.3235 -0.0318  0.4799
28786SOL    HW193473   2.482   1.114   8.808  0.6508  1.7051  0.6355
28786SOL    HW293474   2.390   1.027   8.893 -0.4894  0.1288 -2.0859
28787SOL     OW93475   9.540  11.313  12.599 -0.0100 -0.1077 -0.1515
28787SOL    HW193476   9.520  11.395  12.645 -0.7769  1.0795 -2.4574
28787SOL    HW293477   9.602  11.268  12.656  1.7188  2.8262  0.4698
28788SOL     OW93478   7.797   4.280   8.193  0.2288  0.3397  0.2775
28788SOL    HW193479   7.890   4.260   8.204 -0.0467 -1.0020  0.4337
28788SOL    HW293480   7.756   4.246   8.273 -0.4577  0.4121 -0.0330
28789SOL     OW93481   5.913   5.131   6.838 -0.2463  0.1511  0.0632
28789SOL    HW193482   5.981   5.198   6.840  0.5704 -0.6487  2.6763
28789SOL    HW293483   5.959   5.050   6.817 -0.1598 -0.5403  2.6331
28790SOL     OW93484   1.741   4.718  10.523 -0.1106  0.1282 -0.6053
28790SOL    HW193485   1.750   4.623  10.534  3.4302  0.4448  0.7861
28790SOL    HW293486   1.683   4.745  10.595 -0.6338 -0.9144 -0.6239
28791SOL     OW93487  12.689   7.161  10.642 -0.1054 -0.5075  0.2872
28791SOL    HW193488  12.721   7.230  10.584 -0.6146 -0.4669  0.0446
28791SOL    HW293489  12.768   7.119  10.675  0.2488  0.7829  1.1736
28792SOL     OW93490   9.763   5.892   9.297  0.1431 -0.1843  0.0880
28792SOL    HW193491   9.765   5.930   9.384 -1.6899  1.4719 -0.5315
28792SOL    HW293492   9.742   5.965   9.239  1.3174 -1.2349 -1.7728
28793SOL     OW93493   9.232   2.803   6.045  0.0897 -0.1786  0.7078
28793SOL    HW193494   9.198   2.731   6.097  0.3935 -0.3397  0.6877
28793SOL    HW293495   9.178   2.879   6.069 -0.2935 -0.4316  0.6578
28794SOL     OW93496   6.970   5.236  11.150  0.1766 -0.0771 -0.3416
28794SOL    HW193497   7.048   5.183  11.132 -0.1353 -1.0617  0.9683
28794SOL    HW293498   7.004   5.315  11.191  0.6573  0.8132 -2.3696
28795SOL     OW93499   3.090  12.546   1.852  0.1152  0.2067 -0.0179
28795SOL    HW193500   3.057  12.456   1.860  0.4927  0.1053  0.4954
28795SOL    HW293501   3.146  12.557   1.929  1.1278  0.4282 -0.7630
28796SOL     OW93502  10.903   3.162   1.165 -0.0531  0.1234  0.1949
28796SOL    HW193503  10.935   3.158   1.074 -1.4469 -0.4878 -0.2958
28796SOL    HW293504  10.958   3.100   1.212  1.3753  1.1929  0.0292
28797SOL     OW93505   0.942   8.346  12.035 -0.2987 -0.0086  0.2615
28797SOL    HW193506   0.930   8.342  11.940  0.1675 -1.0800  0.2274
28797SOL    HW293507   0.918   8.435  12.059 -0.0077  0.4057 -0.9249
28798SOL     OW93508   8.047   0.227   8.084  0.2926 -0.2217 -0.1704
28798SOL    HW193509   8.125   0.204   8.135 -0.2674 -0.6343  0.5169
28798SOL    HW293510   8.031   0.319   8.105  0.3230 -0.2646  0.0416
28799SOL     OW93511   5.140   1.240   5.023  0.1192  0.1657 -0.4794
28799SOL    HW193512   5.116   1.332   5.006  0.7951  0.3542 -0.4239
28799SOL    HW293513   5.228   1.245   5.061 -0.7566 -0.3408  1.7768
28800SOL     OW93514   5.621   3.371   4.720 -0.1870  0.4482  0.0767
28800SOL    HW193515   5.613   3.317   4.641 -1.5446 -0.0440  0.5330
28800SOL    HW293516   5.681   3.442   4.694  0.2464 -0.2983 -1.0545
28801SOL     OW93517  11.495   6.645   3.449  0.5585  0.0817 -0.0063
28801SOL    HW193518  11.463   6.730   3.479  1.1642  0.3052  0.0248
28801SOL    HW293519  11.589   6.658   3.438  0.3329  0.1135 -2.3208
28802SOL     OW93520   1.644   2.824   1.729 -0.3061  0.0438 -0.5017
28802SOL    HW193521   1.702   2.803   1.656  0.1858  1.0572 -0.4246
28802SOL    HW293522   1.686   2.785   1.805  0.4191  0.9607 -0.4095
28803SOL     OW93523   3.882   8.463   7.439 -0.3782  0.5345  0.7838
28803SOL    HW193524   3.862   8.556   7.449 -1.5148  0.4241 -0.2228
28803SOL    HW293525   3.977   8.458   7.444 -0.3918  1.4002  3.4194
28804SOL     OW93526  11.596  10.547   0.190  0.2179  0.2600 -0.4554
28804SOL    HW193527  11.563  10.635   0.210 -1.5110 -0.6483  0.9238
28804SOL    HW293528  11.522  10.502   0.149 -0.1936 -1.6385  2.1130
28805SOL     OW93529   9.905   8.507   6.796 -0.0261  0.4710 -0.2675
28805SOL    HW193530   9.861   8.467   6.721  0.3566 -0.2431 -0.1189
28805SOL    HW293531   9.932   8.433   6.850 -0.0897  0.9722  0.4608
28806SOL     OW93532   6.757   9.591  12.661  0.1851  0.1605  0.4295
28806SOL    HW193533   6.694   9.597  12.590 -1.2132 -1.8138  1.4192
28806SOL    HW293534   6.747   9.673  12.709 -1.9365 -0.2553  0.7710
28807SOL     OW93535   5.532  11.630   1.694  0.0395  0.6241 -0.4086
28807SOL    HW193536   5.469  11.587   1.753  0.5537  1.4110  0.7550
28807SOL    HW293537   5.606  11.570   1.690  1.1209  1.6810  1.8939
28808SOL     OW93538   0.295  11.418   0.366 -0.1848  0.2127  0.2131
28808SOL    HW193539   0.358  11.345   0.364  0.8814  0.9610  2.7476
28808SOL    HW293540   0.221  11.386   0.314 -0.7041 -3.6277  2.8265
28809SOL     OW93541   8.690   1.431  10.794 -0.0055 -0.2855 -0.0676
28809SOL    HW193542   8.764   1.493  10.792 -1.3792  1.4075 -0.4506
28809SOL    HW293543   8.664   1.422  10.702  0.6133 -2.0496 -0.1141
28810SOL     OW93544   1.379  12.261   1.534  0.0999 -0.4166 -0.5047
28810SOL    HW193545   1.379  12.177   1.487 -0.1909  0.1790 -1.5878
28810SOL    HW293546   1.409  12.325   1.470  0.2758  0.3246  0.3004
28811SOL     OW93547   6.817   7.711  12.906 -0.3275  0.5374  0.0082
28811SOL    HW193548   6.873   7.679  12.976 -1.7252 -0.8594  0.5487
28811SOL    HW293549   6.728   7.704  12.941 -0.9908  0.6674 -1.5713
28812SOL     OW93550   3.678   2.832   1.963 -0.2286 -0.3921  0.2614
28812SOL    HW193551   3.639   2.747   1.944 -1.8038  0.0623  1.3021
28812SOL    HW293552   3.647   2.889   1.892  1.5972 -0.8440 -0.9791
28813SOL     OW93553  12.524   9.412   5.957  0.0489 -0.1082  0.1476
28813SOL    HW193554  12.586   9.352   5.916  0.7542  0.8137 -0.1466
28813SOL    HW293555  12.513   9.483   5.895 -0.8520  0.0429  0.4571
28814SOL     OW93556   4.834   4.016  10.753 -0.0160  0.2859  0.1088
28814SOL    HW193557   4.878   4.047  10.832  2.0794  2.3310 -1.7205
28814SOL    HW293558   4.741   4.035  10.769  0.2645  0.0855  2.2753
28815SOL     OW93559  11.475   8.470   1.440  0.0915 -0.1897 -0.0677
28815SOL    HW193560  11.540   8.525   1.398  0.6260 -0.1520  0.7779
28815SOL    HW293561  11.451   8.406   1.373 -0.3167  0.8704 -0.9603
28816SOL     OW93562   9.175   9.562   0.006 -0.1537  0.4260 -0.1619
28816SOL    HW193563   9.246   9.561  -0.058 -0.0705  0.4548 -0.0695
28816SOL    HW293564   9.099   9.593  -0.044  0.0535  1.0576 -0.1053
28817SOL     OW93565  12.871   8.089   4.160 -0.1799  0.2015  0.1626
28817SOL    HW193566  12.945   8.113   4.104  0.2450 -0.1551  0.5670
28817SOL    HW293567  12.901   8.012   4.207 -0.8437  0.0072  0.2721
28818SOL     OW93568   1.595   9.216  10.746 -0.1945 -0.3133 -0.3595
28818SOL    HW193569   1.605   9.148  10.813  3.6640 -0.2508 -0.6505
28818SOL    HW293570   1.558   9.170  10.670  1.8150 -2.0840 -0.3666
28819SOL     OW93571   8.393  10.131  11.361 -0.0564 -0.3982 -0.4838
28819SOL    HW193572   8.450  10.179  11.301  1.2358  0.1592  1.0843
28819SOL    HW293573   8.383  10.190  11.436 -1.9455 -0.8976 -0.2944
28820SOL     OW93574  10.968   0.393   0.484 -0.0280 -0.7693 -0.0216
28820SOL    HW193575  10.909   0.458   0.447  0.2736  0.4268  1.4951
28820SOL    HW293576  10.913   0.342   0.544 -0.3780 -2.2931 -1.5671
28821SOL     OW93577   0.508   2.816  10.124  0.1750 -0.4186 -0.1689
28821SOL    HW193578   0.547   2.731  10.101 -0.0880 -0.5106 -0.2793
28821SOL    HW293579   0.454   2.838  10.048  1.3037  0.4963 -0.7392
28822SOL     OW93580  10.550  12.443   1.155 -0.2361 -0.4050  0.0981
28822SOL    HW193581  10.477  12.385   1.133  0.1175 -1.1499  0.8221
28822SOL    HW293582  10.511  12.530   1.162 -0.4994 -0.2486 -2.5949
28823SOL     OW93583   4.964   5.816   1.911 -0.3171  0.3803 -0.6465
28823SOL    HW193584   5.023   5.751   1.949 -1.1520  1.1390  2.1547
28823SOL    HW293585   4.972   5.803   1.817  3.1853 -0.5523 -0.3638
28824SOL     OW93586   5.744   0.364   5.957  0.2476  0.2489 -0.1227
28824SOL    HW193587   5.734   0.406   5.871  1.0935 -0.8524 -0.7785
28824SOL    HW293588   5.836   0.377   5.979  1.0163 -2.7181 -1.1711
28825SOL     OW93589   3.131   3.973  11.356 -0.2978 -0.2477  0.0474
28825SOL    HW193590   3.221   3.978  11.323  0.0064  0.1179  0.9109
28825SOL    HW293591   3.096   3.894  11.315 -0.6234  1.2535 -2.7589
28826SOL     OW93592  11.093   1.236  12.789  0.1899  0.3773 -0.0615
28826SOL    HW193593  11.079   1.201  12.701  1.1765  0.5679 -0.3134
28826SOL    HW293594  11.169   1.186  12.822  0.3209  0.8536  0.3680
28827SOL     OW93595   2.171   1.451   2.409 -0.8906  0.3714  0.0180
28827SOL    HW193596   2.201   1.361   2.411 -0.7841  0.4078  0.0958
28827SOL    HW293597   2.107   1.454   2.339 -1.7199 -0.0246  0.7364
28828SOL     OW93598   9.116   7.521   9.139  0.0460 -0.3571 -0.5501
28828SOL    HW193599   9.174   7.447   9.150 -0.1275 -0.6121 -1.3066
28828SOL    HW293600   9.174   7.596   9.124  0.1943 -0.6433 -1.5019
28829SOL     OW93601  10.837   4.506  12.366 -0.8203  0.2172  0.9632
28829SOL    HW193602  10.836   4.445  12.440  0.3759  0.9095  1.5736
28829SOL    HW293603  10.827   4.592  12.406 -1.7462  0.4918  0.1690
28830SOL     OW93604   9.137  12.702   8.993  0.2302  0.0900 -0.4218
28830SOL    HW193605   9.059  12.648   9.002  0.8074 -0.5332  1.2246
28830SOL    HW293606   9.130  12.740   8.905 -1.3118 -0.8770 -0.7570
28831SOL     OW93607  10.421   0.970   7.831 -0.6056 -0.2522 -1.0218
28831SOL    HW193608  10.357   0.985   7.901  1.4306 -2.9004  1.6329
28831SOL    HW293609  10.477   1.048   7.833 -1.0091  0.0316 -0.1905
28832SOL     OW93610   3.675  11.554   9.251 -0.1212  0.2698  0.2560
28832SOL    HW193611   3.602  11.492   9.255  0.6957 -0.8126 -0.9904
28832SOL    HW293612   3.653  11.613   9.180 -0.0808  0.3249  0.2887
28833SOL     OW93613   7.511   0.388  12.150 -0.0838 -0.3668  0.0043
28833SOL    HW193614   7.497   0.324  12.219 -0.2522 -0.6904 -0.3294
28833SOL    HW293615   7.430   0.439  12.147  0.5076  0.7012  1.1253
28834SOL     OW93616   6.367   8.409  12.607 -0.3226 -0.1362  0.1547
28834SOL    HW193617   6.456   8.443  12.608  0.0179 -0.9651 -0.9828
28834SOL    HW293618   6.312   8.487  12.622  0.5596  0.3994  0.7206
28835SOL     OW93619  10.391   3.188   5.621 -0.2997 -0.3296 -0.1301
28835SOL    HW193620  10.444   3.257   5.582  1.3334 -0.9702  0.8534
28835SOL    HW293621  10.410   3.111   5.567 -1.3203 -0.2820 -0.5951
28836SOL     OW93622   1.736  10.055  10.984 -0.5181  0.3029  0.2829
28836SOL    HW193623   1.746  10.116  10.911  0.7140 -0.1746  0.0320
28836SOL    HW293624   1.703  10.109  11.056 -1.4248  0.8469 -0.5076
28837SOL     OW93625  10.210  10.531   9.271 -0.0706  0.2057  0.1376
28837SOL    HW193626  10.235  10.585   9.346  0.6502  0.8762 -0.5692
28837SOL    HW293627  10.140  10.581   9.229 -1.0293 -0.5464  0.7836
28838SOL     OW93628   2.102   7.512   4.983  0.6272 -0.4380 -0.2061
28838SOL    HW193629   2.162   7.512   4.909  1.4067 -0.7538  0.4059
28838SOL    HW293630   2.097   7.420   5.009 -0.3750 -0.4593 -0.4405
28839SOL     OW93631  11.706   6.956   4.469  0.0317  0.2131 -1.0537
28839SOL    HW193632  11.699   6.869   4.430  1.6712 -0.5532  0.2478
28839SOL    HW293633  11.765   7.003   4.411  1.4230 -0.5003 -0.2574
28840SOL     OW93634   0.806   3.648  11.225  0.3690  0.1477 -0.1445
28840SOL    HW193635   0.881   3.635  11.283  1.4874  0.2944 -1.4918
28840SOL    HW293636   0.815   3.579  11.159  0.1836  1.0721 -1.1720
28841SOL     OW93637   5.870   3.828   0.039  0.7292 -0.1677  0.2719
28841SOL    HW193638   5.786   3.874   0.037  0.1203 -1.2366  0.4700
28841SOL    HW293639   5.935   3.898   0.040 -0.1122  0.6782 -0.9991
28842SOL     OW93640  11.126  12.221   7.148 -0.4474  0.0329  0.0460
28842SOL    HW193641  11.199  12.159   7.141 -1.0233 -0.7560  0.7959
28842SOL    HW293642  11.097  12.214   7.239 -0.0951  1.9283  0.3348
28843SOL     OW93643  12.420  10.516   7.017  0.0381  0.1999  0.3672
28843SOL    HW193644  12.383  10.536   6.931 -0.8318  2.0558  1.1239
28843SOL    HW293645  12.514  10.509   7.001 -0.2050 -0.5654 -0.8944
28844SOL     OW93646   5.915   4.083   4.688  0.3312  0.4150  0.2127
28844SOL    HW193647   5.830   4.089   4.645 -0.0872 -2.4901  0.4680
28844SOL    HW293648   5.974   4.047   4.622  0.5309 -0.7133  0.9718
28845SOL     OW93649   0.650   0.375   5.904 -0.0301  0.0166  0.3971
28845SOL    HW193650   0.726   0.410   5.950 -1.0939  2.7255  0.2995
28845SOL    HW293651   0.655   0.414   5.817 -1.4260  0.1078  0.3363
28846SOL     OW93652   5.953  12.960  10.591 -0.2242  0.6631 -0.0491
28846SOL    HW193653   6.012  12.926  10.524  0.2917  1.4412 -0.0012
28846SOL    HW293654   5.902  12.884  10.619  0.9089 -0.0733  0.0722
28847SOL     OW93655  12.367   9.169   7.265  0.3038 -0.1294 -0.1103
28847SOL    HW193656  12.395   9.254   7.300 -0.5940  0.0818  0.1132
28847SOL    HW293657  12.272   9.171   7.271  0.2719 -2.5202  3.2433
28848SOL     OW93658   0.097  10.803   8.134  0.5942  0.0241  0.2423
28848SOL    HW193659   0.181  10.781   8.175  1.4726  1.6324 -0.6229
28848SOL    HW293660   0.109  10.892   8.101 -1.4337  0.2505  0.0104
28849SOL     OW93661   7.377  10.381   6.371  0.4438  0.4161 -0.5479
28849SOL    HW193662   7.397  10.396   6.463 -0.4982  0.3253 -0.3256
28849SOL    HW293663   7.297  10.328   6.371  0.6049  0.1470 -1.4103
28850SOL     OW93664   1.659   4.289   0.810 -0.2975 -0.4123  0.1273
28850SOL    HW193665   1.574   4.307   0.851 -0.3618 -1.4583  0.4814
28850SOL    HW293666   1.696   4.376   0.794 -1.8724  0.1108 -0.9861
28851SOL     OW93667  10.428   2.612  12.562  0.0199  0.0455 -0.1337
28851SOL    HW193668  10.405   2.646  12.475  1.7505  1.9235  0.0797
28851SOL    HW293669  10.354   2.636  12.617 -0.2725  0.4880 -0.7045
28852SOL     OW93670   9.108   6.932   8.004  0.2952 -0.3181 -0.3763
28852SOL    HW193671   9.052   6.859   7.976 -0.9941 -0.5225  2.3719
28852SOL    HW293672   9.119   6.985   7.926 -0.9580 -2.0662 -1.8318
28853SOL     OW93673   8.295   8.873   5.505  0.4605 -0.1037 -0.0199
28853SOL    HW193674   8.285   8.792   5.454 -0.9947  0.3960 -0.5889
28853SOL    HW293675   8.345   8.847   5.582 -1.3064 -1.9438  0.6059
28854SOL     OW93676   5.895  11.764   6.697  0.5679  0.4588 -0.2154
28854SOL    HW193677   5.965  11.719   6.650  0.4653  0.8510 -0.7580
28854SOL    HW293678   5.875  11.840   6.643  0.6010  1.0547  0.5844
28855SOL     OW93679   2.115   7.676   4.183  0.1474  0.1062  0.2532
28855SOL    HW193680   2.032   7.723   4.179 -0.7505 -1.1678  2.1777
28855SOL    HW293681   2.118   7.640   4.272  2.2288 -0.8607 -0.1340
28856SOL     OW93682   9.975   7.158   9.872 -0.0331  0.1587 -0.2193
28856SOL    HW193683  10.062   7.136   9.838 -0.6698 -1.8790 -0.6236
28856SOL    HW293684   9.974   7.123   9.961 -1.1274 -1.7299 -0.9330
28857SOL     OW93685   7.651   2.368   9.384 -0.0296  0.2768 -0.0477
28857SOL    HW193686   7.564   2.336   9.359 -0.1305 -0.7399  1.4176
28857SOL    HW293687   7.675   2.431   9.316 -2.9299  2.4026  0.7020
28858SOL     OW93688   9.122   4.674   5.383  0.2026 -0.4102 -0.1251
28858SOL    HW193689   9.147   4.646   5.294 -0.8381  0.3311 -0.6744
28858SOL    HW293690   9.152   4.603   5.439 -0.2180 -1.5009 -1.2114
28859SOL     OW93691  10.360  11.291   5.858  0.3498 -0.0544 -0.2124
28859SOL    HW193692  10.436  11.325   5.810 -0.0875  0.4395 -0.5679
28859SOL    HW293693  10.376  11.316   5.949  0.7376 -0.1842 -0.2427
28860SOL     OW93694   7.411   9.596   3.185  0.8694  0.4306  0.4199
28860SOL    HW193695   7.466   9.519   3.169 -0.5235 -0.4264 -0.4463
28860SOL    HW293696   7.349   9.567   3.251  0.1606  0.7221 -0.1083
28861SOL     OW93697   1.031   8.037  10.620  0.1776 -0.0269 -0.9052
28861SOL    HW193698   0.961   8.093  10.587 -1.6697 -1.2893  0.6032
28861SOL    HW293699   1.039   7.968  10.555  0.3526  0.3672 -1.3061
28862SOL     OW93700   3.146  10.736   4.662 -0.1735 -0.0458 -0.2083
28862SOL    HW193701   3.170  10.672   4.729 -0.2830 -0.1712 -0.2895
28862SOL    HW293702   3.115  10.812   4.712  1.6824  0.6573 -0.0559
28863SOL     OW93703   6.712  12.853   7.882  0.2726  0.4123 -0.2279
28863SOL    HW193704   6.720  12.879   7.790  1.5822 -0.0603 -0.2674
28863SOL    HW293705   6.684  12.933   7.927 -1.2156  0.4456 -1.1328
28864SOL     OW93706   9.194   8.045   9.742 -0.2290  0.4076  0.1142
28864SOL    HW193707   9.271   8.049   9.685  1.2295 -0.4292  1.9015
28864SOL    HW293708   9.229   8.063   9.830 -2.1053  0.1405  0.9530
28865SOL     OW93709   8.983   2.512  12.685  0.8621 -0.0406  0.1372
28865SOL    HW193710   9.049   2.549  12.743  0.9058  1.4443 -0.8057
28865SOL    HW293711   8.965   2.425  12.721  1.2530  0.6361  2.0412
28866SOL     OW93712   4.567   7.891  12.536 -0.6761 -0.2005 -0.0268
28866SOL    HW193713   4.648   7.895  12.485 -0.0565 -0.7349  0.8833
28866SOL    HW293714   4.497   7.896  12.471  0.0398  2.2427 -0.7111
28867SOL     OW93715   3.937   1.452   0.271 -0.2645  0.3859 -0.7050
28867SOL    HW193716   4.015   1.416   0.229  0.3536  1.4730 -0.5459
28867SOL    HW293717   3.951   1.437   0.364 -0.7223 -0.3041 -0.7445
28868SOL     OW93718   0.878   6.946   0.610  0.2201 -0.2633 -0.6184
28868SOL    HW193719   0.930   6.890   0.551 -0.1324 -0.6536 -0.5630
28868SOL    HW293720   0.898   6.912   0.698 -0.1794 -0.4551 -0.6023
28869SOL     OW93721  10.000   8.554   0.782 -0.6267  0.2638 -0.1382
28869SOL    HW193722   9.931   8.490   0.800  0.9425 -1.2993  0.6007
28869SOL    HW293723  10.041   8.569   0.866  0.6619  0.2854 -0.7531
28870SOL     OW93724  12.916  11.155   9.856  0.3784  0.1940  0.3956
28870SOL    HW193725  12.841  11.185   9.908 -1.3474 -1.7681 -0.8069
28870SOL    HW293726  12.945  11.233   9.808 -0.7796  1.0420  1.0280
28871SOL     OW93727  12.412   4.535  10.571 -0.5406 -0.1463 -1.0930
28871SOL    HW193728  12.339   4.558  10.513 -1.0209  0.8017 -0.1483
28871SOL    HW293729  12.489   4.572  10.528 -0.9983  1.2549 -0.7730
28872SOL     OW93730  10.716   7.544  12.513  0.4214 -0.1440 -0.3339
28872SOL    HW193731  10.720   7.528  12.418  1.5392 -1.5403 -0.0703
28872SOL    HW293732  10.658   7.620  12.521  1.4746  0.9531 -2.2481
28873SOL     OW93733  11.749   4.217  12.281  0.3282  0.5119  0.4621
28873SOL    HW193734  11.766   4.275  12.207  1.2355 -0.2020  0.0907
28873SOL    HW293735  11.834   4.206  12.324  0.2142 -0.6717  0.4209
28874SOL     OW93736  11.978   4.101   9.809 -0.0715 -0.0310  0.5021
28874SOL    HW193737  12.064   4.141   9.824  0.2360 -0.4017 -0.1750
28874SOL    HW293738  11.981   4.072   9.717 -1.1395  0.4712  0.2912
28875SOL     OW93739   5.270   3.676  11.365  0.0585  0.4194  0.2258
28875SOL    HW193740   5.305   3.612  11.428 -0.8910  1.5997  2.0396
28875SOL    HW293741   5.285   3.636  11.280 -0.6624 -2.3164  1.2831
28876SOL     OW93742   3.988   1.314   4.760  0.0701  0.1494 -0.1360
28876SOL    HW193743   4.054   1.256   4.796  1.1891  0.9199 -0.8792
28876SOL    HW293744   3.978   1.383   4.826  0.4533  0.3451 -0.2776
28877SOL     OW93745   1.471  11.658   9.826 -0.0463 -0.3139 -0.2717
28877SOL    HW193746   1.515  11.681   9.908  0.2166  0.5287 -0.6382
28877SOL    HW293747   1.495  11.567   9.811  0.3445 -0.3123  0.3162
28878SOL     OW93748   2.887   1.685   8.311 -0.4755  0.3338 -0.2715
28878SOL    HW193749   2.872   1.773   8.346  1.7001  0.3298  0.9137
28878SOL    HW293750   2.970   1.658   8.352  0.4511 -1.0860 -2.8664
28879SOL     OW93751   6.117   8.991   4.606 -0.0170  0.2756  0.8051
28879SOL    HW193752   6.107   8.896   4.602 -2.2311  0.4984  0.1339
28879SOL    HW293753   6.147   9.016   4.519  1.5827  0.1426  1.2770
28880SOL     OW93754  12.743   8.109  12.086 -0.1345  0.7963 -0.2333
28880SOL    HW193755  12.695   8.110  12.003 -1.7018  0.1026  0.6321
28880SOL    HW293756  12.676   8.100  12.153  1.0763  1.6834  1.1639
28881SOL     OW93757   0.909   5.021   7.746  0.1736 -0.1820 -0.6210
28881SOL    HW193758   0.922   4.927   7.757  0.5524  0.0137  0.9131
28881SOL    HW293759   0.973   5.047   7.681  1.4486 -0.6898  0.3840
28882SOL     OW93760  11.677   2.724   3.936 -0.7735 -0.3700  0.4656
28882SOL    HW193761  11.651   2.675   3.857 -0.0121 -0.3285  0.1811
28882SOL    HW293762  11.763   2.761   3.914 -1.4243  1.2942  0.5919
28883SOL     OW93763   9.796   9.748   7.208 -0.6234  0.3989 -0.9439
28883SOL    HW193764   9.827   9.803   7.136 -0.8814 -0.2021 -1.5226
28883SOL    HW293765   9.787   9.808   7.282 -0.7341  1.0982 -1.5184
28884SOL     OW93766  11.853   2.066   9.650 -0.2574 -0.0187  0.1747
28884SOL    HW193767  11.943   2.094   9.635 -0.0263 -1.0011 -0.3624
28884SOL    HW293768  11.849   1.977   9.615 -1.6867  0.3335 -0.6564
28885SOL     OW93769   6.719   3.537   3.937 -0.0773 -0.4820 -1.0422
28885SOL    HW193770   6.739   3.480   3.863  0.1308 -3.5996  1.1895
28885SOL    HW293771   6.775   3.505   4.008 -0.2499  2.3345  0.5172
28886SOL     OW93772  11.802   8.905   3.071  0.3106  0.0407 -0.2817
28886SOL    HW193773  11.829   8.974   3.011  1.8174  0.2745  0.5948
28886SOL    HW293774  11.770   8.951   3.149  1.3707 -0.2033  0.3277
28887SOL     OW93775   7.194   8.566   7.737 -0.1536 -0.0255 -0.0452
28887SOL    HW193776   7.161   8.655   7.746  0.9494  0.4960 -0.9819
28887SOL    HW293777   7.287   8.576   7.720 -0.0063 -1.3623 -0.1627
28888SOL     OW93778   7.001  11.749   8.945  0.3332  0.2511 -0.0540
28888SOL    HW193779   7.008  11.843   8.961  2.8878  0.1733 -0.3393
28888SOL    HW293780   6.965  11.743   8.857  1.0188  1.0006 -0.4032
28889SOL     OW93781   1.788   3.001  12.094  0.0016 -0.3359 -0.0369
28889SOL    HW193782   1.701   2.986  12.057 -0.0947 -1.8476  0.6961
28889SOL    HW293783   1.782   2.966  12.183  1.4714 -0.8851 -0.1238
28890SOL     OW93784   5.794   0.886   7.507  0.4986 -0.6628 -0.0048
28890SOL    HW193785   5.810   0.978   7.486  0.1034 -0.5761  0.0576
28890SOL    HW293786   5.879   0.843   7.495  0.7770 -0.2188  0.3432
28891SOL     OW93787  10.596   2.569   1.413  0.6815 -0.4915  0.2351
28891SOL    HW193788  10.663   2.634   1.393 -0.3393  0.3103 -0.6461
28891SOL    HW293789  10.523   2.589   1.354 -0.5657 -0.9976  1.5367
28892SOL     OW93790   1.564   6.871   1.099  0.4514  0.1897 -0.5664
28892SOL    HW193791   1.543   6.912   1.182  0.0467 -2.2255  0.6199
28892SOL    HW293792   1.659   6.862   1.100  0.4556  0.2521 -0.3861
28893SOL     OW93793   7.666   3.063   7.353  0.0695 -0.0071 -0.1006
28893SOL    HW193794   7.668   3.089   7.445  1.5693  0.4718 -0.2404
28893SOL    HW293795   7.673   2.968   7.355  1.9902  0.0982  0.2771
28894SOL     OW93796  12.062   2.231   4.572 -0.6761 -0.0839 -0.8716
28894SOL    HW193797  12.016   2.313   4.554  0.5005  1.0311  0.8746
28894SOL    HW293798  12.047   2.215   4.665 -0.5202 -1.6274 -1.0958
28895SOL     OW93799   6.794   6.386   3.909  0.0184  0.3048 -0.2228
28895SOL    HW193800   6.880   6.343   3.915 -0.2985 -0.6786 -2.0897
28895SOL    HW293801   6.795   6.428   3.823 -1.6116 -0.3214 -0.5821
28896SOL     OW93802   9.960  10.077   8.771 -0.4717 -0.8722 -0.2519
28896SOL    HW193803   9.917  10.005   8.817 -1.2472  0.9601  2.1382
28896SOL    HW293804  10.052  10.069   8.795 -0.5835 -0.9898  0.1505
28897SOL     OW93805   1.851   4.041   2.784  0.4782  0.1627  0.0373
28897SOL    HW193806   1.794   3.978   2.829 -2.2583  0.5588 -2.5615
28897SOL    HW293807   1.939   4.004   2.793 -0.6675 -2.6309  0.9134
28898SOL     OW93808   7.588   8.295   6.839 -0.0735  0.7873 -0.7910
28898SOL    HW193809   7.607   8.379   6.798  0.6352  0.6521 -0.7476
28898SOL    HW293810   7.582   8.234   6.765  3.0096  0.1821 -0.6754
28899SOL     OW93811   1.127  10.664   0.415 -0.1483  0.4113  0.3806
28899SOL    HW193812   1.132  10.723   0.340  0.2742 -1.4430 -1.1435
28899SOL    HW293813   1.034  10.643   0.422 -0.5574  2.4759  2.0066
28900SOL     OW93814   9.422   9.077   8.055  0.5581 -0.1317 -0.5316
28900SOL    HW193815   9.335   9.073   8.016  0.7513  0.9485 -1.1062
28900SOL    HW293816   9.407   9.059   8.148 -0.4127  0.8667 -0.4642
28901SOL     OW93817   9.247   6.417   1.744  0.5405  0.8565 -0.6345
28901SOL    HW193818   9.197   6.337   1.763  1.6727  0.5545  1.4155
28901SOL    HW293819   9.196   6.487   1.784  1.0631  0.7192  0.3040
28902SOL     OW93820  12.363  12.615   8.060 -0.0724  0.2081  0.1821
28902SOL    HW193821  12.435  12.628   8.122  0.0602 -1.4690  0.4282
28902SOL    HW293822  12.369  12.689   8.000  1.3724  0.5094  0.6672
28903SOL     OW93823   7.772   0.257   7.531 -0.3180  0.1166  0.0167
28903SOL    HW193824   7.785   0.189   7.465 -1.0137  0.1615 -0.1661
28903SOL    HW293825   7.769   0.339   7.483 -2.0854  0.0488 -0.0665
28904SOL     OW93826   1.373   5.704   8.539 -0.4331 -0.8669 -0.0754
28904SOL    HW193827   1.431   5.750   8.479 -1.4581  0.1570 -0.3016
28904SOL    HW293828   1.293   5.756   8.541 -0.7589 -1.3657  1.4778
28905SOL     OW93829   7.494   8.539   0.819 -0.0437 -0.2756  0.7037
28905SOL    HW193830   7.456   8.496   0.896 -0.6166  1.3185  1.3543
28905SOL    HW293831   7.588   8.536   0.834 -0.0904 -1.0275  0.8789
28906SOL     OW93832   5.477   8.258   0.067  0.6647  0.1005  1.3197
28906SOL    HW193833   5.454   8.338   0.114 -0.2113  1.0076 -0.5323
28906SOL    HW293834   5.572   8.263   0.055  0.4499  1.5824  0.0304
28907SOL     OW93835   7.749   3.670  11.829  0.0752  0.4171 -0.4938
28907SOL    HW193836   7.713   3.695  11.744 -1.4004 -1.4891 -0.4906
28907SOL    HW293837   7.777   3.579  11.817 -0.9684 -0.1820  1.2622
28908SOL     OW93838  11.357   8.009   6.459 -0.0376  0.5168 -0.1253
28908SOL    HW193839  11.332   8.059   6.537  1.1571 -1.3965  1.6026
28908SOL    HW293840  11.435   8.054   6.426 -1.3258  2.1387 -1.1134
28909SOL     OW93841  10.468  10.064   3.759 -0.2259  0.2540  0.1805
28909SOL    HW193842  10.475  10.120   3.836 -1.2308 -0.3083  0.6945
28909SOL    HW293843  10.558  10.054   3.728  0.1032  1.0738  0.8505
28910SOL     OW93844   9.447   0.706   7.037  0.1433  0.7442  0.4353
28910SOL    HW193845   9.451   0.715   7.132 -0.2815  2.3758  0.3157
28910SOL    HW293846   9.514   0.764   7.003  2.1985 -1.8182 -0.2491
28911SOL     OW93847   1.669   1.801   7.635 -0.1720  0.6497 -0.4014
28911SOL    HW193848   1.575   1.784   7.646 -0.3286  0.6341 -1.6369
28911SOL    HW293849   1.690   1.864   7.704 -0.4583 -1.4169  1.7039
28912SOL     OW93850   8.952   4.677   9.921  0.2828  0.5931 -0.1355
28912SOL    HW193851   8.954   4.582   9.932 -1.8312  0.5147 -0.1096
28912SOL    HW293852   9.040   4.705   9.947  1.0160 -1.3497 -0.3096
28913SOL     OW93853  11.310  12.468   4.955  0.1311  0.1287  0.1507
28913SOL    HW193854  11.265  12.395   4.997 -1.0763 -0.0586 -1.3613
28913SOL    HW293855  11.365  12.427   4.888 -0.3432  0.5654 -0.5201
28914SOL     OW93856  12.268  12.131   7.295  0.3642 -0.7246  0.3689
28914SOL    HW193857  12.321  12.077   7.237 -2.3050  0.0443 -3.1680
28914SOL    HW293858  12.280  12.220   7.262 -0.6629 -0.1430  1.5041
28915SOL     OW93859   1.552   8.027   8.060  0.0146  0.1899 -0.0118
28915SOL    HW193860   1.459   8.038   8.041  0.3287 -0.3738 -2.1014
28915SOL    HW293861   1.596   8.088   8.001  1.0081 -0.0105  0.4967
28916SOL     OW93862   2.501  12.907   0.297  0.1505  0.4341  0.0124
28916SOL    HW193863   2.489  13.002   0.292  0.3520  0.4189 -1.0787
28916SOL    HW293864   2.429  12.872   0.245  0.9758  0.0655 -0.9108
28917SOL     OW93865   3.839   6.336   1.041 -0.3876 -0.1882 -0.4234
28917SOL    HW193866   3.892   6.257   1.038  0.2885  0.2831 -2.4156
28917SOL    HW293867   3.847   6.368   1.131  0.6348 -1.4905 -0.0345
28918SOL     OW93868   0.326  10.051   8.684 -0.2892  0.0261 -0.5075
28918SOL    HW193869   0.325  10.010   8.770  1.5634 -0.2811 -0.5936
28918SOL    HW293870   0.259  10.004   8.634  0.2830 -1.4626  0.0521
28919SOL     OW93871   5.184   9.831   4.546  0.0689  0.1489 -0.1966
28919SOL    HW193872   5.168   9.737   4.559  0.8081  0.1288  0.6620
28919SOL    HW293873   5.276   9.843   4.569  0.5380  0.7544 -2.1866
28920SOL     OW93874   3.050   0.074  11.137 -0.4890 -0.2776 -0.0551
28920SOL    HW193875   3.046   0.008  11.068 -0.6766 -1.4025  0.9864
28920SOL    HW293876   2.961   0.076  11.173  0.1128 -1.4026  1.6418
28921SOL     OW93877   7.404   5.200   4.186 -0.0942 -0.4246 -0.2340
28921SOL    HW193878   7.313   5.229   4.187  0.1786  0.5712 -1.8154
28921SOL    HW293879   7.451   5.269   4.140  1.4908 -0.8987  0.5898
28922SOL     OW93880  12.471   7.204   5.959  0.1719  0.5741 -0.3807
28922SOL    HW193881  12.378   7.220   5.974  0.3373  0.6455  0.6480
28922SOL    HW293882  12.494   7.262   5.886  0.0289  2.7163  1.1787
28923SOL     OW93883   2.443   5.306   8.044  0.1093  0.2232 -0.0794
28923SOL    HW193884   2.525   5.284   8.088 -0.2608 -2.6212 -0.5760
28923SOL    HW293885   2.466   5.310   7.951 -0.2900 -0.7945 -0.2411
28924SOL     OW93886  12.038  11.187  10.097  0.2556  0.0728  0.1583
28924SOL    HW193887  11.978  11.115  10.081 -1.0342  1.0353  0.5299
28924SOL    HW293888  11.999  11.236  10.170  0.7562  1.5131 -0.4940
28925SOL     OW93889   3.313   4.430   2.318  0.2570  0.2244  0.2455
28925SOL    HW193890   3.225   4.465   2.305 -0.0090 -0.6299 -0.3454
28925SOL    HW293891   3.340   4.400   2.232 -0.3395 -2.8066  0.9851
28926SOL     OW93892   4.986   3.368   2.180 -0.6152  0.1379 -0.0354
28926SOL    HW193893   4.911   3.421   2.208 -0.7947 -1.2914  2.4893
28926SOL    HW293894   5.057   3.397   2.237  0.3317  0.3462 -1.3052
28927SOL     OW93895   8.366   5.770  12.262  0.0407  0.1077 -0.0337
28927SOL    HW193896   8.336   5.687  12.226  0.1148 -0.0286  0.2219
28927SOL    HW293897   8.454   5.752  12.294  0.0108  0.2534  0.1331
28928SOL     OW93898   4.761   2.007   1.945 -0.9162  0.1479 -0.2320
28928SOL    HW193899   4.703   2.055   2.004 -0.1397  0.0097  0.6763
28928SOL    HW293900   4.844   2.000   1.993  0.3012  1.4727 -1.9951
28929SOL     OW93901   2.147   6.884   6.675  0.3722 -0.2048  0.2996
28929SOL    HW193902   2.117   6.834   6.751  0.2418  0.5148  0.7258
28929SOL    HW293903   2.130   6.826   6.600 -1.0864 -0.2362  0.6405
28930SOL     OW93904   3.512   6.184   7.097 -0.2625  0.2915  0.1661
28930SOL    HW193905   3.514   6.089   7.088 -0.0213  0.0574  2.2390
28930SOL    HW293906   3.473   6.200   7.183 -0.7743  2.0987 -0.3424
28931SOL     OW93907  11.253   9.149   9.783  0.1515  0.1693  0.1878
28931SOL    HW193908  11.174   9.097   9.766 -0.2359  1.2711 -1.7604
28931SOL    HW293909  11.316   9.117   9.718  1.2006 -0.4174  1.4608
28932SOL     OW93910  11.951   0.492   1.550  0.5094  0.4423  0.5919
28932SOL    HW193911  11.883   0.425   1.560  1.1235 -0.0965  1.3135
28932SOL    HW293912  12.023   0.461   1.605  1.3346  1.0172 -0.1340
28933SOL     OW93913  12.322   9.025   9.005 -0.4840 -1.2627 -0.5646
28933SOL    HW193914  12.314   8.936   8.970 -3.1299 -0.5519 -2.0191
28933SOL    HW293915  12.256   9.030   9.074  0.1720 -0.6379  0.0350
28934SOL     OW93916   7.049   5.248   7.950 -0.2035  0.7605 -0.1920
28934SOL    HW193917   7.034   5.219   7.860 -0.5152  2.4464 -0.7316
28934SOL    HW293918   6.996   5.327   7.958  0.4496  1.0821  1.2230
28935SOL     OW93919   6.113  12.215   5.199  0.1024  0.3162  0.0554
28935SOL    HW193920   6.199  12.225   5.157 -0.0128  1.2917  0.0205
28935SOL    HW293921   6.129  12.155   5.272  0.4115 -0.9945 -1.0386
28936SOL     OW93922  10.026  12.206   7.762 -0.1969 -0.5892  0.1579
28936SOL    HW193923  10.105  12.209   7.815 -1.4260 -0.5841  2.0794
28936SOL    HW293924  10.054  12.238   7.676  1.6554  0.3632  1.0526
28937SOL     OW93925   9.513   4.086   9.352 -0.1320  0.3195 -0.1075
28937SOL    HW193926   9.435   4.121   9.395 -1.5447 -1.9426 -0.6803
28937SOL    HW293927   9.577   4.073   9.422  0.3651  3.5295  0.1862
28938SOL     OW93928   1.854   0.393  11.540 -0.3622 -0.0579 -0.1180
28938SOL    HW193929   1.839   0.483  11.512  0.9468  0.4354  0.6609
28938SOL    HW293930   1.777   0.370  11.592 -0.4193  0.8433  0.2074
28939SOL     OW93931  11.365   7.158  12.333  0.0386 -0.2366  0.5230
28939SOL    HW193932  11.448   7.119  12.360 -0.3013 -0.7109  0.9078
28939SOL    HW293933  11.380   7.252  12.338  1.7158 -0.1563 -2.9163
28940SOL     OW93934   2.937  10.494   4.005 -0.3739 -0.3450 -0.1199
28940SOL    HW193935   2.888  10.493   3.923 -1.7504  0.9500  0.6397
28940SOL    HW293936   2.908  10.415   4.051 -1.6594  0.3230  0.2495
28941SOL     OW93937   8.350   9.974   2.855  0.2442  0.2159 -0.3474
28941SOL    HW193938   8.425  10.006   2.904  1.3836 -2.0857 -0.4276
28941SOL    HW293939   8.284   9.957   2.921  0.6552  0.0425  0.0243
28942SOL     OW93940   1.760   2.648   4.489 -0.1715 -0.1331 -0.2028
28942SOL    HW193941   1.719   2.574   4.444  1.4005 -1.7966  0.9841
28942SOL    HW293942   1.705   2.664   4.565 -0.5168 -0.0439 -0.4660
28943SOL     OW93943   4.491   1.361   4.527 -0.5862 -0.0607  0.4336
28943SOL    HW193944   4.475   1.319   4.443  0.3277 -0.0053  0.2260
28943SOL    HW293945   4.423   1.429   4.533  0.2569  0.9572 -0.9629
28944SOL     OW93946  12.117   8.805  12.270 -0.0532  0.4324  0.1165
28944SOL    HW193947  12.150   8.722  12.304 -1.0054 -0.1691 -0.3860
28944SOL    HW293948  12.035   8.783  12.226  0.6550  1.3122 -1.7824
28945SOL     OW93949   1.091   6.628   3.990  0.0862 -0.2234  0.1770
28945SOL    HW193950   1.158   6.681   4.035 -1.0570  0.4101  1.1742
28945SOL    HW293951   1.127   6.540   3.989  1.1460  0.1912  0.2657
28946SOL     OW93952   7.104   6.284   5.125 -0.2232  0.6313 -0.0402
28946SOL    HW193953   7.024   6.252   5.082  0.2007  0.3270 -0.6174
28946SOL    HW293954   7.104   6.378   5.108 -0.2463  0.5679 -0.4013
28947SOL     OW93955   3.630   6.923   7.107  0.1296  0.0275 -0.4530
28947SOL    HW193956   3.587   6.894   7.187 -0.6852 -1.2634 -1.3195
28947SOL    HW293957   3.560   6.929   7.042  1.0356 -0.7483 -1.5444
28948SOL     OW93958   0.138   9.359   6.748 -0.0732  0.0220 -0.4359
28948SOL    HW193959   0.082   9.282   6.752 -0.6241  0.4679  1.0455
28948SOL    HW293960   0.098   9.413   6.679  0.9110 -1.4082 -2.2098
28949SOL     OW93961  12.402   8.773   3.140 -0.1935 -0.0885  0.2450
28949SOL    HW193962  12.436   8.706   3.199  0.8779 -0.6614 -0.9764
28949SOL    HW293963  12.311   8.786   3.168 -0.8550 -3.0068 -0.2886
28950SOL     OW93964   9.221   5.550   2.353 -0.3801  0.0225 -0.5212
28950SOL    HW193965   9.267   5.475   2.314 -0.4415 -0.7595  0.8402
28950SOL    HW293966   9.229   5.536   2.448  0.4371  2.2594 -0.2025
28951SOL     OW93967   7.431   7.800   7.523 -0.1414 -0.0362 -0.0596
28951SOL    HW193968   7.342   7.766   7.536  0.2248 -1.1791 -0.4922
28951SOL    HW293969   7.448   7.787   7.430  0.0921  1.1644 -0.2019
28952SOL     OW93970   6.589  10.110   8.805 -0.6037  0.3857 -0.1972
28952SOL    HW193971   6.535  10.170   8.856 -1.5939 -1.0190  0.4807
28952SOL    HW293972   6.641  10.063   8.871 -1.0628 -0.6584 -0.5633
28953SOL     OW93973  12.605   6.516   6.040 -0.4390 -0.2818 -0.3617
28953SOL    HW193974  12.537   6.508   6.107  2.3247 -0.9261  2.6482
28953SOL    HW293975  12.643   6.428   6.034  1.2572  0.4221 -0.5699
28954SOL     OW93976   7.895  11.720   2.241 -0.0590  0.2308  0.0216
28954SOL    HW193977   7.834  11.740   2.170 -0.3006  0.8487  0.4043
28954SOL    HW293978   7.888  11.794   2.301 -0.6806 -0.7992  1.2624
28955SOL     OW93979   4.942   5.565  12.291 -0.1692  0.1412 -0.0652
28955SOL    HW193980   4.987   5.498  12.240  1.8071  0.0883  1.6027
28955SOL    HW293981   4.980   5.558  12.379 -0.6508  2.7306  0.4422
28956SOL     OW93982   8.943   2.607   4.532 -0.2561 -0.9247  0.1798
28956SOL    HW193983   8.849   2.596   4.516 -0.7670  0.4041  1.9981
28956SOL    HW293984   8.983   2.593   4.446 -2.0240 -2.2823 -0.4875
28957SOL     OW93985   9.262   4.248   8.130 -0.1803 -0.3301 -0.3751
28957SOL    HW193986   9.240   4.333   8.167 -1.4603 -1.1081  0.7517
28957SOL    HW293987   9.192   4.231   8.066 -0.3222 -0.8320 -0.0912
28958SOL     OW93988  11.355  12.047   8.072 -0.1070  0.4577 -0.3053
28958SOL    HW193989  11.401  12.073   7.993 -0.9530  0.3286 -0.8570
28958SOL    HW293990  11.369  12.120   8.133 -0.6846  1.2601 -1.0956
28959SOL     OW93991  11.801  12.491   1.591  0.9780  0.1593 -0.5760
28959SOL    HW193992  11.891  12.481   1.561  1.7586 -1.2362  1.9349
28959SOL    HW293993  11.766  12.402   1.593  0.1464  0.4862  0.1493
28960SOL     OW93994   7.864   3.340   9.853  0.2465  0.5681 -0.0844
28960SOL    HW193995   7.781   3.354   9.899  0.5345  1.6089  0.1539
28960SOL    HW293996   7.845   3.269   9.791 -0.6504  0.3826  0.3799
28961SOL     OW93997   5.274   0.057  11.534  0.1973 -0.0596 -0.1024
28961SOL    HW193998   5.197   0.001  11.538  0.0532  0.1309 -0.1523
28961SOL    HW293999   5.348  -0.001  11.551  0.0075 -0.1626  0.3738
28962SOL     OW94000   2.572   7.500   6.093 -0.2943 -0.1317 -0.0873
28962SOL    HW194001   2.478   7.490   6.076 -0.0494 -0.0984 -1.6839
28962SOL    HW294002   2.602   7.411   6.113 -0.8394  0.0320  1.5877
28963SOL     OW94003   2.627   4.034  11.630 -0.5023 -0.4898 -0.3147
28963SOL    HW194004   2.677   3.992  11.559  0.5323 -0.9771  0.6638
28963SOL    HW294005   2.690   4.042  11.702 -1.1417  1.2263  0.1139
28964SOL     OW94006   5.390   4.599  11.840  0.2611 -0.6066  0.0994
28964SOL    HW194007   5.419   4.635  11.756 -0.1961 -1.2696 -0.3514
28964SOL    HW294008   5.311   4.648  11.861  1.4135  0.9182  1.1277
28965SOL     OW94009   5.771   9.624   4.548 -0.6341  0.2598 -0.4641
28965SOL    HW194010   5.770   9.694   4.482 -0.5114  0.9857  0.2886
28965SOL    HW294011   5.864   9.602   4.557 -0.7468 -0.6049 -1.3160
28966SOL     OW94012   7.121   6.511  12.052  0.2306  0.7178 -0.2096
28966SOL    HW194013   7.125   6.599  12.015 -1.2169  0.6396 -0.6043
28966SOL    HW294014   7.117   6.453  11.976  2.4609  0.1735  0.0044
28967SOL     OW94015  10.794   1.584   6.714 -0.0603 -0.5041  0.5559
28967SOL    HW194016  10.868   1.563   6.658  0.7773 -1.8990  2.1016
28967SOL    HW294017  10.733   1.511   6.702 -2.2065  1.4879 -2.1396
28968SOL     OW94018   2.979   6.646   6.133 -0.1840 -0.5310  0.1493
28968SOL    HW194019   2.994   6.572   6.192 -2.7709  1.4594  3.6889
28968SOL    HW294020   2.900   6.621   6.083  0.1539 -0.9354 -0.1960
28969SOL     OW94021   7.927   9.741   8.206  0.1360  0.7221  0.4213
28969SOL    HW194022   7.991   9.736   8.135  0.6057  1.5058  0.7901
28969SOL    HW294023   7.966   9.800   8.270 -0.9251  1.1562  0.6805
28970SOL     OW94024  11.817  11.151   1.456 -0.1603  0.3089  0.4195
28970SOL    HW194025  11.728  11.179   1.436  0.1204 -0.5830 -2.4855
28970SOL    HW294026  11.808  11.096   1.534 -1.6238  2.7363  2.1011
28971SOL     OW94027   2.382   8.227   3.873 -0.0988 -0.2558  0.5041
28971SOL    HW194028   2.339   8.311   3.890  0.1490 -0.4885  2.5559
28971SOL    HW294029   2.466   8.251   3.835 -0.4575  0.3741  0.0815
28972SOL     OW94030   2.509   3.771   1.095  0.4683 -0.2952 -0.0324
28972SOL    HW194031   2.501   3.794   1.187 -1.4244  0.5825 -0.3602
28972SOL    HW294032   2.573   3.833   1.059 -0.1149  0.5320  0.3352
28973SOL     OW94033   5.878   9.059   8.424 -0.0479 -0.0574  0.0827
28973SOL    HW194034   5.873   9.064   8.519  1.3680 -2.2659  0.3355
28973SOL    HW294035   5.803   9.111   8.393 -2.4187 -1.8110  2.4434
28974SOL     OW94036   5.232   3.628   8.629  0.6422  0.4766 -1.4685
28974SOL    HW194037   5.146   3.589   8.615  1.2415 -0.2559 -3.4590
28974SOL    HW294038   5.216   3.722   8.631 -0.1102  0.3916 -2.7249
28975SOL     OW94039   7.244   7.320   2.592  0.3091 -0.1107  0.6543
28975SOL    HW194040   7.217   7.375   2.519  1.6414 -0.3171 -0.0251
28975SOL    HW294041   7.162   7.287   2.629 -0.4714 -3.0613 -3.0998
28976SOL     OW94042   8.389  12.482   5.369 -0.2994  0.0541 -0.1262
28976SOL    HW194043   8.437  12.403   5.347  1.3123  1.4900 -2.0707
28976SOL    HW294044   8.335  12.501   5.292 -0.9112  0.6873  0.4309
28977SOL     OW94045  10.708   5.295   2.391  0.0181 -0.1127 -0.3634
28977SOL    HW194046  10.724   5.207   2.356 -0.9910 -0.1562 -0.7470
28977SOL    HW294047  10.716   5.284   2.486  0.6365 -0.4591 -0.4549
28978SOL     OW94048   2.340   2.889   4.638  0.3349  0.3041 -0.2562
28978SOL    HW194049   2.381   2.805   4.618  0.4785  0.6201 -1.3647
28978SOL    HW294050   2.324   2.886   4.732  2.5075 -0.0258  0.1729
28979SOL     OW94051   8.233   8.305   9.922 -0.8321 -0.2532 -0.0890
28979SOL    HW194052   8.169   8.263   9.979 -0.5115  0.5376  0.8876
28979SOL    HW294053   8.222   8.399   9.938  0.3361 -0.0892 -0.1630
28980SOL     OW94054   4.006   5.465   8.051  0.7762 -0.1148  0.1521
28980SOL    HW194055   4.084   5.458   8.106  2.1020 -3.7577 -1.8060
28980SOL    HW294056   3.945   5.402   8.087  0.2146  0.0633 -0.4624
28981SOL     OW94057  10.193   8.336   3.562  0.7549 -0.5288  0.3149
28981SOL    HW194058  10.202   8.260   3.505  1.0204  0.5274 -1.0726
28981SOL    HW294059  10.126   8.390   3.520  0.6936  0.0985  1.1921
28982SOL     OW94060   1.097   3.664   8.652 -0.6815 -0.0564  0.4275
28982SOL    HW194061   1.046   3.729   8.602 -0.2420  1.0410  1.3478
28982SOL    HW294062   1.105   3.589   8.593 -1.2935  0.6848 -0.6411
28983SOL     OW94063   9.171   9.770   5.224 -0.8827 -0.5299 -0.1197
28983SOL    HW194064   9.200   9.815   5.303  2.8162  0.7703 -1.9915
28983SOL    HW294065   9.131   9.689   5.257 -1.6462  0.9878  3.0992
28984SOL     OW94066  12.201   7.201  11.535  1.0724  0.0582 -0.4929
28984SOL    HW194067  12.205   7.109  11.561 -1.8860 -0.5136 -1.6875
28984SOL    HW294068  12.291   7.233  11.546  1.9267 -2.5861  1.1833
28985SOL     OW94069   2.289   2.557  12.450  0.0971  0.5041  0.1769
28985SOL    HW194070   2.358   2.495  12.428 -0.6045 -0.1143 -0.3448
28985SOL    HW294071   2.214   2.502  12.475 -0.6405  1.1177 -0.6099
28986SOL     OW94072   8.333  12.576   3.335 -0.0116 -0.1546  0.3332
28986SOL    HW194073   8.243  12.552   3.314 -0.1308  0.1713  0.4721
28986SOL    HW294074   8.386  12.528   3.271 -0.2259 -1.0252  0.7886
28987SOL     OW94075   8.321  11.135   0.660  0.3410  0.0805  0.1061
28987SOL    HW194076   8.351  11.175   0.579 -2.5822 -0.4584 -1.3653
28987SOL    HW294077   8.355  11.045   0.657  0.2382  0.0605 -0.5344
28988SOL     OW94078   4.205  11.547  10.253  0.1358 -0.3273  0.1048
28988SOL    HW194079   4.161  11.613  10.307  0.1568  0.2501 -0.5608
28988SOL    HW294080   4.298  11.563  10.268  0.1607  0.3710 -0.7022
28989SOL     OW94081  11.829   2.327   3.869  0.5118  1.0200 -0.2483
28989SOL    HW194082  11.848   2.366   3.784  0.7336 -1.3106 -1.3734
28989SOL    HW294083  11.915   2.296   3.900  0.1196 -0.2520 -0.3575
28990SOL     OW94084   0.111   8.970   5.686  0.2273  0.6861  0.8306
28990SOL    HW194085   0.050   9.043   5.697 -3.0259 -1.3432 -1.6892
28990SOL    HW294086   0.075   8.900   5.739  1.2126 -0.1655  0.4187
28991SOL     OW94087   7.790  12.904   1.075  0.4865  0.6169  0.1489
28991SOL    HW194088   7.750  12.883   1.159  0.0791  1.0731  0.0699
28991SOL    HW294089   7.824  12.820   1.044  1.8488  0.6668  1.3796
28992SOL     OW94090  10.089   4.208   6.668  0.3840 -0.3538 -0.2070
28992SOL    HW194091  10.025   4.271   6.633 -0.1227 -0.8566 -0.2017
28992SOL    HW294092  10.036   4.144   6.716  1.0469  0.1971  1.3278
28993SOL     OW94093   8.508  10.381   0.391  0.5029  0.9315  0.0362
28993SOL    HW194094   8.561  10.397   0.314  1.7494 -0.0409  0.6533
28993SOL    HW294095   8.556  10.423   0.463  0.6157 -0.2024  0.6523
28994SOL     OW94096   7.141  11.678  12.586 -0.3927  0.5799  0.0382
28994SOL    HW194097   7.227  11.650  12.554  0.1583  0.9280  1.1433
28994SOL    HW294098   7.115  11.749  12.528 -0.4727 -0.2720 -1.0091
28995SOL     OW94099   9.694  10.425   5.235 -0.4363  0.1093 -0.4276
28995SOL    HW194100   9.723  10.358   5.297  0.2815  1.0813  0.3378
28995SOL    HW294101   9.763  10.429   5.169  0.2705  1.0905  0.3398
28996SOL     OW94102   7.481   1.861   1.415 -0.0485 -0.3584 -0.2302
28996SOL    HW194103   7.433   1.791   1.369 -0.0774 -1.0672  0.8554
28996SOL    HW294104   7.482   1.934   1.352 -1.1214 -0.8926 -0.9086
28997SOL     OW94105   4.040   0.340  10.599  0.1155 -0.1145  0.0758
28997SOL    HW194106   4.108   0.367  10.538 -0.4250 -1.5216 -1.2240
28997SOL    HW294107   3.997   0.421  10.625 -0.6786  0.4483 -2.7206
28998SOL     OW94108   7.506   0.798  10.367  0.2890 -0.4085  0.0125
28998SOL    HW194109   7.538   0.839  10.287 -1.2955  0.1650 -0.3655
28998SOL    HW294110   7.585   0.772  10.414  1.2829 -1.7514 -2.2265
28999SOL     OW94111  10.705   3.948  11.460  0.2762 -0.0939  0.1223
28999SOL    HW194112  10.701   4.022  11.521  1.6811 -0.6893  0.9586
28999SOL    HW294113  10.628   3.961  11.403 -0.9159  0.6249  1.8108
29000SOL     OW94114   9.505   6.670  12.966 -0.1239 -0.1145 -0.0066
29000SOL    HW194115   9.473   6.715  12.888 -0.6485  0.6250  0.6162
29000SOL    HW294116   9.472   6.722  13.039 -0.6362 -1.4433  0.7444
29001SOL     OW94117   2.626   6.670  11.634 -0.1977 -0.1650  0.5124
29001SOL    HW194118   2.646   6.577  11.619 -1.5243 -0.0897 -2.5240
29001SOL    HW294119   2.532   6.671  11.653 -0.4239  0.5895 -0.5527
29002SOL     OW94120  12.611   7.897   3.470 -0.5761 -0.0937 -0.1606
29002SOL    HW194121  12.609   7.966   3.403 -0.7650 -0.8276 -0.9205
29002SOL    HW294122  12.622   7.816   3.421  2.0649 -0.4336  0.8657
29003SOL     OW94123   4.414   0.749   5.629  0.1355  0.7320 -0.5312
29003SOL    HW194124   4.343   0.797   5.671  0.7372  0.4555  0.8527
29003SOL    HW294125   4.384   0.735   5.539 -1.9195 -0.0986  0.2298
29004SOL     OW94126  12.155   5.611   6.593 -0.3522  0.5394  0.4754
29004SOL    HW194127  12.231   5.600   6.650 -0.2751  0.6170  0.3885
29004SOL    HW294128  12.081   5.584   6.646 -0.3218  0.9710  0.7427
29005SOL     OW94129   1.317  11.367   1.023  0.3390  0.3998 -0.4068
29005SOL    HW194130   1.349  11.456   1.008  0.7497  0.7665  2.1278
29005SOL    HW294131   1.397  11.314   1.022  0.3323  0.3783 -0.0374
29006SOL     OW94132   4.750   6.235   2.013 -0.0851  0.3273  0.2070
29006SOL    HW194133   4.741   6.140   2.007 -0.1587  0.2958  0.7765
29006SOL    HW294134   4.665   6.265   2.046 -0.2137  0.6344 -0.3859
29007SOL     OW94135   2.280   9.310   2.050  0.2300 -0.6819  0.0965
29007SOL    HW194136   2.373   9.294   2.064  0.2456 -0.4804  0.2171
29007SOL    HW294137   2.242   9.310   2.138  0.2579  0.1196  0.1145
29008SOL     OW94138  11.215   9.513   5.630  0.1496 -0.2818 -0.3430
29008SOL    HW194139  11.310   9.503   5.624  0.0098 -3.1148  0.5094
29008SOL    HW294140  11.183   9.423   5.639 -2.4306  0.7302  1.6583
29009SOL     OW94141   1.434  10.820   4.389 -0.4624  0.2296 -0.7606
29009SOL    HW194142   1.500  10.769   4.435 -1.1026 -1.8845 -2.0669
29009SOL    HW294143   1.350  10.792   4.426 -0.9702 -1.3109 -2.8961
29010SOL     OW94144  11.599   0.006   2.607  0.1872  0.3515  0.4118
29010SOL    HW194145  11.613  -0.068   2.665 -0.5453 -0.1673 -0.0533
29010SOL    HW294146  11.513  -0.010   2.567  0.5758  0.7919 -0.6556
29011SOL     OW94147  12.619   6.851  12.313 -0.1931 -0.5141  0.1101
29011SOL    HW194148  12.712   6.875  12.313  0.0240 -1.3189 -1.1019
29011SOL    HW294149  12.597   6.836  12.221 -1.8681  0.9042  0.2036
29012SOL     OW94150   9.412  12.547   0.770 -0.4388  0.1402 -0.4404
29012SOL    HW194151   9.470  12.606   0.818 -1.4288  0.7526  0.0410
29012SOL    HW294152   9.445  12.459   0.788  1.6334  0.5260 -1.8874
29013SOL     OW94153   2.308   4.622  11.894 -0.0337 -0.3298  0.0443
29013SOL    HW194154   2.301   4.559  11.822 -1.0460  1.1581 -1.2544
29013SOL    HW294155   2.401   4.646  11.896 -0.1697  0.5429 -1.6961
29014SOL     OW94156  10.238   1.106  11.192 -0.1861 -0.7816 -0.0594
29014SOL    HW194157  10.197   1.084  11.276  1.7928 -1.3906  0.7860
29014SOL    HW294158  10.165   1.135  11.138 -1.6684 -1.3186  1.5428
29015SOL     OW94159  10.367   2.499   7.845  0.1550 -0.1536 -0.3373
29015SOL    HW194160  10.349   2.407   7.864  0.1470  0.1310  1.1915
29015SOL    HW294161  10.365   2.542   7.931  1.7486  0.9948 -0.8187
29016SOL     OW94162   3.637   3.409   0.731 -0.5384 -0.2191 -0.2442
29016SOL    HW194163   3.693   3.332   0.729  1.3532  0.9973  1.6560
29016SOL    HW294164   3.656   3.455   0.649  1.4240  0.2402  0.4235
29017SOL     OW94165   0.071  12.803  12.275 -0.3369 -0.1203 -0.3030
29017SOL    HW194166   0.009  12.861  12.320 -1.5208 -1.2214 -0.4181
29017SOL    HW294167   0.019  12.764  12.204  0.5145 -1.0264 -0.4432
29018SOL     OW94168   4.427  11.554   7.340 -0.5528  0.1553  0.6969
29018SOL    HW194169   4.387  11.629   7.297 -2.0623 -0.3270  1.1887
29018SOL    HW294170   4.475  11.509   7.270  0.2036  1.4215  0.3545
29019SOL     OW94171  12.833   1.504   9.095  0.1194  0.0695  0.0472
29019SOL    HW194172  12.778   1.544   9.028 -1.1125  0.4817  1.2701
29019SOL    HW294173  12.871   1.577   9.143 -0.4839 -0.1924  0.9609
29020SOL     OW94174   5.529   1.041   0.663 -0.1619 -0.2200  0.5214
29020SOL    HW194175   5.525   0.947   0.680  0.9442  0.2006  3.8877
29020SOL    HW294176   5.442   1.073   0.685  0.1705 -0.1839  1.8625
29021SOL     OW94177   0.881   0.310  11.677  0.0052  0.4344 -0.5821
29021SOL    HW194178   0.973   0.287  11.667  0.2150  0.4836  1.0149
29021SOL    HW294179   0.835   0.227  11.688 -0.0031  0.4589 -0.4220
29022SOL     OW94180   6.991   3.586   4.804 -0.2007 -0.0410  0.1264
29022SOL    HW194181   6.923   3.594   4.871  0.7576 -2.9487  1.6628
29022SOL    HW294182   7.059   3.648   4.831 -0.5481  0.0089  0.9132
29023SOL     OW94183   6.983   0.213   0.327 -0.0581 -0.0105 -0.2064
29023SOL    HW194184   7.020   0.222   0.239  0.6429  0.7422  0.1618
29023SOL    HW294185   7.039   0.266   0.383  0.1309 -1.3382  0.8908
29024SOL     OW94186  12.302   9.510  12.611  0.6556 -0.3119  0.5229
29024SOL    HW194187  12.351   9.475  12.685  0.5728  0.6465  1.0335
29024SOL    HW294188  12.301   9.438  12.547 -1.0642 -1.9184  2.2390
29025SOL     OW94189  10.763   0.850   8.272  0.0614  0.1908  0.2738
29025SOL    HW194190  10.794   0.797   8.345  0.2824 -0.1338 -0.0557
29025SOL    HW294191  10.833   0.846   8.207 -1.2078 -1.7027 -1.0869
29026SOL     OW94192   2.057   6.618   9.879  1.0779  0.0945  0.6481
29026SOL    HW194193   2.007   6.697   9.897 -0.4849 -0.8386  0.5751
29026SOL    HW294194   2.039   6.598   9.787  0.5645 -0.9304  0.9527
29027SOL     OW94195  11.908   4.007   0.478  0.1446 -0.6981 -0.3488
29027SOL    HW194196  11.901   3.914   0.496  1.0804 -0.3875  2.0240
29027SOL    HW294197  12.002   4.023   0.466  0.2754  0.1882  1.3740
29028SOL     OW94198   3.567   6.422   0.532  0.0517 -0.5216  0.0188
29028SOL    HW194199   3.550   6.445   0.623 -1.0756 -3.3895  0.6434
29028SOL    HW294200   3.617   6.340   0.536  1.6965  0.2828 -1.9824
29029SOL     OW94201   1.209   1.083   6.433  0.2057  0.1389  0.4871
29029SOL    HW194202   1.195   1.175   6.411  1.5455  0.7286  1.9378
29029SOL    HW294203   1.295   1.063   6.397  0.1053 -0.4402  0.5598
29030SOL     OW94204   9.794   5.337   2.955 -0.4806 -0.1895  0.3881
29030SOL    HW194205   9.714   5.389   2.968  0.2329  0.7087  1.3173
29030SOL    HW294206   9.779   5.257   3.005 -0.5899  0.2203  1.0301
29031SOL     OW94207   9.275   6.441   5.491  0.2788 -0.6319  0.4494
29031SOL    HW194208   9.238   6.462   5.577  0.2127  1.7376 -0.0927
29031SOL    HW294209   9.339   6.510   5.474 -0.2022 -0.6293 -1.6923
29032SOL     OW94210   5.094   3.174   6.238 -0.0561 -0.1312  0.7965
29032SOL    HW194211   5.092   3.242   6.306  2.0789  0.3544  0.4317
29032SOL    HW294212   5.057   3.216   6.161  0.7336  0.4444  0.7274
29033SOL     OW94213   4.537   3.320  12.251 -0.2776  0.0024  0.8254
29033SOL    HW194214   4.612   3.345  12.304 -0.1056 -0.2025  0.6816
29033SOL    HW294215   4.570   3.251  12.193 -1.1124 -1.6411  2.2335
29034SOL     OW94216  12.782   0.786   3.131  0.1856  0.8040  0.6574
29034SOL    HW194217  12.862   0.831   3.158  0.7471  0.9660 -1.1513
29034SOL    HW294218  12.812   0.717   3.072 -1.0081  0.8498 -0.0284
29035SOL     OW94219  11.003  12.210   0.197 -0.2805  0.4441  0.4818
29035SOL    HW194220  10.950  12.228   0.120  0.0263 -2.9215 -0.6859
29035SOL    HW294221  10.948  12.153   0.251  1.9128 -3.2672 -0.8203
29036SOL     OW94222   0.818   2.447   7.629  0.0699 -0.0534 -0.0649
29036SOL    HW194223   0.899   2.397   7.642  0.1537  0.3553  1.0429
29036SOL    HW294224   0.837   2.501   7.552  0.9619  0.2546  0.3562
29037SOL     OW94225   6.641  10.769   3.181 -0.8093 -0.2763  0.0496
29037SOL    HW194226   6.600  10.693   3.140 -3.3594 -0.2079  2.1553
29037SOL    HW294227   6.567  10.825   3.204  0.4583  0.1971  3.5178
29038SOL     OW94228   5.556   6.709   3.139 -0.1486  0.1946 -0.7273
29038SOL    HW194229   5.542   6.636   3.199  0.9093  1.0979  0.6583
29038SOL    HW294230   5.540   6.787   3.192  0.3937  1.0140 -1.7381
29039SOL     OW94231  12.951   9.141   6.694  0.2933 -0.1674  0.3533
29039SOL    HW194232  12.865   9.116   6.660 -0.3616  0.5689  1.4218
29039SOL    HW294233  13.012   9.077   6.656 -0.8279 -1.1710  0.2175
29040SOL     OW94234   1.131  11.144   4.481 -0.4041 -0.5495  0.6840
29040SOL    HW194235   1.172  11.183   4.558 -1.5209 -0.3460  1.2037
29040SOL    HW294236   1.191  11.075   4.454  0.5014  0.0481  1.1147
29041SOL     OW94237   5.087  11.423   1.053  0.4574 -0.1227 -0.2419
29041SOL    HW194238   5.157  11.485   1.033  2.5418 -2.1518  0.3661
29041SOL    HW294239   5.130  11.350   1.098 -2.2004 -1.0742  1.0363
29042SOL     OW94240   3.046  12.112   4.036  0.1703 -0.4437  0.2734
29042SOL    HW194241   3.018  12.182   4.095 -2.0344 -1.3788  0.4480
29042SOL    HW294242   3.106  12.059   4.088  1.0409  0.6906  0.4729
29043SOL     OW94243   2.041   8.851  12.363  0.6612 -0.4259  0.3730
29043SOL    HW194244   1.992   8.875  12.442  2.6700 -0.7951  1.8063
29043SOL    HW294245   2.102   8.923  12.349  2.0446 -1.4866  0.6888
29044SOL     OW94246   8.564  11.049   5.710  0.2505  0.0813 -0.1887
29044SOL    HW194247   8.630  10.980   5.711  1.5657  1.2813 -0.8066
29044SOL    HW294248   8.482  11.004   5.733  0.7467 -1.9634 -2.0705
29045SOL     OW94249   7.867  11.511   1.658  0.2264  0.2797 -0.4043
29045SOL    HW194250   7.830  11.453   1.592 -0.3214  0.9505 -0.7013
29045SOL    HW294251   7.954  11.533   1.624 -0.0589  0.6331 -0.9172
29046SOL     OW94252   8.481  12.502   3.581  0.3226 -0.0307  0.2786
29046SOL    HW194253   8.496  12.408   3.567  0.3111  0.0387 -0.2281
29046SOL    HW294254   8.436  12.531   3.501  0.9217  0.5407  0.1460
29047SOL     OW94255   3.328   1.102   2.523 -0.0670 -0.0712 -0.0765
29047SOL    HW194256   3.382   1.102   2.603  0.3402  0.2214 -0.3457
29047SOL    HW294257   3.344   1.016   2.484 -1.3986 -0.7868  0.8977
29048SOL     OW94258   3.498   3.061   3.003 -0.1083 -0.8005 -0.1497
29048SOL    HW194259   3.555   2.988   2.982  0.6741  0.3755 -2.6017
29048SOL    HW294260   3.453   3.080   2.920 -0.5272  1.2306  0.4855
29049SOL     OW94261  12.191   4.021  12.610 -0.3515  0.0290  0.0220
29049SOL    HW194262  12.270   4.044  12.562 -0.1936  0.4634  0.4802
29049SOL    HW294263  12.122   4.024  12.544 -0.0296 -0.0796 -0.3257
29050SOL     OW94264  10.230   3.749   1.216  0.7954 -0.0605 -0.4712
29050SOL    HW194265  10.291   3.809   1.174  1.7982 -1.3747 -0.9808
29050SOL    HW294266  10.278   3.713   1.290 -0.6635  1.5757  1.3457
29051SOL     OW94267   0.337   5.821   5.114 -0.0400 -0.5115  0.2741
29051SOL    HW194268   0.262   5.778   5.156  0.9004 -1.7897  0.6896
29051SOL    HW294269   0.319   5.813   5.020 -1.0593  0.3901  0.3665
29052SOL     OW94270   1.124   0.567   1.944 -0.0367 -0.2200  0.3411
29052SOL    HW194271   1.176   0.631   1.992 -0.1744 -0.1706  0.4260
29052SOL    HW294272   1.129   0.488   1.997  0.6367 -0.4612 -0.0743
29053SOL     OW94273   1.169   5.430   0.258 -0.4985  0.4446 -0.1763
29053SOL    HW194274   1.169   5.526   0.262 -0.5082  0.4815 -1.0222
29053SOL    HW294275   1.261   5.405   0.273 -0.6071  0.5413  0.7469
29054SOL     OW94276   8.154  12.225   0.886 -0.6883 -0.3705 -0.6650
29054SOL    HW194277   8.162  12.180   0.802  1.2647 -1.3434 -0.0125
29054SOL    HW294278   8.141  12.317   0.863 -0.3441 -0.6409 -2.0279
29055SOL     OW94279   0.651   1.275   8.143 -0.0327 -0.0048 -0.1279
29055SOL    HW194280   0.716   1.281   8.214  1.0863  1.3819 -1.2043
29055SOL    HW294281   0.588   1.344   8.162  0.5493  0.7014 -0.7417
29056SOL     OW94282   1.507   4.629  10.366 -0.1067 -0.3017 -0.2635
29056SOL    HW194283   1.522   4.548  10.415 -1.0803  0.5255  1.4907
29056SOL    HW294284   1.572   4.690  10.401  0.7886 -0.3505 -1.7517
29057SOL     OW94285   9.871   6.895   5.669 -0.7941  0.4762 -0.4866
29057SOL    HW194286   9.932   6.961   5.700 -1.8323  1.5704 -0.7153
29057SOL    HW294287   9.908   6.866   5.585  1.1058 -1.2574  0.8560
29058SOL     OW94288  10.041   0.692   3.617  0.1186  0.2239 -0.4361
29058SOL    HW194289  10.069   0.601   3.628 -0.1021  0.3830  2.0391
29058SOL    HW294290  10.117   0.744   3.644  0.1199  0.7943 -1.4776
29059SOL     OW94291   1.091  10.575  11.469  0.4107 -0.4079 -0.1032
29059SOL    HW194292   1.178  10.615  11.467  0.6848 -0.9988 -0.4212
29059SOL    HW294293   1.073  10.552  11.377  0.3504 -1.1768  0.0925
29060SOL     OW94294   1.667  10.901   0.865  0.7002  0.4388  0.1849
29060SOL    HW194295   1.691  10.934   0.951 -0.3786 -1.0142  1.0885
29060SOL    HW294296   1.716  10.819   0.856  2.5305  1.6427 -1.5632
29061SOL     OW94297   4.457   5.123   1.327  0.1611  0.2082 -0.1790
29061SOL    HW194298   4.420   5.163   1.248  0.3945 -1.7494 -1.3387
29061SOL    HW294299   4.537   5.174   1.345  0.1472  0.6207 -1.2411
29062SOL     OW94300   6.162   6.645   1.791  0.2405  0.6917 -0.0916
29062SOL    HW194301   6.074   6.661   1.826  0.5827 -2.1039  2.4969
29062SOL    HW294302   6.149   6.637   1.697 -2.0250  1.6819  0.0566
29063SOL     OW94303   8.830   6.980   7.751  0.6646 -0.7293 -0.4493
29063SOL    HW194304   8.912   7.029   7.747  0.5523 -0.5091 -0.1181
29063SOL    HW294305   8.769   7.030   7.696  1.1259 -1.6439 -1.8507
29064SOL     OW94306   8.382   6.779   3.825 -0.3603  0.2798 -0.2772
29064SOL    HW194307   8.297   6.821   3.815  0.0627  2.1054  2.5907
29064SOL    HW294308   8.431   6.837   3.884  0.9043 -3.3424  2.6606
29065SOL     OW94309   4.591   9.688   0.773  0.1540  0.5362  0.1473
29065SOL    HW194310   4.597   9.699   0.678 -0.7314  3.8126  0.3639
29065SOL    HW294311   4.672   9.643   0.797  0.5061 -0.1390 -2.1033
29066SOL     OW94312   7.998   0.675  11.525  0.6586 -0.0604 -0.3067
29066SOL    HW194313   8.000   0.768  11.501  0.9505 -0.1971 -0.8137
29066SOL    HW294314   7.921   0.667  11.582  1.0714  0.6436  0.3810
29067SOL     OW94315  12.944   1.803   0.019 -0.5299  0.0450 -0.3240
29067SOL    HW194316  13.001   1.731   0.047 -3.7781 -1.7685  2.5133
29067SOL    HW294317  12.993   1.882   0.039  1.2600 -1.3805  1.3526
29068SOL     OW94318   6.949   3.523   0.678 -0.3080 -0.0041  0.1072
29068SOL    HW194319   6.944   3.455   0.746  1.5283 -2.1303 -1.7217
29068SOL    HW294320   6.895   3.490   0.607 -1.9115  2.0222  0.3230
29069SOL     OW94321   3.255   7.093  10.595  0.0465  0.3452 -1.0184
29069SOL    HW194322   3.271   7.082  10.689  1.6827 -0.0508 -1.3043
29069SOL    HW294323   3.169   7.054  10.580  0.1523 -0.3911  0.1659
29070SOL     OW94324   1.282   0.000  12.612  0.1566  0.4965 -0.0646
29070SOL    HW194325   1.335  -0.018  12.690  0.6369  0.3043 -0.4293
29070SOL    HW294326   1.248  -0.085  12.586  1.1213  0.3309 -0.8566
29071SOL     OW94327   0.228   0.987   2.548 -0.0795  0.5346  0.5041
29071SOL    HW194328   0.280   0.978   2.629  0.3925  1.6762  0.3469
29071SOL    HW294329   0.138   0.994   2.579 -0.2092 -1.7213  0.7707
29072SOL     OW94330   1.140   8.116   4.729  0.0428 -0.4117  0.0130
29072SOL    HW194331   1.223   8.163   4.734  0.6150 -1.4988  1.4931
29072SOL    HW294332   1.142   8.055   4.803 -1.5600 -1.3059 -0.6183
29073SOL     OW94333   3.180   3.038  11.419  0.2952 -0.3158  0.4195
29073SOL    HW194334   3.145   3.074  11.338  0.3338 -0.7203  0.2194
29073SOL    HW294335   3.221   3.112  11.463 -0.0654 -0.0133  0.2543
29074SOL     OW94336   5.704   4.262   6.738 -0.7405 -0.2296  0.4613
29074SOL    HW194337   5.709   4.300   6.650 -0.3284 -0.3770  0.4214
29074SOL    HW294338   5.786   4.215   6.749 -0.6405  0.0722  1.0585
29075SOL     OW94339   4.695  12.720   5.866 -0.3478 -0.5743  0.7621
29075SOL    HW194340   4.790  12.720   5.876 -0.1863 -0.8499 -0.5849
29075SOL    HW294341   4.677  12.652   5.801 -1.2082  1.3434 -1.1270
29076SOL     OW94342   5.771   4.439   9.227 -0.0146  0.4636 -0.1191
29076SOL    HW194343   5.825   4.442   9.149  0.8979  1.1492  0.5210
29076SOL    HW294344   5.804   4.364   9.276  1.0266  1.4434  0.7243
29077SOL     OW94345   0.917   8.717   3.204  0.1582 -0.1558 -0.1901
29077SOL    HW194346   0.850   8.657   3.237  0.5846  0.9033  3.0420
29077SOL    HW294347   0.995   8.662   3.193 -0.8667 -1.2108 -3.0984
29078SOL     OW94348   8.378   9.848   4.674  0.1729  0.5909 -0.6921
29078SOL    HW194349   8.373   9.790   4.598 -1.4745  0.1704 -0.3009
29078SOL    HW294350   8.433   9.801   4.737 -0.1055  0.0359 -0.8594
29079SOL     OW94351   0.399   4.317   7.710  0.4270 -0.1660 -0.0561
29079SOL    HW194352   0.470   4.291   7.650 -0.1893  0.2756 -0.9976
29079SOL    HW294353   0.387   4.410   7.693  0.1972 -0.0558  0.7168
29080SOL     OW94354   3.241   3.343   2.489 -0.7509 -0.0245 -0.0705
29080SOL    HW194355   3.260   3.437   2.483 -2.8618  0.5594  1.1284
29080SOL    HW294356   3.150   3.335   2.458 -1.2212 -1.3642  1.5127
29081SOL     OW94357  11.836   2.629   2.229  0.4387  0.2187 -0.2885
29081SOL    HW194358  11.834   2.660   2.138  0.5580 -1.0303 -0.7385
29081SOL    HW294359  11.746   2.601   2.246  0.8332 -1.3964 -0.7129
29082SOL     OW94360   7.241   0.003   1.948 -0.1729 -0.1238  0.0624
29082SOL    HW194361   7.176   0.040   1.889  0.0947  0.6486  0.2474
29082SOL    HW294362   7.196  -0.070   1.991 -1.4029  1.3169  1.3111
29083SOL     OW94363   9.847   4.500   0.992 -0.1703  0.6179 -0.1061
29083SOL    HW194364   9.875   4.421   1.037 -1.2367 -0.6839 -1.5942
29083SOL    HW294365   9.927   4.554   0.985  0.9296 -0.9870 -0.3687
29084SOL     OW94366   9.597   9.262   0.491 -0.5512  0.5270  0.2119
29084SOL    HW194367   9.509   9.227   0.474 -0.3065  0.3789 -0.7817
29084SOL    HW294368   9.599   9.345   0.443 -0.1400  0.5223  0.2180
29085SOL     OW94369   4.640   1.869   9.388  0.1962  0.0983  0.4411
29085SOL    HW194370   4.727   1.897   9.418 -0.0420  0.1503  1.0908
29085SOL    HW294371   4.595   1.841   9.467 -1.4776  2.9053  0.5777
29086SOL     OW94372   5.198   4.914   7.815  0.4484 -0.9114 -0.0104
29086SOL    HW194373   5.193   4.825   7.779 -0.4035 -0.7522 -0.3145
29086SOL    HW294374   5.138   4.965   7.761  1.5446  0.0478 -0.3655
29087SOL     OW94375   3.654   5.966   0.309 -0.1312 -0.1816  0.0581
29087SOL    HW194376   3.678   5.891   0.364  1.1421  0.6056  0.6033
29087SOL    HW294377   3.558   5.967   0.311 -0.1271 -0.7612  1.4750
29088SOL     OW94378   3.717   0.378   8.925  0.4851  0.2142  0.1989
29088SOL    HW194379   3.705   0.452   8.866 -0.0780  1.9392  2.3622
29088SOL    HW294380   3.711   0.415   9.013 -0.9809 -2.5550  1.4179
29089SOL     OW94381  11.837   6.434   3.780 -0.1333 -0.2288  0.1816
29089SOL    HW194382  11.835   6.342   3.755  0.6956 -0.8014  2.0423
29089SOL    HW294383  11.900   6.474   3.719 -1.1071 -0.6728 -1.1675
29090SOL     OW94384  12.522   6.149   6.187  0.3168  0.3731  0.3153
29090SOL    HW194385  12.474   6.067   6.181  0.6409  0.1261  0.9708
29090SOL    HW294386  12.455   6.217   6.181  0.1105  0.0787 -0.7961
29091SOL     OW94387  11.063   7.305   0.983 -0.4074 -0.3355 -0.3241
29091SOL    HW194388  11.035   7.360   0.911  1.2397  1.9684  0.6795
29091SOL    HW294389  11.003   7.326   1.054  1.1305  1.4377  0.5317
29092SOL     OW94390  11.064  12.272   4.039  0.0381 -0.1442  0.3864
29092SOL    HW194391  11.140  12.251   3.985 -0.2684  1.2623 -0.6321
29092SOL    HW294392  10.988  12.256   3.983 -0.4644 -1.6689  1.4338
29093SOL     OW94393  10.276   4.845   3.048 -0.2772 -0.4349 -0.2631
29093SOL    HW194394  10.236   4.927   3.075 -0.2551 -0.3585 -0.4606
29093SOL    HW294395  10.234   4.823   2.965 -2.0435 -1.8731  0.9376
29094SOL     OW94396   4.859  11.312   0.903  0.3815 -0.1969 -0.1280
29094SOL    HW194397   4.935  11.361   0.935  0.4481 -0.1355 -0.3753
29094SOL    HW294398   4.887  11.221   0.903  0.7811 -0.0822 -1.1129
29095SOL     OW94399  12.882  12.146   4.328  0.2050  0.2739  0.4931
29095SOL    HW194400  12.946  12.166   4.261 -0.0089  2.5608  0.8877
29095SOL    HW294401  12.925  12.169   4.411 -0.2238 -0.6361  0.9925
29096SOL     OW94402  11.367  10.674  12.600  0.3119  0.0578  0.0327
29096SOL    HW194403  11.421  10.632  12.533 -0.4939  0.0175 -0.5927
29096SOL    HW294404  11.427  10.736  12.642  0.5847  0.7821 -1.3551
29097SOL     OW94405  11.513   9.596  10.770 -0.4900  0.6136  0.0943
29097SOL    HW194406  11.523   9.584  10.864  1.1150  1.1696  0.0267
29097SOL    HW294407  11.483   9.686  10.760 -0.4271  0.6305  0.0579
29098SOL     OW94408   9.703   1.635   1.638 -0.0761 -0.0139 -0.6208
29098SOL    HW194409   9.758   1.703   1.678 -0.3808 -0.0457 -0.1406
29098SOL    HW294410   9.744   1.553   1.664 -0.2448 -0.0336 -0.4181
29099SOL     OW94411   1.714  11.805   5.689 -0.6572 -0.4041 -0.2224
29099SOL    HW194412   1.664  11.766   5.761 -0.4444 -0.5193 -0.1344
29099SOL    HW294413   1.681  11.762   5.610 -1.5682  0.4026 -0.3057
29100SOL     OW94414   7.712  10.826   6.358  0.6287  0.5333  0.4176
29100SOL    HW194415   7.769  10.893   6.322  1.1874 -0.8489 -1.4462
29100SOL    HW294416   7.633  10.831   6.305  1.5927 -1.7581 -1.4356
29101SOL     OW94417   6.546  10.114   3.779  0.4704 -0.5185 -0.2829
29101SOL    HW194418   6.610  10.045   3.795  0.5088 -0.3352  0.3650
29101SOL    HW294419   6.463  10.067   3.771  0.4906 -0.6340  0.1882
29102SOL     OW94420   0.698   2.825   7.509 -0.5589  0.2255  0.0818
29102SOL    HW194421   0.784   2.841   7.547 -0.2386  1.7627 -1.1745
29102SOL    HW294422   0.644   2.898   7.540 -0.5824  0.8925 -1.4431
29103SOL     OW94423   1.469  12.289   9.799  0.0542  0.6419  0.4607
29103SOL    HW194424   1.433  12.360   9.746  0.1059 -0.2636 -0.8562
29103SOL    HW294425   1.438  12.306   9.888  1.6168  3.3317  0.5963
29104SOL     OW94426  11.799   8.613   8.615  0.0710 -0.0109 -0.3732
29104SOL    HW194427  11.766   8.540   8.666  0.3665 -0.0936 -0.2995
29104SOL    HW294428  11.752   8.608   8.532  0.2005 -0.3731 -0.4263
29105SOL     OW94429  11.988   6.117   6.092  0.0486 -0.2393  0.0891
29105SOL    HW194430  11.896   6.127   6.069  0.0635 -1.4674 -0.5600
29105SOL    HW294431  12.035   6.129   6.010  0.3455 -1.2577  0.1035
29106SOL     OW94432   9.118  10.653  10.914  0.4943 -0.0721 -0.6573
29106SOL    HW194433   9.076  10.694  10.838  0.4956 -1.1420 -1.2620
29106SOL    HW294434   9.211  10.654  10.893  0.9964  3.1254  1.0828
29107SOL     OW94435   0.768   0.404   9.145 -0.0798  0.0640  0.0686
29107SOL    HW194436   0.673   0.396   9.136 -0.3700  2.3368  0.5419
29107SOL    HW294437   0.799   0.436   9.061  0.4853 -1.8062 -0.4888
29108SOL     OW94438   2.657   4.194   5.780  0.0778  0.0831  0.0026
29108SOL    HW194439   2.658   4.101   5.754  0.9928  0.2505 -0.6099
29108SOL    HW294440   2.598   4.235   5.717 -2.2475 -0.4445  1.7146
29109SOL     OW94441   7.725   8.936   7.569  0.6519  0.1161  0.3870
29109SOL    HW194442   7.749   8.907   7.657  0.5788  0.3118  0.4735
29109SOL    HW294443   7.808   8.960   7.528  0.9363 -1.8878 -0.3199
29110SOL     OW94444   0.224   4.910   1.027  0.2525 -0.0774 -0.5177
29110SOL    HW194445   0.305   4.944   1.065  1.3514 -1.7025 -1.2906
29110SOL    HW294446   0.181   4.865   1.100  0.2395  0.4137 -0.2124
29111SOL     OW94447   7.164  10.766   5.989  0.0796 -0.0375  0.2113
29111SOL    HW194448   7.180  10.856   6.019 -1.4381  0.3806 -0.1574
29111SOL    HW294449   7.233  10.749   5.925 -0.2450  1.2743 -0.5240
29112SOL     OW94450  12.885   0.450   4.773  0.5489  0.4789 -0.0416
29112SOL    HW194451  12.972   0.460   4.733  0.7842 -0.8650  0.0873
29112SOL    HW294452  12.839   0.388   4.716  0.4121 -0.4108  1.0013
29113SOL     OW94453   3.899   8.088   2.685  0.8258 -0.5870 -0.0837
29113SOL    HW194454   3.857   8.172   2.668 -1.0875 -1.4809 -0.0513
29113SOL    HW294455   3.969   8.082   2.621 -0.6213 -0.0554 -1.7938
29114SOL     OW94456   4.830   4.621   1.452  0.5238  0.2685  0.9254
29114SOL    HW194457   4.809   4.709   1.482 -0.6777 -0.5622  2.6227
29114SOL    HW294458   4.851   4.572   1.532 -3.0581 -2.1072  0.6044
29115SOL     OW94459   4.579  10.871   2.342  0.2128 -0.0330  0.0978
29115SOL    HW194460   4.590  10.889   2.435  1.2403  2.4467 -0.4123
29115SOL    HW294461   4.485  10.881   2.326  0.1924  0.7404  0.6634
29116SOL     OW94462   4.185   2.752   6.122  0.3289  0.1302  0.4035
29116SOL    HW194463   4.162   2.743   6.030  1.4114  0.5944  0.0736
29116SOL    HW294464   4.270   2.709   6.130  0.3120  0.2238  1.1451
29117SOL     OW94465   8.016  11.146   7.610 -0.4118 -0.4742 -0.0205
29117SOL    HW194466   7.974  11.138   7.525  0.8297 -0.1292 -0.6923
29117SOL    HW294467   8.063  11.229   7.607  0.3695 -0.8648  0.6618
29118SOL     OW94468   9.219  12.229   4.171 -0.1420 -0.4071 -0.4886
29118SOL    HW194469   9.208  12.312   4.126  0.6230 -0.0179  0.0123
29118SOL    HW294470   9.313  12.210   4.165 -0.3832 -1.4949 -1.0405
29119SOL     OW94471   7.772  12.694   5.599  0.4926  0.0049  0.0535
29119SOL    HW194472   7.782  12.722   5.508  0.0054  1.7194  0.5046
29119SOL    HW294473   7.745  12.602   5.593 -1.1339  0.5477 -1.5792
29120SOL     OW94474   6.805   2.309   5.022  0.1600  0.1305  0.4648
29120SOL    HW194475   6.771   2.288   4.935  0.6667 -0.0382  0.3020
29120SOL    HW294476   6.836   2.226   5.057 -0.0429  0.1985  0.8099
29121SOL     OW94477   8.749  12.342   2.735 -0.3712 -0.2760  0.1078
29121SOL    HW194478   8.823  12.327   2.677 -1.1844 -0.0290 -1.0363
29121SOL    HW294479   8.681  12.282   2.704 -1.3537  0.9513 -0.2044
29122SOL     OW94480   9.674  10.613   7.315  0.2386 -0.2652  0.1498
29122SOL    HW194481   9.606  10.569   7.365 -0.1367 -1.2240 -1.1502
29122SOL    HW294482   9.749  10.553   7.316 -0.2468 -0.9425 -1.5594
29123SOL     OW94483  11.777   7.817   5.809 -0.3993 -0.0248  0.1325
29123SOL    HW194484  11.847   7.881   5.825 -0.4832 -0.1970  1.2738
29123SOL    HW294485  11.812   7.735   5.843 -1.0248 -0.1815  0.4098
29124SOL     OW94486   9.694   2.308   5.038 -0.0997  0.1770 -0.1069
29124SOL    HW194487   9.603   2.285   5.056  0.7431 -1.3372  2.8645
29124SOL    HW294488   9.741   2.285   5.118  3.2157 -0.9358 -2.1605
29125SOL     OW94489  12.284   4.608  11.810  0.3622 -0.1110 -0.6959
29125SOL    HW194490  12.211   4.666  11.785  0.5116  0.8172  0.8824
29125SOL    HW294491  12.282   4.539  11.744 -3.1077 -1.1266  0.2381
29126SOL     OW94492   1.798   5.597  10.342  0.7488  0.0627  0.4595
29126SOL    HW194493   1.829   5.588  10.251  0.9543  0.5070  0.4844
29126SOL    HW294494   1.846   5.529  10.390  1.8993  0.9052  0.5447
29127SOL     OW94495  12.201   4.651   0.526  0.0252 -0.1323  0.2669
29127SOL    HW194496  12.188   4.742   0.553  0.1788 -0.3852  1.2252
29127SOL    HW294497  12.288   4.649   0.486 -0.0626  0.1816  0.0602
29128SOL     OW94498   6.223  12.493   8.200  0.0062 -0.1835  0.2334
29128SOL    HW194499   6.227  12.559   8.131  0.6130  1.0792  1.4346
29128SOL    HW294500   6.167  12.424   8.163  2.0231 -0.6183 -2.3733
29129SOL     OW94501  10.833  10.725   9.759  0.1013  0.2712  0.5956
29129SOL    HW194502  10.786  10.652   9.719  1.7819 -0.6732  0.2559
29129SOL    HW294503  10.786  10.741   9.841 -1.6297  0.3176 -0.3569
29130SOL     OW94504  11.648  12.162   5.766 -0.1891  0.7561 -0.3861
29130SOL    HW194505  11.560  12.199   5.762 -0.8606 -0.9023 -3.1949
29130SOL    HW294506  11.638  12.072   5.737  2.0862 -0.3567  1.8276
29131SOL     OW94507   6.855   8.764   7.079  0.4816 -0.1551 -0.1923
29131SOL    HW194508   6.798   8.838   7.059  0.5444 -0.4685 -1.5691
29131SOL    HW294509   6.812   8.721   7.153 -0.3162  0.4110 -0.3117
29132SOL     OW94510   6.723   7.772   8.255  0.0689  0.1854  0.0817
29132SOL    HW194511   6.811   7.782   8.292 -0.3392  0.4059  1.0098
29132SOL    HW294512   6.670   7.837   8.301 -0.5634  0.1291 -0.5491
29133SOL     OW94513  10.711   0.010   2.751  0.4532 -0.2890  0.7692
29133SOL    HW194514  10.727   0.058   2.831 -0.3216  1.3686 -0.0278
29133SOL    HW294515  10.769   0.050   2.686 -0.8421  0.2116 -0.1195
29134SOL     OW94516   9.792   2.838   3.050 -0.1930  0.2854 -0.0564
29134SOL    HW194517   9.753   2.837   2.962 -1.1829 -3.2401  0.2433
29134SOL    HW294518   9.886   2.829   3.034 -0.4841 -1.9809 -0.8580
29135SOL     OW94519  10.550  11.015  11.567  0.0891  0.2601 -0.2306
29135SOL    HW194520  10.629  10.967  11.592 -0.0429  0.3519  0.3764
29135SOL    HW294521  10.557  11.026  11.472  0.7683  0.2072 -0.1861
29136SOL     OW94522   1.248   2.629  12.840 -0.1967 -0.2616  0.6331
29136SOL    HW194523   1.286   2.625  12.927 -0.6230 -2.3557  0.7589
29136SOL    HW294524   1.184   2.558  12.838 -0.1671 -0.2839 -1.3912
29137SOL     OW94525  11.617   1.209   8.393 -0.0178 -0.0850 -0.3322
29137SOL    HW194526  11.692   1.248   8.437 -0.2837  0.8856 -0.7231
29137SOL    HW294527  11.655   1.153   8.325  0.3857 -1.3781  0.9129
29138SOL     OW94528   0.682   7.397  12.113 -1.0263 -0.5929 -0.3374
29138SOL    HW194529   0.700   7.434  12.199  2.6040 -0.8584 -0.8335
29138SOL    HW294530   0.653   7.472  12.061  1.2031  0.5963  0.0011
29139SOL     OW94531  11.721   5.923  12.035  0.0995  0.3633 -0.1467
29139SOL    HW194532  11.665   5.937  12.111 -2.1069  1.1049 -1.7915
29139SOL    HW294533  11.661   5.928  11.960  2.0818 -0.7916 -1.9188
29140SOL     OW94534   0.776   0.274   5.517 -0.3310  0.3030 -0.5623
29140SOL    HW194535   0.773   0.218   5.594 -1.0043  0.4951 -0.4429
29140SOL    HW294536   0.836   0.229   5.457  1.7098  1.0872  0.7718
29141SOL     OW94537  11.106   8.267  11.866 -0.6676  0.3242  0.3199
29141SOL    HW194538  11.081   8.241  11.778 -0.5403  0.4966  0.2321
29141SOL    HW294539  11.143   8.187  11.905  0.4083  0.5460 -0.1974
29142SOL     OW94540   0.945   7.670   8.968 -0.2734 -0.0011 -0.5292
29142SOL    HW194541   0.919   7.741   9.028 -0.2572  0.3503 -0.9291
29142SOL    HW294542   1.041   7.675   8.965 -0.1703 -0.9608  0.5400
29143SOL     OW94543   3.940   6.403   3.905  0.5747  0.4651  0.5711
29143SOL    HW194544   3.946   6.493   3.935  1.2900  0.5793  0.1046
29143SOL    HW294545   3.993   6.400   3.825  0.9796 -0.4872  0.8558
29144SOL     OW94546   3.779  12.960  11.001 -0.0611  0.5531 -0.1807
29144SOL    HW194547   3.748  13.001  11.081 -1.8221 -0.2728 -0.4080
29144SOL    HW294548   3.778  12.866  11.019  1.6489  0.4329 -0.4652
29145SOL     OW94549  11.983   9.609   7.111 -0.0722 -0.5522  0.2247
29145SOL    HW194550  11.981   9.633   7.018 -0.4849  0.4097  0.4723
29145SOL    HW294551  12.031   9.526   7.113 -0.6245 -0.9235 -0.9227
29146SOL     OW94552   2.715   8.003  10.503  0.1115 -0.2308 -0.0431
29146SOL    HW194553   2.737   8.087  10.463 -1.1222 -0.0900 -0.4574
29146SOL    HW294554   2.784   7.944  10.472 -0.4299  0.0344 -1.8906
29147SOL     OW94555  10.706   5.953   7.428 -0.3786  0.6557 -0.2313
29147SOL    HW194556  10.699   5.892   7.354 -0.2642 -2.2515  1.9718
29147SOL    HW294557  10.792   5.936   7.465 -0.9461  1.0707  1.3503
29148SOL     OW94558   2.845   3.849  12.405 -0.2304 -0.1936  0.5385
29148SOL    HW194559   2.770   3.823  12.459 -3.2429 -0.7788 -3.5090
29148SOL    HW294560   2.834   3.943  12.393 -1.3718 -0.5188 -1.3315
29149SOL     OW94561   7.367   5.866   1.065 -0.4529  0.1101 -0.3345
29149SOL    HW194562   7.358   5.836   0.975 -0.1954  2.0154 -1.0540
29149SOL    HW294563   7.376   5.786   1.117 -1.5913 -1.0667 -1.8674
29150SOL     OW94564  10.240  11.078   1.722  0.1342  0.0453 -0.5028
29150SOL    HW194565  10.214  11.050   1.810  1.8259 -0.5658 -0.1600
29150SOL    HW294566  10.187  11.155   1.705  1.5574  1.7656  2.1522
29151SOL     OW94567   5.021   5.273  10.244 -0.6669  0.1916 -0.3141
29151SOL    HW194568   5.114   5.283  10.222 -0.8087  2.1215 -0.2004
29151SOL    HW294569   5.021   5.209  10.315  0.5957  0.2179 -0.2602
29152SOL     OW94570   8.347   1.505  11.541  0.5932  0.3198 -0.3235
29152SOL    HW194571   8.331   1.448  11.466 -2.4683 -0.6171  0.8872
29152SOL    HW294572   8.432   1.477  11.575 -0.0897 -2.5260 -0.7042
29153SOL     OW94573   6.912   0.766   4.868  0.2608 -0.3257 -0.1404
29153SOL    HW194574   6.933   0.791   4.957 -0.5117 -2.2593  0.6507
29153SOL    HW294575   6.822   0.796   4.855  0.3543 -0.0925 -0.2598
29154SOL     OW94576   6.828   9.398  10.803  0.0934  0.1109 -0.4147
29154SOL    HW194577   6.780   9.472  10.840 -0.0622 -0.4562  0.5433
29154SOL    HW294578   6.907   9.436  10.766  0.6383  0.6138  1.2128
29155SOL     OW94579   8.727   8.633  10.856  0.4193  0.2954 -0.0638
29155SOL    HW194580   8.744   8.725  10.874 -1.0020  0.1900  2.3012
29155SOL    HW294581   8.812   8.590  10.866  0.8779  1.2030 -0.0542
29156SOL     OW94582   9.953   5.900   3.078  0.0395  0.1242  0.2434
29156SOL    HW194583  10.045   5.918   3.057 -0.5178  0.4396 -2.2659
29156SOL    HW294584   9.911   5.986   3.079 -0.2744 -0.0337  1.1776
29157SOL     OW94585   7.744   9.281   2.463 -0.6446 -0.2540 -0.2377
29157SOL    HW194586   7.735   9.202   2.517 -0.5747 -0.7280 -0.9149
29157SOL    HW294587   7.837   9.281   2.438 -0.7957 -0.3290 -0.8019
29158SOL     OW94588   3.961   1.711  12.299 -0.0118  0.0387 -0.3707
29158SOL    HW194589   4.049   1.685  12.271 -0.2642 -0.8267 -0.3889
29158SOL    HW294590   3.931   1.639  12.354 -0.7398  0.2903 -0.4257
29159SOL     OW94591   8.940   6.463  11.484  0.2212  0.1628  0.0084
29159SOL    HW194592   8.907   6.435  11.570  0.7810  2.1837  0.9605
29159SOL    HW294593   8.861   6.478  11.433 -0.2791  1.5173  1.0971
29160SOL     OW94594   9.096   7.428   0.018 -0.0165 -0.8530  0.2919
29160SOL    HW194595   9.016   7.377   0.036 -0.1295 -0.3469  1.3147
29160SOL    HW294596   9.090   7.504   0.076  1.3153 -0.9121  0.5462
29161SOL     OW94597   9.345   3.571   2.105 -0.1066 -0.0825  0.4254
29161SOL    HW194598   9.322   3.605   2.191  0.5144  0.9870  0.1905
29161SOL    HW294599   9.436   3.597   2.092 -0.3988  0.3880 -0.8325
29162SOL     OW94600   8.595   0.001   5.977 -0.1884  0.3176  0.1916
29162SOL    HW194601   8.568   0.079   5.929  0.0334  1.2723  1.5737
29162SOL    HW294602   8.529  -0.065   5.955 -0.6448  1.0346 -0.6169
29163SOL     OW94603   0.059  10.333  11.130 -0.2073  0.2503 -0.5637
29163SOL    HW194604   0.036  10.268  11.197  1.3871  0.7844  0.5621
29163SOL    HW294605   0.123  10.287  11.075  0.1327  0.5127 -0.3914
29164SOL     OW94606   3.150  10.147   7.735 -0.1786  0.5514 -0.1709
29164SOL    HW194607   3.160  10.181   7.646 -2.2780 -0.6152 -0.9403
29164SOL    HW294608   3.231  10.100   7.752 -0.4341 -0.7646 -2.2352
29165SOL     OW94609   8.680  11.952   5.951 -0.4671  0.0124 -0.3088
29165SOL    HW194610   8.760  11.928   5.906  0.3302 -0.3177  1.2492
29165SOL    HW294611   8.663  12.042   5.922  1.3154  0.6487  0.4914
29166SOL     OW94612  11.149   3.103   1.758  0.6904 -0.3329 -0.4121
29166SOL    HW194613  11.069   3.151   1.779  0.3271 -1.4121  0.8291
29166SOL    HW294614  11.165   3.121   1.665  0.0526  1.3813 -0.2146
29167SOL     OW94615  12.924   3.076   3.211  0.4340 -0.3366 -0.1689
29167SOL    HW194616  12.837   3.041   3.191  0.4888  0.0826 -1.1892
29167SOL    HW294617  12.973   3.001   3.245 -0.4133 -0.5031  0.6954
29168SOL     OW94618   0.197   9.063   3.584 -0.0072  0.4086 -0.3535
29168SOL    HW194619   0.144   9.071   3.663 -1.7823 -0.0244 -1.4238
29168SOL    HW294620   0.243   9.146   3.577 -2.1456  1.6699 -0.4058
29169SOL     OW94621   1.873   6.977  11.993  0.3467  0.1818 -0.2898
29169SOL    HW194622   1.785   6.983  12.029  0.1507 -1.1380 -0.4838
29169SOL    HW294623   1.882   7.055  11.938  0.8619  2.5983  2.8902
29170SOL     OW94624   3.232   6.632   8.311  0.4777  0.5660 -0.3393
29170SOL    HW194625   3.163   6.625   8.245 -0.6425  1.1158  0.7393
29170SOL    HW294626   3.299   6.688   8.270  0.5892 -0.4664 -1.6226
29171SOL     OW94627  11.699   2.129  11.216 -0.2986  0.5665  0.3766
29171SOL    HW194628  11.722   2.064  11.150 -0.4422 -1.0694  1.8683
29171SOL    HW294629  11.764   2.198  11.205 -0.1135  0.1762 -1.2176
29172SOL     OW94630   9.898   0.892   5.081  0.8177  0.2865  0.3184
29172SOL    HW194631   9.827   0.841   5.042  1.8982 -1.5783  0.6468
29172SOL    HW294632   9.878   0.892   5.175  0.7891  0.5545  0.3138
29173SOL     OW94633   1.069   1.239   7.070  0.0647  0.3049 -0.4446
29173SOL    HW194634   1.021   1.298   7.128 -1.1749 -0.9450 -0.1512
29173SOL    HW294635   1.126   1.189   7.128  0.5268  0.6414 -0.6002
29174SOL     OW94636   0.213   3.484   5.660 -0.3730  0.1215  0.6097
29174SOL    HW194637   0.185   3.480   5.751 -1.6856 -1.3478  0.1816
29174SOL    HW294638   0.160   3.418   5.615  0.0261  1.0070 -1.2854
29175SOL     OW94639   5.635   2.867   9.782  0.2980  0.5694 -0.3741
29175SOL    HW194640   5.654   2.780   9.747  0.4069  0.3967  0.1056
29175SOL    HW294641   5.717   2.895   9.822 -0.2311  0.1097  1.0968
29176SOL     OW94642   9.233   8.777   3.030 -0.6512  0.7528 -0.5708
29176SOL    HW194643   9.143   8.791   3.000  0.1116  0.1275 -3.5347
29176SOL    HW294644   9.257   8.858   3.074 -2.3473  1.3147 -0.6010
29177SOL     OW94645   5.052   0.149  10.607 -0.6855  0.1832  0.1184
29177SOL    HW194646   5.059   0.133  10.701 -0.0589 -0.9655 -0.1107
29177SOL    HW294647   5.005   0.232  10.600  1.8608  1.8818  1.5152
29178SOL     OW94648   1.573   4.588   2.520 -0.0721 -0.2810  0.5922
29178SOL    HW194649   1.643   4.528   2.492 -0.7569 -0.6543 -0.3602
29178SOL    HW294650   1.500   4.531   2.542 -0.6460  0.1882 -0.0636
29179SOL     OW94651  11.738   3.919  11.676  0.7782  0.2376 -0.2851
29179SOL    HW194652  11.649   3.955  11.672  1.0216  0.8388 -0.3415
29179SOL    HW294653  11.757   3.913  11.769  0.7091  0.1846 -0.2743
29180SOL     OW94654   4.012  11.590   0.097  0.3048  0.0667  0.3153
29180SOL    HW194655   4.028  11.511   0.045  1.1577  1.4398 -1.5829
29180SOL    HW294656   4.100  11.622   0.119  0.0283  1.6096 -0.7170
29181SOL     OW94657   0.825   8.773   8.560 -0.8085 -0.3554 -0.3756
29181SOL    HW194658   0.751   8.769   8.500 -1.0845 -1.3953  0.0228
29181SOL    HW294659   0.793   8.736   8.642  0.5496 -2.2667 -0.6346
29182SOL     OW94660   6.385   3.018   3.873 -0.1418  0.6010  0.3062
29182SOL    HW194661   6.325   3.014   3.948 -2.2223  0.3864 -1.2849
29182SOL    HW294662   6.330   2.997   3.797  1.4765  2.4466 -1.5058
29183SOL     OW94663   3.894   6.419   9.837  0.1158  0.1827  0.7435
29183SOL    HW194664   3.846   6.380   9.910  0.3758 -1.4032  0.1125
29183SOL    HW294665   3.940   6.494   9.875  0.1600 -0.5472  2.1814
29184SOL     OW94666   4.731   5.148  12.925 -0.3163  0.1270  0.3517
29184SOL    HW194667   4.800   5.109  12.979  1.8278  2.4291 -0.5121
29184SOL    HW294668   4.653   5.146  12.980 -0.0286 -3.8053  0.9064
29185SOL     OW94669   0.133   6.761   7.604 -0.0318 -0.1685  0.2259
29185SOL    HW194670   0.084   6.790   7.681 -0.3732  1.4958 -0.5671
29185SOL    HW294671   0.160   6.671   7.625 -1.3806 -0.2834  1.6506
29186SOL     OW94672   4.202  12.237   0.768  0.2967 -1.0009 -0.6199
29186SOL    HW194673   4.119  12.274   0.796  0.6471 -1.2135  0.7413
29186SOL    HW294674   4.265  12.264   0.835  0.9642 -2.3483 -0.6745
29187SOL     OW94675   7.955   3.910   6.709 -0.5606 -0.7075 -0.2712
29187SOL    HW194676   8.048   3.899   6.727 -0.5103  0.0602 -0.0142
29187SOL    HW294677   7.911   3.879   6.788 -0.4017  1.1916  0.6404
29188SOL     OW94678   8.012   7.002   6.384  0.2675 -0.2927  0.2557
29188SOL    HW194679   8.049   7.027   6.299 -1.8103 -2.7661 -1.5336
29188SOL    HW294680   8.072   6.935   6.417  0.2506 -0.4674 -0.0590
29189SOL     OW94681   6.673   3.592  10.875  0.1751 -0.3155 -0.3142
29189SOL    HW194682   6.722   3.581  10.793 -3.6808 -1.3578 -2.7769
29189SOL    HW294683   6.650   3.685  10.877 -0.9443 -0.5509 -1.2777
29190SOL     OW94684  10.132   8.368  10.549 -0.8249 -0.0118 -0.5915
29190SOL    HW194685  10.195   8.311  10.594  0.0672  1.3351 -0.0753
29190SOL    HW294686  10.069   8.307  10.509 -0.0290 -1.3425  0.1014
29191SOL     OW94687   1.238  12.776   1.207 -0.0446  0.2798  0.4773
29191SOL    HW194688   1.236  12.715   1.133  1.4350  0.9322 -0.1565
29191SOL    HW294689   1.174  12.843   1.184 -0.4313 -0.1237  0.3500
29192SOL     OW94690   6.562   3.490  11.691  0.3908  0.5197 -0.1683
29192SOL    HW194691   6.485   3.547  11.699 -1.0966 -1.2856 -0.7049
29192SOL    HW294692   6.546   3.419  11.753  3.0997  1.5183  1.8653
29193SOL     OW94693   8.570   9.460  11.288 -0.1804  0.1089 -0.0952
29193SOL    HW194694   8.588   9.554  11.294 -0.9914  0.2861 -0.3327
29193SOL    HW294695   8.535   9.447  11.200 -2.1490 -0.0312  0.6466
29194SOL     OW94696   2.999   8.409   5.470 -0.4698  0.0216 -0.0471
29194SOL    HW194697   3.066   8.466   5.433 -0.4799 -0.1761 -0.3732
29194SOL    HW294698   3.023   8.321   5.440 -0.9981 -0.0214 -0.3452
29195SOL     OW94699   6.687   9.157   9.631  0.3450  0.0876  0.0417
29195SOL    HW194700   6.691   9.251   9.611  0.1113  0.3852  1.2917
29195SOL    HW294701   6.648   9.118   9.553 -0.4968  1.1658 -0.1099
29196SOL     OW94702  11.578   2.755   7.072 -0.1113 -0.1714 -0.7601
29196SOL    HW194703  11.583   2.841   7.031 -0.7539 -0.6018 -1.7951
29196SOL    HW294704  11.484   2.737   7.077 -0.1427  0.3783  2.0722
29197SOL     OW94705  11.683   6.171   0.054 -0.2908 -0.0577 -0.9019
29197SOL    HW194706  11.709   6.178   0.146  0.6933  0.4549 -1.1941
29197SOL    HW294707  11.650   6.082   0.045  2.5777 -1.2487 -0.7334
29198SOL     OW94708   5.547   9.938   8.728 -0.4909  0.2492  0.0343
29198SOL    HW194709   5.562   9.947   8.634 -0.8964  2.2210  0.1164
29198SOL    HW294710   5.454   9.959   8.740 -0.9113 -1.7103  0.7171
29199SOL     OW94711   4.901   4.770   3.293  0.0958  0.1948 -0.7089
29199SOL    HW194712   4.981   4.723   3.317 -0.1622  0.3500  0.5571
29199SOL    HW294713   4.848   4.768   3.373 -1.8660 -1.3029 -1.9625
29200SOL     OW94714  11.309   9.324   1.099 -0.2223  1.0549 -0.1506
29200SOL    HW194715  11.334   9.406   1.057  0.1225 -0.0643 -2.2694
29200SOL    HW294716  11.290   9.264   1.027 -3.0914  0.0013  1.2676
29201SOL     OW94717  10.893  12.835   1.473 -0.3447  0.3270 -0.4154
29201SOL    HW194718  10.978  12.794   1.459  0.7196  1.7242  1.4817
29201SOL    HW294719  10.913  12.918   1.517 -2.6462  1.0999 -0.6743
29202SOL     OW94720   8.880   0.594   4.141 -0.1776 -0.1903 -0.0546
29202SOL    HW194721   8.844   0.505   4.145 -1.9312  0.5014  0.4059
29202SOL    HW294722   8.901   0.615   4.232  1.0205 -0.3986 -0.2581
29203SOL     OW94723   0.983   6.261   8.490 -0.3398  0.8601 -0.1150
29203SOL    HW194724   1.016   6.315   8.562  0.7146  1.8546 -1.3258
29203SOL    HW294725   0.950   6.323   8.426 -1.0289 -0.0107 -0.6254
29204SOL     OW94726   7.989  12.044   8.054 -0.4532  0.3309  0.7073
29204SOL    HW194727   8.027  12.113   8.107 -0.2524  0.4644  0.3949
29204SOL    HW294728   8.056  12.026   7.987  0.3660 -1.5450  1.9516
29205SOL     OW94729   0.082  11.316   1.482 -0.6193 -0.7671 -0.1857
29205SOL    HW194730   0.084  11.289   1.574 -0.9049  0.2364  0.1214
29205SOL    HW294731   0.056  11.236   1.435 -2.9305 -0.7215  0.8545
29206SOL     OW94732   6.085  11.685   3.682  0.5525  0.3222 -0.3070
29206SOL    HW194733   6.044  11.606   3.648 -1.8182  0.7830  1.2736
29206SOL    HW294734   6.118  11.660   3.768  1.3317  0.6293 -0.5080
29207SOL     OW94735   5.182  12.588  11.917 -0.7453  0.4474 -0.1343
29207SOL    HW194736   5.217  12.646  11.849  1.5115  0.7165  1.1784
29207SOL    HW294737   5.124  12.645  11.969  0.0123  1.0685  0.0494
29208SOL     OW94738   9.444  11.115   6.154  0.4849 -0.3726 -0.9911
29208SOL    HW194739   9.352  11.125   6.178  1.0941 -2.1527  2.9713
29208SOL    HW294740   9.448  11.032   6.106  0.1381 -1.0648  0.1340
29209SOL     OW94741   2.095   0.892  11.311  0.0083  0.0789  0.1970
29209SOL    HW194742   2.078   0.918  11.402  0.1316  0.4871  0.1060
29209SOL    HW294743   2.010   0.862  11.279 -0.4133  1.4681 -0.0488
29210SOL     OW94744   6.083  12.671   5.342 -0.1020 -0.8279  0.2787
29210SOL    HW194745   6.071  12.601   5.277 -0.0066 -1.3114  0.7725
29210SOL    HW294746   6.006  12.727   5.330  0.3534 -0.4218 -0.8400
29211SOL     OW94747   6.903  11.847   1.064  0.2650  0.2987 -0.0911
29211SOL    HW194748   6.898  11.841   0.968  1.9649  0.0779 -0.2086
29211SOL    HW294749   6.835  11.788   1.095  0.6771 -0.8312 -1.1923
29212SOL     OW94750   3.028   7.107   1.454 -0.0182 -0.3497  0.0068
29212SOL    HW194751   3.113   7.121   1.412 -0.5076  0.1958 -0.8316
29212SOL    HW294752   2.981   7.047   1.396  0.1239 -1.4197  0.9480
29213SOL     OW94753  10.385   2.868   8.852 -0.0911  0.6352  0.4226
29213SOL    HW194754  10.465   2.819   8.873  0.6785  2.5672  2.4361
29213SOL    HW294755  10.416   2.956   8.831 -1.4955  0.5785 -2.2204
29214SOL     OW94756  11.125  12.255   4.974  0.0754  0.4244  0.0095
29214SOL    HW194757  11.146  12.172   4.932 -1.5165  0.3534 -0.7346
29214SOL    HW294758  11.141  12.240   5.067 -0.0727 -0.6766 -0.1337
29215SOL     OW94759  10.823  12.604  12.069 -0.2065 -0.2242  0.8899
29215SOL    HW194760  10.827  12.692  12.106 -1.6020 -0.6098  2.0441
29215SOL    HW294761  10.869  12.549  12.132  1.6099 -0.2161 -0.3447
29216SOL     OW94762   8.984  11.424   3.780 -0.2649 -0.3796 -0.0770
29216SOL    HW194763   9.051  11.487   3.804  1.2773 -1.8738 -0.2320
29216SOL    HW294764   8.933  11.467   3.712 -1.2257  1.8186  1.9175
29217SOL     OW94765   0.816   6.816   0.148 -0.2998 -0.7234 -0.0361
29217SOL    HW194766   0.873   6.803   0.224 -1.6267 -0.6397  1.0178
29217SOL    HW294767   0.871   6.797   0.073  0.8423 -1.6156  0.9867
29218SOL     OW94768   0.327   8.150   5.335 -0.6902 -0.1099  0.5745
29218SOL    HW194769   0.258   8.121   5.275 -0.9836  1.9435 -0.1633
29218SOL    HW294770   0.401   8.170   5.277 -0.1679 -0.3565  1.1509
29219SOL     OW94771   4.541   5.095   4.349  0.1004  0.3501 -0.1999
29219SOL    HW194772   4.523   5.034   4.420  1.5917 -0.0125 -0.1180
29219SOL    HW294773   4.604   5.157   4.385  1.3452 -0.1840 -1.3671
29220SOL     OW94774  11.658  12.242   1.585 -0.4387  0.0443  0.0520
29220SOL    HW194775  11.632  12.167   1.531  2.2643 -0.5142 -0.6229
29220SOL    HW294776  11.701  12.202   1.660 -1.8986  0.9034  1.3940
29221SOL     OW94777   9.104   9.572   7.703  0.3919 -0.0040 -0.1843
29221SOL    HW194778   9.148   9.538   7.625  0.7003 -0.4279  0.1757
29221SOL    HW294779   9.010   9.561   7.684  0.4704 -0.2163 -0.4443
29222SOL     OW94780   2.230   6.058   3.771  0.0739  0.6605 -0.0996
29222SOL    HW194781   2.184   6.142   3.765 -2.4572 -0.4638  1.7381
29222SOL    HW294782   2.185   6.001   3.709  0.3828  0.0913  0.1860
29223SOL     OW94783   8.225   2.981   3.521 -0.1815 -0.4812  0.3272
29223SOL    HW194784   8.294   2.915   3.534  1.3982  1.1401  0.5475
29223SOL    HW294785   8.261   3.061   3.560 -1.9686  0.5676 -0.0832
29224SOL     OW94786  10.945   5.658   6.568 -0.4696  0.4667 -0.9255
29224SOL    HW194787  11.035   5.629   6.560 -0.2475  1.0752 -0.6771
29224SOL    HW294788  10.915   5.669   6.477 -1.0052 -1.8256 -1.0864
29225SOL     OW94789   0.170   5.218   3.856 -0.0594 -0.1421  0.0499
29225SOL    HW194790   0.083   5.194   3.888  0.2050 -0.0251  0.8985
29225SOL    HW294791   0.200   5.284   3.919  0.1270  0.7648 -0.9622
29226SOL     OW94792   0.155  10.956   3.426  0.6111 -0.1071 -0.1281
29226SOL    HW194793   0.066  10.968   3.393 -0.6297 -1.6768  2.3222
29226SOL    HW294794   0.196  10.897   3.363 -0.8106 -1.0171 -0.2585
29227SOL     OW94795  12.528   0.690  10.137  0.0568 -0.3142  0.1274
29227SOL    HW194796  12.509   0.597  10.133  0.0501 -0.3639  0.9873
29227SOL    HW294797  12.622   0.696  10.119  0.6128 -0.7685  2.4786
29228SOL     OW94798   1.274   7.165   6.321  0.6144 -0.2774 -0.4188
29228SOL    HW194799   1.273   7.111   6.399 -1.2236 -1.9490 -1.5037
29228SOL    HW294800   1.223   7.243   6.344  3.1868  1.0749  1.1222
29229SOL     OW94801   8.461   6.649   0.691  0.7454 -0.3071  0.0913
29229SOL    HW194802   8.374   6.633   0.727  0.6780  1.2610  0.7174
29229SOL    HW294803   8.512   6.572   0.716  0.3455  0.0994  2.4629
29230SOL     OW94804   1.152  10.791   5.813  0.7737  0.0701  0.0101
29230SOL    HW194805   1.242  10.781   5.843  0.4359 -1.0335  0.7113
29230SOL    HW294806   1.100  10.738   5.874 -0.3578  0.7336 -0.3461
29231SOL     OW94807   5.103   3.639   1.184  0.2045  0.1523 -0.3183
29231SOL    HW194808   5.132   3.727   1.206 -0.2132  0.6280 -1.5592
29231SOL    HW294809   5.009   3.640   1.203 -0.0627  0.4163 -1.5659
29232SOL     OW94810   2.792  12.224  12.658 -0.5493 -0.2404  0.4823
29232SOL    HW194811   2.710  12.248  12.615  0.4397  2.3964 -0.0974
29232SOL    HW294812   2.780  12.254  12.749 -0.5605 -0.7491  0.6545
29233SOL     OW94813  12.329   0.939   7.655  0.1798 -0.3464 -0.5426
29233SOL    HW194814  12.400   0.986   7.700  0.1128  0.2645 -1.0598
29233SOL    HW294815  12.249   0.971   7.697  0.2314 -2.0194  0.9650
29234SOL     OW94816  10.152   1.204   1.479  0.1510 -0.4313 -0.3028
29234SOL    HW194817  10.162   1.244   1.566  1.0097  0.8458 -0.9687
29234SOL    HW294818  10.241   1.186   1.450 -0.1607 -1.4938 -0.6523
29235SOL     OW94819  10.247   7.714   8.489  0.7634 -0.4581  0.1058
29235SOL    HW194820  10.226   7.661   8.412  2.4946 -0.3013 -0.5298
29235SOL    HW294821  10.309   7.779   8.456  3.0202 -1.5242  1.9750
29236SOL     OW94822   5.025  11.305   6.126 -0.7412 -0.4902 -0.3902
29236SOL    HW194823   5.006  11.395   6.098  1.1937  0.1478  0.1725
29236SOL    HW294824   5.082  11.271   6.057  1.6920  0.1003  1.2075
29237SOL     OW94825  10.078   1.385   2.452 -0.0440  0.5762  0.4463
29237SOL    HW194826  10.097   1.382   2.546 -1.0462  0.5448  0.6528
29237SOL    HW294827  10.001   1.441   2.444  0.0001  0.5391 -0.3544
29238SOL     OW94828   2.914   9.281  11.522  0.4588 -0.3931  0.1775
29238SOL    HW194829   2.956   9.206  11.565  0.5632  0.6333  1.9972
29238SOL    HW294830   2.984   9.346  11.512 -0.0999  0.3412  0.8412
29239SOL     OW94831  11.760   7.175   2.941 -0.2592 -0.2021 -0.3042
29239SOL    HW194832  11.686   7.139   2.990  0.1158 -3.1374 -1.6814
29239SOL    HW294833  11.836   7.157   2.996 -0.3227  1.0625  0.2323
29240SOL     OW94834   0.825   3.602   6.708 -0.3045  0.3408  0.3819
29240SOL    HW194835   0.815   3.562   6.621  1.9224  0.7506 -0.1404
29240SOL    HW294836   0.843   3.695   6.689  0.2484  0.4245  1.2681
29241SOL     OW94837   2.190   4.288   8.368 -0.2834  0.1455  0.0512
29241SOL    HW194838   2.097   4.280   8.350 -0.3770  1.0197  0.1326
29241SOL    HW294839   2.232   4.233   8.301 -0.8710 -0.6858  0.3469
29242SOL     OW94840   7.922   2.889   0.424  0.3222  0.2907 -0.3152
29242SOL    HW194841   7.859   2.881   0.353  0.4222  1.2025 -0.5199
29242SOL    HW294842   7.869   2.898   0.503  0.1908  1.0167 -0.4816
29243SOL     OW94843   1.464   8.780   9.326 -0.5794  0.6723 -0.6848
29243SOL    HW194844   1.509   8.860   9.352 -0.7101  0.7614 -0.7309
29243SOL    HW294845   1.525   8.710   9.348 -0.9517  0.6952  0.5170
29244SOL     OW94846   2.297  10.597   0.196 -0.7114  0.0509  0.2870
29244SOL    HW194847   2.311  10.645   0.115 -1.3269  0.3117  0.3346
29244SOL    HW294848   2.334  10.510   0.179  1.2739  0.8076  0.5230
29245SOL     OW94849   5.165   1.989   0.764 -0.3382  0.4396 -0.2457
29245SOL    HW194850   5.158   2.083   0.747  0.3496  0.5410  0.0126
29245SOL    HW294851   5.259   1.972   0.770 -0.4475 -0.2949 -0.4408
29246SOL     OW94852  12.505   7.659   6.500 -0.2518 -0.5537  0.0202
29246SOL    HW194853  12.466   7.686   6.417  0.4983 -1.1229 -0.5302
29246SOL    HW294854  12.488   7.733   6.559  0.7422  0.6376 -1.1164
29247SOL     OW94855  12.895   0.580   2.931 -0.0361 -0.4698  0.1468
29247SOL    HW194856  12.836   0.580   2.856  0.3522 -0.5879 -0.1635
29247SOL    HW294857  12.866   0.505   2.984 -0.9296  0.1981  0.6190
29248SOL     OW94858   5.023   2.688   4.841 -0.5856  0.4824 -0.1603
29248SOL    HW194859   4.931   2.662   4.839 -0.2539 -0.7963  0.5373
29248SOL    HW294860   5.038   2.728   4.755 -1.8158  0.8562 -0.2230
29249SOL     OW94861   8.503   6.948  12.091  0.0084  0.5574 -0.8829
29249SOL    HW194862   8.532   6.980  12.176  0.4833  0.9789 -1.1940
29249SOL    HW294863   8.434   6.884  12.111  0.4243  0.3179 -0.1668
29250SOL     OW94864   1.129   6.282  11.531  0.1797  0.3475  0.5640
29250SOL    HW194865   1.211   6.314  11.494  0.5256 -2.0158 -0.9390
29250SOL    HW294866   1.135   6.304  11.624  2.2490  0.7722  0.3895
29251SOL     OW94867   9.726   6.315   8.704  0.1368 -0.3217 -0.5832
29251SOL    HW194868   9.662   6.244   8.694  0.8372 -1.0648  0.1298
29251SOL    HW294869   9.810   6.271   8.716  0.1689  0.4491  3.4685
29252SOL     OW94870   0.367  12.193  11.849  0.0583  0.1463 -0.2632
29252SOL    HW194871   0.418  12.255  11.797  0.6339  0.2042  0.3611
29252SOL    HW294872   0.282  12.189  11.805 -0.4710  2.3746  0.4069
29253SOL     OW94873   4.629   5.265   6.827  0.1885 -0.0508 -0.0400
29253SOL    HW194874   4.548   5.217   6.842  1.3159 -1.8964  0.3892
29253SOL    HW294875   4.613   5.313   6.746 -1.2757 -0.4934 -0.0442
29254SOL     OW94876   7.375   5.194   7.135  0.1720 -0.2353 -0.2171
29254SOL    HW194877   7.440   5.158   7.194 -0.3146  0.2492  0.6424
29254SOL    HW294878   7.292   5.186   7.183  0.0902  2.4662  0.2882
29255SOL     OW94879  11.555   4.249   9.677 -0.4366  0.0683  0.4806
29255SOL    HW194880  11.524   4.303   9.750 -2.6021  0.2103 -0.4748
29255SOL    HW294881  11.483   4.188   9.660  0.1030 -0.0885 -1.4173
29256SOL     OW94882   0.595   8.774   8.398  0.5390 -0.4219  0.3095
29256SOL    HW194883   0.526   8.757   8.334 -0.2462 -0.0602  1.0304
29256SOL    HW294884   0.547   8.802   8.477  1.5423  0.3716  0.6497
29257SOL     OW94885   4.951   1.710  10.791 -0.0909 -0.5907  0.5884
29257SOL    HW194886   4.954   1.711  10.887  0.5181  0.5482  0.5764
29257SOL    HW294887   4.999   1.789  10.765  0.3787 -1.2617 -0.6717
29258SOL     OW94888   1.801   9.963   6.734 -0.3566 -0.5768 -0.1551
29258SOL    HW194889   1.809  10.048   6.778 -0.0312 -0.1298 -1.0611
29258SOL    HW294890   1.848   9.903   6.791  2.5929  0.5113 -1.2737
29259SOL     OW94891   4.733   3.409   8.749 -0.4788 -0.0758  0.3810
29259SOL    HW194892   4.687   3.411   8.665  1.0748  2.3473 -0.5252
29259SOL    HW294893   4.790   3.333   8.744 -0.3688  0.0733 -0.8148
29260SOL     OW94894   5.071   0.169   7.701  0.5384  0.1506  0.5723
29260SOL    HW194895   5.054   0.237   7.765 -0.1971  1.1679 -0.6581
29260SOL    HW294896   5.159   0.189   7.668 -0.3666  1.6645 -1.0925
29261SOL     OW94897   6.424   6.588  11.663 -0.3518 -0.5497 -0.2709
29261SOL    HW194898   6.348   6.554  11.616 -1.0563  0.6111 -0.0262
29261SOL    HW294899   6.443   6.671  11.620 -0.3863  0.0563  0.8464
29262SOL     OW94900   9.924   6.186   9.126  0.3712  0.4610  0.5339
29262SOL    HW194901   9.943   6.192   9.219  1.0800  0.3803  0.4033
29262SOL    HW294902   9.846   6.240   9.113 -0.6568 -0.7499  1.4175
29263SOL     OW94903  10.636   6.237   0.360 -0.1128 -1.1963  0.4713
29263SOL    HW194904  10.686   6.293   0.301 -0.3433 -0.2349  1.1528
29263SOL    HW294905  10.678   6.248   0.445 -0.5231 -1.6066  0.7340
29264SOL     OW94906   3.763   1.815  11.411  0.6903  0.5263 -0.1626
29264SOL    HW194907   3.791   1.726  11.434  0.5679 -0.1459 -2.3292
29264SOL    HW294908   3.835   1.871  11.440  0.0031  0.0092  2.8571
29265SOL     OW94909   2.786   1.848   0.156  0.1376  0.3499  0.1847
29265SOL    HW194910   2.850   1.841   0.227 -0.1757 -0.8504  0.3812
29265SOL    HW294911   2.810   1.778   0.095  0.3941  1.3599 -0.9044
29266SOL     OW94912  12.012   0.614   1.998  0.9291  0.1877  0.0082
29266SOL    HW194913  12.000   0.693   2.050  0.1389 -0.8258  1.4421
29266SOL    HW294914  12.010   0.644   1.907 -0.2098  1.6835  0.4929
29267SOL     OW94915   5.795  10.239  12.321 -0.1794  0.1762  0.5110
29267SOL    HW194916   5.708  10.233  12.281  0.9107  0.5615 -2.1789
29267SOL    HW294917   5.792  10.318  12.374 -1.3667  0.4072  0.1334
29268SOL     OW94918   3.548   2.936  12.548  0.5163 -0.2081 -0.0417
29268SOL    HW194919   3.628   2.985  12.528 -0.2943  1.1269 -0.1361
29268SOL    HW294920   3.541   2.939  12.643  0.3120  0.1166 -0.0669
29269SOL     OW94921   2.579  10.198  10.697  0.3186  0.0710  0.1221
29269SOL    HW194922   2.648  10.178  10.760  0.6591 -0.9020 -0.5540
29269SOL    HW294923   2.498  10.185  10.747  0.5776 -0.9885  0.2961
29270SOL     OW94924  11.495   2.273   8.964  0.4502 -0.2010 -0.1337
29270SOL    HW194925  11.403   2.296   8.956  0.3712  0.3140  1.7061
29270SOL    HW294926  11.542   2.352   8.937  0.3873 -0.5318 -1.2717
29271SOL     OW94927   7.152   9.119   2.259  0.5972  0.3962  0.0025
29271SOL    HW194928   7.200   9.123   2.177 -1.8389 -0.4296 -1.5584
29271SOL    HW294929   7.177   9.035   2.298 -0.3324 -0.5132 -1.3107
29272SOL     OW94930   1.211   7.072  12.078  0.4397 -0.2762 -0.2393
29272SOL    HW194931   1.171   7.027  12.152  0.5910 -2.2665 -1.2982
29272SOL    HW294932   1.137   7.108  12.029  0.3748  1.7550  1.2309
29273SOL     OW94933   5.355   5.130   3.803  0.6631  0.1794 -0.3290
29273SOL    HW194934   5.404   5.199   3.848  1.1811 -1.2747  1.4517
29273SOL    HW294935   5.264   5.160   3.807  0.7102  0.2014  1.6021
29274SOL     OW94936   2.216   3.950  10.299 -0.3724 -0.1865  0.1418
29274SOL    HW194937   2.173   4.019  10.349  1.6377 -0.4819  2.4780
29274SOL    HW294938   2.272   3.997  10.237 -2.9198  0.1801 -2.0739
29275SOL     OW94939   1.130   1.828   4.236  0.2710  0.6099 -0.0372
29275SOL    HW194940   1.057   1.819   4.174 -0.7612  1.1174  1.0525
29275SOL    HW294941   1.101   1.897   4.296  1.2660  0.1781  0.9674
29276SOL     OW94942   1.892   6.766   4.256  0.8922  0.1116 -0.3850
29276SOL    HW194943   1.811   6.783   4.209  1.1512 -0.3811 -1.0329
29276SOL    HW294944   1.890   6.672   4.276  1.9719 -0.2438 -1.7673
29277SOL     OW94945   0.587   9.399   3.510  0.1976 -0.2480 -0.1545
29277SOL    HW194946   0.574   9.421   3.418  1.6328  2.7854  0.2338
29277SOL    HW294947   0.647   9.324   3.508  2.0860  1.1802 -1.7694
29278SOL     OW94948  11.880   2.065   2.142 -0.4177  0.4813  0.1477
29278SOL    HW194949  11.967   2.027   2.157 -0.7968 -0.4381  0.0966
29278SOL    HW294950  11.881   2.090   2.050 -1.1432 -2.1668 -0.6705
29279SOL     OW94951   3.850   7.921  11.957  0.8398 -0.4171  0.1321
29279SOL    HW194952   3.762   7.920  11.921  0.7173 -0.3020  0.4221
29279SOL    HW294953   3.868   8.013  11.976  0.3906 -0.5955  1.5679
29280SOL     OW94954   6.699  11.204  12.144  0.7172 -0.4142  0.4444
29280SOL    HW194955   6.753  11.277  12.115  1.8170 -0.7210  1.5982
29280SOL    HW294956   6.759  11.129  12.146 -0.5265 -1.5333 -1.3301
29281SOL     OW94957   7.884  10.720   6.004 -0.5788 -0.2961 -0.5975
29281SOL    HW194958   7.920  10.805   5.977 -0.2547 -0.4549 -0.6707
29281SOL    HW294959   7.961  10.666   6.021 -0.7718 -0.9199 -1.6275
29282SOL     OW94960   7.569  11.723   2.999 -0.2082 -0.0027 -0.1939
29282SOL    HW194961   7.663  11.717   3.016 -0.2890 -1.5202 -0.1414
29282SOL    HW294962   7.542  11.805   3.041  1.4261  1.5260 -1.9256
29283SOL     OW94963   5.956   6.177   4.661  0.2595  0.3425  0.0628
29283SOL    HW194964   5.954   6.262   4.706 -0.6908  0.6086 -0.4350
29283SOL    HW294965   5.952   6.200   4.568 -0.5570 -0.2528 -0.0576
29284SOL     OW94966   6.303   5.973   8.253 -0.2806  0.0714 -0.1168
29284SOL    HW194967   6.208   5.981   8.253 -0.5729 -2.6568 -0.2303
29284SOL    HW294968   6.327   5.969   8.161  0.0324  1.2267 -0.1029
29285SOL     OW94969   2.721   8.618   0.403  0.1705 -0.1211  0.2613
29285SOL    HW194970   2.670   8.626   0.484 -2.8424  0.7621 -1.5763
29285SOL    HW294971   2.794   8.679   0.415 -1.9672  2.4743  1.1681
29286SOL     OW94972   9.719   8.875   1.377 -0.2412 -0.6022 -0.1449
29286SOL    HW194973   9.670   8.921   1.309  1.6663  0.6866 -0.7544
29286SOL    HW294974   9.762   8.803   1.330  0.4324 -0.1957 -0.1731
29287SOL     OW94975  11.513   7.782  12.739  0.7270  0.0231 -0.1796
29287SOL    HW194976  11.478   7.698  12.709 -2.9155  1.2486  0.1033
29287SOL    HW294977  11.550   7.823  12.661 -0.5773 -0.4902 -1.1001
29288SOL     OW94978   7.649  11.379  10.719  0.3434 -0.6985 -0.7743
29288SOL    HW194979   7.652  11.338  10.633  1.0126 -1.8468 -0.2324
29288SOL    HW294980   7.734  11.422  10.728  0.1595 -0.3309 -0.8134
29289SOL     OW94981   2.733   0.371   2.596 -0.2810 -0.0083  0.1438
29289SOL    HW194982   2.768   0.365   2.507 -0.3483 -0.0314  0.1194
29289SOL    HW294983   2.800   0.420   2.644  0.1244 -0.6912  0.2766
29290SOL     OW94984   5.773  10.129   0.663  0.1191 -0.2953 -0.2098
29290SOL    HW194985   5.687  10.115   0.701 -0.3699  0.3964 -1.0423
29290SOL    HW294986   5.756  10.163   0.575  1.2355 -0.5477 -0.5394
29291SOL     OW94987   7.925   3.373   3.740 -0.1129  0.0537  0.2028
29291SOL    HW194988   7.951   3.293   3.693 -0.4351 -0.0423  0.1853
29291SOL    HW294989   8.003   3.397   3.791  0.0829 -0.1060 -0.0183
29292SOL     OW94990   0.044   5.184   7.288 -0.1597  0.0474 -0.3947
29292SOL    HW194991  -0.020   5.221   7.349 -0.7973  0.0390 -1.0449
29292SOL    HW294992   0.017   5.093   7.277  0.5318 -0.2219  0.0513
29293SOL     OW94993   2.767   1.606  11.269  0.0643  0.3815 -0.0887
29293SOL    HW194994   2.778   1.516  11.239 -1.1804  0.5977 -1.2401
29293SOL    HW294995   2.801   1.660  11.198  1.3458  0.8508  0.8339
29294SOL     OW94996   9.835   6.492   5.936  0.3584  0.0753 -0.5483
29294SOL    HW194997   9.888   6.568   5.960 -0.6961  0.6928 -0.1195
29294SOL    HW294998   9.756   6.529   5.898 -0.0673 -0.8102 -0.5435
29295SOL     OW94999   2.487   0.966   5.761 -0.4694 -0.4289 -0.5523
29295SOL    HW195000   2.533   0.939   5.841  2.3395 -2.1724 -2.5584
29295SOL    HW295001   2.423   1.030   5.790  0.5389 -0.8631  3.0568
29296SOL     OW95002   7.485   9.599   8.715  0.2429 -0.0670  0.6723
29296SOL    HW195003   7.423   9.566   8.780 -1.2921 -0.6903 -0.9985
29296SOL    HW295004   7.543   9.526   8.697 -1.1987 -0.9459 -0.7422
29297SOL     OW95005   3.470  11.640  12.202 -0.0792 -0.0401  0.6772
29297SOL    HW195006   3.536  11.698  12.163 -1.1571  1.0338  0.3817
29297SOL    HW295007   3.439  11.586  12.129 -0.7517  0.6603  0.4374
29298SOL     OW95008   2.365   1.758   0.019 -0.2774 -0.0284  0.8801
29298SOL    HW195009   2.402   1.817  -0.046 -0.2577 -0.9225  0.0503
29298SOL    HW295010   2.275   1.787   0.029  0.0423  0.8442  1.3390
29299SOL     OW95011  11.741   4.983   1.028  0.0948 -0.0743 -0.0316
29299SOL    HW195012  11.725   4.891   1.045 -0.5801  0.0099 -0.1807
29299SOL    HW295013  11.707   4.998   0.940  0.8279  0.1676 -0.2873
29300SOL     OW95014   9.811   7.304   3.154  0.1062 -0.2470 -0.3135
29300SOL    HW195015   9.850   7.274   3.237  0.9263  0.9601 -0.2337
29300SOL    HW295016   9.886   7.315   3.095 -0.5142 -1.5218 -1.3884
29301SOL     OW95017   1.851   1.727   8.767  0.1319 -0.1976 -0.1478
29301SOL    HW195018   1.829   1.644   8.809  0.8861 -0.2331  0.1855
29301SOL    HW295019   1.897   1.702   8.687  1.1090 -0.0997  0.3709
29302SOL     OW95020  10.608   3.694   3.380 -0.3316  0.2576 -0.2756
29302SOL    HW195021  10.698   3.689   3.410  0.0619  0.5045 -1.3692
29302SOL    HW295022  10.569   3.610   3.405  0.0261  0.3567  0.6804
29303SOL     OW95023   5.593   8.300   7.552  0.7373 -0.3194 -0.2677
29303SOL    HW195024   5.604   8.208   7.573 -1.9710 -0.9787 -1.2924
29303SOL    HW295025   5.571   8.342   7.635  1.1379 -0.7526  0.0571
29304SOL     OW95026   6.028  10.835  11.763 -0.0107  0.0976 -0.2818
29304SOL    HW195027   6.017  10.761  11.823 -0.9466 -1.7659 -2.6044
29304SOL    HW295028   6.103  10.811  11.708  2.4175  2.8688  1.4933
29305SOL     OW95029  11.330   7.156   2.561 -0.6559 -0.0892  0.6605
29305SOL    HW195030  11.333   7.062   2.546 -2.8500 -0.1236  0.0221
29305SOL    HW295031  11.273   7.166   2.637 -0.8130  0.7357  0.4468
29306SOL     OW95032   5.191   3.458   0.780 -0.1919 -0.6883  0.3079
29306SOL    HW195033   5.124   3.411   0.829 -1.9626 -1.5700 -2.6655
29306SOL    HW295034   5.232   3.391   0.725  1.3209  0.2985  0.1868
29307SOL     OW95035   4.867   8.742   3.363  0.0364 -0.2951 -0.3377
29307SOL    HW195036   4.953   8.768   3.329  0.1632  1.3664  1.0932
29307SOL    HW295037   4.870   8.646   3.364  1.7718 -0.2746 -0.5842
29308SOL     OW95038   6.034   0.912  10.981  0.4399 -0.2403 -0.0006
29308SOL    HW195039   6.003   0.946  10.896  1.2875  1.4327  0.3216
29308SOL    HW295040   6.021   0.817  10.974  0.1463 -0.1164 -1.8651
29309SOL     OW95041   2.823   1.828   3.325 -0.1070 -0.5473 -0.0016
29309SOL    HW195042   2.859   1.785   3.402 -0.2437  0.9478  0.9494
29309SOL    HW295043   2.755   1.886   3.360  0.1646  0.5349 -1.1749
29310SOL     OW95044   5.792   0.918  10.323 -0.0401 -0.3460  0.6443
29310SOL    HW195045   5.847   0.893  10.397  0.3002  0.3919  0.6441
29310SOL    HW295046   5.714   0.862  10.331  1.3656 -2.5951 -0.2657
29311SOL     OW95047   9.353  10.237   9.893  0.0207 -0.0405  0.0237
29311SOL    HW195048   9.365  10.325   9.859  0.6968 -0.3887 -0.6743
29311SOL    HW295049   9.384  10.241   9.983 -0.7286  0.6256  0.2602
29312SOL     OW95050   0.632   5.734  10.215 -0.0297  0.9057  0.1297
29312SOL    HW195051   0.692   5.806  10.200 -2.5276  3.2428  0.5464
29312SOL    HW295052   0.563   5.745  10.150  0.9651 -3.0921 -1.9601
29313SOL     OW95053   3.914   8.347  12.319 -0.7396 -0.2138 -0.0731
29313SOL    HW195054   3.925   8.268  12.373 -0.3289  0.1732  0.4133
29313SOL    HW295055   3.984   8.406  12.348  0.7823 -0.7334 -2.3741
29314SOL     OW95056   1.210   2.148   1.951 -0.1924  0.4287  0.3216
29314SOL    HW195057   1.132   2.204   1.946  0.7991  2.0346  1.9435
29314SOL    HW295058   1.217   2.124   2.043  0.8498 -0.3026  0.0722
29315SOL     OW95059   8.509   6.938   4.182  0.6206  0.2442 -0.2735
29315SOL    HW195060   8.493   6.861   4.237  1.7962  0.9385  1.1126
29315SOL    HW295061   8.455   7.007   4.221  1.1855  0.6543 -0.2078
29316SOL     OW95062   8.890   7.553  10.035 -0.4856 -0.2400 -0.0362
29316SOL    HW195063   8.801   7.528  10.060  0.9674 -5.0593  1.4050
29316SOL    HW295064   8.934   7.572  10.119  0.4884 -0.7268 -0.4168
29317SOL     OW95065   9.108  10.821   2.923 -0.2708 -0.0783 -0.0025
29317SOL    HW195066   9.076  10.735   2.895  0.5049  0.2954 -2.2019
29317SOL    HW295067   9.198  10.825   2.889 -0.1033  1.3883  0.5590
29318SOL     OW95068   0.420   5.484   4.289  0.1669  0.4551 -0.3663
29318SOL    HW195069   0.485   5.515   4.352  0.9325 -2.0755  0.1939
29318SOL    HW295070   0.468   5.476   4.207  0.8565 -2.0820  0.2047
29319SOL     OW95071   9.925   9.432   6.257  0.1138  0.0440  0.4794
29319SOL    HW195072  10.011   9.474   6.260  0.2574 -0.1090 -0.7543
29319SOL    HW295073   9.945   9.338   6.249 -0.0761  0.1315 -1.8157
29320SOL     OW95074   1.420  10.066   9.558  0.1442  0.0110 -0.1428
29320SOL    HW195075   1.435  10.139   9.618 -0.3669 -0.8257  1.0535
29320SOL    HW295076   1.326  10.048   9.565  0.2169 -0.5966 -0.6202
29321SOL     OW95077   0.648   0.007  10.041 -0.2157 -0.4590 -0.1480
29321SOL    HW195078   0.569   0.040   9.998 -1.3992 -2.4416  0.3975
29321SOL    HW295079   0.681   0.083  10.090 -0.7783  0.8833 -1.7485
29322SOL     OW95080   9.787   6.868   4.022  0.5083 -0.5017 -0.5329
29322SOL    HW195081   9.713   6.927   4.012  1.2033  0.4204 -0.3920
29322SOL    HW295082   9.751   6.790   4.065 -0.3531 -0.0336 -0.3960
29323SOL     OW95083  11.098   2.229   7.236 -0.3207  0.1676  0.1802
29323SOL    HW195084  11.117   2.210   7.144  0.1664 -3.1085  0.8136
29323SOL    HW295085  11.008   2.261   7.236 -1.1442 -1.8887 -1.3437
29324SOL     OW95086  11.649   5.353   4.027 -0.3378 -0.4100  0.2503
29324SOL    HW195087  11.645   5.431   3.972  1.6066 -1.1402 -1.0376
29324SOL    HW295088  11.588   5.370   4.098 -0.9627  1.6980 -0.7292
29325SOL     OW95089   9.682   9.374   3.420  0.3585  0.3691 -0.0639
29325SOL    HW195090   9.688   9.329   3.504 -0.3666  0.7781  0.2185
29325SOL    HW295091   9.767   9.359   3.378  0.2596 -0.9676  0.1622
29326SOL     OW95092   5.105   4.032   6.637 -0.2137  0.6134  0.1136
29326SOL    HW195093   5.132   4.034   6.545 -0.1028 -1.3174  0.0705
29326SOL    HW295094   5.118   4.122   6.668  1.0238  0.9929 -1.4000
29327SOL     OW95095  12.055   7.164  10.406 -1.1180  0.6674  0.6105
29327SOL    HW195096  12.140   7.137  10.439 -0.3848 -0.4019 -1.9717
29327SOL    HW295097  12.016   7.085  10.369 -1.3327  1.9450 -2.1259
29328SOL     OW95098  10.582  11.945   8.355  0.2170  0.0540  0.0239
29328SOL    HW195099  10.523  11.986   8.292 -0.8713 -0.9139  0.3701
29328SOL    HW295100  10.571  11.997   8.435  0.1328  0.1281 -0.0357
29329SOL     OW95101  10.278   9.205  12.084 -0.2759  0.3527  0.1226
29329SOL    HW195102  10.224   9.193  12.006 -0.2869  2.0575 -0.1675
29329SOL    HW295103  10.364   9.232  12.050 -0.1752  0.7458  0.6771
29330SOL     OW95104   1.563  11.489   0.636  0.3304  0.2776  0.0825
29330SOL    HW195105   1.640  11.522   0.682 -1.3635  4.0954  0.6192
29330SOL    HW295106   1.587  11.492   0.543  1.0766  0.6209  0.2798
29331SOL     OW95107  10.421   8.020   2.773 -0.5295  0.3547 -0.1497
29331SOL    HW195108  10.474   8.039   2.696 -0.2636  1.0897  0.2075
29331SOL    HW295109  10.351   8.086   2.771 -0.4641  0.4377  0.2935
29332SOL     OW95110  12.140  10.682   6.204 -0.4591  0.4751  0.2900
29332SOL    HW195111  12.119  10.763   6.251 -0.8884  0.3045  0.3957
29332SOL    HW295112  12.229  10.661   6.231  0.0812  1.5245 -0.6088
29333SOL     OW95113   3.149   8.731  12.962  0.3802  0.1098  0.2710
29333SOL    HW195114   3.187   8.662  12.907  1.7641  1.4604 -0.5586
29333SOL    HW295115   3.056   8.732  12.939  0.4908 -0.9509 -0.2757
29334SOL     OW95116   8.027   4.984   6.453  0.0613 -0.2100  0.0047
29334SOL    HW195117   8.112   4.984   6.408  0.2610  2.2180  0.2706
29334SOL    HW295118   7.963   4.970   6.383  0.5640  0.0420 -0.5166
29335SOL     OW95119  10.506  10.929   1.749  0.0397  0.3126 -0.2087
29335SOL    HW195120  10.495  10.987   1.824 -0.4844 -1.7283  1.3937
29335SOL    HW295121  10.417  10.914   1.717  0.0334 -0.6274  0.2277
29336SOL     OW95122   6.834   1.455   7.976  0.0722  0.1170  0.3367
29336SOL    HW195123   6.842   1.543   8.011 -0.6883  0.4825 -0.3785
29336SOL    HW295124   6.745   1.450   7.941  0.4911 -0.5263 -0.7102
29337SOL     OW95125  10.589  11.064  10.926  0.5043  0.0987  0.1116
29337SOL    HW195126  10.627  11.050  10.839 -1.9176  1.4768 -1.2733
29337SOL    HW295127  10.608  11.156  10.946  0.4744 -0.0293  0.7407
29338SOL     OW95128  12.780   5.313   5.568  0.2132  0.2329  0.1907
29338SOL    HW195129  12.747   5.367   5.496 -0.3302 -0.2136  0.0921
29338SOL    HW295130  12.706   5.256   5.590  0.8918 -0.7161  0.0550
29339SOL     OW95131   4.237   6.989   4.242  0.0855 -0.3126  0.0940
29339SOL    HW195132   4.200   7.007   4.155  0.0059  0.1788  0.2273
29339SOL    HW295133   4.174   6.930   4.283 -0.0608 -0.2566 -0.0475
29340SOL     OW95134   0.706   7.025  11.405  0.0314 -0.2068  0.5228
29340SOL    HW195135   0.612   7.040  11.393  0.2637  1.0906  0.1048
29340SOL    HW295136   0.727   7.070  11.486  0.5560  0.8572 -0.1763
29341SOL     OW95137   0.944  11.054   7.918  0.3065  0.4402 -0.2350
29341SOL    HW195138   0.903  10.974   7.950  0.8351  0.4238  0.4237
29341SOL    HW295139   0.910  11.065   7.830  0.7372 -0.8771 -0.5828
29342SOL     OW95140   8.971   0.631  11.202 -0.4403  0.1831 -0.1291
29342SOL    HW195141   8.988   0.720  11.171 -1.1077 -0.4166 -2.4355
29342SOL    HW295142   9.025   0.576  11.146  1.1721 -0.8561  2.2905
29343SOL     OW95143   0.131   1.488   1.929 -0.0318  0.1150 -0.2303
29343SOL    HW195144   0.159   1.579   1.916 -1.4390  0.5619 -0.3109
29343SOL    HW295145   0.156   1.468   2.019 -0.0946  0.7377 -0.0688
29344SOL     OW95146   3.595   8.253  10.167  0.0396  0.5115  0.4821
29344SOL    HW195147   3.667   8.315  10.168 -0.5774  1.2446  0.9175
29344SOL    HW295148   3.518   8.306  10.190 -0.7915 -0.0514 -0.9269
29345SOL     OW95149  11.368   0.680  10.615  0.3090 -0.6717 -0.2769
29345SOL    HW195150  11.408   0.736  10.547 -1.1502 -0.0825 -0.6942
29345SOL    HW295151  11.430   0.683  10.687  1.3922 -0.4218 -1.1785
29346SOL     OW95152  10.671  12.716   2.318 -0.0453 -0.2804 -0.0470
29346SOL    HW195153  10.742  12.771   2.353  0.9038 -3.3419  3.4352
29346SOL    HW295154  10.595  12.739   2.370 -0.8868  0.8129 -1.6850
29347SOL     OW95155  10.138  11.044   8.783  0.2737  0.0430 -0.2890
29347SOL    HW195156  10.123  11.007   8.696 -0.1387  1.9783 -1.0860
29347SOL    HW295157  10.189  11.124   8.767  0.1043  0.4976  1.2294
29348SOL     OW95158   0.808  10.253   7.866 -0.1677 -0.3508 -0.0838
29348SOL    HW195159   0.791  10.173   7.815 -0.0646 -0.3010 -0.1976
29348SOL    HW295160   0.878  10.229   7.926  1.1919  0.1664 -1.3867
29349SOL     OW95161   7.392  10.809   5.847  0.0689  0.1105  0.3267
29349SOL    HW195162   7.487  10.822   5.854  0.0462  0.1922  0.4993
29349SOL    HW295163   7.360  10.891   5.809  0.2130 -0.4091 -0.9681
29350SOL     OW95164   1.498   6.243   1.908 -0.3730 -0.3666 -0.2702
29350SOL    HW195165   1.428   6.235   1.843 -1.4879  0.5163  0.7800
29350SOL    HW295166   1.499   6.157   1.951 -0.2198 -0.6675 -0.8659
29351SOL     OW95167   2.328   0.947   6.248  0.0297 -0.2749 -0.1580
29351SOL    HW195168   2.278   0.887   6.193 -0.5652 -0.3598  0.4513
29351SOL    HW295169   2.361   1.014   6.188  0.3665 -0.9868 -0.7854
29352SOL     OW95170   8.202   5.429   9.558 -0.1330  0.0527  0.2208
29352SOL    HW195171   8.236   5.469   9.638  0.7592  1.6778 -0.9221
29352SOL    HW295172   8.270   5.367   9.531  0.2451  0.5776 -0.0518
29353SOL     OW95173  11.722  12.331   6.882  0.0244 -0.1438 -0.4387
29353SOL    HW195174  11.692  12.275   6.810 -0.6085  1.2604 -1.3013
29353SOL    HW295175  11.805  12.367   6.851 -0.0525  0.1558 -0.2994
29354SOL     OW95176   8.611   6.814   7.753  0.9817  0.2189  0.4397
29354SOL    HW195177   8.695   6.853   7.774  0.0652  2.1164  0.8135
29354SOL    HW295178   8.627   6.762   7.674  2.2832  1.3853 -0.0919
29355SOL     OW95179  11.058  10.342   2.358 -0.2279 -0.1078  0.2350
29355SOL    HW195180  11.103  10.389   2.428 -1.9707  1.3343  0.4584
29355SOL    HW295181  10.980  10.305   2.399 -0.4325 -0.6501 -0.5969
29356SOL     OW95182  10.960   4.180  12.424  0.3093  0.3173 -0.3604
29356SOL    HW195183  10.988   4.172  12.515  0.1829  1.0578 -0.2521
29356SOL    HW295184  10.884   4.238  12.427 -0.6815 -0.9009 -0.7500
29357SOL     OW95185   8.581   7.832   4.045 -0.0836  0.3922  0.2307
29357SOL    HW195186   8.546   7.909   4.089  0.3739  1.3054 -0.9263
29357SOL    HW295187   8.509   7.800   3.990  0.6571  2.0604 -1.8781
29358SOL     OW95188   5.263   8.524  11.741 -0.2914 -0.6115  0.2267
29358SOL    HW195189   5.332   8.553  11.800 -0.7278  0.9658  0.0055
29358SOL    HW295190   5.288   8.434  11.717  0.6049 -0.7874  1.7018
29359SOL     OW95191  10.640  11.265   0.969 -0.1346  0.1539 -0.8574
29359SOL    HW195192  10.709  11.215   1.013  0.3634  2.0423  0.6442
29359SOL    HW295193  10.686  11.338   0.928 -1.1998  1.5290  0.2949
29360SOL     OW95194  11.037   7.996  11.276 -0.6035  0.1658  0.0403
29360SOL    HW195195  10.993   7.979  11.359  1.5476 -1.4550  0.9497
29360SOL    HW295196  11.125   8.025  11.301  0.5749 -1.7147 -1.5909
29361SOL     OW95197   9.806   6.668   9.574 -0.3021 -0.0705  0.2498
29361SOL    HW195198   9.804   6.737   9.508  3.1868  0.9998  1.0289
29361SOL    HW295199   9.715   6.642   9.585 -1.3592  1.9445 -2.6019
29362SOL     OW95200   6.930  10.381   0.538  0.1875 -0.0502 -0.3139
29362SOL    HW195201   6.841  10.409   0.515  0.2849  0.4274 -0.1223
29362SOL    HW295202   6.973  10.367   0.454  1.1346  3.5119 -0.5574
29363SOL     OW95203   8.101   0.462   5.153 -0.5637  1.0831  0.0760
29363SOL    HW195204   8.059   0.493   5.234  1.1596  1.7505  0.7575
29363SOL    HW295205   8.122   0.370   5.171 -1.6421  0.7525 -0.2582
29364SOL     OW95206   8.207  11.225  12.431  0.6020  0.2906 -0.6934
29364SOL    HW195207   8.182  11.255  12.519  0.1934  0.4488 -0.8594
29364SOL    HW295208   8.139  11.262  12.374  0.9335  0.2861 -1.0890
29365SOL     OW95209   6.970   1.012  11.639 -0.9908  0.1994 -0.3170
29365SOL    HW195210   7.027   1.073  11.685  0.0556 -3.0995  3.3841
29365SOL    HW295211   6.884   1.025  11.680 -0.9280 -0.2716 -0.0261
29366SOL     OW95212  10.961   9.529   4.697  0.4898  0.2538 -0.5311
29366SOL    HW195213  10.987   9.473   4.770 -0.4158 -1.0066 -1.1417
29366SOL    HW295214  10.929   9.609   4.739  1.8409  0.3506  0.3553
29367SOL     OW95215  10.121   5.275   4.275  0.3256 -0.4986 -0.1544
29367SOL    HW195216  10.199   5.234   4.238 -0.8832 -1.4836 -1.7770
29367SOL    HW295217  10.093   5.214   4.343  1.2917  0.1786  0.8835
29368SOL     OW95218   1.626  12.538  12.869 -0.0728  0.0048 -0.4960
29368SOL    HW195219   1.587  12.501  12.948  1.1425  0.9929  0.6057
29368SOL    HW295220   1.572  12.504  12.797 -1.3784 -0.6837  0.7684
29369SOL     OW95221   9.500   3.685   2.403  0.1187  0.4941  0.2464
29369SOL    HW195222   9.541   3.609   2.361 -0.1197  0.2509  0.4464
29369SOL    HW295223   9.555   3.700   2.481  0.1266  0.4855  0.2428
29370SOL     OW95224   8.567   8.746  10.397 -0.0570  0.0468  0.4070
29370SOL    HW195225   8.564   8.651  10.388 -0.4592  0.0490  0.5234
29370SOL    HW295226   8.488   8.768  10.446  1.0163  0.2456  2.1134
29371SOL     OW95227   8.476   4.373   9.226  0.3268 -0.1399 -0.1702
29371SOL    HW195228   8.505   4.386   9.316  1.1624  1.2236 -0.6123
29371SOL    HW295229   8.526   4.297   9.196  3.2676  1.8529 -0.7595
29372SOL     OW95230   8.085   5.829   2.118  0.3934 -0.3746 -0.2608
29372SOL    HW195231   8.125   5.819   2.032 -0.0218 -0.2771 -0.4665
29372SOL    HW295232   8.159   5.831   2.179  0.8473  1.7453 -0.8052
29373SOL     OW95233   8.614   0.974  12.561  0.0388  0.1698 -0.7526
29373SOL    HW195234   8.648   0.905  12.618 -0.6653 -0.1976 -0.7799
29373SOL    HW295235   8.548   0.932  12.507 -0.7612  0.9641 -0.4233
29374SOL     OW95236   0.140  12.716   2.600  0.3140 -0.3421  0.1611
29374SOL    HW195237   0.098  12.635   2.628 -0.4611  0.3221  0.9754
29374SOL    HW295238   0.090  12.785   2.643  0.1550  0.6483 -1.5506
29375SOL     OW95239   3.146   1.426   7.091 -0.1392 -0.1499 -0.1296
29375SOL    HW195240   3.111   1.469   7.170 -1.0674  1.8789 -1.5633
29375SOL    HW295241   3.224   1.380   7.122 -0.3711  0.7246  1.9377
29376SOL     OW95242  11.804   6.913   5.328 -0.2305 -0.2991 -0.2655
29376SOL    HW195243  11.762   6.842   5.379 -1.5243  0.0839 -0.7617
29376SOL    HW295244  11.834   6.975   5.395  0.9675 -1.3229  0.1806
29377SOL     OW95245   4.077   5.416   5.837  0.1954  0.4523 -0.1695
29377SOL    HW195246   3.990   5.449   5.815  0.5950  1.5781 -0.1481
29377SOL    HW295247   4.126   5.423   5.755  0.2745 -0.1555 -0.1757
29378SOL     OW95248   2.498  10.318  10.117  0.2804  0.1172 -0.2602
29378SOL    HW195249   2.592  10.313  10.100  0.0222  0.1904 -1.8935
29378SOL    HW295250   2.491  10.365  10.200  1.6558  1.0737 -0.6533
29379SOL     OW95251   7.908   7.551   8.495  0.2323  0.2139 -0.5365
29379SOL    HW195252   7.977   7.530   8.557  0.8015  0.8037 -0.9568
29379SOL    HW295253   7.881   7.467   8.459  0.9182 -0.0040 -0.5560
29380SOL     OW95254   6.919   9.328   8.827  0.0453 -0.0083  0.2556
29380SOL    HW195255   7.011   9.332   8.801 -0.2888 -2.0960 -1.4652
29380SOL    HW295256   6.918   9.271   8.904  0.3213  1.1938  1.1753
29381SOL     OW95257   2.329  11.564  11.463  0.3733 -0.0055 -0.5704
29381SOL    HW195258   2.279  11.485  11.440 -0.4351 -0.1617  1.4882
29381SOL    HW295259   2.339  11.611  11.380 -3.0740 -0.0505 -1.1738
29382SOL     OW95260  10.389   9.133   5.387  0.0539  0.3323  0.2356
29382SOL    HW195261  10.482   9.110   5.378 -0.1855 -0.0566 -1.7604
29382SOL    HW295262  10.379   9.213   5.335 -0.3006  1.7661  2.3890
29383SOL     OW95263   7.678   9.929   6.146  0.1266  0.0230 -0.0195
29383SOL    HW195264   7.611   9.869   6.179  1.3096 -0.5677  1.4592
29383SOL    HW295265   7.641  10.016   6.157 -1.0988 -0.3454 -0.9670
29384SOL     OW95266   9.681   1.043   4.325 -0.4949 -0.2844 -0.0455
29384SOL    HW195267   9.618   1.035   4.396  0.4465 -1.7405  0.6693
29384SOL    HW295268   9.734   0.964   4.330  1.1743  0.7196 -0.8289
29385SOL     OW95269   8.424   2.398   4.473 -0.3094  0.2708  0.2297
29385SOL    HW195270   8.448   2.476   4.523 -1.4373  0.1019  1.0738
29385SOL    HW295271   8.386   2.432   4.392  1.4837  0.5472 -0.5462
29386SOL     OW95272   6.339  12.494   9.634  0.1529 -0.2588 -0.6086
29386SOL    HW195273   6.362  12.547   9.711 -1.1037 -1.0913  0.3693
29386SOL    HW295274   6.420  12.492   9.582  1.5133 -0.9245  1.4189
29387SOL     OW95275   9.516   2.759   0.487 -0.0928 -0.1435  0.3477
29387SOL    HW195276   9.520   2.852   0.462  2.0122 -0.3011 -0.0663
29387SOL    HW295277   9.526   2.712   0.404 -1.1153 -0.7508  0.5642
29388SOL     OW95278  11.696   8.731   2.318 -0.2033  0.4839 -0.0674
29388SOL    HW195279  11.692   8.819   2.355  1.0373  0.4998  0.0889
29388SOL    HW295280  11.743   8.680   2.384 -1.3044 -0.4111  0.0387
29389SOL     OW95281   2.285   4.019   9.201 -0.5162 -0.0347  0.5129
29389SOL    HW195282   2.225   4.016   9.126 -0.9909 -1.3009  0.9063
29389SOL    HW295283   2.372   4.008   9.162 -0.6911  0.0751  0.0799
29390SOL     OW95284   1.334   2.204   5.486 -0.4007 -0.0395  0.0958
29390SOL    HW195285   1.382   2.133   5.444 -0.7022 -0.7651  0.9386
29390SOL    HW295286   1.249   2.166   5.507 -0.0749  0.1243  1.8358
29391SOL     OW95287   0.002  11.121   2.770  0.4918 -0.1002  0.0381
29391SOL    HW195288  -0.079  11.075   2.748 -1.0471  1.8891  1.2136
29391SOL    HW295289   0.038  11.071   2.844  0.2454 -0.8586 -0.3372
29392SOL     OW95290   3.879  10.561   6.938 -0.1673 -0.2793 -0.7761
29392SOL    HW195291   3.816  10.631   6.956 -0.2550 -0.6162  0.2731
29392SOL    HW295292   3.861  10.494   7.004  2.3571  0.3271  0.6619
29393SOL     OW95293   1.300  10.955   2.804  0.1102 -0.2600  0.2084
29393SOL    HW195294   1.306  11.017   2.877 -0.1002 -2.0437  1.8420
29393SOL    HW295295   1.388  10.952   2.768  0.6449 -0.5375  1.4728
29394SOL     OW95296   7.297   8.275   2.468  0.1982  0.6798  0.2239
29394SOL    HW195297   7.267   8.326   2.543  1.7382  0.5286  0.9968
29394SOL    HW295298   7.364   8.217   2.504  2.5856  2.1227 -1.5958
29395SOL     OW95299   6.820  11.290   3.758  0.8123 -0.0120  0.1843
29395SOL    HW195300   6.724  11.287   3.754  0.8570 -1.8668 -1.6063
29395SOL    HW295301   6.847  11.202   3.730  3.0780  1.4155 -2.5497
29396SOL     OW95302   4.587   2.750  10.506  0.0795  0.5207 -0.2128
29396SOL    HW195303   4.540   2.721  10.428  1.2407 -1.2884 -0.2920
29396SOL    HW295304   4.661   2.801  10.472  0.4646 -0.0878 -0.3031
29397SOL     OW95305   8.829   4.295   9.174  0.0961 -0.2923 -0.1331
29397SOL    HW195306   8.765   4.256   9.233  1.2096 -0.6649  0.8759
29397SOL    HW295307   8.819   4.247   9.092 -0.4651 -0.7953  0.2258
29398SOL     OW95308   3.017   0.960   9.043 -0.1656 -0.2039  0.0986
29398SOL    HW195309   2.991   0.892   8.981 -0.1987  0.7738 -0.9979
29398SOL    HW295310   2.949   1.027   9.034 -0.6531 -0.4148  1.8436
29399SOL     OW95311   1.116   3.799   1.643 -0.0488  0.0424  0.0788
29399SOL    HW195312   1.163   3.784   1.561 -0.9954  2.8541 -1.1106
29399SOL    HW295313   1.025   3.813   1.616 -0.6692 -0.3706  1.8070
29400SOL     OW95314  11.820  10.623  11.177  0.2453  0.0597  0.1816
29400SOL    HW195315  11.763  10.581  11.113  0.2649 -0.2414  0.3605
29400SOL    HW295316  11.908  10.593  11.156  0.7180  2.4064 -1.6358
29401SOL     OW95317  10.565  11.617  12.791 -0.0742  0.0693  0.2915
29401SOL    HW195318  10.552  11.692  12.850  2.1209  2.2239 -1.6738
29401SOL    HW295319  10.477  11.592  12.763 -0.8930  3.1882 -0.3412
29402SOL     OW95320   7.983   4.883   9.337 -0.1427  0.5626 -0.4700
29402SOL    HW195321   8.047   4.837   9.392  0.2745 -0.9478 -2.1182
29402SOL    HW295322   8.019   4.876   9.249 -2.2957  0.1964 -1.3743
29403SOL     OW95323  10.175   1.204  11.743 -0.6974 -0.1416  0.3329
29403SOL    HW195324  10.111   1.244  11.802 -0.0114 -0.0962  1.0595
29403SOL    HW295325  10.259   1.240  11.770 -0.3002 -0.5603 -0.3053
29404SOL     OW95326   3.830  10.644   2.407  0.5253 -0.2260 -0.2468
29404SOL    HW195327   3.817  10.723   2.459 -0.8656  0.3474 -1.4121
29404SOL    HW295328   3.878  10.585   2.465 -0.5991  0.5326  1.5337
29405SOL     OW95329   4.201   6.344   2.186 -0.2058 -0.4190  0.1481
29405SOL    HW195330   4.174   6.272   2.129  0.3941  0.8705 -1.8992
29405SOL    HW295331   4.262   6.304   2.248 -1.3083 -1.9922  0.2722
29406SOL     OW95332   0.796   2.108  11.976 -0.4776 -0.2285 -0.9049
29406SOL    HW195333   0.708   2.071  11.975  0.3325 -2.2912 -2.5810
29406SOL    HW295334   0.827   2.095  12.066 -1.9461  0.8705 -0.1831
29407SOL     OW95335   9.020  11.321   1.603 -0.2994 -0.4981 -0.1521
29407SOL    HW195336   9.073  11.241   1.601 -1.9379 -1.6394 -0.1921
29407SOL    HW295337   8.952  11.306   1.538 -2.2255 -0.2666  1.6885
29408SOL     OW95338   1.957   8.940   3.679 -0.2156 -0.1050  0.0099
29408SOL    HW195339   1.940   8.929   3.585  0.4205 -1.5482  0.0322
29408SOL    HW295340   1.913   8.865   3.720  1.3292 -0.7222  0.6222
29409SOL     OW95341   5.036  12.301  12.303  0.2323  0.2086  0.1968
29409SOL    HW195342   4.953  12.261  12.331 -0.1775  1.8540  1.5067
29409SOL    HW295343   5.010  12.369  12.242  0.9698 -1.7743 -2.5047
29410SOL     OW95344   4.090   6.012   1.747  0.4462 -0.3158 -0.4344
29410SOL    HW195345   4.089   6.015   1.842 -0.8197  1.4294 -0.4586
29410SOL    HW295346   4.182   6.022   1.723  0.8862 -1.6968  0.5945
29411SOL     OW95347   5.259  11.697   4.568 -0.0747 -0.3275  0.0554
29411SOL    HW195348   5.317  11.764   4.604 -0.0248 -0.0102 -0.5924
29411SOL    HW295349   5.172  11.721   4.601 -0.3422  1.0695 -1.4899
29412SOL     OW95350   7.868   1.208   2.646 -0.3027  0.6369 -0.4412
29412SOL    HW195351   7.915   1.199   2.729  2.1900 -0.6953 -1.8721
29412SOL    HW295352   7.928   1.258   2.591 -1.0709 -0.1384 -2.0227
29413SOL     OW95353  11.484   9.887   4.007 -0.1545 -0.1351  0.1933
29413SOL    HW195354  11.562   9.938   3.987  0.4086 -1.0580 -0.0229
29413SOL    HW295355  11.431   9.891   3.928  0.0555 -0.1709  0.0496
29414SOL     OW95356   4.475   0.410   2.601 -0.1811  0.6664  0.1721
29414SOL    HW195357   4.523   0.457   2.532 -0.3849 -0.0725 -0.4919
29414SOL    HW295358   4.398   0.374   2.556 -0.2048 -0.0053  0.7395
29415SOL     OW95359   1.852   4.187  12.937 -0.7553  0.6319 -0.1679
29415SOL    HW195360   1.857   4.239  12.857 -2.4373 -0.4102 -1.0216
29415SOL    HW295361   1.850   4.096  12.907  2.4136 -0.0625  1.2879
29416SOL     OW95362   2.816   0.008   2.183  0.6277  0.1572  0.8481
29416SOL    HW195363   2.729   0.014   2.143  1.4201 -1.3892 -1.2861
29416SOL    HW295364   2.827   0.092   2.229 -1.5035  0.8498  0.2137
29417SOL     OW95365   4.998   8.224  11.051  0.0758  0.5811 -0.5387
29417SOL    HW195366   5.077   8.277  11.061  0.6211 -0.3326  0.1512
29417SOL    HW295367   4.960   8.220  11.139  0.7888 -1.2566 -0.2499
29418SOL     OW95368   0.836  11.166   8.320 -0.1832 -0.6086  0.1390
29418SOL    HW195369   0.890  11.158   8.399  0.5098  0.4856 -0.1913
29418SOL    HW295370   0.899  11.167   8.248 -0.5010  1.5907 -0.2017
29419SOL     OW95371   2.235   6.538  10.920  0.1510  0.1530 -0.0520
29419SOL    HW195372   2.265   6.540  10.829 -1.9836  0.0334 -0.8175
29419SOL    HW295373   2.154   6.589  10.919  0.5282  0.8794  1.9895
29420SOL     OW95374   0.245  12.815   6.955  0.3320  0.3521 -0.3217
29420SOL    HW195375   0.238  12.846   6.865  0.4457 -0.6885 -0.7013
29420SOL    HW295376   0.259  12.895   7.007 -4.2348  1.6048 -0.6273
29421SOL     OW95377   6.053   8.294  12.681 -0.8484  0.4970  0.2037
29421SOL    HW195378   6.075   8.228  12.747  0.3997  1.8040  1.1583
29421SOL    HW295379   6.133   8.308  12.632 -1.3859  0.5675 -0.6748
29422SOL     OW95380   9.235   6.833   5.213  0.3032 -0.1417  0.2667
29422SOL    HW195381   9.222   6.747   5.174 -2.0761  1.5267 -3.2048
29422SOL    HW295382   9.288   6.880   5.148  0.8647  1.2459  1.6861
29423SOL     OW95383  10.846   7.849   4.059 -0.0541  0.2148  0.0216
29423SOL    HW195384  10.782   7.906   4.102  1.2016  3.0050 -1.5450
29423SOL    HW295385  10.825   7.855   3.966  1.2461 -0.4304 -0.3388
29424SOL     OW95386   7.652   6.760   6.634 -0.4610  0.4495 -0.2536
29424SOL    HW195387   7.709   6.797   6.703 -0.1710 -0.7301  0.1582
29424SOL    HW295388   7.603   6.691   6.678 -0.2150 -0.3788 -1.2474
29425SOL     OW95389   1.966  12.753   6.025  0.1802 -0.3001  0.1214
29425SOL    HW195390   2.011  12.668   6.029 -0.9820 -0.9644 -0.3918
29425SOL    HW295391   1.878  12.735   6.060 -0.5163  0.3747 -1.2145
29426SOL     OW95392   4.864  10.608   4.796 -0.2464 -0.0457  0.2345
29426SOL    HW195393   4.853  10.573   4.884 -0.6326 -1.5708 -0.3797
29426SOL    HW295394   4.929  10.677   4.806 -0.9065  0.3965  1.8411
29427SOL     OW95395  11.175   0.335   7.809 -0.0258  0.7881 -0.2313
29427SOL    HW195396  11.193   0.427   7.791  1.3339  0.9074  1.5064
29427SOL    HW295397  11.151   0.332   7.901 -1.1939 -0.4826 -0.5374
29428SOL     OW95398  10.732   2.095   2.000 -0.2100 -0.1887 -0.0980
29428SOL    HW195399  10.752   2.153   1.926 -0.0438 -0.6097 -0.3835
29428SOL    HW295400  10.642   2.117   2.024  0.4011  1.4369  0.9368
29429SOL     OW95401  10.816   1.632   3.771  0.0119 -0.5233  0.1487
29429SOL    HW195402  10.791   1.574   3.699 -0.9803 -0.7425  0.6485
29429SOL    HW295403  10.735   1.675   3.797  0.5003  0.1280  0.6309
29430SOL     OW95404   8.582   3.102  11.893 -0.1153  0.3426  0.2300
29430SOL    HW195405   8.633   3.164  11.945  0.9196 -0.1528 -0.1819
29430SOL    HW295406   8.624   3.102  11.807 -0.5060 -0.4425  0.0322
29431SOL     OW95407   9.841   9.731  10.104  0.5510  0.3648  0.1353
29431SOL    HW195408   9.759   9.696  10.140  0.0847  1.2366 -0.0305
29431SOL    HW295409   9.813   9.785  10.030  1.3345  0.2170 -0.2802
29432SOL     OW95410   6.047   8.391   3.400 -0.0439  0.0509 -0.4986
29432SOL    HW195411   6.053   8.394   3.496  0.6989  0.3797 -0.5450
29432SOL    HW295412   5.995   8.468   3.378  0.6202  0.5377 -0.4074
29433SOL     OW95413  12.789   9.501   7.590 -0.2578  0.2684  0.1178
29433SOL    HW195414  12.783   9.580   7.537 -0.0776  0.2461  0.0625
29433SOL    HW295415  12.825   9.531   7.674  0.0978  0.2006 -0.0070
29434SOL     OW95416  12.190   6.171   1.640  0.4532  0.7690  0.1065
29434SOL    HW195417  12.170   6.092   1.590  1.5615  0.6516 -0.1986
29434SOL    HW295418  12.170   6.149   1.731 -0.2509  0.5069 -0.1081
29435SOL     OW95419   8.113   9.036   5.384 -0.4151  0.4942  0.0647
29435SOL    HW195420   8.186   8.976   5.401 -0.0799  1.2176  1.2638
29435SOL    HW295421   8.068   8.997   5.309 -0.7842 -1.8193  1.3666
29436SOL     OW95422   4.485   3.448   9.359  0.0537  0.6695 -0.1697
29436SOL    HW195423   4.512   3.505   9.287  0.0431  1.2934  0.3149
29436SOL    HW295424   4.400   3.414   9.332  0.7396 -0.3450 -1.1511
29437SOL     OW95425  10.422   1.830   3.206 -0.7161 -0.1064 -0.5943
29437SOL    HW195426  10.431   1.765   3.137  1.1185  0.7352 -1.2037
29437SOL    HW295427  10.485   1.802   3.273 -0.8796  0.3047 -0.2665
29438SOL     OW95428   5.714   1.802   4.964 -0.1090  0.2776 -0.3126
29438SOL    HW195429   5.788   1.834   5.015 -1.3390 -1.6510  2.9321
29438SOL    HW295430   5.744   1.718   4.928  0.3778  1.1278 -2.0260
29439SOL     OW95431  11.224   0.648   4.295  0.0686  0.0486 -0.0322
29439SOL    HW195432  11.295   0.687   4.346  0.9640 -0.2385 -1.0144
29439SOL    HW295433  11.265   0.621   4.213 -0.5674 -2.5570  0.3975
29440SOL     OW95434   2.744   7.265   4.851  0.3009 -0.0071 -0.1154
29440SOL    HW195435   2.803   7.339   4.861  0.5403 -0.2120  0.0233
29440SOL    HW295436   2.757   7.236   4.761  0.5591 -0.1724 -0.0264
29441SOL     OW95437  12.367   9.089   4.377  0.0850 -0.0187 -0.0979
29441SOL    HW195438  12.328   9.002   4.387 -3.9970  1.6609  0.6326
29441SOL    HW295439  12.345   9.115   4.288 -0.0587  0.8333  0.1815
29442SOL     OW95440   2.668   3.368   6.536  0.1591 -0.0979 -0.5212
29442SOL    HW195441   2.716   3.362   6.453 -3.4370 -0.7543 -2.7870
29442SOL    HW295442   2.632   3.281   6.549  1.8621 -0.4523  2.7169
29443SOL     OW95443   0.741   6.498  11.986  0.1469  0.1160  0.3940
29443SOL    HW195444   0.738   6.594  11.993 -0.5727  0.3248 -1.8863
29443SOL    HW295445   0.703   6.467  12.068  0.2360  1.7871  1.1128
29444SOL     OW95446  10.931  12.357   2.380  0.0917  0.5099 -0.2406
29444SOL    HW195447  10.839  12.376   2.395 -0.4064 -1.1697 -0.9467
29444SOL    HW295448  10.978  12.427   2.426 -1.5228  1.7921 -0.4436
29445SOL     OW95449   6.980   3.867   3.828  0.6501 -0.2591  0.1800
29445SOL    HW195450   7.066   3.879   3.867  0.4151  1.1124  0.3028
29445SOL    HW295451   6.922   3.848   3.901  0.8822 -1.4801  0.0668
29446SOL     OW95452   0.868   3.412   6.902 -0.5064 -0.2988 -0.0794
29446SOL    HW195453   0.847   3.484   6.842  1.1022 -1.0873 -1.6824
29446SOL    HW295454   0.826   3.335   6.863 -0.2305 -0.6529  0.3149
29447SOL     OW95455   2.197  12.724   0.576  0.3586  0.1386  0.1441
29447SOL    HW195456   2.189  12.769   0.660 -1.5654  2.1188 -1.0046
29447SOL    HW295457   2.183  12.793   0.511  2.2870 -1.2263 -1.8625
29448SOL     OW95458   3.897  10.094  12.341  0.0940 -0.0943  0.3513
29448SOL    HW195459   3.967  10.098  12.276 -0.6547 -2.9889 -0.7932
29448SOL    HW295460   3.819  10.122  12.294 -0.2558 -1.1337  0.2797
29449SOL     OW95461   4.057   8.895  12.760 -0.1647 -0.1087  0.0232
29449SOL    HW195462   4.091   8.929  12.843  2.4724  0.2402 -1.1129
29449SOL    HW295463   4.125   8.915  12.696 -1.6559 -1.3073 -2.0508
29450SOL     OW95464   3.434   8.222   1.870  0.1331 -0.3283 -0.1282
29450SOL    HW195465   3.355   8.220   1.816 -0.0179 -0.4877  0.1016
29450SOL    HW295466   3.441   8.313   1.898  1.1400  0.1595 -1.7942
29451SOL     OW95467   6.213  11.081   3.436  0.0274  0.9138  0.1022
29451SOL    HW195468   6.168  11.166   3.436 -4.1295 -1.0104 -1.0629
29451SOL    HW295469   6.176  11.035   3.512  0.3253 -0.6687 -0.6750
29452SOL     OW95470   1.090  12.505  11.203  0.8979  0.7979  0.0762
29452SOL    HW195471   1.050  12.582  11.161 -0.3034 -0.1939 -0.6486
29452SOL    HW295472   1.044  12.430  11.166  1.8491 -0.2827  0.9888
29453SOL     OW95473   4.493   9.010   0.183  0.3810 -0.1757 -0.1210
29453SOL    HW195474   4.521   9.053   0.103  0.4687  0.4018  0.2134
29453SOL    HW295475   4.540   8.927   0.184 -0.3718 -0.6291 -1.1477
29454SOL     OW95476   7.740   8.204   4.107 -0.1438 -0.3875  0.2863
29454SOL    HW195477   7.652   8.241   4.117 -0.4634 -0.3036 -2.1719
29454SOL    HW295478   7.765   8.177   4.195 -2.5586 -0.2536  1.0845
29455SOL     OW95479   4.558  12.358  12.211  0.6115 -0.3538  0.8689
29455SOL    HW195480   4.565  12.435  12.155  1.6232 -0.1472  1.2542
29455SOL    HW295481   4.609  12.290  12.166 -3.2400 -2.0677 -1.4106
29456SOL     OW95482   7.159  10.196   3.292  0.3180 -0.0355 -0.0193
29456SOL    HW195483   7.237  10.144   3.312  0.4357 -0.4006 -1.3591
29456SOL    HW295484   7.191  10.265   3.233 -0.6959 -1.4686 -2.3894
29457SOL     OW95485  11.448   0.820  11.058  0.1107  0.3046  0.6193
29457SOL    HW195486  11.422   0.791  11.146 -0.4650 -2.2480 -0.2992
29457SOL    HW295487  11.397   0.899  11.043 -0.9925 -0.1038  1.9924
29458SOL     OW95488   4.377   1.891  11.318 -0.0916  0.4418 -0.6083
29458SOL    HW195489   4.371   1.962  11.382 -0.8469  0.4859 -0.7235
29458SOL    HW295490   4.396   1.934  11.235  1.2904  0.3531 -0.3577
29459SOL     OW95491   8.736  12.193   7.252  0.1556  0.0201 -0.0942
29459SOL    HW195492   8.721  12.170   7.160 -1.0956 -0.0540  0.1155
29459SOL    HW295493   8.649  12.199   7.290  0.6929 -1.6309  1.5178
29460SOL     OW95494   4.603   9.758   5.618  0.1698  0.4603 -0.2569
29460SOL    HW195495   4.647   9.837   5.650  0.7847 -0.0640  0.2116
29460SOL    HW295496   4.592   9.704   5.696 -1.4279  0.6248 -0.3408
29461SOL     OW95497  11.616   0.584  10.046 -0.1440  0.2186  0.1228
29461SOL    HW195498  11.704   0.617  10.029 -0.1675  0.2681  0.1017
29461SOL    HW295499  11.625   0.533  10.127 -0.1365  0.3837  0.2263
29462SOL     OW95500   1.016  12.831  12.752  0.4415  0.8308 -0.0334
29462SOL    HW195501   1.070  12.866  12.823 -0.6644 -1.9288  2.3667
29462SOL    HW295502   0.931  12.874  12.765  0.3114  0.5144  0.1796
29463SOL     OW95503   9.320   3.991  10.762 -0.6344  0.4786  0.1308
29463SOL    HW195504   9.390   3.925  10.759 -1.2356 -0.1877  0.5226
29463SOL    HW295505   9.366   4.074  10.778 -0.0564 -0.1738  2.1758
29464SOL     OW95506   7.026  12.099   9.440 -0.2604 -0.4713  0.3353
29464SOL    HW195507   6.955  12.159   9.420 -0.7010 -1.5740 -1.7237
29464SOL    HW295508   7.095  12.121   9.376 -0.9797 -2.9309 -1.4707
29465SOL     OW95509   7.283   3.955  11.195 -0.5252  0.0731  0.3005
29465SOL    HW195510   7.217   3.948  11.127  1.4074  0.6140 -1.7764
29465SOL    HW295511   7.322   3.868  11.200 -1.6948 -0.3965  1.9145
29466SOL     OW95512  12.624   7.470   3.759  0.0190 -0.0046  0.4724
29466SOL    HW195513  12.651   7.410   3.690 -2.2604  1.3414 -1.7825
29466SOL    HW295514  12.548   7.428   3.800 -2.1400  1.4751 -1.6916
29467SOL     OW95515  12.673   6.308   5.035 -0.1067 -0.2946 -0.2009
29467SOL    HW195516  12.762   6.319   5.067 -0.1781  0.6429 -0.3122
29467SOL    HW295517  12.617   6.336   5.108 -0.2927  0.0985 -0.4906
29468SOL     OW95518  12.958   8.271   7.213  0.0369 -0.4669 -0.6499
29468SOL    HW195519  12.922   8.348   7.258 -1.4732 -0.9247 -0.9938
29468SOL    HW295520  13.046   8.296   7.188 -0.6784  1.4458 -1.4271
29469SOL     OW95521   8.693   7.301   1.205  0.2398 -0.4312 -0.6211
29469SOL    HW195522   8.698   7.336   1.294 -0.0738 -1.6522 -0.1015
29469SOL    HW295523   8.752   7.225   1.206  0.0767 -0.5742 -1.3921
29470SOL     OW95524   0.731  11.921   7.504 -0.1993  0.2238  0.0909
29470SOL    HW195525   0.641  11.940   7.476 -0.7662 -0.3387  1.4368
29470SOL    HW295526   0.722  11.847   7.565  1.1320  0.4040  0.5385
29471SOL     OW95527   4.759   9.107   3.431 -0.1692 -0.0962  0.0349
29471SOL    HW195528   4.739   9.067   3.516 -1.0241  0.8122  0.2757
29471SOL    HW295529   4.803   9.190   3.454 -0.9113  0.4232 -0.3867
29472SOL     OW95530  11.136  12.124   8.689 -0.0215 -0.7816  0.1858
29472SOL    HW195531  11.143  12.038   8.732  0.9943  0.4991  2.7993
29472SOL    HW295532  11.045  12.149   8.700 -0.7529 -2.1646 -2.0875
29473SOL     OW95533   2.097  10.743  11.303 -0.5306  0.3654 -0.3363
29473SOL    HW195534   2.040  10.756  11.227 -0.6085  0.3889 -0.2751
29473SOL    HW295535   2.134  10.830  11.320  0.2258  0.1613 -0.9248
29474SOL     OW95536  11.859   8.425   9.779  0.2626  0.2554  0.1083
29474SOL    HW195537  11.769   8.439   9.807 -0.1493 -1.0141 -0.4972
29474SOL    HW295538  11.912   8.455   9.853 -0.5586  2.5427 -0.1517
29475SOL     OW95539   8.381   7.391   6.437 -0.0234 -0.0758  0.8946
29475SOL    HW195540   8.337   7.367   6.518 -2.5151 -0.2775 -0.4137
29475SOL    HW295541   8.374   7.487   6.434 -0.0848 -0.0813  0.8511
29476SOL     OW95542   1.616   1.314  11.723  0.0946  0.3381  0.1595
29476SOL    HW195543   1.576   1.253  11.785 -0.8761  1.2953  0.4913
29476SOL    HW295544   1.593   1.401  11.755 -0.9413  0.8729 -1.8665
29477SOL     OW95545   2.808   5.099   5.745 -0.1889 -0.0280  0.2254
29477SOL    HW195546   2.727   5.061   5.713 -0.4943 -0.1502  1.0987
29477SOL    HW295547   2.796   5.104   5.840  1.1723 -0.8793  0.4808
29478SOL     OW95548   5.103  11.155   3.590  0.7003  0.0846  0.0197
29478SOL    HW195549   5.141  11.156   3.678  0.7330  0.0191  0.0060
29478SOL    HW295550   5.175  11.184   3.533  0.3804  1.1343  0.1355
29479SOL     OW95551   3.622  12.626   1.946 -0.1952 -0.0386 -0.0460
29479SOL    HW195552   3.542  12.584   1.977  0.4117 -1.1575  0.0336
29479SOL    HW295553   3.660  12.562   1.885  2.3131 -0.9784  2.3384
29480SOL     OW95554  11.537   3.451   6.425  0.2722  0.0433 -0.2391
29480SOL    HW195555  11.508   3.468   6.335 -0.2762  0.7312  0.0562
29480SOL    HW295556  11.595   3.375   6.418  2.0106  1.3937 -1.5076
29481SOL     OW95557   4.659   8.906   5.878 -0.4733 -0.9574  0.0407
29481SOL    HW195558   4.753   8.905   5.900 -0.3015 -2.0207 -0.6889
29481SOL    HW295559   4.656   8.940   5.789 -0.9051  0.2534  0.4916
29482SOL     OW95560   5.626   7.119   4.654 -0.5421  0.2187 -0.2631
29482SOL    HW195561   5.702   7.177   4.653 -1.3282  1.2961 -0.2699
29482SOL    HW295562   5.595   7.118   4.564  0.0773 -1.0918 -0.4827
29483SOL     OW95563   7.119   5.093  10.670  0.0719 -1.0413  0.5610
29483SOL    HW195564   7.194   5.039  10.643  1.1213  0.2522  0.8071
29483SOL    HW295565   7.112   5.160  10.602 -0.8852 -1.1429  0.5438
29484SOL     OW95566  12.751  12.392   6.987 -0.7252 -0.1406 -0.0904
29484SOL    HW195567  12.721  12.470   6.940 -2.7552  0.4364  1.9942
29484SOL    HW295568  12.709  12.398   7.073  0.6130 -2.5657  0.8240
29485SOL     OW95569   9.496  12.283   3.266 -0.1057  0.5406  0.0311
29485SOL    HW195570   9.539  12.202   3.239 -4.1595 -1.5553 -0.8835
29485SOL    HW295571   9.532  12.350   3.207 -0.0957 -1.5834 -2.5741
29486SOL     OW95572   4.507   2.639   4.052  0.0886 -0.4876 -0.3718
29486SOL    HW195573   4.447   2.710   4.076 -2.7028 -3.0879  1.0012
29486SOL    HW295574   4.576   2.643   4.118  0.3791  1.3083 -0.7295
29487SOL     OW95575   2.307  11.480  12.790  0.1145  0.5496  0.1322
29487SOL    HW195576   2.241  11.442  12.732 -0.4682  2.4031 -0.5016
29487SOL    HW295577   2.284  11.447  12.877  0.1674 -1.1700 -0.4752
29488SOL     OW95578   5.293   6.179   3.177  0.3383 -0.0164  0.1084
29488SOL    HW195579   5.375   6.216   3.143 -0.9357  3.0578 -0.0125
29488SOL    HW295580   5.296   6.087   3.153  2.9473  0.3733 -1.4831
29489SOL     OW95581  11.907   4.006  10.764 -0.1994  0.3730  0.3017
29489SOL    HW195582  11.846   3.941  10.798 -1.8627  1.1951 -0.9415
29489SOL    HW295583  11.869   4.090  10.789 -0.2486  0.9383 -1.4777
29490SOL     OW95584  12.923   2.737   3.197  0.0115  0.0742 -0.2192
29490SOL    HW195585  12.971   2.745   3.279 -0.0839  0.6599 -0.2157
29490SOL    HW295586  12.839   2.780   3.214  0.3880  1.1494 -0.9238
29491SOL     OW95587   7.307   7.043   9.338 -0.1382  0.3017 -0.4905
29491SOL    HW195588   7.248   7.114   9.313  0.8189  0.7044 -1.6721
29491SOL    HW295589   7.348   7.073   9.419  0.3986  1.1893 -1.0819
29492SOL     OW95590   0.099   7.871  12.353  0.5182  0.1305 -0.6079
29492SOL    HW195591   0.018   7.866  12.404  1.4765  1.1081  1.0816
29492SOL    HW295592   0.073   7.915  12.272 -0.9844 -1.2139 -0.9031
29493SOL     OW95593   7.196  11.147   7.287 -0.1057  0.4442  0.0412
29493SOL    HW195594   7.188  11.083   7.216  0.1714 -0.1262  0.5155
29493SOL    HW295595   7.229  11.226   7.245  0.9529 -0.1717 -0.3292
29494SOL     OW95596   2.439  12.555   5.073  0.4109 -0.5807 -0.4401
29494SOL    HW195597   2.354  12.557   5.028  0.5292 -1.3955 -0.7193
29494SOL    HW295598   2.433  12.480   5.132  0.5625 -0.0108  0.3072
29495SOL     OW95599   3.158   2.914   8.995 -0.2543 -0.0114  0.1866
29495SOL    HW195600   3.165   2.828   8.952  0.6981  0.2790 -0.2511
29495SOL    HW295601   3.176   2.895   9.087 -1.6907 -0.5348  0.3944
29496SOL     OW95602  10.111  12.164   0.055 -0.2475  0.1619 -0.0048
29496SOL    HW195603  10.133  12.210  -0.025  1.4559  0.2193  0.4592
29496SOL    HW295604  10.076  12.079   0.026 -0.5536  0.5532 -0.8019
29497SOL     OW95605   7.017   5.578  12.647  0.2784 -0.0595 -0.3544
29497SOL    HW195606   7.089   5.518  12.668 -0.5589 -1.2422 -0.7702
29497SOL    HW295607   6.997   5.561  12.555 -0.6656  0.0948 -0.1917
29498SOL     OW95608   0.408   4.731   0.251  0.3607 -0.0596 -0.1663
29498SOL    HW195609   0.421   4.804   0.311  1.1600 -0.2936 -0.0439
29498SOL    HW295610   0.411   4.769   0.164  1.1477  0.0049 -0.1146
29499SOL     OW95611   9.818  12.948   6.069 -0.4576  0.6192 -0.1950
29499SOL    HW195612   9.853  13.010   6.134  0.4775  0.7460 -0.8062
29499SOL    HW295613   9.741  12.910   6.112 -0.2849  1.2418  0.7010
29500SOL     OW95614   6.574   9.192   0.883  0.4743 -0.2555 -0.0746
29500SOL    HW195615   6.556   9.281   0.915  1.0162 -0.0414 -0.3591
29500SOL    HW295616   6.499   9.141   0.913 -0.0838  0.3998 -0.3291
29501SOL     OW95617   7.442   8.138   3.494  0.4533  0.1697 -0.6523
29501SOL    HW195618   7.451   8.093   3.578 -0.8744  1.8051  0.4358
29501SOL    HW295619   7.487   8.221   3.506  2.9351 -0.7391 -2.6574
29502SOL     OW95620  11.059  10.332   0.772 -0.4546 -0.9121 -0.2512
29502SOL    HW195621  11.106  10.363   0.850  1.7277 -1.4795 -1.2589
29502SOL    HW295622  11.009  10.257   0.803  1.5090 -2.0448  0.3859
29503SOL     OW95623   2.854   3.604  12.172 -0.0791  0.3581 -0.4953
29503SOL    HW195624   2.798   3.533  12.205 -0.2614  0.0710 -1.4053
29503SOL    HW295625   2.840   3.676  12.234  0.6353 -0.6153  0.8307
29504SOL     OW95626   9.380   1.325   7.731 -0.1468 -0.7052 -0.6930
29504SOL    HW195627   9.476   1.322   7.735 -0.1734 -1.3113 -0.3473
29504SOL    HW295628   9.358   1.415   7.752  0.3673 -0.4606 -1.1774
29505SOL     OW95629  11.816   3.630   7.943  0.5508 -0.7468  0.2247
29505SOL    HW195630  11.799   3.700   7.881 -0.9002 -2.2667 -1.1595
29505SOL    HW295631  11.735   3.621   7.993  1.0157 -0.8951  0.9769
29506SOL     OW95632   6.356   0.483   8.229  0.2254  0.8167  0.1581
29506SOL    HW195633   6.405   0.401   8.221 -0.6480  0.2836  0.1805
29506SOL    HW295634   6.407   0.535   8.291 -0.5910 -0.7481  2.2537
29507SOL     OW95635   1.210   7.850   3.951  0.2843 -0.2302 -0.3336
29507SOL    HW195636   1.248   7.762   3.952  2.9153  0.8152  0.7074
29507SOL    HW295637   1.128   7.841   4.000  0.9042 -1.9294  0.4940
29508SOL     OW95638  10.557   1.353   9.360 -0.2943 -0.5815  0.2414
29508SOL    HW195639  10.578   1.359   9.453  1.2116  1.8630 -0.1586
29508SOL    HW295640  10.471   1.393   9.352  0.6045  1.5139  0.3611
29509SOL     OW95641  11.648   3.447   2.087 -0.4024 -0.6099 -0.5770
29509SOL    HW195642  11.630   3.534   2.121 -0.6379 -0.1888 -1.7491
29509SOL    HW295643  11.570   3.424   2.036 -0.2527 -1.4104 -0.4668
29510SOL     OW95644   7.837   3.943   0.881  0.1105 -0.1562 -0.0035
29510SOL    HW195645   7.825   3.886   0.956  0.7614 -0.5523 -0.1928
29510SOL    HW295646   7.910   4.001   0.905  0.1683 -0.1298 -0.2403
29511SOL     OW95647   3.806   7.923   1.321  0.2394  0.1932 -0.3531
29511SOL    HW195648   3.801   8.017   1.337 -2.2924 -0.1278  1.3574
29511SOL    HW295649   3.727   7.904   1.269  0.6170 -1.0043 -0.5196
29512SOL     OW95650   6.286  12.204   0.609 -0.2169  0.1421 -0.2254
29512SOL    HW195651   6.236  12.200   0.691  1.8225  1.0386  1.1347
29512SOL    HW295652   6.355  12.138   0.619  0.1721  0.3903 -1.1582
29513SOL     OW95653   4.884   2.262  11.194 -0.4408 -0.2158 -0.1079
29513SOL    HW195654   4.941   2.234  11.122 -0.4903  2.3209 -1.2548
29513SOL    HW295655   4.939   2.257  11.272  1.6078  2.4590 -1.2101
29514SOL     OW95656   1.150   4.429   3.968  0.2756 -0.4300  0.1699
29514SOL    HW195657   1.231   4.438   3.917 -0.1696 -3.0017 -1.1584
29514SOL    HW295658   1.180   4.415   4.058  1.2365 -0.0995 -0.0871
29515SOL     OW95659   2.871   0.206   8.669  0.6889  0.0647  0.2888
29515SOL    HW195660   2.793   0.184   8.618 -0.4023  1.6629  1.1775
29515SOL    HW295661   2.933   0.137   8.649 -1.7560 -2.6482  1.3322
29516SOL     OW95662  11.967   4.964   2.898 -0.5730  0.2315  0.3263
29516SOL    HW195663  12.050   5.003   2.926  0.2457 -0.9755 -0.3102
29516SOL    HW295664  11.932   5.025   2.833  0.1046  0.4811  0.1903
29517SOL     OW95665   5.525  10.337  12.941  0.0637  0.3182 -0.1847
29517SOL    HW195666   5.597  10.341  12.878  1.0895  1.1131  0.9858
29517SOL    HW295667   5.472  10.415  12.923  0.9506  1.1238  0.5864
29518SOL     OW95668  10.741   8.543   4.006 -0.0832 -0.5152  0.3220
29518SOL    HW195669  10.805   8.613   3.989 -0.2830 -0.1259  1.1211
29518SOL    HW295670  10.711   8.559   4.096 -1.0771 -0.8747  0.0660
29519SOL     OW95671  10.143   2.785   8.962 -0.1054 -0.3374 -0.0725
29519SOL    HW195672  10.169   2.736   9.040  0.8050 -0.7584 -0.6234
29519SOL    HW295673  10.223   2.825   8.930 -0.5942  0.3812 -0.4219
29520SOL     OW95674  10.304   6.400   8.592 -0.2673 -0.7728 -0.2548
29520SOL    HW195675  10.372   6.389   8.526  1.1944 -2.8958  1.4706
29520SOL    HW295676  10.250   6.321   8.584 -0.1540 -0.9968  0.9212
29521SOL     OW95677   7.752   5.455   3.289  0.0187 -0.2139 -0.3337
29521SOL    HW195678   7.809   5.387   3.252  1.4631  1.1570 -0.7106
29521SOL    HW295679   7.736   5.515   3.216  0.5391  0.9895  0.5087
29522SOL     OW95680   6.163  12.213   0.857 -0.1522 -0.2287  0.1770
29522SOL    HW195681   6.106  12.246   0.926 -0.3753  1.2902 -0.6983
29522SOL    HW295682   6.161  12.118   0.868 -3.1423 -0.2754 -0.0600
29523SOL     OW95683   1.865   5.598   1.940  0.3423 -0.0735 -0.1915
29523SOL    HW195684   1.860   5.513   1.897 -0.2482 -0.8359  1.3076
29523SOL    HW295685   1.906   5.655   1.876  0.8830 -1.5202 -1.1789
29524SOL     OW95686   1.182   4.369   9.524  0.4481 -0.0724  0.2002
29524SOL    HW195687   1.151   4.412   9.604 -2.0578  0.3442 -0.8813
29524SOL    HW295688   1.182   4.276   9.546  1.2829  0.1335  1.1279
29525SOL     OW95689   1.704  12.555   9.755 -0.3238 -0.0807  0.1145
29525SOL    HW195690   1.632  12.590   9.702 -0.3572  0.4698  0.5112
29525SOL    HW295691   1.760  12.510   9.693  0.0143  1.1646 -0.5141
29526SOL     OW95692  11.024   2.813   1.069 -0.0467 -0.3083 -0.4987
29526SOL    HW195693  11.078   2.884   1.104  0.4369  0.0839 -1.9538
29526SOL    HW295694  11.037   2.740   1.130  1.8515 -0.1020 -0.5898
29527SOL     OW95695   5.111   4.912   6.469  0.2980  0.3222 -0.0617
29527SOL    HW195696   5.056   4.851   6.419  1.1486 -0.1995 -0.3838
29527SOL    HW295697   5.092   4.998   6.431  0.7967 -0.0421 -1.1857
29528SOL     OW95698   8.681   5.998   6.451 -0.2355  0.1682  0.0538
29528SOL    HW195699   8.732   5.935   6.400 -1.3520 -0.9389  0.2725
29528SOL    HW295700   8.622   5.944   6.504  0.0942  1.3287  1.6741
29529SOL     OW95701   1.795   4.536   0.221  0.2890 -0.2314  0.2567
29529SOL    HW195702   1.752   4.605   0.270  1.5526  0.9281 -0.2025
29529SOL    HW295703   1.780   4.456   0.272 -3.2454 -0.1389 -0.4009
29530SOL     OW95704   7.973   9.977  11.707  0.7070  0.6725 -0.3204
29530SOL    HW195705   8.008  10.048  11.654  0.7398  0.9725  0.1015
29530SOL    HW295706   7.940  10.019  11.786 -1.5687  0.5679 -1.1189
29531SOL     OW95707   3.106   4.096   0.590 -0.6448  0.0705 -0.0538
29531SOL    HW195708   3.047   4.083   0.664 -0.4490 -0.1763  0.0581
29531SOL    HW295709   3.191   4.117   0.630 -0.0162 -2.0861 -0.1434
29532SOL     OW95710   4.963   2.785   0.917 -0.0364 -0.0671 -0.1805
29532SOL    HW195711   4.982   2.693   0.934  0.4577 -0.0926 -0.8424
29532SOL    HW295712   4.995   2.831   0.994 -1.7896 -0.5909  0.9264
29533SOL     OW95713  11.111   8.463  11.452  0.0050  0.2316 -0.2710
29533SOL    HW195714  11.056   8.538  11.432 -0.3129  0.4748  1.3620
29533SOL    HW295715  11.049   8.393  11.472  0.2890  0.0853  0.1027
29534SOL     OW95716   5.425   1.945  10.480  0.1546  0.0151 -0.4095
29534SOL    HW195717   5.344   1.914  10.441  1.3146 -1.0900 -2.0740
29534SOL    HW295718   5.466   1.999  10.412  0.3000  1.5411  0.8280
29535SOL     OW95719  12.226   0.792   7.452  0.3667  0.6363  0.2618
29535SOL    HW195720  12.277   0.867   7.482  0.2511  1.2426 -1.0106
29535SOL    HW295721  12.135   0.824   7.451 -0.0062 -0.2737  2.0137
29536SOL     OW95722  11.068   1.382   5.167  0.8351 -0.3513 -0.4544
29536SOL    HW195723  11.029   1.319   5.229 -0.3239  1.0471  0.2989
29536SOL    HW295724  11.117   1.442   5.223 -0.3438  1.0143 -0.8312
29537SOL     OW95725   0.740  11.875  11.027  0.5734 -0.4309  0.0097
29537SOL    HW195726   0.692  11.793  11.021 -1.1175  0.5284  0.0193
29537SOL    HW295727   0.832  11.848  11.028  0.0543 -2.3832  1.0476
29538SOL     OW95728  11.975   7.886   7.588 -0.1013  0.1756  0.0929
29538SOL    HW195729  12.055   7.834   7.601 -0.3152  0.1690  1.4635
29538SOL    HW295730  11.977   7.908   7.495  1.5940  0.3394  0.1286
29539SOL     OW95731   7.201  12.148   1.389 -0.6856 -0.3091 -0.4946
29539SOL    HW195732   7.234  12.156   1.479  0.8881 -2.4100 -0.7823
29539SOL    HW295733   7.158  12.231   1.371  2.5672  1.8450  0.7713
29540SOL     OW95734   3.764   2.349   2.481  0.9132  0.2487  0.2652
29540SOL    HW195735   3.818   2.428   2.488  0.1472  0.7731  0.4507
29540SOL    HW295736   3.675   2.382   2.466  0.1694 -0.4480  2.6143
29541SOL     OW95737   7.747  11.637  12.656  0.1346  0.8466 -0.1737
29541SOL    HW195738   7.769  11.712  12.601 -1.2643  1.5548  0.1698
29541SOL    HW295739   7.697  11.579  12.599  0.4901  0.5718 -0.2088
29542SOL     OW95740  12.455   4.324   1.395 -0.4436 -0.0012  0.2657
29542SOL    HW195741  12.383   4.381   1.422 -0.2591  0.1001  0.5477
29542SOL    HW295742  12.487   4.286   1.476  1.2236  1.5994  0.4292
29543SOL     OW95743   0.650   6.047   1.382  0.3259 -0.0498 -0.0049
29543SOL    HW195744   0.633   6.071   1.473 -0.4321  1.9285 -0.6301
29543SOL    HW295745   0.620   5.956   1.376 -2.6779  0.7545  0.9654
29544SOL     OW95746  11.344   2.922   0.618 -0.1221 -0.0525 -0.5192
29544SOL    HW195747  11.280   2.946   0.551  0.3024 -0.1981 -0.9842
29544SOL    HW295748  11.357   3.003   0.668 -0.2972  0.1085 -0.7313
29545SOL     OW95749   1.016   4.351   0.847  0.1627 -0.2865 -0.0204
29545SOL    HW195750   1.033   4.258   0.839  1.4302 -0.1942  1.2611
29545SOL    HW295751   1.035   4.372   0.939  2.3370  1.6572 -0.8077
29546SOL     OW95752   1.422   0.700   4.597  0.2381  0.7179  0.0658
29546SOL    HW195753   1.489   0.643   4.636 -0.3901 -0.5693 -0.6765
29546SOL    HW295754   1.353   0.705   4.663  0.3842  0.7886  0.2144
29547SOL     OW95755   0.625   2.800   1.640 -0.7666  0.3465 -0.2669
29547SOL    HW195756   0.661   2.884   1.614  2.8132 -1.5814 -2.2956
29547SOL    HW295757   0.585   2.765   1.560 -0.5241 -0.6276  0.0195
29548SOL     OW95758   4.508   2.978   7.510  0.4055 -0.0046  0.1681
29548SOL    HW195759   4.511   3.049   7.574 -0.2152 -0.4056  0.6505
29548SOL    HW295760   4.416   2.952   7.507  0.0004  1.3746 -2.4147
29549SOL     OW95761   3.491   1.681  11.876 -0.2353 -0.0835  0.1622
29549SOL    HW195762   3.428   1.673  11.804 -0.0676  0.0250  0.0024
29549SOL    HW295763   3.558   1.615  11.856 -0.2436 -0.1267  0.2768
29550SOL     OW95764  12.349   6.909  10.976  0.6096  0.1550  0.0759
29550SOL    HW195765  12.288   6.951  10.915  1.4095  0.3314 -0.6235
29550SOL    HW295766  12.396   6.845  10.923  1.8411  0.8349  0.3160
29551SOL     OW95767   8.725   0.832   3.496  0.0360 -0.3764 -0.0886
29551SOL    HW195768   8.763   0.919   3.485  0.1039 -0.5043 -0.9114
29551SOL    HW295769   8.798   0.778   3.526 -0.1490 -0.0253  1.0548
29552SOL     OW95770   7.814   5.656   1.842 -0.1374 -0.6295  0.0430
29552SOL    HW195771   7.864   5.721   1.792 -0.9017  0.2049  0.3390
29552SOL    HW295772   7.829   5.678   1.933 -3.4158  1.6674  0.2321
29553SOL     OW95773   0.941  12.858  12.479  0.4552 -0.6087  0.0821
29553SOL    HW195774   0.938  12.954  12.486  0.0125 -0.5110 -1.1772
29553SOL    HW295775   1.002  12.831  12.548  0.1317  0.5312  0.8429
29554SOL     OW95776   9.006   0.202   6.132  0.3568  0.4861  0.0066
29554SOL    HW195777   9.081   0.260   6.143  1.7702 -1.2681  0.2697
29554SOL    HW295778   9.026   0.152   6.053  0.4182 -1.2980  1.0933
29555SOL     OW95779   8.563   5.399   9.052 -0.1887  0.3853 -0.3333
29555SOL    HW195780   8.567   5.359   8.965  0.3371  0.9290 -0.5605
29555SOL    HW295781   8.641   5.367   9.097 -1.3406 -1.3372  0.5909
29556SOL     OW95782   9.571   4.350   6.641  0.8399  0.2735  0.1223
29556SOL    HW195783   9.544   4.266   6.677 -2.1285  1.3422  0.6909
29556SOL    HW295784   9.645   4.377   6.695  0.2145 -0.8426  1.5947
29557SOL     OW95785  12.281   8.742   8.951  0.4570  0.0398  0.4670
29557SOL    HW195786  12.298   8.674   8.886  0.4014 -0.5823  1.0903
29557SOL    HW295787  12.333   8.717   9.027 -0.7896 -0.1891  1.2715
29558SOL     OW95788   3.812  11.484   5.853 -0.7588  0.2894  0.2604
29558SOL    HW195789   3.844  11.519   5.770 -1.6994  0.6843  0.0463
29558SOL    HW295790   3.813  11.389   5.841  2.1679  0.1268  0.9739
29559SOL     OW95791   3.172  12.933  11.341 -0.0458 -0.5944  0.2197
29559SOL    HW195792   3.145  12.982  11.263 -0.3061 -0.1177  0.5991
29559SOL    HW295793   3.262  12.962  11.357 -0.5397  0.5701  1.0392
29560SOL     OW95794   4.640   4.325   6.909  0.1381 -0.4073 -0.5060
29560SOL    HW195795   4.570   4.373   6.955  2.6219  2.7249  0.3772
29560SOL    HW295796   4.597   4.290   6.831 -2.6131  0.6022  0.4196
29561SOL     OW95797   5.746  11.941   8.258 -0.1307  0.2850  0.5402
29561SOL    HW195798   5.720  11.865   8.204  1.1223 -0.4342  0.9114
29561SOL    HW295799   5.823  11.911   8.305  0.5292  1.8913  0.5283
29562SOL     OW95800  12.266  11.265   9.576  0.4214  0.3698  0.2498
29562SOL    HW195801  12.251  11.290   9.485 -0.1955  0.1649  0.2896
29562SOL    HW295802  12.251  11.346   9.626 -1.7332 -0.0640  0.3931
29563SOL     OW95803  11.421  12.212   2.809  0.2481  0.9663  0.2315
29563SOL    HW195804  11.463  12.257   2.883  0.2196  1.3593  0.0103
29563SOL    HW295805  11.459  12.252   2.731  1.6078 -0.6790  0.0068
29564SOL     OW95806   1.932   3.215   6.132 -0.2017  0.0060 -0.9194
29564SOL    HW195807   1.856   3.272   6.126 -1.0399 -0.8052  1.3451
29564SOL    HW295808   1.903   3.132   6.094 -0.7424 -0.5350  0.6022
29565SOL     OW95809  11.176   3.149   1.489 -0.4502 -0.4581 -0.2951
29565SOL    HW195810  11.188   3.077   1.427  0.8342 -0.0253 -0.5846
29565SOL    HW295811  11.153   3.224   1.434 -1.7782 -0.6276  0.0050
29566SOL     OW95812   8.690   0.729   7.297  0.4125 -0.0500  0.3870
29566SOL    HW195813   8.736   0.778   7.365  1.4047  0.1480 -0.3946
29566SOL    HW295814   8.736   0.752   7.216 -2.1600  1.5699 -0.7442
29567SOL     OW95815   0.630   3.642   2.222  0.4890  0.5108 -0.2658
29567SOL    HW195816   0.594   3.681   2.142 -0.7875 -1.8774 -0.9781
29567SOL    HW295817   0.577   3.676   2.293  1.0392  1.9492 -0.5166
29568SOL     OW95818  12.868   9.802  11.316  0.0398 -0.0812 -0.9586
29568SOL    HW195819  12.941   9.776  11.260  0.1682 -0.3653 -0.6618
29568SOL    HW295820  12.832   9.719  11.348  0.3893  0.0987 -0.0854
29569SOL     OW95821   9.830   4.995   4.947  0.1415  0.3664  0.3749
29569SOL    HW195822   9.771   5.046   4.890  1.5730  1.8657  0.1620
29569SOL    HW295823   9.780   4.981   5.027 -0.2246  2.3691  0.5357
29570SOL     OW95824   7.609   7.109   9.517  0.6033  0.3815  0.4648
29570SOL    HW195825   7.563   7.050   9.576  0.0461 -1.5851 -1.7959
29570SOL    HW295826   7.689   7.062   9.493  1.1084  1.3923  0.0840
29571SOL     OW95827   9.280   1.862   2.149 -0.2765 -0.3562 -0.0711
29571SOL    HW195828   9.345   1.837   2.215 -0.1526  0.7526  0.2444
29571SOL    HW295829   9.263   1.954   2.166  0.0660  0.0676 -1.8621
29572SOL     OW95830   6.629  10.142  11.074  0.3968 -0.3455  0.0988
29572SOL    HW195831   6.568  10.116  11.005 -0.0266 -0.7949  0.6324
29572SOL    HW295832   6.714  10.147  11.030  0.2061 -1.0401 -0.3730
29573SOL     OW95833   8.971   9.611   6.545 -0.1071 -0.1369 -0.7989
29573SOL    HW195834   8.886   9.604   6.503 -0.8079  0.9786  0.3575
29573SOL    HW295835   9.027   9.656   6.482 -1.3605  2.2671 -0.3119
29574SOL     OW95836   5.139   0.636  12.890 -0.2449  0.1245  0.3271
29574SOL    HW195837   5.170   0.553  12.926  2.4060  0.5852 -0.6229
29574SOL    HW295838   5.088   0.612  12.813  1.5584 -0.6877 -0.6925
29575SOL     OW95839   4.308   9.601   7.591  0.0089 -0.0196  0.6680
29575SOL    HW195840   4.275   9.592   7.681 -0.6993 -0.2915  0.3884
29575SOL    HW295841   4.243   9.655   7.547 -0.0072 -0.4737  0.1300
29576SOL     OW95842   7.537  12.591   6.171  0.3989 -0.2515  0.1925
29576SOL    HW195843   7.469  12.577   6.236 -1.1294 -1.4602 -1.5458
29576SOL    HW295844   7.506  12.667   6.121  1.1703  0.1984  0.3840
29577SOL     OW95845  11.172   3.614   4.460 -0.0905 -0.3007  0.0506
29577SOL    HW195846  11.162   3.645   4.370  1.5549 -3.7320 -1.5232
29577SOL    HW295847  11.267   3.619   4.476 -0.0890 -1.8049  0.6877
29578SOL     OW95848   1.917   4.379   7.158  0.1096 -0.0684 -0.0575
29578SOL    HW195849   1.890   4.425   7.078 -1.7823 -2.1007 -0.6843
29578SOL    HW295850   1.997   4.333   7.133 -0.4352 -0.6425 -0.8116
29579SOL     OW95851   2.158   1.411   7.654  0.2601  0.1448 -0.8123
29579SOL    HW195852   2.250   1.435   7.668 -0.4050  2.2578  0.4874
29579SOL    HW295853   2.160   1.318   7.632  2.6120 -0.1407  0.3178
29580SOL     OW95854   5.440   8.806   4.359  0.3795  0.1115  0.1186
29580SOL    HW195855   5.466   8.890   4.398 -0.6306  0.0443  0.9886
29580SOL    HW295856   5.492   8.800   4.279  0.4139  1.6291 -0.0174
29581SOL     OW95857  10.507   1.285  12.144  0.3763 -0.2602  0.5321
29581SOL    HW195858  10.515   1.196  12.180 -0.2487  0.3971  2.4136
29581SOL    HW295859  10.485   1.339  12.219 -0.5593  1.3027 -0.8075
29582SOL     OW95860   8.276   1.586  12.429 -0.2471  0.3445 -0.1040
29582SOL    HW195861   8.300   1.570  12.338  0.1551 -0.6108  0.1560
29582SOL    HW295862   8.188   1.549  12.437 -0.0695 -0.0578  0.0224
29583SOL     OW95863   4.173   5.523   1.960  0.0234  0.2542  0.0054
29583SOL    HW195864   4.244   5.534   1.897 -0.5106  0.1736 -0.6207
29583SOL    HW295865   4.094   5.523   1.907 -0.3744 -0.9072  0.5633
29584SOL     OW95866   0.313   2.788   7.365  0.2710  0.0121  0.6907
29584SOL    HW195867   0.296   2.787   7.459 -0.5218 -2.0517  0.5626
29584SOL    HW295868   0.253   2.724   7.328  1.5054 -0.2124 -1.0673
29585SOL     OW95869  10.110   4.729   3.594  0.0012 -0.3269 -0.5655
29585SOL    HW195870  10.113   4.813   3.638  1.5952  0.1593 -1.5115
29585SOL    HW295871  10.022   4.723   3.559 -0.1366  0.9420 -0.4728
29586SOL     OW95872   9.322   9.226   0.730 -0.4388 -0.5680 -0.2876
29586SOL    HW195873   9.312   9.189   0.818 -1.1471  0.2271 -0.0158
29586SOL    HW295874   9.301   9.154   0.671 -0.7174 -0.9005  0.2099
29587SOL     OW95875   1.274   0.332   2.099  0.1534 -0.2561  0.0772
29587SOL    HW195876   1.299   0.381   2.177  1.8204 -1.9694  0.6879
29587SOL    HW295877   1.340   0.355   2.034 -0.3195 -0.0487 -0.3345
29588SOL     OW95878   4.414   1.610   3.072  0.1172  0.1094 -0.0934
29588SOL    HW195879   4.416   1.693   3.120 -1.6189 -0.3824  0.9054
29588SOL    HW295880   4.323   1.601   3.044  1.0411  0.3330 -3.5365
29589SOL     OW95881   3.114   6.278   2.498  0.3722 -0.2242 -0.1209
29589SOL    HW195882   3.117   6.193   2.544  0.7192 -0.1318  0.0300
29589SOL    HW295883   3.084   6.339   2.565  2.0678  0.1418  0.3509
29590SOL     OW95884   8.932   1.420   6.755  0.1810 -0.2268  0.3516
29590SOL    HW195885   8.954   1.447   6.665 -0.9235 -0.2646  0.0498
29590SOL    HW295886   8.921   1.325   6.749 -0.5845 -0.1430  0.3664
29591SOL     OW95887  12.586   6.770   4.757 -0.0512 -0.2808 -0.0681
29591SOL    HW195888  12.603   6.843   4.816 -1.2032  1.8603 -2.2445
29591SOL    HW295889  12.670   6.724   4.752  0.2242 -0.2369  2.7214
29592SOL     OW95890   8.346   0.860   7.733 -0.2477 -0.6703  0.2165
29592SOL    HW195891   8.332   0.955   7.734  1.0558 -0.4600  1.3612
29592SOL    HW295892   8.260   0.823   7.711 -0.5287  0.7904 -1.3815
29593SOL     OW95893  11.491   7.191   3.841 -0.7221  0.4470 -0.6730
29593SOL    HW195894  11.475   7.177   3.747 -1.1895 -0.3210 -0.4831
29593SOL    HW295895  11.412   7.236   3.872 -0.6785  0.4709 -0.5976
29594SOL     OW95896   9.767   1.196   7.361  0.8234  0.5042 -0.3312
29594SOL    HW195897   9.811   1.140   7.297  0.0574 -0.2207 -0.2392
29594SOL    HW295898   9.711   1.254   7.309 -0.4791 -0.6818 -0.2976
29595SOL     OW95899   8.226   2.910  10.948 -0.5030  0.5306 -0.0013
29595SOL    HW195900   8.216   2.965  10.871  0.7740 -0.1985 -0.6987
29595SOL    HW295901   8.308   2.938  10.988  0.3728 -1.0864 -0.5800
29596SOL     OW95902   2.796   4.847   2.238 -0.5713 -0.5839  0.4499
29596SOL    HW195903   2.765   4.882   2.322  1.6436  1.4178  0.5284
29596SOL    HW295904   2.748   4.897   2.172 -0.9969 -0.9017  0.5100
29597SOL     OW95905   5.634   2.998   9.542 -0.5893 -0.3723  0.4643
29597SOL    HW195906   5.723   3.033   9.538 -1.9699  3.5779 -1.6252
29597SOL    HW295907   5.633   2.942   9.619  3.5737 -0.3811  0.7299
29598SOL     OW95908   7.119   3.510  12.355  0.0717  0.2430 -0.5640
29598SOL    HW195909   7.146   3.428  12.394  0.0165  0.0761 -0.8691
29598SOL    HW295910   7.200   3.560  12.343  0.2058 -0.1045 -1.1391
29599SOL     OW95911   6.033   6.579  11.863 -0.0345 -0.2997  0.2132
29599SOL    HW195912   5.955   6.591  11.917 -1.0456  0.5880 -1.3538
29599SOL    HW295913   6.008   6.512  11.800  0.2081  0.4810 -0.7371
29600SOL     OW95914   3.758   0.926   8.650  0.2689 -0.0271  0.0213
29600SOL    HW195915   3.699   0.895   8.582  0.0640  0.2050  0.0935
29600SOL    HW295916   3.706   0.988   8.701  0.3996 -0.2641  0.4394
29601SOL     OW95917  12.913   5.902   8.650 -0.2842  0.1786 -0.2945
29601SOL    HW195918  12.858   5.841   8.699  2.0842 -1.7035  0.2241
29601SOL    HW295919  12.972   5.939   8.716  0.8380  0.0861 -1.2158
29602SOL     OW95920   4.609   6.166   2.406  0.1661 -0.4406  0.4078
29602SOL    HW195921   4.555   6.199   2.478  0.6464  0.5575  0.3252
29602SOL    HW295922   4.569   6.082   2.383 -1.4031  0.3070  0.2833
29603SOL     OW95923   0.822   2.204  12.580 -0.3619 -0.4551 -0.0165
29603SOL    HW195924   0.735   2.236  12.603 -0.5546 -0.3511 -0.8521
29603SOL    HW295925   0.863   2.183  12.664 -0.6162  0.9741  0.4900
29604SOL     OW95926   4.347   4.769   6.130 -0.2802  0.4820 -0.6379
29604SOL    HW195927   4.327   4.828   6.204  1.4797  0.7665 -0.3348
29604SOL    HW295928   4.267   4.770   6.077 -1.5161  0.4694  1.1148
29605SOL     OW95929   6.944   4.955   4.865  0.5313 -0.0019 -0.2164
29605SOL    HW195930   6.935   4.859   4.871 -1.6270 -0.1271 -3.1609
29605SOL    HW295931   7.032   4.969   4.830  0.5675 -0.9756 -0.5462
29606SOL     OW95932   4.303  12.755   1.023  0.0976  0.3178 -0.0033
29606SOL    HW195933   4.238  12.786   0.960 -1.0734  0.8937  1.4248
29606SOL    HW295934   4.361  12.831   1.036  0.3443  0.1961 -0.3883
29607SOL     OW95935   5.091   1.766   0.648  0.2733 -0.2341  0.5296
29607SOL    HW195936   5.015   1.764   0.589 -1.5577  0.5157  2.6910
29607SOL    HW295937   5.115   1.858   0.652 -0.4030 -0.0923  1.8198
29608SOL     OW95938   1.751   7.868   6.154 -0.3054 -0.2166  0.4187
29608SOL    HW195939   1.822   7.931   6.153  1.1808 -1.8263  0.0783
29608SOL    HW295940   1.762   7.821   6.237 -2.1373  0.7238  1.2570
29609SOL     OW95941   6.360   7.973  10.907  0.6029 -0.3091 -0.3862
29609SOL    HW195942   6.429   8.031  10.875  0.8024  1.0619  2.2260
29609SOL    HW295943   6.286   8.031  10.925  0.9717 -0.6337  2.7865
29610SOL     OW95944   0.401   8.216   0.671  0.6790  0.3965  0.2032
29610SOL    HW195945   0.381   8.254   0.756 -2.5382 -0.0881 -0.1735
29610SOL    HW295946   0.425   8.125   0.689  0.0441  0.3071  0.6393
29611SOL     OW95947   2.881   1.831   7.608  0.2058 -0.0135  0.1354
29611SOL    HW195948   2.942   1.758   7.624  1.0457  0.7849  0.6652
29611SOL    HW295949   2.795   1.795   7.629  0.5564 -0.9971 -0.0671
29612SOL     OW95950  12.918   4.789  10.184 -0.3544 -0.0180 -0.5580
29612SOL    HW195951  12.891   4.786  10.276 -0.6208  4.0912 -0.3366
29612SOL    HW295952  12.837   4.777  10.135 -0.3818 -1.1482 -0.2568
29613SOL     OW95953  12.538   2.919  12.118  0.5242 -0.4185 -0.2163
29613SOL    HW195954  12.548   2.894  12.209  0.4679  0.9957  0.2045
29613SOL    HW295955  12.449   2.955  12.112  0.6120 -0.2700 -0.7552
29614SOL     OW95956   2.126   8.511   7.747 -0.3141  0.1210 -0.2132
29614SOL    HW195957   2.137   8.492   7.654 -0.4663  0.0521 -0.2178
29614SOL    HW295958   2.167   8.596   7.759  1.4697 -0.7237  0.0440
29615SOL     OW95959   8.289   3.382   1.710 -0.1416 -0.3368 -0.4747
29615SOL    HW195960   8.327   3.417   1.790  0.1641 -0.3431 -0.6158
29615SOL    HW295961   8.318   3.291   1.708  0.8187 -0.0271 -1.1821
29616SOL     OW95962   1.840   8.575   6.840  0.5941  0.1636 -0.0443
29616SOL    HW195963   1.856   8.657   6.795  0.2985 -0.3127 -1.0365
29616SOL    HW295964   1.881   8.508   6.784 -1.5113 -0.6639 -0.6844
29617SOL     OW95965   6.922  11.488   8.834 -0.2169 -0.1895  0.4850
29617SOL    HW195966   6.843  11.482   8.780 -0.9534  1.6096  1.2891
29617SOL    HW295967   6.921  11.408   8.888 -1.7693  0.0530  0.8412
29618SOL     OW95968  12.198  10.917  12.013 -0.1860  0.3917 -0.0776
29618SOL    HW195969  12.160  10.878  11.934 -1.5493 -1.1577  1.2792
29618SOL    HW295970  12.147  10.881  12.085  1.7201  0.8850  1.6275
29619SOL     OW95971  11.999   2.585   0.469  0.3399 -0.1815 -0.2374
29619SOL    HW195972  11.985   2.543   0.384  0.0092 -0.0019 -0.2767
29619SOL    HW295973  11.915   2.627   0.488  1.2620  2.2826 -1.2200
29620SOL     OW95974   6.337   7.497  12.159 -0.7583 -0.1236 -0.2529
29620SOL    HW195975   6.432   7.488  12.160 -0.6841  0.3542  1.5575
29620SOL    HW295976   6.309   7.458  12.076  1.0742  0.5001 -1.2264
29621SOL     OW95977   8.321   7.832   6.193  0.0120 -0.6080  0.4781
29621SOL    HW195978   8.255   7.902   6.193 -0.8705 -1.4312  0.3446
29621SOL    HW295979   8.402   7.877   6.217 -0.5504  0.4575  0.4657
29622SOL     OW95980  11.734   7.097   7.401 -0.0551 -0.0525  0.0545
29622SOL    HW195981  11.650   7.087   7.356 -0.5878  0.2258  0.9589
29622SOL    HW295982  11.752   7.010   7.437 -0.7389  0.2350  1.1606
29623SOL     OW95983   7.164   2.076   7.101  0.6791 -0.0966 -0.2232
29623SOL    HW195984   7.113   2.114   7.172  1.4081  1.0137 -0.2852
29623SOL    HW295985   7.226   2.018   7.144  0.6786  0.0643 -0.0068
29624SOL     OW95986   1.538  11.931   7.823 -0.0337 -0.1762  0.6038
29624SOL    HW195987   1.457  11.967   7.787  0.6043 -0.1510 -0.8539
29624SOL    HW295988   1.509  11.880   7.899 -1.6669 -1.6197 -0.8772
29625SOL     OW95989   1.000   6.576   9.055  0.1235 -0.2900  0.2013
29625SOL    HW195990   0.931   6.538   9.000 -0.5267  1.4308 -0.2585
29625SOL    HW295991   1.067   6.604   8.993  0.2566 -0.0338  0.4587
29626SOL     OW95992  11.870  12.429  12.161  0.4758 -0.7058  0.2346
29626SOL    HW195993  11.947  12.373  12.157 -0.1134 -1.5010 -0.2606
29626SOL    HW295994  11.845  12.442  12.070  0.6830  0.4897  0.3368
29627SOL     OW95995   8.548   9.321   6.483 -0.1582 -0.4226 -0.7131
29627SOL    HW195996   8.532   9.344   6.575  0.2133 -0.4135 -0.6478
29627SOL    HW295997   8.586   9.400   6.445 -0.0837 -0.5071 -0.8145
29628SOL     OW95998   0.650   3.243   7.494  0.1130  0.2218 -0.3268
29628SOL    HW195999   0.658   3.236   7.399 -1.3312 -1.3442 -0.3738
29628SOL    HW296000   0.723   3.192   7.529  1.3099  1.7134 -0.5420
29629SOL     OW96001   1.628  11.704   5.054 -0.3046 -0.2391 -0.3073
29629SOL    HW196002   1.590  11.669   5.135 -0.4453 -0.2942 -0.3962
29629SOL    HW296003   1.658  11.791   5.078  0.0783 -0.4343 -0.0758
29630SOL     OW96004   4.126  10.579   4.803  0.1586  0.4197 -0.2062
29630SOL    HW196005   4.072  10.561   4.726 -0.8258  1.9207  0.1061
29630SOL    HW296006   4.065  10.577   4.876  0.7257  1.0124  0.2871
29631SOL     OW96007   7.119   8.051   0.468  0.3794  0.1404 -0.1194
29631SOL    HW196008   7.031   8.024   0.495  0.4739 -1.2434 -1.1129
29631SOL    HW296009   7.135   8.131   0.518 -1.5665  0.6063 -0.1426
29632SOL     OW96010   8.479   6.891  12.817 -0.4127 -0.8219  0.1587
29632SOL    HW196011   8.524   6.966  12.776 -1.0231 -0.5839 -0.0974
29632SOL    HW296012   8.549   6.831  12.840  0.0157 -0.6165 -0.5553
29633SOL     OW96013   2.748  12.051   7.620  0.3573 -0.0341 -0.1780
29633SOL    HW196014   2.749  12.120   7.686  1.9768  1.5901 -1.7957
29633SOL    HW296015   2.769  11.971   7.669  2.1432  1.2141  1.2426
29634SOL     OW96016   4.588   2.491   4.721 -0.7532 -0.2205 -0.2830
29634SOL    HW196017   4.569   2.464   4.810 -0.2703 -0.9202 -0.3839
29634SOL    HW296018   4.595   2.409   4.672 -1.3115  0.1678 -1.0245
29635SOL     OW96019   7.465   4.686  12.014 -0.2639 -0.3393 -0.2423
29635SOL    HW196020   7.412   4.620  11.969 -1.1224 -0.4064  0.8319
29635SOL    HW296021   7.534   4.708  11.951 -1.3144 -0.5568 -1.5115
29636SOL     OW96022   9.863   7.786   2.105  0.2198 -0.0527  0.4600
29636SOL    HW196023   9.909   7.725   2.047  0.0944 -0.5773  0.9028
29636SOL    HW296024   9.933   7.838   2.145  0.5407 -1.4487  1.8127
29637SOL     OW96025   1.998   6.852   6.229  0.7087  0.1075  0.2104
29637SOL    HW196026   1.933   6.911   6.191  1.4904  0.4701 -0.6048
29637SOL    HW296027   1.961   6.827   6.314 -0.0278  1.1051  0.2052
29638SOL     OW96028   2.490   1.730   8.345  0.1896 -0.0165 -0.1948
29638SOL    HW196029   2.399   1.700   8.337  0.2270 -0.0550 -0.4788
29638SOL    HW296030   2.536   1.687   8.273  0.1502  1.0789 -0.8903
29639SOL     OW96031  10.101   4.723   8.889  0.4073  0.5888  0.2278
29639SOL    HW196032  10.101   4.643   8.942  0.1324  0.4321 -0.0082
29639SOL    HW296033  10.188   4.726   8.851  0.8865  1.1163  1.3092
29640SOL     OW96034   5.486  11.043   7.780 -0.0309 -0.4038  0.2351
29640SOL    HW196035   5.538  11.090   7.715 -0.1445 -0.4876  0.0846
29640SOL    HW296036   5.398  11.040   7.744 -0.9015  2.4334  1.8206
29641SOL     OW96037   0.706  10.426  11.193 -0.4294 -0.1924  0.5924
29641SOL    HW196038   0.697  10.453  11.102 -1.7620  1.2580  1.1112
29641SOL    HW296039   0.618  10.397  11.218  0.4051 -2.8836  0.7727
29642SOL     OW96040   6.358   9.873   0.166  0.5658  0.7539 -0.6944
29642SOL    HW196041   6.441   9.917   0.148  0.8356 -0.0126 -1.4305
29642SOL    HW296042   6.310   9.878   0.084  0.4585 -0.0035 -0.6842
29643SOL     OW96043   3.367  11.929   0.831 -0.5665 -0.0106  0.0791
29643SOL    HW196044   3.408  11.892   0.752 -0.0586  0.6969  0.0039
29643SOL    HW296045   3.438  11.977   0.874 -1.0810  0.4029  0.4734
29644SOL     OW96046   5.812   0.798   8.002  0.5270  0.1676  0.0023
29644SOL    HW196047   5.880   0.732   7.995 -0.4887 -0.8070 -1.0674
29644SOL    HW296048   5.833   0.847   8.082  1.3605 -1.3629  0.7429
29645SOL     OW96049  10.774   6.659  10.946  0.3583 -0.0829 -0.2556
29645SOL    HW196050  10.792   6.569  10.975 -1.6011  0.1250  1.8840
29645SOL    HW296051  10.685   6.654  10.909  0.5198  0.8487 -0.7889
29646SOL     OW96052   1.777   0.116   2.543  0.2995 -0.1916 -0.3220
29646SOL    HW196053   1.684   0.114   2.565  0.5965  0.0009  1.0388
29646SOL    HW296054   1.822   0.109   2.628  1.5219 -0.0784 -0.9390
29647SOL     OW96055   8.108   8.695   1.731 -0.1833  0.2508  0.1250
29647SOL    HW196056   8.203   8.695   1.726 -0.2371  0.4466 -2.0138
29647SOL    HW296057   8.081   8.772   1.681 -1.4785 -0.1186  0.2031
29648SOL     OW96058   9.898   2.815   6.615  0.9231  0.2499 -0.2868
29648SOL    HW196059   9.922   2.743   6.556  1.0668  1.1174 -1.3053
29648SOL    HW296060   9.916   2.780   6.702 -2.4464 -2.3364 -0.4207
29649SOL     OW96061   4.787  11.927   0.511  0.0010 -0.3555 -0.6833
29649SOL    HW196062   4.695  11.903   0.520 -0.0688 -0.2646 -1.1580
29649SOL    HW296063   4.835  11.852   0.547 -0.2065 -1.2846 -2.2792
29650SOL     OW96064   2.001   5.238   5.716 -0.0058  0.1166  0.6787
29650SOL    HW196065   2.009   5.295   5.640  1.8496 -0.8612  0.0791
29650SOL    HW296066   1.986   5.298   5.789  2.0793  1.4585  0.0975
29651SOL     OW96067  11.088  11.532   4.064  0.1851  0.1169  0.1119
29651SOL    HW196068  11.137  11.554   4.143  0.9148  1.6276 -0.7304
29651SOL    HW296069  11.042  11.613   4.041 -1.1881 -0.7165 -0.2107
29652SOL     OW96070   5.849   3.205   9.732 -0.1514  0.1813  0.5844
29652SOL    HW196071   5.829   3.271   9.666  0.4177  1.1231  1.3232
29652SOL    HW296072   5.797   3.231   9.808 -1.1404 -1.1409  0.3928
29653SOL     OW96073   2.976   2.894  11.792 -0.0479  0.0336 -0.2089
29653SOL    HW196074   2.963   2.876  11.886  0.5924 -0.2459 -0.1662
29653SOL    HW296075   2.891   2.923  11.761 -1.0251 -2.4981 -0.1205
29654SOL     OW96076   4.474   9.812   0.110  0.6583  0.1085  0.5772
29654SOL    HW196077   4.465   9.776   0.198  2.1849 -0.2893  0.6062
29654SOL    HW296078   4.516   9.897   0.123  1.9657 -0.4507  0.1890
29655SOL     OW96079   2.666  12.244   2.854 -0.2486  0.1880  0.0340
29655SOL    HW196080   2.685  12.151   2.836 -1.0764  0.4172 -2.4214
29655SOL    HW296081   2.752  12.286   2.850  0.0269 -0.3285  0.2806
29656SOL     OW96082   9.542  11.645   4.712  0.3484  0.0806 -0.0490
29656SOL    HW196083   9.595  11.569   4.686  0.4337  0.1386 -0.0467
29656SOL    HW296084   9.464  11.607   4.752 -0.8090 -0.0521 -2.2974
29657SOL     OW96085   8.271   6.602   0.877  0.1429 -0.4084  0.4603
29657SOL    HW196086   8.198   6.542   0.861 -0.5087  0.4971 -0.0971
29657SOL    HW296087   8.229   6.688   0.886  1.2825  0.4436 -1.7324
29658SOL     OW96088  10.761   8.015   6.576  0.4353  0.4462  0.0129
29658SOL    HW196089  10.814   7.960   6.519 -1.3537 -0.0083 -1.3019
29658SOL    HW296090  10.750   7.963   6.656  1.6875  0.4295  0.1935
29659SOL     OW96091  10.437   4.251   8.863  0.4261  0.1355 -0.0656
29659SOL    HW196092  10.514   4.224   8.813  0.2627  0.1714 -0.3400
29659SOL    HW296093  10.388   4.307   8.803  0.2239  0.1732  0.1339
29660SOL     OW96094   8.617  10.724  12.864  0.5700  0.1215  0.7254
29660SOL    HW196095   8.672  10.761  12.933 -0.8954 -1.7202  3.0685
29660SOL    HW296096   8.537  10.697  12.909 -0.5090 -1.1543 -1.7348
29661SOL     OW96097   4.450  10.817   0.698  0.3374  0.5852  0.2607
29661SOL    HW196098   4.360  10.832   0.669  1.2480  0.7180 -2.8042
29661SOL    HW296099   4.457  10.866   0.780 -2.3737  0.4758  0.6417
29662SOL     OW96100   2.752   4.903   7.061  0.3200 -0.4969  0.2038
29662SOL    HW196101   2.727   4.837   7.126 -0.5845  0.4772  0.8949
29662SOL    HW296102   2.685   4.896   6.993  0.2736 -0.3642  0.2346
29663SOL     OW96103  11.510   9.716   2.288 -0.0935  1.0491 -0.5281
29663SOL    HW196104  11.424   9.754   2.305 -0.2850 -0.3107  1.9995
29663SOL    HW296105  11.501   9.674   2.202 -1.5784  1.8895 -0.8146
29664SOL     OW96106   3.655   0.832   4.141  0.1487  0.5409  0.5200
29664SOL    HW196107   3.645   0.737   4.137  1.1362  0.3949  1.2803
29664SOL    HW296108   3.569   0.863   4.171 -0.6520  0.0311 -1.1254
29665SOL     OW96109   9.323   6.706   7.934  0.1474  0.3150 -0.3335
29665SOL    HW196110   9.258   6.774   7.914 -1.3550 -0.5413  1.3593
29665SOL    HW296111   9.275   6.623   7.925  1.4246 -0.4322 -0.5172
29666SOL     OW96112  11.062   6.216   0.765 -0.1448 -0.7088 -0.4579
29666SOL    HW196113  11.016   6.136   0.738 -1.2792 -0.2437  0.0290
29666SOL    HW296114  11.005   6.255   0.831 -0.3361  1.2604 -1.7050
29667SOL     OW96115  11.644   5.009   6.634  0.3226 -0.3785  0.4072
29667SOL    HW196116  11.590   4.981   6.560  1.2358 -1.5689  0.1716
29667SOL    HW296117  11.661   5.102   6.618 -0.0723 -0.4579 -0.5039
29668SOL     OW96118  10.363   4.808   2.116  0.0421  0.3634 -0.6426
29668SOL    HW196119  10.414   4.872   2.067  1.0621  1.5551  1.8144
29668SOL    HW296120  10.427   4.747   2.151 -0.3734  0.7894  0.9395
29669SOL     OW96121  11.685   1.782   7.598 -0.6240 -0.3670 -0.6743
29669SOL    HW196122  11.599   1.739   7.591  0.1714 -2.6535  1.7187
29669SOL    HW296123  11.745   1.710   7.620  1.1192  1.7284  2.0552
29670SOL     OW96124   9.336  10.560  11.172  0.4635  0.2169  0.1946
29670SOL    HW196125   9.263  10.621  11.162  0.5722  0.1030 -1.6966
29670SOL    HW296126   9.298  10.485  11.216 -0.2274  0.7241  0.4882
29671SOL     OW96127  12.773   3.641  10.691  0.2583  0.4885 -0.2752
29671SOL    HW196128  12.694   3.587  10.692  0.7224 -0.2102 -0.6044
29671SOL    HW296129  12.801   3.647  10.782  1.8396 -2.3087 -0.4596
29672SOL     OW96130   4.850   7.268   9.191 -0.1206  0.4014 -0.1121
29672SOL    HW196131   4.829   7.236   9.102  0.7720  0.4609 -0.3496
29672SOL    HW296132   4.784   7.335   9.208 -2.3496 -1.7885  0.5669
29673SOL     OW96133  12.528  10.976  12.281  0.2561 -0.0386  0.0108
29673SOL    HW196134  12.490  10.896  12.244  0.0912 -0.2075  0.5374
29673SOL    HW296135  12.464  11.005  12.345  0.2980  0.5442 -0.2111
29674SOL     OW96136   2.810   1.403   5.265 -0.0839 -0.1545  0.3648
29674SOL    HW196137   2.786   1.383   5.175  0.4652  0.2485  0.1197
29674SOL    HW296138   2.727   1.421   5.309 -0.3205  0.1270 -0.1833
29675SOL     OW96139  10.970   4.899  11.035 -0.0232  0.3068 -0.2899
29675SOL    HW196140  11.008   4.818  10.999  0.7478  0.7000 -0.3947
29675SOL    HW296141  10.881   4.901  11.001 -0.9951 -1.8566  1.9007
29676SOL     OW96142  10.474  12.734   8.164  0.0139  0.2142 -0.3037
29676SOL    HW196143  10.496  12.669   8.231  0.6488 -0.3061 -0.9968
29676SOL    HW296144  10.471  12.817   8.212  0.8140 -0.0950  0.3141
29677SOL     OW96145   9.872   1.819   3.130  0.3208  0.3453  0.5378
29677SOL    HW196146   9.925   1.826   3.050  2.2927 -0.9838  1.6415
29677SOL    HW296147   9.857   1.725   3.140 -0.5854  0.5657  1.3175
29678SOL     OW96148   0.283  10.906  11.833 -0.0162 -0.2484  0.0174
29678SOL    HW196149   0.357  10.848  11.850 -0.1749 -0.0008  1.7192
29678SOL    HW296150   0.318  10.994  11.848  0.5046  0.3190 -3.4845
29679SOL     OW96151   7.003   9.460   9.967 -0.3058 -0.0081  0.0864
29679SOL    HW196152   6.949   9.381   9.953 -0.9273  0.9323 -4.0484
29679SOL    HW296153   7.089   9.436   9.932  0.3015  0.3309  1.3241
29680SOL     OW96154   2.789  12.335  10.774  0.3122  0.9898  0.1245
29680SOL    HW196155   2.836  12.253  10.788  1.3226  1.4236 -0.5800
29680SOL    HW296156   2.699  12.308  10.755  0.7175  0.0076 -0.4987
29681SOL     OW96157   0.628  12.587   0.343  0.4231  0.6684  0.3816
29681SOL    HW196158   0.666  12.582   0.256 -1.7046  1.8640 -0.7015
29681SOL    HW296159   0.678  12.656   0.388  0.8573  0.7781 -0.2641
29682SOL     OW96160   3.806   1.605   9.832 -0.0115 -0.2839 -0.0190
29682SOL    HW196161   3.720   1.568   9.814  0.2782 -1.2307  0.4689
29682SOL    HW296162   3.791   1.699   9.839 -0.8895 -0.3747 -0.5841
29683SOL     OW96163   8.536   7.710   0.347  0.3094  0.2444 -0.3262
29683SOL    HW196164   8.555   7.689   0.256  1.1195  0.0586 -0.1215
29683SOL    HW296165   8.578   7.795   0.361  0.8173 -0.0725  0.0788
29684SOL     OW96166   3.425   6.063   9.479  0.0349  0.1494  0.1459
29684SOL    HW196167   3.351   6.041   9.535 -1.5673 -1.0815 -2.2709
29684SOL    HW296168   3.398   6.141   9.432  1.0045  0.6707  0.4247
29685SOL     OW96169   6.525   7.379   9.040 -0.2568 -0.4139 -0.1535
29685SOL    HW196170   6.591   7.416   9.100 -0.2763 -1.5553  0.5993
29685SOL    HW296171   6.546   7.286   9.036 -1.0529 -0.5733 -0.9265
29686SOL     OW96172  11.350   6.365   5.420 -0.4205  0.3899 -0.4130
29686SOL    HW196173  11.280   6.386   5.483 -1.5927  0.2067 -1.6047
29686SOL    HW296174  11.320   6.285   5.377 -0.3932  1.3052 -2.2193
29687SOL     OW96175   4.381   6.193  10.908  0.2771  0.0103  0.2917
29687SOL    HW196176   4.349   6.162  10.824 -2.4121 -0.9509  1.5425
29687SOL    HW296177   4.343   6.132  10.972  0.0309  2.1782  2.3711
29688SOL     OW96178   9.549   2.993  11.316 -0.6499  0.5521 -0.0466
29688SOL    HW196179   9.466   2.979  11.270 -0.8270 -0.2302  0.4790
29688SOL    HW296180   9.591   2.906  11.316 -0.0367  0.8404  0.0873
29689SOL     OW96181   2.842   3.634   7.655 -0.1703 -0.2270 -0.5293
29689SOL    HW196182   2.782   3.604   7.586 -1.7883  0.9118  0.3203
29689SOL    HW296183   2.792   3.700   7.703  0.0424 -2.4041  3.0954
29690SOL     OW96184  12.336   3.965  11.568 -0.2633 -0.4468 -0.0371
29690SOL    HW196185  12.349   4.030  11.499  0.2983 -1.2124 -0.6728
29690SOL    HW296186  12.318   3.884  11.521  1.7941 -1.3628  0.6423
29691SOL     OW96187   6.276  10.747   9.820  0.2202  0.2332  0.7922
29691SOL    HW196188   6.331  10.694   9.763 -0.0243  0.9675 -0.1574
29691SOL    HW296189   6.209  10.782   9.762 -1.0860 -0.3896  1.8557
29692SOL     OW96190   6.765   8.414   2.872 -0.4680 -0.2524 -0.1678
29692SOL    HW196191   6.696   8.468   2.912 -0.8581  0.4704 -1.7445
29692SOL    HW296192   6.743   8.413   2.779  1.3143 -0.5283 -0.6122
29693SOL     OW96193   6.642  10.909   7.153  0.1491 -0.3197  0.1047
29693SOL    HW196194   6.637  10.836   7.214  0.2564 -0.6464 -0.2755
29693SOL    HW296195   6.692  10.976   7.199 -0.6888 -0.1520  0.7851
29694SOL     OW96196   5.148   8.272  11.359 -0.2526  0.2678 -0.7318
29694SOL    HW196197   5.185   8.352  11.396  0.8913 -0.4241 -0.3494
29694SOL    HW296198   5.184   8.201  11.412 -2.0835 -0.4673 -0.3911
29695SOL     OW96199   4.402   0.884   7.476 -0.1802  0.3781  0.3539
29695SOL    HW196200   4.407   0.789   7.484  0.5620  0.4028  0.2334
29695SOL    HW296201   4.311   0.905   7.495  0.2537 -0.0634  3.2985
29696SOL     OW96202   7.332   3.743   3.691  0.5266  0.5021  0.4329
29696SOL    HW196203   7.251   3.699   3.667  0.1848 -0.5103  3.1046
29696SOL    HW296204   7.400   3.694   3.645 -0.1373 -0.7059  0.6929
29697SOL     OW96205  10.512   5.681  11.772  0.1379  0.4069 -0.1234
29697SOL    HW196206  10.498   5.676  11.867  0.2015 -0.4473 -0.1525
29697SOL    HW296207  10.565   5.761  11.761 -0.3140  0.8065  0.4974
29698SOL     OW96208   6.216  11.107   9.554  0.0993  0.5421  0.3270
29698SOL    HW196209   6.134  11.156   9.557 -0.2720  0.0578 -1.1359
29698SOL    HW296210   6.284  11.173   9.568 -0.2491  1.9641 -3.4606
29699SOL     OW96211   8.301   7.775  10.313  1.2671 -0.0377  0.0512
29699SOL    HW196212   8.345   7.727  10.384 -0.3785 -1.8997 -0.1092
29699SOL    HW296213   8.269   7.855  10.355  0.3095 -1.1187  1.4464
29700SOL     OW96214   7.297   5.956   2.576  0.5069 -0.7798 -0.0256
29700SOL    HW196215   7.351   6.001   2.641 -1.7215  0.5656  1.0104
29700SOL    HW296216   7.241   5.897   2.628 -2.7111  1.7385 -0.3018
29701SOL     OW96217   1.169   5.327   2.065  0.8787 -0.1200  0.3330
29701SOL    HW196218   1.186   5.418   2.043  1.7022 -0.4137 -0.3489
29701SOL    HW296219   1.163   5.282   1.980 -1.4750 -0.4083  0.5802
29702SOL     OW96220  10.344   3.707   0.364  0.2549  0.2316 -0.3470
29702SOL    HW196221  10.321   3.619   0.395 -0.2056  0.2553 -0.6092
29702SOL    HW296222  10.416   3.734   0.421  1.1773 -0.7688 -0.9857
29703SOL     OW96223   7.447   0.552   4.618 -0.0504 -0.0515  0.4253
29703SOL    HW196224   7.396   0.561   4.537  2.1825 -0.2824 -1.1213
29703SOL    HW296225   7.398   0.603   4.683 -0.0187  3.5675 -2.0527
29704SOL     OW96226   2.549   1.070   3.117 -0.4137  0.2987  0.2806
29704SOL    HW196227   2.510   0.986   3.095 -0.8602  0.1119  1.6814
29704SOL    HW296228   2.636   1.047   3.150  0.0099  0.5183 -0.6604
29705SOL     OW96229   5.988  10.015   2.876  0.2103  0.4028 -0.1105
29705SOL    HW196230   5.902  10.031   2.914  0.0435 -0.8241  0.0592
29705SOL    HW296231   5.999  10.085   2.812 -0.1827  1.5546  1.0476
29706SOL     OW96232  12.750  10.460   3.039  0.4301 -0.2004 -0.4670
29706SOL    HW196233  12.806  10.474   2.963 -1.1180  1.5671 -1.3697
29706SOL    HW296234  12.714  10.372   3.025  2.1627 -0.9682 -0.3613
29707SOL     OW96235   1.376  12.239   4.702 -0.5412 -0.3121 -0.0447
29707SOL    HW196236   1.412  12.151   4.694 -0.9761 -0.4233 -0.8082
29707SOL    HW296237   1.284  12.230   4.679 -0.7970  0.1834  0.7738
29708SOL     OW96238  11.622   1.742  12.917 -0.0133 -0.0701  0.2204
29708SOL    HW196239  11.578   1.659  12.939 -0.3019 -0.1917 -0.7821
29708SOL    HW296240  11.712   1.730  12.947  0.0429 -0.8898 -0.2303
29709SOL     OW96241   1.248   7.067   9.939  0.0850 -0.1812 -0.0339
29709SOL    HW196242   1.275   6.977   9.923 -0.6702 -0.4055 -0.1069
29709SOL    HW296243   1.210   7.065  10.027  0.3056  0.1212  0.0680
29710SOL     OW96244   4.524   6.767  11.821  0.3708  0.3967  0.0596
29710SOL    HW196245   4.500   6.859  11.821  0.0526  0.3140 -0.5533
29710SOL    HW296246   4.612   6.765  11.859  1.1260  1.1413 -1.5596
29711SOL     OW96247   4.917   9.668   2.780  0.7457  0.0731 -0.3685
29711SOL    HW196248   4.938   9.594   2.723 -1.6938  0.0002 -1.3025
29711SOL    HW296249   4.911   9.743   2.721 -1.0136  0.1582 -0.1292
29712SOL     OW96250   2.508   5.361   6.477 -0.1939 -0.1873 -0.7013
29712SOL    HW196251   2.501   5.306   6.399 -1.9881  2.3547 -2.4684
29712SOL    HW296252   2.418   5.370   6.509  0.5413 -1.8141  2.2875
29713SOL     OW96253   3.226   0.460   2.143  0.0747 -0.2508 -0.7167
29713SOL    HW196254   3.256   0.370   2.130  2.7230  0.0727  2.0560
29713SOL    HW296255   3.159   0.473   2.076 -1.4258 -4.6857 -0.3543
29714SOL     OW96256   0.723   3.828   2.680  0.1257  0.1403  0.1330
29714SOL    HW196257   0.666   3.874   2.742 -0.6025 -0.5672  0.0103
29714SOL    HW296258   0.796   3.888   2.665  0.1221  0.4818  1.3813
29715SOL     OW96259   9.351   8.243   1.066 -0.7439  0.7563 -0.6093
29715SOL    HW196260   9.404   8.314   1.102 -0.8395  1.2893 -1.4929
29715SOL    HW296261   9.301   8.284   0.995 -1.4368 -0.0080 -0.5809
29716SOL     OW96262   5.851   7.300   9.900 -0.2749  0.4475  0.1798
29716SOL    HW196263   5.782   7.344   9.850  0.3285  1.1046 -0.0812
29716SOL    HW296264   5.822   7.306   9.991 -2.3828 -2.4798 -0.1338
29717SOL     OW96265   2.216   5.755   8.898  0.3921  0.0429  0.1231
29717SOL    HW196266   2.186   5.832   8.946  1.4085  0.2429  0.4639
29717SOL    HW296267   2.292   5.724   8.948  0.4389 -0.7437 -0.4233
29718SOL     OW96268  12.678  12.831   3.443 -0.0515  0.3776  0.1943
29718SOL    HW196269  12.639  12.859   3.361  0.2508 -0.5315 -0.2747
29718SOL    HW296270  12.604  12.807   3.498 -0.2094 -0.6919 -0.4512
29719SOL     OW96271   7.273   6.514   2.453 -0.6671 -0.0536 -0.5610
29719SOL    HW196272   7.348   6.527   2.510 -0.6448 -1.5118 -0.2362
29719SOL    HW296273   7.261   6.599   2.410 -0.4711  0.9904  1.3231
29720SOL     OW96274   8.329   3.700   9.225  0.4338 -0.0535 -0.0584
29720SOL    HW196275   8.278   3.701   9.144  1.0561 -1.0003 -0.4759
29720SOL    HW296276   8.274   3.653   9.287 -0.4180  1.4119  0.3490
29721SOL     OW96277   6.798   8.369   5.748  0.0717 -0.9599 -0.6906
29721SOL    HW196278   6.710   8.402   5.764  0.1047 -0.5666 -1.2819
29721SOL    HW296279   6.813   8.385   5.655  1.4594  0.6865 -0.2376
29722SOL     OW96280   4.735   5.443   7.794 -0.2138 -0.1501 -0.3497
29722SOL    HW196281   4.816   5.470   7.751 -0.4176 -0.4171 -0.9194
29722SOL    HW296282   4.719   5.509   7.861  1.5407 -1.1463  1.1332
29723SOL     OW96283   6.407   0.658   7.668 -0.8313 -0.3371  0.0307
29723SOL    HW196284   6.328   0.706   7.691 -1.6037 -0.8923 -1.3424
29723SOL    HW296285   6.429   0.688   7.580 -0.3383 -1.2423 -0.1730
29724SOL     OW96286   2.440   9.197   1.121 -0.3496  0.0681  0.3313
29724SOL    HW196287   2.490   9.116   1.109 -0.2562  0.2734 -0.8323
29724SOL    HW296288   2.494   9.250   1.180  1.7772  1.0010 -2.2132
29725SOL     OW96289  12.505   6.752   7.316  0.2511 -0.5358  0.1030
29725SOL    HW196290  12.464   6.837   7.330  0.1726 -0.5458 -0.0740
29725SOL    HW296291  12.448   6.707   7.255  0.5986 -0.4960 -0.2554
29726SOL     OW96292  10.426   0.334   7.973  0.7328 -1.0425 -0.1114
29726SOL    HW196293  10.438   0.412   8.026 -0.9248 -0.7691 -0.0967
29726SOL    HW296294  10.389   0.269   8.033 -0.1424 -1.0643 -0.6491
29727SOL     OW96295  11.460   9.653   6.991 -0.0575  0.1505  0.7598
29727SOL    HW196296  11.439   9.561   6.973 -0.2825  0.4764 -0.8042
29727SOL    HW296297  11.446   9.697   6.907  1.1290  1.4268  1.2016
29728SOL     OW96298   3.860   1.938   3.471  0.0796  0.0952  0.1614
29728SOL    HW196299   3.883   1.996   3.399 -0.5874 -0.5005 -0.5384
29728SOL    HW296300   3.941   1.892   3.492 -0.2137 -1.3826 -1.7297
29729SOL     OW96301   1.092   3.113  12.801 -0.2338  0.7920  0.3555
29729SOL    HW196302   1.159   3.045  12.803 -0.6572  0.2337 -1.9285
29729SOL    HW296303   1.018   3.076  12.849 -0.8315 -0.8699 -1.6934
29730SOL     OW96304   5.447   9.414   3.986  0.0456 -0.2872  0.2172
29730SOL    HW196305   5.405   9.331   4.005  0.2917 -0.6972 -0.9601
29730SOL    HW296306   5.538   9.403   4.015  0.6961 -1.2782 -2.0244
29731SOL     OW96307   0.832  12.731   1.518  0.0993  0.1651  0.7655
29731SOL    HW196308   0.881  12.775   1.587  0.0315  0.6642  0.4977
29731SOL    HW296309   0.897  12.677   1.473 -0.0170 -0.8220  1.7382
29732SOL     OW96310  10.232   5.733   9.063  0.0538  0.0977  0.6462
29732SOL    HW196311  10.184   5.770   8.989 -0.7117  0.3099  1.2277
29732SOL    HW296312  10.253   5.644   9.036 -1.7407 -0.4270  0.8119
29733SOL     OW96313   7.059   4.329   9.476 -0.0041 -0.0931 -0.1033
29733SOL    HW196314   7.038   4.383   9.400 -0.6240 -0.0097  0.1189
29733SOL    HW296315   7.040   4.240   9.448  0.2033 -0.1120 -0.1892
29734SOL     OW96316  11.218  12.544  10.952  0.5668  0.5250  0.0743
29734SOL    HW196317  11.293  12.586  10.995  2.6564  0.1979 -2.9561
29734SOL    HW296318  11.159  12.617  10.931  2.9924  1.8595 -2.9089
29735SOL     OW96319   1.890  10.472   1.479  0.0289  0.2812  0.3225
29735SOL    HW196320   1.809  10.454   1.527 -0.5815 -0.3172 -0.8815
29735SOL    HW296321   1.945  10.395   1.494 -0.6702 -0.4907 -0.9389
29736SOL     OW96322   9.502   5.004   0.258  1.0942 -0.1676 -0.2653
29736SOL    HW196323   9.512   5.094   0.226  0.1822 -0.8272 -2.6105
29736SOL    HW296324   9.591   4.969   0.257  1.1142 -0.2262 -2.5370
29737SOL     OW96325   1.712   7.416   5.809  0.5322 -0.1606  0.2840
29737SOL    HW196326   1.792   7.381   5.770  1.2298  2.9508 -1.3855
29737SOL    HW296327   1.643   7.356   5.780  1.9638 -1.8341  0.1655
29738SOL     OW96328   1.965   6.456   7.538 -0.5647  0.2397 -0.7670
29738SOL    HW196329   1.932   6.377   7.495 -1.2587 -1.1078  1.9933
29738SOL    HW296330   2.060   6.450   7.528 -0.6993  0.0794 -2.1901
29739SOL     OW96331  12.831   2.121   6.385  0.3253 -0.3146 -0.0863
29739SOL    HW196332  12.822   2.216   6.374 -1.3176 -0.3431  0.7038
29739SOL    HW296333  12.824   2.086   6.296 -0.2818  0.2434 -0.2674
29740SOL     OW96334   0.585   1.854   0.470  0.4219  0.5247  0.1463
29740SOL    HW196335   0.624   1.918   0.411  0.0972  1.9406  1.4014
29740SOL    HW296336   0.657   1.795   0.492  0.8577  0.7505 -0.6316
29741SOL     OW96337   4.787   6.332   1.739 -0.1159 -0.1709  0.0445
29741SOL    HW196338   4.736   6.320   1.819  0.6919 -2.1709  0.3349
29741SOL    HW296339   4.852   6.262   1.742 -0.0132 -0.2605 -2.3206
29742SOL     OW96340   0.279  11.587   8.632  0.4088  0.0013 -0.3185
29742SOL    HW196341   0.306  11.632   8.552 -1.2671  0.2475 -0.7813
29742SOL    HW296342   0.290  11.494   8.612  0.6927  0.0847 -0.5636
29743SOL     OW96343   1.311   0.277   2.668  0.0995  0.0804 -0.0532
29743SOL    HW196344   1.280   0.360   2.633 -1.4177  0.0892  1.2252
29743SOL    HW296345   1.302   0.285   2.762 -1.3996 -2.0108  0.0533
29744SOL     OW96346  12.525   7.042   9.158  0.5606  0.0111 -0.2128
29744SOL    HW196347  12.482   6.958   9.148 -1.2928  0.2486  3.8116
29744SOL    HW296348  12.477   7.101   9.100 -1.7452 -0.6717  0.9044
29745SOL     OW96349   8.147   7.115   6.779 -0.1710 -0.0007 -0.1880
29745SOL    HW196350   8.156   7.200   6.737  1.1576 -0.6199 -1.2207
29745SOL    HW296351   8.168   7.131   6.871 -1.0580  0.9818 -0.1390
29746SOL     OW96352   3.045   2.789   9.923 -0.2326 -0.1015  0.2501
29746SOL    HW196353   2.966   2.828   9.960 -0.4030 -1.3519  1.2665
29746SOL    HW296354   3.023   2.773   9.831 -1.5755 -1.4275  0.7696
29747SOL     OW96355   4.439  12.195   8.772  0.1021 -0.6137 -0.2412
29747SOL    HW196356   4.514  12.136   8.776 -0.1490 -0.9075  0.2287
29747SOL    HW296357   4.378  12.151   8.712  0.5574 -0.0648 -1.1396
29748SOL     OW96358   4.922   0.191  10.059 -0.1672 -0.6735  0.3832
29748SOL    HW196359   4.958   0.266  10.012 -1.4849  0.3031  0.8521
29748SOL    HW296360   4.978   0.118  10.034  0.3061  0.1781 -1.2203
29749SOL     OW96361   9.582   8.222   5.794  0.2303 -0.2540 -0.0238
29749SOL    HW196362   9.617   8.140   5.759  0.9682 -0.1821  0.5199
29749SOL    HW296363   9.627   8.234   5.877 -0.7470  0.1026  0.4751
29750SOL     OW96364  12.749   6.597   0.917 -0.1020  0.3806  0.2548
29750SOL    HW196365  12.710   6.545   0.847 -0.5051  0.3141  0.5190
29750SOL    HW296366  12.681   6.598   0.986  0.3100  0.3889  0.6640
29751SOL     OW96367   3.395   7.626  11.585 -0.0531  0.1733  0.0642
29751SOL    HW196368   3.483   7.646  11.551  0.0197  1.8292  1.0924
29751SOL    HW296369   3.378   7.536  11.558  1.1631  0.4729 -1.8221
29752SOL     OW96370  11.615   9.218   2.753  0.4907  0.1302 -0.2862
29752SOL    HW196371  11.673   9.271   2.699  1.3605 -0.3268  0.1672
29752SOL    HW296372  11.649   9.129   2.744  0.0795 -0.0907  0.2857
29753SOL     OW96373  10.106   5.715  12.309  0.2010 -0.0773  0.0360
29753SOL    HW196374  10.067   5.790  12.265  2.8656  0.7099 -1.2347
29753SOL    HW296375  10.074   5.721  12.399 -2.7434  0.2293 -0.9452
29754SOL     OW96376   5.319   6.209   9.157 -0.4519  0.3260  0.6443
29754SOL    HW196377   5.279   6.127   9.129 -2.8106  2.2649 -2.2463
29754SOL    HW296378   5.413   6.194   9.147 -0.5713 -2.8376  2.9679
29755SOL     OW96379   1.000  10.328   9.873  0.2347 -0.1575  0.0217
29755SOL    HW196380   1.046  10.324   9.789 -2.1405 -1.3110 -1.3239
29755SOL    HW296381   0.994  10.422   9.893  1.3178  0.1029 -0.8009
29756SOL     OW96382   6.665   1.014   2.346 -0.0257 -0.2558  0.6313
29756SOL    HW196383   6.610   0.977   2.277 -0.5454 -0.0639  0.9363
29756SOL    HW296384   6.629   1.102   2.361  1.1087  0.3403  0.0025
29757SOL     OW96385   3.807   4.885  12.746 -0.3496 -0.3004  0.2309
29757SOL    HW196386   3.795   4.974  12.779 -0.4515 -0.6567  1.2067
29757SOL    HW296387   3.777   4.888  12.655  2.4215  1.3610 -0.7336
29758SOL     OW96388   0.711   5.179   3.166 -0.7270 -0.0297  0.0938
29758SOL    HW196389   0.802   5.177   3.196 -0.7878  2.7349  0.6899
29758SOL    HW296390   0.659   5.161   3.244 -0.7662 -1.8515 -0.2926
29759SOL     OW96391   7.816   6.051   8.776 -0.4641  0.4819 -0.0100
29759SOL    HW196392   7.867   6.091   8.847  1.5443  1.0319 -1.6509
29759SOL    HW296393   7.836   6.105   8.700  0.0011 -1.9035 -1.6863
29760SOL     OW96394  12.834   4.761   6.057  0.3723 -0.0907 -0.3385
29760SOL    HW196395  12.919   4.789   6.022  0.9304  0.1672  1.1712
29760SOL    HW296396  12.837   4.666   6.054  1.1074 -0.1060  0.5713
29761SOL     OW96397   3.237   3.535  11.857  0.6968 -0.0058 -0.2580
29761SOL    HW196398   3.203   3.446  11.867 -1.3088  0.6547 -0.7836
29761SOL    HW296399   3.171   3.590  11.900  0.4722  1.4424 -2.3306
29762SOL     OW96400   9.419  12.028   4.630 -0.2482  0.1383 -0.3094
29762SOL    HW196401   9.453  12.101   4.681  0.3033 -0.2178 -0.1638
29762SOL    HW296402   9.372  11.974   4.694 -1.3845  0.7898 -0.5619
29763SOL     OW96403   9.327   4.015   8.861 -0.1386 -0.0484  0.5325
29763SOL    HW196404   9.245   3.966   8.871 -0.5898  0.6401  0.3330
29763SOL    HW296405   9.302   4.106   8.879  0.7566  0.0666  1.2787
29764SOL     OW96406  10.360   6.256   8.061  0.4171 -0.0066  0.8213
29764SOL    HW196407  10.342   6.218   8.147 -1.0973  0.6949  0.8537
29764SOL    HW296408  10.431   6.318   8.077  0.4027 -0.1479  1.4854
29765SOL     OW96409   8.199   8.793   6.020 -0.1462 -0.5349  0.0630
29765SOL    HW196410   8.206   8.698   6.006 -1.6750 -0.5690 -0.7776
29765SOL    HW296411   8.277   8.830   5.980 -0.2284 -1.3459 -0.8815
29766SOL     OW96412  10.649   7.948   1.805 -0.0305  0.2593  0.4283
29766SOL    HW196413  10.621   7.995   1.883 -0.4723  2.3994 -0.9443
29766SOL    HW296414  10.727   7.995   1.775  1.0068 -1.4159  0.3428
29767SOL     OW96415   0.887  10.803   3.679 -0.4891 -0.2861  0.2268
29767SOL    HW196416   0.946  10.822   3.606 -2.0587 -0.1823 -1.0826
29767SOL    HW296417   0.941  10.814   3.757  0.7895  1.4191 -0.8250
29768SOL     OW96418   1.488   9.146   2.694  0.5122  0.4731  0.2869
29768SOL    HW196419   1.583   9.132   2.701  0.4683 -1.0347 -1.3846
29768SOL    HW296420   1.450   9.059   2.696 -0.8635  1.0606  0.9143
29769SOL     OW96421   0.625   6.566   0.593 -0.3403 -0.3162 -0.5342
29769SOL    HW196422   0.696   6.530   0.540 -0.0098  0.1875 -0.4414
29769SOL    HW296423   0.564   6.603   0.530  0.4227  0.9617 -0.5486
29770SOL     OW96424   9.260   9.711   7.072 -0.3200  0.0209 -0.1388
29770SOL    HW196425   9.215   9.742   6.994 -1.1950 -0.3745  0.1904
29770SOL    HW296426   9.280   9.619   7.053  0.8667  0.3400 -0.5008
29771SOL     OW96427   2.075   9.966   4.344 -0.3185 -0.0727  0.6974
29771SOL    HW196428   2.140   9.959   4.414 -2.0006 -1.6304  2.2235
29771SOL    HW296429   2.025  10.045   4.366  1.1131  1.2950 -0.6391
29772SOL     OW96430   1.214   2.377  10.749  0.1772  0.0142  0.2288
29772SOL    HW196431   1.279   2.328  10.799  0.5450  0.1813 -0.0799
29772SOL    HW296432   1.166   2.427  10.815  0.8337  0.4402  0.3961
29773SOL     OW96433   3.267  12.107   8.567 -0.4567  0.7341  0.4111
29773SOL    HW196434   3.203  12.104   8.496  0.3066 -1.0291 -0.2644
29773SOL    HW296435   3.330  12.039   8.545 -0.1727  0.1437  2.7703
29774SOL     OW96436  10.328   8.687   5.314  0.5290  0.2560  0.7496
29774SOL    HW196437  10.423   8.673   5.317  0.6330  0.7505  0.1361
29774SOL    HW296438  10.314   8.769   5.361  0.8397  2.0079 -2.0029
29775SOL     OW96439   3.578   5.417  12.444 -0.1774 -0.0661  0.8145
29775SOL    HW196440   3.644   5.367  12.397 -0.7089  0.4682 -0.5661
29775SOL    HW296441   3.542   5.355  12.508  0.2294 -0.9800  0.1855
29776SOL     OW96442   4.020   4.092   0.850 -0.4764 -0.0019  0.0425
29776SOL    HW196443   3.987   4.004   0.828 -1.2718  0.1741  0.4705
29776SOL    HW296444   3.958   4.151   0.807 -1.7805  0.3491  2.2326
29777SOL     OW96445  10.959   3.665  10.204  0.5618  0.1517 -0.0303
29777SOL    HW196446  10.931   3.680  10.294 -0.0232 -2.3797  0.2891
29777SOL    HW296447  10.881   3.632  10.159  1.4870 -1.1596 -0.7481
29778SOL     OW96448   2.317  12.794  10.206  0.2131 -0.2802 -0.4409
29778SOL    HW196449   2.342  12.752  10.288 -1.2139  0.7901  0.6187
29778SOL    HW296450   2.240  12.744  10.176 -0.1095  0.1674 -0.3749
29779SOL     OW96451   2.135  10.571   6.618  0.0267 -0.0405 -0.1331
29779SOL    HW196452   2.216  10.590   6.571  1.0577 -2.8286  0.3557
29779SOL    HW296453   2.163  10.531   6.700 -1.7664 -2.8673 -0.7586
29780SOL     OW96454  10.087   8.353   1.758  0.8620  0.3322  0.0196
29780SOL    HW196455  10.169   8.306   1.750  1.0704  0.7210 -0.1472
29780SOL    HW296456  10.091   8.394   1.844  1.2274  1.0635 -0.3333
29781SOL     OW96457   4.503  12.578   1.449  0.1033  0.8682  0.4027
29781SOL    HW196458   4.454  12.526   1.512  0.4108  1.4212  1.1209
29781SOL    HW296459   4.438  12.605   1.384 -0.4437  1.1682  1.0607
29782SOL     OW96460   8.700   8.996   5.023  0.1332 -0.1262  0.5297
29782SOL    HW196461   8.693   8.943   5.102 -1.0012 -0.5901  0.1376
29782SOL    HW296462   8.782   8.970   4.983  0.4509 -0.2809  1.2632
29783SOL     OW96463   3.806   4.776   0.599  1.1470  0.1185 -0.1045
29783SOL    HW196464   3.778   4.788   0.690 -1.5404 -1.9084 -0.5383
29783SOL    HW296465   3.729   4.739   0.555  2.7706 -0.1757 -2.9268
29784SOL     OW96466   7.509  11.044   2.983  0.2100 -0.4076  0.3943
29784SOL    HW196467   7.563  10.967   2.964 -0.4623 -0.7676 -0.1027
29784SOL    HW296468   7.568  11.118   2.969  0.7668 -0.8161  0.5342
29785SOL     OW96469   7.406   4.898   5.447 -0.4097  0.0598  0.3495
29785SOL    HW196470   7.474   4.889   5.381  0.9922  0.7689  1.6180
29785SOL    HW296471   7.330   4.851   5.411  0.8208 -0.9884 -0.9965
29786SOL     OW96472   4.394   2.075  11.641  0.0596  0.8038  0.1477
29786SOL    HW196473   4.439   2.136  11.699 -0.2981 -1.2424  2.7618
29786SOL    HW296474   4.439   1.991  11.654 -2.3871 -0.5775  0.3910
29787SOL     OW96475   1.019   0.081   3.428 -0.0565  0.1937  0.2239
29787SOL    HW196476   1.052   0.144   3.364 -1.0711  0.7616  0.2286
29787SOL    HW296477   0.956   0.028   3.379 -1.5987  1.2850  0.9362
29788SOL     OW96478   5.191   5.577  10.951  0.0268 -0.5154  0.1719
29788SOL    HW196479   5.232   5.603  11.033 -1.8452  0.5268  0.8323
29788SOL    HW296480   5.240   5.499  10.924  1.5167 -0.1307  1.5822
29789SOL     OW96481  10.926   9.851  11.436 -0.1054 -0.2224 -0.0109
29789SOL    HW196482  10.969   9.782  11.386 -0.2942  1.1809 -2.2556
29789SOL    HW296483  10.990   9.922  11.439 -0.1003 -0.2657  1.8100
29790SOL     OW96484   8.849   2.081  10.728 -0.2226  0.4955 -0.2986
29790SOL    HW196485   8.797   2.085  10.808  0.3259  0.5094  0.0602
29790SOL    HW296486   8.933   2.117  10.752  0.0804  0.1251 -0.7776
29791SOL     OW96487   9.452   6.698   1.128 -0.4578  0.4187 -0.2132
29791SOL    HW196488   9.369   6.745   1.122 -1.5183 -1.3114 -0.0326
29791SOL    HW296489   9.505   6.750   1.188 -1.5167  1.4256 -0.1114
29792SOL     OW96490   7.904   0.854   1.870  0.5043 -0.4459 -0.8437
29792SOL    HW196491   7.915   0.824   1.960 -0.8128  0.4594 -0.3371
29792SOL    HW296492   7.935   0.782   1.816 -0.6734 -1.9028  0.3187
29793SOL     OW96493  12.065   4.955   5.742  0.5156 -0.0686  0.2440
29793SOL    HW196494  11.987   4.982   5.791 -0.6785 -1.0511 -1.0026
29793SOL    HW296495  12.137   4.961   5.805 -0.6944  0.1342  1.6687
29794SOL     OW96496   5.442   8.686   7.628  0.1779  0.1314  0.0950
29794SOL    HW196497   5.439   8.614   7.692  1.8118  0.1964  0.2903
29794SOL    HW296498   5.426   8.643   7.544  2.4376 -0.7587  0.0393
29795SOL     OW96499  12.821  11.923   9.081  0.0918  0.1663 -0.2729
29795SOL    HW196500  12.913  11.896   9.074 -0.0079  0.1622 -1.9782
29795SOL    HW296501  12.772  11.841   9.081  0.0018  0.1975 -1.4831
29796SOL     OW96502   2.493   1.464   6.786  0.1530  0.5585 -0.1455
29796SOL    HW196503   2.444   1.394   6.830 -0.8225  0.7519 -0.8736
29796SOL    HW296504   2.510   1.528   6.855 -3.1690  1.8443 -0.3397
29797SOL     OW96505   1.595   7.343   3.006  0.4794 -0.4386  0.0614
29797SOL    HW196506   1.662   7.283   3.039  0.3788 -1.2827 -1.2333
29797SOL    HW296507   1.512   7.301   3.028  0.3315  0.5588  1.5740
29798SOL     OW96508   7.615   4.140  12.337 -0.0697 -0.2713 -0.0224
29798SOL    HW196509   7.689   4.183  12.293 -0.4931 -1.6622 -2.2382
29798SOL    HW296510   7.653   4.061  12.375 -0.6721 -2.3337 -3.2906
29799SOL     OW96511   8.231  12.110   8.590 -0.3054  0.6167 -0.1572
29799SOL    HW196512   8.258  12.186   8.641  0.4645 -0.8904  1.7675
29799SOL    HW296513   8.203  12.045   8.654 -3.1616  0.0067 -1.8228
29800SOL     OW96514   4.738   0.969   6.838  0.1072 -0.7702  0.4102
29800SOL    HW196515   4.823   0.926   6.839  0.4547 -0.1483 -0.6592
29800SOL    HW296516   4.730   1.005   6.750 -0.3664  0.9329  1.0999
29801SOL     OW96517   2.911  12.875   8.378 -0.2967  0.2771 -0.6214
29801SOL    HW196518   2.832  12.890   8.429 -1.0717  0.8274 -1.9492
29801SOL    HW296519   2.905  12.935   8.304  1.6377  0.7229 -0.4800
29802SOL     OW96520   1.634   2.949  10.168 -0.7205  0.2212  0.2892
29802SOL    HW196521   1.705   3.010  10.191 -1.0880  0.1138  1.8198
29802SOL    HW296522   1.554   2.999  10.185 -1.0138 -0.3466  0.6236
29803SOL     OW96523   6.628   2.889   7.437 -0.3808  0.2703  0.5553
29803SOL    HW196524   6.542   2.885   7.394  0.0279 -0.8317 -0.2318
29803SOL    HW296525   6.644   2.799   7.465  0.0849  0.6675  1.5841
29804SOL     OW96526   8.239   9.001  10.215  0.2701  0.1677  0.4550
29804SOL    HW196527   8.168   8.946  10.246 -1.4515  1.3557 -1.1788
29804SOL    HW296528   8.241   9.075  10.275  0.0665  0.1718  0.4563
29805SOL     OW96529   2.571  10.783   6.187 -0.0851  0.2547  0.4808
29805SOL    HW196530   2.523  10.861   6.158 -0.8552  0.3657  1.9692
29805SOL    HW296531   2.519  10.710   6.155  0.1200  0.3505 -0.0825
29806SOL     OW96532  10.534  11.440   3.298  0.6378  0.0628  0.0874
29806SOL    HW196533  10.516  11.347   3.282  1.8657  0.0592 -1.5746
29806SOL    HW296534  10.450  11.483   3.288  0.1795 -0.7802  0.1713
29807SOL     OW96535   6.343   7.193   2.882 -0.4624 -0.5898  0.4431
29807SOL    HW196536   6.437   7.200   2.895 -0.5884  2.2272  0.5178
29807SOL    HW296537   6.310   7.150   2.962  0.4274  1.9634  2.3354
29808SOL     OW96538   4.744   3.215   4.605  0.1487  0.4026 -0.1817
29808SOL    HW196539   4.785   3.193   4.688  1.7265  0.9289 -0.7812
29808SOL    HW296540   4.690   3.139   4.584  1.2940 -0.6071  0.3757
29809SOL     OW96541   1.654   8.724  10.705 -0.0770 -0.0910 -0.1935
29809SOL    HW196542   1.680   8.811  10.733  1.6631  0.2849 -2.6367
29809SOL    HW296543   1.703   8.664  10.761 -0.8612  0.4574  1.1315
29810SOL     OW96544   7.532   5.879   1.446  0.1759  0.2568  0.1008
29810SOL    HW196545   7.603   5.919   1.497  1.0087  0.0252 -0.8463
29810SOL    HW296546   7.520   5.938   1.372 -0.6177  0.2765  0.2366
29811SOL     OW96547   8.753   9.285   0.530  0.2169 -0.4333  0.3846
29811SOL    HW196548   8.675   9.239   0.500  0.2951 -0.2894 -0.0427
29811SOL    HW296549   8.794   9.318   0.450  0.4490 -0.0829  0.6438
29812SOL     OW96550   7.423  10.514   4.339  0.3666  0.3358 -0.1320
29812SOL    HW196551   7.518  10.501   4.337  0.2859 -0.2514 -1.7161
29812SOL    HW296552   7.397  10.511   4.247 -1.3547 -0.7474  0.3577
29813SOL     OW96553   9.142   3.571  10.314  0.4313 -0.2208 -0.2054
29813SOL    HW196554   9.109   3.500  10.370 -1.2338  0.4842 -0.2443
29813SOL    HW296555   9.192   3.526  10.245  0.2567 -1.2798  0.3411
29814SOL     OW96556   1.206   3.094  12.126 -0.0449  0.4418 -0.6075
29814SOL    HW196557   1.117   3.114  12.098 -0.0433  1.8557  0.3059
29814SOL    HW296558   1.213   2.999  12.120 -2.6868 -0.0966  2.2457
29815SOL     OW96559   6.126   9.990   8.686  0.8442 -0.4871  0.6340
29815SOL    HW196560   6.090  10.072   8.652  2.7289 -0.2361 -0.9958
29815SOL    HW296561   6.053   9.928   8.683  0.2982  0.1722 -1.8132
29816SOL     OW96562   0.051   1.330   7.183 -0.1279 -0.4112  0.2526
29816SOL    HW196563   0.084   1.249   7.144  0.9398  0.0523  0.1554
29816SOL    HW296564   0.120   1.394   7.166 -0.0319  0.0317  2.1312
29817SOL     OW96565   2.902   6.092   9.810  0.4982 -0.0139  0.6205
29817SOL    HW196566   2.974   6.057   9.758  1.5682  1.5604  1.0052
29817SOL    HW296567   2.942   6.154   9.870 -1.0467  0.1229  1.5790
29818SOL     OW96568   3.236  10.462   0.229  0.1830  0.1562 -0.1096
29818SOL    HW196569   3.148  10.452   0.194  0.0908 -2.9157  0.7021
29818SOL    HW296570   3.290  10.404   0.175  0.7843 -1.4920  2.1121
29819SOL     OW96571  10.235   2.799  12.819 -0.5732 -0.3718 -0.2017
29819SOL    HW196572  10.199   2.711  12.818 -0.0366 -0.6006 -1.7446
29819SOL    HW296573  10.280   2.806  12.903 -1.6027 -1.1383  0.4367
29820SOL     OW96574   3.037   0.798   7.142  0.2194 -0.1191  0.1975
29820SOL    HW196575   3.037   0.732   7.073  0.1937  1.5150 -1.4403
29820SOL    HW296576   3.090   0.760   7.212 -1.5713 -2.7656  0.2737
29821SOL     OW96577  12.474   6.866   0.954  0.1242 -0.9821 -0.2042
29821SOL    HW196578  12.466   6.801   1.024 -1.8568 -1.4264 -0.7817
29821SOL    HW296579  12.568   6.874   0.939  0.5631 -1.3754  2.0281
29822SOL     OW96580  10.430   2.316  12.077  0.1383  0.0577 -0.1462
29822SOL    HW196581  10.452   2.300  12.169  0.6738  2.3386  0.1772
29822SOL    HW296582  10.514   2.326  12.033 -0.0770  2.1036 -0.2147
29823SOL     OW96583  11.390   1.584   3.580  0.7594  0.2135 -0.6310
29823SOL    HW196584  11.317   1.529   3.552  0.1469  2.6098 -4.3089
29823SOL    HW296585  11.435   1.609   3.499  1.8554  3.9414  0.9005
29824SOL     OW96586   7.216   2.178   7.521 -0.2293 -0.8396 -0.3873
29824SOL    HW196587   7.295   2.222   7.552 -1.2737  2.7960 -2.2860
29824SOL    HW296588   7.152   2.190   7.591  0.0370 -1.1072 -0.0955
29825SOL     OW96589   9.285   3.446   7.579  0.0364 -0.5967 -0.0623
29825SOL    HW196590   9.358   3.437   7.641  1.1906  2.4131 -0.8499
29825SOL    HW296591   9.229   3.514   7.617 -0.3148 -0.1544 -1.3305
29826SOL     OW96592  11.416   0.834   6.621  0.6937  0.2094  0.7663
29826SOL    HW196593  11.363   0.900   6.575 -0.0900 -1.5938 -1.1076
29826SOL    HW296594  11.373   0.823   6.705 -1.4535 -0.5336 -0.3539
29827SOL     OW96595   6.512   1.081  11.547  0.1123  0.4570  0.1639
29827SOL    HW196596   6.597   1.045  11.521  0.5733  1.7949 -0.2315
29827SOL    HW296597   6.494   1.040  11.632  0.5904 -0.7270 -0.2828
29828SOL     OW96598   8.470   8.978   7.884 -0.1167  0.2643  0.1977
29828SOL    HW196599   8.534   9.044   7.857  0.1380  0.3733  1.0617
29828SOL    HW296600   8.487   8.964   7.977 -0.7318 -0.3997  0.2189
29829SOL     OW96601  11.976   1.691   5.786 -0.5933  0.7720 -0.4151
29829SOL    HW196602  12.039   1.763   5.795 -0.0219  0.1458  0.9835
29829SOL    HW296603  11.903   1.715   5.843  0.2919 -0.4061  1.3371
29830SOL     OW96604   8.830  11.381   8.244  0.1023  0.2472  0.1254
29830SOL    HW196605   8.832  11.469   8.207 -1.4649  0.1015 -0.3900
29830SOL    HW296606   8.885  11.386   8.322 -0.5939  1.9087  0.5444
29831SOL     OW96607   4.272   6.927   5.118 -0.1638 -0.1548 -0.7750
29831SOL    HW196608   4.350   6.972   5.149 -1.0751  3.2962 -2.9425
29831SOL    HW296609   4.267   6.950   5.025 -3.3730 -0.8352 -0.8701
29832SOL     OW96610  11.335  10.302   0.046 -0.3897  0.9405  0.1183
29832SOL    HW196611  11.313  10.395   0.051 -0.1607  0.9401  2.1387
29832SOL    HW296612  11.413  10.298  -0.009 -0.0780  2.0104  0.4637
29833SOL     OW96613  12.502   5.019   1.295  0.5488 -0.6667  0.1154
29833SOL    HW196614  12.519   5.100   1.247  2.0585 -0.8729  0.2605
29833SOL    HW296615  12.410   5.025   1.320 -0.0763 -0.1755 -2.0777
29834SOL     OW96616   4.151   5.829  10.755  0.0663 -0.0326 -0.0034
29834SOL    HW196617   4.110   5.829  10.841  0.4271  2.7484  0.2734
29834SOL    HW296618   4.078   5.826  10.693 -0.5409  2.5277  0.4769
29835SOL     OW96619   7.036  12.784   1.090 -0.1403  0.0153 -0.1534
29835SOL    HW196620   7.115  12.734   1.070 -0.2719 -0.9603  1.5874
29835SOL    HW296621   7.067  12.860   1.139 -0.2832 -0.4508  0.6687
29836SOL     OW96622   1.246   1.040  11.288 -0.8108 -0.1612  0.1393
29836SOL    HW196623   1.231   1.115  11.230 -1.1793 -0.3259  0.0175
29836SOL    HW296624   1.235   0.964  11.231 -0.7754 -0.3147  0.3392
29837SOL     OW96625   3.755   4.021   3.425  0.0727  0.0749  0.4566
29837SOL    HW196626   3.731   4.093   3.366  0.7170 -0.8016 -0.9328
29837SOL    HW296627   3.713   4.043   3.508 -1.6908  0.8844 -0.5906
29838SOL     OW96628  11.791   8.231   0.559 -0.6358 -0.1891 -0.6615
29838SOL    HW196629  11.877   8.271   0.572  0.0315 -1.2070 -1.7578
29838SOL    HW296630  11.742   8.296   0.508  0.2940 -0.5333 -2.0589
29839SOL     OW96631   2.344   0.991   1.268 -0.1989  0.2930  0.7566
29839SOL    HW196632   2.408   1.041   1.319  0.4481  1.0835 -0.7890
29839SOL    HW296633   2.375   0.900   1.274  0.5564  0.5442  0.7889
29840SOL     OW96634   2.642   0.913   9.467  0.2748 -0.3144 -0.2096
29840SOL    HW196635   2.599   0.995   9.444  0.6827  0.7002  2.3082
29840SOL    HW296636   2.659   0.920   9.561  2.7772 -2.1260 -0.4116
29841SOL     OW96637  10.273   2.965   7.956 -0.4034  0.0833 -0.3171
29841SOL    HW196638  10.196   2.910   7.968 -1.0288  0.8150 -0.8849
29841SOL    HW296639  10.274   3.022   8.033 -0.5835  0.2614 -0.4477
29842SOL     OW96640   0.392   4.473   4.423  0.0008 -0.5159  0.3570
29842SOL    HW196641   0.412   4.380   4.412  1.8818 -0.0589 -0.4042
29842SOL    HW296642   0.434   4.497   4.505 -0.6588 -0.3716  0.6570
29843SOL     OW96643   5.637   8.582   1.045 -0.3824  0.2286  0.2539
29843SOL    HW196644   5.562   8.604   1.101 -1.1918 -1.8302  0.0803
29843SOL    HW296645   5.644   8.655   0.984 -1.0401  1.3554  1.4802
29844SOL     OW96646   5.962   1.819   5.068  0.5194  0.0195  0.2397
29844SOL    HW196647   5.994   1.832   5.157 -0.1294  0.5004  0.4032
29844SOL    HW296648   6.023   1.756   5.030  1.1054  0.2035  0.8557
29845SOL     OW96649   7.929   4.820   5.761  0.0568 -0.3054 -0.1058
29845SOL    HW196650   7.851   4.874   5.770 -0.4010 -1.2679  2.6404
29845SOL    HW296651   7.926   4.760   5.836  2.8734 -1.0913 -0.4909
29846SOL     OW96652   1.672   6.784   2.503 -0.0015  0.3928 -0.3397
29846SOL    HW196653   1.739   6.718   2.492  0.7362  1.0666  0.0294
29846SOL    HW296654   1.590   6.735   2.513  0.4028 -0.4247 -0.9670
29847SOL     OW96655   1.411   5.041   8.992  0.6863  0.2863  0.8698
29847SOL    HW196656   1.416   5.098   8.916  1.3318 -1.1642 -0.2250
29847SOL    HW296657   1.331   4.990   8.978  0.7120  0.1339  1.2615
29848SOL     OW96658   6.059   1.550   9.555  0.1656 -0.0868  0.2863
29848SOL    HW196659   6.001   1.615   9.514 -1.1387 -1.6173 -0.4009
29848SOL    HW296660   6.054   1.569   9.649  1.2232  1.8888 -0.0034
29849SOL     OW96661   9.931   2.826   8.307  0.2554  0.5395  0.4815
29849SOL    HW196662   9.977   2.848   8.388 -1.1835 -1.5998  1.9673
29849SOL    HW296663   9.840   2.850   8.323 -0.3411 -1.3328  0.1371
29850SOL     OW96664   8.652   7.172  10.538  0.3410 -0.4892  0.0474
29850SOL    HW196665   8.586   7.173  10.469  0.2689 -1.4277  0.0793
29850SOL    HW296666   8.725   7.123  10.501  0.2217 -1.1815  0.6939
29851SOL     OW96667  11.446   2.865  11.013  0.5392  0.2483 -0.1494
29851SOL    HW196668  11.523   2.895  10.965  0.5092 -0.4467 -0.6480
29851SOL    HW296669  11.386   2.939  11.010 -0.0538 -0.2400 -2.4944
29852SOL     OW96670   6.086   2.696   5.941  0.2888 -0.3817  0.2953
29852SOL    HW196671   6.109   2.755   5.869 -1.6207 -1.8709 -1.6935
29852SOL    HW296672   6.055   2.754   6.010  1.2608  1.0726 -0.4241
29853SOL     OW96673   2.228  11.527   4.649 -0.3172 -0.1941  0.4485
29853SOL    HW196674   2.205  11.522   4.556  0.1438  0.1233  0.3166
29853SOL    HW296675   2.316  11.565   4.650  2.0548 -4.9393  0.6638
29854SOL     OW96676   7.952   4.157   2.136  0.5923 -0.3264  0.4693
29854SOL    HW196677   8.015   4.089   2.160  0.4980 -0.8591 -0.7104
29854SOL    HW296678   7.871   4.110   2.116  0.2848  0.2033  0.4317
29855SOL     OW96679   6.651  12.026   0.853  0.5751  0.1909  0.0667
29855SOL    HW196680   6.660  12.102   0.910 -0.0554  0.2858  0.0525
29855SOL    HW296681   6.569  12.042   0.806 -0.6948 -1.5024  1.5784
29856SOL     OW96682   4.819   8.374   2.912 -0.3054 -0.4731  0.1587
29856SOL    HW196683   4.807   8.340   3.001 -2.8652 -0.7690 -0.2184
29856SOL    HW296684   4.875   8.309   2.869 -0.1244 -1.0108  1.1700
29857SOL     OW96685  11.896   8.137   2.484  0.1737  0.2149  0.3398
29857SOL    HW196686  11.924   8.203   2.421  0.6398  1.1211  1.4802
29857SOL    HW296687  11.820   8.176   2.528  0.6686  0.1520  1.2648
29858SOL     OW96688  12.252   9.907  10.363 -0.3158 -0.7456 -0.3140
29858SOL    HW196689  12.341   9.931  10.390 -0.8865 -0.2172  1.2502
29858SOL    HW296690  12.198   9.981  10.390 -1.5035 -1.8912  0.5935
29859SOL     OW96691   9.895   8.913   9.174  0.2459  0.5999 -0.3880
29859SOL    HW196692   9.821   8.974   9.177 -0.5493 -0.2792 -1.2072
29859SOL    HW296693   9.900   8.879   9.264 -2.6385 -1.8810 -0.9952
29860SOL     OW96694   8.355   8.115   9.079 -0.1783 -0.2355  0.2045
29860SOL    HW196695   8.418   8.162   9.134 -0.2836  1.3740 -0.9553
29860SOL    HW296696   8.371   8.023   9.098  0.7836  0.2105  1.8115
29861SOL     OW96697   3.753  10.071   4.964 -0.2077  0.5931 -0.1983
29861SOL    HW196698   3.801  10.023   4.897 -0.9347  1.1453 -1.1423
29861SOL    HW296699   3.693  10.006   5.002  0.5742  0.1515  0.2953
29862SOL     OW96700   6.863   3.420   4.138 -0.6187  0.5686  0.1809
29862SOL    HW196701   6.800   3.387   4.202 -0.1469  0.5858  0.6622
29862SOL    HW296702   6.925   3.348   4.126 -0.7298  0.5485 -0.2942
29863SOL     OW96703   3.276  12.854   0.185 -0.0524  0.0445  0.2301
29863SOL    HW196704   3.287  12.763   0.156 -1.1371 -0.0948  0.2383
29863SOL    HW296705   3.196  12.854   0.237 -0.4923  1.1459 -0.3957
29864SOL     OW96706   9.247  11.749  12.903  0.7165 -0.8181 -0.1678
29864SOL    HW196707   9.281  11.802  12.975  4.8615 -2.2339 -0.7764
29864SOL    HW296708   9.231  11.663  12.942 -1.4719 -0.4386 -0.1192
29865SOL     OW96709   0.760   6.702  10.443  0.1554  0.3015 -0.0393
29865SOL    HW196710   0.843   6.746  10.428  0.5065 -0.0885  0.6986
29865SOL    HW296711   0.738   6.662  10.358  0.6951  0.4418 -0.2481
29866SOL     OW96712  11.031   2.105   4.092  0.4488  0.1567  0.0625
29866SOL    HW196713  10.936   2.116   4.093  0.1651 -1.5454 -1.7469
29866SOL    HW296714  11.046   2.021   4.134  0.8769 -0.8366 -1.9846
29867SOL     OW96715   1.324   8.396   8.560  0.8627 -0.5045  0.1230
29867SOL    HW196716   1.351   8.455   8.490 -1.8785  0.2273 -0.4678
29867SOL    HW296717   1.394   8.401   8.624  2.2933  0.7642 -1.4387
29868SOL     OW96718   7.050   7.413   9.583 -0.0672 -0.5241 -0.0471
29868SOL    HW196719   7.076   7.322   9.569 -0.4026 -0.4254 -1.4595
29868SOL    HW296720   6.978   7.428   9.522 -0.4092  0.5284  0.5773
29869SOL     OW96721   3.501  11.730   5.547 -0.2535  0.2449 -0.4254
29869SOL    HW196722   3.524  11.807   5.599 -0.0385 -0.1395  0.0530
29869SOL    HW296723   3.410  11.712   5.570  0.3289 -0.9595  1.1782
29870SOL     OW96724   6.441   4.634   6.969 -0.3096 -0.2212 -0.0882
29870SOL    HW196725   6.418   4.697   6.900 -2.4869  0.1103  0.8437
29870SOL    HW296726   6.380   4.653   7.040  0.5843 -1.8230  1.1867
29871SOL     OW96727   2.857   5.952   0.350  0.6614  0.3702 -0.1150
29871SOL    HW196728   2.813   5.892   0.410  2.2343 -0.9323 -0.2112
29871SOL    HW296729   2.811   6.036   0.362  0.3593 -0.0632  2.2289
29872SOL     OW96730  11.673   9.282   5.981  0.0463  0.2093 -0.0634
29872SOL    HW196731  11.704   9.336   6.054  1.1822 -1.6346  0.8904
29872SOL    HW296732  11.700   9.330   5.903 -0.8776  2.0563  0.6803
29873SOL     OW96733  10.019   8.903   9.880 -0.4064 -0.5674 -0.3571
29873SOL    HW196734  10.113   8.915   9.888 -0.2997  0.3530 -2.4158
29873SOL    HW296735   9.994   8.959   9.807 -2.6505 -0.3708  0.4894
29874SOL     OW96736   6.840  10.219  10.909  0.7479  0.1153  0.3395
29874SOL    HW196737   6.884  10.185  10.831 -0.1646 -0.6047  0.1232
29874SOL    HW296738   6.816  10.309  10.887 -1.5459 -0.7600 -1.1362
29875SOL     OW96739  11.277   8.666  11.387  0.2933  0.1625  0.3395
29875SOL    HW196740  11.241   8.741  11.435  0.5242  0.1000  0.6132
29875SOL    HW296741  11.212   8.597  11.400  0.8341 -0.1594  1.4161
29876SOL     OW96742  12.037   0.908   5.734  0.3071 -0.2931  0.1167
29876SOL    HW196743  12.035   1.001   5.714 -2.0437 -0.7400 -2.2814
29876SOL    HW296744  12.100   0.871   5.672 -0.1683 -0.5209 -0.2375
29877SOL     OW96745   1.737   0.296   8.462  0.0347  0.2988 -0.3324
29877SOL    HW196746   1.705   0.383   8.484 -2.1564 -0.5921  0.2391
29877SOL    HW296747   1.691   0.273   8.381 -0.5514 -0.8959  0.3170
29878SOL     OW96748   2.001   0.334   0.111  0.2300 -0.0926 -0.2183
29878SOL    HW196749   2.076   0.323   0.169  0.3226 -1.1793 -0.5234
29878SOL    HW296750   1.960   0.416   0.140  1.6950  0.6788 -0.2487
29879SOL     OW96751  11.870  11.557  10.805  0.4717  0.3343 -0.2465
29879SOL    HW196752  11.902  11.646  10.821 -2.1707  1.6510 -1.5649
29879SOL    HW296753  11.777  11.561  10.827  0.6332 -2.6737  1.4275
29880SOL     OW96754   6.351   1.188  10.911  0.2434 -0.6660  0.5541
29880SOL    HW196755   6.325   1.169  11.001 -3.5684  0.2900 -0.1825
29880SOL    HW296756   6.355   1.284  10.908 -1.7112 -0.5725 -0.6912
29881SOL     OW96757   4.062   5.936  11.431  0.0577 -0.1548 -0.0230
29881SOL    HW196758   3.976   5.899  11.453  0.2994 -0.8942 -0.2901
29881SOL    HW296759   4.122   5.893  11.491  0.3772 -0.3847 -0.5006
29882SOL     OW96760   2.587   3.351   2.087 -0.6087  0.1792  0.4438
29882SOL    HW196761   2.530   3.394   2.023 -0.5619 -2.2395 -1.3414
29882SOL    HW296762   2.670   3.398   2.080 -0.7263  0.2271 -1.0002
29883SOL     OW96763   7.133   6.784   7.905  0.1037  0.8080  0.3190
29883SOL    HW196764   7.182   6.751   7.980  0.5783  0.7144 -0.0297
29883SOL    HW296765   7.200   6.808   7.841 -0.1939  2.7638  0.6780
29884SOL     OW96766   0.560  12.570   6.063 -0.4460  0.0734  0.7552
29884SOL    HW196767   0.503  12.533   5.996  1.0192 -1.8442  0.4658
29884SOL    HW296768   0.516  12.548   6.146 -1.8384  1.7231  0.5016
29885SOL     OW96769   2.945   2.111   4.214 -0.4248 -0.2827 -0.1190
29885SOL    HW196770   2.961   2.127   4.307  1.8476 -0.4559 -0.4104
29885SOL    HW296771   2.991   2.183   4.169 -0.0869 -1.0954 -1.1292
29886SOL     OW96772   8.653   7.581   6.753  0.4659  0.2193 -0.7333
29886SOL    HW196773   8.607   7.664   6.768  1.4607  0.3751  2.0100
29886SOL    HW296774   8.674   7.582   6.660  0.4970  3.0954 -0.7824
29887SOL     OW96775   5.845   3.709   3.066  0.0018  0.6468 -0.2849
29887SOL    HW196776   5.908   3.759   3.118  1.3335 -0.5573 -0.6522
29887SOL    HW296777   5.806   3.648   3.127  0.9062 -0.1562 -0.4798
29888SOL     OW96778   2.336  12.059   3.139 -0.7051 -0.5242  0.5572
29888SOL    HW196779   2.261  12.100   3.096  0.0830  0.2251 -0.1234
29888SOL    HW296780   2.386  12.019   3.068  0.8427  1.0908  0.6587
29889SOL     OW96781   9.003   2.501  11.679 -0.1934  0.6373  0.2233
29889SOL    HW196782   9.020   2.414  11.716  1.3161  0.8565  0.0734
29889SOL    HW296783   8.997   2.559  11.755  1.2258  0.8000  0.2295
29890SOL     OW96784  12.268   1.785   0.841 -0.8239  0.1460 -0.1598
29890SOL    HW196785  12.175   1.789   0.819 -0.5883  2.9461 -1.1396
29890SOL    HW296786  12.283   1.863   0.894  0.9471 -0.2900  0.0504
29891SOL     OW96787  11.581   0.661   2.283  0.3928 -0.5598 -0.6956
29891SOL    HW196788  11.661   0.711   2.300 -0.7373  0.2707  2.9800
29891SOL    HW296789  11.594   0.579   2.332 -0.5541 -0.8903 -0.9799
29892SOL     OW96790   2.111   4.395   9.879  0.1648  0.6084 -0.3816
29892SOL    HW196791   2.151   4.400   9.966  0.0900 -0.7213 -0.2417
29892SOL    HW296792   2.171   4.442   9.821  1.6035 -0.7483 -0.0623
29893SOL     OW96793   6.587   1.516   1.824  0.5988  0.4044  0.2834
29893SOL    HW196794   6.562   1.432   1.862  1.2371  0.3398  0.5674
29893SOL    HW296795   6.546   1.516   1.737  2.3153 -1.1207 -0.5955
29894SOL     OW96796   3.134   0.595   7.787 -0.0531  0.2548  0.2447
29894SOL    HW196797   3.163   0.581   7.877  0.1095 -0.8787  0.0291
29894SOL    HW296798   3.099   0.685   7.787 -0.4921  0.1108  1.5483
29895SOL     OW96799   1.856   9.721   6.198 -0.0034  1.0679 -0.1004
29895SOL    HW196800   1.880   9.756   6.284 -1.4779  1.3844  0.2127
29895SOL    HW296801   1.761   9.724   6.197 -0.0656 -0.2374 -1.2181
29896SOL     OW96802   0.076   6.284   3.872 -0.5132  0.2448  0.3524
29896SOL    HW196803   0.005   6.348   3.880  0.1364  1.1706 -0.8231
29896SOL    HW296804   0.034   6.206   3.835 -1.2037  0.2079  1.2064
29897SOL     OW96805   9.247   0.388   7.297  0.4427  0.2214  0.7482
29897SOL    HW196806   9.298   0.450   7.348  1.9510  2.0358 -2.6868
29897SOL    HW296807   9.200   0.441   7.233 -3.8332 -1.6307  1.9843
29898SOL     OW96808  12.887   9.478   6.038  0.0376 -0.2247  0.2513
29898SOL    HW196809  12.968   9.519   6.070  0.6842 -0.9610 -0.3846
29898SOL    HW296810  12.884   9.394   6.084  0.6051 -0.9865 -1.0510
29899SOL     OW96811   1.606   5.587   3.559  0.4440 -0.3876  0.2053
29899SOL    HW196812   1.540   5.548   3.617  0.2093 -2.0660 -1.1251
29899SOL    HW296813   1.682   5.529   3.567  0.8921  0.1352 -0.1617
29900SOL     OW96814   0.604   3.112   1.215  0.8292  0.3720  0.0846
29900SOL    HW196815   0.544   3.056   1.265 -0.4789  2.5635  1.1228
29900SOL    HW296816   0.568   3.112   1.126  0.7742 -0.3182  0.1041
29901SOL     OW96817  10.442   2.765   2.510  0.0240  0.3230 -0.4107
29901SOL    HW196818  10.511   2.775   2.445  0.7369 -0.8372  0.1348
29901SOL    HW296819  10.452   2.675   2.542 -2.4851 -0.3228 -1.1674
29902SOL     OW96820  11.963   6.960   5.099 -0.5291 -0.4528 -0.1751
29902SOL    HW196821  11.894   6.938   5.036 -0.6375  0.7378 -0.4981
29902SOL    HW296822  11.916   6.987   5.178 -0.5376  1.9505 -0.9224
29903SOL     OW96823   3.695   2.018   1.465  0.2755 -0.0293 -0.4648
29903SOL    HW196824   3.683   1.951   1.397 -0.3303 -0.1424 -0.2429
29903SOL    HW296825   3.664   1.978   1.545  0.3158  0.3670 -0.2462
29904SOL     OW96826  12.053   2.634   0.170  0.3423  0.5521 -0.8456
29904SOL    HW196827  12.041   2.539   0.174  2.0412  0.3543  1.1714
29904SOL    HW296828  12.142   2.645   0.138  2.2791  1.1643  4.0282
29905SOL     OW96829   0.308   4.217   4.699  0.0662  0.1582  0.0183
29905SOL    HW196830   0.295   4.260   4.783 -0.2715  0.2034 -0.0545
29905SOL    HW296831   0.221   4.216   4.659 -0.1936 -1.7070  0.5436
29906SOL     OW96832   4.639   2.832   8.087  0.1395 -0.8147 -0.2064
29906SOL    HW196833   4.663   2.908   8.140  0.3021 -0.8149 -0.2812
29906SOL    HW296834   4.695   2.761   8.119  1.4931 -0.4019 -1.5380
29907SOL     OW96835   2.128  10.963   7.625 -0.0812  0.4791  0.0781
29907SOL    HW196836   2.198  10.962   7.690 -1.7469  1.1834  1.9610
29907SOL    HW296837   2.055  10.918   7.667 -0.8604 -0.0608 -1.7568
29908SOL     OW96838  12.227   4.576   2.625  0.4356  0.3610 -0.0195
29908SOL    HW196839  12.291   4.615   2.567  0.0902  0.0261 -0.6439
29908SOL    HW296840  12.181   4.512   2.570  0.6080 -0.5068  0.8158
29909SOL     OW96841   8.124  10.878  10.511  0.7831  0.0658 -0.6669
29909SOL    HW196842   8.104  10.969  10.489 -0.9591 -0.2957 -0.6927
29909SOL    HW296843   8.159  10.841  10.430  1.0372  0.5681 -0.7939
29910SOL     OW96844   1.804   9.797  10.913  0.4830 -0.0559  0.0712
29910SOL    HW196845   1.729   9.758  10.868  1.3755 -1.5131 -0.2088
29910SOL    HW296846   1.780   9.889  10.924 -2.1002 -0.8281  1.5809
29911SOL     OW96847   0.518   5.854   5.687  0.0911  0.9165 -0.2002
29911SOL    HW196848   0.491   5.920   5.751 -2.1626 -0.2655  0.1577
29911SOL    HW296849   0.517   5.901   5.603  0.1081  1.7321  0.2420
29912SOL     OW96850  10.458  11.913   6.983 -0.2845 -0.3142  0.3827
29912SOL    HW196851  10.480  12.006   6.989 -0.9474 -0.0982 -0.4099
29912SOL    HW296852  10.363  11.911   6.982 -0.3613 -1.1582  2.5067
29913SOL     OW96853   5.668   1.067   2.496  0.1656  0.0498  0.0946
29913SOL    HW196854   5.715   1.103   2.571  1.2908 -0.7585 -0.1875
29913SOL    HW296855   5.671   1.136   2.430  0.0289  0.3959  0.4454
29914SOL     OW96856   0.944   1.275  10.528 -0.4274 -0.6954 -0.2635
29914SOL    HW196857   0.941   1.185  10.561  0.4783 -0.3105  0.9674
29914SOL    HW296858   0.950   1.329  10.607  1.1260  0.3242 -1.0182
29915SOL     OW96859   6.471   0.374   8.892 -0.2942  0.1405 -0.4534
29915SOL    HW196860   6.483   0.339   8.980 -0.8980 -0.5267 -0.6238
29915SOL    HW296861   6.398   0.435   8.901  0.1508  0.6600 -0.3410
29916SOL     OW96862  10.542   1.769   8.118 -0.9282 -0.4525  0.4908
29916SOL    HW196863  10.631   1.801   8.101 -1.3591  1.6764  1.8822
29916SOL    HW296864  10.543   1.739   8.208 -1.1369 -2.4007 -0.1133
29917SOL     OW96865   6.304  12.093  10.878  0.8801 -0.6626  0.2273
29917SOL    HW196866   6.363  12.064  10.948 -0.8000 -0.8296  1.6452
29917SOL    HW296867   6.224  12.042  10.891 -0.0372  0.4232 -0.8727
29918SOL     OW96868  10.768  12.649  10.245 -0.1151  0.2893 -0.2752
29918SOL    HW196869  10.853  12.688  10.225  0.0446 -0.0515 -0.2718
29918SOL    HW296870  10.775  12.624  10.337  0.2498 -0.9085 -0.6127
29919SOL     OW96871   5.406   9.626   8.412  0.2397  0.2195 -0.0611
29919SOL    HW196872   5.424   9.533   8.428  1.0404  0.3562 -0.1284
29919SOL    HW296873   5.323   9.642   8.456 -1.1693 -1.0978 -2.0536
29920SOL     OW96874  11.460   0.251   0.343  0.3166  0.2476 -0.0073
29920SOL    HW196875  11.504   0.206   0.272  1.6319  0.9038  0.3533
29920SOL    HW296876  11.459   0.343   0.316 -0.1707  0.3444  0.3274
29921SOL     OW96877   9.588   2.905   3.222 -0.0027 -0.1746  0.0172
29921SOL    HW196878   9.607   2.897   3.315 -0.9955 -2.0692  0.1138
29921SOL    HW296879   9.664   2.867   3.178 -0.0581 -0.3978  0.1112
29922SOL     OW96880   0.724   3.863   7.993 -0.5511 -0.3344  0.5758
29922SOL    HW196881   0.783   3.792   7.969 -0.5921  0.0950 -0.9051
29922SOL    HW296882   0.643   3.819   8.018 -0.3526 -0.8440  0.3341
29923SOL     OW96883   6.432   1.066   1.159 -0.0784 -0.1057 -0.4607
29923SOL    HW196884   6.461   1.154   1.179 -1.7459  0.4666 -0.4036
29923SOL    HW296885   6.363   1.078   1.094  0.1356 -1.4221 -0.9661
29924SOL     OW96886  11.628   8.644  10.258  0.1130 -0.4795 -0.4604
29924SOL    HW196887  11.601   8.736  10.255  0.8339 -0.2465 -0.0907
29924SOL    HW296888  11.724   8.647  10.253  0.3184 -1.0450  1.8471
29925SOL     OW96889   0.653   0.947   7.163  0.1431  0.0113 -0.1246
29925SOL    HW196890   0.598   0.874   7.190 -0.2334 -0.8193 -2.8673
29925SOL    HW296891   0.738   0.928   7.202 -0.4791 -0.7301  0.9502
29926SOL     OW96892   4.168   8.461   0.447 -0.0070 -0.5311 -0.0581
29926SOL    HW196893   4.183   8.384   0.501  1.5667  0.3254  0.8142
29926SOL    HW296894   4.190   8.535   0.504  1.1667  0.4362 -1.6558
29927SOL     OW96895   6.875  12.201   4.302 -0.1205 -0.0785  0.9892
29927SOL    HW196896   6.867  12.107   4.320  0.5515 -0.1715  0.8523
29927SOL    HW296897   6.843  12.244   4.381  0.5443 -0.4428  1.4699
29928SOL     OW96898  12.176   6.145   4.570 -0.0651 -0.4455  0.7795
29928SOL    HW196899  12.115   6.132   4.643 -1.0945  2.3320  0.5312
29928SOL    HW296900  12.125   6.128   4.492  0.0292 -0.0308  0.6250
29929SOL     OW96901   0.563   2.465   8.938  0.4116 -0.3278  0.3799
29929SOL    HW196902   0.486   2.514   8.909  0.1258 -1.3450 -0.6618
29929SOL    HW296903   0.580   2.403   8.868  2.9129  0.6355  0.0356
29930SOL     OW96904   0.775   0.884   1.762  0.4662  0.0154  0.1733
29930SOL    HW196905   0.821   0.814   1.716  0.1365 -0.9489  1.2698
29930SOL    HW296906   0.694   0.897   1.711 -0.7010 -2.1947  1.3358
29931SOL     OW96907   7.565   0.062   6.310  0.5162  0.1519  0.5636
29931SOL    HW196908   7.622   0.014   6.250 -3.3384 -1.6604 -2.0713
29931SOL    HW296909   7.529   0.134   6.257 -1.8512 -0.5914  1.0150
29932SOL     OW96910   7.517   3.540   2.659 -0.3284 -0.4890 -0.6758
29932SOL    HW196911   7.455   3.613   2.671 -0.0195 -0.3822  0.3765
29932SOL    HW296912   7.518   3.496   2.744  0.5128 -0.9102 -0.9004
29933SOL     OW96913   0.210  11.190  12.313  0.1207  0.0742  0.6153
29933SOL    HW196914   0.199  11.106  12.269 -0.4064  1.2364 -1.6038
29933SOL    HW296915   0.304  11.205  12.315  0.3373 -1.1609  2.3350
29934SOL     OW96916   7.483  10.668   1.168 -0.6055 -0.1010  0.3966
29934SOL    HW196917   7.515  10.739   1.112 -0.1218 -0.1304  0.6303
29934SOL    HW296918   7.406  10.634   1.122  0.0471 -0.4214 -0.4937
29935SOL     OW96919   6.246   6.603   9.931  0.8264  0.1037  0.3079
29935SOL    HW196920   6.166   6.639   9.970  1.5588  0.2378  1.7414
29935SOL    HW296921   6.226   6.511   9.917  0.0313  0.3699 -0.4302
29936SOL     OW96922   4.165  11.910  11.629 -0.3393 -0.0629 -0.5299
29936SOL    HW196923   4.087  11.950  11.592 -0.8484 -0.8901 -0.3785
29936SOL    HW296924   4.136  11.824  11.660  0.5116 -0.1692  0.0108
29937SOL     OW96925   1.662   0.725  11.275  0.0929 -0.4587  0.1281
29937SOL    HW196926   1.595   0.657  11.280  0.3051 -0.7782 -1.1308
29937SOL    HW296927   1.617   0.806  11.300 -1.5012 -0.1880 -3.2122
29938SOL     OW96928   0.788  10.171   1.861 -0.1462 -0.3335 -1.1049
29938SOL    HW196929   0.771  10.257   1.823  0.0589  0.2952  0.1646
29938SOL    HW296930   0.719  10.161   1.927 -0.5569 -1.4353 -1.6795
29939SOL     OW96931   1.545  11.523  12.670  0.4833 -0.4459  0.7915
29939SOL    HW196932   1.476  11.462  12.644 -0.0199 -0.6228  2.4292
29939SOL    HW296933   1.566  11.571  12.590 -0.2318 -1.6620 -0.1587
29940SOL     OW96934   5.824   7.308   4.717  0.4895  0.2140 -0.5317
29940SOL    HW196935   5.834   7.351   4.803  0.5288  0.0506 -0.4553
29940SOL    HW296936   5.866   7.368   4.656 -1.7846  1.6458 -0.8168
29941SOL     OW96937   7.466   0.188   6.757  0.0679 -0.6935  0.3773
29941SOL    HW196938   7.400   0.138   6.805 -0.4099  1.5290  2.2099
29941SOL    HW296939   7.548   0.171   6.803  0.1381 -0.7210  0.2443
29942SOL     OW96940   7.410   1.676  10.940 -0.2285  0.0333  0.1196
29942SOL    HW196941   7.500   1.675  10.907 -0.5690 -2.8040 -1.0271
29942SOL    HW296942   7.367   1.745  10.890  0.7108 -0.3374 -1.2624
29943SOL     OW96943  12.704   6.309  10.158  0.3367  0.2831 -0.5129
29943SOL    HW196944  12.770   6.305  10.089  0.2449 -0.2539 -0.5763
29943SOL    HW296945  12.731   6.382  10.214  0.9385  0.1166 -0.5802
29944SOL     OW96946  12.510   5.844   6.802  0.0714  0.1047 -0.1827
29944SOL    HW196947  12.461   5.813   6.878 -0.6664  1.2034 -0.1817
29944SOL    HW296948  12.589   5.789   6.800 -0.8559 -1.2785  0.1808
29945SOL     OW96949   3.257   1.033   8.521 -0.1351  0.2023 -0.2119
29945SOL    HW196950   3.207   0.977   8.581 -0.8054  1.4147  0.4051
29945SOL    HW296951   3.246   0.991   8.436 -1.5227 -0.0391  0.0537
29946SOL     OW96952   0.886   5.548   0.866  0.1259 -0.1305 -0.2864
29946SOL    HW196953   0.972   5.563   0.904 -0.4532  0.1364  0.9781
29946SOL    HW296954   0.850   5.474   0.916 -0.6199  0.1564 -0.3814
29947SOL     OW96955   4.084   4.498  10.771  0.2532  0.0988 -0.3768
29947SOL    HW196956   4.074   4.453  10.687  1.1456 -0.7948 -0.0245
29947SOL    HW296957   4.147   4.568  10.752  1.0079 -0.5399 -0.3193
29948SOL     OW96958  10.779   5.891  10.159  0.7453  0.4186  0.3922
29948SOL    HW196959  10.723   5.834  10.108 -1.6049  3.4152 -0.7195
29948SOL    HW296960  10.741   5.892  10.247 -0.1529  1.3530  0.0115
29949SOL     OW96961  11.620  11.277   9.695 -0.2709  0.4274 -0.6246
29949SOL    HW196962  11.535  11.266   9.736 -0.4241 -1.0322 -1.2934
29949SOL    HW296963  11.667  11.336   9.753 -1.2357  0.1259  0.4929
29950SOL     OW96964   8.332   8.912  12.877  0.1892  0.3439 -0.0859
29950SOL    HW196965   8.350   8.878  12.964  0.4797  0.3519 -0.1399
29950SOL    HW296966   8.329   9.007  12.888 -0.1219  0.3270 -0.0245
29951SOL     OW96967  11.041  12.484   3.477  0.1983 -0.6487 -0.3733
29951SOL    HW196968  11.112  12.515   3.420  1.7727  0.5217  2.0767
29951SOL    HW296969  11.043  12.389   3.469  2.3771 -0.6702 -0.0244
29952SOL     OW96970   6.770   0.597   1.120  0.2405 -0.3992  0.0533
29952SOL    HW196971   6.788   0.509   1.152  0.8549 -1.4002 -2.7721
29952SOL    HW296972   6.854   0.641   1.122  0.1658 -0.2622  0.3038
29953SOL     OW96973   9.690  10.458   6.832  0.7094 -0.6401 -0.0788
29953SOL    HW196974   9.689  10.523   6.902 -1.2001  0.8657 -1.3884
29953SOL    HW296975   9.774  10.413   6.841  0.8410  0.0047  2.6637
29954SOL     OW96976  11.505   5.109  12.230  0.1462 -0.3643 -0.2142
29954SOL    HW196977  11.578   5.050  12.211  0.9012  0.5110 -0.0208
29954SOL    HW296978  11.532   5.194  12.196 -1.6563 -0.4452 -2.1531
29955SOL     OW96979   1.627   7.768   3.859 -0.7147 -0.3064 -0.0988
29955SOL    HW196980   1.610   7.840   3.920 -0.9448  0.4139 -0.9950
29955SOL    HW296981   1.545   7.720   3.856 -0.8223 -0.1227 -0.1242
29956SOL     OW96982   6.713   0.181   3.668 -0.0794 -0.1366  0.4459
29956SOL    HW196983   6.800   0.166   3.706  0.9262  0.0766 -1.6117
29956SOL    HW296984   6.716   0.272   3.637 -0.7093 -0.3907 -0.4034
29957SOL     OW96985   5.475   6.504   2.674 -0.1327  0.0926  0.3361
29957SOL    HW196986   5.425   6.585   2.665  0.7414  0.7256  0.9554
29957SOL    HW296987   5.491   6.476   2.584 -0.5545  0.5378  0.1155
29958SOL     OW96988   8.854   8.842   7.328  0.8981 -0.4701 -0.5831
29958SOL    HW196989   8.798   8.860   7.253  0.5434  1.8177  0.1744
29958SOL    HW296990   8.863   8.926   7.373  2.1786 -1.4945  1.2138
29959SOL     OW96991   8.512  11.437  12.189 -0.5147 -0.7702 -0.6214
29959SOL    HW196992   8.457  11.358  12.191 -1.2331 -0.2726 -0.4438
29959SOL    HW296993   8.496  11.479  12.274 -1.5128  0.4758 -1.3834
29960SOL     OW96994  11.745   6.118   4.935 -0.2165  0.6094 -0.3226
29960SOL    HW196995  11.666   6.072   4.966  0.5450  0.7542  2.0338
29960SOL    HW296996  11.807   6.047   4.916  0.0626  0.5414  0.7516
29961SOL     OW96997  12.451  11.128   5.041 -0.2314 -0.1558 -0.6662
29961SOL    HW196998  12.532  11.124   5.092 -2.6476 -0.1525  3.5812
29961SOL    HW296999  12.428  11.037   5.024  0.8202 -0.1524 -2.4449
29962SOL     OW97000   2.881   9.017   7.980 -0.8418 -0.1475  0.3705
29962SOL    HW197001   2.862   9.042   7.889  1.4402  2.1769  0.4141
29962SOL    HW297002   2.795   9.013   8.022 -1.7900  1.7631 -1.1947
29963SOL     OW97003  12.493   9.701   6.616  0.0994 -0.4044 -0.0490
29963SOL    HW197004  12.532   9.788   6.623 -1.0038  0.1322 -0.3028
29963SOL    HW297005  12.453   9.686   6.702 -0.4730 -0.2630 -0.2810
29964SOL     OW97006   7.157   4.382   3.234 -0.5090  0.3776 -0.2748
29964SOL    HW197007   7.211   4.306   3.212 -1.9541 -1.4299  1.9751
29964SOL    HW297008   7.219   4.446   3.269  0.3889 -0.9964  0.7452
29965SOL     OW97009   1.106   9.866   0.893  0.9897 -0.0325  0.4014
29965SOL    HW197010   1.143   9.823   0.971 -0.4127  1.7121  2.1145
29965SOL    HW297011   1.163   9.942   0.879  0.1098  0.7479  0.9588
29966SOL     OW97012   8.969   9.775   9.789 -0.2292  0.8805 -0.1513
29966SOL    HW197013   8.971   9.722   9.869  0.0920  1.6958  0.3893
29966SOL    HW297014   9.011   9.719   9.723 -0.4867  0.2052  0.2439
29967SOL     OW97015   6.887  12.713   0.038  0.0200  0.5927  0.1579
29967SOL    HW197016   6.861  12.686  -0.049  0.3684  2.0164 -0.4138
29967SOL    HW297017   6.947  12.644   0.068 -0.0916  0.1093 -0.7203
29968SOL     OW97018   3.164  11.359   1.222 -0.6576 -0.4848  0.3653
29968SOL    HW197019   3.097  11.297   1.192 -1.4769  0.6967 -0.3156
29968SOL    HW297020   3.163  11.429   1.156  2.6177 -1.3151 -0.7773
29969SOL     OW97021  11.055  12.508  12.574  0.2982 -0.3286  0.3347
29969SOL    HW197022  11.057  12.534  12.482  1.1484 -0.1380  0.4033
29969SOL    HW297023  10.964  12.483  12.589  0.1221 -0.2495 -0.5256
29970SOL     OW97024   0.548   3.237   1.901  0.0380  0.1197  0.0843
29970SOL    HW197025   0.597   3.219   1.981 -0.1598 -0.9944 -0.0368
29970SOL    HW297026   0.514   3.152   1.874  1.2720  0.2316 -1.9748
29971SOL     OW97027  10.551   3.801   0.490 -0.0208  0.1275  0.0321
29971SOL    HW197028  10.529   3.892   0.474  0.4020  0.2131 -0.0764
29971SOL    HW297029  10.610   3.803   0.565 -1.5876 -0.2293  1.3326
29972SOL     OW97030   1.704  11.875   0.498  0.6486  0.3383 -0.3433
29972SOL    HW197031   1.646  11.885   0.574 -0.1246 -2.5491 -0.3940
29972SOL    HW297032   1.792  11.880   0.534  0.4214  3.1019  0.0135
29973SOL     OW97033   0.932   0.574   3.716 -0.4253 -0.0123  0.0332
29973SOL    HW197034   0.897   0.552   3.630 -0.1292  0.3230 -0.1773
29973SOL    HW297035   0.998   0.508   3.734 -0.4910 -0.0851  0.0051
29974SOL     OW97036  11.946  10.431   4.843 -0.6809 -0.4349  0.2148
29974SOL    HW197037  12.021  10.490   4.844  0.1920 -1.5119  0.7825
29974SOL    HW297038  11.890  10.462   4.914 -1.7853  1.5556 -1.4109
29975SOL     OW97039   4.672   3.590   3.914 -0.3224 -0.1031  0.1128
29975SOL    HW197040   4.663   3.530   3.988 -1.1779  3.1183  2.8232
29975SOL    HW297041   4.758   3.569   3.877 -0.2419 -2.4040  1.3829
29976SOL     OW97042   8.562   2.006  11.649  0.3879 -0.2184 -0.0124
29976SOL    HW197043   8.581   2.032  11.559 -2.3916 -0.1592 -0.6622
29976SOL    HW297044   8.594   2.079  11.703  0.0534  0.8014 -1.1555
29977SOL     OW97045   3.644   1.330   7.001  0.2346  0.0677  0.5465
29977SOL    HW197046   3.728   1.336   6.954  0.5534 -1.8220  0.7878
29977SOL    HW297047   3.637   1.238   7.025 -1.5299  0.3582  1.2876
29978SOL     OW97048   9.831   2.075   8.541  0.3581  0.2616  0.2359
29978SOL    HW197049   9.790   2.120   8.467 -0.6119 -0.0576  0.5569
29978SOL    HW297050   9.922   2.102   8.538  0.1632  0.8843 -0.5998
29979SOL     OW97051   5.231   9.529   2.765  0.6575 -0.2777 -0.1789
29979SOL    HW197052   5.235   9.435   2.747  0.5458 -0.4056  0.4237
29979SOL    HW297053   5.241   9.571   2.680 -1.4162 -0.8744 -0.7740
29980SOL     OW97054   0.121   1.319   2.673  0.1598 -0.0119 -0.2863
29980SOL    HW197055   0.155   1.402   2.641 -1.5116  0.9135  0.2749
29980SOL    HW297056   0.144   1.256   2.604  1.0233  0.9820 -0.9382
29981SOL     OW97057   8.246  12.326  12.502 -0.2187 -0.4512 -0.2750
29981SOL    HW197058   8.293  12.371  12.432 -0.2987  0.4352  0.2217
29981SOL    HW297059   8.217  12.396  12.560 -0.1662 -1.1643  0.6404
29982SOL     OW97060   6.264  10.953  12.491  0.1319 -0.4639 -0.6431
29982SOL    HW197061   6.316  10.969  12.569 -0.1444 -1.0804 -0.3291
29982SOL    HW297062   6.234  11.040  12.464 -0.5974 -0.3464  0.5068
29983SOL     OW97063   2.944  12.785  11.802 -0.6262 -0.3273 -0.0587
29983SOL    HW197064   3.031  12.812  11.829 -1.1119  0.6912  0.5815
29983SOL    HW297065   2.926  12.837  11.723 -1.6634  1.5355  1.3170
29984SOL     OW97066  11.346   7.912  12.954 -0.0325  0.2987  0.5733
29984SOL    HW197067  11.319   7.992  12.910 -1.4259  0.5837  1.8775
29984SOL    HW297068  11.427   7.886  12.909 -0.6292  1.3174 -1.1916
29985SOL     OW97069   9.832   3.453  10.513  0.1072 -0.3086  0.0080
29985SOL    HW197070   9.784   3.400  10.577  0.1585 -0.4018 -0.0316
29985SOL    HW297071   9.848   3.394  10.440 -0.9316  0.1043 -0.5817
29986SOL     OW97072  12.484  10.495   4.970 -0.1645 -0.0307 -0.0178
29986SOL    HW197073  12.531  10.438   5.032 -0.0723  0.2567  0.1790
29986SOL    HW297074  12.468  10.576   5.019 -1.9450 -0.5499  0.3320
29987SOL     OW97075   7.911  12.628   8.235 -0.7381  0.7593 -0.7547
29987SOL    HW197076   7.829  12.642   8.282 -1.7414 -0.2859 -2.1164
29987SOL    HW297077   7.947  12.716   8.224 -2.0882  1.3364 -0.8398
29988SOL     OW97078   4.930   3.034   7.602  0.8612 -0.3222 -0.3737
29988SOL    HW197079   4.884   2.984   7.535 -0.4235 -0.5785  0.6708
29988SOL    HW297080   4.924   3.125   7.574  2.2300 -0.6011 -1.7015
29989SOL     OW97081   8.503  11.193   0.056 -0.2162 -0.0140  0.0938
29989SOL    HW197082   8.448  11.247  -0.001 -1.0866 -0.3234  0.6188
29989SOL    HW297083   8.443  11.129   0.093  0.4109 -0.0540  1.0665
29990SOL     OW97084   6.131   4.692   6.884  0.3865 -0.4428  0.5404
29990SOL    HW197085   6.164   4.693   6.974 -0.8554  0.2208  1.0268
29990SOL    HW297086   6.035   4.693   6.894  0.2167  0.9809 -0.7793
29991SOL     OW97087   7.145   4.792  11.239  0.2931 -0.0120 -0.2508
29991SOL    HW197088   7.099   4.747  11.310  0.7006  0.9645  0.6668
29991SOL    HW297089   7.104   4.759  11.159 -0.3121 -0.9941  0.4368
29992SOL     OW97090  12.960  11.382   6.376 -0.0167 -0.0454  0.1996
29992SOL    HW197091  12.967  11.398   6.282 -1.5187  1.6953  0.3402
29992SOL    HW297092  12.963  11.469   6.415 -0.8405 -0.6433  1.6584
29993SOL     OW97093   3.567   6.077   2.801 -0.1440 -0.3190 -0.6488
29993SOL    HW197094   3.555   5.992   2.759  0.6766 -2.2660  2.6558
29993SOL    HW297095   3.479   6.110   2.813 -1.1189 -3.4466  2.7856
29994SOL     OW97096   6.591   2.211   0.571  0.0238 -0.2925  0.1097
29994SOL    HW197097   6.499   2.186   0.562 -0.5867  1.9063 -0.5603
29994SOL    HW297098   6.601   2.237   0.662 -0.0084 -0.5718  0.1925
29995SOL     OW97099   8.709   4.055   0.108 -0.0555 -0.1090 -0.4649
29995SOL    HW197100   8.678   4.119   0.044 -1.6357  0.9649  1.2719
29995SOL    HW297101   8.774   4.102   0.160 -1.2677  0.2041  0.8598
29996SOL     OW97102   0.894   4.298   2.883  0.3049  0.4796  0.2228
29996SOL    HW197103   0.801   4.278   2.893  0.5246  0.1581  1.8032
29996SOL    HW297104   0.939   4.214   2.897  0.8003  0.2974 -2.0197
29997SOL     OW97105   1.227   5.301  12.334  0.0039 -0.2873 -0.0559
29997SOL    HW197106   1.194   5.387  12.362 -0.8931 -0.6678  0.1015
29997SOL    HW297107   1.183   5.285  12.251  1.2226 -0.0022 -0.7731
29998SOL     OW97108  12.026   8.586   7.469  0.0343  0.7472 -0.4322
29998SOL    HW197109  12.036   8.529   7.392 -1.9448 -0.5712  0.1962
29998SOL    HW297110  11.938   8.623   7.460 -0.9700 -0.7768  1.9389
29999SOL     OW97111   3.961  12.568   8.145 -0.2276  0.4647 -0.4623
29999SOL    HW197112   4.031  12.628   8.173  0.2217 -0.8388  1.3917
29999SOL    HW297113   3.929  12.529   8.226 -1.0442 -1.2349 -1.5408
30000SOL     OW97114   9.474   7.285   4.618 -0.5904 -0.2602  0.2962
30000SOL    HW197115   9.471   7.340   4.539 -1.0579 -1.6898 -0.7153
30000SOL    HW297116   9.553   7.232   4.607 -0.3257 -0.0528  1.1078
30001SOL     OW97117  11.892   9.714   5.320 -0.1541  0.0697 -0.0889
30001SOL    HW197118  11.807   9.712   5.363 -0.0246  2.3645  0.4293
30001SOL    HW297119  11.884   9.784   5.255  1.0101 -0.4222 -0.8121
30002SOL     OW97120   2.586   9.748  10.414 -0.2292  0.3344 -0.4234
30002SOL    HW197121   2.505   9.781  10.452  1.1557  2.3362  0.9938
30002SOL    HW297122   2.623   9.822  10.366  1.9313  0.2897  1.0210
30003SOL     OW97123   0.922   5.535  12.759 -0.3132  0.7297  0.2312
30003SOL    HW197124   0.974   5.540  12.839  1.2762  2.4821 -0.8389
30003SOL    HW297125   0.958   5.459  12.712 -0.9849 -0.0591  0.9627
30004SOL     OW97126   0.486   7.431  11.668 -0.0162 -0.5927  0.0958
30004SOL    HW197127   0.436   7.350  11.666  0.0713 -0.7526 -3.9108
30004SOL    HW297128   0.576   7.404  11.686 -0.2302 -1.2201  0.2181
30005SOL     OW97129   9.416   8.261   8.896 -0.6573  0.6822  0.2029
30005SOL    HW197130   9.456   8.326   8.953 -0.2533 -1.2676  2.2495
30005SOL    HW297131   9.487   8.234   8.837  0.0846 -0.1575  1.4424
30006SOL     OW97132   6.849  12.788   5.425  0.1259  0.1026  0.0535
30006SOL    HW197133   6.764  12.821   5.394 -0.5383 -1.3106  0.2941
30006SOL    HW297134   6.867  12.712   5.370  0.6000 -0.3940  0.8797
30007SOL     OW97135   8.955   3.270   7.163  0.5018  0.5642 -0.2815
30007SOL    HW197136   9.045   3.256   7.194  0.9638  1.2902 -1.2395
30007SOL    HW297137   8.910   3.188   7.183  1.5363 -0.0318 -0.3264
30008SOL     OW97138   7.087  10.209   6.050 -0.2656  0.0560 -0.1025
30008SOL    HW197139   7.032  10.278   6.086 -0.9441  0.2703 -1.5006
30008SOL    HW297140   7.090  10.226   5.956  0.1807 -1.3753 -0.3802
30009SOL     OW97141  11.826   4.094  11.980  0.3073  0.0163 -0.3094
30009SOL    HW197142  11.879   4.167  11.947 -1.2874  1.4999  0.2336
30009SOL    HW297143  11.757   4.136  12.032 -0.2242 -1.9452  0.6832
30010SOL     OW97144   9.410   8.061   0.222 -0.3843 -0.8210  0.2196
30010SOL    HW197145   9.482   8.093   0.167 -1.9300  0.0956 -1.4069
30010SOL    HW297146   9.356   8.139   0.237 -1.1681 -1.5332  1.1719
30011SOL     OW97147   4.418  10.705   2.010 -0.0554  0.2280  0.5565
30011SOL    HW197148   4.480  10.716   2.082  0.7033 -1.1247  0.1384
30011SOL    HW297149   4.364  10.630   2.036  0.9479 -0.9863 -0.7499
30012SOL     OW97150   7.224   5.885   8.477 -0.6121 -0.3658 -0.6286
30012SOL    HW197151   7.182   5.958   8.431 -0.6276  1.4082  1.9658
30012SOL    HW297152   7.315   5.913   8.487 -0.0858 -1.7191 -1.4970
30013SOL     OW97153  11.304   0.616   2.410 -0.0903  0.1902  0.0059
30013SOL    HW197154  11.381   0.649   2.364 -1.2736  2.7753 -0.3097
30013SOL    HW297155  11.233   0.676   2.384 -2.2574 -2.0939  0.2214
30014SOL     OW97156   5.500  10.418   2.733  0.2582  0.4275  0.4340
30014SOL    HW197157   5.537  10.442   2.817  1.0829  1.0578 -0.0988
30014SOL    HW297158   5.544  10.475   2.669 -0.0575 -0.3123 -0.4733
30015SOL     OW97159   3.439  11.455  11.437 -0.0051  0.4470  0.1590
30015SOL    HW197160   3.462  11.420  11.523 -0.9144 -0.2584  0.1259
30015SOL    HW297161   3.344  11.448  11.432 -0.0579  1.3831 -0.5258
30016SOL     OW97162  12.902   0.404   8.591 -0.4479  0.1643  0.1769
30016SOL    HW197163  12.968   0.335   8.594  0.9480  1.3949 -0.7410
30016SOL    HW297164  12.945   0.480   8.632 -1.1999  1.0542 -0.6366
30017SOL     OW97165   7.141   2.542   7.800 -0.0445 -0.7948 -0.2734
30017SOL    HW197166   7.050   2.514   7.785  0.4691 -1.4906 -2.5760
30017SOL    HW297167   7.178   2.474   7.856 -1.0261 -0.3020  1.0087
30018SOL     OW97168   9.510   0.372   2.838  0.6520  0.3345  0.4870
30018SOL    HW197169   9.544   0.329   2.760  0.2979  0.0094  0.5053
30018SOL    HW297170   9.519   0.466   2.821 -1.6461  0.3730 -1.0124
30019SOL     OW97171   7.226   7.437   9.198  0.4325 -0.0113  0.4541
30019SOL    HW197172   7.309   7.392   9.183 -0.9476 -2.1737 -1.4465
30019SOL    HW297173   7.247   7.509   9.257  3.2923 -1.6288  1.5843
30020SOL     OW97174   0.295   7.817   1.591 -0.1252 -0.4719  0.0797
30020SOL    HW197175   0.209   7.851   1.612 -0.3301 -0.5921 -0.5528
30020SOL    HW297176   0.356   7.873   1.640 -0.6167 -1.2316  1.6172
30021SOL     OW97177   6.603   0.732   3.657  0.1562 -0.1634  0.7378
30021SOL    HW197178   6.581   0.783   3.580  1.5663 -1.6942 -0.7622
30021SOL    HW297179   6.519   0.710   3.697 -0.6783 -0.3133 -1.0361
30022SOL     OW97180  10.043  10.754   0.032 -0.1033  0.1377  0.0477
30022SOL    HW197181  10.119  10.807   0.007  0.4721 -0.6515  0.0677
30022SOL    HW297182  10.081  10.670   0.058 -1.1149 -0.9072 -1.6931
30023SOL     OW97183   2.723   0.750   4.480 -0.2376 -0.3176  0.2589
30023SOL    HW197184   2.668   0.745   4.558  0.2328  1.3185  0.7231
30023SOL    HW297185   2.680   0.691   4.417 -2.0516  0.2784  0.8803
30024SOL     OW97186   9.790   2.717  10.557  0.2944  0.2765 -0.3793
30024SOL    HW197187   9.743   2.773  10.619  1.0860  0.4141  0.1128
30024SOL    HW297188   9.879   2.710  10.593 -0.1875 -2.6914  0.5068
30025SOL     OW97189   1.343   2.319  11.336 -0.4251  0.4459 -0.3852
30025SOL    HW197190   1.432   2.303  11.304  0.2163  1.5576  0.7363
30025SOL    HW297191   1.326   2.244  11.393  1.1254  1.7304  1.9543
30026SOL     OW97192   5.596  10.930   5.362  0.7601  0.2591 -0.8338
30026SOL    HW197193   5.544  10.899   5.436  0.8444 -0.7717 -1.1994
30026SOL    HW297194   5.542  10.999   5.323  0.2151  0.0376 -0.4873
30027SOL     OW97195  10.022   8.389   8.693  0.7937 -0.1514 -0.0215
30027SOL    HW197196  10.091   8.365   8.755  1.6151  1.5603 -0.2020
30027SOL    HW297197  10.046   8.346   8.611  1.3008 -0.1062  0.1000
30028SOL     OW97198   9.824  12.504  12.488 -0.9767  0.1708  0.5656
30028SOL    HW197199   9.781  12.419  12.496  0.1132 -0.4112  0.3828
30028SOL    HW297200   9.870  12.499  12.404  1.6064 -0.2386  1.9361
30029SOL     OW97201   2.928  11.832   0.579 -0.2742  0.1421  0.0326
30029SOL    HW197202   2.917  11.740   0.555 -1.0798 -0.2582  1.7625
30029SOL    HW297203   2.998  11.832   0.644  0.7226  0.9690 -1.0054
30030SOL     OW97204   6.159   3.263   3.281  0.0026  0.0753  0.0072
30030SOL    HW197205   6.214   3.314   3.221  0.8302  0.8101  1.3364
30030SOL    HW297206   6.089   3.324   3.306  0.6651  0.4247  1.1377
30031SOL     OW97207   2.560  10.089   8.622 -0.3659 -0.1953  0.2108
30031SOL    HW197208   2.623  10.124   8.560 -2.0495  0.3586 -1.2408
30031SOL    HW297209   2.606  10.092   8.706  1.7642 -0.4422 -0.8664
30032SOL     OW97210   3.026   8.144   3.237 -0.2055 -0.2712  0.1158
30032SOL    HW197211   3.016   8.062   3.189 -0.6484 -0.8485  1.1678
30032SOL    HW297212   3.115   8.140   3.272 -0.4545 -0.6287  0.7297
30033SOL     OW97213  10.796   2.848   9.868 -0.4894 -0.3321 -0.5938
30033SOL    HW197214  10.808   2.796   9.788 -1.8960 -1.7921  0.0944
30033SOL    HW297215  10.794   2.783   9.938 -0.4062  0.8395  0.5179
30034SOL     OW97216   2.958  11.861  11.675 -0.4775 -0.2298  0.1606
30034SOL    HW197217   2.959  11.938  11.618  0.3308 -0.4233 -0.0982
30034SOL    HW297218   2.876  11.869  11.725 -1.4417 -0.2703 -1.3290
30035SOL     OW97219   3.352   0.381   1.286  0.5567 -0.8999 -0.1062
30035SOL    HW197220   3.350   0.475   1.302 -0.0531 -0.5812 -1.7924
30035SOL    HW297221   3.403   0.345   1.358 -0.8086  0.4808  1.6310
30036SOL     OW97222   5.467  12.159   9.142 -0.3453  0.2811  0.5155
30036SOL    HW197223   5.372  12.170   9.151 -0.4253 -0.0738  0.1673
30036SOL    HW297224   5.476  12.080   9.089  0.1444  0.4383  0.3642
30037SOL     OW97225   0.292  12.450   6.308  0.2769  0.0255  0.2637
30037SOL    HW197226   0.230  12.476   6.240 -1.1795 -4.0919 -0.3137
30037SOL    HW297227   0.238  12.440   6.387  0.5680 -1.4202  0.3201
30038SOL     OW97228   0.296   1.793   7.414 -0.6265 -0.1510  1.0752
30038SOL    HW197229   0.221   1.769   7.468 -1.0909  0.1042  0.5466
30038SOL    HW297230   0.305   1.888   7.427 -0.6608 -0.1103  0.8033
30039SOL     OW97231   7.009  12.178   2.258 -0.6786 -0.0982 -0.1446
30039SOL    HW197232   7.066  12.223   2.195 -0.0984  0.3314  0.6704
30039SOL    HW297233   7.069  12.130   2.315 -1.2223 -0.8002 -0.1484
30040SOL     OW97234   6.011  11.535  10.978 -0.2384  0.2536  0.1440
30040SOL    HW197235   6.036  11.586  11.055  0.8550 -0.5823  0.3719
30040SOL    HW297236   6.081  11.470  10.969  0.3252  1.1142 -2.3098
30041SOL     OW97237  10.921   2.051   5.231  0.2209  0.1648  0.3760
30041SOL    HW197238  10.985   2.114   5.198  0.6630 -1.1585 -1.4894
30041SOL    HW297239  10.851   2.104   5.269  1.6719  1.6777  1.0151
30042SOL     OW97240   2.334  10.945   7.826  0.3838 -0.2397 -0.8165
30042SOL    HW197241   2.352  10.851   7.831  0.2120 -0.3639 -2.1095
30042SOL    HW297242   2.416  10.987   7.851 -0.7367 -0.5648  4.5666
30043SOL     OW97243   2.635   3.052   8.116 -0.2491  0.1658 -0.1694
30043SOL    HW197244   2.701   3.001   8.162 -0.0823  1.3904  1.0206
30043SOL    HW297245   2.556   3.042   8.169 -0.4742  0.3442 -0.4683
30044SOL     OW97246   5.614   3.322   1.249 -0.7143 -0.1525  0.4304
30044SOL    HW197247   5.625   3.365   1.334  0.4913 -1.7994  1.1647
30044SOL    HW297248   5.554   3.249   1.267 -0.2855 -0.6392 -0.0625
30045SOL     OW97249   5.320  10.274   9.775 -0.1802 -0.2786 -0.1096
30045SOL    HW197250   5.255  10.220   9.821 -1.6703  0.3857 -1.3497
30045SOL    HW297251   5.330  10.351   9.830  0.9426 -1.1559  0.9835
30046SOL     OW97252  12.223   3.011  11.675 -0.2859  0.1977  0.2603
30046SOL    HW197253  12.299   3.065  11.655 -0.0598  0.4008  1.5843
30046SOL    HW297254  12.168   3.018  11.597  1.0509  0.0027 -0.7423
30047SOL     OW97255   2.356  12.780   9.809  0.4364  0.6882  0.1124
30047SOL    HW197256   2.316  12.726   9.740  1.3421  0.0711  0.0486
30047SOL    HW297257   2.289  12.845   9.831 -0.9191 -0.8076  0.5908
30048SOL     OW97258  12.911   8.876   2.256 -0.1165 -0.4291  0.2029
30048SOL    HW197259  12.987   8.821   2.238 -0.6050 -1.6455  1.6546
30048SOL    HW297260  12.946   8.946   2.312  0.1601 -0.2679 -0.1641
30049SOL     OW97261   4.174   4.537   9.038 -0.2207  0.5510 -0.0460
30049SOL    HW197262   4.083   4.509   9.027  0.0927 -0.4636 -0.1088
30049SOL    HW297263   4.195   4.581   8.956 -1.0172  1.8914  0.4193
30050SOL     OW97264   8.844   0.867   7.557  0.5483  0.3323 -0.3175
30050SOL    HW197265   8.765   0.909   7.589  1.1230  0.2792  1.2757
30050SOL    HW297266   8.913   0.895   7.617  1.3338 -1.2861 -0.3907
30051SOL     OW97267   1.278   9.665  12.880 -0.0387  0.2403 -0.6321
30051SOL    HW197268   1.354   9.636  12.831 -0.2499  1.6205 -1.8416
30051SOL    HW297269   1.314   9.709  12.957  0.4033  1.1265 -1.3369
30052SOL     OW97270   0.985   3.289  11.382  0.2306  0.1271  0.0581
30052SOL    HW197271   1.079   3.278  11.368 -0.0932 -0.6102 -1.9037
30052SOL    HW297272   0.959   3.210  11.430  0.8111  1.0646  2.0303
30053SOL     OW97273   0.317   3.351   8.255 -0.0301  0.3447 -0.0268
30053SOL    HW197274   0.396   3.298   8.251 -0.5814 -0.6074  1.0281
30053SOL    HW297275   0.299   3.375   8.164  0.6047 -0.7119 -0.4484
30054SOL     OW97276   4.004   5.451   8.378  0.5727  0.2213  0.3153
30054SOL    HW197277   4.053   5.374   8.405  0.0955  0.0859  0.8087
30054SOL    HW297278   3.913   5.430   8.396  0.1443 -0.0832 -1.9215
30055SOL     OW97279   7.430   5.590   9.367  0.2808  0.2713  0.5314
30055SOL    HW197280   7.346   5.543   9.361  0.9645 -0.8392 -1.7713
30055SOL    HW297281   7.429   5.630   9.454 -3.5167  2.0665 -0.1469
30056SOL     OW97282   2.753   9.194  10.333  0.1452 -0.1998  0.3316
30056SOL    HW197283   2.798   9.210  10.416 -0.0585 -1.6764  0.7483
30056SOL    HW297284   2.664   9.170  10.358  0.4074 -1.8547 -0.2338
30057SOL     OW97285   3.374  12.402  10.591  0.4045 -0.4170  0.3336
30057SOL    HW197286   3.385  12.496  10.602  1.3675 -0.5555  0.6205
30057SOL    HW297287   3.317  12.394  10.515  0.9665  0.3847 -0.1910
30058SOL     OW97288   5.675   2.579   6.404  0.2179  0.1668  0.4413
30058SOL    HW197289   5.732   2.587   6.480  1.1175 -0.8941 -0.0926
30058SOL    HW297290   5.637   2.491   6.411  2.3998 -1.0606 -1.6813
30059SOL     OW97291  10.783   2.847   6.958 -0.0880  0.1531 -0.4389
30059SOL    HW197292  10.727   2.873   6.885  1.1175  0.0803 -1.4250
30059SOL    HW297293  10.872   2.861   6.926  0.5350 -2.0217  0.1972
30060SOL     OW97294   9.160   6.773   7.603  0.3758 -0.1405 -0.5820
30060SOL    HW197295   9.201   6.845   7.651  1.4540 -0.9099 -0.3263
30060SOL    HW297296   9.222   6.701   7.609  0.7880 -0.1343 -3.5604
30061SOL     OW97297   1.414  12.177  11.540 -0.5486  0.1278 -0.6996
30061SOL    HW197298   1.325  12.165  11.574 -0.6387  0.0839 -0.9425
30061SOL    HW297299   1.471  12.169  11.616 -0.5893 -1.8992 -0.8445
30062SOL     OW97300  12.903   0.178   1.906 -0.0613 -0.0627  0.0247
30062SOL    HW197301  12.990   0.150   1.876  0.3008  1.0824 -0.0221
30062SOL    HW297302  12.880   0.251   1.849 -1.2530 -0.6107 -0.2370
30063SOL     OW97303   1.024   7.213  12.342  0.1696  0.0669  0.2070
30063SOL    HW197304   0.996   7.304  12.329  0.8531  0.1724 -0.6109
30063SOL    HW297305   0.944   7.162  12.330  0.2458  0.3596 -2.1058
30064SOL     OW97306   7.082   7.544   6.869 -0.2000 -0.5782 -0.4050
30064SOL    HW197307   7.079   7.492   6.949 -0.0878 -1.4224 -0.9401
30064SOL    HW297308   7.168   7.526   6.832 -0.9543 -1.7296 -1.7029
30065SOL     OW97309   6.764   5.067  10.404  0.4392 -0.0161  0.5315
30065SOL    HW197310   6.698   5.036  10.466 -1.6738 -0.7157 -1.9152
30065SOL    HW297311   6.741   5.159  10.389  0.2921 -0.1382  0.0073
30066SOL     OW97312   6.414   9.641  10.466  0.3278  0.1870 -0.5989
30066SOL    HW197313   6.327   9.615  10.435  0.4626 -1.1323  0.0844
30066SOL    HW297314   6.410   9.737  10.468 -0.8934  0.1731 -1.1967
30067SOL     OW97315   3.846   3.525   5.669  0.0221  0.7080 -0.3856
30067SOL    HW197316   3.767   3.556   5.625  1.0395  0.0358 -2.8707
30067SOL    HW297317   3.815   3.453   5.724 -1.1154  0.3072 -1.4830
30068SOL     OW97318   9.910   8.782   4.815  0.3202  0.4970  0.0446
30068SOL    HW197319   9.915   8.844   4.888  0.3716  1.2324 -0.5743
30068SOL    HW297320   9.848   8.823   4.754  0.5729  0.0725 -0.4977
30069SOL     OW97321   5.700  12.680   8.653  0.7088  0.2443 -0.1493
30069SOL    HW197322   5.643  12.649   8.724  0.7336  1.2076  0.3164
30069SOL    HW297323   5.760  12.741   8.696 -0.3399  2.1545 -1.2313
30070SOL     OW97324  11.106   5.768  11.547  0.0615  0.2134 -0.1509
30070SOL    HW197325  11.042   5.839  11.551 -0.7881 -0.5176 -0.4078
30070SOL    HW297326  11.095   5.731  11.459  0.1689 -0.5155  0.1328
30071SOL     OW97327  10.516   7.491   9.819 -0.0673 -0.4992 -0.7810
30071SOL    HW197328  10.608   7.499   9.845 -0.3906 -1.6004  0.8129
30071SOL    HW297329  10.521   7.468   9.726  1.1953  0.9839 -1.1369
30072SOL     OW97330  10.286   4.319   1.069 -0.4196  0.1573 -0.4962
30072SOL    HW197331  10.306   4.329   0.976  0.0061 -0.3043 -0.4583
30072SOL    HW297332  10.287   4.408   1.104 -2.4890  0.5580 -1.2992
30073SOL     OW97333   4.083   7.406   5.577  0.3551  0.9001  0.1776
30073SOL    HW197334   4.102   7.331   5.520 -0.5087  0.5608  0.3174
30073SOL    HW297335   4.159   7.464   5.567  2.1129 -0.9742  1.7437
30074SOL     OW97336   5.169   2.506   7.189 -0.5029 -0.1213  0.4589
30074SOL    HW197337   5.111   2.467   7.255  0.5222 -2.3752  0.1396
30074SOL    HW297338   5.168   2.443   7.117 -0.1815  1.3991 -0.9215
30075SOL     OW97339   6.219   7.440   9.041  0.8549 -0.1196 -0.1001
30075SOL    HW197340   6.310   7.452   9.013  0.9653 -0.2220  0.2047
30075SOL    HW297341   6.225   7.423   9.135  0.4568  0.6671  0.0713
30076SOL     OW97342  12.145  11.962   7.957  0.2283 -0.6282 -0.0300
30076SOL    HW197343  12.098  12.045   7.965 -0.3205 -0.9326  0.0213
30076SOL    HW297344  12.129  11.934   7.867 -0.0447 -0.9329  0.1082
30077SOL     OW97345   6.500   0.157   5.170 -0.1247 -0.1301 -0.2052
30077SOL    HW197346   6.522   0.239   5.126  1.3596 -0.3366  0.0991
30077SOL    HW297347   6.442   0.111   5.109  0.0315  0.5960 -0.9163
30078SOL     OW97348   8.659   4.173   1.774 -0.1595 -0.0448  0.3728
30078SOL    HW197349   8.603   4.180   1.697 -1.8539 -0.7340  1.4721
30078SOL    HW297350   8.598   4.175   1.848  1.2064 -1.5010  1.6216
30079SOL     OW97351  11.994  11.650   5.420  0.0984 -0.1534  0.0762
30079SOL    HW197352  12.080  11.618   5.446 -0.2732 -0.5154  0.9099
30079SOL    HW297353  11.941  11.645   5.500 -1.4153 -2.3515 -0.9283
30080SOL     OW97354   6.888   9.069  12.498  0.6099 -0.3608 -0.0739
30080SOL    HW197355   6.846   9.089  12.581  0.3817 -4.3676  0.9944
30080SOL    HW297356   6.818   9.073  12.433  0.3520  0.7498  0.2487
30081SOL     OW97357   7.220   1.549  12.862 -0.1770 -0.5745  0.1023
30081SOL    HW197358   7.247   1.458  12.869 -0.5231 -0.6111  1.3035
30081SOL    HW297359   7.245   1.588  12.946  1.8562  0.9901 -1.1400
30082SOL     OW97360   8.309   4.044   0.058  0.4573  0.3089  0.7439
30082SOL    HW197361   8.383   4.040   0.118  0.2278  0.2327  1.0234
30082SOL    HW297362   8.281   3.953   0.048  1.0007  0.2204 -0.1211
30083SOL     OW97363  11.794  10.512  10.919  0.4766  0.1002 -0.2509
30083SOL    HW197364  11.792  10.600  10.881 -1.2529  0.2364  0.0479
30083SOL    HW297365  11.876  10.474  10.889  1.1933  1.7727 -0.4863
30084SOL     OW97366   9.624  12.723   3.305 -0.7211  0.1705 -0.8711
30084SOL    HW197367   9.719  12.728   3.290 -0.4182  0.7176  0.9598
30084SOL    HW297368   9.614  12.651   3.367 -1.3112  1.0662  0.1125
30085SOL     OW97369   9.973   2.688   7.647 -0.1520 -0.3975 -0.0713
30085SOL    HW197370  10.033   2.620   7.619  0.9362 -0.7383  2.7771
30085SOL    HW297371  10.027   2.767   7.653 -0.2424 -0.4096  1.2416
30086SOL     OW97372   0.417   8.089   8.185  0.0838  0.0794 -0.2029
30086SOL    HW197373   0.384   8.114   8.099 -0.0992  0.9681  0.1169
30086SOL    HW297374   0.341   8.094   8.243  0.9290  3.5233  0.8317
30087SOL     OW97375   2.789   9.494   8.897  0.2630 -0.2409 -0.4290
30087SOL    HW197376   2.864   9.543   8.930  0.7182 -1.2254  0.0356
30087SOL    HW297377   2.808   9.403   8.919 -2.4332 -0.2596  2.4494
30088SOL     OW97378   5.798   4.031   3.098  0.1958 -0.3796  0.0767
30088SOL    HW197379   5.870   3.979   3.132  1.5476  1.0039 -0.5356
30088SOL    HW297380   5.741   3.968   3.056  0.2552 -1.6952  1.8440
30089SOL     OW97381   1.929   8.933  12.591  0.3335  0.4217  0.4400
30089SOL    HW197382   1.896   8.872  12.657  1.8216 -0.5734  0.3144
30089SOL    HW297383   2.013   8.962  12.624  0.8154  0.3986 -0.7007
30090SOL     OW97384  11.217   7.998   3.208  0.2432 -0.6317  0.0619
30090SOL    HW197385  11.150   7.935   3.180  0.9999 -1.3302 -0.2525
30090SOL    HW297386  11.293   7.943   3.230  1.5333  0.2319 -1.9401
30091SOL     OW97387  12.419   0.831   6.660  0.0259  0.1407 -0.1431
30091SOL    HW197388  12.429   0.894   6.731 -0.5570  0.4780 -0.3517
30091SOL    HW297389  12.335   0.854   6.619 -0.0219 -0.5474 -0.4423
30092SOL     OW97390   2.922   7.530   0.907  0.5486 -0.1923 -0.6354
30092SOL    HW197391   2.827   7.523   0.896  0.7314 -0.4592 -2.1648
30092SOL    HW297392   2.933   7.584   0.985 -0.8577  0.0999 -0.6215
30093SOL     OW97393  12.958   9.988   7.464  0.1922 -0.0005  0.0034
30093SOL    HW197394  12.951  10.027   7.551 -0.1586 -3.0437  1.4530
30093SOL    HW297395  13.042   9.944   7.464 -0.4755 -1.3347 -0.5875
30094SOL     OW97396   8.308   2.882   4.950  0.0396 -0.2726 -0.4698
30094SOL    HW197397   8.398   2.861   4.973  0.0427 -0.1672 -0.3787
30094SOL    HW297398   8.282   2.815   4.887 -0.9505 -2.4532  2.0334
30095SOL     OW97399   2.929   8.796   0.425 -0.2283 -0.5665 -0.1148
30095SOL    HW197400   2.924   8.875   0.479 -2.0110  1.0945 -2.5046
30095SOL    HW297401   3.014   8.802   0.381  0.4613 -1.0161  1.1066
30096SOL     OW97402   0.555   1.740  12.662 -0.1868  0.7623 -0.1080
30096SOL    HW197403   0.585   1.775  12.746  1.4849 -0.4116 -0.1715
30096SOL    HW297404   0.594   1.653  12.658 -1.7818  0.0664 -1.2832
30097SOL     OW97405   5.730   4.778   8.377 -0.0582 -0.1430 -0.8191
30097SOL    HW197406   5.739   4.720   8.300 -0.0666 -1.6448  0.2692
30097SOL    HW297407   5.639   4.767   8.404 -1.3492  3.5945 -2.9763
30098SOL     OW97408   2.924   8.378   0.362  0.6335  0.3489  0.2639
30098SOL    HW197409   2.931   8.301   0.418  0.8874  0.5445  0.5084
30098SOL    HW297410   2.873   8.441   0.413 -0.3724  0.0189 -0.3067
30099SOL     OW97411   3.578  12.186   5.608 -0.1150  0.0140 -0.2964
30099SOL    HW197412   3.659  12.236   5.593 -0.5350  1.0769  0.7748
30099SOL    HW297413   3.525  12.201   5.531 -1.3708  3.5858  1.0535
30100SOL     OW97414   6.225   1.414   2.856 -0.0645 -0.5181  0.1762
30100SOL    HW197415   6.290   1.461   2.804  1.0983  0.7964  2.6491
30100SOL    HW297416   6.166   1.483   2.889 -1.0343 -1.3540  0.2496
30101SOL     OW97417  11.654   1.243   7.512 -0.0823  0.0623 -0.4599
30101SOL    HW197418  11.741   1.227   7.549 -1.1682  1.0385  2.8363
30101SOL    HW297419  11.597   1.182   7.557 -1.2920  0.0974 -1.8692
30102SOL     OW97420   9.607   8.706  10.144 -0.0376  0.5570  0.4141
30102SOL    HW197421   9.700   8.687  10.151  0.0962  0.7710 -0.5351
30102SOL    HW297422   9.603   8.780  10.083 -0.7808  1.0315  1.0298
30103SOL     OW97423   8.792   8.095   2.831 -0.0076  0.8898 -0.2644
30103SOL    HW197424   8.803   8.007   2.795  0.7196  0.7898  0.1834
30103SOL    HW297425   8.768   8.149   2.756 -1.1925  0.1787 -0.4196
30104SOL     OW97426   1.869   6.662   5.488 -0.1442  0.4018 -0.3326
30104SOL    HW197427   1.831   6.745   5.517 -0.1864 -0.1430  1.2771
30104SOL    HW297428   1.955   6.659   5.529  0.0388 -0.1471 -0.7447
30105SOL     OW97429   8.754   4.644   7.045  0.1401 -0.0787  0.2053
30105SOL    HW197430   8.820   4.606   7.103 -1.0776 -1.7210  0.5711
30105SOL    HW297431   8.740   4.577   6.978 -1.5546 -0.0096  0.4652
30106SOL     OW97432   0.985   3.818   6.579 -0.0023 -0.2119 -0.4038
30106SOL    HW197433   0.908   3.856   6.538  0.6083 -0.5583 -1.9667
30106SOL    HW297434   1.059   3.862   6.537  0.6865 -1.8741 -1.0582
30107SOL     OW97435   4.336  12.750   4.079 -0.2684 -0.8813  0.1564
30107SOL    HW197436   4.321  12.655   4.085 -0.6394 -0.9293 -1.1920
30107SOL    HW297437   4.251  12.786   4.054  0.1362 -0.3155 -0.4193
30108SOL     OW97438   5.177   9.427   7.147 -0.1532 -0.4236  0.4218
30108SOL    HW197439   5.197   9.521   7.149  1.4721 -0.7438  1.5893
30108SOL    HW297440   5.204   9.399   7.059 -0.6026  0.1826  0.0826
30109SOL     OW97441   7.012   6.800  11.683 -0.4162 -0.5991  0.2395
30109SOL    HW197442   7.014   6.766  11.593  0.6941 -2.3754  0.8683
30109SOL    HW297443   6.919   6.805  11.705 -0.6850 -0.7282 -0.7883
30110SOL     OW97444  10.379   1.105   8.235 -0.1807 -0.0954  0.5502
30110SOL    HW197445  10.310   1.111   8.170  0.7995 -0.6799 -0.5727
30110SOL    HW297446  10.342   1.050   8.304 -1.0871  0.2020  0.3171
30111SOL     OW97447   7.474  11.902   1.052  0.1561  0.2425  0.3124
30111SOL    HW197448   7.450  11.814   1.022 -0.6096  0.5437 -0.0042
30111SOL    HW297449   7.569  11.905   1.045  0.1412 -0.3415 -0.3153
30112SOL     OW97450   0.368   8.239  11.613 -0.1927  0.0218 -0.1085
30112SOL    HW197451   0.312   8.189  11.554 -0.0240  0.2089 -0.4283
30112SOL    HW297452   0.307   8.275  11.678 -0.6226  1.1744 -1.1054
30113SOL     OW97453   6.001   9.689   4.275 -0.2493  0.0885 -0.1101
30113SOL    HW197454   5.944   9.616   4.249 -0.4170  0.2190 -0.1072
30113SOL    HW297455   6.042   9.717   4.193 -0.7387  0.4633 -0.2343
30114SOL     OW97456   3.461   4.753   8.595 -0.0101  0.5462 -0.6787
30114SOL    HW197457   3.370   4.728   8.577  0.4586 -2.0667  0.0678
30114SOL    HW297458   3.464   4.766   8.690  0.2477  1.3780 -0.7939
30115SOL     OW97459   1.658   6.401   3.630 -0.4942 -0.0620 -0.1724
30115SOL    HW197460   1.658   6.472   3.694  2.2732 -1.0102  1.0528
30115SOL    HW297461   1.690   6.441   3.549 -0.9232  0.4836 -0.0784
30116SOL     OW97462   8.489   8.440   5.995 -0.1151 -0.2367  0.0458
30116SOL    HW197463   8.530   8.355   5.981  1.1206  0.3735 -0.1158
30116SOL    HW297464   8.473   8.443   6.090 -1.0037 -1.0051 -0.0645
30117SOL     OW97465   0.673  11.120   0.618  0.2961  0.2393  0.2762
30117SOL    HW197466   0.696  11.062   0.691  3.0277  0.7539 -0.0556
30117SOL    HW297467   0.652  11.203   0.659  0.4811  0.1517  0.5511
30118SOL     OW97468  11.932  11.327   7.891  0.6111  0.0862 -0.0808
30118SOL    HW197469  11.896  11.344   7.978 -1.4591  0.1660 -0.9171
30118SOL    HW297470  11.877  11.258   7.854  0.7085  0.8750 -1.7890
30119SOL     OW97471   9.859   1.942   5.710 -0.1584  0.0463  0.7085
30119SOL    HW197472   9.771   1.905   5.702 -0.6044  1.1930  0.0705
30119SOL    HW297473   9.914   1.884   5.656 -0.6578 -0.2546  0.5186
30120SOL     OW97474   9.544   8.428   9.169  0.3253  0.2172  0.3114
30120SOL    HW197475   9.469   8.428   9.228  0.7064 -1.1140  0.8475
30120SOL    HW297476   9.563   8.335   9.156  0.9452  0.5197 -1.0240
30121SOL     OW97477   5.231   8.781   4.037  0.2431 -0.5770 -0.6031
30121SOL    HW197478   5.216   8.745   3.950 -0.1872  0.0445 -0.7924
30121SOL    HW297479   5.282   8.861   4.022 -1.4205  0.5608 -0.4658
30122SOL     OW97480  11.213   1.481   1.927  0.3946 -0.3545  0.1546
30122SOL    HW197481  11.302   1.501   1.957 -0.3740  1.3920  1.4270
30122SOL    HW297482  11.223   1.465   1.833  1.9472  0.5421  0.1299
30123SOL     OW97483   6.017   2.891   4.215  0.2422  0.2611  0.6344
30123SOL    HW197484   5.925   2.916   4.203 -0.3627 -1.6070  0.9828
30123SOL    HW297485   6.054   2.890   4.127 -0.6745 -0.9702  0.2202
30124SOL     OW97486   8.218   4.320   3.522  0.2563  0.6594 -0.2631
30124SOL    HW197487   8.173   4.237   3.536  1.9296 -0.4542 -1.2075
30124SOL    HW297488   8.259   4.340   3.606  0.4567  0.1225 -0.2281
30125SOL     OW97489   7.891   1.943   7.727  0.0433  0.2041  0.0549
30125SOL    HW197490   7.890   1.847   7.724  0.1714  0.2174 -0.4155
30125SOL    HW297491   7.854   1.964   7.813 -0.8661 -0.2408 -0.2116
30126SOL     OW97492   2.972  11.674   4.986  0.3795  0.6822 -0.0493
30126SOL    HW197493   3.027  11.595   4.982 -0.9205 -0.2283 -0.6552
30126SOL    HW297494   3.029  11.743   4.952  2.3694  0.5788  2.6610
30127SOL     OW97495  10.257   5.000  11.992  0.1068  0.3353 -0.0387
30127SOL    HW197496  10.244   4.982  12.085  1.8203  1.2168  0.4202
30127SOL    HW297497  10.226   5.090  11.981  0.6237  0.5045 -0.1355
30128SOL     OW97498   6.168   9.833   6.155 -0.6141  0.2127 -0.5393
30128SOL    HW197499   6.185   9.884   6.235 -1.6862 -0.3635  0.0838
30128SOL    HW297500   6.165   9.742   6.184  1.4361 -0.2736 -1.6715
30129SOL     OW97501  10.749   1.303   5.167 -1.1090 -0.9086 -0.1170
30129SOL    HW197502  10.781   1.337   5.251 -1.5784 -0.3108 -0.1756
30129SOL    HW297503  10.680   1.241   5.192 -0.6820 -1.3580 -0.0347
30130SOL     OW97504   2.880   4.231   6.103 -0.1513  0.2913 -0.1381
30130SOL    HW197505   2.895   4.306   6.160 -0.6704  2.3492 -2.5191
30130SOL    HW297506   2.962   4.221   6.054  0.3569 -1.5556  0.9945
30131SOL     OW97507  11.264   0.602  12.593 -0.3903  0.4367 -0.0829
30131SOL    HW197508  11.186   0.656  12.581 -0.7125 -0.0340 -0.1300
30131SOL    HW297509  11.257   0.536  12.524 -1.2014 -1.0813  1.3889
30132SOL     OW97510   2.231   9.055   7.905  0.0740 -0.2353  0.1141
30132SOL    HW197511   2.201   8.973   7.865  0.0168 -0.9724  1.6153
30132SOL    HW297512   2.323   9.062   7.880 -0.2495 -0.0660 -1.1018
30133SOL     OW97513   3.489  11.059   6.800 -0.0910 -0.2971 -0.3873
30133SOL    HW197514   3.438  11.134   6.770  0.4020 -0.6765 -2.2562
30133SOL    HW297515   3.579  11.092   6.806 -0.2018 -0.1500  1.0755
30134SOL     OW97516  10.850  12.301  12.909 -0.2080  0.3972  0.5221
30134SOL    HW197517  10.793  12.228  12.934  0.0413  0.4699  1.2987
30134SOL    HW297518  10.829  12.316  12.816 -1.3123  0.2990  0.7450
30135SOL     OW97519   1.440   7.035   5.231 -0.8625 -0.2604 -0.4476
30135SOL    HW197520   1.428   7.070   5.142 -0.3078  1.7474  0.2173
30135SOL    HW297521   1.390   6.953   5.231 -1.4530  0.0359 -2.3911
30136SOL     OW97522   6.714   1.099  11.816  0.7544 -0.1202  0.9974
30136SOL    HW197523   6.639   1.130  11.866  0.2652 -0.4842  0.5121
30136SOL    HW297524   6.726   1.164  11.746  1.6702  0.5859  1.7882
30137SOL     OW97525  10.846  10.666   7.062  0.3647 -0.3560  0.1507
30137SOL    HW197526  10.806  10.712   7.136 -0.4735 -0.1507 -0.4059
30137SOL    HW297527  10.814  10.714   6.985 -1.3562 -2.4422 -0.5228
30138SOL     OW97528  10.796  11.580  12.450  0.0419 -0.0559 -0.2857
30138SOL    HW197529  10.723  11.637  12.426  0.4423  0.2525 -0.8175
30138SOL    HW297530  10.796  11.511  12.383  1.5569  1.1597 -1.6245
30139SOL     OW97531  12.723   6.767   4.375  0.7778 -0.0611 -0.0173
30139SOL    HW197532  12.655   6.718   4.421  1.3409 -0.7599  0.0839
30139SOL    HW297533  12.805   6.726   4.402  1.1912  0.2508 -0.7610
30140SOL     OW97534   7.855   8.068   4.590 -0.3796  0.1287 -0.2024
30140SOL    HW197535   7.926   8.083   4.529  0.3314 -1.6425  0.1056
30140SOL    HW297536   7.869   8.131   4.660  0.2179  0.5498 -0.6984
30141SOL     OW97537   0.868  12.382   1.213  0.4800 -0.0089 -0.2469
30141SOL    HW197538   0.811  12.306   1.199 -0.8024  0.9146 -0.2819
30141SOL    HW297539   0.928  12.381   1.140 -0.1346 -0.4635 -0.7612
30142SOL     OW97540   3.808   2.217   0.500 -0.1147  0.1629  0.5887
30142SOL    HW197541   3.768   2.144   0.452  1.7617 -0.3874 -0.2465
30142SOL    HW297542   3.875   2.251   0.440  2.0991 -0.3247  2.6328
30143SOL     OW97543   3.789  10.311   3.201 -0.1373  0.3088  0.8081
30143SOL    HW197544   3.699  10.345   3.202 -0.5030 -0.5791 -0.2815
30143SOL    HW297545   3.819  10.326   3.112 -0.2099 -1.8870  0.3620
30144SOL     OW97546   4.688  11.285   0.104  0.0119  0.0986 -0.2122
30144SOL    HW197547   4.727  11.198   0.096 -0.8183 -0.3318  0.2867
30144SOL    HW297548   4.659  11.291   0.195 -0.6396  0.5914 -0.4393
30145SOL     OW97549   9.299  11.291  10.714 -0.4919  0.0079 -0.4351
30145SOL    HW197550   9.303  11.212  10.767 -2.8112  0.9635  1.3371
30145SOL    HW297551   9.391  11.316  10.699  0.2361 -1.6588  1.0004
30146SOL     OW97552   6.754  10.148   6.281  0.0822 -0.9487  0.2321
30146SOL    HW197553   6.778  10.230   6.238 -2.3341 -0.2696  0.0468
30146SOL    HW297554   6.766  10.166   6.374 -0.9673 -0.1763  0.2296
30147SOL     OW97555  11.819   7.222  11.521  0.6263 -0.1613  0.3476
30147SOL    HW197556  11.851   7.138  11.488 -1.3050 -0.2441 -1.5511
30147SOL    HW297557  11.726   7.208  11.538  0.1863  1.6359 -0.2881
30148SOL     OW97558  10.771   2.503   9.431 -0.2453 -0.8816 -0.5556
30148SOL    HW197559  10.836   2.492   9.500 -0.4339 -0.4194 -0.3039
30148SOL    HW297560  10.813   2.559   9.366 -1.2992  1.7080  0.8485
30149SOL     OW97561   6.863   7.011  10.453 -0.4322  0.8708 -0.1007
30149SOL    HW197562   6.879   6.977  10.541 -2.2539 -0.0878 -0.0957
30149SOL    HW297563   6.948   7.006  10.409  0.2435  0.2572  1.2316
30150SOL     OW97564  11.762  12.668  10.283  0.2876 -0.5290  0.2680
30150SOL    HW197565  11.795  12.698  10.367 -0.9498  1.8438 -0.0189
30150SOL    HW297566  11.669  12.654  10.298  0.2454 -1.0870 -0.4721
30151SOL     OW97567   3.313   7.100   5.255  0.5022  0.1663 -0.1003
30151SOL    HW197568   3.324   7.187   5.293  2.9141 -0.6066  1.2079
30151SOL    HW297569   3.395   7.084   5.209 -0.5564 -0.7992 -1.7416
30152SOL     OW97570   3.309   0.916  12.114  0.7297  0.1160 -0.1474
30152SOL    HW197571   3.228   0.897  12.163  0.1125 -0.4034 -1.3152
30152SOL    HW297572   3.374   0.934  12.181 -0.2657  0.1525  0.8420
30153SOL     OW97573   4.912   9.774   3.344  0.2420  0.3238 -0.7248
30153SOL    HW197574   4.850   9.786   3.271  2.1299 -0.0198 -2.4780
30153SOL    HW297575   4.996   9.802   3.309  1.0558  1.1827  1.7214
30154SOL     OW97576   8.309   5.341   1.952 -0.4814 -0.3242  0.0022
30154SOL    HW197577   8.251   5.387   2.013  0.9736  0.9270  0.5126
30154SOL    HW297578   8.303   5.390   1.871 -0.5443 -0.5239 -0.1154
30155SOL     OW97579  12.369   5.671   3.878 -0.3112 -0.0846  0.3105
30155SOL    HW197580  12.414   5.604   3.826 -1.4255  0.6544 -1.7201
30155SOL    HW297581  12.381   5.752   3.828 -1.1775  0.7321  1.3782
30156SOL     OW97582   3.974   9.134  10.479 -0.5125 -0.0673  0.8138
30156SOL    HW197583   3.963   9.202  10.546 -1.7530 -0.0312  0.6080
30156SOL    HW297584   4.039   9.074  10.515 -1.3005 -0.1575  2.1556
30157SOL     OW97585   6.333   1.909   0.990 -0.2129  0.0707  0.6453
30157SOL    HW197586   6.338   1.868   1.076 -0.3913 -0.1411  0.5535
30157SOL    HW297587   6.366   1.998   1.004 -1.5577  0.5039  1.2276
30158SOL     OW97588  10.311  10.721   9.546 -0.3349 -0.0166  0.0532
30158SOL    HW197589  10.350  10.772   9.476 -0.0611 -1.3698 -0.8076
30158SOL    HW297590  10.375  10.724   9.617  0.6970 -0.9695 -0.7993
30159SOL     OW97591  10.140   2.393   1.424 -0.6518 -0.1415 -0.4833
30159SOL    HW197592  10.054   2.420   1.455 -0.9877  0.3211 -1.7922
30159SOL    HW297593  10.178   2.471   1.386  1.5947  0.4816  2.5952
30160SOL     OW97594   7.818  11.537   5.073  0.5664 -0.3649  0.3876
30160SOL    HW197595   7.844  11.527   4.982 -1.2260 -4.5494  0.1300
30160SOL    HW297596   7.900  11.550   5.120  2.0603 -2.4964 -1.4274
30161SOL     OW97597  10.377   9.858  11.580 -0.1228  0.3635 -0.1991
30161SOL    HW197598  10.298   9.820  11.541  0.0679  0.2192 -0.4508
30161SOL    HW297599  10.379   9.948  11.547  1.4730 -0.5038 -2.7898
30162SOL     OW97600   8.483   8.931   1.468  0.0848 -0.1896 -0.4698
30162SOL    HW197601   8.526   8.873   1.531  2.4034  1.3403 -0.5012
30162SOL    HW297602   8.514   8.901   1.383 -2.5767 -1.8804 -0.9251
30163SOL     OW97603  12.323  10.622   6.784  0.3228 -0.1933 -0.5374
30163SOL    HW197604  12.264  10.674   6.838  0.9474  1.1898 -1.1354
30163SOL    HW297605  12.274  10.606   6.703  0.2543 -0.2487 -0.4851
30164SOL     OW97606   8.806   5.222   2.288  0.0638 -0.7266 -0.3442
30164SOL    HW197607   8.896   5.189   2.286  0.0496 -0.7633 -0.4027
30164SOL    HW297608   8.768   5.190   2.205  0.5534  0.8840 -1.2261
30165SOL     OW97609   9.966  12.872   8.095  0.4921 -0.3314 -0.2274
30165SOL    HW197610  10.048  12.824   8.111 -0.0827 -0.6731  1.9488
30165SOL    HW297611   9.913  12.811   8.042  1.2914 -0.4454 -0.9177
30166SOL     OW97612   8.154  10.228   8.118 -0.1810  0.7045 -0.4153
30166SOL    HW197613   8.193  10.141   8.125 -0.7713  0.1643 -2.8528
30166SOL    HW297614   8.229  10.287   8.109  0.2304  0.5249  1.4731
30167SOL     OW97615   4.478   6.861   7.529  0.7330 -0.1433  0.1380
30167SOL    HW197616   4.505   6.919   7.458  1.4059 -1.5168 -0.7559
30167SOL    HW297617   4.432   6.919   7.590 -0.9039  0.8999 -1.9457
30168SOL     OW97618  11.589   4.076   7.700 -0.2909 -0.3432 -1.0543
30168SOL    HW197619  11.522   4.119   7.753  0.4649  0.6573 -0.8843
30168SOL    HW297620  11.580   4.115   7.614  1.8692  1.9208 -0.3593
30169SOL     OW97621   7.712   3.824   1.855  0.5813  0.0788  0.1673
30169SOL    HW197622   7.655   3.866   1.919  1.7191  0.8346  0.7227
30169SOL    HW297623   7.653   3.772   1.800 -0.4937 -0.0222  1.3862
30170SOL     OW97624  11.167  10.797   6.015  1.1792 -0.2886  0.0987
30170SOL    HW197625  11.242  10.846   6.050  1.0638  0.0047 -0.0561
30170SOL    HW297626  11.170  10.815   5.921  1.7579 -1.4363 -0.1237
30171SOL     OW97627   1.678   7.553   1.930  0.4180 -0.1043 -0.0002
30171SOL    HW197628   1.653   7.513   2.013  0.7606 -2.7363 -1.0893
30171SOL    HW297629   1.758   7.601   1.949  0.9266 -1.3237  1.0340
30172SOL     OW97630   3.559   0.136   3.981 -0.1924 -0.2853 -0.3556
30172SOL    HW197631   3.558   0.208   4.044  1.0805 -0.7401  0.1967
30172SOL    HW297632   3.489   0.078   4.011  0.2666 -0.3981  0.5324
30173SOL     OW97633   5.223  11.997  10.551 -0.5888  0.2201  0.7453
30173SOL    HW197634   5.206  11.910  10.588  0.6714  0.3012  1.5633
30173SOL    HW297635   5.161  12.004  10.478 -0.2545 -1.6464  0.2163
30174SOL     OW97636   6.031   0.592   7.940 -0.2288 -0.1257 -0.5166
30174SOL    HW197637   5.986   0.515   7.974 -1.1657 -0.5045 -2.4696
30174SOL    HW297638   6.123   0.566   7.936  0.1123  0.2630  2.4566
30175SOL     OW97639  10.349  12.592  11.018  0.2431 -0.3730 -0.2283
30175SOL    HW197640  10.331  12.681  10.989  0.9574 -0.0910  0.1791
30175SOL    HW297641  10.262  12.552  11.027 -0.0415 -0.3505 -2.2852
30176SOL     OW97642   0.054   5.461  11.595  0.5693  0.5029 -0.2144
30176SOL    HW197643  -0.029   5.508  11.583  0.5070  0.2924 -0.6470
30176SOL    HW297644   0.046   5.384  11.539  0.4364 -0.3513  0.9392
30177SOL     OW97645   7.395   4.040   2.561  0.6125  0.1473  0.1676
30177SOL    HW197646   7.489   4.023   2.569  0.6385  0.0213 -0.3759
30177SOL    HW297647   7.388   4.135   2.558  0.8574  0.1385 -1.2788
30178SOL     OW97648   9.666   0.468   4.704  0.1859 -0.5978 -0.1803
30178SOL    HW197649   9.702   0.381   4.716  1.1229 -0.1821  0.1208
30178SOL    HW297650   9.584   0.468   4.754  1.6744 -0.3751  2.4288
30179SOL     OW97651   3.742   1.808   7.317 -0.3936 -0.2539  0.1683
30179SOL    HW197652   3.692   1.809   7.398 -0.1465  1.7360  0.3530
30179SOL    HW297653   3.828   1.844   7.341  0.0978 -0.7826 -0.7305
30180SOL     OW97654   8.827   8.910   5.634  0.7394  0.0520 -0.0379
30180SOL    HW197655   8.898   8.973   5.620  0.4315  0.1102 -1.4650
30180SOL    HW297656   8.762   8.932   5.567 -0.1346 -0.7097  0.5404
30181SOL     OW97657   0.450   6.285   2.704 -0.2873 -0.3262 -0.2136
30181SOL    HW197658   0.480   6.267   2.615  0.4125  0.2440 -0.1018
30181SOL    HW297659   0.530   6.286   2.757 -0.7534 -1.3461  0.5523
30182SOL     OW97660  10.133  11.665   9.623  0.2483 -0.0455 -0.4877
30182SOL    HW197661  10.209  11.608   9.631  0.9550  1.1349  3.4789
30182SOL    HW297662  10.067  11.624   9.678 -1.0570  0.4013 -1.6601
30183SOL     OW97663  10.745  10.424   8.612 -0.1049 -0.2201 -0.1334
30183SOL    HW197664  10.701  10.474   8.542 -0.4149 -1.9375 -1.2127
30183SOL    HW297665  10.752  10.336   8.577  1.6171 -0.6495  1.2146
30184SOL     OW97666   4.525   1.976   1.800 -0.2399  0.3365  0.5535
30184SOL    HW197667   4.598   2.003   1.857  1.2781  0.2080 -1.2385
30184SOL    HW297668   4.564   1.911   1.741 -2.1078 -0.5700  0.2577
30185SOL     OW97669   3.049  12.101  10.987  0.1884 -0.3929  0.8160
30185SOL    HW197670   3.049  12.015  11.028  0.5950 -0.2510  1.1183
30185SOL    HW297671   2.982  12.150  11.034  0.4087 -0.3413  1.0765
30186SOL     OW97672   3.755  10.868   9.330 -0.3203  0.0116  0.5453
30186SOL    HW197673   3.807  10.946   9.310 -1.5322  0.5028 -0.8795
30186SOL    HW297674   3.728  10.880   9.421  1.7119 -0.0971  1.2190
30187SOL     OW97675   9.348   2.377   8.579  0.1204 -1.1209 -0.7777
30187SOL    HW197676   9.363   2.382   8.484 -0.0046  1.3299 -0.7172
30187SOL    HW297677   9.254   2.393   8.589  0.0611 -1.7631 -0.2344
30188SOL     OW97678   4.033   2.728   4.075 -0.2727  0.0779  0.2300
30188SOL    HW197679   4.053   2.822   4.068 -0.0187  0.1648  1.8044
30188SOL    HW297680   4.058   2.692   3.990  1.2134  1.1477  0.1762
30189SOL     OW97681   1.591   4.511  11.974  0.0829 -0.0284  0.7266
30189SOL    HW197682   1.523   4.484  11.912  0.7837 -0.8027  0.2706
30189SOL    HW297683   1.557   4.485  12.059 -0.4511  0.1194  0.5621
30190SOL     OW97684   7.394  10.095   9.114  0.0833 -0.3345 -0.0654
30190SOL    HW197685   7.487  10.079   9.132 -0.5002 -1.2508  2.6661
30190SOL    HW297686   7.389  10.103   9.019  2.8566 -0.9104 -0.3458
30191SOL     OW97687   1.818   4.048   6.131  0.0105  0.4182 -0.0241
30191SOL    HW197688   1.909   4.075   6.143  0.1335  0.2977 -0.6429
30191SOL    HW297689   1.767   4.112   6.180  0.2845  1.8836 -1.5635
30192SOL     OW97690   3.488   0.535   7.401  0.3267 -0.4488  0.6136
30192SOL    HW197691   3.482   0.622   7.441  0.1619 -0.6021  0.9281
30192SOL    HW297692   3.504   0.476   7.475  0.0111 -0.7368  0.4538
30193SOL     OW97693   7.410   6.731   2.852  0.6551 -0.3119  0.0225
30193SOL    HW197694   7.329   6.782   2.859  0.4045 -0.6725 -0.2430
30193SOL    HW297695   7.476   6.796   2.829  0.6381  0.1444  1.2027
30194SOL     OW97696   7.672  12.221   1.268 -0.2498  0.1567  0.1534
30194SOL    HW197697   7.664  12.268   1.351  0.5289 -2.0910  1.5647
30194SOL    HW297698   7.604  12.154   1.272 -0.0777 -0.0985 -0.9664
30195SOL     OW97699   4.844  11.052   1.227  0.6513  0.0406  0.5993
30195SOL    HW197700   4.783  11.024   1.294 -0.4360  0.2077 -0.2966
30195SOL    HW297701   4.798  11.120   1.178  0.5139 -1.5796 -1.7001
30196SOL     OW97702   6.012   0.347  12.361  0.2658  0.0949 -0.3431
30196SOL    HW197703   5.925   0.310  12.374  0.6102 -0.6457 -0.0543
30196SOL    HW297704   6.060   0.325  12.441  0.8463  0.1089 -0.6770
30197SOL     OW97705  11.311   8.477   5.281 -0.6373 -0.1206  0.1351
30197SOL    HW197706  11.367   8.420   5.332 -2.3416 -1.5937  0.4526
30197SOL    HW297707  11.313   8.440   5.192 -0.8022  0.0606  0.0552
30198SOL     OW97708   1.445  10.192  11.378  0.2833  0.2061  0.1535
30198SOL    HW197709   1.378  10.125  11.393 -1.9641  2.2065 -0.3184
30198SOL    HW297710   1.511  10.176  11.445 -1.5742 -0.7627  1.8452
30199SOL     OW97711   0.249  10.778   0.953 -0.2246 -0.5124  0.0882
30199SOL    HW197712   0.229  10.742   1.039 -0.1601  1.1525  0.8519
30199SOL    HW297713   0.169  10.824   0.928  0.2211  0.1827 -0.0903
30200SOL     OW97714   7.104  11.278  11.996  0.1141 -0.3987  0.1941
30200SOL    HW197715   7.042  11.330  12.047  0.1628 -0.9007  0.7793
30200SOL    HW297716   7.137  11.213  12.058 -1.6758 -2.6379 -1.0547
30201SOL     OW97717   8.498   5.778  11.469 -0.3266  0.8149  0.1350
30201SOL    HW197718   8.404   5.774  11.485 -0.2226  0.3294  0.6598
30201SOL    HW297719   8.506   5.802  11.377 -0.9591  1.7425  0.3117
30202SOL     OW97720   8.770   3.613  11.249  0.2195  0.2175 -0.1366
30202SOL    HW197721   8.707   3.661  11.195  0.8157  1.1328 -0.0364
30202SOL    HW297722   8.781   3.667  11.327 -0.7596 -1.1798  1.0085
30203SOL     OW97723   7.616  10.904   5.297 -0.2750  0.7093  0.7396
30203SOL    HW197724   7.702  10.945   5.300  0.6826 -1.0377 -0.9013
30203SOL    HW297725   7.594  10.899   5.204 -0.5279 -1.9306  0.8440
30204SOL     OW97726  10.505  11.064  11.993  0.2513  0.8431 -0.4044
30204SOL    HW197727  10.423  11.076  12.039  1.1300 -1.2513  1.8917
30204SOL    HW297728  10.519  11.147  11.946 -2.2074  1.9091  0.6130
30205SOL     OW97729   0.555  11.642   6.240  0.5788 -0.1450 -0.3398
30205SOL    HW197730   0.602  11.575   6.291 -0.4548  0.0092  0.8569
30205SOL    HW297731   0.592  11.634   6.152  1.4104 -1.3986  0.0820
30206SOL     OW97732   9.114  12.744  10.885 -0.1434  0.2090  0.0081
30206SOL    HW197733   9.147  12.756  10.974 -1.3692  0.0329  0.5081
30206SOL    HW297734   9.062  12.664  10.890  1.0201 -0.6734 -1.2536
30207SOL     OW97735   5.556   8.449   5.235 -0.2001  0.1077  0.6625
30207SOL    HW197736   5.547   8.367   5.282  0.0547 -0.4393 -0.2236
30207SOL    HW297737   5.565   8.515   5.304 -2.7050 -0.2789  1.4544
30208SOL     OW97738   2.152   4.369  10.650 -0.1805  0.6780  0.1591
30208SOL    HW197739   2.135   4.293  10.705  0.2471 -1.0034 -1.9153
30208SOL    HW297740   2.149   4.443  10.710 -1.1755 -0.8981  2.1628
30209SOL     OW97741   0.587   2.521  10.306  0.2008  0.1384  0.0083
30209SOL    HW197742   0.659   2.488  10.253  0.8444 -0.7518  1.3795
30209SOL    HW297743   0.619   2.515  10.396 -1.9692 -1.3496  0.7683
30210SOL     OW97744   1.854  10.835   7.454  0.2571  0.4690 -0.3355
30210SOL    HW197745   1.927  10.861   7.398  0.8741  3.2704  1.5414
30210SOL    HW297746   1.895  10.793   7.530 -0.3880 -0.9683 -0.7386
30211SOL     OW97747   5.369   3.013   2.748  0.7043  0.4871 -0.7564
30211SOL    HW197748   5.285   2.972   2.726  1.1523  0.1979 -1.9957
30211SOL    HW297749   5.428   2.939   2.765  0.9651  0.6636 -0.8791
30212SOL     OW97750   3.591  10.917   6.562  0.0870  0.2453 -0.4353
30212SOL    HW197751   3.649  10.963   6.502  1.1520  1.8036  1.6378
30212SOL    HW297752   3.555  10.985   6.618 -0.2829 -1.1710  1.1561
30213SOL     OW97753   7.178   2.172   5.125 -0.1371  0.4277 -0.6495
30213SOL    HW197754   7.177   2.263   5.098 -1.7378  0.5146 -0.3797
30213SOL    HW297755   7.110   2.129   5.072 -0.4644 -0.2603  0.2862
30214SOL     OW97756   5.131   5.382   8.105  0.1964  0.5809 -0.1355
30214SOL    HW197757   5.225   5.392   8.088  0.4293 -2.0747 -0.7610
30214SOL    HW297758   5.100   5.322   8.037 -1.8152  0.7874  0.5287
30215SOL     OW97759   3.888   1.460   7.488  0.2316  0.1351  0.2472
30215SOL    HW197760   3.942   1.540   7.486  0.4965 -0.0465  0.0516
30215SOL    HW297761   3.920   1.412   7.564 -0.0650  0.3077  0.4834
30216SOL     OW97762  12.595   6.447   9.665  0.2009  0.0104 -0.8341
30216SOL    HW197763  12.641   6.527   9.639  0.2833  0.0648 -0.5225
30216SOL    HW297764  12.510   6.454   9.623 -0.2452  0.8395  0.1468
30217SOL     OW97765   5.200  10.825   2.195 -0.3908 -0.4323 -0.2330
30217SOL    HW197766   5.187  10.840   2.101 -1.3108  0.6063  0.0481
30217SOL    HW297767   5.111  10.817   2.231 -0.0341 -2.1752  0.3551
30218SOL     OW97768   6.500   7.261   4.539  0.5258  0.6390  0.1388
30218SOL    HW197769   6.486   7.186   4.480 -1.6606  0.3666  0.9502
30218SOL    HW297770   6.555   7.226   4.609 -0.8290 -0.3807  0.7400
30219SOL     OW97771  12.949  10.148   8.202  0.3910 -0.3733 -0.3014
30219SOL    HW197772  12.877  10.094   8.234  1.2642 -1.9899 -0.9355
30219SOL    HW297773  12.912  10.198   8.130 -0.7444  0.8466  1.0738
30220SOL     OW97774  12.948   7.279  10.059 -0.6837 -0.8853 -0.3485
30220SOL    HW197775  12.853   7.285  10.051 -0.7595  1.2435  1.2956
30220SOL    HW297776  12.962   7.227  10.139 -0.5559  0.6385  0.6548
30221SOL     OW97777   1.267   8.085  10.229 -0.4479  0.7135  0.1997
30221SOL    HW197778   1.338   8.023  10.218 -1.4185 -0.3510 -0.2637
30221SOL    HW297779   1.291   8.136  10.306  0.7959  0.3844  0.0515
30222SOL     OW97780   4.506   1.185   3.478  1.1649 -0.1812  0.6044
30222SOL    HW197781   4.494   1.257   3.416 -1.2049 -0.4634  0.6520
30222SOL    HW297782   4.529   1.228   3.560  1.9980  0.3532  0.1062
30223SOL     OW97783   9.526  10.712   4.735  0.0390  0.4369  0.2351
30223SOL    HW197784   9.530  10.731   4.829  0.0688  0.2250  0.2767
30223SOL    HW297785   9.617  10.711   4.707 -0.0050  1.4082  0.0189
30224SOL     OW97786   9.366   9.219  11.219  0.3998 -0.3446 -0.1289
30224SOL    HW197787   9.358   9.276  11.295  1.0150  2.3818 -1.9666
30224SOL    HW297788   9.284   9.232  11.171  1.1633  0.2154 -1.3269
30225SOL     OW97789   2.959   2.873   5.903  0.0030  0.5738 -0.6134
30225SOL    HW197790   2.990   2.853   5.815 -0.7906  0.3917 -0.8621
30225SOL    HW297791   3.019   2.827   5.961 -0.6493 -1.0066 -1.1248
30226SOL     OW97792   9.375   9.044   8.334  0.1490 -0.2979 -0.2425
30226SOL    HW197793   9.439   9.111   8.357 -0.2294  0.3250 -0.9394
30226SOL    HW297794   9.425   8.963   8.331  1.0524  0.2610 -1.3623
30227SOL     OW97795   7.043  10.297   5.045 -0.3520  0.5871 -0.0703
30227SOL    HW197796   7.052  10.228   5.111 -1.7501  1.0790  0.6730
30227SOL    HW297797   7.008  10.372   5.094  0.5450  1.6385 -0.9835
30228SOL     OW97798   9.773   6.451   4.233 -0.4864 -0.1370  0.4021
30228SOL    HW197799   9.848   6.397   4.259  0.0874  0.6847  0.4698
30228SOL    HW297800   9.793   6.478   4.143  0.1769  1.5558  1.0230
30229SOL     OW97801   4.775   5.194   5.435 -0.4378 -0.2131 -0.5802
30229SOL    HW197802   4.795   5.255   5.364 -1.4461  0.5052 -0.2604
30229SOL    HW297803   4.798   5.108   5.399  1.9767  0.4085 -0.6730
30230SOL     OW97804  12.872   1.004   9.192 -0.3534 -0.4128 -0.2061
30230SOL    HW197805  12.907   1.032   9.108  0.6901  0.6523  0.5536
30230SOL    HW297806  12.943   1.020   9.254 -1.4757 -0.1298  1.0451
30231SOL     OW97807   7.433   4.773   3.984 -0.1336  0.2372 -0.4163
30231SOL    HW197808   7.351   4.792   4.028 -0.0365 -2.2737  1.0494
30231SOL    HW297809   7.407   4.729   3.903 -0.3413 -2.2452  0.8985
30232SOL     OW97810   7.959   3.865   0.520 -0.0928  0.3296 -0.0246
30232SOL    HW197811   8.051   3.892   0.514  0.5396 -1.6894 -0.1687
30232SOL    HW297812   7.958   3.798   0.588 -0.9735 -1.4079 -1.6431
30233SOL     OW97813   8.582   0.092   4.683 -0.2383 -0.1661 -0.5717
30233SOL    HW197814   8.664   0.130   4.715 -0.1864  0.1812 -1.0982
30233SOL    HW297815   8.609   0.014   4.634 -0.0231  1.0311 -2.4432
30234SOL     OW97816   1.059   5.802   4.283 -0.0450  0.1612  0.5232
30234SOL    HW197817   1.038   5.729   4.225 -2.0313 -0.2892  1.7280
30234SOL    HW297818   1.118   5.858   4.231 -0.5227 -0.9864 -1.3389
30235SOL     OW97819   9.800   8.438   2.101 -0.1407  0.0141 -0.0844
30235SOL    HW197820   9.718   8.450   2.053  0.5761  1.3779 -1.0307
30235SOL    HW297821   9.859   8.504   2.065  0.5789  0.8520  2.4058
30236SOL     OW97822   6.891   4.163   2.139  0.4061 -0.0256 -0.1405
30236SOL    HW197823   6.856   4.077   2.160  1.4335 -0.4852 -0.2666
30236SOL    HW297824   6.876   4.215   2.218  0.2016 -0.4425  0.0978
30237SOL     OW97825   1.767  11.758   3.603  0.1908 -0.0556 -0.2929
30237SOL    HW197826   1.751  11.853   3.598 -0.1044 -0.1622 -1.6520
30237SOL    HW297827   1.696  11.719   3.552 -0.9754 -1.1718  2.0468
30238SOL     OW97828   3.352   1.617   7.241 -0.1865 -0.1082 -0.0682
30238SOL    HW197829   3.274   1.641   7.292 -0.2901  0.1397 -0.3387
30238SOL    HW297830   3.368   1.693   7.185 -0.0188 -0.3410 -0.3381
30239SOL     OW97831   2.361   2.809   3.732 -0.5814 -0.0249  0.2390
30239SOL    HW197832   2.367   2.727   3.781 -2.0112  0.2175  0.8774
30239SOL    HW297833   2.414   2.795   3.654  0.5608 -0.9453  1.1432
30240SOL     OW97834  10.095  12.931   5.296  0.2441 -0.0155 -0.3379
30240SOL    HW197835  10.063  12.956   5.209  0.1482  0.8890 -0.0540
30240SOL    HW297836  10.084  12.836   5.299 -2.2663  0.2098 -0.3300
30241SOL     OW97837   3.566   1.009   5.857 -0.2082  0.9417 -0.1876
30241SOL    HW197838   3.504   1.062   5.807 -0.1884  0.5841 -0.5915
30241SOL    HW297839   3.639   0.995   5.798 -0.8762 -0.8334 -0.6588
30242SOL     OW97840   3.478  11.186   8.548 -0.1868  0.6778 -0.4316
30242SOL    HW197841   3.514  11.144   8.470 -0.7448  2.6554 -1.8222
30242SOL    HW297842   3.384  11.166   8.545 -0.1484  0.4208 -0.0256
30243SOL     OW97843   4.884  12.428   2.223  0.1384  0.1526  0.7266
30243SOL    HW197844   4.915  12.437   2.313  2.1629  0.0777  0.1024
30243SOL    HW297845   4.870  12.334   2.212 -2.4320  0.3619  1.6103
30244SOL     OW97846   1.451   4.067  12.265  0.2344 -0.1641  0.5231
30244SOL    HW197847   1.437   4.155  12.301  0.7605 -0.3440  1.1921
30244SOL    HW297848   1.537   4.041  12.297  1.1453  0.0081 -1.6391
30245SOL     OW97849   6.675   9.502   4.088 -0.5011 -0.3648  0.1152
30245SOL    HW197850   6.740   9.487   4.157 -0.5772 -0.9666  0.0617
30245SOL    HW297851   6.597   9.532   4.135 -0.0541  0.7958  0.1400
30246SOL     OW97852  11.599   5.178   3.059 -0.4651 -0.4323 -0.3324
30246SOL    HW197853  11.526   5.229   3.094 -0.5529 -0.8825  0.1560
30246SOL    HW297854  11.619   5.114   3.128 -0.5812 -1.2848 -1.0654
30247SOL     OW97855  12.625   7.894   0.444  0.4032  0.4885 -0.3248
30247SOL    HW197856  12.674   7.812   0.450 -0.1057  0.2888  1.6882
30247SOL    HW297857  12.634   7.921   0.352  1.2501 -1.3889 -0.8318
30248SOL     OW97858   4.827   6.592   4.489  0.2240  0.2950 -0.4238
30248SOL    HW197859   4.877   6.571   4.410  0.6280  0.5034 -0.2263
30248SOL    HW297860   4.894   6.612   4.555 -0.0852 -0.5014  0.1518
30249SOL     OW97861   0.586   1.649  12.229  0.5350  0.2123 -0.5076
30249SOL    HW197862   0.546   1.694  12.304 -1.7830 -0.3182 -1.3528
30249SOL    HW297863   0.591   1.716  12.161 -0.4708 -0.1099 -0.9176
30250SOL     OW97864  11.696   5.067   0.747 -0.1155 -0.0406 -0.0907
30250SOL    HW197865  11.684   5.160   0.765  1.5215  0.3487 -0.8770
30250SOL    HW297866  11.733   5.063   0.659  1.5475 -1.3066  0.5990
30251SOL     OW97867   8.039   7.455   7.702 -0.6893 -0.9882  0.0526
30251SOL    HW197868   8.057   7.379   7.756 -0.8603 -1.3888 -0.4470
30251SOL    HW297869   7.963   7.497   7.743  0.4456 -0.0874  1.3434
30252SOL     OW97870   7.276  12.631  11.338 -0.2107 -0.2411  0.0663
30252SOL    HW197871   7.341  12.697  11.313 -2.6889  2.3992  0.0319
30252SOL    HW297872   7.253  12.654  11.429 -0.9738 -1.1919  0.1300
30253SOL     OW97873   6.820   4.864   8.891  0.1315  0.3665  0.4444
30253SOL    HW197874   6.898   4.883   8.839  0.4497  0.0099  0.7887
30253SOL    HW297875   6.778   4.791   8.845  0.0364  0.5144  0.2968
30254SOL     OW97876   7.865   2.467  12.073  0.5532 -0.0236 -0.4849
30254SOL    HW197877   7.839   2.389  12.023 -0.1943  1.4768 -2.5813
30254SOL    HW297878   7.951   2.445  12.110  0.2383 -1.9127 -0.7867
30255SOL     OW97879   6.200   4.900  11.170 -0.1664  0.1328 -0.1521
30255SOL    HW197880   6.177   4.807  11.164  0.8537 -0.0852 -0.8592
30255SOL    HW297881   6.190   4.933  11.081  4.0983 -0.4626 -1.0725
30256SOL     OW97882  10.013   0.889  12.749 -0.0214  0.6064  0.0530
30256SOL    HW197883  10.028   0.921  12.838  0.5599 -0.8160  0.4974
30256SOL    HW297884   9.952   0.816  12.760 -1.5403  1.6541 -0.9609
30257SOL     OW97885  10.138   3.503   6.369 -0.4234  0.0310  0.3558
30257SOL    HW197886  10.114   3.487   6.278 -0.4872 -1.9630  0.6846
30257SOL    HW297887  10.073   3.566   6.400 -0.4898  0.6216 -0.9136
30258SOL     OW97888   8.593   2.436  12.323 -0.0199  0.0708  0.2737
30258SOL    HW197889   8.588   2.340  12.325 -0.3322  0.0055 -1.5732
30258SOL    HW297890   8.635   2.460  12.405  0.7830 -1.7003  0.4238
30259SOL     OW97891  10.405   1.484   5.317  0.3211 -0.1560  0.3555
30259SOL    HW197892  10.355   1.533   5.252  0.9474 -1.1426 -0.9069
30259SOL    HW297893  10.497   1.505   5.298  0.5859 -1.4979  0.0061
30260SOL     OW97894   0.452   8.367   4.797  0.1858 -0.1177 -0.1389
30260SOL    HW197895   0.378   8.398   4.745  0.5985 -0.8450 -1.2169
30260SOL    HW297896   0.417   8.351   4.884 -1.1569 -1.2918 -0.8522
30261SOL     OW97897   9.686   7.706   5.712  0.0662 -0.3001  0.8503
30261SOL    HW197898   9.613   7.657   5.674  1.0031 -1.3150  0.2970
30261SOL    HW297899   9.691   7.676   5.803  1.2934 -2.0944  0.2390
30262SOL     OW97900   5.713   5.187   4.391 -0.0850  0.0272  0.6992
30262SOL    HW197901   5.749   5.120   4.333  1.3680  0.0658  1.5208
30262SOL    HW297902   5.627   5.152   4.417 -1.5928  0.7727 -2.7368
30263SOL     OW97903   1.824   0.909   9.656  0.0111  0.8679  0.1874
30263SOL    HW197904   1.743   0.872   9.620 -0.5983  1.6108  0.7380
30263SOL    HW297905   1.881   0.834   9.670 -0.9773  0.1988  0.7518
30264SOL     OW97906  12.408   7.104   7.057 -0.2582 -0.0180  0.0175
30264SOL    HW197907  12.394   7.185   7.106  1.5876  0.3074  0.0640
30264SOL    HW297908  12.395   7.035   7.122  0.5376  0.3515  0.5829
30265SOL     OW97909   1.776   5.111   3.956 -0.5816 -0.3743 -0.1851
30265SOL    HW197910   1.775   5.084   4.048 -1.5232 -0.6701 -0.2645
30265SOL    HW297911   1.858   5.076   3.921 -0.7152 -1.1876  0.2843
30266SOL     OW97912   2.469   2.945   9.206 -0.0130 -0.6834 -0.2010
30266SOL    HW197913   2.542   2.888   9.182 -0.1666 -1.1511  0.4334
30266SOL    HW297914   2.406   2.933   9.136  0.2910 -0.6805 -0.4803
30267SOL     OW97915   6.991  11.284   9.733 -0.6648 -1.0616 -0.0897
30267SOL    HW197916   7.050  11.209   9.742  0.8329  0.1954  1.1841
30267SOL    HW297917   6.915  11.261   9.787  0.7642 -0.8037  2.1677
30268SOL     OW97918   2.288   6.056   5.856 -0.3782  0.6260 -0.2482
30268SOL    HW197919   2.364   6.108   5.830 -0.7095  1.4186  0.3154
30268SOL    HW297920   2.292   5.978   5.801  0.0932  1.2874 -1.1847
30269SOL     OW97921   5.542   3.072   8.513  0.7013  0.0613  0.3305
30269SOL    HW197922   5.629   3.062   8.552  0.1081 -1.5320  1.3409
30269SOL    HW297923   5.487   3.102   8.586  0.2477  0.3198 -0.1144
30270SOL     OW97924   5.788   9.702   9.853 -0.4830 -0.1477 -0.2822
30270SOL    HW197925   5.786   9.756   9.932  3.0347 -1.8159  1.1706
30270SOL    HW297926   5.783   9.612   9.886  2.4109 -0.9570 -1.6943
30271SOL     OW97927   7.021  11.873   2.089 -0.6641  0.0400  0.6475
30271SOL    HW197928   6.967  11.910   2.159  0.2676  1.2112  0.7744
30271SOL    HW297929   7.108  11.864   2.128 -0.0004  1.1782 -0.4768
30272SOL     OW97930   6.940   6.123   9.585 -0.3081 -0.3506 -0.0419
30272SOL    HW197931   6.846   6.139   9.597 -0.5173  1.2767 -2.9363
30272SOL    HW297932   6.981   6.208   9.600  1.0680 -1.4020  3.0127
30273SOL     OW97933  11.678   9.371   0.879  0.1744 -0.4396  0.2981
30273SOL    HW197934  11.663   9.281   0.909 -0.1271  0.0914  1.8724
30273SOL    HW297935  11.690   9.364   0.785 -1.2505 -1.9656  0.1882
30274SOL     OW97936   7.565   5.909   6.096  0.1242  0.1200  0.1650
30274SOL    HW197937   7.619   5.834   6.069 -0.4361 -0.3194  0.2344
30274SOL    HW297938   7.512   5.929   6.020 -1.7850 -1.4122  1.0154
30275SOL     OW97939  12.934   0.062   8.687  0.3054  0.4870 -0.5358
30275SOL    HW197940  12.876   0.052   8.612  0.5588 -0.4000 -0.6228
30275SOL    HW297941  13.015   0.098   8.650  0.1565  0.7972 -0.5623
30276SOL     OW97942   3.611  10.943  12.217  0.0982  0.3355 -0.3275
30276SOL    HW197943   3.593  11.004  12.146 -0.1736 -0.6690 -1.1381
30276SOL    HW297944   3.587  10.857  12.182  0.7461 -0.2794  0.6894
30277SOL     OW97945   4.866   9.429   2.171 -0.7938 -0.0133  0.3933
30277SOL    HW197946   4.798   9.433   2.104 -1.4427  2.0824  1.0849
30277SOL    HW297947   4.937   9.378   2.131 -1.7483 -0.0972 -1.2887
30278SOL     OW97948  10.755   6.209   5.515 -0.2936 -0.5271  0.0286
30278SOL    HW197949  10.715   6.178   5.434 -0.6270 -1.6628  0.5959
30278SOL    HW297950  10.845   6.176   5.511  0.1188  0.6358 -0.5131
30279SOL     OW97951   2.321   5.317  11.380 -0.4561 -0.1185  0.0625
30279SOL    HW197952   2.383   5.301  11.452 -0.7146 -1.5664 -0.0223
30279SOL    HW297953   2.308   5.412  11.382  0.1868 -0.0270  1.3955
30280SOL     OW97954   5.371   1.442   5.085  0.1939 -0.6674  0.2653
30280SOL    HW197955   5.341   1.532   5.094  0.4532 -0.4197 -1.1319
30280SOL    HW297956   5.356   1.403   5.171 -0.2548  0.6008  0.7841
30281SOL     OW97957   4.156   8.473  11.158 -0.3321  0.4488  0.3761
30281SOL    HW197958   4.125   8.431  11.077 -0.7231  1.4334  0.0001
30281SOL    HW297959   4.242   8.507  11.136 -0.5040  0.8554  0.3154
30282SOL     OW97960   0.081  11.001   2.190  0.1567 -0.1299 -0.4200
30282SOL    HW197961   0.049  10.991   2.100  0.2419  1.1276 -0.6105
30282SOL    HW297962   0.146  10.931   2.200  1.2634  0.6304 -1.8625
30283SOL     OW97963  10.315   7.093   7.858 -0.0012 -0.1750  0.1641
30283SOL    HW197964  10.223   7.093   7.882 -0.9903  0.4094 -3.0323
30283SOL    HW297965  10.321   7.031   7.785  2.8016 -2.4025  2.0686
30284SOL     OW97966   2.216   4.206   1.831  0.3650 -0.2195 -0.8724
30284SOL    HW197967   2.223   4.273   1.898  1.7412  0.1164 -1.3145
30284SOL    HW297968   2.129   4.168   1.843 -0.4405  1.6105 -0.5958
30285SOL     OW97969   6.021   5.306   2.925  0.3630 -0.2762 -0.4294
30285SOL    HW197970   5.997   5.214   2.941  0.1398 -0.3243 -1.0292
30285SOL    HW297971   6.084   5.302   2.853  1.5857 -0.0806  0.5883
30286SOL     OW97972   5.828   1.426   7.212  0.3161 -0.8066  0.9666
30286SOL    HW197973   5.790   1.408   7.126  0.5474  2.1875  0.1173
30286SOL    HW297974   5.752   1.437   7.270  0.0930 -0.7361  0.6604
30287SOL     OW97975   2.718   2.613  12.388  0.0631 -0.6373  0.5099
30287SOL    HW197976   2.803   2.658  12.389 -0.3920  0.2722 -0.1763
30287SOL    HW297977   2.740   2.523  12.363  0.7753 -0.2525 -0.3386
30288SOL     OW97978   5.932   3.738   5.587 -0.7919  0.4261 -0.5339
30288SOL    HW197979   5.980   3.819   5.601  0.0190  0.2299 -1.9655
30288SOL    HW297980   5.853   3.747   5.640 -0.8561  2.2677 -0.8892
30289SOL     OW97981   8.678   9.573   1.739 -0.5766 -1.1835 -1.0806
30289SOL    HW197982   8.625   9.652   1.751  0.8717 -0.1699 -1.0659
30289SOL    HW297983   8.628   9.520   1.677 -1.0771  0.2470 -1.9639
30290SOL     OW97984   3.752  11.101   0.956  0.0950 -0.5600  0.3106
30290SOL    HW197985   3.792  11.179   0.994  2.6413 -0.8939 -1.4957
30290SOL    HW297986   3.710  11.132   0.876 -0.8551 -0.6976  0.7433
30291SOL     OW97987   7.573  11.906   6.462 -0.5036 -0.1750  0.0621
30291SOL    HW197988   7.611  11.957   6.391 -1.4231  1.4437  0.6736
30291SOL    HW297989   7.602  11.950   6.542 -1.0423 -0.8036  0.6195
30292SOL     OW97990   8.399   9.021   0.687 -0.2193  0.6510 -0.0806
30292SOL    HW197991   8.308   9.018   0.657 -0.9361  1.1359  1.8740
30292SOL    HW297992   8.392   9.040   0.781  1.9262  1.0692  0.0320
30293SOL     OW97993   9.704   1.565   5.536  0.0399 -0.4257 -0.0671
30293SOL    HW197994   9.619   1.545   5.497 -0.2402  1.0624 -0.2733
30293SOL    HW297995   9.726   1.653   5.503  1.1692 -0.3589  0.8001
30294SOL     OW97996   0.104   3.812   2.781  0.4912 -0.1621 -0.5404
30294SOL    HW197997   0.077   3.784   2.869 -0.0722 -1.0471 -0.9908
30294SOL    HW297998   0.036   3.779   2.723  2.5339 -2.6110 -1.7474
30295SOL     OW97999   3.648  11.740   8.658  0.7361 -0.2986 -0.0647
30295SOL    HW198000   3.720  11.803   8.662  0.4388  0.1710 -1.4740
30295SOL    HW298001   3.686  11.658   8.691  0.9186  0.7457  2.5261
30296SOL     OW98002   5.344   6.384   6.813  0.6606 -0.0079 -0.3938
30296SOL    HW198003   5.333   6.435   6.893 -2.3563 -1.6556  0.4143
30296SOL    HW298004   5.434   6.352   6.817  1.5879  2.4697  0.6786
30297SOL     OW98005  11.041  10.870   2.202  0.1847  0.1161  0.5470
30297SOL    HW198006  11.068  10.811   2.132  0.7675  0.9551  0.0385
30297SOL    HW298007  11.004  10.813   2.269  2.0419 -0.9878  0.7092
30298SOL     OW98008  12.704   5.051   9.971 -0.0606 -0.5452  0.1134
30298SOL    HW198009  12.666   5.021  10.053 -1.0797  1.2715  0.3515
30298SOL    HW298010  12.794   5.018   9.973 -0.1031 -0.6548  1.8828
30299SOL     OW98011   8.009   1.851   2.214 -0.4575  0.3107 -0.6933
30299SOL    HW198012   8.104   1.847   2.206 -0.4444  0.9711 -0.9014
30299SOL    HW298013   7.983   1.925   2.159 -1.1609 -0.3169 -1.2411
30300SOL     OW98014   0.945  12.853   6.337  0.2433  0.0257 -0.5015
30300SOL    HW198015   0.929  12.859   6.431  1.2706  2.4077 -0.3890
30300SOL    HW298016   0.864  12.817   6.301 -0.5190 -0.0618  1.2005
30301SOL     OW98017  12.323   5.165   0.423 -0.0276 -0.0209 -0.1575
30301SOL    HW198018  12.304   5.152   0.515 -2.5298 -1.4813 -0.8065
30301SOL    HW298019  12.410   5.126   0.411  0.2204 -0.0524  1.4836
30302SOL     OW98020   0.862  11.890   6.283 -0.1550 -0.3362 -0.1874
30302SOL    HW198021   0.942  11.932   6.314 -1.6270  0.9406  2.1714
30302SOL    HW298022   0.822  11.953   6.224 -1.1166  0.6152  1.4060
30303SOL     OW98023   0.269   9.560   9.098  0.1527 -0.0791 -0.4396
30303SOL    HW198024   0.363   9.563   9.081  0.2002 -1.8126 -0.5819
30303SOL    HW298025   0.229   9.559   9.012  0.0481 -0.4435 -0.3870
30304SOL     OW98026  12.085   4.766  10.911 -0.6086 -0.5422 -0.7553
30304SOL    HW198027  12.153   4.740  10.849 -0.9534 -2.8231 -0.2629
30304SOL    HW298028  12.089   4.862  10.912  1.5344 -0.5575 -1.8789
30305SOL     OW98029   4.770   3.304   3.192  0.1556 -0.1710 -0.5375
30305SOL    HW198030   4.744   3.271   3.277 -1.7072  0.8009 -0.6866
30305SOL    HW298031   4.730   3.391   3.186  1.1905  0.2574 -1.9481
30306SOL     OW98032   0.530   3.431  11.203  0.0560 -0.4796  0.7133
30306SOL    HW198033   0.593   3.435  11.130  0.8400  2.1998  1.4421
30306SOL    HW298034   0.526   3.337  11.225 -0.5361 -1.4706 -2.9594
30307SOL     OW98035   2.194   6.369   3.517 -0.6040  0.4548 -0.9488
30307SOL    HW198036   2.212   6.435   3.584  2.3045 -1.9762  0.9513
30307SOL    HW298037   2.112   6.329   3.545 -1.7406  2.2934 -1.4313
30308SOL     OW98038   9.954   5.975   2.545  0.0436  0.2384 -0.3370
30308SOL    HW198039   9.953   5.880   2.561 -4.4386  0.4723  2.5323
30308SOL    HW298040   9.926   5.983   2.453  1.6400 -1.1556 -0.9941
30309SOL     OW98041   3.728   1.890   3.701 -0.7835 -0.2450 -0.2832
30309SOL    HW198042   3.717   1.796   3.716 -1.9976 -0.2170 -0.8177
30309SOL    HW298043   3.779   1.895   3.620  1.2646 -0.4036  0.9237
30310SOL     OW98044   7.667   6.737   1.841 -0.3963  0.2337 -0.1311
30310SOL    HW198045   7.656   6.809   1.903  0.1994 -0.4962  0.8599
30310SOL    HW298046   7.599   6.674   1.866  0.8425 -0.7756  0.8727
30311SOL     OW98047   3.876   4.525   9.675  0.2536  0.0330 -0.1120
30311SOL    HW198048   3.893   4.614   9.706  1.4773  0.0278 -0.7086
30311SOL    HW298049   3.799   4.533   9.619  0.2130  0.6782  0.0370
30312SOL     OW98050   4.531   3.427  10.483 -0.1074 -0.3159  0.1848
30312SOL    HW198051   4.468   3.358  10.462 -1.5071  1.0688 -0.3859
30312SOL    HW298052   4.576   3.445  10.401 -0.6715  0.3136 -0.0016
30313SOL     OW98053   7.857  12.557   9.830  0.2659  0.2695 -0.3553
30313SOL    HW198054   7.877  12.480   9.776 -0.3968 -1.1845  1.3626
30313SOL    HW298055   7.931  12.562   9.891  0.2760  0.9852 -0.4182
30314SOL     OW98056   4.646  10.333  11.004  0.5220  0.4726 -0.4304
30314SOL    HW198057   4.584  10.353  10.934  0.6192 -1.3189 -1.0927
30314SOL    HW298058   4.731  10.332  10.960  0.5194 -1.2858 -0.4894
30315SOL     OW98059   0.203   4.841   1.328  0.1599 -0.1833 -0.2824
30315SOL    HW198060   0.234   4.753   1.305  2.0825  0.4228 -0.2221
30315SOL    HW298061   0.275   4.879   1.378 -0.5794  1.4664 -0.4044
30316SOL     OW98062   4.686   5.607  11.764  0.2792 -0.1085  0.2595
30316SOL    HW198063   4.626   5.538  11.736 -0.3716  0.2281  0.7619
30316SOL    HW298064   4.744   5.565  11.828 -1.3225  0.1961  2.0081
30317SOL     OW98065   8.066   8.777   3.697 -0.0515 -0.3002 -0.1669
30317SOL    HW198066   8.062   8.707   3.632  1.5581 -1.3576  0.7819
30317SOL    HW298067   8.013   8.745   3.770  0.5229 -0.4591  0.1881
30318SOL     OW98068   3.098   1.724   8.539 -0.1320  0.1811  0.2473
30318SOL    HW198069   3.022   1.693   8.590  0.2899  0.4074  1.0318
30318SOL    HW298070   3.159   1.650   8.540  0.0921  0.3649  0.5268
30319SOL     OW98071   2.212   1.840   4.129  0.3653  0.1948  0.4832
30319SOL    HW198072   2.205   1.875   4.218  1.7040 -0.0211  0.6879
30319SOL    HW298073   2.172   1.753   4.135 -1.5391  0.9917  0.3288
30320SOL     OW98074  11.008   3.555  11.079 -0.1159  0.0808 -0.3762
30320SOL    HW198075  10.989   3.469  11.040 -0.3054  0.1583 -0.4554
30320SOL    HW298076  10.947   3.614  11.036  0.2019  0.3074 -0.5242
30321SOL     OW98077   4.472   4.719   4.223 -0.7116 -0.4683  0.4928
30321SOL    HW198078   4.443   4.774   4.151 -0.5497 -2.4500 -1.1788
30321SOL    HW298079   4.547   4.670   4.188 -2.0287 -3.1667  1.1445
30322SOL     OW98080   0.936   4.596   4.577 -0.2348 -0.2746  0.1788
30322SOL    HW198081   0.869   4.622   4.641 -2.1681  1.0860 -2.2108
30322SOL    HW298082   0.890   4.537   4.518  1.1499 -0.5520 -0.6548
30323SOL     OW98083   4.412   6.636   4.999  0.4506  0.1300 -0.3291
30323SOL    HW198084   4.392   6.564   4.939 -0.3448  1.0582 -1.2240
30323SOL    HW298085   4.326   6.668   5.027  0.8055  0.2144  0.7050
30324SOL     OW98086   6.031   4.301   9.164 -0.4973 -0.7984  0.5621
30324SOL    HW198087   6.070   4.320   9.079  0.2383 -2.8795  0.3608
30324SOL    HW298088   5.956   4.245   9.144 -0.2122 -1.4514  1.2532
30325SOL     OW98089  12.659  11.251   9.957  0.0516 -0.0954 -0.0331
30325SOL    HW198090  12.622  11.210   9.879 -3.4920  1.1445  0.8144
30325SOL    HW298091  12.652  11.184  10.024  1.4759 -0.5837 -0.3504
30326SOL     OW98092  11.989  11.088   6.648 -0.4899  0.3801  0.2505
30326SOL    HW198093  12.082  11.081   6.627  0.0482 -1.2415  2.7875
30326SOL    HW298094  11.978  11.177   6.681  0.2251  0.4762  0.2319
30327SOL     OW98095   7.760  10.291   3.026  0.0834 -0.2786  0.2716
30327SOL    HW198096   7.809  10.373   3.022 -0.4581  0.0645  0.6701
30327SOL    HW298097   7.734  10.282   3.118 -1.7901  0.2465 -0.1743
30328SOL     OW98098   6.160   3.129   0.334 -0.2298  0.3229  0.4442
30328SOL    HW198099   6.075   3.089   0.352 -0.4326  0.2021 -0.7341
30328SOL    HW298100   6.162   3.207   0.390 -1.2144  0.4582  0.3131
30329SOL     OW98101   2.637   7.444   6.522 -0.2291 -0.5016  0.0819
30329SOL    HW198102   2.585   7.494   6.585  0.9156  0.6427  0.1434
30329SOL    HW298103   2.699   7.395   6.576  1.4305  1.2568 -0.1549
30330SOL     OW98104   4.307  11.968   2.987  0.0270 -0.0793  0.1103
30330SOL    HW198105   4.355  12.050   3.003 -0.9014  0.3335  0.8766
30330SOL    HW298106   4.367  11.899   3.016 -0.3068  0.4844  2.3878
30331SOL     OW98107   2.380   3.023   8.606  0.8259 -0.1135 -0.1722
30331SOL    HW198108   2.372   2.953   8.672 -0.3970  0.3026  0.1448
30331SOL    HW298109   2.294   3.066   8.606  1.7042  1.7234  0.0086
30332SOL     OW98110   6.041   4.116   3.557 -0.1210  0.3169 -0.3919
30332SOL    HW198111   6.073   4.157   3.638 -1.3709  0.4655  0.0583
30332SOL    HW298112   6.049   4.184   3.491  1.7855 -0.0953 -0.6386
30333SOL     OW98113  11.921   5.620   3.804 -0.2590 -0.3295 -0.0061
30333SOL    HW198114  11.896   5.704   3.842 -2.0611 -0.5020 -0.6915
30333SOL    HW298115  11.970   5.643   3.725  0.2593  0.0596  0.4252
30334SOL     OW98116   3.819   0.412   9.574  0.6655 -0.6762 -0.3960
30334SOL    HW198117   3.763   0.490   9.571  1.7147  0.3113  2.3133
30334SOL    HW298118   3.877   0.421   9.498 -0.2899  0.3275 -1.0337
30335SOL     OW98119   8.270   6.174   0.017 -0.2870  0.3211  0.2113
30335SOL    HW198120   8.335   6.111  -0.013 -1.9743 -1.3422 -0.0772
30335SOL    HW298121   8.237   6.215  -0.064 -0.0191  0.7674  0.3208
30336SOL     OW98122  12.304   1.564   7.137  0.0175 -0.1026  0.5851
30336SOL    HW198123  12.370   1.633   7.151  1.0580 -1.2235  1.4722
30336SOL    HW298124  12.226   1.611   7.110  0.0007  1.6948  3.3172
30337SOL     OW98125  10.728   9.401   7.763 -0.2898  0.0794  0.1714
30337SOL    HW198126  10.769   9.314   7.761 -0.4537 -0.0076  0.5862
30337SOL    HW298127  10.774   9.450   7.694 -0.6501 -0.5335 -0.5176
30338SOL     OW98128   7.741   0.575   2.848  0.5176  0.1008 -0.1055
30338SOL    HW198129   7.647   0.573   2.828  0.1800  2.0643  1.0232
30338SOL    HW298130   7.775   0.644   2.791  1.0995  0.0328  0.1612
30339SOL     OW98131   8.598   7.822   5.302  0.3217 -0.6015 -0.5315
30339SOL    HW198132   8.548   7.780   5.232  1.8479 -2.2516 -0.7179
30339SOL    HW298133   8.643   7.749   5.346  1.6352  0.6748  0.3339
30340SOL     OW98134   3.654  11.339   3.277  0.0917 -0.3659 -0.3595
30340SOL    HW198135   3.624  11.429   3.292  0.9464 -0.6432  4.7491
30340SOL    HW298136   3.745  11.348   3.248  0.1502  0.4316  0.0533
30341SOL     OW98137   4.652  10.718   5.207  0.0662 -0.0049 -0.5985
30341SOL    HW198138   4.662  10.757   5.294 -2.4556  1.3067 -0.7911
30341SOL    HW298139   4.690  10.783   5.147  0.7015 -0.3394 -0.5582
30342SOL     OW98140  12.154   5.018   2.456  0.2969 -0.1412  0.3755
30342SOL    HW198141  12.085   4.951   2.451 -1.9767  2.0281  0.5562
30342SOL    HW298142  12.165   5.034   2.550  0.4138  0.1291  0.3168
30343SOL     OW98143   2.136   5.714   8.627  0.0590  0.2242 -0.1996
30343SOL    HW198144   2.161   5.729   8.718 -0.4791 -0.6146  0.1020
30343SOL    HW298145   2.105   5.624   8.625 -1.1829  0.6353 -0.9275
30344SOL     OW98146  11.722   5.273   6.605  0.1671 -0.2423  0.2165
30344SOL    HW198147  11.781   5.286   6.679 -0.0275  0.6461  0.2337
30344SOL    HW298148  11.704   5.362   6.574 -0.9826 -0.5123  0.0725
30345SOL     OW98149   3.465   2.136   5.452 -0.0235  0.1199 -0.0271
30345SOL    HW198150   3.448   2.144   5.546 -1.1479 -1.7380 -0.0128
30345SOL    HW298151   3.501   2.048   5.442  1.1570  0.7087 -1.2262
30346SOL     OW98152  11.235   4.733   4.942  0.7504  0.0451 -0.2309
30346SOL    HW198153  11.246   4.644   4.909 -0.9714 -0.9706  1.6601
30346SOL    HW298154  11.205   4.721   5.033 -2.2337  2.4283 -0.7155
30347SOL     OW98155   2.501  11.155  12.124 -0.1338  1.2841 -0.1649
30347SOL    HW198156   2.444  11.078  12.123  0.9029  0.4913  0.1341
30347SOL    HW298157   2.441  11.229  12.118 -1.2719  0.5014  0.9437
30348SOL     OW98158  11.265   5.155   6.958  0.6902 -0.6807 -0.0344
30348SOL    HW198159  11.245   5.128   6.869 -1.4738 -1.0612  0.5254
30348SOL    HW298160  11.251   5.076   7.011  0.5605 -0.1037  0.8151
30349SOL     OW98161  10.392   2.210   0.627 -0.0112  0.0609  0.3697
30349SOL    HW198162  10.460   2.187   0.691 -1.0982 -0.6623  1.2962
30349SOL    HW298163  10.373   2.127   0.582 -1.5726 -0.1732  1.4038
30350SOL     OW98164  11.684   1.711  11.165  0.1676  0.2263 -0.1512
30350SOL    HW198165  11.774   1.698  11.136 -0.3464 -1.6049 -1.0654
30350SOL    HW298166  11.639   1.748  11.088 -0.3528 -1.0632 -0.4920
30351SOL     OW98167   4.487  11.697   4.411  0.0061  0.7344  0.0346
30351SOL    HW198168   4.507  11.727   4.322 -0.2790 -0.1158 -0.3253
30351SOL    HW298169   4.554  11.739   4.465  0.1288  1.3359 -0.5668
30352SOL     OW98170   4.507  10.829   7.404 -0.1889  0.4434  0.2136
30352SOL    HW198171   4.476  10.900   7.459 -0.1587 -0.7929  1.9116
30352SOL    HW298172   4.602  10.832   7.413 -0.2429 -0.8228  1.7261
30353SOL     OW98173   0.156  10.672   5.896 -0.0231 -0.2530 -0.0545
30353SOL    HW198174   0.231  10.620   5.927 -0.0356  0.3387  0.9824
30353SOL    HW298175   0.095  10.606   5.862 -1.0489 -1.2394  3.2940
30354SOL     OW98176  12.924   2.169  12.084 -0.1847 -0.3167 -0.0234
30354SOL    HW198177  12.997   2.230  12.075 -0.1008 -0.2011  1.2138
30354SOL    HW298178  12.922   2.120  12.002  2.4088 -1.5821  0.5752
30355SOL     OW98179  12.476  10.577   8.527  0.0806 -0.5149 -0.3660
30355SOL    HW198180  12.545  10.627   8.484 -0.4328  1.2268  0.7017
30355SOL    HW298181  12.395  10.606   8.484 -0.3808  0.8364  1.2931
30356SOL     OW98182   2.592   6.452   9.792  0.6153  0.2151  0.1205
30356SOL    HW198183   2.511   6.468   9.839 -0.0383 -0.3114 -0.7944
30356SOL    HW298184   2.597   6.357   9.783  0.3871  0.3120 -1.3934
30357SOL     OW98185   5.606   7.882   8.447 -0.2175 -0.3783 -0.0269
30357SOL    HW198186   5.558   7.950   8.400  1.0704 -0.4516 -1.5116
30357SOL    HW298187   5.543   7.849   8.512 -1.5539  0.7570 -0.6997
30358SOL     OW98188   5.324   0.238  12.129 -0.3941  0.5595 -0.7805
30358SOL    HW198189   5.255   0.264  12.069  0.2359 -0.0913 -1.8168
30358SOL    HW298190   5.326   0.308  12.195 -1.9739  0.6181 -0.7564
30359SOL     OW98191   2.961   1.326   2.894 -0.1280  0.7096  0.0293
30359SOL    HW198192   3.034   1.386   2.874  0.0455  0.3356 -0.4731
30359SOL    HW298193   2.891   1.354   2.834 -0.5487  1.3299  0.7895
30360SOL     OW98194   3.495   7.538   1.761  0.8092 -0.2117  0.2513
30360SOL    HW198195   3.461   7.452   1.736  0.6716  0.0576 -0.4988
30360SOL    HW298196   3.578   7.518   1.804  1.6824 -0.6355 -1.5295
30361SOL     OW98197   8.739  10.389   2.603 -0.2084  0.2796  0.6712
30361SOL    HW198198   8.672  10.453   2.628 -1.8775 -0.5030 -1.4813
30361SOL    HW298199   8.792  10.435   2.538 -0.3175  0.0247  0.4038
30362SOL     OW98200  10.936  10.140   5.535 -0.1903  0.1402 -0.5050
30362SOL    HW198201  11.002  10.206   5.558 -0.2097 -0.0182  0.0139
30362SOL    HW298202  10.975  10.057   5.562 -0.9601  0.1279  0.6444
30363SOL     OW98203   8.321   9.408  12.259  0.0248 -0.0647 -0.1835
30363SOL    HW198204   8.295   9.400  12.350  0.7065  2.4038  0.2910
30363SOL    HW298205   8.239   9.404  12.210 -0.3192 -1.8135  0.4393
30364SOL     OW98206   4.941   9.503  12.027 -0.3193  0.6750 -0.1383
30364SOL    HW198207   4.940   9.598  12.017  1.2763  0.9297  1.5799
30364SOL    HW298208   5.017   9.475  11.976 -0.8429  0.2663 -0.7200
30365SOL     OW98209   6.123   8.866  11.955 -0.7959 -0.4265 -0.2174
30365SOL    HW198210   6.128   8.912  11.871 -0.4043 -1.7123 -0.9175
30365SOL    HW298211   6.042   8.898  11.995 -0.0238  1.6603 -0.1818
30366SOL     OW98212   5.871  10.410   3.332 -0.4982  0.0469 -1.1503
30366SOL    HW198213   5.784  10.427   3.367 -0.8094 -2.0528 -0.7889
30366SOL    HW298214   5.858  10.342   3.266  0.6014  1.2352 -2.6658
30367SOL     OW98215   4.459  11.531  11.332  0.2117 -0.0127 -0.3849
30367SOL    HW198216   4.535  11.529  11.391 -0.2945 -1.3919  0.2735
30367SOL    HW298217   4.445  11.440  11.308 -1.8107  0.0772  0.2784
30368SOL     OW98218   1.810   1.479   7.116  0.1188 -0.1157 -0.2127
30368SOL    HW198219   1.854   1.550   7.068  0.6499  0.5601  1.2341
30368SOL    HW298220   1.801   1.409   7.051  0.0806  1.0605 -1.5263
30369SOL     OW98221  12.703  10.693   3.443 -0.0176 -0.3259 -0.2394
30369SOL    HW198222  12.742  10.612   3.412  0.0040 -0.5545  0.3748
30369SOL    HW298223  12.648  10.723   3.371 -1.6071 -1.9287  0.2388
30370SOL     OW98224   1.049   6.335   9.525  0.4502  0.2634 -0.1180
30370SOL    HW198225   1.048   6.410   9.465  1.3482 -1.0695 -1.8815
30370SOL    HW298226   1.142   6.317   9.539  0.2435  0.0775  1.0927
30371SOL     OW98227   1.737   8.512  12.597 -0.5002 -0.1604 -0.2132
30371SOL    HW198228   1.824   8.490  12.565  0.4496  0.5202  1.7539
30371SOL    HW298229   1.717   8.596  12.556  0.6925  0.7002  0.9042
30372SOL     OW98230  11.278  12.376   6.946 -0.4219 -0.8205  1.0158
30372SOL    HW198231  11.252  12.335   6.863 -3.4269  1.4867  0.6325
30372SOL    HW298232  11.235  12.323   7.013 -0.8158 -0.7401  0.8304
30373SOL     OW98233   4.359   8.350   4.739 -0.6782 -0.0410  0.3806
30373SOL    HW198234   4.291   8.415   4.726 -1.1354 -0.9404 -2.5299
30373SOL    HW298235   4.436   8.387   4.694  0.1656  0.0338  1.8221
30374SOL     OW98236  10.106   0.912   5.388 -0.0699 -0.0152  0.3374
30374SOL    HW198237  10.081   0.998   5.420 -0.1957  0.1421 -0.1903
30374SOL    HW298238  10.137   0.927   5.299 -1.5439 -0.7406 -0.3123
30375SOL     OW98239   8.800   0.599   8.216  0.0365 -0.1093 -0.0954
30375SOL    HW198240   8.808   0.576   8.309  0.3782  2.1195  0.4805
30375SOL    HW298241   8.884   0.640   8.194 -0.3358  0.0964 -1.1782
30376SOL     OW98242   6.728   5.785  10.826  0.3097 -0.2269 -0.0695
30376SOL    HW198243   6.676   5.711  10.857 -2.6324  1.9866  0.6897
30376SOL    HW298244   6.742   5.839  10.904  0.4318  1.0945 -0.9679
30377SOL     OW98245   7.783   4.186  12.760  0.2295 -0.3517  0.3466
30377SOL    HW198246   7.783   4.134  12.841 -1.4127  1.2336  1.4543
30377SOL    HW298247   7.690   4.197  12.740  0.5948  0.6355 -0.8616
30378SOL     OW98248   1.882  10.134   4.678 -0.2187  0.1583  0.1552
30378SOL    HW198249   1.793  10.100   4.687  0.6575 -2.4351 -0.0345
30378SOL    HW298250   1.888  10.162   4.587 -0.2230 -1.7208 -0.4543
30379SOL     OW98251  12.573   9.013  11.844  0.3316 -0.0596 -0.0417
30379SOL    HW198252  12.642   8.998  11.909 -0.5517 -0.7044  0.7811
30379SOL    HW298253  12.545   9.103  11.859  1.0805  0.2539 -0.4772
30380SOL     OW98254  12.661   9.271   7.607 -0.5723 -0.0118 -0.2064
30380SOL    HW198255  12.650   9.236   7.519 -2.2342  1.6343 -0.7259
30380SOL    HW298256  12.706   9.354   7.595 -3.2876  1.6355  0.0763
30381SOL     OW98257   3.048   3.955   1.650  0.0203  0.0253  0.0184
30381SOL    HW198258   3.113   4.015   1.686 -0.0537  1.7227 -2.4482
30381SOL    HW298259   3.086   3.925   1.568 -0.2358 -2.9130  0.8588
30382SOL     OW98260   8.445  11.963   4.017 -0.1623  0.1035  0.1260
30382SOL    HW198261   8.450  11.914   4.099  0.3841 -0.2701 -0.1257
30382SOL    HW298262   8.449  11.897   3.948 -2.4823  0.2510 -0.2205
30383SOL     OW98263   6.400   4.661   2.572 -0.6815 -0.5659  0.6964
30383SOL    HW198264   6.451   4.633   2.496  1.8350 -0.2977  2.2112
30383SOL    HW298265   6.394   4.583   2.627  0.5614  0.1114  1.8270
30384SOL     OW98266   9.988  10.368   3.078  0.7392  0.2059 -0.0161
30384SOL    HW198267  10.061  10.395   3.022  2.3624 -2.6667  0.5207
30384SOL    HW298268   9.947  10.296   3.032 -1.2588  1.1720  0.1438
30385SOL     OW98269   7.924   1.241   0.930  0.1633  0.2040 -0.6948
30385SOL    HW198270   7.957   1.190   0.856  0.5110 -0.1803 -0.2762
30385SOL    HW298271   7.830   1.223   0.931  0.0529  0.7088 -1.4263
30386SOL     OW98272   0.909   5.493   4.227 -0.1079  0.0072  0.0183
30386SOL    HW198273   0.991   5.472   4.182 -0.3520 -0.8360 -0.0435
30386SOL    HW298274   0.873   5.567   4.177  1.4218  1.5348  1.0529
30387SOL     OW98275  10.494   0.015   4.266 -0.1137  0.3964 -0.1122
30387SOL    HW198276  10.503   0.103   4.230  2.0418 -0.2121 -1.2494
30387SOL    HW298277  10.562  -0.036   4.222 -0.3414 -1.4980  1.5861
30388SOL     OW98278  10.653   8.812   5.781  0.2628  0.0081 -0.0607
30388SOL    HW198279  10.724   8.751   5.800  0.0228 -0.1366  0.3989
30388SOL    HW298280  10.584   8.788   5.843  0.7048  1.6951  1.1698
30389SOL     OW98281   4.791   2.889   4.823 -0.1816  0.7732  0.3027
30389SOL    HW198282   4.877   2.883   4.781  0.2860  1.4739  1.1285
30389SOL    HW298283   4.787   2.978   4.857 -1.0919  0.6296  0.5902
30390SOL     OW98284  11.248   5.648   9.584  0.2992  0.5772 -0.3909
30390SOL    HW198285  11.316   5.596   9.626 -0.1039  0.0501 -0.3782
30390SOL    HW298286  11.232   5.604   9.500  0.5590  1.1806 -0.7626
30391SOL     OW98287   9.390   4.918   6.881 -0.2851  0.6195 -0.4049
30391SOL    HW198288   9.319   4.891   6.823  0.0053 -0.0933 -0.4385
30391SOL    HW298289   9.387   4.855   6.953  0.3333  0.5627 -0.4241
30392SOL     OW98290   8.983   8.563   0.838 -0.2550 -0.1042 -0.2203
30392SOL    HW198291   9.004   8.608   0.757  0.8229  0.3022  0.2597
30392SOL    HW298292   8.990   8.470   0.817  1.9805 -0.0119 -0.1679
30393SOL     OW98293   1.632   1.108  11.107 -0.4496  0.1995  0.1245
30393SOL    HW198294   1.711   1.139  11.152 -0.3205  0.5909 -0.3602
30393SOL    HW298295   1.623   1.166  11.032 -1.2419  0.1958  0.2081
30394SOL     OW98296   3.520   3.952   5.556  0.1395  0.1808 -0.4016
30394SOL    HW198297   3.456   3.938   5.486 -0.9083  3.1857 -0.1773
30394SOL    HW298298   3.468   3.959   5.636  1.1447 -1.0752  0.4126
30395SOL     OW98299   3.666   8.894   7.807 -1.1208 -0.0345  0.4212
30395SOL    HW198300   3.728   8.966   7.815  0.2923 -1.1516 -0.0035
30395SOL    HW298301   3.585   8.935   7.778 -0.4286  1.4010  0.4271
30396SOL     OW98302   7.512   4.096   8.821  0.0439  0.5507 -0.2027
30396SOL    HW198303   7.463   4.056   8.893 -0.1348  1.7885  0.3812
30396SOL    HW298304   7.492   4.040   8.746 -0.9682  0.0915  0.3730
30397SOL     OW98305   5.629   1.004  12.221  0.1663  0.4313 -0.5318
30397SOL    HW198306   5.660   1.061  12.291  0.8535  0.4727 -0.8584
30397SOL    HW298307   5.706   0.991  12.165 -0.3644  0.3913 -1.2699
30398SOL     OW98308   7.753   1.453  12.195 -0.7299  0.2584 -0.2281
30398SOL    HW198309   7.709   1.385  12.143 -1.5028  0.2109  0.4653
30398SOL    HW298310   7.714   1.535  12.163 -2.4766  0.1307  1.3962
30399SOL     OW98311   5.454  11.589   0.845 -0.5030  0.2260 -0.1406
30399SOL    HW198312   5.375  11.601   0.898 -0.3477  0.8278 -0.0348
30399SOL    HW298313   5.506  11.668   0.861  1.1785 -1.1070  1.5891
30400SOL     OW98314   2.804   2.039  12.867 -0.7129  0.1057  0.6330
30400SOL    HW198315   2.879   2.002  12.914 -0.0008  0.6493 -0.0262
30400SOL    HW298316   2.731   1.981  12.886 -0.1645 -0.3268  1.4573
30401SOL     OW98317   2.197   7.971   5.063 -0.1797 -0.1487  0.1394
30401SOL    HW198318   2.107   7.979   5.031  0.3292  1.7283 -0.9709
30401SOL    HW298319   2.207   8.043   5.125  0.7723  0.1269 -0.3150
30402SOL     OW98320  11.134   0.227   6.357  0.3681  0.2252  0.1248
30402SOL    HW198321  11.061   0.198   6.302  0.0087  2.3152 -0.6044
30402SOL    HW298322  11.209   0.178   6.324 -0.2832 -0.2442 -0.7100
30403SOL     OW98323   9.034   6.410  10.034 -0.2905  0.3103  0.4046
30403SOL    HW198324   9.127   6.431  10.029 -0.1413  0.4894  2.8007
30403SOL    HW298325   8.995   6.455   9.959  1.6416 -0.5481 -1.1878
30404SOL     OW98326  10.528   1.806   9.601 -0.4099 -0.3106 -0.3463
30404SOL    HW198327  10.447   1.775   9.641 -0.1108 -1.3091 -0.5071
30404SOL    HW298328  10.546   1.888   9.647 -1.5308 -0.0424 -0.3437
30405SOL     OW98329   5.414   4.622   6.563  0.1840  0.0406 -0.7550
30405SOL    HW198330   5.505   4.636   6.591  0.3664 -0.2391 -1.2037
30405SOL    HW298331   5.417   4.541   6.513 -0.4936 -0.5092  0.0721
30406SOL     OW98332   3.121   3.219  12.515 -0.1192 -0.0674 -0.2498
30406SOL    HW198333   3.195   3.160  12.504  2.0010  2.1850  0.9832
30406SOL    HW298334   3.107   3.257  12.428  0.9360  0.2682 -0.2942
30407SOL     OW98335  12.565   0.708   7.772 -0.0316 -0.3816 -0.3156
30407SOL    HW198336  12.516   0.734   7.850 -0.6644 -1.8851 -0.1751
30407SOL    HW298337  12.625   0.640   7.804  0.9613  0.2262 -0.8205
30408SOL     OW98338   9.335   0.519   3.426  0.1574  0.2635 -0.6766
30408SOL    HW198339   9.241   0.528   3.438  0.3366 -0.7545  2.0317
30408SOL    HW298340   9.371   0.599   3.464  0.4982 -0.6493  0.9804
30409SOL     OW98341   7.407  12.043   8.075  0.5167 -0.1366  0.1508
30409SOL    HW198342   7.322  12.072   8.109  0.2317  1.3753 -1.6527
30409SOL    HW298343   7.458  12.124   8.068  1.1091 -0.5993 -1.3304
30410SOL     OW98344   0.517   6.278   5.431  0.0752 -0.3181 -0.5271
30410SOL    HW198345   0.592   6.221   5.414 -0.6437 -1.7059  0.7180
30410SOL    HW298346   0.498   6.318   5.346  1.2111 -1.1728 -1.2223
30411SOL     OW98347   3.027  12.556  12.189 -0.6235 -0.4856  0.6391
30411SOL    HW198348   3.119  12.553  12.163 -0.3507  1.4229  1.2066
30411SOL    HW298349   3.027  12.602  12.273 -1.9359 -2.2212  1.6601
30412SOL     OW98350  12.062   3.978   2.571 -0.2510 -0.5608  0.7196
30412SOL    HW198351  12.009   3.961   2.493  0.1877  1.0976 -0.0012
30412SOL    HW298352  12.150   3.997   2.536  0.7416 -2.7623  1.8477
30413SOL     OW98353  11.551   7.086  12.026 -0.4560  0.1482  0.7314
30413SOL    HW198354  11.475   7.121  12.074 -0.4778 -0.9969  1.5779
30413SOL    HW298355  11.538   6.991  12.027 -0.3816  0.0799 -1.4858
30414SOL     OW98356  11.243  12.754   8.988  0.8334 -0.1793  0.5340
30414SOL    HW198357  11.179  12.752   9.059  1.7269 -2.1127  1.3601
30414SOL    HW298358  11.320  12.710   9.024  1.6504 -0.3773 -1.3305
30415SOL     OW98359   6.014   3.290   4.429 -0.4115 -0.1854 -0.2679
30415SOL    HW198360   6.088   3.289   4.368 -0.0653 -0.3521  0.1518
30415SOL    HW298361   5.997   3.198   4.448  0.4861 -0.1089  1.0781
30416SOL     OW98362   2.003   3.624   0.147  0.5873 -0.2657 -0.3183
30416SOL    HW198363   2.036   3.706   0.110 -0.6702  0.0821 -0.7132
30416SOL    HW298364   1.909   3.626   0.131 -0.1600  0.0999  3.2774
30417SOL     OW98365   1.487  11.540  10.797 -0.1407  0.3341 -0.0313
30417SOL    HW198366   1.557  11.563  10.735 -0.5821  1.4403 -0.1547
30417SOL    HW298367   1.482  11.616  10.856  0.5946 -0.8964  1.6917
30418SOL     OW98368   0.979  11.969   3.209  0.3869 -0.1602  0.2296
30418SOL    HW198369   0.944  11.900   3.266 -0.6356  0.2566  0.1359
30418SOL    HW298370   0.977  11.932   3.121 -0.3875  0.0626  0.1480
30419SOL     OW98371   4.971   2.203  12.503  0.1527 -0.7935  0.0606
30419SOL    HW198372   5.014   2.140  12.445  0.7432  0.1728 -0.5864
30419SOL    HW298373   4.924   2.149  12.567  1.2932 -1.8891  0.0190
30420SOL     OW98374   9.597   2.901   7.841  0.3018 -0.4298 -0.1410
30420SOL    HW198375   9.661   2.917   7.771 -0.4052 -1.1319 -0.9725
30420SOL    HW298376   9.562   2.987   7.862  1.5034 -0.0283  0.3337
30421SOL     OW98377   8.986  10.698   1.245  0.5198 -0.3254  0.5745
30421SOL    HW198378   8.927  10.687   1.171  0.0976 -0.6869  0.9558
30421SOL    HW298379   9.065  10.737   1.208  0.5586 -1.1016 -0.1696
30422SOL     OW98380   3.170   1.306   7.984  0.0424 -0.6344  0.0429
30422SOL    HW198381   3.139   1.325   8.073 -1.4072  1.1423 -0.7698
30422SOL    HW298382   3.241   1.370   7.970  0.2638 -0.9085 -0.0963
30423SOL     OW98383   6.161   3.061   5.217  0.0562 -0.2326 -0.2636
30423SOL    HW198384   6.206   2.995   5.164  1.1904 -0.8664  1.4216
30423SOL    HW298385   6.227   3.127   5.234 -0.3658  0.0806  0.1689
30424SOL     OW98386   0.605   8.564   3.097  0.9292  0.5874 -0.0419
30424SOL    HW198387   0.611   8.598   3.187 -0.9717  2.0000 -0.3793
30424SOL    HW298388   0.623   8.640   3.042  0.5665  0.1028 -0.8430
30425SOL     OW98389   5.007   7.268  11.023  0.3945 -0.0889  0.1033
30425SOL    HW198390   4.952   7.277  11.101 -1.9626  0.0437 -1.4966
30425SOL    HW298391   5.007   7.355  10.984 -1.1564 -0.8374 -1.7174
30426SOL     OW98392   2.082  10.679   4.702  0.1809 -0.1718  0.3408
30426SOL    HW198393   2.098  10.720   4.617  0.0511 -1.5457 -0.3666
30426SOL    HW298394   2.065  10.753   4.761 -1.5413  0.7459 -1.1941
30427SOL     OW98395   2.710   3.212  10.313 -0.2720 -0.2511  1.0250
30427SOL    HW198396   2.734   3.239  10.402 -1.4606 -0.6593  1.4883
30427SOL    HW298397   2.781   3.246  10.258 -1.2949  3.2646  1.6248
30428SOL     OW98398   5.593  11.328   9.665 -0.3075 -0.6497 -0.2556
30428SOL    HW198399   5.645  11.282   9.731 -0.1446  0.2379  0.2509
30428SOL    HW298400   5.550  11.258   9.616 -0.1797 -1.3419  0.5882
30429SOL     OW98401   5.584  11.819   2.689 -0.2176  0.0505  0.3737
30429SOL    HW198402   5.652  11.784   2.746  1.5147  0.7025 -1.1800
30429SOL    HW298403   5.563  11.904   2.727  0.6776  0.3279  0.2959
30430SOL     OW98404   6.379  12.642   0.579  0.7701 -0.0007 -1.1953
30430SOL    HW198405   6.352  12.708   0.515 -0.2265 -0.7628 -1.5937
30430SOL    HW298406   6.341  12.560   0.547  1.3441 -0.6352 -0.3140
30431SOL     OW98407   7.825  11.128   9.238 -0.5177 -0.2871  0.3688
30431SOL    HW198408   7.750  11.188   9.231 -0.8677 -0.6861  0.6539
30431SOL    HW298409   7.848  11.110   9.147 -1.0748 -0.5303  0.2675
30432SOL     OW98410   3.107  10.612   0.486  0.0137  0.0209 -0.3838
30432SOL    HW198411   3.044  10.656   0.429 -0.3888 -0.9767 -0.7135
30432SOL    HW298412   3.115  10.671   0.561 -1.3966  0.1134 -0.2782
30433SOL     OW98413   5.032   9.049  11.640  0.0355 -0.2193  0.3909
30433SOL    HW198414   5.006   9.140  11.628 -2.4625 -0.9673 -0.5658
30433SOL    HW298415   5.049   9.016  11.552 -0.7928 -1.0994  0.5406
30434SOL     OW98416   1.291   9.628   6.674  0.3349  0.2662 -0.4390
30434SOL    HW198417   1.271   9.721   6.670  0.1119  0.3617  1.7826
30434SOL    HW298418   1.219   9.585   6.629  0.5438  1.1534 -1.6594
30435SOL     OW98419   8.190  12.967   3.858 -0.0386  0.2329 -0.0439
30435SOL    HW198420   8.198  12.872   3.848 -2.2685  0.0898 -0.9642
30435SOL    HW298421   8.226  13.003   3.777 -0.9496  0.0638 -0.5277
30436SOL     OW98422   4.970   9.236  11.265 -0.0408  0.1791  0.5858
30436SOL    HW198423   5.019   9.171  11.216 -0.4709 -1.0444  1.7198
30436SOL    HW298424   5.037   9.297  11.297  0.2876  0.7480 -1.0826
30437SOL     OW98425   9.881  11.782   3.777  0.3193 -0.2712  0.3955
30437SOL    HW198426   9.890  11.877   3.778  0.2564 -0.2185 -1.2499
30437SOL    HW298427   9.789  11.767   3.797  0.2782  0.0129  0.4301
30438SOL     OW98428  12.147   0.570   0.129  0.4295 -0.0518 -0.1706
30438SOL    HW198429  12.145   0.494   0.070 -1.6869 -0.6490  0.5808
30438SOL    HW298430  12.220   0.553   0.188 -0.3099 -1.7855  0.3039
30439SOL     OW98431  12.871   6.926   8.404  0.0980  0.1137  0.0282
30439SOL    HW198432  12.866   6.900   8.312 -0.1765 -1.5458  0.4852
30439SOL    HW298433  12.822   7.008   8.408 -1.4191 -0.7002 -0.9972
30440SOL     OW98434  10.206   0.185  11.476  0.1568 -0.0307  0.1925
30440SOL    HW198435  10.168   0.105  11.439 -0.4335 -0.0069  0.7277
30440SOL    HW298436  10.297   0.184  11.446  0.4767 -1.4872  1.0793
30441SOL     OW98437   5.318   6.157   1.031  0.1217 -0.3039  0.5747
30441SOL    HW198438   5.290   6.246   1.010  2.7468  0.8884  1.6670
30441SOL    HW298439   5.412   6.157   1.015  0.3013 -2.7174  1.2428
30442SOL     OW98440  12.363   7.270   2.454  0.6723  0.4956  0.1818
30442SOL    HW198441  12.438   7.255   2.397  0.1420  0.0276 -0.4142
30442SOL    HW298442  12.299   7.313   2.398  0.8698  1.8651  0.9644
30443SOL     OW98443   8.890   9.587   6.808 -0.4749  0.4234  0.4809
30443SOL    HW198444   8.937   9.517   6.852 -3.0858 -1.7589  0.0799
30443SOL    HW298445   8.930   9.592   6.721 -0.7218 -1.1647  0.2478
30444SOL     OW98446   6.792  10.218  11.980  0.1190 -0.6805  0.8457
30444SOL    HW198447   6.734  10.277  11.932 -0.1689 -0.0954  1.8660
30444SOL    HW298448   6.846  10.176  11.913 -1.3168 -1.0592 -0.1213
30445SOL     OW98449   1.034  11.280  11.874  0.6386 -0.1069  0.3543
30445SOL    HW198450   1.014  11.344  11.807 -1.4581  0.0974  1.1175
30445SOL    HW298451   1.033  11.196  11.828 -0.2092  0.0836  0.0074
30446SOL     OW98452   7.987   1.167   5.276 -0.0183  0.1056 -0.5534
30446SOL    HW198453   7.913   1.182   5.336  0.2560  2.3581 -0.6786
30446SOL    HW298454   8.064   1.189   5.328  0.1700  3.1983 -1.8950
30447SOL     OW98455  11.791   4.771   6.601  0.1906  0.0232 -0.0204
30447SOL    HW198456  11.733   4.699   6.625 -1.9035  1.1827 -1.2602
30447SOL    HW298457  11.751   4.848   6.641  0.8630  0.8763 -0.9512
30448SOL     OW98458  12.791   5.563  11.511  0.1467  0.1318  0.5209
30448SOL    HW198459  12.738   5.633  11.473 -1.2759 -0.9057  0.5115
30448SOL    HW298460  12.728   5.502  11.547  1.2347 -2.1287 -1.1421
30449SOL     OW98461  11.033  10.962   9.195 -0.3773 -0.1896  0.2457
30449SOL    HW198462  11.005  10.875   9.166 -0.3817 -0.3227  0.6462
30449SOL    HW298463  10.992  10.974   9.281  0.3557 -0.1624  0.5984
30450SOL     OW98464   0.372   8.319   1.303  0.0974 -0.4424  0.5909
30450SOL    HW198465   0.292   8.312   1.252  1.0631 -2.7977 -0.7973
30450SOL    HW298466   0.364   8.250   1.369  0.4128  0.2101  1.3262
30451SOL     OW98467   9.844   4.746  11.188  0.1911 -0.8267  0.5809
30451SOL    HW198468   9.933   4.712  11.177  0.2616 -0.2960 -0.6975
30451SOL    HW298469   9.830   4.746  11.283  0.8358 -2.7072  0.7161
30452SOL     OW98470   3.074   8.988   5.722 -0.2737  0.3793 -0.2012
30452SOL    HW198471   3.101   9.013   5.634  1.9483  0.1137  0.3442
30452SOL    HW298472   3.069   8.892   5.719 -1.9433  0.4492 -0.4688
30453SOL     OW98473   6.724   3.665   0.184  0.5251 -0.6065 -0.1992
30453SOL    HW198474   6.640   3.686   0.142  0.4242  0.5916  0.5368
30453SOL    HW298475   6.719   3.572   0.205 -0.4930 -0.6112 -0.4329
30454SOL     OW98476   0.626   8.495   6.484 -0.0745 -0.4010 -0.1114
30454SOL    HW198477   0.678   8.477   6.405 -1.1919  0.3524 -1.0570
30454SOL    HW298478   0.596   8.586   6.472 -3.0643 -1.3402 -0.5053
30455SOL     OW98479   6.401   8.097   5.285  0.2115 -0.0170  0.3849
30455SOL    HW198480   6.472   8.036   5.265 -1.0277 -0.9379 -1.5553
30455SOL    HW298481   6.344   8.093   5.208 -1.2895  1.6409  1.3300
30456SOL     OW98482   1.799   5.085   4.532  0.1525  0.3556  0.1404
30456SOL    HW198483   1.883   5.048   4.504  0.7500  0.4890  1.6689
30456SOL    HW298484   1.755   5.013   4.576  0.0710  0.6728  0.5790
30457SOL     OW98485   2.895   6.985   4.373  0.4108  0.2642  0.1723
30457SOL    HW198486   2.945   6.935   4.438  1.2913 -1.4729 -1.7383
30457SOL    HW298487   2.950   7.061   4.355  1.2198 -0.3807 -0.1294
30458SOL     OW98488   4.605   5.091  12.212 -0.4591 -0.4073  0.2931
30458SOL    HW198489   4.691   5.114  12.247 -0.5865  0.0965  0.2821
30458SOL    HW298490   4.562   5.175  12.197 -1.6424 -0.6513  1.9990
30459SOL     OW98491  11.631   7.816   3.728 -0.3549  0.0269  0.5062
30459SOL    HW198492  11.607   7.734   3.772  2.2629 -0.5005  1.1090
30459SOL    HW298493  11.587   7.811   3.644 -0.7430 -1.7280  0.7671
30460SOL     OW98494  10.712   8.608  10.374  0.1175  0.0249  0.1743
30460SOL    HW198495  10.782   8.545  10.357  0.2767  0.1717  0.2855
30460SOL    HW298496  10.755   8.680  10.419  0.2788  1.0063 -1.4666
30461SOL     OW98497   3.417   7.207   2.954 -0.7140 -0.4737 -0.3566
30461SOL    HW198498   3.428   7.123   2.999 -1.7782 -1.0618 -1.1614
30461SOL    HW298499   3.329   7.237   2.979 -0.0804  0.7864  0.5131
30462SOL     OW98500   9.209   1.424   8.315  0.0416 -0.0148 -0.2411
30462SOL    HW198501   9.157   1.344   8.306  0.7876 -0.3293 -2.2236
30462SOL    HW298502   9.288   1.397   8.362  0.7553 -0.7193 -1.7759
30463SOL     OW98503   4.540   2.457   6.588  0.1032 -0.6137 -0.0911
30463SOL    HW198504   4.537   2.544   6.549 -0.0563 -0.4720  0.2350
30463SOL    HW298505   4.539   2.397   6.513  0.0365 -0.3387 -0.3105
30464SOL     OW98506   8.431  12.680   6.502  0.3284  0.4454  0.1005
30464SOL    HW198507   8.340  12.673   6.534 -0.2493 -0.4677 -1.6253
30464SOL    HW298508   8.483  12.637   6.570 -0.7536 -0.7041  0.2423
30465SOL     OW98509   7.896  12.438   4.673 -0.3122 -0.1174 -0.6994
30465SOL    HW198510   7.976  12.386   4.671  0.3080  0.6787  1.1736
30465SOL    HW298511   7.892  12.480   4.588  1.0678 -0.4534 -0.9572
30466SOL     OW98512   4.800   4.817   9.313 -0.3947 -0.3774  0.1695
30466SOL    HW198513   4.847   4.827   9.395 -1.4506  2.8086  0.5436
30466SOL    HW298514   4.864   4.838   9.245 -0.5249  1.2354  0.5064
30467SOL     OW98515   6.956  10.442   8.205 -0.0368  0.1376 -0.2428
30467SOL    HW198516   6.990  10.411   8.289 -1.4613 -0.5231  0.1164
30467SOL    HW298517   7.021  10.414   8.141  0.3331 -0.6865  0.4779
30468SOL     OW98518   9.306   6.516   2.186 -0.2095  0.1363  0.1736
30468SOL    HW198519   9.327   6.446   2.124  1.0702  2.2145 -1.9029
30468SOL    HW298520   9.363   6.497   2.261  0.9495 -0.4708 -0.8010
30469SOL     OW98521  10.612   2.901   6.753 -0.4723  0.0442  0.2788
30469SOL    HW198522  10.609   2.805   6.754 -0.2524  0.0426  0.7974
30469SOL    HW298523  10.619   2.923   6.660 -1.9587 -0.3936  0.0309
30470SOL     OW98524   6.166   5.743   9.245 -0.6340  0.1974 -0.0287
30470SOL    HW198525   6.094   5.758   9.307 -1.1793 -1.5668 -0.1634
30470SOL    HW298526   6.128   5.762   9.159 -0.4303  0.8685  0.0263
30471SOL     OW98527   3.288   4.357  11.364  0.0677  0.0430  0.2918
30471SOL    HW198528   3.252   4.444  11.383 -2.4300 -1.0112  0.7435
30471SOL    HW298529   3.245   4.331  11.283 -0.5664 -1.4628  1.0855
30472SOL     OW98530   9.790   5.424   7.416 -0.1242  0.5157  0.0695
30472SOL    HW198531   9.793   5.380   7.501  4.1630 -1.8644 -1.0502
30472SOL    HW298532   9.756   5.358   7.356 -1.6558  1.6689 -0.4066
30473SOL     OW98533  11.481   6.672   4.502 -0.8571 -0.2669 -0.0790
30473SOL    HW198534  11.404   6.726   4.521 -0.4986  0.6405 -1.0974
30473SOL    HW298535  11.506   6.696   4.413 -0.0624 -1.3778 -0.1820
30474SOL     OW98536  12.245   3.664   5.160  0.2746 -0.2429 -0.2423
30474SOL    HW198537  12.248   3.601   5.232 -0.0612 -0.5381 -0.4825
30474SOL    HW298538  12.211   3.744   5.200 -1.2554 -0.8074 -0.3444
30475SOL     OW98539   9.198   5.803   0.977 -0.5602 -0.2320  0.1610
30475SOL    HW198540   9.272   5.780   1.033  0.2003 -0.7186 -1.0022
30475SOL    HW298541   9.134   5.733   0.990 -1.2675  0.6934  1.9088
30476SOL     OW98542   4.230   7.371   7.518  0.2764  0.3109  0.2875
30476SOL    HW198543   4.280   7.331   7.590  1.7596 -0.6371 -1.1641
30476SOL    HW298544   4.289   7.363   7.443 -1.6876  0.1531 -1.2922
30477SOL     OW98545   5.274  11.849   1.345 -0.1399 -0.0123 -0.3216
30477SOL    HW198546   5.354  11.796   1.349 -1.0179 -1.2994  1.2564
30477SOL    HW298547   5.255  11.855   1.251 -0.1120 -2.7485 -0.5907
30478SOL     OW98548   9.849   6.033  12.649 -0.3319  0.1543 -0.2765
30478SOL    HW198549   9.833   5.988  12.732 -0.1626  0.1531 -0.2435
30478SOL    HW298550   9.781   6.000  12.591  0.0553 -0.4700 -0.3765
30479SOL     OW98551   3.754  11.189   2.060 -0.3162 -0.1494  0.2024
30479SOL    HW198552   3.753  11.255   2.130 -0.2138  0.6175 -0.5034
30479SOL    HW298553   3.815  11.122   2.091 -0.6849 -0.0927  1.0890
30480SOL     OW98554   6.569   6.203  11.303  0.4907 -0.3061 -0.1676
30480SOL    HW198555   6.554   6.115  11.338 -0.0361 -1.7131 -3.5318
30480SOL    HW298556   6.491   6.252  11.329  0.4932 -0.9904  1.2276
30481SOL     OW98557   1.241   7.294   6.002 -0.3480 -0.5351  0.1399
30481SOL    HW198558   1.280   7.208   5.987 -1.6376 -1.1506  0.2387
30481SOL    HW298559   1.148   7.277   6.013 -0.7810  0.9980 -0.8661
30482SOL     OW98560  12.134   6.607  12.731  0.3858 -0.1328 -0.2359
30482SOL    HW198561  12.210   6.631  12.783  1.4430 -0.8467 -1.4119
30482SOL    HW298562  12.060   6.621  12.790  1.3873  0.8001  0.8527
30483SOL     OW98563  12.838   3.190  10.379 -0.0093 -0.1927  0.2052
30483SOL    HW198564  12.800   3.231  10.457  1.8997 -0.3867  1.2964
30483SOL    HW298565  12.903   3.129  10.414 -0.4052 -1.6795 -1.4957
30484SOL     OW98566   6.082   3.978  10.297 -0.4339  0.0524 -0.3163
30484SOL    HW198567   6.016   4.010  10.358  0.5765  1.5619  0.0405
30484SOL    HW298568   6.061   3.885  10.286 -2.3306  0.3895  0.1099
30485SOL     OW98569   1.400  10.067   1.419 -0.3525 -0.0199  0.7010
30485SOL    HW198570   1.378  10.046   1.328  1.8337  2.1024 -0.4475
30485SOL    HW298571   1.358   9.998   1.471 -0.5097 -2.1206 -2.0093
30486SOL     OW98572  12.789   6.221   5.336 -0.3062  0.2098  0.1886
30486SOL    HW198573  12.765   6.135   5.300  0.2334 -0.0481  0.4280
30486SOL    HW298574  12.741   6.226   5.419  0.1497 -0.1382  0.4806
30487SOL     OW98575   4.851   4.103   5.426 -0.0377 -0.0964 -0.0550
30487SOL    HW198576   4.933   4.057   5.407 -1.4091 -1.8472 -2.2726
30487SOL    HW298577   4.830   4.079   5.516  0.9231 -1.2156 -0.1108
30488SOL     OW98578   0.417   6.702   5.152 -0.8220 -0.5044 -0.1852
30488SOL    HW198579   0.356   6.636   5.118 -1.9021  0.1135  0.4778
30488SOL    HW298580   0.408   6.776   5.093  0.8450 -1.1255 -1.2904
30489SOL     OW98581   5.538   5.843   0.601  0.4772  0.7965 -0.4446
30489SOL    HW198582   5.468   5.781   0.622 -0.4708  1.7181 -0.8424
30489SOL    HW298583   5.609   5.818   0.661 -0.5083  0.4254  0.6182
30490SOL     OW98584   2.600   5.138   0.081 -0.6201 -0.2180  0.5644
30490SOL    HW198585   2.649   5.186   0.148 -1.2256  0.4249  0.5667
30490SOL    HW298586   2.556   5.207   0.031 -0.1367 -0.6796 -0.5376
30491SOL     OW98587   5.494   8.166   2.786  0.2926 -0.2958 -0.7958
30491SOL    HW198588   5.550   8.239   2.761 -1.5186  1.2998 -0.4197
30491SOL    HW298589   5.530   8.136   2.870  0.8311  0.4203 -0.7637
30492SOL     OW98590   4.318   1.857   8.722  0.0767 -0.1488 -0.2506
30492SOL    HW198591   4.382   1.798   8.763  1.1202  0.3922 -1.0579
30492SOL    HW298592   4.272   1.802   8.659  0.4174 -0.3150 -0.3568
30493SOL     OW98593   6.989   5.988   0.889 -0.2214  0.4863  0.1001
30493SOL    HW198594   6.931   5.931   0.939  1.2627 -0.3060  1.0274
30493SOL    HW298595   7.065   5.933   0.870  1.2514  2.1036  0.9717
30494SOL     OW98596   5.920  12.160   5.011  0.9341 -0.0390  0.3611
30494SOL    HW198597   5.955  12.196   5.093 -0.3349  0.4596  0.7183
30494SOL    HW298598   5.873  12.234   4.971  0.9623 -0.4692 -0.4803
30495SOL     OW98599   3.878   6.761   1.173 -0.3452  0.0570  0.5052
30495SOL    HW198600   3.943   6.792   1.110 -1.5600 -0.0864 -0.8758
30495SOL    HW298601   3.822   6.702   1.122 -2.6303  1.5565  1.1535
30496SOL     OW98602  10.599   5.631  12.787  0.7764 -0.3386  0.2394
30496SOL    HW198603  10.593   5.546  12.831  0.4131  0.6666  2.2400
30496SOL    HW298604  10.685   5.629  12.744 -0.0586 -2.4574 -1.5139
30497SOL     OW98605   8.945  11.337  12.115  0.4523  0.0401 -0.0728
30497SOL    HW198606   8.891  11.353  12.038  0.5559  1.9253  0.1925
30497SOL    HW298607   9.033  11.362  12.089  0.8134 -0.9109  0.1765
30498SOL     OW98608   2.844   7.177   0.828 -0.1152 -0.2053  0.9565
30498SOL    HW198609   2.852   7.082   0.833 -1.4513 -0.6191 -2.2760
30498SOL    HW298610   2.795   7.193   0.748  1.7480  3.3114  0.3162
30499SOL     OW98611   5.928   2.301   0.023 -1.3746  0.5447  0.3209
30499SOL    HW198612   5.940   2.383  -0.026  2.7255  1.4572  2.4072
30499SOL    HW298613   5.895   2.329   0.108 -0.5014 -0.0007  0.8486
30500SOL     OW98614  11.332   9.966   9.108  0.8683 -0.2866  1.0008
30500SOL    HW198615  11.361   9.907   9.039 -2.1826  0.8413 -1.4671
30500SOL    HW298616  11.308   9.909   9.180 -1.2192 -2.1096 -1.0031
30501SOL     OW98617   5.311   9.331   6.927  0.6834  0.6634 -0.3418
30501SOL    HW198618   5.330   9.239   6.943  1.9951  0.6902 -1.5446
30501SOL    HW298619   5.390   9.377   6.957  1.4065  1.0809 -2.7035
30502SOL     OW98620   9.318   1.486   9.352  0.4312  0.0085  0.3510
30502SOL    HW198621   9.235   1.460   9.394 -1.5731 -1.9225 -4.1487
30502SOL    HW298622   9.313   1.582   9.346 -2.7324 -0.1424 -1.7320
30503SOL     OW98623   2.405   4.614   0.961 -1.0066  0.3339 -0.3140
30503SOL    HW198624   2.412   4.596   0.867  0.0512  1.4425 -0.4725
30503SOL    HW298625   2.351   4.543   0.995  1.2820 -1.9542 -1.1896
30504SOL     OW98626   9.803   8.198   0.085 -0.4336 -0.4096  0.0803
30504SOL    HW198627   9.880   8.253   0.101  0.0487 -0.4147 -1.9894
30504SOL    HW298628   9.811   8.127   0.148 -0.1164  0.9167  1.6119
30505SOL     OW98629   5.624   5.407   9.503  0.0368  0.2746  0.6704
30505SOL    HW198630   5.662   5.364   9.426 -0.7174 -1.2165  1.1175
30505SOL    HW298631   5.542   5.361   9.520 -1.3638  2.5368  0.5634
30506SOL     OW98632   8.861   8.095   6.998  0.1555  0.0847 -0.2402
30506SOL    HW198633   8.796   8.135   6.940 -0.5073 -0.5959  0.0128
30506SOL    HW298634   8.829   8.114   7.086 -0.2966 -1.1416 -0.1112
30507SOL     OW98635   4.008   8.369   0.766 -0.4330 -0.4362  0.2984
30507SOL    HW198636   3.965   8.375   0.851  0.9583 -0.3772  1.0376
30507SOL    HW298637   4.066   8.445   0.763 -1.3613  0.2606 -1.2688
30508SOL     OW98638   8.594   2.051   9.859  0.9804 -0.1643 -0.4357
30508SOL    HW198639   8.521   2.105   9.828  0.9253 -0.2815 -0.5074
30508SOL    HW298640   8.655   2.114   9.899  1.4324  0.0845 -1.4936
30509SOL     OW98641   6.127  12.677   0.159  0.5232 -0.2128  0.1652
30509SOL    HW198642   6.067  12.738   0.116 -0.5472 -0.1815  1.6462
30509SOL    HW298643   6.183  12.732   0.213  0.6066 -0.4191  0.2910
30510SOL     OW98644   7.985   0.379  12.074  0.0509  0.3757  0.2205
30510SOL    HW198645   7.897   0.413  12.056 -0.1115 -0.3395 -0.3928
30510SOL    HW298646   7.974   0.323  12.151  0.0785  0.7388  0.4870
30511SOL     OW98647   7.640   7.256   4.261 -0.8473  0.0692 -0.4313
30511SOL    HW198648   7.622   7.349   4.244 -0.7318 -0.2013 -2.1741
30511SOL    HW298649   7.558   7.211   4.243 -0.6170 -0.2825 -0.6138
30512SOL     OW98650   0.737  12.609   6.928 -0.3219  0.1291  0.6728
30512SOL    HW198651   0.818  12.654   6.907 -1.5337  1.6611 -0.9572
30512SOL    HW298652   0.709  12.648   7.011  0.5963 -0.4618  1.2841
30513SOL     OW98653  12.776   3.936  11.514 -0.2084 -0.5778 -0.1033
30513SOL    HW198654  12.829   3.894  11.582  0.3558 -1.4865 -1.0789
30513SOL    HW298655  12.686   3.933  11.547 -0.7782 -5.4631 -1.3860
30514SOL     OW98656   9.137   4.266  11.583  0.2262 -0.8795  0.2006
30514SOL    HW198657   9.085   4.313  11.648  0.5631  0.6072 -0.5604
30514SOL    HW298658   9.223   4.256  11.623  0.0658 -1.1219  0.4874
30515SOL     OW98659  11.192   1.406   3.521 -0.2705 -0.0524  0.1469
30515SOL    HW198660  11.218   1.382   3.432  0.2643 -0.0667  0.2987
30515SOL    HW298661  11.121   1.347   3.543 -0.4141 -0.0407 -0.2760
30516SOL     OW98662   2.552   9.352  11.831  0.6298  0.5413 -0.2435
30516SOL    HW198663   2.584   9.374  11.744 -1.2959 -0.4626 -1.2740
30516SOL    HW298664   2.600   9.273  11.855 -0.8590 -0.8878 -1.7158
30517SOL     OW98665  11.375   4.131   1.401  0.2930 -0.2102 -0.1359
30517SOL    HW198666  11.321   4.100   1.474 -0.3298 -0.6291 -0.7540
30517SOL    HW298667  11.465   4.118   1.429  0.1019  1.1185  1.1930
30518SOL     OW98668  11.222   9.640   6.134 -0.0236 -0.0526  0.5160
30518SOL    HW198669  11.270   9.560   6.152 -0.1551 -0.1917  0.2444
30518SOL    HW298670  11.211   9.641   6.039  1.2315  0.9986  0.3409
30519SOL     OW98671  12.717   0.925   9.405  0.2430  0.4754  0.1344
30519SOL    HW198672  12.707   1.012   9.444  2.9949  0.8475  0.2549
30519SOL    HW298673  12.752   0.941   9.317  0.4579 -0.4738  0.0271
30520SOL     OW98674   2.609   5.052   1.234  0.8472 -0.1937  0.1286
30520SOL    HW198675   2.643   4.968   1.202 -2.0276 -1.5471  0.3193
30520SOL    HW298676   2.625   5.050   1.328  2.2987  0.2986 -0.0751
30521SOL     OW98677  12.363   7.744   3.878  0.3135  0.3659 -0.3259
30521SOL    HW198678  12.405   7.719   3.796  2.7280  0.5396  0.7482
30521SOL    HW298679  12.365   7.839   3.879  0.6729  0.3636  0.0625
30522SOL     OW98680   3.691   1.591   0.292 -0.5292  0.1668 -0.2164
30522SOL    HW198681   3.716   1.646   0.366 -0.3086  1.9238 -1.5124
30522SOL    HW298682   3.773   1.549   0.265 -0.2301  0.9063 -0.5110
30523SOL     OW98683   5.638   5.052   9.529  0.2419  0.3440  0.4453
30523SOL    HW198684   5.703   5.076   9.463  0.7973  0.4631  1.0174
30523SOL    HW298685   5.689   5.039   9.609 -0.5549  1.6090  1.2120
30524SOL     OW98686   3.316   1.270   1.037  0.1415 -0.1573  0.0725
30524SOL    HW198687   3.372   1.245   0.964  0.0510 -0.0398 -0.0383
30524SOL    HW298688   3.299   1.189   1.084 -1.3445 -0.5718 -1.1160
30525SOL     OW98689   4.274   1.240  12.005  0.5895 -0.0326  0.0625
30525SOL    HW198690   4.344   1.303  11.984  1.9901 -1.3220  0.6796
30525SOL    HW298691   4.231   1.278  12.082  1.0878  0.4177  0.1273
30526SOL     OW98692   0.201  10.671   4.329 -0.4854 -0.1303  0.1602
30526SOL    HW198693   0.291  10.673   4.361 -0.2231  1.1202 -0.6033
30526SOL    HW298694   0.151  10.720   4.394 -0.6546 -0.9013  0.6313
30527SOL     OW98695   9.063   5.595   6.783 -0.7470  0.9042  0.1001
30527SOL    HW198696   9.083   5.592   6.877 -1.2772  1.3070  0.2315
30527SOL    HW298697   9.011   5.517   6.766 -0.3158  0.6228  0.0568
30528SOL     OW98698   4.766   8.521   0.989  0.6707 -0.0324 -0.0931
30528SOL    HW198699   4.730   8.543   1.076  0.1516  0.6477 -0.4694
30528SOL    HW298700   4.754   8.427   0.982 -1.9082  0.2509 -0.5446
30529SOL     OW98701   7.769   4.368   0.575 -0.2178  0.1787 -0.1589
30529SOL    HW198702   7.714   4.358   0.498  0.3731  0.3652 -0.6086
30529SOL    HW298703   7.782   4.463   0.583 -0.1474  0.1493  0.0754
30530SOL     OW98704   8.912   2.611   7.147 -0.2884  0.2313 -0.2786
30530SOL    HW198705   8.914   2.575   7.236  0.4428 -0.9658 -0.7530
30530SOL    HW298706   8.980   2.678   7.146  1.5351 -1.5203 -0.6036
30531SOL     OW98707   0.222  11.567   8.904 -0.4789  0.0171 -0.1431
30531SOL    HW198708   0.216  11.572   8.809  2.6632 -0.1396 -0.4527
30531SOL    HW298709   0.188  11.651   8.934  1.0786  1.2597 -1.6418
30532SOL     OW98710   2.026   1.266  11.900 -0.4476 -0.2953  0.2457
30532SOL    HW198711   1.986   1.353  11.902 -0.0682 -0.1280  1.6790
30532SOL    HW298712   1.989   1.225  11.822 -1.5654  0.7189  0.1996
30533SOL     OW98713   8.169   7.494  11.788 -1.0485 -0.1973  0.1784
30533SOL    HW198714   8.168   7.436  11.864  2.7749 -1.5433 -0.5954
30533SOL    HW298715   8.102   7.459  11.730 -1.8910 -1.0432  1.6112
30534SOL     OW98716   0.277   6.080   6.342  0.1840 -0.3172  0.3754
30534SOL    HW198717   0.309   5.989   6.345 -2.2716 -1.2058  1.7783
30534SOL    HW298718   0.253   6.093   6.250 -0.3630 -1.4503  0.3404
30535SOL     OW98719   5.430   3.522  11.891 -0.6016  0.0570 -0.9833
30535SOL    HW198720   5.488   3.516  11.967 -0.9356  1.7672 -0.5470
30535SOL    HW298721   5.349   3.480  11.920 -0.4292 -0.0919 -0.7116
30536SOL     OW98722   6.439   0.377   8.593  0.0281 -0.4417  0.2993
30536SOL    HW198723   6.469   0.361   8.683  1.6610 -0.1055 -0.1390
30536SOL    HW298724   6.440   0.473   8.585  1.7544 -0.4945 -0.6154
30537SOL     OW98725   9.539  12.454  12.611 -0.3732  0.1259 -0.2852
30537SOL    HW198726   9.567  12.541  12.641 -2.2202  0.3034  1.0939
30537SOL    HW298727   9.566  12.395  12.682  0.5235 -0.4020 -1.0413
30538SOL     OW98728   0.243  12.198   5.463  0.4401  0.2883 -0.1120
30538SOL    HW198729   0.180  12.127   5.476  0.7875  0.0325  0.2126
30538SOL    HW298730   0.217  12.265   5.527 -0.4206  0.8368 -1.0115
30539SOL     OW98731   8.168   5.293   9.912 -0.1396 -0.1740  0.0516
30539SOL    HW198732   8.145   5.325   9.999 -0.8226  0.1206 -0.2308
30539SOL    HW298733   8.234   5.355   9.880  0.6683 -0.6994  0.6378
30540SOL     OW98734   7.717  12.204   3.744  0.0524  0.2593  0.9583
30540SOL    HW198735   7.761  12.278   3.787  1.8066 -0.2831  0.1951
30540SOL    HW298736   7.743  12.128   3.795 -0.2455 -0.0396  0.6634
30541SOL     OW98737   9.051   0.258   2.742  0.4435  0.0370 -0.1752
30541SOL    HW198738   8.966   0.283   2.706  0.4519  0.0039 -0.2191
30541SOL    HW298739   9.100   0.340   2.747  1.7309 -0.3681 -3.6262
30542SOL     OW98740   9.964  10.644  12.001 -0.1371  0.1388  0.4974
30542SOL    HW198741   9.984  10.620  12.091  0.6786 -1.2732 -0.0210
30542SOL    HW298742   9.953  10.560  11.956  2.0361  0.7240 -1.2695
30543SOL     OW98743   4.464   2.165   5.191  0.0079  0.1733 -0.1713
30543SOL    HW198744   4.542   2.123   5.155  0.0292 -2.5484  2.6394
30543SOL    HW298745   4.397   2.155   5.123  0.7886 -2.0306 -0.6954
30544SOL     OW98746   6.898   3.353   4.694 -0.1177 -0.3489 -0.8554
30544SOL    HW198747   6.812   3.390   4.676  0.1880 -0.3240 -2.3362
30544SOL    HW298748   6.955   3.429   4.708  0.0242 -0.3010 -1.6357
30545SOL     OW98749  11.305   7.738   3.602 -0.6237 -0.1633  0.2814
30545SOL    HW198750  11.367   7.755   3.532  1.2126  1.7556  2.2281
30545SOL    HW298751  11.257   7.820   3.613  0.6745  0.3628  2.6346
30546SOL     OW98752   9.083  10.580  11.355  0.1330  0.6830 -0.5386
30546SOL    HW198753   9.093  10.491  11.321  1.0733  0.7425 -0.4534
30546SOL    HW298754   9.056  10.632  11.279 -0.5229  0.3059 -0.5641
30547SOL     OW98755  11.200  11.234  10.619 -0.1187  0.0512 -0.1425
30547SOL    HW198756  11.229  11.142  10.626 -2.0541 -0.7395 -1.7528
30547SOL    HW298757  11.256  11.271  10.551  0.0079 -0.2045 -0.1820
30548SOL     OW98758  10.414   1.588  11.431  0.5143 -0.1871  0.2536
30548SOL    HW198759  10.458   1.517  11.478  1.4105 -1.2931 -2.0957
30548SOL    HW298760  10.478   1.616  11.365 -0.6415  1.3455 -0.2754
30549SOL     OW98761   3.159   6.558   4.640  0.4208  0.3695  0.4048
30549SOL    HW198762   3.136   6.607   4.719  1.6787  0.3295  0.8216
30549SOL    HW298763   3.080   6.560   4.586 -0.1386  1.2501  1.2286
30550SOL     OW98764   0.677  11.760   4.811 -0.3421  0.1887 -0.2787
30550SOL    HW198765   0.587  11.744   4.839 -0.1326  0.2695  0.4514
30550SOL    HW298766   0.726  11.772   4.892 -0.1819  2.9406 -0.6815
30551SOL     OW98767   7.993   5.257   8.194 -0.7208 -0.4121  0.3547
30551SOL    HW198768   7.995   5.252   8.098 -0.4451 -0.5174  0.3642
30551SOL    HW298769   7.900   5.267   8.216 -0.8224 -0.7723  0.0939
30552SOL     OW98770   4.516  11.184   6.882 -0.1244 -0.1189 -0.0432
30552SOL    HW198771   4.599  11.226   6.906  0.1913 -0.4469 -0.5263
30552SOL    HW298772   4.450  11.252   6.896  0.4949  0.9475 -1.8516
30553SOL     OW98773   0.598   6.451   4.981 -0.0733  0.4873 -0.2770
30553SOL    HW198774   0.661   6.489   5.043  0.6672 -0.9789 -0.0946
30553SOL    HW298775   0.548   6.526   4.949 -0.7103  1.2641  2.3220
30554SOL     OW98776   8.321   9.514   9.764 -0.3228 -0.4125 -0.0421
30554SOL    HW198777   8.231   9.494   9.789 -0.6373  0.7566 -0.2200
30554SOL    HW298778   8.315   9.543   9.673  0.2745 -0.6117 -0.1502
30555SOL     OW98779   6.095   2.695  10.578 -0.3123 -0.0944  0.3603
30555SOL    HW198780   6.169   2.706  10.518  0.9799 -1.0558  1.6935
30555SOL    HW298781   6.020   2.729  10.530  0.8508  0.1940 -1.3557
30556SOL     OW98782   3.045  11.848  12.152 -0.3749 -0.0626  0.3630
30556SOL    HW198783   3.063  11.867  12.060 -0.4079  1.0334  0.5760
30556SOL    HW298784   2.951  11.859  12.161 -0.3822 -0.2453  0.5094
30557SOL     OW98785  11.747  11.963  11.683  0.7220  0.5787  0.1781
30557SOL    HW198786  11.806  11.942  11.611  2.2022 -0.0554  1.5110
30557SOL    HW298787  11.660  11.941  11.650  1.5519 -1.5455 -0.7550
30558SOL     OW98788   3.963   6.756   4.757 -0.0018  0.1894 -0.4079
30558SOL    HW198789   4.033   6.691   4.747 -0.7560 -0.5899 -0.7038
30558SOL    HW298790   3.991   6.809   4.833  0.8409 -0.1831 -0.4448
30559SOL     OW98791   1.205   4.870   9.369 -0.0287 -0.1023  0.4776
30559SOL    HW198792   1.214   4.961   9.340 -1.0621 -0.3901 -0.8334
30559SOL    HW298793   1.127   4.870   9.424  1.2893  0.2150  2.4798
30560SOL     OW98794   8.512   3.038   6.372  0.3170 -0.0679  0.5557
30560SOL    HW198795   8.468   3.010   6.292 -1.1242 -0.2409  1.3793
30560SOL    HW298796   8.489   3.130   6.381  1.7540  0.3834 -0.0127
30561SOL     OW98797  11.937  11.727  12.344 -0.0713  0.0295 -1.1027
30561SOL    HW198798  11.937  11.638  12.307  0.2154  0.4434 -2.1211
30561SOL    HW298799  12.029  11.753  12.344  0.1639 -0.4929  1.3117
30562SOL     OW98800  12.705  11.809   6.083  0.5226 -0.6857 -0.8460
30562SOL    HW198801  12.792  11.770   6.093  0.3839 -1.2280 -1.6776
30562SOL    HW298802  12.660  11.752   6.020 -0.0801  0.1674 -1.1998
30563SOL     OW98803   3.721   1.992  10.578 -0.0344  0.2615  0.0336
30563SOL    HW198804   3.739   2.004  10.672 -1.2948 -2.1304  0.6783
30563SOL    HW298805   3.804   1.961  10.542  0.4710  1.2381  0.3263
30564SOL     OW98806  11.468   6.461  11.826 -0.4378 -0.3504 -0.4572
30564SOL    HW198807  11.465   6.377  11.872  0.1448  0.5233  1.2416
30564SOL    HW298808  11.393   6.458  11.766 -2.2676 -0.8923  1.7063
30565SOL     OW98809   9.773   3.231   8.907  0.3478 -0.2630 -0.3990
30565SOL    HW198810   9.756   3.259   8.997  0.8335 -0.4165 -0.2559
30565SOL    HW298811   9.849   3.173   8.913 -0.5651 -1.5315 -0.7097
30566SOL     OW98812  10.348   8.988   0.163 -0.2026 -0.4675 -0.0899
30566SOL    HW198813  10.377   9.071   0.201  1.2864 -0.6912 -0.6751
30566SOL    HW298814  10.374   8.993   0.071  0.6654 -1.8975  0.0404
30567SOL     OW98815   3.281  12.707   5.265  0.0908  0.1056 -0.0949
30567SOL    HW198816   3.204  12.664   5.301  0.3601  0.0329  0.4024
30567SOL    HW298817   3.351  12.643   5.273 -0.4105 -1.0453 -3.3947
30568SOL     OW98818   2.918  10.163   4.757  0.1408  0.1825  0.6238
30568SOL    HW198819   2.943  10.071   4.765  2.0597  0.7499  1.6225
30568SOL    HW298820   2.939  10.186   4.666  0.7880 -0.0507  0.7118
30569SOL     OW98821  12.952   9.830   2.703 -0.2782  0.2029  0.3793
30569SOL    HW198822  12.920   9.781   2.627  0.0642  0.6787 -0.0820
30569SOL    HW298823  12.874   9.876   2.735 -0.1106  1.2748 -0.6773
30570SOL     OW98824   3.529   1.536   5.713  0.4590  0.5417 -0.6255
30570SOL    HW198825   3.449   1.512   5.666  0.7509  0.2831 -0.9969
30570SOL    HW298826   3.512   1.624   5.747 -0.2667  0.1926 -0.0577
30571SOL     OW98827   7.426   9.190   5.681  0.5300 -0.0300  0.2634
30571SOL    HW198828   7.464   9.171   5.595 -2.4817 -0.6690 -1.0658
30571SOL    HW298829   7.419   9.285   5.684 -0.0662 -0.0328 -0.5986
30572SOL     OW98830   8.008  11.376  11.948  0.5743 -0.4300 -0.1199
30572SOL    HW198831   8.027  11.459  11.904  0.3267  0.0103  0.5864
30572SOL    HW298832   7.924  11.390  11.990 -0.1476 -1.5163 -1.1321
30573SOL     OW98833  12.136   9.751  11.983 -0.6808 -0.1456  0.4353
30573SOL    HW198834  12.080   9.780  11.911  1.2381  2.0162 -0.3050
30573SOL    HW298835  12.192   9.684  11.944 -0.6699 -0.0764  0.3300
30574SOL     OW98836   2.381  10.079  10.497 -0.3482  0.1620  0.0680
30574SOL    HW198837   2.476  10.070  10.488 -0.5156 -0.4605 -1.2254
30574SOL    HW298838   2.368  10.099  10.590  1.1290  1.6520  0.0084
30575SOL     OW98839   0.882   2.897   0.951  0.4901 -0.3778  0.1429
30575SOL    HW198840   0.881   2.804   0.929  1.5224 -0.6465  1.1391
30575SOL    HW298841   0.791   2.925   0.942 -0.6371 -2.4211  3.6257
30576SOL     OW98842   8.102   7.041   2.857  0.1014  0.4541 -0.5199
30576SOL    HW198843   8.033   6.977   2.838  0.9059 -1.0822  1.3891
30576SOL    HW298844   8.083   7.071   2.946  0.4996  1.9085 -0.9095
30577SOL     OW98845   5.435  12.264  11.351  0.3523 -0.3783  0.1158
30577SOL    HW198846   5.406  12.356  11.349 -0.6911 -0.6995 -1.1436
30577SOL    HW298847   5.493  12.256  11.276  3.1018 -0.0061  2.0463
30578SOL     OW98848   5.067   3.852   9.469 -0.0362  0.0283  0.4328
30578SOL    HW198849   5.112   3.926   9.428 -1.0535  1.4578  1.7984
30578SOL    HW298850   5.119   3.775   9.443  2.1293  1.3868  0.4543
30579SOL     OW98851   8.357  11.834   7.605  0.1963  0.2719 -0.2745
30579SOL    HW198852   8.429  11.775   7.586  0.8242  0.8069  0.4160
30579SOL    HW298853   8.278  11.783   7.586  0.7071 -0.9728  0.8676
30580SOL     OW98854  11.189   4.113   8.701  0.5261 -0.2433 -0.1667
30580SOL    HW198855  11.232   4.034   8.667 -1.1396 -0.2779 -2.3512
30580SOL    HW298856  11.257   4.180   8.699  1.2306 -0.9621 -0.8667
30581SOL     OW98857   9.439  12.324   0.975  0.6230  0.3379 -0.0639
30581SOL    HW198858   9.377  12.253   0.959  1.9017 -1.1001  1.0759
30581SOL    HW298859   9.487  12.298   1.054  2.5378  1.4670 -0.7720
30582SOL     OW98860  10.291   4.163  10.437 -0.9383 -0.6008  0.2724
30582SOL    HW198861  10.290   4.195  10.346 -1.1258 -0.0973  0.4465
30582SOL    HW298862  10.383   4.152  10.457 -0.9033 -0.9483 -0.0575
30583SOL     OW98863   9.450   0.898   4.730 -0.6767 -0.0618 -0.3637
30583SOL    HW198864   9.519   0.934   4.786 -0.4969  1.0291 -1.2502
30583SOL    HW298865   9.413   0.826   4.781 -0.3110  0.6889  1.0147
30584SOL     OW98866   5.826   2.054   0.444 -0.3121 -0.5040 -0.1704
30584SOL    HW198867   5.892   2.074   0.510 -0.1081 -0.6316 -0.3350
30584SOL    HW298868   5.820   1.958   0.444 -0.8816 -0.4783  0.2187
30585SOL     OW98869  12.810   9.123   9.931 -0.9200  0.2971 -0.4703
30585SOL    HW198870  12.877   9.153   9.870  0.1297 -0.2732  0.3661
30585SOL    HW298871  12.815   9.028   9.927 -1.6411  0.2496 -0.3418
30586SOL     OW98872   8.617   3.982   8.999  0.1860 -0.0373  0.3314
30586SOL    HW198873   8.548   4.030   8.953 -1.1899 -1.4434  0.8380
30586SOL    HW298874   8.695   4.036   8.988 -0.7114  1.0063 -1.3011
30587SOL     OW98875   0.344   3.501  12.182  0.5182  0.1855 -0.0550
30587SOL    HW198876   0.264   3.502  12.234 -0.3786  1.0002 -1.3992
30587SOL    HW298877   0.315   3.482  12.093  1.8046  0.6223 -0.5871
30588SOL     OW98878   7.420   9.484  11.145  0.3393  0.2161  0.0868
30588SOL    HW198879   7.361   9.497  11.220  0.9680 -1.7895  0.9847
30588SOL    HW298880   7.505   9.463  11.185  0.9000 -0.0138 -1.1951
30589SOL     OW98881   0.770  10.776   3.397 -0.5244 -0.1507 -0.1391
30589SOL    HW198882   0.755  10.870   3.389 -0.3524 -0.2200 -1.4483
30589SOL    HW298883   0.762  10.758   3.491 -0.9822  1.0899  0.0725
30590SOL     OW98884   2.887   2.482  10.974 -0.1076 -0.5595  0.1954
30590SOL    HW198885   2.919   2.559  11.022 -0.0098 -1.3746  1.4657
30590SOL    HW298886   2.826   2.519  10.910  0.3469  0.6321  0.4080
30591SOL     OW98887   5.275   7.483  12.876 -0.2039 -0.4697 -0.4225
30591SOL    HW198888   5.365   7.452  12.878 -0.3875 -0.9871  1.3105
30591SOL    HW298889   5.237   7.453  12.959 -1.3939  1.4286 -0.2154
30592SOL     OW98890  12.050   7.001  12.723 -0.1123  0.0300 -0.5580
30592SOL    HW198891  11.969   6.998  12.775 -0.2556  0.2036 -0.7697
30592SOL    HW298892  12.045   6.923  12.668  1.0798 -1.3607  1.2146
30593SOL     OW98893  12.650   2.251  11.742  0.2304 -0.3551  0.6640
30593SOL    HW198894  12.646   2.274  11.835  0.4252  0.3035  0.5175
30593SOL    HW298895  12.559   2.258  11.712  0.5565  2.7662  0.0613
30594SOL     OW98896  12.025  11.285   9.830 -0.3581  0.3780 -0.0546
30594SOL    HW198897  12.090  11.354   9.813 -1.4767  1.8731  1.3670
30594SOL    HW298898  12.038  11.263   9.922 -1.1377 -0.1045 -0.0570
30595SOL     OW98899   4.655   4.963   5.635 -0.1172 -0.6566 -0.6327
30595SOL    HW198900   4.684   5.002   5.717  0.5868 -1.8053 -0.3093
30595SOL    HW298901   4.645   5.037   5.575 -0.9501  0.2327  0.5536
30596SOL     OW98902   8.449   0.241  10.232 -0.6180  0.1368  0.2463
30596SOL    HW198903   8.464   0.149  10.255  0.7338  0.2031 -0.2884
30596SOL    HW298904   8.532   0.284  10.250 -1.0275  1.1289 -0.1678
30597SOL     OW98905   3.071  10.607  11.044 -0.8914  0.3773  0.0698
30597SOL    HW198906   3.079  10.513  11.056 -1.1597  0.6274  3.3805
30597SOL    HW298907   3.146  10.631  10.990 -1.1457 -1.7574 -1.3482
30598SOL     OW98908   2.256   0.708   8.147  0.6089 -0.2988  0.4991
30598SOL    HW198909   2.329   0.769   8.134 -0.7987  1.5363  0.8474
30598SOL    HW298910   2.267   0.677   8.237 -0.5750  2.2028  1.5858
30599SOL     OW98911  11.992   8.086   4.508  0.7186 -0.4027  0.4830
30599SOL    HW198912  12.078   8.127   4.518  1.9939 -2.2444 -1.9532
30599SOL    HW298913  11.982   8.033   4.587  2.1078 -0.6509  0.5207
30600SOL     OW98914   0.275   1.905   3.399 -0.1525 -0.0208 -0.5723
30600SOL    HW198915   0.200   1.908   3.339  0.7796 -0.5716 -1.7930
30600SOL    HW298916   0.332   1.976   3.370  0.9213 -1.1113 -1.1919
30601SOL     OW98917   1.775   5.150  10.516 -0.2343 -0.1822  0.0633
30601SOL    HW198918   1.832   5.136  10.591 -2.0452  0.3106  1.6033
30601SOL    HW298919   1.688   5.164  10.554 -1.0091  1.2933 -2.0663
30602SOL     OW98920   7.073   1.294   2.399 -0.0262  0.2768 -0.3297
30602SOL    HW198921   7.004   1.268   2.338 -1.5673  0.7623  1.1283
30602SOL    HW298922   7.053   1.245   2.479  1.1357  0.6903  0.2336
30603SOL     OW98923   3.547   0.549   7.096  0.2475  0.1718  0.1535
30603SOL    HW198924   3.551   0.566   7.190  0.9106 -0.1512  0.1876
30603SOL    HW298925   3.545   0.453   7.090  0.6528  0.1859 -0.1789
30604SOL     OW98926   0.897   3.370   0.479  0.1908 -0.1713  0.3256
30604SOL    HW198927   0.982   3.348   0.439  1.5034  2.0273  1.7242
30604SOL    HW298928   0.919   3.404   0.566 -2.2602 -0.7716  1.2586
30605SOL     OW98929  11.963   3.148  10.313  0.3734 -0.1669 -0.0196
30605SOL    HW198930  12.002   3.129  10.228 -3.5207 -0.2320 -2.0477
30605SOL    HW298931  11.945   3.242  10.310  1.2914  0.0705  1.2994
30606SOL     OW98932  10.112   5.599   6.221  0.2838  0.3006 -0.3227
30606SOL    HW198933  10.128   5.565   6.309  1.3734  1.0941 -0.1806
30606SOL    HW298934  10.109   5.522   6.165 -0.3152 -0.2038  0.3890
30607SOL     OW98935   1.749  12.587   1.722 -0.4381 -0.1492  0.1754
30607SOL    HW198936   1.685  12.520   1.747 -0.5629 -0.5173 -1.0998
30607SOL    HW298937   1.746  12.589   1.627  0.6608  0.6184  0.1457
30608SOL     OW98938   5.302   7.836   8.091 -0.3370  0.0530 -0.5224
30608SOL    HW198939   5.298   7.804   8.001  0.4426 -1.7230  0.0317
30608SOL    HW298940   5.382   7.889   8.094 -0.4632  0.2701 -0.9172
30609SOL     OW98941   5.647   7.223   4.359  0.0660 -0.0519  0.2919
30609SOL    HW198942   5.614   7.165   4.290  0.9909  0.8323 -0.9536
30609SOL    HW298943   5.732   7.186   4.383 -0.5404 -0.7266  1.4541
30610SOL     OW98944   7.083   1.655   1.207 -0.1529  0.0608 -0.2256
30610SOL    HW198945   7.064   1.561   1.202  0.2716  0.0149 -1.2581
30610SOL    HW298946   7.141   1.663   1.283 -1.2173 -0.3227  0.6469
30611SOL     OW98947   5.522  11.802   1.965  0.5643 -0.1384 -0.4169
30611SOL    HW198948   5.554  11.731   1.909 -1.6611 -0.3588 -1.4926
30611SOL    HW298949   5.553  11.778   2.053  3.7966  0.0140 -1.3845
30612SOL     OW98950  11.514   7.977   2.507 -0.1210  0.6177  0.1786
30612SOL    HW198951  11.471   8.058   2.481  0.3503  0.4901 -1.0883
30612SOL    HW298952  11.455   7.908   2.476 -0.1135  0.4656  0.4983
30613SOL     OW98953   8.357   2.415   0.957  0.0118  0.3016 -0.4465
30613SOL    HW198954   8.276   2.466   0.949 -0.2488 -0.0725 -0.2318
30613SOL    HW298955   8.415   2.451   0.889 -1.0860 -0.8215 -2.0737
30614SOL     OW98956   1.799   1.606   9.407 -0.3883  0.4534  0.6765
30614SOL    HW198957   1.768   1.521   9.374 -2.0947  1.3733 -0.2051
30614SOL    HW298958   1.757   1.614   9.493  1.0986 -0.2899  1.5112
30615SOL     OW98959   6.321  11.810   5.469 -0.6689 -0.3468  0.0290
30615SOL    HW198960   6.402  11.771   5.503 -0.3815  1.3709  1.4209
30615SOL    HW298961   6.273  11.735   5.433  0.1924 -1.8935  1.8913
30616SOL     OW98962   6.168   1.493  11.851 -0.2948  0.3189  0.6113
30616SOL    HW198963   6.093   1.447  11.888 -0.4298 -0.1920 -0.2633
30616SOL    HW298964   6.224   1.423  11.817  0.1235  0.7407  0.4227
30617SOL     OW98965   0.796   7.457   8.967  0.1380  0.3704 -0.0834
30617SOL    HW198966   0.873   7.402   8.979  1.2457  1.7257 -0.7523
30617SOL    HW298967   0.828   7.546   8.976 -1.3868  0.9708 -0.2760
30618SOL     OW98968   1.188   6.412   7.130  0.3828  0.2737  0.5519
30618SOL    HW198969   1.102   6.395   7.168  0.5961 -1.5625  0.2976
30618SOL    HW298970   1.247   6.418   7.205  0.6018 -2.1191  0.6270
30619SOL     OW98971  12.295   2.411   1.692 -0.1863  0.7490 -0.0750
30619SOL    HW198972  12.279   2.382   1.781  1.0782  0.5284  0.1073
30619SOL    HW298973  12.349   2.342   1.653  0.3254  1.4221 -0.5968
30620SOL     OW98974   3.721   9.392  11.130  0.1453 -0.0118 -0.6552
30620SOL    HW198975   3.626   9.390  11.124 -0.0154  0.7256  1.0193
30620SOL    HW298976   3.739   9.423  11.219  1.9599 -1.6543 -0.3812
30621SOL     OW98977   3.419  10.181  10.800 -0.1476  0.0838  0.3079
30621SOL    HW198978   3.351  10.129  10.757  1.2030  0.0470 -1.9365
30621SOL    HW298979   3.447  10.244  10.734  3.5191 -1.3520  0.2943
30622SOL     OW98980   1.964  11.910   3.355 -0.6239  0.0168  0.3408
30622SOL    HW198981   1.935  11.828   3.395  0.8322 -2.4054 -3.1061
30622SOL    HW298982   2.059  11.906   3.356 -0.4940  0.0885 -2.5282
30623SOL     OW98983   7.295   1.499   1.592  0.6039  0.2448  1.0837
30623SOL    HW198984   7.223   1.563   1.596  0.1846 -0.2643  1.7965
30623SOL    HW298985   7.289   1.450   1.674  2.7308  1.1969  1.8949
30624SOL     OW98986   6.826   5.839  12.452 -0.0441 -0.1600  0.4032
30624SOL    HW198987   6.840   5.744  12.457 -0.4195 -0.3293 -1.1110
30624SOL    HW298988   6.912   5.877  12.470  0.4282 -0.8536 -0.3311
30625SOL     OW98989  11.206   7.191  10.289 -0.0221  0.2638  0.2252
30625SOL    HW198990  11.243   7.152  10.210 -0.5286 -1.5411  0.8441
30625SOL    HW298991  11.125   7.232  10.260 -1.0458 -1.7897  0.0391
30626SOL     OW98992   0.891   8.828  11.307 -0.3286 -0.6406  0.0830
30626SOL    HW198993   0.832   8.757  11.333 -0.6711 -0.6602 -0.7120
30626SOL    HW298994   0.854   8.861  11.225  2.0121 -2.2116 -1.7359
30627SOL     OW98995   7.952  12.291   1.400  0.6533 -0.0912  0.0254
30627SOL    HW198996   7.919  12.379   1.384  1.1327  0.0518 -0.1811
30627SOL    HW298997   7.961  12.253   1.313 -0.4314 -0.6712  0.1523
30628SOL     OW98998  11.514   3.397   8.876  0.1473 -0.2395 -0.3841
30628SOL    HW198999  11.518   3.442   8.960 -1.5063 -0.5531 -0.1009
30628SOL    HW299000  11.564   3.317   8.889  0.9717  0.3101 -0.1069
30629SOL     OW99001   1.379   5.667   3.415  0.6160  0.6879  0.1881
30629SOL    HW199002   1.323   5.658   3.493 -1.2343 -1.6560 -1.2596
30629SOL    HW299003   1.460   5.620   3.439 -0.3037 -0.8444  0.4418
30630SOL     OW99004  12.550   8.672   6.303 -0.1143 -0.8269  0.4005
30630SOL    HW199005  12.504   8.606   6.355 -1.5419  0.4719  0.8467
30630SOL    HW299006  12.505   8.671   6.219 -0.8417  0.2735  0.7569
30631SOL     OW99007  10.111  11.479  10.069  0.0424 -0.4236 -0.0330
30631SOL    HW199008  10.139  11.511   9.983  1.1966 -0.9061  0.1519
30631SOL    HW299009  10.189  11.484  10.124 -0.8487  0.5923  1.2339
30632SOL     OW99010   6.001   3.687   8.393 -0.3112 -0.0039  0.4992
30632SOL    HW199011   6.017   3.595   8.373 -1.3050 -0.2828  0.9453
30632SOL    HW299012   5.985   3.727   8.307  0.1001 -0.2420  0.3060
30633SOL     OW99013  12.942  11.121   9.175  0.2303 -0.7508  0.0544
30633SOL    HW199014  12.973  11.187   9.114 -0.0531 -1.0366 -0.3987
30633SOL    HW299015  13.019  11.099   9.227  1.2538 -2.6200 -2.0948
30634SOL     OW99016  11.929   3.651   2.328  0.0152  0.4650 -0.3920
30634SOL    HW199017  11.880   3.671   2.407  0.7720  0.8643 -0.0061
30634SOL    HW299018  11.893   3.709   2.261  0.3158  1.1488  0.0246
30635SOL     OW99019  11.661   1.224   2.158 -0.6178  0.4987 -0.3763
30635SOL    HW199020  11.646   1.269   2.075 -0.6317 -0.0038 -0.6505
30635SOL    HW299021  11.755   1.211   2.163 -0.6784 -0.0708 -0.6364
30636SOL     OW99022  10.580  10.777   8.624  0.2593  0.1539 -0.4982
30636SOL    HW199023  10.628  10.759   8.705  1.2778  0.5196 -1.0054
30636SOL    HW299024  10.543  10.864   8.637  2.4761  1.3019 -1.3327
30637SOL     OW99025   1.055   6.606   9.322 -0.3433 -0.5546  0.1286
30637SOL    HW199026   1.032   6.591   9.230 -0.8199 -0.1488  0.1771
30637SOL    HW299027   1.151   6.609   9.323 -0.2662 -2.2685 -0.0770
30638SOL     OW99028   1.106   2.158   1.425 -0.7127 -0.1604 -0.0924
30638SOL    HW199029   1.131   2.114   1.343  1.0237 -1.4972  1.0600
30638SOL    HW299030   1.049   2.229   1.398 -1.8526 -1.7732 -2.2962
30639SOL     OW99031   2.997   9.389  12.088 -0.3300 -0.0792 -0.3619
30639SOL    HW199032   3.010   9.397  11.994 -0.2851  0.3965 -0.3195
30639SOL    HW299033   3.079   9.419  12.127 -0.2067 -0.6412 -0.1780
30640SOL     OW99034   5.902   4.020   5.793  0.3684 -0.4559  0.4619
30640SOL    HW199035   5.953   4.045   5.716 -0.6429  2.2896  0.5682
30640SOL    HW299036   5.811   4.030   5.766 -0.0193 -0.2010  1.7919
30641SOL     OW99037   3.329   4.141   8.475 -0.3948  0.5755  0.5282
30641SOL    HW199038   3.287   4.203   8.534 -1.8493  1.1860 -1.0477
30641SOL    HW299039   3.293   4.055   8.500 -1.9427  0.9736 -0.1779
30642SOL     OW99040   6.672   7.769   1.845 -0.5897  0.7548 -0.0981
30642SOL    HW199041   6.671   7.781   1.940  0.8826 -0.5093  0.1142
30642SOL    HW299042   6.718   7.686   1.832 -1.2482  0.6437 -1.8962
30643SOL     OW99043   8.510   5.179   9.910 -0.0602  0.2195  0.2517
30643SOL    HW199044   8.455   5.170   9.988  0.2234  1.0320  0.5469
30643SOL    HW299045   8.452   5.154   9.838 -0.0281 -1.5491  0.7867
30644SOL     OW99046   1.557   5.745   6.139  1.0804 -0.4448 -0.3067
30644SOL    HW199047   1.542   5.700   6.222  2.3367 -0.1254  0.1136
30644SOL    HW299048   1.510   5.693   6.074 -2.6297  0.9597  0.9468
30645SOL     OW99049  11.887  10.571   9.363 -0.1501  0.0441 -0.2789
30645SOL    HW199050  11.814  10.522   9.325 -0.5460 -0.0196  0.5325
30645SOL    HW299051  11.935  10.605   9.288 -0.2877 -0.9803 -0.8526
30646SOL     OW99052   7.718   6.355   0.753 -0.3917  0.0105 -0.3447
30646SOL    HW199053   7.677   6.387   0.673  0.5751  1.2639 -0.3619
30646SOL    HW299054   7.650   6.364   0.820 -0.8538 -0.0455 -0.7981
30647SOL     OW99055  10.943   7.244   0.423 -0.7952 -0.1088  0.2143
30647SOL    HW199056  10.973   7.269   0.336 -0.1238  1.6504  0.8898
30647SOL    HW299057  10.944   7.149   0.423  0.3963 -0.1337 -1.2950
30648SOL     OW99058   1.245   5.099   3.212 -0.0850  0.4822  0.1125
30648SOL    HW199059   1.222   5.132   3.125  2.7217  0.1346 -0.8690
30648SOL    HW299060   1.229   5.005   3.208 -1.1190  0.6406  0.4053
30649SOL     OW99061   2.562   4.670   7.721 -0.1627 -0.5663  0.1009
30649SOL    HW199062   2.630   4.727   7.686 -0.6919  0.3882  0.5789
30649SOL    HW299063   2.558   4.691   7.814 -1.5001 -0.1682 -0.0162
30650SOL     OW99064  10.635  11.332   6.542 -0.0791 -0.0344  0.2351
30650SOL    HW199065  10.641  11.328   6.637  0.6404  1.1303  0.2596
30650SOL    HW299066  10.546  11.362   6.524  0.3992  1.7270  0.6357
30651SOL     OW99067   2.581   3.308  11.900  0.0524  0.0867 -0.5386
30651SOL    HW199068   2.609   3.394  11.869  0.9431  0.1069  0.2544
30651SOL    HW299069   2.508   3.285  11.844 -0.1988  1.3570 -0.7745
30652SOL     OW99070  10.307  11.887   9.243  0.2673 -0.4002  0.0474
30652SOL    HW199071  10.268  11.957   9.190  3.0403 -0.5719 -2.4930
30652SOL    HW299072  10.314  11.925   9.331 -1.8781  0.9987 -0.3097
30653SOL     OW99073   1.796  11.213  12.704  0.2115  0.1435  0.2191
30653SOL    HW199074   1.763  11.165  12.779  1.5848 -0.9693  0.1584
30653SOL    HW299075   1.753  11.173  12.628  0.3729 -0.1234  0.2669
30654SOL     OW99076   4.201   1.288   2.619  0.0592 -0.8168  0.3547
30654SOL    HW199077   4.127   1.250   2.571 -1.2871  0.4647  1.3009
30654SOL    HW299078   4.278   1.251   2.578 -1.0287 -0.2263 -2.4232
30655SOL     OW99079   7.847   3.686   1.112  0.0404  0.7066  0.4617
30655SOL    HW199080   7.864   3.651   1.200 -0.6148 -0.3461  0.1865
30655SOL    HW299081   7.848   3.781   1.124 -0.4221  0.5789  1.6975
30656SOL     OW99082   3.518   6.484   3.099 -0.1914 -0.2129  0.2057
30656SOL    HW199083   3.552   6.419   3.038  1.1054 -0.0939  0.7558
30656SOL    HW299084   3.458   6.436   3.155  0.7697 -0.9696  0.6215
30657SOL     OW99085   2.265   2.009   3.123  0.2636 -0.3012  0.2574
30657SOL    HW199086   2.284   2.037   3.033 -0.6112 -0.6359 -0.0421
30657SOL    HW299087   2.181   2.051   3.143  0.9967  0.7055  1.3450
30658SOL     OW99088   1.992  11.389   3.199  0.2174  0.2625  0.1903
30658SOL    HW199089   2.025  11.460   3.253 -0.9414 -1.3355  3.2920
30658SOL    HW299090   1.914  11.424   3.156  0.0566  1.0696  1.1275
30659SOL     OW99091   4.946  11.826   4.334  0.5311  0.4594  0.9055
30659SOL    HW199092   5.024  11.875   4.311  0.1764 -0.3407 -2.4961
30659SOL    HW299093   4.977  11.739   4.357  0.7329  0.4881  0.7380
30660SOL     OW99094  10.416   0.905  10.795  0.0120 -0.0218  0.4608
30660SOL    HW199095  10.434   0.814  10.820 -0.0024 -0.0243  0.4621
30660SOL    HW299096  10.405   0.902  10.700 -4.6963 -0.9063  0.7569
30661SOL     OW99097   5.217  10.735   0.283 -0.2583 -0.7619 -0.0446
30661SOL    HW199098   5.197  10.799   0.351  0.0940 -0.1261 -0.5265
30661SOL    HW299099   5.294  10.689   0.315  0.3701  0.0612 -0.3548
30662SOL     OW99100   8.765   7.852   3.851  0.1211  0.6799 -0.1973
30662SOL    HW199101   8.699   7.834   3.919 -0.4687 -1.1724 -1.1727
30662SOL    HW299102   8.821   7.774   3.852  1.2816  1.4975 -0.5405
30663SOL     OW99103   8.981  12.193  10.857  0.5009 -0.5941 -0.0338
30663SOL    HW199104   8.987  12.185  10.761 -1.7892 -0.5691 -0.2458
30663SOL    HW299105   9.063  12.156  10.889  2.4275  1.5765 -2.0686
30664SOL     OW99106  12.290   3.649   9.136 -0.6513 -0.4424  0.5595
30664SOL    HW199107  12.323   3.723   9.187 -0.7029 -0.3480  0.4583
30664SOL    HW299108  12.367   3.596   9.117 -0.3176  0.5128 -0.8787
30665SOL     OW99109   3.210   0.956   3.719 -0.6152 -0.5167 -0.6018
30665SOL    HW199110   3.220   1.030   3.780 -0.7495 -1.0754  0.1018
30665SOL    HW299111   3.207   0.998   3.632  0.6684  0.2078 -0.3192
30666SOL     OW99112   3.855   1.266  10.960 -0.4304  0.3143 -0.0100
30666SOL    HW199113   3.822   1.337  10.906 -1.9308 -1.7500 -2.0369
30666SOL    HW299114   3.839   1.294  11.050 -0.3572  2.7434 -0.6862
30667SOL     OW99115   3.988   8.188   7.876 -0.0860  0.0751  0.2053
30667SOL    HW199116   4.046   8.131   7.927  0.0039 -1.3577 -1.4194
30667SOL    HW299117   4.046   8.235   7.817 -0.2617  1.2050  0.9072
30668SOL     OW99118   0.987   8.813   0.912  0.1200  0.3381  0.5167
30668SOL    HW199119   1.018   8.724   0.928  0.1882  0.2396 -0.1426
30668SOL    HW299120   1.018   8.834   0.824  1.1945  1.4865  1.1331
30669SOL     OW99121  12.269   5.479   7.146  0.5062 -0.2095 -0.1050
30669SOL    HW199122  12.217   5.538   7.091 -0.5438  0.6957  1.7534
30669SOL    HW299123  12.238   5.392   7.122  0.2543  0.1348 -1.1107
30670SOL     OW99124   3.135   4.893   8.339  0.1404  0.2067 -0.2466
30670SOL    HW199125   3.051   4.939   8.339  0.7194  1.3414  0.4705
30670SOL    HW299126   3.158   4.884   8.246 -2.2850 -3.1719 -0.7103
30671SOL     OW99127   2.981   5.455   3.543 -0.3224  0.6693  0.0394
30671SOL    HW199128   2.892   5.490   3.553 -0.4788  0.1577  0.4842
30671SOL    HW299129   3.034   5.505   3.606 -0.3039  0.9398 -0.1900
30672SOL     OW99130  12.861  10.403   0.108 -0.0941 -0.3071 -0.3277
30672SOL    HW199131  12.828  10.483   0.150  0.0930  0.0576 -0.8595
30672SOL    HW299132  12.856  10.336   0.175  1.8367  0.6367  0.8550
30673SOL     OW99133   6.095  11.141   8.198 -0.1212 -0.7634 -0.0425
30673SOL    HW199134   6.100  11.088   8.118  1.1185 -1.5950  0.5533
30673SOL    HW299135   6.064  11.226   8.168  1.8455 -0.5361 -1.7076
30674SOL     OW99136   3.144   6.420   1.875  0.5305  0.0946  0.0736
30674SOL    HW199137   3.165   6.513   1.872  0.5039  0.0947 -1.9135
30674SOL    HW299138   3.203   6.381   1.810  0.5272 -1.2842  0.8582
30675SOL     OW99139  10.015   4.731   4.527  0.5993 -0.2707  0.6819
30675SOL    HW199140  10.038   4.721   4.619 -0.3033  2.4933  1.2865
30675SOL    HW299141  10.080   4.792   4.492  1.1613 -1.5747 -0.6514
30676SOL     OW99142   3.065   7.660  11.331 -0.6441 -0.0962  0.4168
30676SOL    HW199143   2.991   7.615  11.373 -1.4896 -0.0867 -1.0270
30676SOL    HW299144   3.097   7.599  11.265 -0.6323  0.6855 -0.3214
30677SOL     OW99145   0.018   3.658   9.893 -0.4672 -0.4689  0.4302
30677SOL    HW199146   0.022   3.630   9.802 -2.5848 -0.0643  0.1661
30677SOL    HW299147   0.052   3.747   9.893 -1.7133  0.0126 -0.2058
30678SOL     OW99148   0.095   1.009   8.474  0.6092  0.1819 -0.2497
30678SOL    HW199149   0.062   0.951   8.405  0.7043  0.9930 -1.0023
30678SOL    HW299150   0.167   0.961   8.515 -0.5851 -1.0293  0.4716
30679SOL     OW99151  10.405   9.080   1.126  0.1442  0.1089 -0.3310
30679SOL    HW199152  10.377   9.155   1.179  0.6240  0.4759 -0.5880
30679SOL    HW299153  10.405   9.113   1.036 -0.3594 -0.4171 -0.5264
30680SOL     OW99154   8.664  11.943   0.818  0.3455 -0.2515  0.0365
30680SOL    HW199155   8.703  11.963   0.903  1.2431 -1.1586 -0.1387
30680SOL    HW299156   8.571  11.931   0.836  0.5623 -0.6382  0.9222
30681SOL     OW99157   6.276  12.228   9.528  0.2539 -0.6268  0.4717
30681SOL    HW199158   6.270  12.310   9.577 -2.1348  0.9426 -2.1299
30681SOL    HW299159   6.292  12.161   9.594  0.9140  1.7381  2.8698
30682SOL     OW99160   1.376  10.823   2.436 -0.0542 -0.2074 -0.3418
30682SOL    HW199161   1.458  10.818   2.486 -0.5573 -0.0560  0.5090
30682SOL    HW299162   1.371  10.914   2.407 -0.5979  0.1338  0.7830
30683SOL     OW99163   5.709   9.504   3.052 -0.0503  0.4075  0.0102
30683SOL    HW199164   5.657   9.501   3.132 -0.4931 -0.3686 -0.2938
30683SOL    HW299165   5.646   9.523   2.983 -0.1285 -1.3858 -0.4827
30684SOL     OW99166   1.570  11.452  10.108  0.1442  0.1444  0.5794
30684SOL    HW199167   1.641  11.496  10.156  0.2193  0.6397  0.0337
30684SOL    HW299168   1.491  11.499  10.134  0.1269  0.1190  0.5728
30685SOL     OW99169  12.909   8.806   3.535  0.5556  0.3340  0.2813
30685SOL    HW199170  12.889   8.874   3.599  0.5220  0.7149 -0.1292
30685SOL    HW299171  12.897   8.848   3.450  0.2262 -0.2751  0.0186
30686SOL     OW99172   2.301   3.775  11.386 -0.2936 -0.4064 -0.1418
30686SOL    HW199173   2.215   3.815  11.402 -0.1834 -0.4149  0.4893
30686SOL    HW299174   2.348   3.840  11.334 -0.3548 -0.0012  0.3039
30687SOL     OW99175   6.522   3.324   3.155  0.1714 -0.0004  0.0867
30687SOL    HW199176   6.500   3.238   3.120 -0.4074  0.4626 -0.7305
30687SOL    HW299177   6.440   3.372   3.155  0.4487  0.4943  0.7228
30688SOL     OW99178   1.182   5.207  12.903  0.1550 -0.5312 -0.2957
30688SOL    HW199179   1.253   5.227  12.965  0.0778  0.6124 -0.5707
30688SOL    HW299180   1.225   5.206  12.818  0.0245 -0.8775 -0.3594
30689SOL     OW99181  12.376   3.146   8.803  0.6889  0.1092 -0.5972
30689SOL    HW199182  12.444   3.083   8.782 -0.6251 -1.8225  0.6427
30689SOL    HW299183  12.399   3.179   8.890 -0.4963 -1.4572  0.3714
30690SOL     OW99184   1.996   2.070   3.118 -0.2631 -0.2844  0.1220
30690SOL    HW199185   2.013   2.100   3.029 -0.3925 -1.4738 -0.3167
30690SOL    HW299186   2.007   2.148   3.172 -1.8828  0.8558 -1.1056
30691SOL     OW99187  12.891   8.299   6.269 -0.7181  0.1838 -0.2907
30691SOL    HW199188  12.862   8.371   6.213  0.6533  1.1643  0.1999
30691SOL    HW299189  12.822   8.292   6.336 -0.4020  1.7447  0.2442
30692SOL     OW99190   2.183  10.281  10.431  0.0818 -0.2992 -0.6471
30692SOL    HW199191   2.216  10.192  10.422  1.2593  0.1730 -1.1346
30692SOL    HW299192   2.156  10.286  10.523  1.5819 -0.6467 -0.1627
30693SOL     OW99193   8.217   1.278   3.227 -0.4170  0.2451 -0.1049
30693SOL    HW199194   8.243   1.200   3.275  1.2452  2.1365  2.3694
30693SOL    HW299195   8.132   1.256   3.189 -0.6944 -2.2531  1.7202
30694SOL     OW99196   2.817   9.796   7.516 -0.1506  0.1130  0.3274
30694SOL    HW199197   2.912   9.800   7.504  0.1340  1.3954  2.5608
30694SOL    HW299198   2.802   9.714   7.563 -0.4577 -1.1110 -1.7305
30695SOL     OW99199   3.452   6.854  10.335  0.0115  0.1540  0.3967
30695SOL    HW199200   3.361   6.882  10.344 -0.2674 -0.6473  0.1226
30695SOL    HW299201   3.488   6.913  10.268 -0.1354  0.8436  0.9080
30696SOL     OW99202   2.206   0.705   6.704  0.0181  0.7715 -0.4678
30696SOL    HW199203   2.237   0.720   6.615 -0.8949  0.7937 -0.7927
30696SOL    HW299204   2.127   0.652   6.693 -0.1825  0.8953  0.3223
30697SOL     OW99205  10.150   6.736   7.464  0.3834  0.3367 -0.0628
30697SOL    HW199206  10.231   6.717   7.511  0.1508 -1.7790 -0.4506
30697SOL    HW299207  10.120   6.652   7.430 -0.7426  1.4234 -1.9681
30698SOL     OW99208  10.335   5.322   1.659 -0.7703 -0.0429  0.1907
30698SOL    HW199209  10.270   5.384   1.628  1.2709  2.6582  0.9676
30698SOL    HW299210  10.321   5.319   1.754  2.0657  3.0719  0.8630
30699SOL     OW99211   0.042  11.091   1.288 -0.5585 -0.2495 -0.3890
30699SOL    HW199212   0.013  11.020   1.346 -1.0314  0.6037  0.4440
30699SOL    HW299213  -0.038  11.128   1.253 -0.2615 -1.0846 -2.0350
30700SOL     OW99214   6.929  10.746  12.107 -0.4908 -0.1803  0.2275
30700SOL    HW199215   6.844  10.732  12.149 -0.8452  1.2676  0.0474
30700SOL    HW299216   6.919  10.829  12.061  0.5769 -0.6969 -0.9742
30701SOL     OW99217  11.613  11.330   5.102 -0.2843  0.8224 -0.8141
30701SOL    HW199218  11.654  11.379   5.031 -0.7721  2.9011  0.2567
30701SOL    HW299219  11.531  11.378   5.120 -0.2360  0.2821  1.0280
30702SOL     OW99220   8.332   6.681   8.110 -0.2223  0.3483  0.2060
30702SOL    HW199221   8.258   6.626   8.137 -0.4761  1.5491  2.1827
30702SOL    HW299222   8.311   6.707   8.021 -1.0981 -1.0849 -0.0428
30703SOL     OW99223   2.738   0.289   8.291 -0.3320  0.0298  0.3939
30703SOL    HW199224   2.705   0.366   8.338  1.6694 -0.3848  2.6842
30703SOL    HW299225   2.718   0.216   8.349  2.2503 -0.5058  0.7266
30704SOL     OW99226   1.805   7.272   6.069  0.1751  0.0790  0.5242
30704SOL    HW199227   1.795   7.362   6.041 -1.4952 -0.7346 -1.8088
30704SOL    HW299228   1.725   7.253   6.119  0.6110 -0.0727  1.1848
30705SOL     OW99229   1.740   1.643   2.950  0.1761 -0.2674  0.3411
30705SOL    HW199230   1.815   1.692   2.982  0.5490 -1.0228  0.6280
30705SOL    HW299231   1.697   1.703   2.889  2.0088 -0.4351 -1.2217
30706SOL     OW99232   1.246   8.877  12.374  0.5568 -0.3377 -0.0395
30706SOL    HW199233   1.198   8.795  12.387 -0.2256  0.0147 -0.6227
30706SOL    HW299234   1.193   8.943  12.418  0.4874  0.0612 -0.7054
30707SOL     OW99235  12.287   8.064  12.020  0.3289 -0.3217  0.3078
30707SOL    HW199236  12.212   8.012  11.993 -0.7988  0.7576  1.2347
30707SOL    HW299237  12.256   8.113  12.096  1.8184  0.5576  0.3900
30708SOL     OW99238   1.343  10.124   4.292  0.2655 -0.0381 -0.0939
30708SOL    HW199239   1.422  10.072   4.278 -0.0874 -0.1874 -1.6227
30708SOL    HW299240   1.376  10.214   4.306  0.7570 -0.3188  0.6766
30709SOL     OW99241   3.675   8.357  12.462 -0.0327 -0.3390 -0.2701
30709SOL    HW199242   3.766   8.365  12.435  0.6374  0.7302  2.0663
30709SOL    HW299243   3.649   8.269  12.432  2.5036 -1.6417  1.0312
30710SOL     OW99244   4.156  10.976   1.514  0.1045 -0.6810  0.0126
30710SOL    HW199245   4.139  10.967   1.420 -0.2192 -1.3079  0.1272
30710SOL    HW299246   4.070  10.988   1.553  0.3309  0.7809  0.1171
30711SOL     OW99247  12.837   0.307  12.637 -0.2684  0.0021 -0.4371
30711SOL    HW199248  12.784   0.385  12.619 -0.4735 -0.3786 -1.5798
30711SOL    HW299249  12.906   0.309  12.570  1.0345  0.3460  0.8603
30712SOL     OW99250   8.425  12.159   0.933  0.1874 -0.1916 -0.1271
30712SOL    HW199251   8.329  12.159   0.939  0.1975 -1.8562  0.9060
30712SOL    HW299252   8.449  12.067   0.946  1.9626  0.3031  0.3556
30713SOL     OW99253   7.793   4.104   2.782 -0.3727  0.3449 -0.0394
30713SOL    HW199254   7.743   4.036   2.827 -0.2439  1.1885  1.4395
30713SOL    HW299255   7.741   4.183   2.793 -0.7315  0.4396 -2.1181
30714SOL     OW99256   9.915   0.613   2.887  0.0482 -0.4489 -0.2130
30714SOL    HW199257   9.875   0.533   2.922 -1.0316 -0.6889 -1.8815
30714SOL    HW299258   9.842   0.673   2.878  0.5154  0.0237 -0.8798
30715SOL     OW99259   7.102   4.708   6.208 -0.2988 -0.2094 -0.0203
30715SOL    HW199260   7.057   4.624   6.214 -0.6127 -0.1322 -1.0719
30715SOL    HW299261   7.041   4.764   6.161  0.4776  0.1972 -0.5598
30716SOL     OW99262   8.709  11.056  12.408  0.4210 -0.3922 -0.2962
30716SOL    HW199263   8.767  11.127  12.383 -0.1880  1.3858  2.7872
30716SOL    HW299264   8.649  11.095  12.472 -3.2939 -2.4718 -2.1536
30717SOL     OW99265   8.543  11.289   2.575 -0.1636 -0.1098 -0.2853
30717SOL    HW199266   8.585  11.326   2.652 -0.2569  0.8879 -0.7050
30717SOL    HW299267   8.455  11.263   2.605 -0.1000  0.0148  0.0059
30718SOL     OW99268  10.643   2.240   6.353  0.7824  0.2132 -0.0538
30718SOL    HW199269  10.649   2.226   6.258 -1.1312 -0.9416 -0.0588
30718SOL    HW299270  10.688   2.165   6.391 -1.5984 -1.3449 -0.1047
30719SOL     OW99271   7.075   6.217   9.881  0.2051  0.3044 -0.0788
30719SOL    HW199272   7.081   6.278   9.955  0.8506 -0.0083  0.1327
30719SOL    HW299273   6.994   6.169   9.897  0.2083  0.4134  0.2915
30720SOL     OW99274   7.159   5.098   0.115 -0.3988  0.1298  0.0265
30720SOL    HW199275   7.227   5.037   0.087  0.2085  1.0291 -0.5133
30720SOL    HW299276   7.203   5.183   0.118 -1.5515  0.7819 -0.6200
30721SOL     OW99277   3.981   3.782   5.990  0.3241 -0.2459 -0.2734
30721SOL    HW199278   4.046   3.848   5.966  0.6483  0.0952  1.4503
30721SOL    HW299279   3.999   3.708   5.933  0.2880  0.9400 -1.8872
30722SOL     OW99280   4.227   5.603   2.912  0.1947  0.5382 -0.0997
30722SOL    HW199281   4.215   5.515   2.877  0.6092  0.1637  0.6895
30722SOL    HW299282   4.317   5.604   2.944  0.0806  1.1359  0.2109
30723SOL     OW99283  12.348   6.084  11.362  0.2010 -0.1392 -0.0812
30723SOL    HW199284  12.273   6.036  11.398 -1.7461  1.8914 -1.1456
30723SOL    HW299285  12.367   6.041  11.278 -0.5924  0.0414 -0.3629
30724SOL     OW99286   3.299   6.392   5.137  0.3843 -0.1458 -0.1196
30724SOL    HW199287   3.334   6.470   5.092 -0.5384  0.7874  0.7210
30724SOL    HW299288   3.373   6.332   5.142  1.1250  0.6840 -0.7827
30725SOL     OW99289   0.449   8.367   9.187  0.4744 -0.5726  0.2410
30725SOL    HW199290   0.529   8.336   9.231 -1.6808 -1.3085  4.0810
30725SOL    HW299291   0.395   8.290   9.178  0.3817 -0.2543 -3.1830
30726SOL     OW99292   8.956   0.427  12.376  0.2278  0.2270  0.1356
30726SOL    HW199293   9.036   0.450  12.329  0.3674 -1.4854 -0.5260
30726SOL    HW299294   8.926   0.346  12.335 -1.4480  0.4346  0.8631
30727SOL     OW99295   5.284   2.317   8.693 -0.4748 -0.1581  0.1165
30727SOL    HW199296   5.189   2.313   8.688 -0.6231 -0.4245  2.1399
30727SOL    HW299297   5.303   2.315   8.787  1.4569  1.8420 -0.1453
30728SOL     OW99298   7.061   0.431   6.232  0.0648 -0.3079 -0.8102
30728SOL    HW199299   7.142   0.381   6.224  0.8801  0.9003 -0.3896
30728SOL    HW299300   7.001   0.390   6.171  0.7097 -1.7697 -0.4966
30729SOL     OW99301  12.914   0.858   0.246 -0.8456 -0.2262 -0.5930
30729SOL    HW199302  12.851   0.808   0.298 -1.1136  0.9020  0.1933
30729SOL    HW299303  12.960   0.912   0.309  1.1946 -1.2710 -1.1005
30730SOL     OW99304   7.019   2.438   2.996  0.2746 -0.0093 -0.0257
30730SOL    HW199305   7.089   2.502   2.988  1.0136 -0.6065  1.3379
30730SOL    HW299306   6.941   2.490   3.017  0.3666  0.6191 -1.1519
30731SOL     OW99307  11.176   4.117   4.408 -0.5843  0.3370 -0.2922
30731SOL    HW199308  11.263   4.088   4.380 -1.0243 -0.8920 -0.4823
30731SOL    HW299309  11.163   4.201   4.365  0.5547  0.5901 -0.1653
30732SOL     OW99310   5.733   2.305  12.495  0.3809 -0.3281 -0.0969
30732SOL    HW199311   5.734   2.315  12.590  1.9935 -0.3067 -0.0901
30732SOL    HW299312   5.720   2.394  12.462  0.2101 -0.2810  0.0921
30733SOL     OW99313  11.449   4.746   6.018 -0.1536 -0.4870 -0.2227
30733SOL    HW199314  11.413   4.658   6.024  0.1307 -0.5163  1.3854
30733SOL    HW299315  11.531   4.735   5.970 -0.5591 -0.9324 -0.8426
30734SOL     OW99316   7.451   8.378   3.688  0.3523 -0.1762 -0.0869
30734SOL    HW199317   7.461   8.390   3.782 -0.3101  1.3702 -0.1841
30734SOL    HW299318   7.527   8.422   3.650 -0.0166  0.2787 -0.3097
30735SOL     OW99319  12.458   6.423  12.259 -0.8735 -0.4105 -0.0052
30735SOL    HW199320  12.485   6.430  12.351  0.0577 -1.0897 -0.2161
30735SOL    HW299321  12.540   6.432  12.209 -1.1744 -1.4117 -0.7114
30736SOL     OW99322  11.020   0.795   8.410 -0.0057  0.6634 -0.3599
30736SOL    HW199323  11.115   0.806   8.418  0.1219  1.5099 -2.3493
30736SOL    HW299324  11.011   0.717   8.355 -0.3437  1.7011 -1.8578
30737SOL     OW99325  12.315   9.876   7.253 -0.1276 -0.3732  0.0468
30737SOL    HW199326  12.237   9.884   7.308  0.7310  0.5901  1.1836
30737SOL    HW299327  12.287   9.906   7.167 -0.3191  3.0654  1.1456
30738SOL     OW99328   7.452  12.467   0.025  0.1002  0.2532  0.7155
30738SOL    HW199329   7.519  12.419  -0.023 -0.1458  0.5864  0.0318
30738SOL    HW299330   7.435  12.545  -0.027 -1.6805 -0.4005  0.2155
30739SOL     OW99331   2.482   4.882   6.962  0.1311 -0.1341  0.2499
30739SOL    HW199332   2.473   4.974   6.989 -1.3738 -0.4987  1.0887
30739SOL    HW299333   2.430   4.833   7.026 -0.7307 -1.3799 -1.3432
30740SOL     OW99334   7.090   3.726   2.111  0.2062  0.3909 -0.0654
30740SOL    HW199335   7.134   3.809   2.095  0.1036  0.3238 -0.7320
30740SOL    HW299336   7.029   3.716   2.037  0.7220 -0.6165 -0.3829
30741SOL     OW99337  11.662  10.397   6.680  0.6651  0.8985 -0.1460
30741SOL    HW199338  11.665  10.331   6.749  1.3055  1.6739  0.5920
30741SOL    HW299339  11.579  10.443   6.694 -0.1517 -0.2251 -1.1379
30742SOL     OW99340   8.278   5.663  10.899  0.5293  0.4921 -0.3164
30742SOL    HW199341   8.286   5.755  10.874 -0.8999  0.6036 -0.4237
30742SOL    HW299342   8.204   5.661  10.960  0.9161 -0.5031  0.1346
30743SOL     OW99343   5.896   5.626   6.937 -0.2486  0.2315  0.4715
30743SOL    HW199344   5.957   5.647   7.008  0.1093  1.3215 -0.1228
30743SOL    HW299345   5.871   5.712   6.902 -0.6356 -0.2793 -0.5294
30744SOL     OW99346   5.936   7.148  12.506 -0.1220 -0.1007  0.0192
30744SOL    HW199347   5.956   7.230  12.460  0.3058 -0.9319 -1.3337
30744SOL    HW299348   6.014   7.094  12.493 -0.6537 -0.9678  0.3473
30745SOL     OW99349   4.097   2.083   9.471  0.1714  0.7361 -0.4369
30745SOL    HW199350   4.013   2.114   9.435  0.1585  0.0481 -1.0393
30745SOL    HW299351   4.122   2.149   9.535 -2.0280 -0.1922  1.5572
30746SOL     OW99352   9.776   4.105  12.745  0.1535 -0.5962 -0.2643
30746SOL    HW199353   9.811   4.076  12.829  1.8301  1.4579 -0.1555
30746SOL    HW299354   9.853   4.138  12.698 -1.1690  1.0703 -1.3699
30747SOL     OW99355   5.920   0.951   2.355  0.2645 -0.4245  1.0017
30747SOL    HW199356   5.826   0.965   2.345  0.7862  1.6028 -2.6500
30747SOL    HW299357   5.944   1.003   2.432 -1.5677 -1.3464  2.2741
30748SOL     OW99358   5.018  12.904  10.987  0.5083  0.2095  0.4290
30748SOL    HW199359   4.947  12.906  10.922 -0.0908 -1.4225  0.9873
30748SOL    HW299360   5.001  12.981  11.041 -0.1647  0.4793 -0.1328
30749SOL     OW99361   8.872   2.742  11.098 -0.2746 -0.6820 -0.0439
30749SOL    HW199362   8.794   2.689  11.113  0.5271 -1.7531  0.4988
30749SOL    HW299363   8.898   2.722  11.009 -0.9345  0.1340 -0.4360
30750SOL     OW99364   5.007  10.116  10.959 -0.5034  0.0710 -0.4004
30750SOL    HW199365   4.969  10.102  11.046 -0.8031  5.0977  0.5687
30750SOL    HW299366   4.979  10.204  10.935  4.2066  1.1743 -3.0488
30751SOL     OW99367   0.610  10.835   7.459 -0.1527  0.2089 -0.0100
30751SOL    HW199368   0.691  10.872   7.424 -1.3136  1.0512 -2.0199
30751SOL    HW299369   0.588  10.891   7.534  0.6257  0.5637 -0.0365
30752SOL     OW99370   5.343   2.211  11.390 -0.1919 -0.6248 -0.9073
30752SOL    HW199371   5.336   2.125  11.432  0.9253  0.0578  0.7620
30752SOL    HW299372   5.435   2.220  11.367  0.2703  1.1744  1.3739
30753SOL     OW99373  12.419  10.359   0.966 -0.3870  0.1323  0.0256
30753SOL    HW199374  12.498  10.406   0.992 -0.4389  0.8135 -0.9859
30753SOL    HW299375  12.347  10.421   0.980 -0.3104  0.9885 -2.6872
30754SOL     OW99376  10.953   7.495  11.880 -0.3394 -0.3305  0.3313
30754SOL    HW199377  10.878   7.467  11.827 -0.9563 -1.6136  1.8189
30754SOL    HW299378  11.015   7.530  11.816 -1.7206 -0.2916 -1.0555
30755SOL     OW99379   6.085   3.266   0.715 -0.1504  0.4752  0.4597
30755SOL    HW199380   6.137   3.216   0.652  0.5407 -1.4112  2.4056
30755SOL    HW299381   6.137   3.345   0.731  0.7239 -0.0355  0.2297
30756SOL     OW99382   6.755   0.602   7.086  0.1665 -0.1509  0.5777
30756SOL    HW199383   6.662   0.606   7.107  0.2988 -0.2142  1.2211
30756SOL    HW299384   6.765   0.654   7.006 -0.1315  1.4377  1.5295
30757SOL     OW99385  10.806   6.306  12.645  0.2866  0.1059 -0.4905
30757SOL    HW199386  10.837   6.393  12.669  0.7150 -0.0718 -0.3986
30757SOL    HW299387  10.722   6.298  12.691 -0.0021  0.6653 -0.9131
30758SOL     OW99388   5.336   0.824   5.062 -0.1450 -0.2837  0.0328
30758SOL    HW199389   5.298   0.907   5.091 -0.1096 -0.1642 -0.2598
30758SOL    HW299390   5.260   0.767   5.046 -0.1482 -0.5102  0.8278
30759SOL     OW99391   2.842  11.285   1.761 -0.5858 -0.0812  0.1154
30759SOL    HW199392   2.893  11.205   1.747 -0.3736  0.1376 -0.3856
30759SOL    HW299393   2.752  11.254   1.775 -0.7309 -0.3602 -1.2772
30760SOL     OW99394   7.267   5.195   8.119  0.2131 -0.0220  0.0472
30760SOL    HW199395   7.209   5.211   8.044 -0.7697  0.0400  0.7994
30760SOL    HW299396   7.345   5.156   8.081  0.0053  0.6150 -1.0910
30761SOL     OW99397  12.026   4.703   1.653 -0.6033 -0.6778 -0.1972
30761SOL    HW199398  11.974   4.704   1.573 -0.2158 -0.0935 -0.4496
30761SOL    HW299399  12.111   4.741   1.627  0.4640 -2.8632 -0.1464
30762SOL     OW99400   3.653   6.766  10.614 -0.1369 -0.0510 -0.2651
30762SOL    HW199401   3.610   6.841  10.574 -3.2915 -1.6264 -0.1489
30762SOL    HW299402   3.664   6.790  10.706 -1.3631  0.2057 -0.1743
30763SOL     OW99403   7.320  12.085   5.732 -0.1118  0.3314  0.2253
30763SOL    HW199404   7.386  12.117   5.670 -0.5506  1.3540  0.2612
30763SOL    HW299405   7.258  12.037   5.678  1.2394 -1.6505  0.3384
30764SOL     OW99406   4.508   9.508  10.236  0.4365 -0.0763 -0.0521
30764SOL    HW199407   4.524   9.601  10.218 -1.0149  0.0673 -0.7764
30764SOL    HW299408   4.465   9.476  10.157  0.7950 -1.3449  0.2438
30765SOL     OW99409   8.760   2.852   1.284 -0.0463  0.1397  0.3497
30765SOL    HW199410   8.756   2.826   1.376  0.2554  0.0679  0.3447
30765SOL    HW299411   8.708   2.786   1.237 -0.0567  0.0782  0.4488
30766SOL     OW99412  11.921   4.358   6.462 -0.0162  0.1703 -0.2823
30766SOL    HW199413  11.846   4.304   6.437 -0.5232  0.3165  0.8503
30766SOL    HW299414  11.889   4.448   6.458  0.9290  0.4659 -2.5089
30767SOL     OW99415   5.015   6.738   5.503 -0.3561 -0.2681 -0.0243
30767SOL    HW199416   5.068   6.660   5.520  0.4544  0.2735 -0.0498
30767SOL    HW299417   5.069   6.811   5.531 -0.2514  0.4447 -1.8996
30768SOL     OW99418   2.906   1.694   1.755 -0.0498  0.2621 -0.6090
30768SOL    HW199419   2.954   1.730   1.830 -2.0259 -2.4908  2.2420
30768SOL    HW299420   2.825   1.745   1.752 -0.0305  0.2830 -0.7747
30769SOL     OW99421   7.024   2.956   2.470 -0.1634 -0.6307  0.8573
30769SOL    HW199422   6.935   2.969   2.503  0.3400  1.5996  1.4915
30769SOL    HW299423   7.079   2.956   2.548  0.5503 -0.4240  0.3570
30770SOL     OW99424   9.596   6.231   5.919 -0.5506 -0.1443  0.1220
30770SOL    HW199425   9.588   6.138   5.897  0.2168  0.0973 -1.3514
30770SOL    HW299426   9.690   6.245   5.930 -0.5613  0.6501 -0.7025
30771SOL     OW99427   3.454   4.697   7.411 -0.0458  0.3059 -0.4251
30771SOL    HW199428   3.544   4.728   7.419 -0.7045  2.2554 -0.1180
30771SOL    HW299429   3.416   4.708   7.498 -0.6531 -0.3130 -0.5992
30772SOL     OW99430   9.206   0.055   3.182  0.1930 -0.1580 -0.4507
30772SOL    HW199431   9.112   0.038   3.174  0.2196 -0.0982 -0.9436
30772SOL    HW299432   9.228   0.105   3.103  0.2169  1.7394  0.6818
30773SOL     OW99433   6.288  11.269   5.186 -0.0489 -0.0690  0.2190
30773SOL    HW199434   6.205  11.317   5.183  0.3100  0.6983  1.7675
30773SOL    HW299435   6.264  11.179   5.207 -0.5606 -0.1072 -0.5008
30774SOL     OW99436   6.138   7.920   0.465  0.1582  0.1861  0.2901
30774SOL    HW199437   6.184   7.849   0.508  0.0589  0.4985  0.9292
30774SOL    HW299438   6.206   7.987   0.450  0.1073  0.2554  0.3643
30775SOL     OW99439   6.782   8.599  10.501  0.1344 -0.1650 -0.6348
30775SOL    HW199440   6.747   8.611  10.413 -1.1292  0.0045 -0.1320
30775SOL    HW299441   6.777   8.686  10.541  0.2297 -0.3342 -0.2444
30776SOL     OW99442  11.113   0.504   2.795  0.1806  0.5149 -0.0155
30776SOL    HW199443  11.052   0.440   2.832  0.5342 -0.5112 -1.1272
30776SOL    HW299444  11.163   0.537   2.870 -1.0264  0.6046  0.7648
30777SOL     OW99445  12.901   7.058  10.774 -0.2442  0.5547  0.6599
30777SOL    HW199446  12.969   6.993  10.792  1.3171  0.8174 -3.1230
30777SOL    HW299447  12.905   7.119  10.848  2.8486 -0.1244  1.2037
30778SOL     OW99448   5.116   5.743   9.220  0.3762  0.1360  0.3059
30778SOL    HW199449   5.026   5.710   9.217  0.8632 -1.3098  0.5164
30778SOL    HW299450   5.170   5.664   9.217  1.6276  0.8995  1.4819
30779SOL     OW99451  11.869   7.044   1.813  0.1104  0.9232 -0.1318
30779SOL    HW199452  11.863   6.950   1.826 -0.4890  0.6585 -2.1124
30779SOL    HW299453  11.953   7.068   1.852  0.4558 -0.4741  0.0345
30780SOL     OW99454   7.311   5.270   7.515  1.2953  0.0243 -0.0620
30780SOL    HW199455   7.335   5.342   7.573  2.7649  0.3932 -1.0709
30780SOL    HW299456   7.373   5.201   7.536  0.5824 -0.5599  0.1482
30781SOL     OW99457   2.151  11.547   9.577 -0.6401 -0.2302  0.1883
30781SOL    HW199458   2.120  11.579   9.492 -1.7378 -1.1613  0.2120
30781SOL    HW299459   2.077  11.498   9.613  0.4690 -1.5246  0.8058
30782SOL     OW99460   4.133   6.087   9.932 -0.1790  0.0842  0.5514
30782SOL    HW199461   4.144   6.182   9.942 -0.8630  0.4210 -1.4279
30782SOL    HW299462   4.040   6.072   9.950 -0.2175 -0.0939  0.2223
30783SOL     OW99463   6.031   4.067   7.266  0.6650 -0.4596  0.5097
30783SOL    HW199464   5.990   3.987   7.231  0.5020 -0.2029  0.1008
30783SOL    HW299465   5.965   4.135   7.253  0.4055 -0.4442  1.7918
30784SOL     OW99466   5.911   1.085  11.133 -0.2350  0.0388  0.4758
30784SOL    HW199467   5.935   1.007  11.084 -1.1590 -0.8447  1.3875
30784SOL    HW299468   5.951   1.157  11.084 -1.8196 -0.6793 -2.1007
30785SOL     OW99469  11.383   6.596   2.176  0.3301 -0.4221 -0.3116
30785SOL    HW199470  11.395   6.539   2.252 -1.8480 -0.2709  0.2244
30785SOL    HW299471  11.451   6.663   2.185  0.9067 -1.1254  0.7973
30786SOL     OW99472   5.258  10.569  12.116 -0.5984 -0.6005  0.2302
30786SOL    HW199473   5.171  10.583  12.154 -0.4608 -0.4597  0.4995
30786SOL    HW299474   5.280  10.652  12.075 -0.9742 -0.9168 -0.6412
30787SOL     OW99475   6.524   8.129   2.151 -0.3076 -0.1465  0.5264
30787SOL    HW199476   6.522   8.143   2.245  2.7207 -0.5923  0.7634
30787SOL    HW299477   6.467   8.197   2.115 -1.1984  0.2920  2.6383
30788SOL     OW99478   1.644   1.267   6.154  1.0495 -0.2576 -0.1087
30788SOL    HW199479   1.593   1.188   6.136 -1.5561  1.6847 -2.1365
30788SOL    HW299480   1.629   1.285   6.247  0.6146 -1.4602  0.0680
30789SOL     OW99481   9.217   8.596   7.181  0.4987  0.7497 -0.6094
30789SOL    HW199482   9.237   8.678   7.135 -1.0180  1.0856 -0.6967
30789SOL    HW299483   9.161   8.622   7.253  1.3313 -0.0266  0.3481
30790SOL     OW99484  11.720  11.611   6.293  0.1515  0.0089 -0.0368
30790SOL    HW199485  11.745  11.634   6.382 -2.5193  1.1411  0.5222
30790SOL    HW299486  11.704  11.516   6.297  1.9564 -0.3249  0.1197
30791SOL     OW99487   3.698   8.163   1.732 -0.1453 -0.2712  0.4987
30791SOL    HW199488   3.609   8.176   1.700  0.2668  0.3069 -0.4742
30791SOL    HW299489   3.722   8.076   1.699  0.1806  0.2097 -0.5965
30792SOL     OW99490   4.836  12.654  11.684 -0.2694  0.5253  0.1551
30792SOL    HW199491   4.846  12.745  11.658 -0.3028  0.2835 -0.7274
30792SOL    HW299492   4.745  12.645  11.711  0.3406  1.3776  2.8175
30793SOL     OW99493   0.065   9.244   2.034 -0.0250 -0.1634 -0.1415
30793SOL    HW199494   0.121   9.211   2.104 -0.9998 -0.4497  0.5239
30793SOL    HW299495  -0.008   9.285   2.080 -1.6498 -2.0042 -0.9496
30794SOL     OW99496   9.384   6.741   0.776  0.6356 -0.2428  0.8031
30794SOL    HW199497   9.359   6.829   0.804  1.8878 -0.0512  1.3960
30794SOL    HW299498   9.337   6.682   0.835 -1.1949 -0.0432 -0.3937
30795SOL     OW99499  10.369   5.349  10.280 -0.5202  0.8993 -0.1878
30795SOL    HW199500  10.305   5.287  10.314 -0.0837 -0.3266 -1.4873
30795SOL    HW299501  10.408   5.389  10.358 -2.2325  1.0493  0.6292
30796SOL     OW99502   1.120   8.425   9.108 -0.0369  0.8169  0.0209
30796SOL    HW199503   1.197   8.393   9.060 -1.6913 -1.0430 -1.5313
30796SOL    HW299504   1.157   8.482   9.175  2.7771 -0.6097 -0.1512
30797SOL     OW99505  10.080  12.765   9.685  0.0491 -0.2554 -0.2283
30797SOL    HW199506  10.158  12.788   9.735  0.7327 -1.3491 -0.7733
30797SOL    HW299507  10.023  12.722   9.748  0.2051 -0.1513 -0.0160
30798SOL     OW99508   9.749   4.053   6.567 -0.0208  0.4604  0.3060
30798SOL    HW199509   9.776   3.963   6.580  1.8796  0.9918  0.3862
30798SOL    HW299510   9.662   4.058   6.607  0.0485 -1.1955  0.7372
30799SOL     OW99511   7.738   2.457   2.312  0.1404 -0.2826 -0.2859
30799SOL    HW199512   7.806   2.507   2.267 -1.3908  1.1071 -1.1962
30799SOL    HW299513   7.663   2.460   2.252 -0.6726 -1.9014  0.5983
30800SOL     OW99514   3.015  11.107   4.604  0.2896  0.0203 -0.5360
30800SOL    HW199515   2.969  11.140   4.528  0.5879 -1.1587 -1.2529
30800SOL    HW299516   3.041  11.185   4.653  0.7298  0.8211 -2.0104
30801SOL     OW99517   9.867   3.894   2.000 -0.6160  0.4785  0.2618
30801SOL    HW199518   9.878   3.929   1.911  0.3994  0.0058  0.1875
30801SOL    HW299519   9.948   3.918   2.045 -0.2567 -0.9966  0.4638
30802SOL     OW99520   0.661   5.882  10.581  0.1925 -0.5188 -0.2746
30802SOL    HW199521   0.624   5.795  10.597 -0.0888 -0.6086 -1.3488
30802SOL    HW299522   0.634   5.934  10.657  1.9596 -1.8199  1.3744
30803SOL     OW99523   8.890   7.017  10.428  0.4592 -0.2047  0.3347
30803SOL    HW199524   8.943   7.027  10.507  1.8227  0.3850 -0.6009
30803SOL    HW299525   8.892   7.104  10.386 -4.2383  0.9793  1.9292
30804SOL     OW99526  12.682   9.424   1.380 -0.0508 -0.0778 -0.5414
30804SOL    HW199527  12.724   9.339   1.368 -0.4721 -0.4173  0.2775
30804SOL    HW299528  12.685   9.466   1.294 -0.9204 -1.4081 -1.2416
30805SOL     OW99529   6.884   3.002   1.918 -0.7982 -0.1679  0.5189
30805SOL    HW199530   6.906   2.999   2.011 -2.5434 -0.4347  0.9679
30805SOL    HW299531   6.814   3.068   1.912  0.4160  1.0718 -0.8887
30806SOL     OW99532   7.851  11.190   8.121  0.0160 -0.1956 -0.4355
30806SOL    HW199533   7.855  11.173   8.027  0.6989 -1.2866 -0.2231
30806SOL    HW299534   7.878  11.108   8.162  0.1779  0.4029  0.7060
30807SOL     OW99535  11.717   4.980   3.564 -0.4215  0.2761  0.3864
30807SOL    HW199536  11.718   5.072   3.537  1.2495  0.3449  0.5731
30807SOL    HW299537  11.654   4.977   3.636 -2.7075  0.6689 -1.4671
30808SOL     OW99538   2.204   7.397  11.719  0.1750  0.0849 -0.0971
30808SOL    HW199539   2.194   7.322  11.660  0.9089 -0.8004  0.8734
30808SOL    HW299540   2.174   7.471  11.667 -0.9584 -0.9227 -0.9496
30809SOL     OW99541   2.394   1.497  11.138  0.3224 -0.5124  0.1547
30809SOL    HW199542   2.449   1.421  11.120  0.5407 -0.0404 -1.3345
30809SOL    HW299543   2.430   1.566  11.082 -0.6771  0.3151  0.5055
30810SOL     OW99544   0.130  12.903   0.672  0.1149 -0.1197  0.5866
30810SOL    HW199545   0.047  12.933   0.710 -0.1459 -1.4183  1.0970
30810SOL    HW299546   0.124  12.925   0.579 -0.6976  0.0196  0.6658
30811SOL     OW99547  11.008   3.071   5.873  0.3331  1.2628 -0.0652
30811SOL    HW199548  11.061   3.029   5.941  0.0143  0.1405 -0.4940
30811SOL    HW299549  11.068   3.130   5.829  1.3026 -0.0996 -0.6369
30812SOL     OW99550   9.964   5.347   1.220 -0.8891 -0.4812  0.4508
30812SOL    HW199551   9.991   5.338   1.129  0.4068  0.1282  0.7536
30812SOL    HW299552  10.041   5.319   1.271 -1.1724  0.3223  1.3539
30813SOL     OW99553   3.701  10.555   2.015  0.2567  0.1528 -0.3802
30813SOL    HW199554   3.709  10.646   2.044 -2.6198  1.6729 -3.6208
30813SOL    HW299555   3.767  10.546   1.946  1.8206 -0.9268  1.1857
30814SOL     OW99556   4.345   5.628   9.788 -0.3318 -0.0363  0.5000
30814SOL    HW199557   4.289   5.705   9.775  2.4693  1.9152 -0.9559
30814SOL    HW299558   4.376   5.636   9.878 -0.7043  0.0329  0.6264
30815SOL     OW99559   4.870   2.702   2.169  0.9619 -0.4353 -0.3660
30815SOL    HW199560   4.840   2.776   2.221 -1.2963  0.8622 -3.2205
30815SOL    HW299561   4.800   2.637   2.179  1.4651 -0.9704 -0.2747
30816SOL     OW99562   9.102   2.106   1.599  0.1198 -0.7127  0.6955
30816SOL    HW199563   9.107   2.084   1.506 -0.3482  0.4486  0.3685
30816SOL    HW299564   9.160   2.044   1.642  2.5162  0.4262 -0.6932
30817SOL     OW99565   0.373  10.050   5.798 -0.1118  0.3548  0.2489
30817SOL    HW199566   0.348   9.966   5.761  0.5427  0.8019 -1.3061
30817SOL    HW299567   0.322  10.057   5.878 -0.3585 -1.4009  0.2844
30818SOL     OW99568   0.302   5.174   4.771 -0.0173 -0.5162  0.2901
30818SOL    HW199569   0.295   5.252   4.716  0.2998 -1.1251 -0.6326
30818SOL    HW299570   0.239   5.189   4.842 -0.7544  0.0845 -0.4736
30819SOL     OW99571  10.615   3.788   1.556  0.0163 -0.0296 -0.1103
30819SOL    HW199572  10.647   3.699   1.543  1.1436  0.4728 -0.9791
30819SOL    HW299573  10.588   3.817   1.469 -0.4861  0.4414  0.1921
30820SOL     OW99574   4.656   3.821   6.244 -0.5070  0.0750 -0.1106
30820SOL    HW199575   4.663   3.844   6.337  1.1204  0.5173 -0.3014
30820SOL    HW299576   4.655   3.725   6.243  0.2131  0.0484  0.3539
30821SOL     OW99577   8.195   1.944  10.055 -0.2794 -0.1752 -0.3158
30821SOL    HW199578   8.207   1.854  10.086 -0.6782  0.3912  1.6010
30821SOL    HW299579   8.239   1.998  10.120 -1.2490  1.1065 -0.6841
30822SOL     OW99580   0.356  11.130   5.442 -0.0727 -0.2391 -0.6880
30822SOL    HW199581   0.347  11.063   5.374 -1.6234 -1.6353  0.8179
30822SOL    HW299582   0.278  11.120   5.497 -0.4508  2.9169 -0.4590
30823SOL     OW99583   5.119   5.402  12.786  0.0920 -0.0757 -0.3497
30823SOL    HW199584   5.182   5.363  12.846  1.2998  1.5314 -0.4864
30823SOL    HW299585   5.145   5.495  12.782 -1.2674  0.2820 -1.7001
30824SOL     OW99586   8.986   3.484  10.627 -0.9913  0.2416 -0.7284
30824SOL    HW199587   9.078   3.494  10.649 -0.2984 -1.5505 -2.4836
30824SOL    HW299588   8.939   3.532  10.695  1.0592 -1.5068  2.1457
30825SOL     OW99589  12.105   9.793   4.542 -0.3575 -0.3147  0.1385
30825SOL    HW199590  12.104   9.881   4.581 -0.6416 -0.7141  1.0408
30825SOL    HW299591  12.013   9.772   4.528 -0.3489 -0.8799  0.8761
30826SOL     OW99592   1.065  11.938   1.982  0.4892  0.3123  0.1012
30826SOL    HW199593   0.995  11.876   1.967  1.2658 -1.0132  1.6401
30826SOL    HW299594   1.065  11.994   1.904 -2.7988  0.9509  0.4219
30827SOL     OW99595   7.466   2.750   2.260 -0.2344 -0.1737 -0.0251
30827SOL    HW199596   7.459   2.668   2.211 -1.8650  0.2769 -0.6062
30827SOL    HW299597   7.537   2.798   2.217  1.3736 -1.6000  0.8817
30828SOL     OW99598   2.945  11.295   7.220  0.2545  0.3955 -0.2134
30828SOL    HW199599   2.923  11.250   7.301 -0.5249 -0.5937 -0.9389
30828SOL    HW299600   3.001  11.234   7.173  0.6932  0.9528 -0.4291
30829SOL     OW99601   1.041   5.949   2.389 -0.2668  0.3293 -0.0614
30829SOL    HW199602   1.120   6.003   2.384 -0.1197  0.0832 -0.3612
30829SOL    HW299603   1.017   5.951   2.482 -0.9532  1.9063 -0.2268
30830SOL     OW99604   2.404   1.872   8.858 -0.0681 -0.0231  0.0572
30830SOL    HW199605   2.398   1.868   8.953  2.1075 -1.4845  0.2113
30830SOL    HW299606   2.314   1.886   8.829 -0.7795  0.4962  2.3092
30831SOL     OW99607   1.232   2.943  10.864  0.3928 -0.6716  0.0479
30831SOL    HW199608   1.143   2.947  10.829  0.4374  0.3365  0.0361
30831SOL    HW299609   1.221   2.926  10.957  0.1401  0.6234  0.2650
30832SOL     OW99610  10.346  12.522  11.997  0.0614 -0.4642  0.2911
30832SOL    HW199611  10.338  12.617  12.003 -0.1772 -0.3774 -1.1093
30832SOL    HW299612  10.439  12.507  11.982  0.2707 -0.5368  1.5398
30833SOL     OW99613   7.696   0.546   9.855  0.0496 -0.0565  0.2670
30833SOL    HW199614   7.750   0.607   9.806  0.2313  0.4081  1.0272
30833SOL    HW299615   7.614   0.593   9.870  0.5275  0.3657  1.6474
30834SOL     OW99616  10.084  10.720   1.280  0.0507 -0.2434  0.3753
30834SOL    HW199617  10.137  10.644   1.256  1.8242  1.0546 -0.0577
30834SOL    HW299618  10.132  10.761   1.352  0.4643  1.7347 -0.9196
30835SOL     OW99619  11.466   8.931   8.241  0.0268 -0.0661  0.3711
30835SOL    HW199620  11.510   8.847   8.255  0.4073  0.2696  1.2620
30835SOL    HW299621  11.426   8.923   8.155  0.8000 -0.8367  0.0689
30836SOL     OW99622   1.160   5.571   1.574 -0.2179  0.0032  0.1089
30836SOL    HW199623   1.212   5.532   1.504 -0.3015  0.1138 -0.0143
30836SOL    HW299624   1.097   5.627   1.529 -1.2181 -1.0196  0.1567
30837SOL     OW99625   9.920   8.274   6.562  0.2860 -0.4240  0.0649
30837SOL    HW199626   9.914   8.204   6.497  1.9554 -0.4892 -0.0602
30837SOL    HW299627   9.842   8.327   6.547 -0.9499 -2.1525  0.0668
30838SOL     OW99628   1.168  10.507   3.768  0.0514 -0.4933 -0.5508
30838SOL    HW199629   1.221  10.521   3.689 -0.0253  0.6974 -0.4025
30838SOL    HW299630   1.119  10.588   3.779  0.2043 -0.5661  0.8323
30839SOL     OW99631   6.036   3.138  10.015  0.2512 -0.1711  0.4024
30839SOL    HW199632   6.102   3.073   9.991  1.1374  0.4734  1.0155
30839SOL    HW299633   6.045   3.206   9.948 -1.8782 -1.4200 -1.2884
30840SOL     OW99634   7.651   0.649   2.375  0.4805 -0.1962 -0.0128
30840SOL    HW199635   7.653   0.586   2.303  1.0809 -1.3953  1.0051
30840SOL    HW299636   7.559   0.657   2.398  0.1683  0.9433 -1.5075
30841SOL     OW99637  11.130  10.284   8.927 -0.7745 -0.2376 -0.3605
30841SOL    HW199638  11.090  10.370   8.913  2.1359  1.0833 -1.4555
30841SOL    HW299639  11.119  10.239   8.843 -0.5358 -0.1314 -0.4486
30842SOL     OW99640  11.209  11.115   4.173 -0.5075  0.2228  0.3856
30842SOL    HW199641  11.199  11.146   4.263  0.2381  0.1004  0.5189
30842SOL    HW299642  11.131  11.062   4.156 -0.6914  0.3209  0.9290
30843SOL     OW99643  10.728  12.452   1.355  0.3476  0.2115  0.5812
30843SOL    HW199644  10.681  12.419   1.432 -1.3484  0.7043 -0.1911
30843SOL    HW299645  10.675  12.425   1.281  1.1620  1.0355 -0.3312
30844SOL     OW99646   1.868   1.703   1.956 -0.3332 -0.2061  0.0307
30844SOL    HW199647   1.802   1.651   2.000 -0.6634  0.1450 -0.0389
30844SOL    HW299648   1.867   1.672   1.865 -0.7760  0.1523 -0.0919
30845SOL     OW99649  10.171   0.761   0.353 -0.4737  0.0886  0.8496
30845SOL    HW199650  10.203   0.795   0.436 -0.1283 -0.2205  0.8463
30845SOL    HW299651  10.079   0.743   0.369 -0.8316  1.5999  0.6685
30846SOL     OW99652   3.145   8.580   6.630 -0.0891  0.6451 -0.0120
30846SOL    HW199653   3.233   8.610   6.607  0.3632 -0.2824  0.4179
30846SOL    HW299654   3.155   8.545   6.719 -0.8118  0.2121 -0.0944
30847SOL     OW99655   4.362  12.095   4.566 -0.6611  0.0360 -0.3396
30847SOL    HW199656   4.294  12.056   4.512 -0.9403 -1.3997  0.9940
30847SOL    HW299657   4.444  12.063   4.529 -0.8523 -0.9376  0.0649
30848SOL     OW99658   7.935   5.438   9.372  0.5753  0.2606  0.1075
30848SOL    HW199659   7.947   5.352   9.330  1.5986  0.0301  0.8435
30848SOL    HW299660   8.010   5.448   9.429  0.0437  1.3045  0.6601
30849SOL     OW99661   8.181   8.329  10.881 -0.1791 -0.1642  0.1745
30849SOL    HW199662   8.141   8.394  10.823 -0.2229  0.6070  1.0465
30849SOL    HW299663   8.108   8.275  10.910 -0.1151 -0.7413 -0.7150
30850SOL     OW99664   2.126   5.845   3.620  0.3769 -0.5232 -0.2608
30850SOL    HW199665   2.103   5.922   3.568 -0.0426 -0.7543 -0.4196
30850SOL    HW299666   2.043   5.799   3.633  0.6916 -1.1608 -0.5035
30851SOL     OW99667  12.858   1.419   2.754 -0.5632  0.5265 -0.1129
30851SOL    HW199668  12.901   1.486   2.807 -1.1177  0.2877  0.6552
30851SOL    HW299669  12.919   1.402   2.682 -0.9732  2.7594 -1.0635
30852SOL     OW99670   1.979  10.545   1.776  0.4558 -0.4373  0.0244
30852SOL    HW199671   1.994  10.450   1.776 -0.7856 -0.6569 -0.6397
30852SOL    HW299672   1.946  10.564   1.688  0.1973  0.5231  0.3195
30853SOL     OW99673  10.392   5.816  12.864  0.5692  0.2072 -0.1018
30853SOL    HW199674  10.427   5.739  12.819  0.0393  0.8922 -1.7880
30853SOL    HW299675  10.469   5.857  12.904  1.1387 -0.2241 -0.7243
30854SOL     OW99676   4.742  11.903  10.931  0.1395 -0.1227 -0.3105
30854SOL    HW199677   4.688  11.830  10.962  0.1623 -0.3668 -0.8207
30854SOL    HW299678   4.794  11.930  11.006  0.3126 -0.8021 -0.1842
30855SOL     OW99679  12.570   2.826   0.075  0.4078  0.0241 -0.0551
30855SOL    HW199680  12.515   2.788   0.144  0.9657 -0.8267 -0.0522
30855SOL    HW299681  12.660   2.816   0.108  0.5948  0.8946 -0.2950
30856SOL     OW99682   4.691   2.370   1.422  0.7613  0.0865 -0.5242
30856SOL    HW199683   4.664   2.359   1.331 -1.9501  1.5205 -0.0136
30856SOL    HW299684   4.760   2.436   1.418 -0.9408  1.9393 -1.4548
30857SOL     OW99685  11.157   6.897  11.972 -0.4973 -0.1992 -0.1268
30857SOL    HW199686  11.222   6.841  11.932  0.4388  0.2000  0.7803
30857SOL    HW299687  11.073   6.855  11.953  0.1389 -1.6306  0.1066
30858SOL     OW99688   3.418  11.469  12.605  0.0229  0.1993 -0.2478
30858SOL    HW199689   3.412  11.403  12.535 -0.8091 -0.0235  0.0253
30858SOL    HW299690   3.360  11.437  12.673  1.6461 -0.1330  1.0275
30859SOL     OW99691   3.233  10.103   3.155  0.1155 -0.0773 -0.6758
30859SOL    HW199692   3.290  10.041   3.200  2.1528  1.4518 -1.0286
30859SOL    HW299693   3.153  10.052   3.137  0.8170 -1.9196  0.9619
30860SOL     OW99694  10.741   4.734   3.166 -0.7632  0.4359 -0.1670
30860SOL    HW199695  10.652   4.715   3.135 -0.4595 -0.8774 -0.3033
30860SOL    HW299696  10.729   4.755   3.259 -1.0931 -1.3311  0.2433
30861SOL     OW99697   6.102   7.743   2.624 -0.8423 -0.4199 -0.0189
30861SOL    HW199698   6.101   7.756   2.718  0.3835  0.8831 -0.1439
30861SOL    HW299699   6.038   7.674   2.608  0.3415 -2.0917  1.9724
30862SOL     OW99700   6.979   4.184   7.858 -0.0643  0.0576 -0.0287
30862SOL    HW199701   6.899   4.230   7.884  0.1045 -0.0946  0.8007
30862SOL    HW299702   6.948   4.106   7.812 -0.4555 -0.7145  1.4802
30863SOL     OW99703  11.389  11.342   8.257 -0.1399  0.0064 -0.7472
30863SOL    HW199704  11.349  11.396   8.189 -0.2043  0.2319 -0.5290
30863SOL    HW299705  11.316  11.312   8.310  0.1215  2.4571  1.1865
30864SOL     OW99706   8.370   2.430  12.121 -0.1926  0.2883  0.4003
30864SOL    HW199707   8.433   2.479  12.174  0.7393 -0.4828  0.0268
30864SOL    HW299708   8.375   2.340  12.153  0.3784 -0.1916 -0.9548
30865SOL     OW99709   9.601   4.707   2.432  0.2758 -0.7311 -0.3381
30865SOL    HW199710   9.652   4.745   2.503 -1.4073  1.2854 -0.1015
30865SOL    HW299711   9.666   4.663   2.377  2.1672  0.9794  0.3722
30866SOL     OW99712   0.311   0.452   5.867  0.0865  0.2196 -0.1452
30866SOL    HW199713   0.379   0.447   5.934  0.2239 -0.7932 -0.3385
30866SOL    HW299714   0.349   0.408   5.791 -1.0200 -0.9850 -0.0408
30867SOL     OW99715   5.513   0.209   1.159  0.4069  0.5015  0.0944
30867SOL    HW199716   5.568   0.133   1.143  0.3302  0.1716  1.2614
30867SOL    HW299717   5.446   0.206   1.092  1.3547  0.4746 -0.8721
30868SOL     OW99718  10.343   1.414  11.862 -0.7839  0.6798 -0.2140
30868SOL    HW199719  10.381   1.465  11.933  1.9288  1.2474 -1.8922
30868SOL    HW299720  10.307   1.480  11.802 -1.0011  0.3606 -0.4364
30869SOL     OW99721   8.136   0.689   7.658  0.0272 -0.7395  0.4744
30869SOL    HW199722   8.135   0.594   7.660  1.7369 -0.7671  1.6244
30869SOL    HW299723   8.044   0.714   7.669 -0.2448 -2.2330  1.9175
30870SOL     OW99724   6.472   2.046   3.914  0.0443  0.1149  0.7695
30870SOL    HW199725   6.388   2.035   3.869 -0.0201 -1.7834  1.2589
30870SOL    HW299726   6.461   1.999   3.996  1.3562  0.4674  1.1625
30871SOL     OW99727  10.279  10.300  11.731 -0.1658 -0.7720  0.1452
30871SOL    HW199728  10.307  10.275  11.643  1.0709  1.4172 -0.1490
30871SOL    HW299729  10.285  10.219  11.781 -0.6834 -2.0189 -1.6993
30872SOL     OW99730  10.491   7.508   2.022  0.1592 -0.2595  0.6884
30872SOL    HW199731  10.570   7.547   1.984 -0.0568 -1.3310 -0.9605
30872SOL    HW299732  10.441   7.582   2.056  1.9003  0.4252  1.8637
30873SOL     OW99733   7.972   9.792   1.075  0.2005  0.1846  0.1393
30873SOL    HW199734   7.907   9.856   1.103 -1.3435 -1.4580  0.5345
30873SOL    HW299735   7.923   9.730   1.021  1.4731 -0.9891  0.2583
30874SOL     OW99736   0.003   2.638   6.990 -0.2312 -0.2690 -0.3145
30874SOL    HW199737   0.097   2.646   7.007 -0.0544  1.9622 -1.9347
30874SOL    HW299738  -0.024   2.562   7.041  1.8554  0.7843  2.6495
30875SOL     OW99739   1.089   4.414  11.028  0.2570 -0.1236 -0.2386
30875SOL    HW199740   1.011   4.364  11.005  0.1043  0.5180 -1.2015
30875SOL    HW299741   1.078   4.498  10.983  0.2761  0.9846  1.7281
30876SOL     OW99742   1.556  12.811  12.962  0.3524 -0.4862  0.0776
30876SOL    HW199743   1.510  12.854  12.889 -0.3366 -0.4353  0.5357
30876SOL    HW299744   1.561  12.719  12.936  0.8563 -0.3310 -0.4074
30877SOL     OW99745   0.479   9.746   4.690 -0.2129 -0.5853  0.3557
30877SOL    HW199746   0.402   9.803   4.679 -1.4857 -2.4441 -0.7870
30877SOL    HW299747   0.473   9.716   4.781 -1.5651 -1.6769 -0.0683
30878SOL     OW99748   9.358   7.890   6.028  0.3812  0.0042 -0.0153
30878SOL    HW199749   9.349   7.901   5.934 -0.1230  2.2146  0.2491
30878SOL    HW299750   9.309   7.810   6.047 -2.4353  1.3106 -1.2372
30879SOL     OW99751  11.944   0.901   0.476  0.3236 -1.2573 -0.2802
30879SOL    HW199752  11.875   0.841   0.505 -0.1123 -0.7887 -0.3346
30879SOL    HW299753  11.897   0.975   0.438  0.7916 -0.0026  1.4632
30880SOL     OW99754   3.589   8.377   1.212 -0.1267 -0.3832 -0.5170
30880SOL    HW199755   3.599   8.389   1.306 -0.7704 -0.7408 -0.3985
30880SOL    HW299756   3.598   8.465   1.176 -0.3888 -0.1723 -0.0743
30881SOL     OW99757   1.914  11.510   6.796  0.1590  0.6491 -0.3613
30881SOL    HW199758   2.002  11.544   6.813  0.3853  0.4047 -1.0524
30881SOL    HW299759   1.919  11.417   6.819 -1.1121  1.3948  4.0551
30882SOL     OW99760   1.957  12.567   0.740  0.2309 -0.0098 -0.8265
30882SOL    HW199761   1.899  12.612   0.678 -1.9454  1.6093  2.0943
30882SOL    HW299762   2.015  12.636   0.772 -0.0058 -0.3193  0.3170
30883SOL     OW99763   6.840   0.208   5.242 -0.7034 -0.2633  0.1781
30883SOL    HW199764   6.779   0.194   5.315 -1.3848 -0.8814 -0.4992
30883SOL    HW299765   6.785   0.235   5.169 -0.1775 -0.9441 -0.4797
30884SOL     OW99766   9.054   1.770   1.741 -0.4558  0.1494  0.2593
30884SOL    HW199767   8.969   1.737   1.711 -1.3900  1.0742  1.7769
30884SOL    HW299768   9.114   1.750   1.669 -1.8920 -0.7780 -0.7335
30885SOL     OW99769  10.742   1.865   8.430 -0.0048  0.0018  0.0405
30885SOL    HW199770  10.822   1.885   8.480 -0.6369 -1.7225  1.8742
30885SOL    HW299771  10.675   1.920   8.470  0.0531  0.7197 -0.8401
30886SOL     OW99772   8.485  11.490  12.890 -0.1447  0.2548 -0.6480
30886SOL    HW199773   8.417  11.425  12.872 -2.0413  1.8002  0.4460
30886SOL    HW299774   8.441  11.574  12.877  1.0968  1.3370  1.5873
30887SOL     OW99775   6.859  10.712   9.439 -0.0184  0.1221 -0.4923
30887SOL    HW199776   6.934  10.674   9.391  1.1319  1.9834 -0.2592
30887SOL    HW299777   6.889  10.717   9.530 -1.2666 -1.0789  0.0213
30888SOL     OW99778   3.674   7.403  12.456 -0.1519  0.4993  0.3584
30888SOL    HW199779   3.697   7.310  12.455  1.8879  0.9146  1.9393
30888SOL    HW299780   3.622   7.414  12.536 -3.4953  0.1872 -1.5599
30889SOL     OW99781   9.844   2.459   7.200 -0.0871 -0.7978 -0.6952
30889SOL    HW199782   9.754   2.490   7.206 -0.1440 -0.8919 -1.0366
30889SOL    HW299783   9.880   2.472   7.288 -0.5221 -1.0443 -0.4787
30890SOL     OW99784   2.912   3.866   3.918  0.4587 -0.3768  0.3379
30890SOL    HW199785   2.859   3.824   3.985 -1.0072 -0.3425 -0.7369
30890SOL    HW299786   2.876   3.834   3.835  1.8796 -0.0288 -0.4525
30891SOL     OW99787   3.475   9.412   2.667 -0.1901  0.1725 -0.3706
30891SOL    HW199788   3.514   9.331   2.636  0.4000  0.4979 -0.5107
30891SOL    HW299789   3.464   9.465   2.588  0.2052  0.5412 -0.1898
30892SOL     OW99790   5.569   9.898   8.446  0.1448 -0.3627 -0.4690
30892SOL    HW199791   5.521   9.816   8.432  0.0493 -0.3262 -0.3489
30892SOL    HW299792   5.653   9.884   8.401  0.3923 -0.7755  0.1157
30893SOL     OW99793   8.219   5.254  12.031  0.1572  0.1154 -0.4376
30893SOL    HW199794   8.290   5.249  11.967 -0.9346 -1.5106 -1.5902
30893SOL    HW299795   8.242   5.189  12.097 -0.3779 -0.6441 -0.9785
30894SOL     OW99796   9.018   8.060   5.660 -0.3259  0.2009  0.6001
30894SOL    HW199797   8.949   8.125   5.675  1.4364  2.1191  0.9966
30894SOL    HW299798   9.092   8.092   5.712  0.8743 -1.7778  0.2113
30895SOL     OW99799   5.085   7.412   2.012 -0.3094  0.1580 -0.7398
30895SOL    HW199800   5.149   7.481   2.027 -1.9623  1.6845 -0.3758
30895SOL    HW299801   5.060   7.421   1.920 -0.0072 -0.4428 -0.8860
30896SOL     OW99802   6.242   8.739   0.805 -0.0305  0.3007  0.5633
30896SOL    HW199803   6.259   8.824   0.764  3.4005 -1.9807 -3.5126
30896SOL    HW299804   6.307   8.732   0.875  0.8889  0.3899 -0.2663
30897SOL     OW99805   4.116   4.703  12.463  0.1952 -0.1607 -0.3835
30897SOL    HW199806   4.104   4.789  12.505 -1.6255  0.0165 -1.2061
30897SOL    HW299807   4.209   4.683  12.479  0.8169  2.1805 -0.5982
30898SOL     OW99808   7.746   7.997   0.915 -0.0737  0.0098  0.0383
30898SOL    HW199809   7.834   8.002   0.952 -0.3324  0.8141  0.5470
30898SOL    HW299810   7.695   8.059   0.965 -0.6716  0.3781 -1.0055
30899SOL     OW99811   4.663  12.261   0.910 -0.2498 -0.6687 -0.2547
30899SOL    HW199812   4.758  12.276   0.911 -0.2829 -0.4383  0.9660
30899SOL    HW299813   4.642  12.246   0.818  0.5276  2.1518 -1.0049
30900SOL     OW99814   5.396  10.524  12.790  0.1262  0.8184  0.0808
30900SOL    HW199815   5.416  10.511  12.697 -1.3472 -1.2950 -0.0206
30900SOL    HW299816   5.308  10.563  12.790 -0.6429 -0.8295  0.5533
30901SOL     OW99817   0.815   5.803   4.937 -0.0311  0.0578 -0.5005
30901SOL    HW199818   0.744   5.821   4.876  0.7815  0.0725 -1.4746
30901SOL    HW299819   0.831   5.709   4.929 -0.1659 -0.0101 -0.0224
30902SOL     OW99820  12.394   6.474   6.714 -0.2744  0.3896 -0.2162
30902SOL    HW199821  12.410   6.410   6.644  2.9440  1.1422 -0.3167
30902SOL    HW299822  12.413   6.558   6.674 -0.4530  1.0297  1.0118
30903SOL     OW99823   1.439   7.980   2.205  0.2821 -0.1520  0.0921
30903SOL    HW199824   1.450   7.927   2.127 -2.9314  1.2853 -1.5211
30903SOL    HW299825   1.391   7.924   2.266  1.1113 -0.6320  0.3210
30904SOL     OW99826   3.162  11.492  11.477  0.1621 -0.3566  0.4852
30904SOL    HW199827   3.189  11.492  11.568  2.3002  3.3667  0.0750
30904SOL    HW299828   3.081  11.544  11.475 -0.0060 -0.6184  0.2586
30905SOL     OW99829  12.112   2.433  12.730  0.2105  0.1783 -0.1604
30905SOL    HW199830  12.169   2.387  12.792  0.0404  0.3814  0.1515
30905SOL    HW299831  12.026   2.433  12.773 -0.3653 -1.3588 -1.2365
30906SOL     OW99832   5.652   0.432   3.253 -0.3660  0.1802 -0.6457
30906SOL    HW199833   5.595   0.497   3.211  0.0946  1.0564  0.0832
30906SOL    HW299834   5.721   0.415   3.188 -1.4371 -0.9326 -1.5641
30907SOL     OW99835   0.544   0.928  10.952  0.4464  0.2407  0.8895
30907SOL    HW199836   0.615   0.983  10.918  1.9971 -3.3873 -2.5284
30907SOL    HW299837   0.585   0.877  11.022  0.7228 -0.6091  0.1163
30908SOL     OW99838   0.431  12.111  12.079  0.4804  0.2681 -0.5348
30908SOL    HW199839   0.407  12.127  11.987  1.0473 -0.7163 -0.8673
30908SOL    HW299840   0.354  12.069  12.116  1.4472 -2.5769 -1.5134
30909SOL     OW99841   8.573  12.372   8.031 -0.3170  0.1194  0.7152
30909SOL    HW199842   8.546  12.410   8.114  1.6308  1.3271  0.8522
30909SOL    HW299843   8.646  12.427   8.002 -0.4687 -0.7258 -1.4300
30910SOL     OW99844   7.080   3.066   5.243  0.0043 -0.1115  0.7551
30910SOL    HW199845   7.113   3.070   5.154 -1.5390 -1.0286  0.0967
30910SOL    HW299846   7.014   3.136   5.247 -1.9196 -1.7905  0.2374
30911SOL     OW99847   6.034   6.029   6.408  0.3345 -0.2019  0.1607
30911SOL    HW199848   6.065   5.966   6.473 -0.4988 -0.4978  0.2876
30911SOL    HW299849   5.943   6.045   6.432  0.5079  1.0229  0.1029
30912SOL     OW99850   5.536   7.124   7.737  0.4769  0.5718  0.2887
30912SOL    HW199851   5.601   7.119   7.667  0.2702  0.4287  0.1067
30912SOL    HW299852   5.587   7.108   7.817  0.6893  0.6036  0.1623
30913SOL     OW99853  12.676  11.038   9.019 -0.1100  0.3754  0.1111
30913SOL    HW199854  12.660  10.953   9.062 -0.1278  1.5590  2.6366
30913SOL    HW299855  12.767  11.059   9.041 -0.5833  1.7190  0.8954
30914SOL     OW99856   7.372   2.211   2.487 -0.2966 -0.1877  0.5703
30914SOL    HW199857   7.430   2.172   2.553 -0.0457  0.0750  0.5040
30914SOL    HW299858   7.317   2.138   2.458 -0.1743 -0.3804  0.8202
30915SOL     OW99859   2.749  10.677   0.498  0.4827 -0.1907  0.3168
30915SOL    HW199860   2.654  10.680   0.496  0.4633  0.7555  1.6460
30915SOL    HW299861   2.771  10.668   0.590  1.6902  0.2550  0.0898
30916SOL     OW99862   4.989   5.694   7.938 -0.2623  0.0956 -0.0544
30916SOL    HW199863   4.909   5.648   7.961 -0.9113  1.0824 -0.2833
30916SOL    HW299864   4.962   5.759   7.873  0.8169  0.0989 -0.5247
30917SOL     OW99865   4.282   7.759   1.985  0.5254  0.0844  0.5245
30917SOL    HW199866   4.323   7.673   1.992  1.4534  0.3654 -0.9367
30917SOL    HW299867   4.337   7.816   2.039  0.5153 -0.0369  0.6634
30918SOL     OW99868  11.370   1.706   4.015 -0.2514  0.0115  0.1378
30918SOL    HW199869  11.354   1.633   3.955 -2.2239  0.4763  0.0303
30918SOL    HW299870  11.464   1.703   4.031 -0.2588 -2.5317  0.1236
30919SOL     OW99871  10.736   9.481   6.397 -0.5232 -0.1348 -0.0984
30919SOL    HW199872  10.680   9.558   6.386 -0.7424 -0.3919 -0.8915
30919SOL    HW299873  10.674   9.408   6.406 -0.3273 -0.1554  1.3079
30920SOL     OW99874  12.034   0.493   8.839 -0.3916  0.3487 -0.2142
30920SOL    HW199875  12.092   0.562   8.807 -1.6261  0.7343 -1.7548
30920SOL    HW299876  11.987   0.533   8.912  0.2679  0.4878  0.1435
30921SOL     OW99877   3.250   7.946  12.951 -0.3754  0.4514 -0.1879
30921SOL    HW199878   3.200   7.973  13.028 -0.5886 -1.1504  0.2747
30921SOL    HW299879   3.340   7.935  12.983 -0.6415 -1.1589  0.1202
30922SOL     OW99880  12.118  11.660  11.452 -0.0449  0.2003  0.0514
30922SOL    HW199881  12.118  11.576  11.405  0.4014 -1.3201  2.5606
30922SOL    HW299882  12.206  11.695  11.437 -0.5130  0.7410 -1.7447
30923SOL     OW99883   4.262   3.554   5.142  0.5728 -0.4842 -0.2246
30923SOL    HW199884   4.331   3.597   5.092  0.1491  1.1414  0.5201
30923SOL    HW299885   4.281   3.576   5.233 -1.2781  0.6035 -0.0497
30924SOL     OW99886  10.833   8.752   6.802  0.3495 -0.2645  0.1591
30924SOL    HW199887  10.873   8.836   6.826  1.0973 -0.3499 -0.7121
30924SOL    HW299888  10.740   8.771   6.794  0.5468  0.5749 -0.3339
30925SOL     OW99889   1.318   3.907  11.133  0.3930  0.0262  0.4860
30925SOL    HW199890   1.323   4.002  11.130  3.3570 -0.0595 -0.0747
30925SOL    HW299891   1.282   3.887  11.219 -1.3732  1.6080  0.1813
30926SOL     OW99892   7.618   9.247  11.644  0.0923  0.4031  0.6325
30926SOL    HW199893   7.627   9.216  11.734 -0.1335 -0.1446  0.4687
30926SOL    HW299894   7.653   9.336  11.646  3.0353 -0.6722  0.5727
30927SOL     OW99895   3.063  12.886  10.444 -0.1628 -0.4609  0.4896
30927SOL    HW199896   3.044  12.960  10.502  0.8901 -0.1264  0.4324
30927SOL    HW299897   3.143  12.912  10.397 -0.7388 -0.9045 -0.7916
30928SOL     OW99898  11.106   3.682   8.346 -0.0446 -0.2647 -0.4268
30928SOL    HW199899  11.160   3.604   8.343 -1.0197 -0.9423 -2.6518
30928SOL    HW299900  11.079   3.689   8.438 -0.5939 -3.0320 -0.2883
30929SOL     OW99901   4.109   1.133   5.891 -0.5360 -0.3178 -0.2465
30929SOL    HW199902   4.169   1.059   5.893  1.1631  0.9950 -0.0383
30929SOL    HW299903   4.156   1.204   5.935 -2.3002  0.7505  0.0315
30930SOL     OW99904   3.977   3.132   8.298  0.1254  0.0133 -0.1360
30930SOL    HW199905   4.065   3.129   8.337  0.4139 -2.4717 -0.8128
30930SOL    HW299906   3.935   3.051   8.327 -0.7115 -0.4738 -2.4889
30931SOL     OW99907   4.502   2.545   0.177  0.2304 -0.3067 -0.0665
30931SOL    HW199908   4.441   2.471   0.175  1.1851 -1.1613  1.0184
30931SOL    HW299909   4.451   2.619   0.145  0.0418 -1.9648 -4.4165
30932SOL     OW99910  10.366  11.869   2.128 -0.2561  0.2596  0.1203
30932SOL    HW199911  10.432  11.879   2.196 -0.3431  0.7776  0.1306
30932SOL    HW299912  10.284  11.861   2.176 -0.1238 -1.2025  0.1418
30933SOL     OW99913  12.794   3.925   0.368 -0.3766 -0.0028 -0.3936
30933SOL    HW199914  12.818   3.864   0.298  1.4048 -1.1861  1.1692
30933SOL    HW299915  12.698   3.917   0.374 -0.4211 -0.8416 -1.8261
30934SOL     OW99916  11.419   6.689   7.053 -0.8210  0.2733 -0.4964
30934SOL    HW199917  11.466   6.767   7.081 -1.4147  0.2822  0.5676
30934SOL    HW299918  11.341   6.722   7.009 -0.9918  0.2960 -0.1867
30935SOL     OW99919   1.652   3.023   7.470 -0.3505  0.0895 -0.0568
30935SOL    HW199920   1.602   3.030   7.551  1.1658  0.9528  0.8417
30935SOL    HW299921   1.729   3.078   7.483 -0.9276  1.7609 -2.7750
30936SOL     OW99922   8.711   4.910   4.056 -0.0903 -0.5663 -0.0361
30936SOL    HW199923   8.677   4.980   4.111 -0.0585 -1.3217  0.9731
30936SOL    HW299924   8.791   4.946   4.017 -0.8521  0.4546 -0.6976
30937SOL     OW99925   2.659   4.899  10.784 -0.3133 -0.0080  0.0465
30937SOL    HW199926   2.650   4.962  10.855  3.2418  0.6359  0.1424
30937SOL    HW299927   2.708   4.945  10.716  1.1657 -2.1586 -0.4823
30938SOL     OW99928  10.872   8.387   6.108 -0.1008 -0.0190 -0.1375
30938SOL    HW199929  10.867   8.446   6.183  0.7158  1.1236 -0.9432
30938SOL    HW299930  10.965   8.363   6.103 -0.2848 -0.7050 -0.3146
30939SOL     OW99931  10.214   6.011  10.631  0.6138  0.2832  0.6243
30939SOL    HW199932  10.147   6.065  10.673 -0.6928 -1.5203  0.9972
30939SOL    HW299933  10.194   6.015  10.537  0.8221  0.8111  0.6005
30940SOL     OW99934  12.744   1.364   6.512 -0.3919 -0.0130  0.0976
30940SOL    HW199935  12.700   1.343   6.429 -2.5176 -1.0929  1.3989
30940SOL    HW299936  12.825   1.313   6.510 -0.3905 -0.0091 -1.2935
30941SOL     OW99937   3.564   6.650  12.400 -0.6399 -0.2370  0.1250
30941SOL    HW199938   3.613   6.707  12.459  1.7096  0.0545 -1.9567
30941SOL    HW299939   3.478   6.692  12.393 -0.7096  0.1845  2.5719
30942SOL     OW99940   6.823  12.828   0.715 -0.7496 -0.1432 -0.1861
30942SOL    HW199941   6.916  12.804   0.722 -0.3020  0.9131 -1.9115
30942SOL    HW299942   6.801  12.863   0.801  0.2989 -0.8859  0.4151
30943SOL     OW99943   5.387   5.770   4.085  0.9660  0.3368 -0.6604
30943SOL    HW199944   5.434   5.705   4.032  0.5931 -0.9902  0.5530
30943SOL    HW299945   5.454   5.829   4.116  1.1340  1.5308 -3.0290
30944SOL     OW99946   6.679   6.199  10.671 -0.0789 -0.1707  0.8221
30944SOL    HW199947   6.747   6.175  10.608 -0.0130  0.7890  0.5066
30944SOL    HW299948   6.602   6.150  10.643  0.3377 -0.8684  0.8717
30945SOL     OW99949   5.220   1.540   1.890  0.2361 -0.1155 -0.1387
30945SOL    HW199950   5.227   1.611   1.826 -0.6951  1.5322  1.4835
30945SOL    HW299951   5.132   1.505   1.877  0.5225 -0.6717 -0.6163
30946SOL     OW99952   9.965  12.443   8.549 -0.2493 -0.4260  0.1340
30946SOL    HW199953   9.911  12.365   8.563  1.5011 -1.6921  0.2442
30946SOL    HW299954   9.962  12.490   8.632 -0.2709 -1.0823  0.5145
30947SOL     OW99955   6.005   6.552  12.271  0.0963 -0.1738 -0.7046
30947SOL    HW199956   6.089   6.570  12.230 -0.9838  1.1517 -2.4952
30947SOL    HW299957   5.981   6.465  12.240  1.8858 -1.7086  1.8664
30948SOL     OW99958   8.448   0.683   0.644  0.3223 -0.0707 -0.0021
30948SOL    HW199959   8.526   0.732   0.670 -0.5973  0.6352  1.6077
30948SOL    HW299960   8.381   0.709   0.707 -0.9379 -1.4613 -0.6859
30949SOL     OW99961  10.806   0.367  12.464  0.2038  0.8061 -0.1254
30949SOL    HW199962  10.739   0.392  12.401 -0.7171 -0.0963  0.4721
30949SOL    HW299963  10.843   0.286  12.428 -1.2894 -0.5102  1.1196
30950SOL     OW99964   1.938   3.016   3.961 -0.1902 -0.9040  0.1274
30950SOL    HW199965   1.887   2.944   3.923 -1.2790 -0.2701  0.3250
30950SOL    HW299966   2.014   3.024   3.903  0.2770 -2.5803  0.4442
30951SOL     OW99967   1.947  11.796   1.484 -0.6841  0.2744 -0.5195
30951SOL    HW199968   1.881  11.819   1.418 -0.0019  1.1454 -0.9210
30951SOL    HW299969   1.983  11.880   1.512  0.3036 -0.1895 -0.3543
30952SOL     OW99970   8.562   4.806  10.830 -0.0588 -0.6086  0.1434
30952SOL    HW199971   8.631   4.795  10.765 -1.0278 -0.9782 -0.8545
30952SOL    HW299972   8.532   4.717  10.849 -0.0564 -0.4755  0.8193
30953SOL     OW99973   6.176   3.758   0.179  0.1131 -0.2128  1.1061
30953SOL    HW199974   6.111   3.696   0.147 -0.2538 -0.0081  1.4500
30953SOL    HW299975   6.149   3.842   0.143  0.4743 -0.2111  0.8363
30954SOL     OW99976   8.690   0.756   1.814 -0.1850  0.0787  0.1145
30954SOL    HW199977   8.770   0.752   1.761 -0.2190  0.3418  0.0427
30954SOL    HW299978   8.715   0.808   1.890 -0.4319  0.6123 -0.1642
30955SOL     OW99979   6.320   6.903  11.897  0.2251 -0.4482 -0.3048
30955SOL    HW199980   6.386   6.837  11.919  1.8408  0.9375 -0.8491
30955SOL    HW299981   6.258   6.856  11.841 -0.1674 -2.1918  1.4924
30956SOL     OW99982   3.945   5.355   0.021 -0.3340  0.1849  0.1767
30956SOL    HW199983   3.850   5.349   0.026 -0.3229 -0.2668 -0.1354
30956SOL    HW299984   3.974   5.268  -0.007  0.1591  0.3581  0.1285
30957SOL     OW99985   8.599   9.853  10.087  0.2810 -0.5102 -0.7372
30957SOL    HW199986   8.605   9.799  10.166  0.2493 -0.2787 -0.5765
30957SOL    HW299987   8.522   9.819  10.041 -0.2567 -0.0393 -0.2064
30958SOL     OW99988   7.905   6.591  11.884  0.0613 -0.4492 -0.3064
30958SOL    HW199989   7.917   6.557  11.796 -0.4378  0.9951 -0.9562
30958SOL    HW299990   7.988   6.634  11.905  0.9894 -2.6216  0.8300
30959SOL     OW99991  10.797   5.781   0.594 -0.4090  0.2799  0.4372
30959SOL    HW199992  10.768   5.730   0.669  2.5381 -1.0999  0.7752
30959SOL    HW299993  10.728   5.770   0.529 -0.5219 -3.1154  0.9697
30960SOL     OW99994   6.186  10.105   0.037 -0.0309  0.0960 -0.0086
30960SOL    HW199995   6.181  10.079  -0.055  0.5668 -0.6992  0.1792
30960SOL    HW299996   6.103  10.151   0.053 -0.6085 -0.6875 -0.6611
30961SOL     OW99997  12.759   2.410   7.027 -0.7086  0.0096 -0.0139
30961SOL    HW199998  12.815   2.334   7.012  0.4487  0.9959 -0.9017
30961SOL    HW299999  12.718   2.427   6.942  0.0115  1.0975 -0.1687
30962SOL     OW    0   0.373   6.394   7.616 -0.1299 -0.1253 -0.2531
30962SOL    HW1    1   0.304   6.421   7.676  0.1695  0.4328 -0.1506
30962SOL    HW2    2   0.454   6.401   7.668 -0.0115 -0.9940 -0.2985
30963SOL     OW    3   6.796   4.761   0.445 -0.5281 -0.4068 -0.0653
30963SOL    HW1    4   6.851   4.711   0.505 -1.1039 -0.8692  0.0856
30963SOL    HW2    5   6.727   4.700   0.419 -0.9976  0.1799 -0.2122
30964SOL     OW    6   7.919   5.297   1.478  0.1309  0.0856 -0.1669
30964SOL    HW1    7   7.874   5.354   1.415  0.4729 -0.4487 -0.9115
30964SOL    HW2    8   7.995   5.348   1.506  0.7152 -0.1720 -1.2151
30965SOL     OW    9   3.789   6.764   7.364 -0.5633  0.1698  0.1472
30965SOL    HW1   10   3.696   6.747   7.351 -0.5993 -0.6172  1.3122
30965SOL    HW2   11   3.794   6.857   7.387 -1.3671 -0.3278  2.5899
30966SOL     OW   12   9.390  10.080   1.924 -0.3266  0.1483  0.3250
30966SOL    HW1   13   9.398   9.989   1.953  2.2547  0.0105 -0.6654
30966SOL    HW2   14   9.389  10.075   1.829  3.3998  1.2544  0.0872
30967SOL     OW   15   9.398   0.246   4.686 -0.9117  1.0124  0.2107
30967SOL    HW1   16   9.424   0.160   4.720 -0.6767  1.1971  0.5142
30967SOL    HW2   17   9.407   0.238   4.591 -2.3134  0.2534  0.1280
30968SOL     OW   18   8.157   5.838   4.342  0.0513 -0.2753 -0.0356
30968SOL    HW1   19   8.132   5.924   4.308  0.7675  0.7737  1.9274
30968SOL    HW2   20   8.091   5.778   4.307 -1.2641  1.2994 -0.3714
30969SOL     OW   21   5.260   4.994  10.593  0.3346  1.0030 -0.8322
30969SOL    HW1   22   5.247   4.901  10.574 -1.0986  0.6267  1.5621
30969SOL    HW2   23   5.354   5.009  10.578  0.7800 -1.0615 -0.4030
30970SOL     OW   24   0.534   3.090   2.630  0.4882 -0.1996  0.7442
30970SOL    HW1   25   0.579   3.174   2.617 -1.5875  0.7907 -0.6824
30970SOL    HW2   26   0.599   3.024   2.607  0.8835  1.1897 -2.8198
30971SOL     OW   27   1.423  12.409   8.229 -0.0789 -0.0373 -0.2299
30971SOL    HW1   28   1.500  12.369   8.271  0.3990 -0.0696 -1.1219
30971SOL    HW2   29   1.460  12.479   8.175 -0.7181  0.1909 -0.3690
30972SOL     OW   30  10.741   8.875   6.307  0.3070 -0.3764 -0.0440
30972SOL    HW1   31  10.837   8.885   6.306  0.3506  0.1827  2.4948
30972SOL    HW2   32  10.726   8.786   6.339 -0.0383 -0.4932 -0.5188
30973SOL     OW   33   7.630   1.319   6.764 -0.2460 -0.1118 -0.2183
30973SOL    HW1   34   7.668   1.331   6.851 -2.8146  2.8181  0.6784
30973SOL    HW2   35   7.705   1.327   6.704  1.4756 -1.4549  1.6088
30974SOL     OW   36  10.387   0.883   3.979  0.4587 -0.2526 -0.7017
30974SOL    HW1   37  10.361   0.967   4.017  0.5954 -0.7340  0.4987
30974SOL    HW2   38  10.454   0.905   3.914  1.2610  0.4865  0.3403
30975SOL     OW   39   9.806   2.968   7.093  1.2525 -0.2882 -0.3677
30975SOL    HW1   40   9.861   3.006   7.162  0.8742 -0.2805 -0.0680
30975SOL    HW2   41   9.859   2.976   7.013  1.8416 -0.6130 -0.0217
30976SOL     OW   42   2.113   9.450   1.282  0.2368 -0.6247 -0.1276
30976SOL    HW1   43   2.135   9.362   1.312  0.7000 -0.1146  1.1128
30976SOL    HW2   44   2.178   9.507   1.324 -0.6738  0.4135 -0.0759
30977SOL     OW   45   6.617   9.374   5.575 -0.0740 -0.0068  0.4279
30977SOL    HW1   46   6.626   9.421   5.658 -0.0679  0.2904  0.2637
30977SOL    HW2   47   6.563   9.432   5.521 -0.9419 -0.6603  0.5714
30978SOL     OW   48   0.126   6.883  10.750 -0.3780  0.2270 -0.6834
30978SOL    HW1   49   0.216   6.915  10.751 -1.0993  2.5093 -1.4557
30978SOL    HW2   50   0.132   6.793  10.780  2.1459  0.3354 -0.6524
30979SOL     OW   51   2.146   4.819  11.190 -0.3176 -0.1324 -0.1797
30979SOL    HW1   52   2.100   4.893  11.151 -0.8685  1.4392  3.1467
30979SOL    HW2   53   2.216   4.858  11.242 -0.2893 -1.9369  1.2578
30980SOL     OW   54  10.418   3.446   5.497 -0.5717  0.1200 -0.0622
30980SOL    HW1   55  10.378   3.499   5.429 -2.9861 -2.1799 -0.6144
30980SOL    HW2   56  10.393   3.489   5.579 -2.2537  0.0671 -0.4989
30981SOL     OW   57   2.248   4.560   4.169 -0.4990  0.4396  0.4562
30981SOL    HW1   58   2.229   4.567   4.075 -2.3926  3.3158  0.9264
30981SOL    HW2   59   2.330   4.608   4.180 -0.4486  0.3838  0.3302
30982SOL     OW   60   0.458  10.006   7.902  0.1662  0.0666 -0.1421
30982SOL    HW1   61   0.481  10.097   7.883 -0.4894  0.2246 -0.1917
30982SOL    HW2   62   0.366   9.999   7.877 -0.3550 -0.0926  1.6969
30983SOL     OW   63   7.101   1.795   9.782  0.1126 -0.0117  0.8314
30983SOL    HW1   64   7.069   1.776   9.694  0.3518 -3.1734  1.3079
30983SOL    HW2   65   7.026   1.833   9.827 -0.6054 -0.1331 -0.2163
30984SOL     OW   66   4.348  11.059   5.798  0.2009 -0.6244 -0.3182
30984SOL    HW1   67   4.360  11.032   5.889  0.4878 -1.8112 -0.6790
30984SOL    HW2   68   4.422  11.018   5.752 -0.6274 -1.0835 -1.2764
30985SOL     OW   69   2.427  12.315  10.432 -0.3924  0.0964  0.4182
30985SOL    HW1   70   2.415  12.344  10.341 -1.8880  0.0662  0.5864
30985SOL    HW2   71   2.353  12.353  10.479  0.8255  0.8336  1.8220
30986SOL     OW   72   3.836  10.698   4.354  0.6774  0.2902  0.7984
30986SOL    HW1   73   3.760  10.753   4.370  1.2935  1.7406 -0.9419
30986SOL    HW2   74   3.801  10.622   4.306  0.2571  0.7437  0.3724
30987SOL     OW   75  11.364  10.908  12.348 -0.2370  0.3309 -0.3062
30987SOL    HW1   76  11.452  10.914  12.310  0.6684 -0.6880  1.5024
30987SOL    HW2   77  11.379  10.885  12.440 -2.4054  0.2948  0.0931
30988SOL     OW   78   1.980  12.467   9.846 -0.5135 -0.0347  0.2948
30988SOL    HW1   79   1.931  12.475   9.764 -0.9473  0.4706  0.5967
30988SOL    HW2   80   1.990  12.556   9.877  1.2688 -0.0665 -0.1235
30989SOL     OW   81   9.536   3.234   0.663  0.2019  0.3371 -0.3542
30989SOL    HW1   82   9.521   3.325   0.692  0.5674  0.6435 -1.1054
30989SOL    HW2   83   9.534   3.239   0.568 -3.3928 -1.0441 -0.5129
30990SOL     OW   84   3.568   4.389   1.581 -0.3342 -0.7104  0.3356
30990SOL    HW1   85   3.509   4.401   1.506  0.4620 -2.9753 -0.7696
30990SOL    HW2   86   3.651   4.427   1.552 -0.1928 -1.0291  0.3242
30991SOL     OW   87   8.649   8.075   5.153  0.5263 -0.3547  0.0108
30991SOL    HW1   88   8.623   7.994   5.195  2.3900 -1.1190 -0.2079
30991SOL    HW2   89   8.744   8.077   5.162  0.9038  0.0330 -3.0591
30992SOL     OW   90   1.320   0.250   4.484 -0.2891  0.0458 -0.1140
30992SOL    HW1   91   1.407   0.267   4.447  1.0342 -0.4373  2.5630
30992SOL    HW2   92   1.302   0.159   4.460  0.2810 -0.0774 -0.1016
30993SOL     OW   93   7.710   9.931   4.891 -0.2095  0.0920 -0.6015
30993SOL    HW1   94   7.756   9.997   4.839  1.4024  0.5789  1.3177
30993SOL    HW2   95   7.778   9.894   4.948 -1.9723  0.1022  1.6526
30994SOL     OW   96   0.195   9.008  12.381 -0.1435  0.1516 -0.0391
30994SOL    HW1   97   0.166   9.098  12.391  1.3386  0.9953 -2.3399
30994SOL    HW2   98   0.270   9.000  12.440 -1.3718 -0.1965  1.5249
30995SOL     OW   99  11.642   2.580   3.700 -0.2048 -0.4474  0.0257
30995SOL    HW1  100  11.581   2.590   3.627 -0.7530 -0.1764  0.5135
30995SOL    HW2  101  11.717   2.534   3.662  1.1062  2.7092 -1.5909
30996SOL     OW  102  12.740   1.161   2.180  0.5384 -0.0237 -0.0193
30996SOL    HW1  103  12.827   1.165   2.219  1.4729  0.5710 -2.0408
30996SOL    HW2  104  12.710   1.251   2.177  0.3916 -0.0889 -0.5073
30997SOL     OW  105  10.562   9.517  11.811  0.2147  0.0379  0.2668
30997SOL    HW1  106  10.596   9.464  11.883  0.8878 -1.3736 -1.0164
30997SOL    HW2  107  10.505   9.457  11.762  0.1733  0.7981 -0.6578
30998SOL     OW  108   1.186   6.873  11.600  0.5171  0.1652 -0.3677
30998SOL    HW1  109   1.101   6.879  11.557  1.1604 -0.0973 -1.7435
30998SOL    HW2  110   1.219   6.963  11.602 -0.0118  0.3570  0.6954
30999SOL     OW  111   9.838   6.335   4.915 -0.3400  0.1239  0.4278
30999SOL    HW1  112   9.930   6.338   4.887 -0.6736  0.3095 -0.6989
30999SOL    HW2  113   9.801   6.417   4.882 -1.4976 -1.0396 -1.3482
31000SOL     OW  114   6.273   0.791   0.983  0.0776 -0.1472  0.3348
31000SOL    HW1  115   6.368   0.793   0.971  0.4545  0.1078  2.8077
31000SOL    HW2  116   6.253   0.701   1.008 -0.7138 -0.7608 -2.1448
31001SOL     OW  117   0.222   1.842   9.819  0.1177  0.3382  0.0688
31001SOL    HW1  118   0.267   1.899   9.881  0.6866 -0.1272  0.0853
31001SOL    HW2  119   0.270   1.760   9.821  0.0332  0.2498 -0.8514
31002SOL     OW  120   5.779   6.484  11.632 -0.0114  0.5682 -0.3462
31002SOL    HW1  121   5.815   6.550  11.573 -1.2733  1.8385  0.2680
31002SOL    HW2  122   5.709   6.443  11.583  1.4728 -1.1705 -1.1459
31003SOL     OW  123   8.884   7.486   3.517 -0.5130  0.0522  0.5333
31003SOL    HW1  124   8.828   7.563   3.511 -1.2794 -0.5695 -0.7287
31003SOL    HW2  125   8.834   7.417   3.473  0.5584 -0.9270  0.8139
31004SOL     OW  126   5.255   0.555  11.719 -0.2252 -0.0429  0.5174
31004SOL    HW1  127   5.323   0.601  11.669  0.1930 -2.0042 -0.8546
31004SOL    HW2  128   5.278   0.462  11.710 -2.7755 -0.7501  0.4791
31005SOL     OW  129   0.448   6.873   5.793  0.7210 -0.7938 -0.9033
31005SOL    HW1  130   0.538   6.841   5.803  1.8506  2.0758 -0.8989
31005SOL    HW2  131   0.444   6.949   5.852 -1.7414 -0.8882 -0.8772
31006SOL     OW  132   2.018   2.265   9.518  0.3616  0.7204  0.4156
31006SOL    HW1  133   1.984   2.338   9.467  0.0986 -0.0643 -0.5805
31006SOL    HW2  134   1.973   2.188   9.482 -0.5007  0.2185  2.4331
31007SOL     OW  135   1.207   6.559  12.878 -0.3497  0.4856  0.0493
31007SOL    HW1  136   1.293   6.550  12.920 -0.8118 -1.0643  0.7207
31007SOL    HW2  137   1.194   6.475  12.833 -2.5558 -0.3059  1.9973
31008SOL     OW  138  12.350   2.937   1.793 -0.6351  0.2780 -0.3804
31008SOL    HW1  139  12.413   2.871   1.765 -0.2544  0.5331 -0.1306
31008SOL    HW2  140  12.348   3.001   1.722  1.4120  1.6994  0.7188
31009SOL     OW  141  10.380   6.955   7.612  0.0483 -0.1994  0.1442
31009SOL    HW1  142  10.397   6.947   7.518 -0.7239  1.2641 -0.1564
31009SOL    HW2  143  10.375   6.864   7.643  1.1018 -0.7011 -1.0633
31010SOL     OW  144  11.292   9.920   2.409 -0.0568 -0.5715  0.0084
31010SOL    HW1  145  11.246   9.873   2.339  0.8667  0.6118 -1.4608
31010SOL    HW2  146  11.229   9.985   2.440  0.0561 -0.0119 -0.8899
31011SOL     OW  147   6.355   1.520   0.387 -0.2039  0.1823  0.0243
31011SOL    HW1  148   6.440   1.505   0.428 -0.0479 -0.5384 -0.5490
31011SOL    HW2  149   6.293   1.471   0.441  0.1300 -1.5507 -1.1085
31012SOL     OW  150   4.217   8.303   6.595  0.2760  0.2846  0.3895
31012SOL    HW1  151   4.193   8.222   6.551  2.0681  0.0343 -0.1979
31012SOL    HW2  152   4.309   8.316   6.573  0.2507  2.0428  1.1653
31013SOL     OW  153   4.335   8.003  11.608 -0.7299 -0.0498 -0.0084
31013SOL    HW1  154   4.341   8.007  11.703 -0.5862 -0.3504 -0.0022
31013SOL    HW2  155   4.255   8.051  11.586 -1.2476 -0.7361  0.3347
31014SOL     OW  156   2.224   4.236   6.735 -0.2815 -0.0856  0.0655
31014SOL    HW1  157   2.147   4.227   6.791 -0.3091 -1.1619 -0.1167
31014SOL    HW2  158   2.212   4.320   6.691  0.8129  1.9047  3.2445
31015SOL     OW  159   1.056  10.860   7.190  0.1040 -0.3327 -0.5747
31015SOL    HW1  160   1.101  10.796   7.245  0.6636 -1.1344 -1.9257
31015SOL    HW2  161   1.019  10.923   7.253  1.4461 -0.7179  0.6630
31016SOL     OW  162   1.788   3.329  11.409 -0.6239  0.0367 -0.1768
31016SOL    HW1  163   1.715   3.319  11.469  2.5971 -2.8888  3.8187
31016SOL    HW2  164   1.846   3.392  11.452  0.8297 -0.4626 -1.3179
31017SOL     OW  165   3.919   2.838   2.144 -0.0212  0.6688 -0.0351
31017SOL    HW1  166   3.876   2.819   2.227  0.7505  1.0331  0.4561
31017SOL    HW2  167   3.847   2.848   2.081 -0.5631 -2.7403 -0.1306
31018SOL     OW  168  11.514  11.142   4.836  0.0095 -0.3641  0.3927
31018SOL    HW1  169  11.590  11.155   4.779  0.1353 -2.7507 -0.1077
31018SOL    HW2  170  11.531  11.197   4.912  0.8831  1.2535 -0.9147
31019SOL     OW  171   1.771   7.212   7.340  0.2638  0.0182  0.3668
31019SOL    HW1  172   1.793   7.119   7.338 -0.6958 -0.2155 -1.9592
31019SOL    HW2  173   1.680   7.215   7.370 -0.2918  0.0322 -1.2487
31020SOL     OW  174   1.190  10.264   3.915  0.7646 -0.1958 -0.0570
31020SOL    HW1  175   1.179  10.330   3.847  0.3838  0.8583  0.9995
31020SOL    HW2  176   1.119  10.280   3.976  1.3548 -0.8425  0.8258
31021SOL     OW  177   0.924   3.273   9.213  0.1408 -0.2975 -0.5823
31021SOL    HW1  178   0.925   3.352   9.267  1.9029  0.4801 -1.6945
31021SOL    HW2  179   0.838   3.234   9.231  0.3062  0.3767  2.0850
31022SOL     OW  180   0.806  12.561  12.568  0.1868  0.0901  0.3080
31022SOL    HW1  181   0.892  12.545  12.529 -0.2746 -1.8477 -0.0018
31022SOL    HW2  182   0.766  12.628  12.512  1.7465  1.5752  0.9011
31023SOL     OW  183   0.477  10.197   1.672  0.3317  0.0759  0.3875
31023SOL    HW1  184   0.465  10.121   1.729  0.9298  0.7480  1.4309
31023SOL    HW2  185   0.547  10.172   1.612  1.2986  0.1754  1.4387
31024SOL     OW  186   0.060   9.262   5.248  0.0693  0.6222  0.2755
31024SOL    HW1  187  -0.032   9.266   5.222  0.5099  0.3827 -1.4452
31024SOL    HW2  188   0.108   9.245   5.167  1.5508 -0.2997  1.2784
31025SOL     OW  189   9.722   2.258   4.774 -0.3540  0.2818  0.0985
31025SOL    HW1  190   9.709   2.285   4.865  0.1867  0.3828  0.1529
31025SOL    HW2  191   9.643   2.210   4.751 -0.6510  0.5695  0.5075
31026SOL     OW  192   0.714   0.499   0.298  0.0333  0.1370  0.2828
31026SOL    HW1  193   0.805   0.477   0.278 -0.4729 -2.6755  0.6665
31026SOL    HW2  194   0.717   0.539   0.385  0.8728 -0.1286  0.3806
31027SOL     OW  195   2.120   0.912   9.780  0.9135  0.1064  0.2479
31027SOL    HW1  196   2.077   0.838   9.823  0.7734  0.1695  0.2162
31027SOL    HW2  197   2.050   0.957   9.732  1.4619 -1.3901 -2.1321
31028SOL     OW  198  11.263   3.054   9.078  0.3060 -0.4866  0.4432
31028SOL    HW1  199  11.204   3.002   9.132 -1.4228 -0.0528 -0.9389
31028SOL    HW2  200  11.342   3.000   9.071  0.4395 -0.7265  2.9929
31029SOL     OW  201   8.002   7.485   5.123  0.4061  0.1319 -0.3762
31029SOL    HW1  202   8.015   7.421   5.193  2.3284 -0.0441 -0.8277
31029SOL    HW2  203   8.010   7.570   5.165 -1.6824  0.1174  0.1432
31030SOL     OW  204   4.476  12.691   3.824  0.4371 -0.4308  0.8294
31030SOL    HW1  205   4.480  12.773   3.872  1.7687 -0.0710  0.1452
31030SOL    HW2  206   4.545  12.637   3.862  0.2818 -0.8236  0.5623
31031SOL     OW  207   0.330   7.932   1.348 -0.3324  0.2206  0.2468
31031SOL    HW1  208   0.255   7.921   1.290 -0.9641  2.5327  0.4993
31031SOL    HW2  209   0.311   7.879   1.424 -0.3263 -1.4603 -0.8745
31032SOL     OW  210  11.820   0.431   4.504  0.0719 -0.0493  0.1920
31032SOL    HW1  211  11.858   0.372   4.439 -1.1705  0.8088 -1.3742
31032SOL    HW2  212  11.795   0.374   4.576  1.9955 -0.9608  0.2062
31033SOL     OW  213  10.645  11.708   3.577  0.0643 -0.0255  0.2290
31033SOL    HW1  214  10.644  11.660   3.495  0.6698 -0.2115  0.3245
31033SOL    HW2  215  10.588  11.658   3.635 -0.2717  0.0437 -0.0354
31034SOL     OW  216   8.698   3.040   2.856 -0.3693  0.6237  0.6874
31034SOL    HW1  217   8.785   3.006   2.833 -0.5179  0.0573  0.9291
31034SOL    HW2  218   8.687   3.015   2.948 -1.3885 -0.6362  0.2685
31035SOL     OW  219  11.650   7.272   7.918  0.3923 -0.2818 -0.5181
31035SOL    HW1  220  11.580   7.212   7.894 -1.3406  1.4713 -0.0798
31035SOL    HW2  221  11.692   7.295   7.835 -0.8713  0.1936 -1.0397
31036SOL     OW  222  12.515   0.718  11.933 -0.2703 -0.0037  0.2190
31036SOL    HW1  223  12.442   0.773  11.905 -0.2388 -0.3068 -0.4735
31036SOL    HW2  224  12.479   0.629  11.936  0.2946 -0.2987 -1.0584
31037SOL     OW  225   0.702   0.638   0.089 -0.6363 -0.5864  0.6035
31037SOL    HW1  226   0.676   0.711   0.146 -0.4213 -1.0919  1.3682
31037SOL    HW2  227   0.712   0.564   0.149  1.0813 -0.7772  0.1168
31038SOL     OW  228  12.903   5.943   3.318  0.2999 -0.2209 -0.0352
31038SOL    HW1  229  12.896   5.876   3.386  0.6768 -0.0899  0.1342
31038SOL    HW2  230  12.873   6.024   3.360 -0.2229 -0.2928 -0.2604
31039SOL     OW  231   7.434  10.429   8.620 -0.0531  0.1687  0.0180
31039SOL    HW1  232   7.480  10.393   8.695 -0.3225  0.3574  0.2758
31039SOL    HW2  233   7.498  10.428   8.549 -0.0318 -0.7146  0.0470
31040SOL     OW  234   1.668   8.571   2.943 -0.4867  0.3236 -0.4002
31040SOL    HW1  235   1.575   8.550   2.951 -0.5754  0.4380 -1.1198
31040SOL    HW2  236   1.678   8.654   2.990 -0.7330  0.2812 -0.2697
31041SOL     OW  237   6.017   1.637   7.473 -0.1219  0.0321  0.3735
31041SOL    HW1  238   5.935   1.652   7.521  0.5922  0.6993  1.4249
31041SOL    HW2  239   6.069   1.715   7.489  0.5487 -0.1801 -0.6703
31042SOL     OW  240  11.079   0.791   1.085  0.1604  0.0836  0.9205
31042SOL    HW1  241  11.129   0.709   1.093  0.0098  0.1739  3.2741
31042SOL    HW2  242  11.137   0.849   1.035  1.2264 -0.7255  1.1711
31043SOL     OW  243   1.346   7.312   1.629  0.2519  0.2749  0.0912
31043SOL    HW1  244   1.381   7.370   1.561  1.6889 -2.1963 -1.4495
31043SOL    HW2  245   1.258   7.289   1.598 -0.3273  1.5857  0.7174
31044SOL     OW  246   8.575   5.491  12.492 -0.0413  0.8487 -0.0307
31044SOL    HW1  247   8.490   5.525  12.519  0.4547  2.8272 -0.7368
31044SOL    HW2  248   8.564   5.468  12.400 -0.7020 -2.2499  0.7333
31045SOL     OW  249  12.411  10.476   1.704  0.1277 -0.1600  0.6299
31045SOL    HW1  250  12.409  10.442   1.615  0.3071  2.2718 -0.3701
31045SOL    HW2  251  12.481  10.541   1.704  0.9243 -0.9111  2.9015
31046SOL     OW  252   0.444   2.651   1.842 -0.6290 -0.6013  0.0624
31046SOL    HW1  253   0.445   2.566   1.799  0.2462 -0.8828  0.6363
31046SOL    HW2  254   0.487   2.710   1.780 -0.1769 -0.8209  0.1664
31047SOL     OW  255  10.532   8.229   9.768  0.3383 -0.0742 -0.1575
31047SOL    HW1  256  10.469   8.161   9.743 -0.8759  1.1795 -0.6258
31047SOL    HW2  257  10.575   8.194   9.846 -0.1779 -1.4169 -0.4433
31048SOL     OW  258  11.675   3.130   5.372 -0.5353  0.0256  0.3428
31048SOL    HW1  259  11.688   3.081   5.454 -0.6690  0.2212  0.4817
31048SOL    HW2  260  11.619   3.204   5.397 -0.0649  0.4295  0.1960
31049SOL     OW  261   7.362   5.475  12.737  0.1555 -0.1734 -0.3837
31049SOL    HW1  262   7.290   5.433  12.783  0.0034  1.2284  0.7289
31049SOL    HW2  263   7.438   5.420  12.756 -0.4796 -1.3372 -1.0881
31050SOL     OW  264   5.608   6.276   7.411  0.3619  0.3115  0.7426
31050SOL    HW1  265   5.519   6.289   7.445 -0.1745 -1.6725  0.2284
31050SOL    HW2  266   5.664   6.292   7.486 -0.5351  0.2332  1.4556
31051SOL     OW  267   1.021  12.687   8.911  0.0686  0.2872  0.0165
31051SOL    HW1  268   1.077  12.764   8.902 -0.1522  0.4560  0.0649
31051SOL    HW2  269   1.007  12.658   8.821 -0.2344  0.5887 -0.0373
31052SOL     OW  270  10.532   8.646   6.624 -0.2806  0.0083  0.2594
31052SOL    HW1  271  10.445   8.626   6.588  0.6315 -4.5031 -0.0557
31052SOL    HW2  272  10.588   8.655   6.547  0.1180 -0.8233  0.4351
31053SOL     OW  273   5.280   6.264   1.551 -0.0151  0.4635 -0.3285
31053SOL    HW1  274   5.350   6.317   1.514  0.0550  0.8529  0.3532
31053SOL    HW2  275   5.326   6.196   1.600 -0.1152  0.3908 -0.3358
31054SOL     OW  276  10.233  12.139  11.998  0.1843 -0.0721 -0.4586
31054SOL    HW1  277  10.318  12.115  11.959 -0.1639 -0.3981 -1.0276
31054SOL    HW2  278  10.229  12.234  11.990  0.2780 -0.1007 -0.9022
31055SOL     OW  279   5.443   7.803  10.846 -0.1089 -0.4092  0.1602
31055SOL    HW1  280   5.371   7.864  10.861 -1.4574 -2.0882  0.8170
31055SOL    HW2  281   5.444   7.789  10.751  0.0148  0.3851  0.0394
31056SOL     OW  282  10.901  10.635   6.451 -0.2839 -0.6574  0.0397
31056SOL    HW1  283  10.877  10.641   6.544 -1.3281  0.2546 -0.2696
31056SOL    HW2  284  10.881  10.545   6.427 -2.5237 -0.2285  0.0727
31057SOL     OW  285   1.243  10.292   7.711  0.1040  0.4438 -0.1955
31057SOL    HW1  286   1.238  10.225   7.643 -1.6294 -0.5754  0.8846
31057SOL    HW2  287   1.156  10.331   7.713 -1.5421 -2.6351  4.3711
31058SOL     OW  288  12.949   8.926   4.119 -0.3732 -0.0668  0.0944
31058SOL    HW1  289  12.920   8.851   4.171  0.0831  0.6183  1.3599
31058SOL    HW2  290  12.927   9.003   4.172  0.6674  0.6199 -0.4410
31059SOL     OW  291   0.390  12.248   3.724 -0.6042  0.0870  0.6313
31059SOL    HW1  292   0.330  12.187   3.682  1.7892 -1.0742 -1.3539
31059SOL    HW2  293   0.387  12.326   3.670 -0.9079  0.3348  1.0015
31060SOL     OW  294   7.941   1.163   7.131 -0.2521 -0.1270 -0.0597
31060SOL    HW1  295   7.907   1.207   7.053 -2.9679 -0.7622  0.6613
31060SOL    HW2  296   7.909   1.215   7.204  0.3793 -0.7632  0.6854
31061SOL     OW  297   9.812   1.512   6.166 -0.4441  0.4163 -0.3611
31061SOL    HW1  298   9.890   1.460   6.187 -0.7981 -0.4599 -1.1325
31061SOL    HW2  299   9.824   1.536   6.074 -2.2850 -2.0062 -1.3544
31062SOL     OW  300   7.197  11.251   3.177  0.1766 -0.6530  0.7021
31062SOL    HW1  301   7.103  11.236   3.175  0.2241 -0.9100  0.3619
31062SOL    HW2  302   7.236  11.164   3.169  0.4487 -0.4223 -0.9825
31063SOL     OW  303   9.273   4.939   8.951  0.1520 -0.0990 -0.2693
31063SOL    HW1  304   9.295   5.032   8.944 -0.3532  0.4789  3.7200
31063SOL    HW2  305   9.357   4.895   8.962  0.2462  0.2262  0.3353
31064SOL     OW  306   6.388  10.872   7.810  0.9141  0.0870  0.3689
31064SOL    HW1  307   6.454  10.803   7.802 -1.0934 -1.8858 -0.0071
31064SOL    HW2  308   6.370  10.878   7.904 -0.5626 -1.6233  0.2416
31065SOL     OW  309   3.025  10.390   2.854  0.4319 -0.3343 -0.5123
31065SOL    HW1  310   3.033  10.484   2.836  1.4317  0.0895  1.7833
31065SOL    HW2  311   3.057  10.380   2.944 -0.3461 -2.7799 -0.4317
31066SOL     OW  312  10.336  10.822   0.082  0.1523 -0.3820 -0.3920
31066SOL    HW1  313  10.357  10.851  -0.006  0.5464  0.8412  0.0882
31066SOL    HW2  314  10.369  10.731   0.085  0.3586 -0.3541 -1.4087
31067SOL     OW  315   0.964   6.699   8.310  0.3156  0.3239 -0.3359
31067SOL    HW1  316   1.036   6.726   8.253 -0.0754  0.1304 -0.9326
31067SOL    HW2  317   0.962   6.765   8.379  0.9964  0.3908 -0.3672
31068SOL     OW  318   5.501   7.280   4.039 -0.4595  0.1675  0.3029
31068SOL    HW1  319   5.525   7.334   3.964 -0.3885 -0.1340  0.1030
31068SOL    HW2  320   5.553   7.200   4.028 -0.0358  0.3358  0.9659
31069SOL     OW  321   7.087  11.531   8.026 -0.2547 -0.2260 -0.5775
31069SOL    HW1  322   6.995  11.555   8.038 -0.2031 -0.2879 -0.0207
31069SOL    HW2  323   7.135  11.595   8.080  0.1379  0.7839 -2.0787
31070SOL     OW  324  10.359   2.097   3.827 -0.2480 -0.1176  0.0432
31070SOL    HW1  325  10.409   2.179   3.825  1.7601 -1.2894 -0.7715
31070SOL    HW2  326  10.337   2.084   3.919  0.9568  0.4515  0.4243
31071SOL     OW  327  10.268   1.904   5.890 -0.3135  0.4066 -0.2730
31071SOL    HW1  328  10.294   1.960   5.818 -0.5073  1.4091  0.4255
31071SOL    HW2  329  10.299   1.949   5.969  0.9848 -1.2527  0.2325
31072SOL     OW  330   7.442   8.758  11.414  0.3302 -0.0344 -0.7015
31072SOL    HW1  331   7.502   8.753  11.340  1.0411  2.1275 -0.3220
31072SOL    HW2  332   7.478   8.826  11.471 -0.6512 -1.0411  1.2374
31073SOL     OW  333   7.262   4.186   2.982 -0.1844  0.3162 -0.2167
31073SOL    HW1  334   7.172   4.218   2.974 -0.6723 -0.7948  0.6586
31073SOL    HW2  335   7.262   4.129   3.059  0.7826 -1.3350 -1.3718
31074SOL     OW  336   7.533   9.653   1.032 -0.2095  0.5560  0.1862
31074SOL    HW1  337   7.625   9.640   1.012  0.4890  0.9150  2.8644
31074SOL    HW2  338   7.489   9.575   0.997  1.4600 -0.8074  1.0246
31075SOL     OW  339   2.399   6.722   2.462 -0.1660 -0.1296  0.0912
31075SOL    HW1  340   2.377   6.752   2.550 -1.6244 -0.3825 -0.1562
31075SOL    HW2  341   2.367   6.632   2.458 -1.2816  0.2702 -1.0644
31076SOL     OW  342  12.118   1.011   1.577  0.7286 -0.2386  0.0467
31076SOL    HW1  343  12.076   1.023   1.492  0.4294  0.5243  0.2981
31076SOL    HW2  344  12.211   1.002   1.557  0.5707 -0.8856 -0.4257
31077SOL     OW  345   5.860   8.941  11.801 -0.0829 -0.0540  0.6887
31077SOL    HW1  346   5.797   8.951  11.729  0.3865 -1.1076  0.1004
31077SOL    HW2  347   5.945   8.952  11.759  0.2052 -0.9128  1.0308
31078SOL     OW  348   5.177   6.651  11.732  0.1733 -0.5431 -0.1828
31078SOL    HW1  349   5.239   6.594  11.686 -0.1066 -0.9063 -0.1190
31078SOL    HW2  350   5.114   6.590  11.772 -0.6239 -0.1603 -0.8262
31079SOL     OW  351   1.209   6.019   0.736 -0.2197 -0.1318  0.0395
31079SOL    HW1  352   1.225   5.942   0.681 -0.3367 -0.6131  0.6614
31079SOL    HW2  353   1.288   6.072   0.727 -0.3996 -0.0061 -0.8941
31080SOL     OW  354   5.146   3.920   3.599  0.3252 -0.3177  0.4839
31080SOL    HW1  355   5.167   4.005   3.636 -4.1239  0.5943  1.4967
31080SOL    HW2  356   5.141   3.935   3.505 -0.4083  0.5621  0.6577
31081SOL     OW  357   2.839  10.634   1.054 -0.7691  0.1312 -0.4271
31081SOL    HW1  358   2.790  10.714   1.072 -1.3115 -0.5632  1.4497
31081SOL    HW2  359   2.904  10.630   1.125 -0.6384 -0.9855 -0.5985
31082SOL     OW  360  10.508   3.426  10.625 -0.7884  0.1642  0.3652
31082SOL    HW1  361  10.499   3.514  10.663  0.9561  0.7670 -0.4898
31082SOL    HW2  362  10.586   3.390  10.666 -0.6046 -0.3595 -0.4183
31083SOL     OW  363  12.696  12.944   2.857  0.8224  0.3126  0.6466
31083SOL    HW1  364  12.718  13.037   2.859  1.6465  0.1224  0.7388
31083SOL    HW2  365  12.624  12.938   2.795  0.9375  0.9810  0.4423
31084SOL     OW  366   8.526   0.509  11.501 -0.2088  0.0478 -0.6859
31084SOL    HW1  367   8.615   0.537  11.477  0.2242  1.6253  2.2839
31084SOL    HW2  368   8.535   0.415  11.519  1.1050  0.3313  0.3430
31085SOL     OW  369   5.828  10.832   7.265  0.4473 -0.3629  0.0864
31085SOL    HW1  370   5.868  10.771   7.327 -0.0878 -0.0601  0.7459
31085SOL    HW2  371   5.764  10.780   7.216  1.9305 -0.9557 -1.2933
31086SOL     OW  372   4.959  11.233   7.511  0.1520 -0.0485  0.6380
31086SOL    HW1  373   5.024  11.267   7.573  0.5380 -1.4646  1.0457
31086SOL    HW2  374   5.007  11.224   7.429 -0.2129  1.2806  0.2428
31087SOL     OW  375   8.840   4.419   6.225  0.3515 -0.4156  0.1755
31087SOL    HW1  376   8.865   4.503   6.188  0.1098 -0.3705  0.1138
31087SOL    HW2  377   8.807   4.440   6.312  1.0012 -0.5314  0.4620
31088SOL     OW  378   2.771   3.339   1.612 -0.4601 -0.2331  0.0906
31088SOL    HW1  379   2.819   3.303   1.687  0.8098 -0.2626 -0.6932
31088SOL    HW2  380   2.829   3.408   1.578  0.1071 -1.7549 -2.2419
31089SOL     OW  381   0.359   2.910   2.550 -0.2505 -0.0490 -0.4115
31089SOL    HW1  382   0.296   2.974   2.518  0.2363  0.8865  0.4297
31089SOL    HW2  383   0.420   2.962   2.604  0.3797 -1.1574 -0.0327
31090SOL     OW  384   9.036   2.991   0.628  0.2668 -0.1604 -0.3983
31090SOL    HW1  385   9.062   3.069   0.678  0.1156 -0.4046  0.0683
31090SOL    HW2  386   9.056   3.013   0.537  0.8334  0.1754 -0.1991
31091SOL     OW  387   8.793   3.030   7.273 -0.2897 -0.2441  0.6286
31091SOL    HW1  388   8.753   2.951   7.237  0.4599  0.2289 -1.3958
31091SOL    HW2  389   8.729   3.062   7.336 -1.9688 -0.8808 -0.6543
31092SOL     OW  390   1.426   4.354   3.274  0.7057  0.4861  0.0932
31092SOL    HW1  391   1.435   4.434   3.327  0.6093 -0.2050  1.2018
31092SOL    HW2  392   1.365   4.377   3.205 -0.1233  1.0947  0.9984
31093SOL     OW  393  10.485   6.659   1.250  0.0221  0.0674 -0.2977
31093SOL    HW1  394  10.567   6.676   1.295 -0.3116  0.7744  0.0628
31093SOL    HW2  395  10.441   6.593   1.303 -0.1634  0.5577  0.1693
31094SOL     OW  396   5.770   0.444   9.780 -0.3223  0.2652 -0.2059
31094SOL    HW1  397   5.699   0.491   9.824  0.9474  0.4091  1.7932
31094SOL    HW2  398   5.795   0.375   9.840  1.2831  0.2662 -0.8192
31095SOL     OW  399   3.373   1.359  11.824 -0.0734 -0.2014  0.0765
31095SOL    HW1  400   3.325   1.345  11.743 -0.6199 -2.0122  0.6513
31095SOL    HW2  401   3.323   1.426  11.870 -1.5462 -1.3246  0.2158
31096SOL     OW  402  10.704   3.569  10.146 -0.0024 -0.0496  0.0420
31096SOL    HW1  403  10.695   3.473  10.144  0.4541 -0.0908 -0.2638
31096SOL    HW2  404  10.645   3.597  10.216  0.4078 -0.6195  0.6406
31097SOL     OW  405   4.839  10.516   3.858  0.2262 -0.3746  0.2958
31097SOL    HW1  406   4.930  10.521   3.831  0.2015 -0.6687  0.1550
31097SOL    HW2  407   4.837  10.450   3.926  0.3344  0.5677  1.2380
31098SOL     OW  408   7.616   3.068   2.048 -0.1212  0.1678  0.1523
31098SOL    HW1  409   7.672   2.990   2.048 -0.8703 -0.3896  0.9791
31098SOL    HW2  410   7.621   3.101   2.138  0.9002  1.6280 -0.3939
31099SOL     OW  411  12.472   8.543   0.685 -0.1286  0.2072 -0.2341
31099SOL    HW1  412  12.499   8.552   0.594  0.0144  1.5424 -0.0819
31099SOL    HW2  413  12.422   8.622   0.703 -0.5164 -0.2459  0.7252
31100SOL     OW  414   5.503   9.192  11.053 -0.0640 -0.0543 -0.1771
31100SOL    HW1  415   5.496   9.268  10.996  0.5506  0.2692  0.1669
31100SOL    HW2  416   5.484   9.225  11.140  1.6839  0.0561  0.2127
31101SOL     OW  417   9.629  12.657   4.022  0.0004  0.1823  0.2077
31101SOL    HW1  418   9.538  12.669   3.997  0.3149  2.9052  0.1558
31101SOL    HW2  419   9.679  12.680   3.944  0.7855  0.3117  0.7391
31102SOL     OW  420  10.442  11.466  11.385 -0.0596  0.4683 -0.0091
31102SOL    HW1  421  10.527  11.498  11.413  0.2896  0.7526 -1.3174
31102SOL    HW2  422  10.427  11.388  11.438  0.8964  0.5582  0.4148
31103SOL     OW  423   3.948   5.443   4.066 -0.1494  0.4009  0.3152
31103SOL    HW1  424   4.039   5.419   4.050 -0.1679  1.4087 -1.4612
31103SOL    HW2  425   3.897   5.376   4.021 -0.2984  0.0280  1.0235
31104SOL     OW  426  11.100   9.943   4.037  0.3768  0.5505 -0.6786
31104SOL    HW1  427  11.030   9.887   4.003  0.3445  0.1271  0.0579
31104SOL    HW2  428  11.123   9.904   4.121  0.7363  1.3317 -0.4045
31105SOL     OW  429  12.697   6.450   0.420  0.3113 -0.0690 -0.0538
31105SOL    HW1  430  12.623   6.509   0.435  0.9825  0.6142  0.6268
31105SOL    HW2  431  12.661   6.362   0.434 -0.4466  0.2355 -0.0576
31106SOL     OW  432  12.129   2.479   3.300  0.1002  0.3671  0.2389
31106SOL    HW1  433  12.182   2.544   3.255 -1.0210  1.4104  0.3690
31106SOL    HW2  434  12.186   2.444   3.368  0.7154  1.2292  0.1803
31107SOL     OW  435   3.680   1.645   4.413  0.1801  0.0332  0.4746
31107SOL    HW1  436   3.640   1.690   4.488 -1.8336  0.3162 -0.6844
31107SOL    HW2  437   3.674   1.552   4.436 -0.0772  0.1359  0.8421
31108SOL     OW  438   8.232   8.255  12.494  0.1156  0.2205 -0.3829
31108SOL    HW1  439   8.162   8.302  12.448  0.3847  1.6749  0.6314
31108SOL    HW2  440   8.238   8.171  12.449  0.0907  1.4053 -2.7494
31109SOL     OW  441   5.630   2.027   1.416 -0.0177  0.5525  0.4414
31109SOL    HW1  442   5.550   2.080   1.409 -0.5198 -0.0872  1.1367
31109SOL    HW2  443   5.697   2.078   1.370 -0.4232  1.8924  1.2864
31110SOL     OW  444   5.906  11.558   1.289 -0.2998 -0.6665 -0.0311
31110SOL    HW1  445   5.883  11.638   1.241 -0.0639 -0.5989 -0.0322
31110SOL    HW2  446   5.880  11.487   1.230 -2.4241 -0.6629  0.7924
31111SOL     OW  447   7.636   6.899   9.151  0.5761  0.0150 -0.2894
31111SOL    HW1  448   7.550   6.883   9.190  0.2158  0.5744 -0.8357
31111SOL    HW2  449   7.690   6.826   9.181  0.1059  0.0310  0.6371
31112SOL     OW  450   2.679   6.837   0.560  0.0525 -0.3178  0.3733
31112SOL    HW1  451   2.687   6.829   0.465 -3.0641  0.3249 -0.0468
31112SOL    HW2  452   2.680   6.747   0.592 -1.6144 -0.7503 -0.6464
31113SOL     OW  453   2.811   4.438   2.644 -0.1418  0.2289 -0.0507
31113SOL    HW1  454   2.750   4.489   2.590 -0.9426 -0.2933  0.3290
31113SOL    HW2  455   2.795   4.347   2.618  1.9018  0.1928 -1.3735
31114SOL     OW  456   0.271   0.125   9.336  0.0805 -0.2012  0.1403
31114SOL    HW1  457   0.365   0.108   9.336  0.0020 -0.6490  0.7727
31114SOL    HW2  458   0.237   0.079   9.413 -1.1678 -3.0393 -1.9077
31115SOL     OW  459  11.312   0.417   5.527 -0.7644 -0.3246 -0.5317
31115SOL    HW1  460  11.342   0.352   5.590 -1.5366  0.1150  0.3212
31115SOL    HW2  461  11.390   0.467   5.503 -0.0989 -1.7677 -1.4681
31116SOL     OW  462  10.707   0.199   5.222 -0.3069 -0.2601  0.0396
31116SOL    HW1  463  10.719   0.250   5.142  0.3572  0.2500  0.4500
31116SOL    HW2  464  10.714   0.264   5.293 -3.2061 -0.2896  0.4635
31117SOL     OW  465  10.031   3.311   4.048 -0.6044  0.4999  0.0968
31117SOL    HW1  466  10.105   3.320   4.108 -1.6855 -0.7671  1.7380
31117SOL    HW2  467   9.972   3.383   4.072 -0.5155  0.6891 -0.2545
31118SOL     OW  468   8.353  12.221   3.177 -0.2505 -0.3051  0.7288
31118SOL    HW1  469   8.360  12.140   3.126  1.7527  0.4723 -0.3723
31118SOL    HW2  470   8.260  12.243   3.174 -0.6200 -1.7937 -0.1709
31119SOL     OW  471   6.352   7.348   7.634 -0.2019 -0.2570 -0.8819
31119SOL    HW1  472   6.437   7.388   7.656 -1.0441  1.3440 -0.3656
31119SOL    HW2  473   6.335   7.375   7.544 -0.4532 -0.0284 -0.7674
31120SOL     OW  474   8.952  11.172   1.011 -0.1656 -0.0369 -0.4525
31120SOL    HW1  475   9.043  11.161   1.039  0.2563 -0.6688 -1.9410
31120SOL    HW2  476   8.923  11.251   1.055  1.2645  0.4434 -0.3095
31121SOL     OW  477   7.573   2.643  10.568 -0.4262 -0.3805  0.0820
31121SOL    HW1  478   7.555   2.674  10.656  0.7885  0.8639 -0.0898
31121SOL    HW2  479   7.487   2.643  10.524 -0.6662  1.4775  0.4913
31122SOL     OW  480   3.560  12.153  11.826 -0.1552  0.5021  0.0026
31122SOL    HW1  481   3.517  12.113  11.750  1.3172 -0.1020 -0.5441
31122SOL    HW2  482   3.502  12.133  11.899 -0.8403 -0.2091 -0.7100
31123SOL     OW  483   1.024   3.729   2.769  0.0113  0.4483 -0.3145
31123SOL    HW1  484   1.100   3.774   2.732 -1.3437  1.9202 -1.4967
31123SOL    HW2  485   0.977   3.696   2.692  0.1007 -1.5981  0.4631
31124SOL     OW  486  12.118  11.271   4.694 -0.1889 -0.1935  0.1544
31124SOL    HW1  487  12.209  11.290   4.718 -0.1325 -0.9718  0.5779
31124SOL    HW2  488  12.093  11.197   4.750 -2.1552  2.0427  2.5123
31125SOL     OW  489   4.638   9.564   4.137 -0.2561 -0.0078 -0.3370
31125SOL    HW1  490   4.664   9.639   4.083  0.3774 -0.0934 -0.1684
31125SOL    HW2  491   4.713   9.551   4.196 -0.6321 -0.3738  0.0637
31126SOL     OW  492   3.346   3.128   8.928  0.2060 -0.1272 -0.1713
31126SOL    HW1  493   3.314   3.045   8.894  2.8595 -0.7436 -1.3894
31126SOL    HW2  494   3.330   3.123   9.022 -2.3737 -0.6799 -0.5462
31127SOL     OW  495   9.743   1.829  12.745  0.0120 -0.0467 -0.1638
31127SOL    HW1  496   9.759   1.850  12.837 -1.5329  1.2483 -0.1436
31127SOL    HW2  497   9.760   1.735  12.739 -1.3587 -0.4936  1.8206
31128SOL     OW  498   8.996   7.733   1.155 -0.3863  0.1412  0.1658
31128SOL    HW1  499   9.040   7.716   1.238 -0.3848  1.4885  0.4612
31128SOL    HW2  500   8.935   7.805   1.175  0.2168  1.0626 -1.1778
31129SOL     OW  501   6.224   7.454   5.026  0.2749 -0.3678 -0.1718
31129SOL    HW1  502   6.223   7.537   4.979  0.7756 -1.0480 -1.4521
31129SOL    HW2  503   6.272   7.394   4.968 -1.7416 -2.0622 -0.2093
31130SOL     OW  504  11.369   4.967   7.911  0.1627 -0.1344 -0.1302
31130SOL    HW1  505  11.457   4.994   7.888  0.2415 -1.8362 -2.0835
31130SOL    HW2  506  11.359   4.879   7.873 -2.2778 -0.0992  0.2245
31131SOL     OW  507  12.588  11.650   6.299  0.3815 -0.2102 -0.2687
31131SOL    HW1  508  12.640  11.710   6.245  0.3533 -0.0868 -0.1600
31131SOL    HW2  509  12.569  11.576   6.242 -0.1378  0.1814 -0.6124
31132SOL     OW  510   6.190   5.400   8.513  0.1762 -0.3740  0.2160
31132SOL    HW1  511   6.270   5.353   8.535  0.4727  0.4208  0.8741
31132SOL    HW2  512   6.143   5.341   8.454  1.7684 -0.3626 -1.1306
31133SOL     OW  513   7.271   7.276   3.041 -0.0205 -0.4547 -0.0765
31133SOL    HW1  514   7.325   7.230   3.106  2.4943  0.9974 -0.9955
31133SOL    HW2  515   7.202   7.214   3.020  1.0972 -2.3502  1.4146
31134SOL     OW  516   3.065   1.050   4.944 -0.4250  0.0947 -0.1641
31134SOL    HW1  517   3.148   1.071   4.988 -0.1161 -0.4302 -0.4814
31134SOL    HW2  518   3.002   1.113   4.980 -0.6425 -1.4186  2.4274
31135SOL     OW  519   6.236   8.960   5.828 -0.3520  0.2626 -0.7968
31135SOL    HW1  520   6.270   8.871   5.822  1.0248  0.8396 -2.1429
31135SOL    HW2  521   6.141   8.949   5.825 -0.2071 -1.1651 -0.9364
31136SOL     OW  522   5.280   0.986   5.549  0.2060  0.7462  0.2312
31136SOL    HW1  523   5.368   0.960   5.520  0.1666 -0.8214  1.4004
31136SOL    HW2  524   5.296   1.054   5.615  0.6982 -0.8128  1.8017
31137SOL     OW  525   3.403   2.150  10.275 -0.1849  0.6796 -0.2335
31137SOL    HW1  526   3.329   2.197  10.237  0.2228  2.2908  0.8819
31137SOL    HW2  527   3.473   2.214  10.278  0.8970 -0.4758 -0.1308
31138SOL     OW  528   3.222   6.764   6.341  0.3819 -0.4712 -0.3028
31138SOL    HW1  529   3.149   6.769   6.279  0.5911 -1.6769 -0.6656
31138SOL    HW2  530   3.300   6.764   6.286  0.5943 -0.8117 -0.0060
31139SOL     OW  531  11.116   9.090   4.928  0.1942 -0.1161  0.0061
31139SOL    HW1  532  11.107   9.182   4.904 -3.0879 -0.1970  0.4801
31139SOL    HW2  533  11.063   9.043   4.863 -0.1098 -1.3982  1.1199
31140SOL     OW  534   7.738  11.506   7.955  0.3441 -0.3152  0.5097
31140SOL    HW1  535   7.774  11.593   7.972  1.4035 -0.7153  0.4421
31140SOL    HW2  536   7.761  11.489   7.863 -0.0336 -0.5893  0.4634
31141SOL     OW  537   0.349   2.397   0.358  0.4966  0.3691  0.0381
31141SOL    HW1  538   0.435   2.413   0.320  0.3764 -1.1862 -0.9342
31141SOL    HW2  539   0.341   2.302   0.363 -1.1589  0.4784  0.1300
31142SOL     OW  540   5.597   5.756   7.652  0.1098 -0.1647  0.6709
31142SOL    HW1  541   5.673   5.739   7.597  0.4152  1.9091  0.3776
31142SOL    HW2  542   5.580   5.673   7.695  1.3245 -1.2017 -0.7468
31143SOL     OW  543   4.949   0.625   1.953  0.4887  0.1041  0.2393
31143SOL    HW1  544   4.944   0.718   1.973  0.7313  0.4042 -0.9892
31143SOL    HW2  545   5.040   0.601   1.971  0.8134  0.4674 -0.8312
31144SOL     OW  546   2.828   6.862   0.884 -0.4668  0.2958 -0.0825
31144SOL    HW1  547   2.758   6.804   0.916 -0.0191  0.1180  0.5843
31144SOL    HW2  548   2.898   6.852   0.947  0.5281 -0.2095 -1.2337
31145SOL     OW  549  10.114   0.820  10.314 -0.0491  0.4431 -0.5615
31145SOL    HW1  550  10.118   0.882  10.241  0.5170 -1.1024 -1.9102
31145SOL    HW2  551  10.116   0.734  10.272  0.9455 -0.5097  1.3206
31146SOL     OW  552   1.674   0.005   9.956  0.4923 -0.3604 -0.1278
31146SOL    HW1  553   1.634   0.087   9.929  0.2824  0.4217  2.3438
31146SOL    HW2  554   1.602  -0.058   9.956  0.3444 -0.1958 -0.5800
31147SOL     OW  555   5.774   7.314   2.540  0.2162  0.1381 -0.2784
31147SOL    HW1  556   5.825   7.352   2.611  0.7845  0.8326 -1.0353
31147SOL    HW2  557   5.829   7.325   2.462 -1.3589  1.6157 -1.2640
31148SOL     OW  558  11.142  12.559   8.289  0.3699  0.1599 -0.5146
31148SOL    HW1  559  11.192  12.547   8.208  0.5258 -0.0762 -0.3843
31148SOL    HW2  560  11.131  12.470   8.324  2.2109  0.4053  0.8771
31149SOL     OW  561   5.256   8.089   1.939  0.2241 -0.3246  0.1385
31149SOL    HW1  562   5.286   8.017   1.995 -1.6310 -0.4222  1.0667
31149SOL    HW2  563   5.179   8.123   1.983  0.3784  1.4866 -0.9078
31150SOL     OW  564   7.693   3.448   3.843  0.0479  0.1129 -0.0582
31150SOL    HW1  565   7.766   3.408   3.794 -1.6124 -2.8620 -0.3757
31150SOL    HW2  566   7.680   3.533   3.801  1.8240 -0.2674 -1.5305
31151SOL     OW  567   8.509   9.113  10.171  0.2927 -0.1167  0.1766
31151SOL    HW1  568   8.538   9.107  10.080  0.8850 -0.4916  0.3829
31151SOL    HW2  569   8.423   9.071  10.172 -0.6038  1.6034 -0.5774
31152SOL     OW  570   2.505  12.110   9.704  0.0509 -0.1522  0.2458
31152SOL    HW1  571   2.417  12.140   9.725  0.4070  0.1488  1.3773
31152SOL    HW2  572   2.550  12.106   9.789  0.3932 -2.6738  0.0302
31153SOL     OW  573   7.919  12.001   3.264  0.3660  0.1743 -0.7048
31153SOL    HW1  574   7.854  12.039   3.323  0.2965 -0.5417 -0.3051
31153SOL    HW2  575   7.993  11.979   3.321  0.6062  0.1760 -1.0122
31154SOL     OW  576  11.416  11.223  11.036 -0.4744 -0.1906  0.2558
31154SOL    HW1  577  11.463  11.256  10.960  1.9967  0.4965  1.9505
31154SOL    HW2  578  11.325  11.245  11.019  0.4492  3.5078 -0.8196
31155SOL     OW  579   4.346   0.925   0.309  0.1883 -0.0852  0.1921
31155SOL    HW1  580   4.427   0.960   0.271  0.2508  0.2831  0.6611
31155SOL    HW2  581   4.351   0.947   0.401 -0.5377  0.1024  0.1931
31156SOL     OW  582  12.314   7.214   2.050  0.2588  0.4183 -0.1700
31156SOL    HW1  583  12.303   7.308   2.062  0.2415  0.3111  0.7134
31156SOL    HW2  584  12.324   7.179   2.138  3.0632 -0.0552 -0.5686
31157SOL     OW  585   0.855   5.230   4.210  0.6280  0.0972  0.2091
31157SOL    HW1  586   0.768   5.226   4.171  0.7404 -1.0411  0.0593
31157SOL    HW2  587   0.877   5.324   4.209 -0.0199  0.2572 -0.9918
31158SOL     OW  588   3.492   4.539  10.967 -0.1887 -0.6022 -0.0839
31158SOL    HW1  589   3.564   4.588  10.927 -1.7601  1.3337 -0.7226
31158SOL    HW2  590   3.436   4.606  11.007 -1.8769 -1.9780  0.0090
31159SOL     OW  591   1.917  10.782   2.645  0.1265 -0.6988 -0.2093
31159SOL    HW1  592   1.991  10.834   2.673  0.0609  0.3019 -1.7752
31159SOL    HW2  593   1.940  10.692   2.669  1.2016 -0.2346  0.5699
31160SOL     OW  594   5.539   8.047   3.705 -0.1372  0.2546  0.4950
31160SOL    HW1  595   5.460   8.025   3.754 -0.7661 -0.6808 -0.8774
31160SOL    HW2  596   5.523   8.136   3.673 -0.7840 -0.0406 -0.0281
31161SOL     OW  597  10.923  11.461   4.665 -0.0583 -0.0295 -0.0843
31161SOL    HW1  598  10.922  11.474   4.570 -1.9783 -0.7187 -0.1898
31161SOL    HW2  599  10.881  11.376   4.679  1.7089 -0.7515  1.3053
31162SOL     OW  600   5.939   0.869   2.665  0.4295  0.4715 -0.1657
31162SOL    HW1  601   5.926   0.963   2.680  1.4504  0.4856  0.8016
31162SOL    HW2  602   5.862   0.842   2.616 -0.5798  1.5319  0.7664
31163SOL     OW  603  12.674   3.420  11.933  0.0650  0.4173  0.0415
31163SOL    HW1  604  12.622   3.341  11.948  1.0499 -0.1460  0.6528
31163SOL    HW2  605  12.737   3.394  11.866  0.6899  0.5315  0.5752
31164SOL     OW  606   2.050   7.134   9.341 -0.0317 -0.1462 -0.5699
31164SOL    HW1  607   2.114   7.133   9.270  1.2231 -2.9012  0.4699
31164SOL    HW2  608   1.967   7.158   9.299  1.4277  2.6533 -2.0969
31165SOL     OW  609   6.782   7.319  12.344  0.0630  0.0816 -0.5835
31165SOL    HW1  610   6.752   7.395  12.394  1.4295 -0.6140  1.4593
31165SOL    HW2  611   6.744   7.244  12.390  1.0143 -0.5751 -0.8314
31166SOL     OW  612   1.040   4.010   4.984  0.1245  0.1731 -0.2543
31166SOL    HW1  613   1.104   3.946   5.015  1.5951  0.5271 -2.3274
31166SOL    HW2  614   1.088   4.062   4.919 -2.1553  0.7230 -1.6042
31167SOL     OW  615  10.305   7.653  12.162 -0.0092 -0.4479  0.7575
31167SOL    HW1  616  10.331   7.745  12.166 -1.3250  0.0935 -1.4641
31167SOL    HW2  617  10.228   7.647  12.220 -0.6880  0.1706 -0.0571
31168SOL     OW  618   1.517   6.165   4.794 -0.0446  0.1999  0.6445
31168SOL    HW1  619   1.519   6.227   4.868 -1.9099  0.3138  0.6395
31168SOL    HW2  620   1.437   6.114   4.808 -0.1251 -0.1679 -0.9900
31169SOL     OW  621   8.958   0.020   9.669  0.7269 -0.2530 -0.0563
31169SOL    HW1  622   8.973  -0.062   9.622 -1.9269 -0.2409 -1.1081
31169SOL    HW2  623   8.989   0.003   9.758 -1.2984 -3.0740  0.2510
31170SOL     OW  624   5.807   8.864   3.197  0.3646  0.1352  0.5719
31170SOL    HW1  625   5.732   8.868   3.138  0.2977  1.1882  0.6959
31170SOL    HW2  626   5.788   8.929   3.264  1.4830  0.5980  0.4728
31171SOL     OW  627   9.774   3.155   2.274  0.4419  0.1453 -0.1593
31171SOL    HW1  628   9.819   3.187   2.196  0.2387  2.0534  0.4429
31171SOL    HW2  629   9.779   3.060   2.268  1.1418  0.2620 -2.0702
31172SOL     OW  630   3.291   8.782  12.237 -0.0692 -0.1860 -0.3289
31172SOL    HW1  631   3.339   8.725  12.297  0.3135  1.1873  0.7299
31172SOL    HW2  632   3.360   8.836  12.197 -0.2939 -1.1916 -2.1810
31173SOL     OW  633   9.177   0.249   1.056 -0.7878 -0.0222  0.2707
31173SOL    HW1  634   9.151   0.340   1.043 -2.3783 -0.6828 -1.6769
31173SOL    HW2  635   9.207   0.245   1.147 -4.9077  1.5123  1.9228
31174SOL     OW  636   1.915   2.952   5.984 -0.2134 -0.6536  0.4943
31174SOL    HW1  637   1.831   2.913   5.960 -0.3838 -0.2678  0.4528
31174SOL    HW2  638   1.980   2.897   5.941 -0.4763 -0.5610 -0.0274
31175SOL     OW  639  11.318   6.043  10.466 -0.6030 -0.4012  0.1946
31175SOL    HW1  640  11.262   6.116  10.492  1.6485  1.2022  0.8375
31175SOL    HW2  641  11.344   6.063  10.376  1.0771  0.3870  0.8033
31176SOL     OW  642   3.971  10.468   5.730  0.3444 -0.1275 -0.1596
31176SOL    HW1  643   3.955  10.374   5.739  1.4279 -0.1469  2.7512
31176SOL    HW2  644   4.057  10.473   5.688  2.6772 -0.7751  3.9589
31177SOL     OW  645   9.813   2.536   0.414  0.0136  0.1727  0.0221
31177SOL    HW1  646   9.882   2.547   0.349 -1.1848  0.2520 -1.2778
31177SOL    HW2  647   9.817   2.443   0.438 -0.7796 -0.3295 -1.6486
31178SOL     OW  648   7.572   3.306   7.249 -0.3979 -0.3650 -0.4791
31178SOL    HW1  649   7.625   3.230   7.273  1.8882  0.7032 -1.7784
31178SOL    HW2  650   7.584   3.368   7.321  3.0994  1.2153 -2.1884
31179SOL     OW  651   3.995   0.836   9.297 -0.0008  0.2658  0.6200
31179SOL    HW1  652   4.085   0.823   9.266  0.1230  1.1649  0.5769
31179SOL    HW2  653   3.992   0.789   9.380  0.8997  1.2520  1.2436
31180SOL     OW  654   6.895   6.202   6.866  0.0691  0.1491 -0.1729
31180SOL    HW1  655   6.959   6.264   6.902 -1.1615  1.3409  0.0272
31180SOL    HW2  656   6.820   6.207   6.925  0.6299 -3.0442  1.0272
31181SOL     OW  657   4.600   8.773   2.323 -0.4124  0.0050  0.0534
31181SOL    HW1  658   4.534   8.829   2.282  0.9696  1.0022 -0.9041
31181SOL    HW2  659   4.674   8.832   2.339  1.6751 -1.7587 -2.3436
31182SOL     OW  660   5.301   8.198   0.528  0.0757  0.1105 -0.0597
31182SOL    HW1  661   5.220   8.171   0.572 -0.2525  2.1836  0.7478
31182SOL    HW2  662   5.276   8.208   0.436 -0.7030  1.0031  0.2257
31183SOL     OW  663  12.968   2.916  12.270  0.3045 -0.4306  0.4330
31183SOL    HW1  664  13.022   2.928  12.348 -0.9370 -1.1539  1.4269
31183SOL    HW2  665  12.941   3.004  12.245  1.0788 -0.1592  0.5417
31184SOL     OW  666  12.235   5.232   4.586  0.2683  0.3410 -0.0930
31184SOL    HW1  667  12.240   5.221   4.681 -1.3320  1.7631  0.2010
31184SOL    HW2  668  12.175   5.163   4.557  0.3036  0.2741 -0.0113
31185SOL     OW  669   7.133   5.629   6.200 -0.4493 -0.1924  0.2498
31185SOL    HW1  670   7.125   5.632   6.296  1.0584 -0.4681  0.3985
31185SOL    HW2  671   7.225   5.648   6.182 -0.9289  0.8973 -1.2184
31186SOL     OW  672   2.888   9.948   3.435 -0.2927  0.6494  0.3492
31186SOL    HW1  673   2.832  10.026   3.435 -0.0720  0.8439  1.8812
31186SOL    HW2  674   2.857   9.896   3.509  0.1424 -0.2974 -0.1235
31187SOL     OW  675   7.774   0.063   4.443 -0.2338 -0.7287 -0.2475
31187SOL    HW1  676   7.709   0.084   4.377 -0.5153 -0.7724  0.0134
31187SOL    HW2  677   7.765   0.132   4.509 -0.0072 -0.7262 -0.2170
31188SOL     OW  678   2.988   8.480  10.500 -0.0456  0.0218 -0.2061
31188SOL    HW1  679   3.073   8.467  10.458 -0.5786 -1.3795 -0.9531
31188SOL    HW2  680   2.947   8.550  10.449  0.9963  1.3856  0.7572
31189SOL     OW  681   8.557   6.406  11.260 -0.3354  0.4277 -0.3578
31189SOL    HW1  682   8.619   6.427  11.190  0.1432 -0.5598 -0.2394
31189SOL    HW2  683   8.473   6.399  11.215 -0.0130 -0.3398 -0.8734
31190SOL     OW  684   4.604  11.231   8.665  0.2354  0.7328 -0.6213
31190SOL    HW1  685   4.628  11.140   8.646 -2.2314  0.1522 -1.3535
31190SOL    HW2  686   4.545  11.256   8.593  0.7074  2.8665 -0.3381
31191SOL     OW  687  10.946  12.153  12.265 -0.0182  1.1555  0.2745
31191SOL    HW1  688  10.948  12.058  12.265 -0.7435  1.1351  0.1723
31191SOL    HW2  689  10.901  12.176  12.347  0.4606  1.4224  0.4711
31192SOL     OW  690  11.937   2.507   2.551  0.1289  0.0273  0.1904
31192SOL    HW1  691  11.996   2.567   2.596 -1.9858  0.6834  2.3387
31192SOL    HW2  692  11.966   2.420   2.578  0.7626  0.2831  0.3465
31193SOL     OW  693  12.723   1.469   8.294  0.2151  1.1103 -0.2133
31193SOL    HW1  694  12.784   1.443   8.363 -0.5218  0.9416  0.3911
31193SOL    HW2  695  12.723   1.396   8.233  0.2826  0.9176  0.0153
31194SOL     OW  696   5.688   2.189   9.168 -0.6724  0.3027 -0.2426
31194SOL    HW1  697   5.710   2.156   9.080 -0.4325 -0.4091  0.0707
31194SOL    HW2  698   5.748   2.262   9.181 -2.1035  1.7587 -1.4744
31195SOL     OW  699   1.788  11.816   2.220 -0.2520 -0.5493 -0.0504
31195SOL    HW1  700   1.753  11.855   2.300 -0.0292 -0.9513  0.2451
31195SOL    HW2  701   1.811  11.891   2.164 -1.3327 -0.2792 -0.1437
31196SOL     OW  702   1.771   5.996   4.822  0.0880  0.1961 -0.9373
31196SOL    HW1  703   1.757   5.902   4.810 -2.3615  0.5035 -1.1431
31196SOL    HW2  704   1.726   6.036   4.747 -1.8023  1.6122  0.8437
31197SOL     OW  705   0.822  11.552   0.590  0.2376 -0.3046 -0.1927
31197SOL    HW1  706   0.783  11.526   0.673  0.0521  0.2600 -0.0966
31197SOL    HW2  707   0.749  11.585   0.538  0.3168 -0.8665 -0.6715
31198SOL     OW  708   4.199  10.840  10.539 -0.1779  0.3962  0.3486
31198SOL    HW1  709   4.235  10.817  10.624 -0.0256 -0.3914  0.0861
31198SOL    HW2  710   4.263  10.900  10.500  1.6140 -1.9783 -0.6557
31199SOL     OW  711   9.028   3.627   8.231 -0.1415  0.0186 -0.2270
31199SOL    HW1  712   9.030   3.721   8.246 -0.4041  0.2879 -1.6958
31199SOL    HW2  713   8.961   3.615   8.164 -0.5998 -1.3008  0.4316
31200SOL     OW  714   6.973   6.102  10.710 -0.3619 -0.0060 -0.1043
31200SOL    HW1  715   6.951   6.086  10.619 -1.7000 -0.6822  0.3068
31200SOL    HW2  716   6.997   6.016  10.745  0.9811  0.3855 -0.0103
31201SOL     OW  717  12.645   9.761   5.575 -0.0519  0.4464 -0.2390
31201SOL    HW1  718  12.645   9.763   5.479  0.8276 -1.1222 -0.3019
31201SOL    HW2  719  12.617   9.849   5.601 -3.2228  0.0855 -1.9141
31202SOL     OW  720   8.337   5.728   7.151 -0.1123 -0.6911 -0.5160
31202SOL    HW1  721   8.253   5.706   7.110 -0.1320 -0.7001 -0.4696
31202SOL    HW2  722   8.360   5.651   7.203 -0.2199 -0.5742 -0.2921
31203SOL     OW  723  11.816   8.986   8.097 -0.3488 -0.5581  0.1702
31203SOL    HW1  724  11.837   8.919   8.032  0.5298 -0.8611  0.7370
31203SOL    HW2  725  11.735   9.026   8.065 -0.1889 -1.0068 -0.8600
31204SOL     OW  726   9.597  12.231   9.815  0.8233  0.5021 -0.0521
31204SOL    HW1  727   9.616  12.197   9.902  1.2464  1.8316  0.3951
31204SOL    HW2  728   9.630  12.321   9.816 -1.6839  1.5031 -0.6627
31205SOL     OW  729  12.837   9.841   6.764 -0.2031 -0.0094  0.2818
31205SOL    HW1  730  12.785   9.906   6.718 -0.0486  0.2101  0.4137
31205SOL    HW2  731  12.871   9.887   6.841  1.3893  0.2949 -0.5419
31206SOL     OW  732   7.322   0.738   3.063  0.8291 -0.1583  0.1468
31206SOL    HW1  733   7.390   0.675   3.089  0.4893 -0.7270 -0.3148
31206SOL    HW2  734   7.348   0.819   3.105  2.8916  0.1694 -1.5358
31207SOL     OW  735   6.258   2.939   2.176 -0.2483 -0.2166  0.0883
31207SOL    HW1  736   6.185   2.922   2.235 -0.1833  1.0469  0.5673
31207SOL    HW2  737   6.218   2.974   2.097 -0.2317 -0.5762 -0.0825
31208SOL     OW  738  11.781  10.108   3.379  0.6107 -0.8066 -0.3211
31208SOL    HW1  739  11.712  10.152   3.429  0.3457 -2.1138  0.5028
31208SOL    HW2  740  11.818  10.177   3.323 -0.7946  0.1091 -0.1682
31209SOL     OW  741   8.711   1.184  12.409 -0.2800 -0.0345  0.4388
31209SOL    HW1  742   8.639   1.243  12.432  0.0382  0.3642  0.4305
31209SOL    HW2  743   8.688   1.101  12.451 -1.4002 -0.3060 -0.6776
31210SOL     OW  744  12.244   8.601   5.718  0.0832  0.8340  0.3923
31210SOL    HW1  745  12.263   8.689   5.750  2.2852  0.7975 -0.6568
31210SOL    HW2  746  12.291   8.595   5.635 -1.9464 -0.5478 -0.7321
31211SOL     OW  747  10.617   7.797   7.585  0.6578  0.8424 -0.4904
31211SOL    HW1  748  10.695   7.783   7.639  0.6296 -0.4827 -0.7495
31211SOL    HW2  749  10.643   7.769   7.497 -0.2900 -0.2577 -0.4406
31212SOL     OW  750   1.570   2.415   5.415  0.3059  0.0692 -0.5107
31212SOL    HW1  751   1.625   2.492   5.428  0.9272 -0.2961 -0.9380
31212SOL    HW2  752   1.497   2.445   5.361  0.4876  0.3810 -0.5820
31213SOL     OW  753  11.384  10.445   8.828  0.1009  0.2041  0.3021
31213SOL    HW1  754  11.453  10.509   8.845 -0.6821  0.7835  1.4370
31213SOL    HW2  755  11.401  10.374   8.890 -0.1015  0.1730  0.3208
31214SOL     OW  756  10.707   1.948   7.371  0.2907  0.1629  0.5521
31214SOL    HW1  757  10.797   1.956   7.340  0.2281 -0.5295  0.1814
31214SOL    HW2  758  10.693   1.854   7.381 -0.2006  0.2928  1.1823
31215SOL     OW  759   4.145   7.600   4.749 -0.7061 -0.1179  0.5567
31215SOL    HW1  760   4.117   7.510   4.734  0.5869 -0.4306 -0.1429
31215SOL    HW2  761   4.205   7.619   4.676 -0.6292  1.1664  0.9195
31216SOL     OW  762   7.817  11.167   4.852  0.5601  0.0859  0.6404
31216SOL    HW1  763   7.777  11.080   4.845  0.6201  0.1548 -0.8537
31216SOL    HW2  764   7.745  11.223   4.880 -0.1644  0.0019 -0.9237
31217SOL     OW  765   1.545   0.238   3.503  0.7152  0.0412 -0.1276
31217SOL    HW1  766   1.463   0.249   3.552  0.7205  0.6675 -0.2575
31217SOL    HW2  767   1.521   0.255   3.412  1.4341  2.5183  0.0833
31218SOL     OW  768   0.200   6.071   1.957 -0.4175 -0.0206 -0.2506
31218SOL    HW1  769   0.118   6.026   1.977 -0.6273 -0.7989 -2.5003
31218SOL    HW2  770   0.177   6.164   1.961 -0.6534 -0.1352  1.8763
31219SOL     OW  771   8.071   5.137   4.770 -0.3062  0.1115 -0.5082
31219SOL    HW1  772   8.058   5.059   4.824  0.9551  0.5121  0.4224
31219SOL    HW2  773   8.158   5.169   4.794  0.2960  0.3480 -2.7600
31220SOL     OW  774   6.020   8.780  12.937 -0.5238  0.3530  0.0437
31220SOL    HW1  775   6.036   8.780  13.032  2.1718  0.5658 -0.3352
31220SOL    HW2  776   6.017   8.688  12.914  0.2649  0.2928  0.1529
31221SOL     OW  777  11.460   0.454   9.474 -0.1737  0.2761 -0.2397
31221SOL    HW1  778  11.456   0.511   9.551  2.1298  0.3638 -0.1277
31221SOL    HW2  779  11.485   0.369   9.508  2.2543  0.6363 -0.9707
31222SOL     OW  780   6.661   7.842   4.400 -0.3861 -0.8392 -0.4188
31222SOL    HW1  781   6.669   7.751   4.429  0.1975 -0.6440  0.0541
31222SOL    HW2  782   6.660   7.893   4.481 -3.0489 -0.5548 -0.5493
31223SOL     OW  783   3.844   6.257   9.327 -0.7500  0.2123 -0.5997
31223SOL    HW1  784   3.923   6.250   9.380 -0.7738 -0.5650 -0.6676
31223SOL    HW2  785   3.865   6.211   9.246 -1.2200  0.1339 -0.6797
31224SOL     OW  786   9.346   3.822   7.593 -0.1528  0.0181  0.0022
31224SOL    HW1  787   9.432   3.863   7.599 -0.4746  0.9900 -1.5372
31224SOL    HW2  788   9.284   3.895   7.598 -1.1062 -0.8308  3.6926
31225SOL     OW  789   5.808  11.925   0.932 -0.6936  0.2743 -0.0790
31225SOL    HW1  790   5.834  11.959   0.847  1.2460  1.8395  1.0755
31225SOL    HW2  791   5.738  11.983   0.962 -1.5260 -0.4039 -0.6461
31226SOL     OW  792  12.142   5.210   4.085 -0.1075  0.2062 -0.2396
31226SOL    HW1  793  12.064   5.258   4.054 -0.6185 -0.5848 -0.2027
31226SOL    HW2  794  12.215   5.264   4.057 -0.6062  0.1818 -1.6820
31227SOL     OW  795   4.092   1.444   0.911  0.3399 -0.6357  0.4058
31227SOL    HW1  796   4.024   1.383   0.882 -0.8603  0.7789  0.1223
31227SOL    HW2  797   4.109   1.419   1.002 -0.4425 -1.1280  0.4312
31228SOL     OW  798  12.664   8.726   4.377 -0.5239 -0.4070 -0.0913
31228SOL    HW1  799  12.753   8.732   4.345 -0.8834 -1.3138 -1.3496
31228SOL    HW2  800  12.668   8.659   4.447 -0.2343 -0.4937 -0.1902
31229SOL     OW  801  11.083   7.183   7.285 -0.1976 -0.1944 -0.2098
31229SOL    HW1  802  11.096   7.124   7.359  2.1641  0.1737 -0.2663
31229SOL    HW2  803  11.150   7.157   7.221 -1.3058  0.3718 -1.6672
31230SOL     OW  804   7.621   3.423   6.044  0.3963 -0.3021  0.2960
31230SOL    HW1  805   7.599   3.437   6.136  0.3140 -1.5530  0.4832
31230SOL    HW2  806   7.618   3.510   6.005 -2.1322 -0.0248  0.9114
31231SOL     OW  807   3.863   8.974   1.164  0.1315  0.1352  0.3502
31231SOL    HW1  808   3.809   8.925   1.227 -0.5410  0.5521  0.1057
31231SOL    HW2  809   3.932   8.912   1.139 -1.1616 -0.9870 -0.5686
31232SOL     OW  810   5.359  12.535   5.747 -0.1933  0.0602 -0.0291
31232SOL    HW1  811   5.383  12.608   5.805 -1.0298 -0.3674  0.8955
31232SOL    HW2  812   5.304  12.575   5.680 -0.5165  0.3147  0.3829
31233SOL     OW  813   5.408  11.262   4.030  0.5492  0.9061  0.1355
31233SOL    HW1  814   5.475  11.295   4.090  2.6457  1.1168 -2.1414
31233SOL    HW2  815   5.426  11.307   3.948 -2.4119  0.8860 -0.6198
31234SOL     OW  816   6.507  12.925   9.826 -0.1981 -0.1734 -0.3430
31234SOL    HW1  817   6.578  12.865   9.849 -0.2618 -1.2129 -2.5439
31234SOL    HW2  818   6.550  13.009   9.811  0.2142 -0.2070  0.6058
31235SOL     OW  819   6.675   8.475  12.226  0.1035 -0.1419 -0.0811
31235SOL    HW1  820   6.677   8.388  12.187 -1.5829  0.4170 -1.5192
31235SOL    HW2  821   6.760   8.513  12.205 -1.0212  0.5199 -4.3205
31236SOL     OW  822   0.136  10.248   0.617 -0.1534  0.1478  0.3595
31236SOL    HW1  823   0.174  10.306   0.551 -0.5723 -1.4927 -1.4181
31236SOL    HW2  824   0.164  10.285   0.700 -0.5178  2.9636 -0.6438
31237SOL     OW  825  11.660   3.081   2.400  0.1549 -0.2916 -0.1417
31237SOL    HW1  826  11.654   3.096   2.306  2.5586 -0.8905 -0.4657
31237SOL    HW2  827  11.673   2.986   2.409 -0.7514 -0.3429  0.8594
31238SOL     OW  828  11.518  12.529   7.347 -0.2512  0.2927  0.0009
31238SOL    HW1  829  11.540  12.491   7.262 -1.4036 -1.3540  0.3768
31238SOL    HW2  830  11.591  12.504   7.404 -0.1158  0.2418 -0.1946
31239SOL     OW  831   2.123   7.396   6.325 -0.5450 -0.6104 -0.2458
31239SOL    HW1  832   2.218   7.402   6.317 -0.5150 -0.7742 -0.0208
31239SOL    HW2  833   2.089   7.446   6.251 -0.2897 -0.1015 -0.0210
31240SOL     OW  834   3.821  11.810   1.056  0.1505  0.0998  0.1843
31240SOL    HW1  835   3.733  11.805   1.093  0.5889 -0.1594  1.2303
31240SOL    HW2  836   3.877  11.770   1.123  0.9032 -0.9186 -1.0232
31241SOL     OW  837   1.855  12.073   3.110  0.2399 -0.0239  0.4046
31241SOL    HW1  838   1.866  12.114   3.024 -1.0616 -1.0648 -0.2976
31241SOL    HW2  839   1.824  12.144   3.166 -0.1719  0.3920 -0.3235
31242SOL     OW  840  11.456   3.264   7.918 -0.2753 -0.9761 -0.2558
31242SOL    HW1  841  11.392   3.335   7.923  0.3607 -0.4779  1.4344
31242SOL    HW2  842  11.417   3.201   7.857 -1.6213  0.0519 -0.5060
31243SOL     OW  843   6.931  11.401  12.682  0.5955  0.1856 -0.5319
31243SOL    HW1  844   6.855  11.350  12.656 -0.3274  1.6432 -0.8444
31243SOL    HW2  845   6.905  11.445  12.763  2.0777 -1.3162  0.8363
31244SOL     OW  846   2.848   3.936   6.510  0.3209  0.0212  0.2298
31244SOL    HW1  847   2.809   3.945   6.423  2.3986 -0.3529 -0.8079
31244SOL    HW2  848   2.789   3.983   6.568  0.9539  3.9327 -1.9814
31245SOL     OW  849   2.328   1.892   3.353 -0.0514 -0.3152 -0.1334
31245SOL    HW1  850   2.305   1.942   3.275 -0.1006 -1.4808 -0.8834
31245SOL    HW2  851   2.347   1.804   3.321 -0.8757 -1.0375  1.2561
31246SOL     OW  852  11.519   5.248   5.176 -0.0979  0.4519 -0.0346
31246SOL    HW1  853  11.523   5.317   5.110  0.8904 -0.0805 -0.5611
31246SOL    HW2  854  11.601   5.256   5.224 -0.0519 -0.2288  0.0136
31247SOL     OW  855   6.884   7.790  10.298 -0.3256 -0.5160 -0.0853
31247SOL    HW1  856   6.978   7.773  10.290 -0.1265  0.9554 -1.5076
31247SOL    HW2  857   6.855   7.806  10.209 -1.8314 -0.4197  0.3949
31248SOL     OW  858   5.008   6.364   2.035  0.1846  0.1470  0.6143
31248SOL    HW1  859   4.914   6.347   2.043 -0.0757  0.8453 -0.7259
31248SOL    HW2  860   5.047   6.277   2.029 -0.9338 -0.2797 -4.1112
31249SOL     OW  861   4.862   3.385   5.404 -0.2183 -0.4584 -0.3417
31249SOL    HW1  862   4.887   3.299   5.370 -2.0848 -0.3296 -2.2886
31249SOL    HW2  863   4.803   3.421   5.337  0.7706  2.5097  0.2228
31250SOL     OW  864   0.250   9.760   2.810 -0.1075  0.3948  0.1976
31250SOL    HW1  865   0.157   9.784   2.802  0.2995  1.9401 -0.0695
31250SOL    HW2  866   0.273   9.729   2.722 -0.5478 -0.7367  0.4597
31251SOL     OW  867   1.041   1.693   6.599 -0.0606  0.1626 -0.3286
31251SOL    HW1  868   1.056   1.775   6.550 -1.2217  0.5826 -0.0112
31251SOL    HW2  869   0.964   1.654   6.557 -0.3458 -0.0719  0.4068
31252SOL     OW  870   3.201   7.190  11.238  0.0308  0.5028  0.5297
31252SOL    HW1  871   3.246   7.172  11.156  0.1342  0.1183  0.6683
31252SOL    HW2  872   3.264   7.168  11.306 -0.1441  0.5704  0.7150
31253SOL     OW  873   4.949  11.346  10.521 -0.2556 -0.5578 -0.3169
31253SOL    HW1  874   4.929  11.268  10.469  0.8113 -0.9993 -0.0852
31253SOL    HW2  875   4.955  11.416  10.457 -0.8841 -0.7290 -0.5695
31254SOL     OW  876   2.777   9.326  11.071 -0.2258 -0.0676  0.2230
31254SOL    HW1  877   2.715   9.363  11.008  1.3722  1.9888 -0.2445
31254SOL    HW2  878   2.778   9.388  11.144  1.8730  0.4252 -0.1695
31255SOL     OW  879   8.159  10.769  12.247  0.0147 -0.1364  0.3615
31255SOL    HW1  880   8.120  10.693  12.290 -0.0815  0.7406  1.8885
31255SOL    HW2  881   8.239  10.786  12.297  0.2905  0.4895 -0.2732
31256SOL     OW  882   8.546   4.970   8.644  0.3105 -0.2041 -0.2613
31256SOL    HW1  883   8.497   4.907   8.697  0.3775  0.2475  0.3472
31256SOL    HW2  884   8.481   5.032   8.612  0.2144 -0.6951 -1.0352
31257SOL     OW  885   3.821   6.396   4.904  0.3140 -0.4792  0.1114
31257SOL    HW1  886   3.831   6.326   4.840 -0.1728  0.9955 -1.6515
31257SOL    HW2  887   3.911   6.426   4.921  0.4955 -1.3015  0.6404
31258SOL     OW  888  12.013   5.393   0.553 -0.1053  0.2212  0.2735
31258SOL    HW1  889  11.972   5.412   0.468  0.8192 -0.0315 -0.2440
31258SOL    HW2  890  11.981   5.462   0.611 -0.3036  0.7373 -0.4284
31259SOL     OW  891   0.448   3.087  11.655 -0.3193 -0.7289  0.0365
31259SOL    HW1  892   0.401   3.133  11.585  1.7513  0.0576 -0.9292
31259SOL    HW2  893   0.400   3.005  11.667 -2.0319  0.1295 -0.7139
31260SOL     OW  894   7.958  10.202  12.273  0.0150  0.4924  0.0991
31260SOL    HW1  895   8.054  10.201  12.284  0.1617 -0.0977 -1.0899
31260SOL    HW2  896   7.925  10.164  12.354  0.8088  0.2928  0.3420
31261SOL     OW  897   8.827   1.211   5.159 -0.0513 -0.2424  0.3503
31261SOL    HW1  898   8.765   1.243   5.093 -0.9601 -0.7965  0.9256
31261SOL    HW2  899   8.913   1.223   5.118 -0.6140 -1.0016 -1.1417
31262SOL     OW  900   0.413   6.428   3.269 -0.1015  0.6198  0.7471
31262SOL    HW1  901   0.362   6.367   3.216  1.0175  0.7490 -0.5411
31262SOL    HW2  902   0.450   6.374   3.339  1.7591 -0.4621 -0.9894
31263SOL     OW  903   0.538   3.158  11.005 -0.0552 -0.4755  0.1116
31263SOL    HW1  904   0.622   3.125  11.037  0.6690  1.4671  0.3871
31263SOL    HW2  905   0.550   3.168  10.911  0.1515  0.1118  0.1969
31264SOL     OW  906  11.495   2.155  10.855 -0.3454 -0.9661 -0.0678
31264SOL    HW1  907  11.586   2.173  10.832 -0.0106  0.2993  1.9682
31264SOL    HW2  908  11.448   2.234  10.829 -0.7768 -1.4022 -0.6250
31265SOL     OW  909  11.180   8.487   1.399 -0.4907 -0.2023 -0.2115
31265SOL    HW1  910  11.252   8.464   1.340  1.9311  1.8316  1.6926
31265SOL    HW2  911  11.223   8.530   1.474 -3.7840  3.3401 -0.0070
31266SOL     OW  912   0.504   0.415   5.193 -0.1562 -0.1329  0.5658
31266SOL    HW1  913   0.588   0.441   5.230 -0.8937 -0.2710  2.4514
31266SOL    HW2  914   0.519   0.328   5.157  0.2277 -0.6542  1.9556
31267SOL     OW  915   4.219   9.112   0.573 -0.1362  0.0896 -0.5394
31267SOL    HW1  916   4.282   9.174   0.536  0.9289 -0.6926 -0.1234
31267SOL    HW2  917   4.273   9.052   0.626 -1.4218  0.3020  1.1000
31268SOL     OW  918   4.926   1.705   1.603  0.3846  0.2555  0.0840
31268SOL    HW1  919   4.875   1.634   1.642  1.4567  0.0678  1.1845
31268SOL    HW2  920   4.862   1.774   1.586 -0.6315 -0.8429 -0.7615
31269SOL     OW  921   1.445   6.823   4.354 -0.4465 -0.3877 -0.2111
31269SOL    HW1  922   1.399   6.860   4.429  0.9848 -0.1252  0.5717
31269SOL    HW2  923   1.484   6.742   4.387  1.0920  0.2636 -0.3367
31270SOL     OW  924   0.010  12.924   1.668  0.3788  0.0954  0.1657
31270SOL    HW1  925  -0.040  12.983   1.612  0.3175  0.9325  1.0787
31270SOL    HW2  926   0.072  12.980   1.715 -1.1964 -0.1394  2.7540
31271SOL     OW  927  10.201   2.729   2.335 -0.5378 -0.7059 -0.0365
31271SOL    HW1  928  10.223   2.751   2.425 -5.8256 -1.8807  1.9104
31271SOL    HW2  929  10.277   2.757   2.284  2.7602  0.0816  4.6648
31272SOL     OW  930   6.647   9.682   1.691 -0.0373 -0.2405  0.1523
31272SOL    HW1  931   6.635   9.777   1.682  1.3362 -0.1278 -0.6748
31272SOL    HW2  932   6.714   9.673   1.759 -1.3159 -0.7000  1.3994
31273SOL     OW  933   5.257   7.886   8.908 -0.4512  0.7819  0.4958
31273SOL    HW1  934   5.232   7.966   8.956  1.4599  2.6412 -1.4152
31273SOL    HW2  935   5.184   7.827   8.922 -3.5181  3.9795 -0.5223
31274SOL     OW  936   2.299   7.530   5.440  0.3506  0.0039  0.0890
31274SOL    HW1  937   2.392   7.508   5.429  0.3458  0.1226 -0.1695
31274SOL    HW2  938   2.283   7.603   5.381 -0.0155 -0.2965 -0.1884
31275SOL     OW  939   0.340   3.643   2.301 -0.2422 -0.3024 -0.3256
31275SOL    HW1  940   0.330   3.616   2.392  0.2234 -0.2923 -0.2661
31275SOL    HW2  941   0.304   3.571   2.250 -0.1634 -0.4752 -0.1391
31276SOL     OW  942   8.763   6.711   6.094  0.2393  0.3324  0.3139
31276SOL    HW1  943   8.854   6.720   6.123  0.4665  1.4080 -0.6924
31276SOL    HW2  944   8.726   6.646   6.154  1.4230  0.5183  1.2960
31277SOL     OW  945  10.809   4.967   2.574 -0.0832  0.2908  0.3695
31277SOL    HW1  946  10.746   5.009   2.633 -1.3359 -1.0364  0.0499
31277SOL    HW2  947  10.879   4.937   2.632 -1.6951 -1.7570  1.3952
31278SOL     OW  948   0.523  10.637   8.648  0.2298  0.1918 -0.2416
31278SOL    HW1  949   0.448  10.580   8.629  0.2041  0.6019 -1.4232
31278SOL    HW2  950   0.493  10.692   8.721  0.3465 -1.4334  1.0982
31279SOL     OW  951   5.736   5.844  12.212  0.2085 -0.1090 -0.5761
31279SOL    HW1  952   5.644   5.870  12.224  0.0073 -0.9164 -0.2729
31279SOL    HW2  953   5.777   5.864  12.296  0.6333  1.4902 -1.1439
31280SOL     OW  954   7.856   6.382   4.359  0.4195 -0.2603 -0.0040
31280SOL    HW1  955   7.872   6.447   4.291 -2.4610 -0.1706 -0.7428
31280SOL    HW2  956   7.905   6.305   4.331  1.0979  0.4934 -0.9560
31281SOL     OW  957   3.804   8.452   1.720  0.0459 -0.5066 -0.8730
31281SOL    HW1  958   3.768   8.367   1.744  1.1438 -0.5718  0.7419
31281SOL    HW2  959   3.832   8.490   1.803  0.1307  1.1775 -1.6354
31282SOL     OW  960  12.487   7.677  12.827  0.0544  0.2393 -0.3411
31282SOL    HW1  961  12.439   7.595  12.816  0.0348  0.1418  0.4067
31282SOL    HW2  962  12.575   7.650  12.851  0.2684  0.4318 -0.8858
31283SOL     OW  963   6.203  11.758   2.555  0.2450 -0.0110 -0.1772
31283SOL    HW1  964   6.181  11.681   2.609  3.9052 -0.5005  0.9365
31283SOL    HW2  965   6.160  11.742   2.472 -2.0072 -1.4676  1.1522
31284SOL     OW  966  10.355  10.141   9.201 -0.1530 -0.1307 -0.0041
31284SOL    HW1  967  10.315  10.099   9.277  0.1161  0.0597  0.2436
31284SOL    HW2  968  10.284  10.145   9.136 -0.5082  0.1014  0.3915
31285SOL     OW  969   2.139   1.254   9.207 -1.0197 -0.0829  0.1937
31285SOL    HW1  970   2.195   1.264   9.284 -2.2488  2.4398  0.8932
31285SOL    HW2  971   2.104   1.166   9.214  1.3496 -1.0415  0.7402
31286SOL     OW  972   8.825   2.284   0.793  0.7218  0.2313  0.0300
31286SOL    HW1  973   8.841   2.378   0.781  2.4539  0.0176  0.4544
31286SOL    HW2  974   8.880   2.241   0.727 -3.3321 -0.4959 -3.3105
31287SOL     OW  975   1.965  10.896  12.831  0.8500  0.0119 -0.4564
31287SOL    HW1  976   1.990  10.948  12.755 -1.5912  0.0472 -1.3189
31287SOL    HW2  977   1.893  10.841  12.799  0.7873 -1.0841  1.4440
31288SOL     OW  978   0.295   8.871   8.829  0.0970  0.2181  0.6936
31288SOL    HW1  979   0.292   8.930   8.904 -0.3715 -1.6343  2.2030
31288SOL    HW2  980   0.280   8.784   8.866 -2.4587 -0.5646 -1.8090
31289SOL     OW  981  11.801   5.995   1.507  0.0925 -0.2589  0.1135
31289SOL    HW1  982  11.762   6.057   1.445  0.9391  0.7014  0.5287
31289SOL    HW2  983  11.856   5.939   1.453 -0.5220 -0.5479 -0.2342
31290SOL     OW  984   6.744   2.737  12.581 -0.1281  0.1525 -0.3064
31290SOL    HW1  985   6.733   2.823  12.540  1.3330  0.1229 -0.7879
31290SOL    HW2  986   6.710   2.676  12.516  1.1909  0.1907 -1.0673
31291SOL     OW  987   7.857   1.566  11.369  0.1089  0.1965  0.2701
31291SOL    HW1  988   7.798   1.635  11.339  0.4176  0.6952  0.7959
31291SOL    HW2  989   7.913   1.548  11.293 -0.6687 -0.2412 -0.2155
31292SOL     OW  990   9.339   1.755   9.549  0.4516  0.4146 -0.0120
31292SOL    HW1  991   9.333   1.818   9.477 -0.3688 -0.9057 -1.1568
31292SOL    HW2  992   9.432   1.742   9.562  0.6185  0.7313 -0.8105
31293SOL     OW  993  12.778   7.747   2.480  0.0937 -0.1894  0.2777
31293SOL    HW1  994  12.753   7.672   2.426 -1.9076  1.2693 -0.9612
31293SOL    HW2  995  12.799   7.816   2.417 -1.5505  1.3363  1.3218
31294SOL     OW  996   2.883  11.882  10.546 -0.0188  0.0106 -0.1830
31294SOL    HW1  997   2.829  11.945  10.498  0.7748  0.3636 -0.6446
31294SOL    HW2  998   2.824  11.844  10.611 -0.8899  0.1671 -0.8601
31295SOL     OW  999   4.662   1.870   7.053 -0.0297 -0.0524  0.0725
31295SOL    HW1 1000   4.705   1.831   6.976  0.5721 -1.8680  1.2616
31295SOL    HW2 1001   4.712   1.949   7.071 -0.2037  0.4299 -1.4099
31296SOL     OW 1002  10.688   5.223  10.306  0.1641 -0.2923 -0.1797
31296SOL    HW1 1003  10.714   5.312  10.330 -1.7494  0.2344  0.0765
31296SOL    HW2 1004  10.639   5.233  10.225  0.2172 -1.1675 -0.3310
31297SOL     OW 1005   0.568   1.798  11.971  0.1120 -0.5991  0.2137
31297SOL    HW1 1006   0.539   1.809  11.880  2.0578 -1.1106 -0.5105
31297SOL    HW2 1007   0.507   1.851  12.022  0.1957  1.3748 -1.5972
31298SOL     OW 1008   4.967   9.297  10.896  0.6948 -0.4773  0.3771
31298SOL    HW1 1009   4.983   9.242  10.972 -0.7157 -1.9426 -0.3288
31298SOL    HW2 1010   4.960   9.236  10.822  2.2241  0.9012 -1.0169
31299SOL     OW 1011   9.353   5.966  11.760 -0.3138 -0.0571  0.0460
31299SOL    HW1 1012   9.442   5.933  11.775  0.1323  1.3852  0.7339
31299SOL    HW2 1013   9.312   5.900  11.704 -0.4380 -3.3546  3.5726
31300SOL     OW 1014   6.642   8.597   1.883 -0.4345  0.0378  0.6701
31300SOL    HW1 1015   6.607   8.536   1.818  1.2246  1.2505 -1.5395
31300SOL    HW2 1016   6.717   8.552   1.921  1.5538  0.9508 -1.8431
31301SOL     OW 1017   7.814   7.554  12.582  0.2870 -0.3387 -0.3832
31301SOL    HW1 1018   7.786   7.638  12.546  1.3344 -0.1828 -0.8712
31301SOL    HW2 1019   7.733   7.510  12.606 -0.2748  0.9394  0.1838
31302SOL     OW 1020   9.281   3.080  11.189 -0.0274 -0.9077 -0.0937
31302SOL    HW1 1021   9.269   3.011  11.123 -0.2126  0.4028 -1.4667
31302SOL    HW2 1022   9.348   3.137  11.152  0.0685 -0.2884  1.0020
31303SOL     OW 1023   1.119   5.640   8.672 -0.4984  0.8992 -0.2688
31303SOL    HW1 1024   1.204   5.601   8.652 -0.8886  0.7506 -1.7602
31303SOL    HW2 1025   1.062   5.566   8.690 -0.5996  0.9221 -0.4868
31304SOL     OW 1026   1.231  10.585  10.197 -0.4825 -0.9311 -0.2381
31304SOL    HW1 1027   1.202  10.676  10.195 -0.7761 -1.0245 -0.4654
31304SOL    HW2 1028   1.168  10.541  10.253 -2.0006 -1.5187 -2.2612
31305SOL     OW 1029   9.469  11.396   9.111 -0.0370  0.1844  0.0520
31305SOL    HW1 1030   9.513  11.375   9.029 -0.4964  1.2658 -0.4800
31305SOL    HW2 1031   9.447  11.489   9.104  0.3292  0.4153  1.5880
31306SOL     OW 1032   3.885   8.012   9.037 -0.1888  0.0888  0.2150
31306SOL    HW1 1033   3.929   8.017   8.952 -1.8398 -2.2139 -0.8758
31306SOL    HW2 1034   3.798   7.979   9.018 -1.1357  0.8847  2.6988
31307SOL     OW 1035   7.844  11.077   0.289  0.5946  0.4779 -0.2785
31307SOL    HW1 1036   7.879  11.151   0.337  0.8136  1.6108 -2.0888
31307SOL    HW2 1037   7.784  11.035   0.350  3.1303 -0.0534  2.0703
31308SOL     OW 1038  12.249   1.927  11.523  0.0282 -0.0673 -0.0730
31308SOL    HW1 1039  12.260   1.968  11.437 -1.2668 -0.9149 -0.6628
31308SOL    HW2 1040  12.210   1.842  11.504  0.7501 -0.7209  1.2873
31309SOL     OW 1041   9.529   9.680   6.652  0.0156  0.0053 -0.6221
31309SOL    HW1 1042   9.449   9.661   6.603  0.0462  1.2796 -1.2095
31309SOL    HW2 1043   9.532   9.614   6.721 -2.1081  0.5393  0.0609
31310SOL     OW 1044   6.179   8.491   0.678  0.1157  0.2695  0.1850
31310SOL    HW1 1045   6.182   8.572   0.729 -0.9721 -0.5038  1.5370
31310SOL    HW2 1046   6.167   8.422   0.743 -0.3250 -0.8482 -1.0436
31311SOL     OW 1047   4.815   5.476  12.000  0.1826  0.0333 -0.2595
31311SOL    HW1 1048   4.745   5.509  12.057 -0.5289 -1.1056 -0.4403
31311SOL    HW2 1049   4.894   5.480  12.054  0.0322  1.5062 -0.1136
31312SOL     OW 1050   2.680  11.970  11.514  0.1625  0.7757 -0.0858
31312SOL    HW1 1051   2.740  11.901  11.486  0.3346  0.7889  0.2501
31312SOL    HW2 1052   2.594  11.927  11.515  0.0319  0.9646 -1.3321
31313SOL     OW 1053  10.710   8.449  10.832 -0.0735 -0.0948  0.3609
31313SOL    HW1 1054  10.771   8.504  10.784 -1.0896 -0.0911 -0.9707
31313SOL    HW2 1055  10.744   8.360  10.819 -0.0133 -0.0425  0.1613
31314SOL     OW 1056   9.073   0.537   7.161 -0.5003 -0.3709  0.4755
31314SOL    HW1 1057   9.017   0.497   7.227 -0.9602 -0.9298 -0.2352
31314SOL    HW2 1058   9.027   0.521   7.078  0.5528 -0.5533 -0.0854
31315SOL     OW 1059   2.583   7.923   6.415  0.2933  0.3536  0.4737
31315SOL    HW1 1060   2.505   7.963   6.375  0.1642 -0.3700 -0.0264
31315SOL    HW2 1061   2.553   7.836   6.442  0.3492  0.8675  2.2876
31316SOL     OW 1062   9.242  10.733   3.742 -0.2445  0.9923 -0.1235
31316SOL    HW1 1063   9.317  10.688   3.781 -1.0942  1.1266  1.7595
31316SOL    HW2 1064   9.227  10.809   3.798 -1.2196  1.4795 -1.0070
31317SOL     OW 1065   2.370   5.273   5.064  0.0583  0.2312  0.3113
31317SOL    HW1 1066   2.353   5.323   5.144  1.3124  1.7944 -0.3375
31317SOL    HW2 1067   2.465   5.275   5.054 -0.0458 -0.2926 -1.0029
31318SOL     OW 1068   1.080  11.502   0.729  0.0573  0.2134 -0.4791
31318SOL    HW1 1069   1.172  11.524   0.745 -0.2616  0.3643  1.3568
31318SOL    HW2 1070   1.077  11.406   0.733  0.0827  0.2246 -0.1786
31319SOL     OW 1071   4.218   3.981   2.450 -0.3773  0.0327  0.4681
31319SOL    HW1 1072   4.299   3.929   2.447 -0.2479  0.1144  1.9286
31319SOL    HW2 1073   4.198   3.999   2.358 -0.3937 -2.5454 -0.1272
31320SOL     OW 1074   8.550   4.606   6.591 -0.2359 -0.0658  0.3991
31320SOL    HW1 1075   8.617   4.674   6.592 -0.5340  0.2216  1.6448
31320SOL    HW2 1076   8.595   4.528   6.559 -0.1754  0.9589 -2.3496
31321SOL     OW 1077   0.705  11.243  11.170  0.4131 -0.1242  0.7428
31321SOL    HW1 1078   0.743  11.329  11.155  1.6091 -0.5861  1.0066
31321SOL    HW2 1079   0.664  11.249  11.256 -0.7101  0.5695  0.1832
31322SOL     OW 1080  10.076   6.942   7.910  0.1616  0.3633  0.9727
31322SOL    HW1 1081  10.010   6.874   7.897 -0.3184  0.5159  2.3804
31322SOL    HW2 1082  10.142   6.901   7.967  2.4436 -0.4788 -2.0146
31323SOL     OW 1083  10.733  10.326  12.532  0.1261  0.3321 -1.1875
31323SOL    HW1 1084  10.775  10.411  12.544  0.6563  0.0037 -0.6435
31323SOL    HW2 1085  10.790  10.265  12.578  0.0968 -0.4139 -2.1306
31324SOL     OW 1086   5.621   7.154   3.794 -0.1489 -0.1135  0.2407
31324SOL    HW1 1087   5.578   7.068   3.785 -0.1804 -0.2140  1.2912
31324SOL    HW2 1088   5.650   7.175   3.705  1.1247 -1.8724  0.1853
31325SOL     OW 1089   6.411  10.765   1.996  0.3639  0.1096  0.1146
31325SOL    HW1 1090   6.325  10.781   1.956 -0.3763 -0.1407  1.5234
31325SOL    HW2 1091   6.437  10.850   2.031  0.1561 -0.0533  0.6699
31326SOL     OW 1092  10.616   6.534   7.655  0.1309  0.0688  0.1143
31326SOL    HW1 1093  10.657   6.558   7.571 -1.1545  2.2274  0.0191
31326SOL    HW2 1094  10.574   6.450   7.638 -0.9348  0.9141 -1.7474
31327SOL     OW 1095  12.352   8.686   2.671 -0.0088  0.7190  0.6172
31327SOL    HW1 1096  12.284   8.704   2.735 -0.9230 -1.9292  0.5175
31327SOL    HW2 1097  12.414   8.629   2.717 -0.7989 -1.4177 -0.8125
31328SOL     OW 1098   0.713  12.684   8.265 -0.0645 -0.6993  0.5568
31328SOL    HW1 1099   0.765  12.735   8.328 -0.0211  0.4375 -0.3766
31328SOL    HW2 1100   0.694  12.603   8.312  0.6734 -0.2327  1.7378
31329SOL     OW 1101   6.339   2.223   6.610 -0.7962  0.0678 -0.2362
31329SOL    HW1 1102   6.398   2.295   6.586 -1.4311  0.2077 -1.4642
31329SOL    HW2 1103   6.251   2.261   6.602 -1.1113  0.4452  3.4208
31330SOL     OW 1104   0.458   7.062   7.422 -0.0416 -0.1848 -0.2170
31330SOL    HW1 1105   0.435   7.089   7.333 -1.2884  0.1282  0.1788
31330SOL    HW2 1106   0.375   7.034   7.461  0.1876  1.2158  1.3778
31331SOL     OW 1107   2.338   9.674  11.121  0.3262 -0.1138  0.1291
31331SOL    HW1 1108   2.420   9.698  11.165  0.9756 -0.6406 -0.7677
31331SOL    HW2 1109   2.338   9.726  11.041  0.4606 -1.1262 -0.5447
31332SOL     OW 1110  10.493  10.872   7.418 -0.2965 -0.0776  0.4332
31332SOL    HW1 1111  10.443  10.881   7.499  0.4209 -0.0359  0.8822
31332SOL    HW2 1112  10.429  10.845   7.353 -1.2220  1.4966  0.6265
31333SOL     OW 1113   2.150   4.773   8.641  0.2517 -0.5389 -0.1753
31333SOL    HW1 1114   2.094   4.813   8.707  1.4678 -2.1200  1.9209
31333SOL    HW2 1115   2.121   4.682   8.637  2.2763 -1.2585  0.5806
31334SOL     OW 1116   9.295   7.707   9.075 -0.1227  0.1931  0.8028
31334SOL    HW1 1117   9.305   7.744   8.987 -0.8118 -0.1808  0.5579
31334SOL    HW2 1118   9.284   7.782   9.132 -0.5399  0.4140  0.4428
31335SOL     OW 1119   2.692   4.812   3.989  0.0571 -0.2870  0.4714
31335SOL    HW1 1120   2.686   4.736   4.047  0.2784  0.3922  1.4125
31335SOL    HW2 1121   2.764   4.864   4.025 -1.0009  1.0772  0.7110
31336SOL     OW 1122   4.425   2.070  11.959  0.0634  0.1374 -0.7219
31336SOL    HW1 1123   4.482   1.993  11.957  0.3512  0.3589 -1.5002
31336SOL    HW2 1124   4.472   2.135  11.906 -0.3558  0.7179 -0.3827
31337SOL     OW 1125   6.681   8.910   5.592 -0.4523  0.0382 -0.1682
31337SOL    HW1 1126   6.743   8.978   5.620  0.7071 -0.0652 -2.2261
31337SOL    HW2 1127   6.736   8.833   5.577 -1.2128 -0.3405 -1.1255
31338SOL     OW 1128  10.887   3.039   9.474  0.4932 -0.1808  0.0089
31338SOL    HW1 1129  10.910   3.023   9.382  1.2865  1.8205 -0.1869
31338SOL    HW2 1130  10.967   3.071   9.514  0.3060 -1.5284  1.5883
31339SOL     OW 1131  10.693   3.062  10.852  0.5133 -0.0830 -0.2358
31339SOL    HW1 1132  10.666   2.970  10.848  0.1926  0.0469 -1.5391
31339SOL    HW2 1133  10.613   3.110  10.873  0.6925 -0.0971  0.5014
31340SOL     OW 1134  12.000   6.484   6.164 -0.4066 -0.1754 -0.2169
31340SOL    HW1 1135  12.092   6.463   6.145 -0.7521 -0.7606 -1.2989
31340SOL    HW2 1136  11.971   6.416   6.225  0.5732  1.4519  2.2672
31341SOL     OW 1137   4.094  11.619   6.683  0.0640 -0.2439 -0.1141
31341SOL    HW1 1138   4.020  11.585   6.732 -0.2616  1.4571  0.6599
31341SOL    HW2 1139   4.060  11.635   6.595  0.0356 -1.1760 -0.2830
31342SOL     OW 1140   7.811   8.121   2.426  0.4885 -0.4341 -0.3330
31342SOL    HW1 1141   7.862   8.081   2.355  1.0785  0.5613 -0.5058
31342SOL    HW2 1142   7.816   8.215   2.408 -2.9408 -0.3346 -1.3715
31343SOL     OW 1143   0.310   7.563   4.956  0.0369  0.1485 -0.0124
31343SOL    HW1 1144   0.328   7.488   5.013  0.3582  0.2634  0.0384
31343SOL    HW2 1145   0.225   7.596   4.985  0.6421  0.8054  1.0340
31344SOL     OW 1146   9.921  12.167   7.070  0.4449  0.1820 -0.3610
31344SOL    HW1 1147   9.967  12.097   7.023  0.4582 -0.7167  0.9387
31344SOL    HW2 1148   9.891  12.226   7.001 -0.9627 -1.9106 -1.6664
31345SOL     OW 1149   3.713   4.016  12.523 -0.4191 -0.5058  0.4819
31345SOL    HW1 1150   3.791   4.051  12.478 -1.6326  0.2324 -1.1324
31345SOL    HW2 1151   3.704   3.927  12.490 -0.4529 -0.4790  0.4197
31346SOL     OW 1152   8.303   5.123   8.570  0.4169  0.0183  0.0334
31346SOL    HW1 1153   8.323   5.174   8.492  0.1441 -1.5425 -1.1176
31346SOL    HW2 1154   8.228   5.068   8.544  0.0849 -0.2781  1.5125
31347SOL     OW 1155   9.817   7.033   4.353 -0.9502  0.7132 -0.1772
31347SOL    HW1 1156   9.746   7.062   4.296 -1.9356 -0.4869  0.3995
31347SOL    HW2 1157   9.892   7.022   4.295 -1.3971  1.3866 -0.8983
31348SOL     OW 1158   5.215   7.430   7.327  0.1089 -0.0047  0.7627
31348SOL    HW1 1159   5.245   7.383   7.249 -1.5140  0.3684 -0.1424
31348SOL    HW2 1160   5.267   7.511   7.328 -1.4460  1.1369 -1.3783
31349SOL     OW 1161  12.070  10.020   1.624 -0.0320 -0.4948 -0.0435
31349SOL    HW1 1162  12.126  10.096   1.607 -0.7225  0.0209 -0.0422
31349SOL    HW2 1163  11.981  10.054   1.619 -0.3494 -1.2947  0.0260
31350SOL     OW 1164  11.207   9.725  11.694  0.6430  0.3348 -0.2323
31350SOL    HW1 1165  11.227   9.631  11.697 -0.9376 -0.0316 -0.2571
31350SOL    HW2 1166  11.169   9.744  11.779 -0.1637  0.6722 -0.6563
31351SOL     OW 1167  10.976   2.655   0.383 -0.6265  0.1928  0.0835
31351SOL    HW1 1168  10.956   2.717   0.453 -0.4107 -0.6464  0.8973
31351SOL    HW2 1169  11.061   2.617   0.407 -0.2733  0.3071 -0.9254
31352SOL     OW 1170  11.258   7.504   8.748  0.4255 -0.4436 -0.1710
31352SOL    HW1 1171  11.315   7.446   8.800 -0.6588 -2.2002 -0.8600
31352SOL    HW2 1172  11.290   7.494   8.658 -0.2049 -0.5149 -0.3888
31353SOL     OW 1173  10.009   5.308   7.159  0.7427 -0.0986 -0.4877
31353SOL    HW1 1174  10.007   5.402   7.175  0.7505  0.2337 -2.2797
31353SOL    HW2 1175  10.089   5.278   7.202 -0.3793  0.2842  2.0466
31354SOL     OW 1176   0.299   3.992   7.045 -0.5276  0.0359 -0.1342
31354SOL    HW1 1177   0.261   4.072   7.080  0.6546 -0.4488  2.4999
31354SOL    HW2 1178   0.365   4.022   6.982 -1.7710  1.0071 -1.0157
31355SOL     OW 1179   2.727   0.696   3.020 -0.0495  0.5571  0.0620
31355SOL    HW1 1180   2.686   0.638   2.956 -2.7050  1.5678  0.7282
31355SOL    HW2 1181   2.791   0.747   2.969  0.1946 -0.8604 -1.0979
31356SOL     OW 1182  12.842   4.466   4.426  0.1104 -0.4424 -0.2094
31356SOL    HW1 1183  12.887   4.550   4.428  0.5450 -0.6784  1.0817
31356SOL    HW2 1184  12.882   4.418   4.354 -0.6682  0.7147 -1.4530
31357SOL     OW 1185   7.958   9.195  12.151 -0.3919  0.0408 -0.3951
31357SOL    HW1 1186   7.930   9.226  12.237 -1.8755 -1.1806 -0.3860
31357SOL    HW2 1187   7.961   9.274  12.096 -0.7778  0.6435  0.4375
31358SOL     OW 1188   2.700   0.337   4.973  0.1247  0.1083 -0.1819
31358SOL    HW1 1189   2.628   0.303   4.920  0.6308  1.2273 -1.6540
31358SOL    HW2 1190   2.684   0.431   4.978  2.0286  0.5499 -1.4630
31359SOL     OW 1191   8.755   8.123   3.112  0.0732  0.0403 -0.5826
31359SOL    HW1 1192   8.782   8.103   3.022  0.9188 -0.2024 -0.2813
31359SOL    HW2 1193   8.661   8.108   3.112  0.0395  0.1623 -1.4611
31360SOL     OW 1194   5.992   8.580   1.750 -0.2564  0.6268  0.1052
31360SOL    HW1 1195   5.909   8.604   1.709  0.3381 -1.2932 -2.4871
31360SOL    HW2 1196   5.971   8.501   1.801  0.0557 -0.3684 -1.2396
31361SOL     OW 1197   9.204   7.493   4.958 -0.0413 -0.1101  0.4966
31361SOL    HW1 1198   9.116   7.499   4.921 -0.2270  0.3212  1.0014
31361SOL    HW2 1199   9.250   7.431   4.901 -0.7849 -0.6347  0.4634
31362SOL     OW 1200  10.566   6.717  11.232  0.4172  0.2996  0.5275
31362SOL    HW1 1201  10.656   6.697  11.205  0.7244 -0.4315  2.0073
31362SOL    HW2 1202  10.511   6.663  11.175  0.9608 -0.0050  0.2907
31363SOL     OW 1203  11.457   7.611  11.128 -0.0518  0.2460 -0.6374
31363SOL    HW1 1204  11.483   7.528  11.168 -1.9763  0.0778  0.3942
31363SOL    HW2 1205  11.453   7.593  11.034  0.0817 -0.6686 -0.4750
31364SOL     OW 1206   2.435   2.794   1.896 -0.3852  0.1753  0.2833
31364SOL    HW1 1207   2.487   2.762   1.822 -1.5823 -0.1304 -0.4494
31364SOL    HW2 1208   2.373   2.856   1.857  0.3358  1.6232  1.3492
31365SOL     OW 1209   0.349   6.796  11.849 -0.1187  0.4411 -0.1664
31365SOL    HW1 1210   0.314   6.712  11.820 -1.2931  1.0006 -0.4173
31365SOL    HW2 1211   0.379   6.780  11.939  0.7848 -0.5369 -0.6205
31366SOL     OW 1212   9.777   5.124   7.311  0.0351  0.4759  0.3735
31366SOL    HW1 1213   9.790   5.037   7.275 -1.9533  0.3472 -0.1545
31366SOL    HW2 1214   9.812   5.119   7.400 -0.2968 -0.9463  0.4471
31367SOL     OW 1215   9.259  12.013   0.892  0.6973 -0.1813  0.0061
31367SOL    HW1 1216   9.295  12.016   0.804  0.4555  1.1158 -0.0774
31367SOL    HW2 1217   9.175  11.968   0.883  0.0368  1.1332 -0.6931
31368SOL     OW 1218   8.877   7.983   0.125  0.2147 -0.1276  0.3484
31368SOL    HW1 1219   8.961   8.000   0.166  0.7393 -0.9660 -0.3496
31368SOL    HW2 1220   8.893   7.991   0.031  0.2882 -3.1863 -0.0142
31369SOL     OW 1221  11.244   1.634   7.105  0.5697 -0.7498 -0.0781
31369SOL    HW1 1222  11.177   1.602   7.165  0.9214 -1.1467  0.1029
31369SOL    HW2 1223  11.195   1.683   7.038  0.0485 -1.5187 -0.2695
31370SOL     OW 1224  11.181  10.828  10.486 -0.4787  0.0377 -0.1164
31370SOL    HW1 1225  11.194  10.905  10.542  1.2245 -1.4502  1.6381
31370SOL    HW2 1226  11.266  10.785  10.483 -2.1129 -3.8422  2.1420
31371SOL     OW 1227   8.373   8.465  10.647  0.2140  0.9196 -0.5693
31371SOL    HW1 1228   8.413   8.385  10.683  0.2885  1.4233  0.5006
31371SOL    HW2 1229   8.339   8.438  10.562 -0.1756 -0.3837 -0.0305
31372SOL     OW 1230  10.049   4.818   1.767  0.6597 -0.1566  0.2838
31372SOL    HW1 1231  10.016   4.883   1.704  0.8057  1.4173  1.7615
31372SOL    HW2 1232  10.039   4.734   1.722 -0.6557  0.7613 -1.2487
31373SOL     OW 1233   0.542   2.865   3.544  1.0431 -0.3369 -0.0175
31373SOL    HW1 1234   0.554   2.821   3.460 -0.2988  1.2712 -1.1241
31373SOL    HW2 1235   0.585   2.950   3.533  2.8960 -0.9455  1.7855
31374SOL     OW 1236   5.475  12.091   0.513 -0.3893  0.0562  0.3324
31374SOL    HW1 1237   5.547  12.115   0.571 -0.4823 -0.5388  0.7128
31374SOL    HW2 1238   5.485  12.147   0.436  0.5934 -0.1523  0.2943
31375SOL     OW 1239   1.884   6.540   3.768  0.0777 -0.0197 -0.1888
31375SOL    HW1 1240   1.870   6.624   3.810  1.6877  0.5820 -0.7939
31375SOL    HW2 1241   1.910   6.561   3.678  1.9497 -1.0606  0.0549
31376SOL     OW 1242   7.360   6.918  11.154 -0.1680 -0.2545 -0.0671
31376SOL    HW1 1243   7.419   6.847  11.177  1.3035  0.2506 -2.0167
31376SOL    HW2 1244   7.408   6.998  11.176 -1.1698  0.1788  0.6524
31377SOL     OW 1245   9.727  11.036   0.970 -0.3632 -0.3166  0.1560
31377SOL    HW1 1246   9.682  10.951   0.972  0.9774 -1.0320  2.0409
31377SOL    HW2 1247   9.691  11.084   1.044  0.8462 -0.3294  0.7782
31378SOL     OW 1248  12.896  10.417   4.497 -0.5870 -0.2916  0.3844
31378SOL    HW1 1249  12.857  10.504   4.488 -0.8243 -0.1129  2.7322
31378SOL    HW2 1250  12.942  10.404   4.414  1.8125  3.2278  0.9377
31379SOL     OW 1251   0.457   4.575   6.490  0.2331 -0.7403  0.3240
31379SOL    HW1 1252   0.489   4.494   6.530  0.5422 -0.9087 -0.2539
31379SOL    HW2 1253   0.375   4.549   6.448 -0.0646 -0.5762  0.7995
31380SOL     OW 1254   9.775   0.905   5.331  0.0979  0.1815 -0.3162
31380SOL    HW1 1255   9.682   0.893   5.308  0.5929 -0.9120 -1.9203
31380SOL    HW2 1256   9.776   0.909   5.427 -1.4841 -0.9318 -0.2175
31381SOL     OW 1257   4.740   4.790   0.011  0.8036 -0.2871  0.3817
31381SOL    HW1 1258   4.679   4.763   0.080 -1.2872 -2.1624 -2.0014
31381SOL    HW2 1259   4.814   4.731   0.019 -0.0616 -1.4301  0.2125
31382SOL     OW 1260  10.346   1.907   8.037  0.3263 -0.2392  0.4524
31382SOL    HW1 1261  10.417   1.868   8.088  1.5469  1.1848 -0.0908
31382SOL    HW2 1262  10.389   1.948   7.962 -1.1845 -0.1994 -0.4569
31383SOL     OW 1263  10.444   3.281  12.887 -0.2657  0.2430 -0.1287
31383SOL    HW1 1264  10.411   3.347  12.827  0.2308 -0.1401 -0.8425
31383SOL    HW2 1265  10.459   3.328  12.969 -0.7205  0.8241 -0.3725
31384SOL     OW 1266   0.275   6.778   6.509  0.2211  0.0430 -0.4199
31384SOL    HW1 1267   0.221   6.764   6.431 -1.1307  0.2449  0.4458
31384SOL    HW2 1268   0.260   6.870   6.532  0.6060 -0.0135  0.0892
31385SOL     OW 1269  12.318   7.097  12.772  0.0046  0.1213  0.1766
31385SOL    HW1 1270  12.306   7.089  12.677 -1.0647  0.1653  0.2956
31385SOL    HW2 1271  12.250   7.042  12.809  1.2604 -0.9721  0.9347
31386SOL     OW 1272   3.514   3.716   8.213 -0.0319  0.4501 -0.0566
31386SOL    HW1 1273   3.542   3.626   8.199 -2.8429 -0.3036 -1.5612
31386SOL    HW2 1274   3.563   3.767   8.149 -1.2910 -0.6871 -2.0308
31387SOL     OW 1275  10.079   3.033   9.916  0.1180 -0.0761  0.2180
31387SOL    HW1 1276  10.083   3.128   9.927  0.6501  0.0463 -0.9462
31387SOL    HW2 1277  10.162   3.001   9.951  0.8959  0.1198 -1.3398
31388SOL     OW 1278   2.394   1.500   7.666  0.2734 -0.6206 -0.0096
31388SOL    HW1 1279   2.416   1.593   7.655 -1.3365 -0.2207 -0.1504
31388SOL    HW2 1280   2.466   1.464   7.717  0.5212  0.9169  0.8005
31389SOL     OW 1281  11.187   6.134   9.955 -0.5499 -0.6117 -0.2694
31389SOL    HW1 1282  11.129   6.170  10.023 -0.8373 -3.1388  0.9282
31389SOL    HW2 1283  11.159   6.043   9.946  1.7558 -1.2719 -1.3181
31390SOL     OW 1284  12.862   0.890   7.688  0.1773  0.0597  0.0778
31390SOL    HW1 1285  12.805   0.946   7.637 -0.8139 -0.8195  0.1902
31390SOL    HW2 1286  12.811   0.868   7.766  1.3679  0.7453  1.0972
31391SOL     OW 1287   2.550   2.351  10.675 -0.1241  0.5058 -0.4617
31391SOL    HW1 1288   2.616   2.420  10.674 -0.7242  1.0889 -0.4923
31391SOL    HW2 1289   2.534   2.334  10.768  1.7635 -1.3150 -0.3938
31392SOL     OW 1290   2.607   4.842  12.058 -0.0461 -0.0301 -0.6505
31392SOL    HW1 1291   2.687   4.831  12.006  0.0118 -0.7511 -0.4178
31392SOL    HW2 1292   2.582   4.753  12.082 -0.3247  0.2695  0.1853
31393SOL     OW 1293   7.206   5.589   2.437  0.0782 -0.0608 -0.0276
31393SOL    HW1 1294   7.215   5.661   2.375  1.2788  0.5047  0.7604
31393SOL    HW2 1295   7.291   5.545   2.435 -0.0542 -0.3656  0.8076
31394SOL     OW 1296   0.540   9.327   2.096  0.0266 -0.0309 -0.2333
31394SOL    HW1 1297   0.594   9.395   2.138 -0.2037  0.3798 -0.5961
31394SOL    HW2 1298   0.493   9.373   2.027 -0.5066 -0.4661 -0.1648
31395SOL     OW 1299   3.458   1.860   8.140 -0.4395  0.1027 -0.0355
31395SOL    HW1 1300   3.497   1.851   8.052  0.2680  2.5922 -0.0455
31395SOL    HW2 1301   3.530   1.893   8.194 -1.2336 -0.1178  1.1759
31396SOL     OW 1302  10.411   6.682  10.515  0.3128 -0.1140  0.0917
31396SOL    HW1 1303  10.365   6.671  10.431  0.0376 -0.8421  0.3319
31396SOL    HW2 1304  10.468   6.758  10.501 -0.3979  0.3361 -0.4620
31397SOL     OW 1305  11.618   0.248  11.286 -0.0754 -0.0325 -0.5322
31397SOL    HW1 1306  11.696   0.296  11.258 -0.3080 -0.2642 -1.6443
31397SOL    HW2 1307  11.552   0.270  11.220 -0.3500 -1.4243 -0.7492
31398SOL     OW 1308  12.452   6.614   9.457 -0.1200 -0.2241 -0.2314
31398SOL    HW1 1309  12.395   6.686   9.485  0.2965  0.2526 -0.5856
31398SOL    HW2 1310  12.519   6.656   9.403  0.1929 -0.8662 -0.3568
31399SOL     OW 1311  12.935   6.344  10.505 -0.3784  0.3300 -0.4368
31399SOL    HW1 1312  12.891   6.417  10.548  0.0243  1.5804 -2.0722
31399SOL    HW2 1313  12.878   6.269  10.522 -0.9225  1.0413  1.0750
31400SOL     OW 1314  12.194   0.189  11.861 -0.0498  0.0195  0.1737
31400SOL    HW1 1315  12.229   0.185  11.950 -0.3230  2.4162  0.4481
31400SOL    HW2 1316  12.184   0.283  11.843 -0.0665 -0.4038 -2.3666
31401SOL     OW 1317   0.925   5.918  10.443  0.3612  0.3091 -0.0718
31401SOL    HW1 1318   0.847   5.911  10.497 -0.2702 -1.2225 -1.1186
31401SOL    HW2 1319   0.951   5.828  10.425  3.6050  0.6746  1.8951
31402SOL     OW 1320   4.871   0.164  12.315  0.4433  0.7342  0.0185
31402SOL    HW1 1321   4.860   0.199  12.227 -0.3479 -0.4097 -0.3586
31402SOL    HW2 1322   4.926   0.086  12.304  3.1882  2.3672  0.9926
31403SOL     OW 1323   4.695   3.175   7.948  0.5182  0.1987 -0.7805
31403SOL    HW1 1324   4.651   3.228   8.014 -0.4513 -0.6350 -0.7301
31403SOL    HW2 1325   4.752   3.236   7.901 -1.0473  1.4046 -1.1580
31404SOL     OW 1326   4.662   3.775   3.497  0.3189  0.1056  0.3311
31404SOL    HW1 1327   4.735   3.713   3.506  0.2230 -0.3953 -1.7302
31404SOL    HW2 1328   4.698   3.845   3.443 -0.5292  0.1718 -0.1611
31405SOL     OW 1329   0.086  11.564   5.405 -0.6152  0.2074  0.2311
31405SOL    HW1 1330   0.103  11.483   5.453  0.7038  0.3549  0.0717
31405SOL    HW2 1331   0.080  11.537   5.314  0.6826  0.3623  0.0779
31406SOL     OW 1332   7.837   9.562   0.950 -0.4792 -0.5309  0.1214
31406SOL    HW1 1333   7.877   9.476   0.962  0.0563 -0.3962 -0.6009
31406SOL    HW2 1334   7.832   9.573   0.855  0.1045  0.5271  0.1961
31407SOL     OW 1335   4.060   1.941   5.948  0.8726  0.3611  0.4617
31407SOL    HW1 1336   3.981   1.991   5.968  0.4811  0.5211 -1.3649
31407SOL    HW2 1337   4.029   1.863   5.903  1.6584 -0.4291  1.2344
31408SOL     OW 1338   4.640   7.688   3.998  0.1778  0.2711 -0.6178
31408SOL    HW1 1339   4.599   7.602   3.994 -1.4251  1.0483 -2.5369
31408SOL    HW2 1340   4.601   7.730   4.076 -0.4953 -0.0466 -0.7811
31409SOL     OW 1341   3.072  10.056  11.365 -0.3156 -0.4696  0.0701
31409SOL    HW1 1342   3.074   9.961  11.364 -1.8874 -0.5694  1.3893
31409SOL    HW2 1343   3.008  10.078  11.433 -0.8130  1.5037 -0.9464
31410SOL     OW 1344   9.164  11.582  11.029 -0.1380  0.1467  0.5684
31410SOL    HW1 1345   9.188  11.492  11.050  2.1925  0.7908  1.0150
31410SOL    HW2 1346   9.141  11.580  10.936  2.6226 -0.5150 -0.2061
31411SOL     OW 1347  10.965  10.897   8.698  0.4766  0.0326  0.5528
31411SOL    HW1 1348  10.927  10.953   8.766 -0.5278 -1.5916  1.3889
31411SOL    HW2 1349  10.990  10.957   8.628 -1.3981  1.4298  1.0132
31412SOL     OW 1350   8.559   6.311  12.857 -0.2666  0.0024 -0.1434
31412SOL    HW1 1351   8.530   6.228  12.819  0.3158 -1.3859  2.2348
31412SOL    HW2 1352   8.647   6.324  12.822 -0.2072 -0.6076 -0.2283
31413SOL     OW 1353   6.061  10.756   2.978 -0.0423  0.0939  1.0528
31413SOL    HW1 1354   6.066  10.715   3.065 -0.1266 -1.7649  0.2049
31413SOL    HW2 1355   5.981  10.722   2.939  0.5148  0.1246 -0.1496
31414SOL     OW 1356   0.296   4.742   8.700 -0.2707 -0.0438  0.2025
31414SOL    HW1 1357   0.281   4.721   8.792 -0.1702 -0.8931  0.0313
31414SOL    HW2 1358   0.295   4.657   8.656 -0.9154  0.4012 -0.6676
31415SOL     OW 1359  11.795   8.480   0.793 -0.1206 -0.2398 -0.1097
31415SOL    HW1 1360  11.819   8.462   0.884 -0.3268  2.1616  0.4777
31415SOL    HW2 1361  11.878   8.499   0.749 -0.1404 -0.2379 -0.1458
31416SOL     OW 1362   9.723   4.275  12.226 -0.0448  0.1088 -0.6615
31416SOL    HW1 1363   9.744   4.260  12.134 -0.5641  0.4988 -0.8454
31416SOL    HW2 1364   9.737   4.368  12.240  1.7778 -0.2383  0.1240
31417SOL     OW 1365   9.183  12.871   4.694 -0.1592 -0.3655  0.2227
31417SOL    HW1 1366   9.211  12.781   4.680  0.5605 -0.3503  1.4864
31417SOL    HW2 1367   9.159  12.876   4.786 -1.3699  0.4395 -0.1047
31418SOL     OW 1368   1.872   5.591   9.064 -0.0315  0.5912 -0.0373
31418SOL    HW1 1369   1.962   5.564   9.047  0.1390  0.7078  0.6645
31418SOL    HW2 1370   1.819   5.535   9.007  0.4259 -0.0441  0.1573
31419SOL     OW 1371   7.107   3.722   7.256  0.3621 -0.4496  0.0869
31419SOL    HW1 1372   7.147   3.636   7.237 -0.0678 -0.7110  0.3565
31419SOL    HW2 1373   7.129   3.775   7.180  0.1730 -0.9665 -0.3400
31420SOL     OW 1374   5.761   3.393  10.201  0.2734  0.0930 -0.8018
31420SOL    HW1 1375   5.853   3.371  10.213 -0.3379 -2.4959 -0.4400
31420SOL    HW2 1376   5.733   3.427  10.286 -0.0322 -2.9493  0.4290
31421SOL     OW 1377   2.049   8.825   0.109 -0.0904  0.9257 -0.8037
31421SOL    HW1 1378   2.125   8.823   0.051  0.2092  1.3005 -0.4311
31421SOL    HW2 1379   2.076   8.881   0.181  1.0597 -2.5997  1.8005
31422SOL     OW 1380   7.097  11.538   2.064  0.0924  0.0964  0.0451
31422SOL    HW1 1381   7.038  11.610   2.042  0.2999 -0.0318 -0.9921
31422SOL    HW2 1382   7.100  11.537   2.159  1.1646  2.3628  0.1092
31423SOL     OW 1383   7.281   0.619   5.920 -0.1812  0.0935  0.0196
31423SOL    HW1 1384   7.343   0.547   5.924 -1.0422 -0.7944 -1.5557
31423SOL    HW2 1385   7.262   0.639   6.011  1.4287 -0.4519  0.5089
31424SOL     OW 1386   7.115   1.696   1.690 -0.5036  0.1106 -0.0907
31424SOL    HW1 1387   7.154   1.750   1.759  0.0009 -0.1708 -0.1521
31424SOL    HW2 1388   7.047   1.751   1.653 -0.4179  0.4683  0.2721
31425SOL     OW 1389   0.794  12.122   9.075 -0.3416  0.3474 -0.2702
31425SOL    HW1 1390   0.811  12.133   8.981 -1.7650 -1.0744 -0.7282
31425SOL    HW2 1391   0.881  12.123   9.115  0.3009  0.7682 -1.6272
31426SOL     OW 1392   9.620   2.336   3.681  0.0497 -0.1664 -0.0037
31426SOL    HW1 1393   9.694   2.275   3.673  0.4717  0.4466 -1.0826
31426SOL    HW2 1394   9.542   2.281   3.670  0.3243 -0.8236  1.1445
31427SOL     OW 1395   2.197   2.603   0.668 -0.2187 -0.1143  0.4709
31427SOL    HW1 1396   2.173   2.648   0.749  1.5118 -1.1410  1.6228
31427SOL    HW2 1397   2.293   2.601   0.669 -0.1644 -0.4432 -1.4603
31428SOL     OW 1398   8.364   4.056  11.698 -0.5588  0.1540  0.5923
31428SOL    HW1 1399   8.370   3.962  11.681 -0.8609  0.1098  0.7164
31428SOL    HW2 1400   8.299   4.063  11.768 -0.6740  0.4683  0.4576
31429SOL     OW 1401   2.800   7.657   8.819 -0.0750  0.6126  0.3531
31429SOL    HW1 1402   2.875   7.598   8.825 -0.1910  0.5571  1.5670
31429SOL    HW2 1403   2.837   7.744   8.833 -0.0002  0.7755 -0.7785
31430SOL     OW 1404   1.650   5.563   0.983  1.0545  0.2770 -0.3172
31430SOL    HW1 1405   1.582   5.613   0.938 -0.9684  0.7575  2.9025
31430SOL    HW2 1406   1.732   5.596   0.947 -0.2955  3.2018 -1.0218
31431SOL     OW 1407   9.561   5.003   1.674  0.0563 -0.9652 -0.3341
31431SOL    HW1 1408   9.528   4.924   1.717 -0.8250 -1.0696 -1.1829
31431SOL    HW2 1409   9.509   5.075   1.711  0.0180 -0.9299 -0.4556
31432SOL     OW 1410   7.577  11.284   4.935 -0.3549 -0.2149 -0.0356
31432SOL    HW1 1411   7.554  11.242   5.018  0.1070  1.4770  1.0032
31432SOL    HW2 1412   7.493  11.298   4.891 -0.6778 -0.4399  0.5069
31433SOL     OW 1413  11.447   0.524   0.140 -0.5586  0.3869  0.1448
31433SOL    HW1 1414  11.362   0.495   0.172 -0.4445  0.1216  0.2094
31433SOL    HW2 1415  11.431   0.549   0.049 -1.0748  1.9860  0.6369
31434SOL     OW 1416   8.916  11.200   8.912 -0.0594  0.1905  0.3544
31434SOL    HW1 1417   9.011  11.209   8.904  0.0953 -1.8495 -0.8362
31434SOL    HW2 1418   8.883  11.289   8.922  1.9570  0.9359  0.6644
31435SOL     OW 1419   1.898   5.257   4.992  0.4172 -0.1581 -0.0745
31435SOL    HW1 1420   1.909   5.279   5.084  1.6721  0.2625 -0.3055
31435SOL    HW2 1421   1.984   5.274   4.953 -0.5255  1.2611 -1.6515
31436SOL     OW 1422   2.622   2.665   9.468  0.3691 -0.0278  0.4074
31436SOL    HW1 1423   2.716   2.659   9.454  0.2314 -1.3696 -0.0578
31436SOL    HW2 1424   2.607   2.615   9.548 -0.0666 -0.6904 -0.0810
31437SOL     OW 1425   9.648   9.556   7.303 -0.1709  0.1748  0.2431
31437SOL    HW1 1426   9.610   9.535   7.218 -2.5128  1.6942  0.8178
31437SOL    HW2 1427   9.714   9.622   7.284  0.5833 -0.7856 -0.5548
31438SOL     OW 1428   6.076  10.330   3.876 -0.0263  0.0305  0.0911
31438SOL    HW1 1429   6.170  10.331   3.858  0.6152  1.1184  2.9404
31438SOL    HW2 1430   6.041  10.401   3.822  1.5443  2.3365  1.8717
31439SOL     OW 1431   4.662   7.333  10.753 -0.7195  0.4141  0.6690
31439SOL    HW1 1432   4.732   7.346  10.817 -0.7768  0.2613  0.7628
31439SOL    HW2 1433   4.648   7.238  10.752  0.7819  0.1617 -1.1647
31440SOL     OW 1434   2.141  12.913  12.516 -0.2259 -0.2068 -0.4538
31440SOL    HW1 1435   2.213  12.967  12.549 -1.0889  1.2693 -0.8591
31440SOL    HW2 1436   2.129  12.943  12.425  0.5041 -2.4593 -1.3605
31441SOL     OW 1437   9.346   2.641   7.023  0.1124 -0.3509 -0.0881
31441SOL    HW1 1438   9.350   2.647   7.118  1.9839 -0.4587 -0.1181
31441SOL    HW2 1439   9.359   2.730   6.992 -3.9140  0.3318 -0.2893
31442SOL     OW 1440   8.477  11.985   5.605  0.5029  0.1519  0.1306
31442SOL    HW1 1441   8.567  11.962   5.628  0.3595 -0.5954 -0.0500
31442SOL    HW2 1442   8.478  11.991   5.509  0.0860 -1.0456  0.0436
31443SOL     OW 1443   4.600   4.763  10.100 -0.1742 -0.9661  0.3781
31443SOL    HW1 1444   4.680   4.747  10.151 -0.7447 -1.2146  1.2163
31443SOL    HW2 1445   4.592   4.687  10.043  0.2085 -0.9217  0.2629
31444SOL     OW 1446  12.257   3.944   2.365  0.4794 -0.4182  0.0800
31444SOL    HW1 1447  12.221   3.870   2.317  0.0527 -0.0620 -0.1668
31444SOL    HW2 1448  12.346   3.953   2.332 -0.0884  0.3747 -1.3421
31445SOL     OW 1449   1.331   4.735   0.486 -0.0063  0.4355 -0.1385
31445SOL    HW1 1450   1.277   4.763   0.412 -0.3041  1.6199  0.5002
31445SOL    HW2 1451   1.267   4.712   0.554  0.2713  0.2585  0.0608
31446SOL     OW 1452   9.980   3.605   0.477 -0.4535  0.0972  0.7942
31446SOL    HW1 1453   9.929   3.666   0.423  1.3882  1.7471  0.7812
31446SOL    HW2 1454   9.979   3.644   0.565 -0.1938 -0.4544  1.0471
31447SOL     OW 1455  10.425   9.364   4.376 -0.1010 -0.2247  0.5097
31447SOL    HW1 1456  10.516   9.363   4.403  0.2194 -1.1858 -0.5369
31447SOL    HW2 1457  10.419   9.436   4.313  0.4623 -1.4797 -1.0427
31448SOL     OW 1458   7.957  12.343   2.414 -0.0032  0.1045  0.8377
31448SOL    HW1 1459   7.979  12.250   2.404  2.5706  0.7525 -0.6207
31448SOL    HW2 1460   7.863  12.348   2.395  0.4038 -1.8448 -2.5013
31449SOL     OW 1461  11.251   1.448  11.857 -0.0440 -0.0685 -0.0279
31449SOL    HW1 1462  11.175   1.503  11.836 -0.1962  0.0249  0.7363
31449SOL    HW2 1463  11.323   1.487  11.808 -1.1400 -2.3267 -3.8313
31450SOL     OW 1464   7.588   7.529  11.360  0.2037 -0.8756 -0.2938
31450SOL    HW1 1465   7.630   7.580  11.429  0.3186  2.0116 -2.3401
31450SOL    HW2 1466   7.655   7.518  11.293 -1.3813  1.6408 -2.5070
31451SOL     OW 1467   1.595   9.485   2.554  0.1100  0.2038 -0.1572
31451SOL    HW1 1468   1.623   9.438   2.475 -2.7692 -1.9000 -0.0667
31451SOL    HW2 1469   1.504   9.458   2.568 -0.4618  2.8757  2.1974
31452SOL     OW 1470   1.969   4.151   8.287  0.5865  0.7180 -0.4461
31452SOL    HW1 1471   1.907   4.123   8.221  1.1305 -1.3236 -0.1721
31452SOL    HW2 1472   2.027   4.075   8.299  1.9894  1.8965  0.6144
31453SOL     OW 1473   5.587   9.651   4.308  0.3688 -0.3148  0.4578
31453SOL    HW1 1474   5.650   9.600   4.258 -2.4180 -0.5760 -3.1964
31453SOL    HW2 1475   5.560   9.593   4.379  2.8432 -0.8194  1.0667
31454SOL     OW 1476   0.060   2.964   2.957  0.4367 -0.5162 -0.1338
31454SOL    HW1 1477   0.115   2.947   3.033  0.1646  0.8501  0.3961
31454SOL    HW2 1478  -0.029   2.942   2.985  0.1157  1.3772  0.4818
31455SOL     OW 1479   0.777   7.838   8.598  0.1993 -0.0042  0.3675
31455SOL    HW1 1480   0.760   7.746   8.618 -0.1327  0.1305  0.7047
31455SOL    HW2 1481   0.872   7.842   8.584 -0.0456 -0.8322 -1.9515
31456SOL     OW 1482   6.644   7.538   0.963 -0.3231 -0.0445  0.4360
31456SOL    HW1 1483   6.729   7.502   0.988 -0.6487 -0.4997  0.8963
31456SOL    HW2 1484   6.613   7.479   0.894 -1.2857 -1.2553  1.8410
31457SOL     OW 1485   5.242  11.628   7.929 -0.2920  0.0702 -0.3221
31457SOL    HW1 1486   5.216  11.566   7.861 -1.0058  0.6843 -0.6318
31457SOL    HW2 1487   5.164  11.683   7.942 -0.5195 -0.6457  1.6950
31458SOL     OW 1488   6.017   6.276   5.029  0.3333 -0.3395  0.4697
31458SOL    HW1 1489   6.006   6.181   5.026  0.1905 -0.3246  0.5195
31458SOL    HW2 1490   6.021   6.302   4.937 -0.4719 -0.2994  0.4348
31459SOL     OW 1491  10.236   0.584   6.443 -0.0442  0.0399  0.0177
31459SOL    HW1 1492  10.166   0.585   6.508  0.4004  0.1917  0.5038
31459SOL    HW2 1493  10.191   0.596   6.359 -0.7134 -0.9838  0.2019
31460SOL     OW 1494   8.929   0.537   1.324 -0.4354 -0.2399  0.1159
31460SOL    HW1 1495   9.007   0.547   1.378 -0.4571  1.7521 -0.1594
31460SOL    HW2 1496   8.862   0.505   1.385  0.3499 -1.1309  0.5378
31461SOL     OW 1497   6.854  12.524   6.112 -0.2300  0.2084  0.2886
31461SOL    HW1 1498   6.803  12.593   6.068 -0.8266 -0.3790  0.0375
31461SOL    HW2 1499   6.830  12.444   6.066  0.9851 -0.0855  0.1182
31462SOL     OW 1500   5.250   2.381   4.503 -0.4371  0.0567  0.8841
31462SOL    HW1 1501   5.234   2.287   4.512  1.0247 -0.3188  0.0215
31462SOL    HW2 1502   5.330   2.396   4.554 -0.2763  0.6805  0.4612
31463SOL     OW 1503   3.812   0.662   5.895  0.5806  0.1213 -0.2760
31463SOL    HW1 1504   3.739   0.701   5.846 -0.2037  1.0279  1.5367
31463SOL    HW2 1505   3.851   0.600   5.833 -1.5404 -0.1737 -1.4207
31464SOL     OW 1506  10.679  10.337   6.105  0.0400 -0.5874  0.3572
31464SOL    HW1 1507  10.752  10.354   6.045  1.0371 -3.4597  0.6326
31464SOL    HW2 1508  10.615  10.290   6.052 -0.9593  0.4998  0.5434
31465SOL     OW 1509  12.860   3.801   9.572 -0.2884  0.4047 -0.2799
31465SOL    HW1 1510  12.938   3.820   9.623 -0.0101  2.0943 -1.2630
31465SOL    HW2 1511  12.787   3.820   9.630  0.0037 -0.6373  0.4581
31466SOL     OW 1512  10.218   1.295   5.651  0.2100 -0.7167  0.3138
31466SOL    HW1 1513  10.303   1.324   5.684  0.6375 -1.3754 -0.1892
31466SOL    HW2 1514  10.208   1.341   5.567 -0.7564  0.7489  1.1747
31467SOL     OW 1515  11.499   0.234   9.626  0.1934  0.0324 -0.1732
31467SOL    HW1 1516  11.581   0.243   9.676  0.1749  2.7119 -0.4820
31467SOL    HW2 1517  11.438   0.193   9.687  1.2048 -0.2103  0.7114
31468SOL     OW 1518   0.880   6.699   2.609  0.2041  0.1394  0.5313
31468SOL    HW1 1519   0.928   6.703   2.692 -1.3023  0.3675  1.4412
31468SOL    HW2 1520   0.925   6.761   2.552  2.0149 -0.9129  0.7429
31469SOL     OW 1521   9.070   1.720  12.197  0.3771 -0.1857 -0.6325
31469SOL    HW1 1522   9.064   1.792  12.135 -1.1420  0.7668  0.5554
31469SOL    HW2 1523   9.092   1.761  12.281 -0.3390 -1.1091  0.0344
31470SOL     OW 1524   4.789   2.716   5.725 -0.0162  0.3262  0.1218
31470SOL    HW1 1525   4.815   2.735   5.815  1.5174 -0.0947 -0.2024
31470SOL    HW2 1526   4.775   2.802   5.685 -1.2760  0.5020  0.8965
31471SOL     OW 1527   1.641   9.380  11.882 -0.4347 -0.1234  0.7005
31471SOL    HW1 1528   1.549   9.389  11.906 -0.2604  2.7594  0.5637
31471SOL    HW2 1529   1.686   9.359  11.964 -1.0063  0.2012  1.1012
31472SOL     OW 1530   1.217  12.460  11.625  0.2672  0.3709 -0.6542
31472SOL    HW1 1531   1.299  12.507  11.640  0.7688 -0.4861 -0.6084
31472SOL    HW2 1532   1.240  12.368  11.638 -0.8883  0.1708  0.1501
31473SOL     OW 1533   3.528   7.954   2.477  0.6544 -0.0077  0.0864
31473SOL    HW1 1534   3.531   7.997   2.392 -0.2155  0.0547  0.0793
31473SOL    HW2 1535   3.547   7.862   2.459  1.0164  0.0999 -0.0951
31474SOL     OW 1536   0.320   9.825   8.396  0.2886  0.2370  0.2430
31474SOL    HW1 1537   0.342   9.900   8.341  0.0354  0.3045  0.2350
31474SOL    HW2 1538   0.252   9.857   8.455 -1.5801 -0.6396 -1.3362
31475SOL     OW 1539   7.705  11.333   2.365  0.3155  0.3053  0.2910
31475SOL    HW1 1540   7.617  11.321   2.401 -1.0229 -2.0573 -3.2623
31475SOL    HW2 1541   7.702  11.420   2.325 -0.0501  0.6212  0.9784
31476SOL     OW 1542  11.601   6.936   7.075  0.2668  0.7060 -0.3282
31476SOL    HW1 1543  11.684   6.889   7.083 -0.3081 -0.3580 -0.4833
31476SOL    HW2 1544  11.627   7.025   7.050  1.4171  0.7117  0.7582
31477SOL     OW 1545   2.192   9.507   8.248  0.5666  0.1823 -0.0543
31477SOL    HW1 1546   2.226   9.463   8.326  1.8951  0.7277 -0.2980
31477SOL    HW2 1547   2.108   9.543   8.276 -0.3318 -2.0277  0.2860
31478SOL     OW 1548   9.781  11.427   7.122  0.4208 -0.0260  0.1340
31478SOL    HW1 1549   9.706  11.475   7.087  0.2318 -0.2701  0.2060
31478SOL    HW2 1550   9.778  11.443   7.216  0.2530 -0.3263  0.1800
31479SOL     OW 1551   7.529   8.860   0.502  0.2555 -0.4837  0.0010
31479SOL    HW1 1552   7.467   8.793   0.473 -0.1578  0.3159 -1.0402
31479SOL    HW2 1553   7.479   8.916   0.561  0.5580 -0.9808  0.7466
31480SOL     OW 1554   2.003  10.535   2.705  0.6295 -0.6654 -0.1755
31480SOL    HW1 1555   1.963  10.476   2.641 -0.2449 -2.3009  1.7467
31480SOL    HW2 1556   2.044  10.476   2.769  0.1326  0.7974  1.5915
31481SOL     OW 1557  11.082   1.157   7.468 -0.0198  0.1272 -0.6393
31481SOL    HW1 1558  11.019   1.223   7.497 -0.9627 -1.0094  0.0148
31481SOL    HW2 1559  11.167   1.193   7.489 -0.5933  0.1723  1.8544
31482SOL     OW 1560   8.914   3.480   2.573  0.4317  0.7310  0.0436
31482SOL    HW1 1561   8.887   3.439   2.491  0.4250  0.5542  0.1330
31482SOL    HW2 1562   8.878   3.423   2.641  3.0829 -0.9287  0.1872
31483SOL     OW 1563   5.720  12.027  10.368 -0.0376  0.5878 -0.6750
31483SOL    HW1 1564   5.638  11.983  10.390  1.0920 -0.2397  2.4318
31483SOL    HW2 1565   5.764  11.967  10.309 -0.1160 -0.8038  0.6130
31484SOL     OW 1566   2.977  11.306   8.938 -0.1417 -0.3285  0.3335
31484SOL    HW1 1567   3.059  11.341   8.901 -0.2564 -0.9725 -0.5471
31484SOL    HW2 1568   3.003  11.224   8.980 -0.6621 -1.6907 -1.8671
31485SOL     OW 1569   3.316   6.828   9.678  0.9684  0.0303 -0.5360
31485SOL    HW1 1570   3.373   6.900   9.703  1.3379 -0.1027 -0.9795
31485SOL    HW2 1571   3.364   6.782   9.609  0.3216 -0.0689 -0.9296
31486SOL     OW 1572   0.643   4.372  10.818  0.3697  0.3830 -0.1161
31486SOL    HW1 1573   0.721   4.327  10.849  0.0865  0.4647  0.7526
31486SOL    HW2 1574   0.621   4.328  10.736  1.4798  0.5543 -0.5226
31487SOL     OW 1575   6.460   7.614   6.587  0.1997  0.0513  0.6648
31487SOL    HW1 1576   6.476   7.520   6.578  0.3532  0.0771  0.6687
31487SOL    HW2 1577   6.447   7.645   6.498 -0.1738 -0.0303  0.6881
31488SOL     OW 1578   9.875   4.338  11.760 -0.6026  0.0765  0.1417
31488SOL    HW1 1579   9.907   4.293  11.682 -0.4280 -0.1025  0.3189
31488SOL    HW2 1580   9.891   4.277  11.832  1.6470  1.2734  0.7306
31489SOL     OW 1581   7.833   2.015   3.320 -0.3601  0.2591 -0.0106
31489SOL    HW1 1582   7.788   1.954   3.262 -0.4017  1.2243 -1.0330
31489SOL    HW2 1583   7.832   1.972   3.406 -1.8212 -0.4450 -0.3402
31490SOL     OW 1584   7.628   2.165   1.921  0.4140  0.0093  0.4328
31490SOL    HW1 1585   7.549   2.124   1.957 -0.7831  1.3735 -0.5544
31490SOL    HW2 1586   7.600   2.251   1.892  2.3081  0.5724  0.1376
31491SOL     OW 1587  12.744   9.457   4.675 -0.3840  1.0687 -0.2750
31491SOL    HW1 1588  12.755   9.430   4.766  2.3760 -1.3083 -1.1375
31491SOL    HW2 1589  12.749   9.552   4.677 -0.4132  1.0692  2.0393
31492SOL     OW 1590  12.592   7.081  12.695  0.6849 -0.5774  0.0893
31492SOL    HW1 1591  12.514   7.073  12.750 -0.5737  1.4726 -1.2482
31492SOL    HW2 1592  12.659   7.114  12.755 -0.1319 -0.1653  0.8092
31493SOL     OW 1593   6.243   6.511  12.627  0.4323  0.5789 -0.0507
31493SOL    HW1 1594   6.203   6.591  12.593  1.3961  1.1098  0.0450
31493SOL    HW2 1595   6.322   6.540  12.671  1.8366 -0.5983 -1.6851
31494SOL     OW 1596   8.965   5.631  12.869 -0.1443  0.0212 -0.0124
31494SOL    HW1 1597   9.059   5.631  12.850 -0.4988 -0.3165 -1.9979
31494SOL    HW2 1598   8.925   5.672  12.793 -1.7435 -1.5750 -0.1097
31495SOL     OW 1599   4.286   7.198   4.425  0.5782 -0.0098 -0.7467
31495SOL    HW1 1600   4.313   7.261   4.358  0.7585  1.0017  0.2434
31495SOL    HW2 1601   4.252   7.124   4.375 -0.5586  1.2539 -1.9645
31496SOL     OW 1602  12.501   5.361   4.479 -0.7115 -0.2686 -0.6633
31496SOL    HW1 1603  12.416   5.325   4.452 -0.1523 -0.4660 -2.3211
31496SOL    HW2 1604  12.511   5.440   4.427 -0.1143  0.0604 -0.0616
31497SOL     OW 1605   2.615   5.629   5.427  0.1488 -0.1374  0.0975
31497SOL    HW1 1606   2.620   5.700   5.363 -0.2175 -0.3581 -0.1781
31497SOL    HW2 1607   2.690   5.573   5.406  0.1121 -0.1342 -0.0446
31498SOL     OW 1608   4.097   5.871   0.927  0.3673  0.2883  0.0048
31498SOL    HW1 1609   4.018   5.901   0.972  1.0727  0.2225  1.3356
31498SOL    HW2 1610   4.070   5.791   0.882 -0.6872  1.0726 -0.8323
31499SOL     OW 1611  11.064   9.039   8.651 -0.0857  0.5572 -0.2665
31499SOL    HW1 1612  11.023   9.065   8.568 -1.0883  0.8322  0.2867
31499SOL    HW2 1613  11.149   9.004   8.626 -0.8611 -0.5258 -1.5382
31500SOL     OW 1614  11.440   9.966   5.950  1.0080  0.5555  0.0922
31500SOL    HW1 1615  11.405   9.926   6.030  1.4583 -0.8356 -0.3995
31500SOL    HW2 1616  11.516  10.016   5.980  1.6851 -0.6427  0.4378
31501SOL     OW 1617   8.099   2.980   4.266 -0.5858  0.1135 -0.2764
31501SOL    HW1 1618   8.070   2.945   4.351  0.7619 -0.3400  0.0285
31501SOL    HW2 1619   8.024   3.028   4.233 -0.6142  1.8683  2.0291
31502SOL     OW 1620  12.115   5.586   1.366 -0.2762  0.6045 -0.0244
31502SOL    HW1 1621  12.160   5.601   1.450  1.3539  0.8388 -0.8852
31502SOL    HW2 1622  12.147   5.500   1.337  1.4024  1.6895 -1.6603
31503SOL     OW 1623   2.558   5.797   4.251  0.3040  0.1935 -0.2239
31503SOL    HW1 1624   2.588   5.887   4.238  0.9230 -0.1001 -0.8870
31503SOL    HW2 1625   2.553   5.760   4.163 -0.7759 -0.1707 -0.0262
31504SOL     OW 1626  11.435   0.425   1.947  0.3905 -0.2087  0.1128
31504SOL    HW1 1627  11.487   0.408   2.026 -0.2806  0.1713  0.6401
31504SOL    HW2 1628  11.344   0.420   1.976  0.1195 -0.7688 -0.7851
31505SOL     OW 1629   1.626   7.762   1.630 -0.4820  0.5757 -0.3551
31505SOL    HW1 1630   1.555   7.698   1.621  0.7603 -0.8765 -0.2567
31505SOL    HW2 1631   1.661   7.746   1.717  0.3220  0.8759 -0.6197
31506SOL     OW 1632  11.437  12.939   8.864  0.0281  0.0655  0.3564
31506SOL    HW1 1633  11.430  12.962   8.957  1.3403 -1.1392  0.7952
31506SOL    HW2 1634  11.354  12.897   8.843 -1.6776  3.2682  0.0194
31507SOL     OW 1635  12.033   2.394   5.095  0.0974  0.2305 -0.2033
31507SOL    HW1 1636  12.009   2.330   5.162 -0.7576 -0.9276 -1.5574
31507SOL    HW2 1637  11.959   2.393   5.034  1.3627  0.3794 -1.7787
31508SOL     OW 1638   6.567   2.261   1.841  0.0866  0.0656 -0.4648
31508SOL    HW1 1639   6.541   2.293   1.927  1.4230 -1.1298  0.4251
31508SOL    HW2 1640   6.492   2.210   1.811  0.2596 -0.9700  0.7894
31509SOL     OW 1641  11.756  12.685  12.375  0.3756  0.1919 -0.5060
31509SOL    HW1 1642  11.769  12.692  12.280 -0.5378 -1.1208 -0.7524
31509SOL    HW2 1643  11.792  12.766  12.410  1.1349  0.5107 -1.9337
31510SOL     OW 1644   4.785   4.609   3.736  0.4217 -1.1649 -0.3575
31510SOL    HW1 1645   4.801   4.515   3.731 -2.9954 -1.8780 -0.1007
31510SOL    HW2 1646   4.691   4.618   3.720  1.0305  2.4801 -3.2345
31511SOL     OW 1647   0.722   7.549   2.791 -0.1284  0.3749  0.6317
31511SOL    HW1 1648   0.791   7.596   2.838 -0.3075  1.3362 -0.0316
31511SOL    HW2 1649   0.753   7.548   2.700 -1.0716  0.9897  0.2929
31512SOL     OW 1650   7.339   4.015   8.005 -0.1587 -0.5021  0.3040
31512SOL    HW1 1651   7.344   3.940   8.064 -2.1713 -1.2501 -0.3742
31512SOL    HW2 1652   7.407   4.000   7.940  0.2668 -1.0925  0.8803
31513SOL     OW 1653   9.312   5.795   5.474  0.6230 -0.1390 -0.4217
31513SOL    HW1 1654   9.267   5.728   5.424  0.2346 -0.0958 -0.1343
31513SOL    HW2 1655   9.369   5.747   5.534  0.4382 -0.2120 -0.3029
31514SOL     OW 1656   2.057   8.411   4.095 -0.8026  0.5697 -0.2531
31514SOL    HW1 1657   2.118   8.481   4.073  1.5111 -1.7690 -1.9238
31514SOL    HW2 1658   1.997   8.408   4.020 -0.4671  0.3276 -0.5143
31515SOL     OW 1659   0.777   9.554   4.135 -1.2274  0.5657 -0.1275
31515SOL    HW1 1660   0.836   9.626   4.157 -0.1802 -0.1381 -0.5471
31515SOL    HW2 1661   0.793   9.488   4.203  0.2765 -0.6318 -1.5760
31516SOL     OW 1662  11.199   2.022   9.690 -0.4577  0.1804  0.4281
31516SOL    HW1 1663  11.231   2.106   9.656  0.0037  0.8358  2.3444
31516SOL    HW2 1664  11.271   1.961   9.673 -0.6623  0.2227 -0.6765
31517SOL     OW 1665   3.254   0.035   6.750  0.2457 -0.2669 -0.0114
31517SOL    HW1 1666   3.246   0.130   6.755 -2.3157 -0.4157 -0.1294
31517SOL    HW2 1667   3.260   0.016   6.657  0.4047 -0.2509 -0.0053
31518SOL     OW 1668   8.420   4.255   6.155 -0.0129 -0.9901  0.2608
31518SOL    HW1 1669   8.429   4.214   6.242 -0.8195 -0.3320  0.6709
31518SOL    HW2 1670   8.329   4.283   6.152  0.2224 -0.2846 -0.4849
31519SOL     OW 1671   5.922  12.502   9.306 -0.5712 -0.2704  0.1421
31519SOL    HW1 1672   5.913  12.510   9.211 -1.3301  0.0387  0.2300
31519SOL    HW2 1673   5.870  12.425   9.329 -0.5534 -0.2283  0.3253
31520SOL     OW 1674   3.623   3.662   5.585 -0.0142 -0.6589  0.4821
31520SOL    HW1 1675   3.591   3.715   5.658  0.2930 -0.0360  0.1722
31520SOL    HW2 1676   3.575   3.695   5.509  1.1797  0.1360  0.0520
31521SOL     OW 1677  10.459   4.176  12.075  0.3911  0.0491  0.3666
31521SOL    HW1 1678  10.521   4.122  12.026 -0.3045  0.0281 -0.5136
31521SOL    HW2 1679  10.512   4.215  12.145  0.8854 -1.7918  1.0629
31522SOL     OW 1680  10.850   1.531   4.306 -0.3044  0.1422  0.1903
31522SOL    HW1 1681  10.897   1.469   4.361  1.2971  0.9867 -0.1312
31522SOL    HW2 1682  10.770   1.486   4.281  0.1987 -1.2791  1.0085
31523SOL     OW 1683  12.505  11.856   9.931  0.6361  0.4268  0.1018
31523SOL    HW1 1684  12.443  11.827   9.864  0.4976 -1.1129  0.8502
31523SOL    HW2 1685  12.474  11.943   9.956 -0.5164  0.1784 -0.3864
31524SOL     OW 1686  10.322   4.225   5.052 -0.2646  0.0270 -0.2882
31524SOL    HW1 1687  10.386   4.294   5.071  0.8591 -0.5769 -1.6857
31524SOL    HW2 1688  10.369   4.144   5.069 -0.3826 -0.4434 -2.0379
31525SOL     OW 1689  10.731   1.479  12.421 -0.1635 -0.0703  0.1121
31525SOL    HW1 1690  10.723   1.555  12.479 -1.5343 -0.8337  1.0016
31525SOL    HW2 1691  10.785   1.417  12.469  2.0068  0.7364 -1.1282
31526SOL     OW 1692   3.889   7.997   6.613 -0.2139  0.1824  0.0690
31526SOL    HW1 1693   3.967   8.014   6.559 -0.1917  1.6780  0.5158
31526SOL    HW2 1694   3.899   8.054   6.689 -1.0400 -0.7021  0.8743
31527SOL     OW 1695   3.900  10.716   1.038 -0.4790 -0.3721  0.5226
31527SOL    HW1 1696   3.947  10.635   1.053 -2.5640 -2.2209 -1.9948
31527SOL    HW2 1697   3.869  10.710   0.947 -2.6167  2.2231  0.9254
31528SOL     OW 1698   9.964   0.387  12.766 -0.3632 -0.2172  0.1784
31528SOL    HW1 1699   9.995   0.477  12.776 -1.0338  0.1404 -0.8237
31528SOL    HW2 1700  10.012   0.337  12.833 -0.9208  1.0908  1.6000
31529SOL     OW 1701   6.601   3.530   6.852 -0.4504 -0.0741 -0.7076
31529SOL    HW1 1702   6.570   3.574   6.773 -0.9191 -0.1570 -0.5699
31529SOL    HW2 1703   6.623   3.442   6.822 -1.4223 -0.3703 -0.5896
31530SOL     OW 1704   6.954   8.740   1.225 -0.1728  0.1072  0.3106
31530SOL    HW1 1705   6.967   8.826   1.265  0.2889 -0.3688  1.1966
31530SOL    HW2 1706   6.882   8.701   1.274 -0.6137  0.1099 -0.3155
31531SOL     OW 1707   8.353   1.511   8.585 -0.1063  0.1255  0.2624
31531SOL    HW1 1708   8.433   1.539   8.541 -0.5015  0.6477 -0.1550
31531SOL    HW2 1709   8.381   1.449   8.651  0.4940 -0.8353 -0.8630
31532SOL     OW 1710   1.616   2.224   5.629  0.1510 -0.0068  0.4234
31532SOL    HW1 1711   1.700   2.253   5.665 -0.4660  0.2522  1.6927
31532SOL    HW2 1712   1.606   2.275   5.549  0.4658  1.1487  1.0926
31533SOL     OW 1713   1.438  10.897   7.477  0.0181 -0.5116  0.1357
31533SOL    HW1 1714   1.379  10.949   7.532  0.4706  0.0337  0.1118
31533SOL    HW2 1715   1.380  10.835   7.432 -0.7112  0.7838 -0.7818
31534SOL     OW 1716   7.156  11.793   5.487  0.3485 -0.6907 -0.0857
31534SOL    HW1 1717   7.215  11.835   5.424  1.6692 -0.9604  0.9394
31534SOL    HW2 1718   7.187  11.703   5.493 -0.5392 -0.9999  0.0613
31535SOL     OW 1719  11.743   7.724   9.745  0.4872  0.1556 -0.6019
31535SOL    HW1 1720  11.678   7.661   9.775 -0.2470  1.1403 -0.0700
31535SOL    HW2 1721  11.710   7.809   9.774  1.2855  0.8319 -1.5844
31536SOL     OW 1722   8.884   7.543   7.453  0.8211  0.1729  0.4439
31536SOL    HW1 1723   8.956   7.485   7.427  0.0079 -1.1779  1.0644
31536SOL    HW2 1724   8.927   7.621   7.487  1.9466  0.7041 -1.9350
31537SOL     OW 1725   6.612   9.686   0.423 -0.0892 -0.0379 -0.2123
31537SOL    HW1 1726   6.606   9.635   0.342  0.5112 -0.5178  0.0378
31537SOL    HW2 1727   6.521   9.698   0.451 -0.3155 -4.6455  2.0151
31538SOL     OW 1728  10.948  11.973  12.605  0.5482 -0.0792 -0.3230
31538SOL    HW1 1729  11.011  12.034  12.567  0.7855  1.7838  2.7844
31538SOL    HW2 1730  10.880  11.963  12.538  1.7010  1.7120 -1.8304
31539SOL     OW 1731  12.053   6.108   9.180 -0.4633  0.0702  0.1205
31539SOL    HW1 1732  11.972   6.076   9.219 -0.1475 -0.9537 -0.0414
31539SOL    HW2 1733  12.024   6.168   9.111 -1.0418  0.8772  1.0301
31540SOL     OW 1734   9.208   2.653   9.402 -0.6522 -0.4228  0.0958
31540SOL    HW1 1735   9.142   2.588   9.429 -1.5451  0.9186  1.3028
31540SOL    HW2 1736   9.223   2.705   9.481  1.8963 -0.6753 -0.1493
31541SOL     OW 1737  10.933  11.886   2.598  0.4079 -0.2797  0.4735
31541SOL    HW1 1738  10.931  11.961   2.537  0.3258 -0.1344  0.6536
31541SOL    HW2 1739  11.024  11.858   2.599  0.5437  0.1587  0.8176
31542SOL     OW 1740   1.998   6.038   0.784 -0.5006  0.4203  0.4964
31542SOL    HW1 1741   2.058   6.103   0.747  2.3929 -0.5010  3.0995
31542SOL    HW2 1742   1.949   6.085   0.851  1.5469  0.1335  2.3331
31543SOL     OW 1743  11.911   5.064   0.094 -0.2285 -0.2939  0.1516
31543SOL    HW1 1744  11.932   5.014   0.173  1.5734  1.4043  0.8295
31543SOL    HW2 1745  11.981   5.041   0.033 -0.3910  0.0476 -0.1652
31544SOL     OW 1746   6.043   5.564   4.818  0.3482  0.0524 -0.2011
31544SOL    HW1 1747   6.069   5.478   4.853  1.0523  0.7821  1.1391
31544SOL    HW2 1748   5.962   5.547   4.770  0.6435 -1.4177 -0.2215
31545SOL     OW 1749   1.231   0.608  10.498  0.3428 -0.6494 -0.1857
31545SOL    HW1 1750   1.242   0.591  10.404  2.5674 -0.0353 -0.0846
31545SOL    HW2 1751   1.244   0.702  10.507  1.1511 -0.8455  0.8435
31546SOL     OW 1752   3.572  11.975   6.950 -0.4913  0.5828  0.1516
31546SOL    HW1 1753   3.554  11.995   6.858 -0.5424 -0.9844 -0.2116
31546SOL    HW2 1754   3.510  11.904   6.971 -0.1212  0.5716  1.2323
31547SOL     OW 1755   4.142   9.680   6.601 -0.1569  0.7986  0.4940
31547SOL    HW1 1756   4.196   9.665   6.679  0.4251  0.3615  0.0276
31547SOL    HW2 1757   4.206   9.702   6.533 -0.5576  0.1810 -0.0923
31548SOL     OW 1758   8.056   6.844   4.592  0.1265  0.0848 -0.5362
31548SOL    HW1 1759   8.120   6.800   4.648  3.1492  4.1447 -0.3610
31548SOL    HW2 1760   8.084   6.823   4.503 -0.4730 -0.8577 -0.5198
31549SOL     OW 1761   7.775   2.945   8.876  0.2345 -0.1543 -0.0906
31549SOL    HW1 1762   7.724   2.951   8.795  0.7895  0.2836 -0.4222
31549SOL    HW2 1763   7.864   2.970   8.849  0.5118 -0.4212  0.5708
31550SOL     OW 1764   8.512   7.002   3.927 -0.4868 -0.2770  0.3886
31550SOL    HW1 1765   8.597   7.009   3.884 -0.1907  0.2458  1.0368
31550SOL    HW2 1766   8.534   6.992   4.020 -1.1442  0.3762  0.6169
31551SOL     OW 1767   6.785  11.585   3.332 -0.3545 -0.1813  0.0574
31551SOL    HW1 1768   6.749  11.519   3.391  1.4576 -0.0622  1.3872
31551SOL    HW2 1769   6.794  11.540   3.248  0.0332 -1.3787  0.7119
31552SOL     OW 1770   0.669   2.328   9.549 -0.1661  0.3989 -0.2083
31552SOL    HW1 1771   0.723   2.335   9.628 -0.5372  1.2004 -0.0098
31552SOL    HW2 1772   0.658   2.419   9.521 -2.2620  0.3608  0.3412
31553SOL     OW 1773   8.309   5.354   0.239  0.8469 -0.3294 -0.3861
31553SOL    HW1 1774   8.218   5.379   0.226  1.2686  0.4255 -2.2416
31553SOL    HW2 1775   8.350   5.431   0.278  1.4719  0.8902 -3.2035
31554SOL     OW 1776   3.667   8.023   5.969 -0.0216 -0.3933 -0.3800
31554SOL    HW1 1777   3.603   7.952   5.975  0.1493 -0.5961 -0.9279
31554SOL    HW2 1778   3.615   8.101   5.951 -0.2120 -0.3686  0.2484
31555SOL     OW 1779   4.015   2.923  11.023  0.6439  0.5329  0.3670
31555SOL    HW1 1780   4.017   2.976  11.103 -1.3295 -1.2030  1.6807
31555SOL    HW2 1781   4.055   2.839  11.048  1.5186  0.5132 -0.9728
31556SOL     OW 1782  12.056   9.934   9.085  0.0589  0.3016 -0.1853
31556SOL    HW1 1783  11.966   9.909   9.066  1.2384 -3.8011 -1.4057
31556SOL    HW2 1784  12.064   9.923   9.180 -0.9166  1.7326  0.0921
31557SOL     OW 1785  10.681   9.340  11.172 -0.3501  0.1414 -0.4106
31557SOL    HW1 1786  10.665   9.246  11.168 -1.7360  0.2954  0.5688
31557SOL    HW2 1787  10.678   9.368  11.081 -0.8407 -0.6374 -0.6459
31558SOL     OW 1788   3.405   7.895  10.560  0.7958 -0.7029 -0.0516
31558SOL    HW1 1789   3.442   7.979  10.587 -0.3206 -0.5031  0.9427
31558SOL    HW2 1790   3.323   7.918  10.516  0.5547 -1.2635  0.0945
31559SOL     OW 1791   5.799   6.749   2.762  0.1220  0.5824  0.0298
31559SOL    HW1 1792   5.872   6.805   2.736 -0.4982  1.1099 -0.6231
31559SOL    HW2 1793   5.754   6.729   2.680 -0.9333  0.9345  0.5057
31560SOL     OW 1794   3.138   8.660   7.376 -0.5585 -0.2168 -0.2844
31560SOL    HW1 1795   3.193   8.592   7.338  0.4536 -1.1215  2.5458
31560SOL    HW2 1796   3.058   8.615   7.401  0.1037 -0.4506  1.5754
31561SOL     OW 1797  10.534  10.867   6.024  0.2557  0.0924  0.3120
31561SOL    HW1 1798  10.511  10.776   6.042 -0.1172  0.1600  0.1853
31561SOL    HW2 1799  10.450  10.912   6.013  0.4177 -0.0342 -2.0163
31562SOL     OW 1800  12.123   8.293   6.996 -0.0290 -0.2216 -0.3345
31562SOL    HW1 1801  12.092   8.370   7.043 -1.5366 -0.7856 -0.3662
31562SOL    HW2 1802  12.166   8.327   6.918 -3.4778  0.5559 -2.0339
31563SOL     OW 1803   6.828  11.820   0.805  0.2709  0.5907 -0.1672
31563SOL    HW1 1804   6.782  11.903   0.816  0.9110  0.9030  0.1680
31563SOL    HW2 1805   6.766  11.765   0.755 -0.3898  1.0584  0.1187
31564SOL     OW 1806   7.579  12.608   1.940 -0.0425  0.3283 -0.7128
31564SOL    HW1 1807   7.595  12.694   1.979 -0.2328 -0.2893  0.8075
31564SOL    HW2 1808   7.652  12.554   1.970 -1.3689 -0.7629  0.7583
31565SOL     OW 1809  11.443   8.366   4.270 -0.1483  0.2028 -0.3577
31565SOL    HW1 1810  11.372   8.396   4.326 -1.1578  2.1534 -2.5215
31565SOL    HW2 1811  11.401   8.310   4.205  0.2917  1.0311 -1.4015
31566SOL     OW 1812   1.542   9.903  10.329 -0.4160 -0.0306 -0.2207
31566SOL    HW1 1813   1.600   9.965  10.374 -1.6659  0.4162  0.8093
31566SOL    HW2 1814   1.518   9.949  10.248  0.8073 -0.3119 -0.7736
31567SOL     OW 1815   5.042   7.552   7.503 -0.2137 -0.0108 -0.5601
31567SOL    HW1 1816   5.070   7.463   7.480 -2.3457 -0.7645 -0.4830
31567SOL    HW2 1817   5.085   7.570   7.586  0.7406 -0.7193 -0.8893
31568SOL     OW 1818   4.337   2.677  10.694  0.4920 -0.3743 -0.5389
31568SOL    HW1 1819   4.257   2.703  10.740  0.2419  0.7478 -1.5553
31568SOL    HW2 1820   4.391   2.756  10.693  1.5083 -1.0499 -0.0974
31569SOL     OW 1821   9.068   6.851  10.257  0.1584  0.1469  0.1687
31569SOL    HW1 1822   9.022   6.929  10.286  1.0631  0.7101  0.1267
31569SOL    HW2 1823   8.999   6.791  10.229 -0.5289  1.0637 -0.1328
31570SOL     OW 1824  10.480   4.718   8.118 -0.0699  0.4776 -0.3981
31570SOL    HW1 1825  10.437   4.666   8.051 -1.6709 -1.0699  1.6913
31570SOL    HW2 1826  10.413   4.778   8.150  0.1829  0.1487  0.8136
31571SOL     OW 1827   6.262   4.422  11.890  0.0615 -0.5854 -0.4675
31571SOL    HW1 1828   6.286   4.388  11.977 -0.3525 -0.5450 -0.3388
31571SOL    HW2 1829   6.242   4.344  11.839  0.6402 -0.6335 -0.6325
31572SOL     OW 1830   3.555   2.307   8.016  0.1104 -0.5668 -0.3720
31572SOL    HW1 1831   3.495   2.241   7.980 -0.3023 -1.1458  1.3104
31572SOL    HW2 1832   3.501   2.360   8.074  0.6868  0.5995 -0.8609
31573SOL     OW 1833   6.024   0.957   2.985 -0.6448  0.1995  0.3814
31573SOL    HW1 1834   6.110   0.985   3.017 -0.9668 -0.5549  2.0116
31573SOL    HW2 1835   6.023   0.982   2.892  1.5021 -0.1583  0.2165
31574SOL     OW 1836   0.054   5.607   0.097 -0.5261 -0.0296  0.3441
31574SOL    HW1 1837  -0.034   5.608   0.059 -0.5087 -0.2222  0.3011
31574SOL    HW2 1838   0.045   5.559   0.178 -0.1116 -1.6094 -0.5105
31575SOL     OW 1839   6.873   2.993   0.952 -0.2922  0.2430  0.3342
31575SOL    HW1 1840   6.888   3.086   0.964 -1.4425  0.7125 -1.5387
31575SOL    HW2 1841   6.789   2.977   0.995 -1.0303  0.4861 -0.9934
31576SOL     OW 1842   4.239   4.752   8.812  0.1101  0.1423 -0.2162
31576SOL    HW1 1843   4.323   4.760   8.767 -0.2020  2.2697 -0.4959
31576SOL    HW2 1844   4.173   4.771   8.745 -0.5504 -0.3655  0.2742
31577SOL     OW 1845   7.916  11.595   9.261  0.1389  0.1496  0.1986
31577SOL    HW1 1846   8.010  11.588   9.277 -0.2342 -2.5717  1.8856
31577SOL    HW2 1847   7.905  11.572   9.169  1.2394  2.6766 -0.6370
31578SOL     OW 1848   1.309   8.134   0.210  0.4045 -0.0261 -0.4646
31578SOL    HW1 1849   1.346   8.138   0.122  0.0639  1.4041 -0.5562
31578SOL    HW2 1850   1.261   8.216   0.220  0.3997 -0.1895  1.0427
31579SOL     OW 1851   3.349   6.272   8.057  0.0671 -0.2461  0.4028
31579SOL    HW1 1852   3.258   6.258   8.084 -0.1251 -2.3564 -1.1296
31579SOL    HW2 1853   3.343   6.297   7.965  0.9611  2.1321  0.9290
31580SOL     OW 1854   1.026   2.645   8.595 -0.1428  0.0973 -0.0310
31580SOL    HW1 1855   1.066   2.724   8.560 -1.2905 -0.2497 -2.3269
31580SOL    HW2 1856   1.072   2.573   8.552 -1.8362 -0.3417 -1.2220
31581SOL     OW 1857   4.388   0.175   6.346 -0.3397  0.3728  0.0061
31581SOL    HW1 1858   4.317   0.170   6.282 -0.6056  0.7069  0.2740
31581SOL    HW2 1859   4.406   0.084   6.369  0.0041  0.2237 -0.8098
31582SOL     OW 1860   7.998   7.482   6.298 -0.5997 -0.1509 -0.1038
31582SOL    HW1 1861   7.966   7.403   6.341 -1.4178  0.1180 -0.1960
31582SOL    HW2 1862   8.048   7.451   6.223 -0.3366 -0.5920  0.2494
31583SOL     OW 1863  12.693   9.778  12.656 -0.5734  0.0508 -0.1343
31583SOL    HW1 1864  12.739   9.719  12.715 -1.5494 -0.2686  0.3379
31583SOL    HW2 1865  12.722   9.751  12.568  0.0373 -0.2117  0.1454
31584SOL     OW 1866   9.353   0.196   7.537  0.0524 -0.2789 -0.3172
31584SOL    HW1 1867   9.437   0.192   7.583  0.7843 -0.7231 -1.6318
31584SOL    HW2 1868   9.326   0.105   7.529 -2.1248 -0.0518  2.7405
31585SOL     OW 1869   1.214   9.397   5.152  0.1226  0.1630 -0.0258
31585SOL    HW1 1870   1.168   9.353   5.081  0.1612  0.9910 -0.5816
31585SOL    HW2 1871   1.305   9.403   5.121  0.3285 -0.2832  0.4885
31586SOL     OW 1872   6.046   0.782  11.347  0.3006  0.3601 -0.0402
31586SOL    HW1 1873   6.072   0.726  11.421 -1.0651  0.2836  0.4248
31586SOL    HW2 1874   6.098   0.750  11.273 -0.9075 -2.0615  0.0274
31587SOL     OW 1875   2.744  12.518   5.339 -0.2091 -0.0786  0.3144
31587SOL    HW1 1876   2.811  12.474   5.287  1.1030 -0.1430  1.9876
31587SOL    HW2 1877   2.665  12.512   5.285  0.3840 -2.6835 -0.4381
31588SOL     OW 1878   7.441   1.400   9.494  0.5946 -0.0354 -0.6175
31588SOL    HW1 1879   7.419   1.332   9.431 -1.3611 -0.0071 -0.0164
31588SOL    HW2 1880   7.524   1.370   9.532 -0.3004 -2.2331 -0.2221
31589SOL     OW 1881   6.334  11.653  11.284  0.0891  0.4695 -0.1802
31589SOL    HW1 1882   6.305  11.670  11.195  1.7169 -0.0396 -0.8427
31589SOL    HW2 1883   6.330  11.738  11.327 -4.3316  0.1628  0.4922
31590SOL     OW 1884   7.131   7.789   8.619 -0.5365  0.4025  0.2016
31590SOL    HW1 1885   7.214   7.830   8.644 -0.5358  1.2787 -1.1649
31590SOL    HW2 1886   7.071   7.812   8.690  0.4859 -0.7398  1.5127
31591SOL     OW 1887  12.353   5.774   8.643 -0.4809  0.5303 -0.2246
31591SOL    HW1 1888  12.261   5.762   8.667 -0.2410  0.1358  0.5415
31591SOL    HW2 1889  12.351   5.835   8.569 -1.4207 -0.2005 -0.8322
31592SOL     OW 1890  11.130   0.927   9.880 -0.0351 -0.0497 -0.2962
31592SOL    HW1 1891  11.127   0.877   9.961 -2.1219  3.2675  1.9124
31592SOL    HW2 1892  11.053   0.899   9.831 -0.9864  0.6668  0.7553
31593SOL     OW 1893   6.120  11.487   4.885  1.0333 -0.0244  0.1397
31593SOL    HW1 1894   6.096  11.468   4.976 -1.6129 -0.4818 -0.5619
31593SOL    HW2 1895   6.145  11.579   4.886  1.5134 -0.1515  1.4193
31594SOL     OW 1896   3.357   8.520   6.899 -0.2529 -0.2462 -0.5198
31594SOL    HW1 1897   3.445   8.492   6.876 -0.5104 -1.0095 -0.5907
31594SOL    HW2 1898   3.303   8.441   6.893 -1.1009  0.3593 -1.2547
31595SOL     OW 1899  10.693   7.730   2.950  0.3128 -0.1323  0.1330
31595SOL    HW1 1900  10.659   7.653   2.995 -1.8230  0.5369 -0.2521
31595SOL    HW2 1901  10.629   7.749   2.882  2.1609  0.4056 -1.5834
31596SOL     OW 1902   1.382   0.409   0.121  0.0753 -0.2996  0.3311
31596SOL    HW1 1903   1.468   0.368   0.129  0.1168 -0.6941 -1.6590
31596SOL    HW2 1904   1.320   0.337   0.131  0.1012 -0.6082 -1.4473
31597SOL     OW 1905  11.103   9.258   7.757  0.0456 -0.4554  0.3978
31597SOL    HW1 1906  11.106   9.212   7.673  1.3057 -0.1179  0.2457
31597SOL    HW2 1907  11.174   9.219   7.808 -0.6456 -0.5901  1.2890
31598SOL     OW 1908   4.043   6.849   0.463 -0.0443 -0.6064  0.1546
31598SOL    HW1 1909   3.965   6.793   0.463 -0.1832 -0.4223 -0.6278
31598SOL    HW2 1910   4.050   6.881   0.374  0.4436  0.0720  0.4250
31599SOL     OW 1911  11.698  10.211   5.596  0.1153  0.3157  0.5224
31599SOL    HW1 1912  11.712  10.195   5.503  1.8877  0.3041  0.7519
31599SOL    HW2 1913  11.616  10.165   5.616  0.6361 -1.2136 -0.6418
31600SOL     OW 1914  12.513  10.376   7.381  0.1837 -0.0087  0.1058
31600SOL    HW1 1915  12.423  10.392   7.353  0.2651  1.3116  0.5109
31600SOL    HW2 1916  12.530  10.285   7.356 -0.6460  0.2676 -1.6340
31601SOL     OW 1917   9.298  12.521  12.827  0.5861  0.1329 -0.1254
31601SOL    HW1 1918   9.287  12.525  12.922  2.4430 -1.3531  0.2221
31601SOL    HW2 1919   9.347  12.600  12.805  1.3561 -0.1887  0.3816
31602SOL     OW 1920   8.865   7.123   3.720  0.1466  0.1879 -0.2885
31602SOL    HW1 1921   8.844   7.047   3.666  0.1265  0.6072 -0.8832
31602SOL    HW2 1922   8.804   7.190   3.692  0.3460  0.5102  0.0361
31603SOL     OW 1923   1.052  12.216   7.274  0.4905  0.3709  0.5931
31603SOL    HW1 1924   1.023  12.129   7.303  0.6492  0.7773  2.0366
31603SOL    HW2 1925   0.975  12.253   7.229  0.5787 -0.6844 -0.4833
31604SOL     OW 1926   1.033   0.406   1.570  0.3283 -0.0316 -0.1601
31604SOL    HW1 1927   1.086   0.378   1.644 -3.4492 -1.0500  2.4224
31604SOL    HW2 1928   1.030   0.330   1.512 -1.3994 -1.4249  1.6528
31605SOL     OW 1929   9.103   7.107   6.178 -0.1331 -0.4783  0.0120
31605SOL    HW1 1930   9.178   7.087   6.234 -0.1547 -2.3107 -0.5191
31605SOL    HW2 1931   9.035   7.137   6.238  0.4138 -0.6732  0.7459
31606SOL     OW 1932   2.067   4.731  10.458 -0.3291  0.0495  0.6392
31606SOL    HW1 1933   2.051   4.741  10.364 -0.0046 -0.3361  0.5400
31606SOL    HW2 1934   2.024   4.649  10.481 -1.8581  0.9682  1.1828
31607SOL     OW 1935   7.692   4.048   7.996 -0.4214  0.1198 -0.1706
31607SOL    HW1 1936   7.672   4.135   8.033  0.8723  0.1236  0.5550
31607SOL    HW2 1937   7.693   3.990   8.071  1.4578 -0.0202 -0.2584
31608SOL     OW 1938   1.558   5.807   8.361  0.2689 -0.0974 -0.6596
31608SOL    HW1 1939   1.652   5.798   8.345  0.5058  1.5243 -0.4133
31608SOL    HW2 1940   1.550   5.891   8.408 -1.0282 -1.4014  1.6786
31609SOL     OW 1941   1.427  10.247   2.223  0.2523 -0.8604 -0.4132
31609SOL    HW1 1942   1.472  10.257   2.139  0.0713  2.0700 -0.2715
31609SOL    HW2 1943   1.335  10.234   2.199  0.2071 -0.0767 -0.6893
31610SOL     OW 1944   8.522   7.177   6.390  0.1054 -0.2525  0.1126
31610SOL    HW1 1945   8.482   7.264   6.389  1.3844  0.4328  2.1400
31610SOL    HW2 1946   8.582   7.177   6.316  0.2329  0.6878  0.2079
31611SOL     OW 1947   7.516  11.790   3.557 -0.1421  0.0339  0.3654
31611SOL    HW1 1948   7.467  11.714   3.587  0.5683 -0.7146 -0.3114
31611SOL    HW2 1949   7.530  11.843   3.635  0.5765 -1.2339  1.1273
31612SOL     OW 1950   9.408   2.915   7.543  0.0871  0.0774  0.4309
31612SOL    HW1 1951   9.427   2.891   7.452 -0.4926 -0.3543  0.4179
31612SOL    HW2 1952   9.435   3.007   7.550  1.1403 -0.2011  0.1231
31613SOL     OW 1953   7.481  11.382  12.889 -0.0718  0.2460 -0.0772
31613SOL    HW1 1954   7.493  11.290  12.910  0.5075  0.2788 -0.2555
31613SOL    HW2 1955   7.428  11.382  12.809  2.0930 -0.0304 -1.6103
31614SOL     OW 1956   2.030  12.049   5.239 -0.2290 -0.1770 -0.0143
31614SOL    HW1 1957   1.979  11.969   5.248 -0.4379  0.0545  0.9434
31614SOL    HW2 1958   1.997  12.107   5.307 -0.0545  0.7187 -0.6670
31615SOL     OW 1959   0.129   6.592   6.058  0.5426 -0.3752  0.0401
31615SOL    HW1 1960   0.135   6.637   6.142  1.1845  1.1678 -0.7957
31615SOL    HW2 1961   0.036   6.592   6.037  0.2877 -1.3932  1.0428
31616SOL     OW 1962   1.967   8.574   0.146  0.5120 -0.1896 -0.0194
31616SOL    HW1 1963   2.001   8.555   0.234  0.0952 -1.9040 -0.1828
31616SOL    HW2 1964   1.966   8.670   0.141 -0.0944 -0.0129  2.1071
31617SOL     OW 1965   0.782   8.279   5.389 -0.2208  1.0069  0.0308
31617SOL    HW1 1966   0.786   8.256   5.482  1.5151 -0.1786 -0.2859
31617SOL    HW2 1967   0.741   8.203   5.347 -1.2230  1.6394 -0.1734
31618SOL     OW 1968   7.984   0.380  10.596  0.0129  0.2761 -0.1329
31618SOL    HW1 1969   7.950   0.413  10.679 -0.5829  0.6825 -0.5288
31618SOL    HW2 1970   8.019   0.458  10.552 -0.6860  0.2718 -0.7327
31619SOL     OW 1971   1.139   6.107   5.079 -0.4000  1.1637  0.3533
31619SOL    HW1 1972   1.098   6.113   4.992  1.8158  0.0899 -0.8703
31619SOL    HW2 1973   1.142   6.013   5.097  0.0040  1.3241  1.1660
31620SOL     OW 1974   2.277  12.841   2.541  0.4954 -0.1754  0.1810
31620SOL    HW1 1975   2.221  12.837   2.464  2.1697 -0.0777 -1.0933
31620SOL    HW2 1976   2.253  12.923   2.585 -2.6150 -1.6666  1.5523
31621SOL     OW 1977  12.032  12.452   3.796  0.2094 -0.6395 -0.4792
31621SOL    HW1 1978  11.996  12.417   3.878  0.4039  1.8748  0.8031
31621SOL    HW2 1979  11.966  12.514   3.765  1.3470  0.5351 -0.6503
31622SOL     OW 1980   6.076   6.265  11.725 -0.3344  0.8849 -0.3694
31622SOL    HW1 1981   6.156   6.271  11.777 -0.4597  0.8554 -0.1726
31622SOL    HW2 1982   6.094   6.197  11.660 -0.9677 -0.7241  1.0501
31623SOL     OW 1983   3.867   4.800  10.700 -0.2935  0.0127 -0.6622
31623SOL    HW1 1984   3.855   4.895  10.707 -0.4990  0.0721 -1.6841
31623SOL    HW2 1985   3.927   4.789  10.627  1.6872 -0.5485  0.9562
31624SOL     OW 1986   8.116   9.743   6.523 -0.6207 -0.5551 -0.1313
31624SOL    HW1 1987   8.136   9.651   6.542 -1.4277 -0.7126 -0.0070
31624SOL    HW2 1988   8.164   9.762   6.442  1.4841 -0.3755  1.0886
31625SOL     OW 1989  12.544  12.050   5.766  0.1727 -0.3135  0.0035
31625SOL    HW1 1990  12.460  12.062   5.811  0.8042 -0.3557  1.2217
31625SOL    HW2 1991  12.524  11.986   5.697 -0.9872  0.3433 -0.2980
31626SOL     OW 1992   9.463   1.037   4.490  0.1352  0.8798 -0.3631
31626SOL    HW1 1993   9.388   1.091   4.515 -0.2144 -0.1578  0.9536
31626SOL    HW2 1994   9.466   0.968   4.557  0.1801 -1.1106 -2.3007
31627SOL     OW 1995   0.117  11.929   4.914  0.1824  0.3757 -0.2534
31627SOL    HW1 1996   0.062  12.002   4.940  1.5191  1.2419  0.2285
31627SOL    HW2 1997   0.117  11.870   4.989 -0.4735  0.1281 -0.4441
31628SOL     OW 1998   5.621  12.413   4.292 -0.4488  0.3271 -0.1822
31628SOL    HW1 1999   5.690  12.429   4.357 -0.1836 -1.9739  0.1978
31628SOL    HW2 2000   5.648  12.332   4.249 -2.4503 -0.1267 -0.6715
31629SOL     OW 2001   6.024   8.896   2.331 -0.3407  0.5220  0.1922
31629SOL    HW1 2002   5.983   8.971   2.373 -1.5536 -0.0479  0.0835
31629SOL    HW2 2003   5.984   8.820   2.373  1.3024 -0.0940  0.7230
31630SOL     OW 2004   6.336  11.592   2.194  0.0555 -0.0780 -0.0561
31630SOL    HW1 2005   6.366  11.503   2.213  0.4730  0.3932  1.6206
31630SOL    HW2 2006   6.411  11.634   2.153  1.3002  0.6346  2.7314
31631SOL     OW 2007   4.330   0.519  11.362  0.2391 -0.6300 -0.4611
31631SOL    HW1 2008   4.363   0.462  11.293  1.0526 -1.6299  0.6959
31631SOL    HW2 2009   4.403   0.525  11.424 -0.9215 -0.9044  0.9859
31632SOL     OW 2010   3.609  10.296   1.565  0.3405  0.5188 -0.1698
31632SOL    HW1 2011   3.540  10.350   1.605 -0.4585  0.5282 -1.4955
31632SOL    HW2 2012   3.562  10.242   1.501  1.5061  0.1848 -0.7585
31633SOL     OW 2013   1.016   5.304   5.972 -0.3073 -0.2886  0.4281
31633SOL    HW1 2014   1.000   5.241   6.043  1.0970  1.0666  2.0243
31633SOL    HW2 2015   1.111   5.306   5.963 -0.4476 -0.1115 -1.2431
31634SOL     OW 2016  11.549   5.818   0.765 -0.3466 -0.0706  0.3158
31634SOL    HW1 2017  11.614   5.848   0.829 -1.0871  0.6966  0.7209
31634SOL    HW2 2018  11.512   5.739   0.803  2.0103 -1.9492 -1.0079
31635SOL     OW 2019  11.968  12.679  10.948 -0.5961  0.1732  0.3066
31635SOL    HW1 2020  12.041  12.664  10.889 -0.6378  0.2179  0.2446
31635SOL    HW2 2021  11.927  12.759  10.916 -0.9410 -0.0965  0.0675
31636SOL     OW 2022  10.958   7.521   9.662 -0.0672 -0.7126  0.8930
31636SOL    HW1 2023  11.038   7.572   9.671  0.9998 -1.5871 -2.2945
31636SOL    HW2 2024  10.985   7.430   9.675 -0.6240 -0.9733  0.3104
31637SOL     OW 2025   0.784   6.576   3.014  0.5678  0.2400 -0.2582
31637SOL    HW1 2026   0.752   6.538   3.096  0.5432  0.5977 -0.0994
31637SOL    HW2 2027   0.847   6.512   2.981  2.0628  0.9766  1.0471
31638SOL     OW 2028  12.495   9.458   8.640 -0.1951  0.7851  0.1464
31638SOL    HW1 2029  12.456   9.501   8.716  0.6215  0.4308  0.7825
31638SOL    HW2 2030  12.590   9.469   8.652 -0.0734  1.8184 -1.4734
31639SOL     OW 2031   5.110  11.525   0.078 -0.0836 -0.0796 -0.1546
31639SOL    HW1 2032   5.024  11.483   0.082  0.3348 -1.0443 -0.7535
31639SOL    HW2 2033   5.128  11.534  -0.015  1.1547 -1.4334 -0.0943
31640SOL     OW 2034   8.574   2.393   0.526 -0.1286 -0.0983 -0.0002
31640SOL    HW1 2035   8.559   2.379   0.433 -1.5078 -0.2131  0.2194
31640SOL    HW2 2036   8.632   2.322   0.552  2.2610  1.2732 -1.2252
31641SOL     OW 2037   3.305   4.103  10.229 -0.3164 -0.0024  0.2226
31641SOL    HW1 2038   3.396   4.128  10.218 -0.3372  2.8579  4.3782
31641SOL    HW2 2039   3.305   4.041  10.302 -1.6978 -0.0167  0.2376
31642SOL     OW 2040   3.629   9.542   2.177 -0.0379 -0.4349  0.3350
31642SOL    HW1 2041   3.705   9.499   2.137  0.0057  0.4903 -0.6112
31642SOL    HW2 2042   3.557   9.526   2.116 -0.8319 -1.9316  1.5734
31643SOL     OW 2043   1.650  10.037  12.703  0.1147 -0.0420  0.5376
31643SOL    HW1 2044   1.702  10.108  12.667 -0.3849 -0.6135 -1.4610
31643SOL    HW2 2045   1.693  10.014  12.785  1.3087  1.3797  0.3373
31644SOL     OW 2046  11.926   0.609   0.280 -0.0036  0.0619 -0.8057
31644SOL    HW1 2047  12.011   0.590   0.239  0.8157 -1.6878  1.4986
31644SOL    HW2 2048  11.898   0.691   0.238  2.6182  0.5114 -1.9330
31645SOL     OW 2049  12.610   3.276   4.347  0.1484 -0.0133  0.3505
31645SOL    HW1 2050  12.520   3.245   4.345 -0.0878  0.6716 -0.0335
31645SOL    HW2 2051  12.644   3.257   4.259 -0.6156  2.5147 -0.5845
31646SOL     OW 2052   2.756   1.637   4.961  0.6722 -0.5801 -0.8290
31646SOL    HW1 2053   2.724   1.702   5.023  0.8232 -2.8122  1.7423
31646SOL    HW2 2054   2.851   1.651   4.958  0.6623 -0.4679 -0.5752
31647SOL     OW 2055   1.476   2.705   3.695 -0.2090  0.3410 -0.2656
31647SOL    HW1 2056   1.479   2.634   3.759 -0.4374  0.4760 -0.0997
31647SOL    HW2 2057   1.483   2.785   3.748  0.9443  0.4261 -0.5220
31648SOL     OW 2058   4.710   3.870   1.668 -0.3984 -0.5227 -0.0657
31648SOL    HW1 2059   4.636   3.931   1.670 -1.3059 -1.5515  2.8220
31648SOL    HW2 2060   4.695   3.817   1.590 -0.2955  1.9964 -1.9157
31649SOL     OW 2061  10.218  11.915  12.592  0.2748 -0.0144  0.1966
31649SOL    HW1 2062  10.202  12.003  12.628 -0.5708 -0.1709  0.2242
31649SOL    HW2 2063  10.171  11.857  12.652  0.5959 -0.4638  0.0119
31650SOL     OW 2064   8.568  10.903   3.960 -0.5886 -0.1002  0.6716
31650SOL    HW1 2065   8.511  10.927   3.887  0.4211 -1.9268 -0.7941
31650SOL    HW2 2066   8.613  10.824   3.931  1.4119  0.2864  2.4566
31651SOL     OW 2067   5.914   9.598   9.436  0.1507 -0.0047 -0.1053
31651SOL    HW1 2068   5.970   9.544   9.491 -0.5273 -0.7991 -0.1886
31651SOL    HW2 2069   5.872   9.659   9.497 -0.0260 -0.3865  0.1530
31652SOL     OW 2070  12.430   7.180   6.359 -0.5363 -0.2375  0.3760
31652SOL    HW1 2071  12.433   7.206   6.451  0.5274 -1.7336  0.8190
31652SOL    HW2 2072  12.353   7.123   6.353  0.4874 -1.7593  0.8736
31653SOL     OW 2073   0.914   8.651   0.430 -0.6349 -0.1523  0.1891
31653SOL    HW1 2074   0.908   8.559   0.456  0.6326 -0.4699 -0.5600
31653SOL    HW2 2075   0.835   8.667   0.379 -0.5630 -1.0159 -0.2144
31654SOL     OW 2076   6.400   4.174   0.072  0.5624 -0.2594 -0.3731
31654SOL    HW1 2077   6.356   4.161   0.156  0.4981 -1.2860 -0.5415
31654SOL    HW2 2078   6.375   4.262   0.044 -0.6644 -0.4783 -0.0376
31655SOL     OW 2079   5.358   2.950   7.508 -0.4599  0.5677  0.1141
31655SOL    HW1 2080   5.279   2.898   7.521 -0.2469 -0.0167 -0.8926
31655SOL    HW2 2081   5.361   3.007   7.585 -0.3243 -1.3564  1.5889
31656SOL     OW 2082  11.512   3.041  10.311  0.0089 -0.2568 -0.3624
31656SOL    HW1 2083  11.551   3.060  10.397 -1.2462  0.5556  0.0499
31656SOL    HW2 2084  11.470   2.956  10.323 -0.0474 -0.2089 -0.2087
31657SOL     OW 2085   2.530   5.617   3.732 -0.4148 -0.2329 -0.1270
31657SOL    HW1 2086   2.487   5.698   3.703 -0.2892 -0.0521  0.1845
31657SOL    HW2 2087   2.463   5.550   3.725 -0.1594 -0.3678 -1.6490
31658SOL     OW 2088   1.308   8.814   0.632 -0.1469  0.1237  0.2602
31658SOL    HW1 2089   1.256   8.890   0.659 -0.2501 -0.1811  0.9415
31658SOL    HW2 2090   1.382   8.812   0.693 -0.5762 -0.7817  0.7885
31659SOL     OW 2091  11.963   3.505   0.239 -0.7261 -0.1575 -0.1113
31659SOL    HW1 2092  11.945   3.577   0.178 -0.8790 -0.0995  0.0021
31659SOL    HW2 2093  12.058   3.497   0.239 -0.7177 -0.0662 -0.2506
31660SOL     OW 2094   6.330  12.119   4.892 -0.9115 -0.2104  0.0022
31660SOL    HW1 2095   6.377  12.090   4.814 -2.3508 -0.8449 -0.6506
31660SOL    HW2 2096   6.389  12.096   4.964 -0.4276 -1.4565 -0.7503
31661SOL     OW 2097   7.790  12.240   1.032 -0.2988  0.7769  0.2126
31661SOL    HW1 2098   7.754  12.247   1.120 -0.5440  1.0865  0.0922
31661SOL    HW2 2099   7.878  12.204   1.044 -0.4317  0.5665  0.5586
31662SOL     OW 2100   4.727   2.055  10.964  0.0215 -0.4188  0.4601
31662SOL    HW1 2101   4.814   2.093  10.963 -0.5513  0.9504 -0.3609
31662SOL    HW2 2102   4.738   1.967  10.927  1.4326 -1.2857  2.7487
31663SOL     OW 2103   1.617   8.985   3.982  0.8052 -0.2618  0.1158
31663SOL    HW1 2104   1.631   8.892   3.961 -0.9772 -0.6331  0.4014
31663SOL    HW2 2105   1.694   9.009   4.033  0.6571 -2.0128  1.2747
31664SOL     OW 2106   2.412  11.451   2.274 -0.0760 -0.1202 -0.3793
31664SOL    HW1 2107   2.407  11.383   2.341  0.7201  0.2631  0.0861
31664SOL    HW2 2108   2.344  11.428   2.211 -0.6224 -0.6607  0.3967
31665SOL     OW 2109   5.105   2.134   0.222 -0.2728 -0.2537  0.1529
31665SOL    HW1 2110   5.118   2.162   0.313  0.5226  1.3767 -0.4210
31665SOL    HW2 2111   5.015   2.160   0.202 -0.5738 -0.9473  0.5736
31666SOL     OW 2112   9.383   4.007   6.594  0.1087 -1.0639 -0.5304
31666SOL    HW1 2113   9.349   4.014   6.683 -2.5217 -0.2738 -1.4812
31666SOL    HW2 2114   9.370   3.915   6.570  2.6673 -1.7777  0.4690
31667SOL     OW 2115   8.255   5.319   8.363 -0.0310 -0.1366 -0.1093
31667SOL    HW1 2116   8.214   5.403   8.341  0.3485 -0.1361 -0.8542
31667SOL    HW2 2117   8.199   5.253   8.321 -1.3539 -0.4177  1.9498
31668SOL     OW 2118   8.726  10.873   1.191 -0.0151 -0.0295 -0.2763
31668SOL    HW1 2119   8.792  10.869   1.260  0.0130  0.4357 -0.2726
31668SOL    HW2 2120   8.765  10.825   1.117  0.5680  0.7184 -0.4686
31669SOL     OW 2121   1.203   5.725   2.288 -0.3627 -0.6046  0.6163
31669SOL    HW1 2122   1.161   5.795   2.239  0.1121 -0.8975 -0.2430
31669SOL    HW2 2123   1.171   5.734   2.378  0.0441  0.9725  0.6178
31670SOL     OW 2124   0.144  11.114   1.739 -0.0734 -0.2486  0.6182
31670SOL    HW1 2125   0.116  11.205   1.743 -0.5506 -0.4362  2.5266
31670SOL    HW2 2126   0.231  11.113   1.779 -0.2017 -0.6648  0.8961
31671SOL     OW 2127  12.738   0.156   1.335  0.0134  0.4255  0.9622
31671SOL    HW1 2128  12.660   0.209   1.342  0.2659  0.9054  0.2491
31671SOL    HW2 2129  12.714   0.085   1.275  0.7467  1.8101 -1.0849
31672SOL     OW 2130   9.101   1.148   2.738  0.0895  0.2231 -0.0276
31672SOL    HW1 2131   9.180   1.101   2.763  1.4407  1.2793 -2.0020
31672SOL    HW2 2132   9.071   1.105   2.658 -1.8194 -0.6178  1.0606
31673SOL     OW 2133   3.377   4.260  10.722  0.1071 -0.6059 -0.6290
31673SOL    HW1 2134   3.362   4.183  10.667 -0.7684 -0.4709 -0.5930
31673SOL    HW2 2135   3.342   4.235  10.808 -0.0189 -0.2305 -0.5695
31674SOL     OW 2136   2.087   4.809   5.231  0.6210 -0.4723  0.3362
31674SOL    HW1 2137   2.120   4.755   5.159  1.1971 -0.5285  0.6345
31674SOL    HW2 2138   2.045   4.883   5.188  1.1549 -0.3919 -0.0564
31675SOL     OW 2139   6.479   2.062   3.095  0.0516  0.1432 -0.0404
31675SOL    HW1 2140   6.442   2.138   3.050 -1.0886  0.5404  1.4807
31675SOL    HW2 2141   6.525   2.099   3.171  2.1835 -0.4796 -0.9318
31676SOL     OW 2142   2.657  10.017   7.599 -0.5128 -0.2157 -0.5239
31676SOL    HW1 2143   2.730  10.046   7.653 -0.2973  0.1899 -1.0262
31676SOL    HW2 2144   2.683   9.929   7.569 -0.3578 -0.1912 -0.4641
31677SOL     OW 2145   6.272   6.370   1.598 -0.4502  0.3745  0.4087
31677SOL    HW1 2146   6.220   6.402   1.524 -0.1733 -0.0478  0.0233
31677SOL    HW2 2147   6.291   6.279   1.576 -1.3606 -0.1137  1.5540
31678SOL     OW 2148   0.166   4.479   1.577  0.1877  0.2516 -1.0119
31678SOL    HW1 2149   0.143   4.442   1.491  0.2539  1.4856 -1.5808
31678SOL    HW2 2150   0.107   4.435   1.638  0.6487 -1.2010 -1.5688
31679SOL     OW 2151   1.544   4.099   0.220  0.3005  0.5780  0.1018
31679SOL    HW1 2152   1.497   4.175   0.256 -0.9177 -0.4858  0.8222
31679SOL    HW2 2153   1.537   4.032   0.287 -1.2874 -1.1946 -1.7033
31680SOL     OW 2154   8.792   4.163   6.479  0.3839 -0.0221 -0.1569
31680SOL    HW1 2155   8.747   4.079   6.464  0.1269 -0.0572  0.7525
31680SOL    HW2 2156   8.876   4.153   6.434  0.4841 -0.8856  0.2001
31681SOL     OW 2157   9.914   7.114  10.521  0.5351 -0.1793  0.3073
31681SOL    HW1 2158   9.958   7.090  10.439  1.3824 -2.5788  1.3656
31681SOL    HW2 2159   9.964   7.190  10.553  0.4481  0.5291 -1.1565
31682SOL     OW 2160  11.596   0.745   1.152  0.7781  0.3429  0.0206
31682SOL    HW1 2161  11.690   0.743   1.169  1.3484 -0.8503 -2.6774
31682SOL    HW2 2162  11.584   0.683   1.079 -1.7549  2.0754 -1.1767
31683SOL     OW 2163   4.081   5.666   3.532  0.0199  0.3248 -0.3436
31683SOL    HW1 2164   4.166   5.672   3.574 -0.3491  1.5101  0.2788
31683SOL    HW2 2165   4.048   5.579   3.556  0.6444  0.2345  0.2044
31684SOL     OW 2166  12.968   3.399   9.962 -0.0753  0.4387 -0.5209
31684SOL    HW1 2167  13.054   3.389  10.003 -0.9242 -1.6921  0.9144
31684SOL    HW2 2168  12.965   3.491   9.935  1.4937  1.3682  2.1080
31685SOL     OW 2169   3.109   6.365  11.290 -0.6201 -0.1622  1.1211
31685SOL    HW1 2170   3.133   6.413  11.369 -1.7715  0.2650  1.2413
31685SOL    HW2 2171   3.115   6.430  11.220 -0.8698 -0.1847  1.0754
31686SOL     OW 2172   1.902  11.464   2.208  0.0041  0.4456  0.2336
31686SOL    HW1 2173   1.837  11.418   2.261 -0.8758  3.4049  1.9394
31686SOL    HW2 2174   1.894  11.425   2.121 -2.9006 -0.4127  0.7914
31687SOL     OW 2175   6.757   2.955   8.911  0.0130  0.2001 -0.0772
31687SOL    HW1 2176   6.702   2.984   8.838 -0.8411 -4.5075 -1.6672
31687SOL    HW2 2177   6.695   2.941   8.984  0.0410  0.2712 -0.0403
31688SOL     OW 2178   5.463   3.933  10.665 -0.2843 -0.6722 -0.2801
31688SOL    HW1 2179   5.528   3.873  10.702 -0.5175 -1.5758 -1.2873
31688SOL    HW2 2180   5.488   3.942  10.573 -0.5362  0.4165 -0.2578
31689SOL     OW 2181   2.506   1.273   3.357  0.7587  0.0075 -0.7093
31689SOL    HW1 2182   2.572   1.338   3.380 -0.4939  1.2995 -0.6372
31689SOL    HW2 2183   2.460   1.256   3.438 -0.5344  0.9334 -1.2194
31690SOL     OW 2184  11.258   1.290   3.269  0.3167 -0.3124  0.0687
31690SOL    HW1 2185  11.308   1.270   3.190 -0.3520  1.0039 -0.7334
31690SOL    HW2 2186  11.167   1.275   3.243 -0.1321  2.3777 -0.2301
31691SOL     OW 2187   4.045   0.882   8.585  0.5405 -0.1822 -0.0581
31691SOL    HW1 2188   3.958   0.891   8.623  0.0676 -3.3373 -0.1254
31691SOL    HW2 2189   4.048   0.947   8.515 -2.4268 -1.0250 -1.1209
31692SOL     OW 2190   7.549   2.582   3.093  0.0154 -0.0392 -0.4832
31692SOL    HW1 2191   7.582   2.558   3.006 -0.1287  1.3298 -0.9342
31692SOL    HW2 2192   7.467   2.534   3.100 -0.8760  1.1741 -1.8737
31693SOL     OW 2193   8.210  11.812   8.062  0.2630  0.1262 -0.1854
31693SOL    HW1 2194   8.255  11.737   8.101 -0.3077 -0.1659 -0.0765
31693SOL    HW2 2195   8.279  11.877   8.050  0.9992 -0.8202 -1.3385
31694SOL     OW 2196   5.754   6.655   1.872  0.5660 -0.1178 -0.4892
31694SOL    HW1 2197   5.793   6.661   1.785  0.2173  0.2515 -0.6258
31694SOL    HW2 2198   5.764   6.563   1.896  0.6583 -0.2266 -0.9210
31695SOL     OW 2199   9.302  11.572   6.691 -0.5782  0.2536  0.0560
31695SOL    HW1 2200   9.254  11.489   6.691 -0.5155  0.2091 -0.8603
31695SOL    HW2 2201   9.363  11.564   6.764 -1.1711 -0.1562  0.5142
31696SOL     OW 2202  12.469   2.338   6.183 -0.3428  0.0241 -0.0280
31696SOL    HW1 2203  12.526   2.367   6.112 -1.1429  2.1595  0.1103
31696SOL    HW2 2204  12.504   2.254   6.210  2.3300  0.9463 -0.3809
31697SOL     OW 2205   5.005   0.697   3.753 -0.1613  0.5318  0.1480
31697SOL    HW1 2206   4.962   0.727   3.833  0.2148 -0.1342  0.6083
31697SOL    HW2 2207   4.933   0.666   3.698 -0.3612  0.2554  0.5555
31698SOL     OW 2208   1.672  11.772  12.556 -0.2416  0.1999  0.8781
31698SOL    HW1 2209   1.763  11.742  12.558 -1.0756 -2.6789  1.4203
31698SOL    HW2 2210   1.668  11.840  12.622  1.6939  1.0912  0.1722
31699SOL     OW 2211  12.526   0.122  11.888 -0.4455  0.3104 -0.1501
31699SOL    HW1 2212  12.606   0.096  11.843 -0.2872 -0.9247  0.8009
31699SOL    HW2 2213  12.455   0.078  11.841 -0.3140 -0.6580  0.5138
31700SOL     OW 2214   1.695  12.687   4.011  0.2612  0.1038  1.1312
31700SOL    HW1 2215   1.618  12.727   4.049  0.0872  0.1769  0.7109
31700SOL    HW2 2216   1.730  12.753   3.951 -0.5219 -0.6470 -0.2318
31701SOL     OW 2217   1.300   5.455   8.494 -0.0646  0.1727  1.1415
31701SOL    HW1 2218   1.275   5.405   8.573  0.5327  1.1031  1.9412
31701SOL    HW2 2219   1.350   5.529   8.528  0.0404  0.6926 -0.1180
31702SOL     OW 2220  11.521   6.973   7.932  0.9652  0.0266  0.5481
31702SOL    HW1 2221  11.465   6.898   7.910  0.2453  0.1850  1.8051
31702SOL    HW2 2222  11.603   6.955   7.885  0.2273 -0.7134 -0.4934
31703SOL     OW 2223   9.030   6.734   2.975  0.2569  0.6245 -0.3224
31703SOL    HW1 2224   8.964   6.787   2.931 -0.1180 -0.4985 -1.1556
31703SOL    HW2 2225   9.114   6.765   2.940  0.0042  0.2568 -1.2840
31704SOL     OW 2226  11.009   3.973  11.088  0.4798  0.0046 -0.6657
31704SOL    HW1 2227  11.007   3.920  11.168  0.5270 -0.2564 -0.8355
31704SOL    HW2 2228  10.932   4.029  11.094  1.5042  1.3674  0.4955
31705SOL     OW 2229   0.471  11.873  11.865  0.4902  0.5864 -0.3327
31705SOL    HW1 2230   0.557  11.846  11.833  0.1101 -0.6104 -0.4202
31705SOL    HW2 2231   0.481  11.880  11.959  0.3285 -1.0775 -0.1614
31706SOL     OW 2232  12.934   1.847  11.964 -0.0104 -0.0286  0.4113
31706SOL    HW1 2233  12.950   1.863  11.871 -1.5584 -1.5195 -0.1612
31706SOL    HW2 2234  13.013   1.801  11.993 -0.2640 -1.1958 -0.6509
31707SOL     OW 2235   9.540   3.752  10.152  0.1698  0.3092  0.0663
31707SOL    HW1 2236   9.569   3.835  10.190  0.4699 -0.6503  2.0904
31707SOL    HW2 2237   9.487   3.712  10.221  1.0304 -1.7190 -0.3666
31708SOL     OW 2238   8.529  12.184   7.452 -0.4225  0.3381  0.2714
31708SOL    HW1 2239   8.506  12.164   7.542 -0.5520 -1.4648 -0.1376
31708SOL    HW2 2240   8.512  12.103   7.403  2.0675  0.4448 -0.9241
31709SOL     OW 2241   5.309  11.971   1.876 -0.3168 -0.5362  0.0353
31709SOL    HW1 2242   5.254  11.916   1.819 -0.2436  0.7121 -1.2865
31709SOL    HW2 2243   5.361  11.908   1.925 -1.3428 -1.6968 -0.2962
31710SOL     OW 2244   6.746   1.125   0.632 -0.4083  0.1296 -0.1618
31710SOL    HW1 2245   6.677   1.062   0.655  1.3376 -0.8888  2.8315
31710SOL    HW2 2246   6.802   1.078   0.571  0.4999 -1.1293  1.5293
31711SOL     OW 2247   6.613   8.603   0.177 -0.4871  0.1633  0.3408
31711SOL    HW1 2248   6.644   8.519   0.211  0.6171  0.6747  0.6624
31711SOL    HW2 2249   6.693   8.655   0.165 -0.9465  0.4225 -1.9251
31712SOL     OW 2250  12.441  12.000  11.121  0.6311 -0.1462 -0.3469
31712SOL    HW1 2251  12.474  11.943  11.051  2.2195 -0.2351  0.4188
31712SOL    HW2 2252  12.486  11.969  11.199 -0.8750  0.1476  0.6787
31713SOL     OW 2253   0.410   5.618  12.608 -0.3526 -0.3273  0.1297
31713SOL    HW1 2254   0.332   5.575  12.642 -1.8567  2.2563  0.2639
31713SOL    HW2 2255   0.457   5.647  12.686 -0.7746  0.5449  0.0813
31714SOL     OW 2256   4.831   6.144   1.431 -0.2995  0.4438  0.5747
31714SOL    HW1 2257   4.844   6.238   1.440 -0.0338  0.5318 -0.5734
31714SOL    HW2 2258   4.912   6.105   1.464 -0.4545  0.6135  1.1556
31715SOL     OW 2259   9.539  11.217   7.496 -0.0733  0.1224 -0.1310
31715SOL    HW1 2260   9.564  11.137   7.541  0.2243 -0.9093 -2.0290
31715SOL    HW2 2261   9.467  11.191   7.439  0.5183  1.0151 -1.3393
31716SOL     OW 2262   2.084   1.928   9.277 -0.1827 -0.2965  0.4756
31716SOL    HW1 2263   2.061   2.019   9.256 -0.3480  0.1214  2.2547
31716SOL    HW2 2264   2.148   1.903   9.210  1.6007  1.9237  1.2237
31717SOL     OW 2265   5.453   6.318   0.393 -0.1261 -0.2439  0.2548
31717SOL    HW1 2266   5.448   6.228   0.423  0.7268 -0.5226 -0.3848
31717SOL    HW2 2267   5.547   6.337   0.389 -0.2964  0.7583  0.6398
31718SOL     OW 2268   1.285   1.219  12.253  0.2803  0.4706  0.5793
31718SOL    HW1 2269   1.255   1.141  12.206 -0.0502 -0.2464  1.9190
31718SOL    HW2 2270   1.214   1.282  12.244 -0.3401 -0.1205  1.1528
31719SOL     OW 2271   8.180   9.549   5.338 -0.7230  0.1843 -0.2649
31719SOL    HW1 2272   8.274   9.554   5.318 -1.0413  0.3210 -1.8385
31719SOL    HW2 2273   8.158   9.456   5.326 -0.7063  0.0687  0.5515
31720SOL     OW 2274   2.093   6.237   8.286  0.3394  0.2101 -1.0266
31720SOL    HW1 2275   2.188   6.229   8.274  0.4091  0.3551 -0.5824
31720SOL    HW2 2276   2.062   6.272   8.202  0.3881 -1.8559 -1.9787
31721SOL     OW 2277  11.347  10.988   5.458  0.2971 -0.0890 -1.0134
31721SOL    HW1 2278  11.367  11.042   5.535 -0.0756 -1.0525 -0.2020
31721SOL    HW2 2279  11.383  11.036   5.384 -1.2930  1.9707 -0.5125
31722SOL     OW 2280   8.901   3.876   5.163 -0.1441  0.4565 -0.0877
31722SOL    HW1 2281   8.806   3.867   5.159  0.0480 -2.7694  0.1822
31722SOL    HW2 2282   8.918   3.910   5.251 -1.0114  0.9623 -0.1011
31723SOL     OW 2283  10.383  10.466   7.909  0.1455  0.7515  0.4257
31723SOL    HW1 2284  10.368  10.384   7.861  1.0870  0.2901  0.8840
31723SOL    HW2 2285  10.309  10.521   7.886 -0.5417 -0.2552  0.1459
31724SOL     OW 2286   6.221   8.444   9.706  0.4039 -0.4518 -0.2880
31724SOL    HW1 2287   6.264   8.504   9.767 -1.3101  1.1336 -0.5691
31724SOL    HW2 2288   6.286   8.375   9.691  1.5415  0.0432  1.9089
31725SOL     OW 2289  11.491   1.320   2.351  0.0805  0.8415  0.9084
31725SOL    HW1 2290  11.541   1.334   2.432 -0.1188 -1.6016  1.5371
31725SOL    HW2 2291  11.556   1.287   2.289  0.1882  2.4995  0.0810
31726SOL     OW 2292  10.181   2.746   1.064 -0.2172  0.0897 -0.4841
31726SOL    HW1 2293  10.106   2.795   1.031 -0.2877  0.3384  0.0246
31726SOL    HW2 2294  10.222   2.709   0.986 -0.0219  1.1619 -0.9095
31727SOL     OW 2295   3.452   4.035   7.898 -0.1035  0.0048  0.1300
31727SOL    HW1 2296   3.544   4.056   7.884 -0.3055  0.2209 -0.9654
31727SOL    HW2 2297   3.433   4.068   7.986  1.1488 -1.0847  0.8366
31728SOL     OW 2298  12.912   2.953   7.807  0.5737 -0.0607  0.2792
31728SOL    HW1 2299  12.971   2.887   7.844 -0.6555 -1.6908 -0.5308
31728SOL    HW2 2300  12.964   2.994   7.738  0.9722 -1.0971 -0.0654
31729SOL     OW 2301   5.952   8.315   6.313 -0.0039  0.8483  0.2439
31729SOL    HW1 2302   5.928   8.287   6.401  0.3701 -0.2910  0.0027
31729SOL    HW2 2303   6.037   8.358   6.324 -0.6301  2.0586  0.6303
31730SOL     OW 2304   1.592   9.613  10.911  0.0315  0.9200 -0.4678
31730SOL    HW1 2305   1.551   9.658  10.985  1.2588  0.6954  0.3731
31730SOL    HW2 2306   1.520   9.568  10.868 -0.6670  0.8049  0.7757
31731SOL     OW 2307  11.925  12.641   2.226 -0.3400 -0.5765  0.2184
31731SOL    HW1 2308  11.882  12.652   2.141  0.5305 -0.8239 -0.2667
31731SOL    HW2 2309  11.855  12.616   2.285 -1.1261  0.5018 -0.2208
31732SOL     OW 2310   3.342   1.114   3.911  0.3690 -0.1963  0.1300
31732SOL    HW1 2311   3.379   1.202   3.906  1.0399 -0.3968  1.1586
31732SOL    HW2 2312   3.418   1.056   3.907  0.0079 -0.6932  0.3518
31733SOL     OW 2313   0.016   2.842   6.465 -0.2658 -0.3473 -0.7596
31733SOL    HW1 2314   0.060   2.925   6.486  1.0888 -0.5911 -2.4011
31733SOL    HW2 2315   0.048   2.781   6.532 -0.1252  0.0964 -0.4132
31734SOL     OW 2316   0.379   4.024   1.253  0.0364 -0.0562 -0.2405
31734SOL    HW1 2317   0.359   4.117   1.249  1.5723  0.4640  2.5596
31734SOL    HW2 2318   0.352   3.997   1.340  0.0133 -2.1849 -0.8459
31735SOL     OW 2319   8.073   3.248   2.789 -0.3077 -0.1008  0.5635
31735SOL    HW1 2320   7.981   3.229   2.772 -0.2886 -0.5152  0.8751
31735SOL    HW2 2321   8.116   3.236   2.705 -0.3092 -1.4688  0.7290
31736SOL     OW 2322   1.966   2.484  11.303  0.3377  0.6244 -0.1220
31736SOL    HW1 2323   2.055   2.517  11.289  0.2144  1.0795  0.1588
31736SOL    HW2 2324   1.978   2.399  11.346  0.6633  0.1674 -1.0734
31737SOL     OW 2325   7.984   1.962  12.200 -0.2102  0.4667  0.2984
31737SOL    HW1 2326   7.969   1.953  12.106  2.4328  0.8259 -0.2232
31737SOL    HW2 2327   7.936   1.888  12.239  1.9044 -2.2129 -1.7427
31738SOL     OW 2328   7.222   1.278   7.263  0.4345 -0.1185  0.0297
31738SOL    HW1 2329   7.156   1.345   7.283  0.7406  0.5684 -1.1836
31738SOL    HW2 2330   7.196   1.202   7.315 -0.8747  0.3949  0.1516
31739SOL     OW 2331   3.247   6.016   5.804  0.6657 -0.1256 -0.4431
31739SOL    HW1 2332   3.330   5.969   5.799  1.0560  0.3642  0.9526
31739SOL    HW2 2333   3.221   6.008   5.896 -1.2248 -0.9072 -0.9883
31740SOL     OW 2334   8.900  12.066   8.655 -0.1271 -0.6832  0.1911
31740SOL    HW1 2335   8.924  12.017   8.576 -1.0069 -0.6114 -0.1284
31740SOL    HW2 2336   8.952  12.147   8.649 -1.1358 -0.0965 -0.9865
31741SOL     OW 2337   3.822   2.793   4.758 -0.1062  0.0791 -0.0236
31741SOL    HW1 2338   3.866   2.836   4.685  0.6325  1.5769  1.2518
31741SOL    HW2 2339   3.878   2.810   4.833 -1.4535 -0.4030  1.1309
31742SOL     OW 2340  10.297   7.665   7.972 -0.7397  0.8209  0.4524
31742SOL    HW1 2341  10.204   7.665   7.994 -0.9740  0.4841 -0.4917
31742SOL    HW2 2342  10.313   7.750   7.932 -0.7221  0.7534  0.3135
31743SOL     OW 2343   7.670   8.320   3.487 -0.7539  0.5956  0.0223
31743SOL    HW1 2344   7.717   8.238   3.473  0.0416  1.1348 -0.5664
31743SOL    HW2 2345   7.723   8.366   3.553 -0.2902  1.3105 -0.8215
31744SOL     OW 2346   2.802   0.461   2.353 -0.4039 -0.0764  0.8930
31744SOL    HW1 2347   2.724   0.517   2.358 -0.4018  0.2785 -1.5392
31744SOL    HW2 2348   2.875   0.519   2.376 -0.5200  0.6855 -0.5153
31745SOL     OW 2349  11.122  11.320   0.118  0.1669 -0.2666  0.4737
31745SOL    HW1 2350  11.046  11.264   0.135  0.3785 -0.2098  1.6779
31745SOL    HW2 2351  11.087  11.409   0.120  0.5190 -0.1240  2.8016
31746SOL     OW 2352   0.102   4.464   3.820  0.1174 -0.5071  0.6788
31746SOL    HW1 2353   0.123   4.504   3.904  0.7980 -1.1200  0.8130
31746SOL    HW2 2354   0.061   4.534   3.769  1.0292  0.2766  1.0073
31747SOL     OW 2355   6.688   1.217   5.812 -0.1502 -0.3039  0.0557
31747SOL    HW1 2356   6.732   1.197   5.894 -0.8034  1.2678  0.8343
31747SOL    HW2 2357   6.740   1.287   5.773 -1.2642  0.7832  0.4371
31748SOL     OW 2358   6.491   9.481  11.136 -0.2851  0.7701 -0.0156
31748SOL    HW1 2359   6.458   9.544  11.200  1.9485  1.0253  0.9806
31748SOL    HW2 2360   6.478   9.524  11.051 -1.7638  1.1314  0.3584
31749SOL     OW 2361   9.738   5.651   5.767 -0.0488  0.2912  0.4329
31749SOL    HW1 2362   9.802   5.589   5.731  0.0031  0.5488  0.0750
31749SOL    HW2 2363   9.766   5.736   5.733 -0.2601  0.4784  0.7285
31750SOL     OW 2364  10.775   8.287   8.003  0.6370 -0.3370  0.3876
31750SOL    HW1 2365  10.715   8.335   7.947  0.7642 -0.0522  0.4955
31750SOL    HW2 2366  10.772   8.197   7.969  0.7808 -0.1522 -0.1382
31751SOL     OW 2367   7.137   6.960   5.281  1.3264  0.3731  0.0956
31751SOL    HW1 2368   7.189   7.033   5.247  0.8573  0.9667  0.6360
31751SOL    HW2 2369   7.176   6.941   5.367  0.7710  0.6980  0.4225
31752SOL     OW 2370   7.419   3.737  10.125  0.3108  0.2339  0.1574
31752SOL    HW1 2371   7.367   3.693  10.058 -0.6401 -0.9664  1.6171
31752SOL    HW2 2372   7.494   3.680  10.138  0.8179  0.7852 -0.3118
31753SOL     OW 2373   3.977   0.713   2.914  0.5418  0.1307  0.1816
31753SOL    HW1 2374   3.982   0.701   2.819  0.2679  0.6843  0.0933
31753SOL    HW2 2375   3.921   0.790   2.925  1.5901  0.8278  0.7523
31754SOL     OW 2376   0.183   4.643   5.300 -0.2792  0.0863 -0.4432
31754SOL    HW1 2377   0.087   4.641   5.302 -0.3318  0.6280 -1.6660
31754SOL    HW2 2378   0.205   4.734   5.321  0.0774 -0.4452  1.8079
31755SOL     OW 2379   4.165   4.359   2.674 -0.1472 -0.6044  0.0151
31755SOL    HW1 2380   4.093   4.387   2.730  0.2206  1.3860 -0.4115
31755SOL    HW2 2381   4.237   4.341   2.734  0.0256  0.8133  0.2784
31756SOL     OW 2382   7.842   2.978  12.784 -0.1881 -0.1918 -0.1494
31756SOL    HW1 2383   7.920   2.951  12.833 -0.5899 -2.8878 -0.8701
31756SOL    HW2 2384   7.877   3.007  12.699  0.0853 -0.7587 -0.2348
31757SOL     OW 2385   4.347   6.427   4.828  0.1722 -0.0797 -0.1999
31757SOL    HW1 2386   4.350   6.390   4.740 -0.3396 -0.3111 -0.1249
31757SOL    HW2 2387   4.260   6.402   4.862  0.1607  0.4460  0.1732
31758SOL     OW 2388  12.289   1.604   8.855 -0.2827 -0.1446  0.3347
31758SOL    HW1 2389  12.204   1.632   8.819 -0.0714 -0.4031 -0.3805
31758SOL    HW2 2390  12.267   1.541   8.923 -0.6546 -0.5955 -0.1960
31759SOL     OW 2391   0.696  11.574  10.624  0.1748 -0.2268 -0.2794
31759SOL    HW1 2392   0.734  11.555  10.538 -0.1373 -3.0291  0.1261
31759SOL    HW2 2393   0.657  11.491  10.653  1.1038  0.3340  3.0059
31760SOL     OW 2394   2.071   9.306   5.396  0.1095  0.3234  0.5746
31760SOL    HW1 2395   2.005   9.310   5.465 -2.4800  0.5992 -1.7446
31760SOL    HW2 2396   2.069   9.215   5.367  0.6568  0.3698  0.3885
31761SOL     OW 2397   0.656   6.042   6.226 -0.1282 -0.0869  0.1395
31761SOL    HW1 2398   0.740   6.015   6.189 -0.4503 -0.2522 -0.5005
31761SOL    HW2 2399   0.655   6.137   6.218 -0.1222 -0.1076 -0.1295
31762SOL     OW 2400   1.837   6.741   7.293 -0.5541 -0.2221  0.4541
31762SOL    HW1 2401   1.878   6.821   7.326 -0.6859  0.7711 -1.6405
31762SOL    HW2 2402   1.807   6.695   7.372  4.6186 -1.1791  2.2431
31763SOL     OW 2403   6.138   6.367   7.195  0.3948  0.0130  0.1555
31763SOL    HW1 2404   6.135   6.272   7.207  0.5328  0.0552  0.5442
31763SOL    HW2 2405   6.206   6.396   7.255  1.4021  0.2075 -1.0507
31764SOL     OW 2406   7.026   0.719   1.086  0.3929  0.1758 -0.1497
31764SOL    HW1 2407   7.117   0.719   1.114  0.2320  1.3498  0.4195
31764SOL    HW2 2408   7.012   0.805   1.047 -0.4440 -0.0382 -0.3456
31765SOL     OW 2409   9.855  10.721  12.521  0.5340 -0.2820 -0.0503
31765SOL    HW1 2410   9.868  10.720  12.616 -0.2799 -0.3007  0.0630
31765SOL    HW2 2411   9.785  10.785  12.507 -1.2784 -2.2496 -0.3839
31766SOL     OW 2412  12.225   2.085   9.704 -0.2340 -0.2349 -0.0206
31766SOL    HW1 2413  12.229   2.156   9.768  0.3142  0.2351 -0.5663
31766SOL    HW2 2414  12.315   2.070   9.678 -0.4647 -0.3049 -0.8088
31767SOL     OW 2415   4.593   2.038   5.974 -0.7017  0.5575 -0.7558
31767SOL    HW1 2416   4.507   2.037   5.933 -1.8182  1.3929  1.4008
31767SOL    HW2 2417   4.614   2.131   5.984  0.2606  0.3631 -0.8530
31768SOL     OW 2418  12.930  10.265   2.707  0.0791 -0.2557  0.3614
31768SOL    HW1 2419  12.905  10.350   2.669 -0.6581 -0.2144  0.9033
31768SOL    HW2 2420  13.019  10.250   2.676 -0.3807 -0.0820 -1.1162
31769SOL     OW 2421   0.213  10.775   6.270  0.1454 -0.1436  0.5420
31769SOL    HW1 2422   0.208  10.680   6.253  2.6542 -0.2991  0.2225
31769SOL    HW2 2423   0.282  10.784   6.335  0.6547  1.5413 -0.1843
31770SOL     OW 2424   9.718   5.769   9.851  0.2076  0.6655  0.1232
31770SOL    HW1 2425   9.770   5.742   9.776 -1.7289 -0.9120 -0.7369
31770SOL    HW2 2426   9.744   5.709   9.921 -1.5994 -1.3709 -0.8155
31771SOL     OW 2427  11.175  10.443  10.751  0.5111  0.1035  0.6493
31771SOL    HW1 2428  11.211  10.472  10.835 -0.5219  1.6226  0.6024
31771SOL    HW2 2429  11.108  10.379  10.775  1.2838 -0.6406  0.8760
31772SOL     OW 2430   3.751  12.740  12.350  0.1111  0.1655  1.0264
31772SOL    HW1 2431   3.756  12.659  12.400  0.2326  0.9183  2.2680
31772SOL    HW2 2432   3.665  12.737  12.308  0.8125 -1.4025 -0.3894
31773SOL     OW 2433   4.569   3.165   0.154  0.4785 -0.2376 -0.2843
31773SOL    HW1 2434   4.624   3.088   0.138  0.5568 -0.0306 -1.0818
31773SOL    HW2 2435   4.485   3.130   0.183  0.2792 -0.6741 -1.3272
31774SOL     OW 2436   8.336   3.897   5.699 -1.0221  0.1140 -0.1124
31774SOL    HW1 2437   8.376   3.982   5.683 -0.7623 -0.2909 -1.7367
31774SOL    HW2 2438   8.348   3.883   5.793  1.8060  0.4396 -0.3412
31775SOL     OW 2439   8.044   4.903   9.086 -0.2647 -0.0659  0.3672
31775SOL    HW1 2440   7.955   4.930   9.062 -0.1857  0.3328  0.5057
31775SOL    HW2 2441   8.064   4.830   9.028 -0.8120 -0.3739  0.5680
31776SOL     OW 2442   0.843   6.337   3.507  0.1315 -0.0855  0.1150
31776SOL    HW1 2443   0.858   6.385   3.588  0.3319  1.6415 -0.8877
31776SOL    HW2 2444   0.915   6.274   3.503 -0.2486 -0.6563  1.5613
31777SOL     OW 2445   0.878   3.095  11.539  0.2239  0.2152  0.4097
31777SOL    HW1 2446   0.800   3.042  11.520 -0.0874  0.9988 -0.6056
31777SOL    HW2 2447   0.920   3.051  11.613 -0.6422 -0.7886  0.3250
31778SOL     OW 2448  11.120   7.387   1.539 -0.3807 -0.3269  0.2443
31778SOL    HW1 2449  11.082   7.440   1.469 -2.2422 -1.8554  0.0073
31778SOL    HW2 2450  11.188   7.442   1.577  0.2009  0.8326 -2.2794
31779SOL     OW 2451  12.827   5.046   9.519 -0.0300  0.1805 -0.4688
31779SOL    HW1 2452  12.792   4.984   9.583  2.5418  1.2005  2.1569
31779SOL    HW2 2453  12.790   5.131   9.543  0.3497  0.4590 -0.8325
31780SOL     OW 2454   2.700  10.853   1.107  0.1218 -0.1428 -0.4010
31780SOL    HW1 2455   2.741  10.916   1.048 -0.5987  0.0165 -0.7448
31780SOL    HW2 2456   2.639  10.905   1.159 -0.1946 -0.4972 -0.4134
31781SOL     OW 2457   5.989   5.837   2.926 -0.2798 -0.8085 -0.1404
31781SOL    HW1 2458   6.011   5.821   3.017 -0.7998  0.1283  0.1634
31781SOL    HW2 2459   6.008   5.930   2.912  1.6879 -1.3555 -1.5491
31782SOL     OW 2460   6.160   6.904  12.903  1.0362 -0.9297 -0.4750
31782SOL    HW1 2461   6.156   6.940  12.991  0.5085 -1.5501 -0.2380
31782SOL    HW2 2462   6.078   6.855  12.893  1.1378 -0.9577 -1.2679
31783SOL     OW 2463   8.188   9.081  12.022 -0.0538 -0.8450 -0.1604
31783SOL    HW1 2464   8.115   9.116  12.074  2.0313 -0.3102  2.6913
31783SOL    HW2 2465   8.189   8.988  12.042  0.4501 -0.7202  0.4615
31784SOL     OW 2466  11.239   7.398   5.178 -0.0807  0.5902 -0.0079
31784SOL    HW1 2467  11.322   7.352   5.193 -0.6216 -0.2204  0.5550
31784SOL    HW2 2468  11.198   7.352   5.106  0.6983  2.0393 -1.4479
31785SOL     OW 2469   7.551  10.686   8.266 -0.0043 -0.5801  0.2661
31785SOL    HW1 2470   7.529  10.717   8.178 -0.0213 -0.4304  0.3231
31785SOL    HW2 2471   7.488  10.729   8.323  1.4201  1.1458  0.6330
31786SOL     OW 2472   1.469   2.143  12.506  0.3876  0.2382 -0.0758
31786SOL    HW1 2473   1.419   2.222  12.526  1.9452  0.8593  1.6222
31786SOL    HW2 2474   1.449   2.082  12.577 -0.2642 -0.6641 -1.0053
31787SOL     OW 2475   0.294   4.197   7.936 -0.2882 -0.1871  0.1072
31787SOL    HW1 2476   0.330   4.258   7.870 -0.3421  1.1786  1.2951
31787SOL    HW2 2477   0.294   4.112   7.892  2.6100  0.0744 -0.6422
31788SOL     OW 2478   3.162   6.408   2.172 -0.1869  0.3054 -0.2757
31788SOL    HW1 2479   3.152   6.322   2.213 -0.3070  0.3834 -0.1396
31788SOL    HW2 2480   3.154   6.391   2.078  2.3441 -0.2274 -0.4694
31789SOL     OW 2481  10.140   4.448  10.823  0.3029 -0.1405  0.3639
31789SOL    HW1 2482  10.110   4.386  10.889 -0.3826 -2.3822 -1.9282
31789SOL    HW2 2483  10.065   4.506  10.808 -0.6863 -1.6166 -0.6452
31790SOL     OW 2484   1.504   8.086   7.203 -0.0165  0.1451  0.1252
31790SOL    HW1 2485   1.597   8.103   7.216 -0.0873  0.8843 -0.2616
31790SOL    HW2 2486   1.483   8.016   7.265  0.9458 -0.5368 -0.2932
31791SOL     OW 2487   3.888   7.800   7.340 -0.1989 -0.1298  0.1887
31791SOL    HW1 2488   3.796   7.818   7.320 -0.2234 -0.5335 -0.0706
31791SOL    HW2 2489   3.913   7.732   7.278 -0.2393 -1.3292  1.4172
31792SOL     OW 2490   7.420  11.291   7.156 -0.1073 -0.1146  0.4446
31792SOL    HW1 2491   7.475  11.217   7.181  0.2246 -0.2131 -0.5057
31792SOL    HW2 2492   7.482  11.358   7.126 -0.4424 -1.4063 -3.8555
31793SOL     OW 2493  11.989   2.300  11.900  0.4648  0.0018 -0.1463
31793SOL    HW1 2494  12.014   2.209  11.916 -2.0182 -0.7036  0.1541
31793SOL    HW2 2495  11.974   2.304  11.805  1.5349  0.3950 -0.3124
31794SOL     OW 2496   4.902   1.895   2.700  0.2575 -0.1827  0.1738
31794SOL    HW1 2497   4.944   1.857   2.623 -2.2620  0.2152 -1.5104
31794SOL    HW2 2498   4.876   1.983   2.672 -0.1551  0.2003  1.6903
31795SOL     OW 2499   2.868   1.736  10.313 -0.0868 -0.2926 -0.0764
31795SOL    HW1 2500   2.793   1.792  10.330 -0.0110 -0.3498  0.4883
31795SOL    HW2 2501   2.927   1.752  10.387  0.3184 -0.4761 -0.3548
31796SOL     OW 2502  12.890   8.884   4.533  0.0070  0.1073  0.1617
31796SOL    HW1 2503  12.964   8.930   4.572  0.6371 -0.4932 -0.2939
31796SOL    HW2 2504  12.832   8.954   4.503  0.1793  0.5833  0.8989
31797SOL     OW 2505   2.402   0.481   0.267 -0.6001 -0.3347 -0.3828
31797SOL    HW1 2506   2.323   0.503   0.317  1.0843  0.3345  2.2146
31797SOL    HW2 2507   2.415   0.556   0.209 -1.7146 -0.3301 -0.6500
31798SOL     OW 2508   3.646   2.270   8.471 -0.5230 -0.4111 -0.8576
31798SOL    HW1 2509   3.688   2.328   8.534 -1.0853 -0.1716 -0.6957
31798SOL    HW2 2510   3.694   2.283   8.390 -1.2891  1.0739 -1.1084
31799SOL     OW 2511   0.101   0.981   4.321 -0.2195 -0.4537  0.0637
31799SOL    HW1 2512   0.144   0.922   4.384  0.5661 -1.1980 -1.1238
31799SOL    HW2 2513   0.014   0.943   4.309 -0.8715  0.4513  1.6756
31800SOL     OW 2514   7.668   8.412   2.598 -0.8187  0.3186  0.5596
31800SOL    HW1 2515   7.704   8.406   2.687  0.1049 -1.7237  0.1181
31800SOL    HW2 2516   7.745   8.420   2.542 -1.2157 -0.8816 -0.1874
31801SOL     OW 2517   7.122   1.077   8.929  0.3080 -0.1689 -0.2107
31801SOL    HW1 2518   7.212   1.051   8.949 -0.0987 -2.1139 -0.7542
31801SOL    HW2 2519   7.069   1.005   8.961 -0.9690  0.3308 -1.1402
31802SOL     OW 2520   2.523  12.864   0.844 -0.6240  0.2250  0.4080
31802SOL    HW1 2521   2.582  12.920   0.894  0.0683  0.7453 -0.9203
31802SOL    HW2 2522   2.507  12.913   0.763 -0.6320 -1.1456 -0.4454
31803SOL     OW 2523   2.761  11.713   1.772  0.1047 -0.2179 -0.4123
31803SOL    HW1 2524   2.694  11.669   1.825  0.9130  0.8318  1.5817
31803SOL    HW2 2525   2.838  11.657   1.780  0.2830  0.0385 -0.3130
31804SOL     OW 2526  12.935   0.642   1.573  0.4068  0.1265  0.1837
31804SOL    HW1 2527  12.937   0.694   1.493 -0.2852  0.1861  0.2017
31804SOL    HW2 2528  13.026   0.643   1.604  0.4022  1.4241  0.2378
31805SOL     OW 2529   6.201   3.964   3.372 -0.5567  0.0017 -0.1152
31805SOL    HW1 2530   6.131   4.018   3.409 -1.6813 -0.4074 -1.5436
31805SOL    HW2 2531   6.230   3.909   3.446 -0.1770  1.6992  1.0596
31806SOL     OW 2532   1.160   0.501   2.602 -0.6880  0.0293  0.4134
31806SOL    HW1 2533   1.118   0.511   2.517  2.0655  0.1938 -1.0527
31806SOL    HW2 2534   1.165   0.590   2.638 -2.3192 -0.1040  1.0526
31807SOL     OW 2535   0.310   1.446   7.093  0.3166  0.8670  0.0727
31807SOL    HW1 2536   0.367   1.507   7.046  0.0346 -0.0389 -1.5393
31807SOL    HW2 2537   0.370   1.382   7.131  0.4306 -0.0614 -1.5807
31808SOL     OW 2538   7.718   3.674   0.030  0.5446 -0.7920 -0.1021
31808SOL    HW1 2539   7.805   3.712   0.020  1.0017 -1.2545  1.6650
31808SOL    HW2 2540   7.658   3.746   0.011  1.3158 -0.2355 -0.5054
31809SOL     OW 2541   9.826   1.856   2.727  0.4240 -0.2195  0.3757
31809SOL    HW1 2542   9.913   1.862   2.765  0.3579 -0.4973  0.5759
31809SOL    HW2 2543   9.824   1.770   2.685  0.1600 -0.3214  0.5943
31810SOL     OW 2544   6.957   5.021   5.142 -0.2597  0.0196 -0.4567
31810SOL    HW1 2545   6.932   4.985   5.057 -0.6730 -1.6676  0.3408
31810SOL    HW2 2546   7.041   4.981   5.162  1.0287  2.2399 -1.0890
31811SOL     OW 2547   2.120   6.650  12.346  0.0481 -0.5123  0.4881
31811SOL    HW1 2548   2.036   6.696  12.352  0.6068  0.4287  2.1835
31811SOL    HW2 2549   2.101   6.570  12.298 -1.0473  1.3375 -2.4037
31812SOL     OW 2550   4.604  12.275   1.176 -0.0266  0.4583  0.2744
31812SOL    HW1 2551   4.613  12.272   1.080 -0.5914  0.5925  0.2133
31812SOL    HW2 2552   4.540  12.206   1.196  0.6692 -0.1027  0.6385
31813SOL     OW 2553   2.359   5.477   9.933 -0.1228  0.5090  0.1303
31813SOL    HW1 2554   2.377   5.392   9.972 -0.9691  0.0958 -0.3577
31813SOL    HW2 2555   2.287   5.461   9.872  0.5182  1.3385 -0.8772
31814SOL     OW 2556   1.929   0.465   8.331 -0.4693  0.1372  0.2951
31814SOL    HW1 2557   1.878   0.546   8.333 -0.3228  0.3703 -2.5457
31814SOL    HW2 2558   1.879   0.405   8.387 -2.3547  1.1901 -0.1594
31815SOL     OW 2559   5.341   7.409  11.525  0.6474 -0.3821  1.2654
31815SOL    HW1 2560   5.347   7.500  11.555 -1.2942  0.3298 -0.2525
31815SOL    HW2 2561   5.310   7.360  11.601 -0.3283  0.6396  1.5530
31816SOL     OW 2562   0.412   7.665   2.938 -0.1699  0.0830 -0.1879
31816SOL    HW1 2563   0.465   7.627   3.008 -1.0168 -1.1105 -0.1617
31816SOL    HW2 2564   0.475   7.702   2.878  0.5687  2.7192  2.0109
31817SOL     OW 2565  10.081   3.001   4.248 -0.1289 -0.3474  0.3316
31817SOL    HW1 2566  10.162   2.952   4.236 -0.3918 -0.6711 -0.1404
31817SOL    HW2 2567  10.034   2.991   4.165 -0.1677  0.7355  0.2034
31818SOL     OW 2568  10.246   0.842   3.719  0.3326 -0.2278  0.1352
31818SOL    HW1 2569  10.262   0.855   3.812 -2.0698 -0.4767  0.6540
31818SOL    HW2 2570  10.275   0.923   3.678  1.4969 -0.1488  1.0730
31819SOL     OW 2571  10.586  11.285  10.628  0.2031 -0.3970  0.3394
31819SOL    HW1 2572  10.586  11.377  10.601  1.5092 -0.3887  0.3026
31819SOL    HW2 2573  10.592  11.288  10.724  0.6930 -0.4324  0.3142
31820SOL     OW 2574   8.732   2.573   5.084 -0.3447 -0.2154 -0.5280
31820SOL    HW1 2575   8.778   2.618   5.155 -2.1568  0.3564  0.3376
31820SOL    HW2 2576   8.702   2.491   5.122  1.1971 -1.2866 -1.5234
31821SOL     OW 2577   1.298   6.236   2.179 -0.4599 -0.3588  0.7522
31821SOL    HW1 2578   1.205   6.215   2.186 -0.4005 -0.8750  0.1349
31821SOL    HW2 2579   1.310   6.267   2.089 -0.2219  0.7138  1.1436
31822SOL     OW 2580   5.133   7.379   4.616  0.0089  0.1311  0.5211
31822SOL    HW1 2581   5.189   7.381   4.693  0.2916  1.8642  0.3105
31822SOL    HW2 2582   5.193   7.370   4.542 -0.2521 -1.3960  0.4733
31823SOL     OW 2583   0.671   9.931   3.157  0.0199 -0.5881 -0.2296
31823SOL    HW1 2584   0.718   9.983   3.092  0.0118  0.2519  0.4167
31823SOL    HW2 2585   0.647   9.850   3.111 -0.9248  0.4292 -1.5978
31824SOL     OW 2586   9.883   9.307   6.733  0.2790 -0.1284 -0.1314
31824SOL    HW1 2587   9.859   9.281   6.644 -0.4114  0.3939 -0.1103
31824SOL    HW2 2588   9.971   9.273   6.745 -0.2411 -1.6742 -0.4100
31825SOL     OW 2589   9.516   0.994   7.506 -0.5751 -0.2336  0.3960
31825SOL    HW1 2590   9.556   1.075   7.475 -1.7076 -0.6201 -2.3084
31825SOL    HW2 2591   9.577   0.962   7.574  1.1027  1.6409 -0.1340
31826SOL     OW 2592   4.548  12.928   5.672 -0.5810 -0.1635 -0.1324
31826SOL    HW1 2593   4.518  13.006   5.719 -0.5958 -0.5586  0.5305
31826SOL    HW2 2594   4.489  12.858   5.701 -1.3161 -0.1940 -1.6064
31827SOL     OW 2595   3.161  12.884   8.669  0.2203 -0.0972 -0.4044
31827SOL    HW1 2596   3.173  12.946   8.597  0.9992 -0.7944 -0.8857
31827SOL    HW2 2597   3.226  12.911   8.734 -0.9160  0.9410  0.3573
31828SOL     OW 2598  12.466   3.628   4.030 -0.5063  0.0301  0.1110
31828SOL    HW1 2599  12.467   3.692   3.959 -0.6959 -0.5786 -0.4501
31828SOL    HW2 2600  12.424   3.551   3.992 -0.0042 -0.5337  0.6847
31829SOL     OW 2601   0.130   9.616   8.463 -0.0626 -0.1880 -0.0224
31829SOL    HW1 2602   0.072   9.601   8.389 -0.2448 -0.8174  0.2466
31829SOL    HW2 2603   0.209   9.654   8.424 -1.1013  1.8445 -0.2543
31830SOL     OW 2604   9.409  11.023   5.858  0.2249 -0.3131 -0.4168
31830SOL    HW1 2605   9.428  10.931   5.838  0.0777 -0.2599 -0.8127
31830SOL    HW2 2606   9.382  11.060   5.774 -0.5537 -0.1192 -0.0908
31831SOL     OW 2607   6.574   6.870   7.164  0.1797  0.0695 -0.6916
31831SOL    HW1 2608   6.580   6.832   7.252 -0.2828 -0.2418 -0.7922
31831SOL    HW2 2609   6.617   6.806   7.108 -0.5800 -0.3076 -0.8585
31832SOL     OW 2610   5.147   7.221  12.225  0.1922 -0.1486 -0.4160
31832SOL    HW1 2611   5.069   7.258  12.183 -0.9407  0.1484  1.7795
31832SOL    HW2 2612   5.117   7.195  12.312  2.1543 -1.7269 -0.1431
31833SOL     OW 2613   9.856  11.564   5.869 -0.5036  0.1784  0.4348
31833SOL    HW1 2614   9.943  11.523   5.872 -0.7707 -0.3605  0.8667
31833SOL    HW2 2615   9.827  11.552   5.778 -0.4801 -0.3756  0.5002
31834SOL     OW 2616   4.949   8.120   9.539  0.6565  0.2513  0.5113
31834SOL    HW1 2617   4.857   8.094   9.536  0.1958  1.8982 -1.1423
31834SOL    HW2 2618   4.955   8.178   9.615  0.3410  0.1068  0.6500
31835SOL     OW 2619   2.584  12.013   1.378 -0.0076 -0.1290 -0.4335
31835SOL    HW1 2620   2.648  12.037   1.310  0.9187 -0.6356  0.2327
31835SOL    HW2 2621   2.510  11.976   1.330  0.0195  0.8418 -1.2491
31836SOL     OW 2622   9.250  10.549   0.911  0.1453 -0.1764  0.0235
31836SOL    HW1 2623   9.245  10.569   1.005 -0.7203  2.4297 -0.4893
31836SOL    HW2 2624   9.263  10.454   0.907  0.1712 -0.3643  2.7667
31837SOL     OW 2625   5.744   3.641  12.193  0.9949  0.4557  0.0622
31837SOL    HW1 2626   5.759   3.644  12.287  1.5685  0.0839 -0.0094
31837SOL    HW2 2627   5.760   3.730  12.162  1.3864  0.4486  0.2384
31838SOL     OW 2628   8.414   5.446   5.301  0.4473 -0.0164 -0.1302
31838SOL    HW1 2629   8.332   5.483   5.269  1.1310  1.1336 -0.6417
31838SOL    HW2 2630   8.458   5.519   5.344  0.2798 -1.1427  2.0781
31839SOL     OW 2631   6.424   7.375   6.959 -0.5820  0.0481 -0.2521
31839SOL    HW1 2632   6.509   7.419   6.966 -1.4707  1.6389  1.5519
31839SOL    HW2 2633   6.441   7.298   6.905  1.4560  1.6012 -1.9768
31840SOL     OW 2634   0.190  11.726  10.367  0.0160  0.4944  0.4270
31840SOL    HW1 2635   0.282  11.756  10.370 -0.5433  2.6876 -1.3215
31840SOL    HW2 2636   0.145  11.793  10.316 -2.4785 -0.8582  0.6945
31841SOL     OW 2637  12.145   3.073   5.869 -0.6371 -0.4928  0.2207
31841SOL    HW1 2638  12.162   3.162   5.899 -0.2634 -0.9678  1.4922
31841SOL    HW2 2639  12.171   3.073   5.777  0.0663  0.5214  0.4023
31842SOL     OW 2640   3.365   6.293   9.270  0.8650 -0.0022  0.4081
31842SOL    HW1 2641   3.445   6.259   9.231  0.9340  0.0958  0.4658
31842SOL    HW2 2642   3.308   6.311   9.195  0.7543 -0.4276  0.3865
31843SOL     OW 2643  10.001   5.223  12.594  0.1619  0.6812  0.2680
31843SOL    HW1 2644   9.978   5.180  12.677  0.4735 -0.5945 -0.2800
31843SOL    HW2 2645   9.918   5.231  12.548  0.3326 -1.1384 -0.4310
31844SOL     OW 2646  11.975   8.063   1.618  0.0200 -0.0612 -0.2670
31844SOL    HW1 2647  11.910   8.010   1.571 -0.7841 -0.2407  0.9880
31844SOL    HW2 2648  11.937   8.150   1.622  0.7310  0.3011 -1.1604
31845SOL     OW 2649   4.147   2.161   1.781  0.2310  0.5974 -0.6016
31845SOL    HW1 2650   4.165   2.253   1.801  0.8370  1.0812 -3.0625
31845SOL    HW2 2651   4.053   2.159   1.764  0.5060  1.2351 -2.4532
31846SOL     OW 2652  12.215  10.574   9.657 -0.0158  0.4562  0.2313
31846SOL    HW1 2653  12.261  10.605   9.580 -0.6785  2.2429  0.5070
31846SOL    HW2 2654  12.131  10.541   9.623  0.3734 -0.3517  0.0260
31847SOL     OW 2655   2.711   4.453   1.912 -0.1449  0.6120 -0.3168
31847SOL    HW1 2656   2.787   4.396   1.922 -0.3301  0.3775 -0.2432
31847SOL    HW2 2657   2.655   4.434   1.987  0.1072  1.3890  0.0801
31848SOL     OW 2658   9.267  12.914   0.987 -0.3309  0.2518  0.3436
31848SOL    HW1 2659   9.280  13.006   0.966 -0.8358  0.6707  1.7599
31848SOL    HW2 2660   9.321  12.899   1.065 -1.4646 -0.2447  1.0535
31849SOL     OW 2661   7.801   8.405   5.218  0.5882  0.0242 -0.4687
31849SOL    HW1 2662   7.802   8.416   5.123  0.1905 -1.1536 -0.6315
31849SOL    HW2 2663   7.789   8.311   5.230 -1.8448  0.4262  0.7387
31850SOL     OW 2664  12.529  10.416   0.044  0.6781  0.5604  0.0968
31850SOL    HW1 2665  12.485  10.340   0.082 -1.3877  3.1327  3.3516
31850SOL    HW2 2666  12.559  10.466   0.120  1.3977  3.3003 -1.8725
31851SOL     OW 2667   3.450   2.850   0.673 -1.0308  0.3592 -0.0206
31851SOL    HW1 2668   3.494   2.803   0.602 -2.7041 -1.1350 -0.1437
31851SOL    HW2 2669   3.507   2.925   0.691 -0.1214  0.3105 -2.3340
31852SOL     OW 2670  11.840   6.459   4.979 -0.3106 -0.4308  0.2579
31852SOL    HW1 2671  11.928   6.497   4.974 -0.0830 -1.0943 -2.0007
31852SOL    HW2 2672  11.845   6.396   5.051  0.7526  0.2731  0.8181
31853SOL     OW 2673  10.684   2.105   7.106 -0.1922 -1.1195  0.1542
31853SOL    HW1 2674  10.626   2.044   7.061 -0.7278 -0.4175 -0.1197
31853SOL    HW2 2675  10.684   2.077   7.197 -0.9122 -1.1633  0.1407
31854SOL     OW 2676   3.437   2.165   5.752 -0.1458  0.2475  0.1830
31854SOL    HW1 2677   3.403   2.106   5.820 -0.0514  1.2254  1.1004
31854SOL    HW2 2678   3.404   2.251   5.777 -1.9390  0.3528 -2.2264
31855SOL     OW 2679  11.447   9.512   4.397  0.2121  0.0507 -0.4314
31855SOL    HW1 2680  11.416   9.593   4.356 -0.0941  0.0439 -0.2204
31855SOL    HW2 2681  11.370   9.455   4.398 -0.4772  0.8560  2.1968
31856SOL     OW 2682   5.756  10.188   5.626  0.7345  0.3355 -0.4700
31856SOL    HW1 2683   5.769  10.104   5.670  1.7505  0.8172  0.1723
31856SOL    HW2 2684   5.831  10.241   5.652 -0.3584  1.7731 -0.1221
31857SOL     OW 2685  12.253   4.495   7.003  0.2568  0.1318 -0.0847
31857SOL    HW1 2686  12.334   4.450   7.027  0.4584  1.0521  1.0621
31857SOL    HW2 2687  12.275   4.588   7.003 -1.1703  0.5570  2.0754
31858SOL     OW 2688   9.119   5.053   9.232  0.5568  0.4883 -0.4681
31858SOL    HW1 2689   9.186   4.995   9.195 -0.6018 -0.2815 -1.4769
31858SOL    HW2 2690   9.045   4.995   9.250  0.2883  1.2459  1.0227
31859SOL     OW 2691  11.474   2.173   3.552  0.2692  0.0164  0.1646
31859SOL    HW1 2692  11.534   2.144   3.621  0.5083  0.5066  0.1612
31859SOL    HW2 2693  11.401   2.212   3.598 -0.9954 -2.3036  0.2558
31860SOL     OW 2694  10.174   2.164   0.374  0.5022  0.3719  0.8159
31860SOL    HW1 2695  10.170   2.114   0.292 -1.8239  0.1783  0.9848
31860SOL    HW2 2696  10.217   2.246   0.350 -0.3137  0.4090 -0.6763
31861SOL     OW 2697   5.481  12.418   7.672  0.3447 -0.0894 -0.0176
31861SOL    HW1 2698   5.484  12.324   7.688 -2.9314 -0.2707  0.3132
31861SOL    HW2 2699   5.505  12.428   7.579  1.5676 -1.1040  0.1641
31862SOL     OW 2700   9.862   2.660   7.913 -0.3295  1.0265 -0.3618
31862SOL    HW1 2701   9.907   2.666   7.828 -0.7203  0.8508 -0.5834
31862SOL    HW2 2702   9.914   2.596   7.962 -0.0177  1.2357 -0.4148
31863SOL     OW 2703   6.028  12.822   1.185  0.0118  0.0202  0.3409
31863SOL    HW1 2704   6.096  12.827   1.119 -0.4695  0.9233 -0.0981
31863SOL    HW2 2705   6.066  12.863   1.263  0.0163  0.3918  0.1405
31864SOL     OW 2706  11.355  12.372   0.402 -0.6732  0.1205 -0.3492
31864SOL    HW1 2707  11.341  12.457   0.443 -2.1489 -0.8506  1.2899
31864SOL    HW2 2708  11.315  12.309   0.462  1.4833 -1.8973 -0.8711
31865SOL     OW 2709   6.690   8.275  12.935 -0.0976  0.2144 -0.6646
31865SOL    HW1 2710   6.772   8.311  12.901  0.1589 -0.2095 -0.5044
31865SOL    HW2 2711   6.716   8.231  13.017 -0.7635  1.6082  0.3325
31866SOL     OW 2712   6.607   6.358  11.070 -0.3138 -0.2329 -0.4983
31866SOL    HW1 2713   6.516   6.380  11.049 -1.0208 -0.7687  1.7459
31866SOL    HW2 2714   6.603   6.321  11.158  2.2983  1.2412  0.3412
31867SOL     OW 2715   5.428   2.054   4.225  0.0304 -0.2915  0.1937
31867SOL    HW1 2716   5.389   2.137   4.250  0.5918 -0.2495  0.9404
31867SOL    HW2 2717   5.435   2.059   4.129  0.5800  0.7519  0.2763
31868SOL     OW 2718  12.892   5.766   6.906  0.3293 -0.3325  0.1979
31868SOL    HW1 2719  12.905   5.768   6.812 -0.6757  0.3253  0.0545
31868SOL    HW2 2720  12.883   5.858   6.931 -0.9234 -0.5604  0.6870
31869SOL     OW 2721   5.273  12.962   6.011 -0.0210  0.3966  0.5603
31869SOL    HW1 2722   5.316  12.971   5.926 -2.9348  0.0139 -1.0937
31869SOL    HW2 2723   5.306  13.036   6.062  2.6791 -0.0078 -0.4081
31870SOL     OW 2724   4.976  10.358  10.163  0.4440 -0.6063 -0.2624
31870SOL    HW1 2725   4.927  10.438  10.147  0.0792 -0.6308  0.6787
31870SOL    HW2 2726   4.983  10.353  10.258 -1.1710 -2.6586 -0.1807
31871SOL     OW 2727   9.055   4.711   0.246 -0.5017 -0.1838  0.8120
31871SOL    HW1 2728   9.098   4.651   0.186  0.6368  0.6657  0.7515
31871SOL    HW2 2729   9.124   4.772   0.274 -2.1441  3.0742 -1.4909
31872SOL     OW 2730   6.203   0.471   1.328 -0.1671  0.5508  0.1277
31872SOL    HW1 2731   6.218   0.383   1.363  0.3956  0.3494 -0.5855
31872SOL    HW2 2732   6.228   0.530   1.398  0.8706  0.1558  0.1030
31873SOL     OW 2733  11.465  12.344   3.306  0.5817  0.3142  0.1905
31873SOL    HW1 2734  11.481  12.374   3.396  0.3877  0.2947  0.2323
31873SOL    HW2 2735  11.454  12.250   3.315 -3.0122  0.6477  0.6861
31874SOL     OW 2736   8.150   7.318  10.890 -0.3459  0.0215 -0.3292
31874SOL    HW1 2737   8.242   7.294  10.892 -0.0388  1.1707  2.1535
31874SOL    HW2 2738   8.117   7.279  10.809  1.6626 -2.7297  0.0609
31875SOL     OW 2739  10.404  10.252   0.449  0.4724  0.0669 -0.0482
31875SOL    HW1 2740  10.383  10.265   0.356 -1.9447 -1.8845  0.1387
31875SOL    HW2 2741  10.412  10.341   0.484 -0.8066  0.8869 -1.6783
31876SOL     OW 2742   8.158   9.302   3.813 -0.0189 -0.0385  0.2414
31876SOL    HW1 2743   8.153   9.216   3.771 -1.1616  0.1373 -0.0131
31876SOL    HW2 2744   8.150   9.364   3.741 -0.1355  0.2768  0.5270
31877SOL     OW 2745   3.175   0.122   0.066  0.1645  0.2494 -0.2726
31877SOL    HW1 2746   3.230   0.170   0.128  0.7658 -0.6344 -0.0882
31877SOL    HW2 2747   3.205   0.031   0.073  0.7402  0.2235 -2.3876
31878SOL     OW 2748  10.979   5.904   7.504 -0.0554 -0.0383  0.2764
31878SOL    HW1 2749  11.000   5.859   7.422 -1.9256 -0.5919  0.0507
31878SOL    HW2 2750  11.049   5.969   7.514  1.0712 -1.0119 -0.9269
31879SOL     OW 2751   8.154   4.299   1.646  0.1118 -0.0027  0.8201
31879SOL    HW1 2752   8.100   4.224   1.623 -0.5596  0.2921  1.3710
31879SOL    HW2 2753   8.147   4.306   1.742 -1.3112  1.7986  0.6421
31880SOL     OW 2754   5.559   3.726   8.315 -0.5883  0.3987  0.1774
31880SOL    HW1 2755   5.623   3.754   8.379  0.7568 -1.9202 -0.0674
31880SOL    HW2 2756   5.536   3.636   8.340  0.1325 -0.6698 -2.6047
31881SOL     OW 2757   9.097   8.969  12.484 -0.4745  0.2189 -0.3111
31881SOL    HW1 2758   9.117   8.941  12.573 -1.7235 -0.5236 -0.2353
31881SOL    HW2 2759   9.035   9.042  12.494 -0.5203  0.2187 -0.5674
31882SOL     OW 2760   6.533   0.621   4.206  0.2953 -0.0897  0.5744
31882SOL    HW1 2761   6.472   0.547   4.203 -0.6624  0.6793  0.5604
31882SOL    HW2 2762   6.497   0.685   4.145  2.2169 -0.3963 -0.9835
31883SOL     OW 2763   4.629   1.836   1.558 -0.1474 -0.0599  0.6703
31883SOL    HW1 2764   4.600   1.861   1.470  0.5746  0.7824  0.6622
31883SOL    HW2 2765   4.692   1.904   1.583  1.8213 -1.8104  0.6849
31884SOL     OW 2766   5.133   7.575   2.766  0.0891  0.7103  0.4996
31884SOL    HW1 2767   5.156   7.633   2.693  0.0460  0.4767  0.2983
31884SOL    HW2 2768   5.184   7.495   2.750 -0.1461  0.5456  0.5604
31885SOL     OW 2769   8.856   5.585   5.396  0.1130 -0.0537 -0.2829
31885SOL    HW1 2770   8.913   5.510   5.412  0.1916  0.4206  2.1131
31885SOL    HW2 2771   8.815   5.567   5.312  0.2308 -2.7059  0.1404
31886SOL     OW 2772  11.095   5.276   3.524 -0.5070  0.0733 -0.3674
31886SOL    HW1 2773  11.080   5.211   3.593 -2.8828  1.8706  0.9609
31886SOL    HW2 2774  11.120   5.355   3.571  1.8001  0.3553 -1.9199
31887SOL     OW 2775   3.638   9.076   3.053  0.7727  0.1360 -0.1966
31887SOL    HW1 2776   3.605   9.016   2.985 -0.2108  1.4578 -0.9451
31887SOL    HW2 2777   3.567   9.081   3.117 -0.0588  2.0257 -1.1762
31888SOL     OW 2778  12.824  10.438  12.393 -0.2351  0.5022  0.0687
31888SOL    HW1 2779  12.878  10.491  12.334 -0.8514 -0.2172 -1.1728
31888SOL    HW2 2780  12.878  10.362  12.414  0.8888  1.8213  2.3340
31889SOL     OW 2781   3.232  11.463   6.232  0.6723 -0.5143  0.2721
31889SOL    HW1 2782   3.210  11.384   6.182  0.7176 -0.3935  0.0577
31889SOL    HW2 2783   3.185  11.453   6.315  1.9476 -1.5091  0.8931
31890SOL     OW 2784   8.566   0.517  12.782  0.2728 -0.1022 -0.3462
31890SOL    HW1 2785   8.514   0.510  12.701  0.0541 -0.0976 -0.2059
31890SOL    HW2 2786   8.640   0.458  12.767  0.0316 -0.3982 -0.3975
31891SOL     OW 2787   4.438   9.933   6.682  0.2605 -0.2481 -0.2106
31891SOL    HW1 2788   4.421   9.861   6.622 -0.9814 -0.7442  0.6759
31891SOL    HW2 2789   4.374   9.920   6.752  0.7537  1.0959  0.5144
31892SOL     OW 2790   8.097  10.185   2.868  0.2936 -0.0102 -0.8026
31892SOL    HW1 2791   8.176  10.225   2.905 -0.7341  1.9596 -0.5927
31892SOL    HW2 2792   8.084  10.106   2.920  1.2118  0.5144  0.2737
31893SOL     OW 2793   9.903   5.124   7.567  0.0884  0.3686 -1.0375
31893SOL    HW1 2794   9.908   5.037   7.608 -0.3836  0.5651 -0.5592
31893SOL    HW2 2795   9.986   5.165   7.588 -0.6511  0.9647  0.8697
31894SOL     OW 2796   4.145  12.702  10.928 -0.7136 -0.1704  0.6236
31894SOL    HW1 2797   4.122  12.614  10.898  2.1105 -0.8481  0.1449
31894SOL    HW2 2798   4.122  12.759  10.856 -0.9780 -0.7600  0.2298
31895SOL     OW 2799   5.681   9.901   5.321 -0.4713  0.1999 -0.4293
31895SOL    HW1 2800   5.599   9.947   5.306  0.3206  1.6839 -0.4216
31895SOL    HW2 2801   5.749   9.966   5.301  0.7012 -1.0578 -0.6586
31896SOL     OW 2802   2.912  11.295   3.102 -0.4644 -0.4086  0.0215
31896SOL    HW1 2803   2.961  11.366   3.142  0.5024 -1.5635  0.9506
31896SOL    HW2 2804   2.960  11.276   3.021 -0.3787 -0.3930  0.0685
31897SOL     OW 2805   0.061   1.858  11.698  0.0585  0.3817 -0.5270
31897SOL    HW1 2806   0.035   1.910  11.622  0.5902  1.8319  0.2391
31897SOL    HW2 2807   0.131   1.801  11.665  0.0565  0.7578 -1.2066
31898SOL     OW 2808   3.592  10.374   8.583  0.0078 -0.0399  0.3423
31898SOL    HW1 2809   3.659  10.354   8.518  1.5605 -0.9775  2.1367
31898SOL    HW2 2810   3.632  10.352   8.667 -2.5346 -0.6227  1.5149
31899SOL     OW 2811   2.097  11.859   3.944 -0.3953 -0.1271  0.0593
31899SOL    HW1 2812   2.046  11.939   3.955  2.0652  1.6007 -0.4618
31899SOL    HW2 2813   2.040  11.802   3.892 -1.7052  1.8057 -0.7522
31900SOL     OW 2814  11.805   2.319   5.904  0.0438 -0.1399 -0.8172
31900SOL    HW1 2815  11.891   2.299   5.867 -0.0269 -1.4656 -0.3231
31900SOL    HW2 2816  11.749   2.333   5.828 -0.1940 -3.1926 -1.3335
31901SOL     OW 2817   7.917  10.116  11.925  0.0074 -0.5627 -0.2366
31901SOL    HW1 2818   7.976  10.114  12.000  0.0550 -0.4196 -0.2694
31901SOL    HW2 2819   7.856  10.188  11.944 -0.8594 -1.4254  0.3183
31902SOL     OW 2820   8.544   2.701  12.591 -0.7231 -0.4199  0.2556
31902SOL    HW1 2821   8.630   2.739  12.609 -1.8495  2.2814  0.4113
31902SOL    HW2 2822   8.517   2.740  12.508 -2.7082  0.6360  1.3093
31903SOL     OW 2823   9.077   4.168   4.261  0.1671  0.3183 -0.4067
31903SOL    HW1 2824   9.063   4.257   4.295 -0.4502 -0.4138  1.3641
31903SOL    HW2 2825   9.061   4.111   4.336  1.2907 -1.2696 -1.3149
31904SOL     OW 2826  10.574   0.128  12.645  0.4934 -0.1146  0.0080
31904SOL    HW1 2827  10.597   0.042  12.611 -0.1159  0.3207 -1.5976
31904SOL    HW2 2828  10.654   0.180  12.637  1.1157 -0.7358  1.7982
31905SOL     OW 2829   8.431   8.973  12.607  0.2097  0.2585 -0.0110
31905SOL    HW1 2830   8.480   8.896  12.577  1.6974  0.4186  1.7999
31905SOL    HW2 2831   8.380   8.941  12.682  1.5226  1.1701  1.3169
31906SOL     OW 2832   6.829   7.846  12.120  0.6228 -0.0076 -0.1621
31906SOL    HW1 2833   6.831   7.790  12.198  0.7181 -1.3374 -1.0796
31906SOL    HW2 2834   6.842   7.935  12.154  0.1358 -0.4887  1.3805
31907SOL     OW 2835   7.643   9.368   7.259 -0.4123  0.3734 -0.0866
31907SOL    HW1 2836   7.609   9.325   7.338  1.8756  1.1790  1.4257
31907SOL    HW2 2837   7.662   9.295   7.200  2.7806 -0.8911  2.1763
31908SOL     OW 2838  11.360   0.885   5.431 -0.3747 -0.4431  0.7830
31908SOL    HW1 2839  11.450   0.918   5.439 -0.0610 -0.9654 -0.4608
31908SOL    HW2 2840  11.322   0.900   5.518 -0.6950  4.3848  0.0721
31909SOL     OW 2841  12.228   4.074   9.970  0.1361 -0.3107 -0.5512
31909SOL    HW1 2842  12.149   4.069  10.023 -0.1972 -1.0940 -1.1018
31909SOL    HW2 2843  12.265   3.986   9.973  0.8999 -0.0025 -0.4478
31910SOL     OW 2844   8.978  10.476   2.861 -0.2314 -0.7389  0.4387
31910SOL    HW1 2845   8.980  10.392   2.906 -2.4343 -0.5746  0.9477
31910SOL    HW2 2846   8.933  10.535   2.921 -1.4050  0.0261 -1.1176
31911SOL     OW 2847   2.619   4.981   2.102  0.1937  0.6319 -0.0066
31911SOL    HW1 2848   2.544   4.932   2.067  0.0121  1.0594 -0.2229
31911SOL    HW2 2849   2.670   5.005   2.024  1.0879 -0.5044  0.2093
31912SOL     OW 2850   6.472   7.652   0.576 -1.0415  0.1217  0.8445
31912SOL    HW1 2851   6.464   7.703   0.496 -0.5797 -2.2992 -0.8320
31912SOL    HW2 2852   6.393   7.597   0.579 -1.9390  1.3707  3.0352
31913SOL     OW 2853   4.969   3.914   9.881 -0.3943  0.1831  0.4418
31913SOL    HW1 2854   4.960   4.004   9.910  0.1392  0.1916  0.5939
31913SOL    HW2 2855   4.897   3.901   9.819 -0.6535  0.6169  0.6507
31914SOL     OW 2856   0.080   5.418   9.204  0.2918  0.7720  0.3669
31914SOL    HW1 2857   0.101   5.507   9.175 -0.1878  0.9735  0.6208
31914SOL    HW2 2858  -0.010   5.404   9.175  0.9391 -0.3123 -1.2697
31915SOL     OW 2859   6.934   2.814   9.971 -0.9761 -0.2054  0.5831
31915SOL    HW1 2860   6.854   2.859   9.999  0.1112  2.1487  0.0882
31915SOL    HW2 2861   6.954   2.754  10.043 -2.5268  0.0208  1.2410
31916SOL     OW 2862  12.390   2.153   5.183 -0.1616  0.4582 -0.8354
31916SOL    HW1 2863  12.355   2.104   5.257  3.1302 -0.7717  0.0627
31916SOL    HW2 2864  12.431   2.230   5.221  0.1845  0.6352 -1.5358
31917SOL     OW 2865   8.873   4.863   1.233  0.0286  0.5176  0.4398
31917SOL    HW1 2866   8.931   4.792   1.204 -1.0952  0.3841 -1.6414
31917SOL    HW2 2867   8.932   4.929   1.270  1.1719 -1.1108  1.6767
31918SOL     OW 2868  12.851   3.658   4.489  0.6292  0.3336  1.0415
31918SOL    HW1 2869  12.839   3.563   4.501  1.0339  0.0906 -0.2731
31918SOL    HW2 2870  12.911   3.683   4.559  1.8404 -0.7139  0.4296
31919SOL     OW 2871   3.649  11.523   7.446  0.2859 -0.2677  0.5608
31919SOL    HW1 2872   3.583  11.480   7.391  0.4340  0.0500  0.1277
31919SOL    HW2 2873   3.617  11.511   7.535 -0.9930  0.9145  0.2911
31920SOL     OW 2874  10.280   6.517   3.641 -0.3528 -0.4874  0.5285
31920SOL    HW1 2875  10.374   6.531   3.632 -0.6206  0.6544 -0.8961
31920SOL    HW2 2876  10.260   6.447   3.579 -0.5489 -0.2588  0.3339
31921SOL     OW 2877  12.177   8.633   2.861  0.6835 -0.0940 -0.3533
31921SOL    HW1 2878  12.247   8.594   2.913  1.5842  2.0224  0.1645
31921SOL    HW2 2879  12.109   8.655   2.926  0.3488 -0.4344 -0.5816
31922SOL     OW 2880   3.766   8.779   9.586 -0.2103  0.0024 -0.1209
31922SOL    HW1 2881   3.708   8.713   9.625  1.4512 -0.6018  1.4601
31922SOL    HW2 2882   3.769   8.849   9.651  0.1051  0.4435 -0.6139
31923SOL     OW 2883  10.219   0.515   5.187 -0.1223  0.1148 -0.0450
31923SOL    HW1 2884  10.167   0.574   5.242 -0.5163  1.1275 -1.4523
31923SOL    HW2 2885  10.185   0.427   5.206 -0.5672  0.4980  0.9617
31924SOL     OW 2886   5.245   2.518   0.122  0.8166  0.3958  0.3832
31924SOL    HW1 2887   5.317   2.502   0.182  1.3772 -0.3158 -0.4396
31924SOL    HW2 2888   5.214   2.430   0.098  0.9299  0.6474 -0.7321
31925SOL     OW 2889   1.670  12.779   7.185  0.2366  0.1388 -0.3353
31925SOL    HW1 2890   1.655  12.718   7.113  2.4552 -1.4181  0.4450
31925SOL    HW2 2891   1.625  12.740   7.260  0.8795 -0.0822 -0.0570
31926SOL     OW 2892  12.865   4.178  12.192 -0.4333 -1.0155  0.2127
31926SOL    HW1 2893  12.860   4.138  12.279 -1.7537 -1.8162 -0.2012
31926SOL    HW2 2894  12.790   4.238  12.190  0.5929  0.2990  0.2323
31927SOL     OW 2895   9.772  12.208   4.776  0.1022  0.5022  0.1920
31927SOL    HW1 2896   9.791  12.299   4.797  2.1294 -0.0777  1.1712
31927SOL    HW2 2897   9.833  12.158   4.830 -0.5960 -1.4202 -0.7087
31928SOL     OW 2898   6.495   9.259   3.196  0.0119 -0.5083  0.4263
31928SOL    HW1 2899   6.446   9.189   3.240 -0.2528 -0.5318  0.1040
31928SOL    HW2 2900   6.587   9.242   3.218 -0.0585 -0.9139  0.4137
31929SOL     OW 2901   9.308   1.568   3.210 -0.8349 -0.1830  0.1119
31929SOL    HW1 2902   9.227   1.599   3.169 -0.2495  0.8981 -0.2569
31929SOL    HW2 2903   9.328   1.633   3.277  0.4994  0.3831 -0.7806
31930SOL     OW 2904  10.769   5.446   7.935 -0.1331  0.3834  0.3006
31930SOL    HW1 2905  10.844   5.387   7.929 -0.0504  0.5462 -0.3008
31930SOL    HW2 2906  10.806   5.530   7.961  0.1173  0.8861 -1.5825
31931SOL     OW 2907  11.387  11.616   4.893  0.0147 -0.5190  0.0701
31931SOL    HW1 2908  11.452  11.686   4.893 -1.0285  0.5067  1.8252
31931SOL    HW2 2909  11.359  11.610   4.802  0.0399  1.4293 -0.1123
31932SOL     OW 2910  12.686   8.919   9.669  0.2638  0.1826 -0.6729
31932SOL    HW1 2911  12.673   8.842   9.723 -0.1196 -0.4322 -1.6173
31932SOL    HW2 2912  12.605   8.969   9.679  1.4558  1.8059  1.9571
31933SOL     OW 2913   8.910   8.605  12.475  0.2243  0.0499 -0.1626
31933SOL    HW1 2914   8.902   8.630  12.567  0.3580 -1.2127  0.2069
31933SOL    HW2 2915   8.895   8.686  12.426 -1.1168  0.4819  0.9248
31934SOL     OW 2916   2.390  11.706   2.947 -0.5214 -0.1684  0.0627
31934SOL    HW1 2917   2.377  11.630   2.890  0.2829 -0.8589  0.7812
31934SOL    HW2 2918   2.378  11.673   3.036 -0.8669  0.7081  0.3614
31935SOL     OW 2919   6.770   2.003   2.621  0.0449  0.7518 -0.1151
31935SOL    HW1 2920   6.858   1.966   2.631 -0.8190 -1.4050  0.1206
31935SOL    HW2 2921   6.717   1.956   2.685 -1.6477  0.6992 -1.4833
31936SOL     OW 2922   4.103   1.058   0.985  0.4755  0.0065  0.2354
31936SOL    HW1 2923   4.131   1.002   0.913  0.3929 -1.5207  1.3386
31936SOL    HW2 2924   4.137   1.015   1.063  0.7380  1.7278  1.1211
31937SOL     OW 2925   2.530   4.454   7.462  0.2721  0.0641 -0.4302
31937SOL    HW1 2926   2.499   4.517   7.528 -2.1061 -0.0195 -1.3604
31937SOL    HW2 2927   2.529   4.503   7.380  1.5127 -0.3184 -0.6863
31938SOL     OW 2928  12.096   5.664   1.612  0.7430  0.3510  0.3331
31938SOL    HW1 2929  12.043   5.586   1.595  0.6961  0.6907 -1.2638
31938SOL    HW2 2930  12.073   5.690   1.701 -0.7619 -0.2936  0.1654
31939SOL     OW 2931   2.591  12.504  12.085 -0.4440 -0.2162 -0.1466
31939SOL    HW1 2932   2.628  12.522  11.999 -0.3759 -1.3517 -0.3739
31939SOL    HW2 2933   2.497  12.516  12.074 -0.4553 -0.5446 -0.4399
31940SOL     OW 2934   5.292   6.996   9.073 -0.5075 -0.1660 -0.1473
31940SOL    HW1 2935   5.333   7.082   9.072  0.2779 -0.5309 -0.3927
31940SOL    HW2 2936   5.302   6.965   9.163  2.8268 -1.6458 -0.8857
31941SOL     OW 2937   8.670   2.754   7.133  0.2284 -0.7750 -0.6220
31941SOL    HW1 2938   8.755   2.713   7.149  0.8922  0.2029 -1.5022
31941SOL    HW2 2939   8.615   2.724   7.205 -0.0474 -5.0604 -2.3376
31942SOL     OW 2940   5.911   0.180   1.870  0.5290 -0.2315 -0.3452
31942SOL    HW1 2941   5.991   0.214   1.911 -0.5488 -0.7253  2.3147
31942SOL    HW2 2942   5.840   0.225   1.915 -0.7771 -0.5494 -1.9779
31943SOL     OW 2943   4.466  10.542  10.870  0.1240  0.5173 -0.7255
31943SOL    HW1 2944   4.411  10.513  10.942  1.7171  0.3974  0.4965
31943SOL    HW2 2945   4.459  10.471  10.805 -1.7525  0.8825 -0.9911
31944SOL     OW 2946   9.849   0.967   0.376  0.0518 -0.3673 -0.1017
31944SOL    HW1 2947   9.792   1.037   0.406  0.3653  1.0823 -2.5941
31944SOL    HW2 2948   9.933   0.984   0.419 -0.5091 -0.7084  1.1834
31945SOL     OW 2949   7.176   3.609  11.355  0.2491  0.0163  0.6104
31945SOL    HW1 2950   7.171   3.654  11.440 -0.2473 -1.0786  1.1771
31945SOL    HW2 2951   7.270   3.611  11.333  0.5804 -0.8489  1.8431
31946SOL     OW 2952   2.809   8.655  10.715  0.1829  0.4551 -0.2344
31946SOL    HW1 2953   2.859   8.593  10.662 -1.9828  0.0720 -1.9206
31946SOL    HW2 2954   2.846   8.741  10.693 -0.2643  0.2407 -1.9457
31947SOL     OW 2955   8.358   8.635   3.467 -0.2746  0.4109 -0.4428
31947SOL    HW1 2956   8.321   8.596   3.388 -0.2436  0.5089 -0.5063
31947SOL    HW2 2957   8.304   8.600   3.538  0.4147 -0.5866 -0.3855
31948SOL     OW 2958  11.694   0.389   4.136  0.6064 -0.0580  0.4672
31948SOL    HW1 2959  11.695   0.413   4.228  2.3755 -0.4202  0.5710
31948SOL    HW2 2960  11.613   0.427   4.102 -0.4273 -0.5151  2.3065
31949SOL     OW 2961   9.896   1.434   1.729 -0.4628  0.3700 -0.2904
31949SOL    HW1 2962   9.977   1.476   1.755  0.4825 -2.0796  1.0393
31949SOL    HW2 2963   9.860   1.397   1.810 -0.3771 -2.6302 -1.4756
31950SOL     OW 2964   8.042   2.231   0.796  0.3949 -0.0854 -0.2571
31950SOL    HW1 2965   8.009   2.181   0.871  0.3197  0.5103  0.1120
31950SOL    HW2 2966   7.994   2.314   0.799  0.2247 -0.1470 -1.1074
31951SOL     OW 2967   2.317   5.408  12.452  0.1284 -0.6878  0.0531
31951SOL    HW1 2968   2.319   5.491  12.499  1.2184 -0.8708  0.3562
31951SOL    HW2 2969   2.227   5.376  12.464 -0.1478  0.1772  0.3846
31952SOL     OW 2970   8.745   0.123   1.805 -0.3582  0.3780 -0.3065
31952SOL    HW1 2971   8.714   0.056   1.743 -2.3636 -0.0444  1.0509
31952SOL    HW2 2972   8.738   0.081   1.890  0.8379  1.4875  0.3708
31953SOL     OW 2973   2.797  12.042   5.592 -0.3994  0.0053  0.3063
31953SOL    HW1 2974   2.878  12.092   5.593 -1.3050  1.5784  1.8250
31953SOL    HW2 2975   2.730  12.106   5.568 -1.2371 -1.2635 -0.9510
31954SOL     OW 2976   4.082  11.608   6.195 -0.1910 -0.0830  0.5859
31954SOL    HW1 2977   4.110  11.527   6.153 -0.8802  0.4095 -0.8922
31954SOL    HW2 2978   4.161  11.661   6.204  0.0539 -0.4300  0.4606
31955SOL     OW 2979   5.043   3.031   2.848  0.2607 -0.1291 -0.0381
31955SOL    HW1 2980   4.993   2.986   2.779 -0.1816 -1.6009  1.1718
31955SOL    HW2 2981   5.081   2.960   2.900  1.3528  0.9513  0.6904
31956SOL     OW 2982   7.057   6.853   3.475 -0.3045 -0.3381 -0.2870
31956SOL    HW1 2983   7.045   6.916   3.405  0.5174 -0.5080 -0.5824
31956SOL    HW2 2984   7.073   6.770   3.431 -0.9883 -0.6931  0.1000
31957SOL     OW 2985   1.867  10.261   3.696 -0.2530 -0.5936 -0.2742
31957SOL    HW1 2986   1.886  10.355   3.693 -0.2535 -0.5434  0.8471
31957SOL    HW2 2987   1.772  10.255   3.684 -0.3184 -0.4139  0.1488
31958SOL     OW 2988   8.588   1.167   4.716  0.1180  0.3009 -0.2087
31958SOL    HW1 2989   8.548   1.085   4.746  1.3185  0.4464  1.9397
31958SOL    HW2 2990   8.656   1.139   4.655  0.7958 -0.3802  0.8203
31959SOL     OW 2991   7.545  10.453   5.141 -0.3352  0.2727 -0.4773
31959SOL    HW1 2992   7.454  10.426   5.160  0.4790 -1.9939  0.6414
31959SOL    HW2 2993   7.577  10.489   5.224  0.3165 -0.7255 -0.2670
31960SOL     OW 2994   1.023   6.798   3.579 -0.9213  0.3211 -0.2772
31960SOL    HW1 2995   1.002   6.738   3.508  1.1980 -1.5407  0.5576
31960SOL    HW2 2996   1.118   6.798   3.583 -0.9641  0.5500  2.3637
31961SOL     OW 2997   7.761   3.064   3.177 -0.1706  0.1381  0.2347
31961SOL    HW1 2998   7.721   3.108   3.252  1.4357  2.3352 -0.0870
31961SOL    HW2 2999   7.757   3.129   3.106  0.1660 -1.1368 -1.0043
31962SOL     OW 3000   7.462   6.749   7.503  0.3806  0.4871 -0.2455
31962SOL    HW1 3001   7.536   6.688   7.507  0.2290  0.2659 -0.7643
31962SOL    HW2 3002   7.465   6.785   7.415 -1.2449 -0.9583 -0.9489
31963SOL     OW 3003  11.256   5.951   6.367  0.8000 -0.1823 -0.2068
31963SOL    HW1 3004  11.165   5.931   6.343  1.5036 -4.9025  0.1007
31963SOL    HW2 3005  11.305   5.935   6.286  1.6118 -0.5285  0.3503
31964SOL     OW 3006   4.286  11.130   9.548  0.3704 -0.0718 -0.2405
31964SOL    HW1 3007   4.241  11.047   9.533 -1.5556  1.2233 -2.2685
31964SOL    HW2 3008   4.376  11.105   9.571  0.2325 -2.7126 -2.0779
31965SOL     OW 3009   0.554  11.944   6.972  0.7981 -0.1914 -0.0537
31965SOL    HW1 3010   0.548  11.880   7.043 -1.4100 -0.2475 -0.2070
31965SOL    HW2 3011   0.517  11.898   6.896  2.1452  0.2280 -0.9865
31966SOL     OW 3012   8.920   5.682   3.249  0.9721 -0.0729  0.1909
31966SOL    HW1 3013   9.002   5.718   3.283  1.6716  0.5050 -1.9654
31966SOL    HW2 3014   8.947   5.619   3.182 -0.3470  0.2522 -0.6767
31967SOL     OW 3015  11.580   8.280   0.809 -0.3033  0.6171 -0.3611
31967SOL    HW1 3016  11.648   8.347   0.802 -0.3946  0.6309 -1.1865
31967SOL    HW2 3017  11.569   8.247   0.720 -2.9711  2.1654 -0.6883
31968SOL     OW 3018   9.114   4.524   1.998 -0.1212  0.0641  0.0942
31968SOL    HW1 3019   9.143   4.520   2.089 -2.7066 -1.4881  0.9596
31968SOL    HW2 3020   9.082   4.613   1.987 -0.6624  0.0098  1.0551
31969SOL     OW 3021   1.623   3.092   0.124  0.3879 -0.6826  0.0732
31969SOL    HW1 3022   1.718   3.100   0.122  0.2611  1.0454 -1.4677
31969SOL    HW2 3023   1.591   3.182   0.116 -1.3796 -1.2066  0.8225
31970SOL     OW 3024   7.634  12.041   3.456 -0.7254  0.6264  0.0971
31970SOL    HW1 3025   7.703  12.059   3.519 -2.3050  1.0819  1.7866
31970SOL    HW2 3026   7.596  11.958   3.485 -0.6564  0.1748 -1.0476
31971SOL     OW 3027   2.096  11.659   2.174  0.7297  0.5160 -0.0598
31971SOL    HW1 3028   2.019  11.606   2.197  2.4433 -1.2300  2.0900
31971SOL    HW2 3029   2.091  11.734   2.233  0.1778  0.9304 -0.6205
31972SOL     OW 3030   1.009   0.861   7.461  0.0280 -0.0281  0.7126
31972SOL    HW1 3031   0.972   0.947   7.440  0.2248 -0.1140 -0.0227
31972SOL    HW2 3032   0.940   0.816   7.510 -1.2871 -0.5762 -1.5275
31973SOL     OW 3033  12.310   3.486   1.222  0.3298  0.7017  0.1270
31973SOL    HW1 3034  12.333   3.503   1.314 -0.8044 -0.9188  0.7822
31973SOL    HW2 3035  12.338   3.395   1.208  1.0346  1.1289 -1.3378
31974SOL     OW 3036   6.368  11.534  12.187  0.4118 -0.2349  0.4147
31974SOL    HW1 3037   6.304  11.587  12.235 -0.8992 -0.5772 -0.8886
31974SOL    HW2 3038   6.451  11.581  12.198 -0.0999  0.3841  1.8909
31975SOL     OW 3039  11.705   9.109  12.740  0.3770 -0.1389  0.1067
31975SOL    HW1 3040  11.644   9.179  12.715 -0.3076 -0.6574  0.3060
31975SOL    HW2 3041  11.740   9.137  12.825  0.9964  0.5239 -0.3490
31976SOL     OW 3042   6.152   0.261   8.826 -0.9349 -0.6645  0.2511
31976SOL    HW1 3043   6.176   0.348   8.795 -0.1644 -1.1678 -0.6383
31976SOL    HW2 3044   6.171   0.263   8.920 -2.1817  0.5243  0.5012
31977SOL     OW 3045  11.352   5.978   2.421 -0.3303 -0.6083 -0.0950
31977SOL    HW1 3046  11.338   5.974   2.326  0.8948  1.7769 -0.4557
31977SOL    HW2 3047  11.448   5.977   2.431 -0.3897  0.7980  0.9572
31978SOL     OW 3048   4.810   7.816   7.844 -0.3103  0.0482  0.0632
31978SOL    HW1 3049   4.790   7.878   7.773 -1.9444 -0.4854  0.0225
31978SOL    HW2 3050   4.738   7.827   7.906  1.4550  1.0365  2.0728
31979SOL     OW 3051   7.127   8.629  12.439  0.0650  0.1907 -0.5187
31979SOL    HW1 3052   7.104   8.673  12.358 -0.8854  0.2008 -0.2499
31979SOL    HW2 3053   7.222   8.639  12.445 -0.1922  3.1964  0.0932
31980SOL     OW 3054   9.000   9.464   2.263  0.0521  0.3894  0.3789
31980SOL    HW1 3055   8.916   9.507   2.246  0.6560  1.3429 -0.3794
31980SOL    HW2 3056   9.065   9.535   2.255  0.8314 -0.0885  2.1184
31981SOL     OW 3057   2.533   8.832   8.302 -0.3873 -0.7843  0.0157
31981SOL    HW1 3058   2.535   8.927   8.302 -0.7056 -0.7390  1.8851
31981SOL    HW2 3059   2.479   8.809   8.226 -1.4363  0.5707  0.3142
31982SOL     OW 3060   6.340   5.968   0.812  0.0429 -0.6371  0.6087
31982SOL    HW1 3061   6.372   5.942   0.725 -0.2941 -1.2764  0.6665
31982SOL    HW2 3062   6.291   6.048   0.797 -1.7866 -1.8393 -0.1400
31983SOL     OW 3063  10.772   2.809   3.113  0.0940  0.3599 -0.3477
31983SOL    HW1 3064  10.809   2.896   3.097  0.4892  0.5201  1.2825
31983SOL    HW2 3065  10.849   2.751   3.114 -0.2141 -0.1368 -1.9925
31984SOL     OW 3066   9.362   2.779   2.832 -0.4242 -0.4040 -0.0186
31984SOL    HW1 3067   9.390   2.850   2.889 -2.1813  0.8470 -0.5976
31984SOL    HW2 3068   9.302   2.727   2.886 -0.7899 -0.1892 -0.2116
31985SOL     OW 3069   0.154  10.233   7.950  0.2821 -0.4806  0.0679
31985SOL    HW1 3070   0.155  10.262   7.859  0.1534  0.8106  0.4470
31985SOL    HW2 3071   0.068  10.262   7.983  0.7691  0.0853  0.8842
31986SOL     OW 3072   6.591   5.496  12.696 -0.1760 -0.8088 -0.0124
31986SOL    HW1 3073   6.536   5.426  12.732 -1.7044 -1.7842 -3.7568
31986SOL    HW2 3074   6.537   5.574  12.702  0.3656 -0.5133  1.4617
31987SOL     OW 3075   1.624   3.046   3.799  0.2704 -0.2204  0.1662
31987SOL    HW1 3076   1.639   2.952   3.804  0.0603 -0.3841 -1.6644
31987SOL    HW2 3077   1.658   3.080   3.881 -1.4070 -2.1168  1.7517
31988SOL     OW 3078   9.833   4.582   7.841  0.1719 -0.1171 -0.3895
31988SOL    HW1 3079   9.864   4.666   7.875  1.2264  0.2287 -2.1287
31988SOL    HW2 3080   9.886   4.517   7.887 -1.0038  0.0682  1.3535
31989SOL     OW 3081  10.693   1.098   9.775 -0.0201 -0.1272 -0.2684
31989SOL    HW1 3082  10.766   1.160   9.765 -1.9213  2.1137 -1.0631
31989SOL    HW2 3083  10.662   1.083   9.685 -1.4772  0.1778  0.1616
31990SOL     OW 3084  12.632   8.250   2.921 -0.6470  0.1054  0.0133
31990SOL    HW1 3085  12.611   8.182   2.856  0.9911  1.3182 -1.9278
31990SOL    HW2 3086  12.709   8.216   2.967 -0.3255  0.2823 -0.3878
31991SOL     OW 3087   0.563   1.573   4.148  0.0507 -0.5469 -0.3020
31991SOL    HW1 3088   0.512   1.501   4.186 -0.9326  0.4017  0.2518
31991SOL    HW2 3089   0.499   1.624   4.098  0.7889 -0.2162 -0.9266
31992SOL     OW 3090   8.856  11.065   0.620 -0.4155 -0.0053  0.2361
31992SOL    HW1 3091   8.891  11.149   0.591 -0.2721  0.9509  2.8578
31992SOL    HW2 3092   8.926  11.002   0.602 -0.5729  0.3672 -1.8742
31993SOL     OW 3093   1.420   6.237   5.048  0.4780  0.3817  0.4733
31993SOL    HW1 3094   1.495   6.186   5.078  0.1817  0.6480  1.7234
31993SOL    HW2 3095   1.343   6.186   5.076  0.1618 -0.0093 -0.9948
31994SOL     OW 3096  11.226   2.758   8.993  0.4834  0.2482  0.6270
31994SOL    HW1 3097  11.311   2.798   8.973  0.6259 -0.0970  0.5158
31994SOL    HW2 3098  11.248   2.687   9.054  0.2133  0.4606  0.9690
31995SOL     OW 3099  10.576   2.131   0.407  0.1433 -0.1893 -0.2683
31995SOL    HW1 3100  10.646   2.073   0.438  0.1862 -0.5082 -0.9556
31995SOL    HW2 3101  10.496   2.080   0.417  0.0392  0.0505  0.1878
31996SOL     OW 3102   3.330   2.317   2.535  0.1781 -0.3884 -0.3604
31996SOL    HW1 3103   3.403   2.257   2.549  1.5318  1.2910  0.0509
31996SOL    HW2 3104   3.253   2.261   2.537  1.5246 -2.5394 -2.8649
31997SOL     OW 3105   1.951   8.972   4.658  0.0784 -0.2594  0.1236
31997SOL    HW1 3106   1.906   8.993   4.740 -0.3057  0.7194 -0.3146
31997SOL    HW2 3107   1.960   8.877   4.659 -0.9960 -0.3779  0.7423
31998SOL     OW 3108   0.513   1.201  12.691  0.2807 -0.0784 -0.0213
31998SOL    HW1 3109   0.570   1.141  12.740  1.2835  0.5798 -0.3363
31998SOL    HW2 3110   0.430   1.154  12.684  0.6946 -0.9708  0.6787
31999SOL     OW 3111   9.575  11.602   7.078 -0.3913 -0.0166 -0.1318
31999SOL    HW1 3112   9.613  11.684   7.110 -0.8006 -0.9918  3.2732
31999SOL    HW2 3113   9.484  11.605   7.107 -0.6602 -1.2560 -0.7904
32000SOL     OW 3114  12.177   9.692  10.495 -0.6204 -0.4087 -0.1589
32000SOL    HW1 3115  12.090   9.698  10.456 -1.1230  2.2415  1.0831
32000SOL    HW2 3116  12.227   9.761  10.451  0.4017 -0.9470  0.1535
32001SOL     OW 3117   7.778  12.433   1.978  0.2203  0.1912 -0.1954
32001SOL    HW1 3118   7.848  12.477   1.931 -0.3746  0.6146 -0.6916
32001SOL    HW2 3119   7.799  12.340   1.971 -0.1837  0.2019 -1.8442
32002SOL     OW 3120  11.799   0.214   0.551 -0.2827  0.0144  0.0266
32002SOL    HW1 3121  11.840   0.131   0.526 -0.7834 -0.6484  1.2869
32002SOL    HW2 3122  11.788   0.261   0.468  1.7588 -0.3400 -0.4899
32003SOL     OW 3123   3.027   7.484   8.626 -0.2129 -0.6804 -0.7650
32003SOL    HW1 3124   3.113   7.442   8.636 -0.7157 -1.1617  3.8700
32003SOL    HW2 3125   3.040   7.573   8.660 -1.4122 -0.5908 -0.5047
32004SOL     OW 3126  12.674   2.849   4.150 -0.5260 -0.0811  0.2338
32004SOL    HW1 3127  12.761   2.842   4.188 -0.2626  1.9110  0.1219
32004SOL    HW2 3128  12.614   2.843   4.224 -0.2979 -1.0317  0.3576
32005SOL     OW 3129  12.011   5.480   9.877  0.4538  0.7506  0.4771
32005SOL    HW1 3130  11.986   5.560   9.922  1.2615  0.4296  1.5446
32005SOL    HW2 3131  12.083   5.506   9.819  0.6742  0.8038  0.7778
32006SOL     OW 3132   1.711  12.452   4.166  0.2381  0.0959 -0.0863
32006SOL    HW1 3133   1.703  12.521   4.100 -1.1607  3.2811  3.0770
32006SOL    HW2 3134   1.632  12.399   4.155  1.1314 -0.9207 -2.2911
32007SOL     OW 3135  11.988   2.396   9.983 -0.0179  0.2558  0.2500
32007SOL    HW1 3136  12.052   2.325   9.974 -0.6355 -0.2358 -0.3511
32007SOL    HW2 3137  11.904   2.355   9.962 -0.3004  1.3211 -0.8143
32008SOL     OW 3138   1.992   9.040   1.088 -0.3939  0.1297  0.4368
32008SOL    HW1 3139   1.915   9.009   1.137  0.0488  0.7609  1.5699
32008SOL    HW2 3140   2.065   8.992   1.127 -0.2322 -0.7537 -0.8962
32009SOL     OW 3141   0.035  12.307  10.749  0.2787  0.3912  0.2104
32009SOL    HW1 3142   0.039  12.286  10.656  0.3676  0.5896  0.1700
32009SOL    HW2 3143  -0.014  12.389  10.753  0.1379  0.3020  0.3511
32010SOL     OW 3144   1.735   9.531   5.579  0.0723 -0.2459  0.4767
32010SOL    HW1 3145   1.646   9.506   5.603 -0.3186  0.5814 -0.0742
32010SOL    HW2 3146   1.762   9.592   5.648  0.8146 -1.6914  1.5084
32011SOL     OW 3147   0.223  11.221   4.414 -0.0556  0.1888  0.3325
32011SOL    HW1 3148   0.193  11.229   4.324  0.7870  0.5005  0.0738
32011SOL    HW2 3149   0.228  11.126   4.430  1.1256  0.1084 -0.4101
32012SOL     OW 3150  12.072   7.423   5.293  0.7168  0.0877 -0.2938
32012SOL    HW1 3151  12.112   7.363   5.231  1.5890  0.0912  0.2512
32012SOL    HW2 3152  12.126   7.416   5.371 -0.0281  0.5128  0.2662
32013SOL     OW 3153   2.776   6.912   1.717  0.2248 -0.2695  1.0665
32013SOL    HW1 3154   2.701   6.960   1.753  0.4204 -0.9461  2.4440
32013SOL    HW2 3155   2.791   6.952   1.631 -1.1478  0.4717  1.1430
32014SOL     OW 3156   9.523  11.933   6.163 -0.0416  0.2338  0.0949
32014SOL    HW1 3157   9.459  11.965   6.100  0.1251  0.3293 -0.0266
32014SOL    HW2 3158   9.503  11.840   6.172 -0.8469  0.4718  0.8325
32015SOL     OW 3159   2.665   6.130   0.489 -0.0980  0.7176 -0.4749
32015SOL    HW1 3160   2.621   6.183   0.423  0.9199  1.5884 -0.4859
32015SOL    HW2 3161   2.607   6.055   0.502  0.3692 -0.2879 -3.4561
32016SOL     OW 3162   4.620   8.917   6.589 -0.2905  0.0458 -0.0415
32016SOL    HW1 3163   4.572   8.933   6.670 -0.7421  1.4152 -0.5533
32016SOL    HW2 3164   4.672   8.839   6.607  0.8804  1.2519  2.1243
32017SOL     OW 3165   5.884   1.089   4.210  0.6953 -0.3642 -0.6122
32017SOL    HW1 3166   5.938   1.016   4.239  0.4957 -1.1578 -2.1353
32017SOL    HW2 3167   5.887   1.151   4.283  0.8640 -1.8729  0.7262
32018SOL     OW 3168  10.478   5.765   0.722  0.4791  0.4923 -0.2613
32018SOL    HW1 3169  10.486   5.789   0.815 -0.0146  2.1330 -0.6110
32018SOL    HW2 3170  10.521   5.836   0.675  0.3063 -0.0906 -1.3301
32019SOL     OW 3171  11.029  12.826  11.186 -0.7765 -0.1366 -0.1951
32019SOL    HW1 3172  11.048  12.770  11.261 -0.8474 -1.2918 -1.0083
32019SOL    HW2 3173  10.954  12.783  11.143  0.8700 -0.9900 -2.3806
32020SOL     OW 3174  12.501   7.417  12.396  0.2990 -0.1950  0.6443
32020SOL    HW1 3175  12.473   7.461  12.316 -0.1254  1.0088  1.4222
32020SOL    HW2 3176  12.564   7.477  12.435 -0.3059 -0.2514  1.7426
32021SOL     OW 3177  10.709   7.730   2.321  0.3882 -0.1569  0.3066
32021SOL    HW1 3178  10.638   7.731   2.385 -1.4389  2.5213 -1.5103
32021SOL    HW2 3179  10.726   7.822   2.303  3.3469 -0.7544 -0.4588
32022SOL     OW 3180  12.193   9.215  12.882 -0.0925  0.0843  0.0584
32022SOL    HW1 3181  12.200   9.205  12.977 -0.6271 -0.5669  0.0347
32022SOL    HW2 3182  12.270   9.170  12.847 -0.4433 -0.5851  0.1389
32023SOL     OW 3183   3.657   0.523   9.179 -0.2488  0.1220 -0.2485
32023SOL    HW1 3184   3.609   0.542   9.099  0.7045 -1.7472 -1.3361
32023SOL    HW2 3185   3.593   0.534   9.249 -1.7112 -0.3699 -1.4672
32024SOL     OW 3186   9.142   4.453   6.963 -0.1637  0.0086  0.0688
32024SOL    HW1 3187   9.082   4.482   6.894  1.7552  1.2984 -1.1551
32024SOL    HW2 3188   9.229   4.462   6.924  1.0916  1.7128  2.9722
32025SOL     OW 3189  12.235   8.143   7.210  0.6132  0.6842  0.5734
32025SOL    HW1 3190  12.200   8.166   7.296  1.1034  1.0719  0.6733
32025SOL    HW2 3191  12.187   8.199   7.148 -0.7934 -0.6218  0.4154
32026SOL     OW 3192   3.178   1.025   3.432  0.0099 -0.0319  0.5965
32026SOL    HW1 3193   3.097   1.074   3.427  1.0808  1.8527  0.9427
32026SOL    HW2 3194   3.162   0.947   3.378 -1.4720  1.0746 -0.6481
32027SOL     OW 3195  10.557   8.713   2.548  0.3906  0.1141  0.0900
32027SOL    HW1 3196  10.513   8.756   2.475  1.5981  2.1105  0.4816
32027SOL    HW2 3197  10.495   8.722   2.621  0.3612  0.6018  0.0065
32028SOL     OW 3198   0.469   8.228   7.087  0.8817  0.3114  0.3196
32028SOL    HW1 3199   0.524   8.229   7.008  0.0333  2.7153 -0.3387
32028SOL    HW2 3200   0.525   8.261   7.156  0.6095  1.7526 -0.1226
32029SOL     OW 3201  11.777   6.767   9.398 -0.0519  0.0939 -0.4727
32029SOL    HW1 3202  11.693   6.730   9.370  0.3607 -2.0147  0.9079
32029SOL    HW2 3203  11.753   6.845   9.449 -1.1479 -0.3253 -0.3180
32030SOL     OW 3204  11.644   7.355   3.978  0.1492  0.3664  0.0698
32030SOL    HW1 3205  11.612   7.303   3.904 -0.2252  1.7304 -0.7727
32030SOL    HW2 3206  11.730   7.385   3.949  0.7565 -0.4826  0.9213
32031SOL     OW 3207   8.026   3.140  12.426 -0.4568  0.2291 -0.0449
32031SOL    HW1 3208   8.113   3.144  12.464  0.7990  0.3890 -2.6804
32031SOL    HW2 3209   8.032   3.071  12.359 -2.7874 -0.7499  0.6549
32032SOL     OW 3210   5.623   6.666   0.440 -0.5305 -0.3647  0.7188
32032SOL    HW1 3211   5.663   6.733   0.385 -1.0213  0.3397  1.1947
32032SOL    HW2 3212   5.667   6.585   0.416 -2.0493 -0.4844 -2.1574
32033SOL     OW 3213   7.978  10.732   5.364 -0.2650  0.3871  0.1250
32033SOL    HW1 3214   7.962  10.805   5.304 -1.8535  0.7149  0.8985
32033SOL    HW2 3215   8.010  10.774   5.444 -3.4888  0.5834  1.4512
32034SOL     OW 3216   7.358   7.652   2.315 -0.3171 -0.7455 -0.0428
32034SOL    HW1 3217   7.295   7.590   2.352  0.1434 -0.9843  0.3486
32034SOL    HW2 3218   7.347   7.732   2.367  0.1948 -1.0177  0.4774
32035SOL     OW 3219   0.845  11.982   9.404 -0.6944 -0.1279  0.5846
32035SOL    HW1 3220   0.914  12.024   9.456 -0.1183  0.3583 -0.5350
32035SOL    HW2 3221   0.881  11.898   9.378 -0.3408  0.2974 -0.3442
32036SOL     OW 3222  12.454  12.941   9.305  0.0996  0.2690 -0.4658
32036SOL    HW1 3223  12.493  12.855   9.286 -0.1714  0.2376 -0.8864
32036SOL    HW2 3224  12.457  12.988   9.221 -1.8512 -0.1679 -0.8276
32037SOL     OW 3225   5.496   7.264  12.474  1.0163  0.3182 -0.1753
32037SOL    HW1 3226   5.426   7.318  12.436  1.2019 -0.1758 -1.2609
32037SOL    HW2 3227   5.484   7.178  12.434  2.8663  0.4782 -1.2017
32038SOL     OW 3228   8.009   0.644   9.976  0.2531 -1.2648 -0.0940
32038SOL    HW1 3229   7.989   0.654   9.883  0.2347 -1.6912 -0.1346
32038SOL    HW2 3230   8.065   0.567   9.980 -0.3094 -1.6544  0.3260
32039SOL     OW 3231  11.502   8.779   6.216  0.0495  0.2487 -0.4172
32039SOL    HW1 3232  11.492   8.819   6.130  0.0380  1.3292  0.0783
32039SOL    HW2 3233  11.453   8.835   6.276 -0.3378 -0.7545  0.2281
32040SOL     OW 3234   2.030   8.095  12.278  0.1565 -0.4107  1.0284
32040SOL    HW1 3235   1.969   8.140  12.220  1.5534  1.9500  1.2274
32040SOL    HW2 3236   2.102   8.068  12.221 -0.7177 -2.6293  0.8919
32041SOL     OW 3237  12.441   6.294   6.516 -0.1915  0.6562 -0.1098
32041SOL    HW1 3238  12.483   6.329   6.437 -1.8370  0.2355 -1.2119
32041SOL    HW2 3239  12.502   6.228   6.547 -0.3284 -0.5037 -2.1217
32042SOL     OW 3240   3.936   9.513  12.477 -0.3264  0.4064 -0.5259
32042SOL    HW1 3241   3.983   9.530  12.396  0.9777  0.7202  0.2550
32042SOL    HW2 3242   3.998   9.540  12.546 -1.4737  0.3453  0.5564
32043SOL     OW 3243  12.944   7.040   3.388 -0.5975  0.4582  0.6574
32043SOL    HW1 3244  12.981   6.997   3.465  0.7322  0.0128 -0.2091
32043SOL    HW2 3245  13.001   7.115   3.372  0.1458 -0.3912 -0.8592
32044SOL     OW 3246  12.370   2.166   8.608  0.3654 -0.1740 -0.2309
32044SOL    HW1 3247  12.426   2.115   8.550 -0.6328 -0.7114 -0.7375
32044SOL    HW2 3248  12.285   2.170   8.563 -0.2284 -0.0206  0.8635
32045SOL     OW 3249   1.254   2.056   6.010 -0.1456 -0.1371  0.2683
32045SOL    HW1 3250   1.315   2.053   5.936  0.9122 -0.4614  1.1160
32045SOL    HW2 3251   1.184   1.995   5.985  0.1653 -0.2079 -0.4762
32046SOL     OW 3252   5.736   4.620  11.278 -0.1164 -0.3120 -0.1345
32046SOL    HW1 3253   5.747   4.545  11.220 -0.2357 -1.0150  0.7440
32046SOL    HW2 3254   5.782   4.691  11.233 -1.1452 -0.5376 -1.6434
32047SOL     OW 3255   9.202   9.529   6.379 -0.1542  0.0248 -0.2617
32047SOL    HW1 3256   9.294   9.555   6.370 -0.2398  0.7772  0.8093
32047SOL    HW2 3257   9.164   9.546   6.293  0.3676  1.1465 -0.2898
32048SOL     OW 3258   9.340  11.345   7.058 -0.0873  0.0942 -0.5401
32048SOL    HW1 3259   9.269  11.312   7.004  0.4662 -0.2195 -1.0820
32048SOL    HW2 3260   9.297  11.405   7.120 -0.9689 -0.8900 -0.1630
32049SOL     OW 3261  11.332   7.233   0.927 -0.3478  0.1940 -0.7877
32049SOL    HW1 3262  11.353   7.228   0.833  0.1291  0.1016 -0.6766
32049SOL    HW2 3263  11.245   7.273   0.929  0.3724  1.8577 -1.1962
32050SOL     OW 3264  10.939   2.118   3.243 -0.0615  0.3876  0.3179
32050SOL    HW1 3265  10.979   2.063   3.176  3.3582  0.9632  1.6768
32050SOL    HW2 3266  10.969   2.080   3.326 -1.6875  1.4392  1.4523
32051SOL     OW 3267  12.318  11.108   5.350  0.4084  0.0757  0.7013
32051SOL    HW1 3268  12.282  11.021   5.368  2.4962 -1.4415 -1.8496
32051SOL    HW2 3269  12.255  11.149   5.291  0.5997 -0.7356 -0.0838
32052SOL     OW 3270   2.945   5.156  11.174  0.1857  0.3638  0.1350
32052SOL    HW1 3271   2.891   5.078  11.185 -0.0880  0.4976 -0.2176
32052SOL    HW2 3272   2.935   5.204  11.256  1.0752 -0.4031  0.7135
32053SOL     OW 3273   4.935   0.971  11.768 -0.3045  0.1425  0.2136
32053SOL    HW1 3274   4.974   1.048  11.726 -0.9377 -0.6428 -1.9953
32053SOL    HW2 3275   4.993   0.899  11.743 -0.6254 -0.3363  0.8397
32054SOL     OW 3276   9.196   8.807  10.407 -0.6004 -0.6472  0.0936
32054SOL    HW1 3277   9.260   8.757  10.356 -1.4588 -1.0881 -0.5857
32054SOL    HW2 3278   9.181   8.753  10.485 -1.8316 -1.7109 -0.8305
32055SOL     OW 3279   6.620   0.766   4.871 -0.4558 -0.5431  0.1364
32055SOL    HW1 3280   6.602   0.851   4.831 -1.0036 -1.4758 -1.7075
32055SOL    HW2 3281   6.613   0.782   4.965  0.2037  1.5977 -0.1233
32056SOL     OW 3282  10.149   4.102   7.033 -0.2649 -0.3081 -0.5874
32056SOL    HW1 3283  10.219   4.166   7.030  0.7380 -1.3234  0.2389
32056SOL    HW2 3284  10.172   4.038   6.965 -0.9512 -0.1279 -1.0120
32057SOL     OW 3285   7.478   5.377   1.625  0.1446 -0.7340  0.1328
32057SOL    HW1 3286   7.409   5.436   1.655  0.3022 -1.3196  1.7288
32057SOL    HW2 3287   7.434   5.294   1.610  0.3837 -0.9269  0.4923
32058SOL     OW 3288  11.019  12.448  11.805 -0.5338 -0.4047  0.2925
32058SOL    HW1 3289  11.073  12.369  11.808 -0.2571 -0.1776  1.9003
32058SOL    HW2 3290  10.981  12.454  11.892 -1.0379  0.9124 -0.0026
32059SOL     OW 3291   5.000   8.427   5.316  0.2791 -0.0213  0.1459
32059SOL    HW1 3292   5.061   8.369   5.362 -0.6138 -0.7575  0.4272
32059SOL    HW2 3293   5.021   8.514   5.350  0.0517 -0.4733  1.5176
32060SOL     OW 3294  11.179   3.841   0.097 -0.1009 -0.1787 -0.3304
32060SOL    HW1 3295  11.134   3.858   0.014 -1.5531 -1.5467  0.1208
32060SOL    HW2 3296  11.242   3.913   0.105 -0.9825  0.8359 -1.8710
32061SOL     OW 3297  12.320   2.479   2.964 -0.1734 -0.1777  0.8086
32061SOL    HW1 3298  12.406   2.520   2.971  0.0596 -0.7792  1.5484
32061SOL    HW2 3299  12.339   2.388   2.941 -0.6403 -0.1582  0.3352
32062SOL     OW 3300  11.540  11.755   0.083 -0.3512 -0.2162 -0.6327
32062SOL    HW1 3301  11.507  11.746   0.172 -0.8792 -0.1114 -0.8166
32062SOL    HW2 3302  11.635  11.742   0.092 -0.1361  1.5914  0.2179
32063SOL     OW 3303  10.489   0.440  11.437 -0.5550  0.5994  0.0336
32063SOL    HW1 3304  10.472   0.346  11.439  1.9509  0.0388  2.6408
32063SOL    HW2 3305  10.404   0.481  11.449 -1.3765 -1.4970  2.0887
32064SOL     OW 3306  12.449  12.128  12.328  0.5609 -0.6067  0.6139
32064SOL    HW1 3307  12.456  12.111  12.234 -0.4459  0.3417  0.3492
32064SOL    HW2 3308  12.531  12.172  12.351 -0.9669  3.4566 -0.8415
32065SOL     OW 3309  11.247   7.870  12.239  0.0310 -0.7510  0.3762
32065SOL    HW1 3310  11.325   7.923  12.250 -0.6240  0.4931 -0.7217
32065SOL    HW2 3311  11.274   7.782  12.266  1.4930 -0.1415  1.0150
32066SOL     OW 3312  12.646  11.804   5.351 -0.1229  0.1291 -0.4219
32066SOL    HW1 3313  12.693  11.779   5.272 -0.1550  2.0414 -1.0768
32066SOL    HW2 3314  12.565  11.753   5.347  1.0779 -1.9054 -0.1393
32067SOL     OW 3315  12.354   5.860   7.763  0.3113  0.1995 -0.3510
32067SOL    HW1 3316  12.360   5.891   7.854  0.7254 -0.4928 -0.1370
32067SOL    HW2 3317  12.409   5.922   7.714  3.1802 -1.5143  0.4352
32068SOL     OW 3318   2.107   7.100   8.901 -0.7619 -0.3876  0.4349
32068SOL    HW1 3319   2.202   7.111   8.903 -0.8200  0.7049 -1.0752
32068SOL    HW2 3320   2.091   7.022   8.955  0.9941 -0.7128  0.5551
32069SOL     OW 3321   0.144   7.369   0.383  0.2437 -0.0674 -0.5420
32069SOL    HW1 3322   0.211   7.301   0.381  0.4630  0.1578 -0.7821
32069SOL    HW2 3323   0.089   7.350   0.306  1.2206  0.9546 -1.5319
32070SOL     OW 3324   5.462  10.500   8.652  0.5348  0.2829 -0.8026
32070SOL    HW1 3325   5.530  10.550   8.698  0.0420 -0.1084  0.3914
32070SOL    HW2 3326   5.511  10.433   8.603  1.0113 -0.0040  0.0529
32071SOL     OW 3327   9.204   5.473  10.210  0.1096  0.0985 -0.0235
32071SOL    HW1 3328   9.218   5.380  10.192  0.6802 -0.0107  0.9239
32071SOL    HW2 3329   9.291   5.511  10.211 -0.1431  0.7200 -0.7179
32072SOL     OW 3330   3.670   0.288   8.424  0.3364 -0.3021 -0.6108
32072SOL    HW1 3331   3.734   0.351   8.457 -1.8117  1.1108  1.1575
32072SOL    HW2 3332   3.598   0.291   8.487 -1.6728 -1.4911 -2.6730
32073SOL     OW 3333   6.119   4.543   0.768  0.0140 -0.1071  0.0710
32073SOL    HW1 3334   6.076   4.485   0.832 -1.7753  0.8854 -0.1514
32073SOL    HW2 3335   6.195   4.578   0.814  0.2659 -1.4540  0.7222
32074SOL     OW 3336   5.544   3.217   6.555 -0.0613 -0.0004  0.1581
32074SOL    HW1 3337   5.609   3.223   6.625  0.3313  0.4645 -0.2363
32074SOL    HW2 3338   5.506   3.130   6.564 -0.6444  0.3747  1.5028
32075SOL     OW 3339   4.956   6.184  11.591  0.3485 -0.7813  1.0850
32075SOL    HW1 3340   4.938   6.103  11.640  0.4034 -0.8688  0.9619
32075SOL    HW2 3341   5.022   6.230  11.643  1.4516 -1.5262  0.4193
32076SOL     OW 3342   2.231  10.277   6.486  0.1850 -0.4508 -1.1579
32076SOL    HW1 3343   2.196  10.189   6.498 -0.4570  0.2163  3.6335
32076SOL    HW2 3344   2.155  10.334   6.488  0.8284  0.4238  0.1219
32077SOL     OW 3345  11.911  10.033   4.611 -0.1995 -0.2360 -0.7378
32077SOL    HW1 3346  11.890  10.122   4.638  1.1742 -0.3497  0.8469
32077SOL    HW2 3347  11.953  10.044   4.525  2.1368  0.9683  0.4456
32078SOL     OW 3348   5.390   6.555   0.510 -0.0075  0.3381 -0.5910
32078SOL    HW1 3349   5.468   6.603   0.482  0.7917 -0.7516 -0.2621
32078SOL    HW2 3350   5.403   6.466   0.478 -0.5359 -0.1675  0.5395
32079SOL     OW 3351   9.459   3.438   5.684 -0.4693 -0.1313 -0.8659
32079SOL    HW1 3352   9.400   3.369   5.714 -0.5968  0.8354  1.3519
32079SOL    HW2 3353   9.404   3.517   5.681  0.4534  0.6033  0.3575
32080SOL     OW 3354   8.253   1.066   6.771  0.1578  0.3915  0.0888
32080SOL    HW1 3355   8.182   1.119   6.808  0.7561  1.8698 -0.7757
32080SOL    HW2 3356   8.209   1.005   6.712 -0.7074 -1.2942  2.3248
32081SOL     OW 3357   6.502   2.440   3.041  0.2453 -0.7483 -0.3950
32081SOL    HW1 3358   6.483   2.427   3.134  1.6623 -1.8037 -0.2170
32081SOL    HW2 3359   6.442   2.380   2.997  1.6780 -2.6170  0.0502
32082SOL     OW 3360  11.280   9.193   0.873 -0.1507  0.6164 -0.2959
32082SOL    HW1 3361  11.277   9.233   0.786 -0.0600  1.4865  0.0951
32082SOL    HW2 3362  11.282   9.099   0.856  1.0684  0.7986 -1.2584
32083SOL     OW 3363  12.604   6.949   2.101 -0.0359  0.2769  0.2723
32083SOL    HW1 3364  12.589   6.863   2.141 -0.9464  1.4475  2.6717
32083SOL    HW2 3365  12.517   6.990   2.100  0.6258  1.7255  0.6173
32084SOL     OW 3366   2.834  11.281   4.459 -0.1341 -0.0234 -0.1224
32084SOL    HW1 3367   2.892  11.280   4.383  0.1675  1.2392  0.0576
32084SOL    HW2 3368   2.808  11.373   4.467 -0.7345 -0.2676  0.8737
32085SOL     OW 3369   2.787  11.072   6.592  0.6599 -0.0591  1.3625
32085SOL    HW1 3370   2.879  11.093   6.575 -0.3779  3.6854 -0.8063
32085SOL    HW2 3371   2.754  11.039   6.509 -0.1009 -0.8442  1.9645
32086SOL     OW 3372   5.089   2.735   0.685  0.2827 -0.3927  0.3477
32086SOL    HW1 3373   5.039   2.766   0.760 -0.8342 -0.5052 -0.3257
32086SOL    HW2 3374   5.093   2.810   0.626  0.9161 -0.3841  0.4028
32087SOL     OW 3375   7.703  12.858   9.213 -0.0716 -0.2235 -0.2716
32087SOL    HW1 3376   7.689  12.948   9.184 -0.7406 -0.8057 -1.8608
32087SOL    HW2 3377   7.632  12.808   9.173 -0.3572 -1.3107  1.4716
32088SOL     OW 3378   3.537   4.778   3.914 -0.0806 -0.0270  0.1125
32088SOL    HW1 3379   3.532   4.690   3.951  0.8929 -0.8748 -1.6602
32088SOL    HW2 3380   3.477   4.777   3.839  3.1155 -0.7366 -2.7042
32089SOL     OW 3381  10.977  12.657  10.853 -0.0787 -0.2535 -0.3674
32089SOL    HW1 3382  10.946  12.572  10.819  1.2681 -0.2260 -1.7978
32089SOL    HW2 3383  10.937  12.664  10.940  0.8925 -3.0233  0.4168
32090SOL     OW 3384  12.024   1.839   2.851 -0.2117  0.0163 -0.3030
32090SOL    HW1 3385  12.079   1.828   2.928  1.0288  0.0402 -1.1598
32090SOL    HW2 3386  11.966   1.912   2.873  0.7772  0.6631  0.2390
32091SOL     OW 3387   9.010   3.979   3.606 -0.0636 -0.4512 -0.3594
32091SOL    HW1 3388   8.965   4.043   3.550  0.8547  0.2944 -0.2804
32091SOL    HW2 3389   8.967   3.988   3.691  0.8503  0.9722 -0.0155
32092SOL     OW 3390  12.033   7.858   5.912  0.0454  0.1831  0.1299
32092SOL    HW1 3391  12.084   7.939   5.911 -0.8354  0.7515  0.3382
32092SOL    HW2 3392  12.097   7.790   5.933  0.7146  0.8890  0.4307
32093SOL     OW 3393   7.372   8.594   5.848  0.7384 -0.2580  0.1326
32093SOL    HW1 3394   7.423   8.669   5.819  0.5898  0.2546  1.1821
32093SOL    HW2 3395   7.436   8.531   5.880  0.7415  0.2811  1.2103
32094SOL     OW 3396   1.057  10.820   2.320 -0.0967  0.0123  0.2349
32094SOL    HW1 3397   1.131  10.781   2.272 -0.2617  0.6776 -0.5858
32094SOL    HW2 3398   1.034  10.898   2.269 -0.5095  0.5508  1.2140
32095SOL     OW 3399  12.425  11.897  11.595  0.0741  0.1537  0.3108
32095SOL    HW1 3400  12.355  11.933  11.649  0.8331  1.1198  0.6803
32095SOL    HW2 3401  12.505  11.938  11.629  0.8332 -0.9881 -0.0386
32096SOL     OW 3402   9.798   3.927   5.954  0.0253  0.1491 -0.0675
32096SOL    HW1 3403   9.712   3.897   5.925 -0.2604 -0.2366  1.0802
32096SOL    HW2 3404   9.850   3.936   5.874 -0.8507 -0.3673 -0.7065
32097SOL     OW 3405   2.853   8.903   4.485  0.6083 -0.4256  0.1163
32097SOL    HW1 3406   2.872   8.992   4.456  1.0765 -0.7901 -0.7373
32097SOL    HW2 3407   2.813   8.861   4.408 -1.2818 -0.4486  1.0459
32098SOL     OW 3408   8.505  12.131  10.736  0.1346 -0.6386 -0.1962
32098SOL    HW1 3409   8.412  12.114  10.752 -0.9349  4.0392 -0.0727
32098SOL    HW2 3410   8.540  12.157  10.821  1.4102 -1.4686 -0.4242
32099SOL     OW 3411   5.206   5.822   3.125  0.4633  0.1063  0.7510
32099SOL    HW1 3412   5.177   5.805   3.035  0.3988 -1.0605  0.9755
32099SOL    HW2 3413   5.128   5.856   3.169  0.5654  0.9359  0.3129
32100SOL     OW 3414   9.978   3.979   1.718 -0.2902 -0.5692  0.3808
32100SOL    HW1 3415  10.051   4.030   1.754 -1.8996  2.0234  0.2676
32100SOL    HW2 3416   9.935   4.039   1.657 -2.0853 -2.2425 -0.0854
32101SOL     OW 3417  11.933   7.831   9.558 -0.1306  0.5562 -0.5621
32101SOL    HW1 3418  11.865   7.787   9.608 -0.1650 -0.4008 -1.4312
32101SOL    HW2 3419  11.916   7.924   9.571 -1.2188  0.3208 -0.2560
32102SOL     OW 3420   4.345  12.421   4.461  0.4352  0.6725 -0.0800
32102SOL    HW1 3421   4.422  12.469   4.492  0.3121 -0.1053  1.5394
32102SOL    HW2 3422   4.377  12.332   4.444  0.5861  1.1627 -2.7052
32103SOL     OW 3423   0.989   6.116   7.132  0.3360  0.1168 -0.9786
32103SOL    HW1 3424   0.910   6.169   7.126  1.0488  1.2504 -0.5327
32103SOL    HW2 3425   1.021   6.109   7.042 -1.1776 -1.8302 -1.4470
32104SOL     OW 3426   2.066   7.338  11.516  0.4439 -0.2740  0.2471
32104SOL    HW1 3427   2.001   7.276  11.482 -0.3805 -0.1589  1.5823
32104SOL    HW2 3428   2.018   7.419  11.530  1.1611  0.1907  0.0926
32105SOL     OW 3429   8.677   2.907  12.941  0.0392  0.2876  0.7622
32105SOL    HW1 3430   8.612   2.916  12.871 -0.0502  3.1639  1.0893
32105SOL    HW2 3431   8.625   2.884  13.018 -0.0525 -1.3102  0.2585
32106SOL     OW 3432   5.085  11.612   3.984  0.3229 -0.2030 -0.3901
32106SOL    HW1 3433   5.059  11.703   3.974 -0.5919 -0.4104  0.0013
32106SOL    HW2 3434   5.172  11.607   3.944 -0.4306  0.4059 -2.2121
32107SOL     OW 3435   7.861   5.016   5.169 -0.0383 -0.1820 -0.8176
32107SOL    HW1 3436   7.867   5.105   5.133  0.3603  0.7107  1.2992
32107SOL    HW2 3437   7.948   4.979   5.154  0.2815  0.3606 -0.3693
32108SOL     OW 3438   8.368   4.537   7.324  0.2348  0.1942 -0.1696
32108SOL    HW1 3439   8.447   4.489   7.302  0.9353  1.5328 -0.7309
32108SOL    HW2 3440   8.373   4.617   7.271 -2.4997 -0.5822 -1.7614
32109SOL     OW 3441   9.350   0.845   6.098 -0.5307  0.2489 -0.4868
32109SOL    HW1 3442   9.391   0.815   6.016 -0.2355  0.5396 -0.4481
32109SOL    HW2 3443   9.361   0.940   6.097  0.3959  0.1709  0.3713
32110SOL     OW 3444   6.662   7.922  11.808 -0.3277 -0.5206 -0.5715
32110SOL    HW1 3445   6.637   7.867  11.882  1.1767  0.1417  0.4789
32110SOL    HW2 3446   6.630   8.009  11.830  2.1069  0.1967  0.4836
32111SOL     OW 3447   8.755   7.940   8.253  0.2704  0.3395 -0.1053
32111SOL    HW1 3448   8.711   7.874   8.306 -2.1162  1.9505  0.0850
32111SOL    HW2 3449   8.818   7.890   8.200  0.4825 -1.6919  1.8933
32112SOL     OW 3450   0.585   1.462  12.703  0.6899  0.2514  0.1524
32112SOL    HW1 3451   0.674   1.465  12.739  0.3886 -0.4459  0.9718
32112SOL    HW2 3452   0.564   1.369  12.698  0.1009  0.4017 -0.2879
32113SOL     OW 3453   4.860  11.247   3.484 -0.0246  0.7648 -0.2927
32113SOL    HW1 3454   4.949  11.211   3.484 -0.1436  0.4273  0.7761
32113SOL    HW2 3455   4.804  11.169   3.486 -0.3136  0.9869  0.3481
32114SOL     OW 3456  12.845   3.288   3.783  0.1290 -0.2064  0.2850
32114SOL    HW1 3457  12.877   3.324   3.866  0.2429  0.6220 -0.1009
32114SOL    HW2 3458  12.921   3.289   3.726 -0.0534 -0.3489  0.0388
32115SOL     OW 3459   9.816   9.063   4.251  0.1945 -0.4697 -0.2707
32115SOL    HW1 3460   9.881   9.046   4.320  0.8245  3.4988  0.3466
32115SOL    HW2 3461   9.858   9.030   4.171  0.8899 -2.1686  0.7345
32116SOL     OW 3462  11.012   6.315   3.888 -0.1578  0.7274 -0.0592
32116SOL    HW1 3463  10.993   6.373   3.962  0.3075  2.4383 -1.2486
32116SOL    HW2 3464  10.935   6.258   3.883 -0.1609  0.5062  1.7746
32117SOL     OW 3465   3.674  11.759   5.317  0.0118 -0.6531 -0.1578
32117SOL    HW1 3466   3.761  11.769   5.357  0.0048  1.2080 -0.5098
32117SOL    HW2 3467   3.613  11.780   5.387 -0.0408  1.1152 -0.6978
32118SOL     OW 3468   9.454   1.840   7.896  0.4422  0.1781  0.3431
32118SOL    HW1 3469   9.415   1.926   7.910  3.0265  1.7762 -1.3822
32118SOL    HW2 3470   9.526   1.836   7.959  1.0755 -0.2031 -0.3967
32119SOL     OW 3471   0.110   3.845   0.313 -0.5872 -0.0988  0.6358
32119SOL    HW1 3472   0.080   3.903   0.244  0.7400 -1.8245 -1.5262
32119SOL    HW2 3473   0.195   3.880   0.339 -1.1909  0.6882  1.6404
32120SOL     OW 3474   8.818  12.930   4.475 -0.4584  0.0866 -0.5382
32120SOL    HW1 3475   8.836  12.945   4.568 -0.9230  1.0745 -0.5977
32120SOL    HW2 3476   8.795  12.837   4.469  0.2837 -0.1506  0.2180
32121SOL     OW 3477   6.600   0.937   3.040 -0.3813 -0.2067 -0.0469
32121SOL    HW1 3478   6.657   1.007   3.006 -1.4390 -0.2567 -2.0915
32121SOL    HW2 3479   6.650   0.856   3.024 -0.3315 -0.1254 -0.3134
32122SOL     OW 3480   1.627   5.172   6.867  0.4242 -0.1459 -0.5691
32122SOL    HW1 3481   1.565   5.105   6.897 -0.2274 -0.1608 -1.8469
32122SOL    HW2 3482   1.664   5.136   6.787  1.3805  0.2902 -0.3373
32123SOL     OW 3483   6.641  10.983   9.767 -0.1771 -0.5978 -1.1218
32123SOL    HW1 3484   6.559  10.937   9.785 -0.4456  0.2658 -0.0077
32123SOL    HW2 3485   6.709  10.924   9.800 -0.4514 -0.6466 -0.6387
32124SOL     OW 3486   6.631   0.436   0.104 -0.5017  0.0936 -0.5403
32124SOL    HW1 3487   6.607   0.504   0.167  1.2762 -0.0679  0.3783
32124SOL    HW2 3488   6.700   0.475   0.050  0.6264 -0.9679  0.0747
32125SOL     OW 3489   1.822   6.089   4.164 -0.2464 -0.8159  0.4455
32125SOL    HW1 3490   1.757   6.097   4.094 -1.0591  0.1974  1.2829
32125SOL    HW2 3491   1.902   6.060   4.119 -1.1943 -1.8648 -0.6416
32126SOL     OW 3492   9.305   2.126  10.454 -0.0680  0.4230  0.2570
32126SOL    HW1 3493   9.262   2.055  10.406  0.5487 -1.0400  1.7846
32126SOL    HW2 3494   9.387   2.140  10.408  1.5095 -2.4357  1.9708
32127SOL     OW 3495  11.942   7.255   1.616  0.0816  0.3458 -0.2029
32127SOL    HW1 3496  11.903   7.193   1.678 -2.6346  0.5224 -1.5793
32127SOL    HW2 3497  11.946   7.207   1.533  0.3573  1.1787 -0.6868
32128SOL     OW 3498   3.463   9.041   8.026 -0.2732  0.4032 -0.1727
32128SOL    HW1 3499   3.432   8.959   8.064  0.0771  0.2995 -0.1078
32128SOL    HW2 3500   3.558   9.039   8.037  0.0612 -0.4363 -2.6304
32129SOL     OW 3501   7.840   7.765   8.321  0.1071  0.3530  0.2816
32129SOL    HW1 3502   7.905   7.822   8.362  0.7448  0.3805 -0.7505
32129SOL    HW2 3503   7.853   7.680   8.363 -0.0904  0.6794  1.0217
32130SOL     OW 3504   9.555   6.635  10.057 -0.5565  0.0090 -0.2261
32130SOL    HW1 3505   9.487   6.680  10.107 -0.3346  0.0958 -0.0012
32130SOL    HW2 3506   9.524   6.545  10.051 -2.0665  0.5957 -2.5241
32131SOL     OW 3507  12.317  12.338   9.479 -0.3025  0.0738 -0.2389
32131SOL    HW1 3508  12.357  12.420   9.508 -0.7055 -0.3301  1.5413
32131SOL    HW2 3509  12.374  12.307   9.409  0.0456  1.6873 -0.7149
32132SOL     OW 3510   4.244   0.232   6.111 -0.1747 -0.2606  0.4210
32132SOL    HW1 3511   4.173   0.181   6.071 -0.2539  0.2899 -0.1465
32132SOL    HW2 3512   4.270   0.294   6.043 -0.0912  0.4747  1.1159
32133SOL     OW 3513   4.236   0.807   1.071  0.0178  0.0780 -0.3919
32133SOL    HW1 3514   4.196   0.747   1.008  0.6934  0.0592 -0.8081
32133SOL    HW2 3515   4.195   0.785   1.154 -1.9263  1.0368 -1.0246
32134SOL     OW 3516  12.958  12.401   2.771 -0.1991  0.5493 -0.6024
32134SOL    HW1 3517  13.052  12.388   2.786 -0.2736  1.3478  0.7913
32134SOL    HW2 3518  12.919  12.394   2.858 -1.2714  1.4484 -0.9821
32135SOL     OW 3519   5.076   0.666   4.987 -0.2772 -0.1989 -0.9036
32135SOL    HW1 3520   5.054   0.602   4.920 -1.8744 -0.0658 -0.5425
32135SOL    HW2 3521   5.033   0.747   4.958  0.4636  0.3262 -0.5904
32136SOL     OW 3522   0.964   1.309   8.601 -0.1410  0.1953  0.1101
32136SOL    HW1 3523   0.939   1.273   8.686  0.9321  0.1595  0.4279
32136SOL    HW2 3524   1.037   1.367   8.620  1.9529 -1.8426 -1.0505
32137SOL     OW 3525   4.208   1.351   9.684  0.3588 -0.2484  0.0410
32137SOL    HW1 3526   4.180   1.300   9.608  0.6814 -1.1970  0.5375
32137SOL    HW2 3527   4.151   1.428   9.684  0.2834 -0.2905 -1.0919
32138SOL     OW 3528  10.301   9.274   9.534 -0.3625  0.8032 -0.1609
32138SOL    HW1 3529  10.361   9.345   9.559 -0.6010  1.1954 -0.6738
32138SOL    HW2 3530  10.222   9.290   9.584  0.3260 -0.3590  1.3680
32139SOL     OW 3531   5.088   9.079   2.197  0.1540  0.4448 -0.3255
32139SOL    HW1 3532   5.020   9.019   2.169 -0.0181  0.2202  0.5390
32139SOL    HW2 3533   5.066   9.162   2.155  1.7714 -0.5976 -3.5871
32140SOL     OW 3534   7.536   5.249   8.425  0.0846  0.3429 -0.1769
32140SOL    HW1 3535   7.500   5.337   8.440 -0.2092  0.2222 -0.1579
32140SOL    HW2 3536   7.500   5.196   8.496 -0.1446  0.0952 -0.4748
32141SOL     OW 3537  11.322   1.912   7.602  0.2230  0.0842  0.2350
32141SOL    HW1 3538  11.415   1.919   7.584  0.1179  0.2644 -0.2445
32141SOL    HW2 3539  11.282   1.981   7.549 -0.0383  1.0120  1.5731
32142SOL     OW 3540   2.738   9.563   5.441 -0.0231  0.1467 -0.0611
32142SOL    HW1 3541   2.672   9.542   5.375  0.2872  0.0928 -0.3593
32142SOL    HW2 3542   2.814   9.510   5.416  0.1125  0.1613  0.3131
32143SOL     OW 3543   7.899   1.082   1.698  0.2060 -0.1815 -0.3862
32143SOL    HW1 3544   7.993   1.061   1.700  0.2855  0.2183 -0.0035
32143SOL    HW2 3545   7.860   1.021   1.761  0.2963  0.0939 -0.0626
32144SOL     OW 3546   4.839   5.105   7.716  0.4961 -0.6719 -0.4543
32144SOL    HW1 3547   4.816   5.123   7.625 -0.9308 -2.2452 -0.4727
32144SOL    HW2 3548   4.754   5.104   7.762  0.9074 -2.4433  0.3616
32145SOL     OW 3549   0.325   6.382   4.002  0.1452  0.2184  0.4041
32145SOL    HW1 3550   0.315   6.399   4.096  0.0824  1.4225  0.1878
32145SOL    HW2 3551   0.261   6.313   3.984  0.9772 -0.8703  1.4645
32146SOL     OW 3552  12.162  12.837   4.266 -0.3390 -0.3475  0.0628
32146SOL    HW1 3553  12.158  12.872   4.355  1.7509  2.4527 -0.7998
32146SOL    HW2 3554  12.249  12.862   4.234 -1.0408 -1.1682 -2.8076
32147SOL     OW 3555   8.773   1.624   6.830  0.3569 -0.5179 -0.0631
32147SOL    HW1 3556   8.817   1.549   6.791  1.7858  1.4013 -2.4335
32147SOL    HW2 3557   8.818   1.700   6.793 -1.9694  1.5492  1.0500
32148SOL     OW 3558   5.979   5.203   1.644  0.0374  0.0100  0.5640
32148SOL    HW1 3559   5.966   5.122   1.595  0.7928 -0.4602  1.1051
32148SOL    HW2 3560   5.914   5.264   1.609  0.0002 -0.5707 -0.4213
32149SOL     OW 3561   9.037  10.518   9.049  0.2679 -0.4503 -0.5360
32149SOL    HW1 3562   9.035  10.613   9.061 -0.0381 -0.3787 -1.1201
32149SOL    HW2 3563   8.969  10.485   9.108  3.1558 -0.7309  2.9876
32150SOL     OW 3564  10.444   6.899   6.223  0.1257  0.9799 -0.2353
32150SOL    HW1 3565  10.513   6.848   6.266 -0.3471 -0.9593 -1.6383
32150SOL    HW2 3566  10.455   6.987   6.258  2.3182  0.4034  0.7564
32151SOL     OW 3567   8.668   2.248   9.640 -0.6492 -0.2986  0.7050
32151SOL    HW1 3568   8.696   2.330   9.600 -2.2028 -0.6642 -1.3077
32151SOL    HW2 3569   8.705   2.250   9.728  0.6580  1.8251  0.1711
32152SOL     OW 3570  10.639   2.265  12.693 -0.1794 -0.3238 -0.0858
32152SOL    HW1 3571  10.617   2.197  12.630  1.3143 -0.1368 -0.8452
32152SOL    HW2 3572  10.614   2.347  12.649  1.3415 -0.1553 -0.6959
32153SOL     OW 3573   5.167   5.334   0.107  0.3217  1.1824 -0.1735
32153SOL    HW1 3574   5.224   5.374   0.172 -1.5972 -0.2060  2.5260
32153SOL    HW2 3575   5.088   5.389   0.106 -0.2894  0.3263 -0.1868
32154SOL     OW 3576   9.013   3.929   2.759 -0.1758 -0.4032  0.0506
32154SOL    HW1 3577   9.049   3.869   2.693 -2.2694 -0.1154 -1.4382
32154SOL    HW2 3578   8.919   3.917   2.753 -0.4583  0.2339  2.4979
32155SOL     OW 3579   6.578  12.704  11.716  0.6852  0.1875 -0.4400
32155SOL    HW1 3580   6.563  12.791  11.679  0.3319 -0.9460 -3.2896
32155SOL    HW2 3581   6.490  12.670  11.731  0.8163  0.1493  0.2632
32156SOL     OW 3582   5.864   4.805  12.393 -0.1500 -0.0439 -0.1029
32156SOL    HW1 3583   5.877   4.776  12.483 -0.5449 -1.0758 -0.3600
32156SOL    HW2 3584   5.843   4.724  12.345 -2.3358  0.8139 -0.6662
32157SOL     OW 3585  10.961   7.556   8.173  0.4872  0.7379  0.4036
32157SOL    HW1 3586  11.028   7.557   8.242  0.7504 -1.0046  0.2218
32157SOL    HW2 3587  10.878   7.552   8.221  0.6407  0.2127  0.6357
32158SOL     OW 3588   1.829   4.694   6.346 -0.3040  0.1793 -0.0670
32158SOL    HW1 3589   1.904   4.684   6.405 -0.1338  0.8257 -0.1656
32158SOL    HW2 3590   1.863   4.744   6.272 -0.6246 -0.2597 -0.5166
32159SOL     OW 3591   7.335   9.310   3.595 -0.4577 -0.2137  0.3433
32159SOL    HW1 3592   7.304   9.378   3.655 -0.1955  0.6053 -0.4296
32159SOL    HW2 3593   7.406   9.267   3.642 -0.8068 -0.1366  0.9515
32160SOL     OW 3594  10.501   3.617   8.282  0.2822 -0.2311 -0.7365
32160SOL    HW1 3595  10.413   3.654   8.276  0.4053 -0.1720 -2.6891
32160SOL    HW2 3596  10.525   3.628   8.374 -1.9111 -0.6619 -0.0709
32161SOL     OW 3597   6.418   6.326   4.182  0.5346  0.5319 -0.6853
32161SOL    HW1 3598   6.327   6.308   4.156  0.4421  0.3460 -0.2430
32161SOL    HW2 3599   6.414   6.412   4.223  0.6486  0.7418 -1.1060
32162SOL     OW 3600   5.402   3.836   3.626 -0.3551 -0.0836  0.3188
32162SOL    HW1 3601   5.312   3.866   3.619  0.2969  2.5152  1.8468
32162SOL    HW2 3602   5.448   3.906   3.671  2.9214 -0.3656 -2.1825
32163SOL     OW 3603   4.675   5.420   6.223  0.2876  0.6298  0.3942
32163SOL    HW1 3604   4.592   5.387   6.188  0.0340  0.7260  0.8929
32163SOL    HW2 3605   4.709   5.477   6.154  0.2658  0.0657 -0.0843
32164SOL     OW 3606   6.022   0.760   1.383 -0.5407  0.3939  0.2302
32164SOL    HW1 3607   6.067   0.696   1.439 -0.3606 -1.4475 -1.8564
32164SOL    HW2 3608   6.089   0.788   1.321 -1.2950  0.5448 -0.5351
32165SOL     OW 3609   9.442  12.797   0.541 -0.5114  0.1297 -0.1120
32165SOL    HW1 3610   9.363  12.844   0.569 -2.4368 -0.9080 -3.1729
32165SOL    HW2 3611   9.475  12.756   0.620 -3.1677  0.4714  1.3038
32166SOL     OW 3612   6.900   9.895   5.389 -0.2640 -0.1653 -0.2494
32166SOL    HW1 3613   6.949   9.924   5.312 -0.0771  1.6455  0.4800
32166SOL    HW2 3614   6.873   9.806   5.369  1.8270 -0.6170 -1.4147
32167SOL     OW 3615   3.946  10.644   5.072  1.1108 -0.3330 -0.0937
32167SOL    HW1 3616   4.041  10.652   5.083  1.1458  1.8820 -1.3949
32167SOL    HW2 3617   3.927  10.696   4.994 -0.6792 -4.1056 -2.4764
32168SOL     OW 3618  11.157   6.070   1.413  0.4139 -0.0527  0.1279
32168SOL    HW1 3619  11.213   5.992   1.407  2.7837  1.5500 -0.1756
32168SOL    HW2 3620  11.130   6.087   1.323  0.2009 -0.2955  0.1434
32169SOL     OW 3621  12.479   4.246  11.210 -0.2620 -0.2576 -0.0201
32169SOL    HW1 3622  12.559   4.214  11.251  1.9405  2.4582 -1.8512
32169SOL    HW2 3623  12.480   4.207  11.122 -0.1446  0.8954 -0.5425
32170SOL     OW 3624   5.066   0.741   3.428 -0.2818  0.5626 -0.5174
32170SOL    HW1 3625   5.052   0.796   3.351  0.1067  0.5987 -0.5653
32170SOL    HW2 3626   4.990   0.682   3.429  0.3077 -0.2756 -1.6572
32171SOL     OW 3627   7.566   8.286  11.239  0.0240 -0.0678  0.3471
32171SOL    HW1 3628   7.502   8.214  11.232 -0.7647  0.3734  2.3142
32171SOL    HW2 3629   7.644   8.244  11.275  0.3777 -0.3456 -0.7120
32172SOL     OW 3630   4.262   7.812   2.583  0.6245 -0.1092 -0.2153
32172SOL    HW1 3631   4.326   7.867   2.628  0.9259 -0.0078 -0.7464
32172SOL    HW2 3632   4.292   7.811   2.492  0.2100 -0.5607 -0.3520
32173SOL     OW 3633   9.744   3.292  11.218  0.9977  0.0776 -0.4255
32173SOL    HW1 3634   9.688   3.214  11.222  0.7623  0.2601  2.9440
32173SOL    HW2 3635   9.714   3.339  11.140 -2.0597 -0.9654 -0.0160
32174SOL     OW 3636   3.598   3.729   8.801  0.2710 -0.2738 -0.2886
32174SOL    HW1 3637   3.560   3.729   8.713 -0.9434 -1.7745  0.1902
32174SOL    HW2 3638   3.579   3.642   8.836  0.2069  0.4695  1.6790
32175SOL     OW 3639  12.901   7.186  12.172  0.4973 -0.6468  0.0995
32175SOL    HW1 3640  12.923   7.190  12.078 -1.9976  1.6638 -0.5296
32175SOL    HW2 3641  12.965   7.245  12.213  0.1278  0.2584 -0.5685
32176SOL     OW 3642   6.156   0.094   0.305  0.2866  0.4272  0.0807
32176SOL    HW1 3643   6.165   0.186   0.330 -2.0573  0.6532  0.3107
32176SOL    HW2 3644   6.086   0.061   0.361  1.0855 -1.5211 -0.0016
32177SOL     OW 3645  10.879  11.791   6.618 -0.1664 -0.3130  0.1590
32177SOL    HW1 3646  10.875  11.775   6.712  1.1623 -0.6953  0.1719
32177SOL    HW2 3647  10.848  11.709   6.579  0.0151 -0.4332  0.2628
32178SOL     OW 3648   8.605   5.929   5.597  0.0544 -0.0946  0.4533
32178SOL    HW1 3649   8.588   5.923   5.691 -1.4829 -0.2765  0.1773
32178SOL    HW2 3650   8.571   6.015   5.571  1.8423  0.6149  0.3081
32179SOL     OW 3651   7.992   3.002   2.376  0.6148  0.4312 -0.0175
32179SOL    HW1 3652   7.935   2.925   2.385  2.1174 -1.2299 -3.1159
32179SOL    HW2 3653   7.942   3.062   2.321  0.8448  0.0271 -0.6853
32180SOL     OW 3654   7.403   4.302   0.590 -0.0208 -0.4037 -0.6010
32180SOL    HW1 3655   7.483   4.319   0.540  1.1325  1.2896  1.6767
32180SOL    HW2 3656   7.350   4.380   0.577 -0.3839 -0.6078 -0.3580
32181SOL     OW 3657   3.524  12.697   4.925 -0.1005 -0.1075  0.2156
32181SOL    HW1 3658   3.557  12.651   5.002 -1.2103 -1.4745 -0.0794
32181SOL    HW2 3659   3.548  12.640   4.852  1.0991  1.2645 -0.4938
32182SOL     OW 3660  10.761  10.315   2.811 -0.1554 -0.1336  0.0778
32182SOL    HW1 3661  10.810  10.255   2.868 -0.2050  0.2724  0.5512
32182SOL    HW2 3662  10.770  10.277   2.724  0.3417 -0.4935  0.2803
32183SOL     OW 3663  11.355   4.584   5.777  0.0695  0.2923  0.2033
32183SOL    HW1 3664  11.439   4.590   5.733 -0.0345 -0.0371 -0.0436
32183SOL    HW2 3665  11.317   4.672   5.771 -0.5046 -0.0296 -1.4766
32184SOL     OW 3666   1.666   9.846   5.392  1.0096 -0.1821 -0.0563
32184SOL    HW1 3667   1.666   9.772   5.332 -1.9081 -0.2869 -0.0916
32184SOL    HW2 3668   1.574   9.854   5.420  1.5635  2.2581  1.3874
32185SOL     OW 3669   8.999  10.953  12.658  0.4809 -0.2570  0.2974
32185SOL    HW1 3670   8.942  10.897  12.606  0.4676  0.7971 -0.8557
32185SOL    HW2 3671   9.001  11.037  12.611  1.6560  0.2546  1.1975
32186SOL     OW 3672   0.982   1.480   9.535 -0.0651  0.1144 -0.0107
32186SOL    HW1 3673   1.054   1.478   9.473  0.0789 -0.5334  0.1658
32186SOL    HW2 3674   0.969   1.388   9.560 -0.3464  0.3265  0.6509
32187SOL     OW 3675   4.924   9.579   7.909  0.1562 -0.7416 -0.4080
32187SOL    HW1 3676   4.873   9.608   7.984 -0.9130 -0.4313 -1.2200
32187SOL    HW2 3677   4.942   9.486   7.926 -0.4531 -0.7866  0.0237
32188SOL     OW 3678   2.147   6.645   6.143  0.2113  0.1809  0.0534
32188SOL    HW1 3679   2.186   6.592   6.212  0.3968  0.1042 -0.1100
32188SOL    HW2 3680   2.100   6.714   6.189 -0.7954 -0.6463  0.3012
32189SOL     OW 3681   6.794   2.130   7.009  0.3588 -0.2619 -0.1057
32189SOL    HW1 3682   6.799   2.036   6.995  1.0775 -0.3719  0.7547
32189SOL    HW2 3683   6.863   2.167   6.954  0.1188 -0.2395 -0.3944
32190SOL     OW 3684   6.034   7.395   6.967  0.5133 -0.0125  0.2481
32190SOL    HW1 3685   6.101   7.449   7.008  0.3800 -0.9499  1.7731
32190SOL    HW2 3686   5.966   7.386   7.034 -1.4303  1.3162 -1.3991
32191SOL     OW 3687   7.374   7.965   7.217 -0.1586  0.2861 -0.1420
32191SOL    HW1 3688   7.454   7.951   7.269  0.1536  1.1501 -0.3861
32191SOL    HW2 3689   7.395   7.929   7.131  0.1214  0.8837 -0.3291
32192SOL     OW 3690   8.786   4.169  11.314  0.1262 -0.6848 -0.1765
32192SOL    HW1 3691   8.755   4.167  11.223  1.3470 -4.0259 -0.6751
32192SOL    HW2 3692   8.870   4.215  11.309  0.2228 -0.9075 -0.7901
32193SOL     OW 3693  10.948   7.822   2.690 -0.4223  0.0857  0.0972
32193SOL    HW1 3694  10.876   7.882   2.707 -3.2740 -2.3696 -2.0383
32193SOL    HW2 3695  10.960   7.774   2.772  1.6087  3.0532  1.6845
32194SOL     OW 3696  11.952   5.504   8.732  0.8736 -0.1244  0.2734
32194SOL    HW1 3697  12.040   5.468   8.733  1.0439  0.2865  1.5911
32194SOL    HW2 3698  11.965   5.599   8.730  0.4292 -0.0168 -2.6450
32195SOL     OW 3699  11.262   6.888   5.713  0.3244  0.2243  0.0606
32195SOL    HW1 3700  11.303   6.861   5.630  0.4160  0.8396 -0.0984
32195SOL    HW2 3701  11.313   6.964   5.741  0.3100  0.0020  0.7008
32196SOL     OW 3702  11.957   2.495   4.502 -0.3161  0.3597 -0.6196
32196SOL    HW1 3703  12.023   2.491   4.433  1.3999 -3.4228  0.9401
32196SOL    HW2 3704  11.971   2.579   4.544  2.3372  0.4610 -1.5046
32197SOL     OW 3705  12.487   2.842   0.593 -0.2141  0.1574  0.4957
32197SOL    HW1 3706  12.398   2.849   0.559  0.1790  0.3053 -0.5416
32197SOL    HW2 3707  12.543   2.856   0.517  0.7091 -2.0265  0.6843
32198SOL     OW 3708   4.767   6.169   3.459 -0.0727  0.0984 -0.1178
32198SOL    HW1 3709   4.849   6.217   3.447 -0.1513 -0.1568 -2.0113
32198SOL    HW2 3710   4.708   6.232   3.501  0.0498  1.4597 -1.8876
32199SOL     OW 3711   7.934   2.357   4.503 -0.2887  0.0094 -0.2501
32199SOL    HW1 3712   7.944   2.321   4.415 -0.6967 -2.7824  0.7470
32199SOL    HW2 3713   7.847   2.329   4.531 -0.3217  1.1881  0.9210
32200SOL     OW 3714   5.438  10.488  11.399 -0.1143 -0.0079 -0.2370
32200SOL    HW1 3715   5.366  10.537  11.440 -1.8409 -4.0723  2.2589
32200SOL    HW2 3716   5.397  10.441  11.327  0.7050 -0.1946 -0.5929
32201SOL     OW 3717   5.267   6.847   3.493  0.4003 -0.2269  0.3336
32201SOL    HW1 3718   5.236   6.830   3.404  1.7549 -0.3452 -0.1335
32201SOL    HW2 3719   5.214   6.789   3.548 -0.8382  0.2473 -0.3133
32202SOL     OW 3720   9.404   8.986   9.901 -0.1805  0.1509 -0.0212
32202SOL    HW1 3721   9.321   9.021   9.869 -1.4751 -1.0766  1.8135
32202SOL    HW2 3722   9.380   8.931   9.975  2.2241 -0.8453  0.1021
32203SOL     OW 3723   7.531   0.376   9.367  0.3231  0.2201  0.4802
32203SOL    HW1 3724   7.484   0.399   9.287 -0.2856  1.5091  1.1834
32203SOL    HW2 3725   7.618   0.413   9.356  0.6154 -0.5903 -0.0465
32204SOL     OW 3726   7.701   5.469   9.227 -0.4449 -0.1460  0.7768
32204SOL    HW1 3727   7.643   5.539   9.256 -2.1031 -1.4877  0.8832
32204SOL    HW2 3728   7.774   5.471   9.288  0.2697  2.3187 -0.0391
32205SOL     OW 3729   3.327   7.836   8.314  0.0131  0.1587 -0.4462
32205SOL    HW1 3730   3.396   7.869   8.371 -1.1432  1.6342  0.1527
32205SOL    HW2 3731   3.323   7.900   8.242 -0.2186 -0.3346 -0.8793
32206SOL     OW 3732  10.535   7.943   1.070 -0.2248 -0.2812  0.3478
32206SOL    HW1 3733  10.531   7.929   1.165 -0.2721 -1.4422  0.1971
32206SOL    HW2 3734  10.622   7.981   1.056 -0.7806  1.3267  0.9916
32207SOL     OW 3735   8.986   8.772   0.641 -0.2220 -0.4560 -0.3789
32207SOL    HW1 3736   9.060   8.813   0.684 -0.4127 -0.8533  0.3459
32207SOL    HW2 3737   8.964   8.831   0.569 -0.4718  0.7018  0.6178
32208SOL     OW 3738   1.660  11.381  10.487  0.0667  0.2467 -0.6544
32208SOL    HW1 3739   1.734  11.321  10.492  1.5485  1.7952 -2.2901
32208SOL    HW2 3740   1.592  11.333  10.441  0.5485 -0.7644 -0.3285
32209SOL     OW 3741  10.978  11.933   4.136  0.0389  0.5036  0.1395
32209SOL    HW1 3742  11.015  11.896   4.055  0.1527 -0.1502  0.4829
32209SOL    HW2 3743  10.937  12.015   4.108 -2.1902 -0.9302 -1.0768
32210SOL     OW 3744   5.751   3.590   4.645 -0.8803 -0.4337 -1.1827
32210SOL    HW1 3745   5.831   3.609   4.695 -1.2882  0.9446 -1.0047
32210SOL    HW2 3746   5.760   3.643   4.566 -0.2369 -2.5979 -2.6457
32211SOL     OW 3747  10.362  12.886   2.295  0.0375 -0.0165 -0.6561
32211SOL    HW1 3748  10.350  12.913   2.386 -1.6142  2.4348 -1.4895
32211SOL    HW2 3749  10.341  12.793   2.294 -0.6952  0.0873  1.3185
32212SOL     OW 3750   9.711   5.146   7.944  0.0729  0.2652  0.4884
32212SOL    HW1 3751   9.721   5.217   8.008  0.7842 -0.3830  1.1118
32212SOL    HW2 3752   9.762   5.073   7.980  0.5904 -0.0879 -0.8638
32213SOL     OW 3753   2.053   1.687   1.100  0.1086  0.4634  0.4119
32213SOL    HW1 3754   2.058   1.765   1.155 -0.8852  1.2560 -0.5839
32213SOL    HW2 3755   1.987   1.632   1.143  1.8240 -0.5361  1.9176
32214SOL     OW 3756   1.183  10.759   7.664 -0.6861  0.4198 -0.4138
32214SOL    HW1 3757   1.094  10.769   7.629 -0.6217 -0.4939 -0.8919
32214SOL    HW2 3758   1.211  10.674   7.630  0.1049  0.3826  0.3252
32215SOL     OW 3759  10.873   9.733   6.460 -0.3683  0.3192  0.2739
32215SOL    HW1 3760  10.854   9.708   6.550 -0.5611 -0.7624 -0.0522
32215SOL    HW2 3761  10.790   9.766   6.426 -1.2104 -2.3117 -0.4651
32216SOL     OW 3762  10.126  10.488   4.118  0.6419  0.5568  1.2981
32216SOL    HW1 3763  10.212  10.527   4.102  1.1095 -1.5186 -2.3324
32216SOL    HW2 3764  10.076  10.507   4.038 -1.4683 -0.2860  2.3562
32217SOL     OW 3765   9.692  12.518   3.079  0.2195  0.6490 -0.0147
32217SOL    HW1 3766   9.689  12.470   2.996  0.3975  0.5300  0.0481
32217SOL    HW2 3767   9.736  12.600   3.058  2.3048 -0.2934  0.4156
32218SOL     OW 3768   8.516  12.253   5.406 -0.0791  0.1706 -0.3279
32218SOL    HW1 3769   8.486  12.167   5.378  0.9059 -0.4293  0.3852
32218SOL    HW2 3770   8.608  12.256   5.381  0.5028  0.1021  1.6459
32219SOL     OW 3771   6.024   9.814   0.314 -0.3531 -0.2122 -0.0880
32219SOL    HW1 3772   6.063   9.731   0.289  3.6160  1.2891  0.4184
32219SOL    HW2 3773   6.027   9.868   0.235  0.0821  0.4060  0.3318
32220SOL     OW 3774   9.263  12.679   2.136  0.0231  0.5506 -0.0647
32220SOL    HW1 3775   9.336  12.730   2.170  0.7073 -1.6394  2.1014
32220SOL    HW2 3776   9.186  12.714   2.181  0.2261  0.7786  0.1076
32221SOL     OW 3777   1.445  10.449   5.993 -0.0105 -0.4722 -0.0144
32221SOL    HW1 3778   1.533  10.437   5.958 -0.8600 -0.2116 -2.3593
32221SOL    HW2 3779   1.410  10.524   5.947 -1.2805 -0.1925  1.3238
32222SOL     OW 3780   8.908   5.366   7.003 -0.5611 -0.2174  0.0959
32222SOL    HW1 3781   8.923   5.274   7.026 -0.9309  0.0932  1.7103
32222SOL    HW2 3782   8.846   5.362   6.930 -0.3535 -1.2479 -0.0487
32223SOL     OW 3783   6.628   1.304   9.887  0.4579 -0.2746 -0.3580
32223SOL    HW1 3784   6.708   1.257   9.866  0.5909  0.1594 -0.8638
32223SOL    HW2 3785   6.657   1.382   9.933  0.2424 -0.6551  0.4337
32224SOL     OW 3786   0.628  11.004   6.379  0.2334  0.5213 -0.2650
32224SOL    HW1 3787   0.702  10.985   6.322  0.7411  0.9651  0.2348
32224SOL    HW2 3788   0.563  11.044   6.321 -0.0357 -0.7731 -0.9098
32225SOL     OW 3789   2.904   4.223   9.161  0.3838 -0.5100 -0.1527
32225SOL    HW1 3790   2.833   4.206   9.222 -0.1883  2.0815  0.0388
32225SOL    HW2 3791   2.867   4.205   9.075 -0.6180  0.9364 -0.0637
32226SOL     OW 3792   6.340   3.543   3.938 -0.6215  0.2682 -0.0269
32226SOL    HW1 3793   6.371   3.453   3.925 -1.4091 -0.0889  0.5511
32226SOL    HW2 3794   6.300   3.566   3.854 -2.4946 -0.7640  0.5267
32227SOL     OW 3795  12.069   7.547   8.068  0.7063 -0.1117  0.0444
32227SOL    HW1 3796  12.011   7.568   7.994  0.2190 -0.2941  0.3727
32227SOL    HW2 3797  12.022   7.481   8.117  0.6318  0.6484  1.0240
32228SOL     OW 3798   9.975  11.899   5.390  0.5087 -0.1172 -0.2368
32228SOL    HW1 3799  10.058  11.946   5.403  0.3511  0.1127 -0.0608
32228SOL    HW2 3800   9.972  11.883   5.296  0.5977  0.1636 -0.2906
32229SOL     OW 3801   8.424   9.278  11.426 -0.1470  0.8167  0.4966
32229SOL    HW1 3802   8.470   9.359  11.405  0.5836  0.4010  0.4808
32229SOL    HW2 3803   8.363   9.303  11.496 -2.4003  2.1533 -1.7572
32230SOL     OW 3804   8.432   0.835  12.431 -0.2405  0.9042 -0.3659
32230SOL    HW1 3805   8.342   0.831  12.398 -0.0984 -0.3535 -0.6229
32230SOL    HW2 3806   8.478   0.764  12.387  0.3214  0.0659  1.4525
32231SOL     OW 3807   9.905   5.485  12.683 -0.8799 -0.1175  0.1688
32231SOL    HW1 3808   9.970   5.519  12.744 -0.2801  0.2899 -0.6628
32231SOL    HW2 3809   9.930   5.394  12.670  0.0328  0.2352 -0.7406
32232SOL     OW 3810  12.728   5.632   2.233  0.3764 -0.2174 -0.3393
32232SOL    HW1 3811  12.770   5.680   2.304  0.4165  0.8534 -1.0675
32232SOL    HW2 3812  12.799   5.616   2.170  0.0637  0.0044 -0.7458
32233SOL     OW 3813   0.078   9.069   1.298  0.0149  0.7548  0.6291
32233SOL    HW1 3814   0.021   8.993   1.311  0.5272 -0.5024 -3.2460
32233SOL    HW2 3815   0.167   9.035   1.311  0.2464  0.5969 -1.1241
32234SOL     OW 3816   5.473   1.214   7.805 -0.9368  0.2174 -0.4093
32234SOL    HW1 3817   5.440   1.128   7.777  0.1385 -0.4787  0.4048
32234SOL    HW2 3818   5.559   1.221   7.765 -1.1087  1.0276 -0.6523
32235SOL     OW 3819  11.740   9.137   8.341 -0.0142  0.0584  0.0328
32235SOL    HW1 3820  11.735   9.073   8.412  2.4233 -0.1868  0.0579
32235SOL    HW2 3821  11.763   9.086   8.263  0.4604  0.7100 -0.2646
32236SOL     OW 3822   0.005   0.400   9.023 -0.4785 -0.9227  0.0775
32236SOL    HW1 3823   0.019   0.405   9.117 -0.6211 -1.4012  0.1299
32236SOL    HW2 3824  -0.088   0.376   9.014  0.1547 -3.6152 -0.0900
32237SOL     OW 3825  11.712   0.652  11.376 -0.0315  0.4568  0.0859
32237SOL    HW1 3826  11.734   0.574  11.325  1.4712  0.6553  0.4001
32237SOL    HW2 3827  11.621   0.671  11.352 -0.2093 -0.9953 -0.4924
32238SOL     OW 3828   9.558   1.505   2.553  0.1076 -0.8909 -0.6789
32238SOL    HW1 3829   9.466   1.511   2.575 -0.6330 -2.8341 -2.8151
32238SOL    HW2 3830   9.559   1.495   2.457  2.6762  1.3506 -0.9950
32239SOL     OW 3831   9.834   1.597   8.264 -0.0602  0.3351  0.2108
32239SOL    HW1 3832   9.787   1.604   8.181 -0.7286  1.3931  0.6544
32239SOL    HW2 3833   9.849   1.688   8.291  0.1693  0.0094  1.2312
32240SOL     OW 3834   8.851   5.352   7.899 -0.0003  0.1872 -0.2805
32240SOL    HW1 3835   8.859   5.343   7.994  2.0652 -0.0218 -0.4243
32240SOL    HW2 3836   8.872   5.265   7.865  0.9503  0.6697 -0.9759
32241SOL     OW 3837  11.159   8.862   5.319  0.2760  0.2245 -0.2427
32241SOL    HW1 3838  11.091   8.825   5.262  0.1975  0.8130 -0.5340
32241SOL    HW2 3839  11.136   8.830   5.407  0.8213 -1.2955 -0.6307
32242SOL     OW 3840   8.901   5.271   2.784  0.2389  0.0111 -0.2336
32242SOL    HW1 3841   8.855   5.189   2.797 -1.2011  0.7583 -0.4596
32242SOL    HW2 3842   8.965   5.274   2.855  0.1765 -1.2022 -0.1097
32243SOL     OW 3843  10.612   0.918   0.988 -0.2384 -0.0958  0.5962
32243SOL    HW1 3844  10.695   0.904   0.943 -1.2873 -2.0526 -0.8693
32243SOL    HW2 3845  10.617   0.862   1.066 -0.6547 -1.2455 -0.1809
32244SOL     OW 3846   3.740  12.540   6.400 -0.3250  0.1616  0.3052
32244SOL    HW1 3847   3.739  12.566   6.308 -0.1280  0.9644  0.5226
32244SOL    HW2 3848   3.819  12.487   6.409  0.2525  0.9941  0.2483
32245SOL     OW 3849  10.442  11.680   9.114  0.4316 -0.4358 -0.4665
32245SOL    HW1 3850  10.383  11.613   9.150 -1.6852  0.3307 -2.2546
32245SOL    HW2 3851  10.420  11.760   9.162  1.7605 -0.6118  0.4930
32246SOL     OW 3852  11.467   1.978   3.857 -0.8594 -0.0344  0.0539
32246SOL    HW1 3853  11.495   1.920   3.928  0.8643  0.3457 -0.2908
32246SOL    HW2 3854  11.429   1.919   3.792  1.0068 -0.8313 -0.3603
32247SOL     OW 3855   9.527   2.919   1.634 -0.4198  0.1461  0.4172
32247SOL    HW1 3856   9.452   2.914   1.692 -1.7373 -1.2639 -1.2984
32247SOL    HW2 3857   9.495   2.885   1.550  2.2815 -1.1186 -0.2183
32248SOL     OW 3858   7.360  10.694   9.058 -0.8994  0.1900  0.3157
32248SOL    HW1 3859   7.431  10.718   9.118 -0.1397 -0.2629 -0.3744
32248SOL    HW2 3860   7.357  10.765   8.995  0.5129 -0.8590 -0.9980
32249SOL     OW 3861  11.002   4.359   2.602  0.1873  0.3349 -0.1658
32249SOL    HW1 3862  11.055   4.439   2.602  1.5942 -0.5522  0.2501
32249SOL    HW2 3863  11.063   4.291   2.573 -0.9298 -0.6136 -0.3197
32250SOL     OW 3864  10.831  11.652   0.437  0.0303  0.1590  0.2737
32250SOL    HW1 3865  10.891  11.622   0.369 -1.5199 -0.6539 -0.8138
32250SOL    HW2 3866  10.879  11.640   0.519  1.2022 -0.8018 -0.5200
32251SOL     OW 3867  10.342   4.126   2.398 -0.5298 -0.4389  0.1006
32251SOL    HW1 3868  10.406   4.112   2.467  0.2772  0.5918 -0.4142
32251SOL    HW2 3869  10.371   4.069   2.327 -0.1522  0.0461 -0.1416
32252SOL     OW 3870   1.003  12.812   1.702 -0.2410  0.1782  0.5756
32252SOL    HW1 3871   0.996  12.906   1.719  0.9864  0.2002  1.1065
32252SOL    HW2 3872   1.088  12.787   1.739 -0.3490 -1.0604  0.0582
32253SOL     OW 3873   4.010   1.774   8.952  0.2460 -0.4266  0.0264
32253SOL    HW1 3874   4.082   1.837   8.946  0.8055 -0.8954  1.4082
32253SOL    HW2 3875   4.051   1.689   8.938 -0.0287 -0.6906  0.7403
32254SOL     OW 3876   5.881   3.422  11.677  0.0693  0.1026  0.1215
32254SOL    HW1 3877   5.860   3.356  11.743 -1.3187  0.8835  0.4858
32254SOL    HW2 3878   5.920   3.371  11.605 -1.4751 -1.2110  0.1524
32255SOL     OW 3879   7.498  11.410  12.156 -0.1194  0.5359  0.0366
32255SOL    HW1 3880   7.481  11.396  12.063  1.5145  0.6232 -0.2936
32255SOL    HW2 3881   7.469  11.329  12.198  0.9907 -0.3198 -0.8057
32256SOL     OW 3882   2.794   6.242   2.380 -0.7199  0.5853 -0.6814
32256SOL    HW1 3883   2.828   6.253   2.469 -2.5035  0.7662  0.0271
32256SOL    HW2 3884   2.727   6.174   2.389  0.4115 -0.8534 -2.2953
32257SOL     OW 3885   7.219  10.078   0.931  0.9685 -0.0687  0.7062
32257SOL    HW1 3886   7.200  10.134   1.006 -2.6627 -0.6509  0.4008
32257SOL    HW2 3887   7.218   9.989   0.967  0.5651 -0.2706  0.2064
32258SOL     OW 3888   5.762   4.965   9.760 -0.4661  0.0104 -0.4121
32258SOL    HW1 3889   5.770   4.953   9.855 -1.1960  1.5649 -0.1298
32258SOL    HW2 3890   5.718   4.885   9.730 -1.0166 -0.1283  0.6901
32259SOL     OW 3891   0.906   1.556   5.656 -0.3977  0.0098 -0.1368
32259SOL    HW1 3892   0.959   1.477   5.664 -0.9829 -0.3560  0.1640
32259SOL    HW2 3893   0.834   1.544   5.718 -0.4761  0.7907 -0.0611
32260SOL     OW 3894   4.874  11.460   9.121 -0.4659  0.5022 -0.0387
32260SOL    HW1 3895   4.931  11.392   9.084 -1.2104 -0.4046  0.4369
32260SOL    HW2 3896   4.825  11.493   9.046 -3.0401 -2.3588  0.2185
32261SOL     OW 3897   9.810   0.305   0.521  0.2159  0.2579  0.1123
32261SOL    HW1 3898   9.877   0.346   0.466  0.8201  1.6907  1.8115
32261SOL    HW2 3899   9.744   0.374   0.531 -0.5189 -0.4446  0.1146
32262SOL     OW 3900   8.449   7.822   5.670  0.2470  0.1385 -0.1567
32262SOL    HW1 3901   8.530   7.775   5.691  0.1931  0.5343  0.9822
32262SOL    HW2 3902   8.478   7.898   5.621  0.7120  0.9104  1.2464
32263SOL     OW 3903   2.250   0.696  12.897 -0.1027  0.4796  0.1685
32263SOL    HW1 3904   2.248   0.651  12.813  1.1815 -1.4818  1.1211
32263SOL    HW2 3905   2.159   0.697  12.926 -0.3316 -0.3206 -0.4886
32264SOL     OW 3906   7.038  10.444  10.649  0.4317  0.0738 -0.1494
32264SOL    HW1 3907   6.988  10.417  10.726  3.4112 -0.9648  1.5900
32264SOL    HW2 3908   6.975  10.444  10.577 -1.7601 -2.3383  1.6299
32265SOL     OW 3909   3.702   8.293   3.362  0.1900 -0.0986 -0.4057
32265SOL    HW1 3910   3.769   8.266   3.298  0.7557  1.5690 -0.5668
32265SOL    HW2 3911   3.717   8.387   3.373 -1.6611  0.1592  0.1345
32266SOL     OW 3912   1.618   5.432  12.298  0.1150  0.2191 -0.3501
32266SOL    HW1 3913   1.549   5.371  12.321 -0.9929  1.6066  0.1289
32266SOL    HW2 3914   1.572   5.510  12.265  1.4774  0.7425 -1.1236
32267SOL     OW 3915  12.411   0.489   0.205 -0.3935 -0.2779 -0.1058
32267SOL    HW1 3916  12.394   0.440   0.286  1.3550  0.1685  0.5899
32267SOL    HW2 3917  12.444   0.423   0.144 -0.0167 -0.3309  0.1493
32268SOL     OW 3918   6.724   9.828  12.773 -0.1452 -0.5908  0.6860
32268SOL    HW1 3919   6.777   9.905  12.794 -0.4810  0.3517 -1.6871
32268SOL    HW2 3920   6.635   9.853  12.795 -0.1267 -0.6777  0.8611
32269SOL     OW 3921   7.018   9.880  11.623 -0.3174  0.2320  0.5327
32269SOL    HW1 3922   6.928   9.855  11.600 -0.2382  0.4739 -0.0395
32269SOL    HW2 3923   7.045   9.815  11.688 -0.2887 -0.8837 -0.5755
32270SOL     OW 3924   4.877  10.394  11.567 -0.0850  0.2712  0.7967
32270SOL    HW1 3925   4.953  10.371  11.621  0.3092  0.1821  0.2163
32270SOL    HW2 3926   4.818  10.440  11.626 -0.8060 -2.0138  1.9658
32271SOL     OW 3927   1.912   7.900  12.536 -0.0755  0.0880 -0.6480
32271SOL    HW1 3928   1.865   7.963  12.481 -0.4203  1.5221  1.1965
32271SOL    HW2 3929   1.954   7.953  12.603 -1.2819 -1.7084  1.6726
32272SOL     OW 3930  11.833   9.091   5.144 -0.2647 -0.0348  0.0187
32272SOL    HW1 3931  11.791   9.106   5.059  0.7139  0.7178 -0.3538
32272SOL    HW2 3932  11.900   9.159   5.150 -1.5121  1.0868  2.2245
32273SOL     OW 3933   4.173   0.700   3.565 -0.1641  0.1837  0.0067
32273SOL    HW1 3934   4.125   0.676   3.486  0.2435 -0.0861 -0.1637
32273SOL    HW2 3935   4.156   0.627   3.625 -1.0563  0.7252  0.4338
32274SOL     OW 3936   9.254   2.879  11.024  0.3016 -0.8321 -0.1596
32274SOL    HW1 3937   9.229   2.836  11.106 -0.7763 -2.0149 -1.0558
32274SOL    HW2 3938   9.287   2.808  10.969 -1.1747 -0.5008 -1.5497
32275SOL     OW 3939   3.595   0.287   5.690 -0.6015 -0.2405 -0.2861
32275SOL    HW1 3940   3.510   0.256   5.659  0.0352 -2.6106  0.1690
32275SOL    HW2 3941   3.637   0.324   5.611 -2.7828  3.0542 -0.1099
32276SOL     OW 3942  11.247   4.693   0.056  0.2530  0.0028 -1.0096
32276SOL    HW1 3943  11.330   4.722   0.093  0.0224 -0.8156  0.1666
32276SOL    HW2 3944  11.263   4.603   0.028 -0.2979 -0.2181 -0.6073
32277SOL     OW 3945  12.674   3.688   9.225  0.2675  0.3371  0.0353
32277SOL    HW1 3946  12.706   3.774   9.253 -0.2002  0.6799 -0.4499
32277SOL    HW2 3947  12.749   3.629   9.236  0.1426  0.4802  1.8340
32278SOL     OW 3948   5.883   6.403   7.175  1.2461 -0.1650  0.2776
32278SOL    HW1 3949   5.850   6.322   7.214  1.2285 -0.3802 -0.1864
32278SOL    HW2 3950   5.978   6.396   7.182  1.2708 -0.5438 -0.4002
32279SOL     OW 3951  10.081   0.293   8.786 -0.2873  0.0790 -0.4470
32279SOL    HW1 3952  10.020   0.313   8.714  1.7914  0.3676 -2.2463
32279SOL    HW2 3953  10.122   0.377   8.807  0.4563 -0.3226 -0.2332
32280SOL     OW 3954   1.604   0.883   7.350 -0.1687 -0.0898  0.0100
32280SOL    HW1 3955   1.632   0.825   7.279  0.4223  0.4919 -0.2320
32280SOL    HW2 3956   1.537   0.832   7.396  0.4877 -1.0470 -0.0748
32281SOL     OW 3957  11.085   8.944   3.628 -0.0478 -0.0829  0.1823
32281SOL    HW1 3958  11.133   8.880   3.681 -1.2275  0.0393  1.4698
32281SOL    HW2 3959  11.152   8.983   3.572  1.3284 -0.0383  1.7695
32282SOL     OW 3960   5.821  10.761   2.507 -0.1007 -0.3215  0.2728
32282SOL    HW1 3961   5.792  10.817   2.435 -0.7540 -0.2552  0.5791
32282SOL    HW2 3962   5.804  10.812   2.586  0.5082 -0.4377  0.4847
32283SOL     OW 3963   7.151   4.152   6.227  0.5000  0.2197 -0.0687
32283SOL    HW1 3964   7.091   4.078   6.233 -0.8481  1.2630 -0.1713
32283SOL    HW2 3965   7.106   4.223   6.272  1.3510  1.2406 -0.7869
32284SOL     OW 3966   3.470  10.428   0.938 -0.4069 -0.0071  0.0824
32284SOL    HW1 3967   3.513  10.416   1.023 -0.1317 -0.2738 -0.0949
32284SOL    HW2 3968   3.397  10.365   0.940  1.1436 -1.9391 -0.9195
32285SOL     OW 3969   0.436   8.606   4.587  0.1937  0.4071  0.0217
32285SOL    HW1 3970   0.485   8.570   4.661  1.7226  1.3381 -0.4996
32285SOL    HW2 3971   0.380   8.674   4.626 -0.3367 -0.3151  0.5487
32286SOL     OW 3972   2.914  12.690   8.151 -0.8125 -0.2721  0.1730
32286SOL    HW1 3973   2.933  12.725   8.239  0.9223 -1.3246  0.2712
32286SOL    HW2 3974   2.844  12.746   8.118  0.6210  2.1709  0.9943
32287SOL     OW 3975   7.937   5.434   2.282 -0.0978  0.1144  0.3846
32287SOL    HW1 3976   7.975   5.434   2.370  0.8587 -0.5487 -0.0084
32287SOL    HW2 3977   7.857   5.382   2.290 -0.2573  0.4388  0.9531
32288SOL     OW 3978   6.181   0.603   5.564  0.0376 -0.0065 -0.4760
32288SOL    HW1 3979   6.134   0.611   5.647  0.3886  1.2374 -0.3758
32288SOL    HW2 3980   6.248   0.537   5.581 -1.0792 -1.1423 -0.3550
32289SOL     OW 3981   8.606  12.198   6.531  0.1564 -0.3382  0.1941
32289SOL    HW1 3982   8.537  12.220   6.469 -0.2949 -1.1583  0.3928
32289SOL    HW2 3983   8.661  12.135   6.484  0.9755  0.5485 -0.0823
32290SOL     OW 3984   9.345  11.450   8.283 -0.0363 -0.2764  0.2306
32290SOL    HW1 3985   9.385  11.528   8.245 -0.9638 -0.1238 -0.4523
32290SOL    HW2 3986   9.274  11.482   8.337 -0.5968 -0.6473 -0.2664
32291SOL     OW 3987   6.018  11.315   5.177 -0.2564  0.0787 -0.0792
32291SOL    HW1 3988   5.942  11.277   5.222 -0.6108  0.6060 -0.2154
32291SOL    HW2 3989   5.987  11.400   5.146  0.1443 -0.0559 -0.8686
32292SOL     OW 3990  11.594   0.589   2.925  0.4192  0.4735  0.1154
32292SOL    HW1 3991  11.551   0.657   2.978  0.7658  0.0993  0.9034
32292SOL    HW2 3992  11.687   0.598   2.946  0.5855  0.4750 -0.6262
32293SOL     OW 3993   0.737   8.668   4.161  0.1106  0.3708 -0.4245
32293SOL    HW1 3994   0.671   8.680   4.229 -0.0072  1.2046 -0.6758
32293SOL    HW2 3995   0.817   8.705   4.199  0.2905 -0.0838 -0.3538
32294SOL     OW 3996   9.146   1.994   1.898 -0.5371  0.5969 -0.3973
32294SOL    HW1 3997   9.216   1.943   1.940  0.2135  0.6990 -1.4686
32294SOL    HW2 3998   9.094   1.929   1.851 -0.1088  0.6994 -1.0315
32295SOL     OW 3999   6.045   3.288   1.713  0.5836  0.1920 -0.0991
32295SOL    HW1 4000   5.958   3.277   1.750  1.0373  0.4338  1.0713
32295SOL    HW2 4001   6.089   3.204   1.730  0.9228  0.4421  0.2780
32296SOL     OW 4002   5.919   7.163   8.397 -0.6503  0.0442 -0.5325
32296SOL    HW1 4003   5.935   7.137   8.307  2.0077 -0.1568 -0.0991
32296SOL    HW2 4004   5.928   7.259   8.396 -0.2806  0.0139 -0.4508
32297SOL     OW 4005  11.394  12.692   5.051  0.0411  0.0856  0.2399
32297SOL    HW1 4006  11.340  12.690   5.130 -0.4757 -0.1244 -0.1127
32297SOL    HW2 4007  11.369  12.613   5.003  2.3559 -1.3096  1.1697
32298SOL     OW 4008   0.678   6.993   3.240  0.2946 -0.4643 -0.2432
32298SOL    HW1 4009   0.718   6.962   3.159  0.5769 -0.7406 -0.0014
32298SOL    HW2 4010   0.584   6.986   3.225  0.3083  0.6273 -0.9949
32299SOL     OW 4011  12.593  11.547   2.049  0.0864  0.3308  0.0831
32299SOL    HW1 4012  12.540  11.519   1.974  2.0610 -1.8869 -0.5877
32299SOL    HW2 4013  12.590  11.474   2.110  1.2650  0.7149  0.6400
32300SOL     OW 4014   6.679   0.408   4.470  0.2592  0.2322  0.3126
32300SOL    HW1 4015   6.690   0.439   4.560 -0.5664  1.2142  0.1022
32300SOL    HW2 4016   6.662   0.488   4.419  1.6910 -0.1884 -0.8875
32301SOL     OW 4017   6.970   9.412   1.799 -0.3305  0.1307  0.2118
32301SOL    HW1 4018   7.001   9.473   1.866  1.1004  0.6121 -0.8264
32301SOL    HW2 4019   6.895   9.457   1.759 -0.7424  0.1529  0.9864
32302SOL     OW 4020   6.345   7.199   3.975  0.2729  0.3247  0.2804
32302SOL    HW1 4021   6.349   7.187   4.070  1.7818  0.5257  0.2611
32302SOL    HW2 4022   6.407   7.270   3.957  0.1756  0.1320 -0.8924
32303SOL     OW 4023  12.036  10.636  12.451 -0.1749  0.6550 -0.3292
32303SOL    HW1 4024  12.040  10.698  12.378  0.1672  0.2818 -0.6357
32303SOL    HW2 4025  12.127  10.629  12.481 -0.0111 -0.6163 -1.0814
32304SOL     OW 4026   2.821  12.246  10.059 -0.1120  0.0298 -0.0354
32304SOL    HW1 4027   2.838  12.296  10.138 -2.6747  1.2722 -0.1781
32304SOL    HW2 4028   2.845  12.305   9.987  1.5754 -0.8529 -0.2654
32305SOL     OW 4029   8.408   6.451   4.923  0.1151  0.0609  0.3802
32305SOL    HW1 4030   8.440   6.370   4.962 -1.1017 -1.7697 -2.1180
32305SOL    HW2 4031   8.480   6.513   4.933  1.3740 -1.5212  1.7078
32306SOL     OW 4032  12.824   7.297   7.092 -0.8116  0.4544 -0.3532
32306SOL    HW1 4033  12.747   7.354   7.098 -0.2706  1.6864 -3.3066
32306SOL    HW2 4034  12.824   7.266   7.001  0.8391 -1.5064  0.2493
32307SOL     OW 4035   0.475   0.437   2.197  0.8365 -0.3999  0.0146
32307SOL    HW1 4036   0.476   0.528   2.169  1.1047 -0.9650 -1.9607
32307SOL    HW2 4037   0.452   0.440   2.290 -0.1605  1.5942 -0.2586
32308SOL     OW 4038   0.063   8.578   3.964  0.1318  0.5135  0.4069
32308SOL    HW1 4039   0.140   8.529   3.937 -0.2478 -0.1374  0.4911
32308SOL    HW2 4040   0.055   8.559   4.058 -0.3518  0.2691  0.3183
32309SOL     OW 4041  10.840   0.957  12.465  0.0475 -0.0989 -0.1251
32309SOL    HW1 4042  10.792   1.039  12.461 -0.7560 -0.4664  1.3359
32309SOL    HW2 4043  10.782   0.893  12.424  0.0533 -0.2038  0.0283
32310SOL     OW 4044   7.554   1.171  10.410  0.2161 -0.1319  0.4485
32310SOL    HW1 4045   7.620   1.111  10.377 -1.6937 -2.1378  0.0266
32310SOL    HW2 4046   7.501   1.194  10.334 -0.9605 -0.4731  1.1297
32311SOL     OW 4047   5.076   1.432   8.452  0.0934 -0.0973 -0.0193
32311SOL    HW1 4048   5.103   1.340   8.445 -0.5198 -0.2371 -0.6966
32311SOL    HW2 4049   4.997   1.430   8.505  0.2987  0.0893  0.2970
32312SOL     OW 4050   6.005   6.834   1.988 -0.3800  0.2651  0.4295
32312SOL    HW1 4051   6.041   6.824   2.076 -0.3196 -2.8863  0.1909
32312SOL    HW2 4052   5.916   6.799   1.995 -0.1342 -0.6947 -0.8399
32313SOL     OW 4053  12.456   7.013   8.141 -0.2139  0.3128  0.5446
32313SOL    HW1 4054  12.443   6.984   8.231 -1.9555  1.0727  0.5875
32313SOL    HW2 4055  12.547   7.042   8.137  1.2205 -3.5802  0.8883
32314SOL     OW 4056  12.196   7.884   8.637  0.4517  0.6773 -0.4734
32314SOL    HW1 4057  12.226   7.928   8.716  0.0902 -1.6215  1.0171
32314SOL    HW2 4058  12.276   7.871   8.585  0.9953  0.5179  0.3902
32315SOL     OW 4059  11.466   5.539  12.021 -0.0787 -0.1592  0.3916
32315SOL    HW1 4060  11.511   5.459  12.050 -1.9954 -1.0041  1.2499
32315SOL    HW2 4061  11.395   5.507  11.966 -2.5752  0.6588  2.9231
32316SOL     OW 4062   0.086   4.064   4.407 -0.1827 -0.1288  0.4040
32316SOL    HW1 4063   0.179   4.043   4.401  0.0638  0.7839  0.8958
32316SOL    HW2 4064   0.080   4.131   4.475 -1.2169 -0.2639  0.4668
32317SOL     OW 4065   0.888   8.281   1.594  0.5314  0.1623 -0.2800
32317SOL    HW1 4066   0.972   8.252   1.630  1.1764  0.6066 -1.3852
32317SOL    HW2 4067   0.853   8.341   1.659  1.1791  0.1526  0.0825
32318SOL     OW 4068   0.662   6.303  10.362  0.4425 -0.3133 -0.5182
32318SOL    HW1 4069   0.736   6.285  10.419 -0.6214  0.3188  1.1286
32318SOL    HW2 4070   0.598   6.235  10.382 -1.1811  1.6354  1.3896
32319SOL     OW 4071  10.450  12.051   7.253 -0.4903  0.2100 -0.3188
32319SOL    HW1 4072  10.420  11.967   7.288  3.1856 -1.8737 -1.5536
32319SOL    HW2 4073  10.495  12.093   7.326 -0.4007  0.0086 -0.2578
32320SOL     OW 4074   4.433   8.107   1.197 -0.2024 -0.2681  0.6081
32320SOL    HW1 4075   4.436   8.028   1.252  1.4699  0.0597  1.0272
32320SOL    HW2 4076   4.521   8.115   1.160 -0.0316  1.9132  1.3328
32321SOL     OW 4077   8.142  10.701   0.779 -0.5707 -0.0198  0.3996
32321SOL    HW1 4078   8.078  10.633   0.757  0.3301 -0.4100 -1.1541
32321SOL    HW2 4079   8.107  10.781   0.740 -0.6947  0.0177  0.5868
32322SOL     OW 4080  12.235   0.197  10.322  0.2126 -0.4148  0.6666
32322SOL    HW1 4081  12.286   0.273  10.350  0.6099 -0.8043  1.0171
32322SOL    HW2 4082  12.207   0.156  10.404  0.1073 -0.7188  0.4763
32323SOL     OW 4083   8.850   4.258  10.215 -0.5722 -0.6758 -0.7712
32323SOL    HW1 4084   8.778   4.227  10.161 -0.4732 -1.9513 -0.2116
32323SOL    HW2 4085   8.882   4.180  10.260  1.0947 -0.1277 -0.9252
32324SOL     OW 4086   0.708   0.872   9.166 -0.1982  0.0836  0.2251
32324SOL    HW1 4087   0.621   0.871   9.125 -0.4574 -0.6565  0.7802
32324SOL    HW2 4088   0.701   0.811   9.239  0.8900 -0.2326  0.0784
32325SOL     OW 4089   0.023   6.923  11.458  0.5125  0.5570  0.0425
32325SOL    HW1 4090  -0.050   6.862  11.469 -2.0145  2.5561 -3.5749
32325SOL    HW2 4091   0.070   6.891  11.382  2.7155  0.1052  1.4953
32326SOL     OW 4092   2.553  10.922   5.203 -0.3705  0.4080  0.1272
32326SOL    HW1 4093   2.504  10.867   5.142  1.3477 -1.4376  0.3177
32326SOL    HW2 4094   2.619  10.864   5.241 -0.0668  2.0087  2.2456
32327SOL     OW 4095   1.848  10.696   1.071  0.5314  0.6678  0.1967
32327SOL    HW1 4096   1.766  10.651   1.090  0.2720  1.0689  0.0410
32327SOL    HW2 4097   1.903  10.678   1.148  0.7626 -0.6508 -0.2672
32328SOL     OW 4098   1.093   0.265   3.228 -0.5143  0.0433 -0.4413
32328SOL    HW1 4099   1.063   0.277   3.138 -1.4283  0.6955 -0.0691
32328SOL    HW2 4100   1.187   0.249   3.221 -0.7437 -0.8688 -1.5704
32329SOL     OW 4101   3.317   8.220   2.737 -0.1846  0.5783  0.3118
32329SOL    HW1 4102   3.351   8.251   2.821  1.2218  0.0757 -0.0342
32329SOL    HW2 4103   3.238   8.171   2.760 -0.3812  1.2899  1.2260
32330SOL     OW 4104   3.251   1.871   4.244  0.6143  0.1771  0.1930
32330SOL    HW1 4105   3.300   1.860   4.325 -1.4961 -0.2293  1.5093
32330SOL    HW2 4106   3.298   1.818   4.179  1.9105 -0.1165  1.3370
32331SOL     OW 4107   5.285   2.770   5.699 -0.3589  0.1585  0.2804
32331SOL    HW1 4108   5.368   2.778   5.747 -0.1627  2.1800 -0.2867
32331SOL    HW2 4109   5.297   2.694   5.643  0.9681  0.1699  0.5171
32332SOL     OW 4110   9.340  10.090   5.946  0.0185  0.5855 -0.4626
32332SOL    HW1 4111   9.372  10.054   6.029 -0.2364 -1.5830 -1.2403
32332SOL    HW2 4112   9.250  10.118   5.964  0.8210  2.7142  0.6308
32333SOL     OW 4113   3.197   3.405   6.439 -0.5844  0.3797 -0.3793
32333SOL    HW1 4114   3.271   3.386   6.382  0.2065  0.0587  0.7184
32333SOL    HW2 4115   3.207   3.345   6.513 -1.3814  1.0092  0.2652
32334SOL     OW 4116  10.339   4.548   9.781  0.3463 -0.6299 -0.2357
32334SOL    HW1 4117  10.338   4.618   9.847  0.9084 -0.2221 -0.6443
32334SOL    HW2 4118  10.429   4.549   9.747 -0.4484  0.5949 -2.4952
32335SOL     OW 4119   9.221   4.412   1.131 -0.0718  0.0678  0.2044
32335SOL    HW1 4120   9.267   4.332   1.156 -0.9180 -0.0067  1.6984
32335SOL    HW2 4121   9.173   4.389   1.052 -0.2072 -0.8879  0.5463
32336SOL     OW 4122   8.385   4.832   4.567  0.5851  0.0512 -0.3350
32336SOL    HW1 4123   8.395   4.877   4.651 -3.0434  0.3615  0.0799
32336SOL    HW2 4124   8.409   4.741   4.586 -1.7465 -0.2475  1.5815
32337SOL     OW 4125  12.417  12.345   5.205  0.1658  0.4522 -0.1913
32337SOL    HW1 4126  12.328  12.357   5.171  0.3127  3.0336  0.1146
32337SOL    HW2 4127  12.405  12.324   5.297 -0.1590  1.1404 -0.0659
32338SOL     OW 4128   7.174   9.122   4.524 -0.5159 -0.0780 -0.7948
32338SOL    HW1 4129   7.188   9.216   4.507  0.0669  0.0006  0.0361
32338SOL    HW2 4130   7.232   9.078   4.462 -0.0444  0.1365 -0.5071
32339SOL     OW 4131  11.827   1.945   9.217  0.5333  0.3267 -0.1888
32339SOL    HW1 4132  11.839   2.032   9.254  0.3007  0.6589 -0.8825
32339SOL    HW2 4133  11.774   1.959   9.138 -1.0070 -0.6342  0.6204
32340SOL     OW 4134   0.757   9.209   3.433 -0.2919  0.4048 -0.4737
32340SOL    HW1 4135   0.776   9.205   3.340  1.0050  0.6562 -0.2391
32340SOL    HW2 4136   0.770   9.119   3.464 -1.5181  0.1505 -0.6679
32341SOL     OW 4137   4.322   6.462   1.248 -0.1379 -0.1994 -0.3892
32341SOL    HW1 4138   4.293   6.372   1.234  0.7635 -1.0082  2.2614
32341SOL    HW2 4139   4.315   6.474   1.343 -0.0081  2.4627 -0.6586
32342SOL     OW 4140  10.377   6.579   4.901 -0.1786  0.8485 -0.1092
32342SOL    HW1 4141  10.282   6.583   4.893 -0.2048 -0.5522 -0.8184
32342SOL    HW2 4142  10.394   6.499   4.950  0.6511  0.2489 -1.3058
32343SOL     OW 4143   3.841   1.084  12.865  0.2166  0.5692  0.2380
32343SOL    HW1 4144   3.825   1.179  12.868  0.7909  0.6736  0.1084
32343SOL    HW2 4145   3.903   1.073  12.793 -0.0897  0.0534  0.0480
32344SOL     OW 4146   7.735   7.050  12.224 -0.5758  0.3687  0.3498
32344SOL    HW1 4147   7.811   7.106  12.240 -1.2807  1.8826 -1.2514
32344SOL    HW2 4148   7.772   6.967  12.196  0.4897  0.8918  0.1456
32345SOL     OW 4149   3.656   5.781  11.931 -0.3823  0.2124 -0.0759
32345SOL    HW1 4150   3.678   5.688  11.919 -0.3851 -0.0502  1.6057
32345SOL    HW2 4151   3.735   5.828  11.904 -0.2825 -0.2920 -0.6766
32346SOL     OW 4152   5.822   5.965   9.112  0.2404  0.0142  0.5401
32346SOL    HW1 4153   5.878   5.890   9.133  0.0281 -0.1804  0.4251
32346SOL    HW2 4154   5.801   6.004   9.196  0.3118 -0.0859  0.6040
32347SOL     OW 4155   2.842  11.535   4.560 -0.1513  0.4622  0.2117
32347SOL    HW1 4156   2.937  11.530   4.574 -0.2683 -2.1335  0.5186
32347SOL    HW2 4157   2.805  11.533   4.648 -0.5150  1.0772  0.0765
32348SOL     OW 4158   4.612   6.273  12.644 -0.3009  0.1523  0.1689
32348SOL    HW1 4159   4.664   6.208  12.691  0.9172  0.4806 -0.6585
32348SOL    HW2 4160   4.580   6.227  12.567 -1.4717 -0.1147  0.7972
32349SOL     OW 4161   7.368   9.838  12.393 -0.2046  0.2048 -0.0787
32349SOL    HW1 4162   7.279   9.803  12.389  0.0668 -0.8662  2.0461
32349SOL    HW2 4163   7.425   9.761  12.391  0.7199  0.8743 -1.3875
32350SOL     OW 4164   5.939   1.110  12.242  0.9099 -1.0364  0.8944
32350SOL    HW1 4165   5.936   1.014  12.239  2.6611 -1.1083  0.7818
32350SOL    HW2 4166   6.021   1.133  12.200 -0.2537  0.6365 -0.6082
32351SOL     OW 4167   5.447   4.116   4.437 -0.9387 -0.4884  0.1151
32351SOL    HW1 4168   5.392   4.118   4.515 -1.2654  1.2589 -0.1023
32351SOL    HW2 4169   5.430   4.200   4.394  2.1110  0.3143  0.1920
32352SOL     OW 4170   0.138   4.838   4.188  0.4093 -0.2197  0.2511
32352SOL    HW1 4171   0.164   4.761   4.239  1.4322 -0.1683 -0.1634
32352SOL    HW2 4172   0.060   4.871   4.232 -0.3343 -1.7687  0.1583
32353SOL     OW 4173   7.108   0.472  11.943  0.3986  0.6151  0.1115
32353SOL    HW1 4174   7.057   0.394  11.968  2.2624  0.0855  2.6207
32353SOL    HW2 4175   7.138   0.453  11.854  1.8952 -2.2347  1.0964
32354SOL     OW 4176   5.340  11.028   7.107 -0.3443  0.4596 -0.1579
32354SOL    HW1 4177   5.412  11.090   7.124  0.1450  0.1361 -1.0037
32354SOL    HW2 4178   5.267  11.061   7.160 -0.1326  1.8385 -0.6866
32355SOL     OW 4179   4.234   5.719   2.314  0.0453 -0.7156  0.1196
32355SOL    HW1 4180   4.145   5.741   2.339 -0.0024  0.7024 -1.1450
32355SOL    HW2 4181   4.230   5.628   2.284 -0.9405 -0.7086  0.2236
32356SOL     OW 4182  11.268   9.379   7.297  0.3910  0.1940  0.1594
32356SOL    HW1 4183  11.333   9.349   7.233  0.3765  2.0140 -0.7879
32356SOL    HW2 4184  11.213   9.440   7.248 -1.4030 -0.4987  1.2132
32357SOL     OW 4185   3.997   5.390   8.773 -0.0827 -0.0293 -0.6519
32357SOL    HW1 4186   4.091   5.402   8.760 -0.0054 -0.1041 -0.1941
32357SOL    HW2 4187   3.980   5.300   8.746  0.1622 -0.3408  0.1933
32358SOL     OW 4188   5.673   1.225  11.996 -0.0391 -0.1523 -0.6837
32358SOL    HW1 4189   5.631   1.154  11.948 -0.7303 -0.0501 -0.2475
32358SOL    HW2 4190   5.624   1.303  11.970  0.0430  0.0082 -0.3564
32359SOL     OW 4191  12.342   7.421   9.486 -0.3443  0.3820  0.0419
32359SOL    HW1 4192  12.355   7.401   9.579 -1.5994  2.1072  0.6265
32359SOL    HW2 4193  12.344   7.516   9.481 -1.4165  0.3594 -1.5193
32360SOL     OW 4194   3.423   0.704  12.724 -0.4723 -0.1398 -0.2859
32360SOL    HW1 4195   3.476   0.749  12.658 -0.8155 -0.0500 -0.4976
32360SOL    HW2 4196   3.485   0.645  12.767  0.2360  1.2512  0.7032
32361SOL     OW 4197   7.300  10.697  10.721 -0.2299  0.9100  0.4919
32361SOL    HW1 4198   7.307  10.718  10.628  1.7840 -0.8710  0.1475
32361SOL    HW2 4199   7.373  10.746  10.761  0.0484  0.2474  0.8096
32362SOL     OW 4200   8.394   4.818   3.277  0.1333  0.6957 -0.1639
32362SOL    HW1 4201   8.398   4.740   3.332  0.8452  0.0698 -1.0635
32362SOL    HW2 4202   8.420   4.890   3.334  3.1672 -0.2524 -0.2051
32363SOL     OW 4203   3.087   4.022   7.010 -0.0412 -0.4403  0.1159
32363SOL    HW1 4204   3.179   4.050   7.009 -0.2164  0.1663  0.2085
32363SOL    HW2 4205   3.072   3.994   7.101 -0.2652  0.6156  0.4295
32364SOL     OW 4206   2.600   4.101   2.723 -0.0252 -0.0670 -0.1905
32364SOL    HW1 4207   2.537   4.030   2.723 -0.4697  0.3051  1.3001
32364SOL    HW2 4208   2.551   4.177   2.753  1.3028  0.0396  1.9232
32365SOL     OW 4209  10.456   1.960   8.543 -0.2005  0.0430  0.5324
32365SOL    HW1 4210  10.480   2.005   8.624 -0.8108  0.5463  0.4446
32365SOL    HW2 4211  10.410   1.881   8.572 -1.7695  0.9713  0.7012
32366SOL     OW 4212  11.726   3.367   3.111  0.1484 -0.1006  0.0985
32366SOL    HW1 4213  11.820   3.356   3.101 -0.0492 -1.4856 -0.4478
32366SOL    HW2 4214  11.691   3.363   3.022 -0.5421 -1.0472  0.3876
32367SOL     OW 4215   7.094   3.668   6.363  0.4941  0.1230 -0.5781
32367SOL    HW1 4216   7.167   3.668   6.425  0.9433  1.0696 -1.0914
32367SOL    HW2 4217   7.124   3.616   6.289  0.3468 -0.1449 -0.4515
32368SOL     OW 4218   5.403   8.985  11.273 -0.1639 -0.1829 -0.0926
32368SOL    HW1 4219   5.442   9.072  11.281 -0.6461  0.0167  0.0630
32368SOL    HW2 4220   5.401   8.969  11.178  0.4183 -0.2524 -0.0976
32369SOL     OW 4221   6.141  11.763   4.868  0.1220 -0.1763 -0.2147
32369SOL    HW1 4222   6.167  11.742   4.778 -0.6475  0.4307 -0.5859
32369SOL    HW2 4223   6.121  11.857   4.866 -0.8095 -0.3500  0.3634
32370SOL     OW 4224   5.962   1.284   3.229 -0.2160 -0.6852 -0.3675
32370SOL    HW1 4225   5.906   1.212   3.199 -0.5968 -0.3001 -0.5840
32370SOL    HW2 4226   6.042   1.241   3.258 -1.8486 -1.6640  3.2086
32371SOL     OW 4227   0.301   6.078   1.706  0.9982 -0.5748  0.2652
32371SOL    HW1 4228   0.270   6.168   1.696  0.3732 -0.4272  2.8902
32371SOL    HW2 4229   0.277   6.053   1.795  2.2327 -2.9502  0.0363
32372SOL     OW 4230  12.401   3.506   4.442 -0.0649 -0.4043 -0.2202
32372SOL    HW1 4231  12.353   3.478   4.520  0.6272  0.7522  0.6534
32372SOL    HW2 4232  12.344   3.482   4.369 -0.8317 -1.3081  0.6510
32373SOL     OW 4233   5.563   0.446   7.860 -0.0924 -0.3399  0.3949
32373SOL    HW1 4234   5.578   0.534   7.893  0.4779 -0.6182  0.9088
32373SOL    HW2 4235   5.614   0.441   7.779  0.5225 -0.4399  0.7767
32374SOL     OW 4236   6.670  12.927   3.973  0.1949 -0.6013  0.3851
32374SOL    HW1 4237   6.634  12.998   4.026 -0.9113 -0.6337 -0.3032
32374SOL    HW2 4238   6.625  12.933   3.889  0.9431 -1.3918 -0.0953
32375SOL     OW 4239   0.126   1.505   4.323  0.1058 -0.0978  0.5873
32375SOL    HW1 4240   0.097   1.590   4.289  0.3920 -1.1742 -2.7424
32375SOL    HW2 4241   0.046   1.455   4.336  0.0004  0.2581  1.3309
32376SOL     OW 4242   9.364  10.776   2.870 -0.7615  0.3844 -0.2673
32376SOL    HW1 4243   9.402  10.809   2.789 -0.5637  0.5342 -0.1155
32376SOL    HW2 4244   9.439  10.765   2.928 -0.9537  0.6689  0.0335
32377SOL     OW 4245   6.518   3.103   2.384 -0.2802  0.2010 -0.1980
32377SOL    HW1 4246   6.436   3.123   2.430 -0.1608  1.0775 -0.3600
32377SOL    HW2 4247   6.547   3.187   2.349  0.2209 -0.2627 -0.9169
32378SOL     OW 4248   8.788  11.935  12.628 -0.8469 -0.2506  0.0633
32378SOL    HW1 4249   8.697  11.908  12.642 -0.9700  0.0842 -0.0874
32378SOL    HW2 4250   8.834  11.903  12.706 -0.8986 -1.2767 -0.3085
32379SOL     OW 4251   9.217   4.215   9.198 -0.2252  0.8676  0.3532
32379SOL    HW1 4252   9.236   4.238   9.107  1.2700  1.6594  0.8467
32379SOL    HW2 4253   9.275   4.270   9.250 -0.7110  0.0785  1.7876
32380SOL     OW 4254   8.064   1.043  12.951 -0.9355 -0.7857 -0.5361
32380SOL    HW1 4255   7.993   1.078  13.004  1.1719  1.3325  1.0499
32380SOL    HW2 4256   8.078   0.955  12.985 -3.0287 -1.4248 -1.1873
32381SOL     OW 4257   4.975   3.648   9.125  0.0100 -0.1397 -0.0211
32381SOL    HW1 4258   4.997   3.556   9.108  1.3467 -0.0830  1.2320
32381SOL    HW2 4259   5.036   3.675   9.193  0.4369  2.0431 -1.1944
32382SOL     OW 4260  11.471   0.784   7.202 -0.5347 -0.1362 -0.8750
32382SOL    HW1 4261  11.509   0.716   7.258  1.5579  1.4846 -0.1981
32382SOL    HW2 4262  11.494   0.757   7.113  0.6418 -0.1406 -0.5855
32383SOL     OW 4263  10.293  10.671  10.391 -0.9964 -0.2821 -0.2948
32383SOL    HW1 4264  10.257  10.583  10.384  1.8799 -1.5943  0.0284
32383SOL    HW2 4265  10.264  10.715  10.311 -2.2895 -1.5784 -0.5768
32384SOL     OW 4266   2.125   8.994   7.331 -0.2511 -0.0902  0.3768
32384SOL    HW1 4267   2.138   9.079   7.373  1.3262 -0.1892  0.1475
32384SOL    HW2 4268   2.169   9.003   7.246 -0.1202 -1.1155  0.3298
32385SOL     OW 4269   9.808   3.394   0.573  0.1371  0.4487 -0.1520
32385SOL    HW1 4270   9.791   3.406   0.666  2.5439 -0.5673  0.4889
32385SOL    HW2 4271   9.888   3.444   0.556  1.9692 -2.4577 -0.7101
32386SOL     OW 4272   4.527   5.205   0.107 -0.2710 -0.0265 -0.2464
32386SOL    HW1 4273   4.563   5.193   0.195  1.0072  2.9004 -0.2507
32386SOL    HW2 4274   4.432   5.208   0.120 -0.0785  0.8500  1.1614
32387SOL     OW 4275   4.790   7.235   4.718 -0.2160 -0.3170 -0.3929
32387SOL    HW1 4276   4.750   7.212   4.634 -1.1025  1.8337 -0.6358
32387SOL    HW2 4277   4.723   7.287   4.763 -0.0820 -2.0335  2.0321
32388SOL     OW 4278   1.631   8.323   9.553 -0.3447 -0.0738  0.0655
32388SOL    HW1 4279   1.688   8.247   9.541  1.2976  0.6684  2.3956
32388SOL    HW2 4280   1.608   8.321   9.646  2.3565  3.8728  1.0625
32389SOL     OW 4281   7.450   0.871   6.986 -0.1065  0.0283 -0.3724
32389SOL    HW1 4282   7.474   0.783   7.015 -0.1836  0.3156  0.6167
32389SOL    HW2 4283   7.393   0.857   6.910 -0.3446 -0.7798 -0.0542
32390SOL     OW 4284  12.478   1.299   0.351 -0.3826  0.0463 -0.6868
32390SOL    HW1 4285  12.553   1.264   0.302 -1.1369 -0.3015 -1.6141
32390SOL    HW2 4286  12.456   1.230   0.414  2.0794  1.4022  1.9186
32391SOL     OW 4287   7.373   0.561   7.631 -0.2331 -0.2923  0.3696
32391SOL    HW1 4288   7.319   0.578   7.707  0.8349 -0.7117  1.2458
32391SOL    HW2 4289   7.462   0.584   7.658 -0.0451  1.1157 -1.2824
32392SOL     OW 4290   9.703  12.051   1.866 -0.4840 -0.5731  0.1147
32392SOL    HW1 4291   9.613  12.026   1.888 -0.6967  1.0469  1.2729
32392SOL    HW2 4292   9.693  12.130   1.812  0.2292  0.4965  1.4789
32393SOL     OW 4293   8.289   9.896   6.693  0.3845  0.7728 -0.3134
32393SOL    HW1 4294   8.269   9.949   6.771  1.0524  0.1384  0.3109
32393SOL    HW2 4295   8.207   9.893   6.645 -0.6050 -0.3843  1.3377
32394SOL     OW 4296   8.087   5.783   3.826  0.0463 -0.2952  0.2151
32394SOL    HW1 4297   8.085   5.845   3.753  1.8349  0.0047  0.3737
32394SOL    HW2 4298   7.995   5.767   3.846 -0.4676  1.3069 -0.6688
32395SOL     OW 4299  10.742   8.880   1.880  0.3047  0.2710  0.2105
32395SOL    HW1 4300  10.835   8.898   1.896  0.3039  0.8661 -0.4014
32395SOL    HW2 4301  10.735   8.875   1.785 -0.2269 -0.1372  0.2712
32396SOL     OW 4302   8.614   4.477   5.939  0.1257  0.6611 -0.1322
32396SOL    HW1 4303   8.529   4.478   5.895 -0.1575  0.6853  0.4034
32396SOL    HW2 4304   8.599   4.524   6.021  0.8317  1.2827 -0.3472
32397SOL     OW 4305  11.122   7.283   6.325  0.4046  0.3435 -0.1654
32397SOL    HW1 4306  11.166   7.318   6.401 -0.7536  2.0762 -0.2384
32397SOL    HW2 4307  11.138   7.189   6.329  1.0111  0.4921  1.7725
32398SOL     OW 4308   7.439   9.293   1.380  0.1663 -0.2644 -0.1115
32398SOL    HW1 4309   7.417   9.385   1.400  0.3425 -0.1735 -0.3364
32398SOL    HW2 4310   7.357   9.246   1.394 -0.2722  0.1195 -1.2707
32399SOL     OW 4311  12.445   2.120  12.642  0.0128 -0.7365  0.0775
32399SOL    HW1 4312  12.503   2.190  12.673 -0.8160 -0.5048  1.1917
32399SOL    HW2 4313  12.452   2.123  12.547  0.4496  0.4699  0.1331
32400SOL     OW 4314   4.842   0.782   5.803  0.1547 -0.4278 -0.4516
32400SOL    HW1 4315   4.780   0.813   5.737  1.2498  1.2996 -0.7317
32400SOL    HW2 4316   4.928   0.809   5.770  0.8221 -0.4691  1.1597
32401SOL     OW 4317   5.322   3.360   7.084  1.2904  0.1030  0.0788
32401SOL    HW1 4318   5.416   3.352   7.066  1.1671 -1.7834  0.1280
32401SOL    HW2 4319   5.281   3.291   7.032  0.0065  0.3839  0.6683
32402SOL     OW 4320   8.997   2.277   8.844  0.1545 -0.0004 -0.4184
32402SOL    HW1 4321   8.967   2.342   8.907  0.3947  0.6087 -0.9187
32402SOL    HW2 4322   9.074   2.238   8.886  1.2666  1.5000 -0.9591
32403SOL     OW 4323   6.689   9.190  12.727 -0.4000  0.5990 -0.1669
32403SOL    HW1 4324   6.724   9.191  12.816  0.2856 -0.6278 -0.4001
32403SOL    HW2 4325   6.595   9.198  12.738 -0.4387 -0.7400  0.7697
32404SOL     OW 4326  12.399   6.812   5.052 -0.0578  0.2729 -0.1940
32404SOL    HW1 4327  12.393   6.744   5.119  0.2163 -0.7764 -1.2082
32404SOL    HW2 4328  12.362   6.772   4.973  0.9980  0.9548 -1.0676
32405SOL     OW 4329   9.811  12.964   6.410 -0.1856 -0.3291 -0.0968
32405SOL    HW1 4330   9.845  12.927   6.492  0.3346  1.9638  0.8060
32405SOL    HW2 4331   9.735  12.910   6.389  0.7154 -2.0843  0.9037
32406SOL     OW 4332   5.255   3.187   0.965  0.3781  0.4398  0.5565
32406SOL    HW1 4333   5.337   3.221   0.999  0.8595  1.0142 -1.0591
32406SOL    HW2 4334   5.281   3.119   0.903 -0.3162  0.7470 -0.1062
32407SOL     OW 4335  11.179   0.467   5.200  0.1379  0.5796 -0.1222
32407SOL    HW1 4336  11.271   0.440   5.209  0.6706  1.8834 -1.3777
32407SOL    HW2 4337  11.153   0.494   5.288  0.3403 -1.5586  0.6586
32408SOL     OW 4338   0.856  10.682   4.706 -0.0162  0.0666 -0.1543
32408SOL    HW1 4339   0.876  10.695   4.798  0.0836  0.1531 -0.1876
32408SOL    HW2 4340   0.780  10.624   4.705 -0.8469  1.1375  0.0085
32409SOL     OW 4341   4.153   8.975   2.183 -0.2106  0.3247 -0.2205
32409SOL    HW1 4342   4.122   9.052   2.135 -2.0990 -1.1083 -1.4445
32409SOL    HW2 4343   4.078   8.950   2.237 -0.1909 -1.4961 -0.9676
32410SOL     OW 4344   3.617   3.493  11.958 -0.0668 -0.0079  0.2652
32410SOL    HW1 4345   3.602   3.399  11.954 -2.1353  0.2148  1.1702
32410SOL    HW2 4346   3.586   3.526  11.874  2.1574 -0.2470 -0.7085
32411SOL     OW 4347   2.734   7.921   6.167  0.0527 -1.1728  0.0190
32411SOL    HW1 4348   2.683   7.988   6.120  0.7455  0.2208  1.1929
32411SOL    HW2 4349   2.710   7.933   6.259  3.3753  0.4238  0.8110
32412SOL     OW 4350   6.237  12.855  10.163  0.0674 -0.0821  0.5292
32412SOL    HW1 4351   6.299  12.799  10.211  0.2861 -1.6161 -1.4368
32412SOL    HW2 4352   6.292  12.923  10.123  0.1821 -0.1107  0.6360
32413SOL     OW 4353  11.134   9.967   3.137  0.1482 -0.1223 -0.6038
32413SOL    HW1 4354  11.052   9.994   3.180  1.3013  0.6414  1.2259
32413SOL    HW2 4355  11.106   9.907   3.068 -1.8562 -1.0610  0.9355
32414SOL     OW 4356   3.130   3.088   0.354  0.1356  0.2981 -0.3939
32414SOL    HW1 4357   3.187   3.078   0.277 -1.6431 -3.3317 -1.4294
32414SOL    HW2 4358   3.158   3.020   0.414 -0.0918  1.5418  1.1805
32415SOL     OW 4359  11.142   7.940   9.724  0.1804 -0.0847  0.8288
32415SOL    HW1 4360  11.058   7.963   9.685 -0.7824 -2.2066  1.4711
32415SOL    HW2 4361  11.173   7.866   9.671  1.1258 -0.0073  1.2537
32416SOL     OW 4362   9.591   4.683   5.382 -0.2249  0.0009  0.1804
32416SOL    HW1 4363   9.661   4.652   5.324  0.3843  0.4744  0.6533
32416SOL    HW2 4364   9.618   4.655   5.469 -1.2225 -0.8556  0.2239
32417SOL     OW 4365   3.961   9.491   0.132 -0.0998  0.4151 -0.6301
32417SOL    HW1 4366   3.943   9.514   0.041 -1.3487  1.1740 -0.2122
32417SOL    HW2 4367   3.963   9.574   0.179 -3.9839 -0.0703  0.7751
32418SOL     OW 4368  12.944  10.179   8.604  0.1361 -0.4841  0.1545
32418SOL    HW1 4369  12.869  10.232   8.634  0.6020  0.4563 -0.2878
32418SOL    HW2 4370  12.967  10.125   8.679 -1.5544 -1.4655  0.0222
32419SOL     OW 4371   6.536   2.398   4.241  0.5560 -0.3396 -0.2227
32419SOL    HW1 4372   6.469   2.438   4.296  1.3985  0.5138  0.2099
32419SOL    HW2 4373   6.597   2.470   4.222  1.2450 -1.0556 -0.7687
32420SOL     OW 4374   9.713   6.009   8.945 -0.0867 -0.5660  0.2502
32420SOL    HW1 4375   9.635   6.065   8.943  0.5650  0.3468 -0.2586
32420SOL    HW2 4376   9.774   6.051   8.885  0.4354 -1.8225 -0.1313
32421SOL     OW 4377   1.156   3.454  10.566 -0.1398  0.5280  0.4531
32421SOL    HW1 4378   1.127   3.385  10.507 -2.2332 -0.0641  2.0440
32421SOL    HW2 4379   1.216   3.410  10.627  0.7415  0.7758 -0.2194
32422SOL     OW 4380   9.688   5.406  12.506  0.5296 -1.1137  0.0827
32422SOL    HW1 4381   9.702   5.451  12.423  0.7394 -0.7045  0.3404
32422SOL    HW2 4382   9.745   5.450  12.568  0.7598 -1.7524  0.3354
32423SOL     OW 4383  12.356   7.431  12.097 -0.1393 -0.1139  0.2727
32423SOL    HW1 4384  12.366   7.517  12.138 -0.8608  0.1635 -0.1046
32423SOL    HW2 4385  12.275   7.438  12.046 -0.5008 -1.1811  0.6591
32424SOL     OW 4386   2.333   4.835   0.793  0.1532  0.2429 -0.3561
32424SOL    HW1 4387   2.286   4.806   0.715  1.4389  0.2309 -1.1556
32424SOL    HW2 4388   2.309   4.772   0.861 -0.4638 -0.1360 -0.9176
32425SOL     OW 4389   3.993  10.628   8.572 -0.3792  0.4272  0.2428
32425SOL    HW1 4390   3.963  10.614   8.661  0.8128  1.2213  0.7989
32425SOL    HW2 4391   4.078  10.584   8.568 -0.0807  1.0344 -0.2660
32426SOL     OW 4392   1.043  10.525   9.288  0.1140  0.3663 -0.7478
32426SOL    HW1 4393   1.043  10.575   9.369  0.5722 -0.9837  0.1323
32426SOL    HW2 4394   1.012  10.438   9.315  0.1207 -0.0553 -2.0524
32427SOL     OW 4395   8.160   4.582   3.988 -0.2498 -0.2519 -0.0849
32427SOL    HW1 4396   8.207   4.598   3.907 -0.1470 -0.1431 -0.0037
32427SOL    HW2 4397   8.148   4.487   3.991  0.7258 -0.3746  0.3174
32428SOL     OW 4398  12.229   4.119   9.190 -0.6723  0.0993 -0.9380
32428SOL    HW1 4399  12.160   4.099   9.254  0.1967 -1.3960 -0.4127
32428SOL    HW2 4400  12.213   4.209   9.164 -1.8079  0.3214  0.4430
32429SOL     OW 4401   5.895  11.424  11.598  0.1494  0.1216 -0.2561
32429SOL    HW1 4402   5.913  11.483  11.672 -0.0464  0.6722 -0.6369
32429SOL    HW2 4403   5.923  11.338  11.628 -1.2522  0.0675  0.9987
32430SOL     OW 4404   4.557   2.269  10.947 -0.2488 -0.1538 -0.0800
32430SOL    HW1 4405   4.483   2.212  10.926 -0.0322  0.0478 -1.4866
32430SOL    HW2 4406   4.632   2.210  10.953 -0.4733 -0.3361  1.1724
32431SOL     OW 4407   9.489   8.194   2.473  0.3884  0.4128 -0.5922
32431SOL    HW1 4408   9.424   8.263   2.481  0.5827  0.5928 -0.5713
32431SOL    HW2 4409   9.496   8.158   2.562 -0.3364 -0.2065 -0.7729
32432SOL     OW 4410   8.056   1.991   9.265 -0.3274 -0.2592 -0.1023
32432SOL    HW1 4411   8.053   1.927   9.335 -1.7934 -1.0409 -0.8442
32432SOL    HW2 4412   8.006   2.066   9.299  0.4786  0.0920  0.3476
32433SOL     OW 4413  12.545   1.641   9.188  0.0794 -0.4514  0.4725
32433SOL    HW1 4414  12.570   1.587   9.112  0.6374  1.0000 -0.4270
32433SOL    HW2 4415  12.486   1.707   9.152 -2.0791 -1.4936  1.8929
32434SOL     OW 4416   4.588   3.851   9.536  0.3571  0.2504  0.0934
32434SOL    HW1 4417   4.651   3.863   9.465 -0.2296 -1.3693 -0.7468
32434SOL    HW2 4418   4.503   3.864   9.495  0.0614  0.8831  0.8755
32435SOL     OW 4419   7.420   1.419   8.484 -0.1838 -0.2457 -0.1733
32435SOL    HW1 4420   7.433   1.327   8.463  1.2491  0.4178 -2.6411
32435SOL    HW2 4421   7.363   1.419   8.561 -0.2828 -3.1566 -0.1539
32436SOL     OW 4422  11.587   6.053  10.008 -0.1154  0.8007 -0.0694
32436SOL    HW1 4423  11.673   6.091   9.994 -0.1485  2.0391  2.5496
32436SOL    HW2 4424  11.527   6.108   9.957  0.3045  1.7737  0.4792
32437SOL     OW 4425   6.937  10.633  10.270  0.1619 -0.4885 -0.3246
32437SOL    HW1 4426   6.906  10.574  10.339  1.7083 -0.5168  0.3855
32437SOL    HW2 4427   6.900  10.718  10.294 -0.0240 -0.6706  0.0493
32438SOL     OW 4428   9.251   0.345   2.233 -0.2899 -0.1106  0.1134
32438SOL    HW1 4429   9.306   0.270   2.210  0.2118  0.1745  0.3667
32438SOL    HW2 4430   9.183   0.347   2.166  0.8404  0.3858 -1.0676
32439SOL     OW 4431   8.123  11.134   3.837  0.4824 -0.0704 -0.9118
32439SOL    HW1 4432   8.114  11.216   3.885  1.7923 -0.3360 -0.1580
32439SOL    HW2 4433   8.098  11.066   3.899 -0.1231 -0.2780 -1.3761
32440SOL     OW 4434   6.623   3.196   5.765 -0.6928  0.1340 -0.2650
32440SOL    HW1 4435   6.546   3.174   5.713 -0.0942  0.3395 -1.2619
32440SOL    HW2 4436   6.596   3.180   5.855 -1.8908  0.1800 -0.5964
32441SOL     OW 4437   1.817   9.252   5.499 -0.1738 -0.6125 -0.1750
32441SOL    HW1 4438   1.769   9.169   5.504 -0.3726 -0.4159  3.9147
32441SOL    HW2 4439   1.751   9.319   5.517  0.2451  0.4148 -2.1640
32442SOL     OW 4440  11.525   1.316   5.697  0.0680  0.0833  0.2500
32442SOL    HW1 4441  11.459   1.342   5.632  0.5625 -0.3463 -0.4337
32442SOL    HW2 4442  11.595   1.381   5.686  1.2878 -1.4139 -1.4280
32443SOL     OW 4443   4.453   2.857   9.982 -0.1555 -0.1091  0.1243
32443SOL    HW1 4444   4.442   2.809  10.064  1.8626  1.0264  1.1220
32443SOL    HW2 4445   4.542   2.837   9.954 -0.4487  0.3901 -1.2457
32444SOL     OW 4446   2.814   8.402   8.086  0.1322  0.2014 -0.7364
32444SOL    HW1 4447   2.741   8.427   8.143  0.7792 -0.4646  0.4027
32444SOL    HW2 4448   2.857   8.485   8.065 -2.0297  0.8981 -3.0389
32445SOL     OW 4449   4.925   7.660   5.893  0.2551 -0.0007 -0.0548
32445SOL    HW1 4450   4.907   7.754   5.896 -0.6615 -0.1869  1.3575
32445SOL    HW2 4451   5.021   7.654   5.889  0.2995  0.9858 -0.7900
32446SOL     OW 4452   7.697  11.922  10.015  0.0918  0.4182  0.0822
32446SOL    HW1 4453   7.661  11.958  10.096 -1.3518  0.1495 -0.4142
32446SOL    HW2 4454   7.757  11.853  10.044  0.4509  1.0804  0.9413
32447SOL     OW 4455   7.804   8.596  10.607 -0.1267  0.7221 -0.1845
32447SOL    HW1 4456   7.826   8.562  10.694  1.4186  0.8142 -0.5120
32447SOL    HW2 4457   7.776   8.686  10.623 -0.6831  0.4652  0.3040
32448SOL     OW 4458   7.894   7.509   0.463  0.0807 -0.2410  0.0138
32448SOL    HW1 4459   7.821   7.569   0.453  0.8595  0.6368 -0.5884
32448SOL    HW2 4460   7.971   7.560   0.438  1.0813 -0.7396  1.8919
32449SOL     OW 4461   2.739   9.399   4.891 -0.4355 -0.3029 -0.0897
32449SOL    HW1 4462   2.714   9.427   4.803 -0.9310  0.6912  0.3530
32449SOL    HW2 4463   2.804   9.330   4.877 -0.4537 -0.1011 -1.2285
32450SOL     OW 4464   6.174   4.627   5.552  0.2928  0.2152 -0.2678
32450SOL    HW1 4465   6.082   4.615   5.574  0.4184  1.3186  0.9825
32450SOL    HW2 4466   6.205   4.694   5.613  1.7709  0.3163 -1.0764
32451SOL     OW 4467  10.487   3.285   1.382  0.0751 -0.1488  0.0856
32451SOL    HW1 4468  10.452   3.203   1.418 -1.7290  0.3168 -0.4981
32451SOL    HW2 4469  10.538   3.258   1.306 -0.1266 -0.7709  0.1633
32452SOL     OW 4470   1.650   8.304   1.898  0.1823  0.0973  0.0637
32452SOL    HW1 4471   1.575   8.258   1.935 -0.7139  0.4330 -1.2662
32452SOL    HW2 4472   1.678   8.365   1.966  0.9775 -1.8773  1.6168
32453SOL     OW 4473   0.014   9.995   9.222  0.2692 -0.4048  0.4560
32453SOL    HW1 4474   0.079   9.990   9.152 -1.2427 -2.7624 -0.9245
32453SOL    HW2 4475   0.057   9.956   9.298  1.4842  0.9998  0.5450
32454SOL     OW 4476   0.308   9.153   7.066  0.6046  0.6101  0.2968
32454SOL    HW1 4477   0.269   9.066   7.078 -0.1676  0.4433 -2.6338
32454SOL    HW2 4478   0.402   9.135   7.053  0.4360  0.2001 -0.3871
32455SOL     OW 4479   1.038   6.122   3.478  0.0162  0.1384  0.0248
32455SOL    HW1 4480   1.132   6.117   3.459  0.5286 -0.0298  2.2994
32455SOL    HW2 4481   1.016   6.036   3.513 -0.5226  0.7328  1.2368
32456SOL     OW 4482  10.109  12.436   4.936 -0.2323  0.5560  0.3521
32456SOL    HW1 4483  10.114  12.531   4.930 -1.7206  0.6405 -0.0119
32456SOL    HW2 4484  10.190  12.410   4.979  0.2575  1.9696  0.3367
32457SOL     OW 4485  12.808   1.631   4.343  0.8585 -0.1859  0.1656
32457SOL    HW1 4486  12.856   1.673   4.415  1.9838  1.0335 -1.2448
32457SOL    HW2 4487  12.825   1.686   4.267 -0.9182 -1.0314 -0.9049
32458SOL     OW 4488  10.245  12.432   2.926  0.3548 -0.2211  0.1360
32458SOL    HW1 4489  10.211  12.371   2.860 -0.6821  0.1340  0.3251
32458SOL    HW2 4490  10.310  12.381   2.974 -0.0688 -1.0048 -0.1019
32459SOL     OW 4491   4.608  10.340  11.283 -0.1839 -0.3681 -0.3741
32459SOL    HW1 4492   4.592  10.424  11.327  0.4391 -0.4431  0.0117
32459SOL    HW2 4493   4.597  10.359  11.190  0.5568  0.2977 -0.3429
32460SOL     OW 4494   7.166   4.570   5.876  0.2882  0.7252  0.3939
32460SOL    HW1 4495   7.205   4.504   5.934 -0.3525  1.0374  1.2044
32460SOL    HW2 4496   7.086   4.530   5.844  1.4133 -0.0671 -1.5857
32461SOL     OW 4497   6.992   1.081   4.351  0.1111  0.2441  0.4045
32461SOL    HW1 4498   6.924   1.108   4.290  1.7921 -0.3026 -1.8694
32461SOL    HW2 4499   7.055   1.153   4.350  0.6302 -0.1941  0.7239
32462SOL     OW 4500   0.977   2.459   2.379 -0.1607 -0.2070  0.3775
32462SOL    HW1 4501   1.055   2.503   2.343 -0.2276 -1.0366 -0.8518
32462SOL    HW2 4502   0.905   2.492   2.325 -0.5441 -0.1168  0.9397
32463SOL     OW 4503   9.881  12.188   8.552  0.9117 -0.2664  0.0329
32463SOL    HW1 4504   9.856  12.096   8.549  1.0946 -0.3006 -1.3972
32463SOL    HW2 4505   9.977  12.187   8.549  0.9638 -0.0454  1.2755
32464SOL     OW 4506   5.037   1.567   4.062  0.2582 -0.1394  0.7665
32464SOL    HW1 4507   5.109   1.509   4.039 -1.6828 -1.9910 -1.1178
32464SOL    HW2 4508   5.068   1.614   4.139  2.9662 -1.7165  0.7781
32465SOL     OW 4509  10.404   1.685  10.743  0.0699  0.1853  0.3563
32465SOL    HW1 4510  10.317   1.706  10.778  0.5276  2.1350  0.4448
32465SOL    HW2 4511  10.387   1.650  10.656 -0.7802  1.2027  0.0960
32466SOL     OW 4512   4.389  12.794  11.356  0.2334 -0.0463  0.0200
32466SOL    HW1 4513   4.309  12.765  11.311  0.7382  0.4109 -1.2372
32466SOL    HW2 4514   4.359  12.862  11.416 -0.3483  0.0661 -0.3833
32467SOL     OW 4515   8.509  12.286   1.153  0.0324  0.2573 -0.3238
32467SOL    HW1 4516   8.442  12.341   1.194 -0.5230 -0.9565  0.4571
32467SOL    HW2 4517   8.463  12.244   1.080 -0.0509 -0.5023  0.1540
32468SOL     OW 4518  12.815   7.625   2.063 -0.1092  0.3041  0.3833
32468SOL    HW1 4519  12.887   7.574   2.098 -0.0492  0.3255  0.2914
32468SOL    HW2 4520  12.745   7.616   2.127 -0.1759 -0.0778  0.2613
32469SOL     OW 4521   6.473   8.775   8.356 -0.0968 -0.3474 -0.0858
32469SOL    HW1 4522   6.399   8.782   8.416  0.2854  1.4248  0.2151
32469SOL    HW2 4523   6.458   8.692   8.310 -1.7774 -0.4657  0.5983
32470SOL     OW 4524  12.285   6.157   2.922 -0.3354  0.2562  0.1289
32470SOL    HW1 4525  12.328   6.119   2.845 -1.4578 -0.6493 -0.0668
32470SOL    HW2 4526  12.356   6.200   2.969  0.6513 -0.5209 -0.5916
32471SOL     OW 4527   2.937   0.526   6.487 -0.4449  0.9731 -0.1357
32471SOL    HW1 4528   3.026   0.560   6.483  0.1224 -0.5945 -2.0240
32471SOL    HW2 4529   2.947   0.437   6.521 -1.1627  0.4749 -1.1767
32472SOL     OW 4530   3.667  12.708   6.611  0.2761  0.5515  0.3348
32472SOL    HW1 4531   3.686  12.647   6.540 -0.0868 -0.7711  1.3247
32472SOL    HW2 4532   3.749  12.755   6.624  1.4127 -1.4961  1.1635
32473SOL     OW 4533   6.556  10.474   5.575 -0.2107 -0.2264  0.0304
32473SOL    HW1 4534   6.529  10.563   5.552  0.5937 -0.4392 -1.8774
32473SOL    HW2 4535   6.631  10.456   5.519 -0.4739 -2.1967  0.2359
32474SOL     OW 4536   8.693   5.799   3.352  0.3622 -0.1149  0.0347
32474SOL    HW1 4537   8.667   5.862   3.286 -0.7433  0.2260  0.7728
32474SOL    HW2 4538   8.761   5.746   3.310  0.4446  0.7859 -0.9888
32475SOL     OW 4539   3.986   7.098   1.281  0.2076  0.4658 -0.1328
32475SOL    HW1 4540   3.932   7.177   1.292  0.4022  0.7905 -1.3988
32475SOL    HW2 4541   4.069   7.130   1.246 -0.1199 -0.3941 -1.7917
32476SOL     OW 4542  10.563   3.298   3.884 -0.3473 -0.3184  0.2360
32476SOL    HW1 4543  10.473   3.314   3.912  0.1431  1.2085  1.0924
32476SOL    HW2 4544  10.602   3.386   3.878  0.3335 -0.7156 -2.8198
32477SOL     OW 4545   2.824   5.601   4.031  0.8920 -0.3533 -0.5645
32477SOL    HW1 4546   2.819   5.570   4.121 -0.2878 -0.9476 -0.8205
32477SOL    HW2 4547   2.747   5.657   4.020  0.5031 -1.0375 -1.4715
32478SOL     OW 4548   5.614   5.972   3.607  0.4527  0.0275  0.1600
32478SOL    HW1 4549   5.541   6.033   3.616  0.4967  0.0522  0.3540
32478SOL    HW2 4550   5.587   5.913   3.536 -0.4464 -0.9365  1.2658
32479SOL     OW 4551   3.777   3.969   5.435 -0.3803  0.5930 -0.2422
32479SOL    HW1 4552   3.788   4.063   5.453 -0.2005  0.7827 -1.3050
32479SOL    HW2 4553   3.685   3.952   5.454  0.0069  0.5353  1.8719
32480SOL     OW 4554  12.782   1.105   4.032  1.0030 -1.2128  0.4015
32480SOL    HW1 4555  12.844   1.175   4.051  0.6324  0.0096 -2.4873
32480SOL    HW2 4556  12.823   1.053   3.963 -0.8259 -0.7405 -1.1443
32481SOL     OW 4557   2.873   4.170   2.755 -0.2554 -0.1066  0.4991
32481SOL    HW1 4558   2.872   4.249   2.809  0.0761  0.3264 -0.1152
32481SOL    HW2 4559   2.781   4.145   2.746 -0.4005  0.5168  0.2512
32482SOL     OW 4560   7.063   8.779   2.015 -0.1951  0.5505  0.3015
32482SOL    HW1 4561   7.158   8.779   2.001  0.1090  0.7472  2.0742
32482SOL    HW2 4562   7.049   8.710   2.080 -1.3765 -0.0102 -0.5331
32483SOL     OW 4563   5.266   7.366  11.779 -0.0081 -0.0827 -0.2394
32483SOL    HW1 4564   5.322   7.440  11.801  2.8891 -1.4866 -2.2893
32483SOL    HW2 4565   5.283   7.301  11.847 -0.1115 -0.0701 -0.2003
32484SOL     OW 4566   9.599  12.904   1.758 -0.1416  0.1937 -0.1106
32484SOL    HW1 4567   9.555  12.833   1.710  1.2233  0.6106 -2.1244
32484SOL    HW2 4568   9.691  12.878   1.762  0.3850  1.7851 -0.8573
32485SOL     OW 4569  12.940   0.714   6.223  0.2858  0.7905  0.2935
32485SOL    HW1 4570  12.974   0.697   6.135  0.5598 -0.8479  0.6829
32485SOL    HW2 4571  13.000   0.778   6.260  0.7663  0.7207 -0.3487
32486SOL     OW 4572  12.857   5.930   9.525 -0.1429 -0.6926  0.4105
32486SOL    HW1 4573  12.801   5.974   9.461  1.4350  0.3174 -0.3520
32486SOL    HW2 4574  12.804   5.926   9.605 -0.3766  2.8369  0.6031
32487SOL     OW 4575   8.189   4.320  11.066 -0.3593  0.3411 -0.2648
32487SOL    HW1 4576   8.226   4.386  11.008 -1.4580  0.1386 -1.2433
32487SOL    HW2 4577   8.094   4.332  11.058 -0.5540 -0.7292  0.2739
32488SOL     OW 4578  11.467   0.428   1.204 -0.0099  0.2574 -0.2511
32488SOL    HW1 4579  11.548   0.394   1.168  0.3007  1.4756 -0.7679
32488SOL    HW2 4580  11.484   0.437   1.298 -0.1735 -1.1471 -0.0697
32489SOL     OW 4581  10.550   8.895   8.255  0.7760 -0.0745 -0.0380
32489SOL    HW1 4582  10.630   8.916   8.206  1.5337 -1.2115  0.6648
32489SOL    HW2 4583  10.486   8.872   8.188  0.4691  2.4847 -0.7301
32490SOL     OW 4584   2.324   9.176  11.186  0.1290  0.0885 -0.4568
32490SOL    HW1 4585   2.374   9.183  11.268  0.0280 -1.7993 -0.1991
32490SOL    HW2 4586   2.350   9.254  11.136  1.9735  0.0829  0.3976
32491SOL     OW 4587   3.413   3.439   6.767 -0.2419  0.2967  0.2245
32491SOL    HW1 4588   3.404   3.519   6.716 -1.3229  0.6147  0.8876
32491SOL    HW2 4589   3.378   3.370   6.710  1.7742  0.0515 -0.8258
32492SOL     OW 4590   1.817   0.560  10.919  0.2680  0.0586  0.0735
32492SOL    HW1 4591   1.850   0.545  10.830 -0.9657 -0.3135 -0.3314
32492SOL    HW2 4592   1.857   0.643  10.945 -0.2167  0.7367 -1.2526
32493SOL     OW 4593   4.721   9.960   1.857 -0.3093 -0.2907  0.2320
32493SOL    HW1 4594   4.784  10.027   1.883 -1.6811  1.4638 -0.7165
32493SOL    HW2 4595   4.635  10.000   1.876 -1.1933 -1.3423 -1.3403
32494SOL     OW 4596  11.075   1.894   6.250  0.4432 -0.2116  0.4685
32494SOL    HW1 4597  11.094   1.801   6.240 -1.0925 -0.6011  0.9697
32494SOL    HW2 4598  11.066   1.907   6.344  0.2886  0.3828  0.3770
32495SOL     OW 4599  12.280   3.601   5.970  0.2452  0.7893 -0.3411
32495SOL    HW1 4600  12.241   3.598   6.058 -2.7441 -1.6130 -1.5266
32495SOL    HW2 4601  12.266   3.690   5.940 -3.0448  0.5434  0.0394
32496SOL     OW 4602   6.642  10.467   3.308  0.0213  0.1737  0.0277
32496SOL    HW1 4603   6.711  10.422   3.258  0.4319  1.0031 -0.1650
32496SOL    HW2 4604   6.644  10.425   3.394  1.3749  0.7617  0.3067
32497SOL     OW 4605   4.337   9.534  10.758 -0.0122 -0.1288 -0.2329
32497SOL    HW1 4606   4.340   9.538  10.662 -1.6379 -1.0971 -0.3656
32497SOL    HW2 4607   4.346   9.441  10.778 -0.0894  0.0250  0.5459
32498SOL     OW 4608   0.379   6.110   2.149  0.2710 -0.6208 -0.4604
32498SOL    HW1 4609   0.331   6.085   2.070  1.1842 -2.4872 -0.4649
32498SOL    HW2 4610   0.435   6.182   2.120 -1.3762  0.5949 -0.8071
32499SOL     OW 4611   5.852   4.435   1.608 -0.4334 -0.0571 -0.0269
32499SOL    HW1 4612   5.924   4.493   1.631 -0.2579 -0.5634  0.7361
32499SOL    HW2 4613   5.819   4.470   1.525 -1.0142  1.7805  0.9021
32500SOL     OW 4614   4.436   1.524   2.714  0.0548 -0.0727 -0.0725
32500SOL    HW1 4615   4.369   1.530   2.645  1.4704 -0.4826 -1.5333
32500SOL    HW2 4616   4.447   1.615   2.743 -0.2511  0.1718 -0.6940
32501SOL     OW 4617  12.643   8.385  12.444 -0.0138  0.3205 -0.4347
32501SOL    HW1 4618  12.656   8.343  12.529  1.3249  0.0407 -0.7496
32501SOL    HW2 4619  12.729   8.421  12.422 -0.6156  1.3882 -1.1565
32502SOL     OW 4620   5.914  10.114   3.850  0.0088 -0.4396  0.0151
32502SOL    HW1 4621   5.954  10.093   3.766 -0.5100 -0.9453 -0.1107
32502SOL    HW2 4622   5.961  10.192   3.880  2.1886 -1.8863  0.6326
32503SOL     OW 4623   1.657   1.729  12.225 -0.8026  0.6124  0.5186
32503SOL    HW1 4624   1.743   1.713  12.265  0.1853  0.4439 -1.5369
32503SOL    HW2 4625   1.602   1.759  12.298  0.8761  0.3394  1.9713
32504SOL     OW 4626  12.275   8.341   5.446  0.4430 -0.3330  0.1747
32504SOL    HW1 4627  12.370   8.330   5.438  0.2489 -1.3059 -1.1282
32504SOL    HW2 4628  12.257   8.424   5.401  0.4767 -1.1284 -1.3767
32505SOL     OW 4629   2.396   3.461   9.383  0.2840 -0.3097 -0.0719
32505SOL    HW1 4630   2.451   3.383   9.394  1.0322  0.5394  3.6192
32505SOL    HW2 4631   2.309   3.434   9.411 -0.7895 -0.9755 -3.5367
32506SOL     OW 4632   7.960   2.405   5.745 -0.0476  0.0537  0.0334
32506SOL    HW1 4633   7.898   2.469   5.780 -0.1117  0.1389 -0.2315
32506SOL    HW2 4634   7.948   2.411   5.650  0.9476  0.6598 -0.0626
32507SOL     OW 4635   1.351  10.034   6.554  0.2595  0.4718 -0.0132
32507SOL    HW1 4636   1.340  10.054   6.461 -0.2422  0.8124  0.1112
32507SOL    HW2 4637   1.273   9.983   6.577  1.7596 -2.2054 -0.4506
32508SOL     OW 4638   8.892  10.163   1.070  0.7917  0.2476 -0.1189
32508SOL    HW1 4639   8.877  10.246   1.024 -0.4436 -0.8007 -1.7013
32508SOL    HW2 4640   8.831  10.165   1.143  0.8328  0.7736 -0.0957
32509SOL     OW 4641  11.443  10.060   8.350  0.6328  0.0648 -0.2631
32509SOL    HW1 4642  11.538  10.057   8.353  0.6625  1.0915  0.2767
32509SOL    HW2 4643  11.423  10.125   8.282  0.3377  0.4409  0.1750
32510SOL     OW 4644   1.043   4.763   5.914  0.0036 -0.2437  0.3023
32510SOL    HW1 4645   1.100   4.830   5.951 -0.8726 -0.2950  1.8465
32510SOL    HW2 4646   0.996   4.727   5.990 -0.3571 -1.8309 -0.6218
32511SOL     OW 4647   9.461   1.332   8.383 -0.0128  0.8570 -0.2998
32511SOL    HW1 4648   9.415   1.273   8.442  1.1430 -0.3120 -0.5209
32511SOL    HW2 4649   9.519   1.383   8.440 -0.4056  1.2145 -0.2090
32512SOL     OW 4650   2.361   6.694   4.318 -0.4828 -0.4257  0.1496
32512SOL    HW1 4651   2.277   6.690   4.364 -1.3772 -0.0069 -1.3823
32512SOL    HW2 4652   2.361   6.616   4.263 -0.2422  0.0042 -0.4634
32513SOL     OW 4653  12.262   8.504   1.937 -0.3088  0.2240 -0.5561
32513SOL    HW1 4654  12.178   8.520   1.978 -0.0787  1.6312 -0.5614
32513SOL    HW2 4655  12.319   8.573   1.971  0.6910 -0.3594 -0.9820
32514SOL     OW 4656   0.622   1.680  11.430 -0.9453 -0.0489 -0.1123
32514SOL    HW1 4657   0.588   1.768  11.447 -0.8343 -0.0807  0.2725
32514SOL    HW2 4658   0.675   1.691  11.351 -2.9026 -0.2667 -1.5367
32515SOL     OW 4659   5.469  11.449  10.495 -0.3891  0.7066  0.0005
32515SOL    HW1 4660   5.375  11.452  10.514  0.0470  0.0618  2.5165
32515SOL    HW2 4661   5.501  11.536  10.521 -0.2392  0.8590 -0.6723
32516SOL     OW 4662  12.393   2.533   5.271  0.4495  0.2817 -0.1312
32516SOL    HW1 4663  12.349   2.558   5.189 -0.4738  1.9870  0.8270
32516SOL    HW2 4664  12.486   2.541   5.252  0.3190 -0.8824 -1.4485
32517SOL     OW 4665   4.967   7.008  11.579 -0.3751 -0.2752  0.1245
32517SOL    HW1 4666   5.014   7.089  11.558  1.0784 -0.7531  1.3910
32517SOL    HW2 4667   5.026   6.938  11.552 -2.4481 -1.0594 -2.9171
32518SOL     OW 4668  11.411   9.909  11.721  0.4538  1.1657  0.2855
32518SOL    HW1 4669  11.342   9.844  11.728  1.6286 -0.0541  1.0162
32518SOL    HW2 4670  11.366   9.990  11.699 -1.0295  0.0650 -0.9282
32519SOL     OW 4671   1.336  12.460   4.350  0.0737  0.3503  0.2614
32519SOL    HW1 4672   1.302  12.441   4.262  1.9473 -0.8589 -0.2582
32519SOL    HW2 4673   1.261  12.497   4.397 -0.9316  1.2365 -1.8940
32520SOL     OW 4674   5.404   1.461   0.260  0.4048 -0.5284  0.1572
32520SOL    HW1 4675   5.498   1.481   0.252  1.0326 -2.6815  1.3948
32520SOL    HW2 4676   5.368   1.536   0.308  1.8069 -0.3777  1.0435
32521SOL     OW 4677  11.013   7.940   8.263 -0.0310  0.8303 -0.3329
32521SOL    HW1 4678  10.920   7.920   8.272 -0.1684  0.5315 -2.0181
32521SOL    HW2 4679  11.030   7.935   8.169  1.9838 -0.5015  0.0174
32522SOL     OW 4680   1.964  10.305  11.554 -0.6446 -0.1986  0.1146
32522SOL    HW1 4681   1.990  10.294  11.646 -1.6126  0.8287  0.5286
32522SOL    HW2 4682   1.950  10.399  11.544 -0.6357 -0.3099 -1.0791
32523SOL     OW 4683   8.068   0.579  12.505 -0.2048  0.1845  0.2430
32523SOL    HW1 4684   8.090   0.486  12.500 -0.1648  0.2029  0.0490
32523SOL    HW2 4685   8.144   0.623  12.467 -0.5241  0.2542 -0.3340
32524SOL     OW 4686   2.330   8.292   9.031 -0.3056  0.0526 -0.2644
32524SOL    HW1 4687   2.362   8.376   9.065  0.2133 -0.1325 -0.2941
32524SOL    HW2 4688   2.329   8.303   8.936  2.3146 -0.8420 -0.4788
32525SOL     OW 4689   0.329   0.389  12.435  0.1210 -0.4521 -0.5280
32525SOL    HW1 4690   0.386   0.353  12.502  1.8120  1.0261 -1.0828
32525SOL    HW2 4691   0.345   0.333  12.358  1.4846  0.3872 -0.9042
32526SOL     OW 4692   6.276  12.786   4.250 -0.2056 -0.0601  0.1253
32526SOL    HW1 4693   6.187  12.749   4.248 -0.0884 -0.4152  0.9440
32526SOL    HW2 4694   6.311  12.770   4.162 -0.2506 -1.6875  0.3765
32527SOL     OW 4695   7.435   4.497   3.704  0.0252 -0.1013 -0.0717
32527SOL    HW1 4696   7.379   4.530   3.633 -1.0989  2.6233  1.9162
32527SOL    HW2 4697   7.376   4.441   3.756  0.0550  0.1544  0.2385
32528SOL     OW 4698   3.433   5.738   3.109  0.3882  0.6006  0.3736
32528SOL    HW1 4699   3.411   5.646   3.126 -0.0607  1.0801  2.6886
32528SOL    HW2 4700   3.516   5.734   3.061  1.2631 -1.0152  1.8993
32529SOL     OW 4701   1.105   8.202   8.829 -0.0538  0.5290 -0.1814
32529SOL    HW1 4702   1.160   8.267   8.873 -0.1792  0.0186  0.7643
32529SOL    HW2 4703   1.166   8.133   8.803  0.2481  1.4726 -2.1390
32530SOL     OW 4704  10.506   6.265   9.294  0.0036 -0.1254  0.1461
32530SOL    HW1 4705  10.595   6.237   9.275  0.5895  0.8855  1.2620
32530SOL    HW2 4706  10.453   6.186   9.281  1.1658 -0.9534  0.2529
32531SOL     OW 4707   9.954   7.257  12.320  0.1924  0.6342 -0.2189
32531SOL    HW1 4708   9.949   7.328  12.256 -1.5039 -0.1439 -1.0173
32531SOL    HW2 4709   9.968   7.179  12.267 -3.6808 -0.3835 -0.0194
32532SOL     OW 4710   4.248   2.204   7.646 -0.3341  0.3595 -0.3993
32532SOL    HW1 4711   4.171   2.210   7.590 -0.4150  1.1977 -0.2117
32532SOL    HW2 4712   4.291   2.289   7.638 -0.0119  0.2777  0.3259
32533SOL     OW 4713   5.229  10.524   8.511 -0.2306 -0.7018  0.3152
32533SOL    HW1 4714   5.310  10.514   8.561 -0.1366 -0.5337  0.1970
32533SOL    HW2 4715   5.237  10.462   8.439  1.0883  1.2683 -1.3814
32534SOL     OW 4716   2.990   1.771   3.820  0.2869 -0.3308  0.2492
32534SOL    HW1 4717   2.943   1.832   3.763 -0.0304 -0.8928 -0.0970
32534SOL    HW2 4718   3.002   1.819   3.902 -0.0310  0.1674  0.0070
32535SOL     OW 4719   8.121   8.204   3.047 -0.2403  0.5283 -0.0629
32535SOL    HW1 4720   8.098   8.157   3.128 -0.2593 -0.3493 -0.5589
32535SOL    HW2 4721   8.079   8.152   2.978 -1.0288  1.8037 -0.5663
32536SOL     OW 4722   4.353   4.560   7.511 -0.2260  0.1743  0.8386
32536SOL    HW1 4723   4.363   4.607   7.594  0.5512  0.1062  0.7844
32536SOL    HW2 4724   4.311   4.478   7.536  1.9473 -0.8012  1.5007
32537SOL     OW 4725  12.036   2.521   1.897  0.5012 -0.2780 -0.1119
32537SOL    HW1 4726  12.124   2.523   1.935  1.1477  0.9675 -1.5508
32537SOL    HW2 4727  12.016   2.428   1.888  1.1726 -0.5836  1.3083
32538SOL     OW 4728   9.402  11.464   9.429 -0.5726 -0.1144 -0.2974
32538SOL    HW1 4729   9.357  11.455   9.513  0.5282 -0.3661  0.2901
32538SOL    HW2 4730   9.410  11.558   9.416  0.6664 -0.0421  0.7077
32539SOL     OW 4731   8.444   9.368   4.737  0.0219  0.4436 -0.0870
32539SOL    HW1 4732   8.529   9.383   4.778  0.5164 -1.2921 -0.4112
32539SOL    HW2 4733   8.463   9.311   4.663 -1.5178 -0.6294  0.3081
32540SOL     OW 4734   3.592   2.645   5.669 -0.6991  0.5610  0.7440
32540SOL    HW1 4735   3.507   2.686   5.681 -0.5514  0.5975  1.7955
32540SOL    HW2 4736   3.606   2.595   5.750  0.3853  0.7744  0.7113
32541SOL     OW 4737  12.019   5.864  11.171 -0.2372 -0.3722  0.2585
32541SOL    HW1 4738  12.078   5.931  11.137 -0.9322  0.7341  1.1492
32541SOL    HW2 4739  11.937   5.878  11.125 -0.7412  0.1904  1.2911
32542SOL     OW 4740   7.035   2.734   0.070  0.1453 -0.0170  0.8204
32542SOL    HW1 4741   6.945   2.744   0.102 -0.2558  1.2648 -0.5746
32542SOL    HW2 4742   7.032   2.655   0.016  0.2695 -0.8784  2.0394
32543SOL     OW 4743   4.558   7.902   2.402  0.1907  0.2276 -0.0479
32543SOL    HW1 4744   4.630   7.966   2.403  0.3631  0.0656  1.9842
32543SOL    HW2 4745   4.575   7.847   2.478 -1.2441 -0.8000 -0.4494
32544SOL     OW 4746   0.724   4.112   0.182  0.2801  0.0639  0.0216
32544SOL    HW1 4747   0.786   4.091   0.251 -1.6229 -1.2202  1.4469
32544SOL    HW2 4748   0.723   4.208   0.179  1.5390  0.1197  0.6546
32545SOL     OW 4749   4.467   0.287  12.363 -0.0081  0.1553  0.3671
32545SOL    HW1 4750   4.520   0.324  12.292 -0.5817  0.3383  0.0258
32545SOL    HW2 4751   4.390   0.345  12.368 -0.0531  0.0417  1.0243
32546SOL     OW 4752   4.772  12.731   7.771  0.2437  0.5161  0.4838
32546SOL    HW1 4753   4.760  12.640   7.743  2.4064  0.0237  1.0172
32546SOL    HW2 4754   4.848  12.762   7.722  0.0601  1.7704  0.9515
32547SOL     OW 4755   3.408   7.991   3.136  0.5947  0.0726  0.0420
32547SOL    HW1 4756   3.476   7.925   3.124 -1.6734 -2.4612  0.1640
32547SOL    HW2 4757   3.407   8.009   3.230 -0.1591 -1.4081  0.3477
32548SOL     OW 4758   0.050   3.744   5.591 -0.1905 -0.3229  0.0898
32548SOL    HW1 4759   0.098   3.685   5.649  1.9511  0.8087 -0.4419
32548SOL    HW2 4760  -0.008   3.686   5.542  2.6397 -2.2571 -1.2569
32549SOL     OW 4761   9.375  12.805  12.847 -0.0831  0.0294  0.8575
32549SOL    HW1 4762   9.465  12.801  12.817 -0.6169 -0.9058 -0.7867
32549SOL    HW2 4763   9.374  12.873  12.915  1.7088  0.4898  0.4550
32550SOL     OW 4764  12.228   5.382  11.066  0.0401  0.1477  0.2591
32550SOL    HW1 4765  12.149   5.338  11.032  1.0003 -0.2434 -1.6084
32550SOL    HW2 4766  12.203   5.474  11.074 -0.7698 -0.0632  0.2607
32551SOL     OW 4767   9.821   7.669  11.083 -0.6201 -0.4675  0.3025
32551SOL    HW1 4768   9.878   7.623  11.021 -1.7824  0.9652 -2.0033
32551SOL    HW2 4769   9.881   7.718  11.139  0.4904 -1.8437  0.3624
32552SOL     OW 4770   2.573   9.272   1.336  0.2093 -0.4294 -0.5152
32552SOL    HW1 4771   2.613   9.317   1.410 -0.0182  0.0433 -0.6775
32552SOL    HW2 4772   2.531   9.195   1.375 -0.5762  0.2295 -0.0265
32553SOL     OW 4773   0.757   9.064   5.099  0.1011 -0.3526  0.3982
32553SOL    HW1 4774   0.821   9.109   5.155  1.0483 -1.1330 -0.0178
32553SOL    HW2 4775   0.715   9.001   5.158  0.2675 -0.3680  0.5024
32554SOL     OW 4776  12.444  10.207  11.570 -0.2179 -0.0645 -0.0557
32554SOL    HW1 4777  12.489  10.259  11.637  0.3599 -0.6936  0.0461
32554SOL    HW2 4778  12.505  10.204  11.497 -1.4289  1.8669 -1.2256
32555SOL     OW 4779   2.953   1.269   6.973 -0.8236  0.2291  0.0387
32555SOL    HW1 4780   3.024   1.321   7.010  0.1130 -0.2671 -1.0196
32555SOL    HW2 4781   2.975   1.178   6.995 -1.7849  0.1572  0.7714
32556SOL     OW 4782  10.259   5.468   3.742  0.6463  0.0452 -0.6591
32556SOL    HW1 4783  10.266   5.389   3.689  2.6792 -0.1065 -0.2531
32556SOL    HW2 4784  10.186   5.516   3.704 -0.7238 -2.0548 -0.8368
32557SOL     OW 4785   0.300   7.834  10.971 -0.7251  0.2921  0.2677
32557SOL    HW1 4786   0.320   7.922  10.940  1.2270 -0.0171  0.5167
32557SOL    HW2 4787   0.227   7.805  10.916  0.2490  1.1235 -1.5665
32558SOL     OW 4788   8.080   6.835  10.136 -0.5328  0.3213 -0.2995
32558SOL    HW1 4789   8.056   6.900  10.069 -1.8113 -0.5261 -0.6973
32558SOL    HW2 4790   7.999   6.819  10.183  0.2730  0.6321  1.2594
32559SOL     OW 4791   2.987   8.122   1.350 -0.1008 -0.2938 -0.1250
32559SOL    HW1 4792   2.966   8.212   1.374  1.3660  0.2359 -0.7304
32559SOL    HW2 4793   3.083   8.120   1.343 -0.1413 -1.7559 -0.6706
32560SOL     OW 4794   7.358   0.909   9.825  0.3960 -0.2624 -0.0709
32560SOL    HW1 4795   7.280   0.956   9.854  0.6820 -0.1928  0.6123
32560SOL    HW2 4796   7.415   0.978   9.789 -0.5756 -0.5298 -2.2827
32561SOL     OW 4797   9.513   2.382   1.861  0.2525  0.5846 -0.0805
32561SOL    HW1 4798   9.471   2.299   1.884  0.3847  0.5857  0.1637
32561SOL    HW2 4799   9.528   2.376   1.766  3.0757 -0.9706  0.3502
32562SOL     OW 4800   0.129   0.618   6.551  0.4072  0.0503  0.4167
32562SOL    HW1 4801   0.132   0.558   6.477 -0.4792 -1.1422  1.2973
32562SOL    HW2 4802   0.220   0.628   6.578  0.5555 -1.1514  0.4261
32563SOL     OW 4803   7.518   4.540   5.997  0.1236  0.0367  0.1078
32563SOL    HW1 4804   7.433   4.560   6.037 -0.2317  1.6203 -1.3275
32563SOL    HW2 4805   7.500   4.464   5.942 -0.9522  1.5591 -1.7807
32564SOL     OW 4806  11.412   1.441   9.609  0.0107 -0.3552  0.3254
32564SOL    HW1 4807  11.391   1.383   9.535  1.6482  0.0560 -0.5205
32564SOL    HW2 4808  11.405   1.385   9.686 -2.0831 -0.7040 -0.0772
32565SOL     OW 4809   8.691   2.104  10.164 -0.2598 -0.1939  0.0081
32565SOL    HW1 4810   8.598   2.122  10.154 -0.6195 -0.4665  2.3045
32565SOL    HW2 4811   8.702   2.015  10.130 -0.6315  0.1777 -1.1298
32566SOL     OW 4812   8.147  12.239   4.677 -0.0516 -0.3131 -0.3197
32566SOL    HW1 4813   8.206  12.264   4.605 -0.3381 -1.1339 -0.8538
32566SOL    HW2 4814   8.180  12.288   4.752  0.3558  0.4494 -0.9655
32567SOL     OW 4815   5.312   7.473   9.878 -0.1799 -0.0924 -0.0615
32567SOL    HW1 4816   5.303   7.378   9.864 -2.8761 -0.1336  1.2975
32567SOL    HW2 4817   5.332   7.508   9.791  1.2048 -1.9171 -0.5326
32568SOL     OW 4818   2.276   0.326   9.403  0.3839 -0.0287  0.6304
32568SOL    HW1 4819   2.252   0.279   9.483  0.9813 -0.1702  0.7346
32568SOL    HW2 4820   2.283   0.418   9.430  2.0924 -0.2693  1.1098
32569SOL     OW 4821   2.187  12.837   8.887  0.6215  0.9336 -0.1195
32569SOL    HW1 4822   2.267  12.855   8.937  1.5307  1.0953 -1.5701
32569SOL    HW2 4823   2.116  12.858   8.948  1.6744  1.7807  0.8737
32570SOL     OW 4824   4.358   1.305   1.228 -0.0639  0.1300 -0.6727
32570SOL    HW1 4825   4.368   1.398   1.206 -0.6824  0.1122 -1.0473
32570SOL    HW2 4826   4.344   1.304   1.322 -2.7221  0.6553 -0.9860
32571SOL     OW 4827   3.624   3.394   9.931 -0.0581 -0.0496 -0.0102
32571SOL    HW1 4828   3.688   3.369   9.865 -1.4969 -0.2813 -1.3777
32571SOL    HW2 4829   3.591   3.479   9.902 -0.9725 -0.3226  0.1959
32572SOL     OW 4830   2.283  12.431  12.651  0.0501  0.1875 -0.3386
32572SOL    HW1 4831   2.373  12.454  12.672  0.0994  0.4974 -0.8987
32572SOL    HW2 4832   2.255  12.497  12.588 -0.0828 -0.7807 -1.3129
32573SOL     OW 4833   0.094  11.508   5.146  0.0224 -0.1135  0.0495
32573SOL    HW1 4834   0.189  11.524   5.145  0.2936 -1.2538  2.1227
32573SOL    HW2 4835   0.077  11.456   5.068  1.5715 -2.0739  0.9498
32574SOL     OW 4836   7.669   6.856   3.641  0.0571 -0.1373 -0.6247
32574SOL    HW1 4837   7.617   6.917   3.692 -0.1621 -0.3996 -0.5288
32574SOL    HW2 4838   7.723   6.811   3.705 -0.3753 -0.6200 -0.5896
32575SOL     OW 4839   7.788  11.112   3.145 -0.0818  0.0525 -0.0916
32575SOL    HW1 4840   7.747  11.028   3.168  1.0292 -0.8854 -1.3758
32575SOL    HW2 4841   7.880  11.090   3.127 -0.0486  1.3175 -1.7036
32576SOL     OW 4842   9.939  12.220   3.033  0.8082  0.1623  0.0373
32576SOL    HW1 4843   9.878  12.190   3.101 -1.0395  0.1511 -1.5324
32576SOL    HW2 4844   9.984  12.295   3.073 -2.1112  1.8503  0.4783
32577SOL     OW 4845   8.883   0.544   6.126  0.0861 -0.4073 -0.1475
32577SOL    HW1 4846   8.817   0.482   6.096  0.4206 -0.6349 -0.4392
32577SOL    HW2 4847   8.953   0.538   6.060  0.9782 -1.1297  0.8226
32578SOL     OW 4848  12.744   7.651  12.925 -0.2880  0.6109  0.9953
32578SOL    HW1 4849  12.804   7.691  12.862 -0.1982  0.2931  0.8767
32578SOL    HW2 4850  12.772   7.560  12.931 -1.6508  0.0712 -0.1882
32579SOL     OW 4851  11.327   4.097   1.719  0.2102  0.0538  0.3095
32579SOL    HW1 4852  11.400   4.039   1.738  1.2664 -0.0505 -3.2483
32579SOL    HW2 4853  11.251   4.040   1.717  0.7569 -0.6703 -0.1725
32580SOL     OW 4854   7.928   4.622   1.649  0.5312 -0.0969 -0.5432
32580SOL    HW1 4855   7.951   4.687   1.582 -0.1637  2.5336  1.5788
32580SOL    HW2 4856   7.897   4.546   1.600  0.1667  1.6431 -3.1986
32581SOL     OW 4857   9.490   1.699   8.190 -0.4968 -0.2950  0.2575
32581SOL    HW1 4858   9.575   1.672   8.154 -0.8040 -0.1664 -0.5733
32581SOL    HW2 4859   9.427   1.637   8.153 -1.0022  0.6449 -0.5015
32582SOL     OW 4860   6.765   3.951   9.345 -0.0925 -0.4630  0.3413
32582SOL    HW1 4861   6.737   3.879   9.402 -0.8805 -0.1771  0.3361
32582SOL    HW2 4862   6.726   3.930   9.260 -0.3582 -0.0114  0.3501
32583SOL     OW 4863   9.024   1.700   5.261  0.4600 -0.7302 -0.0839
32583SOL    HW1 4864   8.962   1.756   5.215  0.2573 -0.4329  0.5415
32583SOL    HW2 4865   9.110   1.728   5.230  0.4483  0.8388  1.1928
32584SOL     OW 4866   2.356   0.868   4.992  0.1865  0.0208 -0.0090
32584SOL    HW1 4867   2.450   0.887   4.990  0.0776  0.5205 -0.4861
32584SOL    HW2 4868   2.317   0.933   4.934 -0.4842 -0.0317  0.3733
32585SOL     OW 4869   1.870  11.693   1.961 -0.0470 -0.1423  0.2007
32585SOL    HW1 4870   1.890  11.697   2.055 -1.7632 -1.6733  0.6717
32585SOL    HW2 4871   1.942  11.642   1.924  1.4523  1.7270  0.3771
32586SOL     OW 4872   5.833   4.662   2.905  0.1492 -0.3512  0.1319
32586SOL    HW1 4873   5.766   4.730   2.899 -0.1862 -0.6650  0.3048
32586SOL    HW2 4874   5.909   4.706   2.944 -0.2155 -0.1869  0.6693
32587SOL     OW 4875   2.934   9.700  10.361  0.4643 -0.2876  0.5548
32587SOL    HW1 4876   2.968   9.736  10.443  1.7149  0.1358 -0.1224
32587SOL    HW2 4877   2.898   9.615  10.385  1.8711 -0.6901  1.3721
32588SOL     OW 4878   6.127   8.338   7.968  0.3399  0.0159  0.1966
32588SOL    HW1 4879   6.053   8.363   8.024 -2.6696 -2.5765 -2.2059
32588SOL    HW2 4880   6.143   8.416   7.914 -0.2188  0.8457  1.1935
32589SOL     OW 4881  10.535   3.457   0.815  0.0987  0.2869  0.1569
32589SOL    HW1 4882  10.543   3.551   0.830  0.0563  0.4142 -0.5612
32589SOL    HW2 4883  10.480   3.426   0.886  0.8660  0.6434  0.9297
32590SOL     OW 4884  11.981   1.356   6.901 -0.6850  0.6590 -0.7888
32590SOL    HW1 4885  11.924   1.418   6.947 -1.4574 -0.6342  0.0566
32590SOL    HW2 4886  12.061   1.406   6.883 -1.4049  1.9881 -0.4342
32591SOL     OW 4887  10.592  11.147  12.386 -0.3303  0.3648  0.1618
32591SOL    HW1 4888  10.628  11.134  12.298  1.2646 -0.7593  0.9504
32591SOL    HW2 4889  10.559  11.237  12.385 -0.6293  0.2731 -1.6738
32592SOL     OW 4890   1.099  11.574   9.019  0.2315  0.7793  0.7493
32592SOL    HW1 4891   1.029  11.624   8.976  1.0535  0.9350 -0.4569
32592SOL    HW2 4892   1.153  11.541   8.947 -0.3426 -1.9860  1.4591
32593SOL     OW 4893   2.204   3.219   4.045  0.5385  0.1228  0.0773
32593SOL    HW1 4894   2.275   3.156   4.043  0.9554  0.5541  0.6889
32593SOL    HW2 4895   2.144   3.191   3.977  1.4910 -0.0203 -0.7227
32594SOL     OW 4896   4.574   8.529   3.503  0.2664  0.0650 -0.0071
32594SOL    HW1 4897   4.547   8.615   3.535  2.5511  0.8895 -0.1554
32594SOL    HW2 4898   4.557   8.470   3.576 -5.0175 -0.3021 -1.0932
32595SOL     OW 4899   8.479   3.240   0.244 -0.2525 -0.0333  0.0743
32595SOL    HW1 4900   8.529   3.303   0.193 -0.1970 -0.2812 -0.1785
32595SOL    HW2 4901   8.388   3.253   0.215  0.0117 -1.5191 -1.5395
32596SOL     OW 4902   1.727   6.634  11.454 -0.7658 -0.2131 -0.3071
32596SOL    HW1 4903   1.711   6.540  11.444  1.9647 -0.5863 -2.5476
32596SOL    HW2 4904   1.665   6.676  11.394 -0.8486 -0.7056 -0.5671
32597SOL     OW 4905   3.876   6.860  12.932 -0.5704  0.1799 -0.4833
32597SOL    HW1 4906   3.901   6.931  12.991  1.1457 -1.9261  1.4736
32597SOL    HW2 4907   3.789   6.885  12.901 -1.1062  1.9285  2.0991
32598SOL     OW 4908   8.395   4.544   8.369  0.1558  0.5108  0.0583
32598SOL    HW1 4909   8.436   4.533   8.455  0.9669  2.8652  0.0474
32598SOL    HW2 4910   8.351   4.629   8.375 -1.0879  0.0096 -1.3694
32599SOL     OW 4911   8.313   4.747   6.702 -0.5841 -0.3516 -0.0939
32599SOL    HW1 4912   8.340   4.835   6.728  0.9561 -0.5735 -0.8479
32599SOL    HW2 4913   8.394   4.703   6.677 -1.6463 -0.8434 -3.1230
32600SOL     OW 4914   0.250   0.345   1.598  0.2546 -0.8380  0.0247
32600SOL    HW1 4915   0.288   0.257   1.606 -0.7611 -1.2821  0.0273
32600SOL    HW2 4916   0.217   0.349   1.509 -3.1604 -1.9111  1.1111
32601SOL     OW 4917   7.526   7.514   4.252  0.0400 -0.0477  0.0230
32601SOL    HW1 4918   7.469   7.545   4.322  0.1224 -1.0968  0.5744
32601SOL    HW2 4919   7.466   7.491   4.181 -0.0511  0.9072 -0.2277
32602SOL     OW 4920   6.130   8.032   9.375  0.1925 -0.3658 -0.1481
32602SOL    HW1 4921   6.150   8.125   9.362  0.2626 -0.4402 -0.5765
32602SOL    HW2 4922   6.085   8.029   9.460  0.3236  0.0384 -0.0616
32603SOL     OW 4923   6.067  12.426   3.809 -0.4772  0.3443  0.2511
32603SOL    HW1 4924   6.117  12.344   3.806  0.3773  0.8731 -0.2588
32603SOL    HW2 4925   5.977  12.398   3.826 -0.1215 -0.6704  0.5562
32604SOL     OW 4926  12.131   0.566   6.589  0.5761  0.6109  0.2908
32604SOL    HW1 4927  12.159   0.481   6.622 -1.1110 -0.2410 -0.3608
32604SOL    HW2 4928  12.196   0.589   6.522  1.9934  0.6775  1.6335
32605SOL     OW 4929  10.024   2.144   1.025  0.0063 -0.0737  0.2314
32605SOL    HW1 4930   9.955   2.143   0.959 -0.8551  0.6330  1.0882
32605SOL    HW2 4931   9.998   2.076   1.087 -0.2138  0.5464  0.8324
32606SOL     OW 4932   0.257   7.215   3.020  0.3502  0.7165  0.3345
32606SOL    HW1 4933   0.319   7.198   3.091 -0.1152 -0.6649  0.4324
32606SOL    HW2 4934   0.172   7.217   3.063  0.1464  0.7515 -0.0675
32607SOL     OW 4935   8.367   3.278   6.183  0.5028  0.3129  0.2631
32607SOL    HW1 4936   8.331   3.341   6.120  0.7313  0.6098  0.4306
32607SOL    HW2 4937   8.404   3.332   6.252  0.6221 -0.0094  0.4493
32608SOL     OW 4938   5.119   7.264   1.728 -0.0198  0.0156 -0.1813
32608SOL    HW1 4939   5.190   7.327   1.727  0.9297 -1.0295  0.1142
32608SOL    HW2 4940   5.150   7.193   1.783 -1.1344 -0.6436 -0.3697
32609SOL     OW 4941  10.753  12.324   8.685  0.4395  0.5960 -0.2650
32609SOL    HW1 4942  10.742  12.390   8.754 -0.0354  0.1396  0.1078
32609SOL    HW2 4943  10.671  12.329   8.634  1.0092  1.3132 -1.1447
32610SOL     OW 4944   0.213   2.706   3.051 -0.5148 -0.6575  0.4966
32610SOL    HW1 4945   0.124   2.739   3.053 -0.7841 -1.3665  0.4791
32610SOL    HW2 4946   0.210   2.624   3.100 -0.1180 -1.2565 -0.4452
32611SOL     OW 4947   5.380  11.451  12.171 -0.4399 -0.2741 -0.0211
32611SOL    HW1 4948   5.467  11.487  12.188 -0.3310  0.5694 -2.0774
32611SOL    HW2 4949   5.326  11.527  12.149 -0.8971 -1.0790 -1.8134
32612SOL     OW 4950   5.828   6.660   5.657  0.4594  0.1218 -0.1081
32612SOL    HW1 4951   5.828   6.575   5.612 -0.3441 -0.6746  1.3304
32612SOL    HW2 4952   5.876   6.645   5.738 -0.5823  0.7581  0.6494
32613SOL     OW 4953  12.897  11.431  12.032 -0.7089  0.2650  0.3917
32613SOL    HW1 4954  12.895  11.352  12.086  0.4965 -0.3331 -0.3844
32613SOL    HW2 4955  12.917  11.502  12.093  2.9297 -0.6855  0.5287
32614SOL     OW 4956  11.846   7.032  12.901 -0.1172 -0.1222 -0.5751
32614SOL    HW1 4957  11.831   7.127  12.897  0.7938  0.1711  1.5306
32614SOL    HW2 4958  11.768   6.997  12.943 -0.3748 -0.2911 -1.1884
32615SOL     OW 4959  11.524  12.847   9.510 -0.0917  0.2552  0.1493
32615SOL    HW1 4960  11.615  12.823   9.531  0.0723  0.6238 -0.1305
32615SOL    HW2 4961  11.485  12.870   9.595 -0.2630 -1.0192  0.4343
32616SOL     OW 4962   7.223   3.543   5.046  0.2831  0.0339 -0.3017
32616SOL    HW1 4963   7.227   3.568   4.954 -1.7564  0.4458 -0.3259
32616SOL    HW2 4964   7.314   3.548   5.076  0.8443  0.9424 -2.0083
32617SOL     OW 4965   6.875   9.207   9.852 -0.1829 -0.4503  0.2172
32617SOL    HW1 4966   6.809   9.183   9.788 -0.6869 -0.4635  0.7346
32617SOL    HW2 4967   6.908   9.124   9.886 -1.1947 -0.4551  1.2613
32618SOL     OW 4968   7.857  11.652   5.437 -0.4278  0.0548 -0.3420
32618SOL    HW1 4969   7.780  11.691   5.397 -0.7769  0.3342  0.5716
32618SOL    HW2 4970   7.846  11.669   5.531  0.5318 -0.2757 -0.1614
32619SOL     OW 4971  12.529   8.938  12.385  0.4466  0.6041  0.5830
32619SOL    HW1 4972  12.466   9.008  12.371  0.5864  0.8123  0.9720
32619SOL    HW2 4973  12.548   8.904  12.298 -1.5667 -0.6812  0.5805
32620SOL     OW 4974   3.883   0.217   5.681 -0.2473 -0.8871  0.3007
32620SOL    HW1 4975   3.861   0.239   5.772  1.1733 -3.3077  1.3321
32620SOL    HW2 4976   3.893   0.121   5.681 -0.1009 -0.9531 -2.3970
32621SOL     OW 4977   2.527  11.022   0.763 -0.5358 -0.2157  0.0114
32621SOL    HW1 4978   2.449  11.059   0.805 -0.4748 -0.7445  0.5958
32621SOL    HW2 4979   2.497  10.998   0.675 -0.9579 -0.1562  0.1358
32622SOL     OW 4980   5.635  11.015   4.406  0.6204  0.4737  0.0093
32622SOL    HW1 4981   5.564  11.077   4.388  0.3415  0.9583  2.4070
32622SOL    HW2 4982   5.598  10.929   4.389  0.6228  0.8570 -2.1863
32623SOL     OW 4983   4.179   8.777   9.799  0.1739 -0.2373 -0.1976
32623SOL    HW1 4984   4.109   8.721   9.766 -0.3092  0.1145  0.2170
32623SOL    HW2 4985   4.184   8.850   9.737 -1.5623  1.0668  1.1072
32624SOL     OW 4986   9.353   0.107   7.228 -0.3098  0.3507 -0.2618
32624SOL    HW1 4987   9.377   0.131   7.138  0.8173  2.5476  0.5422
32624SOL    HW2 4988   9.434   0.119   7.278 -0.5694 -2.1400  0.8596
32625SOL     OW 4989   6.644   8.053   1.393 -0.3725 -0.0872  0.4099
32625SOL    HW1 4990   6.721   8.065   1.450 -0.3903  0.5260  0.3029
32625SOL    HW2 4991   6.611   7.966   1.417  0.5845 -0.5235  0.1810
32626SOL     OW 4992   4.341  11.733   5.170  0.0712 -0.2209 -0.0128
32626SOL    HW1 4993   4.259  11.742   5.121  0.1488 -0.9667 -0.2970
32626SOL    HW2 4994   4.398  11.802   5.136 -0.1787 -0.1864 -0.3607
32627SOL     OW 4995   6.379   2.783   0.285  0.1156  0.4789 -0.3790
32627SOL    HW1 4996   6.397   2.814   0.374  0.8159  2.6045 -1.1802
32627SOL    HW2 4997   6.361   2.690   0.295  1.3684  0.3908  1.8438
32628SOL     OW 4998   4.676  10.481  11.728  0.0158 -0.1296 -0.1325
32628SOL    HW1 4999   4.610  10.424  11.767 -0.2479  0.7567  0.7458
32628SOL    HW2 5000   4.701  10.541  11.798 -0.2109  1.2857 -1.2250
32629SOL     OW 5001   5.755   8.824  12.053  0.2211  0.2853  0.6691
32629SOL    HW1 5002   5.743   8.892  12.119  0.4357  2.0173 -1.0086
32629SOL    HW2 5003   5.811   8.863  11.987 -0.9134 -0.9584 -1.1420
32630SOL     OW 5004   7.002  11.550   6.089 -0.2117 -0.5090 -0.2931
32630SOL    HW1 5005   7.020  11.549   6.183  1.0602  1.0372 -0.4685
32630SOL    HW2 5006   7.054  11.623   6.056 -0.1635 -1.3907 -2.3025
32631SOL     OW 5007   0.619   2.038  11.336  0.7863 -0.1481  0.3909
32631SOL    HW1 5008   0.547   1.975  11.344  1.0797 -0.6152 -0.5195
32631SOL    HW2 5009   0.595   2.092  11.261  1.7961 -0.8709 -0.4768
32632SOL     OW 5010   0.404   9.134  10.614 -0.8983  0.1408  0.6707
32632SOL    HW1 5011   0.349   9.095  10.682 -1.7288 -0.1765 -0.1570
32632SOL    HW2 5012   0.392   9.077  10.538 -0.3941  0.7751  0.1004
32633SOL     OW 5013   2.229   8.180   5.249 -0.0920 -0.2926 -0.1199
32633SOL    HW1 5014   2.176   8.174   5.329 -0.5790 -1.5621 -0.5194
32633SOL    HW2 5015   2.298   8.242   5.272 -0.9960  0.4121  0.8429
32634SOL     OW 5016   8.581   5.077   7.959  0.1851  0.5932 -0.3247
32634SOL    HW1 5017   8.642   5.150   7.966 -0.8608  1.5034 -0.4321
32634SOL    HW2 5018   8.573   5.062   7.865 -0.9692  1.5571 -0.4044
32635SOL     OW 5019   2.655   3.087   2.874 -0.6065 -0.0614 -0.1230
32635SOL    HW1 5020   2.613   3.087   2.960 -0.4740 -1.2534 -0.0425
32635SOL    HW2 5021   2.747   3.068   2.892 -0.7640 -1.3759 -0.5884
32636SOL     OW 5022   7.752  12.393   8.172 -0.4844  0.3585 -0.2715
32636SOL    HW1 5023   7.806  12.340   8.113  0.6011 -0.2439  1.2055
32636SOL    HW2 5024   7.806  12.469   8.194 -0.3781 -0.0148  0.8531
32637SOL     OW 5025   9.240  10.801   7.089 -0.4592  0.0261  0.5913
32637SOL    HW1 5026   9.289  10.849   7.023  0.0522 -1.3068 -0.0329
32637SOL    HW2 5027   9.193  10.868   7.138  2.3913  1.4439  1.6005
32638SOL     OW 5028  12.892   4.058   9.154 -0.1686  0.0527 -0.1234
32638SOL    HW1 5029  12.955   4.013   9.211  0.6697  0.0538 -1.0162
32638SOL    HW2 5030  12.809   4.051   9.200 -0.5715 -4.2510 -1.0882
32639SOL     OW 5031   6.658  11.628   0.666  0.2325 -0.6042  0.0120
32639SOL    HW1 5032   6.687  11.604   0.578 -0.7912  1.3497 -0.9453
32639SOL    HW2 5033   6.605  11.554   0.695  0.1416 -1.0709 -1.2591
32640SOL     OW 5034   8.535   0.458   7.389  0.2913  0.6180  0.1495
32640SOL    HW1 5035   8.608   0.513   7.419 -0.0287 -0.0006  2.2180
32640SOL    HW2 5036   8.461   0.519   7.381  0.6147  0.9558 -0.3374
32641SOL     OW 5037   3.320   2.461   8.581 -0.0497  0.1268 -0.2426
32641SOL    HW1 5038   3.237   2.450   8.535  0.1526 -0.8424 -0.3897
32641SOL    HW2 5039   3.372   2.518   8.525 -0.8919  1.3966  0.2258
32642SOL     OW 5040   7.339  10.935   1.035 -0.0404  0.2596 -0.5699
32642SOL    HW1 5041   7.336  10.915   0.941 -0.9099 -1.1684 -0.2728
32642SOL    HW2 5042   7.433  10.943   1.054  0.1260  1.3861 -1.6974
32643SOL     OW 5043   9.764   1.435  11.150 -0.7406 -0.6340 -0.0127
32643SOL    HW1 5044   9.708   1.370  11.193 -0.8677 -2.2109 -2.3799
32643SOL    HW2 5045   9.724   1.448  11.064  3.0124 -2.7696 -2.3610
32644SOL     OW 5046   9.530   3.700   4.283  0.9073 -0.3160  0.0446
32644SOL    HW1 5047   9.565   3.786   4.307  1.3398 -0.7869  1.1975
32644SOL    HW2 5048   9.437   3.704   4.308  1.2601 -0.6621  1.5366
32645SOL     OW 5049   4.011  11.801   1.304  0.1187 -0.0565  0.2694
32645SOL    HW1 5050   4.041  11.891   1.311 -1.2362  0.4193  0.2846
32645SOL    HW2 5051   3.955  11.789   1.381  1.2304 -1.3101  0.9298
32646SOL     OW 5052  11.009   5.895   9.953  0.6327  0.3450 -0.1843
32646SOL    HW1 5053  11.010   5.818   9.896  0.2668  1.4503 -1.7461
32646SOL    HW2 5054  10.934   5.881  10.011 -1.0844  0.6869 -2.1953
32647SOL     OW 5055  10.872   6.224   6.283  0.4636 -0.0491  0.3204
32647SOL    HW1 5056  10.838   6.209   6.371  0.6233 -3.0951 -0.0341
32647SOL    HW2 5057  10.795   6.215   6.226  0.5414  0.8980  0.0500
32648SOL     OW 5058   9.012  12.903   1.837  0.0646 -1.5814 -0.2452
32648SOL    HW1 5059   8.957  12.914   1.758 -0.7755  0.6214  0.5646
32648SOL    HW2 5060   9.101  12.897   1.803  0.1405  2.7515 -1.3929
32649SOL     OW 5061   2.234   3.631  12.220  1.2171 -0.2294  0.9054
32649SOL    HW1 5062   2.205   3.713  12.179 -0.8048 -1.2400  0.1475
32649SOL    HW2 5063   2.175   3.620  12.294 -0.0387 -2.0288 -0.2683
32650SOL     OW 5064   1.872   5.276   8.753 -0.4324  0.1352  0.3018
32650SOL    HW1 5065   1.793   5.241   8.714 -0.2127  0.6975 -0.7054
32650SOL    HW2 5066   1.842   5.348   8.809 -0.5060  3.0718 -3.1110
32651SOL     OW 5067   2.916   9.421  10.424  0.2210  0.1296 -0.3895
32651SOL    HW1 5068   3.011   9.428  10.410  0.3887  0.6795  0.8503
32651SOL    HW2 5069   2.908   9.368  10.503 -0.4542  1.0924  0.2000
32652SOL     OW 5070  12.413   7.630   3.050 -0.2554  0.1388  0.1527
32652SOL    HW1 5071  12.339   7.576   3.024 -1.3870  2.1397 -1.0432
32652SOL    HW2 5072  12.380   7.685   3.121  0.7591 -0.4305  1.0995
32653SOL     OW 5073   8.414  11.149   7.840  0.5766 -0.4730  0.0668
32653SOL    HW1 5074   8.405  11.088   7.766  1.9358 -0.7643  0.1038
32653SOL    HW2 5075   8.329  11.192   7.847 -0.0015 -1.4318 -0.7968
32654SOL     OW 5076   4.789   1.832  12.021  0.0927  0.0319  0.4476
32654SOL    HW1 5077   4.751   1.757  11.975  1.9527 -0.9912  0.4578
32654SOL    HW2 5078   4.824   1.794  12.102  1.4909  0.7983  0.2290
32655SOL     OW 5079   1.837   8.565  10.871 -0.3145  0.3381 -0.0474
32655SOL    HW1 5080   1.879   8.636  10.919  0.6873  0.4694 -1.0810
32655SOL    HW2 5081   1.878   8.485  10.904  0.3882  0.4295 -0.6760
32656SOL     OW 5082  12.944   8.541   9.909  0.0437 -0.1878 -0.0992
32656SOL    HW1 5083  13.033   8.534   9.944 -0.0732  0.2928  0.3036
32656SOL    HW2 5084  12.911   8.451   9.911  1.0650 -0.6351 -1.7473
32657SOL     OW 5085   9.715   0.878   3.968 -0.2315  0.3313  0.6011
32657SOL    HW1 5086   9.733   0.963   4.007  0.2975  1.0640 -1.1234
32657SOL    HW2 5087   9.721   0.893   3.874  2.2450 -2.0708  0.2135
32658SOL     OW 5088   4.620   1.051   5.800 -0.0162 -0.0658 -0.2369
32658SOL    HW1 5089   4.673   0.992   5.747 -1.4482 -0.9102 -0.8032
32658SOL    HW2 5090   4.648   1.139   5.774 -0.0268 -0.4760 -1.7153
32659SOL     OW 5091   7.619   9.994   5.714  0.6639 -0.5317  0.0508
32659SOL    HW1 5092   7.592  10.073   5.762  2.0827  1.1616 -1.7558
32659SOL    HW2 5093   7.560   9.991   5.638  1.1754 -0.6977 -0.3448
32660SOL     OW 5094   3.644   3.842   2.313 -0.0496  0.5267  0.1744
32660SOL    HW1 5095   3.599   3.922   2.340 -1.9097  0.3871 -2.2133
32660SOL    HW2 5096   3.590   3.772   2.349 -0.7326  0.3701 -1.1023
32661SOL     OW 5097   5.932   4.762   8.530 -0.0454  0.1635 -0.6742
32661SOL    HW1 5098   5.869   4.782   8.461  0.9870  0.0772 -1.6684
32661SOL    HW2 5099   5.969   4.846   8.555  1.3664 -0.0246 -2.0006
32662SOL     OW 5100   4.552   1.148   8.383 -0.3763  0.1379 -0.0461
32662SOL    HW1 5101   4.564   1.111   8.471 -0.7565  0.4501  0.1406
32662SOL    HW2 5102   4.490   1.089   8.341 -1.1423  0.6572  0.3222
32663SOL     OW 5103  10.636   7.923   4.510  0.4729 -0.2966 -0.9536
32663SOL    HW1 5104  10.609   7.968   4.590  1.2274 -0.0548 -0.8272
32663SOL    HW2 5105  10.721   7.884   4.532  0.5041 -0.5534 -1.5167
32664SOL     OW 5106   3.247   0.692   6.094 -0.2736  0.2487 -0.0367
32664SOL    HW1 5107   3.161   0.684   6.054 -0.6063  3.0513 -0.0817
32664SOL    HW2 5108   3.294   0.755   6.038  1.8534 -1.2081 -0.0257
32665SOL     OW 5109   2.705  11.497   4.801 -0.3184  0.1843 -0.3745
32665SOL    HW1 5110   2.669  11.586   4.805 -0.4532  0.0822  0.8936
32665SOL    HW2 5111   2.747  11.484   4.886  0.3065 -0.7269 -0.8029
32666SOL     OW 5112  12.252  12.703   9.984 -0.3009 -0.6224  0.6779
32666SOL    HW1 5113  12.294  12.740   9.906 -0.7778 -0.1934  0.6183
32666SOL    HW2 5114  12.324  12.687  10.044 -0.1074  0.8976  0.9027
32667SOL     OW 5115   9.895   6.842   0.181 -0.1276 -0.4260  0.2774
32667SOL    HW1 5116   9.853   6.794   0.110 -0.1436 -1.3133  0.8761
32667SOL    HW2 5117   9.894   6.782   0.255  2.7279 -0.7554  0.1670
32668SOL     OW 5118  11.722   0.919   2.319 -0.4734  0.8164 -0.4520
32668SOL    HW1 5119  11.735   0.921   2.414 -1.0975  0.0621 -0.3396
32668SOL    HW2 5120  11.636   0.958   2.306  0.2329  2.3163 -0.8597
32669SOL     OW 5121   9.512   1.081  10.393  0.4532  0.1921 -0.0523
32669SOL    HW1 5122   9.558   1.011  10.346 -0.3073  0.9082 -1.9555
32669SOL    HW2 5123   9.426   1.085  10.352 -0.6667  0.1581  2.1642
32670SOL     OW 5124   3.878   4.236   8.580 -0.7037 -0.0312 -0.1534
32670SOL    HW1 5125   3.910   4.205   8.495 -2.4131 -0.0312 -0.8309
32670SOL    HW2 5126   3.789   4.203   8.586 -1.2729  1.5749  0.8013
32671SOL     OW 5127   5.836   0.734  11.673 -0.4889  0.5017  0.2749
32671SOL    HW1 5128   5.903   0.683  11.627  0.2062  1.8449 -0.2803
32671SOL    HW2 5129   5.884   0.807  11.711 -1.2182 -0.0484  2.3848
32672SOL     OW 5130  10.174  12.137   8.529  0.6708 -0.7141  0.4286
32672SOL    HW1 5131  10.163  12.042   8.533  0.0359 -0.7383 -0.9242
32672SOL    HW2 5132  10.223  12.160   8.608  0.8200 -2.1571  0.7837
32673SOL     OW 5133   9.466   0.497   8.210  0.4492  0.1078  0.7701
32673SOL    HW1 5134   9.506   0.584   8.202  1.0436 -0.2676 -0.5754
32673SOL    HW2 5135   9.487   0.470   8.299  1.3005  0.8555  0.8177
32674SOL     OW 5136  11.012   5.001   5.348  0.4935  0.0370 -0.0666
32674SOL    HW1 5137  11.100   5.036   5.366  0.3937  0.3673 -0.2181
32674SOL    HW2 5138  10.961   5.025   5.426  0.5024 -0.0404 -0.0369
32675SOL     OW 5139   6.525   3.641   1.629 -0.0853 -0.0299 -0.0841
32675SOL    HW1 5140   6.479   3.606   1.553  2.2126 -1.8478 -0.7760
32675SOL    HW2 5141   6.617   3.617   1.614  1.3055  3.8789  0.8595
32676SOL     OW 5142   3.714   5.379   8.181  0.4965  0.0500  0.2864
32676SOL    HW1 5143   3.716   5.386   8.277 -0.2391  1.5662  0.2192
32676SOL    HW2 5144   3.780   5.313   8.161  1.6182  0.6405  1.7744
32677SOL     OW 5145   4.710   0.196   5.581  0.5981  0.0283  0.1610
32677SOL    HW1 5146   4.694   0.210   5.674 -0.8203  1.6078 -0.2816
32677SOL    HW2 5147   4.657   0.120   5.558  0.8040 -0.2458  0.5795
32678SOL     OW 5148   9.347   9.915   4.507  0.1460 -0.1261 -0.0199
32678SOL    HW1 5149   9.390   9.854   4.447  0.6096 -0.7387  0.9052
32678SOL    HW2 5150   9.326   9.991   4.453 -0.4027 -1.0662 -1.1975
32679SOL     OW 5151   9.978   3.046   6.886 -0.1377  0.1913  0.0064
32679SOL    HW1 5152   9.972   3.127   6.835  1.8481 -0.5394 -1.5212
32679SOL    HW2 5153  10.072   3.032   6.898 -0.4541 -1.6182  0.7013
32680SOL     OW 5154  11.376   8.965   6.369 -0.5960  0.1894 -0.1386
32680SOL    HW1 5155  11.408   9.050   6.337 -1.5966  0.8296  0.5112
32680SOL    HW2 5156  11.282   8.965   6.349 -0.6930 -0.5860  0.2600
32681SOL     OW 5157  11.110   6.739   2.800  0.5751  0.4048 -0.8199
32681SOL    HW1 5158  11.073   6.799   2.865  0.0150 -0.6282 -0.1368
32681SOL    HW2 5159  11.135   6.662   2.851  0.2652 -0.3748 -1.8057
32682SOL     OW 5160  11.295   7.820   4.716  0.2542 -0.0475 -0.0771
32682SOL    HW1 5161  11.370   7.778   4.674 -0.0732  0.8399 -1.6089
32682SOL    HW2 5162  11.332   7.870   4.788  1.1965  0.6616 -1.0323
32683SOL     OW 5163   2.257  11.647   8.770 -0.1758 -0.1408  0.4371
32683SOL    HW1 5164   2.308  11.728   8.773  0.4610 -0.4951 -0.4303
32683SOL    HW2 5165   2.322  11.579   8.751 -0.8316 -0.7394  0.2988
32684SOL     OW 5166   3.084   6.345   1.536  0.1142 -0.0452  0.2117
32684SOL    HW1 5167   3.084   6.393   1.453 -0.2391  0.2074  0.3559
32684SOL    HW2 5168   3.163   6.292   1.533 -1.3043 -2.3004 -1.6197
32685SOL     OW 5169   0.662  11.970   5.758  0.1926  0.3124 -0.5384
32685SOL    HW1 5170   0.589  11.939   5.704 -0.3918  0.9272 -0.1189
32685SOL    HW2 5171   0.699  12.043   5.710 -0.3295  0.8619 -0.1167
32686SOL     OW 5172   0.301   5.133   7.156  0.5322  0.5280  0.2208
32686SOL    HW1 5173   0.356   5.207   7.129  0.0070  1.1950  0.9291
32686SOL    HW2 5174   0.275   5.154   7.246 -0.4275 -0.0399  0.0893
32687SOL     OW 5175   8.279   9.151   3.059 -0.0600 -0.1654 -0.0468
32687SOL    HW1 5176   8.192   9.113   3.052  0.0858 -0.9622  1.9464
32687SOL    HW2 5177   8.333   9.099   3.000 -0.6155 -0.6399 -0.1456
32688SOL     OW 5178   5.103   6.858   1.544 -0.4044 -0.5446  0.1951
32688SOL    HW1 5179   5.149   6.852   1.628 -1.4268 -1.1385  0.7340
32688SOL    HW2 5180   5.152   6.923   1.494  0.9142 -1.0378  0.7983
32689SOL     OW 5181   1.779   3.960   0.440 -0.8371  0.0320 -0.3540
32689SOL    HW1 5182   1.744   4.043   0.472  0.6535  0.0957  1.2801
32689SOL    HW2 5183   1.874   3.972   0.439 -0.5037 -1.9137  0.8816
32690SOL     OW 5184   5.227   8.261  11.980 -0.6420  0.5786  0.2974
32690SOL    HW1 5185   5.247   8.253  12.073 -0.6308  0.4836  0.2867
32690SOL    HW2 5186   5.303   8.223  11.936 -1.2997 -0.7942  0.2697
32691SOL     OW 5187  11.723   3.970   5.939  0.5485 -0.1242  0.1272
32691SOL    HW1 5188  11.635   4.003   5.955  0.7245  0.5947 -0.3325
32691SOL    HW2 5189  11.774   4.002   6.013  1.3311  3.0816 -1.5892
32692SOL     OW 5190  10.632   9.202   9.163 -0.0073  0.9734 -0.5068
32692SOL    HW1 5191  10.543   9.231   9.183  0.5316  1.9302  0.5567
32692SOL    HW2 5192  10.620   9.139   9.091 -1.5390  1.0319 -0.3436
32693SOL     OW 5193   4.948   1.746  10.455 -0.1197  0.0539  0.1328
32693SOL    HW1 5194   4.863   1.788  10.441  0.6336  2.2806  1.6747
32693SOL    HW2 5195   4.938   1.700  10.538  0.2619  0.6615  0.5262
32694SOL     OW 5196   1.717  10.166   1.739  0.0750  0.0347  0.1152
32694SOL    HW1 5197   1.812  10.167   1.740  0.1019 -1.2013  1.0295
32694SOL    HW2 5198   1.693  10.199   1.652  1.3212  0.4831 -0.0703
32695SOL     OW 5199   4.744   5.307   8.373 -0.3591 -0.5044 -0.0659
32695SOL    HW1 5200   4.693   5.378   8.413 -0.6401 -1.0949  0.6448
32695SOL    HW2 5201   4.711   5.228   8.414 -1.3864 -1.2631 -2.2236
32696SOL     OW 5202   1.352   1.301   8.742 -0.1035 -0.2658 -0.3308
32696SOL    HW1 5203   1.304   1.381   8.721 -0.8252 -0.5287  0.2719
32696SOL    HW2 5204   1.286   1.242   8.778  0.6974 -0.6002  0.6314
32697SOL     OW 5205   3.378  12.172   4.208 -0.0027  0.3603  0.1573
32697SOL    HW1 5206   3.390  12.243   4.145 -0.3416 -0.0499 -0.3718
32697SOL    HW2 5207   3.326  12.107   4.162 -1.4368  0.6407  1.2852
32698SOL     OW 5208  10.511   3.107   8.773  0.0424  0.7175  0.0709
32698SOL    HW1 5209  10.527   3.060   8.691  1.2858 -0.2720  0.8343
32698SOL    HW2 5210  10.564   3.186   8.765  1.0695  0.0864  0.3334
32699SOL     OW 5211  12.295   7.947   3.404  0.4946 -0.3983  0.3022
32699SOL    HW1 5212  12.290   8.019   3.467 -2.6907 -0.5966  0.4151
32699SOL    HW2 5213  12.274   7.986   3.320 -0.3127 -1.0159  0.2079
32700SOL     OW 5214   5.763   3.186   7.002  0.1948 -0.7227  0.0911
32700SOL    HW1 5215   5.694   3.251   6.997  1.2054  0.3663 -0.1297
32700SOL    HW2 5216   5.821   3.217   7.072  0.9344 -1.1397 -0.3176
32701SOL     OW 5217  10.860   9.737  11.061  0.6988 -0.0442  0.2755
32701SOL    HW1 5218  10.921   9.802  11.025 -0.0487  0.4845 -0.0467
32701SOL    HW2 5219  10.825   9.778  11.140  0.4823 -0.1972  0.2574
32702SOL     OW 5220   6.098  10.149  11.600  0.0021 -0.2910  0.6571
32702SOL    HW1 5221   6.193  10.162  11.595  0.2046 -1.7604  0.3081
32702SOL    HW2 5222   6.072  10.195  11.679  0.8806  0.7950  0.3443
32703SOL     OW 5223   6.616   0.601   6.618 -0.0581 -0.1315 -0.1021
32703SOL    HW1 5224   6.586   0.604   6.708  0.1132  2.6696 -0.0451
32703SOL    HW2 5225   6.712   0.597   6.624 -0.0212  0.6230 -0.1414
32704SOL     OW 5226   7.911  10.695   4.872  0.2881 -0.0500 -0.0692
32704SOL    HW1 5227   7.986  10.641   4.898  0.0422  0.7471  2.6021
32704SOL    HW2 5228   7.836  10.637   4.881  0.3733 -0.2873 -0.8243
32705SOL     OW 5229  11.490   3.491  10.123 -0.6431 -0.1303 -0.5973
32705SOL    HW1 5230  11.496   3.584  10.102 -0.2648  0.5404  2.1050
32705SOL    HW2 5231  11.407   3.483  10.170 -0.6128 -1.1466 -0.7057
32706SOL     OW 5232   9.662   9.672   3.207  0.0335  0.0453  0.2724
32706SOL    HW1 5233   9.628   9.708   3.125 -0.2729  0.5601  0.6245
32706SOL    HW2 5234   9.688   9.748   3.258  0.1539 -0.2725  0.6865
32707SOL     OW 5235  12.409   5.065   6.197 -0.1287 -0.1583 -0.1978
32707SOL    HW1 5236  12.362   5.145   6.221 -0.8124 -1.0167  1.4933
32707SOL    HW2 5237  12.395   5.056   6.102 -3.2353 -0.2303  0.1620
32708SOL     OW 5238   4.453   1.391   8.667  0.0737 -0.1992 -0.3516
32708SOL    HW1 5239   4.431   1.417   8.577 -1.5285 -0.4477 -0.0564
32708SOL    HW2 5240   4.420   1.301   8.675  0.9632 -0.4854  0.2343
32709SOL     OW 5241   6.577   6.822   0.426 -0.1911  0.6277 -0.0797
32709SOL    HW1 5242   6.557   6.763   0.499 -0.6119  1.1879  0.2712
32709SOL    HW2 5243   6.561   6.769   0.348 -0.4769  0.2448  0.2295
32710SOL     OW 5244   5.135   6.510   6.659  0.2896  0.1668  0.6979
32710SOL    HW1 5245   5.205   6.487   6.720  0.1480  0.0658  0.8228
32710SOL    HW2 5246   5.061   6.533   6.715  0.4349  0.9488  0.5818
32711SOL     OW 5247   7.273  11.396   1.419  0.1150 -0.0904  0.6271
32711SOL    HW1 5248   7.229  11.312   1.407 -1.0203  0.0365  3.2762
32711SOL    HW2 5249   7.278  11.433   1.331 -0.0873 -2.5389 -0.5019
32712SOL     OW 5250   5.343   0.344   7.182  0.0255 -0.9577  0.2972
32712SOL    HW1 5251   5.395   0.307   7.111 -0.0170 -0.6469  0.1039
32712SOL    HW2 5252   5.268   0.286   7.189 -1.6433  0.7172 -2.0494
32713SOL     OW 5253   2.248   4.480   6.561  0.3477  0.0433  0.0708
32713SOL    HW1 5254   2.260   4.520   6.475  0.1525  1.0554  0.5021
32713SOL    HW2 5255   2.312   4.523   6.617 -1.2696  1.3135  1.0410
32714SOL     OW 5256  10.373   9.187   3.126 -0.0597 -0.5176 -0.1818
32714SOL    HW1 5257  10.364   9.107   3.075 -0.6077 -0.7333  0.2457
32714SOL    HW2 5258  10.467   9.196   3.140 -0.0676 -1.7693  0.8468
32715SOL     OW 5259   1.413   9.391   6.723 -0.0574  0.3223 -0.0599
32715SOL    HW1 5260   1.379   9.388   6.812  0.4117 -2.4698  0.1149
32715SOL    HW2 5261   1.370   9.466   6.683 -2.1070  0.2424  1.8087
32716SOL     OW 5262   3.316   3.178   1.731  0.4517  0.2536  0.4143
32716SOL    HW1 5263   3.256   3.253   1.735  1.7066  1.3709 -0.5965
32716SOL    HW2 5264   3.373   3.198   1.657  0.5884 -1.9209 -0.1083
32717SOL     OW 5265   2.400   5.437   9.221 -0.5579 -0.0704  0.0024
32717SOL    HW1 5266   2.465   5.497   9.257 -0.9381 -0.2135  0.9467
32717SOL    HW2 5267   2.420   5.434   9.127 -0.9161  2.0269 -0.2051
32718SOL     OW 5268   6.621   9.924   6.524  0.2790  0.6183  0.4509
32718SOL    HW1 5269   6.634   9.907   6.617  1.9250  0.1788  0.1821
32718SOL    HW2 5270   6.633  10.018   6.515 -0.0839  0.6909  0.7087
32719SOL     OW 5271  12.556  12.145   9.631  0.1355 -0.0714 -0.4257
32719SOL    HW1 5272  12.599  12.218   9.675 -0.0938 -1.0621  1.5728
32719SOL    HW2 5273  12.464  12.151   9.658 -0.2883 -0.0289 -1.7892
32720SOL     OW 5274   6.483   8.538   8.215 -0.1558 -0.3655  0.3491
32720SOL    HW1 5275   6.569   8.523   8.176  0.3827 -0.7456  1.6412
32720SOL    HW2 5276   6.435   8.457   8.200  0.3732 -0.8641  1.2662
32721SOL     OW 5277   7.747   1.056   5.752  0.6283 -0.3851  0.5009
32721SOL    HW1 5278   7.798   1.114   5.808 -0.0626  1.3516 -0.5913
32721SOL    HW2 5279   7.792   1.060   5.667 -0.4316 -0.0224 -0.0577
32722SOL     OW 5280   8.889   1.262   2.589  0.2927  0.5247  0.1387
32722SOL    HW1 5281   8.829   1.212   2.534  1.8246 -1.4081  0.1410
32722SOL    HW2 5282   8.882   1.351   2.556 -0.0674 -0.2651 -2.0907
32723SOL     OW 5283   8.553  12.530   6.681  0.7464 -0.6140  0.1494
32723SOL    HW1 5284   8.500  12.472   6.736 -0.9014  0.0341 -0.6937
32723SOL    HW2 5285   8.559  12.611   6.732 -0.0610 -0.3068 -0.2171
32724SOL     OW 5286   7.369   0.391  11.412  0.1650 -0.3288  0.1771
32724SOL    HW1 5287   7.438   0.449  11.445  0.8236 -1.0111  0.0115
32724SOL    HW2 5288   7.415   0.328  11.357 -0.5389 -1.0377  0.3917
32725SOL     OW 5289  11.034   7.366  10.948  0.2390 -0.2851  0.1842
32725SOL    HW1 5290  10.978   7.306  10.898 -0.6195  0.7377 -0.1162
32725SOL    HW2 5291  10.989   7.376  11.032 -0.4884  1.1613 -0.3447
32726SOL     OW 5292   1.147   4.471   7.934  0.2587 -0.7390 -0.1917
32726SOL    HW1 5293   1.064   4.424   7.936  0.1060 -0.4583  1.1523
32726SOL    HW2 5294   1.166   4.483   7.841 -1.9081  0.4076 -0.5526
32727SOL     OW 5295   4.184   8.343   9.114 -0.0159 -0.0807 -0.0079
32727SOL    HW1 5296   4.091   8.327   9.128  0.2507  0.1502  2.3061
32727SOL    HW2 5297   4.217   8.370   9.199  2.3593 -0.9626 -0.5762
32728SOL     OW 5298  12.349  12.931  11.743  0.1671 -0.1706 -0.3952
32728SOL    HW1 5299  12.287  13.001  11.727 -1.0563 -0.3621  2.9360
32728SOL    HW2 5300  12.305  12.872  11.804  1.8403 -2.9205 -1.6424
32729SOL     OW 5301   9.891   0.841  11.218  0.3160 -0.4281  0.0556
32729SOL    HW1 5302   9.929   0.840  11.306  0.2641  0.9658  0.1178
32729SOL    HW2 5303   9.940   0.774  11.170  1.2648 -0.2751  0.7824
32730SOL     OW 5304  11.545   8.229   6.449  0.0406 -0.0070  0.5451
32730SOL    HW1 5305  11.563   8.271   6.364 -0.8041  0.6693  0.6798
32730SOL    HW2 5306  11.519   8.301   6.506 -0.0477 -0.5454  1.1938
32731SOL     OW 5307   8.002   7.816   5.553 -0.1318 -0.4228  0.1136
32731SOL    HW1 5308   7.951   7.813   5.634  0.7608  0.4550  0.7324
32731SOL    HW2 5309   7.977   7.899   5.512  1.1706  0.2765  0.6950
32732SOL     OW 5310  12.651   9.431   1.672 -0.6714  0.5376 -0.2253
32732SOL    HW1 5311  12.622   9.506   1.619  0.9085  1.0650 -0.3894
32732SOL    HW2 5312  12.726   9.395   1.624 -1.7271 -1.5341 -0.4498
32733SOL     OW 5313   0.962  10.290   9.417 -0.2055 -0.4144  0.1355
32733SOL    HW1 5314   0.965  10.195   9.408 -1.3018 -0.4067 -0.4088
32733SOL    HW2 5315   0.904  10.305   9.491 -1.0866 -0.1568 -0.5824
32734SOL     OW 5316   6.829   7.901   2.306  0.0262 -0.5230 -0.4387
32734SOL    HW1 5317   6.870   7.979   2.267 -1.1134  0.1722 -0.2810
32734SOL    HW2 5318   6.872   7.891   2.391 -0.0755  0.1635 -0.3012
32735SOL     OW 5319   4.677   1.216   5.007 -0.5049 -0.1336  0.8075
32735SOL    HW1 5320   4.659   1.259   4.924 -1.5567  0.0249  1.1033
32735SOL    HW2 5321   4.767   1.186   5.000 -0.5858 -0.1155 -0.3818
32736SOL     OW 5322   9.875  12.016  12.726 -0.9501  0.3767 -0.2623
32736SOL    HW1 5323   9.796  12.022  12.779 -0.5505  0.7112  0.3156
32736SOL    HW2 5324   9.901  11.924  12.730  0.0976  0.7142  1.6737
32737SOL     OW 5325   6.989   9.663  10.168 -0.1234  0.0873 -0.2449
32737SOL    HW1 5326   6.909   9.709  10.142  0.4628  0.2097 -1.9617
32737SOL    HW2 5327   7.005   9.601  10.097  1.1188 -0.1773  0.2439
32738SOL     OW 5328   1.049   1.959   9.275  0.0717 -0.6177  0.2933
32738SOL    HW1 5329   1.001   1.907   9.211  0.4093 -1.0856  0.4124
32738SOL    HW2 5330   1.006   2.044   9.274 -1.2817 -1.2646  0.9779
32739SOL     OW 5331   6.057   6.779   5.057 -0.0549 -0.0991 -0.1250
32739SOL    HW1 5332   6.100   6.748   5.137  0.3628  1.5097  0.3099
32739SOL    HW2 5333   6.122   6.766   4.988 -0.8344 -2.6205 -0.5089
32740SOL     OW 5334  11.556   2.868  12.087 -0.5469 -0.3795 -0.2327
32740SOL    HW1 5335  11.533   2.837  12.000 -2.8026 -0.6455  0.4018
32740SOL    HW2 5336  11.584   2.790  12.134 -3.3089 -1.0731  0.4500
32741SOL     OW 5337   3.022   8.192   4.225  0.4844  0.2532  0.0220
32741SOL    HW1 5338   3.069   8.150   4.297  0.0147  1.6104  1.1999
32741SOL    HW2 5339   2.972   8.262   4.268  0.7607  1.6043 -1.7197
32742SOL     OW 5340  11.133   9.768   7.316  1.0016  0.0605 -0.3330
32742SOL    HW1 5341  11.117   9.859   7.290  0.6854  0.2212  0.3863
32742SOL    HW2 5342  11.050   9.723   7.298  1.5170 -0.3637 -1.7811
32743SOL     OW 5343   6.018  12.387   2.268  0.2961 -0.0518  0.1238
32743SOL    HW1 5344   6.072  12.334   2.327  0.5340  0.0100 -0.0366
32743SOL    HW2 5345   5.948  12.328   2.240 -0.8517  0.3981  1.8309
32744SOL     OW 5346   0.742   6.547  10.825 -0.6790 -0.1354  0.2223
32744SOL    HW1 5347   0.810   6.567  10.890 -0.4550  0.1818 -0.1057
32744SOL    HW2 5348   0.732   6.452  10.830  0.2764 -0.2694 -0.2030
32745SOL     OW 5349  10.869   6.783   8.598 -0.0539 -0.5726  0.2392
32745SOL    HW1 5350  10.897   6.691   8.595 -0.6176 -0.7661  0.7407
32745SOL    HW2 5351  10.777   6.779   8.621 -0.6341  0.0452 -1.7986
32746SOL     OW 5352   7.073  10.198   4.486 -0.3935 -0.3000 -0.0937
32746SOL    HW1 5353   7.010  10.266   4.510 -0.0115 -0.3219  1.0177
32746SOL    HW2 5354   7.035  10.117   4.518  0.8599 -0.1367  1.9951
32747SOL     OW 5355   7.476  10.836   5.525 -0.6227  0.2826  0.2589
32747SOL    HW1 5356   7.548  10.810   5.582 -0.8439 -2.3744 -0.5208
32747SOL    HW2 5357   7.517  10.849   5.439 -0.7070  1.4665  0.3822
32748SOL     OW 5358   1.656   2.650   9.684  0.1700  0.2579  0.0698
32748SOL    HW1 5359   1.659   2.590   9.758 -0.2285 -0.7171 -0.6855
32748SOL    HW2 5360   1.573   2.631   9.640  0.7923  0.1997 -1.1276
32749SOL     OW 5361   9.642   3.488   4.160  0.6691 -0.2491  0.6239
32749SOL    HW1 5362   9.706   3.509   4.091 -0.1568  0.8471  0.1581
32749SOL    HW2 5363   9.610   3.573   4.190 -0.4367 -0.7672  0.9720
32750SOL     OW 5364   4.396   7.662  12.623 -0.2952  0.0486  0.4145
32750SOL    HW1 5365   4.392   7.656  12.719 -1.1358  3.4742  0.7123
32750SOL    HW2 5366   4.453   7.737  12.606 -0.7835 -0.0092 -1.7644
32751SOL     OW 5367   9.624   1.475  10.884 -0.4588 -0.5182  0.1703
32751SOL    HW1 5368   9.542   1.523  10.894 -1.2151 -1.8715  0.6611
32751SOL    HW2 5369   9.653   1.496  10.795 -0.8360  0.7084  0.3200
32752SOL     OW 5370   6.603   6.191   3.099 -0.5372  0.6849 -0.8484
32752SOL    HW1 5371   6.687   6.199   3.053 -0.0738 -0.7097 -0.3178
32752SOL    HW2 5372   6.576   6.281   3.116  1.5365  1.1787  0.1728
32753SOL     OW 5373   1.210   1.815   5.553  1.0105  0.1706  0.5360
32753SOL    HW1 5374   1.266   1.811   5.475  0.8459 -1.2018  0.4614
32753SOL    HW2 5375   1.149   1.743   5.541 -0.3555  1.2295  0.9493
32754SOL     OW 5376   7.366   5.041   3.822 -0.0434  0.2952  1.2201
32754SOL    HW1 5377   7.447   5.078   3.859 -0.1839  0.8485  0.9887
32754SOL    HW2 5378   7.333   4.983   3.891  0.3470  0.3582  1.4702
32755SOL     OW 5379   3.609   5.192   0.865  0.3854  0.7034 -0.2649
32755SOL    HW1 5380   3.703   5.175   0.875  1.0384  4.0634  0.6551
32755SOL    HW2 5381   3.574   5.182   0.953 -0.3469 -1.1783 -0.7138
32756SOL     OW 5382   8.673   8.484   9.293  0.5402  0.4380  0.5626
32756SOL    HW1 5383   8.732   8.432   9.237 -0.3066 -0.4556  0.4843
32756SOL    HW2 5384   8.701   8.464   9.382 -0.0021 -0.4510  0.5481
32757SOL     OW 5385   1.144   0.589   0.054  0.5058 -0.2689  0.1250
32757SOL    HW1 5386   1.213   0.522   0.060  1.0842  0.4192  2.0502
32757SOL    HW2 5387   1.159   0.632  -0.030  1.6776 -0.9218 -0.0213
32758SOL     OW 5388  12.593   1.282   1.411 -0.4513 -0.2866  0.5871
32758SOL    HW1 5389  12.598   1.211   1.346 -0.9405  0.5900 -0.4453
32758SOL    HW2 5390  12.521   1.337   1.380 -0.0773  0.6669  1.3709
32759SOL     OW 5391  12.158   1.235   3.594 -0.5572 -0.4140 -0.4921
32759SOL    HW1 5392  12.221   1.290   3.640  1.7121 -2.2980 -1.1636
32759SOL    HW2 5393  12.084   1.227   3.654  0.3402  0.8932  0.8436
32760SOL     OW 5394  12.416   0.080   9.700  0.1035 -0.5468  0.0339
32760SOL    HW1 5395  12.473   0.059   9.774  0.9671  0.5306 -0.3032
32760SOL    HW2 5396  12.390  -0.005   9.664 -0.1092 -1.0825  1.3967
32761SOL     OW 5397   6.127   2.013  12.502  0.2022  0.1402 -0.2142
32761SOL    HW1 5398   6.045   1.990  12.460  0.5940 -0.0444 -0.8871
32761SOL    HW2 5399   6.101   2.065  12.578 -0.5019  0.7896 -0.8821
32762SOL     OW 5400   9.154   1.918  11.653  0.0723  0.0483 -0.4210
32762SOL    HW1 5401   9.208   1.840  11.667  0.8529  0.5478 -0.6052
32762SOL    HW2 5402   9.216   1.989  11.640 -0.6086  0.9410  0.9435
32763SOL     OW 5403  10.093  10.150   4.175 -0.3196  0.1321 -0.9521
32763SOL    HW1 5404  10.092  10.245   4.160 -2.0613  0.7892  2.2480
32763SOL    HW2 5405  10.182  10.131   4.201 -0.6492  1.6861  1.7182
32764SOL     OW 5406   3.985  10.083   0.508  0.6813  0.2256  0.2141
32764SOL    HW1 5407   3.982  10.141   0.431  0.8042  0.8717  0.6889
32764SOL    HW2 5408   4.001   9.996   0.471  0.3265  0.4590 -0.5276
32765SOL     OW 5409   6.994   1.413  10.052 -0.1280  0.2799  1.0167
32765SOL    HW1 5410   6.983   1.341  10.114  0.9201 -0.4719  0.3738
32765SOL    HW2 5411   6.912   1.461  10.056 -0.2044  0.0657  2.7427
32766SOL     OW 5412  12.818  11.480   9.178 -0.2814  0.3194  0.3041
32766SOL    HW1 5413  12.753  11.505   9.112  1.6758  2.2923 -1.0223
32766SOL    HW2 5414  12.889  11.440   9.128 -0.4165 -1.8534  1.7237
32767SOL     OW 5415   0.788   7.980   3.349  0.3127  0.2850 -0.1521
32767SOL    HW1 5416   0.870   8.030   3.355 -0.4310  1.5863 -0.5524
32767SOL    HW2 5417   0.745   8.013   3.270 -0.9928  0.2054  0.4979
32768SOL     OW 5418   0.652   0.404   0.591 -0.2280  0.3905  0.4644
32768SOL    HW1 5419   0.649   0.495   0.563 -0.4087  0.7900  1.6972
32768SOL    HW2 5420   0.616   0.406   0.680  0.9476 -0.6819  0.9905
32769SOL     OW 5421   3.401   6.052   8.977 -0.6529  0.0015 -0.4003
32769SOL    HW1 5422   3.485   6.093   8.954 -0.5440 -0.0952 -0.1804
32769SOL    HW2 5423   3.338   6.125   8.976 -0.2632  0.3973  1.0529
32770SOL     OW 5424   1.485   6.062   4.304  0.2586  0.7216  0.3669
32770SOL    HW1 5425   1.509   6.111   4.382 -1.2721 -0.4890  1.6692
32770SOL    HW2 5426   1.542   5.986   4.304 -0.6309  0.0307  1.0944
32771SOL     OW 5427  12.958  10.454  10.673 -0.0591  0.3606  0.3496
32771SOL    HW1 5428  12.933  10.385  10.735  0.3556  0.2339  0.3817
32771SOL    HW2 5429  12.934  10.418  10.587 -1.2750  0.8194  0.4743
32772SOL     OW 5430   5.644   3.996  12.774  0.3692  0.1524  0.0686
32772SOL    HW1 5431   5.727   3.967  12.737 -0.4926 -2.8267  0.2564
32772SOL    HW2 5432   5.582   3.926  12.753 -1.8759  1.7862  0.8423
32773SOL     OW 5433   1.824  10.590  11.002 -0.1796  0.3097  0.3595
32773SOL    HW1 5434   1.890  10.660  10.997  2.4497 -1.9724  0.5413
32773SOL    HW2 5435   1.774  10.611  11.081  2.3214  0.6666  2.0005
32774SOL     OW 5436   2.877  10.070   6.204  0.1282  0.5010  1.1801
32774SOL    HW1 5437   2.956  10.124   6.196 -1.0765  2.0160 -1.8864
32774SOL    HW2 5438   2.902   9.985   6.167  0.0040  1.4780 -1.3581
32775SOL     OW 5439   9.329   8.491   5.166  0.2457  0.5559  0.0540
32775SOL    HW1 5440   9.311   8.568   5.111  0.6197  0.7829  0.2436
32775SOL    HW2 5441   9.328   8.417   5.105  1.1184  0.8594 -0.3518
32776SOL     OW 5442   5.345   6.672   7.817  0.8073  0.0433 -0.1053
32776SOL    HW1 5443   5.326   6.663   7.724  0.0911  1.7406 -0.1569
32776SOL    HW2 5444   5.441   6.664   7.823  1.0050  1.1580 -1.1860
32777SOL     OW 5445  11.653   7.655   6.571  0.4030 -0.4620 -0.4164
32777SOL    HW1 5446  11.702   7.661   6.653 -1.7767 -2.0490  1.1102
32777SOL    HW2 5447  11.563   7.678   6.594 -0.0736  0.1661 -2.6220
32778SOL     OW 5448  10.731   3.413  12.960 -0.0826  0.4969  0.1550
32778SOL    HW1 5449  10.683   3.425  13.042  0.7546 -1.9819  1.1073
32778SOL    HW2 5450  10.679   3.349  12.911  0.8989 -0.2893  0.1028
32779SOL     OW 5451   2.467   6.510   1.781 -0.4267  0.0955  0.0163
32779SOL    HW1 5452   2.524   6.554   1.717  2.8204  2.4373  4.0361
32779SOL    HW2 5453   2.420   6.582   1.824 -0.9926 -1.1597  1.5951
32780SOL     OW 5454  10.517   2.110   9.413 -0.2150 -0.1563 -0.3183
32780SOL    HW1 5455  10.528   2.056   9.491 -0.3290 -0.5835 -0.5949
32780SOL    HW2 5456  10.423   2.130   9.411 -0.3963 -1.0024 -0.9000
32781SOL     OW 5457   2.382   9.793   6.098 -0.6557 -0.0736  0.2218
32781SOL    HW1 5458   2.372   9.774   6.005  0.1352  1.7499 -0.2827
32781SOL    HW2 5459   2.472   9.827   6.106 -0.2677 -1.3584  1.8675
32782SOL     OW 5460   5.970  12.004   7.815  0.3784  0.0100  0.0639
32782SOL    HW1 5461   5.997  12.019   7.906  2.0613 -2.1229  0.0128
32782SOL    HW2 5462   5.891  11.950   7.823 -0.2620  0.9499  0.2296
32783SOL     OW 5463   2.097   1.291   1.760  0.4064  0.2305 -0.3748
32783SOL    HW1 5464   2.059   1.358   1.817  2.0928  1.1179 -0.2224
32783SOL    HW2 5465   2.191   1.305   1.766  0.7879 -1.8997 -0.7076
32784SOL     OW 5466   3.525  10.352   1.916 -0.1457 -0.0466  0.0781
32784SOL    HW1 5467   3.594  10.289   1.935 -0.3266  0.2709  1.9678
32784SOL    HW2 5468   3.570  10.437   1.911 -0.0572 -0.1488 -1.3794
32785SOL     OW 5469  10.839   2.913   4.506 -0.2016  0.3570 -0.6698
32785SOL    HW1 5470  10.867   2.841   4.450  0.0223  0.0984 -0.2230
32785SOL    HW2 5471  10.919   2.963   4.522 -0.1515  0.0950 -0.0919
32786SOL     OW 5472   8.143   9.361   2.215  0.0149 -0.5543 -0.0490
32786SOL    HW1 5473   8.084   9.436   2.219  1.4873  0.5875  1.5291
32786SOL    HW2 5474   8.130   9.325   2.128  0.9324  2.9600 -1.8297
32787SOL     OW 5475   4.376   4.957  10.557 -0.5836  0.3261  0.2116
32787SOL    HW1 5476   4.303   4.995  10.606 -0.2458  0.3443  0.6982
32787SOL    HW2 5477   4.382   4.867  10.589 -0.9187  0.0711 -0.4223
32788SOL     OW 5478   8.852  10.288  12.023  0.0336 -0.1228  0.2857
32788SOL    HW1 5479   8.775  10.293  11.966 -0.7374 -2.7131  0.9756
32788SOL    HW2 5480   8.904  10.216  11.987  0.4151 -0.6394  1.7906
32789SOL     OW 5481   6.442   7.097   0.969 -0.5016 -0.0170 -0.2176
32789SOL    HW1 5482   6.485   7.168   1.015  1.3744  0.5571 -2.6372
32789SOL    HW2 5483   6.388   7.140   0.902 -1.1045 -0.8403 -0.2906
32790SOL     OW 5484  10.292   1.175  10.258 -0.5409  0.0939 -0.4034
32790SOL    HW1 5485  10.387   1.172  10.267 -0.4217  1.4529 -0.9185
32790SOL    HW2 5486  10.274   1.134  10.173 -0.2776  1.0060 -0.9165
32791SOL     OW 5487   5.388   4.515   9.821 -0.2288 -0.3105 -0.1860
32791SOL    HW1 5488   5.332   4.592   9.830 -1.8482 -1.4681 -0.0774
32791SOL    HW2 5489   5.401   4.506   9.727 -0.2198 -0.0546 -0.2119
32792SOL     OW 5490   5.968   8.931   5.853  0.0124  0.6960  0.2369
32792SOL    HW1 5491   5.901   8.997   5.871  0.0854  1.1310 -0.9600
32792SOL    HW2 5492   5.937   8.852   5.895 -1.2007  0.9319 -0.1830
32793SOL     OW 5493   9.022  12.614  10.527  0.5540  0.1097  0.5503
32793SOL    HW1 5494   9.011  12.708  10.545  0.1487  0.4134 -1.1046
32793SOL    HW2 5495   9.116  12.598  10.542  0.4047  0.4780  2.0374
32794SOL     OW 5496   3.111   0.049  12.181 -0.0902  0.3865  0.4186
32794SOL    HW1 5497   3.033   0.063  12.235  1.0466  1.7773  1.8143
32794SOL    HW2 5498   3.092   0.094  12.099 -0.8422  0.5158  0.6614
32795SOL     OW 5499  10.909  11.921   0.563 -0.2433  0.3657 -0.3542
32795SOL    HW1 5500  10.885  11.832   0.537  3.5280 -1.5248  1.6973
32795SOL    HW2 5501  10.952  11.958   0.486 -1.6728  0.4177 -1.1628
32796SOL     OW 5502   2.928  12.914   3.507  0.1701  0.2403  0.1820
32796SOL    HW1 5503   2.841  12.917   3.548  0.9701  0.2464  1.9501
32796SOL    HW2 5504   2.919  12.966   3.428 -0.9439  1.8792  1.3317
32797SOL     OW 5505  10.042   1.133   1.830 -0.3872 -0.2473  0.1324
32797SOL    HW1 5506  10.060   1.040   1.818 -2.3180 -0.7908  0.9649
32797SOL    HW2 5507   9.995   1.138   1.914 -0.5338  1.4383 -0.0080
32798SOL     OW 5508   0.454   2.594   6.526  0.0465  0.3930  0.2762
32798SOL    HW1 5509   0.388   2.660   6.548 -1.1156 -0.2505 -1.1011
32798SOL    HW2 5510   0.482   2.617   6.438  0.2660 -0.4518  0.1215
32799SOL     OW 5511   7.554   2.048   0.082  0.4002 -0.0781 -0.4276
32799SOL    HW1 5512   7.613   2.060   0.157  0.9761  2.1352 -1.1414
32799SOL    HW2 5513   7.607   2.073   0.006 -0.3288 -1.7775 -1.5419
32800SOL     OW 5514   6.328   3.723   0.753 -0.2097 -0.0660 -0.2361
32800SOL    HW1 5515   6.370   3.732   0.668 -0.0378 -1.0331 -0.2691
32800SOL    HW2 5516   6.292   3.634   0.753 -0.5987  0.0821  0.5220
32801SOL     OW 5517  12.401  11.645   7.995  0.2467  0.1345  0.2797
32801SOL    HW1 5518  12.403  11.609   8.084  1.4070  0.6087  0.4690
32801SOL    HW2 5519  12.321  11.610   7.957  0.0053 -0.5204  1.3327
32802SOL     OW 5520   0.798   5.883   9.404 -0.0694  1.0277  0.4687
32802SOL    HW1 5521   0.862   5.926   9.461  2.3035 -2.1566  0.4956
32802SOL    HW2 5522   0.817   5.917   9.317 -0.4879  2.3686  0.8708
32803SOL     OW 5523   3.442   4.315   4.729 -0.6100 -0.1091 -0.1243
32803SOL    HW1 5524   3.379   4.347   4.664 -0.7666  0.5732  0.3540
32803SOL    HW2 5525   3.471   4.230   4.695 -0.1351  0.5622 -1.4586
32804SOL     OW 5526   9.101   0.265   4.925  0.7462  0.0727 -0.5133
32804SOL    HW1 5527   9.177   0.207   4.929 -0.5327 -1.6509 -0.2522
32804SOL    HW2 5528   9.120   0.323   4.851  1.9078 -0.9123 -1.0341
32805SOL     OW 5529  11.688   5.928   7.964 -0.0109  0.4088  0.1471
32805SOL    HW1 5530  11.637   5.885   7.896 -0.1969 -0.5201  0.8620
32805SOL    HW2 5531  11.647   6.014   7.974 -1.6916 -0.4578  0.9893
32806SOL     OW 5532   1.981   3.751   9.294 -0.3420 -1.3519 -0.3272
32806SOL    HW1 5533   1.966   3.792   9.209  0.2502 -0.5986 -0.0831
32806SOL    HW2 5534   1.902   3.701   9.312 -1.1466 -0.2014 -0.5799
32807SOL     OW 5535  12.547   7.263  10.341  0.1788  0.1339  0.0435
32807SOL    HW1 5536  12.539   7.172  10.312 -0.2866  0.1391  0.1467
32807SOL    HW2 5537  12.560   7.257  10.435  0.7253  0.1558 -0.0263
32808SOL     OW 5538   9.299   6.710  10.229 -0.8544 -0.4566  0.1047
32808SOL    HW1 5539   9.224   6.763  10.257 -1.3106 -2.2972  2.6521
32808SOL    HW2 5540   9.372   6.773  10.227 -1.8011  0.7236  0.8317
32809SOL     OW 5541   2.315   3.330  11.752  0.3123  0.1222  0.3704
32809SOL    HW1 5542   2.326   3.402  11.690  0.3023 -0.2884 -0.1222
32809SOL    HW2 5543   2.221   3.308  11.747  0.5719 -0.8910 -0.6105
32810SOL     OW 5544   3.240   8.771   6.934 -0.4025 -0.1206  0.1209
32810SOL    HW1 5545   3.265   8.680   6.919  0.9610 -0.1685  2.2778
32810SOL    HW2 5546   3.162   8.765   6.990 -0.4724  0.0425  0.0421
32811SOL     OW 5547  10.905  11.234   6.171 -0.1904 -0.1422 -0.0288
32811SOL    HW1 5548  10.868  11.193   6.249  0.5271 -1.1066 -0.1661
32811SOL    HW2 5549  10.912  11.327   6.193 -2.3629  0.0378  0.1071
32812SOL     OW 5550   1.616   0.363  10.844  0.0346  0.5315 -0.6094
32812SOL    HW1 5551   1.632   0.290  10.784 -2.4465 -0.3944 -0.2787
32812SOL    HW2 5552   1.697   0.372  10.894  0.5826 -1.6773 -1.0005
32813SOL     OW 5553  12.247   3.076  11.049 -0.0538 -0.1912  0.2449
32813SOL    HW1 5554  12.233   2.982  11.062  2.5286 -0.7770 -0.5691
32813SOL    HW2 5555  12.296   3.103  11.127 -2.3094  0.9462  1.3426
32814SOL     OW 5556  11.844   3.817   6.958 -0.3915 -0.2350 -0.2689
32814SOL    HW1 5557  11.856   3.808   7.052  0.5984 -1.1778 -0.4711
32814SOL    HW2 5558  11.927   3.852   6.926 -0.3621 -0.8629 -0.9132
32815SOL     OW 5559  10.693   0.189   0.003 -0.6438 -0.0935 -0.2045
32815SOL    HW1 5560  10.701   0.220  -0.087 -1.4691  2.4607  0.5170
32815SOL    HW2 5561  10.756   0.243   0.052 -0.9078 -0.7495  0.8894
32816SOL     OW 5562   1.487  12.770   9.959  0.1445 -0.0162 -0.3798
32816SOL    HW1 5563   1.425  12.782  10.030  0.1224 -0.1248 -0.3811
32816SOL    HW2 5564   1.516  12.679   9.966 -1.2497 -0.5907 -1.6393
32817SOL     OW 5565   6.068   9.279   6.075  0.1149 -0.4990  0.2039
32817SOL    HW1 5566   6.138   9.322   6.025 -0.5845  0.9074  0.3869
32817SOL    HW2 5567   5.992   9.282   6.018 -1.0954  2.4218  1.7752
32818SOL     OW 5568   4.737  11.294   3.178 -0.1612 -0.2555  0.4905
32818SOL    HW1 5569   4.644  11.277   3.195  0.0389 -2.6336 -0.3852
32818SOL    HW2 5570   4.781  11.266   3.259 -0.0488 -1.6364 -0.0126
32819SOL     OW 5571   0.826  11.452   4.237  0.2141  0.2640  0.5227
32819SOL    HW1 5572   0.853  11.500   4.160 -1.2154  1.0148  0.4516
32819SOL    HW2 5573   0.793  11.369   4.203 -0.2552  0.5247  0.3368
32820SOL     OW 5574   1.742   3.478   1.268  0.2278 -0.0682 -0.6332
32820SOL    HW1 5575   1.688   3.485   1.346  1.4801  2.1103  0.1222
32820SOL    HW2 5576   1.688   3.515   1.198  0.3112  1.1851 -0.0706
32821SOL     OW 5577   3.691  12.367   8.700 -0.2404  0.3765 -0.3841
32821SOL    HW1 5578   3.658  12.297   8.757  1.2205  0.0866  0.1381
32821SOL    HW2 5579   3.673  12.335   8.611 -0.2839 -0.3136 -0.1369
32822SOL     OW 5580   3.922   3.081   0.590  0.7074  0.1330  0.8824
32822SOL    HW1 5581   4.015   3.059   0.594  0.7620  0.3481  0.8183
32822SOL    HW2 5582   3.903   3.087   0.496  0.8310  0.9366  0.9077
32823SOL     OW 5583  10.236  11.565   2.605  0.0381  0.1061 -0.7483
32823SOL    HW1 5584  10.141  11.568   2.616  0.2086  0.5547  0.9788
32823SOL    HW2 5585  10.250  11.521   2.521 -1.6493 -2.2679  0.1275
32824SOL     OW 5586   5.671   0.946   9.672  0.1225 -0.8948 -0.3122
32824SOL    HW1 5587   5.611   0.876   9.697 -2.1090  0.4561 -1.6662
32824SOL    HW2 5588   5.663   0.953   9.577 -0.1005  1.5166 -0.1730
32825SOL     OW 5589   2.023   8.053   3.307  0.3751 -0.0705 -0.8631
32825SOL    HW1 5590   2.064   8.018   3.386 -1.7111 -0.2066  0.2438
32825SOL    HW2 5591   2.094   8.097   3.260  1.4753  1.1917  1.7577
32826SOL     OW 5592  11.554   5.083   5.470  0.7312  0.2846 -0.2570
32826SOL    HW1 5593  11.618   5.131   5.417  1.2313  0.8183  0.7989
32826SOL    HW2 5594  11.532   5.143   5.541  1.1639 -0.9456  0.9587
32827SOL     OW 5595   7.343   7.470   3.699 -0.5085  0.3435  0.4194
32827SOL    HW1 5596   7.391   7.401   3.745 -1.2141 -0.6549 -0.2918
32827SOL    HW2 5597   7.290   7.423   3.634 -0.5619  1.6077 -0.4856
32828SOL     OW 5598   2.787   2.680   4.105  0.3166 -0.6588  0.0298
32828SOL    HW1 5599   2.819   2.630   4.180  0.3849 -0.9974 -0.2216
32828SOL    HW2 5600   2.864   2.728   4.073  0.6990 -1.8070 -0.8382
32829SOL     OW 5601   4.948   6.094   6.802 -0.2001 -0.0154  0.7932
32829SOL    HW1 5602   4.891   6.143   6.743  1.4778 -0.3541 -1.2512
32829SOL    HW2 5603   4.972   6.156   6.870 -0.6584  1.0179  0.0297
32830SOL     OW 5604   4.651  12.630   2.135 -0.3258  0.1782 -0.4284
32830SOL    HW1 5605   4.735  12.584   2.138  1.2237  2.8668  1.2162
32830SOL    HW2 5606   4.649  12.669   2.047 -1.3016 -2.2112 -1.5494
32831SOL     OW 5607  12.093   4.254   7.987  0.3160 -0.0730 -0.8195
32831SOL    HW1 5608  12.040   4.188   7.943 -0.3729 -0.8831  1.1198
32831SOL    HW2 5609  12.031   4.322   8.012  0.2789 -0.6207  0.6994
32832SOL     OW 5610   5.688   6.461   6.974  0.4171 -0.4373 -0.4756
32832SOL    HW1 5611   5.740   6.417   7.042 -2.2221 -2.5573  0.3479
32832SOL    HW2 5612   5.676   6.395   6.906  0.0093  0.4955 -1.3385
32833SOL     OW 5613   4.218   6.619   0.523 -0.1001 -0.1901 -0.1204
32833SOL    HW1 5614   4.178   6.706   0.522  2.9679  1.4057 -2.8661
32833SOL    HW2 5615   4.296   6.629   0.577 -0.1896 -1.5281  0.2959
32834SOL     OW 5616   3.954   9.545   1.162 -0.2016  0.7976 -0.6392
32834SOL    HW1 5617   3.863   9.569   1.141 -0.9522 -2.3632 -1.6594
32834SOL    HW2 5618   3.961   9.453   1.134  3.8945  1.4280 -2.3609
32835SOL     OW 5619   3.176  12.400   2.170 -0.1346  0.2111 -0.3576
32835SOL    HW1 5620   3.181  12.348   2.250 -1.2390 -0.8972 -0.9677
32835SOL    HW2 5621   3.192  12.337   2.100  0.3911  1.0802 -1.0290
32836SOL     OW 5622   7.236   1.364   9.162 -0.6443 -0.5420  0.0307
32836SOL    HW1 5623   7.260   1.283   9.207 -0.2325 -0.1660  0.4954
32836SOL    HW2 5624   7.294   1.368   9.086  0.9540  0.4725  1.2665
32837SOL     OW 5625  12.186   7.113  12.463  0.2700  0.8362 -0.3258
32837SOL    HW1 5626  12.231   7.160  12.393  0.2112  2.1113  0.4683
32837SOL    HW2 5627  12.224   7.025  12.461  0.6511  1.0167 -1.6016
32838SOL     OW 5628  11.891   1.121   7.811 -0.4122  0.0416  0.0030
32838SOL    HW1 5629  11.962   1.141   7.873 -1.0250  1.9534  0.1533
32838SOL    HW2 5630  11.864   1.206   7.778 -1.6473 -0.7820 -1.1885
32839SOL     OW 5631   4.874  11.819   6.437  0.2182 -0.1849 -0.3696
32839SOL    HW1 5632   4.838  11.841   6.523 -3.0953  0.5967 -1.8052
32839SOL    HW2 5633   4.911  11.901   6.404  0.0227 -0.0856 -0.3408
32840SOL     OW 5634   7.828   0.626  11.758  0.4690  0.1816  0.5101
32840SOL    HW1 5635   7.922   0.617  11.772  0.6009  1.0029  0.2583
32840SOL    HW2 5636   7.801   0.693  11.821  0.1004  0.1386  0.4001
32841SOL     OW 5637   8.398   5.672   0.601 -0.4092 -0.2700  0.5954
32841SOL    HW1 5638   8.446   5.731   0.543  0.4842 -2.6139 -1.2569
32841SOL    HW2 5639   8.462   5.644   0.666 -0.7644  0.5980  1.3257
32842SOL     OW 5640   5.172   3.310   3.894 -0.2215 -0.0886  0.3664
32842SOL    HW1 5641   5.168   3.352   3.980  2.8883 -0.4809  0.8122
32842SOL    HW2 5642   5.223   3.230   3.909 -2.0552 -1.6999 -1.3542
32843SOL     OW 5643   4.058  10.922  10.028  0.3992 -0.5343 -0.3278
32843SOL    HW1 5644   4.035  10.835   9.996  0.4885 -0.3053 -1.0198
32843SOL    HW2 5645   4.012  10.930  10.112  0.5211 -1.3089 -0.1839
32844SOL     OW 5646  12.774  11.752   5.105 -0.0125 -0.2416  0.2133
32844SOL    HW1 5647  12.835  11.687   5.073 -0.0941  1.1688 -3.2001
32844SOL    HW2 5648  12.828  11.829   5.125 -0.3452  0.0109  0.1542
32845SOL     OW 5649  11.787   0.630   5.510 -0.1175 -0.1235  0.3109
32845SOL    HW1 5650  11.751   0.688   5.578 -0.0682 -0.4015  0.5740
32845SOL    HW2 5651  11.879   0.620   5.533 -0.1028 -0.2259  0.2049
32846SOL     OW 5652  10.888   1.716  10.957  0.3948  1.0540  0.2522
32846SOL    HW1 5653  10.807   1.683  10.918  2.0289 -2.6889 -0.4193
32846SOL    HW2 5654  10.929   1.767  10.886  0.5314 -0.6148 -0.9280
32847SOL     OW 5655   2.744   5.169  10.921  0.1621  0.4566  0.1698
32847SOL    HW1 5656   2.798   5.122  10.984  1.4342  0.7448 -0.6512
32847SOL    HW2 5657   2.655   5.163  10.955  0.5783 -0.8308  1.0959
32848SOL     OW 5658  12.124  10.096   8.884 -0.7994  0.1993 -0.0630
32848SOL    HW1 5659  12.213  10.090   8.919 -0.7783  1.1281  0.0801
32848SOL    HW2 5660  12.070  10.044   8.943 -0.2289 -1.0243 -0.6037
32849SOL     OW 5661  12.496   0.340   6.534  0.1927  0.2606 -0.5361
32849SOL    HW1 5662  12.503   0.413   6.595 -0.6315 -0.5198  0.5298
32849SOL    HW2 5663  12.499   0.262   6.589  2.8696 -0.6449 -1.7669
32850SOL     OW 5664  11.790   0.158   7.202  0.1000 -0.1140  0.0235
32850SOL    HW1 5665  11.773   0.071   7.167  0.8156  0.0174 -0.6905
32850SOL    HW2 5666  11.874   0.149   7.248 -1.5397 -0.6644  3.1188
32851SOL     OW 5667   2.562   6.857   6.202 -0.5178  0.3594 -0.2458
32851SOL    HW1 5668   2.633   6.909   6.239 -1.2803  0.8445  0.5522
32851SOL    HW2 5669   2.607   6.785   6.157  0.4621 -0.0219  1.2534
32852SOL     OW 5670   6.374   4.090  10.766  0.0757  0.2012  0.1658
32852SOL    HW1 5671   6.419   4.094  10.681  0.8634 -0.3328  0.5435
32852SOL    HW2 5672   6.362   3.996  10.781 -1.9975  0.3303 -0.3355
32853SOL     OW 5673  10.631   0.736  11.312 -0.0772 -0.0691  0.2943
32853SOL    HW1 5674  10.719   0.773  11.313 -0.7912  1.7433  0.6478
32853SOL    HW2 5675  10.597   0.751  11.401 -1.1870  0.4531 -0.1965
32854SOL     OW 5676   5.791   9.217  11.295 -0.4247  0.1893  0.4279
32854SOL    HW1 5677   5.748   9.244  11.376  0.7882 -0.1184  1.2032
32854SOL    HW2 5678   5.746   9.265  11.226 -0.6465  1.4422  1.4167
32855SOL     OW 5679   7.790   3.482  11.429 -0.6738 -0.4174 -0.5673
32855SOL    HW1 5680   7.829   3.555  11.380 -0.5914 -1.3000 -1.8595
32855SOL    HW2 5681   7.844   3.475  11.507  0.2330 -0.0222 -1.1368
32856SOL     OW 5682   5.089  12.105  11.954 -0.0846 -0.5602 -0.2563
32856SOL    HW1 5683   5.125  12.190  11.979 -0.4083 -0.4289 -0.2258
32856SOL    HW2 5684   5.075  12.111  11.859  0.9657 -0.9876 -0.4471
32857SOL     OW 5685   7.529  11.073   5.990 -0.4692 -0.3687  0.2850
32857SOL    HW1 5686   7.606  11.017   6.001  0.1604  0.2457 -0.8081
32857SOL    HW2 5687   7.529  11.095   5.897 -3.1518 -2.0346 -0.2159
32858SOL     OW 5688   5.555   0.851   1.087  0.0506 -0.2427  0.2158
32858SOL    HW1 5689   5.570   0.828   1.178  0.1571  1.9410  0.7835
32858SOL    HW2 5690   5.629   0.906   1.063  0.1661 -1.0006 -1.2927
32859SOL     OW 5691   6.743   5.698   6.399  0.5204 -0.0619 -0.0154
32859SOL    HW1 5692   6.807   5.761   6.365 -1.5573  2.1349 -0.0595
32859SOL    HW2 5693   6.768   5.686   6.491  2.0700 -0.7486 -0.4778
32860SOL     OW 5694  11.194   5.417   0.894 -0.1558 -0.5425  0.4363
32860SOL    HW1 5695  11.100   5.425   0.877 -0.0027  0.5889  0.0375
32860SOL    HW2 5696  11.214   5.489   0.953  0.2924 -1.3714  1.3288
32861SOL     OW 5697   0.711   0.454   4.033  0.3585 -0.0211  0.0350
32861SOL    HW1 5698   0.742   0.365   4.015 -0.5502 -0.2772 -0.3592
32861SOL    HW2 5699   0.759   0.481   4.112  2.3812  0.0558 -1.1520
32862SOL     OW 5700   3.948   3.381   7.443 -0.1613  0.3749 -0.0153
32862SOL    HW1 5701   3.916   3.302   7.398  0.7164  0.6452 -1.1645
32862SOL    HW2 5702   4.042   3.367   7.451 -0.2300  0.5721  1.3295
32863SOL     OW 5703   1.660   8.708   1.522  0.2579 -0.0817 -0.1661
32863SOL    HW1 5704   1.657   8.758   1.440  0.1595  0.0044 -0.1118
32863SOL    HW2 5705   1.568   8.688   1.541  0.4011 -1.8241 -1.1085
32864SOL     OW 5706   4.212  10.688   5.146  0.2163 -0.0483  0.1821
32864SOL    HW1 5707   4.279  10.718   5.086 -1.1002 -0.3592 -1.5156
32864SOL    HW2 5708   4.259  10.670   5.228  1.9346  1.0890 -0.5019
32865SOL     OW 5709  11.269   7.325  10.518 -0.7487  0.5507 -0.2215
32865SOL    HW1 5710  11.186   7.351  10.559 -0.8174  0.1524 -0.1105
32865SOL    HW2 5711  11.243   7.270  10.444 -0.5169 -1.6452  1.2647
32866SOL     OW 5712  12.636   0.844   6.480  0.2052  0.2064 -0.1862
32866SOL    HW1 5713  12.553   0.821   6.522  0.2400  0.2253 -0.1069
32866SOL    HW2 5714  12.685   0.892   6.547  0.5592 -0.3992 -0.0027
32867SOL     OW 5715  11.121   0.665   4.985 -0.7217  0.1370 -0.1523
32867SOL    HW1 5716  11.115   0.593   5.048 -0.1036 -0.4404 -0.7345
32867SOL    HW2 5717  11.074   0.633   4.907 -0.4427  0.3603 -0.4149
32868SOL     OW 5718   6.668   0.726  11.084  0.2880 -0.1352 -0.2497
32868SOL    HW1 5719   6.671   0.630  11.081 -0.9228 -0.2132  0.4000
32868SOL    HW2 5720   6.745   0.751  11.134  2.2055 -0.5753 -2.8044
32869SOL     OW 5721   4.431   9.276   1.634 -0.1460  1.2585 -0.4130
32869SOL    HW1 5722   4.473   9.361   1.647  2.0920  0.5438 -2.3651
32869SOL    HW2 5723   4.453   9.226   1.712 -0.3324  2.0097  0.1387
32870SOL     OW 5724   0.994  11.391   7.658 -0.0613 -0.1515 -0.4354
32870SOL    HW1 5725   1.082  11.396   7.696  0.5378 -0.6988 -1.6939
32870SOL    HW2 5726   0.950  11.470   7.689  0.7853  0.0072  0.4178
32871SOL     OW 5727   7.389   3.262  10.742 -0.1452  0.3422  0.2138
32871SOL    HW1 5728   7.296   3.268  10.721  0.1703 -0.6910 -1.6471
32871SOL    HW2 5729   7.408   3.345  10.787 -1.9858  0.4756  0.8617
32872SOL     OW 5730  11.189   5.660  10.504 -0.2852 -0.3557 -0.5017
32872SOL    HW1 5731  11.125   5.677  10.434 -0.3644  0.2363 -0.2926
32872SOL    HW2 5732  11.139   5.671  10.585  0.3532  1.3937 -0.2992
32873SOL     OW 5733   3.222   7.455   0.971  0.4184  0.2077  0.5723
32873SOL    HW1 5734   3.140   7.471   0.923  1.3170  0.3304 -0.9904
32873SOL    HW2 5735   3.219   7.363   0.994  0.3478 -0.0744 -0.5155
32874SOL     OW 5736   6.695   3.248   1.317 -0.2257 -0.5248 -0.4814
32874SOL    HW1 5737   6.711   3.342   1.327 -0.0027 -0.5432 -0.6436
32874SOL    HW2 5738   6.766   3.218   1.260 -0.6790 -0.6685 -0.9785
32875SOL     OW 5739  10.828   8.182   9.470 -0.1017  0.0603 -0.1323
32875SOL    HW1 5740  10.905   8.221   9.511 -1.4247  1.6518  0.9665
32875SOL    HW2 5741  10.808   8.105   9.525  0.0465  0.3026  0.2669
32876SOL     OW 5742   3.951   3.331   7.882  0.2484 -0.4290  0.3671
32876SOL    HW1 5743   3.877   3.343   7.823 -0.1597 -1.2221  0.6999
32876SOL    HW2 5744   3.948   3.239   7.907  2.1579 -0.8353 -0.6746
32877SOL     OW 5745  11.610   6.633   3.152 -0.5565 -0.2717 -0.3830
32877SOL    HW1 5746  11.633   6.724   3.174 -1.2959  0.1772 -1.3931
32877SOL    HW2 5747  11.534   6.614   3.207 -1.1052  0.1269 -0.9854
32878SOL     OW 5748   8.865   2.714   5.352  0.3928 -0.1801 -0.2189
32878SOL    HW1 5749   8.919   2.757   5.419 -1.1312  1.1035  0.2440
32878SOL    HW2 5750   8.813   2.650   5.401 -0.1897  0.2366 -0.2943
32879SOL     OW 5751   4.740  12.770  10.313  0.1839 -0.8226  0.1839
32879SOL    HW1 5752   4.721  12.743  10.403  0.0339  0.9739  0.7498
32879SOL    HW2 5753   4.720  12.864  10.312  3.6228  0.0439 -0.7140
32880SOL     OW 5754   9.774  12.637   5.632 -0.2479  0.2890  0.5790
32880SOL    HW1 5755   9.751  12.577   5.561  0.0901  1.1278 -0.2675
32880SOL    HW2 5756   9.726  12.717   5.611  2.5009  1.7482 -0.6669
32881SOL     OW 5757   8.214   9.336  11.594 -0.2509 -0.1460 -0.4094
32881SOL    HW1 5758   8.149   9.405  11.584 -0.3044 -0.0465  0.4989
32881SOL    HW2 5759   8.163   9.259  11.621 -0.2644 -0.7147 -1.9655
32882SOL     OW 5760   0.059  10.952   1.928 -0.1359  0.1873 -0.2967
32882SOL    HW1 5761  -0.034  10.937   1.914 -0.1464  0.2457 -0.2894
32882SOL    HW2 5762   0.089  10.996   1.848  0.2580 -1.4247 -1.0790
32883SOL     OW 5763  10.628   8.161   6.926  0.6357 -0.1908 -0.5289
32883SOL    HW1 5764  10.588   8.239   6.886  0.2652 -0.8953 -1.5594
32883SOL    HW2 5765  10.553   8.106   6.950  0.8409  0.3003  1.3549
32884SOL     OW 5766   8.391   8.139   7.586  0.0796  0.5118 -0.8511
32884SOL    HW1 5767   8.451   8.193   7.534  0.5030 -1.4089 -2.4713
32884SOL    HW2 5768   8.426   8.145   7.675  0.7159  2.0445 -1.1665
32885SOL     OW 5769   6.951  11.587   1.728 -0.0320 -0.1519 -0.0231
32885SOL    HW1 5770   6.935  11.659   1.789 -1.0187  1.2373 -1.8244
32885SOL    HW2 5771   7.039  11.603   1.694 -0.8940  1.2555 -1.7006
32886SOL     OW 5772   0.786   9.469   4.416 -0.0264  0.6511 -0.1754
32886SOL    HW1 5773   0.830   9.394   4.376 -0.3041  1.2144 -1.5859
32886SOL    HW2 5774   0.693   9.452   4.402 -0.1190  0.9681  0.0549
32887SOL     OW 5775  10.094   2.061   8.443  0.1218  0.0237 -0.1046
32887SOL    HW1 5776  10.054   1.974   8.444  1.5993 -0.7298 -1.0780
32887SOL    HW2 5777  10.076   2.095   8.356  2.0096 -0.6086 -0.8121
32888SOL     OW 5778   6.344   8.962   6.096 -0.8882 -0.4286  0.2111
32888SOL    HW1 5779   6.328   8.981   6.003 -0.2851 -1.3847 -0.1000
32888SOL    HW2 5780   6.264   8.991   6.140 -0.2252  2.3967 -0.2639
32889SOL     OW 5781   8.622  12.040   8.746 -0.7637  0.0698 -0.4402
32889SOL    HW1 5782   8.613  12.118   8.801 -0.3613 -0.1893  0.0059
32889SOL    HW2 5783   8.712  12.043   8.714 -1.3441  0.8692 -2.1088
32890SOL     OW 5784  12.270   8.396   7.479  0.6859 -0.2914 -0.3156
32890SOL    HW1 5785  12.253   8.419   7.571 -3.2291  1.0658 -1.1685
32890SOL    HW2 5786  12.210   8.323   7.462  1.7880 -0.9162 -1.6989
32891SOL     OW 5787  12.727  12.443   6.248  0.5253  0.1179 -0.3798
32891SOL    HW1 5788  12.783  12.457   6.325  0.4778 -2.1681  0.1514
32891SOL    HW2 5789  12.774  12.377   6.197  0.3267  1.2678 -2.1272
32892SOL     OW 5790   8.247   0.776  11.257 -0.1495  0.2709  0.2634
32892SOL    HW1 5791   8.255   0.821  11.172 -0.2449 -0.4692 -0.1459
32892SOL    HW2 5792   8.177   0.712  11.243  0.0980 -0.1154  0.7920
32893SOL     OW 5793  11.748  11.987   7.304  0.3290 -0.1294  0.2024
32893SOL    HW1 5794  11.754  12.055   7.371  2.7970 -0.1877  0.1195
32893SOL    HW2 5795  11.773  12.031   7.223  0.3805 -0.7653 -0.1358
32894SOL     OW 5796  12.666   0.933  12.146 -0.4358  0.4060  0.1612
32894SOL    HW1 5797  12.572   0.951  12.147 -0.3305  0.9537  0.1208
32894SOL    HW2 5798  12.699   0.976  12.068 -0.3222 -0.7045 -0.4269
32895SOL     OW 5799  10.606   7.052   3.892 -0.0070 -0.1190 -0.6406
32895SOL    HW1 5800  10.608   7.110   3.969  0.5143 -1.4171  0.3688
32895SOL    HW2 5801  10.592   7.110   3.818 -0.9629  1.1386  0.4833
32896SOL     OW 5802  12.952  11.308   8.722  0.1731  0.0207  0.3334
32896SOL    HW1 5803  12.919  11.250   8.653  1.6013 -0.1332 -0.2486
32896SOL    HW2 5804  12.970  11.391   8.677  2.0518 -0.3778  0.2759
32897SOL     OW 5805  11.484   1.805   8.504 -0.3748  0.2403 -0.3222
32897SOL    HW1 5806  11.435   1.727   8.480 -0.6938 -0.1329  1.3944
32897SOL    HW2 5807  11.417   1.870   8.525 -0.2346 -0.3046  2.1412
32898SOL     OW 5808   6.512   1.396   9.042  0.2776  0.8842  0.1954
32898SOL    HW1 5809   6.480   1.325   9.099  1.4654 -0.4446 -0.7118
32898SOL    HW2 5810   6.591   1.428   9.086 -0.0034  1.3373  0.3732
32899SOL     OW 5811   6.110   4.083   0.593  0.2217 -0.4378 -0.2789
32899SOL    HW1 5812   6.091   4.077   0.499 -1.5385  0.1367  0.0002
32899SOL    HW2 5813   6.038   4.136   0.628 -0.0004 -1.9099  1.6296
32900SOL     OW 5814   5.435  12.960   7.764  0.3668  0.0023 -0.3774
32900SOL    HW1 5815   5.511  13.014   7.740  0.0507  0.7290  0.2118
32900SOL    HW2 5816   5.446  12.880   7.714  1.4688  0.1440 -0.3913
32901SOL     OW 5817   4.517   8.525   4.577  0.0632  0.3018  0.0497
32901SOL    HW1 5818   4.484   8.615   4.580 -0.2326  0.2501 -1.0317
32901SOL    HW2 5819   4.606   8.532   4.544  0.4131  0.2758  0.9755
32902SOL     OW 5820   6.007   5.444   1.267 -0.3754  0.3220  0.0925
32902SOL    HW1 5821   5.920   5.404   1.265  0.4226 -1.7224  1.6909
32902SOL    HW2 5822   6.040   5.424   1.355  1.5719  1.3454 -0.3513
32903SOL     OW 5823   8.937   6.229   9.718 -0.1201 -0.3617 -0.4160
32903SOL    HW1 5824   8.864   6.196   9.770  1.0985 -1.1681  0.8671
32903SOL    HW2 5825   8.962   6.154   9.663 -1.1088  0.3442 -1.8915
32904SOL     OW 5826   2.338   4.198   9.640 -0.1480  0.2643 -0.7430
32904SOL    HW1 5827   2.424   4.162   9.623  1.0426  1.4169  2.2693
32904SOL    HW2 5828   2.288   4.126   9.678 -1.3323 -0.9915 -4.2705
32905SOL     OW 5829   5.569   4.525   3.534 -0.1339 -0.0798  0.7855
32905SOL    HW1 5830   5.572   4.557   3.624  1.2788 -1.2294  1.1811
32905SOL    HW2 5831   5.632   4.580   3.487 -2.2306  1.8030 -0.0090
32906SOL     OW 5832   1.985  10.729   7.682  0.5313 -0.1252 -0.4464
32906SOL    HW1 5833   1.921  10.702   7.748  0.4914  2.0787  0.5306
32906SOL    HW2 5834   2.057  10.667   7.691 -0.3512 -1.0765  0.2616
32907SOL     OW 5835   9.447   3.407   8.377 -0.8379 -0.1553 -0.5929
32907SOL    HW1 5836   9.407   3.430   8.461 -0.6626 -0.9674 -0.2733
32907SOL    HW2 5837   9.510   3.478   8.360  0.1602 -0.6929  0.6833
32908SOL     OW 5838  11.410   1.539   5.086 -0.1252 -0.1849  0.2499
32908SOL    HW1 5839  11.336   1.505   5.036 -0.0730 -1.0202  0.7106
32908SOL    HW2 5840  11.433   1.621   5.043 -1.0717 -0.1091 -0.1332
32909SOL     OW 5841  12.335   1.856   2.142  0.7328 -0.1646 -0.2957
32909SOL    HW1 5842  12.374   1.817   2.064 -0.7721 -0.4562 -0.9449
32909SOL    HW2 5843  12.364   1.801   2.214  1.5595 -0.3171 -0.7296
32910SOL     OW 5844   8.936  10.774   7.793 -0.3841 -0.4808  0.4007
32910SOL    HW1 5845   8.893  10.802   7.712  2.5175  0.4703 -0.9219
32910SOL    HW2 5846   8.985  10.695   7.769  2.2477  0.9950  0.5354
32911SOL     OW 5847   9.813   3.340  12.252  0.2734  0.5426  0.1184
32911SOL    HW1 5848   9.810   3.412  12.189 -1.1532  1.4151  1.1121
32911SOL    HW2 5849   9.751   3.366  12.321  1.0016 -0.8551  1.3579
32912SOL     OW 5850   2.687   2.927  12.407  0.3149  1.0955  0.9616
32912SOL    HW1 5851   2.755   2.877  12.451 -0.4235  0.5505  1.5131
32912SOL    HW2 5852   2.686   3.011  12.453 -1.2196  0.1468  2.8510
32913SOL     OW 5853   0.164  12.717   4.081  0.5862 -0.2099 -0.1316
32913SOL    HW1 5854   0.180  12.767   4.161 -0.0115  1.0461 -0.7620
32913SOL    HW2 5855   0.068  12.713   4.075  0.6299 -0.6128 -0.5937
32914SOL     OW 5856   4.321   6.559  12.619 -0.1509 -0.1579 -0.2872
32914SOL    HW1 5857   4.321   6.573  12.524  0.4447  1.2159 -0.1020
32914SOL    HW2 5858   4.413   6.542  12.640 -0.1036  0.6350  0.1821
32915SOL     OW 5859   9.667   1.945  11.165 -0.5004  0.3900 -0.5738
32915SOL    HW1 5860   9.698   2.026  11.206 -0.6682 -0.0710  0.5102
32915SOL    HW2 5861   9.601   1.974  11.102 -0.6735  1.0860 -0.0812
32916SOL     OW 5862   6.961   6.390   5.713 -0.0137  0.8574  1.0419
32916SOL    HW1 5863   6.970   6.309   5.764 -0.2025 -0.3437 -0.7567
32916SOL    HW2 5864   6.992   6.367   5.626 -0.6018  2.5785  0.3425
32917SOL     OW 5865   9.781  11.595   7.642 -0.1109 -0.2280  0.0027
32917SOL    HW1 5866   9.877  11.599   7.645 -0.1504  0.7864  0.1837
32917SOL    HW2 5867   9.753  11.649   7.716 -0.8098 -2.3642  1.3837
32918SOL     OW 5868  11.413  12.088   4.123  0.1630  0.4029  0.3130
32918SOL    HW1 5869  11.481  12.121   4.181  1.1852  1.7667 -1.5895
32918SOL    HW2 5870  11.339  12.069   4.182  2.2021 -1.4094  2.4616
32919SOL     OW 5871   1.664   4.348   2.011  0.4875 -0.2605 -0.0488
32919SOL    HW1 5872   1.672   4.399   1.931  0.9641 -0.3682 -0.0741
32919SOL    HW2 5873   1.573   4.320   2.013 -0.0789  1.4705  0.4932
32920SOL     OW 5874   1.470   7.182   8.272  0.5767  0.4375  0.3196
32920SOL    HW1 5875   1.481   7.275   8.290  1.1160  0.3718  0.3630
32920SOL    HW2 5876   1.468   7.175   8.177 -2.3110  0.7911  0.2784
32921SOL     OW 5877   1.586   4.509  12.872  0.3128  0.7313  0.2265
32921SOL    HW1 5878   1.598   4.443  12.940  2.6314  0.1218 -0.6655
32921SOL    HW2 5879   1.583   4.459  12.790 -2.0132  1.4820 -0.2266
32922SOL     OW 5880   1.007  10.540  11.765 -0.0854 -0.4519 -0.4221
32922SOL    HW1 5881   0.957  10.464  11.794 -1.7886  1.0991  0.9814
32922SOL    HW2 5882   0.963  10.570  11.686 -0.8824  0.3948  0.3197
32923SOL     OW 5883  11.986   8.267   5.718 -0.1025  0.2313  0.0039
32923SOL    HW1 5884  11.923   8.329   5.681  0.0956  1.2913  1.3685
32923SOL    HW2 5885  11.934   8.192   5.745 -1.0241  1.6351  2.3223
32924SOL     OW 5886   9.328   1.574   5.897  0.3919  0.2174 -0.2997
32924SOL    HW1 5887   9.417   1.601   5.877  0.2258  0.7141 -0.3792
32924SOL    HW2 5888   9.272   1.638   5.853 -0.0124 -0.2661 -0.5062
32925SOL     OW 5889   1.580   2.541   3.174  1.3381  0.4483 -0.1384
32925SOL    HW1 5890   1.533   2.472   3.221  3.5662 -2.4084 -1.7322
32925SOL    HW2 5891   1.532   2.551   3.092  1.2256  0.5419 -0.0622
32926SOL     OW 5892  11.697   5.892  12.546  0.8522 -0.3001 -0.0687
32926SOL    HW1 5893  11.720   5.802  12.524 -1.0484 -0.9859  0.5434
32926SOL    HW2 5894  11.726   5.904  12.637 -0.6830 -1.0383  0.5695
32927SOL     OW 5895   2.316   3.500   5.005  0.4720 -0.4725 -0.6775
32927SOL    HW1 5896   2.285   3.505   4.915  0.8026  0.7999 -0.7479
32927SOL    HW2 5897   2.408   3.476   4.998  0.3555 -0.9356 -0.6447
32928SOL     OW 5898   6.862   6.123   2.257 -0.1605 -0.0794  0.3097
32928SOL    HW1 5899   6.870   6.029   2.239 -2.1197 -0.2295  0.0121
32928SOL    HW2 5900   6.866   6.164   2.171 -1.4323 -0.1038  0.2164
32929SOL     OW 5901   5.742   1.157   8.996 -0.4875 -0.0498  0.0800
32929SOL    HW1 5902   5.752   1.189   9.085  1.4115  0.0666 -0.1399
32929SOL    HW2 5903   5.765   1.231   8.940  1.5059 -1.0042 -0.4489
32930SOL     OW 5904  11.708   0.981   8.957 -0.3854  0.2531 -0.9519
32930SOL    HW1 5905  11.798   1.004   8.980 -0.4102 -0.1052 -0.4880
32930SOL    HW2 5906  11.660   0.989   9.039 -0.8073  0.5826 -1.2284
32931SOL     OW 5907  11.345   5.442   7.848  0.4942  0.2273 -0.0277
32931SOL    HW1 5908  11.382   5.383   7.913  0.3006  0.5762  0.4081
32931SOL    HW2 5909  11.274   5.488   7.894  1.5481  1.8299  0.0820
32932SOL     OW 5910   7.180   5.178   8.676  0.3164 -0.4469 -0.0298
32932SOL    HW1 5911   7.193   5.249   8.613 -0.1054 -1.3399 -1.1567
32932SOL    HW2 5912   7.265   5.166   8.717  1.0549 -0.9732 -1.6585
32933SOL     OW 5913   5.889   6.221   3.709  0.0458 -0.0634  0.0224
32933SOL    HW1 5914   5.952   6.172   3.762  0.5824  1.4640  0.8717
32933SOL    HW2 5915   5.861   6.293   3.767 -2.5456 -0.7256 -0.2942
32934SOL     OW 5916   5.589   7.224   1.621 -0.0533 -0.0375  0.0194
32934SOL    HW1 5917   5.647   7.287   1.663  1.4431 -0.6077 -1.1225
32934SOL    HW2 5918   5.545   7.274   1.553  2.5927 -0.5367 -2.2184
32935SOL     OW 5919   1.704   1.565   6.304  0.0996  0.4308  0.3057
32935SOL    HW1 5920   1.687   1.497   6.369  0.4666  1.7666  1.8480
32935SOL    HW2 5921   1.776   1.530   6.251 -0.9701 -1.1627 -0.1737
32936SOL     OW 5922   7.486   0.821  12.019 -0.0925 -0.0094 -0.0020
32936SOL    HW1 5923   7.478   0.855  12.109 -2.3710 -1.3412  0.3748
32936SOL    HW2 5924   7.484   0.899  11.964  1.8182  0.8725  1.0760
32937SOL     OW 5925   9.754   3.330   8.033 -0.3300  0.5063 -0.4697
32937SOL    HW1 5926   9.681   3.310   8.092 -0.6764 -2.1048 -1.6510
32937SOL    HW2 5927   9.750   3.425   8.023 -3.1802  0.5499  0.0614
32938SOL     OW 5928  10.825   6.160   9.956 -0.0176  0.2914 -0.3595
32938SOL    HW1 5929  10.888   6.134  10.024  0.0939  0.6882 -0.3059
32938SOL    HW2 5930  10.837   6.254   9.948 -1.2643  0.5205  0.3009
32939SOL     OW 5931   6.967   2.071   5.531  0.5796 -0.2835 -0.3244
32939SOL    HW1 5932   6.924   2.099   5.611  0.2189  2.0127 -1.2537
32939SOL    HW2 5933   6.905   2.010   5.490 -0.1710  0.1648  0.1279
32940SOL     OW 5934   1.446   8.441  10.321 -0.1201  0.2675  0.1133
32940SOL    HW1 5935   1.399   8.374  10.371  0.7159 -0.5559 -0.1806
32940SOL    HW2 5936   1.483   8.498  10.388  3.1716 -2.2519  0.7253
32941SOL     OW 5937  12.611  12.017   8.162 -0.1687 -0.0437 -0.2154
32941SOL    HW1 5938  12.582  12.097   8.207 -0.2933 -1.7194  2.9408
32941SOL    HW2 5939  12.532  11.985   8.119 -1.4101 -0.8448  2.4357
32942SOL     OW 5940   3.222   3.811   2.025  0.1286 -0.2161 -0.5328
32942SOL    HW1 5941   3.187   3.767   1.948  0.8838 -1.4871 -0.1798
32942SOL    HW2 5942   3.149   3.865   2.056  0.6590  2.6382 -3.7278
32943SOL     OW 5943  12.849   3.721   1.612  0.1502 -0.0624 -0.3845
32943SOL    HW1 5944  12.811   3.671   1.684 -1.6939 -1.1927 -2.0661
32943SOL    HW2 5945  12.857   3.658   1.540  0.2707  1.4382 -1.7439
32944SOL     OW 5946   7.771   5.158  12.941 -0.0606 -0.0477 -0.4339
32944SOL    HW1 5947   7.785   5.067  12.917 -0.3972  0.0231 -0.9378
32944SOL    HW2 5948   7.831   5.207  12.885  0.6198  0.0014  0.3301
32945SOL     OW 5949  10.126  12.242  10.192 -0.1603 -0.1000 -0.0743
32945SOL    HW1 5950  10.200  12.298  10.173 -2.0395  2.4884 -0.2706
32945SOL    HW2 5951  10.076  12.239  10.111 -0.8890 -0.8428  0.3776
32946SOL     OW 5952   3.536   0.472   5.203  0.3515 -0.1312  0.0703
32946SOL    HW1 5953   3.609   0.424   5.162  1.5867  0.5738  1.3613
32946SOL    HW2 5954   3.544   0.561   5.169  1.0015  0.3035  1.3088
32947SOL     OW 5955   3.236   8.602   3.307  0.0832 -0.5100 -0.3119
32947SOL    HW1 5956   3.257   8.544   3.234 -0.6773 -0.4432 -0.5974
32947SOL    HW2 5957   3.233   8.545   3.384  1.6124 -0.4649 -0.1945
32948SOL     OW 5958   3.967   7.636   7.138  0.6000  0.5530 -0.4863
32948SOL    HW1 5959   3.929   7.627   7.051 -2.4028 -2.0714  0.8789
32948SOL    HW2 5960   3.994   7.548   7.162 -1.1464  0.5896  2.1218
32949SOL     OW 5961   3.943  11.205  11.866  0.0950 -0.0242  0.5582
32949SOL    HW1 5962   3.894  11.236  11.942 -1.7569 -2.8543  0.6527
32949SOL    HW2 5963   3.985  11.124  11.895  1.2549  0.0357 -0.8061
32950SOL     OW 5964   9.942  12.489   1.436  0.5485  0.7286  0.3280
32950SOL    HW1 5965   9.894  12.560   1.395  1.1337  1.5549  1.0293
32950SOL    HW2 5966   9.915  12.491   1.528  0.3957 -0.1154  0.3137
32951SOL     OW 5967   6.717   7.847   5.992  0.1136  0.4814 -0.5936
32951SOL    HW1 5968   6.718   7.811   5.903 -0.3429 -1.8600  0.2768
32951SOL    HW2 5969   6.624   7.858   6.012  0.2403  1.8836 -0.7067
32952SOL     OW 5970   5.896   0.406   8.102 -0.1017  0.4272 -0.6433
32952SOL    HW1 5971   5.877   0.345   8.173  0.1384  0.6823 -0.3554
32952SOL    HW2 5972   5.878   0.492   8.139  0.7974  0.6195 -0.6286
32953SOL     OW 5973   4.432   6.308   8.787 -0.1514  0.0049 -0.9825
32953SOL    HW1 5974   4.337   6.315   8.794 -0.1336 -0.5084  0.0000
32953SOL    HW2 5975   4.447   6.269   8.701 -0.8228  0.1740 -1.1833
32954SOL     OW 5976   7.925  10.049   6.959 -0.3341  0.1415  0.1635
32954SOL    HW1 5977   7.877   9.981   7.006 -2.0867  1.8633  0.9496
32954SOL    HW2 5978   7.991  10.080   7.022 -1.3743  1.0639  0.8342
32955SOL     OW 5979   3.747  11.755  11.866 -0.7262 -0.3154 -0.4584
32955SOL    HW1 5980   3.735  11.827  11.805 -3.7625  0.0196  0.3897
32955SOL    HW2 5981   3.716  11.789  11.950  0.1739 -1.8216  0.5406
32956SOL     OW 5982   0.943  11.744  10.139 -0.2534  0.0508 -0.1008
32956SOL    HW1 5983   0.895  11.673  10.097 -0.3486 -0.6889  1.1988
32956SOL    HW2 5984   1.033  11.735  10.106 -0.8445  1.1284 -2.1393
32957SOL     OW 5985   4.672   6.377   4.205 -0.6249  0.1896 -0.4612
32957SOL    HW1 5986   4.707   6.289   4.215 -1.0440 -0.0755 -1.2533
32957SOL    HW2 5987   4.750   6.433   4.199 -0.3576 -0.1243 -0.0497
32958SOL     OW 5988   7.323   7.762   0.274 -0.0637  0.0630  0.5873
32958SOL    HW1 5989   7.365   7.724   0.351  1.0255  2.7693  1.4610
32958SOL    HW2 5990   7.394   7.772   0.210 -0.9792 -2.2808 -0.9098
32959SOL     OW 5991   2.338   9.966   0.442  0.1679  0.5289 -0.2982
32959SOL    HW1 5992   2.322  10.057   0.468 -0.2825  0.5544 -0.6610
32959SOL    HW2 5993   2.257   9.920   0.465  0.1335  0.3587 -0.7554
32960SOL     OW 5994  12.169   9.307   3.752  0.0296 -0.0189 -1.0246
32960SOL    HW1 5995  12.221   9.279   3.827  0.0655 -0.6449 -1.2750
32960SOL    HW2 5996  12.078   9.301   3.782 -0.0113 -1.3066 -1.3580
32961SOL     OW 5997   2.328   2.538   8.715 -0.1832 -0.0124  0.0813
32961SOL    HW1 5998   2.327   2.629   8.688 -0.4791 -0.3562 -1.1300
32961SOL    HW2 5999   2.240   2.521   8.748 -0.3862 -0.0631 -0.4659
32962SOL     OW 6000  12.374  12.061  10.523 -0.1626  0.0314  0.3218
32962SOL    HW1 6001  12.283  12.038  10.504  0.3537 -0.8416 -1.2424
32962SOL    HW2 6002  12.414  12.074  10.437  1.7811 -1.9385  0.8428
32963SOL     OW 6003   1.521  12.960  10.429 -0.5868  0.6738 -0.0798
32963SOL    HW1 6004   1.513  12.925  10.340  0.4521 -2.4427  0.9148
32963SOL    HW2 6005   1.446  12.922  10.476 -0.5986  1.5229  0.6086
32964SOL     OW 6006  11.225   3.617   8.836  0.1839  0.5665 -0.4600
32964SOL    HW1 6007  11.148   3.596   8.783  1.0876  0.9738 -1.9891
32964SOL    HW2 6008  11.207   3.576   8.921 -0.6219 -1.5245 -1.5586
32965SOL     OW 6009   5.283   5.184   0.600 -0.1790 -0.0410 -0.3693
32965SOL    HW1 6010   5.213   5.234   0.557  0.4869 -0.4049 -1.9395
32965SOL    HW2 6011   5.241   5.101   0.624 -0.2561 -0.3503 -1.5051
32966SOL     OW 6012   7.286  10.399   2.546  0.5674  0.1391 -0.5923
32966SOL    HW1 6013   7.341  10.467   2.509  0.9794 -0.6497 -1.4562
32966SOL    HW2 6014   7.347  10.337   2.585  0.2424 -0.1864 -0.5948
32967SOL     OW 6015   0.853  12.041   7.938 -0.5529 -0.7635 -0.0147
32967SOL    HW1 6016   0.824  12.096   7.865  0.4996 -1.4391 -0.9725
32967SOL    HW2 6017   0.771  12.011   7.979 -1.1599 -0.1209 -0.7214
32968SOL     OW 6018   7.399   9.203  11.840  0.0681  0.2623 -0.9729
32968SOL    HW1 6019   7.406   9.292  11.874  1.8651 -0.5783  1.0392
32968SOL    HW2 6020   7.315   9.172  11.873  0.2545  0.6164 -0.1288
32969SOL     OW 6021   1.152   2.079   9.661  0.0114  0.5638 -0.0299
32969SOL    HW1 6022   1.220   2.023   9.699 -0.7900 -1.0469 -0.8758
32969SOL    HW2 6023   1.074   2.024   9.660 -0.8047  1.7033 -0.9397
32970SOL     OW 6024   8.992  10.056   1.643  0.1207 -0.1739  0.2093
32970SOL    HW1 6025   8.966   9.964   1.634  0.0949 -0.0703 -0.8785
32970SOL    HW2 6026   8.922  10.105   1.600  0.7483  0.2695 -0.3217
32971SOL     OW 6027   4.690  12.772   5.213 -0.0571 -0.1006  0.1325
32971SOL    HW1 6028   4.696  12.676   5.212 -0.4217 -0.2047  2.1701
32971SOL    HW2 6029   4.724  12.796   5.300  1.3882  1.7432 -0.8859
32972SOL     OW 6030   7.315   8.240  12.214  0.8772  0.2880  0.5094
32972SOL    HW1 6031   7.357   8.214  12.132 -1.9383  1.0439 -1.3161
32972SOL    HW2 6032   7.367   8.313  12.246  0.8056  1.4429 -1.8337
32973SOL     OW 6033   1.934   9.071   8.087 -0.1616  0.7154 -0.2199
32973SOL    HW1 6034   1.858   9.115   8.123 -1.3961 -0.2076 -1.5763
32973SOL    HW2 6035   2.009   9.114   8.128 -1.3753 -0.8772  4.1900
32974SOL     OW 6036   5.026   8.943   6.574  0.3456  0.2722  0.1213
32974SOL    HW1 6037   5.092   8.921   6.508  1.0429  0.6832  0.6669
32974SOL    HW2 6038   5.073   8.994   6.639 -0.2653 -0.3458  1.0832
32975SOL     OW 6039   1.841  10.794   6.476 -0.7564  0.3055 -0.2094
32975SOL    HW1 6040   1.800  10.735   6.539  1.1778 -0.1795  0.6725
32975SOL    HW2 6041   1.891  10.856   6.529  1.8849 -0.8182 -1.1881
32976SOL     OW 6042   2.957   7.358   7.033  0.5206 -0.1107  0.2140
32976SOL    HW1 6043   3.036   7.377   6.984 -0.1539  0.2396 -0.7781
32976SOL    HW2 6044   2.921   7.279   6.992  0.2597 -0.1666  0.5430
32977SOL     OW 6045   9.361   3.190   8.573  0.2139  0.1854  0.6864
32977SOL    HW1 6046   9.276   3.153   8.595  1.1459 -1.6844  1.3939
32977SOL    HW2 6047   9.380   3.154   8.486  1.2536 -1.3476  1.4970
32978SOL     OW 6048  10.213  10.843   9.000 -0.3775 -0.1532 -0.1290
32978SOL    HW1 6049  10.230  10.903   9.073  1.4512 -0.7706 -0.0094
32978SOL    HW2 6050  10.179  10.899   8.930  1.1258  1.0271  0.0354
32979SOL     OW 6051   4.292  11.246   7.316  0.2765  0.1977 -0.3611
32979SOL    HW1 6052   4.223  11.250   7.251  0.0253 -1.0342 -0.1941
32979SOL    HW2 6053   4.355  11.184   7.281 -0.2749 -1.1524  0.9151
32980SOL     OW 6054   5.089  12.900  10.434  0.0835 -0.5714  0.2793
32980SOL    HW1 6055   5.154  12.841  10.472 -0.4942 -1.4725 -0.0966
32980SOL    HW2 6056   5.069  12.963  10.503  0.4274 -1.0472  0.8143
32981SOL     OW 6057   3.125   9.927   3.909 -0.4518  0.3896  0.4134
32981SOL    HW1 6058   3.195   9.865   3.892 -0.9228  0.1357 -0.6583
32981SOL    HW2 6059   3.131   9.945   4.003  1.6150  1.0873  0.1785
32982SOL     OW 6060   0.087   8.068   4.550  0.2216  0.1881  0.2027
32982SOL    HW1 6061   0.072   7.979   4.516  1.9407  0.6679 -2.1078
32982SOL    HW2 6062   0.011   8.118   4.519 -0.1664 -0.2200  0.4801
32983SOL     OW 6063   0.392   2.011  10.201 -0.3847 -0.3492  0.1932
32983SOL    HW1 6064   0.461   1.946  10.208 -0.5472 -0.5498 -0.0775
32983SOL    HW2 6065   0.382   2.044  10.290  1.0094  0.6675  0.0200
32984SOL     OW 6066   5.129   3.751  10.052 -0.0996 -0.4386 -0.1995
32984SOL    HW1 6067   5.102   3.808   9.980 -1.2265 -1.3304 -0.5167
32984SOL    HW2 6068   5.102   3.797  10.131  0.7435  0.3455 -0.3506
32985SOL     OW 6069   0.651   4.152   1.950  0.3607  0.1777 -0.3665
32985SOL    HW1 6070   0.589   4.084   1.922  1.6317 -0.6404 -1.3773
32985SOL    HW2 6071   0.737   4.114   1.929  1.2817  0.7706  2.0474
32986SOL     OW 6072   5.905   3.097   1.073 -0.2371  0.8955  0.1020
32986SOL    HW1 6073   5.823   3.071   1.029 -1.0031  0.2809  1.7977
32986SOL    HW2 6074   5.904   3.192   1.069 -0.5083  0.8676 -0.8099
32987SOL     OW 6075   9.486  12.601   7.213  0.1759 -0.2747 -0.4879
32987SOL    HW1 6076   9.475  12.566   7.301  1.2347 -1.0047 -0.6269
32987SOL    HW2 6077   9.466  12.528   7.155  1.0373 -0.2646 -0.8128
32988SOL     OW 6078   1.856   6.571   9.093  0.0994 -0.2852 -0.2184
32988SOL    HW1 6079   1.803   6.637   9.048  0.7971 -0.2309 -0.9683
32988SOL    HW2 6080   1.861   6.603   9.183 -0.2210  0.2819 -0.3935
32989SOL     OW 6081   1.088   7.950   9.021  0.7452  1.0067 -0.3220
32989SOL    HW1 6082   1.107   8.030   9.068  2.8324  1.2318 -1.4123
32989SOL    HW2 6083   1.155   7.946   8.952 -0.9763 -0.2525 -2.0569
32990SOL     OW 6084   9.121   5.189   2.286  0.1389 -1.0210 -0.0270
32990SOL    HW1 6085   9.108   5.094   2.289 -2.8555 -0.7081  0.0059
32990SOL    HW2 6086   9.170   5.209   2.366 -1.2577 -2.3222  1.2257
32991SOL     OW 6087   6.882   0.851   0.791  0.3285 -0.2888  0.5463
32991SOL    HW1 6088   6.816   0.920   0.786 -0.4504 -1.1140 -2.3731
32991SOL    HW2 6089   6.965   0.895   0.775 -0.1671  0.0744 -1.3065
32992SOL     OW 6090   1.030   1.352   2.952  0.6141 -0.3534 -0.3503
32992SOL    HW1 6091   0.947   1.397   2.939  0.3580 -0.4147  0.9301
32992SOL    HW2 6092   1.090   1.394   2.890 -0.4359 -0.5621 -1.5728
32993SOL     OW 6093  12.047   0.774   6.433  0.1272 -0.6264 -0.3238
32993SOL    HW1 6094  12.067   0.826   6.510  2.2627  0.3633 -1.4418
32993SOL    HW2 6095  12.042   0.684   6.465  1.3712 -0.2769  0.9319
32994SOL     OW 6096   3.070   2.662   4.013  0.5561 -0.1792 -0.1844
32994SOL    HW1 6097   3.105   2.690   3.928 -0.7683  0.0461 -0.6792
32994SOL    HW2 6098   3.048   2.570   4.001 -1.4290  0.3159 -0.7446
32995SOL     OW 6099   9.685  11.709   2.303 -0.0871  0.5665  0.4221
32995SOL    HW1 6100   9.749  11.650   2.344 -0.3642 -0.0622 -0.0287
32995SOL    HW2 6101   9.684  11.682   2.211  0.2051  1.6688  0.0793
32996SOL     OW 6102   7.592   5.761   0.788  0.0692  0.6440  0.0603
32996SOL    HW1 6103   7.670   5.708   0.803  0.6576  0.5876 -2.6160
32996SOL    HW2 6104   7.626   5.851   0.780 -0.3925  0.8767  0.6890
32997SOL     OW 6105  12.573   2.527   4.648 -0.3277 -0.1468 -0.2373
32997SOL    HW1 6106  12.491   2.540   4.599  0.5563  0.8366 -1.5231
32997SOL    HW2 6107  12.568   2.437   4.678 -3.0841  0.5986  2.0301
32998SOL     OW 6108   2.011   0.080   6.485  0.0004  0.1680 -0.3088
32998SOL    HW1 6109   1.938   0.050   6.430  0.7994 -0.4302 -1.0767
32998SOL    HW2 6110   1.998   0.034   6.568  0.6123 -1.5671 -1.1132
32999SOL     OW 6111   6.173   8.038  11.358 -0.3804 -0.4263 -0.2529
32999SOL    HW1 6112   6.227   7.977  11.407 -0.2588 -0.3771 -0.3253
32999SOL    HW2 6113   6.175   8.119  11.409 -0.9977 -0.6457  0.1354
33000SOL     OW 6114   8.942   5.463   0.992  0.1793  0.2777 -0.5558
33000SOL    HW1 6115   8.937   5.477   1.087 -0.8608 -0.6637 -0.4567
33000SOL    HW2 6116   8.956   5.551   0.956 -1.7162  0.9968  0.3260
33001SOL     OW 6117  11.794   5.130   4.982 -0.5838 -0.0447 -0.0796
33001SOL    HW1 6118  11.717   5.166   4.939 -1.3040 -0.7765  0.5753
33001SOL    HW2 6119  11.865   5.189   4.956 -0.6318 -1.2513 -3.5828
33002SOL     OW 6120   6.558   4.953  11.789  0.2489  0.8163  0.1766
33002SOL    HW1 6121   6.626   5.004  11.833  0.0604  1.8205 -0.6612
33002SOL    HW2 6122   6.563   4.981  11.697  0.9419 -1.5652 -0.5678
33003SOL     OW 6123   4.478   2.532   3.632 -0.3434 -0.4314 -0.3370
33003SOL    HW1 6124   4.482   2.442   3.665 -1.9720 -0.4876 -0.1984
33003SOL    HW2 6125   4.503   2.525   3.540  1.7318 -0.6624  0.2082
33004SOL     OW 6126   1.567  11.219   1.989 -0.6857 -0.5854  0.1530
33004SOL    HW1 6127   1.472  11.233   1.981 -0.6911 -0.6435  0.1151
33004SOL    HW2 6128   1.595  11.196   1.901 -0.4308  0.6539 -0.1069
33005SOL     OW 6129  12.262   8.823   5.886  0.1799  0.5238 -0.1029
33005SOL    HW1 6130  12.311   8.905   5.881 -1.6879  1.6386 -1.9800
33005SOL    HW2 6131  12.184   8.845   5.936 -0.4558  0.0020 -0.8387
33006SOL     OW 6132  10.462   6.961   8.051  0.3507  0.2758 -1.0063
33006SOL    HW1 6133  10.553   6.989   8.040  1.1580 -1.9063 -0.4435
33006SOL    HW2 6134  10.411   7.027   8.005  2.0742  2.4696  0.0191
33007SOL     OW 6135   2.725   1.359   6.657  0.6444 -0.2486  0.5734
33007SOL    HW1 6136   2.771   1.439   6.684  1.7227 -0.6717  0.0617
33007SOL    HW2 6137   2.638   1.367   6.696  0.2789  1.7763 -0.4938
33008SOL     OW 6138  11.983   2.361  10.444  0.7378 -0.1113  0.0635
33008SOL    HW1 6139  12.003   2.455  10.443  0.1842  0.0724 -2.9736
33008SOL    HW2 6140  11.906   2.354  10.501  1.0729  1.1908  0.7307
33009SOL     OW 6141   0.336   6.988  12.533  0.4840  0.1598  0.0743
33009SOL    HW1 6142   0.351   7.041  12.611 -1.2656  0.9194 -0.0478
33009SOL    HW2 6143   0.356   7.047  12.460 -2.2366  1.0167 -0.0772
33010SOL     OW 6144   7.324   4.896   6.701  0.2515 -0.6599 -0.3004
33010SOL    HW1 6145   7.415   4.884   6.674  0.6144 -0.0744  0.5774
33010SOL    HW2 6146   7.327   4.973   6.759 -0.7932 -0.6596 -0.2331
33011SOL     OW 6147  10.509  11.675   6.879 -0.7555  0.0510 -0.2848
33011SOL    HW1 6148  10.598  11.669   6.913 -0.5048 -0.9505 -1.0721
33011SOL    HW2 6149  10.475  11.757   6.915  1.2419  1.6326 -1.7419
33012SOL     OW 6150  11.942   9.494   8.913  0.4262 -0.4099 -0.2638
33012SOL    HW1 6151  11.898   9.518   8.995 -0.2485 -1.3105 -0.3382
33012SOL    HW2 6152  12.028   9.463   8.941  0.5313  0.1207  0.0149
33013SOL     OW 6153   1.815  10.423   5.430  0.1471  0.1609 -0.0333
33013SOL    HW1 6154   1.870  10.370   5.373 -1.0599 -3.1214  1.5705
33013SOL    HW2 6155   1.725  10.399   5.406 -0.4138 -0.3905  2.2704
33014SOL     OW 6156   9.969  10.326  11.375 -0.0904  0.1925  0.2079
33014SOL    HW1 6157   9.956  10.346  11.282  1.9818  0.0373 -0.1585
33014SOL    HW2 6158  10.021  10.246  11.376  1.2462  1.0245  1.4468
33015SOL     OW 6159   6.204   9.035   3.803  0.3561  0.0757 -0.0641
33015SOL    HW1 6160   6.141   8.963   3.812  0.6090 -0.1719 -0.2930
33015SOL    HW2 6161   6.166   9.091   3.735 -0.0658  0.3976  0.4253
33016SOL     OW 6162   7.288  12.922   9.402 -0.1668  0.5169 -0.0994
33016SOL    HW1 6163   7.323  12.843   9.442  0.3521  0.8930  0.2024
33016SOL    HW2 6164   7.356  12.988   9.414 -1.0288  1.3015  0.6214
33017SOL     OW 6165   5.841   6.632  12.060 -0.3350 -0.1604 -0.1568
33017SOL    HW1 6166   5.882   6.596  12.139  2.5319 -0.9824 -1.8905
33017SOL    HW2 6167   5.865   6.725  12.062  1.1707 -0.5025 -0.8177
33018SOL     OW 6168  10.718   7.910   0.678 -0.0598  0.0466  0.4529
33018SOL    HW1 6169  10.634   7.956   0.671  1.0840  2.2089 -0.0653
33018SOL    HW2 6170  10.752   7.909   0.589  0.5589 -0.5867  0.6917
33019SOL     OW 6171   7.514   3.385  10.454  0.5152  0.6044  0.1008
33019SOL    HW1 6172   7.433   3.401  10.503 -0.2120 -0.6508 -0.6559
33019SOL    HW2 6173   7.494   3.311  10.398  1.7446  1.1840 -1.1560
33020SOL     OW 6174  10.986   4.777  10.142  0.1783  0.2232 -0.3759
33020SOL    HW1 6175  10.983   4.817  10.055  0.3196 -3.8620 -2.4837
33020SOL    HW2 6176  11.077   4.788  10.170 -0.1187  2.5629 -0.1134
33021SOL     OW 6177   5.322   9.567   1.781 -0.1415  0.2117  0.5246
33021SOL    HW1 6178   5.329   9.653   1.741  0.4751  0.5216  1.2764
33021SOL    HW2 6179   5.285   9.583   1.868  0.1669 -0.2562  0.7451
33022SOL     OW 6180   8.293  10.612   6.752  0.0859 -0.3880 -0.0398
33022SOL    HW1 6181   8.271  10.538   6.695  0.3687 -2.0519  1.8511
33022SOL    HW2 6182   8.213  10.662   6.759 -0.2979 -0.8557 -0.8988
33023SOL     OW 6183   5.232   9.025   4.631 -0.4201 -0.1700  0.3184
33023SOL    HW1 6184   5.183   9.100   4.594 -1.5195 -0.3811  1.2742
33023SOL    HW2 6185   5.321   9.037   4.599 -0.7038  1.2294 -0.0442
33024SOL     OW 6186   7.026   2.524  12.863  0.1392  0.4400 -0.7116
33024SOL    HW1 6187   7.075   2.442  12.852  4.3480  2.1727  2.2677
33024SOL    HW2 6188   7.017   2.559  12.775  1.2701 -1.6371 -1.7260
33025SOL     OW 6189   0.547   1.575  11.146  0.4905 -0.0084  0.5596
33025SOL    HW1 6190   0.528   1.649  11.089 -1.1233 -0.8289 -0.0483
33025SOL    HW2 6191   0.643   1.570  11.148  0.6135  0.7800 -1.1478
33026SOL     OW 6192   9.830  10.593   7.987 -0.0517  0.1610  0.4434
33026SOL    HW1 6193   9.878  10.510   7.981 -0.5894 -0.1871  0.8369
33026SOL    HW2 6194   9.747  10.575   7.944 -0.3033  0.3969  0.8301
33027SOL     OW 6195   9.628   0.878   6.937 -0.2622  0.0797 -0.2452
33027SOL    HW1 6196   9.587   0.860   6.853 -1.2076  0.6814  0.0684
33027SOL    HW2 6197   9.720   0.894   6.916 -0.4921  0.2628 -1.1656
33028SOL     OW 6198   4.582   4.142   8.315 -0.5467  0.0934  0.4214
33028SOL    HW1 6199   4.562   4.166   8.225 -0.8536  1.5065  0.8298
33028SOL    HW2 6200   4.670   4.106   8.312  0.0323  1.4869 -0.2531
33029SOL     OW 6201   2.969   3.520   0.409 -0.2119 -0.2634  0.1183
33029SOL    HW1 6202   3.027   3.445   0.413 -1.2726 -1.0833  0.6639
33029SOL    HW2 6203   2.948   3.539   0.501  0.4674  1.0445  0.0204
33030SOL     OW 6204  12.399   1.425   1.249 -0.2416 -0.0162  0.2645
33030SOL    HW1 6205  12.367   1.386   1.168 -0.4242 -0.6488  0.6367
33030SOL    HW2 6206  12.435   1.510   1.222  0.8945 -0.7623 -0.6884
33031SOL     OW 6207   9.201   3.362   2.015 -0.0169  0.0020 -0.3949
33031SOL    HW1 6208   9.270   3.421   2.046 -0.9107 -0.5824  3.0875
33031SOL    HW2 6209   9.125   3.418   2.003 -0.3276 -0.0861  0.9941
33032SOL     OW 6210   2.609   8.076   2.660  0.0075  0.8935 -0.6523
33032SOL    HW1 6211   2.553   8.031   2.724 -1.1029  0.4681 -1.8815
33032SOL    HW2 6212   2.651   8.005   2.611  0.7982  1.2213 -0.4722
33033SOL     OW 6213   5.411   8.617   1.896  0.2594 -0.0099 -0.4260
33033SOL    HW1 6214   5.462   8.698   1.898  1.2464 -0.6246  0.2096
33033SOL    HW2 6215   5.469   8.554   1.853  0.0045 -0.7039  0.2466
33034SOL     OW 6216   2.707   3.301   4.428  0.2444  0.4896  0.4716
33034SOL    HW1 6217   2.656   3.241   4.482 -0.3931  1.8751  1.4941
33034SOL    HW2 6218   2.730   3.251   4.350 -1.6017 -0.5766  0.5669
33035SOL     OW 6219   7.125  10.545   6.959  0.0125  0.7043  0.4603
33035SOL    HW1 6220   7.127  10.495   6.878  1.5536  1.0359  0.2756
33035SOL    HW2 6221   7.058  10.501   7.012 -0.2937 -0.1339 -0.5766
33036SOL     OW 6222   2.458  11.629   6.634  0.1079 -0.3540  0.0178
33036SOL    HW1 6223   2.542  11.674   6.641 -0.2276  0.0664  1.8646
33036SOL    HW2 6224   2.394  11.698   6.618  0.0372 -0.6191 -0.8958
33037SOL     OW 6225  11.634   4.960  10.975  0.6445  0.2887  0.1131
33037SOL    HW1 6226  11.548   4.939  10.939 -0.5496 -0.4633  3.1742
33037SOL    HW2 6227  11.674   5.017  10.909 -1.5231 -0.6001 -2.1081
33038SOL     OW 6228   5.815   4.571   8.735 -0.6098  0.2107 -0.2764
33038SOL    HW1 6229   5.728   4.595   8.704 -1.2841 -1.3970  0.2721
33038SOL    HW2 6230   5.875   4.618   8.677 -1.8272  1.4731 -0.5628
33039SOL     OW 6231   1.639   0.407   8.206  0.5944  0.5945 -0.5017
33039SOL    HW1 6232   1.570   0.465   8.238  0.4535 -0.6465  1.6672
33039SOL    HW2 6233   1.664   0.443   8.121 -1.3642  2.1962 -0.4647
33040SOL     OW 6234  11.625   7.579  10.644 -0.5299 -0.6549 -0.3962
33040SOL    HW1 6235  11.596   7.670  10.650 -1.8727 -1.1199  0.4988
33040SOL    HW2 6236  11.645   7.567  10.551 -2.7040 -0.1219 -0.9707
33041SOL     OW 6237   6.336   7.722   5.272  0.3067  0.9341  0.6197
33041SOL    HW1 6238   6.303   7.698   5.185  1.0935 -0.0029  0.5494
33041SOL    HW2 6239   6.390   7.799   5.257 -0.8888  1.7784  0.5571
33042SOL     OW 6240   3.449   3.728  10.974  0.7681  0.0070 -0.1190
33042SOL    HW1 6241   3.515   3.737  11.043  0.8592 -1.9781  0.1211
33042SOL    HW2 6242   3.407   3.813  10.969  0.8905  0.2668  2.2607
33043SOL     OW 6243   5.289   7.067   2.768  0.1915  0.7142 -0.2939
33043SOL    HW1 6244   5.307   6.980   2.731 -0.1550  0.1545  0.8101
33043SOL    HW2 6245   5.215   7.100   2.717 -0.0844  0.0930 -0.3013
33044SOL     OW 6246  12.008   4.987  12.633 -0.7258 -0.0872  0.1825
33044SOL    HW1 6247  12.103   4.980  12.622 -0.5277 -0.0857  1.7123
33044SOL    HW2 6248  11.995   5.065  12.687 -1.6366  0.1222 -0.3112
33045SOL     OW 6249   0.359   0.698   8.700  0.0703  0.2202 -0.0489
33045SOL    HW1 6250   0.423   0.660   8.760  0.2086  0.4400 -0.0546
33045SOL    HW2 6251   0.306   0.624   8.671  1.7137 -0.3715 -1.7715
33046SOL     OW 6252   6.848   0.794   4.180 -0.2365  0.0757  0.1290
33046SOL    HW1 6253   6.838   0.708   4.141  0.2164 -0.1307  0.4587
33046SOL    HW2 6254   6.851   0.777   4.274  0.1096  0.4242  0.1830
33047SOL     OW 6255  12.348  12.414   1.001  0.3008  0.1511 -0.1035
33047SOL    HW1 6256  12.434  12.391   1.037  0.3935  0.4625 -0.1268
33047SOL    HW2 6257  12.286  12.387   1.068  0.3458 -0.9947 -0.5014
33048SOL     OW 6258   4.724   1.382   6.239 -0.2873 -0.0389  0.2555
33048SOL    HW1 6259   4.709   1.426   6.323 -2.5716 -0.1812 -0.0193
33048SOL    HW2 6260   4.686   1.440   6.174 -1.0287 -1.1839 -0.3769
33049SOL     OW 6261   0.278  12.496   7.883 -0.7385  0.0022 -0.7211
33049SOL    HW1 6262   0.358  12.548   7.869  1.2536 -1.9940  2.1218
33049SOL    HW2 6263   0.233  12.542   7.954  0.3714 -1.2974  0.9028
33050SOL     OW 6264   5.737  12.133   5.649 -0.0124 -0.2269  0.1319
33050SOL    HW1 6265   5.690  12.137   5.733  0.7178 -1.4812  0.6283
33050SOL    HW2 6266   5.726  12.043   5.620  1.7432 -0.4662  0.0820
33051SOL     OW 6267   0.353   7.649   4.018  0.9159  0.2287 -0.1030
33051SOL    HW1 6268   0.280   7.706   3.995  0.7906 -0.3737 -1.2651
33051SOL    HW2 6269   0.407   7.702   4.076  0.6528  1.4188 -0.9128
33052SOL     OW 6270   9.267  12.537   0.122  0.1576  0.0614 -0.0770
33052SOL    HW1 6271   9.325  12.544   0.198 -0.0220  0.2302  0.0484
33052SOL    HW2 6272   9.199  12.602   0.139  1.2415  1.6221 -1.4042
33053SOL     OW 6273   7.741   6.253  12.224 -0.1156 -0.2862  0.1387
33053SOL    HW1 6274   7.664   6.292  12.266  0.3943  1.8134 -0.7503
33053SOL    HW2 6275   7.710   6.168  12.193 -1.3483 -0.5764  1.9907
33054SOL     OW 6276   4.882   2.543  11.529  0.3689 -0.3223  0.3305
33054SOL    HW1 6277   4.914   2.453  11.530 -0.4957 -0.6845 -1.2412
33054SOL    HW2 6278   4.786   2.533  11.530  0.2184  0.4752 -1.6564
33055SOL     OW 6279   7.959   8.808   0.004 -0.4072  0.1240 -0.0714
33055SOL    HW1 6280   8.034   8.797  -0.054 -0.0484  0.0017  0.4037
33055SOL    HW2 6281   7.953   8.902   0.018 -0.6865  0.1804 -0.5471
33056SOL     OW 6282  11.812   6.443   5.612 -0.7433  0.0066 -0.2870
33056SOL    HW1 6283  11.901   6.438   5.578 -0.8574 -0.1048 -0.5751
33056SOL    HW2 6284  11.756   6.438   5.534 -0.9922  0.5231 -0.1496
33057SOL     OW 6285   4.678   3.842   3.790  0.6257  0.1463  0.4667
33057SOL    HW1 6286   4.711   3.754   3.805 -0.3871 -0.1898  0.8060
33057SOL    HW2 6287   4.595   3.829   3.742  0.8939  0.9508 -0.2355
33058SOL     OW 6288   0.659   0.595   2.856 -0.3787 -0.1969  0.3143
33058SOL    HW1 6289   0.677   0.618   2.947 -2.3640 -0.0310  0.6986
33058SOL    HW2 6290   0.596   0.524   2.861 -0.7136 -0.0180 -0.9468
33059SOL     OW 6291   1.579   8.159  11.948 -0.1070  0.5079 -0.1450
33059SOL    HW1 6292   1.628   8.091  11.900 -0.2341 -0.2094  0.7174
33059SOL    HW2 6293   1.529   8.204  11.880  0.2154 -0.0646 -0.7767
33060SOL     OW 6294   0.722   3.026   9.832 -0.3440 -0.7878 -0.3622
33060SOL    HW1 6295   0.735   3.116   9.800 -0.2560 -0.8316 -0.4474
33060SOL    HW2 6296   0.686   3.038   9.920  0.9121 -0.6622  0.1629
33061SOL     OW 6297   5.558   9.577   1.002 -0.3045 -0.2157  0.2213
33061SOL    HW1 6298   5.573   9.489   1.036  0.1718 -0.3353 -0.2835
33061SOL    HW2 6299   5.598   9.576   0.915 -1.5739  0.0477 -0.3946
33062SOL     OW 6300  11.708  12.363   0.663 -0.6453  0.0305  0.2343
33062SOL    HW1 6301  11.785  12.307   0.654 -0.4493 -0.1955  2.7716
33062SOL    HW2 6302  11.634  12.305   0.646 -0.4382 -1.0594  2.7164
33063SOL     OW 6303   9.250  10.959   2.607  0.1910 -0.1979 -0.2731
33063SOL    HW1 6304   9.246  10.982   2.514 -2.6572 -0.0737 -0.2039
33063SOL    HW2 6305   9.267  11.043   2.650  2.3018 -0.3697 -0.6438
33064SOL     OW 6306   0.019   5.432   4.333  0.0393 -0.2490 -0.1051
33064SOL    HW1 6307  -0.076   5.440   4.339 -0.0945  0.9657 -2.5828
33064SOL    HW2 6308   0.034   5.342   4.304 -0.3251 -0.4810  0.4058
33065SOL     OW 6309  12.580  10.799   0.882  0.2954 -0.1655 -0.3630
33065SOL    HW1 6310  12.489  10.814   0.857  0.5458  0.9116 -0.6690
33065SOL    HW2 6311  12.594  10.857   0.957  1.4728  1.7734 -1.9691
33066SOL     OW 6312   2.202  11.373   8.149  0.2819  0.1250  0.2892
33066SOL    HW1 6313   2.159  11.402   8.230 -0.5327 -0.5135  0.1071
33066SOL    HW2 6314   2.295  11.376   8.169  0.0796 -2.6394  2.2184
33067SOL     OW 6315  11.397   0.475   9.906  0.2510 -0.2076  0.2879
33067SOL    HW1 6316  11.491   0.475   9.924  0.2231 -1.1731  0.4919
33067SOL    HW2 6317  11.388   0.522   9.823  0.7436  1.2827  1.0375
33068SOL     OW 6318   7.119   4.038   8.662  0.8157 -0.8445  0.0797
33068SOL    HW1 6319   7.140   4.083   8.744  1.3817  0.7410 -0.9082
33068SOL    HW2 6320   7.134   4.103   8.594  1.4744 -2.4767 -1.3992
33069SOL     OW 6321  10.329   0.069   7.417 -0.3828  0.5587 -0.0854
33069SOL    HW1 6322  10.382  -0.002   7.453 -0.5526  0.2981 -0.3535
33069SOL    HW2 6323  10.304   0.039   7.330 -1.1960  0.5585  0.1397
33070SOL     OW 6324   9.289   8.497  12.462  0.0977  0.4596  0.2684
33070SOL    HW1 6325   9.204   8.540  12.471  0.1249  0.2499  1.9101
33070SOL    HW2 6326   9.281   8.416  12.513  0.6900 -0.5250 -1.1275
33071SOL     OW 6327   2.194   5.981   0.031  0.6112  0.1144 -0.4208
33071SOL    HW1 6328   2.181   5.921  -0.043  0.5349  0.7950 -0.9750
33071SOL    HW2 6329   2.199   5.924   0.107 -1.2446 -0.5065 -0.7084
33072SOL     OW 6330   2.467   0.934   0.307 -0.3446  0.4936 -0.2015
33072SOL    HW1 6331   2.538   0.995   0.284  0.2615 -0.4417 -0.8764
33072SOL    HW2 6332   2.422   0.977   0.380 -0.0412  1.8268 -0.7650
33073SOL     OW 6333  12.541  10.945   1.123 -1.0232  0.5390  0.0996
33073SOL    HW1 6334  12.506  10.865   1.162  0.4402 -0.4451 -0.4792
33073SOL    HW2 6335  12.501  11.016   1.172 -1.6333 -0.5774  1.2794
33074SOL     OW 6336  10.798   1.075  12.177 -0.2797 -0.2749 -0.3266
33074SOL    HW1 6337  10.715   1.087  12.224 -0.0153 -0.9398  0.3154
33074SOL    HW2 6338  10.772   1.044  12.090 -0.7811  1.1975 -0.7410
33075SOL     OW 6339   9.096   7.184   3.045 -0.0925 -0.1541  0.4190
33075SOL    HW1 6340   9.189   7.172   3.060  0.0410 -0.9774 -0.8604
33075SOL    HW2 6341   9.087   7.185   2.950 -1.4763 -0.9584  0.5101
33076SOL     OW 6342   7.605   5.683  10.995  0.4996  0.4851  0.3569
33076SOL    HW1 6343   7.529   5.671  10.939  1.7479 -2.8420 -0.9057
33076SOL    HW2 6344   7.668   5.731  10.942  0.9665 -0.9534 -0.4296
33077SOL     OW 6345   7.721   1.301   0.770  0.4759 -0.1908 -0.2621
33077SOL    HW1 6346   7.627   1.315   0.761  0.2544  2.0666  3.1691
33077SOL    HW2 6347   7.731   1.207   0.778 -1.3607 -0.5480 -1.6445
33078SOL     OW 6348   2.635   9.103   2.916  0.2849 -0.1818 -0.0808
33078SOL    HW1 6349   2.682   9.179   2.950  1.2302  0.1206 -1.9369
33078SOL    HW2 6350   2.543   9.125   2.926  0.4945  0.0435  1.8351
33079SOL     OW 6351   4.957   1.648   6.571  0.6744 -0.8182 -0.1974
33079SOL    HW1 6352   4.868   1.678   6.590  0.4032 -2.9357  2.5482
33079SOL    HW2 6353   4.998   1.641   6.657  3.3668 -0.4182 -1.3589
33080SOL     OW 6354   9.161   8.294   6.219  0.1389  0.3977  0.2647
33080SOL    HW1 6355   9.155   8.381   6.256 -0.2298 -0.0777  1.3446
33080SOL    HW2 6356   9.255   8.277   6.212  0.2276  1.1497 -0.6513
33081SOL     OW 6357   7.703   8.851   4.215  0.3228 -0.6636 -0.2618
33081SOL    HW1 6358   7.678   8.830   4.305  0.9351  0.1373  0.1152
33081SOL    HW2 6359   7.766   8.923   4.225  2.0766 -1.9801 -1.1855
33082SOL     OW 6360   1.243  10.745   9.573  0.2789 -0.1934 -0.3295
33082SOL    HW1 6361   1.230  10.837   9.594 -0.1455 -0.6198  1.3954
33082SOL    HW2 6362   1.158  10.704   9.586  0.3470 -0.7595 -1.5443
33083SOL     OW 6363   0.672  12.070   2.723  0.0797  0.8705 -0.1325
33083SOL    HW1 6364   0.742  12.121   2.682 -1.5939  1.5889 -2.2533
33083SOL    HW2 6365   0.625  12.132   2.778  0.1230  0.7594  0.0337
33084SOL     OW 6366  11.568  12.310   1.859  0.1779 -0.2182  0.2412
33084SOL    HW1 6367  11.477  12.341   1.859 -0.5160 -2.0846  1.3167
33084SOL    HW2 6368  11.599  12.329   1.771 -1.8065 -0.9996 -0.6998
33085SOL     OW 6369   3.587   8.557  12.267 -0.2019  0.5296 -0.3795
33085SOL    HW1 6370   3.566   8.487  12.329  1.2592  0.0987 -0.3403
33085SOL    HW2 6371   3.650   8.613  12.313 -0.3430  1.1337 -0.8923
33086SOL     OW 6372  10.828   7.221   6.211 -0.0721 -0.1292  0.1201
33086SOL    HW1 6373  10.852   7.148   6.154 -3.2503 -0.7710 -0.6033
33086SOL    HW2 6374  10.805   7.179   6.294 -1.8963 -0.0615 -0.2955
33087SOL     OW 6375   1.520   3.194  11.263 -0.5588 -0.5289  0.0401
33087SOL    HW1 6376   1.585   3.174  11.196 -1.3718 -0.0435 -0.9156
33087SOL    HW2 6377   1.569   3.242  11.331  0.2556 -0.9747 -0.2275
33088SOL     OW 6378   7.003   8.161   6.627 -0.1624 -0.3803  0.3377
33088SOL    HW1 6379   6.981   8.077   6.667 -0.7811 -0.2350  0.3115
33088SOL    HW2 6380   7.081   8.143   6.575 -0.5241 -1.0442  0.0023
33089SOL     OW 6381  12.305  11.125   3.978  0.0255 -0.6797  0.1260
33089SOL    HW1 6382  12.316  11.120   3.883 -1.4990  0.1628 -0.1233
33089SOL    HW2 6383  12.291  11.218   3.996  0.0867 -0.8589  1.1498
33090SOL     OW 6384   1.723   8.724   5.455 -0.3675  0.3396  0.2723
33090SOL    HW1 6385   1.797   8.700   5.399  0.8230 -0.4410  2.0825
33090SOL    HW2 6386   1.699   8.642   5.499 -1.4450  0.8787  0.7143
33091SOL     OW 6387  10.155   0.885   8.815  0.9387  0.5651  0.0457
33091SOL    HW1 6388  10.229   0.824   8.820 -0.1514 -0.7932  0.2320
33091SOL    HW2 6389  10.183   0.951   8.751  2.5356  0.4389  0.5577
33092SOL     OW 6390   2.898   7.798   5.431 -0.7607 -0.1770 -0.2821
33092SOL    HW1 6391   2.913   7.852   5.353 -0.2506  0.1977  0.0725
33092SOL    HW2 6392   2.912   7.708   5.400 -0.5176 -0.0274 -0.6190
33093SOL     OW 6393   6.322   4.365   6.885 -0.1636  0.5632 -0.0829
33093SOL    HW1 6394   6.368   4.446   6.863 -0.4989  0.5597 -0.8105
33093SOL    HW2 6395   6.266   4.388   6.959  0.8517  0.6113  0.7081
33094SOL     OW 6396   4.582   4.110   4.502 -0.2549 -0.4354  0.2189
33094SOL    HW1 6397   4.606   4.102   4.410  0.9624 -0.9046  0.5490
33094SOL    HW2 6398   4.664   4.136   4.546 -0.9103  0.2173  1.1091
33095SOL     OW 6399  11.901   4.817   5.370 -0.2291 -0.2458 -0.3449
33095SOL    HW1 6400  11.987   4.802   5.408 -0.1020 -0.3240 -0.6665
33095SOL    HW2 6401  11.906   4.904   5.331  0.5026 -1.2174 -2.5477
33096SOL     OW 6402   4.753  11.696   8.775 -0.2391  0.0125  0.0682
33096SOL    HW1 6403   4.693  11.742   8.834  0.1602 -0.7970  1.1427
33096SOL    HW2 6404   4.716  11.710   8.688 -1.8528 -0.2468  0.6655
33097SOL     OW 6405   4.717   4.733   1.755  0.2726 -0.0079  0.4167
33097SOL    HW1 6406   4.650   4.669   1.776 -0.8619  1.8465  3.0533
33097SOL    HW2 6407   4.792   4.708   1.810 -0.0836  0.7193  1.2589
33098SOL     OW 6408   5.549   6.745   4.120 -0.5447 -0.1896  0.0368
33098SOL    HW1 6409   5.501   6.728   4.039 -0.5917  1.9605 -0.4405
33098SOL    HW2 6410   5.486   6.725   4.189 -1.0938 -0.3216 -0.4897
33099SOL     OW 6411  10.876   2.581   8.791  0.6361  0.5207  0.0691
33099SOL    HW1 6412  10.807   2.618   8.735  0.4518 -0.2531 -0.2174
33099SOL    HW2 6413  10.830   2.550   8.868  0.4802 -1.0826 -0.6362
33100SOL     OW 6414   7.903   2.213   2.372 -0.4404  0.1403  0.1961
33100SOL    HW1 6415   7.997   2.227   2.370 -0.5762  1.1157 -0.2337
33100SOL    HW2 6416   7.866   2.301   2.379 -1.3082 -0.2762  1.0847
33101SOL     OW 6417  12.387  11.430   3.034  0.8466  0.1024 -0.0542
33101SOL    HW1 6418  12.442  11.412   3.110 -0.9528 -4.1847  0.5291
33101SOL    HW2 6419  12.309  11.472   3.071  0.2414 -1.4156  0.4902
33102SOL     OW 6420   2.601   2.796  11.253  0.1315 -0.2093  0.5569
33102SOL    HW1 6421   2.526   2.804  11.312 -0.9455  1.5474 -0.9231
33102SOL    HW2 6422   2.573   2.732  11.187  0.1492  0.0448  0.3023
33103SOL     OW 6423   6.787   4.015   6.504 -0.0578 -0.3715  0.3073
33103SOL    HW1 6424   6.881   4.005   6.513 -0.0856 -1.4629 -0.4255
33103SOL    HW2 6425   6.753   4.008   6.593  0.4129 -1.7621  0.4026
33104SOL     OW 6426   8.387  12.481   9.003  0.5780  0.6676 -0.3356
33104SOL    HW1 6427   8.431  12.419   8.945  2.2587  1.6695 -0.2174
33104SOL    HW2 6428   8.406  12.450   9.091  1.0936  1.1142 -0.2831
33105SOL     OW 6429   4.134   7.755   4.130 -0.0628 -0.1740 -0.3210
33105SOL    HW1 6430   4.043   7.739   4.107 -0.5094 -2.2798  2.3936
33105SOL    HW2 6431   4.136   7.848   4.153 -1.8985 -0.3692  0.8694
33106SOL     OW 6432   5.302  11.637   8.848  0.0594 -0.0853 -0.6429
33106SOL    HW1 6433   5.251  11.572   8.799  0.9653 -1.0910 -0.3090
33106SOL    HW2 6434   5.386  11.593   8.865 -0.2125  0.2077  1.8090
33107SOL     OW 6435  10.376   2.411   1.172 -1.0383 -0.2405 -0.4440
33107SOL    HW1 6436  10.296   2.360   1.180 -0.7061 -0.5537  1.0693
33107SOL    HW2 6437  10.354   2.497   1.207 -0.1741 -0.9680  2.1144
33108SOL     OW 6438   2.872   2.915   4.798  0.1033  0.0155  0.2281
33108SOL    HW1 6439   2.800   2.865   4.837  1.0552 -0.6020  1.2753
33108SOL    HW2 6440   2.937   2.849   4.774  0.5389  0.5985 -0.2205
33109SOL     OW 6441   1.011   3.695   8.187 -0.2716  0.6917 -0.2836
33109SOL    HW1 6442   1.034   3.787   8.186  0.2129  0.6768  2.5276
33109SOL    HW2 6443   1.074   3.655   8.247 -0.4397 -1.4962 -1.4588
33110SOL     OW 6444   5.846  10.938   9.551  0.3476  0.2431  0.1807
33110SOL    HW1 6445   5.831  10.850   9.517  2.6562 -0.0695 -0.1727
33110SOL    HW2 6446   5.904  10.926   9.626  0.6236  1.4408  0.1882
33111SOL     OW 6447   5.262   1.443  11.872  0.7111  0.2958  0.1696
33111SOL    HW1 6448   5.322   1.453  11.945  1.9567 -1.2374 -0.5849
33111SOL    HW2 6449   5.267   1.525  11.824  2.0838  0.2628  0.2296
33112SOL     OW 6450  12.041   2.882   9.107  0.4794  1.0519  0.0226
33112SOL    HW1 6451  11.979   2.848   9.172  1.1839  1.5564  0.9733
33112SOL    HW2 6452  12.036   2.819   9.035  0.8345 -0.3873  1.2057
33113SOL     OW 6453   1.198  12.774  12.392 -0.6582  0.0045 -0.4314
33113SOL    HW1 6454   1.152  12.822  12.323  0.8239  0.5880 -1.0532
33113SOL    HW2 6455   1.286  12.812  12.393 -0.4290 -0.4984  1.2902
33114SOL     OW 6456   3.647   0.410   0.745 -0.5910  0.1865 -0.2744
33114SOL    HW1 6457   3.710   0.444   0.682  0.9632  0.0061  1.1171
33114SOL    HW2 6458   3.634   0.482   0.807 -2.2442  0.4345 -0.8478
33115SOL     OW 6459   6.683   8.724   5.286  0.1589  0.4720  0.2116
33115SOL    HW1 6460   6.725   8.664   5.223  1.8096  1.1633  0.5966
33115SOL    HW2 6461   6.594   8.690   5.296  0.2666 -0.4159 -1.4995
33116SOL     OW 6462   9.384   6.032   1.936 -0.3519  0.5334 -0.2014
33116SOL    HW1 6463   9.350   5.944   1.951 -2.6556  1.3891  0.0142
33116SOL    HW2 6464   9.404   6.034   1.842 -0.9781 -0.0142 -0.3566
33117SOL     OW 6465   3.279   6.426   7.021 -1.1812  0.1892  0.9432
33117SOL    HW1 6466   3.312   6.344   6.984  1.2674  0.1904  2.8258
33117SOL    HW2 6467   3.292   6.491   6.953  0.3643 -0.3436  0.6925
33118SOL     OW 6468   6.394   2.977  12.771  0.1926 -0.3443  0.2352
33118SOL    HW1 6469   6.349   2.915  12.829  0.9990 -2.2948 -1.1441
33118SOL    HW2 6470   6.323   3.019  12.722 -0.2722 -2.2091 -0.7698
33119SOL     OW 6471  10.717  12.078   0.012 -0.1762 -0.5348 -0.3072
33119SOL    HW1 6472  10.632  12.075  -0.031 -0.3269 -1.0947  0.0236
33119SOL    HW2 6473  10.697  12.070   0.105  0.1950 -0.0221 -0.1757
33120SOL     OW 6474   2.514   5.165   4.733  0.4322  0.2674 -0.5877
33120SOL    HW1 6475   2.498   5.076   4.702  1.4642 -0.4232  0.7626
33120SOL    HW2 6476   2.566   5.154   4.813  2.2324  2.1264 -1.4076
33121SOL     OW 6477   8.182   1.944   8.404 -1.1399 -1.1315  0.3215
33121SOL    HW1 6478   8.132   1.962   8.483 -0.3103  0.6344  0.4769
33121SOL    HW2 6479   8.272   1.934   8.434 -0.5186  1.3066 -0.5274
33122SOL     OW 6480  10.897  12.669   9.963 -0.6869  0.3965 -0.2461
33122SOL    HW1 6481  10.904  12.713   9.878  0.7770 -0.3807 -0.5700
33122SOL    HW2 6482  10.962  12.713  10.018  0.6166 -1.1258 -0.4979
33123SOL     OW 6483   0.247  10.529  10.694 -0.0605  0.4350  0.2387
33123SOL    HW1 6484   0.264  10.593  10.763 -1.9876 -0.0495  1.2382
33123SOL    HW2 6485   0.154  10.507  10.704  0.2976 -1.8017 -0.6845
33124SOL     OW 6486   4.035  12.002  10.324  0.2912  0.2037 -0.1679
33124SOL    HW1 6487   4.082  11.924  10.355  1.0812  1.2970  1.5011
33124SOL    HW2 6488   3.973  12.022  10.395  2.7238  3.2642  1.3370
33125SOL     OW 6489  10.108   7.571   2.218  0.3993  0.5463  0.4839
33125SOL    HW1 6490  10.199   7.578   2.188  0.2095 -0.7420 -0.4251
33125SOL    HW2 6491  10.068   7.507   2.161 -1.0920  1.0448  0.9229
33126SOL     OW 6492   7.160   0.777   7.812  0.0823 -0.5115 -0.0976
33126SOL    HW1 6493   7.138   0.833   7.886  2.0992  1.1335 -0.6420
33126SOL    HW2 6494   7.248   0.745   7.831 -0.0110 -1.3755 -1.0275
33127SOL     OW 6495   1.443   8.477   6.750  0.0608 -0.1933 -0.1413
33127SOL    HW1 6496   1.404   8.551   6.797  0.2918  0.2659 -0.6591
33127SOL    HW2 6497   1.508   8.517   6.693 -0.1101 -0.7561 -0.7425
33128SOL     OW 6498   3.746  11.572  12.070 -0.2225 -0.5745  0.0762
33128SOL    HW1 6499   3.833  11.596  12.102 -0.8956 -0.0643  1.6307
33128SOL    HW2 6500   3.737  11.619  11.987  1.4554 -1.6542 -0.7685
33129SOL     OW 6501   3.954   8.718   7.941  0.0146 -0.1715  0.4641
33129SOL    HW1 6502   3.980   8.759   7.858  1.1376  0.1796  0.9708
33129SOL    HW2 6503   3.902   8.642   7.915  1.2819 -0.7120 -0.6033
33130SOL     OW 6504  10.307  10.963  11.369 -0.4422  0.0798  0.3919
33130SOL    HW1 6505  10.229  10.908  11.381 -0.6260  0.1534 -0.3745
33130SOL    HW2 6506  10.322  10.961  11.275  1.2806 -0.9962  0.6548
33131SOL     OW 6507  12.826   7.206   2.222 -0.0281  0.6656 -0.1439
33131SOL    HW1 6508  12.802   7.177   2.134  0.5458  0.2101 -0.1520
33131SOL    HW2 6509  12.862   7.294   2.209  2.2106 -0.2629 -0.6903
33132SOL     OW 6510   0.176   0.244  10.101  0.5074  0.1169  0.0359
33132SOL    HW1 6511   0.221   0.301  10.039 -0.9314  0.9880 -0.2737
33132SOL    HW2 6512   0.143   0.303  10.169  0.2772 -0.5518  0.5167
33133SOL     OW 6513   1.368   2.055   7.288  0.1636 -0.0831  0.4712
33133SOL    HW1 6514   1.456   2.045   7.324  0.6815  0.3100 -0.6437
33133SOL    HW2 6515   1.374   2.131   7.230 -0.3425 -1.3292 -1.2874
33134SOL     OW 6516   9.302   0.635   4.614 -0.0830  0.1973  1.0178
33134SOL    HW1 6517   9.321   0.571   4.682  2.4876  1.1317  1.3019
33134SOL    HW2 6518   9.385   0.645   4.567 -0.4636  3.0154  0.7598
33135SOL     OW 6519   6.235   7.004   5.254  0.2689 -0.7859 -0.5761
33135SOL    HW1 6520   6.262   7.095   5.242 -1.6365 -0.3227 -1.9347
33135SOL    HW2 6521   6.159   7.009   5.312  0.3197 -1.5365 -0.4331
33136SOL     OW 6522  12.812   9.854   0.416  0.2883 -0.3473 -0.3898
33136SOL    HW1 6523  12.797   9.772   0.369  0.5231 -0.6868  0.1134
33136SOL    HW2 6524  12.801   9.831   0.508  0.7346  0.0975 -0.2187
33137SOL     OW 6525   3.644  12.584   8.311  0.1634 -0.2148 -0.0059
33137SOL    HW1 6526   3.668  12.517   8.375  2.8760  1.5098  0.9489
33137SOL    HW2 6527   3.641  12.537   8.227 -0.1033 -1.8813  0.8900
33138SOL     OW 6528   8.143  12.959  10.461 -0.4414 -0.0107 -0.1584
33138SOL    HW1 6529   8.171  13.041  10.501  2.5137 -0.3105 -1.3345
33138SOL    HW2 6530   8.142  12.977  10.367 -1.0420 -0.9703 -0.3524
33139SOL     OW 6531   1.354   1.388   4.397  0.5181  0.2359  0.1207
33139SOL    HW1 6532   1.271   1.419   4.360  0.3025  1.2446  1.4090
33139SOL    HW2 6533   1.359   1.296   4.369 -0.9173  0.2138 -0.1616
33140SOL     OW 6534  12.467   1.529   6.456 -0.1902  0.7697  0.5224
33140SOL    HW1 6535  12.464   1.434   6.467  1.4951  0.7562  1.2605
33140SOL    HW2 6536  12.527   1.543   6.383  0.1790  1.2608  0.9039
33141SOL     OW 6537   6.947   4.320   4.777  0.4800  0.0200  0.7634
33141SOL    HW1 6538   6.860   4.354   4.799  0.6571 -0.4161  2.2438
33141SOL    HW2 6539   7.007   4.365   4.836  1.1940 -0.1381  0.1835
33142SOL     OW 6540  10.972   3.116   3.962 -0.1876  0.1667  0.3618
33142SOL    HW1 6541  10.894   3.171   3.953  0.1738  0.8663  1.4708
33142SOL    HW2 6542  10.937   3.031   3.989 -0.6262  0.2547  0.0877
33143SOL     OW 6543  11.455  11.768   1.943  0.3079 -0.0146  0.6808
33143SOL    HW1 6544  11.458  11.704   1.872  1.3132 -0.3665  1.0110
33143SOL    HW2 6545  11.460  11.853   1.900  1.0215 -0.2310  0.3220
33144SOL     OW 6546   0.127   1.708   1.152  0.0477  0.0083 -0.3014
33144SOL    HW1 6547   0.099   1.721   1.062 -2.1054 -0.2160  0.2810
33144SOL    HW2 6548   0.076   1.632   1.181  0.9263 -0.0985  1.0101
33145SOL     OW 6549  12.266   2.208   9.151 -0.2908 -0.3014  0.0182
33145SOL    HW1 6550  12.221   2.150   9.090 -1.0648  1.6908 -1.4034
33145SOL    HW2 6551  12.209   2.212   9.227  0.1056 -1.8766  0.4428
33146SOL     OW 6552   6.245  11.102   8.769  0.1672 -0.8200  0.4889
33146SOL    HW1 6553   6.222  11.009   8.763 -0.6328 -0.7018  1.4733
33146SOL    HW2 6554   6.167  11.148   8.737 -0.0416 -0.4643  1.4637
33147SOL     OW 6555   4.653  11.201   7.233  0.1415 -0.1756 -0.2247
33147SOL    HW1 6556   4.603  11.268   7.185  0.2607 -0.6337 -1.0051
33147SOL    HW2 6557   4.731  11.186   7.179  0.0206 -1.0851 -0.1586
33148SOL     OW 6558   1.572  10.045   2.660 -0.5436 -0.0435 -0.4302
33148SOL    HW1 6559   1.635   9.979   2.688 -1.8448 -0.8676  0.6401
33148SOL    HW2 6560   1.486  10.004   2.672 -1.3216  1.2001 -1.4411
33149SOL     OW 6561   0.667  12.177   1.042  0.0449  0.3550 -0.4742
33149SOL    HW1 6562   0.580  12.171   1.002 -0.3312 -0.7991  0.4306
33149SOL    HW2 6563   0.727  12.159   0.970 -0.5943 -1.2606 -0.6523
33150SOL     OW 6564   6.581   3.175   7.502 -0.4691  0.2058 -0.1973
33150SOL    HW1 6565   6.520   3.199   7.433 -1.2965 -2.1202 -0.3704
33150SOL    HW2 6566   6.592   3.080   7.493  1.2222  0.1697  1.4174
33151SOL     OW 6567   1.461   8.127  12.652 -0.0990 -0.3744 -0.3442
33151SOL    HW1 6568   1.381   8.173  12.625 -0.5873 -0.5046  0.8164
33151SOL    HW2 6569   1.500   8.183  12.719 -2.0123 -2.6085  2.9802
33152SOL     OW 6570   2.950   2.513   5.170  0.5809  0.3845  0.1001
33152SOL    HW1 6571   2.930   2.597   5.128 -3.4998 -0.7717 -0.6508
33152SOL    HW2 6572   2.979   2.457   5.098 -0.5054  0.0914 -0.1191
33153SOL     OW 6573   0.977   0.008   2.945 -0.1353 -0.0058 -0.4434
33153SOL    HW1 6574   1.002  -0.003   2.854  0.8519  2.0117 -0.4783
33153SOL    HW2 6575   1.012  -0.070   2.989  0.8320 -0.2170 -1.5369
33154SOL     OW 6576  11.548   3.362   9.477  0.5651  0.3065  0.4006
33154SOL    HW1 6577  11.571   3.350   9.385  0.3908 -0.1809  0.4137
33154SOL    HW2 6578  11.632   3.367   9.522  0.7217 -2.1725  0.5322
33155SOL     OW 6579   7.492   0.102   2.994 -0.3580 -0.6188 -0.6683
33155SOL    HW1 6580   7.560   0.068   3.052 -0.4866  0.2236  0.0106
33155SOL    HW2 6581   7.491   0.043   2.919  0.3799 -1.2579 -0.1838
33156SOL     OW 6582   5.818   2.754  10.417 -0.1965  0.3066 -0.2776
33156SOL    HW1 6583   5.848   2.807  10.343  1.4850 -1.2822 -0.8055
33156SOL    HW2 6584   5.760   2.813  10.466  2.1202  2.9025 -0.3895
33157SOL     OW 6585   5.200   0.175   3.023  0.2140  0.2783 -0.4660
33157SOL    HW1 6586   5.134   0.123   2.976  0.0800  0.6318 -0.6693
33157SOL    HW2 6587   5.275   0.117   3.031 -0.8879 -0.9913  1.7854
33158SOL     OW 6588   0.749   5.782   7.430 -0.0224 -0.2330  0.2919
33158SOL    HW1 6589   0.796   5.811   7.352  0.6484 -0.1614  0.7148
33158SOL    HW2 6590   0.812   5.729   7.478 -0.3969 -0.1986  0.8300
33159SOL     OW 6591   1.266   9.697   2.370 -0.2169  1.5724  0.1933
33159SOL    HW1 6592   1.258   9.628   2.304  1.7109 -0.5458  2.0337
33159SOL    HW2 6593   1.296   9.773   2.320  1.7407 -0.1046 -1.3874
33160SOL     OW 6594  12.842   1.114  10.174  0.6525  0.5318  0.2435
33160SOL    HW1 6595  12.906   1.050  10.145 -0.0319  0.2769 -0.7731
33160SOL    HW2 6596  12.821   1.165  10.095 -0.6866  0.3230  0.4290
33161SOL     OW 6597   1.747   4.574   0.914 -0.1053 -0.1887  0.6370
33161SOL    HW1 6598   1.841   4.580   0.898 -0.4501 -0.5520 -1.9573
33161SOL    HW2 6599   1.740   4.546   1.005  2.4446 -3.8521 -0.0676
33162SOL     OW 6600   1.224   9.745   5.269  0.4519  0.2336  0.3537
33162SOL    HW1 6601   1.258   9.670   5.319  0.6746  0.3944  0.4444
33162SOL    HW2 6602   1.212   9.710   5.180 -2.6452 -0.8769  1.0968
33163SOL     OW 6603   7.947   5.251  11.404 -0.2563  0.3226  0.0570
33163SOL    HW1 6604   7.995   5.207  11.475  0.3799 -0.1725 -0.6731
33163SOL    HW2 6605   7.996   5.332  11.389 -0.0597  0.1564 -0.2026
33164SOL     OW 6606   8.405   4.951   8.956  0.2872  0.7173 -0.0315
33164SOL    HW1 6607   8.368   4.926   9.041  1.3375 -0.2614  0.1661
33164SOL    HW2 6608   8.334   4.997   8.912 -1.4466 -1.7209  0.0240
33165SOL     OW 6609  11.885  10.119   6.373  0.3195 -0.0593 -0.0598
33165SOL    HW1 6610  11.816  10.094   6.435 -0.1324 -1.2317 -1.0007
33165SOL    HW2 6611  11.838  10.167   6.304  0.3180 -1.3261 -0.9789
33166SOL     OW 6612   2.052   1.657   3.834 -0.3258 -0.6657 -0.0041
33166SOL    HW1 6613   2.043   1.706   3.753 -0.2250 -2.5683 -1.2421
33166SOL    HW2 6614   2.134   1.689   3.872 -1.1103  1.2904  0.1528
33167SOL     OW 6615   9.699   7.713   8.398  0.1372 -0.2241 -0.7200
33167SOL    HW1 6616   9.735   7.799   8.420 -1.3202 -0.4357  3.6681
33167SOL    HW2 6617   9.766   7.651   8.428 -0.6063 -0.5464  0.3570
33168SOL     OW 6618   8.802   6.296   2.141 -0.1088 -0.0314  0.0645
33168SOL    HW1 6619   8.758   6.270   2.222  0.7549  1.3361  0.9983
33168SOL    HW2 6620   8.882   6.340   2.169  0.4271  0.1011 -1.5470
33169SOL     OW 6621   2.855   6.064   1.060 -0.0633  0.7650 -0.3269
33169SOL    HW1 6622   2.796   6.102   0.995  0.7306  0.1581 -1.4305
33169SOL    HW2 6623   2.939   6.055   1.015  1.2783  2.7967  1.5868
33170SOL     OW 6624  12.700  12.722   7.862 -0.7044 -0.2137  0.2008
33170SOL    HW1 6625  12.640  12.685   7.797 -1.0123 -1.1693  1.0034
33170SOL    HW2 6626  12.688  12.816   7.856  0.1319 -0.1848 -1.9585
33171SOL     OW 6627   6.765   1.161   6.083  0.4024  0.6287 -0.1555
33171SOL    HW1 6628   6.794   1.070   6.080 -2.3769 -0.3685  0.4841
33171SOL    HW2 6629   6.764   1.183   6.176  1.4455  1.5192 -0.3225
33172SOL     OW 6630   0.426  12.094   5.023 -0.0619 -0.3654 -0.1629
33172SOL    HW1 6631   0.399  12.004   5.039 -1.0591 -0.0351  0.0954
33172SOL    HW2 6632   0.352  12.133   4.976 -0.4988  0.8475  1.4514
33173SOL     OW 6633   4.858   0.900   8.408  0.0112  0.0274  0.2819
33173SOL    HW1 6634   4.764   0.885   8.399 -0.0197  0.5744 -0.3766
33173SOL    HW2 6635   4.897   0.813   8.397 -0.2744  0.1016 -1.8673
33174SOL     OW 6636   9.698  11.589   5.076 -0.0086 -0.0477 -0.2556
33174SOL    HW1 6637   9.707  11.500   5.111 -0.9789 -0.3635 -0.7549
33174SOL    HW2 6638   9.779  11.605   5.029 -0.1201 -0.9807 -0.8010
33175SOL     OW 6639   8.631   9.750   3.008  0.1390  0.0417 -0.8063
33175SOL    HW1 6640   8.646   9.844   3.001 -0.8503  0.3675  0.8542
33175SOL    HW2 6641   8.606   9.722   2.920 -0.0454  1.4245 -1.2111
33176SOL     OW 6642   9.951   7.742   1.314 -0.0413  0.3599  0.5122
33176SOL    HW1 6643   9.938   7.799   1.390 -1.9938  1.3063 -0.4728
33176SOL    HW2 6644   9.877   7.682   1.316 -0.6558  1.0081 -1.1279
33177SOL     OW 6645   3.339   1.268  12.535 -0.3678 -0.2005  0.6691
33177SOL    HW1 6646   3.409   1.235  12.480 -0.6606 -2.1727  1.4063
33177SOL    HW2 6647   3.341   1.363  12.522  1.3612 -0.3603 -0.5540
33178SOL     OW 6648  12.869   2.425   0.987 -0.3233 -0.0507  0.7473
33178SOL    HW1 6649  12.841   2.349   0.936  0.0767  0.4583 -0.2628
33178SOL    HW2 6650  12.830   2.412   1.074 -1.1539 -0.8532  0.2675
33179SOL     OW 6651  12.757   4.567  12.030  0.4366 -0.2933 -0.4096
33179SOL    HW1 6652  12.782   4.642  11.976 -0.6937  0.2372 -0.2301
33179SOL    HW2 6653  12.761   4.600  12.120 -0.2525 -0.3870 -0.3406
33180SOL     OW 6654   5.594   6.017   4.015 -0.1828  0.3954  0.0908
33180SOL    HW1 6655   5.569   5.960   3.942  1.8173 -0.8602  0.3149
33180SOL    HW2 6656   5.689   6.018   4.013 -0.0600  0.3267  2.6905
33181SOL     OW 6657   5.865  12.210  11.177  0.5816 -0.6425  0.7080
33181SOL    HW1 6658   5.833  12.241  11.092  1.2556  0.7992  0.9548
33181SOL    HW2 6659   5.799  12.241  11.239  1.4184  0.6539  0.9914
33182SOL     OW 6660   9.929  12.678   9.877 -0.4097 -0.0691 -0.3993
33182SOL    HW1 6661   9.848  12.712   9.837 -0.8611 -1.5623 -0.8224
33182SOL    HW2 6662   9.915  12.689   9.972 -0.3799  1.2097 -0.5226
33183SOL     OW 6663   4.436   1.504  11.635  0.1480  0.2532 -0.2484
33183SOL    HW1 6664   4.486   1.553  11.569  3.4604 -0.7878  1.2632
33183SOL    HW2 6665   4.421   1.418  11.595 -0.2184  0.4763 -0.6022
33184SOL     OW 6666   2.321   6.860   7.480 -0.0064 -0.0997 -0.2334
33184SOL    HW1 6667   2.276   6.813   7.551  0.7604  0.4916  0.6747
33184SOL    HW2 6668   2.258   6.862   7.409 -0.4132 -1.6381  0.0530
33185SOL     OW 6669   5.315   4.199   1.669 -0.4148 -0.0412  0.4323
33185SOL    HW1 6670   5.313   4.291   1.697 -3.1291 -0.0393  0.5123
33185SOL    HW2 6671   5.360   4.201   1.584 -0.2600  1.3447  0.5195
33186SOL     OW 6672   6.473  11.454   9.906  0.0717  0.2419 -0.0262
33186SOL    HW1 6673   6.437  11.399   9.975  1.0908  0.4229  0.6682
33186SOL    HW2 6674   6.467  11.543   9.940 -2.3738  0.7585 -1.4860
33187SOL     OW 6675   9.255   5.796   6.355  0.4764 -0.3417  0.0035
33187SOL    HW1 6676   9.312   5.850   6.299 -0.6750 -0.2496 -1.1322
33187SOL    HW2 6677   9.313   5.762   6.423  2.2506 -1.5130 -1.9770
33188SOL     OW 6678   9.007   5.902   7.288 -0.3142 -0.2722 -0.1086
33188SOL    HW1 6679   9.074   5.970   7.287  0.5057 -0.8675  3.0712
33188SOL    HW2 6680   9.054   5.821   7.266 -0.0761 -0.5737  1.3908
33189SOL     OW 6681   8.241   5.790  11.527  0.3221 -0.5783 -1.1603
33189SOL    HW1 6682   8.178   5.845  11.481  0.2221  0.0990 -0.2372
33189SOL    HW2 6683   8.189   5.746  11.595  1.0471  1.0456  0.5192
33190SOL     OW 6684   4.676   4.881   2.308 -0.2879  0.1323 -0.2253
33190SOL    HW1 6685   4.770   4.898   2.296 -0.3643 -0.5872 -2.4053
33190SOL    HW2 6686   4.640   4.888   2.219 -2.4595  1.2171  0.6833
33191SOL     OW 6687   6.080  12.469   7.788  0.4639 -0.7323 -0.6106
33191SOL    HW1 6688   6.129  12.406   7.841 -0.1936 -0.1696  0.6931
33191SOL    HW2 6689   5.990  12.461   7.818 -0.1003 -0.9957 -2.2487
33192SOL     OW 6690  12.727   7.126   2.591 -0.5536  0.6283  0.1836
33192SOL    HW1 6691  12.802   7.178   2.563 -1.6098  1.6075 -0.9491
33192SOL    HW2 6692  12.765   7.057   2.646  1.2130  0.8346 -0.6962
33193SOL     OW 6693   6.417   1.079   2.808  0.4640 -0.2652  0.3668
33193SOL    HW1 6694   6.451   1.126   2.884 -1.7427  0.1758  1.1670
33193SOL    HW2 6695   6.482   1.093   2.739  0.9780  2.0697  1.2491
33194SOL     OW 6696   3.845  10.171   7.357  0.1337 -0.2517  0.3839
33194SOL    HW1 6697   3.834  10.103   7.290  0.7262 -1.4023  1.4214
33194SOL    HW2 6698   3.837  10.253   7.308  0.4316 -1.0506 -1.0870
33195SOL     OW 6699  10.001   4.574   7.037 -0.6232  0.1988  0.2861
33195SOL    HW1 6700  10.086   4.561   7.077  0.0167 -2.1868 -1.6366
33195SOL    HW2 6701  10.020   4.617   6.953 -1.2382 -0.7875 -0.3767
33196SOL     OW 6702   7.639  10.055   7.793 -0.4099 -0.1740  0.2287
33196SOL    HW1 6703   7.570  10.113   7.824  0.1134  1.7426 -1.9506
33196SOL    HW2 6704   7.710  10.066   7.856  0.1694  2.6466 -0.8048
33197SOL     OW 6705   4.620   8.329   8.917 -0.7024 -0.6294 -0.3563
33197SOL    HW1 6706   4.574   8.295   8.994 -0.1085 -0.4347  0.0985
33197SOL    HW2 6707   4.571   8.407   8.892 -0.6241 -0.4189  0.1317
33198SOL     OW 6708   8.025   3.423   8.333  0.1883  0.2048  0.4766
33198SOL    HW1 6709   8.001   3.401   8.243 -2.3363 -1.0015  1.3276
33198SOL    HW2 6710   7.977   3.359   8.386  0.6703  1.6052  2.7295
33199SOL     OW 6711   6.727  12.937   7.636 -0.4146 -0.0537  0.4890
33199SOL    HW1 6712   6.817  12.967   7.627 -0.0631 -0.9119  1.0695
33199SOL    HW2 6713   6.705  12.899   7.552 -0.2854  0.2890  0.2988
33200SOL     OW 6714   0.632  11.395   6.651  0.0168  0.4365  0.0446
33200SOL    HW1 6715   0.556  11.454   6.648  0.7575  1.4466  0.7676
33200SOL    HW2 6716   0.652  11.386   6.744 -0.6606 -1.7759  0.0548
33201SOL     OW 6717   9.971  11.524   1.462 -0.2859  0.6054  0.2196
33201SOL    HW1 6718   9.949  11.609   1.424 -1.0345  1.3073  2.1393
33201SOL    HW2 6719  10.004  11.544   1.549 -1.2729 -1.1114  1.0390
33202SOL     OW 6720   3.877  10.340   0.391  0.1530 -0.1118 -0.0118
33202SOL    HW1 6721   3.786  10.350   0.360 -0.2010 -2.9539 -0.1520
33202SOL    HW2 6722   3.926  10.315   0.312  0.4980 -1.2462  0.5457
33203SOL     OW 6723   1.767   4.479   1.474 -0.3708  0.2042 -0.4142
33203SOL    HW1 6724   1.810   4.564   1.486 -0.8317  0.1643  2.2025
33203SOL    HW2 6725   1.673   4.500   1.472 -0.5424 -0.2512  1.2048
33204SOL     OW 6726   2.060  10.082  12.837  0.2436  0.0744  0.4767
33204SOL    HW1 6727   1.986  10.064  12.895  0.0876  1.4405  0.7332
33204SOL    HW2 6728   2.133  10.102  12.895  0.8288 -1.2027  0.2239
33205SOL     OW 6729  10.351  11.757   1.111 -0.1486 -0.1086 -0.4423
33205SOL    HW1 6730  10.420  11.722   1.055  1.1062 -1.4524  1.7971
33205SOL    HW2 6731  10.291  11.683   1.124 -0.2163  0.0692  0.2814
33206SOL     OW 6732   1.593   9.840   0.041  0.3404 -0.2451  0.2458
33206SOL    HW1 6733   1.681   9.804   0.048 -0.1009 -1.4847 -0.3189
33206SOL    HW2 6734   1.536   9.767   0.063 -0.6451 -0.2757 -2.1731
33207SOL     OW 6735   9.027  10.734   2.109 -0.6100  0.5498  0.8807
33207SOL    HW1 6736   9.037  10.742   2.015 -1.0087 -0.6963  0.7180
33207SOL    HW2 6737   8.981  10.814   2.135  1.3573  1.9118  0.3504
33208SOL     OW 6738  11.197   6.229  11.097  0.5288 -0.3414  0.0035
33208SOL    HW1 6739  11.200   6.140  11.062  0.8933  0.1427 -1.2597
33208SOL    HW2 6740  11.250   6.281  11.036 -0.6902  0.9863  0.0264
33209SOL     OW 6741   8.752   6.884  11.941  1.0303 -0.0125 -0.7533
33209SOL    HW1 6742   8.796   6.931  12.011  0.0048  1.6136 -1.1399
33209SOL    HW2 6743   8.666   6.861  11.977  1.3813 -1.3087 -0.6971
33210SOL     OW 6744   9.101   1.870   5.945  0.1680 -0.0332  0.1354
33210SOL    HW1 6745   9.079   1.956   5.908  0.0502  0.3312  1.0284
33210SOL    HW2 6746   9.177   1.887   6.001  1.1833 -0.8291 -0.9598
33211SOL     OW 6747  10.673   7.552   9.121  0.3999 -0.0718 -0.3678
33211SOL    HW1 6748  10.765   7.527   9.127  0.4743  0.0904 -0.8375
33211SOL    HW2 6749  10.661   7.580   9.031  0.0158  0.4015 -0.1754
33212SOL     OW 6750  10.220   4.891   1.032  0.1402  0.7016 -0.2365
33212SOL    HW1 6751  10.181   4.873   1.118  0.3327  1.3608 -0.0025
33212SOL    HW2 6752  10.309   4.855   1.039  0.1429  0.7194 -0.1687
33213SOL     OW 6753   4.390   4.532   6.309  0.1163 -0.0183 -0.0557
33213SOL    HW1 6754   4.474   4.506   6.348  0.5200  0.5797 -0.4996
33213SOL    HW2 6755   4.409   4.617   6.267 -0.2596 -0.6837 -1.6398
33214SOL     OW 6756   8.551   3.124   7.006 -0.1032 -0.4758 -0.8282
33214SOL    HW1 6757   8.609   3.120   6.930 -0.4802  0.2004 -1.1676
33214SOL    HW2 6758   8.586   3.060   7.067  2.4534  1.5841  0.0237
33215SOL     OW 6759   8.633   5.789   6.682  0.7971  0.4508  0.3020
33215SOL    HW1 6760   8.687   5.713   6.666 -0.0751 -0.3427  1.0161
33215SOL    HW2 6761   8.553   5.773   6.633  0.0539  0.2460  1.5306
33216SOL     OW 6762   9.808   4.330   2.158 -0.1974  0.2137  0.4457
33216SOL    HW1 6763   9.786   4.313   2.066 -0.1973  1.4961  0.1949
33216SOL    HW2 6764   9.727   4.312   2.205  0.3555 -2.5444  0.5111
33217SOL     OW 6765   9.884   0.042  11.827  0.1140 -0.0609  0.6796
33217SOL    HW1 6766   9.815   0.107  11.833  0.1847  0.1598 -0.6973
33217SOL    HW2 6767   9.841  -0.037  11.794  0.3346 -0.2270  0.7806
33218SOL     OW 6768   6.798  10.735   0.448 -0.4099 -0.4821 -0.2482
33218SOL    HW1 6769   6.819  10.724   0.540 -2.2089 -1.4020  0.0982
33218SOL    HW2 6770   6.861  10.678   0.402  0.5126  0.0105  0.3838
33219SOL     OW 6771  11.458   4.015   2.518 -0.0515  0.0026  0.2637
33219SOL    HW1 6772  11.402   4.044   2.446  0.1577 -0.8174 -0.2364
33219SOL    HW2 6773  11.438   4.076   2.589  0.2854  1.2754 -0.7064
33220SOL     OW 6774   0.252   2.628   2.639  0.2815  0.4688  0.3073
33220SOL    HW1 6775   0.290   2.709   2.606 -0.5678  0.2688 -1.2618
33220SOL    HW2 6776   0.173   2.656   2.687  0.1583  0.5964  0.0328
33221SOL     OW 6777   0.309  10.273   7.667 -0.5976 -0.1414 -0.7940
33221SOL    HW1 6778   0.285  10.180   7.663  0.9179 -0.6588  0.9254
33221SOL    HW2 6779   0.397  10.274   7.703 -0.7898  2.0044 -0.2328
33222SOL     OW 6780  11.456   3.762   3.866 -0.0178  0.3716  0.1150
33222SOL    HW1 6781  11.394   3.750   3.938  0.2201  1.2775  0.4879
33222SOL    HW2 6782  11.447   3.854   3.842  2.1961  0.9444  1.1650
33223SOL     OW 6783  11.254   0.933  11.883 -0.5539 -0.2299  0.0817
33223SOL    HW1 6784  11.165   0.899  11.889  0.7339 -3.7582  1.8671
33223SOL    HW2 6785  11.263   0.989  11.961 -1.7442  1.9446 -1.2399
33224SOL     OW 6786   9.615   6.934   1.212 -0.1711  0.2492 -0.4873
33224SOL    HW1 6787   9.663   6.926   1.130 -1.6532 -0.9453 -1.2908
33224SOL    HW2 6788   9.561   7.013   1.201  1.6206  1.6847  0.4789
33225SOL     OW 6789   2.667   7.295   8.938  0.1768  0.1221 -0.1611
33225SOL    HW1 6790   2.744   7.331   8.894  0.2354 -0.2781 -0.3945
33225SOL    HW2 6791   2.700   7.259   9.020 -0.0222  1.3711  0.4855
33226SOL     OW 6792  11.715   2.099  11.829  0.4316  0.2917 -0.1390
33226SOL    HW1 6793  11.793   2.058  11.791  0.4162  0.6003 -0.5084
33226SOL    HW2 6794  11.642   2.056  11.786  0.4142  0.6473 -0.4647
33227SOL     OW 6795   2.898   2.663  12.772 -0.5378  0.5490  0.3379
33227SOL    HW1 6796   2.940   2.660  12.857 -0.7331  0.9647  0.4487
33227SOL    HW2 6797   2.809   2.631  12.788 -0.1084 -0.8808  0.0006
33228SOL     OW 6798   3.340   0.234   0.260 -0.6932 -0.3941  0.3306
33228SOL    HW1 6799   3.382   0.186   0.332  0.5916  0.0550 -0.0899
33228SOL    HW2 6800   3.324   0.321   0.295  0.2374 -0.0718  0.0049
33229SOL     OW 6801   2.419   1.592   2.444  0.3323  0.6393 -0.1706
33229SOL    HW1 6802   2.332   1.633   2.450 -0.1623 -0.3302 -0.3733
33229SOL    HW2 6803   2.403   1.509   2.398  1.1528 -0.1364  0.8871
33230SOL     OW 6804   4.732   4.665   7.587 -0.5801  0.4716  0.1597
33230SOL    HW1 6805   4.796   4.719   7.635 -0.7102  0.9150 -0.1626
33230SOL    HW2 6806   4.720   4.587   7.642  0.4767  0.2321  0.0777
33231SOL     OW 6807   6.855   7.345   0.295  0.0406  0.2085 -0.0291
33231SOL    HW1 6808   6.767   7.374   0.322  0.0802  0.8342 -0.5344
33231SOL    HW2 6809   6.839   7.279   0.228 -0.0526  0.9318 -0.7336
33232SOL     OW 6810   6.690   7.855   8.959 -0.2154  0.3283  0.0370
33232SOL    HW1 6811   6.632   7.922   8.994  0.2984 -0.0167  1.5980
33232SOL    HW2 6812   6.711   7.798   9.033 -0.1104 -1.1974 -1.0911
33233SOL     OW 6813   9.318   9.338   5.276  0.0040 -0.3920 -0.0177
33233SOL    HW1 6814   9.404   9.379   5.265  0.8084 -2.0004 -0.0486
33233SOL    HW2 6815   9.319   9.306   5.366 -0.8734  0.2149  0.2187
33234SOL     OW 6816   0.290  12.171   3.481 -0.2017  0.5951 -0.2687
33234SOL    HW1 6817   0.276  12.228   3.406 -0.5115  1.6876  0.5904
33234SOL    HW2 6818   0.348  12.102   3.449 -0.3335  1.0412 -1.4989
33235SOL     OW 6819   8.412   7.093  10.697  0.0377 -0.0543  0.3129
33235SOL    HW1 6820   8.413   7.152  10.772 -1.8525 -0.3386  0.5886
33235SOL    HW2 6821   8.473   7.134  10.634  0.0543  1.2783  1.1591
33236SOL     OW 6822   3.898   5.142   2.600 -0.2689 -0.0572  0.2792
33236SOL    HW1 6823   3.943   5.223   2.578  0.2913 -0.2435  0.7213
33236SOL    HW2 6824   3.810   5.169   2.626  0.4084  0.5856  2.0336
33237SOL     OW 6825   7.811  10.017  10.463 -0.9730 -0.2472  0.4709
33237SOL    HW1 6826   7.723   9.980  10.471 -2.4039  2.5217 -0.9100
33237SOL    HW2 6827   7.816  10.046  10.372  1.4677 -0.4491  0.4886
33238SOL     OW 6828  10.394   1.915   7.393  0.5128  0.5528 -0.2934
33238SOL    HW1 6829  10.464   1.881   7.449 -0.4186  0.1970  0.7123
33238SOL    HW2 6830  10.363   1.993   7.439  0.6013  1.0085 -1.0054
33239SOL     OW 6831  12.696   4.766  11.523 -0.3227 -0.2994  0.4216
33239SOL    HW1 6832  12.678   4.697  11.458 -1.8712 -1.3563  1.8998
33239SOL    HW2 6833  12.630   4.833  11.505  1.1899  0.8795 -1.0228
33240SOL     OW 6834   7.443   0.098   7.239  0.6252  0.2613  0.5306
33240SOL    HW1 6835   7.515   0.038   7.259  2.9669  2.4698 -0.6488
33240SOL    HW2 6836   7.466   0.179   7.285 -0.9304  1.1381 -0.1780
33241SOL     OW 6837   1.514   8.193   0.586  0.1854 -0.6557  0.2296
33241SOL    HW1 6838   1.418   8.193   0.588  0.1905  0.0829  1.1158
33241SOL    HW2 6839   1.538   8.113   0.633 -0.0020  0.0302  1.5349
33242SOL     OW 6840   7.951   0.726   6.656  0.5360 -0.5221 -0.5732
33242SOL    HW1 6841   7.983   0.636   6.664 -0.6894 -0.8805  0.5172
33242SOL    HW2 6842   7.881   0.721   6.591  1.1755 -0.1363 -1.3163
33243SOL     OW 6843  10.845   4.435  12.095 -0.0471 -0.1997 -0.5070
33243SOL    HW1 6844  10.838   4.464  12.186 -2.8658 -1.1621 -0.3275
33243SOL    HW2 6845  10.867   4.515  12.046  1.8809  0.2654  1.0043
33244SOL     OW 6846   9.931  10.182   6.637  0.3324 -0.2528 -0.2556
33244SOL    HW1 6847   9.846  10.142   6.655  0.0657  0.4653  0.0835
33244SOL    HW2 6848   9.939  10.253   6.700  0.7212  0.3494 -0.9628
33245SOL     OW 6849   2.843   9.775  11.539  0.5416  0.5876  0.5963
33245SOL    HW1 6850   2.824   9.867  11.523  0.5230  0.2407 -1.7628
33245SOL    HW2 6851   2.761   9.730  11.518  1.2237 -0.1298 -0.6658
33246SOL     OW 6852   6.271   7.199   0.512 -0.1221 -0.5312 -0.2437
33246SOL    HW1 6853   6.211   7.245   0.454  0.7146 -0.2969 -0.9578
33246SOL    HW2 6854   6.297   7.121   0.462  2.2256  0.7115 -1.1589
33247SOL     OW 6855   8.346   5.127   2.436  0.0094 -0.2911 -0.2674
33247SOL    HW1 6856   8.397   5.201   2.404 -1.0002  0.6353  0.1990
33247SOL    HW2 6857   8.394   5.097   2.513  1.0479 -0.8833 -1.1232
33248SOL     OW 6858   2.865   8.593   2.061 -0.0044 -0.1694 -0.4788
33248SOL    HW1 6859   2.949   8.604   2.016  0.4819 -0.4715  0.3202
33248SOL    HW2 6860   2.816   8.673   2.041  1.3870  1.1185  0.9091
33249SOL     OW 6861   2.354   3.966  12.555 -0.4043 -0.1433 -0.4412
33249SOL    HW1 6862   2.342   4.029  12.483 -0.8605  1.8468  1.2648
33249SOL    HW2 6863   2.395   4.017  12.624  1.0408 -2.2782  0.3778
33250SOL     OW 6864   8.748   1.620   3.137  0.5191  0.3784 -0.3221
33250SOL    HW1 6865   8.711   1.544   3.183  0.8695  0.4641  0.0977
33250SOL    HW2 6866   8.704   1.695   3.176  1.1178  0.4792  0.1592
33251SOL     OW 6867   4.676   4.876   8.679 -0.1640 -0.5106  0.1279
33251SOL    HW1 6868   4.704   4.902   8.767 -0.1175  0.9916 -0.3023
33251SOL    HW2 6869   4.755   4.842   8.637  0.4860  1.3615 -0.2363
33252SOL     OW 6870   5.588   3.409   7.060  0.4587 -0.0834 -0.8918
33252SOL    HW1 6871   5.600   3.418   7.155 -1.6041  0.5400 -0.6501
33252SOL    HW2 6872   5.558   3.495   7.031 -1.7669 -1.0296 -1.6022
33253SOL     OW 6873   4.379  11.585   5.953  0.0010  0.5826  0.3232
33253SOL    HW1 6874   4.368  11.660   5.895 -0.1944  0.4324  0.1656
33253SOL    HW2 6875   4.307  11.526   5.930  0.9884 -0.3091 -0.5565
33254SOL     OW 6876  12.097   9.470   6.803 -0.1955  0.3588 -0.1262
33254SOL    HW1 6877  12.016   9.470   6.854  0.7827  2.2820  1.5757
33254SOL    HW2 6878  12.165   9.442   6.865  0.8468  1.5823 -0.6461
33255SOL     OW 6879   8.568   5.887   5.865  0.3542 -0.3141  0.4632
33255SOL    HW1 6880   8.611   5.955   5.916 -0.7265  0.0534  0.9277
33255SOL    HW2 6881   8.572   5.809   5.921  1.2498 -0.5336  0.0966
33256SOL     OW 6882  10.025   2.251   0.034 -0.3844  0.4811  0.4685
33256SOL    HW1 6883  10.071   2.180   0.079 -2.6728 -0.4402  1.5368
33256SOL    HW2 6884  10.050   2.241  -0.058 -1.1766 -2.2235  0.4585
33257SOL     OW 6885   5.194   2.492   5.563  0.2542 -0.8862 -0.3591
33257SOL    HW1 6886   5.118   2.537   5.525  1.5559  0.1650 -1.8776
33257SOL    HW2 6887   5.169   2.400   5.564 -1.4019 -0.4675  0.1166
33258SOL     OW 6888  12.809   0.969   5.971  0.0011  0.0924  0.0013
33258SOL    HW1 6889  12.838   1.034   5.906 -1.3321 -0.5958 -1.3488
33258SOL    HW2 6890  12.844   0.886   5.938  0.7992 -0.0428  1.1447
33259SOL     OW 6891   7.465   8.208   5.802  0.6073  0.3640 -0.0516
33259SOL    HW1 6892   7.516   8.288   5.802  1.3417 -0.0552 -1.6948
33259SOL    HW2 6893   7.527   8.140   5.828  0.4803  0.0858 -0.4599
33260SOL     OW 6894  12.242   8.024   1.969 -0.5393 -0.4746  0.3128
33260SOL    HW1 6895  12.186   8.042   2.044 -2.0107  0.6013 -0.9804
33260SOL    HW2 6896  12.295   8.103   1.957  0.4529 -1.0355  0.8035
33261SOL     OW 6897   3.520  10.048   4.545  0.5558 -0.2985 -0.4551
33261SOL    HW1 6898   3.498  10.102   4.621  0.6124 -0.2495 -0.4733
33261SOL    HW2 6899   3.615  10.055   4.538  0.6435 -0.9793 -0.0168
33262SOL     OW 6900   8.607   5.700  11.697 -0.3598  0.2478 -0.0146
33262SOL    HW1 6901   8.531   5.684  11.753 -1.5373 -1.0754 -1.8653
33262SOL    HW2 6902   8.570   5.720  11.612  1.2519 -3.3032 -1.7464
33263SOL     OW 6903   4.115   3.417   5.553 -0.1815 -0.5094  0.4716
33263SOL    HW1 6904   4.088   3.406   5.462 -0.9933  0.6840  0.5513
33263SOL    HW2 6905   4.106   3.329   5.591 -0.3904 -0.8969 -0.4437
33264SOL     OW 6906   6.698  10.021   1.836  0.2632  0.0513 -0.0741
33264SOL    HW1 6907   6.646   9.996   1.760 -0.2370  0.6238  0.0735
33264SOL    HW2 6908   6.690  10.116   1.841 -1.4212 -0.1175  1.8810
33265SOL     OW 6909   4.909   1.487   3.097  0.3047  0.5248  0.0464
33265SOL    HW1 6910   4.876   1.514   3.183  0.6518 -0.7821  0.6261
33265SOL    HW2 6911   4.840   1.510   3.036 -0.1117  1.1365  0.7345
33266SOL     OW 6912   3.637   6.726   0.885  0.6412  0.2635  0.3463
33266SOL    HW1 6913   3.657   6.706   0.976  0.2078 -1.9547  0.0024
33266SOL    HW2 6914   3.722   6.748   0.846  1.0021  0.0637  1.0051
33267SOL     OW 6915  12.890  12.556   2.559  0.4178 -0.1569 -0.2640
33267SOL    HW1 6916  12.803  12.594   2.569  1.0213  0.9013  1.4134
33267SOL    HW2 6917  12.905  12.508   2.640  1.5131 -0.0545 -0.3826
33268SOL     OW 6918   7.392   4.830   2.532 -0.4017 -0.3720 -0.3421
33268SOL    HW1 6919   7.372   4.764   2.466 -1.0673  0.3053 -0.8257
33268SOL    HW2 6920   7.382   4.914   2.487  0.4007  0.0742  0.2740
33269SOL     OW 6921   1.541   3.534   4.787  0.3137 -0.4721  1.0557
33269SOL    HW1 6922   1.533   3.548   4.693  0.5876 -0.2881  1.0581
33269SOL    HW2 6923   1.464   3.576   4.824 -0.6641 -1.9496  0.7913
33270SOL     OW 6924   9.592   2.103   7.718 -0.1934 -0.1631  0.4640
33270SOL    HW1 6925   9.586   2.179   7.776  1.8273  0.2386  0.2157
33270SOL    HW2 6926   9.563   2.136   7.633 -1.5351 -0.3140  0.8349
33271SOL     OW 6927   0.414   7.958  12.102 -0.2116  0.2472 -0.4636
33271SOL    HW1 6928   0.334   7.994  12.141  0.0203  0.4252 -0.1446
33271SOL    HW2 6929   0.388   7.873  12.067 -0.2707 -0.2155  0.6824
33272SOL     OW 6930   7.168   4.131   6.822 -0.2663 -0.6996  0.3316
33272SOL    HW1 6931   7.148   4.044   6.857  0.7654 -1.0601  0.0496
33272SOL    HW2 6932   7.243   4.117   6.764  1.2902  0.6934  1.8759
33273SOL     OW 6933   8.684   9.815   4.765 -0.0678 -0.8365  0.2102
33273SOL    HW1 6934   8.755   9.876   4.783 -1.1267  0.4990 -0.0435
33273SOL    HW2 6935   8.700   9.787   4.674  0.0793 -0.4858  0.1274
33274SOL     OW 6936   2.036   7.515   8.726  0.1341  0.2098  0.1661
33274SOL    HW1 6937   2.016   7.608   8.714  0.8873  0.2510 -0.9412
33274SOL    HW2 6938   1.958   7.478   8.767 -0.4661  1.1864 -0.0738
33275SOL     OW 6939   5.226  12.232  10.731 -0.6507 -0.3256  0.3372
33275SOL    HW1 6940   5.155  12.183  10.688 -1.0937 -0.0755  0.7716
33275SOL    HW2 6941   5.305  12.203  10.686 -1.0620 -0.3619 -0.3841
33276SOL     OW 6942   9.365   3.128   1.052  0.1296 -0.5207 -0.4013
33276SOL    HW1 6943   9.372   3.102   0.960 -1.7606 -1.5868 -0.2870
33276SOL    HW2 6944   9.427   3.072   1.098  0.1131 -0.9305 -0.8655
33277SOL     OW 6945  11.190  12.102   3.709  0.3224  0.6125 -0.3021
33277SOL    HW1 6946  11.260  12.139   3.762  1.4069 -0.6918 -0.7829
33277SOL    HW2 6947  11.200  12.008   3.716 -1.4380  0.3772 -0.3404
33278SOL     OW 6948  12.137   5.940   1.487  0.0247  0.1136 -0.2662
33278SOL    HW1 6949  12.210   5.888   1.522  0.9065  1.0105 -0.7419
33278SOL    HW2 6950  12.072   5.875   1.461  1.0081 -0.7489 -0.6351
33279SOL     OW 6951  11.265   5.128   6.483 -0.1591 -0.2021 -0.1936
33279SOL    HW1 6952  11.288   5.136   6.391 -0.1823 -0.0779 -0.1886
33279SOL    HW2 6953  11.298   5.208   6.524 -2.4202  1.0002 -0.5655
33280SOL     OW 6954   5.848  11.738   4.703  0.0529  0.2237 -0.5171
33280SOL    HW1 6955   5.821  11.731   4.611 -2.8212 -4.5535  0.3902
33280SOL    HW2 6956   5.931  11.691   4.707 -0.4709 -0.7170 -0.5078
33281SOL     OW 6957   0.166  11.516   7.442  0.1910  0.3258  0.3031
33281SOL    HW1 6958   0.073  11.494   7.440  0.5114 -1.1091 -0.0788
33281SOL    HW2 6959   0.210  11.431   7.446  1.4935  0.9813  0.2707
33282SOL     OW 6960   7.687  10.394   6.546  0.1727 -0.3534 -0.5757
33282SOL    HW1 6961   7.706  10.477   6.504 -0.1749 -0.6008 -1.2399
33282SOL    HW2 6962   7.737  10.396   6.628 -0.0902  0.6389 -0.4289
33283SOL     OW 6963  11.195   3.255   3.922  0.0919  0.7726 -0.2248
33283SOL    HW1 6964  11.220   3.283   4.010 -1.0723 -0.7745  0.6285
33283SOL    HW2 6965  11.116   3.203   3.934 -1.0592  1.8877 -2.3802
33284SOL     OW 6966   1.922   0.018   2.826  0.2980 -0.2081  0.1456
33284SOL    HW1 6967   1.994   0.046   2.883 -0.9532 -2.5274  3.1366
33284SOL    HW2 6968   1.959  -0.052   2.773  0.7618  0.0223  0.1607
33285SOL     OW 6969   2.324   6.998  11.977 -0.5449 -0.1636  0.3699
33285SOL    HW1 6970   2.303   7.090  11.990  0.9070  0.3028 -0.4297
33285SOL    HW2 6971   2.252   6.951  12.020 -0.9480  1.3179  1.3907
33286SOL     OW 6972   5.387   2.484   0.373 -0.1883 -0.1065 -0.5775
33286SOL    HW1 6973   5.405   2.507   0.464 -2.7777 -2.3070  0.6309
33286SOL    HW2 6974   5.440   2.406   0.357 -0.0758  0.0202 -0.8300
33287SOL     OW 6975   0.051   4.316   4.214 -0.1147 -0.4161 -0.0005
33287SOL    HW1 6976   0.025   4.229   4.243  1.3723 -0.4866  1.2859
33287SOL    HW2 6977   0.112   4.300   4.141 -0.5529 -0.4105 -0.3697
33288SOL     OW 6978   4.293   7.128   1.186  0.0525 -0.6607 -0.0979
33288SOL    HW1 6979   4.349   7.148   1.260  1.1934 -0.8548 -0.8784
33288SOL    HW2 6980   4.282   7.033   1.189 -1.3639 -0.4885  0.8217
33289SOL     OW 6981   3.578   8.251   5.629  0.3366 -0.2942  0.1050
33289SOL    HW1 6982   3.630   8.331   5.626  1.3177 -0.9345 -0.9448
33289SOL    HW2 6983   3.489   8.279   5.608  1.1286  0.2333 -3.1651
33290SOL     OW 6984   0.815  11.691   6.466 -0.6940  0.2876  0.5427
33290SOL    HW1 6985   0.829  11.747   6.389  0.9190  0.4721  0.9523
33290SOL    HW2 6986   0.788  11.752   6.535 -2.1877  0.1161  0.1425
33291SOL     OW 6987   5.429   7.663   3.359  0.3569  0.0332 -0.2316
33291SOL    HW1 6988   5.340   7.697   3.354  0.1309 -0.2573  1.4970
33291SOL    HW2 6989   5.468   7.686   3.274 -1.4834 -0.2374 -1.2022
33292SOL     OW 6990  12.218   6.685   7.783 -0.2261  0.1389 -0.2341
33292SOL    HW1 6991  12.144   6.674   7.842 -0.5851  0.4715 -0.6170
33292SOL    HW2 6992  12.181   6.727   7.705  0.6162  1.6105  0.1295
33293SOL     OW 6993  12.130  10.122   8.313  0.3103  0.1695  0.2914
33293SOL    HW1 6994  12.132  10.106   8.407  1.4154 -0.0122  0.2508
33293SOL    HW2 6995  12.132  10.035   8.274  2.3347  0.2382  0.1052
33294SOL     OW 6996   8.909   2.596   1.055  0.3680  0.1717 -0.6057
33294SOL    HW1 6997   8.825   2.641   1.054  0.3354  0.1401  0.1227
33294SOL    HW2 6998   8.975   2.665   1.060  0.4486  0.2451 -2.1183
33295SOL     OW 6999   4.335  10.422   0.405  0.5050  0.7293 -0.0741
33295SOL    HW1 7000   4.302  10.357   0.466 -0.2212  0.5146 -0.6873
33295SOL    HW2 7001   4.422  10.389   0.379  0.3654  0.2829  0.0212
33296SOL     OW 7002   6.201   2.540  10.228 -0.1726  0.0019 -0.2930
33296SOL    HW1 7003   6.120   2.581  10.198  0.4674  0.6927 -1.1491
33296SOL    HW2 7004   6.257   2.613  10.255  0.3173 -0.4323 -0.1120
33297SOL     OW 7005  12.275   1.437   1.560  0.2890 -0.0635  0.3724
33297SOL    HW1 7006  12.182   1.424   1.580  0.1195  0.1306 -0.2525
33297SOL    HW2 7007  12.286   1.401   1.472  1.3745 -2.3994  1.3814
33298SOL     OW 7008  10.993  11.500   5.103  0.3154 -0.0137 -0.2813
33298SOL    HW1 7009  10.972  11.464   5.189 -3.3296 -0.0766 -1.0305
33298SOL    HW2 7010  11.033  11.427   5.056 -0.9686 -1.1284  0.2801
33299SOL     OW 7011  10.468   0.478   5.783 -0.3676 -0.5660 -0.0489
33299SOL    HW1 7012  10.512   0.450   5.703  0.2224  2.9238 -1.0890
33299SOL    HW2 7013  10.376   0.460   5.767 -0.2615  0.0985 -1.5542
33300SOL     OW 7014   5.190   8.203  12.378  0.3692 -0.0810  0.4476
33300SOL    HW1 7015   5.218   8.141  12.445  2.6348  1.1278  0.7490
33300SOL    HW2 7016   5.261   8.203  12.314 -0.5942  0.6184 -0.6740
33301SOL     OW 7017   7.171   8.463  11.664  0.0360 -0.1872 -0.2608
33301SOL    HW1 7018   7.202   8.550  11.690  0.8529 -1.2862  2.9306
33301SOL    HW2 7019   7.094   8.480  11.611 -1.2531  2.5449  2.2029
33302SOL     OW 7020   0.016  10.765   3.783  0.2994  0.7051  0.5664
33302SOL    HW1 7021   0.054  10.784   3.869  2.3552  1.2976 -0.4026
33302SOL    HW2 7022   0.085  10.717   3.737 -0.6182  0.7276 -0.8876
33303SOL     OW 7023  10.458   1.773   1.482 -0.6027 -0.1862 -0.6576
33303SOL    HW1 7024  10.540   1.756   1.528 -0.0766 -0.6958 -1.7509
33303SOL    HW2 7025  10.431   1.687   1.447 -1.9220 -0.1493  0.1723
33304SOL     OW 7026   6.102  10.654   6.125  0.1049 -0.5519  0.5521
33304SOL    HW1 7027   6.154  10.727   6.091 -0.7794  0.3158  0.9833
33304SOL    HW2 7028   6.084  10.678   6.216  0.0038 -1.4401  0.7744
33305SOL     OW 7029   3.745   0.936   5.671 -0.4258  0.1648 -0.5606
33305SOL    HW1 7030   3.821   0.929   5.613 -0.5692  1.2521 -0.9077
33305SOL    HW2 7031   3.716   0.846   5.684  1.9037 -0.4503  0.9224
33306SOL     OW 7032   8.016   1.735   3.830 -0.1551  0.3804  0.3866
33306SOL    HW1 7033   7.996   1.823   3.863  1.6570  0.2640  1.9956
33306SOL    HW2 7034   8.103   1.744   3.790  0.9623 -1.0028  2.3269
33307SOL     OW 7035   5.918   5.971   1.371  0.5504 -0.3576  0.5696
33307SOL    HW1 7036   5.907   5.876   1.381  1.4174 -0.4544  0.6965
33307SOL    HW2 7037   5.998   5.991   1.420  0.8911  0.2878 -0.2291
33308SOL     OW 7038   0.559  11.017   1.115  0.0288 -0.1872  0.0707
33308SOL    HW1 7039   0.541  10.932   1.156 -1.7309  1.5896  3.4343
33308SOL    HW2 7040   0.482  11.034   1.060  0.7254 -1.0194 -1.2047
33309SOL     OW 7041   9.815  10.295   9.699  0.2336 -0.6317  0.3088
33309SOL    HW1 7042   9.907  10.314   9.715  0.2183 -1.4913  1.6189
33309SOL    HW2 7043   9.771  10.314   9.782 -0.7483 -0.3692 -0.2514
33310SOL     OW 7044  11.635   0.555   5.872  0.0061 -0.1883 -0.1919
33310SOL    HW1 7045  11.683   0.629   5.835 -0.9381 -0.6871 -2.6274
33310SOL    HW2 7046  11.595   0.512   5.796  0.1229 -2.9256  1.1736
33311SOL     OW 7047   8.978   8.492  10.901 -0.0378 -0.5682 -0.2107
33311SOL    HW1 7048   9.040   8.565  10.902 -0.0924 -0.4839 -1.6875
33311SOL    HW2 7049   8.986   8.454  10.989 -2.0011  2.8429  1.7016
33312SOL     OW 7050   8.090   5.306   5.308 -0.3080  0.1962  1.1107
33312SOL    HW1 7051   8.077   5.396   5.338 -1.8777 -0.1266  1.4858
33312SOL    HW2 7052   8.082   5.253   5.387 -0.7866 -0.3861  0.6771
33313SOL     OW 7053  12.586   3.512   0.644 -0.6303 -0.5965 -0.4347
33313SOL    HW1 7054  12.571   3.496   0.551  1.5995 -0.9479 -0.7770
33313SOL    HW2 7055  12.672   3.554   0.648 -0.1602 -1.6110  1.5330
33314SOL     OW 7056   6.158  10.453  12.006  0.2144  0.3353  0.1832
33314SOL    HW1 7057   6.123  10.539  12.029  0.8832  0.4960  0.6341
33314SOL    HW2 7058   6.253  10.466  12.004  0.2800 -0.1867 -0.6039
33315SOL     OW 7059  11.518   6.796   7.638 -0.5073 -0.1941 -0.5318
33315SOL    HW1 7060  11.579   6.726   7.614 -1.3305 -1.6738  1.4275
33315SOL    HW2 7061  11.571   6.861   7.683  0.2778  0.5604 -2.4295
33316SOL     OW 7062   4.342   3.022  10.917  0.5022  0.3189 -0.2985
33316SOL    HW1 7063   4.381   2.983  10.995 -0.8205 -0.3313  0.0626
33316SOL    HW2 7064   4.364   3.115  10.923  2.9171 -0.1612 -0.7056
33317SOL     OW 7065   5.328   0.672   7.854  0.2398 -0.8839 -0.1516
33317SOL    HW1 7066   5.420   0.676   7.881  0.0728 -0.4789  0.3753
33317SOL    HW2 7067   5.327   0.608   7.782  0.8427 -1.3035  0.2028
33318SOL     OW 7068   6.852   9.600  12.909 -0.8077  0.1244  0.4092
33318SOL    HW1 7069   6.857   9.693  12.931  1.3164  0.5264 -1.4165
33318SOL    HW2 7070   6.793   9.596  12.833  0.7043  0.3220 -0.8230
33319SOL     OW 7071   9.267   6.551   3.004 -0.1306 -0.1214 -0.3913
33319SOL    HW1 7072   9.348   6.503   3.021 -0.4406 -1.7530 -3.0279
33319SOL    HW2 7073   9.295   6.640   2.982  0.8999 -0.5065 -0.6630
33320SOL     OW 7074   4.892   7.935   5.880 -0.0673 -0.1944  0.0889
33320SOL    HW1 7075   4.816   7.976   5.839 -0.6490 -1.0939  0.2434
33320SOL    HW2 7076   4.888   7.961   5.971 -0.9107 -1.2379  0.3707
33321SOL     OW 7077   5.212   6.528   5.582 -0.0386 -0.2420 -0.1308
33321SOL    HW1 7078   5.277   6.461   5.602  0.1940 -0.2714 -0.9423
33321SOL    HW2 7079   5.176   6.502   5.497 -2.5405 -1.3235  1.1730
33322SOL     OW 7080   1.847   1.268   9.590 -0.3648  0.2116 -0.2277
33322SOL    HW1 7081   1.766   1.304   9.626  0.0682 -0.1028  1.0990
33322SOL    HW2 7082   1.916   1.304   9.646  0.2457 -1.0727 -0.1292
33323SOL     OW 7083   9.608  12.623   7.662  0.2874  0.3598  0.3558
33323SOL    HW1 7084   9.564  12.707   7.653  0.0273 -0.0156 -3.2853
33323SOL    HW2 7085   9.559  12.578   7.731 -2.3707  1.5741 -0.6007
33324SOL     OW 7086   2.231  11.877   3.321 -0.2134  0.0795  0.2112
33324SOL    HW1 7087   2.303  11.849   3.376 -0.3893 -0.6498  0.0745
33324SOL    HW2 7088   2.261  11.960   3.283  0.6153 -0.2947  0.0278
33325SOL     OW 7089  12.097  12.363   2.749  0.2831  0.0945  0.1243
33325SOL    HW1 7090  12.007  12.341   2.727  0.6319  0.1691 -1.4730
33325SOL    HW2 7091  12.114  12.315   2.831 -1.0952 -0.1510  0.2878
33326SOL     OW 7092   8.374   5.812  10.641 -0.9265  0.0075 -0.0348
33326SOL    HW1 7093   8.454   5.781  10.597 -0.5992 -0.6901  1.0214
33326SOL    HW2 7094   8.406   5.866  10.713 -1.4062 -0.2739  0.3934
33327SOL     OW 7095   1.695   1.570   9.122 -1.1177  0.6425 -0.3656
33327SOL    HW1 7096   1.786   1.586   9.147 -1.0630 -0.1614 -0.0282
33327SOL    HW2 7097   1.686   1.613   9.037 -0.9351  2.2985  0.3996
33328SOL     OW 7098   0.724   7.897   3.033  0.2903 -0.0744  0.0764
33328SOL    HW1 7099   0.788   7.876   2.965  1.1201 -0.1580  0.8609
33328SOL    HW2 7100   0.764   7.969   3.083 -1.0492  1.1396 -0.5378
33329SOL     OW 7101   6.825   9.288   0.289  0.3684 -0.5213 -0.0881
33329SOL    HW1 7102   6.730   9.293   0.283  0.2763 -0.3805  1.2327
33329SOL    HW2 7103   6.847   9.331   0.371  1.5644 -0.7271 -0.2727
33330SOL     OW 7104   2.564   4.209   8.441 -0.5499  0.0510 -0.2950
33330SOL    HW1 7105   2.519   4.201   8.357 -0.0077  0.8882 -0.6870
33330SOL    HW2 7106   2.586   4.302   8.447  0.8815 -0.2745 -0.0098
33331SOL     OW 7107  10.792   8.931   9.777  0.7122  0.1607 -0.4987
33331SOL    HW1 7108  10.823   8.879   9.703  1.4676 -2.1882  1.3364
33331SOL    HW2 7109  10.709   8.891   9.801  0.7098  0.5860  0.2255
33332SOL     OW 7110   6.734  11.058   5.165  0.3057 -0.5196 -0.2570
33332SOL    HW1 7111   6.779  10.977   5.141  0.3910 -0.5084 -0.1358
33332SOL    HW2 7112   6.665  11.031   5.225 -0.0842 -0.5819 -0.7321
33333SOL     OW 7113   9.349   4.723  12.429  0.1742  0.2370 -0.0767
33333SOL    HW1 7114   9.311   4.713  12.342  1.2241 -0.7114 -0.4636
33333SOL    HW2 7115   9.395   4.807  12.426 -0.1958  0.4352 -0.2706
33334SOL     OW 7116   2.430   7.255   4.919  0.1148  0.0127  0.4180
33334SOL    HW1 7117   2.415   7.346   4.945  2.7598  0.3705  0.9340
33334SOL    HW2 7118   2.524   7.241   4.931  0.3838 -1.8544 -2.7265
33335SOL     OW 7119   2.455   9.753   5.783  0.0653  0.3370 -0.1397
33335SOL    HW1 7120   2.410   9.761   5.699 -1.2031  0.8703  0.5515
33335SOL    HW2 7121   2.533   9.808   5.775  1.2567 -1.4846 -1.7588
33336SOL     OW 7122   0.998   0.439   3.036 -0.6725 -0.2414  0.1543
33336SOL    HW1 7123   0.982   0.499   2.963  0.0392 -0.9205 -0.5868
33336SOL    HW2 7124   0.989   0.493   3.114  2.0239  1.3859 -0.5427
33337SOL     OW 7125   9.485  12.969   4.818  0.2724 -0.3093 -0.0178
33337SOL    HW1 7126   9.578  12.960   4.841  0.2657 -0.2996  0.0120
33337SOL    HW2 7127   9.457  12.881   4.794  0.0002 -0.5273  1.0636
33338SOL     OW 7128  10.454  12.864   1.558 -0.7586 -0.9912 -0.1141
33338SOL    HW1 7129  10.379  12.812   1.529 -0.7743 -2.5440  2.3953
33338SOL    HW2 7130  10.529  12.825   1.512 -1.1213 -1.3704 -0.3964
33339SOL     OW 7131   0.815   2.727  11.338 -0.1617  0.0103  0.3445
33339SOL    HW1 7132   0.760   2.686  11.271  0.5634 -0.0235 -0.2409
33339SOL    HW2 7133   0.876   2.658  11.364  0.5549  0.4660 -0.0797
33340SOL     OW 7134   9.776   4.835  12.216 -0.2298 -0.2302 -0.4591
33340SOL    HW1 7135   9.811   4.924  12.208 -0.3302 -0.1014  0.4213
33340SOL    HW2 7136   9.844   4.779  12.179  0.1236  0.1574 -0.3969
33341SOL     OW 7137   0.345  12.885   3.615  0.1596  0.3889  0.3176
33341SOL    HW1 7138   0.266  12.840   3.585 -0.9592  1.0295  2.2100
33341SOL    HW2 7139   0.323  12.978   3.613  0.7472  0.5587  1.1506
33342SOL     OW 7140   0.005   6.392   0.081 -0.3083  0.0786  0.2912
33342SOL    HW1 7141  -0.052   6.451   0.131 -0.3025 -0.7251  1.2802
33342SOL    HW2 7142   0.011   6.432  -0.006 -0.0523  1.7019  1.0152
33343SOL     OW 7143   3.820   0.140   3.350 -1.0272  0.4593 -0.1971
33343SOL    HW1 7144   3.844   0.143   3.257  2.2306  2.0817  0.5341
33343SOL    HW2 7145   3.758   0.212   3.361 -2.8365 -0.8337 -1.3383
33344SOL     OW 7146  11.482   4.081   9.169 -0.0236  0.0245 -0.0240
33344SOL    HW1 7147  11.565   4.044   9.140  1.0390  2.7481 -0.7396
33344SOL    HW2 7148  11.436   4.103   9.088  0.1056  1.6552  0.3035
33345SOL     OW 7149   9.158   4.265   3.319 -0.3082 -0.4613  0.2209
33345SOL    HW1 7150   9.177   4.289   3.228  1.4452 -0.2454  0.6068
33345SOL    HW2 7151   9.108   4.184   3.313 -0.8375 -0.0736 -0.9438
33346SOL     OW 7152   9.380  10.141   7.472  0.4963  0.3430 -0.1748
33346SOL    HW1 7153   9.333  10.152   7.554 -0.2472  1.5585 -0.7358
33346SOL    HW2 7154   9.413  10.051   7.475  0.4767  0.3695  1.4282
33347SOL     OW 7155   7.134   8.281   0.583  0.5456  0.4588 -0.4803
33347SOL    HW1 7156   7.196   8.350   0.559 -0.9707  1.8190 -0.6615
33347SOL    HW2 7157   7.104   8.305   0.670  0.0424  0.0090 -0.5229
33348SOL     OW 7158  12.567   7.265   0.475 -0.3216  0.2090 -0.3488
33348SOL    HW1 7159  12.541   7.344   0.427  0.3073  1.3667  1.1441
33348SOL    HW2 7160  12.656   7.248   0.446 -0.4587  0.0353 -0.6741
33349SOL     OW 7161  10.896   0.711   3.609  0.1979 -0.3600 -0.7441
33349SOL    HW1 7162  10.964   0.644   3.614 -0.3439 -1.1083 -2.5537
33349SOL    HW2 7163  10.831   0.675   3.548 -1.5875  0.5356  0.5136
33350SOL     OW 7164   1.494   2.012   1.329 -0.4603  0.1284  0.1467
33350SOL    HW1 7165   1.494   2.074   1.403 -1.5639  1.6873 -1.0787
33350SOL    HW2 7166   1.537   2.060   1.258  1.1768 -1.5810 -0.1030
33351SOL     OW 7167   6.437  11.612   6.017 -0.1291  0.0275 -0.0900
33351SOL    HW1 7168   6.459  11.687   5.963 -1.0253 -0.0469 -0.5773
33351SOL    HW2 7169   6.381  11.557   5.962  0.6375 -1.0845  0.1954
33352SOL     OW 7170   5.244   6.752  10.566  0.2127  0.2192 -0.4292
33352SOL    HW1 7171   5.202   6.797  10.493  0.7299  0.0860 -0.8222
33352SOL    HW2 7172   5.227   6.806  10.642 -1.1863 -0.1436 -0.4605
33353SOL     OW 7173   8.835   0.328   4.108  0.0158 -0.0226  0.6444
33353SOL    HW1 7174   8.750   0.303   4.143 -0.4650 -1.9702 -1.6699
33353SOL    HW2 7175   8.896   0.264   4.144  0.1037 -0.0154  0.5098
33354SOL     OW 7176   5.823   5.564   7.916  0.1812  0.0272 -0.3652
33354SOL    HW1 7177   5.736   5.552   7.953  0.5616 -0.5009  0.3717
33354SOL    HW2 7178   5.859   5.640   7.961 -0.4452  1.2102 -1.7409
33355SOL     OW 7179   9.312   1.012   1.485  0.2532 -0.3540  0.3061
33355SOL    HW1 7180   9.360   1.088   1.453 -2.4176  1.2386 -0.1694
33355SOL    HW2 7181   9.380   0.957   1.525  2.5610  1.3037 -1.0531
33356SOL     OW 7182   6.561   3.919  10.548 -0.0959  0.4407 -0.4651
33356SOL    HW1 7183   6.656   3.920  10.537  0.2311 -2.1372  1.2317
33356SOL    HW2 7184   6.527   3.903  10.460  1.1250  0.0078 -0.8748
33357SOL     OW 7185  12.571  10.397   9.669 -0.1955 -0.1375 -0.5216
33357SOL    HW1 7186  12.511  10.447   9.724  0.1270  0.4490 -0.7012
33357SOL    HW2 7187  12.525  10.314   9.653  0.0006 -0.6357  1.2290
33358SOL     OW 7188   1.853   5.717   3.404 -0.7612 -0.6356 -0.0078
33358SOL    HW1 7189   1.868   5.624   3.420  0.5017 -0.2295  1.4233
33358SOL    HW2 7190   1.924   5.743   3.345 -0.1487 -0.2564  0.8806
33359SOL     OW 7191   8.141   4.380   0.901  0.2530  0.0742 -0.4425
33359SOL    HW1 7192   8.084   4.455   0.884  0.8027  0.3511 -1.0878
33359SOL    HW2 7193   8.224   4.402   0.857  0.3974 -0.9345 -0.6931
33360SOL     OW 7194   5.344   8.487  12.835 -0.0324 -0.0461 -0.5113
33360SOL    HW1 7195   5.435   8.469  12.811 -0.1515 -0.1150 -0.9170
33360SOL    HW2 7196   5.293   8.434  12.774 -0.3354 -0.3514  0.0081
33361SOL     OW 7197   1.855   8.787   0.573  0.3793  0.1183  0.7754
33361SOL    HW1 7198   1.770   8.830   0.562 -1.1925 -3.0885 -0.7230
33361SOL    HW2 7199   1.848   8.741   0.656  1.1393  0.7000  1.1844
33362SOL     OW 7200   6.029   3.222  12.826  0.0269 -0.0440 -0.0662
33362SOL    HW1 7201   6.015   3.290  12.759 -1.1387  0.4303  0.6167
33362SOL    HW2 7202   5.968   3.245  12.896  0.0809 -1.4441  0.4714
33363SOL     OW 7203  12.440   3.287   2.247 -0.2542  0.1653  0.1541
33363SOL    HW1 7204  12.492   3.304   2.325 -0.9451 -1.6181  1.0628
33363SOL    HW2 7205  12.357   3.251   2.280 -0.3601 -1.1618 -1.3910
33364SOL     OW 7206  12.545   3.474  10.282  0.0227 -0.1404 -0.2978
33364SOL    HW1 7207  12.612   3.421  10.240  0.3675  0.4605 -0.5224
33364SOL    HW2 7208  12.477   3.485  10.215 -0.3335 -0.7889 -0.0544
33365SOL     OW 7209   6.759   5.906   1.658  0.3392  0.8285 -0.6569
33365SOL    HW1 7210   6.690   5.854   1.616 -0.5573  1.0316  0.5088
33365SOL    HW2 7211   6.713   5.981   1.695  1.3669  1.5561 -0.8016
33366SOL     OW 7212   2.860   6.310   1.230 -0.2911  0.2956  0.0312
33366SOL    HW1 7213   2.813   6.295   1.311 -0.9762 -1.6438 -0.6728
33366SOL    HW2 7214   2.843   6.233   1.177  0.4804  1.3073 -1.8084
33367SOL     OW 7215  11.132   1.149   3.812  0.2636 -0.4495  0.0250
33367SOL    HW1 7216  11.057   1.096   3.839  0.2015 -0.2202  0.3201
33367SOL    HW2 7217  11.096   1.213   3.751  0.4079 -0.9861 -0.6211
33368SOL     OW 7218  11.957   3.711   0.071  0.2013  0.4237  0.4113
33368SOL    HW1 7219  11.989   3.794   0.107 -0.1866  1.4418 -1.4749
33368SOL    HW2 7220  11.891   3.736   0.007 -0.7701 -1.4190  0.6110
33369SOL     OW 7221   6.940   2.985   4.902 -0.9280  0.2313 -0.0704
33369SOL    HW1 7222   7.032   3.010   4.913 -1.0948  1.4514 -1.1580
33369SOL    HW2 7223   6.911   2.958   4.989  0.0500  1.2815  0.6035
33370SOL     OW 7224  10.968   7.631   0.109  0.8140  0.0996  0.4751
33370SOL    HW1 7225  11.007   7.709   0.070  0.7350  0.5744  1.3271
33370SOL    HW2 7226  10.991   7.560   0.049  2.3451  0.4888  0.5726
33371SOL     OW 7227  11.487   4.381   1.100  0.2293 -0.4914  0.0032
33371SOL    HW1 7228  11.421   4.430   1.052 -0.4427  0.4204  1.7795
33371SOL    HW2 7229  11.479   4.291   1.067 -0.2365  0.0738 -1.4965
33372SOL     OW 7230   5.540   8.896   1.857  0.1535 -0.1403  0.3536
33372SOL    HW1 7231   5.483   8.970   1.876 -1.8381 -1.9963  2.2477
33372SOL    HW2 7232   5.594   8.887   1.936  0.3896 -0.6665  0.1358
33373SOL     OW 7233   3.130   4.706  12.852  0.0356  0.3076  0.1300
33373SOL    HW1 7234   3.185   4.685  12.927  2.4514  1.7138 -1.1082
33373SOL    HW2 7235   3.128   4.802  12.850 -2.4873  0.3118  0.0729
33374SOL     OW 7236   8.258   2.816   5.702 -0.2992  0.6900 -0.0687
33374SOL    HW1 7237   8.253   2.727   5.738 -0.9217  1.7375  2.7083
33374SOL    HW2 7238   8.179   2.825   5.649 -2.0093  0.5740  2.3159
33375SOL     OW 7239   7.197   9.687   1.755  0.1429 -0.5784 -0.1216
33375SOL    HW1 7240   7.119   9.699   1.700 -0.6812  2.3901  1.4281
33375SOL    HW2 7241   7.167   9.631   1.827 -0.3397 -0.1628  0.0087
33376SOL     OW 7242   1.712  10.379  12.220 -0.7014  0.5499  0.1832
33376SOL    HW1 7243   1.662  10.423  12.152 -0.1538  0.8667 -0.0184
33376SOL    HW2 7244   1.721  10.289  12.188 -0.6568  0.6348 -0.0454
33377SOL     OW 7245   4.805  11.966   3.060 -0.0950  0.0434 -0.1609
33377SOL    HW1 7246   4.834  12.056   3.048  0.1485 -0.0648 -0.4084
33377SOL    HW2 7247   4.885  11.918   3.081 -0.2442 -0.0897  0.1129
33378SOL     OW 7248   2.575  11.273   2.821  0.6121 -0.3499 -0.3015
33378SOL    HW1 7249   2.628  11.311   2.891  0.7281 -0.6049 -0.2473
33378SOL    HW2 7250   2.517  11.212   2.865  1.6186 -1.5367 -0.5478
33379SOL     OW 7251   3.682   4.343   2.322 -0.1359 -0.5194  0.1780
33379SOL    HW1 7252   3.603   4.320   2.371 -0.5354 -0.5979 -0.4853
33379SOL    HW2 7253   3.754   4.305   2.373 -0.5614 -0.8209  0.5620
33380SOL     OW 7254   8.475   5.061   7.700  0.0022 -0.2112  0.0316
33380SOL    HW1 7255   8.401   5.007   7.673  0.2262 -1.8370  2.3452
33380SOL    HW2 7256   8.553   5.010   7.677  0.2458 -0.4695  1.3192
33381SOL     OW 7257   8.540   4.074   2.438  0.0108  0.2661  0.0342
33381SOL    HW1 7258   8.543   4.042   2.528 -1.0621 -0.2318 -0.0903
33381SOL    HW2 7259   8.522   4.167   2.447 -3.2467 -0.2709  0.3555
33382SOL     OW 7260   0.890   1.945  12.201  0.1968  0.0761 -0.7519
33382SOL    HW1 7261   0.887   1.941  12.297  0.5413  4.0718 -0.4300
33382SOL    HW2 7262   0.982   1.927  12.180  0.1624 -0.6225 -0.3381
33383SOL     OW 7263   8.613   6.617   5.812 -0.2063 -0.3076  0.0204
33383SOL    HW1 7264   8.706   6.640   5.803  0.1642 -1.9656 -0.9902
33383SOL    HW2 7265   8.611   6.558   5.887 -0.5062  0.0176  0.2680
33384SOL     OW 7266   2.954   5.930   6.024  0.2948 -0.3473 -0.2999
33384SOL    HW1 7267   2.985   6.014   6.057 -0.4884 -0.0509 -0.2895
33384SOL    HW2 7268   2.996   5.865   6.080  2.3574 -0.0873 -1.4419
33385SOL     OW 7269   0.267   0.219   6.042 -0.7659  0.5388  0.6150
33385SOL    HW1 7270   0.342   0.269   6.077  0.7053 -0.1643 -1.3593
33385SOL    HW2 7271   0.206   0.287   6.011 -0.3581  1.1226  1.0624
33386SOL     OW 7272   4.401   2.075   4.720 -0.3611 -0.0757 -0.0101
33386SOL    HW1 7273   4.392   2.118   4.635  1.5701 -0.4824 -0.4825
33386SOL    HW2 7274   4.494   2.052   4.725 -0.0234  1.4482  2.9644
33387SOL     OW 7275  11.896   2.052   7.355  0.1378  0.0764 -0.2578
33387SOL    HW1 7276  11.976   2.001   7.339  0.5444 -0.8857  3.6366
33387SOL    HW2 7277  11.923   2.143   7.341  0.6421 -0.4358 -3.0922
33388SOL     OW 7278   3.566   1.234   0.866  0.5908  0.2944 -0.4513
33388SOL    HW1 7279   3.620   1.283   0.927  1.2562 -0.9322 -0.0100
33388SOL    HW2 7280   3.578   1.278   0.782 -0.8629  2.4033  0.3857
33389SOL     OW 7281   8.087   9.247   6.425  0.3766  0.2111 -0.6717
33389SOL    HW1 7282   8.155   9.227   6.361 -0.4084 -0.1613 -1.3953
33389SOL    HW2 7283   8.102   9.184   6.496  1.2876  0.6676 -0.4344
33390SOL     OW 7284   6.649   4.791   5.552 -0.4772  0.7835 -0.2565
33390SOL    HW1 7285   6.705   4.749   5.617 -0.1388 -0.5668 -1.3694
33390SOL    HW2 7286   6.576   4.827   5.602 -0.6774 -0.9965  0.7875
33391SOL     OW 7287   8.831   9.884   6.271  0.7441 -0.2024 -0.0947
33391SOL    HW1 7288   8.888   9.941   6.323  0.3364  0.0204  0.1141
33391SOL    HW2 7289   8.744   9.896   6.309  0.4560 -0.1030 -0.7797
33392SOL     OW 7290   6.094   1.272  11.391 -0.1434 -0.0148  0.2447
33392SOL    HW1 7291   6.046   1.191  11.411  1.4520 -1.2156 -0.5677
33392SOL    HW2 7292   6.158   1.246  11.326  0.0626  2.0603 -0.4388
33393SOL     OW 7293   7.113  12.320  11.862 -0.7569  0.4151 -0.5163
33393SOL    HW1 7294   7.067  12.236  11.856  0.0024  0.0911 -2.0205
33393SOL    HW2 7295   7.042  12.385  11.872 -1.3529 -0.3577  0.5396
33394SOL     OW 7296  10.695   3.244   1.621  0.3042  0.0502 -0.5316
33394SOL    HW1 7297  10.637   3.235   1.697 -0.3097 -1.2313 -1.1115
33394SOL    HW2 7298  10.638   3.273   1.550  0.7458  0.6025 -0.6665
33395SOL     OW 7299   8.843  10.061  10.894  0.4845  0.1415 -0.1335
33395SOL    HW1 7300   8.824  10.115  10.971  0.1626  1.5245 -1.1368
33395SOL    HW2 7301   8.933  10.031  10.907  1.0498  1.7595  0.0264
33396SOL     OW 7302   1.109   3.498   5.673 -0.4955  0.1176  0.1740
33396SOL    HW1 7303   1.095   3.410   5.638  0.3221 -0.7712  1.9459
33396SOL    HW2 7304   1.095   3.489   5.767 -0.6954  1.9645  0.3568
33397SOL     OW 7305   8.652   3.973   6.882 -0.1368  0.2051  0.1432
33397SOL    HW1 7306   8.720   4.034   6.853  0.4635  1.2268  3.2547
33397SOL    HW2 7307   8.698   3.914   6.943 -1.5760 -0.6064  0.4848
33398SOL     OW 7308   6.675  10.752   4.011  0.8225  0.6608  0.1151
33398SOL    HW1 7309   6.684  10.704   3.929  2.0506  1.7219 -0.4016
33398SOL    HW2 7310   6.711  10.692   4.077 -0.4877 -0.3377 -0.0319
33399SOL     OW 7311   9.476   8.299   6.537 -0.1368  0.7271 -0.4484
33399SOL    HW1 7312   9.395   8.345   6.559 -0.3790  0.4291 -0.7081
33399SOL    HW2 7313   9.449   8.232   6.473 -0.0147 -0.5995  0.8276
33400SOL     OW 7314   1.942  12.675   6.630  0.1161 -0.3564  0.3031
33400SOL    HW1 7315   2.037  12.677   6.618 -0.1268  1.5567 -1.8929
33400SOL    HW2 7316   1.922  12.759   6.673 -0.7282  0.0903 -0.9205
33401SOL     OW 7317  12.892   1.706   2.155 -0.4448  0.3273  0.6582
33401SOL    HW1 7318  12.846   1.627   2.127 -1.7021  0.7335  1.4949
33401SOL    HW2 7319  12.984   1.681   2.159 -0.6275 -0.6348 -0.6340
33402SOL     OW 7320   8.471   4.238   8.867  0.2696 -0.2579 -0.2948
33402SOL    HW1 7321   8.455   4.295   8.943  2.6620  0.6040 -0.3486
33402SOL    HW2 7322   8.482   4.298   8.794  1.0683 -0.8969 -0.7111
33403SOL     OW 7323   9.903   3.183   5.523 -0.3676  0.0590  0.3075
33403SOL    HW1 7324   9.861   3.142   5.447  1.7214  1.1463 -1.5701
33403SOL    HW2 7325   9.926   3.109   5.580 -0.7027 -0.9585 -0.8303
33404SOL     OW 7326   9.211   8.051   2.649 -0.0275 -0.3454 -0.4784
33404SOL    HW1 7327   9.176   8.132   2.686 -1.1122 -0.0785 -1.9986
33404SOL    HW2 7328   9.305   8.055   2.668 -0.3144  0.4356  0.9450
33405SOL     OW 7329   6.142   8.721   4.621 -0.4176 -0.1290 -0.0204
33405SOL    HW1 7330   6.084   8.646   4.635 -1.6065  0.5312 -1.1946
33405SOL    HW2 7331   6.176   8.710   4.533  1.5242 -0.6466  0.7460
33406SOL     OW 7332   6.981  10.980  10.902  0.0780  0.2354  0.8504
33406SOL    HW1 7333   7.043  10.908  10.916 -1.8792 -2.2306 -1.7473
33406SOL    HW2 7334   6.896  10.943  10.925 -1.0953  1.4217 -1.2565
33407SOL     OW 7335   3.356  12.727   1.731 -0.5529 -0.4788  0.3042
33407SOL    HW1 7336   3.320  12.707   1.817  1.2793 -0.3393  1.1509
33407SOL    HW2 7337   3.442  12.765   1.749  0.2792 -1.3126 -1.6257
33408SOL     OW 7338   1.988   8.466   3.358 -0.0321  0.3655  0.2658
33408SOL    HW1 7339   2.049   8.394   3.374 -0.0280  0.3188  0.0467
33408SOL    HW2 7340   1.928   8.432   3.292  1.3386  1.3138 -1.5469
33409SOL     OW 7341   2.129   1.450   0.368  0.0360  0.5413  0.0764
33409SOL    HW1 7342   2.081   1.369   0.354 -0.6968  1.3336 -2.4883
33409SOL    HW2 7343   2.209   1.423   0.413  0.0572 -1.6831 -1.1571
33410SOL     OW 7344   2.977   3.630  12.951 -0.4122  0.0432  0.0030
33410SOL    HW1 7345   2.990   3.588  12.866  0.2947  0.4574 -0.0967
33410SOL    HW2 7346   2.973   3.724  12.931  0.5641  0.2072  0.5100
33411SOL     OW 7347   8.995   1.649  12.557 -0.5716 -0.0229  0.2800
33411SOL    HW1 7348   8.963   1.666  12.646 -0.3693  1.5471  0.0748
33411SOL    HW2 7349   9.056   1.720  12.539  0.0664 -0.8109 -0.8024
33412SOL     OW 7350   1.998   4.399   0.063  0.0555  0.2399 -0.1293
33412SOL    HW1 7351   2.064   4.354   0.116 -0.3037  0.1901  0.2727
33412SOL    HW2 7352   1.936   4.331   0.039 -0.2544  0.4358  0.1153
33413SOL     OW 7353   1.457  11.402   3.387 -0.3901  0.1000  0.0075
33413SOL    HW1 7354   1.381  11.385   3.443  0.5886 -0.4808  1.2204
33413SOL    HW2 7355   1.493  11.314   3.368  0.7014  0.4124  0.5227
33414SOL     OW 7356  12.666   8.786   8.377 -0.1791  0.0645  0.2781
33414SOL    HW1 7357  12.671   8.839   8.457 -0.0248  1.4726 -0.6429
33414SOL    HW2 7358  12.586   8.816   8.333  0.3682  0.1591 -0.6799
33415SOL     OW 7359   8.132  10.495   4.216 -0.2475 -0.4265  0.4016
33415SOL    HW1 7360   8.081  10.567   4.253 -0.4672 -0.0818 -0.5484
33415SOL    HW2 7361   8.184  10.535   4.146  0.8808 -0.8868  0.9565
33416SOL     OW 7362   5.109   6.728   2.613 -0.3620 -0.0035 -0.0908
33416SOL    HW1 7363   5.114   6.714   2.518 -0.1854  0.1745 -0.1080
33416SOL    HW2 7364   5.199   6.743   2.640 -0.4819  0.5441  0.0156
33417SOL     OW 7365  11.456   7.379   1.909  0.3342  0.0746  0.3134
33417SOL    HW1 7366  11.379   7.332   1.940 -1.3560  1.3412 -1.6836
33417SOL    HW2 7367  11.500   7.317   1.851 -0.5204  0.1137 -0.3897
33418SOL     OW 7368   5.515   2.370   6.378 -0.5832  0.3099  0.2645
33418SOL    HW1 7369   5.426   2.384   6.409 -0.4926 -1.0822  1.2730
33418SOL    HW2 7370   5.525   2.274   6.377  1.0397  0.4473  0.6083
33419SOL     OW 7371  12.131   3.879   8.658 -0.6282 -0.2387 -0.3537
33419SOL    HW1 7372  12.096   3.791   8.645 -1.0829 -0.0910 -0.1351
33419SOL    HW2 7373  12.168   3.877   8.747 -1.3702  0.0293 -0.0316
33420SOL     OW 7374   3.359   3.270  10.990  0.1451 -0.0135  0.5563
33420SOL    HW1 7375   3.406   3.290  10.910  0.7449 -1.7324  0.4538
33420SOL    HW2 7376   3.328   3.355  11.021  2.0703  0.9952 -0.1364
33421SOL     OW 7377   7.221   2.432   1.686 -0.3585 -0.0323 -0.3636
33421SOL    HW1 7378   7.179   2.474   1.612 -0.6373 -0.4638 -0.4533
33421SOL    HW2 7379   7.191   2.481   1.762  0.1200  0.5640 -0.5545
33422SOL     OW 7380  10.120   2.157   7.067  0.5632 -0.2478  0.4235
33422SOL    HW1 7381  10.127   2.226   7.133 -0.8721  0.3272 -0.0092
33422SOL    HW2 7382  10.063   2.091   7.107 -2.2186  1.1345 -1.0319
33423SOL     OW 7383   5.671  11.864   5.634  0.0717  0.3908 -0.3057
33423SOL    HW1 7384   5.736  11.809   5.591  0.1648 -0.0639  0.4051
33423SOL    HW2 7385   5.601  11.874   5.570 -0.3889 -1.3422 -0.1255
33424SOL     OW 7386   7.007  12.099  11.332  0.1572 -0.6830 -0.2672
33424SOL    HW1 7387   7.025  12.148  11.252 -0.6645 -0.7716 -0.5089
33424SOL    HW2 7388   7.049  12.014  11.317 -1.8832 -1.5236 -1.5606
33425SOL     OW 7389  11.501  12.080   4.557  0.5257  0.0628 -0.3446
33425SOL    HW1 7390  11.558  12.012   4.592  1.0844  0.7069  0.0233
33425SOL    HW2 7391  11.556  12.159   4.556 -0.1585  0.5438 -0.6054
33426SOL     OW 7392   7.795   5.572   5.139  0.1491 -0.2205  0.1318
33426SOL    HW1 7393   7.800   5.639   5.070 -0.9328  0.3406  0.5712
33426SOL    HW2 7394   7.790   5.622   5.221  0.2069 -0.8567  0.5300
33427SOL     OW 7395   3.832   8.344   2.600  0.1905  0.2565 -0.3031
33427SOL    HW1 7396   3.910   8.338   2.544 -0.6338 -0.3049 -1.4198
33427SOL    HW2 7397   3.777   8.410   2.558 -0.1416  0.3300  0.2383
33428SOL     OW 7398   2.071   7.827   0.895  0.0686  0.3841 -0.1670
33428SOL    HW1 7399   2.017   7.904   0.879  1.0986  0.8737 -1.4258
33428SOL    HW2 7400   2.115   7.846   0.979 -0.7252  0.5405  0.2191
33429SOL     OW 7401  12.949   0.441   6.686 -0.1355 -0.2916  0.3186
33429SOL    HW1 7402  13.019   0.500   6.658 -0.5095  0.3406  0.6820
33429SOL    HW2 7403  12.881   0.451   6.619 -0.1487 -0.4043  0.3145
33430SOL     OW 7404   3.770   1.040  12.117  0.5874 -0.1245 -0.1534
33430SOL    HW1 7405   3.783   1.134  12.119  1.6464 -0.2247 -1.1642
33430SOL    HW2 7406   3.689   1.028  12.067  0.4472  0.2477 -0.0172
33431SOL     OW 7407   6.302   0.507  12.411 -0.4889  0.4849  0.1268
33431SOL    HW1 7408   6.286   0.508  12.317  1.6667  1.8729 -0.2810
33431SOL    HW2 7409   6.376   0.447  12.422 -0.3096  0.8324  0.8588
33432SOL     OW 7410   8.088  10.491  12.291 -0.2676 -0.6922 -0.0288
33432SOL    HW1 7411   8.063  10.537  12.371  0.1191  0.0863 -0.3358
33432SOL    HW2 7412   8.132  10.412  12.322  4.6185  1.9162  0.8379
33433SOL     OW 7413  11.176  11.464  12.033  0.6487 -0.0963 -0.1644
33433SOL    HW1 7414  11.253  11.461  12.089  0.6425 -2.7444 -0.1767
33433SOL    HW2 7415  11.127  11.541  12.063  1.6681 -0.2320  2.0167
33434SOL     OW 7416   3.565   0.284   4.204  0.3546  0.2597 -0.0199
33434SOL    HW1 7417   3.629   0.220   4.237  0.2590 -0.3450 -0.9686
33434SOL    HW2 7418   3.505   0.297   4.277  0.0353 -1.1958  0.0104
33435SOL     OW 7419   5.108   3.889   0.477 -0.0383  0.2303  0.2697
33435SOL    HW1 7420   5.158   3.946   0.536 -2.3733  1.4711  1.1778
33435SOL    HW2 7421   5.092   3.810   0.528  1.8542 -0.6481 -0.4224
33436SOL     OW 7422  12.468  12.036   3.949  0.4366  0.5236 -0.2080
33436SOL    HW1 7423  12.516  11.964   3.990 -0.8765 -0.9537 -1.1208
33436SOL    HW2 7424  12.530  12.075   3.888  2.0306  1.9905  2.1915
33437SOL     OW 7425   3.962  10.152  12.746  0.2763 -0.3627  0.2972
33437SOL    HW1 7426   3.984  10.217  12.680 -0.2310  1.4132  1.7810
33437SOL    HW2 7427   3.970  10.068  12.702  0.3927  0.7315 -1.8610
33438SOL     OW 7428   7.143   3.131   0.831  0.3375  0.4617  0.2696
33438SOL    HW1 7429   7.208   3.110   0.764  1.6873  3.4490  0.4894
33438SOL    HW2 7430   7.153   3.063   0.897  1.3717 -0.6043 -0.9365
33439SOL     OW 7431   3.443   9.004  12.195 -0.3279  0.3799  0.0950
33439SOL    HW1 7432   3.366   9.061  12.193  0.3656  1.3315 -0.3501
33439SOL    HW2 7433   3.514   9.061  12.225  0.4526 -0.1700 -0.6690
33440SOL     OW 7434  11.002   4.600   2.053 -0.4275 -0.6559 -0.2955
33440SOL    HW1 7435  11.036   4.575   1.966  0.8785 -1.4878  0.4234
33440SOL    HW2 7436  11.076   4.587   2.112 -0.4135  2.4758  0.5890
33441SOL     OW 7437  11.025   1.795   9.926  0.8055 -0.3863  0.3739
33441SOL    HW1 7438  10.981   1.797  10.011  0.7784 -0.2306  0.3557
33441SOL    HW2 7439  11.053   1.885   9.911 -0.2555 -0.1526 -0.3351
33442SOL     OW 7440   8.180   5.400   1.300 -0.1226  0.3034 -0.3698
33442SOL    HW1 7441   8.147   5.462   1.236  0.1946  1.1509  0.2751
33442SOL    HW2 7442   8.253   5.357   1.256 -1.6076 -1.1476 -1.5809
33443SOL     OW 7443   0.644   8.089   4.123 -0.2299 -1.0257 -0.0236
33443SOL    HW1 7444   0.670   8.170   4.080  2.1477 -1.9983 -0.5464
33443SOL    HW2 7445   0.643   8.110   4.216 -1.1390 -0.0401 -0.2326
33444SOL     OW 7446   9.925   4.595   9.368  0.1619 -0.0377  0.8470
33444SOL    HW1 7447   9.874   4.666   9.407  1.0632  0.6092  0.8838
33444SOL    HW2 7448  10.015   4.612   9.395  0.6151 -0.3488 -0.3803
33445SOL     OW 7449   0.323   5.515   5.993  0.0608  0.4272 -0.0954
33445SOL    HW1 7450   0.332   5.467   6.076 -0.4694  0.7013  0.1205
33445SOL    HW2 7451   0.232   5.543   5.990  0.1796  0.7852 -0.5767
33446SOL     OW 7452   7.445  11.787   7.405  0.6136 -0.0737  0.5203
33446SOL    HW1 7453   7.484  11.709   7.444  0.5205  0.3562  1.4943
33446SOL    HW2 7454   7.455  11.774   7.311  2.2127 -0.4420  0.6993
33447SOL     OW 7455   3.719   3.460  10.200 -0.6782 -0.1031  0.1697
33447SOL    HW1 7456   3.762   3.392  10.253 -2.4636 -0.5789  1.0776
33447SOL    HW2 7457   3.686   3.413  10.123 -1.3853 -0.1588  0.5020
33448SOL     OW 7458   0.003   6.851   9.120  0.0617  0.4136 -0.5595
33448SOL    HW1 7459  -0.069   6.799   9.156 -0.4394 -0.1116 -2.2498
33448SOL    HW2 7460   0.062   6.786   9.082  0.9411  0.9135 -0.0781
33449SOL     OW 7461   7.743   8.848   0.304 -0.0475 -0.4044  0.0667
33449SOL    HW1 7462   7.791   8.928   0.325 -1.6670  0.3604  1.0693
33449SOL    HW2 7463   7.657   8.861   0.343 -1.1536 -1.6417 -1.7925
33450SOL     OW 7464   3.205   6.861   1.516  0.5604 -0.1890 -0.3350
33450SOL    HW1 7465   3.250   6.930   1.563  0.7870 -0.5893  0.0431
33450SOL    HW2 7466   3.223   6.781   1.566 -1.9493 -0.1243  0.8133
33451SOL     OW 7467   4.380   9.956  11.064 -0.1814  1.1369 -0.2602
33451SOL    HW1 7468   4.383   9.924  10.974  0.7719 -2.7410  0.9684
33451SOL    HW2 7469   4.463  10.003  11.076  0.7141 -0.2706 -0.7971
33452SOL     OW 7470   1.339   9.884   2.699  0.4859 -0.6243  0.5144
33452SOL    HW1 7471   1.256   9.859   2.658  0.0642  0.0628  0.9324
33452SOL    HW2 7472   1.320   9.886   2.793  0.8992 -0.1859  0.5945
33453SOL     OW 7473   1.046   0.033   1.174  0.3056 -0.1008  0.0747
33453SOL    HW1 7474   0.959  -0.001   1.193 -0.1552  0.3101 -1.1912
33453SOL    HW2 7475   1.037   0.076   1.089  1.7993 -0.2521 -0.1882
33454SOL     OW 7476  12.630   1.365   6.248 -0.2432 -0.4341  0.0998
33454SOL    HW1 7477  12.714   1.376   6.203 -0.8155 -0.5505 -1.0463
33454SOL    HW2 7478  12.567   1.412   6.192 -0.7776  0.5869  1.4998
33455SOL     OW 7479   6.264   0.003   2.102 -0.8052 -0.5992  0.8443
33455SOL    HW1 7480   6.356  -0.001   2.129 -0.7912 -0.1616  0.8682
33455SOL    HW2 7481   6.229  -0.083   2.125 -0.1184 -1.1813 -0.1987
33456SOL     OW 7482  12.385   6.796  12.716 -0.4081  0.3231 -0.3401
33456SOL    HW1 7483  12.399   6.834  12.629 -1.5201 -1.4405 -1.3463
33456SOL    HW2 7484  12.466   6.749  12.735  0.1025  1.2687 -0.0714
33457SOL     OW 7485   2.679   8.947   4.681 -0.0852 -0.0316 -0.3872
33457SOL    HW1 7486   2.756   8.920   4.631 -1.0657 -0.3250 -1.8058
33457SOL    HW2 7487   2.691   8.907   4.767  1.0431 -0.5741 -0.7767
33458SOL     OW 7488   7.887   7.429   8.920 -0.0146  0.2458  0.4035
33458SOL    HW1 7489   7.955   7.380   8.874 -0.1662  0.4571 -0.0507
33458SOL    HW2 7490   7.908   7.417   9.013  0.1455 -0.3980  0.2918
33459SOL     OW 7491   5.230   0.690   1.044  0.3873 -0.0692  0.8699
33459SOL    HW1 7492   5.253   0.779   1.069  0.7269 -0.1287  0.7632
33459SOL    HW2 7493   5.269   0.635   1.112  0.3679 -0.1558  0.8108
33460SOL     OW 7494   4.070   2.997   7.172 -0.3958 -0.1451 -0.1212
33460SOL    HW1 7495   4.156   3.001   7.212 -0.2418 -2.4563 -0.1089
33460SOL    HW2 7496   4.010   2.984   7.245 -0.5325 -0.6146 -0.3192
33461SOL     OW 7497   0.746   0.721   1.432 -0.3523 -0.1428 -0.6253
33461SOL    HW1 7498   0.795   0.802   1.449 -0.4151 -0.1826 -0.2605
33461SOL    HW2 7499   0.758   0.706   1.338  0.2823 -0.1106 -0.5570
33462SOL     OW 7500  11.488   0.368   5.771  0.1445  0.9885  0.6242
33462SOL    HW1 7501  11.445   0.355   5.855  0.6649  0.8929  0.8774
33462SOL    HW2 7502  11.543   0.291   5.759 -1.1480  0.1924 -0.5706
33463SOL     OW 7503   0.249   4.181   1.781 -0.0088  0.2171  0.0108
33463SOL    HW1 7504   0.166   4.227   1.786  0.1710  0.4613  0.7984
33463SOL    HW2 7505   0.253   4.128   1.860  1.2459  1.3384  0.7437
33464SOL     OW 7506   5.687  10.085   4.986 -0.1258 -0.1247  0.1416
33464SOL    HW1 7507   5.733  10.069   4.904  2.1133 -0.6287  1.3890
33464SOL    HW2 7508   5.712  10.174   5.011 -2.4680  0.8395 -0.6593
33465SOL     OW 7509   6.355  12.146  12.439  0.0513  0.3149  0.0830
33465SOL    HW1 7510   6.281  12.205  12.422 -1.2240 -0.6669  1.7689
33465SOL    HW2 7511   6.331  12.064  12.395  0.1998  0.0392  0.5080
33466SOL     OW 7512  12.009   0.669   9.632  0.0211  0.4633 -0.4235
33466SOL    HW1 7513  12.087   0.723   9.638 -0.4358  1.2098 -1.0776
33466SOL    HW2 7514  12.021   0.602   9.700  1.7236 -0.0971 -1.2199
33467SOL     OW 7515  11.978   6.595   7.919 -0.1848 -0.1407  0.1815
33467SOL    HW1 7516  11.900   6.650   7.928  0.6432  0.8458  1.6510
33467SOL    HW2 7517  11.945   6.505   7.931 -1.1358  0.2348  0.4754
33468SOL     OW 7518   3.268   8.916  11.221 -0.3086 -0.7699  0.1614
33468SOL    HW1 7519   3.345   8.953  11.263  1.6470 -1.3852 -2.6226
33468SOL    HW2 7520   3.219   8.991  11.189  0.9951 -0.3970 -1.0480
33469SOL     OW 7521  10.994   0.194  12.800 -0.5195  0.3094  0.5663
33469SOL    HW1 7522  11.008   0.206  12.894  0.2066 -1.5344  0.7425
33469SOL    HW2 7523  10.927   0.258  12.776 -1.9211 -0.2936  2.6699
33470SOL     OW 7524   3.233   2.458   3.872 -0.2663  0.2042 -0.2844
33470SOL    HW1 7525   3.247   2.516   3.798  1.1050  1.2704  0.7506
33470SOL    HW2 7526   3.310   2.470   3.927 -1.7916  0.4209  1.9478
33471SOL     OW 7527  10.092   0.529  10.622 -0.1681 -0.2436 -0.0110
33471SOL    HW1 7528  10.077   0.613  10.578  0.1912 -0.6161 -0.8566
33471SOL    HW2 7529  10.076   0.463  10.554  0.7024 -0.8208  0.3369
33472SOL     OW 7530  12.800  10.699   8.834 -0.3225  0.6000  0.6027
33472SOL    HW1 7531  12.831  10.752   8.761 -1.8749 -1.2630 -1.5525
33472SOL    HW2 7532  12.735  10.754   8.878  0.9809  1.9215  0.9459
33473SOL     OW 7533  11.354   8.971   1.275 -0.2434  0.0075 -0.4335
33473SOL    HW1 7534  11.428   8.992   1.333  0.3990 -1.4320 -0.6681
33473SOL    HW2 7535  11.288   9.037   1.294  0.5911  0.5249  0.7716
33474SOL     OW 7536  11.092   0.128   0.841  0.1697 -0.6776 -0.5277
33474SOL    HW1 7537  11.051   0.090   0.764  0.9496  1.3829 -2.0749
33474SOL    HW2 7538  11.185   0.108   0.831  0.3227 -0.0902 -0.3420
33475SOL     OW 7539   0.373   3.541   7.928  0.5491  0.2813 -0.3186
33475SOL    HW1 7540   0.371   3.577   7.839  0.4822  0.6102 -0.1840
33475SOL    HW2 7541   0.286   3.504   7.941  0.3250  0.8664 -0.1307
33476SOL     OW 7542   6.808   3.463   0.991  0.4668  0.4821  0.1735
33476SOL    HW1 7543   6.844   3.380   0.960 -0.9314 -1.1097  2.5404
33476SOL    HW2 7544   6.884   3.515   1.015  1.5972  1.3425 -4.3293
33477SOL     OW 7545  11.101   6.463  12.813 -0.7407 -0.0928 -0.0697
33477SOL    HW1 7546  11.138   6.542  12.853 -1.1711 -0.2651  0.6658
33477SOL    HW2 7547  11.109   6.479  12.719 -0.9037  0.8647  0.0710
33478SOL     OW 7548   6.180   5.365  11.302  0.6445 -0.7428 -0.1759
33478SOL    HW1 7549   6.243   5.437  11.301  0.1733 -0.2672  1.4612
33478SOL    HW2 7550   6.192   5.324  11.388 -2.8218  0.8380  1.2457
33479SOL     OW 7551   0.339   7.930  11.763 -0.0974 -1.2733  0.1684
33479SOL    HW1 7552   0.273   7.988  11.801 -1.4018 -2.0088 -0.9101
33479SOL    HW2 7553   0.310   7.916  11.673  1.2295 -2.0890 -0.1611
33480SOL     OW 7554  10.869   0.199  10.896 -0.2356  0.2096  0.1962
33480SOL    HW1 7555  10.859   0.245  10.812 -0.4835 -0.4656 -0.1563
33480SOL    HW2 7556  10.956   0.225  10.927 -0.6676  1.4989  0.3831
33481SOL     OW 7557   2.356   7.639   6.301 -0.1340 -0.1948 -0.4898
33481SOL    HW1 7558   2.439   7.658   6.257 -0.7575  0.2248 -1.5253
33481SOL    HW2 7559   2.289   7.675   6.242 -1.0634 -0.7290  0.2175
33482SOL     OW 7560   3.125   1.197   7.366 -0.1642 -0.5411 -0.4102
33482SOL    HW1 7561   3.178   1.269   7.401  2.1499 -1.7595 -1.2171
33482SOL    HW2 7562   3.051   1.240   7.325 -1.1877  1.1303  2.8237
33483SOL     OW 7563   1.098   9.285   1.758 -0.5829  0.3380  0.4327
33483SOL    HW1 7564   1.149   9.362   1.733 -0.2424  0.6664  1.9986
33483SOL    HW2 7565   1.154   9.211   1.737 -1.4287  0.3777 -2.3041
33484SOL     OW 7566  10.094   2.512   2.704  0.2204 -0.3682 -0.2051
33484SOL    HW1 7567  10.010   2.468   2.719 -0.4128 -0.4534 -3.3023
33484SOL    HW2 7568  10.072   2.605   2.697  0.4795 -0.3131 -0.3178
33485SOL     OW 7569   9.205   2.000   3.733  0.0861 -0.0541 -0.3413
33485SOL    HW1 7570   9.119   1.967   3.756  0.3699 -0.5948 -0.0453
33485SOL    HW2 7571   9.260   1.922   3.727  0.8037  0.3697  0.5283
33486SOL     OW 7572   6.893   3.170   0.065  0.6714 -0.3909  0.3638
33486SOL    HW1 7573   6.808   3.131   0.084  0.2746  1.1563  2.0339
33486SOL    HW2 7574   6.881   3.213  -0.020  0.7220 -2.6141 -0.8347
33487SOL     OW 7575   2.493   9.009   1.955 -0.2349  0.6349  0.0737
33487SOL    HW1 7576   2.513   9.073   2.023  0.8818  1.1825 -0.7384
33487SOL    HW2 7577   2.545   9.036   1.880 -1.9355  0.4434 -1.2448
33488SOL     OW 7578  10.016   3.705   1.713 -0.0956  0.0232 -0.1109
33488SOL    HW1 7579  10.098   3.660   1.696  0.0227 -0.0612  0.6489
33488SOL    HW2 7580  10.039   3.798   1.714 -0.2047  0.0629 -0.9391
33489SOL     OW 7581  11.155   0.669  11.684  0.0593 -0.5954 -0.3708
33489SOL    HW1 7582  11.203   0.640  11.762 -2.7747  0.6506  2.0070
33489SOL    HW2 7583  11.098   0.595  11.663 -1.3985  0.1611  0.7414
33490SOL     OW 7584   4.865   6.827   0.221  0.3509 -0.8562  0.1891
33490SOL    HW1 7585   4.897   6.785   0.301  0.3483  1.7512  1.6407
33490SOL    HW2 7586   4.807   6.896   0.251 -0.7669 -0.6801 -2.1560
33491SOL     OW 7587  11.309   6.133   6.580 -0.4942 -0.0039  0.3369
33491SOL    HW1 7588  11.347   6.084   6.653 -0.8324  0.4168  0.8090
33491SOL    HW2 7589  11.315   6.074   6.505  1.7249  0.3103  0.2064
33492SOL     OW 7590   2.826   4.391   0.803  0.7260  0.3736  0.2254
33492SOL    HW1 7591   2.775   4.401   0.723  1.0080  0.0330 -0.0009
33492SOL    HW2 7592   2.773   4.432   0.871 -0.4804 -1.1201  0.2386
33493SOL     OW 7593   3.007   0.446   8.346 -0.7055 -0.0152  0.1013
33493SOL    HW1 7594   2.919   0.411   8.333 -0.7079 -0.0967  0.3237
33493SOL    HW2 7595   3.000   0.538   8.322 -0.6269 -0.2311 -0.7894
33494SOL     OW 7596   0.155   9.866   4.170 -0.3733 -0.1842 -0.2995
33494SOL    HW1 7597   0.106   9.797   4.125 -2.6472  0.8144  0.4665
33494SOL    HW2 7598   0.098   9.943   4.164  1.0015  0.9941  0.9437
33495SOL     OW 7599   3.711   4.434  12.226  0.2576 -0.2119  0.5994
33495SOL    HW1 7600   3.762   4.448  12.146  1.2642  1.1488  1.4562
33495SOL    HW2 7601   3.728   4.342  12.249  0.3182 -0.4863 -0.4788
33496SOL     OW 7602  11.520   2.645   1.296 -0.5697  0.2049 -0.6733
33496SOL    HW1 7603  11.528   2.722   1.351 -1.6789 -0.3261  0.2763
33496SOL    HW2 7604  11.433   2.611   1.314  0.5064 -2.2777  0.2876
33497SOL     OW 7605   5.963   2.030   2.363  0.6806 -0.4777 -0.3664
33497SOL    HW1 7606   5.874   2.044   2.332  1.9216  3.1425 -3.0289
33497SOL    HW2 7607   6.006   1.982   2.292  1.7058  1.1621 -0.9115
33498SOL     OW 7608   4.477   3.748  10.801  0.9106 -0.1526 -0.1504
33498SOL    HW1 7609   4.535   3.680  10.767  1.9954  0.7688 -0.1604
33498SOL    HW2 7610   4.408   3.699  10.846  0.2783 -1.3644 -2.2755
33499SOL     OW 7611  12.839   9.233   8.359 -0.4098  0.0703 -0.1836
33499SOL    HW1 7612  12.905   9.194   8.302 -1.2585 -1.7876  0.0436
33499SOL    HW2 7613  12.817   9.316   8.315  1.0591  0.0852 -0.9711
33500SOL     OW 7614   5.678   2.540   2.523 -0.2767  0.2041  0.3042
33500SOL    HW1 7615   5.772   2.552   2.536 -0.4531  2.6241 -0.1710
33500SOL    HW2 7616   5.650   2.485   2.597  1.1896  1.0709  1.5504
33501SOL     OW 7617   8.080   0.203   5.204  0.2276  0.1684  0.0147
33501SOL    HW1 7618   8.144   0.133   5.188  0.9320  0.8457 -0.1944
33501SOL    HW2 7619   8.080   0.215   5.299 -0.1431 -0.3383  0.0827
33502SOL     OW 7620  10.180   9.934   9.338  0.1418  0.6330  0.4106
33502SOL    HW1 7621  10.155   9.859   9.391 -0.7685 -0.1608 -1.0784
33502SOL    HW2 7622  10.110   9.942   9.273  1.9924  0.5087 -1.7239
33503SOL     OW 7623   5.721  10.551  12.052 -0.8817  0.3228 -0.0902
33503SOL    HW1 7624   5.642  10.522  12.098 -2.0905 -1.1095 -2.8389
33503SOL    HW2 7625   5.689  10.586  11.968  1.1539  3.2561  0.1850
33504SOL     OW 7626   6.171   5.459   8.966 -0.3053 -0.5050 -0.1563
33504SOL    HW1 7627   6.150   5.383   9.020 -0.5120 -0.6295 -0.4106
33504SOL    HW2 7628   6.260   5.443   8.934  0.1298 -0.0575  0.7879
33505SOL     OW 7629   1.982   6.942   5.305  0.0238  0.4546  0.0625
33505SOL    HW1 7630   1.957   6.976   5.391  0.4415  1.9164 -0.3740
33505SOL    HW2 7631   1.915   6.876   5.285 -1.8482  2.2180  0.1922
33506SOL     OW 7632   4.958   9.211   0.664 -0.4887 -0.1509  0.9602
33506SOL    HW1 7633   5.022   9.165   0.610 -1.2109  0.2642 -0.3099
33506SOL    HW2 7634   4.981   9.303   0.655  1.0043 -0.1786  3.5574
33507SOL     OW 7635   5.563  12.706   0.829 -0.2976  0.3196  0.4089
33507SOL    HW1 7636   5.535  12.640   0.766 -0.0337  0.7526 -0.1725
33507SOL    HW2 7637   5.658  12.713   0.815  0.4640 -1.9926  3.1352
33508SOL     OW 7638   0.288   7.128   0.280 -0.0927 -0.0419 -0.2032
33508SOL    HW1 7639   0.347   7.117   0.354  1.0304 -1.3632 -1.2458
33508SOL    HW2 7640   0.323   7.071   0.212 -2.2476 -0.4308 -1.0874
33509SOL     OW 7641   5.602   8.677   2.725  0.1096  0.1219  0.0960
33509SOL    HW1 7642   5.609   8.753   2.667 -1.8261  1.6599  1.7199
33509SOL    HW2 7643   5.653   8.701   2.802 -0.8473 -0.0474  0.7917
33510SOL     OW 7644  11.130   6.584   0.778 -0.5283 -0.1283  0.2100
33510SOL    HW1 7645  11.148   6.664   0.826  0.8851 -1.9156  2.8767
33510SOL    HW2 7646  11.204   6.527   0.796 -1.9470 -2.4305 -0.7288
33511SOL     OW 7647   2.184   2.096   7.445  0.2117  0.2491 -0.2885
33511SOL    HW1 7648   2.144   2.183   7.437  0.9200  0.4560 -2.3100
33511SOL    HW2 7649   2.273   2.113   7.477  0.3427  0.2794 -0.6622
33512SOL     OW 7650   3.886   4.481   1.074  0.3461  0.1425 -0.4176
33512SOL    HW1 7651   3.821   4.427   1.028 -1.4691 -0.3548  2.4843
33512SOL    HW2 7652   3.922   4.538   1.006 -2.0077 -0.6333 -2.4650
33513SOL     OW 7653  10.641   1.968   6.036  0.5035 -0.5338 -0.7622
33513SOL    HW1 7654  10.642   2.064   6.041 -0.7569 -0.4145 -2.2505
33513SOL    HW2 7655  10.586   1.948   5.961  0.0857 -2.4676 -0.0027
33514SOL     OW 7656   2.400  11.634   3.799 -0.0262  0.5224 -0.7668
33514SOL    HW1 7657   2.380  11.609   3.890  0.8000 -1.5126 -1.0924
33514SOL    HW2 7658   2.496  11.628   3.794 -0.1815 -1.7522 -2.3578
33515SOL     OW 7659   7.494  11.794   8.585 -1.0928 -1.1095 -0.1997
33515SOL    HW1 7660   7.530  11.859   8.523 -2.7377  0.3207  0.2854
33515SOL    HW2 7661   7.504  11.710   8.539  0.8192 -0.5196 -0.9722
33516SOL     OW 7662   9.681   7.668  12.763 -0.0876 -0.3790 -0.1141
33516SOL    HW1 7663   9.714   7.640  12.849 -2.3479  0.1691  1.0280
33516SOL    HW2 7664   9.589   7.640  12.763 -0.0963 -0.5468 -2.4705
33517SOL     OW 7665   2.455   9.899   8.479 -0.0281 -0.2166 -0.0775
33517SOL    HW1 7666   2.460   9.827   8.541 -0.9259  1.2112  1.7382
33517SOL    HW2 7667   2.496   9.973   8.524 -1.4195  1.0699 -0.8114
33518SOL     OW 7668   0.368   6.715   1.243 -0.6096  0.2403 -0.1098
33518SOL    HW1 7669   0.424   6.755   1.310  0.0933  0.6632 -0.9319
33518SOL    HW2 7670   0.369   6.622   1.264 -0.9220  0.4458  0.8488
33519SOL     OW 7671   3.110   2.388  10.484 -0.0087 -0.1986  0.3810
33519SOL    HW1 7672   3.154   2.399  10.400  1.0610 -0.0049  0.9514
33519SOL    HW2 7673   3.173   2.340  10.538 -2.1354 -4.0413 -0.1350
33520SOL     OW 7674  10.646   4.211   7.016 -0.7646 -0.5770 -0.6081
33520SOL    HW1 7675  10.672   4.121   6.999 -0.8842 -0.6993 -0.1600
33520SOL    HW2 7676  10.714   4.264   6.976  0.2217 -0.8885  0.6100
33521SOL     OW 7677  12.611  11.818  12.023  0.2734 -0.0335 -0.0576
33521SOL    HW1 7678  12.626  11.779  12.109 -2.5375  0.8423  0.9264
33521SOL    HW2 7679  12.679  11.885  12.015  1.2703 -0.8807  0.9534
33522SOL     OW 7680   7.085   3.924  11.002  0.0435  0.5110 -0.2310
33522SOL    HW1 7681   7.165   3.899  10.957  0.8852  0.6007  1.1525
33522SOL    HW2 7682   7.018   3.927  10.933  1.0342 -0.3846 -1.2700
33523SOL     OW 7683   7.214   0.239   7.064 -0.0355  0.1201  0.1443
33523SOL    HW1 7684   7.278   0.193   7.119 -0.4671  0.8326  1.2605
33523SOL    HW2 7685   7.184   0.312   7.118 -1.9064 -0.2813 -0.3047
33524SOL     OW 7686   1.796   3.936   4.751 -0.0530  0.5004 -0.1175
33524SOL    HW1 7687   1.754   3.981   4.824  0.5662  0.4990  0.2410
33524SOL    HW2 7688   1.807   3.846   4.781 -1.0670  0.1541 -0.7432
33525SOL     OW 7689   6.066   9.758   9.983  0.0035 -0.3276 -0.1973
33525SOL    HW1 7690   6.140   9.778  10.040  1.0278  0.8506 -1.8373
33525SOL    HW2 7691   5.990   9.791  10.031  0.9608  1.6911  0.0730
33526SOL     OW 7692   1.314  11.958   8.510 -0.5484  0.0709  0.5763
33526SOL    HW1 7693   1.327  11.959   8.415 -1.3514  2.0745  0.4453
33526SOL    HW2 7694   1.381  11.898   8.543 -0.5799 -1.0495 -1.2868
33527SOL     OW 7695   3.889   7.201   4.206 -0.0024  0.4190 -0.4961
33527SOL    HW1 7696   3.873   7.184   4.113 -2.2289  0.4493 -0.1564
33527SOL    HW2 7697   3.848   7.128   4.251  1.2595  0.2786  0.5005
33528SOL     OW 7698   4.033   1.687   3.556  0.0982 -0.6723 -0.1755
33528SOL    HW1 7699   4.006   1.618   3.616 -1.7498 -1.0649 -1.3401
33528SOL    HW2 7700   4.075   1.641   3.483  1.8464 -0.2516  0.5433
33529SOL     OW 7701  11.090   5.821   2.116  0.0841  0.4928  0.4216
33529SOL    HW1 7702  11.143   5.747   2.086  2.1249  1.5189  1.2904
33529SOL    HW2 7703  11.086   5.879   2.041  1.1350  0.8831  0.6458
33530SOL     OW 7704   6.386   8.161   3.214 -0.3013  0.1144  0.0592
33530SOL    HW1 7705   6.376   8.102   3.140 -1.0739  2.1969 -1.5995
33530SOL    HW2 7706   6.480   8.168   3.227 -0.2047 -2.3447  1.0884
33531SOL     OW 7707   6.258   6.312   2.259 -0.5113  0.0143 -0.5391
33531SOL    HW1 7708   6.297   6.398   2.273  0.3071 -0.3973 -0.1457
33531SOL    HW2 7709   6.254   6.273   2.347 -1.4223 -0.1257 -0.6310
33532SOL     OW 7710  10.434   6.512   1.999 -0.1335  0.5766  0.7782
33532SOL    HW1 7711  10.368   6.471   1.944 -1.1645  2.8370  0.2107
33532SOL    HW2 7712  10.394   6.517   2.085 -0.8615  2.1727  0.3773
33533SOL     OW 7713   2.943   8.163   7.831  0.5833 -0.0580  0.0211
33533SOL    HW1 7714   2.886   8.127   7.764  0.0403 -0.8911  0.9015
33533SOL    HW2 7715   2.939   8.258   7.818  1.1428 -0.2276 -1.6187
33534SOL     OW 7716   0.347   5.345   8.265  0.0151 -0.1218  0.3773
33534SOL    HW1 7717   0.338   5.285   8.339 -0.8933  0.0040  0.3826
33534SOL    HW2 7718   0.261   5.341   8.221  0.9615 -1.3387 -1.5326
33535SOL     OW 7719  11.156  10.629   6.365 -0.0250 -0.7670  0.6971
33535SOL    HW1 7720  11.153  10.601   6.274  0.8360  0.8863  0.1276
33535SOL    HW2 7721  11.063  10.636   6.390 -0.3306  0.4579 -0.6241
33536SOL     OW 7722   2.016  10.857   9.555 -0.0867  0.5087  0.0682
33536SOL    HW1 7723   2.093  10.914   9.543  0.1917 -0.2671 -2.3119
33536SOL    HW2 7724   1.941  10.915   9.543  0.1907  0.3735 -3.1197
33537SOL     OW 7725  11.789   5.638  12.550 -0.3111 -0.1142  0.2546
33537SOL    HW1 7726  11.885   5.638  12.544 -0.3782  0.4362 -2.0044
33537SOL    HW2 7727  11.766   5.547  12.562  0.4942 -0.3117  0.3775
33538SOL     OW 7728   6.290   2.721   9.972 -0.2617 -0.0830  0.0345
33538SOL    HW1 7729   6.218   2.664   9.946  0.2211 -2.0313  2.6381
33538SOL    HW2 7730   6.354   2.712   9.902 -1.6741  0.1537 -1.3503
33539SOL     OW 7731  11.008   1.398  12.473  0.0284  0.6055  0.2353
33539SOL    HW1 7732  11.023   1.304  12.480  0.5446  0.6055 -0.6665
33539SOL    HW2 7733  10.947   1.419  12.543 -0.9203 -0.5783 -0.2213
33540SOL     OW 7734   9.207  10.722   2.312  0.1879 -0.2854  0.4975
33540SOL    HW1 7735   9.172  10.652   2.367 -1.1171  1.2425  1.7133
33540SOL    HW2 7736   9.144  10.729   2.240 -1.1419  1.2409  1.7180
33541SOL     OW 7737  10.686   7.522  12.234  0.5077 -0.2350 -0.0060
33541SOL    HW1 7738  10.606   7.567  12.208  0.3999 -0.0416  0.6444
33541SOL    HW2 7739  10.757   7.582  12.209  0.3838  0.1345  0.5055
33542SOL     OW 7740  11.546   8.723  11.465  0.3645 -0.2662 -0.1296
33542SOL    HW1 7741  11.634   8.691  11.480  0.8555  0.4342 -1.3269
33542SOL    HW2 7742  11.523   8.769  11.545  0.2201 -2.2407  1.0336
33543SOL     OW 7743   7.770   6.603   7.768 -0.3888  0.2413 -0.0885
33543SOL    HW1 7744   7.816   6.546   7.828 -0.5479  1.3032  1.0874
33543SOL    HW2 7745   7.839   6.646   7.717 -0.2874 -1.3246 -1.3379
33544SOL     OW 7746   9.091   6.166  10.126 -0.0805  0.1916 -0.0670
33544SOL    HW1 7747   9.028   6.100  10.098 -0.2817  0.4655 -0.2680
33544SOL    HW2 7748   9.051   6.249  10.102 -0.4979  0.4838  1.4923
33545SOL     OW 7749   3.769   1.967   5.548 -0.5944 -0.2645  0.4639
33545SOL    HW1 7750   3.765   1.975   5.643  0.9287 -1.1254  0.6357
33545SOL    HW2 7751   3.736   1.879   5.530  1.0751 -0.9244  0.4260
33546SOL     OW 7752   6.650   2.345   0.807 -0.4744  0.2769 -0.1517
33546SOL    HW1 7753   6.634   2.422   0.862  1.1954  1.1289 -0.7632
33546SOL    HW2 7754   6.738   2.315   0.834  0.9948  1.5106 -3.1335
33547SOL     OW 7755  12.306   1.246   3.894  0.1462  0.5354  0.2386
33547SOL    HW1 7756  12.260   1.324   3.926 -0.9252 -0.0676  0.2444
33547SOL    HW2 7757  12.375   1.230   3.958 -0.2396  0.9309  0.7620
33548SOL     OW 7758   0.222   1.074   6.750 -0.4055 -0.1265 -0.3381
33548SOL    HW1 7759   0.153   1.131   6.716 -0.2091 -0.5184 -1.4402
33548SOL    HW2 7760   0.259   1.032   6.672  1.9924  1.0870  0.0598
33549SOL     OW 7761   1.143   4.400   1.069  0.1520  0.2852 -0.2985
33549SOL    HW1 7762   1.227   4.358   1.084 -0.2354 -0.2237  0.4711
33549SOL    HW2 7763   1.150   4.484   1.115  1.3775  1.6904 -2.8436
33550SOL     OW 7764   0.047   6.438   3.123 -0.1538  0.4478 -0.2573
33550SOL    HW1 7765   0.019   6.515   3.171 -0.6337 -0.5878  1.2207
33550SOL    HW2 7766   0.107   6.471   3.057 -3.2298  2.5280 -2.2542
33551SOL     OW 7767  11.668   7.392  12.671  0.4182 -0.4477  0.2463
33551SOL    HW1 7768  11.573   7.396  12.675  0.4983  0.7166  2.1351
33551SOL    HW2 7769  11.688   7.368  12.580 -1.6100  1.5753 -0.8035
33552SOL     OW 7770   6.072   3.549   9.154  0.6139  0.1232 -0.5995
33552SOL    HW1 7771   6.073   3.454   9.143 -0.6744  0.0595 -0.2882
33552SOL    HW2 7772   6.109   3.565   9.240  0.4407 -0.1325 -0.4781
33553SOL     OW 7773   0.806   9.885   8.830 -0.1311  1.0580 -0.7180
33553SOL    HW1 7774   0.784   9.846   8.914  1.5227 -0.7643 -1.0593
33553SOL    HW2 7775   0.771   9.824   8.765 -2.5426  3.0701 -1.4907
33554SOL     OW 7776   1.304   1.715  10.507 -0.0964  0.2056  0.3905
33554SOL    HW1 7777   1.391   1.680  10.526 -0.3260  0.2245  1.4908
33554SOL    HW2 7778   1.291   1.784  10.571 -1.2683 -0.3593  0.7927
33555SOL     OW 7779   7.430  10.108  12.469  0.3876 -0.0281  0.2752
33555SOL    HW1 7780   7.425  10.026  12.420  0.8048 -1.6049  2.6529
33555SOL    HW2 7781   7.503  10.156  12.429  1.1086 -1.5045 -0.2675
33556SOL     OW 7782   1.196   6.664  10.641 -0.2765  0.4838 -0.2929
33556SOL    HW1 7783   1.209   6.743  10.693  0.6783  1.7127 -2.2646
33556SOL    HW2 7784   1.109   6.633  10.665 -0.4837  1.8512  0.8529
33557SOL     OW 7785  11.357   8.293  12.653  0.5705 -0.0517  0.2718
33557SOL    HW1 7786  11.382   8.270  12.742 -0.2508  0.1264  0.5495
33557SOL    HW2 7787  11.303   8.371  12.662 -1.1998 -1.1833 -0.2028
33558SOL     OW 7788   7.817   8.857   5.427 -0.1812  0.0893 -0.1877
33558SOL    HW1 7789   7.888   8.794   5.437 -0.3610 -0.1238 -0.2355
33558SOL    HW2 7790   7.766   8.823   5.353 -1.4103 -0.7953  1.0216
33559SOL     OW 7791  12.918  12.437   0.156  0.7099  0.4397  0.1008
33559SOL    HW1 7792  12.974  12.371   0.196  0.4100 -0.9722 -1.6605
33559SOL    HW2 7793  12.891  12.397   0.073 -4.7938 -0.0587  1.7426
33560SOL     OW 7794   3.609  11.575   4.375  0.1336  0.6141 -0.2025
33560SOL    HW1 7795   3.603  11.607   4.465  2.1930  0.5940 -0.0259
33560SOL    HW2 7796   3.634  11.484   4.384 -2.7367 -0.3347 -0.7878
33561SOL     OW 7797  12.372   4.638  12.540 -0.2496 -0.0589  0.5272
33561SOL    HW1 7798  12.432   4.649  12.466  1.8626  1.2537  2.3227
33561SOL    HW2 7799  12.395   4.553  12.577 -0.4728 -0.1720  0.4096
33562SOL     OW 7800  11.814  10.252  11.809 -0.2032  0.1602  0.2750
33562SOL    HW1 7801  11.768  10.185  11.859  0.3315 -0.4427 -0.0285
33562SOL    HW2 7802  11.842  10.208  11.729  1.6960  0.2146  0.8412
33563SOL     OW 7803   8.715   5.408   1.401  0.5785 -0.8605  0.0709
33563SOL    HW1 7804   8.731   5.322   1.361  3.6298 -1.0677  1.4606
33563SOL    HW2 7805   8.706   5.389   1.494  2.6328  0.3495  0.5823
33564SOL     OW 7806   2.121   7.934   9.244 -0.3021  0.3397  0.0459
33564SOL    HW1 7807   2.183   7.960   9.176  0.3604 -0.2442  0.4102
33564SOL    HW2 7808   2.140   7.841   9.260  1.3288  1.0534  2.8394
33565SOL     OW 7809  12.658  12.174  12.633  0.3773  1.0102 -0.0304
33565SOL    HW1 7810  12.570  12.197  12.665  0.2205  0.4100 -0.0324
33565SOL    HW2 7811  12.716  12.203  12.703  0.2277  1.8856 -0.2526
33566SOL     OW 7812   3.466   4.965   4.106  0.6928  0.2605 -0.1203
33566SOL    HW1 7813   3.501   4.904   4.041 -0.4406 -1.1578  0.5473
33566SOL    HW2 7814   3.439   5.041   4.055  2.8677  0.5745 -0.8788
33567SOL     OW 7815   5.981   5.991   4.970 -0.3169  0.1456  0.0490
33567SOL    HW1 7816   5.948   5.922   5.027 -0.9742 -0.0052 -0.5089
33567SOL    HW2 7817   5.962   5.961   4.882  3.0025 -0.8808 -0.4676
33568SOL     OW 7818   5.844   6.895  10.372 -0.1242 -0.5147  0.0670
33568SOL    HW1 7819   5.839   6.987  10.397  0.7842 -0.6061  0.6064
33568SOL    HW2 7820   5.921   6.861  10.418 -0.0163 -1.3592 -0.7048
33569SOL     OW 7821   1.778   5.920  10.531 -0.2023  0.2742  0.4354
33569SOL    HW1 7822   1.686   5.930  10.506 -0.7770 -0.4134  2.1109
33569SOL    HW2 7823   1.775   5.894  10.623  1.7172  2.1924  1.1457
33570SOL     OW 7824   2.381   5.157  12.654  0.0157 -0.0201 -0.4938
33570SOL    HW1 7825   2.290   5.133  12.673  0.1127 -1.4689 -1.7209
33570SOL    HW2 7826   2.385   5.166  12.559  0.8966  1.2551 -0.3671
33571SOL     OW 7827   4.513   7.465  11.934  0.0764 -0.2710  1.0756
33571SOL    HW1 7828   4.431   7.509  11.955  2.1329  4.8565 -0.1736
33571SOL    HW2 7829   4.511   7.454  11.839  1.2523  1.1075  0.8618
33572SOL     OW 7830  10.961   6.728   5.198  0.3520 -0.6696  0.0688
33572SOL    HW1 7831  10.866   6.723   5.199  0.2222  1.0113 -0.1870
33572SOL    HW2 7832  10.982   6.791   5.268  1.0344  1.2618 -1.7452
33573SOL     OW 7833   6.538   7.361   9.451 -0.4034  0.0916 -0.5155
33573SOL    HW1 7834   6.621   7.409   9.448  1.4948 -2.9455 -0.1001
33573SOL    HW2 7835   6.563   7.271   9.469 -3.8801 -0.8796  0.0516
33574SOL     OW 7836   7.717   3.415   8.353  0.3214  0.1721  0.0590
33574SOL    HW1 7837   7.772   3.345   8.387  0.3451  1.3642  2.7955
33574SOL    HW2 7838   7.777   3.490   8.344 -0.7403  1.8406  4.2102
33575SOL     OW 7839   3.076  10.567   4.328 -0.7205 -0.4814 -0.2115
33575SOL    HW1 7840   2.988  10.582   4.293 -1.4643 -1.1784  1.2579
33575SOL    HW2 7841   3.092  10.474   4.314 -0.1650 -0.3400 -0.5554
33576SOL     OW 7842   0.859   8.400   4.295  0.1431 -0.8201 -0.0475
33576SOL    HW1 7843   0.795   8.415   4.364 -0.8445 -1.0511 -0.8951
33576SOL    HW2 7844   0.892   8.487   4.272  0.4736 -0.7425  0.6905
33577SOL     OW 7845  11.101   9.723   2.329 -0.2908  0.4803  0.2182
33577SOL    HW1 7846  11.138   9.688   2.411 -0.2315 -0.1385 -0.0661
33577SOL    HW2 7847  11.028   9.665   2.309  1.6319 -1.4321 -1.8672
33578SOL     OW 7848   2.495   8.379   6.152  0.4248 -0.0681 -0.0990
33578SOL    HW1 7849   2.508   8.403   6.244  1.9844 -0.1512 -0.2653
33578SOL    HW2 7850   2.407   8.342   6.148 -0.0777  0.9297  1.1457
33579SOL     OW 7851   8.431  10.914  10.617  0.3372  0.4445  0.1898
33579SOL    HW1 7852   8.388  11.000  10.623 -1.9435 -0.6760  1.0823
33579SOL    HW2 7853   8.363  10.852  10.643  2.8115 -1.4174  2.7640
33580SOL     OW 7854   9.928  11.832  10.558  0.0019  0.2146 -0.0192
33580SOL    HW1 7855   9.936  11.870  10.470  2.4573 -0.1313 -0.0023
33580SOL    HW2 7856   9.953  11.904  10.617  1.8290 -0.5190  0.1606
33581SOL     OW 7857   5.767  12.432   9.725  0.0241  0.4356  0.2356
33581SOL    HW1 7858   5.819  12.360   9.689 -0.2518 -0.0659  0.8219
33581SOL    HW2 7859   5.822  12.509   9.715  0.3712  0.1257 -0.3013
33582SOL     OW 7860   5.270   9.471  10.349 -0.1415  0.2809 -0.1930
33582SOL    HW1 7861   5.263   9.511  10.263 -0.6258 -0.1032 -0.3357
33582SOL    HW2 7862   5.248   9.379  10.335  1.9425 -0.2923 -0.0614
33583SOL     OW 7863  11.861   9.212  10.243 -0.0137 -0.2418 -0.5037
33583SOL    HW1 7864  11.782   9.266  10.246  0.0012 -0.2661  1.8166
33583SOL    HW2 7865  11.919   9.252  10.307  0.4916 -2.2706  0.3523
33584SOL     OW 7866   4.713   8.805   9.185 -0.3037  0.0171 -0.1953
33584SOL    HW1 7867   4.747   8.717   9.200 -0.4781  0.1349  1.0342
33584SOL    HW2 7868   4.635   8.809   9.241  0.6447  1.5123  1.0748
33585SOL     OW 7869   8.657  12.244   2.058 -0.7520 -0.3995 -0.0873
33585SOL    HW1 7870   8.622  12.305   2.123  2.5152  2.6116 -0.8452
33585SOL    HW2 7871   8.617  12.272   1.976  0.7001  0.8812 -0.4243
33586SOL     OW 7872   8.402   1.363   8.288  0.4407  0.5987  0.1856
33586SOL    HW1 7873   8.319   1.410   8.296  0.1287  0.2460 -0.8586
33586SOL    HW2 7874   8.452   1.413   8.224  1.2249  1.0475  1.1224
33587SOL     OW 7875  12.899   7.680  11.536  0.0731  0.0372  0.0281
33587SOL    HW1 7876  12.852   7.713  11.612  0.3499  1.1307 -0.2587
33587SOL    HW2 7877  12.947   7.604  11.568  1.4476  1.3995  1.3356
33588SOL     OW 7878   3.269   2.947  12.819 -0.1776 -0.3532 -0.1294
33588SOL    HW1 7879   3.323   3.012  12.773  2.3786 -1.9793  0.3558
33588SOL    HW2 7880   3.226   2.898  12.749  1.6258 -1.1272 -0.7671
33589SOL     OW 7881   8.562   3.157  10.204 -1.2227 -0.0363  0.0045
33589SOL    HW1 7882   8.531   3.195  10.122 -1.1431  0.0236  0.0034
33589SOL    HW2 7883   8.657   3.152  10.195 -1.0530  1.4504  0.7235
33590SOL     OW 7884   0.566   0.525   8.339 -0.0403 -0.0845  0.0475
33590SOL    HW1 7885   0.534   0.464   8.272 -0.7852  0.3803 -0.0282
33590SOL    HW2 7886   0.516   0.605   8.324  0.5065  0.3540  0.5266
33591SOL     OW 7887   0.571   9.243   1.471 -0.1542  0.3610  0.3705
33591SOL    HW1 7888   0.574   9.163   1.524 -0.2352  1.0105  1.3997
33591SOL    HW2 7889   0.489   9.286   1.497  0.2814  1.1731  0.4514
33592SOL     OW 7890   2.225   2.568  10.225  0.4868 -0.1985  0.1490
33592SOL    HW1 7891   2.171   2.528  10.157  0.6329 -0.8486  0.4013
33592SOL    HW2 7892   2.202   2.661  10.223  1.0193 -0.0743 -1.2611
33593SOL     OW 7893  11.782   3.432   7.410 -0.1436 -0.1534 -0.3706
33593SOL    HW1 7894  11.740   3.355   7.446  0.5178 -1.4080 -2.1096
33593SOL    HW2 7895  11.726   3.505   7.436 -0.3430 -1.0636  2.0421
33594SOL     OW 7896   2.551   6.439   7.393  0.1897 -0.0687  0.3050
33594SOL    HW1 7897   2.460   6.443   7.423 -0.0851  0.4784 -0.5488
33594SOL    HW2 7898   2.571   6.345   7.391 -0.6575 -0.2513 -0.3274
33595SOL     OW 7899   3.882   6.532   7.503 -0.1522 -0.4072 -0.7574
33595SOL    HW1 7900   3.821   6.583   7.450 -0.1604  0.6328  0.2326
33595SOL    HW2 7901   3.955   6.512   7.443 -0.9083 -0.6702 -1.6113
33596SOL     OW 7902   7.026  10.623   4.985 -0.5350  0.0081  0.2629
33596SOL    HW1 7903   7.023  10.576   4.901  1.3510  1.7203 -0.8439
33596SOL    HW2 7904   7.117  10.649   4.996 -1.1257  1.7321  1.7410
33597SOL     OW 7905   5.024  11.875   6.756 -0.4905  0.1198  0.0587
33597SOL    HW1 7906   5.105  11.830   6.736  0.0268  0.7389  0.7133
33597SOL    HW2 7907   5.035  11.908   6.845 -1.6153 -0.1257  0.3072
33598SOL     OW 7908   3.670   2.795  12.803 -0.3153 -0.4451  0.2439
33598SOL    HW1 7909   3.686   2.737  12.728 -0.5975 -1.3310  0.8507
33598SOL    HW2 7910   3.756   2.808  12.843  0.0644  1.0896 -0.9495
33599SOL     OW 7911  12.509  11.597   6.916  0.6514  0.0961  0.7737
33599SOL    HW1 7912  12.546  11.613   7.003  1.0032  0.6968  0.5140
33599SOL    HW2 7913  12.584  11.584   6.860  0.4567  0.6725  0.3708
33600SOL     OW 7914   5.785   1.528   5.427  0.2949 -0.3049 -0.5328
33600SOL    HW1 7915   5.792   1.450   5.482  1.9169 -0.6771 -1.2416
33600SOL    HW2 7916   5.762   1.495   5.340  0.4324  0.0599 -0.7088
33601SOL     OW 7917  10.590   9.906   4.708 -0.4803 -0.2890  0.1388
33601SOL    HW1 7918  10.682   9.884   4.718  0.0990  2.1516  0.8119
33601SOL    HW2 7919  10.546   9.859   4.779  0.8593  1.5453  2.3265
33602SOL     OW 7920  12.576  10.544  12.581 -0.2333  0.1542  0.4546
33602SOL    HW1 7921  12.599  10.636  12.594 -0.3736  0.4119 -0.9587
33602SOL    HW2 7922  12.502  10.530  12.639 -0.6930  1.1508  0.1337
33603SOL     OW 7923   8.524  10.905  11.497  0.2604 -0.5285 -0.0629
33603SOL    HW1 7924   8.578  10.872  11.424 -0.4778 -3.3841  0.5483
33603SOL    HW2 7925   8.588  10.928  11.565  0.8494 -2.1574 -0.0100
33604SOL     OW 7926   4.493   5.681   7.786  0.4978  0.2162  0.0998
33604SOL    HW1 7927   4.537   5.604   7.823  0.5603  0.5961  0.8318
33604SOL    HW2 7928   4.404   5.652   7.768  0.9259 -0.4585 -1.0530
33605SOL     OW 7929   1.325  12.820   5.656  0.0817  0.0573 -0.0608
33605SOL    HW1 7930   1.381  12.770   5.597  2.4677  1.3535  0.9763
33605SOL    HW2 7931   1.353  12.794   5.744 -1.5055  0.2078  0.5402
33606SOL     OW 7932   3.636  12.838   9.766 -0.7642  0.4375 -0.6345
33606SOL    HW1 7933   3.568  12.905   9.779 -1.4985 -0.2261 -0.9926
33606SOL    HW2 7934   3.700  12.855   9.835 -1.6802  0.5932  0.1910
33607SOL     OW 7935   9.163   7.937  10.830  0.1689  0.2895  0.4597
33607SOL    HW1 7936   9.158   8.032  10.830  0.8680  0.5562  5.0757
33607SOL    HW2 7937   9.255   7.918  10.812  0.2189  0.5395  0.4547
33608SOL     OW 7938   9.575  11.559   5.559 -0.0596 -0.4364  0.1744
33608SOL    HW1 7939   9.572  11.524   5.470  0.1000  0.9315 -0.3966
33608SOL    HW2 7940   9.639  11.630   5.555 -0.7068  0.2351  1.1614
33609SOL     OW 7941   6.239  10.724   8.515  0.1852 -0.6410  0.0455
33609SOL    HW1 7942   6.199  10.649   8.471  0.1018 -1.0790  0.8498
33609SOL    HW2 7943   6.197  10.800   8.475  0.8776 -0.9758 -1.3781
33610SOL     OW 7944   6.633   4.407   4.431 -0.1885  0.2731 -0.2929
33610SOL    HW1 7945   6.670   4.331   4.477  1.8815  1.0142 -0.6484
33610SOL    HW2 7946   6.541   4.409   4.459  0.2947 -0.9645  1.5684
33611SOL     OW 7947   7.664  11.876   4.534 -0.0029  0.3570 -0.4323
33611SOL    HW1 7948   7.704  11.876   4.621  0.0858 -0.9759 -0.4552
33611SOL    HW2 7949   7.680  11.964   4.501 -1.2073  1.3397  1.4123
33612SOL     OW 7950   2.484   8.650   6.745  0.1321  0.0885  0.2737
33612SOL    HW1 7951   2.475   8.556   6.759  2.7573 -0.3052 -0.1915
33612SOL    HW2 7952   2.497   8.660   6.651  1.2942  0.7188  0.4708
33613SOL     OW 7953  10.168   3.054   3.340 -0.7361 -0.2803  0.3323
33613SOL    HW1 7954  10.231   3.006   3.287 -1.5489  0.1866 -1.1022
33613SOL    HW2 7955  10.202   3.144   3.344 -0.4327 -0.4151  1.0354
33614SOL     OW 7956   9.843   0.958   5.667  0.2480  0.8866 -0.1202
33614SOL    HW1 7957   9.818   1.049   5.686  0.8106  0.9472  0.3718
33614SOL    HW2 7958   9.939   0.958   5.673  0.2337  0.1870  0.2506
33615SOL     OW 7959   6.302   5.959   7.592  0.0542 -0.0138 -0.0840
33615SOL    HW1 7960   6.259   5.991   7.672  1.6285 -1.9481  1.6436
33615SOL    HW2 7961   6.335   6.038   7.550  0.5824  0.9710  2.0495
33616SOL     OW 7962   3.456   2.643   1.345 -0.7764 -0.4014 -0.0510
33616SOL    HW1 7963   3.458   2.577   1.276  0.3303 -0.3855 -0.0476
33616SOL    HW2 7964   3.460   2.727   1.298  0.0422 -0.3919  0.0241
33617SOL     OW 7965   6.405   7.813   0.353  0.7324 -0.2420  0.1372
33617SOL    HW1 7966   6.404   7.907   0.372 -0.8879 -0.4868  1.4777
33617SOL    HW2 7967   6.369   7.806   0.265  1.2182  0.4087 -0.1239
33618SOL     OW 7968   5.698   2.700   0.971  0.2402  0.8445  0.4140
33618SOL    HW1 7969   5.793   2.713   0.972  0.5653 -1.2524  1.4960
33618SOL    HW2 7970   5.666   2.757   1.041  0.9921 -0.0343  1.5217
33619SOL     OW 7971   6.213   2.366   4.175  0.1868  0.3928  0.5474
33619SOL    HW1 7972   6.267   2.289   4.153  2.2168  1.8595  0.0610
33619SOL    HW2 7973   6.250   2.397   4.258 -0.9676  0.5769  1.0130
33620SOL     OW 7974   9.093  10.342  10.516 -0.1211 -0.0880 -0.0421
33620SOL    HW1 7975   9.046  10.271  10.473  1.3342 -0.4349 -1.1048
33620SOL    HW2 7976   9.096  10.316  10.608  0.0454 -1.1970 -0.3522
33621SOL     OW 7977   7.640   9.617  11.398  0.3085  0.3273 -0.0030
33621SOL    HW1 7978   7.686   9.681  11.343  0.6020 -0.0448 -0.1919
33621SOL    HW2 7979   7.640   9.537  11.347  2.7907 -0.7452  1.5053
33622SOL     OW 7980   4.207   0.972   0.072  0.2746 -0.1601 -0.4816
33622SOL    HW1 7981   4.248   0.935   0.151 -0.9783  1.5871  1.0776
33622SOL    HW2 7982   4.280   1.009   0.023  0.9832 -0.4018  0.3590
33623SOL     OW 7983  10.854   2.368   7.422 -0.1893 -0.0799  0.2861
33623SOL    HW1 7984  10.812   2.324   7.496  0.9860 -3.1863 -0.7266
33623SOL    HW2 7985  10.786   2.373   7.355 -0.4585  0.0361  0.5653
33624SOL     OW 7986  12.624   5.720   9.200 -0.0428  0.2188 -0.0047
33624SOL    HW1 7987  12.588   5.634   9.177  1.3024  0.0349 -1.6972
33624SOL    HW2 7988  12.617   5.725   9.295 -3.3651 -0.2513 -0.1277
33625SOL     OW 7989   9.633   9.993  11.055  0.0911 -0.0188  0.5120
33625SOL    HW1 7990   9.633   9.964  11.146 -0.9864 -0.3251  0.4390
33625SOL    HW2 7991   9.659  10.084  11.058  1.1523 -0.3305  1.0078
33626SOL     OW 7992   8.390   7.443   4.631  0.1741 -0.6739  0.3084
33626SOL    HW1 7993   8.468   7.397   4.661  0.1798 -0.6840  0.2779
33626SOL    HW2 7994   8.322   7.421   4.695  0.5643  0.4976  1.1729
33627SOL     OW 7995   9.551   7.496   7.624 -0.1616 -0.0968  0.3089
33627SOL    HW1 7996   9.516   7.412   7.595 -0.3430  0.5606 -1.5350
33627SOL    HW2 7997   9.530   7.557   7.552  1.7955  1.0556  0.6323
33628SOL     OW 7998   0.083   0.806   9.521 -0.2689 -0.0093  0.2401
33628SOL    HW1 7999   0.112   0.719   9.547  0.1556 -0.0944 -0.5001
33628SOL    HW2 8000  -0.011   0.806   9.540 -0.0305 -0.1334  1.5586
33629SOL     OW 8001  10.103   4.014  10.572  0.2999  0.5854 -0.1461
33629SOL    HW1 8002  10.050   3.952  10.521  1.0396  0.1750 -0.4217
33629SOL    HW2 8003  10.180   4.031  10.517  0.9718  0.3563  0.7097
33630SOL     OW 8004  11.170  11.914  12.335  0.2919 -0.7713 -0.0072
33630SOL    HW1 8005  11.244  11.961  12.297 -0.3945  0.1921 -0.1786
33630SOL    HW2 8006  11.168  11.942  12.427 -0.7590  0.4017 -0.3582
33631SOL     OW 8007   6.140  11.978   7.114  0.4994 -0.0807 -0.4570
33631SOL    HW1 8008   6.130  11.893   7.072  0.1932  0.1752 -0.9166
33631SOL    HW2 8009   6.224  11.973   7.160 -0.8227 -1.7067  2.0497
33632SOL     OW 8010   6.523   5.637   0.011  0.7227 -1.0003  0.0766
33632SOL    HW1 8011   6.497   5.727  -0.008  1.0040 -1.1460 -1.0324
33632SOL    HW2 8012   6.454   5.605   0.070 -0.6077 -0.7680 -1.2936
33633SOL     OW 8013   1.005   4.157  11.535 -0.1495 -0.0587  0.2228
33633SOL    HW1 8014   0.937   4.215  11.567 -0.9271  0.0344 -1.4875
33633SOL    HW2 8015   0.976   4.132  11.447  2.5841  1.0119 -1.1161
33634SOL     OW 8016  11.890   1.329   6.238  0.1324 -0.1679  0.5995
33634SOL    HW1 8017  11.969   1.382   6.252 -0.6042  0.8153  1.1478
33634SOL    HW2 8018  11.818   1.392   6.241 -0.6975 -1.0777  0.3056
33635SOL     OW 8019  10.791   2.855   7.347 -0.2721 -0.0201  0.7697
33635SOL    HW1 8020  10.786   2.947   7.319  1.5201  0.2743  1.2789
33635SOL    HW2 8021  10.737   2.851   7.426 -2.8130 -0.1441 -0.8603
33636SOL     OW 8022   8.515   8.738   3.701 -0.3021  0.4203  0.7717
33636SOL    HW1 8023   8.487   8.673   3.766  0.8821 -0.3960  0.4975
33636SOL    HW2 8024   8.449   8.731   3.631 -0.2622 -0.4273  0.8005
33637SOL     OW 8025   2.300   2.105   6.212 -0.1247  0.0668 -0.3253
33637SOL    HW1 8026   2.259   2.054   6.141  0.4971 -1.9446  0.6857
33637SOL    HW2 8027   2.235   2.106   6.282  0.0503  0.2656 -0.1645
33638SOL     OW 8028  11.828   1.866   0.379 -0.4267 -0.1993  0.5481
33638SOL    HW1 8029  11.837   1.772   0.394  0.8919  0.1919  2.8117
33638SOL    HW2 8030  11.914   1.902   0.400 -0.3460  1.3856 -2.0406
33639SOL     OW 8031   1.965  10.190   0.657 -0.1071  0.0885  0.4928
33639SOL    HW1 8032   1.876  10.164   0.631 -0.5810  1.4654  0.6786
33639SOL    HW2 8033   1.982  10.140   0.738  0.0943 -1.6959 -0.6012
33640SOL     OW 8034  11.709   6.105   6.684  0.0215  0.2004 -0.2050
33640SOL    HW1 8035  11.626   6.072   6.649  0.0437 -0.4133  0.2974
33640SOL    HW2 8036  11.684   6.159   6.760  0.0154  0.9702 -0.7441
33641SOL     OW 8037   5.478   4.282   2.486 -0.0772  0.1256  0.2541
33641SOL    HW1 8038   5.549   4.229   2.522  0.7524 -0.0529 -1.5100
33641SOL    HW2 8039   5.429   4.312   2.562  0.6302 -1.5025  1.4056
33642SOL     OW 8040  11.332   1.280   7.541 -0.5640  0.2835 -0.0278
33642SOL    HW1 8041  11.343   1.350   7.605  0.0446  0.4980 -0.3564
33642SOL    HW2 8042  11.378   1.205   7.579  1.0819  0.8256 -0.8426
33643SOL     OW 8043  10.952   1.219  11.029 -0.0746 -0.2056  0.0537
33643SOL    HW1 8044  10.993   1.137  11.002  0.4618 -0.4546  1.5114
33643SOL    HW2 8045  10.968   1.279  10.957 -0.1102 -1.2577 -0.8587
33644SOL     OW 8046   6.110  12.701   7.474  0.2700  0.4428 -0.2389
33644SOL    HW1 8047   6.169  12.626   7.484  2.6039  2.1752 -0.1033
33644SOL    HW2 8048   6.118  12.749   7.556 -2.3809  0.1454  0.2943
33645SOL     OW 8049   5.593  11.157  12.137  0.5828 -0.4153  0.6774
33645SOL    HW1 8050   5.629  11.206  12.063  3.0566  0.5553  2.4381
33645SOL    HW2 8051   5.501  11.142  12.112  0.6953  1.8798 -1.5466
33646SOL     OW 8052   5.913  10.391   1.982 -0.3864 -0.0733 -0.5731
33646SOL    HW1 8053   5.908  10.299   2.005  0.8520 -0.0302 -0.0516
33646SOL    HW2 8054   5.884  10.437   2.060 -0.3371 -0.0014 -0.5973
33647SOL     OW 8055   6.118   6.275  10.427  0.6367  0.0221 -0.3654
33647SOL    HW1 8056   6.203   6.243  10.455 -0.4491 -1.3663  1.6297
33647SOL    HW2 8057   6.081   6.203  10.375  0.0138 -0.1198  0.2561
33648SOL     OW 8058   0.159  10.669  10.945  0.6669 -0.0081  0.8463
33648SOL    HW1 8059   0.222  10.734  10.975  1.0634  0.8068 -1.5737
33648SOL    HW2 8060   0.088  10.719  10.907  0.7007 -0.9343 -0.5241
33649SOL     OW 8061   7.191   9.750   5.555 -0.1804  0.0853 -0.1395
33649SOL    HW1 8062   7.151   9.701   5.627 -0.9831 -1.0478 -1.3057
33649SOL    HW2 8063   7.170   9.699   5.477  0.8105  1.1888 -1.1707
33650SOL     OW 8064  10.843   5.493  11.047  0.1714 -0.0566 -0.2138
33650SOL    HW1 8065  10.819   5.543  11.125  0.0156 -0.2818 -0.1151
33650SOL    HW2 8066  10.853   5.403  11.079 -3.0218 -0.8113 -0.9693
33651SOL     OW 8067  11.639  10.951  10.312 -0.1041 -0.3018 -0.2285
33651SOL    HW1 8068  11.728  10.920  10.297  1.1187  1.9418  1.6301
33651SOL    HW2 8069  11.636  11.036  10.268 -0.6965  0.4738  1.2599
33652SOL     OW 8070   3.148  10.752   8.944  0.0268 -0.0606  0.0942
33652SOL    HW1 8071   3.209  10.775   9.013  0.2130 -1.1021  0.2990
33652SOL    HW2 8072   3.203  10.734   8.868 -0.2487  2.5682 -0.8295
33653SOL     OW 8073   6.896   4.953  10.868 -0.3595 -0.3753  0.3068
33653SOL    HW1 8074   6.965   5.016  10.848 -0.2715  0.1327  2.0679
33653SOL    HW2 8075   6.835   5.001  10.925 -2.0526 -0.8903 -0.9730
33654SOL     OW 8076   4.140   6.025   9.277 -0.1460 -0.1006  0.4378
33654SOL    HW1 8077   4.174   5.971   9.348  2.0533 -0.1810 -0.6073
33654SOL    HW2 8078   4.109   5.962   9.212 -1.8293 -0.0253  1.1034
33655SOL     OW 8079   3.965   1.591   6.521 -0.4814 -0.4238  0.1702
33655SOL    HW1 8080   3.933   1.504   6.546  0.1438 -1.4131 -2.2466
33655SOL    HW2 8081   3.951   1.596   6.427 -1.0059  2.3585  0.3058
33656SOL     OW 8082   3.788   9.507   4.058 -0.3973 -0.8314 -0.2763
33656SOL    HW1 8083   3.748   9.583   4.101 -0.8163 -1.1331 -0.1235
33656SOL    HW2 8084   3.733   9.433   4.085 -1.1371 -0.9269 -1.9430
33657SOL     OW 8085   9.804   6.386   0.262  0.2187 -0.2438 -0.1593
33657SOL    HW1 8086   9.828   6.405   0.352 -0.0228  1.9780 -0.5153
33657SOL    HW2 8087   9.717   6.424   0.251  0.4516 -0.0358 -1.4610
33658SOL     OW 8088   2.268   8.586   2.021 -0.0128  0.5050 -0.1102
33658SOL    HW1 8089   2.279   8.583   2.116  0.0600 -1.0319 -0.1423
33658SOL    HW2 8090   2.260   8.679   2.001 -0.5624  0.8329  1.4556
33659SOL     OW 8091  12.590  10.293   5.114  0.5702  0.2817 -0.0492
33659SOL    HW1 8092  12.640  10.337   5.182  1.0548 -1.0727  0.5188
33659SOL    HW2 8093  12.510  10.264   5.159  1.1757 -1.1719  0.1573
33660SOL     OW 8094   3.395   6.397   0.316  0.0255 -0.0051  0.2344
33660SOL    HW1 8095   3.441   6.405   0.400  0.7864  0.1700 -0.1933
33660SOL    HW2 8096   3.313   6.444   0.330  0.6182  0.9678  0.5542
33661SOL     OW 8097  11.917   1.395   8.210  0.1655 -0.8077 -0.5195
33661SOL    HW1 8098  11.982   1.336   8.247  0.0886 -0.7535 -0.2996
33661SOL    HW2 8099  11.959   1.480   8.210 -0.7587 -0.2674  1.9248
33662SOL     OW 8100   4.388   8.479   2.225  0.1641  0.1125 -0.1506
33662SOL    HW1 8101   4.390   8.384   2.210 -1.4964  0.2951 -1.8160
33662SOL    HW2 8102   4.441   8.515   2.154  0.9135  0.4554  0.5657
33663SOL     OW 8103  12.697   0.219   9.694  0.1842  0.8518  0.2284
33663SOL    HW1 8104  12.789   0.200   9.678  0.1707  0.6926  0.3351
33663SOL    HW2 8105  12.661   0.241   9.608 -0.0142 -0.5334 -0.0688
33664SOL     OW 8106   0.274   2.731   5.280 -0.1680 -0.8148  0.3874
33664SOL    HW1 8107   0.288   2.693   5.367  1.7677 -0.2883  0.3567
33664SOL    HW2 8108   0.324   2.674   5.222  0.2333  0.0207 -0.0883
33665SOL     OW 8109   9.121   5.638   7.288  0.1209  0.1697 -0.4434
33665SOL    HW1 8110   9.139   5.600   7.202  1.7021 -2.9413  1.0848
33665SOL    HW2 8111   9.044   5.592   7.319  0.3627  0.2827  0.3499
33666SOL     OW 8112  10.650   3.454   3.078 -0.5153 -0.4070 -0.0328
33666SOL    HW1 8113  10.579   3.392   3.061 -2.0152  1.5184 -1.2491
33666SOL    HW2 8114  10.714   3.437   3.009 -2.2782  1.2243 -2.2118
33667SOL     OW 8115   2.528   0.724   5.605 -0.5406  0.1914  0.1051
33667SOL    HW1 8116   2.497   0.635   5.623 -1.6670 -0.0696 -2.6417
33667SOL    HW2 8117   2.607   0.733   5.659 -0.4496 -2.4315  0.5583
33668SOL     OW 8118   8.787  11.839   7.353  0.0206  0.1323  0.1452
33668SOL    HW1 8119   8.853  11.909   7.354 -0.0958  0.2624 -0.5184
33668SOL    HW2 8120   8.724  11.867   7.287  0.2938 -0.8751 -0.5700
33669SOL     OW 8121   9.009   8.270   7.625  0.5653 -0.0765 -0.2638
33669SOL    HW1 8122   8.980   8.274   7.716  2.9523  0.8110  0.5334
33669SOL    HW2 8123   8.969   8.346   7.583  2.7403  2.0166  1.1931
33670SOL     OW 8124   4.137   0.378   7.611 -0.3546 -0.6632 -0.0168
33670SOL    HW1 8125   4.135   0.473   7.623  2.1121 -0.5306 -0.2071
33670SOL    HW2 8126   4.171   0.345   7.694  1.5919 -1.1046 -0.9600
33671SOL     OW 8127   9.990  10.370   6.071 -0.2825 -0.2380  0.2969
33671SOL    HW1 8128   9.978  10.331   5.985  0.0955  1.8492 -0.7711
33671SOL    HW2 8129   9.977  10.464   6.057  2.0780  0.4528  2.0256
33672SOL     OW 8130   1.078   6.447  11.284  0.4752  0.2961 -0.2135
33672SOL    HW1 8131   1.104   6.508  11.353  1.1664 -0.5080  0.2463
33672SOL    HW2 8132   1.053   6.367  11.330 -0.8342  0.3415 -0.7816
33673SOL     OW 8133   0.543   6.097  10.056  0.1997  0.0396 -0.0679
33673SOL    HW1 8134   0.511   6.187  10.055 -0.2872 -0.0873  1.4018
33673SOL    HW2 8135   0.570   6.082  10.146  0.2156 -1.3069 -0.2740
33674SOL     OW 8136  11.838   3.539   3.825 -0.2643 -0.1385 -0.0771
33674SOL    HW1 8137  11.751   3.526   3.864 -0.2852 -0.7109 -0.2930
33674SOL    HW2 8138  11.829   3.506   3.735 -0.5220  2.1948 -0.9805
33675SOL     OW 8139   8.589   0.823   6.089 -0.2692 -0.2331  0.2417
33675SOL    HW1 8140   8.590   0.916   6.114  1.0180 -0.1150 -0.1707
33675SOL    HW2 8141   8.514   0.815   6.031 -0.2382  0.6177  0.0677
33676SOL     OW 8142   0.452   2.282  12.190 -0.2070 -0.5831 -0.2963
33676SOL    HW1 8143   0.468   2.217  12.258  2.9181 -1.2349 -1.4780
33676SOL    HW2 8144   0.484   2.241  12.109  0.4499  1.8235 -1.3482
33677SOL     OW 8145   4.962   0.858  12.051  0.1152  0.4813  0.4081
33677SOL    HW1 8146   4.937   0.949  12.036 -0.0324  0.2576 -0.8929
33677SOL    HW2 8147   4.893   0.808  12.007  1.6346 -0.1859 -1.3562
33678SOL     OW 8148   0.028   3.763   8.347 -0.1957 -0.4618 -0.0723
33678SOL    HW1 8149  -0.064   3.788   8.343  0.0243  0.4731  0.5374
33678SOL    HW2 8150   0.065   3.817   8.416  1.4233  1.1586 -2.0738
33679SOL     OW 8151   6.673   5.878   0.633 -0.1100  0.3817 -0.2210
33679SOL    HW1 8152   6.593   5.897   0.584 -0.1212 -0.2388 -0.4649
33679SOL    HW2 8153   6.744   5.896   0.571 -0.1113 -0.0998 -0.3696
33680SOL     OW 8154   8.549   8.447   1.842  0.1493 -0.0173 -0.2949
33680SOL    HW1 8155   8.478   8.491   1.889  0.1116 -0.7889  0.3956
33680SOL    HW2 8156   8.622   8.509   1.844 -0.4179  0.6711 -0.7792
33681SOL     OW 8157   6.917  12.666   4.690 -0.3995 -0.2671 -0.3188
33681SOL    HW1 8158   6.899  12.700   4.778 -1.2537 -0.8086 -0.2749
33681SOL    HW2 8159   6.902  12.741   4.632  2.7996  0.8965  0.1692
33682SOL     OW 8160   4.700  10.045   1.314  0.0404 -0.3326  0.1135
33682SOL    HW1 8161   4.736   9.983   1.377  0.0644  1.1762  1.7039
33682SOL    HW2 8162   4.775  10.076   1.264  0.4160  0.1338  0.9409
33683SOL     OW 8163   4.721   2.467   3.948  0.3035 -1.0456 -0.5309
33683SOL    HW1 8164   4.650   2.405   3.929 -1.7099  0.6808  0.8628
33683SOL    HW2 8165   4.676   2.546   3.980  2.8562  0.3159 -0.0393
33684SOL     OW 8166   1.613   7.925   8.324 -0.0920  0.0961 -0.1404
33684SOL    HW1 8167   1.576   7.935   8.236 -0.7666  0.6037  0.1849
33684SOL    HW2 8168   1.639   8.014   8.349  0.1815 -0.0587  0.1341
33685SOL     OW 8169  11.096  11.878   4.855  0.4584 -0.3559  0.1828
33685SOL    HW1 8170  11.176  11.928   4.871  0.5927 -0.6461  0.4182
33685SOL    HW2 8171  11.090  11.816   4.928 -0.3036  0.0676  0.5019
33686SOL     OW 8172  12.384   0.051   5.538  0.1445  0.2673 -0.6212
33686SOL    HW1 8173  12.425  -0.024   5.495 -0.6804 -0.7710  0.3394
33686SOL    HW2 8174  12.419   0.051   5.627 -0.3468  0.6258 -0.4222
33687SOL     OW 8175   4.658   6.575   2.848 -0.1343  0.3769 -0.2714
33687SOL    HW1 8176   4.732   6.634   2.842  1.5176 -1.4102  1.1014
33687SOL    HW2 8177   4.685   6.497   2.799 -0.8640 -0.5006  0.6642
33688SOL     OW 8178   5.763  10.477  11.691  0.7719  0.0004 -0.4234
33688SOL    HW1 8179   5.848  10.516  11.708  0.9459  0.0254 -1.2975
33688SOL    HW2 8180   5.701  10.530  11.741  1.1628  0.5317 -0.4983
33689SOL     OW 8181   7.914   1.291   7.380  0.5568  0.4626 -0.2992
33689SOL    HW1 8182   7.911   1.277   7.475  0.5221  2.4121  0.0445
33689SOL    HW2 8183   7.913   1.387   7.371  0.8596  0.3108 -2.2656
33690SOL     OW 8184   3.883   3.488   6.058  0.7092 -0.0520  0.4836
33690SOL    HW1 8185   3.844   3.405   6.030 -2.5946  2.0026 -1.6033
33690SOL    HW2 8186   3.821   3.524   6.121  2.9039  0.2557  2.6433
33691SOL     OW 8187  12.043   5.664   4.950 -0.1852 -0.8749  0.2170
33691SOL    HW1 8188  12.100   5.738   4.929 -0.5538 -0.4227  0.7725
33691SOL    HW2 8189  12.054   5.603   4.877  0.2783 -0.3603 -0.1452
33692SOL     OW 8190   0.678  10.713  10.463 -0.0583  0.0951  0.1362
33692SOL    HW1 8191   0.741  10.721  10.534  0.5797  2.4126 -0.5928
33692SOL    HW2 8192   0.665  10.803  10.433 -2.3241 -0.5212 -0.9480
33693SOL     OW 8193   2.250  10.950   2.315 -0.9103 -0.1729 -0.6048
33693SOL    HW1 8194   2.268  10.883   2.381 -1.4265  0.2912  0.0214
33693SOL    HW2 8195   2.253  10.903   2.232  0.9515 -0.5383 -0.3721
33694SOL     OW 8196   2.273   3.971   3.935  0.3242  0.0229  0.4228
33694SOL    HW1 8197   2.212   4.036   3.899 -0.3478 -0.1990  1.1104
33694SOL    HW2 8198   2.328   4.021   3.996  1.7103  0.4691 -1.1426
33695SOL     OW 8199   6.180   9.112   7.479 -0.0072 -0.5523 -0.0610
33695SOL    HW1 8200   6.088   9.136   7.484 -0.0851 -0.3358 -1.8501
33695SOL    HW2 8201   6.195   9.093   7.387  1.9772  0.4002  0.0079
33696SOL     OW 8202  11.066  11.662   6.233 -0.2705  0.1203  0.1576
33696SOL    HW1 8203  11.109  11.606   6.297  2.7788  0.6637 -1.2551
33696SOL    HW2 8204  11.092  11.751   6.257 -2.0575  0.6847  0.2107
33697SOL     OW 8205   7.953   9.810   4.426 -0.4799 -0.4992 -0.0835
33697SOL    HW1 8206   7.988   9.733   4.471 -0.7524  0.0353  1.0841
33697SOL    HW2 8207   7.929   9.778   4.339  1.2233 -1.2841 -0.3005
33698SOL     OW 8208   3.153   2.869   1.153  0.4368 -0.5483 -0.2076
33698SOL    HW1 8209   3.119   2.958   1.166  0.3697 -0.8763  2.2551
33698SOL    HW2 8210   3.095   2.813   1.205  1.4743 -1.8237 -0.3748
33699SOL     OW 8211   9.920   2.608   1.300 -0.1655 -0.2347  0.4587
33699SOL    HW1 8212   9.921   2.579   1.391  0.4619  0.6484  0.7504
33699SOL    HW2 8213   9.957   2.535   1.251  1.1022 -0.0746  1.1342
33700SOL     OW 8214  10.303   9.941   5.937 -0.3913 -0.1765  0.0046
33700SOL    HW1 8215  10.327   9.860   5.982 -0.2926 -0.2983 -0.2691
33700SOL    HW2 8216  10.340   9.933   5.850  0.4788  0.5918  0.2890
33701SOL     OW 8217   5.847  11.592   2.105  0.3758 -0.1599 -0.2454
33701SOL    HW1 8218   5.882  11.540   2.177  1.1792 -0.3110 -0.7273
33701SOL    HW2 8219   5.922  11.642   2.072  0.0588 -0.1968 -1.0548
33702SOL     OW 8220   4.121   1.063  11.302 -0.8550  0.0544  0.6500
33702SOL    HW1 8221   4.081   1.131  11.356  0.0913  1.0655  0.1242
33702SOL    HW2 8222   4.097   1.087  11.212 -1.3374 -0.8827  0.5134
33703SOL     OW 8223  11.732   2.804  11.168  0.2396  0.8369  0.0847
33703SOL    HW1 8224  11.669   2.733  11.156  1.2783 -0.5731  2.2536
33703SOL    HW2 8225  11.736   2.847  11.083 -1.3054 -0.9711 -0.9963
33704SOL     OW 8226  10.694   8.445   5.900 -0.1009 -0.0282 -0.3926
33704SOL    HW1 8227  10.724   8.419   5.987 -0.9299  0.9860  0.2226
33704SOL    HW2 8228  10.599   8.448   5.907 -0.2015 -0.3621 -1.4660
33705SOL     OW 8229  10.832   4.919   8.881  0.3757  0.1398 -0.1685
33705SOL    HW1 8230  10.901   4.986   8.886 -0.1949  0.7041  0.5364
33705SOL    HW2 8231  10.750   4.969   8.890 -0.0186 -0.7932  2.1567
33706SOL     OW 8232   8.775  12.306   3.424  0.3424  0.0707  0.7343
33706SOL    HW1 8233   8.830  12.229   3.439 -0.3660 -0.3012  1.5098
33706SOL    HW2 8234   8.693  12.285   3.468 -0.8453  0.1420 -1.3451
33707SOL     OW 8235   3.596   6.804  11.181  0.3986 -0.0859  0.1536
33707SOL    HW1 8236   3.686   6.804  11.149  0.8337  0.2833  1.3170
33707SOL    HW2 8237   3.573   6.712  11.191  1.0856 -0.1777  0.9911
33708SOL     OW 8238  10.588   8.357   2.713 -0.1987 -0.2510  0.1282
33708SOL    HW1 8239  10.673   8.350   2.670 -0.1481 -3.0261  0.5144
33708SOL    HW2 8240  10.526   8.323   2.650 -0.9012  0.6432  0.3044
33709SOL     OW 8241  10.674  12.554   2.584  0.0647  0.0536  0.4592
33709SOL    HW1 8242  10.677  12.496   2.660  0.5851  1.4283  1.5418
33709SOL    HW2 8243  10.597  12.608   2.599 -0.5532 -0.4932 -0.6588
33710SOL     OW 8244   1.689   8.493   6.483 -0.0115 -0.1486 -0.6462
33710SOL    HW1 8245   1.777   8.486   6.448 -0.1706 -1.0117 -0.8944
33710SOL    HW2 8246   1.657   8.578   6.452  1.3039  0.9299  0.8101
33711SOL     OW 8247   1.462   8.755   1.051  0.5121 -0.8554  0.2058
33711SOL    HW1 8248   1.407   8.764   1.129  1.2561 -2.0249  0.8878
33711SOL    HW2 8249   1.550   8.777   1.082  0.4580  1.1472 -0.9031
33712SOL     OW 8250   9.908   5.636   4.392 -0.0739  0.2654 -0.6278
33712SOL    HW1 8251   9.836   5.572   4.395 -0.5438  0.7860 -0.6805
33712SOL    HW2 8252   9.985   5.585   4.416 -0.4250 -0.3487 -0.7638
33713SOL     OW 8253   2.590   5.774   3.984  0.0898 -0.0366  0.1103
33713SOL    HW1 8254   2.537   5.853   3.973 -0.1674 -0.2441 -0.1574
33713SOL    HW2 8255   2.578   5.725   3.903  1.3500  0.2941 -0.2947
33714SOL     OW 8256  10.043   0.664   9.447  0.1335  0.3231 -0.0481
33714SOL    HW1 8257  10.128   0.620   9.443  0.4642  1.0248 -1.1937
33714SOL    HW2 8258  10.022   0.685   9.356 -1.1497  0.3898  0.2510
33715SOL     OW 8259  11.989   7.827   6.728 -0.2910  0.1011 -0.1281
33715SOL    HW1 8260  11.900   7.856   6.746 -0.2280 -0.3944  1.0265
33715SOL    HW2 8261  12.016   7.781   6.807  0.4876 -0.9812 -0.9972
33716SOL     OW 8262  11.885   8.284  11.030 -0.1026 -0.0676 -0.3549
33716SOL    HW1 8263  11.841   8.211  11.073 -0.1766 -0.0296 -0.3651
33716SOL    HW2 8264  11.931   8.330  11.100  0.5705 -0.5661 -0.4657
33717SOL     OW 8265   0.434   8.533   2.715  0.2932 -0.5542  0.5389
33717SOL    HW1 8266   0.431   8.545   2.810  2.1978  0.9587  0.4720
33717SOL    HW2 8267   0.464   8.443   2.703 -0.5899 -0.9666  1.3545
33718SOL     OW 8268   7.614   5.684   2.050  0.3505 -0.2097  0.1759
33718SOL    HW1 8269   7.569   5.603   2.074  1.0631 -0.9009 -0.7450
33718SOL    HW2 8270   7.697   5.655   2.012  1.3997  1.0179  1.4306
33719SOL     OW 8271   4.547   4.655   0.590  0.1417  0.2448  0.1438
33719SOL    HW1 8272   4.460   4.624   0.566  0.6873  0.4472 -2.3192
33719SOL    HW2 8273   4.605   4.583   0.565  0.7711  0.4383  1.0131
33720SOL     OW 8274   6.314   9.873   7.308  0.3346  0.5707  0.3360
33720SOL    HW1 8275   6.300   9.925   7.229 -0.9086  0.3290  0.3820
33720SOL    HW2 8276   6.243   9.897   7.366  0.5905 -0.0877  0.9427
33721SOL     OW 8277  12.097  10.390   7.988  0.3960 -0.2013 -0.1085
33721SOL    HW1 8278  12.123  10.481   7.985 -2.3868  0.7040  0.1770
33721SOL    HW2 8279  12.114  10.356   7.900 -1.5951  1.5900 -1.2723
33722SOL     OW 8280  10.209   3.192  10.785 -0.0345  0.0938 -0.1602
33722SOL    HW1 8281  10.148   3.194  10.859 -0.8358 -0.9090 -0.7559
33722SOL    HW2 8282  10.296   3.190  10.825 -0.4781 -1.4938  0.7995
33723SOL     OW 8283   9.262   9.151  11.669 -0.0354 -0.1331  0.1294
33723SOL    HW1 8284   9.280   9.063  11.701  1.6665 -0.5226 -1.7323
33723SOL    HW2 8285   9.167   9.161  11.681  0.1775 -0.7642  3.7009
33724SOL     OW 8286   3.058   8.807   9.091  0.0002 -0.2987  0.2512
33724SOL    HW1 8287   3.051   8.740   9.159 -0.2798  0.9694  1.5248
33724SOL    HW2 8288   3.098   8.882   9.135 -1.0609  0.8913 -0.7305
33725SOL     OW 8289   4.059  12.590   6.638 -0.0854  0.5490  0.2958
33725SOL    HW1 8290   4.030  12.659   6.579 -3.1010 -0.0413  0.9312
33725SOL    HW2 8291   4.096  12.637   6.713 -1.5621  1.4995  0.4703
33726SOL     OW 8292  11.052   0.486   6.184  0.4940  0.0804 -0.4687
33726SOL    HW1 8293  11.037   0.393   6.167 -0.1390  0.1224 -0.1612
33726SOL    HW2 8294  10.968   0.519   6.216  0.6619  0.8000 -0.7450
33727SOL     OW 8295   3.741   4.837  11.428  0.0700 -0.1401 -0.9736
33727SOL    HW1 8296   3.836   4.825  11.415 -0.0427 -0.9658 -1.0979
33727SOL    HW2 8297   3.706   4.846  11.339  0.3912  3.4327 -0.8713
33728SOL     OW 8298   4.312   9.575   3.967 -0.1015 -0.0301  0.4611
33728SOL    HW1 8299   4.221   9.601   3.981  0.2297  0.4467  1.8137
33728SOL    HW2 8300   4.358   9.600   4.048  1.5335  1.0886 -0.7207
33729SOL     OW 8301   6.303   2.228   2.923 -0.3669 -0.4913  0.1993
33729SOL    HW1 8302   6.338   2.232   2.834  1.5933 -1.2308  0.8871
33729SOL    HW2 8303   6.268   2.139   2.931  1.1416 -1.0710  0.7159
33730SOL     OW 8304  11.270   2.162   3.354  0.3372  0.0218 -0.3211
33730SOL    HW1 8305  11.342   2.162   3.417 -0.0924 -0.3194  0.1704
33730SOL    HW2 8306  11.220   2.083   3.374  0.0652  0.0316 -0.9392
33731SOL     OW 8307   9.519   8.899  10.507  0.2223  0.0875 -0.0294
33731SOL    HW1 8308   9.470   8.823  10.475 -0.0833  0.1023  0.4023
33731SOL    HW2 8309   9.550   8.942  10.427  0.6229 -0.6357 -0.2690
33732SOL     OW 8310   7.127  10.747  10.963 -0.3949  0.1490 -0.8578
33732SOL    HW1 8311   7.104  10.690  10.889  0.3490 -0.3330 -0.7211
33732SOL    HW2 8312   7.221  10.759  10.956 -0.3003  0.0264  0.0643
33733SOL     OW 8313   6.508   3.923  11.619 -0.7584 -0.1165 -0.2716
33733SOL    HW1 8314   6.599   3.918  11.650 -0.1366 -0.5795 -2.0526
33733SOL    HW2 8315   6.460   3.862  11.675  0.1574 -0.3692  0.2610
33734SOL     OW 8316  10.259   4.496   3.639 -0.0192  0.1357 -0.1806
33734SOL    HW1 8317  10.265   4.444   3.559  1.9348 -0.7669  0.4760
33734SOL    HW2 8318  10.238   4.584   3.609  1.5316  0.0164 -1.7974
33735SOL     OW 8319  10.515   2.798   3.115  0.2385 -0.1691  0.5707
33735SOL    HW1 8320  10.610   2.799   3.111  0.2115 -0.9959 -2.7071
33735SOL    HW2 8321  10.489   2.890   3.125  1.3520  0.1633  0.4546
33736SOL     OW 8322   8.746   3.448   4.224 -0.0076 -0.2835 -0.2948
33736SOL    HW1 8323   8.765   3.407   4.140  1.8645  0.9128 -0.5033
33736SOL    HW2 8324   8.812   3.516   4.234 -1.6364  1.1969  1.0807
33737SOL     OW 8325   3.582   1.061   0.056  0.0915 -0.8118 -0.1960
33737SOL    HW1 8326   3.628   1.097   0.132 -1.2930 -0.3957  0.4650
33737SOL    HW2 8327   3.622   1.106  -0.019 -0.1039  0.4893  0.4545
33738SOL     OW 8328   8.327   2.049   6.215  1.5415  0.6092 -0.1560
33738SOL    HW1 8329   8.313   2.105   6.139  2.6626 -0.1315 -0.9480
33738SOL    HW2 8330   8.323   2.109   6.290  1.1126  1.4695 -0.8434
33739SOL     OW 8331   5.000   8.661  10.703 -0.1586  0.3855 -0.0962
33739SOL    HW1 8332   4.951   8.704  10.773 -1.6734 -0.9238 -0.2956
33739SOL    HW2 8333   4.972   8.569  10.706  0.6843  0.0331 -1.6096
33740SOL     OW 8334   6.797   8.969   8.508 -0.0402 -0.0648 -0.9622
33740SOL    HW1 8335   6.775   9.056   8.539 -1.8018 -0.9167  0.3346
33740SOL    HW2 8336   6.772   8.969   8.415 -2.1087  0.1916 -0.4571
33741SOL     OW 8337  12.336   3.203  11.291  0.7735  0.0870  0.0059
33741SOL    HW1 8338  12.354   3.293  11.266 -0.0619  0.1410 -0.4241
33741SOL    HW2 8339  12.347   3.202  11.386 -0.4324  0.9535  0.1806
33742SOL     OW 8340   1.288   5.281   5.858  0.7620 -0.0872 -0.5097
33742SOL    HW1 8341   1.284   5.188   5.833  1.2000  0.0609 -1.1488
33742SOL    HW2 8342   1.348   5.282   5.932 -0.4232 -0.5071  0.4988
33743SOL     OW 8343   9.741   0.302   0.116  0.1276 -0.5200  0.3432
33743SOL    HW1 8344   9.815   0.360   0.098  0.0740 -0.3635  0.6351
33743SOL    HW2 8345   9.679   0.356   0.165 -0.4021 -0.5007 -0.3341
33744SOL     OW 8346   6.174   3.676   0.437  0.2639 -0.8563 -0.1216
33744SOL    HW1 8347   6.250   3.621   0.455 -0.4844 -2.3323 -1.3142
33744SOL    HW2 8348   6.191   3.714   0.351 -0.1001 -0.7251 -0.1382
33745SOL     OW 8349   1.719   5.119   2.117 -0.4394 -0.5414  0.3805
33745SOL    HW1 8350   1.780   5.141   2.187 -1.4195  0.6491  0.8992
33745SOL    HW2 8351   1.686   5.032   2.140 -0.5536 -0.2758  1.2617
33746SOL     OW 8352   2.958   7.586   6.731 -0.2873  0.2847 -0.1958
33746SOL    HW1 8353   2.919   7.643   6.665 -1.9620 -0.2271  0.3059
33746SOL    HW2 8354   2.916   7.501   6.717  0.0612 -0.0816  0.9062
33747SOL     OW 8355   4.745   0.280  11.631 -0.0923 -0.1626 -0.0846
33747SOL    HW1 8356   4.833   0.252  11.608  0.1120  0.7670 -0.4743
33747SOL    HW2 8357   4.687   0.224  11.578  0.2913 -0.0582 -0.6160
33748SOL     OW 8358  11.672   2.693   1.780 -0.0273 -0.1784  0.4889
33748SOL    HW1 8359  11.600   2.686   1.843  0.4047  1.8365  1.2733
33748SOL    HW2 8360  11.750   2.704   1.835  0.8539 -1.7512 -0.3652
33749SOL     OW 8361  11.493  10.825   4.233  0.0328  0.1911  0.2009
33749SOL    HW1 8362  11.493  10.903   4.288  0.3547 -0.9415  1.8786
33749SOL    HW2 8363  11.401  10.799   4.229  0.0471  0.1040  0.4472
33750SOL     OW 8364   1.715   6.692  12.499 -0.2153  0.8680 -0.3598
33750SOL    HW1 8365   1.684   6.601  12.496  0.5165  0.6136 -0.3475
33750SOL    HW2 8366   1.668   6.730  12.573  0.7899 -0.0082  0.7675
33751SOL     OW 8367   1.162   1.356   3.866 -0.0280 -0.0642  0.1047
33751SOL    HW1 8368   1.120   1.416   3.928 -2.4271 -1.4581 -0.0549
33751SOL    HW2 8369   1.120   1.272   3.883  0.6343 -0.9002 -2.1304
33752SOL     OW 8370   3.081   6.042  11.485  0.3408  0.2082  0.2844
33752SOL    HW1 8371   3.149   5.994  11.438 -0.7075 -0.2536 -0.8143
33752SOL    HW2 8372   2.999   6.011  11.447 -0.5208  0.4672  1.8327
33753SOL     OW 8373   8.362   9.685   5.836  0.2437 -0.3938  0.7853
33753SOL    HW1 8374   8.371   9.751   5.767  0.7381 -0.6279  0.6201
33753SOL    HW2 8375   8.379   9.602   5.792  2.1136 -0.4297  1.4811
33754SOL     OW 8376  10.827   2.820  10.622 -0.3637 -0.3155  0.0797
33754SOL    HW1 8377  10.810   2.744  10.566  0.1710 -0.0324 -0.4777
33754SOL    HW2 8378  10.910   2.856  10.589 -0.0358 -0.1476  1.0503
33755SOL     OW 8379  10.662   3.120   7.932 -0.4928  0.1223  0.2886
33755SOL    HW1 8380  10.679   3.161   8.018  0.2458 -0.2610  0.3360
33755SOL    HW2 8381  10.588   3.169   7.897 -1.1836 -0.0883  1.3941
33756SOL     OW 8382   6.560  12.448   8.101  0.2454  0.2670  1.0946
33756SOL    HW1 8383   6.494  12.513   8.123  2.0762  1.9776  1.8113
33756SOL    HW2 8384   6.617  12.492   8.038  0.0014 -1.6260 -0.5597
33757SOL     OW 8385  10.000   9.116   7.385 -0.0411 -0.1450 -0.1410
33757SOL    HW1 8386   9.936   9.153   7.323  0.3611 -0.3529 -0.6876
33757SOL    HW2 8387  10.046   9.049   7.335  0.6865  0.0804  0.2150
33758SOL     OW 8388   2.217   5.795   8.378  0.1062 -0.8082 -0.2493
33758SOL    HW1 8389   2.171   5.730   8.325  0.7698 -1.4754 -0.0155
33758SOL    HW2 8390   2.196   5.773   8.468 -0.3088 -0.2055 -0.1905
33759SOL     OW 8391   9.421   7.427   0.998  0.1129  0.1080 -0.4037
33759SOL    HW1 8392   9.335   7.409   1.035 -0.1522  2.1599  0.0750
33759SOL    HW2 8393   9.403   7.481   0.921  0.9687  1.0651  0.0414
33760SOL     OW 8394   4.484   4.878  12.398 -0.4912 -0.1465  0.5415
33760SOL    HW1 8395   4.542   4.914  12.331 -1.0145 -0.2978  0.0036
33760SOL    HW2 8396   4.428   4.952  12.423 -1.4137 -0.4980 -0.4003
33761SOL     OW 8397  10.558   9.679   6.411  0.4395  0.2653 -0.1908
33761SOL    HW1 8398  10.493   9.735   6.454 -0.5512 -0.3148 -0.8689
33761SOL    HW2 8399  10.583   9.727   6.333 -0.5190 -0.2619 -0.8487
33762SOL     OW 8400  11.813   1.582  11.659  0.3119  0.0949  0.2801
33762SOL    HW1 8401  11.788   1.631  11.581 -0.7951  2.2362  1.8897
33762SOL    HW2 8402  11.909   1.574  11.652  0.4677  2.0169 -0.3474
33763SOL     OW 8403   8.851   5.806   4.464  0.3699 -0.1170  0.2893
33763SOL    HW1 8404   8.758   5.784   4.456  0.4876 -0.8314  0.8183
33763SOL    HW2 8405   8.862   5.883   4.408 -0.4796 -0.1954 -0.0014
33764SOL     OW 8406  10.391   2.048   7.048  0.2643  0.1111 -0.2040
33764SOL    HW1 8407  10.405   1.953   7.051  1.4992  0.2879  1.2547
33764SOL    HW2 8408  10.296   2.058   7.054  0.1581 -1.0263  0.4814
33765SOL     OW 8409  11.335   6.426   3.154  0.1696  0.2092 -0.0143
33765SOL    HW1 8410  11.361   6.384   3.236 -1.1999  0.8857  0.7972
33765SOL    HW2 8411  11.338   6.355   3.089 -1.5898 -1.0724  1.2131
33766SOL     OW 8412   1.415  11.734  12.472 -0.3106  0.4377 -0.7434
33766SOL    HW1 8413   1.491  11.773  12.514 -0.6061 -0.6446  0.8794
33766SOL    HW2 8414   1.389  11.798  12.405  0.5539  1.9389  0.3017
33767SOL     OW 8415  11.900   0.792  11.515  0.4768  0.3467  0.0951
33767SOL    HW1 8416  11.851   0.767  11.594 -1.4051  2.1479 -0.4241
33767SOL    HW2 8417  11.852   0.752  11.443  1.0065  0.3941 -0.2894
33768SOL     OW 8418   3.354   1.180   5.728 -0.5629  0.0450 -0.1411
33768SOL    HW1 8419   3.365   1.267   5.766 -0.5437 -0.0064 -0.0280
33768SOL    HW2 8420   3.264   1.179   5.695 -1.0429 -0.3647  1.0952
33769SOL     OW 8421   8.361  11.870   0.489 -0.2752  0.3550 -0.6173
33769SOL    HW1 8422   8.410  11.790   0.468  0.0334  0.4133 -0.1257
33769SOL    HW2 8423   8.295  11.841   0.552  1.7870  1.0115  2.0129
33770SOL     OW 8424   7.821   4.240   7.580 -0.0616  0.0712 -0.1214
33770SOL    HW1 8425   7.886   4.309   7.571  1.9158 -1.6028  0.5659
33770SOL    HW2 8426   7.812   4.226   7.674 -0.3767 -0.6727 -0.2527
33771SOL     OW 8427   6.829   6.446   6.142 -0.4319 -0.7084  0.4284
33771SOL    HW1 8428   6.832   6.415   6.052 -0.6103 -2.0329  0.8488
33771SOL    HW2 8429   6.877   6.528   6.142 -0.2549 -0.8047 -0.8326
33772SOL     OW 8430  10.485  11.223   0.449  0.3907 -0.5767  0.5101
33772SOL    HW1 8431  10.546  11.241   0.378  0.2019  0.1101  0.5165
33772SOL    HW2 8432  10.522  11.270   0.524  0.3382 -0.9101  0.7482
33773SOL     OW 8433   7.577  10.296  10.261 -0.3200 -0.3004  0.0543
33773SOL    HW1 8434   7.528  10.376  10.246 -1.9048 -1.0770  0.9030
33773SOL    HW2 8435   7.511  10.231  10.286  1.2434 -1.0237  2.6987
33774SOL     OW 8436   9.601   6.795   0.340  0.2405  0.2883 -0.1407
33774SOL    HW1 8437   9.530   6.739   0.371  1.4695 -0.1470  2.1915
33774SOL    HW2 8438   9.675   6.735   0.328  0.7574  0.9938 -0.5490
33775SOL     OW 8439  12.205   8.703   4.532  0.6677  0.6889 -0.1993
33775SOL    HW1 8440  12.149   8.750   4.471  1.6886  0.0780 -1.6599
33775SOL    HW2 8441  12.185   8.741   4.618 -2.8551 -0.3022 -0.4081
33776SOL     OW 8442   2.033  12.883   1.084 -0.0956 -0.1977 -0.7744
33776SOL    HW1 8443   2.045  12.978   1.093  3.2000 -0.0992 -3.8822
33776SOL    HW2 8444   1.997  12.855   1.168 -0.7394  3.7038  0.4415
33777SOL     OW 8445   2.490   5.197   5.852 -0.0572  0.2822  0.4743
33777SOL    HW1 8446   2.398   5.216   5.870  0.0024  0.5565  0.4878
33777SOL    HW2 8447   2.538   5.270   5.892  0.1433  0.3369  0.1347
33778SOL     OW 8448   1.712   4.510   1.807  0.0867  0.5555  0.1007
33778SOL    HW1 8449   1.766   4.581   1.843 -1.1297  1.9573 -0.6878
33778SOL    HW2 8450   1.719   4.521   1.712 -0.8048  0.1792 -0.0167
33779SOL     OW 8451   2.121  10.130   3.735 -0.0321  0.0752  0.0649
33779SOL    HW1 8452   2.128  10.060   3.671 -0.4872  0.8147 -0.8131
33779SOL    HW2 8453   2.039  10.175   3.714 -0.0206  0.5448  0.9463
33780SOL     OW 8454   1.085   3.241  10.377 -0.0824 -0.0111  0.2976
33780SOL    HW1 8455   1.046   3.198  10.453  1.5742 -1.8926  0.1642
33780SOL    HW2 8456   1.031   3.213  10.303 -1.5263  1.5976  0.6644
33781SOL     OW 8457   0.455   1.842   6.798  0.2669 -0.1731  0.0731
33781SOL    HW1 8458   0.518   1.850   6.726 -0.5128  1.0268 -0.5165
33781SOL    HW2 8459   0.376   1.807   6.757  0.4242 -1.3452  0.7426
33782SOL     OW 8460   4.513   0.762   9.450 -0.0378 -0.1173 -0.0373
33782SOL    HW1 8461   4.528   0.709   9.528  0.7192  0.3624  0.1462
33782SOL    HW2 8462   4.599   0.768   9.408 -0.0646  1.1340  0.0571
33783SOL     OW 8463   9.622   0.095   2.385 -0.1024 -0.6694  0.0240
33783SOL    HW1 8464   9.551   0.126   2.441  0.7066  0.0331  0.6942
33783SOL    HW2 8465   9.584   0.023   2.335 -1.8410  0.9296 -1.0772
33784SOL     OW 8466   0.219   5.350   4.563  0.4629 -0.1226 -0.5369
33784SOL    HW1 8467   0.141   5.328   4.614  0.1099  3.4321  0.7305
33784SOL    HW2 8468   0.189   5.348   4.472 -0.4708 -0.9819 -0.2257
33785SOL     OW 8469   8.918   9.766  11.141 -1.1628 -0.3154 -0.3073
33785SOL    HW1 8470   8.918   9.820  11.062 -0.5752  0.0613 -0.0618
33785SOL    HW2 8471   8.832   9.779  11.179 -0.9672  0.6179 -0.1506
33786SOL     OW 8472   6.667   3.562   8.453 -0.3097  0.3930  0.2808
33786SOL    HW1 8473   6.665   3.598   8.541 -1.4389 -0.0689  0.4587
33786SOL    HW2 8474   6.624   3.477   8.461 -2.2731  1.2067 -1.0793
33787SOL     OW 8475   5.918   3.812  11.120  0.0446 -0.4625  0.0513
33787SOL    HW1 8476   5.996   3.757  11.131  0.9627  0.9019  0.5669
33787SOL    HW2 8477   5.939   3.870  11.047  0.0746  0.8262  1.0580
33788SOL     OW 8478   7.525  11.129   5.732  0.6307 -0.2247 -0.2982
33788SOL    HW1 8479   7.451  11.151   5.675  0.5754 -1.0735 -0.5729
33788SOL    HW2 8480   7.572  11.211   5.745 -1.1338  0.6460  1.0242
33789SOL     OW 8481   8.730  11.591  10.398  0.2105  0.2423  0.2638
33789SOL    HW1 8482   8.678  11.591  10.318 -0.3653  1.2725  0.6116
33789SOL    HW2 8483   8.714  11.505  10.437  0.2422 -0.1438 -0.5559
33790SOL     OW 8484  10.170  12.404   7.140 -0.2584 -0.3233  0.1922
33790SOL    HW1 8485  10.187  12.397   7.046 -0.4636  1.8541 -0.0501
33790SOL    HW2 8486  10.186  12.315   7.174  1.9580 -0.6741 -1.5364
33791SOL     OW 8487   9.411   9.874   3.291  0.2068  0.0161 -0.5915
33791SOL    HW1 8488   9.316   9.860   3.295  0.0349  1.0844 -0.7331
33791SOL    HW2 8489   9.448   9.788   3.308 -0.7888 -0.3873 -0.3890
33792SOL     OW 8490   5.751  11.579   6.849 -0.0511 -0.3766  0.1808
33792SOL    HW1 8491   5.727  11.534   6.769  2.0847 -0.4196 -0.5051
33792SOL    HW2 8492   5.806  11.652   6.821  0.6957 -0.3519  1.5585
33793SOL     OW 8493   0.440   7.357  12.805 -0.1202  0.1919  0.0501
33793SOL    HW1 8494   0.440   7.261  12.812  0.5732  0.3103  3.5336
33793SOL    HW2 8495   0.527   7.378  12.771  0.2010 -0.3707  0.5035
33794SOL     OW 8496   5.184   0.635   5.703  0.7278  0.0373  0.4063
33794SOL    HW1 8497   5.117   0.568   5.709  1.7542 -0.8728  3.1725
33794SOL    HW2 8498   5.138   0.717   5.720 -0.1545 -0.1933 -0.7635
33795SOL     OW 8499   4.686   5.254   1.314  0.2043  0.4014 -0.3936
33795SOL    HW1 8500   4.666   5.331   1.367 -0.9666  0.3710 -0.7724
33795SOL    HW2 8501   4.713   5.290   1.230 -0.4608  0.4051 -0.6103
33796SOL     OW 8502   0.100   5.622   4.733 -0.6600  0.1165  0.3645
33796SOL    HW1 8503   0.092   5.698   4.675 -0.2869  0.2374  0.4717
33796SOL    HW2 8504   0.096   5.546   4.674  1.3248  0.2678 -0.0143
33797SOL     OW 8505  10.855   1.422  12.684  0.1024 -0.1593  0.1919
33797SOL    HW1 8506  10.931   1.396  12.735  0.7386 -1.7027 -1.4465
33797SOL    HW2 8507  10.818   1.496  12.733  1.2681 -0.8573  2.2702
33798SOL     OW 8508   3.851   0.768   1.342 -0.0817 -0.1261  0.2371
33798SOL    HW1 8509   3.786   0.812   1.397 -1.2418 -0.5592 -0.7370
33798SOL    HW2 8510   3.934   0.810   1.365 -1.2281  3.4484 -1.4126
33799SOL     OW 8511   7.690   4.593   9.360 -0.1002 -0.2009 -0.3210
33799SOL    HW1 8512   7.781   4.569   9.343 -0.9045 -2.5226 -1.9259
33799SOL    HW2 8513   7.670   4.553   9.445  0.5072  0.7706  0.2874
33800SOL     OW 8514   7.563   4.988   4.987  0.1341 -0.4995  0.0171
33800SOL    HW1 8515   7.490   5.050   4.980  0.2331 -0.4641 -0.8029
33800SOL    HW2 8516   7.640   5.040   4.966  0.2740 -0.7844 -0.1747
33801SOL     OW 8517   2.638   6.163   9.782  0.4834 -0.1395 -0.4060
33801SOL    HW1 8518   2.592   6.109   9.846  1.6842  0.2160  0.8169
33801SOL    HW2 8519   2.730   6.139   9.792  0.6213 -0.7250 -2.6727
33802SOL     OW 8520  12.546   2.527  11.990 -0.0499 -0.2074 -0.3862
33802SOL    HW1 8521  12.570   2.445  11.947 -0.2749 -0.1351 -0.6457
33802SOL    HW2 8522  12.553   2.507  12.084 -0.4488 -0.6266 -0.4408
33803SOL     OW 8523   2.252   6.005   1.999 -0.3391  0.1524 -0.2332
33803SOL    HW1 8524   2.288   5.982   1.913 -0.6830  0.0004 -0.3370
33803SOL    HW2 8525   2.308   6.076   2.029  0.1547 -0.1832 -0.3238
33804SOL     OW 8526   5.351   7.577  11.921  0.1699 -0.2195  0.1740
33804SOL    HW1 8527   5.419   7.645  11.922 -0.9323  0.9188  1.2805
33804SOL    HW2 8528   5.332   7.561  12.013 -1.6967  0.1544 -0.1136
33805SOL     OW 8529   7.329   6.763   9.765  0.4290 -0.0091  0.4918
33805SOL    HW1 8530   7.262   6.830   9.782 -1.1396 -1.5149  0.5368
33805SOL    HW2 8531   7.294   6.683   9.806  1.3846 -1.2698 -1.0341
33806SOL     OW 8532   4.171   7.119   3.310 -0.6573 -0.1411  0.0912
33806SOL    HW1 8533   4.160   7.210   3.338 -0.0075  0.4465 -1.4383
33806SOL    HW2 8534   4.082   7.086   3.298 -0.8900  0.5352 -0.0523
33807SOL     OW 8535   6.930   0.582   3.837 -0.0051  0.1521  0.2960
33807SOL    HW1 8536   6.885   0.509   3.881 -0.6362 -0.6635 -1.5721
33807SOL    HW2 8537   7.023   0.563   3.848 -0.0412  1.2730  3.2765
33808SOL     OW 8538   0.737   6.997   1.429  0.2076 -0.5331 -0.3098
33808SOL    HW1 8539   0.723   6.976   1.336  0.7579 -1.3219 -0.2144
33808SOL    HW2 8540   0.649   7.007   1.465 -0.1314  3.2681 -1.6589
33809SOL     OW 8541   5.611   7.112   0.338  0.2064  0.3146  0.2139
33809SOL    HW1 8542   5.699   7.148   0.350 -0.2999  1.4990  0.5945
33809SOL    HW2 8543   5.581   7.149   0.255 -0.3847  0.9477  0.6898
33810SOL     OW 8544   5.769   8.097   8.068  0.0169  0.4766 -0.1718
33810SOL    HW1 8545   5.829   8.119   8.139 -1.3187 -1.3611  1.6139
33810SOL    HW2 8546   5.763   8.178   8.016  2.1372  1.4216  0.9356
33811SOL     OW 8547  10.302   1.491  11.075  0.2835 -0.0199  0.7851
33811SOL    HW1 8548  10.283   1.455  10.989 -0.3961 -0.1730  0.9973
33811SOL    HW2 8549  10.220   1.484  11.124 -0.3621  3.1806  0.3637
33812SOL     OW 8550   6.266   1.040   2.282 -0.4096  0.1861 -0.0843
33812SOL    HW1 8551   6.245   1.090   2.203  0.0970 -0.7655 -0.8452
33812SOL    HW2 8552   6.294   1.106   2.345  0.4529  0.8512 -1.1338
33813SOL     OW 8553   9.473   8.221  10.451 -0.1559 -0.1360 -0.2591
33813SOL    HW1 8554   9.536   8.274  10.403 -0.1113  0.8999  0.9107
33813SOL    HW2 8555   9.525   8.177  10.518 -0.1645 -1.8210 -1.2948
33814SOL     OW 8556   6.805   7.540   1.925 -0.3504  0.4004  0.5812
33814SOL    HW1 8557   6.735   7.478   1.946  1.8012 -2.0707  0.9933
33814SOL    HW2 8558   6.829   7.578   2.010 -0.7294  0.7260  0.5426
33815SOL     OW 8559   8.148   6.600   6.689  0.1276 -0.1478  0.4409
33815SOL    HW1 8560   8.157   6.504   6.687  0.6328 -0.1419  1.8476
33815SOL    HW2 8561   8.072   6.617   6.633  0.2581 -1.3381 -0.1358
33816SOL     OW 8562   1.787   6.436  10.655  0.0752  0.5217  0.4916
33816SOL    HW1 8563   1.711   6.417  10.710  0.1538 -1.6579 -0.0621
33816SOL    HW2 8564   1.863   6.409  10.708  0.3059  0.6512  0.2304
33817SOL     OW 8565  11.320   1.508   2.233  0.3828  0.0268 -0.3789
33817SOL    HW1 8566  11.385   1.456   2.280 -0.1433 -0.5499 -0.2769
33817SOL    HW2 8567  11.357   1.520   2.146 -0.3476 -2.2462 -1.0650
33818SOL     OW 8568   4.860   1.281   8.552  0.5058 -1.2696  0.2658
33818SOL    HW1 8569   4.874   1.236   8.469  0.1505 -3.3800  1.2680
33818SOL    HW2 8570   4.927   1.245   8.610  1.0824  0.5462  0.8054
33819SOL     OW 8571   9.627   9.556  11.781 -0.3914  0.2196  0.0264
33819SOL    HW1 8572   9.589   9.558  11.693 -0.4891  0.9281  0.0795
33819SOL    HW2 8573   9.611   9.467  11.812  2.5931 -1.1539 -1.9442
33820SOL     OW 8574   0.104  12.492  12.467 -0.4190 -0.3897  0.1327
33820SOL    HW1 8575   0.167  12.537  12.522 -1.8455 -0.3038  1.7631
33820SOL    HW2 8576   0.133  12.511  12.377  0.4055  1.7353  0.7871
33821SOL     OW 8577  12.228  10.788   1.862 -0.0964  1.1870  0.2462
33821SOL    HW1 8578  12.159  10.722   1.873  0.1171  0.7815 -0.7347
33821SOL    HW2 8579  12.198  10.863   1.914  0.0923  0.0195  2.1667
33822SOL     OW 8580   7.010   0.178   3.552  0.1053 -0.0308 -0.1355
33822SOL    HW1 8581   6.981   0.104   3.605 -1.5744  1.1250  0.6355
33822SOL    HW2 8582   7.009   0.145   3.462  1.1248 -1.4324  0.3270
33823SOL     OW 8583   3.128   0.231   5.370  0.1780 -0.4998  0.3752
33823SOL    HW1 8584   3.196   0.178   5.328  0.7665 -0.4882  1.2921
33823SOL    HW2 8585   3.068   0.166   5.408 -1.9672 -0.6088 -2.8188
33824SOL     OW 8586   6.292   8.706  12.636 -0.3010 -0.5890  0.0936
33824SOL    HW1 8587   6.354   8.732  12.704  0.3685  1.1905 -1.1102
33824SOL    HW2 8588   6.210   8.750  12.661 -1.1501 -2.9064  1.6612
33825SOL     OW 8589  11.154   6.993  12.673  0.2390 -0.0487  0.1169
33825SOL    HW1 8590  11.197   6.911  12.649  0.3452  0.0074  0.1189
33825SOL    HW2 8591  11.131   7.034  12.590  1.3159  0.5262  0.0905
33826SOL     OW 8592   3.609   2.669   7.846 -0.0052 -0.2687 -0.3302
33826SOL    HW1 8593   3.600   2.719   7.764 -0.7072  1.0732  0.5390
33826SOL    HW2 8594   3.633   2.581   7.817  0.8875  0.4530 -1.9360
33827SOL     OW 8595   4.449   3.791   6.575  0.1267 -0.3722  0.0102
33827SOL    HW1 8596   4.402   3.787   6.491 -0.7065  1.1988  0.3718
33827SOL    HW2 8597   4.423   3.874   6.613  1.2140 -0.6513  1.4334
33828SOL     OW 8598   4.142   5.835   8.114 -0.0194  0.3652  0.3264
33828SOL    HW1 8599   4.118   5.772   8.046 -0.0304  1.2059 -0.4544
33828SOL    HW2 8600   4.214   5.792   8.161  0.0703 -0.1684 -0.2796
33829SOL     OW 8601   4.481   5.638   2.140  0.2085  0.4519 -0.2194
33829SOL    HW1 8602   4.392   5.608   2.162  0.3179 -0.4268 -0.9230
33829SOL    HW2 8603   4.467   5.706   2.074  0.0532  0.4937 -0.1451
33830SOL     OW 8604   5.008   5.033  10.452  0.2459  0.0762  0.1060
33830SOL    HW1 8605   4.973   4.958  10.500  1.3736 -0.0127  0.8208
33830SOL    HW2 8606   5.093   5.049  10.492 -0.1428  2.0020  0.2418
33831SOL     OW 8607   4.085   7.129   2.124  0.0999 -0.1050  0.1454
33831SOL    HW1 8608   4.045   7.057   2.173 -0.5821 -0.1771 -0.4954
33831SOL    HW2 8609   4.033   7.136   2.044 -0.0046  1.2525  0.2952
33832SOL     OW 8610  10.736   8.067   7.820  0.1394  0.3176  0.5004
33832SOL    HW1 8611  10.776   7.981   7.811  1.7902  1.1939 -1.1392
33832SOL    HW2 8612  10.714   8.094   7.731 -1.1220  1.2653  1.0616
33833SOL     OW 8613  12.774   9.304   0.327 -0.2227  0.0932  0.5941
33833SOL    HW1 8614  12.749   9.228   0.379 -1.1015 -0.7603 -0.9927
33833SOL    HW2 8615  12.856   9.278   0.285 -0.1427  0.3187  0.6097
33834SOL     OW 8616  10.919   1.168   9.156 -0.1418  0.4317  0.1586
33834SOL    HW1 8617  10.946   1.122   9.236  2.0363  0.1273 -0.7033
33834SOL    HW2 8618  10.968   1.250   9.158 -1.4865  1.2764  0.0105
33835SOL     OW 8619  10.428   3.937   4.590 -0.1376 -0.0686  0.3298
33835SOL    HW1 8620  10.395   3.850   4.566 -1.9052  0.0923  1.9418
33835SOL    HW2 8621  10.510   3.920   4.635 -0.1039 -0.8384  0.0006
33836SOL     OW 8622   2.041   6.783   3.299 -0.1497  0.8609 -0.1714
33836SOL    HW1 8623   2.094   6.859   3.324  0.9873 -0.2689  0.9755
33836SOL    HW2 8624   2.100   6.730   3.245 -0.4148  0.0456  0.3252
33837SOL     OW 8625   4.482   7.278   9.326 -0.5171 -0.0808  0.1613
33837SOL    HW1 8626   4.521   7.225   9.396 -1.3723 -0.7623  0.1368
33837SOL    HW2 8627   4.443   7.352   9.372 -2.7253 -1.4686  0.6826
33838SOL     OW 8628   6.974   7.956   1.459  0.4146  0.1228 -0.1807
33838SOL    HW1 8629   6.967   8.043   1.420  0.0310 -0.6158 -1.9053
33838SOL    HW2 8630   6.893   7.912   1.432  0.8047 -0.8959  0.2731
33839SOL     OW 8631   3.728   3.533   0.491  0.2283  0.0851 -0.5535
33839SOL    HW1 8632   3.759   3.620   0.517 -0.8721  0.5053 -0.6364
33839SOL    HW2 8633   3.671   3.549   0.417 -0.8435 -0.5959  0.1059
33840SOL     OW 8634   9.431   3.157   9.224  0.1799 -0.0965  0.3163
33840SOL    HW1 8635   9.363   3.223   9.230  0.0839 -0.2210  0.6364
33840SOL    HW2 8636   9.505   3.201   9.183 -0.1128  0.0237 -0.0794
33841SOL     OW 8637   7.684   9.450   4.918  0.1994  0.0662  0.0986
33841SOL    HW1 8638   7.629   9.421   4.991  1.8563 -2.2391  0.5355
33841SOL    HW2 8639   7.773   9.452   4.954  0.8331  0.6370 -1.4191
33842SOL     OW 8640   8.253  12.926  11.773  0.3643  0.2961 -0.3179
33842SOL    HW1 8641   8.335  12.932  11.724 -0.0778 -0.7869 -1.2223
33842SOL    HW2 8642   8.185  12.924  11.706 -0.1636 -3.1597  0.1638
33843SOL     OW 8643  11.731   1.031   3.833 -0.3858 -0.2687  0.6196
33843SOL    HW1 8644  11.648   0.982   3.837 -0.6601 -0.0537 -1.3548
33843SOL    HW2 8645  11.798   0.964   3.824 -0.4055 -0.4147  1.5140
33844SOL     OW 8646   2.832  10.038   9.902  0.3692 -0.3558  0.4701
33844SOL    HW1 8647   2.802   9.960   9.949  0.5570 -0.9161 -0.3033
33844SOL    HW2 8648   2.797  10.111   9.952 -0.8853 -0.9577  0.5222
33845SOL     OW 8649   3.016   1.276   1.139 -0.9703 -0.4491 -0.1436
33845SOL    HW1 8650   3.067   1.242   1.213 -0.4895 -0.7800 -0.6166
33845SOL    HW2 8651   3.019   1.205   1.075 -1.5129 -0.2219 -0.4208
33846SOL     OW 8652   8.317   2.134  11.505 -0.1665 -0.1339 -0.0972
33846SOL    HW1 8653   8.292   2.138  11.413 -0.2000  0.7452 -0.0546
33846SOL    HW2 8654   8.412   2.123  11.503 -0.0640  0.7625 -0.2328
33847SOL     OW 8655  11.059   0.975   9.333  0.3385 -0.7299 -0.3611
33847SOL    HW1 8656  10.990   0.937   9.388 -0.8034 -1.1577 -2.0071
33847SOL    HW2 8657  11.083   0.905   9.273  1.6829 -0.3293 -0.3084
33848SOL     OW 8658   4.261   0.199   3.336 -0.2498  0.2345 -0.0629
33848SOL    HW1 8659   4.233   0.131   3.398  0.5048 -0.7299 -0.7610
33848SOL    HW2 8660   4.212   0.277   3.363 -1.2611 -0.6225  0.6457
33849SOL     OW 8661  10.262  10.949   6.976  0.0365  0.0975 -0.6842
33849SOL    HW1 8662  10.318  11.024   6.957 -0.3383  0.4520 -0.3823
33849SOL    HW2 8663  10.304  10.876   6.930  0.7176  0.3701 -0.5008
33850SOL     OW 8664   6.866   4.451   5.918  0.0064  0.2674  0.2518
33850SOL    HW1 8665   6.881   4.357   5.916  1.3171  0.4657 -1.1257
33850SOL    HW2 8666   6.877   4.479   5.828 -0.6046  1.7190  0.6005
33851SOL     OW 8667  10.997   3.476  12.285  0.4190  0.1236  0.2049
33851SOL    HW1 8668  10.962   3.560  12.315  1.4068  0.3972  0.6145
33851SOL    HW2 8669  10.976   3.474  12.191 -0.3383  0.4481  0.3591
33852SOL     OW 8670   7.168   6.861   2.768  0.3786  0.2719 -0.7787
33852SOL    HW1 8671   7.116   6.905   2.835  0.4267  1.2513 -1.3605
33852SOL    HW2 8672   7.105   6.806   2.721  0.2679 -0.0997 -0.2105
33853SOL     OW 8673   7.502   0.390  11.878 -0.1675 -0.1119 -0.0628
33853SOL    HW1 8674   7.464   0.472  11.848 -0.2014  0.0907  0.5311
33853SOL    HW2 8675   7.493   0.392  11.973  1.0636 -0.1919  0.0702
33854SOL     OW 8676   8.040   7.119   2.585  0.4614 -0.4316  0.1137
33854SOL    HW1 8677   8.079   7.184   2.526 -0.3078  0.1761  0.2537
33854SOL    HW2 8678   8.070   7.145   2.672  0.0716 -0.1924  0.1805
33855SOL     OW 8679  10.654   1.706  12.595  0.3275 -0.1039 -0.5235
33855SOL    HW1 8680  10.671   1.759  12.673 -1.0070 -0.0298 -0.2566
33855SOL    HW2 8681  10.570   1.738  12.563  1.1106  0.2745 -2.3515
33856SOL     OW 8682  10.820   2.283  10.967 -0.4234 -0.3272 -0.3676
33856SOL    HW1 8683  10.827   2.353  11.033 -1.3469  0.6647 -1.2863
33856SOL    HW2 8684  10.743   2.233  10.993 -0.2803 -0.4681 -0.2110
33857SOL     OW 8685   1.850  11.267   0.905  0.4904  0.0598 -0.9701
33857SOL    HW1 8686   1.838  11.297   0.815 -0.3419 -0.0511 -0.9062
33857SOL    HW2 8687   1.896  11.183   0.896  1.1818  0.4581 -1.2391
33858SOL     OW 8688   9.723   9.594  10.457  0.6925 -0.2625 -0.2916
33858SOL    HW1 8689   9.636   9.565  10.428  0.3963  1.1725 -0.9248
33858SOL    HW2 8690   9.780   9.519  10.438 -0.0999 -0.6029 -1.4967
33859SOL     OW 8691   7.990   1.934   5.416 -0.4307 -0.5562  0.1124
33859SOL    HW1 8692   7.998   2.000   5.485 -1.3943  1.1127 -1.3122
33859SOL    HW2 8693   8.023   1.977   5.337  1.3248 -2.6600 -0.3932
33860SOL     OW 8694   7.424   2.209   1.629  0.5434 -0.6321 -0.8822
33860SOL    HW1 8695   7.372   2.270   1.682  2.1929  0.8059 -0.8073
33860SOL    HW2 8696   7.389   2.219   1.540 -0.7241 -1.3418 -0.4877
33861SOL     OW 8697   1.174   7.263   3.383  0.3439  0.4422  0.1858
33861SOL    HW1 8698   1.079   7.266   3.399  0.3979  2.3376  0.3439
33861SOL    HW2 8699   1.182   7.229   3.294 -0.2927 -2.7792  1.2164
33862SOL     OW 8700   4.909   9.999   9.123 -0.1165 -0.4545 -0.3098
33862SOL    HW1 8701   4.850  10.054   9.071  0.5417 -0.6176 -1.2683
33862SOL    HW2 8702   4.867   9.913   9.126 -0.2127 -0.4131 -0.4858
33863SOL     OW 8703   1.990   3.414  11.953  0.2380 -0.2541  0.3614
33863SOL    HW1 8704   1.924   3.362  11.999 -1.1116  0.7932 -0.3285
33863SOL    HW2 8705   2.029   3.353  11.890 -0.9698 -0.5617 -0.1084
33864SOL     OW 8706   5.837   5.968   0.456  0.0964 -0.2429  0.4499
33864SOL    HW1 8707   5.762   5.915   0.430 -0.4459  0.8944 -0.3801
33864SOL    HW2 8708   5.894   5.969   0.380  0.0583  0.4179  0.4191
33865SOL     OW 8709   9.600  10.395  11.494  0.6569 -0.4099  0.2755
33865SOL    HW1 8710   9.585  10.308  11.457  1.9319 -0.8772  0.7786
33865SOL    HW2 8711   9.633  10.447  11.420 -0.1910 -0.3156 -0.0457
33866SOL     OW 8712   0.279   6.690   0.788 -0.5905 -0.3059  0.6060
33866SOL    HW1 8713   0.332   6.617   0.756 -0.2520 -0.3764  1.2959
33866SOL    HW2 8714   0.215   6.649   0.846  0.4511  0.0515  2.0655
33867SOL     OW 8715   7.615   0.009   8.752 -0.1995 -0.2143 -0.1447
33867SOL    HW1 8716   7.531  -0.020   8.789 -0.3962  0.8768  0.2977
33867SOL    HW2 8717   7.594   0.029   8.661 -0.3756 -0.1467 -0.0910
33868SOL     OW 8718   2.820   8.801   8.285  0.1988  0.0421 -0.0545
33868SOL    HW1 8719   2.731   8.826   8.261  0.0834  0.0219  0.3374
33868SOL    HW2 8720   2.841   8.859   8.359  0.5886  0.1916 -0.2823
33869SOL     OW 8721   6.373   1.925   1.261 -0.3136 -0.0150 -0.3223
33869SOL    HW1 8722   6.386   1.856   1.326 -0.9930  0.6436  0.5301
33869SOL    HW2 8723   6.278   1.927   1.247 -0.2414  0.3599 -0.7840
33870SOL     OW 8724   1.243   5.212   5.274 -0.1696  0.2910  0.3641
33870SOL    HW1 8725   1.282   5.168   5.350  0.0613  0.1512  0.1672
33870SOL    HW2 8726   1.280   5.166   5.198 -0.1768  0.6136  0.1623
33871SOL     OW 8727  11.431  11.843   9.052  0.1440  0.0943  0.0980
33871SOL    HW1 8728  11.364  11.845   8.983  0.5100  2.3121 -0.2785
33871SOL    HW2 8729  11.455  11.935   9.064  2.1222 -0.5137  1.2251
33872SOL     OW 8730   2.526   5.869   4.732 -0.0726  0.5766 -0.1221
33872SOL    HW1 8731   2.456   5.914   4.780  0.4582  1.0814  0.1939
33872SOL    HW2 8732   2.587   5.939   4.708 -0.0468  0.2459 -1.0425
33873SOL     OW 8733   8.109  10.580   5.791  0.5738 -0.5897 -0.5113
33873SOL    HW1 8734   8.076  10.503   5.744  0.8122 -0.9708 -0.0673
33873SOL    HW2 8735   8.071  10.655   5.746  1.5264 -0.9095 -1.9094
33874SOL     OW 8736   9.320   8.179  12.840  0.3448 -0.7511  0.4120
33874SOL    HW1 8737   9.257   8.195  12.911 -0.0285  0.9046 -0.2341
33874SOL    HW2 8738   9.404   8.168  12.884 -0.3680 -3.2199  1.3092
33875SOL     OW 8739  12.701   7.841   0.872  0.4674 -0.1041 -0.0114
33875SOL    HW1 8740  12.783   7.858   0.825 -0.6698  0.8704 -1.7891
33875SOL    HW2 8741  12.661   7.769   0.824 -1.4752  1.9555 -1.7397
33876SOL     OW 8742   4.751   6.589   0.456  0.0885 -0.5413  0.5035
33876SOL    HW1 8743   4.765   6.661   0.517 -2.7599  2.0841 -1.5816
33876SOL    HW2 8744   4.696   6.527   0.504 -1.5500  1.1420  0.9250
33877SOL     OW 8745   3.821   9.679   9.591 -0.2028  0.7180 -0.1555
33877SOL    HW1 8746   3.779   9.597   9.617 -1.6083  1.5890  0.4488
33877SOL    HW2 8747   3.761   9.717   9.527  0.1432  1.5427 -0.0044
33878SOL     OW 8748   6.084   8.492   5.440 -0.7493 -0.3066 -0.2075
33878SOL    HW1 8749   6.148   8.513   5.508 -2.1056  0.1007  1.0016
33878SOL    HW2 8750   6.093   8.562   5.376  0.8930 -0.9653 -0.7478
33879SOL     OW 8751   1.524   3.331  11.523 -0.1203 -0.2183  0.2955
33879SOL    HW1 8752   1.557   3.394  11.587  0.7475 -1.1844  0.8323
33879SOL    HW2 8753   1.474   3.268  11.576  0.7259 -1.1079  0.0770
33880SOL     OW 8754  11.840  11.025   9.987  0.6872  0.2284 -0.1425
33880SOL    HW1 8755  11.801  10.997   9.904 -0.9810 -0.8054  0.9317
33880SOL    HW2 8756  11.856  10.944  10.035 -0.4745  0.8791  1.4305
33881SOL     OW 8757   0.065   3.841   4.271 -0.0087  0.1387  0.2543
33881SOL    HW1 8758   0.079   3.933   4.294 -0.4641  0.1218  0.6054
33881SOL    HW2 8759   0.038   3.842   4.179 -2.8103  0.6056  1.0136
33882SOL     OW 8760   9.519   4.521  12.289 -0.1050  0.6246 -0.0982
33882SOL    HW1 8761   9.524   4.502  12.383  2.3299  0.1019 -0.2678
33882SOL    HW2 8762   9.459   4.595  12.283 -0.4686  0.5517  1.8333
33883SOL     OW 8763  12.799   7.586   0.942 -0.5902  0.0965  0.0246
33883SOL    HW1 8764  12.751   7.504   0.960  1.1455 -0.8203  0.6696
33883SOL    HW2 8765  12.806   7.629   1.027  0.4737 -0.2117  0.1031
33884SOL     OW 8766   7.579   8.680   9.541 -0.1207  0.1564  0.5688
33884SOL    HW1 8767   7.665   8.640   9.545 -0.0369  0.4274  1.8845
33884SOL    HW2 8768   7.531   8.643   9.616 -1.3830 -0.5050 -0.5196
33885SOL     OW 8769   9.250   1.381   4.146  0.2200  0.1167  0.0917
33885SOL    HW1 8770   9.284   1.436   4.217 -1.0239 -1.6088  2.1464
33885SOL    HW2 8771   9.279   1.293   4.168 -0.8494 -0.5750 -1.1325
33886SOL     OW 8772   6.252  12.218   8.231  0.0567 -0.1798  0.3677
33886SOL    HW1 8773   6.317  12.161   8.272  1.3236 -1.6935 -3.3207
33886SOL    HW2 8774   6.301  12.297   8.208 -0.8174  0.9709  2.1905
33887SOL     OW 8775   9.165   0.514  10.112  0.0170  0.0050  0.3179
33887SOL    HW1 8776   9.156   0.422  10.086 -0.7294  0.5040 -1.3690
33887SOL    HW2 8777   9.258   0.533  10.099  0.1028 -0.4110  0.3020
33888SOL     OW 8778  11.402   6.498   4.198 -0.2600 -0.1128 -0.3874
33888SOL    HW1 8779  11.414   6.557   4.124  0.9419  0.1176 -0.0314
33888SOL    HW2 8780  11.487   6.496   4.242 -0.7351 -0.8352  0.5553
33889SOL     OW 8781   5.322   5.473   5.707 -0.1050  0.3231 -0.1583
33889SOL    HW1 8782   5.399   5.509   5.663  1.0178 -0.3392  1.1791
33889SOL    HW2 8783   5.255   5.541   5.698  0.7512  1.0708 -1.0276
33890SOL     OW 8784   3.525   1.410   4.285  0.1167  0.0920 -0.0351
33890SOL    HW1 8785   3.439   1.444   4.310 -0.3485  1.2011 -2.8272
33890SOL    HW2 8786   3.507   1.330   4.236  0.8445 -0.6715  0.8826
33891SOL     OW 8787  11.877   1.040   4.717  0.1298 -0.1256  0.9771
33891SOL    HW1 8788  11.916   1.126   4.731 -0.4821  0.2721  0.3201
33891SOL    HW2 8789  11.801   1.037   4.774 -1.7087  1.0558 -1.2436
33892SOL     OW 8790   8.261   5.400   7.785  0.3639  0.0098 -0.1412
33892SOL    HW1 8791   8.297   5.470   7.732  2.5391  0.0036  1.1924
33892SOL    HW2 8792   8.337   5.353   7.818 -0.9832 -2.9440 -0.8661
33893SOL     OW 8793   3.986   0.946  11.604 -0.3746  0.2270 -0.0752
33893SOL    HW1 8794   3.939   0.863  11.590  0.1762 -0.2118  0.6462
33893SOL    HW2 8795   4.004   0.948  11.698  0.2604  0.8254 -0.2035
33894SOL     OW 8796   4.353  11.517  12.965  0.1855 -0.9508  0.0815
33894SOL    HW1 8797   4.420  11.578  12.933  1.2133 -2.5865 -1.0427
33894SOL    HW2 8798   4.353  11.530  13.060 -0.7186  1.8153 -0.2018
33895SOL     OW 8799   0.262  10.681   1.236  0.0203 -0.0690  0.1529
33895SOL    HW1 8800   0.216  10.631   1.304 -1.7851  2.0608  0.5860
33895SOL    HW2 8801   0.319  10.741   1.285  0.0497  0.2581 -0.2823
33896SOL     OW 8802   0.386   0.397   9.929 -0.3137  0.2261  0.0902
33896SOL    HW1 8803   0.427   0.452   9.995  0.8762 -1.4659  0.8330
33896SOL    HW2 8804   0.322   0.454   9.886  0.4432  1.9837  1.2004
33897SOL     OW 8805   3.604   3.675   9.885 -0.2205  0.2766  0.0116
33897SOL    HW1 8806   3.536   3.699   9.947 -2.5133  0.1083 -2.2845
33897SOL    HW2 8807   3.639   3.758   9.853 -0.3054  0.3794  0.1845
33898SOL     OW 8808   6.863  12.940   9.000  0.3337  0.3147 -0.0906
33898SOL    HW1 8809   6.815  13.012   8.960  0.2748  1.2133  1.5159
33898SOL    HW2 8810   6.939  12.981   9.041  0.9356 -0.7059 -0.1470
33899SOL     OW 8811   3.971   0.933  12.278  0.1929 -0.0912  0.5269
33899SOL    HW1 8812   3.894   0.974  12.240  0.6452  0.1095 -0.1935
33899SOL    HW2 8813   3.992   0.861  12.220 -0.2370 -0.9857  1.4579
33900SOL     OW 8814  12.903  12.448   9.688 -0.0654 -0.0839 -0.0986
33900SOL    HW1 8815  12.956  12.526   9.669  1.0492 -0.6698  0.4787
33900SOL    HW2 8816  12.947  12.408   9.763 -2.3140  0.2946  1.5011
33901SOL     OW 8817   6.754   8.159  11.272  0.6891 -0.0839 -0.5506
33901SOL    HW1 8818   6.782   8.071  11.249  1.0536 -0.0038 -0.4196
33901SOL    HW2 8819   6.672   8.147  11.319  1.1297 -0.4103  0.1495
33902SOL     OW 8820   6.393   3.022   9.790  0.4106  0.5889 -0.2190
33902SOL    HW1 8821   6.433   3.108   9.781  0.4029  0.5904 -0.2372
33902SOL    HW2 8822   6.399   3.003   9.884  0.0079  0.8069 -0.1479
33903SOL     OW 8823   9.925  10.413   2.614 -0.6802 -0.6395 -0.0601
33903SOL    HW1 8824   9.839  10.416   2.573 -0.1033 -1.3323 -1.3728
33903SOL    HW2 8825   9.956  10.504   2.612 -0.9489 -0.5566 -0.4985
33904SOL     OW 8826  11.702   7.223   7.007 -0.4847 -0.0615 -0.2449
33904SOL    HW1 8827  11.737   7.183   6.928  0.6916  1.4121 -0.4982
33904SOL    HW2 8828  11.627   7.273   6.978 -1.7558 -1.7101  0.0246
33905SOL     OW 8829   6.876   1.080   5.591 -0.4697  0.2617  0.1978
33905SOL    HW1 8830   6.968   1.061   5.570 -0.8715 -0.7042 -0.8158
33905SOL    HW2 8831   6.858   1.025   5.667 -0.6468 -0.8118 -0.5989
33906SOL     OW 8832  10.782   1.215   8.602  0.4036  0.8720  0.7587
33906SOL    HW1 8833  10.797   1.120   8.594  0.1532  0.7128  2.0170
33906SOL    HW2 8834  10.688   1.223   8.613  0.0548  1.4980 -1.8702
33907SOL     OW 8835   1.278  12.915   6.346  0.4656  0.3461 -0.2244
33907SOL    HW1 8836   1.188  12.882   6.342 -0.1621  1.9559  0.0331
33907SOL    HW2 8837   1.301  12.933   6.254 -0.9345  3.5536 -0.0733
33908SOL     OW 8838   1.919  11.564   1.162  0.1055 -0.3683  0.0550
33908SOL    HW1 8839   1.891  11.603   1.079  1.5688  0.4718 -0.0775
33908SOL    HW2 8840   2.001  11.609   1.183  0.7338 -1.8881  1.0149
33909SOL     OW 8841  11.510   7.700   4.625  0.6724 -0.0954 -0.5514
33909SOL    HW1 8842  11.530   7.623   4.572  1.3776 -0.5354  0.3280
33909SOL    HW2 8843  11.594   7.744   4.638  0.4238  0.3030 -0.2472
33910SOL     OW 8844   9.161   8.547   6.323  0.0216 -0.0529  0.0124
33910SOL    HW1 8845   9.140   8.554   6.416  0.2337 -1.8154  0.2276
33910SOL    HW2 8846   9.077   8.561   6.278  0.2114  2.6239  0.2975
33911SOL     OW 8847   0.833   8.396   6.942 -0.2787 -0.8640 -0.3015
33911SOL    HW1 8848   0.917   8.400   6.896 -1.2296 -0.3896 -2.0642
33911SOL    HW2 8849   0.831   8.307   6.979  2.1570 -0.0410  2.2058
33912SOL     OW 8850   8.865   1.635   5.732 -0.3659 -0.4952 -0.0443
33912SOL    HW1 8851   8.790   1.691   5.751 -0.1417 -0.5378  1.0548
33912SOL    HW2 8852   8.828   1.546   5.728 -0.7065 -0.3044 -1.7015
33913SOL     OW 8853   0.839   0.449   6.898  0.2513 -0.5414 -0.2794
33913SOL    HW1 8854   0.791   0.492   6.968 -1.5228 -0.8690 -1.2258
33913SOL    HW2 8855   0.800   0.361   6.892  0.3412 -0.5214 -1.6555
33914SOL     OW 8856   6.903   6.678   1.655  0.5901 -0.5509 -0.0623
33914SOL    HW1 8857   6.859   6.593   1.652  1.6930 -1.1466  0.2346
33914SOL    HW2 8858   6.996   6.657   1.658  0.8476  0.6379  1.1420
33915SOL     OW 8859   4.236   6.388   3.638  0.2027  0.2055 -0.0982
33915SOL    HW1 8860   4.296   6.352   3.704 -1.5375 -1.4617  0.7016
33915SOL    HW2 8861   4.196   6.463   3.682  0.2621  0.0999  0.1438
33916SOL     OW 8862   0.203   3.793   5.305  0.0188  1.1412 -0.1982
33916SOL    HW1 8863   0.268   3.811   5.373  0.4497  1.6281 -0.7273
33916SOL    HW2 8864   0.252   3.751   5.235 -0.3919  0.7947 -0.2879
33917SOL     OW 8865  10.946   3.545   7.434  0.2580 -0.1291  0.2022
33917SOL    HW1 8866  10.913   3.542   7.344  0.3040 -0.6986  0.2035
33917SOL    HW2 8867  10.895   3.480   7.481 -0.5848  0.9893  0.8727
33918SOL     OW 8868   0.804   6.789   7.560  0.0083  0.0178 -0.0646
33918SOL    HW1 8869   0.862   6.863   7.580 -0.8916  1.0993 -1.3209
33918SOL    HW2 8870   0.778   6.756   7.646  3.5210 -1.4148  0.6170
33919SOL     OW 8871  10.781   9.616   6.986  0.2319 -0.7455 -0.3718
33919SOL    HW1 8872  10.783   9.525   6.955 -0.8647 -0.7046 -0.6098
33919SOL    HW2 8873  10.792   9.668   6.906 -2.1439 -0.6470 -0.7145
33920SOL     OW 8874  11.798  11.450   2.840 -0.4411  0.5055 -0.2717
33920SOL    HW1 8875  11.725  11.389   2.830  0.0826 -0.3627  1.0713
33920SOL    HW2 8876  11.763  11.534   2.808 -2.0505  0.1290  0.4181
33921SOL     OW 8877   0.854   9.290   4.228 -0.0683 -0.4683  0.0335
33921SOL    HW1 8878   0.825   9.225   4.164  0.5661 -1.4725  0.7381
33921SOL    HW2 8879   0.943   9.311   4.202 -0.7850  1.3247 -1.1144
33922SOL     OW 8880   8.938   2.056  11.739 -0.0377  0.2723  0.5254
33922SOL    HW1 8881   9.001   2.007  11.686  1.0835 -0.1125  2.1477
33922SOL    HW2 8882   8.983   2.138  11.761 -0.7138  0.6812  0.4263
33923SOL     OW 8883   0.021  10.931   1.507  0.0737 -0.3685  0.2919
33923SOL    HW1 8884  -0.055  10.989   1.513  0.7412  0.4448  1.4171
33923SOL    HW2 8885   0.088  10.974   1.562  0.9074 -1.7192  0.3816
33924SOL     OW 8886   6.108   2.353   8.094 -0.4257  0.0486 -0.0053
33924SOL    HW1 8887   6.167   2.309   8.156 -1.2878  0.6715  1.3128
33924SOL    HW2 8888   6.149   2.438   8.079 -1.3583  0.8568  1.6367
33925SOL     OW 8889   7.216  12.522  12.707 -0.8952  0.2292  0.6978
33925SOL    HW1 8890   7.308  12.542  12.723 -1.0137 -0.2537  2.1314
33925SOL    HW2 8891   7.215  12.483  12.620  0.5349 -1.3422  1.3064
33926SOL     OW 8892  10.219   6.385   9.300  0.1067  0.3475 -0.1739
33926SOL    HW1 8893  10.206   6.377   9.206  0.9619 -1.1141 -0.2028
33926SOL    HW2 8894  10.295   6.441   9.310 -0.4696  1.1631 -0.3159
33927SOL     OW 8895  12.406   4.429  10.013 -0.7146 -0.2241  0.0119
33927SOL    HW1 8896  12.321   4.417  10.056 -1.8448  2.3439 -1.2915
33927SOL    HW2 8897  12.461   4.468  10.081 -1.9556  2.1606 -0.2478
33928SOL     OW 8898   7.705   2.978   9.147  0.0742  0.2524  0.1813
33928SOL    HW1 8899   7.690   2.987   9.053 -0.1134  0.7662  0.2526
33928SOL    HW2 8900   7.620   2.953   9.183  0.6045 -2.0242 -0.0165
33929SOL     OW 8901   1.740   7.830   0.506 -0.2294  0.2429 -0.1128
33929SOL    HW1 8902   1.782   7.880   0.437  0.2172  0.0874  0.0404
33929SOL    HW2 8903   1.657   7.801   0.469 -0.2053  0.5624 -0.4156
33930SOL     OW 8904   5.138   0.324  11.419 -0.0609  0.2866 -0.2755
33930SOL    HW1 8905   5.232   0.335  11.434  0.1427  1.5787 -2.2023
33930SOL    HW2 8906   5.106   0.412  11.400 -1.0324 -0.5191 -2.8292
33931SOL     OW 8907   7.127   7.137   9.583 -0.1846  0.2928 -0.4880
33931SOL    HW1 8908   7.119   7.133   9.488 -0.4116  0.4366 -0.4741
33931SOL    HW2 8909   7.202   7.194   9.598 -2.0013  2.8326 -0.5278
33932SOL     OW 8910   2.672   7.239   9.697 -1.0724  0.1058 -0.4456
33932SOL    HW1 8911   2.629   7.251   9.781  0.4469  1.2540  0.2211
33932SOL    HW2 8912   2.764   7.222   9.719 -0.8191 -0.5454 -1.8511
33933SOL     OW 8913   5.149   4.931  11.426  0.0180 -0.4158  0.5299
33933SOL    HW1 8914   5.139   4.844  11.466 -0.3520 -0.2709  0.7511
33933SOL    HW2 8915   5.198   4.981  11.491 -1.3108  0.0754  1.1917
33934SOL     OW 8916   3.310   5.404   9.708  0.5920 -0.3926 -0.1651
33934SOL    HW1 8917   3.387   5.444   9.750 -1.3195  3.2641  0.2823
33934SOL    HW2 8918   3.263   5.478   9.669 -3.0384 -2.3369  0.0882
33935SOL     OW 8919   5.396   5.939   5.504  0.0505 -0.0231 -0.4637
33935SOL    HW1 8920   5.401   5.942   5.409  0.3452 -0.1638 -0.4555
33935SOL    HW2 8921   5.471   5.991   5.534  1.3386 -1.8568 -0.3234
33936SOL     OW 8922   3.466   3.514  11.725  0.0101 -0.3073 -0.1255
33936SOL    HW1 8923   3.498   3.424  11.717 -0.7185 -0.5116 -0.9000
33936SOL    HW2 8924   3.389   3.508  11.781  1.6321  0.2826  2.3250
33937SOL     OW 8925   9.899   8.610   8.550  0.1898  0.3393 -0.9954
33937SOL    HW1 8926   9.980   8.660   8.546  1.0665 -1.0299 -1.3182
33937SOL    HW2 8927   9.917   8.540   8.614 -1.5069  1.2659  0.5895
33938SOL     OW 8928   3.641  10.345   9.825  0.6022  0.3920  0.3898
33938SOL    HW1 8929   3.607  10.327   9.738 -0.4985 -1.3097  1.1203
33938SOL    HW2 8930   3.574  10.399   9.867  1.0387  1.0447  0.2603
33939SOL     OW 8931   0.931  12.622   8.659  0.3568  0.4492 -0.7441
33939SOL    HW1 8932   0.882  12.673   8.595 -1.6010  1.0723  1.1381
33939SOL    HW2 8933   0.936  12.534   8.620 -0.9081  0.7649 -1.7021
33940SOL     OW 8934   9.888   1.211  10.843 -0.1492 -0.7201 -0.3207
33940SOL    HW1 8935   9.917   1.302  10.838  0.9530 -0.9843  0.7337
33940SOL    HW2 8936   9.924   1.170  10.764 -1.0366 -0.1593 -1.0344
33941SOL     OW 8937   1.740   2.650   0.880  0.1292  0.7245  0.1447
33941SOL    HW1 8938   1.687   2.674   0.956 -0.2189  0.4693 -0.0140
33941SOL    HW2 8939   1.776   2.564   0.902 -0.2751  0.4773 -0.1244
33942SOL     OW 8940   0.351  10.014  10.910 -0.5238  0.4622  0.0354
33942SOL    HW1 8941   0.371   9.996  10.818  1.3482 -0.2600  0.5379
33942SOL    HW2 8942   0.291   9.944  10.936  1.2903 -1.1262  0.1190
33943SOL     OW 8943   1.817   4.322  12.721  0.1479 -0.1216  0.2566
33943SOL    HW1 8944   1.724   4.320  12.699  0.0421  1.8669  0.4101
33943SOL    HW2 8945   1.862   4.327  12.636  0.0463  0.3152  0.2266
33944SOL     OW 8946   2.258   5.409   6.596 -0.2714 -0.6139 -0.3324
33944SOL    HW1 8947   2.178   5.372   6.634 -0.1178  0.1834  0.8263
33944SOL    HW2 8948   2.283   5.479   6.657  0.5339  0.0717 -1.4174
33945SOL     OW 8949  10.424   6.463   2.854 -0.0857 -0.1271 -0.0521
33945SOL    HW1 8950  10.360   6.533   2.869 -0.1960 -0.0463 -0.8446
33945SOL    HW2 8951  10.479   6.495   2.783  0.4787 -0.4411  0.2392
33946SOL     OW 8952   1.674   7.762   3.274 -0.0922 -0.2071  0.2017
33946SOL    HW1 8953   1.608   7.693   3.276  0.7354 -1.0046  0.7604
33946SOL    HW2 8954   1.705   7.768   3.365 -0.2187  0.9732  0.1863
33947SOL     OW 8955   4.711   9.382   0.350 -0.5826  0.3098 -0.0772
33947SOL    HW1 8956   4.778   9.390   0.282 -0.1373 -0.0341  0.3155
33947SOL    HW2 8957   4.686   9.289   0.348  0.9281 -0.1825  1.6113
33948SOL     OW 8958  12.322   5.625  10.810  0.0501 -0.3337  0.2956
33948SOL    HW1 8959  12.323   5.716  10.781  2.1200 -0.3882  0.0231
33948SOL    HW2 8960  12.378   5.623  10.887 -0.0980 -1.3430  0.4000
33949SOL     OW 8961   7.640   0.486   5.385  0.9087  0.4282  0.4934
33949SOL    HW1 8962   7.637   0.493   5.289  1.2692  2.2704  0.5824
33949SOL    HW2 8963   7.575   0.551   5.415  0.6112 -0.3199  1.5007
33950SOL     OW 8964   7.843   9.739  11.642 -0.7584  0.1849  0.6744
33950SOL    HW1 8965   7.880   9.818  11.682 -0.5088  0.0886  0.6366
33950SOL    HW2 8966   7.919   9.685  11.621 -0.8724  0.2812 -0.0243
33951SOL     OW 8967   1.025  12.463   6.121  0.4327  0.2822  0.4448
33951SOL    HW1 8968   0.930  12.468   6.131  0.4133  0.9599 -0.0356
33951SOL    HW2 8969   1.039  12.394   6.057  0.1839  1.1673 -0.5824
33952SOL     OW 8970   9.019  10.612  12.625  0.0003 -0.4043 -0.2872
33952SOL    HW1 8971   9.076  10.584  12.697 -1.6881  0.2977  1.4172
33952SOL    HW2 8972   9.030  10.707  12.620  0.1725 -0.4567 -1.0296
33953SOL     OW 8973   2.853   8.761  12.934  0.4996 -0.1113  0.2764
33953SOL    HW1 8974   2.864   8.820  13.008  0.1288 -1.2432  1.2668
33953SOL    HW2 8975   2.893   8.679  12.963  0.6330 -0.4805 -0.9032
33954SOL     OW 8976   5.887   5.611  12.178 -0.1374 -0.7878 -0.0800
33954SOL    HW1 8977   5.868   5.696  12.138 -1.3518 -1.1002 -0.1917
33954SOL    HW2 8978   5.982   5.613  12.193  0.0926 -0.0023 -1.4431
33955SOL     OW 8979  10.557   8.654  12.494  0.4348  0.1578  0.1443
33955SOL    HW1 8980  10.470   8.619  12.479  0.1641 -0.1637  2.1508
33955SOL    HW2 8981  10.568   8.722  12.428 -1.6285  0.7041  0.3151
33956SOL     OW 8982   8.936  12.135  11.182  0.5271  0.0230  0.5444
33956SOL    HW1 8983   8.939  12.166  11.091  1.9281  1.0021  0.8825
33956SOL    HW2 8984   8.992  12.057  11.183  1.5458  0.7394  0.7967
33957SOL     OW 8985   4.717  11.292   4.195  0.9075 -0.2394  0.3301
33957SOL    HW1 8986   4.756  11.334   4.119  0.0429  0.0514  0.0317
33957SOL    HW2 8987   4.710  11.362   4.260  1.1547 -0.3598  0.4855
33958SOL     OW 8988   7.900   9.822   7.427 -0.1785 -0.0341  0.4702
33958SOL    HW1 8989   7.979   9.801   7.476  0.8493 -0.1866 -1.1944
33958SOL    HW2 8990   7.831   9.773   7.472  1.0414 -1.6471  0.6724
33959SOL     OW 8991  10.813   3.443   8.244 -0.3326  0.1928 -0.0161
33959SOL    HW1 8992  10.895   3.448   8.293 -1.0541 -2.0980  1.6486
33959SOL    HW2 8993  10.747   3.480   8.303 -1.1786 -2.3931  0.8264
33960SOL     OW 8994   6.231   4.778   6.189  0.2264 -0.3291 -0.2978
33960SOL    HW1 8995   6.249   4.789   6.096 -0.0441  1.2353 -0.1964
33960SOL    HW2 8996   6.316   4.787   6.231  0.1262  0.6823 -0.2861
33961SOL     OW 8997   4.368   1.166  12.567  0.6379 -0.4211 -0.2091
33961SOL    HW1 8998   4.305   1.115  12.517 -0.4258 -0.0596  0.7304
33961SOL    HW2 8999   4.347   1.257  12.547  2.2681 -0.2958 -1.5624
33962SOL     OW 9000   2.489   9.311   6.596  0.1334 -0.3300  0.3684
33962SOL    HW1 9001   2.456   9.370   6.664  1.3558 -1.0516  1.6531
33962SOL    HW2 9002   2.498   9.227   6.641  2.3514 -0.4805 -0.2558
33963SOL     OW 9003  12.333   4.956   5.224  0.0840 -0.0472 -0.6880
33963SOL    HW1 9004  12.340   4.963   5.319 -1.1106 -0.6743 -0.5371
33963SOL    HW2 9005  12.362   5.041   5.192  1.5528 -0.1802  0.1579
33964SOL     OW 9006   8.467   9.918   9.694  0.1161 -0.1468  0.2209
33964SOL    HW1 9007   8.552   9.875   9.685  0.2346  0.1376 -0.0426
33964SOL    HW2 9008   8.482  10.006   9.659 -0.6532 -0.5228 -1.0848
33965SOL     OW 9009   5.240   3.742   1.805 -0.5316 -0.1113 -0.0715
33965SOL    HW1 9010   5.153   3.704   1.814 -0.9619  0.7206 -0.5843
33965SOL    HW2 9011   5.227   3.819   1.749  0.1263  1.3892  1.7232
33966SOL     OW 9012   7.251   3.275   1.999 -0.4394 -0.4474 -0.0574
33966SOL    HW1 9013   7.195   3.333   2.052 -1.4436 -0.6482 -0.8624
33966SOL    HW2 9014   7.193   3.244   1.929  0.0064 -2.6060  0.4586
33967SOL     OW 9015   0.027   3.282   6.144 -0.3133  1.4361  0.1306
33967SOL    HW1 9016  -0.018   3.302   6.226  0.5342 -0.2960  1.0821
33967SOL    HW2 9017  -0.035   3.228   6.095  0.0865  0.4091  0.7311
33968SOL     OW 9018  10.735   3.286   2.250  0.2098 -0.0568  0.8001
33968SOL    HW1 9019  10.707   3.372   2.220  0.1046 -0.6513 -0.9158
33968SOL    HW2 9020  10.809   3.304   2.308  1.1023  1.1576 -0.6307
33969SOL     OW 9021   5.012   9.918  10.574 -0.0702 -0.4328 -0.0511
33969SOL    HW1 9022   5.069   9.861  10.523  1.5737  1.2849 -0.2540
33969SOL    HW2 9023   5.037  10.007  10.548 -1.4633  0.4365  1.3586
33970SOL     OW 9024   8.312   8.220   8.805  0.1916 -0.1908  0.2553
33970SOL    HW1 9025   8.388   8.240   8.860 -0.1911  1.3386  0.2880
33970SOL    HW2 9026   8.294   8.128   8.822  0.2597  0.1468  2.4944
33971SOL     OW 9027   8.535   6.581  12.352 -0.0776 -0.6730  0.1187
33971SOL    HW1 9028   8.461   6.582  12.413 -0.7469  0.3836 -0.6638
33971SOL    HW2 9029   8.574   6.495  12.363 -2.1401 -1.7284 -0.2775
33972SOL     OW 9030   7.599   1.530   3.018  0.5497  0.7375 -0.5978
33972SOL    HW1 9031   7.640   1.597   3.073  2.4901 -0.4590 -0.4963
33972SOL    HW2 9032   7.656   1.525   2.941 -1.1735  1.1780 -1.9722
33973SOL     OW 9033   5.760   4.611   6.032  0.0349  0.4198  0.0471
33973SOL    HW1 9034   5.797   4.526   6.009  0.0615  0.5304 -0.3370
33973SOL    HW2 9035   5.757   4.658   5.949  0.4933  0.9789  0.3409
33974SOL     OW 9036  10.367  10.908   6.324  0.6129 -0.1354 -0.1822
33974SOL    HW1 9037  10.416  10.827   6.337  0.2094 -0.5564 -1.1840
33974SOL    HW2 9038  10.376  10.955   6.406  0.9206 -1.1619  0.3861
33975SOL     OW 9039   4.499  11.097   4.551  0.3450  0.4068 -0.3296
33975SOL    HW1 9040   4.439  11.091   4.477  0.6650 -0.3230 -0.5359
33975SOL    HW2 9041   4.584  11.115   4.512  0.2586  1.5982 -0.0269
33976SOL     OW 9042   2.144   4.383   9.168  0.3755 -0.1857  0.0217
33976SOL    HW1 9043   2.209   4.387   9.098  0.0962  2.6284 -0.1782
33976SOL    HW2 9044   2.176   4.314   9.227  2.6169 -0.0490 -0.9408
33977SOL     OW 9045  11.180   3.896  10.246 -0.0016 -0.5136 -0.3298
33977SOL    HW1 9046  11.254   3.947  10.212  1.2315 -2.3846 -0.5976
33977SOL    HW2 9047  11.122   3.885  10.172 -0.4446  0.7354 -0.1895
33978SOL     OW 9048   8.913   2.410   6.706  0.4973  0.1646 -0.0322
33978SOL    HW1 9049   8.851   2.401   6.779 -1.6268  1.7297 -1.5328
33978SOL    HW2 9050   8.969   2.483   6.731 -0.3131  0.7867 -0.0207
33979SOL     OW 9051   8.093   0.746   4.732 -0.3280  0.0591  0.6655
33979SOL    HW1 9052   8.028   0.696   4.681  0.7035 -0.3641 -0.2673
33979SOL    HW2 9053   8.069   0.729   4.824  0.1718 -2.4644  0.4042
33980SOL     OW 9054   9.373   2.274   4.311 -0.2055  0.5641 -0.0466
33980SOL    HW1 9055   9.419   2.332   4.371  0.8053  0.1361 -0.3730
33980SOL    HW2 9056   9.394   2.309   4.224 -0.7854  0.5638 -0.1875
33981SOL     OW 9057  12.512   8.601   0.412 -0.1182 -0.4802  0.1717
33981SOL    HW1 9058  12.596   8.563   0.387  0.3653 -1.4519  2.9485
33981SOL    HW2 9059  12.530   8.695   0.422  0.9813 -0.8263  1.7984
33982SOL     OW 9060   5.763   7.991  10.646 -0.6220 -0.2733  0.4244
33982SOL    HW1 9061   5.855   7.969  10.633  0.1567  2.3206  0.9809
33982SOL    HW2 9062   5.750   7.986  10.740 -0.3255  1.7240  0.6092
33983SOL     OW 9063   9.356   5.134   2.805  0.1861  0.4387 -0.2504
33983SOL    HW1 9064   9.403   5.210   2.839  2.1747 -1.0761  0.5875
33983SOL    HW2 9065   9.301   5.105   2.878 -1.6202  1.7643 -0.9921
33984SOL     OW 9066   5.400   4.160   5.284 -0.0873 -0.4001  0.7999
33984SOL    HW1 9067   5.430   4.077   5.247  0.9373  0.2868  0.0340
33984SOL    HW2 9068   5.416   4.152   5.378  1.6179 -0.4511  0.5378
33985SOL     OW 9069   4.426   8.211   9.616  0.0299  0.1662 -0.2722
33985SOL    HW1 9070   4.372   8.192   9.539 -1.7159  2.5315  0.2497
33985SOL    HW2 9071   4.467   8.295   9.596  0.4677  0.2448  0.9003
33986SOL     OW 9072   3.315   4.621   2.851 -0.2047  0.1617  0.7506
33986SOL    HW1 9073   3.344   4.573   2.773  0.2577  0.6122  0.6361
33986SOL    HW2 9074   3.356   4.575   2.924 -0.1413  0.1010  0.6779
33987SOL     OW 9075  11.750   3.063   5.615  0.3684 -0.0584 -0.8203
33987SOL    HW1 9076  11.728   3.150   5.647  2.1478  0.8477 -1.9050
33987SOL    HW2 9077  11.809   3.027   5.681  0.8163  0.1810 -1.0821
33988SOL     OW 9078   6.897   2.566   9.830  0.2687 -0.0739  0.6123
33988SOL    HW1 9079   6.890   2.662   9.832  0.0979 -0.0972  2.3103
33988SOL    HW2 9080   6.807   2.536   9.819  0.3612 -0.0665 -0.3212
33989SOL     OW 9081   4.220   5.130   0.158 -0.2537  0.0244  0.4405
33989SOL    HW1 9082   4.205   5.037   0.175  0.2815 -0.1458  0.0491
33989SOL    HW2 9083   4.226   5.170   0.244 -2.7207  0.1041  0.6347
33990SOL     OW 9084   2.731   3.866   4.630  0.1752 -0.4102 -0.3251
33990SOL    HW1 9085   2.690   3.796   4.580  1.2891 -2.3084  1.2553
33990SOL    HW2 9086   2.741   3.830   4.718  0.9608  1.6922  0.5224
33991SOL     OW 9087   3.925   5.703   6.923 -0.1286 -0.0223  0.3896
33991SOL    HW1 9088   3.851   5.762   6.910  0.2121  0.4940  0.7532
33991SOL    HW2 9089   3.990   5.756   6.970  0.0138 -0.8229  1.0977
33992SOL     OW 9090  11.731   0.053   7.807  0.1527  0.1244 -0.1689
33992SOL    HW1 9091  11.648   0.098   7.824  0.5482  0.5084  0.8555
33992SOL    HW2 9092  11.768   0.039   7.894  0.9043 -0.5470 -0.5860
33993SOL     OW 9093   9.004   3.093   4.790 -0.5521 -0.1676 -0.6537
33993SOL    HW1 9094   9.079   3.039   4.814 -0.8979  0.5505  2.4785
33993SOL    HW2 9095   9.042   3.173   4.753  0.5082  1.1193  2.8258
33994SOL     OW 9096   0.786   0.373  10.708  0.1690 -0.6285 -0.4211
33994SOL    HW1 9097   0.871   0.383  10.751 -0.5164 -0.5147  0.9720
33994SOL    HW2 9098   0.798   0.411  10.621  1.4019 -0.1629 -0.0671
33995SOL     OW 9099   0.712  11.085   6.624 -0.4727 -0.3139  0.3351
33995SOL    HW1 9100   0.675  11.065   6.537  1.7007 -2.3976 -0.2343
33995SOL    HW2 9101   0.692  11.007   6.676 -1.9228  1.0029  1.8319
33996SOL     OW 9102   3.042   4.998  11.655 -0.4741  0.1950  0.0906
33996SOL    HW1 9103   3.088   4.964  11.732 -0.4833  1.6971  0.7883
33996SOL    HW2 9104   3.112   5.021  11.594 -0.4237 -0.0487  0.0560
33997SOL     OW 9105   1.146   1.782   7.543 -0.2179  0.7458  0.8357
33997SOL    HW1 9106   1.077   1.837   7.578 -1.2876  2.2107 -3.0598
33997SOL    HW2 9107   1.105   1.696   7.532 -0.3138  0.6784  1.6696
33998SOL     OW 9108   3.528   4.484   3.964 -0.2571 -0.0909  0.0020
33998SOL    HW1 9109   3.489   4.399   3.985 -0.1462  0.0219  0.6726
33998SOL    HW2 9110   3.612   4.462   3.924 -1.1055 -0.3452 -1.7382
33999SOL     OW 9111  11.890  12.904   6.216 -0.8560 -0.1473 -0.3589
33999SOL    HW1 9112  11.930  12.876   6.133 -0.0189  0.0529 -0.0306
33999SOL    HW2 9113  11.883  12.823   6.268 -0.0517 -0.0357 -0.0762
34000SOL     OW 9114   8.352   8.671   1.946 -0.3965 -0.0568 -0.0445
34000SOL    HW1 9115   8.374   8.716   2.027 -2.7957  0.6917  0.2703
34000SOL    HW2 9116   8.268   8.629   1.964  0.5002 -2.5828 -1.1715
34001SOL     OW 9117   1.321  10.748   6.195 -0.1219  0.1557 -0.4388
34001SOL    HW1 9118   1.297  10.841   6.194  1.0969  0.4907 -0.6352
34001SOL    HW2 9119   1.247  10.704   6.235  0.0866  1.4625  1.5250
34002SOL     OW 9120   9.143  11.550   2.348  0.4918  0.0238 -0.2471
34002SOL    HW1 9121   9.053  11.562   2.318  1.2315  2.1471 -1.8791
34002SOL    HW2 9122   9.151  11.610   2.422  0.4524 -0.5550  0.2376
34003SOL     OW 9123   1.051   1.906   5.871 -0.1519 -0.7347 -0.6781
34003SOL    HW1 9124   1.073   1.813   5.866  0.7046 -0.4813 -2.1805
34003SOL    HW2 9125   0.963   1.907   5.908  0.8035 -1.9750  1.9146
34004SOL     OW 9126   6.473  11.365   0.025  0.0289  0.0425  0.0266
34004SOL    HW1 9127   6.447  11.274   0.019 -0.9130  0.2774  0.3617
34004SOL    HW2 9128   6.394  11.414   0.000  0.3453  0.7645  0.4211
34005SOL     OW 9129   0.659  12.658   0.924 -0.3364 -0.0961  0.1429
34005SOL    HW1 9130   0.748  12.693   0.916 -0.7340  0.7390 -0.9837
34005SOL    HW2 9131   0.614  12.689   0.845 -1.1355 -2.0087 -0.2076
34006SOL     OW 9132  12.304   3.514   6.815 -0.2818  0.2675  0.1549
34006SOL    HW1 9133  12.224   3.525   6.867 -1.8597 -2.1298 -1.5734
34006SOL    HW2 9134  12.308   3.592   6.760 -3.1014 -0.7954 -1.7421
34007SOL     OW 9135  12.335   3.006   8.254  0.0216  0.2967  0.0906
34007SOL    HW1 9136  12.334   3.101   8.244 -0.2137  0.1640 -1.4649
34007SOL    HW2 9137  12.247   2.978   8.228  0.6227 -0.4599 -1.2951
34008SOL     OW 9138   9.732  10.264   5.459  0.0450 -0.0671 -0.2624
34008SOL    HW1 9139   9.694  10.225   5.538 -1.6819  2.4737  0.2621
34008SOL    HW2 9140   9.811  10.309   5.490  1.3579 -1.9658 -0.6667
34009SOL     OW 9141   7.373   9.066   0.597  0.5452  0.3646  0.3647
34009SOL    HW1 9142   7.364   9.145   0.650 -0.3810 -0.0178  0.7881
34009SOL    HW2 9143   7.290   9.059   0.550  1.0313  0.2244 -0.4927
34010SOL     OW 9144   3.324   5.074   3.460 -0.4633 -0.3152 -0.0317
34010SOL    HW1 9145   3.256   5.029   3.410  0.0265 -0.3123 -0.7167
34010SOL    HW2 9146   3.319   5.165   3.431 -1.4762  0.1017  1.3791
34011SOL     OW 9147  10.665   6.961   0.264  0.1187  0.7601  0.5851
34011SOL    HW1 9148  10.680   7.052   0.241 -1.4645  0.3686 -2.5288
34011SOL    HW2 9149  10.728   6.912   0.211 -1.0187 -0.0552 -0.0503
34012SOL     OW 9150   9.172   2.367   1.720  0.0397  0.0412 -0.4545
34012SOL    HW1 9151   9.161   2.274   1.700 -0.6602  0.1031 -0.3780
34012SOL    HW2 9152   9.243   2.369   1.784 -1.0102 -0.5893  0.7696
34013SOL     OW 9153  10.564   3.532   7.245  0.1808 -0.2387  0.2157
34013SOL    HW1 9154  10.598   3.466   7.184 -0.4830  1.5500 -2.2560
34013SOL    HW2 9155  10.556   3.486   7.329  0.5514 -3.0252 -1.1663
34014SOL     OW 9156  10.987   2.361  11.282 -0.1643  0.2432  0.1002
34014SOL    HW1 9157  10.957   2.425  11.216 -2.1139  0.1134  0.7933
34014SOL    HW2 9158  10.967   2.403  11.366 -0.2296 -0.7223  0.5721
34015SOL     OW 9159   7.706   7.889   9.832  0.4927  0.2782 -0.3711
34015SOL    HW1 9160   7.795   7.909   9.861 -0.0624  2.1453  0.1952
34015SOL    HW2 9161   7.650   7.929   9.898 -0.7734  0.3005 -1.4293
34016SOL     OW 9162   4.657  10.325   2.479  0.0642  0.2697 -0.3991
34016SOL    HW1 9163   4.689  10.253   2.533 -0.9725 -0.0940 -0.2621
34016SOL    HW2 9164   4.609  10.283   2.408 -0.4916  0.8132 -0.3563
34017SOL     OW 9165   8.791   3.358   2.330 -0.1204 -0.4704  0.5922
34017SOL    HW1 9166   8.787   3.264   2.348  2.6355 -0.4618  1.7207
34017SOL    HW2 9167   8.791   3.364   2.234  0.3409 -1.6985  0.4910
34018SOL     OW 9168  10.042  11.916  11.472 -0.4169  0.1988 -0.6000
34018SOL    HW1 9169  10.073  11.864  11.397 -0.9738 -1.3697  0.2013
34018SOL    HW2 9170  10.026  11.851  11.541  1.5451  1.7246  1.4230
34019SOL     OW 9171  11.011   9.008   1.110 -0.2024 -0.2211 -0.3981
34019SOL    HW1 9172  10.944   9.052   1.059  1.0319 -0.0255 -1.9161
34019SOL    HW2 9173  10.996   9.037   1.200 -2.1868 -0.2665 -0.6743
34020SOL     OW 9174  11.602   9.454   3.054  0.6175 -0.1045  0.1155
34020SOL    HW1 9175  11.590   9.549   3.054  2.5819  0.1802 -0.7786
34020SOL    HW2 9176  11.667   9.438   2.986 -1.2716 -2.3346 -1.3108
34021SOL     OW 9177   2.421   0.084   9.343  0.2557  0.3811 -0.1074
34021SOL    HW1 9178   2.329   0.104   9.362 -0.0029  2.3575 -2.7337
34021SOL    HW2 9179   2.468   0.165   9.363  1.5206 -0.6585  1.3547
34022SOL     OW 9180   4.086   4.576   5.173 -0.0371  0.7585  0.7587
34022SOL    HW1 9181   4.151   4.514   5.140 -0.5156  0.8499 -0.4104
34022SOL    HW2 9182   4.057   4.538   5.256  0.8969  0.2956  0.8889
34023SOL     OW 9183   1.891   8.700   3.792  0.0233  0.3846 -0.1605
34023SOL    HW1 9184   1.976   8.683   3.831 -0.0502 -0.2135 -0.2492
34023SOL    HW2 9185   1.883   8.635   3.721  0.1420  1.4223 -1.1491
34024SOL     OW 9186   1.317   0.899   9.342  0.2202 -0.1202 -0.0081
34024SOL    HW1 9187   1.303   0.811   9.378  1.7122 -1.1838 -1.8380
34024SOL    HW2 9188   1.410   0.915   9.354 -0.0505  1.3112  0.3926
34025SOL     OW 9189   8.407   8.393   2.707  0.0890  0.0274 -0.0583
34025SOL    HW1 9190   8.484   8.421   2.756  0.0495  0.2222 -0.1090
34025SOL    HW2 9191   8.422   8.426   2.618  2.6838 -4.5231 -1.7029
34026SOL     OW 9192   2.840   1.350  11.777 -0.2625 -0.5594 -0.1189
34026SOL    HW1 9193   2.842   1.299  11.858  0.0425 -0.2166  0.0846
34026SOL    HW2 9194   2.816   1.285  11.710 -1.0034 -0.7462  0.3139
34027SOL     OW 9195   1.127  12.151   0.911  0.1755 -0.2973  0.2675
34027SOL    HW1 9196   1.181  12.207   0.856  0.8180 -1.3791 -0.2382
34027SOL    HW2 9197   1.116  12.201   0.992 -0.5633  1.2028 -0.7162
34028SOL     OW 9198   8.671   0.758   3.040  0.2031 -0.4962 -0.2363
34028SOL    HW1 9199   8.594   0.729   2.992 -0.8712 -0.6115  1.4722
34028SOL    HW2 9200   8.684   0.692   3.109  0.6522  0.5002  0.6750
34029SOL     OW 9201  10.592   7.231  10.194  0.5044 -0.1595  0.2521
34029SOL    HW1 9202  10.632   7.233  10.107  0.1465 -0.4106  0.0794
34029SOL    HW2 9203  10.537   7.309  10.197  1.5961  0.6083  0.7808
34030SOL     OW 9204   6.596   4.427   0.804 -0.0973  0.1605 -0.3367
34030SOL    HW1 9205   6.675   4.477   0.823 -0.6173  1.2428 -0.9419
34030SOL    HW2 9206   6.593   4.360   0.872 -0.1942  1.8958  1.4638
34031SOL     OW 9207   8.025  11.107   5.519 -0.0986 -0.3049 -0.0584
34031SOL    HW1 9208   8.015  11.202   5.517  0.7991 -0.2050 -1.3237
34031SOL    HW2 9209   7.961  11.077   5.583 -0.1980  1.1722  0.5662
34032SOL     OW 9210   6.858   7.954  11.620  0.4161  0.1441 -0.2565
34032SOL    HW1 9211   6.782   7.920  11.669 -0.0309  0.7270 -0.5344
34032SOL    HW2 9212   6.841   7.930  11.529 -0.4906  2.0800 -0.6437
34033SOL     OW 9213   1.702   2.727   6.315 -0.0163  0.1843  0.1843
34033SOL    HW1 9214   1.763   2.716   6.243  0.5368 -4.4665  1.0602
34033SOL    HW2 9215   1.627   2.672   6.292 -1.0242  0.7328  1.9688
34034SOL     OW 9216   7.039   4.944   8.764 -0.3807  0.1335 -0.1297
34034SOL    HW1 9217   7.021   4.871   8.705 -0.7929  0.3696 -0.3035
34034SOL    HW2 9218   7.095   5.002   8.714 -0.2730  0.0659 -0.0878
34035SOL     OW 9219   4.302   3.915   6.320  0.2040  0.4166 -0.4904
34035SOL    HW1 9220   4.258   3.995   6.348  1.3269  1.1838 -0.8517
34035SOL    HW2 9221   4.238   3.845   6.336 -0.9106  1.4169 -0.4662
34036SOL     OW 9222   9.312  12.489  10.891  0.1111  1.1536 -0.1172
34036SOL    HW1 9223   9.362  12.568  10.911  0.8836  0.6037  0.1894
34036SOL    HW2 9224   9.370  12.438  10.834 -0.2784  0.6945 -0.1075
34037SOL     OW 9225  10.790   8.527   5.389  0.1050  0.1009  0.4107
34037SOL    HW1 9226  10.725   8.575   5.338 -0.0914 -0.5032  0.0917
34037SOL    HW2 9227  10.739   8.481   5.455  0.1734 -0.6153 -0.0278
34038SOL     OW 9228   8.955   3.481   2.007 -0.1099  0.3049 -0.2501
34038SOL    HW1 9229   8.968   3.497   2.100 -0.7197 -2.2235  0.3600
34038SOL    HW2 9230   8.881   3.420   2.003  0.4818 -0.3808 -2.2976
34039SOL     OW 9231   1.258  12.802   4.623 -0.4227  0.1292 -0.4346
34039SOL    HW1 9232   1.275  12.858   4.699  0.8597 -0.0578 -0.5578
34039SOL    HW2 9233   1.298  12.718   4.646 -0.4919 -0.0920 -1.0992
34040SOL     OW 9234   1.459   3.939   4.463 -0.3558  0.5340  0.3041
34040SOL    HW1 9235   1.492   3.850   4.478  0.8938  0.9140 -0.0505
34040SOL    HW2 9236   1.380   3.927   4.410  0.5664 -0.3185 -0.9532
34041SOL     OW 9237   6.161   9.087   0.289  0.0146  0.6917 -0.9432
34041SOL    HW1 9238   6.071   9.064   0.313  0.9268 -2.1401  0.0547
34041SOL    HW2 9239   6.162   9.183   0.292 -2.1515  0.7562  2.2276
34042SOL     OW 9240   8.855   7.367   6.571  0.4940  0.1302  0.5104
34042SOL    HW1 9241   8.910   7.435   6.610 -0.1205  0.3868  0.9542
34042SOL    HW2 9242   8.824   7.315   6.646  0.3406 -0.1607  0.2480
34043SOL     OW 9243   6.919   1.568   3.769 -0.4611  1.0567 -0.0686
34043SOL    HW1 9244   6.839   1.620   3.763 -0.0983  1.6063 -0.2064
34043SOL    HW2 9245   6.983   1.616   3.717 -0.2069  0.2973 -0.4724
34044SOL     OW 9246   2.220   7.483   5.702 -0.3796 -0.0010  0.3831
34044SOL    HW1 9247   2.264   7.489   5.617  2.6328 -1.2309  1.7392
34044SOL    HW2 9248   2.206   7.575   5.728 -0.7986  0.3902 -1.1177
34045SOL     OW 9249   4.918   0.779   9.038 -0.1204  0.4147 -0.0186
34045SOL    HW1 9250   4.878   0.840   8.976 -1.4619  1.3128  1.6812
34045SOL    HW2 9251   4.852   0.711   9.050  0.3101  0.0163  0.1296
34046SOL     OW 9252   9.594   7.563   1.159  0.2656  0.2018 -0.0833
34046SOL    HW1 9253   9.646   7.608   1.093  0.9732  0.9024  0.9236
34046SOL    HW2 9254   9.524   7.519   1.109  1.3581 -0.1301 -1.3801
34047SOL     OW 9255  12.519   3.142   6.560 -0.5410  0.4132 -0.2022
34047SOL    HW1 9256  12.536   3.197   6.484  0.9433 -1.3483 -1.2408
34047SOL    HW2 9257  12.605   3.132   6.602 -0.3569 -2.3739 -1.0095
34048SOL     OW 9258   8.787  11.476   9.909  0.1621 -0.1983 -0.1687
34048SOL    HW1 9259   8.834  11.553   9.940  0.1707 -0.1202 -0.3753
34048SOL    HW2 9260   8.855  11.411   9.891  0.3306  0.4103 -1.8932
34049SOL     OW 9261  10.545   3.057   9.495  0.0596 -0.2560  0.4277
34049SOL    HW1 9262  10.474   3.024   9.440  0.6963 -1.7673  0.4821
34049SOL    HW2 9263  10.566   2.985   9.554  3.0881 -0.6507 -0.9813
34050SOL     OW 9264   6.294   5.005   6.960 -0.6012 -0.2029  0.6040
34050SOL    HW1 9265   6.377   5.053   6.957 -1.0426  0.5242 -0.5924
34050SOL    HW2 9266   6.301   4.942   6.888 -1.4840  0.5699 -0.1841
34051SOL     OW 9267   4.197   1.006  12.406  0.3921 -0.0443  0.4054
34051SOL    HW1 9268   4.107   0.978  12.391  0.4454 -1.0309  1.7060
34051SOL    HW2 9269   4.246   0.971  12.332 -0.3018  0.6727 -0.4232
34052SOL     OW 9270  10.946  12.510   6.832 -0.0288  0.1531 -0.2912
34052SOL    HW1 9271  10.938  12.415   6.832 -1.8651  0.2620 -0.8791
34052SOL    HW2 9272  10.943  12.534   6.739  0.1294  0.7968 -0.1344
34053SOL     OW 9273  12.956   5.113  12.903  0.1727  0.4738  0.6084
34053SOL    HW1 9274  13.030   5.172  12.920  0.8759 -0.3878  0.6168
34053SOL    HW2 9275  12.992   5.047  12.844 -0.0834 -0.9702  2.0014
34054SOL     OW 9276   4.040  11.998  12.045  0.3623 -0.9384  0.5416
34054SOL    HW1 9277   4.065  12.032  12.130  2.8852 -1.1928 -0.0326
34054SOL    HW2 9278   3.952  12.033  12.030  0.9769  1.4560  2.0061
34055SOL     OW 9279   7.668   5.882  11.329  0.2272  0.6407 -0.2466
34055SOL    HW1 9280   7.594   5.826  11.306 -0.3341  1.4334 -0.4242
34055SOL    HW2 9281   7.664   5.890  11.424  2.8030 -2.9917  0.3948
34056SOL     OW 9282   7.512   3.582   4.941  0.2707  0.7618  0.0783
34056SOL    HW1 9283   7.495   3.490   4.922  1.1817  0.6644 -0.3626
34056SOL    HW2 9284   7.596   3.600   4.898 -0.6053  2.2032 -1.1570
34057SOL     OW 9285   6.589   3.396   7.813 -0.4943  0.0520  0.3860
34057SOL    HW1 9286   6.657   3.341   7.851  0.5691  0.8577 -0.3157
34057SOL    HW2 9287   6.598   3.386   7.719  0.4202  2.1989  0.1966
34058SOL     OW 9288   7.764   6.420   2.658  0.0145  0.1053  0.6449
34058SOL    HW1 9289   7.849   6.408   2.699 -0.5244 -2.1037  1.2288
34058SOL    HW2 9290   7.765   6.512   2.628  2.3817  0.2782  1.0311
34059SOL     OW 9291   7.972  12.606   5.779  0.2927  0.3091 -0.4247
34059SOL    HW1 9292   8.014  12.541   5.722  0.4277 -0.2953  0.3468
34059SOL    HW2 9293   7.903  12.644   5.725  1.7691  1.2937 -1.7232
34060SOL     OW 9294   5.082   6.938  12.412  0.0632  0.5544  0.5510
34060SOL    HW1 9295   5.141   6.880  12.364  1.3394  0.3647  2.2587
34060SOL    HW2 9296   5.070   6.896  12.497 -0.1853  2.0351  1.2917
34061SOL     OW 9297  11.643   8.831  12.841  0.2437  0.3887 -0.0957
34061SOL    HW1 9298  11.633   8.771  12.767  1.4241 -0.4317  0.3940
34061SOL    HW2 9299  11.641   8.918  12.801  1.9219 -0.0581 -1.2530
34062SOL     OW 9300   9.608   3.070   7.378  0.3633 -0.5518 -0.0883
34062SOL    HW1 9301   9.644   2.990   7.340  1.6202  0.0729 -0.2635
34062SOL    HW2 9302   9.681   3.132   7.375 -0.5798  0.5804  0.0985
34063SOL     OW 9303   3.798   1.441   2.702  0.3170  0.0517 -0.1225
34063SOL    HW1 9304   3.800   1.438   2.797  1.1438  1.1700 -0.0768
34063SOL    HW2 9305   3.757   1.359   2.676  1.3080 -0.9068  1.1639
34064SOL     OW 9306  12.356   9.451   2.857  0.2465  0.0543 -0.2124
34064SOL    HW1 9307  12.311   9.440   2.940  0.3365 -0.1554 -0.1897
34064SOL    HW2 9308  12.380   9.362   2.831  0.9492  0.1955 -0.0529
34065SOL     OW 9309   2.211   0.552  10.443 -0.1769  0.6225 -0.1176
34065SOL    HW1 9310   2.228   0.458  10.432 -1.2172  0.2036  1.5537
34065SOL    HW2 9311   2.159   0.576  10.366 -0.6957 -0.3880 -0.0980
34066SOL     OW 9312  10.118  11.550   0.764  0.4009  0.0382 -0.2207
34066SOL    HW1 9313  10.118  11.576   0.671  2.2712  0.4114 -0.1574
34066SOL    HW2 9314  10.038  11.498   0.774  0.2095 -0.1125 -2.0681
34067SOL     OW 9315   3.283   5.898   5.049  0.1267 -0.0718  0.0032
34067SOL    HW1 9316   3.310   5.850   5.126  0.3698 -0.1840 -0.1520
34067SOL    HW2 9317   3.195   5.930   5.070  0.0573 -0.3867  0.1924
34068SOL     OW 9318   1.717   2.410  10.099 -0.6344 -0.1161  0.1047
34068SOL    HW1 9319   1.630   2.449  10.109 -0.2967  0.5330  0.5617
34068SOL    HW2 9320   1.743   2.384  10.188 -0.0767  0.3220  0.0752
34069SOL     OW 9321  12.790   2.087   3.637  0.4974 -0.5241 -0.0505
34069SOL    HW1 9322  12.753   2.157   3.583  0.6076 -0.0723  0.4561
34069SOL    HW2 9323  12.881   2.080   3.607  1.0379  0.8404  1.1591
34070SOL     OW 9324  11.755   1.643  12.465 -0.1524 -0.9929 -0.3143
34070SOL    HW1 9325  11.725   1.650  12.556 -0.5823 -2.1724 -0.3487
34070SOL    HW2 9326  11.805   1.723  12.451  0.5082 -1.0984  1.1781
34071SOL     OW 9327   7.417  10.427   1.648 -0.0106 -0.1020 -0.2818
34071SOL    HW1 9328   7.325  10.403   1.654  0.4245 -1.8271  0.1660
34071SOL    HW2 9329   7.418  10.512   1.603 -1.8169  0.1397  0.0856
34072SOL     OW 9330   6.203  12.929   7.621  0.3724 -0.3528  0.1976
34072SOL    HW1 9331   6.240  12.968   7.541 -0.1053 -0.5265 -0.1076
34072SOL    HW2 9332   6.279  12.914   7.677  0.5213  1.5987  0.5824
34073SOL     OW 9333   5.242   0.673  10.277  0.2050 -0.2488 -0.0041
34073SOL    HW1 9334   5.255   0.580  10.296  0.7027 -0.5879 -1.7895
34073SOL    HW2 9335   5.150   0.681  10.254  0.5138 -0.6601 -1.4919
34074SOL     OW 9336   9.945   6.579   9.269 -0.3008  0.0101  0.9023
34074SOL    HW1 9337   9.907   6.587   9.356 -0.6861  1.4129  0.6429
34074SOL    HW2 9338  10.016   6.516   9.278 -1.4258 -1.1712  1.8367
34075SOL     OW 9339   2.620   9.108   0.093  0.1191 -0.0968  0.9426
34075SOL    HW1 9340   2.695   9.049   0.089 -0.5317 -0.9444  1.1298
34075SOL    HW2 9341   2.544   9.052   0.080 -0.4179  0.9856 -1.0202
34076SOL     OW 9342   6.713   5.841  12.800  0.1462 -0.4858 -0.2134
34076SOL    HW1 9343   6.707   5.766  12.859  0.1912 -1.2076 -1.1001
34076SOL    HW2 9344   6.715   5.917  12.857 -0.1764 -1.1493  0.6933
34077SOL     OW 9345   0.534  10.168   3.880 -0.1381 -0.8724  0.4884
34077SOL    HW1 9346   0.596  10.232   3.916 -1.2657  1.7037 -1.7593
34077SOL    HW2 9347   0.510  10.114   3.955  2.6047 -0.1470  2.0373
34078SOL     OW 9348   9.885   2.672  10.925  0.3671 -0.3272 -0.1145
34078SOL    HW1 9349   9.938   2.710  10.996  1.4306 -0.4178 -0.8288
34078SOL    HW2 9350   9.849   2.747  10.879 -0.1429 -0.2633  0.3765
34079SOL     OW 9351   1.345   9.431   3.350  0.0663  0.0745  0.0911
34079SOL    HW1 9352   1.327   9.339   3.369  1.0404 -0.0576  0.4411
34079SOL    HW2 9353   1.259   9.471   3.339 -0.3710 -0.8489  0.0800
34080SOL     OW 9354   9.718   0.633   3.540 -0.5402  0.6511  0.6330
34080SOL    HW1 9355   9.717   0.545   3.505 -0.0586  0.7481  0.3725
34080SOL    HW2 9356   9.792   0.676   3.497 -1.1351  1.3697  0.3013
34081SOL     OW 9357   7.446   9.979   6.936 -0.1848 -0.3027 -0.3856
34081SOL    HW1 9358   7.538   9.989   6.962 -0.0249 -1.2062 -0.5761
34081SOL    HW2 9359   7.397  10.012   7.011  0.2898 -1.3797  0.4336
34082SOL     OW 9360   9.232   1.418  11.032  0.1496  0.7585  0.1270
34082SOL    HW1 9361   9.166   1.452  10.972 -0.3083  0.9214  0.7158
34082SOL    HW2 9362   9.187   1.347  11.079  0.8269 -0.0853 -0.4745
34083SOL     OW 9363   8.512  12.123  12.922  0.2730 -0.3555 -0.0507
34083SOL    HW1 9364   8.482  12.083  12.840 -0.4413  0.6199 -0.2941
34083SOL    HW2 9365   8.602  12.093  12.932  0.9443  0.7521 -2.0700
34084SOL     OW 9366   6.759   1.607  11.728  0.1786 -0.1749 -0.3653
34084SOL    HW1 9367   6.764   1.635  11.636 -0.0462 -0.0262 -0.3329
34084SOL    HW2 9368   6.665   1.597  11.744  0.2642 -1.1509 -0.4354
34085SOL     OW 9369  11.816   4.399  12.084  0.1829  0.5191 -0.3374
34085SOL    HW1 9370  11.902   4.374  12.050  1.5337  1.0428  2.3701
34085SOL    HW2 9371  11.824   4.493  12.102 -0.3136  0.2562  1.4914
34086SOL     OW 9372   3.656   9.128  11.141 -0.7869  0.3664  0.0443
34086SOL    HW1 9373   3.689   9.215  11.165 -0.9796  0.4159  0.1338
34086SOL    HW2 9374   3.684   9.116  11.051  1.2930 -0.4626  0.7290
34087SOL     OW 9375   1.366   7.604   3.919  0.0351 -0.2013  0.5701
34087SOL    HW1 9376   1.352   7.518   3.959  1.9261 -1.8101 -1.9489
34087SOL    HW2 9377   1.324   7.598   3.833  1.6310  0.7446 -0.3326
34088SOL     OW 9378   9.368   9.225   3.655 -0.4354 -0.7620  0.3534
34088SOL    HW1 9379   9.426   9.294   3.688  0.9835 -1.9535  0.4602
34088SOL    HW2 9380   9.323   9.192   3.732  0.9144 -1.7531  0.7683
34089SOL     OW 9381   6.733  12.551  12.345  0.3845 -0.1631 -0.2562
34089SOL    HW1 9382   6.817  12.576  12.384 -0.5311 -1.0696  2.4787
34089SOL    HW2 9383   6.668  12.577  12.410 -1.3168 -1.1511 -1.5105
34090SOL     OW 9384   0.913  11.246   2.460 -0.4580  0.2325  0.2406
34090SOL    HW1 9385   0.959  11.162   2.459 -0.8703 -0.0011  0.3882
34090SOL    HW2 9386   0.823  11.223   2.486 -0.3116  0.8457  1.3373
34091SOL     OW 9387   5.808   1.492   4.139  0.6664 -0.1361 -0.0861
34091SOL    HW1 9388   5.863   1.539   4.202  1.0353 -1.0587  0.2924
34091SOL    HW2 9389   5.796   1.554   4.067 -0.2559  1.1538  1.1306
34092SOL     OW 9390   5.346   2.805   4.433 -0.7861 -0.4473  0.3928
34092SOL    HW1 9391   5.323   2.872   4.498 -2.9438 -1.6580  0.9841
34092SOL    HW2 9392   5.361   2.854   4.352  0.9764  1.0084  1.5184
34093SOL     OW 9393   1.939   2.350   5.166  0.0224  0.9759  0.0456
34093SOL    HW1 9394   2.015   2.386   5.213  0.7887  3.5238 -2.8107
34093SOL    HW2 9395   1.954   2.255   5.166  1.5145  1.1255  2.2068
34094SOL     OW 9396  10.576   5.404  12.917  0.0141 -0.0752 -0.9776
34094SOL    HW1 9397  10.505   5.342  12.899  0.1862  0.2855 -3.1886
34094SOL    HW2 9398  10.584   5.405  13.012 -2.0134 -1.1612 -0.7490
34095SOL     OW 9399   8.861   6.382   5.165  0.6272 -0.1952 -0.0628
34095SOL    HW1 9400   8.857   6.381   5.069  1.2216 -1.1196 -0.0926
34095SOL    HW2 9401   8.811   6.305   5.191 -0.3172  0.5591  0.4241
34096SOL     OW 9402   6.515   5.533   8.485  0.1509 -0.1230  0.5706
34096SOL    HW1 9403   6.483   5.504   8.571 -0.0862  0.9269  0.8588
34096SOL    HW2 9404   6.447   5.593   8.454  0.3365 -0.3373 -0.2585
34097SOL     OW 9405  12.592  11.727   4.914 -0.2674 -0.5627  0.1043
34097SOL    HW1 9406  12.659  11.746   4.979 -0.2345  0.0396 -0.1000
34097SOL    HW2 9407  12.537  11.805   4.913  1.3178  0.6156 -2.5599
34098SOL     OW 9408   8.086  12.146  12.187 -0.1161 -0.1302 -0.1747
34098SOL    HW1 9409   8.013  12.085  12.176 -0.6544  0.3357  0.7351
34098SOL    HW2 9410   8.099  12.152  12.281 -0.0636  1.1427 -0.2495
34099SOL     OW 9411   1.208   5.988   9.739 -0.0950 -0.3344  0.3667
34099SOL    HW1 9412   1.265   5.944   9.802  1.6436  2.0926  0.6147
34099SOL    HW2 9413   1.260   5.992   9.659 -1.7894 -2.2048 -0.9317
34100SOL     OW 9414   0.740   6.249   1.923 -0.3027 -0.2603  0.8611
34100SOL    HW1 9415   0.744   6.285   1.834  1.3722  1.1737  1.4539
34100SOL    HW2 9416   0.654   6.276   1.956 -1.1075 -1.1503 -0.4282
34101SOL     OW 9417   3.041   0.588  10.340  0.0629 -0.3000  0.1009
34101SOL    HW1 9418   3.047   0.594  10.435  0.4809 -1.0402  0.1267
34101SOL    HW2 9419   3.019   0.497  10.322 -1.3744  0.1311 -0.4655
34102SOL     OW 9420   2.671   0.983  10.192  0.4057  0.5270 -0.1183
34102SOL    HW1 9421   2.654   1.050  10.126  2.9218  0.2227 -1.1885
34102SOL    HW2 9422   2.648   0.901  10.150  1.2420  0.4049 -0.3684
34103SOL     OW 9423   9.805   1.756   8.684  0.2040  0.0490  0.5729
34103SOL    HW1 9424   9.774   1.839   8.648  0.4274 -0.2765 -0.4021
34103SOL    HW2 9425   9.736   1.693   8.664  0.9535 -0.4433 -0.6312
34104SOL     OW 9426   1.190   3.642   2.159  0.4219  1.4512  0.0635
34104SOL    HW1 9427   1.261   3.580   2.175  0.0490  0.9569 -0.1380
34104SOL    HW2 9428   1.170   3.632   2.066 -0.6211  0.7797  0.3331
34105SOL     OW 9429   4.335   0.632   1.611  0.7166 -0.0268  0.1666
34105SOL    HW1 9430   4.275   0.678   1.552 -0.7364 -2.7678 -0.6480
34105SOL    HW2 9431   4.319   0.672   1.697 -0.4563  0.9591 -0.4700
34106SOL     OW 9432   7.980   1.163   4.271 -0.3564 -0.0993  0.4888
34106SOL    HW1 9433   7.992   1.070   4.290  1.7241  0.0156 -0.0421
34106SOL    HW2 9434   8.041   1.181   4.199  0.0806  1.9027  1.2974
34107SOL     OW 9435   8.822   1.983   2.373 -0.1054 -0.3056  0.2058
34107SOL    HW1 9436   8.872   2.048   2.325 -0.0997  0.8639  1.7311
34107SOL    HW2 9437   8.822   1.906   2.316  0.4392  0.7990 -1.3524
34108SOL     OW 9438  10.579   8.698   3.258  0.1262  0.2766  0.3198
34108SOL    HW1 9439  10.532   8.658   3.184 -0.3013  2.5421 -0.7050
34108SOL    HW2 9440  10.512   8.747   3.305  1.2456  3.0617 -0.8051
34109SOL     OW 9441   6.037   1.778   3.506 -1.1187  0.2358 -0.6979
34109SOL    HW1 9442   5.975   1.844   3.476  0.0302  1.3370 -0.7060
34109SOL    HW2 9443   6.026   1.705   3.445 -1.8383  0.7268 -1.1720
34110SOL     OW 9444  12.699   3.951  10.823  0.3239 -0.3864 -0.5659
34110SOL    HW1 9445  12.692   3.916  10.734  0.0129 -2.4540  0.2098
34110SOL    HW2 9446  12.727   3.876  10.876  0.1322  0.7001  1.1608
34111SOL     OW 9447  11.424   6.252   8.346  0.2489  0.1822  0.2918
34111SOL    HW1 9448  11.432   6.170   8.297  3.4258  0.1777  0.6184
34111SOL    HW2 9449  11.490   6.310   8.308  1.1690  1.0032  2.9225
34112SOL     OW 9450   7.386   1.375   7.058 -0.3060 -0.4059  0.0381
34112SOL    HW1 9451   7.469   1.355   7.101 -0.7206  0.0557  1.0855
34112SOL    HW2 9452   7.320   1.359   7.125 -0.9501  0.6257 -0.3357
34113SOL     OW 9453  12.695   9.970   8.141 -0.3125 -0.3370 -0.3148
34113SOL    HW1 9454  12.626   9.904   8.132 -0.6696 -0.2552  1.5960
34113SOL    HW2 9455  12.662  10.032   8.205  0.5921  0.9944 -1.0758
34114SOL     OW 9456   6.065   6.447   0.696  0.8649  0.1026 -0.7198
34114SOL    HW1 9457   6.129   6.518   0.700  1.6208 -0.6040  1.1328
34114SOL    HW2 9458   6.070   6.416   0.605  0.9571  1.9816 -1.4041
34115SOL     OW 9459   2.727  11.073   0.156 -0.5529  0.0054 -0.0305
34115SOL    HW1 9460   2.694  10.986   0.178 -2.4308  0.7370  0.2463
34115SOL    HW2 9461   2.753  11.111   0.240 -0.0393 -0.1662 -0.1106
34116SOL     OW 9462   0.041  11.694   2.897 -0.0873 -0.3012  0.7245
34116SOL    HW1 9463   0.030  11.607   2.935 -0.8756 -0.1004  0.9767
34116SOL    HW2 9464  -0.032  11.701   2.835 -1.3244  0.9793  2.2376
34117SOL     OW 9465   2.093   2.756  12.273 -0.0295  0.2404 -0.2974
34117SOL    HW1 9466   2.095   2.845  12.310  0.0516  0.3717 -0.6142
34117SOL    HW2 9467   2.163   2.710  12.320 -0.4133  0.1908  0.2387
34118SOL     OW 9468   9.317   3.808  11.955 -0.0538 -1.0286 -0.3960
34118SOL    HW1 9469   9.307   3.848  12.041 -1.4715 -0.0803 -0.9644
34118SOL    HW2 9470   9.389   3.857  11.914 -0.6300 -0.1743 -0.4324
34119SOL     OW 9471  12.090  10.303   2.997 -0.4191 -0.4348 -0.1726
34119SOL    HW1 9472  12.103  10.392   3.029 -4.2214  0.2754 -0.1316
34119SOL    HW2 9473  12.078  10.251   3.077  0.3820 -0.7289 -0.2355
34120SOL     OW 9474  11.035  11.624  10.672  0.4217  0.5969  0.5742
34120SOL    HW1 9475  11.080  11.668  10.745  1.7968 -0.2017  0.2353
34120SOL    HW2 9476  11.093  11.636  10.597  0.5326 -1.2455  0.3272
34121SOL     OW 9477   7.520   3.836  11.209  0.3949 -0.2164 -0.9166
34121SOL    HW1 9478   7.565   3.790  11.280 -0.6104  0.0400 -0.0881
34121SOL    HW2 9479   7.584   3.899  11.177  0.3678  0.7756  0.8535
34122SOL     OW 9480   4.985  12.763  12.049 -0.0564 -0.4850  0.6955
34122SOL    HW1 9481   5.039  12.823  12.100 -1.1637 -0.6893  2.1763
34122SOL    HW2 9482   4.915  12.818  12.013  1.2284 -0.1538 -1.5034
34123SOL     OW 9483  12.116  11.444   0.153  0.2674 -0.3347  0.1463
34123SOL    HW1 9484  12.128  11.508   0.082 -0.2662 -0.2732  0.1056
34123SOL    HW2 9485  12.168  11.368   0.125  0.8074  0.0298  0.1373
34124SOL     OW 9486   8.218   2.455   7.712 -0.3299  0.1692 -0.3166
34124SOL    HW1 9487   8.175   2.537   7.738  0.3633  0.2027  0.7916
34124SOL    HW2 9488   8.152   2.410   7.659 -1.4420  0.5924  0.6511
34125SOL     OW 9489   6.327  12.728   7.107  0.5433 -0.2738 -0.2594
34125SOL    HW1 9490   6.291  12.784   7.038  1.9297  0.4371 -0.4423
34125SOL    HW2 9491   6.344  12.644   7.064  1.4642  0.1865 -0.8093
34126SOL     OW 9492   5.273   0.740   1.871  0.1807 -0.0128 -0.0080
34126SOL    HW1 9493   5.282   0.687   1.792 -0.3150  1.7641 -1.3274
34126SOL    HW2 9494   5.193   0.790   1.857 -0.4177 -0.2790  2.0511
34127SOL     OW 9495   2.443   2.423   8.481  0.5091 -0.2998 -0.4639
34127SOL    HW1 9496   2.479   2.353   8.536 -0.0567 -2.2800 -2.4575
34127SOL    HW2 9497   2.421   2.493   8.543  3.3685 -0.8409  1.3468
34128SOL     OW 9498   0.906   8.966  12.063 -0.0191 -0.1792 -0.2460
34128SOL    HW1 9499   0.875   8.917  12.139 -0.3679 -1.7337 -1.3485
34128SOL    HW2 9500   0.846   9.041  12.056  1.6989  1.6310  2.6119
34129SOL     OW 9501   7.939   8.069   5.444  0.1360 -0.2881  0.3716
34129SOL    HW1 9502   8.012   8.130   5.456 -0.5623  0.3999  1.2366
34129SOL    HW2 9503   7.866   8.108   5.492 -0.5722 -1.3897  0.2382
34130SOL     OW 9504   5.808   8.933   4.353 -0.1758 -0.2837 -0.1922
34130SOL    HW1 9505   5.804   8.846   4.314  0.4916  0.0150 -0.9584
34130SOL    HW2 9506   5.837   8.990   4.282  0.6840  0.3488  0.6260
34131SOL     OW 9507   7.066   7.052  11.792  0.4533  0.2398 -0.3798
34131SOL    HW1 9508   7.159   7.064  11.808  0.4239  0.0539 -0.0564
34131SOL    HW2 9509   7.061   6.990  11.719  0.5841  0.3991 -0.5233
34132SOL     OW 9510   6.177   3.990  10.980  0.1602 -0.2443 -0.7225
34132SOL    HW1 9511   6.252   3.930  10.982  0.8081  0.5612 -0.4066
34132SOL    HW2 9512   6.178   4.032  11.066 -1.1528 -0.8083 -0.4074
34133SOL     OW 9513   5.742   1.337   4.830  0.1481 -0.1538  0.1923
34133SOL    HW1 9514   5.721   1.266   4.769  0.2542 -1.1720  1.3051
34133SOL    HW2 9515   5.818   1.306   4.878 -0.0849  0.5137  1.0194
34134SOL     OW 9516   7.081  11.081   1.068  0.3394  0.2300  0.4640
34134SOL    HW1 9517   6.997  11.088   1.023  1.4048  2.6498 -1.4156
34134SOL    HW2 9518   7.114  10.994   1.045 -1.2907 -0.4476  0.6073
34135SOL     OW 9519   0.048   4.799   8.081 -0.0513  0.2860 -0.5629
34135SOL    HW1 9520  -0.044   4.779   8.097 -0.5210  2.5288 -0.0074
34135SOL    HW2 9521   0.079   4.838   8.163  0.5238  2.2673 -1.6478
34136SOL     OW 9522   6.362   8.632   3.252 -0.0211  0.1525  0.1416
34136SOL    HW1 9523   6.401   8.711   3.215  1.0957 -0.2453  0.4183
34136SOL    HW2 9524   6.380   8.637   3.346 -0.2476 -0.2593  0.2126
34137SOL     OW 9525  10.991   9.432   5.174 -0.2977 -0.5432 -0.0529
34137SOL    HW1 9526  11.057   9.486   5.131 -0.0307 -0.7467  0.1030
34137SOL    HW2 9527  11.040   9.360   5.214 -0.9066 -2.4167 -2.4842
34138SOL     OW 9528   0.249   8.724   0.223  0.0015  0.2113 -0.3322
34138SOL    HW1 9529   0.254   8.673   0.142 -1.6936  1.2189 -1.1166
34138SOL    HW2 9530   0.184   8.677   0.277  0.4953  0.0230  0.1145
34139SOL     OW 9531   2.174   2.481   3.007 -0.1241 -0.2404  0.2174
34139SOL    HW1 9532   2.116   2.482   2.931 -0.1699 -0.9017  0.2333
34139SOL    HW2 9533   2.255   2.521   2.977 -0.5372  0.5731  0.1554
34140SOL     OW 9534   1.047  10.565   8.082 -0.2153 -0.0603 -0.9113
34140SOL    HW1 9535   1.140  10.588   8.075 -0.5572  1.5319 -0.6537
34140SOL    HW2 9536   1.010  10.591   7.998 -0.6864  0.7559 -0.4688
34141SOL     OW 9537   9.703  12.307   6.972  0.1145  0.1872 -0.3088
34141SOL    HW1 9538   9.670  12.313   6.882  0.8940  0.7550 -0.5649
34141SOL    HW2 9539   9.688  12.395   7.008  0.5831  0.2094 -0.1639
34142SOL     OW 9540   1.707   7.655   8.807  0.3808  0.0323 -0.5405
34142SOL    HW1 9541   1.721   7.563   8.829  0.8587 -0.3323 -2.1938
34142SOL    HW2 9542   1.793   7.686   8.780  0.0392  0.7004 -0.8790
34143SOL     OW 9543   2.797  10.811  12.079 -0.2257  0.3588 -0.2982
34143SOL    HW1 9544   2.717  10.838  12.124 -0.2268  1.0579 -0.7094
34143SOL    HW2 9545   2.865  10.869  12.114 -0.2585  1.0193 -1.3056
34144SOL     OW 9546   2.611   5.070   4.102 -0.0055 -0.3411 -0.1930
34144SOL    HW1 9547   2.603   5.084   4.196 -0.7553  2.2436 -0.5902
34144SOL    HW2 9548   2.559   4.991   4.085 -2.6370  0.9898  1.1296
34145SOL     OW 9549   6.807   2.577   6.515 -0.6943 -0.0486 -0.1120
34145SOL    HW1 9550   6.814   2.499   6.459 -0.7050  1.0060 -1.6583
34145SOL    HW2 9551   6.888   2.625   6.499 -1.5250  1.2065 -0.7149
34146SOL     OW 9552   7.829   3.645   8.215  0.6313  0.4010 -0.3157
34146SOL    HW1 9553   7.862   3.668   8.128  2.5002 -0.8646  0.0096
34146SOL    HW2 9554   7.887   3.692   8.275 -0.6706  1.2926  0.2949
34147SOL     OW 9555  12.875  12.679   4.195 -0.2668  0.2644 -0.1214
34147SOL    HW1 9556  12.860  12.760   4.243  1.2746  0.0124  0.8491
34147SOL    HW2 9557  12.842  12.610   4.253  1.9703 -0.0753  0.8419
34148SOL     OW 9558   5.979   8.472  10.263  0.0549 -0.0498  0.2079
34148SOL    HW1 9559   6.054   8.476  10.323 -0.0082 -0.5776  0.3219
34148SOL    HW2 9560   5.997   8.398  10.206 -0.3790 -0.1774  0.2322
34149SOL     OW 9561   0.414   8.305   1.686 -0.0098 -0.5525  0.0339
34149SOL    HW1 9562   0.508   8.316   1.670 -0.1152 -1.6504 -1.7001
34149SOL    HW2 9563   0.387   8.238   1.622 -2.1079  0.2562 -0.0109
34150SOL     OW 9564   0.823   4.094   5.773  0.9045  0.6303  0.5280
34150SOL    HW1 9565   0.826   4.052   5.687 -0.1971  0.2127  0.6771
34150SOL    HW2 9566   0.910   4.079   5.810  0.1019 -3.2758  1.3425
34151SOL     OW 9567   8.842   3.989   0.991 -0.4381 -0.2724  0.2517
34151SOL    HW1 9568   8.923   4.001   1.039  0.0879  0.3952 -0.7657
34151SOL    HW2 9569   8.827   3.894   0.992  1.1076 -0.5710 -0.7019
34152SOL     OW 9570   2.370   7.072   6.784  0.2791  0.2730 -0.1397
34152SOL    HW1 9571   2.305   7.017   6.740  1.8844  1.6265 -4.8472
34152SOL    HW2 9572   2.358   7.159   6.746  2.1652  1.5833  2.0022
34153SOL     OW 9573   6.409   4.517   1.639  0.1145 -0.6821 -0.1278
34153SOL    HW1 9574   6.496   4.556   1.633  0.8178 -2.0795  0.4531
34153SOL    HW2 9575   6.379   4.510   1.549 -0.1794  1.4228 -0.2424
34154SOL     OW 9576   7.704   8.838  10.656 -0.3213  0.2278 -0.2923
34154SOL    HW1 9577   7.715   8.884  10.740 -0.5884 -1.5147  0.7459
34154SOL    HW2 9578   7.630   8.779  10.671 -0.2799 -0.2099 -1.7268
34155SOL     OW 9579   8.593  12.951   5.164  0.2224 -0.2639 -0.2177
34155SOL    HW1 9580   8.540  12.871   5.170 -0.0609 -0.0978 -0.4950
34155SOL    HW2 9581   8.565  13.004   5.239  0.2295 -0.3150 -0.1783
34156SOL     OW 9582   4.889  10.863   9.900 -0.1489  0.0980 -0.0546
34156SOL    HW1 9583   4.919  10.896   9.985  0.8386 -1.7639  0.3817
34156SOL    HW2 9584   4.823  10.926   9.872 -0.3355  0.8980  1.9826
34157SOL     OW 9585   8.860   2.625   8.836 -0.1489  0.0286 -0.5295
34157SOL    HW1 9586   8.941   2.674   8.845  0.6721 -1.1992 -1.0981
34157SOL    HW2 9587   8.874   2.545   8.888 -1.8517  0.8004  1.2541
34158SOL     OW 9588   9.266   1.455   2.671  0.1917 -0.0558 -0.4510
34158SOL    HW1 9589   9.204   1.442   2.742  1.2642  1.2960  0.7894
34158SOL    HW2 9590   9.312   1.371   2.663 -0.4194 -0.4378 -0.0478
34159SOL     OW 9591   4.048   1.340   7.686 -0.3644  0.1853  0.6190
34159SOL    HW1 9592   4.098   1.268   7.648 -1.4150  0.0415 -0.5665
34159SOL    HW2 9593   4.111   1.412   7.692  1.2734 -1.3223  3.7389
34160SOL     OW 9594   8.288  10.535   7.005 -0.8602  0.2922 -0.1647
34160SOL    HW1 9595   8.198  10.532   7.038 -0.8040  2.7441  0.3792
34160SOL    HW2 9596   8.278  10.549   6.911 -1.0264 -0.1588 -0.2196
34161SOL     OW 9597  11.271   2.233   9.533  0.3745 -0.1911  0.0998
34161SOL    HW1 9598  11.304   2.159   9.481 -1.7738 -1.5730  0.5692
34161SOL    HW2 9599  11.189   2.257   9.490  0.2441  0.8642  0.9133
34162SOL     OW 9600   4.844   1.446  10.770  0.0401 -0.4387  0.2814
34162SOL    HW1 9601   4.909   1.376  10.775 -0.2972 -0.8407 -0.5993
34162SOL    HW2 9602   4.894   1.526  10.763  0.4559 -0.7627 -0.6152
34163SOL     OW 9603   8.409  12.474   2.881  0.1164  0.3940 -0.5802
34163SOL    HW1 9604   8.391  12.427   2.800 -3.5695  1.1036 -0.3466
34163SOL    HW2 9605   8.425  12.565   2.853 -1.3491  0.6785 -0.5521
34164SOL     OW 9606   5.091   3.873  12.441 -0.2239  0.1810 -0.0140
34164SOL    HW1 9607   4.998   3.889  12.456 -0.7441 -0.3635 -2.2660
34164SOL    HW2 9608   5.102   3.885  12.346  1.6679 -1.2984 -0.0379
34165SOL     OW 9609   3.574   1.308  12.047 -0.4534 -0.6015 -0.1036
34165SOL    HW1 9610   3.497   1.361  12.026 -1.1260 -1.1565  0.9024
34165SOL    HW2 9611   3.564   1.229  11.995 -0.5035 -0.6222 -0.0626
34166SOL     OW 9612   7.041  11.067   3.672 -0.7910 -0.4956 -0.2377
34166SOL    HW1 9613   6.956  11.034   3.642 -0.4457 -0.4225 -1.3124
34166SOL    HW2 9614   7.106  11.016   3.623 -0.2281  0.1803 -0.2048
34167SOL     OW 9615   6.736   7.480  10.815 -0.0648 -1.0284  0.1309
34167SOL    HW1 9616   6.820   7.449  10.849  0.0479  0.2831  1.1303
34167SOL    HW2 9617   6.674   7.459  10.884 -0.4732 -1.4926 -0.3703
34168SOL     OW 9618  11.205   3.027   8.273 -0.6970  0.3382 -0.6024
34168SOL    HW1 9619  11.218   2.971   8.197 -0.5528  0.0598 -0.3773
34168SOL    HW2 9620  11.291   3.064   8.291 -0.6046 -0.0623 -0.2173
34169SOL     OW 9621   5.870  12.646   0.585  0.7851 -0.0925  0.0354
34169SOL    HW1 9622   5.801  12.709   0.564  0.5166 -0.4232 -0.0809
34169SOL    HW2 9623   5.871  12.641   0.680  0.1856 -0.5956  0.0179
34170SOL     OW 9624  11.784   2.924   9.327  0.2458  0.0619  0.0112
34170SOL    HW1 9625  11.821   3.006   9.362  1.1658 -0.0980 -0.5605
34170SOL    HW2 9626  11.690   2.940   9.325 -0.0849 -0.3941  3.8412
34171SOL     OW 9627  11.430   6.091   0.771  0.0937  0.5453 -0.3179
34171SOL    HW1 9628  11.447   5.999   0.793  0.5485  1.0679  1.7214
34171SOL    HW2 9629  11.356   6.115   0.827  0.3633  1.5701 -0.3828
34172SOL     OW 9630  10.100  12.543  12.155 -0.7394 -0.6090  0.0713
34172SOL    HW1 9631  10.179  12.537  12.101  0.4160  1.0613  1.4615
34172SOL    HW2 9632  10.129  12.520  12.243 -1.5861  0.7727  0.7514
34173SOL     OW 9633  12.254  12.271   3.920  0.2869  0.1372  0.1077
34173SOL    HW1 9634  12.198  12.220   3.862 -2.8290  0.3179  2.6522
34173SOL    HW2 9635  12.323  12.210   3.946  0.1838 -0.7692 -1.6080
34174SOL     OW 9636   1.723   9.455   4.868  0.3048 -0.0455  0.7803
34174SOL    HW1 9637   1.805   9.497   4.842  0.8130 -0.4554  1.6780
34174SOL    HW2 9638   1.708   9.387   4.801  1.3738 -0.8199  1.3054
34175SOL     OW 9639   3.888   1.309   6.258  0.0949  0.0505 -0.2366
34175SOL    HW1 9640   3.911   1.226   6.299 -1.4583  0.0468  0.6948
34175SOL    HW2 9641   3.880   1.289   6.165 -0.8402 -0.9808  0.0555
34176SOL     OW 9642   5.179   4.436   0.600  0.2126  0.2161 -0.6038
34176SOL    HW1 9643   5.109   4.392   0.553  0.5906 -1.6324  0.4740
34176SOL    HW2 9644   5.247   4.451   0.534 -1.1383  2.0602 -1.6600
34177SOL     OW 9645   8.506   4.308   5.210 -0.0388  0.1230  0.8270
34177SOL    HW1 9646   8.469   4.384   5.254  2.4880  1.2959  1.1388
34177SOL    HW2 9647   8.515   4.242   5.280 -1.6973 -0.3066  0.6775
34178SOL     OW 9648   1.667   4.061  10.981  0.1357  0.3314  0.1629
34178SOL    HW1 9649   1.609   3.987  10.997  1.1869 -0.6747 -0.4614
34178SOL    HW2 9650   1.667   4.071  10.886  1.9274 -0.5352  0.0253
34179SOL     OW 9651   6.476   6.094  10.999 -0.4509 -0.1732 -0.4275
34179SOL    HW1 9652   6.474   6.152  11.076 -1.0406  1.9540 -1.9338
34179SOL    HW2 9653   6.497   6.008  11.034  1.5389  1.1126  1.8460
34180SOL     OW 9654   1.501   8.521   5.315 -0.4576  0.2878  0.3161
34180SOL    HW1 9655   1.509   8.522   5.220 -1.6069  0.6900  0.2049
34180SOL    HW2 9656   1.442   8.447   5.333  0.1378 -0.0917  0.7628
34181SOL     OW 9657   1.879   4.079   4.551 -0.2335  0.8114  0.0401
34181SOL    HW1 9658   1.806   4.065   4.491  0.6372 -0.0239 -0.8662
34181SOL    HW2 9659   1.853   4.035   4.632 -2.4379  3.9128  1.1977
34182SOL     OW 9660   4.977   0.435   0.977 -0.1433 -0.4784 -0.2073
34182SOL    HW1 9661   5.042   0.415   1.044 -0.7897  0.1992  0.6410
34182SOL    HW2 9662   4.895   0.401   1.012 -0.1271 -2.1622 -1.6703
34183SOL     OW 9663  12.546   9.690   1.600 -0.2533  0.0055  0.5487
34183SOL    HW1 9664  12.535   9.785   1.595  0.2047  0.0372  0.1248
34183SOL    HW2 9665  12.457   9.656   1.606 -0.4879  0.3863 -0.5866
34184SOL     OW 9666   0.806  10.102   5.366 -0.3284 -0.6085  0.0334
34184SOL    HW1 9667   0.714  10.081   5.382 -0.4550  0.1391  0.3467
34184SOL    HW2 9668   0.848  10.092   5.451 -0.5917  1.3048  0.4458
34185SOL     OW 9669   9.346   7.331   8.751  0.5921 -0.1105 -0.9144
34185SOL    HW1 9670   9.387   7.384   8.819 -1.5660  0.3342  0.1403
34185SOL    HW2 9671   9.267   7.380   8.727  0.3697 -1.1467 -2.4667
34186SOL     OW 9672   2.650   3.942   5.730 -0.4888 -0.0857  0.3790
34186SOL    HW1 9673   2.646   3.902   5.643 -0.9057  0.5693  0.0921
34186SOL    HW2 9674   2.719   3.893   5.775 -0.1567 -0.3313 -0.3740
34187SOL     OW 9675   2.146   6.438   5.706 -0.6671  0.0615  0.2450
34187SOL    HW1 9676   2.201   6.460   5.782  0.2603 -1.1754 -0.0395
34187SOL    HW2 9677   2.174   6.498   5.637  1.1494 -1.2664 -0.2327
34188SOL     OW 9678   8.723   7.635   4.936  0.1285  0.1967 -0.0890
34188SOL    HW1 9679   8.770   7.645   4.852  2.0910 -3.1312  0.4072
34188SOL    HW2 9680   8.638   7.675   4.921  1.3070  1.9902 -2.8073
34189SOL     OW 9681   8.285   5.749   5.417 -0.1725 -0.2516 -0.1637
34189SOL    HW1 9682   8.322   5.725   5.332 -1.7644  0.1841 -1.0261
34189SOL    HW2 9683   8.305   5.842   5.426  1.0797 -0.5699  0.5459
34190SOL     OW 9684  10.327   6.769   2.712 -0.6816  0.1079 -0.2507
34190SOL    HW1 9685  10.280   6.851   2.699 -2.0414 -0.7045 -0.6212
34190SOL    HW2 9686  10.417   6.788   2.685 -0.6044  1.8659  1.0482
34191SOL     OW 9687   1.396   9.523  11.542 -0.8148 -0.2199 -0.2103
34191SOL    HW1 9688   1.400   9.608  11.586 -1.0030 -1.0518  1.5125
34191SOL    HW2 9689   1.312   9.522  11.498 -1.1109  0.2349  0.3304
34192SOL     OW 9690   0.064   5.393   5.507  0.0528 -0.3261 -0.0552
34192SOL    HW1 9691   0.072   5.423   5.417 -1.0275  1.4550  0.4030
34192SOL    HW2 9692  -0.030   5.391   5.523  0.2564  0.0776  1.2564
34193SOL     OW 9693   2.827   5.791   2.721  0.5070  0.3701 -0.6280
34193SOL    HW1 9694   2.743   5.749   2.702  0.0991  1.2977 -0.9302
34193SOL    HW2 9695   2.885   5.718   2.744  0.2683 -0.5438 -2.6638
34194SOL     OW 9696  11.204   8.115   3.611  0.2748 -0.1207 -0.0867
34194SOL    HW1 9697  11.273   8.137   3.549  0.6269  2.1526  0.9881
34194SOL    HW2 9698  11.125   8.109   3.558  0.8183  0.2342 -0.9592
34195SOL     OW 9699   2.680   1.490   7.748 -0.8054  0.0703 -0.4223
34195SOL    HW1 9700   2.774   1.480   7.763 -0.8696 -1.6532 -0.9325
34195SOL    HW2 9701   2.672   1.510   7.655 -0.9247  0.8590 -0.2495
34196SOL     OW 9702   9.306  10.234  10.903  0.0310  0.8656  0.2036
34196SOL    HW1 9703   9.339  10.319  10.876 -2.1635  1.6675 -0.1954
34196SOL    HW2 9704   9.216  10.232  10.870 -0.4509 -1.0054  1.4639
34197SOL     OW 9705   3.399  10.336   4.422  0.4523 -0.0245  0.7039
34197SOL    HW1 9706   3.469  10.357   4.484 -0.2772  0.6938  1.3061
34197SOL    HW2 9707   3.443  10.330   4.337  1.2744  0.2246  1.1054
34198SOL     OW 9708   7.100   7.337   7.320 -0.3624 -0.4263 -0.6576
34198SOL    HW1 9709   7.023   7.394   7.316 -1.3726 -1.6715  0.2954
34198SOL    HW2 9710   7.068   7.252   7.290  0.3999 -1.2048  0.6797
34199SOL     OW 9711  12.858  10.614   9.817  0.0497  0.6789  0.4043
34199SOL    HW1 9712  12.881  10.703   9.845 -0.8778  0.7154  1.1020
34199SOL    HW2 9713  12.773  10.597   9.859 -0.4566 -0.0065 -0.8524
34200SOL     OW 9714   2.402   8.801  12.150 -0.0966  0.0708 -0.2891
34200SOL    HW1 9715   2.367   8.863  12.213  2.3182  0.4300  0.8364
34200SOL    HW2 9716   2.439   8.855  12.080  1.4123 -0.0549  0.3648
34201SOL     OW 9717   8.058   6.400   0.814  0.1225  0.1752 -0.2413
34201SOL    HW1 9718   8.018   6.400   0.727 -0.1245 -2.0638 -0.1712
34201SOL    HW2 9719   7.990   6.364   0.872  1.9054 -3.2929 -0.0458
34202SOL     OW 9720   8.233   7.216   5.455 -0.3320  0.0468 -0.3093
34202SOL    HW1 9721   8.275   7.142   5.498  0.1322 -0.6848 -1.9534
34202SOL    HW2 9722   8.293   7.289   5.469 -0.7738  0.1625  1.2876
34203SOL     OW 9723   7.506   7.545   4.890  0.3504 -0.3190 -0.0393
34203SOL    HW1 9724   7.567   7.542   4.964  0.3488 -0.3143 -0.0380
34203SOL    HW2 9725   7.550   7.600   4.825  0.8192 -1.1673 -0.4629
34204SOL     OW 9726   0.645   3.919  12.282 -0.3459 -0.2482  0.1057
34204SOL    HW1 9727   0.602   3.833  12.287 -1.3497  0.2483  0.1290
34204SOL    HW2 9728   0.610   3.959  12.203  2.5303 -1.1006 -1.7841
34205SOL     OW 9729   0.733   1.115   2.876 -0.3268  0.7064 -0.5775
34205SOL    HW1 9730   0.717   1.021   2.870 -0.5682  0.5786  1.4034
34205SOL    HW2 9731   0.828   1.124   2.865  0.0822 -0.0954  1.7200
34206SOL     OW 9732   5.579   2.508   1.939 -0.0347 -0.1537 -0.9201
34206SOL    HW1 9733   5.531   2.591   1.945  0.4276  0.1327 -1.1635
34206SOL    HW2 9734   5.665   2.532   1.904 -0.2365 -0.8634 -1.9360
34207SOL     OW 9735   6.388   9.558   9.826  0.5170 -0.4469  0.4135
34207SOL    HW1 9736   6.459   9.516   9.874 -0.5288 -0.9042  1.6045
34207SOL    HW2 9737   6.431   9.625   9.773  1.7208  0.0554  1.9748
34208SOL     OW 9738   5.515   2.876  11.502  0.0670  0.1859 -0.7301
34208SOL    HW1 9739   5.513   2.786  11.532 -1.1630  0.1392 -0.9385
34208SOL    HW2 9740   5.545   2.926  11.579  2.3345 -0.5373 -1.0629
34209SOL     OW 9741   8.569   7.972   1.563 -0.4180 -0.1833  0.4975
34209SOL    HW1 9742   8.514   8.032   1.613 -0.8615 -0.6726  0.6106
34209SOL    HW2 9743   8.591   7.902   1.625  0.4379  0.0668  0.4869
34210SOL     OW 9744   5.784   9.060  10.623  0.7504 -0.4978  0.2221
34210SOL    HW1 9745   5.700   9.051  10.667 -0.0933 -0.6595 -1.3542
34210SOL    HW2 9746   5.787   9.151  10.595  0.5437 -0.7820 -0.7629
34211SOL     OW 9747   8.466   3.415   6.444 -0.0929  0.1038 -0.3341
34211SOL    HW1 9748   8.403   3.401   6.515  0.4920  1.5336  0.5290
34211SOL    HW2 9749   8.541   3.360   6.468  0.2219  0.8049  0.3460
34212SOL     OW 9750   1.163   1.091   7.293 -0.5569 -0.5849 -0.0842
34212SOL    HW1 9751   1.092   1.107   7.355 -0.4337 -0.6039  0.0612
34212SOL    HW2 9752   1.232   1.051   7.346 -1.0272 -2.0604 -0.5166
34213SOL     OW 9753   8.825  10.974   0.304  0.0274 -0.8156 -0.2476
34213SOL    HW1 9754   8.884  11.014   0.368 -0.6265  0.2588 -0.2933
34213SOL    HW2 9755   8.823  11.036   0.231 -1.5142 -0.5923 -0.0488
34214SOL     OW 9756   6.820   3.399   2.360  0.4471 -0.0695 -0.5493
34214SOL    HW1 9757   6.912   3.422   2.367  0.4209  0.0420 -0.5709
34214SOL    HW2 9758   6.797   3.363   2.446  0.3945  0.3203 -0.3985
34215SOL     OW 9759   0.594   8.474  10.137  0.1648 -0.5423  0.3126
34215SOL    HW1 9760   0.592   8.556  10.187  0.9374  0.9244 -1.9084
34215SOL    HW2 9761   0.687   8.461  10.118 -0.1391 -0.7810 -1.0959
34216SOL     OW 9762   0.616  10.248   2.741  0.1192 -0.7432  0.2239
34216SOL    HW1 9763   0.683  10.198   2.695 -1.4340 -1.5187 -1.3054
34216SOL    HW2 9764   0.544  10.187   2.753 -1.8476  1.0211 -1.7042
34217SOL     OW 9765   4.864  12.054   3.347 -0.2583  0.4932  0.6159
34217SOL    HW1 9766   4.879  12.103   3.266 -2.4945 -1.6937 -1.2598
34217SOL    HW2 9767   4.770  12.064   3.365  0.0536  0.3737  2.6160
34218SOL     OW 9768   0.186   7.742  12.887 -0.0254 -0.2665 -0.0797
34218SOL    HW1 9769   0.278   7.768  12.887 -0.6272  2.1007 -0.6235
34218SOL    HW2 9770   0.188   7.647  12.902  2.4330 -0.1494  0.8076
34219SOL     OW 9771  12.150   3.799  10.430 -0.0017 -0.1675 -0.2943
34219SOL    HW1 9772  12.056   3.806  10.412  0.2461 -1.7085 -2.5786
34219SOL    HW2 9773  12.162   3.849  10.511 -2.6714  0.5640 -0.2376
34220SOL     OW 9774   4.218   8.459   3.999 -0.0542 -0.0226 -0.0383
34220SOL    HW1 9775   4.162   8.392   3.959  2.7330 -2.6327  0.0535
34220SOL    HW2 9776   4.233   8.523   3.929 -1.5057 -0.3321 -0.6595
34221SOL     OW 9777   7.989  10.429   6.765 -0.5083  0.5823 -0.2772
34221SOL    HW1 9778   8.008  10.523   6.756 -0.2338  0.6985  1.2144
34221SOL    HW2 9779   8.061  10.386   6.719 -0.5790  1.0940 -0.8832
34222SOL     OW 9780   4.368  10.958   2.049 -0.7893 -0.1190  0.3972
34222SOL    HW1 9781   4.386  10.870   2.016  0.6399 -0.3024  1.5579
34222SOL    HW2 9782   4.284  10.982   2.010 -0.1044 -1.0494 -1.8158
34223SOL     OW 9783   7.134   9.601   5.316  0.5613 -0.1481  0.5003
34223SOL    HW1 9784   7.060   9.590   5.257  1.0766 -1.7088  0.0958
34223SOL    HW2 9785   7.203   9.639   5.261  1.1652 -1.9531 -0.0616
34224SOL     OW 9786   1.666   3.980   7.354  0.4856  0.1766  1.0373
34224SOL    HW1 9787   1.730   3.966   7.284 -0.8302  0.5780 -0.3064
34224SOL    HW2 9788   1.601   3.910   7.341  0.7495 -0.3902  2.5405
34225SOL     OW 9789   4.110  12.741   1.634 -0.3147  0.3540  0.2755
34225SOL    HW1 9790   4.065  12.789   1.703  1.1470 -0.5666  1.9646
34225SOL    HW2 9791   4.070  12.653   1.636 -0.4021  0.3765 -0.2136
34226SOL     OW 9792   8.494   4.794   2.609  0.5206 -0.3924  0.9596
34226SOL    HW1 9793   8.576   4.834   2.578  0.3393 -0.5981  0.1790
34226SOL    HW2 9794   8.452   4.862   2.660  1.2600 -0.3367  1.5114
34227SOL     OW 9795  11.793  11.134   1.800  0.3132  0.4862 -0.1336
34227SOL    HW1 9796  11.877  11.155   1.842  0.9975 -0.0096 -1.2197
34227SOL    HW2 9797  11.734  11.203   1.830  0.8217  0.2940  1.4496
34228SOL     OW 9798  12.236   8.799  12.709  0.3139 -0.1226  0.1427
34228SOL    HW1 9799  12.144   8.822  12.692  0.4465 -0.0913 -0.5776
34228SOL    HW2 9800  12.232   8.742  12.785 -0.1998  0.7320  0.7723
34229SOL     OW 9801  11.073   0.409   0.938 -0.3378  0.3196 -0.1435
34229SOL    HW1 9802  10.981   0.425   0.917 -0.0323  0.7904 -1.2084
34229SOL    HW2 9803  11.096   0.332   0.885 -0.8238 -1.5406  2.1936
34230SOL     OW 9804   4.535   2.273   2.847 -0.2792 -0.2849 -0.1929
34230SOL    HW1 9805   4.579   2.211   2.905  0.4641  0.4201  0.0189
34230SOL    HW2 9806   4.450   2.234   2.829  0.8420 -2.2541 -1.5215
34231SOL     OW 9807  11.767   9.072   6.551  0.5878  0.1570 -0.1469
34231SOL    HW1 9808  11.860   9.095   6.546  1.0752 -1.2073  1.6201
34231SOL    HW2 9809  11.757   8.999   6.490  1.0232 -0.6336  0.7094
34232SOL     OW 9810  11.132   1.829   4.133  0.6523 -0.6305  0.2120
34232SOL    HW1 9811  11.200   1.771   4.097  0.7256 -0.7258  0.5064
34232SOL    HW2 9812  11.169   1.863   4.214  0.2729 -0.8330  0.4716
34233SOL     OW 9813   1.237   0.234   1.684  0.2163 -0.4451 -0.4627
34233SOL    HW1 9814   1.308   0.237   1.620  0.5474  0.3221 -0.0719
34233SOL    HW2 9815   1.281   0.218   1.768 -0.1414 -0.6943 -0.3205
34234SOL     OW 9816   6.618   0.992   1.517 -0.6730  0.2404 -0.4263
34234SOL    HW1 9817   6.683   0.950   1.574 -0.1052 -1.6151 -2.3119
34234SOL    HW2 9818   6.636   1.086   1.524  1.5204 -0.1654 -0.0563
34235SOL     OW 9819   2.336  11.976   3.808 -0.0242  0.6493 -0.0881
34235SOL    HW1 9820   2.373  11.980   3.897 -1.9856 -1.8118  0.9605
34235SOL    HW2 9821   2.323  11.882   3.792 -0.6378  1.0994 -2.6161
34236SOL     OW 9822   9.002   3.664   6.348 -0.1471  0.4914  0.1082
34236SOL    HW1 9823   8.973   3.710   6.269 -0.5848  1.7061  0.9429
34236SOL    HW2 9824   9.097   3.665   6.343 -0.0980  2.5164  0.6279
34237SOL     OW 9825   5.426   1.773  11.302 -0.3881  0.2974 -0.3020
34237SOL    HW1 9826   5.483   1.704  11.268 -3.5643 -2.4753 -0.5385
34237SOL    HW2 9827   5.374   1.802  11.227 -0.8446  1.1486  0.3163
34238SOL     OW 9828   1.008   1.143   6.675 -0.5138  0.4640  0.1844
34238SOL    HW1 9829   1.045   1.134   6.587 -0.0617  0.7432  0.3407
34238SOL    HW2 9830   1.016   1.055   6.713  0.3544  0.6002  0.3483
34239SOL     OW 9831   5.424   0.652   5.565 -0.2084  0.2036  0.3396
34239SOL    HW1 9832   5.407   0.730   5.512  0.5068  0.8474  1.0242
34239SOL    HW2 9833   5.337   0.627   5.597 -0.6225 -0.0683 -0.9227
34240SOL     OW 9834  11.764  12.400   2.088  0.0347 -0.1012  0.4659
34240SOL    HW1 9835  11.847  12.415   2.043 -0.1966 -1.2923 -0.4277
34240SOL    HW2 9836  11.716  12.340   2.030 -1.6855  0.9743  0.6732
34241SOL     OW 9837  10.507   3.968   6.004 -0.3962  0.0151 -0.5759
34241SOL    HW1 9838  10.556   4.030   6.059  0.7222  0.0512 -1.5760
34241SOL    HW2 9839  10.560   3.889   6.004 -0.7149 -0.2016 -1.0868
34242SOL     OW 9840   3.692   3.428  10.616  0.7284  0.2661 -0.3827
34242SOL    HW1 9841   3.718   3.475  10.696  0.4454 -0.5714  0.2195
34242SOL    HW2 9842   3.746   3.349  10.617 -0.6590 -0.7031  0.0233
34243SOL     OW 9843   3.346   3.259   6.214 -0.2783 -0.2858  0.0695
34243SOL    HW1 9844   3.329   3.270   6.121  0.1025  3.0986  0.2981
34243SOL    HW2 9845   3.418   3.195   6.218 -0.6825 -0.9171 -1.8757
34244SOL     OW 9846   2.129   7.187   3.164  0.1588  0.0568 -0.0270
34244SOL    HW1 9847   2.072   7.112   3.145  0.7359 -0.5097  0.4661
34244SOL    HW2 9848   2.091   7.227   3.242  0.7431 -0.6329  0.6100
34245SOL     OW 9849   8.654   0.959   9.432  0.1938 -0.5478 -0.3523
34245SOL    HW1 9850   8.737   0.936   9.390  0.3812 -1.6249  0.5606
34245SOL    HW2 9851   8.660   0.922   9.520 -0.5972  0.7950  0.3073
34246SOL     OW 9852  10.809   5.349   6.796  0.2848  0.1382 -1.2510
34246SOL    HW1 9853  10.870   5.423   6.796 -0.5605  0.9753  1.7684
34246SOL    HW2 9854  10.864   5.272   6.810  0.7864  0.8616  1.2493
34247SOL     OW 9855   7.485   1.966   9.297  0.0473 -0.3250  0.3148
34247SOL    HW1 9856   7.467   2.034   9.363 -1.3726  0.2373 -0.6013
34247SOL    HW2 9857   7.423   1.985   9.227  0.6112 -1.7370 -0.5872
34248SOL     OW 9858  10.338   2.346  10.060 -0.3188 -0.2482  0.1791
34248SOL    HW1 9859  10.356   2.288  10.134 -0.7857 -0.8820 -0.1973
34248SOL    HW2 9860  10.421   2.391  10.045  0.3470 -1.5381 -0.1418
34249SOL     OW 9861   9.382   0.593   8.616  0.0642  0.1395  0.4720
34249SOL    HW1 9862   9.364   0.598   8.710  0.7558  1.2651  0.5692
34249SOL    HW2 9863   9.415   0.680   8.594 -0.0651 -0.1242 -0.8125
34250SOL     OW 9864   6.069   6.937   7.978 -0.0144  0.0582  0.4778
34250SOL    HW1 9865   6.058   6.916   7.885 -1.5161  1.9095  0.1635
34250SOL    HW2 9866   6.161   6.922   7.996  0.9847  2.3027 -2.0896
34251SOL     OW 9867   6.286   1.410  11.593  0.3141 -0.0112 -0.1083
34251SOL    HW1 9868   6.321   1.339  11.540  1.3827 -0.6781  1.4355
34251SOL    HW2 9869   6.210   1.442  11.543  0.5117 -1.4372 -1.3905
34252SOL     OW 9870   0.712  12.036   1.688  0.5419 -0.4692 -0.2706
34252SOL    HW1 9871   0.722  11.941   1.680  0.9703 -0.6133  1.6129
34252SOL    HW2 9872   0.776  12.073   1.627  3.0849 -1.4187  1.6577
34253SOL     OW 9873   2.575   2.958   7.258 -0.4140 -0.1131 -0.1730
34253SOL    HW1 9874   2.642   3.025   7.269 -0.3417 -0.3235  0.7754
34253SOL    HW2 9875   2.553   2.932   7.348 -2.1003  0.2876 -0.4353
34254SOL     OW 9876   7.565   3.623   8.818 -0.0303  0.2939 -0.3697
34254SOL    HW1 9877   7.587   3.710   8.783 -1.3906  0.4902 -0.7918
34254SOL    HW2 9878   7.559   3.637   8.913 -0.5371  0.7427 -0.4593
34255SOL     OW 9879   3.319   9.488   9.216 -0.7089  0.1226  0.8682
34255SOL    HW1 9880   3.234   9.446   9.200 -1.2413  1.3124  0.4411
34255SOL    HW2 9881   3.297   9.568   9.265  0.0723  0.8600  0.0612
34256SOL     OW 9882   4.607   3.452   6.755 -0.2123  0.0470  0.0119
34256SOL    HW1 9883   4.627   3.493   6.839 -2.7057  0.9070  0.2708
34256SOL    HW2 9884   4.520   3.485   6.732  0.0573 -0.7871 -2.5341
34257SOL     OW 9885   1.201   5.160  11.213  0.1138 -0.3636 -0.5413
34257SOL    HW1 9886   1.287   5.128  11.239  0.5705 -0.0984 -1.6529
34257SOL    HW2 9887   1.219   5.229  11.149 -0.9429 -1.5395 -2.1924
34258SOL     OW 9888   2.905   3.211   1.830  0.0282 -0.1879 -0.2780
34258SOL    HW1 9889   2.974   3.178   1.886  0.4642 -0.3392 -0.8940
34258SOL    HW2 9890   2.844   3.138   1.822 -0.8424  0.3266  1.2363
34259SOL     OW 9891   5.585  12.028   2.220  0.0678  0.2048 -0.0915
34259SOL    HW1 9892   5.616  11.940   2.198 -0.0696  0.1243  0.0270
34259SOL    HW2 9893   5.651  12.063   2.279 -0.4232 -0.2515  0.7576
34260SOL     OW 9894  12.892   5.002   0.209 -0.0186  0.7577  0.4003
34260SOL    HW1 9895  12.853   5.014   0.295 -0.2865  1.2974  0.2067
34260SOL    HW2 9896  12.872   5.083   0.162 -0.6870  0.1074 -0.4807
34261SOL     OW 9897   6.124   6.723   7.275 -0.4615  0.0369  0.6922
34261SOL    HW1 9898   6.120   6.808   7.318 -0.3393  1.3395 -1.7369
34261SOL    HW2 9899   6.179   6.669   7.333  0.7350  2.0466  1.5139
34262SOL     OW 9900   5.403   4.960   5.665 -0.1424 -0.0477 -0.5075
34262SOL    HW1 9901   5.353   4.879   5.679  1.6255 -1.1821 -0.3649
34262SOL    HW2 9902   5.337   5.028   5.654 -1.6952 -1.2878  0.6931
34263SOL     OW 9903   8.362   6.575   4.101 -0.7002 -0.3295 -0.0604
34263SOL    HW1 9904   8.359   6.480   4.113  0.3474 -0.8135 -2.8074
34263SOL    HW2 9905   8.276   6.598   4.068 -0.3043 -0.7259 -1.4356
34264SOL     OW 9906  12.406   8.602   4.350  0.0180 -0.1281 -0.3487
34264SOL    HW1 9907  12.343   8.655   4.398 -0.8692 -1.2502 -0.2314
34264SOL    HW2 9908  12.480   8.660   4.336 -0.4227  0.7631  0.8318
34265SOL     OW 9909   3.037   6.424   5.241 -0.2006  0.1955 -0.0576
34265SOL    HW1 9910   3.018   6.506   5.196  0.0341  0.5076  0.3958
34265SOL    HW2 9911   3.116   6.391   5.199  0.2407  0.6830  0.3669
34266SOL     OW 9912   1.597  12.219   0.534 -0.0953 -0.2475  0.7028
34266SOL    HW1 9913   1.615  12.313   0.526 -0.8375 -0.1484 -0.0137
34266SOL    HW2 9914   1.677  12.176   0.503 -0.1866  0.1607 -0.1194
34267SOL     OW 9915   7.889  10.528   7.953 -0.2165 -1.0737  0.4428
34267SOL    HW1 9916   7.913  10.477   7.876  1.2201 -1.9159  1.4024
34267SOL    HW2 9917   7.838  10.467   8.007 -0.1629 -0.8894  0.7046
34268SOL     OW 9918   1.652  12.898   2.835 -0.2232  0.1269 -0.4449
34268SOL    HW1 9919   1.743  12.924   2.847  0.2671 -1.4896 -0.4625
34268SOL    HW2 9920   1.640  12.899   2.740 -0.7739  2.0209 -0.3964
34269SOL     OW 9921   0.286  11.372  12.108  0.1303  0.7990  0.5605
34269SOL    HW1 9922   0.209  11.371  12.166  1.9034 -3.0464  3.3662
34269SOL    HW2 9923   0.256  11.330  12.027 -1.2848  1.7536  0.5665
34270SOL     OW 9924   7.209   5.623   8.987  0.0122 -0.2844 -0.1537
34270SOL    HW1 9925   7.196   5.702   8.935  0.2140 -0.2187 -0.1065
34270SOL    HW2 9926   7.121   5.587   9.000 -0.1005  0.0594  0.0290
34271SOL     OW 9927  12.555   4.529   1.118  0.1572 -0.1372  0.2693
34271SOL    HW1 9928  12.610   4.505   1.193 -0.7929  0.2765  1.1212
34271SOL    HW2 9929  12.482   4.577   1.156 -1.3584 -1.5582 -0.6955
34272SOL     OW 9930   8.371   7.144   6.038 -0.0514 -0.2774  0.1397
34272SOL    HW1 9931   8.390   7.183   5.953  0.1946  0.9999  0.7634
34272SOL    HW2 9932   8.324   7.212   6.086  1.2801 -0.3329  1.6178
34273SOL     OW 9933   2.791   8.216  11.992  0.0010 -0.2180  0.0951
34273SOL    HW1 9934   2.852   8.286  11.971  1.3968 -1.2657  0.4859
34273SOL    HW2 9935   2.704   8.254  11.978  0.7361  1.2523 -0.6696
34274SOL     OW 9936  11.677  10.165   5.337  0.6679  0.0171 -0.0476
34274SOL    HW1 9937  11.698  10.179   5.245  2.2018 -2.2748 -0.1311
34274SOL    HW2 9938  11.635  10.079   5.340 -1.0869  0.8469  1.2169
34275SOL     OW 9939  12.482   3.616   9.805  0.0921  0.6315 -0.6695
34275SOL    HW1 9940  12.462   3.560   9.880  2.5520  0.6268  0.0897
34275SOL    HW2 9941  12.485   3.556   9.731 -1.3084  0.4678 -0.6232
34276SOL     OW 9942   8.206   4.113   7.561  0.1980  0.3332  0.3804
34276SOL    HW1 9943   8.192   4.189   7.617 -0.9558  0.1859  0.3338
34276SOL    HW2 9944   8.152   4.129   7.484  0.7805 -0.0445 -0.1131
34277SOL     OW 9945   7.482   0.248   0.002  0.5277  0.2417  0.1630
34277SOL    HW1 9946   7.458   0.177   0.061 -1.3655  1.8615  1.4794
34277SOL    HW2 9947   7.541   0.208  -0.062 -0.0030 -2.3351  1.1837
34278SOL     OW 9948   5.368   1.935   5.790  0.7995 -0.4568 -0.5826
34278SOL    HW1 9949   5.305   1.915   5.860  0.1692 -2.8984 -1.7481
34278SOL    HW2 9950   5.415   2.012   5.822 -1.7815  0.6014  0.9751
34279SOL     OW 9951   4.311   6.998   1.545  0.0521  0.3192 -0.3776
34279SOL    HW1 9952   4.227   7.036   1.570 -0.1000 -0.2235 -0.0653
34279SOL    HW2 9953   4.290   6.939   1.473 -0.0166 -0.6838  0.4394
34280SOL     OW 9954   6.960   3.557   2.589 -0.5417 -0.3252  0.1857
34280SOL    HW1 9955   6.869   3.559   2.559 -0.2471  1.5454 -0.7199
34280SOL    HW2 9956   6.966   3.629   2.652  0.1133 -1.0020  0.9216
34281SOL     OW 9957  12.576   8.050   3.255 -0.5651 -0.1772  0.2204
34281SOL    HW1 9958  12.599   7.995   3.180 -2.1542  1.2159 -1.3822
34281SOL    HW2 9959  12.499   8.099   3.226 -1.2478  0.4182  2.7922
34282SOL     OW 9960   0.317   3.275   9.315  0.5281  0.0672  0.1233
34282SOL    HW1 9961   0.402   3.249   9.280 -0.4449  0.3020 -2.6849
34282SOL    HW2 9962   0.266   3.194   9.317 -0.1853  0.4436 -1.4623
34283SOL     OW 9963   5.982   9.321   9.481 -0.1943 -0.1227  0.5407
34283SOL    HW1 9964   5.999   9.304   9.574  1.4429 -1.7231  0.0150
34283SOL    HW2 9965   5.897   9.282   9.464 -0.3972 -0.0281  1.2971
34284SOL     OW 9966  11.803   2.865   8.294 -0.4233 -0.2728  0.1409
34284SOL    HW1 9967  11.710   2.863   8.269 -0.1308  1.8777 -1.3471
34284SOL    HW2 9968  11.822   2.958   8.307  1.9643 -0.4992 -1.3282
34285SOL     OW 9969   7.346  12.371  12.467  0.2612  0.1130 -0.5508
34285SOL    HW1 9970   7.439  12.388  12.454  0.3706 -1.1980 -1.6198
34285SOL    HW2 9971   7.343  12.303  12.535 -0.0128  1.3083  0.6870
34286SOL     OW 9972  10.225   4.394  11.399 -0.1633 -0.4770  0.0062
34286SOL    HW1 9973  10.256   4.362  11.484 -2.2955 -1.1339  0.6004
34286SOL    HW2 9974  10.305   4.415  11.351  1.1288 -0.5455  1.9823
34287SOL     OW 9975   8.027  11.427  12.916 -0.4411  0.0535  0.5887
34287SOL    HW1 9976   8.014  11.518  12.888  1.2292 -0.3367 -1.7254
34287SOL    HW2 9977   7.960  11.413  12.983 -1.4546  2.6394  0.2377
34288SOL     OW 9978   7.409   7.440   5.921  0.4221  0.0648  0.0118
34288SOL    HW1 9979   7.470   7.376   5.959  0.3660  0.7794  1.3697
34288SOL    HW2 9980   7.450   7.525   5.938  0.7581  0.4009 -2.2553
34289SOL     OW 9981   2.613   3.497   3.703  0.5284  0.1342  0.8137
34289SOL    HW1 9982   2.564   3.579   3.714 -0.9866 -0.6187 -0.0359
34289SOL    HW2 9983   2.687   3.505   3.764 -0.5875  1.3747  2.0870
34290SOL     OW 9984   4.810   2.118   5.637 -0.1785 -0.5825  0.1779
34290SOL    HW1 9985   4.802   2.023   5.649 -0.1810 -0.6669 -0.4531
34290SOL    HW2 9986   4.720   2.151   5.644 -0.3789 -0.8135 -1.0500
34291SOL     OW 9987   4.391   0.012  12.275  0.3119 -0.2327 -0.0452
34291SOL    HW1 9988   4.354  -0.029  12.353  0.2871 -1.5255 -0.7021
34291SOL    HW2 9989   4.427   0.095  12.305 -2.1572  0.6001  0.8315
34292SOL     OW 9990   9.782   4.574  11.439 -0.2449 -0.0044  0.2215
34292SOL    HW1 9991   9.840   4.520  11.385  0.2868  0.3756  0.4013
34292SOL    HW2 9992   9.838   4.604  11.511 -0.7277  0.1822  0.5265
34293SOL     OW 9993  10.887   7.599  10.106  0.0989 -0.5430 -0.0112
34293SOL    HW1 9994  10.860   7.588  10.197  1.6976 -0.9873  0.4381
34293SOL    HW2 9995  10.894   7.693  10.094 -0.4013 -0.4719  0.2302
34294SOL     OW 9996  10.535   5.025  10.454 -0.7555  0.7769 -0.3750
34294SOL    HW1 9997  10.590   5.085  10.404  3.0511 -2.4288 -0.4654
34294SOL    HW2 9998  10.559   5.040  10.545 -0.4130  0.0323 -0.3336
34295SOL     OW 9999   5.552   5.660   8.000  0.1186 -0.1474  0.2801
34295SOL    HW110000   5.541   5.755   8.002 -0.3394 -0.1888 -0.2311
34295SOL    HW210001   5.556   5.635   8.093  1.0251  0.4535  0.4117
34296SOL     OW10002   6.710  12.850   0.460 -0.0997 -0.1596 -0.1736
34296SOL    HW110003   6.708  12.943   0.438  2.7044 -0.4922 -2.4053
34296SOL    HW210004   6.770  12.844   0.534  0.7359 -0.2699 -0.8431
34297SOL     OW10005   9.012   4.327  11.321  0.1993 -0.0475 -0.2808
34297SOL    HW110006   9.071   4.376  11.264 -0.2740 -0.5383 -1.2401
34297SOL    HW210007   9.068   4.289  11.388  0.9484 -0.3621 -1.0688
34298SOL     OW10008   7.469   1.965  11.023 -0.3509 -0.0842 -0.2601
34298SOL    HW110009   7.461   1.926  10.935 -0.5635  0.3919 -0.4531
34298SOL    HW210010   7.562   1.954  11.045 -0.2589 -0.0445 -0.6212
34299SOL     OW10011  10.479   4.083   0.430 -0.5214 -0.0711 -0.2736
34299SOL    HW110012  10.526   4.163   0.456 -1.7967  0.3193  0.9570
34299SOL    HW210013  10.456   4.097   0.338 -0.1082  0.6613 -0.2737
34300SOL     OW10014  10.021   8.666   1.052 -0.4724  0.2366  0.2736
34300SOL    HW110015   9.947   8.721   1.026  0.8175  1.6999 -0.4079
34300SOL    HW210016  10.095   8.726   1.060  0.8758 -1.3191  0.0406
34301SOL     OW10017  11.534  11.356   3.663  0.2607  0.4144 -0.3888
34301SOL    HW110018  11.507  11.368   3.754 -1.4680  1.7291 -1.0161
34301SOL    HW210019  11.584  11.434   3.642 -0.5541  0.7937 -0.9583
34302SOL     OW10020   1.358   3.329  10.691 -0.0111  0.1052  0.0405
34302SOL    HW110021   1.433   3.372  10.651  0.1193 -0.2421 -0.0895
34302SOL    HW210022   1.396   3.276  10.761 -0.2687  0.9760  0.8604
34303SOL     OW10023   4.753  11.467   5.766 -0.2920  0.3298  0.3061
34303SOL    HW110024   4.848  11.477   5.767 -0.3130  0.5275  0.5965
34303SOL    HW210025   4.733  11.424   5.683 -0.0777  1.6448 -0.4503
34304SOL     OW10026   3.899   4.826   9.727  0.3419 -0.0652  1.1751
34304SOL    HW110027   3.815   4.866   9.750  1.2172  1.0809  2.5381
34304SOL    HW210028   3.933   4.881   9.657 -0.9331 -1.7615 -0.8915
34305SOL     OW10029   1.644   2.521  11.560 -0.1534 -0.2237 -0.7750
34305SOL    HW110030   1.722   2.556  11.602 -0.7712 -0.8157  0.9593
34305SOL    HW210031   1.572   2.572  11.597 -0.8043 -1.3569 -0.4416
34306SOL     OW10032   0.168   1.885  10.533 -0.3199 -0.7422  0.5132
34306SOL    HW110033   0.144   1.937  10.609 -0.9020 -0.3241  0.0504
34306SOL    HW210034   0.127   1.930  10.459  1.3043 -0.4124 -0.2237
34307SOL     OW10035   7.929   1.110  12.049 -0.3778 -0.0228 -0.1673
34307SOL    HW110036   7.947   1.149  11.963 -3.0213  1.4987 -0.1200
34307SOL    HW210037   7.846   1.148  12.076  1.0208  0.7392  3.7616
34308SOL     OW10038   5.249   4.706   1.010  0.5054  0.2818 -0.0907
34308SOL    HW110039   5.230   4.798   0.993 -1.0253 -0.0479 -0.2492
34308SOL    HW210040   5.275   4.703   1.102  0.8524  0.8979 -0.1629
34309SOL     OW10041   8.695  11.339  10.504  0.0904 -0.8352  0.3839
34309SOL    HW110042   8.631  11.300  10.564  0.1304  0.3737  1.2459
34309SOL    HW210043   8.710  11.271  10.438 -3.3712 -0.6242 -0.8668
34310SOL     OW10044   8.593   5.283   2.484 -0.2555 -0.2695  0.4265
34310SOL    HW110045   8.570   5.375   2.477  1.5631  0.1988  0.1215
34310SOL    HW210046   8.660   5.269   2.417 -0.4600 -1.8041  0.4942
34311SOL     OW10047   7.106   8.638  12.739 -0.3526 -0.5990  0.6834
34311SOL    HW110048   7.112   8.598  12.652  1.8448  0.3147  0.3435
34311SOL    HW210049   7.113   8.732  12.722  0.4406 -0.4317  1.8543
34312SOL     OW10050   7.342   4.447   5.638  0.0050  0.3954 -0.0914
34312SOL    HW110051   7.281   4.393   5.588  0.9079 -0.4954 -0.2740
34312SOL    HW210052   7.287   4.497   5.697 -0.9108 -0.2759 -0.3513
34313SOL     OW10053   8.057  12.194   1.135 -0.0750  0.1871 -0.3564
34313SOL    HW110054   8.133  12.139   1.155 -0.0102  0.4128  0.0169
34313SOL    HW210055   8.083  12.241   1.056  0.3058  0.5091 -0.0447
34314SOL     OW10056   7.515   4.463   7.001 -0.4898  0.1010  0.8997
34314SOL    HW110057   7.436   4.417   6.971 -0.9422  1.4068  0.0132
34314SOL    HW210058   7.580   4.394   7.011 -1.4226 -0.8621  0.5695
34315SOL     OW10059   3.795   5.985   2.097  0.1143 -0.2440 -0.1396
34315SOL    HW110060   3.705   5.956   2.111  0.1283 -0.5231 -0.5823
34315SOL    HW210061   3.833   5.916   2.043  0.2316  0.4651 -0.9794
34316SOL     OW10062   8.617   5.089   4.272  0.0651 -0.2497 -0.3878
34316SOL    HW110063   8.590   4.998   4.282  0.5963 -0.2959  0.8182
34316SOL    HW210064   8.539   5.134   4.242 -0.6150 -0.8545  0.4168
34317SOL     OW10065   1.702  10.483   5.873  0.7170 -0.3082  0.4371
34317SOL    HW110066   1.782  10.436   5.898  1.1538  1.0106  1.7426
34317SOL    HW210067   1.728  10.576   5.876 -0.7545  0.1212  0.4584
34318SOL     OW10068   6.984   2.369   3.314  0.2908  0.1586 -0.3704
34318SOL    HW110069   6.980   2.310   3.238  1.4689  0.5967 -0.7951
34318SOL    HW210070   7.040   2.441   3.285 -0.1963  0.9140  0.5364
34319SOL     OW10071  11.042   7.458   0.552  0.6507 -0.2010 -0.2296
34319SOL    HW110072  11.022   7.371   0.518  0.5389  0.0911 -0.9402
34319SOL    HW210073  11.009   7.518   0.485  0.9267  0.3821  0.1439
34320SOL     OW10074  10.901   2.635  12.447  0.5576 -0.4251 -0.0262
34320SOL    HW110075  10.971   2.588  12.402  1.5305  0.7704  0.1694
34320SOL    HW210076  10.944   2.673  12.524 -0.1526  0.8348 -0.2152
34321SOL     OW10077   2.600   7.824   7.090 -0.4725  0.4310  0.0169
34321SOL    HW110078   2.668   7.787   7.147 -1.1874 -0.7101  0.1703
34321SOL    HW210079   2.624   7.916   7.081 -0.2152  0.6067  1.9985
34322SOL     OW10080   5.582   4.371   8.026 -0.6850  0.3196 -0.4973
34322SOL    HW110081   5.590   4.277   8.014 -1.3091  0.1937  0.0490
34322SOL    HW210082   5.672   4.403   8.020  0.2995 -0.8841  3.8518
34323SOL     OW10083   4.187  12.432   6.276  0.0356  0.8117 -0.1857
34323SOL    HW110084   4.232  12.374   6.337  0.7548  1.9477  0.4014
34323SOL    HW210085   4.230  12.417   6.192 -0.9441 -0.7461 -0.4534
34324SOL     OW10086   9.379   7.763  10.380  0.7307  0.4759  0.7513
34324SOL    HW110087   9.344   7.849  10.405  1.4906  0.3124  2.5909
34324SOL    HW210088   9.307   7.703  10.393  1.0581  0.4176  2.6473
34325SOL     OW10089  11.210  10.022   1.061 -0.4596  0.0388 -0.4237
34325SOL    HW110090  11.258  10.081   1.003  1.4737 -1.0516 -0.0184
34325SOL    HW210091  11.270   9.950   1.078 -1.7534 -0.7372  1.2365
34326SOL     OW10092  10.921   8.348   1.097 -0.3355  0.3704 -0.1871
34326SOL    HW110093  11.011   8.315   1.091 -0.8657 -0.9815 -1.4547
34326SOL    HW210094  10.910   8.370   1.189  0.9111 -0.6240  0.2439
34327SOL     OW10095   7.807  10.818   7.620  0.2219 -0.0822  0.2162
34327SOL    HW110096   7.769  10.755   7.558  1.8021 -0.6903 -0.1780
34327SOL    HW210097   7.780  10.903   7.586  1.8260 -0.3375 -1.9465
34328SOL     OW10098   2.880  10.242   5.459  0.2491  0.3176  0.0193
34328SOL    HW110099   2.872  10.228   5.553 -2.7902  2.3486  0.2268
34328SOL    HW210100   2.860  10.157   5.420 -2.1591  0.2449  1.2421
34329SOL     OW10101   4.221  12.379   1.970 -0.1883 -0.1300 -0.2015
34329SOL    HW110102   4.232  12.445   1.902 -1.0639  0.5735  0.3184
34329SOL    HW210103   4.256  12.298   1.931 -0.4588  0.3051 -1.3844
34330SOL     OW10104   0.449   7.387  10.657 -0.2167 -0.2318 -0.0351
34330SOL    HW110105   0.475   7.434  10.736 -2.0416  0.2434  0.3443
34330SOL    HW210106   0.465   7.295  10.676  1.2560  0.0288  0.0891
34331SOL     OW10107   6.440   0.473   2.937  0.0821 -0.1653 -0.4922
34331SOL    HW110108   6.432   0.486   2.842 -1.3228  0.3840 -0.3190
34331SOL    HW210109   6.421   0.559   2.975  0.4084 -0.4374  0.3048
34332SOL     OW10110  12.063   4.110   4.885  0.1250  0.6777 -0.1849
34332SOL    HW110111  12.048   4.027   4.839 -0.8595  1.0187 -0.5032
34332SOL    HW210112  12.058   4.177   4.816  2.2022  0.9187 -0.1444
34333SOL     OW10113   2.164   8.345   5.504  0.2774 -0.0868 -0.5164
34333SOL    HW110114   2.204   8.269   5.545 -0.9315 -0.2257  0.4612
34333SOL    HW210115   2.221   8.419   5.526  1.0937 -0.5909 -0.9098
34334SOL     OW10116   7.381  10.860   7.546 -0.8968 -0.1135 -0.4459
34334SOL    HW110117   7.335  10.807   7.481 -1.1213 -0.8972  0.3284
34334SOL    HW210118   7.386  10.947   7.507 -0.8378 -0.6128 -1.5939
34335SOL     OW10119   0.657   2.133   9.264  0.0069 -0.5904  0.3312
34335SOL    HW110120   0.648   2.229   9.267  0.5863 -0.5206  0.0120
34335SOL    HW210121   0.630   2.109   9.176  2.6363 -0.3847 -0.6130
34336SOL     OW10122   8.763   2.930   9.301 -0.1579  0.1931  0.0251
34336SOL    HW110123   8.796   3.015   9.270  0.3384 -0.1008 -0.2757
34336SOL    HW210124   8.681   2.917   9.253 -0.4774  0.7132  0.4190
34337SOL     OW10125   9.936   4.409   6.580  1.1440  0.0109 -0.0067
34337SOL    HW110126   9.866   4.442   6.636  1.3636  0.3959  0.0381
34337SOL    HW210127   9.891   4.379   6.500  0.9361  0.2837  0.0088
34338SOL     OW10128   9.059   0.386   9.286 -0.4122 -0.2103 -0.1119
34338SOL    HW110129   9.049   0.302   9.330  1.6331  0.2034  1.3159
34338SOL    HW210130   9.140   0.377   9.235  0.5894  1.2677  1.1235
34339SOL     OW10131   1.232   1.608   3.017 -0.2154  0.0189  0.0510
34339SOL    HW110132   1.159   1.644   2.967 -1.1279 -0.1388  1.2307
34339SOL    HW210133   1.208   1.623   3.109  1.0924 -0.3114  0.4655
34340SOL     OW10134   9.061   3.995   1.526 -0.0674 -0.0745  0.0083
34340SOL    HW110135   9.153   4.020   1.518  0.6235 -1.7985  1.9062
34340SOL    HW210136   9.020   4.030   1.447  1.9487  1.8031 -0.2861
34341SOL     OW10137   8.437  10.738   4.579  0.6567  0.2480 -1.0974
34341SOL    HW110138   8.474  10.792   4.509 -0.4604  1.6251 -0.6725
34341SOL    HW210139   8.365  10.790   4.614  1.2718 -0.3266  1.1905
34342SOL     OW10140  10.722  10.692   1.770 -0.3924 -0.2272 -0.2828
34342SOL    HW110141  10.803  10.736   1.794 -1.2208 -0.3237  3.2134
34342SOL    HW210142  10.657  10.763   1.764 -0.5250 -0.3826 -0.7259
34343SOL     OW10143   3.603  12.118   8.764 -0.0081  0.1581  0.3725
34343SOL    HW110144   3.632  12.060   8.694 -2.3249 -0.7245  0.0864
34343SOL    HW210145   3.508  12.117   8.759 -0.1730  2.5227  1.5767
34344SOL     OW10146   9.863   3.489  11.386 -0.2220  0.1854  0.3615
34344SOL    HW110147   9.923   3.532  11.325 -2.2184  0.7013 -1.3574
34344SOL    HW210148   9.829   3.414  11.337 -0.1043 -0.8021  1.7336
34345SOL     OW10149  12.399   4.005   4.126  0.5989 -0.9642  0.2479
34345SOL    HW110150  12.330   3.939   4.120 -0.0210 -0.1896 -2.4991
34345SOL    HW210151  12.398   4.033   4.218 -4.5294  0.7642 -0.0271
34346SOL     OW10152  12.295   9.955   6.391  0.3181  0.5160 -0.2351
34346SOL    HW110153  12.265   9.864   6.402  2.1979  0.0135  1.0842
34346SOL    HW210154  12.374   9.948   6.338 -0.5294  1.6180 -1.7503
34347SOL     OW10155   0.592   7.343   7.446  0.1136 -0.8513  0.1451
34347SOL    HW110156   0.498   7.362   7.441  0.0733 -1.1983 -0.5762
34347SOL    HW210157   0.597   7.247   7.450  0.4298 -0.8258  0.4012
34348SOL     OW10158   8.095   6.224   5.470 -0.2933  0.4742  0.1686
34348SOL    HW110159   8.099   6.156   5.538 -0.7625 -0.1315 -0.3942
34348SOL    HW210160   8.179   6.269   5.477  1.3891 -2.1103 -1.3748
34349SOL     OW10161   5.013  12.130   2.273  0.2470 -0.6030  0.4755
34349SOL    HW110162   5.089  12.165   2.318  1.0761 -1.4473 -0.2373
34349SOL    HW210163   5.021  12.035   2.282 -0.2025 -0.7360 -0.4261
34350SOL     OW10164   7.891   0.065   1.902 -0.0503 -0.9524  0.0905
34350SOL    HW110165   7.975   0.108   1.888  0.1308 -0.6347  1.8976
34350SOL    HW210166   7.892   0.040   1.995 -1.1138 -2.7606 -0.3365
34351SOL     OW10167   7.763  12.123   4.939  0.6806  0.0333  0.0341
34351SOL    HW110168   7.724  12.209   4.952  0.9108  0.2387 -0.5905
34351SOL    HW210169   7.788  12.121   4.847  0.1278 -0.9384 -0.1126
34352SOL     OW10170   3.659   6.046   4.034  0.1770 -0.1582 -0.1465
34352SOL    HW110171   3.696   6.098   3.962 -0.1414  0.5737  0.2131
34352SOL    HW210172   3.568   6.032   4.009 -0.4447  1.6538  0.9441
34353SOL     OW10173   1.102   2.245  12.134  0.5545 -1.0290  0.0795
34353SOL    HW110174   1.140   2.184  12.198 -0.5032 -1.1120  0.6441
34353SOL    HW210175   1.029   2.286  12.181  1.1536  0.5768 -0.3288
34354SOL     OW10176   9.658  12.069  12.003  0.1087  0.3091  0.3389
34354SOL    HW110177   9.675  12.135  12.071  0.6109 -0.3911  0.9179
34354SOL    HW210178   9.606  12.002  12.047 -0.0303  0.1115 -0.1197
34355SOL     OW10179  12.614   1.026  12.615  0.3538  0.1162  0.4188
34355SOL    HW110180  12.692   1.057  12.662  1.1616 -0.3834 -0.5347
34355SOL    HW210181  12.563   0.979  12.680 -0.1693  2.1399  1.5518
34356SOL     OW10182   0.755   9.188   1.292 -0.7082  0.4069 -0.1828
34356SOL    HW110183   0.841   9.181   1.332 -0.7803 -3.0266 -0.3151
34356SOL    HW210184   0.695   9.204   1.365 -0.2324 -0.0182  0.3067
34357SOL     OW10185   0.663  12.177   1.381 -0.4321 -0.6016 -0.2370
34357SOL    HW110186   0.581  12.126   1.381 -1.4134  0.8313  1.5436
34357SOL    HW210187   0.636  12.264   1.411  1.4310  0.5601 -1.7534
34358SOL     OW10188   4.117   7.768   6.093 -0.8425  0.2108 -0.1130
34358SOL    HW110189   4.063   7.794   6.167  1.0119  4.0269  0.1633
34358SOL    HW210190   4.075   7.809   6.017  0.4979  1.5671 -0.1712
34359SOL     OW10191   7.081   8.202   3.013 -0.3329 -0.3549 -0.4556
34359SOL    HW110192   7.135   8.126   3.032  2.4857  1.2404 -1.4747
34359SOL    HW210193   7.142   8.276   3.012 -2.4654  1.5655 -2.0917
34360SOL     OW10194   4.537   6.456   6.216 -0.3458  0.3906  0.4470
34360SOL    HW110195   4.535   6.423   6.305  0.0216  0.3554  0.4433
34360SOL    HW210196   4.605   6.404   6.172  0.3262  1.2122  0.4737
34361SOL     OW10197   1.307   2.760   5.698  0.3908 -0.2499 -0.2366
34361SOL    HW110198   1.362   2.712   5.759  0.8910 -0.7950 -1.0849
34361SOL    HW210199   1.218   2.752   5.733  0.8218  0.6216  1.1418
34362SOL     OW10200   8.315   0.043   9.526  0.2483 -0.0867 -0.0581
34362SOL    HW110201   8.293   0.070   9.437 -0.1271 -0.3080 -0.0370
34362SOL    HW210202   8.238   0.068   9.578 -0.8176 -2.5416 -0.2966
34363SOL     OW10203   4.147   4.294  11.739 -0.3326 -0.3518 -0.0835
34363SOL    HW110204   4.059   4.286  11.777  0.8316 -1.5612  2.6023
34363SOL    HW210205   4.152   4.221  11.677 -1.0266 -0.6125  0.1578
34364SOL     OW10206   7.376   6.867   4.293  0.9292 -0.3773  0.0522
34364SOL    HW110207   7.407   6.908   4.374  2.2560  0.2041 -0.7113
34364SOL    HW210208   7.285   6.846   4.311  0.7901  0.9987  1.2254
34365SOL     OW10209   2.534   7.536   7.197 -0.4179 -0.1713 -0.1511
34365SOL    HW110210   2.561   7.605   7.257  0.8812 -1.4721  0.8433
34365SOL    HW210211   2.503   7.582   7.120 -0.3445  1.5226  0.7830
34366SOL     OW10212   3.891  11.550   1.643 -0.2680  0.2065  0.3138
34366SOL    HW110213   3.972  11.502   1.628 -1.6427 -1.3802 -3.0730
34366SOL    HW210214   3.834  11.488   1.689 -0.1647  0.7077  1.1387
34367SOL     OW10215   0.687   2.446   9.210  0.4261 -0.7859  0.4044
34367SOL    HW110216   0.640   2.451   9.127  0.2986 -1.2038  0.4497
34367SOL    HW210217   0.630   2.491   9.272  0.1919 -1.0873  0.4099
34368SOL     OW10218   7.923   6.991  11.228  0.0515  0.4265  0.4723
34368SOL    HW110219   7.999   7.050  11.235  1.0992 -0.6115 -1.4848
34368SOL    HW210220   7.911   6.978  11.134 -2.9579  0.9895  0.6885
34369SOL     OW10221  12.122   7.630  10.102 -0.0418 -0.2252  0.4645
34369SOL    HW110222  12.089   7.693  10.166 -0.6738  1.3938 -1.3369
34369SOL    HW210223  12.082   7.657  10.019  1.0808 -1.9481 -0.7186
34370SOL     OW10224   2.206   4.957   8.419 -0.9739 -0.3341  0.0752
34370SOL    HW110225   2.296   4.990   8.419 -1.4151  0.9096  0.8876
34370SOL    HW210226   2.211   4.875   8.468 -0.4624  0.2832  1.0896
34371SOL     OW10227   0.135   6.073  12.603  0.1974 -0.2752  0.3644
34371SOL    HW110228   0.225   6.057  12.575 -0.2642 -0.2480 -1.2285
34371SOL    HW210229   0.082   6.021  12.543 -0.8278 -1.1985  1.9883
34372SOL     OW10230   6.953   8.297   4.085  0.1359 -0.3003  0.2859
34372SOL    HW110231   6.920   8.380   4.118  1.1201  0.9820 -1.7603
34372SOL    HW210232   7.046   8.296   4.108  0.4429 -0.1636 -0.8598
34373SOL     OW10233  12.104   7.091   6.875 -0.8071 -0.2258 -0.1857
34373SOL    HW110234  12.100   7.053   6.963 -1.3530 -1.0953 -0.5742
34373SOL    HW210235  12.037   7.159   6.874  0.3896  1.0241  0.6165
34374SOL     OW10236   1.216  11.197   6.653  0.3038 -0.0942  0.4110
34374SOL    HW110237   1.150  11.265   6.665  0.5749  0.1204  0.6819
34374SOL    HW210238   1.172  11.116   6.679 -0.2399 -0.1278 -0.5587
34375SOL     OW10239   9.682   8.753  11.825 -0.0959 -0.4215 -0.3771
34375SOL    HW110240   9.652   8.693  11.756  0.5000 -0.1697 -0.8726
34375SOL    HW210241   9.757   8.709  11.864  0.1383 -0.1440 -0.5166
34376SOL     OW10242   8.223   7.984   7.429  0.2349  0.0745 -0.3376
34376SOL    HW110243   8.156   7.918   7.447 -0.3904  0.5459 -0.8672
34376SOL    HW210244   8.274   7.989   7.509 -2.2765  1.9341  1.3093
34377SOL     OW10245   3.052   7.636   3.587  0.0833 -0.1377 -0.2532
34377SOL    HW110246   3.092   7.623   3.501 -0.1934  0.3140 -0.4512
34377SOL    HW210247   2.959   7.621   3.573  0.0083  0.1613 -0.0853
34378SOL     OW10248   2.603   9.652   9.040  0.1219  0.0183  0.1179
34378SOL    HW110249   2.666   9.595   8.996 -0.4338 -0.5191  0.0068
34378SOL    HW210250   2.518   9.620   9.012 -0.2016  1.6108 -0.8496
34379SOL     OW10251   5.085   5.872   0.572 -0.0985 -0.1238  0.5297
34379SOL    HW110252   5.057   5.879   0.481 -2.7789 -0.0883  1.2851
34379SOL    HW210253   5.171   5.914   0.574 -0.1967  0.3212 -1.8571
34380SOL     OW10254  11.558   1.021   2.984  0.6265  0.0137 -0.3081
34380SOL    HW110255  11.594   1.013   3.073  3.0052 -2.0125 -1.3372
34380SOL    HW210256  11.525   0.933   2.964  1.4988  0.0324 -1.9515
34381SOL     OW10257   7.210   2.729   4.583  0.2290  0.2265  0.3162
34381SOL    HW110258   7.141   2.763   4.525  0.4006 -0.1966 -0.1431
34381SOL    HW210259   7.162   2.683   4.652  0.0185  0.8184  0.5665
34382SOL     OW10260   8.780   0.601   8.494  0.0337 -0.0192  0.0353
34382SOL    HW110261   8.749   0.525   8.544  2.0625 -0.2322  1.1201
34382SOL    HW210262   8.732   0.675   8.530 -0.3952 -0.5195  0.5099
34383SOL     OW10263   9.819  11.771   0.007  0.0660  0.3449 -0.4652
34383SOL    HW110264   9.761  11.695   0.004 -1.2986  1.3967 -1.7622
34383SOL    HW210265   9.899  11.740  -0.036  0.7534 -1.2518  1.7334
34384SOL     OW10266   0.793   6.393   1.406  0.5909  0.0509 -0.6749
34384SOL    HW110267   0.703   6.383   1.438  0.1888 -1.7479 -2.1816
34384SOL    HW210268   0.812   6.486   1.418 -0.7009  0.1006  1.5705
34385SOL     OW10269   3.576   0.606  12.930 -0.8472 -0.2190  0.7652
34385SOL    HW110270   3.546   0.516  12.937 -2.3104  0.0945 -0.9507
34385SOL    HW210271   3.524   0.654  12.994 -0.7503 -0.4074  0.9896
34386SOL     OW10272   4.604   9.913   8.117  0.0398 -0.4518 -0.1266
34386SOL    HW110273   4.576   9.941   8.205 -2.8358  0.8643 -1.3388
34386SOL    HW210274   4.534   9.856   8.086  0.0394  0.6065 -2.2548
34387SOL     OW10275   7.497   7.397   2.435 -0.1001 -0.3837 -0.3687
34387SOL    HW110276   7.425   7.425   2.378 -0.7920 -0.2754  0.5398
34387SOL    HW210277   7.464   7.318   2.478 -0.3569  0.6183  1.3344
34388SOL     OW10278   7.182   8.821   2.277  0.1064 -0.1192 -0.1474
34388SOL    HW110279   7.235   8.745   2.252 -1.0343 -0.5142 -1.4658
34388SOL    HW210280   7.144   8.852   2.196 -1.9668 -0.0666  0.7887
34389SOL     OW10281   6.058   2.976  12.046 -0.2917 -0.0818  0.3315
34389SOL    HW110282   6.052   2.961  11.952  0.0140  2.0415 -0.0907
34389SOL    HW210283   5.974   2.947  12.081 -0.4458 -0.8142 -0.6121
34390SOL     OW10284   8.639   0.061   6.799 -0.2215  0.1468 -0.0796
34390SOL    HW110285   8.656   0.091   6.888  0.4168  2.1981 -0.8579
34390SOL    HW210286   8.692   0.117   6.744 -1.3949 -0.4109 -1.8441
34391SOL     OW10287  10.457   5.233   7.834  1.0275 -0.5063 -0.1665
34391SOL    HW110288  10.450   5.256   7.741  1.6739 -1.9302 -0.5970
34391SOL    HW210289  10.545   5.195   7.842  0.7236 -1.0062  0.8909
34392SOL     OW10290  11.639   9.110  11.199  0.1374  0.2563 -0.0084
34392SOL    HW110291  11.674   9.190  11.162  0.1642  0.0032 -0.5405
34392SOL    HW210292  11.702   9.085  11.266 -0.1516  0.9673  0.5398
34393SOL     OW10293  11.939   4.858   8.379  0.1911 -0.0995 -0.0879
34393SOL    HW110294  12.033   4.853   8.399 -0.1861 -1.9393  1.4703
34393SOL    HW210295  11.934   4.850   8.284  1.5584 -1.1903 -0.0974
34394SOL     OW10296   3.880  12.771   6.937  0.0274 -0.4162 -0.1215
34394SOL    HW110297   3.970  12.746   6.962 -0.2452 -2.1964 -0.7338
34394SOL    HW210298   3.891  12.825   6.859  0.6175  0.6239  0.6579
34395SOL     OW10299   8.496   4.497  12.354  0.2134 -0.3790  0.0259
34395SOL    HW110300   8.496   4.416  12.303  1.7008 -0.0523 -0.5404
34395SOL    HW210301   8.504   4.566  12.288 -2.4695  0.3786  0.3764
34396SOL     OW10302   9.564   6.398   5.515 -0.0400  0.3324 -0.3108
34396SOL    HW110303   9.602   6.481   5.546 -0.1418  0.2548  0.0289
34396SOL    HW210304   9.483   6.389   5.566 -1.9386  1.7906 -2.7837
34397SOL     OW10305  10.185   6.579  12.305  0.2750  0.4385 -0.3338
34397SOL    HW110306  10.211   6.663  12.343 -0.5760  1.0141 -0.9963
34397SOL    HW210307  10.117   6.546  12.363 -0.3831  0.8844 -0.8444
34398SOL     OW10308   5.458   9.827   2.577  0.7018  0.0163  0.2586
34398SOL    HW110309   5.532   9.866   2.531  0.9306 -0.4229  0.2432
34398SOL    HW210310   5.464   9.862   2.665  3.0508 -2.6324  1.3394
34399SOL     OW10311   4.504   5.933   7.239  0.5311  0.4247 -0.5581
34399SOL    HW110312   4.589   5.969   7.213 -0.4727  2.5105 -1.1336
34399SOL    HW210313   4.451   6.010   7.262 -0.8419 -0.8975  0.9471
34400SOL     OW10314   6.371   6.321   1.165 -0.8476 -0.3555  0.2254
34400SOL    HW110315   6.331   6.299   1.081  0.2827 -0.1319 -0.3924
34400SOL    HW210316   6.426   6.397   1.146  0.2889 -0.9811  0.9079
34401SOL     OW10317  11.635  12.554   8.064 -0.5749 -0.3870  0.1015
34401SOL    HW110318  11.593  12.610   7.998 -0.7503  1.7881  1.9098
34401SOL    HW210319  11.684  12.490   8.014 -1.1079  0.8510 -2.1387
34402SOL     OW10320   3.186   3.621   7.149 -0.8484 -0.1279 -0.1197
34402SOL    HW110321   3.220   3.672   7.076  0.1762 -0.5947  0.0217
34402SOL    HW210322   3.174   3.533   7.113 -0.5817 -0.2984  0.2019
34403SOL     OW10323  11.660   0.341   1.812  0.2701  0.4580  0.0727
34403SOL    HW110324  11.733   0.352   1.874 -0.0659  1.9962  0.2350
34403SOL    HW210325  11.583   0.369   1.861 -0.3277 -0.3703 -0.3698
34404SOL     OW10326   6.400   0.079  10.046 -0.2376  0.4123 -0.3824
34404SOL    HW110327   6.346   0.149  10.010  0.7688  0.6237 -1.5537
34404SOL    HW210328   6.431   0.030   9.969 -2.1170 -2.3109  0.4198
34405SOL     OW10329   4.262   2.965   8.051 -0.4393  0.1631 -0.2878
34405SOL    HW110330   4.226   2.976   7.963  1.4453  0.7089 -1.0324
34405SOL    HW210331   4.348   2.925   8.037 -0.3266 -0.2134  1.3452
34406SOL     OW10332   3.914  10.728   3.898 -0.0036  0.1670 -0.1061
34406SOL    HW110333   3.946  10.678   3.973  0.1604  0.8929  0.3211
34406SOL    HW210334   3.820  10.733   3.911  0.0104  0.1883 -0.0119
34407SOL     OW10335   5.477   9.100   0.743 -0.5591  0.3752  0.5401
34407SOL    HW110336   5.568   9.131   0.738 -0.3637 -0.2930 -0.2662
34407SOL    HW210337   5.477   9.037   0.815  0.1490 -1.2839 -0.8569
34408SOL     OW10338  12.725   8.413   7.218 -0.0024 -0.7630 -0.0065
34408SOL    HW110339  12.721   8.332   7.166 -0.7401 -1.2472  0.7772
34408SOL    HW210340  12.635   8.425   7.250 -0.0314  0.6954 -0.5912
34409SOL     OW10341  12.682   1.206   8.452 -0.1484 -0.0632  0.2089
34409SOL    HW110342  12.626   1.169   8.519  1.1083 -0.4080  1.1090
34409SOL    HW210343  12.752   1.250   8.500  1.3842 -1.2248 -0.8308
34410SOL     OW10344   1.231   7.546   0.032  0.1131  0.0848 -0.2533
34410SOL    HW110345   1.200   7.455   0.028  3.3450 -1.2165  0.6597
34410SOL    HW210346   1.220   7.571   0.124  1.9779 -0.6088  0.2260
34411SOL     OW10347   7.562  12.809  12.051  0.1894 -1.1211  0.3510
34411SOL    HW110348   7.626  12.878  12.069 -0.2220 -0.9510  1.2401
34411SOL    HW210349   7.480  12.856  12.033  0.3804 -1.3192 -1.1962
34412SOL     OW10350   2.909   9.936   9.302 -0.1499 -0.1737  0.2529
34412SOL    HW110351   2.850   9.905   9.233 -0.0533 -0.5450  0.3320
34412SOL    HW210352   2.896  10.031   9.304 -3.0569 -0.4723  2.3537
34413SOL     OW10353   1.756   2.194   5.293 -0.2868 -0.0185 -0.0189
34413SOL    HW110354   1.816   2.254   5.250 -0.4061  1.7172  2.0320
34413SOL    HW210355   1.691   2.251   5.335 -1.0412 -1.6271  1.1130
34414SOL     OW10356   3.224   4.188   1.713  0.3266  0.0488 -0.1580
34414SOL    HW110357   3.170   4.266   1.727 -0.1281  0.0099 -1.5390
34414SOL    HW210358   3.237   4.185   1.618  1.3114 -0.9175 -0.0077
34415SOL     OW10359  11.000   6.429   0.411 -0.4422  0.7464  0.0773
34415SOL    HW110360  11.075   6.420   0.469  1.9210  3.3475 -2.2887
34415SOL    HW210361  11.025   6.380   0.332 -1.9067  0.4490 -0.2337
34416SOL     OW10362   5.789   6.435   3.870 -0.3803 -0.0451 -0.1724
34416SOL    HW110363   5.785   6.529   3.851 -1.4680 -0.1969 -0.7873
34416SOL    HW210364   5.698   6.411   3.889 -0.0630 -0.9166  0.2668
34417SOL     OW10365   4.432  10.149   4.305  0.3098  0.1059  0.7074
34417SOL    HW110366   4.387  10.147   4.389 -2.3286 -2.2380 -0.5827
34417SOL    HW210367   4.460  10.059   4.290  0.0192  0.2957 -1.2300
34418SOL     OW10368   2.906   5.870   7.008  0.4826 -0.0493  0.0670
34418SOL    HW110369   2.917   5.906   6.920 -1.0444 -0.6374 -0.3945
34418SOL    HW210370   2.859   5.938   7.056 -0.8651 -0.6819 -0.3076
34419SOL     OW10371   5.634  11.129   3.087  0.7534 -0.1095 -0.3809
34419SOL    HW110372   5.634  11.140   3.182  1.2266 -0.4128 -0.3415
34419SOL    HW210373   5.719  11.164   3.059  2.1051 -3.0968 -0.3089
34420SOL     OW10374  11.729   9.167   1.385 -0.0831  0.0039  0.4763
34420SOL    HW110375  11.815   9.172   1.342  0.2157  1.0268  1.1693
34420SOL    HW210376  11.666   9.176   1.313  0.3848  3.6839  0.3275
34421SOL     OW10377   4.603   1.512   7.982 -0.0088 -0.7403 -0.0848
34421SOL    HW110378   4.527   1.455   7.990 -0.8782  0.6597  3.1799
34421SOL    HW210379   4.640   1.517   8.070  1.8089  1.3614 -0.8516
34422SOL     OW10380   4.650   8.781   6.126 -0.2203  0.2630  0.2746
34422SOL    HW110381   4.655   8.818   6.038 -1.3544  1.0832  0.5292
34422SOL    HW210382   4.642   8.857   6.184 -3.2486 -0.2639  0.7573
34423SOL     OW10383   2.261  10.419  11.166  0.1367 -0.4905 -0.3294
34423SOL    HW110384   2.240  10.326  11.175  0.8450 -0.6064  0.2917
34423SOL    HW210385   2.243  10.456  11.253  3.0546 -0.7551  0.5065
34424SOL     OW10386  11.727   7.141   5.112 -0.4032 -0.0986  0.1579
34424SOL    HW110387  11.688   7.059   5.082  0.7515 -0.0467 -1.6947
34424SOL    HW210388  11.717   7.200   5.037  0.8446  0.7107  0.6005
34425SOL     OW10389   1.986   2.210   7.916  0.2265 -0.3639  0.0646
34425SOL    HW110390   1.935   2.185   7.839 -0.2000 -2.7350  1.0239
34425SOL    HW210391   2.077   2.201   7.888  0.1291  1.2599 -0.8653
34426SOL     OW10392   2.374   7.737   6.567  0.0326  0.0241 -0.5002
34426SOL    HW110393   2.329   7.675   6.510  1.5377 -0.5028 -1.1587
34426SOL    HW210394   2.419   7.682   6.632  2.7467  0.2383 -2.0795
34427SOL     OW10395   2.319  10.698   3.578 -0.1958  0.3323 -0.2092
34427SOL    HW110396   2.314  10.615   3.626  0.1139  0.1796 -0.4374
34427SOL    HW210397   2.306  10.672   3.486  2.6829  0.1457 -0.6587
34428SOL     OW10398   2.193   3.784  12.723 -0.2204 -0.4441 -0.3075
34428SOL    HW110399   2.285   3.805  12.706 -0.4592  1.0586  0.0856
34428SOL    HW210400   2.188   3.769  12.817 -0.5588  0.6204 -0.1387
34429SOL     OW10401   1.719   6.251   3.846 -0.5195  0.0552  0.1359
34429SOL    HW110402   1.783   6.305   3.891  0.2863 -0.9133  0.1733
34429SOL    HW210403   1.693   6.304   3.770 -1.7035  1.5854  1.5415
34430SOL     OW10404   6.417   7.247   1.627  0.0339  0.0621 -0.9123
34430SOL    HW110405   6.383   7.158   1.638  2.3277 -0.7093  0.6588
34430SOL    HW210406   6.339   7.302   1.627 -1.3730 -1.8103 -0.5012
34431SOL     OW10407   5.714   1.897   4.108 -0.4577  0.4020  0.3992
34431SOL    HW110408   5.738   1.960   4.041 -4.6404  0.9921 -0.8848
34431SOL    HW210409   5.737   1.939   4.190 -1.5657  2.9727 -0.4865
34432SOL     OW10410   9.107   3.365   8.460 -0.0818 -0.7883  0.3661
34432SOL    HW110411   9.070   3.412   8.385  0.4419 -0.5537  0.2529
34432SOL    HW210412   9.179   3.314   8.423  0.6353 -0.1261  0.8242
34433SOL     OW10413   0.251   3.799   1.450  0.1640  0.4782  0.1561
34433SOL    HW110414   0.208   3.824   1.532  0.0405  0.9871 -0.0559
34433SOL    HW210415   0.329   3.751   1.477  0.0692  0.5540  0.5705
34434SOL     OW10416  11.158   6.475  11.946  0.4831  0.2923  0.0941
34434SOL    HW110417  11.203   6.391  11.959  1.2417  0.8208  0.9592
34434SOL    HW210418  11.113   6.465  11.862 -1.0659 -1.7054  1.0621
34435SOL     OW10419   6.619   7.468   0.307  0.1221  0.0528 -0.3923
34435SOL    HW110420   6.628   7.564   0.307  1.8856 -0.0734  0.1553
34435SOL    HW210421   6.540   7.452   0.256 -0.8940  1.8525  0.4920
34436SOL     OW10422  12.692  10.396   5.323 -0.0181 -0.2275 -0.4695
34436SOL    HW110423  12.720  10.488   5.317  0.4978 -0.3722 -0.3256
34436SOL    HW210424  12.764  10.352   5.368  0.6299 -1.0829 -2.2430
34437SOL     OW10425   2.394   7.760   3.478  0.0855  0.6033  0.2366
34437SOL    HW110426   2.431   7.846   3.498  0.7781  0.3906 -0.0920
34437SOL    HW210427   2.444   7.700   3.533  0.0575  0.3364 -0.0305
34438SOL     OW10428  11.837  11.801   1.908 -0.0691  0.3274 -0.4553
34438SOL    HW110429  11.826  11.710   1.880  2.8922 -0.9415  2.0175
34438SOL    HW210430  11.780  11.809   1.985 -0.9291  0.8789 -1.1254
34439SOL     OW10431   1.954   4.548   7.819 -0.0121  0.0548  0.5947
34439SOL    HW110432   1.906   4.546   7.902 -1.5956 -0.4629 -0.3112
34439SOL    HW210433   1.891   4.579   7.755  0.7196 -1.0869 -0.7330
34440SOL     OW10434   2.158  11.471   2.724 -0.2305 -0.3467 -0.6576
34440SOL    HW110435   2.078  11.504   2.766 -1.4054 -2.9337 -0.6929
34440SOL    HW210436   2.129  11.439   2.639  1.6634  2.3462 -2.4938
34441SOL     OW10437   2.038   5.507   4.369 -0.3345 -0.6856 -0.4503
34441SOL    HW110438   1.963   5.567   4.369  0.7956  0.8069  0.9763
34441SOL    HW210439   2.065   5.501   4.461  2.6370  0.6506 -1.0945
34442SOL     OW10440   4.402   7.644   8.610  0.7150 -0.0082  0.5748
34442SOL    HW110441   4.367   7.555   8.605  1.0627 -0.0896 -0.9524
34442SOL    HW210442   4.497   7.632   8.610  0.8249  0.3807 -1.7605
34443SOL     OW10443  11.506   3.235   8.566  0.2108 -0.0602 -0.2549
34443SOL    HW110444  11.449   3.284   8.625  0.2350 -0.5882  0.2242
34443SOL    HW210445  11.479   3.144   8.578  1.8331 -0.4444  0.7862
34444SOL     OW10446   7.353   2.387   5.393  0.1249  0.1889  0.3876
34444SOL    HW110447   7.376   2.333   5.317 -0.9221 -0.6612  0.6371
34444SOL    HW210448   7.268   2.352   5.421  0.1894  0.9293  1.5437
34445SOL     OW10449   7.061  11.900   1.351  0.4404  0.2903 -0.5780
34445SOL    HW110450   7.020  11.913   1.266  0.8240  1.0601 -0.6459
34445SOL    HW210451   7.122  11.973   1.361  1.5190 -0.6202 -0.3026
34446SOL     OW10452   6.795   5.063   6.232  0.1362  0.2226  0.2259
34446SOL    HW110453   6.809   5.156   6.250 -1.9243  0.6217 -0.0608
34446SOL    HW210454   6.741   5.033   6.305  1.9832 -1.1555  1.1153
34447SOL     OW10455   8.908   7.021   3.348 -0.0038 -0.7352  0.0392
34447SOL    HW110456   9.004   7.019   3.354  0.0646 -1.6985 -0.9899
34447SOL    HW210457   8.879   6.957   3.414  0.1388 -1.4932 -0.6188
34448SOL     OW10458  12.910   9.195   5.676 -0.2553 -0.5242 -0.2609
34448SOL    HW110459  12.910   9.283   5.638 -0.8499 -1.8932 -3.9237
34448SOL    HW210460  12.817   9.174   5.687 -0.1726 -1.1538 -0.7084
34449SOL     OW10461   8.936  12.213  10.584 -0.2769  0.2339  0.3812
34449SOL    HW110462   8.855  12.162  10.576 -0.7230  0.8695  0.7137
34449SOL    HW210463   8.915  12.297  10.544  0.6877 -0.0857 -0.8244
34450SOL     OW10464   1.967   1.057   9.459  0.2478  0.2631  0.0594
34450SOL    HW110465   1.924   1.123   9.513  0.9514  1.0117 -0.2810
34450SOL    HW210466   1.936   0.973   9.494 -2.4242  0.7526 -0.8973
34451SOL     OW10467   4.047   8.957   8.426 -1.0722 -0.3902  0.5184
34451SOL    HW110468   4.111   8.941   8.356 -0.3687 -2.0718  1.4841
34451SOL    HW210469   4.100   8.963   8.506 -2.0701 -1.7694  1.3319
34452SOL     OW10470   2.524   4.190  10.002 -0.1786 -0.1554 -0.6829
34452SOL    HW110471   2.576   4.183   9.922  0.8244 -0.4424 -0.0151
34452SOL    HW210472   2.471   4.110  10.002 -0.6142  0.1214 -1.3473
34453SOL     OW10473   1.155   6.347  11.809 -0.1629  0.3561  0.0987
34453SOL    HW110474   1.094   6.418  11.786 -0.9125  0.0806  1.1379
34453SOL    HW210475   1.113   6.304  11.884 -0.0192 -1.5548 -0.8663
34454SOL     OW10476  10.031   5.387   9.489 -0.2065  0.7332 -0.6879
34454SOL    HW110477  10.023   5.347   9.575  0.1135  3.5090  0.7318
34454SOL    HW210478   9.941   5.409   9.464 -0.2500  0.3575 -0.8772
34455SOL     OW10479   4.868   8.165   1.763 -0.2495  0.1496  0.7611
34455SOL    HW110480   4.851   8.150   1.856 -1.3501  0.2384  0.5893
34455SOL    HW210481   4.783   8.153   1.721  0.2330  0.1270 -0.2360
34456SOL     OW10482   3.278   0.237  11.132  0.1326 -0.5600  0.0453
34456SOL    HW110483   3.206   0.179  11.107  0.9704 -2.1895  1.1876
34456SOL    HW210484   3.236   0.308  11.180 -0.9070 -0.3136 -1.1920
34457SOL     OW10485   0.121   4.567   0.119 -0.2142 -0.1618 -0.6387
34457SOL    HW110486   0.205   4.611   0.106  0.4415 -1.3356 -0.5322
34457SOL    HW210487   0.145   4.478   0.144 -1.4651  0.0237  1.4653
34458SOL     OW10488   6.816   1.872   6.352  0.4988 -0.1546 -0.1417
34458SOL    HW110489   6.726   1.861   6.383  1.0916 -1.5075  1.2036
34458SOL    HW210490   6.821   1.819   6.273  0.6705 -1.8964  0.9851
34459SOL     OW10491   1.392   3.058  10.240 -0.3896 -0.1315  0.3327
34459SOL    HW110492   1.347   3.064  10.325 -1.3317  0.3812 -0.1859
34459SOL    HW210493   1.328   3.015  10.183 -0.7533  1.7934 -0.7662
34460SOL     OW10494   9.833   3.417   4.938 -0.2742  0.1669 -0.4849
34460SOL    HW110495   9.883   3.337   4.917  1.6422  1.0712  0.3620
34460SOL    HW210496   9.895   3.488   4.920 -1.3855  1.3777  0.3364
34461SOL     OW10497   7.291   4.589   2.703  0.5006  0.3755 -0.8556
34461SOL    HW110498   7.315   4.618   2.791  1.0581 -0.6231 -0.6640
34461SOL    HW210499   7.303   4.666   2.648 -0.9318  1.3261  0.1140
34462SOL     OW10500   6.101  11.986   4.386  0.0627  0.2988  0.4636
34462SOL    HW110501   6.088  12.054   4.452 -0.7335  0.9411 -0.3302
34462SOL    HW210502   6.165  12.022   4.326  1.3281 -0.5739  1.2338
34463SOL     OW10503   3.374  10.155   7.024 -0.1275  0.4960 -0.5930
34463SOL    HW110504   3.309  10.096   6.986 -0.3304  1.7828 -2.3958
34463SOL    HW210505   3.324  10.235   7.043  0.7474  1.2106 -1.2173
34464SOL     OW10506   0.883   3.910  12.903 -0.3161 -0.0655 -0.0481
34464SOL    HW110507   0.909   3.837  12.847 -0.4792 -0.9844  1.0388
34464SOL    HW210508   0.788   3.907  12.904 -0.3564  0.6854 -0.6526
34465SOL     OW10509   7.424  10.828   4.173  0.2377 -0.6945 -0.1233
34465SOL    HW110510   7.471  10.818   4.255  2.0000 -1.5634 -1.1770
34465SOL    HW210511   7.472  10.773   4.111 -1.1930 -0.2732 -1.6710
34466SOL     OW10512  10.187   1.917   2.572 -0.7437 -0.2986 -0.2082
34466SOL    HW110513  10.149   1.943   2.489  0.1780  0.8604 -0.3032
34466SOL    HW210514  10.148   1.977   2.636  0.9523  1.0318 -0.3342
34467SOL     OW10515  11.872   9.038   2.184 -0.0184 -0.4677 -0.3294
34467SOL    HW110516  11.882   9.066   2.094 -0.8698 -3.6430 -1.5537
34467SOL    HW210517  11.869   9.119   2.235  2.9466  1.3868 -2.8060
34468SOL     OW10518   8.277   8.239   0.425  0.0544 -0.6576  0.6460
34468SOL    HW110519   8.358   8.229   0.474 -0.4352 -2.2104  1.2073
34468SOL    HW210520   8.216   8.176   0.464 -1.1021 -0.2754 -0.4249
34469SOL     OW10521  11.859   1.987   8.929 -0.3128  0.0114  0.0574
34469SOL    HW110522  11.900   1.978   8.843  1.7813 -1.0258  1.0655
34469SOL    HW210523  11.767   2.005   8.911  0.1109  0.0410 -2.3761
34470SOL     OW10524   0.345   5.152   5.765 -0.7401 -0.7800  0.2074
34470SOL    HW110525   0.271   5.137   5.706 -0.3431  1.1235 -0.8396
34470SOL    HW210526   0.349   5.247   5.776  0.8582 -0.9160  1.1607
34471SOL     OW10527   0.608   1.839   1.088 -0.7133  0.1073  0.1930
34471SOL    HW110528   0.671   1.767   1.089  0.1730  0.8491  1.6313
34471SOL    HW210529   0.567   1.834   1.002  0.2704 -1.3001 -0.2304
34472SOL     OW10530  10.813   3.097   7.163 -0.1790  0.0667  0.5693
34472SOL    HW110531  10.738   3.137   7.208 -1.6301 -0.5820 -1.1474
34472SOL    HW210532  10.779   3.074   7.077  2.2560  0.4909 -0.5723
34473SOL     OW10533   4.484   6.440   7.115  0.3593 -0.5589 -0.0917
34473SOL    HW110534   4.422   6.458   7.044  1.1056 -0.6607 -0.7845
34473SOL    HW210535   4.464   6.506   7.182  0.3714  0.2466 -0.8623
34474SOL     OW10536  11.207   7.756   8.621 -0.4453  0.2466 -0.1049
34474SOL    HW110537  11.228   7.685   8.681 -2.1823  0.2044  0.5098
34474SOL    HW210538  11.135   7.803   8.663  0.3319  2.0949 -0.7250
34475SOL     OW10539   9.061   9.891   6.505  0.6111  0.1225  0.7125
34475SOL    HW110540   9.076   9.980   6.538  0.1259  0.1309  0.9228
34475SOL    HW210541   8.966   9.880   6.509  0.6059 -0.1424 -0.0077
34476SOL     OW10542   7.554  11.589  11.166 -0.3217 -0.2231 -0.5703
34476SOL    HW110543   7.586  11.669  11.207 -1.0677 -1.3180  2.4287
34476SOL    HW210544   7.621  11.524  11.184 -0.8261 -0.8088 -0.7725
34477SOL     OW10545   8.716   4.464   1.046 -0.0028 -0.4098  0.3427
34477SOL    HW110546   8.750   4.391   0.995  1.1346  0.0273  0.4500
34477SOL    HW210547   8.661   4.513   0.984  0.5094 -0.4751 -0.1684
34478SOL     OW10548  11.769  12.273   0.356  0.0031 -0.2925  0.7574
34478SOL    HW110549  11.780  12.344   0.293  0.4392 -0.7706  0.2773
34478SOL    HW210550  11.859  12.247   0.378 -0.1515 -0.7377  0.8734
34479SOL     OW10551  11.074   5.635   2.810  0.2631 -0.5921  0.3911
34479SOL    HW110552  11.160   5.617   2.847  2.0928  0.9495 -2.7335
34479SOL    HW210553  11.068   5.577   2.734 -2.1342 -1.6604  1.2763
34480SOL     OW10554  10.259  12.004  10.717 -0.2146 -0.2211  0.5629
34480SOL    HW110555  10.294  11.983  10.804  1.2047  0.2591  0.1231
34480SOL    HW210556  10.286  12.094  10.701  0.4558 -0.6450 -0.8228
34481SOL     OW10557  11.780   3.490   4.152 -0.0900  0.5636  0.4900
34481SOL    HW110558  11.728   3.421   4.110  0.1505  0.1297  0.8954
34481SOL    HW210559  11.869   3.476   4.120  0.4526 -0.8460  2.4034
34482SOL     OW10560   6.175   3.883  10.605  0.0427  0.0145  0.3569
34482SOL    HW110561   6.105   3.867  10.668  1.7486  1.8928  2.9430
34482SOL    HW210562   6.154   3.968  10.566 -0.5483 -0.7388 -1.0164
34483SOL     OW10563  12.642  11.350   1.749  0.5663 -0.7566 -0.3650
34483SOL    HW110564  12.565  11.399   1.719  0.8554  0.1321  0.3225
34483SOL    HW210565  12.698  11.344   1.671  0.5395  0.0404 -0.4554
34484SOL     OW10566   0.029   7.030   0.435 -0.1422 -0.7041  0.6177
34484SOL    HW110567   0.042   6.962   0.501 -1.5901 -1.3084  0.3296
34484SOL    HW210568   0.075   6.999   0.358  0.8847 -0.3794  1.0898
34485SOL     OW10569  10.417   4.697   0.492  0.7401 -0.3501 -0.2002
34485SOL    HW110570  10.506   4.685   0.525  0.5832 -0.7025  0.1001
34485SOL    HW210571  10.374   4.752   0.558  0.1640 -1.7761  0.6586
34486SOL     OW10572  11.876   6.841  11.977  0.1841  0.3878  0.0131
34486SOL    HW110573  11.795   6.802  11.944 -0.2768 -0.0050  1.5262
34486SOL    HW210574  11.940   6.771  11.969 -0.4140 -0.4332  1.8010
34487SOL     OW10575   7.372   9.265   5.007  0.3534 -0.7253  0.1165
34487SOL    HW110576   7.304   9.320   5.048  1.3058  1.1571 -0.6979
34487SOL    HW210577   7.329   9.227   4.930  0.3525  1.0192 -0.8006
34488SOL     OW10578   3.572   4.905   3.252 -0.0517 -0.0853  0.2469
34488SOL    HW110579   3.581   4.992   3.214  1.3221  0.8069  2.3681
34488SOL    HW210580   3.479   4.884   3.246 -0.4662  1.7087  0.0174
34489SOL     OW10581   8.923   2.071  11.259  0.5716  0.1827  0.0651
34489SOL    HW110582   8.955   1.982  11.259 -0.3427 -0.1887  1.5330
34489SOL    HW210583   8.999   2.125  11.281  1.0944 -0.2303 -0.7040
34490SOL     OW10584  12.896   1.776   1.424 -0.6565 -0.6827 -0.5389
34490SOL    HW110585  12.870   1.867   1.440 -0.3973 -0.3969 -1.6727
34490SOL    HW210586  12.813   1.732   1.405 -0.6262 -0.3006 -1.6729
34491SOL     OW10587  12.010   2.757   6.881 -0.0632  0.4673  0.3802
34491SOL    HW110588  12.070   2.714   6.942  1.6506  0.5845 -1.1672
34491SOL    HW210589  12.033   2.722   6.795 -1.7079  1.1041 -0.3622
34492SOL     OW10590   8.593   4.169  11.794 -0.1242  0.2341 -0.0337
34492SOL    HW110591   8.536   4.092  11.782  1.1312 -0.7361  0.0504
34492SOL    HW210592   8.533   4.238  11.822 -1.1663 -0.9833  0.8842
34493SOL     OW10593  11.337   2.583   5.806 -0.2120  0.3239 -0.0102
34493SOL    HW110594  11.326   2.647   5.877  2.0429  1.1516 -0.3590
34493SOL    HW210595  11.399   2.519   5.841  0.6948  0.5751 -1.1049
34494SOL     OW10596   6.661   5.762   0.291 -0.4451 -0.4048  0.3129
34494SOL    HW110597   6.687   5.693   0.230  0.3954 -0.9087  1.2102
34494SOL    HW210598   6.735   5.822   0.293 -0.0785 -0.8652  1.4842
34495SOL     OW10599   6.137   0.185   3.304 -0.0430 -0.1620 -0.3267
34495SOL    HW110600   6.120   0.264   3.252  0.8538  2.4879  2.9842
34495SOL    HW210601   6.058   0.173   3.356  0.7510  0.1876  1.0193
34496SOL     OW10602   1.033   9.777   7.463  0.3595  0.4688  0.3620
34496SOL    HW110603   1.074   9.748   7.544 -1.0982  1.8863  1.6600
34496SOL    HW210604   0.941   9.751   7.472  0.0061  1.3704 -0.4729
34497SOL     OW10605   1.908   9.988   8.764  0.0714  0.2691 -0.4165
34497SOL    HW110606   1.970  10.000   8.836 -0.9809 -1.8330  0.9399
34497SOL    HW210607   1.921   9.897   8.736 -1.0034  0.4202 -1.4715
34498SOL     OW10608   8.907   1.655   2.909  0.2779 -0.1569  0.3600
34498SOL    HW110609   8.816   1.654   2.940  0.5545 -0.4798  1.1778
34498SOL    HW210610   8.935   1.745   2.921 -0.1833  0.1372 -0.6596
34499SOL     OW10611  11.028   5.719  11.251 -0.2171  0.2272  0.0725
34499SOL    HW110612  11.059   5.633  11.223  0.0293  0.1874  0.4602
34499SOL    HW210613  10.934   5.717  11.235 -0.1304  0.0891 -0.4430
34500SOL     OW10614   5.468   5.826   3.037 -0.0402  0.2708 -0.4487
34500SOL    HW110615   5.396   5.849   3.095 -2.2930 -1.0226 -2.5206
34500SOL    HW210616   5.451   5.875   2.956  0.7432 -0.9365 -1.3929
34501SOL     OW10617   0.154   6.632   2.255 -0.3321 -0.4622  0.4456
34501SOL    HW110618   0.075   6.576   2.257 -0.2151 -0.6242  0.5668
34501SOL    HW210619   0.217   6.586   2.311 -1.1152  1.1447  2.7756
34502SOL     OW10620   0.505   7.294   0.709 -0.0667  0.1439  0.0665
34502SOL    HW110621   0.574   7.254   0.656 -0.0464  0.1050  0.1208
34502SOL    HW210622   0.426   7.244   0.687  0.5693 -2.2921  2.6358
34503SOL     OW10623  12.683   1.496   7.710 -0.4366  0.3446 -0.4214
34503SOL    HW110624  12.651   1.586   7.718  0.0756  0.4734  0.2863
34503SOL    HW210625  12.775   1.505   7.684 -0.3218  0.0329 -0.1354
34504SOL     OW10626  10.570   9.379   4.652  0.0479  0.0167  0.2209
34504SOL    HW110627  10.606   9.442   4.589 -0.2690  0.8265  0.8294
34504SOL    HW210628  10.647   9.331   4.684  0.1384 -0.9892 -1.3595
34505SOL     OW10629   2.295   9.857   6.360 -0.2114  0.4585  0.2016
34505SOL    HW110630   2.321   9.840   6.269  0.4800  0.0570  0.4653
34505SOL    HW210631   2.330   9.782   6.409 -0.4683  0.7395  0.8169
34506SOL     OW10632  12.158   0.807   4.468  0.6634 -0.5256 -0.1316
34506SOL    HW110633  12.173   0.868   4.540  1.3046 -1.2252  0.3437
34506SOL    HW210634  12.181   0.856   4.389  1.6545 -0.3017  0.2877
34507SOL     OW10635   5.844   9.053   7.747 -0.0310 -0.0201 -0.2675
34507SOL    HW110636   5.889   9.080   7.666  0.3938  0.5062  0.1339
34507SOL    HW210637   5.913   9.050   7.813 -0.7508  2.1754  0.7005
34508SOL     OW10638   1.886  10.728   6.209  0.5887 -0.2565  0.4077
34508SOL    HW110639   1.794  10.742   6.188  0.8959  1.8646  0.2283
34508SOL    HW210640   1.891  10.739   6.304  0.2195 -3.5453  0.9252
34509SOL     OW10641   5.504  11.826   7.844  0.1097  0.4717 -0.4863
34509SOL    HW110642   5.502  11.781   7.928  1.6967 -0.4817 -0.9231
34509SOL    HW210643   5.470  11.914   7.863 -0.6610 -0.0981  0.8846
34510SOL     OW10644   2.676  10.628   5.091 -0.3429 -0.5279 -0.2124
34510SOL    HW110645   2.583  10.610   5.080 -0.3540  0.2364 -1.6984
34510SOL    HW210646   2.714  10.546   5.121 -1.4912 -0.8497  0.3885
34511SOL     OW10647  11.263   9.561   0.078  0.2145  0.1772 -0.1918
34511SOL    HW110648  11.175   9.525   0.064 -0.1774 -0.1772  2.5740
34511SOL    HW210649  11.248   9.651   0.105  0.7207  0.1874  0.0533
34512SOL     OW10650   6.021   9.770   0.927  0.4795  0.2976  0.3211
34512SOL    HW110651   5.981   9.840   0.977 -0.7884 -0.3754  0.2887
34512SOL    HW210652   6.108   9.803   0.905 -0.8033  2.8238 -1.5978
34513SOL     OW10653   6.028  10.947  11.296  0.0000 -0.4170 -0.7932
34513SOL    HW110654   6.086  10.958  11.371 -0.6525  2.1611 -0.5558
34513SOL    HW210655   5.983  10.864  11.312  0.5790 -0.4018  1.1751
34514SOL     OW10656   7.668   8.812   3.962  0.1794  0.1356  0.4619
34514SOL    HW110657   7.572   8.809   3.957  0.0495  2.3362  0.7673
34514SOL    HW210658   7.687   8.798   4.055  0.3332 -2.4631  0.1017
34515SOL     OW10659   8.212   9.118   0.935 -0.5498  0.5224  0.4065
34515SOL    HW110660   8.192   9.211   0.922  1.7137  1.8326  4.4797
34515SOL    HW210661   8.155   9.092   1.007  0.5789 -0.4822  0.9716
34516SOL     OW10662  12.304   4.661   8.138 -0.5579  0.6213 -0.3213
34516SOL    HW110663  12.310   4.568   8.161  0.2604  0.9091  0.7246
34516SOL    HW210664  12.287   4.661   8.044  1.2554 -0.5868 -0.7035
34517SOL     OW10665   8.474   2.338  11.639  0.0051 -0.0561  0.0639
34517SOL    HW110666   8.417   2.278  11.592 -0.3075 -0.2032  0.6262
34517SOL    HW210667   8.418   2.411  11.665  0.4961  0.7681 -1.0979
34518SOL     OW10668  10.697   4.556   8.526 -0.2244  0.4141  0.4623
34518SOL    HW110669  10.673   4.525   8.439  1.4207  1.0398 -0.2516
34518SOL    HW210670  10.773   4.613   8.512 -0.2587  0.9784  2.2466
34519SOL     OW10671   9.565   9.389   3.106 -0.2408  0.0548 -0.3341
34519SOL    HW110672   9.616   9.416   3.029 -1.1688  0.8707 -0.6908
34519SOL    HW210673   9.512   9.316   3.075  0.3919 -0.5314 -0.0707
34520SOL     OW10674   1.518   2.384   7.586  0.5062  0.0032 -0.3908
34520SOL    HW110675   1.585   2.414   7.524 -0.4318  0.1095 -1.4003
34520SOL    HW210676   1.536   2.291   7.599  2.2333  0.5117  1.1902
34521SOL     OW10677   6.005   7.023  11.868 -0.5952 -0.1306  0.7051
34521SOL    HW110678   5.973   7.099  11.916 -1.8910 -0.0312 -0.2383
34521SOL    HW210679   5.994   6.949  11.929 -2.3764 -0.0377  0.5572
34522SOL     OW10680  10.260   0.956  11.642  0.3110 -0.3887 -0.3277
34522SOL    HW110681  10.199   0.972  11.571 -0.3155 -0.1998  0.2413
34522SOL    HW210682  10.244   1.027  11.704 -0.1774 -1.3481  0.6778
34523SOL     OW10683  12.075  11.098   5.184 -0.1252  0.2016  0.1281
34523SOL    HW110684  12.117  11.084   5.099 -1.9484  0.0964 -0.8046
34523SOL    HW210685  12.090  11.016   5.232  1.9329  0.6890  0.4181
34524SOL     OW10686   4.492  11.373   9.699 -0.2671  0.2130 -0.2752
34524SOL    HW110687   4.486  11.314   9.774 -0.1661  0.8524  0.2456
34524SOL    HW210688   4.519  11.317   9.626 -0.6061 -0.4588  0.1097
34525SOL     OW10689   3.235   0.399   1.808  0.0611 -0.2889  0.4067
34525SOL    HW110690   3.140   0.408   1.808  0.0154  0.0702  3.1687
34525SOL    HW210691   3.251   0.305   1.819 -0.0210 -0.1972  1.3681
34526SOL     OW10692   2.382   0.253  11.667 -0.1559 -0.1688  0.1810
34526SOL    HW110693   2.406   0.161  11.677  0.0704 -0.0719  0.5403
34526SOL    HW210694   2.465   0.299  11.659 -0.2423 -0.3694 -3.7899
34527SOL     OW10695   6.131   0.093  12.538 -0.1846  0.4887 -0.3264
34527SOL    HW110696   6.224   0.071  12.543  0.2708  2.1131 -0.9085
34527SOL    HW210697   6.094   0.059  12.619  0.9322 -0.0929 -0.0294
34528SOL     OW10698   2.614   3.542   0.967 -0.6608  0.8998 -0.1592
34528SOL    HW110699   2.683   3.532   1.032 -0.2764 -0.9842 -0.8013
34528SOL    HW210700   2.550   3.600   1.008  0.8818  2.0170  0.7668
34529SOL     OW10701   8.968   7.644   6.001 -0.1067 -0.2729 -0.2232
34529SOL    HW110702   9.021   7.576   5.960 -1.2957 -2.0290  0.9627
34529SOL    HW210703   8.927   7.690   5.928  1.5130 -0.1393 -1.0893
34530SOL     OW10704   8.341   3.148  11.753  0.1097 -0.0280 -0.1442
34530SOL    HW110705   8.416   3.147  11.812  0.3477 -0.7406 -0.4515
34530SOL    HW210706   8.308   3.058  11.754 -0.9399  0.3434  0.2402
34531SOL     OW10707   8.144   1.572  11.694 -0.3545 -0.0096 -0.2028
34531SOL    HW110708   8.209   1.568  11.624  0.0148 -0.1920  0.1453
34531SOL    HW210709   8.074   1.514  11.664 -0.3163  0.1116 -0.5368
34532SOL     OW10710  10.731   9.974   9.382 -0.3603 -0.0074  1.1529
34532SOL    HW110711  10.797   9.970   9.451 -1.1669 -0.0363  1.9404
34532SOL    HW210712  10.648   9.985   9.429 -0.7646  1.7420  0.1215
34533SOL     OW10713   0.523   7.542   3.136  0.0553  0.0285 -0.8745
34533SOL    HW110714   0.613   7.547   3.167  0.3559  1.4156 -1.8773
34533SOL    HW210715   0.471   7.532   3.216  0.9847  0.9608 -0.1278
34534SOL     OW10716  11.539   7.766   3.469 -0.0886 -0.0402 -0.1196
34534SOL    HW110717  11.529   7.819   3.390 -0.5646  1.4621  0.9012
34534SOL    HW210718  11.629   7.733   3.465  0.0695  0.4851 -1.0130
34535SOL     OW10719   4.709   0.358   6.709  0.2593 -0.2854  0.2168
34535SOL    HW110720   4.725   0.448   6.736 -0.9983  0.2657 -0.7655
34535SOL    HW210721   4.633   0.363   6.652 -1.1314 -2.2390  1.7469
34536SOL     OW10722   5.992   7.128   3.403 -0.2536 -1.2877 -0.2662
34536SOL    HW110723   6.080   7.091   3.401 -0.3891 -1.6353 -2.2578
34536SOL    HW210724   6.006   7.223   3.402  0.1644 -1.3188 -2.6582
34537SOL     OW10725   8.887   1.665  10.508  0.0070  0.6127 -0.6458
34537SOL    HW110726   8.814   1.696  10.454 -0.8466  0.2667  0.2844
34537SOL    HW210727   8.896   1.731  10.576 -0.4873 -0.1260  0.1594
34538SOL     OW10728   8.438  10.908   1.276 -0.1452  0.3573 -0.4222
34538SOL    HW110729   8.520  10.861   1.261  0.2020  0.4699  1.0074
34538SOL    HW210730   8.417  10.890   1.367 -2.2970 -0.5500 -1.0401
34539SOL     OW10731   1.259   6.326   9.877  0.0519  0.7700 -0.0699
34539SOL    HW110732   1.239   6.303   9.967  1.4237  1.5491  0.4665
34539SOL    HW210733   1.315   6.255   9.845 -1.3345 -0.0745 -0.7019
34540SOL     OW10734  10.341   4.837   6.443  0.1064 -0.0093  0.1343
34540SOL    HW110735  10.411   4.775   6.460 -0.4893 -1.0695 -1.0876
34540SOL    HW210736  10.332   4.838   6.347 -0.8490  0.8930  0.2053
34541SOL     OW10737   2.294   7.296   3.741  0.4239  0.2730  0.0736
34541SOL    HW110738   2.349   7.365   3.780 -1.3290  2.3991 -1.0357
34541SOL    HW210739   2.339   7.272   3.660  0.1635  1.4005 -0.4137
34542SOL     OW10740   3.938  10.468   0.873  0.0476 -0.3096 -0.3346
34542SOL    HW110741   3.944  10.372   0.874 -0.0127 -0.3399  1.8378
34542SOL    HW210742   3.997  10.495   0.803  1.2217 -1.8827  0.0007
34543SOL     OW10743   9.452  10.068  12.863 -0.7021 -0.1138  0.1447
34543SOL    HW110744   9.371  10.104  12.897 -0.8962 -1.2158  0.8939
34543SOL    HW210745   9.458  10.103  12.774 -2.7929 -1.2272 -0.4862
34544SOL     OW10746   4.549  12.585  10.225  0.6175  0.0488 -0.4294
34544SOL    HW110747   4.469  12.600  10.276 -0.0915 -0.6323 -1.2998
34544SOL    HW210748   4.611  12.650  10.258  0.1600 -0.3063  1.2094
34545SOL     OW10749   1.550   7.166   9.939  0.3333 -0.4612  0.1225
34545SOL    HW110750   1.550   7.095   9.874  1.0733  1.0153 -1.5705
34545SOL    HW210751   1.461   7.165   9.975 -0.2046 -1.1430 -1.1400
34546SOL     OW10752  12.816  11.599  11.812 -1.0868  0.5197  0.2975
34546SOL    HW110753  12.837  11.536  11.881 -2.2693  0.0235  0.2296
34546SOL    HW210754  12.871  11.572  11.738 -0.2973  0.6495  0.8216
34547SOL     OW10755   3.970   6.438   8.435  0.3251 -0.1134 -0.3130
34547SOL    HW110756   3.937   6.516   8.389  0.6916  0.4686  0.3879
34547SOL    HW210757   3.892   6.398   8.472  0.0540 -0.4565 -1.2274
34548SOL     OW10758   6.561   0.428   0.905  0.1678 -0.0432  0.0271
34548SOL    HW110759   6.622   0.360   0.879 -0.9808 -1.0349 -0.1664
34548SOL    HW210760   6.524   0.398   0.988 -0.2291  0.4104  0.0226
34549SOL     OW10761  10.859   8.884  10.084  0.2318 -0.3896 -0.0668
34549SOL    HW110762  10.845   8.840   9.999 -0.2104 -0.1512 -0.1203
34549SOL    HW210763  10.953   8.875  10.100  0.0907 -1.8183  0.1653
34550SOL     OW10764   9.945   4.404   9.643 -0.1507 -0.7642 -0.6410
34550SOL    HW110765  10.026   4.446   9.614  0.7846 -0.8309  1.6130
34550SOL    HW210766   9.965   4.310   9.642  2.1122 -0.7729  5.2353
34551SOL     OW10767   9.617  12.236  10.286  0.0110 -0.1727  0.3426
34551SOL    HW110768   9.616  12.323  10.246  0.0961 -0.8450 -1.1684
34551SOL    HW210769   9.525  12.216  10.302 -0.0948 -0.2677 -0.3611
34552SOL     OW10770   1.791   9.136  12.466 -0.3240  0.7298  0.1913
34552SOL    HW110771   1.840   9.071  12.517 -1.1476  0.5018  0.7224
34552SOL    HW210772   1.781   9.096  12.380  1.3536  1.2501 -0.2814
34553SOL     OW10773  10.317   7.260   5.953 -0.5831 -0.1260 -0.8069
34553SOL    HW110774  10.407   7.291   5.962 -0.7721  0.0905  0.5935
34553SOL    HW210775  10.303   7.255   5.859  1.2176 -1.1224 -1.0815
34554SOL     OW10776   5.140   5.683   1.081  0.6566  0.1193 -0.3169
34554SOL    HW110777   5.165   5.733   1.004  0.6636 -0.1338 -0.4819
34554SOL    HW210778   5.223   5.659   1.122  0.6426  0.5745 -0.0221
34555SOL     OW10779  12.678   2.071   0.067 -0.4115  0.3696  0.2249
34555SOL    HW110780  12.758   2.062   0.119  1.7371 -1.3328 -3.0545
34555SOL    HW210781  12.618   2.007   0.104 -0.1478  1.3376  2.4581
34556SOL     OW10782   7.201  12.856   8.661  0.0864  0.1419 -0.2712
34556SOL    HW110783   7.280  12.884   8.706 -0.2966 -1.7915  1.7578
34556SOL    HW210784   7.130  12.881   8.719 -0.4828 -1.7296 -0.0852
34557SOL     OW10785   5.075  12.886   3.158 -0.1011  0.3695 -0.0104
34557SOL    HW110786   5.113  12.966   3.194  0.7713 -0.9432  2.2060
34557SOL    HW210787   5.142  12.854   3.098  0.3137  0.4348  0.4072
34558SOL     OW10788   2.690   5.315   8.157  0.1553 -0.4538  0.2890
34558SOL    HW110789   2.761   5.374   8.133 -0.4941  1.0191  1.8494
34558SOL    HW210790   2.731   5.251   8.216  0.2417  0.2758  1.0315
34559SOL     OW10791  11.582  12.144   7.907  0.8349  0.1080  0.4033
34559SOL    HW110792  11.633  12.072   7.944  0.8798 -0.6275 -1.0402
34559SOL    HW210793  11.645  12.216   7.897  1.3946 -0.4876 -0.4848
34560SOL     OW10794  11.327   1.947   8.948 -0.4259 -0.2721 -0.3119
34560SOL    HW110795  11.281   1.924   8.868 -1.3222 -3.8314  1.0299
34560SOL    HW210796  11.263   1.996   9.000 -0.9364 -0.7104 -0.5282
34561SOL     OW10797  10.587   7.346   4.755  0.7700 -0.2940 -0.3050
34561SOL    HW110798  10.667   7.381   4.795  0.1177 -0.0844  0.8346
34561SOL    HW210799  10.549   7.421   4.708  0.1769  0.1565  0.8637
34562SOL     OW10800   8.801   3.046   6.371 -0.0095 -0.3450  0.2416
34562SOL    HW110801   8.733   3.032   6.437  0.3906  1.3570  1.0562
34562SOL    HW210802   8.808   3.141   6.363  2.1623 -0.4677  0.0714
34563SOL     OW10803   0.715   8.736   0.279  0.1338 -0.0627 -0.5252
34563SOL    HW110804   0.733   8.740   0.185 -0.5891 -0.8431 -0.7145
34563SOL    HW210805   0.669   8.817   0.298  0.7878  0.3640 -0.7199
34564SOL     OW10806   0.680   4.202   2.596  0.1593 -0.3431 -0.0905
34564SOL    HW110807   0.677   4.298   2.597  2.3103 -0.1893 -1.0686
34564SOL    HW210808   0.659   4.178   2.506  2.5113 -0.5230 -0.6741
34565SOL     OW10809  11.056   1.138   6.237 -0.5604 -0.0946  0.4166
34565SOL    HW110810  11.018   1.190   6.165 -0.3676 -0.1427  0.2784
34565SOL    HW210811  10.985   1.129   6.300 -1.2241 -1.3615 -0.4521
34566SOL     OW10812   1.908   3.027   0.456  0.7652  0.3441 -0.2059
34566SOL    HW110813   1.981   3.022   0.519  1.4436 -0.1082 -1.0067
34566SOL    HW210814   1.843   2.965   0.490 -0.2988  2.3779  1.7719
34567SOL     OW10815   3.876   3.955   4.685  0.2604 -0.3498  0.1848
34567SOL    HW110816   3.871   3.918   4.773 -0.1048 -1.3869 -0.2480
34567SOL    HW210817   3.951   3.911   4.644 -0.6126 -1.2019 -0.5740
34568SOL     OW10818   2.070   2.603   3.653  0.0709  0.0769 -0.1173
34568SOL    HW110819   1.991   2.601   3.707 -0.5363  1.0554 -0.9439
34568SOL    HW210820   2.139   2.572   3.712 -0.3860  2.0709  1.5660
34569SOL     OW10821   8.043   4.632   0.375  0.2050 -0.3363  0.6026
34569SOL    HW110822   8.072   4.626   0.284 -1.4076  2.5220 -0.2346
34569SOL    HW210823   7.947   4.638   0.370 -0.2326 -3.1894  2.7909
34570SOL     OW10824   1.110  12.910  11.524 -0.0119  0.4538 -0.6180
34570SOL    HW110825   1.139  12.823  11.497  3.4095  1.0601  0.6648
34570SOL    HW210826   1.036  12.892  11.582  0.8210 -1.6653 -0.0920
34571SOL     OW10827   2.113   5.065   3.269  1.0014  0.0134  0.2788
34571SOL    HW110828   2.043   5.130   3.274 -0.4798 -1.5895  2.0421
34571SOL    HW210829   2.181   5.098   3.328  1.5383  1.2920 -0.9912
34572SOL     OW10830  11.702   7.640   3.195  0.0744 -0.1436  0.1666
34572SOL    HW110831  11.720   7.656   3.288 -2.0329  1.8262  0.3161
34572SOL    HW210832  11.632   7.576   3.195 -1.3932  1.4009  0.0675
34573SOL     OW10833   2.066   8.279   1.578  0.1665  0.3501  0.5108
34573SOL    HW110834   2.019   8.362   1.581  0.9979  0.9209 -1.0503
34573SOL    HW210835   2.138   8.294   1.516  2.3263 -0.5193  2.6399
34574SOL     OW10836   9.342   0.698   3.098 -0.6314  0.1834 -0.0492
34574SOL    HW110837   9.295   0.615   3.091 -0.2002 -0.0155 -0.8085
34574SOL    HW210838   9.408   0.693   3.029  1.2063  0.0015  1.6367
34575SOL     OW10839   2.423   6.796   8.049  0.3535 -0.0285 -0.0180
34575SOL    HW110840   2.366   6.744   8.107  0.3018  1.2495  1.1329
34575SOL    HW210841   2.512   6.773   8.076  0.3590 -0.5970 -0.5085
34576SOL     OW10842   9.803   4.326   3.287  0.1851  0.0000 -0.0018
34576SOL    HW110843   9.741   4.393   3.316  1.3895  1.7728 -1.3466
34576SOL    HW210844   9.825   4.278   3.367 -1.2876  0.6899  0.8691
34577SOL     OW10845   4.610   4.940   2.066  0.1055  0.0712  0.0973
34577SOL    HW110846   4.588   5.026   2.031  0.7095  0.3122  0.2910
34577SOL    HW210847   4.618   4.884   1.989  1.5892  0.6342 -0.2090
34578SOL     OW10848   5.863   9.624   6.746 -0.5564 -0.3969  0.5544
34578SOL    HW110849   5.913   9.624   6.828  0.5377 -0.7547 -0.0833
34578SOL    HW210850   5.901   9.552   6.695  0.5647  1.3672 -1.2772
34579SOL     OW10851  12.288   5.101   9.420 -0.0386  0.0061 -0.5176
34579SOL    HW110852  12.296   5.033   9.487  0.4201 -1.4735 -1.9940
34579SOL    HW210853  12.193   5.113   9.411 -0.1173  1.6114  1.6521
34580SOL     OW10854  11.296   7.175   0.257 -0.5175  1.2889 -0.0280
34580SOL    HW110855  11.215   7.208   0.220  0.4988  1.3498 -2.4016
34580SOL    HW210856  11.347   7.253   0.278 -0.6636  1.2442  0.5050
34581SOL     OW10857   2.893   1.125   4.518  0.8547  0.3401  0.2403
34581SOL    HW110858   2.952   1.194   4.488  0.5326 -0.0222 -1.3089
34581SOL    HW210859   2.831   1.114   4.446  0.3494 -0.9378  0.8451
34582SOL     OW10860   4.296   3.063   2.262 -0.8389  0.1326 -0.2736
34582SOL    HW110861   4.327   3.149   2.235 -0.2660  0.1533  0.4028
34582SOL    HW210862   4.373   3.020   2.299 -1.6592  0.3692  1.9181
34583SOL     OW10863   7.126   0.035   1.586  0.0804  0.1078 -0.4233
34583SOL    HW110864   7.204   0.001   1.628 -0.1207  1.0693  0.8022
34583SOL    HW210865   7.113   0.121   1.627 -0.7398  0.6208 -1.7121
34584SOL     OW10866  10.148   6.588  11.524  0.2270  0.0152  0.2407
34584SOL    HW110867  10.182   6.596  11.613 -0.3671  1.2858  0.3770
34584SOL    HW210868  10.204   6.645  11.471 -0.5937  0.7808  0.1630
34585SOL     OW10869   9.658   5.454  11.982  0.3837  0.1233 -0.7236
34585SOL    HW110870   9.743   5.460  12.024 -0.4632  0.1761  1.0864
34585SOL    HW210871   9.651   5.533  11.928  1.2069  0.4400 -0.3764
34586SOL     OW10872  12.338   7.764   9.906  0.8283  0.1173  0.0230
34586SOL    HW110873  12.353   7.854   9.878 -1.5086  0.8124  0.7868
34586SOL    HW210874  12.246   7.762   9.932  1.5796 -1.6892  3.0281
34587SOL     OW10875   7.304   2.153   3.593 -0.4303 -0.1870  0.7314
34587SOL    HW110876   7.217   2.192   3.596 -0.1038  0.6711 -0.2055
34587SOL    HW210877   7.351   2.204   3.526  1.3141  0.4626  2.3438
34588SOL     OW10878   4.544  12.013  12.852 -0.2011  0.1110 -0.1938
34588SOL    HW110879   4.509  11.952  12.787 -0.2802  0.2200 -0.2548
34588SOL    HW210880   4.565  12.092  12.802 -0.3826  0.2401 -0.0654
34589SOL     OW10881   7.021   7.437   5.908  0.2387 -0.6367  0.1107
34589SOL    HW110882   7.043   7.485   5.829  1.9328 -0.3299  0.7243
34589SOL    HW210883   6.972   7.360   5.878 -0.7861  0.4235 -1.0406
34590SOL     OW10884   8.503   1.413   7.991 -0.7969 -0.5708  0.4093
34590SOL    HW110885   8.412   1.386   7.983 -0.9322 -0.2480  0.8605
34590SOL    HW210886   8.552   1.346   7.943 -1.4522  0.4875 -1.9040
34591SOL     OW10887   0.099   4.912   5.921 -0.1612 -0.6143  0.4178
34591SOL    HW110888   0.034   4.934   5.854 -0.4003 -1.2766  0.4241
34591SOL    HW210889   0.106   4.991   5.975  1.6813  0.7703 -1.6717
34592SOL     OW10890   1.841   3.529   8.037 -0.5174 -0.1066  0.0286
34592SOL    HW110891   1.763   3.480   8.065 -1.4542  1.4191  0.2436
34592SOL    HW210892   1.808   3.588   7.969  0.5924  0.1255 -0.3203
34593SOL     OW10893  12.306  11.381   0.838 -0.0351 -0.4034 -0.1552
34593SOL    HW110894  12.351  11.465   0.832  0.2570 -0.5294  0.2102
34593SOL    HW210895  12.259  11.373   0.756  1.6361 -0.8533 -1.1212
34594SOL     OW10896   6.367   0.228   3.020 -0.6590 -0.6201  0.0543
34594SOL    HW110897   6.372   0.245   3.114  0.0164 -2.5476  0.4014
34594SOL    HW210898   6.409   0.304   2.979 -0.5439  0.0158  1.3247
34595SOL     OW10899   2.049   9.223   5.089  0.1702  0.8879 -0.1151
34595SOL    HW110900   2.064   9.292   5.154 -1.2584  1.1571 -0.0363
34595SOL    HW210901   2.052   9.142   5.139  0.3996  0.9914  0.0440
34596SOL     OW10902   7.050  10.058   5.197 -0.1452 -0.1482 -0.0879
34596SOL    HW110903   7.142  10.045   5.223 -0.6557 -0.3041  1.7311
34596SOL    HW210904   7.038   9.996   5.124  0.8352 -1.1235  0.5354
34597SOL     OW10905   7.281   5.992   4.699  0.4103 -0.1872 -0.3569
34597SOL    HW110906   7.261   5.981   4.792 -0.3920  0.0388 -0.4969
34597SOL    HW210907   7.375   6.010   4.697  0.6149 -1.1113  0.3343
34598SOL     OW10908  11.499   9.479   5.659  0.1683 -0.1996  0.2735
34598SOL    HW110909  11.582   9.448   5.697 -0.4149 -0.9866  0.9510
34598SOL    HW210910  11.480   9.560   5.707  1.0156  0.5157 -0.5577
34599SOL     OW10911   2.417   0.362  11.044 -0.4378 -0.7339  0.8495
34599SOL    HW110912   2.407   0.452  11.075 -0.5314 -0.2444 -0.5176
34599SOL    HW210913   2.357   0.355  10.970 -0.3770 -1.9072  0.8892
34600SOL     OW10914   7.862  11.427  11.621 -0.6415 -0.1695  0.3247
34600SOL    HW110915   7.956  11.440  11.634 -0.6131  0.9857 -0.8352
34600SOL    HW210916   7.821  11.491  11.679 -0.6259  1.1467 -1.0543
34601SOL     OW10917   9.929   5.305   9.751  0.3861  0.5620 -0.2652
34601SOL    HW110918   9.974   5.368   9.808  0.4102 -0.4036  0.8233
34601SOL    HW210919   9.838   5.336   9.749  0.1106 -0.0057  1.2922
34602SOL     OW10920  11.131   1.953   3.431  0.4271 -0.3354 -0.8941
34602SOL    HW110921  11.039   1.928   3.438  0.1531  0.5378 -1.2892
34602SOL    HW210922  11.170   1.924   3.513 -0.0877 -1.1420 -0.9171
34603SOL     OW10923  11.429   6.998   4.287  0.1394  0.0450  0.2160
34603SOL    HW110924  11.336   6.988   4.304 -0.4961  0.3127 -2.5830
34603SOL    HW210925  11.451   7.084   4.323 -1.1906  0.8076 -0.6817
34604SOL     OW10926   5.068  10.143   9.904  0.1830 -0.7258  0.1796
34604SOL    HW110927   5.028  10.122   9.820  0.7099  2.1912 -0.9529
34604SOL    HW210928   4.995  10.171   9.960  0.0810 -0.4137 -0.1092
34605SOL     OW10929   3.379  12.238   0.342  0.8308  0.3192 -0.0530
34605SOL    HW110930   3.305  12.178   0.349  0.0944  0.8628 -2.3445
34605SOL    HW210931   3.347  12.320   0.381  0.9902 -0.0434  0.8623
34606SOL     OW10932  11.114   9.949  12.011 -0.5568  0.6134 -0.4364
34606SOL    HW110933  11.132   9.992  12.095 -0.4800 -0.0477 -0.1072
34606SOL    HW210934  11.184   9.884  12.002 -1.8128 -0.8809  0.0760
34607SOL     OW10935   0.145  11.230   3.756 -0.6910  0.0264 -0.5486
34607SOL    HW110936   0.156  11.150   3.705 -0.0854 -0.5457  0.4431
34607SOL    HW210937   0.055  11.257   3.740 -0.0218  0.9544 -3.4389
34608SOL     OW10938   1.169   2.604   3.380 -0.0805  0.0445 -0.2247
34608SOL    HW110939   1.123   2.657   3.444 -2.0723 -2.6305  0.7493
34608SOL    HW210940   1.256   2.644   3.372 -1.1350  2.7764  1.0982
34609SOL     OW10941   6.353  11.035   5.513 -0.0063 -0.1692 -0.0388
34609SOL    HW110942   6.287  11.035   5.444  0.7957  2.1887 -0.9181
34609SOL    HW210943   6.423  10.980   5.480 -0.3966 -0.5296 -0.2766
34610SOL     OW10944   5.314  11.946   6.929 -0.0339 -0.5493 -0.4119
34610SOL    HW110945   5.359  12.007   6.987  0.0366  0.9240 -1.9343
34610SOL    HW210946   5.345  11.859   6.957  2.2001  0.2735 -0.0945
34611SOL     OW10947   9.150   2.178   4.408  0.5704 -0.1231 -0.6984
34611SOL    HW110948   9.099   2.196   4.330 -0.0582  0.8297 -0.0839
34611SOL    HW210949   9.237   2.212   4.388  0.9139 -1.4738 -1.6327
34612SOL     OW10950   9.973  11.245   5.337  0.6552  0.7783 -0.3761
34612SOL    HW110951  10.014  11.194   5.266 -0.4253 -1.7016  0.6432
34612SOL    HW210952  10.017  11.214   5.416 -1.0023  0.3523  0.4157
34613SOL     OW10953  11.970  11.114   8.340  0.2577 -0.0811 -0.3939
34613SOL    HW110954  12.015  11.162   8.271  0.8854 -1.2714 -0.8356
34613SOL    HW210955  11.881  11.102   8.307  0.3981 -0.1560 -0.7472
34614SOL     OW10956   3.454  11.341  11.678  0.0803 -0.1192 -0.2473
34614SOL    HW110957   3.526  11.283  11.699  0.9376  1.3201  0.9220
34614SOL    HW210958   3.377  11.301  11.718  0.6014 -0.5999  0.2660
34615SOL     OW10959   0.679   0.903   1.053 -0.5911 -0.6720 -0.3157
34615SOL    HW110960   0.769   0.935   1.053 -1.3154  1.5084 -0.8079
34615SOL    HW210961   0.673   0.849   0.974 -0.0024  0.0718 -0.8778
34616SOL     OW10962   8.255   0.392  10.954  0.0528 -0.2421  0.2249
34616SOL    HW110963   8.319   0.464  10.944  0.5154 -0.2978  2.2759
34616SOL    HW210964   8.174   0.428  10.918  0.4508  1.0547  0.5462
34617SOL     OW10965   9.326   5.155  12.291  0.3132 -0.1900 -0.1182
34617SOL    HW110966   9.384   5.179  12.218 -0.1539 -0.8676 -0.7247
34617SOL    HW210967   9.314   5.236  12.340  2.4398 -0.1830  0.5031
34618SOL     OW10968   6.632   3.836   8.624 -0.6567  0.0815  0.4884
34618SOL    HW110969   6.681   3.863   8.547 -1.3253 -0.1272 -0.0154
34618SOL    HW210970   6.696   3.788   8.677  0.0212  0.9293  0.4682
34619SOL     OW10971   3.157   4.448   1.536  0.3365 -0.3753  0.1089
34619SOL    HW110972   3.220   4.497   1.588 -0.0404 -0.2477  0.4537
34619SOL    HW210973   3.083   4.508   1.526  0.0726 -0.6975  0.1184
34620SOL     OW10974   4.618   0.411   7.669 -0.5117 -0.1412 -0.1066
34620SOL    HW110975   4.688   0.405   7.734 -0.1960 -0.5885 -0.4828
34620SOL    HW210976   4.565   0.333   7.683 -2.7070  1.5806  2.1518
34621SOL     OW10977   2.058   6.015   6.699 -0.7328  0.7650 -0.0797
34621SOL    HW110978   2.122   6.084   6.680  1.1811 -1.2843 -1.6369
34621SOL    HW210979   2.083   5.943   6.641 -2.8578 -1.1164  1.1994
34622SOL     OW10980   0.622   4.463   1.129  0.1823 -0.5039  0.1950
34622SOL    HW110981   0.634   4.544   1.178 -1.5677 -1.1464  1.7894
34622SOL    HW210982   0.697   4.409   1.153 -0.3636 -0.5950  1.7660
34623SOL     OW10983  11.533   1.307   6.425  0.1657  0.4924  0.2113
34623SOL    HW110984  11.446   1.284   6.392  0.9346 -0.3481 -1.3491
34623SOL    HW210985  11.579   1.223   6.431  1.2988  1.0463 -0.3325
34624SOL     OW10986  10.286   5.885   6.833 -0.1721  0.8000  0.2589
34624SOL    HW110987  10.196   5.902   6.862 -0.5651 -0.7637  0.0154
34624SOL    HW210988  10.329   5.845   6.909 -0.2638 -0.2977 -0.2569
34625SOL     OW10989   2.347   0.071   7.066 -0.0795  0.3221  0.0549
34625SOL    HW110990   2.377  -0.019   7.060 -1.9033 -0.2750 -0.8552
34625SOL    HW210991   2.303   0.077   7.151 -0.6009  0.1321 -0.1981
34626SOL     OW10992   1.967  10.807  11.059  0.5542  0.1947 -0.2225
34626SOL    HW110993   1.924  10.892  11.075 -1.1237 -0.7830  0.7248
34626SOL    HW210994   2.046  10.830  11.010  0.9116  2.4575  1.2452
34627SOL     OW10995   5.018  10.708   3.076 -0.4542  0.3477 -0.2272
34627SOL    HW110996   4.975  10.788   3.048  0.9263  2.1629  2.4179
34627SOL    HW210997   5.094  10.737   3.127 -1.8480 -2.4102  4.0330
34628SOL     OW10998   3.288   0.901   1.678 -0.1399 -0.0729 -0.1624
34628SOL    HW110999   3.250   0.921   1.763  1.0841  2.6978 -0.1772
34628SOL    HW211000   3.324   0.813   1.688  0.2878  0.3167  2.2910
34629SOL     OW11001  11.939   6.203   5.106  0.1495  0.2832 -0.0493
34629SOL    HW111002  11.860   6.180   5.057  1.1611 -1.4854 -0.9635
34629SOL    HW211003  12.011   6.184   5.045  1.3671 -0.3085  1.5070
34630SOL     OW11004   0.717   7.783   2.061 -0.2179  0.3493 -0.4223
34630SOL    HW111005   0.759   7.697   2.066 -1.8229 -0.4396  0.3366
34630SOL    HW211006   0.781   7.843   2.097  0.2024 -0.8424  0.9278
34631SOL     OW11007   7.604   4.760  11.795 -0.0002  0.0130  0.0301
34631SOL    HW111008   7.651   4.794  11.718  0.0358 -0.1923 -0.0395
34631SOL    HW211009   7.512   4.761  11.769  0.0055  0.0080  0.0090
34632SOL     OW11010   0.356   7.328   5.802 -1.0275 -0.1491 -0.5466
34632SOL    HW111011   0.337   7.421   5.813 -1.3878 -0.2821 -0.0384
34632SOL    HW211012   0.359   7.315   5.707  1.1937  0.8259 -0.6768
34633SOL     OW11013   1.725   6.150  11.725 -0.1915  0.3450 -0.7066
34633SOL    HW111014   1.629   6.149  11.720 -0.2402  1.2414 -0.1072
34633SOL    HW211015   1.744   6.108  11.809 -0.0669  0.4925 -0.6626
34634SOL     OW11016   6.018   3.833   3.889  0.0015  0.3238  0.0659
34634SOL    HW111017   5.948   3.882   3.846  0.8899  0.9849 -0.6868
34634SOL    HW211018   6.092   3.894   3.889 -0.2113  0.8359  3.5667
34635SOL     OW11019   3.745   3.786   6.852 -0.0804 -0.1366 -0.4995
34635SOL    HW111020   3.812   3.717   6.857  0.6119  0.4587 -1.3502
34635SOL    HW211021   3.662   3.739   6.865  0.3136 -1.2665 -1.8067
34636SOL     OW11022   6.796   8.288  12.081  0.5435  0.6580 -0.3324
34636SOL    HW111023   6.873   8.341  12.098  0.1234  1.1413  0.1187
34636SOL    HW211024   6.794   8.278  11.986  1.4843  0.1310 -0.3030
34637SOL     OW11025   4.229   0.258   8.136 -0.6392 -0.5255  0.4582
34637SOL    HW111026   4.256   0.177   8.094 -0.3877  1.3239 -3.3628
34637SOL    HW211027   4.133   0.258   8.129 -0.7117 -0.8494  1.3009
34638SOL     OW11028   8.201   4.256   5.790  0.4015 -0.4435  0.1174
34638SOL    HW111029   8.121   4.206   5.806  1.0724 -2.1799 -1.5759
34638SOL    HW211030   8.265   4.190   5.764  1.7303  1.1780 -0.8867
34639SOL     OW11031   0.515   9.401  11.595  0.3012  0.6048 -0.2932
34639SOL    HW111032   0.460   9.324  11.606  2.2794 -0.5760  2.7785
34639SOL    HW211033   0.550   9.393  11.507 -3.2179  0.7248 -1.8845
34640SOL     OW11034  11.741   7.799   4.729 -0.2355  0.2124  0.3686
34640SOL    HW111035  11.764   7.763   4.815  0.5431  0.4345  0.2644
34640SOL    HW211036  11.821   7.789   4.678 -1.0460 -1.0257 -0.7182
34641SOL     OW11037   6.713   2.358  12.149 -0.1648 -0.6791 -0.1236
34641SOL    HW111038   6.627   2.353  12.108 -0.9616  0.4733  1.2898
34641SOL    HW211039   6.743   2.447  12.129  1.2429 -1.4408 -1.5727
34642SOL     OW11040   6.773  10.665   8.391 -0.0577  0.4963 -0.2051
34642SOL    HW111041   6.749  10.614   8.468 -0.8413  0.7592 -0.2628
34642SOL    HW211042   6.799  10.599   8.326 -0.9728  0.1666 -0.2506
34643SOL     OW11043  11.753   2.360  10.616  0.4097 -0.0892 -0.0829
34643SOL    HW111044  11.693   2.293  10.583 -0.9761  1.0764 -0.0495
34643SOL    HW211045  11.726   2.440  10.571  0.2023  1.0105  1.8873
34644SOL     OW11046   7.910  12.627   3.984 -0.2675 -0.0212 -0.0251
34644SOL    HW111047   7.993  12.646   4.027 -0.0260  0.3708 -0.6542
34644SOL    HW211048   7.922  12.541   3.946  0.2443  0.4839 -1.0413
34645SOL     OW11049   3.933  11.931   0.635  0.3997 -0.2960 -0.2929
34645SOL    HW111050   3.910  11.962   0.722  1.1147 -1.3121  0.2713
34645SOL    HW211051   3.857  11.953   0.581  0.2369  0.9772  0.4155
34646SOL     OW11052   4.073   1.531  12.746 -0.3643 -0.1813  0.2156
34646SOL    HW111053   4.033   1.618  12.747 -1.3836 -0.6364  1.0611
34646SOL    HW211054   4.134   1.531  12.820  0.7288  0.2768 -0.6540
34647SOL     OW11055   7.951   8.869  11.615 -0.2180 -0.4113  0.4220
34647SOL    HW111056   8.037   8.913  11.614 -0.0201 -0.6812  2.2399
34647SOL    HW211057   7.918   8.880  11.526  1.3381  0.4290 -0.0985
34648SOL     OW11058   9.457   6.685   9.634  0.3995 -0.7138  0.1709
34648SOL    HW111059   9.504   6.767   9.618  0.9838 -0.6927  1.8085
34648SOL    HW211060   9.507   6.642   9.703 -2.0074 -0.6287  2.0950
34649SOL     OW11061   1.642   2.056   7.350  0.2824  0.4365  0.0721
34649SOL    HW111062   1.676   1.967   7.348 -0.5589  0.0607 -3.1980
34649SOL    HW211063   1.712   2.110   7.312  0.9097  1.2979  2.3015
34650SOL     OW11064   4.628   5.344   8.114 -0.2237  0.3257  0.1427
34650SOL    HW111065   4.682   5.328   8.191 -0.8688  0.7072  0.6858
34650SOL    HW211066   4.663   5.425   8.077  0.0522  0.1707  0.0597
34651SOL     OW11067   1.638   7.088   5.531  0.2499 -0.5431 -0.4497
34651SOL    HW111068   1.619   6.995   5.516  0.4390 -0.6502 -0.0240
34651SOL    HW211069   1.729   7.090   5.561 -0.8660 -0.6265  3.4393
34652SOL     OW11070   8.425   0.849  11.696  0.1342  0.4153 -0.0777
34652SOL    HW111071   8.406   0.939  11.720  1.8718  0.9563 -0.6324
34652SOL    HW211072   8.465   0.810  11.774  1.6727  0.8764 -0.6065
34653SOL     OW11073   5.532   4.130  12.332  0.5320  0.6131  0.4691
34653SOL    HW111074   5.578   4.114  12.250  0.4328  1.5009  0.2264
34653SOL    HW211075   5.580   4.079  12.397  0.2856 -0.5404 -0.2204
34654SOL     OW11076   4.413   6.421   0.641  0.2400 -0.1647 -0.1266
34654SOL    HW111077   4.413   6.346   0.700 -1.5809  0.8703  1.3351
34654SOL    HW211078   4.500   6.459   0.649 -0.5410  1.2599  3.8497
34655SOL     OW11079   5.242   7.488   8.999  0.0860  1.1202  0.2651
34655SOL    HW111080   5.167   7.544   8.977 -0.3559 -0.0798 -1.5428
34655SOL    HW211081   5.207   7.399   8.997  1.5993  0.4970 -0.9533
34656SOL     OW11082   8.934   5.583   9.537 -0.8378  0.1681 -0.1072
34656SOL    HW111083   8.884   5.513   9.496  0.0624 -1.5222  1.5378
34656SOL    HW211084   8.991   5.616   9.467 -2.5432  0.5406 -1.3756
34657SOL     OW11085  11.515  10.819   0.953  0.0020  0.3376  0.0930
34657SOL    HW111086  11.483  10.846   0.867  0.6315  1.8972  0.3193
34657SOL    HW211087  11.538  10.726   0.942  2.1607  1.0231 -2.0364
34658SOL     OW11088   9.539  10.857  11.084  0.3357 -0.2014  0.2030
34658SOL    HW111089   9.583  10.829  11.164  2.0284 -0.4154 -0.7377
34658SOL    HW211090   9.588  10.814  11.014 -0.0054  1.3371 -1.0374
34659SOL     OW11091   0.201   5.028  12.244  0.2525  0.1877 -0.2126
34659SOL    HW111092   0.276   4.973  12.266 -0.1724 -0.8368 -1.2688
34659SOL    HW211093   0.144   4.972  12.192  0.0684  1.7852 -1.8278
34660SOL     OW11094   6.135   2.335   3.131 -0.2406 -0.1053  0.2204
34660SOL    HW111095   6.157   2.428   3.128 -0.7936  0.0375  0.5576
34660SOL    HW211096   6.183   2.297   3.057  0.3640  0.3603  0.3665
34661SOL     OW11097  10.356   4.618   0.042  0.9485  0.1274 -0.1956
34661SOL    HW111098  10.434   4.641   0.094  0.9749  0.1640 -0.2514
34661SOL    HW211099  10.335   4.529   0.069  2.3574 -0.7594 -1.8211
34662SOL     OW11100   4.593   7.126   3.118  0.2058 -0.0792  0.0385
34662SOL    HW111101   4.539   7.062   3.071  1.2010  0.2709 -1.6990
34662SOL    HW211102   4.548   7.140   3.201 -3.4554  1.5464 -1.9632
34663SOL     OW11103  11.990   4.043   5.581 -0.6167 -0.2169  0.5708
34663SOL    HW111104  12.048   3.967   5.587 -0.8365 -0.3711  0.7574
34663SOL    HW211105  12.047   4.114   5.550 -0.4927 -0.5462  0.0260
34664SOL     OW11106   3.430   0.204  10.525  0.1917  0.4180 -0.1771
34664SOL    HW111107   3.360   0.204  10.590  0.2552  1.3091 -0.1035
34664SOL    HW211108   3.453   0.111  10.516 -0.9913  0.1063 -0.2044
34665SOL     OW11109  12.583   7.225   0.111  0.4310 -0.4547  0.1300
34665SOL    HW111110  12.662   7.215   0.059 -0.0929  0.9103 -0.9770
34665SOL    HW211111  12.524   7.278   0.057 -0.9237 -0.7217  1.2703
34666SOL     OW11112  12.108   3.818   3.056  0.2148 -0.3127 -0.5597
34666SOL    HW111113  12.175   3.869   3.011 -0.8364  2.0114  0.3261
34666SOL    HW211114  12.030   3.827   3.001 -0.2668 -0.0380  0.1485
34667SOL     OW11115   5.498   0.406   0.061  0.0162  0.2344 -0.3526
34667SOL    HW111116   5.585   0.412   0.023  0.8741  0.3410  1.5215
34667SOL    HW211117   5.484   0.491   0.104 -0.6206 -0.1082  0.1489
34668SOL     OW11118  10.371   0.412   6.608 -0.2586  0.2612  0.7823
34668SOL    HW111119  10.315   0.364   6.668 -3.3045  0.9912 -1.2306
34668SOL    HW211120  10.310   0.455   6.548  2.4872  1.8893 -1.0684
34669SOL     OW11121   9.334   9.621   0.434 -0.0736  0.3442  0.4823
34669SOL    HW111122   9.372   9.589   0.517  1.2344 -1.4178 -0.7128
34669SOL    HW211123   9.247   9.583   0.431  0.3531 -0.6630  0.4875
34670SOL     OW11124  11.153   6.683   1.645 -0.7078  0.6448 -0.1842
34670SOL    HW111125  11.188   6.594   1.643 -0.2863  0.6041  3.1515
34670SOL    HW211126  11.059   6.672   1.635 -0.5538 -0.0014 -1.1462
34671SOL     OW11127  12.027   2.790   2.798  0.1146  0.1075 -0.3491
34671SOL    HW111128  12.102   2.841   2.829 -0.6386 -0.1384  2.0777
34671SOL    HW211129  12.048   2.700   2.822 -0.2802 -0.1828 -1.0649
34672SOL     OW11130  10.683   8.710  11.754  0.4562 -0.2527 -0.6647
34672SOL    HW111131  10.631   8.688  11.831  1.8041  0.6590  0.5538
34672SOL    HW211132  10.754   8.646  11.753  1.2912  0.6324 -0.2511
34673SOL     OW11133   7.197   5.619   8.372  0.2076 -0.0983  0.3253
34673SOL    HW111134   7.269   5.595   8.314  1.4739  1.3656  1.1909
34673SOL    HW211135   7.222   5.705   8.405 -1.9870  0.4702  0.6388
34674SOL     OW11136   0.986   4.367   0.407 -0.1112 -0.0125  0.0583
34674SOL    HW111137   1.023   4.381   0.320 -0.5144  0.2554 -0.0712
34674SOL    HW211138   0.957   4.276   0.406  0.6737 -0.2723  0.2127
34675SOL     OW11139   5.224   6.312   5.104 -0.1283 -0.7955  0.1905
34675SOL    HW111140   5.257   6.248   5.167  0.0892  0.3975  1.3120
34675SOL    HW211141   5.254   6.279   5.019  2.0557 -0.9348  0.9632
34676SOL     OW11142   6.974   3.577  10.086  0.1083 -0.2360 -0.3322
34676SOL    HW111143   6.950   3.596  10.177 -1.3334 -0.7292 -0.5937
34676SOL    HW211144   6.974   3.482  10.080 -0.7979 -0.1985 -1.0965
34677SOL     OW11145  11.107   8.614  10.183  0.3475  0.5255  0.0548
34677SOL    HW111146  11.063   8.589  10.102 -1.1101  0.6818  0.7752
34677SOL    HW211147  11.141   8.702  10.165  1.7177 -0.1839 -1.0072
34678SOL     OW11148   4.690  11.369   9.284 -0.1235 -0.4601  0.1000
34678SOL    HW111149   4.677  11.279   9.254  1.4532 -0.1276 -1.7165
34678SOL    HW211150   4.744  11.410   9.217 -1.3613  2.0824  0.5105
34679SOL     OW11151  12.003   2.111   6.689  0.1733  0.1917 -0.3375
34679SOL    HW111152  12.062   2.124   6.616  0.4373  0.8151 -0.0149
34679SOL    HW211153  11.987   2.198   6.724  0.8921 -0.1957  1.0052
34680SOL     OW11154  11.233   5.584  12.905 -0.0298 -0.5814 -0.4019
34680SOL    HW111155  11.223   5.677  12.926 -1.3785 -0.7162 -0.3405
34680SOL    HW211156  11.271   5.545  12.984  0.6289 -0.0803 -0.4602
34681SOL     OW11157   2.676   5.779   0.537 -0.3770  0.2486 -0.1622
34681SOL    HW111158   2.592   5.825   0.536 -0.3301  0.3409 -1.8371
34681SOL    HW211159   2.690   5.759   0.630 -1.9060  0.8299  0.2376
34682SOL     OW11160  10.387   0.550   0.801  0.0566  0.1551 -0.2427
34682SOL    HW111161  10.361   0.496   0.726  1.1461 -0.8757  0.1060
34682SOL    HW211162  10.455   0.500   0.845 -0.3781  0.8714  1.3071
34683SOL     OW11163   3.856  12.432  10.746  0.1729  0.2490  0.6300
34683SOL    HW111164   3.821  12.521  10.742  0.7456  0.4474 -0.1843
34683SOL    HW211165   3.895  12.425  10.833 -1.3244  0.2274  1.3266
34684SOL     OW11166   2.432   9.696   4.482 -0.3107  0.3038 -0.4993
34684SOL    HW111167   2.367   9.708   4.412  1.5799  0.9977 -2.2651
34684SOL    HW211168   2.478   9.615   4.459  0.1339  0.3699  0.1205
34685SOL     OW11169  11.645   7.542   8.713 -0.4898  0.1419 -0.0831
34685SOL    HW111170  11.600   7.508   8.790  1.1946 -1.3948  0.2874
34685SOL    HW211171  11.626   7.479   8.643 -0.2500  0.3592 -0.3511
34686SOL     OW11172   8.602   5.369  10.415 -0.5488 -0.4215 -0.1515
34686SOL    HW111173   8.682   5.348  10.462 -0.2207  0.4078 -0.3134
34686SOL    HW211174   8.595   5.302  10.347  1.1993  0.7252 -1.5358
34687SOL     OW11175  12.200  11.045   9.747  0.2674  0.0887 -0.5819
34687SOL    HW111176  12.121  11.078   9.704 -0.5110  0.6724  1.1995
34687SOL    HW211177  12.243  11.124   9.782  0.2392 -0.4464  0.7083
34688SOL     OW11178  11.714   9.785   9.680 -0.3052  0.2877  0.5100
34688SOL    HW111179  11.624   9.753   9.676 -0.7085  1.4936 -0.5965
34688SOL    HW211180  11.726   9.811   9.772 -1.5027  1.2076  0.4354
34689SOL     OW11181   2.361   1.741   5.215  0.1158  0.4703 -0.1751
34689SOL    HW111182   2.332   1.725   5.125 -1.4841 -0.2137  0.4321
34689SOL    HW211183   2.455   1.760   5.207  0.4469 -1.5443 -1.7816
34690SOL     OW11184   7.687  12.145   7.842  0.5441  0.3375  0.3628
34690SOL    HW111185   7.633  12.205   7.790  0.7109 -0.2561 -0.5305
34690SOL    HW211186   7.660  12.058   7.813  0.1092 -0.0445  1.8350
34691SOL     OW11187   1.715   4.778   3.514  0.2197  0.1465  0.1308
34691SOL    HW111188   1.714   4.854   3.572  1.1673  0.1556  0.1535
34691SOL    HW211189   1.770   4.714   3.559  0.7125  0.0383 -0.6120
34692SOL     OW11190   0.494  11.952   3.982 -0.3169 -0.1264 -0.2876
34692SOL    HW111191   0.508  12.010   3.906 -2.3147 -0.0458 -0.6363
34692SOL    HW211192   0.448  11.877   3.946  1.0356 -1.3396  0.4274
34693SOL     OW11193   5.840   0.520   0.171  0.5493 -0.1402  0.2226
34693SOL    HW111194   5.794   0.523   0.087 -0.3472  0.1780  0.7135
34693SOL    HW211195   5.831   0.609   0.206  0.1122 -0.5137  1.0816
34694SOL     OW11196   6.983   9.391   6.870 -0.4104  0.1584  0.0309
34694SOL    HW111197   6.936   9.342   6.937  0.5291 -1.9237 -0.7707
34694SOL    HW211198   6.945   9.479   6.874 -1.4579 -0.3279  2.1971
34695SOL     OW11199  12.701   7.795   1.860 -0.0256 -0.1452  0.3231
34695SOL    HW111200  12.632   7.822   1.921 -0.7225 -2.3976  0.6386
34695SOL    HW211201  12.754   7.732   1.910  1.5434  0.6102 -0.3082
34696SOL     OW11202  10.654   5.147  12.400  0.1424 -0.2861  0.0190
34696SOL    HW111203  10.590   5.198  12.449  0.7113  2.2008 -1.6291
34696SOL    HW211204  10.738   5.168  12.441  0.1444 -2.3941  1.2500
34697SOL     OW11205   9.389  10.009   8.833  0.0935  0.0255 -0.0027
34697SOL    HW111206   9.314  10.066   8.814 -0.2778 -1.0967 -2.2840
34697SOL    HW211207   9.453  10.066   8.876 -0.4519  2.0835 -1.7522
34698SOL     OW11208   3.644   5.422   1.370  0.4140  0.2371  0.3629
34698SOL    HW111209   3.599   5.484   1.312 -1.0257 -1.3970 -0.3368
34698SOL    HW211210   3.734   5.455   1.374  0.3054  1.0228 -1.9571
34699SOL     OW11211   0.525  10.593   6.238 -0.1702 -0.2670  0.2958
34699SOL    HW111212   0.617  10.613   6.222 -0.1796  0.4587  1.0687
34699SOL    HW211213   0.507  10.630   6.324 -1.1913 -0.3835  0.1459
34700SOL     OW11214  10.323   6.147   1.435 -0.0912  0.5182 -0.0796
34700SOL    HW111215  10.312   6.170   1.527 -2.0037  0.9943 -0.3875
34700SOL    HW211216  10.357   6.227   1.394  3.2396 -0.4246  0.5694
34701SOL     OW11217   2.461   0.188  11.258 -0.0845  0.0768  0.1808
34701SOL    HW111218   2.426   0.221  11.175  0.5013 -0.4412 -0.2857
34701SOL    HW211219   2.387   0.192  11.319 -1.0282 -1.1497 -0.8183
34702SOL     OW11220   2.429   1.915  10.013  0.8589  0.0515  0.1651
34702SOL    HW111221   2.443   1.825  10.043  0.2776 -0.0198  0.2306
34702SOL    HW211222   2.341   1.914   9.975  1.1611  0.4033 -0.5577
34703SOL     OW11223   1.262   7.578   9.432 -0.3028 -0.0483  0.3896
34703SOL    HW111224   1.307   7.630   9.365 -0.6645  0.4827  0.5468
34703SOL    HW211225   1.297   7.490   9.422  0.7519  0.3411  0.4840
34704SOL     OW11226   1.697   0.918   3.291  0.1348 -0.1338  0.2205
34704SOL    HW111227   1.638   0.993   3.288 -0.5142 -0.6547 -0.3240
34704SOL    HW211228   1.781   0.954   3.320 -0.2083  0.7687  0.1084
34705SOL     OW11229  10.768   7.876   5.787 -0.4889 -0.2880  0.6552
34705SOL    HW111230  10.818   7.809   5.834  0.2761 -0.5779 -0.5435
34705SOL    HW211231  10.831   7.916   5.727 -0.8038  1.8038  1.5874
34706SOL     OW11232  10.612   7.948   9.507  0.3579  0.3517  0.3820
34706SOL    HW111233  10.545   8.015   9.498 -1.3247 -1.4998 -2.1931
34706SOL    HW211234  10.578   7.873   9.459  2.7604 -1.9227  1.9347
34707SOL     OW11235   6.377   6.408   7.704 -0.5801  0.7490  0.4446
34707SOL    HW111236   6.355   6.465   7.778 -1.0873  0.2205  0.7041
34707SOL    HW211237   6.470   6.424   7.689 -0.6972  1.5819  0.5663
34708SOL     OW11238   9.372   7.659   3.207  0.2819  0.7535  0.4035
34708SOL    HW111239   9.360   7.682   3.299 -0.3224 -0.9051  0.7841
34708SOL    HW211240   9.410   7.571   3.209  1.1577  1.0686 -0.9437
34709SOL     OW11241   0.320   0.689   7.210  0.2550 -0.2420 -0.1687
34709SOL    HW111242   0.357   0.692   7.122  0.3054 -1.9776 -0.2437
34709SOL    HW211243   0.395   0.695   7.268  0.1550  1.7481 -0.1986
34710SOL     OW11244   4.945   3.560   5.123  0.1863 -0.0963  0.1503
34710SOL    HW111245   4.909   3.592   5.206  0.7765  1.0638 -0.0303
34710SOL    HW211246   5.015   3.621   5.102  1.2266 -1.3904 -0.3200
34711SOL     OW11247   9.871   2.431   3.014 -0.1390  0.3643  0.0459
34711SOL    HW111248   9.853   2.441   3.108  1.4035  0.7063  0.3279
34711SOL    HW211249   9.895   2.339   3.003 -3.0500 -0.4401 -0.5573
34712SOL     OW11250   3.596   4.944   4.526  0.5086 -0.1786  0.7856
34712SOL    HW111251   3.649   4.871   4.557  1.6790 -0.7375 -2.1859
34712SOL    HW211252   3.634   4.967   4.441 -3.5418 -0.1128 -1.2501
34713SOL     OW11253   7.040   9.891  12.281  0.7340 -0.1446 -0.0111
34713SOL    HW111254   7.032   9.950  12.206  0.8178  0.9792  0.8427
34713SOL    HW211255   7.077   9.811  12.245  1.7199  0.7329 -0.9992
34714SOL     OW11256   2.629  10.883   4.601 -0.0868 -0.7006  0.3617
34714SOL    HW111257   2.666  10.971   4.603 -1.0624 -0.2986  1.8609
34714SOL    HW211258   2.574  10.881   4.523 -0.9164  0.3914  0.8989
34715SOL     OW11259   8.610   6.175   3.460 -0.1010  1.0248 -0.1418
34715SOL    HW111260   8.639   6.168   3.551  0.3620  1.2105 -0.2756
34715SOL    HW211261   8.515   6.185   3.466 -0.4362 -1.5260  0.2423
34716SOL     OW11262   4.631   9.852   8.501 -0.3176  0.0787 -0.5375
34716SOL    HW111263   4.636   9.767   8.457 -0.5037 -0.5222  0.5757
34716SOL    HW211264   4.562   9.899   8.455 -1.0961 -0.8616 -0.3561
34717SOL     OW11265   6.982   2.862  10.916 -0.0279 -0.0335  0.1713
34717SOL    HW111266   6.930   2.890  10.991 -0.6786 -0.1707 -0.2186
34717SOL    HW211267   6.966   2.768  10.910 -0.0123 -0.0154 -0.1593
34718SOL     OW11268   9.148   1.155   9.176 -0.2395  0.1199 -0.6351
34718SOL    HW111269   9.152   1.085   9.111  2.1593 -0.5255  0.0966
34718SOL    HW211270   9.157   1.236   9.126  0.2736 -0.2907 -1.2069
34719SOL     OW11271   1.433   6.271   8.536 -0.0652  0.5676 -0.0145
34719SOL    HW111272   1.365   6.338   8.531 -0.8845 -0.2984 -0.9238
34719SOL    HW211273   1.488   6.298   8.610 -1.6871  1.0260  1.0780
34720SOL     OW11274   5.371  11.542   6.481  0.1241  0.1324 -0.0120
34720SOL    HW111275   5.287  11.497   6.471 -0.5368  1.0238  1.3328
34720SOL    HW211276   5.430  11.494   6.423 -1.0120 -1.2775 -0.0616
34721SOL     OW11277  11.635  12.241   5.450 -0.1846 -0.0899  0.0023
34721SOL    HW111278  11.573  12.302   5.411  2.6440  1.9367 -1.6307
34721SOL    HW211279  11.651  12.275   5.538  1.1643  1.4957 -0.8025
34722SOL     OW11280   7.461   0.007   2.629 -0.2285  0.5331  0.3497
34722SOL    HW111281   7.485   0.015   2.536  0.0193 -0.6025  0.3092
34722SOL    HW211282   7.440  -0.085   2.641  0.3488  0.5435  1.5765
34723SOL     OW11283   5.708   4.613   8.175  0.6637  0.4081  0.5440
34723SOL    HW111284   5.678   4.531   8.213  1.0623 -0.5773 -1.1990
34723SOL    HW211285   5.658   4.624   8.095  1.9096  0.9142 -0.2056
34724SOL     OW11286  11.432   6.225   1.426 -0.0631 -0.3088  0.2754
34724SOL    HW111287  11.419   6.319   1.410 -1.3871 -0.3224  1.1669
34724SOL    HW211288  11.374   6.181   1.364  0.5987 -0.5605 -0.1813
34725SOL     OW11289   8.139   2.625   0.976  0.2069 -0.4447  0.7393
34725SOL    HW111290   8.045   2.612   0.968 -0.1801  1.3057  1.7864
34725SOL    HW211291   8.156   2.703   0.923  1.3143 -1.4925 -0.5067
34726SOL     OW11292  10.958   9.055   3.986  0.1110 -0.0222 -0.1813
34726SOL    HW111293  10.887   9.113   3.960  0.3068 -0.5117 -1.9496
34726SOL    HW211294  11.037   9.098   3.953  0.2699 -1.1663 -1.4043
34727SOL     OW11295   1.561   3.744  11.272  0.3698  0.4417  0.0769
34727SOL    HW111296   1.541   3.820  11.326  1.4713  0.8870 -0.1141
34727SOL    HW211297   1.580   3.779  11.185  2.1186  0.1170  0.2838
34728SOL     OW11298   0.026   4.015   5.499 -0.3525  0.4126 -0.2734
34728SOL    HW111299  -0.005   3.983   5.414  0.1096 -0.2852 -0.1821
34728SOL    HW211300   0.027   3.938   5.555  1.4521  0.4193 -0.2461
34729SOL     OW11301   6.547   1.267  12.006 -0.1805 -0.0629 -0.1871
34729SOL    HW111302   6.532   1.282  12.099 -0.1727  0.7491 -0.3130
34729SOL    HW211303   6.558   1.354  11.969  1.2367 -0.4546 -0.7192
34730SOL     OW11304  10.659   2.560   9.066 -0.5563 -0.0271  0.0784
34730SOL    HW111305  10.634   2.649   9.039  0.6038  0.6349  1.0635
34730SOL    HW211306  10.748   2.570   9.100 -0.7490 -1.4112  1.0674
34731SOL     OW11307   5.366   5.209  11.943 -0.1567 -0.4670  0.2667
34731SOL    HW111308   5.410   5.275  11.889 -1.1783  0.5276  0.5995
34731SOL    HW211309   5.306   5.165  11.882  0.3937 -0.9726  0.0847
34732SOL     OW11310  10.525   1.854   4.043 -0.2603  0.2906 -0.5001
34732SOL    HW111311  10.526   1.853   4.138 -1.4049 -3.6801 -0.3639
34732SOL    HW211312  10.446   1.903   4.020 -0.5826  0.3305  0.6275
34733SOL     OW11313   2.474   2.069   7.841  0.0854 -0.1635  0.1774
34733SOL    HW111314   2.481   2.124   7.919  0.4255 -0.3087  0.2518
34733SOL    HW211315   2.539   2.000   7.854 -2.3450 -2.3555  1.4608
34734SOL     OW11316   6.785   9.919   8.081 -0.6163  0.2393  0.2725
34734SOL    HW111317   6.784   9.858   8.007  1.9726  0.3860  0.0504
34734SOL    HW211318   6.732   9.993   8.051  0.0491  0.1158 -1.3109
34735SOL     OW11319   1.594   3.381   8.313 -0.5561 -0.4223  0.1344
34735SOL    HW111320   1.669   3.438   8.331 -1.2022  0.0348  1.5806
34735SOL    HW211321   1.518   3.436   8.334 -1.2154 -1.5694  0.8555
34736SOL     OW11322   1.756   8.328   8.867  0.3023  0.0685  0.7659
34736SOL    HW111323   1.707   8.267   8.922  0.3836 -2.0694 -1.3685
34736SOL    HW211324   1.835   8.280   8.842  1.1179  1.6317  0.1948
34737SOL     OW11325   1.248   9.264   2.276  0.8497 -0.3969  0.1975
34737SOL    HW111326   1.281   9.288   2.362 -0.4785 -0.0427  0.6262
34737SOL    HW211327   1.271   9.339   2.220 -2.2626  1.5439  1.2732
34738SOL     OW11328   8.594   1.437   2.627 -0.1459 -0.5902  0.3674
34738SOL    HW111329   8.582   1.388   2.546  0.4083 -1.9024  1.0543
34738SOL    HW211330   8.506   1.468   2.650 -0.8550 -2.7358  0.8028
34739SOL     OW11331   5.895  11.194   8.392 -0.1564 -0.0680  0.0750
34739SOL    HW111332   5.936  11.220   8.475 -0.2767 -0.8772  0.4016
34739SOL    HW211333   5.968  11.176   8.333 -0.0317 -0.8556  0.4501
34740SOL     OW11334   9.974   5.058   6.595 -0.4659 -0.4873  0.4647
34740SOL    HW111335  10.032   5.108   6.537 -0.1108 -1.2512  0.1420
34740SOL    HW211336   9.892   5.107   6.595 -0.0910  0.1525  0.2504
34741SOL     OW11337   8.154  10.647  10.027 -0.0023  0.4827  0.3068
34741SOL    HW111338   8.190  10.559  10.019 -0.1248  0.5167 -0.6998
34741SOL    HW211339   8.197  10.697   9.957 -0.4121  1.0612  0.4618
34742SOL     OW11340   4.396   5.022   7.614 -0.2696  0.3486  0.1360
34742SOL    HW111341   4.459   4.974   7.561 -0.5800  0.8971 -0.7573
34742SOL    HW211342   4.354   4.955   7.668  1.8343  0.1082  1.5899
34743SOL     OW11343   8.347   9.561   8.239 -0.0624  0.0829  0.2176
34743SOL    HW111344   8.339   9.612   8.320 -0.0942  0.5600 -0.0830
34743SOL    HW211345   8.409   9.492   8.260  0.0424  0.2926  0.6080
34744SOL     OW11346   0.008   9.637   1.662 -0.1735  0.2388 -0.5239
34744SOL    HW111347   0.033   9.569   1.724 -1.2815  0.4056  0.1320
34744SOL    HW211348   0.091   9.672   1.629  0.4298  0.0628  0.7770
34745SOL     OW11349   7.123  12.045   8.160 -0.4375  0.0767 -0.0502
34745SOL    HW111350   7.095  12.045   8.252  0.6682 -0.2352  0.3161
34745SOL    HW211351   7.080  12.121   8.121  0.0565  0.9503  1.0461
34746SOL     OW11352   2.730   5.296   2.057 -0.4858  0.3279 -0.1425
34746SOL    HW111353   2.646   5.267   2.092  0.2335 -0.2320  1.1940
34746SOL    HW211354   2.728   5.270   1.965 -1.6935  0.1554 -0.0836
34747SOL     OW11355  10.435  11.161   8.930  0.2855  0.0521 -0.1339
34747SOL    HW111356  10.417  11.253   8.910 -0.4402 -0.1929 -0.6293
34747SOL    HW211357  10.363  11.134   8.985 -0.5933 -0.7637 -1.6232
34748SOL     OW11358  11.692   0.404   6.591  0.2666  0.3115  0.0865
34748SOL    HW111359  11.627   0.473   6.577  0.1665  0.2706  0.3425
34748SOL    HW211360  11.642   0.332   6.630  0.1490 -0.3127 -1.1620
34749SOL     OW11361   6.123   0.869   1.992 -0.0918 -0.6913  0.1491
34749SOL    HW111362   6.129   0.944   2.050  0.6175  0.9953 -1.9878
34749SOL    HW211363   6.066   0.807   2.039  0.3608  0.5908  2.5353
34750SOL     OW11364  11.495   6.218   3.037 -0.6143 -1.4483 -0.2452
34750SOL    HW111365  11.585   6.228   3.067 -0.2133 -1.8719 -1.2634
34750SOL    HW211366  11.494   6.258   2.950 -1.5813 -0.8357  0.0375
34751SOL     OW11367   8.537   4.253   0.807  0.5300  0.6560 -0.4064
34751SOL    HW111368   8.506   4.341   0.831  1.0600  0.4875  0.9929
34751SOL    HW211369   8.467   4.217   0.754 -0.5424  1.2400  0.5628
34752SOL     OW11370  10.409   2.923   9.269  0.0566  0.3131  0.6512
34752SOL    HW111371  10.352   2.849   9.251 -0.1991  0.2830  1.5280
34752SOL    HW211372  10.496   2.892   9.243 -0.3649  0.5204 -1.1121
34753SOL     OW11373   0.777   5.151   5.604  0.1363  0.3045  0.3718
34753SOL    HW111374   0.701   5.197   5.568  0.6236  0.2584 -0.7704
34753SOL    HW211375   0.741   5.076   5.650 -0.5451  0.6398  0.3933
34754SOL     OW11376   1.545   1.961   8.215 -0.8714 -0.2308  0.4850
34754SOL    HW111377   1.457   1.939   8.182 -1.1674 -0.7188  1.5546
34754SOL    HW211378   1.536   2.051   8.246 -1.0923 -0.3989  0.9148
34755SOL     OW11379  11.969   1.766   3.320  0.1090 -0.3150  0.4547
34755SOL    HW111380  11.930   1.720   3.246 -0.7160 -0.3708  0.9118
34755SOL    HW211381  11.895   1.799   3.370  0.6674  0.4117  0.8302
34756SOL     OW11382   2.979   9.953   7.884 -0.6703  0.0235 -0.0294
34756SOL    HW111383   3.035   9.940   7.960  0.0146 -0.1261 -0.5480
34756SOL    HW211384   3.021  10.024   7.835 -0.5806 -0.5154 -0.7441
34757SOL     OW11385  11.608   8.744   3.042 -0.7689 -0.1444  0.5194
34757SOL    HW111386  11.691   8.791   3.028 -1.8360  1.3858 -1.1092
34757SOL    HW211387  11.563   8.794   3.109 -0.0426 -1.5205  2.1055
34758SOL     OW11388   8.795   3.363   0.052 -0.1475  0.0234  0.6209
34758SOL    HW111389   8.713   3.412   0.061 -1.1546 -1.2710 -0.8651
34758SOL    HW211390   8.847   3.415  -0.009 -1.0182 -0.4530 -0.5773
34759SOL     OW11391   8.721  10.506   7.726  0.0561 -0.4548 -0.2982
34759SOL    HW111392   8.662  10.579   7.746  0.0200 -0.4217 -0.5186
34759SOL    HW211393   8.735  10.512   7.632  0.2544 -0.5833 -0.2770
34760SOL     OW11394   4.833   8.156   0.241  0.0640  0.1840 -0.0277
34760SOL    HW111395   4.912   8.103   0.224  0.4101  0.7237 -0.1377
34760SOL    HW211396   4.823   8.154   0.336  1.1260  1.3727  0.1481
34761SOL     OW11397  12.657   1.100   0.506  0.6817 -0.2386 -0.2306
34761SOL    HW111398  12.681   1.011   0.478 -0.5129 -0.6629  0.0607
34761SOL    HW211399  12.610   1.087   0.588 -0.5862  0.5544 -0.8052
34762SOL     OW11400   7.421   3.311   4.860  0.1073 -0.0754  0.2099
34762SOL    HW111401   7.328   3.306   4.837 -0.2091  0.3773  1.3406
34762SOL    HW211402   7.467   3.292   4.778 -0.9670  1.5177 -0.8167
34763SOL     OW11403   5.108   4.483  12.359  0.8681  0.0398  0.1451
34763SOL    HW111404   5.069   4.412  12.411  1.5327  0.2467  0.9375
34763SOL    HW211405   5.047   4.495  12.286 -1.0178  0.8888  1.7581
34764SOL     OW11406   7.862   9.143   5.434 -0.3319 -0.3822  0.5221
34764SOL    HW111407   7.954   9.126   5.413 -0.3827  0.3309 -0.3332
34764SOL    HW211408   7.824   9.056   5.447 -0.1969 -0.9058 -2.0065
34765SOL     OW11409   7.215  10.419   1.990  0.1894  0.4257 -0.4789
34765SOL    HW111410   7.239  10.339   1.944  1.5507 -0.6442  1.9070
34765SOL    HW211411   7.178  10.389   2.073 -0.8837  2.2689 -0.2373
34766SOL     OW11412   3.342   0.464   2.382 -0.0070  0.1345  0.0536
34766SOL    HW111413   3.317   0.472   2.290  0.2871 -0.7546 -0.1152
34766SOL    HW211414   3.427   0.421   2.380  0.8189  1.6762  0.6878
34767SOL     OW11415   9.261  11.032   0.061  0.2416 -0.1288 -0.1686
34767SOL    HW111416   9.189  11.082   0.023  0.6282  0.0751 -0.6570
34767SOL    HW211417   9.222  10.982   0.132 -0.0339  1.3478  0.7498
34768SOL     OW11418  11.670   9.889   4.660  0.2460  0.4283  0.2465
34768SOL    HW111419  11.691   9.799   4.638  0.7344  0.6735 -0.3033
34768SOL    HW211420  11.739   9.941   4.619 -0.9109  1.1766 -0.8442
34769SOL     OW11421   2.070  11.426  10.662  0.1428  0.0625  0.4475
34769SOL    HW111422   1.988  11.462  10.696 -1.0462 -2.8131  0.8691
34769SOL    HW211423   2.116  11.393  10.738 -0.2429 -1.9615 -0.1315
34770SOL     OW11424   8.955   8.611   3.117 -0.0621 -0.3517  0.0658
34770SOL    HW111425   8.909   8.535   3.151  1.6091 -2.4545 -1.9946
34770SOL    HW211426   8.898   8.645   3.048  0.2327 -1.3038 -0.6698
34771SOL     OW11427   4.881   7.158  12.024  0.5730  0.0744  0.1234
34771SOL    HW111428   4.865   7.221  12.094 -0.5458  0.2506 -0.2674
34771SOL    HW211429   4.940   7.204  11.964  1.8890 -0.2364  1.1306
34772SOL     OW11430   2.680  10.440   3.504 -0.3876  0.5159 -0.1167
34772SOL    HW111431   2.724  10.454   3.420  0.2277  1.6465  0.3689
34772SOL    HW211432   2.662  10.528   3.536 -3.4193  0.1058 -0.4600
34773SOL     OW11433   5.908  10.865   6.776 -0.1080 -0.1090 -0.0204
34773SOL    HW111434   5.821  10.896   6.801  0.5412  0.1431  2.1598
34773SOL    HW211435   5.941  10.931   6.715 -1.0707  0.2661 -0.1476
34774SOL     OW11436   7.569   4.079   3.077 -0.2177  0.0059  0.2611
34774SOL    HW111437   7.544   3.988   3.059 -2.1896  0.8457 -1.8737
34774SOL    HW211438   7.495   4.130   3.045  1.6699  2.4701 -0.4672
34775SOL     OW11439  10.841   2.124  11.257  0.0966 -0.1719 -0.2277
34775SOL    HW111440  10.894   2.204  11.252  1.9839 -1.4180 -1.1319
34775SOL    HW211441  10.869   2.082  11.338 -2.8259  1.2681  1.7171
34776SOL     OW11442   4.370   4.013   5.537 -0.7647  0.1675  0.1222
34776SOL    HW111443   4.277   4.024   5.513 -0.5926 -1.1302 -1.3195
34776SOL    HW211444   4.405   4.102   5.534 -1.6456  0.5119 -0.7875
34777SOL     OW11445  12.533  10.207   3.558 -0.3003  0.0693  0.9016
34777SOL    HW111446  12.488  10.129   3.591 -0.1058 -0.7551 -0.6975
34777SOL    HW211447  12.621  10.201   3.596  0.2704 -1.4492 -0.5324
34778SOL     OW11448   0.498   7.841   3.223 -0.5824  0.3851 -0.5220
34778SOL    HW111449   0.535   7.767   3.271  0.2409  1.6515  0.8716
34778SOL    HW211450   0.563   7.860   3.156 -0.4033  0.3676 -0.3552
34779SOL     OW11451   7.495   4.140  11.290  0.1168  0.4547 -0.1561
34779SOL    HW111452   7.438   4.067  11.266  1.6537 -1.9690  2.7913
34779SOL    HW211453   7.571   4.130  11.232 -0.2447  0.5483 -0.6532
34780SOL     OW11454   8.715  12.446   1.699 -0.2332 -0.5430 -0.3219
34780SOL    HW111455   8.645  12.449   1.634  0.0517 -0.1796 -0.6126
34780SOL    HW211456   8.786  12.397   1.657 -1.4712 -3.8954  1.1286
34781SOL     OW11457   3.638   2.953   8.535  0.6470 -0.0219  0.4704
34781SOL    HW111458   3.731   2.952   8.558  1.6033 -0.4290 -2.9630
34781SOL    HW211459   3.624   3.039   8.496  0.4439 -1.0927 -1.9461
34782SOL     OW11460   6.306  10.202   8.300  0.3153  0.0884  0.1005
34782SOL    HW111461   6.313  10.207   8.396 -0.7176  0.5913  0.1757
34782SOL    HW211462   6.314  10.109   8.280 -1.1697 -0.2492  0.8704
34783SOL     OW11463   6.310   2.670   7.161 -0.3694  0.3025  0.1926
34783SOL    HW111464   6.284   2.719   7.239 -0.6500 -0.7631  0.7894
34783SOL    HW211465   6.406   2.679   7.159 -0.4085  0.8060  0.3310
34784SOL     OW11466   5.632   4.488  10.692 -0.3023  0.3443  0.0288
34784SOL    HW111467   5.634   4.583  10.677 -0.3121  0.3693  0.1783
34784SOL    HW211468   5.565   4.476  10.759 -0.7385  0.1649 -0.4353
34785SOL     OW11469   6.949   9.984   1.663  0.4724  0.0201 -0.1193
34785SOL    HW111470   6.949  10.076   1.691 -0.2949 -0.0502  0.1447
34785SOL    HW211471   6.961   9.934   1.744  0.5842 -0.1212 -0.2226
34786SOL     OW11472   5.184   8.436  11.047  0.0452  0.2757  0.1519
34786SOL    HW111473   5.106   8.489  11.063  0.2241  0.7058 -0.4018
34786SOL    HW211474   5.217   8.465  10.962 -0.3844 -1.3590 -0.6169
34787SOL     OW11475  10.803   0.594   4.961  0.5691 -0.5265 -0.1136
34787SOL    HW111476  10.871   0.662   4.964  1.1949 -1.1734  1.7983
34787SOL    HW211477  10.751   0.615   4.884  0.9218  1.9640  0.2527
34788SOL     OW11478   6.650  10.348   2.859 -0.4171 -0.3958 -0.1184
34788SOL    HW111479   6.660  10.254   2.871 -1.6598 -0.5022  0.2344
34788SOL    HW211480   6.562  10.368   2.893  0.0677  0.9901  0.4100
34789SOL     OW11481   1.731  12.757  11.009 -0.1390  0.3498 -0.1279
34789SOL    HW111482   1.813  12.779  10.966  0.3023  0.2393  0.6331
34789SOL    HW211483   1.735  12.803  11.093 -0.6104 -0.0927  0.1439
34790SOL     OW11484   9.558   8.990   3.656  0.3713 -0.2314 -0.3669
34790SOL    HW111485   9.510   9.073   3.659 -0.8501 -0.9572  0.7293
34790SOL    HW211486   9.526   8.946   3.577 -0.8460 -0.7390  0.3893
34791SOL     OW11487   8.107  11.175  10.174  0.8423  0.2975  0.7406
34791SOL    HW111488   8.097  11.270  10.173  0.9550  0.3364  2.1492
34791SOL    HW211489   8.165  11.157  10.099 -0.5084  1.1438 -0.5603
34792SOL     OW11490   0.929  11.946   5.193 -0.0763  0.0666  0.6728
34792SOL    HW111491   0.848  11.909   5.156 -0.0009  1.6571 -1.2244
34792SOL    HW211492   0.905  12.034   5.220  1.0342  0.5829  0.0245
34793SOL     OW11493   9.169   0.775   6.296  0.1473  0.2168  0.3452
34793SOL    HW111494   9.216   0.766   6.213 -1.4207  0.6241 -0.6159
34793SOL    HW211495   9.111   0.850   6.283 -2.2359 -1.4646  0.7501
34794SOL     OW11496   9.232   3.860   7.948  0.2551  0.7429  0.1187
34794SOL    HW111497   9.267   3.922   7.885  2.2789 -2.0270 -1.7483
34794SOL    HW211498   9.290   3.867   8.024  2.2689 -0.6203 -1.1757
34795SOL     OW11499  12.167   8.410   4.979 -0.5344 -0.0377 -0.3159
34795SOL    HW111500  12.076   8.388   4.997 -0.3854 -1.4737 -1.1932
34795SOL    HW211501  12.217   8.347   5.031 -0.0525 -0.0806 -0.8339
34796SOL     OW11502   0.854   7.554   2.084 -0.5912 -0.6575  0.2748
34796SOL    HW111503   0.937   7.535   2.127  1.1843  2.1303 -1.6075
34796SOL    HW211504   0.863   7.515   1.997 -0.9728  0.2205 -0.1666
34797SOL     OW11505   4.854   7.190   3.056  0.1701  0.1372 -0.6112
34797SOL    HW111506   4.768   7.149   3.065  1.1620 -2.2749 -1.3460
34797SOL    HW211507   4.858   7.253   3.128 -2.5732  1.0689 -1.1799
34798SOL     OW11508   1.079   9.828   9.700  0.0836  0.4526  0.0383
34798SOL    HW111509   1.079   9.758   9.766  2.9802  0.5258  0.2452
34798SOL    HW211510   1.093   9.908   9.751  1.1529  0.6464 -0.5328
34799SOL     OW11511   7.008   4.268  12.131 -0.5895  0.0632  0.2283
34799SOL    HW111512   7.021   4.278  12.036 -0.4097 -1.7273  0.0275
34799SOL    HW211513   7.092   4.234  12.163 -1.0780 -0.6373  0.8006
34800SOL     OW11514   4.654   3.916   8.638 -0.4730 -0.2689 -0.1586
34800SOL    HW111515   4.705   3.955   8.710  1.0411 -0.6721 -0.9774
34800SOL    HW211516   4.629   3.991   8.584  0.6763 -0.1840 -0.6169
34801SOL     OW11517   6.980   9.596   5.060  0.1322  0.3877  0.4653
34801SOL    HW111518   7.067   9.598   5.021  0.2536 -1.5414  0.5511
34801SOL    HW211519   6.941   9.680   5.035  2.0236  1.3291  0.4988
34802SOL     OW11520   9.659   8.748  12.840  0.3375 -0.4724 -0.1937
34802SOL    HW111521   9.598   8.819  12.865  0.3586 -0.5669  0.1281
34802SOL    HW211522   9.735   8.761  12.896  1.0790  0.2915 -1.3351
34803SOL     OW11523   3.181   8.742   6.283  0.1358  0.0090 -0.0726
34803SOL    HW111524   3.210   8.651   6.292  0.0390  0.0507  0.7451
34803SOL    HW211525   3.181   8.758   6.189 -2.3594 -1.6430 -0.4510
34804SOL     OW11526   8.779   6.832   4.891 -0.3871  0.1885  0.5125
34804SOL    HW111527   8.706   6.840   4.952 -1.3333 -2.5894 -0.1184
34804SOL    HW211528   8.835   6.764   4.929  0.8766  0.9025  0.0050
34805SOL     OW11529   4.875   0.665   5.383 -0.0754 -0.3518  0.1092
34805SOL    HW111530   4.815   0.721   5.334  0.1864  1.2113  1.4859
34805SOL    HW211531   4.946   0.723   5.408  0.8914 -1.6458  0.4436
34806SOL     OW11532   7.575   4.447   3.142 -0.5250  0.2087 -0.3210
34806SOL    HW111533   7.488   4.487   3.129 -0.5460 -0.0364 -0.9565
34806SOL    HW211534   7.635   4.509   3.101 -0.2734  0.9166  1.0522
34807SOL     OW11535  11.782  10.466   7.224  0.4453  0.2136 -0.7624
34807SOL    HW111536  11.723  10.528   7.267 -2.2449 -1.0663 -2.3280
34807SOL    HW211537  11.745  10.456   7.136 -0.3451 -4.7688 -0.1415
34808SOL     OW11538   1.406  10.718   5.883  0.0841 -0.2128  0.0143
34808SOL    HW111539   1.420  10.760   5.968  2.0547 -0.7349  0.0026
34808SOL    HW211540   1.475  10.754   5.827 -1.0719 -0.0130 -1.3209
34809SOL     OW11541   8.713   0.034   9.028 -0.2683  0.5664 -0.7138
34809SOL    HW111542   8.636   0.025   9.085  2.5262  0.5631  3.5374
34809SOL    HW211543   8.733  -0.055   9.001 -1.7774  0.5882 -2.0416
34810SOL     OW11544  11.487  10.241   3.029  0.6711  0.2816 -0.3068
34810SOL    HW111545  11.484  10.335   3.047 -0.9304  0.2170 -0.0661
34810SOL    HW211546  11.443  10.231   2.945  3.4867  0.0175 -1.8522
34811SOL     OW11547   4.120   2.099   4.433  0.8949  0.0794  0.3063
34811SOL    HW111548   4.107   2.072   4.342  1.5171 -1.0913  0.5496
34811SOL    HW211549   4.190   2.164   4.429  0.3328  0.6676 -0.1390
34812SOL     OW11550  12.744   2.098   2.481  0.1534  0.3239  0.0035
34812SOL    HW111551  12.723   2.019   2.532  1.3916  0.5700  0.9741
34812SOL    HW211552  12.791   2.065   2.404  0.5073  0.0822  0.3158
34813SOL     OW11553   7.170   1.884  11.674  0.1597 -0.3490  0.2168
34813SOL    HW111554   7.198   1.912  11.587  0.7826  2.3428  1.1578
34813SOL    HW211555   7.211   1.948  11.733  0.3073 -2.4667  2.5690
34814SOL     OW11556  12.157   5.989   8.880  0.2056  0.1278  0.2616
34814SOL    HW111557  12.164   6.051   8.808 -0.2168  1.6970  1.5148
34814SOL    HW211558  12.242   5.944   8.882 -0.1248 -0.6851 -1.8025
34815SOL     OW11559  11.350  11.347   7.845 -0.3073  0.2234  0.1896
34815SOL    HW111560  11.296  11.268   7.853 -0.2948  0.1064 -0.7050
34815SOL    HW211561  11.321  11.404   7.916  1.7152 -1.7372  2.7962
34816SOL     OW11562   5.366   4.732  11.598  0.0494  0.0355 -0.3525
34816SOL    HW111563   5.272   4.722  11.582 -0.3588  0.8336  1.3146
34816SOL    HW211564   5.407   4.668  11.541 -1.5730 -0.9877 -0.4235
34817SOL     OW11565   2.015   1.347  11.411  0.5911 -0.2731 -0.0709
34817SOL    HW111566   1.931   1.321  11.449 -0.1945  0.6060 -1.1449
34817SOL    HW211567   1.993   1.381  11.324  2.3009 -1.9057 -1.2012
34818SOL     OW11568  12.915   9.183  12.046 -0.0827  0.4550 -0.5800
34818SOL    HW111569  12.943   9.211  12.133  0.4509 -1.6632 -0.0285
34818SOL    HW211570  12.819   9.186  12.050 -0.0677  0.1613  0.1500
34819SOL     OW11571  10.561   5.883   3.671  0.1656  0.6648  0.2662
34819SOL    HW111572  10.544   5.976   3.685 -1.3476  0.3345  0.8135
34819SOL    HW211573  10.478   5.848   3.637  0.7519 -0.4594 -0.0682
34820SOL     OW11574  12.356   0.976  10.670 -0.5532 -0.4101  0.1566
34820SOL    HW111575  12.330   0.976  10.762  1.1948  0.7175  0.7073
34820SOL    HW211576  12.325   1.060  10.637 -0.6399 -0.5499 -0.1129
34821SOL     OW11577   6.071   7.055   7.698  0.3916 -0.4148 -0.1096
34821SOL    HW111578   6.098   7.116   7.767 -2.0316 -0.3993  0.9220
34821SOL    HW211579   6.130   6.980   7.708 -0.7359 -1.0332  2.9689
34822SOL     OW11580   0.299   5.556  11.159 -0.1640 -0.0167  0.5438
34822SOL    HW111581   0.272   5.476  11.202  0.1121  0.2030  1.1299
34822SOL    HW211582   0.394   5.547  11.148 -0.0511  0.4606  1.1021
34823SOL     OW11583   2.143   5.027   2.749  0.2184 -0.0506 -0.5143
34823SOL    HW111584   2.232   5.062   2.752  0.0621  0.3959 -1.0559
34823SOL    HW211585   2.147   4.946   2.800  0.5139  0.9092  1.0445
34824SOL     OW11586   7.208   5.987   9.682  0.1089 -0.7178 -0.3981
34824SOL    HW111587   7.141   6.045   9.719  0.6631 -1.6838  2.3364
34824SOL    HW211588   7.159   5.927   9.626 -0.8536  0.5518 -0.9613
34825SOL     OW11589  12.659   9.913   9.417 -0.1533  0.8777 -0.3606
34825SOL    HW111590  12.568   9.892   9.395  0.0788 -3.0859  1.6332
34825SOL    HW211591  12.711   9.849   9.370  1.4194  1.4476  0.5125
34826SOL     OW11592   0.566  12.257   2.157  0.3269  0.4481  0.1548
34826SOL    HW111593   0.620  12.183   2.129  0.7946  0.2105  1.6036
34826SOL    HW211594   0.542  12.237   2.247 -2.5231  0.3798 -0.5210
34827SOL     OW11595   5.244   1.421   0.680 -0.2283 -0.4429  0.0095
34827SOL    HW111596   5.222   1.385   0.594  0.6518  0.5049 -0.6325
34827SOL    HW211597   5.276   1.346   0.731 -2.6619 -1.4137  0.2220
34828SOL     OW11598  11.774   7.679   4.019 -0.2667 -0.3010 -0.5405
34828SOL    HW111599  11.686   7.716   4.014 -0.2173 -0.2105 -0.7402
34828SOL    HW211600  11.830   7.754   4.037 -0.2810 -0.4212  0.0043
34829SOL     OW11601   2.613  11.670  11.173 -0.3052  0.6124  0.3103
34829SOL    HW111602   2.624  11.639  11.083 -0.4452  0.6609  0.2764
34829SOL    HW211603   2.645  11.598  11.227 -0.3645  0.5220  0.2251
34830SOL     OW11604  10.440   1.889  10.975 -0.2325  0.4380 -0.8026
34830SOL    HW111605  10.519   1.907  11.027 -1.0491  1.8123 -0.0009
34830SOL    HW211606  10.467   1.819  10.915  0.9500 -0.7123  0.9568
34831SOL     OW11607   0.822   0.999  12.514  0.8034  0.0845 -0.1417
34831SOL    HW111608   0.865   0.919  12.485 -1.1671 -0.7476 -0.9474
34831SOL    HW211609   0.785   0.978  12.599 -0.1326 -0.0618 -0.5657
34832SOL     OW11610  11.065  11.400   8.299 -0.1677 -0.0468 -0.1476
34832SOL    HW111611  10.994  11.362   8.247  0.8001  0.6219 -2.1028
34832SOL    HW211612  11.030  11.484   8.330 -0.8856 -0.6135  0.6121
34833SOL     OW11613  10.969   8.717   4.103 -0.2462  0.1978  0.5621
34833SOL    HW111614  11.045   8.758   4.062 -0.2610 -0.7058 -0.4327
34833SOL    HW211615  11.001   8.633   4.134 -0.6762  0.0995  0.7411
34834SOL     OW11616   8.535  10.076  11.732 -0.1683 -0.0039  0.1983
34834SOL    HW111617   8.516   9.983  11.716 -0.5108  0.1457 -0.2851
34834SOL    HW211618   8.548  10.113  11.645 -0.3637  0.4753  0.3707
34835SOL     OW11619   7.494   6.999   2.768 -0.4703  0.1668  0.1414
34835SOL    HW111620   7.469   7.088   2.745 -2.1986  0.1489  1.7282
34835SOL    HW211621   7.508   7.001   2.862  0.5306 -1.0167  0.0495
34836SOL     OW11622  10.366   4.332   4.420  0.0712 -0.0365  0.0345
34836SOL    HW111623  10.306   4.279   4.473 -0.9037 -0.0454 -1.0525
34836SOL    HW211624  10.331   4.327   4.331  1.1936  0.6836 -0.4701
34837SOL     OW11625   6.407   0.671   0.127 -0.2337 -0.5279 -0.0827
34837SOL    HW111626   6.438   0.623   0.204 -1.1244  1.4689  1.5954
34837SOL    HW211627   6.481   0.727   0.103 -0.2063 -0.6358 -0.2501
34838SOL     OW11628  10.062   3.432   6.089 -0.2090 -0.3767  0.0211
34838SOL    HW111629  10.069   3.345   6.050 -2.0127  0.0215 -1.3095
34838SOL    HW211630   9.975   3.463   6.064  0.4664  1.9183  0.2560
34839SOL     OW11631   6.783   5.433   7.476 -0.5027  0.1281 -0.1194
34839SOL    HW111632   6.877   5.422   7.488 -0.4685  0.5456  0.0096
34839SOL    HW211633   6.749   5.446   7.565 -0.6957 -0.1039 -0.1563
34840SOL     OW11634   5.520   2.078   2.443 -0.4344  0.4556 -0.0103
34840SOL    HW111635   5.580   2.100   2.372  0.0354  1.2098  0.6057
34840SOL    HW211636   5.464   2.155   2.452  0.0639  0.7208  0.9925
34841SOL     OW11637   2.220  11.764   1.957 -0.0885 -0.0691 -0.5418
34841SOL    HW111638   2.306  11.767   1.998 -0.2285 -2.0287  0.0252
34841SOL    HW211639   2.162  11.730   2.025 -1.0448 -0.0497 -1.3165
34842SOL     OW11640   7.892   2.178   6.938 -0.7159  0.6824  0.5099
34842SOL    HW111641   7.969   2.216   6.897 -0.4224  0.0035  0.4089
34842SOL    HW211642   7.924   2.143   7.021 -0.8889  0.3139  0.4242
34843SOL     OW11643   2.509   0.950   3.514  0.1559  0.2030 -0.1052
34843SOL    HW111644   2.445   0.958   3.443  1.5860  0.2358 -1.4352
34843SOL    HW211645   2.455   0.947   3.593 -1.7918 -3.1923 -1.3073
34844SOL     OW11646   2.877  11.243   8.453  0.2623 -0.2898 -0.0042
34844SOL    HW111647   2.939  11.282   8.515  1.1083  0.2700 -1.1740
34844SOL    HW211648   2.802  11.302   8.453  0.9788  0.6476 -0.7694
34845SOL     OW11649   5.181  12.504   6.806 -0.2299  0.0129 -0.0496
34845SOL    HW111650   5.124  12.555   6.864  0.3989  0.4748  0.1664
34845SOL    HW211651   5.133  12.500   6.723 -1.5156 -1.3166  0.6908
34846SOL     OW11652   8.142  10.391   1.209 -0.1094  0.4343  0.2462
34846SOL    HW111653   8.218  10.341   1.179  1.7902  1.7276  2.4859
34846SOL    HW211654   8.133  10.366   1.301 -3.1551 -0.4597 -0.1916
34847SOL     OW11655   6.942   3.284  10.991  0.2467  0.0818  0.2980
34847SOL    HW111656   6.851   3.273  10.965  0.2201  0.6393  0.1340
34847SOL    HW211657   6.940   3.352  11.058  0.3510 -1.1201  1.5688
34848SOL     OW11658  10.727   7.621   5.997  0.1869  0.3218 -0.1857
34848SOL    HW111659  10.792   7.673   6.043  0.1844 -1.1726  1.6493
34848SOL    HW211660  10.643   7.656   6.027  0.1623  0.8111 -0.8221
34849SOL     OW11661   9.292   3.930  12.613 -0.2275  0.4678 -0.2102
34849SOL    HW111662   9.232   3.984  12.563  0.3676  1.8067  0.4730
34849SOL    HW211663   9.279   3.841  12.579 -1.3336  1.0062 -1.2461
34850SOL     OW11664   3.823   1.852   0.204 -0.2557  0.0485 -0.0479
34850SOL    HW111665   3.918   1.862   0.206 -0.1452 -0.5609 -1.1541
34850SOL    HW211666   3.797   1.847   0.296  0.7811  0.1612  0.2654
34851SOL     OW11667   7.794  12.851   7.862  0.0720 -0.3770  0.1522
34851SOL    HW111668   7.876  12.825   7.905  1.0172 -0.3974 -1.5558
34851SOL    HW211669   7.785  12.944   7.882  1.5371  0.0852 -1.1406
34852SOL     OW11670  11.587   5.327   0.820 -0.1293 -0.5642 -0.0068
34852SOL    HW111671  11.571   5.384   0.744  1.7910 -0.7867 -0.6347
34852SOL    HW211672  11.551   5.376   0.894 -2.1646 -0.3938 -1.0286
34853SOL     OW11673   2.202  12.416   3.403  0.7276  0.0829 -0.0759
34853SOL    HW111674   2.282  12.410   3.351  1.6123  0.9006  1.1205
34853SOL    HW211675   2.222  12.481   3.471 -0.4387 -0.7586  1.1446
34854SOL     OW11676  11.739   0.033   1.491 -0.1520  0.2422 -0.3094
34854SOL    HW111677  11.721   0.125   1.469  0.5025  1.1229  2.4771
34854SOL    HW211678  11.789   0.000   1.415 -0.2144  2.2353 -1.2908
34855SOL     OW11679   6.660   4.679   7.672  0.1517 -0.2051 -0.3343
34855SOL    HW111680   6.620   4.695   7.757 -0.3883  0.6802 -0.7371
34855SOL    HW211681   6.724   4.609   7.688  0.3643  0.2442  0.8760
34856SOL     OW11682   1.036   0.750  10.964 -0.1305  0.7315 -0.1436
34856SOL    HW111683   1.034   0.739  11.059 -0.7978  1.9759  0.0079
34856SOL    HW211684   1.122   0.788  10.946  0.6860 -1.0346 -0.2651
34857SOL     OW11685   1.968   0.139  11.532  0.2872  0.2615 -0.3174
34857SOL    HW111686   1.953   0.234  11.531 -3.1614 -0.1163 -3.0504
34857SOL    HW211687   1.915   0.107  11.605 -2.6818  0.1383 -2.3576
34858SOL     OW11688   9.814   0.109  12.183  0.9353  0.4319  0.3009
34858SOL    HW111689   9.791   0.100  12.275 -1.3778 -1.5217 -0.3612
34858SOL    HW211690   9.774   0.192  12.156  2.0727  1.2809  1.1056
34859SOL     OW11691   1.691  10.409   6.570 -0.5955  0.6896 -0.5781
34859SOL    HW111692   1.784  10.394   6.588 -0.9845 -1.2870  0.0083
34859SOL    HW211693   1.672  10.351   6.496 -1.9845 -1.1849  1.1502
34860SOL     OW11694  12.869  12.911   2.107 -0.3391  0.2437 -0.0291
34860SOL    HW111695  12.853  12.985   2.048 -1.0383 -1.5078 -2.1974
34860SOL    HW211696  12.924  12.852   2.056 -2.8001 -2.3943  0.0789
34861SOL     OW11697  10.138   8.930   1.287  0.3622 -0.2467 -0.7789
34861SOL    HW111698  10.151   8.851   1.340 -3.0445  0.8798  2.1557
34861SOL    HW211699  10.184   8.999   1.334 -0.6112  0.3365 -0.6649
34862SOL     OW11700   9.004  10.533   9.432  0.2825  0.0138 -0.9964
34862SOL    HW111701   8.935  10.598   9.438  0.1557 -0.2087  0.0790
34862SOL    HW211702   8.963  10.459   9.386 -0.2867 -0.2107 -0.1577
34863SOL     OW11703   9.128   9.247  12.696  0.1490  0.0259  0.3297
34863SOL    HW111704   9.055   9.297  12.732  1.1574  1.2711  0.7296
34863SOL    HW211705   9.091   9.202  12.620 -1.1288  0.2885  0.7696
34864SOL     OW11706   5.076  12.662   3.779  0.1360  0.5055 -0.1927
34864SOL    HW111707   5.056  12.581   3.826  1.5150  0.9666  1.2719
34864SOL    HW211708   5.131  12.634   3.706 -0.9384 -0.0597 -0.8240
34865SOL     OW11709  10.352   8.142  11.809  0.4686 -0.3138  0.1906
34865SOL    HW111710  10.301   8.153  11.728  1.4058  0.3598 -0.3294
34865SOL    HW211711  10.387   8.053  11.803 -0.3310 -0.6543  0.3820
34866SOL     OW11712   3.491   9.520   8.952 -0.2737  0.0614 -0.0787
34866SOL    HW111713   3.430   9.459   8.995  0.4678  0.0162  0.9464
34866SOL    HW211714   3.577   9.495   8.986  0.0878  1.4064  0.0374
34867SOL     OW11715   5.724  10.172   2.228  0.0241 -0.3914  0.3967
34867SOL    HW111716   5.705  10.185   2.136  1.3848  0.4010  0.2007
34867SOL    HW211717   5.813  10.137   2.230  0.0971 -0.1862  1.4083
34868SOL     OW11718   9.974   1.016   9.597  0.5843 -0.6105  0.0843
34868SOL    HW111719   9.889   1.026   9.553  0.6817 -0.3163 -0.0356
34868SOL    HW211720  10.009   1.105   9.601  0.9921 -0.7640 -0.0745
34869SOL     OW11721   6.183  11.936   5.971  0.0580 -0.4495 -0.4672
34869SOL    HW111722   6.191  12.025   6.004  0.0787 -0.1189 -1.3272
34869SOL    HW211723   6.193  11.880   6.048 -2.5817  0.3374  0.5748
34870SOL     OW11724   0.637   8.485   0.946 -0.7363 -0.7870  0.4387
34870SOL    HW111725   0.667   8.397   0.970  0.7159 -0.5260 -0.3205
34870SOL    HW211726   0.678   8.543   1.010 -0.4635 -0.5206  0.0281
34871SOL     OW11727  12.117   5.391   8.404  0.0777  0.2584  0.0033
34871SOL    HW111728  12.138   5.391   8.497 -1.7780  0.9151  0.4536
34871SOL    HW211729  12.086   5.480   8.386 -1.2782 -0.3545 -0.8156
34872SOL     OW11730   3.888   8.389  11.155 -0.6849 -0.7137 -0.4477
34872SOL    HW111731   3.880   8.385  11.059 -0.6892  1.1952 -0.5480
34872SOL    HW211732   3.957   8.453  11.171 -2.1557  0.6303  0.8291
34873SOL     OW11733   5.799   4.291   3.024 -0.2197 -0.3373  0.1789
34873SOL    HW111734   5.809   4.199   3.048 -0.0046 -0.2015  0.6265
34873SOL    HW211735   5.787   4.336   3.108  0.3502  0.1271  0.0184
34874SOL     OW11736   5.317  10.754   1.117  0.7322 -0.5807  0.2217
34874SOL    HW111737   5.336  10.822   1.182 -0.5004 -0.4765  0.5002
34874SOL    HW211738   5.357  10.786   1.036 -0.4975  0.8910  0.1478
34875SOL     OW11739   3.805  10.856   2.561  0.5479 -0.4013 -0.4380
34875SOL    HW111740   3.849  10.884   2.641 -0.3473  1.5776 -0.5741
34875SOL    HW211741   3.725  10.910   2.558  1.1629  0.4946 -3.2700
34876SOL     OW11742  12.845   0.028  12.357 -0.1980 -0.3998 -0.5521
34876SOL    HW111743  12.892   0.091  12.412  1.0487 -3.0956  1.7060
34876SOL    HW211744  12.756   0.064  12.351  0.2254  1.1426  1.3806
34877SOL     OW11745   6.439   5.772   5.253 -0.0880  0.2390  0.3776
34877SOL    HW111746   6.467   5.777   5.345 -0.9193 -0.7176  0.7076
34877SOL    HW211747   6.496   5.833   5.207  1.7437 -0.7493  1.2064
34878SOL     OW11748   3.472   6.483  10.681 -0.3297  0.2433 -0.1395
34878SOL    HW111749   3.436   6.567  10.652 -1.1445  0.3893  1.1682
34878SOL    HW211750   3.398   6.439  10.723  0.4557 -0.4593  0.5518
34879SOL     OW11751  12.402   4.009   3.865  0.1693 -0.2180  0.1455
34879SOL    HW111752  12.464   4.063   3.815 -1.4273  1.9032  0.3427
34879SOL    HW211753  12.416   4.034   3.956 -0.1979 -0.5564  0.2978
34880SOL     OW11754   1.762  12.331   5.417 -0.1423 -0.2064  0.0042
34880SOL    HW111755   1.719  12.327   5.331 -0.5647 -0.7640  0.2338
34880SOL    HW211756   1.847  12.370   5.399 -0.9204  1.3984 -0.3959
34881SOL     OW11757   6.109   9.048  11.728  0.4103 -0.2455 -0.2279
34881SOL    HW111758   6.193   9.054  11.683 -0.9600 -1.8773 -3.3434
34881SOL    HW211759   6.075   9.138  11.726  1.5484  0.2149  0.0262
34882SOL     OW11760   7.748   0.248   1.095  0.2752  0.4180  0.4257
34882SOL    HW111761   7.752   0.152   1.098  1.3040  0.4372 -0.1492
34882SOL    HW211762   7.782   0.276   1.180  0.2621  0.2830  0.4752
34883SOL     OW11763   3.464   7.782   6.029 -0.0798 -0.0173 -0.5802
34883SOL    HW111764   3.422   7.701   5.998 -2.2185  1.4006 -1.6268
34883SOL    HW211765   3.391   7.841   6.046  1.4122  1.4751  0.8555
34884SOL     OW11766   4.549   1.987   0.147  0.4554  0.4806 -0.0356
34884SOL    HW111767   4.641   1.962   0.152  0.5695  0.9103 -0.0089
34884SOL    HW211768   4.505   1.932   0.212  0.8961  1.2342  0.9207
34885SOL     OW11769   2.326   0.739   5.878 -0.3059 -0.2708  0.4816
34885SOL    HW111770   2.301   0.778   5.794 -1.2141 -1.3885  0.2040
34885SOL    HW211771   2.247   0.746   5.932  0.2498  0.3739  1.2317
34886SOL     OW11772   0.914   1.701   4.751 -0.3849 -0.0384  0.8220
34886SOL    HW111773   1.000   1.716   4.788 -1.5055  1.0695  3.2016
34886SOL    HW211774   0.909   1.760   4.676  0.8776 -0.0971  0.6733
34887SOL     OW11775   3.008   5.597   2.841 -0.0411 -0.3939  0.5363
34887SOL    HW111776   3.024   5.569   2.931  0.2894 -0.5396  0.4345
34887SOL    HW211777   2.935   5.544   2.812 -1.5250  1.0701  1.3907
34888SOL     OW11778   9.938   9.973   3.833 -0.1977 -0.5687  0.4506
34888SOL    HW111779   9.932   9.966   3.929  0.3977  0.6480  0.6006
34888SOL    HW211780  10.027  10.004   3.818 -0.2782 -0.7931 -0.5097
34889SOL     OW11781   3.680   0.865   9.554  0.4780 -0.6259 -0.3999
34889SOL    HW111782   3.723   0.942   9.591  2.0062 -2.4386  1.9022
34889SOL    HW211783   3.594   0.896   9.528 -0.1526  1.2889  3.2371
34890SOL     OW11784   7.104  10.482  12.591  0.5427 -0.2536  0.7140
34890SOL    HW111785   7.185  10.441  12.561 -0.3109 -1.3193 -0.2297
34890SOL    HW211786   7.081  10.544  12.522  0.8833  0.5337  1.2910
34891SOL     OW11787  10.464   7.229  12.249  0.7179  0.5375  0.0513
34891SOL    HW111788  10.431   7.303  12.300 -3.3130 -1.3366  0.5539
34891SOL    HW211789  10.497   7.168  12.315 -0.4612 -0.0575  0.1228
34892SOL     OW11790   4.554   5.539   4.337 -0.3335 -0.0840  0.6737
34892SOL    HW111791   4.537   5.630   4.312 -2.5412 -0.9349 -1.3296
34892SOL    HW211792   4.559   5.541   4.433 -0.6758  2.0699  0.7013
34893SOL     OW11793   9.816   1.337   1.979 -0.6794 -0.1423  0.1134
34893SOL    HW111794   9.781   1.423   2.004 -1.1131 -0.2460 -0.1428
34893SOL    HW211795   9.884   1.320   2.045 -2.7084 -1.0163  2.0922
34894SOL     OW11796   1.166   2.991  11.655  0.2492 -0.4076 -0.0093
34894SOL    HW111797   1.243   2.950  11.693  2.0253  1.6819 -1.1157
34894SOL    HW211798   1.144   2.937  11.579  0.9557 -0.7269  0.0095
34895SOL     OW11799   0.056   7.825   6.704 -0.8890 -0.0155 -0.0881
34895SOL    HW111800   0.119   7.765   6.664 -0.6987 -0.3660  0.7080
34895SOL    HW211801   0.013   7.771   6.771 -1.6939  0.3550 -0.2993
34896SOL     OW11802   7.502   9.852   0.169  0.3816 -0.1293 -0.9076
34896SOL    HW111803   7.501   9.829   0.262 -1.7860 -2.9751 -1.4929
34896SOL    HW211804   7.428   9.911   0.158  1.5022  1.3964 -0.6736
34897SOL     OW11805   9.842   1.435   2.870 -0.0446  0.1463  0.1019
34897SOL    HW111806   9.832   1.364   2.807  2.4113 -0.1902 -0.0170
34897SOL    HW211807   9.821   1.394   2.955  2.3948 -1.1225  0.1772
34898SOL     OW11808   9.091   7.269   3.736 -0.5543 -0.1582 -0.5544
34898SOL    HW111809   9.123   7.243   3.649  0.0998  0.7444 -0.5930
34898SOL    HW211810   9.001   7.236   3.739 -0.4058 -0.6649 -1.3645
34899SOL     OW11811   5.492   7.923   4.834 -0.2876 -0.2809 -0.1600
34899SOL    HW111812   5.410   7.874   4.832 -0.4815  0.0398 -0.0597
34899SOL    HW211813   5.487   7.983   4.760 -1.3545  1.6710  1.3996
34900SOL     OW11814  12.618  10.935   6.679  0.3890  0.0698  0.2877
34900SOL    HW111815  12.544  10.995   6.672 -0.2053 -0.8274 -2.3349
34900SOL    HW211816  12.673  10.972   6.748 -0.3854  3.1431 -0.5881
34901SOL     OW11817   8.259   2.343  10.785 -0.3894  0.2266 -0.9049
34901SOL    HW111818   8.239   2.254  10.756 -1.3349  0.3032 -0.5078
34901SOL    HW211819   8.178   2.392  10.774 -0.3723  0.6113  0.4613
34902SOL     OW11820   3.290   8.659   4.640  0.0638 -0.3835  0.0615
34902SOL    HW111821   3.369   8.697   4.678 -0.8284  1.7303 -0.0337
34902SOL    HW211822   3.232   8.734   4.625 -1.6420 -1.7589 -0.6461
34903SOL     OW11823   4.432   0.622   3.050 -0.2079 -0.0182  0.3143
34903SOL    HW111824   4.453   0.595   3.139 -0.6119  0.1821  0.4690
34903SOL    HW211825   4.372   0.695   3.060  0.3779  0.5396 -0.1108
34904SOL     OW11826   1.328   0.093  10.200  0.1880  0.2612  0.5061
34904SOL    HW111827   1.262   0.136  10.145 -0.6859 -1.2301  0.3169
34904SOL    HW211828   1.401   0.154  10.202  0.3660  0.3262 -2.4968
34905SOL     OW11829   2.837   1.125   7.750 -0.1868  0.0272  0.3665
34905SOL    HW111830   2.824   1.054   7.687 -0.6204 -0.2022  0.7119
34905SOL    HW211831   2.884   1.084   7.822  0.3678  0.3054  0.1702
34906SOL     OW11832   1.478   3.406  10.157 -0.3433 -0.0094  0.2267
34906SOL    HW111833   1.413   3.385  10.224 -1.0213  0.6398 -0.2082
34906SOL    HW211834   1.427   3.448  10.086  0.5396  0.4960 -0.1289
34907SOL     OW11835   6.254  11.164  10.576  0.7144 -0.6260  0.1626
34907SOL    HW111836   6.292  11.196  10.494  2.0947 -1.7597  0.3229
34907SOL    HW211837   6.195  11.094  10.549  0.0861 -0.0719  0.0560
34908SOL     OW11838   9.280   6.969   8.194  0.2061 -0.0231 -0.6032
34908SOL    HW111839   9.222   6.936   8.125 -1.0372 -1.7660  1.1563
34908SOL    HW211840   9.245   7.056   8.215 -0.4381 -0.1657 -1.0354
34909SOL     OW11841   5.204   4.933   7.233  0.4348  0.1999  0.1550
34909SOL    HW111842   5.143   4.884   7.178  0.6992 -1.1095  0.9789
34909SOL    HW211843   5.278   4.953   7.176  0.5163 -0.7648 -0.0970
34910SOL     OW11844   0.904   1.572   4.986 -0.0524  0.2798 -0.3757
34910SOL    HW111845   0.911   1.481   4.958  1.3460 -0.0093  0.8003
34910SOL    HW211846   0.897   1.622   4.905  0.4385 -0.7708 -1.0897
34911SOL     OW11847   5.264   4.822   6.671 -0.2827 -0.1053  0.3246
34911SOL    HW111848   5.210   4.859   6.601  0.0173  0.2906  0.2986
34911SOL    HW211849   5.310   4.749   6.630  0.1186  0.3115  0.0289
34912SOL     OW11850   0.815   4.834   1.689  0.0153 -0.2432  0.2940
34912SOL    HW111851   0.822   4.738   1.690 -0.5263 -0.2851  0.4178
34912SOL    HW211852   0.723   4.851   1.666  0.1035  0.2441  0.3010
34913SOL     OW11853   2.458  10.829  11.423  0.6020 -0.3358 -0.1124
34913SOL    HW111854   2.541  10.846  11.466  1.4909 -2.0386 -1.0676
34913SOL    HW211855   2.414  10.765  11.478  0.6992 -0.7392 -0.4966
34914SOL     OW11856   0.421   4.237   2.895 -0.0713  0.2241  0.3247
34914SOL    HW111857   0.383   4.295   2.829  1.5001  0.0707 -0.7705
34914SOL    HW211858   0.423   4.290   2.975  0.6124  1.4252 -0.4562
34915SOL     OW11859  12.761   2.783   3.896 -0.3045 -0.4546 -0.1267
34915SOL    HW111860  12.852   2.810   3.901 -0.1422 -1.0722  0.3205
34915SOL    HW211861  12.722   2.814   3.978 -0.6876  0.4804 -0.6495
34916SOL     OW11862  10.998   6.858  11.215  0.0718 -0.3787 -0.2132
34916SOL    HW111863  11.048   6.857  11.134  0.8877  1.3626  0.2239
34916SOL    HW211864  11.063   6.843  11.284 -0.5386 -1.3790  0.1700
34917SOL     OW11865   5.900   2.441   0.895  0.2043 -0.3899 -0.7093
34917SOL    HW111866   5.930   2.516   0.948  1.5787  0.2307 -2.2892
34917SOL    HW211867   5.969   2.376   0.906 -0.2940 -0.8859 -0.4866
34918SOL     OW11868  10.937  11.157   5.441 -0.0478 -0.3435 -0.0679
34918SOL    HW111869  10.919  11.064   5.453  1.1081 -0.5503  0.2809
34918SOL    HW211870  10.904  11.199   5.521 -1.5486 -0.2920 -0.7023
34919SOL     OW11871   9.088   8.018   0.713 -0.1282 -0.1922 -0.3042
34919SOL    HW111872   9.148   7.963   0.661  0.2121  0.3420 -0.4811
34919SOL    HW211873   9.100   7.988   0.803 -0.0028 -0.4687 -0.4112
34920SOL     OW11874   7.836   3.377   6.519 -0.4650 -0.2784 -0.3572
34920SOL    HW111875   7.878   3.319   6.455  1.2823  0.9968 -0.4287
34920SOL    HW211876   7.872   3.351   6.603  0.0119  0.4049 -0.3403
34921SOL     OW11877   0.662  11.509  12.004  0.1574  0.0132 -0.7962
34921SOL    HW111878   0.611  11.509  12.085  0.0655 -0.2587 -0.8542
34921SOL    HW211879   0.732  11.447  12.020  1.4536  1.5831 -0.1108
34922SOL     OW11880  11.955   1.241   0.704  0.8953  0.1079 -0.3556
34922SOL    HW111881  11.930   1.232   0.796 -0.3987  0.3033 -0.6797
34922SOL    HW211882  12.013   1.167   0.688 -0.4599 -1.0952  0.0874
34923SOL     OW11883   7.228  11.253   6.942 -0.0150 -0.3684  0.6182
34923SOL    HW111884   7.298  11.293   6.994 -1.1545 -0.1364  2.0392
34923SOL    HW211885   7.205  11.173   6.990  0.2738 -1.2367 -0.6457
34924SOL     OW11886   2.418   5.958   1.304  0.2735  0.5456 -0.0469
34924SOL    HW111887   2.512   5.967   1.288  0.3478 -1.2113 -0.7316
34924SOL    HW211888   2.381   5.937   1.218 -0.7819  1.3483  0.1882
34925SOL     OW11889  10.667   5.137   3.684  0.2425  0.2500 -0.0178
34925SOL    HW111890  10.641   5.229   3.683 -0.6105  0.0982  2.0089
34925SOL    HW211891  10.635   5.101   3.602 -0.0843  1.5796 -0.4958
34926SOL     OW11892   8.632  11.036   2.440  0.5533  0.0599 -0.2185
34926SOL    HW111893   8.710  11.009   2.487  0.7065 -1.7069 -1.4061
34926SOL    HW211894   8.605  11.117   2.483  2.1704 -0.0866  1.1653
34927SOL     OW11895  11.599   9.681   6.156  0.0715 -0.4814 -0.0136
34927SOL    HW111896  11.667   9.701   6.091 -1.5463 -0.5424 -1.8215
34927SOL    HW211897  11.630   9.723   6.237  1.5168  0.8045 -1.1677
34928SOL     OW11898   7.527   9.689  10.155  0.0938 -0.1388  0.5943
34928SOL    HW111899   7.445   9.689  10.203 -0.1781  0.3796  0.1361
34928SOL    HW211900   7.501   9.672  10.064  0.4935  0.0058  0.4517
34929SOL     OW11901   0.914   0.455   5.028  0.2467 -0.0469  0.0761
34929SOL    HW111902   0.906   0.369   5.070  1.4545  0.1824  0.8320
34929SOL    HW211903   0.973   0.439   4.954 -0.6596 -0.1350 -0.6509
34930SOL     OW11904  11.601   3.972   8.793 -0.5073  0.1635 -0.2468
34930SOL    HW111905  11.528   3.917   8.821 -0.6258  0.9592  1.0661
34930SOL    HW211906  11.577   3.998   8.703 -2.2335  1.0191  0.4049
34931SOL     OW11907   3.680   8.903  11.526 -0.0131 -0.1889  0.6045
34931SOL    HW111908   3.592   8.887  11.559 -0.2117 -1.7017 -0.5605
34931SOL    HW211909   3.721   8.960  11.591 -1.3358 -0.7082  1.9242
34932SOL     OW11910  12.196   0.985   6.580  0.1803 -0.5024 -0.1104
34932SOL    HW111911  12.206   1.077   6.603 -1.5216 -0.1684 -0.5762
34932SOL    HW211912  12.180   0.985   6.486 -3.2461 -0.8871  0.3399
34933SOL     OW11913   9.441   8.582   5.852 -0.1232  0.3312  0.0097
34933SOL    HW111914   9.490   8.570   5.770 -0.9545  0.1677 -0.4785
34933SOL    HW211915   9.508   8.595   5.918  0.6121 -0.4842 -0.5398
34934SOL     OW11916  11.459   9.789   6.752 -0.3624  0.0480 -0.5230
34934SOL    HW111917  11.440   9.769   6.660  0.7076  2.4645 -1.3677
34934SOL    HW211918  11.441   9.883   6.759 -0.8159 -0.1588  1.8842
34935SOL     OW11919  11.940   9.830   3.316 -0.0633 -0.4631  0.1307
34935SOL    HW111920  11.994   9.805   3.391  2.2755 -1.0919 -1.6292
34935SOL    HW211921  11.921   9.922   3.329  1.2389 -0.2890  0.9833
34936SOL     OW11922  11.471  11.070  12.121  0.2487 -0.1472  0.6158
34936SOL    HW111923  11.560  11.039  12.136  0.9385  1.1639 -0.4971
34936SOL    HW211924  11.448  11.038  12.035 -0.8112 -1.4038  1.3365
34937SOL     OW11925   7.375   4.441   1.806  0.0080  0.5085 -0.3556
34937SOL    HW111926   7.405   4.365   1.756  0.6429  0.6152 -0.1429
34937SOL    HW211927   7.406   4.426   1.895  0.0810  0.9874 -0.2951
34938SOL     OW11928  11.032  12.681  10.349  0.7008 -0.1040  0.0809
34938SOL    HW111929  11.032  12.730  10.431 -1.9253 -0.5281  0.4129
34938SOL    HW211930  11.052  12.591  10.375 -1.6307 -0.5471  0.5609
34939SOL     OW11931   8.373   7.007   9.362 -0.1486  0.3000 -0.0892
34939SOL    HW111932   8.458   7.023   9.403  0.0501  0.2497 -0.4698
34939SOL    HW211933   8.339   7.094   9.342  0.2326  0.3071 -0.7597
34940SOL     OW11934   7.538   5.335   2.919 -0.4153  0.2731  0.1269
34940SOL    HW111935   7.595   5.263   2.946  1.3300  1.7706  0.6514
34940SOL    HW211936   7.520   5.319   2.827 -0.4674 -1.0650  0.3564
34941SOL     OW11937   6.013   1.434   9.059 -0.5751 -0.5664 -0.2488
34941SOL    HW111938   6.044   1.514   9.103  0.3539 -0.7036 -0.6169
34941SOL    HW211939   5.999   1.461   8.968  0.5287 -0.9840 -0.5655
34942SOL     OW11940  11.292   6.343   3.794  0.3245  0.0441 -0.2550
34942SOL    HW111941  11.212   6.300   3.824  0.6788 -1.1749 -0.9763
34942SOL    HW211942  11.296   6.323   3.700  0.4628  1.7698 -0.6480
34943SOL     OW11943   4.218  10.570  12.716 -0.0343 -0.0614  0.4680
34943SOL    HW111944   4.298  10.557  12.767  1.0885  1.7177 -0.7531
34943SOL    HW211945   4.238  10.534  12.630 -0.5115  0.5008  0.1173
34944SOL     OW11946  12.769  11.159   6.493 -0.2468 -0.0546 -0.5983
34944SOL    HW111947  12.765  11.216   6.570  1.5369  0.5567 -0.9008
34944SOL    HW211948  12.790  11.073   6.527 -2.2605 -0.4373 -0.1967
34945SOL     OW11949   7.777  10.569   5.360 -0.8100  0.1337  0.1363
34945SOL    HW111950   7.728  10.589   5.441  0.3369 -1.7788  1.3702
34945SOL    HW211951   7.851  10.629   5.362 -0.2574 -0.5648  1.0325
34946SOL     OW11952   8.933   4.482  10.709 -0.9456 -0.1545  0.0262
34946SOL    HW111953   8.892   4.462  10.793  0.7921  1.6643  1.4047
34946SOL    HW211954   8.889   4.561  10.679  0.3969  0.9067  0.7476
34947SOL     OW11955   9.441  12.442   4.570  0.3425  0.0286  0.1833
34947SOL    HW111956   9.526  12.466   4.533 -0.0263  1.4291  0.2074
34947SOL    HW211957   9.459  12.364   4.623  1.0922 -1.3965 -2.0164
34948SOL     OW11958   3.316  11.731   8.017  0.1007  0.3063  0.2709
34948SOL    HW111959   3.348  11.661   8.074  0.0115  0.3211  0.3385
34948SOL    HW211960   3.389  11.792   8.010  0.5042 -0.2529 -0.5324
34949SOL     OW11961   4.068   6.987   0.188 -1.1034 -0.5030  0.2809
34949SOL    HW111962   4.141   7.045   0.210 -1.0582 -0.9350  1.3827
34949SOL    HW211963   4.108   6.917   0.137 -0.8431 -0.4408  0.3977
34950SOL     OW11964   3.344   2.458   5.562  0.4008  0.0549  0.7245
34950SOL    HW111965   3.426   2.455   5.513  1.1727  0.3087  1.9781
34950SOL    HW211966   3.297   2.533   5.524  0.6615 -0.1924 -0.1071
34951SOL     OW11967   8.868   1.737  10.932  0.2871  0.2036  0.3131
34951SOL    HW111968   8.889   1.813  10.877 -0.6333  0.4672  0.3203
34951SOL    HW211969   8.940   1.734  10.995  0.5979  0.7676 -0.0011
34952SOL     OW11970  12.064   6.074   4.267 -0.1691  0.7056 -0.0177
34952SOL    HW111971  12.052   6.121   4.184 -0.9758 -0.0574 -0.3445
34952SOL    HW211972  12.145   6.024   4.255 -0.7842 -0.1414 -0.7062
34953SOL     OW11973  12.025  12.002   7.388  0.3262 -0.4912  0.0937
34953SOL    HW111974  12.023  11.921   7.336 -0.5944 -0.1678 -0.3852
34953SOL    HW211975  12.103  12.048   7.357  0.0013 -0.4824 -0.7292
34954SOL     OW11976  10.825   1.420   6.103  0.0140 -0.0935  0.2883
34954SOL    HW111977  10.738   1.456   6.123 -0.9894 -1.7806 -0.8614
34954SOL    HW211978  10.832   1.425   6.008  0.7282 -0.9594  0.2856
34955SOL     OW11979   9.289  12.429   6.580  0.4239  0.3977 -0.1264
34955SOL    HW111980   9.238  12.371   6.637  1.2026 -1.5852 -1.3350
34955SOL    HW211981   9.231  12.447   6.505  0.4651  0.5461 -0.1237
34956SOL     OW11982  11.194   1.025   8.221 -0.3264 -0.3053 -0.4342
34956SOL    HW111983  11.236   0.990   8.300  1.2586 -0.0995 -1.1301
34956SOL    HW211984  11.188   1.119   8.236  1.4793 -0.0267 -1.1479
34957SOL     OW11985   1.950  11.414  11.641 -0.5633 -0.1540  0.1869
34957SOL    HW111986   1.883  11.374  11.696 -1.8473 -0.0106 -1.2135
34957SOL    HW211987   1.917  11.502  11.622 -0.4661 -0.4050 -1.2854
34958SOL     OW11988  11.320  11.610  11.555 -0.0981 -0.3786 -0.2678
34958SOL    HW111989  11.305  11.560  11.636  0.2931  2.2986  1.5785
34958SOL    HW211990  11.409  11.588  11.529 -0.9070 -2.8783 -1.2968
34959SOL     OW11991   9.585   7.458   6.778 -0.1605 -0.1516 -0.0874
34959SOL    HW111992   9.626   7.381   6.816  1.9479  0.9225 -0.0501
34959SOL    HW211993   9.504   7.470   6.829  0.4367 -1.2320  1.1624
34960SOL     OW11994   1.359   2.220   6.186 -0.3480 -0.1431  0.2649
34960SOL    HW111995   1.322   2.166   6.116  0.5316 -0.7137  0.2389
34960SOL    HW211996   1.367   2.161   6.260 -1.2682  0.4595  0.8624
34961SOL     OW11997   9.086  12.536   6.438  0.5721 -0.6067  0.3330
34961SOL    HW111998   9.065  12.627   6.463  1.6830  0.3443 -1.9197
34961SOL    HW211999   9.007  12.487   6.460 -0.7691  1.2579 -0.0176
34962SOL     OW12000   3.622   3.758  11.320  0.2587  0.2515  0.2528
34962SOL    HW112001   3.594   3.778  11.409  1.3648 -2.2054  1.2441
34962SOL    HW212002   3.610   3.663  11.312  3.9969 -0.2942 -0.7465
34963SOL     OW12003   8.595   0.970   0.339 -0.0213 -0.4776  0.5319
34963SOL    HW112004   8.668   0.987   0.400 -0.4330  1.3958  0.5683
34963SOL    HW212005   8.521   1.015   0.379 -0.9832 -1.5492 -0.0086
34964SOL     OW12006  12.771   0.016  11.053 -0.0962 -0.2812 -0.3909
34964SOL    HW112007  12.689  -0.022  11.021  0.6656 -3.1324  0.7223
34964SOL    HW212008  12.781  -0.020  11.141  1.8320  0.8944 -0.0649
34965SOL     OW12009  10.796   5.293  12.719  0.1502  0.3993 -0.3534
34965SOL    HW112010  10.860   5.314  12.787 -1.1995 -0.8772  1.4067
34965SOL    HW212011  10.723   5.354  12.735 -1.1609 -1.3971  0.8928
34966SOL     OW12012   8.842   3.883   8.754  0.3725 -0.1636 -0.0970
34966SOL    HW112013   8.762   3.920   8.716 -0.5122 -0.8901  0.9879
34966SOL    HW212014   8.812   3.835   8.831  1.7385 -1.3541 -0.2672
34967SOL     OW12015   9.491   8.331   9.554 -0.5208 -0.1526 -0.2945
34967SOL    HW112016   9.447   8.361   9.474 -1.8873 -0.2182  0.4053
34967SOL    HW212017   9.547   8.405   9.578  0.1775 -0.2591 -1.4734
34968SOL     OW12018   0.991   0.498  12.740  0.5025 -0.1568  0.4692
34968SOL    HW112019   1.018   0.418  12.785  0.3283  1.2676  3.3287
34968SOL    HW212020   1.067   0.556  12.745 -0.1961  0.7648  0.7446
34969SOL     OW12021   8.470  12.713  10.356 -0.6480  0.2763 -0.3807
34969SOL    HW112022   8.547  12.681  10.308 -1.4108 -1.8300 -0.2689
34969SOL    HW212023   8.487  12.689  10.447 -1.6678 -0.7391 -0.4387
34970SOL     OW12024   5.101   3.801   6.272  0.3998  0.0078 -0.7067
34970SOL    HW112025   5.030   3.827   6.212 -0.9428 -0.1037  0.7749
34970SOL    HW212026   5.164   3.757   6.215  0.6597  2.5180 -2.5572
34971SOL     OW12027  11.202   1.837  12.706  0.2504 -0.3907  0.0482
34971SOL    HW112028  11.206   1.874  12.794  0.7039 -0.8403  0.2222
34971SOL    HW212029  11.203   1.742  12.719  1.2843 -0.4674 -0.4750
34972SOL     OW12030   3.519   8.984  11.324 -0.4371 -0.4981 -0.4201
34972SOL    HW112031   3.565   9.030  11.254 -1.2187 -0.3448 -0.8479
34972SOL    HW212032   3.583   8.976  11.394 -0.3913  1.6690 -0.1475
34973SOL     OW12033   8.257   4.866  10.184 -0.0087 -0.0030 -0.0573
34973SOL    HW112034   8.335   4.840  10.232  0.5542  0.4941 -0.7023
34973SOL    HW212035   8.240   4.793  10.124 -0.5360 -0.4873  0.6664
34974SOL     OW12036   5.565   7.538  10.604  0.1752  0.4252  0.1372
34974SOL    HW112037   5.573   7.590  10.683  1.2860  0.3478  0.0882
34974SOL    HW212038   5.493   7.579  10.555 -1.4168 -0.3194  1.7594
34975SOL     OW12039   9.608   1.515   1.413  0.3240  0.3822 -0.5840
34975SOL    HW112040   9.654   1.431   1.416  1.2988  0.8668 -1.1144
34975SOL    HW212041   9.623   1.553   1.499 -3.2413 -1.4975  1.0629
34976SOL     OW12042   2.664  11.157   4.637 -0.0652 -0.1230  0.3216
34976SOL    HW112043   2.706  11.184   4.555  0.7485  1.6048  1.2551
34976SOL    HW212044   2.635  11.239   4.677 -3.3814 -1.1638  0.2824
34977SOL     OW12045  12.809   9.183   1.341 -0.1511 -0.2979 -0.2813
34977SOL    HW112046  12.896   9.146   1.330 -0.8550 -1.8063 -1.1872
34977SOL    HW212047  12.773   9.137   1.417 -0.3560 -0.0550 -0.2282
34978SOL     OW12048  12.379  10.529  10.251  0.2592 -0.1134  0.0024
34978SOL    HW112049  12.324  10.557  10.178  3.0085 -0.7962 -2.5125
34978SOL    HW212050  12.378  10.603  10.311 -2.7456  0.1721 -0.2311
34979SOL     OW12051   5.869   0.178  11.348  0.2301  0.6021 -0.0730
34979SOL    HW112052   5.816   0.174  11.268  0.8900 -0.5101 -0.4808
34979SOL    HW212053   5.913   0.093  11.351  0.5430  0.7918  1.2571
34980SOL     OW12054   2.002   0.147   7.830  0.0374 -0.5003 -0.0292
34980SOL    HW112055   1.993   0.206   7.905 -1.0462 -1.4148  0.5850
34980SOL    HW212056   1.933   0.174   7.770  0.0821 -0.6048 -0.1280
34981SOL     OW12057  12.106  11.529   8.486 -0.7598 -0.4830  0.0838
34981SOL    HW112058  12.137  11.507   8.574  0.1663 -0.7915 -0.3090
34981SOL    HW212059  12.010  11.525   8.492 -0.7198 -0.0906  1.1747
34982SOL     OW12060   5.194   8.070   4.228  0.3588 -0.3063 -0.2519
34982SOL    HW112061   5.168   7.995   4.282  0.5665 -1.6850 -1.9963
34982SOL    HW212062   5.215   8.139   4.292  0.2967 -1.7525  1.4087
34983SOL     OW12063  10.519   8.296   5.416 -0.8102  0.6559  1.1758
34983SOL    HW112064  10.562   8.349   5.483  0.6561 -0.7398  1.4127
34983SOL    HW212065  10.566   8.213   5.417 -2.4996 -0.3813  0.2670
34984SOL     OW12066   2.145   2.284  12.884  0.1842  0.6898  0.3355
34984SOL    HW112067   2.235   2.289  12.852 -0.6223 -1.7378 -2.6913
34984SOL    HW212068   2.101   2.361  12.847  0.5702  0.9203  0.3557
34985SOL     OW12069  11.092  10.177  12.922 -0.0985  0.6526 -0.2462
34985SOL    HW112070  11.054  10.128  12.995 -1.2043 -0.1775 -1.3325
34985SOL    HW212071  11.175  10.210  12.956 -0.5895  0.3040  1.3808
34986SOL     OW12072   3.022   2.093   9.425 -0.0758 -0.3267  0.0009
34986SOL    HW112073   3.116   2.110   9.424  0.4681 -2.8973 -1.4896
34986SOL    HW212074   2.992   2.119   9.338 -0.6086 -0.1107  0.2483
34987SOL     OW12075   7.466   1.876  10.733 -0.2083 -0.1060 -0.5809
34987SOL    HW112076   7.549   1.831  10.747 -0.3363 -0.7119 -1.6902
34987SOL    HW212077   7.438   1.849  10.646 -2.4285 -1.2820  0.4207
34988SOL     OW12078   5.111   3.370   9.348  0.2273 -0.0253 -0.3252
34988SOL    HW112079   5.108   3.405   9.437  0.3094 -0.5821 -0.0992
34988SOL    HW212080   5.086   3.278   9.358  1.0379 -0.2965 -0.7612
34989SOL     OW12081   3.447  11.120   2.760 -0.0514 -0.1330  0.6609
34989SOL    HW112082   3.464  11.129   2.854  0.8523  1.1734  0.4073
34989SOL    HW212083   3.477  11.203   2.723 -0.7634 -0.4771 -0.7385
34990SOL     OW12084   8.425   0.038   4.262  0.7257 -0.0696  0.3197
34990SOL    HW112085   8.444  -0.052   4.238  1.0250  0.5110 -1.8389
34990SOL    HW212086   8.329   0.044   4.259  0.6540 -0.5166  1.3597
34991SOL     OW12087   1.859  10.060   0.057  0.4392  0.8520  0.1022
34991SOL    HW112088   1.862   9.968   0.083  1.5725  0.9499  0.3386
34991SOL    HW212089   1.866  10.109   0.139 -0.3701  1.1611 -0.0015
34992SOL     OW12090  11.227   5.488   9.086  0.4376  0.5963 -0.0889
34992SOL    HW112091  11.144   5.527   9.061  1.5432  2.6083 -0.9012
34992SOL    HW212092  11.233   5.501   9.180 -0.5197 -0.3721  0.1262
34993SOL     OW12093   7.737   7.131   5.725 -0.5908  0.1299 -0.1182
34993SOL    HW112094   7.831   7.144   5.710 -0.8259  0.1880 -1.7263
34993SOL    HW212095   7.724   7.036   5.714 -0.5316 -0.0546  1.3284
34994SOL     OW12096   5.153   7.525   2.375  0.8198  0.4232  0.3042
34994SOL    HW112097   5.093   7.450   2.386 -0.7671  1.6486  0.3898
34994SOL    HW212098   5.181   7.546   2.464  0.2293  0.7325  0.4216
34995SOL     OW12099  10.633   0.024   6.510  0.4127 -0.2697  0.0612
34995SOL    HW112100  10.693   0.093   6.480  0.2174  0.1205  0.5463
34995SOL    HW212101  10.590  -0.007   6.430  0.4009  0.2753 -0.1481
34996SOL     OW12102  12.325  10.732   3.161  0.3229 -0.3029 -0.1114
34996SOL    HW112103  12.410  10.701   3.194 -0.2021 -0.2842  1.3289
34996SOL    HW212104  12.341  10.749   3.068  1.7748 -0.7448  0.0210
34997SOL     OW12105   7.570   0.154   7.791  0.5061  0.2715  0.0778
34997SOL    HW112106   7.499   0.152   7.727 -0.7931  0.9357  1.4336
34997SOL    HW212107   7.627   0.226   7.763 -0.0227  0.5218 -0.3570
34998SOL     OW12108   4.089  11.706   3.823  0.2569 -0.4950 -0.3674
34998SOL    HW112109   4.176  11.738   3.844  0.1340 -0.5400  0.2304
34998SOL    HW212110   4.049  11.777   3.771  0.4632 -0.2569 -0.2021
34999SOL     OW12111   3.856   6.440   1.309  0.2360 -0.6452 -0.1653
34999SOL    HW112112   3.810   6.402   1.384  1.1204 -1.2991  0.0726
34999SOL    HW212113   3.935   6.479   1.347 -0.2940  0.8099 -0.5140
35000SOL     OW12114   0.158   7.414  10.778 -0.2274 -0.3136 -0.0477
35000SOL    HW112115   0.201   7.347  10.830  0.7311 -0.6078 -1.1943
35000SOL    HW212116   0.141   7.372  10.693 -1.1088  0.3791 -0.2336
35001SOL     OW12117   3.445  11.786   0.278  0.1883  0.0664  0.2579
35001SOL    HW112118   3.462  11.695   0.302  1.9069  0.6785  1.5862
35001SOL    HW212119   3.370  11.811   0.332  1.0715  0.0429  1.5381
35002SOL     OW12120   7.648   0.436  10.244  0.1940 -0.1557  0.0909
35002SOL    HW112121   7.684   0.524  10.232  0.1320 -0.2503 -0.8348
35002SOL    HW212122   7.578   0.429  10.179  0.4077 -1.0074 -0.0545
35003SOL     OW12123   7.036   1.784   2.234  0.4341  0.5001  0.1026
35003SOL    HW112124   7.034   1.748   2.323 -0.7171  0.8572  0.2389
35003SOL    HW212125   6.999   1.714   2.180 -0.4709  0.9288  0.1602
35004SOL     OW12126   0.820   5.968   8.761  0.0758 -0.1969  0.2002
35004SOL    HW112127   0.761   5.896   8.740  1.4217 -1.2807 -0.0363
35004SOL    HW212128   0.825   5.967   8.857  1.5348 -1.7009  0.1586
35005SOL     OW12129   1.111   2.592   6.311  0.2891 -0.4222 -0.0811
35005SOL    HW112130   1.181   2.590   6.376  2.4892 -0.0049 -2.2744
35005SOL    HW212131   1.035   2.626   6.358  1.5842 -0.7138  2.3747
35006SOL     OW12132   7.975   0.844   2.897 -0.1263 -0.0911 -0.0262
35006SOL    HW112133   8.007   0.788   2.968 -1.2632 -0.2514  0.3791
35006SOL    HW212134   8.032   0.823   2.823  0.2889 -0.8390  0.4881
35007SOL     OW12135   7.782  10.282   6.902  0.1539 -0.2698 -0.1508
35007SOL    HW112136   7.850  10.338   6.866 -0.6117  0.8565  0.1090
35007SOL    HW212137   7.828  10.201   6.926  1.8356  1.1951  1.9589
35008SOL     OW12138   2.119   5.485   8.993 -0.3746  0.1211 -0.4079
35008SOL    HW112139   2.181   5.416   8.968  1.0391  1.4183 -0.6043
35008SOL    HW212140   2.154   5.564   8.953 -0.8345  1.3434  1.5115
35009SOL     OW12141   9.458   7.542  12.230 -0.1507  0.2326 -0.0222
35009SOL    HW112142   9.532   7.482  12.236 -0.5756 -0.1980  1.3087
35009SOL    HW212143   9.409   7.513  12.154  1.3963  0.9592 -1.3586
35010SOL     OW12144   0.362   1.838   0.259  0.9341  0.0618 -0.6324
35010SOL    HW112145   0.281   1.813   0.217  2.0028 -0.6220 -2.3891
35010SOL    HW212146   0.395   1.757   0.298  0.0488  0.6466  1.4831
35011SOL     OW12147   2.967   6.000   7.494  0.3196  0.2889 -0.3086
35011SOL    HW112148   3.059   5.987   7.516 -0.0910  0.9910  2.0966
35011SOL    HW212149   2.960   6.094   7.474 -0.4333  1.1995  3.3673
35012SOL     OW12150  10.795   0.038   9.686 -0.3963 -0.2775  0.3751
35012SOL    HW112151  10.726  -0.027   9.673  0.8560 -1.5238 -0.3415
35012SOL    HW212152  10.806   0.078   9.600  1.5117 -1.9416 -0.2318
35013SOL     OW12153   1.389  12.050   0.474  0.2133  0.7729  0.5722
35013SOL    HW112154   1.465  12.105   0.493  0.2737  0.8036  0.2475
35013SOL    HW212155   1.349  12.090   0.397 -0.5079  1.1392  1.1289
35014SOL     OW12156  12.897   4.161  10.856  0.1950 -0.2154 -0.2989
35014SOL    HW112157  12.840   4.219  10.906  1.4044  0.6640  0.1079
35014SOL    HW212158  12.843   4.084  10.838  0.0725 -1.2381  3.5465
35015SOL     OW12159   7.895   7.905  11.555 -0.1266 -0.2317  0.4632
35015SOL    HW112160   7.859   7.978  11.605  1.1120  0.9454 -0.2898
35015SOL    HW212161   7.977   7.883  11.600 -1.3175 -2.4322  1.7638
35016SOL     OW12162   0.699   1.581  11.918 -0.7922  0.1053 -0.0468
35016SOL    HW112163   0.649   1.661  11.933 -2.3525 -0.6729 -0.8699
35016SOL    HW212164   0.663   1.545  11.837 -1.1463 -2.1807  1.0679
35017SOL     OW12165   2.672   4.134   4.783 -0.3746  0.4825  0.2128
35017SOL    HW112166   2.585   4.169   4.802  0.4765  3.0649 -0.3498
35017SOL    HW212167   2.660   4.082   4.703 -1.3059  1.3114 -0.2075
35018SOL     OW12168  12.479   3.100   6.159  0.7102  0.1607 -0.2020
35018SOL    HW112169  12.503   3.012   6.189 -0.0360 -0.3271 -0.9860
35018SOL    HW212170  12.524   3.109   6.075 -2.5695 -1.2417 -2.2984
35019SOL     OW12171   7.026   0.674   8.850 -0.0358  0.5363 -0.2084
35019SOL    HW112172   7.003   0.748   8.907 -1.0217 -0.3482  0.5838
35019SOL    HW212173   7.108   0.700   8.808  0.7707  1.1906  1.6740
35020SOL     OW12174   4.531   8.671   4.293  0.4215  0.3134 -0.5937
35020SOL    HW112175   4.611   8.700   4.337  0.9139 -3.3832  1.3047
35020SOL    HW212176   4.462   8.727   4.330  1.7505  1.9441 -0.4477
35021SOL     OW12177   1.287   0.038   2.909  0.0156  0.0167 -0.2842
35021SOL    HW112178   1.306   0.016   2.818  0.5925 -0.4495 -0.0601
35021SOL    HW212179   1.262   0.131   2.906  0.8172  0.2337 -0.8192
35022SOL     OW12180   5.201  12.284   4.235 -0.6359  0.0683  0.1470
35022SOL    HW112181   5.244  12.341   4.172 -0.2878  0.0579  0.3700
35022SOL    HW212182   5.238  12.310   4.320 -0.0618 -0.8625  0.1900
35023SOL     OW12183   5.461   6.115   4.252 -0.2115  0.1907  0.0883
35023SOL    HW112184   5.518   6.067   4.192  0.2447  1.1168 -0.2242
35023SOL    HW212185   5.391   6.150   4.196 -0.7489 -0.3901  0.3720
35024SOL     OW12186   5.734  10.497  12.498  0.0846 -0.7708  0.7090
35024SOL    HW112187   5.752  10.499  12.592  0.5869 -1.4628  0.6421
35024SOL    HW212188   5.641  10.514  12.491  0.5675  2.6002  1.1103
35025SOL     OW12189   2.434   2.091   5.554 -0.3654 -0.3399 -0.0121
35025SOL    HW112190   2.512   2.138   5.526 -1.4518  0.4970 -1.8113
35025SOL    HW212191   2.446   2.002   5.522  0.5734 -0.6766  1.2028
35026SOL     OW12192   4.056   4.384  11.097  0.4535  0.1528  0.1860
35026SOL    HW112193   4.028   4.301  11.058  4.0249 -1.2075  0.1812
35026SOL    HW212194   4.133   4.410  11.046 -0.4236  3.4653  0.3046
35027SOL     OW12195   1.314  11.958  12.322 -0.1929 -0.2531 -0.1861
35027SOL    HW112196   1.388  12.013  12.297  1.6442 -2.0573  0.9521
35027SOL    HW212197   1.244  12.019  12.344  1.5156  1.5762  0.3872
35028SOL     OW12198   0.706   2.182  10.678  0.4111  0.0268  0.0595
35028SOL    HW112199   0.642   2.135  10.732  0.3726  1.9380  1.8038
35028SOL    HW212200   0.760   2.113  10.640  0.8249 -1.4732  3.0565
35029SOL     OW12201   6.718   6.973   5.612 -0.1673 -0.4319  0.1375
35029SOL    HW112202   6.757   6.990   5.526 -0.2433  1.8083  0.4729
35029SOL    HW212203   6.629   6.941   5.593 -1.5531  3.4159 -0.7810
35030SOL     OW12204   6.049  10.435  12.804 -0.2489  0.4966 -0.3237
35030SOL    HW112205   6.098  10.450  12.885 -0.7169 -1.0157  0.2677
35030SOL    HW212206   6.116  10.417  12.739  0.0649 -2.2634  0.6260
35031SOL     OW12207   2.507   0.958  10.993 -0.1670  0.3184  0.2019
35031SOL    HW112208   2.578   0.898  10.972 -1.4750 -1.0795 -0.3955
35031SOL    HW212209   2.479   0.993  10.908 -0.4090  0.6011  0.3967
35032SOL     OW12210   0.459   7.242  12.055  0.6352  0.5173 -0.4615
35032SOL    HW112211   0.402   7.285  11.991  0.0665  0.8158  0.2322
35032SOL    HW212212   0.543   7.287  12.046 -0.0262  2.0062  0.4517
35033SOL     OW12213   8.521   0.441   0.727 -0.3287  0.0702  0.1236
35033SOL    HW112214   8.518   0.533   0.701 -1.7135 -0.1086 -0.4102
35033SOL    HW212215   8.608   0.411   0.699  0.6141  1.4941  1.3743
35034SOL     OW12216  10.510   1.484   2.422  1.0010  0.0613 -0.3943
35034SOL    HW112217  10.603   1.470   2.435  1.3710  0.7140 -2.1085
35034SOL    HW212218  10.492   1.450   2.334 -0.7897 -1.8494  0.6009
35035SOL     OW12219   1.352   6.578  11.196 -0.4054 -0.7304 -0.6537
35035SOL    HW112220   1.327   6.486  11.204 -0.4597 -0.7140 -0.6290
35035SOL    HW212221   1.339   6.598  11.103  0.6621 -1.0446 -0.8799
35036SOL     OW12222   8.525  11.438   4.987 -0.3207  0.2799 -0.4588
35036SOL    HW112223   8.523  11.344   4.968 -1.5454 -0.3570  2.3948
35036SOL    HW212224   8.617  11.462   4.978  0.1556 -1.3812 -0.3955
35037SOL     OW12225   6.996  12.494   9.982  0.1156 -0.2940 -0.0265
35037SOL    HW112226   7.066  12.553   9.954 -1.0179  0.5928 -1.0714
35037SOL    HW212227   6.917  12.528   9.941 -1.4680  0.3466  3.2420
35038SOL     OW12228  10.346  12.761  10.135 -0.1551  0.5382 -0.7775
35038SOL    HW112229  10.286  12.806  10.075 -0.1771  1.9312  0.2663
35038SOL    HW212230  10.289  12.707  10.190 -0.3184  0.8165 -0.6749
35039SOL     OW12231   4.289   4.560   6.751  0.3277  0.3367  0.4062
35039SOL    HW112232   4.259   4.537   6.663  1.3086  0.4736  0.0271
35039SOL    HW212233   4.313   4.652   6.745 -1.0327  0.7719  1.2240
35040SOL     OW12234  12.843   2.300   5.240  0.1468 -0.7490 -0.3188
35040SOL    HW112235  12.836   2.293   5.145 -0.2251  0.6074 -0.4159
35040SOL    HW212236  12.919   2.357   5.254 -0.8636  0.5508  0.1091
35041SOL     OW12237  11.184   3.703   2.369 -0.6306  0.1051  0.9045
35041SOL    HW112238  11.262   3.662   2.406  0.1245  1.6514  1.1040
35041SOL    HW212239  11.151   3.639   2.306  0.8641 -0.5455  0.7291
35042SOL     OW12240  11.065   5.123   8.938  0.4210  0.1248  0.3296
35042SOL    HW112241  11.145   5.073   8.953  0.5589  0.2914  0.1434
35042SOL    HW212242  11.082   5.174   8.859 -0.5205 -1.2223 -0.8020
35043SOL     OW12243   4.450   6.197   1.974  0.0243 -0.2470 -0.0521
35043SOL    HW112244   4.368   6.242   1.952 -0.2511 -0.6777  0.0816
35043SOL    HW212245   4.484   6.168   1.889 -1.8871 -3.3899  0.0850
35044SOL     OW12246   8.440   3.521  10.099  0.2349 -0.3098 -0.0104
35044SOL    HW112247   8.379   3.532  10.172  1.5745 -0.0443  1.1233
35044SOL    HW212248   8.405   3.446  10.050 -1.0524 -0.0852  0.5133
35045SOL     OW12249  12.724  12.932   1.111  0.5087 -0.0510  0.1396
35045SOL    HW112250  12.767  12.953   1.028  1.3614 -2.6978 -0.1854
35045SOL    HW212251  12.761  12.847   1.136 -0.8735 -0.0437  2.4525
35046SOL     OW12252   7.403   8.737   7.242 -0.0757 -0.0719  0.1501
35046SOL    HW112253   7.401   8.830   7.222  0.2909 -0.0521  0.2056
35046SOL    HW212254   7.477   8.727   7.301 -1.2237 -0.0961  1.6521
35047SOL     OW12255   2.809   9.162   2.115 -0.2324 -0.2792 -0.0131
35047SOL    HW112256   2.838   9.071   2.107  1.3067  0.0363  1.5535
35047SOL    HW212257   2.889   9.212   2.130 -1.1909  1.1742  0.4652
35048SOL     OW12258   0.354   5.752   7.620  0.1877 -0.3553  0.3710
35048SOL    HW112259   0.267   5.715   7.635  0.4655 -1.0248  0.3413
35048SOL    HW212260   0.414   5.680   7.635  0.8183  0.3822  1.4803
35049SOL     OW12261   3.959   6.952   3.744 -0.2730  0.0839  0.1896
35049SOL    HW112262   3.901   6.906   3.805 -0.9770 -0.3418 -0.7880
35049SOL    HW212263   3.911   6.956   3.662  0.4577  1.1156 -0.2144
35050SOL     OW12264   9.442   3.548   2.996 -0.1222 -0.6247 -0.5263
35050SOL    HW112265   9.361   3.571   2.951 -0.5499  0.8154  0.8551
35050SOL    HW212266   9.441   3.603   3.075  1.3411 -1.8889  0.4164
35051SOL     OW12267   5.075  11.626   1.440  0.2089  0.0066  0.4940
35051SOL    HW112268   5.088  11.657   1.350 -1.4276 -1.2894 -0.2521
35051SOL    HW212269   5.078  11.705   1.493 -0.7334  1.0838 -0.9578
35052SOL     OW12270   6.953   0.588  11.699  0.1251  0.2882  0.0414
35052SOL    HW112271   6.926   0.516  11.642 -1.5536  0.7585  0.1876
35052SOL    HW212272   7.047   0.595  11.685  0.4133 -2.1267  0.2656
35053SOL     OW12273   2.858   7.264   2.799 -0.0081 -0.6079  0.2455
35053SOL    HW112274   2.790   7.311   2.848  0.7512 -0.4139  1.1316
35053SOL    HW212275   2.886   7.326   2.732  0.1275 -0.2513  0.6315
35054SOL     OW12276   0.916   8.859   4.940  0.1781 -0.0313 -0.3153
35054SOL    HW112277   0.855   8.933   4.942  0.7115  0.4872 -1.7932
35054SOL    HW212278   0.922   8.830   5.031 -1.2074  0.7789  0.0563
35055SOL     OW12279   9.834   4.351   1.360  0.1618 -0.5300  0.2149
35055SOL    HW112280   9.790   4.356   1.275  0.1571 -0.6832  0.2076
35055SOL    HW212281   9.844   4.442   1.388  0.0049 -0.4872  0.1320
35056SOL     OW12282  11.606  10.049  10.616 -0.5336  0.9610 -0.0255
35056SOL    HW112283  11.622  10.027  10.708 -0.2318 -0.7218 -0.4616
35056SOL    HW212284  11.648  10.135  10.605  0.8256  0.4733  1.0183
35057SOL     OW12285   8.818   3.697   8.932  0.2467  0.0560 -0.5319
35057SOL    HW112286   8.766   3.635   8.881 -1.5873 -0.1989  1.5094
35057SOL    HW212287   8.822   3.658   9.020  1.1189  1.6670  0.1748
35058SOL     OW12288   5.639   5.714   4.294 -0.1773 -0.4014 -0.2859
35058SOL    HW112289   5.711   5.652   4.304  0.5804  0.6195  1.0439
35058SOL    HW212290   5.559   5.662   4.305  0.3298 -1.5639 -1.8564
35059SOL     OW12291   1.862   0.404   1.570  0.1007 -0.6573  0.1056
35059SOL    HW112292   1.942   0.387   1.521 -0.6407 -1.9514 -0.7119
35059SOL    HW212293   1.794   0.354   1.524 -1.4116  1.2763  0.0851
35060SOL     OW12294   8.535   1.434   5.276 -0.4338 -0.0374  0.1724
35060SOL    HW112295   8.495   1.470   5.197 -0.4800 -2.1891 -0.8794
35060SOL    HW212296   8.615   1.484   5.288 -0.3436  0.2211 -1.3526
35061SOL     OW12297   3.063   8.804   3.518  0.0439  0.0285 -0.4350
35061SOL    HW112298   3.081   8.712   3.538  1.5324  0.2677 -0.5678
35061SOL    HW212299   3.149   8.844   3.508 -0.5838  1.3818 -0.6866
35062SOL     OW12300   2.114   8.133  11.492 -0.1520  0.5634 -0.2026
35062SOL    HW112301   2.192   8.081  11.473 -0.0146  0.9042 -0.5897
35062SOL    HW212302   2.147   8.206  11.545 -0.5570 -0.4848  1.5842
35063SOL     OW12303   4.250   2.610   7.420 -0.3413 -0.1755 -0.5181
35063SOL    HW112304   4.234   2.692   7.466 -0.6592 -1.4318  1.7623
35063SOL    HW212305   4.190   2.612   7.345 -0.4649  1.5578 -0.4175
35064SOL     OW12306   7.322   1.760   7.709 -0.3091  0.1686  0.1600
35064SOL    HW112307   7.278   1.828   7.759 -0.2374  0.7065 -0.4987
35064SOL    HW212308   7.285   1.767   7.621 -1.3632 -1.5839  0.4055
35065SOL     OW12309   8.720   2.133   0.529 -0.4811 -1.0226  0.2538
35065SOL    HW112310   8.726   2.109   0.436 -1.9805 -0.9210  0.1116
35065SOL    HW212311   8.796   2.190   0.543 -0.6673 -0.3831 -1.1171
35066SOL     OW12312   1.832  11.376   1.950  0.8685 -0.2877  0.4187
35066SOL    HW112313   1.892  11.319   1.902  0.4977 -1.6317  1.4648
35066SOL    HW212314   1.745  11.340   1.930  0.6031  0.1171  0.8320
35067SOL     OW12315   7.122  12.458   5.256  0.3696  0.1299 -0.0046
35067SOL    HW112316   7.184  12.413   5.313  2.1615  1.0059 -1.1528
35067SOL    HW212317   7.090  12.390   5.197  1.2195 -0.1211 -0.1989
35068SOL     OW12318  11.714   6.816  11.268  0.3202 -0.6442  0.5100
35068SOL    HW112319  11.648   6.846  11.206  1.6620  1.3511 -0.0468
35068SOL    HW212320  11.783   6.882  11.263  1.7885 -1.9864  1.9944
35069SOL     OW12321   9.435   3.454   5.107  0.3128  0.1304 -0.3427
35069SOL    HW112322   9.423   3.374   5.057 -0.3209  1.1655 -1.9170
35069SOL    HW212323   9.362   3.510   5.080  1.2414  1.5744  0.0362
35070SOL     OW12324   9.172  12.437   6.177 -0.2799 -0.3724  0.0380
35070SOL    HW112325   9.147  12.461   6.266 -0.2651 -1.0852  0.2431
35070SOL    HW212326   9.133  12.504   6.121 -0.0522  0.2387  0.6021
35071SOL     OW12327  10.064   1.143   8.208 -0.4366 -0.2201  0.3494
35071SOL    HW112328  10.103   1.057   8.193 -0.3612 -0.1629  0.2180
35071SOL    HW212329  10.009   1.158   8.131  1.3848  0.8892 -0.8122
35072SOL     OW12330   2.521  11.397   0.715 -0.1821  0.4106  0.0196
35072SOL    HW112331   2.532  11.483   0.755 -1.7874  0.1596  1.0834
35072SOL    HW212332   2.540  11.335   0.785 -0.1586 -0.0824 -0.4167
35073SOL     OW12333   3.584  11.184   4.578  0.7496 -0.0061 -0.1953
35073SOL    HW112334   3.503  11.146   4.610 -0.0550 -0.6354 -2.7198
35073SOL    HW212335   3.607  11.251   4.642 -2.7576  1.4533 -0.2589
35074SOL     OW12336  11.419   7.214   5.139  0.6979 -0.8001  0.1373
35074SOL    HW112337  11.380   7.178   5.059 -1.4347  1.1255  0.2308
35074SOL    HW212338  11.501   7.253   5.110 -0.1336  0.0360 -1.1857
35075SOL     OW12339   2.164   0.137   8.836  0.5438 -0.0535  0.0706
35075SOL    HW112340   2.158   0.150   8.931 -0.8426 -0.8663  0.1232
35075SOL    HW212341   2.158   0.042   8.825 -4.1082  0.1687 -1.0310
35076SOL     OW12342   5.644   7.811   3.156 -0.0072  0.7839 -0.0121
35076SOL    HW112343   5.673   7.864   3.230 -0.0644  0.3691  0.3100
35076SOL    HW212344   5.724   7.795   3.105  0.0125  1.1652 -0.1080
35077SOL     OW12345   1.182   2.977  10.020 -0.2890 -0.1364 -0.6981
35077SOL    HW112346   1.138   3.051   9.978  1.8637  1.4868 -0.2916
35077SOL    HW212347   1.118   2.943  10.082 -1.3523  1.3938 -0.8900
35078SOL     OW12348   0.706   4.298  11.402 -0.0915  0.0629  0.3042
35078SOL    HW112349   0.748   4.359  11.463 -0.2973 -1.1474  1.7154
35078SOL    HW212350   0.766   4.294  11.327 -0.3835  2.4317 -0.1439
35079SOL     OW12351   4.209   5.502   7.352  0.3096  0.2464  0.4816
35079SOL    HW112352   4.224   5.595   7.364  0.6272  0.1812  0.5865
35079SOL    HW212353   4.114   5.492   7.357  0.3370  0.4281  1.4401
35080SOL     OW12354   1.804   7.694   4.445 -0.0934  0.0704  0.7455
35080SOL    HW112355   1.813   7.758   4.515  0.1310 -1.1633  1.8896
35080SOL    HW212356   1.835   7.739   4.367  0.1010  1.3259  1.5211
35081SOL     OW12357   3.621   1.088  10.822  0.2532 -0.7560  0.3956
35081SOL    HW112358   3.690   1.073  10.756 -1.5766  0.5681 -1.9802
35081SOL    HW212359   3.654   1.160  10.875  0.9063 -0.4298 -0.4304
35082SOL     OW12360   2.906   7.531   1.892  0.0286  0.5337  0.1202
35082SOL    HW112361   2.841   7.564   1.830 -0.1748  1.2462  0.6967
35082SOL    HW212362   2.871   7.554   1.978  0.7680  0.4102  0.4610
35083SOL     OW12363   3.933   2.113   1.556  0.2922 -0.0208  0.1446
35083SOL    HW112364   3.841   2.126   1.530  0.6748 -0.5820 -1.5707
35083SOL    HW212365   3.943   2.018   1.561  0.7031  0.0470  0.6613
35084SOL     OW12366   1.132  10.995   1.920 -0.0850 -0.0196 -0.4123
35084SOL    HW112367   1.037  11.003   1.933 -0.1179 -0.6590 -0.2133
35084SOL    HW212368   1.140  10.931   1.849  0.1989 -0.0259 -0.3725
35085SOL     OW12369   3.915  12.341   8.317  0.2658 -0.9228 -0.0767
35085SOL    HW112370   3.821  12.357   8.309  0.4241  0.7617  0.8890
35085SOL    HW212371   3.923  12.246   8.331 -1.7473 -0.6327  4.8528
35086SOL     OW12372   9.921   4.045   2.592  0.6448  0.2178 -0.7789
35086SOL    HW112373   9.991   3.983   2.614  0.3186  0.5332  1.3377
35086SOL    HW212374   9.840   3.995   2.604  0.3879  0.9499  0.7690
35087SOL     OW12375  11.498   2.142   0.532  0.2383 -1.2602  0.0728
35087SOL    HW112376  11.418   2.107   0.570 -0.5414 -0.0021 -0.3673
35087SOL    HW212377  11.568   2.106   0.587 -0.7088 -1.3341  1.2674
35088SOL     OW12378   6.443   1.265   0.807  0.0615 -0.0292 -0.3610
35088SOL    HW112379   6.491   1.182   0.816  4.0781  2.1199 -0.0065
35088SOL    HW212380   6.470   1.316   0.883 -1.3897  2.0616 -1.1843
35089SOL     OW12381   8.408   8.052   3.639 -0.5875 -0.1641  0.4266
35089SOL    HW112382   8.362   7.972   3.666  0.0892  0.2744  3.2849
35089SOL    HW212383   8.425   8.098   3.722  0.9383  1.8968 -0.9415
35090SOL     OW12384   4.106   6.287   0.882 -0.5397  0.3170 -0.5169
35090SOL    HW112385   4.104   6.215   0.819  3.3802  1.1743 -1.8926
35090SOL    HW212386   4.190   6.278   0.927 -0.1776  3.5586 -0.2570
35091SOL     OW12387   3.445  10.651   0.064  0.1209  0.1367  0.1876
35091SOL    HW112388   3.350  10.658   0.051  0.2581  0.7133 -0.5517
35091SOL    HW212389   3.482  10.717   0.006  1.1348 -2.2146 -2.0365
35092SOL     OW12390   4.662   8.706   3.983 -0.3055 -0.0133  0.4559
35092SOL    HW112391   4.625   8.628   4.025  1.2569 -0.0148  1.9378
35092SOL    HW212392   4.747   8.718   4.026 -0.0625  1.9128 -0.4769
35093SOL     OW12393  11.892   5.913   3.268  0.1879 -0.4942  0.3140
35093SOL    HW112394  11.836   5.990   3.255  1.4428  0.6078  1.1508
35093SOL    HW212395  11.915   5.915   3.361  1.3038 -1.1298  0.0700
35094SOL     OW12396   3.954  11.390   1.959  0.2787  0.0104  0.2060
35094SOL    HW112397   3.940  11.300   1.991 -2.2458  0.1812 -0.1955
35094SOL    HW212398   4.048  11.403   1.964  0.7291 -2.6861  0.2534
35095SOL     OW12399   2.538   9.647   8.572  0.8066 -0.1226  0.5645
35095SOL    HW112400   2.510   9.603   8.652 -0.9668 -0.7182 -0.3376
35095SOL    HW212401   2.548   9.576   8.508 -3.4639  0.6658 -1.3264
35096SOL     OW12402   2.049   8.647  12.799  0.2881 -0.0630  0.2609
35096SOL    HW112403   2.085   8.735  12.811 -0.0749  0.0698  0.4067
35096SOL    HW212404   1.955   8.661  12.785  0.1990 -0.4362  0.4602
35097SOL     OW12405  12.181   9.935   6.806  0.1632  0.1610  0.1774
35097SOL    HW112406  12.130   9.862   6.770  1.2889 -0.7744  0.4130
35097SOL    HW212407  12.118   9.986   6.857 -0.4228 -1.3044  0.9674
35098SOL     OW12408   2.525  11.375   7.378 -0.0207 -0.2125 -0.3919
35098SOL    HW112409   2.436  11.395   7.349  0.6683  0.0315 -2.5535
35098SOL    HW212410   2.516  11.352   7.470 -2.3193 -0.2125 -0.5573
35099SOL     OW12411   6.825  10.384   2.385 -0.2980 -0.3727  0.9409
35099SOL    HW112412   6.876  10.440   2.444  0.3259  0.7709 -0.6333
35099SOL    HW212413   6.889  10.349   2.323 -1.2956  0.5967 -0.6938
35100SOL     OW12414  10.107   5.726   5.952 -0.2946 -0.0094 -0.0067
35100SOL    HW112415  10.176   5.777   5.995 -1.5507  1.0055  0.8733
35100SOL    HW212416  10.099   5.647   6.005  1.5467 -1.1554 -1.2815
35101SOL     OW12417   7.495   6.594   8.212  0.3622  0.1658  0.0911
35101SOL    HW112418   7.483   6.537   8.136  0.3233  0.1723  0.0921
35101SOL    HW212419   7.549   6.666   8.181 -1.0384  1.0606 -0.3737
35102SOL     OW12420   0.128  10.971   4.811 -0.1434  0.3491  0.2049
35102SOL    HW112421   0.167  11.059   4.817  0.4123  0.2506 -1.5905
35102SOL    HW212422   0.169  10.931   4.735 -3.8423  0.2762 -1.9819
35103SOL     OW12423   5.485   5.938   4.487 -0.2752  0.6732  0.3235
35103SOL    HW112424   5.543   5.869   4.454  0.9451  1.3489  0.9966
35103SOL    HW212425   5.444   5.974   4.409 -0.4972 -0.4246 -0.0848
35104SOL     OW12426   6.441  11.569   1.220 -0.5542 -0.3545 -0.0957
35104SOL    HW112427   6.527  11.602   1.195 -0.9265  0.6534 -0.0951
35104SOL    HW212428   6.447  11.474   1.209  0.9603 -0.4371  1.1714
35105SOL     OW12429   9.312  11.569   4.865 -0.3358  0.3428  0.0234
35105SOL    HW112430   9.284  11.607   4.948  0.1068  0.7163  0.0064
35105SOL    HW212431   9.231  11.557   4.815 -0.4462  1.7272 -0.1634
35106SOL     OW12432  11.994   4.613   2.358  0.5115 -0.7860 -0.7022
35106SOL    HW112433  11.943   4.533   2.347  0.2138 -0.4458 -1.8700
35106SOL    HW212434  12.064   4.606   2.294  2.5202 -1.6378  1.4238
35107SOL     OW12435   4.655   4.454   2.771  0.0897  0.5354  0.1334
35107SOL    HW112436   4.721   4.523   2.774  0.0398  0.5430  2.5157
35107SOL    HW212437   4.704   4.376   2.743  0.2735  1.3207 -1.9349
35108SOL     OW12438   6.044  10.939   1.354  0.1987 -0.8511  0.3402
35108SOL    HW112439   6.124  10.891   1.376 -0.3390 -1.1677  1.6895
35108SOL    HW212440   6.054  11.023   1.399  0.9053  0.1813 -1.5978
35109SOL     OW12441   0.959   1.653   8.808 -0.0955  0.0380 -0.4399
35109SOL    HW112442   1.039   1.633   8.758 -0.0672  0.4419 -0.5572
35109SOL    HW212443   0.950   1.748   8.802  0.3856  0.1893  1.0475
35110SOL     OW12444   3.572   9.517   5.643 -0.5109  0.0139  0.3781
35110SOL    HW112445   3.641   9.580   5.666 -0.7879  0.3803  0.2222
35110SOL    HW212446   3.513   9.518   5.718 -0.5767  0.0214  0.3254
35111SOL     OW12447   1.062   8.226  11.380  0.6617 -0.0606  0.0744
35111SOL    HW112448   0.988   8.196  11.433 -0.4401 -0.6578 -1.7139
35111SOL    HW212449   1.117   8.275  11.441 -0.1646 -1.3085  1.9141
35112SOL     OW12450   0.185   8.620   7.120 -0.5918  0.2751 -0.5069
35112SOL    HW112451   0.190   8.525   7.113  0.7976  0.3375 -0.5480
35112SOL    HW212452   0.119   8.636   7.187 -1.7506 -0.6762 -1.3742
35113SOL     OW12453   9.027   2.945   7.431  0.2033 -0.4394 -0.4122
35113SOL    HW112454   8.954   2.984   7.383  0.4302 -1.6794 -1.8567
35113SOL    HW212455   9.064   2.881   7.369  2.1089 -0.2875  0.5231
35114SOL     OW12456   5.801   3.791   5.049  0.2987  0.3090  0.0918
35114SOL    HW112457   5.788   3.716   5.106  2.1251  0.7015  1.1051
35114SOL    HW212458   5.833   3.860   5.107  2.3105  0.6922 -1.3590
35115SOL     OW12459   7.124   8.289   5.471  0.6714  0.3730  0.6014
35115SOL    HW112460   7.080   8.373   5.461  1.9183  1.2553  2.1417
35115SOL    HW212461   7.201   8.295   5.415  0.0265 -0.3214 -0.3899
35116SOL     OW12462   6.761   8.545   4.156 -0.6137 -0.6370  0.4361
35116SOL    HW112463   6.744   8.570   4.066  0.2795 -0.0967  0.4034
35116SOL    HW212464   6.683   8.498   4.183 -1.2415 -0.0756 -0.3476
35117SOL     OW12465  10.901   1.797   2.593  0.3331 -0.3390  0.1591
35117SOL    HW112466  10.941   1.745   2.523  1.3988 -0.2834  0.7031
35117SOL    HW212467  10.808   1.779   2.586  0.3883 -0.1710 -1.4090
35118SOL     OW12468   9.893  10.455   7.288  0.1126 -0.4597 -0.3708
35118SOL    HW112469   9.936  10.413   7.362  0.9014  0.7325 -0.1165
35118SOL    HW212470   9.964  10.501   7.242 -0.8891  1.9207  0.2953
35119SOL     OW12471   5.418   8.957  11.700 -0.2159 -0.6322 -0.5285
35119SOL    HW112472   5.493   8.964  11.641  0.3518  0.0759  0.2522
35119SOL    HW212473   5.455   8.931  11.784 -0.7199  0.5326  0.0849
35120SOL     OW12474   2.455   8.544   0.008 -0.0088 -0.2386 -0.1515
35120SOL    HW112475   2.360   8.531   0.003  0.1622 -1.3890 -0.6466
35120SOL    HW212476   2.482   8.494   0.084  0.0269  1.2840  0.8716
35121SOL     OW12477   4.399   5.709  10.058 -0.1837  0.5421 -0.2091
35121SOL    HW112478   4.415   5.797  10.022 -0.9812  0.4441 -0.8319
35121SOL    HW212479   4.317   5.719  10.107  1.2172  0.8519  2.2620
35122SOL     OW12480   5.263   5.002  12.799 -0.2700 -0.0347 -0.2303
35122SOL    HW112481   5.265   5.045  12.713  2.5196  0.2917 -0.1145
35122SOL    HW212482   5.299   5.068  12.859  1.0964 -1.4098  0.5362
35123SOL     OW12483   8.496  10.697  11.981  0.0935  0.9456 -0.1996
35123SOL    HW112484   8.568  10.759  11.991 -1.2089  2.5504 -0.3428
35123SOL    HW212485   8.423  10.750  11.949 -0.7769 -0.8674 -1.3905
35124SOL     OW12486   5.253   4.493  11.299 -0.1449 -0.0711  0.1652
35124SOL    HW112487   5.245   4.400  11.280  0.3469 -0.0719 -0.0636
35124SOL    HW212488   5.194   4.508  11.373 -0.0971 -0.5962  0.3115
35125SOL     OW12489   6.250   6.575  12.163  0.4427  0.5948 -0.0729
35125SOL    HW112490   6.305   6.500  12.186 -1.0918 -0.5923 -0.1199
35125SOL    HW212491   6.296   6.617  12.090  0.7704 -1.0019 -0.8307
35126SOL     OW12492   7.225   1.569   4.404  0.1769 -0.3194  0.3756
35126SOL    HW112493   7.200   1.639   4.465 -1.5547 -2.0194  1.7797
35126SOL    HW212494   7.320   1.564   4.410  0.3239  1.7198  0.4135
35127SOL     OW12495  12.646  12.627   6.823  0.3818  0.1623 -0.4191
35127SOL    HW112496  12.581  12.687   6.786  0.8772  1.0866  0.1700
35127SOL    HW212497  12.703  12.606   6.749 -0.2415 -0.2046 -0.8060
35128SOL     OW12498   4.093  11.714   2.400  0.1195  0.7191  0.3995
35128SOL    HW112499   4.070  11.777   2.468 -0.4683  0.8163  0.1251
35128SOL    HW212500   4.177  11.678   2.427 -0.0343  0.8665  1.0962
35129SOL     OW12501   9.192   9.601   1.549 -0.0431  0.2742 -0.0089
35129SOL    HW112502   9.097   9.599   1.557 -0.0154 -0.6834  0.1980
35129SOL    HW212503   9.220   9.511   1.567  0.8109  0.2541 -1.2821
35130SOL     OW12504   0.030   4.341   2.884 -0.6325  0.0753 -0.5731
35130SOL    HW112505  -0.012   4.392   2.815  0.1226 -1.5947 -2.3721
35130SOL    HW212506  -0.009   4.254   2.877  0.1322 -0.3770  0.5009
35131SOL     OW12507   8.347   7.977   4.378  0.0498  0.1828 -0.2152
35131SOL    HW112508   8.327   7.906   4.439 -0.2107 -0.5654 -1.1368
35131SOL    HW212509   8.422   8.022   4.417  1.3399 -1.6756 -0.4352
35132SOL     OW12510   8.702  11.247   4.564 -0.0082 -0.3372 -0.0472
35132SOL    HW112511   8.713  11.165   4.515 -1.6367 -0.1015 -0.8671
35132SOL    HW212512   8.613  11.275   4.544 -0.5671  0.0931  2.5855
35133SOL     OW12513   6.418  11.210   4.395 -0.0343 -0.1616 -0.0170
35133SOL    HW112514   6.362  11.191   4.320  0.2913 -0.6013 -0.1560
35133SOL    HW212515   6.504  11.175   4.370  0.5877  1.4394 -0.2419
35134SOL     OW12516  11.107   1.151  10.208 -0.1555  0.0654 -0.4803
35134SOL    HW112517  11.137   1.172  10.297 -0.9817 -3.2103  0.7019
35134SOL    HW212518  11.187   1.143  10.157  0.3493  1.7524 -0.0119
35135SOL     OW12519  12.721   5.696   5.722  0.1332 -0.0600  0.2818
35135SOL    HW112520  12.783   5.769   5.728  0.2350 -0.1347  0.1440
35135SOL    HW212521  12.670   5.714   5.644 -0.9670  0.7342  1.1514
35136SOL     OW12522  12.369   6.956   1.653  0.2805 -0.2508  0.1413
35136SOL    HW112523  12.445   6.942   1.596  0.1859 -1.5233  0.2907
35136SOL    HW212524  12.406   6.989   1.734  0.6464 -0.5057  0.0837
35137SOL     OW12525   9.864   2.483   9.621 -0.4887  0.2595  0.2139
35137SOL    HW112526   9.794   2.546   9.610  0.7107  2.0326  1.9671
35137SOL    HW212527   9.900   2.502   9.708  1.8167 -0.9018 -0.4019
35138SOL     OW12528   4.579   1.449   5.336  0.1025 -0.0586  0.3501
35138SOL    HW112529   4.654   1.444   5.277  0.2671  1.0304  0.4476
35138SOL    HW212530   4.585   1.536   5.376  0.5526 -1.0848  2.7111
35139SOL     OW12531   4.271   2.218   2.878  0.0696  0.0248 -0.0676
35139SOL    HW112532   4.252   2.311   2.891 -1.6401 -0.4927  1.5662
35139SOL    HW212533   4.206   2.189   2.814 -0.0733 -0.2694  0.2108
35140SOL     OW12534  11.982  12.003  12.491  0.5974  0.2644 -0.1667
35140SOL    HW112535  11.921  11.942  12.533  0.6050  0.8741  0.7515
35140SOL    HW212536  12.017  11.954  12.416 -2.0472  0.3739 -1.5905
35141SOL     OW12537   6.815   5.262   5.097 -0.8209 -0.2693  0.3027
35141SOL    HW112538   6.870   5.183   5.100  0.4166  0.5603  0.2528
35141SOL    HW212539   6.852   5.319   5.164 -0.1967  1.2064 -1.2191
35142SOL     OW12540   1.494  11.157   1.309 -0.0134 -0.5587  0.3888
35142SOL    HW112541   1.454  11.214   1.244  1.3164 -0.9571 -0.8320
35142SOL    HW212542   1.495  11.208   1.389 -2.1419 -0.2304  0.2594
35143SOL     OW12543   4.406   7.379   7.273 -0.8296 -0.1775  0.2630
35143SOL    HW112544   4.472   7.342   7.215 -1.2175 -0.1882 -0.1762
35143SOL    HW212545   4.406   7.473   7.254 -0.8891 -0.1669  0.3154
35144SOL     OW12546   8.993   6.226   0.101  0.4148  0.1689 -0.0760
35144SOL    HW112547   8.956   6.314   0.089  0.3512 -0.0292 -1.5596
35144SOL    HW212548   9.088   6.239   0.090  0.3868  0.0330 -0.5091
35145SOL     OW12549   6.354  11.735   0.575  0.4640  0.3012  1.2309
35145SOL    HW112550   6.283  11.772   0.522  1.2019 -0.3916 -0.3085
35145SOL    HW212551   6.391  11.665   0.521  2.5796  0.8943  1.8004
35146SOL     OW12552   5.245   8.280   2.729  0.3679 -0.2665  0.0934
35146SOL    HW112553   5.320   8.237   2.771  1.7280 -0.1594 -2.0944
35146SOL    HW212554   5.204   8.330   2.800  1.6808 -1.2086  1.6023
35147SOL     OW12555  10.439   9.136   0.790  0.4655 -0.1132 -0.2605
35147SOL    HW112556  10.369   9.072   0.781  0.9110 -0.5016 -1.0493
35147SOL    HW212557  10.515   9.095   0.748  0.8742  0.7459 -0.3867
35148SOL     OW12558   5.790  11.787   2.871  0.1525 -0.2343  0.2537
35148SOL    HW112559   5.743  11.759   2.949 -1.0696 -0.8349 -0.6484
35148SOL    HW212560   5.867  11.731   2.867  0.6283  0.3208  1.4210
35149SOL     OW12561   5.770   6.350   1.531  0.1235  0.4375 -0.1176
35149SOL    HW112562   5.826   6.327   1.457 -0.1684 -1.0824  0.1075
35149SOL    HW212563   5.756   6.268   1.578 -1.8788  0.8550  0.1259
35150SOL     OW12564   9.056   3.968   4.487 -0.3213 -0.1002 -0.2378
35150SOL    HW112565   9.146   3.989   4.511 -0.1619 -0.1636 -0.7649
35150SOL    HW212566   9.003   4.005   4.558  0.1414 -0.4305  0.2864
35151SOL     OW12567  10.290   8.093  10.920  0.2636 -0.0666  0.2237
35151SOL    HW112568  10.212   8.125  10.965 -1.2237 -0.9038 -1.6376
35151SOL    HW212569  10.295   8.000  10.943 -1.1935 -0.8000 -2.1091
35152SOL     OW12570   8.491   3.530   3.722  0.3462 -0.4694  0.0725
35152SOL    HW112571   8.470   3.446   3.762 -0.2189 -1.4587 -2.1693
35152SOL    HW212572   8.587   3.536   3.729  0.3952 -1.3114  0.2185
35153SOL     OW12573  12.927   2.024   7.294 -0.5426 -0.1524  0.1360
35153SOL    HW112574  13.003   2.061   7.249 -1.4940  1.3019 -0.3081
35153SOL    HW212575  12.913   2.080   7.370 -1.3623 -0.2089  0.0401
35154SOL     OW12576   9.110  10.905  12.390  0.0264 -0.4175 -0.0301
35154SOL    HW112577   9.025  10.863  12.405 -0.7653  1.2838  0.4935
35154SOL    HW212578   9.173  10.845  12.430 -0.8565 -1.8961 -0.7409
35155SOL     OW12579   1.198   5.145   2.950  0.6542  0.0067  0.0155
35155SOL    HW112580   1.147   5.066   2.930 -0.5674  0.2656  1.8547
35155SOL    HW212581   1.149   5.216   2.909 -1.2100  0.3932  2.6614
35156SOL     OW12582   3.631   3.888   9.033 -0.1353 -0.1005 -0.0359
35156SOL    HW112583   3.629   3.826   8.959 -0.6915 -0.2449  0.0921
35156SOL    HW212584   3.551   3.868   9.082  1.6702 -2.1493  2.3840
35157SOL     OW12585   0.865   4.798   5.503  0.4192 -0.5908 -0.2935
35157SOL    HW112586   0.803   4.752   5.560  0.9036 -1.4005 -0.4198
35157SOL    HW212587   0.951   4.772   5.535  0.6975 -0.5433 -0.9919
35158SOL     OW12588   5.998   7.902   0.979  0.5005  0.2899 -0.4369
35158SOL    HW112589   5.991   7.932   1.069 -2.0228  2.7549 -1.2911
35158SOL    HW212590   6.075   7.947   0.944  1.3206 -0.4550  0.3623
35159SOL     OW12591   4.007   7.849   6.345  0.1543 -0.5033  0.0770
35159SOL    HW112592   3.937   7.913   6.331  0.2248 -0.0366  1.6336
35159SOL    HW212593   4.083   7.903   6.367  1.2110 -0.9668 -2.1594
35160SOL     OW12594  11.869   1.395   7.240 -0.6387  0.2053  0.2306
35160SOL    HW112595  11.800   1.328   7.241 -0.3027 -0.2256 -1.7296
35160SOL    HW212596  11.950   1.345   7.238 -0.3927  0.6317 -1.4996
35161SOL     OW12597   6.667  11.880   2.411 -0.6950  0.1772  0.2136
35161SOL    HW112598   6.732  11.854   2.476  0.2188 -2.4297 -1.5486
35161SOL    HW212599   6.610  11.941   2.457  1.0403  0.0169  2.8190
35162SOL     OW12600   8.187   5.148   8.828 -0.0309  0.3478  0.1931
35162SOL    HW112601   8.151   5.236   8.819  0.0345  0.1830 -2.0719
35162SOL    HW212602   8.234   5.132   8.746 -0.5427 -2.0400  0.2944
35163SOL     OW12603   0.553  12.426   4.053  0.5159  0.1561 -0.2461
35163SOL    HW112604   0.547  12.487   3.980  1.5841  1.5469  0.7773
35163SOL    HW212605   0.496  12.463   4.120  0.9739 -0.0974  0.2950
35164SOL     OW12606   7.627   0.750   0.427  0.0202 -0.0294 -0.5515
35164SOL    HW112607   7.656   0.841   0.438  0.9611 -0.2248 -1.2685
35164SOL    HW212608   7.535   0.756   0.404 -0.0529  0.7189 -0.0946
35165SOL     OW12609  12.384  11.489  12.107  0.2270 -0.2318 -0.3315
35165SOL    HW112610  12.391  11.498  12.012 -1.2391 -2.1253 -0.6772
35165SOL    HW212611  12.291  11.476  12.123  0.1963  1.7925  1.5907
35166SOL     OW12612   9.671   7.281   0.306 -0.7315 -0.0694 -0.5009
35166SOL    HW112613   9.717   7.365   0.310 -1.4688  0.3087  0.2309
35166SOL    HW212614   9.738   7.216   0.328 -0.2915  0.3684 -0.5212
35167SOL     OW12615   5.040   4.931   7.450  0.4614  0.0772 -0.1059
35167SOL    HW112616   5.043   4.836   7.454  0.1211  0.0763  0.0808
35167SOL    HW212617   5.113   4.954   7.392 -0.7504 -0.4191 -1.9114
35168SOL     OW12618   3.805   0.151   7.104 -0.0810  0.2051  0.0502
35168SOL    HW112619   3.746   0.222   7.131 -0.4383 -0.1049  0.0965
35168SOL    HW212620   3.866   0.141   7.177  1.9441  2.5069 -1.1503
35169SOL     OW12621   6.169   3.845   1.688 -0.3140  0.2163 -0.1238
35169SOL    HW112622   6.135   3.889   1.766 -1.2879  1.8162 -1.3862
35169SOL    HW212623   6.205   3.915   1.634 -2.0246 -0.4329 -2.2753
35170SOL     OW12624  12.790   9.951   4.383 -0.1588 -0.0440 -0.1874
35170SOL    HW112625  12.746   9.945   4.468  0.7285 -1.1304  0.2163
35170SOL    HW212626  12.784   9.863   4.346  3.4525 -0.8739  0.8446
35171SOL     OW12627   5.527  10.445   1.277  0.0140 -0.3839 -0.2904
35171SOL    HW112628   5.612  10.420   1.313  0.3881 -1.4154 -1.8300
35171SOL    HW212629   5.477  10.475   1.353  1.4023 -0.7005  0.7845
35172SOL     OW12630   9.370   0.500   6.335 -0.2932  0.2078 -0.8887
35172SOL    HW112631   9.460   0.472   6.315  0.2259  1.7356 -0.8494
35172SOL    HW212632   9.375   0.595   6.335 -1.8728  0.3074 -0.5920
35173SOL     OW12633   7.961  11.785  11.883 -0.6664 -0.2157 -0.2527
35173SOL    HW112634   7.941  11.854  11.820 -2.4726 -0.6834 -0.2547
35173SOL    HW212635   7.949  11.826  11.968  1.2873  0.2772 -0.1596
35174SOL     OW12636   5.550   5.008  11.302 -0.1230  0.1284  0.2315
35174SOL    HW112637   5.536   4.920  11.339  0.2076 -0.4008 -0.8561
35174SOL    HW212638   5.498   5.066  11.358 -0.9309 -0.8550  0.5392
35175SOL     OW12639   2.738  11.210   9.861 -0.1907 -0.1517 -0.1009
35175SOL    HW112640   2.756  11.170   9.946 -0.2059 -0.1464 -0.0954
35175SOL    HW212641   2.642  11.215   9.857 -0.1668  1.2967  0.5565
35176SOL     OW12642   5.200  10.093   4.858 -0.7170 -0.1616 -0.0438
35176SOL    HW112643   5.204  10.129   4.769  1.1677  0.1438  0.1147
35176SOL    HW212644   5.161  10.163   4.911 -1.5619 -0.2291 -0.5646
35177SOL     OW12645   5.976  10.511   1.284  0.3747  0.6262  0.0528
35177SOL    HW112646   5.967  10.576   1.215  1.3992 -0.1217 -0.8171
35177SOL    HW212647   6.001  10.430   1.239 -0.4934 -0.2890  1.1447
35178SOL     OW12648   9.372   8.328   4.602 -0.5025 -0.7020 -0.3080
35178SOL    HW112649   9.370   8.385   4.525 -0.1217 -2.1960 -1.4752
35178SOL    HW212650   9.456   8.283   4.596  2.2332  3.0113  4.0084
35179SOL     OW12651   3.657   5.305   4.328 -0.1379 -0.1306 -0.0593
35179SOL    HW112652   3.664   5.401   4.334 -0.1782 -0.1455  0.2006
35179SOL    HW212653   3.631   5.290   4.237 -2.0169  0.2071  0.3910
35180SOL     OW12654  10.898   6.485   9.347  0.1093 -0.2790  0.0825
35180SOL    HW112655  10.863   6.567   9.312  1.5553  0.7763  1.0064
35180SOL    HW212656  10.869   6.418   9.285 -0.3558  1.0502 -1.1899
35181SOL     OW12657   8.939   2.635   7.667 -0.0047  0.0404  0.4957
35181SOL    HW112658   8.852   2.596   7.682 -0.0758  0.0279  0.0672
35181SOL    HW212659   8.949   2.635   7.572  0.3805  0.2338  0.5342
35182SOL     OW12660   5.376   2.395   8.262  0.2854 -0.5168 -0.6653
35182SOL    HW112661   5.313   2.436   8.203  1.7289  0.0409 -1.8876
35182SOL    HW212662   5.359   2.436   8.347 -2.4178 -1.9568 -0.3894
35183SOL     OW12663   1.394  10.166   2.485 -0.7290  0.0939 -0.0351
35183SOL    HW112664   1.421  10.194   2.397  2.7319  1.7743  1.3951
35183SOL    HW212665   1.464  10.108   2.514 -1.4506  0.1295  1.9002
35184SOL     OW12666   7.657   8.215   0.421 -0.2472 -0.3191  0.7856
35184SOL    HW112667   7.718   8.144   0.399 -0.5325 -0.1384 -0.7094
35184SOL    HW212668   7.615   8.187   0.503 -1.6558 -2.7830 -0.6580
35185SOL     OW12669   7.585   6.774  12.406 -0.4216 -0.3831 -0.4503
35185SOL    HW112670   7.547   6.714  12.471  0.2526 -0.6392 -0.2823
35185SOL    HW212671   7.520   6.843  12.396  0.5788  1.1863  2.6001
35186SOL     OW12672   4.229   3.869   8.455 -0.5685 -0.4226 -0.0918
35186SOL    HW112673   4.226   3.965   8.460  1.4357 -0.3727  1.0671
35186SOL    HW212674   4.289   3.850   8.383 -0.0910 -0.7846  0.3937
35187SOL     OW12675   7.719   2.971   1.700  0.5771  0.1733 -0.0127
35187SOL    HW112676   7.802   2.925   1.715  0.0965 -0.0174  2.5689
35187SOL    HW212677   7.652   2.905   1.718 -0.1358  0.7864 -0.4085
35188SOL     OW12678   0.353   2.210   3.594  0.3966  1.0906 -0.2692
35188SOL    HW112679   0.378   2.302   3.604  0.9047  1.1655 -1.9986
35188SOL    HW212680   0.364   2.191   3.501 -0.1035 -0.6175 -0.0260
35189SOL     OW12681   5.269   5.571   8.848 -0.0956 -0.7032 -1.0586
35189SOL    HW112682   5.250   5.478   8.832 -0.7299 -0.3201 -2.6231
35189SOL    HW212683   5.188   5.605   8.887  0.1069 -0.7644 -0.5688
35190SOL     OW12684  10.536   2.249   3.003 -0.4854  0.0178 -0.2265
35190SOL    HW112685  10.605   2.183   3.007 -1.1476 -0.7764 -1.3704
35190SOL    HW212686  10.568   2.321   3.057  0.4174 -1.0838  0.7600
35191SOL     OW12687   6.745  10.947   8.365 -0.1026  0.0024  0.2160
35191SOL    HW112688   6.750  10.941   8.270  1.4839  0.2552  0.2521
35191SOL    HW212689   6.743  10.856   8.395  2.2512 -0.1626  0.0129
35192SOL     OW12690  11.255   1.165   5.352  0.1144  0.3741 -0.4835
35192SOL    HW112691  11.258   1.076   5.387  0.5793  1.0716  1.3496
35192SOL    HW212692  11.162   1.183   5.339 -0.0226 -0.1185 -0.2070
35193SOL     OW12693   7.848   3.336   4.720 -0.2064 -0.3941  0.0125
35193SOL    HW112694   7.942   3.340   4.700 -0.1859  1.5633  0.3163
35193SOL    HW212695   7.833   3.245   4.745  1.9135 -0.4719  1.2767
35194SOL     OW12696   7.457   9.747   0.449 -0.1244  0.1676  0.0664
35194SOL    HW112697   7.471   9.655   0.474 -0.3582 -0.0583 -0.6013
35194SOL    HW212698   7.516   9.797   0.505 -1.9939 -0.1285  2.5026
35195SOL     OW12699   1.926   9.456   6.501 -0.5431  0.3695  0.5993
35195SOL    HW112700   1.893   9.544   6.486  2.1331  1.4170  0.2341
35195SOL    HW212701   1.879   9.425   6.578 -0.8232  2.5618  1.3812
35196SOL     OW12702  12.713  12.281   0.415  0.7056  0.0039  0.6780
35196SOL    HW112703  12.756  12.199   0.393 -0.8803 -0.8126  0.5046
35196SOL    HW212704  12.766  12.318   0.486  1.6060 -0.9901  0.5479
35197SOL     OW12705   3.321   5.315   4.874  0.6509 -0.7147 -0.0783
35197SOL    HW112706   3.256   5.257   4.834 -1.6253  1.0304  0.7975
35197SOL    HW212707   3.320   5.393   4.818  1.8565 -0.5691  0.0837
35198SOL     OW12708   6.283  10.005   3.789 -0.4305 -0.3239 -0.2762
35198SOL    HW112709   6.254  10.017   3.879 -0.4596 -0.3199 -0.2860
35198SOL    HW212710   6.204   9.981   3.741 -0.7122  1.0956 -0.5777
35199SOL     OW12711   7.271   1.819   1.883  0.1958 -0.7449  0.1335
35199SOL    HW112712   7.229   1.879   1.944  1.1200 -1.0472  1.0968
35199SOL    HW212713   7.327   1.875   1.829  0.7137 -0.6896  0.7295
35200SOL     OW12714   9.059   0.376   8.616  0.4158  0.6276  0.4647
35200SOL    HW112715   9.111   0.297   8.609  0.2668  0.4813  0.9441
35200SOL    HW212716   8.989   0.365   8.552  1.6747  1.3946 -1.1045
35201SOL     OW12717  11.983  12.286   1.972  0.1651  0.3356  0.0595
35201SOL    HW112718  12.064  12.276   1.921  0.8366  1.2473  0.9210
35201SOL    HW212719  12.004  12.252   2.059 -0.8238 -0.7330 -0.0838
35202SOL     OW12720   6.567   5.070   7.084 -0.0962 -0.0850 -0.0353
35202SOL    HW112721   6.616   5.025   7.015 -0.4965 -0.4642 -0.0747
35202SOL    HW212722   6.620   5.059   7.162  1.2614  1.8481 -0.6021
35203SOL     OW12723   3.283   9.195   5.729  0.0243  0.3883  0.4022
35203SOL    HW112724   3.281   9.124   5.793  0.0525 -0.5983 -0.6794
35203SOL    HW212725   3.208   9.250   5.753  0.3393  0.3462  1.5954
35204SOL     OW12726  12.114   9.375   6.522  0.3481  0.4080  0.8068
35204SOL    HW112727  12.073   9.288   6.529 -4.4944  2.5172  2.8964
35204SOL    HW212728  12.147   9.393   6.610  2.1942  0.4420  0.1513
35205SOL     OW12729  12.748   5.112   7.821  0.2107 -0.1671 -0.0972
35205SOL    HW112730  12.657   5.139   7.834  0.7202  1.0024  1.3041
35205SOL    HW212731  12.745   5.055   7.744 -1.9375 -1.4050  0.7808
35206SOL     OW12732  10.310  11.067   6.099  0.0210 -0.6731 -0.0714
35206SOL    HW112733  10.400  11.096   6.083 -0.8111  1.2054 -1.7349
35206SOL    HW212734  10.316  11.015   6.180  2.3229  0.7353  0.7601
35207SOL     OW12735   4.416   9.848   3.127  0.4929  0.4511  0.1104
35207SOL    HW112736   4.480   9.867   3.196  0.6949  0.1484  0.0088
35207SOL    HW212737   4.414   9.752   3.123 -2.1225  0.2980  2.1483
35208SOL     OW12738   7.026   8.771  10.928  0.4633  0.1354 -0.7388
35208SOL    HW112739   6.994   8.860  10.947  0.5581  0.8177 -3.3503
35208SOL    HW212740   7.119   8.774  10.950  0.6646  0.9945 -1.6112
35209SOL     OW12741   0.098   6.651   4.535  0.0970 -0.6558  0.2951
35209SOL    HW112742   0.017   6.600   4.544 -1.7159  2.1736  1.3126
35209SOL    HW212743   0.086   6.700   4.454  0.6491  0.0420  0.6331
35210SOL     OW12744   9.798   9.935   7.864 -0.2498 -0.7815  0.2054
35210SOL    HW112745   9.713   9.962   7.829  0.4152 -0.2223 -1.0737
35210SOL    HW212746   9.825   9.863   7.806  0.7884  0.0231 -0.3468
35211SOL     OW12747  12.272   9.199   6.928 -0.4623  0.2015  0.1422
35211SOL    HW112748  12.348   9.244   6.964 -0.3277  1.2291 -1.3566
35211SOL    HW212749  12.286   9.198   6.834 -1.0557 -1.9674  0.0070
35212SOL     OW12750   6.769   0.225   8.415  0.1291  0.8344  0.3630
35212SOL    HW112751   6.745   0.228   8.508  0.9509 -1.0747  0.6931
35212SOL    HW212752   6.860   0.252   8.412 -0.0960  1.5811 -0.0017
35213SOL     OW12753  11.149  12.876   1.690  0.3378 -1.0002  0.5206
35213SOL    HW112754  11.096  12.950   1.662 -1.1442 -1.9856  0.6146
35213SOL    HW212755  11.096  12.831   1.755  0.5611 -2.9458 -0.5621
35214SOL     OW12756   0.857   2.233   4.529  0.2116 -0.2109  0.1744
35214SOL    HW112757   0.778   2.272   4.567 -0.2172 -1.5990  0.7854
35214SOL    HW212758   0.928   2.264   4.585  0.2055  1.4458 -0.6715
35215SOL     OW12759  11.491   8.912  11.662  0.1348 -0.7001 -0.4809
35215SOL    HW112760  11.476   8.907  11.756 -3.2854  0.1422 -0.8460
35215SOL    HW212761  11.540   8.994  11.650  0.2130 -0.5917  0.5289
35216SOL     OW12762   4.659   1.694   3.483  0.5958 -0.2863  0.0353
35216SOL    HW112763   4.566   1.678   3.499  0.8306 -0.9282  0.7964
35216SOL    HW212764   4.698   1.607   3.476  0.8723 -0.0579 -2.0952
35217SOL     OW12765   9.222  10.341   5.572  0.3070 -0.7428  0.3865
35217SOL    HW112766   9.172  10.392   5.508  0.0343 -0.3268  0.9305
35217SOL    HW212767   9.190  10.371   5.657  0.8032 -1.1633  0.7231
35218SOL     OW12768   1.925  11.296   8.089 -0.2847  0.5995  0.2047
35218SOL    HW112769   2.008  11.325   8.128  0.1585  0.9302 -0.9378
35218SOL    HW212770   1.943  11.293   7.995 -1.2180 -0.5098  0.0459
35219SOL     OW12771   2.113   6.683   6.858  0.5859 -0.1084  0.8477
35219SOL    HW112772   2.102   6.643   6.944 -1.2879 -0.0108  0.6925
35219SOL    HW212773   2.105   6.610   6.796  0.4125  0.0422  0.6927
35220SOL     OW12774   4.219   3.965   5.944  0.2591 -0.1893  0.3596
35220SOL    HW112775   4.297   3.998   5.989 -0.3518  1.1169  0.4886
35220SOL    HW212776   4.250   3.888   5.896  1.1869 -0.9181  2.0248
35221SOL     OW12777   1.250   4.203  11.874 -0.0101 -0.1841 -0.1267
35221SOL    HW112778   1.176   4.181  11.931 -0.7131  0.5018 -0.7472
35221SOL    HW212779   1.233   4.294  11.847  0.8625 -0.1445 -0.5814
35222SOL     OW12780   7.543   9.922  10.431 -0.0562  0.2836  0.0895
35222SOL    HW112781   7.515   9.992  10.490  0.7783  0.9654 -0.3028
35222SOL    HW212782   7.478   9.923  10.361 -1.7024 -1.2568  1.4678
35223SOL     OW12783   2.417   7.346   1.354 -0.4435  0.3685  0.2041
35223SOL    HW112784   2.509   7.319   1.356 -0.4827  0.2542  0.6250
35223SOL    HW212785   2.395   7.364   1.445 -1.2721 -1.1028  0.3365
35224SOL     OW12786   6.238   3.475   2.068 -0.5341  0.1664  0.2196
35224SOL    HW112787   6.148   3.476   2.035 -0.4345  0.3280 -0.0458
35224SOL    HW212788   6.290   3.513   1.998 -0.3452  0.6760  0.6300
35225SOL     OW12789   6.702  11.494   5.917 -0.5600  0.0132  0.0241
35225SOL    HW112790   6.622  11.514   5.965  0.4867 -0.0028  1.8500
35225SOL    HW212791   6.748  11.577   5.909  1.1757 -0.5786  2.7281
35226SOL     OW12792   8.799   4.694   9.380  0.0755  0.2847 -0.4031
35226SOL    HW112793   8.780   4.662   9.292  0.8280 -0.1722 -0.4040
35226SOL    HW212794   8.852   4.625   9.420  1.4815  1.3821 -0.3038
35227SOL     OW12795   6.070   6.496   6.122  0.0229 -0.2949  0.0353
35227SOL    HW112796   6.037   6.472   6.209  1.2705 -0.1897  0.5631
35227SOL    HW212797   6.100   6.413   6.084 -0.1316 -0.2791 -0.1211
35228SOL     OW12798   1.326  11.055   3.086  0.1916  0.6697  0.3923
35228SOL    HW112799   1.309  10.971   3.128  0.3531 -0.4440 -1.6360
35228SOL    HW212800   1.262  11.114   3.124  0.0417 -0.3506  1.8415
35229SOL     OW12801   5.650   8.851   2.952  0.3622  0.1830  0.1449
35229SOL    HW112802   5.596   8.787   2.999  0.1049  0.8298  0.7396
35229SOL    HW212803   5.605   8.934   2.963  1.5121  0.7618  0.7232
35230SOL     OW12804   4.597   4.980   6.037 -0.5472  0.6953  0.0877
35230SOL    HW112805   4.573   5.026   6.117 -0.3147  0.5859  0.2197
35230SOL    HW212806   4.522   4.923   6.019 -0.1490 -0.0857  0.8285
35231SOL     OW12807   0.998   4.045   2.871 -0.1884 -0.0853  0.0483
35231SOL    HW112808   0.958   3.987   2.936 -0.2902  1.9677  1.9372
35231SOL    HW212809   1.084   4.006   2.855  0.0710 -0.3686  1.8810
35232SOL     OW12810  12.619   2.524  12.517 -0.0092 -0.5342 -0.4348
35232SOL    HW112811  12.554   2.591  12.496  0.7660 -0.2099 -1.9513
35232SOL    HW212812  12.683   2.569  12.572  0.8177  0.1897 -1.9171
35233SOL     OW12813   2.319   4.493   3.096  0.2801 -0.4252 -0.2034
35233SOL    HW112814   2.223   4.500   3.101  0.1858 -1.6687 -0.0515
35233SOL    HW212815   2.341   4.531   3.011 -0.1359  1.6198  0.5213
35234SOL     OW12816   6.756   2.089   1.790 -0.0825 -0.2284 -0.1483
35234SOL    HW112817   6.677   2.141   1.808 -0.2556 -0.4588 -0.2457
35234SOL    HW212818   6.808   2.145   1.732 -1.4519 -1.1981 -2.4184
35235SOL     OW12819   9.068   5.902  10.546 -0.0494 -0.6845 -0.3104
35235SOL    HW112820   9.066   5.870  10.456  1.9109  0.5172 -0.8595
35235SOL    HW212821   9.003   5.972  10.548 -0.4482 -1.0410 -0.6436
35236SOL     OW12822   8.730   0.369   9.356  0.5259 -0.1843  0.1242
35236SOL    HW112823   8.824   0.353   9.352  0.3226 -1.9205  1.3820
35236SOL    HW212824   8.701   0.320   9.433 -1.4843 -0.0606 -0.5163
35237SOL     OW12825   1.320   3.025   6.536  0.5227 -0.1061  0.2047
35237SOL    HW112826   1.311   2.974   6.616  1.3120 -3.0602 -1.4108
35237SOL    HW212827   1.389   2.979   6.487 -0.2700  1.2725 -2.3673
35238SOL     OW12828   9.505   1.554   3.952 -0.0568 -0.6183 -0.7052
35238SOL    HW112829   9.488   1.640   3.989  2.3405  0.1530 -1.2448
35238SOL    HW212830   9.462   1.493   4.011  0.5715  0.7885  1.2920
35239SOL     OW12831   1.177   9.550   2.865 -0.5946  0.1549 -0.2791
35239SOL    HW112832   1.157   9.461   2.836 -2.9121  1.1713 -2.0940
35239SOL    HW212833   1.194   9.598   2.784 -2.2651  1.9955  0.4037
35240SOL     OW12834   3.948   7.321   6.641 -0.1434 -0.5635  0.2703
35240SOL    HW112835   4.022   7.376   6.667 -0.2691  0.5642 -1.5584
35240SOL    HW212836   3.871   7.379   6.648 -0.5735 -1.1280  0.2953
35241SOL     OW12837   2.172   8.621   0.726  0.0656  0.9856 -0.5226
35241SOL    HW112838   2.195   8.695   0.783  0.7676 -0.5672  1.3227
35241SOL    HW212839   2.228   8.550   0.756 -1.6611 -0.7392 -1.2154
35242SOL     OW12840   4.639   5.566   1.415 -0.2418 -0.5272  0.1228
35242SOL    HW112841   4.671   5.635   1.473 -0.1198  0.3755 -0.9787
35242SOL    HW212842   4.573   5.520   1.466 -0.5072  0.5762  0.7928
35243SOL     OW12843  12.388   7.639   6.230 -0.3223 -0.4086 -0.3822
35243SOL    HW112844  12.335   7.686   6.165  0.4893  0.7960 -0.2079
35243SOL    HW212845  12.327   7.577   6.269 -1.5422  0.7011 -0.4219
35244SOL     OW12846   8.473   5.471   8.156  0.0305 -0.4198  0.9684
35244SOL    HW112847   8.489   5.387   8.198 -0.5287 -1.0003  0.0390
35244SOL    HW212848   8.524   5.533   8.208  0.6433 -1.3573  1.5187
35245SOL     OW12849   5.971   4.011   7.634 -0.7122 -0.1049  0.1271
35245SOL    HW112850   6.054   3.969   7.615 -0.0196  1.6194 -0.8426
35245SOL    HW212851   5.974   4.028   7.728  0.1138  0.1191  0.0673
35246SOL     OW12852   9.455  11.735   0.185 -0.0574 -0.2929  0.1785
35246SOL    HW112853   9.384  11.794   0.211 -0.1685  0.1637 -1.0609
35246SOL    HW212854   9.414  11.649   0.179  0.1135 -0.5555  2.0512
35247SOL     OW12855   4.968   5.325   2.866 -0.4564 -0.2495 -0.3252
35247SOL    HW112856   5.015   5.301   2.787 -0.2692  0.4845 -0.4381
35247SOL    HW212857   4.902   5.256   2.876 -0.7628 -0.1217 -1.3538
35248SOL     OW12858  10.718   2.265   5.231 -0.1937 -0.0122  0.3696
35248SOL    HW112859  10.634   2.268   5.276 -0.6652 -0.8518 -0.4249
35248SOL    HW212860  10.783   2.261   5.301 -0.9231 -1.5345  1.0173
35249SOL     OW12861   1.726   7.748  10.933 -0.2618  0.2263 -0.1828
35249SOL    HW112862   1.694   7.739  10.844  0.7836 -0.4648 -0.5119
35249SOL    HW212863   1.649   7.769  10.985 -1.1678 -0.9881 -0.9849
35250SOL     OW12864   4.741  10.183  11.453 -0.0543 -0.2389  0.2581
35250SOL    HW112865   4.683  10.237  11.399 -2.2058 -0.9989  1.6646
35250SOL    HW212866   4.810  10.243  11.482 -0.5095  0.8865 -0.8886
35251SOL     OW12867  10.783  10.585   0.140 -0.4142 -0.3940  0.1270
35251SOL    HW112868  10.766  10.559   0.231 -0.4009 -2.2733 -0.3635
35251SOL    HW212869  10.845  10.520   0.107  0.1167  0.6550 -1.0414
35252SOL     OW12870   4.789   9.379   3.598 -0.5226 -0.3586  0.5782
35252SOL    HW112871   4.821   9.446   3.659  0.3479  3.5167 -3.5940
35252SOL    HW212872   4.858   9.372   3.532 -2.3139 -2.6377 -1.2284
35253SOL     OW12873   5.899   5.715   7.264  0.1024 -0.4418  0.0560
35253SOL    HW112874   5.911   5.744   7.354  0.1650 -0.4468  0.0494
35253SOL    HW212875   5.833   5.775   7.228  1.9322  1.2412 -0.6681
35254SOL     OW12876  11.075  11.871   9.102  0.1352  0.0838 -0.0162
35254SOL    HW112877  10.997  11.927   9.093  0.9134  0.9568 -1.9010
35254SOL    HW212878  11.131  11.896   9.029  1.7727 -1.2324  0.7152
35255SOL     OW12879  12.623   9.780  11.904 -0.5606  0.0776 -0.2235
35255SOL    HW112880  12.624   9.797  11.998 -0.5825  0.2452 -0.2534
35255SOL    HW212881  12.716   9.780  11.879 -0.5380 -0.2703 -0.1485
35256SOL     OW12882   8.112   7.304   3.764 -0.0717  0.1642 -0.4538
35256SOL    HW112883   8.197   7.269   3.791 -0.4941 -0.9375 -0.5437
35256SOL    HW212884   8.124   7.325   3.671 -0.5009 -1.9439 -1.0198
35257SOL     OW12885   4.595   9.131   2.523 -0.0504 -0.5268 -0.0100
35257SOL    HW112886   4.581   9.225   2.533  1.5878 -0.2106 -0.3696
35257SOL    HW212887   4.510   9.091   2.543 -0.4040  0.9212  1.5583
35258SOL     OW12888   7.202  10.417  11.916 -0.1233 -0.4095  0.0398
35258SOL    HW112889   7.258  10.420  11.839  1.4257 -0.1092  1.1162
35258SOL    HW212890   7.202  10.325  11.943  0.1147 -0.3560  0.2233
35259SOL     OW12891   4.955  10.597   6.768  0.5834 -0.2707  0.1230
35259SOL    HW112892   5.036  10.546   6.779  0.3444 -0.5662  0.5123
35259SOL    HW212893   4.965  10.670   6.829  1.8314  1.3068 -1.8528
35260SOL     OW12894   7.749   9.064   5.722 -0.0353  0.0115 -0.2642
35260SOL    HW112895   7.663   9.071   5.680 -0.1369  0.2398 -0.0157
35260SOL    HW212896   7.768   8.970   5.722 -0.1334 -0.0121 -0.6189
35261SOL     OW12897   1.654   8.651   3.493  0.2872  0.2339  0.1364
35261SOL    HW112898   1.676   8.665   3.400 -0.8072 -0.8275 -0.3184
35261SOL    HW212899   1.617   8.734   3.522  1.4132  0.8548 -0.1122
35262SOL     OW12900   6.538   6.229  12.573 -0.0783  0.0913  0.2366
35262SOL    HW112901   6.602   6.298  12.587 -0.2398  0.4274 -0.5926
35262SOL    HW212902   6.589   6.156  12.538  0.0730 -0.1641  0.9917
35263SOL     OW12903   1.026   7.823   1.999  0.1386 -0.0583  0.1437
35263SOL    HW112904   0.967   7.842   1.926 -0.9472 -0.3846  0.9184
35263SOL    HW212905   0.975   7.841   2.077 -0.1158 -3.4868  0.9251
35264SOL     OW12906   1.804   6.984   0.767 -0.1496 -0.0858  0.0842
35264SOL    HW112907   1.734   7.047   0.755 -0.0050 -0.0054 -0.3750
35264SOL    HW212908   1.813   6.975   0.862  0.4131  1.2459  0.1884
35265SOL     OW12909   6.415   6.136   5.327 -0.3416 -0.1687 -0.5760
35265SOL    HW112910   6.380   6.144   5.239  0.0813 -1.0450 -0.8378
35265SOL    HW212911   6.502   6.176   5.322 -0.2180 -0.4400 -0.6253
35266SOL     OW12912   1.551   4.968   4.413  0.4507  0.3140  0.0039
35266SOL    HW112913   1.461   4.964   4.445 -0.1097  0.1230 -1.5014
35266SOL    HW212914   1.588   5.046   4.453 -0.5224  0.6240  0.3195
35267SOL     OW12915   1.653   3.709   0.404  0.5105 -0.0578 -0.1466
35267SOL    HW112916   1.691   3.797   0.405  1.2603 -0.3650  1.0582
35267SOL    HW212917   1.595   3.707   0.481  1.8732 -1.1521  0.9095
35268SOL     OW12918   5.726   6.700   9.052 -0.1258  0.4582  0.6544
35268SOL    HW112919   5.790   6.756   9.008 -0.0164  0.3436  0.6691
35268SOL    HW212920   5.714   6.625   8.995 -0.8866  0.8783  0.2348
35269SOL     OW12921   0.955   8.927   2.368  0.1032 -0.0233  0.2628
35269SOL    HW112922   0.865   8.913   2.396  0.6849 -0.5019  2.0466
35269SOL    HW212923   0.971   9.020   2.383 -0.0696  0.0420  0.0377
35270SOL     OW12924  12.066   2.819  11.050  0.2177  0.2552 -0.3180
35270SOL    HW112925  12.079   2.726  11.067  1.3472  0.1755 -1.4680
35270SOL    HW212926  12.043   2.823  10.957 -0.2420  1.1037 -0.1814
35271SOL     OW12927   7.887   8.229  12.364  0.0128  1.1119  0.6675
35271SOL    HW112928   7.880   8.325  12.364  0.3847  1.1741 -0.8515
35271SOL    HW212929   7.949   8.210  12.293 -0.6481 -0.2914  0.4359
35272SOL     OW12930  10.645   3.676   0.942  0.1940 -0.2538  0.2475
35272SOL    HW112931  10.672   3.754   0.991  0.5242 -0.1225 -0.1346
35272SOL    HW212932  10.728   3.637   0.912  0.2042 -2.0910  2.4350
35273SOL     OW12933   0.745   7.952   2.457 -0.0986  0.2160  1.0971
35273SOL    HW112934   0.761   8.046   2.462  2.9556  0.1321 -2.2528
35273SOL    HW212935   0.806   7.913   2.521  0.9834  0.5077  0.2841
35274SOL     OW12936   1.526  12.478   8.570  0.7384 -0.0839 -0.2528
35274SOL    HW112937   1.551  12.554   8.623  0.3150 -0.2403  0.1784
35274SOL    HW212938   1.504  12.411   8.634  2.3241 -1.0020 -0.6133
35275SOL     OW12939  12.106   3.906   7.957 -0.0337  0.6843 -0.1017
35275SOL    HW112940  12.077   3.814   7.953 -0.7090  0.8510  0.8157
35275SOL    HW212941  12.051   3.946   8.024 -0.1069  1.9034 -0.8513
35276SOL     OW12942   1.802   7.089  11.442  0.0854  0.0127 -0.0015
35276SOL    HW112943   1.786   7.098  11.536  0.0761 -4.5811  0.6859
35276SOL    HW212944   1.721   7.052  11.407  0.9424 -0.7250 -1.2746
35277SOL     OW12945  12.559   8.456   2.689 -0.1868 -0.9669 -0.3381
35277SOL    HW112946  12.492   8.431   2.626 -1.3814 -0.7665  0.8287
35277SOL    HW212947  12.548   8.395   2.762 -0.4894  0.3586  0.7683
35278SOL     OW12948   0.624   1.019   1.284 -0.0638  0.1075  0.1213
35278SOL    HW112949   0.613   0.984   1.196  0.5693 -0.9068  0.4291
35278SOL    HW212950   0.708   1.065   1.282  0.5889 -1.0100  0.5054
35279SOL     OW12951   3.374   9.890   7.244  0.7509 -0.5829  0.1220
35279SOL    HW112952   3.312   9.914   7.175  1.9148 -2.9258 -1.9173
35279SOL    HW212953   3.320   9.863   7.318 -0.5493  1.7814  0.1087
35280SOL     OW12954   9.609   0.293   7.001 -0.5979 -0.9904 -0.1762
35280SOL    HW112955   9.645   0.290   7.090  0.5269 -0.8649 -0.6099
35280SOL    HW212956   9.683   0.272   6.944 -0.7883  0.9670 -1.2284
35281SOL     OW12957   1.755   5.866   9.816  0.3914 -0.1548  0.0537
35281SOL    HW112958   1.821   5.929   9.844  0.5148  0.7541 -2.0593
35281SOL    HW212959   1.752   5.801   9.886  0.4071  2.0625  2.2629
35282SOL     OW12960   0.901   7.179   6.325  0.6199 -0.0974  0.1209
35282SOL    HW112961   0.967   7.234   6.368 -0.0355  0.8415 -0.0248
35282SOL    HW212962   0.922   7.090   6.352  0.0710  0.4701  2.6220
35283SOL     OW12963   5.196  10.956   0.741 -0.0030 -0.3033  0.7975
35283SOL    HW112964   5.181  10.980   0.649  0.5990  3.3819  1.5076
35283SOL    HW212965   5.109  10.962   0.781 -0.1280 -1.0746  0.6534
35284SOL     OW12966   2.444   6.291   6.031  0.6154 -0.4480 -0.1905
35284SOL    HW112967   2.511   6.284   6.100  0.7457 -0.4694 -0.3177
35284SOL    HW212968   2.493   6.284   5.949  0.2678 -2.1522 -0.2764
35285SOL     OW12969   3.389   2.542   4.637 -0.4573  0.3907 -0.2991
35285SOL    HW112970   3.468   2.573   4.681 -0.6103  0.5024 -0.1033
35285SOL    HW212971   3.351   2.620   4.596 -1.1988  0.5958  0.7463
35286SOL     OW12972   7.210   1.855   0.558 -0.4781 -0.3993  0.6447
35286SOL    HW112973   7.279   1.860   0.493  0.0991  1.8583  1.3262
35286SOL    HW212974   7.141   1.913   0.524 -0.7960 -0.3531  1.3467
35287SOL     OW12975  12.152   1.698   8.355  0.1437 -0.4369 -0.4996
35287SOL    HW112976  12.159   1.634   8.284  1.6683 -0.0432 -0.7283
35287SOL    HW212977  12.224   1.759   8.340 -0.3599  0.4660  0.5923
35288SOL     OW12978  12.168  10.780   7.397 -0.0020  0.1199  0.3445
35288SOL    HW112979  12.220  10.746   7.325  0.0312 -1.5265  1.1001
35288SOL    HW212980  12.086  10.808   7.357 -0.0025 -0.8312 -0.3353
35289SOL     OW12981   7.662   1.713   1.892  0.2025 -0.3796  0.2148
35289SOL    HW112982   7.578   1.723   1.938 -0.0656 -0.2895 -0.2954
35289SOL    HW212983   7.642   1.733   1.801  1.4341  2.9403  0.5491
35290SOL     OW12984   5.120   0.247  11.951  0.4413 -0.0673  0.3658
35290SOL    HW112985   5.068   0.324  11.930 -0.4174 -0.6483  0.3155
35290SOL    HW212986   5.070   0.174  11.915  0.9250 -0.7046  0.9672
35291SOL     OW12987   3.418   2.686  12.864  0.1514  0.4073 -0.0154
35291SOL    HW112988   3.505   2.724  12.875  0.4269 -0.0679 -0.4916
35291SOL    HW212989   3.357   2.756  12.888  0.6437  1.1158 -0.7689
35292SOL     OW12990   6.507  12.582  12.858 -0.1008  0.7312  0.0303
35292SOL    HW112991   6.497  12.597  12.952 -1.0410 -1.2873  0.3249
35292SOL    HW212992   6.420  12.596  12.823 -0.0609  0.1641 -0.3052
35293SOL     OW12993   7.796   7.356   4.860 -0.7747 -0.0193 -0.3643
35293SOL    HW112994   7.891   7.355   4.855 -0.7151 -1.0359  0.7139
35293SOL    HW212995   7.775   7.318   4.945 -2.1288  1.0091 -0.2027
35294SOL     OW12996  12.074   1.459   2.043  0.3333 -0.1951  0.5171
35294SOL    HW112997  12.117   1.491   1.964 -1.2566 -0.0056 -0.3253
35294SOL    HW212998  12.144   1.420   2.095  1.4919  0.0937 -0.7702
35295SOL     OW12999   8.537  12.155   1.684  0.2229 -0.3747 -0.0988
35295SOL    HW113000   8.570  12.066   1.696 -0.8292 -0.9635 -1.2933
35295SOL    HW213001   8.456  12.157   1.735  0.4469  0.0401  0.2492
35296SOL     OW13002   8.811   3.674  12.735  0.4199 -0.1457  0.3527
35296SOL    HW113003   8.848   3.695  12.650 -2.7002 -0.6542 -1.2712
35296SOL    HW213004   8.763   3.753  12.760 -0.3954 -0.7050  0.6055
35297SOL     OW13005  10.535   6.601  11.516  0.1449 -0.5719 -0.1892
35297SOL    HW113006  10.570   6.640  11.436  1.6137  0.0257  0.7061
35297SOL    HW213007  10.479   6.668  11.554 -1.1981 -1.1446 -1.0857
35298SOL     OW13008   5.105   4.693  11.598 -0.1072  0.1187  0.0718
35298SOL    HW113009   5.073   4.604  11.602 -0.5948  0.3135  0.5636
35298SOL    HW213010   5.033   4.747  11.631  0.7122  0.5556  1.2481
35299SOL     OW13011   3.938   6.132   7.847 -0.0810  0.2774  0.0036
35299SOL    HW113012   4.026   6.096   7.836  0.1300  0.5053  0.9098
35299SOL    HW213013   3.933   6.203   7.783  0.5728  0.5822  0.2819
35300SOL     OW13014   8.355  11.468   9.199  0.0115 -0.7642 -0.1764
35300SOL    HW113015   8.310  11.406   9.141  0.8136 -0.5082 -1.0868
35300SOL    HW213016   8.447  11.460   9.177  0.1178  0.8730 -0.4281
35301SOL     OW13017   6.406   4.088   9.489  0.6402  0.0196 -0.0789
35301SOL    HW113018   6.356   4.069   9.568  0.4274 -0.8698 -0.4169
35301SOL    HW213019   6.350   4.146   9.437 -0.0939 -1.0373 -0.4933
35302SOL     OW13020   5.546   9.093   2.985  0.0746  0.1527  0.0051
35302SOL    HW113021   5.555   9.154   2.912  0.7563  0.0010 -0.0493
35302SOL    HW213022   5.573   9.144   3.062 -0.0432  0.1330  0.0588
35303SOL     OW13023   9.228   9.751   3.052  0.1759  0.0045 -0.9765
35303SOL    HW113024   9.321   9.727   3.051  0.6325  1.6760 -1.3816
35303SOL    HW213025   9.227   9.844   3.030 -1.3323  0.8892  2.2129
35304SOL     OW13026   6.128   9.800  12.366  0.5151 -0.2374  0.0500
35304SOL    HW113027   6.099   9.891  12.356 -1.4372 -0.6975  0.9624
35304SOL    HW213028   6.190   9.786  12.295  0.0720  1.5110 -0.7261
35305SOL     OW13029   4.738  10.941   3.567 -0.0153  0.3422  0.2569
35305SOL    HW113030   4.703  10.852   3.563  1.8548 -0.3980 -0.9820
35305SOL    HW213031   4.685  10.984   3.634 -0.4088 -1.9528  1.5471
35306SOL     OW13032   4.123  12.801   7.057 -0.2952 -0.1428 -0.2298
35306SOL    HW113033   4.149  12.891   7.038  0.6038 -0.4963 -0.7270
35306SOL    HW213034   4.164  12.781   7.141 -1.6313  0.3545  0.5673
35307SOL     OW13035   4.812   7.184   1.256 -0.4361 -0.0815 -0.0096
35307SOL    HW113036   4.740   7.164   1.316  0.3110 -0.6562  0.7286
35307SOL    HW213037   4.870   7.108   1.263  1.2955  1.2576  1.0142
35308SOL     OW13038  11.537   8.399   6.240 -0.1189 -0.1075 -0.5913
35308SOL    HW113039  11.541   8.385   6.145 -2.1392 -1.5079 -0.5434
35308SOL    HW213040  11.506   8.488   6.250 -3.0303 -0.9247 -1.4065
35309SOL     OW13041   4.771   2.749   1.414  0.4274  0.3947 -0.0038
35309SOL    HW113042   4.822   2.830   1.423 -0.2539  0.8330 -0.0280
35309SOL    HW213043   4.698   2.760   1.475  0.5314 -0.3655  0.2634
35310SOL     OW13044   7.593   8.100   5.351 -0.1324  0.4305  0.9514
35310SOL    HW113045   7.661   8.131   5.411 -1.6371  0.6327  2.6545
35310SOL    HW213046   7.609   8.006   5.345  0.7257  0.5830  0.7607
35311SOL     OW13047   7.591  10.730  10.580 -0.4290  0.7773  0.6161
35311SOL    HW113048   7.512  10.707  10.532  0.4685 -0.0012 -0.5317
35311SOL    HW213049   7.658  10.742  10.513  0.8733 -0.3620  1.6460
35312SOL     OW13050   4.130   4.067  10.609  0.2972  0.2671  0.5137
35312SOL    HW113051   4.135   4.035  10.519 -0.7465  0.9827  0.1883
35312SOL    HW213052   4.176   4.151  10.608 -0.4026  0.6555  0.4566
35313SOL     OW13053   2.855   3.165  11.318 -0.3544 -0.2791 -0.2778
35313SOL    HW113054   2.814   3.078  11.318  1.1380 -1.0297 -1.6977
35313SOL    HW213055   2.913   3.164  11.242  0.2631  1.7107  0.1189
35314SOL     OW13056   4.282   2.691   2.803 -0.0080  0.2425  0.2008
35314SOL    HW113057   4.320   2.629   2.865  0.6072  0.6142  0.2000
35314SOL    HW213058   4.334   2.771   2.814 -1.7233  1.2770  1.3044
35315SOL     OW13059  10.780  11.516   3.369 -0.4752  0.0648  1.0438
35315SOL    HW113060  10.692  11.483   3.350 -0.2166  0.2025 -0.6284
35315SOL    HW213061  10.828  11.441   3.402 -0.5492 -0.6971 -0.4787
35316SOL     OW13062  11.776   7.206   9.999  0.2621  0.0844  0.5440
35316SOL    HW113063  11.747   7.278  10.055  0.0448  0.7486 -0.3998
35316SOL    HW213064  11.712   7.136  10.016  0.2141  0.2672  1.1387
35317SOL     OW13065   9.396   5.093  10.734  0.3575 -0.2324  0.5195
35317SOL    HW113066   9.329   5.158  10.712  2.0937  2.0194  1.5052
35317SOL    HW213067   9.406   5.041  10.654 -1.2281  0.5486 -0.2424
35318SOL     OW13068   3.434  11.173   3.581  0.2706  0.4637 -0.1414
35318SOL    HW113069   3.411  11.089   3.621  2.8681 -0.1184  0.3090
35318SOL    HW213070   3.408  11.238   3.646  0.6764 -0.2027  0.7104
35319SOL     OW13071  12.500   7.867   2.021 -0.3947  0.3025  0.3434
35319SOL    HW113072  12.409   7.851   1.998 -0.3291  0.4902 -0.0681
35319SOL    HW213073  12.506   7.962   2.028 -0.1790  0.3077  0.1251
35320SOL     OW13074  12.964   7.507   1.412 -0.4013 -0.1842 -0.4628
35320SOL    HW113075  13.049   7.517   1.370 -0.0862 -1.4924 -0.1699
35320SOL    HW213076  12.984   7.468   1.497 -0.9553  2.9706  1.2669
35321SOL     OW13077   3.617   1.091   7.135  0.3762  0.8063 -0.4837
35321SOL    HW113078   3.646   1.038   7.210  0.6311  1.2644 -0.2508
35321SOL    HW213079   3.522   1.082   7.134  0.3793  0.7261 -0.1526
35322SOL     OW13080  11.733   7.703   9.038 -0.1751  0.6248  0.3874
35322SOL    HW113081  11.640   7.702   9.060 -0.2062  1.3799  0.3062
35322SOL    HW213082  11.777   7.728   9.119  0.0804 -1.0104  0.7956
35323SOL     OW13083  11.474  12.602   9.047 -0.3108 -0.6425 -0.1575
35323SOL    HW113084  11.563  12.639   9.042 -0.6706  0.1669 -0.6638
35323SOL    HW213085  11.459  12.590   9.140  0.3532 -0.8489 -0.0657
35324SOL     OW13086   8.763  10.020   9.550  0.5367  0.4109  0.5880
35324SOL    HW113087   8.831  10.047   9.488  0.7232 -3.5398 -1.1884
35324SOL    HW213088   8.806  10.024   9.635  2.2366  0.3502 -0.2140
35325SOL     OW13089   4.988  10.626  11.677 -0.1936 -0.2681  0.3161
35325SOL    HW113090   5.075  10.646  11.640 -1.2420  0.7547 -1.7688
35325SOL    HW213091   5.006  10.565  11.748  2.1844 -0.6535 -0.5211
35326SOL     OW13092  11.006   6.516  11.732 -0.2296 -0.5254  0.0147
35326SOL    HW113093  10.933   6.576  11.753 -1.2794 -2.1039  1.0966
35326SOL    HW213094  10.999   6.502  11.637  0.7048  1.8333 -0.4779
35327SOL     OW13095   8.122   9.688  12.734  0.1593 -0.1164 -0.0877
35327SOL    HW113096   8.084   9.738  12.805  0.3820 -0.2511  0.1288
35327SOL    HW213097   8.151   9.606  12.775  0.5063 -0.0948 -0.2861
35328SOL     OW13098   7.310   9.036   8.522 -0.4451 -0.7378 -0.4279
35328SOL    HW113099   7.368   9.098   8.567 -1.8584  1.0550 -0.9430
35328SOL    HW213100   7.285   8.973   8.589 -0.5150  0.4111  0.6549
35329SOL     OW13101   7.537   7.671   2.638 -0.4184  0.0927 -0.5596
35329SOL    HW113102   7.496   7.691   2.721  1.7820 -0.3876  0.7201
35329SOL    HW213103   7.491   7.593   2.606 -0.6974 -0.2482  0.6548
35330SOL     OW13104   5.599   1.014   6.393 -1.2920  0.2850 -0.0448
35330SOL    HW113105   5.548   1.014   6.474 -1.0468 -0.1681  0.1133
35330SOL    HW213106   5.577   1.097   6.351 -0.6619  0.9904  0.9749
35331SOL     OW13107   9.501   1.013   8.622  0.6565 -0.0496  0.0379
35331SOL    HW113108   9.539   0.991   8.707  1.1297  0.3126 -0.0722
35331SOL    HW213109   9.567   0.984   8.559  0.7271  0.5225 -0.1575
35332SOL     OW13110   9.256   2.139   8.468  0.2179 -0.5710  0.1102
35332SOL    HW113111   9.259   2.203   8.396  0.5706 -1.3602 -0.6014
35332SOL    HW213112   9.288   2.187   8.544 -0.0575  0.2562 -0.2767
35333SOL     OW13113   4.205   5.177   3.025 -0.8437  0.3698  0.0845
35333SOL    HW113114   4.278   5.129   3.064 -1.4030 -0.1387  0.5020
35333SOL    HW213115   4.131   5.117   3.028 -2.7194  2.4518  4.2795
35334SOL     OW13116   4.045   2.635  10.395  0.1154  0.0130 -0.5762
35334SOL    HW113117   4.019   2.709  10.450 -1.2350 -0.6906 -0.2133
35334SOL    HW213118   3.991   2.562  10.427  2.1712 -1.4108 -0.1919
35335SOL     OW13119   5.978   5.727   8.098  0.3528  0.0440  0.4207
35335SOL    HW113120   5.982   5.820   8.121  2.0122  0.3291 -0.7647
35335SOL    HW213121   6.057   5.690   8.137 -0.2097 -0.8401  0.7373
35336SOL     OW13122  10.151   0.639  10.881  0.3791  0.4772  0.0591
35336SOL    HW113123  10.133   0.600  10.795 -2.9129 -0.5249  1.0811
35336SOL    HW213124  10.172   0.730  10.862  1.2400 -0.0618 -1.8656
35337SOL     OW13125   9.147  12.462  11.534 -0.4645  0.7404 -0.1213
35337SOL    HW113126   9.122  12.397  11.469  1.8107 -0.3102 -0.0418
35337SOL    HW213127   9.228  12.428  11.572 -1.9922  0.9704  3.7580
35338SOL     OW13128   9.964   9.185  12.347  0.8031 -0.0518 -0.2446
35338SOL    HW113129   9.952   9.154  12.257  1.7871  1.2314 -0.8480
35338SOL    HW213130  10.053   9.219  12.349  0.9205 -0.3840  1.3344
35339SOL     OW13131   3.453   9.813   9.752  0.1232 -0.7109  0.2840
35339SOL    HW113132   3.508   9.890   9.772  2.0480 -1.9487  0.0548
35339SOL    HW213133   3.412   9.834   9.668  0.0562  0.3363  0.5594
35340SOL     OW13134   5.340   6.567   6.292  0.4020  0.1144 -0.5711
35340SOL    HW113135   5.435   6.556   6.302  0.2408 -1.4752 -0.4886
35340SOL    HW213136   5.331   6.637   6.227  1.5814  1.6251  0.8127
35341SOL     OW13137   1.159   6.379   5.172 -0.1334  0.3522  0.5970
35341SOL    HW113138   1.158   6.300   5.119  0.0994 -0.1378  1.3134
35341SOL    HW213139   1.109   6.357   5.250  0.5192  0.6804  1.1188
35342SOL     OW13140   8.439   5.420   0.888 -0.0200 -0.1812 -0.7612
35342SOL    HW113141   8.446   5.508   0.852 -0.5968 -0.4183 -1.4685
35342SOL    HW213142   8.528   5.384   0.879  1.2659  1.5801  2.9712
35343SOL     OW13143   7.122   3.641   9.440 -0.7132  0.2307 -0.3146
35343SOL    HW113144   7.069   3.578   9.390 -2.5642  0.4125  1.2900
35343SOL    HW213145   7.063   3.672   9.509  1.7898 -0.2451  2.1850
35344SOL     OW13146   2.921   2.721   6.858  0.2152 -0.4072 -0.2563
35344SOL    HW113147   2.919   2.637   6.904 -0.4280  0.0113  0.4844
35344SOL    HW213148   2.831   2.736   6.831  0.0075  0.8110  1.0168
35345SOL     OW13149   1.685   5.495   5.846 -0.3536  0.4809  0.4443
35345SOL    HW113150   1.767   5.542   5.859 -0.7200  1.3206 -0.1763
35345SOL    HW213151   1.669   5.500   5.751 -1.3227  0.6925  0.6031
35346SOL     OW13152   7.210   4.718  10.192 -0.0072  0.4937  0.3909
35346SOL    HW113153   7.290   4.670  10.170  0.0941  0.4534  0.8383
35346SOL    HW213154   7.217   4.734  10.286 -1.3107 -0.9742  0.7596
35347SOL     OW13155  12.323  10.441  11.422  0.4305 -0.1542  0.0703
35347SOL    HW113156  12.336  10.417  11.331 -1.6300 -0.5258 -0.1696
35347SOL    HW213157  12.365  10.371  11.472  2.0751  0.3440 -0.5415
35348SOL     OW13158  12.648   2.732   5.958  0.2084 -0.3677  0.0501
35348SOL    HW113159  12.622   2.798   5.894  0.1162 -1.2540 -0.8446
35348SOL    HW213160  12.578   2.733   6.023 -0.6555 -0.7581 -0.8504
35349SOL     OW13161   0.925   3.158   9.488  0.0158 -0.3366  0.2020
35349SOL    HW113162   0.870   3.091   9.448  1.3319 -1.4170  0.1289
35349SOL    HW213163   0.933   3.225   9.421 -1.8304  0.2450  0.5028
35350SOL     OW13164   5.992   3.265  11.475 -0.2587  0.0232 -0.2069
35350SOL    HW113165   5.940   3.305  11.406 -1.4216  0.6345  0.9826
35350SOL    HW213166   6.078   3.250  11.434 -1.1199 -0.3325 -1.9805
35351SOL     OW13167  11.139   0.683   3.916  0.7167 -0.7931 -0.1246
35351SOL    HW113168  11.067   0.714   3.970  0.0520 -1.3116 -0.6974
35351SOL    HW213169  11.101   0.613   3.863  1.3966 -0.4478 -1.1047
35352SOL     OW13170   2.909   8.973   1.804 -0.1890  0.0889  0.1097
35352SOL    HW113171   2.904   8.890   1.755 -2.3425  0.3690 -0.2761
35352SOL    HW213172   2.820   9.008   1.799  0.7909  2.7706 -0.2738
35353SOL     OW13173  12.182   5.852   7.413  0.0797 -0.2818  0.0029
35353SOL    HW113174  12.263   5.844   7.463 -0.0189  1.1721  0.4430
35353SOL    HW213175  12.204   5.907   7.339 -0.8752  1.7192  1.1195
35354SOL     OW13176   3.520  10.374  11.917 -0.2327  0.0257 -0.6784
35354SOL    HW113177   3.575  10.448  11.891 -1.9784  1.4369 -0.5925
35354SOL    HW213178   3.534  10.309  11.849 -0.8803  1.6479 -2.4603
35355SOL     OW13179   8.950   2.772   1.965  0.1647 -0.7119  0.0322
35355SOL    HW113180   9.021   2.793   2.025 -0.1682  0.2099  0.1129
35355SOL    HW213181   8.976   2.688   1.926  0.6692 -1.0271  1.0083
35356SOL     OW13182   3.200   1.699   0.183  0.2489  0.1364  0.3838
35356SOL    HW113183   3.273   1.750   0.218 -0.4506  1.3042  0.2096
35356SOL    HW213184   3.134   1.701   0.252 -0.0795  0.1341  0.0720
35357SOL     OW13185   7.261   3.903  12.559  0.0778  0.6540  0.2071
35357SOL    HW113186   7.289   3.832  12.501  2.3130  1.6524 -0.0299
35357SOL    HW213187   7.174   3.926  12.526  0.5886  0.0770 -1.7163
35358SOL     OW13188   8.801   9.304   5.089 -0.5771 -0.1290 -0.4365
35358SOL    HW113189   8.814   9.273   4.999  2.4458 -0.2817 -0.0391
35358SOL    HW213190   8.787   9.399   5.079 -2.0059 -0.3819 -1.1347
35359SOL     OW13191  11.752   9.608   4.630  0.7824  0.3186 -0.4113
35359SOL    HW113192  11.712   9.526   4.603 -0.0064  0.3733  0.5729
35359SOL    HW213193  11.832   9.582   4.676 -0.8151 -0.0693  2.2919
35360SOL     OW13194   8.518   0.620  11.154  0.2065  0.1786 -0.1563
35360SOL    HW113195   8.575   0.697  11.148  2.5159 -1.4731 -0.9483
35360SOL    HW213196   8.468   0.621  11.073 -0.8296  1.5723  0.4739
35361SOL     OW13197   9.038   7.981  11.527  0.2395 -0.4407  0.1720
35361SOL    HW113198   8.998   8.051  11.579  2.3949  0.3934  0.7927
35361SOL    HW213199   9.046   7.908  11.587  0.8013 -0.1792  0.4203
35362SOL     OW13200  11.628   9.005   6.907  0.2385  0.1822 -0.0617
35362SOL    HW113201  11.587   8.945   6.970  2.1892  1.4377  2.5855
35362SOL    HW213202  11.720   9.008   6.933  0.9580  1.5223 -2.4587
35363SOL     OW13203   6.323   3.269   5.924 -0.1155  0.2427 -0.0257
35363SOL    HW113204   6.304   3.260   5.830 -0.6466 -0.6759  0.1586
35363SOL    HW213205   6.238   3.281   5.965  0.1584  1.1235  0.2964
35364SOL     OW13206   2.999   2.198   3.349  0.1639  0.9446 -0.2254
35364SOL    HW113207   3.068   2.210   3.285 -0.2464  0.9610 -0.6700
35364SOL    HW213208   3.039   2.145   3.418  0.6294  0.9945 -0.4556
35365SOL     OW13209   5.782   6.825   4.390 -0.0382  0.0164  0.1664
35365SOL    HW113210   5.800   6.732   4.401 -0.1252  0.1056  1.2291
35365SOL    HW213211   5.756   6.835   4.299  2.7076 -0.5453 -0.7836
35366SOL     OW13212   4.620   8.948   7.111 -0.1496 -0.0856  0.2018
35366SOL    HW113213   4.708   8.975   7.084 -0.9346  3.0249  0.3045
35366SOL    HW213214   4.588   9.021   7.164 -2.3521 -1.6955  1.2646
35367SOL     OW13215   3.821   9.995   5.489 -0.6844  0.4277 -1.1519
35367SOL    HW113216   3.869  10.073   5.461 -1.3017  1.2022 -0.1207
35367SOL    HW213217   3.874   9.922   5.458  0.8410  1.2522 -0.5768
35368SOL     OW13218   2.101   4.977  12.197  0.6206 -0.1046  0.1369
35368SOL    HW113219   2.022   4.923  12.188  1.7427 -1.8520  0.2089
35368SOL    HW213220   2.167   4.931  12.145  1.9121  0.6659  1.0444
35369SOL     OW13221   2.557  10.582   3.767 -0.1443 -0.3942 -0.5518
35369SOL    HW113222   2.579  10.676   3.769  1.2291 -0.6713 -1.2286
35369SOL    HW213223   2.639  10.539   3.792 -0.3995 -1.4506 -1.4938
35370SOL     OW13224   6.232  12.505  12.719 -0.0544 -0.1221 -0.1873
35370SOL    HW113225   6.274  12.419  12.706 -0.1345 -0.1178 -0.4860
35370SOL    HW213226   6.184  12.496  12.801 -0.2067 -0.4245 -0.3052
35371SOL     OW13227   7.654  11.327   3.255  0.5754 -0.0391 -0.1684
35371SOL    HW113228   7.683  11.243   3.220 -1.2253 -0.5628 -0.5051
35371SOL    HW213229   7.577  11.350   3.203  0.2401  1.1586  0.8047
35372SOL     OW13230   3.481   0.867   5.366 -0.2072 -0.0261  0.1862
35372SOL    HW113231   3.496   0.826   5.280 -0.2175 -0.0727  0.2066
35372SOL    HW213232   3.394   0.905   5.359 -0.3425 -0.3113  0.2853
35373SOL     OW13233   3.207  11.113  11.099 -0.0730 -0.0195  0.0725
35373SOL    HW113234   3.239  11.175  11.034 -2.1264 -0.5939 -1.6075
35373SOL    HW213235   3.112  11.127  11.100 -0.2562 -1.0406  1.9359
35374SOL     OW13236   6.097   4.994   0.684 -0.4767  0.7238 -0.7370
35374SOL    HW113237   6.173   4.938   0.699 -1.3111  0.1734  1.9497
35374SOL    HW213238   6.023   4.934   0.686 -1.3653  1.7617  1.8872
35375SOL     OW13239   1.263   8.179   0.594 -0.0279  0.1434 -0.5526
35375SOL    HW113240   1.195   8.112   0.590  0.3804 -0.2322 -2.1633
35375SOL    HW213241   1.222   8.258   0.560 -0.0066  0.2434 -0.3490
35376SOL     OW13242   7.716  10.576   1.227  0.1761  0.0913 -0.0644
35376SOL    HW113243   7.630  10.606   1.199 -0.2133  1.7585  2.5442
35376SOL    HW213244   7.778  10.633   1.182 -0.3592  1.8979  1.3738
35377SOL     OW13245   8.043   0.691   3.091  0.1522 -0.6655 -0.1201
35377SOL    HW113246   8.041   0.595   3.095 -0.3797 -0.6387  0.2391
35377SOL    HW213247   8.127   0.714   3.131  0.9357 -1.0412 -1.4895
35378SOL     OW13248  10.541   7.178   7.409  0.3424  0.4882 -0.2072
35378SOL    HW113249  10.475   7.142   7.349  0.2565  0.8443 -0.3330
35378SOL    HW213250  10.624   7.139   7.380  0.2683  0.4832 -0.4155
35379SOL     OW13251   5.292   9.086  12.583 -0.0363 -0.0892  0.0753
35379SOL    HW113252   5.232   9.157  12.560 -0.0009  0.1408  0.6788
35379SOL    HW213253   5.377   9.115  12.552  0.2944  0.9028  1.7844
35380SOL     OW13254   6.171   6.240   6.046 -0.3998 -0.2898  0.0973
35380SOL    HW113255   6.160   6.235   5.951  0.4546 -2.9438  0.0682
35380SOL    HW213256   6.250   6.189   6.064 -0.6286  0.0244  2.2574
35381SOL     OW13257   2.614   9.790   4.024 -0.4741 -0.4806 -0.1598
35381SOL    HW113258   2.672   9.783   4.099  0.0671 -0.3457 -0.5547
35381SOL    HW213259   2.551   9.858   4.048 -0.4215 -0.5719  0.2418
35382SOL     OW13260   9.939  10.123   5.129 -0.0979  0.1184 -0.4640
35382SOL    HW113261   9.965  10.069   5.054  0.9076  1.2635 -0.9748
35382SOL    HW213262   9.909  10.205   5.090 -0.1724  0.4869  0.3536
35383SOL     OW13263   2.463   2.303  12.367  0.0113  0.3922 -0.2490
35383SOL    HW113264   2.371   2.283  12.347  0.1717  0.4849 -1.1229
35383SOL    HW213265   2.490   2.362  12.297  0.8730  0.0042 -0.2531
35384SOL     OW13266   6.593   1.672   6.717  0.2332  0.2801 -0.3800
35384SOL    HW113267   6.688   1.669   6.702  0.2174  1.2322 -0.7273
35384SOL    HW213268   6.568   1.580   6.728  1.4702  0.1305  1.5563
35385SOL     OW13269   5.266   1.494  12.440  0.1963  0.2822 -0.4095
35385SOL    HW113270   5.214   1.442  12.501 -0.0674  0.4542 -0.4828
35385SOL    HW213271   5.282   1.435  12.366 -0.3857  0.4063 -0.6392
35386SOL     OW13272   7.582   0.965   8.070 -0.1768 -0.2141 -0.4229
35386SOL    HW113273   7.658   0.961   8.127 -1.0780  2.4606  1.1264
35386SOL    HW213274   7.509   0.934   8.124 -0.6863  0.1759 -0.8727
35387SOL     OW13275   6.157   5.773   3.148  0.3276  0.3575 -0.3904
35387SOL    HW113276   6.214   5.848   3.164 -0.2179  0.8004 -0.5151
35387SOL    HW213277   6.216   5.704   3.117  0.5038  1.6195 -3.1869
35388SOL     OW13278   5.449   5.618   6.279  0.0658 -0.0867 -0.1306
35388SOL    HW113279   5.528   5.673   6.284  0.2691 -0.4819  1.5554
35388SOL    HW213280   5.432   5.610   6.185  2.8849 -1.1707 -0.6710
35389SOL     OW13281   0.664   4.617  12.797 -0.1013  0.2182  0.3949
35389SOL    HW113282   0.659   4.523  12.810  0.0881  0.0493 -0.6645
35389SOL    HW213283   0.697   4.651  12.880 -1.2742 -0.5139  1.1878
35390SOL     OW13284   9.902  10.581  11.202  0.9135  0.2441 -0.4043
35390SOL    HW113285   9.865  10.524  11.269  0.9862  1.0266  0.3248
35390SOL    HW213286   9.897  10.669  11.240  1.7342  0.6008 -1.0814
35391SOL     OW13287   9.842   7.197   8.194  1.2163  0.2060 -0.2986
35391SOL    HW113288   9.861   7.134   8.125 -1.0224 -0.5703 -0.3001
35391SOL    HW213289   9.747   7.195   8.203  1.2501  2.0480  1.1823
35392SOL     OW13290   7.092   7.785   0.012  0.2235 -0.0938  0.0237
35392SOL    HW113291   7.047   7.860  -0.027 -0.3047  0.0080  0.8225
35392SOL    HW213292   7.063   7.710  -0.040  0.6917  0.2369 -0.7264
35393SOL     OW13293   1.806   5.142   3.526 -0.0644  0.2297  0.2213
35393SOL    HW113294   1.826   5.181   3.441  0.6209 -0.6391 -0.0259
35393SOL    HW213295   1.890   5.135   3.570 -0.3226  0.0207  0.6924
35394SOL     OW13296   5.282   2.341   1.896 -0.6666 -0.4348  0.0501
35394SOL    HW113297   5.199   2.296   1.884 -0.4513 -1.3104  1.5540
35394SOL    HW213298   5.259   2.434   1.897 -1.1927 -0.4570 -2.5205
35395SOL     OW13299   1.945   9.399   0.241  0.1292 -0.3086  0.7336
35395SOL    HW113300   2.010   9.364   0.302  0.3830  0.4472  0.8948
35395SOL    HW213301   1.969   9.490   0.229 -1.4312  0.2462  1.5130
35396SOL     OW13302   7.664   4.239   6.698  0.3780 -0.3878 -0.2355
35396SOL    HW113303   7.636   4.218   6.787 -1.6839  2.2715 -0.1482
35396SOL    HW213304   7.640   4.162   6.646 -0.9151 -0.8781  1.0574
35397SOL     OW13305   3.760   3.112   7.936 -0.0741 -0.2898 -0.2144
35397SOL    HW113306   3.787   3.052   7.866  0.3434  0.3482 -0.6142
35397SOL    HW213307   3.664   3.106   7.937  0.0097 -2.5875  1.2322
35398SOL     OW13308   6.564   5.264   7.501  0.3775 -0.1820 -0.0248
35398SOL    HW113309   6.648   5.309   7.494  0.0567  0.3584 -0.4104
35398SOL    HW213310   6.566   5.223   7.588  1.5314 -1.1761 -0.5016
35399SOL     OW13311   8.721   2.538   3.994 -0.0077 -0.1966  0.1222
35399SOL    HW113312   8.763   2.493   4.067 -1.5423  0.4358  1.4566
35399SOL    HW213313   8.650   2.479   3.967  0.3314 -0.2664 -0.6288
35400SOL     OW13314   6.886  12.658   7.528 -0.6013 -0.0516  0.2948
35400SOL    HW113315   6.912  12.604   7.602 -0.0838 -0.8854 -0.4863
35400SOL    HW213316   6.968  12.690   7.491 -0.7716 -0.8592 -0.8197
35401SOL     OW13317   9.673   4.042   9.562  0.2582 -0.3948  0.4352
35401SOL    HW113318   9.683   3.951   9.592  0.9573 -0.9850 -1.4489
35401SOL    HW213319   9.761   4.068   9.537  0.5712  1.7606  3.3297
35402SOL     OW13320  10.387   6.334   5.069  0.2797  0.0886  0.1610
35402SOL    HW113321  10.403   6.239   5.063 -0.7534 -0.1263  0.5763
35402SOL    HW213322  10.304   6.341   5.116 -0.4628  1.1512 -1.2422
35403SOL     OW13323   1.590   8.247  10.643  0.5024  0.1831  0.7490
35403SOL    HW113324   1.663   8.306  10.659  2.5804 -2.0875  0.1961
35403SOL    HW213325   1.629   8.160  10.639 -2.1782 -1.1083 -0.0612
35404SOL     OW13326   8.040   1.514   2.175  0.1836  0.0402  0.1926
35404SOL    HW113327   8.073   1.509   2.085  0.4443 -0.1823  0.2999
35404SOL    HW213328   8.119   1.509   2.230  0.1597  1.5058  0.4078
35405SOL     OW13329   2.082  10.831   4.467  0.4153 -0.2828 -0.5822
35405SOL    HW113330   2.033  10.914   4.467 -1.0039 -1.0359  1.6500
35405SOL    HW213331   2.056  10.788   4.386 -2.4428 -0.4542  0.3079
35406SOL     OW13332  11.661  11.735   7.357  0.0950  0.6552  0.2377
35406SOL    HW113333  11.667  11.827   7.332 -0.9782  1.3328  2.2321
35406SOL    HW213334  11.569  11.723   7.380 -0.3962 -1.6487 -2.4366
35407SOL     OW13335   6.936  10.253  12.219  0.2722 -0.1786 -0.0803
35407SOL    HW113336   6.894  10.299  12.291  2.1087  0.1103  0.8634
35407SOL    HW213337   6.880  10.269  12.143 -1.0952  0.4455  1.0449
35408SOL     OW13338   1.343  10.345  11.176  0.3982  0.7350 -0.0872
35408SOL    HW113339   1.388  10.319  11.096  0.4571  0.5982 -0.0091
35408SOL    HW213340   1.389  10.299  11.246  0.8934  1.5122  0.1170
35409SOL     OW13341   0.955   6.529   5.430 -0.0433  0.5167 -0.0265
35409SOL    HW113342   0.956   6.445   5.384  0.7312  1.0358 -1.0001
35409SOL    HW213343   0.862   6.546   5.447 -0.2958  0.0087 -0.8399
35410SOL     OW13344  10.490  12.414   2.069 -0.2374  0.0778  0.0047
35410SOL    HW113345  10.405  12.373   2.053  0.1876 -0.4291 -1.0798
35410SOL    HW213346  10.548  12.375   2.003  0.7639  0.6351  0.5327
35411SOL     OW13347   1.030   7.715   7.525 -0.8321  0.2352  0.1517
35411SOL    HW113348   1.094   7.644   7.527 -0.6702  0.3780  0.1223
35411SOL    HW213349   0.971   7.692   7.453  0.0864  0.8642 -0.8363
35412SOL     OW13350   9.619   4.990   5.141  0.0788  0.3300  0.5040
35412SOL    HW113351   9.558   4.921   5.118  1.0569 -0.4613  0.2195
35412SOL    HW213352   9.569   5.071   5.132 -0.8391 -0.2820  0.0374
35413SOL     OW13353   8.881  10.593  12.024 -0.4842  0.3146 -0.3650
35413SOL    HW113354   8.877  10.499  12.009 -3.0239  0.4790 -1.3189
35413SOL    HW213355   8.820  10.608  12.096 -1.5065  1.3738 -1.4046
35414SOL     OW13356   2.259   0.398   0.984 -0.0833  0.1978 -0.6823
35414SOL    HW113357   2.196   0.442   1.041 -0.2983  1.1890 -1.6496
35414SOL    HW213358   2.205   0.340   0.930  0.2794 -1.9768  1.1528
35415SOL     OW13359   3.548   3.071  11.048 -0.0947 -0.4841 -0.0563
35415SOL    HW113360   3.509   3.158  11.050 -0.4829 -0.6553 -0.1480
35415SOL    HW213361   3.487   3.015  11.096  1.1225 -0.3324  1.7698
35416SOL     OW13362   4.919   9.908  11.275 -0.2435 -0.6319 -0.4121
35416SOL    HW113363   4.958   9.847  11.212  2.3749  0.4020  0.0705
35416SOL    HW213364   4.925   9.993  11.232  0.0774 -0.1399  0.5903
35417SOL     OW13365   5.834   2.412   1.215  0.2643 -0.4441  0.3310
35417SOL    HW113366   5.919   2.395   1.257 -0.2096 -0.5975  1.2474
35417SOL    HW213367   5.849   2.492   1.165  0.4215  0.7229  2.1411
35418SOL     OW13368  10.373   6.854  12.169  0.5188  0.0904  0.1598
35418SOL    HW113369  10.344   6.827  12.256 -0.8694 -2.6319 -1.0419
35418SOL    HW213370  10.467   6.836  12.168  0.7552  1.1259  1.3916
35419SOL     OW13371   0.086   4.838  12.091 -0.1994 -0.0592  0.4024
35419SOL    HW113372   0.126   4.760  12.054 -0.8755 -0.7024  0.9950
35419SOL    HW213373  -0.004   4.837  12.058 -0.0739  0.7590 -0.0082
35420SOL     OW13374   0.107   9.888  12.080 -0.1273 -0.0023  0.0149
35420SOL    HW113375   0.048   9.926  12.144 -0.2635 -0.7441  0.3460
35420SOL    HW213376   0.099   9.944  12.003 -0.6176  0.3959  0.3511
35421SOL     OW13377   9.636   3.140   3.650 -0.3543  0.3391  0.2163
35421SOL    HW113378   9.655   3.048   3.632  0.7305  0.6693 -0.4979
35421SOL    HW213379   9.638   3.182   3.563 -1.4456  0.9343  0.4639
35422SOL     OW13380   6.929  11.717   5.810 -0.3714 -0.4106  0.5792
35422SOL    HW113381   7.021  11.713   5.834  0.0859  0.3949 -0.9021
35422SOL    HW213382   6.902  11.806   5.835 -0.5921 -0.4510  0.4871
35423SOL     OW13383   6.234   0.109   0.723 -0.0483 -0.3245  0.3568
35423SOL    HW113384   6.182   0.054   0.664 -0.1718  1.6536 -1.5076
35423SOL    HW213385   6.172   0.171   0.759  0.1925 -0.9853  1.9874
35424SOL     OW13386   4.727  12.154  12.105  0.6357 -0.4594 -0.2297
35424SOL    HW113387   4.805  12.100  12.115  1.2748  0.2176 -1.3081
35424SOL    HW213388   4.704  12.146  12.012 -0.4709 -0.5005  0.0390
35425SOL     OW13389   3.819   5.837   2.625  0.5820 -0.3284 -0.3502
35425SOL    HW113390   3.740   5.861   2.673  1.8322  1.4461  0.9207
35425SOL    HW213391   3.867   5.781   2.686  0.5813 -0.9765 -0.9276
35426SOL     OW13392   3.270  12.073   9.909  0.0766  0.3780 -0.2116
35426SOL    HW113393   3.335  12.005   9.929  1.8630  2.5332  2.0140
35426SOL    HW213394   3.187  12.038   9.942  0.6936 -1.2142 -0.2754
35427SOL     OW13395   0.489   3.671   7.329 -0.3031 -0.5517  0.3648
35427SOL    HW113396   0.578   3.641   7.311 -0.7128 -1.6575  0.1284
35427SOL    HW213397   0.487   3.761   7.295  0.2229 -1.0907 -1.1906
35428SOL     OW13398   1.097   8.055  12.427 -0.1340  0.1938  0.0661
35428SOL    HW113399   1.035   8.050  12.355  0.7668  1.2077 -0.8000
35428SOL    HW213400   1.047   8.025  12.504 -1.0804 -0.9800 -0.9647
35429SOL     OW13401   8.513   3.099   8.162 -0.6759  0.1214  0.1298
35429SOL    HW113402   8.439   3.146   8.201 -0.4138 -0.1312  0.9369
35429SOL    HW213403   8.588   3.120   8.218 -0.2213  0.0359 -0.4374
35430SOL     OW13404   3.882   6.839   7.046 -0.5822  0.4540 -0.1990
35430SOL    HW113405   3.792   6.866   7.066 -0.1825  0.2930  2.1096
35430SOL    HW213406   3.893   6.756   7.092  0.8786  0.6923 -0.0688
35431SOL     OW13407   1.345   1.930   2.392 -0.6295  0.0220  0.0150
35431SOL    HW113408   1.300   1.900   2.313 -0.2987  0.6094 -0.3997
35431SOL    HW213409   1.344   1.853   2.450  2.2958 -1.6610 -1.8978
35432SOL     OW13410   7.376   3.619   7.837  0.6568  0.4182  0.0093
35432SOL    HW113411   7.357   3.615   7.743  0.2074 -1.4620  0.1383
35432SOL    HW213412   7.436   3.693   7.846 -0.6622  1.7379 -1.4998
35433SOL     OW13413   4.618   9.570  11.059 -0.1438 -0.4640  0.4947
35433SOL    HW113414   4.658   9.591  10.974 -0.8683 -1.1125 -0.0231
35433SOL    HW213415   4.642   9.643  11.115  0.6326 -0.1815 -0.1733
35434SOL     OW13416   1.373   5.524   5.516  0.1860  0.1306 -0.5413
35434SOL    HW113417   1.304   5.460   5.531  0.6144 -0.3586 -0.6029
35434SOL    HW213418   1.337   5.587   5.454  0.0288 -0.4924 -1.0840
35435SOL     OW13419   2.567   6.942   5.183 -0.4348 -0.1368  0.5596
35435SOL    HW113420   2.521   7.016   5.224 -1.4298 -1.1024  1.2458
35435SOL    HW213421   2.567   6.962   5.090 -0.6698  0.7277  0.7334
35436SOL     OW13422   0.127   6.463   6.338 -0.4460  0.5094  0.1678
35436SOL    HW113423   0.190   6.441   6.270 -0.0697  1.7561  0.0900
35436SOL    HW213424   0.139   6.396   6.406 -0.9874 -0.8893 -1.0610
35437SOL     OW13425  10.747  12.026   1.037 -0.3946  0.3986 -0.4815
35437SOL    HW113426  10.691  11.950   1.051 -0.7057  0.5685 -0.7988
35437SOL    HW213427  10.835  11.989   1.032 -0.6890 -0.1517 -2.2724
35438SOL     OW13428   7.359  12.901   0.796  0.4100 -0.2534  0.2028
35438SOL    HW113429   7.284  12.846   0.815  1.6705 -2.0812  0.0956
35438SOL    HW213430   7.366  12.901   0.701  0.6180 -0.1866  0.2171
35439SOL     OW13431  11.297   4.040   3.638 -0.0673 -0.0709  0.1975
35439SOL    HW113432  11.275   3.961   3.588 -0.9604 -0.6459  1.4463
35439SOL    HW213433  11.217   4.092   3.636  0.5932  0.9589 -0.8265
35440SOL     OW13434   7.493  10.692  11.409 -0.1770  0.0560 -0.1239
35440SOL    HW113435   7.549  10.615  11.405  1.2401  1.0531 -0.3650
35440SOL    HW213436   7.501  10.723  11.499  0.2338  0.6070 -0.3448
35441SOL     OW13437   9.179   6.387  12.525  0.0810  0.0531 -0.7681
35441SOL    HW113438   9.157   6.478  12.505 -1.1846  0.4373  1.9945
35441SOL    HW213439   9.274   6.386  12.531  0.1061  1.1787 -0.8195
35442SOL     OW13440   2.162   2.409   7.730 -0.2045  0.0330  0.2146
35442SOL    HW113441   2.112   2.414   7.648  0.9385  0.6443 -0.4619
35442SOL    HW213442   2.158   2.317   7.754  1.8790 -0.7822 -2.1244
35443SOL     OW13443   8.396   0.243   0.275 -0.0642 -0.2203  0.0681
35443SOL    HW113444   8.356   0.325   0.305  1.7701  0.6928  0.2237
35443SOL    HW213445   8.490   0.257   0.288  0.3776 -1.9364 -0.9702
35444SOL     OW13446  10.571   3.491   9.124  0.2011  0.0726 -0.1664
35444SOL    HW113447  10.646   3.517   9.177 -0.2045 -0.6788  0.7956
35444SOL    HW213448  10.548   3.404   9.156 -1.8074  0.7482  0.3678
35445SOL     OW13449   5.911   1.817  12.826 -0.2830 -0.4329 -0.0424
35445SOL    HW113450   6.002   1.788  12.829  0.3870  1.3829 -0.8023
35445SOL    HW213451   5.912   1.902  12.870 -1.7112 -0.5937  0.3439
35446SOL     OW13452   6.742   6.448  12.845  0.1871  0.2264 -0.1511
35446SOL    HW113453   6.697   6.408  12.919 -0.1667  0.7287 -0.0871
35446SOL    HW213454   6.810   6.385  12.821  0.3645  0.1023  0.6572
35447SOL     OW13455   1.704   3.243   2.138  0.4610 -0.2082 -0.7386
35447SOL    HW113456   1.676   3.315   2.081  0.3192  0.7932  0.5304
35447SOL    HW213457   1.669   3.164   2.097 -1.7975  0.7056 -0.7509
35448SOL     OW13458  11.212  11.825   3.695 -0.3239  0.4127  0.2751
35448SOL    HW113459  11.186  11.817   3.603  0.7137  0.9177 -0.0773
35448SOL    HW213460  11.264  11.747   3.712  2.5942  1.9950 -0.6830
35449SOL     OW13461   4.362  12.375   6.949  0.5233 -0.0152 -0.2594
35449SOL    HW113462   4.311  12.376   6.868  1.6443  0.8836 -0.9931
35449SOL    HW213463   4.428  12.443   6.936 -0.0842  1.0869  1.9467
35450SOL     OW13464   6.929   2.201   1.591  0.2138 -0.5069 -0.1304
35450SOL    HW113465   7.004   2.141   1.582 -0.8131 -1.9240  0.3400
35450SOL    HW213466   6.866   2.171   1.525 -0.6355 -0.4620  0.6397
35451SOL     OW13467   8.946   8.478   1.849 -0.1894  0.0113 -0.3953
35451SOL    HW113468   8.948   8.468   1.754  1.0952 -0.8729 -0.3076
35451SOL    HW213469   8.890   8.406   1.880 -3.4532  2.2491 -0.6145
35452SOL     OW13470   5.521   6.275  10.622  0.0415 -0.2365  0.5475
35452SOL    HW113471   5.584   6.337  10.586  1.3140 -1.1974  1.0695
35452SOL    HW213472   5.482   6.233  10.545  0.7122 -0.2938  0.2367
35453SOL     OW13473   4.475   3.111   3.365  0.1100  0.1503  0.0782
35453SOL    HW113474   4.542   3.169   3.402  0.4433 -0.4715  0.4743
35453SOL    HW213475   4.452   3.150   3.281 -0.6078  1.5633  0.8975
35454SOL     OW13476  11.377  12.178   0.826  0.2512  0.2339 -0.3311
35454SOL    HW113477  11.418  12.098   0.792  1.9970  0.7562  0.4315
35454SOL    HW213478  11.390  12.173   0.921 -0.7884  0.8286 -0.1356
35455SOL     OW13479   1.441   1.558   9.227 -0.4553  0.3584 -0.0284
35455SOL    HW113480   1.412   1.640   9.188  0.0016  1.4921  1.8865
35455SOL    HW213481   1.528   1.543   9.190 -0.6366  0.6013 -0.5640
35456SOL     OW13482  10.734   6.602   4.098  0.2896 -0.5282 -0.3947
35456SOL    HW113483  10.677   6.679   4.091 -0.5704 -1.0157  0.9396
35456SOL    HW213484  10.718   6.554   4.017 -0.8015 -0.3738 -0.2916
35457SOL     OW13485   5.398   7.843   0.845 -1.0419 -0.3005 -0.1310
35457SOL    HW113486   5.449   7.879   0.772 -0.2237  0.4718  0.8066
35457SOL    HW213487   5.367   7.758   0.813 -0.8826  0.1162 -1.4551
35458SOL     OW13488   9.349   4.807  11.654 -0.2248 -0.6500  0.0486
35458SOL    HW113489   9.442   4.816  11.672 -0.5085  1.7917  0.7867
35458SOL    HW213490   9.344   4.781  11.562  1.2017  0.2185 -0.3062
35459SOL     OW13491   2.516   5.240   5.538  0.4504  0.1705 -0.3923
35459SOL    HW113492   2.515   5.171   5.605  0.4207  0.2744 -0.2857
35459SOL    HW213493   2.425   5.269   5.533  0.5167  0.4132 -0.2175
35460SOL     OW13494   2.569   4.754   6.747  0.0559 -0.0104 -0.2817
35460SOL    HW113495   2.661   4.778   6.762  0.1070 -0.4968  0.2693
35460SOL    HW213496   2.520   4.808   6.809 -0.4162  2.7733 -2.8424
35461SOL     OW13497   9.389  10.507   6.592  0.0188 -0.5415 -0.6623
35461SOL    HW113498   9.466  10.454   6.570  0.5691  0.0143 -0.0992
35461SOL    HW213499   9.383  10.503   6.687  0.1807  0.5693 -0.5964
35462SOL     OW13500   2.459   7.490   2.961 -0.4264  0.3775 -0.7214
35462SOL    HW113501   2.383   7.458   2.912 -1.3213  1.4623 -0.0701
35462SOL    HW213502   2.450   7.450   3.047  1.2311 -1.6580 -1.3971
35463SOL     OW13503   1.813   9.681   5.795  0.2121 -0.0497 -0.5466
35463SOL    HW113504   1.901   9.701   5.828  0.4757  2.2828 -2.3641
35463SOL    HW213505   1.759   9.754   5.825 -1.3003 -1.6768  0.9379
35464SOL     OW13506   9.846   5.883   5.665  0.0434 -0.2205 -0.2949
35464SOL    HW113507   9.895   5.856   5.588 -2.5406 -1.2616 -1.7227
35464SOL    HW213508   9.838   5.978   5.657  0.6682 -0.1971 -0.7231
35465SOL     OW13509   6.835   5.705   6.643 -0.7911 -0.0041 -0.5294
35465SOL    HW113510   6.900   5.773   6.660 -0.5863 -0.3348  0.0475
35465SOL    HW213511   6.801   5.683   6.730 -0.5591 -0.9298 -0.6675
35466SOL     OW13512   4.054   5.929   5.492 -0.4341 -0.3204 -0.2927
35466SOL    HW113513   4.121   5.996   5.506  0.4464 -1.3036  0.3717
35466SOL    HW213514   4.031   5.936   5.400  2.0881 -1.2892 -1.0804
35467SOL     OW13515   2.937   9.145  10.965  0.8856  0.5037  0.1633
35467SOL    HW113516   2.962   9.158  10.873 -0.5469 -1.8787 -0.6488
35467SOL    HW213517   2.891   9.226  10.989  1.6881  1.3611 -1.0271
35468SOL     OW13518  12.739   6.002   0.057 -0.0908 -0.0381  0.0247
35468SOL    HW113519  12.795   5.924   0.057 -2.1718 -1.6231  0.8953
35468SOL    HW213520  12.766   6.051   0.134  0.4016 -0.5248  0.1713
35469SOL     OW13521   1.856  12.201   2.860 -0.0261  0.0754 -0.4395
35469SOL    HW113522   1.786  12.265   2.845  0.0571  0.2630 -0.0297
35469SOL    HW213523   1.934  12.254   2.878 -0.3130 -0.1166  1.6043
35470SOL     OW13524   5.635  10.616   0.998 -0.0239 -0.3503  0.4333
35470SOL    HW113525   5.611  10.566   1.076  1.5105 -1.7234  0.0933
35470SOL    HW213526   5.653  10.549   0.931  3.8227  0.4171  0.4612
35471SOL     OW13527  10.556   6.288  12.458 -0.3119 -0.1409 -0.1737
35471SOL    HW113528  10.474   6.240  12.448 -0.0672 -0.9723  1.4537
35471SOL    HW213529  10.612   6.229  12.507  1.2874  0.4221 -1.2534
35472SOL     OW13530   4.724  12.535   7.517 -0.0703  0.0470  0.5437
35472SOL    HW113531   4.785  12.499   7.453 -0.0656  0.4170  0.3373
35472SOL    HW213532   4.637  12.510   7.485 -0.2261  2.0600 -0.8173
35473SOL     OW13533   9.069  11.891   3.802  0.3278 -0.2406  0.7277
35473SOL    HW113534   9.022  11.909   3.884 -1.2560  1.4043 -0.4460
35473SOL    HW213535   9.161  11.888   3.827 -0.2338 -1.8368  2.8658
35474SOL     OW13536  10.382   2.618   0.901 -0.3780 -0.4147  0.0371
35474SOL    HW113537  10.435   2.595   0.824 -0.5014 -1.0065  0.1195
35474SOL    HW213538  10.446   2.645   0.967 -0.3925  3.4311 -1.2707
35475SOL     OW13539   7.748   4.642   0.309 -0.8261  0.3443  0.1029
35475SOL    HW113540   7.746   4.710   0.241 -0.1520  0.9899  0.7043
35475SOL    HW213541   7.745   4.560   0.261 -1.3018  0.7899 -0.6627
35476SOL     OW13542   6.945   9.191   9.067  0.2175 -0.1945  0.0589
35476SOL    HW113543   6.998   9.111   9.062  0.4159 -0.0359 -0.4526
35476SOL    HW213544   6.939   9.209   9.160 -2.4411 -2.5213  0.4872
35477SOL     OW13545   5.081   5.731   8.588 -0.1302  0.4657 -0.1311
35477SOL    HW113546   5.079   5.641   8.553 -1.1631  0.5740 -0.3667
35477SOL    HW213547   4.994   5.766   8.569  0.5551  1.8365 -0.8650
35478SOL     OW13548  12.100   2.266   7.030  0.4488 -0.1231  0.3044
35478SOL    HW113549  12.186   2.294   6.998  0.4323  0.1653  0.5104
35478SOL    HW213550  12.120   2.197   7.093  0.4683 -0.9040 -0.5421
35479SOL     OW13551   5.270   8.037   3.802  0.3208 -0.2838 -0.4119
35479SOL    HW113552   5.203   8.098   3.834  0.6295 -1.0086  1.8249
35479SOL    HW213553   5.228   7.990   3.731 -0.1795  1.9632 -1.6748
35480SOL     OW13554   3.332  12.385  11.835  0.1974  0.4766 -0.1442
35480SOL    HW113555   3.394  12.421  11.899 -0.3815  0.6371  0.3406
35480SOL    HW213556   3.269  12.455  11.821 -1.3657 -0.5284  1.3701
35481SOL     OW13557   3.351   1.639  10.679 -0.4564 -0.1342  0.4147
35481SOL    HW113558   3.394   1.712  10.723 -1.5949  1.5936 -1.1667
35481SOL    HW213559   3.289   1.606  10.744  1.3192 -0.9455  1.7817
35482SOL     OW13560  12.846   3.353   6.351 -0.2500 -0.0016 -0.5323
35482SOL    HW113561  12.863   3.284   6.416 -3.0856 -0.3301  0.0129
35482SOL    HW213562  12.861   3.434   6.399  0.8646 -0.2150 -0.4881
35483SOL     OW13563   1.010   6.655  12.606 -0.0180  0.5292 -0.1478
35483SOL    HW113564   1.022   6.569  12.567 -1.1009  0.9855 -1.5885
35483SOL    HW213565   1.087   6.668  12.660  0.9234 -0.6986 -1.1295
35484SOL     OW13566   6.135   6.727   2.822  0.1021 -0.0300 -0.6635
35484SOL    HW113567   6.175   6.725   2.736  1.3426 -1.9122 -0.0907
35484SOL    HW213568   6.077   6.651   2.824 -0.2716  0.2617  0.0047
35485SOL     OW13569   1.472   6.793   4.937 -0.0464  0.4322  0.2962
35485SOL    HW113570   1.386   6.801   4.977  0.0507 -0.6718  0.7697
35485SOL    HW213571   1.483   6.874   4.887 -1.6048  0.3297 -0.2729
35486SOL     OW13572   6.435   9.923   7.901 -0.4714 -0.0970  0.9486
35486SOL    HW113573   6.396   9.837   7.890  0.8099 -0.8266  1.8371
35486SOL    HW213574   6.480   9.919   7.986 -0.7658  1.5998  1.2304
35487SOL     OW13575   7.585   3.419   0.026 -0.1756 -0.5186  0.7740
35487SOL    HW113576   7.644   3.344   0.033 -0.7711 -1.0712 -0.0433
35487SOL    HW213577   7.635   3.492   0.063  0.9287 -1.0233  0.3046
35488SOL     OW13578   8.150   7.966   4.149  0.4928 -0.6046  0.1213
35488SOL    HW113579   8.076   7.914   4.178 -1.0929  0.6538 -1.4807
35488SOL    HW213580   8.219   7.946   4.212 -1.5411 -0.9369  2.3822
35489SOL     OW13581   1.089   7.430  10.078  0.3791 -0.1654 -0.3388
35489SOL    HW113582   1.133   7.515  10.085  1.0369 -0.4764 -0.6025
35489SOL    HW213583   1.072   7.404  10.168  0.6671 -0.0050 -0.2362
35490SOL     OW13584   4.551  10.865   8.968 -0.5462 -0.0921  0.4763
35490SOL    HW113585   4.527  10.778   8.934 -1.1731 -0.4658  1.8085
35490SOL    HW213586   4.626  10.891   8.915 -0.8831 -1.0660 -0.5301
35491SOL     OW13587  10.749  12.052   3.084  0.6290 -0.2529 -0.3359
35491SOL    HW113588  10.664  12.020   3.053 -0.3101 -0.0128  1.7915
35491SOL    HW213589  10.743  12.147   3.077  1.0583 -0.2672 -0.9538
35492SOL     OW13590   1.854   1.442   0.511  0.1604 -0.7092 -0.7028
35492SOL    HW113591   1.936   1.483   0.482 -0.4256  0.5912 -0.6252
35492SOL    HW213592   1.878   1.386   0.584  0.8660  0.3811 -0.0776
35493SOL     OW13593   6.841   2.274  10.475 -0.3096 -0.5125 -0.0498
35493SOL    HW113594   6.873   2.234  10.394 -1.3639 -1.8724  0.1602
35493SOL    HW213595   6.776   2.338  10.446 -0.0811 -0.3892 -0.2999
35494SOL     OW13596   1.635   2.259  11.080 -0.0501  0.2533  0.4272
35494SOL    HW113597   1.628   2.184  11.139 -0.9945  0.1980  0.2471
35494SOL    HW213598   1.652   2.333  11.137 -1.3729  0.2678  0.8178
35495SOL     OW13599  10.845  11.408  11.045 -0.0446  0.3300 -0.2454
35495SOL    HW113600  10.817  11.498  11.026 -1.6433  0.0865  0.7788
35495SOL    HW213601  10.827  11.360  10.964  0.2580  0.8050 -0.6010
35496SOL     OW13602  10.553   4.184  10.527  0.3247 -0.0893  0.0711
35496SOL    HW113603  10.626   4.220  10.577  0.5761 -0.2231 -0.2001
35496SOL    HW213604  10.585   4.100  10.496  0.2689  0.1179 -0.5494
35497SOL     OW13605   1.787  10.067   5.494 -0.3122 -0.4417  0.5310
35497SOL    HW113606   1.737   9.990   5.468 -0.9912  1.0474 -3.3469
35497SOL    HW213607   1.721  10.129   5.526 -0.6588  0.3440 -1.5053
35498SOL     OW13608   0.210   7.384   2.396  0.5035  0.0120 -0.2757
35498SOL    HW113609   0.277   7.337   2.445  1.3322  1.3358 -0.1039
35498SOL    HW213610   0.224   7.476   2.417  0.4991  0.5864 -2.4769
35499SOL     OW13611   6.454  10.010   1.277  0.4985 -0.5589  0.2596
35499SOL    HW113612   6.477  10.021   1.185 -0.0509  1.5917  0.3137
35499SOL    HW213613   6.362  10.036   1.282  1.0210  1.2522  1.6820
35500SOL     OW13614   5.537  12.772   1.242 -0.3030 -0.1006 -0.3909
35500SOL    HW113615   5.613  12.830   1.246  0.5841 -0.9977 -2.5204
35500SOL    HW213616   5.559  12.700   1.302 -0.0471  0.2579 -0.0475
35501SOL     OW13617   5.019   0.500   4.730  0.0289 -0.1663  0.9429
35501SOL    HW113618   4.953   0.447   4.775  0.9947 -0.2205  2.3623
35501SOL    HW213619   5.100   0.448   4.736  0.3813  0.2389 -0.0787
35502SOL     OW13620   9.790  12.069   9.133  0.4591  0.1613 -0.5161
35502SOL    HW113621   9.774  11.996   9.073 -0.9953  0.4779 -0.5447
35502SOL    HW213622   9.790  12.029   9.220  1.3452 -0.1134 -0.6357
35503SOL     OW13623   8.189   8.359   8.564 -0.0054  0.1797 -0.1721
35503SOL    HW113624   8.218   8.321   8.647 -0.1841  1.0009  0.2810
35503SOL    HW213625   8.229   8.304   8.497 -0.2576 -0.7870  0.4585
35504SOL     OW13626   7.031   6.371  10.787 -0.3135  0.0793 -0.9922
35504SOL    HW113627   6.951   6.421  10.795 -1.0361 -1.0186 -1.0829
35504SOL    HW213628   7.002   6.280  10.774  0.9363 -0.4054 -0.5990
35505SOL     OW13629   8.002   0.509  11.307  0.5049 -0.8562 -0.2262
35505SOL    HW113630   7.919   0.533  11.266  1.4090  0.0500 -1.6157
35505SOL    HW213631   8.006   0.562  11.387 -0.6272 -1.5798  0.3404
35506SOL     OW13632  10.494  12.140   4.184  0.0072  0.1119  0.2071
35506SOL    HW113633  10.400  12.144   4.166  0.1638 -0.0927 -0.6859
35506SOL    HW213634  10.501  12.160   4.278 -0.7061  2.8541 -0.2393
35507SOL     OW13635   2.379   2.318   2.247  0.2820  1.1045  0.2246
35507SOL    HW113636   2.429   2.277   2.318  0.2550  0.5451 -0.0690
35507SOL    HW213637   2.313   2.252   2.224  1.8645  0.1588 -2.0392
35508SOL     OW13638   1.166   0.953   3.583  0.0526 -0.9280  0.0059
35508SOL    HW113639   1.093   0.984   3.636  0.3854 -1.6698  0.9352
35508SOL    HW213640   1.239   1.012   3.605 -0.0332 -0.7105 -0.2823
35509SOL     OW13641  12.782   8.861   2.960 -0.6258 -0.0433 -0.1346
35509SOL    HW113642  12.830   8.779   2.958  1.6757  1.0856  2.2894
35509SOL    HW213643  12.697   8.838   2.996 -0.7063 -1.5878 -1.2134
35510SOL     OW13644   6.221   6.837   7.726  0.4261 -0.5455 -0.1466
35510SOL    HW113645   6.310   6.804   7.737  0.0145 -2.0351 -1.0332
35510SOL    HW213646   6.169   6.760   7.702 -0.9522  0.4350 -0.4622
35511SOL     OW13647   6.975   6.920  11.414  0.0774 -0.6025 -0.6193
35511SOL    HW113648   7.067   6.894  11.409  0.1591 -0.1930 -1.4035
35511SOL    HW213649   6.933   6.872  11.342 -0.5194 -1.5161  0.3023
35512SOL     OW13650   6.613   5.083   5.032  0.7593  0.1898 -0.3119
35512SOL    HW113651   6.684   5.143   5.055  0.8492 -0.2281  0.5056
35512SOL    HW213652   6.579   5.052   5.116 -0.4170  0.4083 -0.6795
35513SOL     OW13653   0.626   0.433  11.213  0.0082 -0.3579  0.8209
35513SOL    HW113654   0.642   0.430  11.119 -2.4530  0.1020  0.3033
35513SOL    HW213655   0.710   0.411  11.253  1.6232  1.2685 -1.4242
35514SOL     OW13656  11.415   4.815   1.053  0.4361  0.2566 -0.5730
35514SOL    HW113657  11.339   4.864   1.085  0.4019  0.5254 -1.0628
35514SOL    HW213658  11.450   4.772   1.131  0.0180  0.4531 -0.2734
35515SOL     OW13659   3.824   2.502  10.191 -0.3178  0.0591  0.0367
35515SOL    HW113660   3.802   2.575  10.249  0.1360 -0.9179  1.5042
35515SOL    HW213661   3.842   2.543  10.107  0.0891  1.6566  0.8557
35516SOL     OW13662   1.131   0.664  12.267  0.1476  0.0182 -0.2112
35516SOL    HW113663   1.083   0.705  12.196 -0.7796 -1.4812 -0.4977
35516SOL    HW213664   1.222   0.666  12.239 -0.2977 -1.4498 -1.9591
35517SOL     OW13665   6.437   0.370  10.869  0.3788  0.1414  0.1021
35517SOL    HW113666   6.426   0.277  10.852  0.2324  0.2256 -0.2929
35517SOL    HW213667   6.515   0.395  10.820  0.4060  0.2306  0.1906
35518SOL     OW13668  12.040   9.626   0.449 -0.0971  0.4399 -0.0047
35518SOL    HW113669  12.103   9.647   0.381 -0.0830 -0.8703 -0.4285
35518SOL    HW213670  12.036   9.530   0.449 -1.2605  0.4657  0.7683
35519SOL     OW13671   2.673   9.366   0.765 -0.2567  0.0434  0.1303
35519SOL    HW113672   2.675   9.449   0.717  1.9526  1.1735  1.9537
35519SOL    HW213673   2.720   9.305   0.708  2.0064  1.2625  0.5512
35520SOL     OW13674   7.330  11.733   5.781  0.1776  0.0776 -0.2469
35520SOL    HW113675   7.361  11.820   5.754  0.7923  0.2586  0.9453
35520SOL    HW213676   7.366  11.674   5.715 -0.8926  0.7926 -1.5138
35521SOL     OW13677   6.286  12.589   4.709  0.3168 -0.0228 -0.2663
35521SOL    HW113678   6.242  12.646   4.647  0.1498 -0.4493 -0.5475
35521SOL    HW213679   6.379  12.593   4.686  0.1936 -0.6064 -0.9056
35522SOL     OW13680   4.812  10.745   2.533 -0.2751 -0.4180 -0.1075
35522SOL    HW113681   4.786  10.833   2.559 -1.6719 -0.5670 -0.9065
35522SOL    HW213682   4.731  10.694   2.538  0.2674 -1.3758 -0.8239
35523SOL     OW13683  12.041  12.787  12.729 -0.2998  0.7643  0.3889
35523SOL    HW113684  12.035  12.875  12.693 -0.5223  0.8306  0.5850
35523SOL    HW213685  12.107  12.743  12.675 -1.5187  0.4597 -0.9164
35524SOL     OW13686   1.685   2.811   5.904 -0.4150  0.0973  0.4551
35524SOL    HW113687   1.603   2.763   5.910 -0.6841  0.6677  2.0279
35524SOL    HW213688   1.675   2.866   5.827 -0.7239 -1.2053 -0.4681
35525SOL     OW13689   6.172   2.367  11.378 -0.2032  0.3613  0.1373
35525SOL    HW113690   6.183   2.273  11.388  0.0025  0.4449  0.7176
35525SOL    HW213691   6.142   2.378  11.288  1.8463 -0.0756 -0.6564
35526SOL     OW13692   4.983   2.899  11.056 -0.1724 -0.2268 -0.0669
35526SOL    HW113693   4.976   2.856  11.141  0.4926 -2.4373 -1.0702
35526SOL    HW213694   5.076   2.915  11.045 -0.4266  1.9452  0.4412
35527SOL     OW13695   6.912   5.629   2.443  0.0696  0.2268  0.2571
35527SOL    HW113696   7.006   5.646   2.451 -0.1177  1.9145 -0.7549
35527SOL    HW213697   6.884   5.611   2.533  0.9552  2.0482  0.9385
35528SOL     OW13698   0.823   1.988   6.676 -0.6989  0.0763  0.2315
35528SOL    HW113699   0.891   2.040   6.633  0.0671 -0.3398  0.9168
35528SOL    HW213700   0.761   2.053   6.709  0.2118  0.5740  1.0248
35529SOL     OW13701  10.440  11.067   2.016  0.0388  0.1934  0.1573
35529SOL    HW113702  10.457  11.077   2.109  0.4207  0.0786  0.0999
35529SOL    HW213703  10.349  11.038   2.011  0.0306  0.1656  0.4947
35530SOL     OW13704   4.935   0.101   2.882 -0.1155 -0.0425  0.2114
35530SOL    HW113705   4.870   0.160   2.843  0.6071  1.0736  0.6450
35530SOL    HW213706   4.883   0.035   2.928 -0.9815  1.5417  1.6219
35531SOL     OW13707   7.858  11.404  11.164  0.3548  0.4403  0.1804
35531SOL    HW113708   7.875  11.451  11.082  1.0580 -0.7072 -0.3526
35531SOL    HW213709   7.786  11.344  11.143 -1.4987  2.1636  1.2339
35532SOL     OW13710  12.421   5.995   9.474  0.1633  0.0008  0.7150
35532SOL    HW113711  12.457   6.052   9.407 -0.4838  1.2891  1.4333
35532SOL    HW213712  12.343   5.957   9.434  0.8581 -0.8034  0.0671
35533SOL     OW13713   9.999   0.261   2.143 -0.0353 -0.1336  0.3313
35533SOL    HW113714   9.955   0.234   2.062  1.4700 -0.6992 -0.3393
35533SOL    HW213715  10.088   0.227   2.134  0.4622  0.7060  1.7691
35534SOL     OW13716   4.882   2.878   7.358 -0.1941 -0.2152  0.4964
35534SOL    HW113717   4.854   2.795   7.319  1.1862 -0.5648  0.2160
35534SOL    HW213718   4.818   2.942   7.326  0.4973 -0.6073 -1.8458
35535SOL     OW13719  11.805   8.275   1.740  0.3977  0.2556 -0.2301
35535SOL    HW113720  11.753   8.341   1.784 -0.3284  0.3481 -1.1879
35535SOL    HW213721  11.877   8.255   1.801  0.8205  2.1542 -0.0649
35536SOL     OW13722   6.446   3.308  11.876  0.4600 -0.2829  0.1474
35536SOL    HW113723   6.351   3.317  11.873  0.6664  3.0164 -1.7899
35536SOL    HW213724   6.473   3.359  11.953  0.7213  1.0987 -0.8112
35537SOL     OW13725   4.543  10.163   6.640  0.7309  0.0993  0.5550
35537SOL    HW113726   4.572  10.166   6.549 -1.5160  0.9969 -0.2125
35537SOL    HW213727   4.505  10.076   6.651 -2.0772  1.0634 -0.5192
35538SOL     OW13728  11.921   9.927   0.307  0.0618  0.7858  0.4538
35538SOL    HW113729  11.837   9.883   0.322 -0.0679  2.0601  4.6094
35538SOL    HW213730  11.986   9.858   0.316 -0.4052  0.1383 -0.8832
35539SOL     OW13731   6.650  11.714   5.114 -0.1771 -0.0857 -0.3501
35539SOL    HW113732   6.561  11.679   5.103  1.0468 -3.5578 -0.4110
35539SOL    HW213733   6.659  11.727   5.208 -1.0105  1.1337 -0.4264
35540SOL     OW13734   8.043   2.526   9.447  0.9187  0.4271 -0.0483
35540SOL    HW113735   8.000   2.503   9.530 -0.1840  0.4338 -0.5979
35540SOL    HW213736   8.135   2.536   9.470  0.4036  2.1253  1.5334
35541SOL     OW13737  10.933   4.585   6.424 -0.0241 -0.5240  0.7059
35541SOL    HW113738  10.918   4.648   6.494 -0.9804  0.1238 -0.0602
35541SOL    HW213739  10.849   4.541   6.412 -0.1648  0.0940 -0.7190
35542SOL     OW13740   0.913   8.775   7.873 -0.1155 -0.4377  0.6972
35542SOL    HW113741   0.997   8.769   7.827  0.1725 -0.8543  1.2599
35542SOL    HW213742   0.899   8.687   7.908 -1.0677 -0.5183  0.1343
35543SOL     OW13743   9.098   4.013   3.281  0.1465 -0.0654  0.2605
35543SOL    HW113744   9.115   3.919   3.287 -1.6066 -0.5361 -1.0953
35543SOL    HW213745   9.005   4.019   3.262  0.1468  1.9875  0.6829
35544SOL     OW13746   0.605  12.454   8.410  0.2766 -0.3180  0.2059
35544SOL    HW113747   0.622  12.505   8.489 -0.8416 -0.7105  0.7217
35544SOL    HW213748   0.588  12.366   8.442 -3.6082  0.1736 -0.0623
35545SOL     OW13749   2.523   9.488   2.919  0.5106 -0.3304  0.2736
35545SOL    HW113750   2.476   9.408   2.941 -1.5973  0.4821 -0.8872
35545SOL    HW213751   2.562   9.470   2.833  0.2605 -0.2231  0.1348
35546SOL     OW13752   3.341   0.561   6.939  0.0934  0.4537 -0.2350
35546SOL    HW113753   3.289   0.642   6.944 -0.3793  0.1122  0.4696
35546SOL    HW213754   3.405   0.570   7.009  0.9413  0.8178 -1.0224
35547SOL     OW13755   9.043   1.002   7.703  0.4517 -0.3827 -0.0928
35547SOL    HW113756   9.037   1.065   7.631 -0.8514 -0.3985 -0.0185
35547SOL    HW213757   9.126   0.957   7.688  1.4243  1.3481 -0.1383
35548SOL     OW13758   3.954  10.135   9.450 -1.1127  0.0634  0.5740
35548SOL    HW113759   3.992  10.199   9.510 -0.7750  1.2787 -0.8774
35548SOL    HW213760   3.893  10.186   9.396  1.0033 -0.2227 -2.3221
35549SOL     OW13761   8.999   6.953  11.108  0.7703  0.8865 -0.6377
35549SOL    HW113762   9.065   6.934  11.042  0.0130  1.9207 -1.7475
35549SOL    HW213763   9.023   7.040  11.142  0.4512  0.9069 -0.4598
35550SOL     OW13764   2.337   5.195   4.022  0.3926 -0.0283 -0.3988
35550SOL    HW113765   2.431   5.194   4.004  0.3469 -1.0148 -0.6591
35550SOL    HW213766   2.314   5.287   4.024  1.5876  0.2794  0.8129
35551SOL     OW13767   2.078   3.610  12.465 -0.1409  0.4965  0.3572
35551SOL    HW113768   2.149   3.617  12.530 -0.8154 -1.1215  1.3394
35551SOL    HW213769   1.998   3.629  12.515 -0.6270 -0.2566 -0.1106
35552SOL     OW13770   9.331   4.740   8.623  0.2521  0.6883  0.5635
35552SOL    HW113771   9.382   4.706   8.696 -2.2776 -0.1620  2.0818
35552SOL    HW213772   9.268   4.799   8.664 -0.7533  0.7769 -1.0329
35553SOL     OW13773   4.226   3.428   6.090  0.0726  0.1224  0.1905
35553SOL    HW113774   4.168   3.485   6.141 -0.3646 -0.3800  0.2749
35553SOL    HW213775   4.197   3.339   6.113  1.5019 -0.1694  0.9774
35554SOL     OW13776   2.545   7.316   6.883  0.1863  0.3371  0.3515
35554SOL    HW113777   2.498   7.237   6.856 -0.6090  0.4175  1.4130
35554SOL    HW213778   2.614   7.285   6.941  1.3720  0.2349 -1.0693
35555SOL     OW13779   9.529   8.807   5.044 -0.8937 -0.2606  0.0401
35555SOL    HW113780   9.589   8.743   5.081  0.7943  0.9558 -0.4324
35555SOL    HW213781   9.525   8.877   5.110 -0.1266  0.5976 -0.7881
35556SOL     OW13782  11.563   6.403   5.073  0.3036 -0.2773  0.0182
35556SOL    HW113783  11.637   6.410   5.014  0.2046 -2.1266 -0.3674
35556SOL    HW213784  11.577   6.322   5.121  0.4186  1.1857  2.6407
35557SOL     OW13785   4.024   5.167   2.310 -0.5937 -0.1882  0.1257
35557SOL    HW113786   3.952   5.231   2.309  0.5370  1.1629  1.2160
35557SOL    HW213787   3.986   5.090   2.352 -2.2211 -0.6206 -1.9133
35558SOL     OW13788   9.227  10.765   6.007 -0.1677 -0.4800  0.0584
35558SOL    HW113789   9.160  10.753   6.074  0.1063  0.4684  0.5240
35558SOL    HW213790   9.301  10.802   6.054  0.2687 -0.4307 -0.6576
35559SOL     OW13791   7.317   1.631   3.767 -0.7185 -0.1419  0.4873
35559SOL    HW113792   7.260   1.696   3.727  2.4971  1.0183 -2.6847
35559SOL    HW213793   7.287   1.548   3.731 -3.0884 -0.2066  2.3890
35560SOL     OW13794  12.862   5.174   8.060 -0.2014 -0.3062  0.5224
35560SOL    HW113795  12.818   5.247   8.104  1.3837  0.1848  1.3599
35560SOL    HW213796  12.804   5.153   7.986 -1.8297  0.2797  1.5670
35561SOL     OW13797  10.531   2.477   2.180 -0.0792  0.2009 -0.1745
35561SOL    HW113798  10.603   2.454   2.121  0.2993  1.3658 -0.1894
35561SOL    HW213799  10.543   2.419   2.256  2.0859  1.6995  0.7253
35562SOL     OW13800  12.540   5.770   9.523 -0.1023 -0.2455 -0.0421
35562SOL    HW113801  12.504   5.858   9.530  1.6994  0.4189  2.1869
35562SOL    HW213802  12.473   5.713   9.561 -0.4162  0.4737  0.5127
35563SOL     OW13803   3.990  11.658   4.837 -0.1786  0.0846  0.2013
35563SOL    HW113804   4.074  11.669   4.883  0.5747 -1.1394 -0.8347
35563SOL    HW213805   4.012  11.663   4.744 -1.3454  0.2229 -0.0889
35564SOL     OW13806   0.908   2.321  10.734  0.8968 -0.6527 -0.1310
35564SOL    HW113807   0.964   2.263  10.785 -1.3891 -1.6432  1.4034
35564SOL    HW213808   0.823   2.278  10.733  0.0738  0.8549 -2.2283
35565SOL     OW13809   3.954  10.039   0.933 -0.1325 -0.1314 -0.4555
35565SOL    HW113810   3.907   9.966   0.892 -0.5982  0.0366 -0.2249
35565SOL    HW213811   3.886  10.092   0.973  0.3204 -0.4695  0.8351
35566SOL     OW13812   8.001  11.449   2.304 -0.1084  0.2956  0.5365
35566SOL    HW113813   7.969  11.539   2.316 -1.7253 -0.3894  1.7161
35566SOL    HW213814   7.993  11.434   2.210  2.3236  2.0907 -0.0546
35567SOL     OW13815   8.167   5.418  11.328 -0.3532 -0.1821  0.7090
35567SOL    HW113816   8.210   5.354  11.272 -0.6647 -0.9004  1.2824
35567SOL    HW213817   8.227   5.492  11.330 -0.5364  0.0364 -0.9186
35568SOL     OW13818   6.324   0.219   2.633  0.8933 -0.0799 -0.2227
35568SOL    HW113819   6.384   0.293   2.621  0.7524  0.1466  0.4106
35568SOL    HW213820   6.288   0.233   2.720  2.8878 -2.3499  1.0864
35569SOL     OW13821   3.957  12.745   9.555  0.3210  0.4500 -1.1965
35569SOL    HW113822   3.997  12.755   9.642 -1.2603  0.1471 -0.4024
35569SOL    HW213823   3.991  12.818   9.504  0.6228  1.1176 -0.0687
35570SOL     OW13824   4.986   4.485  11.439  0.1216  0.0626  0.6163
35570SOL    HW113825   4.937   4.466  11.519  0.4534  0.3535  0.8924
35570SOL    HW213826   4.931   4.546  11.391  0.8588  1.5926  1.6288
35571SOL     OW13827   6.449   9.874   5.240 -0.1295  0.2990  0.0538
35571SOL    HW113828   6.360   9.866   5.275 -0.6212 -2.6320 -1.5658
35571SOL    HW213829   6.506   9.848   5.312 -0.3679  3.1209  1.4320
35572SOL     OW13830  10.314   3.421   9.487 -0.1871 -1.0182  0.2136
35572SOL    HW113831  10.398   3.441   9.446 -0.3317 -0.5989  0.1077
35572SOL    HW213832  10.299   3.329   9.468  0.0602 -0.9937 -0.1136
35573SOL     OW13833   4.371   1.486   0.030  0.0235 -0.5169 -0.3672
35573SOL    HW113834   4.467   1.490   0.031  0.2065 -3.0628  0.8948
35573SOL    HW213835   4.351   1.394   0.044 -2.6348  0.0372 -0.0339
35574SOL     OW13836   7.267   8.528   1.512  0.0795 -0.1022 -0.0134
35574SOL    HW113837   7.231   8.616   1.525 -0.2629 -0.2948  0.3832
35574SOL    HW213838   7.199   8.470   1.546  0.0230 -0.5539 -0.8590
35575SOL     OW13839   8.532   6.980   7.007  0.0776 -0.1486 -0.3507
35575SOL    HW113840   8.564   6.908   7.060  1.0046  1.6434  1.6626
35575SOL    HW213841   8.463   6.941   6.953 -0.5051 -2.2154  1.7274
35576SOL     OW13842   6.895   4.670   4.868 -0.5418 -0.3213  0.2271
35576SOL    HW113843   6.882   4.696   4.960 -1.0074 -0.1518  0.1133
35576SOL    HW213844   6.841   4.592   4.857 -0.7263 -0.1628  0.0123
35577SOL     OW13845  10.281   7.328   5.166  0.0473  0.0864 -0.4185
35577SOL    HW113846  10.275   7.277   5.085  0.8165  1.5368 -1.4285
35577SOL    HW213847  10.311   7.414   5.138  0.5877  0.5473  1.4510
35578SOL     OW13848  12.358  10.005   1.367 -0.1430  0.4187 -0.0693
35578SOL    HW113849  12.406   9.935   1.323 -2.8006 -2.7632  1.6692
35578SOL    HW213850  12.390  10.005   1.456 -1.2153  0.2987  0.3378
35579SOL     OW13851   6.901   5.421   1.606 -0.8706 -0.0662 -0.1602
35579SOL    HW113852   6.808   5.397   1.598 -1.0443  0.6891 -0.4255
35579SOL    HW213853   6.904   5.474   1.686 -0.6515 -0.1430 -0.1180
35580SOL     OW13854   3.382   0.037   2.635  0.2431 -0.0660 -0.1273
35580SOL    HW113855   3.466   0.074   2.608  0.9816 -1.2402  0.4630
35580SOL    HW213856   3.345   0.103   2.695  1.1499  0.0834  0.2832
35581SOL     OW13857  11.261   0.216   9.196 -0.1011  0.0501 -0.2091
35581SOL    HW113858  11.332   0.227   9.133  1.8346  0.3501  1.8967
35581SOL    HW213859  11.196   0.162   9.150  2.2243 -1.6739 -1.6927
35582SOL     OW13860   2.023   3.958  12.631 -0.3524  0.0680  0.3499
35582SOL    HW113861   2.109   3.918  12.646  0.3326  1.0934 -0.7078
35582SOL    HW213862   1.977   3.947  12.714  2.1907  2.9330  2.3669
35583SOL     OW13863   3.382   3.041   5.475  0.2583  0.2488  0.1490
35583SOL    HW113864   3.411   3.132   5.487  1.2722  0.3498 -2.4324
35583SOL    HW213865   3.322   3.044   5.400  2.0571 -1.4317 -1.4930
35584SOL     OW13866   3.752   9.158  11.696  0.0203 -0.2762  0.0285
35584SOL    HW113867   3.684   9.215  11.732 -0.3301 -0.6054 -0.1069
35584SOL    HW213868   3.822   9.218  11.668 -0.6704  0.1524 -0.8252
35585SOL     OW13869   8.155  11.928   9.203 -0.2029  0.1411  0.3047
35585SOL    HW113870   8.159  11.883   9.118  0.2415  1.4408 -0.3921
35585SOL    HW213871   8.062  11.940   9.220 -0.2935 -0.1390  0.0223
35586SOL     OW13872  12.873   3.300   5.113 -0.0435 -0.0402 -0.1995
35586SOL    HW113873  12.805   3.238   5.084  0.1678 -0.7921  0.8417
35586SOL    HW213874  12.955   3.257   5.089  0.1053 -0.2050  0.5728
35587SOL     OW13875   8.312   9.206  12.785 -0.0202  0.2433  0.2121
35587SOL    HW113876   8.226   9.187  12.745  0.1969  0.0524 -0.1688
35587SOL    HW213877   8.375   9.163  12.727  0.3221  0.2169  0.6003
35588SOL     OW13878   7.730   5.004   5.671 -0.7452  0.1105  0.8414
35588SOL    HW113879   7.735   5.011   5.575 -0.4032  5.9735  0.9219
35588SOL    HW213880   7.637   4.997   5.690 -0.9390  0.5383  0.0808
35589SOL     OW13881   8.904  11.350   5.253  0.0822 -0.3680  0.6009
35589SOL    HW113882   8.991  11.332   5.290 -0.9082 -0.7533  2.9201
35589SOL    HW213883   8.843  11.327   5.323 -1.8724  0.6447 -0.6750
35590SOL     OW13884   5.761  10.861  10.787 -0.4472  0.2303 -0.3536
35590SOL    HW113885   5.780  10.852  10.694 -0.3093  6.6154 -1.3441
35590SOL    HW213886   5.666  10.859  10.793 -0.4913  0.8012 -0.8215
35591SOL     OW13887   5.007  10.751   7.295  0.3896 -0.0157  0.0002
35591SOL    HW113888   5.100  10.728   7.289  0.1365 -0.9345 -0.5532
35591SOL    HW213889   4.969  10.720   7.212 -0.5330 -0.2607  0.5011
35592SOL     OW13890  11.987   9.587   4.734  0.8533  0.0215 -0.0426
35592SOL    HW113891  12.038   9.598   4.814 -0.0177 -3.8138  1.2501
35592SOL    HW213892  12.034   9.521   4.684 -0.2491  0.0574 -1.1823
35593SOL     OW13893   2.149   8.652   1.094  0.2854 -0.4353 -0.1106
35593SOL    HW113894   2.095   8.586   1.049 -1.2273 -0.7280  1.9619
35593SOL    HW213895   2.134   8.733   1.044 -0.6879 -0.8999 -0.6191
35594SOL     OW13896  12.529   1.699  11.051  0.1531 -0.3893  0.8107
35594SOL    HW113897  12.591   1.627  11.041  0.9572  0.3744  0.2423
35594SOL    HW213898  12.471   1.670  11.122  0.2750 -1.7196  0.4015
35595SOL     OW13899   7.393   5.135  12.443 -0.1888 -0.2165  0.5730
35595SOL    HW113900   7.355   5.200  12.502  0.0606  0.4872 -0.0180
35595SOL    HW213901   7.487   5.143  12.456 -0.1371 -0.1463  0.1843
35596SOL     OW13902   5.773  12.191   0.099  0.3004  0.0093  0.1846
35596SOL    HW113903   5.708  12.225   0.160 -0.0103  0.7978 -0.5643
35596SOL    HW213904   5.812  12.269   0.059 -0.0188 -0.4812 -1.1489
35597SOL     OW13905   3.259  12.637  11.148 -0.0636  0.1773  0.2911
35597SOL    HW113906   3.253  12.616  11.241 -0.0672  2.0202  0.7327
35597SOL    HW213907   3.218  12.562  11.104  2.8985 -2.4116  1.5069
35598SOL     OW13908  10.905   2.453   6.821  0.7624 -0.1663 -0.0778
35598SOL    HW113909  10.855   2.373   6.835 -0.8281  0.4851 -1.6428
35598SOL    HW213910  10.923   2.455   6.727 -0.3229  1.8763 -0.2989
35599SOL     OW13911   0.331  10.385   8.732 -0.2666 -0.3422  0.2668
35599SOL    HW113912   0.270  10.368   8.660  0.2119  1.9314 -0.7661
35599SOL    HW213913   0.278  10.376   8.811 -0.8542 -2.7088 -0.3291
35600SOL     OW13914  12.007  12.384   7.201  0.1817 -0.6409  0.0305
35600SOL    HW113915  12.077  12.359   7.140 -0.4743 -3.1043  0.1861
35600SOL    HW213916  11.939  12.318   7.188 -0.3669 -0.7556  2.7813
35601SOL     OW13917   5.152   2.171   6.278  0.3493 -0.2843  0.2431
35601SOL    HW113918   5.170   2.224   6.355 -1.1381 -1.7737  1.7058
35601SOL    HW213919   5.238   2.148   6.243  1.0601  0.0871  1.6960
35602SOL     OW13920   8.735   5.337   3.081 -0.3615 -0.3405  0.7894
35602SOL    HW113921   8.646   5.329   3.116 -0.2985 -1.1712  0.7875
35602SOL    HW213922   8.725   5.393   3.005 -0.7197  0.3954  1.3637
35603SOL     OW13923   8.862   9.774   7.726 -0.0868 -0.1537  0.1738
35603SOL    HW113924   8.795   9.830   7.764 -0.3373 -1.4060  1.6633
35603SOL    HW213925   8.880   9.813   7.640 -2.4849  0.4037 -0.1473
35604SOL     OW13926  12.953  10.315  10.429 -0.3151 -0.3554 -0.2408
35604SOL    HW113927  12.964  10.227  10.393 -0.3142 -0.2454 -0.5106
35604SOL    HW213928  12.957  10.373  10.353 -0.1093 -0.1046 -0.0386
35605SOL     OW13929   3.655   4.044   8.628 -0.2422  0.0703 -0.1963
35605SOL    HW113930   3.712   3.989   8.682 -0.0640 -0.3350 -0.7800
35605SOL    HW213931   3.584   4.071   8.686 -1.3659 -2.3193 -0.3348
35606SOL     OW13932   1.865   4.222   6.766  0.3730  0.0671 -0.4396
35606SOL    HW113933   1.876   4.187   6.678 -0.6260  2.6985 -1.7226
35606SOL    HW213934   1.897   4.312   6.760 -0.4627  0.5752  1.6733
35607SOL     OW13935   7.815  11.234   0.053  0.2928  0.4372  0.0579
35607SOL    HW113936   7.757  11.299   0.094 -0.7747 -0.2216 -0.3641
35607SOL    HW213937   7.841  11.177   0.126 -0.0582  0.3931  0.1505
35608SOL     OW13938  12.672  11.187  10.776  0.0551  0.0764  0.1211
35608SOL    HW113939  12.715  11.177  10.691  0.8559  2.6040  0.1527
35608SOL    HW213940  12.581  11.209  10.755 -0.1922 -0.9920 -0.0080
35609SOL     OW13941   8.324  11.881  10.602  0.6193  0.0263  0.1247
35609SOL    HW113942   8.301  11.870  10.510 -0.1446 -0.5975  0.3758
35609SOL    HW213943   8.282  11.964  10.627  0.9731  0.2835 -0.1287
35610SOL     OW13944   1.304   2.383   5.291  1.0605 -0.3008  0.0341
35610SOL    HW113945   1.312   2.349   5.380 -0.7002  0.2997  0.4687
35610SOL    HW213946   1.244   2.323   5.247 -2.0360  1.9742  0.7948
35611SOL     OW13947   5.528   5.748   5.201  0.2361 -0.4783  0.4722
35611SOL    HW113948   5.603   5.762   5.144  0.3541  0.1048  0.7665
35611SOL    HW213949   5.560   5.766   5.289 -0.1962 -0.4099  0.6202
35612SOL     OW13950  11.063  10.170   6.674 -0.0632 -0.2373 -0.0633
35612SOL    HW113951  11.014  10.237   6.722 -1.1805 -0.9718 -0.1498
35612SOL    HW213952  11.095  10.215   6.595 -1.6395 -0.0289 -0.6086
35613SOL     OW13953  10.382   9.966  12.440  0.2837 -0.4187 -0.3811
35613SOL    HW113954  10.432  10.036  12.482  2.7660 -1.5336 -1.2986
35613SOL    HW213955  10.314  10.012  12.390  1.0838  1.2595  0.0027
35614SOL     OW13956   0.090  10.126   5.613  0.0281  0.0835  0.0886
35614SOL    HW113957   0.086  10.040   5.654 -0.6966 -0.4842 -1.1113
35614SOL    HW213958   0.136  10.111   5.530  2.0712  1.3245  0.9003
35615SOL     OW13959   2.562  12.254  12.480 -0.1572 -0.0308 -0.0751
35615SOL    HW113960   2.619  12.206  12.421 -1.5980 -0.3364 -1.2792
35615SOL    HW213961   2.549  12.339  12.436 -1.1116 -0.2010 -0.1350
35616SOL     OW13962  12.281   9.155  11.808  0.6304  0.4411 -0.2074
35616SOL    HW113963  12.204   9.100  11.823  2.2389 -1.3432  2.1839
35616SOL    HW213964  12.306   9.138  11.717  0.5351 -2.1345  0.1907
35617SOL     OW13965   6.705   1.449   4.401  0.7074 -0.7171 -0.1185
35617SOL    HW113966   6.737   1.538   4.388  0.1107 -0.3108  1.1278
35617SOL    HW213967   6.766   1.410   4.464 -1.5105  0.2921  2.8505
35618SOL     OW13968   6.858   4.649   2.129  0.3502  0.1400 -0.5913
35618SOL    HW113969   6.789   4.683   2.186  0.0019 -0.6555 -0.5211
35618SOL    HW213970   6.892   4.726   2.083  0.6267  0.7980  0.6716
35619SOL     OW13971   1.239   3.937   2.712 -0.3802 -0.1657 -0.4050
35619SOL    HW113972   1.264   4.027   2.691  0.9638 -0.6201 -0.8580
35619SOL    HW213973   1.275   3.884   2.640  1.1810 -1.3518  1.1491
35620SOL     OW13974   9.358   7.803   0.014  0.2839 -0.0132 -0.0414
35620SOL    HW113975   9.282   7.850  -0.020  1.6243  0.9105 -1.9760
35620SOL    HW213976   9.415   7.872   0.049  1.0757 -0.4605 -0.4191
35621SOL     OW13977   1.239   3.017   5.526 -0.1442  0.8929 -0.2651
35621SOL    HW113978   1.225   2.969   5.444 -1.8124  0.1253  0.4075
35621SOL    HW213979   1.222   2.952   5.595  2.2203  1.2343  0.7401
35622SOL     OW13980   1.255   1.325   0.139 -0.6172  0.2904  0.0512
35622SOL    HW113981   1.309   1.403   0.129  0.7962 -0.5469  0.8095
35622SOL    HW213982   1.285   1.285   0.221  0.0246 -2.0180 -1.2225
35623SOL     OW13983  10.413   1.225  10.661  0.2155 -0.6091  0.3628
35623SOL    HW113984  10.349   1.189  10.600  2.4273 -1.7788 -1.4330
35623SOL    HW213985  10.393   1.182  10.745 -2.4208  0.4738  0.3733
35624SOL     OW13986   8.702   9.460   2.180 -0.3323  0.1611  0.2075
35624SOL    HW113987   8.623   9.415   2.149 -0.6571 -0.7445  2.1931
35624SOL    HW213988   8.670   9.517   2.250  0.6637  0.4164  0.4617
35625SOL     OW13989   8.131   8.681   6.264  0.0312  0.2281  0.1152
35625SOL    HW113990   8.100   8.709   6.178  0.3325 -0.5319 -0.2444
35625SOL    HW213991   8.112   8.587   6.268 -0.4843  0.3563  1.1008
35626SOL     OW13992   9.474   7.798   7.066 -0.0439 -0.9289 -0.0823
35626SOL    HW113993   9.403   7.858   7.041 -0.2057 -0.5081  1.2891
35626SOL    HW213994   9.430   7.726   7.111  0.2537 -1.5547 -0.7781
35627SOL     OW13995   7.608  12.628   4.828 -0.2418 -0.5358  0.2792
35627SOL    HW113996   7.524  12.641   4.873  0.2812  0.8293  0.8980
35627SOL    HW213997   7.603  12.686   4.752 -0.4514 -1.6012 -0.5481
35628SOL     OW13998   2.548   4.029  10.998  0.4319 -0.0548 -0.5180
35628SOL    HW113999   2.601   4.102  11.029 -1.4642  0.8839  0.6791
35628SOL    HW214000   2.477   4.022  11.062 -1.3594 -0.7078 -2.4677
35629SOL     OW14001   1.605   2.303   0.385 -0.0910 -0.6091  0.4735
35629SOL    HW114002   1.551   2.232   0.421  0.9820 -1.4041  0.5386
35629SOL    HW214003   1.572   2.315   0.296 -0.8674 -0.5746  0.7576
35630SOL     OW14004   8.875  10.738   9.573 -0.1060 -0.1320 -0.7566
35630SOL    HW114005   8.948  10.790   9.606  0.6753 -1.3238 -0.5307
35630SOL    HW214006   8.807  10.746   9.639 -0.1861  0.9856 -0.9618
35631SOL     OW14007  10.801   5.817   1.889  0.0782 -0.0470 -0.7160
35631SOL    HW114008  10.818   5.911   1.895  1.5378 -0.3254  0.3857
35631SOL    HW214009  10.762   5.795   1.973 -0.3455 -0.4107 -1.0067
35632SOL     OW14010   7.058   4.687   2.427  0.0989 -0.0768 -0.3842
35632SOL    HW114011   7.090   4.778   2.427  0.1291 -0.0685  1.2623
35632SOL    HW214012   7.114   4.642   2.363  0.8091  0.8142 -0.4080
35633SOL     OW14013   2.319   7.759  10.192 -0.3547 -0.1603  0.4549
35633SOL    HW114014   2.267   7.679  10.193  0.5685 -0.8732 -1.6284
35633SOL    HW214015   2.398   7.738  10.241 -0.6856 -0.0914  1.0164
35634SOL     OW14016   3.896   6.125   6.718  0.2105 -0.1754  0.2793
35634SOL    HW114017   3.949   6.172   6.783  0.3908  1.7223 -1.1696
35634SOL    HW214018   3.960   6.093   6.654 -0.0584 -1.1811  0.5016
35635SOL     OW14019  12.896  12.531   5.962 -0.5209  0.1261  0.1383
35635SOL    HW114020  12.912  12.570   5.876 -2.9499 -1.4197 -1.1234
35635SOL    HW214021  12.806  12.498   5.957  0.5060 -3.4307  1.8875
35636SOL     OW14022  12.646   3.038   5.081  0.1413  0.0256  0.1651
35636SOL    HW114023  12.711   2.970   5.063  0.2616  0.3286 -0.5960
35636SOL    HW214024  12.563   3.000   5.052  0.5608  1.1458 -2.8876
35637SOL     OW14025  12.258   1.876  11.802 -0.0167  0.3040 -0.2490
35637SOL    HW114026  12.228   1.897  11.714  0.1550  0.4263 -0.2785
35637SOL    HW214027  12.337   1.929  11.814  1.1321 -1.2120 -0.7718
35638SOL     OW14028  10.562   3.492   9.760  0.6576  0.0436 -0.7229
35638SOL    HW114029  10.516   3.408   9.764  0.9471 -0.0605  1.3607
35638SOL    HW214030  10.553   3.519   9.669 -3.6299  0.0565 -0.5416
35639SOL     OW14031   1.487   6.596   1.256  0.1606  0.2981  0.4652
35639SOL    HW114032   1.479   6.677   1.307  2.4959  0.0933  1.2650
35639SOL    HW214033   1.467   6.526   1.319 -0.7871  0.1893  0.0553
35640SOL     OW14034   5.020   5.470   1.875 -0.4952 -0.1309  0.2540
35640SOL    HW114035   5.074   5.494   1.950 -1.3206  1.3125  0.4307
35640SOL    HW214036   4.930   5.468   1.910 -1.0057  1.4857 -0.8432
35641SOL     OW14037   9.555  10.135   6.413 -0.2529  0.3050 -0.2408
35641SOL    HW114038   9.583  10.053   6.454 -0.0388  0.0883 -0.8195
35641SOL    HW214039   9.465  10.146   6.442  0.1155  0.5405  0.8989
35642SOL     OW14040  11.379   0.078   8.611  0.6319 -0.0731 -0.1819
35642SOL    HW114041  11.430   0.014   8.561  0.5560 -0.4280  0.1851
35642SOL    HW214042  11.415   0.073   8.700  0.3816  0.1307 -0.0675
35643SOL     OW14043  10.203   2.488   1.776  0.0578  0.5988 -0.5936
35643SOL    HW114044  10.119   2.524   1.748 -0.3801 -0.3701 -0.5623
35643SOL    HW214045  10.200   2.491   1.872 -0.7553 -1.1610 -0.5186
35644SOL     OW14046  10.770   0.846  11.709 -0.2266 -0.3728 -0.1809
35644SOL    HW114047  10.785   0.901  11.632 -1.9202  0.5040  0.0773
35644SOL    HW214048  10.762   0.757  11.673 -1.6923  0.1091 -1.1205
35645SOL     OW14049   4.620  11.448   6.670 -1.0150 -0.8898 -0.2586
35645SOL    HW114050   4.530  11.468   6.696 -0.5131  1.9489 -0.4054
35645SOL    HW214051   4.668  11.440   6.752 -1.3426 -2.4395 -0.1792
35646SOL     OW14052  11.001  10.617  10.084 -0.1766  0.2904 -0.4633
35646SOL    HW114053  11.081  10.659  10.055  0.7972 -0.4037  1.0737
35646SOL    HW214054  10.994  10.538  10.031  0.7729 -0.2031  0.1265
35647SOL     OW14055   0.915  10.460   2.177 -0.1587  0.5644  0.1072
35647SOL    HW114056   0.964  10.519   2.120  0.6129  0.9822  1.1740
35647SOL    HW214057   0.951  10.373   2.159 -1.4713  0.3306 -1.6557
35648SOL     OW14058   9.444   7.797   2.552 -0.0707 -0.3224 -0.3174
35648SOL    HW114059   9.437   7.706   2.579  0.7562 -0.6319 -1.0965
35648SOL    HW214060   9.458   7.846   2.633  1.9445 -1.1632 -0.1084
35649SOL     OW14061   5.775   2.210  11.125 -0.3131 -0.0806  0.1262
35649SOL    HW114062   5.823   2.161  11.192 -0.7965 -0.6756  0.0466
35649SOL    HW214063   5.842   2.242  11.066  0.0363 -0.4335  0.3275
35650SOL     OW14064   9.214   8.399  11.836  0.0642  0.0906  0.2232
35650SOL    HW114065   9.262   8.370  11.759 -0.8399 -1.0339  0.0556
35650SOL    HW214066   9.142   8.451  11.801  1.1567  1.8514  0.4778
35651SOL     OW14067   6.749   1.153  12.322 -0.0653 -0.3811  0.1149
35651SOL    HW114068   6.779   1.151  12.231  0.1891 -0.5318  0.2029
35651SOL    HW214069   6.657   1.180  12.316  0.2075  0.5336 -0.1147
35652SOL     OW14070   2.508  11.089   3.019  0.1601  0.0766  0.0994
35652SOL    HW114071   2.460  11.027   3.074 -1.3865  0.2650 -0.9364
35652SOL    HW214072   2.517  11.168   3.072  1.0615 -0.6102  0.9939
35653SOL     OW14073   3.663   3.281   1.219  0.0313  0.3072  0.1571
35653SOL    HW114074   3.715   3.325   1.286  3.2816 -0.9238 -1.3587
35653SOL    HW214075   3.636   3.199   1.261 -1.5132  1.3007  1.2219
35654SOL     OW14076  11.336  12.541   6.083  0.3689  0.0856 -0.4602
35654SOL    HW114077  11.356  12.586   6.001 -0.0201  0.8597 -0.1479
35654SOL    HW214078  11.384  12.590   6.149  2.2621 -1.7237 -0.4342
35655SOL     OW14079  12.282   2.972  12.322  0.3244  0.3226  0.1495
35655SOL    HW114080  12.287   3.042  12.257 -1.2764 -0.9565 -1.4461
35655SOL    HW214081  12.240   3.012  12.398  1.2504  1.5742  0.0260
35656SOL     OW14082  12.448   9.059  11.302 -0.6859  0.1438 -0.1312
35656SOL    HW114083  12.424   9.069  11.394 -0.8071 -1.4459  0.0286
35656SOL    HW214084  12.486   8.972  11.296  0.1006  0.5436 -1.4400
35657SOL     OW14085   2.674   6.701   1.185 -0.3805  0.2136 -0.4195
35657SOL    HW114086   2.681   6.651   1.266 -1.5359  1.2314  0.3501
35657SOL    HW214087   2.735   6.659   1.125  0.4281 -0.6172  0.9447
35658SOL     OW14088   4.986  11.589   7.290 -0.0945 -0.3961 -0.1407
35658SOL    HW114089   4.999  11.524   7.221 -1.1284 -0.3191 -0.4231
35658SOL    HW214090   5.039  11.556   7.363 -1.6812 -2.3693  0.2360
35659SOL     OW14091  12.883   2.345  10.253 -0.3550  0.1300 -0.0200
35659SOL    HW114092  12.816   2.412  10.245  0.2627  0.7132 -0.4099
35659SOL    HW214093  12.958   2.380  10.205  0.9127  0.3974  2.0561
35660SOL     OW14094   3.257   4.479  10.608  0.1551 -0.1488  0.1670
35660SOL    HW114095   3.193   4.433  10.553  0.5636 -0.1794 -0.2861
35660SOL    HW214096   3.300   4.411  10.658  0.3897 -0.2062 -0.1139
35661SOL     OW14097   2.835  11.584   5.309  0.0323  0.3981  0.2877
35661SOL    HW114098   2.755  11.550   5.351  1.0528  0.1700  2.1532
35661SOL    HW214099   2.816  11.677   5.295 -0.8168  0.1994  0.0545
35662SOL     OW14100   1.473  12.039   3.985 -0.2170 -0.7228  0.3259
35662SOL    HW114101   1.523  11.973   3.937 -0.9660 -0.6089 -0.6349
35662SOL    HW214102   1.382  12.019   3.965 -0.4549  1.7634 -1.6373
35663SOL     OW14103   5.717  11.317   4.518  0.0106  0.0283  0.3183
35663SOL    HW114104   5.774  11.280   4.585 -1.2511 -0.5612  1.0981
35663SOL    HW214105   5.712  11.410   4.539 -0.9352 -0.2729  1.4811
35664SOL     OW14106   7.724   9.376   7.784  0.5935  0.2109  0.3505
35664SOL    HW114107   7.815   9.352   7.767  1.0164  0.1083  2.5363
35664SOL    HW214108   7.709   9.353   7.876 -1.6285  0.2949  0.0719
35665SOL     OW14109   9.698   9.218   5.539  0.2638 -0.4808 -0.4137
35665SOL    HW114110   9.718   9.190   5.629  2.3065 -2.4767 -1.4065
35665SOL    HW214111   9.775   9.195   5.488 -1.4394 -0.8867 -3.0119
35666SOL     OW14112   2.625  11.609   4.295 -0.7186  0.4692  0.5323
35666SOL    HW114113   2.668  11.663   4.361 -1.1414 -0.8091  1.9222
35666SOL    HW214114   2.587  11.671   4.233 -0.4934  1.7241  1.6182
35667SOL     OW14115   7.432  12.559   5.475 -0.3094 -0.1840  0.4259
35667SOL    HW114116   7.436  12.469   5.442 -0.9937 -0.0725  0.0099
35667SOL    HW214117   7.524  12.585   5.485 -0.0970 -0.6450 -0.2532
35668SOL     OW14118   5.800   5.319   4.894 -0.2882  0.0217 -0.3732
35668SOL    HW114119   5.771   5.360   4.812  0.3718 -0.1484 -0.6983
35668SOL    HW214120   5.814   5.393   4.954 -0.6170  0.1570 -0.4597
35669SOL     OW14121   0.260   2.961   5.128  0.8231  0.0846  0.3112
35669SOL    HW114122   0.256   2.889   5.191  3.2930  0.1161  0.5911
35669SOL    HW214123   0.341   2.945   5.078 -0.0821  1.0948 -1.6001
35670SOL     OW14124   6.419   5.502   0.676  0.2270 -0.2038  0.0297
35670SOL    HW114125   6.489   5.553   0.717 -0.7840 -0.1830  1.8451
35670SOL    HW214126   6.462   5.422   0.646  1.4947  0.9059 -1.2654
35671SOL     OW14127   0.846   0.219   0.542 -0.5890 -0.4232  0.1642
35671SOL    HW114128   0.834   0.177   0.627 -1.8136 -2.4700 -0.9477
35671SOL    HW214129   0.778   0.286   0.538 -0.4761 -0.2646  0.8209
35672SOL     OW14130   8.044   5.391   8.616  0.5181 -0.2592  0.1729
35672SOL    HW114131   8.046   5.430   8.528  1.1035  2.5862  1.3414
35672SOL    HW214132   7.976   5.440   8.662  0.7739 -1.1610  1.5463
35673SOL     OW14133   2.810  10.240  10.870 -0.4116 -0.1744 -0.4905
35673SOL    HW114134   2.843  10.175  10.932 -2.0780 -1.4805 -0.8756
35673SOL    HW214135   2.763  10.303  10.925 -0.7464 -0.5833 -0.3008
35674SOL     OW14136  10.569  11.610   8.661  0.0591  0.1866 -0.5041
35674SOL    HW114137  10.566  11.682   8.724 -0.1794  0.4911 -0.8552
35674SOL    HW214138  10.478  11.584   8.650  0.1096  0.0687 -0.6484
35675SOL     OW14139   2.112   1.002   2.918  0.1784 -1.1438 -0.0440
35675SOL    HW114140   2.057   1.053   2.859 -0.3415 -2.3026 -0.6155
35675SOL    HW214141   2.130   1.060   2.991 -0.9316 -0.3772 -0.3526
35676SOL     OW14142  11.273  11.764   7.200 -0.1802  0.7880 -0.5395
35676SOL    HW114143  11.310  11.756   7.288 -1.1974  1.7757 -0.0008
35676SOL    HW214144  11.247  11.674   7.178  1.8876  0.1735 -0.6818
35677SOL     OW14145   6.565   2.329   7.952  0.3022  0.7091 -0.3699
35677SOL    HW114146   6.484   2.305   7.908 -0.5470  0.4852  1.2633
35677SOL    HW214147   6.538   2.378   8.029  1.8416  3.1389 -1.2464
35678SOL     OW14148   9.211   1.003  12.871 -0.0778  0.0208 -0.6115
35678SOL    HW114149   9.122   1.034  12.856 -0.8806 -1.3802  0.8705
35678SOL    HW214150   9.248   1.067  12.932 -1.8713 -1.8948  2.7884
35679SOL     OW14151   0.666   2.295   4.983 -0.1920 -0.2751 -0.0585
35679SOL    HW114152   0.659   2.390   4.993 -0.9346 -0.1960 -1.0651
35679SOL    HW214153   0.674   2.261   5.072 -0.5622  0.6884  0.3550
35680SOL     OW14154   1.939  12.371   1.711 -0.3305  0.0704  0.3118
35680SOL    HW114155   1.864  12.423   1.683 -0.8319 -0.9613 -0.3486
35680SOL    HW214156   1.901  12.287   1.739  0.5895 -0.5959 -0.3737
35681SOL     OW14157  10.594  11.533  10.495  0.2237 -0.4620 -0.3241
35681SOL    HW114158  10.558  11.596  10.558  0.3915 -1.1931  0.5332
35681SOL    HW214159  10.592  11.579  10.411  0.4301  0.7188  0.2894
35682SOL     OW14160   9.469   7.905  11.485 -0.1788 -0.4494 -0.6280
35682SOL    HW114161   9.433   7.992  11.466 -0.5947 -0.6504 -0.7847
35682SOL    HW214162   9.558   7.908  11.449 -0.1148 -0.0192 -0.4445
35683SOL     OW14163   0.411   9.046  10.327  0.4786 -0.4390 -0.0603
35683SOL    HW114164   0.399   8.954  10.350 -0.3259 -0.7089 -1.4735
35683SOL    HW214165   0.482   9.046  10.262 -1.6304 -0.4878 -2.5030
35684SOL     OW14166   3.585   5.175   9.921 -0.3774  0.9597  0.2052
35684SOL    HW114167   3.501   5.205   9.956 -0.1708 -0.9072  2.5884
35684SOL    HW214168   3.580   5.193   9.828 -3.6407  0.4783  0.1693
35685SOL     OW14169   4.594  12.165   3.385 -0.1607  0.3072 -0.4888
35685SOL    HW114170   4.546  12.245   3.367  1.0970  0.7299 -2.2409
35685SOL    HW214171   4.537  12.116   3.445 -1.9960  1.4845 -1.1667
35686SOL     OW14172   0.576   6.034  10.324  0.6362  0.2773 -0.2220
35686SOL    HW114173   0.636   6.009  10.394  1.3748  0.6061 -0.7198
35686SOL    HW214174   0.504   5.972  10.331  0.3060  0.7922  1.3132
35687SOL     OW14175   4.410   2.102   7.088 -0.4812 -0.0053 -0.2912
35687SOL    HW114176   4.372   2.015   7.092 -1.3027  0.2588 -1.6774
35687SOL    HW214177   4.473   2.105   7.160 -0.4835 -1.7139 -0.1997
35688SOL     OW14178   2.333  12.146   3.557  0.4308  0.0850 -0.0816
35688SOL    HW114179   2.248  12.188   3.562 -0.3319 -1.2950 -0.8566
35688SOL    HW214180   2.325  12.070   3.615  1.4164  0.3885  0.4753
35689SOL     OW14181   5.390   4.477   0.395  0.1314  0.5326  0.7785
35689SOL    HW114182   5.469   4.530   0.394  1.3018 -1.0871 -1.7701
35689SOL    HW214183   5.421   4.387   0.385 -1.9980 -0.0512 -1.7196
35690SOL     OW14184   6.732   1.221   3.846 -0.0134 -0.2693  0.5418
35690SOL    HW114185   6.776   1.171   3.914 -1.5800  0.0477  1.8597
35690SOL    HW214186   6.691   1.295   3.892 -0.3198  0.5005 -0.8839
35691SOL     OW14187   2.551   6.901   2.316  0.2594 -0.3605 -0.0628
35691SOL    HW114188   2.510   6.857   2.391 -1.1139  0.6137 -0.1970
35691SOL    HW214189   2.533   6.994   2.331  0.0312 -0.1476 -1.5535
35692SOL     OW14190   1.706   4.849   5.581  0.0555 -0.4965 -0.1226
35692SOL    HW114191   1.795   4.851   5.547 -0.1254 -0.6343 -0.6148
35692SOL    HW214192   1.704   4.917   5.648  0.7954 -1.1495  0.5827
35693SOL     OW14193   8.675  12.892   3.060  0.0741 -0.1775  0.1137
35693SOL    HW114194   8.675  12.941   2.979 -0.9781 -0.1780  0.1071
35693SOL    HW214195   8.737  12.820   3.045  0.7424  0.4751 -0.2762
35694SOL     OW14196   5.737   0.243   8.354 -0.6630 -0.1259  0.3518
35694SOL    HW114197   5.642   0.257   8.350 -0.8059 -0.5323  1.7418
35694SOL    HW214198   5.746   0.152   8.384  0.1900 -0.5901 -1.1839
35695SOL     OW14199  12.536  10.600   3.224  0.3272 -0.3928  0.0185
35695SOL    HW114200  12.515  10.519   3.271  0.5934 -0.4277  0.0798
35695SOL    HW214201  12.583  10.571   3.146 -0.1565 -0.3378 -0.2947
35696SOL     OW14202   2.462   4.079   6.648 -0.7679 -0.1539 -0.3450
35696SOL    HW114203   2.499   4.159   6.612  0.7293 -0.6733 -0.0368
35696SOL    HW214204   2.382   4.107   6.693 -0.6472  1.0451 -0.8469
35697SOL     OW14205   4.856   5.397   4.914  0.1911 -0.0084  0.6334
35697SOL    HW114206   4.853   5.436   4.826 -1.0480 -1.6375 -0.0890
35697SOL    HW214207   4.808   5.315   4.906 -0.0609 -0.1414  2.8899
35698SOL     OW14208   5.432  12.466   0.392 -0.0240 -0.2084 -0.4528
35698SOL    HW114209   5.342  12.440   0.414 -0.2801  1.5810  0.8452
35698SOL    HW214210   5.421  12.537   0.328  0.4719 -0.1048 -0.4241
35699SOL     OW14211   0.123  12.705  10.947 -1.1578  0.1270 -0.0629
35699SOL    HW114212   0.087  12.771  10.888 -0.1192  0.4314 -0.3821
35699SOL    HW214213   0.215  12.698  10.922 -0.9892 -0.6362  0.7092
35700SOL     OW14214  11.384   8.952   1.981 -0.5765 -0.1939 -0.0448
35700SOL    HW114215  11.476   8.975   1.967 -0.0097 -1.1792  1.7812
35700SOL    HW214216  11.341   9.036   1.997  0.2068  0.1835  0.1488
35701SOL     OW14217   0.203   4.145   0.427 -0.0992 -0.0384  0.0529
35701SOL    HW114218   0.286   4.113   0.393 -0.2021  0.4041 -0.6255
35701SOL    HW214219   0.175   4.077   0.489 -0.0217 -0.9943 -0.9211
35702SOL     OW14220   1.497   6.689  12.877 -0.4560  0.4469 -0.0306
35702SOL    HW114221   1.540   6.615  12.835  1.0795  1.2071  0.1372
35702SOL    HW214222   1.514   6.763  12.818 -1.1801  0.8577  0.2630
35703SOL     OW14223  10.868  10.811  12.589  0.1137 -0.2163 -0.5129
35703SOL    HW114224  10.807  10.832  12.518 -0.8015 -0.9576  0.0267
35703SOL    HW214225  10.916  10.892  12.604 -0.7922  0.4196 -0.9070
35704SOL     OW14226   3.074  12.697   4.281 -0.3677 -0.1565 -0.5762
35704SOL    HW114227   3.017  12.703   4.358 -0.4357 -0.2516 -0.6184
35704SOL    HW214228   3.160  12.674   4.316 -0.1909  0.6688 -0.4461
35705SOL     OW14229  10.537   1.919   6.336 -0.0453  0.0444 -0.6126
35705SOL    HW114230  10.507   1.922   6.245  0.4072  0.3344 -0.7566
35705SOL    HW214231  10.625   1.957   6.333  0.0529 -0.1400 -0.0858
35706SOL     OW14232   0.229   1.129   7.519  0.2683 -0.2326  0.1873
35706SOL    HW114233   0.231   1.052   7.463  1.2285 -1.0810  1.3445
35706SOL    HW214234   0.137   1.140   7.542  0.2740 -1.9442  1.2023
35707SOL     OW14235  10.120  10.659  10.133  0.9167  0.4471 -0.1718
35707SOL    HW114236  10.083  10.704  10.057  1.3162 -0.0566 -0.6736
35707SOL    HW214237  10.180  10.595  10.096 -1.6805 -2.5088  0.2843
35708SOL     OW14238   7.011   7.652  11.307  0.2097  0.4340 -0.0695
35708SOL    HW114239   6.989   7.570  11.262  2.1052  0.6502 -1.4752
35708SOL    HW214240   7.064   7.624  11.382 -1.4235  0.2204  1.0672
35709SOL     OW14241   5.811   1.513   1.156  0.3033  0.6176  0.3326
35709SOL    HW114242   5.778   1.526   1.245 -0.7168 -1.5212  0.3304
35709SOL    HW214243   5.743   1.549   1.100 -1.9877 -3.1025  0.3543
35710SOL     OW14244   6.993   9.803   0.898 -0.4407 -0.2693 -0.2137
35710SOL    HW114245   7.077   9.765   0.923 -0.3018 -0.9562 -1.6136
35710SOL    HW214246   6.929   9.735   0.918 -0.0375 -2.0947 -4.1469
35711SOL     OW14247  10.024   8.160   9.561  0.6009 -0.2151 -0.1144
35711SOL    HW114248  10.110   8.198   9.543  0.7567 -0.7086 -0.4229
35711SOL    HW214249  10.032   8.068   9.536 -0.0071 -0.2752 -0.1094
35712SOL     OW14250   8.674   6.176  10.249  0.2557 -0.3094 -0.3833
35712SOL    HW114251   8.739   6.242  10.222 -0.9334  0.2593 -2.0263
35712SOL    HW214252   8.608   6.226  10.297 -0.6088 -0.2587 -1.5665
35713SOL     OW14253   2.137   6.985  10.373 -0.2058  0.0276 -0.5207
35713SOL    HW114254   2.077   6.952  10.307 -0.5807 -0.5744  0.0994
35713SOL    HW214255   2.081   7.007  10.448  0.3423 -0.7159  0.1349
35714SOL     OW14256   1.553   9.972   5.048  0.3292 -0.2613  0.1420
35714SOL    HW114257   1.573   9.962   5.141  1.1189  0.9067  0.1220
35714SOL    HW214258   1.483  10.037   5.045 -0.1723 -0.8035 -0.0482
35715SOL     OW14259  12.300   0.914   5.140  0.0544  0.0737 -0.7504
35715SOL    HW114260  12.391   0.883   5.142 -0.0342 -0.1604 -0.1644
35715SOL    HW214261  12.274   0.918   5.232  0.1872  2.2723 -0.7546
35716SOL     OW14262  11.979   7.414  10.462 -0.7377 -0.4345  0.5363
35716SOL    HW114263  11.913   7.414  10.392 -1.5720  2.4119  1.1914
35716SOL    HW214264  12.012   7.324  10.464 -2.9013 -1.3743 -1.4070
35717SOL     OW14265   0.619   0.523  10.376 -0.0488  0.1451 -0.0702
35717SOL    HW114266   0.540   0.470  10.376 -0.6051  0.9330 -1.4186
35717SOL    HW214267   0.593   0.605  10.418  0.4587 -0.1050  0.7829
35718SOL     OW14268   6.230   1.092  10.011 -0.3762 -1.0527 -0.7113
35718SOL    HW114269   6.322   1.114  10.018 -0.6620 -0.0090 -0.0723
35718SOL    HW214270   6.209   1.049  10.094 -1.1180  1.3031  0.4013
35719SOL     OW14271   8.332  12.879   6.815  0.1272  0.1614 -0.2511
35719SOL    HW114272   8.277  12.801   6.826 -0.6712  0.7910  0.4184
35719SOL    HW214273   8.375  12.890   6.899  0.6686  0.1398 -0.5198
35720SOL     OW14274  12.341  10.377   0.594 -0.3184  0.1155 -0.6552
35720SOL    HW114275  12.368  10.293   0.631 -0.1537 -0.2969 -1.6625
35720SOL    HW214276  12.256  10.360   0.553 -0.1209  0.3420 -1.1742
35721SOL     OW14277   3.287   7.640  10.601  0.0086  0.3483  0.2590
35721SOL    HW114278   3.240   7.629  10.519  0.1926  0.9618  0.0649
35721SOL    HW214279   3.326   7.728  10.595  2.3063 -0.6352 -0.1842
35722SOL     OW14280   3.168   4.167   1.997  0.8294  0.2580 -0.7198
35722SOL    HW114281   3.250   4.182   2.044  1.2783 -0.4398 -1.2561
35722SOL    HW214282   3.190   4.183   1.905  0.2573  0.4780 -0.8201
35723SOL     OW14283   0.614   0.957   8.719 -0.2466 -0.0692 -0.4177
35723SOL    HW114284   0.599   0.996   8.633  1.3350  2.8132  0.4678
35723SOL    HW214285   0.618   1.031   8.779 -0.9714 -1.9428  2.1507
35724SOL     OW14286   8.416   4.326   3.727  0.2053  0.4175  0.9204
35724SOL    HW114287   8.379   4.339   3.814  0.2930  1.0530  0.8680
35724SOL    HW214288   8.461   4.408   3.707  0.3858  0.1948  0.3714
35725SOL     OW14289  12.482   5.363  11.171 -0.0426  0.3148  0.4909
35725SOL    HW114290  12.393   5.361  11.137 -0.1891 -1.5208  0.8820
35725SOL    HW214291  12.472   5.386  11.264 -0.2410 -1.0921  0.8330
35726SOL     OW14292   2.655   1.002   9.029  0.4861  0.2858  0.3749
35726SOL    HW114293   2.715   1.052   8.973  1.8393 -1.7191 -0.0534
35726SOL    HW214294   2.568   1.018   8.991  0.5113  3.7993  1.4089
35727SOL     OW14295   7.696   2.189   1.583  0.1236  0.1747  0.5179
35727SOL    HW114296   7.602   2.206   1.575  0.2967  0.3978 -1.4517
35727SOL    HW214297   7.704   2.142   1.667 -1.5182  1.5383  1.5191
35728SOL     OW14298   2.108   9.984   3.984 -0.2311 -0.5605  0.5320
35728SOL    HW114299   2.062   9.912   3.941 -0.4831  0.4289 -0.9374
35728SOL    HW214300   2.092  10.060   3.928  1.3554  0.2999  1.1720
35729SOL     OW14301   6.558   2.657   4.513 -0.1671  0.4617  0.1064
35729SOL    HW114302   6.611   2.596   4.564  0.1515 -1.1917 -2.0520
35729SOL    HW214303   6.619   2.727   4.488  0.5902 -0.4990 -0.8440
35730SOL     OW14304  12.154  11.849   8.195 -0.2369 -0.1574  0.1011
35730SOL    HW114305  12.233  11.855   8.249  1.1459 -1.8971 -1.6085
35730SOL    HW214306  12.180  11.887   8.111 -0.2269 -3.2546 -1.4276
35731SOL     OW14307   1.576   1.479   7.241 -0.5050  0.0783 -0.3497
35731SOL    HW114308   1.503   1.527   7.201 -0.6678  0.6589  0.6062
35731SOL    HW214309   1.650   1.497   7.184 -0.6791  1.0733 -0.2846
35732SOL     OW14310  10.908   8.156   5.315  0.0128  0.5780  0.8524
35732SOL    HW114311  10.970   8.099   5.270 -1.3113  0.4385 -0.9188
35732SOL    HW214312  10.939   8.245   5.297 -0.1310  0.5024  0.1935
35733SOL     OW14313   3.525  11.358   2.051 -0.1068  0.4735 -0.2393
35733SOL    HW114314   3.593  11.290   2.053  0.2619  0.8505  0.8042
35733SOL    HW214315   3.557  11.422   1.987 -0.4906 -0.3522 -1.2800
35734SOL     OW14316   9.857   7.760   8.752  0.3056 -0.0553 -0.2385
35734SOL    HW114317   9.929   7.707   8.786  2.3870  0.4795 -3.3910
35734SOL    HW214318   9.888   7.850   8.762  0.1604  0.1791 -1.7598
35735SOL     OW14319   5.595   7.519   5.674  0.3045  0.5600  0.4590
35735SOL    HW114320   5.634   7.435   5.649  0.3980  0.8232 -0.2877
35735SOL    HW214321   5.628   7.581   5.610  0.5358  1.2510  1.2304
35736SOL     OW14322   8.108   9.481  12.089  0.5007 -0.1333 -0.0289
35736SOL    HW114323   8.174   9.549  12.082 -0.1758  0.4444 -1.1860
35736SOL    HW214324   8.034   9.514  12.038 -0.1699 -1.3549  0.1005
35737SOL     OW14325   6.037  10.203   2.621 -0.2833  0.0597 -0.1472
35737SOL    HW114326   5.975  10.269   2.653 -0.5395 -0.5374  0.6220
35737SOL    HW214327   6.084  10.247   2.550 -0.3097  1.1442  0.4701
35738SOL     OW14328   4.838   3.907   4.344 -0.3159  0.0894  0.8711
35738SOL    HW114329   4.903   3.837   4.338  0.4165  0.6752  1.7136
35738SOL    HW214330   4.782   3.883   4.418 -0.2931  0.2147  0.9291
35739SOL     OW14331   6.296   0.556   7.986  0.1595  0.5460 -0.1697
35739SOL    HW114332   6.299   0.538   8.080 -0.8442  0.3510 -0.1622
35739SOL    HW214333   6.387   0.546   7.956  0.2854 -0.6143  0.5578
35740SOL     OW14334   8.267   7.937   8.318 -0.1500  0.3593 -0.6721
35740SOL    HW114335   8.261   8.013   8.376 -1.3743  1.0657 -1.6621
35740SOL    HW214336   8.239   7.863   8.371  1.9040  0.3921  0.5780
35741SOL     OW14337   0.395   2.304   9.265  0.3693 -0.2219  0.0404
35741SOL    HW114338   0.303   2.276   9.266 -0.1901  1.4671 -0.2032
35741SOL    HW214339   0.404   2.352   9.182  1.4432 -0.2590  0.1249
35742SOL     OW14340   2.184   6.939   9.670 -0.0172  0.4698 -0.1391
35742SOL    HW114341   2.162   6.892   9.751 -1.2607 -2.6463 -2.1036
35742SOL    HW214342   2.104   6.933   9.617  1.6583 -0.2748 -2.7299
35743SOL     OW14343   9.061   4.009  11.326  0.0953 -0.1100  1.1044
35743SOL    HW114344   8.994   3.944  11.306  1.3502 -1.8964  2.3438
35743SOL    HW214345   9.022   4.064  11.395 -0.0796 -1.2156  1.9175
35744SOL     OW14346   2.819   8.291   8.696 -0.5509 -0.3031  0.5221
35744SOL    HW114347   2.869   8.333   8.626  1.1584 -0.9197  1.3319
35744SOL    HW214348   2.770   8.222   8.653  2.1573 -2.1380  0.1456
35745SOL     OW14349   3.195  12.646   4.960 -0.4176 -0.0988 -0.1134
35745SOL    HW114350   3.289  12.644   4.980  0.1383  2.4771 -1.9383
35745SOL    HW214351   3.174  12.555   4.936  1.7648 -0.6146 -0.2761
35746SOL     OW14352   1.327   7.373   4.063  0.2203 -0.0912  0.7547
35746SOL    HW114353   1.328   7.315   3.987  0.7917  0.5999  0.2314
35746SOL    HW214354   1.242   7.355   4.105  0.0116 -0.6601  0.1097
35747SOL     OW14355   7.801   6.961   0.075  0.2941 -0.5745  0.2210
35747SOL    HW114356   7.827   7.044   0.036  0.0046 -0.5570  0.0617
35747SOL    HW214357   7.807   6.898   0.003 -0.7737 -0.4409 -0.0104
35748SOL     OW14358  11.991   2.099   2.473  0.1345  0.3421 -0.2177
35748SOL    HW114359  11.907   2.116   2.429  0.1034  3.6525  0.8278
35748SOL    HW214360  12.053   2.086   2.402 -0.2674  3.6455 -1.3477
35749SOL     OW14361   9.289   7.631   0.460 -0.2097 -0.1643 -0.2462
35749SOL    HW114362   9.214   7.629   0.520  0.0586 -1.0139  0.0780
35749SOL    HW214363   9.284   7.717   0.418  1.2506  1.7437  3.0860
35750SOL     OW14364   6.617   4.470   8.587  0.0940 -1.1228  0.1019
35750SOL    HW114365   6.623   4.379   8.614 -0.1070 -1.9786 -2.4580
35750SOL    HW214366   6.675   4.476   8.510 -0.1525  0.8234  0.0115
35751SOL     OW14367   6.862   6.352  11.800 -0.0938  0.0466  0.6112
35751SOL    HW114368   6.779   6.326  11.762  0.0529  0.6960 -0.1638
35751SOL    HW214369   6.903   6.269  11.828 -0.2534 -0.4256 -0.5282
35752SOL     OW14370   2.583   5.653   2.625  0.4336 -0.9397  0.2143
35752SOL    HW114371   2.541   5.639   2.710  0.3770  0.3247  0.4142
35752SOL    HW214372   2.533   5.598   2.564 -1.5370  0.4592  0.4536
35753SOL     OW14373   1.186   9.459  10.187 -0.2475  0.1745  0.2846
35753SOL    HW114374   1.159   9.495  10.102  1.1665  0.6941  0.0155
35753SOL    HW214375   1.252   9.521  10.218  0.7391 -1.0989  0.7940
35754SOL     OW14376   1.185   9.328   6.331 -0.1514  0.2232  0.5078
35754SOL    HW114377   1.204   9.324   6.425  0.5778 -1.3161  0.3247
35754SOL    HW214378   1.187   9.422   6.311 -0.6562  0.6019  2.0813
35755SOL     OW14379   0.662   7.209   3.390 -0.3171  0.2483  0.0668
35755SOL    HW114380   0.693   7.127   3.351  2.2188  1.5943 -0.9568
35755SOL    HW214381   0.633   7.183   3.478 -0.9415 -1.9544 -0.7176
35756SOL     OW14382  11.951   7.032   6.538  0.3954 -0.0719 -0.3479
35756SOL    HW114383  12.042   7.043   6.565  0.3247 -1.3084  0.4946
35756SOL    HW214384  11.953   6.959   6.477  0.2809  1.5051 -2.3533
35757SOL     OW14385   2.162   4.205  12.731 -0.0551  0.4110  0.3625
35757SOL    HW114386   2.245   4.160  12.714 -0.6588 -0.2691 -0.9996
35757SOL    HW214387   2.096   4.148  12.690 -1.1727  1.0271  1.2701
35758SOL     OW14388  11.339  12.042   4.902 -0.4085 -0.1671  0.3177
35758SOL    HW114389  11.413  11.991   4.869 -0.4238 -0.5370  0.8376
35758SOL    HW214390  11.376  12.093   4.974 -0.8824 -1.1597  1.2868
35759SOL     OW14391  11.803   4.787   8.644  0.4309  0.3537 -0.1633
35759SOL    HW114392  11.797   4.809   8.551  0.8166 -1.5598 -0.6867
35759SOL    HW214393  11.795   4.692   8.646  0.8964  0.3259  1.7285
35760SOL     OW14394   4.493   8.095   7.802 -0.2206  0.3290  0.1120
35760SOL    HW114395   4.417   8.151   7.786 -1.9472 -2.0024 -0.3321
35760SOL    HW214396   4.494   8.034   7.728  0.8392 -1.0048  1.1667
35761SOL     OW14397   5.449   1.399   4.742  0.1184  0.3571 -0.3188
35761SOL    HW114398   5.440   1.318   4.793  0.7591  0.3240 -0.2496
35761SOL    HW214399   5.533   1.436   4.772  0.4170  0.4247 -1.2248
35762SOL     OW14400  11.087   9.531   2.913 -0.0428 -0.5729  0.5462
35762SOL    HW114401  11.078   9.460   2.850  1.6650  0.3229 -0.7858
35762SOL    HW214402  11.103   9.488   2.997  0.0384 -1.7633 -0.0688
35763SOL     OW14403   8.196   9.557   7.516  0.4433 -0.3890  0.4910
35763SOL    HW114404   8.140   9.526   7.444  0.1567 -2.2933  1.4709
35763SOL    HW214405   8.285   9.545   7.483  0.3116 -0.6487  0.2227
35764SOL     OW14406   1.212   2.743   4.951 -0.1967  0.2684  0.2246
35764SOL    HW114407   1.192   2.788   4.869  0.1558 -0.0739 -0.0544
35764SOL    HW214408   1.257   2.663   4.924  1.0741  0.7506  0.7869
35765SOL     OW14409   7.958   0.353   4.818  0.6172 -0.0054  0.0073
35765SOL    HW114410   7.968   0.395   4.732  2.8931 -1.3584 -0.4716
35765SOL    HW214411   8.045   0.358   4.857  0.5378 -2.6145  0.6780
35766SOL     OW14412   4.019   8.813   4.829 -0.2813  0.5658  0.1920
35766SOL    HW114413   4.058   8.857   4.904  0.3760  1.9235 -0.8996
35766SOL    HW214414   3.930   8.791   4.858  0.8078 -1.5004  2.2977
35767SOL     OW14415   2.351   1.284  12.671 -0.5507 -0.3067 -0.0004
35767SOL    HW114416   2.292   1.244  12.736 -1.6105 -0.2320 -0.8741
35767SOL    HW214417   2.328   1.377  12.672  0.3081 -0.0946  0.4032
35768SOL     OW14418  12.240   2.251   2.455  0.9504  0.6051 -0.1407
35768SOL    HW114419  12.175   2.181   2.450 -0.4675  1.7960  0.8484
35768SOL    HW214420  12.200   2.325   2.408  1.7256  1.2575  0.1967
35769SOL     OW14421   8.629   7.038  11.751  0.2275 -0.3273 -0.4054
35769SOL    HW114422   8.675   6.967  11.797 -0.1354 -0.5943 -0.4496
35769SOL    HW214423   8.673   7.118  11.780  1.3746 -0.6372 -1.2086
35770SOL     OW14424   8.269   3.730  12.409 -0.0886  0.4282 -0.1223
35770SOL    HW114425   8.200   3.754  12.347 -1.8091 -0.0766  1.5004
35770SOL    HW214426   8.268   3.801  12.473  1.6854  0.9590 -0.6224
35771SOL     OW14427   3.242  11.329   1.754  0.1927 -0.2010 -0.0983
35771SOL    HW114428   3.265  11.259   1.815  0.1345 -2.2318 -2.2692
35771SOL    HW214429   3.158  11.302   1.717  0.2220  0.9709 -1.0834
35772SOL     OW14430   4.495  11.167   3.239 -0.6681  0.1571 -0.1432
35772SOL    HW114431   4.470  11.127   3.156 -1.4785  2.1169 -0.9121
35772SOL    HW214432   4.431  11.134   3.302 -1.3950  0.3023 -0.7825
35773SOL     OW14433   5.309  10.107   5.387  0.0375 -0.1101  0.3198
35773SOL    HW114434   5.358  10.188   5.402  0.6519 -0.8374  2.5903
35773SOL    HW214435   5.337  10.078   5.300 -0.9654  2.5781 -1.0007
35774SOL     OW14436   4.943  11.824   5.971  0.2098 -0.3085 -0.0181
35774SOL    HW114437   4.859  11.795   6.005 -0.5126 -0.9714 -2.2315
35774SOL    HW214438   4.951  11.914   6.002  0.0569 -1.1106  2.5752
35775SOL     OW14439   4.963   9.650   7.632  0.0183 -0.2924  0.1008
35775SOL    HW114440   4.960   9.607   7.717 -0.6566  0.6106  0.5538
35775SOL    HW214441   4.894   9.608   7.581 -0.4803  0.0837  0.4601
35776SOL     OW14442   3.116   8.386   8.739 -0.3420  0.3642 -0.2191
35776SOL    HW114443   3.082   8.407   8.826 -1.4270  0.2582 -0.5978
35776SOL    HW214444   3.150   8.469   8.706  0.9634  0.2129  0.6603
35777SOL     OW14445   4.047   5.828  10.370 -0.1449  0.2817 -0.6123
35777SOL    HW114446   4.118   5.777  10.409  0.4018  0.0787 -1.8459
35777SOL    HW214447   3.978   5.826  10.437  1.0001  0.5298  0.6247
35778SOL     OW14448  12.430   8.357   7.024 -0.0395  0.1205 -0.6628
35778SOL    HW114449  12.485   8.435   7.027  1.2307 -0.7018  2.3136
35778SOL    HW214450  12.352   8.380   7.074 -0.2828 -0.1022 -0.9342
35779SOL     OW14451   7.029  12.249  12.189 -0.2640  0.2388  0.3349
35779SOL    HW114452   6.956  12.246  12.127 -0.9743  1.8116  1.0372
35779SOL    HW214453   6.987  12.247  12.276  0.6822 -1.4346  0.7832
35780SOL     OW14454   0.326   5.078   3.090 -0.5145 -0.1106  0.1383
35780SOL    HW114455   0.269   5.039   3.156 -2.2105 -1.6633 -2.0755
35780SOL    HW214456   0.412   5.040   3.106 -0.5657  0.4636  2.0949
35781SOL     OW14457  10.258   3.140   2.132 -0.1511  0.0711  0.2390
35781SOL    HW114458  10.284   3.064   2.184  0.7301 -1.2604 -2.0347
35781SOL    HW214459  10.307   3.213   2.171  2.7695 -1.3947 -0.4510
35782SOL     OW14460  12.885   6.680  10.055 -0.1870  1.1410 -0.3533
35782SOL    HW114461  12.872   6.775  10.063 -0.7303  1.4316 -3.4299
35782SOL    HW214462  12.828   6.654   9.983 -2.4234 -2.1628  2.3138
35783SOL     OW14463   5.973   9.646   1.273  0.7866  0.1545  0.0947
35783SOL    HW114464   5.896   9.621   1.325  0.8931 -1.1992 -0.3605
35783SOL    HW214465   5.996   9.567   1.225  1.7804  0.8763 -0.6570
35784SOL     OW14466   1.768   5.653   8.067 -0.1765  0.1759  0.4446
35784SOL    HW114467   1.761   5.636   7.973 -0.3214 -2.5349  0.8460
35784SOL    HW214468   1.860   5.672   8.081 -0.2367  1.0940 -0.2787
35785SOL     OW14469   0.795  11.014  11.829  0.9031 -0.4955  0.0004
35785SOL    HW114470   0.730  11.058  11.775  2.3331  0.9040 -0.6536
35785SOL    HW214471   0.763  11.023  11.919 -0.9589 -1.9102 -0.4465
35786SOL     OW14472   5.966   2.866   7.575  0.0844  0.0030 -0.4239
35786SOL    HW114473   5.994   2.822   7.656 -0.5298 -1.3719 -0.9171
35786SOL    HW214474   6.034   2.930   7.557  2.0406 -2.0378 -0.6751
35787SOL     OW14475   5.119   8.241   3.097  0.0325  0.6951 -0.2095
35787SOL    HW114476   5.204   8.284   3.092  0.7862 -0.7587 -0.5924
35787SOL    HW214477   5.098   8.219   3.006  0.3371 -0.9128  0.0665
35788SOL     OW14478  12.270   6.679   3.684  0.1294 -0.4635 -0.3924
35788SOL    HW114479  12.239   6.596   3.719 -0.0606 -0.6879 -1.0785
35788SOL    HW214480  12.251   6.675   3.590  0.4077  0.2219 -0.4901
35789SOL     OW14481  12.842   3.492   0.405 -0.5911 -0.1932 -0.4712
35789SOL    HW114482  12.863   3.528   0.491 -0.3066  0.0408 -0.6358
35789SOL    HW214483  12.925   3.454   0.375 -1.1845 -2.2699  0.2986
35790SOL     OW14484   0.674  11.629   8.749  0.0646  0.0484  0.0180
35790SOL    HW114485   0.615  11.704   8.753  1.4432  1.2748 -1.2426
35790SOL    HW214486   0.694  11.609   8.840 -0.7753  0.8297  0.3922
35791SOL     OW14487  12.931   8.711  10.499 -0.1757  0.6537  0.1371
35791SOL    HW114488  12.924   8.685  10.408 -2.7993  0.7085  0.2328
35791SOL    HW214489  12.999   8.778  10.500  0.8254 -0.2838 -1.5185
35792SOL     OW14490   2.192  12.180   7.188 -0.5034 -0.4794  0.0113
35792SOL    HW114491   2.211  12.182   7.094 -1.4462 -0.0952 -0.1779
35792SOL    HW214492   2.099  12.157   7.193 -0.8880  1.1318  0.7855
35793SOL     OW14493   8.509   4.090   1.057 -0.0541  0.6970  0.4931
35793SOL    HW114494   8.481   4.181   1.065 -0.5308  0.6811 -0.7512
35793SOL    HW214495   8.593   4.096   1.011 -0.2789  0.4969  0.0490
35794SOL     OW14496  12.308  11.516   6.070  0.1570 -0.0610 -0.0800
35794SOL    HW114497  12.321  11.446   6.134  0.1409  0.3454  0.3714
35794SOL    HW214498  12.301  11.596   6.122 -1.5413  0.0885 -0.4733
35795SOL     OW14499  12.913   1.116  12.580 -0.2035  0.7874 -0.1994
35795SOL    HW114500  12.873   1.034  12.550  0.5556  0.7725 -1.1977
35795SOL    HW214501  12.893   1.119  12.674  0.1988 -0.7981 -0.0446
35796SOL     OW14502  12.942   7.360   0.796 -0.0783 -0.4290  0.1395
35796SOL    HW114503  12.948   7.418   0.872 -1.6113 -1.6544  1.2811
35796SOL    HW214504  13.019   7.304   0.803  1.5334  1.5086 -1.0943
35797SOL     OW14505   7.090  10.577   3.047 -0.9425  0.3073  0.3415
35797SOL    HW114506   7.082  10.511   3.117  2.9266 -0.7242  0.0621
35797SOL    HW214507   7.075  10.528   2.966 -1.8627  0.6973  0.2635
35798SOL     OW14508   6.152   2.861   5.746 -0.0624 -0.9054  0.0996
35798SOL    HW114509   6.150   2.790   5.683  0.6592 -0.3121 -0.6162
35798SOL    HW214510   6.069   2.907   5.734  0.8572  0.3818 -1.8494
35799SOL     OW14511  11.033   2.142   6.657 -0.0733  0.1630 -0.5836
35799SOL    HW114512  11.046   2.231   6.624 -0.0271  0.3283 -0.1251
35799SOL    HW214513  10.954   2.148   6.711 -0.3961 -0.1994 -1.0059
35800SOL     OW14514   1.909   1.536   0.052 -0.6575 -0.6203 -0.8881
35800SOL    HW114515   1.940   1.580  -0.027  0.9244  3.3031  1.6202
35800SOL    HW214516   1.988   1.522   0.105 -1.9445  0.0507  1.3631
35801SOL     OW14517   8.954   2.733   9.834  0.1769 -0.0411 -0.7112
35801SOL    HW114518   9.032   2.742   9.889 -0.5082  0.9460  0.1447
35801SOL    HW214519   8.959   2.806   9.773 -0.2873  0.2813 -0.3706
35802SOL     OW14520   0.833   7.644   0.872  0.1610 -1.1430  0.6576
35802SOL    HW114521   0.754   7.697   0.881  0.3894 -0.3062 -1.6337
35802SOL    HW214522   0.809   7.573   0.812  1.1447 -0.7945 -0.1866
35803SOL     OW14523   9.183  12.361  12.369 -0.5203 -0.1566 -0.7980
35803SOL    HW114524   9.214  12.329  12.453  1.7258 -0.1015 -1.5319
35803SOL    HW214525   9.156  12.452  12.385  0.1508 -0.0608 -0.1719
35804SOL     OW14526   9.145  10.062   3.702  0.0078  0.6643 -0.2814
35804SOL    HW114527   9.101  10.080   3.620 -0.3347 -3.7557 -1.3510
35804SOL    HW214528   9.237  10.051   3.679 -0.1448 -0.9861 -0.2806
35805SOL     OW14529   8.261   8.828   9.652  0.5564  0.1215 -0.2358
35805SOL    HW114530   8.325   8.764   9.682  0.1371  0.3393  1.1693
35805SOL    HW214531   8.260   8.895   9.720 -1.1487  0.1309 -0.2183
35806SOL     OW14532  11.873   7.855   6.141 -0.4906  0.0076 -0.0228
35806SOL    HW114533  11.927   7.829   6.067 -1.0221 -0.0303 -0.4070
35806SOL    HW214534  11.891   7.790   6.209 -0.6868 -0.4963 -0.4449
35807SOL     OW14535  10.940   4.389   0.757 -0.6496  0.0921 -0.6428
35807SOL    HW114536  10.939   4.326   0.685 -2.0899  0.7277 -1.2131
35807SOL    HW214537  11.000   4.458   0.728 -0.8883  0.1284 -1.0670
35808SOL     OW14538   2.073   0.882   4.478  0.3713 -0.0845  0.2566
35808SOL    HW114539   2.040   0.955   4.531 -0.0693 -1.5359  2.1064
35808SOL    HW214540   2.168   0.887   4.487  0.3287  0.0838  0.6323
35809SOL     OW14541  10.975   2.556  11.818 -0.4279 -0.4841  0.0690
35809SOL    HW114542  10.944   2.548  11.908  0.6173  2.0354  0.7368
35809SOL    HW214543  10.901   2.594  11.771 -0.2416  0.3265  0.4093
35810SOL     OW14544   8.205  11.046   8.197 -0.3978  0.0329  0.1470
35810SOL    HW114545   8.252  10.974   8.155 -0.4804  0.8325 -1.3587
35810SOL    HW214546   8.118  11.011   8.214 -0.4632 -0.2067 -0.6493
35811SOL     OW14547   8.489   1.559   9.967  0.8936  0.3950  0.2685
35811SOL    HW114548   8.449   1.533   9.883 -1.3182  1.7614  0.7919
35811SOL    HW214549   8.493   1.655   9.962  2.2748  0.4054  1.1144
35812SOL     OW14550   2.465   2.586   5.592 -0.2226 -0.4736  0.6211
35812SOL    HW114551   2.489   2.678   5.575 -1.6597 -0.2110 -0.2334
35812SOL    HW214552   2.415   2.589   5.673 -1.8143 -0.1824 -0.3249
35813SOL     OW14553   5.020   0.876  11.344 -0.1643 -0.6243  0.4214
35813SOL    HW114554   4.969   0.839  11.416  1.9443 -1.0282  1.8347
35813SOL    HW214555   5.099   0.911  11.387  1.5148 -1.4970 -1.7623
35814SOL     OW14556   3.811   0.513   0.539 -0.4719 -0.3398  0.1809
35814SOL    HW114557   3.878   0.460   0.496 -1.9445 -0.7408 -1.7319
35814SOL    HW214558   3.788   0.579   0.474 -0.2565  1.3319  1.7125
35815SOL     OW14559   3.671   9.617   1.129  0.1957 -0.2587 -0.3991
35815SOL    HW114560   3.634   9.679   1.066 -1.3969 -0.6269  0.1315
35815SOL    HW214561   3.618   9.538   1.119  0.8884 -0.8443  0.3774
35816SOL     OW14562   5.516   2.827   2.267  0.0037 -0.1411  0.1598
35816SOL    HW114563   5.484   2.846   2.356 -1.1679  1.8542 -0.6180
35816SOL    HW214564   5.442   2.846   2.210  1.0330 -0.4562 -1.3351
35817SOL     OW14565   8.634   5.684   2.955  0.0125  0.1554  0.2319
35817SOL    HW114566   8.547   5.645   2.961 -0.3154  0.9591  0.7876
35817SOL    HW214567   8.621   5.776   2.976  0.8399  0.4948 -0.6834
35818SOL     OW14568  12.544   6.155   5.558  0.5275 -0.1632  0.2215
35818SOL    HW114569  12.564   6.243   5.590 -3.1145  0.7524  0.3901
35818SOL    HW214570  12.552   6.099   5.636  3.2666 -0.1740  0.0298
35819SOL     OW14571   9.010   6.547   1.856 -0.6847 -0.3549 -0.3728
35819SOL    HW114572   8.991   6.474   1.798 -0.0820 -0.0542 -0.9664
35819SOL    HW214573   8.979   6.624   1.809  1.2929  0.0751 -1.0662
35820SOL     OW14574  10.383   6.269   1.032 -0.1295 -0.8568  0.0959
35820SOL    HW114575  10.408   6.356   1.001  1.3369 -1.4794 -0.5271
35820SOL    HW214576  10.292   6.280   1.061 -0.0916  0.7884 -0.2906
35821SOL     OW14577   9.174   4.508   4.706 -0.3671 -0.1060 -0.0647
35821SOL    HW114578   9.178   4.585   4.650  1.4872 -0.8030 -0.9752
35821SOL    HW214579   9.086   4.511   4.744 -0.7213  1.8627 -0.8783
35822SOL     OW14580   8.333   6.046   3.599  0.4368 -0.3081  0.2493
35822SOL    HW114581   8.297   6.124   3.556 -0.0618 -1.0364 -0.6986
35822SOL    HW214582   8.407   6.078   3.649 -0.3311  0.9263  0.6398
35823SOL     OW14583  12.358   5.763   3.389  0.2927  0.2254  0.3328
35823SOL    HW114584  12.319   5.844   3.357  1.7427  0.7407 -0.2031
35823SOL    HW214585  12.398   5.724   3.312  1.3383  0.0182  0.9655
35824SOL     OW14586   9.516   9.998   9.857  0.0522 -0.4145  0.0856
35824SOL    HW114587   9.477  10.084   9.842  0.6488 -0.2145 -0.3975
35824SOL    HW214588   9.447   9.935   9.835 -1.3513 -0.0895  3.1510
35825SOL     OW14589   9.624   0.562   5.748 -0.1509 -0.1781 -0.1042
35825SOL    HW114590   9.583   0.482   5.784 -0.8769 -0.1769 -0.8944
35825SOL    HW214591   9.698   0.578   5.805 -1.6618  0.2291  1.8679
35826SOL     OW14592   4.149   6.696   5.003  0.0227  0.4472  0.1309
35826SOL    HW114593   4.178   6.782   5.034 -1.0308  0.0717  2.3068
35826SOL    HW214594   4.088   6.666   5.069 -0.0601 -1.7607 -0.8749
35827SOL     OW14595   0.518   4.699   3.537 -0.2401 -0.1633 -0.2696
35827SOL    HW114596   0.442   4.651   3.504 -0.1245 -0.2246 -0.4481
35827SOL    HW214597   0.570   4.633   3.582  1.0743 -0.7284 -2.4496
35828SOL     OW14598   9.737   0.558  10.180 -0.1089  0.4183 -0.4163
35828SOL    HW114599   9.735   0.571  10.275  1.3185 -0.5620 -0.2234
35828SOL    HW214600   9.829   0.567  10.156 -0.1186 -1.5137 -1.3647
35829SOL     OW14601   4.782   6.559   6.498 -0.0298 -0.0696 -0.0613
35829SOL    HW114602   4.733   6.519   6.569 -0.2715 -0.1335 -0.2630
35829SOL    HW214603   4.791   6.490   6.433  3.1320 -1.1034  1.2867
35830SOL     OW14604   5.829   6.597   1.629 -0.2591 -0.2643  0.4823
35830SOL    HW114605   5.905   6.618   1.574 -1.0615  1.7034  0.0572
35830SOL    HW214606   5.794   6.517   1.591  3.1828 -2.9688  2.4055
35831SOL     OW14607   9.494  12.679  10.977 -0.6661  0.1136 -0.5350
35831SOL    HW114608   9.503  12.748  11.043  0.2130  1.6807 -2.1810
35831SOL    HW214609   9.579  12.635  10.976 -0.1598  1.0569 -1.5703
35832SOL     OW14610  12.109  11.299   8.163 -0.1236  0.1601 -0.2421
35832SOL    HW114611  12.182  11.322   8.220 -1.1152 -0.0810  1.1687
35832SOL    HW214612  12.072  11.383   8.136 -0.6762  0.2689  0.8348
35833SOL     OW14613   3.336  12.636   2.001 -0.2669 -0.1279 -0.7639
35833SOL    HW114614   3.349  12.649   2.095 -0.5257  0.7091 -0.8400
35833SOL    HW214615   3.361  12.544   1.986 -0.1223 -0.2375  0.0982
35834SOL     OW14616   4.777   7.753  11.158 -0.8407 -0.1305 -0.0561
35834SOL    HW114617   4.771   7.840  11.197  1.9944 -0.0328  0.3972
35834SOL    HW214618   4.837   7.764  11.085 -0.8505 -1.6033 -0.3114
35835SOL     OW14619  11.023  11.032   3.841 -0.5934 -0.1428 -0.9340
35835SOL    HW114620  11.096  11.092   3.859 -0.0778 -0.5551 -1.6011
35835SOL    HW214621  11.060  10.967   3.781 -1.1492 -1.1134 -0.2518
35836SOL     OW14622   2.039   5.245   0.730 -0.4558  0.3550 -0.1250
35836SOL    HW114623   2.059   5.254   0.823 -0.6648 -1.5829  0.1537
35836SOL    HW214624   1.954   5.201   0.728 -2.4975  3.9198 -1.2936
35837SOL     OW14625   2.607   9.980   1.643  0.1149 -0.3460  0.5706
35837SOL    HW114626   2.684  10.034   1.624  0.0422 -0.2552  0.5320
35837SOL    HW214627   2.532  10.036   1.621  0.0429 -1.1856 -1.4829
35838SOL     OW14628   5.030   7.579   1.790  0.2596 -0.6353 -0.1751
35838SOL    HW114629   5.112   7.582   1.741 -0.8872  1.0036 -2.1296
35838SOL    HW214630   5.002   7.670   1.796 -1.7312 -1.1949 -0.1089
35839SOL     OW14631   4.954  11.213   9.882  0.0045  0.2481 -0.6585
35839SOL    HW114632   4.905  11.243   9.959  0.3149  0.3110 -0.4836
35839SOL    HW214633   5.044  11.204   9.913  0.1957  0.5849 -1.0991
35840SOL     OW14634  11.875   2.699   1.306  0.0540 -0.1959  0.5039
35840SOL    HW114635  11.874   2.738   1.394 -1.2283 -2.5940  1.6348
35840SOL    HW214636  11.848   2.609   1.319  0.2112 -0.7501 -2.3508
35841SOL     OW14637   0.267   7.460  11.109 -0.2921  0.3927  0.1559
35841SOL    HW114638   0.282   7.405  11.186 -0.3002 -1.7606 -1.3202
35841SOL    HW214639   0.261   7.399  11.036 -2.8791  2.1365 -1.2559
35842SOL     OW14640  11.091   2.116   4.553  0.1062  0.6655  0.1633
35842SOL    HW114641  11.134   2.197   4.530  0.8728  0.7139  1.6175
35842SOL    HW214642  11.162   2.052   4.559 -0.0823  0.5559  1.7607
35843SOL     OW14643  12.736   0.573   1.309 -0.2078  0.0720  0.0933
35843SOL    HW114644  12.783   0.514   1.251  0.2848 -0.6956  1.2396
35843SOL    HW214645  12.777   0.658   1.295  0.0013 -0.1311 -0.5663
35844SOL     OW14646   9.800   2.057   1.735  0.2173  0.7564 -0.0364
35844SOL    HW114647   9.838   1.970   1.740 -0.0142  0.7227  1.7409
35844SOL    HW214648   9.872   2.113   1.705  0.7144  0.1525  0.0157
35845SOL     OW14649   0.445  12.436   0.007  0.3029 -0.4627  0.0247
35845SOL    HW114650   0.521  12.449  -0.050  0.0689  3.3285  0.3328
35845SOL    HW214651   0.382  12.389  -0.048  0.8874  1.1183 -2.1351
35846SOL     OW14652  11.157   6.561   9.522  0.1026  0.5276  0.9600
35846SOL    HW114653  11.065   6.549   9.499  0.4035 -0.5614  0.2475
35846SOL    HW214654  11.160   6.646   9.567 -1.2831  0.4493  1.2344
35847SOL     OW14655   9.706   4.342   6.107  0.2410  0.1269 -0.0944
35847SOL    HW114656   9.633   4.354   6.168  0.4239  1.4332 -0.1065
35847SOL    HW214657   9.773   4.297   6.159 -0.5276 -1.0555 -0.0713
35848SOL     OW14658   1.076   7.260   0.644 -0.2163 -0.0572  0.0461
35848SOL    HW114659   1.126   7.191   0.687  1.0593  1.5607  1.2769
35848SOL    HW214660   1.026   7.301   0.715  1.9473  2.6840  0.1102
35849SOL     OW14661   1.445   1.206  10.642 -1.3311  0.0784 -0.8016
35849SOL    HW114662   1.391   1.134  10.610  1.8601 -2.2840 -1.4718
35849SOL    HW214663   1.499   1.230  10.567  1.3291 -0.6211  0.7425
35850SOL     OW14664   7.362  10.803   2.832 -0.2016  0.0892  0.2625
35850SOL    HW114665   7.436  10.752   2.797 -1.4592 -1.7277  0.1077
35850SOL    HW214666   7.353  10.773   2.923 -1.5497 -0.7456 -0.1087
35851SOL     OW14667   1.050   6.379   0.218  0.2698 -0.1750  0.3253
35851SOL    HW114668   1.095   6.392   0.301 -0.2963 -2.2309  1.0112
35851SOL    HW214669   1.119   6.350   0.158  0.1014 -2.6911  1.2082
35852SOL     OW14670   4.567  12.651  12.136  0.2188 -0.0447  0.3945
35852SOL    HW114671   4.591  12.743  12.140 -1.5865  0.4842 -0.0464
35852SOL    HW214672   4.612  12.618  12.059 -0.2587  0.8491 -0.2854
35853SOL     OW14673   7.816   6.602   7.379 -0.2701 -0.3856 -0.0436
35853SOL    HW114674   7.810   6.618   7.285 -0.6695  0.4097  0.1141
35853SOL    HW214675   7.825   6.507   7.386  2.2417 -0.3020 -0.9947
35854SOL     OW14676   2.033   7.028  11.669  0.4952 -0.1446 -0.3389
35854SOL    HW114677   1.959   6.974  11.641  0.1429  0.2788 -0.2440
35854SOL    HW214678   2.102   7.010  11.606  0.6116 -1.2042  0.0691
35855SOL     OW14679   7.711   3.867   8.511 -0.3054 -0.0663  0.0911
35855SOL    HW114680   7.802   3.849   8.488 -0.2094 -0.4120  0.7325
35855SOL    HW214681   7.663   3.788   8.487 -0.4233  0.0701 -0.1346
35856SOL     OW14682   7.825  12.826   7.575 -0.3693  0.2080 -0.5139
35856SOL    HW114683   7.809  12.853   7.665  2.5871 -2.0452  0.8587
35856SOL    HW214684   7.762  12.755   7.560  0.1148 -0.4240  0.3591
35857SOL     OW14685   9.412  10.703  10.792 -0.1625  0.2050  0.3367
35857SOL    HW114686   9.493  10.734  10.833 -0.1512 -1.2106  1.4805
35857SOL    HW214687   9.421  10.608  10.790 -1.6248  0.0478  0.1361
35858SOL     OW14688   0.131   7.728   2.751 -0.2654 -0.4035 -0.6063
35858SOL    HW114689   0.140   7.645   2.799  1.9016  0.5563  0.7644
35858SOL    HW214690   0.075   7.782   2.807  0.3297 -0.1028 -0.2967
35859SOL     OW14691   8.666   6.474   7.182  0.6647  0.1509 -0.0302
35859SOL    HW114692   8.709   6.422   7.249 -0.7248  0.6522  1.2977
35859SOL    HW214693   8.722   6.464   7.105  1.2370 -2.0715  0.5958
35860SOL     OW14694   3.202   5.617   9.585 -0.4067 -0.1432  0.0507
35860SOL    HW114695   3.185   5.689   9.646 -0.0242 -0.2512  0.2880
35860SOL    HW214696   3.121   5.609   9.534 -1.2250 -0.9130  1.4132
35861SOL     OW14697  11.838   3.835   2.141  0.2495 -0.0910 -0.4595
35861SOL    HW114698  11.747   3.818   2.168 -0.0277  1.1773 -0.5194
35861SOL    HW214699  11.833   3.844   2.046  0.6386 -1.0759 -0.5898
35862SOL     OW14700   9.716   6.191   2.384  0.0391  0.5276 -0.2167
35862SOL    HW114701   9.650   6.137   2.341 -0.0003  0.8553 -0.5710
35862SOL    HW214702   9.800   6.152   2.358 -0.0013  0.3716 -0.1143
35863SOL     OW14703   1.707   3.385  12.049  0.0075 -0.3925 -0.6788
35863SOL    HW114704   1.766   3.380  12.124 -0.3154  3.9411  0.1432
35863SOL    HW214705   1.619   3.381  12.088 -0.1960 -1.1315 -1.2047
35864SOL     OW14706  12.242  10.769   4.274  0.6839  0.1613  0.4121
35864SOL    HW114707  12.204  10.681   4.269  0.7504  0.1831 -0.6195
35864SOL    HW214708  12.178  10.825   4.230  0.4423  0.7075  1.4311
35865SOL     OW14709  11.969  12.360   0.904 -0.2132 -0.0385 -0.0201
35865SOL    HW114710  11.998  12.326   0.820 -0.5572  1.3379 -0.7194
35865SOL    HW214711  12.040  12.338   0.965  1.9314  2.3995 -1.4615
35866SOL     OW14712   3.618   9.582  12.136  0.3605 -0.1860 -0.0586
35866SOL    HW114713   3.573   9.527  12.200 -1.3464 -0.3781 -1.3579
35866SOL    HW214714   3.674   9.639  12.189 -0.3645 -0.8910  1.5417
35867SOL     OW14715   9.231  12.085   0.606  0.1320  0.4885  0.7257
35867SOL    HW114716   9.241  12.178   0.628 -0.6173  0.6598  0.3828
35867SOL    HW214717   9.170  12.084   0.532 -0.1483 -0.2989  0.9529
35868SOL     OW14718   5.572   7.590   3.572  0.9371 -0.2965 -0.4200
35868SOL    HW114719   5.597   7.678   3.602  1.4586 -0.0791 -1.4554
35868SOL    HW214720   5.515   7.606   3.497 -1.5881 -0.8052  1.2550
35869SOL     OW14721  12.158  10.777   1.140 -0.4493 -0.4454  0.0065
35869SOL    HW114722  12.083  10.800   1.195 -1.0778  0.4286 -1.1793
35869SOL    HW214723  12.178  10.856   1.091  0.9892 -0.7996 -0.0298
35870SOL     OW14724  11.857   3.787   5.408  0.0099  0.1318  0.4919
35870SOL    HW114725  11.827   3.829   5.488  0.1091 -1.2948  1.3166
35870SOL    HW214726  11.782   3.792   5.349 -0.2687  0.6683  0.8849
35871SOL     OW14727  10.487   5.532   4.544  0.1766  0.1202 -0.2423
35871SOL    HW114728  10.471   5.519   4.637  1.0894 -0.9807 -0.2251
35871SOL    HW214729  10.527   5.451   4.514 -0.6103  0.2312 -1.7299
35872SOL     OW14730  12.943   7.446   6.015  0.0883 -0.3002 -0.2620
35872SOL    HW114731  12.879   7.413   5.952 -2.2462  3.1818 -0.0378
35872SOL    HW214732  13.011   7.486   5.962 -0.4218  0.1499 -0.5955
35873SOL     OW14733  11.455   9.198   9.380 -0.0019 -0.0296  0.0744
35873SOL    HW114734  11.481   9.286   9.409 -2.3212  0.0895  2.0319
35873SOL    HW214735  11.390   9.214   9.312  1.5276 -0.3247 -1.5448
35874SOL     OW14736   9.634   7.860   2.870 -0.4322  0.0742 -0.0467
35874SOL    HW114737   9.648   7.887   2.961  0.1015 -2.7023  0.8090
35874SOL    HW214738   9.707   7.801   2.851 -1.1612 -0.3185 -1.8946
35875SOL     OW14739   9.024   8.089  10.339  0.0704 -0.1558 -0.5369
35875SOL    HW114740   8.949   8.033  10.360  0.1984 -0.1850 -0.1542
35875SOL    HW214741   8.993   8.178  10.358  0.0911 -0.1576 -0.4919
35876SOL     OW14742  12.332   4.600   9.051 -0.1503 -0.4814  0.0731
35876SOL    HW114743  12.385   4.608   9.130 -0.1941 -0.9423  0.1486
35876SOL    HW214744  12.265   4.667   9.061  0.4129  0.1085 -0.0255
35877SOL     OW14745  11.126  11.426  10.822 -0.2809 -0.5740  0.0730
35877SOL    HW114746  11.141  11.344  10.776  0.6744 -0.2850 -0.1651
35877SOL    HW214747  11.090  11.485  10.756  0.3588 -0.3939 -0.1302
35878SOL     OW14748   6.275   4.104   7.155 -0.4817 -0.0032  0.0526
35878SOL    HW114749   6.200   4.108   7.215 -0.2615  1.4831  0.2762
35878SOL    HW214750   6.325   4.183   7.175  0.4410 -0.2965 -1.0161
35879SOL     OW14751   8.320   7.326  12.176  0.0049 -0.2406 -0.1716
35879SOL    HW114752   8.285   7.289  12.095  1.7830 -0.3860 -0.8995
35879SOL    HW214753   8.367   7.404  12.149 -0.0841  0.1740  0.8391
35880SOL     OW14754  12.673   4.521   8.027  0.2243 -0.4383 -0.1730
35880SOL    HW114755  12.712   4.466   8.094 -0.0125  0.5892  0.8534
35880SOL    HW214756  12.665   4.465   7.950 -0.8813 -2.1067  1.1029
35881SOL     OW14757   8.209   6.162   4.358  0.3020  0.1093  0.3063
35881SOL    HW114758   8.126   6.158   4.311  1.2737  0.7453 -1.5558
35881SOL    HW214759   8.185   6.150   4.450 -1.6897 -0.9907 -0.3042
35882SOL     OW14760   0.593   9.030  12.466  0.2485  0.1757  0.1441
35882SOL    HW114761   0.567   8.972  12.394  0.1561 -0.4416  0.6728
35882SOL    HW214762   0.671   9.074  12.434  0.7604 -0.7909  0.0176
35883SOL     OW14763   9.612   2.633  11.651  0.3569 -0.2083  0.0714
35883SOL    HW114764   9.628   2.570  11.581 -0.1076 -0.7024  0.4026
35883SOL    HW214765   9.586   2.713  11.607  2.7367  0.3526 -0.4629
35884SOL     OW14766   1.068   5.153   4.335  0.3267 -0.1885  0.2231
35884SOL    HW114767   1.119   5.157   4.255 -1.5957 -0.4420 -1.0772
35884SOL    HW214768   0.979   5.177   4.309  0.0929  2.2531  2.7514
35885SOL     OW14769   0.436   2.897   0.105  0.5818 -0.3443  0.2624
35885SOL    HW114770   0.520   2.854   0.117  0.2363 -1.4691 -1.0247
35885SOL    HW214771   0.371   2.830   0.126 -0.0243  0.6483  1.7142
35886SOL     OW14772   2.295   0.328   0.619 -0.1599  0.1314  0.0632
35886SOL    HW114773   2.223   0.296   0.564  1.2411 -0.5562 -1.4740
35886SOL    HW214774   2.291   0.424   0.611 -0.1134  0.0494 -1.1082
35887SOL     OW14775   3.436   9.096   7.517  0.6514  0.2493 -0.2522
35887SOL    HW114776   3.429   9.056   7.603  2.4067  0.6800  0.1373
35887SOL    HW214777   3.348   9.126   7.497  0.5100  1.8034  2.2391
35888SOL     OW14778  10.969   5.499   0.597 -0.8551 -0.1576  0.1112
35888SOL    HW114779  11.005   5.410   0.593 -1.9204 -0.6483  1.1332
35888SOL    HW214780  11.046   5.555   0.596 -0.1627 -1.0725 -0.7079
35889SOL     OW14781   3.379   0.561   9.738  0.7778 -0.0011 -0.1533
35889SOL    HW114782   3.349   0.652   9.747 -0.2733 -0.4366  0.9608
35889SOL    HW214783   3.391   0.531   9.828  1.4214 -0.8780 -0.5238
35890SOL     OW14784   7.894  12.037   0.493 -0.3967  0.4265 -0.2637
35890SOL    HW114785   7.827  12.068   0.432 -0.4612  0.2396 -0.2869
35890SOL    HW214786   7.887  12.097   0.568 -0.2572  0.7109 -0.4770
35891SOL     OW14787   9.052   5.589   1.764 -0.0326 -0.1175  0.1334
35891SOL    HW114788   9.056   5.527   1.691 -0.4573 -1.6739  1.3763
35891SOL    HW214789   9.136   5.578   1.809  0.0749  0.5675  0.1206
35892SOL     OW14790   0.489  11.813  12.723 -0.0804 -0.1022 -0.0627
35892SOL    HW114791   0.395  11.821  12.708 -0.2196  1.5489  1.3975
35892SOL    HW214792   0.527  11.891  12.683  0.6215 -0.5160 -0.2236
35893SOL     OW14793   5.556   6.825   1.688 -0.7544 -0.2164 -0.0914
35893SOL    HW114794   5.511   6.766   1.748 -0.5686 -0.6675 -0.3936
35893SOL    HW214795   5.489   6.849   1.623 -0.5496 -0.9191 -0.5640
35894SOL     OW14796   6.855   1.886  11.790 -0.2013 -0.2090 -0.4479
35894SOL    HW114797   6.839   1.798  11.824  0.4866  0.1325  0.8296
35894SOL    HW214798   6.942   1.880  11.749  0.9594  0.3940  1.7462
35895SOL     OW14799   7.645  10.358  11.000  0.3859 -0.2893 -0.2520
35895SOL    HW114800   7.684  10.294  11.060  1.1430 -0.9940 -1.4589
35895SOL    HW214801   7.561  10.380  11.041  0.2577 -1.7855  0.3900
35896SOL     OW14802   5.298  10.139   8.648  0.0124  0.2913  0.6507
35896SOL    HW114803   5.326  10.199   8.716 -0.9796 -0.9465  2.2225
35896SOL    HW214804   5.203  10.132   8.659  0.1123 -1.7427  0.7350
35897SOL     OW14805  10.254  11.348   7.713  0.2233  0.1011 -0.1032
35897SOL    HW114806  10.160  11.364   7.726  0.1762  1.0884 -1.4997
35897SOL    HW214807  10.257  11.273   7.654  0.3161  0.0362 -0.0155
35898SOL     OW14808   8.743   1.341  11.439 -0.0761 -0.2072 -0.0656
35898SOL    HW114809   8.705   1.427  11.422 -0.4407 -0.3802 -0.1247
35898SOL    HW214810   8.749   1.337  11.535 -0.3166 -0.2297 -0.0524
35899SOL     OW14811   8.388   6.440   7.080  0.2172 -0.4998  0.0512
35899SOL    HW114812   8.393   6.476   6.992  1.3446 -0.0661  0.2796
35899SOL    HW214813   8.478   6.436   7.110  0.0208 -2.4313  0.4932
35900SOL     OW14814   9.057  11.360   2.023  0.9916  0.2432 -0.3155
35900SOL    HW114815   9.044  11.265   2.022  0.6126  0.2947 -0.4670
35900SOL    HW214816   8.974  11.395   2.055  0.5259  0.6171 -1.8748
35901SOL     OW14817  11.406   6.048   9.481  0.4708 -0.2090  0.0124
35901SOL    HW114818  11.323   6.074   9.522  0.8517  1.8223 -0.4176
35901SOL    HW214819  11.449   5.994   9.548 -0.5367 -0.0463  0.8197
35902SOL     OW14820   8.869   6.623   5.752  0.5266  0.0953 -0.0499
35902SOL    HW114821   8.879   6.536   5.714  3.8216  1.0248 -1.6631
35902SOL    HW214822   8.946   6.634   5.807 -0.1372  1.8153  0.6132
35903SOL     OW14823   0.345   6.109   7.100  0.5684 -0.2048  0.4650
35903SOL    HW114824   0.290   6.048   7.150  0.1471  0.4541  0.8184
35903SOL    HW214825   0.347   6.188   7.153 -0.4496  0.7529 -0.8585
35904SOL     OW14826  10.214   5.994   4.909  0.1428 -0.5950 -0.1242
35904SOL    HW114827  10.139   5.952   4.952 -1.0759  1.8325  0.2881
35904SOL    HW214828  10.183   6.015   4.821  0.3831  0.2155 -0.0292
35905SOL     OW14829   4.500  10.625   9.540 -0.2167 -0.2005 -0.3976
35905SOL    HW114830   4.492  10.553   9.603 -1.2754  0.1327 -0.1252
35905SOL    HW214831   4.557  10.590   9.471 -0.6481 -1.2745 -0.2336
35906SOL     OW14832  10.478   5.321   3.036 -0.6330  0.2775  0.4697
35906SOL    HW114833  10.568   5.312   3.005 -0.5532 -1.4597  1.1142
35906SOL    HW214834  10.447   5.401   2.995  0.8562  0.3354 -0.6273
35907SOL     OW14835  10.214   3.719   0.050  0.2993  0.4146  0.5040
35907SOL    HW114836  10.270   3.662   0.104  0.7830  0.2052 -0.2108
35907SOL    HW214837  10.148   3.659   0.014 -1.1584  0.8370  2.2758
35908SOL     OW14838   0.883   2.979   8.550 -0.1132 -0.5777  0.4205
35908SOL    HW114839   0.814   3.024   8.501  0.8698  0.1740 -0.3031
35908SOL    HW214840   0.957   2.974   8.490  1.9084  2.2463  2.3563
35909SOL     OW14841   0.863   5.423  10.971  0.3017  0.2209  0.3950
35909SOL    HW114842   0.852   5.328  10.967 -0.4819  0.3129  0.0517
35909SOL    HW214843   0.940   5.441  10.918  0.5429 -0.2373  0.5859
35910SOL     OW14844   6.307   7.046   2.299  0.2088  0.0824 -0.0632
35910SOL    HW114845   6.311   7.140   2.316 -1.8054  0.1984 -0.0256
35910SOL    HW214846   6.328   7.006   2.383 -0.9322  0.5327  0.4462
35911SOL     OW14847   7.242   0.963  10.658  0.2827 -0.2573  0.2728
35911SOL    HW114848   7.154   0.957  10.696  0.7857  0.9694  1.7359
35911SOL    HW214849   7.268   0.872  10.643 -0.5637 -0.7174  1.4581
35912SOL     OW14850   4.148   3.423   7.662 -0.7511 -0.9431  0.0876
35912SOL    HW114851   4.098   3.342   7.654  2.5708 -3.4535  2.0352
35912SOL    HW214852   4.172   3.427   7.754  3.7579 -0.9315 -0.8337
35913SOL     OW14853   9.870   8.107   5.537  0.0519  0.1095 -0.3281
35913SOL    HW114854   9.952   8.146   5.506  0.2236 -0.9540 -1.3190
35913SOL    HW214855   9.803   8.143   5.480  0.2203 -1.0186 -1.2920
35914SOL     OW14856   3.465   1.894   5.315  0.4645  0.0825  0.1791
35914SOL    HW114857   3.507   1.846   5.386 -2.2268 -1.6287  0.7668
35914SOL    HW214858   3.468   1.834   5.240 -2.2887 -0.8606  0.7166
35915SOL     OW14859   9.687   0.237   5.077 -0.5807  0.7307  0.0191
35915SOL    HW114860   9.601   0.267   5.047 -1.2603 -1.7056 -0.6553
35915SOL    HW214861   9.679   0.233   5.172 -1.6272 -0.4869 -0.0881
35916SOL     OW14862   2.773   4.953  11.157 -0.0658  0.6540 -0.3867
35916SOL    HW114863   2.776   4.858  11.145  1.6628  0.7270 -0.8557
35916SOL    HW214864   2.682   4.972  11.180 -0.3367 -1.1627  0.1705
35917SOL     OW14865   9.071   4.798   4.044 -0.9003 -0.1726  0.4759
35917SOL    HW114866   9.147   4.844   4.008  0.2610 -2.5439 -0.3411
35917SOL    HW214867   8.996   4.841   4.003  0.1984 -0.0505 -1.5825
35918SOL     OW14868   8.294   4.967   6.345 -0.7578 -0.2975 -0.3965
35918SOL    HW114869   8.289   4.873   6.324 -0.8318 -0.1235 -1.2057
35918SOL    HW214870   8.366   4.999   6.291 -1.9383  0.4692 -1.5757
35919SOL     OW14871   9.010   7.078   8.538 -0.5434 -0.1126 -0.3615
35919SOL    HW114872   9.058   7.127   8.472  2.0663 -0.4440  1.1608
35919SOL    HW214873   8.941   7.032   8.489 -0.3976  1.6907 -2.3999
35920SOL     OW14874  11.153   0.253   2.310 -0.6067  0.1160 -0.3729
35920SOL    HW114875  11.167   0.320   2.377 -0.8428  2.2137 -2.3021
35920SOL    HW214876  11.205   0.178   2.341  0.4430  1.4778  1.4288
35921SOL     OW14877   1.777   0.807  10.333 -0.1357 -0.5988  0.1266
35921SOL    HW114878   1.853   0.814  10.390  0.6708 -1.1213 -0.8489
35921SOL    HW214879   1.736   0.894  10.336  0.4694 -0.3305  0.7075
35922SOL     OW14880   7.001   9.230   4.897  0.0294  0.1944  0.0292
35922SOL    HW114881   7.073   9.167   4.893  0.1399 -0.0785  3.6221
35922SOL    HW214882   6.929   9.183   4.938 -1.3809  1.2331 -1.1245
35923SOL     OW14883   1.617   9.268   4.115  0.3707 -0.4336  0.0163
35923SOL    HW114884   1.705   9.235   4.132  0.8499  0.8213  0.0848
35923SOL    HW214885   1.580   9.207   4.052  1.6002 -0.5062 -0.6630
35924SOL     OW14886   0.570   0.931   1.600 -0.3563 -0.1563 -0.4378
35924SOL    HW114887   0.595   0.900   1.513 -1.0056 -1.4045 -0.2092
35924SOL    HW214888   0.540   1.021   1.586 -1.2771 -0.6309 -1.6642
35925SOL     OW14889   4.593   0.266   3.123  0.5908  0.5433 -0.1488
35925SOL    HW114890   4.627   0.355   3.118  0.4646  0.5157 -2.3140
35925SOL    HW214891   4.576   0.241   3.032 -0.5363 -1.2502  0.4895
35926SOL     OW14892   3.015   7.928   8.276 -0.2533 -0.1258  0.4970
35926SOL    HW114893   2.946   7.965   8.221 -0.2298 -0.1250  0.4679
35926SOL    HW214894   3.092   7.983   8.257 -0.2604 -0.0879  0.5756
35927SOL     OW14895   9.483   9.261   9.322  0.1924  0.4015 -0.1961
35927SOL    HW114896   9.431   9.192   9.365 -0.2302  0.8416  0.0094
35927SOL    HW214897   9.451   9.342   9.361  0.6889  0.7164 -0.4416
35928SOL     OW14898   2.020   7.104  11.088  0.5134 -0.0027 -0.4414
35928SOL    HW114899   1.936   7.060  11.080  0.7136 -0.7902  1.2044
35928SOL    HW214900   1.998   7.197  11.097 -0.2155 -0.2256  0.2094
35929SOL     OW14901   6.584  11.014   7.600 -0.2740  0.1260  0.1547
35929SOL    HW114902   6.504  11.045   7.558 -0.4972  1.9238  1.7691
35929SOL    HW214903   6.556  10.941   7.655 -0.6898  0.2766  0.1500
35930SOL     OW14904   4.131   6.472   7.378  0.2206  0.0331 -0.9856
35930SOL    HW114905   4.132   6.377   7.391  2.0016 -0.1014 -1.8287
35930SOL    HW214906   4.211   6.503   7.421 -1.5740  1.5347  1.5401
35931SOL     OW14907  11.835   9.896   5.107 -0.4293 -0.5877 -0.4909
35931SOL    HW114908  11.776   9.969   5.085  1.0579  0.8004 -0.1280
35931SOL    HW214909  11.879   9.875   5.024  0.5218  0.2712 -0.2301
35932SOL     OW14910   9.990  11.909   8.328  0.2802 -0.2124  0.5280
35932SOL    HW114911   9.983  11.852   8.405 -0.6079 -0.6821  0.1115
35932SOL    HW214912  10.072  11.958   8.342  0.3101 -0.5403  1.5920
35933SOL     OW14913   4.591   0.841  11.390 -0.0517 -0.3654 -0.1044
35933SOL    HW114914   4.685   0.839  11.407 -0.0875 -0.2116  0.1162
35933SOL    HW214915   4.582   0.808  11.301  0.1764 -0.7772  0.0229
35934SOL     OW14916   5.091   4.695  10.343  0.3655 -0.1024  0.1391
35934SOL    HW114917   5.138   4.753  10.403  1.3300 -0.3424 -0.3633
35934SOL    HW214918   5.148   4.687  10.267 -1.9106  2.2334 -2.0129
35935SOL     OW14919   5.026  10.228   4.280  0.2535 -0.3923 -0.3925
35935SOL    HW114920   5.023  10.311   4.232  0.1460  0.4457  1.0251
35935SOL    HW214921   5.109  10.231   4.327  0.6714 -1.5079 -1.0344
35936SOL     OW14922   3.275   8.831   8.124 -0.3205  0.6282  0.4672
35936SOL    HW114923   3.339   8.814   8.194 -0.1299  1.1124  0.4145
35936SOL    HW214924   3.270   8.749   8.075  1.0379  0.8873 -0.1556
35937SOL     OW14925   7.378  11.207   0.630 -0.6183 -0.1114 -0.0201
35937SOL    HW114926   7.430  11.149   0.686 -1.1441 -0.4958  0.0787
35937SOL    HW214927   7.375  11.290   0.677 -1.9428 -0.7371  1.0585
35938SOL     OW14928   9.001  12.390   2.891 -0.5334 -0.1167 -0.0699
35938SOL    HW114929   8.913  12.358   2.870 -0.2824 -0.3287 -0.8225
35938SOL    HW214930   9.013  12.367   2.983 -0.5131 -1.8743 -0.4653
35939SOL     OW14931   8.682   4.027  12.345  0.3271 -0.2995 -0.5262
35939SOL    HW114932   8.670   4.057  12.255  1.0026  0.0954 -0.4896
35939SOL    HW214933   8.593   4.021  12.380  0.0448 -0.6091 -1.2604
35940SOL     OW14934   4.908   9.796   0.898  0.5516 -0.0394  1.0131
35940SOL    HW114935   4.821   9.822   0.926 -0.4267  0.0740 -1.8380
35940SOL    HW214936   4.896   9.708   0.862  1.2491  0.5170 -0.7085
35941SOL     OW14937   4.055   8.816   2.819  0.0012  0.0824  0.7223
35941SOL    HW114938   4.107   8.871   2.759  0.6972  0.1048  1.3280
35941SOL    HW214939   3.966   8.821   2.785  0.5077 -0.5827 -0.8133
35942SOL     OW14940   1.879   4.594  12.843 -0.2857  0.9421 -0.2559
35942SOL    HW114941   1.795   4.616  12.803  0.5204  2.3144 -1.2737
35942SOL    HW214942   1.904   4.512  12.801 -1.1392  0.4731  0.1218
35943SOL     OW14943   8.041   5.522   8.308  0.1098  0.2873 -0.5185
35943SOL    HW114944   8.011   5.434   8.288  1.4166  0.0024 -1.3789
35943SOL    HW214945   8.008   5.576   8.236 -1.1616  0.6376  0.2927
35944SOL     OW14946   1.889  12.375   8.666 -0.0439  0.1268 -0.3273
35944SOL    HW114947   1.891  12.373   8.762 -2.3756  2.6370 -0.0952
35944SOL    HW214948   1.965  12.427   8.641  0.6103 -0.5911  0.1133
35945SOL     OW14949  11.962   5.021   4.786 -0.5554  0.0137  0.0494
35945SOL    HW114950  11.940   4.928   4.787 -2.7224  0.4395  1.8101
35945SOL    HW214951  11.897   5.061   4.845 -0.4917  2.8230 -1.6260
35946SOL     OW14952   9.706   6.684  11.676 -0.3157 -0.2243 -0.3176
35946SOL    HW114953   9.672   6.672  11.588 -1.3998  2.3779 -0.3475
35946SOL    HW214954   9.666   6.613  11.727 -2.0509 -0.0181 -1.3316
35947SOL     OW14955   2.707   0.735   3.285 -0.0963  0.2062 -0.2129
35947SOL    HW114956   2.716   0.715   3.192  1.5223 -0.7747  0.1283
35947SOL    HW214957   2.744   0.823   3.295 -2.0306  1.1388 -0.7714
35948SOL     OW14958  10.243   9.300   1.727  0.1975  0.2421  0.1364
35948SOL    HW114959  10.333   9.306   1.696  0.7886  0.1586  1.7614
35948SOL    HW214960  10.199   9.377   1.690  0.8180  0.0779 -0.9756
35949SOL     OW14961   6.349  11.540   0.787 -0.0920 -0.4541 -0.1735
35949SOL    HW114962   6.352  11.608   0.720 -0.6123 -0.4215 -0.1618
35949SOL    HW214963   6.258  11.510   0.788 -0.0447 -0.5871  0.3883
35950SOL     OW14964  10.249   9.674  12.483 -1.0690  0.3467 -0.5368
35950SOL    HW114965  10.207   9.713  12.405 -1.4790  1.4444  0.2079
35950SOL    HW214966  10.192   9.699  12.555 -0.1410  0.2037  0.2566
35951SOL     OW14967   5.208   7.127   0.489 -0.1152 -0.1276 -0.1451
35951SOL    HW114968   5.249   7.211   0.469  1.7363 -0.6815  1.0196
35951SOL    HW214969   5.170   7.139   0.577 -1.2868 -0.0454 -0.6423
35952SOL     OW14970   6.829  11.065   0.962 -0.0151 -0.0892 -0.6463
35952SOL    HW114971   6.745  11.020   0.977  1.0908 -1.6691  1.4077
35952SOL    HW214972   6.842  11.061   0.868 -1.6732 -0.8871 -0.8857
35953SOL     OW14973   3.324  12.771   6.358  0.4773  0.2276 -0.5281
35953SOL    HW114974   3.347  12.782   6.450  1.9417 -0.4627 -0.7863
35953SOL    HW214975   3.398  12.809   6.310  0.3116 -0.5267 -1.4093
35954SOL     OW14976   6.965   2.263  11.879 -0.0865 -0.0358  0.0425
35954SOL    HW114977   6.958   2.274  11.784 -0.9866  1.3573  0.2386
35954SOL    HW214978   6.878   2.233  11.907  0.4447 -1.3940  0.3430
35955SOL     OW14979  12.346   8.245   8.141  0.3921  0.2972  0.3871
35955SOL    HW114980  12.347   8.330   8.185  0.6367  1.0541 -1.0432
35955SOL    HW214981  12.316   8.263   8.052 -0.3427 -1.2411  0.2824
35956SOL     OW14982  11.470  11.522   9.111  0.2684  0.2015  0.4335
35956SOL    HW114983  11.455  11.601   9.162 -1.8969  0.0756  0.1189
35956SOL    HW214984  11.398  11.463   9.137  0.6310 -0.8525 -0.8308
35957SOL     OW14985  10.587   3.164   6.867  0.3401 -0.5857  0.1232
35957SOL    HW114986  10.543   3.216   6.799 -4.1085 -1.9366  1.6215
35957SOL    HW214987  10.601   3.079   6.826  0.2854 -0.5502  0.0306
35958SOL     OW14988   6.063  11.999  10.644  0.6337 -0.4752  0.5173
35958SOL    HW114989   6.027  12.015  10.731  1.0169  0.6079  0.4947
35958SOL    HW214990   6.154  11.975  10.659  0.5215 -0.9391  0.4531
35959SOL     OW14991   3.097   6.742   3.466  0.2976  0.2708  0.4001
35959SOL    HW114992   3.085   6.649   3.445  1.7181  0.2794 -0.6162
35959SOL    HW214993   3.090   6.787   3.382  0.7076  0.9480  0.7220
35960SOL     OW14994  12.105   9.309   5.080  0.0973  0.0390 -0.5306
35960SOL    HW114995  12.171   9.244   5.056 -1.5899 -1.4839 -1.2553
35960SOL    HW214996  12.063   9.333   4.997  0.0122  1.3207 -0.1458
35961SOL     OW14997   9.119   0.951   3.878 -0.6761 -0.3037 -0.8348
35961SOL    HW114998   9.069   0.991   3.808 -0.7776  0.0658 -0.5535
35961SOL    HW214999   9.185   0.898   3.833 -1.3340 -0.8292 -1.2073
35962SOL     OW15000  11.445   7.644   9.645 -0.1695 -0.0071  0.2595
35962SOL    HW115001  11.498   7.573   9.681 -0.4787  0.7109  2.2592
35962SOL    HW215002  11.482   7.661   9.558  2.9265  0.4981  1.5844
35963SOL     OW15003   8.692   3.293   8.352  0.2901 -0.2343  0.3561
35963SOL    HW115004   8.752   3.274   8.281 -0.2970  1.0788 -0.5189
35963SOL    HW215005   8.690   3.388   8.358 -1.2542 -0.2566  0.7247
35964SOL     OW15006   4.471   7.852   5.127 -0.0589  0.1231  0.7052
35964SOL    HW115007   4.437   7.846   5.216 -2.3938  0.6143 -0.0852
35964SOL    HW215008   4.561   7.882   5.138  0.8798 -2.9178  3.0185
35965SOL     OW15009   8.638  12.492   9.408 -0.1136 -0.2745  0.0905
35965SOL    HW115010   8.717  12.438   9.414  0.0611  0.0102  0.3938
35965SOL    HW215011   8.586  12.451   9.338  0.6842  0.0223 -0.7031
35966SOL     OW15012   9.142   6.618   3.944 -0.2231 -0.2485 -0.2418
35966SOL    HW115013   9.084   6.645   3.873 -0.1540 -0.3481 -0.3364
35966SOL    HW215014   9.220   6.584   3.900 -0.1875 -0.3280 -0.1187
35967SOL     OW15015  10.766  12.720   6.369 -0.2215  0.0991  0.1947
35967SOL    HW115016  10.696  12.778   6.342  1.9609  2.2895 -1.1014
35967SOL    HW215017  10.843  12.776   6.379  1.3894 -2.1400  1.6522
35968SOL     OW15018   0.005   8.605   1.714 -0.0756  0.1720 -0.1096
35968SOL    HW115019  -0.012   8.676   1.652 -3.8677  0.6995  1.2858
35968SOL    HW215020   0.095   8.619   1.742 -0.5597  4.3828 -0.0171
35969SOL     OW15021   5.061   4.529   1.255 -0.3156  0.1174  0.4842
35969SOL    HW115022   5.011   4.554   1.333 -0.5118 -1.7258  0.9964
35969SOL    HW215023   5.138   4.484   1.289 -0.4530 -0.8023 -0.3664
35970SOL     OW15024   4.831   1.135   7.028  0.2654 -0.1731 -0.4578
35970SOL    HW115025   4.772   1.158   7.100  0.2822 -0.5794 -0.3135
35970SOL    HW215026   4.784   1.067   6.980  1.3780 -1.8360  0.7130
35971SOL     OW15027  11.213   4.515   6.518 -0.0096 -0.5553 -0.3977
35971SOL    HW115028  11.132   4.559   6.493 -0.3051 -1.4666 -1.0749
35971SOL    HW215029  11.281   4.582   6.510 -0.4887 -0.1606 -1.1789
35972SOL     OW15030   4.419   2.028   5.427  0.0044 -1.1885  0.0732
35972SOL    HW115031   4.386   1.940   5.414  0.1139 -1.3531  0.8328
35972SOL    HW215032   4.410   2.071   5.342  0.1865 -2.0055 -0.3646
35973SOL     OW15033   1.293   0.175   7.564  0.3487  0.2938 -0.1213
35973SOL    HW115034   1.268   0.082   7.568 -1.5224  0.7395 -0.4416
35973SOL    HW215035   1.365   0.183   7.627 -0.5077 -1.0561  1.1039
35974SOL     OW15036   0.471   6.455   8.991 -0.6892 -0.1711 -0.0626
35974SOL    HW115037   0.468   6.446   8.895  0.9766  0.6250 -0.2166
35974SOL    HW215038   0.481   6.366   9.023  0.0560 -0.3345 -0.7164
35975SOL     OW15039   9.412  12.643   6.275 -0.0098 -0.1554 -0.0704
35975SOL    HW115040   9.408  12.552   6.246  2.0275 -0.5056  0.5865
35975SOL    HW215041   9.469  12.641   6.352  0.3332  1.7111 -0.2341
35976SOL     OW15042  10.213   4.073   8.543 -0.3410  0.0485 -0.5910
35976SOL    HW115043  10.125   4.040   8.524  0.1087 -0.8245 -1.2049
35976SOL    HW215044  10.235   4.033   8.628 -0.6923  0.6045 -0.2297
35977SOL     OW15045   5.016  10.929   8.156 -0.0277  0.0948 -0.1685
35977SOL    HW115046   5.061  11.013   8.148  0.2791  0.0657  0.9906
35977SOL    HW215047   5.058  10.887   8.232 -0.3825 -0.9699 -0.5456
35978SOL     OW15048   2.259   0.170   0.292  0.0682  0.1554  0.3068
35978SOL    HW115049   2.254   0.163   0.196  1.4262 -0.5646  0.2547
35978SOL    HW215050   2.345   0.211   0.308 -0.7026  1.4992  1.1965
35979SOL     OW15051   9.651   8.088  11.733  0.5602  0.0783  0.1458
35979SOL    HW115052   9.739   8.112  11.762  0.2874  0.7516  0.4481
35979SOL    HW215053   9.593   8.119  11.803  0.1533 -1.1784  0.3899
35980SOL     OW15054   9.070  12.169   3.144 -0.0819  0.0548 -0.0169
35980SOL    HW115055   9.146  12.192   3.090  0.3198 -0.9722  0.0985
35980SOL    HW215056   9.107  12.146   3.229 -0.6322  0.7201  0.4157
35981SOL     OW15057   4.712   6.047   3.206  0.2676  0.0036  0.1695
35981SOL    HW115058   4.701   6.111   3.276 -0.8269 -0.1908  0.1861
35981SOL    HW215059   4.671   6.088   3.130 -0.0308 -0.4849  0.0624
35982SOL     OW15060   5.131  10.457   5.813  0.4235  0.3009 -0.5037
35982SOL    HW115061   5.112  10.528   5.873 -0.7887 -0.5281  0.1421
35982SOL    HW215062   5.047  10.436   5.773  0.9452 -0.1103 -1.4312
35983SOL     OW15063   8.118   6.014   5.655 -0.0446  0.0200 -0.1713
35983SOL    HW115064   8.063   6.063   5.716  0.7808  0.4260  0.2629
35983SOL    HW215065   8.157   5.944   5.708 -0.2130 -0.3247 -0.4982
35984SOL     OW15066   4.981   0.332   9.300  0.1100 -0.1397 -0.7047
35984SOL    HW115067   5.030   0.318   9.220 -1.0320 -1.6618 -1.2005
35984SOL    HW215068   5.040   0.381   9.357  1.4468 -0.2255 -1.9669
35985SOL     OW15069   4.895  10.412   6.527 -0.1010  0.3244 -0.6781
35985SOL    HW115070   4.936  10.478   6.583 -0.6009  0.4803 -0.4913
35985SOL    HW215071   4.943  10.417   6.445 -0.1013  0.8834 -0.6458
35986SOL     OW15072   7.212   7.963   3.044  0.3594  0.2153  0.1243
35986SOL    HW115073   7.268   7.962   3.122 -0.2752  0.6781  0.5932
35986SOL    HW215074   7.165   7.880   3.048  1.3755 -0.4206 -0.5578
35987SOL     OW15075   7.628  11.775   7.059  0.6882  0.4993 -0.0518
35987SOL    HW115076   7.692  11.711   7.090  0.3458 -0.0244 -0.4101
35987SOL    HW215077   7.543  11.730   7.068  0.3255  1.3039  0.7448
35988SOL     OW15078   7.858  12.601   4.925  0.4817  0.0660 -0.2490
35988SOL    HW115079   7.874  12.554   4.843  0.6562  1.8748 -1.3104
35988SOL    HW215080   7.772  12.640   4.913  1.1451  1.5919 -0.2187
35989SOL     OW15081   1.721  11.657  11.560 -0.6262 -0.1431 -0.0761
35989SOL    HW115082   1.679  11.575  11.534 -1.1578 -0.1799  0.8322
35989SOL    HW215083   1.700  11.718  11.490  1.1403 -1.1678 -1.5859
35990SOL     OW15084  10.914  10.780   7.602  0.0357 -1.0941  0.6207
35990SOL    HW115085  10.963  10.768   7.683  0.2223 -0.9782  0.5246
35990SOL    HW215086  10.834  10.826   7.629  1.4330  1.7154  0.3637
35991SOL     OW15087   4.091   2.395   0.399 -0.1619 -0.2256 -0.9115
35991SOL    HW115088   4.136   2.425   0.478 -1.5960 -1.5832  0.4767
35991SOL    HW215089   4.145   2.323   0.367  0.8370  0.8075 -1.6783
35992SOL     OW15090   7.385   5.714   6.966 -0.0524  0.4383  0.1225
35992SOL    HW115091   7.341   5.755   7.040 -1.4983  0.9747 -1.0101
35992SOL    HW215092   7.465   5.677   7.004 -0.0701  1.8967  1.6852
35993SOL     OW15093   1.778  12.621   1.457 -0.0261  0.2829 -0.5942
35993SOL    HW115094   1.720  12.697   1.460 -0.0445  0.2575 -0.1213
35993SOL    HW215095   1.848  12.646   1.396  0.2895  0.9173  0.0091
35994SOL     OW15096   7.136  10.249   7.617 -0.3929  0.2596  0.1903
35994SOL    HW115097   7.125  10.309   7.543  0.0617  3.7697  2.7183
35994SOL    HW215098   7.047  10.234   7.649 -0.5385 -0.7634 -0.6609
35995SOL     OW15099   6.664   8.031   9.948  0.0452  0.3037 -0.5628
35995SOL    HW115100   6.577   8.058   9.977  0.0833  0.4302 -0.5687
35995SOL    HW215101   6.702   8.108   9.907 -0.8118 -0.4386 -2.8812
35996SOL     OW15102   7.852   7.168   3.568 -0.6406  0.5383  0.6073
35996SOL    HW115103   7.936   7.131   3.541 -1.2990 -0.4393 -0.1952
35996SOL    HW215104   7.843   7.247   3.515 -1.5887 -0.9876 -1.6717
35997SOL     OW15105   2.026   0.326  12.487  0.2491  0.1664 -0.0199
35997SOL    HW115106   2.016   0.336  12.582 -0.9391 -0.2720 -0.0945
35997SOL    HW215107   2.116   0.357  12.470 -0.1342  2.0125  0.9902
35998SOL     OW15108   0.808   6.362  11.536  0.0185  0.1715  0.6195
35998SOL    HW115109   0.764   6.332  11.616  1.9696  0.0454  1.7263
35998SOL    HW215110   0.897   6.328  11.545  0.3573  0.3808 -1.5196
35999SOL     OW15111  11.188  10.496   9.677 -0.1352  0.1092  0.1314
35999SOL    HW115112  11.169  10.560   9.609 -0.3348 -1.1820 -1.0813
35999SOL    HW215113  11.179  10.411   9.633  0.8191 -0.7399  1.4963
36000SOL     OW15114   3.912   9.569   4.460 -0.1792 -0.5322 -0.2400
36000SOL    HW115115   3.937   9.656   4.428 -1.3400  0.4668  1.4218
36000SOL    HW215116   3.817   9.573   4.465 -0.1735 -1.5221  0.8687
36001SOL     OW15117   8.341   1.066  11.276 -0.3254 -0.1500 -0.1967
36001SOL    HW115118   8.352   0.977  11.311 -1.0087 -0.2783 -0.3061
36001SOL    HW215119   8.366   1.059  11.184 -2.4843 -0.7400 -0.7947
36002SOL     OW15120  11.585   5.007   6.123 -0.7626  0.1511 -0.3474
36002SOL    HW115121  11.578   5.066   6.199  0.4954 -1.5015  1.1311
36002SOL    HW215122  11.648   4.941   6.150 -0.4779 -0.6614 -2.7802
36003SOL     OW15123   8.072   7.717   1.797 -0.4025 -0.0425 -0.8314
36003SOL    HW115124   8.156   7.676   1.819 -0.6312 -0.6581 -1.0623
36003SOL    HW215125   8.091   7.810   1.792  0.5997 -0.2837 -2.3143
36004SOL     OW15126   1.520  10.961   1.724 -0.0352  0.3787  0.0607
36004SOL    HW115127   1.570  11.043   1.719 -0.7840  0.9810  1.6232
36004SOL    HW215128   1.432  10.985   1.696 -0.2007  0.0511  0.2911
36005SOL     OW15129   9.414   5.171  12.757 -0.0822 -0.1047  0.4855
36005SOL    HW115130   9.446   5.219  12.680 -0.5038 -2.5355 -1.3056
36005SOL    HW215131   9.330   5.136  12.730 -0.6218 -0.3677  2.3910
36006SOL     OW15132   2.120   2.292   2.479 -0.2454 -0.4401  0.0353
36006SOL    HW115133   2.144   2.382   2.501  1.2717 -0.7008 -0.4852
36006SOL    HW215134   2.185   2.238   2.523  1.1118 -1.1004 -2.5817
36007SOL     OW15135   8.754   9.073   1.788  0.1782 -0.3283 -0.8082
36007SOL    HW115136   8.685   9.126   1.829 -0.7450 -1.7903 -0.3783
36007SOL    HW215137   8.754   9.101   1.696 -2.2123 -1.4064 -1.2286
36008SOL     OW15138   1.533  12.340  12.701 -0.7955 -0.1484  0.7632
36008SOL    HW115139   1.616  12.292  12.703 -0.6813  0.0474  2.9549
36008SOL    HW215140   1.490  12.309  12.621  0.7669 -1.2991  0.3035
36009SOL     OW15141   9.303   1.621   7.816  0.5570 -0.1826 -0.0407
36009SOL    HW115142   9.229   1.635   7.875 -1.0456 -1.1491 -1.7195
36009SOL    HW215143   9.373   1.676   7.852 -0.6850  0.1327  2.0789
36010SOL     OW15144   9.960   4.329   8.542 -0.0769  0.0885 -0.3902
36010SOL    HW115145  10.000   4.406   8.500 -0.4239  0.2550 -0.4223
36010SOL    HW215146   9.974   4.258   8.479 -1.7107  0.5984 -1.4215
36011SOL     OW15147   8.661   6.564   4.917  0.2401  0.1214 -0.1201
36011SOL    HW115148   8.722   6.627   4.879 -0.8763  0.7004 -1.0079
36011SOL    HW215149   8.693   6.479   4.888  1.0820  0.3559  0.1001
36012SOL     OW15150   2.753   9.437   2.266 -0.0941  0.6106  0.0598
36012SOL    HW115151   2.671   9.481   2.289  0.1264  1.0273  0.0660
36012SOL    HW215152   2.794   9.418   2.350 -0.0944  0.5702  0.0511
36013SOL     OW15153  12.333  11.769  10.267 -0.2542  0.1125  0.2584
36013SOL    HW115154  12.334  11.677  10.241 -0.2230 -0.6067  2.6068
36013SOL    HW215155  12.337  11.768  10.363 -1.0318  2.5467  0.4014
36014SOL     OW15156  11.194   3.477   6.104  0.3686  0.2521 -0.1221
36014SOL    HW115157  11.278   3.476   6.150  0.1973  2.0731  0.3015
36014SOL    HW215158  11.152   3.558   6.132 -0.3324  0.7756 -2.4503
36015SOL     OW15159   1.608  12.742   1.091 -0.0953  0.1850 -0.2726
36015SOL    HW115160   1.631  12.835   1.081 -1.2125  0.5617  0.3991
36015SOL    HW215161   1.564  12.738   1.176 -2.3466 -0.4706 -1.3781
36016SOL     OW15162  12.076   2.537   3.935  0.1184  0.0876 -0.3983
36016SOL    HW115163  12.012   2.517   4.003  0.5668  0.4372  0.1368
36016SOL    HW215164  12.079   2.458   3.881 -0.4028 -0.1103 -0.1414
36017SOL     OW15165   0.766   9.592   5.022 -0.0545 -0.4499 -0.0682
36017SOL    HW115166   0.705   9.614   5.093  1.4889 -1.3031  1.5897
36017SOL    HW215167   0.725   9.629   4.944 -1.5060  1.1165  1.3405
36018SOL     OW15168   5.485   8.977   3.709 -0.3638  0.1144  0.7504
36018SOL    HW115169   5.571   8.952   3.743  0.0253  0.2458 -0.1113
36018SOL    HW215170   5.436   9.006   3.786  0.6609  0.8926  1.1288
36019SOL     OW15171   8.748   8.442   2.135 -0.6335 -0.7632  0.1654
36019SOL    HW115172   8.787   8.380   2.197  0.9837 -0.6221 -0.6657
36019SOL    HW215173   8.728   8.389   2.058 -2.7090 -0.9554  0.7650
36020SOL     OW15174   4.585   5.130   0.881  0.0977  0.0236  0.3790
36020SOL    HW115175   4.629   5.081   0.951 -0.3952  2.5521  2.6789
36020SOL    HW215176   4.656   5.155   0.822  0.4904 -2.4619 -0.2993
36021SOL     OW15177   7.355   2.217   9.966  0.3715  0.6175  0.6009
36021SOL    HW115178   7.434   2.209   9.912  0.6474 -0.2978  1.1185
36021SOL    HW215179   7.377   2.286  10.029  1.2649 -0.4907  1.5533
36022SOL     OW15180   9.998   2.715   6.864  0.3592 -0.0791 -0.2624
36022SOL    HW115181  10.018   2.783   6.929 -0.5178  0.2662 -0.3398
36022SOL    HW215182  10.014   2.633   6.909  0.5225  0.1705  0.1366
36023SOL     OW15183   8.436   8.988   3.525 -0.0548  0.1967  0.0390
36023SOL    HW115184   8.504   8.970   3.590  0.4450 -0.4828 -0.6627
36023SOL    HW215185   8.355   8.963   3.569  0.1779  0.6013  0.7223
36024SOL     OW15186   9.766   6.198   6.541  0.8611 -0.4358 -0.1273
36024SOL    HW115187   9.687   6.144   6.543  1.1859 -0.8959  1.8348
36024SOL    HW215188   9.804   6.180   6.455 -1.9259  0.9832 -1.7925
36025SOL     OW15189  10.876   9.509  11.828  0.2662 -0.3534 -0.2258
36025SOL    HW115190  10.803   9.524  11.767 -0.8748 -0.6063  1.0164
36025SOL    HW215191  10.897   9.595  11.863 -0.5676 -0.4777  0.6242
36026SOL     OW15192   9.744   5.906  11.425 -0.3464  0.2442  0.1316
36026SOL    HW115193   9.656   5.898  11.387  0.7033 -0.7902 -2.2991
36026SOL    HW215194   9.786   5.974  11.373 -0.1632  1.9829  2.3900
36027SOL     OW15195   4.837   6.903   6.046  0.2624 -0.5051 -0.1096
36027SOL    HW115196   4.880   6.839   6.103  0.6601  1.3297  1.8065
36027SOL    HW215197   4.769   6.941   6.102  1.3336  2.1046 -0.4386
36028SOL     OW15198   8.126  12.234   9.052  0.0704 -0.1291  0.1629
36028SOL    HW115199   8.193  12.191   8.998 -1.4225 -0.7197 -1.2786
36028SOL    HW215200   8.155  12.217   9.142  1.5263 -0.8909 -0.4026
36029SOL     OW15201   6.165   1.182   1.924  0.0447 -0.0830 -0.3166
36029SOL    HW115202   6.148   1.147   1.836  1.4932 -0.6566 -0.3899
36029SOL    HW215203   6.113   1.126   1.982  0.6444 -1.0109 -0.6419
36030SOL     OW15204  11.301   3.754  12.613  0.0142 -0.2534 -0.2225
36030SOL    HW115205  11.244   3.717  12.680 -0.1266 -0.5322 -0.4941
36030SOL    HW215206  11.250   3.748  12.532 -0.3959  1.4117 -0.1182
36031SOL     OW15207   5.225   3.946   9.754  0.1880  0.1914 -0.0381
36031SOL    HW115208   5.143   3.973   9.796  0.4574  0.3409  0.3923
36031SOL    HW215209   5.285   4.018   9.770  0.8244 -0.5333  0.8603
36032SOL     OW15210   6.977   3.935   6.262 -0.8992  0.1748 -0.3702
36032SOL    HW115211   6.997   3.904   6.350 -0.0983  0.4295 -0.4485
36032SOL    HW215212   7.014   3.868   6.204  1.4673  1.5344 -0.5567
36033SOL     OW15213   0.443   7.320  11.381  0.5926 -0.9079  0.2715
36033SOL    HW115214   0.420   7.240  11.334 -1.3687  0.1222 -0.6808
36033SOL    HW215215   0.408   7.307  11.469 -1.4883 -0.4142 -0.4217
36034SOL     OW15216   9.257   8.061   8.769 -0.7889 -0.3214  0.2927
36034SOL    HW115217   9.287   8.024   8.686 -0.0315 -0.6452  0.7067
36034SOL    HW215218   9.269   8.155   8.758  0.6688 -0.4604  0.5511
36035SOL     OW15219   3.743  12.627  12.728  0.3420 -0.7269 -0.7356
36035SOL    HW115220   3.678  12.693  12.701  1.2365  0.8179  0.6682
36035SOL    HW215221   3.728  12.617  12.822  2.1644 -0.2413 -0.3525
36036SOL     OW15222   0.064   2.132   1.738  0.2743 -0.0141  0.1169
36036SOL    HW115223  -0.019   2.083   1.745  0.6401 -0.4648  1.6342
36036SOL    HW215224   0.121   2.075   1.686 -0.2427  0.1342 -0.6254
36037SOL     OW15225   8.464   2.761   9.649 -0.1997 -0.6301 -0.1258
36037SOL    HW115226   8.540   2.729   9.600 -1.0003 -0.9407 -1.2120
36037SOL    HW215227   8.407   2.799   9.582 -0.9680 -0.3189  0.6800
36038SOL     OW15228  10.645   9.019  11.862  0.3734 -0.6620 -0.0794
36038SOL    HW115229  10.653   8.938  11.912 -0.1389 -1.0051 -0.5453
36038SOL    HW215230  10.607   8.992  11.778 -2.2766  0.3920  0.6882
36039SOL     OW15231   3.860  12.083  10.516  1.0617  0.1181  0.1134
36039SOL    HW115232   3.771  12.118  10.527  0.3503 -1.9369  1.5493
36039SOL    HW215233   3.917  12.157  10.537 -0.2786  1.4184 -0.5761
36040SOL     OW15234   4.425   8.917   0.996 -0.6363 -0.1351  0.1830
36040SOL    HW115235   4.480   8.995   1.001 -0.6259  0.0221 -1.7264
36040SOL    HW215236   4.473   8.850   1.044  0.7099  0.2998 -0.5246
36041SOL     OW15237   8.707   9.937   8.175 -0.2076  0.3510  0.1010
36041SOL    HW115238   8.702   9.929   8.080 -2.8652  0.7894  0.1340
36041SOL    HW215239   8.694  10.030   8.193 -1.1140  0.0817  0.9270
36042SOL     OW15240   9.257   4.157  10.406  0.0181  0.0179  0.0992
36042SOL    HW115241   9.292   4.135  10.319 -0.6248 -0.3312 -0.0711
36042SOL    HW215242   9.168   4.125  10.405  0.5363 -1.5630  1.5106
36043SOL     OW15243   6.818   9.181   2.406  0.2242 -0.0261  0.3644
36043SOL    HW115244   6.735   9.155   2.366  0.4709  0.8082 -0.7425
36043SOL    HW215245   6.871   9.101   2.406 -0.2623 -0.3512  0.2432
36044SOL     OW15246   3.065  10.884  10.682  0.0034 -0.3279 -0.4415
36044SOL    HW115247   2.978  10.872  10.720 -1.4394 -0.2193 -3.4395
36044SOL    HW215248   3.125  10.870  10.756 -2.4941 -0.6221  1.6975
36045SOL     OW15249   2.587  10.992   8.483 -0.3158 -0.0087 -0.5230
36045SOL    HW115250   2.670  11.005   8.529 -0.5178 -0.4757 -0.0261
36045SOL    HW215251   2.600  10.910   8.434 -0.4487 -0.0230 -0.5334
36046SOL     OW15252   2.228   2.622   8.309  0.7904 -0.0232  0.4576
36046SOL    HW115253   2.297   2.594   8.369  0.7988 -1.1322 -0.0384
36046SOL    HW215254   2.247   2.575   8.228 -0.6257 -0.4693  0.3593
36047SOL     OW15255   7.479   4.964   8.474 -0.1849 -0.3140 -1.0569
36047SOL    HW115256   7.448   4.984   8.385 -0.5352 -0.8182 -1.0514
36047SOL    HW215257   7.572   4.943   8.463 -0.4256 -1.2246 -1.4364
36048SOL     OW15258   0.311   1.165   8.066 -0.2893  0.1378  0.5990
36048SOL    HW115259   0.304   1.192   8.158 -0.4601  0.6416  0.4412
36048SOL    HW215260   0.278   1.240   8.017  1.4460  0.5761  0.0354
36049SOL     OW15261   4.103  12.070  12.310 -0.3770  0.1069  0.2067
36049SOL    HW115262   4.175  12.124  12.342 -0.3591  0.7387 -0.8650
36049SOL    HW215263   4.138  11.981  12.307 -0.9497 -0.4050  3.7864
36050SOL     OW15264   4.957   5.121   1.822 -0.5064  0.7621 -0.5983
36050SOL    HW115265   4.861   5.111   1.824 -0.7096  2.4619 -0.4737
36050SOL    HW215266   4.984   5.070   1.745 -1.5232  0.3732 -0.7225
36051SOL     OW15267   5.807   2.617   7.628  0.1369 -0.0488 -0.4104
36051SOL    HW115268   5.889   2.572   7.649 -1.2218 -2.0102  1.0914
36051SOL    HW215269   5.787   2.590   7.539 -0.2173 -1.8591  0.1745
36052SOL     OW15270   4.197  12.642  10.527 -0.2246  0.3481 -0.2572
36052SOL    HW115271   4.107  12.666  10.506 -0.1589  0.9445  0.1218
36052SOL    HW215272   4.250  12.701  10.473 -0.0429 -1.0947 -1.7190
36053SOL     OW15273   9.878  12.667   9.536  0.0844  0.1574 -0.0707
36053SOL    HW115274   9.910  12.737   9.593 -0.0684  0.6148 -0.5424
36053SOL    HW215275   9.957  12.631   9.496  0.4236 -1.5370  1.9450
36054SOL     OW15276   6.481   9.419   5.258  0.4789  0.5345 -0.2493
36054SOL    HW115277   6.506   9.327   5.272  1.1068  0.9240  1.4584
36054SOL    HW215278   6.504   9.436   5.166  2.0430 -0.5243 -0.1034
36055SOL     OW15279   9.308   1.959   6.062  0.5514 -0.0432  0.4538
36055SOL    HW115280   9.370   1.925   6.126 -0.4980 -0.4908  1.2740
36055SOL    HW215281   9.337   2.048   6.044  1.5743 -0.3313  0.6093
36056SOL     OW15282   3.331   9.736   7.489  0.5737 -0.3137  0.4165
36056SOL    HW115283   3.264   9.758   7.554 -1.1227 -1.4134 -0.9000
36056SOL    HW215284   3.414   9.756   7.534 -0.5690  0.4383  2.3371
36057SOL     OW15285   9.593   6.087  12.960  0.0658 -0.2891 -0.1400
36057SOL    HW115286   9.575   6.024  12.890 -0.0844 -1.8985  1.2698
36057SOL    HW215287   9.556   6.170  12.928 -0.8138 -1.1791 -1.5691
36058SOL     OW15288   4.526   0.173   3.402  0.3006 -0.2936  0.3489
36058SOL    HW115289   4.434   0.161   3.378  0.1028  0.3306  0.7696
36058SOL    HW215290   4.573   0.178   3.319 -0.2291  0.7390  0.0910
36059SOL     OW15291   8.145   3.265  10.968  0.0376  0.1478  0.4677
36059SOL    HW115292   8.145   3.348  11.015  1.4811 -0.4196  1.5475
36059SOL    HW215293   8.225   3.267  10.916 -0.3644 -0.2106 -0.1787
36060SOL     OW15294   8.956  11.939   8.414 -0.2306 -0.0296  0.1643
36060SOL    HW115295   8.919  11.999   8.349  0.6094  0.9362  0.5384
36060SOL    HW215296   9.043  11.917   8.380 -0.3036 -0.5602  0.3225
36061SOL     OW15297  12.661  10.753  12.034  0.2378  0.2433  0.3500
36061SOL    HW115298  12.681  10.843  12.060 -0.8414  1.3015 -2.2339
36061SOL    HW215299  12.702  10.743  11.949 -1.5652 -0.9202 -0.4350
36062SOL     OW15300   8.700   7.305   2.406 -0.0126  0.1699  0.0512
36062SOL    HW115301   8.791   7.299   2.376 -0.0857 -0.3880 -0.0697
36062SOL    HW215302   8.662   7.220   2.383 -0.4685  0.2723  0.4216
36063SOL     OW15303   9.227   3.906   6.318  0.4559  0.0941 -0.6684
36063SOL    HW115304   9.315   3.933   6.342  0.7788 -1.1524 -0.3521
36063SOL    HW215305   9.235   3.812   6.300 -1.1810 -0.5257  1.3933
36064SOL     OW15306   0.223   3.413  11.359  0.3372  0.5402  0.4577
36064SOL    HW115307   0.215   3.484  11.423  1.8675  0.1510  1.1312
36064SOL    HW215308   0.212   3.455  11.274 -1.5248  1.1034  0.9425
36065SOL     OW15309   7.722   4.631   4.513 -0.1155 -0.3258  0.4270
36065SOL    HW115310   7.813   4.612   4.533  0.2170 -2.7941 -2.6210
36065SOL    HW215311   7.723   4.723   4.486  1.1134  0.1697  2.0327
36066SOL     OW15312  10.053   5.393   6.060 -0.2393  0.0242  0.5107
36066SOL    HW115313   9.972   5.429   6.097 -0.0004 -0.9221  2.0188
36066SOL    HW215314  10.047   5.299   6.075  0.8244 -0.1414  0.0025
36067SOL     OW15315   4.492   5.821   4.871 -0.3574  0.3774  0.2356
36067SOL    HW115316   4.541   5.830   4.952  1.6449  0.4552 -0.9277
36067SOL    HW215317   4.551   5.854   4.803 -1.2206 -1.4227 -1.4949
36068SOL     OW15318   4.042   9.127   4.783 -0.5984  0.0392 -0.0311
36068SOL    HW115319   4.022   9.142   4.690  0.8239  0.2581 -0.3227
36068SOL    HW215320   4.051   9.032   4.790 -1.6376 -0.0659  0.1044
36069SOL     OW15321  10.211   2.136   7.561 -0.0200 -0.0730  0.7149
36069SOL    HW115322  10.229   2.099   7.647  1.2254 -0.1384  0.4485
36069SOL    HW215323  10.276   2.206   7.551  0.5112 -0.6951 -0.5504
36070SOL     OW15324   7.369   4.566   0.306 -0.3622  0.0691 -0.2628
36070SOL    HW115325   7.333   4.570   0.395 -1.1989  1.3279 -0.6270
36070SOL    HW215326   7.292   4.561   0.249  0.0363  1.7818 -1.0125
36071SOL     OW15327   8.255   4.282  10.299  0.4155 -0.5432  0.1743
36071SOL    HW115328   8.269   4.317  10.387 -1.1002 -0.3494  0.3676
36071SOL    HW215329   8.331   4.225  10.284  1.9279  1.2499  0.6405
36072SOL     OW15330   1.188  10.827   1.685 -0.2713 -0.3832  0.4285
36072SOL    HW115331   1.175  10.838   1.591 -3.7851 -0.0017  0.8087
36072SOL    HW215332   1.191  10.732   1.698  0.4812 -0.4316 -0.0919
36073SOL     OW15333  12.562   6.830  10.453  0.6034  0.4088  0.3227
36073SOL    HW115334  12.504   6.769  10.497 -0.0769 -0.3646 -1.5324
36073SOL    HW215335  12.543   6.915  10.492  0.5000 -0.3152  1.9095
36074SOL     OW15336   4.216   1.371  10.903  0.3254 -0.4892  0.0315
36074SOL    HW115337   4.178   1.306  10.962 -1.2198 -0.7270 -1.1331
36074SOL    HW215338   4.275   1.322  10.847  1.7579 -0.2703  1.3018
36075SOL     OW15339   4.109  12.478   2.550 -0.0295 -0.3471  0.1651
36075SOL    HW115340   4.045  12.521   2.494 -0.9518 -1.4858  0.3125
36075SOL    HW215341   4.194  12.512   2.520 -0.5691 -0.2062 -1.2817
36076SOL     OW15342   9.598   0.832  11.213 -0.0467  0.3985 -0.2705
36076SOL    HW115343   9.688   0.799  11.205  0.4845  2.0749 -1.8713
36076SOL    HW215344   9.593   0.904  11.150 -2.4805  0.4614 -0.1029
36077SOL     OW15345   5.954   8.998   9.629  0.0351 -0.0400  0.2601
36077SOL    HW115346   5.949   9.036   9.716 -0.0184  0.5808 -0.0126
36077SOL    HW215347   6.047   9.003   9.606  0.0217 -0.0388  0.2062
36078SOL     OW15348   3.139   6.525  11.518 -0.2695 -0.6430 -0.0648
36078SOL    HW115349   3.100   6.581  11.586  0.6831 -1.2458  1.0163
36078SOL    HW215350   3.181   6.455  11.567  2.0518 -0.0935 -1.1456
36079SOL     OW15351   3.247   5.103   5.351 -0.2520 -0.6246  0.0160
36079SOL    HW115352   3.307   5.034   5.326 -1.2975 -1.8157  0.6879
36079SOL    HW215353   3.251   5.166   5.279 -0.0814 -1.9084 -1.1324
36080SOL     OW15354   8.849   2.156   6.616  0.5749  0.0303  0.2185
36080SOL    HW115355   8.755   2.144   6.601  1.0379 -0.7100 -2.5748
36080SOL    HW215356   8.862   2.251   6.618  0.0375  0.1951 -1.8643
36081SOL     OW15357   1.821  11.814   8.669  0.0375 -0.1425 -0.7433
36081SOL    HW115358   1.889  11.878   8.691  0.2186 -0.4065 -0.5315
36081SOL    HW215359   1.810  11.763   8.749 -1.3856  0.7773 -0.3022
36082SOL     OW15360   1.361  12.241   5.644  0.1101 -0.0585  0.3167
36082SOL    HW115361   1.387  12.219   5.554 -0.5429 -1.0296  0.3543
36082SOL    HW215362   1.444  12.245   5.692  0.4811  0.6466 -0.3491
36083SOL     OW15363   6.841  10.374   6.102 -0.3260 -0.3159 -0.1174
36083SOL    HW115364   6.764  10.396   6.050  0.7083  1.3540 -1.0561
36083SOL    HW215365   6.879  10.459   6.125  1.1558 -1.0922  0.4125
36084SOL     OW15366   6.926   4.047   2.927  0.3939  0.0479 -0.3052
36084SOL    HW115367   6.930   4.042   2.831  2.2296  0.7147 -0.2955
36084SOL    HW215368   6.944   4.139   2.947  1.6718 -0.3896  0.7146
36085SOL     OW15369  11.010   5.602   9.006 -0.3449 -0.2065 -0.3299
36085SOL    HW115370  10.917   5.602   8.982 -0.3210 -2.3555 -0.6244
36085SOL    HW215371  11.053   5.649   8.935 -1.1527  0.4722 -0.3880
36086SOL     OW15372   8.668   7.027   2.647 -0.3021 -0.2601 -0.0669
36086SOL    HW115373   8.741   7.047   2.589 -0.1562 -0.8311 -0.0772
36086SOL    HW215374   8.662   6.932   2.648  0.2042 -0.3129  1.4716
36087SOL     OW15375  11.201   8.390   6.304 -0.0814 -0.3680 -0.1224
36087SOL    HW115376  11.244   8.307   6.283 -1.4085 -1.5736  1.5704
36087SOL    HW215377  11.118   8.364   6.344 -1.1819  1.8284 -0.8249
36088SOL     OW15378  12.429   8.936  10.787 -0.6437  0.0456  0.0024
36088SOL    HW115379  12.394   8.975  10.707  0.6679  0.8869 -0.1914
36088SOL    HW215380  12.406   8.999  10.856 -1.3076 -0.4182  0.2115
36089SOL     OW15381   1.616   2.855   8.667  0.2408  0.3523  0.3204
36089SOL    HW115382   1.703   2.895   8.667 -0.4627  1.9696 -0.1295
36089SOL    HW215383   1.567   2.905   8.601  0.0983 -3.0759 -2.4421
36090SOL     OW15384  12.433   0.137  11.330  0.4051  0.0772  0.1677
36090SOL    HW115385  12.452   0.045  11.346 -1.1884 -0.1469  0.9752
36090SOL    HW215386  12.418   0.142  11.235 -0.2248 -0.6636  0.2174
36091SOL     OW15387   2.082   9.495   2.186 -0.0092 -0.0926 -0.7979
36091SOL    HW115388   2.033   9.553   2.244  1.2210  1.3637 -1.1368
36091SOL    HW215389   2.128   9.435   2.245  1.8132  1.8322 -0.1182
36092SOL     OW15390   3.437   5.922   6.521  0.1061 -0.2956 -0.2276
36092SOL    HW115391   3.511   5.934   6.461  0.4934 -0.2406  0.2456
36092SOL    HW215392   3.474   5.940   6.607  0.1053 -2.4303  0.2762
36093SOL     OW15393   2.076   4.845   2.552  0.3077 -0.7827 -0.0772
36093SOL    HW115394   2.035   4.777   2.607  3.2789 -3.1416 -0.4985
36093SOL    HW215395   2.107   4.911   2.614 -1.9134 -0.1429  0.4231
36094SOL     OW15396   5.686   2.130   6.689 -0.4456 -0.1564  0.0584
36094SOL    HW115397   5.645   2.205   6.732 -0.6830  0.7139 -1.6228
36094SOL    HW215398   5.665   2.056   6.745 -1.8915  0.7223  0.7199
36095SOL     OW15399   3.169   4.928   8.057  0.1143  0.0372 -0.4094
36095SOL    HW115400   3.247   4.873   8.057 -1.4207 -2.2666  0.2072
36095SOL    HW215401   3.153   4.949   7.965  0.3407 -1.1789 -0.7379
36096SOL     OW15402   3.580  10.799   5.863 -0.3326 -0.7975  0.2200
36096SOL    HW115403   3.502  10.822   5.915 -0.5119 -0.5926 -0.1375
36096SOL    HW215404   3.552  10.808   5.772  0.5886  0.9804  0.0595
36097SOL     OW15405   5.519   2.925   6.123  0.0016 -0.0221  0.2271
36097SOL    HW115406   5.578   2.880   6.183 -2.1082 -0.8099  1.8589
36097SOL    HW215407   5.495   3.006   6.168 -1.2474 -0.4007  0.3003
36098SOL     OW15408   6.860   3.189  12.399  0.2354 -0.3051  0.0434
36098SOL    HW115409   6.900   3.168  12.315  2.2685 -2.8015  1.4833
36098SOL    HW215410   6.873   3.284  12.408  1.9175 -0.3222 -1.5480
36099SOL     OW15411  10.995   7.938  12.796  0.2612 -0.1953 -0.1471
36099SOL    HW115412  11.073   7.928  12.741  0.7309 -1.7878  0.7459
36099SOL    HW215413  10.938   7.865  12.770 -0.1843 -0.0504  0.4065
36100SOL     OW15414  11.097   8.925  12.111 -0.0490  0.1779 -0.1801
36100SOL    HW115415  11.057   9.012  12.098 -1.2328 -0.4867 -1.3226
36100SOL    HW215416  11.023   8.865  12.107  0.9870 -1.0626 -1.6010
36101SOL     OW15417   4.255   8.706   4.432  0.0926  0.2045  0.7042
36101SOL    HW115418   4.205   8.777   4.471 -1.3936 -1.3596  1.7499
36101SOL    HW215419   4.203   8.677   4.357  0.2402 -0.3631  0.8126
36102SOL     OW15420   7.892   8.841   7.781 -0.0592  0.0859 -0.0957
36102SOL    HW115421   7.927   8.889   7.856 -0.0698 -0.7412  0.4526
36102SOL    HW215422   7.966   8.789   7.749 -0.9421 -2.5691  1.7773
36103SOL     OW15423  12.234   8.771  11.435 -0.3366 -0.3624 -0.6642
36103SOL    HW115424  12.329   8.776  11.433 -0.2866  0.0322  1.2299
36103SOL    HW215425  12.206   8.819  11.357  0.9962 -0.8963 -1.5146
36104SOL     OW15426   5.318   6.566   8.539 -0.7118 -0.0434  0.0133
36104SOL    HW115427   5.338   6.642   8.594  0.2157 -0.7412  0.6839
36104SOL    HW215428   5.388   6.565   8.474  0.1253 -1.1212  0.8908
36105SOL     OW15429   4.229  11.925   0.277 -0.8198 -0.0064  0.4519
36105SOL    HW115430   4.260  11.886   0.359 -2.5165 -0.7430  0.8113
36105SOL    HW215431   4.289  11.892   0.210 -0.4748 -0.8642  1.1632
36106SOL     OW15432   4.193   0.441   8.946  0.3062 -0.2367 -0.2568
36106SOL    HW115433   4.116   0.490   8.977 -0.5806 -0.1573 -2.3967
36106SOL    HW215434   4.250   0.509   8.909  0.7511 -0.4496  0.0426
36107SOL     OW15435  12.575   3.960   9.970  0.1695 -0.3307  0.2080
36107SOL    HW115436  12.575   4.055   9.977 -0.1373 -0.4034  1.2788
36107SOL    HW215437  12.640   3.931  10.034  1.1248 -0.8077 -0.9205
36108SOL     OW15438   3.667   8.013  12.229  0.2050  0.2881  0.4506
36108SOL    HW115439   3.662   8.100  12.190  3.3774  0.5267  0.3109
36108SOL    HW215440   3.731   8.022  12.299  0.2779 -1.8483  0.7250
36109SOL     OW15441  11.832  10.544   9.016 -0.4426 -0.7032  0.4606
36109SOL    HW115442  11.834  10.453   9.046 -2.8316 -1.3442 -0.9878
36109SOL    HW215443  11.805  10.538   8.924  0.4587  1.4359 -0.0021
36110SOL     OW15444  12.155   7.481   9.272  0.4220  0.6521 -0.0151
36110SOL    HW115445  12.094   7.511   9.339 -0.8411 -0.9514 -0.3747
36110SOL    HW215446  12.217   7.426   9.319 -0.0642  0.0727 -0.0322
36111SOL     OW15447  12.384   2.762   2.667 -0.0466  0.3459  0.5604
36111SOL    HW115448  12.411   2.796   2.582 -1.8056 -0.6213 -0.4260
36111SOL    HW215449  12.460   2.714   2.699  0.1821 -0.5056 -1.1477
36112SOL     OW15450   0.919   4.133   5.239  0.2312  0.4286 -0.1345
36112SOL    HW115451   0.910   4.226   5.215  1.7187  0.8831  0.8605
36112SOL    HW215452   0.970   4.095   5.167  0.4098  0.6054 -0.1028
36113SOL     OW15453   5.284   0.935   1.169 -0.1172 -0.1518 -0.1031
36113SOL    HW115454   5.373   0.912   1.143 -0.2425  0.1263 -0.7832
36113SOL    HW215455   5.294   0.978   1.254  0.0483 -3.5955  1.8214
36114SOL     OW15456   7.987  12.578   6.370 -0.2509 -0.2148 -0.0227
36114SOL    HW115457   8.018  12.582   6.460 -2.0339 -0.1761  0.6156
36114SOL    HW215458   8.065  12.556   6.319  0.8399  0.0230  1.4792
36115SOL     OW15459   4.556   5.746   0.654  0.9531 -0.0030  0.5956
36115SOL    HW115460   4.558   5.751   0.750 -0.2198  1.3661  0.5766
36115SOL    HW215461   4.621   5.811   0.625  0.0116  0.9028  0.4691
36116SOL     OW15462   3.364   2.020   9.807 -0.2364  0.2551 -0.2460
36116SOL    HW115463   3.320   2.052   9.886 -0.1356 -2.0108  0.8152
36116SOL    HW215464   3.440   2.078   9.797 -0.4456  0.8198  1.1253
36117SOL     OW15465   0.076  10.696   4.646 -0.0888 -0.0230  0.5884
36117SOL    HW115466  -0.003  10.706   4.593 -0.2219  1.8385  1.0748
36117SOL    HW215467   0.045  10.661   4.729 -0.3002  0.1144  0.5658
36118SOL     OW15468   1.254   8.168   3.470 -0.2602 -0.0699 -0.2418
36118SOL    HW115469   1.302   8.088   3.453  0.3867  0.5040 -1.1823
36118SOL    HW215470   1.316   8.238   3.449 -0.9325  0.6797  0.2145
36119SOL     OW15471   9.023   4.439   0.504 -0.0192  0.6554 -0.3741
36119SOL    HW115472   8.978   4.368   0.550  0.2055 -0.7556 -2.2585
36119SOL    HW215473   8.954   4.484   0.456 -0.0115  1.1293  0.0484
36120SOL     OW15474   4.747   3.469   1.887  0.2173 -0.1834 -0.1878
36120SOL    HW115475   4.663   3.425   1.897 -0.5621  1.2746 -0.0355
36120SOL    HW215476   4.811   3.398   1.882 -1.0148 -1.3237 -0.3489
36121SOL     OW15477   9.138   9.554   5.403  0.0871 -0.3594  0.3333
36121SOL    HW115478   9.158   9.475   5.353 -0.8827 -0.0053 -0.6596
36121SOL    HW215479   9.222   9.579   5.442  0.1962 -2.4522  1.5559
36122SOL     OW15480   9.233   8.747   5.081  0.0124  0.3568  0.0874
36122SOL    HW115481   9.213   8.838   5.102 -3.0340  0.0508 -1.0487
36122SOL    HW215482   9.248   8.746   4.987 -0.7145 -0.4176 -0.0312
36123SOL     OW15483   0.697   0.128   4.705 -0.5095 -0.1922 -0.8960
36123SOL    HW115484   0.741   0.165   4.629  0.1985  0.6989 -0.0798
36123SOL    HW215485   0.682   0.202   4.763  1.1274 -1.1268  0.8800
36124SOL     OW15486   8.379   4.509   0.812 -0.7360  0.3233  0.2994
36124SOL    HW115487   8.410   4.598   0.826  0.9899 -0.0270 -0.9714
36124SOL    HW215488   8.347   4.508   0.722 -2.0108 -0.0272  0.7276
36125SOL     OW15489   6.361   5.563   0.247  0.5440 -0.3139 -0.0949
36125SOL    HW115490   6.267   5.565   0.229  0.6234  3.2930 -0.9502
36125SOL    HW215491   6.367   5.530   0.336 -1.7975  1.2289  0.7545
36126SOL     OW15492   9.142   3.496   5.549 -0.3349 -0.3649 -0.2195
36126SOL    HW115493   9.187   3.579   5.563 -0.4052 -0.4382  0.4706
36126SOL    HW215494   9.081   3.488   5.623 -2.2932  0.2510 -1.6849
36127SOL     OW15495  10.655   9.131   6.615  0.1458  0.5499  0.8418
36127SOL    HW115496  10.622   9.051   6.575 -0.6949  1.4077 -0.2474
36127SOL    HW215497  10.727   9.158   6.558  1.2604 -0.0752  1.9087
36128SOL     OW15498  10.337   5.745   1.862  0.2294  0.0907 -0.2962
36128SOL    HW115499  10.410   5.686   1.879 -1.3127 -2.1852 -1.1729
36128SOL    HW215500  10.270   5.719   1.925 -1.2896 -0.6431 -2.1309
36129SOL     OW15501   4.471   2.173  12.258  0.9678  0.5252 -0.6942
36129SOL    HW115502   4.483   2.156  12.165  0.9657 -1.2617 -0.3973
36129SOL    HW215503   4.552   2.144  12.299  0.7126  0.6750 -0.0688
36130SOL     OW15504   4.655   4.222  11.840 -0.2245 -0.0025 -0.1856
36130SOL    HW115505   4.566   4.250  11.817 -0.5281 -0.3113  0.5920
36130SOL    HW215506   4.654   4.127  11.828 -1.3455 -0.6803  3.9940
36131SOL     OW15507   5.199   0.939   3.840  0.0118 -0.0755 -0.3712
36131SOL    HW115508   5.170   0.894   3.761 -1.5775 -0.3205  0.3292
36131SOL    HW215509   5.191   0.874   3.909  0.4763  0.4200  0.1630
36132SOL     OW15510   5.502   2.137   9.922 -0.8052 -0.0969  0.3407
36132SOL    HW115511   5.467   2.226   9.927 -2.3456 -0.7374  2.3756
36132SOL    HW215512   5.585   2.146   9.876 -1.4717  2.2104 -0.5193
36133SOL     OW15513   8.324   8.316   9.638 -0.1422 -0.1010  0.2113
36133SOL    HW115514   8.257   8.302   9.705  0.1409  0.0202  0.5206
36133SOL    HW215515   8.398   8.354   9.685  0.8213 -1.8799  0.2060
36134SOL     OW15516  12.701   5.755  10.368 -0.0367 -0.2632 -0.6431
36134SOL    HW115517  12.640   5.827  10.354  0.6417  0.7131  1.0716
36134SOL    HW215518  12.647   5.686  10.406 -0.0735  0.7170  1.1950
36135SOL     OW15519   6.416   0.515  10.565  0.0546  0.0805  0.2216
36135SOL    HW115520   6.374   0.597  10.591  3.8907  2.4911 -0.4997
36135SOL    HW215521   6.487   0.503  10.628 -0.0483 -2.4747 -0.0357
36136SOL     OW15522  11.538   6.987   1.778 -0.1022 -0.0215 -0.0621
36136SOL    HW115523  11.631   6.973   1.765  0.2794  0.4655  1.9176
36136SOL    HW215524  11.496   6.924   1.720  1.3957  0.9628 -2.3732
36137SOL     OW15525  11.119   8.472  12.411  0.7933 -0.0665 -0.3213
36137SOL    HW115526  11.080   8.534  12.349  1.0543 -0.3690 -0.7972
36137SOL    HW215527  11.159   8.405  12.356  0.8149 -0.4783  0.1814
36138SOL     OW15528   8.276   7.307   8.039  0.2189 -0.1716 -0.1603
36138SOL    HW115529   8.226   7.244   8.092 -0.8787  0.5090 -0.3415
36138SOL    HW215530   8.231   7.390   8.052  1.3178  0.4692 -0.3652
36139SOL     OW15531   7.178   6.805   2.038  0.6997  0.1550 -0.0968
36139SOL    HW115532   7.119   6.874   2.008  1.8080  0.8557 -0.7022
36139SOL    HW215533   7.154   6.792   2.130  0.6872  1.5720  0.1101
36140SOL     OW15534   2.779   2.753  10.460  0.4377 -0.3833 -0.0023
36140SOL    HW115535   2.849   2.695  10.492  0.4017 -0.5534 -0.2277
36140SOL    HW215536   2.716   2.694  10.419  0.5924 -0.1512 -0.5892
36141SOL     OW15537   5.236   5.305   8.860  0.2894  0.1800  0.6124
36141SOL    HW115538   5.162   5.288   8.802 -0.1096  0.8715  0.9001
36141SOL    HW215539   5.298   5.234   8.843 -1.0361 -1.2134  1.3442
36142SOL     OW15540   8.723   2.407  11.547 -0.4594  0.7204 -0.1143
36142SOL    HW115541   8.750   2.496  11.570  0.0154  0.1958  1.4832
36142SOL    HW215542   8.635   2.399  11.583 -0.1686  0.2732  0.5123
36143SOL     OW15543   7.754   5.487  11.704  0.2711  0.3031 -0.5147
36143SOL    HW115544   7.669   5.463  11.741  1.1772  0.0264  1.5215
36143SOL    HW215545   7.804   5.405  11.702  0.6424  0.5404 -1.2705
36144SOL     OW15546   1.295   7.565  12.036 -0.2149  0.4575  0.4676
36144SOL    HW115547   1.356   7.620  11.988 -0.9344  1.0403  0.1990
36144SOL    HW215548   1.342   7.483  12.050  0.5781  0.8535  0.1658
36145SOL     OW15549   0.504   5.659   0.176 -0.0675  0.0707 -0.1895
36145SOL    HW115550   0.443   5.626   0.109 -0.6141 -1.1709  0.8743
36145SOL    HW215551   0.512   5.752   0.157 -0.8944 -0.0881 -1.4600
36146SOL     OW15552   3.973   0.911   7.170 -0.3167 -0.1528 -0.4592
36146SOL    HW115553   3.974   0.995   7.125  2.1625 -0.4621 -1.0894
36146SOL    HW215554   4.042   0.860   7.129 -1.5220 -2.4237  0.1241
36147SOL     OW15555  10.400   5.123   7.420  0.0277  0.0970 -0.1959
36147SOL    HW115556  10.378   5.032   7.403  0.6081 -0.5336  1.9992
36147SOL    HW215557  10.491   5.132   7.391 -0.4476  0.4140 -1.6907
36148SOL     OW15558   8.846   5.016   8.247  0.1155  0.1920  0.3968
36148SOL    HW115559   8.935   4.998   8.217  0.3783  0.5999  0.9073
36148SOL    HW215560   8.796   5.030   8.167  1.1081  2.7198  0.1016
36149SOL     OW15561   0.687   9.751   3.934 -0.2422 -0.3399  0.1240
36149SOL    HW115562   0.760   9.768   3.876 -0.0638  0.3465  0.5347
36149SOL    HW215563   0.717   9.682   3.993  0.1991  0.1719  0.5045
36150SOL     OW15564   0.954   8.817   6.006 -1.0724 -0.1429 -0.4751
36150SOL    HW115565   1.039   8.783   6.032  0.1861  3.5558  0.8926
36150SOL    HW215566   0.942   8.787   5.916  2.5478  0.6204 -1.3472
36151SOL     OW15567   5.609   3.811   8.810 -0.0366  0.2932  0.7777
36151SOL    HW115568   5.622   3.824   8.716  0.7387 -0.4304  0.7677
36151SOL    HW215569   5.632   3.719   8.825  2.4852  1.0254  2.0921
36152SOL     OW15570   2.185  11.103   9.583 -0.0308  0.0857 -0.4244
36152SOL    HW115571   2.181  11.092   9.678 -3.6278 -3.4617 -0.7215
36152SOL    HW215572   2.128  11.177   9.565 -0.0453  0.2073  0.1125
36153SOL     OW15573   0.065   2.365   2.580 -0.4520  0.1468 -0.0159
36153SOL    HW115574   0.146   2.415   2.575 -0.7805  0.6491 -0.4480
36153SOL    HW215575   0.076   2.309   2.657 -0.2986  1.3030  0.8342
36154SOL     OW15576   2.794   1.461   0.674  0.0736  0.1166  0.4204
36154SOL    HW115577   2.848   1.438   0.598  1.6532  1.0424  1.2100
36154SOL    HW215578   2.715   1.501   0.637 -0.4082 -1.8129 -0.7791
36155SOL     OW15579   2.849   2.906  10.955  0.2675 -0.4044  0.2096
36155SOL    HW115580   2.774   2.887  10.898 -0.2706 -1.5730  1.2613
36155SOL    HW215581   2.853   2.831  11.015  1.7671  0.0508  0.7143
36156SOL     OW15582   8.721   7.290  12.937 -0.1010  0.4622 -0.2363
36156SOL    HW115583   8.737   7.380  12.966  2.0433  0.0311  0.0593
36156SOL    HW215584   8.800   7.242  12.963 -0.8888 -1.3543 -1.0443
36157SOL     OW15585   9.523  12.407   6.184  0.1787  0.3548  0.4446
36157SOL    HW115586   9.492  12.324   6.149  1.8045  0.3024 -1.0156
36157SOL    HW215587   9.617  12.406   6.168 -0.0211  3.4941 -1.9277
36158SOL     OW15588   4.734   8.281   7.743  0.3741 -0.6059 -0.0921
36158SOL    HW115589   4.750   8.360   7.794 -0.1821 -0.6270  0.1209
36158SOL    HW215590   4.671   8.231   7.796 -0.3459 -0.5478 -0.8708
36159SOL     OW15591   3.480   5.855   5.795  0.1302  0.3803 -0.4676
36159SOL    HW115592   3.437   5.857   5.880 -1.5062 -0.2892 -1.2315
36159SOL    HW215593   3.450   5.774   5.755  0.4726  0.9122 -1.8728
36160SOL     OW15594   2.087  10.634   3.947  0.0095 -0.3561  0.0824
36160SOL    HW115595   2.120  10.724   3.946 -1.1431  0.1123 -2.1241
36160SOL    HW215596   2.010  10.636   3.890 -0.8798 -2.4646  1.0980
36161SOL     OW15597   5.018   6.854  12.075 -0.0203 -0.4929 -0.2756
36161SOL    HW115598   4.943   6.906  12.045 -0.2051 -1.5404 -1.7508
36161SOL    HW215599   5.083   6.864  12.005  0.9259 -0.2465  0.6099
36162SOL     OW15600   8.477  12.818   3.877  0.1770 -0.8323  0.6365
36162SOL    HW115601   8.501  12.731   3.847  1.7456  0.1773 -1.2924
36162SOL    HW215602   8.517  12.877   3.814 -0.9385  1.3061  1.8029
36163SOL     OW15603  10.574   6.348  10.610  0.1738  0.3057 -0.1452
36163SOL    HW115604  10.499   6.407  10.605  1.9856  3.0354  1.6088
36163SOL    HW215605  10.536   6.261  10.614 -3.0089  1.5984  1.9835
36164SOL     OW15606   9.580   1.737  11.983  0.4976 -0.1811  0.1627
36164SOL    HW115607   9.564   1.738  11.889 -0.0401 -0.3576  0.2488
36164SOL    HW215608   9.664   1.694  11.993  0.7384  0.1818 -0.2627
36165SOL     OW15609   3.453   1.982  10.692 -0.3822 -0.3161 -0.0482
36165SOL    HW115610   3.485   1.945  10.775 -0.6871 -1.6018 -0.4699
36165SOL    HW215611   3.529   2.025  10.654 -0.7483  2.2728  1.8942
36166SOL     OW15612   1.604   6.015   0.949 -0.5142  0.0058 -0.1013
36166SOL    HW115613   1.669   5.969   1.002  0.8622  1.7064 -0.2138
36166SOL    HW215614   1.536   6.040   1.011  0.4828  0.9047  0.6742
36167SOL     OW15615   0.535   3.411   5.278 -0.0743  0.2772  0.4190
36167SOL    HW115616   0.548   3.327   5.322  0.1932  0.0745 -0.0406
36167SOL    HW215617   0.441   3.428   5.286 -0.4319 -0.8622 -0.8714
36168SOL     OW15618   8.580   5.692   5.414  0.5788 -0.3885  0.4777
36168SOL    HW115619   8.534   5.752   5.473  2.2582  1.5303 -0.0402
36168SOL    HW215620   8.655   5.743   5.383  0.8914 -2.0610 -1.7040
36169SOL     OW15621  10.514   0.807  11.547  0.2768 -1.0102 -0.0709
36169SOL    HW115622  10.452   0.874  11.576  1.0565  0.0803 -0.8257
36169SOL    HW215623  10.502   0.735  11.609 -0.8129 -0.3051  0.5756
36170SOL     OW15624   7.685   4.273   0.827 -0.1971  0.2438 -0.8010
36170SOL    HW115625   7.733   4.315   0.756 -0.2554 -1.6923 -2.0592
36170SOL    HW215626   7.609   4.234   0.785  0.0875 -1.4895  0.1803
36171SOL     OW15627   0.620   9.053   4.134  0.0484  0.2125  0.0536
36171SOL    HW115628   0.661   9.127   4.089  0.6324  0.6857  1.3113
36171SOL    HW215629   0.657   8.976   4.091  0.8377  0.6466 -0.0809
36172SOL     OW15630   1.277   0.400  11.522  0.3042 -0.1446 -0.6021
36172SOL    HW115631   1.251   0.345  11.596  0.4304 -1.0799 -1.2310
36172SOL    HW215632   1.200   0.455  11.505 -0.3146 -1.0272 -0.7643
36173SOL     OW15633   1.966   2.517   0.974 -0.9310  0.1465  0.0829
36173SOL    HW115634   1.972   2.613   0.979 -0.1914  0.0827  0.7004
36173SOL    HW215635   2.015   2.487   1.050 -3.2582 -0.6956  1.3433
36174SOL     OW15636   8.624   3.827   6.142  1.0060  0.0017  0.1495
36174SOL    HW115637   8.675   3.907   6.153  2.0201 -0.2155 -2.3038
36174SOL    HW215638   8.543   3.843   6.191  1.5670  2.1643  0.4658
36175SOL     OW15639   0.701   4.250  10.300  0.0516  0.0386  0.2196
36175SOL    HW115640   0.736   4.278  10.384  0.9205 -0.4380  0.0297
36175SOL    HW215641   0.775   4.258  10.239 -0.2632 -0.6444 -0.2703
36176SOL     OW15642   2.700   2.292   3.857  0.6145 -0.4074  0.4375
36176SOL    HW115643   2.704   2.387   3.845  0.8779 -0.3046  1.2837
36176SOL    HW215644   2.671   2.259   3.772 -0.3261  0.4915  0.3862
36177SOL     OW15645  11.237   7.203   5.570 -1.0114  0.5644  0.3123
36177SOL    HW115646  11.232   7.294   5.542 -3.0052  0.6023  0.6344
36177SOL    HW215647  11.226   7.153   5.489  0.4355  0.5740  0.0848
36178SOL     OW15648  12.475   7.891   4.542 -0.4784 -0.6235 -0.1419
36178SOL    HW115649  12.480   7.978   4.581  0.7664 -0.5417 -0.4277
36178SOL    HW215650  12.446   7.906   4.452 -1.6676 -0.6501  0.2271
36179SOL     OW15651  11.650   0.514   5.309 -0.0079 -0.1407 -0.0967
36179SOL    HW115652  11.587   0.580   5.280  1.2277  0.3715 -1.7425
36179SOL    HW215653  11.694   0.554   5.384 -0.3818  0.2203 -0.0667
36180SOL     OW15654   6.955  11.829   3.844  0.6273 -0.0687  0.6666
36180SOL    HW115655   6.971  11.742   3.880 -1.5100 -0.2476  1.3235
36180SOL    HW215656   6.893  11.814   3.773  2.3510  0.6563 -1.0996
36181SOL     OW15657   9.700  10.851   6.123 -0.1892 -0.3665  0.9468
36181SOL    HW115658   9.786  10.880   6.093  0.0127 -1.8232  0.0259
36181SOL    HW215659   9.710  10.757   6.139 -1.6445 -0.6162  0.5865
36182SOL     OW15660  10.366   0.672  10.146  0.3056 -0.6767 -0.4857
36182SOL    HW115661  10.277   0.638  10.133 -0.1907  1.0934 -2.1071
36182SOL    HW215662  10.419   0.626  10.082  0.6682 -1.9756  0.7049
36183SOL     OW15663  12.555   8.988   9.964  0.0276 -0.5193 -0.0754
36183SOL    HW115664  12.631   9.047   9.959 -0.9276  1.0074  1.8372
36183SOL    HW215665  12.557   8.954  10.053 -1.7176 -0.1223  0.1567
36184SOL     OW15666  12.877   4.108   8.879 -0.1962  0.1967 -0.2421
36184SOL    HW115667  12.857   4.094   8.971  1.4901  1.2238  0.3328
36184SOL    HW215668  12.860   4.024   8.836  0.0051 -0.6021  1.1995
36185SOL     OW15669   1.098  10.141   2.506 -0.4054  0.0156  0.0708
36185SOL    HW115670   1.074  10.157   2.415  1.6535 -0.5541 -0.6283
36185SOL    HW215671   1.120  10.048   2.509  1.2510  0.3928  0.7041
36186SOL     OW15672   0.541  12.505   6.327  0.8863  0.3633  0.0991
36186SOL    HW115673   0.445  12.508   6.327  0.8525  0.6855 -1.6393
36186SOL    HW215674   0.567  12.565   6.397 -0.1876  0.9366  0.0297
36187SOL     OW15675   3.580   9.964  10.784 -0.8226  0.8125  0.4360
36187SOL    HW115676   3.652  10.026  10.792 -0.3051  0.1789  0.7521
36187SOL    HW215677   3.503  10.014  10.810 -0.3578  1.2149  1.0815
36188SOL     OW15678   9.423   2.732  10.243 -0.3114  0.0060 -0.1737
36188SOL    HW115679   9.485   2.714  10.172  0.4361 -0.2769  0.5451
36188SOL    HW215680   9.439   2.664  10.307  0.2745  1.2756  1.0865
36189SOL     OW15681   2.994  11.042   1.795  0.0456  0.8662  0.0864
36189SOL    HW115682   3.053  10.975   1.761 -0.4532 -0.1925  1.2388
36189SOL    HW215683   3.025  11.058   1.884 -0.0972  1.8798 -0.0384
36190SOL     OW15684   9.520   0.724   0.974  0.2240 -0.4244  0.3385
36190SOL    HW115685   9.486   0.780   0.905  0.4081 -2.2077 -1.2734
36190SOL    HW215686   9.595   0.679   0.934  2.5526  0.9929  2.7658
36191SOL     OW15687   3.844   9.238   5.735  0.0308  0.1125  0.0633
36191SOL    HW115688   3.884   9.151   5.739  1.8647  0.5700 -3.6557
36191SOL    HW215689   3.770   9.227   5.675  0.0919  1.0482 -0.1914
36192SOL     OW15690   5.761  11.697   7.453  0.3743 -0.1876 -0.2034
36192SOL    HW115691   5.714  11.745   7.385 -1.9433 -1.8871  0.0924
36192SOL    HW215692   5.846  11.678   7.413 -0.5181 -0.2187 -2.2462
36193SOL     OW15693   6.627   7.541   6.809  0.4708  0.2476  0.4379
36193SOL    HW115694   6.578   7.577   6.735  0.4245 -0.0365  0.3327
36193SOL    HW215695   6.717   7.535   6.777  0.3555 -0.3731  0.2296
36194SOL     OW15696   2.045   9.730   9.072 -0.2842 -0.4717  0.3838
36194SOL    HW115697   1.992   9.700   8.998  1.6605 -2.7529 -0.2013
36194SOL    HW215698   2.052   9.824   9.060 -0.8837 -0.6448 -1.7543
36195SOL     OW15699   8.804   2.154   8.686 -0.1108 -0.1369  0.3231
36195SOL    HW115700   8.868   2.174   8.755  0.2958  0.1521 -0.1341
36195SOL    HW215701   8.722   2.142   8.733 -0.1821  1.6180  0.7365
36196SOL     OW15702  10.431   9.121  10.913 -0.1217 -0.6310 -0.4673
36196SOL    HW115703  10.356   9.160  10.957  1.0067 -0.6212  1.5738
36196SOL    HW215704  10.501   9.185  10.924  0.6861 -1.4710 -0.6171
36197SOL     OW15705   1.007   8.561   3.513  0.5982  0.4238 -0.4154
36197SOL    HW115706   0.950   8.588   3.585  2.9373  0.2753  1.6411
36197SOL    HW215707   0.977   8.473   3.491  0.3600  0.1202  1.0112
36198SOL     OW15708   9.031  11.053   9.151 -0.1614 -0.2201  0.2337
36198SOL    HW115709   8.936  11.063   9.141 -0.3255 -0.6772  1.1902
36198SOL    HW215710   9.054  10.982   9.090 -0.7365 -1.3368  1.2833
36199SOL     OW15711   8.046  12.949   0.703 -0.1041 -0.0372  0.5855
36199SOL    HW115712   7.957  12.915   0.717  0.0140 -1.5640 -1.8516
36199SOL    HW215713   8.035  13.044   0.696 -1.3449 -0.0916  1.4509
36200SOL     OW15714   9.997   6.245   9.368 -0.2178 -0.1517  0.0676
36200SOL    HW115715  10.090   6.269   9.363  0.2540 -1.9715 -0.5460
36200SOL    HW215716   9.989   6.198   9.451 -0.5596 -0.1898  0.0129
36201SOL     OW15717   3.451  10.615   9.090 -0.0994 -0.1995  0.2593
36201SOL    HW115718   3.462  10.573   9.176 -2.0053  1.2478  1.3052
36201SOL    HW215719   3.407  10.698   9.110  0.0414  0.4991 -2.0785
36202SOL     OW15720   6.585   7.739  12.029 -0.6655 -0.7815 -0.3167
36202SOL    HW115721   6.676   7.748  12.057 -0.4300 -2.6540 -0.3319
36202SOL    HW215722   6.533   7.774  12.101  0.0483 -0.9954  0.3082
36203SOL     OW15723   2.517   0.200  10.526  0.0315 -0.3758  0.4465
36203SOL    HW115724   2.509   0.130  10.591 -1.2693 -0.2400  0.4641
36203SOL    HW215725   2.523   0.154  10.442  0.2534 -0.5273  0.5448
36204SOL     OW15726   8.276   5.443   9.002 -0.1709  0.0703  0.0604
36204SOL    HW115727   8.202   5.383   9.013  0.2554 -0.4375  0.2078
36204SOL    HW215728   8.282   5.456   8.907  0.1425 -0.6426 -0.0221
36205SOL     OW15729   1.518   3.203   1.143 -0.0074  0.0997  0.7966
36205SOL    HW115730   1.581   3.254   1.092  1.0717 -1.9252 -0.0437
36205SOL    HW215731   1.554   3.203   1.232  0.4039  0.1524  0.6328
36206SOL     OW15732  10.313  12.855  11.220 -0.0453  0.0390  0.3926
36206SOL    HW115733  10.246  12.920  11.242 -0.3113 -0.5976  1.5561
36206SOL    HW215734  10.272  12.771  11.242  0.4484 -0.5037 -0.6876
36207SOL     OW15735  12.606   1.420  10.081 -0.1644 -0.0071 -0.2469
36207SOL    HW115736  12.542   1.355  10.111 -2.3839  0.8358 -2.7478
36207SOL    HW215737  12.685   1.368  10.061 -0.9986 -1.5357  0.2541
36208SOL     OW15738   9.208   9.579   9.172 -0.4108  0.0775  0.3474
36208SOL    HW115739   9.139   9.630   9.215 -1.4671 -0.7831 -0.2856
36208SOL    HW215740   9.161   9.512   9.123  0.8931 -0.5644 -0.0553
36209SOL     OW15741   5.082   3.537   6.701 -0.3278 -0.0696 -0.1899
36209SOL    HW115742   5.030   3.583   6.634 -0.8092 -0.1875  0.0961
36209SOL    HW215743   5.017   3.489   6.752  0.1520 -0.8702 -0.3267
36210SOL     OW15744   1.225   8.767   5.141 -0.1856  0.6359  0.3108
36210SOL    HW115745   1.134   8.755   5.168 -0.2559  1.4551  0.4617
36210SOL    HW215746   1.273   8.780   5.222  0.2330 -0.7262  0.3052
36211SOL     OW15747   2.553   1.915  12.835 -0.3455 -0.2642 -0.0274
36211SOL    HW115748   2.526   1.882  12.749  2.5474 -0.2146 -1.0521
36211SOL    HW215749   2.557   2.010  12.824 -0.8494 -0.1777  0.4774
36212SOL     OW15750  11.180   9.562   8.816  0.5808 -0.0829  0.2410
36212SOL    HW115751  11.118   9.611   8.761  1.8309  0.0912 -1.0723
36212SOL    HW215752  11.171   9.471   8.787 -1.0454 -0.5553  2.0162
36213SOL     OW15753   6.671   4.178   9.501 -0.0612 -0.3200 -0.0863
36213SOL    HW115754   6.579   4.150   9.498 -0.4715  1.0150 -2.4042
36213SOL    HW215755   6.714   4.127   9.432  0.8756 -0.6032  0.6832
36214SOL     OW15756   2.925   6.480   4.976  0.6182  1.1130  0.5580
36214SOL    HW115757   2.997   6.456   4.918  0.1487  0.8302  0.0754
36214SOL    HW215758   2.954   6.561   5.018  0.4459  2.0565 -1.0638
36215SOL     OW15759   7.229   8.673  12.187 -0.7257 -0.0396  0.1084
36215SOL    HW115760   7.282   8.609  12.138  2.0000  0.9958  1.4872
36215SOL    HW215761   7.272   8.757  12.171 -2.3168  0.9786  0.9279
36216SOL     OW15762   0.913   6.634   6.098  0.0328  0.1819 -0.0756
36216SOL    HW115763   0.949   6.617   6.185 -0.6957 -1.4200 -0.0394
36216SOL    HW215764   0.831   6.679   6.114 -0.4133 -0.6706  0.1359
36217SOL     OW15765   4.525   2.140   5.657 -0.8592 -0.3659  0.4179
36217SOL    HW115766   4.485   2.085   5.590 -0.4680  0.0636 -0.1677
36217SOL    HW215767   4.464   2.213   5.668 -0.4338  0.0856 -0.1945
36218SOL     OW15768  11.436  12.359   4.732 -0.6000 -0.7712 -0.6008
36218SOL    HW115769  11.399  12.286   4.681 -1.2446  0.3553 -1.8241
36218SOL    HW215770  11.516  12.383   4.685 -1.1158  0.1815 -1.0096
36219SOL     OW15771  10.113   7.414   7.722  0.2997 -0.3739  0.1771
36219SOL    HW115772  10.208   7.407   7.735  0.3519  0.0832  0.0438
36219SOL    HW215773  10.102   7.490   7.665 -0.1174 -0.7015 -0.1868
36220SOL     OW15774   9.883   5.049  11.893 -0.1864  0.4644  0.4626
36220SOL    HW115775   9.906   5.136  11.860  1.7326  0.8416  2.5590
36220SOL    HW215776   9.956   4.993  11.866 -2.3033 -1.0920 -2.5873
36221SOL     OW15777  11.274   2.644  11.330  0.2319  0.2827  0.7562
36221SOL    HW115778  11.215   2.645  11.405  0.8580  1.1473  1.2428
36221SOL    HW215779  11.286   2.551  11.311 -2.7726  0.0249 -0.5546
36222SOL     OW15780  12.508   2.051   9.061 -0.1999  0.2708 -0.2577
36222SOL    HW115781  12.534   2.119   8.999  0.7894  0.8604  0.7514
36222SOL    HW215782  12.459   2.098   9.129  0.4514 -0.0085  0.4267
36223SOL     OW15783   7.741   7.656   5.020 -0.3579 -0.7957 -0.2302
36223SOL    HW115784   7.803   7.591   5.053 -0.0074 -0.5832 -0.4569
36223SOL    HW215785   7.792   7.708   4.958 -0.8231 -0.7503 -0.5785
36224SOL     OW15786  12.931   5.677   5.004 -0.4350  0.6251  0.3605
36224SOL    HW115787  12.949   5.610   5.070  2.2375  1.2025  0.3103
36224SOL    HW215788  12.966   5.640   4.923 -0.7722  1.2615 -0.0776
36225SOL     OW15789  12.415   7.188   8.704  0.0497 -0.1228  0.7297
36225SOL    HW115790  12.319   7.184   8.702  0.0933 -0.6963 -1.1285
36225SOL    HW215791  12.437   7.258   8.643  0.8417 -0.1541  0.9702
36226SOL     OW15792  10.963   8.360  10.650 -0.1915  0.0278 -0.3570
36226SOL    HW115793  11.014   8.280  10.642 -1.0688 -0.6235  0.3962
36226SOL    HW215794  10.953   8.391  10.560  2.1102  0.5776 -0.4706
36227SOL     OW15795   7.695   5.262   8.206 -0.6621 -0.4716  0.1146
36227SOL    HW115796   7.630   5.243   8.274 -2.5194  1.3446 -1.0170
36227SOL    HW215797   7.666   5.210   8.131  0.6698 -1.5310  0.3050
36228SOL     OW15798   7.949   4.466  12.470  0.0096 -0.1973 -0.3212
36228SOL    HW115799   8.040   4.449  12.446 -0.3474 -0.1379 -1.8796
36228SOL    HW215800   7.942   4.440  12.561  1.6120 -0.0910 -0.1417
36229SOL     OW15801  12.336   3.065  12.818  0.1949 -0.2969 -0.3236
36229SOL    HW115802  12.251   3.097  12.787  0.1023 -1.3115 -1.1684
36229SOL    HW215803  12.346   3.105  12.905 -1.0871 -0.0506 -0.2649
36230SOL     OW15804   1.469   2.405   3.579  0.1585  0.0181  0.0978
36230SOL    HW115805   1.508   2.488   3.608  1.5594 -0.4530 -0.3517
36230SOL    HW215806   1.510   2.339   3.636  1.5653 -0.7180 -1.6849
36231SOL     OW15807   6.445   5.972   3.758 -0.0136 -0.3427 -0.2369
36231SOL    HW115808   6.488   6.057   3.759 -1.0144  0.2562 -2.2750
36231SOL    HW215809   6.515   5.910   3.736  0.2923  0.2940 -1.1144
36232SOL     OW15810   6.719   7.241   2.281 -0.1425  0.3256 -0.1694
36232SOL    HW115811   6.805   7.281   2.266 -0.6036  1.9143  1.0877
36232SOL    HW215812   6.660   7.288   2.221 -0.4057  0.3717  0.1211
36233SOL     OW15813  11.428   9.714   2.020  0.1039 -0.3152 -0.0170
36233SOL    HW115814  11.332   9.706   2.021  0.2518 -2.5734  1.4658
36233SOL    HW215815  11.447   9.746   1.932 -1.9606 -0.7978 -0.7099
36234SOL     OW15816   6.767  10.984   2.244  0.2283  0.2882 -0.2159
36234SOL    HW115817   6.829  11.049   2.211 -0.4853  1.2459  0.2780
36234SOL    HW215818   6.770  10.994   2.339  0.9426 -1.2099 -0.0481
36235SOL     OW15819   5.975  10.621   3.211 -0.2107  0.3421  0.0014
36235SOL    HW115820   6.033  10.654   3.279  0.8060 -2.0395  0.3932
36235SOL    HW215821   5.937  10.542   3.248 -1.7713  0.4583 -1.2184
36236SOL     OW15822   5.458   8.225  10.822  0.0528  0.4139 -0.1625
36236SOL    HW115823   5.400   8.155  10.853  1.4496 -0.6425  0.1846
36236SOL    HW215824   5.463   8.285  10.896 -0.4187  0.4057 -0.1170
36237SOL     OW15825   9.812   3.889  11.399  0.1975  0.6378  0.7522
36237SOL    HW115826   9.813   3.809  11.451  0.2279  0.0206 -0.1723
36237SOL    HW215827   9.723   3.922  11.406 -0.0556  0.0314  0.4168
36238SOL     OW15828   0.847  10.359  11.879 -0.0389 -1.1282  0.7406
36238SOL    HW115829   0.879  10.412  11.952 -2.9010  0.8732  0.7247
36238SOL    HW215830   0.861  10.268  11.906  1.9255 -0.4126  2.2993
36239SOL     OW15831   8.065   1.650   5.108  0.1795 -0.4942 -0.2565
36239SOL    HW115832   8.101   1.738   5.104  1.1484 -0.8325  0.5774
36239SOL    HW215833   8.039   1.640   5.200 -3.2272  0.1643 -0.9926
36240SOL     OW15834   6.789   9.117   4.988  0.6628  0.7089 -0.5717
36240SOL    HW115835   6.795   9.024   4.966 -0.6786  0.7769 -1.3418
36240SOL    HW215836   6.755   9.119   5.077  2.8914  0.4727  0.3601
36241SOL     OW15837  12.346   8.749   5.506 -0.1584  0.3104 -0.0339
36241SOL    HW115838  12.313   8.693   5.436  0.0340 -0.5266  0.5319
36241SOL    HW215839  12.421   8.795   5.467  0.1123 -0.3496 -0.3003
36242SOL     OW15840   5.532   8.527   8.484 -0.4653 -0.6121 -0.2198
36242SOL    HW115841   5.539   8.445   8.435 -0.0199 -0.1671 -0.9259
36242SOL    HW215842   5.620   8.565   8.480 -0.6522 -0.1313  0.1515
36243SOL     OW15843  12.421   8.481   6.462 -0.0988  0.2561  0.0370
36243SOL    HW115844  12.418   8.551   6.527 -0.4536 -0.2963  0.6289
36243SOL    HW215845  12.409   8.401   6.513 -1.5571 -0.1238 -0.8498
36244SOL     OW15846   0.730   1.384   6.983  0.6537  0.1092  0.4694
36244SOL    HW115847   0.703   1.355   7.070  0.0116 -0.7991 -0.0198
36244SOL    HW215848   0.824   1.399   6.991  0.7614 -0.8414  1.0864
36245SOL     OW15849   0.501  10.099   4.274 -0.2596  0.2653 -0.7145
36245SOL    HW115850   0.542  10.167   4.220  0.7115  1.1774  1.0767
36245SOL    HW215851   0.467  10.036   4.211  0.6778  1.3483 -2.3889
36246SOL     OW15852   3.194  10.406   0.666  0.2879 -0.2087  0.1045
36246SOL    HW115853   3.101  10.426   0.669  0.3657  0.2721 -0.4844
36246SOL    HW215854   3.209  10.349   0.742 -0.3757  0.1563  0.5172
36247SOL     OW15855  11.940   7.406   6.087 -0.0043 -0.4675 -0.1769
36247SOL    HW115856  11.983   7.411   6.172  0.1324 -0.4280 -0.2475
36247SOL    HW215857  11.853   7.372   6.106 -0.2498  0.2915  0.0667
36248SOL     OW15858   5.159   6.159   0.649  0.3493  0.3450  0.0859
36248SOL    HW115859   5.244   6.194   0.626  0.6695  0.1818  0.9717
36248SOL    HW215860   5.152   6.171   0.744  0.2302 -1.4076  0.3504
36249SOL     OW15861   9.381   9.951  10.962  0.4534  0.1025 -0.5839
36249SOL    HW115862   9.472   9.954  10.991  0.2889  0.7313 -0.1310
36249SOL    HW215863   9.366  10.035  10.918 -0.2283  0.4581  0.3153
36250SOL     OW15864   3.426   3.548   4.718  0.6257  0.5628 -0.0621
36250SOL    HW115865   3.450   3.461   4.685  0.9537  0.4553  0.4594
36250SOL    HW215866   3.343   3.568   4.674  0.4139 -0.1255  0.0222
36251SOL     OW15867   7.727   7.034   0.684  0.0331  0.1583  0.0914
36251SOL    HW115868   7.755   7.114   0.639 -1.2655 -0.6627 -2.3956
36251SOL    HW215869   7.634   7.049   0.702 -0.5163 -1.1379 -1.4125
36252SOL     OW15870   3.659   0.266   4.828  0.6618 -0.5441  0.2607
36252SOL    HW115871   3.568   0.236   4.833  0.2971 -0.2751 -2.8488
36252SOL    HW215872   3.708   0.189   4.800  1.1901 -0.3601  0.6712
36253SOL     OW15873   6.381   7.528   4.550  0.3233 -0.0565  0.1142
36253SOL    HW115874   6.363   7.434   4.556  1.1656 -0.1924  0.7100
36253SOL    HW215875   6.415   7.541   4.462  1.3561 -0.5343  0.4261
36254SOL     OW15876  11.861   3.430  12.072 -0.3455  0.2992 -0.0400
36254SOL    HW115877  11.765   3.429  12.063 -0.4201  0.1643  0.7401
36254SOL    HW215878  11.882   3.522  12.088 -0.2110  0.5441 -1.4691
36255SOL     OW15879  12.946   7.157   6.383  0.0892 -0.2193 -0.0849
36255SOL    HW115880  12.865   7.111   6.405  0.5234 -0.0720  2.0000
36255SOL    HW215881  12.919   7.222   6.318 -1.3449 -0.6113  0.0817
36256SOL     OW15882   3.398   9.215  10.965  0.1797 -0.4252 -0.6031
36256SOL    HW115883   3.444   9.212  11.049  0.8824  0.2590 -0.9593
36256SOL    HW215884   3.312   9.252  10.987  0.4997  0.1197 -0.2395
36257SOL     OW15885  10.426   2.682   7.428 -0.4436  0.0302 -0.5280
36257SOL    HW115886  10.389   2.627   7.359  1.8212 -0.7947 -1.1740
36257SOL    HW215887  10.431   2.769   7.389 -1.0281  0.0058 -0.6670
36258SOL     OW15888   1.891   9.092   2.278 -0.1306  0.2620 -0.5526
36258SOL    HW115889   1.925   9.142   2.203  0.0764 -0.6003 -1.0575
36258SOL    HW215890   1.797   9.105   2.275  0.0260  1.7221  0.1466
36259SOL     OW15891   8.096   1.583   8.067 -0.2000  0.4872  0.2027
36259SOL    HW115892   8.056   1.524   8.131  1.0195 -0.7833 -0.1467
36259SOL    HW215893   8.168   1.624   8.114  1.4566 -1.3495 -0.6084
36260SOL     OW15894  12.682   3.638   2.065  0.0508  0.1411  0.3418
36260SOL    HW115895  12.608   3.698   2.058 -0.3553 -0.0607  2.2682
36260SOL    HW215896  12.684   3.613   2.158  0.3498 -2.6215 -0.3155
36261SOL     OW15897   5.427  10.593   0.416 -0.3304  0.0276 -0.0557
36261SOL    HW115898   5.425  10.617   0.509 -0.2425 -1.5276  0.3787
36261SOL    HW215899   5.512  10.551   0.405 -0.3013  0.2925 -0.8798
36262SOL     OW15900   5.359  10.744   7.064 -0.1374  0.1388 -0.6265
36262SOL    HW115901   5.332  10.836   7.062 -2.1400 -0.3451  0.8256
36262SOL    HW215902   5.284  10.697   7.026  0.3770 -0.9866 -0.2847
36263SOL     OW15903   0.282   6.776   2.012 -0.2094 -0.4108 -0.3633
36263SOL    HW115904   0.274   6.871   2.024 -0.3826 -0.5266  0.4529
36263SOL    HW215905   0.200   6.740   2.045  0.3904 -0.9502  0.5643
36264SOL     OW15906   6.285   7.515   2.925 -0.2251  0.1241  0.3809
36264SOL    HW115907   6.299   7.446   2.990  0.9443 -0.3974 -0.3827
36264SOL    HW215908   6.331   7.483   2.847 -0.9248  1.0998 -0.4518
36265SOL     OW15909   7.781   5.470   5.880 -0.0379  0.7362  0.2800
36265SOL    HW115910   7.731   5.550   5.897 -0.1682  0.5757  0.6671
36265SOL    HW215911   7.808   5.478   5.789  0.5142  1.5343  0.4972
36266SOL     OW15912  10.702   5.620   4.138  0.2000  0.7748  0.1449
36266SOL    HW115913  10.676   5.695   4.192  0.6815  0.6148  0.6144
36266SOL    HW215914  10.782   5.649   4.093 -0.8811  1.3503 -1.4753
36267SOL     OW15915   1.062   9.478  12.914  0.5383 -0.1049 -0.4553
36267SOL    HW115916   1.139   9.535  12.913  0.2887  0.3371  1.3915
36267SOL    HW215917   0.995   9.530  12.960  0.2539 -1.7765  1.1251
36268SOL     OW15918  12.891   5.464   9.611  0.4049  0.5048  0.0878
36268SOL    HW115919  12.920   5.545   9.568  0.9165  0.0065 -0.5282
36268SOL    HW215920  12.880   5.488   9.703 -0.2539  1.4825 -0.2280
36269SOL     OW15921   1.673   1.322   6.424  0.7201 -0.3526 -0.0702
36269SOL    HW115922   1.595   1.308   6.479 -0.4681  0.1949 -1.5669
36269SOL    HW215923   1.744   1.282   6.474 -0.5068 -0.8601  1.3509
36270SOL     OW15924  10.498   0.703   1.409 -0.4810 -0.3007 -0.4367
36270SOL    HW115925  10.561   0.731   1.343 -0.7067  0.4580 -0.3333
36270SOL    HW215926  10.424   0.669   1.357 -0.2954 -0.5205 -0.5613
36271SOL     OW15927   4.166   3.178   1.851 -0.4426  0.3622  0.0079
36271SOL    HW115928   4.112   3.141   1.921  0.5751 -2.5567 -0.6163
36271SOL    HW215929   4.242   3.214   1.896  0.6518 -2.3136  0.4411
36272SOL     OW15930   8.486   4.278   4.509  0.2194 -0.3565 -0.1788
36272SOL    HW115931   8.558   4.310   4.565 -0.3966  0.1853  0.3195
36272SOL    HW215932   8.493   4.331   4.429  1.3297 -1.3827 -0.8043
36273SOL     OW15933  12.132   2.014   9.018  0.0057 -0.4870  0.0290
36273SOL    HW115934  12.176   1.931   9.003  2.0530  0.1515  2.0008
36273SOL    HW215935  12.041   1.990   9.035  0.2402 -2.1611 -0.8791
36274SOL     OW15936   9.404  11.873   0.663 -0.2107  0.3604  0.5643
36274SOL    HW115937   9.496  11.882   0.639  0.7244 -2.1698  2.6338
36274SOL    HW215938   9.359  11.943   0.615  2.5210  0.7212 -1.7568
36275SOL     OW15939   6.684   2.362   6.833  0.5727  0.6734  0.1558
36275SOL    HW115940   6.770   2.336   6.866  0.5102  0.8100  0.4257
36275SOL    HW215941   6.657   2.290   6.776 -1.1941 -1.6465  3.5755
36276SOL     OW15942  11.178   9.377   4.429  0.3069 -0.4871 -0.4540
36276SOL    HW115943  11.150   9.457   4.473  1.7623 -0.7602  1.0399
36276SOL    HW215944  11.097   9.326   4.419 -0.4689  0.6962 -0.5175
36277SOL     OW15945   0.846   9.235   9.576  0.1215  0.2841  0.4288
36277SOL    HW115946   0.859   9.141   9.572 -1.6498 -0.0640  1.6215
36277SOL    HW215947   0.787   9.248   9.650  0.4137  2.3486  0.3626
36278SOL     OW15948  10.476  10.272   2.899 -0.2770  0.1716 -0.1431
36278SOL    HW115949  10.512  10.196   2.944 -0.8480 -0.0537 -0.0632
36278SOL    HW215950  10.553  10.322   2.871  0.1657 -1.2692 -1.6341
36279SOL     OW15951   2.722   1.376   0.368  0.7516 -0.4341  0.4522
36279SOL    HW115952   2.814   1.365   0.346  0.4272 -1.5702 -0.4424
36279SOL    HW215953   2.691   1.287   0.384 -0.5947 -0.2778 -1.0316
36280SOL     OW15954   1.022   0.147   2.662 -0.3252  0.5402  0.2215
36280SOL    HW115955   1.069   0.208   2.606  0.1081  1.9906  2.0756
36280SOL    HW215956   0.939   0.132   2.616  0.7272  0.1555 -1.6949
36281SOL     OW15957   1.040   1.333   1.255  0.0740  0.7053  0.0573
36281SOL    HW115958   1.127   1.342   1.294  0.0083  1.0122  0.1377
36281SOL    HW215959   1.010   1.424   1.244  0.0293  0.6220 -0.5604
36282SOL     OW15960  10.123   2.708   4.748 -0.1747 -0.1219 -0.8557
36282SOL    HW115961  10.189   2.744   4.689 -0.3576 -0.5389 -1.3146
36282SOL    HW215962  10.169   2.638   4.795 -0.6430 -1.3169 -2.1343
36283SOL     OW15963  12.236   5.816  11.841  0.8801  0.1358  0.0305
36283SOL    HW115964  12.251   5.886  11.905  1.0143  0.9397 -0.8622
36283SOL    HW215965  12.314   5.817  11.786  0.0794  0.5228 -1.1291
36284SOL     OW15966   3.860  12.179   5.047  0.4194 -0.0334  0.2701
36284SOL    HW115967   3.894  12.129   4.972 -0.1496 -1.5681  0.9945
36284SOL    HW215968   3.921  12.253   5.056  0.3030  0.3885 -1.9017
36285SOL     OW15969   8.609   3.514   5.964 -0.2045 -0.6233  0.2673
36285SOL    HW115970   8.665   3.591   5.951 -0.7206  0.1313  2.0622
36285SOL    HW215971   8.660   3.457   6.022 -0.8084 -0.4538  0.9800
36286SOL     OW15972   2.284   8.988  12.332  0.4224  0.2146  0.9721
36286SOL    HW115973   2.241   9.040  12.400 -0.6692  2.6838 -1.4049
36286SOL    HW215974   2.377   8.994  12.352  0.1225  0.8037  2.3061
36287SOL     OW15975   5.919  10.658   1.078 -0.2577 -0.2126 -0.0145
36287SOL    HW115976   5.828  10.633   1.059 -0.6793  0.5586  0.8855
36287SOL    HW215977   5.924  10.749   1.051  0.2206 -0.2144  0.0710
36288SOL     OW15978   6.347   0.583   5.083 -0.4133  0.0661 -0.7334
36288SOL    HW115979   6.286   0.513   5.109  0.5222 -0.5748 -0.2062
36288SOL    HW215980   6.310   0.662   5.121 -1.3819 -0.1674 -1.1621
36289SOL     OW15981   0.457   1.191   7.195  0.0086  0.0227 -0.2678
36289SOL    HW115982   0.489   1.134   7.265 -1.6338  0.7058  1.1161
36289SOL    HW215983   0.463   1.138   7.116  0.2045 -1.4230  0.6743
36290SOL     OW15984   0.156  11.331  11.860 -0.1579 -0.3862  0.6512
36290SOL    HW115985   0.060  11.323  11.869 -0.2046  1.2973  2.1348
36290SOL    HW215986   0.169  11.410  11.809  0.4623 -0.8891  0.0171
36291SOL     OW15987   8.303   1.847  12.638 -0.5882 -0.6400  0.4511
36291SOL    HW115988   8.253   1.866  12.559 -2.1599  0.0690  1.5374
36291SOL    HW215989   8.265   1.766  12.671  0.2134 -1.0539  0.3555
36292SOL     OW15990  11.355   7.918   9.978 -0.6587  0.4730  0.0040
36292SOL    HW115991  11.296   7.879  10.043 -1.1505  0.2646 -0.5614
36292SOL    HW215992  11.397   7.844   9.935  0.6196  0.6252  0.9259
36293SOL     OW15993  10.684   8.060  12.218 -0.6040  0.0878  0.1725
36293SOL    HW115994  10.656   8.013  12.139  0.4603 -0.7016  0.2398
36293SOL    HW215995  10.702   8.149  12.187 -1.6148  0.1908 -0.1702
36294SOL     OW15996  12.478   3.984   5.354 -0.4494  0.2066  0.0904
36294SOL    HW115997  12.427   4.009   5.277 -1.5804  1.9773  1.3139
36294SOL    HW215998  12.457   4.052   5.419  0.3788 -1.2523  1.9793
36295SOL     OW15999   9.903   8.238   8.882 -0.6664 -0.3135 -0.1889
36295SOL    HW116000   9.935   8.288   8.957  0.2032 -1.7556  0.4460
36295SOL    HW216001   9.912   8.297   8.807 -0.8544  0.8903  0.7065
36296SOL     OW16002   4.463   8.379  11.097  0.8150  0.0326  0.4334
36296SOL    HW116003   4.548   8.355  11.134  1.0702 -1.2187 -0.8602
36296SOL    HW216004   4.484   8.422  11.014  0.2000 -1.9507 -0.8090
36297SOL     OW16005   6.942   6.496   0.469  0.1859 -0.2982 -0.0095
36297SOL    HW116006   6.908   6.497   0.559 -1.4599 -0.3039 -0.5895
36297SOL    HW216007   6.947   6.588   0.445  0.5637 -0.2995  0.0636
36298SOL     OW16008   7.646   0.820   4.789 -0.0735  0.0045  0.3969
36298SOL    HW116009   7.682   0.873   4.860 -0.9947  0.9523  0.1826
36298SOL    HW216010   7.613   0.742   4.832 -2.1658  1.3061  1.3214
36299SOL     OW16011   0.286   1.911   1.654  0.1591 -0.0011  0.0359
36299SOL    HW116012   0.331   1.931   1.572  0.8986  4.5846  1.3162
36299SOL    HW216013   0.339   1.953   1.721 -1.8595 -1.2652  2.5966
36300SOL     OW16014  12.337  11.785   9.181 -0.1407  0.5093 -0.1493
36300SOL    HW116015  12.331  11.744   9.094  0.8239  2.9841 -1.5032
36300SOL    HW216016  12.278  11.734   9.236 -0.3312 -1.5317 -2.1014
36301SOL     OW16017  10.601   4.352   0.062 -0.1235 -1.0415  0.2161
36301SOL    HW116018  10.592   4.326  -0.029 -0.4495  2.1794 -0.7656
36301SOL    HW216019  10.658   4.428   0.061 -1.5201  0.1643  2.4655
36302SOL     OW16020   7.057   8.883   4.476  0.7407  0.2655 -0.1902
36302SOL    HW116021   7.028   8.899   4.386 -0.6158 -2.8666 -0.4420
36302SOL    HW216022   7.090   8.968   4.506 -1.7979  2.2551 -2.4945
36303SOL     OW16023   5.425   7.956   6.355  0.6014 -0.0318 -0.0066
36303SOL    HW116024   5.389   8.044   6.343  0.7562 -0.0368 -0.5077
36303SOL    HW216025   5.520   7.969   6.355  0.6163 -0.1341  0.4283
36304SOL     OW16026   0.631   3.410   9.276 -0.2085 -0.1639 -0.2965
36304SOL    HW116027   0.642   3.450   9.362  0.2744  0.3378 -0.5845
36304SOL    HW216028   0.655   3.318   9.289  0.4186  0.0323 -0.0135
36305SOL     OW16029  12.375  10.228   6.958 -0.1059  0.2111  0.1531
36305SOL    HW116030  12.347  10.317   6.980  1.4756  0.8781 -0.4007
36305SOL    HW216031  12.456  10.215   7.007  0.4419 -0.3790 -0.8792
36306SOL     OW16032   0.563   8.718  11.192  0.1134  0.0794  0.3392
36306SOL    HW116033   0.501   8.656  11.230 -1.7691  0.9564 -1.0643
36306SOL    HW216034   0.616   8.666  11.132  0.9297 -0.7355  1.7432
36307SOL     OW16035   1.558   3.554   3.143  0.4691  0.3090  0.6604
36307SOL    HW116036   1.562   3.526   3.052 -0.3143  2.2013 -0.0168
36307SOL    HW216037   1.640   3.603   3.157  0.1907  0.7682  0.6976
36308SOL     OW16038   8.123  12.708  10.904 -0.2244  0.4005 -0.4023
36308SOL    HW116039   8.108  12.675  10.815  0.4909  0.2602 -0.4768
36308SOL    HW216040   8.170  12.638  10.948 -0.6566  0.4357  0.1222
36309SOL     OW16041  11.878   7.674   1.093 -0.0069  0.0238 -0.0465
36309SOL    HW116042  11.871   7.621   1.013  0.1060  0.0453 -0.0719
36309SOL    HW216043  11.972   7.692   1.101  0.2632 -1.7413  1.2533
36310SOL     OW16044   9.348   5.029  11.879  0.9060  0.0336  0.3179
36310SOL    HW116045   9.375   4.964  11.814  1.3466  0.0764  0.4571
36310SOL    HW216046   9.430   5.065  11.913  0.7246 -0.8864  1.8248
36311SOL     OW16047   2.477  11.346   8.175 -0.0218 -0.0290  0.2783
36311SOL    HW116048   2.458  11.288   8.249  0.9607 -1.9105 -0.8675
36311SOL    HW216049   2.520  11.421   8.215  1.3174 -1.3985  1.5780
36312SOL     OW16050   8.223   3.779   0.044  0.0032 -0.2758  0.0045
36312SOL    HW116051   8.167   3.740   0.111 -1.1466  0.6633 -0.3766
36312SOL    HW216052   8.268   3.704   0.004  1.4187 -0.8162  2.3652
36313SOL     OW16053   7.012   2.881   9.029  0.3744 -0.3203  0.0646
36313SOL    HW116054   7.006   2.967   9.070 -0.2249  0.0722 -0.8157
36313SOL    HW216055   6.938   2.878   8.968  0.8705 -1.1284 -0.5230
36314SOL     OW16056   2.366   0.068   3.760  0.1220 -0.1643 -0.3302
36314SOL    HW116057   2.432   0.108   3.818  0.4693 -0.2894 -0.6338
36314SOL    HW216058   2.416   0.039   3.683 -0.2073 -0.7252 -0.3395
36315SOL     OW16059   2.154   6.952   2.793 -0.3476  0.5304  0.4352
36315SOL    HW116060   2.092   6.897   2.842 -0.2303 -1.4667 -1.4631
36315SOL    HW216061   2.098   7.008   2.739 -0.6012 -0.8815 -0.8608
36316SOL     OW16062   6.836   0.223   7.749 -0.0346  0.1762 -0.1719
36316SOL    HW116063   6.822   0.303   7.799  0.9204  0.3960 -0.2374
36316SOL    HW216064   6.749   0.198   7.718 -0.4260  0.8348  0.3832
36317SOL     OW16065   2.669   2.959   7.804  0.6579  0.6396  0.2173
36317SOL    HW116066   2.650   3.053   7.809  0.3687  0.5703  0.5002
36317SOL    HW216067   2.610   2.920   7.869 -1.7997 -0.1401 -2.2790
36318SOL     OW16068   8.869   1.527   0.301 -0.0556 -0.2128  0.1502
36318SOL    HW116069   8.944   1.538   0.360 -0.4540 -0.5205  0.7174
36318SOL    HW216070   8.843   1.436   0.312  0.1370 -0.4024 -0.8391
36319SOL     OW16071   9.932   0.389   6.183  0.1119 -0.0000  0.1040
36319SOL    HW116072   9.939   0.480   6.212 -0.9108  0.2574 -0.4175
36319SOL    HW216073   9.891   0.344   6.257  0.2924  0.0338  0.2251
36320SOL     OW16074   0.015   9.415   1.807  0.3078 -0.1861  0.4509
36320SOL    HW116075  -0.016   9.337   1.761  0.6676  0.1808 -0.4466
36320SOL    HW216076   0.050   9.382   1.890 -0.2525 -0.8785  0.4183
36321SOL     OW16077  12.785  12.638   6.588  0.3064  0.3423  0.0176
36321SOL    HW116078  12.835  12.561   6.559 -1.2217 -0.4967 -0.5315
36321SOL    HW216079  12.773  12.690   6.509  1.4338  1.2221  0.4126
36322SOL     OW16080   1.396  11.971   9.096  0.4401 -0.4333  0.6538
36322SOL    HW116081   1.356  12.020   9.024 -0.9363 -0.8941  1.0833
36322SOL    HW216082   1.385  12.026   9.173  0.9063 -0.4354  0.7255
36323SOL     OW16083   1.597   0.009   3.678  0.3985 -0.3224  0.2375
36323SOL    HW116084   1.689   0.012   3.705  0.6452 -0.1921 -0.6117
36323SOL    HW216085   1.586   0.083   3.619 -0.5636  0.3733  1.2544
36324SOL     OW16086   2.956   7.906   6.030  0.2007  0.2121 -0.4205
36324SOL    HW116087   2.880   7.898   6.088  1.5731  0.0205  1.4154
36324SOL    HW216088   2.939   7.986   5.979 -1.1471  0.2590  0.0624
36325SOL     OW16089   3.484   1.175   8.500  0.0295 -0.0031 -0.0687
36325SOL    HW116090   3.399   1.130   8.495  0.2071 -0.2893 -0.5577
36325SOL    HW216091   3.475   1.235   8.573 -0.5348 -0.1718  0.0026
36326SOL     OW16092   3.656  12.599   5.685  0.1522  0.6225 -0.5180
36326SOL    HW116093   3.687  12.678   5.729  1.3267  0.6595 -1.3640
36326SOL    HW216094   3.709  12.593   5.606 -0.4929 -0.5654 -0.8887
36327SOL     OW16095  12.280   9.521   1.098 -0.4129 -0.3709  0.4984
36327SOL    HW116096  12.270   9.569   1.180  0.0301  1.0254 -0.2180
36327SOL    HW216097  12.354   9.565   1.054 -0.6607 -1.0563 -0.6478
36328SOL     OW16098   5.914   9.803   8.686 -0.3460 -0.1627 -0.1654
36328SOL    HW116099   5.927   9.709   8.701  1.7281 -0.0704 -1.1159
36328SOL    HW216100   5.886   9.809   8.595 -0.4625  0.1436 -0.1096
36329SOL     OW16101   3.486  12.407  12.630  0.4858 -0.3365 -0.1020
36329SOL    HW116102   3.579  12.389  12.644  0.5594 -0.8746 -1.1647
36329SOL    HW216103   3.442  12.333  12.672  0.4050  0.8106  1.9977
36330SOL     OW16104   9.000  12.416   5.821 -0.1339  1.0941 -0.9087
36330SOL    HW116105   9.009  12.365   5.902 -1.8705 -1.9286 -2.4294
36330SOL    HW216106   9.089  12.441   5.798  0.7431 -0.6384  0.3649
36331SOL     OW16107   8.165   1.275   5.518  0.6658  0.4178 -0.2588
36331SOL    HW116108   8.144   1.204   5.579 -1.9900  0.3609 -1.1148
36331SOL    HW216109   8.253   1.254   5.486  0.5738 -1.6268  0.6786
36332SOL     OW16110   8.306   7.303   0.543  0.3410 -0.4020  0.5030
36332SOL    HW116111   8.379   7.350   0.584 -1.0848  2.9680 -0.4511
36332SOL    HW216112   8.345   7.257   0.469  1.7178  0.0611  0.9101
36333SOL     OW16113   1.262   3.271   0.569  0.0065  0.2333 -0.2329
36333SOL    HW116114   1.204   3.325   0.624  2.0968  3.5278 -0.9668
36333SOL    HW216115   1.213   3.261   0.487 -1.2777 -0.8948  0.6173
36334SOL     OW16116   8.730   3.342  12.073 -0.2148  0.2581  0.1743
36334SOL    HW116117   8.798   3.323  12.137 -1.8230 -2.0315  1.3129
36334SOL    HW216118   8.647   3.332  12.120 -1.4439  2.0032 -1.3955
36335SOL     OW16119   8.265   1.929  12.926 -0.4647 -0.4457 -0.0774
36335SOL    HW116120   8.170   1.938  12.914 -0.3886 -1.3433 -1.5412
36335SOL    HW216121   8.294   1.877  12.852  0.9505 -1.6647  1.2634
36336SOL     OW16122   3.552   4.710   9.624 -0.3026 -0.3892  0.0722
36336SOL    HW116123   3.502   4.725   9.544  0.1048  1.9865  0.1922
36336SOL    HW216124   3.564   4.615   9.627 -0.6542 -0.5902 -2.4688
36337SOL     OW16125   0.001   7.027  11.067  0.3456  0.0300  0.0384
36337SOL    HW116126  -0.089   7.060  11.066  0.8656  1.5495 -0.3728
36337SOL    HW216127  -0.006   6.936  11.095 -1.1271  0.7787  2.4170
36338SOL     OW16128   7.989   9.788  12.240 -0.3745  0.1801 -1.0187
36338SOL    HW116129   8.025   9.835  12.316 -0.0623  0.4515 -1.3307
36338SOL    HW216130   8.062   9.781  12.179 -0.3100 -1.0804 -0.8164
36339SOL     OW16131  10.770   8.399   8.344  0.5037 -0.3495 -0.4626
36339SOL    HW116132  10.716   8.328   8.378  1.0568 -0.0207  1.2027
36339SOL    HW216133  10.724   8.479   8.368  0.1883 -0.1075 -1.7961
36340SOL     OW16134   3.157   2.280   5.645 -0.1993 -0.3912 -0.2851
36340SOL    HW116135   3.189   2.251   5.730 -2.0133  0.6858  0.8418
36340SOL    HW216136   3.210   2.358   5.625 -0.4134 -0.0715  0.3568
36341SOL     OW16137  11.701   1.814   2.994 -0.5933 -0.9072  0.5452
36341SOL    HW116138  11.699   1.719   2.983 -1.4828 -1.0432  1.6168
36341SOL    HW216139  11.610   1.837   3.013 -0.3525  0.1351  0.4707
36342SOL     OW16140   2.847   1.109   9.666  0.7351  0.4210  0.1585
36342SOL    HW116141   2.772   1.167   9.677  1.2947  1.3722 -0.7652
36342SOL    HW216142   2.864   1.074   9.753  0.1121  1.3337  0.6650
36343SOL     OW16143  12.571  12.378   6.646 -0.8078  0.0235 -0.0102
36343SOL    HW116144  12.660  12.397   6.674 -0.8170 -1.2137  0.9475
36343SOL    HW216145  12.580  12.305   6.584 -0.9264  1.7841 -2.2331
36344SOL     OW16146   6.600   3.631   1.048  0.3342  0.2943  0.1100
36344SOL    HW116147   6.661   3.562   1.023 -0.8071 -1.3952  1.6724
36344SOL    HW216148   6.513   3.593   1.032 -0.3889  2.5153 -1.7911
36345SOL     OW16149   2.217   7.030   2.265 -0.6607  0.2589 -0.0875
36345SOL    HW116150   2.294   7.084   2.281  1.0530 -2.1134  0.0683
36345SOL    HW216151   2.197   7.044   2.172  1.3424 -0.7552 -0.7094
36346SOL     OW16152   3.688  12.443   3.261  0.5502 -0.2572  0.4365
36346SOL    HW116153   3.651  12.531   3.247  0.1517 -0.5495 -0.4592
36346SOL    HW216154   3.713  12.442   3.353 -2.7238 -0.4065  1.4745
36347SOL     OW16155   2.043   3.312  11.703 -0.5711  0.1862  0.2263
36347SOL    HW116156   2.002   3.361  11.632 -1.1069 -0.7760 -0.1427
36347SOL    HW216157   2.062   3.227  11.664  0.1374  0.0197  0.9255
36348SOL     OW16158   9.348  10.972  11.748 -0.0359  0.0792  0.2942
36348SOL    HW116159   9.276  10.913  11.724 -0.1303  0.4684 -0.4025
36348SOL    HW216160   9.368  10.949  11.839 -1.4753  0.3873  0.7233
36349SOL     OW16161  10.959   6.086   2.378  0.1815  0.4346  0.1052
36349SOL    HW116162  11.020   6.160   2.375  1.8460 -0.9114 -2.4730
36349SOL    HW216163  10.878   6.120   2.340  1.0481  0.8905 -1.4069
36350SOL     OW16164   5.257  10.380   0.363  0.4140 -0.0076 -0.3713
36350SOL    HW116165   5.164  10.399   0.375  0.1965 -2.0291  1.9724
36350SOL    HW216166   5.302  10.458   0.395 -0.4682 -0.2444  1.5397
36351SOL     OW16167   6.986   9.062   3.851  0.2737  0.0361 -0.6593
36351SOL    HW116168   6.912   9.028   3.901  0.1794  0.2853 -0.6290
36351SOL    HW216169   6.958   9.148   3.822  1.4168  1.1551  1.3466
36352SOL     OW16170   3.310   7.015  10.857  0.1460 -0.1107  0.0081
36352SOL    HW116171   3.328   6.988  10.947 -1.0492 -1.1336 -0.0333
36352SOL    HW216172   3.370   6.962  10.804 -0.3686 -0.7924  0.0997
36353SOL     OW16173   4.482   3.778   7.016 -0.2137 -0.1893 -0.3982
36353SOL    HW116174   4.528   3.859   7.039 -1.3974  0.3343  0.1999
36353SOL    HW216175   4.409   3.807   6.961 -0.7526 -0.8327 -0.0263
36354SOL     OW16176   9.211  11.544   2.677  0.1877 -0.0996  0.4083
36354SOL    HW116177   9.291  11.589   2.652  0.8197 -1.5822 -0.3526
36354SOL    HW216178   9.230  11.506   2.763  0.7260 -1.4026 -0.2688
36355SOL     OW16179   7.957   4.177  10.387 -0.1342 -0.3380 -0.2035
36355SOL    HW116180   7.882   4.236  10.382 -0.4157 -0.5927  0.7060
36355SOL    HW216181   7.975   4.151  10.297  0.1690  1.3377 -0.6538
36356SOL     OW16182   9.795   2.797   9.454 -0.3395 -0.2466 -0.0775
36356SOL    HW116183   9.886   2.826   9.457 -0.8819  1.5649  0.3404
36356SOL    HW216184   9.744   2.877   9.469 -1.9801 -1.3686  0.6414
36357SOL     OW16185   2.628  10.618  12.573  0.4411  0.3790 -0.0394
36357SOL    HW116186   2.613  10.707  12.541 -0.4666  0.6318  1.0254
36357SOL    HW216187   2.541  10.578  12.575  0.4133  0.4103  2.1357
36358SOL     OW16188   6.666   3.926   2.928 -0.0387  0.1077  0.0351
36358SOL    HW116189   6.678   3.835   2.954 -0.1869  0.1316  0.1945
36358SOL    HW216190   6.753   3.957   2.905  0.0942  0.0720  0.4738
36359SOL     OW16191   5.259   6.001   7.518  0.0839  0.2071  0.3360
36359SOL    HW116192   5.351   5.992   7.543 -0.1866 -1.3182  0.8992
36359SOL    HW216193   5.259   6.063   7.446  1.6005 -0.0157  0.1223
36360SOL     OW16194  10.902  11.745  11.130  0.1866  0.9240 -0.1174
36360SOL    HW116195  10.848  11.706  11.061  0.6616 -1.2337  0.6373
36360SOL    HW216196  10.979  11.779  11.084  0.7763 -1.0121 -0.6529
36361SOL     OW16197  10.897   2.632   7.167  0.0020 -1.0349 -0.0862
36361SOL    HW116198  10.840   2.555   7.180 -1.2063  0.0489  1.4934
36361SOL    HW216199  10.914   2.633   7.073 -2.9808 -1.2274 -0.7575
36362SOL     OW16200  10.141   8.755   8.560  0.3558 -0.5084  0.2245
36362SOL    HW116201  10.195   8.679   8.581  1.4071 -0.3783 -1.7017
36362SOL    HW216202  10.203   8.828   8.554  0.1541 -0.4301 -2.4712
36363SOL     OW16203   0.478   3.371  10.838 -0.1159 -0.2824 -0.3968
36363SOL    HW116204   0.517   3.324  10.912  0.4909 -0.3589 -0.7541
36363SOL    HW216205   0.537   3.445  10.823  0.3363 -0.8208 -1.4220
36364SOL     OW16206  10.948  11.856   0.927 -0.2487 -0.0147  0.2941
36364SOL    HW116207  10.953  11.791   0.858  1.1269  0.3689  0.0088
36364SOL    HW216208  11.025  11.841   0.981 -0.6536  0.4831  1.0346
36365SOL     OW16209   4.864   5.680   0.331 -0.1172  0.5794  0.6909
36365SOL    HW116210   4.886   5.758   0.281 -0.0359 -0.6822 -1.3451
36365SOL    HW216211   4.769   5.668   0.318  0.0246 -0.1386  0.2325
36366SOL     OW16212   3.570  10.301  12.571 -0.0825 -0.5652  0.2947
36366SOL    HW116213   3.613  10.292  12.656  2.6441 -0.2119 -0.9217
36366SOL    HW216214   3.638  10.337  12.514 -2.1990  0.4306 -1.7463
36367SOL     OW16215   5.070   1.473   9.540 -0.3142 -0.6660  0.0766
36367SOL    HW116216   5.136   1.542   9.528 -2.4406  1.3492 -0.7318
36367SOL    HW216217   5.106   1.417   9.609  2.4770 -0.0282 -0.7422
36368SOL     OW16218   5.792  11.791   1.715  0.1038  0.4264  0.4815
36368SOL    HW116219   5.719  11.729   1.707 -0.9824  1.7478 -0.2840
36368SOL    HW216220   5.827  11.798   1.627  2.3732 -1.5037  1.1088
36369SOL     OW16221   6.314   9.170   6.668  0.2406 -0.4865  0.6811
36369SOL    HW116222   6.239   9.166   6.727 -0.3736  0.3702 -0.0199
36369SOL    HW216223   6.358   9.086   6.679 -1.5578 -1.5514  0.1545
36370SOL     OW16224   1.869  12.936   7.533  0.0464 -0.1530  0.3088
36370SOL    HW116225   1.881  12.937   7.438  0.3032  2.3104  0.2998
36370SOL    HW216226   1.954  12.960   7.568  0.1426 -1.7514  1.2198
36371SOL     OW16227   2.061  12.146   7.743 -0.0895 -0.1928 -0.5371
36371SOL    HW116228   2.090  12.165   7.654  0.3831  0.2318 -0.3008
36371SOL    HW216229   2.008  12.223   7.768  0.0074 -0.1845 -0.3546
36372SOL     OW16230   6.413   5.695   5.847  0.3474  0.3128  0.2919
36372SOL    HW116231   6.488   5.679   5.791  0.5277  0.4793  0.4853
36372SOL    HW216232   6.442   5.673   5.935  0.1076  0.1863  0.3423
36373SOL     OW16233   9.241   0.504   0.878  0.2775  0.1487  0.4491
36373SOL    HW116234   9.177   0.506   0.949  1.0717 -0.0153  1.1951
36373SOL    HW216235   9.241   0.593   0.842 -2.4683 -0.5117 -1.5446
36374SOL     OW16236   6.804   5.829   9.005 -0.0020 -0.1805  0.1515
36374SOL    HW116237   6.851   5.890   8.949 -2.4814  2.4652  0.7054
36374SOL    HW216238   6.743   5.785   8.946 -0.3229  0.1571  0.2280
36375SOL     OW16239   0.959   1.920  11.830  0.2378  0.5278 -0.0033
36375SOL    HW116240   0.992   1.881  11.910 -2.2253 -1.3913  0.2083
36375SOL    HW216241   0.887   1.976  11.859 -1.7833 -1.4519 -0.8273
36376SOL     OW16242  12.052   1.707  10.306  0.3422  0.7441 -0.3171
36376SOL    HW116243  12.026   1.717  10.214 -0.3299 -1.4486 -0.4300
36376SOL    HW216244  11.976   1.735  10.356  0.1663  0.5472 -0.4726
36377SOL     OW16245   6.462   4.882  12.845 -0.5257 -0.1964  0.5494
36377SOL    HW116246   6.549   4.921  12.837 -0.9313  0.7391  0.5726
36377SOL    HW216247   6.444   4.846  12.758  0.7567 -2.3423  1.0906
36378SOL     OW16248  12.525  12.646   2.308 -0.7475  0.2430 -0.0803
36378SOL    HW116249  12.588  12.718   2.306 -0.4207 -0.0361 -0.0296
36378SOL    HW216250  12.543  12.596   2.229  0.0988 -0.6701  0.6564
36379SOL     OW16251   0.735   2.570   9.490 -0.8399 -0.2370 -0.2898
36379SOL    HW116252   0.801   2.543   9.427 -1.1936  0.5318 -1.0109
36379SOL    HW216253   0.784   2.608   9.562 -0.4333 -1.0869 -0.1094
36380SOL     OW16254  12.564   9.601   9.424 -0.6797 -0.6361  0.3421
36380SOL    HW116255  12.654   9.618   9.396 -0.8203  0.4197  0.4906
36380SOL    HW216256  12.512   9.604   9.343 -0.8000  0.3930  0.4428
36381SOL     OW16257   8.384   7.709   8.788  0.5733  0.2947 -0.0903
36381SOL    HW116258   8.456   7.769   8.806  1.0461 -0.4573  0.6254
36381SOL    HW216259   8.427   7.629   8.756  0.0372 -0.0704  0.0862
36382SOL     OW16260   5.452  12.279   1.957 -0.5207 -0.7267  0.4209
36382SOL    HW116261   5.492  12.313   2.037  0.4551 -0.2918 -0.2251
36382SOL    HW216262   5.408  12.199   1.984 -0.3761 -0.4860  1.4251
36383SOL     OW16263   0.865   3.540   6.432  0.5883  0.5914  0.3523
36383SOL    HW116264   0.876   3.533   6.337  0.2969  3.2781  0.0572
36383SOL    HW216265   0.926   3.609   6.458 -0.4509  0.9876  1.8815
36384SOL     OW16266   9.934   3.517   3.715 -0.6437  0.2430  0.0483
36384SOL    HW116267   9.886   3.444   3.753 -1.7242  1.3067  0.7934
36384SOL    HW216268   9.923   3.507   3.620 -0.3881 -0.7937  0.1121
36385SOL     OW16269  12.420  11.919   7.992 -0.4059  0.1017  0.0872
36385SOL    HW116270  12.389  11.831   7.975  0.4108 -0.0355 -0.8386
36385SOL    HW216271  12.417  11.962   7.907 -1.0012  1.0435  0.5687
36386SOL     OW16272   2.884   7.107  10.055 -0.1499  0.5655  0.2027
36386SOL    HW116273   2.789   7.101  10.066 -0.1515  2.0375  1.2841
36386SOL    HW216274   2.914   7.016  10.051 -1.6980  0.0762 -1.2645
36387SOL     OW16275  10.043   6.000   1.246  0.7312 -0.0304  0.1879
36387SOL    HW116276  10.130   5.969   1.270 -0.0727 -3.9962 -1.2681
36387SOL    HW216277   9.984   5.955   1.306 -0.4577  1.0111 -0.1576
36388SOL     OW16278   1.114   6.541   5.683 -0.6041  0.1871 -0.7450
36388SOL    HW116279   1.066   6.541   5.766 -0.4040 -2.5988 -0.5246
36388SOL    HW216280   1.052   6.505   5.619  0.4380 -1.3731 -0.9312
36389SOL     OW16281   8.766  10.889   8.190  0.2859  0.1740  0.0116
36389SOL    HW116282   8.787  10.942   8.267 -1.5580  2.0448 -0.6867
36389SOL    HW216283   8.838  10.905   8.129  0.6513  0.4277  0.5045
36390SOL     OW16284  10.605  12.452   1.705 -0.5945 -0.1387  0.8171
36390SOL    HW116285  10.663  12.517   1.744 -0.1442 -1.2060  1.9700
36390SOL    HW216286  10.517  12.487   1.720 -0.3317  0.7024  0.4842
36391SOL     OW16287  12.357   5.284   3.513 -0.3117  0.3417  0.3829
36391SOL    HW116288  12.365   5.325   3.599 -0.1107 -0.1037  0.5809
36391SOL    HW216289  12.265   5.258   3.508 -0.7333  1.8123 -0.2155
36392SOL     OW16290   4.094   0.624   2.364  0.5870 -0.6500 -0.6953
36392SOL    HW116291   4.114   0.582   2.280  0.0981 -2.0777 -0.1372
36392SOL    HW216292   4.167   0.683   2.379  0.5309 -0.1162 -2.2699
36393SOL     OW16293   1.756   1.923   2.774  0.5751 -0.1848 -0.1015
36393SOL    HW116294   1.717   1.956   2.855  1.6147 -2.6820  1.5498
36393SOL    HW216295   1.685   1.926   2.710 -0.1266  2.4242  0.6493
36394SOL     OW16296   8.726   0.324  12.126  0.0783  0.1578  0.3901
36394SOL    HW116297   8.809   0.371  12.119 -0.2221  0.4797 -1.4553
36394SOL    HW216298   8.659   0.389  12.106 -0.5017 -0.5330  0.0630
36395SOL     OW16299   6.563   8.505   0.654 -0.1259  0.3441 -0.0216
36395SOL    HW116300   6.615   8.459   0.588  0.5944  0.3414  0.5406
36395SOL    HW216301   6.489   8.541   0.605  0.4264  0.3942 -0.8389
36396SOL     OW16302   1.469  10.756  10.098  0.5006 -0.1841  0.4662
36396SOL    HW116303   1.414  10.705  10.159  0.3871 -2.4310 -1.3914
36396SOL    HW216304   1.549  10.704  10.089  0.4108 -0.0558 -1.4493
36397SOL     OW16305   8.777   1.003   9.809 -0.3816 -0.3824 -0.0498
36397SOL    HW116306   8.762   1.054   9.888 -0.2179 -0.3134 -0.0633
36397SOL    HW216307   8.871   0.986   9.808 -0.0316  1.3489 -1.2727
36398SOL     OW16308   8.696  11.645  12.081  0.2246  0.2895 -0.0338
36398SOL    HW116309   8.658  11.558  12.070 -0.3632  0.8333 -3.0551
36398SOL    HW216310   8.741  11.663  11.999  1.8231  2.1837  1.1569
36399SOL     OW16311   8.675  12.115   3.900  0.7442 -0.2746 -0.2003
36399SOL    HW116312   8.735  12.050   3.866 -0.9097 -1.5313 -0.8742
36399SOL    HW216313   8.610  12.064   3.949  1.6531  1.2319  2.8715
36400SOL     OW16314   7.783   3.268   6.999 -0.5841 -0.0071 -0.2421
36400SOL    HW116315   7.718   3.259   6.930 -0.8206 -0.8391  0.0859
36400SOL    HW216316   7.801   3.179   7.028  0.2808  0.2513  0.0623
36401SOL     OW16317   4.794   0.112  12.791 -0.5698  0.1312 -0.3580
36401SOL    HW116318   4.817   0.201  12.764 -0.3396  0.4213  0.7282
36401SOL    HW216319   4.711   0.094  12.746 -1.3959  1.4751  0.5156
36402SOL     OW16320   1.344   0.943   1.197  0.3466 -0.0974 -0.2705
36402SOL    HW116321   1.335   0.847   1.199 -1.0414 -0.0121 -0.9698
36402SOL    HW216322   1.266   0.973   1.150  0.5867  1.4086  0.2421
36403SOL     OW16323  12.476  10.607   2.196  0.0573 -0.2666 -0.6127
36403SOL    HW116324  12.537  10.571   2.132  0.4000  0.6129 -0.7906
36403SOL    HW216325  12.438  10.683   2.153 -1.3070 -0.8872 -0.5719
36404SOL     OW16326   4.545   2.396  12.806 -0.1308  0.3172 -0.4525
36404SOL    HW116327   4.548   2.312  12.760 -0.2730  0.8973 -1.5661
36404SOL    HW216328   4.592   2.457  12.749  0.4238  0.8866  0.5894
36405SOL     OW16329  10.052   2.536   3.406 -0.1517  0.0873 -0.2661
36405SOL    HW116330  10.121   2.558   3.344  1.4416  0.6380  1.6167
36405SOL    HW216331  10.097   2.522   3.489 -2.3715  1.3650  1.2752
36406SOL     OW16332   0.055   0.303  12.450  0.2565 -0.2664  0.1307
36406SOL    HW116333   0.150   0.319  12.449  0.4251 -1.1606 -0.9512
36406SOL    HW216334   0.029   0.307  12.358 -0.5015 -1.3685  0.2779
36407SOL     OW16335   1.182  10.759   4.482 -0.7536  0.4737 -0.3680
36407SOL    HW116336   1.114  10.820   4.452 -0.2531  1.5027  0.4905
36407SOL    HW216337   1.207  10.792   4.568  0.1223 -0.4866 -0.2349
36408SOL     OW16338   0.066   6.311  12.378  0.1866 -0.5505 -0.6157
36408SOL    HW116339   0.137   6.263  12.420  0.3905 -0.7774 -1.2090
36408SOL    HW216340   0.096   6.402  12.376  0.3918 -0.6209 -0.7285
36409SOL     OW16341  10.115   8.101  12.172  0.1642  0.4608  0.0842
36409SOL    HW116342  10.029   8.064  12.191  0.7491  0.2381  2.5377
36409SOL    HW216343  10.119   8.181  12.224  1.4891  0.4189  0.0672
36410SOL     OW16344  11.833  10.222   9.834 -0.1900  0.1393  0.4380
36410SOL    HW116345  11.874  10.171   9.904 -1.2112  0.8214  1.5665
36410SOL    HW216346  11.866  10.311   9.849  1.3129 -0.0701 -1.3054
36411SOL     OW16347   0.558   2.045   2.603  0.1904  0.1436  0.4049
36411SOL    HW116348   0.587   2.107   2.670  0.4617 -0.8274  1.2057
36411SOL    HW216349   0.598   2.077   2.522  1.8855 -0.0203  1.1304
36412SOL     OW16350   5.801   1.265   4.001 -0.1887  0.0756  0.0133
36412SOL    HW116351   5.848   1.207   4.061 -1.1806 -0.8151 -0.0356
36412SOL    HW216352   5.811   1.352   4.038 -0.1333 -0.3639  1.0638
36413SOL     OW16353   2.448  11.022   6.148  0.8050 -0.3721 -0.3505
36413SOL    HW116354   2.498  11.093   6.189 -0.6528  0.7658 -0.4642
36413SOL    HW216355   2.386  11.066   6.090 -1.2614 -1.5981  0.7717
36414SOL     OW16356   6.669   6.653   0.923 -0.0095 -0.3415 -0.1246
36414SOL    HW116357   6.734   6.722   0.911  0.9256 -1.1172  0.2660
36414SOL    HW216358   6.590   6.698   0.953  0.8351  0.4783  0.9640
36415SOL     OW16359   8.272   0.459   4.764 -0.3533 -0.3987  0.4514
36415SOL    HW116360   8.300   0.368   4.757 -0.7726 -0.4858 -0.0706
36415SOL    HW216361   8.204   0.470   4.698 -1.0148  0.0288  1.1781
36416SOL     OW16362  12.261   3.751  11.358  0.0026 -0.1922 -0.7881
36416SOL    HW116363  12.347   3.715  11.377  0.5931  0.9437 -1.2116
36416SOL    HW216364  12.200   3.684  11.387  1.0257 -1.0053 -0.4581
36417SOL     OW16365   9.551   7.556  10.345 -0.8425 -0.0995  0.2680
36417SOL    HW116366   9.584   7.521  10.428 -0.9339  0.3413  0.4914
36417SOL    HW216367   9.516   7.642  10.367 -2.4134 -0.6691  0.1054
36418SOL     OW16368   4.511   4.539  12.067 -0.5472  0.0092 -0.5154
36418SOL    HW116369   4.438   4.540  12.130 -0.1336 -1.5523  0.0412
36418SOL    HW216370   4.476   4.492  11.991 -0.0440 -1.0893 -0.0948
36419SOL     OW16371   1.353   6.069   9.513 -0.1502  0.0086  0.0454
36419SOL    HW116372   1.384   6.111   9.594 -0.8827 -0.0408  0.3638
36419SOL    HW216373   1.423   6.084   9.450 -0.1057  1.1564  0.3320
36420SOL     OW16374   4.350   7.273   5.197  0.5411 -0.8522  0.3802
36420SOL    HW116375   4.323   7.229   5.278  0.0487  0.1635  0.7861
36420SOL    HW216376   4.313   7.220   5.127 -2.0724  0.1300  0.8916
36421SOL     OW16377   7.158   4.419   1.415 -0.0030  0.3655 -0.1783
36421SOL    HW116378   7.162   4.505   1.457 -0.4507  0.0375  0.5539
36421SOL    HW216379   7.077   4.421   1.364 -0.3093  0.1763  0.2973
36422SOL     OW16380   3.094   0.162   5.054 -0.3443 -1.0176  0.4371
36422SOL    HW116381   3.168   0.212   5.089 -0.1467 -2.0850  1.6002
36422SOL    HW216382   3.105   0.074   5.089 -0.7290 -1.8948 -1.5065
36423SOL     OW16383   8.415  10.579   3.637 -0.7772  0.1319 -0.2521
36423SOL    HW116384   8.477  10.616   3.700 -1.5736  1.3240 -0.1335
36423SOL    HW216385   8.418  10.485   3.654 -0.1955  0.3221  0.8471
36424SOL     OW16386   8.545   7.823   6.540  0.4837  0.8511 -0.0705
36424SOL    HW116387   8.548   7.912   6.505 -1.3662  1.1923  0.5245
36424SOL    HW216388   8.601   7.773   6.481 -1.1144  1.7373 -2.5409
36425SOL     OW16389   6.658   9.830   5.097 -0.1207 -0.2424 -0.0384
36425SOL    HW116390   6.637   9.750   5.050 -1.7813  0.4657 -0.5937
36425SOL    HW216391   6.585   9.842   5.158 -0.6641  1.5476 -0.9572
36426SOL     OW16392  11.071  10.471   1.305  0.0234  0.6054 -0.2805
36426SOL    HW116393  11.048  10.476   1.397 -1.8373 -1.1427 -0.5777
36426SOL    HW216394  11.119  10.388   1.297  0.3202  0.8286 -0.8518
36427SOL     OW16395   5.035   0.669   9.270 -0.0067 -0.8328  0.1686
36427SOL    HW116396   5.115   0.617   9.277  1.1706  0.7725 -0.8271
36427SOL    HW216397   5.029   0.692   9.178  0.4302  2.1178  0.7671
36428SOL     OW16398   6.140   6.724  11.200 -0.1176  0.4915  0.2054
36428SOL    HW116399   6.221   6.701  11.244  0.0392  1.5803  0.5001
36428SOL    HW216400   6.083   6.758  11.269  0.0334  1.9584 -0.3590
36429SOL     OW16401   2.699  11.930   0.512 -0.0903 -0.3721  0.3868
36429SOL    HW116402   2.783  11.895   0.542 -0.4133 -1.3611  0.1766
36429SOL    HW216403   2.635  11.862   0.535 -0.7194  0.0309 -0.1282
36430SOL     OW16404   8.065   2.681   7.727  0.2148  0.5443  0.5229
36430SOL    HW116405   7.974   2.677   7.696  0.1714  0.9734  0.5812
36430SOL    HW216406   8.113   2.719   7.654  0.7732 -1.7460 -0.3884
36431SOL     OW16407  11.136   8.638   5.103  0.5137  0.3509  0.2604
36431SOL    HW116408  11.201   8.597   5.046  1.6447  2.2512  0.0829
36431SOL    HW216409  11.171   8.627   5.192  0.5156  0.3852  0.2642
36432SOL     OW16410  10.320   2.994  12.172  0.6072  0.5091 -0.2411
36432SOL    HW116411  10.350   3.051  12.102  1.3213 -0.9894 -1.2031
36432SOL    HW216412  10.373   3.019  12.248  0.6992  1.3046 -0.5553
36433SOL     OW16413   1.167   5.147   7.668  0.9510 -0.1706 -0.1301
36433SOL    HW116414   1.224   5.077   7.636  1.8945  1.2581 -1.6943
36433SOL    HW216415   1.121   5.178   7.590  0.8884  1.2535  0.4408
36434SOL     OW16416  10.170   8.640  10.492 -0.0241  0.2419 -0.1661
36434SOL    HW116417  10.170   8.546  10.509  3.0385 -0.2083 -1.7953
36434SOL    HW216418  10.208   8.678  10.571  0.4199 -0.1417 -0.1828
36435SOL     OW16419   6.683   8.079   5.022 -0.5768  0.2526  0.4411
36435SOL    HW116420   6.778   8.077   5.033 -0.5692 -0.4913  0.2723
36435SOL    HW216421   6.661   7.992   4.988 -0.9979  1.3176 -2.2702
36436SOL     OW16422   2.352   0.699   9.095  0.8614  0.8265  0.2175
36436SOL    HW116423   2.271   0.713   9.145 -0.8498 -0.3642 -2.0303
36436SOL    HW216424   2.418   0.748   9.143 -1.4059  2.7642  1.6042
36437SOL     OW16425   2.966   5.904  12.954 -0.4654 -0.3913  0.4463
36437SOL    HW116426   2.936   5.837  13.015 -0.6060  1.1935  2.2219
36437SOL    HW216427   3.055   5.878  12.931 -0.8098 -1.6086  0.4205
36438SOL     OW16428   7.809   5.600   0.800 -0.0936 -0.3134  0.0643
36438SOL    HW116429   7.888   5.589   0.853 -1.7482  1.4409  3.0757
36438SOL    HW216430   7.783   5.510   0.778  2.2076 -0.9557 -0.2864
36439SOL     OW16431   7.366  10.272   6.020  0.0776  0.6701  0.4890
36439SOL    HW116432   7.288  10.230   6.057 -0.5323  1.7199  0.4518
36439SOL    HW216433   7.352  10.366   6.035 -0.3946  1.2213 -2.6140
36440SOL     OW16434   1.412   2.691  12.558  0.6942 -0.5900  0.0065
36440SOL    HW116435   1.431   2.615  12.612  0.4298 -1.2176 -0.7681
36440SOL    HW216436   1.395   2.761  12.621  0.3829 -1.3049  0.7414
36441SOL     OW16437   0.258   9.598   7.879  0.4540 -0.3358 -0.7249
36441SOL    HW116438   0.231   9.676   7.927 -0.5746 -0.9743 -0.2448
36441SOL    HW216439   0.209   9.602   7.796 -0.4402 -1.0150 -0.2434
36442SOL     OW16440   3.984   6.061   3.687 -0.1390 -0.4120  0.2209
36442SOL    HW116441   3.912   6.004   3.657  0.5877 -0.3622 -1.7837
36442SOL    HW216442   4.018   6.100   3.607 -0.0524  2.2492  1.4343
36443SOL     OW16443  11.220   3.216   6.998 -0.4303  0.3684  0.1069
36443SOL    HW116444  11.243   3.304   7.028 -0.9214  0.1403  1.2214
36443SOL    HW216445  11.199   3.168   7.078 -1.7994 -0.2819 -0.6016
36444SOL     OW16446  11.799  10.323   2.283  0.5820  0.1818 -0.4941
36444SOL    HW116447  11.821  10.239   2.242  0.8523  0.6070 -1.2180
36444SOL    HW216448  11.869  10.382   2.256 -0.0991  0.8811 -0.7394
36445SOL     OW16449   7.031  10.093  12.960  0.7461 -0.8641 -0.3643
36445SOL    HW116450   7.032  10.139  12.875 -2.9951 -0.9772 -0.6145
36445SOL    HW216451   7.012  10.161  13.024 -1.0838 -1.4280 -0.2619
36446SOL     OW16452   6.048   6.963   1.769 -0.4277 -0.1522  0.1899
36446SOL    HW116453   5.973   6.951   1.710  0.6648 -2.3830 -0.8285
36446SOL    HW216454   6.025   6.913   1.847  0.2823 -1.4354 -0.4108
36447SOL     OW16455   1.266   0.107   5.610 -0.0682  0.6056  0.1636
36447SOL    HW116456   1.195   0.127   5.671  0.3191  2.1368  0.1641
36447SOL    HW216457   1.291   0.017   5.631 -0.8489  0.6387  1.3513
36448SOL     OW16458   2.281  11.148   0.830  0.4728 -0.5152 -0.0351
36448SOL    HW116459   2.211  11.191   0.782 -1.1075 -3.0627 -0.1728
36448SOL    HW216460   2.273  11.183   0.920 -0.9676 -0.7467 -0.0521
36449SOL     OW16461   3.005   7.359  10.325 -0.0226 -0.0955  0.2410
36449SOL    HW116462   2.952   7.347  10.247 -1.3831 -0.2089  1.1498
36449SOL    HW216463   2.973   7.292  10.386 -0.8097  1.6166  1.8125
36450SOL     OW16464  10.838  10.256   2.529  0.0897  0.0033 -0.2524
36450SOL    HW116465  10.784  10.178   2.545  1.1919 -0.6811  0.3090
36450SOL    HW216466  10.777  10.320   2.492 -0.6486 -1.4504 -1.7154
36451SOL     OW16467   5.626   1.083   5.129 -0.7312  0.1420  0.3821
36451SOL    HW116468   5.637   0.995   5.094 -0.9684 -0.5054  1.8874
36451SOL    HW216469   5.708   1.128   5.108 -0.6956 -0.3590 -0.5837
36452SOL     OW16470  10.162  12.755   5.763 -0.1618 -0.0463 -0.1443
36452SOL    HW116471  10.235  12.812   5.735 -0.2728  0.5725  0.7869
36452SOL    HW216472  10.155  12.770   5.857 -2.8209  1.4830 -0.4852
36453SOL     OW16473   3.203   7.652   5.042 -0.1476  0.3627  0.2385
36453SOL    HW116474   3.163   7.634   4.957 -1.4990 -0.9068  1.1126
36453SOL    HW216475   3.203   7.747   5.049 -0.9562  0.4456 -0.7400
36454SOL     OW16476  11.383  11.202   4.594  0.1541 -0.2698 -0.7775
36454SOL    HW116477  11.423  11.181   4.679  1.6877  0.5556 -1.2522
36454SOL    HW216478  11.300  11.244   4.616 -0.2069 -1.4757  0.2700
36455SOL     OW16479  10.347   2.835   8.251 -0.2903  0.2334  0.1307
36455SOL    HW116480  10.283   2.906   8.248  0.6177  1.1403  1.3176
36455SOL    HW216481  10.430   2.877   8.227  0.2647 -0.4231  0.8645
36456SOL     OW16482   2.204   9.422   6.408  0.4192  0.3978 -0.2359
36456SOL    HW116483   2.238   9.332   6.402  1.4492  0.6045  1.7715
36456SOL    HW216484   2.118   9.412   6.449  1.5055  0.4302  2.2158
36457SOL     OW16485   1.037   6.852   2.076  0.3164  0.0272  0.7646
36457SOL    HW116486   1.092   6.793   2.025  0.9168  0.7055  0.5951
36457SOL    HW216487   0.960   6.801   2.098  0.7143 -0.7365  0.4242
36458SOL     OW16488   9.566   3.014   0.372  0.4726 -0.4651  0.1552
36458SOL    HW116489   9.659   3.000   0.393  0.6840 -1.0562 -1.0724
36458SOL    HW216490   9.565   3.097   0.326  0.4318 -0.5662 -0.0281
36459SOL     OW16491   8.344   3.575  12.906  0.4440  0.1679  0.1539
36459SOL    HW116492   8.410   3.572  12.836 -0.0461 -1.6724 -0.2923
36459SOL    HW216493   8.285   3.503  12.886 -0.6353  0.6083  1.5989
36460SOL     OW16494   5.895   9.978   1.061 -0.3795  0.4012  0.5747
36460SOL    HW116495   5.898  10.060   1.011 -0.1076 -0.5724 -1.1094
36460SOL    HW216496   5.808   9.978   1.101 -0.5588  1.2937  0.2224
36461SOL     OW16497   9.754   0.262  11.264  0.6474 -0.0158 -0.1094
36461SOL    HW116498   9.706   0.217  11.195  1.7774  0.1910 -1.0672
36461SOL    HW216499   9.843   0.271  11.229  0.5725  2.5851  0.1950
36462SOL     OW16500   9.909   1.661   5.107  0.5539 -0.3842 -0.2424
36462SOL    HW116501   9.826   1.614   5.110 -0.4228  1.2690 -0.2975
36462SOL    HW216502   9.939   1.652   5.017 -0.6745  0.7771 -0.8127
36463SOL     OW16503   6.103   9.775   3.677  0.5255  0.5200  0.3439
36463SOL    HW116504   6.045   9.851   3.664  1.0859  1.2874  2.1196
36463SOL    HW216505   6.044   9.705   3.704 -0.0807  0.0819 -1.8674
36464SOL     OW16506  10.342   1.285   6.922  0.0845 -0.0528 -0.3730
36464SOL    HW116507  10.258   1.238   6.921  0.1637 -0.3273  1.5038
36464SOL    HW216508  10.406   1.218   6.945  0.7166  0.3258 -0.9935
36465SOL     OW16509   7.729   8.521   5.497 -0.2011 -0.1992 -0.4615
36465SOL    HW116510   7.756   8.525   5.405  1.7316 -0.6054  0.0477
36465SOL    HW216511   7.793   8.463   5.538 -0.3118  0.9010  1.3759
36466SOL     OW16512   6.933  11.897   2.865 -0.1773 -0.4413 -0.0786
36466SOL    HW116513   6.886  11.897   2.948  1.3920 -0.9176  0.8517
36466SOL    HW216514   6.924  11.987   2.832 -0.3563 -0.1059  0.8749
36467SOL     OW16515  12.675   3.585   5.087  0.2525 -0.4717 -0.3502
36467SOL    HW116516  12.635   3.637   5.157  1.5535 -0.0436  0.0996
36467SOL    HW216517  12.637   3.619   5.006  2.9268  3.0131 -0.3235
36468SOL     OW16518   0.399   9.852   8.927  0.2849  0.3632  0.1597
36468SOL    HW116519   0.456   9.856   8.850  2.1535  1.4384  1.5030
36468SOL    HW216520   0.378   9.760   8.938 -2.3978  0.3678 -3.1910
36469SOL     OW16521   1.464  12.523   2.630 -0.3953  0.9487 -0.3394
36469SOL    HW116522   1.421  12.553   2.710  1.7001  1.3304  0.7071
36469SOL    HW216523   1.526  12.592   2.609  0.2172  0.1116 -1.3802
36470SOL     OW16524  10.080  12.014   9.783  0.4347  0.0551  0.0518
36470SOL    HW116525  10.072  12.070   9.860 -0.0616 -1.7205  1.3751
36470SOL    HW216526  10.020  12.051   9.719 -0.7053  0.4224  1.2962
36471SOL     OW16527   1.416   8.333   8.124  0.1470  0.4351 -0.1143
36471SOL    HW116528   1.353   8.280   8.172  0.4715 -1.3513 -1.5903
36471SOL    HW216529   1.450   8.394   8.190 -1.6695  0.1514  1.1597
36472SOL     OW16530  11.801  12.674   6.362  0.0768  0.2307 -0.2254
36472SOL    HW116531  11.714  12.699   6.393 -0.3869 -0.0715 -1.2543
36472SOL    HW216532  11.840  12.628   6.437 -0.2841  1.1680  0.5624
36473SOL     OW16533   3.528   0.559  11.790  0.0001 -0.7105 -0.3224
36473SOL    HW116534   3.536   0.467  11.818  0.0119 -0.1503  1.6503
36473SOL    HW216535   3.437   0.581  11.806  0.6170  0.4129  1.9318
36474SOL     OW16536  11.406   6.645   1.172  0.1182 -0.1831 -0.7333
36474SOL    HW116537  11.366   6.585   1.108  0.2508  0.4565 -1.4343
36474SOL    HW216538  11.437   6.719   1.119  0.5899  0.1783  0.0303
36475SOL     OW16539   9.969  12.538   1.995 -0.1166 -0.0808  0.4415
36475SOL    HW116540   9.969  12.590   2.076  2.7282  0.1983  0.3652
36475SOL    HW216541   9.927  12.456   2.019 -1.4061  0.8526  1.5520
36476SOL     OW16542   5.388   3.720   2.687  0.5232  0.0612 -0.6641
36476SOL    HW116543   5.417   3.676   2.767 -0.3410 -0.3045 -0.5382
36476SOL    HW216544   5.329   3.789   2.717 -1.3188 -1.2757 -1.0441
36477SOL     OW16545   6.288   4.801   2.915 -0.1873 -0.1793  0.2058
36477SOL    HW116546   6.334   4.871   2.869  2.0309 -0.4884  1.7825
36477SOL    HW216547   6.305   4.723   2.863  0.5214 -0.1580  0.3861
36478SOL     OW16548   8.943   6.080   5.932  0.8263 -0.0447 -0.0543
36478SOL    HW116549   8.943   6.008   5.868  0.6336 -2.7044  2.7268
36478SOL    HW216550   9.031   6.118   5.924  1.8234 -2.1864 -0.0124
36479SOL     OW16551  11.589   2.679   8.034  0.1850 -0.5941 -0.2401
36479SOL    HW116552  11.673   2.724   8.024  0.9500 -1.4319  1.7525
36479SOL    HW216553  11.529   2.726   7.976  1.1070  2.4390  1.0765
36480SOL     OW16554   6.493   6.127   1.789  0.1574 -0.3600  0.1416
36480SOL    HW116555   6.565   6.189   1.799 -0.4572  0.4205 -0.0578
36480SOL    HW216556   6.482   6.118   1.694  0.6857 -1.3269  0.1616
36481SOL     OW16557   3.439   3.875   3.807  0.6737  0.0328 -0.0064
36481SOL    HW116558   3.469   3.785   3.811  0.4940 -0.0926 -1.1359
36481SOL    HW216559   3.344   3.870   3.816  0.5284 -0.0286 -1.3593
36482SOL     OW16560  12.325   4.248   1.827 -0.5191  1.0605 -0.2351
36482SOL    HW116561  12.318   4.340   1.854  1.1819  1.0987  0.1604
36482SOL    HW216562  12.402   4.245   1.771 -0.2386 -0.2321  0.1942
36483SOL     OW16563   0.694   3.217   2.370  0.4954  0.0402  0.1992
36483SOL    HW116564   0.736   3.301   2.348  2.9900 -1.1427  0.0641
36483SOL    HW216565   0.767   3.160   2.393 -1.2692 -1.6097  2.0775
36484SOL     OW16566   0.081   2.711   5.058  0.0982 -0.3788 -0.4408
36484SOL    HW116567   0.134   2.750   5.128 -1.5838  0.5608  0.3634
36484SOL    HW216568   0.061   2.623   5.089  0.2681 -0.3460 -0.2373
36485SOL     OW16569   7.675   4.840   2.281 -0.2011  0.1387 -0.1485
36485SOL    HW116570   7.647   4.928   2.257  0.7631  0.0529 -1.7435
36485SOL    HW216571   7.722   4.808   2.204  2.1103 -0.6336  1.4720
36486SOL     OW16572  11.036   4.332   4.214  0.1343 -0.7162 -0.0821
36486SOL    HW116573  11.067   4.269   4.149 -0.2568 -1.1418  0.1451
36486SOL    HW216574  11.009   4.408   4.162 -2.0831 -1.7868 -0.6362
36487SOL     OW16575   8.710   8.948  10.277  0.3440 -0.2727  0.2259
36487SOL    HW116576   8.664   8.865  10.281  0.1027 -0.2761 -1.6313
36487SOL    HW216577   8.645   9.010  10.244  0.6079  0.6058  1.2911
36488SOL     OW16578   0.465   6.999  11.690 -0.6033 -0.6310 -0.1721
36488SOL    HW116579   0.560   6.991  11.685 -0.3926  1.5718 -0.5767
36488SOL    HW216580   0.437   6.927  11.747  1.3384 -1.0283  0.3265
36489SOL     OW16581   6.493   1.802   3.034 -0.8062 -0.2147 -0.1544
36489SOL    HW116582   6.411   1.762   3.004 -0.4909  0.6455 -2.2890
36489SOL    HW216583   6.466   1.884   3.075 -1.1215 -0.7921  0.8566
36490SOL     OW16584  11.946   4.807   7.572 -0.2577 -0.2002  0.3320
36490SOL    HW116585  12.018   4.748   7.593  1.2162  0.9445 -1.2429
36490SOL    HW216586  11.963   4.834   7.481 -3.5177 -1.0781 -0.6783
36491SOL     OW16587   2.382   5.985   4.454  0.1564 -0.3865 -0.0824
36491SOL    HW116588   2.403   5.996   4.547 -1.6204 -1.4386  0.4907
36491SOL    HW216589   2.294   5.947   4.454  0.7221 -1.8556 -2.1624
36492SOL     OW16590   4.020   0.481   6.736  0.0281 -0.5421 -0.9664
36492SOL    HW116591   3.948   0.425   6.764  0.2555  0.0119  0.8078
36492SOL    HW216592   3.987   0.524   6.657 -1.5300 -0.4544 -0.3049
36493SOL     OW16593   8.236   6.477  10.254 -0.6653  0.1226 -0.3029
36493SOL    HW116594   8.177   6.420  10.204 -1.6099  0.5101  0.3377
36493SOL    HW216595   8.238   6.438  10.341 -3.2509  2.3051  0.8849
36494SOL     OW16596  11.171  10.487   5.832 -0.1597 -0.6001  0.2903
36494SOL    HW116597  11.097  10.540   5.861  0.5412  0.7572 -0.2548
36494SOL    HW216598  11.182  10.510   5.740  0.8159 -0.9137  0.3149
36495SOL     OW16599   0.543   5.337   6.838  0.7153  0.7781 -0.3297
36495SOL    HW116600   0.463   5.285   6.839  0.9168  0.4555  1.3883
36495SOL    HW216601   0.605   5.284   6.788  0.4106  0.1680 -0.0729
36496SOL     OW16602   7.742  11.954  12.601  0.3515 -0.0919 -0.2237
36496SOL    HW116603   7.670  11.946  12.664  1.9130 -0.0138  1.6850
36496SOL    HW216604   7.803  12.015  12.643  2.1410 -1.1585 -1.1702
36497SOL     OW16605   1.622  11.369  12.336 -0.0675 -0.2949  0.1829
36497SOL    HW116606   1.640  11.396  12.426 -1.5087  1.6021 -0.0368
36497SOL    HW216607   1.528  11.380  12.326 -0.0268 -1.1192 -1.3780
36498SOL     OW16608   0.127   3.913   9.706  0.3114 -0.2346  0.6021
36498SOL    HW116609   0.143   3.998   9.665 -2.3322 -0.4035 -1.0175
36498SOL    HW216610   0.175   3.851   9.652  1.1853  0.0792  1.0046
36499SOL     OW16611  12.058   4.753   6.511 -0.7138  0.2428 -0.0867
36499SOL    HW116612  11.969   4.740   6.544  0.0310 -0.1519  1.9304
36499SOL    HW216613  12.066   4.847   6.499 -1.1231  0.3733  0.5982
36500SOL     OW16614  11.035   9.880   5.270 -0.0454 -0.0730 -0.6578
36500SOL    HW116615  11.101   9.817   5.300  0.0537  0.0028 -0.7203
36500SOL    HW216616  11.069   9.965   5.298 -1.2159 -0.2034  1.3957
36501SOL     OW16617   9.097   8.363   8.012 -0.6004 -0.2781 -0.1346
36501SOL    HW116618   9.130   8.452   8.019 -1.0135 -0.2519  2.5169
36501SOL    HW216619   9.007   8.368   8.041 -1.6367 -1.1363 -2.8709
36502SOL     OW16620   3.375   7.452   4.967 -0.7583 -0.3939 -0.1427
36502SOL    HW116621   3.313   7.498   5.023 -0.7083 -0.7513  0.2150
36502SOL    HW216622   3.331   7.370   4.944  0.1010 -1.2902  1.2547
36503SOL     OW16623  11.986   5.605  12.923  0.2294 -0.0808 -0.2254
36503SOL    HW116624  11.973   5.592  13.017 -0.6217 -2.6176 -0.6142
36503SOL    HW216625  12.045   5.534  12.898 -0.6222 -0.2646 -1.8226
36504SOL     OW16626  11.775   8.955  10.501 -0.1542 -0.5523 -0.5197
36504SOL    HW116627  11.786   8.912  10.586 -2.4783 -0.1521  0.0637
36504SOL    HW216628  11.862   8.951  10.460  0.8622 -1.3680  1.5690
36505SOL     OW16629   3.598  10.868   4.196  0.0869  0.1546  0.1971
36505SOL    HW116630   3.567  10.796   4.250  2.7406 -0.3851  1.1380
36505SOL    HW216631   3.661  10.914   4.251  1.6376  0.6130 -1.8484
36506SOL     OW16632   4.260   3.795   9.113  0.2395 -0.2161  0.2993
36506SOL    HW116633   4.285   3.802   9.021  0.8041 -2.1397  0.2606
36506SOL    HW216634   4.343   3.800   9.160 -0.0227  0.4849  0.6994
36507SOL     OW16635  12.296  12.906   2.663  0.2441  0.3702 -0.0710
36507SOL    HW116636  12.236  12.979   2.678 -2.1724 -1.3574 -0.6909
36507SOL    HW216637  12.304  12.900   2.568 -0.4470 -0.8010 -0.0669
36508SOL     OW16638   9.531   4.276   4.781  0.3690 -0.5727  0.3951
36508SOL    HW116639   9.438   4.255   4.781  0.3365 -0.4331  0.4276
36508SOL    HW216640   9.542   4.333   4.705  0.4632 -0.7419  0.2834
36509SOL     OW16641   3.852   6.278   1.788 -0.0917 -0.3636  0.3904
36509SOL    HW116642   3.847   6.185   1.769  0.3562 -0.0766 -1.3460
36509SOL    HW216643   3.779   6.316   1.738 -1.1270  0.0873  2.1757
36510SOL     OW16644  12.001   5.900  12.101  0.3446 -0.4171 -0.1440
36510SOL    HW116645  12.018   5.810  12.073  0.9131 -0.1599 -0.6297
36510SOL    HW216646  11.921   5.925  12.054  1.4671  0.1287 -1.8635
36511SOL     OW16647   0.563   4.548  12.330  0.0829  0.1988  0.1374
36511SOL    HW116648   0.568   4.608  12.405 -1.1790 -0.9481  1.1865
36511SOL    HW216649   0.650   4.507  12.328  0.7190  1.4866 -0.1486
36512SOL     OW16650   7.291   9.960   9.886 -0.3786 -0.3287  0.1920
36512SOL    HW116651   7.343   9.898   9.936  0.0375  0.0456  0.2321
36512SOL    HW216652   7.355  10.012   9.838 -0.7890 -1.4320 -1.6432
36513SOL     OW16653   8.672   6.011   6.849  0.0222 -0.3796 -0.6200
36513SOL    HW116654   8.640   6.094   6.813  2.1170  0.3461 -0.9809
36513SOL    HW216655   8.662   5.949   6.777  0.3575  0.0769 -1.0751
36514SOL     OW16656   7.687   7.966  11.067  0.5070  1.0842 -0.4120
36514SOL    HW116657   7.654   7.985  11.155 -0.9347  0.6749 -0.8500
36514SOL    HW216658   7.707   7.872  11.069  1.2276  1.2307 -0.3010
36515SOL     OW16659  11.715  10.626  10.195 -0.7594 -0.7139  0.0980
36515SOL    HW116660  11.704  10.615  10.100 -1.0614  0.5792 -0.0318
36515SOL    HW216661  11.631  10.601  10.232 -0.8769 -0.5028 -0.0294
36516SOL     OW16662   0.636  10.416   3.353  0.5817  0.1354 -0.4160
36516SOL    HW116663   0.607  10.325   3.344  0.4431  0.2526 -1.3025
36516SOL    HW216664   0.562  10.461   3.394  0.9520 -0.3006  0.7558
36517SOL     OW16665   3.352   2.421   8.869 -0.6983  0.1228 -0.1057
36517SOL    HW116666   3.339   2.384   8.782 -0.0956  0.0047 -0.1467
36517SOL    HW216667   3.268   2.407   8.914 -0.9798  0.1068 -0.6342
36518SOL     OW16668   1.851   8.480   3.613 -0.1131  0.0754 -0.0570
36518SOL    HW116669   1.920   8.470   3.547  0.5084  1.6679  0.3143
36518SOL    HW216670   1.777   8.516   3.564 -0.6216 -1.3820 -0.4026
36519SOL     OW16671   1.537   5.304   9.860  0.2233  0.1189  0.5647
36519SOL    HW116672   1.625   5.331   9.835  1.0447 -1.3800  1.6318
36519SOL    HW216673   1.515   5.359   9.935  0.3937  0.2755  0.4997
36520SOL     OW16674   1.690   1.132   7.928  0.2674  0.0869 -0.2439
36520SOL    HW116675   1.746   1.194   7.882 -0.2510  1.1471  0.5233
36520SOL    HW216676   1.622   1.185   7.969 -0.3483 -1.0110  0.2282
36521SOL     OW16677   8.424  12.352   2.635 -0.3666 -0.3447 -0.0900
36521SOL    HW116678   8.479  12.275   2.621  2.2545  1.0552  1.6531
36521SOL    HW216679   8.460  12.418   2.576 -0.9536  0.2796  0.2389
36522SOL     OW16680   0.168   6.175   6.897 -0.2198  0.1621 -0.5373
36522SOL    HW116681   0.239   6.164   6.961 -0.5873 -0.8827 -0.2791
36522SOL    HW216682   0.099   6.117   6.928 -1.4417  1.6042 -0.4560
36523SOL     OW16683   1.573   3.672   1.820  0.0682 -0.6078  0.6068
36523SOL    HW116684   1.530   3.607   1.874 -1.4243 -1.3976 -1.3952
36523SOL    HW216685   1.667   3.656   1.832 -0.2312 -3.7130 -0.3803
36524SOL     OW16686  12.193  12.118   5.425 -0.5250 -0.0392 -0.5009
36524SOL    HW116687  12.147  12.066   5.491  1.3992 -0.5837  0.4767
36524SOL    HW216688  12.225  12.053   5.363  0.4084  0.1355 -0.2131
36525SOL     OW16689   9.495   4.630   7.514 -0.1544  0.0492 -0.0411
36525SOL    HW116690   9.542   4.647   7.433  1.6583 -0.7328  0.7850
36525SOL    HW216691   9.436   4.558   7.494 -1.4716  1.3862 -1.2374
36526SOL     OW16692   4.915   0.941  12.587 -0.1972  0.2002 -0.2570
36526SOL    HW116693   4.941   0.958  12.496 -0.8612  1.7596 -0.1915
36526SOL    HW216694   4.823   0.915  12.581 -0.1096 -0.1487 -0.0711
36527SOL     OW16695   6.463   3.258   8.350  0.1443 -0.2465  0.3465
36527SOL    HW116696   6.474   3.201   8.274 -0.4612 -0.2151  0.2247
36527SOL    HW216697   6.549   3.295   8.366  0.4826 -0.9796  0.2507
36528SOL     OW16698   8.268   6.849   6.527  0.2002 -0.4166 -0.6906
36528SOL    HW116699   8.358   6.817   6.518  1.0960  1.5766  0.6016
36528SOL    HW216700   8.227   6.785   6.585  2.2912  1.1359  2.8240
36529SOL     OW16701   7.156   0.635   6.938 -0.1077  0.1662  0.6259
36529SOL    HW116702   7.184   0.674   6.854  0.6947 -3.5163 -1.0177
36529SOL    HW216703   7.234   0.641   6.993  0.4487 -0.2958 -0.0871
36530SOL     OW16704   0.833   4.496  11.560 -0.1696 -0.1774  0.9760
36530SOL    HW116705   0.820   4.590  11.547 -3.1631 -0.6548 -0.3946
36530SOL    HW216706   0.755   4.467  11.606 -0.5610 -2.3414 -0.8647
36531SOL     OW16707  10.386   4.128   3.225 -0.1092 -0.5478 -0.1983
36531SOL    HW116708  10.382   4.045   3.177  0.2169 -0.8890  0.3558
36531SOL    HW216709  10.296   4.143   3.254 -0.4146 -0.0803 -1.3312
36532SOL     OW16710   3.644   0.452  12.440 -0.2562  0.3683 -0.1722
36532SOL    HW116711   3.625   0.464  12.347 -0.8700  1.7395  0.0968
36532SOL    HW216712   3.563   0.481  12.485  0.3657  0.6471  0.8089
36533SOL     OW16713   6.315   3.472   8.433  0.1809  0.0241  0.1208
36533SOL    HW116714   6.326   3.394   8.378  0.5352 -1.6782  2.4841
36533SOL    HW216715   6.226   3.502   8.414  0.7169  0.3194 -2.3065
36534SOL     OW16716   5.509   4.065   3.765  0.6896 -0.2297 -0.2352
36534SOL    HW116717   5.459   4.143   3.790 -0.3093 -0.5916 -1.0538
36534SOL    HW216718   5.594   4.077   3.808  0.5465  1.2961 -0.3001
36535SOL     OW16719  12.293   4.809   2.821  0.2949  1.1019 -0.1830
36535SOL    HW116720  12.315   4.900   2.800  0.5278  1.2345  0.6355
36535SOL    HW216721  12.333   4.758   2.750  0.2013  1.6272 -0.6210
36536SOL     OW16722   2.669   2.611   2.118 -0.0296 -0.8888  0.7100
36536SOL    HW116723   2.695   2.580   2.205  0.0780 -3.0906 -0.0433
36536SOL    HW216724   2.749   2.649   2.082  0.4140 -1.6182  0.8980
36537SOL     OW16725   2.140   7.763   2.150 -0.5069 -0.1479  0.0290
36537SOL    HW116726   2.229   7.792   2.164 -0.4521 -1.0707  1.8714
36537SOL    HW216727   2.086   7.841   2.164 -0.0697  0.1534  0.0377
36538SOL     OW16728   3.320   1.046   8.976 -0.5483 -0.5341 -0.0118
36538SOL    HW116729   3.354   1.129   8.943 -1.3234  0.3006  1.1758
36538SOL    HW216730   3.380   1.020   9.046 -0.7407 -0.5516  0.1513
36539SOL     OW16731   2.592   5.012   3.518  0.2082  0.0862  0.2731
36539SOL    HW116732   2.639   5.082   3.472  0.9229  0.0462  0.9133
36539SOL    HW216733   2.601   4.935   3.463 -1.8439  0.8006 -1.1834
36540SOL     OW16734  11.264   5.832   5.590  0.5209 -0.0615  0.1532
36540SOL    HW116735  11.235   5.919   5.620  0.0979  0.0001 -0.4068
36540SOL    HW216736  11.313   5.850   5.510  0.1212 -0.3679 -0.1625
36541SOL     OW16737   7.237   9.028   3.492  0.3033 -0.2147 -0.3371
36541SOL    HW116738   7.246   9.013   3.398  0.4530 -0.9771 -0.2085
36541SOL    HW216739   7.247   9.122   3.503 -0.0773 -0.0804 -1.1249
36542SOL     OW16740  12.951  11.528   4.466 -0.0621 -0.1659  0.1836
36542SOL    HW116741  12.870  11.477   4.464 -0.3263  0.2627 -0.2125
36542SOL    HW216742  12.922  11.619   4.460  0.3912  0.0477  1.1447
36543SOL     OW16743   4.144   5.701   6.717 -0.1054  0.0225 -0.2037
36543SOL    HW116744   4.102   5.669   6.796  0.2042  1.7554  0.7245
36543SOL    HW216745   4.076   5.754   6.674  0.2458  0.5300 -0.1510
36544SOL     OW16746  11.042   8.865   5.722 -0.5212 -0.4017  0.2262
36544SOL    HW116747  10.987   8.810   5.778 -2.3772 -0.3769 -1.4338
36544SOL    HW216748  11.034   8.825   5.635 -0.0826  1.1756 -0.5757
36545SOL     OW16749  10.031  10.006  12.548  0.4692 -0.9959 -0.5570
36545SOL    HW116750  10.083  10.016  12.468  1.3071 -0.0401  0.0764
36545SOL    HW216751   9.944  10.035  12.524  1.5084  2.9799 -0.2936
36546SOL     OW16752   7.755   6.639   0.129 -0.1900  0.2899 -0.1158
36546SOL    HW116753   7.678   6.600   0.170 -0.3354  1.5587  0.9088
36546SOL    HW216754   7.763   6.725   0.170  1.7550  0.2124 -0.2209
36547SOL     OW16755   0.724  12.792   3.017 -0.5300  0.2622 -0.4444
36547SOL    HW116756   0.681  12.712   2.989  2.4481 -0.9991 -1.9047
36547SOL    HW216757   0.793  12.763   3.077  0.3099  1.7884 -0.6183
36548SOL     OW16758   0.185   3.857  11.459  0.4684  0.5090  0.3614
36548SOL    HW116759   0.175   3.940  11.506  0.4643  0.1146  1.0747
36548SOL    HW216760   0.280   3.843  11.455  0.4929  0.8305 -0.2743
36549SOL     OW16761   2.991   5.191   1.297 -0.6865 -0.0462  0.2256
36549SOL    HW116762   3.061   5.216   1.236  0.6241 -0.9302  1.3071
36549SOL    HW216763   2.911   5.224   1.256  0.3373  0.9049 -1.1115
36550SOL     OW16764   0.377   3.468   1.099 -0.0521 -0.0568  0.1977
36550SOL    HW116765   0.457   3.456   1.048  0.4593  2.2561  0.3702
36550SOL    HW216766   0.407   3.495   1.186 -0.9726 -2.0781  1.2118
36551SOL     OW16767   9.528   9.148   3.296 -0.2513 -0.4715 -0.6230
36551SOL    HW116768   9.592   9.202   3.341 -0.5562 -1.6431  1.3493
36551SOL    HW216769   9.579   9.094   3.235  0.2944  0.4101 -0.9635
36552SOL     OW16770  12.062   0.329   1.150 -0.3190  0.1835  0.3910
36552SOL    HW116771  11.993   0.394   1.160 -1.2703 -0.5914 -0.8165
36552SOL    HW216772  12.065   0.312   1.056 -0.0458 -1.4560  0.6664
36553SOL     OW16773   1.962   1.576   9.752 -0.1925  0.6259 -0.1002
36553SOL    HW116774   1.870   1.602   9.743 -0.2479  0.5135  0.1393
36553SOL    HW216775   1.978   1.520   9.676 -0.4802  0.1956  0.1490
36554SOL     OW16776  11.711   2.677   0.528  0.3341  0.2448  0.2022
36554SOL    HW116777  11.649   2.727   0.581  1.1834 -0.9254  2.4348
36554SOL    HW216778  11.658   2.607   0.490  0.1064 -0.3284  1.5164
36555SOL     OW16779   7.715   4.084   5.325 -0.3641  0.3703 -0.2397
36555SOL    HW116780   7.737   4.175   5.305 -0.7624  0.3664 -0.7123
36555SOL    HW216781   7.679   4.086   5.413  0.6444  0.5100  0.1822
36556SOL     OW16782   3.063  12.874   2.244 -0.2435 -0.0293  0.1954
36556SOL    HW116783   3.021  12.797   2.206  0.5546 -1.2587  1.6951
36556SOL    HW216784   2.992  12.937   2.254 -1.3255 -1.2717  0.6837
36557SOL     OW16785  10.188  12.414   3.948  0.1610  0.2719 -0.1591
36557SOL    HW116786  10.140  12.496   3.956  0.0483  0.1666  0.2715
36557SOL    HW216787  10.189  12.378   4.037  0.7434  0.1104 -0.2282
36558SOL     OW16788   9.146   0.473   2.854  0.0124  0.3151 -0.8953
36558SOL    HW116789   9.092   0.550   2.870  2.0418  1.4996  0.7528
36558SOL    HW216790   9.225   0.507   2.812  0.8530 -0.8986 -0.3566
36559SOL     OW16791   0.237   3.082   6.161  0.3394  0.1044  0.0936
36559SOL    HW116792   0.201   2.994   6.151  0.7686  0.1751 -2.7561
36559SOL    HW216793   0.161   3.140   6.156 -0.0312 -0.0455  2.6677
36560SOL     OW16794  11.537  11.185  12.472  0.0600  0.1097  0.3454
36560SOL    HW116795  11.526  11.230  12.555  1.5858 -0.9704  1.1929
36560SOL    HW216796  11.551  11.093  12.496 -0.5270 -0.4110 -1.1705
36561SOL     OW16797   8.903   8.896   4.207 -0.0729 -0.3203  0.3152
36561SOL    HW116798   8.812   8.927   4.202  0.4575  1.1441 -1.2739
36561SOL    HW216799   8.921   8.893   4.301 -1.2048  1.2170  0.6401
36562SOL     OW16800   8.997   5.324  11.263  0.8398  0.1136 -0.6968
36562SOL    HW116801   8.975   5.275  11.183 -1.5219 -0.2112  0.0772
36562SOL    HW216802   9.085   5.293  11.286  0.4201 -1.9375 -1.5953
36563SOL     OW16803   4.856   4.724   0.323  0.7904  0.2709  0.6747
36563SOL    HW116804   4.914   4.785   0.369 -1.1349  2.2474  0.6888
36563SOL    HW216805   4.901   4.704   0.241  1.9408  0.9015  1.1330
36564SOL     OW16806   4.341   5.176  10.975  0.5568  0.2312 -0.1106
36564SOL    HW116807   4.297   5.091  10.966 -0.8503  1.1097 -2.1830
36564SOL    HW216808   4.284   5.227  11.032 -1.2444  1.3014 -2.6382
36565SOL     OW16809   5.098   9.296   2.021 -0.1693 -0.4376 -0.3210
36565SOL    HW116810   5.175   9.349   2.007 -0.5755  0.0247 -0.8522
36565SOL    HW216811   5.064   9.278   1.933 -0.6865 -0.5935 -0.0983
36566SOL     OW16812   6.871   5.021   3.177  0.5200  0.0983  0.5087
36566SOL    HW116813   6.880   4.947   3.236 -2.6508  0.6615  1.8739
36566SOL    HW216814   6.809   4.992   3.110  0.1056  1.1355  0.4161
36567SOL     OW16815   9.172   9.278  10.522  0.1020  0.0612  0.4147
36567SOL    HW116816   9.251   9.270  10.574  0.8528  3.9267  0.1676
36567SOL    HW216817   9.203   9.299  10.434 -1.2232 -2.4888 -0.7773
36568SOL     OW16818  12.939   2.006  10.108  0.6509 -0.3340  0.2626
36568SOL    HW116819  12.845   2.004  10.125  0.6812 -0.6609  0.3909
36568SOL    HW216820  12.958   1.921  10.069  0.9124 -0.3095  0.3378
36569SOL     OW16821   3.256   9.945   2.392  0.1767 -0.3271 -0.1129
36569SOL    HW116822   3.166   9.959   2.419  0.0315 -0.2310 -0.6331
36569SOL    HW216823   3.299   9.908   2.469 -1.0046 -3.2180 -0.6876
36570SOL     OW16824   9.078   6.989   5.396 -0.2551  0.0052 -0.3465
36570SOL    HW116825   9.144   7.024   5.456  0.3341  2.0782 -2.0606
36570SOL    HW216826   9.127   6.932   5.336 -0.4545 -0.3910 -0.1320
36571SOL     OW16827  11.636   5.694   7.650 -0.4758  0.2822  0.1711
36571SOL    HW116828  11.639   5.610   7.605 -0.6758 -0.0391  0.7410
36571SOL    HW216829  11.545   5.702   7.680 -0.6079  0.9781 -0.3861
36572SOL     OW16830  12.849   8.320   2.152  0.1753  0.2458  0.1574
36572SOL    HW116831  12.940   8.297   2.174  0.2673  0.1197 -0.3290
36572SOL    HW216832  12.856   8.374   2.074 -0.0873  1.4779  0.9550
36573SOL     OW16833   3.432   4.279   2.107  0.1640  0.0104  0.0191
36573SOL    HW116834   3.514   4.230   2.112 -0.0128 -0.4666 -1.2945
36573SOL    HW216835   3.448   4.345   2.038 -0.5483 -0.0855 -0.2446
36574SOL     OW16836   7.042  11.816   9.704  0.2867  0.4989  0.6514
36574SOL    HW116837   6.971  11.880   9.713  0.1606  0.5706 -0.6275
36574SOL    HW216838   7.024  11.751   9.772 -2.6089 -0.9606 -1.2786
36575SOL     OW16839   9.257   8.388   0.863  0.0326  0.0004  0.2784
36575SOL    HW116840   9.184   8.360   0.808  0.1172 -1.1381  0.7098
36575SOL    HW216841   9.323   8.420   0.801 -0.4792  0.1882 -0.1747
36576SOL     OW16842   7.440   7.055   5.642 -0.2114 -0.1509  0.6486
36576SOL    HW116843   7.448   6.960   5.654  1.4740 -0.1755 -0.3723
36576SOL    HW216844   7.523   7.091   5.671 -0.6404  0.9803  0.5371
36577SOL     OW16845  10.059  10.811   9.463 -0.4231 -0.1303 -0.0376
36577SOL    HW116846  10.143  10.790   9.504  0.3922  0.5455 -1.3157
36577SOL    HW216847  10.082  10.857   9.382 -1.9875 -1.1693 -1.1354
36578SOL     OW16848  10.497   0.712   4.686  0.1093  0.4651 -0.3209
36578SOL    HW116849  10.490   0.619   4.662 -1.7137  0.1179  1.2855
36578SOL    HW216850  10.587   0.736   4.664  1.4467 -2.3754  1.4813
36579SOL     OW16851   0.602  10.207   9.403 -0.4482  0.1478  0.3529
36579SOL    HW116852   0.626  10.252   9.484  2.2531  0.6570 -0.6390
36579SOL    HW216853   0.602  10.276   9.336 -0.7114 -0.5984 -0.4316
36580SOL     OW16854   0.284  12.142   6.572  0.0784 -0.2152  0.1906
36580SOL    HW116855   0.248  12.230   6.575  0.3872 -0.1057  1.2045
36580SOL    HW216856   0.230  12.092   6.634 -0.4989 -0.9070 -0.8438
36581SOL     OW16857  10.545   4.522   0.950  0.4549 -0.2657  0.0400
36581SOL    HW116858  10.483   4.552   0.883  2.1483  1.9699 -0.6674
36581SOL    HW216859  10.497   4.528   1.032 -0.3432  1.3389 -0.4910
36582SOL     OW16860   9.343   0.995  11.914  0.5061  0.4671 -0.4430
36582SOL    HW116861   9.330   0.971  12.006  0.6279 -0.7890 -0.7315
36582SOL    HW216862   9.438   0.993  11.903  0.4479 -1.4465 -1.0703
36583SOL     OW16863   5.889   8.880  11.435 -0.2139  0.4346 -1.6197
36583SOL    HW116864   5.922   8.842  11.516 -3.0393 -0.1636 -0.6195
36583SOL    HW216865   5.964   8.925  11.397  1.4570 -0.0763  0.8301
36584SOL     OW16866   4.313  11.212   0.440  0.2238  0.3697  0.0946
36584SOL    HW116867   4.224  11.177   0.435  0.2661 -0.1161  1.9104
36584SOL    HW216868   4.358  11.174   0.364 -0.4894 -1.3225  0.4679
36585SOL     OW16869   8.239   8.711   4.057  0.0864 -0.1627  0.1258
36585SOL    HW116870   8.221   8.734   4.148 -0.4718  0.4645 -0.1399
36585SOL    HW216871   8.181   8.766   4.005  0.1113 -0.7964 -0.6059
36586SOL     OW16872  10.814   7.853  10.092 -0.5003  0.3232  0.4988
36586SOL    HW116873  10.749   7.900  10.144  1.1300  2.6834  0.5888
36586SOL    HW216874  10.773   7.841  10.006 -1.3479  1.0038  0.8031
36587SOL     OW16875   0.393   5.618   5.393  0.1624 -0.2428  0.4296
36587SOL    HW116876   0.391   5.644   5.485  0.9797  2.4426 -0.2310
36587SOL    HW216877   0.302   5.626   5.364  0.2788  1.5184  0.4164
36588SOL     OW16878   5.438   9.680   9.857  0.2052 -0.2646  0.3684
36588SOL    HW116879   5.359   9.713   9.816  1.2998 -0.2453 -1.8584
36588SOL    HW216880   5.408   9.642   9.940 -1.9974  0.3639 -0.0780
36589SOL     OW16881  10.639  10.577   7.869 -0.3250 -0.8339 -0.2588
36589SOL    HW116882  10.709  10.598   7.930  0.0475 -1.5158 -0.4357
36589SOL    HW216883  10.582  10.517   7.917 -1.4354  0.6129  0.2805
36590SOL     OW16884   4.044   7.022   1.532 -0.1073  0.3990 -0.0344
36590SOL    HW116885   4.025   7.040   1.440  0.4905  0.4159 -0.1590
36590SOL    HW216886   4.018   7.102   1.578 -1.2798  0.0581 -0.0548
36591SOL     OW16887   7.431   4.373  10.983  0.7381 -0.0042 -0.4612
36591SOL    HW116888   7.382   4.297  10.951  1.5726 -1.5072  1.5918
36591SOL    HW216889   7.514   4.369  10.935  0.0440  0.8353 -1.8025
36592SOL     OW16890  11.519  12.423   1.268 -0.2289 -0.1406 -0.2330
36592SOL    HW116891  11.484  12.424   1.357  2.6531 -1.1131  1.0356
36592SOL    HW216892  11.468  12.489   1.222 -1.9519  0.2814  2.0698
36593SOL     OW16893  11.869  11.455   2.411  0.1612 -0.0101  0.0401
36593SOL    HW116894  11.845  11.547   2.417 -1.4950 -0.4147  0.1653
36593SOL    HW216895  11.860  11.433   2.318 -0.3819 -0.2636  0.1471
36594SOL     OW16896  10.847   3.666  12.420 -0.2443 -0.5880  0.9087
36594SOL    HW116897  10.817   3.748  12.457 -1.7898  0.8827 -3.0828
36594SOL    HW216898  10.769   3.611  12.416 -0.6816  0.1142 -1.8923
36595SOL     OW16899  10.485  11.368  12.215  0.2432 -0.2747  0.6679
36595SOL    HW116900  10.422  11.349  12.145  1.8766 -0.9783 -0.6826
36595SOL    HW216901  10.525  11.451  12.190  0.8344 -0.5234  0.7644
36596SOL     OW16902  11.641   5.783   4.773 -0.3237  0.4324  0.2928
36596SOL    HW116903  11.592   5.708   4.740  1.6358 -0.2104 -1.2843
36596SOL    HW216904  11.608   5.858   4.723 -0.6576  0.2444  0.2321
36597SOL     OW16905   9.754   0.113   3.026  0.5077 -0.4136 -0.5069
36597SOL    HW116906   9.684   0.070   2.977 -0.3720  0.0983  0.2420
36597SOL    HW216907   9.720   0.117   3.116  1.4670 -0.0655 -0.1509
36598SOL     OW16908   9.500  11.391   6.450  0.5046  0.3626  0.2735
36598SOL    HW116909   9.553  11.452   6.501 -0.3632  0.6834  0.8192
36598SOL    HW216910   9.428  11.444   6.416 -0.1709 -0.3029  0.6178
36599SOL     OW16911   3.692  12.733   0.032 -0.5905 -0.0597 -0.2002
36599SOL    HW116912   3.650  12.817   0.014 -0.2178  0.5440  1.5075
36599SOL    HW216913   3.618  12.672   0.041 -0.8940  0.1884 -0.9425
36600SOL     OW16914  11.980   6.072   9.568  0.1842 -0.2875 -0.0736
36600SOL    HW116915  11.975   6.027   9.652  1.0398 -3.1914 -1.4485
36600SOL    HW216916  12.069   6.107   9.564  0.0896 -0.0088  0.3002
36601SOL     OW16917   8.334   7.600   1.775 -0.5001 -0.6378 -0.2935
36601SOL    HW116918   8.326   7.581   1.682 -0.8500  0.7986 -0.5834
36601SOL    HW216919   8.415   7.651   1.782 -2.2669  2.4123 -0.4155
36602SOL     OW16920  10.027  10.417  11.881  0.0843  0.5333 -0.3022
36602SOL    HW116921  10.108  10.379  11.848 -0.7990 -2.7848  0.9742
36602SOL    HW216922   9.957  10.370  11.835 -1.0992  0.3892  1.5301
36603SOL     OW16923   3.334   5.044   7.257 -0.4891 -0.0051  0.4480
36603SOL    HW116924   3.264   5.015   7.316 -0.1748 -0.3499  0.6541
36603SOL    HW216925   3.290   5.099   7.193 -1.6794 -3.3105 -1.8250
36604SOL     OW16926   5.564  12.921  11.661  0.1571 -0.5437 -0.3746
36604SOL    HW116927   5.575  12.858  11.732 -2.0663 -0.1055  0.4582
36604SOL    HW216928   5.567  13.007  11.704  1.0574 -0.1673 -1.1695
36605SOL     OW16929  10.917   6.580   5.973 -0.0843 -0.1131  0.2279
36605SOL    HW116930  10.980   6.634   5.927 -0.1418 -0.6224 -0.4610
36605SOL    HW216931  10.842   6.637   5.988  0.4253  0.4232  0.8349
36606SOL     OW16932   5.775   4.005  10.841  0.1731  0.1734  0.1877
36606SOL    HW116933   5.752   4.097  10.855  1.1842  0.4735 -0.0351
36606SOL    HW216934   5.723   3.958  10.906 -1.4085  0.7445 -0.5958
36607SOL     OW16935  10.355  12.920   5.701  0.1093 -0.5804  0.4973
36607SOL    HW116936  10.355  13.011   5.732 -0.0650 -0.7074  0.8805
36607SOL    HW216937  10.372  12.926   5.607 -0.4306 -0.1152  0.4246
36608SOL     OW16938  10.798   5.852   6.055  0.4763  0.2799  0.4122
36608SOL    HW116939  10.708   5.883   6.060 -1.4922 -4.6388  0.5046
36608SOL    HW216940  10.819   5.855   5.961 -0.7679 -0.7003  0.0697
36609SOL     OW16941   1.745   3.562   8.442  0.2711  0.4834  0.0384
36609SOL    HW116942   1.718   3.536   8.530 -3.2774 -0.7398 -1.2446
36609SOL    HW216943   1.732   3.657   8.440  0.0898  0.4752  0.7476
36610SOL     OW16944   4.250   2.320   8.849 -0.0897  0.8125 -0.5007
36610SOL    HW116945   4.268   2.411   8.870  0.4203  0.1494  2.4242
36610SOL    HW216946   4.305   2.301   8.773  0.5194  2.6853 -0.5636
36611SOL     OW16947   9.126   9.722  11.289  0.2744 -0.6784 -0.0662
36611SOL    HW116948   9.043   9.749  11.250  0.7772 -0.3418 -0.9304
36611SOL    HW216949   9.190   9.736  11.220  1.9908  4.1726  2.0832
36612SOL     OW16950  11.757   9.040   6.110 -0.5598 -0.2071  0.6367
36612SOL    HW116951  11.778   8.995   6.028 -1.4813 -0.7356  0.6825
36612SOL    HW216952  11.735   9.129   6.083 -2.7811 -0.8704  0.0481
36613SOL     OW16953  10.246  10.543   5.623  0.2301  0.4861 -0.6620
36613SOL    HW116954  10.241  10.543   5.527 -3.2024  1.8699 -0.6310
36613SOL    HW216955  10.271  10.633   5.646  1.3507  0.0804 -0.2228
36614SOL     OW16956   2.482  12.890   4.296 -0.3833  0.6409 -0.9442
36614SOL    HW116957   2.478  12.985   4.295  1.1403  0.7158 -1.6461
36614SOL    HW216958   2.536  12.868   4.372  0.2586  0.3856 -1.4695
36615SOL     OW16959   8.977  10.334   3.982 -0.0417  0.0627 -0.3216
36615SOL    HW116960   8.988  10.392   3.907 -0.7199  0.2104 -0.3152
36615SOL    HW216961   9.001  10.247   3.949  0.0657  0.1965 -0.5968
36616SOL     OW16962   8.253   9.253   7.070 -0.3470  0.5388 -0.3623
36616SOL    HW116963   8.208   9.251   6.986  1.9486 -0.0188 -1.6458
36616SOL    HW216964   8.279   9.345   7.080  1.3150  0.2199 -1.4023
36617SOL     OW16965  12.095   7.007   4.856  0.1965 -0.4299  0.0216
36617SOL    HW116966  12.066   6.921   4.826  0.4426 -0.7401  0.6568
36617SOL    HW216967  12.069   7.010   4.949 -0.8582  0.6429 -0.2857
36618SOL     OW16968   6.163   8.835   0.176 -0.3625 -0.1325  0.1500
36618SOL    HW116969   6.208   8.842   0.091 -0.7217  3.4016  0.0783
36618SOL    HW216970   6.168   8.924   0.212 -4.4377 -0.3088  1.6161
36619SOL     OW16971   6.888   1.620  10.869 -0.3506 -0.1500 -0.2272
36619SOL    HW116972   6.884   1.572  10.786 -0.8217 -0.6135  0.0627
36619SOL    HW216973   6.866   1.555  10.936 -0.2917  0.2987  0.2321
36620SOL     OW16974   6.177   5.301   4.609 -0.1564 -0.3816 -0.5433
36620SOL    HW116975   6.262   5.336   4.636 -0.7237  0.2182  0.5023
36620SOL    HW216976   6.139   5.266   4.689 -1.2565  0.1378 -0.8216
36621SOL     OW16977   3.177   3.536   9.513  0.1125  0.3790 -0.1802
36621SOL    HW116978   3.092   3.543   9.557  0.1850  2.0425 -0.2187
36621SOL    HW216979   3.156   3.501   9.427 -0.3258 -0.7077  0.3492
36622SOL     OW16980   8.321   6.886   4.735 -0.2830  0.4692  0.2270
36622SOL    HW116981   8.334   6.918   4.825 -0.5232  1.2982 -0.0219
36622SOL    HW216982   8.337   6.963   4.680  2.8031 -0.6808 -0.6823
36623SOL     OW16983   1.702   4.331  11.452 -0.0692  0.0735  0.4703
36623SOL    HW116984   1.773   4.271  11.429 -0.9890 -1.2847  1.0408
36623SOL    HW216985   1.623   4.277  11.449 -0.9435  1.2761  0.9622
36624SOL     OW16986  12.682   2.481   6.785 -0.4833 -0.4786  0.1623
36624SOL    HW116987  12.687   2.416   6.715  0.7196  2.0032 -2.2036
36624SOL    HW216988  12.600   2.528   6.769 -0.2583  0.0409  0.5207
36625SOL     OW16989   1.479  10.134   9.288 -0.2963 -0.0041  0.5640
36625SOL    HW116990   1.527  10.051   9.291 -1.4975 -0.7828 -0.8405
36625SOL    HW216991   1.470  10.160   9.380  1.8785 -0.3436  0.9310
36626SOL     OW16992   6.417  12.765  12.520 -0.7232  0.4496 -0.8111
36626SOL    HW116993   6.404  12.860  12.526 -0.7374  0.4117 -0.2073
36626SOL    HW216994   6.374  12.741  12.438 -0.6250  0.9798 -1.0246
36627SOL     OW16995   3.195   5.748  10.647  0.1872  0.6285  0.0465
36627SOL    HW116996   3.143   5.695  10.587 -1.3906  1.5492  0.5615
36627SOL    HW216997   3.285   5.715  10.637 -0.5630 -1.3605 -0.4612
36628SOL     OW16998   0.673   3.022  11.856  1.2009 -0.0110 -0.1229
36628SOL    HW116999   0.764   3.043  11.833  1.6204 -1.4334  0.1451
36628SOL    HW217000   0.631   3.001  11.772  1.3255 -0.0721 -0.1704
36629SOL     OW17001   7.443  10.137  11.448 -0.3202  0.3053  0.4017
36629SOL    HW117002   7.374  10.077  11.478 -1.0096 -0.2140 -1.9904
36629SOL    HW217003   7.500  10.083  11.394 -0.0420  1.4725 -0.5133
36630SOL     OW17004  12.693   6.079   4.036 -0.9417 -0.1652 -0.1390
36630SOL    HW117005  12.685   5.994   4.081  1.6729  0.0366  0.8923
36630SOL    HW217006  12.763   6.066   3.972 -0.1160  1.3356  0.4156
36631SOL     OW17007   0.658   4.251   3.841  0.3875 -0.0006  0.0430
36631SOL    HW117008   0.701   4.175   3.805  0.7543  0.9139 -1.5424
36631SOL    HW217009   0.725   4.319   3.843 -0.2589  0.6556  0.1800
36632SOL     OW17010  11.446   0.339   5.255  0.1890 -0.0866  0.7102
36632SOL    HW117011  11.530   0.383   5.248  0.3006  0.1111  2.6941
36632SOL    HW217012  11.460   0.270   5.320 -1.4353  0.6516  1.9069
36633SOL     OW17013   6.026   7.491   8.818 -0.4793  0.2344 -0.3527
36633SOL    HW117014   6.077   7.490   8.899 -0.6733 -0.5296 -0.2242
36633SOL    HW217015   6.079   7.540   8.756 -0.5134  1.1945  0.3510
36634SOL     OW17016  11.182   3.328   0.835 -0.0153 -0.8127 -0.5191
36634SOL    HW117017  11.227   3.407   0.863 -1.9989  0.6806 -1.3639
36634SOL    HW217018  11.115   3.358   0.774 -3.2203 -2.6838  1.7652
36635SOL     OW17019  11.770   6.850   4.728 -0.1608  0.2201 -0.4395
36635SOL    HW117020  11.728   6.873   4.811  1.5094 -0.1800  0.5413
36635SOL    HW217021  11.749   6.924   4.670  0.1017  1.3503  0.8492
36636SOL     OW17022   1.244  10.354   8.217 -0.1356 -0.0909 -0.3015
36636SOL    HW117023   1.226  10.425   8.155  0.5351  0.6828  0.3700
36636SOL    HW217024   1.248  10.397   8.302  0.8969 -0.8463  0.0459
36637SOL     OW17025   6.066   7.571   2.248  0.3005 -0.7183 -0.3885
36637SOL    HW117026   6.014   7.650   2.234 -0.3333 -1.1711 -0.6220
36637SOL    HW217027   6.157   7.601   2.241  0.0628 -0.0586 -0.7337
36638SOL     OW17028   4.750   7.981   4.444  0.4126 -0.4806  0.0080
36638SOL    HW117029   4.751   8.074   4.419 -0.7095 -0.8503 -1.6142
36638SOL    HW217030   4.842   7.958   4.452  0.7099  1.0632  1.7198
36639SOL     OW17031   8.003   9.571   6.192  0.2486 -0.4641  0.3856
36639SOL    HW117032   8.053   9.523   6.125 -0.4610  1.7295 -1.8897
36639SOL    HW217033   8.067   9.627   6.234  0.7050 -1.8723  1.6620
36640SOL     OW17034  12.467   5.769   2.437  0.1650  0.2616 -0.5047
36640SOL    HW117035  12.540   5.813   2.394  0.0636  1.2069  0.2648
36640SOL    HW217036  12.404   5.839   2.456 -1.1656 -0.5909 -1.5555
36641SOL     OW17037   0.988   5.882   8.029 -0.1692  0.1882  0.2091
36641SOL    HW117038   0.983   5.838   8.114 -0.9581  0.0481  0.1071
36641SOL    HW217039   1.007   5.973   8.049 -1.6796  0.4398  0.6420
36642SOL     OW17040  10.677   9.239   1.282  0.0185 -0.0274  0.0954
36642SOL    HW117041  10.693   9.300   1.210  0.6361 -1.7589 -1.2969
36642SOL    HW217042  10.584   9.248   1.301 -0.4102 -0.3079 -1.6824
36643SOL     OW17043   1.796  12.835  12.398  0.5007 -0.2534  0.1911
36643SOL    HW117044   1.730  12.819  12.465 -0.0496  1.1627  0.0035
36643SOL    HW217045   1.802  12.930  12.390 -0.2581 -0.3353 -2.5303
36644SOL     OW17046   1.604   2.422   9.359 -0.4508 -0.0578 -0.4418
36644SOL    HW117047   1.580   2.476   9.435  0.4335 -0.3814  0.0795
36644SOL    HW217048   1.522   2.379   9.334 -0.9447  0.7174 -0.2223
36645SOL     OW17049   1.861   6.732   3.950  0.1033 -0.3685  0.3963
36645SOL    HW117050   1.844   6.819   3.986  0.7869 -0.0580  0.0019
36645SOL    HW217051   1.795   6.676   3.989 -0.9847  0.5245 -0.1087
36646SOL     OW17052   6.424   9.199   9.986  0.1534  0.6302  0.3259
36646SOL    HW117053   6.377   9.217   9.905  1.4609  0.4428 -0.5113
36646SOL    HW217054   6.456   9.285  10.014  3.4082  0.2878 -1.7805
36647SOL     OW17055   1.587   7.611   2.850 -0.1252  0.2868 -0.1150
36647SOL    HW117056   1.607   7.552   2.923  0.4006  0.6944  0.0746
36647SOL    HW217057   1.492   7.605   2.840  0.0973 -2.5471 -1.7510
36648SOL     OW17058   9.484   9.183   4.135  0.1063  0.2921  0.2615
36648SOL    HW117059   9.576   9.205   4.141 -0.1021  1.0123  0.8900
36648SOL    HW217060   9.483   9.093   4.102  1.1543 -1.1798  3.8501
36649SOL     OW17061  12.951   7.501  12.027 -0.8166  0.7169 -0.7273
36649SOL    HW117062  12.997   7.571  12.074 -0.0885 -0.4004  0.2695
36649SOL    HW217063  13.021   7.446  11.991 -1.3598  1.1872 -2.6217
36650SOL     OW17064   6.857   8.597   3.628 -0.4704 -0.3638  0.6160
36650SOL    HW117065   6.912   8.518   3.627 -0.8034 -0.6447 -1.8477
36650SOL    HW217066   6.914   8.666   3.594 -1.0964 -0.2775 -0.2896
36651SOL     OW17067  10.016   2.872   3.976  0.2301 -0.2057 -0.4271
36651SOL    HW117068  10.094   2.837   3.933 -0.8696  0.0440 -2.7651
36651SOL    HW217069   9.971   2.794   4.009  0.9380 -0.4281  0.0483
36652SOL     OW17070   2.801   6.555   3.318  0.0683  0.0078 -0.6189
36652SOL    HW117071   2.824   6.555   3.225  0.7684  0.2741 -0.4538
36652SOL    HW217072   2.857   6.487   3.356  1.5058  1.4687 -0.0055
36653SOL     OW17073   1.768   5.529   6.275  0.3078  0.1605 -0.4451
36653SOL    HW117074   1.853   5.520   6.319 -0.6073  1.1878  1.6455
36653SOL    HW217075   1.725   5.601   6.321 -0.7745  1.2924 -3.0439
36654SOL     OW17076  10.080   8.037   4.483 -0.3695 -0.3351  0.0042
36654SOL    HW117077  10.025   7.982   4.427 -0.7494  1.0187 -0.9879
36654SOL    HW217078  10.044   8.125   4.474  1.2039  0.3742  0.3207
36655SOL     OW17079   4.700   0.463   5.156  0.2569 -0.0406 -0.5189
36655SOL    HW117080   4.709   0.447   5.062  2.5735  1.7532 -0.6767
36655SOL    HW217081   4.741   0.547   5.170  1.9496 -1.2272  2.4334
36656SOL     OW17082   7.927   6.886   8.077  0.0849  0.1347  1.0122
36656SOL    HW117083   7.988   6.954   8.106  0.7894  0.1833 -0.5249
36656SOL    HW217084   7.977   6.831   8.017 -1.6659  0.9326 -1.3525
36657SOL     OW17085   8.237  11.102   8.811  0.5375  0.0614 -0.1748
36657SOL    HW117086   8.197  11.025   8.772  0.9871 -0.0351 -0.4593
36657SOL    HW217087   8.285  11.143   8.739  0.3492  0.5729 -0.0121
36658SOL     OW17088   9.582   6.393   1.453  0.4031  0.2948 -0.2490
36658SOL    HW117089   9.664   6.415   1.408  0.1105  3.3975  0.4821
36658SOL    HW217090   9.514   6.438   1.404 -0.4753  0.2400  0.8708
36659SOL     OW17091   3.233   8.207   7.346  0.6159  0.1119  0.3706
36659SOL    HW117092   3.143   8.212   7.378 -0.2102 -2.0563 -1.3310
36659SOL    HW217093   3.285   8.195   7.426 -0.8730 -0.8494  1.2746
36660SOL     OW17094   0.684   9.547   2.144 -0.4270 -0.8306 -0.0294
36660SOL    HW117095   0.636   9.630   2.149  1.2121  0.2614 -1.2007
36660SOL    HW217096   0.762   9.568   2.093  0.5575 -2.8787  0.5340
36661SOL     OW17097   1.743  12.293   3.219  0.2386  0.1810  0.4300
36661SOL    HW117098   1.793  12.362   3.263 -1.0482 -0.1039  2.4825
36661SOL    HW217099   1.651  12.314   3.238 -0.2752 -0.9364 -0.7098
36662SOL     OW17100   5.266   9.233  11.640  0.6561 -0.2664 -0.5412
36662SOL    HW117101   5.309   9.151  11.662  1.8737  0.1117 -1.3971
36662SOL    HW217102   5.288   9.292  11.712 -0.2892 -0.6991  0.1156
36663SOL     OW17103   7.292  12.945  11.248  0.0671  0.0473  0.4894
36663SOL    HW117104   7.238  13.018  11.278  0.6924  0.7538 -0.0416
36663SOL    HW217105   7.232  12.872  11.239 -0.6055  0.5406  0.8725
36664SOL     OW17106   9.618   1.088   1.242  0.0065  0.3057 -0.9596
36664SOL    HW117107   9.710   1.073   1.221 -0.2472  1.3962 -3.1436
36664SOL    HW217108   9.580   1.000   1.245  1.3005 -0.2778  1.3565
36665SOL     OW17109   7.104   7.531  10.713 -0.0072  0.0653 -0.2465
36665SOL    HW117110   7.166   7.537  10.641 -0.9656  0.7420 -1.0438
36665SOL    HW217111   7.158   7.511  10.790  1.0582 -0.4226 -1.0902
36666SOL     OW17112  12.546   6.045   5.044 -0.0003 -0.3204  0.7886
36666SOL    HW117113  12.627   5.996   5.054 -0.4554 -1.8178 -1.7727
36666SOL    HW217114  12.572   6.128   5.004  0.2579 -1.1907 -0.9431
36667SOL     OW17115   7.079  12.839   2.817  0.1046 -0.0285  0.1610
36667SOL    HW117116   6.992  12.823   2.781 -0.8450  0.9234  1.8965
36667SOL    HW217117   7.139  12.814   2.747 -1.5720 -0.0448 -1.3347
36668SOL     OW17118   0.508   7.501   1.723 -0.0559 -0.2729 -0.4953
36668SOL    HW117119   0.559   7.582   1.725 -0.5016  0.0324 -0.9783
36668SOL    HW217120   0.429   7.522   1.774 -0.0535 -0.4853 -0.4053
36669SOL     OW17121   4.926   9.806   1.202  0.5762  0.3341  0.0638
36669SOL    HW117122   4.834   9.788   1.222  0.5682  0.1584 -0.1341
36669SOL    HW217123   4.934   9.789   1.109  0.3821  2.1022 -0.3169
36670SOL     OW17124   3.948   5.347   0.843 -0.2475 -0.1243 -0.0093
36670SOL    HW117125   3.873   5.406   0.844 -0.5953 -0.5086 -1.2452
36670SOL    HW217126   3.922   5.274   0.899 -0.7122 -0.1482 -0.2563
36671SOL     OW17127   7.314   8.540   1.838 -0.1157  0.8209  0.1483
36671SOL    HW117128   7.321   8.634   1.853 -0.4950  1.0545 -1.0337
36671SOL    HW217129   7.232   8.530   1.790  0.9350  0.1336 -1.5958
36672SOL     OW17130   8.520   9.483  12.858 -0.3018 -0.1807 -0.1893
36672SOL    HW117131   8.590   9.515  12.801 -0.8425  0.1928 -0.6627
36672SOL    HW217132   8.456   9.444  12.798 -0.7598 -0.0194  0.1851
36673SOL     OW17133   4.548   8.263   2.351  0.7335  0.2926 -0.3451
36673SOL    HW117134   4.635   8.298   2.333  0.2469  0.7499 -1.8994
36673SOL    HW217135   4.519   8.226   2.268 -1.4782  2.1424 -0.4725
36674SOL     OW17136  12.232   7.039  12.053 -0.1341  0.5992 -0.1726
36674SOL    HW117137  12.278   7.094  12.117 -0.9021  1.4044 -0.2927
36674SOL    HW217138  12.173   7.100  12.008 -0.5676 -0.2207 -0.7240
36675SOL     OW17139  10.346  10.134   7.305 -0.0127  0.8013  0.2911
36675SOL    HW117140  10.368  10.084   7.384 -0.4610 -0.3361 -0.2823
36675SOL    HW217141  10.256  10.109   7.286 -0.0882  1.4905 -0.2815
36676SOL     OW17142   0.678   1.787   4.288  0.0226  0.9476  0.3138
36676SOL    HW117143   0.672   1.698   4.254  2.1686  0.7112  0.4733
36676SOL    HW217144   0.716   1.838   4.217  1.5852  1.0974  1.2087
36677SOL     OW17145   3.305   3.779   9.556 -0.4159 -1.6477 -0.2169
36677SOL    HW117146   3.398   3.763   9.538 -0.4467 -2.6109  0.4254
36677SOL    HW217147   3.259   3.709   9.511 -0.7768 -1.6285  0.1208
36678SOL     OW17148   6.507   5.927   1.011  0.2893 -0.0575  0.3309
36678SOL    HW117149   6.438   5.938   0.946  1.6646  0.1349 -1.1581
36678SOL    HW217150   6.538   6.016   1.028 -0.6899  0.0069  2.0306
36679SOL     OW17151   6.932   2.053  11.294  0.0543 -0.2011  0.2001
36679SOL    HW117152   6.986   2.111  11.240  2.2621 -0.5438  1.8817
36679SOL    HW217153   6.886   2.112  11.353 -0.5351  0.0228 -0.4677
36680SOL     OW17154   4.876  12.498   3.117 -0.4361 -0.1191  0.1631
36680SOL    HW117155   4.882  12.583   3.073 -1.0021  1.1875  2.4209
36680SOL    HW217156   4.783  12.485   3.131 -0.3036 -0.6844  0.5624
36681SOL     OW17157   4.093   1.023   6.835  0.0800  0.2349 -0.4532
36681SOL    HW117158   4.083   1.081   6.760  0.6084  0.7349 -0.1511
36681SOL    HW217159   4.032   0.952   6.819  1.8010 -0.8966 -2.5273
36682SOL     OW17160   5.961   5.491   1.540 -0.0949  0.6592 -0.0339
36682SOL    HW117161   5.956   5.577   1.581 -1.6343  1.6964 -2.2644
36682SOL    HW217162   6.039   5.451   1.580  0.5179  2.9485  1.2566
36683SOL     OW17163   4.898   2.523   1.564  0.0434  0.0270  0.0450
36683SOL    HW117164   4.854   2.541   1.647 -1.2760 -2.0570 -0.1367
36683SOL    HW217165   4.864   2.589   1.503  0.4747  1.1102  0.9507
36684SOL     OW17166   7.005   0.914   2.318 -0.0024  0.3386  0.0107
36684SOL    HW117167   7.015   0.875   2.231 -0.3531 -0.4932  0.3237
36684SOL    HW217168   6.984   1.005   2.301  0.2164  0.2562 -0.7726
36685SOL     OW17169   5.234   9.684  11.381  0.0445  0.3401 -0.1435
36685SOL    HW117170   5.211   9.771  11.414  1.3766  1.0983 -1.1309
36685SOL    HW217171   5.310   9.657  11.433 -0.5190 -0.3633  0.3345
36686SOL     OW17172  10.273   9.600   6.653  0.3888 -0.6670  0.1966
36686SOL    HW117173  10.312   9.515   6.632  1.5221 -0.2239  0.4372
36686SOL    HW217174  10.221   9.584   6.731  0.3669 -1.2067  0.0723
36687SOL     OW17175  12.842   2.940  12.936  0.0539 -0.5848  0.1780
36687SOL    HW117176  12.786   3.018  12.939 -0.0516 -0.2641 -4.1045
36687SOL    HW217177  12.929   2.973  12.955  0.3190  1.1517 -3.2664
36688SOL     OW17178  12.156   9.283   7.715  0.1349 -0.0348  0.3837
36688SOL    HW117179  12.168   9.240   7.631  0.3213 -1.5139  1.1268
36688SOL    HW217180  12.079   9.338   7.704  1.2258  1.2194 -1.2741
36689SOL     OW17181   4.890   3.495   3.774 -0.5135  0.1903  0.7801
36689SOL    HW117182   4.946   3.477   3.699 -0.9996 -0.0789  0.4720
36689SOL    HW217183   4.944   3.548   3.833 -0.5798  1.6409 -0.4055
36690SOL     OW17184   6.162   3.880  11.380 -0.4043 -0.2725  0.5315
36690SOL    HW117185   6.242   3.914  11.339 -0.7573  0.3780  0.3687
36690SOL    HW217186   6.110   3.848  11.306  0.1488 -1.6908  0.7238
36691SOL     OW17187  10.566  11.451   6.024 -0.2077 -0.0247  0.1488
36691SOL    HW117188  10.604  11.529   6.064  0.7634 -1.2283  1.7177
36691SOL    HW217189  10.486  11.435   6.074 -0.6994  0.2617 -0.5329
36692SOL     OW17190   5.384   4.301   4.690  0.5849 -0.6297  0.4346
36692SOL    HW117191   5.328   4.224   4.686 -1.5290  0.8638 -0.4372
36692SOL    HW217192   5.398   4.326   4.598 -0.0610  0.8738  0.7141
36693SOL     OW17193   1.394   2.981   9.465 -0.1735 -0.3273 -0.1679
36693SOL    HW117194   1.315   3.015   9.508 -0.2993 -0.1850 -0.5128
36693SOL    HW217195   1.449   3.059   9.454 -0.4122 -0.2524 -0.8541
36694SOL     OW17196  11.343  11.827   8.224 -0.0450 -0.3909  0.2446
36694SOL    HW117197  11.354  11.892   8.154 -0.5417  0.1392  0.6493
36694SOL    HW217198  11.262  11.782   8.201 -0.3934  0.0189  0.6607
36695SOL     OW17199  11.390  10.240   2.780 -0.3004  0.5183 -0.1004
36695SOL    HW117200  11.421  10.189   2.705  1.6657  2.2988 -0.5855
36695SOL    HW217201  11.417  10.330   2.760 -0.9953  1.2597  2.0932
36696SOL     OW17202   3.251   5.230  10.658 -0.2094 -0.2270 -0.0837
36696SOL    HW117203   3.272   5.140  10.632  0.1642 -0.4296  0.8688
36696SOL    HW217204   3.160   5.225  10.688 -0.7205  0.0566 -1.5154
36697SOL     OW17205   4.831   4.590   2.173  0.5348  0.6407 -0.8021
36697SOL    HW117206   4.823   4.585   2.269 -0.0563 -1.6742 -0.9098
36697SOL    HW217207   4.900   4.527   2.152  2.3170  2.7827 -1.7974
36698SOL     OW17208   4.731   0.614   0.851  0.1923 -0.3888  0.2176
36698SOL    HW117209   4.640   0.595   0.828  0.7114 -2.4209 -0.3745
36698SOL    HW217210   4.782   0.557   0.793  1.8956  1.3268 -0.0577
36699SOL     OW17211  12.711   2.330   0.417 -0.1086  0.0304 -0.2477
36699SOL    HW117212  12.758   2.257   0.377  3.0234  1.3333  0.8226
36699SOL    HW217213  12.703   2.395   0.346  1.5698  0.5940  0.0376
36700SOL     OW17214   4.615  12.663   9.971  0.3249  0.1425 -0.2367
36700SOL    HW117215   4.565  12.628  10.045 -0.5667  0.7251 -0.5421
36700SOL    HW217216   4.702  12.624   9.981  0.0082 -0.3875  0.6834
36701SOL     OW17217   5.751   0.754   3.819 -0.4015  0.0941  0.5488
36701SOL    HW117218   5.688   0.743   3.747  1.2264 -1.8817 -0.7056
36701SOL    HW217219   5.716   0.826   3.871 -2.1551  1.0090 -1.7108
36702SOL     OW17220   9.497  10.433   0.349 -0.7990  0.2020 -0.0643
36702SOL    HW117221   9.460  10.515   0.382  1.6892  1.7377 -0.7514
36702SOL    HW217222   9.592  10.445   0.359 -0.3556 -3.1500  0.9653
36703SOL     OW17223   9.498   7.164  10.696 -0.0341  0.7357 -0.0840
36703SOL    HW117224   9.472   7.193  10.784 -0.8681 -1.4108  0.4192
36703SOL    HW217225   9.497   7.069  10.700 -0.0387  0.5747 -2.4340
36704SOL     OW17226   2.534   1.467   1.236 -0.7335 -0.0695  0.2302
36704SOL    HW117227   2.480   1.396   1.272 -1.0915  0.4110  0.6548
36704SOL    HW217228   2.612   1.469   1.291 -0.5780 -0.3382  0.0212
36705SOL     OW17229   5.169   5.238   1.949 -0.1095  0.1700  0.3397
36705SOL    HW117230   5.088   5.188   1.943  1.0922 -1.9092  0.5522
36705SOL    HW217231   5.172   5.290   1.869  0.1344 -2.5989 -1.5847
36706SOL     OW17232   1.807   9.761   0.404  0.0362  0.3207 -0.0296
36706SOL    HW117233   1.723   9.719   0.386 -1.1236  2.3524  0.2612
36706SOL    HW217234   1.857   9.750   0.323 -0.6155 -0.6597 -0.3170
36707SOL     OW17235   8.800   0.273   2.655  0.3782  0.4311 -0.6450
36707SOL    HW117236   8.749   0.350   2.629 -0.4747  0.9537  2.2150
36707SOL    HW217237   8.743   0.199   2.634 -1.3185  0.9633  1.7133
36708SOL     OW17238   3.988   0.455   9.361  0.4337 -0.0738  0.0425
36708SOL    HW117239   3.961   0.541   9.391  0.4428 -0.1626  0.3085
36708SOL    HW217240   4.071   0.471   9.316 -0.5480  0.3533 -1.7057
36709SOL     OW17241   3.751   7.999  10.280  0.0902  0.6334  0.7227
36709SOL    HW117242   3.816   7.956  10.224  0.0440  1.3099  0.1331
36709SOL    HW217243   3.687   7.931  10.300 -0.2680  0.5407 -0.6309
36710SOL     OW17244  12.444   6.198   1.234  0.6828  0.2300 -0.2108
36710SOL    HW117245  12.401   6.166   1.155  0.3817 -2.8428  1.0476
36710SOL    HW217246  12.372   6.227   1.290  0.4311 -1.8359  0.6159
36711SOL     OW17247   7.734   1.521   0.256 -0.1626  0.1704 -0.1128
36711SOL    HW117248   7.730   1.426   0.265 -2.5163  0.2704  0.4632
36711SOL    HW217249   7.688   1.555   0.333  1.0651  1.8291 -0.0401
36712SOL     OW17250   1.359   2.941   2.415 -0.2879 -0.2489  0.5273
36712SOL    HW117251   1.310   3.022   2.432  0.1931  0.1206  0.1794
36712SOL    HW217252   1.306   2.873   2.456 -0.3620  0.3239  1.4073
36713SOL     OW17253   3.566   5.838   2.123  0.2746 -0.7029  0.1788
36713SOL    HW117254   3.524   5.790   2.053 -0.2604  0.1146 -0.0828
36713SOL    HW217255   3.571   5.776   2.196  1.2333 -1.6979 -0.6895
36714SOL     OW17256  10.564   3.731   9.979 -0.1955  0.3732 -0.8087
36714SOL    HW117257  10.567   3.667   9.907  0.5822  0.1442 -0.5772
36714SOL    HW217258  10.628   3.699  10.042 -1.6898 -0.0919  0.5575
36715SOL     OW17259  12.305   3.356   8.986  0.5062  0.1798 -0.4699
36715SOL    HW117260  12.366   3.419   9.025  3.4269 -1.7905 -1.5073
36715SOL    HW217261  12.291   3.389   8.897 -0.0440  0.6788 -0.2051
36716SOL     OW17262   2.682   8.302   3.187 -0.3293 -0.2565  0.2319
36716SOL    HW117263   2.703   8.244   3.113 -1.6659  1.5062 -1.6558
36716SOL    HW217264   2.683   8.390   3.149 -0.5034  0.7920  2.4921
36717SOL     OW17265   6.572   0.873   1.268  0.4651  0.0489  0.0029
36717SOL    HW117266   6.601   0.905   1.353 -2.5244 -2.9696  2.4540
36717SOL    HW217267   6.516   0.942   1.234  0.0028  0.4835  1.5683
36718SOL     OW17268   3.636   4.457   9.539 -0.0788  0.2495 -0.3533
36718SOL    HW117269   3.554   4.407   9.531 -1.6587  2.9187 -2.4409
36718SOL    HW217270   3.686   4.432   9.461  0.7904 -0.7251  0.4816
36719SOL     OW17271  10.137   2.529  10.802  0.2649  0.3696 -0.0897
36719SOL    HW117272  10.073   2.594  10.832  1.3971  2.4592 -1.9328
36719SOL    HW217273  10.119   2.519  10.708  0.5252 -1.5721  0.0247
36720SOL     OW17274   8.225  11.495   3.325 -0.0318 -0.3330 -0.5661
36720SOL    HW117275   8.184  11.510   3.240  0.1128 -0.7539 -0.7094
36720SOL    HW217276   8.253  11.404   3.323  0.2377 -0.2613 -0.1782
36721SOL     OW17277   3.522   8.644   6.611 -0.0160 -0.3688 -0.2832
36721SOL    HW117278   3.560   8.628   6.524  2.5448  1.6885  0.3121
36721SOL    HW217279   3.554   8.572   6.665  0.4263 -0.3761 -0.5425
36722SOL     OW17280   1.845   9.572   0.841 -0.3497 -0.4228  0.4625
36722SOL    HW117281   1.814   9.662   0.828  1.8123  0.4699  1.0763
36722SOL    HW217282   1.827   9.555   0.934  1.3404  0.2945  0.9589
36723SOL     OW17283   5.267  12.222   2.478 -0.6325 -0.0219 -0.0192
36723SOL    HW117284   5.281  12.307   2.438  2.7617  0.0502  1.0170
36723SOL    HW217285   5.287  12.234   2.571  1.6432 -2.1949 -0.1122
36724SOL     OW17286   1.308  10.520  11.821 -0.3662  0.1617  0.1914
36724SOL    HW117287   1.214  10.534  11.805 -0.8220 -0.4563  2.0385
36724SOL    HW217288   1.316  10.521  11.917  1.0502 -2.5911  0.1954
36725SOL     OW17289   2.655   0.616   0.926 -0.0890 -0.3293  0.4568
36725SOL    HW117290   2.693   0.634   1.011  0.4632  1.6730 -0.1588
36725SOL    HW217291   2.610   0.697   0.902  0.4418 -0.5441 -1.4813
36726SOL     OW17292   3.713   0.295   1.066 -0.0132 -0.1166 -0.6153
36726SOL    HW117293   3.742   0.367   1.010 -0.1960  1.9886  1.8099
36726SOL    HW217294   3.622   0.280   1.041  0.4307 -0.4682 -2.0692
36727SOL     OW17295  11.773   8.002   3.488 -0.4640  0.2739  0.4103
36727SOL    HW117296  11.713   8.076   3.481 -2.1136 -1.0989 -0.8444
36727SOL    HW217297  11.830   8.010   3.412 -1.3731 -0.3124 -0.3585
36728SOL     OW17298   9.169   5.156   7.565  0.5788 -0.0798  0.0386
36728SOL    HW117299   9.169   5.083   7.628  1.3394  0.2630  0.4576
36728SOL    HW217300   9.255   5.197   7.577  0.8112 -0.1225 -1.3751
36729SOL     OW17301   9.087   3.697  12.247  0.4450  0.9943 -0.2692
36729SOL    HW117302   9.114   3.625  12.189 -1.9720  0.3032 -0.6576
36729SOL    HW217303   9.015   3.739  12.200  0.2137  2.1430  1.0613
36730SOL     OW17304   8.041  10.905   0.211 -0.7765  0.1139  0.3372
36730SOL    HW117305   7.970  10.964   0.236 -0.1033  1.4097 -0.6843
36730SOL    HW217306   8.028  10.828   0.266 -2.1328  0.8929  1.1807
36731SOL     OW17307   2.474   2.625   0.684 -0.8337  0.6309  0.0980
36731SOL    HW117308   2.515   2.598   0.766 -1.4439  2.7020  1.1652
36731SOL    HW217309   2.541   2.610   0.617  0.1922  0.2138  1.1922
36732SOL     OW17310   9.489   3.235   8.155  0.1656  0.3265  0.0501
36732SOL    HW117311   9.441   3.153   8.167  0.8438 -0.4661 -2.1587
36732SOL    HW217312   9.467   3.287   8.232 -0.4264 -1.8533  1.4510
36733SOL     OW17313   2.674   5.792   5.010 -0.1806 -0.4572  0.6661
36733SOL    HW117314   2.749   5.834   4.968 -1.8631  1.9201 -0.2113
36733SOL    HW217315   2.603   5.801   4.947 -1.2174 -2.8132  1.3749
36734SOL     OW17316   1.045   7.608  10.686 -0.6535 -0.0715  0.5165
36734SOL    HW117317   1.111   7.670  10.655 -1.3507 -0.6385 -2.3584
36734SOL    HW217318   1.095   7.545  10.739  0.6630  0.9291  0.5182
36735SOL     OW17319  10.027  11.367  12.584 -0.0809 -0.3025 -0.3793
36735SOL    HW117320   9.967  11.409  12.646  1.6350 -0.3562  1.4101
36735SOL    HW217321  10.093  11.434  12.567  1.6444 -1.5671  1.0116
36736SOL     OW17322   4.863   6.866   7.457 -0.6049 -0.1311  0.0965
36736SOL    HW117323   4.944   6.822   7.483 -0.8340 -0.5444  0.1045
36736SOL    HW217324   4.869   6.952   7.499  0.6289  0.5046 -1.2806
36737SOL     OW17325   5.781  11.064   9.308 -0.5608 -0.1601  0.4268
36737SOL    HW117326   5.820  11.007   9.242  1.6839  0.6882  0.9211
36737SOL    HW217327   5.807  11.025   9.392  2.8933  2.5432  0.8310
36738SOL     OW17328  12.964   7.305   5.132 -0.1538 -0.1693 -0.2022
36738SOL    HW117329  13.008   7.336   5.211  0.3633  0.7988 -0.8455
36738SOL    HW217330  12.904   7.376   5.108  1.0378  0.4081 -1.6890
36739SOL     OW17331   8.595  11.117  12.018  0.1552  0.3453  0.6902
36739SOL    HW117332   8.556  11.129  11.931 -1.0940 -0.0595  1.1726
36739SOL    HW217333   8.682  11.155  12.010 -0.0510  0.6111 -0.6503
36740SOL     OW17334   3.534   1.254   5.508 -0.0520 -0.5098 -0.0203
36740SOL    HW117335   3.481   1.216   5.578  2.1133 -0.8131  1.5822
36740SOL    HW217336   3.621   1.264   5.547  1.1112 -0.1128 -2.5136
36741SOL     OW17337   3.202  11.058  12.087 -0.0037  0.1189 -0.3994
36741SOL    HW117338   3.220  10.966  12.071  1.1110  0.0324  1.1779
36741SOL    HW217339   3.164  11.061  12.175  1.5751  1.2910  0.2967
36742SOL     OW17340  12.810   4.443  11.689  0.3666  0.3318 -0.4162
36742SOL    HW117341  12.775   4.527  11.718 -1.1975 -0.1336 -0.8769
36742SOL    HW217342  12.738   4.402  11.642  0.8053 -1.6304  0.5230
36743SOL     OW17343  11.884  10.754   5.247  0.4962  0.1211 -0.6505
36743SOL    HW117344  11.979  10.754   5.241  0.7808  2.5824  1.7845
36743SOL    HW217345  11.856  10.819   5.182  0.7543  1.3065  0.3772
36744SOL     OW17346  12.609   3.392   5.834 -0.5414  0.1806  0.4549
36744SOL    HW117347  12.527   3.410   5.786 -1.5935 -0.7842  1.8270
36744SOL    HW217348  12.591   3.422   5.923  0.2191 -1.0238  1.0331
36745SOL     OW17349   1.667  11.211   7.756 -0.1840  0.3266 -0.0089
36745SOL    HW117350   1.669  11.164   7.672 -0.0291 -0.2259  0.2996
36745SOL    HW217351   1.589  11.177   7.800 -0.3130  0.6806  0.0405
36746SOL     OW17352  12.633   9.485   3.096 -0.0202 -0.4766 -0.3820
36746SOL    HW117353  12.629   9.548   3.024 -0.3467 -1.7107 -1.4802
36746SOL    HW217354  12.711   9.432   3.077  1.6417  1.0055  1.7899
36747SOL     OW17355   4.523   6.708   1.420 -0.2875 -0.0612 -0.1330
36747SOL    HW117356   4.450   6.678   1.475 -1.0475 -0.0212 -1.0878
36747SOL    HW217357   4.585   6.747   1.481 -0.8729 -0.4815  0.7491
36748SOL     OW17358   6.790  12.098   5.462 -0.0736  0.3301  0.1326
36748SOL    HW117359   6.793  12.167   5.396 -1.7467  1.2340  0.9521
36748SOL    HW217360   6.699  12.095   5.490  0.2494 -1.2366  1.1618
36749SOL     OW17361  12.042   1.559  12.742 -0.1365  0.3357  0.4866
36749SOL    HW117362  12.130   1.562  12.779 -0.8774  0.9514  2.3212
36749SOL    HW217363  12.047   1.492  12.674  1.5901 -0.0738  0.9601
36750SOL     OW17364   2.947   4.105   9.705  0.7240  0.3623  0.4625
36750SOL    HW117365   3.000   4.071   9.632 -0.2666 -1.2643  0.4610
36750SOL    HW217366   2.967   4.047   9.778  0.8557  1.3084  1.2012
36751SOL     OW17367   3.505  11.082   5.603  0.1064  0.3015  0.4088
36751SOL    HW117368   3.509  11.066   5.509 -0.5839 -0.7957  0.5464
36751SOL    HW217369   3.428  11.033   5.632  0.0524  0.9871  1.4785
36752SOL     OW17370   5.271   1.310   5.310 -0.0289 -0.0472  0.2324
36752SOL    HW117371   5.282   1.215   5.303 -3.4788 -0.6868  1.4147
36752SOL    HW217372   5.344   1.338   5.364  1.1271 -1.9982 -0.1987
36753SOL     OW17373   0.312   0.229   2.086  0.4957  0.0055 -0.3259
36753SOL    HW117374   0.231   0.235   2.136  0.6991 -0.1781  0.0271
36753SOL    HW217375   0.370   0.296   2.124  1.1331 -1.0332  0.5979
36754SOL     OW17376   4.817   7.983   1.080 -0.1326  0.5810  0.2583
36754SOL    HW117377   4.805   7.899   1.037 -1.3011  0.7699  0.1839
36754SOL    HW217378   4.912   7.993   1.089  0.0620 -0.1718 -0.8446
36755SOL     OW17379   2.759   4.023   1.761  0.3255  0.1461 -0.3179
36755SOL    HW117380   2.749   4.117   1.752  0.7225  0.1012 -1.3531
36755SOL    HW217381   2.836   4.001   1.708  0.5698 -0.6841  0.3538
36756SOL     OW17382   4.192  12.881   5.819 -0.3790 -0.2451 -0.2479
36756SOL    HW117383   4.278  12.839   5.824  0.5310  1.5646  0.0710
36756SOL    HW217384   4.145  12.851   5.896 -0.6276 -2.4130 -1.1773
36757SOL     OW17385  11.891   4.803   3.486  0.2689  0.1162 -0.4915
36757SOL    HW117386  11.834   4.878   3.501  3.1452  2.3167  0.3738
36757SOL    HW217387  11.892   4.757   3.570  1.5023  1.4390  0.2709
36758SOL     OW17388   8.555   4.022   7.998  0.1851 -0.5445  0.3358
36758SOL    HW117389   8.614   3.947   7.995  0.2388 -0.4757 -0.4461
36758SOL    HW217390   8.505   4.017   7.916 -2.7140 -2.0484  2.0313
36759SOL     OW17391   7.818   4.990   7.807  0.0718 -0.3854 -0.5722
36759SOL    HW117392   7.827   5.063   7.746  0.5569 -0.6555 -0.8297
36759SOL    HW217393   7.749   4.936   7.770 -1.9709  1.1010  0.8098
36760SOL     OW17394   8.157  11.591  11.827 -0.0772 -0.3595 -0.6688
36760SOL    HW117395   8.238  11.578  11.877 -0.3854 -1.6496 -0.4627
36760SOL    HW217396   8.119  11.671  11.862 -0.3939 -1.3240  1.3696
36761SOL     OW17397   2.412   3.892   0.186 -0.1036 -0.0442  0.0482
36761SOL    HW117398   2.336   3.861   0.137 -0.4541  1.3731 -0.3590
36761SOL    HW217399   2.480   3.906   0.119  1.0448 -2.6007  0.5453
36762SOL     OW17400  10.798   2.968  11.402 -0.1596 -0.1805 -0.1242
36762SOL    HW117401  10.881   2.922  11.417  0.2191  0.2064 -0.9683
36762SOL    HW217402  10.781   2.958  11.309 -0.1402  1.2470 -0.3084
36763SOL     OW17403  12.408  12.910   4.178  0.2679  0.6603 -0.1341
36763SOL    HW117404  12.416  12.874   4.266 -0.3821  1.5610  0.2945
36763SOL    HW217405  12.412  13.004   4.189  0.7342  0.7755 -1.1325
36764SOL     OW17406   1.356  12.566   8.799  0.5807  0.2724  0.1020
36764SOL    HW117407   1.331  12.654   8.771  0.1965  0.2409  0.3279
36764SOL    HW217408   1.450  12.572   8.816  0.5992  0.5808 -0.1012
36765SOL     OW17409   2.303   6.588   8.878 -0.3965  0.1996 -0.5337
36765SOL    HW117410   2.281   6.518   8.817  0.2052 -0.6334  0.1763
36765SOL    HW217411   2.253   6.663   8.848 -1.2853 -0.6172 -1.1459
36766SOL     OW17412   3.175  11.791   4.826  0.0234 -0.6790  0.0521
36766SOL    HW117413   3.176  11.770   4.732  0.1955  0.0442 -0.1099
36766SOL    HW217414   3.267  11.799   4.849 -0.0386 -0.2959  0.1598
36767SOL     OW17415   1.583  10.476   8.027  0.1061  0.0543 -0.1376
36767SOL    HW117416   1.594  10.533   7.951  0.9312  0.8295  0.5373
36767SOL    HW217417   1.668  10.434   8.038  0.0533  0.0892  0.4501
36768SOL     OW17418   6.511   1.923  12.620  0.4482 -0.3402 -0.4589
36768SOL    HW117419   6.530   1.852  12.682 -0.2534  1.4480  1.9346
36768SOL    HW217420   6.577   1.990  12.640 -0.5886  0.7997 -0.7533
36769SOL     OW17421   8.864   4.591   5.849  0.5508 -0.2883 -0.5834
36769SOL    HW117422   8.768   4.581   5.848  0.6620 -1.4282 -1.2693
36769SOL    HW217423   8.897   4.505   5.825  1.7563  0.2227 -0.8085
36770SOL     OW17424   4.040   1.657   2.520  0.1752  0.0354 -0.2383
36770SOL    HW117425   4.122   1.702   2.503  2.0185 -3.5103 -1.9044
36770SOL    HW217426   4.045   1.631   2.612 -0.2416  1.7689  0.3143
36771SOL     OW17427   6.428  12.914  12.121  0.0486 -0.2055  0.3260
36771SOL    HW117428   6.380  12.870  12.192  0.5360  0.7180  1.2597
36771SOL    HW217429   6.470  12.843  12.073 -0.5405 -0.8721  0.7758
36772SOL     OW17430  12.768   1.582  12.488 -0.1070 -0.1274  0.1979
36772SOL    HW117431  12.850   1.615  12.451 -0.2401  0.9123  0.7799
36772SOL    HW217432  12.795   1.525  12.560  0.1150  1.1537  1.1629
36773SOL     OW17433  11.150   9.442  10.700  0.0284  0.2966  0.3111
36773SOL    HW117434  11.131   9.518  10.754  0.7333  1.3311 -0.8434
36773SOL    HW217435  11.183   9.377  10.762 -1.2239  0.6632  1.4111
36774SOL     OW17436   3.457   6.909   6.873 -0.2291  0.3831 -0.1049
36774SOL    HW117437   3.397   6.834   6.872  0.9346 -0.6445  1.6719
36774SOL    HW217438   3.486   6.916   6.782 -2.2489  0.2820 -0.7966
36775SOL     OW17439  12.144  10.673   3.365 -0.2879  0.0907  0.0654
36775SOL    HW117440  12.200  10.697   3.291 -0.4971 -0.7724 -0.3858
36775SOL    HW217441  12.191  10.603   3.409 -1.6978 -1.7824 -1.2591
36776SOL     OW17442   7.633   1.555  10.066 -0.5513 -0.0263 -0.1473
36776SOL    HW117443   7.684   1.586   9.991  1.1331  0.7932  1.2633
36776SOL    HW217444   7.687   1.485  10.105 -1.3261 -0.3456  0.3834
36777SOL     OW17445   0.596  11.154   1.963  0.0640 -0.0950  0.7315
36777SOL    HW117446   0.610  11.181   2.054  0.9045 -0.6847  0.7914
36777SOL    HW217447   0.525  11.210   1.931 -2.3844 -1.8332  2.6639
36778SOL     OW17448   2.573   0.415   4.732 -0.0720 -0.0258  0.3951
36778SOL    HW117449   2.564   0.364   4.652  0.7679  1.0490 -0.4144
36778SOL    HW217450   2.664   0.444   4.732 -0.8778  2.7239  0.0410
36779SOL     OW17451  10.813   2.073  12.281 -0.2082  0.0495 -0.5181
36779SOL    HW117452  10.873   2.130  12.231 -0.3481  0.1316 -0.5924
36779SOL    HW217453  10.859   1.989  12.285  1.2949  0.8728  1.9719
36780SOL     OW17454   3.208  12.475   0.383  0.0385 -0.5925 -0.5906
36780SOL    HW117455   3.147  12.546   0.403 -0.2491 -0.6664 -1.1892
36780SOL    HW217456   3.294  12.514   0.395 -0.1209 -0.4583  0.1626
36781SOL     OW17457   6.235  11.897  11.166 -0.1204  0.4637  0.2119
36781SOL    HW117458   6.189  11.915  11.084  0.9372 -0.0591 -0.5149
36781SOL    HW217459   6.208  11.968  11.224 -0.3273  1.2509 -0.8130
36782SOL     OW17460  10.696   5.023  11.413  0.6307  0.4664  0.1649
36782SOL    HW117461  10.756   4.963  11.369  0.5906 -0.2283  1.0234
36782SOL    HW217462  10.684   4.984  11.500  0.1227  1.4036  0.5180
36783SOL     OW17463   8.464   7.961  12.541  0.5019  0.1766 -0.1388
36783SOL    HW117464   8.419   7.994  12.618 -0.7249  0.2367 -0.8571
36783SOL    HW217465   8.535   7.906  12.575  0.8875  1.3599  1.0333
36784SOL     OW17466   2.036   4.304   7.878  0.0485  0.0800  0.4287
36784SOL    HW117467   1.995   4.390   7.864 -1.4314 -0.7057 -0.3506
36784SOL    HW217468   1.963   4.242   7.871  0.9706 -1.1995  1.7164
36785SOL     OW17469   0.460   2.077   1.098 -0.5364 -0.2440 -0.5879
36785SOL    HW117470   0.495   1.988   1.093  0.4736  0.1802 -1.2105
36785SOL    HW217471   0.379   2.073   1.047 -1.7274 -1.3564  1.2826
36786SOL     OW17472   6.487  12.717  10.278  0.2103 -0.2201  0.4000
36786SOL    HW117473   6.578  12.745  10.290  0.4867 -1.0365  0.2994
36786SOL    HW217474   6.493  12.622  10.264 -0.7196 -0.4072  1.1772
36787SOL     OW17475   6.189  11.263   2.291 -0.0046 -0.8571  0.5369
36787SOL    HW117476   6.212  11.296   2.204  1.6910 -0.3529  1.1461
36787SOL    HW217477   6.219  11.172   2.291  1.9647 -0.2600  1.2591
36788SOL     OW17478   4.033   7.381   7.229  0.0699 -0.1071 -0.0545
36788SOL    HW117479   3.972   7.358   7.160 -1.0040 -0.1898  0.8990
36788SOL    HW217480   4.075   7.299   7.253  1.9291  0.1979 -1.9133
36789SOL     OW17481  11.413   5.692   2.000 -0.1928 -0.6219 -0.5400
36789SOL    HW117482  11.497   5.733   1.980 -0.5675  2.0420  2.5337
36789SOL    HW217483  11.432   5.635   2.075 -1.0748 -0.1631  0.0459
36790SOL     OW17484   1.341   0.327   8.462  0.7149  0.4944  0.4233
36790SOL    HW117485   1.435   0.315   8.453  0.6391  0.0016  0.2688
36790SOL    HW217486   1.331   0.380   8.541  1.1847  1.6016 -0.2375
36791SOL     OW17487   8.082   5.930   2.897 -0.3334 -0.6413  0.4255
36791SOL    HW117488   8.001   5.918   2.946  0.1579  1.0957  1.7601
36791SOL    HW217489   8.131   5.849   2.910 -0.8260 -0.7571  1.6411
36792SOL     OW17490   6.649  12.561   0.663  0.5380 -0.0464  0.3306
36792SOL    HW117491   6.569  12.549   0.610  0.2001 -0.4370  0.9199
36792SOL    HW217492   6.680  12.649   0.640  0.0946 -0.0009 -0.1130
36793SOL     OW17493   3.258   2.253   5.295 -0.3361  0.4055 -0.3247
36793SOL    HW117494   3.269   2.188   5.226 -2.8114 -0.6540  0.1702
36793SOL    HW217495   3.326   2.232   5.359 -0.6718 -1.3270 -0.4786
36794SOL     OW17496  10.849   3.629   7.151 -0.8347 -0.5341  0.4312
36794SOL    HW117497  10.917   3.577   7.107 -1.3182 -0.6710 -0.1575
36794SOL    HW217498  10.768   3.606   7.106 -0.9956  1.1058 -0.1660
36795SOL     OW17499  10.930   8.990   2.139 -0.2933 -0.1701 -0.6132
36795SOL    HW117500  10.863   9.029   2.194  0.7882  1.2437 -0.2420
36795SOL    HW217501  10.961   8.915   2.189  0.8322  1.2203  0.8801
36796SOL     OW17502   1.940   2.943   7.806  0.6518  0.1722  0.3071
36796SOL    HW117503   1.931   2.852   7.778 -1.2604  0.5552 -0.4538
36796SOL    HW217504   1.863   2.960   7.859  1.7146  0.9659  1.6664
36797SOL     OW17505   8.404  10.934   6.281 -0.0542  0.0376  0.2408
36797SOL    HW117506   8.394  10.925   6.375 -1.9371 -0.2571  0.0553
36797SOL    HW217507   8.399  10.844   6.247 -1.3714  0.2803 -0.2685
36798SOL     OW17508   2.796  10.977   6.049 -0.1942 -0.2456  0.2481
36798SOL    HW117509   2.828  11.067   6.053  0.6362 -0.4268 -1.4275
36798SOL    HW217510   2.751  10.971   5.964  1.1082 -1.8079 -0.3793
36799SOL     OW17511   9.356   7.678   7.454  0.6510 -0.4533 -0.0242
36799SOL    HW117512   9.437   7.727   7.465  0.5700 -0.1655 -0.6602
36799SOL    HW217513   9.325   7.702   7.367  0.3893 -1.3130 -0.1748
36800SOL     OW17514  12.902  12.065   8.638  0.0063 -0.1908 -0.1677
36800SOL    HW117515  12.970  12.087   8.702 -0.5578  2.0185 -0.2545
36800SOL    HW217516  12.820  12.087   8.682 -0.3809  1.6821 -1.7206
36801SOL     OW17517   6.880   7.414   3.885  0.0313  0.1499 -0.6272
36801SOL    HW117518   6.955   7.437   3.939  0.1097  0.2094 -0.7595
36801SOL    HW217519   6.916   7.404   3.797  0.0473 -0.7689 -0.5212
36802SOL     OW17520  10.204   8.863   7.621  0.0570 -0.1211  0.1310
36802SOL    HW117521  10.152   8.783   7.620  1.9040 -1.3792 -0.1174
36802SOL    HW217522  10.197   8.897   7.532 -2.4148  1.1991  0.7558
36803SOL     OW17523   4.029  12.257   9.345 -0.5091  0.3877 -0.8061
36803SOL    HW117524   4.037  12.344   9.306  2.5268  0.5754  0.0081
36803SOL    HW217525   4.119  12.227   9.355 -1.3516 -1.6319  1.6492
36804SOL     OW17526   7.797   8.645  11.169 -0.5845  0.0653  0.4672
36804SOL    HW117527   7.844   8.650  11.086 -1.0273  0.5147  0.2417
36804SOL    HW217528   7.707   8.667  11.147 -1.0460 -1.3938  0.7853
36805SOL     OW17529  12.900  11.762   9.519  0.1892  0.1147  0.8777
36805SOL    HW117530  12.822  11.814   9.504 -0.7108 -1.6984 -1.3648
36805SOL    HW217531  12.969  11.826   9.536 -1.2578  1.8761  0.3911
36806SOL     OW17532  12.384   6.723   6.627  0.1215 -0.2543 -0.2118
36806SOL    HW117533  12.323   6.782   6.670 -0.5728 -0.3946 -0.9801
36806SOL    HW217534  12.470   6.764   6.639 -0.1689  0.1488  0.5226
36807SOL     OW17535   8.624   7.659   9.115  0.3528  0.0421 -0.7784
36807SOL    HW117536   8.693   7.684   9.177  2.7724 -1.4849 -2.6833
36807SOL    HW217537   8.671   7.621   9.041 -2.5453 -0.3833 -2.5382
36808SOL     OW17538  12.055  10.867   6.380  0.6370 -0.1623 -0.5259
36808SOL    HW117539  12.043  10.779   6.417  0.0979  0.7848  1.6940
36808SOL    HW217540  11.970  10.889   6.342  0.6061 -0.3469 -0.5676
36809SOL     OW17541   7.354   3.033   9.948 -0.0670  0.0121 -0.2455
36809SOL    HW117542   7.334   3.021  10.040 -1.9182  0.8937 -0.4892
36809SOL    HW217543   7.271   3.016   9.903  0.5784  0.4575 -1.6632
36810SOL     OW17544   7.730   0.509   0.299 -0.5048  0.1287 -0.1567
36810SOL    HW117545   7.810   0.527   0.348 -1.4021 -1.9338  2.2510
36810SOL    HW217546   7.670   0.579   0.326  0.5685  2.1826 -2.6004
36811SOL     OW17547   6.038   2.050   9.751  0.1655  0.0133 -1.0905
36811SOL    HW117548   6.102   2.048   9.679  0.1697  0.1373 -1.0917
36811SOL    HW217549   6.017   2.143   9.760 -0.6568 -0.1057 -1.6587
36812SOL     OW17550  12.570   0.722   2.819  0.3800  0.1430  0.2779
36812SOL    HW117551  12.585   0.695   2.729  1.6211  1.2431  0.1281
36812SOL    HW217552  12.656   0.750   2.851 -0.0767 -0.0137  1.7332
36813SOL     OW17553   7.549  10.615   7.898  0.2130 -0.5070 -0.3630
36813SOL    HW117554   7.516  10.668   7.970  0.7244 -1.4632  0.6000
36813SOL    HW217555   7.623  10.665   7.863 -0.8398  0.5852 -1.1035
36814SOL     OW17556  11.723   0.701   9.317  0.6196 -0.1379 -0.0299
36814SOL    HW117557  11.659   0.736   9.255 -0.4353  0.7779  1.5078
36814SOL    HW217558  11.715   0.606   9.308 -1.6165 -0.0724  0.6938
36815SOL     OW17559   3.039   6.628   7.447  0.1936 -0.2528 -0.4185
36815SOL    HW117560   3.028   6.699   7.384  0.5366  0.8291  0.7168
36815SOL    HW217561   3.039   6.548   7.393  0.3947  0.6303 -1.7666
36816SOL     OW17562   6.370  11.586   5.174  0.3296 -0.0723 -0.1583
36816SOL    HW117563   6.300  11.631   5.222  1.1153 -0.2336  1.1938
36816SOL    HW217564   6.394  11.512   5.230  0.8799 -0.6237 -1.0926
36817SOL     OW17565   2.225   9.552   6.140  0.2429  0.1361 -0.3925
36817SOL    HW117566   2.198   9.513   6.223 -0.2368  0.8859 -0.1887
36817SOL    HW217567   2.269   9.634   6.166  0.4942  0.1498 -0.8551
36818SOL     OW17568   1.648   4.375   9.086  0.7247  0.1448 -0.2260
36818SOL    HW117569   1.584   4.309   9.111 -1.2091  2.4460  1.3709
36818SOL    HW217570   1.617   4.408   9.001 -0.4721  1.4170  0.6508
36819SOL     OW17571   0.665  10.938   7.762  0.3604 -0.1024 -0.0110
36819SOL    HW117572   0.722  11.002   7.718  1.4305  1.5460  3.4343
36819SOL    HW217573   0.587  10.988   7.786 -0.8691 -1.3519 -1.2184
36820SOL     OW17574  11.898   0.934   9.382  0.2187 -0.6556 -0.5296
36820SOL    HW117575  11.836   1.002   9.408  0.8126  0.0025 -0.7805
36820SOL    HW217576  11.849   0.852   9.388 -0.0677 -0.3833  1.2550
36821SOL     OW17577   6.197   2.589   7.964  0.3158  0.0943  0.2202
36821SOL    HW117578   6.119   2.616   7.916  0.6618  0.2226 -0.2734
36821SOL    HW217579   6.256   2.664   7.959  1.1742 -0.6427 -0.9374
36822SOL     OW17580   7.369   1.636   1.317  0.8256 -0.1734  0.5602
36822SOL    HW117581   7.398   1.570   1.380  1.0778  0.4954  1.1577
36822SOL    HW217582   7.357   1.587   1.236 -0.8503 -1.3124  1.4427
36823SOL     OW17583  11.403   1.861   9.620  0.0124  0.3754  0.0484
36823SOL    HW117584  11.459   1.801   9.670  0.6025  1.9051  1.2968
36823SOL    HW217585  11.446   1.868   9.535  0.2882 -0.4456  0.1050
36824SOL     OW17586  11.466   1.791   9.265  0.0433 -0.0450  0.0902
36824SOL    HW117587  11.513   1.868   9.298 -1.2266  1.4954 -1.4757
36824SOL    HW217588  11.511   1.770   9.183 -0.2864 -0.2804 -0.0328
36825SOL     OW17589   1.935   3.264   7.171  0.2487  0.2853  0.1924
36825SOL    HW117590   1.985   3.183   7.159 -1.4489 -0.9408  0.8535
36825SOL    HW217591   1.989   3.318   7.228  0.8053 -1.0122  0.9460
36826SOL     OW17592   1.764   8.692   9.489  0.1749  0.2017 -0.2977
36826SOL    HW117593   1.852   8.656   9.498 -0.0863 -1.2726 -2.7345
36826SOL    HW217594   1.714   8.622   9.448 -2.3909  0.7107  1.6929
36827SOL     OW17595   5.824   5.494  11.909  0.1263 -0.1705 -0.5001
36827SOL    HW117596   5.868   5.537  11.982  1.9056  1.9328 -2.6941
36827SOL    HW217597   5.824   5.401  11.933  0.7704  0.4183  2.0707
36828SOL     OW17598   3.980   7.093   5.917 -0.3436 -0.5269 -0.4201
36828SOL    HW117599   4.029   7.147   5.980  0.0863  1.1316 -2.0805
36828SOL    HW217600   3.903   7.145   5.896 -0.8477 -1.3846 -0.7188
36829SOL     OW17601   7.523   2.450   5.630 -0.5320  0.5017 -0.1771
36829SOL    HW117602   7.484   2.466   5.544 -1.6689 -2.0702 -0.2455
36829SOL    HW217603   7.451   2.413   5.682  0.4243  0.9698  1.5367
36830SOL     OW17604   1.346   8.585   6.460 -0.5709  0.1908 -0.9824
36830SOL    HW117605   1.255   8.615   6.456 -0.5561  0.1843 -1.4391
36830SOL    HW217606   1.394   8.659   6.497 -0.8604 -0.0405 -0.1361
36831SOL     OW17607   8.999  11.303   4.129 -0.7876  0.6046 -0.0032
36831SOL    HW117608   8.971  11.215   4.154  1.1165  0.3931  1.5929
36831SOL    HW217609   8.944  11.361   4.182 -1.3655  0.3612 -0.3253
36832SOL     OW17610   2.753   8.457   2.976 -0.0739 -0.1279  0.3092
36832SOL    HW117611   2.843   8.431   2.998 -0.2252 -0.8107  0.1544
36832SOL    HW217612   2.760   8.496   2.889  0.3187  1.3517  0.9773
36833SOL     OW17613  11.169  12.298   1.497  0.5070 -0.2743  0.4617
36833SOL    HW117614  11.193  12.379   1.453 -0.3306 -0.3172 -0.0890
36833SOL    HW217615  11.086  12.272   1.458  0.3662 -0.9838  1.1861
36834SOL     OW17616  11.569   4.100   0.247 -0.0391  1.2500 -0.2306
36834SOL    HW117617  11.608   4.078   0.162 -0.0151 -0.4094  0.1584
36834SOL    HW217618  11.642   4.135   0.298  0.7286 -0.5928  0.0527
36835SOL     OW17619   6.168   1.262   7.342  0.0289 -0.0803 -0.3691
36835SOL    HW117620   6.148   1.203   7.270 -0.3555  0.7133 -0.9250
36835SOL    HW217621   6.154   1.350   7.306 -1.2438  0.3118  0.9766
36836SOL     OW17622   3.195   8.891   1.964  0.3397  0.1384 -0.4180
36836SOL    HW117623   3.204   8.893   1.869  3.6054  0.7483 -0.2098
36836SOL    HW217624   3.187   8.798   1.986 -0.5653  0.0082 -1.2721
36837SOL     OW17625   6.849   5.631  11.631 -0.6863  0.9070 -0.1037
36837SOL    HW117626   6.900   5.689  11.575  0.7676 -1.0366 -0.8854
36837SOL    HW217627   6.875   5.543  11.605  0.3262 -0.1527  3.7675
36838SOL     OW17628   3.954   9.288   7.397  0.5784  0.4904  0.2725
36838SOL    HW117629   3.990   9.345   7.466  0.3638  1.6551 -0.5564
36838SOL    HW217630   4.024   9.283   7.332  0.0098  1.1161 -0.4003
36839SOL     OW17631  11.134   4.627  11.720 -0.0517  0.6857 -0.3070
36839SOL    HW117632  11.189   4.700  11.748  0.3729  0.3774 -0.3202
36839SOL    HW217633  11.192   4.550  11.723 -1.0633 -0.0803  1.8824
36840SOL     OW17634  11.918   6.710   6.071  0.3867  0.6324  1.0879
36840SOL    HW117635  11.924   6.763   6.150 -0.4266 -0.8241  2.1777
36840SOL    HW217636  11.950   6.624   6.098 -1.8560 -0.4634  0.4291
36841SOL     OW17637  10.797   4.899  10.283  0.4221  0.4728 -0.1699
36841SOL    HW117638  10.881   4.888  10.238 -0.4716  0.2750 -1.8811
36841SOL    HW217639  10.737   4.926  10.214 -1.3257 -1.0792  0.6774
36842SOL     OW17640  11.523   5.629   1.681  0.2786 -0.1762 -0.1933
36842SOL    HW117641  11.438   5.601   1.715  0.6693 -1.3101 -0.1016
36842SOL    HW217642  11.587   5.587   1.739  0.9319 -0.7612 -1.3103
36843SOL     OW17643   0.071   0.497   4.323  0.1409  0.0221 -0.1127
36843SOL    HW117644   0.021   0.416   4.311 -2.5187  1.4649  0.2628
36843SOL    HW217645   0.096   0.497   4.415  1.2526 -0.9086 -0.3976
36844SOL     OW17646   1.114   8.549   2.063  0.6048  0.6401 -0.7537
36844SOL    HW117647   1.041   8.506   2.020  1.8173 -1.1054 -1.1605
36844SOL    HW217648   1.192   8.509   2.025  1.8726  3.6304 -1.5932
36845SOL     OW17649   9.665  11.777   8.341  0.4240 -0.0456  0.4899
36845SOL    HW117650   9.639  11.706   8.282 -0.5778  0.2296  0.5916
36845SOL    HW217651   9.760  11.781   8.331  0.3438 -0.3947 -0.6614
36846SOL     OW17652   3.180  12.663   8.045 -0.0297  0.3609 -0.7606
36846SOL    HW117653   3.124  12.715   8.103 -0.4408 -0.2641 -0.5828
36846SOL    HW217654   3.239  12.616   8.104  0.3597  0.6439 -0.9232
36847SOL     OW17655   5.887   7.689   3.824 -0.9403  0.1076 -0.2848
36847SOL    HW117656   5.859   7.779   3.813 -1.7545 -0.1591 -0.4901
36847SOL    HW217657   5.980   7.689   3.800 -0.8524  0.9444  0.0485
36848SOL     OW17658   2.665   2.350   0.258 -0.0121 -0.0168  0.0986
36848SOL    HW117659   2.656   2.438   0.295  2.0234 -0.0490  0.7658
36848SOL    HW217660   2.613   2.295   0.316 -0.1945  0.5431  0.4800
36849SOL     OW17661   7.788   7.846   1.848 -0.3070 -0.6268  0.5850
36849SOL    HW117662   7.883   7.845   1.858 -0.3129 -0.7472  0.6218
36849SOL    HW217663   7.774   7.844   1.753 -0.2497  0.7003  0.5324
36850SOL     OW17664   1.143  12.842   2.228 -0.1119 -0.3541  0.0349
36850SOL    HW117665   1.131  12.811   2.318  0.7295  0.0638  0.2957
36850SOL    HW217666   1.140  12.937   2.234 -0.4392 -0.3326 -0.4388
36851SOL     OW17667   6.195   9.954   3.065 -0.0111 -0.3830  0.2660
36851SOL    HW117668   6.166  10.028   3.118  1.6462  0.5590 -0.0522
36851SOL    HW217669   6.151   9.965   2.981 -0.2947 -0.1341  0.4458
36852SOL     OW17670   4.305   9.100   1.471  0.4870 -0.0723  0.4553
36852SOL    HW117671   4.216   9.128   1.451  0.0674  0.2027  2.4488
36852SOL    HW217672   4.334   9.161   1.540  1.7076 -0.9943  0.7980
36853SOL     OW17673   4.670   6.666   0.730  0.4758  0.6717  0.3669
36853SOL    HW117674   4.678   6.578   0.767 -1.6816 -0.8801 -2.4672
36853SOL    HW217675   4.625   6.716   0.798 -3.4151 -2.0563  0.1146
36854SOL     OW17676   8.858  12.624   5.271 -0.0503 -0.0023  0.3624
36854SOL    HW117677   8.825  12.598   5.357 -1.0718 -0.9136 -0.2839
36854SOL    HW217678   8.904  12.706   5.287 -2.3812  1.1807  1.3697
36855SOL     OW17679   1.165   3.208   2.182  0.2261 -0.0676  0.3755
36855SOL    HW117680   1.095   3.251   2.133 -0.1066  1.2319  1.9251
36855SOL    HW217681   1.137   3.116   2.186 -0.9906  0.2705  0.2818
36856SOL     OW17682   8.869   8.413  10.668  0.8796  0.4800  0.4471
36856SOL    HW117683   8.813   8.491  10.664 -1.2182 -0.6507  3.4517
36856SOL    HW217684   8.908   8.416  10.755  0.9544 -1.6515  0.5406
36857SOL     OW17685   4.972   7.869   4.585  0.0983 -0.5170 -0.1756
36857SOL    HW117686   4.957   7.793   4.640  1.9272 -0.5867  0.2854
36857SOL    HW217687   4.939   7.943   4.636  0.2746 -0.7645  0.2971
36858SOL     OW17688   6.587  11.275   6.101  0.1359  0.5054 -0.0533
36858SOL    HW117689   6.628  11.312   6.023  0.7658  1.6755  0.7949
36858SOL    HW217690   6.660  11.244   6.155 -0.2430  0.3868  0.3997
36859SOL     OW17691  10.325   0.632   7.217 -0.2724 -0.0567 -0.4187
36859SOL    HW117692  10.360   0.635   7.306 -0.7951  1.0848 -0.2328
36859SOL    HW217693  10.239   0.592   7.225  0.6824 -2.3613 -0.8032
36860SOL     OW17694   4.863   3.400   0.406  0.5152 -0.1836  0.1046
36860SOL    HW117695   4.950   3.437   0.423  0.3100 -0.0899  0.9866
36860SOL    HW217696   4.854   3.329   0.470  0.0344 -0.3378 -0.1293
36861SOL     OW17697   2.554   2.867   5.131  0.3974 -0.1282  0.7425
36861SOL    HW117698   2.472   2.818   5.122 -0.4866  1.3886  0.0654
36861SOL    HW217699   2.530   2.944   5.183  1.5379  0.0108  1.0758
36862SOL     OW17700   6.069  12.166   8.443  0.5701  0.1799 -0.8336
36862SOL    HW117701   6.037  12.076   8.446 -0.6617  0.4966 -2.7647
36862SOL    HW217702   6.131  12.168   8.370 -0.0911  1.0582 -1.4041
36863SOL     OW17703   5.841   4.202  11.395 -0.2590 -0.0093  0.0269
36863SOL    HW117704   5.881   4.278  11.437 -1.0173 -0.4191  1.5647
36863SOL    HW217705   5.877   4.126  11.441 -0.2479 -0.5478 -0.8416
36864SOL     OW17706   5.462  11.136   9.521  0.1402  0.6351 -0.4746
36864SOL    HW117707   5.479  11.042   9.521 -2.0627  0.1788 -1.3238
36864SOL    HW217708   5.368  11.143   9.536  0.3021  2.7320 -0.1659
36865SOL     OW17709  11.345   6.403  10.958  0.0633  0.4454  0.0294
36865SOL    HW117710  11.327   6.490  10.995 -0.7599 -1.1048  3.6483
36865SOL    HW217711  11.440   6.392  10.967  0.0759  0.6926  0.2124
36866SOL     OW17712  12.065   7.297  10.795  0.6513 -0.3210  0.0711
36866SOL    HW117713  11.988   7.344  10.762  1.8012  0.5876 -1.4726
36866SOL    HW217714  12.139   7.340  10.753  2.1270 -0.4682  2.3503
36867SOL     OW17715   4.215  10.830   0.376  0.3728 -0.1323  0.2561
36867SOL    HW117716   4.211  10.752   0.320  0.6163 -0.4279  0.6458
36867SOL    HW217717   4.237  10.901   0.316  0.8417 -0.4815  0.0050
36868SOL     OW17718   3.169   7.215   1.084  0.0107 -0.0265 -0.2522
36868SOL    HW117719   3.196   7.136   1.038  1.1461  0.2372 -0.0543
36868SOL    HW217720   3.191   7.198   1.176 -1.9335 -0.4249  0.1827
36869SOL     OW17721   2.485   8.579   7.628 -0.0372 -0.3346 -0.6370
36869SOL    HW117722   2.437   8.496   7.635 -0.3891 -0.2384 -1.7607
36869SOL    HW217723   2.518   8.580   7.539  0.7020  0.3510 -0.3688
36870SOL     OW17724   5.802   4.209   5.447 -0.0589  0.2492 -0.4039
36870SOL    HW117725   5.878   4.258   5.477  0.4443  0.3381 -1.7398
36870SOL    HW217726   5.728   4.269   5.459  0.0830  0.2086  0.7823
36871SOL     OW17727   9.432   7.613   3.927  0.1500 -0.6762 -0.1553
36871SOL    HW117728   9.413   7.558   3.851 -1.8731  1.1099 -1.0577
36871SOL    HW217729   9.376   7.578   3.996  0.8992 -1.3894  0.1087
36872SOL     OW17730   3.483   0.048   0.053 -0.6435  0.2647 -0.0441
36872SOL    HW117731   3.411   0.029   0.113 -0.0819  0.2661  0.6403
36872SOL    HW217732   3.557   0.069   0.109 -0.3672  1.2738 -0.7480
36873SOL     OW17733  12.282   4.570   3.716  0.1603 -0.2518  0.3126
36873SOL    HW117734  12.191   4.570   3.744 -1.2529  1.3194 -3.6480
36873SOL    HW217735  12.300   4.479   3.691  0.0541 -0.7367  1.8548
36874SOL     OW17736   2.832   0.716   8.038 -0.3467 -0.4615  0.7387
36874SOL    HW117737   2.799   0.792   7.990 -0.0763  0.0764  1.3853
36874SOL    HW217738   2.786   0.641   7.999 -0.3326 -0.0152 -0.1596
36875SOL     OW17739   6.356   8.012  12.751 -0.3350 -0.5006 -0.3742
36875SOL    HW117740   6.301   8.016  12.673 -1.5692 -0.3734  0.4722
36875SOL    HW217741   6.332   7.929  12.793 -2.2518  0.9405  1.6294
36876SOL     OW17742   9.995   2.761   2.742 -0.2815  0.2157  0.1316
36876SOL    HW117743   9.900   2.767   2.747 -0.3995 -0.9398 -0.4555
36876SOL    HW217744  10.023   2.752   2.833 -0.8343 -0.6083  0.2293
36877SOL     OW17745   3.785  10.326   5.337 -0.2323  0.5805 -0.2771
36877SOL    HW117746   3.704  10.376   5.326  0.7511  2.1483 -0.8708
36877SOL    HW217747   3.815  10.308   5.248 -0.0215 -0.1406 -0.0640
36878SOL     OW17748   5.973   9.556  12.385  0.5171 -0.6096 -0.7009
36878SOL    HW117749   6.047   9.616  12.392 -0.0182  0.1498 -1.4952
36878SOL    HW217750   6.010   9.477  12.345  1.2825 -0.9553  0.6156
36879SOL     OW17751  12.198   4.947   1.312  0.1200  0.1414 -0.0717
36879SOL    HW117752  12.237   4.928   1.227 -1.8779 -2.7711 -0.4597
36879SOL    HW217753  12.105   4.927   1.301  0.0140 -1.7183  3.1259
36880SOL     OW17754   6.422   5.713   2.021 -0.3191  0.4862  0.4923
36880SOL    HW117755   6.454   5.802   2.007 -0.7192  0.9199  2.1061
36880SOL    HW217756   6.328   5.718   2.001 -0.2315  0.2976  0.0432
36881SOL     OW17757   3.344  10.546  11.457 -0.8889  0.0781 -0.1534
36881SOL    HW117758   3.249  10.552  11.446 -0.5925  2.0782 -2.4270
36881SOL    HW217759   3.379  10.546  11.368  1.2828  0.6502  0.6267
36882SOL     OW17760  12.711   4.512   7.688  0.1023 -0.9859 -0.5709
36882SOL    HW117761  12.741   4.429   7.725 -0.2456 -1.5129 -1.4248
36882SOL    HW217762  12.792   4.557   7.662  0.3986 -0.3101  1.3539
36883SOL     OW17763   1.784   4.532   5.051  0.3028 -0.5639  0.6177
36883SOL    HW117764   1.763   4.625   5.052  0.8140 -0.4496  1.3069
36883SOL    HW217765   1.834   4.520   4.970 -0.3290 -0.3739  0.1970
36884SOL     OW17766   7.896  10.557  11.161 -0.2764  0.2826  0.7619
36884SOL    HW117767   7.955  10.583  11.232 -0.5609 -1.2427  1.6069
36884SOL    HW217768   7.950  10.503  11.103 -0.3839  0.4047  0.5448
36885SOL     OW17769   8.940   0.240  11.870 -0.5471 -0.3065 -0.9543
36885SOL    HW117770   8.863   0.253  11.815 -0.5958 -0.9068 -1.0393
36885SOL    HW217771   8.965   0.149  11.854 -1.2680 -0.8660  0.9109
36886SOL     OW17772  12.565   8.098   2.712  0.1255  0.1213  0.0850
36886SOL    HW117773  12.517   8.029   2.758 -0.6596 -0.1395 -1.0966
36886SOL    HW217774  12.559   8.074   2.619  2.4034  0.1581 -0.1416
36887SOL     OW17775   2.142   8.865   3.018 -0.3201  0.1801  0.3417
36887SOL    HW117776   2.163   8.795   3.079  0.2112  0.5155  0.5441
36887SOL    HW217777   2.068   8.910   3.058 -0.7864 -0.3730  0.1203
36888SOL     OW17778   5.120   1.471   2.802  0.2978  0.2986 -0.5902
36888SOL    HW117779   5.077   1.520   2.872  1.9071 -0.3960  0.9610
36888SOL    HW217780   5.161   1.397   2.846  2.8684  0.7824 -1.9754
36889SOL     OW17781   2.970   3.553  11.448  0.2140 -0.6008  0.7829
36889SOL    HW117782   2.953   3.465  11.480  1.0451 -0.5522  1.3635
36889SOL    HW217783   3.029   3.592  11.512  0.8293 -0.0387 -0.1049
36890SOL     OW17784   0.176   0.905  11.592  0.3799 -0.0504 -0.1164
36890SOL    HW117785   0.231   0.984  11.588 -0.7182  0.9412  2.1179
36890SOL    HW217786   0.091   0.934  11.559  0.7168 -1.1716 -2.1285
36891SOL     OW17787   6.706   6.614  12.599  0.3559 -0.0406  0.0888
36891SOL    HW117788   6.709   6.549  12.670  1.0976 -0.0692  0.0412
36891SOL    HW217789   6.613   6.633  12.588  0.2747  0.9297  1.9666
36892SOL     OW17790   6.717   2.652   0.114 -0.4886 -0.2293 -0.4431
36892SOL    HW117791   6.697   2.613   0.199  1.0393 -2.0865 -0.8630
36892SOL    HW217792   6.656   2.610   0.053  0.2213 -0.9395 -0.6755
36893SOL     OW17793   7.672   7.121   5.386 -0.5526 -0.4907  0.1563
36893SOL    HW117794   7.707   7.118   5.475 -1.4234 -1.2868  0.4766
36893SOL    HW217795   7.731   7.065   5.336  0.0383  0.0902  0.1752
36894SOL     OW17796   2.602   8.584  10.393 -0.0299  0.3200  0.2961
36894SOL    HW117797   2.542   8.535  10.449 -0.7065 -0.9811 -1.4666
36894SOL    HW217798   2.553   8.662  10.366 -1.6901 -1.4583 -2.3593
36895SOL     OW17799   6.325   9.520   1.974  0.2036 -0.0180 -0.0058
36895SOL    HW117800   6.419   9.522   1.991  0.2880 -1.1782 -0.2674
36895SOL    HW217801   6.289   9.584   2.036  1.0001 -0.6919  1.1990
36896SOL     OW17802   5.500  10.679   6.272 -0.7262  0.1169 -0.0432
36896SOL    HW117803   5.434  10.653   6.335 -0.1796  0.0764  0.5161
36896SOL    HW217804   5.508  10.605   6.213  1.2939 -1.3415  1.9110
36897SOL     OW17805   1.979  11.146   4.719  0.1980 -0.1613  0.4332
36897SOL    HW117806   1.969  11.238   4.697 -1.0568 -0.7393 -1.8001
36897SOL    HW217807   2.071  11.127   4.701  0.7810  0.8991  2.1337
36898SOL     OW17808   4.312   5.259   3.407 -0.3950  0.0032 -0.1976
36898SOL    HW117809   4.402   5.256   3.439 -0.7970 -0.9723  0.8942
36898SOL    HW217810   4.310   5.336   3.350  1.3889 -0.5259 -1.0523
36899SOL     OW17811   4.925   9.606   6.021 -0.2718 -0.2154 -0.5740
36899SOL    HW117812   4.922   9.666   5.947 -0.0976  1.9343  1.0803
36899SOL    HW217813   5.014   9.612   6.053 -0.6868 -0.1145  0.5889
36900SOL     OW17814   6.858   0.832   3.807 -0.1774  0.1570 -0.2398
36900SOL    HW117815   6.899   0.745   3.807 -0.3912  0.0485 -0.8054
36900SOL    HW217816   6.772   0.817   3.768 -0.2233  0.6172 -0.3156
36901SOL     OW17817   6.131  12.816   3.394 -1.3217 -0.2842 -0.2331
36901SOL    HW117818   6.177  12.735   3.371  0.4803  0.5130  0.3238
36901SOL    HW217819   6.136  12.869   3.314 -0.6544  0.0436  0.0111
36902SOL     OW17820   9.540   2.694   4.849  0.0325 -0.1662  0.4044
36902SOL    HW117821   9.543   2.786   4.825 -1.0783  0.5716  2.7937
36902SOL    HW217822   9.630   2.674   4.877 -0.0742  0.7049  1.4468
36903SOL     OW17823   1.206   9.739   9.121 -0.0855  0.3398  0.3678
36903SOL    HW117824   1.291   9.755   9.080 -0.7214 -0.3685 -1.2976
36903SOL    HW217825   1.178   9.826   9.150  1.7088  0.4258  2.0801
36904SOL     OW17826   5.123   7.525   0.477 -0.5985  0.3119  0.0605
36904SOL    HW117827   5.137   7.572   0.560 -3.4517  2.4586 -0.5178
36904SOL    HW217828   5.210   7.490   0.455  0.5412  0.7066  3.2810
36905SOL     OW17829   2.305  10.150  11.252 -0.0145 -0.5595 -0.2747
36905SOL    HW117830   2.387  10.193  11.274  0.4253 -1.4637 -0.1055
36905SOL    HW217831   2.256  10.147  11.335 -0.2684  0.0582 -0.3936
36906SOL     OW17832   9.698   1.802  10.945 -0.0810  0.1891 -0.1123
36906SOL    HW117833   9.702   1.848  11.029  0.7260  0.6896 -0.4134
36906SOL    HW217834   9.657   1.718  10.965  1.2422 -0.2125  1.0229
36907SOL     OW17835   9.802  11.434   4.617  0.3574  0.3860 -0.5486
36907SOL    HW117836   9.750  11.418   4.696  0.1171  0.6415 -0.6539
36907SOL    HW217837   9.759  11.382   4.549 -0.1362  1.0735 -0.7776
36908SOL     OW17838  12.096   5.159  10.187  0.3470 -0.1126 -0.3145
36908SOL    HW117839  12.147   5.108  10.251  2.3249 -0.8166 -2.3222
36908SOL    HW217840  12.038   5.095  10.146 -0.1387  0.1127  0.0167
36909SOL     OW17841   8.722   5.701   7.592 -0.0569 -0.1039  0.0313
36909SOL    HW117842   8.776   5.638   7.639 -0.1273  0.5069  0.9619
36909SOL    HW217843   8.776   5.780   7.588 -0.8171  0.4785  0.8800
36910SOL     OW17844   2.968   4.607   8.547  0.1369  0.4136  0.3145
36910SOL    HW117845   2.898   4.672   8.557 -0.5925  0.2832 -2.9372
36910SOL    HW217846   2.926   4.523   8.567 -0.1491  0.5114  0.1293
36911SOL     OW17847   0.090  10.462   9.935  0.6770  0.7256 -0.0755
36911SOL    HW117848   0.087  10.400   9.862  1.1474  1.2780 -0.5836
36911SOL    HW217849   0.027  10.530   9.910  1.6739  1.5074 -0.5429
36912SOL     OW17850   0.757  11.893   0.115  0.6097  0.2512 -0.9621
36912SOL    HW117851   0.680  11.947   0.094 -0.1533 -0.3613  0.1340
36912SOL    HW217852   0.748  11.874   0.208  1.4321 -0.8781 -1.0874
36913SOL     OW17853   4.446   3.013   4.833  0.4104 -0.2952  0.3035
36913SOL    HW117854   4.515   3.024   4.768 -0.2593 -0.8168 -0.5099
36913SOL    HW217855   4.393   2.941   4.800 -1.0637  0.6892  0.4279
36914SOL     OW17856   4.505   4.757  10.950 -0.0483  0.3566 -0.3209
36914SOL    HW117857   4.525   4.670  10.914 -0.7598 -0.4662  1.1686
36914SOL    HW217858   4.431   4.788  10.898 -0.0716 -0.1200 -0.5779
36915SOL     OW17859   2.536   7.371  10.672 -0.2516 -0.0618 -0.0399
36915SOL    HW117860   2.451   7.379  10.629 -0.3909  3.6479  0.5627
36915SOL    HW217861   2.531   7.288  10.720 -3.1093 -0.4829 -0.8778
36916SOL     OW17862  11.916   9.246   1.035  0.0831  0.2007 -0.3558
36916SOL    HW117863  11.927   9.226   1.128  1.9325  0.6879 -0.4372
36916SOL    HW217864  11.834   9.295   1.031 -0.9768 -1.3816  0.7357
36917SOL     OW17865  11.776   1.537   9.551 -0.0531 -0.2048  0.6324
36917SOL    HW117866  11.871   1.534   9.540 -0.1450 -0.0452 -0.3663
36917SOL    HW217867  11.742   1.486   9.477 -0.7815  1.3823 -0.2038
36918SOL     OW17868   8.060   6.426   4.644  0.2440  0.6058 -1.0349
36918SOL    HW117869   8.035   6.486   4.714  2.3957  1.4059 -0.8878
36918SOL    HW217870   7.985   6.367   4.636 -0.7795  1.5650  0.7340
36919SOL     OW17871   3.818   6.357   0.037 -0.2989 -0.0300  0.3780
36919SOL    HW117872   3.824   6.302   0.115 -1.0878 -0.7253 -0.0256
36919SOL    HW217873   3.868   6.435   0.059 -1.9832  0.6083  2.2852
36920SOL     OW17874   8.364   7.140  11.219  0.2924 -0.7014  0.2071
36920SOL    HW117875   8.412   7.139  11.136 -1.8388  1.5431 -1.2170
36920SOL    HW217876   8.423   7.184  11.280  0.5678  0.9436 -1.1596
36921SOL     OW17877   4.632   9.152   9.664  0.2164 -0.1238 -0.3064
36921SOL    HW117878   4.597   9.089   9.727  1.4510  0.6458  1.2143
36921SOL    HW217879   4.688   9.100   9.607  2.2212 -0.3080  1.7004
36922SOL     OW17880  11.001  12.938   0.149  0.6149 -0.1214  0.1211
36922SOL    HW117881  10.943  13.001   0.192 -0.1672  0.5433 -1.8285
36922SOL    HW217882  10.962  12.853   0.170 -1.7742  0.3311 -1.9604
36923SOL     OW17883   5.851   7.523  10.640 -0.7240 -0.2744  0.8141
36923SOL    HW117884   5.826   7.431  10.641 -1.1177 -0.2134 -0.7047
36923SOL    HW217885   5.769   7.570  10.626 -0.3859  0.2342  0.5219
36924SOL     OW17886  11.196   8.925  12.953 -0.0480  0.1521  0.2866
36924SOL    HW117887  11.155   8.894  12.872 -2.5285 -2.0225  2.1887
36924SOL    HW217888  11.159   9.011  12.968  0.2373  0.4644 -0.7237
36925SOL     OW17889   3.707   7.321   1.861  0.0577 -0.2954  0.2594
36925SOL    HW117890   3.629   7.284   1.819  0.2365 -0.6530  0.2377
36925SOL    HW217891   3.678   7.340   1.950  0.1788 -1.2569  0.5213
36926SOL     OW17892  11.165   9.627   8.464 -0.4287 -0.5819 -0.6249
36926SOL    HW117893  11.226   9.558   8.489  0.3885 -0.2666 -1.7086
36926SOL    HW217894  11.169   9.690   8.536 -0.3820 -1.1378 -0.1324
36927SOL     OW17895   1.880   6.361   9.310 -0.1523  0.1880  0.4081
36927SOL    HW117896   1.911   6.400   9.391  1.1027 -0.7321  0.4071
36927SOL    HW217897   1.946   6.384   9.245  0.2552 -1.2776  0.2568
36928SOL     OW17898   9.085   1.799  10.019 -0.2508 -0.0496 -0.2813
36928SOL    HW117899   9.139   1.767   9.947  0.2250  1.0123 -0.4278
36928SOL    HW217900   9.015   1.735  10.027  0.7403 -1.1949 -0.4349
36929SOL     OW17901   1.607  10.471  11.534  0.3239 -1.3540  0.3790
36929SOL    HW117902   1.605  10.427  11.619 -3.0722  0.1959  1.2931
36929SOL    HW217903   1.640  10.405  11.473  2.2101 -2.7400  2.7099
36930SOL     OW17904   6.191  11.028   4.974 -0.3254  0.2530  0.2926
36930SOL    HW117905   6.109  10.998   5.013 -0.1239 -1.4584 -0.5371
36930SOL    HW217906   6.165  11.077   4.896 -0.5625 -0.0733  0.1685
36931SOL     OW17907  10.247   8.079   5.305  0.4921 -0.2919  0.4540
36931SOL    HW117908  10.313   8.023   5.346  0.4374 -1.6579 -1.2606
36931SOL    HW217909  10.287   8.108   5.223 -0.7621 -0.5881 -0.2914
36932SOL     OW17910   4.612   0.819   8.342 -0.4460  0.1855  0.1506
36932SOL    HW117911   4.583   0.737   8.301 -1.5353  0.8733 -0.5337
36932SOL    HW217912   4.560   0.886   8.298 -0.9262  1.0723  1.9963
36933SOL     OW17913   8.084   8.187   5.132  0.2247 -0.2882  0.3938
36933SOL    HW117914   8.166   8.179   5.085  0.0143  1.7149 -0.4050
36933SOL    HW217915   8.110   8.193   5.224  0.8291 -1.3064  0.3057
36934SOL     OW17916   3.752   2.567   8.911  0.4925  0.3718  0.5610
36934SOL    HW117917   3.773   2.583   9.003  0.6203 -1.1473  0.8227
36934SOL    HW217918   3.657   2.581   8.905  0.6031  1.2462  0.7374
36935SOL     OW17919  11.237  10.984  10.709  0.0584  0.4904  0.3450
36935SOL    HW117920  11.328  11.013  10.717  0.0026  0.7958 -0.0893
36935SOL    HW217921  11.196  11.012  10.791  0.2533  0.7437  0.3582
36936SOL     OW17922   9.123   2.170  12.187 -0.9929 -0.4616 -0.1068
36936SOL    HW117923   9.175   2.104  12.142  1.1110  0.8709  0.2148
36936SOL    HW217924   9.143   2.252  12.141  0.1093  0.6996  2.2436
36937SOL     OW17925   0.298   6.446   4.262 -0.0404 -0.2432  0.0367
36937SOL    HW117926   0.209   6.415   4.247 -0.3084  1.0366 -1.2625
36937SOL    HW217927   0.312   6.434   4.356 -1.7834  0.0270  0.3770
36938SOL     OW17928   8.294   3.679  11.765  0.2628  0.3536 -0.0970
36938SOL    HW117929   8.249   3.720  11.691 -0.5595 -0.5659 -0.1250
36938SOL    HW217930   8.246   3.598  11.780  1.8663 -0.6240 -0.0563
36939SOL     OW17931   3.037  12.939   0.299 -0.4695 -0.2392 -0.3300
36939SOL    HW117932   3.075  13.023   0.276 -0.1438 -0.5803 -1.0549
36939SOL    HW217933   2.943  12.952   0.290 -0.4964  0.3365  0.5740
36940SOL     OW17934   7.144   6.116   6.160 -0.0701  0.0968  0.4417
36940SOL    HW117935   7.199   6.194   6.168  0.1688  0.2098 -1.8601
36940SOL    HW217936   7.194   6.047   6.204  1.1599  0.5510 -0.2061
36941SOL     OW17937   6.743   3.907   0.377  0.5768 -0.0559 -0.0249
36941SOL    HW117938   6.780   3.841   0.319 -0.8752 -0.4553 -0.5174
36941SOL    HW217939   6.774   3.990   0.342 -2.2096 -0.0613 -2.9692
36942SOL     OW17940  11.446  12.360   5.713 -0.0161  0.3508 -0.3354
36942SOL    HW117941  11.483  12.447   5.727 -0.5207  0.5514 -0.1998
36942SOL    HW217942  11.372  12.374   5.654 -2.5592  0.6676  2.6198
36943SOL     OW17943   4.650   3.670   5.800 -0.0573  0.0959 -0.7508
36943SOL    HW117944   4.591   3.612   5.848 -0.3073  0.2135 -0.9123
36943SOL    HW217945   4.720   3.612   5.768 -0.4376 -0.1659 -1.1284
36944SOL     OW17946   6.048  10.140   0.335  0.0591  0.6912 -0.2690
36944SOL    HW117947   6.062  10.060   0.284 -1.7047 -0.4983  0.9792
36944SOL    HW217948   5.958  10.131   0.368  0.3365  2.5133  1.1082
36945SOL     OW17949  11.906   8.558   3.677 -0.1511  0.1082 -0.6280
36945SOL    HW117950  11.949   8.554   3.591  0.2695  1.6698 -0.5203
36945SOL    HW217951  11.951   8.491   3.729  0.3712 -0.0662 -1.2872
36946SOL     OW17952   3.254  11.097   4.148 -0.2439  0.4961  0.0959
36946SOL    HW117953   3.236  11.092   4.054  0.3674  2.8218 -0.2082
36946SOL    HW217954   3.311  11.022   4.166 -2.4484 -1.5170 -0.7985
36947SOL     OW17955   1.316   3.768   9.056  0.0975  0.4150  0.0710
36947SOL    HW117956   1.375   3.714   9.003 -1.5110 -0.0368 -1.3960
36947SOL    HW217957   1.235   3.771   9.004 -2.0875 -1.1367  3.0753
36948SOL     OW17958   7.265  10.437   1.360  0.3161 -0.3759  0.2392
36948SOL    HW117959   7.312  10.520   1.359 -1.6623  0.8044  0.5123
36948SOL    HW217960   7.226  10.432   1.447 -1.1914 -0.6311 -0.4209
36949SOL     OW17961   9.344   2.170   0.158  0.2243 -0.0570 -0.3872
36949SOL    HW117962   9.385   2.128   0.083 -1.7050 -1.3084 -0.8311
36949SOL    HW217963   9.413   2.222   0.199  1.4299  0.3031 -2.7621
36950SOL     OW17964   5.248   5.432   0.806 -0.4730 -0.0536  0.3735
36950SOL    HW117965   5.245   5.356   0.747 -1.0740  0.0744  0.2325
36950SOL    HW217966   5.156   5.450   0.827 -0.2461 -0.5116  1.9006
36951SOL     OW17967   0.065   4.561   3.357 -0.3861  0.0175 -0.4735
36951SOL    HW117968   0.023   4.647   3.364  0.1936  0.2986 -0.4207
36951SOL    HW217969  -0.005   4.498   3.378 -0.5790  0.5129  0.3906
36952SOL     OW17970   0.417  12.411  11.615  0.2910 -0.4117 -0.7507
36952SOL    HW117971   0.457  12.325  11.604  0.2037 -0.4097 -1.0930
36952SOL    HW217972   0.349  12.415  11.548  0.7365  0.1878 -1.1736
36953SOL     OW17973   6.192   9.725   7.846 -0.5470  0.3708 -0.0688
36953SOL    HW117974   6.178   9.809   7.802  2.8768  1.3800  0.4599
36953SOL    HW217975   6.198   9.661   7.775  0.6157  1.2622 -0.8195
36954SOL     OW17976   9.342   7.686  10.046 -0.3325  0.3862  0.1985
36954SOL    HW117977   9.273   7.620  10.057  0.0613  0.0327  0.5405
36954SOL    HW217978   9.366   7.710  10.135  0.8223 -0.3566  0.0969
36955SOL     OW17979  11.498   9.378   7.158 -0.1238 -0.0805  0.5340
36955SOL    HW117980  11.499   9.327   7.077 -0.5381 -2.1077  1.7330
36955SOL    HW217981  11.572   9.438   7.148 -0.3461 -0.0431 -1.4591
36956SOL     OW17982   5.682   3.615  12.877 -0.4416 -0.1960  0.0287
36956SOL    HW117983   5.768   3.633  12.839 -0.4280 -0.7134 -0.1813
36956SOL    HW217984   5.684   3.660  12.961  0.9346 -2.1931  1.1279
36957SOL     OW17985  12.927   1.718  12.268  0.3430  0.0651 -0.4147
36957SOL    HW117986  12.980   1.781  12.316  0.5104 -0.7869  0.5680
36957SOL    HW217987  12.982   1.691  12.195  1.0949 -0.4453  0.3168
36958SOL     OW17988  12.753   7.799   7.627  0.4160  0.2363  0.0306
36958SOL    HW117989  12.767   7.760   7.541  3.1578 -0.5870  0.7489
36958SOL    HW217990  12.723   7.727   7.682 -2.8057  1.0620 -0.4518
36959SOL     OW17991   8.068   4.915  11.067 -0.2141 -0.1518 -0.2685
36959SOL    HW117992   8.155   4.925  11.105  0.5987 -1.1793 -1.7532
36959SOL    HW217993   8.010   4.958  11.129  1.1052 -1.1229  1.7468
36960SOL     OW17994   7.501   6.110   0.538  0.8001  0.2264  0.4162
36960SOL    HW117995   7.541   6.151   0.462  0.6850  0.6787  0.5990
36960SOL    HW217996   7.570   6.056   0.576  0.7254 -0.3675 -0.2743
36961SOL     OW17997   2.199  10.928   0.202  0.2700 -0.2443  0.4513
36961SOL    HW117998   2.238  10.968   0.280  1.2488 -0.4292  0.0642
36961SOL    HW217999   2.170  11.002   0.149 -0.3080 -0.1156  0.9351
36962SOL     OW18000  10.177   4.674   5.511 -0.1189 -0.0520 -0.5113
36962SOL    HW118001  10.233   4.681   5.434  0.0046  0.9002 -0.3478
36962SOL    HW218002  10.224   4.721   5.580 -1.0932  0.7613 -0.3686
36963SOL     OW18003   8.878  11.645   8.178  0.0689 -0.2879  0.3780
36963SOL    HW118004   8.809  11.707   8.203  1.9012  1.4032  1.5460
36963SOL    HW218005   8.939  11.647   8.252  0.7886 -2.6586 -0.0731
36964SOL     OW18006   6.743   1.773   3.732 -0.2495 -0.0248  0.2329
36964SOL    HW118007   6.744   1.851   3.788 -1.3122  0.8054 -0.8506
36964SOL    HW218008   6.755   1.807   3.644  0.9188 -1.2755 -0.1146
36965SOL     OW18009   8.276   2.622   2.074  0.2481  0.1449  0.6806
36965SOL    HW118010   8.280   2.579   2.160 -0.4789  0.7921  1.0476
36965SOL    HW218011   8.267   2.550   2.012  0.4091 -0.3113  1.1775
36966SOL     OW18012   7.447   7.056   0.815  0.3775 -0.7272  0.1035
36966SOL    HW118013   7.358   7.072   0.783  0.6548 -1.8412 -1.2613
36966SOL    HW218014   7.452   6.961   0.827  1.9222 -0.8925 -1.5291
36967SOL     OW18015  12.082  11.402   3.305 -0.6788  0.2152  0.5134
36967SOL    HW118016  12.052  11.492   3.291  0.8062  1.0887  2.4685
36967SOL    HW218017  12.010  11.360   3.353  0.5257  1.9803  4.2418
36968SOL     OW18018   9.649  10.636   4.150  0.3149 -0.2496  0.5652
36968SOL    HW118019   9.576  10.576   4.138 -1.0659  0.9684  2.3165
36968SOL    HW218020   9.708  10.590   4.210 -1.4393  0.5612  3.0904
36969SOL     OW18021   4.630   5.330   2.218 -0.2641  0.0269  0.4998
36969SOL    HW118022   4.593   5.409   2.257 -2.0936 -0.6143  0.1569
36969SOL    HW218023   4.612   5.261   2.281  0.0364 -0.3771  0.1477
36970SOL     OW18024   3.631   6.142  10.614  0.4392  0.3273  0.5620
36970SOL    HW118025   3.700   6.075  10.626  1.9698  1.6196 -0.5656
36970SOL    HW218026   3.637   6.197  10.692 -1.8892 -1.6280  2.2825
36971SOL     OW18027  10.733   8.429   0.607  0.0004 -0.5782  0.1087
36971SOL    HW118028  10.675   8.421   0.683 -0.7685  0.3970 -0.3561
36971SOL    HW218029  10.677   8.407   0.532  0.2257  0.3273 -0.3421
36972SOL     OW18030   9.627   6.945   9.831  0.0535  1.1442 -0.4986
36972SOL    HW118031   9.707   6.914   9.788  0.0457  0.5634 -0.0999
36972SOL    HW218032   9.582   6.997   9.764  1.7054  3.1534 -0.1424
36973SOL     OW18033  11.319  11.422   9.457  0.1828  0.0928 -0.3811
36973SOL    HW118034  11.386  11.390   9.517  0.5855  0.4201 -0.6523
36973SOL    HW218035  11.359  11.496   9.413  0.3607 -0.8839 -1.9641
36974SOL     OW18036   2.022   4.181  12.245 -0.0483  0.2152  0.6161
36974SOL    HW118037   2.035   4.275  12.261  0.8610  0.0059  1.1960
36974SOL    HW218038   2.062   4.166  12.159  3.2371 -0.2884  2.0834
36975SOL     OW18039   1.612   1.095   0.962  0.0331  0.1413  0.2074
36975SOL    HW118040   1.572   1.037   1.027  2.2395 -0.2642  1.3027
36975SOL    HW218041   1.609   1.182   1.002  0.6806  0.0275  0.5037
36976SOL     OW18042   9.620  10.940  11.582  0.2090 -0.0545  0.0469
36976SOL    HW118043   9.531  10.930  11.614  0.2620 -1.1218 -0.1131
36976SOL    HW218044   9.648  11.025  11.616 -0.1855 -0.5597  1.7424
36977SOL     OW18045   2.680   9.610   6.521 -0.1857 -0.3100 -0.0074
36977SOL    HW118046   2.675   9.528   6.473 -0.2986  0.7654 -1.9412
36977SOL    HW218047   2.769   9.642   6.503 -0.8850  1.0675 -1.2289
36978SOL     OW18048   4.107   1.392  11.606 -0.2908 -0.3876 -0.2696
36978SOL    HW118049   4.071   1.343  11.680  0.8753 -0.7456  0.0904
36978SOL    HW218050   4.179   1.337  11.574  0.0666  0.3839 -0.8298
36979SOL     OW18051  12.691   4.931  12.040  0.3339 -0.4283  0.4154
36979SOL    HW118052  12.655   4.928  11.952  0.0027 -0.3387  0.5452
36979SOL    HW218053  12.703   5.024  12.059  1.3138 -0.4784  0.1066
36980SOL     OW18054  10.816   3.702  10.921  0.4109  0.1916 -0.8209
36980SOL    HW118055  10.736   3.750  10.943 -2.3909 -4.0630 -0.5774
36980SOL    HW218056  10.828   3.719  10.828 -0.8006  0.9483 -0.8711
36981SOL     OW18057  10.622   2.252  11.721  0.9341 -0.3575 -0.7013
36981SOL    HW118058  10.612   2.315  11.650  1.0618 -1.5424 -1.8181
36981SOL    HW218059  10.570   2.177  11.694 -0.8064 -0.0502  1.5139
36982SOL     OW18060  10.331   7.174   9.316  0.2610  0.2931 -0.2392
36982SOL    HW118061  10.346   7.081   9.301  0.0585 -0.8069  4.7115
36982SOL    HW218062  10.236   7.181   9.326  0.3943  0.6106  1.0396
36983SOL     OW18063  11.121   7.219  12.839  0.2849 -0.1982  0.2178
36983SOL    HW118064  11.135   7.130  12.805  0.6770 -1.1085  2.5994
36983SOL    HW218065  11.107   7.272  12.760  1.5401 -2.0690 -1.3650
36984SOL     OW18066   1.982   4.675   1.240  0.0983  0.6997  0.0881
36984SOL    HW118067   1.955   4.657   1.329 -0.8017  0.7405 -0.1694
36984SOL    HW218068   1.982   4.771   1.233  4.2398  0.9955  1.2583
36985SOL     OW18069   9.340   4.201   9.527 -0.2309 -0.3724 -0.1909
36985SOL    HW118070   9.250   4.168   9.538 -0.2907 -0.5039 -1.0110
36985SOL    HW218071   9.355   4.256   9.605 -1.0895 -0.1934 -0.1379
36986SOL     OW18072   0.167   3.992  10.269  1.2692 -0.2692 -0.0002
36986SOL    HW118073   0.162   3.985  10.173  0.8178  1.4746 -0.1334
36986SOL    HW218074   0.078   4.017  10.296  1.3882 -0.7643  0.8791
36987SOL     OW18075  12.110   8.505   4.002 -0.3603 -0.0669 -0.1633
36987SOL    HW118076  12.183   8.567   4.005 -0.7121  0.4501 -1.6672
36987SOL    HW218077  12.140   8.430   4.054  0.4371  0.9553  0.9169
36988SOL     OW18078   1.852   1.465   1.251 -0.1170  0.1078 -0.3948
36988SOL    HW118079   1.868   1.497   1.340  1.7156 -0.5574 -0.4384
36988SOL    HW218080   1.757   1.457   1.245 -0.5226  3.0537  0.4540
36989SOL     OW18081   3.586   9.698   8.208  0.4983 -0.1366 -0.2515
36989SOL    HW118082   3.615   9.780   8.168  0.7250  0.5506  1.2739
36989SOL    HW218083   3.593   9.634   8.137  0.8063  1.0467 -1.3327
36990SOL     OW18084   9.659   8.176   8.777 -0.2750  0.3966 -0.3644
36990SOL    HW118085   9.674   8.083   8.797 -0.6604  0.2064 -0.9547
36990SOL    HW218086   9.723   8.222   8.832 -0.3387 -0.1920  0.2222
36991SOL     OW18087   4.075   8.382   2.968 -0.5626  0.7144 -0.5600
36991SOL    HW118088   4.069   8.291   2.939 -0.0871  0.9451 -1.4057
36991SOL    HW218089   4.110   8.429   2.893  1.0206  1.2775  0.4972
36992SOL     OW18090  11.152  11.807  10.851  0.4186 -0.1815  0.5780
36992SOL    HW118091  11.148  11.900  10.830  0.7910 -0.2794  0.0536
36992SOL    HW218092  11.161  11.804  10.946  2.3568  0.3834  0.4557
36993SOL     OW18093   9.832   9.574   1.741  0.2218  0.2194  0.5901
36993SOL    HW118094   9.779   9.654   1.750  0.2391  0.1539  1.3253
36993SOL    HW218095   9.920   9.601   1.764  0.6121  0.4165 -1.0074
36994SOL     OW18096   5.557  10.600   4.648 -0.4832  0.4148  0.2027
36994SOL    HW118097   5.610  10.558   4.716  2.2744  1.1008 -1.3959
36994SOL    HW218098   5.554  10.692   4.674 -0.4758  0.4705  0.0012
36995SOL     OW18099   3.800   8.821  10.219 -0.1001  0.0847 -0.5216
36995SOL    HW118100   3.786   8.914  10.204 -2.0555 -0.1459 -0.3423
36995SOL    HW218101   3.885   8.816  10.263 -0.3549  1.8518  0.2320
36996SOL     OW18102   1.507   7.173   4.970  0.9450 -0.0219  0.5244
36996SOL    HW118103   1.502   7.136   4.882  2.1815 -0.9716  0.8322
36996SOL    HW218104   1.457   7.255   4.964 -2.3586 -1.8668 -0.0690
36997SOL     OW18105   8.949   1.921   2.924 -0.4398 -0.0715  0.6118
36997SOL    HW118106   8.956   1.925   2.829 -1.0317 -0.1538  0.5574
36997SOL    HW218107   8.996   1.998   2.955  0.5684 -0.5475  0.3058
36998SOL     OW18108   7.592   4.420  11.686 -0.7947 -0.3691  0.2146
36998SOL    HW118109   7.675   4.382  11.713 -1.6687 -0.3523  3.3703
36998SOL    HW218110   7.615   4.485  11.620  1.4121 -1.7724 -0.5016
36999SOL     OW18111   2.684   4.970   2.482  0.4962 -0.2105  0.5048
36999SOL    HW118112   2.704   5.063   2.468 -1.4498  0.2558  0.3939
36999SOL    HW218113   2.706   4.954   2.574  1.3338  0.2154  0.3847
37000SOL     OW18114   8.165   1.615  12.760 -0.5458 -0.5322 -0.2965
37000SOL    HW118115   8.137   1.585  12.847  0.5456  1.5252  0.8677
37000SOL    HW218116   8.093   1.669  12.729 -0.5945 -0.5893 -0.2836
37001SOL     OW18117   5.894   6.302  10.853 -0.5529  0.4769 -0.3688
37001SOL    HW118118   5.912   6.218  10.810 -0.1853  0.3595  0.0133
37001SOL    HW218119   5.872   6.361  10.780  1.2501  0.5914 -0.8655
37002SOL     OW18120   1.540   3.750   5.059  0.6390  0.4399 -0.5259
37002SOL    HW118121   1.596   3.813   5.105 -0.2404  0.3532  0.6961
37002SOL    HW218122   1.504   3.800   4.986 -0.9497  1.7628  1.0615
37003SOL     OW18123   1.597   4.091   7.749 -0.1214  0.3129 -0.0008
37003SOL    HW118124   1.556   4.165   7.795  0.6449  0.7970 -0.0773
37003SOL    HW218125   1.544   4.015   7.774 -0.1780  0.6824  1.0840
37004SOL     OW18126  10.908  12.268   0.744  0.0964 -0.1131 -0.0819
37004SOL    HW118127  10.941  12.251   0.833  3.3000 -0.8445 -1.2736
37004SOL    HW218128  10.836  12.206   0.733  0.4686 -0.9052  1.5527
37005SOL     OW18129   6.529  12.746   4.950 -0.3166 -0.0117 -0.8800
37005SOL    HW118130   6.520  12.841   4.953 -3.5972 -0.2202  0.0805
37005SOL    HW218131   6.534  12.725   4.857 -0.0783  1.0526 -1.1196
37006SOL     OW18132   6.395  12.555   0.166 -0.6199  0.4163 -0.2526
37006SOL    HW118133   6.304  12.580   0.181 -0.6034 -0.4821  1.5582
37006SOL    HW218134   6.446  12.629   0.200 -0.6499  0.4457 -0.2718
37007SOL     OW18135   5.592   6.417   9.249 -0.2075  0.2897 -0.0680
37007SOL    HW118136   5.579   6.424   9.343 -0.4747 -0.1242 -0.0688
37007SOL    HW218137   5.529   6.478   9.211  0.0029  0.5668  0.0220
37008SOL     OW18138   6.329  10.671  11.877 -0.2937 -0.7894 -0.0928
37008SOL    HW118139   6.312  10.655  11.785 -0.3509 -2.2003  0.1336
37008SOL    HW218140   6.301  10.762  11.892 -1.2253 -0.8678 -1.2342
37009SOL     OW18141   0.823  11.849   0.396 -0.0669 -0.6545  0.1042
37009SOL    HW118142   0.794  11.865   0.485  1.3482  2.4219  0.1468
37009SOL    HW218143   0.908  11.804   0.406  1.0354  1.3996  0.4628
37010SOL     OW18144   6.511   2.873   6.833  0.7945 -0.0101  0.0359
37010SOL    HW118145   6.546   2.804   6.776  0.5476 -0.9288  0.9744
37010SOL    HW218146   6.515   2.836   6.921 -0.1507  0.8411  0.4585
37011SOL     OW18147   3.078   8.325  12.844 -0.4521  0.0497 -0.3625
37011SOL    HW118148   3.167   8.356  12.864  0.1024 -1.6092 -0.0885
37011SOL    HW218149   3.041   8.303  12.929 -1.1177  0.6691 -0.4862
37012SOL     OW18150   1.326   6.716   3.398  0.1228  0.1404  0.3942
37012SOL    HW118151   1.405   6.707   3.344  0.8369 -1.1236  1.5887
37012SOL    HW218152   1.289   6.628   3.401 -1.3297  0.7042 -0.0981
37013SOL     OW18153  12.535   5.641   5.463 -0.1367 -0.1138 -0.0950
37013SOL    HW118154  12.621   5.670   5.435 -0.8949  1.6996 -0.6869
37013SOL    HW218155  12.495   5.602   5.385 -0.2653  0.0744 -0.1249
37014SOL     OW18156   5.946   2.909   6.070 -0.4891  0.2596 -0.1596
37014SOL    HW118157   5.875   2.846   6.084 -0.6050  0.1123 -1.3072
37014SOL    HW218158   5.913   2.966   6.000  0.4323  0.3215 -0.5551
37015SOL     OW18159   8.145   0.005   0.023 -0.5473 -0.6050 -0.3143
37015SOL    HW118160   8.159  -0.012   0.116 -3.0343  1.1245  0.4856
37015SOL    HW218161   8.143   0.101   0.016  1.1406 -0.6327 -2.4775
37016SOL     OW18162   4.163   4.410   4.299  0.1244 -0.2179 -0.6260
37016SOL    HW118163   4.093   4.388   4.360  0.7881 -0.3228  0.1194
37016SOL    HW218164   4.146   4.500   4.274 -0.1236 -0.1531 -0.2336
37017SOL     OW18165  10.708   6.791   5.993 -0.1619 -0.5563  0.0129
37017SOL    HW118166  10.660   6.873   5.988 -0.4464 -0.7255 -0.0199
37017SOL    HW218167  10.644   6.723   5.972  0.2887 -0.7221 -0.8740
37018SOL     OW18168   6.230  11.787   1.170  0.4060 -0.2323 -0.0446
37018SOL    HW118169   6.262  11.698   1.158  1.8990  0.4396 -1.3195
37018SOL    HW218170   6.138  11.783   1.143  0.5242 -1.3411 -0.3135
37019SOL     OW18171   2.754   2.777   7.100 -0.1701 -0.0458 -0.2106
37019SOL    HW118172   2.697   2.855   7.103  1.5703  1.2586  0.6485
37019SOL    HW218173   2.810   2.792   7.024  0.2601 -0.3980  0.0377
37020SOL     OW18174   9.875   8.888   6.449 -0.5137  0.2512  0.3309
37020SOL    HW118175   9.965   8.891   6.481 -0.8500 -0.1611  1.3537
37020SOL    HW218176   9.828   8.955   6.498 -0.5260  1.2887 -1.0425
37021SOL     OW18177   8.109   7.726   9.656  0.2008  0.1954  0.1365
37021SOL    HW118178   8.049   7.789   9.696 -1.9158 -1.0199 -0.8963
37021SOL    HW218179   8.148   7.678   9.729 -2.0435 -0.6405  0.8689
37022SOL     OW18180   8.604   0.469   5.200 -0.1920  0.3966  0.1389
37022SOL    HW118181   8.695   0.483   5.174  0.5676 -1.6792  1.4273
37022SOL    HW218182   8.557   0.459   5.118  1.3906 -1.9156 -0.5894
37023SOL     OW18183   3.467  10.339   2.454 -0.3533  0.5107 -0.6169
37023SOL    HW118184   3.527  10.402   2.413  0.7115 -1.6659 -2.5963
37023SOL    HW218185   3.524  10.273   2.493 -1.4334 -0.3438 -0.4419
37024SOL     OW18186  10.742   5.712   5.801 -0.0541 -0.4858 -0.0607
37024SOL    HW118187  10.776   5.622   5.800  0.2339 -0.3970 -1.6789
37024SOL    HW218188  10.679   5.713   5.872 -0.4115 -2.1217 -0.3064
37025SOL     OW18189  11.860   0.511   1.021 -0.2936 -0.3820  0.3295
37025SOL    HW118190  11.895   0.599   1.036 -1.0292  0.1711 -1.0145
37025SOL    HW218191  11.863   0.499   0.926 -1.9486 -1.0529  0.3120
37026SOL     OW18192  12.300  11.079   9.268 -0.2993 -0.0707 -0.3581
37026SOL    HW118193  12.310  11.138   9.194 -1.7473 -0.2391 -0.7213
37026SOL    HW218194  12.210  11.046   9.260  0.1195 -1.4802  0.4499
37027SOL     OW18195  11.554  10.410   6.411  0.7043  0.0898 -0.4898
37027SOL    HW118196  11.610  10.437   6.484  0.5886  0.0348 -0.3812
37027SOL    HW218197  11.500  10.487   6.393  0.8831  0.1774 -0.6610
37028SOL     OW18198  11.615   6.461   9.200 -0.7793  0.0238  0.0908
37028SOL    HW118199  11.580   6.524   9.262  0.3003 -0.0029  0.7577
37028SOL    HW218200  11.689   6.506   9.158  0.7405 -1.1075  1.3878
37029SOL     OW18201   8.855  12.651   7.027 -0.4675 -0.4278  0.4149
37029SOL    HW118202   8.839  12.561   7.000  0.3707 -0.4556 -0.0291
37029SOL    HW218203   8.865  12.646   7.123  1.6550 -1.1736  0.2149
37030SOL     OW18204   8.738   8.670   5.706 -0.2893 -0.1707  0.0027
37030SOL    HW118205   8.803   8.599   5.705  0.2107  0.2866 -0.4378
37030SOL    HW218206   8.786   8.747   5.676 -0.8896  0.3085  0.2512
37031SOL     OW18207   0.969   5.284   5.392 -0.1170 -0.0072  0.3139
37031SOL    HW118208   0.934   5.243   5.313 -0.0083  0.8517 -0.1912
37031SOL    HW218209   1.054   5.319   5.366  0.0735 -0.0171  0.9059
37032SOL     OW18210   3.876   5.859   2.998 -0.3616 -0.0845 -0.0024
37032SOL    HW118211   3.958   5.878   3.042  0.4490  1.3038 -1.9715
37032SOL    HW218212   3.901   5.815   2.917 -1.5986 -0.0710 -0.4252
37033SOL     OW18213   4.962  12.635   1.771  0.1775  0.0423  0.2156
37033SOL    HW118214   5.043  12.588   1.788  1.1893  1.9023  0.7482
37033SOL    HW218215   4.952  12.634   1.676  0.8607 -0.1331  0.1468
37034SOL     OW18216   6.128   1.119   0.829  0.4828  0.5915 -0.3852
37034SOL    HW118217   6.060   1.187   0.826 -1.1750 -0.9935 -0.6988
37034SOL    HW218218   6.171   1.132   0.913 -1.6137  0.4115  0.7870
37035SOL     OW18219   3.509   1.188   4.506  0.3681  0.3246  0.0269
37035SOL    HW118220   3.538   1.269   4.463  0.0892 -0.3266 -1.4327
37035SOL    HW218221   3.591   1.144   4.530  0.5443  0.2408 -0.7124
37036SOL     OW18222   8.721   3.923  10.194 -0.1176  0.3659  0.1646
37036SOL    HW118223   8.654   3.875  10.145 -1.4299  1.8666  0.3991
37036SOL    HW218224   8.798   3.867  10.190 -0.6849 -0.3853 -2.0961
37037SOL     OW18225   5.770   0.067   0.043  0.3961  0.3798 -0.0471
37037SOL    HW118226   5.677   0.083   0.024 -0.1935  0.2529  2.4451
37037SOL    HW218227   5.785   0.110   0.126  2.9609  1.4873 -0.9935
37038SOL     OW18228   1.430   7.987   3.360  0.3374 -0.8211  0.8230
37038SOL    HW118229   1.433   7.913   3.421  0.0520  0.6925  2.7400
37038SOL    HW218230   1.521   8.013   3.348  0.2805 -0.0113  2.0428
37039SOL     OW18231  11.100   1.634   4.558 -0.2976 -0.4873 -0.5675
37039SOL    HW118232  11.043   1.633   4.635 -0.8341 -2.8728 -0.9177
37039SOL    HW218233  11.081   1.551   4.513 -1.1181  1.4372 -4.1302
37040SOL     OW18234   8.932   9.177  12.495 -0.1748  0.5114 -0.0509
37040SOL    HW118235   8.928   9.272  12.507 -0.2540  0.3901  0.9854
37040SOL    HW218236   8.841   9.148  12.500 -0.1214  0.3408 -0.0736
37041SOL     OW18237   6.949   6.885   3.012  0.6877  0.1042  0.6809
37041SOL    HW118238   6.873   6.888   3.070 -0.3009 -0.5942 -0.5232
37041SOL    HW218239   7.000   6.810   3.044  0.8605  0.5541  1.4741
37042SOL     OW18240   0.077   1.574   3.320 -0.4081  0.6081 -0.3701
37042SOL    HW118241   0.034   1.505   3.370 -0.0164  1.2725  0.9288
37042SOL    HW218242   0.159   1.590   3.367 -0.4250  1.8495 -0.7236
37043SOL     OW18243   8.954   3.827   1.728  0.0844 -0.2465 -0.0763
37043SOL    HW118244   8.958   3.885   1.652 -1.4921 -0.1745 -0.1415
37043SOL    HW218245   8.863   3.834   1.759  1.1035  1.3046  3.0518
37044SOL     OW18246  11.530   2.766   1.006  0.8537  0.2938  0.1734
37044SOL    HW118247  11.605   2.825   0.996 -0.0589  1.3146 -0.9264
37044SOL    HW218248  11.538   2.733   1.096  2.6724  0.2727  0.0443
37045SOL     OW18249   4.827   1.652   9.785  0.8147 -0.2704 -0.5660
37045SOL    HW118250   4.774   1.606   9.850  0.8751  0.2240 -0.1669
37045SOL    HW218251   4.899   1.689   9.835  0.8089  0.1953 -0.9014
37046SOL     OW18252  10.208   9.209   1.977  0.3294 -0.1465 -0.1321
37046SOL    HW118253  10.193   9.302   1.994  0.3152  0.4780 -3.0340
37046SOL    HW218254  10.219   9.204   1.882 -0.8156 -3.2871 -0.2014
37047SOL     OW18255  10.243   0.100   1.573  0.1750  0.1357 -0.1393
37047SOL    HW118256  10.313   0.041   1.603  0.8815  0.5537 -0.9124
37047SOL    HW218257  10.253   0.178   1.627 -1.3983 -0.7999  1.5821
37048SOL     OW18258   9.013  10.434   1.322  0.2339  0.5602 -0.3371
37048SOL    HW118259   8.992  10.526   1.303  0.8403  0.7270 -0.1931
37048SOL    HW218260   8.965  10.415   1.403 -2.2073 -0.0956 -1.8146
37049SOL     OW18261   1.108   0.835   9.980  0.5883 -0.2062  0.4547
37049SOL    HW118262   1.191   0.849   9.934  0.8982 -0.1797  1.0101
37049SOL    HW218263   1.051   0.793   9.915  1.0054 -0.1435  0.0418
37050SOL     OW18264   6.229   5.388   2.731  0.5840 -0.0232 -0.4918
37050SOL    HW118265   6.198   5.478   2.728  2.3791  0.7478  1.4436
37050SOL    HW218266   6.269   5.374   2.645  1.8934  1.7039 -0.2199
37051SOL     OW18267   8.626  10.977  10.137  0.0359 -0.0491  0.3570
37051SOL    HW118268   8.550  10.960  10.192 -0.2792  1.1877  0.3232
37051SOL    HW218269   8.701  10.962  10.195 -0.2913  3.2502  1.8673
37052SOL     OW18270   6.870   3.126   0.539 -0.1849 -0.7416  0.6054
37052SOL    HW118271   6.956   3.150   0.503  0.1629 -2.0951  0.4972
37052SOL    HW218272   6.888   3.050   0.594 -0.9003  0.4843  2.6597
37053SOL     OW18273   4.014   6.614   5.246 -0.4422  0.5089  0.2663
37053SOL    HW118274   3.963   6.591   5.324 -1.4635  2.8837  0.4010
37053SOL    HW218275   3.954   6.667   5.193  1.6030  2.7719  0.0438
37054SOL     OW18276   4.731   0.513   3.145 -0.1030 -0.2767  0.1119
37054SOL    HW118277   4.747   0.515   3.051 -1.6527  0.5090 -0.1861
37054SOL    HW218278   4.703   0.603   3.166 -1.0186 -0.7558  1.0522
37055SOL     OW18279   9.752   3.320  11.600  0.2824 -0.1321 -0.3011
37055SOL    HW118280   9.662   3.294  11.578  0.4177  0.2272 -1.2713
37055SOL    HW218281   9.742   3.372  11.680 -0.1643 -1.7467  0.7582
37056SOL     OW18282   7.726   0.009   9.503 -0.0420  0.5823  0.3273
37056SOL    HW118283   7.766  -0.055   9.562  0.2473 -0.0237 -0.5034
37056SOL    HW218284   7.712  -0.039   9.421 -1.9855  0.9260  0.4045
37057SOL     OW18285   1.660   6.435   7.718 -0.3315 -0.4722 -0.6353
37057SOL    HW118286   1.702   6.351   7.738 -1.3253 -0.7567  0.3716
37057SOL    HW218287   1.625   6.465   7.801 -0.1230  0.8903 -1.0150
37058SOL     OW18288   2.304   7.179   1.076  0.6226 -0.0306  0.1282
37058SOL    HW118289   2.275   7.229   1.152 -0.0101  0.7729 -0.6075
37058SOL    HW218290   2.222   7.155   1.031  0.9973  0.2500 -0.7373
37059SOL     OW18291   7.907   5.536   8.015 -0.7241  0.3100  0.2034
37059SOL    HW118292   7.901   5.612   7.958 -0.4747 -0.1853 -0.5076
37059SOL    HW218293   7.824   5.491   8.004 -2.2544  2.1156  3.0982
37060SOL     OW18294  11.925   9.634   9.614 -0.3354  0.0648 -0.4675
37060SOL    HW118295  11.888   9.567   9.556  0.0999  0.7892 -1.6207
37060SOL    HW218296  11.854   9.696   9.628 -0.5776 -0.3451  0.1648
37061SOL     OW18297  10.027  11.217   7.409  0.1278 -0.1134  0.0914
37061SOL    HW118298  10.015  11.215   7.504  1.4287  0.9442  0.3160
37061SOL    HW218299  10.078  11.139   7.389  2.3660  1.0998  0.7213
37062SOL     OW18300   5.631  11.498   7.865 -0.3686  0.1195 -0.0231
37062SOL    HW118301   5.600  11.504   7.775  0.0593 -2.3845 -0.4111
37062SOL    HW218302   5.722  11.527   7.862 -0.2518 -0.2919 -0.4661
37063SOL     OW18303  10.691   3.835   6.395 -0.6792 -0.1361  0.3489
37063SOL    HW118304  10.630   3.762   6.385 -0.2789 -0.7768  2.2035
37063SOL    HW218305  10.647   3.909   6.354 -1.6822 -1.0991 -0.3832
37064SOL     OW18306   8.363   3.992  12.295  0.5642  0.3796  0.3536
37064SOL    HW118307   8.380   4.040  12.214  2.7705 -1.2320 -0.2279
37064SOL    HW218308   8.316   3.914  12.267 -0.3832  0.7423  0.9033
37065SOL     OW18309  10.498  12.250   5.943 -0.0177 -0.4033 -0.4132
37065SOL    HW118310  10.453  12.329   5.971  0.3800 -0.1504 -0.4796
37065SOL    HW218311  10.575  12.281   5.896 -0.3692 -0.8304 -1.2782
37066SOL     OW18312   3.277  11.375   2.146  0.0174  0.5556  0.2906
37066SOL    HW118313   3.261  11.352   2.238  0.9395  1.3270  0.6618
37066SOL    HW218314   3.369  11.354   2.132 -0.3511 -0.4226 -0.7441
37067SOL     OW18315   9.497   8.485   2.625  0.1311  0.0852  0.1145
37067SOL    HW118316   9.545   8.468   2.706 -0.1603 -2.5484 -0.1885
37067SOL    HW218317   9.557   8.457   2.555 -0.2352  0.8111 -0.5101
37068SOL     OW18318  11.535   6.599   8.021  0.3124 -0.6111 -0.0758
37068SOL    HW118319  11.445   6.573   8.000  0.2078  0.4194 -1.0329
37068SOL    HW218320  11.563   6.537   8.088 -0.6775 -1.7264 -0.6583
37069SOL     OW18321  10.043   2.465   7.981 -0.8353  0.5900 -0.2783
37069SOL    HW118322  10.063   2.394   7.920  0.0574  1.7543 -1.4040
37069SOL    HW218323  10.119   2.471   8.038 -0.9810  0.5380 -0.0767
37070SOL     OW18324   1.362   7.885   7.838 -0.2273 -0.0066 -0.7555
37070SOL    HW118325   1.347   7.970   7.878  0.2280  0.4547 -1.5501
37070SOL    HW218326   1.357   7.901   7.744 -0.2523 -0.8815 -0.9175
37071SOL     OW18327   6.493   1.606   4.478 -0.1579  0.0827 -0.2408
37071SOL    HW118328   6.550   1.532   4.459 -0.8331 -1.2201  2.3843
37071SOL    HW218329   6.404   1.573   4.468 -0.4672  0.5327  0.7953
37072SOL     OW18330  10.108   9.319  12.666  0.2580  0.0016  0.2876
37072SOL    HW118331  10.070   9.277  12.590  0.3887 -0.1145  0.2856
37072SOL    HW218332  10.056   9.398  12.679 -0.3687 -0.4635  0.6534
37073SOL     OW18333   7.457  10.456   4.057 -0.0312  0.3281 -0.0811
37073SOL    HW118334   7.489  10.540   4.022 -0.8542  0.5139 -0.4011
37073SOL    HW218335   7.519  10.391   4.024  0.2239  0.7284 -0.3963
37074SOL     OW18336   1.822   1.864  11.686 -0.2129  0.2650  0.6502
37074SOL    HW118337   1.772   1.783  11.698 -1.0013  0.6249 -0.0831
37074SOL    HW218338   1.914   1.836  11.689 -0.3651 -1.3729 -3.4255
37075SOL     OW18339   8.354   7.737   3.942 -0.7136 -0.2933  0.1081
37075SOL    HW118340   8.290   7.710   4.008 -1.5791  0.8485 -0.2141
37075SOL    HW218341   8.300   7.769   3.869  0.2152 -1.9525 -1.3583
37076SOL     OW18342  10.499   9.189   8.472  0.2545 -0.4119  0.0345
37076SOL    HW118343  10.586   9.168   8.440  0.9388  0.6217  1.1454
37076SOL    HW218344  10.440   9.165   8.400  1.4784 -0.7464 -0.8828
37077SOL     OW18345   1.088   4.467  12.413 -0.0747  0.2870  0.1595
37077SOL    HW118346   1.160   4.502  12.467  0.4901 -0.6812  0.0675
37077SOL    HW218347   1.127   4.454  12.327 -0.1923 -0.7586  0.2495
37078SOL     OW18348   5.336   7.961   1.201 -0.0602  0.6413  0.5773
37078SOL    HW118349   5.372   8.043   1.236  0.0122  0.4725  0.9001
37078SOL    HW218350   5.392   7.940   1.127 -0.1744  0.9668  0.3951
37079SOL     OW18351   5.735   9.685  12.359  0.1258  0.0399 -0.1227
37079SOL    HW118352   5.812   9.636  12.387 -0.9489 -1.1771  0.8376
37079SOL    HW218353   5.743   9.769  12.404  0.7423 -0.1871  0.2110
37080SOL     OW18354   4.173   0.273   8.723  0.2470  0.2899 -0.3461
37080SOL    HW118355   4.187   0.334   8.795 -1.8899  1.6282 -0.9525
37080SOL    HW218356   4.182   0.326   8.644  2.8424 -1.2073 -1.1880
37081SOL     OW18357   8.334   3.254   5.836 -0.0670  0.1004 -0.5469
37081SOL    HW118358   8.358   3.206   5.757  3.2603 -1.5576  1.2369
37081SOL    HW218359   8.302   3.187   5.896 -1.1250  1.0981  0.0459
37082SOL     OW18360   2.600  12.918   2.676  0.1682  0.2713 -0.6368
37082SOL    HW118361   2.538  12.847   2.695 -0.1874  0.4277 -1.1893
37082SOL    HW218362   2.597  12.928   2.581  0.5040  0.7697 -0.5997
37083SOL     OW18363   5.170   9.419  11.327  0.1009 -0.3771 -0.0895
37083SOL    HW118364   5.252   9.395  11.283  0.2546  1.0665 -0.6806
37083SOL    HW218365   5.169   9.515  11.323 -1.6566 -0.3706 -0.1578
37084SOL     OW18366   8.165   9.620   2.679 -0.1491 -0.9531 -0.0650
37084SOL    HW118367   8.161   9.691   2.615  2.9804 -0.9453 -0.4221
37084SOL    HW218368   8.094   9.639   2.741 -0.9132  1.1097 -1.4580
37085SOL     OW18369   0.775   2.232   0.044 -0.1464  0.2355  0.5978
37085SOL    HW118370   0.696   2.217   0.096 -0.3628  2.2572  0.9343
37085SOL    HW218371   0.819   2.305   0.088  0.1904  1.3288 -1.4529
37086SOL     OW18372   6.065  11.760   6.951  0.4411  0.0338  0.4925
37086SOL    HW118373   6.016  11.781   6.872  0.3603 -0.0267  0.5268
37086SOL    HW218374   6.056  11.665   6.960  0.3514  0.0558  0.6403
37087SOL     OW18375   2.515   5.108   6.333  0.4078 -0.3956  0.0870
37087SOL    HW118376   2.569   5.055   6.392 -1.4814 -1.7580  0.6653
37087SOL    HW218377   2.478   5.045   6.271  2.0820  0.9516 -2.4679
37088SOL     OW18378   5.548   6.019   6.839 -0.0725  0.1448 -0.3679
37088SOL    HW118379   5.558   5.962   6.762  1.6666  0.1450 -0.1865
37088SOL    HW218380   5.454   6.023   6.854 -0.3719 -0.7984 -1.7983
37089SOL     OW18381   1.000  10.529  12.910  0.1837  0.0830 -0.5034
37089SOL    HW118382   1.055  10.453  12.932  0.8903  1.0972  1.4476
37089SOL    HW218383   0.942  10.539  12.985 -1.1595  0.4239 -1.5391
37090SOL     OW18384   3.035  12.622   0.910 -0.0511 -0.1780 -0.2985
37090SOL    HW118385   2.952  12.575   0.900  0.3886 -1.2946  0.9171
37090SOL    HW218386   3.010  12.710   0.936 -0.8704 -0.1683 -1.0873
37091SOL     OW18387  12.099   9.279   9.220 -0.3574 -0.2198  0.2142
37091SOL    HW118388  12.005   9.267   9.224 -0.4408  0.8017  1.9486
37091SOL    HW218389  12.132   9.246   9.303  0.8492 -0.6785 -0.4135
37092SOL     OW18390   5.946   5.713   1.254 -0.1404  0.3047  0.1169
37092SOL    HW118391   5.861   5.705   1.211 -1.3640  0.1424  2.4141
37092SOL    HW218392   5.973   5.623   1.272 -0.8934  0.4019  1.9128
37093SOL     OW18393   2.485  10.826   0.067 -0.7734 -0.2156 -0.0546
37093SOL    HW118394   2.415  10.879   0.030 -0.5551  0.0425 -0.1014
37093SOL    HW218395   2.505  10.761  -0.000 -2.0374 -1.2984  0.5638
37094SOL     OW18396  12.968  12.129   0.525  0.3728 -0.1114  0.8047
37094SOL    HW118397  12.936  12.201   0.579  0.1143 -0.6306  1.3538
37094SOL    HW218398  13.002  12.171   0.446  0.9549  0.6830  1.4608
37095SOL     OW18399   2.550   5.698   4.537 -0.0337  0.2032 -0.2398
37095SOL    HW118400   2.522   5.741   4.618  2.2665 -0.0664  0.7646
37095SOL    HW218401   2.520   5.757   4.467  0.9583  2.3000  0.9930
37096SOL     OW18402   5.707   2.933   5.612  0.4775 -0.4003  0.3263
37096SOL    HW118403   5.624   2.978   5.599  0.9442  0.6898  0.9739
37096SOL    HW218404   5.683   2.841   5.624 -0.3573 -0.6317 -2.6022
37097SOL     OW18405   8.653   6.503  11.484 -0.1132  0.3556 -0.5439
37097SOL    HW118406   8.611   6.474  11.403 -0.8689 -0.1261  0.0247
37097SOL    HW218407   8.596   6.473  11.554  0.7029  0.4921  0.1957
37098SOL     OW18408  10.948   9.796   6.785 -0.5422  0.0246  0.1737
37098SOL    HW118409  10.887   9.864   6.815  0.3549  1.8831 -1.8786
37098SOL    HW218410  11.034   9.837   6.792  0.0145 -0.8240 -1.2229
37099SOL     OW18411   4.718   8.650   5.320 -0.0309 -0.1092  0.4074
37099SOL    HW118412   4.799   8.661   5.269  0.0187 -1.5445  0.1244
37099SOL    HW218413   4.708   8.555   5.328 -1.5411  0.0524  0.6901
37100SOL     OW18414  10.746   8.857   4.291  0.2785 -0.7849 -0.2297
37100SOL    HW118415  10.680   8.918   4.322 -1.0742 -0.6612 -3.0168
37100SOL    HW218416  10.707   8.770   4.306  0.3974 -0.7982  0.0034
37101SOL     OW18417   8.397   5.220   0.581  0.1586  0.3368  0.2461
37101SOL    HW118418   8.463   5.208   0.512  1.5364  0.5149  1.4800
37101SOL    HW218419   8.347   5.297   0.554 -1.4697 -1.4051 -2.1371
37102SOL     OW18420   0.273   8.657  11.902 -0.4251 -0.1024  0.2568
37102SOL    HW118421   0.359   8.636  11.867  0.0567  1.3438  0.4742
37102SOL    HW218422   0.221   8.682  11.825 -0.4343 -0.2944  0.2009
37103SOL     OW18423   9.606   2.634  10.026  0.3721  0.6778 -0.7230
37103SOL    HW118424   9.633   2.543  10.015  0.0637  0.6881 -1.6727
37103SOL    HW218425   9.643   2.679   9.950  0.7609  1.4020 -0.1088
37104SOL     OW18426  12.387   0.195  11.057 -0.2467  0.2814  0.1489
37104SOL    HW118427  12.463   0.197  10.999 -0.5533  1.4460 -0.2441
37104SOL    HW218428  12.348   0.110  11.042  1.4345 -0.6930  0.9738
37105SOL     OW18429  11.004   7.404   2.776 -0.5487  0.4429 -0.2756
37105SOL    HW118430  11.052   7.438   2.700 -0.4859  1.4407  0.1896
37105SOL    HW218431  11.055   7.328   2.805 -0.0514  0.6245 -0.6694
37106SOL     OW18432  11.605   8.313   2.113 -0.0404 -0.6744  0.7371
37106SOL    HW118433  11.550   8.237   2.131 -2.4086  1.1307  1.5895
37106SOL    HW218434  11.565   8.384   2.163  2.0268  1.1805 -0.0935
37107SOL     OW18435   5.944   2.568   2.551  0.3605  0.1739 -0.1857
37107SOL    HW118436   6.028   2.614   2.550 -0.2678  1.3478 -0.4107
37107SOL    HW218437   5.968   2.476   2.561  1.6036  0.6516  1.8706
37108SOL     OW18438   8.095   5.804   0.115  0.6664 -0.2437 -0.5677
37108SOL    HW118439   8.028   5.866   0.144  1.7176  0.6411  0.0441
37108SOL    HW218440   8.075   5.788   0.023 -1.3214 -1.2485 -0.0424
37109SOL     OW18441   5.020  10.597   0.776  0.3650 -0.9505 -0.2943
37109SOL    HW118442   5.056  10.621   0.862  0.3972 -0.8649 -0.3308
37109SOL    HW218443   5.056  10.511   0.758  0.2455 -1.0303 -0.1580
37110SOL     OW18444   0.930   6.856  11.424 -1.0348 -0.2507  0.5784
37110SOL    HW118445   0.862   6.919  11.400 -1.0708  0.3200  2.0484
37110SOL    HW218446   0.882   6.774  11.437 -1.2434 -0.1783  0.2739
37111SOL     OW18447   6.459   9.515  10.873 -0.2710  0.0854  0.6827
37111SOL    HW118448   6.503   9.458  10.810  1.6153  1.7817  0.3257
37111SOL    HW218449   6.412   9.578  10.818  0.0542  0.5945  0.9776
37112SOL     OW18450  12.911  10.784  10.610 -0.2293 -0.0568 -0.0008
37112SOL    HW118451  12.913  10.690  10.593  0.5798  0.0865 -0.7626
37112SOL    HW218452  12.851  10.819  10.545 -0.2334  0.0041  0.0358
37113SOL     OW18453  12.758   9.914  12.104 -0.3313  0.2232  0.5017
37113SOL    HW118454  12.774   9.970  12.028  0.2345 -1.5519 -0.7487
37113SOL    HW218455  12.833   9.929  12.161  0.7824 -0.5921 -0.6877
37114SOL     OW18456   0.066   0.379   8.191  0.3072  0.2140 -0.3128
37114SOL    HW118457   0.100   0.389   8.102  1.5259  1.8858  0.2936
37114SOL    HW218458   0.012   0.300   8.187  0.8514 -0.1160 -2.3661
37115SOL     OW18459   0.237   0.988   1.628  0.0873 -0.2643  0.4044
37115SOL    HW118460   0.241   0.903   1.672 -1.5510 -0.4028  0.3502
37115SOL    HW218461   0.327   1.020   1.628  0.5513 -1.5111  1.3890
37116SOL     OW18462  10.735   6.711   1.381  0.2978 -0.3551  0.0668
37116SOL    HW118463  10.824   6.696   1.351  0.3841  0.2434  0.0068
37116SOL    HW218464  10.725   6.806   1.381  0.3714 -0.2876  2.1260
37117SOL     OW18465   7.221  11.708   0.409  0.3369 -0.1070  0.2612
37117SOL    HW118466   7.245  11.719   0.317 -0.6500 -0.6793 -0.0795
37117SOL    HW218467   7.189  11.794   0.436 -0.2933 -0.1792 -0.2257
37118SOL     OW18468   5.612   0.242  11.761 -0.2927 -0.1462 -0.1315
37118SOL    HW118469   5.680   0.216  11.824 -1.0243  0.0569  0.7782
37118SOL    HW218470   5.643   0.324  11.724  0.4472 -0.5927 -0.5023
37119SOL     OW18471   2.377   8.547   2.689  0.4140  0.2796 -0.0003
37119SOL    HW118472   2.323   8.581   2.760  0.3421 -1.1241  0.6557
37119SOL    HW218473   2.390   8.455   2.711  1.0071 -0.0057 -1.4383
37120SOL     OW18474   6.303  10.757   7.226 -0.3064  0.0249 -0.6644
37120SOL    HW118475   6.336  10.753   7.316 -1.5267 -0.0081 -0.1987
37120SOL    HW218476   6.275  10.668   7.206 -1.2853  0.2903 -0.5691
37121SOL     OW18477   6.465   4.665   0.624  0.3000 -0.0686 -0.1702
37121SOL    HW118478   6.510   4.588   0.660  1.8498  1.3683  1.0881
37121SOL    HW218479   6.480   4.659   0.530  1.0754 -0.8824 -0.0128
37122SOL     OW18480   6.370   0.588  11.235  0.0498  0.8105  0.7003
37122SOL    HW118481   6.350   0.675  11.271  0.3473  1.4115 -0.5245
37122SOL    HW218482   6.464   0.590  11.218 -0.1377  0.7319 -0.4857
37123SOL     OW18483  11.090   5.112   0.395 -0.6477  0.0363 -0.2187
37123SOL    HW118484  11.009   5.153   0.363 -0.0390  0.1307 -1.6857
37123SOL    HW218485  11.141   5.093   0.316  0.8464  0.1179  0.6876
37124SOL     OW18486  10.640  10.679   1.218  0.4306  0.3971 -0.2030
37124SOL    HW118487  10.558  10.650   1.257 -0.2982 -0.7045 -2.3465
37124SOL    HW218488  10.696  10.601   1.220  0.8968  0.7321 -0.0541
37125SOL     OW18489   4.153  10.048   5.169 -0.0052  0.6572  0.2667
37125SOL    HW118490   4.178  10.084   5.084 -0.5344  0.2440 -0.0706
37125SOL    HW218491   4.202   9.967   5.177 -0.6098  0.2551 -0.0379
37126SOL     OW18492   7.132   8.310   7.769  0.4227 -0.0105  0.3239
37126SOL    HW118493   7.128   8.327   7.863  1.3958 -1.0749  0.5915
37126SOL    HW218494   7.154   8.394   7.730 -0.8602  0.6494  0.9389
37127SOL     OW18495   3.258   3.525   7.824 -0.0151  0.3926 -0.6582
37127SOL    HW118496   3.304   3.600   7.785 -1.3076  0.3533 -2.3842
37127SOL    HW218497   3.193   3.564   7.882 -0.1317  0.6021 -0.9238
37128SOL     OW18498   3.450   4.392   9.977  0.1390 -0.2229  0.6656
37128SOL    HW118499   3.456   4.359  10.067  1.0372  1.1882  1.1525
37128SOL    HW218500   3.445   4.487   9.987  1.0989  0.0104 -0.8068
37129SOL     OW18501   8.377   6.587   9.238  0.0328 -0.2346  0.4584
37129SOL    HW118502   8.471   6.600   9.250 -0.0137  1.7002 -0.9187
37129SOL    HW218503   8.336   6.649   9.298 -0.2424  2.1087 -1.9294
37130SOL     OW18504   3.979   0.999   3.362  0.0208 -0.1235  0.4213
37130SOL    HW118505   4.015   1.088   3.353  0.9904 -0.4430  1.0375
37130SOL    HW218506   3.929   0.985   3.281  0.3451  0.7590  0.0577
37131SOL     OW18507   4.685   7.143   4.480 -0.1616 -0.0583 -0.0081
37131SOL    HW118508   4.606   7.096   4.505  0.4100 -0.2298  1.6559
37131SOL    HW218509   4.668   7.175   4.392 -1.3906 -1.5746 -0.3680
37132SOL     OW18510   4.771   0.011   2.457  0.2263 -0.0354 -0.2810
37132SOL    HW118511   4.716   0.011   2.378 -0.0836 -1.0597 -0.0742
37132SOL    HW218512   4.770  -0.080   2.488  0.9305  0.2088  0.5021
37133SOL     OW18513   8.844  12.787   6.009 -0.4342  0.2702  0.3140
37133SOL    HW118514   8.831  12.797   6.104 -2.5488  0.6519  0.0249
37133SOL    HW218515   8.757  12.796   5.972 -0.0663 -2.5620 -1.4774
37134SOL     OW18516   7.568   7.370  11.736 -0.2124  0.1358  0.3795
37134SOL    HW118517   7.579   7.277  11.716 -0.9788 -0.0495  0.7608
37134SOL    HW218518   7.527   7.371  11.823  1.9836  0.8937  1.4766
37135SOL     OW18519   8.299   8.494  12.627  0.1122 -0.2342  0.4918
37135SOL    HW118520   8.333   8.533  12.546 -1.0389 -1.9159 -0.8761
37135SOL    HW218521   8.304   8.399  12.612 -0.8020 -0.5733  2.0968
37136SOL     OW18522   1.853   6.234   0.949 -0.4906  0.1242  0.4198
37136SOL    HW118523   1.855   6.207   1.040  0.5947  0.8604  0.6325
37136SOL    HW218524   1.770   6.281   0.940 -0.9455 -0.6005  0.8300
37137SOL     OW18525   3.292   2.979   8.502  0.1586  0.2210  0.3387
37137SOL    HW118526   3.322   2.937   8.582 -0.0483 -0.8481 -0.1317
37137SOL    HW218527   3.359   3.043   8.481  1.0362 -0.6400  0.4742
37138SOL     OW18528   4.949   9.359  10.047 -0.2591  0.2629  0.2630
37138SOL    HW118529   4.873   9.399  10.090 -0.5893  1.4350 -1.3069
37138SOL    HW218530   4.916   9.330   9.962  0.8490 -0.0371 -0.0849
37139SOL     OW18531   5.218   4.933   5.911 -0.7415  0.3296  0.1222
37139SOL    HW118532   5.251   4.948   6.000 -1.7150  0.0908  0.5410
37139SOL    HW218533   5.273   4.864   5.876 -1.2609 -0.6020  1.0847
37140SOL     OW18534   4.026  11.372  12.840 -0.5494  0.0346  0.4899
37140SOL    HW118535   3.984  11.390  12.756  1.4665 -0.2340 -0.6292
37140SOL    HW218536   4.099  11.313  12.819 -0.0339 -0.1060  2.4402
37141SOL     OW18537   2.254   6.119  12.383 -0.0608 -0.3336  0.0584
37141SOL    HW118538   2.180   6.071  12.346 -0.2032  0.3606 -0.5916
37141SOL    HW218539   2.301   6.054  12.435  0.2655 -1.4388 -1.5284
37142SOL     OW18540   5.365   8.701   5.179 -0.1576 -0.1136 -0.0934
37142SOL    HW118541   5.435   8.665   5.233 -0.5881 -2.0361 -0.7255
37142SOL    HW218542   5.410   8.749   5.110  0.4688  0.2704  0.5757
37143SOL     OW18543   3.470   5.171   1.586  0.2748 -0.2095  0.0971
37143SOL    HW118544   3.523   5.096   1.611  0.3121  0.0281  0.7369
37143SOL    HW218545   3.420   5.141   1.510  0.0566 -0.9838  0.5368
37144SOL     OW18546   3.050   4.349   2.956  0.0458 -0.2252 -0.3820
37144SOL    HW118547   3.070   4.386   2.870  0.7562 -1.5408 -0.8201
37144SOL    HW218548   3.131   4.305   2.983 -0.2383 -0.0097  0.8653
37145SOL     OW18549  11.176   2.328   2.887  0.1255  0.4930 -0.4386
37145SOL    HW118550  11.238   2.288   2.826  1.1020  2.3125 -0.7076
37145SOL    HW218551  11.220   2.324   2.972  0.6615  1.7887 -0.6299
37146SOL     OW18552  10.335  10.806   8.432 -0.3531  0.5960 -0.3389
37146SOL    HW118553  10.391  10.787   8.507 -1.9380  2.2513  1.3798
37146SOL    HW218554  10.378  10.879   8.387  0.2476  0.0544 -0.6571
37147SOL     OW18555  10.250  11.807   0.323  0.1535  0.2138  0.4414
37147SOL    HW118556  10.191  11.743   0.363 -1.4375 -0.4349 -2.6407
37147SOL    HW218557  10.203  11.890   0.330 -0.7376 -0.1188 -1.0492
37148SOL     OW18558  11.983  10.731   1.982  0.0462  0.1972 -0.2365
37148SOL    HW118559  11.932  10.651   1.964 -0.5474 -0.3105  3.0903
37148SOL    HW218560  11.944  10.797   1.925 -2.6424 -0.8125  0.2740
37149SOL     OW18561   0.939  10.891  12.730 -0.3415 -0.3575 -0.1845
37149SOL    HW118562   0.864  10.926  12.778 -0.7876 -0.5408 -0.7398
37149SOL    HW218563   0.910  10.805  12.701  0.5531 -0.9782  0.6991
37150SOL     OW18564   5.569  12.887   2.191 -0.0878  0.9877 -0.1391
37150SOL    HW118565   5.587  12.981   2.192 -1.5276  1.3076  1.3377
37150SOL    HW218566   5.516  12.872   2.270 -0.9730 -0.8410 -1.0047
37151SOL     OW18567   3.694   4.777   3.453 -0.4293  0.5084  0.1658
37151SOL    HW118568   3.675   4.839   3.383  2.1074 -0.8605 -1.9515
37151SOL    HW218569   3.790   4.770   3.454 -0.5428 -2.7241  0.8014
37152SOL     OW18570   4.540  11.432   7.125 -0.0939 -0.6082 -0.0391
37152SOL    HW118571   4.614  11.454   7.068  0.1259 -2.9535 -0.7653
37152SOL    HW218572   4.466  11.422   7.065  0.1097 -2.9904  0.0273
37153SOL     OW18573   1.660  10.693   6.662 -0.0928 -0.5965 -0.4582
37153SOL    HW118574   1.593  10.734   6.607 -0.2123  0.5266  0.4779
37153SOL    HW218575   1.644  10.599   6.654  0.3367 -0.5205 -2.8864
37154SOL     OW18576   5.384   2.142   6.145 -0.1961  0.4762  0.3272
37154SOL    HW118577   5.442   2.188   6.084  0.1239  0.3626  0.5371
37154SOL    HW218578   5.440   2.075   6.184 -0.4282  0.4723  0.6566
37155SOL     OW18579   8.759  10.689  10.431 -0.3665 -0.0597 -0.1028
37155SOL    HW118580   8.835  10.633  10.416  1.1216  1.2683  1.9507
37155SOL    HW218581   8.755  10.698  10.526 -1.8835  1.5493 -0.2727
37156SOL     OW18582   9.446   9.856   0.293 -0.6080  0.0206 -0.3140
37156SOL    HW118583   9.415   9.943   0.317 -0.2083  0.3512 -0.9732
37156SOL    HW218584   9.392   9.797   0.344  0.0259  0.6808  1.1688
37157SOL     OW18585   8.515   6.157  11.343  0.2923  0.1026  0.4724
37157SOL    HW118586   8.545   6.238  11.301 -0.0899 -0.0116 -0.0345
37157SOL    HW218587   8.534   6.170  11.436  2.0893 -0.0395  0.1639
37158SOL     OW18588   8.765  11.286   2.058  0.1178  0.1002 -0.1158
37158SOL    HW118589   8.774  11.260   2.150  0.7326 -0.7567 -0.3998
37158SOL    HW218590   8.677  11.259   2.034  0.2990 -0.5907 -0.0420
37159SOL     OW18591   8.335   1.904   7.897  0.7176  0.0977  0.4906
37159SOL    HW118592   8.347   1.994   7.924  2.4988  0.1273 -0.2513
37159SOL    HW218593   8.410   1.857   7.934  0.4259 -0.8469 -0.0685
37160SOL     OW18594   2.490   0.139   5.015  0.0147  0.5856  0.7386
37160SOL    HW118595   2.571   0.129   5.064 -0.0581  0.4164  0.8258
37160SOL    HW218596   2.459   0.227   5.035  0.0960  0.5928  0.8277
37161SOL     OW18597   7.544  12.179   2.086 -0.1511 -0.5600 -0.7144
37161SOL    HW118598   7.586  12.240   2.147 -0.0893 -0.0913 -1.2211
37161SOL    HW218599   7.460  12.158   2.127 -1.3542  1.8778 -1.7214
37162SOL     OW18600   0.866   7.697  11.728 -0.0221 -0.3758 -0.3760
37162SOL    HW118601   0.779   7.707  11.768 -0.7181 -1.8143 -1.4163
37162SOL    HW218602   0.852   7.722  11.637  0.8564  0.1152 -0.3812
37163SOL     OW18603   6.083   1.292  11.054  0.0610  0.2349  0.2272
37163SOL    HW118604   6.134   1.244  11.119 -1.0500 -0.3083  0.7376
37163SOL    HW218605   6.146   1.346  11.008  0.8952  0.5869  1.7315
37164SOL     OW18606   3.700  10.611   5.686 -0.1906 -0.3694  0.0830
37164SOL    HW118607   3.795  10.605   5.678 -0.3213 -1.7510 -0.6465
37164SOL    HW218608   3.675  10.681   5.626  0.2660 -0.7385 -0.5479
37165SOL     OW18609   2.031   6.440   1.020 -0.4987  0.1004  0.7179
37165SOL    HW118610   2.047   6.362   1.073 -2.0709 -0.6833  0.1017
37165SOL    HW218611   1.951   6.421   0.972  0.5131  1.0170 -1.4971
37166SOL     OW18612   9.802   7.944   6.152  0.3149  0.4768  0.2076
37166SOL    HW118613   9.730   7.883   6.135 -0.8042  2.2122 -1.7900
37166SOL    HW218614   9.845   7.954   6.067  1.2369  1.5049  0.7736
37167SOL     OW18615  10.512  11.476   5.723  0.2722  0.2835  0.9350
37167SOL    HW118616  10.607  11.485   5.730  0.3689 -0.5426  0.8036
37167SOL    HW218617  10.477  11.536   5.789  0.8024  2.4032 -0.6083
37168SOL     OW18618   7.324   0.197  12.273 -0.4929 -0.3522 -0.5141
37168SOL    HW118619   7.309   0.253  12.349  1.2646 -0.4170 -0.0832
37168SOL    HW218620   7.360   0.116  12.309 -1.0086 -0.9560 -1.3091
37169SOL     OW18621   5.091   1.097   7.863  0.1873  0.2689 -0.1700
37169SOL    HW118622   5.023   1.055   7.811 -1.0027 -0.6031  1.9609
37169SOL    HW218623   5.169   1.043   7.849 -0.7879 -1.5094  0.8992
37170SOL     OW18624  12.027   3.327   7.446 -0.0928 -0.1023  0.0669
37170SOL    HW118625  11.945   3.374   7.431  0.4041  0.7694  0.0593
37170SOL    HW218626  12.085   3.357   7.376 -0.1697 -1.7269 -0.7612
37171SOL     OW18627   3.124  12.418  10.993  0.0973 -0.0639 -0.3408
37171SOL    HW118628   3.059  12.477  10.957  0.6247 -0.5726 -2.2440
37171SOL    HW218629   3.103  12.332  10.956  0.0456 -0.8620  1.4385
37172SOL     OW18630   9.059   7.195   5.023  0.8373 -0.0919  0.1618
37172SOL    HW118631   9.001   7.148   5.084 -0.7792 -0.0067 -1.2526
37172SOL    HW218632   9.038   7.287   5.036  0.7879 -0.0459 -0.2494
37173SOL     OW18633   9.654   7.865   4.118 -0.3690  0.2599 -0.6493
37173SOL    HW118634   9.682   7.815   4.041 -0.8613  0.2800 -0.8412
37173SOL    HW218635   9.596   7.932   4.083  0.7469  1.3462 -0.4658
37174SOL     OW18636  12.355   3.470  11.498 -0.5227  0.3225  0.4547
37174SOL    HW118637  12.443   3.460  11.534  0.5140  2.1227 -1.3203
37174SOL    HW218638  12.297   3.473  11.574  0.9263 -0.8772  1.6676
37175SOL     OW18639   7.549   9.841   9.210  0.6538 -0.7606 -0.4995
37175SOL    HW118640   7.500   9.777   9.262  0.5643  0.3143  0.7713
37175SOL    HW218641   7.631   9.797   9.187  0.8668 -1.1129  0.8929
37176SOL     OW18642   1.189  12.056   4.554 -0.0863  0.7615  0.1700
37176SOL    HW118643   1.116  12.003   4.521  0.4282 -0.1153  0.4090
37176SOL    HW218644   1.218  12.107   4.478  0.8920 -1.0110 -0.6966
37177SOL     OW18645  10.667   7.665  11.924 -0.3190 -0.1231 -0.1201
37177SOL    HW118646  10.738   7.728  11.910 -0.6013  0.0765 -0.7019
37177SOL    HW218647  10.704   7.581  11.895  0.1856 -0.3182  1.0056
37178SOL     OW18648   8.035  10.413   2.356 -0.8547 -0.1213 -0.0085
37178SOL    HW118649   7.984  10.344   2.398 -1.5852  0.8682  0.7955
37178SOL    HW218650   8.118  10.415   2.404  0.3418 -2.2867 -1.8474
37179SOL     OW18651   4.601   2.071  10.684 -0.3411 -0.0572 -0.1175
37179SOL    HW118652   4.691   2.061  10.652 -0.8446  1.2242 -2.1141
37179SOL    HW218653   4.611   2.101  10.774  1.2493  0.4064 -0.4169
37180SOL     OW18654   7.074   0.286   2.128 -0.5042 -0.2002 -0.3834
37180SOL    HW118655   7.111   0.337   2.056 -1.7246  1.4109  0.0748
37180SOL    HW218656   7.010   0.345   2.169 -0.5978 -1.4456  1.3704
37181SOL     OW18657   9.470   7.921   7.784  0.1900  0.0668  0.2887
37181SOL    HW118658   9.549   7.866   7.783  0.7814  0.9090 -0.4204
37181SOL    HW218659   9.401   7.862   7.813  1.0590 -0.7138  0.8424
37182SOL     OW18660  10.934   6.958   1.612  0.8367  0.0194 -0.8482
37182SOL    HW118661  10.888   6.935   1.693 -0.3656  2.2559 -0.8179
37182SOL    HW218662  10.867   6.956   1.544  1.4592 -0.0839 -1.4736
37183SOL     OW18663  12.060   6.868   9.470 -0.3195  0.7032 -0.6874
37183SOL    HW118664  12.154   6.853   9.466 -0.4845 -0.7314 -0.0349
37183SOL    HW218665  12.026   6.834   9.388 -0.4359 -0.4048 -0.1983
37184SOL     OW18666   4.065  12.819   4.853 -0.0609 -0.5204 -0.4221
37184SOL    HW118667   4.158  12.819   4.875 -0.1712 -2.2209  0.1834
37184SOL    HW218668   4.057  12.757   4.781 -0.4018  1.5174 -2.2538
37185SOL     OW18669   1.715   3.394   3.705  0.1391  0.1387 -0.3582
37185SOL    HW118670   1.738   3.364   3.793 -0.4998 -0.5218 -0.4040
37185SOL    HW218671   1.621   3.411   3.710  0.2512  0.8665 -0.6995
37186SOL     OW18672  10.487   6.306   9.034  0.2515 -0.1319  0.1170
37186SOL    HW118673  10.395   6.294   9.014  0.0476  0.9712  0.3468
37186SOL    HW218674  10.492   6.296   9.130  0.0197  1.7358  0.3641
37187SOL     OW18675   0.126   8.120  11.893  0.3239  0.0737 -0.5693
37187SOL    HW118676   0.044   8.164  11.873 -0.0229 -1.0166 -1.6571
37187SOL    HW218677   0.184   8.190  11.923 -0.9547  0.8655  0.1241
37188SOL     OW18678   7.092   0.207   9.018 -0.1611  0.2399  0.0972
37188SOL    HW118679   7.104   0.299   9.041  0.9314 -0.0480  0.7331
37188SOL    HW218680   7.136   0.159   9.087 -1.4702 -0.8112  0.2443
37189SOL     OW18681   6.556   4.986   4.515  0.7145 -0.5879  0.2795
37189SOL    HW118682   6.492   4.935   4.565  0.9740 -0.0795  1.1541
37189SOL    HW218683   6.618   5.017   4.581 -1.5933  4.3634  0.5765
37190SOL     OW18684   5.980   9.236   2.200 -0.0597 -0.4967  0.0913
37190SOL    HW118685   6.016   9.244   2.112 -0.5506  0.0552 -0.0603
37190SOL    HW218686   5.986   9.324   2.238 -0.9304 -0.4671  0.1837
37191SOL     OW18687   8.230   8.988   7.728 -0.4827  0.2089 -0.4320
37191SOL    HW118688   8.239   9.003   7.634  0.0478 -2.6263 -0.9422
37191SOL    HW218689   8.316   9.009   7.765 -0.9240  2.1174 -0.3816
37192SOL     OW18690   3.066   2.033   3.545  0.3979 -0.3312 -0.2466
37192SOL    HW118691   2.995   1.973   3.567 -0.5989  0.9190  0.0726
37192SOL    HW218692   3.111   2.049   3.628 -0.7994  1.1620  0.1504
37193SOL     OW18693   4.995  11.712   2.752 -0.1921  0.0151 -0.1964
37193SOL    HW118694   4.966  11.790   2.704 -2.1752 -0.4651  0.1211
37193SOL    HW218695   5.076  11.686   2.708  1.3436  3.0004  0.5640
37194SOL     OW18696   6.370   9.511   0.813 -0.4126  0.1441  0.0737
37194SOL    HW118697   6.394   9.498   0.904 -0.7854 -1.1030  0.0055
37194SOL    HW218698   6.347   9.604   0.807 -0.2422  0.2687  1.2071
37195SOL     OW18699   0.598   1.354   2.842 -0.3345  0.1796 -0.5904
37195SOL    HW118700   0.618   1.261   2.852  0.0106  0.3557  0.4723
37195SOL    HW218701   0.669   1.398   2.889 -1.0924  0.9470 -0.1637
37196SOL     OW18702   0.737   1.414  10.152  0.3878  0.0861  0.5271
37196SOL    HW118703   0.685   1.493  10.143  0.9635  0.4768  0.5841
37196SOL    HW218704   0.690   1.361  10.217 -0.8388 -0.3243 -0.6364
37197SOL     OW18705   9.686   6.131   0.247 -0.0722 -0.1981 -0.1210
37197SOL    HW118706   9.739   6.210   0.250  1.3915 -1.1168 -0.7856
37197SOL    HW218707   9.659   6.123   0.155 -0.4616 -0.3221  0.0008
37198SOL     OW18708   3.558   1.317   3.844 -0.1913 -0.1792 -0.1146
37198SOL    HW118709   3.641   1.360   3.865  0.9133 -1.1553 -2.2585
37198SOL    HW218710   3.561   1.302   3.750 -1.5629 -2.8047  0.1615
37199SOL     OW18711   2.447   7.522   6.732  0.1775  0.2621 -0.3991
37199SOL    HW118712   2.416   7.578   6.803 -3.4600  0.4262 -1.8992
37199SOL    HW218713   2.491   7.449   6.776  0.4428  1.6678  1.8149
37200SOL     OW18714   8.764   1.731   0.160 -0.4586  0.5331  0.2632
37200SOL    HW118715   8.807   1.662   0.210 -0.7219 -0.4423 -0.8296
37200SOL    HW218716   8.821   1.807   0.170  0.8302 -0.3661 -0.0714
37201SOL     OW18717  10.637   7.709   1.514  0.2616 -0.5638  0.7300
37201SOL    HW118718  10.556   7.681   1.558  1.7811 -1.8918  2.8822
37201SOL    HW218719  10.706   7.691   1.578  2.3196  0.1933 -1.1630
37202SOL     OW18720   0.120   9.466   3.831 -0.0460  0.2697 -0.7283
37202SOL    HW118721   0.201   9.517   3.827 -0.3378  1.0260  1.5087
37202SOL    HW218722   0.052   9.531   3.851 -1.2766 -0.3381 -2.6626
37203SOL     OW18723   3.521  10.383   3.201 -0.7299 -0.2514  0.5890
37203SOL    HW118724   3.490  10.452   3.260 -0.5721  0.4943 -0.1733
37203SOL    HW218725   3.459  10.311   3.213 -2.2189  0.8515 -0.2159
37204SOL     OW18726   4.855  10.013  12.155 -0.2732  0.5735 -0.4039
37204SOL    HW118727   4.903  10.067  12.217  1.2845  0.9702 -1.8704
37204SOL    HW218728   4.849  10.068  12.076 -0.7914 -0.4920 -1.1236
37205SOL     OW18729   1.519  12.439   1.818  0.8581 -0.4458  0.4498
37205SOL    HW118730   1.436  12.401   1.790  1.7624 -2.2585  0.0779
37205SOL    HW218731   1.496  12.526   1.851 -1.3472 -1.3643  1.5063
37206SOL     OW18732   7.104   2.407  11.399  0.0684  0.2377  0.5455
37206SOL    HW118733   7.167   2.478  11.383  1.1121 -0.5540  1.0799
37206SOL    HW218734   7.136   2.363  11.477 -0.8164 -0.5564  0.4753
37207SOL     OW18735   7.271   5.630   2.757 -0.5225  0.3158  0.3954
37207SOL    HW118736   7.254   5.589   2.673 -0.4721  0.2533  0.4150
37207SOL    HW218737   7.214   5.584   2.819 -0.1212 -0.0527  0.5027
37208SOL     OW18738   0.608   5.198   1.566 -0.2320  0.0892  0.0072
37208SOL    HW118739   0.695   5.161   1.551 -0.9263 -2.4427  1.7160
37208SOL    HW218740   0.621   5.262   1.636  0.6215  1.7666 -1.5735
37209SOL     OW18741   6.805  11.943  12.570  0.1299  0.2535  0.4110
37209SOL    HW118742   6.711  11.960  12.572 -0.1019 -0.6048 -1.4333
37209SOL    HW218743   6.814  11.851  12.595  0.4971  0.3428  0.6239
37210SOL     OW18744   3.667   9.073   6.949  0.0303 -0.0932  0.1387
37210SOL    HW118745   3.696   9.118   7.029 -0.4169  0.6149 -0.0929
37210SOL    HW218746   3.628   8.991   6.981  0.5043 -0.1500  0.5891
37211SOL     OW18747   3.010   1.897   4.053 -1.0551 -0.3888 -0.0190
37211SOL    HW118748   3.095   1.896   4.097 -0.3206 -0.5589 -1.3825
37211SOL    HW218749   2.960   1.964   4.099  0.6215  1.3806 -0.6227
37212SOL     OW18750   1.525  10.303   6.346 -1.0674 -0.0849  0.0198
37212SOL    HW118751   1.562  10.383   6.310 -0.7135  0.7308  2.0478
37212SOL    HW218752   1.442  10.291   6.299  0.0370  0.0511 -2.0447
37213SOL     OW18753   0.278   3.140   7.743  0.1181  0.3520 -0.1495
37213SOL    HW118754   0.359   3.097   7.770  0.1542  0.2624 -0.4023
37213SOL    HW218755   0.225   3.143   7.823 -1.3462 -3.2958 -0.7763
37214SOL     OW18756   1.321   3.649   4.851  0.1408 -0.0796  0.6149
37214SOL    HW118757   1.297   3.680   4.939 -2.2704 -5.3889  2.1812
37214SOL    HW218758   1.238   3.636   4.806  1.0252 -2.0984 -0.5767
37215SOL     OW18759  10.371   3.282  11.437  0.3894  0.6933 -0.6829
37215SOL    HW118760  10.452   3.240  11.467  0.5869  0.0082 -2.0676
37215SOL    HW218761  10.305   3.257  11.502  0.9294 -0.2129 -0.4637
37216SOL     OW18762   7.388   1.180   9.302 -0.6082  0.4006 -0.3768
37216SOL    HW118763   7.354   1.103   9.349 -1.4424  0.5194 -0.7600
37216SOL    HW218764   7.398   1.150   9.211 -1.8748  1.0048 -0.7333
37217SOL     OW18765   0.595   2.082  12.360 -0.2226 -0.4739  0.0688
37217SOL    HW118766   0.633   1.994  12.356  3.0125  0.8064 -0.6279
37217SOL    HW218767   0.618   2.114  12.447  4.4154  1.7582 -1.5982
37218SOL     OW18768   8.225   8.383   4.098 -0.1264  0.2727 -0.7181
37218SOL    HW118769   8.152   8.325   4.077 -0.5611  0.7793 -0.6361
37218SOL    HW218770   8.199   8.467   4.061  0.8841  0.2164 -1.5946
37219SOL     OW18771   8.715   7.942   0.332  0.4109 -0.1716 -0.9778
37219SOL    HW118772   8.753   8.006   0.391  0.1458  1.2207 -2.2511
37219SOL    HW218773   8.770   7.944   0.254  1.2225 -2.5359 -0.5612
37220SOL     OW18774  11.274   9.619   3.543 -0.0391  0.1364 -0.4610
37220SOL    HW118775  11.309   9.531   3.554 -0.8990 -0.0654  0.7681
37220SOL    HW218776  11.302   9.644   3.455  0.1140 -1.4014 -0.8825
37221SOL     OW18777   2.116  10.914   5.147 -0.5889 -0.8011  0.2583
37221SOL    HW118778   2.082  10.955   5.226  0.5989 -0.5857  0.6766
37221SOL    HW218779   2.210  10.933   5.149 -0.2871 -2.1375 -0.3849
37222SOL     OW18780   3.927   1.536   4.911 -0.1095  0.5035  0.2030
37222SOL    HW118781   3.887   1.602   4.854  0.6832  0.4117 -0.4754
37222SOL    HW218782   4.020   1.558   4.912  0.4224 -1.3885 -1.1818
37223SOL     OW18783   0.218   1.693   0.019  0.4553  0.2025 -0.2305
37223SOL    HW118784   0.281   1.741  -0.035 -0.8282  0.2962 -1.7143
37223SOL    HW218785   0.227   1.602  -0.008 -0.0521  0.2212 -0.4772
37224SOL     OW18786  12.290   2.369   4.054 -0.0996  0.1097 -0.1057
37224SOL    HW118787  12.264   2.458   4.077 -1.6066 -0.3676  0.1554
37224SOL    HW218788  12.234   2.313   4.108 -0.3189 -1.0061 -1.4494
37225SOL     OW18789   8.805   8.945   6.442 -0.3213  0.3775 -0.2377
37225SOL    HW118790   8.811   9.032   6.400  0.0773  0.4584 -0.0163
37225SOL    HW218791   8.803   8.964   6.536  0.0895  0.1291 -0.1790
37226SOL     OW18792  12.299  11.052   2.746 -0.1272 -0.1961 -0.5191
37226SOL    HW118793  12.283  11.080   2.655  0.0657 -1.2139 -0.8713
37226SOL    HW218794  12.367  10.986   2.740  0.1128 -0.0537  0.4122
37227SOL     OW18795   3.442   0.225   1.016  0.1235  0.0392  0.3005
37227SOL    HW118796   3.410   0.288   1.080 -4.3400 -0.0141 -1.5719
37227SOL    HW218797   3.396   0.144   1.037  0.1171 -0.5248 -1.7404
37228SOL     OW18798  10.628   3.911   5.245  0.0197  0.1077  0.0939
37228SOL    HW118799  10.541   3.884   5.216  0.4510 -0.5475 -0.6369
37228SOL    HW218800  10.612   3.964   5.323 -1.2461  2.4276 -1.6028
37229SOL     OW18801  12.824   1.048   6.251 -0.9769 -0.4054  0.1867
37229SOL    HW118802  12.833   0.984   6.180  2.3398 -1.8476  1.7122
37229SOL    HW218803  12.739   1.027   6.290 -0.7054 -2.8690 -0.3634
37230SOL     OW18804   2.387   0.393   6.041 -0.5839  0.3424  1.0655
37230SOL    HW118805   2.378   0.307   6.081 -1.4433  0.8512  2.0070
37230SOL    HW218806   2.480   0.414   6.051 -0.3284 -0.5411  0.6647
37231SOL     OW18807   9.077   2.693   8.500 -0.1556  0.1212 -0.2863
37231SOL    HW118808   9.104   2.620   8.555 -0.1694  0.7276  0.5397
37231SOL    HW218809   9.077   2.769   8.558 -0.9111  0.6400 -0.9342
37232SOL     OW18810   5.962  10.382   5.662  0.0867  0.1837  0.0176
37232SOL    HW118811   5.953  10.475   5.639  0.3510  0.5128  1.1928
37232SOL    HW218812   5.981  10.382   5.756 -0.9824 -1.1102  0.2631
37233SOL     OW18813   8.163   5.382   7.052  0.1107 -0.1741  0.0276
37233SOL    HW118814   8.197   5.377   6.963  0.0049  1.6389 -0.1562
37233SOL    HW218815   8.227   5.334   7.104  0.9101 -0.1051 -0.8541
37234SOL     OW18816   2.934   7.257   1.961  0.0610  0.1030 -0.1320
37234SOL    HW118817   2.928   7.349   1.987 -0.9334 -0.2131  0.8318
37234SOL    HW218818   2.914   7.256   1.868  1.2041  0.9799 -0.4081
37235SOL     OW18819   0.598   3.282   3.639  0.1677 -0.1572  0.1404
37235SOL    HW118820   0.667   3.223   3.608 -0.8182 -0.5529 -1.4289
37235SOL    HW218821   0.640   3.369   3.641  0.8112 -0.4429 -0.4434
37236SOL     OW18822   1.180   7.378   8.829  0.6573 -0.2010  0.5151
37236SOL    HW118823   1.178   7.442   8.900  0.4914 -0.3019  0.6005
37236SOL    HW218824   1.160   7.294   8.870  0.5354 -0.2561  0.3475
37237SOL     OW18825   4.934   2.444   8.126  0.2107  0.0708  0.5486
37237SOL    HW118826   4.908   2.390   8.052 -0.6951 -0.6485  1.3612
37237SOL    HW218827   5.026   2.464   8.111  0.0969 -0.2595 -0.6386
37238SOL     OW18828   0.862   5.102   4.962 -0.3287  0.1774 -0.3122
37238SOL    HW118829   0.944   5.145   4.938  0.9812 -2.6054 -1.2155
37238SOL    HW218830   0.830   5.151   5.038  3.1660  0.2383  1.3012
37239SOL     OW18831   8.884   5.071   6.967  0.1936  0.2010  0.0075
37239SOL    HW118832   8.798   5.053   6.930  0.6231 -1.1935 -0.3960
37239SOL    HW218833   8.940   5.001   6.933  1.1605  0.2529  1.3904
37240SOL     OW18834   1.272   6.070   2.622  0.2198  0.4861 -0.8299
37240SOL    HW118835   1.331   6.025   2.683 -2.3295 -1.1764  0.5539
37240SOL    HW218836   1.305   6.047   2.535  1.3759 -0.6890 -0.1059
37241SOL     OW18837   9.904   3.855  10.447  0.1132  0.0877 -0.0290
37241SOL    HW118838   9.924   3.784  10.386 -0.0922 -0.7279  0.8442
37241SOL    HW218839   9.846   3.913  10.397  0.1174 -0.4578 -0.6799
37242SOL     OW18840   3.263   6.918   1.943 -0.4329  0.2374 -0.3694
37242SOL    HW118841   3.215   6.961   2.015 -0.4614  0.7912 -0.7147
37242SOL    HW218842   3.325   6.984   1.913  0.9974 -0.6819  0.4779
37243SOL     OW18843  10.319   1.220   5.238  0.5600 -0.5176  0.6915
37243SOL    HW118844  10.352   1.309   5.251  2.1823 -0.7926 -1.0806
37243SOL    HW218845  10.241   1.231   5.183 -0.8063 -0.0635  2.6181
37244SOL     OW18846   1.542  11.568   7.457  0.4374  0.8131 -0.3731
37244SOL    HW118847   1.590  11.503   7.509  0.5616  1.2032  0.0088
37244SOL    HW218848   1.489  11.516   7.396 -0.4573  0.2972  0.7933
37245SOL     OW18849  11.091   4.629   9.361 -0.0664  0.0821  0.1394
37245SOL    HW118850  11.015   4.652   9.415 -1.2238  0.0326 -1.4153
37245SOL    HW218851  11.095   4.697   9.294  1.5037  0.2767  0.3851
37246SOL     OW18852   4.764   1.819   1.291  0.0980  0.0144  0.2887
37246SOL    HW118853   4.816   1.818   1.211 -1.3944 -0.9108 -0.7263
37246SOL    HW218854   4.742   1.912   1.304 -0.3046  0.0886 -0.8398
37247SOL     OW18855  10.430   6.555   9.331  0.4375  0.1064  0.0255
37247SOL    HW118856  10.477   6.574   9.412 -3.2445  6.3723  1.3501
37247SOL    HW218857  10.492   6.579   9.261  2.0391 -0.6683  1.1168
37248SOL     OW18858   3.279   9.134  11.508  0.2654  0.2296 -0.4339
37248SOL    HW118859   3.261   9.222  11.477 -1.7012 -0.3789 -1.2051
37248SOL    HW218860   3.204   9.112  11.562  1.1834 -0.6467  0.5293
37249SOL     OW18861   3.518   0.999   9.168  0.1169 -0.0029  0.4749
37249SOL    HW118862   3.598   0.993   9.220 -0.7548 -0.7800  1.7692
37249SOL    HW218863   3.472   0.917   9.184 -0.8374  0.3206 -0.4592
37250SOL     OW18864   3.978   4.024   4.204 -0.0960 -0.1719  0.1123
37250SOL    HW118865   4.006   4.100   4.153  0.4784 -0.2905  0.2409
37250SOL    HW218866   3.939   4.061   4.283 -1.0363  0.0121 -0.4354
37251SOL     OW18867   2.960   4.916   1.239 -0.1309 -0.3350 -0.1389
37251SOL    HW118868   3.053   4.930   1.258  0.1790 -2.1308 -0.1388
37251SOL    HW218869   2.943   4.972   1.163  1.1420 -0.5079 -0.5831
37252SOL     OW18870   8.195   0.217   7.479 -0.1298 -0.6401  0.3777
37252SOL    HW118871   8.152   0.142   7.519  0.3225 -0.8134  0.5431
37252SOL    HW218872   8.255   0.179   7.416 -1.0465 -0.3638 -0.7029
37253SOL     OW18873  12.010   1.658  11.106  0.2844  0.4448 -0.0198
37253SOL    HW118874  12.023   1.746  11.070  1.1845 -0.2443 -1.4822
37253SOL    HW218875  12.074   1.651  11.177 -0.1872  1.1519  0.4908
37254SOL     OW18876   1.724   7.833   7.966  0.1750  0.3262 -0.1099
37254SOL    HW118877   1.657   7.893   8.000  0.0416 -0.2692  0.6999
37254SOL    HW218878   1.737   7.770   8.037 -0.9823 -1.6893 -1.6130
37255SOL     OW18879  11.406  10.218   6.524  0.1538 -0.1668  0.1179
37255SOL    HW118880  11.463  10.289   6.495 -0.1893 -0.7659 -2.1633
37255SOL    HW218881  11.317  10.250   6.506 -0.0066 -1.1056 -0.8266
37256SOL     OW18882   1.652   6.423   9.022 -0.0181 -0.4002 -0.3864
37256SOL    HW118883   1.577   6.483   9.019  0.2610 -0.0397 -0.2998
37256SOL    HW218884   1.723   6.476   9.059 -0.0752 -1.1343  0.8017
37257SOL     OW18885   9.507   7.626   8.162  0.0680 -0.0979 -0.4745
37257SOL    HW118886   9.535   7.717   8.171 -0.0934 -0.2703  2.4809
37257SOL    HW218887   9.584   7.574   8.186 -0.6004 -0.6727  0.5090
37258SOL     OW18888   7.990   6.250   1.277 -0.2204  0.5244 -0.5325
37258SOL    HW118889   7.952   6.175   1.324  0.3564 -0.6886 -1.9022
37258SOL    HW218890   8.048   6.292   1.340 -0.3257 -0.3868  0.1830
37259SOL     OW18891   1.072  11.508   8.690  0.3194 -0.3893 -0.3516
37259SOL    HW118892   1.146  11.554   8.652  0.6293 -1.0841 -0.6085
37259SOL    HW218893   1.000  11.524   8.630  0.2610  0.2680 -0.1143
37260SOL     OW18894   7.366   5.766   3.418 -0.2374  0.2208 -0.0302
37260SOL    HW118895   7.366   5.698   3.485  1.0358 -0.4309 -0.6757
37260SOL    HW218896   7.378   5.720   3.335  0.7523  1.2155 -0.4766
37261SOL     OW18897   5.795   5.110   7.288 -0.8064 -0.2398  0.6816
37261SOL    HW118898   5.805   5.145   7.199 -0.3234  0.3989  0.9725
37261SOL    HW218899   5.885   5.099   7.319 -0.9729 -0.4389  1.0982
37262SOL     OW18900  11.377  12.748   8.586  0.1725 -0.2144  0.1208
37262SOL    HW118901  11.348  12.774   8.499  1.2855  0.7093 -0.0063
37262SOL    HW218902  11.305  12.772   8.644 -0.3433 -0.3079 -0.4816
37263SOL     OW18903   9.065   9.251   7.222  0.5862 -0.1375  0.0817
37263SOL    HW118904   9.123   9.176   7.211 -0.7305 -1.3228  0.8010
37263SOL    HW218905   8.977   9.213   7.226 -0.1067  1.4225  0.7543
37264SOL     OW18906  11.500   6.349   3.406  0.0435 -0.4545  0.4780
37264SOL    HW118907  11.587   6.381   3.381 -0.1196 -1.1726 -1.1425
37264SOL    HW218908  11.458   6.423   3.450  1.2252  0.1067  0.7041
37265SOL     OW18909  11.511   2.750   0.726 -0.5811  0.5382 -0.0858
37265SOL    HW118910  11.448   2.810   0.686 -1.6039  0.0990  0.8360
37265SOL    HW218911  11.526   2.785   0.814  1.7515  1.5662 -0.8077
37266SOL     OW18912   8.512  11.979  12.662  0.0470 -0.0153 -0.4371
37266SOL    HW118913   8.521  12.068  12.629 -1.0728  0.0106 -0.7277
37266SOL    HW218914   8.476  11.930  12.588  0.3441 -0.6374 -0.1795
37267SOL     OW18915   7.906   9.824   3.850 -0.2408  0.8177  0.4647
37267SOL    HW118916   7.906   9.800   3.758 -1.4135  1.7200  0.2069
37267SOL    HW218917   7.998   9.839   3.871 -0.0006  0.9980 -0.6583
37268SOL     OW18918   5.305  10.002   0.429 -0.0823 -0.0964 -0.2259
37268SOL    HW118919   5.349   9.918   0.441 -0.2996 -0.1906 -0.0676
37268SOL    HW218920   5.335  10.056   0.502  0.6908  0.2416 -0.7846
37269SOL     OW18921   5.744   9.630   8.218  0.0046 -0.1077  0.0759
37269SOL    HW118922   5.689   9.702   8.187  0.2692 -0.3485 -0.9700
37269SOL    HW218923   5.705   9.552   8.179  0.8623 -0.3184 -0.3796
37270SOL     OW18924   9.252   3.057  10.829 -0.3374 -0.6405  0.2802
37270SOL    HW118925   9.216   3.141  10.856 -2.8624 -1.4009 -0.4749
37270SOL    HW218926   9.240   3.000  10.905  0.9556 -0.4904  0.6312
37271SOL     OW18927   9.498   2.966   2.248  0.3910  0.9390  0.1750
37271SOL    HW118928   9.456   3.042   2.207  0.3399  1.0950  0.5157
37271SOL    HW218929   9.472   2.970   2.340 -0.2526  0.0686  0.0395
37272SOL     OW18930  12.564   3.760  12.525  0.3898 -0.2816 -0.2890
37272SOL    HW118931  12.591   3.680  12.569 -1.9241 -1.4055 -0.7315
37272SOL    HW218932  12.473   3.743  12.498 -0.2681  2.5632 -0.2174
37273SOL     OW18933  11.011   5.928  11.037 -0.2279 -0.6769  0.0222
37273SOL    HW118934  11.004   5.864  11.108  1.3543  1.4710  2.2872
37273SOL    HW218935  11.104   5.934  11.019 -0.3277  0.9376 -0.1386
37274SOL     OW18936   6.010   1.423  12.434  0.3887  0.0172 -0.0054
37274SOL    HW118937   5.978   1.477  12.507  1.5974  1.2061 -0.3047
37274SOL    HW218938   6.047   1.346  12.476 -0.2918 -0.0305  0.5266
37275SOL     OW18939   6.967   0.001  11.517  0.4948  0.4582 -0.1201
37275SOL    HW118940   6.957   0.096  11.512 -3.6856  0.1714 -2.0553
37275SOL    HW218941   6.914  -0.025  11.592  1.3733 -0.3666  0.2239
37276SOL     OW18942   6.508   4.702   7.911  0.0383 -0.3055  0.3951
37276SOL    HW118943   6.515   4.607   7.899 -1.2258 -0.2894 -0.6956
37276SOL    HW218944   6.429   4.713   7.964  0.8147  0.0966  1.4931
37277SOL     OW18945  12.771   9.038  12.524  0.1243  0.0627 -0.0339
37277SOL    HW118946  12.819   8.965  12.484  2.1643  0.6918  1.1629
37277SOL    HW218947  12.679   9.020  12.502  0.6890 -2.1382 -0.8988
37278SOL     OW18948   4.216   2.900   3.168  0.1993 -0.2839 -0.4482
37278SOL    HW118949   4.166   2.947   3.234 -1.0819 -0.5531 -1.1966
37278SOL    HW218950   4.254   2.968   3.113  2.3754  0.0108  1.2516
37279SOL     OW18951   6.498   4.598  11.475 -0.8401  0.1258  0.2503
37279SOL    HW118952   6.490   4.570  11.384 -1.7189  0.7648  0.1209
37279SOL    HW218953   6.477   4.520  11.527 -0.2373 -0.2662 -0.0873
37280SOL     OW18954   0.708   9.334   0.883 -0.2566 -0.0755  0.2756
37280SOL    HW118955   0.741   9.265   0.942 -0.3469 -0.0610  0.3425
37280SOL    HW218956   0.781   9.396   0.878 -0.8940  0.8578  1.8333
37281SOL     OW18957   5.421   7.571   8.176  0.5566 -0.2064 -0.3270
37281SOL    HW118958   5.388   7.661   8.176 -0.1616 -0.3934 -2.8639
37281SOL    HW218959   5.429   7.548   8.084  0.3245 -2.9103  0.2391
37282SOL     OW18960  12.774   9.434  10.378 -0.3154 -0.2349  0.2542
37282SOL    HW118961  12.702   9.486  10.414  0.2583 -0.0453  1.1775
37282SOL    HW218962  12.766   9.348  10.420  1.8013  0.7069  2.9091
37283SOL     OW18963   0.747   0.573   9.643  0.1961 -0.1350 -0.1451
37283SOL    HW118964   0.792   0.578   9.558 -1.6710 -0.5147 -1.2038
37283SOL    HW218965   0.663   0.533   9.623 -0.8639  1.0628  1.6781
37284SOL     OW18966   1.604  10.345   5.279 -0.2431 -0.1962  0.1257
37284SOL    HW118967   1.589  10.413   5.213  0.8445 -0.1351 -0.0885
37284SOL    HW218968   1.638  10.271   5.230 -0.1013 -0.4031  0.5282
37285SOL     OW18969   4.137   1.149   3.593  0.5385  0.4729  0.1112
37285SOL    HW118970   4.061   1.131   3.649  0.6368 -2.2287 -0.4940
37285SOL    HW218971   4.164   1.238   3.617 -1.7256  0.8353  1.5981
37286SOL     OW18972  11.090   7.923   9.290  0.6608 -0.1927  0.3946
37286SOL    HW118973  11.160   7.982   9.319  1.4079 -1.0708  0.4196
37286SOL    HW218974  11.129   7.872   9.220 -0.1691 -0.2466 -0.0392
37287SOL     OW18975   1.026   6.161   8.064  0.4772  0.3008 -0.2244
37287SOL    HW118976   1.109   6.206   8.079 -0.1094  1.6662 -0.8644
37287SOL    HW218977   0.997   6.193   7.978 -1.7393  1.5754  0.9159
37288SOL     OW18978  11.760   6.110   7.208  0.2628 -0.4494 -0.2225
37288SOL    HW118979  11.716   6.177   7.260 -0.5499 -0.8677 -0.3695
37288SOL    HW218980  11.849   6.106   7.245 -0.0518 -0.1562  0.5897
37289SOL     OW18981   6.539   1.621  12.052 -0.0255 -0.3686 -0.1154
37289SOL    HW118982   6.538   1.687  11.982  1.0072  0.6471  0.7883
37289SOL    HW218983   6.468   1.646  12.110  0.7847  0.3820  0.5823
37290SOL     OW18984   6.319   9.723  10.767 -0.7362 -0.0685 -0.2514
37290SOL    HW118985   6.297   9.719  10.860  1.2579  2.8630  0.4893
37290SOL    HW218986   6.242   9.688  10.722 -2.0622 -0.8511  2.4519
37291SOL     OW18987   1.120  11.045  12.532  0.1485  0.1311  0.1153
37291SOL    HW118988   1.148  11.114  12.592  0.0389  0.0842  0.2216
37291SOL    HW218989   1.077  10.981  12.589  1.8172 -0.8961  0.2926
37292SOL     OW18990  12.020   8.059   0.883 -0.0111  0.7801  0.4391
37292SOL    HW118991  11.994   7.979   0.837  3.5606 -1.0446  1.1997
37292SOL    HW218992  11.940   8.088   0.927 -1.6061 -2.0635 -0.2876
37293SOL     OW18993  12.558   9.396   5.550 -0.1375  0.0326 -0.8270
37293SOL    HW118994  12.563   9.302   5.568 -2.0674  0.0161 -0.1108
37293SOL    HW218995  12.583   9.438   5.632 -0.4839  0.1149 -0.7620
37294SOL     OW18996  11.894   1.066   3.190 -0.4451  0.5227  0.2077
37294SOL    HW118997  11.970   1.118   3.165  0.2732 -0.2163  0.8286
37294SOL    HW218998  11.909   0.980   3.151 -0.7483  0.2376  0.7081
37295SOL     OW18999   7.910   4.708   5.378  0.2359 -0.4445 -0.1254
37295SOL    HW119000   7.819   4.722   5.352  0.1356  0.4506  0.6584
37295SOL    HW219001   7.936   4.790   5.420  1.2006 -0.9163  0.2294
37296SOL     OW19002   4.214   2.249   9.657  0.0074 -0.2247  0.1573
37296SOL    HW119003   4.285   2.187   9.641 -0.6076 -1.8748  3.0097
37296SOL    HW219004   4.255   2.323   9.701  0.2306 -0.3346  0.1327
37297SOL     OW19005   4.462   5.866   6.352 -0.4590  0.5279  0.2057
37297SOL    HW119006   4.549   5.829   6.339 -0.8165 -0.4576  0.4847
37297SOL    HW219007   4.403   5.807   6.305 -1.1411  0.2226  1.3953
37298SOL     OW19008   3.280   0.994   8.141 -0.2687 -0.0136 -0.4793
37298SOL    HW119009   3.289   0.900   8.152  0.9087  0.3343  2.4359
37298SOL    HW219010   3.222   1.021   8.212  1.2227  1.6885  0.1735
37299SOL     OW19011   0.560  11.489   3.262 -0.7063  0.0186 -0.2565
37299SOL    HW119012   0.594  11.578   3.273 -0.3220 -0.2568  1.0675
37299SOL    HW219013   0.541  11.481   3.169  1.3507  0.7473 -0.7946
37300SOL     OW19014   0.428   7.520   9.768 -0.0647  0.3696  0.4344
37300SOL    HW119015   0.430   7.571   9.849  1.5481 -0.1204  0.7285
37300SOL    HW219016   0.344   7.543   9.728 -0.8228  0.7551  2.1485
37301SOL     OW19017   0.966   5.710   3.609  0.0818  0.1433  0.1840
37301SOL    HW119018   0.929   5.783   3.559  0.4888 -0.4271 -0.9907
37301SOL    HW219019   0.971   5.638   3.546  0.4797 -0.6505  1.0987
37302SOL     OW19020   1.969   0.120   7.034 -0.0451  0.2467 -0.6940
37302SOL    HW119021   2.061   0.127   7.006 -0.0203  0.6764 -0.5066
37302SOL    HW219022   1.920   0.169   6.968 -0.2866 -1.0643 -1.5197
37303SOL     OW19023   6.240   1.151  12.276 -0.4162 -0.2518 -0.0631
37303SOL    HW119024   6.217   1.060  12.292  1.8917 -1.0676 -0.9327
37303SOL    HW219025   6.221   1.196  12.359 -2.4842 -1.2694  0.0801
37304SOL     OW19026   8.416  12.754   0.882  0.1632 -0.5192  0.0076
37304SOL    HW119027   8.401  12.836   0.928  1.1454  0.3220 -1.1101
37304SOL    HW219028   8.332  12.732   0.843  0.5244  1.5583 -2.1429
37305SOL     OW19029   0.420   5.506   3.677  0.1927  0.2583 -0.1282
37305SOL    HW119030   0.501   5.473   3.716  0.0125  2.6004  2.4830
37305SOL    HW219031   0.447   5.545   3.594  1.9491  1.6791  1.0378
37306SOL     OW19032   8.034   9.396   7.979 -0.7495 -1.1999 -0.4131
37306SOL    HW119033   8.043   9.452   7.902  1.5140 -0.8367  0.0565
37306SOL    HW219034   8.120   9.355   7.989 -0.6647 -0.4766  2.4839
37307SOL     OW19035  10.271  10.941   2.774 -0.0845  0.4919 -0.1707
37307SOL    HW119036  10.317  10.981   2.847 -0.1940 -1.8951  1.3042
37307SOL    HW219037  10.338  10.925   2.708  0.5117  0.4363  0.4404
37308SOL     OW19038  10.892  11.920   1.283 -0.3137  0.1681  0.7454
37308SOL    HW119039  10.815  11.968   1.315 -0.9919 -0.6693  0.4245
37308SOL    HW219040  10.965  11.981   1.294 -0.8180  0.5608  2.1785
37309SOL     OW19041  12.599  11.431   4.516  0.1587  0.3507  0.4890
37309SOL    HW119042  12.560  11.346   4.535  0.8140  0.3102  1.7764
37309SOL    HW219043  12.661  11.446   4.587  1.2300  1.1921 -0.5600
37310SOL     OW19044   1.926   6.357   3.155 -0.0266 -0.5850 -0.5267
37310SOL    HW119045   1.912   6.451   3.147  0.6361 -0.2280  1.7211
37310SOL    HW219046   1.901   6.321   3.070 -2.0638  1.3957 -0.8477
37311SOL     OW19047   4.771   4.226   8.550  0.0471 -0.2518  0.2433
37311SOL    HW119048   4.714   4.270   8.614  0.1414 -1.4465  1.1882
37311SOL    HW219049   4.825   4.168   8.603  0.4940 -0.8900 -0.8892
37312SOL     OW19050   5.762   7.084   9.029  0.4344 -0.4051  0.2858
37312SOL    HW119051   5.789   7.165   8.986 -2.0210 -0.7535 -2.1656
37312SOL    HW219052   5.766   7.018   8.960 -1.0968 -1.5977  1.2730
37313SOL     OW19053  12.632  12.421   8.402 -0.0299 -0.3633 -0.3328
37313SOL    HW119054  12.590  12.455   8.323  1.0010  0.2980 -0.5991
37313SOL    HW219055  12.696  12.357   8.370 -0.5565 -1.1054  0.0568
37314SOL     OW19056  10.215   6.423   5.478 -0.0549  0.5791 -0.4087
37314SOL    HW119057  10.266   6.373   5.540 -0.3502  0.6367 -0.1142
37314SOL    HW219058  10.246   6.513   5.488 -0.7654  0.7504  0.3489
37315SOL     OW19059  11.695   1.163  11.666  0.0077 -0.2673  0.2163
37315SOL    HW119060  11.722   1.220  11.738  0.8702  0.8275 -0.9333
37315SOL    HW219061  11.629   1.105  11.705  1.0086 -0.2369  2.0591
37316SOL     OW19062  12.730   4.288   9.838  0.1937  0.3188  0.0009
37316SOL    HW119063  12.746   4.208   9.887  2.1717  0.4036 -0.4296
37316SOL    HW219064  12.705   4.352   9.905  0.8977 -0.0731  0.6561
37317SOL     OW19065   5.266   3.399   8.809 -0.4136 -0.1527 -0.7973
37317SOL    HW119066   5.254   3.419   8.901  0.0256  0.5451 -0.8844
37317SOL    HW219067   5.256   3.483   8.764 -0.9302 -0.5357 -1.4172
37318SOL     OW19068   2.766  11.918  12.063 -0.1264  0.4562 -0.1082
37318SOL    HW119069   2.841  11.968  12.032  0.9159 -0.8920  0.1551
37318SOL    HW219070   2.733  11.873  11.986  1.0735 -1.1097  0.2295
37319SOL     OW19071   0.161   6.630  10.826 -0.1145 -0.6629  0.7184
37319SOL    HW119072   0.166   6.586  10.911  1.1311 -1.9174  0.0368
37319SOL    HW219073   0.221   6.581  10.770  0.1397  0.9827 -0.5287
37320SOL     OW19074  11.978  10.100   5.990  0.2991 -0.4888  0.5431
37320SOL    HW119075  11.961  10.026   6.049  2.1948 -2.0699 -0.7968
37320SOL    HW219076  11.928  10.079   5.911  0.2635  0.0614  0.4175
37321SOL     OW19077  12.701   0.539   5.376  0.3072 -0.4417 -0.0348
37321SOL    HW119078  12.789   0.572   5.397 -0.6188  2.5320 -0.2958
37321SOL    HW219079  12.716   0.471   5.311  2.5721 -2.5165  2.3963
37322SOL     OW19080   3.202  11.614   2.632  0.5981  0.2219 -0.4544
37322SOL    HW119081   3.240  11.676   2.571 -0.4850  0.5098 -0.8567
37322SOL    HW219082   3.189  11.534   2.581 -0.6434  0.5762 -0.7173
37323SOL     OW19083  10.277   0.792   1.122  0.2860 -0.6272 -0.0053
37323SOL    HW119084  10.316   0.729   1.061  0.5848  0.0442 -0.5067
37323SOL    HW219085  10.325   0.873   1.107  1.2270 -0.7451  1.9742
37324SOL     OW19086   7.367  11.968  11.443  0.0712  0.2286 -0.1527
37324SOL    HW119087   7.408  12.030  11.503  1.3807 -1.0228  0.3036
37324SOL    HW219088   7.334  12.022  11.371  2.0810  1.3612 -0.3022
37325SOL     OW19089   6.299   5.808   8.833  0.1380 -0.3304  0.2213
37325SOL    HW119090   6.290   5.748   8.759  0.0676  1.5330 -1.3473
37325SOL    HW219091   6.217   5.798   8.882  0.5477 -2.2310  0.6080
37326SOL     OW19092   0.228   4.317  11.337 -0.3164 -0.0449 -0.3450
37326SOL    HW119093   0.264   4.255  11.400 -1.7109  0.1649  0.7095
37326SOL    HW219094   0.140   4.286  11.319 -0.2076  0.3243 -1.6513
37327SOL     OW19095   5.270   9.282  10.634 -0.2013  0.6303  0.1627
37327SOL    HW119096   5.321   9.342  10.578 -0.6525 -0.2356 -1.2156
37327SOL    HW219097   5.192   9.262  10.583 -0.8166  0.0950  1.2803
37328SOL     OW19098   3.014   9.935   5.783 -0.0809 -0.4282  0.4828
37328SOL    HW119099   3.104   9.910   5.763  0.0089 -0.2519  0.6641
37328SOL    HW219100   2.960   9.876   5.729  0.1552  0.2176 -0.4817
37329SOL     OW19101  12.435  10.463   8.982  0.6372 -0.4431 -0.3644
37329SOL    HW119102  12.525  10.453   9.013  0.2552  2.5495  2.1230
37329SOL    HW219103  12.441  10.526   8.910  0.3404  2.5774  2.0738
37330SOL     OW19104  10.527   2.054   9.725  0.3946 -0.1275 -0.2293
37330SOL    HW119105  10.468   2.070   9.798 -1.5177  1.2703 -1.9629
37330SOL    HW219106  10.569   2.138   9.709  0.5936 -0.3446 -0.8928
37331SOL     OW19107   3.000   9.462   5.417  0.3116  0.4340 -0.1422
37331SOL    HW119108   3.046   9.404   5.356  1.6540  2.0148 -0.6938
37331SOL    HW219109   3.021   9.550   5.386 -1.2466  1.2400  0.9858
37332SOL     OW19110  11.912   4.632  12.135 -0.2333 -0.0357  0.2706
37332SOL    HW119111  11.867   4.712  12.107  0.3079 -0.8378 -3.4383
37332SOL    HW219112  12.005   4.654  12.134 -0.1065 -0.5351 -0.3846
37333SOL     OW19113  12.044   3.885   7.365 -0.0058  0.4312 -0.1789
37333SOL    HW119114  12.057   3.817   7.298  0.5241  1.8464 -1.5534
37333SOL    HW219115  12.007   3.959   7.318 -0.1918  1.2703  1.2219
37334SOL     OW19116   2.324   1.249   5.163 -0.2657 -0.1510  0.0117
37334SOL    HW119117   2.236   1.218   5.141 -0.6144  0.3817  0.6076
37334SOL    HW219118   2.333   1.331   5.116 -1.2979  1.3756  2.2849
37335SOL     OW19119   3.011   4.743   3.183 -0.0240  0.1103 -0.2552
37335SOL    HW119120   3.053   4.752   3.098 -0.5396  0.1869 -0.5075
37335SOL    HW219121   2.943   4.811   3.183 -0.5984 -0.4585 -0.1342
37336SOL     OW19122  10.609   7.222   3.265  0.1442  0.0817 -0.5393
37336SOL    HW119123  10.545   7.183   3.206  1.6404 -0.8990 -1.5428
37336SOL    HW219124  10.693   7.189   3.236  1.1508  1.4254  0.6991
37337SOL     OW19125   1.979   4.791   6.135  0.3951  0.8204  0.2320
37337SOL    HW119126   1.999   4.799   6.042  0.9636  1.7488  0.4137
37337SOL    HW219127   2.064   4.778   6.177  0.0407 -0.6182  0.5435
37338SOL     OW19128   9.766  11.032   9.340 -0.3412  0.3955 -0.3786
37338SOL    HW119129   9.713  10.988   9.407 -1.0556  1.9132  0.0816
37338SOL    HW219130   9.822  10.962   9.306 -1.2680 -0.8267  0.4813
37339SOL     OW19131   0.301   0.176   5.182 -0.1046  0.1820  0.2827
37339SOL    HW119132   0.239   0.208   5.116  0.4404 -0.4116 -0.5357
37339SOL    HW219133   0.382   0.159   5.133  1.4720  3.0309  1.6778
37340SOL     OW19134   1.257   4.976   1.290 -0.4847 -0.3297  0.4384
37340SOL    HW119135   1.312   4.932   1.225 -0.4177  0.8022 -0.2843
37340SOL    HW219136   1.193   5.026   1.239 -1.1066 -0.2691  1.2546
37341SOL     OW19137   1.426   3.927   4.844 -0.2673 -0.1007 -0.3600
37341SOL    HW119138   1.343   3.972   4.834 -0.1056  0.1091 -0.7915
37341SOL    HW219139   1.415   3.845   4.796 -0.1701  0.0014 -0.5582
37342SOL     OW19140   0.285   1.054  12.728  0.3665 -0.0155  0.0477
37342SOL    HW119141   0.255   1.051  12.818  1.4132 -1.2247  0.3923
37342SOL    HW219142   0.313   0.965  12.709 -0.5799  0.0343 -1.7513
37343SOL     OW19143   5.735   2.931  12.759 -0.2733 -0.1244 -0.1082
37343SOL    HW119144   5.815   2.900  12.718 -0.2137 -2.3015  1.4706
37343SOL    HW219145   5.679   2.853  12.765 -0.4647  0.1033  3.3261
37344SOL     OW19146   8.059  10.141   1.772 -0.5233 -0.4571 -0.9649
37344SOL    HW119147   8.081  10.231   1.747  0.0456 -0.3586 -0.1561
37344SOL    HW219148   7.968  10.145   1.800  0.1343  0.3890  1.2921
37345SOL     OW19149   3.247  11.514   1.445  0.0947 -0.0007 -0.2677
37345SOL    HW119150   3.273  11.575   1.376 -0.1056  0.9345  0.4574
37345SOL    HW219151   3.225  11.433   1.399 -0.9443  0.8874 -1.4128
37346SOL     OW19152   5.060   0.444   7.466  0.0999  0.1478 -0.1848
37346SOL    HW119153   5.058   0.481   7.377 -0.3654 -0.9481 -0.6556
37346SOL    HW219154   4.981   0.391   7.471  0.1204  0.2074  0.9025
37347SOL     OW19155   0.159   7.035   6.555  0.2461  0.1655  0.1665
37347SOL    HW119156   0.104   7.065   6.483 -1.3734 -1.2137  0.7440
37347SOL    HW219157   0.100   6.983   6.609  2.2507 -1.7607  0.6251
37348SOL     OW19158   8.029  12.126   8.396 -1.0067  0.6675 -0.0902
37348SOL    HW119159   8.100  12.135   8.460 -0.6468  2.1573 -0.6358
37348SOL    HW219160   8.021  12.032   8.381  0.3858  0.4313  0.5054
37349SOL     OW19161  12.741   9.966   5.840 -0.3858 -0.3909 -0.3560
37349SOL    HW119162  12.830   9.946   5.813 -0.3952 -0.1546 -0.5614
37349SOL    HW219163  12.697   9.996   5.761 -0.7377 -0.8068 -0.3240
37350SOL     OW19164   7.619  11.339   0.396 -0.3266  0.4961 -0.1345
37350SOL    HW119165   7.541  11.393   0.415  1.0036  2.2399  0.6875
37350SOL    HW219166   7.633  11.350   0.302  0.3205  2.2063  0.1342
37351SOL     OW19167   2.503   5.795   2.166  0.2613  0.3898 -0.7766
37351SOL    HW119168   2.488   5.864   2.229 -0.3098 -0.9577  0.6213
37351SOL    HW219169   2.418   5.752   2.155  1.1671 -2.0630  0.8515
37352SOL     OW19170   8.378   1.163   8.787  0.6235  0.4064  0.2202
37352SOL    HW119171   8.438   1.156   8.861  0.7130 -1.8327  0.0076
37352SOL    HW219172   8.416   1.106   8.720 -1.2067 -0.3279 -0.2605
37353SOL     OW19173   5.879  11.557   7.799 -0.2357 -0.2580 -0.0518
37353SOL    HW119174   5.901  11.490   7.735 -0.9689 -0.8557  0.3199
37353SOL    HW219175   5.952  11.620   7.794 -0.6182  0.0747 -1.9610
37354SOL     OW19176  10.107   9.344   7.105 -0.0218  0.5428 -0.6360
37354SOL    HW119177  10.035   9.406   7.093  0.0316  0.5547 -0.9001
37354SOL    HW219178  10.065   9.258   7.110 -0.0511  0.5468 -0.8208
37355SOL     OW19179   9.336   8.576  12.142 -0.2231  0.2272 -0.1024
37355SOL    HW119180   9.426   8.606  12.131 -0.3638  0.5513 -0.3890
37355SOL    HW219181   9.307   8.616  12.224 -0.3638  0.7528 -0.4108
37356SOL     OW19182  11.199  11.584   1.114  0.1435 -0.0004  0.2057
37356SOL    HW119183  11.202  11.522   1.187  1.0246 -0.5444 -0.2733
37356SOL    HW219184  11.177  11.531   1.038 -3.3158  0.9385  0.4093
37357SOL     OW19185   7.840   4.708   2.051  0.1677  0.1489 -0.7587
37357SOL    HW119186   7.924   4.753   2.060  0.7700 -0.7468 -1.7292
37357SOL    HW219187   7.859   4.616   2.072 -0.4096 -0.1918 -1.6556
37358SOL     OW19188   0.032   9.216   0.774  0.4423  0.3884 -0.3283
37358SOL    HW119189   0.010   9.307   0.752  0.7814  0.4463 -0.4417
37358SOL    HW219190  -0.052   9.170   0.774  0.4409  0.3296 -1.9914
37359SOL     OW19191  11.425  10.971   2.495  0.2639  0.3705  0.0440
37359SOL    HW119192  11.474  10.913   2.554 -1.6977 -0.9200  0.5327
37359SOL    HW219193  11.394  11.042   2.552 -0.9933 -0.4773  0.4770
37360SOL     OW19194   2.380   8.125   9.951 -0.1310  0.6888 -0.4331
37360SOL    HW119195   2.452   8.121   9.888 -0.8321  0.0990 -1.2128
37360SOL    HW219196   2.307   8.082   9.907 -0.2527 -1.0442  1.3317
37361SOL     OW19197   7.996  12.534   1.825 -0.0455 -0.1960  0.0650
37361SOL    HW119198   7.970  12.460   1.770  1.1586  0.5445 -1.5881
37361SOL    HW219199   7.971  12.611   1.775  0.2429  0.5242  0.9973
37362SOL     OW19200   8.068   2.295   5.993 -0.0525  0.0487  0.1749
37362SOL    HW119201   8.018   2.286   5.912  0.3473  1.0282 -0.1948
37362SOL    HW219202   8.002   2.317   6.059 -0.3731 -0.7079  0.1179
37363SOL     OW19203   2.450   8.797   0.281 -0.3009 -0.2342 -0.0471
37363SOL    HW119204   2.529   8.743   0.278 -2.1013 -3.0968 -0.3116
37363SOL    HW219205   2.430   8.817   0.190 -0.5241 -0.5477 -0.0681
37364SOL     OW19206  12.752  11.282  11.591  0.0933  0.5682  0.0617
37364SOL    HW119207  12.767  11.239  11.507  1.0756  1.9005 -0.4836
37364SOL    HW219208  12.666  11.322  11.583  0.1769  0.6776 -0.3095
37365SOL     OW19209   4.149  12.765  11.204  0.1755  0.4042 -0.4618
37365SOL    HW119210   4.161  12.749  11.110 -0.5735 -0.9886 -0.3376
37365SOL    HW219211   4.090  12.841  11.208  1.5685  1.5697 -1.0810
37366SOL     OW19212   7.176   7.784   7.232 -0.0108  0.1215  0.1449
37366SOL    HW119213   7.138   7.766   7.318 -0.7673  2.0548  0.2614
37366SOL    HW219214   7.218   7.869   7.241  0.2961  0.1558 -1.2743
37367SOL     OW19215   3.597  10.913   8.818 -0.4400  0.1228 -0.0939
37367SOL    HW119216   3.632  10.957   8.740 -1.2469  1.3316  0.1929
37367SOL    HW219217   3.629  10.967   8.891 -0.9300 -0.1382  0.3154
37368SOL     OW19218   4.021   7.842   5.201  0.2428  0.1185  0.4114
37368SOL    HW119219   4.050   7.857   5.111  0.0753 -1.0698  0.1433
37368SOL    HW219220   3.966   7.764   5.196 -0.4300  0.5061  1.4208
37369SOL     OW19221   3.485   7.608   6.382  0.1741  0.3666  0.5503
37369SOL    HW119222   3.537   7.530   6.365 -1.0568 -0.0836 -1.5104
37369SOL    HW219223   3.528   7.677   6.332  0.0985  0.5163  0.6922
37370SOL     OW19224   1.378  12.479  10.766 -0.8010 -0.1016 -0.1153
37370SOL    HW119225   1.325  12.546  10.809  0.4221  1.3003 -0.7025
37370SOL    HW219226   1.414  12.427  10.838 -2.0479 -0.3701  0.3344
37371SOL     OW19227  12.163   5.580   6.182  0.1522  0.0208  0.4917
37371SOL    HW119228  12.117   5.654   6.221  1.4376  1.2227 -0.1683
37371SOL    HW219229  12.107   5.552   6.110 -1.4182 -1.1347  2.0653
37372SOL     OW19230   1.921   1.488   6.138 -0.3817  0.0232 -0.0735
37372SOL    HW119231   1.914   1.521   6.049 -0.5334  0.0765 -0.0419
37372SOL    HW219232   2.007   1.519   6.169 -0.8425  1.0593  0.2307
37373SOL     OW19233   2.633   5.531  11.298  0.3742  0.2424 -0.4995
37373SOL    HW119234   2.636   5.459  11.361 -0.4322  0.1667 -0.5348
37373SOL    HW219235   2.593   5.493  11.220 -1.1130  0.9831 -0.1409
37374SOL     OW19236   9.609   2.650   9.591  0.5030  0.0738  0.1390
37374SOL    HW119237   9.658   2.699   9.524  1.6971 -0.9403  0.2338
37374SOL    HW219238   9.536   2.610   9.543 -0.7587  2.2242  0.1334
37375SOL     OW19239   4.925   1.956   0.946 -0.3295 -0.3266  0.6097
37375SOL    HW119240   5.007   1.972   0.900 -0.0489  0.4066  1.3338
37375SOL    HW219241   4.921   1.861   0.955 -0.2088 -0.4633 -0.5710
37376SOL     OW19242   4.964  12.499  12.160 -0.0837 -0.3323  1.0047
37376SOL    HW119243   4.888  12.489  12.101 -0.2712  0.1990  1.1514
37376SOL    HW219244   4.994  12.588  12.145  0.8410 -0.6988  0.5676
37377SOL     OW19245   0.104   4.901   3.848 -0.1974  0.0075  1.0108
37377SOL    HW119246   0.148   4.981   3.819  0.1339 -0.2953  0.6649
37377SOL    HW219247   0.161   4.866   3.916 -1.6404  1.4319  3.0824
37378SOL     OW19248   0.517  12.752   9.850 -0.6192  0.1705  0.4004
37378SOL    HW119249   0.561  12.685   9.796 -1.8137 -1.6840  1.6103
37378SOL    HW219250   0.437  12.710   9.879 -0.8906  1.7742  2.1393
37379SOL     OW19251   5.282  11.136   7.605  0.2872  0.1352 -0.4224
37379SOL    HW119252   5.301  11.205   7.542  0.6108 -0.3719 -0.8834
37379SOL    HW219253   5.229  11.180   7.673 -0.0780  0.6766 -1.0459
37380SOL     OW19254   7.973   3.156   8.732 -0.5045 -0.1358  0.5295
37380SOL    HW119255   8.022   3.088   8.778 -1.7381 -0.6531  1.1069
37380SOL    HW219256   7.999   3.237   8.775  0.2674 -0.3253  0.4499
37381SOL     OW19257   3.364   5.696   8.498 -0.2484 -0.3835  0.1581
37381SOL    HW119258   3.277   5.659   8.515 -0.2047  0.0018  1.2925
37381SOL    HW219259   3.359   5.786   8.529 -0.2105  0.4828 -2.1657
37382SOL     OW19260   5.599   9.498   1.567 -0.7196 -0.5342 -0.1286
37382SOL    HW119261   5.530   9.503   1.501  0.2147 -1.1838 -1.2102
37382SOL    HW219262   5.588   9.412   1.607  1.1625 -1.9669 -2.3762
37383SOL     OW19263   4.740   8.373   5.320  0.0440 -0.4732 -0.1735
37383SOL    HW119264   4.720   8.308   5.252  0.2901 -1.7312  0.9291
37383SOL    HW219265   4.834   8.387   5.311 -0.2403  0.8895 -1.3837
37384SOL     OW19266   5.841   3.539   2.488  0.1280 -0.2202  0.0457
37384SOL    HW119267   5.827   3.627   2.523  0.0680 -0.5303  0.8292
37384SOL    HW219268   5.770   3.487   2.525 -0.3080 -0.4412 -1.0479
37385SOL     OW19269   8.879   4.187   8.177 -0.2911  0.4851  0.4822
37385SOL    HW119270   8.827   4.267   8.169  1.0708  1.3937  0.4189
37385SOL    HW219271   8.932   4.184   8.097 -1.2437 -1.2034 -0.1510
37386SOL     OW19272   1.450   5.943  11.242 -0.0313  0.2989 -0.5530
37386SOL    HW119273   1.443   5.977  11.152 -0.0491  1.3143 -0.1806
37386SOL    HW219274   1.459   6.021  11.296  1.1874 -0.3501  0.2263
37387SOL     OW19275   9.527   4.033   5.648  0.4287 -0.1106 -0.1087
37387SOL    HW119276   9.590   4.058   5.581  2.0456 -0.6408  1.1395
37387SOL    HW219277   9.550   4.088   5.723  0.1657 -1.1225  0.7360
37388SOL     OW19278  10.520   3.624   2.218 -0.3341 -0.3003  0.1018
37388SOL    HW119279  10.518   3.649   2.310  1.9984  0.9393 -0.0932
37388SOL    HW219280  10.506   3.706   2.170  0.2224 -0.6126 -0.6225
37389SOL     OW19281   1.338   3.110  10.543  0.0952  0.1571  0.0230
37389SOL    HW119282   1.371   3.169  10.610  0.5465  0.9331 -0.8660
37389SOL    HW219283   1.259   3.153  10.509  0.1979  0.0618 -0.3455
37390SOL     OW19284  12.197   0.654   7.227 -0.5508 -0.0026 -0.0619
37390SOL    HW119285  12.221   0.709   7.301  0.1628  0.5455 -0.6852
37390SOL    HW219286  12.142   0.710   7.172 -0.4852 -0.1748 -0.3026
37391SOL     OW19287   2.469  12.103   1.063  1.1360  0.0493 -0.2792
37391SOL    HW119288   2.443  12.023   1.108 -0.6029  0.9387  0.3670
37391SOL    HW219289   2.409  12.111   0.989 -0.3930  2.0028  1.0831
37392SOL     OW19290   6.799  11.730   4.777 -0.0317 -0.5022  0.5949
37392SOL    HW119291   6.825  11.649   4.822 -0.4477 -1.5244 -0.9221
37392SOL    HW219292   6.798  11.707   4.684  1.5466  1.7368 -0.0644
37393SOL     OW19293  12.017   5.629   1.969 -0.1479  0.0563 -0.5242
37393SOL    HW119294  11.967   5.599   2.045  0.1123 -0.7871 -0.6706
37393SOL    HW219295  11.988   5.719   1.956 -0.6571  0.0127  0.1921
37394SOL     OW19296  11.225   3.538   7.372  0.6359 -0.6893  0.5426
37394SOL    HW119297  11.253   3.458   7.416 -1.0400 -1.9676 -0.5881
37394SOL    HW219298  11.134   3.550   7.400  0.5266  0.2275 -0.1494
37395SOL     OW19299   0.409   0.655   2.675  0.2194  0.3898  0.0083
37395SOL    HW119300   0.408   0.559   2.674  1.0631  0.3480  1.3761
37395SOL    HW219301   0.345   0.680   2.741  0.0930  0.7686 -0.2531
37396SOL     OW19302   0.191   4.365   8.104  0.4851  0.3224  0.3509
37396SOL    HW119303   0.255   4.366   8.176  0.1735  0.0002  0.6333
37396SOL    HW219304   0.217   4.291   8.049 -0.2710 -0.4737  1.0409
37397SOL     OW19305   0.994  10.369   3.520 -0.0923  0.0784 -0.5478
37397SOL    HW119306   0.910  10.391   3.560  0.3757  1.9060 -0.4904
37397SOL    HW219307   1.057  10.427   3.563  1.3359 -1.6511 -0.1634
37398SOL     OW19308   4.897   7.949  12.955 -0.2279 -0.3075  0.0807
37398SOL    HW119309   4.899   7.860  12.992 -0.6940  0.1446  1.2514
37398SOL    HW219310   4.895   7.935  12.861  0.8998 -1.5230  0.1904
37399SOL     OW19311   1.133   6.446   3.312 -0.0332 -0.3519  0.4232
37399SOL    HW119312   1.168   6.392   3.383 -0.6630 -2.1043 -0.5502
37399SOL    HW219313   1.113   6.384   3.242 -0.5890  1.1821 -0.8375
37400SOL     OW19314  11.123   2.632  11.553  0.5129  0.1960 -0.0815
37400SOL    HW119315  11.182   2.613  11.625  0.7708  1.2739 -0.0030
37400SOL    HW219316  11.060   2.559  11.554  2.0669 -1.2287 -0.4611
37401SOL     OW19317   7.187  11.968   3.916 -0.2729 -0.5726 -0.6219
37401SOL    HW119318   7.209  12.004   3.830 -2.8217 -1.5477 -1.7618
37401SOL    HW219319   7.101  11.929   3.904 -0.9606 -0.2474  2.5511
37402SOL     OW19320  12.521  12.544   9.534  0.2622 -0.0987  0.2113
37402SOL    HW119321  12.583  12.616   9.549 -1.1899  0.8226  2.3207
37402SOL    HW219322  12.543  12.479   9.601  0.0678 -0.5826 -0.1898
37403SOL     OW19323   3.002   7.899   2.407 -0.3404 -0.2528  0.1186
37403SOL    HW119324   3.002   7.847   2.326 -1.4952  0.2122 -0.2111
37403SOL    HW219325   3.028   7.838   2.475  0.7655 -0.6321 -0.6170
37404SOL     OW19326   5.640   4.684   0.824 -0.1646  0.5547 -0.3278
37404SOL    HW119327   5.656   4.743   0.897  0.8245 -0.1857  0.0740
37404SOL    HW219328   5.561   4.636   0.848 -0.0024  0.5156  0.1210
37405SOL     OW19329  11.433   5.078   9.435  0.8838 -0.3635 -0.3031
37405SOL    HW119330  11.436   4.984   9.418  0.4468 -0.0264 -2.5865
37405SOL    HW219331  11.445   5.118   9.349  0.4661  1.6691  0.5284
37406SOL     OW19332   5.263  12.111  12.291  0.1806  0.0857  0.9622
37406SOL    HW119333   5.189  12.172  12.293  1.4598  1.8004 -0.3830
37406SOL    HW219334   5.290  12.110  12.199 -0.0949 -2.9870  0.8182
37407SOL     OW19335   9.608   8.434   3.720 -0.1504  0.4962  0.1564
37407SOL    HW119336   9.644   8.407   3.805 -0.8449 -1.5932 -0.1560
37407SOL    HW219337   9.568   8.519   3.737  1.2193  0.9084  1.4972
37408SOL     OW19338   8.394   3.939   8.469  0.1745 -0.2685 -0.2865
37408SOL    HW119339   8.437   3.869   8.421 -0.4357 -0.2427 -0.8821
37408SOL    HW219340   8.422   4.020   8.426 -0.9971 -0.2880 -1.1314
37409SOL     OW19341   1.715   8.804   2.462  0.3582  0.3174 -0.0254
37409SOL    HW119342   1.769   8.829   2.537 -0.7084  1.5123  0.3699
37409SOL    HW219343   1.764   8.732   2.421  1.6732  0.5990  0.9669
37410SOL     OW19344   3.429   1.365   7.158  0.1211 -0.2926  0.1155
37410SOL    HW119345   3.496   1.373   7.090  0.5557  0.3465  0.6086
37410SOL    HW219346   3.408   1.456   7.181 -2.8322 -0.3167 -1.8773
37411SOL     OW19347   6.694   3.561   4.503 -0.3719  0.7793  0.2173
37411SOL    HW119348   6.612   3.602   4.476 -0.7946  0.6530  1.2545
37411SOL    HW219349   6.749   3.634   4.532 -1.1713  0.6497  2.1866
37412SOL     OW19350  11.609   9.134   1.959  0.2874 -0.0711 -0.5885
37412SOL    HW119351  11.638   9.157   1.870 -2.4322 -2.2119 -2.2048
37412SOL    HW219352  11.666   9.062   1.985  0.6767  0.1200 -0.9087
37413SOL     OW19353   2.382   1.211  11.732  0.1361  0.3301 -0.1400
37413SOL    HW119354   2.341   1.228  11.647  1.1137  0.6708 -0.5517
37413SOL    HW219355   2.449   1.278  11.741 -0.1185  0.4644  1.0345
37414SOL     OW19356   9.413  10.859   6.880  0.2727  0.0197 -0.9900
37414SOL    HW119357   9.481  10.905   6.831  0.8475 -1.2460 -1.4345
37414SOL    HW219358   9.351  10.831   6.813 -0.1833  0.3222 -0.6990
37415SOL     OW19359   4.862   1.955   9.545  0.0024 -0.4625 -0.0064
37415SOL    HW119360   4.918   1.909   9.608 -4.5005 -4.0576  2.0247
37415SOL    HW219361   4.801   2.005   9.599 -0.1251  1.6006 -1.9257
37416SOL     OW19362   9.126   6.028  11.915  0.7833  0.4383 -0.0851
37416SOL    HW119363   9.181   6.025  11.993  0.9595  2.6456 -0.0791
37416SOL    HW219364   9.178   5.982  11.848  0.9740 -0.7733  0.8592
37417SOL     OW19365   7.102   4.386   6.513  0.0687 -0.3453  0.2650
37417SOL    HW119366   7.025   4.439   6.494  0.1859  0.2371  1.3624
37417SOL    HW219367   7.087   4.353   6.601 -0.1819 -2.4893 -0.5051
37418SOL     OW19368  11.874   4.332   8.277  0.4017 -0.2179  0.3015
37418SOL    HW119369  11.866   4.423   8.249  0.5564 -0.5744 -0.9175
37418SOL    HW219370  11.824   4.282   8.212 -0.0664 -0.9736  1.2069
37419SOL     OW19371  11.950   6.473   4.473 -0.2786 -0.1937  0.3871
37419SOL    HW119372  12.016   6.535   4.504 -0.5278  0.6653 -0.7407
37419SOL    HW219373  11.867   6.507   4.507 -0.3095 -0.4685  0.5917
37420SOL     OW19374  11.415  12.177   8.537  0.2937 -0.2376  0.0967
37420SOL    HW119375  11.442  12.189   8.446  0.3695  0.2697  0.1830
37420SOL    HW219376  11.488  12.212   8.589 -0.6870  1.6165  0.3279
37421SOL     OW19377   4.458   3.989   9.701  0.2412  0.6316 -0.2914
37421SOL    HW119378   4.509   4.025   9.773 -0.5322  1.1681  0.0028
37421SOL    HW219379   4.518   3.930   9.655  0.1939 -1.3620  2.0028
37422SOL     OW19380   9.107   7.725   0.686  0.1573  0.0336 -0.4766
37422SOL    HW119381   9.101   7.666   0.761 -0.0610 -2.2499 -2.1600
37422SOL    HW219382   9.026   7.775   0.687 -0.0755 -0.3456  0.4969
37423SOL     OW19383   8.644  11.969   0.312  0.1510 -0.2429 -0.7628
37423SOL    HW119384   8.703  12.011   0.374  1.0126 -0.4295 -1.4412
37423SOL    HW219385   8.690  11.973   0.229 -1.3423  0.7430 -1.5761
37424SOL     OW19386   6.841  12.296   3.601  0.1850  0.7609  0.3876
37424SOL    HW119387   6.908  12.342   3.652  1.2005  1.0583 -1.1425
37424SOL    HW219388   6.839  12.342   3.517 -1.5966  0.4284  0.2232
37425SOL     OW19389   3.600  12.589   4.692 -0.1445  0.2307  0.1915
37425SOL    HW119390   3.591  12.609   4.599 -0.5478  1.8905  0.5501
37425SOL    HW219391   3.688  12.554   4.701 -0.6171 -1.4227 -1.0213
37426SOL     OW19392   1.796   7.602   5.159 -0.5304 -0.3412 -0.4779
37426SOL    HW119393   1.810   7.663   5.086 -0.1050 -0.1519 -0.2437
37426SOL    HW219394   1.720   7.638   5.205  0.5346  0.8142  0.4546
37427SOL     OW19395  11.507   8.509  11.253  0.2606 -0.8225 -0.1842
37427SOL    HW119396  11.440   8.440  11.259  0.8408 -1.5724 -1.6547
37427SOL    HW219397  11.477   8.577  11.312 -2.1835 -0.8289 -1.2864
37428SOL     OW19398   5.149   8.499   1.969 -0.4518  0.0387 -0.0584
37428SOL    HW119399   5.171   8.466   1.882  1.0442  1.4061 -0.2306
37428SOL    HW219400   5.054   8.510   1.966 -0.3766  0.6404 -1.7604
37429SOL     OW19401  10.111   6.887   5.142  0.7218 -0.1839 -0.2942
37429SOL    HW119402  10.066   6.815   5.186 -1.0208  0.6857 -0.5402
37429SOL    HW219403  10.182   6.845   5.093  0.5380 -1.5630  0.5755
37430SOL     OW19404   7.683   3.337   2.267 -0.2336 -0.0396  0.3981
37430SOL    HW119405   7.686   3.380   2.352 -1.7265 -0.0592  0.4903
37430SOL    HW219406   7.623   3.392   2.215  0.0204 -0.4735 -0.3693
37431SOL     OW19407   3.153   1.383   7.647  0.5773 -0.1618  0.3225
37431SOL    HW119408   3.071   1.364   7.603  2.4631 -1.8479 -2.7930
37431SOL    HW219409   3.151   1.478   7.662 -1.6428 -0.0772 -0.1752
37432SOL     OW19410  10.628   1.392   8.163 -0.3268  0.0281  0.0713
37432SOL    HW119411  10.662   1.334   8.231  1.1862 -0.0417 -0.7106
37432SOL    HW219412  10.650   1.480   8.194  0.1233  0.0113 -0.2017
37433SOL     OW19413  10.000   1.832  12.944  0.4005  0.8951 -0.1268
37433SOL    HW119414  10.011   1.799  12.855  1.5030  1.8775 -0.3790
37433SOL    HW219415  10.044   1.768  12.999  0.0931  0.5107 -0.3244
37434SOL     OW19416  12.376   0.069   7.818 -0.5176  0.0590  0.1324
37434SOL    HW119417  12.317  -0.007   7.818  0.2357 -0.5667 -1.3307
37434SOL    HW219418  12.351   0.118   7.896 -0.1102 -2.4093  1.9372
37435SOL     OW19419   5.919   3.680   4.833 -0.1792  0.2202  0.0982
37435SOL    HW119420   5.966   3.650   4.910  0.7577  1.4274  0.0338
37435SOL    HW219421   5.850   3.737   4.867  0.7708  1.4505  0.0451
37436SOL     OW19422   7.760   7.652   3.438 -0.4340 -0.1948  0.1660
37436SOL    HW119423   7.790   7.577   3.386  1.0134  0.2030  0.3655
37436SOL    HW219424   7.742   7.615   3.525  0.3427 -0.3219  0.2846
37437SOL     OW19425   0.551   2.536   0.175 -0.2811  0.1331  0.1439
37437SOL    HW119426   0.638   2.539   0.214  0.0173  1.4279 -0.5740
37437SOL    HW219427   0.502   2.604   0.221 -0.6903 -0.0608  0.0001
37438SOL     OW19428   2.563   5.943   9.917 -0.1271 -0.3227 -0.6663
37438SOL    HW119429   2.614   5.917   9.840 -1.3273 -0.0088 -1.5906
37438SOL    HW219430   2.493   5.879   9.922 -0.3648 -0.0258 -0.1526
37439SOL     OW19431  11.633   6.819   0.620  0.0841 -0.3511  0.4867
37439SOL    HW119432  11.669   6.746   0.671  0.4754 -0.7905 -0.4119
37439SOL    HW219433  11.692   6.827   0.545 -0.4488  0.3469  0.1346
37440SOL     OW19434   0.711   6.304   2.797  0.1865 -0.1766  0.3567
37440SOL    HW119435   0.799   6.299   2.761  0.8347 -0.0458  1.8608
37440SOL    HW219436   0.694   6.397   2.807 -0.3658 -0.1798 -0.4668
37441SOL     OW19437   5.645   8.626   9.129  0.1068 -0.6281 -0.5413
37441SOL    HW119438   5.635   8.714   9.095  0.7918 -0.5813 -0.6366
37441SOL    HW219439   5.557   8.602   9.159 -0.1875 -0.1045 -0.9578
37442SOL     OW19440   0.580   4.650   9.031  0.4010  0.8590  0.1134
37442SOL    HW119441   0.663   4.623   8.992  0.4851  0.1610  0.7540
37442SOL    HW219442   0.559   4.581   9.094 -0.5238  1.1700  0.1676
37443SOL     OW19443   6.213   2.530   2.808  0.1953  0.2728  0.2588
37443SOL    HW119444   6.259   2.557   2.888  0.2582  1.8880 -0.2812
37443SOL    HW219445   6.133   2.487   2.839  1.1143 -0.8371  1.1884
37444SOL     OW19446   0.189   7.619  10.143  0.2963  0.1083 -0.3749
37444SOL    HW119447   0.096   7.625  10.164  0.2651 -0.1973 -0.4111
37444SOL    HW219448   0.229   7.693  10.188  0.0426  0.2100 -0.3141
37445SOL     OW19449   7.444  12.416   8.199  0.1847  0.4153 -0.5679
37445SOL    HW119450   7.428  12.422   8.105  0.1463  3.0130 -0.4589
37445SOL    HW219451   7.537  12.398   8.207  0.0472 -0.6108 -1.0717
37446SOL     OW19452   0.333   0.962   6.514  0.5090  0.0761  0.0151
37446SOL    HW119453   0.423   0.935   6.531  0.7712  1.5145  1.0297
37446SOL    HW219454   0.340   1.051   6.479 -0.4257 -0.4409 -1.6154
37447SOL     OW19455   8.350   5.705   1.693  0.4631 -0.3432  0.1753
37447SOL    HW119456   8.415   5.647   1.733  1.4003  0.1080 -0.6496
37447SOL    HW219457   8.321   5.658   1.615  0.6947 -0.0309 -0.1042
37448SOL     OW19458   4.090   1.757   1.888 -0.6498  0.2617 -0.3669
37448SOL    HW119459   4.148   1.728   1.959 -1.5268  1.4352  0.8897
37448SOL    HW219460   4.140   1.825   1.842 -0.1618 -0.3457 -0.7408
37449SOL     OW19461   1.188  10.122  11.904  0.3557 -0.6699 -0.1246
37449SOL    HW119462   1.229  10.052  11.955  0.4602  0.3161  1.2137
37449SOL    HW219463   1.257  10.156  11.848  0.4040 -1.3843 -0.4972
37450SOL     OW19464   7.960   9.007   7.480 -0.1983  0.1694 -0.3821
37450SOL    HW119465   8.027   8.942   7.500 -0.9785 -1.0010 -1.4521
37450SOL    HW219466   7.996   9.058   7.408  1.2354  2.2753  1.6714
37451SOL     OW19467   6.187   5.350  12.228  0.3191  0.2810  0.0548
37451SOL    HW119468   6.155   5.263  12.203  2.7602 -0.3617 -1.1768
37451SOL    HW219469   6.158   5.360  12.319 -1.8413 -0.8654 -0.4319
37452SOL     OW19470  12.026   6.758   6.508  0.3005  0.3006  0.5970
37452SOL    HW119471  12.023   6.667   6.538 -0.5208  0.7536  2.0338
37452SOL    HW219472  12.106   6.764   6.455  0.8422 -1.0416  1.2155
37453SOL     OW19473   6.676   1.969   4.868  0.7632  0.2091  0.3784
37453SOL    HW119474   6.662   2.061   4.846 -0.4382  0.1180  0.6866
37453SOL    HW219475   6.646   1.921   4.791 -0.6579  0.0135  1.0136
37454SOL     OW19476   0.631   3.959  10.838  0.1351 -0.1223 -0.3011
37454SOL    HW119477   0.597   4.041  10.873 -1.6996 -1.0948  0.3125
37454SOL    HW219478   0.655   3.908  10.916 -2.5104 -1.6887 -0.3895
37455SOL     OW19479   3.255   5.416  10.899 -0.8577  0.8417 -0.5831
37455SOL    HW119480   3.302   5.406  10.816  0.2703 -3.5322  0.3484
37455SOL    HW219481   3.311   5.473  10.951 -0.0433  1.1853 -1.7915
37456SOL     OW19482   3.830  12.338   5.541  0.7436  0.1259 -0.6849
37456SOL    HW119483   3.895  12.408   5.541  0.0101  0.8341 -1.1610
37456SOL    HW219484   3.796  12.336   5.451 -0.3129  0.1913 -0.3089
37457SOL     OW19485   8.673   1.952   4.631  0.3056 -0.1388  0.3481
37457SOL    HW119486   8.614   1.946   4.706  1.6268  2.5936  1.7666
37457SOL    HW219487   8.647   2.032   4.586  0.4724 -0.9662 -1.2944
37458SOL     OW19488   8.035   0.054   1.008 -0.0895 -0.2645  0.0183
37458SOL    HW119489   7.950   0.021   1.036  0.2261 -0.0989  1.2785
37458SOL    HW219490   8.042   0.031   0.916 -1.5905 -0.0789 -0.1540
37459SOL     OW19491  12.901   4.964   5.725 -0.1009 -0.7543 -0.4248
37459SOL    HW119492  12.823   5.013   5.753  1.2498 -0.0242  2.3643
37459SOL    HW219493  12.933   5.013   5.649 -0.2262  1.2990  0.7481
37460SOL     OW19494  10.186   9.517  10.958  0.5370 -0.1180  0.4888
37460SOL    HW119495  10.264   9.565  10.932  1.3453 -1.2583  0.7618
37460SOL    HW219496  10.130   9.520  10.880  2.0049 -1.6080 -0.6854
37461SOL     OW19497   0.696  10.387   8.586  0.1086 -0.4708 -0.3798
37461SOL    HW119498   0.650  10.466   8.558  2.1708  0.3866 -1.5756
37461SOL    HW219499   0.627  10.320   8.590 -1.4838  1.0598 -0.5599
37462SOL     OW19500   6.692  10.641   0.892 -0.7987 -0.5721  0.1741
37462SOL    HW119501   6.606  10.669   0.923 -1.0533 -1.4144  0.2535
37462SOL    HW219502   6.692  10.546   0.904 -0.5758 -0.8340 -1.5695
37463SOL     OW19503   7.377   2.141   8.043 -0.3630 -0.8325 -0.1645
37463SOL    HW119504   7.465   2.144   8.006 -0.6655 -1.1851 -0.9279
37463SOL    HW219505   7.375   2.062   8.096 -0.3863 -1.1284 -0.5992
37464SOL     OW19506   1.795  10.672   5.518 -0.0262 -0.1868  0.3466
37464SOL    HW119507   1.872  10.705   5.565 -0.1752 -1.8674  1.8860
37464SOL    HW219508   1.822  10.586   5.486 -0.3973  0.3493 -1.5528
37465SOL     OW19509  10.839   7.570  10.381 -0.2187  0.0668 -0.1395
37465SOL    HW119510  10.898   7.622  10.435  2.3841 -1.1510 -1.6316
37465SOL    HW219511  10.839   7.483  10.421  0.0941 -0.3032 -0.9265
37466SOL     OW19512   1.120  12.782  12.022  0.4093 -0.3652  0.3770
37466SOL    HW119513   1.060  12.750  12.089  0.3364 -0.1190  0.4308
37466SOL    HW219514   1.154  12.703  11.981 -1.1580 -0.5103 -0.7415
37467SOL     OW19515   3.007   1.205  12.937 -0.8172  0.7504  0.6172
37467SOL    HW119516   3.026   1.275  13.000 -0.4216  0.4702  0.8125
37467SOL    HW219517   3.093   1.177  12.906 -0.7588 -1.4089  2.4446
37468SOL     OW19518  12.814   2.530   3.560 -0.1102  0.3695  0.3863
37468SOL    HW119519  12.855   2.591   3.621  0.0925 -0.6161  1.2808
37468SOL    HW219520  12.884   2.506   3.499  0.4271 -0.6150  1.3591
37469SOL     OW19521   1.618   8.992   3.406 -0.3324 -0.5418 -0.1013
37469SOL    HW119522   1.537   9.040   3.423 -0.1604 -0.8198  1.6431
37469SOL    HW219523   1.594   8.924   3.343 -1.0009  0.5879 -1.1079
37470SOL     OW19524   7.193   9.426   3.794 -0.2671  0.0559 -0.5734
37470SOL    HW119525   7.211   9.429   3.888  2.3344  0.2088 -1.0060
37470SOL    HW219526   7.170   9.516   3.771  0.0466  0.2183 -0.2608
37471SOL     OW19527   0.497   6.737   1.478  0.1599 -0.0271  0.0418
37471SOL    HW119528   0.470   6.693   1.559  1.5946  1.0151  1.1437
37471SOL    HW219529   0.500   6.830   1.502  1.5830  0.1985 -0.9071
37472SOL     OW19530   1.319  11.477  11.299  0.9036  0.1854  0.0922
37472SOL    HW119531   1.305  11.448  11.389  5.3683  2.1841  1.7257
37472SOL    HW219532   1.346  11.398  11.253 -0.5147 -0.6846  0.6760
37473SOL     OW19533   3.678  10.265   2.273 -0.4080  0.2226 -0.4697
37473SOL    HW119534   3.645  10.355   2.273  0.5775  0.6081  0.5891
37473SOL    HW219535   3.745  10.264   2.342 -0.1669 -1.2367 -0.6956
37474SOL     OW19536  11.375   1.436   6.621  0.1486 -0.1449 -0.4997
37474SOL    HW119537  11.438   1.407   6.556 -2.3068 -1.6604 -2.4124
37474SOL    HW219538  11.355   1.526   6.598  1.8912  0.5156  0.4332
37475SOL     OW19539   4.008   4.734   2.076  0.7345 -0.1064 -0.5671
37475SOL    HW119540   4.064   4.709   2.150  1.0629 -1.7335 -1.3160
37475SOL    HW219541   4.066   4.779   2.015  0.4753  1.1874  0.0969
37476SOL     OW19542   7.290   5.318   4.707 -0.4042 -0.1961  0.1432
37476SOL    HW119543   7.322   5.281   4.789 -0.6664  0.1303  0.3886
37476SOL    HW219544   7.353   5.287   4.642  0.7183  0.8808  0.6986
37477SOL     OW19545   2.381  11.264   0.029 -0.4173  0.3302 -0.0350
37477SOL    HW119546   2.308  11.224   0.076 -0.2579 -0.1312 -0.1770
37477SOL    HW219547   2.426  11.316   0.095 -0.2669 -0.2175  0.2961
37478SOL     OW19548  11.841   6.199  10.022 -0.0658 -0.0818 -0.2219
37478SOL    HW119549  11.926   6.213  10.065  0.0822 -0.6810 -0.3123
37478SOL    HW219550  11.804   6.287  10.015  0.9903  0.3147 -1.1058
37479SOL     OW19551  12.935  11.883   3.486  0.1509  0.3853  0.1644
37479SOL    HW119552  13.028  11.872   3.506 -0.2360 -1.2049  1.3467
37479SOL    HW219553  12.920  11.831   3.407 -0.1254 -1.2634  1.2501
37480SOL     OW19554   0.906   1.767   2.548  0.7501 -0.2247  0.0900
37480SOL    HW119555   0.817   1.741   2.573 -0.0950  1.1580 -1.3226
37480SOL    HW219556   0.924   1.842   2.604  1.3386 -0.9254  0.8686
37481SOL     OW19557   9.192   8.572   1.333 -0.0602 -0.6506  0.0126
37481SOL    HW119558   9.217   8.499   1.276 -0.1363  0.7116 -1.8640
37481SOL    HW219559   9.194   8.649   1.275 -0.1489  0.8149  1.8741
37482SOL     OW19560   1.112   7.747   2.737 -0.4025 -0.3420  0.0472
37482SOL    HW119561   1.203   7.773   2.756 -0.8285  0.4294  1.1370
37482SOL    HW219562   1.107   7.655   2.763 -0.0727 -0.2273  0.5385
37483SOL     OW19563   2.457  11.219   8.436  0.0723 -0.2730 -0.1976
37483SOL    HW119564   2.533  11.276   8.446  0.7080 -1.2511  0.8404
37483SOL    HW219565   2.493  11.131   8.433 -0.9840 -0.7149 -0.3758
37484SOL     OW19566   3.853  12.381   3.558 -0.5742  0.6151  0.5846
37484SOL    HW119567   3.917  12.449   3.582 -0.5559  0.7205  0.2417
37484SOL    HW219568   3.896  12.299   3.582 -1.2288  0.7685  2.5135
37485SOL     OW19569   3.250  10.815   7.098 -0.0817  0.2219  0.8826
37485SOL    HW119570   3.174  10.862   7.065  0.4442 -0.1180 -0.9514
37485SOL    HW219571   3.310  10.810   7.023  1.8379  0.6419  2.2874
37486SOL     OW19572   8.608  11.528   4.294 -0.3295  0.7173  0.5013
37486SOL    HW119573   8.636  11.614   4.327 -0.2147  1.4116 -1.3003
37486SOL    HW219574   8.527  11.546   4.246  0.5634  0.1391 -1.3111
37487SOL     OW19575   7.257   2.188   1.368  0.4489 -0.4521 -0.5061
37487SOL    HW119576   7.247   2.136   1.289 -2.8523  0.4394 -0.8509
37487SOL    HW219577   7.206   2.140   1.435  2.2176 -0.5991  0.8077
37488SOL     OW19578   5.234   5.199  11.294 -0.3718  0.6080 -0.5561
37488SOL    HW119579   5.274   5.285  11.283 -0.0950  0.7825  1.5122
37488SOL    HW219580   5.282   5.159  11.367 -1.0459 -0.9718 -0.9376
37489SOL     OW19581   8.285   4.808   5.436 -1.3258 -0.2658  0.2126
37489SOL    HW119582   8.213   4.848   5.486  0.1907  1.2322  1.3643
37489SOL    HW219583   8.358   4.869   5.448  0.4431 -2.2170 -0.0330
37490SOL     OW19584   4.066  12.309   4.288  0.0490 -0.5746  0.2271
37490SOL    HW119585   3.977  12.320   4.322 -0.3491  0.9307 -1.1199
37490SOL    HW219586   4.055  12.254   4.210  0.0416  0.6867 -0.7087
37491SOL     OW19587   9.752   5.981   2.042 -0.5457  0.0617  0.4125
37491SOL    HW119588   9.781   6.017   1.959 -1.6302  0.2464  0.1068
37491SOL    HW219589   9.703   5.903   2.019 -0.2284 -0.3003  0.9309
37492SOL     OW19590   5.760   8.543   0.130  0.6329  0.0256 -0.2527
37492SOL    HW119591   5.769   8.620   0.073  3.1589  0.6135  0.7889
37492SOL    HW219592   5.732   8.473   0.071  2.7546  0.7003 -2.2133
37493SOL     OW19593   3.244   1.375   4.141 -0.3157  0.4361  0.0756
37493SOL    HW119594   3.230   1.293   4.189 -0.8082 -0.3971 -1.4131
37493SOL    HW219595   3.213   1.443   4.200 -0.0839 -0.4581  1.2770
37494SOL     OW19596   3.094   3.599  12.512  0.0570 -0.8825  0.1917
37494SOL    HW119597   3.166   3.577  12.454 -0.2399 -1.3484 -0.0016
37494SOL    HW219598   3.068   3.688  12.486  0.4402 -0.7852  0.1434
37495SOL     OW19599   2.406   6.339  12.455  0.6350 -0.8187 -0.0304
37495SOL    HW119600   2.336   6.287  12.416 -1.0261 -0.0881  1.8557
37495SOL    HW219601   2.408   6.313  12.547  1.8675  0.2409  0.2827
37496SOL     OW19602   3.809  11.625   2.004  0.5376 -0.2255  0.0273
37496SOL    HW119603   3.735  11.593   1.953  0.1121 -0.6686  0.8944
37496SOL    HW219604   3.878  11.560   1.989  0.2318 -0.6601  0.4263
37497SOL     OW19605   5.146   8.079   3.343 -0.0465 -0.2313  0.8421
37497SOL    HW119606   5.059   8.106   3.373 -0.0697  0.4946  0.1757
37497SOL    HW219607   5.164   8.136   3.268  0.4425 -1.2758  0.1422
37498SOL     OW19608   8.828  12.416   1.346  0.3669 -0.6110  0.1755
37498SOL    HW119609   8.916  12.385   1.324  1.0310  1.8887 -0.9938
37498SOL    HW219610   8.793  12.450   1.264 -1.7576 -1.6036  0.6084
37499SOL     OW19611  12.449   8.866   8.219 -0.4369  0.9664  0.8937
37499SOL    HW119612  12.382   8.920   8.177 -1.0876 -0.1907  0.4121
37499SOL    HW219613  12.407   8.781   8.234  1.3467 -0.3024 -0.7901
37500SOL     OW19614   6.857   6.720  12.955  0.2618 -0.8288  0.5462
37500SOL    HW119615   6.771   6.744  12.920  0.6661 -0.6796 -0.3701
37500SOL    HW219616   6.888   6.650  12.897  0.5775 -1.1738  1.1253
37501SOL     OW19617   9.128   2.374   5.172  0.0536  0.0299 -0.0390
37501SOL    HW119618   9.217   2.392   5.202 -0.2760  1.4327  0.1241
37501SOL    HW219619   9.083   2.458   5.176 -0.7159 -0.2259 -2.0846
37502SOL     OW19620   9.514   9.640  11.098 -0.2192  0.4352  0.0413
37502SOL    HW119621   9.500   9.546  11.087  0.0041  0.5381 -1.2162
37502SOL    HW219622   9.610   9.650  11.100 -0.1883  0.3927  2.6848
37503SOL     OW19623   7.144   5.833  10.627  1.0000 -0.1623  0.3916
37503SOL    HW119624   7.142   5.784  10.710  0.5399 -0.8872 -0.0352
37503SOL    HW219625   7.052   5.853  10.609  0.7928 -2.1605 -1.1680
37504SOL     OW19626   9.657   1.132  10.733 -0.2142 -0.0538  0.1393
37504SOL    HW119627   9.690   1.094  10.652 -0.0825  0.4734 -0.0560
37504SOL    HW219628   9.733   1.175  10.772 -0.6493  1.1842 -0.3202
37505SOL     OW19629  12.150   1.107   7.951  0.2396  0.2308  0.4891
37505SOL    HW119630  12.179   1.024   7.988 -0.7101  0.1115  0.9875
37505SOL    HW219631  12.220   1.169   7.973  2.2746 -0.8963 -2.0886
37506SOL     OW19632   4.232  12.805   2.080  0.4131  0.2700  0.2550
37506SOL    HW119633   4.274  12.817   2.165  1.2425  0.5782 -0.1931
37506SOL    HW219634   4.304  12.800   2.018 -0.2140  0.8975 -0.5390
37507SOL     OW19635   9.406   9.264  12.487 -0.2886 -0.4859 -0.0971
37507SOL    HW119636   9.414   9.334  12.422  0.5490  0.2144  0.7218
37507SOL    HW219637   9.330   9.288  12.539 -0.4207 -0.5572 -0.2600
37508SOL     OW19638   3.582   3.711   9.491 -0.2762  0.2121  0.4368
37508SOL    HW119639   3.642   3.709   9.566  0.2577  0.3144  0.0224
37508SOL    HW219640   3.632   3.756   9.423 -0.6598 -0.1209 -0.0650
37509SOL     OW19641   1.125   3.575   4.430 -0.2172  0.0175  0.2137
37509SOL    HW119642   1.176   3.620   4.497  1.6766 -0.5672 -0.7516
37509SOL    HW219643   1.118   3.485   4.463  3.5358 -1.1774 -1.6337
37510SOL     OW19644   4.534   7.655   3.659  0.3679 -0.2258  0.0340
37510SOL    HW119645   4.515   7.588   3.593  1.2325 -0.5905  0.1525
37510SOL    HW219646   4.610   7.622   3.706 -1.4534 -1.0431  2.6729
37511SOL     OW19647   4.223   1.381   6.277 -0.3207  0.1025  0.2577
37511SOL    HW119648   4.138   1.338   6.288 -0.1120 -0.1716  0.8376
37511SOL    HW219649   4.265   1.375   6.363  0.4528 -0.1285 -0.1182
37512SOL     OW19650   1.246   3.147   7.156  0.4621  0.0775  0.4427
37512SOL    HW119651   1.215   3.163   7.246 -1.1518  3.5051 -0.5661
37512SOL    HW219652   1.276   3.232   7.125  1.3653 -1.0854 -2.1901
37513SOL     OW19653   9.123   2.491   9.741 -0.0245  0.2606 -0.5666
37513SOL    HW119654   9.047   2.499   9.799  0.4648 -2.3396  0.5604
37513SOL    HW219655   9.198   2.513   9.797  0.2261  0.6826 -1.0658
37514SOL     OW19656  12.194   5.632  11.115  0.6841 -0.1171 -0.4045
37514SOL    HW119657  12.278   5.677  11.114  0.2505  0.7084 -1.0053
37514SOL    HW219658  12.135   5.690  11.162 -0.1868  0.5746 -2.2373
37515SOL     OW19659   7.025   1.704   2.506  0.2175  0.1727  0.0142
37515SOL    HW119660   7.019   1.762   2.583  1.4431  0.6228 -0.2136
37515SOL    HW219661   6.981   1.624   2.534  0.0937  0.5490  0.9672
37516SOL     OW19662   7.254  12.203   0.064 -0.3505  0.8057 -0.3019
37516SOL    HW119663   7.305  12.283   0.058  0.1571  0.6817  1.6637
37516SOL    HW219664   7.188  12.221   0.132 -1.0014 -0.0285 -0.6924
37517SOL     OW19665  10.538  11.054   4.378  0.0066 -0.0682  0.0104
37517SOL    HW119666  10.575  11.078   4.294 -1.3020 -0.8781 -0.8382
37517SOL    HW219667  10.476  11.124   4.399  0.9961  0.6115  0.7892
37518SOL     OW19668   9.180   4.450   5.562  0.8823 -0.2798  0.1399
37518SOL    HW119669   9.263   4.440   5.608  0.1845  0.9289  1.7549
37518SOL    HW219670   9.114   4.445   5.630 -0.2441  0.9498 -0.8065
37519SOL     OW19671   4.674   3.563   9.156 -0.3725  0.1107 -0.4052
37519SOL    HW119672   4.646   3.652   9.133  0.7181  0.3977 -0.7202
37519SOL    HW219673   4.752   3.577   9.210  1.0480 -0.6463 -2.1495
37520SOL     OW19674   2.286   9.352   1.596 -0.5153 -0.0017  0.3359
37520SOL    HW119675   2.366   9.378   1.641  1.5494 -3.4398 -1.0059
37520SOL    HW219676   2.283   9.408   1.519  0.7333  0.0436  0.2961
37521SOL     OW19677   5.211   8.019   5.084  0.3420 -0.6851  0.2966
37521SOL    HW119678   5.235   7.964   5.010 -0.6851  1.1545 -1.5028
37521SOL    HW219679   5.269   8.095   5.078 -0.4208 -0.0444  0.7707
37522SOL     OW19680   3.184   9.903   9.058  0.1205  0.2911 -0.4721
37522SOL    HW119681   3.113   9.869   9.005  0.6534  0.4915 -1.3234
37522SOL    HW219682   3.260   9.903   9.001  0.8426 -0.0239  0.4557
37523SOL     OW19683   9.842  12.927   2.263 -0.3370  0.7375  0.5937
37523SOL    HW119684   9.920  12.981   2.270 -2.1332  3.3798  1.7832
37523SOL    HW219685   9.802  12.931   2.350 -1.7862 -0.5772  0.0350
37524SOL     OW19686   8.342   1.963   3.223  0.2509  0.6733  0.8547
37524SOL    HW119687   8.252   1.932   3.211  0.5906  0.0651 -0.3374
37524SOL    HW219688   8.364   2.003   3.139  1.5411 -0.4025  0.6486
37525SOL     OW19689   8.716   8.948   0.965  0.0841 -0.0012  0.4149
37525SOL    HW119690   8.726   9.012   0.895  0.5090 -1.0134 -0.4891
37525SOL    HW219691   8.685   8.998   1.040  0.4866  1.2597 -0.2391
37526SOL     OW19692   7.055   3.317   6.972 -0.2487 -0.0327 -0.8127
37526SOL    HW119693   7.033   3.234   6.930  1.9359 -0.4231 -1.3153
37526SOL    HW219694   7.136   3.299   7.020 -0.7326  1.3542  0.6243
37527SOL     OW19695  11.883   1.315   0.993 -0.3092 -0.3213  0.2703
37527SOL    HW119696  11.877   1.353   1.081  0.5554 -1.0940  0.6785
37527SOL    HW219697  11.791   1.302   0.967 -0.5852  0.6481  0.7206
37528SOL     OW19698   7.733   9.548   2.833 -0.2659  0.2852  0.1073
37528SOL    HW119699   7.760   9.599   2.756  1.0278  2.3557  1.8275
37528SOL    HW219700   7.638   9.562   2.838 -0.2728  0.6417 -0.7627
37529SOL     OW19701  10.228  12.358   6.891 -0.1289  0.3677 -0.1486
37529SOL    HW119702  10.311  12.404   6.877 -0.8614  1.4314 -1.1494
37529SOL    HW219703  10.235  12.279   6.838 -0.2794  1.1410 -1.3567
37530SOL     OW19704   0.919   2.739  12.207  0.3170 -0.3283  0.0289
37530SOL    HW119705   0.831   2.768  12.182  1.0676  1.5664 -0.5944
37530SOL    HW219706   0.913   2.726  12.302 -0.3810  0.8585  0.1788
37531SOL     OW19707   6.162  12.318  12.337  0.0691 -0.2124  0.4192
37531SOL    HW119708   6.069  12.302  12.324  0.1102  1.5225 -3.0004
37531SOL    HW219709   6.166  12.401  12.384 -0.3946  2.7774 -4.1997
37532SOL     OW19710   1.592   6.447   3.016 -0.2974  0.0232  0.4620
37532SOL    HW119711   1.580   6.470   2.924 -0.9635  0.2259  0.5947
37532SOL    HW219712   1.514   6.482   3.059 -0.5940 -1.1748  0.9077
37533SOL     OW19713   4.702   8.554   9.582 -0.3140 -0.3038  0.4166
37533SOL    HW119714   4.647   8.631   9.591  0.3024  0.1586  0.2866
37533SOL    HW219715   4.708   8.517   9.670 -0.3891 -0.0460  0.5298
37534SOL     OW19716   6.357   2.100   7.531  0.3106  0.7525 -0.0318
37534SOL    HW119717   6.367   2.020   7.480 -0.2490  0.7470 -0.1283
37534SOL    HW219718   6.359   2.170   7.466  0.4419  0.7966  0.0195
37535SOL     OW19719   3.448   9.630   2.836  0.8201 -0.0652 -0.6795
37535SOL    HW119720   3.501   9.570   2.784  0.6489 -1.2107  0.4101
37535SOL    HW219721   3.367   9.581   2.854 -0.4417  1.4568 -1.8910
37536SOL     OW19722   7.094   9.944   6.063 -0.1990  0.8729  0.0076
37536SOL    HW119723   7.096  10.039   6.073  2.8183  0.7297  2.3216
37536SOL    HW219724   7.153   9.927   5.989  0.5394  0.7941  0.5968
37537SOL     OW19725   6.732   1.864   3.248 -0.3841  0.0532  0.1496
37537SOL    HW119726   6.814   1.815   3.247 -0.8679 -0.7569 -0.5687
37537SOL    HW219727   6.672   1.813   3.194 -0.9005  1.4451 -0.6676
37538SOL     OW19728   0.988   7.127   2.103 -0.2114  0.6386 -0.0586
37538SOL    HW119729   0.898   7.130   2.137 -0.1139  1.3208  0.1606
37538SOL    HW219730   1.004   7.035   2.084 -0.3326  0.2533  1.5922
37539SOL     OW19731   4.953   0.109   1.048  0.7583  0.2283  0.0576
37539SOL    HW119732   5.042   0.109   1.014  1.0992  0.5682  0.9143
37539SOL    HW219733   4.917   0.194   1.021  1.5494  1.1633  1.8144
37540SOL     OW19734   0.961   1.018   3.780  0.1510  0.1120  0.3397
37540SOL    HW119735   0.983   1.090   3.839  2.2182 -0.2974  0.1262
37540SOL    HW219736   0.943   1.059   3.696 -1.2144  0.5573  0.8177
37541SOL     OW19737   3.153   2.094  11.217  0.1967  0.0418  0.1424
37541SOL    HW119738   3.102   2.154  11.271  0.3729 -0.3142  0.7182
37541SOL    HW219739   3.150   2.132  11.129 -0.8098  0.1758  0.2240
37542SOL     OW19740  12.246   0.670   5.776  0.1265  0.0129 -0.2001
37542SOL    HW119741  12.333   0.688   5.811  1.0893  0.4849 -2.5927
37542SOL    HW219742  12.197   0.751   5.787  0.2970  0.0424  0.3344
37543SOL     OW19743   0.981   4.242   2.013 -0.4804 -0.5104 -0.6570
37543SOL    HW119744   0.930   4.319   2.037 -0.6028 -0.8395  0.1874
37543SOL    HW219745   1.008   4.258   1.923 -2.6665 -0.6416 -1.4058
37544SOL     OW19746  10.743  10.988   7.374 -0.0215 -0.1250 -0.5303
37544SOL    HW119747  10.650  10.987   7.351  0.0976  0.6785 -1.0982
37544SOL    HW219748  10.748  10.941   7.457 -1.0169  0.3255 -0.2003
37545SOL     OW19749  12.664   0.690   6.234  0.1031 -0.1217  0.1212
37545SOL    HW119750  12.739   0.641   6.267 -0.2131 -0.1290  0.8452
37545SOL    HW219751  12.668   0.774   6.280 -1.3964 -0.8209  1.6370
37546SOL     OW19752   6.771   6.554   3.511  0.2483 -0.7037  0.0798
37546SOL    HW119753   6.773   6.475   3.456 -1.1866 -0.1590 -0.8024
37546SOL    HW219754   6.851   6.602   3.487  1.0470 -1.7757  0.4996
37547SOL     OW19755   0.420   9.156   6.607 -0.4712  0.5849  0.4212
37547SOL    HW119756   0.356   9.220   6.640 -1.0889  0.3270 -0.2381
37547SOL    HW219757   0.497   9.208   6.584 -1.2085  1.1985 -0.7411
37548SOL     OW19758  11.745   0.194   3.910 -0.1388 -0.4657 -0.2974
37548SOL    HW119759  11.725   0.263   3.974 -1.1238 -0.3438 -0.7082
37548SOL    HW219760  11.662   0.181   3.863  0.5064 -0.6914 -1.4112
37549SOL     OW19761  10.277   5.535  11.329  0.7246 -0.2217  0.4003
37549SOL    HW119762  10.284   5.609  11.268  1.0248 -0.9090 -0.4178
37549SOL    HW219763  10.308   5.569  11.413  0.4510  0.6974  0.1388
37550SOL     OW19764   0.390   0.761   1.710 -0.3109 -0.8530  0.1805
37550SOL    HW119765   0.408   0.732   1.799  0.5147  1.2063  0.7346
37550SOL    HW219766   0.464   0.818   1.687 -0.4849 -1.3410 -1.8424
37551SOL     OW19767   9.964   8.080  12.769 -0.9521 -0.1318 -0.1802
37551SOL    HW119768  10.036   8.144  12.773  0.3223 -1.5397  1.7804
37551SOL    HW219769   9.900   8.113  12.832 -0.3084 -0.7271  0.8107
37552SOL     OW19770   4.678  10.988   9.750  0.2095  0.0582  0.1937
37552SOL    HW119771   4.733  11.054   9.708 -0.3019  0.8174  0.6992
37552SOL    HW219772   4.622  10.954   9.680  2.6735 -2.2519 -0.8455
37553SOL     OW19773   9.471   5.103   4.010 -0.4451 -0.2358 -0.0984
37553SOL    HW119774   9.517   5.135   3.932 -2.2186  1.9904 -0.3387
37553SOL    HW219775   9.477   5.176   4.072 -1.9157 -0.6686  0.5908
37554SOL     OW19776   4.394  12.398   1.615  0.8754 -0.1006  0.2971
37554SOL    HW119777   4.374  12.406   1.708 -0.4733 -0.3910  0.0544
37554SOL    HW219778   4.384  12.305   1.596  0.6105  0.0289 -0.2374
37555SOL     OW19779   3.649   8.454   4.500 -0.0816  0.3938  0.0257
37555SOL    HW119780   3.641   8.359   4.502  0.7009  0.2881 -0.9820
37555SOL    HW219781   3.641   8.477   4.408  1.0127  1.1715  0.1052
37556SOL     OW19782   0.068   6.177  11.556 -0.1419  0.5720 -0.3267
37556SOL    HW119783   0.117   6.207  11.633  0.1169  0.5585 -0.4836
37556SOL    HW219784  -0.021   6.208  11.570 -0.6673 -1.4123  1.1068
37557SOL     OW19785   3.160   7.486   9.012  0.0362  0.3106  0.1912
37557SOL    HW119786   3.255   7.482   9.024 -0.0947 -1.8589  0.9331
37557SOL    HW219787   3.137   7.577   9.033  2.0126  1.0930 -0.7746
37558SOL     OW19788   7.675   1.062   3.950 -0.2541  0.1507  0.4722
37558SOL    HW119789   7.756   1.017   3.972  0.0634  0.4505 -0.0657
37558SOL    HW219790   7.652   1.030   3.862 -0.0063  1.0426  0.0692
37559SOL     OW19791   3.453  11.472   6.404 -0.4260  0.7314  0.4691
37559SOL    HW119792   3.512  11.536   6.364 -1.1059  0.9792 -0.1426
37559SOL    HW219793   3.382  11.461   6.341 -0.4107 -0.4963  0.6332
37560SOL     OW19794   7.524  11.469   8.157  0.1390  0.0588  0.0842
37560SOL    HW119795   7.577  11.526   8.102 -1.8010  0.4598 -1.5258
37560SOL    HW219796   7.565  11.383   8.148  0.7608  0.4246 -0.7709
37561SOL     OW19797   9.153   4.664  11.202 -0.4498 -0.2269 -0.1838
37561SOL    HW119798   9.083   4.606  11.171 -2.5805  2.4339 -0.7339
37561SOL    HW219799   9.108   4.737  11.242  2.1056  1.0206  0.6503
37562SOL     OW19800   5.673   7.504   9.367  0.1302  0.0990 -0.3525
37562SOL    HW119801   5.724   7.566   9.315  0.3256  1.0015  0.8735
37562SOL    HW219802   5.585   7.510   9.331 -0.2476  2.3597  0.7629
37563SOL     OW19803   4.688   7.565  10.434  0.1002  0.3385  0.4277
37563SOL    HW119804   4.639   7.585  10.355  0.4148 -3.8971 -1.1176
37563SOL    HW219805   4.779   7.584  10.413  0.2759 -1.4399 -0.6174
37564SOL     OW19806  11.372  12.762   2.209  0.0217 -0.4059 -0.1666
37564SOL    HW119807  11.415  12.698   2.153  0.4753  0.7786 -1.2281
37564SOL    HW219808  11.382  12.845   2.162  0.4793  0.6500  1.7018
37565SOL     OW19809   3.407   3.447   8.456  0.0424 -0.3778 -0.0242
37565SOL    HW119810   3.409   3.444   8.552 -2.3264 -1.1290  0.0602
37565SOL    HW219811   3.493   3.481   8.432  0.8407 -0.5025  2.3437
37566SOL     OW19812   2.849   7.187   3.452 -0.1914  0.0058  0.4900
37566SOL    HW119813   2.910   7.232   3.510  1.5713  0.1602 -1.4125
37566SOL    HW219814   2.894   7.106   3.428 -0.4238  0.4189 -1.4536
37567SOL     OW19815   4.143   4.619   7.982  0.1310  0.0139  0.6935
37567SOL    HW119816   4.055   4.623   7.944  0.3313  0.5695  0.2863
37567SOL    HW219817   4.181   4.705   7.965  1.0497 -0.4859  0.1717
37568SOL     OW19818   9.649  11.079   4.140  0.6593  1.0745  0.0880
37568SOL    HW119819   9.744  11.068   4.137  0.5533  0.2549 -2.1604
37568SOL    HW219820   9.627  11.124   4.058 -0.8013  2.4026  1.1368
37569SOL     OW19821   8.764   2.063   9.454  0.1912  0.3362  0.9355
37569SOL    HW119822   8.746   2.148   9.492  0.7783  0.8677  0.0473
37569SOL    HW219823   8.830   2.024   9.511  1.6127  1.4312  0.1025
37570SOL     OW19824   4.179   0.808   5.165 -0.1296 -0.6874 -0.0913
37570SOL    HW119825   4.189   0.899   5.134  2.4045 -0.9368 -0.2752
37570SOL    HW219826   4.147   0.760   5.089 -2.5385  0.1786  0.3046
37571SOL     OW19827   7.316   1.627  11.199 -0.1756 -0.2571 -0.5745
37571SOL    HW119828   7.374   1.597  11.129 -0.7070 -4.9917  0.6753
37571SOL    HW219829   7.234   1.649  11.153 -0.1578 -2.1906 -1.6415
37572SOL     OW19830   5.675   0.297   8.857  0.2585 -0.6858 -0.0915
37572SOL    HW119831   5.646   0.319   8.768  0.4759 -0.5982 -0.1428
37572SOL    HW219832   5.751   0.239   8.843  0.8829  0.0948  0.0286
37573SOL     OW19833   1.670   7.992  10.198  0.4999  0.7814 -0.4485
37573SOL    HW119834   1.591   7.963  10.244  1.1673  0.7291  0.6987
37573SOL    HW219835   1.639   8.017  10.110 -0.4624 -1.1523 -0.6976
37574SOL     OW19836   8.195   3.773   7.351  0.1728 -1.0388  0.0174
37574SOL    HW119837   8.277   3.806   7.315 -0.3057  1.4274  0.9797
37574SOL    HW219838   8.211   3.766   7.445 -1.6100  3.1351  0.8814
37575SOL     OW19839   9.940  12.387   8.163  0.0124  0.4565  0.3689
37575SOL    HW119840  10.029  12.417   8.148 -0.5035  1.1680 -1.7550
37575SOL    HW219841   9.922  12.329   8.088 -1.4103  0.6239  0.5572
37576SOL     OW19842   2.470   1.911   3.585 -0.2977 -0.0478 -0.0473
37576SOL    HW119843   2.406   1.900   3.514 -1.4517  1.4301  0.7078
37576SOL    HW219844   2.453   1.837   3.644  0.1246 -0.8296 -0.8806
37577SOL     OW19845  10.338   1.646   3.734 -0.3589 -0.1638 -0.4006
37577SOL    HW119846  10.307   1.562   3.769 -1.7220  1.1056  1.7041
37577SOL    HW219847  10.265   1.678   3.681 -0.3580  0.2386 -0.1671
37578SOL     OW19848   8.208   0.552   5.994  0.4716  0.5252  0.1758
37578SOL    HW119849   8.301   0.560   6.013 -0.1001  2.4021  2.6186
37578SOL    HW219850   8.199   0.585   5.905  2.2770 -1.1106 -0.6968
37579SOL     OW19851   9.894   4.721   0.177  0.2258  0.0070  0.9154
37579SOL    HW119852   9.896   4.728   0.273 -0.6660  0.0289  0.9371
37579SOL    HW219853   9.983   4.742   0.150  0.5605 -0.2836  1.7627
37580SOL     OW19854   9.196   5.852   1.660 -0.0223  0.1118 -0.4167
37580SOL    HW119855   9.137   5.786   1.624  0.3201 -0.1561 -0.4980
37580SOL    HW219856   9.172   5.858   1.752 -0.8833  0.7776 -0.6746
37581SOL     OW19857   4.468   3.837   1.332 -0.2121  0.2916 -0.3800
37581SOL    HW119858   4.388   3.864   1.287 -0.2462  0.3089 -0.3088
37581SOL    HW219859   4.469   3.741   1.324 -1.0133  0.1462  0.9118
37582SOL     OW19860   4.625  11.195   2.916 -0.3467 -0.1296  0.0015
37582SOL    HW119861   4.709  11.210   2.959 -0.8692  0.2359  0.9136
37582SOL    HW219862   4.591  11.115   2.956 -0.2159 -0.5598 -0.7219
37583SOL     OW19863  10.015  10.684   2.642 -0.4030 -0.0083 -0.0133
37583SOL    HW119864   9.939  10.698   2.585  0.1459 -1.2568 -1.1316
37583SOL    HW219865  10.089  10.716   2.590  0.0523 -0.7155  0.1801
37584SOL     OW19866   5.390   2.646  10.389  1.0190  0.1481  0.8235
37584SOL    HW119867   5.357   2.680  10.472  0.8290 -0.5761  1.0568
37584SOL    HW219868   5.313   2.642  10.332  0.3454 -2.6919  1.7492
37585SOL     OW19869   4.224   9.194  12.234  0.1277 -0.0110  0.1983
37585SOL    HW119870   4.150   9.139  12.260 -0.4460  1.2134  1.2620
37585SOL    HW219871   4.262   9.225  12.316  1.0099  0.4415 -0.3604
37586SOL     OW19872   2.190   7.731  10.985  0.1919  0.1870  0.5014
37586SOL    HW119873   2.228   7.725  10.897 -3.0827  0.1453 -1.0568
37586SOL    HW219874   2.174   7.824  10.998  0.2289  0.1464  0.8280
37587SOL     OW19875   2.040   3.876  11.392  0.0494 -0.6580 -0.1956
37587SOL    HW119876   2.022   3.967  11.371 -0.0272 -0.6694 -0.1812
37587SOL    HW219877   2.015   3.867  11.484  1.0012 -0.4429  0.0968
37588SOL     OW19878   5.800   2.952  12.109  0.0862 -0.2724  0.2597
37588SOL    HW119879   5.783   2.996  12.026 -1.0857  1.7245  1.4840
37588SOL    HW219880   5.793   3.021  12.175 -0.6957 -2.0869  2.1891
37589SOL     OW19881   7.775   2.976   8.383  0.5582  0.1069  0.1615
37589SOL    HW119882   7.720   3.033   8.328 -0.8002  0.8816  2.1753
37589SOL    HW219883   7.783   2.895   8.334 -0.9052  0.6348 -1.0237
37590SOL     OW19884   7.657   3.491   1.911  0.0315  0.0039  0.1153
37590SOL    HW119885   7.585   3.472   1.971  1.4204 -1.9252  1.2823
37590SOL    HW219886   7.721   3.539   1.964 -0.0101  0.9836 -0.6855
37591SOL     OW19887   8.645   2.789   8.024 -0.1423  0.0193  0.4670
37591SOL    HW119888   8.612   2.782   8.113 -0.9458 -0.7338  0.1220
37591SOL    HW219889   8.577   2.750   7.970  1.1132 -1.1783 -0.3170
37592SOL     OW19890  12.725   6.383   1.788 -0.0835  0.1785 -0.0237
37592SOL    HW119891  12.740   6.323   1.862 -0.1616  1.3608  0.9966
37592SOL    HW219892  12.653   6.344   1.739  1.3059 -1.6811 -0.6674
37593SOL     OW19893  11.459   5.266   7.200 -0.0411 -0.2581 -0.2984
37593SOL    HW119894  11.400   5.325   7.153  1.5969  1.6952 -0.0533
37593SOL    HW219895  11.459   5.186   7.148 -0.2563  0.9206 -2.2290
37594SOL     OW19896   9.148   6.946  12.024  0.2958 -0.2882 -0.1302
37594SOL    HW119897   9.157   7.025  12.077 -0.3081  0.2970 -0.8660
37594SOL    HW219898   9.113   6.880  12.084 -1.7717  0.7586 -0.0928
37595SOL     OW19899  11.218   7.736   9.025  0.2163  0.0429 -0.1335
37595SOL    HW119900  11.135   7.726   8.980 -0.7314  1.0874  1.3109
37595SOL    HW219901  11.277   7.773   8.959 -1.0569  1.3110 -0.6025
37596SOL     OW19902   7.711   3.406   5.516  0.3887  0.4704  0.1060
37596SOL    HW119903   7.805   3.399   5.529 -0.0518 -1.3636  3.7268
37596SOL    HW219904   7.680   3.460   5.588 -1.4793 -0.4700  0.0970
37597SOL     OW19905  12.683  12.754   9.623 -0.6253  0.3576 -0.6756
37597SOL    HW119906  12.776  12.758   9.645 -0.8407  0.1992  0.3280
37597SOL    HW219907  12.679  12.777   9.531  0.5401 -0.8165 -1.0511
37598SOL     OW19908  10.440   6.213   9.787  0.2233 -0.5880  0.1350
37598SOL    HW119909  10.473   6.261   9.711  0.9558  0.2870  0.9745
37598SOL    HW219910  10.345   6.207   9.772  0.4688 -1.3301 -1.3200
37599SOL     OW19911  10.161  12.950   3.151  0.3979  0.2905  0.1869
37599SOL    HW119912  10.196  12.970   3.238  0.8871  0.9093 -0.1419
37599SOL    HW219913  10.076  12.910   3.168  0.6623  0.0458  0.9596
37600SOL     OW19914   0.416   0.744  10.787  0.6260 -0.5833  0.1949
37600SOL    HW119915   0.346   0.730  10.852  0.1788 -0.8577 -0.3297
37600SOL    HW219916   0.485   0.789  10.835 -0.6675  1.4076  0.2922
37601SOL     OW19917   2.957   1.815   4.356  0.5141  0.7568 -0.3691
37601SOL    HW119918   2.910   1.883   4.404  0.9530  1.2382 -0.6034
37601SOL    HW219919   2.970   1.852   4.268 -0.3534 -0.1419 -0.9037
37602SOL     OW19920   6.138  11.031   5.341 -0.1507  0.1452  0.3734
37602SOL    HW119921   6.044  11.042   5.359  0.1874  2.7161  0.9825
37602SOL    HW219922   6.142  10.965   5.273 -2.3892 -0.2765  0.5773
37603SOL     OW19923   2.773   8.285  10.447  0.1032 -0.4574 -0.7249
37603SOL    HW119924   2.698   8.335  10.477 -0.1786  0.0984 -2.2432
37603SOL    HW219925   2.849   8.330  10.485 -0.3061 -2.0330  2.2644
37604SOL     OW19926   0.936   9.506   7.106  0.5405 -0.4875 -0.1866
37604SOL    HW119927   0.878   9.557   7.163 -1.2196 -0.9394 -1.4701
37604SOL    HW219928   1.010   9.482   7.162 -0.0602  0.8634  1.2871
37605SOL     OW19929   0.367   1.147  10.979  0.2708 -0.5611  0.4433
37605SOL    HW119930   0.407   1.062  10.961 -0.0075 -0.4352 -0.8576
37605SOL    HW219931   0.421   1.183  11.050  0.1006 -2.0003  1.3560
37606SOL     OW19932   2.830  10.413  12.552 -0.3103  0.2919 -0.1238
37606SOL    HW119933   2.892  10.444  12.486 -0.2943 -0.1671 -0.3345
37606SOL    HW219934   2.762  10.480  12.555  0.6359  1.2433  0.7473
37607SOL     OW19935  10.229   5.363   1.354 -0.6662 -0.1897 -0.2856
37607SOL    HW119936  10.252   5.384   1.444 -0.6319 -0.2959 -0.2691
37607SOL    HW219937  10.274   5.280   1.337 -0.1634  0.1356 -0.5991
37608SOL     OW19938  11.460  11.251  11.397 -0.1899 -0.5993  0.2271
37608SOL    HW119939  11.504  11.187  11.341  2.6082  1.6346 -0.3573
37608SOL    HW219940  11.509  11.248  11.479 -0.0771  0.6788  0.2242
37609SOL     OW19941   7.995  10.389   9.509  0.1242  0.5709 -0.4669
37609SOL    HW119942   7.900  10.393   9.520  0.1317 -1.0914  0.5175
37609SOL    HW219943   8.015  10.461   9.449 -2.1214 -0.8780 -3.1996
37610SOL     OW19944   4.696   7.273   9.685  0.3379  0.1694 -0.4620
37610SOL    HW119945   4.732   7.230   9.762  2.8249  0.7754 -1.2024
37610SOL    HW219946   4.660   7.202   9.632  0.7310 -0.5112  0.1775
37611SOL     OW19947  10.630   0.022   4.578 -0.0255  0.1151  0.2588
37611SOL    HW119948  10.704   0.075   4.549  0.4327 -1.1110 -0.9033
37611SOL    HW219949  10.568   0.025   4.505  0.0512 -1.0008  0.1279
37612SOL     OW19950   7.939   0.142   7.099  0.4802  0.0994  0.2076
37612SOL    HW119951   7.891   0.132   7.181  0.3540 -0.2234  0.0980
37612SOL    HW219952   7.871   0.151   7.032  0.5715 -0.2685  0.0625
37613SOL     OW19953  12.384  11.244  10.758 -0.0170 -0.1217 -1.4947
37613SOL    HW119954  12.291  11.252  10.778  0.5692  0.9282  1.2408
37613SOL    HW219955  12.393  11.157  10.719 -1.9176 -0.9365 -0.2344
37614SOL     OW19956  10.132   6.757   3.449  0.2033  0.0015 -0.0537
37614SOL    HW119957  10.131   6.665   3.477 -0.8974 -0.0262 -0.1368
37614SOL    HW219958  10.176   6.755   3.364 -2.4126 -0.9465 -1.5075
37615SOL     OW19959   7.297   1.357   1.822  0.3940  0.3751 -0.0757
37615SOL    HW119960   7.335   1.304   1.892 -1.2310  0.6394  1.0817
37615SOL    HW219961   7.202   1.345   1.832  0.0573  1.9320 -1.0339
37616SOL     OW19962   7.197   5.625  10.074  0.1492  0.0377 -0.0232
37616SOL    HW119963   7.170   5.714  10.052  0.7623  0.2641  0.0961
37616SOL    HW219964   7.128   5.569  10.040  0.4630  0.4517 -1.4349
37617SOL     OW19965   4.173   7.125   4.668  0.0181  0.2282 -0.3829
37617SOL    HW119966   4.221   7.155   4.592 -1.2059 -0.8835 -1.6469
37617SOL    HW219967   4.082   7.147   4.649 -0.4172 -0.8489  0.3496
37618SOL     OW19968   9.119   3.131   1.507  0.4889  1.0353 -0.0535
37618SOL    HW119969   9.196   3.086   1.472 -0.5645 -0.8724 -0.0670
37618SOL    HW219970   9.119   3.110   1.600 -0.7178 -0.1539 -0.2861
37619SOL     OW19971   2.439   5.588   7.445  0.1612 -0.2011  0.2622
37619SOL    HW119972   2.378   5.658   7.423  0.4876  0.0413  0.1246
37619SOL    HW219973   2.477   5.614   7.529 -0.7884 -0.9298  0.9369
37620SOL     OW19974   0.972  12.838  11.287  1.1701 -0.8049 -0.0640
37620SOL    HW119975   0.987  12.765  11.347  0.9399 -1.0645 -0.3179
37620SOL    HW219976   1.059  12.865  11.260  1.4053  0.5146  1.7866
37621SOL     OW19977   2.807   1.783  12.277 -0.0214 -0.0582 -0.6499
37621SOL    HW119978   2.870   1.841  12.234  1.9274 -0.0479  1.9085
37621SOL    HW219979   2.858   1.740  12.346 -2.3102 -1.9135  0.0228
37622SOL     OW19980  10.342   2.333   5.252  0.3332  0.6182 -0.0316
37622SOL    HW119981  10.263   2.368   5.211 -0.1146  0.3522  0.5844
37622SOL    HW219982  10.326   2.238   5.258  0.9003  0.4945 -0.3303
37623SOL     OW19983   0.019   4.372   9.749 -0.0055 -0.1283 -0.5847
37623SOL    HW119984  -0.046   4.303   9.737  0.5968 -1.0030  0.9226
37623SOL    HW219985   0.103   4.329   9.734  0.3660  0.3514  0.0407
37624SOL     OW19986  11.221   2.889   4.014 -0.2535 -0.2699  0.5442
37624SOL    HW119987  11.277   2.906   4.090 -2.8173 -0.7184  2.6743
37624SOL    HW219988  11.161   2.964   4.012 -1.0206 -0.8923 -0.2678
37625SOL     OW19989   8.725   8.644  12.088  0.3288  0.9086 -0.0437
37625SOL    HW119990   8.679   8.702  12.149 -3.4404 -0.8236 -0.9137
37625SOL    HW219991   8.769   8.580  12.144  1.7746  2.5994  0.8449
37626SOL     OW19992   0.092   0.595   5.995 -0.5652 -0.1313  0.0121
37626SOL    HW119993   0.044   0.614   5.915  0.2090 -0.7651 -0.6228
37626SOL    HW219994   0.077   0.501   6.011  1.6449 -0.7349 -1.0666
37627SOL     OW19995   4.502   1.377   9.699  0.1202  0.0866  0.1184
37627SOL    HW119996   4.407   1.389   9.706  0.2543  1.6400 -0.2969
37627SOL    HW219997   4.512   1.317   9.625 -0.5033  2.1930 -1.7951
37628SOL     OW19998   8.334   4.553   1.682  0.4001 -0.3078 -0.3904
37628SOL    HW119999   8.245   4.589   1.679  0.5787  0.2133  0.2889
37628SOL    HW220000   8.334   4.484   1.616 -0.6175 -0.5552 -0.1497
37629SOL     OW20001   8.839   5.961   5.174  0.2472 -0.3440 -0.1075
37629SOL    HW120002   8.894   5.886   5.151  0.7422 -0.0892  0.2323
37629SOL    HW220003   8.844   5.966   5.270  1.3575  0.9672 -0.2075
37630SOL     OW20004  11.549   1.952   4.296  0.3767  0.4727  0.2054
37630SOL    HW120005  11.572   1.874   4.245 -1.3186  1.4675 -2.2608
37630SOL    HW220006  11.625   2.010   4.286  0.8449 -0.0806  0.4469
37631SOL     OW20007   5.790  10.127  12.752  0.2358 -0.0113 -0.1588
37631SOL    HW120008   5.772  10.221  12.758  0.6183  0.0585 -0.0814
37631SOL    HW220009   5.770  10.094  12.840  1.1513  0.1847  0.1288
37632SOL     OW20010   0.950  11.229   8.585  0.5041  0.2973 -0.3200
37632SOL    HW120011   1.015  11.235   8.655  1.6963  1.5517 -1.4649
37632SOL    HW220012   0.868  11.254   8.626  0.2969 -2.9337  1.5891
37633SOL     OW20013   2.362   0.995  12.908 -0.0799 -0.0927  0.2791
37633SOL    HW120014   2.301   0.958  12.971  0.9485  1.8131  2.5724
37633SOL    HW220015   2.325   1.081  12.886  1.1944  0.6503  0.9060
37634SOL     OW20016   0.075   1.984   2.581 -0.4927 -0.5009 -0.1236
37634SOL    HW120017   0.119   1.991   2.497 -0.8398  0.5316 -0.2316
37634SOL    HW220018  -0.002   1.930   2.564  0.3343 -1.7207 -0.0837
37635SOL     OW20019   9.096   8.205   4.078  0.1507  0.3259 -0.2616
37635SOL    HW120020   9.089   8.183   3.985 -0.3991 -0.0026 -0.1470
37635SOL    HW220021   9.179   8.252   4.085  0.8208 -0.7524 -0.7023
37636SOL     OW20022   4.933   2.767   4.416  0.3955 -0.0699 -0.8796
37636SOL    HW120023   5.013   2.725   4.385 -1.0006 -3.2479 -0.6217
37636SOL    HW220024   4.914   2.723   4.500 -0.7472  1.7977 -0.0937
37637SOL     OW20025   5.188   6.804   1.790  0.5397  0.1260  0.4085
37637SOL    HW120026   5.138   6.736   1.834  0.4790  0.9051  1.5942
37637SOL    HW220027   5.279   6.774   1.793  0.4755 -0.0384  0.6683
37638SOL     OW20028  12.447   2.961   9.873  0.2058 -0.3731 -0.3197
37638SOL    HW120029  12.369   2.945   9.927 -0.2631 -0.0977 -0.9006
37638SOL    HW220030  12.493   3.031   9.919 -0.7396  0.5980 -0.8117
37639SOL     OW20031   9.559   1.711   7.675 -0.2504  0.1821 -0.3039
37639SOL    HW120032   9.523   1.752   7.596 -1.2265  0.9389  0.5197
37639SOL    HW220033   9.510   1.750   7.747  0.8947 -0.2145  0.7169
37640SOL     OW20034   8.674  10.090   9.970  0.0617 -0.2851 -0.1816
37640SOL    HW120035   8.731  10.059   9.900 -1.0310 -0.4957 -1.0092
37640SOL    HW220036   8.634  10.010  10.005 -0.9423 -0.0289 -0.7067
37641SOL     OW20037   9.533   1.571  10.425  0.8625 -0.9921  0.1534
37641SOL    HW120038   9.469   1.500  10.432  0.7271 -1.0055 -1.0002
37641SOL    HW220039   9.487   1.640  10.377  1.2815 -0.4690  0.4983
37642SOL     OW20040   5.446  12.636   6.188  0.0549  0.0110  0.3881
37642SOL    HW120041   5.360  12.639   6.230  0.6870  1.8443  1.6715
37642SOL    HW220042   5.501  12.585   6.248 -0.1075 -1.2235 -0.4644
37643SOL     OW20043   6.566   5.841   3.413 -0.5797  0.1388  0.5913
37643SOL    HW120044   6.617   5.772   3.457  2.8842  0.1324 -2.9247
37643SOL    HW220045   6.612   5.922   3.435 -0.0696  0.3679 -1.1909
37644SOL     OW20046   9.694  11.867   4.844  0.9255  0.0623  0.4086
37644SOL    HW120047   9.647  11.785   4.858  2.1506 -0.7146  0.1556
37644SOL    HW220048   9.629  11.936   4.858 -0.0329 -0.9432  0.9732
37645SOL     OW20049   2.716  10.274   2.190 -0.3091 -0.0029 -0.2230
37645SOL    HW120050   2.688  10.199   2.136 -2.0512  1.4705 -1.5225
37645SOL    HW220051   2.805  10.252   2.218 -0.5314 -2.2619 -1.0628
37646SOL     OW20052   7.393   0.111  11.578  0.1047  0.2755 -0.2225
37646SOL    HW120053   7.482   0.146  11.585 -0.8994  2.9955  0.3851
37646SOL    HW220054   7.374   0.114  11.484  0.2432  0.8676 -0.2352
37647SOL     OW20055   7.774   0.170  10.565 -0.4501  0.0239 -0.2374
37647SOL    HW120056   7.835   0.219  10.620 -0.6930 -0.3587  0.3842
37647SOL    HW220057   7.750   0.094  10.618 -1.6553  0.2966 -0.3670
37648SOL     OW20058   7.249   4.070   5.569 -0.2618 -0.1450 -0.3749
37648SOL    HW120059   7.262   3.984   5.527 -0.6409 -0.5080  0.2399
37648SOL    HW220060   7.308   4.069   5.644  0.9624  0.7974 -1.2931
37649SOL     OW20061   3.623   0.316   0.445 -0.3456 -0.2751  0.0662
37649SOL    HW120062   3.707   0.349   0.476 -0.7994  0.5400  0.4674
37649SOL    HW220063   3.567   0.315   0.523 -0.9604  0.0302 -0.3586
37650SOL     OW20064   8.987   6.660   3.697 -0.6725  0.7508 -0.0871
37650SOL    HW120065   8.934   6.580   3.695  0.5915 -0.1126 -2.2373
37650SOL    HW220066   9.018   6.671   3.607  2.3919  1.4221  0.9146
37651SOL     OW20067   8.007   8.027  11.278  0.3753  0.0315 -0.0535
37651SOL    HW120068   8.069   7.954  11.288  1.3177  0.6107 -1.3479
37651SOL    HW220069   7.984   8.026  11.185 -2.5773 -0.9118  0.5882
37652SOL     OW20070   4.498   7.257   2.092 -0.1757  0.1763 -0.1205
37652SOL    HW120071   4.593   7.269   2.098 -0.0901  0.0534 -0.9950
37652SOL    HW220072   4.467   7.336   2.047 -0.5542  0.4347  0.5819
37653SOL     OW20073  11.272   4.829   5.777 -0.2959 -0.0113 -0.1675
37653SOL    HW120074  11.343   4.888   5.801  0.2635 -0.6312 -0.2722
37653SOL    HW220075  11.194   4.867   5.819  0.5912 -0.9327  2.5169
37654SOL     OW20076   8.096   8.469  12.347  0.1314 -0.6391  0.6948
37654SOL    HW120077   8.035   8.520  12.401 -1.0118  1.5332 -2.3409
37654SOL    HW220078   8.163   8.533  12.320 -0.7910 -0.8243 -2.4415
37655SOL     OW20079   6.859  10.996   8.623  0.0486  0.4818  0.2426
37655SOL    HW120080   6.796  11.021   8.555 -0.2374  0.1109  0.3647
37655SOL    HW220081   6.906  10.921   8.587  0.1506  0.5150  0.3056
37656SOL     OW20082   7.756   8.898  10.343  0.3144 -0.2980 -0.1816
37656SOL    HW120083   7.754   8.958  10.417  0.9228  1.1511 -1.2780
37656SOL    HW220084   7.674   8.915  10.296  0.5562 -0.2237 -0.5770
37657SOL     OW20085  11.187   6.054   9.637  0.1259  0.0439  0.0898
37657SOL    HW120086  11.147   5.970   9.616 -0.0161  0.5707 -1.8898
37657SOL    HW220087  11.222   6.042   9.726 -0.8224 -1.7308  0.2716
37658SOL     OW20088  10.554  11.419   6.812 -0.1644  0.0908 -0.0352
37658SOL    HW120089  10.554  11.509   6.779  0.5148 -0.2753 -1.0765
37658SOL    HW220090  10.619  11.419   6.882 -0.3912  0.4715  0.1805
37659SOL     OW20091   8.273   6.106   2.128  0.2190  0.2530 -0.0369
37659SOL    HW120092   8.272   6.199   2.104 -0.8199  0.6963  1.5698
37659SOL    HW220093   8.215   6.101   2.204 -0.1520 -1.8090 -0.4208
37660SOL     OW20094   3.496   5.157   3.188 -0.2261  0.5737 -0.2799
37660SOL    HW120095   3.470   5.239   3.228  0.6745  0.7778 -0.1011
37660SOL    HW220096   3.430   5.141   3.121 -0.6159  1.2452 -0.0598
37661SOL     OW20097   4.768   4.530   9.618 -0.1872 -0.1149  0.0661
37661SOL    HW120098   4.759   4.435   9.608  1.0898 -0.0865 -1.7523
37661SOL    HW220099   4.719   4.567   9.544  1.7356  0.5050 -0.9660
37662SOL     OW20100   9.259   6.783   0.489  0.5474  0.1326 -0.0834
37662SOL    HW120101   9.308   6.752   0.565  0.3323 -1.9129 -0.7412
37662SOL    HW220102   9.250   6.877   0.504  1.1023 -0.1066  2.0780
37663SOL     OW20103  11.613  10.594   4.733  0.3457 -0.3337  0.2332
37663SOL    HW120104  11.683  10.622   4.792  0.0079 -0.8745  0.9136
37663SOL    HW220105  11.556  10.540   4.788  1.3667 -3.0190 -1.1491
37664SOL     OW20106  10.803   4.710  10.662 -0.7026 -0.3253  0.5185
37664SOL    HW120107  10.752   4.747  10.734 -0.7386 -0.3132  0.4870
37664SOL    HW220108  10.749   4.726  10.584 -0.4320  0.1159  0.4165
37665SOL     OW20109   0.682  12.604   3.314 -0.2269 -0.6096 -0.3528
37665SOL    HW120110   0.749  12.651   3.363  0.4176 -2.1970  0.3738
37665SOL    HW220111   0.605  12.661   3.317  0.2444 -0.0029  1.2523
37666SOL     OW20112   3.984   4.205   5.508 -0.6094 -0.1711 -0.0456
37666SOL    HW120113   3.927   4.213   5.584 -0.4100  1.6068 -0.0393
37666SOL    HW220114   3.970   4.285   5.458 -0.4720 -1.1317 -1.7267
37667SOL     OW20115  10.101   3.050  12.824  0.1345 -0.1485  0.0851
37667SOL    HW120116  10.130   2.968  12.785  0.2652 -1.3150  2.4383
37667SOL    HW220117  10.097   3.032  12.918  1.1911  2.8479  0.8416
37668SOL     OW20118   0.898  11.443   9.170  0.7246  0.2328 -0.1263
37668SOL    HW120119   0.972  11.499   9.146 -0.7408  1.4740 -1.9282
37668SOL    HW220120   0.882  11.389   9.093 -0.7914  0.5991 -0.0980
37669SOL     OW20121   7.803   2.258   9.983  0.1735 -0.0362  0.5408
37669SOL    HW120122   7.829   2.320  10.052  1.5402 -1.0604  0.9813
37669SOL    HW220123   7.733   2.303   9.936  0.6413  1.5493  1.2948
37670SOL     OW20124   8.475   2.050   1.278 -0.2009 -0.2003 -0.0780
37670SOL    HW120125   8.431   2.135   1.281  0.2820  0.0817 -0.7362
37670SOL    HW220126   8.559   2.065   1.321  0.0528 -0.2376 -0.5532
37671SOL     OW20127   1.816   9.179   9.923  0.0827 -0.2091 -0.0403
37671SOL    HW120128   1.760   9.111   9.960  0.3853  0.0036  0.8398
37671SOL    HW220129   1.902   9.138   9.915 -0.2163 -0.5870 -1.5444
37672SOL     OW20130   3.421   2.427   9.646 -0.0197  0.5492 -0.5431
37672SOL    HW120131   3.387   2.351   9.599 -0.8862  0.6157 -0.0400
37672SOL    HW220132   3.507   2.442   9.607 -0.2775 -0.0399 -1.3796
37673SOL     OW20133   0.834  11.137   5.124  0.0197  0.1987 -0.0284
37673SOL    HW120134   0.881  11.212   5.161  1.5040 -0.7426  0.0913
37673SOL    HW220135   0.747  11.140   5.165  0.6051  0.9231  1.2057
37674SOL     OW20136   1.041   7.920   0.118  0.4471  0.4011 -0.0248
37674SOL    HW120137   0.999   7.995   0.076 -1.6338 -1.3627 -1.3314
37674SOL    HW220138   1.048   7.854   0.049  0.2183 -1.3646  1.5431
37675SOL     OW20139   7.886   1.692   1.170 -0.3500  0.2419  0.0898
37675SOL    HW120140   7.845   1.608   1.190  1.2058 -0.2388  1.5210
37675SOL    HW220141   7.889   1.738   1.254 -1.3040  1.8157 -0.6931
37676SOL     OW20142  10.666   4.326   0.785  0.2511  0.2731 -0.0545
37676SOL    HW120143  10.760   4.344   0.775  0.1415  0.3454 -1.0461
37676SOL    HW220144  10.638   4.386   0.854  0.5081  1.8422 -1.2483
37677SOL     OW20145   4.701  11.721   1.672  0.1561 -0.4792  0.1887
37677SOL    HW120146   4.776  11.697   1.727  0.5297 -0.8521 -0.4755
37677SOL    HW220147   4.730  11.704   1.583 -0.3860  0.2728 -0.1457
37678SOL     OW20148   3.600   6.044  10.991  0.4966 -0.5351 -0.3990
37678SOL    HW120149   3.533   6.112  10.996  0.8655 -0.1625 -0.5645
37678SOL    HW220150   3.552   5.967  10.959  0.3229 -0.0308 -1.3933
37679SOL     OW20151   5.919   6.120   7.007  0.0364 -0.1068 -0.1724
37679SOL    HW120152   5.973   6.196   7.025  0.1794 -0.5358  1.2662
37679SOL    HW220153   5.858   6.115   7.080 -1.3083 -0.2243 -1.2496
37680SOL     OW20154   7.395  12.202   6.392 -0.1047 -0.0837 -0.0252
37680SOL    HW120155   7.333  12.233   6.458 -0.7658  0.2524 -0.7955
37680SOL    HW220156   7.474  12.181   6.442 -0.9958 -1.0304  1.0515
37681SOL     OW20157   9.895  11.961   1.676  0.5432  0.4841  0.6540
37681SOL    HW120158   9.810  11.958   1.720  0.6510 -1.8701  0.8178
37681SOL    HW220159   9.932  12.045   1.702 -1.6973  1.5775  0.5951
37682SOL     OW20160   9.820   5.472   9.177 -0.7247  0.6128 -0.0383
37682SOL    HW120161   9.834   5.546   9.236 -0.0095 -0.9871  1.8997
37682SOL    HW220162   9.766   5.411   9.227  1.2122 -1.4943 -0.4004
37683SOL     OW20163   0.792   7.923   5.590 -0.3482 -0.8061  0.0610
37683SOL    HW120164   0.835   7.839   5.572 -0.3573 -1.1103  1.3411
37683SOL    HW220165   0.780   7.924   5.686  1.8852  1.7271  0.4260
37684SOL     OW20166   0.417  11.108   5.066 -0.1460 -0.3259 -0.2111
37684SOL    HW120167   0.466  11.121   5.148 -1.3145  0.4944  0.3932
37684SOL    HW220168   0.325  11.104   5.094 -0.4491 -1.7717 -1.3168
37685SOL     OW20169   8.784   9.198   1.517 -0.1126 -0.0152  0.5310
37685SOL    HW120170   8.839   9.273   1.541 -0.2122  0.4261 -0.5696
37685SOL    HW220171   8.705   9.237   1.480  0.0105 -0.6563 -0.4470
37686SOL     OW20172  10.497   4.389   8.012  0.2597  0.2342  0.3209
37686SOL    HW120173  10.456   4.393   7.925  0.7278 -0.9580  0.0355
37686SOL    HW220174  10.566   4.324   8.003  0.2592  0.0412  1.6250
37687SOL     OW20175   9.708   4.470   5.051 -0.5695 -0.6628 -0.0047
37687SOL    HW120176   9.772   4.400   5.066 -0.2809 -0.5794 -0.7675
37687SOL    HW220177   9.742   4.545   5.099  0.1896 -0.4720 -0.8015
37688SOL     OW20178   6.226  10.926  11.976  0.4423 -0.4119  0.2261
37688SOL    HW120179   6.237  11.003  11.920  0.7924  1.2748  2.4901
37688SOL    HW220180   6.132  10.917  11.987  0.3709 -0.7556 -0.5847
37689SOL     OW20181   5.570  10.249   3.134 -0.2712 -0.0290 -0.6503
37689SOL    HW120182   5.504  10.182   3.152 -1.8205  1.3789 -0.7545
37689SOL    HW220183   5.576  10.299   3.216  1.3322 -0.6169 -0.3640
37690SOL     OW20184   8.944   9.100  10.878  0.0457 -0.4020  0.7396
37690SOL    HW120185   8.975   9.077  10.790 -2.1644  0.6162 -0.3716
37690SOL    HW220186   8.970   9.191  10.890  1.0328 -0.7620  1.5136
37691SOL     OW20187   2.954  12.273   0.024  0.0291 -0.7263  0.9846
37691SOL    HW120188   3.037  12.309  -0.004  0.7756 -1.7009  1.8526
37691SOL    HW220189   2.957  12.276   0.120 -1.7103  0.9018  1.0482
37692SOL     OW20190   8.467   0.697   7.130  0.0754  0.7103  0.4801
37692SOL    HW120191   8.391   0.744   7.166  0.2837  1.1749  0.3123
37692SOL    HW220192   8.537   0.711   7.194  0.0659  0.3956  0.5655
37693SOL     OW20193  10.363   2.292   9.217  0.3576 -0.3194 -0.3855
37693SOL    HW120194  10.418   2.368   9.232  0.2144 -0.0177 -1.3291
37693SOL    HW220195  10.287   2.306   9.273  2.0061 -1.6538  2.4118
37694SOL     OW20196   3.821   5.726   8.988  0.1254 -0.0276  0.2935
37694SOL    HW120197   3.779   5.682   9.062 -1.7189  0.5813 -0.3412
37694SOL    HW220198   3.771   5.700   8.912  1.1051  0.5015 -0.5597
37695SOL     OW20199   0.674   6.215   8.516  0.0512 -0.1665  0.1226
37695SOL    HW120200   0.639   6.304   8.523  0.3951 -0.1102  1.4303
37695SOL    HW220201   0.769   6.228   8.510  0.0332 -0.4128 -0.8214
37696SOL     OW20202   7.918   9.106   3.197  0.4266  0.0637  0.1023
37696SOL    HW120203   7.824   9.120   3.189  0.1518 -1.8654 -0.4191
37696SOL    HW220204   7.955   9.194   3.194 -1.4446  1.0174  1.9877
37697SOL     OW20205  10.334   5.019   5.972  0.2776 -0.1597 -0.4860
37697SOL    HW120206  10.351   4.945   6.031  1.0975 -0.8739 -1.5939
37697SOL    HW220207  10.254   5.058   6.006  1.1837 -0.0092  1.6348
37698SOL     OW20208   0.769  11.169  12.605 -0.1329 -0.1278  0.7045
37698SOL    HW120209   0.802  11.241  12.551  0.1466 -0.8140 -0.0492
37698SOL    HW220210   0.826  11.169  12.682 -1.0644  1.4015  1.4544
37699SOL     OW20211   5.304   9.627   3.581 -0.1597  0.1447  0.1735
37699SOL    HW120212   5.394   9.606   3.606  0.2833  1.5516 -0.1637
37699SOL    HW220213   5.271   9.547   3.541  1.9773  0.4620 -2.5408
37700SOL     OW20214   2.459  10.144   0.082 -0.6089  0.2702 -0.3146
37700SOL    HW120215   2.392  10.077   0.068 -1.2746  0.9908 -0.6744
37700SOL    HW220216   2.534  10.114   0.030 -0.8684 -0.2398 -0.4005
37701SOL     OW20217   1.987   1.585  11.888  0.1181 -0.0955 -0.0392
37701SOL    HW120218   1.895   1.598  11.862 -0.2613  1.0761  1.7121
37701SOL    HW220219   2.037   1.602  11.808 -1.1018  1.2390 -0.5765
37702SOL     OW20220   1.408  11.990  10.635 -0.4129 -0.8064 -0.3090
37702SOL    HW120221   1.332  12.021  10.683 -0.8559  0.1059 -1.5576
37702SOL    HW220222   1.373  11.950  10.556  0.2617 -2.9489  0.3833
37703SOL     OW20223   8.114   7.030   3.556  0.5172  0.2241 -0.9370
37703SOL    HW120224   8.155   7.010   3.640  0.1920  0.7057 -0.6610
37703SOL    HW220225   8.034   6.976   3.556  1.1366 -0.7234 -1.4799
37704SOL     OW20226   8.906   8.660  12.774 -0.1235 -0.1878  0.9783
37704SOL    HW120227   8.995   8.631  12.792  0.3942  1.0551  0.5101
37704SOL    HW220228   8.870   8.683  12.860 -0.4712 -1.8986  1.3349
37705SOL     OW20229   8.256   0.311   5.450 -0.3572 -0.0089  0.2109
37705SOL    HW120230   8.345   0.277   5.441 -0.4164  0.1174 -1.0605
37705SOL    HW220231   8.213   0.250   5.510  0.5583 -0.1253  0.7630
37706SOL     OW20232   1.536   0.072   8.533 -0.7850 -0.0351 -0.2065
37706SOL    HW120233   1.596   0.146   8.538  0.8592 -1.2864 -0.5774
37706SOL    HW220234   1.505   0.071   8.443  0.2171 -0.5299 -0.5644
37707SOL     OW20235   6.802   3.400   0.493  0.0105  0.4591 -0.1907
37707SOL    HW120236   6.785   3.393   0.399 -3.4336 -0.6317  0.3364
37707SOL    HW220237   6.820   3.310   0.521 -1.7910  0.2565  0.5066
37708SOL     OW20238   0.247  11.868   3.552  0.1674  0.2683  0.2783
37708SOL    HW120239   0.313  11.868   3.482  1.0404  0.0906  1.0669
37708SOL    HW220240   0.295  11.901   3.628 -0.7472  0.3881  0.8051
37709SOL     OW20241   7.421   8.122   3.917 -0.0445  0.5021  0.3055
37709SOL    HW120242   7.339   8.117   3.867 -0.7176  2.3814  1.1225
37709SOL    HW220243   7.490   8.118   3.850 -0.7997 -0.4160 -0.4528
37710SOL     OW20244   0.892  11.293   4.473 -0.2256 -0.6131 -0.8462
37710SOL    HW120245   0.898  11.361   4.406  1.7132 -0.3911 -0.5035
37710SOL    HW220246   0.973  11.242   4.463 -0.2116 -0.9930  0.8644
37711SOL     OW20247   8.901   2.453   9.045  0.1592  0.2801 -0.3062
37711SOL    HW120248   8.972   2.426   9.103  0.0800 -2.8823 -1.4577
37711SOL    HW220249   8.850   2.515   9.097  2.0747  0.3397  1.6401
37712SOL     OW20250   0.868   0.752   5.945  0.0372  0.3783 -0.0944
37712SOL    HW120251   0.786   0.761   5.897  0.6984 -0.1165 -1.3557
37712SOL    HW220252   0.935   0.745   5.877  1.4219  3.0254  0.8753
37713SOL     OW20253   6.500   2.332   0.139  0.0987  0.6552  0.1449
37713SOL    HW120254   6.433   2.265   0.129  0.5581  0.0536  1.0368
37713SOL    HW220255   6.553   2.303   0.213  0.8805  1.5161 -0.0570
37714SOL     OW20256  10.037   9.998   6.810 -0.1567  0.1226 -0.5414
37714SOL    HW120257  10.038  10.070   6.748 -1.3597  0.2648 -0.4200
37714SOL    HW220258  10.128   9.968   6.813  0.0381  0.4933 -1.9051
37715SOL     OW20259   5.908   1.993   9.338  0.6046  0.2756 -0.2441
37715SOL    HW120260   5.918   1.981   9.243  1.5297 -1.8418  0.0639
37715SOL    HW220261   5.921   2.087   9.352 -0.2575  0.7682 -2.2689
37716SOL     OW20262   7.655   5.058  12.472 -0.3507  0.2488 -0.3290
37716SOL    HW120263   7.738   5.024  12.505  0.0642  1.1870 -0.3895
37716SOL    HW220264   7.617   4.985  12.423  0.3549 -0.2419 -0.1548
37717SOL     OW20265   1.950  12.784   1.336 -0.3413 -0.2885  0.7374
37717SOL    HW120266   1.882  12.851   1.343 -1.1343 -0.9333 -0.4293
37717SOL    HW220267   2.026  12.821   1.381 -0.2499  2.0594 -1.1879
37718SOL     OW20268   1.018  11.138   1.646 -0.0986 -0.2119 -0.6447
37718SOL    HW120269   0.976  11.093   1.719 -1.0891  0.1444 -0.9711
37718SOL    HW220270   1.067  11.069   1.601  1.4413 -0.2147  0.9620
37719SOL     OW20271  11.141  10.499   2.552  0.1262 -0.1220 -0.3583
37719SOL    HW120272  11.119  10.592   2.548 -0.5657 -0.2724 -0.0880
37719SOL    HW220273  11.107  10.470   2.636 -2.4821 -1.3185 -1.7130
37720SOL     OW20274   0.391  12.423   4.298  0.5404 -0.2135  0.6013
37720SOL    HW120275   0.384  12.350   4.359 -0.2196  0.1256  0.9329
37720SOL    HW220276   0.308  12.470   4.307 -0.7570 -1.5836 -2.5434
37721SOL     OW20277  11.661   3.032   2.129 -0.4082 -0.3019 -0.1550
37721SOL    HW120278  11.723   3.070   2.067 -1.4127 -0.5613 -1.3521
37721SOL    HW220279  11.705   2.953   2.161 -0.0269 -0.3748 -0.8420
37722SOL     OW20280   1.053   9.957  11.246 -0.5316 -0.1995 -0.1044
37722SOL    HW120281   1.060  10.049  11.274 -1.8867  0.3220 -1.3662
37722SOL    HW220282   0.973   9.925  11.287  0.0119 -0.8919  0.4494
37723SOL     OW20283   4.191  12.041   1.310  0.3388  0.2375 -0.6502
37723SOL    HW120284   4.176  12.106   1.379  3.9635  0.2906  0.2625
37723SOL    HW220285   4.197  12.094   1.230 -1.5978  0.3988 -0.7578
37724SOL     OW20286   6.348   9.576   3.897  0.4594  0.7742 -0.1851
37724SOL    HW120287   6.430   9.611   3.861  0.8779 -0.6874 -0.7057
37724SOL    HW220288   6.307   9.531   3.823  0.0411 -0.0084  0.5087
37725SOL     OW20289   3.904   2.815  10.240 -0.6749 -0.5834 -0.1492
37725SOL    HW120290   3.858   2.789  10.320 -1.6991  2.2115  0.2596
37725SOL    HW220291   3.997   2.815  10.264 -0.8744 -0.9400  0.6497
37726SOL     OW20292   8.963   0.195   5.266  0.3991 -0.1456 -0.7896
37726SOL    HW120293   8.945   0.134   5.194 -0.3751  2.0961 -2.6079
37726SOL    HW220294   8.878   0.230   5.290  0.9577  1.3429 -0.8783
37727SOL     OW20295  11.150   9.699   8.112  0.1553  0.3362  0.4751
37727SOL    HW120296  11.175   9.748   8.190 -1.6596 -0.2778  1.5110
37727SOL    HW220297  11.157   9.762   8.040  0.0776  1.4645  1.4234
37728SOL     OW20298   4.800   2.211   8.385  0.7705  0.3376  0.8087
37728SOL    HW120299   4.768   2.231   8.297  1.8357  0.7381  0.4923
37728SOL    HW220300   4.730   2.239   8.443 -0.2320 -0.5491  0.0650
37729SOL     OW20301  10.237   3.978   0.539  0.0827  0.8499 -0.2273
37729SOL    HW120302  10.329   3.984   0.512  0.1643  0.6115 -0.0031
37729SOL    HW220303  10.194   3.937   0.464  0.1963  0.7693 -0.2499
37730SOL     OW20304   6.603  10.138   2.216  0.2888 -0.6161  0.9722
37730SOL    HW120305   6.547  10.214   2.231  2.0114  0.6519  1.1570
37730SOL    HW220306   6.561  10.091   2.144  1.5362  2.9765 -2.4257
37731SOL     OW20307   5.302   9.126   9.161  0.4172  0.2628 -0.8917
37731SOL    HW120308   5.256   9.082   9.232  0.0217 -0.7703 -1.7655
37731SOL    HW220309   5.235   9.180   9.119  0.5222  0.4460 -0.8251
37732SOL     OW20310  11.286   6.066   7.836 -0.2336 -0.9519  0.4375
37732SOL    HW120311  11.286   5.990   7.895 -1.2542 -0.7083  0.7740
37732SOL    HW220312  11.198   6.104   7.846  0.0664 -0.0706 -0.1732
37733SOL     OW20313   4.295   2.555  10.301 -0.1642  0.9557 -0.3669
37733SOL    HW120314   4.349   2.626  10.266 -0.0682  1.3834  0.6123
37733SOL    HW220315   4.207   2.592  10.308 -0.3270  0.6562 -0.7858
37734SOL     OW20316   2.555   0.300   2.011 -0.4359 -0.3851  0.0526
37734SOL    HW120317   2.511   0.272   2.091  0.1558 -1.2242  0.0912
37734SOL    HW220318   2.533   0.233   1.946  0.9412 -0.9580  0.1322
37735SOL     OW20319   0.519   6.966   4.484 -0.0409 -0.3583 -0.6328
37735SOL    HW120320   0.428   6.941   4.496 -0.3364  0.8525 -0.2305
37735SOL    HW220321   0.524   6.999   4.395 -0.1528  0.2177 -0.4267
37736SOL     OW20322  12.713   9.721   4.269  0.1997 -0.1661 -0.3117
37736SOL    HW120323  12.770   9.653   4.233  0.4315  0.5150 -1.2546
37736SOL    HW220324  12.643   9.729   4.205 -1.1002 -1.1322  0.9333
37737SOL     OW20325   1.913   2.040   7.569 -0.6136  0.0528 -0.4364
37737SOL    HW120326   1.841   2.094   7.602  0.3082 -0.3589  2.5924
37737SOL    HW220327   1.962   2.097   7.511 -1.6682  1.3109 -0.1408
37738SOL     OW20328   7.338   7.965   2.717 -0.0935 -0.1314 -0.4296
37738SOL    HW120329   7.264   8.024   2.729 -0.0575  0.0432 -1.0255
37738SOL    HW220330   7.398   7.987   2.787 -0.7675 -0.5267  0.2845
37739SOL     OW20331   6.826   4.372   8.314  0.1545 -0.4978  0.1215
37739SOL    HW120332   6.832   4.433   8.240 -0.1901 -2.8693 -1.9934
37739SOL    HW220333   6.778   4.297   8.279 -0.2302 -1.6346  2.8720
37740SOL     OW20334   9.163   3.815   9.568 -0.5766 -0.6256 -0.0806
37740SOL    HW120335   9.086   3.782   9.613 -1.4911  0.3568 -0.8607
37740SOL    HW220336   9.144   3.907   9.551 -0.1916 -0.8732 -2.2142
37741SOL     OW20337   6.925   1.744   0.202 -0.3728 -0.0923 -1.0830
37741SOL    HW120338   6.915   1.650   0.188 -2.9585 -0.2568  1.1214
37741SOL    HW220339   6.872   1.785   0.133  1.3815 -0.1150 -2.5390
37742SOL     OW20340   9.608  12.094   3.095 -0.2602 -0.2024  0.5407
37742SOL    HW120341   9.638  12.141   3.017 -0.2438  2.0611  1.8229
37742SOL    HW220342   9.683  12.042   3.123  0.8941  1.5228  0.8547
37743SOL     OW20343   4.407  11.388   5.446  0.4622  0.1794 -0.0571
37743SOL    HW120344   4.377  11.350   5.364  0.6642  0.4032 -0.2354
37743SOL    HW220345   4.431  11.477   5.424  0.0134  0.4091  0.3558
37744SOL     OW20346   9.872   0.348   2.751 -0.4371 -0.1031  0.1969
37744SOL    HW120347   9.945   0.389   2.706 -0.2829  0.9695  1.3697
37744SOL    HW220348   9.906   0.263   2.781  0.3193  0.3626  0.6786
37745SOL     OW20349   0.234  11.868   3.855 -0.2803 -0.7921  0.4620
37745SOL    HW120350   0.244  11.896   3.947  1.1345  3.2397 -0.7060
37745SOL    HW220351   0.165  11.925   3.821  3.0179  2.0417 -2.2283
37746SOL     OW20352   9.070   5.805  11.300 -0.0369 -0.0627 -0.1307
37746SOL    HW120353   9.052   5.755  11.220 -2.2972  0.4659 -0.0243
37746SOL    HW220354   8.998   5.781  11.359  1.0272  0.3463  1.3765
37747SOL     OW20355   9.132   6.789   1.335 -0.6652 -0.0443 -0.0278
37747SOL    HW120356   9.097   6.855   1.395 -0.8990  0.6833 -0.9349
37747SOL    HW220357   9.073   6.714   1.345 -0.4666 -0.0796  0.9300
37748SOL     OW20358   0.587  10.179   2.044 -0.3630  0.1272 -0.6688
37748SOL    HW120359   0.604  10.137   2.127 -1.0051  0.0515 -0.5656
37748SOL    HW220360   0.587  10.273   2.064  1.3820  0.2254 -0.9587
37749SOL     OW20361   4.781   3.552   2.192  0.1107  0.5952 -0.1009
37749SOL    HW120362   4.806   3.612   2.122  1.0309 -0.3384 -0.5918
37749SOL    HW220363   4.690   3.531   2.174  0.4945 -0.0705 -1.3530
37750SOL     OW20364   8.546   2.709  10.347  0.5000 -0.2574 -0.0271
37750SOL    HW120365   8.475   2.721  10.409 -0.3206 -0.2808 -0.9445
37750SOL    HW220366   8.599   2.789  10.355 -0.0914  0.1260  0.0670
37751SOL     OW20367   7.612   2.424   1.855 -0.2061 -0.2118 -0.1127
37751SOL    HW120368   7.607   2.407   1.761 -0.8710  1.3637 -0.3875
37751SOL    HW220369   7.642   2.515   1.862  2.4885 -1.0957  1.2507
37752SOL     OW20370   9.102   0.985   8.966 -0.0079  0.0061  0.0712
37752SOL    HW120371   9.058   0.935   9.035 -0.1724  1.1045  0.7926
37752SOL    HW220372   9.050   0.968   8.888 -1.7966  1.3000  0.9106
37753SOL     OW20373   8.799   5.736  12.668 -0.2852 -0.2120  0.5699
37753SOL    HW120374   8.705   5.741  12.653 -0.1341  1.5204 -0.0129
37753SOL    HW220375   8.832   5.823  12.645  1.4237 -0.6933  1.0333
37754SOL     OW20376   6.462   1.300   5.515 -0.3508  0.0671 -0.0490
37754SOL    HW120377   6.404   1.255   5.454 -0.2581  0.2205 -0.2532
37754SOL    HW220378   6.476   1.386   5.475  0.1544 -0.0315 -0.0932
37755SOL     OW20379   7.493   4.280   9.827 -0.2744  0.5234 -0.6711
37755SOL    HW120380   7.541   4.239   9.898  1.0761  1.1369 -1.2063
37755SOL    HW220381   7.505   4.374   9.839  0.6630  0.6302 -2.1341
37756SOL     OW20382   9.615   6.809   2.099 -0.0706  0.0840  0.6185
37756SOL    HW120383   9.544   6.780   2.042  0.9126 -1.3692  0.0854
37756SOL    HW220384   9.617   6.745   2.170  0.6573  0.1383  0.6546
37757SOL     OW20385  12.291   5.534   2.042 -0.6473  0.1942 -0.3234
37757SOL    HW120386  12.203   5.573   2.042 -0.1827  1.2773 -1.0396
37757SOL    HW220387  12.310   5.518   2.135 -1.1859  0.9090 -0.0838
37758SOL     OW20388   4.857   7.838   1.835 -0.2840 -0.3210  0.0957
37758SOL    HW120389   4.916   7.842   1.909 -0.3796  0.4248  0.1316
37758SOL    HW220390   4.825   7.927   1.824  0.7271 -0.1245 -1.6489
37759SOL     OW20391   9.672  10.821  11.326  0.4572 -0.0012  0.2024
37759SOL    HW120392   9.648  10.884  11.393  0.8330 -0.7521  1.0727
37759SOL    HW220393   9.760  10.846  11.298  0.7136 -0.2873  0.7408
37760SOL     OW20394  10.576  10.454   8.386  0.1972 -0.6746 -0.0442
37760SOL    HW120395  10.505  10.423   8.442  0.9598 -1.3326  0.5889
37760SOL    HW220396  10.532  10.497   8.313 -0.8436  1.2603  1.6203
37761SOL     OW20397   4.901   0.222   0.134 -0.4377  0.0934  0.1642
37761SOL    HW120398   4.957   0.224   0.211 -0.5418 -2.2577  0.3714
37761SOL    HW220399   4.850   0.142   0.144 -2.6698  1.2939 -0.8448
37762SOL     OW20400   2.140   0.711   1.627  0.4709 -0.5403 -0.1853
37762SOL    HW120401   2.075   0.691   1.694  0.1228 -1.4664 -0.7921
37762SOL    HW220402   2.093   0.762   1.561 -0.2292 -2.9447 -1.6563
37763SOL     OW20403   7.615   7.966   8.756 -0.3237  0.5383  0.6668
37763SOL    HW120404   7.668   7.977   8.834  1.4590 -0.3178 -0.3533
37763SOL    HW220405   7.662   8.014   8.688  0.7994 -2.5084 -0.9111
37764SOL     OW20406   9.786   1.287   8.290  0.1366  0.4495  0.1404
37764SOL    HW120407   9.820   1.377   8.287  1.2826  0.0438  0.4283
37764SOL    HW220408   9.718   1.286   8.223  1.0525  1.1723 -0.8596
37765SOL     OW20409  12.248   3.461   6.429  0.1971 -0.4508 -0.4238
37765SOL    HW120410  12.295   3.383   6.458 -0.2382 -0.9999 -1.1709
37765SOL    HW220411  12.157   3.445   6.452  0.1280 -0.0909 -0.4372
37766SOL     OW20412  11.267   9.441   8.170  0.0989  0.0345  0.7422
37766SOL    HW120413  11.275   9.437   8.266  0.3684  0.8834  0.7679
37766SOL    HW220414  11.211   9.517   8.154  0.8126  0.4626  0.2089
37767SOL     OW20415   2.977  12.761  11.037  0.4907 -0.2847 -0.6123
37767SOL    HW120416   2.990  12.688  10.977  1.3590 -2.2321  1.7676
37767SOL    HW220417   2.893  12.743  11.079  1.0217 -0.3453  0.4739
37768SOL     OW20418   6.437  12.532   6.715 -0.5538  0.0405 -0.2351
37768SOL    HW120419   6.496  12.473   6.669  0.3554  0.0478  0.8869
37768SOL    HW220420   6.462  12.525   6.807 -1.3172  1.1600  0.0840
37769SOL     OW20421   2.520   6.291   6.714 -0.4160  0.6831  0.1063
37769SOL    HW120422   2.580   6.296   6.788  0.0801 -0.7201 -0.1763
37769SOL    HW220423   2.453   6.230   6.742 -0.3191  0.2764 -0.5363
37770SOL     OW20424  10.269   8.621   6.538  0.0152 -0.4630  0.2439
37770SOL    HW120425  10.230   8.541   6.572  1.4501 -0.5433  1.8658
37770SOL    HW220426  10.224   8.692   6.584 -1.5851 -0.2366 -1.5337
37771SOL     OW20427   3.929  11.643  12.313  0.3502  0.4025  0.4555
37771SOL    HW120428   3.983  11.569  12.343  0.1519  0.6227  1.3698
37771SOL    HW220429   3.993  11.707  12.282  0.4998 -0.5396 -1.3283
37772SOL     OW20430   5.376   7.401   3.281 -0.1194 -0.3264  0.0810
37772SOL    HW120431   5.414   7.475   3.329 -1.3518 -0.2010  0.9198
37772SOL    HW220432   5.370   7.432   3.191  2.1700 -0.5373 -0.2136
37773SOL     OW20433   0.195  10.652  10.449 -0.4432 -0.3199 -0.4956
37773SOL    HW120434   0.123  10.592  10.432 -1.1179 -0.3596  2.0263
37773SOL    HW220435   0.229  10.624  10.534 -0.3555  2.3820  0.4572
37774SOL     OW20436  10.565   1.214  11.577 -0.3761 -0.1517  0.1033
37774SOL    HW120437  10.641   1.262  11.542  0.7085 -0.7104  1.5808
37774SOL    HW220438  10.526   1.172  11.500  1.4730 -0.7335 -0.5853
37775SOL     OW20439   8.504  11.974  12.336  0.4759 -0.1141  0.3133
37775SOL    HW120440   8.414  11.951  12.314  0.2614  0.7419  0.2376
37775SOL    HW220441   8.552  11.891  12.333 -0.2192 -0.5125 -0.0743
37776SOL     OW20442  12.054  12.819  10.709 -0.4277 -0.0736  0.1341
37776SOL    HW120443  12.093  12.905  10.718 -0.5834  0.0248 -0.1373
37776SOL    HW220444  12.125  12.762  10.681  0.0064 -0.3242  1.6636
37777SOL     OW20445  10.890   5.787   1.425  0.0102  0.3019  0.0604
37777SOL    HW120446  10.851   5.850   1.485  0.2747  1.7731 -1.2418
37777SOL    HW220447  10.819   5.726   1.404 -0.5788  0.8459  0.4554
37778SOL     OW20448   8.590   9.760   4.243  0.1457  0.1641 -0.2308
37778SOL    HW120449   8.534   9.747   4.167 -0.8454  1.1506  0.3014
37778SOL    HW220450   8.664   9.812   4.211  1.4657 -2.1556 -1.2133
37779SOL     OW20451   4.089   0.068   8.889 -0.5887 -0.6994  0.2533
37779SOL    HW120452   4.108   0.128   8.817  0.8799 -0.8699  0.4823
37779SOL    HW220453   4.001   0.094   8.918  0.0955  1.5127  0.5006
37780SOL     OW20454  10.538   1.541   1.042 -0.5531  0.0548  0.1739
37780SOL    HW120455  10.532   1.629   1.080  3.0303  0.7708 -0.5042
37780SOL    HW220456  10.565   1.556   0.952 -0.0563 -1.7353 -0.0195
37781SOL     OW20457   0.055   6.541   6.624 -0.0209  0.4667 -0.2176
37781SOL    HW120458   0.066   6.602   6.551 -0.1998  1.3999  0.5175
37781SOL    HW220459   0.051   6.455   6.583 -1.9477  1.1112 -1.4870
37782SOL     OW20460   2.876   7.863   3.536  0.2990 -0.3760 -0.1544
37782SOL    HW120461   2.968   7.845   3.555  0.8869  0.1904 -2.1881
37782SOL    HW220462   2.845   7.783   3.493  0.1877 -0.1241 -0.5461
37783SOL     OW20463  12.062   6.197   3.073 -0.4418  0.3364 -0.1281
37783SOL    HW120464  12.080   6.291   3.073 -1.1183  0.5073  1.4713
37783SOL    HW220465  12.139   6.157   3.033  0.9756  1.4089  1.4226
37784SOL     OW20466   8.289   0.070   3.614 -0.2121 -0.6747 -0.4237
37784SOL    HW120467   8.351   0.113   3.555 -2.1215  1.3671 -1.0647
37784SOL    HW220468   8.293  -0.023   3.590  0.8270 -0.2389 -2.0650
37785SOL     OW20469   9.892   0.128   8.282  0.2430 -0.2758  0.0781
37785SOL    HW120470   9.802   0.159   8.269  1.0303  2.1344 -0.1072
37785SOL    HW220471   9.902   0.057   8.219 -0.8936  0.8461 -1.4487
37786SOL     OW20472   4.404   1.047   8.655 -0.1555  0.2908  0.2504
37786SOL    HW120473   4.499   1.036   8.657 -0.0505  0.1355 -2.1279
37786SOL    HW220474   4.369   0.958   8.660 -0.1411  0.2971  0.4533
37787SOL     OW20475  11.274   9.570  12.531 -0.3263 -0.1417  0.0138
37787SOL    HW120476  11.303   9.614  12.611  0.7311  0.0272 -0.4489
37787SOL    HW220477  11.208   9.508  12.561  0.8327 -0.8520  1.1732
37788SOL     OW20478   9.855  10.386  12.729  0.0675 -0.4781  0.1649
37788SOL    HW120479   9.913  10.459  12.755 -0.4105 -0.1688  0.3713
37788SOL    HW220480   9.782  10.390  12.791  0.6478 -1.9323  0.9922
37789SOL     OW20481   4.000   7.894   3.096 -0.2717 -0.1809  0.8726
37789SOL    HW120482   4.066   7.941   3.147  1.1679 -2.1156  0.9018
37789SOL    HW220483   4.025   7.909   3.004  0.2410 -0.9177  0.8838
37790SOL     OW20484   0.482  12.023   0.720 -0.1348  0.5972 -0.1085
37790SOL    HW120485   0.485  11.971   0.800 -1.0651  1.8748  0.7981
37790SOL    HW220486   0.436  11.967   0.657 -0.6194  0.0997  0.6735
37791SOL     OW20487   9.058  11.121   0.411 -0.0107  0.0043  0.3898
37791SOL    HW120488   9.077  11.180   0.338 -1.5542  0.4218  0.2822
37791SOL    HW220489   9.024  11.178   0.480  0.5493 -0.5059  1.1002
37792SOL     OW20490   0.366   0.305   3.963 -0.3997  0.1329 -0.8368
37792SOL    HW120491   0.385   0.391   3.926  1.4111 -0.0907 -0.5519
37792SOL    HW220492   0.418   0.244   3.910 -2.2636 -0.9215 -1.5491
37793SOL     OW20493   9.474   8.265  12.150  0.0602 -0.1572  0.4319
37793SOL    HW120494   9.407   8.330  12.169 -0.7152  0.0225 -2.4857
37793SOL    HW220495   9.425   8.183  12.137  0.6627 -0.5533  0.6051
37794SOL     OW20496   2.289   2.253   4.249 -0.7209  0.3743  0.1021
37794SOL    HW120497   2.344   2.329   4.268 -0.9820  0.5806  0.0373
37794SOL    HW220498   2.341   2.178   4.278 -0.2534  0.5418 -0.2873
37795SOL     OW20499   8.542   6.213   3.737  0.8912  0.0268 -0.8163
37795SOL    HW120500   8.476   6.205   3.806  0.5002  1.1597 -1.0366
37795SOL    HW220501   8.602   6.279   3.768  2.3589 -1.4809 -0.3133
37796SOL     OW20502   2.990   8.378   3.078 -0.1337 -0.3009 -0.0030
37796SOL    HW120503   2.991   8.430   3.159 -1.1665 -0.5476  0.1793
37796SOL    HW220504   2.979   8.288   3.107 -0.1956 -0.4252 -0.4039
37797SOL     OW20505   4.749   0.028   1.443 -0.6851  0.2372  0.3583
37797SOL    HW120506   4.840   0.055   1.433  0.2714 -3.4355 -3.0782
37797SOL    HW220507   4.700   0.087   1.386  0.3142 -0.6088 -1.4577
37798SOL     OW20508   6.439   1.444   1.074  0.0104  0.1579  0.3253
37798SOL    HW120509   6.387   1.485   1.143 -1.7262 -0.0739 -0.7805
37798SOL    HW220510   6.422   1.496   0.996  0.9790 -0.2881 -0.2021
37799SOL     OW20511  12.572  11.163   0.867  0.2106  0.1248 -0.3707
37799SOL    HW120512  12.494  11.168   0.812 -0.3428  0.1232  0.4022
37799SOL    HW220513  12.629  11.232   0.834  0.1784 -0.3134 -1.3850
37800SOL     OW20514  12.086   1.398  12.512 -0.0286 -0.0978  0.0346
37800SOL    HW120515  12.179   1.377  12.499  0.1337  0.1880  0.7172
37800SOL    HW220516  12.057   1.430  12.426  0.6683  0.4071 -0.0229
37801SOL     OW20517   2.844   2.795   0.499  0.5265  0.6718  0.2158
37801SOL    HW120518   2.825   2.760   0.586 -0.9877  0.4997 -0.1514
37801SOL    HW220519   2.935   2.823   0.503  0.2325  1.4881  2.1355
37802SOL     OW20520   9.168   5.000   6.001 -0.0757 -0.3895 -0.2033
37802SOL    HW120521   9.137   5.063   5.936 -2.4461 -1.8907 -0.6233
37802SOL    HW220522   9.239   4.953   5.957  1.1579  1.3107 -0.1764
37803SOL     OW20523   1.950  11.183  12.367  0.4035 -0.1803 -0.6956
37803SOL    HW120524   1.896  11.141  12.301 -0.0152 -0.3808 -0.2351
37803SOL    HW220525   1.940  11.277  12.351 -2.7876 -0.0047  1.3831
37804SOL     OW20526   0.807   5.753   5.811  0.3037  0.3622 -0.3583
37804SOL    HW120527   0.727   5.724   5.853  0.6929  0.8051  0.7137
37804SOL    HW220528   0.878   5.722   5.868  0.8981  0.1241 -1.1970
37805SOL     OW20529   0.359   8.245   2.349 -0.3748  0.3810 -0.2855
37805SOL    HW120530   0.385   8.164   2.394 -0.9193  1.5031  2.2312
37805SOL    HW220531   0.438   8.299   2.350 -0.9051  1.2080  1.3293
37806SOL     OW20532   5.497   3.786  12.517  0.0177  0.1208  0.0376
37806SOL    HW120533   5.437   3.712  12.503  0.7171 -0.0331 -2.7519
37806SOL    HW220534   5.439   3.858  12.542 -1.4999  0.0390 -2.7711
37807SOL     OW20535  12.333  12.815   2.375 -0.2715  0.6582 -0.2591
37807SOL    HW120536  12.348  12.879   2.306 -1.2587  0.0029 -1.1195
37807SOL    HW220537  12.400  12.748   2.359 -2.3592 -1.0692 -2.6091
37808SOL     OW20538   0.048   6.995  12.405  0.1907  0.2411  0.7084
37808SOL    HW120539   0.142   7.010  12.395  0.1730 -0.6782 -1.4629
37808SOL    HW220540   0.007   7.079  12.382  0.3901 -0.5334 -3.1871
37809SOL     OW20541   3.705  10.820   3.586 -0.3933 -0.1244  0.4444
37809SOL    HW120542   3.714  10.778   3.671 -1.3153  0.1455  0.6762
37809SOL    HW220543   3.795  10.845   3.562  0.1639 -2.0117  0.4015
37810SOL     OW20544  10.252  10.225   8.389  0.1869  0.0299 -0.0951
37810SOL    HW120545  10.265  10.263   8.476  0.2715  2.2194 -1.0052
37810SOL    HW220546  10.340  10.212   8.355  0.2292 -2.5832  0.7771
37811SOL     OW20547   4.639   3.566   3.277  0.2653 -0.4416  0.8319
37811SOL    HW120548   4.548   3.589   3.258  0.1084 -1.8737 -0.3423
37811SOL    HW220549   4.688   3.646   3.260 -0.4359 -0.4369 -1.4380
37812SOL     OW20550   3.376   1.975   5.962  0.2623  0.0315  0.2252
37812SOL    HW120551   3.440   2.036   5.998  1.0969 -1.8361  2.1166
37812SOL    HW220552   3.316   1.956   6.035 -0.2385 -1.0443 -0.4263
37813SOL     OW20553   1.202   3.530   6.816 -0.4343  0.7106  0.3003
37813SOL    HW120554   1.149   3.493   6.745 -0.4083  0.5878  0.3458
37813SOL    HW220555   1.164   3.617   6.830 -1.8619 -0.0913  1.6417
37814SOL     OW20556  10.642  12.941  12.367  0.2062  0.7475 -0.2215
37814SOL    HW120557  10.628  12.912  12.277  2.0715  0.1943 -0.3629
37814SOL    HW220558  10.711  13.007  12.361  0.2509  0.8103  0.8002
37815SOL     OW20559   4.648   1.120   7.797  0.2809  0.0288  0.3084
37815SOL    HW120560   4.649   1.209   7.763  0.5835  1.2155  3.1458
37815SOL    HW220561   4.726   1.079   7.760 -0.0705  0.7515 -1.3415
37816SOL     OW20562   3.134   4.382  12.705 -0.9027  0.3535 -0.8645
37816SOL    HW120563   3.165   4.443  12.638 -0.2291  0.4811 -0.4446
37816SOL    HW220564   3.210   4.367  12.761 -1.1670 -0.5827 -0.7443
37817SOL     OW20565  10.839   8.187  11.201  0.9767 -1.1900 -0.2599
37817SOL    HW120566  10.851   8.240  11.279  1.5271  0.3162 -1.3220
37817SOL    HW220567  10.844   8.097  11.232 -2.7854 -0.8065  2.0806
37818SOL     OW20568  11.881  11.253   0.238 -0.3958  0.0541 -0.3718
37818SOL    HW120569  11.924  11.173   0.269 -0.2714  0.6724  1.1029
37818SOL    HW220570  11.953  11.315   0.224 -0.5648  0.1751 -0.7189
37819SOL     OW20571   2.526  12.304   4.904  0.1984 -0.2043 -0.2972
37819SOL    HW120572   2.479  12.343   4.978 -0.1815  0.7758 -1.0294
37819SOL    HW220573   2.540  12.213   4.930  1.4497  0.4696  1.6570
37820SOL     OW20574   9.139  10.967   9.410 -0.3198 -0.5263 -0.1963
37820SOL    HW120575   9.087  11.037   9.450 -0.0608 -0.2412 -0.3530
37820SOL    HW220576   9.090  10.944   9.331 -0.9489 -1.2467  0.3865
37821SOL     OW20577   0.707   4.259  12.367  0.2947 -0.4931 -0.5969
37821SOL    HW120578   0.695   4.168  12.395  0.1250 -0.5352 -0.7982
37821SOL    HW220579   0.757   4.252  12.286  0.2524 -0.4075 -0.6294
37822SOL     OW20580   8.692   8.150   8.735 -0.5166  0.2004 -0.0763
37822SOL    HW120581   8.689   8.226   8.792  3.2832  0.1550  0.3955
37822SOL    HW220582   8.747   8.177   8.661  1.2318 -2.0997  0.2748
37823SOL     OW20583   8.578   7.528  11.033  0.2595  0.2578 -0.3462
37823SOL    HW120584   8.581   7.533  11.128  0.4812  0.1713 -0.3481
37823SOL    HW220585   8.568   7.618  11.004  2.7130  0.6110 -0.3208
37824SOL     OW20586   1.737  10.497   4.253  0.0784  0.2110 -0.4061
37824SOL    HW120587   1.691  10.418   4.223  0.0069  1.0433 -2.6261
37824SOL    HW220588   1.828  10.469   4.260  0.0460 -0.1067 -1.1224
37825SOL     OW20589   5.754   8.879   2.078 -0.1326  0.7791 -0.6360
37825SOL    HW120590   5.777   8.939   2.149  1.8073  1.7012 -1.9506
37825SOL    HW220591   5.735   8.796   2.122  0.7079  1.3988  0.9843
37826SOL     OW20592   6.141   9.389   0.415 -0.0754 -0.2970  0.2922
37826SOL    HW120593   6.219   9.364   0.465  0.8725 -0.5044 -1.2411
37826SOL    HW220594   6.169   9.466   0.365 -1.0350 -0.0294  0.1558
37827SOL     OW20595   0.463  11.891   5.560  0.7312  0.3936  0.2600
37827SOL    HW120596   0.479  11.812   5.509  1.4688 -0.0826  1.2066
37827SOL    HW220597   0.418  11.861   5.638  1.5227  0.8219  0.8979
37828SOL     OW20598   0.975   2.869   0.193 -0.0885  0.4004  0.2340
37828SOL    HW120599   1.031   2.893   0.266  0.0052 -2.5062  1.2455
37828SOL    HW220600   1.003   2.781   0.169 -4.2782 -1.4031  0.9933
37829SOL     OW20601   3.311   1.560   1.878 -0.2939 -0.2703  0.0752
37829SOL    HW120602   3.318   1.600   1.965  0.0470 -0.8053  0.2981
37829SOL    HW220603   3.220   1.530   1.874 -0.5892  0.6212 -0.1438
37830SOL     OW20604   6.001   4.612   0.172 -0.0445 -0.0657 -0.6377
37830SOL    HW120605   6.056   4.645   0.243  0.2677 -1.3122 -0.2740
37830SOL    HW220606   5.921   4.663   0.178 -0.1114 -0.2981  0.7707
37831SOL     OW20607  12.735   8.924  12.962  0.2270 -0.1040 -0.1024
37831SOL    HW120608  12.647   8.888  12.949  0.4210 -0.8485  0.5796
37831SOL    HW220609  12.792   8.867  12.910  0.6882 -1.5795  1.8729
37832SOL     OW20610  12.684   2.502   7.630 -0.1736 -0.5828 -0.1042
37832SOL    HW120611  12.608   2.558   7.646 -2.1792 -2.6598 -1.7253
37832SOL    HW220612  12.733   2.548   7.561 -0.3098  0.4219  0.4440
37833SOL     OW20613   1.952   0.077   1.524  0.5539 -0.4196 -0.9661
37833SOL    HW120614   1.968   0.100   1.615  0.0232 -0.9307 -0.7405
37833SOL    HW220615   2.032   0.032   1.496  1.9933  2.3540 -1.6758
37834SOL     OW20616   2.057   5.113  11.074 -0.2711  0.0513 -0.5007
37834SOL    HW120617   2.119   5.185  11.070 -0.4622  0.1690 -2.0196
37834SOL    HW220618   2.080   5.058  10.999 -1.7445 -0.0970 -0.8721
37835SOL     OW20619   0.513   9.940   6.931  0.4886 -0.1644  0.6464
37835SOL    HW120620   0.598   9.967   6.897  0.0344  0.7442  0.1991
37835SOL    HW220621   0.525   9.848   6.955  0.7932 -0.9371 -2.1695
37836SOL     OW20622  10.396   9.722   0.049 -0.1737  0.1704 -0.3596
37836SOL    HW120623  10.307   9.688   0.036 -0.9278  1.4800  0.9898
37836SOL    HW220624  10.420   9.761  -0.035 -1.0864  0.2594 -0.5859
37837SOL     OW20625   8.641   4.328  11.587  0.3319  0.0893 -0.2634
37837SOL    HW120626   8.632   4.259  11.653 -0.4569  0.8489  0.4485
37837SOL    HW220627   8.628   4.409  11.636 -2.3545  0.6225 -1.6700
37838SOL     OW20628   4.107  12.306   4.652  0.3469 -0.3300 -0.1667
37838SOL    HW120629   4.160  12.317   4.573  0.4227  0.3633 -0.0219
37838SOL    HW220630   4.071  12.217   4.645  0.0698 -0.1472 -1.1541
37839SOL     OW20631   6.987   4.300   0.547 -0.2762 -0.8919 -0.3633
37839SOL    HW120632   7.004   4.343   0.631  0.4192  0.8904 -1.3485
37839SOL    HW220633   6.897   4.325   0.525 -0.0746 -0.4121 -0.6590
37840SOL     OW20634   5.008   7.412   8.302  0.4294  0.4018 -0.2119
37840SOL    HW120635   5.057   7.425   8.221 -0.7981 -1.0237 -1.2616
37840SOL    HW220636   4.985   7.500   8.331 -0.0221  0.9228 -2.0390
37841SOL     OW20637   4.307   2.712   0.062 -0.1420 -0.1259  0.0281
37841SOL    HW120638   4.228   2.757   0.091  1.2099  1.7306  1.0627
37841SOL    HW220639   4.286   2.677  -0.024 -1.8486  0.9233 -0.0083
37842SOL     OW20640   6.387  10.345   5.135 -0.3862  0.1136 -0.1569
37842SOL    HW120641   6.352  10.334   5.224  3.0303  2.1519  1.6493
37842SOL    HW220642   6.389  10.256   5.099 -2.3688 -0.7128  1.5530
37843SOL     OW20643   3.883  10.863   8.996 -0.2893 -0.1072  0.1381
37843SOL    HW120644   3.877  10.943   8.944 -1.5821 -1.4542 -1.9671
37843SOL    HW220645   3.802  10.863   9.048 -0.4406 -0.1714 -0.0931
37844SOL     OW20646   5.024  12.083   0.951  0.9185  0.0905 -0.6933
37844SOL    HW120647   4.997  12.145   0.883  0.3873 -1.3458 -1.8449
37844SOL    HW220648   4.942  12.053   0.990  1.2118  0.7423  0.4851
37845SOL     OW20649   4.352   2.762   7.055 -0.0558  0.1821 -0.1868
37845SOL    HW120650   4.337   2.818   6.979  1.6600  0.9837  0.0133
37845SOL    HW220651   4.322   2.676   7.029  1.3681  0.2161 -2.1464
37846SOL     OW20652   1.977  10.878  10.267 -0.4036  0.1759  0.7701
37846SOL    HW120653   1.983  10.783  10.274  2.3270 -0.0406 -2.2317
37846SOL    HW220654   2.045  10.911  10.326  0.3714  0.0882 -0.0546
37847SOL     OW20655   5.045   5.584  12.533  0.0192 -0.0811 -0.1786
37847SOL    HW120656   5.109   5.519  12.504  0.0485 -0.7266  1.2166
37847SOL    HW220657   5.091   5.634  12.600 -1.1996 -1.2300  1.6125
37848SOL     OW20658   3.070   4.624   6.634  0.3975  0.0118 -0.0193
37848SOL    HW120659   3.026   4.551   6.677  0.3819  0.3363  0.5171
37848SOL    HW220660   3.136   4.583   6.578  0.9563 -0.3799  0.9171
37849SOL     OW20661  12.638   5.599   6.604 -0.4113  0.4194 -0.4853
37849SOL    HW120662  12.722   5.611   6.559 -0.3221  0.0272 -0.4267
37849SOL    HW220663  12.577   5.654   6.555  0.1197  1.6364  0.1924
37850SOL     OW20664  10.735   9.595   0.669 -0.3944 -0.4078 -0.3033
37850SOL    HW120665  10.679   9.655   0.718 -1.2601 -0.4917 -1.1727
37850SOL    HW220666  10.779   9.650   0.604 -2.0202 -0.8454 -1.8318
37851SOL     OW20667  12.069  11.669   3.987 -0.7046  0.1632  0.0722
37851SOL    HW120668  12.089  11.603   3.921 -0.0907  0.6785 -0.2597
37851SOL    HW220669  11.979  11.649   4.014 -0.3844 -1.0804  0.3050
37852SOL     OW20670  10.820   6.568   4.878 -0.0734  0.9693 -0.2569
37852SOL    HW120671  10.767   6.555   4.957 -0.2774 -0.1554 -0.5578
37852SOL    HW220672  10.900   6.518   4.895 -1.1154 -1.3379 -1.6941
37853SOL     OW20673   0.360  12.149   1.030 -0.2048  0.6934  0.4756
37853SOL    HW120674   0.403  12.065   1.045 -0.3143  0.7351  1.0741
37853SOL    HW220675   0.267  12.129   1.036 -0.3850  0.3073 -2.3736
37854SOL     OW20676  11.009   3.914   7.569  0.2525  0.2084  0.3161
37854SOL    HW120677  10.935   3.881   7.519 -1.2680 -0.4742  2.8200
37854SOL    HW220678  11.024   3.848   7.637 -0.0220  2.4916  2.7959
37855SOL     OW20679   0.743  10.226   1.248 -0.1259  0.2417 -0.0676
37855SOL    HW120680   0.690  10.259   1.321  1.1394 -3.7249  3.0507
37855SOL    HW220681   0.698  10.146   1.220  2.1602 -1.2385  0.1988
37856SOL     OW20682   5.670   1.028  10.862 -0.1820  0.1670  0.4412
37856SOL    HW120683   5.635   1.104  10.907 -2.5128  0.5261 -1.7332
37856SOL    HW220684   5.644   0.953  10.916 -0.0994  0.7390  1.2902
37857SOL     OW20685  11.555   4.600   3.557 -0.3478  0.0711 -0.3569
37857SOL    HW120686  11.605   4.656   3.497 -1.3787  0.9971 -0.3883
37857SOL    HW220687  11.617   4.533   3.586  0.8959  1.1816 -0.3948
37858SOL     OW20688   3.278  10.364   5.250 -0.0435 -0.0512  0.0275
37858SOL    HW120689   3.258  10.324   5.165  2.0362  0.0335 -0.5374
37858SOL    HW220690   3.266  10.293   5.313  1.7910 -1.1160 -0.7555
37859SOL     OW20691   3.513  10.251  11.446 -0.0081 -0.3093  0.2776
37859SOL    HW120692   3.446  10.312  11.415  0.1530 -0.5071 -0.4904
37859SOL    HW220693   3.464  10.174  11.476 -0.0926 -1.2022 -1.9498
37860SOL     OW20694  11.447   5.683   8.668 -0.8397  0.1431  0.8127
37860SOL    HW120695  11.417   5.659   8.756 -0.5409 -0.9914  0.6230
37860SOL    HW220696  11.387   5.637   8.609  0.5332 -1.2927  0.4337
37861SOL     OW20697  11.269  11.030   6.432 -0.1571 -0.6127 -0.3125
37861SOL    HW120698  11.326  11.104   6.451  0.5428 -1.4480  1.0376
37861SOL    HW220699  11.267  10.980   6.514 -2.5126 -0.8390 -0.4495
37862SOL     OW20700  10.381   5.144   9.562  0.0057 -0.1341 -0.0679
37862SOL    HW120701  10.444   5.102   9.621 -1.4133 -1.1718  0.7477
37862SOL    HW220702  10.347   5.073   9.508  0.6459  0.6707 -1.6171
37863SOL     OW20703  11.494  11.957   0.674  0.2322  0.3263  0.3177
37863SOL    HW120704  11.531  12.038   0.639  3.3631 -0.9625  0.2828
37863SOL    HW220705  11.430  11.930   0.609  1.3755  1.2187 -1.2610
37864SOL     OW20706   0.905  12.092   1.521 -0.7594  0.3464 -0.2582
37864SOL    HW120707   0.978  12.057   1.469 -1.5934 -1.7777 -0.1268
37864SOL    HW220708   0.832  12.098   1.460 -1.6369 -1.7872  0.4746
37865SOL     OW20709   6.871  12.842   2.642 -0.2267  0.1636  0.0543
37865SOL    HW120710   6.946  12.877   2.593 -1.3522 -0.1702 -2.0096
37865SOL    HW220711   6.830  12.780   2.582 -1.3077 -0.7889  1.7055
37866SOL     OW20712   1.659   2.100   3.464  0.7931  0.3593 -0.0570
37866SOL    HW120713   1.607   2.128   3.540  1.2637  1.0194  0.0277
37866SOL    HW220714   1.750   2.107   3.493  0.9509 -0.2827 -0.3816
37867SOL     OW20715   4.956  10.828   5.293  0.1967  0.2032  0.2288
37867SOL    HW120716   4.873  10.874   5.303 -0.3354 -0.5559 -0.5748
37867SOL    HW220717   5.019  10.882   5.341 -0.9709  0.1813  1.8931
37868SOL     OW20718   2.211  10.437   6.828  0.2879  0.2464 -0.0543
37868SOL    HW120719   2.203  10.493   6.905 -0.3264  1.5783 -1.0508
37868SOL    HW220720   2.304  10.437   6.808  0.8613 -2.1023  2.0621
37869SOL     OW20721   8.090   9.981   2.197 -0.1064 -0.0800  0.3486
37869SOL    HW120722   8.145  10.034   2.254  0.7497  0.4799 -0.9426
37869SOL    HW220723   8.002  10.017   2.207  0.1748  0.5073  0.7204
37870SOL     OW20724   3.619   2.227   4.285  0.0605 -0.0436  0.3815
37870SOL    HW120725   3.529   2.217   4.256  0.0537  0.7101  0.1132
37870SOL    HW220726   3.612   2.267   4.372  0.1365  0.1751  0.2877
37871SOL     OW20727   1.283   9.050   5.384 -0.7663  0.0714  0.2851
37871SOL    HW120728   1.303   8.956   5.380 -0.9902  0.0428 -0.3244
37871SOL    HW220729   1.299   9.081   5.295 -1.7673  0.3883  0.1997
37872SOL     OW20730   9.628  12.278   1.625 -0.1168 -0.2947  0.4833
37872SOL    HW120731   9.556  12.332   1.593 -1.0410 -2.4927 -1.4169
37872SOL    HW220732   9.697  12.341   1.646 -1.7710  1.7296  0.1636
37873SOL     OW20733   0.392  11.540   6.676  0.5381  0.1794 -0.3661
37873SOL    HW120734   0.322  11.493   6.722  0.4870  1.0101  0.4458
37873SOL    HW220735   0.351  11.572   6.596  0.1156  0.2447 -0.1261
37874SOL     OW20736   4.119  11.869   3.187 -0.2428 -0.4795 -0.1551
37874SOL    HW120737   4.115  11.964   3.180  0.2174 -0.3291  1.2894
37874SOL    HW220738   4.190  11.844   3.127 -0.4397  0.0644 -0.6273
37875SOL     OW20739   3.025   6.851   0.221  0.4142  0.0632  0.0285
37875SOL    HW120740   2.997   6.869   0.132  0.9048 -0.8088 -0.3129
37875SOL    HW220741   2.944   6.850   0.272  0.1385  0.6154 -0.3858
37876SOL     OW20742  10.918   7.477   2.040  0.0414  0.9675 -0.6673
37876SOL    HW120743  10.949   7.400   1.993  1.8192  1.5209 -0.5086
37876SOL    HW220744  10.894   7.445   2.127 -0.3906  0.4159 -0.9895
37877SOL     OW20745   9.744   0.599  11.878 -0.1004  0.0057  0.5086
37877SOL    HW120746   9.831   0.574  11.846 -0.4642 -0.2770 -0.2868
37877SOL    HW220747   9.757   0.616  11.971  0.8716  0.2798  0.3331
37878SOL     OW20748   1.103  11.568  11.761 -0.1360 -0.3148  0.4921
37878SOL    HW120749   1.050  11.520  11.697  0.8291 -1.4147  0.4833
37878SOL    HW220750   1.064  11.546  11.846  0.2266 -1.0432  0.4793
37879SOL     OW20751   1.554   4.574   0.421  0.8209  0.1138  0.2937
37879SOL    HW120752   1.482   4.618   0.468  1.7576  0.3938  1.5278
37879SOL    HW220753   1.513   4.499   0.379 -0.5404  1.2796 -0.5826
37880SOL     OW20754   7.076   3.213   4.125 -0.3850 -0.4095  0.1435
37880SOL    HW120755   7.053   3.200   4.218  1.1488 -1.4626  0.4090
37880SOL    HW220756   7.172   3.211   4.124 -0.3865 -0.3508 -1.4656
37881SOL     OW20757   2.605   8.401   8.832 -0.0752 -0.0540 -0.5007
37881SOL    HW120758   2.560   8.461   8.772 -0.6357 -0.9621 -1.0147
37881SOL    HW220759   2.683   8.373   8.784  0.8868  1.2204  0.2398
37882SOL     OW20760   1.963   7.414  11.992 -0.5652  0.7481 -0.2778
37882SOL    HW120761   1.956   7.344  11.928  0.9875  1.1754 -0.9547
37882SOL    HW220762   2.021   7.479  11.950  0.3584  1.1087  1.4912
37883SOL     OW20763  11.291   6.893  12.422 -0.1201 -0.2527 -0.2248
37883SOL    HW120764  11.217   6.850  12.379 -0.5323  0.4627 -0.2430
37883SOL    HW220765  11.315   6.964  12.363 -1.0455  1.0850  0.9363
37884SOL     OW20766   9.934  10.591   6.884 -0.1896  0.5000 -0.6936
37884SOL    HW120767   9.851  10.626   6.915  0.3954  1.2379  0.1140
37884SOL    HW220768   9.970  10.661   6.828  0.2544  0.5405 -0.3688
37885SOL     OW20769   8.075   5.828   7.480 -0.3173  0.0964 -0.4209
37885SOL    HW120770   8.031   5.893   7.535 -0.2890 -1.0046  0.9643
37885SOL    HW220771   8.143   5.878   7.434 -0.5166  1.1128  0.3429
37886SOL     OW20772   9.980  10.885   5.881 -0.5928  0.0090 -0.5102
37886SOL    HW120773   9.907  10.885   5.819 -1.4908  0.8131  0.5133
37886SOL    HW220774   9.965  10.962   5.936  1.5548  0.7420 -0.8616
37887SOL     OW20775   7.895  12.155   6.289 -0.3047 -0.0952 -0.1492
37887SOL    HW120776   7.859  12.072   6.258 -1.1037 -0.2138  1.0160
37887SOL    HW220777   7.832  12.221   6.260 -0.6972 -0.1319  0.5883
37888SOL     OW20778  12.897   1.309   0.607  0.2664 -0.0597 -0.1144
37888SOL    HW120779  12.944   1.280   0.685 -0.0850 -1.2493 -0.3324
37888SOL    HW220780  12.858   1.393   0.633  1.6928  0.4926  0.3739
37889SOL     OW20781   2.015   7.474   1.369  0.6651  0.0943  0.0722
37889SOL    HW120782   1.946   7.461   1.305  0.6495 -0.8462  0.2636
37889SOL    HW220783   1.970   7.475   1.453  0.7783  0.4769  0.1306
37890SOL     OW20784   4.319   4.392   5.016  0.5219  0.4131  0.2933
37890SOL    HW120785   4.236   4.386   4.969  0.7950 -0.4494 -0.1063
37890SOL    HW220786   4.385   4.363   4.952  0.8353 -1.3918  1.3714
37891SOL     OW20787   8.289  10.131   2.341  0.0658  0.6100 -0.2817
37891SOL    HW120788   8.383  10.117   2.329 -0.1486 -1.9540  0.5219
37891SOL    HW220789   8.279  10.141   2.436 -0.4829  0.9497 -0.3722
37892SOL     OW20790   5.779  10.726   6.360  0.1133 -0.0198 -0.3497
37892SOL    HW120791   5.718  10.715   6.287  0.1085 -1.7857 -0.1368
37892SOL    HW220792   5.723  10.732   6.438  0.1389  1.1877 -0.4153
37893SOL     OW20793   0.284   6.765  10.179 -0.3181 -0.3228 -0.2952
37893SOL    HW120794   0.201   6.720  10.162 -0.2161 -0.4926 -0.3479
37893SOL    HW220795   0.301   6.749  10.272 -1.9198  2.3398  0.5619
37894SOL     OW20796   0.433   8.437   0.074  0.7349 -0.0860 -0.7257
37894SOL    HW120797   0.420   8.511   0.016 -2.6545 -0.8324 -1.1054
37894SOL    HW220798   0.487   8.376   0.023  2.7945  1.6297 -0.7359
37895SOL     OW20799   2.716   2.171  10.255  0.0351  0.0688 -0.5956
37895SOL    HW120800   2.764   2.202  10.331  0.8151  1.9747 -1.7774
37895SOL    HW220801   2.762   2.210  10.180 -1.3361 -0.8389 -1.9769
37896SOL     OW20802   5.230   0.130   9.886  0.1213  0.0990  0.4230
37896SOL    HW120803   5.280   0.124   9.804  0.5623 -0.2300  0.7153
37896SOL    HW220804   5.145   0.091   9.865  0.7897 -1.5331  0.5578
37897SOL     OW20805   8.124   9.127  11.771 -0.3968 -0.1779 -0.8766
37897SOL    HW120806   8.150   9.103  11.860  0.0109 -1.9225 -1.4294
37897SOL    HW220807   8.173   9.067  11.715 -1.3362  0.2837 -2.2384
37898SOL     OW20808   2.029   8.215   7.570  0.0011  0.0477  0.5956
37898SOL    HW120809   2.023   8.126   7.537 -0.1102  0.0671  0.5623
37898SOL    HW220810   2.123   8.232   7.578  0.0739  0.3681 -0.6266
37899SOL     OW20811   3.205   2.888   0.541 -0.3118 -0.1074  0.2166
37899SOL    HW120812   3.176   2.798   0.526 -2.1239  0.4127  0.4612
37899SOL    HW220813   3.289   2.878   0.587 -0.0465 -1.6495 -0.5118
37900SOL     OW20814   8.703   4.838   3.072 -0.0686  0.8542  0.5457
37900SOL    HW120815   8.652   4.894   3.013  0.1014 -0.0239 -0.4612
37900SOL    HW220816   8.637   4.781   3.112  0.1424 -0.6436 -1.1595
37901SOL     OW20817   1.590   1.620   2.253 -0.0075  0.0781  0.7768
37901SOL    HW120818   1.519   1.618   2.318 -1.2759 -0.3745 -0.5760
37901SOL    HW220819   1.558   1.677   2.184  0.4627 -1.0346 -0.3942
37902SOL     OW20820   9.237   7.610  11.021 -0.0524  0.4647 -0.1709
37902SOL    HW120821   9.220   7.588  11.112 -1.7669  1.8704 -0.0931
37902SOL    HW220822   9.283   7.693  11.024  1.8510 -0.5283 -0.5740
37903SOL     OW20823   5.781   5.904   5.238  0.1840 -0.6009  0.5216
37903SOL    HW120824   5.828   5.839   5.187 -0.6643 -1.4668  0.8076
37903SOL    HW220825   5.849   5.956   5.280  0.8977  0.1030 -1.4210
37904SOL     OW20826   9.308   7.726   3.470  0.4365 -0.1334  0.0569
37904SOL    HW120827   9.247   7.779   3.521  1.1035  0.8268 -0.1081
37904SOL    HW220828   9.311   7.642   3.515  1.2477  0.7893  1.8098
37905SOL     OW20829   8.495   6.224   5.021 -0.5197  0.2089 -0.4725
37905SOL    HW120830   8.555   6.236   5.094 -1.0264  0.7235 -0.1404
37905SOL    HW220831   8.429   6.164   5.054 -0.2389 -0.3018 -0.8162
37906SOL     OW20832   9.371   4.122   6.076  0.0525 -0.4398  0.1633
37906SOL    HW120833   9.381   4.214   6.099  0.4051 -0.6036  0.6690
37906SOL    HW220834   9.408   4.074   6.150  2.0250 -0.9635 -1.0838
37907SOL     OW20835   7.837   0.609   7.855 -0.1739  0.5980  1.0439
37907SOL    HW120836   7.787   0.684   7.822  1.6211  1.3054 -0.2202
37907SOL    HW220837   7.927   0.640   7.858  0.2976 -0.8116  2.7596
37908SOL     OW20838  12.144   4.377   3.298 -0.1641  0.3402 -0.1535
37908SOL    HW120839  12.233   4.411   3.313 -0.0502  0.0568 -0.1891
37908SOL    HW220840  12.151   4.328   3.216 -1.0518  2.8812 -1.8661
37909SOL     OW20841   7.401   8.007   0.512  0.0463 -0.0974 -0.5359
37909SOL    HW120842   7.383   7.995   0.605  1.0285 -0.2891 -0.3547
37909SOL    HW220843   7.315   8.020   0.472 -0.3524  0.3932  0.4507
37910SOL     OW20844   9.035   0.914   2.093  0.0477 -0.6060  0.0155
37910SOL    HW120845   9.043   0.973   2.018 -0.6654  0.7498  0.9527
37910SOL    HW220846   8.941   0.912   2.112 -0.0601 -2.7466 -0.4935
37911SOL     OW20847   1.007   2.187   7.592 -0.0820 -0.2105 -0.9456
37911SOL    HW120848   1.102   2.199   7.596 -0.2707  1.3263 -0.5063
37911SOL    HW220849   0.990   2.155   7.504  0.7920 -0.0090 -1.1929
37912SOL     OW20850   8.806   9.801   0.170  0.5573 -0.1461 -0.0004
37912SOL    HW120851   8.777   9.711   0.152 -1.1972  0.4784 -0.5315
37912SOL    HW220852   8.865   9.792   0.245 -1.8157 -1.4851  1.8877
37913SOL     OW20853   4.900   3.651   3.500 -0.5516 -0.0419 -0.0851
37913SOL    HW120854   4.942   3.568   3.480 -0.1363  0.5034 -1.6367
37913SOL    HW220855   4.965   3.698   3.553 -0.7222 -0.6203  0.6554
37914SOL     OW20856  12.956   6.735   8.772  0.1937  0.2395  0.6847
37914SOL    HW120857  12.995   6.676   8.708 -0.2568  0.5193  0.1479
37914SOL    HW220858  12.886   6.684   8.812 -1.6116  1.0598 -1.2774
37915SOL     OW20859   1.417   0.168   0.589  0.1769  0.0839  0.1691
37915SOL    HW120860   1.429   0.236   0.523  0.3385  0.7679  0.8811
37915SOL    HW220861   1.370   0.211   0.660  1.3537 -0.1827  1.1651
37916SOL     OW20862   8.711   7.333   9.121 -0.0490  0.4007 -0.4224
37916SOL    HW120863   8.680   7.272   9.054 -0.1351 -2.5744  2.0949
37916SOL    HW220864   8.634   7.352   9.174  0.5384  0.3773  0.4675
37917SOL     OW20865   4.870   8.796   6.380 -0.3233 -0.3199  0.6874
37917SOL    HW120866   4.909   8.850   6.448 -0.4365 -0.2305  0.6819
37917SOL    HW220867   4.812   8.855   6.332 -0.2242 -0.3758  0.4957
37918SOL     OW20868   4.640   8.387   0.519 -0.0830 -0.6431  0.3592
37918SOL    HW120869   4.561   8.405   0.468 -1.2893  0.0170  2.3719
37918SOL    HW220870   4.661   8.296   0.499 -1.9120 -1.1346  0.4822
37919SOL     OW20871   7.989   5.412   6.604 -0.7073 -0.3820 -0.6085
37919SOL    HW120872   7.943   5.330   6.622 -0.5701 -0.1756  0.7563
37919SOL    HW220873   7.971   5.429   6.511 -3.8926 -0.0135 -0.0514
37920SOL     OW20874   2.846   6.402   6.094  0.7479  0.0048  0.5211
37920SOL    HW120875   2.787   6.354   6.153  1.8776 -0.1906  1.5374
37920SOL    HW220876   2.861   6.342   6.021 -0.3697  0.0993  0.1929
37921SOL     OW20877   6.551   1.434   0.621  0.2415  0.9061 -0.0623
37921SOL    HW120878   6.508   1.393   0.695  2.2548  0.1070  0.7359
37921SOL    HW220879   6.590   1.514   0.657 -0.9711  1.9068 -0.8912
37922SOL     OW20880   7.556   0.320  10.883 -0.6750 -0.3144 -0.2506
37922SOL    HW120881   7.471   0.277  10.878  0.3912 -3.0121  1.9824
37922SOL    HW220882   7.555   0.364  10.968  0.2932 -0.7449 -0.0074
37923SOL     OW20883   5.462   9.517  10.545  0.0540 -0.6069  0.4433
37923SOL    HW120884   5.384   9.513  10.489  0.4944 -1.4503 -0.1537
37923SOL    HW220885   5.529   9.556  10.489  0.1376 -0.1657  0.8515
37924SOL     OW20886   2.945   5.819   4.897 -0.1790 -1.0817 -0.4338
37924SOL    HW120887   2.968   5.909   4.920 -1.0637 -0.2991 -2.3727
37924SOL    HW220888   2.972   5.767   4.973  0.1698  0.8252  0.8158
37925SOL     OW20889   1.910   3.254   1.258  0.8494  0.1315  0.1984
37925SOL    HW120890   1.898   3.197   1.334  1.2901  0.7065  0.7201
37925SOL    HW220891   1.881   3.340   1.288 -1.2531 -0.0921 -1.0593
37926SOL     OW20892   5.549   1.351  12.446  0.0038 -0.0365  0.0831
37926SOL    HW120893   5.471   1.304  12.476  0.6810 -1.1669  0.1157
37926SOL    HW220894   5.620   1.288  12.455  1.1980  1.3952  1.3690
37927SOL     OW20895   2.082   4.756   2.289 -0.6120  0.0805  0.4575
37927SOL    HW120896   2.129   4.784   2.368  1.4403 -1.4047 -0.1594
37927SOL    HW220897   2.074   4.836   2.237 -0.8392  0.8212  1.5725
37928SOL     OW20898   0.106   6.781   6.268 -0.5209 -0.0587  0.1752
37928SOL    HW120899   0.040   6.795   6.335 -0.3850 -0.5040  0.4048
37928SOL    HW220900   0.154   6.865   6.264 -1.0942  0.2632  0.0024
37929SOL     OW20901  12.156   6.323   2.750  0.2519  0.2770  0.0530
37929SOL    HW120902  12.190   6.397   2.801  0.0606 -0.1298  0.7891
37929SOL    HW220903  12.186   6.246   2.799 -0.1391 -0.1153 -0.3256
37930SOL     OW20904   4.218   9.976   3.678  0.8277 -0.2106 -0.4342
37930SOL    HW120905   4.265   9.980   3.761  0.6385  2.1332 -0.3588
37930SOL    HW220906   4.183  10.065   3.667 -3.2609 -1.6478 -0.6727
37931SOL     OW20907   2.236   0.986  11.748 -0.3615  0.0854 -0.3017
37931SOL    HW120908   2.295   1.061  11.751  0.2313 -0.3419 -1.0277
37931SOL    HW220909   2.204   0.985  11.658 -0.1208 -0.7206 -0.3801
37932SOL     OW20910   0.275   1.667   8.243  0.2192 -0.6535  0.1364
37932SOL    HW120911   0.232   1.702   8.321  1.4764 -0.1069  0.6127
37932SOL    HW220912   0.314   1.743   8.200  1.0617 -1.1762 -0.0490
37933SOL     OW20913   8.413   0.198   0.831 -0.5668  0.4799 -0.0312
37933SOL    HW120914   8.454   0.280   0.804 -0.0748  0.2217 -0.0821
37933SOL    HW220915   8.343   0.184   0.768 -0.0290  0.3646 -0.6116
37934SOL     OW20916   1.157   2.727  10.433 -0.8348  0.6815  0.4338
37934SOL    HW120917   1.236   2.759  10.477 -1.4337  2.1906  0.4556
37934SOL    HW220918   1.093   2.715  10.504 -1.0618  0.8254  0.2566
37935SOL     OW20919   1.145   5.099   9.680 -0.0980 -0.4417  0.1675
37935SOL    HW120920   1.155   5.020   9.627 -0.5979 -0.2215 -0.2700
37935SOL    HW220921   1.077   5.150   9.634  0.2355  0.2501  0.4241
37936SOL     OW20922   9.767   4.693   9.118  0.4502 -0.1028  0.1560
37936SOL    HW120923   9.803   4.780   9.104  2.6781 -1.1648 -1.4623
37936SOL    HW220924   9.814   4.659   9.194 -0.5475  0.1300  0.9008
37937SOL     OW20925   1.711   0.651  12.156 -0.1256  0.9730  0.1282
37937SOL    HW120926   1.770   0.724  12.139  2.0191 -0.8096 -0.4727
37937SOL    HW220927   1.765   0.584  12.199 -1.3681 -1.2098 -1.4724
37938SOL     OW20928   3.490   3.546   3.137 -0.6355  0.2409  0.8404
37938SOL    HW120929   3.497   3.627   3.187  2.4582  1.2091 -0.8802
37938SOL    HW220930   3.429   3.567   3.066 -1.0260  0.5316  1.2565
37939SOL     OW20931   8.242   2.331   5.101 -0.0583 -0.2612  0.1931
37939SOL    HW120932   8.287   2.260   5.055  0.8347  0.1576  0.4006
37939SOL    HW220933   8.216   2.392   5.032 -1.5558 -1.1691 -0.0743
37940SOL     OW20934  12.946   8.364  12.954 -0.0717 -0.2038 -0.4762
37940SOL    HW120935  12.850   8.365  12.954 -0.0848 -0.9956  0.0278
37940SOL    HW220936  12.970   8.346  13.044  0.5746  0.8108 -0.4405
37941SOL     OW20937  10.344   7.925  12.155 -0.4339 -0.5594 -0.3249
37941SOL    HW120938  10.267   7.981  12.154 -0.7356 -0.8671 -3.0095
37941SOL    HW220939  10.397   7.956  12.081  1.6414 -0.8932  0.9351
37942SOL     OW20940   2.276   7.950   7.558  0.1750  0.4231  0.0627
37942SOL    HW120941   2.188   7.956   7.593  0.0733  1.9555 -0.3719
37942SOL    HW220942   2.267   7.897   7.479 -0.4265  0.8097 -0.1358
37943SOL     OW20943   8.155   9.432   5.985 -0.2317  0.1801 -0.4204
37943SOL    HW120944   8.087   9.366   5.975 -1.5414  0.9915  2.0882
37943SOL    HW220945   8.123   9.507   5.934  0.1412 -0.3370 -1.4321
37944SOL     OW20946  12.904   8.009   7.262 -0.1338 -0.1068 -0.1516
37944SOL    HW120947  12.944   8.084   7.220  1.2457 -0.3038  0.7567
37944SOL    HW220948  12.871   7.955   7.190  1.8867 -0.2900 -1.0035
37945SOL     OW20949   3.895   6.131  12.450 -0.2783  0.4928 -0.0521
37945SOL    HW120950   3.871   6.039  12.456 -2.0825  0.7842 -1.6380
37945SOL    HW220951   3.984   6.135  12.485  0.1577 -1.9727 -0.6571
37946SOL     OW20952   6.852  10.349  12.499 -0.0974 -0.2866  0.1802
37946SOL    HW120953   6.802  10.331  12.579 -0.2769 -0.8295 -0.0495
37946SOL    HW220954   6.943  10.345  12.526 -0.1624 -0.0708  0.4406
37947SOL     OW20955   9.147  12.143   2.441 -0.2426  0.5394  0.1397
37947SOL    HW120956   9.180  12.074   2.498 -1.5951  0.0824  0.4166
37947SOL    HW220957   9.216  12.209   2.440  1.2284 -0.9310 -0.3847
37948SOL     OW20958   8.782   3.122   1.095 -0.0589 -0.5709 -0.3848
37948SOL    HW120959   8.869   3.099   1.128 -0.6964  0.2245  2.1175
37948SOL    HW220960   8.785   3.217   1.084 -0.3968 -0.6302 -1.0313
37949SOL     OW20961   5.995  10.459   9.264  0.1105  0.1411  0.4672
37949SOL    HW120962   6.041  10.527   9.312  0.5016  0.3077 -0.1354
37949SOL    HW220963   5.924  10.505   9.219 -0.3502 -0.0382  0.9922
37950SOL     OW20964   2.058   0.538   5.559  0.1721 -0.7809  0.1577
37950SOL    HW120965   2.125   0.604   5.580  0.1584 -0.5634 -0.4632
37950SOL    HW220966   2.021   0.514   5.643  1.1950 -1.0716  0.5454
37951SOL     OW20967  11.945   5.504   7.039  0.1541  0.8243 -0.2507
37951SOL    HW120968  11.956   5.514   7.134 -0.3194 -0.1989 -0.0754
37951SOL    HW220969  12.012   5.561   7.001  0.4793  1.0977  0.7012
37952SOL     OW20970   1.098   2.559   4.515 -0.3779 -0.1284  0.0607
37952SOL    HW120971   1.042   2.588   4.587 -1.0627  0.6641 -0.7826
37952SOL    HW220972   1.186   2.586   4.542 -0.4427 -0.9237  1.1502
37953SOL     OW20973   6.854  11.783   1.906  0.3926  0.4574 -0.2407
37953SOL    HW120974   6.791  11.853   1.887 -1.2850 -0.8538  0.2392
37953SOL    HW220975   6.911  11.820   1.974  1.3782  2.3263 -1.9929
37954SOL     OW20976  11.299   9.205   7.938  0.8841  0.3690 -0.1525
37954SOL    HW120977  11.382   9.249   7.917  1.5705 -1.2615 -1.1244
37954SOL    HW220978  11.266   9.251   8.014  2.0210  1.9205 -0.5405
37955SOL     OW20979   4.750   1.502   6.891  0.4416  0.2575 -0.5988
37955SOL    HW120980   4.844   1.520   6.893  0.6004 -0.5608 -0.0011
37955SOL    HW220981   4.740   1.438   6.820  0.2942  0.5450 -0.8393
37956SOL     OW20982   4.284   5.125   5.539  0.2669  0.1185 -0.5176
37956SOL    HW120983   4.330   5.075   5.607  0.2069 -0.9801 -1.2601
37956SOL    HW220984   4.192   5.115   5.561  0.2368 -0.4099 -0.8606
37957SOL     OW20985   0.124   1.433   8.154 -0.7309  0.1799 -0.6545
37957SOL    HW120986   0.084   1.398   8.234 -0.9542 -0.7350 -1.1595
37957SOL    HW220987   0.158   1.519   8.181 -0.8959 -0.0633  0.3957
37958SOL     OW20988   6.217   4.973   3.789  0.0338  0.0849 -0.5256
37958SOL    HW120989   6.125   4.993   3.776  0.3117  0.7511 -1.6384
37958SOL    HW220990   6.231   4.983   3.883 -0.8482  0.7370 -0.4528
37959SOL     OW20991   0.982   9.530   2.268  0.2266  0.6125  0.4059
37959SOL    HW120992   0.946   9.507   2.182  1.0757 -0.3549  0.2965
37959SOL    HW220993   1.076   9.522   2.258  0.3266  0.0568  1.5397
37960SOL     OW20994   3.464   4.325   7.753 -0.0907 -0.6122  0.2663
37960SOL    HW120995   3.487   4.328   7.846  0.4999 -1.2097  0.1442
37960SOL    HW220996   3.521   4.258   7.716 -1.1100 -1.1967 -0.3095
37961SOL     OW20997   0.343   3.089  11.233 -0.8424 -0.3752 -0.4916
37961SOL    HW120998   0.412   3.112  11.170 -0.1857 -2.9750 -0.8278
37961SOL    HW220999   0.269   3.063  11.178 -1.3894  0.3684 -0.1297
37962SOL     OW21000   2.818  12.659   9.358 -0.0962  0.5185  0.1407
37962SOL    HW121001   2.735  12.702   9.376 -0.5047  0.3617 -1.2525
37962SOL    HW221002   2.798  12.565   9.357  0.0172  0.4942 -0.5171
37963SOL     OW21003  12.751   7.533  12.194 -0.4819 -0.5519 -0.2033
37963SOL    HW121004  12.695   7.457  12.175 -0.8270  0.3620 -3.3788
37963SOL    HW221005  12.827   7.522  12.137 -0.4131  1.3324 -0.5323
37964SOL     OW21006   6.933   2.194   9.915 -0.0357 -0.5083  0.6421
37964SOL    HW121007   6.986   2.265   9.951 -0.7775 -0.1642  1.0829
37964SOL    HW221008   6.993   2.120   9.908  0.9113  0.3112 -0.3739
37965SOL     OW21009  10.628   9.439  10.374 -0.0113 -0.0841 -0.0564
37965SOL    HW121010  10.560   9.429  10.308 -0.0550 -0.4933  0.0484
37965SOL    HW221011  10.710   9.438  10.326  0.0301 -1.7139  0.0145
37966SOL     OW21012   7.231   8.203   0.937 -0.3390  0.1342  0.0556
37966SOL    HW121013   7.169   8.168   1.001 -1.2086  0.2463 -0.6988
37966SOL    HW221014   7.198   8.290   0.917  0.0332  0.1720 -0.4096
37967SOL     OW21015   8.098   8.459   9.283 -0.0089 -0.0091  0.2429
37967SOL    HW121016   8.079   8.365   9.288 -0.8900  0.0130 -1.7264
37967SOL    HW221017   8.179   8.470   9.334 -0.5115 -1.6084  1.4866
37968SOL     OW21018   0.731   0.397  11.939 -0.1583  0.5639  0.3875
37968SOL    HW121019   0.809   0.406  11.995 -1.7888 -1.0535  3.1135
37968SOL    HW221020   0.745   0.315  11.893  0.8289  1.5224 -1.1333
37969SOL     OW21021   2.498   8.615   7.355  0.3232 -0.7697  0.8333
37969SOL    HW121022   2.430   8.577   7.299 -2.2507 -0.0776  3.3023
37969SOL    HW221023   2.500   8.707   7.331 -0.1397 -0.6533  1.2224
37970SOL     OW21024  11.425  10.450   1.330  0.6833  0.8805  0.8249
37970SOL    HW121025  11.367  10.460   1.406 -1.2006 -0.0668 -0.4075
37970SOL    HW221026  11.456  10.539   1.312 -0.5981  1.4720  1.3794
37971SOL     OW21027   3.894   5.503   6.706 -0.0099 -0.1676  0.7835
37971SOL    HW121028   3.801   5.518   6.691 -0.2198 -1.7877  0.3186
37971SOL    HW221029   3.916   5.559   6.781 -1.3328  0.2593  0.8663
37972SOL     OW21030   0.210   9.773   1.246  0.1186 -0.3611 -0.6062
37972SOL    HW121031   0.250   9.855   1.274 -0.1884 -0.7846  1.2022
37972SOL    HW221032   0.138   9.799   1.188 -0.1860  0.6751  0.2137
37973SOL     OW21033   8.858   0.666  12.374 -0.4400  0.0971  0.1857
37973SOL    HW121034   8.819   0.682  12.288  2.4931  0.1910 -1.2295
37973SOL    HW221035   8.872   0.571  12.378 -0.6834  0.0749  0.6340
37974SOL     OW21036   8.100  12.016   2.506 -0.0197  0.3829 -0.0461
37974SOL    HW121037   8.086  12.044   2.416 -0.6156 -0.3857 -0.1952
37974SOL    HW221038   8.028  11.955   2.525  1.1509 -0.9348  0.3188
37975SOL     OW21039   5.355  10.384   1.494  0.2662 -0.7363  0.0622
37975SOL    HW121040   5.312  10.361   1.577  0.3045 -1.1234 -0.0241
37975SOL    HW221041   5.369  10.301   1.450  3.5254 -0.9328  1.2391
37976SOL     OW21042  11.365   3.897   1.219 -0.0368  0.2664 -0.2580
37976SOL    HW121043  11.400   3.938   1.298  0.4507  1.1106 -0.8924
37976SOL    HW221044  11.418   3.934   1.148 -1.2192  0.4015 -1.0899
37977SOL     OW21045   0.997   1.653   0.303  0.5874 -0.3405 -0.1236
37977SOL    HW121046   0.924   1.627   0.247 -0.3429 -1.5579  1.5595
37977SOL    HW221047   1.061   1.692   0.244 -0.8467 -0.4916 -1.8345
37978SOL     OW21048   6.306   3.345   0.503  0.4423  0.1000  0.2279
37978SOL    HW121049   6.347   3.264   0.473 -1.1095 -0.9659  0.8740
37978SOL    HW221050   6.349   3.414   0.451  0.3953 -1.3169 -1.8242
37979SOL     OW21051   8.630  11.896   1.781  0.3172 -0.0073 -0.4059
37979SOL    HW121052   8.713  11.914   1.825  0.1182 -0.0886  0.0068
37979SOL    HW221053   8.565  11.901   1.850  0.1913 -1.8679 -0.3258
37980SOL     OW21054   6.943   3.871  10.467 -0.3006  0.3745  0.7212
37980SOL    HW121055   6.919   3.879  10.559 -0.9792  0.0948  0.5773
37980SOL    HW221056   6.994   3.790  10.462 -2.6141 -1.1687  0.4317
37981SOL     OW21057   1.415   1.584   0.183  0.3023 -0.2148  0.0525
37981SOL    HW121058   1.496   1.578   0.133 -0.2882  0.0307 -0.9603
37981SOL    HW221059   1.431   1.652   0.248  0.7035  0.2540 -0.5372
37982SOL     OW21060   8.405   5.839   6.541  0.3589 -1.0707  0.1919
37982SOL    HW121061   8.382   5.905   6.477  0.3356 -2.3363 -1.1589
37982SOL    HW221062   8.358   5.865   6.621 -1.4775 -0.6774 -0.9615
37983SOL     OW21063   3.272   3.816   3.407 -0.5418  0.2337  0.8885
37983SOL    HW121064   3.269   3.784   3.317  0.4796  0.0408  0.9031
37983SOL    HW221065   3.310   3.904   3.399 -0.0580  0.0532  1.1599
37984SOL     OW21066   1.402   0.860   2.776 -0.0120 -0.3265 -0.1009
37984SOL    HW121067   1.414   0.765   2.777 -1.7104 -0.5736 -0.6882
37984SOL    HW221068   1.478   0.893   2.728  0.0535 -1.4816 -0.8188
37985SOL     OW21069  12.813  11.031   5.671 -0.4871 -0.5757  0.6950
37985SOL    HW121070  12.854  11.019   5.757  0.9193 -0.1785  0.1041
37985SOL    HW221071  12.734  11.083   5.689 -0.0215 -0.1912  1.7065
37986SOL     OW21072   3.862   9.539   5.513  0.6746  0.4806  0.1849
37986SOL    HW121073   3.953   9.527   5.539  0.7755 -0.0587 -0.3934
37986SOL    HW221074   3.828   9.603   5.576  0.8655 -0.8465  1.7171
37987SOL     OW21075   3.683  12.968   0.760 -0.3283  0.3157 -0.6288
37987SOL    HW121076   3.618  13.037   0.774 -0.5599 -0.2320  1.3162
37987SOL    HW221077   3.644  12.912   0.693 -2.1413 -0.2554  0.8145
37988SOL     OW21078   7.988   2.713   3.323 -0.1631  0.7417 -0.0096
37988SOL    HW121079   7.934   2.672   3.390 -0.1521  0.4952 -0.1533
37988SOL    HW221080   7.993   2.649   3.253 -1.7718  1.7023 -1.0758
37989SOL     OW21081  10.181   3.778   2.274 -0.4543  0.4683  0.2837
37989SOL    HW121082  10.144   3.854   2.229  0.6172  0.9123  0.1097
37989SOL    HW221083  10.276   3.792   2.270 -0.2520 -0.7333  0.5129
37990SOL     OW21084   4.909   5.142   2.322  0.1807  0.4617 -0.3280
37990SOL    HW121085   4.906   5.046   2.322  0.7261  0.4181 -2.2413
37990SOL    HW221086   4.842   5.167   2.386  0.8183 -1.1863  1.0791
37991SOL     OW21087  11.711   0.013   3.274 -0.3391 -0.3816 -0.0543
37991SOL    HW121088  11.650   0.078   3.240  0.3039  0.0180 -0.4761
37991SOL    HW221089  11.719  -0.053   3.205  1.6965  0.9153 -1.1733
37992SOL     OW21090   1.077   8.139   9.208 -0.1839  0.3869  0.8303
37992SOL    HW121091   0.997   8.126   9.259 -1.2580 -0.5765 -0.9954
37992SOL    HW221092   1.085   8.235   9.201 -2.1785  0.5281 -0.3518
37993SOL     OW21093   8.915   1.044   1.435  0.0842  0.5127  0.3001
37993SOL    HW121094   8.956   0.984   1.372  1.9342 -0.1953  2.0494
37993SOL    HW221095   8.971   1.038   1.512 -1.2088  2.5353  1.4656
37994SOL     OW21096  10.197   8.542  12.890  0.0578 -0.4310 -0.9931
37994SOL    HW121097  10.209   8.521  12.798  2.1545  2.0957 -1.3956
37994SOL    HW221098  10.285   8.539  12.928 -0.4431  0.8357  0.3830
37995SOL     OW21099  10.804   5.497   5.072  0.1371 -0.0796 -0.4665
37995SOL    HW121100  10.723   5.507   5.122 -0.1494 -1.6749 -0.5442
37995SOL    HW221101  10.834   5.408   5.092  0.8684 -0.1835 -1.8747
37996SOL     OW21102   3.321   4.635   1.701 -0.3533 -0.1963  0.1050
37996SOL    HW121103   3.244   4.651   1.756 -0.9022  0.1380 -0.7381
37996SOL    HW221104   3.393   4.677   1.749 -0.3060 -2.1259  1.8388
37997SOL     OW21105   0.616  12.474   5.407  0.7553 -0.2311  0.3523
37997SOL    HW121106   0.618  12.379   5.407 -1.2358 -0.3192  0.9264
37997SOL    HW221107   0.527  12.496   5.379  1.6355  1.5046 -1.3275
37998SOL     OW21108   4.211   9.353   2.395 -0.1237  0.4402  0.0704
37998SOL    HW121109   4.132   9.386   2.352  0.0397 -0.1598 -0.7324
37998SOL    HW221110   4.200   9.375   2.487 -3.3041 -3.2977  0.8701
37999SOL     OW21111   5.567   6.874   2.873  0.7664  0.2300 -0.9756
37999SOL    HW121112   5.656   6.843   2.858 -0.0121 -2.8884 -0.0676
37999SOL    HW221113   5.548   6.847   2.963 -1.2328  0.3694 -1.3168
38000SOL     OW21114  12.202   5.135   8.450  0.1660  0.1225 -0.3317
38000SOL    HW121115  12.257   5.083   8.392  1.0459  0.9438 -0.2489
38000SOL    HW221116  12.175   5.210   8.398 -0.2791  0.1033 -0.1378
38001SOL     OW21117  11.653   8.120  12.612  0.1233 -0.2363  0.2065
38001SOL    HW121118  11.718   8.063  12.571 -0.6982 -1.1492  0.1257
38001SOL    HW221119  11.650   8.091  12.704  2.1163  1.9424  1.0690
38002SOL     OW21120   3.642   5.605   6.640  0.3474 -0.0198  0.0084
38002SOL    HW121121   3.687   5.668   6.583  1.1134 -0.3244  0.2614
38002SOL    HW221122   3.563   5.581   6.592  0.7129  0.1373 -0.6811
38003SOL     OW21123   1.226   1.956   3.864  0.1116  0.2347 -0.3794
38003SOL    HW121124   1.315   1.973   3.895  0.1664  1.9667 -1.3595
38003SOL    HW221125   1.199   1.876   3.910  1.3753  0.8397  1.5289
38004SOL     OW21126   7.055   6.063   4.557 -0.1274 -0.3289  0.5331
38004SOL    HW121127   6.971   6.023   4.579  0.2107 -0.9646  0.6905
38004SOL    HW221128   7.119   6.013   4.607  0.3533  0.0888  0.3392
38005SOL     OW21129   3.742   8.324   7.605 -0.2629 -0.1959 -0.1766
38005SOL    HW121130   3.811   8.262   7.631 -0.5612 -0.7897 -0.7500
38005SOL    HW221131   3.785   8.384   7.545 -0.1246 -0.2731 -0.1552
38006SOL     OW21132   2.198   7.892  12.719 -0.0588 -0.2501 -0.1948
38006SOL    HW121133   2.134   7.950  12.760  2.1274  2.5817 -0.5493
38006SOL    HW221134   2.208   7.926  12.630  2.9070  0.3402  0.2622
38007SOL     OW21135  10.843   5.893   8.771  0.4986 -0.0205 -0.6736
38007SOL    HW121136  10.779   5.931   8.831  1.4473 -2.3363  2.0342
38007SOL    HW221137  10.926   5.932   8.797  1.1829 -2.2722  0.8685
38008SOL     OW21138   1.075   3.476  11.112 -0.7620 -0.2624 -0.1945
38008SOL    HW121139   1.040   3.411  11.172 -1.8476  0.5382  0.0783
38008SOL    HW221140   1.147   3.432  11.067  1.3450 -0.3543  2.9803
38009SOL     OW21141   1.469  12.380   6.911 -0.0617 -0.1357 -0.2563
38009SOL    HW121142   1.408  12.345   6.976 -0.1052 -1.0020 -0.7568
38009SOL    HW221143   1.441  12.342   6.828  1.6849 -1.3044 -0.3750
38010SOL     OW21144   5.769   4.355  12.031 -0.1233 -0.4167 -0.1050
38010SOL    HW121145   5.769   4.261  12.049  0.0276 -0.5469 -0.7423
38010SOL    HW221146   5.680   4.374  12.001  0.1762 -0.6058 -1.1555
38011SOL     OW21147   3.786   0.290   0.114  0.0572 -0.3320 -0.0339
38011SOL    HW121148   3.847   0.340   0.060  0.7398 -0.1219  0.8977
38011SOL    HW221149   3.808   0.199   0.097 -0.5364 -0.3104 -0.9990
38012SOL     OW21150   2.731   3.466   1.226 -0.1332  0.1247 -0.0880
38012SOL    HW121151   2.807   3.521   1.248  0.7380 -1.1691  0.2845
38012SOL    HW221152   2.768   3.394   1.175 -1.3550  0.2471 -1.1853
38013SOL     OW21153   2.516   4.924   3.802  0.6163 -0.5958  0.1468
38013SOL    HW121154   2.561   4.937   3.719  1.9560 -1.1987  0.7521
38013SOL    HW221155   2.585   4.902   3.864 -0.4709 -1.1669  1.2038
38014SOL     OW21156   3.546   3.484   1.487 -0.0290  0.4507 -0.3317
38014SOL    HW121157   3.613   3.521   1.430 -1.0808  0.0357 -1.9097
38014SOL    HW221158   3.567   3.518   1.574  0.8731  2.1926 -1.1739
38015SOL     OW21159   8.174   1.431   1.940 -0.4722 -0.1060 -0.2750
38015SOL    HW121160   8.258   1.478   1.941 -0.9889  0.9447 -1.8573
38015SOL    HW221161   8.157   1.414   1.847 -2.5954  0.8644 -0.1397
38016SOL     OW21162   9.378   7.705   8.747 -0.0692 -0.2479 -0.5595
38016SOL    HW121163   9.305   7.721   8.686  0.2183  0.5293 -0.7056
38016SOL    HW221164   9.380   7.782   8.802 -0.8304 -1.2873  0.9914
38017SOL     OW21165  12.640   4.187  10.644 -0.2566  0.1205  0.3827
38017SOL    HW121166  12.556   4.217  10.609  0.2660  1.9770  0.6529
38017SOL    HW221167  12.652   4.101  10.604 -1.6753  0.3625 -0.6611
38018SOL     OW21168   1.481   2.461   6.142 -0.1234 -0.5007 -0.1178
38018SOL    HW121169   1.562   2.432   6.101  0.3869 -1.2127  1.3095
38018SOL    HW221170   1.448   2.384   6.188 -0.4580  0.3201  1.0848
38019SOL     OW21171   5.450   6.101   8.381 -0.1391  0.7732 -0.0518
38019SOL    HW121172   5.534   6.086   8.425 -0.8513  0.4331  1.2342
38019SOL    HW221173   5.468   6.081   8.289  1.0244  0.0796  0.2991
38020SOL     OW21174   4.616   9.193  10.874  0.2880  0.0922 -0.0076
38020SOL    HW121175   4.580   9.262  10.930 -0.8418  0.4412 -1.1363
38020SOL    HW221176   4.644   9.125  10.935  0.0967  0.9302  1.0440
38021SOL     OW21177   8.951   4.862   5.504  0.9596 -0.3888  1.0672
38021SOL    HW121178   9.003   4.798   5.456  0.2373 -0.4255  0.3270
38021SOL    HW221179   8.948   4.828   5.594  0.4947 -1.4490  0.6596
38022SOL     OW21180  11.634   1.328  12.471  0.0791  0.0410 -0.0845
38022SOL    HW121181  11.642   1.374  12.387  0.5398  1.2152  0.5699
38022SOL    HW221182  11.618   1.398  12.535 -1.3586 -0.9344  0.6655
38023SOL     OW21183   4.602   4.043   4.956 -0.1056 -0.5019 -0.2173
38023SOL    HW121184   4.660   3.971   4.931 -0.8202 -2.1412  2.4140
38023SOL    HW221185   4.526   4.034   4.897  1.4632  0.6717 -2.5823
38024SOL     OW21186  11.141  11.371   1.257 -0.0823  0.0299 -0.1123
38024SOL    HW121187  11.046  11.360   1.261 -0.2171  0.1403 -1.8695
38024SOL    HW221188  11.171  11.359   1.347 -1.8367  0.7826  0.6260
38025SOL     OW21189   8.578   4.836   5.058  1.0987 -0.0984 -0.1575
38025SOL    HW121190   8.636   4.763   5.041  2.0287 -0.0652  2.3977
38025SOL    HW221191   8.631   4.899   5.106 -0.5620  0.7057  0.7453
38026SOL     OW21192   8.229   3.855   6.745  0.3850  0.0902  0.4325
38026SOL    HW121193   8.315   3.896   6.759 -0.0696  1.0117  0.5395
38026SOL    HW221194   8.206   3.819   6.831  0.6959 -0.2329  0.3844
38027SOL     OW21195  12.716  11.976   3.177  0.0536 -0.6710  0.3434
38027SOL    HW121196  12.724  12.006   3.087  2.1389 -2.6487 -0.2247
38027SOL    HW221197  12.786  12.020   3.224  0.1900 -1.1017  0.5486
38028SOL     OW21198   9.422   0.128   6.908 -0.0331 -0.9198  0.6620
38028SOL    HW121199   9.483   0.200   6.920  0.6419 -1.6849  2.0780
38028SOL    HW221200   9.365   0.156   6.836  1.9464 -0.1623 -0.7092
38029SOL     OW21201   5.849   4.541  12.313  0.0883  0.6131  0.1233
38029SOL    HW121202   5.867   4.447  12.307  0.5781  0.7809 -1.5324
38029SOL    HW221203   5.761   4.551  12.277  0.8428  0.9815 -1.7862
38030SOL     OW21204   1.293   3.328   1.913  0.0456 -0.0491  0.1501
38030SOL    HW121205   1.208   3.316   1.956 -0.8608  0.1948 -1.4697
38030SOL    HW221206   1.280   3.405   1.857  1.3059 -0.0835 -0.2072
38031SOL     OW21207   6.686  12.405  10.665  0.1881  0.3840  0.0642
38031SOL    HW121208   6.696  12.428  10.572  3.4374 -0.9696 -0.0799
38031SOL    HW221209   6.634  12.325  10.664  0.0853  0.4479 -0.5792
38032SOL     OW21210  11.182  11.318   3.925  0.6241 -0.5838 -0.5454
38032SOL    HW121211  11.205  11.257   3.995 -0.2822 -1.4787 -0.9959
38032SOL    HW221212  11.162  11.400   3.970  1.1081 -0.8335  0.1459
38033SOL     OW21213   1.386   0.148   6.527  0.2872  0.4058 -0.3057
38033SOL    HW121214   1.369   0.198   6.447  2.2146 -1.9343 -2.3436
38033SOL    HW221215   1.339   0.066   6.515 -1.7201  1.0475  2.3531
38034SOL     OW21216   6.960   3.987   7.314  0.1473  0.0221  0.1604
38034SOL    HW121217   6.894   3.981   7.245 -0.3091  1.4003  0.4521
38034SOL    HW221218   7.000   3.900   7.316  0.1136 -0.0762 -1.7706
38035SOL     OW21219  11.108   8.858   9.127 -0.2520  0.4557  0.4380
38035SOL    HW121220  11.112   8.763   9.135 -0.2514  0.2671 -1.3148
38035SOL    HW221221  11.199   8.886   9.119 -0.2684  0.5640  0.6341
38036SOL     OW21222   0.786   8.575   1.172 -0.1588 -0.0505  0.1162
38036SOL    HW121223   0.706   8.535   1.206  0.9785 -0.6828  2.2056
38036SOL    HW221224   0.845   8.581   1.247  1.4518  1.2578 -1.1422
38037SOL     OW21225   5.077   1.274   6.901  0.3206 -0.1179 -0.2565
38037SOL    HW121226   5.131   1.204   6.935  1.4128  0.2161 -1.2470
38037SOL    HW221227   4.993   1.263   6.945  1.4005 -0.1712  1.9128
38038SOL     OW21228  12.764  11.500   3.892  0.6265  0.5075 -0.8571
38038SOL    HW121229  12.806  11.441   3.955  1.7865  0.7278 -1.4002
38038SOL    HW221230  12.689  11.451   3.860  1.3648 -0.5377 -1.0254
38039SOL     OW21231  10.152   9.151   5.622 -0.1656 -0.5160 -0.2381
38039SOL    HW121232  10.237   9.146   5.578 -1.4352 -2.9680 -2.7380
38039SOL    HW221233  10.173   9.166   5.714  3.0694 -2.6231 -0.4747
38040SOL     OW21234   4.588   3.308   5.041 -0.6055  0.7554 -0.0428
38040SOL    HW121235   4.530   3.237   5.069  0.7274 -0.6154 -0.6737
38040SOL    HW221236   4.546   3.344   4.962  0.2559 -1.4656 -1.6150
38041SOL     OW21237   4.244   0.994   2.915 -0.5634  0.2862  0.3895
38041SOL    HW121238   4.251   0.938   2.991 -0.4686 -0.5873 -0.2503
38041SOL    HW221239   4.287   0.946   2.845 -0.8754  0.9563 -0.2834
38042SOL     OW21240  10.297   0.577   2.696  0.0959  0.1606 -0.8794
38042SOL    HW121241  10.213   0.611   2.666  0.0178 -0.5038 -1.4224
38042SOL    HW221242  10.276   0.532   2.778 -0.0850 -0.0335 -1.0313
38043SOL     OW21243   3.296   5.617   2.639  0.0891  0.5583  0.1695
38043SOL    HW121244   3.331   5.539   2.682  1.1001 -0.3705 -2.1716
38043SOL    HW221245   3.203   5.598   2.627  0.1806  0.0108  0.2871
38044SOL     OW21246  10.579   5.088   4.839  0.5291  0.4088 -0.0196
38044SOL    HW121247  10.642   5.153   4.869 -0.1476  1.0181  0.1332
38044SOL    HW221248  10.502   5.140   4.814 -0.5169 -0.4132  1.3433
38045SOL     OW21249   0.007   8.626   0.304 -0.3757  0.5792  0.1178
38045SOL    HW121250   0.008   8.664   0.392  1.6974  0.5818  0.1371
38045SOL    HW221251  -0.063   8.561   0.307  1.0467 -0.9682  2.4823
38046SOL     OW21252   2.940   0.867   0.574 -0.3158 -0.3322 -0.0650
38046SOL    HW121253   2.938   0.787   0.626  0.5882  0.1231  0.6982
38046SOL    HW221254   2.848   0.895   0.569 -0.3170  0.5700  2.8325
38047SOL     OW21255   6.974   2.547   2.556  0.6342  0.2475 -0.6365
38047SOL    HW121256   6.994   2.480   2.621  0.3667  0.1382 -0.6653
38047SOL    HW221257   6.895   2.515   2.512  0.1405  0.8830 -0.2282
38048SOL     OW21258   1.125   3.455   2.810 -0.1189  0.1574  0.6418
38048SOL    HW121259   1.059   3.523   2.819 -0.9360 -0.1704 -2.0382
38048SOL    HW221260   1.079   3.374   2.829  0.6125  0.1980  2.8572
38049SOL     OW21261   1.973   6.373   0.004  0.0333 -0.7199 -0.3253
38049SOL    HW121262   2.003   6.388   0.094  0.8547 -0.2625 -0.6608
38049SOL    HW221263   1.887   6.333   0.014 -1.0704  1.6785  0.6539
38050SOL     OW21264   0.211   9.225   6.213  0.4828  0.7817 -0.1766
38050SOL    HW121265   0.223   9.312   6.176  0.6263  0.0069 -2.0433
38050SOL    HW221266   0.294   9.207   6.258 -0.1958  2.2842  1.8457
38051SOL     OW21267   0.538   0.639   6.024  0.3681  0.0565  0.1386
38051SOL    HW121268   0.522   0.719   6.073 -1.0383  0.5002 -0.9633
38051SOL    HW221269   0.554   0.669   5.934 -2.9838 -0.9381 -0.9346
38052SOL     OW21270   4.155   6.330   8.769  0.1082  0.2683 -0.4957
38052SOL    HW121271   4.128   6.239   8.783  2.0951 -0.4147 -0.7261
38052SOL    HW221272   4.074   6.380   8.772 -1.0394 -1.5092 -0.3309
38053SOL     OW21273   7.127   0.644   1.737  0.4947  0.1269  0.4014
38053SOL    HW121274   7.043   0.688   1.723 -0.0834 -1.1247 -0.2220
38053SOL    HW221275   7.190   0.715   1.749 -0.4924  1.0997 -0.0416
38054SOL     OW21276   5.668   3.306   9.969  0.1207  0.4394 -0.1672
38054SOL    HW121277   5.716   3.354  10.036  0.4825 -1.4977  1.0012
38054SOL    HW221278   5.627   3.233  10.015  0.3862 -0.9660 -2.0235
38055SOL     OW21279   0.735   3.113   6.914  0.3759 -0.5239 -0.4878
38055SOL    HW121280   0.799   3.103   6.985 -0.5862 -0.2872  0.4320
38055SOL    HW221281   0.750   3.037   6.857  3.3356  0.9086 -1.8431
38056SOL     OW21282   6.892   7.206  12.024  0.2032 -0.2628  0.3147
38056SOL    HW121283   6.799   7.186  12.013 -0.2595  1.5651  0.6856
38056SOL    HW221284   6.937   7.137  11.974 -1.2463 -2.1877  1.5402
38057SOL     OW21285   2.854  10.030   5.285  0.5557  0.6429  0.4955
38057SOL    HW121286   2.872  10.050   5.193 -0.8421 -1.0820 -0.2143
38057SOL    HW221287   2.759  10.022   5.290  0.7274 -1.3295  1.5853
38058SOL     OW21288   8.092  11.566   7.177 -0.3823  0.2010 -0.2220
38058SOL    HW121289   8.185  11.546   7.166 -0.5341 -1.3628  1.0003
38058SOL    HW221290   8.048  11.482   7.166 -1.4601  0.5263  1.3159
38059SOL     OW21291  12.285   3.913   9.622 -0.8714  0.1994  0.5182
38059SOL    HW121292  12.355   3.894   9.560 -1.1715  0.8539 -0.0286
38059SOL    HW221293  12.330   3.922   9.707 -0.1030  1.8298 -0.0152
38060SOL     OW21294  10.832   8.271   9.208  0.7908 -0.0585  0.3409
38060SOL    HW121295  10.750   8.235   9.176 -0.3572  1.4382  1.4714
38060SOL    HW221296  10.842   8.234   9.296  0.5203  0.9333  0.8012
38061SOL     OW21297   9.900  12.903   3.805  0.7451  0.0675 -0.7177
38061SOL    HW121298   9.814  12.868   3.827  1.6082 -2.0681 -0.5195
38061SOL    HW221299   9.945  12.830   3.762  3.0141  0.5804  0.6280
38062SOL     OW21300   0.106   9.801   6.629 -0.0383  0.5239  0.4751
38062SOL    HW121301   0.025   9.805   6.680 -1.2406 -1.8094 -1.0759
38062SOL    HW221302   0.103   9.879   6.573 -2.0504 -0.2618 -0.6188
38063SOL     OW21303   1.037   2.917   0.610 -0.3704  0.3627  0.4983
38063SOL    HW121304   1.087   2.900   0.690 -0.6968 -0.4769  0.5390
38063SOL    HW221305   1.036   3.012   0.601 -0.5349  0.4775  1.6264
38064SOL     OW21306   5.045   3.419   3.514 -0.4143  0.2582 -0.0467
38064SOL    HW121307   5.138   3.406   3.534 -0.6556  2.3188  3.3538
38064SOL    HW221308   5.017   3.337   3.474  2.3307 -1.4226  1.1724
38065SOL     OW21309  10.456   7.808   8.142  0.2188  0.1052  0.3136
38065SOL    HW121310  10.415   7.754   8.074  0.5998 -0.5354  0.5793
38065SOL    HW221311  10.523   7.858   8.096 -2.1369  2.7591 -0.5459
38066SOL     OW21312   5.712   7.488   2.206 -0.4238  0.0754 -0.0797
38066SOL    HW121313   5.619   7.470   2.190 -0.5448  0.5797  0.0397
38066SOL    HW221314   5.712   7.546   2.282 -0.1339  1.7116 -1.2689
38067SOL     OW21315   4.855   8.760  11.463 -0.8230  0.2224 -0.1415
38067SOL    HW121316   4.927   8.761  11.526 -0.7047  1.0362 -0.2790
38067SOL    HW221317   4.861   8.845  11.419 -1.6639  0.1565 -0.3890
38068SOL     OW21318   7.819   3.927   1.220  0.6825 -0.4138  0.6624
38068SOL    HW121319   7.907   3.919   1.256  0.5717 -1.9134  0.6596
38068SOL    HW221320   7.765   3.956   1.294  1.1375  0.3920  0.6904
38069SOL     OW21321  10.228   6.951  12.944 -0.7257  0.2664 -0.3395
38069SOL    HW121322  10.278   6.998  13.011 -0.5167  0.7451 -0.8240
38069SOL    HW221323  10.152   7.007  12.926 -0.9860 -0.0460 -0.2290
38070SOL     OW21324  10.805   6.921   7.037 -0.2489  0.0458 -0.0077
38070SOL    HW121325  10.718   6.926   6.997 -0.3240 -3.0777 -0.4133
38070SOL    HW221326  10.820   6.828   7.052  2.7311  0.5479  0.7854
38071SOL     OW21327   5.118   2.512   7.530 -0.8521  0.3290 -0.1141
38071SOL    HW121328   5.070   2.535   7.609 -0.3199 -0.1387  0.3555
38071SOL    HW221329   5.075   2.432   7.498 -1.5597  0.9440 -0.7431
38072SOL     OW21330   3.367   8.962   8.645 -0.4600 -0.4026 -0.0615
38072SOL    HW121331   3.359   9.041   8.698  0.8627 -0.3323  0.0826
38072SOL    HW221332   3.418   8.990   8.569 -2.1589 -0.5474 -1.3132
38073SOL     OW21333   4.976   8.373   4.334 -0.2572 -0.3843 -0.1596
38073SOL    HW121334   4.992   8.447   4.393  1.7133 -0.6389 -0.2932
38073SOL    HW221335   5.011   8.402   4.250  2.3389 -2.0726  0.2296
38074SOL     OW21336   8.649   8.165   6.827 -0.0308  0.8512  0.0875
38074SOL    HW121337   8.560   8.131   6.832  0.2130  0.2600  0.5565
38074SOL    HW221338   8.639   8.254   6.793 -1.0198  1.7381  2.4989
38075SOL     OW21339   0.777  11.547   3.015 -0.0203 -0.1502 -0.0417
38075SOL    HW121340   0.866  11.542   3.048  0.1531  1.6823 -0.0966
38075SOL    HW221341   0.743  11.458   3.022  2.5095 -1.3921 -2.0894
38076SOL     OW21342   7.248  11.316   9.924  0.2479  0.6035  0.1880
38076SOL    HW121343   7.306  11.308   9.849 -0.1783 -0.6722 -0.0357
38076SOL    HW221344   7.250  11.409   9.947 -1.2612  1.4603 -2.7123
38077SOL     OW21345   8.514   3.516   7.514 -0.5489 -0.0151  0.3836
38077SOL    HW121346   8.433   3.465   7.517 -0.3148 -0.3609  0.8803
38077SOL    HW221347   8.519   3.549   7.424 -1.2497  0.0246  0.3555
38078SOL     OW21348   2.174   1.487   6.649  0.7166  0.0729  0.3052
38078SOL    HW121349   2.215   1.543   6.583  0.3456  0.5768  0.4951
38078SOL    HW221350   2.181   1.537   6.731  0.4717 -0.2015  0.4971
38079SOL     OW21351  10.147   8.111   3.385  0.5150 -0.4361  0.2986
38079SOL    HW121352  10.182   8.111   3.296 -0.1550  0.6986  0.0285
38079SOL    HW221353  10.206   8.053   3.433  0.0380 -2.2901 -1.1986
38080SOL     OW21354   5.309  10.481   8.155 -0.6459 -0.0991  0.2232
38080SOL    HW121355   5.320  10.566   8.199  0.6245 -0.1110 -0.0337
38080SOL    HW221356   5.266  10.426   8.220 -0.0918  0.3031  0.9503
38081SOL     OW21357   0.886  12.169   2.643  0.1457  0.0570 -0.0621
38081SOL    HW121358   0.908  12.214   2.561  0.1278 -0.9807 -0.6637
38081SOL    HW221359   0.960  12.185   2.701 -0.7100  2.4968  0.4819
38082SOL     OW21360  10.522  10.824   2.296 -0.0116 -0.2926  0.3901
38082SOL    HW121361  10.502  10.741   2.339 -0.7458  1.2841  3.2945
38082SOL    HW221362  10.438  10.857   2.265  0.1483 -0.1881  0.0560
38083SOL     OW21363   3.679   2.117  11.750  0.4633  0.1902 -0.0485
38083SOL    HW121364   3.658   2.055  11.820  0.8534 -1.2797 -1.1752
38083SOL    HW221365   3.775   2.120  11.748  0.4719 -0.1749 -0.8132
38084SOL     OW21366   4.660   6.894   2.675 -0.1573 -0.5194  0.1766
38084SOL    HW121367   4.712   6.856   2.747 -0.3163 -1.2343 -0.0766
38084SOL    HW221368   4.723   6.942   2.622  0.2744 -1.4675 -0.1850
38085SOL     OW21369  10.690   7.130   8.028 -0.3122  0.1666 -0.3109
38085SOL    HW121370  10.674   7.179   7.947 -0.9039  0.0411 -0.2700
38085SOL    HW221371  10.686   7.196   8.097 -1.1908  0.0548 -0.2475
38086SOL     OW21372  11.288   6.427   9.720 -0.3430 -0.6070  0.2468
38086SOL    HW121373  11.268   6.477   9.641 -0.1547  1.2653  1.3223
38086SOL    HW221374  11.215   6.366   9.729 -0.8679 -0.1593 -0.8106
38087SOL     OW21375   2.314   6.461   8.627 -0.3666 -0.3012 -0.1848
38087SOL    HW121376   2.382   6.527   8.640  0.2934 -1.1302  0.8270
38087SOL    HW221377   2.346   6.408   8.553 -0.6913  0.2494 -0.7247
38088SOL     OW21378   3.170   0.936   1.411  0.2959  0.1293 -0.1465
38088SOL    HW121379   3.177   0.868   1.478 -1.8062 -0.9414 -0.9409
38088SOL    HW221380   3.090   0.984   1.434  0.1151  0.3990 -1.3119
38089SOL     OW21381   5.839   5.585   0.462  0.0960  0.2789 -0.1194
38089SOL    HW121382   5.776   5.631   0.406  1.1919  1.6827 -0.2480
38089SOL    HW221383   5.838   5.495   0.430  0.1746  0.8854 -1.9454
38090SOL     OW21384   6.233  10.316   0.519 -0.6302  0.2449  0.4854
38090SOL    HW121385   6.180  10.279   0.448 -1.4071 -0.2142  1.2891
38090SOL    HW221386   6.283  10.242   0.553 -1.5113  0.1074  1.5069
38091SOL     OW21387   3.978   4.538   9.289 -0.0159 -0.2048  0.2560
38091SOL    HW121388   3.966   4.623   9.247 -0.5768  0.0318  0.8915
38091SOL    HW221389   3.893   4.496   9.284  0.1840 -0.6153  0.2209
38092SOL     OW21390   5.370  12.122   4.623  0.1271  0.3261  0.2294
38092SOL    HW121391   5.275  12.115   4.619  0.1246  0.6770 -0.6644
38092SOL    HW221392   5.387  12.209   4.658  0.0810  1.2492 -1.8798
38093SOL     OW21393  12.553  11.854   2.943  0.9538 -0.1967 -0.7179
38093SOL    HW121394  12.540  11.787   2.876 -0.5101 -0.6805 -0.0014
38093SOL    HW221395  12.620  11.818   3.001  2.4186  0.3360 -2.0048
38094SOL     OW21396   5.621   1.609   9.418 -0.1207 -0.1905  0.2354
38094SOL    HW121397   5.564   1.566   9.481 -1.3059 -1.3556 -1.5616
38094SOL    HW221398   5.626   1.549   9.344  0.2327  1.6378 -1.3117
38095SOL     OW21399   3.412   9.026   7.763  0.0558  0.3655 -0.3521
38095SOL    HW121400   3.355   9.101   7.751  1.7801  1.7020 -0.4723
38095SOL    HW221401   3.416   9.014   7.858 -2.4476 -1.4266 -0.3659
38096SOL     OW21402   9.723   8.125   9.931  0.1442 -0.1637 -0.8443
38096SOL    HW121403   9.729   8.153   9.840  1.4583 -1.3574 -1.1667
38096SOL    HW221404   9.637   8.084   9.939 -0.2958  0.6435 -1.3213
38097SOL     OW21405   7.413  10.352   0.934  0.3164  0.0711  0.1061
38097SOL    HW121406   7.360  10.301   0.873  0.8400 -1.4347  0.8807
38097SOL    HW221407   7.366  10.347   1.017  0.0335  1.4303  0.0626
38098SOL     OW21408   3.524   3.943   2.904 -0.3466  0.6404 -0.2138
38098SOL    HW121409   3.558   3.961   2.992 -1.2544 -0.7130  0.4480
38098SOL    HW221410   3.429   3.951   2.912 -0.4304  0.8173 -1.1691
38099SOL     OW21411   1.594   9.242   6.314  0.2844  0.4505  0.1917
38099SOL    HW121412   1.581   9.158   6.270 -1.6379  0.8934 -0.1775
38099SOL    HW221413   1.646   9.221   6.391 -0.2773 -1.0958  0.1814
38100SOL     OW21414   5.032  12.610   4.783 -0.0359 -0.3831  0.1575
38100SOL    HW121415   5.004  12.676   4.846  1.2576 -0.8622  1.2932
38100SOL    HW221416   5.082  12.659   4.718  1.4125 -0.2708  1.3051
38101SOL     OW21417   1.634   9.274   8.835  0.1158 -0.2367 -0.3574
38101SOL    HW121418   1.720   9.315   8.827 -0.4014  1.2077  1.1262
38101SOL    HW221419   1.577   9.342   8.868 -1.0874 -1.7936  0.9466
38102SOL     OW21420  10.260   3.206  12.602 -0.0532  0.2963 -0.0599
38102SOL    HW121421  10.283   3.282  12.656 -2.2111  0.7610  0.2913
38102SOL    HW221422  10.205   3.153  12.659 -0.5542 -0.3215 -1.0998
38103SOL     OW21423  11.372  10.621  11.535  0.1963 -0.4456 -0.2602
38103SOL    HW121424  11.465  10.645  11.528  0.2608 -0.6404 -0.0536
38103SOL    HW221425  11.329  10.673  11.466  0.2063  0.9640  0.7424
38104SOL     OW21426   3.376  12.117   1.472  0.3567  0.4311 -0.2901
38104SOL    HW121427   3.390  12.058   1.398  1.6871  0.0568  0.2383
38104SOL    HW221428   3.400  12.203   1.438  1.2276  0.2202 -0.2236
38105SOL     OW21429   0.913   0.747  12.461 -0.2190 -0.2296 -0.0810
38105SOL    HW121430   0.920   0.709  12.373  0.4248 -0.4573  0.0633
38105SOL    HW221431   0.919   0.672  12.520  0.4407  0.0293  0.1903
38106SOL     OW21432   3.645  12.295   8.422  0.2825  0.6940  0.3172
38106SOL    HW121433   3.557  12.288   8.386 -0.2790 -0.0381  1.7247
38106SOL    HW221434   3.683  12.207   8.411  0.6633  0.8803  0.1259
38107SOL     OW21435  11.117   7.574   8.390 -0.0541  0.0366 -0.2280
38107SOL    HW121436  11.212   7.560   8.394 -0.1963 -1.4552 -1.1182
38107SOL    HW221437  11.101   7.650   8.446  1.6250  0.1065  0.2032
38108SOL     OW21438   0.913   5.081   3.334 -0.2288  0.1685  0.3998
38108SOL    HW121439   0.958   5.122   3.408  0.6043  0.6788 -0.3618
38108SOL    HW221440   0.863   5.009   3.373  1.6463 -0.7511  1.2567
38109SOL     OW21441  10.246  12.346   6.566  0.3939 -0.3924 -0.4662
38109SOL    HW121442  10.159  12.386   6.562  0.7459  0.4540 -0.0651
38109SOL    HW221443  10.231  12.260   6.605 -0.0102  0.6667  1.9479
38110SOL     OW21444   6.632   7.911   7.664 -0.1853 -0.0011 -0.2161
38110SOL    HW121445   6.540   7.916   7.689 -0.0671  0.7636  0.0809
38110SOL    HW221446   6.644   7.982   7.601  0.7413  1.4862  1.5310
38111SOL     OW21447   2.180   6.335   2.277 -0.0413 -0.2330  0.7643
38111SOL    HW121448   2.125   6.314   2.202 -0.0809  1.9384  0.0985
38111SOL    HW221449   2.250   6.390   2.240  1.1087 -0.8248  2.0001
38112SOL     OW21450   7.226  11.230   8.543 -0.1894  0.0852  0.0291
38112SOL    HW121451   7.258  11.303   8.490  0.6400  0.9642  1.6372
38112SOL    HW221452   7.286  11.158   8.524 -0.0587  0.3039 -0.3987
38113SOL     OW21453   5.383  10.894   6.543  0.4922  0.0293  0.1805
38113SOL    HW121454   5.452  10.834   6.516  0.2169 -0.0297 -0.4115
38113SOL    HW221455   5.341  10.849   6.617  0.8871 -0.0742  0.3454
38114SOL     OW21456   4.704   8.404  11.199  0.8386  0.5242 -0.4529
38114SOL    HW121457   4.778   8.363  11.243  1.5953  1.5696 -0.7079
38114SOL    HW221458   4.715   8.498  11.216 -2.1889  0.5672  2.2160
38115SOL     OW21459   8.480   0.016   0.997 -0.0882 -0.2372  0.2092
38115SOL    HW121460   8.467   0.088   0.936 -0.5410 -0.7967 -0.3571
38115SOL    HW221461   8.569  -0.014   0.980  0.8401  1.3672  1.7362
38116SOL     OW21462   0.273   4.307   0.905 -0.0200 -0.1396  0.1193
38116SOL    HW121463   0.300   4.346   0.822  0.4729 -0.2880  0.2054
38116SOL    HW221464   0.198   4.252   0.882  0.2296 -0.3275 -0.2652
38117SOL     OW21465   4.788   5.444   8.628 -0.1144 -0.1922  0.0345
38117SOL    HW121466   4.811   5.449   8.721 -2.8010 -0.3988  0.8052
38117SOL    HW221467   4.870   5.423   8.584  1.2187 -0.2351  2.3691
38118SOL     OW21468  10.869   1.122   6.421 -0.1082  0.7729  0.2415
38118SOL    HW121469  10.821   1.205   6.415  0.6444  1.3519  1.6391
38118SOL    HW221470  10.885   1.111   6.515  0.1144 -0.7906  0.0394
38119SOL     OW21471   4.943   7.566   7.858 -0.4815  0.9474  0.0635
38119SOL    HW121472   4.897   7.650   7.858 -0.6887  0.8971 -2.4633
38119SOL    HW221473   5.031   7.587   7.828 -0.5140  0.2974 -0.5141
38120SOL     OW21474   3.997  12.353   0.909 -0.3163 -0.6021 -0.2434
38120SOL    HW121475   3.914  12.336   0.865  0.0750  0.8244 -1.6268
38120SOL    HW221476   3.986  12.440   0.948  0.7628 -0.0419 -1.1254
38121SOL     OW21477   2.082   7.977   9.612  0.0258 -0.2103 -0.5685
38121SOL    HW121478   2.083   8.021   9.697 -0.8037  0.8054 -1.0670
38121SOL    HW221479   2.048   7.889   9.631  0.6808 -0.2866  0.2760
38122SOL     OW21480   0.191   7.571   5.890 -0.0568  0.2236 -0.0688
38122SOL    HW121481   0.232   7.650   5.925 -0.1314 -0.1800  0.9535
38122SOL    HW221482   0.171   7.593   5.799  3.9854 -0.0726 -1.2477
38123SOL     OW21483   6.487   5.300  12.388 -0.2235  0.6477 -0.1333
38123SOL    HW121484   6.503   5.214  12.428  2.0512  1.1806  0.2261
38123SOL    HW221485   6.492   5.284  12.293  0.0265  0.3623 -0.0718
38124SOL     OW21486   9.415   9.703  12.594  0.3829  0.5661 -0.3865
38124SOL    HW121487   9.368   9.643  12.652  1.2912  0.8355  0.6601
38124SOL    HW221488   9.357   9.780  12.589 -0.7126 -0.2854 -1.6155
38125SOL     OW21489   2.436   7.853   2.511 -0.0709  0.1367 -0.5293
38125SOL    HW121490   2.349   7.813   2.521 -0.6258  0.1899 -3.9455
38125SOL    HW221491   2.497   7.781   2.527 -0.7198 -0.1059  1.0761
38126SOL     OW21492  10.731   7.925  11.041  0.0147 -0.3563 -0.1249
38126SOL    HW121493  10.823   7.906  11.057 -0.1387 -0.2606  0.9382
38126SOL    HW221494  10.715   7.892  10.952  0.8968 -0.9983 -0.0616
38127SOL     OW21495   1.843   3.545   9.835  0.0628 -1.1040  0.3641
38127SOL    HW121496   1.772   3.609   9.829  0.1758 -0.9605  0.5362
38127SOL    HW221497   1.836   3.494   9.754 -0.3440 -1.2081  0.4642
38128SOL     OW21498   4.150   5.837   3.050  0.0325  0.2964  0.4333
38128SOL    HW121499   4.154   5.805   3.140  0.0793 -0.8044  0.0553
38128SOL    HW221500   4.176   5.762   2.997 -0.5768  0.7484 -0.5348
38129SOL     OW21501  10.074   5.630   3.609 -0.0562  0.1839  0.0813
38129SOL    HW121502  10.107   5.597   3.525 -1.5013  1.6636 -1.1053
38129SOL    HW221503  10.085   5.725   3.604  1.7164  0.2184  2.4401
38130SOL     OW21504   8.978   9.648   8.581  0.3516 -0.3370  0.3438
38130SOL    HW121505   8.957   9.719   8.641 -1.3262 -0.4992 -0.0099
38130SOL    HW221506   8.991   9.692   8.497 -1.0616 -0.4568  0.0440
38131SOL     OW21507   4.245   9.637   2.916  0.4406  0.2203  0.3793
38131SOL    HW121508   4.199   9.700   2.970 -0.7533  0.2610 -0.6400
38131SOL    HW221509   4.288   9.578   2.978  0.1966  1.0415  1.3414
38132SOL     OW21510   3.083   4.757   5.736  0.1986 -0.3353 -0.3674
38132SOL    HW121511   3.030   4.788   5.662 -0.4302 -0.0727  0.1837
38132SOL    HW221512   3.134   4.833   5.764  0.2628 -0.3729 -0.3810
38133SOL     OW21513  12.158   0.191   5.427  0.0815 -0.5145  0.1271
38133SOL    HW121514  12.198   0.275   5.449 -2.0484  1.1334 -1.7684
38133SOL    HW221515  12.229   0.128   5.433  1.5895  1.2587  2.3950
38134SOL     OW21516   3.673  10.848   3.316 -0.2021 -0.0570 -0.0336
38134SOL    HW121517   3.669  10.942   3.337 -0.4934  0.0676 -0.6264
38134SOL    HW221518   3.660  10.804   3.400  0.4466  0.4350  0.3333
38135SOL     OW21519  12.926   3.644   9.214  0.6244 -0.5385 -0.5859
38135SOL    HW121520  12.942   3.561   9.258 -2.2296  0.3610  2.6108
38135SOL    HW221521  13.009   3.692   9.224  1.7354 -2.2875 -0.9385
38136SOL     OW21522   3.499   6.256   6.736  0.0974 -0.3241  0.4374
38136SOL    HW121523   3.448   6.186   6.777  0.9958 -1.9687 -1.1380
38136SOL    HW221524   3.436   6.301   6.680 -0.2191 -0.6403  0.5355
38137SOL     OW21525  11.982   0.984   2.824  0.3363 -0.1057  0.3642
38137SOL    HW121526  11.986   0.898   2.782  2.0080 -0.2722  0.8039
38137SOL    HW221527  12.057   0.986   2.884  0.5922  1.8282  0.0558
38138SOL     OW21528  10.047  12.941   8.706 -0.4446 -0.0044  0.4075
38138SOL    HW121529   9.956  12.938   8.734 -0.1919  0.1296  1.2770
38138SOL    HW221530  10.046  12.991   8.624 -1.3989 -1.6790 -0.6567
38139SOL     OW21531   8.797   3.910   4.715 -0.4140  0.1603  0.3124
38139SOL    HW121532   8.865   3.855   4.752  1.1262  2.2371  0.7709
38139SOL    HW221533   8.837   3.997   4.707 -2.4692  1.0909 -1.0178
38140SOL     OW21534   2.652   5.488  10.975 -0.1707  0.0964 -0.2865
38140SOL    HW121535   2.708   5.547  10.925 -0.2197 -0.1779 -0.6711
38140SOL    HW221536   2.699   5.405  10.976  0.3143  0.3669  1.0077
38141SOL     OW21537   0.902   0.674   5.539  0.1775 -0.6501 -0.8958
38141SOL    HW121538   0.944   0.674   5.625 -0.0076 -2.1450 -0.7766
38141SOL    HW221539   0.967   0.634   5.481 -0.2522 -0.9896 -1.1477
38142SOL     OW21540   9.067  11.363  11.398  0.6151  0.4521  0.2609
38142SOL    HW121541   9.129  11.296  11.371  1.9702  2.0678 -0.8531
38142SOL    HW221542   9.011  11.376  11.321 -2.1790 -1.9712  1.6798
38143SOL     OW21543  10.945  10.961   3.030  0.6209 -0.1796 -0.5272
38143SOL    HW121544  10.912  11.046   3.061  1.1983 -0.6809  1.6284
38143SOL    HW221545  10.948  10.906   3.109 -1.1779 -2.7455 -2.1119
38144SOL     OW21546   0.395  11.143  10.624  0.0048  0.3700 -0.3673
38144SOL    HW121547   0.393  11.074  10.558  1.2842 -0.4735  0.4233
38144SOL    HW221548   0.469  11.121  10.680  1.2260  3.0373 -0.7588
38145SOL     OW21549   2.820   8.708   1.761 -0.2222 -0.0717 -0.1921
38145SOL    HW121550   2.751   8.697   1.696 -0.4714 -2.5746  0.4019
38145SOL    HW221551   2.776   8.742   1.838 -0.2680  0.9975 -0.6701
38146SOL     OW21552   7.537   4.716  10.402 -0.4033  0.2918  0.0615
38146SOL    HW121553   7.611   4.656  10.394  0.4184  1.2322  0.4594
38146SOL    HW221554   7.567   4.784  10.461 -1.2685  1.1819 -0.4866
38147SOL     OW21555  10.742   4.184  11.612 -0.7696  0.0444 -0.0916
38147SOL    HW121556  10.711   4.262  11.657  2.0237 -0.0152  2.1988
38147SOL    HW221557  10.809   4.216  11.551  0.1394 -0.4826  0.6056
38148SOL     OW21558   8.249   7.916  11.307  0.6480  0.6149 -0.2117
38148SOL    HW121559   8.332   7.876  11.333 -0.0885 -0.8506  0.0020
38148SOL    HW221560   8.267   7.954  11.221  1.6715  0.7749  0.0554
38149SOL     OW21561   9.150   0.863   1.354  0.1409  0.5619 -0.1595
38149SOL    HW121562   9.214   0.918   1.398  0.7743  0.4605 -0.9358
38149SOL    HW221563   9.131   0.793   1.416  3.9775 -1.8548 -1.4111
38150SOL     OW21564   5.373   7.618   5.073 -0.0189  0.1985  0.4483
38150SOL    HW121565   5.281   7.603   5.049  0.5597 -0.3302 -1.6018
38150SOL    HW221566   5.423   7.585   4.999  1.7734  2.4383  0.5491
38151SOL     OW21567   4.332   5.601   3.659 -0.2344  0.3530  0.4254
38151SOL    HW121568   4.402   5.631   3.718  0.3143  0.4631 -0.2671
38151SOL    HW221569   4.345   5.507   3.652 -0.4334  0.3077  0.6431
38152SOL     OW21570   8.582   2.215   2.034 -0.0701 -0.1045  0.1535
38152SOL    HW121571   8.590   2.220   1.939 -2.3999 -1.7049 -0.2331
38152SOL    HW221572   8.564   2.122   2.051 -2.3005  0.5433  1.8322
38153SOL     OW21573   1.427  11.425   8.997  0.1040 -0.0541  0.0887
38153SOL    HW121574   1.388  11.462   8.918  1.0159  0.0620 -0.3119
38153SOL    HW221575   1.419  11.495   9.062  0.9572  0.5166 -0.4011
38154SOL     OW21576   4.701   7.125   9.443  0.3134 -0.3298 -0.2533
38154SOL    HW121577   4.753   7.174   9.379 -0.4921 -0.7046 -1.2217
38154SOL    HW221578   4.743   7.040   9.449  0.0510 -0.4951 -0.7330
38155SOL     OW21579   0.901  10.669   7.835  0.9323  0.5354  0.2700
38155SOL    HW121580   0.855  10.732   7.890  1.9370  0.9587  0.6596
38155SOL    HW221581   0.908  10.711   7.750 -0.1280  0.1167 -0.0300
38156SOL     OW21582  12.861  12.032   9.334 -0.4726 -0.4827  0.8053
38156SOL    HW121583  12.811  11.986   9.401 -0.5514 -1.2119  0.2543
38156SOL    HW221584  12.857  11.976   9.257  0.3227 -0.0632  0.4351
38157SOL     OW21585  10.305   4.484   3.244 -0.4544  0.4508  0.2254
38157SOL    HW121586  10.338   4.420   3.306 -1.2181  1.9800  2.3355
38157SOL    HW221587  10.227   4.443   3.206 -0.4581 -0.1834  0.9030
38158SOL     OW21588   5.243  12.546   7.595 -0.3862 -0.0333 -0.4927
38158SOL    HW121589   5.323  12.500   7.621  0.4503  2.1550  1.1555
38158SOL    HW221590   5.273  12.616   7.537 -1.1820  0.4434 -0.3431
38159SOL     OW21591  10.235   3.806  10.733  0.5253 -0.1142 -0.4522
38159SOL    HW121592  10.218   3.719  10.697 -1.4999 -0.5018  1.2451
38159SOL    HW221593  10.227   3.865  10.658  1.1612 -1.2794 -1.4836
38160SOL     OW21594   6.762   3.734   8.207 -0.4254 -0.0076  0.4807
38160SOL    HW121595   6.746   3.797   8.137  2.1387 -1.6142 -1.7204
38160SOL    HW221596   6.789   3.787   8.282 -0.4935  1.6137 -0.6025
38161SOL     OW21597   3.731  10.253   6.461 -0.1792  0.1092 -0.0852
38161SOL    HW121598   3.714  10.307   6.384  0.2711 -0.3207 -0.4875
38161SOL    HW221599   3.737  10.316   6.533 -0.4045  0.5307 -0.4320
38162SOL     OW21600   1.321   6.024   3.950 -0.6863  0.4734 -0.4007
38162SOL    HW121601   1.363   6.109   3.937  1.3788 -0.4874 -0.4768
38162SOL    HW221602   1.283   6.028   4.037 -0.7032  1.4983 -0.4461
38163SOL     OW21603   6.343   6.940   0.417  0.1707  0.4128  0.3457
38163SOL    HW121604   6.294   6.913   0.495 -0.1289 -1.1692 -0.3510
38163SOL    HW221605   6.432   6.908   0.432 -0.1033 -0.7059 -0.3386
38164SOL     OW21606   2.951  12.712   5.079  0.3214 -0.6269  0.1943
38164SOL    HW121607   2.935  12.654   5.154 -0.0444 -0.5080  0.2126
38164SOL    HW221608   3.036  12.685   5.045 -0.0444 -1.4640 -0.0700
38165SOL     OW21609  11.145   4.784   7.297 -0.3728 -0.1791 -0.0044
38165SOL    HW121610  11.240   4.773   7.291 -0.3374 -0.0292  0.2342
38165SOL    HW221611  11.131   4.817   7.386 -0.6702 -0.4228  0.0384
38166SOL     OW21612   2.362   9.493   3.326 -0.3149  0.1849  0.3097
38166SOL    HW121613   2.396   9.404   3.317  0.5698  0.4520  0.9005
38166SOL    HW221614   2.316   9.509   3.243  2.1739  0.3019 -1.1501
38167SOL     OW21615   1.242  11.508   2.479  0.2277 -0.1285  0.8853
38167SOL    HW121616   1.333  11.527   2.456  0.0411  1.7381  1.4860
38167SOL    HW221617   1.234  11.539   2.570 -1.0650  0.0142  0.7414
38168SOL     OW21618   8.198   7.246  11.956 -0.7780 -0.2107  0.3532
38168SOL    HW121619   8.115   7.231  11.912 -0.4508 -0.1968 -0.2723
38168SOL    HW221620   8.259   7.185  11.915 -0.3140  0.2625  0.3272
38169SOL     OW21621  10.803   7.110   4.265 -0.7705  0.5063 -0.0387
38169SOL    HW121622  10.834   7.200   4.265 -0.0559  0.2785  0.7041
38169SOL    HW221623  10.731   7.109   4.202  0.9163  0.9860 -2.1054
38170SOL     OW21624   0.019   3.944   0.096 -0.6554  0.4393 -0.3846
38170SOL    HW121625  -0.068   3.968   0.065 -0.6015  1.3989  0.1602
38170SOL    HW221626   0.079   3.989   0.037 -0.5035 -0.7257 -1.1470
38171SOL     OW21627   3.399   5.715   4.817 -0.0636  0.2172 -0.5604
38171SOL    HW121628   3.437   5.653   4.880 -0.7474 -1.1398 -1.4395
38171SOL    HW221629   3.328   5.666   4.776  0.6350  0.8983 -2.7113
38172SOL     OW21630   2.148   0.090  11.208  0.4985  0.0456  0.0968
38172SOL    HW121631   2.059   0.074  11.238  0.8131 -2.4864 -0.0911
38172SOL    HW221632   2.184   0.153  11.271 -0.8156 -0.3770  1.3219
38173SOL     OW21633   3.831   0.275   9.990  0.4100 -0.1025 -0.6848
38173SOL    HW121634   3.748   0.292  10.036  0.3388 -0.6970 -0.5878
38173SOL    HW221635   3.804   0.249   9.902  0.5808  2.7160 -1.6792
38174SOL     OW21636   2.366  12.156   6.446  0.8128  0.7801  0.3165
38174SOL    HW121637   2.304  12.202   6.503  0.0489  0.5895 -0.3462
38174SOL    HW221638   2.360  12.201   6.362  0.5305 -0.1186 -0.1544
38175SOL     OW21639   1.587  11.636   1.881 -0.5113 -0.0894 -0.3666
38175SOL    HW121640   1.520  11.642   1.949 -0.0225 -1.0245  0.2324
38175SOL    HW221641   1.670  11.642   1.928 -0.1508 -1.4981 -0.7551
38176SOL     OW21642   3.364   0.053  11.559  0.5403  0.1424 -0.2073
38176SOL    HW121643   3.394   0.129  11.509  0.0781  0.5591  0.1436
38176SOL    HW221644   3.423  -0.018  11.533  1.2643  0.7313 -0.1958
38177SOL     OW21645   5.848   8.598   4.002  0.2892 -0.1920 -0.4830
38177SOL    HW121646   5.891   8.654   3.937 -1.3745 -0.6098 -2.0296
38177SOL    HW221647   5.891   8.513   3.992  0.0691 -0.2460 -1.0598
38178SOL     OW21648  10.638  12.731   1.421 -0.3524 -0.1470  0.3506
38178SOL    HW121649  10.720  12.771   1.451  0.0304 -1.1277  0.6449
38178SOL    HW221650  10.663  12.644   1.392 -1.2078 -0.2535 -0.0899
38179SOL     OW21651  10.562   1.040   9.528  0.2690 -0.2160 -0.1368
38179SOL    HW121652  10.475   1.066   9.556  0.4111  0.0628  0.0547
38179SOL    HW221653  10.565   1.063   9.435  0.5232  0.8526  0.1125
38180SOL     OW21654   9.010   5.540   3.809  0.0440 -0.0221  0.1401
38180SOL    HW121655   8.980   5.538   3.900 -0.9385 -0.5748 -0.1762
38180SOL    HW221656   8.930   5.555   3.758  0.8644  2.5456 -0.5220
38181SOL     OW21657   2.106   0.231   0.850  0.5230 -0.4745 -0.0376
38181SOL    HW121658   2.140   0.190   0.771 -0.7420 -1.1087 -0.2682
38181SOL    HW221659   2.049   0.165   0.889  1.1999 -0.2024  1.4608
38182SOL     OW21660   1.012   0.305   5.256 -0.1726  0.3895  0.3394
38182SOL    HW121661   1.003   0.210   5.254 -0.8997  0.4353  1.1492
38182SOL    HW221662   1.098   0.320   5.296  0.5267  0.0677 -0.9809
38183SOL     OW21663   1.456   6.183   7.738  0.8225  0.2389  0.2599
38183SOL    HW121664   1.429   6.102   7.694 -0.5819  0.0649  1.3694
38183SOL    HW221665   1.551   6.177   7.743  0.7480 -1.4327  0.4590
38184SOL     OW21666  10.804   9.751   0.399  0.0242  0.1358  0.3017
38184SOL    HW121667  10.720   9.777   0.360  0.2117  0.6711  0.2528
38184SOL    HW221668  10.851   9.833   0.413  0.6711 -0.1848  0.0506
38185SOL     OW21669  10.657   4.415  10.311 -0.1143  0.2699  0.3800
38185SOL    HW121670  10.727   4.380  10.366 -1.2955  0.9662  2.4678
38185SOL    HW221671  10.699   4.484  10.260  0.8941  0.1010  0.9592
38186SOL     OW21672   9.595   5.464   6.822  0.7602 -0.0030  0.0938
38186SOL    HW121673   9.504   5.464   6.791  0.3684 -0.2861  1.1970
38186SOL    HW221674   9.616   5.371   6.832  1.3488  0.0447 -0.6337
38187SOL     OW21675   5.844   6.241   6.059  0.0524 -0.6260 -0.6608
38187SOL    HW121676   5.819   6.287   6.139  0.4224  0.7392 -1.3044
38187SOL    HW221677   5.883   6.159   6.089  0.9583  0.2430  0.5958
38188SOL     OW21678  10.390   0.579   3.749 -0.2591 -0.8325 -0.1902
38188SOL    HW121679  10.367   0.507   3.691 -1.5842 -0.5125 -0.0926
38188SOL    HW221680  10.342   0.655   3.714  0.2651 -0.2465  0.3297
38189SOL     OW21681   6.705  12.033   7.408 -0.0570 -0.5414 -0.4225
38189SOL    HW121682   6.629  12.036   7.466 -1.0858 -0.6208 -1.7230
38189SOL    HW221683   6.773  11.991   7.461 -0.4558  0.7907  1.2408
38190SOL     OW21684   1.747   3.395   9.599 -0.0718  0.1796 -0.7484
38190SOL    HW121685   1.739   3.305   9.568  1.3369 -0.3746  0.3980
38190SOL    HW221686   1.657   3.427   9.602 -0.6654 -1.4259 -0.5068
38191SOL     OW21687   1.708   3.169   8.136 -0.3082 -0.3793 -0.0754
38191SOL    HW121688   1.642   3.210   8.191 -0.4235 -1.2671  0.4608
38191SOL    HW221689   1.788   3.219   8.155 -0.7048  0.4045 -0.3916
38192SOL     OW21690   8.259  11.382   3.028  0.3001  0.3926 -0.0083
38192SOL    HW121691   8.191  11.438   3.067  0.7419  0.8995  0.0463
38192SOL    HW221692   8.304  11.439   2.966  0.4846 -0.0281 -0.2632
38193SOL     OW21693  10.139   9.592  10.515 -0.3367  0.0681 -0.2157
38193SOL    HW121694  10.101   9.552  10.437  2.0689  0.3417 -1.5965
38193SOL    HW221695  10.233   9.581  10.505  0.0678  0.5346  2.4530
38194SOL     OW21696   2.263   4.156  12.368 -0.1906 -0.5214  0.1075
38194SOL    HW121697   2.306   4.206  12.298  1.2983 -0.0598  1.3149
38194SOL    HW221698   2.170   4.158  12.344  0.1377  0.6104 -1.2412
38195SOL     OW21699   0.874   9.395  12.706 -0.3352 -0.6261  0.0126
38195SOL    HW121700   0.936   9.422  12.774 -0.4787  0.0286 -0.1100
38195SOL    HW221701   0.803   9.459  12.711 -0.3525 -0.5750 -0.7412
38196SOL     OW21702   6.739  12.328   0.153 -0.2462  0.9360 -0.0352
38196SOL    HW121703   6.707  12.344   0.242 -0.9857 -0.9177  0.0837
38196SOL    HW221704   6.660  12.325   0.100  0.0988  0.8981 -0.5499
38197SOL     OW21705   6.480   0.698   7.417 -0.2526 -0.3624 -0.0708
38197SOL    HW121706   6.477   0.673   7.325  3.1139  0.9095 -0.6710
38197SOL    HW221707   6.506   0.790   7.417 -1.6339  0.1261  2.1934
38198SOL     OW21708   9.208   5.751  11.650 -0.3593  0.1401 -0.0421
38198SOL    HW121709   9.182   5.797  11.570 -1.5286  0.2017  0.3535
38198SOL    HW221710   9.171   5.663  11.640  1.0338 -0.4218 -0.3618
38199SOL     OW21711  10.626   3.760  12.047  0.2122  0.2782 -0.0542
38199SOL    HW121712  10.565   3.829  12.020 -0.4065 -0.1577  0.1857
38199SOL    HW221713  10.703   3.807  12.077  0.0451  0.8432 -0.4815
38200SOL     OW21714   7.389   6.404   1.273 -0.0043  0.3282 -0.1274
38200SOL    HW121715   7.403   6.441   1.360  0.4571  1.3194 -0.6074
38200SOL    HW221716   7.368   6.479   1.218 -0.1794 -0.2715 -0.9007
38201SOL     OW21717   2.569   9.773   4.832 -0.5361  0.2819 -0.6348
38201SOL    HW121718   2.495   9.803   4.779 -1.0379  0.9440  0.4217
38201SOL    HW221719   2.645   9.783   4.775 -0.7887  2.8300 -0.6131
38202SOL     OW21720   5.985   5.085   1.111  0.1838  0.3827  0.4571
38202SOL    HW121721   5.936   5.120   1.037 -0.1679  0.6822  0.8306
38202SOL    HW221722   6.055   5.148   1.127  1.3132 -0.5199 -0.6951
38203SOL     OW21723   7.069   2.813   1.173 -0.1149  0.0348 -0.9242
38203SOL    HW121724   7.010   2.738   1.168 -0.5558  0.3349 -0.2665
38203SOL    HW221725   7.084   2.838   1.081 -1.5378  0.3730 -1.0915
38204SOL     OW21726   9.897   1.075   1.142  0.3025  0.5357  0.2220
38204SOL    HW121727   9.966   1.024   1.100  0.7065 -0.1185  1.6310
38204SOL    HW221728   9.940   1.154   1.172  0.1314  0.7475 -0.0791
38205SOL     OW21729   3.086   0.293   1.237  0.4064  0.0407  0.3564
38205SOL    HW121730   3.174   0.329   1.230  0.5910 -0.7042 -1.5257
38205SOL    HW221731   3.097   0.198   1.236 -0.2367 -0.1852  3.2980
38206SOL     OW21732   7.887   3.974   4.512 -0.0041 -0.1425 -0.0392
38206SOL    HW121733   7.846   4.057   4.538  1.9124  1.4658 -1.8031
38206SOL    HW221734   7.974   3.978   4.550  0.1512 -1.2919 -0.2621
38207SOL     OW21735  10.509   1.333   5.741 -0.3154 -0.2983  0.4641
38207SOL    HW121736  10.523   1.352   5.834 -0.6200  0.6520  0.3239
38207SOL    HW221737  10.553   1.404   5.695  1.0741 -1.5348 -0.1783
38208SOL     OW21738  12.916   1.139   4.901 -0.3189  0.8131  0.1500
38208SOL    HW121739  12.866   1.190   4.837 -1.1312  0.2657  0.3446
38208SOL    HW221740  12.999   1.187   4.909 -0.6544  1.5220 -0.4532
38209SOL     OW21741   4.926   7.311   4.245  0.2329  0.1250 -0.5714
38209SOL    HW121742   4.934   7.264   4.328  0.1191  1.1709  0.0404
38209SOL    HW221743   4.838   7.350   4.248 -0.7144 -1.7017 -2.1925
38210SOL     OW21744  10.728   0.477   2.028  0.0874  0.4969  0.2759
38210SOL    HW121745  10.649   0.471   2.081 -1.2158  1.1440 -1.4664
38210SOL    HW221746  10.788   0.413   2.066 -1.4894 -0.4362  1.3040
38211SOL     OW21747  11.704   9.289   9.041 -0.4953 -0.3170  0.1041
38211SOL    HW121748  11.740   9.274   8.954  0.6661  0.3943  0.4423
38211SOL    HW221749  11.670   9.203   9.067 -0.1735 -0.7183 -0.7399
38212SOL     OW21750   9.838   6.866   2.977  0.2024 -0.0208 -0.8145
38212SOL    HW121751   9.748   6.898   2.965  0.0943 -0.2757 -0.6899
38212SOL    HW221752   9.892   6.928   2.929  0.0835  0.9102  0.2095
38213SOL     OW21753   8.663   7.333   4.658 -0.4990 -0.0823 -0.2579
38213SOL    HW121754   8.716   7.261   4.692 -1.2843  0.5931  2.7233
38213SOL    HW221755   8.726   7.392   4.617  1.1062  0.3598  2.5704
38214SOL     OW21756  11.769  10.040  12.013  0.6233  0.0221 -0.5852
38214SOL    HW121757  11.785   9.992  12.094  0.8552  1.3488  0.1803
38214SOL    HW221758  11.774   9.973  11.945  3.7769 -0.6452  0.1359
38215SOL     OW21759   8.703   5.349   9.583  0.0529 -0.3588 -0.0446
38215SOL    HW121760   8.720   5.325   9.675  0.5175  1.1094  0.2749
38215SOL    HW221761   8.762   5.293   9.533 -0.1994 -1.1788  0.5353
38216SOL     OW21762   6.035   6.741  10.947 -0.1456  0.0982 -0.1616
38216SOL    HW121763   6.053   6.742  11.041  1.1203  0.6571 -0.3931
38216SOL    HW221764   5.980   6.664  10.934 -0.1542 -0.1085  1.0056
38217SOL     OW21765   8.716   8.698  11.586 -0.3715  0.1955 -0.2511
38217SOL    HW121766   8.701   8.719  11.678 -2.0781 -0.3135 -0.3640
38217SOL    HW221767   8.669   8.615  11.573 -0.0249  0.1786 -1.5310
38218SOL     OW21768   6.540   8.877  11.947  0.6295  1.0096 -0.0406
38218SOL    HW121769   6.514   8.813  12.013  1.9517 -0.2040 -0.6328
38218SOL    HW221770   6.609   8.928  11.989  2.5311 -0.7327 -0.8852
38219SOL     OW21771   7.780   7.365   6.078 -0.7278 -0.9496 -0.0314
38219SOL    HW121772   7.772   7.326   6.165 -2.6043 -2.9818 -1.0249
38219SOL    HW221773   7.845   7.310   6.034  0.9443  0.6561  0.3160
38220SOL     OW21774   7.308   0.114  10.488 -0.0284 -0.0145  0.2132
38220SOL    HW121775   7.387   0.162  10.461 -0.1742 -0.0750 -0.3291
38220SOL    HW221776   7.322   0.097  10.581  0.7213 -0.2583  0.0643
38221SOL     OW21777  10.488   6.985   9.547 -0.2488  0.2347 -0.1413
38221SOL    HW121778  10.454   6.902   9.579 -2.1249  1.0056 -0.0514
38221SOL    HW221779  10.495   6.973   9.452 -0.3795 -0.0622 -0.1136
38222SOL     OW21780  10.318  10.385   3.403 -0.2394  0.1092 -0.4122
38222SOL    HW121781  10.341  10.475   3.426 -2.6807  1.1829 -1.7181
38222SOL    HW221782  10.345  10.376   3.311 -3.1359  0.8524 -1.4510
38223SOL     OW21783  11.215   8.217   7.483  0.2993 -0.5575 -0.3612
38223SOL    HW121784  11.275   8.222   7.557  0.2880  0.3629 -0.4083
38223SOL    HW221785  11.233   8.296   7.432 -0.8465 -0.3448 -0.4550
38224SOL     OW21786   1.727   3.175  11.028  0.1583 -0.7477 -0.1242
38224SOL    HW121787   1.763   3.089  11.051  0.4914 -0.6404 -0.2457
38224SOL    HW221788   1.708   3.169  10.935  1.3392 -0.2818 -0.4085
38225SOL     OW21789   2.579  11.314  10.254  0.7305  0.7885  0.2909
38225SOL    HW121790   2.523  11.263  10.312  2.6661 -0.0375  1.5195
38225SOL    HW221791   2.519  11.353  10.191 -1.2754  0.4111  1.8733
38226SOL     OW21792   1.625   0.388   3.876  1.2155 -0.0519 -0.5004
38226SOL    HW121793   1.716   0.376   3.904  1.5051 -0.8216 -1.6858
38226SOL    HW221794   1.592   0.299   3.865  0.5631  0.2263 -0.8361
38227SOL     OW21795  12.483   2.279   8.034  0.6937  0.2629 -1.0981
38227SOL    HW121796  12.484   2.357   7.979  1.1823 -0.1350 -1.6670
38227SOL    HW221797  12.563   2.232   8.011 -0.0059 -0.8287 -1.3742
38228SOL     OW21798   5.134   9.950   0.884  0.2087  0.2444  0.2388
38228SOL    HW121799   5.186   9.874   0.910  0.5666 -0.3426 -2.0091
38228SOL    HW221800   5.043   9.922   0.897  0.3146 -0.8031 -1.0089
38229SOL     OW21801  11.093   2.596   4.778  0.3552 -0.1999 -0.3289
38229SOL    HW121802  11.176   2.584   4.732 -0.5977  0.4489 -2.3360
38229SOL    HW221803  11.074   2.690   4.769 -0.6685 -0.3695 -0.0703
38230SOL     OW21804   7.433   6.017   7.367 -0.1893 -0.1689  0.1652
38230SOL    HW121805   7.397   5.981   7.448  0.6654  0.9714  1.1003
38230SOL    HW221806   7.433   6.112   7.382  1.7139 -0.0440 -0.4030
38231SOL     OW21807   9.690  12.706   4.934  0.1222  0.2547 -0.3605
38231SOL    HW121808   9.705  12.799   4.922  0.8513  0.1771 -0.1130
38231SOL    HW221809   9.631  12.681   4.863 -0.7569  1.0668  0.0675
38232SOL     OW21810  12.631   6.006  10.066  0.2875 -0.8153 -0.5530
38232SOL    HW121811  12.622   5.928  10.011 -0.9327 -0.2887 -1.1314
38232SOL    HW221812  12.547   6.051  10.058  0.0840 -0.6759  1.7092
38233SOL     OW21813   0.575  11.490   9.392 -0.5486  0.0942 -0.1315
38233SOL    HW121814   0.543  11.532   9.312 -0.0851 -0.2611 -0.5020
38233SOL    HW221815   0.497  11.449   9.430 -0.6020 -0.4953 -0.8650
38234SOL     OW21816   7.835   9.802   0.341  0.4813  0.1487 -0.1113
38234SOL    HW121817   7.890   9.734   0.379 -0.5648 -0.1511  0.9298
38234SOL    HW221818   7.859   9.882   0.389  0.1431  0.0561  0.2132
38235SOL     OW21819   8.761   8.884   2.327 -0.3594  0.4663 -0.7435
38235SOL    HW121820   8.774   8.965   2.376  1.6970  0.0398 -0.5067
38235SOL    HW221821   8.746   8.912   2.237 -2.2671  1.1734 -0.2580
38236SOL     OW21822   9.950  12.452  12.786  0.2178 -0.2262 -0.0590
38236SOL    HW121823   9.908  12.450  12.700 -1.3243  1.0451  0.6183
38236SOL    HW221824   9.882  12.423  12.846  0.5464  1.0808  0.9795
38237SOL     OW21825   1.657   8.773   7.386 -0.1190 -0.6293  0.1650
38237SOL    HW121826   1.623   8.815   7.307 -0.1741  0.4294  0.7255
38237SOL    HW221827   1.741   8.817   7.401  0.5848 -1.8419 -0.1037
38238SOL     OW21828   9.323   8.307   8.310 -0.1010 -0.0298  0.2794
38238SOL    HW121829   9.391   8.265   8.257  1.3038  3.5842 -1.1286
38238SOL    HW221830   9.369   8.338   8.388  0.7043  4.3843 -1.6659
38239SOL     OW21831   5.061   4.970   4.054 -0.1340 -0.1638 -0.5362
38239SOL    HW121832   5.136   4.911   4.059 -0.6370 -0.7836 -0.1763
38239SOL    HW221833   5.033   4.981   4.145 -0.5298 -0.0007 -0.6743
38240SOL     OW21834   2.290   4.825  12.099 -0.1149  0.0709  0.3264
38240SOL    HW121835   2.262   4.762  12.032  0.1961  0.1840  0.0902
38240SOL    HW221836   2.381   4.846  12.076  0.2044 -0.3584  1.1368
38241SOL     OW21837   2.966  11.265   3.751 -0.0574 -0.0280 -0.0081
38241SOL    HW121838   2.981  11.317   3.830 -1.8014  1.1794 -0.3935
38241SOL    HW221839   2.929  11.183   3.784 -2.3961  1.1086  0.4606
38242SOL     OW21840   9.740   2.674   4.472 -0.3551  0.2626 -0.1459
38242SOL    HW121841   9.827   2.714   4.465 -0.2608  0.1663  0.4340
38242SOL    HW221842   9.685   2.743   4.511 -0.6302  0.4457 -0.8381
38243SOL     OW21843   3.809   5.677   0.685  0.8117  0.3663  0.4258
38243SOL    HW121844   3.762   5.735   0.745 -0.5122 -0.8075  0.5605
38243SOL    HW221845   3.887   5.651   0.735  0.0162 -0.1459  1.4450
38244SOL     OW21846   0.533  11.441  10.398  0.0675 -0.5914 -0.6801
38244SOL    HW121847   0.442  11.420  10.416  0.6577 -0.9999  2.2629
38244SOL    HW221848   0.567  11.364  10.351 -0.2460 -2.0755  1.3959
38245SOL     OW21849   5.721   1.579  10.330 -0.0937 -0.0456 -0.1704
38245SOL    HW121850   5.645   1.629  10.302 -0.2615 -0.7230 -0.9516
38245SOL    HW221851   5.764   1.552  10.249  1.5356  1.1405  0.2398
38246SOL     OW21852   4.599   7.158  10.280  0.0406  0.2285  0.0694
38246SOL    HW121853   4.645   7.200  10.352  1.0241 -0.0405 -0.3968
38246SOL    HW221854   4.633   7.201  10.201  0.0909 -0.5304 -0.3260
38247SOL     OW21855   1.102   4.821   2.124  0.0273 -0.0208  0.2481
38247SOL    HW121856   1.027   4.879   2.116 -1.2391 -1.5691  0.3768
38247SOL    HW221857   1.110   4.779   2.038  1.5795  1.0527 -0.1764
38248SOL     OW21858   0.588   5.878   2.872  0.0089  0.0112  0.8097
38248SOL    HW121859   0.640   5.825   2.812  1.2132  1.6269  0.3613
38248SOL    HW221860   0.553   5.815   2.935  0.2279 -1.4798 -0.4909
38249SOL     OW21861   7.315   9.334   0.669 -0.4813 -0.8876  0.0297
38249SOL    HW121862   7.342   9.376   0.588 -0.9772 -0.6779 -0.0302
38249SOL    HW221863   7.232   9.377   0.692  0.4739  0.2491  1.5286
38250SOL     OW21864   0.303   8.988   0.278 -0.2112 -0.3364 -0.8827
38250SOL    HW121865   0.301   8.894   0.262 -1.4683 -0.5887  0.5080
38250SOL    HW221866   0.225   9.004   0.332 -0.1038  1.5230 -1.2260
38251SOL     OW21867   3.950   1.563   1.228  0.4027  0.0326  0.2776
38251SOL    HW121868   3.857   1.541   1.217  0.4018  0.1093  0.1331
38251SOL    HW221869   3.972   1.530   1.315  0.6888 -1.5042 -0.3466
38252SOL     OW21870  12.926   2.712   6.003 -0.4244 -0.1523  0.8864
38252SOL    HW121871  12.927   2.646   6.072 -1.0629  0.4036  1.4363
38252SOL    HW221872  12.835   2.742   6.000 -0.4769 -0.3531 -0.3759
38253SOL     OW21873  12.507   0.564   2.495 -0.1985 -0.0121 -0.7588
38253SOL    HW121874  12.551   0.479   2.489  1.2102  0.4511  1.7949
38253SOL    HW221875  12.565   0.624   2.449 -0.6386 -0.2034 -1.5901
38254SOL     OW21876   3.925  11.562   6.436  0.2318  0.0784  0.3294
38254SOL    HW121877   3.979  11.569   6.357 -0.0482 -2.0573 -0.1244
38254SOL    HW221878   3.935  11.470   6.463 -1.7748  0.0840  1.2345
38255SOL     OW21879  12.581   4.575   4.311  0.7003  0.2896  0.9704
38255SOL    HW121880  12.638   4.540   4.380  1.2890  0.3807  0.5358
38255SOL    HW221881  12.631   4.563   4.230 -0.5579 -1.1586  0.3481
38256SOL     OW21882   8.989   9.360   4.603 -0.1686 -0.8455 -0.4479
38256SOL    HW121883   8.986   9.351   4.698 -0.5595  0.0086 -0.3667
38256SOL    HW221884   8.910   9.410   4.581  1.0487  0.9407 -0.9686
38257SOL     OW21885  12.822   5.220   7.494  0.5087  0.4622  0.0305
38257SOL    HW121886  12.756   5.279   7.458  1.5352  0.9857 -1.0835
38257SOL    HW221887  12.820   5.237   7.588  0.6792  2.2112 -0.2383
38258SOL     OW21888  10.192   3.205  11.867 -0.2022 -0.9131 -0.1473
38258SOL    HW121889  10.149   3.135  11.915 -1.5099  1.1359  1.8523
38258SOL    HW221890  10.264   3.233  11.923 -0.9812  0.6968  0.1130
38259SOL     OW21891  11.878   0.062  12.104  0.0900 -0.4274 -0.2035
38259SOL    HW121892  11.867   0.113  12.184  1.4513  0.8301 -0.7705
38259SOL    HW221893  11.837   0.115  12.035  0.7226 -0.5105 -0.6564
38260SOL     OW21894  11.710   9.554   7.190 -0.6889  0.0328  0.0674
38260SOL    HW121895  11.796   9.595   7.176 -0.6452 -0.1645 -0.2839
38260SOL    HW221896  11.649   9.627   7.194 -0.6223  0.1376 -0.6230
38261SOL     OW21897   6.847   3.220   7.588  0.2895  0.0291  0.8252
38261SOL    HW121898   6.874   3.129   7.596  1.2237  0.4544  3.7505
38261SOL    HW221899   6.760   3.215   7.548  1.6262 -1.8313 -2.2141
38262SOL     OW21900  10.378   6.736   4.591  0.4028 -0.1452 -0.6556
38262SOL    HW121901  10.455   6.752   4.536 -0.5338  1.1138 -1.6657
38262SOL    HW221902  10.327   6.672   4.541 -0.0436  0.3604 -0.8557
38263SOL     OW21903   3.006   3.199   4.157 -0.3326  0.5870 -0.2519
38263SOL    HW121904   3.053   3.146   4.222 -0.2701 -1.6484 -1.9725
38263SOL    HW221905   3.000   3.286   4.197 -0.2741 -0.6267  2.6902
38264SOL     OW21906   7.464  12.925   5.775 -0.2386  0.1104 -0.3847
38264SOL    HW121907   7.401  12.892   5.710 -0.7858  0.1099  0.1323
38264SOL    HW221908   7.540  12.951   5.723 -0.5006 -0.2830 -0.9832
38265SOL     OW21909   7.973   7.608   3.072 -0.3262  0.1275  0.0605
38265SOL    HW121910   7.889   7.564   3.061 -0.0645 -0.4013  0.1735
38265SOL    HW221911   8.036   7.538   3.090  0.1872  0.4955 -0.2634
38266SOL     OW21912   9.505   9.414   9.949  0.8817  0.3204  0.3673
38266SOL    HW121913   9.496   9.468  10.027 -0.8743 -0.2135  0.5780
38266SOL    HW221914   9.541   9.331   9.981  2.2117  0.8446  0.2621
38267SOL     OW21915   6.392   1.487   5.959 -0.8918  0.1689  0.8672
38267SOL    HW121916   6.376   1.578   5.936  0.2925  0.2291  0.2271
38267SOL    HW221917   6.361   1.437   5.883  1.6654  0.2779 -0.3268
38268SOL     OW21918   5.091   2.955  11.449 -0.0117  0.0014  0.0228
38268SOL    HW121919   5.152   2.981  11.517 -1.5982 -0.7403  1.8440
38268SOL    HW221920   5.036   3.032  11.435  0.0773  0.0343 -0.1462
38269SOL     OW21921   3.425   9.797   6.064 -0.1780  0.6454 -0.2573
38269SOL    HW121922   3.424   9.827   6.155 -2.0023  1.6190 -0.5709
38269SOL    HW221923   3.518   9.783   6.045  0.3929  2.2157  1.1753
38270SOL     OW21924   5.393   3.073   1.753  0.6520  0.4289 -0.2047
38270SOL    HW121925   5.341   3.153   1.765  0.5106  0.4063 -0.6654
38270SOL    HW221926   5.436   3.060   1.838 -0.6925  0.0237  0.4371
38271SOL     OW21927   3.230   4.835  10.184  0.4328 -0.2700 -0.1116
38271SOL    HW121928   3.276   4.806  10.105  0.3102  0.9636 -0.6589
38271SOL    HW221929   3.156   4.774  10.191  1.1287 -1.1649 -0.2218
38272SOL     OW21930   8.797   6.430   3.090  0.8626  0.1696 -0.1454
38272SOL    HW121931   8.768   6.517   3.119  0.1614 -0.3550  0.7942
38272SOL    HW221932   8.865   6.405   3.153  0.4891 -0.2888  0.0892
38273SOL     OW21933   0.388   7.139   4.677 -0.5700  0.5778  0.1439
38273SOL    HW121934   0.311   7.093   4.712  1.3193 -2.2098  1.0073
38273SOL    HW221935   0.425   7.078   4.613  2.6170  0.3267  1.9945
38274SOL     OW21936   2.434   2.400   3.514  0.4874  0.0934  0.0422
38274SOL    HW121937   2.522   2.436   3.515  0.9153 -0.9361  1.2006
38274SOL    HW221938   2.439   2.319   3.565 -1.1943  0.2015  0.4697
38275SOL     OW21939  10.348   7.676  11.603 -0.6066  0.6974 -0.5241
38275SOL    HW121940  10.364   7.613  11.673  1.9009  0.8637 -0.8552
38275SOL    HW221941  10.253   7.672  11.589 -1.0113 -0.3254  1.9070
38276SOL     OW21942   9.391   5.982   0.652 -0.1044 -0.1309 -0.1209
38276SOL    HW121943   9.306   5.979   0.695  0.0416  1.3178  0.3062
38276SOL    HW221944   9.395   5.900   0.602 -0.8985 -1.1684  1.4195
38277SOL     OW21945   8.346   7.457   5.083 -0.6995  0.2734 -0.4547
38277SOL    HW121946   8.401   7.382   5.062 -1.0942 -0.4207  0.8546
38277SOL    HW221947   8.275   7.455   5.019 -0.5460 -0.3091 -0.6072
38278SOL     OW21948   3.444   8.219   2.992 -0.3095 -0.2394  0.5115
38278SOL    HW121949   3.527   8.204   2.948 -0.8236 -1.1486 -0.1916
38278SOL    HW221950   3.423   8.135   3.033 -1.5924 -0.5087 -0.5975
38279SOL     OW21951   9.984   9.264   9.306 -0.6023  0.2495 -0.1117
38279SOL    HW121952  10.028   9.273   9.221 -0.4497 -0.0790 -0.0699
38279SOL    HW221953  10.007   9.344   9.354  1.1059 -0.5254  0.4307
38280SOL     OW21954   5.189  11.415   8.711 -0.7544 -0.3017 -0.3404
38280SOL    HW121955   5.277  11.385   8.689 -1.5261 -0.5185 -3.6709
38280SOL    HW221956   5.136  11.335   8.714 -1.2934  0.0071 -1.1097
38281SOL     OW21957   2.379   7.694   6.907 -0.3122 -0.1248  0.4025
38281SOL    HW121958   2.300   7.687   6.961  0.1325  1.9105  1.4338
38281SOL    HW221959   2.435   7.756   6.955  1.7316 -1.1553 -0.5264
38282SOL     OW21960   9.493  12.849   2.227 -0.6999  0.4690  0.1826
38282SOL    HW121961   9.534  12.874   2.144  0.3472  1.6375  0.9987
38282SOL    HW221962   9.531  12.764   2.248 -1.1375  0.0654 -0.6324
38283SOL     OW21963  10.853   9.877   3.634 -0.1510 -0.0069 -0.0008
38283SOL    HW121964  10.930   9.871   3.578 -1.7560  1.8001 -2.7184
38283SOL    HW221965  10.799   9.802   3.608  0.2581 -0.7275  1.1933
38284SOL     OW21966   7.838   5.591  12.382 -0.0291 -0.0987  0.2455
38284SOL    HW121967   7.824   5.655  12.313 -2.6545  0.1144  0.8814
38284SOL    HW221968   7.763   5.602  12.441  0.9302 -1.8249  1.9069
38285SOL     OW21969   5.449   4.610   6.888  0.4956 -0.2242  0.3061
38285SOL    HW121970   5.375   4.551   6.872  0.3123 -0.4929  1.9349
38285SOL    HW221971   5.423   4.692   6.847 -1.1210 -0.0670  1.5265
38286SOL     OW21972  12.255   8.805   6.497 -0.5286 -0.3036 -0.1099
38286SOL    HW121973  12.207   8.730   6.530 -1.6414 -0.0062 -0.9861
38286SOL    HW221974  12.188   8.863   6.462  0.3963  0.5814 -0.4779
38287SOL     OW21975   5.030  12.919   1.772 -0.2061 -0.1747  0.3097
38287SOL    HW121976   4.970  12.952   1.839 -0.3250  0.2962 -0.0219
38287SOL    HW221977   5.007  12.827   1.762 -1.6894  0.2669 -0.6485
38288SOL     OW21978   2.359   1.715   7.986 -0.5601  0.0575  0.2004
38288SOL    HW121979   2.444   1.733   8.026 -0.5978 -0.3188  0.4492
38288SOL    HW221980   2.367   1.749   7.897 -0.1784  0.1004  0.2483
38289SOL     OW21981   5.739   1.380   6.067  0.3303  0.3271 -0.6681
38289SOL    HW121982   5.697   1.310   6.117 -0.1793  1.4570  0.5720
38289SOL    HW221983   5.681   1.456   6.079  1.8084  1.4618 -0.3493
38290SOL     OW21984   5.728   5.484   5.535 -0.2392 -0.0476 -0.2487
38290SOL    HW121985   5.793   5.537   5.489  0.4008 -0.7250 -0.1453
38290SOL    HW221986   5.724   5.522   5.623 -0.3381  0.2868 -0.3941
38291SOL     OW21987   5.465   1.224   8.090 -0.3366  0.1240 -0.0480
38291SOL    HW121988   5.558   1.241   8.108 -0.6096 -0.6654  2.5143
38291SOL    HW221989   5.454   1.248   7.998  2.1443  1.2874 -0.1288
38292SOL     OW21990   7.836   2.607   9.271 -0.6626 -0.3417  0.6769
38292SOL    HW121991   7.872   2.617   9.183 -2.0541  0.5438  0.1764
38292SOL    HW221992   7.910   2.621   9.329 -0.0037  0.4962 -0.3281
38293SOL     OW21993  12.491   1.356   7.816 -0.3610  0.1879  0.0859
38293SOL    HW121994  12.438   1.433   7.840  0.2139  0.5205  0.3266
38293SOL    HW221995  12.560   1.392   7.761 -1.7637 -0.5967 -2.3232
38294SOL     OW21996   9.426   8.547   3.388 -0.5234  0.0845  0.0915
38294SOL    HW121997   9.468   8.496   3.318 -0.3322  0.2605  0.0778
38294SOL    HW221998   9.332   8.538   3.371 -0.4681  0.7016 -0.6000
38295SOL     OW21999   4.921  11.656   9.783 -0.0605 -0.3482  0.4383
38295SOL    HW122000   4.918  11.705   9.865  0.9223 -0.6043  0.6410
38295SOL    HW222001   4.997  11.599   9.792 -0.6495 -1.2564 -0.1612
38296SOL     OW22002   0.099   9.799   0.709 -0.0148  0.0047  0.1863
38296SOL    HW122003   0.136   9.886   0.693 -1.6994  1.0431  1.5496
38296SOL    HW222004   0.167   9.753   0.759  0.6102  0.7990  0.0853
38297SOL     OW22005   7.084   0.695   0.681  0.2775  0.3306  0.5084
38297SOL    HW122006   7.033   0.617   0.701 -0.1921  1.0219  2.2198
38297SOL    HW222007   7.026   0.747   0.624 -0.5454  0.6439  1.6000
38298SOL     OW22008   3.038   5.663   5.113  0.1117  0.1371  0.6304
38298SOL    HW122009   3.055   5.597   5.046 -0.7623  0.8571 -0.3359
38298SOL    HW222010   3.118   5.666   5.165  0.9731 -0.1446 -0.6326
38299SOL     OW22011  10.341   3.186   7.036  0.6141  0.1808 -0.2385
38299SOL    HW122012  10.412   3.181   6.972  3.2440 -0.0572  2.4766
38299SOL    HW222013  10.307   3.096   7.042  0.9460  0.0274 -0.6476
38300SOL     OW22014   0.801  11.631  10.894  0.6613  0.2027  0.1733
38300SOL    HW122015   0.770  11.581  10.819  3.2629 -1.6542  0.2105
38300SOL    HW222016   0.878  11.678  10.861 -1.1595  3.6681  0.3869
38301SOL     OW22017  10.942   7.974  10.329  0.7423 -0.1068  0.1123
38301SOL    HW122018  10.908   7.934  10.249  0.5609 -2.7508  1.3723
38301SOL    HW222019  11.028   7.934  10.342  1.2566  1.1260  0.6671
38302SOL     OW22020   4.672   7.589   8.613 -0.7615 -0.1587 -0.4228
38302SOL    HW122021   4.651   7.610   8.521 -1.4066 -0.3326 -0.3179
38302SOL    HW222022   4.721   7.507   8.608  0.3231  0.4751 -0.7044
38303SOL     OW22023   0.892  10.402   6.502 -0.0058 -0.2807 -0.5869
38303SOL    HW122024   0.831  10.475   6.496  1.8289  1.4734  0.8354
38303SOL    HW222025   0.851  10.332   6.452 -2.0170  1.5869 -1.6924
38304SOL     OW22026   4.623   4.583   1.288  0.2403  0.1671  0.5767
38304SOL    HW122027   4.695   4.600   1.348  0.2156  1.2477  0.3219
38304SOL    HW222028   4.647   4.629   1.207  0.1579 -1.0592 -0.1728
38305SOL     OW22029   5.846   0.031   5.677  0.3236 -0.4536  0.4062
38305SOL    HW122030   5.892   0.115   5.671  0.7174 -0.5402  1.9591
38305SOL    HW222031   5.911  -0.030   5.711 -0.2122 -1.1986  0.1317
38306SOL     OW22032   7.936   0.837   3.441 -0.1236  0.6317 -0.2635
38306SOL    HW122033   8.008   0.773   3.445  0.7226  1.5559 -0.3602
38306SOL    HW222034   7.918   0.859   3.532  0.5302  1.2846 -0.2878
38307SOL     OW22035   2.083   7.666   4.473  0.3535 -0.0939  0.0032
38307SOL    HW122036   2.127   7.731   4.528  1.4305 -0.0986 -0.7976
38307SOL    HW222037   1.990   7.675   4.494  0.7250 -0.1810  1.8694
38308SOL     OW22038   5.850   3.183  12.271  0.0568 -0.8474  0.6780
38308SOL    HW122039   5.761   3.213  12.288 -0.1616 -1.0654 -0.0503
38308SOL    HW222040   5.905   3.240  12.324 -0.4389  0.0509  0.2424
38309SOL     OW22041  10.017  11.983   1.098  0.6338  0.5005 -0.6590
38309SOL    HW122042  10.040  12.050   1.035  0.5127 -0.0895 -1.3447
38309SOL    HW222043  10.070  11.907   1.074 -0.0110  0.0085 -0.5657
38310SOL     OW22044   4.032   1.387   4.352 -0.5775 -0.2680  0.3148
38310SOL    HW122045   3.962   1.407   4.414 -0.0509 -1.2826  1.2646
38310SOL    HW222046   4.112   1.409   4.398 -0.2148 -0.1556 -0.3591
38311SOL     OW22047   2.004  12.286   2.535 -0.1402 -0.0336 -0.3622
38311SOL    HW122048   2.064  12.270   2.609 -2.0725 -1.1203  1.0390
38311SOL    HW222049   1.969  12.374   2.552  2.2512  1.3859 -2.1428
38312SOL     OW22050   9.748   6.245   7.534  0.0575 -0.2743 -0.1177
38312SOL    HW122051   9.748   6.209   7.446 -0.7648  0.6718 -0.5182
38312SOL    HW222052   9.666   6.215   7.573  0.8610 -1.4940  0.6805
38313SOL     OW22053   9.371   0.008  11.428  0.3741  0.5407 -0.0455
38313SOL    HW122054   9.407   0.007  11.517  1.3384  2.9556 -0.3177
38313SOL    HW222055   9.276   0.007  11.440  0.4910  0.9369  1.0282
38314SOL     OW22056  10.498  10.625  10.592  0.4994 -0.4265 -0.0036
38314SOL    HW122057  10.544  10.557  10.542 -0.3053 -1.2655  0.3819
38314SOL    HW222058  10.414  10.635  10.548 -0.5337 -1.7150  1.5797
38315SOL     OW22059   4.158   5.249   0.437 -0.0387 -0.0017 -0.0304
38315SOL    HW122060   4.122   5.322   0.386 -1.8625 -1.4278 -0.9106
38315SOL    HW222061   4.088   5.227   0.498  1.0567 -0.1101  1.2116
38316SOL     OW22062  11.437  10.784   4.565 -0.0606  0.7110 -0.0821
38316SOL    HW122063  11.344  10.765   4.555  0.1389 -0.1064 -0.4933
38316SOL    HW222064  11.463  10.734   4.643 -0.1191  1.5500  0.4930
38317SOL     OW22065  12.140   4.318   3.888 -0.7169 -0.2593  0.0392
38317SOL    HW122066  12.080   4.386   3.858  0.6436  0.9698 -0.0262
38317SOL    HW222067  12.199   4.303   3.813  0.0646 -0.2339  0.6317
38318SOL     OW22068   2.279   9.651   4.031  0.4467  0.0759  0.1649
38318SOL    HW122069   2.264   9.688   4.118  0.4383  0.3466  0.0519
38318SOL    HW222070   2.353   9.701   3.996  0.3521  0.0751 -0.0403
38319SOL     OW22071   4.053   3.092   4.902  0.7557  0.0706 -0.2325
38319SOL    HW122072   4.029   3.015   4.954 -2.7850  1.8182  1.0686
38319SOL    HW222073   4.088   3.154   4.966 -2.0407  1.6165 -0.0374
38320SOL     OW22074   8.756  12.691   9.671  0.0796  0.3317  0.3225
38320SOL    HW122075   8.825  12.751   9.644  0.6163  0.7914  2.4937
38320SOL    HW222076   8.747  12.630   9.598  1.6645  1.2204 -0.6733
38321SOL     OW22077   4.567   9.758   4.586  0.0684 -0.9710 -0.2048
38321SOL    HW122078   4.488   9.704   4.575  0.1254 -1.2208  0.5399
38321SOL    HW222079   4.639   9.695   4.589  0.4504 -0.6779 -2.0753
38322SOL     OW22080   8.232  11.502   6.475 -0.3280 -0.3021  0.0743
38322SOL    HW122081   8.204  11.412   6.458 -0.1139 -0.4861  0.6949
38322SOL    HW222082   8.272  11.499   6.562 -0.3369  0.3980  0.1059
38323SOL     OW22083  12.543  10.192  10.659 -0.3488  0.4316  0.0839
38323SOL    HW122084  12.583  10.248  10.593 -0.9309 -1.7441 -2.2677
38323SOL    HW222085  12.452  10.184  10.631  0.0045 -2.6799 -0.4982
38324SOL     OW22086   0.687   8.649   3.364  0.0199  0.1179  0.5323
38324SOL    HW122087   0.725   8.565   3.392  0.9664  0.2901 -0.1962
38324SOL    HW222088   0.596   8.645   3.394  0.2226 -0.9039  1.0663
38325SOL     OW22089   7.663   7.507   9.976 -0.4227 -0.9245  0.3664
38325SOL    HW122090   7.694   7.573  10.037  0.2977 -0.7243 -0.1995
38325SOL    HW222091   7.713   7.523   9.896 -0.5894 -1.8467  0.0644
38326SOL     OW22092   6.163   7.035   0.169 -0.3428 -0.2166 -0.3720
38326SOL    HW122093   6.209   6.996   0.244 -1.3758 -0.9456 -0.1048
38326SOL    HW222094   6.144   7.124   0.197  1.4508  0.3303 -0.7342
38327SOL     OW22095   1.731  11.494   1.353 -0.5969 -0.1632  0.5360
38327SOL    HW122096   1.709  11.582   1.382  0.1790  0.1365  0.2589
38327SOL    HW222097   1.808  11.506   1.298  0.8504 -1.2445  2.2162
38328SOL     OW22098   5.018  10.688   5.589 -0.3039 -0.2030 -0.4170
38328SOL    HW122099   4.974  10.697   5.674 -0.7330  0.0132 -0.6582
38328SOL    HW222100   4.951  10.710   5.525  0.1255  0.0259 -0.7976
38329SOL     OW22101   8.886   6.080   7.007  0.4004  0.0986 -0.2207
38329SOL    HW122102   8.801   6.054   6.970 -0.6258  1.0868  1.3283
38329SOL    HW222103   8.926   5.998   7.035  0.9005 -0.6091 -2.7523
38330SOL     OW22104   7.198   0.896   4.167 -0.3821 -0.4614 -0.6961
38330SOL    HW122105   7.287   0.926   4.145  0.3085 -0.8454  1.3644
38330SOL    HW222106   7.151   0.976   4.190 -0.1150 -0.3998 -0.3514
38331SOL     OW22107   3.104   7.057   5.402  0.4963  0.0036 -0.4109
38331SOL    HW122108   3.182   7.075   5.350 -0.1429 -0.7040 -1.6512
38331SOL    HW222109   3.099   6.962   5.406  1.5315 -0.0298  2.5463
38332SOL     OW22110   5.040  11.840   2.290  0.2032  0.1671 -0.1946
38332SOL    HW122111   5.044  11.753   2.329 -1.2111 -0.0118 -0.4002
38332SOL    HW222112   5.095  11.834   2.212  0.9685 -0.2123  0.3545
38333SOL     OW22113   6.728   4.655   6.063  0.3732  0.0392  0.2207
38333SOL    HW122114   6.781   4.596   6.008  0.8284 -0.8209  1.5213
38333SOL    HW222115   6.745   4.742   6.027  1.7335 -0.3459 -0.1649
38334SOL     OW22116   9.688   7.908   3.124  0.0317  0.2584  0.0559
38334SOL    HW122117   9.628   7.948   3.187  0.0744  1.7589 -0.8155
38334SOL    HW222118   9.729   7.836   3.172 -0.1824  1.1585  1.6497
38335SOL     OW22119   5.952   8.888   0.840 -0.4722  0.1375  0.1584
38335SOL    HW122120   6.036   8.913   0.800 -1.2808  2.0056 -0.5124
38335SOL    HW222121   5.939   8.952   0.910 -0.8589 -0.7897  0.9463
38336SOL     OW22122   9.454  10.482  10.927  0.3106  0.0687 -0.0808
38336SOL    HW122123   9.539  10.459  10.965  0.1879  0.0049  0.1569
38336SOL    HW222124   9.410  10.532  10.996  0.6650  1.2329 -0.6756
38337SOL     OW22125  11.919   5.087   7.107 -0.4667 -0.1178  0.1569
38337SOL    HW122126  11.847   5.054   7.053  0.3468  0.2699 -1.2104
38337SOL    HW222127  11.882   5.162   7.153 -0.6053  0.9559 -1.6040
38338SOL     OW22128   0.201  12.842   4.995  0.2791  0.1337 -0.1110
38338SOL    HW122129   0.276  12.898   4.973 -0.1495  0.6623 -0.2506
38338SOL    HW222130   0.167  12.814   4.911  1.1938 -1.3013 -0.0245
38339SOL     OW22131   9.681   0.442   1.224 -0.7848 -0.5146 -0.7593
38339SOL    HW122132   9.598   0.472   1.188 -0.1571 -0.5672 -2.3247
38339SOL    HW222133   9.747   0.478   1.165  0.2105 -1.7009 -0.4146
38340SOL     OW22134   2.857   3.052   3.361 -0.0264 -0.3660 -0.5609
38340SOL    HW122135   2.916   3.000   3.417 -0.1473 -0.4928 -0.5489
38340SOL    HW222136   2.898   3.138   3.356  0.1221 -0.4318 -0.4917
38341SOL     OW22137   6.002   0.167   5.284 -0.1017  0.5601  0.1003
38341SOL    HW122138   6.026   0.111   5.210  0.2667  1.0273 -0.1386
38341SOL    HW222139   6.085   0.189   5.325 -0.3966 -1.0674  1.6904
38342SOL     OW22140   9.480  12.157   5.387  1.2172  0.0001 -0.0340
38342SOL    HW122141   9.523  12.185   5.467  1.3823 -0.1903 -0.0545
38342SOL    HW222142   9.389  12.184   5.397  1.2462  0.0075  0.2025
38343SOL     OW22143   7.295   5.840  10.301  0.5948  0.1792 -0.4215
38343SOL    HW122144   7.254   5.891  10.231  0.6250  0.4494 -0.2454
38343SOL    HW222145   7.318   5.757  10.260 -0.9013 -0.3227 -0.3154
38344SOL     OW22146   1.220   0.337   2.941  0.0418 -0.1538 -0.5164
38344SOL    HW122147   1.128   0.351   2.961 -0.1780 -1.3029 -0.6166
38344SOL    HW222148   1.257   0.425   2.931 -0.7158  0.3516  0.9200
38345SOL     OW22149   4.038   5.802  11.003  0.4257  0.3090  0.0499
38345SOL    HW122150   4.086   5.720  10.989 -1.2793 -0.5808 -0.8522
38345SOL    HW222151   3.974   5.782  11.070  0.1182  0.9644 -0.0404
38346SOL     OW22152   4.474   1.872   7.709  0.5636  0.0242 -0.0628
38346SOL    HW122153   4.490   1.802   7.646  1.0076  0.4362 -0.4137
38346SOL    HW222154   4.538   1.856   7.779  0.7457  0.1486 -0.2007
38347SOL     OW22155   9.431   0.399  10.226  0.3087  0.1238  0.0070
38347SOL    HW122156   9.518   0.364  10.244 -0.6469 -1.4865  1.9959
38347SOL    HW222157   9.390   0.332  10.171 -0.1643  0.1013  0.3807
38348SOL     OW22158  10.713  12.422  10.512 -0.0378 -0.3054  0.1108
38348SOL    HW122159  10.705  12.360  10.584  2.0060 -1.1141 -0.3179
38348SOL    HW222160  10.746  12.502  10.553 -0.2202 -0.3123  0.2734
38349SOL     OW22161   6.805   5.211  12.842 -0.4682  0.1140 -0.6122
38349SOL    HW122162   6.886   5.175  12.877 -1.4408  0.0290  1.7470
38349SOL    HW222163   6.772   5.143  12.783  0.1505 -0.7251 -0.0090
38350SOL     OW22164  12.026  11.219   6.097 -0.1741 -0.3854  0.1353
38350SOL    HW122165  11.985  11.249   6.179  1.6354  0.4952  0.7890
38350SOL    HW222166  12.085  11.149   6.125 -0.8222 -1.2642 -0.6907
38351SOL     OW22167   3.859   1.072  10.673  0.2210 -0.2146 -0.2125
38351SOL    HW122168   3.840   1.117  10.591  0.7348 -1.7721 -1.2471
38351SOL    HW222169   3.884   1.141  10.734 -0.0106  0.9661 -1.4132
38352SOL     OW22170   5.351   0.793   4.384 -0.0070 -0.2663  0.2520
38352SOL    HW122171   5.272   0.745   4.359 -0.0735 -0.0080 -0.0395
38352SOL    HW222172   5.325   0.885   4.380  0.8213 -0.0734 -1.6909
38353SOL     OW22173   8.614   9.975   8.877 -0.3204 -0.2441 -0.4393
38353SOL    HW122174   8.644  10.047   8.933  0.1946 -0.2914 -0.6522
38353SOL    HW222175   8.536   9.942   8.921  0.4229 -0.6927  0.5862
38354SOL     OW22176   3.135   2.615  10.967  0.3780 -0.3318  0.1942
38354SOL    HW122177   3.094   2.690  10.924  0.5745 -1.1496 -1.4673
38354SOL    HW222178   3.203   2.586  10.906  0.1193 -2.0415  0.6682
38355SOL     OW22179   7.192   7.042   1.597  0.2891  0.2158 -0.1269
38355SOL    HW122180   7.114   7.084   1.634  0.6228 -0.0875  0.9522
38355SOL    HW222181   7.158   6.969   1.546 -0.1098 -0.9096  1.6388
38356SOL     OW22182   2.552  12.240   1.680  0.4907  0.2526 -0.2571
38356SOL    HW122183   2.589  12.327   1.694  0.8609 -0.2328  2.4290
38356SOL    HW222184   2.460  12.255   1.663  0.6381  1.1973 -0.2799
38357SOL     OW22185   6.854   9.527   4.549 -0.2385  0.0336  0.1325
38357SOL    HW122186   6.927   9.504   4.607 -0.0122  2.8698  1.1018
38357SOL    HW222187   6.889   9.592   4.489 -1.2494 -0.7530 -1.3805
38358SOL     OW22188   6.228   8.003   0.891 -0.3263  0.3299  0.0505
38358SOL    HW122189   6.290   7.936   0.862 -0.3408 -0.0456  0.8626
38358SOL    HW222190   6.279   8.058   0.951 -0.2245  1.2480 -0.8562
38359SOL     OW22191   0.906  12.896  11.732  0.3287 -0.7315  0.4476
38359SOL    HW122192   0.870  12.809  11.751 -0.2783 -0.8164 -0.9272
38359SOL    HW222193   0.858  12.955  11.789  2.0415 -1.4469  2.7838
38360SOL     OW22194  10.857   0.961   8.543 -0.4333 -0.2379 -0.3920
38360SOL    HW122195  10.804   0.889   8.578 -0.4058  0.0819  0.3123
38360SOL    HW222196  10.920   0.917   8.484  1.1865 -1.1197  1.8547
38361SOL     OW22197   0.523   0.562   7.962 -0.0178  0.3523 -0.2798
38361SOL    HW122198   0.491   0.649   7.940  0.7758  0.2305 -2.1133
38361SOL    HW222199   0.603   0.578   8.013 -0.9413  0.6517  1.1332
38362SOL     OW22200   6.183  10.992   6.360  0.0050 -0.2333  0.1869
38362SOL    HW122201   6.150  10.905   6.381  1.0130 -0.8678 -0.7229
38362SOL    HW222202   6.168  11.001   6.266 -1.2205  1.0976  0.4876
38363SOL     OW22203   0.337  10.763   7.121 -0.0757  0.3545  0.0633
38363SOL    HW122204   0.319  10.728   7.208  1.3986  1.2749  0.7888
38363SOL    HW222205   0.391  10.696   7.079 -1.1740 -0.2965 -0.3349
38364SOL     OW22206  12.706   4.519   1.811 -0.0460 -0.1695  0.7151
38364SOL    HW122207  12.738   4.591   1.758 -0.7388  1.1606  2.0240
38364SOL    HW222208  12.784   4.468   1.833  1.2215  2.5566  3.2255
38365SOL     OW22209   8.656   4.182   9.372  0.4961 -0.2300 -0.1854
38365SOL    HW122210   8.714   4.213   9.441 -0.2461 -1.3473  1.0072
38365SOL    HW222211   8.572   4.168   9.416  0.2458 -1.8492 -1.0937
38366SOL     OW22212   0.842   8.483   5.800  0.2081  0.1129 -0.1708
38366SOL    HW122213   0.937   8.485   5.811  0.1745  1.0604  0.0335
38366SOL    HW222214   0.809   8.539   5.870 -0.5820 -1.0859  0.4514
38367SOL     OW22215   8.483  10.289   3.979  0.2378  0.0833 -0.5934
38367SOL    HW122216   8.558  10.275   4.037 -0.3959  1.6363  0.6889
38367SOL    HW222217   8.521  10.295   3.892  1.4663 -0.3552 -0.1177
38368SOL     OW22218   6.788   4.759   6.693  0.2860 -0.1820 -0.8246
38368SOL    HW122219   6.800   4.671   6.658  0.2565 -0.1623 -0.8848
38368SOL    HW222220   6.856   4.768   6.760  0.3049 -0.2408 -0.8361
38369SOL     OW22221   7.474   6.609   4.861  0.6335 -0.0136  0.1121
38369SOL    HW122222   7.495   6.668   4.934  3.1393 -2.3703  1.4674
38369SOL    HW222223   7.554   6.606   4.809 -0.9662  1.2784 -2.6576
38370SOL     OW22224  12.215   6.917   8.967  0.1184  0.7253  0.0429
38370SOL    HW122225  12.253   6.874   9.044 -1.2277  0.6994  0.7356
38370SOL    HW222226  12.251   6.869   8.892 -0.5361 -0.9895  0.7627
38371SOL     OW22227   5.163   3.024  10.563 -0.1735 -1.0709  0.3286
38371SOL    HW122228   5.224   3.085  10.522  0.3467 -0.0065  2.5062
38371SOL    HW222229   5.114   3.078  10.626 -0.7226 -2.6153  1.2857
38372SOL     OW22230  12.580   4.838   1.091 -0.3763 -0.2679  0.3141
38372SOL    HW122231  12.511   4.887   1.136  2.0743  1.3826  2.6003
38372SOL    HW222232  12.622   4.787   1.160  0.3295 -1.7020 -1.1183
38373SOL     OW22233  12.597  11.296   3.843 -0.0473 -0.5531  0.3363
38373SOL    HW122234  12.530  11.357   3.812  0.1082 -1.1550 -1.2928
38373SOL    HW222235  12.566  11.210   3.815  0.6554 -1.0170  0.9421
38374SOL     OW22236   1.596   8.808   4.729 -0.2711 -0.6226 -0.1948
38374SOL    HW122237   1.512   8.838   4.694 -0.9950 -0.9012  1.2183
38374SOL    HW222238   1.618   8.872   4.797 -0.4069 -1.6968  0.8835
38375SOL     OW22239   2.523  10.395   0.345  0.1307 -0.1465  0.0364
38375SOL    HW122240   2.529  10.403   0.250  2.4270  0.4119  0.1829
38375SOL    HW222241   2.520  10.301   0.361 -1.7350 -0.2349 -0.6147
38376SOL     OW22242   0.676   5.106  10.539  0.3438  0.3353 -0.2702
38376SOL    HW122243   0.652   5.107  10.446  1.4717  2.6134 -0.6091
38376SOL    HW222244   0.721   5.023  10.552 -4.5834 -2.7548 -0.3312
38377SOL     OW22245   9.326   8.360   1.805  0.0836  0.0975  0.0526
38377SOL    HW122246   9.299   8.451   1.821  0.2504  0.0225  0.7822
38377SOL    HW222247   9.281   8.309   1.871 -1.4235 -0.6129 -1.4506
38378SOL     OW22248   8.325  12.933   0.391  0.0543 -0.2108 -0.4128
38378SOL    HW122249   8.331  13.025   0.364 -0.9468 -0.2067 -0.6691
38378SOL    HW222250   8.375  12.886   0.324  0.3765  0.1209 -0.4117
38379SOL     OW22251   3.232   6.519   8.988 -0.2362 -0.0355 -0.1875
38379SOL    HW122252   3.257   6.556   8.903  0.2439 -1.6890 -0.7948
38379SOL    HW222253   3.308   6.533   9.044 -0.4536  0.8157 -0.0849
38380SOL     OW22254   9.406   8.480   4.824  0.2272 -0.0572 -0.1498
38380SOL    HW122255   9.483   8.452   4.874  0.8555  1.5978 -0.1574
38380SOL    HW222256   9.410   8.428   4.744  1.7104  0.4434 -0.4378
38381SOL     OW22257   2.753   6.491  12.950  0.0783  0.1433  0.0675
38381SOL    HW122258   2.775   6.571  12.902  0.1270 -0.6945 -1.3403
38381SOL    HW222259   2.700   6.522  13.024  1.0814  1.5888  0.2327
38382SOL     OW22260   9.062  10.186   9.035  0.1376  0.2016  0.2031
38382SOL    HW122261   9.117  10.213   9.109 -0.7668 -0.8366  1.2940
38382SOL    HW222262   9.119  10.128   8.983  0.1164 -0.8413  1.3023
38383SOL     OW22263   5.990   1.484   5.149  0.1736 -0.0496  0.3720
38383SOL    HW122264   6.011   1.554   5.211 -1.8296 -0.2275  1.3401
38383SOL    HW222265   5.894   1.478   5.150  0.2485 -3.2525  0.8823
38384SOL     OW22266   9.357   3.667   1.547 -0.6228 -0.4411 -0.2816
38384SOL    HW122267   9.265   3.667   1.520 -0.0614  0.0367 -2.3489
38384SOL    HW222268   9.356   3.628   1.635 -2.9188  0.7267  0.2862
38385SOL     OW22269   0.535   2.725   3.798  0.0980  0.6320 -0.3877
38385SOL    HW122270   0.530   2.769   3.713 -0.5581  0.0130 -0.6758
38385SOL    HW222271   0.578   2.641   3.779  2.3584  1.5350  0.3380
38386SOL     OW22272   9.232   5.250   2.590 -0.0795  0.1467  0.3512
38386SOL    HW122273   9.265   5.202   2.666  0.1345  0.1075  0.2332
38386SOL    HW222274   9.197   5.331   2.627  0.6208  0.4245  0.4200
38387SOL     OW22275   7.826   5.525  11.125 -0.7221  0.1299  0.0714
38387SOL    HW122276   7.763   5.593  11.102  1.0057  1.4018 -1.1950
38387SOL    HW222277   7.793   5.446  11.082 -0.5897  1.1773 -2.1009
38388SOL     OW22278  12.334   6.109   0.094  0.2350  0.3350 -0.3202
38388SOL    HW122279  12.288   6.161   0.028  1.0461  1.1885 -0.2318
38388SOL    HW222280  12.264   6.065   0.143 -0.4172  0.4772 -1.0937
38389SOL     OW22281   9.306   2.294  10.685  0.2688 -0.4399  0.2625
38389SOL    HW122282   9.358   2.251  10.753  0.5235  0.5525  0.7160
38389SOL    HW222283   9.316   2.237  10.608  4.1710  0.9079 -0.4885
38390SOL     OW22284  12.769   2.927   0.884  0.3623 -0.0662  0.3749
38390SOL    HW122285  12.753   2.901   0.975 -0.7504  1.7520  0.7596
38390SOL    HW222286  12.714   2.869   0.833  0.0363 -0.2933  0.9701
38391SOL     OW22287   6.149   6.772  11.722  0.2010 -0.1544 -0.5090
38391SOL    HW122288   6.113   6.702  11.776  1.0803 -0.6515 -0.5373
38391SOL    HW222289   6.100   6.766  11.640 -2.2063  1.5728  0.6718
38392SOL     OW22290  10.289   0.538  12.607 -0.3600 -0.0252 -0.3353
38392SOL    HW122291  10.377   0.575  12.610 -0.3427 -0.1136  0.8274
38392SOL    HW222292  10.270   0.514  12.698 -1.3247 -0.6186 -0.6737
38393SOL     OW22293   4.197   6.864   7.257  0.2783 -0.3554 -0.3898
38393SOL    HW122294   4.175   6.832   7.344 -1.1339 -0.4426 -0.7477
38393SOL    HW222295   4.183   6.958   7.261  0.2181 -0.3584 -0.5138
38394SOL     OW22296   9.956  11.113   4.341 -0.5985 -0.0904  0.2341
38394SOL    HW122297  10.001  11.056   4.404  1.7267 -0.3321 -1.5331
38394SOL    HW222298   9.920  11.054   4.276 -1.5794  0.2737  0.4141
38395SOL     OW22299   4.696   8.243   4.683 -0.1632 -0.5167  0.1848
38395SOL    HW122300   4.746   8.162   4.686  2.3389  0.9237 -0.1623
38395SOL    HW222301   4.701   8.277   4.772 -2.5837 -1.4222  0.7583
38396SOL     OW22302   7.404   2.968   7.150 -0.1234 -0.5494  0.2040
38396SOL    HW122303   7.420   2.964   7.244  0.4723  1.7532  0.2389
38396SOL    HW222304   7.316   2.932   7.139 -1.2569  1.4805  1.9800
38397SOL     OW22305   0.038  10.181   7.269 -0.0420 -0.3108  0.1876
38397SOL    HW122306   0.011  10.101   7.314  1.6316  0.1134  2.0872
38397SOL    HW222307   0.062  10.241   7.339 -1.1635  1.8739 -1.1912
38398SOL     OW22308  10.324   0.483  12.865 -0.2621  0.3680 -0.1702
38398SOL    HW122309  10.362   0.410  12.914  0.1234  0.7483  0.0963
38398SOL    HW222310  10.296   0.545  12.931 -0.6156  0.4554 -0.3978
38399SOL     OW22311   6.515  10.668   0.418  0.2654  0.3909 -0.2943
38399SOL    HW122312   6.607  10.695   0.413  0.7112 -0.5235  1.9399
38399SOL    HW222313   6.480  10.713   0.494 -1.3360  1.1478 -1.4200
38400SOL     OW22314   3.024  11.262   2.653  0.3984 -0.4227  0.3191
38400SOL    HW122315   2.948  11.212   2.624 -1.0048  1.7213  0.0828
38400SOL    HW222316   3.049  11.223   2.736 -2.4562  0.2170  1.5733
38401SOL     OW22317   7.846  11.779  11.043  0.7349 -0.2918  0.0408
38401SOL    HW122318   7.853  11.822  11.128 -0.3133  0.9205 -0.4467
38401SOL    HW222319   7.764  11.812  11.006 -1.3658 -4.3440  0.5116
38402SOL     OW22320  12.170   9.620   8.310 -0.3089  0.2896  0.0471
38402SOL    HW122321  12.136   9.563   8.240 -0.2458  0.3597 -0.0409
38402SOL    HW222322  12.231   9.565   8.358  1.3022  0.8503 -1.2566
38403SOL     OW22323   0.143   2.320   9.927  0.1485  0.2897  0.2197
38403SOL    HW122324   0.228   2.359   9.905  0.1474  0.8113  1.0837
38403SOL    HW222325   0.165   2.236   9.968  0.3720  1.2072  2.1034
38404SOL     OW22326  12.533   3.917   7.549 -0.5724  0.2925  0.2757
38404SOL    HW122327  12.440   3.898   7.537 -0.2105 -1.3493 -0.2698
38404SOL    HW222328  12.571   3.911   7.461  0.3877 -1.2736  0.7522
38405SOL     OW22329   7.156   9.997   4.873  0.6812 -0.7469 -0.0933
38405SOL    HW122330   7.090  10.067   4.874 -0.3362 -1.6044 -1.7288
38405SOL    HW222331   7.116   9.928   4.820  2.3773 -1.8586  0.0002
38406SOL     OW22332   6.996   9.080   6.812 -0.2885  0.3523 -0.0125
38406SOL    HW122333   6.942   9.124   6.878 -0.5013  0.1265 -0.0354
38406SOL    HW222334   7.048   9.150   6.774  1.5916  0.1927  2.0434
38407SOL     OW22335   0.458   1.412   1.097 -0.4348  0.3001 -0.2841
38407SOL    HW122336   0.477   1.348   1.165  2.1816 -0.9629 -2.0369
38407SOL    HW222337   0.424   1.488   1.144 -2.5556 -1.8594  2.0025
38408SOL     OW22338   2.539   9.722   0.973 -0.2890  0.0559  0.3346
38408SOL    HW122339   2.535   9.753   1.064  1.0005  0.2132  0.3503
38408SOL    HW222340   2.484   9.783   0.924  0.6894  1.2399  0.6758
38409SOL     OW22341   6.128   2.335  10.043  0.8288  0.0854  0.1119
38409SOL    HW122342   6.152   2.426  10.060  3.4786  0.0808 -2.8101
38409SOL    HW222343   6.196   2.284  10.087  0.6258 -0.4165 -0.1510
38410SOL     OW22344   8.968   2.810   6.555 -0.1271  0.5799  0.5206
38410SOL    HW122345   8.889   2.759   6.573  0.6623 -0.4150  1.3253
38410SOL    HW222346   8.965   2.882   6.617 -0.5783  0.7607  0.2952
38411SOL     OW22347  11.900   1.779  10.507  0.2151 -0.2215 -0.2964
38411SOL    HW122348  11.883   1.867  10.539  1.7644 -0.4656  1.3271
38411SOL    HW222349  11.843   1.723  10.559  1.4035 -0.4424  0.7997
38412SOL     OW22350   6.901   3.308   5.636  0.1845  0.1923 -0.0335
38412SOL    HW122351   6.881   3.240   5.700 -0.6944 -0.8229 -1.3295
38412SOL    HW222352   6.879   3.269   5.552 -1.1487  2.3439 -0.7724
38413SOL     OW22353   4.726   3.161   4.162  0.4733 -0.2975 -0.4515
38413SOL    HW122354   4.788   3.151   4.090  1.5982  2.1786  0.0588
38413SOL    HW222355   4.741   3.086   4.219  3.7588  0.6612  0.1272
38414SOL     OW22356  12.193   4.570   7.865  0.4722  1.0202 -0.0822
38414SOL    HW122357  12.265   4.581   7.803  0.8311  2.0017  0.4856
38414SOL    HW222358  12.205   4.482   7.901  1.5391  1.2615  0.1807
38415SOL     OW22359   3.715   6.386   6.334 -0.1691 -0.5662  0.6708
38415SOL    HW122360   3.713   6.349   6.245 -0.0635  0.2201  0.3289
38415SOL    HW222361   3.747   6.314   6.389  0.7946 -0.7572 -0.0941
38416SOL     OW22362   8.737   5.348   4.353 -0.1820 -0.0281  0.1074
38416SOL    HW122363   8.716   5.284   4.285  0.3136 -0.1225  0.0447
38416SOL    HW222364   8.831   5.361   4.346 -0.4059  1.3638 -0.4421
38417SOL     OW22365   0.277   9.897   0.429 -0.1990 -0.2911 -0.3405
38417SOL    HW122366   0.182   9.882   0.432 -0.3417  0.5619 -0.3320
38417SOL    HW222367   0.289   9.952   0.351  0.2868 -0.3783 -0.3245
38418SOL     OW22368  12.761   9.724   6.114  0.6085  0.5442  0.0107
38418SOL    HW122369  12.711   9.683   6.184 -0.9527 -0.1493 -1.4580
38418SOL    HW222370  12.804   9.651   6.069  0.3480  0.8322 -0.7108
38419SOL     OW22371  11.658   9.500   8.790  0.3530 -0.0626  0.2714
38419SOL    HW122372  11.722   9.429   8.784  1.0693  0.6113 -0.4883
38419SOL    HW222373  11.671   9.537   8.877  2.1938  1.0981 -0.4209
38420SOL     OW22374   4.818   2.529   9.224 -0.5329 -0.2755 -0.1901
38420SOL    HW122375   4.832   2.575   9.141  0.4581  0.4175  0.3447
38420SOL    HW222376   4.902   2.535   9.269 -1.7605  1.7855  2.0481
38421SOL     OW22377   0.973   6.275   1.250  0.2532 -0.0389 -0.8258
38421SOL    HW122378   0.934   6.320   1.326 -1.5735 -1.8725 -0.5831
38421SOL    HW222379   1.047   6.228   1.287 -0.4677 -0.7148 -0.1868
38422SOL     OW22380   0.809  11.985   7.025 -0.2486 -0.4989 -0.0556
38422SOL    HW122381   0.718  11.990   6.996  0.8918 -0.0144 -4.1765
38422SOL    HW222382   0.808  12.023   7.113 -4.1572 -1.8054  0.6655
38423SOL     OW22383  10.038   1.802   5.559 -0.5461  0.3336  0.3178
38423SOL    HW122384   9.976   1.772   5.493 -0.8122  2.2975 -0.3840
38423SOL    HW222385  10.124   1.794   5.518 -0.5176 -0.3867  0.5082
38424SOL     OW22386  12.324   2.524  11.478  0.3082  0.1370 -0.5963
38424SOL    HW122387  12.389   2.462  11.445  0.9770  0.9101 -0.7520
38424SOL    HW222388  12.252   2.520  11.415  0.3604 -0.4538 -0.6198
38425SOL     OW22389   9.292   3.240   1.800 -0.8142  0.1438  0.2556
38425SOL    HW122390   9.260   3.263   1.887  3.0130 -0.4869  2.0394
38425SOL    HW222391   9.316   3.323   1.760 -2.1008  0.3882 -0.0621
38426SOL     OW22392   1.759   3.429  11.137  0.4441 -0.5698  0.0139
38426SOL    HW122393   1.742   3.396  11.226 -0.2657 -0.7881 -0.1950
38426SOL    HW222394   1.748   3.353  11.081 -0.6788 -0.1119 -0.4188
38427SOL     OW22395   9.102  10.153   1.271 -0.3845 -0.2946 -0.1212
38427SOL    HW122396   9.093  10.248   1.276  0.0765 -0.2716  0.4369
38427SOL    HW222397   9.045  10.127   1.199 -1.0281  0.3319  0.1497
38428SOL     OW22398   4.706   5.633   3.510  0.4548 -0.2044  0.2867
38428SOL    HW122399   4.787   5.593   3.543  0.8849  1.3236  1.1997
38428SOL    HW222400   4.730   5.725   3.495 -1.1905  0.3408  0.8594
38429SOL     OW22401  10.020   2.685   3.021  0.2572 -0.2271 -0.0324
38429SOL    HW122402  10.092   2.676   3.084  1.0644 -1.3017 -1.0769
38429SOL    HW222403   9.953   2.623   3.051  0.4975 -0.4898 -0.0432
38430SOL     OW22404  10.726  11.349  10.111 -0.0905  0.1619 -0.5798
38430SOL    HW122405  10.667  11.393  10.049 -1.6357 -1.4538 -0.3210
38430SOL    HW222406  10.803  11.327  10.058 -0.3524  0.9474 -1.3189
38431SOL     OW22407   6.262   2.712  12.279 -0.5150 -0.4849  0.2558
38431SOL    HW122408   6.263   2.648  12.208  0.2305 -0.5692  0.3332
38431SOL    HW222409   6.347   2.756  12.272 -1.1045  0.6548  0.0584
38432SOL     OW22410   6.913   0.483   2.208 -0.2770 -0.0253 -0.4509
38432SOL    HW122411   6.851   0.451   2.274 -0.3047  1.8264  0.4644
38432SOL    HW222412   6.860   0.495   2.129 -0.8933  0.5860  0.0403
38433SOL     OW22413  10.189   4.011   0.062 -0.5066 -0.1852 -0.1249
38433SOL    HW122414  10.208   3.918   0.049  0.4294  0.0319 -0.3498
38433SOL    HW222415  10.201   4.025   0.156 -0.8204 -0.3291 -0.0628
38434SOL     OW22416   5.129   3.014   1.576 -1.0696 -0.5765 -0.1864
38434SOL    HW122417   5.077   3.000   1.656  0.4455  0.3114  0.9970
38434SOL    HW222418   5.220   3.015   1.606 -0.4396 -0.4627 -1.9781
38435SOL     OW22419   1.950   2.952   5.123  0.0796  1.1905 -0.3165
38435SOL    HW122420   1.972   2.888   5.055  0.3731  1.6133 -0.6262
38435SOL    HW222421   1.962   3.037   5.080 -1.7789  1.4513 -0.3783
38436SOL     OW22422   7.110   7.497   8.969  0.6557 -0.4886 -0.9634
38436SOL    HW122423   7.193   7.528   8.933  0.5217 -0.5350 -1.3121
38436SOL    HW222424   7.131   7.472   9.059  1.0059 -0.4499 -1.0339
38437SOL     OW22425   3.415   1.450   6.656  0.4542  0.3880 -0.8160
38437SOL    HW122426   3.338   1.505   6.670  2.4083  2.5501  2.9709
38437SOL    HW222427   3.468   1.498   6.592  0.2907  0.7945 -0.6496
38438SOL     OW22428  12.203   4.406   7.496 -0.4943  0.4388  0.4454
38438SOL    HW122429  12.266   4.355   7.547  0.6662  0.4031 -0.9341
38438SOL    HW222430  12.225   4.386   7.405 -1.9352  1.1464 -0.0895
38439SOL     OW22431   7.706   4.320   2.480  0.1657  0.3812  0.2259
38439SOL    HW122432   7.665   4.258   2.541  2.6702 -0.3456  1.3454
38439SOL    HW222433   7.653   4.315   2.401  0.1234 -3.1473  0.3059
38440SOL     OW22434   8.969   0.244   0.139  0.0946  0.3630  0.3688
38440SOL    HW122435   9.026   0.299   0.085  0.6122  0.2922  0.8300
38440SOL    HW222436   8.899   0.217   0.080  0.4937  0.5205 -0.1882
38441SOL     OW22437   9.560   3.282   9.548  0.0577 -0.1737 -0.0919
38441SOL    HW122438   9.467   3.279   9.526  0.0876 -0.4897 -0.1765
38441SOL    HW222439   9.590   3.366   9.516  0.1209 -0.6552 -1.3254
38442SOL     OW22440  10.783   6.637   4.371 -0.3335 -0.1544 -0.3989
38442SOL    HW122441  10.695   6.638   4.409  0.3624 -1.8663  1.4602
38442SOL    HW222442  10.770   6.614   4.279 -1.8488  0.3743 -0.3490
38443SOL     OW22443   2.206   6.054   2.737  0.6934  0.1764  0.3641
38443SOL    HW122444   2.191   5.961   2.723  0.0986  0.2003  0.8330
38443SOL    HW222445   2.248   6.084   2.656  0.7175 -0.4549  0.1401
38444SOL     OW22446   4.803  12.503   6.730  0.2583  0.5441  0.2391
38444SOL    HW122447   4.883  12.534   6.685 -0.3829  1.8896 -0.0367
38444SOL    HW222448   4.765  12.440   6.669  1.1242 -0.1568  0.3940
38445SOL     OW22449  10.007   5.937   7.184  0.4695  0.1495 -0.0035
38445SOL    HW122450  10.059   5.907   7.258 -0.8367  0.0985  0.9402
38445SOL    HW222451  10.030   6.030   7.175  2.3132 -0.3554 -1.0326
38446SOL     OW22452   1.408  10.280   7.926  0.4292  0.8394 -0.4761
38446SOL    HW122453   1.356  10.312   7.852  1.9882  1.6424 -1.2674
38446SOL    HW222454   1.452  10.358   7.960 -0.0504  0.4392  1.1654
38447SOL     OW22455   9.328   3.354   6.325  0.0322 -0.4178 -0.4219
38447SOL    HW122456   9.402   3.355   6.264 -0.2348 -0.1947 -0.7474
38447SOL    HW222457   9.295   3.264   6.322  0.4876 -0.5995 -0.0319
38448SOL     OW22458   4.107   5.324   7.604  0.4836  0.3252  0.1371
38448SOL    HW122459   4.150   5.408   7.616 -0.1962  0.3868  2.4851
38448SOL    HW222460   4.056   5.335   7.523 -0.2243  2.4571  0.8083
38449SOL     OW22461  10.846   3.130  12.752  0.5091  0.2713  0.0813
38449SOL    HW122462  10.808   3.062  12.695  0.9839  0.4247 -0.4311
38449SOL    HW222463  10.921   3.163  12.702  0.8361  0.5235  0.7336
38450SOL     OW22464  11.971   6.288   8.992 -0.2849  0.0307 -0.2738
38450SOL    HW122465  11.921   6.369   8.977 -0.3187 -0.0957 -0.8676
38450SOL    HW222466  11.971   6.245   8.907 -1.2790 -1.1702  0.3087
38451SOL     OW22467   0.388   0.534   6.635 -0.2966 -0.3910 -0.2273
38451SOL    HW122468   0.361   0.479   6.708 -0.4191  0.0476  0.0632
38451SOL    HW222469   0.478   0.558   6.656  0.1213 -1.3371 -0.8807
38452SOL     OW22470   8.574  12.824   8.204  0.3700  0.7721  0.0956
38452SOL    HW122471   8.488  12.848   8.238  0.1024 -0.5340  0.3980
38452SOL    HW222472   8.577  12.728   8.211  1.0670  0.6092 -1.7708
38453SOL     OW22473  10.367   5.584  12.006  0.2767 -0.7696 -0.7226
38453SOL    HW122474  10.396   5.493  11.993  1.2152 -0.5236 -0.4608
38453SOL    HW222475  10.360   5.593  12.101  0.7573 -0.4124 -0.7143
38454SOL     OW22476  11.236   9.808  11.429  0.0653 -0.4447  0.5200
38454SOL    HW122477  11.226   9.802  11.523 -1.8437  0.5768  0.4215
38454SOL    HW222478  11.315   9.757  11.410  0.6938 -0.3620  2.6809
38455SOL     OW22479   2.333   3.705   3.969 -0.3727 -0.2517 -0.0046
38455SOL    HW122480   2.296   3.790   3.946 -0.4379 -0.1908  0.3142
38455SOL    HW222481   2.346   3.660   3.886  0.3183  0.3485 -0.2311
38456SOL     OW22482   4.457  10.044   1.033  0.0026 -0.4610  0.0881
38456SOL    HW122483   4.458  10.090   1.116 -0.4380  0.7998 -0.5767
38456SOL    HW222484   4.364  10.024   1.017 -0.0180  0.0327 -0.4686
38457SOL     OW22485   1.157   2.602  10.932  0.3971  0.1896  0.5505
38457SOL    HW122486   1.161   2.585  11.026 -1.2894  0.7405  0.7583
38457SOL    HW222487   1.174   2.696  10.924  0.4255  0.1640  0.3106
38458SOL     OW22488  11.568   0.850   5.150  0.2154  0.1095 -0.2349
38458SOL    HW122489  11.525   0.935   5.143 -0.6084 -0.3392 -0.9616
38458SOL    HW222490  11.511   0.798   5.207  1.8248  0.6670  2.0237
38459SOL     OW22491   0.732   0.626   2.262  0.5540  0.1390  0.3916
38459SOL    HW122492   0.742   0.719   2.243  0.3053  0.0335 -0.2739
38459SOL    HW222493   0.702   0.588   2.180 -1.0297 -0.2499  1.1159
38460SOL     OW22494   5.991   0.994  10.716 -0.3721  0.1173  0.5439
38460SOL    HW122495   6.073   1.034  10.689 -0.8080  0.6735  0.0360
38460SOL    HW222496   5.928   1.066  10.717 -0.8934 -0.3350  0.7796
38461SOL     OW22497  11.994   2.215   7.585  0.1334  0.3209 -0.3436
38461SOL    HW122498  11.962   2.125   7.570 -1.4764  0.3629  2.2065
38461SOL    HW222499  11.994   2.254   7.498 -1.7781 -1.3633 -1.2105
38462SOL     OW22500   7.968   4.614   9.257  0.2349  0.1177  0.0498
38462SOL    HW122501   8.050   4.653   9.288 -0.0037  1.3862 -0.8271
38462SOL    HW222502   7.985   4.593   9.165  0.1682 -1.3730  0.3657
38463SOL     OW22503   1.071   2.113   4.747 -0.4798  0.3493  0.3132
38463SOL    HW122504   0.996   2.055   4.759 -0.2532  0.1529  0.7990
38463SOL    HW222505   1.140   2.055   4.713 -1.3546  1.0342 -2.9251
38464SOL     OW22506   8.704   6.400   8.948 -0.3290 -0.1133  0.3086
38464SOL    HW122507   8.780   6.414   8.891  0.5388  0.5846  1.5938
38464SOL    HW222508   8.668   6.487   8.962 -2.1048 -0.5482 -1.2063
38465SOL     OW22509  11.265  10.840   9.786 -0.3495 -0.2945  0.0873
38465SOL    HW122510  11.270  10.797   9.871 -1.3310  0.8145  0.7222
38465SOL    HW222511  11.344  10.895   9.782 -0.3576 -0.2673  0.3252
38466SOL     OW22512  12.246   4.355   8.195  0.0408 -0.1695  0.8173
38466SOL    HW122513  12.247   4.296   8.120  0.3365  1.2825 -0.3742
38466SOL    HW222514  12.189   4.311   8.259 -1.6867 -0.6545 -0.9411
38467SOL     OW22515  11.507  10.018   4.451  0.0961  0.3587  0.0838
38467SOL    HW122516  11.554  10.083   4.503 -0.0543  1.0734 -0.6645
38467SOL    HW222517  11.576   9.971   4.404  0.2664 -0.5786  1.2292
38468SOL     OW22518   4.733   2.552   2.929  0.5185  0.2576 -0.6707
38468SOL    HW122519   4.639   2.557   2.946  0.8597  1.6459  1.0918
38468SOL    HW222520   4.740   2.549   2.834 -1.2672  2.1474 -0.9323
38469SOL     OW22521  10.209   0.434  12.226  0.0063 -0.2384  0.1898
38469SOL    HW122522  10.200   0.351  12.273 -3.7276  0.3512  0.8221
38469SOL    HW222523  10.145   0.428  12.155 -0.4466  2.0898  0.3124
38470SOL     OW22524  11.014   9.457   0.050 -0.6080 -0.0649 -0.6509
38470SOL    HW122525  10.984   9.461   0.141  0.8191  0.1843 -0.1689
38470SOL    HW222526  10.959   9.520   0.004  0.1841  1.5564  0.5160
38471SOL     OW22527   5.757   0.454  11.701  0.3731  0.2206  0.3265
38471SOL    HW122528   5.695   0.526  11.702 -1.1078 -0.8377  4.3371
38471SOL    HW222529   5.834   0.487  11.748  1.0175  0.0995 -0.6035
38472SOL     OW22530   7.488  11.415   6.083 -0.1829 -0.1178  0.3058
38472SOL    HW122531   7.428  11.435   6.155 -1.3346 -0.5841 -0.4999
38472SOL    HW222532   7.431  11.392   6.010  0.9287  1.0713 -0.9979
38473SOL     OW22533   7.837  11.942   6.116 -0.1407  0.6919  0.3062
38473SOL    HW122534   7.927  11.940   6.083  0.0878 -0.2062  0.9433
38473SOL    HW222535   7.785  11.973   6.042  0.3532 -1.2371 -0.9293
38474SOL     OW22536   9.729   6.799   4.627  0.0026  0.0314  0.5360
38474SOL    HW122537   9.812   6.774   4.668  1.1216  1.6685 -0.6069
38474SOL    HW222538   9.734   6.762   4.539 -0.7693 -0.3566  0.6460
38475SOL     OW22539   2.317   8.545   3.502 -0.5533 -0.0427 -0.0768
38475SOL    HW122540   2.397   8.544   3.449 -0.0253 -0.0160  0.7004
38475SOL    HW222541   2.283   8.634   3.494 -0.8552 -0.2313 -0.9215
38476SOL     OW22542  12.203   1.100   9.992 -0.1452  0.8122  0.6135
38476SOL    HW122543  12.235   1.181   9.953 -3.2539  2.2162  0.6533
38476SOL    HW222544  12.167   1.126  10.076  1.3962 -1.1979  1.9837
38477SOL     OW22545   1.773  12.333  10.720 -0.1024 -0.0786 -0.2995
38477SOL    HW122546   1.708  12.269  10.689 -0.3923 -0.0753  0.3013
38477SOL    HW222547   1.740  12.363  10.804  0.8878 -0.3886  0.2183
38478SOL     OW22548  10.821  10.074   9.647 -0.5979 -0.3248  0.4225
38478SOL    HW122549  10.897  10.023   9.675 -0.7727 -0.1256  1.2945
38478SOL    HW222550  10.856  10.138   9.586  0.7420  2.5009  3.8226
38479SOL     OW22551   6.202   1.966   3.211  0.1993 -0.2760  0.1854
38479SOL    HW122552   6.124   1.916   3.186 -2.6916  3.7401  0.3285
38479SOL    HW222553   6.239   1.996   3.128  0.4427 -0.4910  0.2115
38480SOL     OW22554   0.229   8.427  11.241  0.1246 -0.0953 -0.1348
38480SOL    HW122555   0.151   8.478  11.221 -0.2046  0.2682  1.9244
38480SOL    HW222556   0.251   8.449  11.331  0.9191 -2.3604  0.3028
38481SOL     OW22557  10.424   4.458   6.281  0.1036 -0.4972 -0.1455
38481SOL    HW122558  10.353   4.482   6.341 -0.0407  0.3415 -0.6407
38481SOL    HW222559  10.421   4.362   6.279 -0.9021 -0.4854 -0.0081
38482SOL     OW22560   7.930  10.177   7.937  0.1734 -0.2757  0.4103
38482SOL    HW122561   7.918  10.219   7.852  0.0979 -0.2267  0.4459
38482SOL    HW222562   7.992  10.234   7.983  1.2536 -0.9897 -0.1085
38483SOL     OW22563  10.154   1.118   6.594 -0.1128 -0.2791  0.7250
38483SOL    HW122564  10.169   1.113   6.689 -0.6764 -1.7912  0.7652
38483SOL    HW222565  10.063   1.145   6.585  0.3020  1.1090  0.5855
38484SOL     OW22566   5.390   4.680   9.366  0.1532  0.0016 -0.0938
38484SOL    HW122567   5.317   4.686   9.429 -0.5244 -0.7316 -0.7929
38484SOL    HW222568   5.425   4.769   9.363  0.0369  0.1094  1.1305
38485SOL     OW22569  10.304   4.657  11.794 -0.6367 -0.0006 -0.1911
38485SOL    HW122570  10.353   4.617  11.866  1.8986  2.3825 -0.4036
38485SOL    HW222571  10.310   4.593  11.723  1.7307 -0.1306  0.0262
38486SOL     OW22572   5.837   7.789   1.320  0.5981 -0.2988  0.6641
38486SOL    HW122573   5.821   7.744   1.238  2.6008  0.8028 -0.4084
38486SOL    HW222574   5.837   7.720   1.386 -0.8387 -1.2303 -0.2536
38487SOL     OW22575   5.116  10.839   3.921 -0.3766  0.5409  0.1075
38487SOL    HW122576   5.036  10.797   3.890 -0.7903 -1.0140  3.0113
38487SOL    HW222577   5.146  10.891   3.846 -2.0875 -1.6913 -2.2894
38488SOL     OW22578  11.082  12.781   2.183 -0.7247  0.2589 -0.1656
38488SOL    HW122579  11.082  12.876   2.192 -1.2630  0.0793  3.3574
38488SOL    HW222580  11.169  12.760   2.151 -0.3540  1.9017 -0.3338
38489SOL     OW22581  12.280   1.163   2.504  0.4761 -0.0731  0.0216
38489SOL    HW122582  12.364   1.132   2.537 -0.1220 -0.7498  0.9419
38489SOL    HW222583  12.299   1.251   2.472  1.9027 -0.8311 -1.3743
38490SOL     OW22584   2.902   7.929   3.077 -0.3615  0.0502 -0.2480
38490SOL    HW122585   2.824   7.970   3.042 -0.1149  0.3083 -0.5009
38490SOL    HW222586   2.957   7.911   3.001  0.1618  0.5801 -0.0114
38491SOL     OW22587   9.124  11.484   1.414 -0.3630 -0.4686 -0.6240
38491SOL    HW122588   9.086  11.431   1.484 -1.3914  0.4050 -0.4907
38491SOL    HW222589   9.158  11.562   1.458 -2.5001  0.8819 -1.2158
38492SOL     OW22590   6.624   3.214   7.080 -0.1419 -0.1623  0.2768
38492SOL    HW122591   6.552   3.157   7.106  0.6606 -0.7979  1.1700
38492SOL    HW222592   6.657   3.175   6.999 -0.1980 -0.4149  0.3751
38493SOL     OW22593   3.222   1.632   4.815 -0.2369 -0.7562 -0.1034
38493SOL    HW122594   3.128   1.625   4.795 -0.3247  2.8852 -1.8409
38493SOL    HW222595   3.224   1.673   4.902 -0.5220  2.5657 -1.5157
38494SOL     OW22596   1.127  12.737   9.187  0.1754 -0.1850  0.2525
38494SOL    HW122597   1.218  12.746   9.158 -0.0101  1.2522  0.0341
38494SOL    HW222598   1.129  12.766   9.278 -0.1334  0.2595  0.1189
38495SOL     OW22599   6.107   2.091   4.275 -0.3444  0.2012 -0.0649
38495SOL    HW122600   6.065   2.165   4.231 -1.4566  0.5000  1.4380
38495SOL    HW222601   6.187   2.128   4.313 -0.3706  0.3891 -0.1886
38496SOL     OW22602   6.508   4.525   3.806 -0.0057 -1.0741 -0.0099
38496SOL    HW122603   6.487   4.481   3.889  0.1412  1.0193  1.2126
38496SOL    HW222604   6.498   4.618   3.826  0.7691 -0.4853 -2.1656
38497SOL     OW22605   0.700  10.676   2.590 -0.2217  0.0499  0.3829
38497SOL    HW122606   0.748  10.649   2.512 -1.4608  0.2310 -0.4690
38497SOL    HW222607   0.716  10.606   2.653  1.0723  0.0685  0.1032
38498SOL     OW22608   2.206   6.762   5.286 -0.1856 -0.3857 -0.9982
38498SOL    HW122609   2.196   6.850   5.320  2.1610  0.2991 -1.8625
38498SOL    HW222610   2.158   6.762   5.203 -0.6649 -0.1197 -0.7224
38499SOL     OW22611  10.664   8.165   6.374 -0.1448  0.2703 -0.3307
38499SOL    HW122612  10.707   8.131   6.452  0.0903  0.1235 -0.5215
38499SOL    HW222613  10.636   8.087   6.326  0.8158  0.3133 -1.0012
38500SOL     OW22614   7.954   3.543  12.837  0.3944  0.3117 -0.0406
38500SOL    HW122615   7.990   3.593  12.764  1.3318 -0.2142  0.0438
38500SOL    HW222616   7.859   3.550  12.827  0.4836 -0.4564 -1.8222
38501SOL     OW22617   0.082   0.792   0.026  0.0414  0.3768 -0.2644
38501SOL    HW122618   0.035   0.802   0.109 -0.0481  0.1691 -0.2885
38501SOL    HW222619   0.028   0.730  -0.024  0.0718  0.5339 -0.4937
38502SOL     OW22620   5.111  10.570   3.351  0.0261  0.0361 -0.1296
38502SOL    HW122621   5.016  10.563   3.357 -0.0244  1.1325  0.4196
38502SOL    HW222622   5.143  10.518   3.424 -0.1994  0.9375  0.6188
38503SOL     OW22623   5.450   6.498  12.743 -0.1143 -0.5879  0.0613
38503SOL    HW122624   5.500   6.542  12.811  0.4786 -0.0056 -0.7313
38503SOL    HW222625   5.374   6.554  12.728 -0.6387 -1.0947  0.7454
38504SOL     OW22626   8.674   2.715   0.998 -0.3598 -0.4545 -0.1326
38504SOL    HW122627   8.626   2.664   0.933  1.6200 -1.1394 -1.1408
38504SOL    HW222628   8.673   2.805   0.964 -0.4763 -0.5593 -0.4043
38505SOL     OW22629   3.524   3.709   7.839 -0.0865  0.3246 -0.6995
38505SOL    HW122630   3.453   3.716   7.903  1.1597  0.0602  0.7844
38505SOL    HW222631   3.580   3.785   7.856  0.9826 -0.4654 -0.5109
38506SOL     OW22632  12.829  10.904   7.222 -0.1985 -0.1751 -0.3981
38506SOL    HW122633  12.914  10.922   7.261 -0.5715 -0.1848  0.4437
38506SOL    HW222634  12.849  10.846   7.148  0.8263  2.1810 -2.0960
38507SOL     OW22635   1.699  12.701   8.277  0.6027  0.2376 -0.5318
38507SOL    HW122636   1.653  12.665   8.202 -5.2876  0.5795  2.3042
38507SOL    HW222637   1.718  12.624   8.332 -2.3383  0.3800  0.8668
38508SOL     OW22638   5.684   4.313   3.780 -0.4224  0.5843  0.2449
38508SOL    HW122639   5.596   4.350   3.778 -0.4164  0.9683 -4.0321
38508SOL    HW222640   5.739   4.379   3.737  0.7623 -1.7633 -2.1708
38509SOL     OW22641   8.447  11.161  12.536  0.4669 -0.5355 -0.4069
38509SOL    HW122642   8.475  11.238  12.586  0.2552 -1.3669  1.0493
38509SOL    HW222643   8.371  11.192  12.486  0.2523  0.1716  0.3203
38510SOL     OW22644   6.938   1.283   3.640 -0.1484  0.4396 -0.3211
38510SOL    HW122645   6.924   1.201   3.592 -1.4005  1.1819 -1.2803
38510SOL    HW222646   6.862   1.290   3.697  0.0425  0.8488 -0.1162
38511SOL     OW22647  10.498   2.744   9.918  0.5520  0.6409 -0.0715
38511SOL    HW122648  10.541   2.729   9.833  0.0192 -0.9742 -0.0976
38511SOL    HW222649  10.549   2.692   9.980 -0.6494 -0.3704  0.0992
38512SOL     OW22650   9.939   5.037   9.860 -0.0843  0.0106  0.4343
38512SOL    HW122651  10.029   5.013   9.880  0.5758  0.6301 -1.5521
38512SOL    HW222652   9.945   5.126   9.824 -1.1916 -0.6949 -1.6563
38513SOL     OW22653   1.615  11.587   7.948 -0.8604 -0.2391 -0.0522
38513SOL    HW122654   1.687  11.579   8.010 -0.7087 -2.5925 -0.4656
38513SOL    HW222655   1.563  11.661   7.982 -0.5249 -1.1246  2.6218
38514SOL     OW22656   7.163  11.242  11.554 -0.0768 -0.0169 -0.2998
38514SOL    HW122657   7.127  11.302  11.488 -1.7712  1.2666  1.6514
38514SOL    HW222658   7.247  11.280  11.579  0.7148 -0.6630 -1.8236
38515SOL     OW22659   9.131   4.916   6.255 -0.0220 -0.3870 -0.1199
38515SOL    HW122660   9.214   4.870   6.263  0.5987  0.5293 -1.1060
38515SOL    HW222661   9.134   4.957   6.169 -0.9939  0.6403  0.3099
38516SOL     OW22662   2.620   4.805   1.008 -0.4604  0.4487  0.0326
38516SOL    HW122663   2.620   4.822   0.913  2.4850 -0.8274 -0.3072
38516SOL    HW222664   2.544   4.748   1.022 -1.4739  1.3818 -1.3806
38517SOL     OW22665  11.834  12.962   0.126 -0.2641  0.0104  0.0576
38517SOL    HW122666  11.921  12.933   0.154  0.3888  0.3620 -1.5163
38517SOL    HW222667  11.774  12.917   0.186  0.9189 -1.3850  0.2681
38518SOL     OW22668  10.576  10.303   0.726  0.5377 -1.0406 -0.3530
38518SOL    HW122669  10.630  10.356   0.785  0.1785  0.3604 -1.2440
38518SOL    HW222670  10.521  10.367   0.681 -0.9283 -2.3188 -0.4331
38519SOL     OW22671   9.003   9.562   3.325 -0.8534  0.1336 -0.4943
38519SOL    HW122672   8.913   9.558   3.294 -0.9421  0.5498 -0.3014
38519SOL    HW222673   9.005   9.502   3.400 -0.6791 -0.7387 -1.1803
38520SOL     OW22674   6.721   0.135   0.416 -0.2991 -0.1048  0.5538
38520SOL    HW122675   6.811   0.162   0.395 -0.1065  1.2068  2.7573
38520SOL    HW222676   6.667   0.183   0.354  0.4185  0.7505  0.5637
38521SOL     OW22677   7.842   0.923   6.197  0.5222  0.5458 -0.3848
38521SOL    HW122678   7.919   0.873   6.169  0.0654  0.3053 -1.2449
38521SOL    HW222679   7.787   0.927   6.120 -0.0700  1.2277  0.0616
38522SOL     OW22680   0.542   8.329  12.223 -0.2480 -0.6769  0.6474
38522SOL    HW122681   0.542   8.243  12.264  0.6118 -0.5880  0.8676
38522SOL    HW222682   0.617   8.374  12.263  1.4711 -1.0487 -1.9407
38523SOL     OW22683   6.982   0.573  10.163  0.1623 -0.4428 -0.2546
38523SOL    HW122684   6.975   0.480  10.185 -0.3722 -0.3000  0.2150
38523SOL    HW222685   7.075   0.593  10.172  0.1626 -0.7359  0.4971
38524SOL     OW22686  12.954   9.594   3.282 -0.3070 -0.4739 -0.1618
38524SOL    HW122687  12.983   9.654   3.213  1.0397  0.2145  0.9677
38524SOL    HW222688  12.920   9.518   3.234 -1.1206  0.7423 -1.6091
38525SOL     OW22689   2.187   5.052   1.627 -0.1900 -0.4699 -0.2966
38525SOL    HW122690   2.238   4.999   1.565  0.6231  0.0208 -0.0694
38525SOL    HW222691   2.106   5.072   1.580 -0.0563 -1.0302 -0.7808
38526SOL     OW22692   0.897   9.735  12.313  0.3837  0.4193  0.3045
38526SOL    HW122693   0.950   9.672  12.362 -0.9623  0.8262  2.4544
38526SOL    HW222694   0.821   9.684  12.284 -0.5449  0.9168  1.7633
38527SOL     OW22695   5.381   1.848   1.388  0.3257 -0.0768  0.1147
38527SOL    HW122696   5.411   1.936   1.366 -0.1575 -0.3103 -1.6356
38527SOL    HW222697   5.292   1.843   1.353  0.3188 -1.2364  0.2535
38528SOL     OW22698   8.809   9.880  12.843  0.1378  0.1094  0.0729
38528SOL    HW122699   8.804   9.917  12.931 -2.0276  0.1592 -0.0179
38528SOL    HW222700   8.863   9.942  12.794  0.5442  0.6042  1.1178
38529SOL     OW22701  10.814   6.663   2.095  0.2578 -0.0625 -1.0131
38529SOL    HW122702  10.788   6.606   2.023 -0.7863 -1.3954  0.3782
38529SOL    HW222703  10.732   6.695   2.132  0.6948 -0.6553  0.5520
38530SOL     OW22704   5.635   9.454   5.010  0.0480 -0.2974  0.6684
38530SOL    HW122705   5.719   9.472   4.967 -0.0075 -0.2692  0.5718
38530SOL    HW222706   5.646   9.367   5.048  0.1806 -0.2233  0.7999
38531SOL     OW22707   0.197  11.067   0.298  0.0311  0.0662  0.2127
38531SOL    HW122708   0.250  11.068   0.218 -1.0631 -0.0159 -0.5363
38531SOL    HW222709   0.117  11.115   0.274 -0.5349 -0.4107  1.1010
38532SOL     OW22710   5.379   2.343  12.432 -0.0681 -0.6084  0.1914
38532SOL    HW122711   5.382   2.263  12.485  0.5646 -0.5827  0.1982
38532SOL    HW222712   5.452   2.396  12.463  0.1511 -0.4772 -0.5260
38533SOL     OW22713   1.257   5.780   5.887  0.0469 -0.4673  0.6047
38533SOL    HW122714   1.236   5.833   5.964 -1.1575  0.7453 -0.5130
38533SOL    HW222715   1.319   5.714   5.920 -0.8637 -0.3573  2.7225
38534SOL     OW22716   4.180   2.641   2.337 -0.5911 -0.2587 -0.1381
38534SOL    HW122717   4.192   2.700   2.262  1.4485  1.1450  1.2156
38534SOL    HW222718   4.091   2.661   2.368 -1.0430 -0.0614 -1.4633
38535SOL     OW22719  12.351   1.605  11.840  0.3829 -0.0696 -0.2502
38535SOL    HW122720  12.291   1.677  11.822  0.7369 -0.2012 -2.0757
38535SOL    HW222721  12.387   1.627  11.927  0.4785  1.9619 -0.7388
38536SOL     OW22722   0.083   1.916   1.976 -0.1100  0.0607  0.0031
38536SOL    HW122723   0.036   1.898   2.057 -1.5799 -1.1541 -1.0543
38536SOL    HW222724   0.017   1.906   1.907  1.4920 -0.8851 -1.4888
38537SOL     OW22725  10.514   5.525   7.992  0.2999 -0.3222 -0.0154
38537SOL    HW122726  10.562   5.591   7.941 -0.2722 -1.2030 -1.7745
38537SOL    HW222727  10.579   5.458   8.011  0.4214 -0.1965  0.0115
38538SOL     OW22728  12.403   3.895   9.229  0.1568 -0.6672 -0.1454
38538SOL    HW122729  12.337   3.962   9.209  0.3737 -0.8231 -1.4059
38538SOL    HW222730  12.444   3.926   9.310 -1.6258 -0.6970  0.8351
38539SOL     OW22731   2.140   7.970   5.413 -0.3630 -0.6054 -0.3915
38539SOL    HW122732   2.105   7.880   5.417 -0.3313 -0.6699 -1.3719
38539SOL    HW222733   2.186   7.974   5.329 -1.3549  0.6879 -0.9085
38540SOL     OW22734   7.873   3.905  12.235  0.5256 -0.1751  0.3241
38540SOL    HW122735   7.868   3.906  12.331 -2.4468  1.1520  0.2663
38540SOL    HW222736   7.884   3.997  12.210 -2.0022 -0.0513 -0.6001
38541SOL     OW22737   3.632   2.070  11.485  0.1157  0.8973 -0.5398
38541SOL    HW122738   3.669   2.099  11.568  1.2742  0.2019 -0.8009
38541SOL    HW222739   3.649   1.976  11.482 -0.6195  0.7725 -1.2153
38542SOL     OW22740   4.231   9.030   4.327 -0.1526  0.1259 -0.1067
38542SOL    HW122741   4.324   9.008   4.330 -0.1594  0.1673  0.4758
38542SOL    HW222742   4.198   9.007   4.414 -0.7790 -0.2706 -0.4466
38543SOL     OW22743   8.583   2.682   6.365  0.1665  0.1429 -0.7779
38543SOL    HW122744   8.625   2.746   6.308  1.7290  1.0570  1.2916
38543SOL    HW222745   8.642   2.673   6.440 -1.4534 -1.5212  0.3963
38544SOL     OW22746  10.302   2.972   0.761  0.2294 -0.3523  0.3396
38544SOL    HW122747  10.377   2.986   0.818  1.0100 -0.9553 -0.5146
38544SOL    HW222748  10.230   2.953   0.821  1.4219 -2.8890  1.1093
38545SOL     OW22749   7.808   6.056   4.842 -0.0498 -0.5327  0.6269
38545SOL    HW122750   7.771   6.002   4.912 -0.3566 -1.2855 -0.1033
38545SOL    HW222751   7.744   6.052   4.771  0.6905 -0.5567 -0.0553
38546SOL     OW22752   9.972   8.017   4.145  0.0168 -0.1806  0.7691
38546SOL    HW122753  10.028   7.941   4.164  0.0422 -0.4812 -0.3704
38546SOL    HW222754   9.946   8.004   4.054 -2.1660 -0.1974  1.3591
38547SOL     OW22755  12.279   7.621   0.719 -0.6007 -0.6294  0.8023
38547SOL    HW122756  12.319   7.668   0.646 -0.0835  0.6679  1.8771
38547SOL    HW222757  12.185   7.638   0.711 -0.4395  0.4066  1.0457
38548SOL     OW22758   7.184   6.718  12.401 -0.4413 -0.1548 -0.0137
38548SOL    HW122759   7.198   6.763  12.484 -0.5733  0.8729 -0.5370
38548SOL    HW222760   7.251   6.753  12.342 -1.3137  0.2604 -0.7751
38549SOL     OW22761   0.315   6.994   6.238 -0.2097  1.0628 -0.2965
38549SOL    HW122762   0.301   7.087   6.256  0.4447  1.4509 -1.6767
38549SOL    HW222763   0.383   6.992   6.170  1.7340 -0.5065  1.5229
38550SOL     OW22764   9.958   7.109   0.067 -0.5756  0.0208  0.6414
38550SOL    HW122765   9.958   7.178   0.133 -1.5898 -0.2310  0.9273
38550SOL    HW222766   9.920   7.033   0.111 -1.0405 -0.2275 -0.1494
38551SOL     OW22767  11.578  11.582   8.282 -0.1360  0.1059  0.4839
38551SOL    HW122768  11.561  11.612   8.372 -0.4120  0.3947  0.3366
38551SOL    HW222769  11.548  11.491   8.281 -1.0604  0.3988  0.4192
38552SOL     OW22770  11.115   4.222  12.690 -0.1916 -0.4309 -0.0365
38552SOL    HW122771  11.182   4.284  12.660 -1.7266  0.6065 -1.5484
38552SOL    HW222772  11.161   4.164  12.751  1.3394  2.1588  1.4564
38553SOL     OW22773   5.330   2.468   1.043 -0.6097  0.3821 -0.5579
38553SOL    HW122774   5.236   2.481   1.056 -0.5842  0.6078 -0.5966
38553SOL    HW222775   5.371   2.541   1.090 -0.3499 -0.8823  1.3330
38554SOL     OW22776  11.291   0.463   8.314  0.1392  0.2944  0.2935
38554SOL    HW122777  11.330   0.377   8.326 -1.5726 -0.7045 -0.8224
38554SOL    HW222778  11.328   0.497   8.233 -0.4396 -0.1591 -0.1685
38555SOL     OW22779   8.470   6.586   1.088 -0.4857 -0.3182  0.2633
38555SOL    HW122780   8.475   6.670   1.135 -1.8635 -0.2792  0.3681
38555SOL    HW222781   8.430   6.609   1.004  0.8073 -0.5960 -0.4494
38556SOL     OW22782   3.994   8.383   9.551 -0.0939  0.1912  0.8173
38556SOL    HW122783   4.046   8.337   9.486 -2.0261 -1.8705  0.5886
38556SOL    HW222784   4.016   8.341   9.634 -3.0365 -2.5901  0.4144
38557SOL     OW22785   7.651  12.351   4.417 -0.1963 -0.5467  0.2359
38557SOL    HW122786   7.725  12.409   4.438  0.2329 -0.5305 -1.2517
38557SOL    HW222787   7.592  12.361   4.492 -0.1797  1.9096 -0.0010
38558SOL     OW22788  12.498   4.775  11.830  0.1423  0.3948 -0.5945
38558SOL    HW122789  12.418   4.728  11.807  0.0734  1.0116 -1.6737
38558SOL    HW222790  12.487   4.862  11.791  0.6031  1.0538  0.6997
38559SOL     OW22791   8.818   8.639   5.403  0.5243  0.0266 -0.1280
38559SOL    HW122792   8.830   8.576   5.474 -1.8716  0.4212  0.7351
38559SOL    HW222793   8.891   8.700   5.413  0.2938  0.0334  1.9986
38560SOL     OW22794   9.899  10.808   6.430 -0.8715 -0.1904  0.0386
38560SOL    HW122795   9.964  10.809   6.360 -1.1652 -0.5644 -0.2441
38560SOL    HW222796   9.938  10.861   6.500 -1.1270  1.3073 -0.8975
38561SOL     OW22797   2.668  10.547   1.891  0.0444  0.2262 -0.5371
38561SOL    HW122798   2.621  10.491   1.830  1.2162 -1.3396 -0.0654
38561SOL    HW222799   2.760  10.532   1.872  0.4770 -0.6834  1.8615
38562SOL     OW22800  11.249   4.990   0.187 -0.4166  0.6949  0.6372
38562SOL    HW122801  11.215   4.901   0.198 -1.7921  0.9853 -0.8634
38562SOL    HW222802  11.303   4.986   0.108 -0.9323  1.3106  0.2453
38563SOL     OW22803  11.295   4.318   8.129 -0.6525  0.2768 -0.2472
38563SOL    HW122804  11.303   4.223   8.125 -2.0904  0.1219 -0.1054
38563SOL    HW222805  11.286   4.338   8.222 -0.0206  0.5832 -0.2518
38564SOL     OW22806   2.964   4.122   7.696  0.5213  0.1281  0.4553
38564SOL    HW122807   2.948   4.214   7.720  0.1967  0.2853 -0.3438
38564SOL    HW222808   3.045   4.100   7.742 -0.3750  0.2340  2.1630
38565SOL     OW22809   4.542  11.494   2.813  0.5038  0.1894 -0.2118
38565SOL    HW122810   4.595  11.561   2.855 -0.7951  0.6604  0.7381
38565SOL    HW222811   4.470  11.541   2.773  0.5409 -0.4840 -1.1239
38566SOL     OW22812   5.358   6.469   9.957  0.1106 -0.0380  0.1367
38566SOL    HW122813   5.440   6.442   9.915  0.5879  0.6357  0.6093
38566SOL    HW222814   5.380   6.478  10.050 -0.6577 -0.4319  0.3705
38567SOL     OW22815   9.787  12.608   5.210 -0.7409  0.2012 -0.0184
38567SOL    HW122816   9.880  12.586   5.201 -0.8953 -0.7741  0.7465
38567SOL    HW222817   9.760  12.634   5.121  0.0783 -0.2095 -0.3940
38568SOL     OW22818   8.057   0.593   0.223  0.5331  0.0883  0.2349
38568SOL    HW122819   8.151   0.591   0.204  0.7559  0.7140  1.2046
38568SOL    HW222820   8.018   0.638   0.148  1.1528  0.8393  0.3597
38569SOL     OW22821   0.795   7.486  12.951 -0.1335 -0.1168 -0.3157
38569SOL    HW122822   0.784   7.481  13.046 -1.7275 -0.2435 -0.4863
38569SOL    HW222823   0.874   7.539  12.939 -0.2305  0.3864  1.0723
38570SOL     OW22824  10.987   3.981   6.788  0.4935 -0.1551 -0.7119
38570SOL    HW122825  10.989   3.904   6.733  1.7193 -0.6172 -0.0530
38570SOL    HW222826  11.076   4.015   6.787  0.1307  0.8604 -0.4472
38571SOL     OW22827   0.158  11.935   2.950 -0.6934 -0.3494 -0.2437
38571SOL    HW122828   0.129  11.845   2.936  1.1126 -0.9146 -0.5551
38571SOL    HW222829   0.237  11.944   2.897  0.7107  0.5599  1.8635
38572SOL     OW22830   4.642   1.131  12.492 -0.1290 -0.3605 -0.4284
38572SOL    HW122831   4.671   1.083  12.570  1.2057  1.3800  0.2147
38572SOL    HW222832   4.551   1.153  12.510 -0.1494 -0.9070  0.1563
38573SOL     OW22833   4.752   1.521   1.749 -0.0458 -0.6441 -0.4971
38573SOL    HW122834   4.709   1.440   1.772  0.3676 -0.3238  1.5960
38573SOL    HW222835   4.711   1.587   1.804  0.5976  0.3238 -1.1332
38574SOL     OW22836  12.175   2.656   7.047  0.3306  0.6662 -0.5348
38574SOL    HW122837  12.206   2.714   7.117  0.3596 -0.9508  0.8686
38574SOL    HW222838  12.240   2.585   7.044 -1.6618 -1.3387  0.5598
38575SOL     OW22839  11.760  10.275   0.904 -0.3908  0.4481 -0.0657
38575SOL    HW122840  11.744  10.235   0.818 -3.2789  0.1788  0.4842
38575SOL    HW222841  11.737  10.367   0.892 -2.0952  0.1646  0.6352
38576SOL     OW22842   7.239   1.747   3.146  0.3735  0.1818  0.4853
38576SOL    HW122843   7.280   1.833   3.140 -1.3619  0.9794 -1.9939
38576SOL    HW222844   7.232   1.718   3.055 -1.9172 -1.1173  0.9917
38577SOL     OW22845   2.997   3.047   0.073 -0.5444  0.2881  0.7221
38577SOL    HW122846   3.033   3.094  -0.002 -1.2019  0.1696  0.3260
38577SOL    HW222847   3.061   3.062   0.143  1.7462 -2.1025 -0.6316
38578SOL     OW22848   3.070   1.467   5.609 -0.5099 -0.0457 -0.1935
38578SOL    HW122849   3.032   1.526   5.544 -3.6193 -1.8056 -0.1728
38578SOL    HW222850   3.049   1.507   5.693 -1.1278 -0.3156 -0.2131
38579SOL     OW22851   1.434   4.217   9.137  0.4631 -0.0138 -0.5118
38579SOL    HW122852   1.481   4.134   9.138  1.1030  0.3376 -0.7641
38579SOL    HW222853   1.342   4.193   9.135  0.5411 -0.7466  1.7118
38580SOL     OW22854   8.494  12.392  10.616 -1.0050  0.2878 -0.0525
38580SOL    HW122855   8.491  12.341  10.535  1.1813  0.0693 -0.0480
38580SOL    HW222856   8.530  12.331  10.681 -1.6457  0.8078  0.8124
38581SOL     OW22857   5.770  10.329   1.359 -0.2915 -0.1542 -0.0620
38581SOL    HW122858   5.817  10.245   1.364  1.1736  0.5036 -1.9197
38581SOL    HW222859   5.838  10.395   1.353 -1.4132  0.9069 -2.2114
38582SOL     OW22860   3.922   0.229   7.566  0.6683 -0.0413 -0.3263
38582SOL    HW122861   3.845   0.261   7.614  0.4969  1.2456 -1.3803
38582SOL    HW222862   3.990   0.294   7.585  1.6360 -1.3537  0.8772
38583SOL     OW22863   1.345   6.535   2.300 -0.6538  0.0411  0.2004
38583SOL    HW122864   1.399   6.457   2.294 -0.9915 -0.3908  2.0025
38583SOL    HW222865   1.268   6.516   2.246 -0.5764 -0.7361  0.3597
38584SOL     OW22866   1.241  10.380   1.258  0.3407 -0.0544  0.0473
38584SOL    HW122867   1.243  10.410   1.167 -0.7442 -1.6568 -0.5425
38584SOL    HW222868   1.194  10.297   1.256 -0.1160  0.0785  2.1523
38585SOL     OW22869  12.283  11.388   3.951  0.0174  0.3628  0.3030
38585SOL    HW122870  12.362  11.413   4.000  0.9297 -2.3081  0.3492
38585SOL    HW222871  12.303  11.412   3.861 -0.1107  1.8319  0.6428
38586SOL     OW22872   5.429   9.412  10.842 -0.2374 -0.0388 -0.0697
38586SOL    HW122873   5.504   9.394  10.786  0.1410  2.4927 -0.4771
38586SOL    HW222874   5.353   9.392  10.788  0.1422  0.0691 -0.6443
38587SOL     OW22875   0.873   3.399  12.871  0.0455  0.0136  0.0925
38587SOL    HW122876   0.827   3.324  12.909  2.3371 -2.3758 -1.4774
38587SOL    HW222877   0.858   3.391  12.777  0.0458  1.7848 -0.0916
38588SOL     OW22878   5.768  12.518   5.195 -0.2118  0.1756  0.3963
38588SOL    HW122879   5.797  12.508   5.286 -0.9692 -0.1499  0.6131
38588SOL    HW222880   5.848  12.516   5.144  0.2997  1.3021  1.1254
38589SOL     OW22881   5.305   2.678   7.707  0.5967 -0.3230  0.0755
38589SOL    HW122882   5.258   2.653   7.628 -1.0760  0.9251  0.6165
38589SOL    HW222883   5.242   2.729   7.758  0.9643 -2.5916  3.0857
38590SOL     OW22884   4.653   6.829   4.531  0.1277  0.4102  0.4677
38590SOL    HW122885   4.686   6.746   4.497  1.3814  1.6338 -1.4929
38590SOL    HW222886   4.715   6.851   4.601  0.2565  0.0741  0.4639
38591SOL     OW22887   6.337   2.730  10.421  0.3154 -0.4294  0.3190
38591SOL    HW122888   6.350   2.818  10.385 -1.3056  0.1965  1.1823
38591SOL    HW222889   6.411   2.717  10.481  1.1936 -0.1451 -0.6689
38592SOL     OW22890   5.278   3.878   4.944 -0.5121 -0.2777  0.2531
38592SOL    HW122891   5.260   3.971   4.929 -0.9432 -0.5020 -0.6672
38592SOL    HW222892   5.373   3.875   4.959 -0.3841  0.2401 -0.3688
38593SOL     OW22893  10.961   7.394   5.390  0.4146 -0.2529 -0.9402
38593SOL    HW122894  10.977   7.455   5.462  0.1786  0.2468 -1.3152
38593SOL    HW222895  11.009   7.315   5.416 -2.0883 -1.2096  1.2530
38594SOL     OW22896  11.562   4.395   9.932  0.1496 -0.1918 -0.3137
38594SOL    HW122897  11.574   4.490   9.938  1.0211 -0.2660 -0.6792
38594SOL    HW222898  11.467   4.382   9.937  0.1184  0.5281  1.8857
38595SOL     OW22899   9.700   3.759   9.656  0.1331 -0.3582  0.0899
38595SOL    HW122900   9.612   3.747   9.693  0.5030 -2.3789  0.4040
38595SOL    HW222901   9.759   3.736   9.728  0.9082 -0.6437 -0.6314
38596SOL     OW22902   1.444   1.923  12.677  0.5710  0.0079 -0.0253
38596SOL    HW122903   1.506   1.887  12.740 -0.1038 -1.4211 -0.1418
38596SOL    HW222904   1.362   1.930  12.726  1.2112  4.0446  0.8355
38597SOL     OW22905   0.892   8.029   7.358  0.2437 -0.2418  0.6725
38597SOL    HW122906   0.926   8.010   7.271  0.1975 -1.0792  0.8251
38597SOL    HW222907   0.798   8.038   7.345 -0.0875 -2.6368  0.9473
38598SOL     OW22908   1.636  10.222   9.108 -0.7390 -0.3525 -0.4413
38598SOL    HW122909   1.673  10.143   9.068  0.5994  0.7243 -1.4414
38598SOL    HW222910   1.562  10.190   9.159  0.3130 -2.3633 -0.0583
38599SOL     OW22911   6.959   4.662  10.094 -0.8824 -0.3194 -0.4232
38599SOL    HW122912   6.936   4.612  10.172 -0.4231  0.3697  0.1675
38599SOL    HW222913   7.048   4.694  10.111 -0.8731  0.0551 -1.1147
38600SOL     OW22914   2.609   0.066   1.323  0.0829 -0.1197 -0.3279
38600SOL    HW122915   2.658   0.066   1.405  0.0275 -0.4708 -0.2911
38600SOL    HW222916   2.540   0.001   1.336 -1.3766  1.4610  0.1861
38601SOL     OW22917   0.652  11.146   4.517 -0.2701  0.5037  0.2067
38601SOL    HW122918   0.595  11.203   4.465  1.4682  1.4562 -0.7741
38601SOL    HW222919   0.733  11.196   4.525  0.9762 -1.4262  0.2016
38602SOL     OW22920   7.962  11.868  12.150  0.1031 -0.7802  0.1605
38602SOL    HW122921   7.916  11.896  12.230  2.3917 -2.2191  2.1001
38602SOL    HW222922   8.033  11.813  12.181  2.5900  0.5079 -2.7117
38603SOL     OW22923  11.361   3.569   9.437 -0.2692 -0.6136  0.0224
38603SOL    HW122924  11.370   3.647   9.492  1.9480 -0.6056 -0.2662
38603SOL    HW222925  11.431   3.510   9.466 -1.4146 -2.2096 -0.2752
38604SOL     OW22926  11.651   8.173   1.490 -0.0118 -0.7291  0.0205
38604SOL    HW122927  11.565   8.189   1.451  0.5366  1.2482 -0.4865
38604SOL    HW222928  11.652   8.226   1.569  1.6196  1.3562 -1.3055
38605SOL     OW22929   0.942   8.579  10.621 -0.3276 -0.4297  0.5691
38605SOL    HW122930   0.871   8.640  10.603 -1.5253 -1.9189  0.0960
38605SOL    HW222931   0.938   8.566  10.716 -0.5695 -0.3871  0.5651
38606SOL     OW22932   8.730  10.127   0.497 -0.1689  0.1296  0.0654
38606SOL    HW122933   8.747  10.147   0.405  1.4687  1.0204  0.5157
38606SOL    HW222934   8.668  10.193   0.526 -3.3339 -2.0739 -1.1535
38607SOL     OW22935   8.576   3.667   4.652  0.0577  0.3290  0.3459
38607SOL    HW122936   8.487   3.655   4.685 -0.0736 -2.7843 -0.8191
38607SOL    HW222937   8.565   3.690   4.560  0.4682  0.5467  0.3458
38608SOL     OW22938  11.856   7.720   4.445  0.4751 -0.1262  0.5369
38608SOL    HW122939  11.873   7.682   4.358  1.6464  1.5700 -0.0346
38608SOL    HW222940  11.856   7.645   4.504 -1.8071 -1.5095 -1.0749
38609SOL     OW22941   4.441   5.354   9.304  0.2521 -0.0742  0.2166
38609SOL    HW122942   4.407   5.296   9.235  0.6190 -0.2350  0.1685
38609SOL    HW222943   4.444   5.298   9.382  2.2842 -0.6539 -0.2291
38610SOL     OW22944   3.044   6.969   2.106  0.1088 -0.1684  0.2204
38610SOL    HW122945   3.007   6.896   2.056  0.9022  0.1360 -0.8440
38610SOL    HW222946   2.997   7.046   2.073  0.1115 -0.0543  0.4815
38611SOL     OW22947   6.248   5.343   9.403  0.5070 -0.3387 -0.0331
38611SOL    HW122948   6.317   5.312   9.343  0.1221 -0.3280 -0.4877
38611SOL    HW222949   6.240   5.273   9.467  0.7146 -0.4893 -0.1678
38612SOL     OW22950  12.794  11.444   0.443 -0.2195  0.3018 -0.5610
38612SOL    HW122951  12.797  11.353   0.414  0.0854  0.4767 -1.0796
38612SOL    HW222952  12.793  11.496   0.363 -1.2483  0.7408 -0.2907
38613SOL     OW22953   3.729   7.406   8.167 -0.6457 -0.1942  0.1667
38613SOL    HW122954   3.775   7.368   8.242  0.4604  0.6303 -0.0653
38613SOL    HW222955   3.735   7.340   8.098 -1.7174 -0.9812  0.7905
38614SOL     OW22956   8.355   9.876   5.574 -0.0662 -0.7928  0.0014
38614SOL    HW122957   8.287   9.847   5.513 -0.6441 -0.8813  0.6751
38614SOL    HW222958   8.436   9.867   5.524 -0.6331  0.3286 -1.1881
38615SOL     OW22959   0.912   1.090   1.224 -0.7373  0.2925 -0.7503
38615SOL    HW122960   0.969   1.163   1.247  1.7296 -1.6006 -0.3896
38615SOL    HW222961   0.943   1.062   1.138 -0.2499 -1.5444 -0.0203
38616SOL     OW22962   9.015   8.761  11.220 -0.9358 -0.1140 -0.2783
38616SOL    HW122963   9.078   8.783  11.288 -0.3027 -0.6524 -0.6688
38616SOL    HW222964   8.963   8.690  11.257 -0.8067 -0.1861 -0.2354
38617SOL     OW22965   1.621   6.346  11.481  0.1397  0.3810 -0.2876
38617SOL    HW122966   1.683   6.273  11.477 -0.6160 -0.2815 -0.3210
38617SOL    HW222967   1.554   6.324  11.416 -0.5793  0.6367  0.3517
38618SOL     OW22968  12.627   4.514   0.675  0.5443 -0.4422 -0.5833
38618SOL    HW122969  12.578   4.562   0.741  2.2066  0.3510  0.1369
38618SOL    HW222970  12.672   4.581   0.625 -0.1542 -1.0709 -2.1345
38619SOL     OW22971   8.454   3.581   6.840 -0.2321  0.2749 -0.4033
38619SOL    HW122972   8.398   3.583   6.763 -0.1791 -1.2371 -0.5117
38619SOL    HW222973   8.543   3.588   6.805 -0.1748 -0.9679 -0.5593
38620SOL     OW22974   5.314   4.550   6.037  0.6196 -0.0762  0.2662
38620SOL    HW122975   5.260   4.477   6.066  2.0475 -1.0354  0.6173
38620SOL    HW222976   5.302   4.618   6.104  0.5369 -0.6137  0.8026
38621SOL     OW22977   5.619   1.616  12.385  0.3451  0.4917  0.0499
38621SOL    HW122978   5.602   1.522  12.386 -0.2271  0.5884 -0.1107
38621SOL    HW222979   5.694   1.626  12.326  0.2621  0.1580 -0.1144
38622SOL     OW22980   3.441   7.389   5.253  0.6748 -0.0807  0.2874
38622SOL    HW122981   3.352   7.423   5.254  0.9178  0.6445 -0.5627
38622SOL    HW222982   3.480   7.429   5.175  2.1804  0.7857  1.4232
38623SOL     OW22983   5.797   5.198   2.247  0.3566  0.0814  0.2606
38623SOL    HW122984   5.724   5.230   2.300 -0.2857  0.5830 -0.8883
38623SOL    HW222985   5.812   5.268   2.184 -0.3228 -1.3575 -1.5922
38624SOL     OW22986   7.444  11.623   0.702 -0.4739  0.3078 -0.2676
38624SOL    HW122987   7.536  11.605   0.685 -0.2880 -0.8473  1.7193
38624SOL    HW222988   7.398  11.582   0.628  0.5450 -0.0940 -0.6952
38625SOL     OW22989  11.977   1.257   7.458 -0.2132  0.2832 -0.1280
38625SOL    HW122990  12.044   1.301   7.510 -0.5690  1.4645 -0.6428
38625SOL    HW222991  11.921   1.328   7.426 -2.2574 -0.7096  1.0103
38626SOL     OW22992   0.596  12.413   8.796 -0.5401 -0.3051  0.3370
38626SOL    HW122993   0.584  12.491   8.742 -0.3579 -0.4426  0.0972
38626SOL    HW222994   0.614  12.447   8.884 -1.1562 -0.0859  0.3785
38627SOL     OW22995   7.088   5.567   6.501  0.1221 -0.7006  0.0782
38627SOL    HW122996   7.121   5.533   6.584  0.6728  0.1825  0.2336
38627SOL    HW222997   7.003   5.605   6.523  0.4679 -0.0673  0.3307
38628SOL     OW22998  11.279   1.947   7.139 -0.1395  0.7256 -0.1657
38628SOL    HW122999  11.229   1.873   7.104  1.3402  0.2025 -1.2810
38628SOL    HW223000  11.214   2.015   7.154 -1.5775 -0.8293  1.0569
38629SOL     OW23001   5.863   8.360   2.167 -0.0455 -0.2282 -0.7163
38629SOL    HW123002   5.844   8.327   2.255 -1.0831  1.4560 -0.2823
38629SOL    HW223003   5.804   8.310   2.110 -0.0489 -0.6511 -0.3538
38630SOL     OW23004   6.969   6.184  11.226 -0.1678 -0.3399 -0.2466
38630SOL    HW123005   6.934   6.236  11.300 -0.6001  0.6767 -1.1356
38630SOL    HW223006   7.049   6.145  11.260  0.6247  1.5929  0.2385
38631SOL     OW23007   3.517   6.435  11.284 -0.2094  0.3330  0.0729
38631SOL    HW123008   3.534   6.455  11.192 -2.5685  0.3090 -0.4287
38631SOL    HW223009   3.472   6.351  11.283 -1.5376  0.9893  1.0981
38632SOL     OW23010   0.929   0.735   9.787 -0.4510  0.2482 -0.2008
38632SOL    HW123011   0.867   0.667   9.763  0.7145 -1.5904  1.6887
38632SOL    HW223012   0.965   0.766   9.704 -0.2576 -2.2244 -1.1005
38633SOL     OW23013   3.557   9.247   3.890  0.0436 -0.2947 -0.1690
38633SOL    HW123014   3.522   9.323   3.844  0.5928  0.6200  0.8756
38633SOL    HW223015   3.650   9.247   3.868  0.6447  1.0392  2.0187
38634SOL     OW23016   4.199   4.190   5.175  0.2988  0.0292 -0.1578
38634SOL    HW123017   4.107   4.169   5.157  0.4185 -0.6691  0.0027
38634SOL    HW223018   4.235   4.215   5.090  0.0273  0.0472 -0.2694
38635SOL     OW23019  10.782  12.691   2.858 -0.6038 -0.1032 -0.1508
38635SOL    HW123020  10.704  12.646   2.828  0.1476 -0.4894 -1.6035
38635SOL    HW223021  10.778  12.778   2.818 -0.4155 -0.0294 -0.0150
38636SOL     OW23022   9.954  11.224   9.250  0.4027  0.4548  0.6194
38636SOL    HW123023   9.879  11.169   9.273 -1.4290  2.7309  0.4352
38636SOL    HW223024   9.999  11.238   9.333  0.4508 -0.6171  0.8006
38637SOL     OW23025   2.441  11.935   1.663 -0.4414 -0.0273 -0.2550
38637SOL    HW123026   2.347  11.920   1.666 -0.9610  2.6489  0.3614
38637SOL    HW223027   2.476  11.887   1.738 -2.0791  2.4939  2.3416
38638SOL     OW23028   2.245   1.022   0.932  0.4956 -0.2781  0.2695
38638SOL    HW123029   2.231   1.107   0.890 -2.5658 -0.3495  0.9358
38638SOL    HW223030   2.266   1.044   1.023  0.0606 -0.2292  0.3580
38639SOL     OW23031   5.543   3.553   9.482 -0.0477  0.0603 -0.3082
38639SOL    HW123032   5.528   3.545   9.576 -0.4076  1.2216 -0.2497
38639SOL    HW223033   5.505   3.474   9.444 -1.1285  0.2243  0.4000
38640SOL     OW23034   5.563   1.685  12.969  0.1008  0.2916  0.1625
38640SOL    HW123035   5.483   1.638  12.992  0.5855 -0.2230  0.8288
38640SOL    HW223036   5.555   1.700  12.875  0.8691 -3.0133 -0.5378
38641SOL     OW23037   9.707   0.164   0.751 -0.2955  0.1906  0.1880
38641SOL    HW123038   9.742   0.124   0.671  0.4073  1.3036 -0.0848
38641SOL    HW223039   9.709   0.258   0.734 -0.1054  0.4540  1.5272
38642SOL     OW23040   4.635  11.241  10.635  0.1970 -0.1143 -0.1672
38642SOL    HW123041   4.661  11.321  10.682  0.3188 -0.0604 -0.3254
38642SOL    HW223042   4.543  11.255  10.614 -0.2921 -0.7958  1.4082
38643SOL     OW23043   5.264   2.804   5.250  0.1443  0.3573 -0.0936
38643SOL    HW123044   5.321   2.871   5.212 -2.0347  2.6294  0.4306
38643SOL    HW223045   5.176   2.831   5.228 -0.8677 -2.5794 -0.1230
38644SOL     OW23046   0.486  11.941   7.384 -0.2390  0.0370 -0.0141
38644SOL    HW123047   0.493  11.877   7.313  2.3253 -0.7986  0.8687
38644SOL    HW223048   0.483  12.026   7.341 -1.0928 -0.5497 -1.1506
38645SOL     OW23049   9.680   7.267   5.590 -0.1141 -0.0393  0.3528
38645SOL    HW123050   9.666   7.298   5.501 -0.3943 -0.1994  0.3403
38645SOL    HW223051   9.758   7.212   5.585  0.7177  1.0949  0.4764
38646SOL     OW23052   7.113   7.084   4.598 -0.1132 -0.1471 -0.3616
38646SOL    HW123053   7.165   7.043   4.666  1.5476  1.8712 -0.2990
38646SOL    HW223054   7.095   7.014   4.535 -0.6265 -1.7583  1.4849
38647SOL     OW23055  12.897  10.800  12.361 -0.2327 -0.0520 -0.3791
38647SOL    HW123056  12.903  10.749  12.441  0.0275 -1.5328 -1.3025
38647SOL    HW223057  12.858  10.740  12.297 -1.0497  1.2996 -1.1995
38648SOL     OW23058   6.242   4.978   9.232 -0.3235 -0.4985  0.2587
38648SOL    HW123059   6.235   4.896   9.183 -0.6614  0.1021 -0.7291
38648SOL    HW223060   6.174   4.972   9.299  0.1680 -1.3467  0.7001
38649SOL     OW23061   5.141   5.311   4.927  0.2231 -0.1326 -0.1826
38649SOL    HW123062   5.071   5.278   4.984  0.7953  0.0775  0.6565
38649SOL    HW223063   5.126   5.405   4.923  1.4787  0.1807  1.4666
38650SOL     OW23064  11.583   0.729   8.472  0.0169 -0.5034 -0.0398
38650SOL    HW123065  11.573   0.816   8.511 -0.5698 -0.4545 -0.2862
38650SOL    HW223066  11.521   0.674   8.520 -0.6219 -0.4694 -0.8041
38651SOL     OW23067  10.628  11.847   7.438 -0.6987 -0.4710 -0.2148
38651SOL    HW123068  10.604  11.820   7.349 -2.2094  0.0364  0.0253
38651SOL    HW223069  10.706  11.902   7.425 -0.0293 -1.5526 -1.0668
38652SOL     OW23070   8.116   3.256   7.952  0.0137  0.1681  0.0465
38652SOL    HW123071   8.024   3.227   7.950 -0.4143  1.4834 -0.0123
38652SOL    HW223072   8.117   3.336   7.901  0.8196  1.1921  1.5791
38653SOL     OW23073  12.507   2.622   2.117 -0.2045 -0.3467 -0.2151
38653SOL    HW123074  12.592   2.660   2.141 -0.1127 -1.3087  1.0683
38653SOL    HW223075  12.509   2.620   2.021  0.1338  2.0391 -0.3354
38654SOL     OW23076  10.177   1.065   9.050  0.2075 -0.1226 -0.7636
38654SOL    HW123077  10.235   1.019   9.110  1.3521  1.9209 -0.2029
38654SOL    HW223078  10.179   1.012   8.970  1.2123 -1.1885 -0.0764
38655SOL     OW23079   1.457  11.772  10.104 -0.1515 -0.4466  0.7073
38655SOL    HW123080   1.481  11.757  10.195  0.6736  0.9057  0.7413
38655SOL    HW223081   1.495  11.857  10.083 -0.4225 -0.6839 -0.8683
38656SOL     OW23082   6.869   3.030   1.613 -0.4474  0.3811 -0.1292
38656SOL    HW123083   6.823   2.975   1.549 -2.2183  1.4973  0.1302
38656SOL    HW223084   6.863   2.982   1.695 -0.9672  0.4108 -0.1460
38657SOL     OW23085   4.199   4.954   3.783 -0.0360  0.1113 -0.2681
38657SOL    HW123086   4.145   5.020   3.738  0.0122 -0.3618 -1.0443
38657SOL    HW223087   4.289   4.982   3.766 -0.0213  0.1384 -0.1450
38658SOL     OW23088   5.918   5.968   8.640 -0.2201 -0.2165  0.5026
38658SOL    HW123089   5.882   5.924   8.563  2.3288 -0.4921 -0.6251
38658SOL    HW223090   5.992   6.019   8.606 -0.5303  1.6540  2.4238
38659SOL     OW23091   6.848   1.068   9.501 -0.2414  0.1201  0.5203
38659SOL    HW123092   6.809   0.980   9.503 -0.0144 -0.0111 -0.3706
38659SOL    HW223093   6.933   1.057   9.543 -0.2932 -0.0498  0.5833
38660SOL     OW23094   9.788   9.847  12.794 -0.1609  0.2941  0.8577
38660SOL    HW123095   9.816   9.938  12.795 -1.9868  0.9139  2.8867
38660SOL    HW223096   9.737   9.838  12.713 -1.8392  1.7513  1.6881
38661SOL     OW23097   9.270   5.686   4.605  0.0089 -0.0096  0.7761
38661SOL    HW123098   9.359   5.709   4.577 -0.2308 -0.5031 -0.4901
38661SOL    HW223099   9.222   5.769   4.601  0.6419  0.4780  2.5250
38662SOL     OW23100   6.976   4.723  12.508  0.0677 -0.0904 -0.6164
38662SOL    HW123101   6.992   4.762  12.594 -1.6005 -0.0046 -0.3081
38662SOL    HW223102   7.061   4.725  12.465  1.2320 -1.2323  1.4624
38663SOL     OW23103   7.154   1.685   8.703 -0.2343  0.3379 -0.0104
38663SOL    HW123104   7.223   1.739   8.741  0.2074 -0.0356 -0.2832
38663SOL    HW223105   7.148   1.715   8.612  1.6205 -1.6106 -0.8583
38664SOL     OW23106   6.471   5.181   0.165  0.5107  0.1624  0.3976
38664SOL    HW123107   6.547   5.130   0.193  0.6445  0.7575  1.1561
38664SOL    HW223108   6.416   5.187   0.244 -0.1449  0.0677 -0.0386
38665SOL     OW23109   2.785   0.992   3.247 -0.1962 -0.4656 -0.3043
38665SOL    HW123110   2.839   1.054   3.198 -1.1565  0.9963  0.4125
38665SOL    HW223111   2.805   1.010   3.339 -2.0861  0.3384 -0.0073
38666SOL     OW23112   3.493   6.416   2.823  0.0086 -0.0555 -0.8337
38666SOL    HW123113   3.551   6.357   2.871  1.0924  1.2804 -0.4775
38666SOL    HW223114   3.538   6.500   2.823 -1.1062  0.5725 -2.0969
38667SOL     OW23115   7.986  11.972   0.836  0.1014 -0.1827 -0.0241
38667SOL    HW123116   7.900  11.936   0.815  0.3186  0.3876 -2.1574
38667SOL    HW223117   8.014  12.014   0.755  1.9843  0.4767  0.9200
38668SOL     OW23118   0.041   5.657  12.491  0.1983 -0.2387  0.2931
38668SOL    HW123119   0.076   5.672  12.578 -0.0395  0.8667  0.2050
38668SOL    HW223120   0.009   5.567  12.493 -2.5689  0.6725  2.3036
38669SOL     OW23121   9.738  11.193  11.614 -0.1413  0.5567 -0.1745
38669SOL    HW123122   9.737  11.288  11.626 -0.9110  0.7259 -1.3415
38669SOL    HW223123   9.827  11.173  11.584 -0.0232  0.9347 -0.0722
38670SOL     OW23124   4.332   0.379   7.004 -0.1610  0.1045  1.1594
38670SOL    HW123125   4.317   0.418   7.090 -0.2575  0.7948  0.8362
38670SOL    HW223126   4.352   0.453   6.946 -4.3147  0.2714 -0.3876
38671SOL     OW23127  12.364   4.259   2.692 -0.1354  0.0708  0.0933
38671SOL    HW123128  12.298   4.192   2.674 -1.1991  0.4526  2.1927
38671SOL    HW223129  12.320   4.319   2.752  2.0013  0.5552  1.2536
38672SOL     OW23130  10.769   6.260   1.542  0.0278  0.3071  0.5483
38672SOL    HW123131  10.729   6.302   1.466 -0.0558  0.5140  0.7048
38672SOL    HW223132  10.694   6.230   1.594  0.0772 -1.0374 -0.1018
38673SOL     OW23133  11.062   3.497   0.247  0.5521 -0.3753  0.0833
38673SOL    HW123134  11.027   3.430   0.188 -0.3246 -0.6436  0.8788
38673SOL    HW223135  10.997   3.567   0.244  0.4719 -0.4159  0.7627
38674SOL     OW23136   5.441   6.037   4.746 -0.1789  0.2486  0.5112
38674SOL    HW123137   5.466   6.019   4.656 -0.5104  0.9359  0.2707
38674SOL    HW223138   5.521   6.025   4.796 -0.3477 -1.7478  0.3855
38675SOL     OW23139   6.619   3.474   3.359 -0.1744  0.0627  0.4990
38675SOL    HW123140   6.613   3.433   3.272 -0.4161 -0.4506  0.7534
38675SOL    HW223141   6.575   3.412   3.417  1.9643 -0.7153  1.3896
38676SOL     OW23142   5.609   8.786   8.289 -0.1156  0.2018  0.5447
38676SOL    HW123143   5.644   8.708   8.244  0.1778 -0.2596  1.5287
38676SOL    HW223144   5.526   8.804   8.246  0.7922  0.6345 -1.1094
38677SOL     OW23145  11.755   6.185   9.246  0.3473  0.1370  0.3661
38677SOL    HW123146  11.687   6.192   9.314 -0.1080 -0.9447  0.0496
38677SOL    HW223147  11.765   6.274   9.213  1.1289  0.8359  2.3536
38678SOL     OW23148  11.126  11.822   5.637  0.2520  0.2194 -0.3830
38678SOL    HW123149  11.138  11.907   5.594 -1.0505  0.4828 -0.2589
38678SOL    HW223150  11.121  11.843   5.730 -1.6826  0.2268 -0.4539
38679SOL     OW23151  12.954   8.598   7.282 -0.0652  0.3437  0.1412
38679SOL    HW123152  12.936   8.658   7.355  1.7238 -0.9128  1.7207
38679SOL    HW223153  12.870   8.556   7.265 -0.6380  1.0182  1.1324
38680SOL     OW23154   4.332   3.752   7.908 -0.5355 -0.0991  0.1891
38680SOL    HW123155   4.398   3.788   7.849  0.0161 -1.2414  0.0909
38680SOL    HW223156   4.356   3.660   7.919 -2.1790 -0.5790  0.0505
38681SOL     OW23157  10.535   5.403   1.206  0.1480 -0.3882  0.1679
38681SOL    HW123158  10.596   5.372   1.139 -1.5843 -1.5283 -0.9526
38681SOL    HW223159  10.479   5.465   1.160  0.6802  0.9746  1.2875
38682SOL     OW23160   3.045   9.442   7.464  0.7354 -0.2819 -0.2561
38682SOL    HW123161   3.124   9.483   7.431  0.7834  1.0426  1.4033
38682SOL    HW223162   3.064   9.348   7.461  2.2327 -0.0044 -0.2343
38683SOL     OW23163   8.373   0.364   2.032  0.0196 -0.1578 -0.9113
38683SOL    HW123164   8.401   0.273   2.024  0.1415 -0.1090 -1.0270
38683SOL    HW223165   8.443   0.415   1.992  0.2488  0.0297 -0.2853
38684SOL     OW23166   0.913   7.905   5.993  0.0483  0.1705 -0.1262
38684SOL    HW123167   0.880   7.834   5.937 -0.6277  1.4633 -1.4126
38684SOL    HW223168   0.992   7.869   6.033  0.6052 -0.7734 -1.9805
38685SOL     OW23169  12.482   5.409  11.437 -0.1640 -0.2990  0.2719
38685SOL    HW123170  12.561   5.369  11.472 -1.2020 -1.7815  0.9776
38685SOL    HW223171  12.427   5.428  11.514 -0.3823  1.0200 -0.1738
38686SOL     OW23172   7.509   8.502   0.155  0.1806  0.4714  0.2915
38686SOL    HW123173   7.583   8.494   0.216  1.8750  1.7440 -1.4738
38686SOL    HW223174   7.534   8.574   0.097 -1.1778 -0.8724 -2.0909
38687SOL     OW23175   0.268   1.217  10.676  0.0083  0.1916  0.0272
38687SOL    HW123176   0.247   1.124  10.666  0.6171  0.2205 -1.9405
38687SOL    HW223177   0.283   1.229  10.770  1.1376 -1.9636  0.1695
38688SOL     OW23178  11.721  10.053  12.819  0.1182  0.8203 -0.6100
38688SOL    HW123179  11.764  10.025  12.738  0.4063  0.3899 -0.3129
38688SOL    HW223180  11.724   9.976  12.875 -0.9395  0.8240 -0.5410
38689SOL     OW23181   0.402   8.660   0.707  0.1875  0.5535  0.1979
38689SOL    HW123182   0.368   8.720   0.774  0.2608 -0.8005  1.5059
38689SOL    HW223183   0.382   8.703   0.624 -0.4784  2.0006  1.0650
38690SOL     OW23184  12.107   6.263   6.841 -0.4739 -0.2416 -0.0636
38690SOL    HW123185  12.049   6.294   6.911 -0.1420  0.5039 -0.1160
38690SOL    HW223186  12.065   6.295   6.760  0.4431  1.0404 -0.0560
38691SOL     OW23187  12.819   1.149   6.872 -0.3442  0.5805  0.2112
38691SOL    HW123188  12.812   1.081   6.939 -2.1360  2.4204  2.0717
38691SOL    HW223189  12.745   1.207   6.889 -0.7966  1.2762 -3.3451
38692SOL     OW23190   7.484   8.541  11.570 -0.0075  0.1582  0.0585
38692SOL    HW123191   7.460   8.602  11.500 -0.7180 -0.9052 -0.6540
38692SOL    HW223192   7.565   8.500  11.540  2.0614  2.6732  1.7931
38693SOL     OW23193   6.169   3.582   4.750 -0.3598 -0.5428 -0.2977
38693SOL    HW123194   6.100   3.649   4.753  0.7135  0.7047 -1.9133
38693SOL    HW223195   6.235   3.612   4.811  0.6178  0.5098 -1.8130
38694SOL     OW23196  11.728   0.510   0.434  0.3887 -0.1070 -0.0686
38694SOL    HW123197  11.808   0.513   0.382 -0.9318 -1.4609 -2.3859
38694SOL    HW223198  11.668   0.570   0.388 -0.0770  0.5665  1.3664
38695SOL     OW23199  12.721   8.831  11.647  0.2222 -0.1106 -0.3958
38695SOL    HW123200  12.755   8.806  11.733 -0.8003 -1.6764 -0.4005
38695SOL    HW223201  12.673   8.913  11.662  0.5730 -0.0436  0.3940
38696SOL     OW23202   1.340   0.539   3.368 -0.8350  0.0579 -0.0810
38696SOL    HW123203   1.434   0.558   3.374 -0.5761 -1.1023 -0.2664
38696SOL    HW223204   1.311   0.532   3.459 -0.6715  0.0477 -0.0289
38697SOL     OW23205   2.547   2.784   8.932  0.2288 -0.1574 -0.1400
38697SOL    HW123206   2.602   2.862   8.931 -0.7229  0.5811  1.1003
38697SOL    HW223207   2.608   2.711   8.922  1.3270  0.6667  0.3187
38698SOL     OW23208  11.413  11.136   5.721 -0.4116 -0.2668  0.4805
38698SOL    HW123209  11.401  11.119   5.814 -0.1860  1.9588  0.9737
38698SOL    HW223210  11.350  11.205   5.700  1.7475  1.6351 -0.1793
38699SOL     OW23211   7.575   5.422   2.273  0.4320 -0.0628 -0.0602
38699SOL    HW123212   7.656   5.392   2.230  1.5953  4.3077 -1.4991
38699SOL    HW223213   7.510   5.425   2.203  0.0046 -0.3680  0.3196
38700SOL     OW23214   1.732  10.862   3.477 -0.3262 -0.3265  0.0975
38700SOL    HW123215   1.664  10.920   3.443  0.5118  0.0816 -0.9242
38700SOL    HW223216   1.688  10.812   3.546 -2.0939 -1.1888 -1.5520
38701SOL     OW23217  10.544   9.146   7.054 -0.1419  0.1816  0.0724
38701SOL    HW123218  10.582   9.065   7.090  3.3257  0.6998 -1.9910
38701SOL    HW223219  10.598   9.216   7.091 -0.2869  1.1690 -1.5114
38702SOL     OW23220   9.473  10.859   4.219 -0.0779 -0.3267  0.0303
38702SOL    HW123221   9.528  10.931   4.189  0.1902 -0.0960  1.0298
38702SOL    HW223222   9.513  10.781   4.180  0.2898 -0.0434 -0.1686
38703SOL     OW23223   2.033   8.838   7.565 -0.0399  0.5564 -0.6566
38703SOL    HW123224   2.062   8.868   7.479  1.2991 -1.8816 -1.1581
38703SOL    HW223225   1.964   8.774   7.546 -0.1492  0.4334  0.1055
38704SOL     OW23226  11.266  12.643   7.674  0.4448  0.3180 -0.7275
38704SOL    HW123227  11.257  12.552   7.647  0.6062 -0.1677  0.7261
38704SOL    HW223228  11.310  12.638   7.759  0.3218  1.7453 -0.5546
38705SOL     OW23229   8.328   2.533   9.529 -0.0167  0.1310 -0.2235
38705SOL    HW123230   8.383   2.597   9.575 -0.9855  0.7194  0.1370
38705SOL    HW223231   8.335   2.558   9.436 -0.4892  0.8549 -0.0737
38706SOL     OW23232   9.197   1.930  12.785 -1.0084 -1.0026  0.0548
38706SOL    HW123233   9.153   1.858  12.740 -1.8097 -0.8072  0.5118
38706SOL    HW223234   9.289   1.923  12.758 -1.2257 -1.7190 -0.5126
38707SOL     OW23235  11.579   6.238   9.421 -0.4353  0.4451  0.5243
38707SOL    HW123236  11.525   6.318   9.424 -1.0957  0.2229 -2.3063
38707SOL    HW223237  11.515   6.167   9.423 -0.1308  0.1224 -0.7238
38708SOL     OW23238   4.326   6.551  12.358  0.0843  0.0605  0.3502
38708SOL    HW123239   4.264   6.480  12.345 -0.0348 -0.5202  3.2673
38708SOL    HW223240   4.409   6.517  12.325 -0.3985 -0.5889 -0.2324
38709SOL     OW23241   3.010  10.742   5.502  0.2698 -0.7652  0.2689
38709SOL    HW123242   2.975  10.654   5.514  0.2645 -0.9464 -0.8779
38709SOL    HW223243   3.083  10.731   5.440 -0.9092  0.2338 -1.3972
38710SOL     OW23244   5.128  11.223   8.103 -0.2037  0.0275 -0.1393
38710SOL    HW123245   5.215  11.206   8.066  0.0516  0.7491  0.1071
38710SOL    HW223246   5.076  11.254   8.028 -0.3552 -0.7379 -0.3585
38711SOL     OW23247   0.359   0.863   9.509  0.4510 -0.7804  0.3481
38711SOL    HW123248   0.265   0.846   9.511  0.3477 -0.2711 -0.0242
38711SOL    HW223249   0.372   0.934   9.572  0.5836 -0.8293  0.3768
38712SOL     OW23250   1.410   0.234   6.791 -0.3806  0.1248  0.4946
38712SOL    HW123251   1.505   0.221   6.794 -0.3621  0.4516  1.9816
38712SOL    HW223252   1.385   0.206   6.703  1.1287  0.3211 -0.0235
38713SOL     OW23253  11.038   3.966   9.325  0.4966  0.1548  0.6043
38713SOL    HW123254  11.091   3.977   9.246 -0.0496 -1.4550 -0.0254
38713SOL    HW223255  11.027   4.055   9.359  1.3689  0.7988 -0.7128
38714SOL     OW23256   7.373   6.347  10.658  0.5243  0.0434 -0.5732
38714SOL    HW123257   7.435   6.310  10.595 -0.7277 -0.3741 -1.5903
38714SOL    HW223258   7.379   6.289  10.734  1.9436  0.4681 -0.3241
38715SOL     OW23259   5.858   3.361   7.742 -0.1604 -0.0455  0.0530
38715SOL    HW123260   5.787   3.320   7.790 -1.1908  1.0473 -0.5035
38715SOL    HW223261   5.844   3.455   7.753  1.4304  0.1973  0.2622
38716SOL     OW23262  10.502   4.190  11.416  0.2773  0.7186  0.2163
38716SOL    HW123263  10.459   4.160  11.335  1.3391  0.1215 -0.1572
38716SOL    HW223264  10.471   4.128  11.483  2.7699 -1.6436 -0.6312
38717SOL     OW23265   2.110   6.475   9.146  0.2949 -0.0957 -0.0054
38717SOL    HW123266   2.027   6.511   9.114 -0.3989 -2.3310 -0.9087
38717SOL    HW223267   2.175   6.503   9.082 -0.2110 -0.3837 -0.6546
38718SOL     OW23268   9.997   6.718   2.564  0.0579  0.3786  0.7049
38718SOL    HW123269  10.033   6.637   2.528 -0.7845  0.2931  0.0141
38718SOL    HW223270   9.997   6.704   2.659  1.1198  0.0888  0.6732
38719SOL     OW23271   4.861   2.217   6.564  0.1794  0.2059 -0.1708
38719SOL    HW123272   4.902   2.154   6.622 -2.0940 -0.1718  1.1311
38719SOL    HW223273   4.767   2.206   6.577 -0.3721  2.0489 -1.8683
38720SOL     OW23274   8.911   9.241   5.780  0.2553 -0.5964  0.0948
38720SOL    HW123275   8.848   9.286   5.724  0.2008 -1.0625 -0.2210
38720SOL    HW223276   8.941   9.166   5.728  1.5239 -0.0438 -0.0132
38721SOL     OW23277  11.101   0.181  10.318 -0.1971  0.1279 -0.5462
38721SOL    HW123278  11.034   0.142  10.373 -0.5614  0.6933 -0.5770
38721SOL    HW223279  11.184   0.151  10.356 -0.4629 -0.6396 -0.5578
38722SOL     OW23280   7.653   5.029   6.005  1.0619 -0.4201 -0.4746
38722SOL    HW123281   7.643   5.010   6.098 -1.3801  2.3930 -0.0060
38722SOL    HW223282   7.637   4.945   5.962  2.2506 -1.8025  1.5796
38723SOL     OW23283   3.387  11.586   4.141  0.3403  0.6991 -0.0804
38723SOL    HW123284   3.304  11.603   4.185 -0.0274  0.6497 -0.7411
38723SOL    HW223285   3.451  11.639   4.188 -0.4177  2.3602 -0.8576
38724SOL     OW23286   0.055  12.199   3.007  0.4999  0.0080  0.1914
38724SOL    HW123287  -0.038  12.187   3.025  0.3075 -0.7802 -1.2054
38724SOL    HW223288   0.083  12.117   2.967  1.1183  1.2343 -2.0742
38725SOL     OW23289   0.430   9.718   0.887  0.2242 -0.8059 -0.6329
38725SOL    HW123290   0.505   9.704   0.944  0.3643 -0.9479 -0.8504
38725SOL    HW223291   0.468   9.725   0.799  0.1600  0.7406 -0.5692
38726SOL     OW23292   0.632   8.098   1.914  0.4759  0.3539 -0.5541
38726SOL    HW123293   0.727   8.091   1.918  0.3972 -0.4299  0.5067
38726SOL    HW223294   0.606   8.108   2.006 -0.4993 -0.0186 -0.7832
38727SOL     OW23295   5.737   0.655   3.510  0.1471  0.0742  0.5704
38727SOL    HW123296   5.764   0.564   3.500  1.8705  0.4484  1.3004
38727SOL    HW223297   5.802   0.705   3.460  0.2552  0.9941  1.5748
38728SOL     OW23298   1.814   1.474   8.492 -0.1463  0.5684  0.2309
38728SOL    HW123299   1.730   1.514   8.514  1.0466  2.1637  2.1468
38728SOL    HW223300   1.805   1.383   8.521 -1.0888  0.8102  0.7524
38729SOL     OW23301   7.352   1.365   8.913  0.8527  0.3304 -0.0428
38729SOL    HW123302   7.346   1.273   8.937 -1.3022  0.5673  0.6289
38729SOL    HW223303   7.316   1.369   8.825  0.3660  0.5803  0.1604
38730SOL     OW23304   4.552   8.035   7.219  0.4836  0.0064  0.1624
38730SOL    HW123305   4.481   8.016   7.280 -0.0172 -3.3744 -1.2473
38730SOL    HW223306   4.607   7.957   7.221  1.9638  0.9173 -1.7111
38731SOL     OW23307   5.808   5.839   2.431  0.2213  0.0453  0.4964
38731SOL    HW123308   5.848   5.850   2.345 -0.4239  1.4148  0.3447
38731SOL    HW223309   5.882   5.839   2.492  0.6437 -0.4294 -0.0009
38732SOL     OW23310   7.003   3.149   9.479 -0.3341 -0.0301 -0.0610
38732SOL    HW123311   6.909   3.153   9.496 -0.2626 -0.1675  0.3602
38732SOL    HW223312   7.023   3.056   9.473  0.1110 -0.0823  1.7601
38733SOL     OW23313  11.004   6.400   1.319 -0.5834  0.1001  0.0618
38733SOL    HW123314  11.065   6.427   1.251 -1.7342 -1.2358 -1.5763
38733SOL    HW223315  11.054   6.409   1.401  1.7935 -0.8466 -1.1797
38734SOL     OW23316   1.980   2.986   0.836  0.7087 -0.1071  0.1083
38734SOL    HW123317   1.942   2.936   0.764  2.1608 -1.6432  0.3404
38734SOL    HW223318   1.921   2.970   0.910  0.1192  0.1130 -0.3101
38735SOL     OW23319   6.582   7.881   5.295 -0.3034 -0.5960  0.2928
38735SOL    HW123320   6.576   7.821   5.369 -0.4487 -0.2912  0.5313
38735SOL    HW223321   6.673   7.877   5.267 -0.3219 -0.9493  0.2881
38736SOL     OW23322   3.381   4.510   8.709 -0.1959  0.1352  0.5425
38736SOL    HW123323   3.413   4.547   8.791 -1.1173 -0.8995  1.3978
38736SOL    HW223324   3.432   4.431   8.696  0.2799  0.5423 -0.1547
38737SOL     OW23325   8.798   3.061  10.045 -0.0854 -0.3376 -0.6008
38737SOL    HW123326   8.878   3.024  10.082  0.6706  1.0285 -0.7888
38737SOL    HW223327   8.736   2.988  10.042  1.0404 -1.3367 -0.1287
38738SOL     OW23328   0.859   8.138  10.003 -0.2930 -0.0707  0.6193
38738SOL    HW123329   0.849   8.225  10.041  1.5333  0.3965  0.1118
38738SOL    HW223330   0.781   8.128   9.947 -0.4579  1.2939  0.5599
38739SOL     OW23331   8.771  12.878  12.082 -0.2139 -0.0546 -0.5677
38739SOL    HW123332   8.859  12.916  12.079 -0.0303 -0.4198 -0.0782
38739SOL    HW223333   8.779  12.805  12.144 -1.0140  0.3206  0.0011
38740SOL     OW23334   8.160  10.347   4.465  0.6018  0.3362  0.0072
38740SOL    HW123335   8.087  10.386   4.513 -0.6516 -1.4441 -0.3686
38740SOL    HW223336   8.147  10.375   4.374  0.1748 -0.2514 -0.1182
38741SOL     OW23337   7.385   3.401   9.588 -0.0723  0.2928  0.4431
38741SOL    HW123338   7.404   3.407   9.681  0.4077  0.8869  0.3115
38741SOL    HW223339   7.290   3.396   9.583 -0.0993  0.2328  0.9638
38742SOL     OW23340   3.528  11.929   6.098  0.3095  0.0640  0.2625
38742SOL    HW123341   3.556  11.854   6.046  1.3857  0.0960  0.7668
38742SOL    HW223342   3.556  12.005   6.047 -0.2860  0.1241  0.0169
38743SOL     OW23343   3.322   1.255  10.364  0.7713  0.1606 -0.1542
38743SOL    HW123344   3.358   1.178  10.409  1.7183  1.4773  1.4781
38743SOL    HW223345   3.387   1.276  10.297  0.1213 -0.8858 -1.1545
38744SOL     OW23346   9.487   1.004   3.694 -0.7022  0.1130  0.1100
38744SOL    HW123347   9.480   1.070   3.763 -1.3628  0.4482 -0.2575
38744SOL    HW223348   9.506   1.055   3.615  0.3972 -0.2992  0.1010
38745SOL     OW23349   7.481  10.312   8.124 -0.2090  0.0960  0.0814
38745SOL    HW123350   7.564  10.351   8.097 -0.5616  0.3815 -0.5946
38745SOL    HW223351   7.488  10.220   8.096  0.5279 -0.3179  1.4755
38746SOL     OW23352   9.860  11.459   4.103 -0.2458  0.2987  0.0057
38746SOL    HW123353   9.886  11.552   4.105 -0.6383  0.3941  1.4694
38746SOL    HW223354   9.940  11.413   4.079 -0.0339  1.0099 -0.7109
38747SOL     OW23355  11.143   8.028   4.252 -0.2213  0.3585  0.2103
38747SOL    HW123356  11.076   8.038   4.319 -0.2982  0.3902  0.1291
38747SOL    HW223357  11.223   8.008   4.301 -0.6734 -1.6149  0.2021
38748SOL     OW23358   2.981  10.245   2.227  0.7288  0.0655  0.1867
38748SOL    HW123359   3.052  10.186   2.202  1.8139  1.4851 -0.1892
38748SOL    HW223360   3.005  10.275   2.315 -0.3207 -0.7699  0.7811
38749SOL     OW23361   7.514   4.787  12.418 -0.1554 -0.0295  0.0044
38749SOL    HW123362   7.439   4.824  12.463  0.6706  4.0212 -1.5392
38749SOL    HW223363   7.476   4.722  12.358 -2.6218  2.3615 -1.2374
38750SOL     OW23364   2.439   7.433   8.989  0.2836 -0.0772  0.1194
38750SOL    HW123365   2.502   7.381   8.939  0.3251  1.4097 -1.4493
38750SOL    HW223366   2.478   7.440   9.076  1.3739 -0.7395 -0.2881
38751SOL     OW23367   3.022   7.967   4.409 -0.3617  0.1599 -0.0542
38751SOL    HW123368   2.938   8.013   4.418  0.1682  0.7403  2.7117
38751SOL    HW223369   3.014   7.891   4.466 -0.0300 -1.5089 -2.1027
38752SOL     OW23370   2.851  10.379   5.928  0.1151  0.3272  0.4170
38752SOL    HW123371   2.931  10.412   5.970 -0.4848 -0.7821  2.6251
38752SOL    HW223372   2.788  10.450   5.938  0.5861  0.9373 -0.7123
38753SOL     OW23373   9.854  12.520  11.987  0.6054  0.2683  0.8413
38753SOL    HW123374   9.925  12.544  12.047  1.5279 -2.5570  1.0396
38753SOL    HW223375   9.884  12.439  11.945 -2.5652 -1.1602  1.0385
38754SOL     OW23376  11.547   8.214  10.230 -0.4670 -0.6167 -0.1756
38754SOL    HW123377  11.490   8.177  10.164 -2.7431 -0.1632  1.4028
38754SOL    HW223378  11.517   8.305  10.240  2.6947  0.7103 -1.5237
38755SOL     OW23379   6.872  10.194   6.524 -0.2606 -0.1581  0.1415
38755SOL    HW123380   6.959  10.160   6.547 -0.0971  0.5549  0.6060
38755SOL    HW223381   6.880  10.289   6.533 -1.3071 -0.1315  0.9693
38756SOL     OW23382   8.227  10.073   0.363  0.1510 -0.5276  0.2187
38756SOL    HW123383   8.245  10.166   0.376  0.5041 -0.4367 -0.8119
38756SOL    HW223384   8.141  10.071   0.321  0.4395 -0.6263 -0.3734
38757SOL     OW23385   0.067   4.203  11.975  0.7434  0.5862  0.7133
38757SOL    HW123386  -0.020   4.216  12.013 -0.2393  3.2782 -1.9930
38757SOL    HW223387   0.056   4.129  11.916  0.1722  1.0881  0.1715
38758SOL     OW23388   5.250   4.034   4.036 -0.2787  0.5717 -0.1810
38758SOL    HW123389   5.232   4.124   4.062  2.0082  0.8027  0.8504
38758SOL    HW223390   5.224   3.981   4.111 -0.3259  0.5157 -0.2365
38759SOL     OW23391   6.172   1.300   8.469 -0.0653  0.2210 -0.4613
38759SOL    HW123392   6.262   1.330   8.480 -0.9666  2.7285  0.7195
38759SOL    HW223393   6.120   1.358   8.525 -2.4744 -0.9103 -1.3883
38760SOL     OW23394   5.235   2.321   6.486 -0.3941  0.4791 -0.4998
38760SOL    HW123395   5.211   2.414   6.485 -0.6631  0.4121 -0.4660
38760SOL    HW223396   5.253   2.302   6.578 -0.6076  0.4315 -0.4676
38761SOL     OW23397  10.831  10.801  11.384  0.2138 -0.6354 -0.0387
38761SOL    HW123398  10.760  10.851  11.342  1.2798  0.0165 -1.1673
38761SOL    HW223399  10.810  10.802  11.477  1.3353  4.1264  0.4431
38762SOL     OW23400   5.787   5.967  10.874 -0.2858  0.2432  0.2854
38762SOL    HW123401   5.862   5.951  10.930 -1.9237 -0.3441  2.4622
38762SOL    HW223402   5.712   5.970  10.934 -1.8594  2.1935 -1.5894
38763SOL     OW23403   0.954  12.352  10.634  0.9812  0.3695 -0.1366
38763SOL    HW123404   0.924  12.262  10.623 -0.0513  0.4940  1.3305
38763SOL    HW223405   0.891  12.404  10.585  1.1899  0.3423 -0.4348
38764SOL     OW23406  12.446   1.403   9.032 -0.0631  0.7250 -0.1995
38764SOL    HW123407  12.360   1.361   9.034  0.8044 -1.1242 -0.0062
38764SOL    HW223408  12.455   1.436   8.943  0.4742 -2.3695 -1.4194
38765SOL     OW23409   0.020   1.772   9.992  0.9861  0.1035  0.1058
38765SOL    HW123410   0.049   1.695  10.041  1.6583  1.2982  1.6852
38765SOL    HW223411   0.069   1.767   9.910  3.6013  0.5337  1.5251
38766SOL     OW23412   7.752   4.890   0.112 -0.5231  0.0229  0.2099
38766SOL    HW123413   7.691   4.947   0.158  0.0770  0.7695  0.0939
38766SOL    HW223414   7.838   4.918   0.142  0.0031  1.4869 -2.3343
38767SOL     OW23415   1.059  12.052   6.346  0.3684  0.1599  0.4534
38767SOL    HW123416   1.140  12.085   6.306  0.6555 -0.9252  0.0724
38767SOL    HW223417   1.004  12.129   6.357  1.2185  0.8326  0.1470
38768SOL     OW23418   0.979   5.275   0.115  0.1122  0.2942 -0.0413
38768SOL    HW123419   1.014   5.347   0.167 -0.3617  0.6102 -0.1519
38768SOL    HW223420   1.045   5.261   0.046  0.6310  0.0230  0.5041
38769SOL     OW23421   2.750   4.435  11.570 -0.0976 -0.9394  0.0237
38769SOL    HW123422   2.665   4.391  11.568  0.2833 -1.6554 -1.5004
38769SOL    HW223423   2.758   4.478  11.485  0.4820  0.2954  0.6723
38770SOL     OW23424  12.015   2.085   8.066 -0.0754  0.1869 -0.2268
38770SOL    HW123425  11.962   2.136   8.127  1.2720  1.4510 -0.0809
38770SOL    HW223426  11.955   2.062   7.995 -1.0232  0.8428  0.3523
38771SOL     OW23427   8.343   5.231  10.919  0.1327 -0.0086  0.0068
38771SOL    HW123428   8.280   5.188  10.861  1.6414 -1.2099 -0.8288
38771SOL    HW223429   8.352   5.320  10.884 -0.6205 -0.0211 -0.2281
38772SOL     OW23430   4.450   2.526   2.939  0.1565  0.3596 -0.2311
38772SOL    HW123431   4.410   2.501   3.022  1.9922 -1.0564  0.2994
38772SOL    HW223432   4.469   2.443   2.895  1.1804  1.0119 -1.0729
38773SOL     OW23433  12.419   5.197  10.810 -0.5531  0.5422  0.7411
38773SOL    HW123434  12.402   5.169  10.900 -2.5349 -0.3851  0.1406
38773SOL    HW223435  12.473   5.275  10.818  0.6066 -0.4040  2.6735
38774SOL     OW23436   3.203  10.964   2.632 -0.0463  1.1561  0.2808
38774SOL    HW123437   3.246  11.037   2.676  0.7638  0.0016  1.4980
38774SOL    HW223438   3.158  10.917   2.702 -1.3952  1.0489 -0.6329
38775SOL     OW23439   2.491  12.901  10.596 -0.2477  0.0375  0.4957
38775SOL    HW123440   2.410  12.851  10.587  0.9271 -2.0883  1.0192
38775SOL    HW223441   2.499  12.916  10.690  1.1377 -1.9727  0.7654
38776SOL     OW23442   6.744   0.730   4.485 -0.2176  0.6033  0.4339
38776SOL    HW123443   6.749   0.815   4.528  1.1741  0.0360  1.4969
38776SOL    HW223444   6.738   0.667   4.557  1.5211 -0.3476 -0.1831
38777SOL     OW23445   2.326   3.398   7.261  0.6605  0.2000 -0.2393
38777SOL    HW123446   2.405   3.451   7.276  0.8889 -0.0433 -0.5582
38777SOL    HW223447   2.350   3.311   7.293 -0.1427  0.5591  1.4597
38778SOL     OW23448   9.006   7.451   2.000  0.4742  0.1628  0.2398
38778SOL    HW123449   8.928   7.396   2.000  1.3241 -1.0951 -0.4500
38778SOL    HW223450   8.987   7.519   1.935 -0.8347  1.1173  1.5589
38779SOL     OW23451   3.017   0.130   0.682  0.1714 -0.3080  0.1939
38779SOL    HW123452   2.982   0.042   0.673  0.0352 -0.1963 -0.3870
38779SOL    HW223453   2.942   0.184   0.703  0.3303 -0.4037  1.0333
38780SOL     OW23454   1.622   7.153   4.291  0.2724 -0.2059  0.1497
38780SOL    HW123455   1.537   7.147   4.336  0.0926  0.7461 -0.0415
38780SOL    HW223456   1.684   7.173   4.361 -0.0781  1.7387 -0.0505
38781SOL     OW23457   9.922  12.666  10.160  0.2050 -0.1763 -0.4097
38781SOL    HW123458  10.006  12.643  10.200  1.3109 -1.3609 -3.0826
38781SOL    HW223459   9.903  12.754  10.191  0.3216 -1.3201  3.4125
38782SOL     OW23460   9.325   0.620   2.672 -0.3787  0.2367 -0.6600
38782SOL    HW123461   9.363   0.666   2.597  1.4800 -2.3278 -1.4399
38782SOL    HW223462   9.394   0.621   2.739 -0.3112 -1.2288 -0.6671
38783SOL     OW23463   9.426   8.199   2.969 -0.2876  0.0615  0.4609
38783SOL    HW123464   9.352   8.250   3.000 -0.1550  0.5538 -0.0342
38783SOL    HW223465   9.430   8.124   3.029 -2.2349 -0.9117 -0.5348
38784SOL     OW23466   9.475   5.659   5.678  0.2145  0.0544 -0.5330
38784SOL    HW123467   9.442   5.570   5.692  1.6663 -0.7173 -1.7550
38784SOL    HW223468   9.569   5.653   5.696  0.4821  1.1321 -1.4622
38785SOL     OW23469   3.642   2.334   9.232 -0.2656  0.2988 -1.2165
38785SOL    HW123470   3.581   2.327   9.305 -0.1376  0.5216 -1.0859
38785SOL    HW223471   3.695   2.254   9.237 -0.9555 -0.2041 -1.7111
38786SOL     OW23472   2.593   2.507   9.691  0.5857  0.1593 -0.1851
38786SOL    HW123473   2.622   2.534   9.779  1.0306 -1.1439  0.0938
38786SOL    HW223474   2.631   2.420   9.679 -0.8904 -0.4114 -0.9812
38787SOL     OW23475   7.226  12.043   0.330  0.0075  0.1589  0.4448
38787SOL    HW123476   7.319  12.053   0.310  0.4092  0.5308  2.3115
38787SOL    HW223477   7.182  12.109   0.275  0.9379  0.6600  0.2818
38788SOL     OW23478  10.983   4.647   1.620 -0.2337 -0.5650 -0.1216
38788SOL    HW123479  11.034   4.722   1.653  2.5266 -2.7418  0.9524
38788SOL    HW223480  10.978   4.587   1.694  0.9602 -3.0514 -1.9056
38789SOL     OW23481  12.469   0.815   4.238  0.1715 -0.5482  0.0283
38789SOL    HW123482  12.416   0.890   4.211 -0.7453 -1.1067  0.2505
38789SOL    HW223483  12.524   0.796   4.162  0.0065 -0.0128 -0.2342
38790SOL     OW23484   8.531   0.682   8.226  0.2926  0.0479  0.1500
38790SOL    HW123485   8.613   0.635   8.237 -1.0318 -2.0645  1.9043
38790SOL    HW223486   8.516   0.682   8.131  0.4164 -3.2005  0.0010
38791SOL     OW23487   1.467   0.733   0.898 -0.8610  0.3809  0.4171
38791SOL    HW123488   1.462   0.681   0.978 -0.0027  0.5738  0.6087
38791SOL    HW223489   1.486   0.669   0.829 -0.2220  0.3710  0.5903
38792SOL     OW23490   8.675  12.190  11.938 -0.3179  0.3255  0.4070
38792SOL    HW123491   8.662  12.184  11.843  1.0307  1.4823  0.1260
38792SOL    HW223492   8.727  12.113  11.960  0.4237  0.6934 -0.0144
38793SOL     OW23493   1.383   7.179   3.086  0.7898  0.2224  0.0955
38793SOL    HW123494   1.416   7.103   3.038  0.2967 -0.0107  0.1161
38793SOL    HW223495   1.290   7.160   3.099  0.7304  0.6912  0.3682
38794SOL     OW23496   6.192  11.431   7.882 -0.3006 -0.5935  0.1704
38794SOL    HW123497   6.223  11.353   7.836  0.4345 -0.6719  0.7908
38794SOL    HW223498   6.162  11.489   7.812  0.4085 -0.8789 -0.3806
38795SOL     OW23499   1.887   5.478   3.546 -0.3834  0.0702 -0.4674
38795SOL    HW123500   1.976   5.477   3.583 -1.3813 -0.6776  2.1197
38795SOL    HW223501   1.888   5.408   3.480  0.6990 -0.5835  0.1988
38796SOL     OW23502  12.051   0.696   6.177  0.0216 -0.4045  0.3384
38796SOL    HW123503  12.043   0.629   6.109 -0.2522 -1.0212  0.9776
38796SOL    HW223504  12.039   0.649   6.259  0.7806  0.2627  0.8446
38797SOL     OW23505   6.351   2.995  12.063 -0.1466 -0.4288 -0.1568
38797SOL    HW123506   6.273   3.040  12.096  0.2899 -0.3942  0.8629
38797SOL    HW223507   6.316   2.926  12.005 -0.7841  2.5129 -3.6419
38798SOL     OW23508   7.673   1.816   1.026  0.2695  0.1006  0.1336
38798SOL    HW123509   7.701   1.864   0.949 -0.3505 -1.1446 -0.9007
38798SOL    HW223510   7.747   1.823   1.087  2.2198 -1.7029 -1.8710
38799SOL     OW23511   0.095   3.510   5.062 -0.2059  0.0568  0.0080
38799SOL    HW123512   0.164   3.463   5.016  0.6365 -0.2427  1.5222
38799SOL    HW223513   0.101   3.600   5.029 -0.7334 -0.4928 -1.6671
38800SOL     OW23514  12.429   5.493  12.846 -0.1178  0.6905 -0.0296
38800SOL    HW123515  12.343   5.452  12.847  1.0757 -2.1035 -0.3129
38800SOL    HW223516  12.417   5.575  12.799 -2.4565 -0.0291 -0.8021
38801SOL     OW23517  10.695   4.467   6.335  0.3057  0.1302  0.0187
38801SOL    HW123518  10.601   4.458   6.326  0.2790  1.1639 -0.9840
38801SOL    HW223519  10.732   4.395   6.285  0.0470  0.5449 -0.7831
38802SOL     OW23520   0.599   2.476   1.083  0.5428  0.0059 -0.8902
38802SOL    HW123521   0.598   2.483   0.987  0.1594 -0.9530 -0.9697
38802SOL    HW223522   0.571   2.563   1.114 -0.1766  0.0613 -1.6663
38803SOL     OW23523  11.590   4.436  11.907  0.1113 -0.1143 -0.1014
38803SOL    HW123524  11.662   4.454  11.967 -0.6419 -0.3734  0.9258
38803SOL    HW223525  11.527   4.386  11.960 -0.1174 -1.2926 -1.4149
38804SOL     OW23526   9.721   9.391   6.521 -0.6853 -0.7217 -0.1006
38804SOL    HW123527   9.780   9.461   6.549 -0.9522 -1.1952  1.8389
38804SOL    HW223528   9.706   9.407   6.428  1.1889  0.3555 -0.2667
38805SOL     OW23529   3.510  10.228   7.305  0.2267  0.1914  0.2726
38805SOL    HW123530   3.530  10.306   7.254 -0.7617  0.1666 -0.1813
38805SOL    HW223531   3.441  10.184   7.256 -2.3643  1.2810  2.6660
38806SOL     OW23532   4.661   3.792   8.112  0.7087 -0.1590 -0.3427
38806SOL    HW123533   4.677   3.698   8.111 -0.0020 -0.3306  1.4931
38806SOL    HW223534   4.644   3.814   8.021 -1.4892 -2.2396 -0.5217
38807SOL     OW23535   1.877  10.266  10.283 -0.1951  0.0718 -0.1590
38807SOL    HW123536   1.853  10.338  10.224 -0.5357 -1.5423 -2.0900
38807SOL    HW223537   1.930  10.207  10.229 -0.9234 -1.7281  0.9989
38808SOL     OW23538   6.592   2.004   5.717  0.0662 -0.0563  0.2004
38808SOL    HW123539   6.543   2.004   5.635 -1.1635 -1.2847  0.8900
38808SOL    HW223540   6.665   1.943   5.702  1.1720  1.4112 -0.6708
38809SOL     OW23541   0.888   4.389  10.107 -0.1964  0.2477 -0.4868
38809SOL    HW123542   0.827   4.457  10.137  1.1354  1.0916  0.3838
38809SOL    HW223543   0.945   4.434  10.044  0.2543 -0.2391 -0.4303
38810SOL     OW23544   2.872   7.373   0.428 -0.6778  0.0434  0.3938
38810SOL    HW123545   2.960   7.409   0.437 -0.7837  0.4255 -0.0513
38810SOL    HW223546   2.884   7.278   0.427 -0.4024  0.0332  1.7367
38811SOL     OW23547   2.116   9.357   0.431 -0.2919 -0.1365 -0.0295
38811SOL    HW123548   2.149   9.431   0.483 -0.8239 -0.6397  1.0488
38811SOL    HW223549   2.055   9.312   0.489 -0.8998 -0.7304 -1.0972
38812SOL     OW23550   1.942   8.304   1.861  0.2763 -0.5420  0.0295
38812SOL    HW123551   1.857   8.347   1.874 -0.0099 -1.2508  0.5323
38812SOL    HW223552   1.936   8.263   1.775  0.5851  0.4788 -0.4994
38813SOL     OW23553   3.343   4.981   1.853 -0.1882  0.2845  0.3151
38813SOL    HW123554   3.433   4.961   1.878 -0.1604  0.3093  0.2375
38813SOL    HW223555   3.301   5.013   1.933 -0.1097  0.3354  0.3353
38814SOL     OW23556   8.559   9.095   0.472  0.3922  0.3518 -0.2733
38814SOL    HW123557   8.553   9.022   0.411 -0.4441  0.9028 -0.8698
38814SOL    HW223558   8.529   9.059   0.555 -1.4393  0.3612 -0.8892
38815SOL     OW23559  11.900  10.747   1.270  0.1773 -0.1817  0.2549
38815SOL    HW123560  11.948  10.699   1.338  1.6596 -0.8803 -1.1952
38815SOL    HW223561  11.857  10.678   1.218  1.5374  0.0601 -1.2725
38816SOL     OW23562   2.045   3.425  12.842  0.3441 -0.2584 -0.6256
38816SOL    HW123563   2.137   3.444  12.861  0.1263  0.2122 -0.0096
38816SOL    HW223564   2.045   3.335  12.809  0.8486 -0.8599  0.9024
38817SOL     OW23565   1.980   7.999   5.796 -0.0638  0.3023  0.5570
38817SOL    HW123566   1.915   7.982   5.865  0.7011  0.1827  1.2652
38817SOL    HW223567   2.045   8.056   5.838 -0.0788  1.0097 -0.3563
38818SOL     OW23568   2.579   5.813  12.245 -0.4693 -0.0307  0.1082
38818SOL    HW123569   2.578   5.718  12.238  1.6687 -0.0283 -1.2429
38818SOL    HW223570   2.554   5.831  12.336  2.1699 -2.0913  1.3949
38819SOL     OW23571  11.168   2.807   0.829  0.1563  0.3445 -0.1280
38819SOL    HW123572  11.125   2.789   0.912  1.4469  0.8252  0.6649
38819SOL    HW223573  11.244   2.749   0.827  0.7068  1.0605 -0.5027
38820SOL     OW23574   0.934   9.185   5.264  0.3735 -0.3335  0.3525
38820SOL    HW123575   1.024   9.154   5.251  0.7155  0.9302 -0.5150
38820SOL    HW223576   0.939   9.242   5.341  0.5995  0.6998 -0.3983
38821SOL     OW23577   0.896   2.950  12.918  0.8950  0.0734  0.4393
38821SOL    HW123578   0.936   2.937  13.004 -0.3471 -2.2729  0.7490
38821SOL    HW223579   0.871   2.862  12.890  0.7657  0.8511 -2.1007
38822SOL     OW23580   6.941  11.518  12.923  0.4212 -0.3398  0.1686
38822SOL    HW123581   7.005  11.476  12.981 -0.6766 -1.3768  0.6692
38822SOL    HW223582   6.876  11.554  12.983 -1.5386 -2.7347 -0.3795
38823SOL     OW23583   8.598   1.078   6.194  0.0709  0.3693 -0.0865
38823SOL    HW123584   8.633   1.167   6.192 -0.6711  0.6656 -0.3932
38823SOL    HW223585   8.517   1.085   6.245  0.1886 -0.2017  0.1924
38824SOL     OW23586  11.667   5.752   8.556 -0.9734  0.1465 -0.0255
38824SOL    HW123587  11.585   5.719   8.592  0.5025 -1.0457  2.4906
38824SOL    HW223588  11.699   5.681   8.501 -0.0032 -0.9050  1.7940
38825SOL     OW23589   7.569   7.653   7.240  0.6940  0.3261 -0.0394
38825SOL    HW123590   7.488   7.604   7.247  0.4373  0.5363 -1.2751
38825SOL    HW223591   7.596   7.643   7.149  1.9204  0.4791  0.2847
38826SOL     OW23592   7.804   5.625   6.198 -0.3814  0.2962 -0.4152
38826SOL    HW123593   7.720   5.583   6.176  0.4586 -0.3424 -2.6545
38826SOL    HW223594   7.870   5.561   6.172  0.8522  1.5700 -0.5072
38827SOL     OW23595   2.468   0.524   7.420  0.5633 -0.1991 -0.3300
38827SOL    HW123596   2.406   0.529   7.347  0.6552 -0.9569 -0.4686
38827SOL    HW223597   2.455   0.437   7.457  1.4304 -0.3064 -0.2591
38828SOL     OW23598   8.116   1.060   3.775  0.0044  0.1142  0.4634
38828SOL    HW123599   8.128   1.129   3.710 -2.2517 -1.3229 -1.6412
38828SOL    HW223600   8.204   1.027   3.792  0.8193  1.6645 -0.5720
38829SOL     OW23601  12.271   0.079   1.982  0.1434 -0.0444  0.0717
38829SOL    HW123602  12.274   0.036   2.067 -1.4216 -1.4232 -0.4957
38829SOL    HW223603  12.362   0.080   1.952  0.7766  0.8448  1.8999
38830SOL     OW23604   2.114  11.598   0.885  0.2519  0.1253 -0.1134
38830SOL    HW123605   2.210  11.599   0.890  0.3629 -2.0337 -0.6709
38830SOL    HW223606   2.094  11.513   0.845 -1.9157  0.2561  0.6059
38831SOL     OW23607   2.119   6.231   6.933 -0.3571  0.1742 -0.1456
38831SOL    HW123608   2.182   6.244   7.004  0.7590  0.5973 -1.1664
38831SOL    HW223609   2.044   6.285   6.956  1.3859  3.1807 -0.9123
38832SOL     OW23610   1.707  12.462   7.266 -0.3459  0.7746 -0.7842
38832SOL    HW123611   1.663  12.379   7.244  0.8402  0.5005 -2.2616
38832SOL    HW223612   1.656  12.497   7.339 -1.0920 -1.0837 -0.3561
38833SOL     OW23613  11.680  11.462   4.873 -0.5726  0.0257 -0.3327
38833SOL    HW123614  11.596  11.506   4.865  0.3518  1.9411  0.0419
38833SOL    HW223615  11.718  11.467   4.785 -0.3848  0.1493 -0.2444
38834SOL     OW23616  12.734   5.924  11.588 -0.3501 -0.1337 -0.2434
38834SOL    HW123617  12.644   5.926  11.620 -0.2381  0.8261  0.0401
38834SOL    HW223618  12.739   5.842  11.538 -1.5871  0.1310 -0.8654
38835SOL     OW23619   5.913   7.700  12.838 -1.1819  0.4803  0.0653
38835SOL    HW123620   5.933   7.692  12.931 -1.9924  1.4404  0.3432
38835SOL    HW223621   5.901   7.610  12.808 -2.0872  0.2178  1.1650
38836SOL     OW23622   9.113   5.296   6.439 -0.4414  0.4491 -0.7086
38836SOL    HW123623   9.075   5.355   6.504 -0.1600  1.4506 -1.4322
38836SOL    HW223624   9.045   5.287   6.371 -0.6450 -0.4050 -0.4121
38837SOL     OW23625   3.790  11.215   3.584 -0.2494  0.1355  0.6960
38837SOL    HW123626   3.718  11.239   3.642 -0.1279  1.0664  0.4641
38837SOL    HW223627   3.764  11.130   3.548 -0.0700 -0.7629  2.5499
38838SOL     OW23628   1.702   2.535   7.479 -0.0741 -0.5043 -0.1202
38838SOL    HW123629   1.773   2.474   7.460  1.2069  0.0597  2.4110
38838SOL    HW223630   1.745   2.619   7.492 -1.1609 -0.1127  1.3420
38839SOL     OW23631   0.379   7.703  11.188 -0.0319  0.3029 -0.0061
38839SOL    HW123632   0.317   7.630  11.184  0.5722 -0.1745 -1.3577
38839SOL    HW223633   0.350   7.763  11.120  0.9165  0.1203 -0.5861
38840SOL     OW23634   0.743   6.230   8.876 -0.0291 -0.3261 -0.1909
38840SOL    HW123635   0.745   6.182   8.793 -2.4200 -0.3527 -0.3138
38840SOL    HW223636   0.731   6.163   8.943 -0.4666 -0.1481 -0.0822
38841SOL     OW23637   6.083   7.779  11.910  0.0427 -0.0654 -0.0299
38841SOL    HW123638   6.085   7.855  11.967 -2.0379  0.0988 -0.1007
38841SOL    HW223639   6.175   7.754  11.899  0.7349  2.1583  0.3379
38842SOL     OW23640   4.746   8.658   4.445  0.3163  0.1006 -0.4924
38842SOL    HW123641   4.816   8.595   4.463  0.2850  0.3018  0.3695
38842SOL    HW223642   4.790   8.744   4.452  0.1949  0.1998 -0.9225
38843SOL     OW23643   2.945   3.082  12.667 -0.7630 -0.0690 -0.4309
38843SOL    HW123644   3.004   3.133  12.612  0.6738  1.0595  2.0202
38843SOL    HW223645   2.879   3.145  12.697 -0.6672 -0.3115  0.3114
38844SOL     OW23646   1.416   6.277   3.879  0.1809  0.4209 -0.1056
38844SOL    HW123647   1.499   6.321   3.897  0.5873 -0.9057  1.4089
38844SOL    HW223648   1.412   6.272   3.783  1.3321  1.4278 -0.2292
38845SOL     OW23649   4.089  10.125   5.418  0.0203 -0.2064  0.1646
38845SOL    HW123650   4.102  10.107   5.324 -0.1289  0.8850 -0.0808
38845SOL    HW223651   4.079  10.221   5.422 -0.8979 -0.3366  1.1853
38846SOL     OW23652   2.247   1.027   7.876 -0.1543 -0.2743  0.6436
38846SOL    HW123653   2.328   0.982   7.854  0.1398  0.3933  0.3195
38846SOL    HW223654   2.220   1.069   7.794 -1.3227 -1.2451  0.5086
38847SOL     OW23655   9.117   3.864   4.783 -0.8637 -0.6394  0.4306
38847SOL    HW123656   9.185   3.803   4.754 -0.4586 -1.5427  2.9642
38847SOL    HW223657   9.075   3.819   4.857 -3.3500  0.4782 -0.1973
38848SOL     OW23658   0.286   6.696   2.640 -0.2026 -0.1352 -0.0038
38848SOL    HW123659   0.292   6.742   2.724 -0.9008  0.6149 -0.3453
38848SOL    HW223660   0.277   6.766   2.575 -4.3455 -0.6603 -0.3054
38849SOL     OW23661   5.206  12.473  11.605  0.3147 -0.4465 -0.2354
38849SOL    HW123662   5.281  12.439  11.555  0.1020 -1.9329  0.3864
38849SOL    HW223663   5.241  12.492  11.691  0.4700  1.1759 -0.6327
38850SOL     OW23664  10.592   7.190   1.288  0.0871  0.2436 -0.3438
38850SOL    HW123665  10.589   7.281   1.319  0.3437 -0.1774  0.9998
38850SOL    HW223666  10.521   7.146   1.334  0.5135 -0.4255 -0.3008
38851SOL     OW23667   5.573   8.174   1.009 -1.3517 -0.1102  0.4356
38851SOL    HW123668   5.515   8.214   0.946 -1.9114 -0.0934  0.9529
38851SOL    HW223669   5.582   8.083   0.980 -0.4850  0.2365 -0.4485
38852SOL     OW23670   8.265  11.157  10.658  0.2417 -0.1634 -0.5699
38852SOL    HW123671   8.201  11.163  10.587 -0.1757 -0.2422 -0.2071
38852SOL    HW223672   8.214  11.126  10.733 -0.0382  2.7889  0.6028
38853SOL     OW23673   5.552   2.322   5.334  0.4374 -0.0170  0.0681
38853SOL    HW123674   5.527   2.349   5.246 -0.7126  2.1999  0.9999
38853SOL    HW223675   5.645   2.342   5.339  1.1100 -2.3987 -1.3545
38854SOL     OW23676   3.202   9.620   0.501  0.2116  0.1584  0.5403
38854SOL    HW123677   3.253   9.639   0.422 -0.8084 -0.2115 -0.2243
38854SOL    HW223678   3.131   9.683   0.499 -0.0182 -0.0848  0.9800
38855SOL     OW23679   7.835  10.142  12.493 -0.1763  0.5722 -0.2225
38855SOL    HW123680   7.875  10.199  12.558  0.5835  0.4542 -0.5790
38855SOL    HW223681   7.776  10.086  12.543  2.0242 -1.0244  0.7304
38856SOL     OW23682   4.711   3.817   6.512 -0.6460  0.6275 -0.6410
38856SOL    HW123683   4.722   3.908   6.539 -1.4516  0.7318 -0.6389
38856SOL    HW223684   4.624   3.793   6.543 -1.0600  0.3346 -1.9697
38857SOL     OW23685   4.915   0.407   0.702  0.5465  0.2078  0.0574
38857SOL    HW123686   4.912   0.390   0.796  0.1508  0.4225  0.0864
38857SOL    HW223687   4.824   0.407   0.674  0.6492  0.3345 -0.2931
38858SOL     OW23688  10.130   4.504   4.108 -0.3755 -0.2005  0.1168
38858SOL    HW123689  10.123   4.423   4.057 -0.5119 -1.0579  1.4434
38858SOL    HW223690  10.124   4.574   4.043 -1.5238 -1.2293 -0.9442
38859SOL     OW23691  12.858  12.930   0.358 -0.8401 -0.3243 -0.4747
38859SOL    HW123692  12.951  12.948   0.369 -0.9141 -0.6287  0.7915
38859SOL    HW223693  12.854  12.866   0.287  0.0325 -1.2952  0.3197
38860SOL     OW23694  11.716   4.405   7.935 -0.1380 -0.1851  0.2347
38860SOL    HW123695  11.789   4.449   7.978 -0.0689 -1.4258  1.4533
38860SOL    HW223696  11.737   4.410   7.842  0.8991  0.5152  0.4880
38861SOL     OW23697   9.694   9.587   4.074 -0.0834  0.1051  0.4752
38861SOL    HW123698   9.692   9.499   4.114 -1.5272 -0.2553 -0.3170
38861SOL    HW223699   9.772   9.586   4.019 -0.2781 -0.8230  0.1942
38862SOL     OW23700   5.406   2.267   3.167  0.4664 -0.0494  0.3714
38862SOL    HW123701   5.393   2.316   3.086  0.0069 -1.1460 -0.2338
38862SOL    HW223702   5.365   2.321   3.235  0.0204  0.4271 -0.2703
38863SOL     OW23703   7.821   0.658  10.178  0.4928 -0.1449  0.1999
38863SOL    HW123704   7.813   0.750  10.151  1.2552 -0.1062  0.0702
38863SOL    HW223705   7.890   0.623  10.121 -1.1548 -1.3533 -1.1670
38864SOL     OW23706   1.912   2.037  12.944 -0.5387 -0.3067 -0.0547
38864SOL    HW123707   1.908   2.133  12.954  2.1395 -0.0498 -0.6719
38864SOL    HW223708   1.886   2.003  13.029 -0.5629  1.0243  0.4914
38865SOL     OW23709  11.975  10.371   6.036  0.4544 -0.5165 -0.1717
38865SOL    HW123710  12.069  10.382   6.051  0.3606 -1.4241  1.3381
38865SOL    HW223711  11.961  10.276   6.037 -0.5290 -0.3833 -0.0159
38866SOL     OW23712  11.429   8.252   2.419 -0.4626 -0.4230  0.3515
38866SOL    HW123713  11.373   8.296   2.355 -0.1025  1.8394  1.5317
38866SOL    HW223714  11.516   8.290   2.405 -0.3887  0.1623  2.2033
38867SOL     OW23715   6.514   3.748   2.189  0.3142 -0.3587  0.0694
38867SOL    HW123716   6.603   3.715   2.204  0.0718 -0.7967  0.5778
38867SOL    HW223717   6.466   3.723   2.268 -0.0623  0.5745  0.1433
38868SOL     OW23718   1.497   2.145   3.693 -0.7593  0.4294 -0.4172
38868SOL    HW123719   1.485   2.095   3.773 -0.3632  1.5924  0.4003
38868SOL    HW223720   1.415   2.132   3.644 -1.3542  0.3828  0.5634
38869SOL     OW23721   9.694  11.254   4.446 -0.4431  1.1257  0.5481
38869SOL    HW123722   9.678  11.299   4.364  1.4702 -0.1643 -0.6132
38869SOL    HW223723   9.758  11.186   4.425 -1.6707 -0.8392  2.6137
38870SOL     OW23724  10.337   2.112  10.570  0.1238 -0.8036 -0.1803
38870SOL    HW123725  10.247   2.104  10.538 -0.9214 -1.5947  2.6488
38870SOL    HW223726  10.365   2.199  10.542 -2.0453  0.0241  0.0228
38871SOL     OW23727  12.735   3.668   3.498  0.1666 -0.4655  0.6700
38871SOL    HW123728  12.694   3.583   3.479 -0.3347 -0.3148  1.0684
38871SOL    HW223729  12.765   3.699   3.412 -1.4072 -0.1445  0.2079
38872SOL     OW23730   6.633   0.344  10.366  0.1153 -0.3112 -0.7948
38872SOL    HW123731   6.666   0.433  10.358  0.4737 -0.3873 -0.2457
38872SOL    HW223732   6.588   0.342  10.450 -1.6846 -0.0984 -1.7053
38873SOL     OW23733   0.757   9.220   1.906  0.6938 -0.2066  0.4605
38873SOL    HW123734   0.846   9.194   1.931  0.3491  0.1736  2.1454
38873SOL    HW223735   0.719   9.258   1.985 -0.7807  0.1826 -0.3938
38874SOL     OW23736  11.011   8.123  12.376  0.1572 -0.9701 -0.4342
38874SOL    HW123737  11.104   8.135  12.391 -0.2381  1.4215  0.4577
38874SOL    HW223738  10.975   8.211  12.368 -2.0827 -1.8019 -0.5224
38875SOL     OW23739  10.711  10.919  10.298  0.2076 -0.0901  0.3987
38875SOL    HW123740  10.737  10.858  10.368  2.7016  0.5915  0.1646
38875SOL    HW223741  10.670  10.992  10.344 -0.7614 -0.9052  0.8708
38876SOL     OW23742   6.644  12.382   9.785  0.0713  0.1869  0.3187
38876SOL    HW123743   6.669  12.471   9.808 -0.5459  0.4836 -0.1333
38876SOL    HW223744   6.641  12.336   9.869  0.8796  0.4550  0.5061
38877SOL     OW23745  11.083  11.597   9.512  0.4734  0.4664 -0.1017
38877SOL    HW123746  11.155  11.534   9.515 -0.8060 -1.3392 -2.6251
38877SOL    HW223747  11.061  11.603   9.419 -2.3762  1.1997  0.5222
38878SOL     OW23748  10.243   1.362  10.843 -0.4904  0.3777  0.2365
38878SOL    HW123749  10.288   1.357  10.758 -1.1818  1.2921 -0.1962
38878SOL    HW223750  10.254   1.274  10.881  1.2308  0.4259 -0.0618
38879SOL     OW23751  11.185   8.695   4.822  0.5085 -0.3078  0.6176
38879SOL    HW123752  11.123   8.677   4.893 -0.5275  0.2574 -0.1245
38879SOL    HW223753  11.157   8.639   4.750  0.6971  0.1521  0.1823
38880SOL     OW23754   8.426   6.218   6.619 -0.0320  0.5740 -0.3536
38880SOL    HW123755   8.343   6.261   6.638 -0.9139 -0.4329 -1.7656
38880SOL    HW223756   8.430   6.144   6.680  0.1656  1.0121  0.1732
38881SOL     OW23757   5.304   3.348   6.462  0.1533 -0.4404  0.0178
38881SOL    HW123758   5.311   3.375   6.371 -1.1757  0.1639  0.0681
38881SOL    HW223759   5.392   3.318   6.486  0.6073 -0.2200 -1.3311
38882SOL     OW23760   5.037   9.172   9.649 -0.2789  0.0541 -0.9105
38882SOL    HW123761   5.043   9.167   9.554  2.5501  0.8256 -0.8628
38882SOL    HW223762   5.048   9.082   9.679 -2.1247 -0.3288 -1.2973
38883SOL     OW23763   6.329   0.858  11.393  0.4536  0.5289  0.0664
38883SOL    HW123764   6.293   0.892  11.311 -0.4542 -0.3158  0.0955
38883SOL    HW223765   6.270   0.891  11.461 -0.5152 -1.1198  0.0871
38884SOL     OW23766   5.267   2.736   0.351 -0.1485  0.2883 -0.4230
38884SOL    HW123767   5.294   2.782   0.430  0.4516 -0.1648 -0.3598
38884SOL    HW223768   5.279   2.643   0.371  0.6635  0.1993 -1.2772
38885SOL     OW23769   3.749   7.820  11.179 -0.7062  0.4429 -0.0312
38885SOL    HW123770   3.734   7.782  11.266  0.5273  0.0475  0.0289
38885SOL    HW223771   3.713   7.756  11.118  0.4142 -0.3584  0.1162
38886SOL     OW23772  11.601  11.421   5.414  0.0410  0.4683 -0.2136
38886SOL    HW123773  11.688  11.433   5.453 -0.2149  0.6416  0.3060
38886SOL    HW223774  11.612  11.451   5.323 -0.3003  3.8652  0.7012
38887SOL     OW23775   7.403   6.911   4.544 -0.3065 -0.1463  0.5795
38887SOL    HW123776   7.487   6.943   4.511 -0.0639 -0.5009  0.8525
38887SOL    HW223777   7.387   6.962   4.623 -1.1594  1.1050 -0.3539
38888SOL     OW23778   4.522  11.171   9.886  0.2111 -0.0589 -0.5653
38888SOL    HW123779   4.446  11.122   9.919 -0.1952  0.6577 -0.4029
38888SOL    HW223780   4.567  11.110   9.828  0.0629 -0.8241  0.1073
38889SOL     OW23781   4.965   3.702   0.213 -0.6795  0.3655  0.3893
38889SOL    HW123782   4.949   3.645   0.288 -1.1581 -1.3891 -0.9584
38889SOL    HW223783   5.035   3.659   0.165  0.5872  2.1971  0.5003
38890SOL     OW23784   6.397   1.445   8.514 -0.2370 -0.4701 -0.4719
38890SOL    HW123785   6.477   1.415   8.472 -0.3856  1.2459 -2.1166
38890SOL    HW223786   6.363   1.513   8.456 -2.1521 -0.1654  0.8891
38891SOL     OW23787   7.556   7.763   6.428 -0.4961  0.4778 -0.5055
38891SOL    HW123788   7.533   7.839   6.375 -2.2208  0.5430  0.2852
38891SOL    HW223789   7.648   7.748   6.409 -0.7672  1.2085 -2.6140
38892SOL     OW23790   8.402  10.940   3.455 -0.4701 -0.0390 -0.7189
38892SOL    HW123791   8.363  10.879   3.518 -1.6341  1.4135  0.0384
38892SOL    HW223792   8.468  10.988   3.505 -2.5825  2.3528  0.0380
38893SOL     OW23793   7.616   0.313   8.524 -0.0517 -0.3772  0.1815
38893SOL    HW123794   7.540   0.270   8.564 -2.5170  1.2150 -2.4777
38893SOL    HW223795   7.640   0.380   8.587 -1.2050 -0.5449  0.8354
38894SOL     OW23796  11.445   5.693   5.413  0.2077 -0.4449 -0.4607
38894SOL    HW123797  11.523   5.728   5.369  1.4429  0.0539  1.9464
38894SOL    HW223798  11.476   5.615   5.459 -0.5494  0.0343  0.9281
38895SOL     OW23799   3.241   9.279   1.983 -0.1637  0.6292  0.0840
38895SOL    HW123800   3.163   9.276   2.040  0.4973  0.5186  1.0105
38895SOL    HW223801   3.217   9.226   1.907 -0.8832  0.3298  0.5039
38896SOL     OW23802   9.353   1.666   1.984 -0.3460  0.4165 -1.0585
38896SOL    HW123803   9.383   1.585   2.026 -3.1536 -0.5122 -0.6342
38896SOL    HW223804   9.331   1.723   2.057  1.6945  1.6928 -1.3586
38897SOL     OW23805  12.330   6.380   1.858 -0.2207 -0.1876 -0.7021
38897SOL    HW123806  12.332   6.324   1.936 -0.2359  1.2475  0.3621
38897SOL    HW223807  12.402   6.349   1.804  0.0563 -0.9350  0.0757
38898SOL     OW23808  11.275   5.188  12.356  0.0613 -0.6334 -0.5730
38898SOL    HW123809  11.264   5.259  12.293  1.5338 -1.1871 -1.4975
38898SOL    HW223810  11.361   5.151  12.337  0.1592 -1.4333  1.1612
38899SOL     OW23811   9.910  11.014   3.787 -0.6890 -0.0931 -0.4265
38899SOL    HW123812   9.918  10.919   3.785  0.2684 -0.0829  1.1432
38899SOL    HW223813   9.957  11.041   3.866 -0.9978  1.6837 -0.7903
38900SOL     OW23814   6.711  11.390   6.494  0.0501  0.1520  0.3044
38900SOL    HW123815   6.634  11.335   6.505 -0.1770  0.3630 -0.2004
38900SOL    HW223816   6.686  11.475   6.528  0.5227 -0.1365  1.4290
38901SOL     OW23817  10.597   2.821  10.274  0.0905  0.0132  0.3304
38901SOL    HW123818  10.504   2.842  10.270 -0.0637 -0.7071  0.1055
38901SOL    HW223819  10.640   2.900  10.240 -0.4655  0.0869 -0.2304
38902SOL     OW23820   6.509   8.453   1.690 -0.1088 -0.6448 -0.4326
38902SOL    HW123821   6.419   8.466   1.719  0.3515  1.2570  0.3126
38902SOL    HW223822   6.530   8.533   1.641 -0.2230 -2.9166 -4.6225
38903SOL     OW23823   8.205  10.569   8.079 -0.1727  0.8482  0.8641
38903SOL    HW123824   8.164  10.577   8.165 -1.4831 -0.7702  0.4582
38903SOL    HW223825   8.298  10.554   8.098 -0.2541  1.6145  1.9404
38904SOL     OW23826   3.979   8.021   1.752  0.2872  0.1425  0.4446
38904SOL    HW123827   3.961   8.095   1.809 -0.2886  0.9775 -0.7815
38904SOL    HW223828   3.893   7.988   1.726  0.4837  0.8147 -1.2125
38905SOL     OW23829   2.953  11.375  11.265  0.2296  0.5020 -0.1705
38905SOL    HW123830   3.027  11.314  11.267  0.3709  0.6772 -0.0613
38905SOL    HW223831   2.961  11.427  11.345  0.1994  0.7686 -0.3375
38906SOL     OW23832  12.825  11.594   5.862 -0.1112 -0.3466  0.1802
38906SOL    HW123833  12.810  11.549   5.779 -0.2346  0.4370 -0.2294
38906SOL    HW223834  12.737  11.607   5.898 -0.3036  1.7675 -0.8992
38907SOL     OW23835  11.163  10.581   7.665  0.3414  0.2650 -0.0145
38907SOL    HW123836  11.255  10.567   7.686  1.1766  2.4722 -1.8020
38907SOL    HW223837  11.138  10.656   7.719 -0.3535 -0.1384  0.2432
38908SOL     OW23838   1.799   5.734  11.330 -0.1614  0.0343 -0.3319
38908SOL    HW123839   1.869   5.708  11.390 -1.9323 -1.6229  1.1261
38908SOL    HW223840   1.845   5.780  11.260  2.3307 -0.5579  0.7726
38909SOL     OW23841  10.438   1.992   6.621 -0.2754  0.0680 -0.4152
38909SOL    HW123842  10.480   2.003   6.536 -0.3743  0.3649 -0.4276
38909SOL    HW223843  10.420   1.898   6.627  0.0421 -0.0023 -0.5726
38910SOL     OW23844  12.075   9.617   7.446  0.2983  0.2714 -0.1289
38910SOL    HW123845  12.068   9.654   7.358  1.3560  1.2146  0.1585
38910SOL    HW223846  12.167   9.630   7.470 -0.2508  1.2447  1.6319
38911SOL     OW23847  12.503   6.766   9.817 -0.1591 -0.8451  0.1785
38911SOL    HW123848  12.442   6.798   9.883  1.8785  3.2587  0.3515
38911SOL    HW223849  12.576   6.729   9.867 -0.0273 -0.6687  0.1148
38912SOL     OW23850   0.828   5.620   6.689  0.0545  0.1881 -0.0600
38912SOL    HW123851   0.866   5.542   6.648 -0.8534 -0.8965  1.0896
38912SOL    HW223852   0.785   5.666   6.616 -0.0688 -0.8006 -0.6343
38913SOL     OW23853   6.846   8.793   0.554  0.0806 -0.2883 -0.1293
38913SOL    HW123854   6.761   8.812   0.595  0.4739 -1.1492  1.1215
38913SOL    HW223855   6.835   8.821   0.463 -1.7950 -1.0894 -0.1898
38914SOL     OW23856  12.104   1.889   5.000  0.5885  0.4429 -0.8682
38914SOL    HW123857  12.101   1.984   5.008  0.3324  0.3501  0.3356
38914SOL    HW223858  12.077   1.857   5.086 -0.6046 -0.7275 -1.6358
38915SOL     OW23859  11.582   7.879   4.032  0.3506  0.0486 -0.0386
38915SOL    HW123860  11.578   7.897   3.938  0.1765 -0.2432 -0.0851
38915SOL    HW223861  11.572   7.965   4.073  0.5280  0.1894 -0.2887
38916SOL     OW23862   2.221   3.070  11.221  0.7492 -0.0755 -0.4004
38916SOL    HW123863   2.134   3.091  11.255  0.3772 -1.4340 -0.4293
38916SOL    HW223864   2.205   3.041  11.131  1.1032 -1.1252 -0.1443
38917SOL     OW23865   0.017  11.018   6.629 -0.4037 -0.4402 -0.3824
38917SOL    HW123866  -0.041  11.021   6.704 -0.1758  1.6807 -0.2312
38917SOL    HW223867   0.105  11.021   6.666 -0.1744 -2.5787 -0.6503
38918SOL     OW23868  11.758  10.845  11.310 -0.4908 -0.0479 -0.0880
38918SOL    HW123869  11.702  10.795  11.370  1.0323 -0.0811  1.3597
38918SOL    HW223870  11.805  10.779  11.260 -0.4181 -0.0446 -0.0245
38919SOL     OW23871   8.159   1.058   5.660  0.0552  0.0765 -0.1517
38919SOL    HW123872   8.254   1.055   5.676  0.0332 -0.9046 -0.1279
38919SOL    HW223873   8.135   0.967   5.643 -1.3215 -0.1309  2.4453
38920SOL     OW23874   0.909   0.809   7.216 -0.2075 -0.1101 -0.2844
38920SOL    HW123875   0.951   0.730   7.183 -1.6830 -1.2126  0.3775
38920SOL    HW223876   0.945   0.821   7.304 -0.3393 -0.3325 -0.1997
38921SOL     OW23877   1.149   1.754   4.857 -0.5684 -0.3120  0.5519
38921SOL    HW123878   1.131   1.819   4.926 -1.8944 -0.4589  0.3543
38921SOL    HW223879   1.173   1.675   4.905 -2.0654 -0.5868  0.8783
38922SOL     OW23880   1.149   3.490   3.850  0.3870 -0.0307  0.3160
38922SOL    HW123881   1.165   3.508   3.943 -0.3980 -1.6254  0.8020
38922SOL    HW223882   1.125   3.398   3.848 -0.2837  0.1552 -1.4044
38923SOL     OW23883   2.352   6.890   4.878 -0.4833 -0.2936 -0.0353
38923SOL    HW123884   2.361   6.802   4.841  0.6613 -1.4818  2.7909
38923SOL    HW223885   2.436   6.932   4.863 -0.3110 -0.4638  0.4387
38924SOL     OW23886   3.611  10.108   2.058 -0.1283 -0.3040 -0.3356
38924SOL    HW123887   3.555  10.050   2.110 -1.7780  1.3340 -0.1695
38924SOL    HW223888   3.651  10.166   2.123  2.2904 -1.7760 -0.3904
38925SOL     OW23889  11.123   1.272   5.656 -0.3431 -0.4818  0.1900
38925SOL    HW123890  11.196   1.294   5.598 -0.3798 -1.1117 -0.1029
38925SOL    HW223891  11.157   1.286   5.744 -1.1653  3.4583  0.0842
38926SOL     OW23892  12.237   6.629   0.374  0.0650  0.5268  0.3354
38926SOL    HW123893  12.188   6.700   0.416 -1.8204 -0.2670 -0.3747
38926SOL    HW223894  12.242   6.655   0.282 -2.9110 -1.2737 -0.4885
38927SOL     OW23895   4.010   1.478   3.727 -0.2794 -0.4868  0.1930
38927SOL    HW123896   3.983   1.401   3.777 -0.9435  0.4965  1.3959
38927SOL    HW223897   4.104   1.487   3.747 -0.5367 -0.1064  1.2691
38928SOL     OW23898   6.508  11.782  11.079 -0.0693  0.0939  0.0553
38928SOL    HW123899   6.569  11.741  11.018  1.2439  1.0472  0.6825
38928SOL    HW223900   6.428  11.796  11.028  0.5569 -0.3127 -1.0627
38929SOL     OW23901   6.267   9.105   2.662 -0.3973 -0.0157 -0.2004
38929SOL    HW123902   6.235   9.113   2.572 -0.2848 -0.3398 -0.2677
38929SOL    HW223903   6.218   9.172   2.711  0.5280  1.1123 -0.7758
38930SOL     OW23904   0.526   8.533   7.222  0.1818 -0.3289 -0.0540
38930SOL    HW123905   0.537   8.445   7.258  0.0526 -0.6421 -0.7592
38930SOL    HW223906   0.532   8.591   7.298  1.4560 -0.8537  0.2798
38931SOL     OW23907   0.307   9.042  10.835 -0.1367 -1.0193 -0.1041
38931SOL    HW123908   0.214   9.019  10.824 -0.4820 -0.3921  1.2134
38931SOL    HW223909   0.338   8.981  10.902  0.0850 -0.4820  0.2885
38932SOL     OW23910   8.260   6.879   5.068  0.3045 -0.7545 -0.7980
38932SOL    HW123911   8.232   6.885   5.159 -0.1291 -0.5647 -0.9445
38932SOL    HW223912   8.235   6.790   5.041  1.2850 -1.1534 -0.4536
38933SOL     OW23913   4.429   3.381   3.781  0.7409  0.9980  0.0599
38933SOL    HW123914   4.397   3.365   3.692  0.1869  0.2058  0.3930
38933SOL    HW223915   4.524   3.377   3.773  0.7062  1.3686 -0.5770
38934SOL     OW23916   9.545   7.808   9.635 -0.3886  0.0506 -0.3992
38934SOL    HW123917   9.476   7.765   9.584 -0.8534  0.5793 -0.2260
38934SOL    HW223918   9.584   7.871   9.574 -0.5337  0.2506 -0.2865
38935SOL     OW23919  11.140  11.242   6.312 -0.2043  0.1973 -0.2088
38935SOL    HW123920  11.072  11.203   6.258 -0.7553  0.5622  0.2049
38935SOL    HW223921  11.174  11.169   6.365 -0.1628 -0.0147 -0.5276
38936SOL     OW23922  12.824   6.502  10.272  0.3738 -0.1368  0.1205
38936SOL    HW123923  12.861   6.557  10.203 -1.0114 -0.6216 -1.0511
38936SOL    HW223924  12.899   6.458  10.312  1.3364  1.3092 -0.0423
38937SOL     OW23925   6.753   4.733  11.471  0.5648 -0.0588 -0.3437
38937SOL    HW123926   6.662   4.701  11.467  0.6094 -0.1670 -0.5031
38937SOL    HW223927   6.776   4.728  11.563  1.0291 -1.7662 -0.5310
38938SOL     OW23928   8.445   7.789  12.221  0.1416  0.1914 -0.3107
38938SOL    HW123929   8.517   7.827  12.170  2.0856  0.2149  2.2445
38938SOL    HW223930   8.428   7.854  12.290 -0.2293 -1.1599  0.9214
38939SOL     OW23931   7.780   4.775  11.068  0.5466  0.8918 -0.0997
38939SOL    HW123932   7.821   4.744  11.149  0.8177 -0.3700 -0.6947
38939SOL    HW223933   7.850   4.820  11.022  0.6009  0.9364  0.0253
38940SOL     OW23934   7.237   7.842   2.499 -0.7251 -0.0712  0.1383
38940SOL    HW123935   7.274   7.887   2.575 -0.9472  1.0230 -0.3835
38940SOL    HW223936   7.142   7.854   2.508 -0.8953 -1.4806  0.6104
38941SOL     OW23937   1.221   2.466   7.425  0.3892 -0.1304  0.8245
38941SOL    HW123938   1.211   2.378   7.460  0.6543 -0.7225 -0.5291
38941SOL    HW223939   1.309   2.467   7.388  0.7404  1.0144  1.6494
38942SOL     OW23940  12.664   1.198   1.810 -0.3284 -0.5597  0.1746
38942SOL    HW123941  12.738   1.249   1.776  0.3334 -1.0157  0.8806
38942SOL    HW223942  12.700   1.109   1.821  0.0853 -0.1287  3.6587
38943SOL     OW23943   4.967   1.138   4.854 -0.1849 -0.0162 -0.0406
38943SOL    HW123944   4.978   1.170   4.765 -1.4565 -1.0602 -0.6032
38943SOL    HW223945   5.055   1.141   4.892  0.5644 -0.5684 -1.6749
38944SOL     OW23946   6.612  10.552   2.301 -0.5110  0.0797  0.8753
38944SOL    HW123947   6.686  10.604   2.270 -0.5030 -0.3919  0.0936
38944SOL    HW223948   6.653  10.477   2.345 -0.5159 -0.2426  0.3393
38945SOL     OW23949  12.683   8.133   2.076  1.1585 -0.1370  0.3494
38945SOL    HW123950  12.676   8.123   1.981  2.0494 -0.8940  0.3518
38945SOL    HW223951  12.731   8.215   2.089 -0.4018  0.8444  0.1984
38946SOL     OW23952   6.042   4.197   3.817  0.5008 -0.6094  0.0023
38946SOL    HW123953   6.070   4.287   3.802 -2.0582  0.0918 -1.0661
38946SOL    HW223954   6.014   4.196   3.909  1.6072 -0.6714  0.3560
38947SOL     OW23955   7.691   2.380  11.481 -0.5300  0.0221  0.7197
38947SOL    HW123956   7.630   2.331  11.426 -0.3789  0.7445 -0.1310
38947SOL    HW223957   7.760   2.318  11.503 -0.8150 -0.3962  0.4460
38948SOL     OW23958   0.403   5.380  10.547  0.8319  0.5104  0.5771
38948SOL    HW123959   0.358   5.330  10.616 -2.6552  2.1507 -0.2709
38948SOL    HW223960   0.404   5.320  10.472 -0.3566  0.5221  0.5223
38949SOL     OW23961   0.588   1.311   2.198  0.3683  0.7283  0.0542
38949SOL    HW123962   0.634   1.232   2.225 -0.7125  0.0976  0.1340
38949SOL    HW223963   0.537   1.336   2.276 -0.3613  0.6932 -0.4006
38950SOL     OW23964   1.852  10.228   5.771 -0.4902 -0.5070  0.3681
38950SOL    HW123965   1.940  10.265   5.763  0.0391 -1.8801 -0.5709
38950SOL    HW223966   1.867  10.135   5.792 -1.7162 -0.6881  0.5073
38951SOL     OW23967   6.941   5.736   8.377 -0.0601 -0.2186 -0.2523
38951SOL    HW123968   7.032   5.711   8.360 -0.4394 -0.7751 -1.6088
38951SOL    HW223969   6.934   5.739   8.472  1.4638  0.1689 -0.1325
38952SOL     OW23970  12.768  10.651  10.192  0.1522  0.2500 -0.0218
38952SOL    HW123971  12.721  10.680  10.114 -2.3061 -0.2098  1.1831
38952SOL    HW223972  12.759  10.723  10.254  0.4535 -0.1274  0.4758
38953SOL     OW23973  11.075   3.240   9.826  0.0762 -0.0533 -0.3872
38953SOL    HW123974  11.010   3.310   9.831 -1.0614 -1.1211  0.3482
38953SOL    HW223975  11.130   3.252   9.904 -1.6291 -1.3588  1.1133
38954SOL     OW23976  11.621   1.506   9.310  0.5884 -0.2216 -0.1614
38954SOL    HW123977  11.583   1.580   9.262  2.2257  0.1409 -0.9801
38954SOL    HW223978  11.550   1.442   9.315 -0.9281  1.4423  0.7094
38955SOL     OW23979  12.206   4.868  12.366 -0.5284 -0.4957  0.2623
38955SOL    HW123980  12.194   4.800  12.299  1.2369 -1.1572  0.5803
38955SOL    HW223981  12.212   4.819  12.448 -2.2768  0.2861  0.8959
38956SOL     OW23982   5.001  12.795   0.056  0.3578 -0.3560 -0.6932
38956SOL    HW123983   4.919  12.770   0.098  0.0207  0.4824 -0.8274
38956SOL    HW223984   5.050  12.713   0.047  1.5379 -0.3461  3.5167
38957SOL     OW23985  11.789   7.638   3.459  0.4746 -0.5709  1.1577
38957SOL    HW123986  11.836   7.554   3.455  0.4449 -0.5288 -1.0740
38957SOL    HW223987  11.842   7.693   3.516  1.2327 -1.6558  1.5275
38958SOL     OW23988   9.557   8.568   1.992  0.0405  0.2425 -0.4110
38958SOL    HW123989   9.515   8.592   1.910 -1.8598 -0.0338  0.4258
38958SOL    HW223990   9.603   8.648   2.019  0.2887  0.4799 -1.4933
38959SOL     OW23991   3.662   2.540   5.010  0.5741 -0.3372 -0.3830
38959SOL    HW123992   3.706   2.614   5.052  0.3291 -0.3151 -0.1662
38959SOL    HW223993   3.733   2.481   4.986  0.6329 -1.0346  1.3568
38960SOL     OW23994  10.709   6.472  11.672 -0.1616 -0.0290  0.3287
38960SOL    HW123995  10.711   6.380  11.645 -0.8980 -0.5345  1.8728
38960SOL    HW223996  10.642   6.512  11.617  0.6320 -0.2403 -0.8200
38961SOL     OW23997   4.773   0.536   8.139  0.4978 -0.6133 -0.2344
38961SOL    HW123998   4.757   0.620   8.094  2.1667  0.0925  0.3953
38961SOL    HW223999   4.706   0.477   8.105 -0.6749  0.9581 -0.7558
38962SOL     OW24000   5.198   2.450   9.743  0.5081  0.0414  0.1446
38962SOL    HW124001   5.131   2.404   9.692 -0.1536 -0.1190  1.1385
38962SOL    HW224002   5.250   2.496   9.677  0.3466 -1.0401 -0.7613
38963SOL     OW24003   8.857   0.475   0.963 -0.5880 -0.3381 -0.2328
38963SOL    HW124004   8.826   0.391   0.929  1.2064 -0.5083 -1.5720
38963SOL    HW224005   8.849   0.535   0.889 -2.4974  0.9195  0.8922
38964SOL     OW24006   1.545   1.880  11.090  0.2746  0.2672 -0.0576
38964SOL    HW124007   1.463   1.921  11.118  0.7190  1.2128 -0.0898
38964SOL    HW224008   1.609   1.906  11.157  0.9398  1.0382 -0.9584
38965SOL     OW24009  11.466   5.920  11.915 -0.6163  0.6137  0.8477
38965SOL    HW124010  11.445   5.884  11.828  1.6410 -0.2051  0.5744
38965SOL    HW224011  11.451   6.014  11.906 -1.5948  0.4033 -0.0266
38966SOL     OW24012  12.808   2.750   6.824 -0.3976 -0.2461  0.1291
38966SOL    HW124013  12.750   2.674   6.816 -0.1402 -0.5012  0.5752
38966SOL    HW224014  12.864   2.728   6.899 -0.5763  0.5563  0.4995
38967SOL     OW24015   5.461   9.574  11.235 -0.4078 -0.3051  0.2423
38967SOL    HW124016   5.531   9.510  11.219  0.4012  0.6025  0.0144
38967SOL    HW224017   5.475   9.602  11.326 -0.3442  0.0218  0.1342
38968SOL     OW24018   9.770   5.989   7.369  0.3020 -0.4765 -0.1074
38968SOL    HW124019   9.690   5.939   7.358 -0.2732 -0.0236  1.8126
38968SOL    HW224020   9.832   5.947   7.309 -0.9091 -1.8015 -0.4928
38969SOL     OW24021   8.778   2.707   2.798 -0.6037  0.2100  0.2283
38969SOL    HW124022   8.808   2.620   2.825  0.6857  0.2650 -0.8999
38969SOL    HW224023   8.764   2.755   2.879  1.9920  0.0258  0.8550
38970SOL     OW24024   2.323   9.375   8.444 -0.3137 -0.1040 -0.5980
38970SOL    HW124025   2.298   9.283   8.442 -1.4891 -0.1601  4.2936
38970SOL    HW224026   2.419   9.373   8.443 -0.3138 -1.4073 -0.4011
38971SOL     OW24027   6.186   7.796  12.809 -0.7255  0.3233  0.6513
38971SOL    HW124028   6.205   7.704  12.825  0.0414  0.5489  1.1208
38971SOL    HW224029   6.098   7.797  12.773 -1.1586 -0.5147  1.6268
38972SOL     OW24030  10.681   2.233   3.275 -0.2438 -0.2064  0.2684
38972SOL    HW124031  10.758   2.178   3.290 -0.3475 -0.2038  0.8543
38972SOL    HW224032  10.717   2.320   3.258 -0.0545 -0.5461 -1.2286
38973SOL     OW24033   6.406  11.685   8.011 -0.4026 -0.1804 -0.2331
38973SOL    HW124034   6.484  11.695   8.065 -0.3183  1.9443 -0.6525
38973SOL    HW224035   6.357  11.613   8.052  1.4601 -1.1568  0.3793
38974SOL     OW24036  10.912   2.275   5.427  0.3804  0.0929  0.1381
38974SOL    HW124037  10.979   2.239   5.485  1.1772 -0.2170 -0.9382
38974SOL    HW224038  10.940   2.365   5.412 -0.5012  0.5584  1.2026
38975SOL     OW24039   3.517   1.766  12.292 -0.0215 -0.0580  0.1516
38975SOL    HW124040   3.451   1.835  12.299 -0.1729 -0.2458  0.6150
38975SOL    HW224041   3.543   1.749  12.383  0.0613 -0.5642  0.0320
38976SOL     OW24042  12.357   6.009  11.999  1.3193  0.6026 -0.0043
38976SOL    HW124043  12.396   6.072  11.938 -0.4073  1.5926 -0.1329
38976SOL    HW224044  12.350   6.056  12.081  2.4640 -0.3295  0.6694
38977SOL     OW24045   7.741   0.753  11.975  0.2008  0.0212  0.5839
38977SOL    HW124046   7.655   0.792  11.994 -1.0504 -2.1549 -0.1889
38977SOL    HW224047   7.750   0.685  12.042  0.7783 -0.5327 -0.0547
38978SOL     OW24048  11.259   2.561   9.481  0.6445 -0.3094 -0.2411
38978SOL    HW124049  11.220   2.557   9.393 -1.0728 -0.9717  0.5182
38978SOL    HW224050  11.218   2.489   9.529  0.1507  1.1575  1.6556
38979SOL     OW24051   7.593   2.514   3.884  0.0837 -0.5440 -0.4667
38979SOL    HW124052   7.503   2.487   3.866 -0.5806 -0.2684  2.0392
38979SOL    HW224053   7.601   2.601   3.845  0.0195 -1.3939 -2.5441
38980SOL     OW24054   1.181   2.399   7.053 -0.1812 -0.3709  0.3006
38980SOL    HW124055   1.088   2.401   7.077 -0.3209  1.9761 -0.1742
38980SOL    HW224056   1.210   2.311   7.075 -1.9679 -0.4820  2.5772
38981SOL     OW24057  10.031   9.535   0.609  0.4561 -0.4324 -0.3237
38981SOL    HW124058   9.947   9.491   0.622  0.4785 -0.3617  0.0629
38981SOL    HW224059  10.074   9.484   0.540  0.0437 -0.3899 -0.6147
38982SOL     OW24060   4.959   4.105   9.568  0.0333 -0.1005 -0.1968
38982SOL    HW124061   4.948   4.013   9.548  0.2893  0.1265 -1.4168
38982SOL    HW224062   4.870   4.140   9.570  0.0026 -0.1214 -0.9934
38983SOL     OW24063   0.028   3.554   2.254 -0.1631  0.1916 -0.3746
38983SOL    HW124064  -0.006   3.550   2.164 -0.1899 -2.1940 -0.3203
38983SOL    HW224065   0.083   3.476   2.262  0.0015  0.4708  1.6303
38984SOL     OW24066   8.436  11.702   8.222 -0.6787  0.3927  0.0083
38984SOL    HW124067   8.450  11.710   8.316  2.3985 -0.3886 -0.2650
38984SOL    HW224068   8.415  11.610   8.208  0.9462  0.0217 -0.1982
38985SOL     OW24069  12.746  12.375   4.028  0.1831 -0.2125  0.1999
38985SOL    HW124070  12.785  12.452   4.069  0.0723 -0.5093  0.8706
38985SOL    HW224071  12.662  12.363   4.073 -0.3535 -0.0296 -0.7087
38986SOL     OW24072   5.047   3.429   3.136  0.1304 -0.0463 -0.4626
38986SOL    HW124073   5.090   3.352   3.172 -0.4641 -0.8431 -1.4029
38986SOL    HW224074   4.953   3.415   3.151  0.0673  0.9077  0.1325
38987SOL     OW24075   7.075   2.663   1.824 -0.7388 -0.3343 -0.4401
38987SOL    HW124076   7.116   2.745   1.850  1.0169 -0.1934 -3.2279
38987SOL    HW224077   7.003   2.689   1.766 -1.5201 -0.7582  0.3049
38988SOL     OW24078   8.646   9.410  12.361 -0.5410  0.4113 -0.6705
38988SOL    HW124079   8.602   9.487  12.323 -2.0176 -0.3594 -0.5981
38988SOL    HW224080   8.674   9.359  12.286  0.0443  0.7900 -0.7167
38989SOL     OW24081   4.910   2.309   0.920  0.1243  0.6943 -0.0299
38989SOL    HW124082   4.832   2.313   0.865  0.0019 -0.5775  0.0032
38989SOL    HW224083   4.893   2.235   0.980  1.3570  0.3683 -0.0512
38990SOL     OW24084  10.193   1.473   0.491 -0.1523 -0.5456 -0.1802
38990SOL    HW124085  10.218   1.390   0.531 -1.4826 -0.1520  1.6268
38990SOL    HW224086  10.103   1.488   0.522 -0.0451  1.4272 -0.6862
38991SOL     OW24087  10.804  12.035   5.618  0.6541 -0.0521 -0.2267
38991SOL    HW124088  10.749  12.113   5.625  0.2791 -0.2561 -0.8225
38991SOL    HW224089  10.794  11.991   5.702  1.7447  1.0940  0.5480
38992SOL     OW24090   3.787   5.498   9.424 -0.2498 -0.9040 -0.1516
38992SOL    HW124091   3.731   5.522   9.498 -0.1621 -1.4098  0.0783
38992SOL    HW224092   3.875   5.489   9.462  0.0536  0.1724 -0.5593
38993SOL     OW24093   0.652   3.781   6.236 -0.0271  0.1493  0.0233
38993SOL    HW124094   0.612   3.863   6.205  0.0628 -0.2581 -1.2379
38993SOL    HW224095   0.607   3.762   6.318  0.2080  1.6513  0.5488
38994SOL     OW24096  10.409  12.334  12.597  0.3512  0.4620  0.4112
38994SOL    HW124097  10.347  12.388  12.647 -0.4389 -0.3620  0.3447
38994SOL    HW224098  10.449  12.395  12.535 -0.9293  0.8694 -0.0503
38995SOL     OW24099  12.089   4.660  10.108 -0.6435 -0.1174 -0.2401
38995SOL    HW124100  12.105   4.642  10.015 -0.4124  0.1683 -0.2565
38995SOL    HW224101  12.066   4.575  10.145  0.9543 -0.5807 -0.2068
38996SOL     OW24102   7.722   2.417   1.020 -0.2692  0.4794  0.1472
38996SOL    HW124103   7.630   2.405   0.997 -0.2227  1.0065 -0.3465
38996SOL    HW224104   7.735   2.363   1.098 -0.4807 -1.1915 -0.9451
38997SOL     OW24105   2.558   8.078  12.387 -0.6041 -0.3295  0.1552
38997SOL    HW124106   2.494   8.146  12.408 -1.2281 -1.1462  0.9687
38997SOL    HW224107   2.537   8.050  12.298 -1.0571 -0.2411  0.2359
38998SOL     OW24108   6.560  10.743   5.707 -0.3228 -0.4486 -0.4089
38998SOL    HW124109   6.528  10.798   5.778  1.0182 -0.0529 -0.0839
38998SOL    HW224110   6.644  10.781   5.684 -0.7070 -0.6068 -2.1871
38999SOL     OW24111   2.569   1.149   5.088 -0.4488  0.0758  0.0362
38999SOL    HW124112   2.486   1.179   5.125 -0.9465 -0.3247 -0.7260
38999SOL    HW224113   2.606   1.227   5.047 -1.5488 -0.2053 -1.5916
39000SOL     OW24114  11.990   4.819   1.075 -0.0494  0.0200 -0.0123
39000SOL    HW124115  11.907   4.801   1.119 -0.5085  0.4323 -0.6950
39000SOL    HW224116  12.051   4.753   1.110 -0.4939  0.1152  0.9543
39001SOL     OW24117   6.691  11.654   7.853  0.2390 -0.1007 -0.1014
39001SOL    HW124118   6.712  11.594   7.924 -0.8167 -0.5827 -0.1868
39001SOL    HW224119   6.776  11.681   7.818  0.7415 -1.9982 -0.4460
39002SOL     OW24120   3.652   8.411   1.484 -0.4910 -0.4704 -0.2279
39002SOL    HW124121   3.691   8.426   1.570  2.0846  1.6284 -1.6143
39002SOL    HW224122   3.571   8.362   1.502  0.3109 -0.7418  3.2631
39003SOL     OW24123   0.807   5.091  11.238  0.1363  0.2857  0.1333
39003SOL    HW124124   0.843   5.178  11.253 -1.0730  0.7340  0.5541
39003SOL    HW224125   0.712   5.103  11.243 -0.0536 -1.0230  0.0191
39004SOL     OW24126   0.916   3.432   5.418 -0.4035 -0.5507  0.0256
39004SOL    HW124127   0.839   3.431   5.475 -0.6191 -1.2125 -0.2608
39004SOL    HW224128   0.975   3.369   5.457  2.3477  3.5538  3.3041
39005SOL     OW24129  10.082   1.285   9.604 -0.0239  0.1602  0.3035
39005SOL    HW124130  10.045   1.336   9.676  0.2121  2.1318 -0.8931
39005SOL    HW224131  10.103   1.350   9.537  1.2708 -1.4176 -0.9133
39006SOL     OW24132  11.399   5.352   6.595 -0.4656 -0.3156 -0.4155
39006SOL    HW124133  11.322   5.408   6.582  0.1745  0.5749 -0.4929
39006SOL    HW224134  11.455   5.372   6.520  0.8241  0.7387  0.7776
39007SOL     OW24135   6.287   8.282   7.668 -0.3299 -0.1558  0.9925
39007SOL    HW124136   6.368   8.330   7.687 -0.5215  1.6446 -2.0709
39007SOL    HW224137   6.296   8.199   7.715  4.4385 -1.1265 -1.1197
39008SOL     OW24138  11.857   2.463  12.387  0.0990 -0.4252 -0.2953
39008SOL    HW124139  11.876   2.555  12.404 -1.0399 -0.0226 -1.0997
39008SOL    HW224140  11.774   2.447  12.433  1.0427 -1.4899  1.1331
39009SOL     OW24141   5.797   7.651   5.530 -0.1477 -0.1185  0.4579
39009SOL    HW124142   5.873   7.608   5.571 -0.1952  0.1487  0.8215
39009SOL    HW224143   5.826   7.669   5.440  0.7713  1.3764  1.0276
39010SOL     OW24144   4.095   3.162   5.710  0.0159 -0.1662 -0.2483
39010SOL    HW124145   4.113   3.070   5.731  0.9622  0.1465  0.3650
39010SOL    HW224146   4.018   3.159   5.653 -0.7265 -1.2499  0.7687
39011SOL     OW24147   6.917   6.741   0.802 -0.3489  0.4471 -0.1562
39011SOL    HW124148   6.935   6.744   0.896  1.0308 -1.1594 -0.3046
39011SOL    HW224149   6.949   6.824   0.768  2.1654 -0.2270  0.3855
39012SOL     OW24150   5.843   5.194   5.193  0.1744  0.5673  0.1117
39012SOL    HW124151   5.865   5.102   5.179  2.9844  0.9485  1.2139
39012SOL    HW224152   5.851   5.234   5.107  0.8867  0.0816 -0.0629
39013SOL     OW24153   1.995   7.426   5.256  0.0045  0.4823 -0.1667
39013SOL    HW124154   1.940   7.504   5.259 -2.9979 -1.3741 -1.7588
39013SOL    HW224155   2.016   7.414   5.163  0.2356 -0.7157  0.0248
39014SOL     OW24156   3.635   1.292   3.585  0.2918  0.2046  0.1770
39014SOL    HW124157   3.569   1.295   3.516 -0.5516 -0.9484  0.9041
39014SOL    HW224158   3.718   1.294   3.539 -0.2475  0.7423 -0.8039
39015SOL     OW24159   5.591  11.835   3.938 -0.2984  0.2212 -0.3056
39015SOL    HW124160   5.678  11.821   3.976  0.1946  1.0408 -1.0837
39015SOL    HW224161   5.552  11.904   3.992 -0.6753 -0.4918  0.3493
39016SOL     OW24162   0.156   1.435   0.373  0.0819 -0.1229  0.1797
39016SOL    HW124163   0.136   1.352   0.330  1.1984  0.1057 -0.8310
39016SOL    HW224164   0.222   1.476   0.316 -0.5808  1.5343  0.5608
39017SOL     OW24165   8.406   1.948   7.251 -0.0789 -0.0233 -0.5745
39017SOL    HW124166   8.450   1.974   7.171  1.9399 -0.5623  0.3126
39017SOL    HW224167   8.450   1.867   7.278 -2.0606 -0.9821  0.0277
39018SOL     OW24168  11.734  10.812  12.849  0.2223  0.1873  0.3347
39018SOL    HW124169  11.710  10.728  12.811  0.9765  0.5396 -0.9766
39018SOL    HW224170  11.819  10.797  12.890  1.2653  0.7214 -1.5308
39019SOL     OW24171  10.120   7.349   9.536 -0.6038  0.0817 -0.5052
39019SOL    HW124172  10.111   7.278   9.473  0.2035  0.6485 -1.2914
39019SOL    HW224173  10.037   7.397   9.530 -0.8086 -0.2847 -0.6123
39020SOL     OW24174   4.345  12.199   7.578 -0.0026  0.4122 -0.9435
39020SOL    HW124175   4.431  12.225   7.612  0.1521  0.4383 -1.3432
39020SOL    HW224176   4.284  12.221   7.648  0.2993  0.5388 -0.7158
39021SOL     OW24177   1.135  11.589   2.138  0.1345  0.1393 -0.0461
39021SOL    HW124178   1.199  11.522   2.161  0.1509  0.4445  0.8213
39021SOL    HW224179   1.067  11.580   2.205  0.5136  1.5003  0.5392
39022SOL     OW24180   0.529   5.591   5.088 -0.3407 -0.3057  0.0366
39022SOL    HW124181   0.470   5.662   5.113 -0.0905  0.6358 -1.9152
39022SOL    HW224182   0.490   5.553   5.009  0.8740 -0.6458 -0.4318
39023SOL     OW24183   2.667   7.680   5.882 -0.2531 -0.5915 -0.4307
39023SOL    HW124184   2.684   7.631   5.962 -1.6787 -0.9954 -0.3450
39023SOL    HW224185   2.586   7.729   5.900 -0.6358 -0.7457 -1.6293
39024SOL     OW24186   2.275   3.589   4.197  0.0140  0.2021  0.2354
39024SOL    HW124187   2.283   3.614   4.105 -1.3379 -1.3907 -0.3753
39024SOL    HW224188   2.232   3.664   4.239  1.3923  1.2776 -0.2231
39025SOL     OW24189   9.902  12.863   9.186  0.4118  0.2708  0.3557
39025SOL    HW124190   9.929  12.926   9.252 -1.2691  2.8251 -1.2336
39025SOL    HW224191   9.955  12.884   9.109  0.5276 -0.9540  0.0799
39026SOL     OW24192  10.448   5.714   0.248 -0.6719  0.1410 -0.4366
39026SOL    HW124193  10.388   5.710   0.322 -0.7885  0.7501 -0.4944
39026SOL    HW224194  10.513   5.780   0.273  0.0158 -0.5509 -0.3504
39027SOL     OW24195   1.928  10.517   0.041 -0.2628  0.2305 -0.1648
39027SOL    HW124196   1.928  10.551   0.130  0.3353 -0.1690 -0.0116
39027SOL    HW224197   1.879  10.582  -0.009  0.2190  0.9305  0.2688
39028SOL     OW24198   8.185  10.278   6.644 -0.5204  0.1725  0.2549
39028SOL    HW124199   8.273  10.285   6.607  0.6819 -3.4092  2.0491
39028SOL    HW224200   8.148  10.199   6.604 -1.5458 -0.3088  2.0427
39029SOL     OW24201   3.899   9.583   7.067 -0.2729 -0.0492 -0.5754
39029SOL    HW124202   3.828   9.613   7.010  0.2080 -1.1080 -1.7880
39029SOL    HW224203   3.857   9.519   7.124 -0.1081 -1.6939 -2.1847
39030SOL     OW24204   1.850   6.175   7.131  0.1188  0.6743 -1.0870
39030SOL    HW124205   1.895   6.161   7.214  0.6334 -0.1364 -1.4880
39030SOL    HW224206   1.897   6.120   7.068 -1.4813 -0.2867 -1.5054
39031SOL     OW24207   4.017  10.429   2.399 -0.5796 -0.2536  0.2593
39031SOL    HW124208   4.014  10.466   2.311  0.4122 -1.1720 -0.1809
39031SOL    HW224209   4.057  10.497   2.452  1.4088 -0.6901 -0.5815
39032SOL     OW24210   6.096   3.492   2.350 -0.1713 -0.2008 -0.4220
39032SOL    HW124211   6.043   3.479   2.429  0.0624 -0.1239 -0.2479
39032SOL    HW224212   6.060   3.572   2.310  0.4846  0.4654  0.2700
39033SOL     OW24213  12.934   7.711  12.733  0.7348 -0.4747  0.5866
39033SOL    HW124214  13.017   7.721  12.779  0.8323 -1.2140  0.5782
39033SOL    HW224215  12.925   7.792  12.682  1.6608 -0.5753  0.2447
39034SOL     OW24216   8.414  12.610   2.081 -0.0871  0.1753 -0.4847
39034SOL    HW124217   8.506  12.606   2.054  0.2786  2.9201  0.0429
39034SOL    HW224218   8.367  12.641   2.003 -0.5526 -0.8572 -0.6392
39035SOL     OW24219   7.530   9.823   7.519 -0.6514 -0.2785 -0.1388
39035SOL    HW124220   7.484   9.883   7.460  0.1401  0.4442 -0.0312
39035SOL    HW224221   7.580   9.766   7.460  0.0904  0.4046 -0.1877
39036SOL     OW24222  11.557   1.275   4.603 -0.4371  0.0049  0.5513
39036SOL    HW124223  11.620   1.281   4.531 -0.2195  2.5894  0.8468
39036SOL    HW224224  11.523   1.186   4.599  2.7085 -1.2868 -0.0614
39037SOL     OW24225   0.761  10.515   5.943 -0.5466 -0.0069  0.3958
39037SOL    HW124226   0.728  10.557   6.023 -0.9582  1.0954 -0.3205
39037SOL    HW224227   0.690  10.525   5.880  1.1204  2.6281 -1.2691
39038SOL     OW24228   5.681   3.063   3.194 -0.1423  0.3352  0.1583
39038SOL    HW124229   5.683   3.158   3.203 -1.6121  0.4147 -0.1615
39038SOL    HW224230   5.597   3.037   3.230  1.4842 -1.2261  3.1528
39039SOL     OW24231   5.570   2.658   3.043 -0.3668  0.2886  0.0009
39039SOL    HW124232   5.647   2.605   3.063  0.9955  1.8773 -0.8212
39039SOL    HW224233   5.520   2.659   3.125  0.6652 -0.4677  0.6634
39040SOL     OW24234   4.818  11.079   8.946 -0.0696 -0.4997  0.2135
39040SOL    HW124235   4.859  11.132   8.878 -1.2393 -1.4327 -1.2797
39040SOL    HW224236   4.747  11.134   8.979 -0.9432 -0.8661 -0.9608
39041SOL     OW24237  10.410   7.326   2.908  0.5278 -0.3355  0.2728
39041SOL    HW124238  10.411   7.231   2.897 -0.4340 -0.1997 -1.3391
39041SOL    HW224239  10.472   7.359   2.842  1.6166  0.1313  1.4874
39042SOL     OW24240  10.237   3.021   0.469  0.6816  0.1302  0.3539
39042SOL    HW124241  10.246   3.007   0.563  1.7289  0.6949  0.3555
39042SOL    HW224242  10.286   2.949   0.429  2.1283  1.1086  0.2948
39043SOL     OW24243   9.115   0.518   1.101  0.5764 -0.2741  0.2438
39043SOL    HW124244   9.020   0.524   1.100  0.4721  0.6470 -3.8408
39043SOL    HW224245   9.144   0.607   1.123  0.4541 -0.2736  0.4025
39044SOL     OW24246   6.811   0.978   4.611  0.1793 -0.2167 -0.4035
39044SOL    HW124247   6.803   1.029   4.691 -0.1598  0.7705 -1.0527
39044SOL    HW224248   6.769   1.032   4.544 -0.6031 -1.5482 -1.0244
39045SOL     OW24249   7.972   2.016   4.156  0.2954  0.0464 -0.0244
39045SOL    HW124250   8.015   1.932   4.139 -0.5334 -0.5673  0.8114
39045SOL    HW224251   7.945   2.047   4.070  0.6565 -0.5181 -0.3475
39046SOL     OW24252   8.007   4.843   3.174 -0.2649 -0.3919 -0.3327
39046SOL    HW124253   7.999   4.749   3.189  1.4625 -0.5259 -0.0002
39046SOL    HW224254   7.935   4.881   3.223  1.0585 -1.3296  2.6193
39047SOL     OW24255   0.934   7.176  11.278 -0.1807  0.0029  0.1470
39047SOL    HW124256   0.848   7.154  11.315 -0.4711  1.2344  0.2524
39047SOL    HW224257   0.945   7.115  11.205 -1.3167  0.0430 -0.0775
39048SOL     OW24258   5.236   1.252  12.292 -0.1320 -0.1441  0.6753
39048SOL    HW124259   5.141   1.243  12.297 -0.0036 -1.7106  0.8291
39048SOL    HW224260   5.267   1.165  12.263  1.3136  0.0509  1.5319
39049SOL     OW24261  11.139   1.574   3.083 -0.3213 -0.1083  0.1233
39049SOL    HW124262  11.157   1.588   2.989  0.9375 -0.6518  0.2568
39049SOL    HW224263  11.225   1.582   3.124 -0.8989  0.3385  1.2719
39050SOL     OW24264   6.997  12.703   1.811  1.4822 -0.3725  0.0727
39050SOL    HW124265   7.060  12.756   1.762  1.1533 -0.3400 -0.3244
39050SOL    HW224266   6.948  12.656   1.744  2.0295 -1.4977  0.4336
39051SOL     OW24267   5.558   9.906   1.288  0.2778  0.6911  0.3541
39051SOL    HW124268   5.650   9.891   1.313  0.7159  1.1659 -0.8901
39051SOL    HW224269   5.507   9.867   1.358  1.4419  0.2368  0.9650
39052SOL     OW24270   0.101  12.153   8.866 -0.3184  0.6034  0.4626
39052SOL    HW124271   0.115  12.062   8.891  1.3478  0.0765 -2.0581
39052SOL    HW224272   0.186  12.195   8.877 -0.1388  0.9306 -1.6619
39053SOL     OW24273   0.421   8.794   6.286  0.0340  0.2172 -0.0446
39053SOL    HW124274   0.442   8.864   6.224 -2.2771  1.0204 -0.0174
39053SOL    HW224275   0.327   8.782   6.278  0.3616 -3.2473 -0.3562
39054SOL     OW24276   3.978   1.966  11.455  0.2157  0.6104 -0.3768
39054SOL    HW124277   4.073   1.972  11.446  0.7667 -1.7539  2.2376
39054SOL    HW224278   3.956   2.036  11.517  0.1053  1.5051 -1.3894
39055SOL     OW24279   6.532  10.484  10.768 -0.7754 -0.0981 -0.7115
39055SOL    HW124280   6.607  10.502  10.711 -0.2985  0.8590  0.1784
39055SOL    HW224281   6.472  10.558  10.753 -1.8091 -1.1310 -1.8148
39056SOL     OW24282   3.305  10.160   4.198  0.6089  0.1554 -0.1081
39056SOL    HW124283   3.379  10.220   4.186  0.8657 -0.2125 -0.3818
39056SOL    HW224284   3.344  10.079   4.229  0.5258 -0.5694 -1.7644
39057SOL     OW24285   0.573   3.963   7.252  0.0566  0.4998  0.3269
39057SOL    HW124286   0.504   4.026   7.275 -0.9325 -0.9281  1.3755
39057SOL    HW224287   0.625   3.954   7.331  1.5114  1.5516 -0.4511
39058SOL     OW24288   0.228   2.569   9.136  0.5906  0.5745  0.2787
39058SOL    HW124289   0.265   2.618   9.062  1.6725  1.1055  1.1271
39058SOL    HW224290   0.155   2.622   9.166  2.3180  2.2854  1.7845
39059SOL     OW24291   9.346   9.498  12.762 -0.3454 -0.3385 -0.2673
39059SOL    HW124292   9.385   9.427  12.813  1.2748 -1.0501 -2.3191
39059SOL    HW224293   9.322   9.457  12.679  3.3023  1.8980 -2.7194
39060SOL     OW24294  10.202   4.799   7.979  0.3152  0.2739 -0.1734
39060SOL    HW124295  10.114   4.772   8.005 -0.1047  2.0742  0.4769
39060SOL    HW224296  10.193   4.893   7.961  1.8402  0.2267 -1.3606
39061SOL     OW24297   8.137   6.734  11.966 -0.2756 -0.3703  0.4332
39061SOL    HW124298   8.147   6.809  11.906 -1.9237 -0.4240  0.0473
39061SOL    HW224299   8.227   6.712  11.992  0.4097  0.2886 -1.2356
39062SOL     OW24300   6.314  11.191   4.117 -0.1707 -0.2280  0.0058
39062SOL    HW124301   6.348  11.111   4.076  0.7653 -0.0470  0.4045
39062SOL    HW224302   6.223  11.170   4.138 -0.2238 -0.8509 -0.7681
39063SOL     OW24303   2.138   3.283  10.693 -0.1130  0.1582 -0.2247
39063SOL    HW124304   2.119   3.219  10.625 -1.8426  0.8873 -0.4735
39063SOL    HW224305   2.084   3.255  10.767  1.7195 -0.6125  0.8944
39064SOL     OW24306   5.391   2.752   8.573 -0.5590 -0.0772 -0.2483
39064SOL    HW124307   5.367   2.791   8.657 -0.6268  0.2503 -0.4195
39064SOL    HW224308   5.358   2.813   8.508  0.6729  0.3496 -0.4981
39065SOL     OW24309  10.762   4.293   1.481 -0.1480  0.6382  0.4895
39065SOL    HW124310  10.838   4.309   1.536 -0.4775  0.6638  0.9386
39065SOL    HW224311  10.795   4.238   1.410 -0.0324 -0.6964  1.5283
39066SOL     OW24312   7.261   2.095  10.183 -0.4442  0.0426  0.2198
39066SOL    HW124313   7.305   2.010  10.182  1.9220  1.1539  1.3424
39066SOL    HW224314   7.280   2.132  10.098  2.0204  1.0073  1.1000
39067SOL     OW24315   4.116  10.170   4.550  0.1402 -0.2767 -0.8118
39067SOL    HW124316   4.028  10.134   4.553 -0.5853  1.4791  2.2866
39067SOL    HW224317   4.168  10.110   4.603  0.1581  0.1991 -0.2817
39068SOL     OW24318   3.975   3.810   9.103  0.1381 -0.0156 -0.8871
39068SOL    HW124319   3.937   3.754   9.035  0.1827 -1.9544  0.5946
39068SOL    HW224320   4.068   3.789   9.102  0.0299 -0.6349  0.2300
39069SOL     OW24321  10.086   9.112   5.181  0.7472 -0.1038  0.5768
39069SOL    HW124322  10.022   9.174   5.215 -1.1610 -0.9784 -1.1433
39069SOL    HW224323  10.099   9.049   5.252  1.4542  1.3237  1.7456
39070SOL     OW24324  12.174   6.388   7.706  0.7877 -0.6221  0.1061
39070SOL    HW124325  12.213   6.350   7.627  1.0057 -1.0841  0.4347
39070SOL    HW224326  12.175   6.482   7.689 -1.1039 -0.7943 -1.3476
39071SOL     OW24327   3.664  12.607   4.434 -0.3260  0.2826  0.0603
39071SOL    HW124328   3.744  12.657   4.416  1.1999 -1.6038  1.1347
39071SOL    HW224329   3.615  12.609   4.352  1.7264 -0.0376 -1.2484
39072SOL     OW24330   2.832   0.886   3.956 -0.2664  0.7294  0.6495
39072SOL    HW124331   2.909   0.942   3.946  0.3529 -0.4059 -2.0621
39072SOL    HW224332   2.831   0.833   3.876 -3.2127 -0.1432  1.1393
39073SOL     OW24333  11.340   9.494   0.707  0.5553 -0.0667 -0.5380
39073SOL    HW124334  11.271   9.559   0.706  0.5158 -0.1130 -0.7976
39073SOL    HW224335  11.366   9.489   0.799 -0.5289 -0.8299 -0.2492
39074SOL     OW24336   0.359  11.009   8.454  0.6671  0.2273 -0.2536
39074SOL    HW124337   0.424  11.006   8.525  1.7021  1.1382 -1.1217
39074SOL    HW224338   0.400  11.063   8.386 -0.0924 -0.9818 -1.7462
39075SOL     OW24339  10.956   1.186   2.740  0.0438  0.0869  0.2221
39075SOL    HW124340  10.977   1.277   2.762  1.2497 -0.1134 -0.0754
39075SOL    HW224341  10.898   1.157   2.811 -0.4398  1.1070  0.2659
39076SOL     OW24342   4.838   7.972  10.093 -0.4964  0.6824 -0.5504
39076SOL    HW124343   4.866   8.052  10.048 -0.0524  0.3541 -0.8712
39076SOL    HW224344   4.816   8.001  10.181  1.1226  0.9479 -0.1897
39077SOL     OW24345   0.938   7.189   0.410 -0.0293  0.0589 -0.1797
39077SOL    HW124346   0.993   7.264   0.433 -1.0626  1.0512 -0.8263
39077SOL    HW224347   0.943   7.131   0.485  1.0736  0.6155  0.1947
39078SOL     OW24348   7.300   7.456   5.318 -0.7512 -0.3095 -0.4016
39078SOL    HW124349   7.393   7.451   5.296 -0.1615 -0.5428  1.8184
39078SOL    HW224350   7.276   7.548   5.306  1.0567  0.8299  3.2388
39079SOL     OW24351   0.262   8.797   1.157 -0.3784 -0.6455 -0.3461
39079SOL    HW124352   0.309   8.847   1.224  0.0558 -1.6229  0.0936
39079SOL    HW224353   0.264   8.854   1.079  0.6254 -0.2338 -0.0333
39080SOL     OW24354  12.458  12.820   1.012  0.2633 -0.0851  0.0799
39080SOL    HW124355  12.394  12.751   0.996  0.2693 -0.2066  0.5480
39080SOL    HW224356  12.519  12.781   1.075  1.2552 -0.2505 -0.9476
39081SOL     OW24357   3.452   8.907   1.422 -0.1869  0.3697  0.9648
39081SOL    HW124358   3.432   8.969   1.352  0.4966 -1.1148 -0.6135
39081SOL    HW224359   3.517   8.952   1.476  0.9770  0.7401 -0.6566
39082SOL     OW24360   9.767  11.458   1.637 -0.4627 -0.1325 -0.1808
39082SOL    HW124361   9.849  11.492   1.601 -1.6439  1.9136 -1.1259
39082SOL    HW224362   9.790  11.427   1.724  1.3466  0.2280 -0.4965
39083SOL     OW24363   7.653  12.075  10.600 -0.2795  0.1324 -0.1059
39083SOL    HW124364   7.563  12.070  10.634 -0.1990 -1.5632 -0.0624
39083SOL    HW224365   7.664  12.166  10.575 -1.2249  0.9044  2.0661
39084SOL     OW24366   3.420   1.104   1.568  0.2687 -0.4236  0.9420
39084SOL    HW124367   3.379   1.020   1.588 -2.6937  0.5679 -0.4448
39084SOL    HW224368   3.407   1.156   1.647 -0.2815 -0.4401  0.8665
39085SOL     OW24369  10.737  11.028   2.255 -0.0374  0.1354  0.2177
39085SOL    HW124370  10.804  11.043   2.321 -0.1921  1.2950  0.1340
39085SOL    HW224371  10.689  10.952   2.286  1.3381 -0.7687  0.2475
39086SOL     OW24372  11.700   3.923   2.726 -0.1135 -0.1652 -0.2512
39086SOL    HW124373  11.640   3.930   2.652  0.9734  1.8407 -1.0040
39086SOL    HW224374  11.678   3.998   2.782  1.6677  0.6242 -0.5559
39087SOL     OW24375   4.355  10.966   7.611 -0.6193 -0.1966 -0.0364
39087SOL    HW124376   4.426  11.015   7.653 -0.3928 -0.8689  0.3916
39087SOL    HW224377   4.353  10.883   7.658 -0.3767 -0.9683 -1.3446
39088SOL     OW24378   5.973   8.556  12.798  0.3226 -0.1104  0.2498
39088SOL    HW124379   6.011   8.473  12.828 -0.9850  0.0342  2.4758
39088SOL    HW224380   5.899   8.531  12.744  0.7314 -0.3643 -0.2074
39089SOL     OW24381   2.259   8.830  11.465  0.1760  0.2420  0.0192
39089SOL    HW124382   2.336   8.790  11.425  0.3070  1.9236 -1.5460
39089SOL    HW224383   2.184   8.783  11.426  0.3638  0.3024 -0.4204
39090SOL     OW24384   8.058   8.469  10.550 -0.2403 -0.3635  0.1206
39090SOL    HW124385   7.982   8.518  10.518  0.5353  0.3090 -0.7527
39090SOL    HW224386   8.095   8.524  10.619  1.2290  0.8544 -1.5498
39091SOL     OW24387  10.733   5.163   7.776 -0.0723  0.0098 -0.0662
39091SOL    HW124388  10.743   5.103   7.702 -0.0336  0.3613 -0.3473
39091SOL    HW224389  10.807   5.224   7.768 -1.4951  1.6927 -1.2911
39092SOL     OW24390  10.322  10.116  10.487 -0.5130  0.4443  0.4236
39092SOL    HW124391  10.368  10.153  10.563  0.7035 -0.3409  0.0930
39092SOL    HW224392  10.291  10.031  10.518 -0.1837  0.2078  0.1124
39093SOL     OW24393   4.642  11.679   5.008 -0.0576  0.5699  0.3097
39093SOL    HW124394   4.704  11.680   5.080 -1.3917 -0.1688  1.5076
39093SOL    HW224395   4.670  11.751   4.952  3.9410 -1.6801 -1.0588
39094SOL     OW24396   3.464  10.929   7.639  0.2448 -0.0361 -0.3936
39094SOL    HW124397   3.370  10.924   7.622  0.0491 -0.1675  0.6414
39094SOL    HW224398   3.500  10.852   7.595 -0.2204 -0.3111 -0.3043
39095SOL     OW24399   0.015  10.927   4.347  0.4986  0.1560 -0.0240
39095SOL    HW124400   0.109  10.922   4.367  0.6168 -1.7592 -0.8832
39095SOL    HW224401   0.009  10.991   4.276  0.9642  1.3307  0.9622
39096SOL     OW24402   9.092  10.932   5.853 -0.0436 -0.2118  0.1675
39096SOL    HW124403   9.032  10.990   5.899  0.7175  1.0051 -0.3162
39096SOL    HW224404   9.140  10.888   5.923 -0.3417  0.0529  0.5467
39097SOL     OW24405   9.780   8.599   5.450 -0.2789 -0.6846 -0.2389
39097SOL    HW124406   9.694   8.605   5.408  0.1050  0.8104 -0.8946
39097SOL    HW224407   9.842   8.611   5.378  0.4292  0.0050  0.4783
39098SOL     OW24408   9.989   0.317  12.086 -0.5060  0.2006 -0.3072
39098SOL    HW124409   9.969   0.227  12.060  2.0622  0.1116 -2.4058
39098SOL    HW224410   9.982   0.367  12.005  0.4041  1.4405  0.3584
39099SOL     OW24411   4.931   3.187  11.393  0.0896  0.2272  0.1874
39099SOL    HW124412   4.974   3.196  11.308 -0.6090 -2.8273 -0.6425
39099SOL    HW224413   4.843   3.223  11.379 -0.8025 -2.2307 -1.2185
39100SOL     OW24414   9.188   3.635   0.670 -0.4741  0.0636 -0.9392
39100SOL    HW124415   9.145   3.712   0.706 -0.9674  0.3934 -2.1893
39100SOL    HW224416   9.120   3.592   0.616 -0.3584 -1.4973  0.0810
39101SOL     OW24417  12.365   4.738   7.004  0.3645 -0.3388 -0.0880
39101SOL    HW124418  12.335   4.778   6.922  0.7309  0.9934  0.4051
39101SOL    HW224419  12.458   4.760   7.010  0.6260 -1.4298  0.1268
39102SOL     OW24420   7.830  12.952  11.126 -0.8339  0.1849  0.1152
39102SOL    HW124421   7.813  12.997  11.209  0.4002 -1.3073  1.2352
39102SOL    HW224422   7.765  12.883  11.123 -1.7707  1.0748 -0.8784
39103SOL     OW24423   7.961   2.504  11.604  0.6341 -0.1588  0.3785
39103SOL    HW124424   7.876   2.469  11.577  0.6919  0.5220 -0.7796
39103SOL    HW224425   7.979   2.574  11.541  1.9652 -0.1630  0.7161
39104SOL     OW24426   8.143   6.838   0.145 -0.0389  0.3822  0.4253
39104SOL    HW124427   8.186   6.804   0.223  0.4194 -0.8311 -0.3310
39104SOL    HW224428   8.114   6.761   0.097 -0.2077  1.0942 -0.6597
39105SOL     OW24429  12.128   6.961   0.365 -0.4383  0.0004 -0.3514
39105SOL    HW124430  12.223   6.968   0.379 -0.1843  1.9869 -2.4735
39105SOL    HW224431  12.090   7.034   0.414 -0.7611 -0.0989 -0.4496
39106SOL     OW24432  10.888   7.358   4.322  0.3850  0.7869 -0.2860
39106SOL    HW124433  10.845   7.443   4.319  0.7541  1.0603  1.4250
39106SOL    HW224434  10.981   7.378   4.321  0.4802  0.3424 -0.9021
39107SOL     OW24435   0.929  10.625   4.148 -0.0250 -0.3042  0.2245
39107SOL    HW124436   1.015  10.584   4.141  0.0871 -0.0214 -0.0945
39107SOL    HW224437   0.906  10.649   4.058 -0.1956  0.1093  0.3754
39108SOL     OW24438   3.309   4.296   9.784 -0.4573 -0.1648 -0.0356
39108SOL    HW124439   3.361   4.341   9.850 -0.3276  1.4537 -1.1620
39108SOL    HW224440   3.332   4.204   9.793 -0.8022 -0.0800  2.4524
39109SOL     OW24441   7.776   2.394   4.187  0.1038  0.4218  0.5484
39109SOL    HW124442   7.765   2.481   4.226 -1.0784  1.6281 -2.2160
39109SOL    HW224443   7.689   2.372   4.152  0.9948 -0.6217 -1.1751
39110SOL     OW24444   7.670   5.907  10.156  0.5137  0.3724  0.0245
39110SOL    HW124445   7.722   5.927  10.077 -0.3421  0.4644 -0.5291
39110SOL    HW224446   7.621   5.987  10.173  0.2992  0.1737  0.3437
39111SOL     OW24447   0.888  11.903   2.412 -0.1172 -0.0609  0.1335
39111SOL    HW124448   0.962  11.850   2.440 -1.5593 -0.3943  3.8185
39111SOL    HW224449   0.923  11.992   2.406  1.3687 -0.6924 -2.1623
39112SOL     OW24450   3.197   4.889  11.852 -0.1263 -0.2200  0.2510
39112SOL    HW124451   3.187   4.794  11.846  0.5839 -0.2570 -0.5276
39112SOL    HW224452   3.178   4.910  11.944  1.0223 -1.2848  0.7593
39113SOL     OW24453  12.825   6.660   5.987 -0.0032 -0.0152 -0.4239
39113SOL    HW124454  12.733   6.635   5.993 -0.0139  0.0003 -0.5127
39113SOL    HW224455  12.834   6.696   5.898 -0.3078  1.6062  0.1723
39114SOL     OW24456   7.392   4.728   7.452  0.5403  0.7188 -0.0318
39114SOL    HW124457   7.458   4.693   7.391  2.0364  0.4682  1.6551
39114SOL    HW224458   7.425   4.705   7.539 -0.9281  2.1211  0.9487
39115SOL     OW24459   4.387  11.053  10.430 -0.5235  0.3561  0.3388
39115SOL    HW124460   4.370  11.088  10.518 -1.3079  1.4036 -0.2113
39115SOL    HW224461   4.409  11.130  10.377  2.6222 -0.5238  0.1722
39116SOL     OW24462   7.808   0.576   3.336  0.3018 -0.4731  0.1862
39116SOL    HW124463   7.735   0.588   3.397 -0.0713  2.4838 -0.7117
39116SOL    HW224464   7.876   0.533   3.389 -0.9833 -0.5120  1.8881
39117SOL     OW24465   9.620   2.745  12.082 -0.2915  0.0773 -0.0745
39117SOL    HW124466   9.689   2.786  12.134 -0.3941  0.5066 -0.2707
39117SOL    HW224467   9.663   2.669  12.041  0.3213  0.8755 -0.9381
39118SOL     OW24468  10.219  10.486   2.405  0.2199  0.2204  0.6311
39118SOL    HW124469  10.231  10.581   2.398 -2.2325  0.4797 -1.5464
39118SOL    HW224470  10.237  10.453   2.317 -3.0581 -0.6862  0.1640
39119SOL     OW24471   6.336   2.427   4.413  0.0702  0.0074 -0.1430
39119SOL    HW124472   6.306   2.513   4.443 -0.4325 -0.7608  1.7439
39119SOL    HW224473   6.278   2.365   4.458  1.0679 -1.3466 -0.6628
39120SOL     OW24474  10.106   3.763  10.970 -0.0046 -0.1987  0.0632
39120SOL    HW124475  10.134   3.734  10.883 -1.7390 -2.1100  0.0620
39120SOL    HW224476  10.050   3.839  10.954  0.6782  0.2211 -0.3672
39121SOL     OW24477  12.520  11.453   0.518  0.0509 -0.1779  0.8120
39121SOL    HW124478  12.600  11.434   0.468  1.0825  0.9854  1.9162
39121SOL    HW224479  12.482  11.367   0.536  1.1820 -0.7878  0.4363
39122SOL     OW24480   0.457  12.926   2.401  0.8103 -0.1252 -0.0398
39122SOL    HW124481   0.482  13.001   2.454  1.5457  0.8167 -1.6370
39122SOL    HW224482   0.535  12.905   2.350  0.7311 -2.2196  0.5995
39123SOL     OW24483   1.989   7.707   3.684  0.3303 -0.3533  0.3161
39123SOL    HW124484   2.044   7.630   3.666 -1.1481 -1.4511  0.3068
39123SOL    HW224485   1.961   7.696   3.775  0.7059  0.6050  0.5682
39124SOL     OW24486   1.743   1.082   2.880 -0.6685 -0.2972 -0.1857
39124SOL    HW124487   1.748   1.036   2.797  0.6336 -0.1251 -0.2231
39124SOL    HW224488   1.777   1.170   2.862 -0.5920 -0.1839  0.4686
39125SOL     OW24489  12.789   3.463   5.350  0.3531  0.6486 -0.4331
39125SOL    HW124490  12.738   3.533   5.391 -1.0382  0.0353 -1.0642
39125SOL    HW224491  12.754   3.382   5.387  1.0122  0.2207 -0.7310
39126SOL     OW24492  10.229  11.761   9.995  0.0339  0.3131  0.0097
39126SOL    HW124493  10.278  11.839   9.969 -0.0812  0.1128 -0.8214
39126SOL    HW224494  10.292  11.689   9.988 -0.0170  0.2464  0.2285
39127SOL     OW24495  10.373  11.666   5.863  0.5578 -0.1155 -0.4760
39127SOL    HW124496  10.318  11.590   5.886  0.7915 -0.2150 -0.2337
39127SOL    HW224497  10.425  11.681   5.942 -0.3698  1.0788 -0.0598
39128SOL     OW24498   0.723  12.764   6.184  0.2651 -0.3576 -0.1414
39128SOL    HW124499   0.664  12.838   6.198  0.0965 -0.2282 -1.3891
39128SOL    HW224500   0.665  12.689   6.175  0.3062 -0.2985 -0.9451
39129SOL     OW24501   2.043   4.600  11.336 -0.1250  0.1777  0.3428
39129SOL    HW124502   2.083   4.678  11.298  1.2897  0.2883  1.9209
39129SOL    HW224503   1.980   4.570  11.271  1.2346  1.0874 -1.4629
39130SOL     OW24504   3.059  10.514   8.032  0.4676 -0.4347  0.1098
39130SOL    HW124505   3.096  10.479   8.114 -0.3129 -0.2009  0.5755
39130SOL    HW224506   3.104  10.598   8.020  0.2437 -0.2454  0.5582
39131SOL     OW24507   0.442   9.588   4.313  0.1075  0.0577 -0.2910
39131SOL    HW124508   0.508   9.641   4.358  0.4152  0.1055 -0.7973
39131SOL    HW224509   0.453   9.609   4.220 -0.2928 -0.3023 -0.4229
39132SOL     OW24510   8.208   2.545   6.515 -0.1492  0.0951  0.4385
39132SOL    HW124511   8.257   2.502   6.584  0.4596 -0.8225 -0.5408
39132SOL    HW224512   8.261   2.620   6.490 -0.1725  0.1926  0.6830
39133SOL     OW24513   7.051   0.029   5.147  0.3715 -0.0724 -0.4659
39133SOL    HW124514   7.075  -0.056   5.185  0.1603 -0.4159 -1.0867
39133SOL    HW224515   6.969   0.052   5.190  0.2355 -0.3656 -0.5676
39134SOL     OW24516   9.194   1.164   8.059  0.2930  0.1076 -0.4600
39134SOL    HW124517   9.133   1.140   8.128  1.1292  0.3654  0.3904
39134SOL    HW224518   9.165   1.251   8.029 -0.6180 -0.3940 -1.0962
39135SOL     OW24519   4.951   8.862   1.585 -0.3448  0.1385 -0.2627
39135SOL    HW124520   5.012   8.801   1.625 -1.2394  0.3300  1.4851
39135SOL    HW224521   4.972   8.859   1.492  1.0995 -1.1461  0.0615
39136SOL     OW24522   8.251  10.731  11.190  0.2032 -0.6690 -0.7021
39136SOL    HW124523   8.293  10.646  11.195 -0.9683 -1.3002 -1.1658
39136SOL    HW224524   8.259  10.756  11.097  2.4765  0.7823 -0.2018
39137SOL     OW24525   3.156   3.646   9.141 -0.7521 -0.2474  0.2166
39137SOL    HW124526   3.111   3.620   9.061 -0.5058  0.9214 -0.3150
39137SOL    HW224527   3.106   3.721   9.174  0.8396  1.1846 -0.4676
39138SOL     OW24528   0.091   1.480   8.462 -0.1804 -0.1365  0.0949
39138SOL    HW124529   0.066   1.572   8.460 -0.8473 -0.3153 -0.9463
39138SOL    HW224530   0.182   1.479   8.431 -0.3058  0.1385 -0.2922
39139SOL     OW24531  12.263   9.237   1.139 -0.5156 -0.4742  0.1143
39139SOL    HW124532  12.169   9.221   1.140 -0.3452 -1.5079  0.6229
39139SOL    HW224533  12.270   9.333   1.140 -1.5588 -0.3691  1.9077
39140SOL     OW24534   3.558   5.122  11.207  0.1354 -0.3333 -0.3285
39140SOL    HW124535   3.595   5.161  11.286 -0.0425 -0.6164 -0.1056
39140SOL    HW224536   3.467   5.103  11.230  0.2267 -0.8980 -0.4331
39141SOL     OW24537   8.705   3.469   7.071  0.4042 -0.2020  0.1793
39141SOL    HW124538   8.688   3.479   6.977 -0.3584 -0.8812  0.2359
39141SOL    HW224539   8.759   3.391   7.078  0.9164  0.1577  0.2641
39142SOL     OW24540  10.073  12.906   3.517 -0.5286 -0.2780  0.2591
39142SOL    HW124541  10.076  12.978   3.579 -1.2909 -0.6744  0.7776
39142SOL    HW224542  10.150  12.852   3.537 -0.0221  0.3204 -0.0567
39143SOL     OW24543  10.563  11.703   6.457 -0.4930 -0.2607  0.3440
39143SOL    HW124544  10.649  11.673   6.484 -0.6654 -0.4250  0.7174
39143SOL    HW224545  10.502  11.655   6.514 -0.7909  0.4172  0.6090
39144SOL     OW24546   2.039   4.602   0.963  0.2753  1.1151 -0.1206
39144SOL    HW124547   2.067   4.510   0.961 -0.8133  0.7169  1.1407
39144SOL    HW224548   2.034   4.623   1.056 -1.5584  1.7660 -0.3241
39145SOL     OW24549   3.988   1.716  10.052  0.5132  0.1181  0.2944
39145SOL    HW124550   3.922   1.646  10.056 -0.0761  0.6769  0.5939
39145SOL    HW224551   3.948   1.783   9.996  0.7424  0.5575  0.6529
39146SOL     OW24552  10.249   0.368   1.674 -0.5879  0.0327 -0.2368
39146SOL    HW124553  10.188   0.400   1.741 -0.1763 -0.6926  0.4927
39146SOL    HW224554  10.323   0.428   1.678 -1.0266  0.6278 -0.7930
39147SOL     OW24555  10.303   3.899   7.881  0.1880 -0.0405 -0.0112
39147SOL    HW124556  10.302   3.809   7.915  2.6805 -0.1086  0.0975
39147SOL    HW224557  10.360   3.947   7.941 -2.8816  2.2936  1.2806
39148SOL     OW24558   3.707   3.895   4.378 -0.3880  0.4322 -0.2552
39148SOL    HW124559   3.719   3.858   4.465 -0.2148  1.0770  0.0035
39148SOL    HW224560   3.754   3.835   4.319  0.5485  0.6554  0.2445
39149SOL     OW24561  10.023  10.057   0.813  0.4072 -0.4081  0.0609
39149SOL    HW124562  10.094   9.993   0.806  0.9327  0.3397 -2.6634
39149SOL    HW224563   9.957  10.015   0.868  1.3273 -2.7184 -0.5000
39150SOL     OW24564   4.856  12.930   7.176 -0.1955  0.1993  0.6247
39150SOL    HW124565   4.781  12.918   7.117 -0.6124  1.7770  0.8074
39150SOL    HW224566   4.834  12.876   7.253 -0.6716 -0.1256  0.2693
39151SOL     OW24567   4.381   6.687   2.890 -0.2949  0.6133  0.2306
39151SOL    HW124568   4.322   6.621   2.928  1.5499 -1.4036 -0.1997
39151SOL    HW224569   4.451   6.636   2.851  0.8658  2.8664 -0.7895
39152SOL     OW24570   9.230   4.423   1.451 -0.8735  0.5679  0.4424
39152SOL    HW124571   9.263   4.335   1.438  0.5351  1.2067 -0.5558
39152SOL    HW224572   9.245   4.442   1.544 -0.1719  0.1515  0.4171
39153SOL     OW24573   4.513  10.664   0.314 -0.6216 -0.3597 -0.0820
39153SOL    HW124574   4.556  10.717   0.381 -0.6291  0.9133 -1.0424
39153SOL    HW224575   4.431  10.636   0.354 -1.2731  1.5319  0.0210
39154SOL     OW24576  11.847   4.104   7.826 -0.2246  0.1686 -0.2008
39154SOL    HW124577  11.805   4.032   7.872 -0.8768 -0.2265 -1.3642
39154SOL    HW224578  11.774   4.156   7.790  0.2451  0.9766 -0.0236
39155SOL     OW24579   8.593  11.460   0.532 -0.2592  0.8623 -0.0986
39155SOL    HW124580   8.660  11.453   0.599 -0.6556  2.0337  0.4354
39155SOL    HW224581   8.516  11.494   0.578 -1.3759 -0.8393 -0.5987
39156SOL     OW24582   1.853   6.824  11.598  0.0518  0.2109  0.4946
39156SOL    HW124583   1.822   6.782  11.518 -0.4473  0.0425  0.7740
39156SOL    HW224584   1.837   6.759  11.666  1.6818 -0.1863  0.5502
39157SOL     OW24585   7.874  11.097   8.695  0.4015  0.2365  0.1899
39157SOL    HW124586   7.876  11.192   8.683 -1.7026  0.0608 -2.6775
39157SOL    HW224587   7.959  11.068   8.664 -0.1623  1.0193 -2.3607
39158SOL     OW24588   6.732  11.738   8.266 -0.5677 -0.2770  0.3665
39158SOL    HW124589   6.736  11.825   8.224  0.0124 -0.6194 -0.3198
39158SOL    HW224590   6.792  11.746   8.340 -0.1519 -0.2203  0.0337
39159SOL     OW24591   3.208   1.389  12.229  0.2836 -0.2535 -0.1812
39159SOL    HW124592   3.253   1.305  12.220  0.2367 -0.1007 -2.0973
39159SOL    HW224593   3.271   1.444  12.276  0.5887 -1.1324  0.4817
39160SOL     OW24594  11.221  10.730   4.235 -0.0915 -0.0609 -0.4297
39160SOL    HW124595  11.162  10.688   4.298  0.4528  0.5402  0.5023
39160SOL    HW224596  11.163  10.786   4.183 -0.4540  0.0101  0.0367
39161SOL     OW24597   7.941   0.900   7.717 -0.5222 -0.2554  0.1255
39161SOL    HW124598   7.867   0.854   7.677  0.4902 -1.8808  0.0374
39161SOL    HW224599   7.917   0.907   7.810 -0.2762 -1.8933  0.3385
39162SOL     OW24600   9.556   5.811   2.453 -0.2983  0.2278  0.1638
39162SOL    HW124601   9.500   5.813   2.376 -0.2661 -1.2026  0.0639
39162SOL    HW224602   9.637   5.854   2.426 -1.1162  1.8077  0.1354
39163SOL     OW24603   9.025   0.653   4.611 -0.1331  0.3132 -0.1939
39163SOL    HW124604   9.005   0.577   4.665 -1.6309 -0.1847 -1.3609
39163SOL    HW224605   9.120   0.658   4.610 -0.0371 -0.7474  0.9676
39164SOL     OW24606  10.347   8.708   1.519 -0.3431  0.3618 -0.4388
39164SOL    HW124607  10.328   8.772   1.588 -2.0099  1.7783 -2.1053
39164SOL    HW224608  10.272   8.648   1.521  0.6709 -0.9573  0.3649
39165SOL     OW24609   4.165  10.560   2.582 -0.0094 -0.8227 -0.6549
39165SOL    HW124610   4.250  10.524   2.606 -1.4636 -3.2077  1.3157
39165SOL    HW224611   4.135  10.606   2.661 -0.6143 -0.0849 -1.2963
39166SOL     OW24612   5.974   2.758   3.681 -0.1059  0.1844  0.1883
39166SOL    HW124613   5.991   2.754   3.586  1.5151  2.6877  0.2878
39166SOL    HW224614   6.041   2.701   3.719 -0.1256 -0.0467 -0.1147
39167SOL     OW24615  10.030   4.650   4.799 -0.3398 -0.0425 -0.6710
39167SOL    HW124616  10.074   4.566   4.785 -3.0688 -1.4234 -1.7986
39167SOL    HW224617  10.018   4.656   4.893 -0.8813 -1.3775 -0.6350
39168SOL     OW24618   8.475   1.013  12.084 -0.4319 -0.0110 -0.2451
39168SOL    HW124619   8.455   1.049  12.171  0.5773 -2.1624  0.9523
39168SOL    HW224620   8.497   1.090  12.031 -0.4249  1.3166  1.5739
39169SOL     OW24621   9.760   3.645   3.078 -0.5337 -0.0852 -0.4941
39169SOL    HW124622   9.819   3.719   3.092 -1.3501  0.3166  0.9768
39169SOL    HW224623   9.672   3.681   3.090 -0.9216 -1.3700  0.7396
39170SOL     OW24624   7.685   0.167   1.740 -0.5093  0.4218  0.5053
39170SOL    HW124625   7.727   0.207   1.664  1.8030 -1.3674  0.7225
39170SOL    HW224626   7.757   0.124   1.787 -2.3205 -1.0223  2.1217
39171SOL     OW24627   3.617   1.695   4.712 -0.0041 -0.5090  0.7726
39171SOL    HW124628   3.525   1.720   4.712  0.3498  0.8407  0.7138
39171SOL    HW224629   3.617   1.606   4.674 -1.1359  0.0241 -0.5803
39172SOL     OW24630  11.103   9.675  10.857 -0.2983  0.3662 -0.0644
39172SOL    HW124631  11.049   9.702  10.783  0.3421  0.7290 -0.4097
39172SOL    HW224632  11.082   9.737  10.926 -3.9950 -2.3425  1.5476
39173SOL     OW24633   7.114   7.782   4.642  0.7909 -0.0839  0.6131
39173SOL    HW124634   7.204   7.789   4.674  0.2248 -0.3181  2.3997
39173SOL    HW224635   7.094   7.868   4.606  1.8875 -0.1841 -0.2555
39174SOL     OW24636   6.934   8.590   2.986  0.4126 -0.1477 -0.0332
39174SOL    HW124637   6.878   8.522   2.948  0.7537 -1.0255  0.9837
39174SOL    HW224638   6.877   8.637   3.046  0.4709 -0.2968  0.1396
39175SOL     OW24639   9.234  12.839   2.881 -1.0390 -0.2334  0.0522
39175SOL    HW124640   9.198  12.845   2.969  0.2861  0.5342  0.5737
39175SOL    HW224641   9.194  12.910   2.832 -1.0362 -0.0525  0.3159
39176SOL     OW24642   3.770   9.611   5.066  0.0625 -0.0702 -0.1892
39176SOL    HW124643   3.766   9.675   5.137 -0.7077 -0.4200  0.0842
39176SOL    HW224644   3.758   9.662   4.986  4.6659  0.9803 -0.5089
39177SOL     OW24645  10.422   5.285   1.962 -0.2562  0.2345  0.1577
39177SOL    HW124646  10.427   5.262   2.055 -2.5258  1.8542  0.7619
39177SOL    HW224647  10.328   5.281   1.942  0.2087 -0.3106 -2.1496
39178SOL     OW24648   4.529  12.477  12.910 -0.1467 -0.3767  0.1269
39178SOL    HW124649   4.443  12.511  12.934 -0.6353 -1.4000 -0.1270
39178SOL    HW224650   4.588  12.553  12.918 -0.8579  0.0700  1.3953
39179SOL     OW24651   8.096   4.774   2.323 -0.7431  0.1028  0.2389
39179SOL    HW124652   8.068   4.803   2.410 -2.3520 -0.5402 -0.0320
39179SOL    HW224653   8.058   4.687   2.313  0.4921 -0.3696 -0.6304
39180SOL     OW24654   8.669   7.422   8.488  0.0007  0.7638 -0.0479
39180SOL    HW124655   8.705   7.444   8.574 -0.3240  0.5430  0.1495
39180SOL    HW224656   8.740   7.438   8.427  0.9032 -0.9531  0.4736
39181SOL     OW24657   9.499   4.349   5.159  0.0191  0.1745  0.4720
39181SOL    HW124658   9.560   4.397   5.102  0.8087  0.4843  1.5360
39181SOL    HW224659   9.541   4.264   5.173 -0.0011  0.2205  0.8387
39182SOL     OW24660  12.717   7.625   1.414  0.1604 -0.3093  0.1147
39182SOL    HW124661  12.806   7.604   1.387  0.2229  2.0822 -1.8786
39182SOL    HW224662  12.662   7.569   1.360  0.4147  0.0444 -0.5187
39183SOL     OW24663   6.434   0.031   4.889 -0.0733 -0.3721  0.1053
39183SOL    HW124664   6.369   0.092   4.923 -0.0558  0.2455 -0.9508
39183SOL    HW224665   6.436   0.046   4.795 -0.4881 -2.3900 -0.2850
39184SOL     OW24666   4.713   3.196   2.737 -0.3418 -0.5101 -0.1279
39184SOL    HW124667   4.728   3.152   2.820  1.8691  0.3288 -0.0268
39184SOL    HW224668   4.647   3.263   2.757 -0.6681 -1.0497  0.6553
39185SOL     OW24669   9.160   9.579   4.496 -0.5813 -0.0921  0.1400
39185SOL    HW124670   9.114   9.495   4.503 -3.0666  1.0518 -1.4143
39185SOL    HW224671   9.153   9.617   4.583 -1.1885 -0.6424  0.3403
39186SOL     OW24672   1.177  10.042   6.980 -0.2524 -0.0894 -0.1583
39186SOL    HW124673   1.185  10.120   6.925  1.7367 -0.6312 -0.7392
39186SOL    HW224674   1.160  10.075   7.068  0.0017  0.9728 -0.4980
39187SOL     OW24675   3.151   7.110   6.023 -0.0512 -0.0414 -0.5326
39187SOL    HW124676   3.246   7.103   6.010 -0.0904 -0.3767 -0.6354
39187SOL    HW224677   3.139   7.194   6.068  0.3030 -0.0521 -0.4175
39188SOL     OW24678  10.186   3.693  11.930 -0.6136 -0.0971 -0.2048
39188SOL    HW124679  10.210   3.769  11.983 -0.6547 -1.1133  1.3049
39188SOL    HW224680  10.199   3.618  11.987 -1.4071 -1.1817 -1.3915
39189SOL     OW24681   4.304   8.399  10.699 -0.2380 -0.6412 -0.2423
39189SOL    HW124682   4.312   8.436  10.611 -0.9439 -0.8362 -0.3933
39189SOL    HW224683   4.313   8.304  10.686 -1.7656 -0.7935 -0.3026
39190SOL     OW24684   1.314  11.940   7.384 -0.5044 -0.0199 -0.1775
39190SOL    HW124685   1.279  11.866   7.433  0.0584 -0.1406  0.0445
39190SOL    HW224686   1.237  11.989   7.357 -1.0376 -1.7375 -2.0264
39191SOL     OW24687   9.571   7.359  12.584 -0.3084  0.5388 -0.2141
39191SOL    HW124688   9.640   7.353  12.650  0.0959 -0.4088 -0.7109
39191SOL    HW224689   9.533   7.271  12.581 -0.8209  0.7718 -0.7125
39192SOL     OW24690   5.126   9.470  12.930 -0.0403  0.3013 -0.1758
39192SOL    HW124691   5.105   9.563  12.917 -0.1643  0.0423 -2.2011
39192SOL    HW224692   5.220   9.464  12.915 -0.0734  0.0647 -0.2935
39193SOL     OW24693   0.787   7.078   4.189  0.3425 -0.0889 -0.2234
39193SOL    HW124694   0.780   7.144   4.120  0.7290 -0.5956 -0.7676
39193SOL    HW224695   0.881   7.066   4.201  0.2761  0.1648  0.5705
39194SOL     OW24696   7.683   1.357   8.409  0.6336 -0.3469  0.2601
39194SOL    HW124697   7.603   1.397   8.444 -0.3113 -1.3528 -0.6824
39194SOL    HW224698   7.737   1.342   8.487  2.1498  4.8014  0.5626
39195SOL     OW24699   0.301   8.656  12.889  0.2336  0.4048  0.2395
39195SOL    HW124700   0.287   8.746  12.860 -1.9856  0.8593  2.4229
39195SOL    HW224701   0.240   8.603  12.838 -0.5654  0.5930  0.9743
39196SOL     OW24702   9.592   8.861   6.776 -0.4202  0.7397  0.6254
39196SOL    HW124703   9.606   8.946   6.818 -0.8808  0.7287  0.8096
39196SOL    HW224704   9.530   8.879   6.706  0.7509  0.8560 -0.4127
39197SOL     OW24705   1.798   6.417   4.926  0.3522  0.1607 -0.2889
39197SOL    HW124706   1.882   6.455   4.952  0.0620 -0.0609  1.0600
39197SOL    HW224707   1.737   6.446   4.994 -0.0750 -1.9412  0.2879
39198SOL     OW24708  12.936   0.033  11.488  0.2671 -0.1303  0.3598
39198SOL    HW124709  12.857  -0.004  11.447 -0.2980  0.6719  0.6890
39198SOL    HW224710  13.008  -0.014  11.448 -0.4429 -2.2876  1.4649
39199SOL     OW24711  11.997  12.840  11.546  0.1943 -0.0348 -0.2016
39199SOL    HW124712  12.024  12.890  11.624  1.1544  0.6551 -0.9470
39199SOL    HW224713  12.061  12.769  11.541 -0.3911 -0.5934  0.1192
39200SOL     OW24714   3.156   2.780  10.517 -0.2956 -0.0945  0.3121
39200SOL    HW124715   3.225   2.721  10.486  0.5003  1.6685 -1.5371
39200SOL    HW224716   3.194   2.868  10.510 -1.2611  0.6911  3.4042
39201SOL     OW24717   5.808   4.767   7.468  0.3781 -0.1371 -0.0439
39201SOL    HW124718   5.722   4.787   7.431  0.1632 -1.0947 -0.0802
39201SOL    HW224719   5.792   4.753   7.561  0.7668  1.3095  0.2578
39202SOL     OW24720  10.765   2.164   4.133  0.6842 -0.3263 -0.0025
39202SOL    HW124721  10.765   2.258   4.152  1.7599 -0.3638  0.2456
39202SOL    HW224722  10.814   2.125   4.206  2.7044 -0.7603 -1.5274
39203SOL     OW24723  10.824   6.310  10.307 -0.3002 -0.4619 -0.3633
39203SOL    HW124724  10.787   6.343  10.389  0.9367  1.6298 -0.5808
39203SOL    HW224725  10.751   6.311  10.245 -0.5135  1.0681 -0.1168
39204SOL     OW24726  12.064   9.574   5.488  0.6731 -0.1889  0.3363
39204SOL    HW124727  12.145   9.621   5.470  0.8666 -0.6519 -0.0129
39204SOL    HW224728  12.004   9.604   5.420  0.5752  0.0825  0.5389
39205SOL     OW24729   1.379  11.739   9.544 -0.4964  0.1592  0.3307
39205SOL    HW124730   1.298  11.788   9.527 -0.6307 -0.6656 -1.5951
39205SOL    HW224731   1.371  11.711   9.635 -3.5134 -1.8688 -0.4270
39206SOL     OW24732   6.434  10.256   7.284  0.2802  0.0977 -0.0908
39206SOL    HW124733   6.387  10.233   7.364  1.2476 -0.0286  0.4687
39206SOL    HW224734   6.420  10.183   7.225  1.7199 -1.0923  0.9581
39207SOL     OW24735   5.152   8.479   0.207  0.2993 -0.3167  0.2334
39207SOL    HW124736   5.080   8.505   0.265  0.1415 -1.2626  0.4692
39207SOL    HW224737   5.112   8.473   0.120  0.5198  1.0274  0.0207
39208SOL     OW24738   5.332   2.956   8.341 -0.2423  0.1185 -0.0043
39208SOL    HW124739   5.350   3.002   8.260  2.0831 -2.3794 -1.0585
39208SOL    HW224740   5.397   2.990   8.403 -1.2543  1.1721  0.5239
39209SOL     OW24741   8.398   6.310   9.204  0.1307  0.3213  0.0570
39209SOL    HW124742   8.428   6.266   9.284 -0.8361 -0.1068  0.1980
39209SOL    HW224743   8.408   6.403   9.223  0.8586  0.2027  0.2923
39210SOL     OW24744  10.981  10.403   0.311  0.9650 -0.0171  0.7434
39210SOL    HW124745  10.938  10.419   0.394 -2.6274  2.4926 -1.3215
39210SOL    HW224746  10.978  10.307   0.300  0.8544 -0.3366  3.0733
39211SOL     OW24747   5.193   0.591   4.287  0.4548 -0.0479  0.0070
39211SOL    HW124748   5.211   0.497   4.280 -0.9707 -0.3746  0.3941
39211SOL    HW224749   5.111   0.596   4.336 -0.5064  1.3016 -1.6189
39212SOL     OW24750   0.875   1.743   3.439  0.4796 -0.1879 -0.9723
39212SOL    HW124751   0.889   1.823   3.389  0.8189 -0.3838 -1.1960
39212SOL    HW224752   0.950   1.688   3.417  1.4909  0.3188  0.9344
39213SOL     OW24753   9.265   5.728  12.835  0.3465  0.2356  0.2822
39213SOL    HW124754   9.333   5.689  12.779  0.0770  0.4865 -0.2343
39213SOL    HW224755   9.231   5.801  12.783 -0.7301 -0.2471  0.2800
39214SOL     OW24756   2.529   3.157   3.131 -0.2938 -0.2072  0.2828
39214SOL    HW124757   2.521   3.252   3.136 -1.6313 -0.3226  0.7012
39214SOL    HW224758   2.541   3.129   3.221 -1.3952 -0.5334  0.3413
39215SOL     OW24759   7.563  11.460   0.924  0.0520  0.4437  0.6714
39215SOL    HW124760   7.542  11.509   0.845  1.1038 -0.1184  0.0142
39215SOL    HW224761   7.509  11.381   0.919 -0.2413  0.6405  0.7576
39216SOL     OW24762   4.785   4.510   2.450  0.5164 -0.2613 -0.0527
39216SOL    HW124763   4.693   4.486   2.461  0.2522  0.7812  0.1385
39216SOL    HW224764   4.829   4.429   2.426 -0.3131 -0.9424  0.6763
39217SOL     OW24765  10.722   7.231  12.593 -0.5053  0.3305  0.1067
39217SOL    HW124766  10.737   7.322  12.567 -0.1433  0.8242  1.8525
39217SOL    HW224767  10.798   7.209  12.647 -1.1299 -0.6227  0.6296
39218SOL     OW24768  11.301   4.364   1.625  0.2150  0.1533  0.4079
39218SOL    HW124769  11.373   4.420   1.596 -0.1886  0.3579 -0.2406
39218SOL    HW224770  11.343   4.286   1.661  0.7760  0.6958  0.9326
39219SOL     OW24771   0.876   3.114  12.405 -0.0974 -0.2438  0.3862
39219SOL    HW124772   0.802   3.060  12.433 -0.0110  0.0243  1.1736
39219SOL    HW224773   0.848   3.153  12.322 -0.7937 -0.2515  0.6097
39220SOL     OW24774   1.533   1.988   2.596 -0.2782 -0.0955 -0.1363
39220SOL    HW124775   1.467   1.946   2.542  0.3330 -2.7731  1.0286
39220SOL    HW224776   1.484   2.035   2.662 -1.0164 -0.3203 -0.5145
39221SOL     OW24777   0.949   8.832   0.615 -0.3074 -0.1710  0.2334
39221SOL    HW124778   0.856   8.832   0.637 -0.7794 -0.4645 -1.5752
39221SOL    HW224779   0.956   8.775   0.538  1.1759  0.7423 -0.3692
39222SOL     OW24780  11.152   7.037   4.277 -0.8091 -0.1952  0.1599
39222SOL    HW124781  11.139   7.088   4.197  0.8168  0.8641  0.5414
39222SOL    HW224782  11.074   6.981   4.282 -1.2528  0.1758 -1.8024
39223SOL     OW24783   1.182   9.222   1.368  0.1840  0.0360 -0.2384
39223SOL    HW124784   1.128   9.157   1.412  1.9266 -0.5484  1.1572
39223SOL    HW224785   1.256   9.173   1.334  1.5542  1.2513  0.8779
39224SOL     OW24786   4.977   5.217   7.407 -0.0085  0.2296 -0.3596
39224SOL    HW124787   4.895   5.249   7.443 -0.1884 -1.3354  0.7327
39224SOL    HW224788   4.963   5.123   7.394  2.1249 -0.4427  1.5316
39225SOL     OW24789   6.106  10.679  12.109 -0.6779  0.2220 -0.4950
39225SOL    HW124790   6.064  10.762  12.085 -2.0625 -0.4662 -0.5425
39225SOL    HW224791   6.149  10.697  12.192 -2.9951  0.4063  0.7608
39226SOL     OW24792   1.844   2.613   2.554  0.1169 -0.0206  0.2291
39226SOL    HW124793   1.888   2.528   2.550  0.0185 -0.0393 -0.7825
39226SOL    HW224794   1.751   2.593   2.545  0.2115  0.2923 -2.1084
39227SOL     OW24795  10.436   9.903   5.695  0.2692  0.1366 -0.0791
39227SOL    HW124796  10.531   9.898   5.694  0.3110  0.7658  0.3616
39227SOL    HW224797  10.415   9.982   5.645 -0.0113  0.1314  0.0263
39228SOL     OW24798   3.517   1.467   8.400 -0.6273 -0.2782  0.1037
39228SOL    HW124799   3.587   1.430   8.454 -0.0531 -1.0606 -1.1321
39228SOL    HW224800   3.551   1.553   8.373 -0.2945 -0.4968 -0.1824
39229SOL     OW24801  11.093  12.546   0.615 -0.2072  0.1145  0.0185
39229SOL    HW124802  11.170  12.598   0.640 -0.7414  1.3494 -0.7986
39229SOL    HW224803  11.079  12.568   0.523 -1.7726  0.2279  0.2547
39230SOL     OW24804   4.467   7.891  11.851 -0.3942 -0.3925 -0.0796
39230SOL    HW124805   4.534   7.878  11.918 -1.3025 -0.7235  0.7991
39230SOL    HW224806   4.386   7.902  11.901 -0.8717  0.8345 -1.0911
39231SOL     OW24807   6.857   5.403  12.124 -0.1722 -0.4239 -0.1992
39231SOL    HW124808   6.807   5.483  12.108  1.2585  0.5515 -0.0400
39231SOL    HW224809   6.936   5.414  12.071  1.3863 -0.3542  2.0044
39232SOL     OW24810   1.165   4.204  10.480  0.0495 -0.1952  0.1369
39232SOL    HW124811   1.251   4.164  10.493  0.1464 -0.3307 -0.8388
39232SOL    HW224812   1.104   4.130  10.480  0.1349 -0.2890 -0.8177
39233SOL     OW24813   2.575   9.343  12.660  0.1787  0.0083  0.4052
39233SOL    HW124814   2.607   9.345  12.750 -0.7180  0.2992  0.7312
39233SOL    HW224815   2.638   9.288  12.613  1.4266  0.9735  0.8928
39234SOL     OW24816  11.375   2.529  11.856 -0.0355  0.4181  0.1628
39234SOL    HW124817  11.318   2.465  11.813  1.1130 -0.3981 -0.1975
39234SOL    HW224818  11.458   2.482  11.869  0.3359  1.3514  1.3035
39235SOL     OW24819  11.175  11.827  11.114 -0.2987 -0.1165  0.3325
39235SOL    HW124820  11.198  11.745  11.157  0.8474 -0.1203 -0.2320
39235SOL    HW224821  11.164  11.889  11.186  1.6321 -0.1112  0.6956
39236SOL     OW24822  11.438   1.497   4.674 -0.4158  0.6823 -0.1417
39236SOL    HW124823  11.515   1.553   4.678  0.3792 -0.3263 -0.8690
39236SOL    HW224824  11.462   1.427   4.613 -1.0644 -0.9333  1.3761
39237SOL     OW24825  12.574   8.332   6.762 -0.2191 -0.0004  0.0859
39237SOL    HW124826  12.531   8.261   6.809  0.6202 -0.2990  0.4189
39237SOL    HW224827  12.560   8.409   6.817  0.4425 -0.2765  0.6631
39238SOL     OW24828   3.635   8.264  12.139  0.1006  0.2366  0.7264
39238SOL    HW124829   3.660   8.351  12.168  2.1533 -1.0426  3.2582
39238SOL    HW224830   3.632   8.270  12.043 -3.1227  3.7719  0.8050
39239SOL     OW24831   3.154  11.116   5.641  0.3332 -0.5746  0.3907
39239SOL    HW124832   3.177  11.124   5.548  0.7357  0.6671  0.5811
39239SOL    HW224833   3.210  11.046   5.674  0.0717 -1.1353 -0.3299
39240SOL     OW24834   6.584   7.976  12.507 -0.1141 -0.2260  0.2419
39240SOL    HW124835   6.550   8.065  12.496  1.1235  0.2115 -0.0946
39240SOL    HW224836   6.595   7.966  12.602 -2.0427 -0.7266  0.4623
39241SOL     OW24837   5.289   7.791  11.387 -0.0744  0.5428 -0.2380
39241SOL    HW124838   5.375   7.832  11.377  0.2173  0.5950  2.0285
39241SOL    HW224839   5.304   7.719  11.448 -1.4455 -0.1645 -0.6981
39242SOL     OW24840   7.636   1.043   7.078  0.6956  0.5499  0.7492
39242SOL    HW124841   7.565   0.995   7.035  1.4120  0.2198 -0.0964
39242SOL    HW224842   7.708   0.980   7.082  2.3699  2.0211 -2.2091
39243SOL     OW24843   4.420   0.094   2.127  0.6907  0.5671  0.3439
39243SOL    HW124844   4.422   0.064   2.036 -0.7208 -2.2004  1.0953
39243SOL    HW224845   4.500   0.058   2.166 -0.6552 -1.8448  1.0753
39244SOL     OW24846   6.000  11.351  10.208 -0.6835 -0.6422  0.8019
39244SOL    HW124847   6.057  11.405  10.153 -1.2757  0.0050  0.8065
39244SOL    HW224848   5.972  11.280  10.150 -0.0209 -0.8706  0.7501
39245SOL     OW24849   6.966   5.023  11.608 -0.2620 -0.8442 -0.0681
39245SOL    HW124850   6.957   4.961  11.681  1.4394 -3.0335 -1.5969
39245SOL    HW224851   7.061   5.038  11.602 -0.5837  1.7119  0.0027
39246SOL     OW24852   7.629  11.013  12.607 -0.0530  0.7673  0.2041
39246SOL    HW124853   7.679  11.085  12.645  0.0717  0.4077  0.7296
39246SOL    HW224854   7.570  10.985  12.677 -0.3395  0.5783 -0.1083
39247SOL     OW24855   3.406  12.782   6.608 -0.1970 -0.4302  0.3950
39247SOL    HW124856   3.400  12.874   6.632 -0.7704 -0.1696 -0.6857
39247SOL    HW224857   3.493  12.755   6.639  0.2133  0.6287  0.2199
39248SOL     OW24858   8.461   5.899  11.231 -0.1111 -0.1153  0.7280
39248SOL    HW124859   8.486   5.981  11.274 -1.8678  1.1569 -0.4969
39248SOL    HW224860   8.367   5.910  11.213  0.1956 -1.1588 -2.0523
39249SOL     OW24861   9.666   9.873   0.480 -0.2737 -0.1702  0.1319
39249SOL    HW124862   9.739   9.810   0.479  0.7095  0.9371 -0.9633
39249SOL    HW224863   9.595   9.828   0.435  1.2159  0.3160 -3.0016
39250SOL     OW24864   2.267   5.887   7.775  0.5594 -0.0701  0.3935
39250SOL    HW124865   2.225   5.943   7.841 -1.9698  0.2978 -1.3978
39250SOL    HW224866   2.303   5.949   7.711  1.0859 -0.4481  0.3246
39251SOL     OW24867   3.597   9.242   6.557 -0.6140  0.3543 -0.2830
39251SOL    HW124868   3.521   9.300   6.554 -1.6341 -0.9775 -1.2226
39251SOL    HW224869   3.565   9.158   6.526  0.6878 -0.9119  1.5754
39252SOL     OW24870   5.471  11.620   7.176  0.1069 -0.5386  0.8391
39252SOL    HW124871   5.473  11.711   7.208 -0.8010 -0.5044  0.8389
39252SOL    HW224872   5.417  11.624   7.097  1.2533 -0.8481  0.0094
39253SOL     OW24873   7.583  11.274   1.711  0.4443  0.3684  0.1711
39253SOL    HW124874   7.605  11.320   1.630  1.8248  0.1350  0.3915
39253SOL    HW224875   7.508  11.219   1.687  0.5680  0.6085 -0.8434
39254SOL     OW24876  12.311   2.829   8.475  0.4795 -0.1326 -0.6923
39254SOL    HW124877  12.340   2.904   8.423  0.5116 -0.1543 -0.7061
39254SOL    HW224878  12.216   2.830   8.469  0.5183 -0.7712 -1.6457
39255SOL     OW24879   5.058   2.862   5.509  0.5355 -0.0910  0.1341
39255SOL    HW124880   5.020   2.775   5.494  0.7649 -0.0264 -0.9509
39255SOL    HW224881   5.131   2.846   5.569  0.3896 -0.6079  0.1790
39256SOL     OW24882   0.371  12.658   9.089 -0.4725  0.2783 -1.0141
39256SOL    HW124883   0.449  12.649   9.143  0.4509  0.3078 -2.2921
39256SOL    HW224884   0.358  12.753   9.082 -3.2128  0.4023  2.6867
39257SOL     OW24885  12.736   0.435   4.135 -0.1563 -0.1673  0.3219
39257SOL    HW124886  12.787   0.504   4.091  0.1576  0.5595  1.7529
39257SOL    HW224887  12.649   0.472   4.145 -0.3544 -0.5184 -0.1235
39258SOL     OW24888  11.746   1.931   2.308 -0.4153  0.5346 -0.0581
39258SOL    HW124889  11.789   1.988   2.244 -1.7114  0.2936 -1.2090
39258SOL    HW224890  11.652   1.947   2.295 -0.9962 -3.2564 -1.9209
39259SOL     OW24891  11.285   4.251   6.553  0.3817 -0.0672  0.7815
39259SOL    HW124892  11.248   4.338   6.571 -0.6936 -0.4551  0.5215
39259SOL    HW224893  11.379   4.265   6.554  0.2345  1.3593 -0.3592
39260SOL     OW24894   0.906   9.370   9.939  0.5457  0.3386  0.1378
39260SOL    HW124895   0.891   9.369  10.033  0.1747  1.2468  0.0978
39260SOL    HW224896   0.953   9.452   9.923  1.1624 -0.1119 -0.3852
39261SOL     OW24897   4.432   0.944   6.001 -0.3715  0.1368 -0.2244
39261SOL    HW124898   4.432   0.849   5.988  0.8004  0.2133 -0.8606
39261SOL    HW224899   4.502   0.977   5.944  1.3892  1.0488  2.2592
39262SOL     OW24900  11.277   1.629   9.906 -0.4504  0.4910 -0.4868
39262SOL    HW124901  11.296   1.719   9.934 -0.6593  0.3406  0.1601
39262SOL    HW224902  11.205   1.637   9.845 -1.9652  0.5944  1.2260
39263SOL     OW24903   3.822  11.816   1.516  0.3430  0.0725 -0.3993
39263SOL    HW124904   3.821  11.724   1.544  1.4488  0.3100  0.4712
39263SOL    HW224905   3.733  11.832   1.485  0.3510 -1.5186 -1.3349
39264SOL     OW24906   5.415   5.715   0.204 -1.1990 -0.3269 -0.3442
39264SOL    HW124907   5.413   5.710   0.109 -2.1866 -1.1145 -0.3032
39264SOL    HW224908   5.360   5.790   0.226  1.0180  1.4206 -0.4435
39265SOL     OW24909  12.458   4.613   1.710  0.5371  1.0873 -0.2961
39265SOL    HW124910  12.469   4.630   1.616  1.5684 -0.1567 -0.4335
39265SOL    HW224911  12.547   4.609   1.744  0.4872 -2.8437 -0.1580
39266SOL     OW24912   8.206   4.073   4.276  0.1196  0.0700  0.1649
39266SOL    HW124913   8.151   4.129   4.333  0.2659 -0.0117  0.3877
39266SOL    HW224914   8.147   4.045   4.207 -0.0061  0.3501  0.1539
39267SOL     OW24915  10.156   9.863   4.687  0.3880 -0.6727  0.7145
39267SOL    HW124916  10.101   9.923   4.738 -1.0431  0.0281 -1.5080
39267SOL    HW224917  10.095   9.820   4.627  2.0475 -1.0895 -0.7456
39268SOL     OW24918   4.133   0.718  11.933  0.2630 -0.2111  0.1168
39268SOL    HW124919   4.193   0.646  11.950  0.2381 -0.2352  0.1022
39268SOL    HW224920   4.189   0.796  11.934  0.4554 -0.3318 -0.8946
39269SOL     OW24921   5.689   2.802   2.576 -0.3165 -0.9965  0.6711
39269SOL    HW124922   5.673   2.708   2.578 -2.0367 -0.7312  1.3148
39269SOL    HW224923   5.618   2.837   2.523  1.1951 -0.1735 -0.9115
39270SOL     OW24924  11.866   9.923   1.157 -0.5202  0.5558  0.3527
39270SOL    HW124925  11.928   9.851   1.146  1.1923  2.0620 -0.1705
39270SOL    HW224926  11.829   9.936   1.070  0.8145  1.7023 -0.0787
39271SOL     OW24927  10.673   4.804   1.806  0.0855 -0.3256 -0.1785
39271SOL    HW124928  10.705   4.796   1.896  0.4532 -1.9218 -0.4149
39271SOL    HW224929  10.700   4.891   1.779  1.0204 -0.2655  0.8689
39272SOL     OW24930   6.475   8.754   4.059  0.1472  0.3723 -0.0495
39272SOL    HW124931   6.523   8.721   4.135 -0.3033  0.3088  0.2121
39272SOL    HW224932   6.392   8.706   4.061  0.3567 -0.0347 -0.9028
39273SOL     OW24933   8.796   5.370   2.019 -0.9243 -0.2019 -0.0973
39273SOL    HW124934   8.846   5.292   1.993  0.0637 -0.4550  2.3235
39273SOL    HW224935   8.714   5.335   2.053 -1.6421  0.0457 -1.4839
39274SOL     OW24936  11.009   5.104  11.761 -0.1532 -0.1020 -0.6478
39274SOL    HW124937  11.014   5.040  11.690 -0.7255 -0.2649 -0.5440
39274SOL    HW224938  10.916   5.129  11.765 -0.0733  0.1241 -0.1484
39275SOL     OW24939   8.778   7.514   9.556 -0.5755  0.1613 -0.2837
39275SOL    HW124940   8.798   7.560   9.637 -1.5233  0.4586 -0.2072
39275SOL    HW224941   8.848   7.539   9.496 -0.2614  0.5091  0.2247
39276SOL     OW24942  11.223   4.344   1.299 -0.0096  0.7242 -0.1893
39276SOL    HW124943  11.279   4.269   1.319 -1.4038  0.0314  1.4074
39276SOL    HW224944  11.187   4.325   1.213  0.8893  0.3799 -0.5064
39277SOL     OW24945  10.432  12.314   2.559  0.6125  0.6740 -0.1294
39277SOL    HW124946  10.513  12.268   2.536  0.3495  0.5403 -0.8134
39277SOL    HW224947  10.428  12.386   2.496 -0.1670  0.2588 -0.5639
39278SOL     OW24948   7.013   1.416   8.344  1.1320  0.3252  0.4361
39278SOL    HW124949   6.981   1.442   8.431 -0.1081 -1.0488  0.4193
39278SOL    HW224950   7.080   1.351   8.362 -0.8080 -1.7972  0.3854
39279SOL     OW24951   5.500   8.042   3.083 -0.0287 -0.7653  0.1116
39279SOL    HW124952   5.546   8.122   3.109  0.0427 -0.0398 -2.0104
39279SOL    HW224953   5.533   7.975   3.142  0.3156  0.6577  1.5952
39280SOL     OW24954  11.433   3.025   1.081 -0.9857  0.2499  0.5617
39280SOL    HW124955  11.456   2.939   1.045  1.2004  1.6847 -1.7993
39280SOL    HW224956  11.341   3.036   1.058 -1.1264 -1.1946  0.3133
39281SOL     OW24957   6.903  12.114   1.827 -0.4321  0.3245 -0.0346
39281SOL    HW124958   6.890  12.055   1.752 -0.3097 -2.5309  2.0018
39281SOL    HW224959   6.815  12.126   1.863 -0.7212  2.9706 -1.4066
39282SOL     OW24960   1.533   5.037  12.871  0.2987  0.4082  0.0041
39282SOL    HW124961   1.623   5.056  12.895 -0.0884  1.4159  0.7079
39282SOL    HW224962   1.482   5.107  12.911 -0.7085  0.3767 -1.1596
39283SOL     OW24963   4.906   3.587   7.620  0.0432 -0.0892 -0.0996
39283SOL    HW124964   4.967   3.658   7.601  0.7469 -0.7976 -0.5942
39283SOL    HW224965   4.894   3.590   7.714  1.7215 -0.5820  0.1741
39284SOL     OW24966   2.229   3.975   4.600 -0.1911  0.4144  0.8843
39284SOL    HW124967   2.235   3.963   4.695 -0.9104  1.4209  1.0696
39284SOL    HW224968   2.139   3.953   4.578  0.3177 -1.1668  0.1975
39285SOL     OW24969   3.714   1.567   4.155  0.4867 -0.1966 -0.1568
39285SOL    HW124970   3.659   1.491   4.175  0.5591 -0.0593  0.6148
39285SOL    HW224971   3.716   1.617   4.237  1.0493  0.2523 -0.4354
39286SOL     OW24972  11.950   7.078   2.136 -0.0089  0.7074 -0.1880
39286SOL    HW124973  11.976   7.138   2.066 -2.1402  0.5313 -1.2192
39286SOL    HW224974  11.992   6.995   2.114 -1.3737  0.3943 -1.8524
39287SOL     OW24975   6.533   2.557   6.903  0.2548 -0.4668 -0.2170
39287SOL    HW124976   6.586   2.488   6.864 -1.8444 -1.5888 -1.2525
39287SOL    HW224977   6.489   2.599   6.829 -2.6806 -1.6739  0.6912
39288SOL     OW24978   7.444   3.991   0.486  0.1322 -0.5090  0.5042
39288SOL    HW124979   7.538   4.001   0.498  0.3051 -0.1359 -0.9055
39288SOL    HW224980   7.408   3.983   0.574  1.2968  1.0827  1.1579
39289SOL     OW24981   1.902   5.670   1.333 -0.1577  0.3846  0.3884
39289SOL    HW124982   1.982   5.676   1.386 -0.6827  0.3575  1.2002
39289SOL    HW224983   1.930   5.626   1.252  0.5936  0.1196  0.7854
39290SOL     OW24984  12.455   7.931   2.882 -0.1134  0.0581  0.0798
39290SOL    HW124985  12.372   7.946   2.928 -1.5281 -1.9132 -1.6389
39290SOL    HW224986  12.520   7.924   2.952 -1.5886  0.4966  1.5598
39291SOL     OW24987   7.799   7.268   9.370 -0.0749  0.2014  0.0745
39291SOL    HW124988   7.746   7.228   9.439 -1.2044  0.7235 -0.4609
39291SOL    HW224989   7.815   7.197   9.308  0.9274 -0.2638  0.8516
39292SOL     OW24990   5.584   4.734   7.913 -0.3540  0.5959 -0.4668
39292SOL    HW124991   5.536   4.816   7.917 -0.5061  0.5345 -0.9798
39292SOL    HW224992   5.521   4.671   7.879 -0.1055  0.3677 -0.5069
39293SOL     OW24993  10.998  11.128   5.937 -0.3980  0.0293  0.1834
39293SOL    HW124994  10.979  11.170   6.021 -0.1041  1.8421 -0.6016
39293SOL    HW224995  10.927  11.065   5.924 -0.6005 -0.0639  1.6373
39294SOL     OW24996   7.565   1.502   5.847 -0.1661 -0.1283  0.0269
39294SOL    HW124997   7.551   1.585   5.801 -0.3077 -0.0063  0.2847
39294SOL    HW224998   7.657   1.481   5.832 -0.3995 -0.4809 -0.9478
39295SOL     OW24999   2.047   2.333  12.476  0.3305 -0.1685 -0.1114
39295SOL    HW125000   2.085   2.369  12.556  1.8921 -0.2990 -0.7770
39295SOL    HW225001   2.029   2.241  12.497  4.4837 -1.4073 -1.0164
39296SOL     OW25002   0.220   5.362  11.323 -0.8348 -0.2596 -0.2320
39296SOL    HW125003   0.174   5.279  11.312 -4.7298  1.7740 -1.4286
39296SOL    HW225004   0.194   5.392  11.410 -0.7428  0.3670 -0.4164
39297SOL     OW25005   8.302   2.988   6.775 -0.0434  0.0953  0.2444
39297SOL    HW125006   8.346   3.022   6.853 -1.3703 -2.8808  2.4553
39297SOL    HW225007   8.254   2.912   6.805  0.2423 -1.9205 -3.7346
39298SOL     OW25008   6.417  11.807  10.667 -0.3290  0.4650 -0.1714
39298SOL    HW125009   6.355  11.801  10.740 -0.9514 -1.2197 -0.7810
39298SOL    HW225010   6.362  11.828  10.591 -0.4859 -2.4392 -0.9931
39299SOL     OW25011   6.340   9.693   3.561  0.2588 -0.3925  0.6054
39299SOL    HW125012   6.315   9.630   3.493  0.0194  2.2422 -1.9312
39299SOL    HW225013   6.257   9.719   3.601 -0.2545  1.5494 -1.5036
39300SOL     OW25014   2.667   7.689   1.561 -0.3663 -0.5299 -0.0355
39300SOL    HW125015   2.683   7.712   1.470 -0.6760 -1.3948 -0.3111
39300SOL    HW225016   2.630   7.769   1.600  0.9350  0.2451 -0.3426
39301SOL     OW25017   1.926   1.322   4.431 -0.0733  0.0451  0.8084
39301SOL    HW125018   1.911   1.397   4.374 -1.9512  1.1227  2.5814
39301SOL    HW225019   2.018   1.329   4.457  0.6039 -0.0263 -1.3651
39302SOL     OW25020   3.291   7.719   7.219 -0.1800  0.1490 -0.3890
39302SOL    HW125021   3.260   7.629   7.226  1.4113 -0.4404 -0.6627
39302SOL    HW225022   3.341   7.722   7.137  1.0423  0.8786  0.3519
39303SOL     OW25023   1.661   6.716   3.681 -0.3239  0.6167 -0.1078
39303SOL    HW125024   1.655   6.744   3.590  1.9455  0.7025 -0.2811
39303SOL    HW225025   1.701   6.790   3.727 -0.4668  0.1738  0.7572
39304SOL     OW25026   4.553   5.315  11.752 -0.0415 -0.2576  0.2104
39304SOL    HW125027   4.529   5.223  11.764 -1.0652 -0.1634 -0.9595
39304SOL    HW225028   4.637   5.312  11.705 -0.2186 -0.6019 -0.0896
39305SOL     OW25029  12.250   4.797   1.546 -0.2052 -0.4015 -0.2441
39305SOL    HW125030  12.234   4.836   1.460 -0.5417 -0.1942 -0.0878
39305SOL    HW225031  12.345   4.808   1.560 -0.2284 -0.0205 -0.3831
39306SOL     OW25032  12.371   9.836   5.783 -0.0591  0.0403  0.0980
39306SOL    HW125033  12.344   9.894   5.712  1.2218 -0.7169 -1.0554
39306SOL    HW225034  12.374   9.892   5.860 -0.4742  1.1106 -0.6396
39307SOL     OW25035   3.195   9.367   7.185 -0.5369  0.0323 -0.0072
39307SOL    HW125036   3.245   9.397   7.261  0.1453  2.6828 -1.4131
39307SOL    HW225037   3.131   9.305   7.222  1.4920 -0.8688  2.3108
39308SOL     OW25038  10.216   5.363  12.510 -0.3716  0.1405 -0.3087
39308SOL    HW125039  10.139   5.316  12.543  0.2749 -0.9223 -0.2440
39308SOL    HW225040  10.222   5.442  12.563 -1.5773  0.3753 -0.5106
39309SOL     OW25041  12.352   4.448   4.464 -0.4062 -0.7060  0.8377
39309SOL    HW125042  12.323   4.520   4.520 -0.2922  0.6848 -0.7913
39309SOL    HW225043  12.391   4.491   4.388 -0.3068 -2.5005 -0.1878
39310SOL     OW25044   0.524  10.773  11.912  0.3036  0.4359  0.5258
39310SOL    HW125045   0.514  10.761  12.007 -1.5010  0.6238  0.3835
39310SOL    HW225046   0.570  10.694  11.883  0.1748  0.0104  1.4331
39311SOL     OW25047   6.595   6.283   3.424  0.2295 -0.1352  0.3390
39311SOL    HW125048   6.624   6.198   3.457 -0.1261  0.0257  1.0696
39311SOL    HW225049   6.617   6.281   3.330 -1.9070 -1.9888 -0.2187
39312SOL     OW25050   3.508   0.471   5.966  0.3506 -0.0860 -0.1690
39312SOL    HW125051   3.534   0.563   5.962 -1.0706  0.3253 -0.4901
39312SOL    HW225052   3.443   0.462   5.897 -0.1431 -1.1335  0.4151
39313SOL     OW25053   8.328   3.990   5.990 -0.3232  0.0243 -0.0206
39313SOL    HW125054   8.238   4.018   6.007  0.2262  1.5068  0.6483
39313SOL    HW225055   8.379   4.071   5.997  1.2624 -1.0287  1.1816
39314SOL     OW25056   9.806  10.268   7.072 -0.1799  0.1410  0.2709
39314SOL    HW125057   9.840  10.311   7.150  1.7631  1.5508 -1.2654
39314SOL    HW225058   9.712  10.287   7.073 -0.5079 -1.1422  2.9681
39315SOL     OW25059   5.237   8.746   2.160  0.2837 -0.1896 -0.3455
39315SOL    HW125060   5.280   8.803   2.224 -0.0397 -0.7188  0.3575
39315SOL    HW225061   5.170   8.700   2.211  0.8768 -1.5655 -0.7831
39316SOL     OW25062  10.630  12.959   7.522  0.0735  0.3114  0.3319
39316SOL    HW125063  10.538  12.939   7.542  0.0893  0.5143  0.6141
39316SOL    HW225064  10.658  12.887   7.465 -0.5765  0.8318 -0.6814
39317SOL     OW25065   7.139   6.226  12.155  0.2303  0.0289  0.9333
39317SOL    HW125066   7.162   6.187  12.239 -0.7671  0.5421  1.4576
39317SOL    HW225067   7.073   6.292  12.176 -0.7402 -0.4957 -0.3574
39318SOL     OW25068   7.247   3.935   9.810 -0.3615  0.6024  0.1106
39318SOL    HW125069   7.178   3.932   9.876 -0.9979 -2.1317 -0.5551
39318SOL    HW225070   7.236   3.854   9.760  1.0271  1.8447 -2.4096
39319SOL     OW25071   9.151   7.766   6.199 -0.1412 -0.6020  0.3867
39319SOL    HW125072   9.154   7.680   6.242 -1.8592 -0.9818 -0.1725
39319SOL    HW225073   9.084   7.757   6.131  0.5613  0.8142 -0.5488
39320SOL     OW25074  11.236   0.180   7.580 -0.4648 -0.2935 -0.0847
39320SOL    HW125075  11.217   0.241   7.508  2.5965  1.5300  0.4874
39320SOL    HW225076  11.233   0.234   7.659  1.7423 -0.9748  0.5170
39321SOL     OW25077   4.610   9.137   0.414 -0.3615 -0.0213  0.0295
39321SOL    HW125078   4.605   9.075   0.486 -2.4058  0.2133  0.1609
39321SOL    HW225079   4.606   9.084   0.335  0.1564 -0.1739  0.1023
39322SOL     OW25080  12.176   4.103  11.779 -0.2898  0.0410  0.2783
39322SOL    HW125081  12.114   4.068  11.714 -0.3217  0.3286  0.1536
39322SOL    HW225082  12.259   4.108  11.732 -0.4346  0.7769  0.0886
39323SOL     OW25083   5.768   4.345  12.642 -0.0362 -0.5009 -0.4898
39323SOL    HW125084   5.701   4.373  12.580  0.1569  1.3506  0.0789
39323SOL    HW225085   5.824   4.286  12.591 -1.1328 -0.7606 -1.4325
39324SOL     OW25086   2.452   4.663  12.375 -0.1056  0.1427 -0.4850
39324SOL    HW125087   2.453   4.746  12.326  0.7179  0.5852  0.2457
39324SOL    HW225088   2.543   4.649  12.399 -0.3964 -0.4431  0.2932
39325SOL     OW25089  10.249   3.856   6.114 -0.0373 -0.1174  0.0498
39325SOL    HW125090  10.308   3.924   6.079  1.9235 -1.2215  1.0341
39325SOL    HW225091  10.259   3.782   6.054  1.0981 -0.9788  1.2347
39326SOL     OW25092   0.414  12.888   3.864 -0.7618 -0.0230 -0.0717
39326SOL    HW125093   0.344  12.948   3.891  0.0639  0.2769  1.5335
39326SOL    HW225094   0.402  12.879   3.769 -1.4964  1.9393 -0.2219
39327SOL     OW25095  12.668   6.898   8.942 -0.3584 -0.4524  0.1642
39327SOL    HW125096  12.737   6.885   9.008 -0.8539 -0.6700  0.6537
39327SOL    HW225097  12.594   6.848   8.976 -0.8901  0.1158 -0.1493
39328SOL     OW25098  12.245   1.352  11.870  0.3594 -0.0560  0.3995
39328SOL    HW125099  12.310   1.420  11.855 -0.3157  0.5842  0.3233
39328SOL    HW225100  12.162   1.399  11.880 -0.5042 -0.9905 -1.8656
39329SOL     OW25101   6.250   9.607   0.217  0.1984 -0.0817 -0.0233
39329SOL    HW125102   6.287   9.695   0.228 -0.0721 -0.0980  1.1836
39329SOL    HW225103   6.307   9.564   0.153  2.5266 -0.2306  2.0216
39330SOL     OW25104   8.178   5.070   4.055 -0.0862  0.0444 -0.4437
39330SOL    HW125105   8.127   4.992   4.079  0.4134  0.0031  0.5586
39330SOL    HW225106   8.117   5.125   4.007 -0.7739 -0.4742 -0.1836
39331SOL     OW25107   3.272   6.111   2.732  0.3447  0.9981  0.1968
39331SOL    HW125108   3.277   6.203   2.756  0.0145  0.5557  2.1040
39331SOL    HW225109   3.189   6.081   2.769  1.2412 -0.4509  1.1583
39332SOL     OW25110   6.655   6.364  10.344 -0.0657  0.3710  0.4305
39332SOL    HW125111   6.668   6.432  10.411 -0.3277 -0.1660  1.0382
39332SOL    HW225112   6.691   6.285  10.383 -1.1652 -0.1806  0.3704
39333SOL     OW25113   9.778   3.286   7.327  0.1020  0.3145 -0.0937
39333SOL    HW125114   9.830   3.312   7.251 -1.1507 -0.4003 -1.2356
39333SOL    HW225115   9.840   3.287   7.400  1.4169  0.6818 -1.1782
39334SOL     OW25116  11.129   6.202   8.719 -0.0940 -0.2191 -0.1299
39334SOL    HW125117  11.056   6.262   8.731  0.1807 -0.0131  0.5496
39334SOL    HW225118  11.192   6.251   8.666 -0.0233 -0.0354  0.1224
39335SOL     OW25119   0.612   5.001  11.546  0.4106 -0.0755  0.5038
39335SOL    HW125120   0.625   5.060  11.471  0.4944  1.8625  1.9436
39335SOL    HW225121   0.518   4.986  11.548  0.3785  0.0589  0.1496
39336SOL     OW25122   4.845   4.347  10.976 -0.1605 -0.6445 -0.1277
39336SOL    HW125123   4.790   4.337  10.898 -1.2779  0.4653  0.4804
39336SOL    HW225124   4.910   4.412  10.951  0.0827 -0.9958 -0.4278
39337SOL     OW25125   5.647   1.009   1.772 -0.5983  0.7887  0.0681
39337SOL    HW125126   5.735   0.973   1.762 -0.5582  1.1809 -1.1807
39337SOL    HW225127   5.592   0.933   1.794 -0.2278  0.2553 -0.8117
39338SOL     OW25128   7.137   4.167   1.943 -0.3180  0.3635 -0.6923
39338SOL    HW125129   7.078   4.153   1.869  1.3461 -0.5623 -1.9287
39338SOL    HW225130   7.082   4.158   2.020 -2.9199  4.7437 -1.6560
39339SOL     OW25131   2.624   5.406   5.939  0.2836  0.4469 -0.2135
39339SOL    HW125132   2.577   5.475   5.893 -0.3658  1.5348  1.9842
39339SOL    HW225133   2.710   5.404   5.897 -0.0864  1.7699 -1.0862
39340SOL     OW25134   9.725   0.678   8.810 -0.2597 -0.1672  0.4885
39340SOL    HW125135   9.707   0.695   8.717  0.5272 -0.2736  0.3090
39340SOL    HW225136   9.818   0.654   8.812 -0.5738 -1.3967  1.1363
39341SOL     OW25137  11.679   7.765  11.306 -0.4577  0.2373  0.4097
39341SOL    HW125138  11.665   7.679  11.347 -0.9223  1.1276  2.1881
39341SOL    HW225139  11.634   7.759  11.222  0.6572 -1.7056 -0.1141
39342SOL     OW25140   0.349   3.784   2.701 -0.5512  0.3272  0.2287
39342SOL    HW125141   0.268   3.802   2.747 -0.6877  0.6209 -0.1192
39342SOL    HW225142   0.416   3.833   2.750 -0.6638  0.4858  0.2250
39343SOL     OW25143   3.464   9.326   8.114  0.1529  0.0367 -0.1359
39343SOL    HW125144   3.465   9.246   8.061 -1.2667 -0.3469  0.3555
39343SOL    HW225145   3.482   9.296   8.203 -0.8432  0.1771  0.1253
39344SOL     OW25146   8.846   0.612   5.515  0.0765  0.3930 -0.2752
39344SOL    HW125147   8.877   0.545   5.454  0.5074  0.0944  0.2598
39344SOL    HW225148   8.831   0.689   5.461 -1.2890 -0.3780 -1.0666
39345SOL     OW25149  10.256   8.635   6.962  0.4980 -1.0133 -0.9979
39345SOL    HW125150  10.310   8.695   6.911  0.5165 -0.6076 -0.5068
39345SOL    HW225151  10.285   8.648   7.052  0.1350 -1.3809 -0.8260
39346SOL     OW25152   7.608   8.023   5.005  0.6706  0.3657  0.0787
39346SOL    HW125153   7.567   7.945   4.969 -0.4015  0.3438  1.2883
39346SOL    HW225154   7.659   7.992   5.080 -1.0252  0.9675  1.5444
39347SOL     OW25155  10.514  10.000  11.157 -0.2567 -0.1589 -0.0623
39347SOL    HW125156  10.565   9.923  11.183 -1.4948 -1.0030 -0.0219
39347SOL    HW225157  10.578  10.060  11.119  0.7804 -1.0846  0.1720
39348SOL     OW25158   9.279   6.969   6.840  0.1210 -0.1977 -0.4758
39348SOL    HW125159   9.310   6.893   6.890 -0.1644  0.6280  1.0160
39348SOL    HW225160   9.358   7.005   6.800  0.5739 -0.1136  0.4675
39349SOL     OW25161   2.502   1.672   5.715  0.4177 -0.0489 -0.0285
39349SOL    HW125162   2.531   1.581   5.717  2.0603  0.4074 -0.8731
39349SOL    HW225163   2.562   1.718   5.773 -2.4010  0.0857  3.0802
39350SOL     OW25164   7.154   0.380  12.700 -0.4746  0.2670 -0.4093
39350SOL    HW125165   7.144   0.384  12.795  1.8520 -0.7126 -0.0686
39350SOL    HW225166   7.071   0.345  12.668 -0.7968 -0.7137  1.4057
39351SOL     OW25167  12.576  12.443   0.237  0.1794 -0.2716 -0.7117
39351SOL    HW125168  12.574  12.383   0.162  0.5899 -1.1017 -0.0881
39351SOL    HW225169  12.632  12.398   0.301 -0.7620  0.0617  0.3753
39352SOL     OW25170   5.108  11.469   6.457 -0.1835 -0.1146 -0.4455
39352SOL    HW125171   5.034  11.494   6.513  0.6623  2.5258 -0.4154
39352SOL    HW225172   5.087  11.507   6.371  1.6591  1.8016 -0.1158
39353SOL     OW25173   2.975   7.462   2.218 -0.0196 -0.0442  0.0741
39353SOL    HW125174   2.881   7.481   2.210  0.1256 -0.0077 -2.3514
39353SOL    HW225175   2.980   7.367   2.220 -0.0604 -0.1582 -2.2395
39354SOL     OW25176  10.574   8.060   3.491 -0.2266 -0.2747  0.3360
39354SOL    HW125177  10.559   8.069   3.397 -0.8543  3.4673  0.6497
39354SOL    HW225178  10.665   8.030   3.498 -0.2717 -0.9506 -1.4223
39355SOL     OW25179   7.293   8.115  11.261  0.5309  0.2151  0.3620
39355SOL    HW125180   7.202   8.108  11.289  0.1503  1.2285 -0.5723
39355SOL    HW225181   7.343   8.069  11.329 -0.8235 -2.1305 -0.1123
39356SOL     OW25182   2.042   9.342   4.187 -0.3686  0.0400 -0.2696
39356SOL    HW125183   1.981   9.411   4.210 -0.0651  0.4473 -0.6581
39356SOL    HW225184   2.051   9.289   4.266  1.2343  1.8351  0.8206
39357SOL     OW25185  12.511   9.882   6.236 -0.5556  0.2397  0.1419
39357SOL    HW125186  12.518   9.786   6.234  1.6531  0.3601  0.1904
39357SOL    HW225187  12.574   9.912   6.171 -0.0483  1.7107  1.2682
39358SOL     OW25188   1.088   7.238  11.880  0.0453 -0.2654 -0.2897
39358SOL    HW125189   1.127   7.185  11.811 -1.4388 -0.5859 -0.9382
39358SOL    HW225190   1.081   7.326  11.843 -0.6830 -0.4202 -0.5369
39359SOL     OW25191   1.357  11.050  11.644 -0.4594  0.4212  0.3618
39359SOL    HW125192   1.442  11.061  11.687 -0.1981  2.3167 -0.5182
39359SOL    HW225193   1.302  11.008  11.709  1.2664 -1.3398  0.7868
39360SOL     OW25194   5.372   4.925   6.157  0.1990  0.3911  0.4480
39360SOL    HW125195   5.464   4.925   6.131  0.7594 -1.6632  2.1189
39360SOL    HW225196   5.367   4.991   6.227 -0.2391  2.3221 -1.2839
39361SOL     OW25197   7.904   6.093  11.248  0.0132 -0.4745  0.0905
39361SOL    HW125198   7.847   6.034  11.297 -0.1275 -0.1955  0.2624
39361SOL    HW225199   7.854   6.116  11.170  1.0917 -2.7279 -1.3916
39362SOL     OW25200   3.227   6.472   4.281 -0.7899 -0.0960  0.0811
39362SOL    HW125201   3.136   6.500   4.271 -0.2765  1.7255  0.1791
39362SOL    HW225202   3.272   6.510   4.205 -0.0051 -0.5273  0.3213
39363SOL     OW25203   4.615   2.526  11.580 -0.1286  0.3791 -0.2051
39363SOL    HW125204   4.576   2.565  11.658 -0.1132  3.6929 -1.6596
39363SOL    HW225205   4.545   2.474  11.541  0.0997 -2.0305  2.2926
39364SOL     OW25206   7.585   3.921   9.181 -0.0684 -0.6401  0.2956
39364SOL    HW125207   7.519   3.987   9.163  1.3757  0.4810 -1.1347
39364SOL    HW225208   7.563   3.848   9.124 -0.6772 -0.7266  0.6306
39365SOL     OW25209   3.842   2.178   2.670 -0.4956 -0.0372  0.5648
39365SOL    HW125210   3.780   2.106   2.675 -0.3991 -0.2239 -0.6784
39365SOL    HW225211   3.814   2.229   2.594 -0.1851  0.8792  1.0524
39366SOL     OW25212  11.312  12.651   3.722 -0.2945  0.3225 -0.5859
39366SOL    HW125213  11.235  12.708   3.711  0.7139  1.5345 -1.7824
39366SOL    HW225214  11.283  12.566   3.691 -1.0812  0.8377 -1.3282
39367SOL     OW25215  10.030   0.529   8.351 -0.2980 -0.0204 -0.0788
39367SOL    HW125216   9.936   0.523   8.366 -0.4754  2.0185 -0.2016
39367SOL    HW225217  10.069   0.482   8.425 -1.3839 -1.2458 -0.2514
39368SOL     OW25218   5.791   4.098   8.676  0.1608  0.3979  0.0369
39368SOL    HW125219   5.854   4.164   8.647 -1.5352  1.9915 -0.1508
39368SOL    HW225220   5.718   4.148   8.713 -0.7031 -1.4086  0.9084
39369SOL     OW25221   4.325  12.040   5.555 -0.3224 -0.1371  0.5238
39369SOL    HW125222   4.299  11.953   5.525 -1.6553  0.3401  0.2472
39369SOL    HW225223   4.245  12.079   5.590  0.1523  1.1276  0.2624
39370SOL     OW25224   5.551   2.184   0.005 -0.0379  0.9431  0.7434
39370SOL    HW125225   5.608   2.112   0.032  0.5839  1.0448 -0.2600
39370SOL    HW225226   5.543   2.239   0.084  0.9931  0.7596  0.9915
39371SOL     OW25227   5.764   0.366   2.021 -0.2172  0.2117  0.3514
39371SOL    HW125228   5.737   0.364   1.930 -1.4453  0.4916  0.6897
39371SOL    HW225229   5.765   0.459   2.045  0.5045  0.1706  0.5179
39372SOL     OW25230   1.596   3.686  12.038  0.3709  1.1661 -0.4096
39372SOL    HW125231   1.559   3.606  12.077 -0.9820  2.0414  0.1696
39372SOL    HW225232   1.648   3.724  12.108 -1.3453  2.2757  0.3307
39373SOL     OW25233   8.053   6.673   2.551  0.4163  0.0740 -0.1815
39373SOL    HW125234   8.075   6.623   2.630 -0.3066 -0.9149 -0.5802
39373SOL    HW225235   8.078   6.615   2.479 -1.5475 -0.2578 -0.6540
39374SOL     OW25236  12.656   1.693   5.802 -0.0656  0.0177 -0.0130
39374SOL    HW125237  12.665   1.607   5.760 -0.0310 -1.5466  2.9173
39374SOL    HW225238  12.702   1.753   5.744  0.4708 -2.0379 -1.8665
39375SOL     OW25239   1.278   9.378   5.752  0.1560  0.1364 -0.4394
39375SOL    HW125240   1.259   9.367   5.846 -0.2740  2.0696 -0.2455
39375SOL    HW225241   1.203   9.427   5.719  0.7213  0.2342 -1.6182
39376SOL     OW25242   8.866   3.582   6.566 -0.3703  0.3480 -0.0053
39376SOL    HW125243   8.905   3.604   6.482  0.1161  0.4815  0.2528
39376SOL    HW225244   8.829   3.664   6.598 -0.9952  0.1915 -0.3150
39377SOL     OW25245   7.445  10.156   1.544  0.1224  0.3367 -0.3099
39377SOL    HW125246   7.372  10.095   1.534  0.4124 -0.3939  1.6352
39377SOL    HW225247   7.404  10.238   1.572  0.0254 -0.0745  0.7882
39378SOL     OW25248   0.697   2.693   3.369  0.1817 -0.0244  0.2466
39378SOL    HW125249   0.777   2.661   3.326  0.3383 -0.8943  1.1511
39378SOL    HW225250   0.627   2.645   3.326  0.2119  0.1736 -0.0253
39379SOL     OW25251   4.532   1.143   3.184  0.3153 -0.1602  0.2578
39379SOL    HW125252   4.501   1.086   3.113 -0.5313  0.9167 -0.2656
39379SOL    HW225253   4.582   1.084   3.241  2.9532 -0.7081 -2.3279
39380SOL     OW25254  12.374   1.441   0.960 -0.2284 -0.0307  0.2941
39380SOL    HW125255  12.370   1.346   0.952 -1.8329 -0.0265  0.7126
39380SOL    HW225256  12.288   1.466   0.993  0.1274  1.5841  0.0877
39381SOL     OW25257   3.300  10.837   9.151  0.0911  0.1497 -0.2653
39381SOL    HW125258   3.237  10.879   9.209 -0.7416  0.9022 -1.6649
39381SOL    HW225259   3.381  10.885   9.164 -0.2577  0.7205 -0.1922
39382SOL     OW25260   9.394   2.477   9.544 -0.1626 -0.0499 -0.3897
39382SOL    HW125261   9.326   2.537   9.512 -0.4007  0.3048  0.7347
39382SOL    HW225262   9.406   2.501   9.636  0.0246 -1.4671 -0.0193
39383SOL     OW25263   1.000   2.364   0.761 -0.7132  0.1278  0.0015
39383SOL    HW125264   0.987   2.272   0.738 -1.6461  0.1828  0.2757
39383SOL    HW225265   1.010   2.409   0.677 -0.3399 -0.2037 -0.1358
39384SOL     OW25266   9.729   0.056   5.738 -0.6506 -0.4233  0.1792
39384SOL    HW125267   9.820   0.060   5.708 -0.4810  0.3996  0.7638
39384SOL    HW225268   9.735   0.054   5.834 -1.2431  2.2930  0.3727
39385SOL     OW25269  12.744   1.458   3.884 -0.6168 -0.2447  0.5782
39385SOL    HW125270  12.662   1.506   3.895 -0.7555 -0.5061  0.6938
39385SOL    HW225271  12.757   1.412   3.968 -0.1626  0.0874  0.6955
39386SOL     OW25272   7.047   2.577  11.883 -0.3695 -0.2888  0.2431
39386SOL    HW125273   7.137   2.570  11.850 -0.6626  0.9636 -0.8950
39386SOL    HW225274   7.048   2.529  11.965  1.9853  1.7295  1.5322
39387SOL     OW25275  10.022   5.162   3.264  0.3065  0.4135  0.3902
39387SOL    HW125276  10.097   5.181   3.208  0.8586  1.2781  1.3865
39387SOL    HW225277  10.036   5.072   3.293  0.6580  0.3769  0.1116
39388SOL     OW25278   4.038   9.452  10.630  0.3298  0.1386 -0.1109
39388SOL    HW125279   4.130   9.427  10.638  0.6540  1.3220  0.1491
39388SOL    HW225280   4.040   9.548  10.621 -0.8843  0.2046  0.1144
39389SOL     OW25281  10.317   8.011   6.022 -0.8390 -0.7050  0.1254
39389SOL    HW125282  10.269   8.078   5.972 -0.3794  0.1669  0.8231
39389SOL    HW225283  10.301   8.034   6.113 -1.5111 -2.1696  0.3962
39390SOL     OW25284  10.477   5.304   5.088 -0.8391  0.0776 -0.5090
39390SOL    HW125285  10.402   5.247   5.074  0.3272 -1.2546 -1.7957
39390SOL    HW225286  10.520   5.269   5.166 -0.8705  0.0394 -0.5088
39391SOL     OW25287   9.485  11.893  10.073  0.6464 -0.5889  0.1562
39391SOL    HW125288   9.484  11.938   9.988  0.3640  1.5017  1.2016
39391SOL    HW225289   9.576  11.865  10.085  0.7976 -0.4368 -0.5980
39392SOL     OW25290  11.222   7.661   1.453 -0.1496  0.4620  0.3484
39392SOL    HW125291  11.136   7.648   1.413  0.1144 -0.3412  0.0353
39392SOL    HW225292  11.284   7.659   1.379  0.2228  0.1495  0.6624
39393SOL     OW25293   4.960  11.290   3.783 -0.3396  0.2176 -0.3437
39393SOL    HW125294   4.934  11.249   3.700 -0.2704  0.7892 -0.6511
39393SOL    HW225295   5.026  11.355   3.758 -1.3912  1.4400 -0.0380
39394SOL     OW25296   8.475   4.160   5.433  0.6093 -0.3435 -0.4009
39394SOL    HW125297   8.380   4.168   5.445  0.0915 -2.4564 -2.4660
39394SOL    HW225298   8.498   4.077   5.475  1.4330 -0.1841 -0.5264
39395SOL     OW25299   2.919   6.105   3.049  0.0094 -0.0477 -0.1965
39395SOL    HW125300   2.843   6.133   2.998 -0.5696 -1.2052 -0.0059
39395SOL    HW225301   2.888   6.105   3.140  1.1967  2.5898  0.3259
39396SOL     OW25302   1.971   8.843   2.245  0.2563 -0.0009 -0.5979
39396SOL    HW125303   1.943   8.932   2.264 -0.2661 -0.1974 -0.4347
39396SOL    HW225304   1.956   8.832   2.151 -0.3627 -0.1589 -0.4801
39397SOL     OW25305  10.578   5.271   3.291  0.7427  0.1060 -0.2435
39397SOL    HW125306  10.546   5.288   3.203 -2.5648 -1.8792  0.3958
39397SOL    HW225307  10.577   5.356   3.335 -3.2593  0.3956 -0.5561
39398SOL     OW25308   5.837   5.546   4.680 -0.0748  0.1004  0.8718
39398SOL    HW125309   5.828   5.533   4.586  1.6772  0.2547  0.6519
39398SOL    HW225310   5.748   5.558   4.711 -0.5971  1.3412 -0.9548
39399SOL     OW25311  10.504   7.150   2.323  0.2588 -0.3375 -0.0916
39399SOL    HW125312  10.595   7.175   2.309  0.1935  0.8144  1.2883
39399SOL    HW225313  10.453   7.205   2.263  0.0608  3.6705  3.3122
39400SOL     OW25314   2.929   8.432   7.770 -0.0520 -0.5074  0.1775
39400SOL    HW125315   3.022   8.452   7.756 -0.0132 -0.3458  0.6595
39400SOL    HW225316   2.899   8.499   7.832 -0.5149 -0.5010 -0.0477
39401SOL     OW25317   1.963   0.578   9.566 -0.1801 -0.5155 -0.2119
39401SOL    HW125318   1.955   0.546   9.655 -2.8465 -0.5826 -0.3990
39401SOL    HW225319   1.914   0.515   9.513 -1.5258  1.2633 -1.2129
39402SOL     OW25320  12.801   6.677   3.039  0.1453 -0.7594  0.0446
39402SOL    HW125321  12.845   6.659   2.956  0.7032  0.7159  0.0016
39402SOL    HW225322  12.867   6.719   3.094 -0.2500 -1.6040  1.2162
39403SOL     OW25323   9.107  10.848   0.223  0.3620 -0.1206  0.2346
39403SOL    HW125324   9.144  10.762   0.243  1.9685  0.7240  1.0379
39403SOL    HW225325   9.058  10.871   0.302  1.5151  0.5018  0.7890
39404SOL     OW25326   2.176   1.100   7.625 -0.1027 -0.3336  0.3004
39404SOL    HW125327   2.098   1.049   7.602 -1.3216  1.6395 -0.2557
39404SOL    HW225328   2.236   1.086   7.552 -0.4972 -0.7937  0.0587
39405SOL     OW25329   6.508  11.312   2.242 -0.5584  0.0605  0.0613
39405SOL    HW125330   6.603  11.324   2.241 -0.6612  0.8720 -0.5894
39405SOL    HW225331   6.493  11.249   2.313  0.2901  1.3596  1.4668
39406SOL     OW25332   4.242   8.811   2.466  0.3615  0.3113 -0.0261
39406SOL    HW125333   4.228   8.901   2.437  0.6417  0.1538 -0.6630
39406SOL    HW225334   4.313   8.817   2.530 -0.8752  0.7812  1.3768
39407SOL     OW25335   6.026   5.334  10.833 -0.0998 -0.3810 -0.2721
39407SOL    HW125336   6.005   5.300  10.920  0.5848  2.8751  1.3211
39407SOL    HW225337   6.110   5.294  10.811  0.8631  0.4562  1.6714
39408SOL     OW25338   2.078   1.886   1.566 -0.0751  0.0568 -0.1221
39408SOL    HW125339   2.092   1.981   1.562  1.1048 -0.0560  0.8935
39408SOL    HW225340   2.059   1.869   1.659  0.8561 -0.8390 -0.0822
39409SOL     OW25341   7.214  11.140   8.948 -0.8364 -0.0527 -0.5748
39409SOL    HW125342   7.185  11.191   9.024  1.0189  5.1734 -2.8863
39409SOL    HW225343   7.135  11.131   8.894 -0.9207  2.2527 -0.9301
39410SOL     OW25344   7.025   1.699   5.299  0.0008  0.0018  0.5418
39410SOL    HW125345   7.078   1.674   5.375  0.4976  0.6067  0.4125
39410SOL    HW225346   7.073   1.663   5.224  0.5553  1.0373  0.3801
39411SOL     OW25347   5.180  10.827   4.418  0.2688  0.7269  1.3229
39411SOL    HW125348   5.245  10.895   4.436  0.8149  1.0885 -1.6392
39411SOL    HW225349   5.230  10.746   4.419  0.6018  0.9037  0.0139
39412SOL     OW25350   2.907   3.306   2.795  0.2549 -0.1077  0.0537
39412SOL    HW125351   2.880   3.363   2.723 -0.9319  1.2022  1.4651
39412SOL    HW225352   2.919   3.220   2.754 -1.1350  0.4205 -1.5806
39413SOL     OW25353   8.631   2.824   1.540 -0.0718 -0.7534 -0.1860
39413SOL    HW125354   8.568   2.767   1.495 -0.4002 -1.2842  0.8895
39413SOL    HW225355   8.649   2.778   1.622  0.0743  0.4342  0.4691
39414SOL     OW25356  11.690   4.206  10.141  0.1956  0.3179  0.1459
39414SOL    HW125357  11.719   4.153  10.067 -0.8406  0.3028 -0.2644
39414SOL    HW225358  11.640   4.277  10.101 -1.9194 -0.6702  0.8877
39415SOL     OW25359   0.205  11.410   4.610 -0.1414 -0.1364 -0.1885
39415SOL    HW125360   0.227  11.346   4.542 -0.5682 -0.6842  0.1775
39415SOL    HW225361   0.141  11.468   4.569 -0.3547 -0.4301 -0.2726
39416SOL     OW25362   0.388  11.257   9.619  0.8267 -0.0463  0.1398
39416SOL    HW125363   0.451  11.185   9.614  1.7473  0.7217  0.4159
39416SOL    HW225364   0.405  11.298   9.704 -1.3770 -0.9995  1.1290
39417SOL     OW25365   3.021   7.920   7.337 -0.1488  0.6708 -0.8128
39417SOL    HW125366   3.019   8.014   7.318  3.1322  1.3652  1.4866
39417SOL    HW225367   3.089   7.885   7.280 -0.2371  0.0004 -0.5185
39418SOL     OW25368   0.363   5.131  12.593  0.8297  0.4762  0.0629
39418SOL    HW125369   0.440   5.078  12.615  1.7746  1.1563 -1.4154
39418SOL    HW225370   0.371   5.146  12.498 -1.8089 -0.4601 -0.3709
39419SOL     OW25371   8.948   4.811   6.849  0.5737 -0.0041 -0.2609
39419SOL    HW125372   8.952   4.798   6.944  1.2484 -0.2083 -0.3112
39419SOL    HW225373   9.023   4.761   6.815 -0.3317 -0.8907 -1.0061
39420SOL     OW25374  10.500  10.551  10.859 -0.7473 -0.2513  0.1651
39420SOL    HW125375  10.486  10.611  10.785 -3.3395 -0.9963 -0.0402
39420SOL    HW225376  10.546  10.477  10.820  0.5065  0.5934 -0.0372
39421SOL     OW25377  10.901  11.827   4.675 -0.2066 -0.1046 -0.3245
39421SOL    HW125378  10.935  11.855   4.590 -0.9242  2.1292  0.0695
39421SOL    HW225379  10.977  11.829   4.733  0.3813 -2.0599 -0.9316
39422SOL     OW25380   5.368   3.956   6.808 -0.7289  0.5970 -0.1265
39422SOL    HW125381   5.302   3.943   6.739 -1.7027 -0.4611  0.9576
39422SOL    HW225382   5.424   3.879   6.802 -1.3379  0.0618  0.7900
39423SOL     OW25383  11.296   5.781  11.292 -0.4483  0.7646 -0.0556
39423SOL    HW125384  11.201   5.788  11.297 -0.7763 -2.4145  0.5108
39423SOL    HW225385  11.317   5.792  11.200 -1.1512  2.7519 -0.0229
39424SOL     OW25386   6.239  11.458   7.496  0.0430  0.9462 -0.3387
39424SOL    HW125387   6.207  11.370   7.478 -1.0598  1.3762 -0.5600
39424SOL    HW225388   6.318  11.466   7.444  1.4529 -0.7017  1.4176
39425SOL     OW25389   7.511   0.815   3.315  0.1341 -0.2599 -0.1120
39425SOL    HW125390   7.568   0.749   3.276 -0.8985 -1.1271 -0.2171
39425SOL    HW225391   7.494   0.877   3.244  1.2541  0.2307  0.0375
39426SOL     OW25392   9.992   0.168   2.386 -0.3305 -0.2681 -0.5560
39426SOL    HW125393   9.997   0.202   2.297  3.2611 -1.4340 -0.9529
39426SOL    HW225394  10.030   0.238   2.440 -0.5590 -0.4080 -0.2122
39427SOL     OW25395  10.870   4.508   7.555  0.2758  0.6329 -0.2529
39427SOL    HW125396  10.864   4.424   7.600 -1.7974  1.1436  0.5434
39427SOL    HW225397  10.947   4.500   7.499 -0.0072 -1.8776 -0.3870
39428SOL     OW25398  11.876   6.889   7.527 -0.5488  0.5049 -0.2910
39428SOL    HW125399  11.950   6.841   7.489 -0.8286  0.8210 -1.2620
39428SOL    HW225400  11.906   6.914   7.615  0.6695  1.0103 -0.8322
39429SOL     OW25401   3.220   2.089  12.771 -1.0457 -0.6171  0.0329
39429SOL    HW125402   3.274   2.119  12.699  0.1304 -1.0405  0.7151
39429SOL    HW225403   3.250   2.140  12.847 -1.2130 -1.2456  0.5326
39430SOL     OW25404  10.482   8.413   5.174  0.3171  0.5060 -0.3429
39430SOL    HW125405  10.452   8.345   5.114 -0.6721  0.4260  0.2199
39430SOL    HW225406  10.472   8.375   5.261  0.9729  0.9075 -0.0835
39431SOL     OW25407   8.419   8.633   7.509  0.0348  0.3545  0.1189
39431SOL    HW125408   8.374   8.715   7.489  1.3236  0.8003 -1.1583
39431SOL    HW225409   8.389   8.609   7.596 -0.3335  2.2069  0.5292
39432SOL     OW25410   9.221   9.549   6.702  0.4230  0.0706  0.1091
39432SOL    HW125411   9.215   9.640   6.732 -2.1631  0.3580 -0.9789
39432SOL    HW225412   9.180   9.550   6.615  2.0595 -1.8249 -0.7874
39433SOL     OW25413   9.301   7.781  12.605  0.0964  0.1220 -0.3230
39433SOL    HW125414   9.263   7.869  12.605  0.2527  0.1987  0.4243
39433SOL    HW225415   9.321   7.764  12.513 -1.8251  0.0254 -0.7557
39434SOL     OW25416   8.942   0.568   6.880 -0.3150 -0.0530 -0.4303
39434SOL    HW125417   9.020   0.622   6.886  0.5179 -1.3722  2.1683
39434SOL    HW225418   8.871   0.629   6.860  0.9661  1.5989 -0.0928
39435SOL     OW25419  10.175   3.036   4.522 -0.3177  0.0451  0.4502
39435SOL    HW125420  10.154   3.049   4.430  1.4741  0.3600  0.0509
39435SOL    HW225421  10.123   3.103   4.568 -0.2313  0.7546 -0.4583
39436SOL     OW25422  11.796   4.253   1.622 -0.0164 -0.0407 -0.1882
39436SOL    HW125423  11.851   4.203   1.682  0.0575  3.2611  2.8116
39436SOL    HW225424  11.858   4.302   1.568 -0.0863 -0.7710 -0.9514
39437SOL     OW25425   8.976   6.727   3.403 -0.1541  0.9039 -0.1545
39437SOL    HW125426   8.983   6.670   3.327 -0.5206  1.5312 -0.6682
39437SOL    HW225427   9.058   6.776   3.404 -0.9507  2.3315 -1.3378
39438SOL     OW25428   1.487   5.053  12.009 -0.6448  0.2543  0.0570
39438SOL    HW125429   1.431   5.125  11.980 -1.2824  0.3168  1.3682
39438SOL    HW225430   1.500   5.069  12.102 -0.6640 -1.2353  0.3369
39439SOL     OW25431   1.296   4.504   3.578 -0.0368 -0.1763 -0.0931
39439SOL    HW125432   1.355   4.546   3.516 -0.7671  1.3438  0.1981
39439SOL    HW225433   1.334   4.417   3.593  0.9914  0.0141 -1.4528
39440SOL     OW25434  11.884   6.298   7.002 -0.2799 -0.3617 -0.3592
39440SOL    HW125435  11.867   6.225   7.061  0.2957 -0.0990  0.1389
39440SOL    HW225436  11.806   6.302   6.946 -0.9333 -0.4733  0.5215
39441SOL     OW25437   8.810   3.239   3.756 -0.2072 -0.3399 -0.1859
39441SOL    HW125438   8.851   3.244   3.670 -0.2879  0.1314 -0.1970
39441SOL    HW225439   8.725   3.197   3.740 -2.0934  3.4043 -1.0351
39442SOL     OW25440  12.403   1.623   8.601 -0.1253 -0.0894  0.4103
39442SOL    HW125441  12.423   1.603   8.693 -0.7736  0.9075  0.7927
39442SOL    HW225442  12.476   1.678   8.572  0.1082 -0.4522  0.3064
39443SOL     OW25443   7.934   3.262  10.814  0.3869 -0.6749  0.0071
39443SOL    HW125444   7.954   3.274  10.721  0.6658  1.5647  0.2973
39443SOL    HW225445   8.019   3.266  10.858  0.0669  0.8919  0.5456
39444SOL     OW25446   4.044   0.381   0.765  0.5040  0.4729 -0.6083
39444SOL    HW125447   3.979   0.321   0.728 -0.0235 -0.2123  1.3456
39444SOL    HW225448   3.993   0.450   0.807  1.0616  0.7129 -0.3058
39445SOL     OW25449   8.933   4.145   4.681  0.0095  0.7563 -0.2801
39445SOL    HW125450   8.938   4.222   4.625 -0.7299  1.4666  0.6084
39445SOL    HW225451   9.010   4.153   4.738  2.3817 -1.3733 -2.8210
39446SOL     OW25452   8.090   1.799   7.522  0.2481  0.0115 -0.1901
39446SOL    HW125453   7.998   1.782   7.498 -0.0530  0.0677  0.8523
39446SOL    HW225454   8.113   1.726   7.578  0.2350  0.9287  1.0592
39447SOL     OW25455   7.767   6.014  12.091  0.5425  0.4576  0.1862
39447SOL    HW125456   7.832   5.978  12.153 -0.3196 -1.8901 -0.1503
39447SOL    HW225457   7.686   5.967  12.113 -0.4361  1.5330 -1.0154
39448SOL     OW25458   9.021   7.772  11.320 -0.1627 -0.4243 -0.2402
39448SOL    HW125459   9.067   7.690  11.337  0.1822 -0.4140 -1.0385
39448SOL    HW225460   9.080   7.840  11.351  1.0494 -0.3381 -2.4926
39449SOL     OW25461   7.168   4.319   2.378 -0.6527  0.1920 -0.1154
39449SOL    HW125462   7.084   4.277   2.359 -1.5832  1.5068  0.9234
39449SOL    HW225463   7.164   4.403   2.332  0.8907 -0.4856 -1.5902
39450SOL     OW25464  11.990  12.307   6.030  0.2264 -0.0208 -0.3488
39450SOL    HW125465  11.916  12.259   5.992  0.1571 -1.4048  1.3998
39450SOL    HW225466  11.950  12.361   6.098  0.8186 -1.0460  0.8499
39451SOL     OW25467   4.690   0.609   6.839 -0.1446  0.1646 -0.4910
39451SOL    HW125468   4.600   0.634   6.818 -0.1404 -0.9920 -2.0972
39451SOL    HW225469   4.703   0.637   6.929 -2.6121 -0.9077  0.2799
39452SOL     OW25470   1.550   0.812   8.667 -0.0197 -0.0487 -0.2732
39452SOL    HW125471   1.546   0.897   8.710  1.6692  0.8638 -1.7723
39452SOL    HW225472   1.482   0.815   8.599  0.1991  0.2123 -0.4823
39453SOL     OW25473   3.477   8.760   0.549  0.2900 -0.1464  0.2992
39453SOL    HW125474   3.443   8.673   0.528 -1.3573  0.4906  0.1952
39453SOL    HW225475   3.572   8.748   0.555  0.4701 -1.3366 -2.8290
39454SOL     OW25476   6.912   7.980  10.855 -0.3163 -0.1704 -0.2884
39454SOL    HW125477   6.825   7.989  10.816 -0.2903 -0.8831 -0.5286
39454SOL    HW225478   6.928   7.886  10.856  0.3932 -0.0531 -0.1073
39455SOL     OW25479  12.184  12.257   6.866 -0.7022 -0.2434 -0.1093
39455SOL    HW125480  12.195  12.162   6.866  0.4337 -0.1695  1.8451
39455SOL    HW225481  12.221  12.286   6.950 -3.5664  1.6653  0.6318
39456SOL     OW25482   3.649   2.698  10.347 -0.0048 -0.1253 -0.2914
39456SOL    HW125483   3.564   2.726  10.313 -0.2911 -0.5148  0.0935
39456SOL    HW225484   3.628   2.639  10.420  0.5897 -0.7165 -0.5846
39457SOL     OW25485   0.801   7.374   5.932  0.8248 -0.1255 -0.0408
39457SOL    HW125486   0.753   7.428   5.995  2.3513  1.4568 -0.1560
39457SOL    HW225487   0.873   7.337   5.983  1.5128  0.3831 -0.6336
39458SOL     OW25488   3.428   9.935   5.557  0.3768  0.0135 -0.2316
39458SOL    HW125489   3.475   9.863   5.515  0.7092  0.3670 -0.4755
39458SOL    HW225490   3.358   9.893   5.607  0.3727 -0.4555 -0.6268
39459SOL     OW25491   0.900   9.995   9.457  0.1607 -0.4624 -0.1683
39459SOL    HW125492   0.829  10.038   9.505  0.0191  0.1432 -0.9008
39459SOL    HW225493   0.861   9.914   9.425 -0.3028 -0.0039 -0.8011
39460SOL     OW25494   8.046   4.598   0.799  0.7776  0.5809  0.0188
39460SOL    HW125495   7.960   4.634   0.781  0.5213  0.6568  1.3477
39460SOL    HW225496   8.081   4.652   0.869  1.2298 -0.4743  0.6247
39461SOL     OW25497   5.629   6.937   7.283 -0.0464 -0.1768  0.2940
39461SOL    HW125498   5.552   6.916   7.337 -2.0530 -0.6580 -2.5009
39461SOL    HW225499   5.669   6.852   7.264  0.1949 -0.0859  0.3927
39462SOL     OW25500   6.159   8.871   7.674  0.3241  0.8704 -0.2740
39462SOL    HW125501   6.150   8.935   7.604  1.7777 -0.3574 -1.6392
39462SOL    HW225502   6.121   8.790   7.639  1.4361  0.1250  0.1775
39463SOL     OW25503  10.906   9.597   9.198  0.2486  0.4276 -0.3923
39463SOL    HW125504  10.838   9.613   9.132 -0.2172  0.1781  0.0229
39463SOL    HW225505  10.885   9.511   9.233  0.5117  0.5487  0.0662
39464SOL     OW25506  10.099   8.820  12.861  0.1213  0.2930  0.2008
39464SOL    HW125507  10.069   8.741  12.816 -0.9415  0.9135 -0.2323
39464SOL    HW225508  10.193   8.821  12.848  0.0598 -0.5158 -0.4211
39465SOL     OW25509   2.476  10.388   2.254  0.3204 -0.5860  0.4932
39465SOL    HW125510   2.562  10.347   2.254  0.6676  0.1180 -0.0635
39465SOL    HW225511   2.490  10.474   2.213 -0.7225 -0.6481 -0.0429
39466SOL     OW25512   2.294   5.888   2.360 -0.2705  0.1826 -0.3656
39466SOL    HW125513   2.239   5.955   2.401 -0.0389  0.8127 -1.0671
39466SOL    HW225514   2.235   5.841   2.302  0.0319  1.2511 -1.5801
39467SOL     OW25515   3.946   6.246   0.497  0.2392  0.4255 -0.3009
39467SOL    HW125516   3.911   6.257   0.585  0.2317 -0.6362 -0.1612
39467SOL    HW225517   3.966   6.335   0.468  0.1415  0.7954  0.7284
39468SOL     OW25518   3.141   2.995   3.774  0.2457 -0.0093 -0.0967
39468SOL    HW125519   3.079   3.017   3.844  0.6575 -1.1759  0.6813
39468SOL    HW225520   3.206   3.065   3.777  0.9078 -0.6410  1.5354
39469SOL     OW25521   4.965   4.152   3.033  0.2533 -0.2510 -0.3508
39469SOL    HW125522   4.876   4.186   3.038 -0.2363 -1.2825 -1.5039
39469SOL    HW225523   4.976   4.102   3.114 -0.5701 -0.8982 -0.6263
39470SOL     OW25524   2.132   6.580  12.920 -0.0042 -0.3054 -0.2706
39470SOL    HW125525   2.046   6.536  12.923  0.2461 -0.7446  0.5389
39470SOL    HW225526   2.191   6.520  12.965  0.5327  0.4530  0.0432
39471SOL     OW25527   3.395   6.972  11.109 -0.2784 -0.0416 -0.0541
39471SOL    HW125528   3.438   7.057  11.121  0.9126 -0.3540 -1.8500
39471SOL    HW225529   3.459   6.908  11.138 -0.7764 -0.3916  0.2917
39472SOL     OW25530   8.651  12.464  12.947 -0.2496 -0.0529  0.1942
39472SOL    HW125531   8.728  12.433  12.901 -1.0628 -1.7920 -0.0614
39472SOL    HW225532   8.661  12.559  12.950  0.3228  0.0540 -2.6793
39473SOL     OW25533   3.811   0.973  12.620  0.2244  0.6459 -0.5384
39473SOL    HW125534   3.738   0.982  12.681  1.8812  1.4632  1.4652
39473SOL    HW225535   3.808   0.882  12.592 -1.3654  0.5916 -0.2948
39474SOL     OW25536   3.279   8.366  10.750  0.6953 -0.1491  0.1397
39474SOL    HW125537   3.315   8.446  10.713 -0.7111 -0.5704 -2.4343
39474SOL    HW225538   3.217   8.396  10.817  0.3378  0.9305 -0.6407
39475SOL     OW25539  12.531   1.810   8.131  0.6107 -0.3814  0.3834
39475SOL    HW125540  12.516   1.854   8.048  0.5017  1.1236  1.1691
39475SOL    HW225541  12.612   1.848   8.165 -0.3607  0.5078  1.8582
39476SOL     OW25542  11.943   4.366   5.275  0.3577  0.3943  0.3467
39476SOL    HW125543  11.880   4.437   5.291  0.7982  0.9211 -0.1999
39476SOL    HW225544  12.018   4.410   5.235  0.7874 -0.3353  0.3426
39477SOL     OW25545  10.188  12.205   6.006  0.1244  0.4370  0.0356
39477SOL    HW125546  10.108  12.233   5.961 -0.0046 -0.6518 -0.4339
39477SOL    HW225547  10.177  12.237   6.096 -0.0031  1.8713 -0.4550
39478SOL     OW25548  12.149  12.107   8.283 -0.0816  0.6454  0.5825
39478SOL    HW125549  12.073  12.165   8.296 -0.1362  0.4366  1.2347
39478SOL    HW225550  12.111  12.024   8.255  0.0422  1.1259 -1.1501
39479SOL     OW25551   6.456   8.415   3.117 -0.1087 -0.1660  0.1893
39479SOL    HW125552   6.394   8.466   3.170 -0.4133 -0.9528  0.6144
39479SOL    HW225553   6.441   8.324   3.145  1.0326 -0.3950  0.0860
39480SOL     OW25554   5.358   8.627   1.116 -0.2858 -0.4789  0.5798
39480SOL    HW125555   5.331   8.563   1.182 -2.5915 -1.5351 -1.2075
39480SOL    HW225556   5.306   8.705   1.135 -0.5748 -0.6123  0.3627
39481SOL     OW25557   9.077   8.497   2.148  0.3134  0.0800  0.3406
39481SOL    HW125558   9.099   8.408   2.120 -0.2575  0.0188  0.0816
39481SOL    HW225559   9.126   8.554   2.089 -1.1656 -0.0411 -1.0635
39482SOL     OW25560  12.479  12.084   3.627  0.0159  0.1770  0.0683
39482SOL    HW125561  12.544  12.074   3.558  0.8408 -2.2554  1.0841
39482SOL    HW225562  12.514  12.153   3.683  0.8049  0.1529 -0.3778
39483SOL     OW25563   2.814   0.376  12.474 -0.0231  0.1458 -0.4250
39483SOL    HW125564   2.838   0.305  12.534 -2.4727 -0.0184  0.4902
39483SOL    HW225565   2.898   0.414  12.447  1.2511 -1.0782  1.5175
39484SOL     OW25566   5.480   7.116   9.868 -0.2490 -0.4454 -0.2502
39484SOL    HW125567   5.412   7.075   9.814 -0.7376 -0.1734  0.1504
39484SOL    HW225568   5.517   7.184   9.812 -0.3696 -0.5348 -0.4401
39485SOL     OW25569   8.449  11.419  11.749  0.1848  0.1409  0.4508
39485SOL    HW125570   8.396  11.434  11.671  0.3333  1.6931  0.6187
39485SOL    HW225571   8.472  11.326  11.745 -2.9101 -0.7193  0.6168
39486SOL     OW25572   8.130   3.303   3.307 -0.3168 -0.1539  0.6352
39486SOL    HW125573   8.167   3.389   3.328 -0.7963  0.2489 -0.0940
39486SOL    HW225574   8.069   3.321   3.235  2.0649 -1.5654 -1.9621
39487SOL     OW25575   6.593   2.479   5.144 -0.1443 -0.2118 -0.3068
39487SOL    HW125576   6.600   2.418   5.218 -0.9332 -0.3159 -0.3086
39487SOL    HW225577   6.667   2.456   5.087  1.0106  0.4463  0.8515
39488SOL     OW25578   2.773   2.009   0.520 -0.2770  0.5986  0.3146
39488SOL    HW125579   2.709   2.049   0.461 -1.9170  0.8177  2.1213
39488SOL    HW225580   2.719   1.964   0.586  1.4386  0.6400  1.8138
39489SOL     OW25581  10.173   6.325   6.506  0.2940  0.1034 -0.0457
39489SOL    HW125582  10.165   6.230   6.518 -0.8874  0.4317  2.1914
39489SOL    HW225583  10.087   6.360   6.527  1.4356  1.8976  1.9723
39490SOL     OW25584   7.130   9.109  11.049 -0.4610  0.1686 -0.4299
39490SOL    HW125585   7.069   9.096  10.977 -1.8227 -0.8366  0.8277
39490SOL    HW225586   7.098   9.186  11.095 -0.0099  0.4035 -0.5054
39491SOL     OW25587   8.762   5.819   6.255 -0.0669  0.6195 -0.3357
39491SOL    HW125588   8.726   5.731   6.241  0.0135  0.8383 -2.1747
39491SOL    HW225589   8.850   5.804   6.289  0.1739 -0.0320 -1.2135
39492SOL     OW25590   5.061   3.715   3.785  0.5124  0.8720 -0.4564
39492SOL    HW125591   5.113   3.780   3.738  1.3506  1.0367  0.6699
39492SOL    HW225592   5.052   3.751   3.873  1.2054 -0.6391  0.2620
39493SOL     OW25593   5.718   9.273   4.745 -0.7814 -0.5523  0.2265
39493SOL    HW125594   5.709   9.231   4.660  2.0429 -2.2083  0.6124
39493SOL    HW225595   5.787   9.338   4.733 -2.9032  1.9099  0.4438
39494SOL     OW25596   2.757  12.682   0.834  0.4123 -0.4556 -0.5172
39494SOL    HW125597   2.694  12.642   0.894  2.6604 -0.8427  1.7762
39494SOL    HW225598   2.724  12.661   0.747 -1.6252 -2.2082  0.5832
39495SOL     OW25599   0.388   3.993   4.390  0.4174  0.1242  0.6259
39495SOL    HW125600   0.440   4.008   4.469  0.6570 -0.3346  0.5552
39495SOL    HW225601   0.453   3.978   4.321  0.2022  0.1917  0.4088
39496SOL     OW25602   7.961  11.552  10.672  0.2340  0.2924 -0.1890
39496SOL    HW125603   7.969  11.509  10.587 -1.0204 -1.8432  0.7051
39496SOL    HW225604   8.049  11.583  10.692  1.1702 -1.6780 -1.0201
39497SOL     OW25605   6.298   7.936   7.388  0.3350  0.3593 -0.2989
39497SOL    HW125606   6.291   7.913   7.481  2.1296 -0.2195 -0.2858
39497SOL    HW225607   6.311   8.031   7.388  1.6720  0.1928  0.1371
39498SOL     OW25608   1.613   1.355   1.065  0.2849 -0.2055 -0.4715
39498SOL    HW125609   1.523   1.325   1.071  0.9361 -2.3432 -0.3248
39498SOL    HW225610   1.610   1.429   1.006 -1.8044  1.0097  1.0210
39499SOL     OW25611   2.779   8.113   7.605  0.1512 -0.2123 -0.4412
39499SOL    HW125612   2.717   8.040   7.602  0.6094 -0.7083  1.0938
39499SOL    HW225613   2.728   8.185   7.642  0.4075 -0.5601  0.6234
39500SOL     OW25614   4.228  11.516   3.481 -0.0736  0.3323  0.2500
39500SOL    HW125615   4.156  11.576   3.463  2.7262  3.2982 -2.2352
39500SOL    HW225616   4.226  11.453   3.409  0.5619  1.2342 -0.5711
39501SOL     OW25617  10.022   5.510   9.925 -0.3925 -0.7354  0.4065
39501SOL    HW125618  10.067   5.552   9.852 -0.4072 -0.1207  0.7447
39501SOL    HW225619   9.954   5.572   9.950 -1.6592 -1.7895 -0.3056
39502SOL     OW25620   5.531   0.401  10.452  0.0872  0.8009  0.0410
39502SOL    HW125621   5.587   0.324  10.442 -0.3725  0.5176 -0.4300
39502SOL    HW225622   5.592   0.473  10.470  0.4905  0.2585  0.9552
39503SOL     OW25623   5.239   8.124   4.697  0.4892 -1.0633 -0.0656
39503SOL    HW125624   5.289   8.201   4.725 -1.7898  0.2026  0.8046
39503SOL    HW225625   5.202   8.150   4.613  1.6107 -2.1721 -0.9333
39504SOL     OW25626   6.939   4.728  11.047 -0.4564 -0.6830  0.3830
39504SOL    HW125627   6.946   4.780  10.967  0.2661 -1.4888 -0.0906
39504SOL    HW225628   6.884   4.653  11.023  0.2132 -1.2118  0.4783
39505SOL     OW25629   4.118  12.367  12.199  0.0005  0.0340  0.7723
39505SOL    HW125630   4.212  12.375  12.213 -0.0446  0.3330  0.9322
39505SOL    HW225631   4.109  12.324  12.115  0.2951  3.6124 -1.2927
39506SOL     OW25632   4.514   2.404   9.375  0.2827  0.1048  0.5596
39506SOL    HW125633   4.442   2.462   9.399  1.6482  1.5013  1.4730
39506SOL    HW225634   4.571   2.404   9.452  2.0836  0.3755 -0.7133
39507SOL     OW25635   8.826  10.356   6.671  0.2559  0.0630  0.5462
39507SOL    HW125636   8.895  10.374   6.608 -1.0536 -0.3671 -1.1035
39507SOL    HW225637   8.871  10.328   6.750  1.9728  1.0177 -0.0545
39508SOL     OW25638   7.518  12.281   2.800  0.2597 -0.2288 -0.2567
39508SOL    HW125639   7.594  12.338   2.788 -0.0824  0.7069  1.5915
39508SOL    HW225640   7.445  12.341   2.816 -0.5704 -1.1468 -0.4874
39509SOL     OW25641  12.206   4.056   1.991 -0.7335 -0.5705 -0.2552
39509SOL    HW125642  12.256   4.104   1.926 -1.0807 -2.0634 -1.6932
39509SOL    HW225643  12.127   4.026   1.944 -3.0265  1.6249  1.8852
39510SOL     OW25644   4.445  11.079   1.749 -0.4528 -0.6052 -0.3342
39510SOL    HW125645   4.474  10.993   1.781 -0.5884 -0.1848  0.9812
39510SOL    HW225646   4.526  11.124   1.726 -0.2954 -0.6730  0.0765
39511SOL     OW25647  11.858   7.852   3.082  0.3251  0.1174 -0.1727
39511SOL    HW125648  11.924   7.790   3.049  0.3752  0.3022 -0.4233
39511SOL    HW225649  11.795   7.797   3.129  0.0846 -0.1887 -0.8426
39512SOL     OW25650   9.508   0.460  10.971  0.0238 -0.7705  0.1568
39512SOL    HW125651   9.445   0.491  11.037 -0.3984  0.4771 -0.7905
39512SOL    HW225652   9.586   0.514  10.986 -0.6705  0.7407 -1.4269
39513SOL     OW25653  11.771   8.586  11.557  0.2785  0.8757  0.1311
39513SOL    HW125654  11.838   8.654  11.563 -0.8781  2.0520  0.4105
39513SOL    HW225655  11.795   8.535  11.480  2.4066  0.1972  1.1854
39514SOL     OW25656   9.370   9.536   1.024 -0.0518  0.1326  0.1804
39514SOL    HW125657   9.408   9.618   1.056  0.1703  0.2112 -0.2831
39514SOL    HW225658   9.445   9.479   1.010 -0.2981 -0.8138  2.2644
39515SOL     OW25659   6.731   4.298   7.905  0.0423  0.2248 -0.0875
39515SOL    HW125660   6.662   4.336   7.850  1.3220  1.6103 -0.8216
39515SOL    HW225661   6.685   4.263   7.981 -1.4570  1.2542 -0.4756
39516SOL     OW25662   8.160   0.748   1.193 -0.4482 -0.1436 -0.1181
39516SOL    HW125663   8.248   0.784   1.200 -0.8200  0.6492  0.6751
39516SOL    HW225664   8.113   0.811   1.139 -0.8375  0.0647  0.4512
39517SOL     OW25665  11.250  10.445   7.116  0.0358  0.2616 -0.5325
39517SOL    HW125666  11.177  10.506   7.129 -1.1140 -1.5848  3.3393
39517SOL    HW225667  11.323  10.485   7.163  0.0816 -0.0704 -0.3208
39518SOL     OW25668   3.056   9.342   8.374 -0.3919 -0.1328 -0.8594
39518SOL    HW125669   3.012   9.412   8.423 -1.6152 -0.2732 -1.7053
39518SOL    HW225670   3.008   9.336   8.292  1.2571 -0.2978 -1.8558
39519SOL     OW25671   8.662   7.903  11.051  0.8433 -0.1390  0.5112
39519SOL    HW125672   8.675   7.857  11.134 -0.3511  1.4026  1.6205
39519SOL    HW225673   8.746   7.944  11.032  1.0188 -0.1988  1.1525
39520SOL     OW25674  11.313  10.762  11.971  0.3535 -0.0846  0.4769
39520SOL    HW125675  11.282  10.757  12.062  0.0229 -1.0513  0.3262
39520SOL    HW225676  11.233  10.766  11.919  0.5507  1.1613  0.2500
39521SOL     OW25677  10.700   9.014  12.686 -0.5576  0.2679 -0.3998
39521SOL    HW125678  10.781   9.062  12.671  0.5302 -1.4002 -0.0335
39521SOL    HW225679  10.677   9.033  12.777  1.0606 -1.5676  0.4511
39522SOL     OW25680   7.857   3.823   9.105  0.1409  0.3216 -0.6592
39522SOL    HW125681   7.847   3.736   9.145 -0.3861  0.3003 -0.8235
39522SOL    HW225682   7.781   3.872   9.137  0.7495  0.9227 -0.0759
39523SOL     OW25683   4.225   0.252   5.272 -0.1097  0.1505 -0.5267
39523SOL    HW125684   4.318   0.228   5.262 -0.6864 -1.4891 -2.6424
39523SOL    HW225685   4.224   0.346   5.256  1.4202  0.6347  1.6920
39524SOL     OW25686   5.455   4.635   1.868 -0.0595  0.2965  0.3093
39524SOL    HW125687   5.457   4.715   1.920 -1.0252  0.6616 -0.1905
39524SOL    HW225688   5.461   4.565   1.933 -0.7468  0.7552  0.8853
39525SOL     OW25689   0.324   1.133   0.909  0.0251 -0.0969 -0.5308
39525SOL    HW125690   0.390   1.065   0.927  1.2446  1.4071  0.9917
39525SOL    HW225691   0.369   1.197   0.854 -0.1748  0.8731  0.3980
39526SOL     OW25692   7.981  12.162  11.599 -0.1632 -0.0722  0.5968
39526SOL    HW125693   8.002  12.246  11.641  2.0654 -0.3518  0.1923
39526SOL    HW225694   7.980  12.182  11.505  1.7258 -0.6956  0.4053
39527SOL     OW25695   5.279  11.467  10.179  0.3702 -0.6790 -0.2437
39527SOL    HW125696   5.340  11.527  10.223 -1.5778  0.1853  1.4623
39527SOL    HW225697   5.197  11.477  10.228 -1.1618 -1.7688 -2.4465
39528SOL     OW25698   0.403  10.605   1.658 -0.4890 -0.0042 -0.4533
39528SOL    HW125699   0.416  10.693   1.695  1.1105 -0.2213 -0.4277
39528SOL    HW225700   0.380  10.550   1.734 -1.2170  0.3241 -0.4273
39529SOL     OW25701   3.008   3.260   3.330 -0.2926  0.4882  0.5221
39529SOL    HW125702   3.102   3.248   3.317 -0.3361 -1.2213  1.4841
39529SOL    HW225703   2.998   3.353   3.352  0.5336  1.9933 -4.2443
39530SOL     OW25704   8.377   9.132   6.382 -0.6236 -0.5656  0.1937
39530SOL    HW125705   8.371   9.159   6.290 -2.4186  0.3121  0.5395
39530SOL    HW225706   8.435   9.197   6.422 -0.7224 -0.3082 -0.0773
39531SOL     OW25707   8.348   2.349   3.747 -0.2506 -0.1579  0.2968
39531SOL    HW125708   8.385   2.264   3.772 -0.1738 -0.0223  0.6586
39531SOL    HW225709   8.254   2.339   3.761 -0.0071  0.7570  3.3522
39532SOL     OW25710   5.489   3.022  12.935 -0.4025 -0.6570 -0.5527
39532SOL    HW125711   5.437   2.943  12.947  1.6406 -2.2272 -1.4229
39532SOL    HW225712   5.479   3.044  12.842 -0.9103  0.1076 -0.3320
39533SOL     OW25713   8.755   9.500   4.543 -0.0333  0.0969 -0.3880
39533SOL    HW125714   8.665   9.471   4.527  0.0155  0.2581 -0.9447
39533SOL    HW225715   8.751   9.595   4.533  0.4413  0.0011 -1.6058
39534SOL     OW25716   8.199   8.566  11.394 -0.4987  0.4476 -0.4485
39534SOL    HW125717   8.249   8.538  11.318 -1.8949 -0.3156 -1.1196
39534SOL    HW225718   8.123   8.508  11.396  0.3234 -0.7428  2.5245
39535SOL     OW25719   7.429   2.236   4.122 -0.5902 -0.5345  0.4670
39535SOL    HW125720   7.342   2.198   4.113  0.5649 -3.2698 -0.0066
39535SOL    HW225721   7.464   2.236   4.033  0.4648 -0.9574  0.8701
39536SOL     OW25722  10.089   6.658   4.558  0.0795 -0.4469 -0.0160
39536SOL    HW125723  10.092   6.564   4.573 -0.3951 -0.6909 -1.2826
39536SOL    HW225724  10.083   6.666   4.463  3.5284  0.9223 -0.2665
39537SOL     OW25725  12.818   3.345  11.041  0.3172  0.1605  0.3730
39537SOL    HW125726  12.858   3.375  11.123  1.1236 -0.5166  0.2457
39537SOL    HW225727  12.725   3.362  11.052  0.2246 -1.0747  1.9657
39538SOL     OW25728   7.554   9.811   8.248 -0.0673 -0.7542  0.0823
39538SOL    HW125729   7.477   9.763   8.280  0.0279  0.6473  2.6727
39538SOL    HW225730   7.618   9.805   8.320  0.2624  2.4596  0.2125
39539SOL     OW25731   3.565   6.978   9.794 -0.2920 -0.4700  0.5208
39539SOL    HW125732   3.619   6.900   9.786  1.6495  0.9938 -3.2344
39539SOL    HW225733   3.626   7.048   9.818 -1.1097  0.6210 -0.4508
39540SOL     OW25734  10.399   3.549  12.482  0.8229 -0.5412  0.1213
39540SOL    HW125735  10.456   3.609  12.433 -0.0371 -0.0517 -0.2908
39540SOL    HW225736  10.310   3.573  12.457  0.3953 -0.9121  1.2059
39541SOL     OW25737   1.325   4.400   6.289  0.1544 -0.7034  0.4068
39541SOL    HW125738   1.250   4.352   6.324  0.2878 -1.1267  0.1225
39541SOL    HW225739   1.353   4.349   6.213  0.7547 -0.5678  0.5331
39542SOL     OW25740   2.744   0.892   6.361  0.2202 -0.0971 -0.3072
39542SOL    HW125741   2.745   0.981   6.327  0.1566  0.4293  1.0170
39542SOL    HW225742   2.673   0.892   6.426  1.1193 -0.7252  0.7022
39543SOL     OW25743   7.439   9.165  10.377 -0.4513 -0.3969 -0.3815
39543SOL    HW125744   7.353   9.207  10.376  0.2103  1.1345 -3.0420
39543SOL    HW225745   7.501   9.238  10.365  0.8912 -1.8562 -3.0647
39544SOL     OW25746   1.571   5.338   6.307  0.0803 -0.1664 -0.2752
39544SOL    HW125747   1.590   5.275   6.377 -1.4041 -0.2051  0.1306
39544SOL    HW225748   1.635   5.408   6.320  2.2210 -1.8750 -1.1736
39545SOL     OW25749   8.659  11.603   0.132 -0.2191  0.1486  1.1036
39545SOL    HW125750   8.655  11.692   0.097 -3.1569  0.6049  2.3596
39545SOL    HW225751   8.606  11.551   0.071 -1.3855 -0.0059  2.2247
39546SOL     OW25752   7.101   8.748   1.582 -0.0344  0.0938 -0.8300
39546SOL    HW125753   7.098   8.843   1.569  0.7604 -0.1203 -3.1982
39546SOL    HW225754   7.023   8.728   1.633  0.1556  2.0858  0.3561
39547SOL     OW25755   2.272  12.724   0.197  0.2076 -0.3337  0.7840
39547SOL    HW125756   2.257  12.645   0.144  0.9268 -0.1440  0.2854
39547SOL    HW225757   2.184  12.756   0.217 -0.0881 -0.9355  0.4936
39548SOL     OW25758   5.748   0.282   7.380 -0.3901 -0.1720  0.3142
39548SOL    HW125759   5.722   0.351   7.319 -0.8984 -2.0443 -1.7034
39548SOL    HW225760   5.843   0.282   7.377 -0.4160 -0.2974 -0.5364
39549SOL     OW25761   4.056   8.624  10.121 -0.0173 -0.2436 -0.0609
39549SOL    HW125762   4.009   8.692  10.073  0.1178 -0.5602 -0.6525
39549SOL    HW225763   4.148   8.651  10.117 -0.0063 -0.2683  0.0311
39550SOL     OW25764   9.042   0.185   8.186 -0.2782  0.1539  0.0476
39550SOL    HW125765   9.091   0.106   8.210  0.8389  1.1327  1.2030
39550SOL    HW225766   9.109   0.246   8.156 -1.0147  0.9378 -0.0412
39551SOL     OW25767   2.369   9.049   6.656 -0.1561  0.0139 -0.2170
39551SOL    HW125768   2.287   9.015   6.619 -0.4201 -0.4512  0.7525
39551SOL    HW225769   2.437   9.009   6.602 -0.4855 -1.6819  0.5485
39552SOL     OW25770   2.339  10.232   5.011 -0.2013  0.3364  0.2804
39552SOL    HW125771   2.293  10.151   4.991 -0.2472  0.4381 -0.0372
39552SOL    HW225772   2.300  10.297   4.952 -0.7156  0.7678  1.0844
39553SOL     OW25773   5.326   9.471   2.204  0.0880  0.0269 -0.1752
39553SOL    HW125774   5.396   9.476   2.269  0.6247  0.0834 -0.7442
39553SOL    HW225775   5.250   9.440   2.253  0.4800  0.0773  0.4782
39554SOL     OW25776  10.162   4.642   1.412  0.2365 -0.7822  0.1939
39554SOL    HW125777  10.073   4.620   1.439  0.0744 -0.6487 -0.2237
39554SOL    HW225778  10.206   4.557   1.402  0.4646 -0.8264  1.3850
39555SOL     OW25779  12.649   6.893   5.861  0.2946  0.3102 -0.5250
39555SOL    HW125780  12.629   6.936   5.778 -0.0964  0.9101 -0.1343
39555SOL    HW225781  12.741   6.867   5.854  0.2002  0.1460 -1.2286
39556SOL     OW25782   6.322   4.500   2.843 -0.0520  0.0029  0.0619
39556SOL    HW125783   6.295   4.476   2.931 -1.3165 -0.0932 -0.3394
39556SOL    HW225784   6.354   4.419   2.804 -0.3305 -0.1447  0.1379
39557SOL     OW25785  11.575   3.040   7.010 -0.4913  0.0508 -0.3519
39557SOL    HW125786  11.599   3.131   7.027  0.4449 -0.2102 -0.2140
39557SOL    HW225787  11.644   3.007   6.952 -0.1582 -0.9018  0.5396
39558SOL     OW25788  10.607   4.763   8.715  0.0165 -0.6718  0.1672
39558SOL    HW125789  10.659   4.832   8.674 -1.4040 -0.5473 -1.5401
39558SOL    HW225790  10.667   4.688   8.721  0.2714 -0.7518 -2.3977
39559SOL     OW25791   3.003   6.818   0.665 -0.0982 -0.2339  0.1826
39559SOL    HW125792   2.981   6.750   0.601 -0.6382 -0.1671  0.2905
39559SOL    HW225793   2.923   6.828   0.717 -0.1242  0.7185 -0.0389
39560SOL     OW25794   1.892   6.821   8.720  0.3309  0.2750 -0.0916
39560SOL    HW125795   1.837   6.878   8.667  0.0837  1.3315  1.2421
39560SOL    HW225796   1.838   6.800   8.796  1.5154  0.7933  0.9237
39561SOL     OW25797   2.845  12.633  11.974  0.1212 -0.8588 -0.6742
39561SOL    HW125798   2.906  12.593  12.036  1.0060  2.2045  0.6051
39561SOL    HW225799   2.900  12.665  11.903 -0.0166  1.2313  0.1026
39562SOL     OW25800   5.900   1.526   3.351 -0.4443  0.7164  0.4988
39562SOL    HW125801   5.900   1.507   3.445 -0.9538 -1.4214  0.1029
39562SOL    HW225802   5.923   1.443   3.310  2.0112  2.1337 -1.2191
39563SOL     OW25803   3.188   7.480   5.272  0.0138 -0.4021 -0.1883
39563SOL    HW125804   3.127   7.553   5.264  1.1985  0.5966 -0.2421
39563SOL    HW225805   3.142   7.407   5.229 -1.3526  0.1679  0.2280
39564SOL     OW25806  12.786   7.139   0.743  0.5571  0.6084  0.1316
39564SOL    HW125807  12.851   7.208   0.758  0.6042  0.3505  1.2359
39564SOL    HW225808  12.703   7.180   0.766  0.7383 -0.0950  2.2743
39565SOL     OW25809   3.182   2.544   3.510  0.1399 -0.7593  0.1505
39565SOL    HW125810   3.266   2.501   3.501  1.3925  0.9737  2.4606
39565SOL    HW225811   3.132   2.488   3.570  0.1020 -1.1656 -0.2595
39566SOL     OW25812   8.753   3.805  11.439 -0.1837  0.2845 -0.2751
39566SOL    HW125813   8.671   3.849  11.416  0.5411  1.8867  0.0843
39566SOL    HW225814   8.795   3.862  11.503  0.5288 -1.2635  0.7153
39567SOL     OW25815  10.232  10.243   8.968  0.0022  0.3922  0.3068
39567SOL    HW125816  10.204  10.152   8.957  1.7775 -0.1652  0.1621
39567SOL    HW225817  10.165  10.294   8.924  0.4793 -1.0409 -2.2341
39568SOL     OW25818   4.473   2.151   2.419  0.2064 -0.2847  0.0996
39568SOL    HW125819   4.478   2.126   2.511 -1.7817 -0.5168  0.1902
39568SOL    HW225820   4.455   2.245   2.420 -2.9856 -0.7883  0.1253
39569SOL     OW25821   0.224  12.666   9.841 -0.4273 -0.2780  0.0792
39569SOL    HW125822   0.233  12.743   9.785 -0.1444  0.2353  0.8108
39569SOL    HW225823   0.172  12.697   9.915 -0.4314 -0.8356  0.3108
39570SOL     OW25824  10.506  11.601  10.774  0.7392 -0.1302 -0.1662
39570SOL    HW125825  10.516  11.696  10.775  0.6162 -0.0588  2.9676
39570SOL    HW225826  10.413  11.585  10.790  0.3341 -0.8725 -2.7042
39571SOL     OW25827   7.425   4.421  11.905 -0.3171  0.0412  0.2931
39571SOL    HW125828   7.343   4.376  11.886 -1.1223  1.1433  0.9722
39571SOL    HW225829   7.468   4.429  11.820 -0.5276 -1.2517  0.0429
39572SOL     OW25830   8.631  10.187   5.919  0.2164  0.1947  0.1847
39572SOL    HW125831   8.602  10.128   5.849 -1.0094  0.0829  0.7525
39572SOL    HW225832   8.623  10.135   5.999 -0.0751  0.8604  0.6007
39573SOL     OW25833   0.259   1.572  12.256 -0.4412 -0.2185  0.0157
39573SOL    HW125834   0.298   1.535  12.335  1.1550  0.9051 -0.2047
39573SOL    HW225835   0.314   1.541  12.184 -0.3412  0.8362 -0.3798
39574SOL     OW25836   5.653   6.294   3.563 -0.6281  0.1111  0.1939
39574SOL    HW125837   5.612   6.233   3.624 -0.1521 -0.3395  0.0660
39574SOL    HW225838   5.614   6.379   3.585 -2.1641 -0.3940 -0.3862
39575SOL     OW25839   9.430  10.451   4.302 -0.7358  0.3899 -0.2946
39575SOL    HW125840   9.402  10.381   4.361  0.1999 -0.1505 -0.4723
39575SOL    HW225841   9.488  10.506   4.355  1.2303 -0.8642 -1.0049
39576SOL     OW25842  10.551   2.686   5.359 -0.3629  0.1097  0.3720
39576SOL    HW125843  10.624   2.722   5.409  0.4876 -0.5476 -0.3538
39576SOL    HW225844  10.545   2.595   5.388 -1.4494  0.3873  1.0365
39577SOL     OW25845   5.264   1.728   4.963 -0.1650 -0.0656 -0.3002
39577SOL    HW125846   5.235   1.816   4.990  0.6249  0.5944 -1.5118
39577SOL    HW225847   5.188   1.672   4.979 -1.3600  1.1865 -1.2690
39578SOL     OW25848   9.828   7.471   8.166  0.2790  0.0852  0.6677
39578SOL    HW125849   9.849   7.530   8.237 -1.4558  1.7649 -0.1300
39578SOL    HW225850   9.824   7.384   8.207  1.5027  0.6748  2.1323
39579SOL     OW25851   5.805   5.165  12.749 -0.2720  0.5835 -0.1919
39579SOL    HW125852   5.837   5.254  12.736  0.2528  0.4312  0.0398
39579SOL    HW225853   5.866   5.126  12.812 -0.9492  0.3046  0.3081
39580SOL     OW25854   7.000  11.273   1.945 -0.3768 -0.3087  0.1544
39580SOL    HW125855   7.052  11.342   1.987  0.1002 -0.7827  0.3438
39580SOL    HW225856   7.038  11.265   1.858 -1.6403  0.9749 -0.5507
39581SOL     OW25857   1.670   6.657   1.888  0.3580  0.5817  0.1869
39581SOL    HW125858   1.578   6.684   1.895 -0.3298 -0.8706 -2.0536
39581SOL    HW225859   1.708   6.718   1.826 -0.0756 -0.8620 -1.5784
39582SOL     OW25860  11.990  12.397  10.848  0.3233  0.3797  0.2274
39582SOL    HW125861  11.966  12.473  10.901  0.5309 -0.3746  1.4372
39582SOL    HW225862  11.999  12.432  10.759 -1.3450  1.4151  0.4231
39583SOL     OW25863  11.317   7.546   0.148 -0.3219  0.1960  0.2716
39583SOL    HW125864  11.277   7.626   0.184 -0.9409  1.0618 -2.1107
39583SOL    HW225865  11.256   7.519   0.078  1.1807 -0.8664 -0.6851
39584SOL     OW25866   6.461   6.142  12.258  0.1997 -0.5595 -0.0773
39584SOL    HW125867   6.542   6.104  12.292  0.5733 -0.1595 -0.5075
39584SOL    HW225868   6.469   6.136  12.163 -0.1439 -0.2385 -0.1289
39585SOL     OW25869   3.249   9.204   9.761  0.3696  0.0862  0.6056
39585SOL    HW125870   3.327   9.157   9.732  1.3825  1.8583  0.3048
39585SOL    HW225871   3.270   9.233   9.849  0.2144  0.8869  0.3869
39586SOL     OW25872   3.875   6.101   9.742  0.7384  0.5070 -0.2110
39586SOL    HW125873   3.871   6.194   9.766  1.9916  0.5015  0.1259
39586SOL    HW225874   3.907   6.100   9.652 -2.6333  0.4725 -1.5669
39587SOL     OW25875  10.438   6.367  11.376 -0.3888  0.4226  0.1447
39587SOL    HW125876  10.474   6.432  11.436  2.1896 -1.2795  0.5535
39587SOL    HW225877  10.376   6.317  11.428  2.1592 -1.3410  1.6451
39588SOL     OW25878   9.837  12.673   3.566  0.6319  0.4245 -0.9840
39588SOL    HW125879   9.921  12.635   3.592  0.8361  0.1862 -1.9564
39588SOL    HW225880   9.818  12.635   3.481 -0.2829  0.7708 -0.9511
39589SOL     OW25881  11.262   7.366   7.643  0.1387  0.0358 -0.0066
39589SOL    HW125882  11.250   7.279   7.682  0.3674 -0.0237 -0.0701
39589SOL    HW225883  11.343   7.359   7.594  0.2204  0.3232  0.0899
39590SOL     OW25884  12.272   1.348   2.187  0.1686  0.6593 -0.8007
39590SOL    HW125885  12.291   1.367   2.279 -0.9368 -0.4508 -0.3246
39590SOL    HW225886  12.329   1.274   2.166 -0.9652 -0.3435 -0.4227
39591SOL     OW25887  12.140  10.479   1.700  0.2917  0.0253  0.1147
39591SOL    HW125888  12.127  10.445   1.612  0.5402 -0.1017  0.1263
39591SOL    HW225889  12.234  10.472   1.715  0.3650  0.7828  0.0887
39592SOL     OW25890   8.185   9.404  12.529  0.1887 -0.1951  1.0422
39592SOL    HW125891   8.102   9.383  12.572 -0.1243  0.0439  0.5723
39592SOL    HW225892   8.190   9.500  12.532 -0.3745 -0.0869 -0.3952
39593SOL     OW25893   3.431   0.909  10.747  0.6109 -0.0441  0.1058
39593SOL    HW125894   3.378   0.831  10.761 -0.8768  0.8742 -0.1591
39593SOL    HW225895   3.517   0.886  10.780  0.4183 -2.0454 -0.6245
39594SOL     OW25896  10.291   8.701  12.613 -0.1597 -0.4154  0.6607
39594SOL    HW125897  10.280   8.795  12.599 -0.2673 -0.5198  0.0442
39594SOL    HW225898  10.365   8.694  12.674  1.6860 -0.0145 -1.3871
39595SOL     OW25899   8.872  11.504  10.874 -0.9115  0.1383 -0.1173
39595SOL    HW125900   8.930  11.527  10.801 -0.0814  0.2672  0.5575
39595SOL    HW225901   8.787  11.539  10.849 -0.7869 -0.3428 -1.2864
39596SOL     OW25902   2.483   1.179   4.551 -0.0399  0.2817 -0.5773
39596SOL    HW125903   2.526   1.151   4.470  2.2571 -1.8741  1.2030
39596SOL    HW225904   2.498   1.273   4.555  2.3134  0.0107 -1.3830
39597SOL     OW25905   0.792   5.405   4.506 -0.3396  0.3147  0.2690
39597SOL    HW125906   0.856   5.435   4.442 -0.6910 -0.8491 -0.6530
39597SOL    HW225907   0.711   5.452   4.484 -0.3358  0.2743  0.1719
39598SOL     OW25908   2.044   7.585   6.109  0.5390  0.2760  0.1407
39598SOL    HW125909   2.053   7.678   6.129 -1.2247  0.5141  0.0184
39598SOL    HW225910   1.955   7.577   6.075 -0.5810 -1.9369  3.1919
39599SOL     OW25911   7.305  11.511   2.287 -0.0980  0.3207 -0.4999
39599SOL    HW125912   7.260  11.510   2.372  1.2858  0.4989  0.2576
39599SOL    HW225913   7.344  11.424   2.280  2.4275  1.2595  0.5540
39600SOL     OW25914   9.653   1.834  10.625 -0.5052 -0.4273 -0.1321
39600SOL    HW125915   9.669   1.748  10.664  1.0237 -0.4497 -0.7214
39600SOL    HW225916   9.731   1.885  10.648 -1.1327  0.6246 -0.2805
39601SOL     OW25917  10.158   9.048   6.490 -0.2416 -0.1557 -0.5936
39601SOL    HW125918  10.113   9.094   6.419 -2.0449 -2.2635 -0.9408
39601SOL    HW225919  10.136   9.098   6.569 -1.6420 -0.0452 -1.0222
39602SOL     OW25920   9.935   8.451  11.279 -0.4638 -0.4059 -0.1613
39602SOL    HW125921   9.905   8.424  11.192 -1.0861  0.4245 -0.2179
39602SOL    HW225922   9.934   8.371  11.331  0.3935 -1.0173 -1.0420
39603SOL     OW25923   5.507   4.474   7.233  0.3049  0.2286  0.4847
39603SOL    HW125924   5.565   4.401   7.211  1.1667  1.0799 -0.1634
39603SOL    HW225925   5.435   4.468   7.170  1.2483  0.9062 -0.7188
39604SOL     OW25926   9.089   7.553   2.749  0.3345  0.5316 -0.1249
39604SOL    HW125927   9.125   7.521   2.666  0.8492  0.9150 -0.0537
39604SOL    HW225928   9.121   7.643   2.756 -2.4207  1.6905 -1.1273
39605SOL     OW25929   4.512   7.113   4.214 -0.5931 -0.4346  0.1297
39605SOL    HW125930   4.444   7.053   4.245 -0.9021 -1.6084 -2.5463
39605SOL    HW225931   4.467   7.197   4.202 -1.2093 -0.7959 -0.1341
39606SOL     OW25932  11.544  12.334   2.578  0.3994 -0.1963 -0.3441
39606SOL    HW125933  11.493  12.298   2.505  1.2374 -0.5922 -0.7510
39606SOL    HW225934  11.621  12.373   2.536 -0.3252  1.8030  0.1180
39607SOL     OW25935   5.616   9.329   6.099 -0.3529 -0.3422 -0.6580
39607SOL    HW125936   5.647   9.264   6.162 -3.3624 -2.2356 -0.8905
39607SOL    HW225937   5.559   9.279   6.040 -1.9334  2.2982 -1.5339
39608SOL     OW25938   0.468  10.209   5.583 -0.3255  0.5638 -0.1329
39608SOL    HW125939   0.407  10.204   5.511 -0.9384  1.7697  0.2758
39608SOL    HW225940   0.435  10.146   5.648  0.2305 -0.5228 -0.8664
39609SOL     OW25941   2.275   2.416   1.569  0.5586 -0.5188  0.1711
39609SOL    HW125942   2.285   2.506   1.538 -0.2292 -0.8146 -1.0417
39609SOL    HW225943   2.331   2.364   1.511  3.3772 -0.5479  2.7261
39610SOL     OW25944  12.014  10.199  12.077  0.3459  0.6219  0.5612
39610SOL    HW125945  12.004  10.294  12.071 -0.4803  0.4818 -0.7048
39610SOL    HW225946  11.933  10.164  12.039  1.6823 -0.5767 -1.3654
39611SOL     OW25947   5.457   0.062   5.811  0.6548  0.0112 -0.0752
39611SOL    HW125948   5.550   0.056   5.834  0.9231  1.4526 -0.7119
39611SOL    HW225949   5.444   0.153   5.785 -0.5573 -0.5718 -1.6471
39612SOL     OW25950  11.382   9.679   4.787 -0.2976 -0.5907  0.1926
39612SOL    HW125951  11.383   9.710   4.696  1.3134 -0.2648  0.2846
39612SOL    HW225952  11.386   9.584   4.780 -1.7175 -0.6439 -0.0724
39613SOL     OW25953   0.008  10.118   7.704  0.4669 -0.0298 -0.6544
39613SOL    HW125954   0.014  10.213   7.717 -0.1338 -0.0516 -0.1340
39613SOL    HW225955  -0.064  10.091   7.761  0.3412 -0.7369 -1.1332
39614SOL     OW25956   2.153   2.972  12.463  0.7724 -0.0827  0.4118
39614SOL    HW125957   2.236   2.945  12.425  0.4724  1.0869 -1.1793
39614SOL    HW225958   2.177   3.037  12.529  1.1336  0.3552 -0.1367
39615SOL     OW25959  11.360   1.298   0.901 -0.2401  0.3307 -0.7924
39615SOL    HW125960  11.273   1.320   0.868 -0.2147  1.2098 -0.2876
39615SOL    HW225961  11.345   1.231   0.967 -0.4166 -0.3836 -1.5322
39616SOL     OW25962   4.402   9.581   4.273 -0.2803 -0.0050  0.3633
39616SOL    HW125963   4.487   9.567   4.231 -0.3560 -0.9161  0.4912
39616SOL    HW225964   4.393   9.508   4.334 -0.4718  0.9278  1.4916
39617SOL     OW25965   3.602   7.824   7.755  0.5264 -0.2432 -0.1975
39617SOL    HW125966   3.522   7.789   7.716  0.9722 -0.0710 -1.3019
39617SOL    HW225967   3.578   7.843   7.845  0.1501 -2.9646  0.3581
39618SOL     OW25968  12.378   2.009   6.260  0.3527  0.0167  0.0612
39618SOL    HW125969  12.400   1.929   6.307  0.1231 -0.0100  0.1205
39618SOL    HW225970  12.441   2.011   6.187 -1.4961 -1.7658 -1.7146
39619SOL     OW25971   6.092   1.185   9.147  0.0924 -0.1472  0.3909
39619SOL    HW125972   6.046   1.269   9.145  0.0682 -0.1819 -0.8439
39619SOL    HW225973   6.095   1.156   9.056  0.0463 -1.5254  0.8051
39620SOL     OW25974  10.372   6.601   8.258 -0.1577  0.0714  0.7041
39620SOL    HW125975  10.445   6.590   8.198 -0.3002  1.6360  0.1906
39620SOL    HW225976  10.401   6.560   8.339 -0.3253 -2.9096 -0.6267
39621SOL     OW25977   3.756   0.898   5.063 -0.1518  0.1726 -0.1088
39621SOL    HW125978   3.818   0.944   5.120 -0.1785  1.4119 -1.0357
39621SOL    HW225979   3.713   0.967   5.013 -1.1275 -0.7829 -0.6481
39622SOL     OW25980   3.653   0.523   3.628  0.0109 -0.5505  0.7200
39622SOL    HW125981   3.696   0.565   3.703  1.9127 -0.1454 -0.5136
39622SOL    HW225982   3.649   0.430   3.651  0.4773 -0.4161  1.3788
39623SOL     OW25983   8.203  10.923   2.849 -0.7722 -0.3859  0.7717
39623SOL    HW125984   8.134  10.984   2.875 -0.3382  0.3870  0.1138
39623SOL    HW225985   8.284  10.966   2.873 -0.4350 -0.4115 -0.2891
39624SOL     OW25986   9.123   3.733   3.247  0.0354 -0.2067  0.1625
39624SOL    HW125987   9.209   3.692   3.238 -0.7485 -1.7993 -0.5004
39624SOL    HW225988   9.096   3.751   3.158  0.5533  2.3350  0.4365
39625SOL     OW25989   7.696  11.564   0.675 -0.4722  0.1479 -0.4044
39625SOL    HW125990   7.745  11.642   0.648 -1.2001  1.2185  1.2483
39625SOL    HW225991   7.760  11.512   0.725 -0.7982  1.2261  1.1845
39626SOL     OW25992   0.584   3.425   3.991 -0.0961  0.0334 -0.1289
39626SOL    HW125993   0.616   3.432   4.081 -0.6980  0.1123  0.0880
39626SOL    HW225994   0.612   3.338   3.963  0.2769  0.0907  0.0633
39627SOL     OW25995  12.131   3.866   1.544 -0.0571  0.0481  0.0259
39627SOL    HW125996  12.149   3.960   1.548  0.6788 -0.1367  1.9023
39627SOL    HW225997  12.040   3.857   1.569  0.3113  0.1578  1.4598
39628SOL     OW25998   3.010   3.976   9.914 -0.0071  0.1373 -0.1165
39628SOL    HW125999   3.086   3.920   9.900 -0.8012 -0.9040 -0.4146
39628SOL    HW226000   3.000   3.979  10.009 -0.2543 -0.6655 -0.1065
39629SOL     OW26001  11.359   0.394   4.826  0.0008  0.5269 -0.2359
39629SOL    HW126002  11.367   0.321   4.888 -0.4266  0.7279  0.0610
39629SOL    HW226003  11.270   0.388   4.793  0.3516  0.1858 -1.1419
39630SOL     OW26004   3.688  12.221   7.959 -0.1026 -0.6668 -0.3187
39630SOL    HW126005   3.695  12.145   7.901  1.5929 -0.3200 -0.6251
39630SOL    HW226006   3.597  12.250   7.950 -0.2102 -1.3808 -1.8253
39631SOL     OW26007  11.876   3.878  10.355  0.1532  0.0359  0.3087
39631SOL    HW126008  11.790   3.838  10.346  0.7882 -1.5419  0.7687
39631SOL    HW226009  11.860   3.960  10.402 -1.5106  1.6870 -2.8585
39632SOL     OW26010   4.991   7.408   9.762  0.0496  0.7483 -0.1962
39632SOL    HW126011   5.044   7.341   9.807 -1.1166  0.0062  0.1209
39632SOL    HW226012   4.920   7.358   9.721 -1.1630  1.8476  0.5177
39633SOL     OW26013   5.787   9.479   5.554 -0.0564 -0.0331  0.0841
39633SOL    HW126014   5.753   9.452   5.468  2.2781 -1.0233 -0.6215
39633SOL    HW226015   5.783   9.400   5.607  0.2698  0.0780  0.2758
39634SOL     OW26016   5.055  12.219  10.021  0.4754 -0.2120  1.0300
39634SOL    HW126017   5.096  12.195   9.938  0.5264  0.2126  0.9303
39634SOL    HW226018   4.983  12.157  10.031  0.9799 -0.8000  1.0792
39635SOL     OW26019   0.135  12.505   1.916 -0.1540  0.0616  0.5058
39635SOL    HW126020   0.082  12.447   1.862  0.4833 -0.0900  0.0263
39635SOL    HW226021   0.109  12.486   2.006 -1.2088  0.2912  0.2594
39636SOL     OW26022   4.474   8.787   9.341  0.0603 -0.1593 -0.1211
39636SOL    HW126023   4.497   8.804   9.432  0.5268  1.3050 -0.4763
39636SOL    HW226024   4.382   8.813   9.334  0.5971  1.7612 -0.5146
39637SOL     OW26025   3.296   1.621   5.567  0.1263  0.1417  0.2641
39637SOL    HW126026   3.220   1.564   5.578 -0.4218  1.2984  3.7318
39637SOL    HW226027   3.259   1.707   5.549  0.6754  0.4564  0.6085
39638SOL     OW26028   5.166   4.535  12.813  0.1582  0.0641 -0.6676
39638SOL    HW126029   5.196   4.445  12.802 -0.0165 -0.2778  1.3336
39638SOL    HW226030   5.189   4.557  12.903 -1.9144  1.2150 -0.3571
39639SOL     OW26031   3.664   9.349   5.088 -0.0617  0.1833 -0.3111
39639SOL    HW126032   3.721   9.419   5.055 -1.9599  2.1650  0.3545
39639SOL    HW226033   3.648   9.373   5.179  1.8160 -2.9598  0.9771
39640SOL     OW26034  10.224   9.046   8.655 -0.4758  0.2990 -0.2812
39640SOL    HW126035  10.308   9.083   8.683 -0.5999  1.1497 -0.9699
39640SOL    HW226036  10.159   9.113   8.678 -0.9413 -0.2780  0.0918
39641SOL     OW26037   3.824   9.455   0.862  0.0495 -0.1505  0.1555
39641SOL    HW126038   3.867   9.541   0.852 -0.0489  0.0239  1.1181
39641SOL    HW226039   3.880   9.408   0.925 -0.8388 -0.1360  0.9769
39642SOL     OW26040  10.029   3.257   8.075 -0.7571  0.2436 -0.5924
39642SOL    HW126041   9.948   3.272   8.026  0.0073  2.4113 -1.3358
39642SOL    HW226042  10.061   3.345   8.095  1.0069 -0.5667  0.3967
39643SOL     OW26043   8.427   7.832   4.671 -0.2743  0.4410  0.2007
39643SOL    HW126044   8.505   7.779   4.685 -0.1433  0.3905 -0.6465
39643SOL    HW226045   8.447   7.916   4.714  0.6658  0.7844 -0.8520
39644SOL     OW26046  11.325   7.779   2.313  0.1847 -0.7181 -0.2702
39644SOL    HW126047  11.383   7.776   2.237 -0.4596 -0.6912 -0.7723
39644SOL    HW226048  11.237   7.766   2.277 -0.5603  2.5989 -0.0036
39645SOL     OW26049  12.078   9.136   8.440  0.3964  0.1197  0.0355
39645SOL    HW126050  12.035   9.061   8.481  0.6721 -0.9832 -1.6188
39645SOL    HW226051  12.072   9.119   8.346  1.0735  1.8477 -0.3590
39646SOL     OW26052  10.318   5.423   0.611 -0.3667 -0.7038  0.1646
39646SOL    HW126053  10.299   5.419   0.705 -1.6252 -1.0387 -0.0782
39646SOL    HW226054  10.252   5.367   0.571  1.1307 -1.8358 -0.8144
39647SOL     OW26055  10.054  12.810   7.508  0.1558 -0.3362 -0.2267
39647SOL    HW126056  10.063  12.876   7.576  0.2339  0.6386 -1.1489
39647SOL    HW226057  10.013  12.735   7.552 -2.3647  1.2246  0.3251
39648SOL     OW26058   9.940   6.495   1.565  0.1754  0.1463  0.1850
39648SOL    HW126059   9.862   6.481   1.618 -1.9828  3.1084 -1.8695
39648SOL    HW226060  10.004   6.534   1.625 -0.2653 -1.2179  1.6195
39649SOL     OW26061   0.762   8.928   1.713  0.8361 -0.3659 -0.4699
39649SOL    HW126062   0.804   8.847   1.684  1.0187 -1.0350  1.5202
39649SOL    HW226063   0.780   8.932   1.807  0.6214  1.8666 -0.4612
39650SOL     OW26064   9.948   2.682  11.519  0.0047 -0.2634  0.6316
39650SOL    HW126065   9.937   2.602  11.468 -1.4525  1.3609 -1.8018
39650SOL    HW226066   9.921   2.752  11.460 -0.1732  1.9357  3.1366
39651SOL     OW26067   0.086  11.138   6.132  0.8893 -0.0345 -0.1001
39651SOL    HW126068   0.108  11.116   6.222 -1.5482 -3.0442 -0.0588
39651SOL    HW226069   0.082  11.233   6.131  0.2225  0.0968  3.1888
39652SOL     OW26070   9.674   0.557   1.488  0.1996  0.2888  0.7249
39652SOL    HW126071   9.644   0.484   1.542  1.4126  0.0827  1.1463
39652SOL    HW226072   9.708   0.517   1.408 -2.2164  0.6319 -0.5702
39653SOL     OW26073   3.597   1.113   6.669  0.0894 -0.2387  0.6972
39653SOL    HW126074   3.572   1.022   6.650 -0.0170  0.0056 -0.3828
39653SOL    HW226075   3.526   1.147   6.722 -0.5484 -0.3802 -0.0471
39654SOL     OW26076   8.268   1.841  10.595  0.6128 -0.3424  0.5698
39654SOL    HW126077   8.200   1.778  10.620 -0.3419 -0.5629 -2.2116
39654SOL    HW226078   8.296   1.879  10.677 -3.0763 -0.0660  1.9002
39655SOL     OW26079  12.814   7.407   3.115 -0.4955  0.4912 -0.1527
39655SOL    HW126080  12.799   7.355   3.035 -0.7786  0.6043 -0.1733
39655SOL    HW226081  12.751   7.374   3.178  0.8359 -0.7734  0.5947
39656SOL     OW26082   7.064   5.836   6.744  0.3550 -0.4243  0.3787
39656SOL    HW126083   7.044   5.900   6.812  2.9181 -0.5250  1.3394
39656SOL    HW226084   7.158   5.817   6.755  0.2125 -2.5916 -1.3669
39657SOL     OW26085   3.526   5.732   2.455  0.0581  0.0894  0.4486
39657SOL    HW126086   3.486   5.694   2.533 -1.2147 -0.1036 -0.2532
39657SOL    HW226087   3.588   5.797   2.488  0.5479 -0.9362  1.6291
39658SOL     OW26088   3.940   3.944   0.238  0.2946 -0.3316 -0.1306
39658SOL    HW126089   3.902   4.021   0.196 -0.4937 -0.9694 -0.6272
39658SOL    HW226090   4.002   3.910   0.173 -1.4502 -1.7341 -1.1604
39659SOL     OW26091   1.732  11.432   2.889 -0.7786  0.4130 -0.0642
39659SOL    HW126092   1.718  11.377   2.966 -2.6163  1.7888  0.6562
39659SOL    HW226093   1.645  11.441   2.850 -0.0600  0.6078 -1.7253
39660SOL     OW26094  11.463   4.264   7.836  0.2852  0.3526 -0.5331
39660SOL    HW126095  11.520   4.331   7.873 -0.9411 -0.4176  3.2194
39660SOL    HW226096  11.376   4.306   7.834  0.1562  0.0522 -1.7956
39661SOL     OW26097  11.653   0.763  11.894 -0.1324  0.7861 -0.4657
39661SOL    HW126098  11.742   0.798  11.900 -0.5664  1.8139  0.4393
39661SOL    HW226099  11.652   0.713  11.813  1.5753 -0.1417  0.0213
39662SOL     OW26100   9.202  11.325  10.423 -0.5662 -0.5739 -0.2829
39662SOL    HW126101   9.214  11.375  10.342  2.0640 -1.4447 -0.5417
39662SOL    HW226102   9.283  11.340  10.472 -1.0129 -2.1283  1.0041
39663SOL     OW26103   5.789  11.631   0.840  0.0696 -0.1540 -0.2823
39663SOL    HW126104   5.793  11.711   0.892 -1.3034  0.3602 -0.9231
39663SOL    HW226105   5.821  11.656   0.754  0.1327 -0.4265 -0.3398
39664SOL     OW26106   0.755  12.377   6.193 -0.4003  0.4898 -0.4332
39664SOL    HW126107   0.677  12.430   6.212  1.0222  2.8368 -0.8011
39664SOL    HW226108   0.743  12.348   6.103 -1.0516  0.4288 -0.3344
39665SOL     OW26109  10.951   3.227  10.164  0.2544  0.3061  0.8177
39665SOL    HW126110  10.954   3.131  10.164 -0.4044  0.2536  2.4039
39665SOL    HW226111  10.857   3.247  10.156  0.4544  0.8660 -0.4316
39666SOL     OW26112   9.914   8.776   6.756  0.1428 -0.6072  0.8297
39666SOL    HW126113   9.839   8.811   6.804 -0.5404 -0.0513 -0.5834
39666SOL    HW226114   9.897   8.682   6.749 -0.0729 -0.5879  1.1118
39667SOL     OW26115   1.645   6.813   4.137 -0.1568  0.1993 -0.0972
39667SOL    HW126116   1.595   6.858   4.069  1.6039  0.8046 -1.0326
39667SOL    HW226117   1.606   6.843   4.219 -0.9717  1.0504 -0.7713
39668SOL     OW26118   5.703   2.805   6.267  0.1796  0.6016 -0.5660
39668SOL    HW126119   5.751   2.855   6.334  0.1698 -0.0796 -0.0340
39668SOL    HW226120   5.704   2.715   6.300  0.6419  0.1528 -1.7569
39669SOL     OW26121  10.709  12.039   0.714 -0.1321 -0.1332 -0.4228
39669SOL    HW126122  10.772  12.001   0.654  1.1816 -0.8143  1.3293
39669SOL    HW226123  10.729  12.001   0.799 -1.1474  1.6915  0.7167
39670SOL     OW26124   8.958   9.250   4.905 -0.1513 -0.0627 -0.2436
39670SOL    HW126125   9.050   9.275   4.898 -0.3365  0.4251 -1.0195
39670SOL    HW226126   8.958   9.155   4.891  0.2501 -0.0902 -0.0650
39671SOL     OW26127  10.326   2.044  12.844 -0.4447  0.1733 -0.2644
39671SOL    HW126128  10.249   2.082  12.801 -1.5761 -0.7533  0.8388
39671SOL    HW226129  10.387   2.117  12.854 -1.5940  1.1702 -0.3005
39672SOL     OW26130   9.377   5.332   8.871  0.2157  0.0234  0.1845
39672SOL    HW126131   9.414   5.420   8.867 -1.4611  0.9493  2.6086
39672SOL    HW226132   9.434   5.285   8.933  0.2117 -0.1088  0.0884
39673SOL     OW26133  10.185   0.823   6.200 -0.3023  0.8291  0.1708
39673SOL    HW126134  10.271   0.780   6.204 -0.7865 -0.4278 -1.5523
39673SOL    HW226135  10.188   0.876   6.120 -0.8170  1.5480  0.6111
39674SOL     OW26136   7.305   0.705   1.208 -0.3151  0.2202  0.1572
39674SOL    HW126137   7.379   0.764   1.224  1.3520 -1.7295  0.1151
39674SOL    HW226138   7.320   0.672   1.120  0.7229 -2.6837  1.2874
39675SOL     OW26139   3.254   8.091   1.373 -0.3012 -0.1734  0.1825
39675SOL    HW126140   3.320   8.144   1.418  0.4442 -0.4559 -0.5499
39675SOL    HW226141   3.304   8.019   1.333 -1.3688 -1.8288  1.6975
39676SOL     OW26142   2.563   1.869   1.593 -0.5616  0.5033 -0.4784
39676SOL    HW126143   2.616   1.890   1.517  0.8287 -0.2602  0.2501
39676SOL    HW226144   2.621   1.881   1.668 -1.1431 -1.1038  0.2956
39677SOL     OW26145  10.192   7.996   6.916  0.0943  0.4570 -0.1701
39677SOL    HW126146  10.161   7.952   6.837  1.5568  0.6827 -0.9164
39677SOL    HW226147  10.116   8.000   6.973 -0.7558 -0.5767 -1.1829
39678SOL     OW26148   6.086   8.038   2.585  0.1494 -0.0382  0.7678
39678SOL    HW126149   6.063   7.946   2.597 -3.0419  0.5242 -0.1991
39678SOL    HW226150   6.057   8.082   2.665 -0.7293  0.4702  0.1884
39679SOL     OW26151   7.937  11.372   5.530 -0.0793 -0.0601 -0.4425
39679SOL    HW126152   7.963  11.378   5.438  0.8561  0.2654 -0.1705
39679SOL    HW226153   7.841  11.371   5.528 -0.0691 -0.1229 -1.4189
39680SOL     OW26154  10.312   4.054   9.023  0.3300  0.6410 -0.0832
39680SOL    HW126155  10.356   4.055   9.108  1.9554  0.0572 -0.8783
39680SOL    HW226156  10.363   4.114   8.969 -2.4417  3.4330  0.0991
39681SOL     OW26157   2.007  11.166   7.481  0.5134 -0.1311 -0.1342
39681SOL    HW126158   1.947  11.136   7.412 -0.6182 -0.4669  0.9672
39681SOL    HW226159   2.057  11.087   7.505 -0.2408 -0.4085  0.5540
39682SOL     OW26160   6.684   8.014  10.643  0.1351 -0.4422 -0.4096
39682SOL    HW126161   6.776   8.004  10.618  0.7033  1.2187  0.8388
39682SOL    HW226162   6.668   7.945  10.706  0.5017 -0.7711 -0.6729
39683SOL     OW26163   2.715   8.106   7.000  0.0835  0.2953 -0.0688
39683SOL    HW126164   2.643   8.169   7.007 -0.2740 -0.1525  0.3614
39683SOL    HW226165   2.775   8.130   7.071 -0.2768 -0.1281  0.3822
39684SOL     OW26166  11.542  12.425   7.082  0.5578  0.0561  0.5352
39684SOL    HW126167  11.464  12.434   7.028  0.5048  0.7376  0.7123
39684SOL    HW226168  11.607  12.384   7.024  0.3087  0.1955  0.1559
39685SOL     OW26169   5.119   2.059   1.396 -0.5903 -0.2300 -0.1122
39685SOL    HW126170   5.069   2.093   1.470 -0.9352  0.9525 -0.8511
39685SOL    HW226171   5.081   1.973   1.378  0.7529 -1.3966  2.2345
39686SOL     OW26172   7.147   3.518   3.681 -0.4331  0.0788 -0.5823
39686SOL    HW126173   7.076   3.454   3.676  0.3894 -1.1766  2.1033
39686SOL    HW226174   7.160   3.533   3.774  1.0092  2.4318 -1.0595
39687SOL     OW26175  11.013   7.448   7.184  0.7397  0.2004 -0.1760
39687SOL    HW126176  11.083   7.477   7.125  1.2614  0.0786  0.3687
39687SOL    HW226177  11.031   7.355   7.198 -0.5397 -0.2514 -1.3886
39688SOL     OW26178   7.203  10.465   8.849 -0.0577 -0.1458 -0.2581
39688SOL    HW126179   7.298  10.478   8.845  0.2348 -2.2071 -1.4679
39688SOL    HW226180   7.180  10.487   8.939  1.5404  0.5843  0.0074
39689SOL     OW26181  11.821   3.875   8.932  0.5570  0.2823 -0.4161
39689SOL    HW126182  11.750   3.917   8.883  0.1671 -1.0779 -1.0607
39689SOL    HW226183  11.784   3.792   8.961  1.3123  0.3597  0.8290
39690SOL     OW26184   4.972   7.692   4.034  0.1925 -0.3665 -0.6769
39690SOL    HW126185   4.912   7.626   3.999 -0.7266 -0.3700  0.8020
39690SOL    HW226186   5.007   7.653   4.114  2.0245 -0.2585 -1.3830
39691SOL     OW26187   8.059   1.671  10.674 -0.4680 -0.2283  0.1176
39691SOL    HW126188   8.001   1.715  10.736 -2.5945 -0.9582 -1.2209
39691SOL    HW226189   8.032   1.579  10.679  2.1609 -1.0428  1.0435
39692SOL     OW26190  10.449   0.244   9.683  0.2515 -0.0394 -0.4492
39692SOL    HW126191  10.532   0.280   9.652 -0.0337  0.0311 -1.1637
39692SOL    HW226192  10.397   0.321   9.708  1.2194 -0.1796  2.2283
39693SOL     OW26193   4.153  10.990   4.571 -0.2036 -0.2526 -0.2693
39693SOL    HW126194   4.078  11.039   4.604  0.0604  0.5313 -0.7954
39693SOL    HW226195   4.183  10.938   4.646 -0.2076  0.7529  0.4542
39694SOL     OW26196  11.152   5.563   1.981 -0.3211 -0.0444 -0.4094
39694SOL    HW126197  11.156   5.486   2.038 -1.0806 -0.5986 -1.0818
39694SOL    HW226198  11.243   5.591   1.972  0.0733 -1.3964 -0.8472
39695SOL     OW26199   9.664  10.612   3.681  0.3677  0.2394 -0.0046
39695SOL    HW126200   9.684  10.549   3.612 -2.1996  0.1904 -0.7884
39695SOL    HW226201   9.661  10.697   3.636 -1.6613  0.1657 -0.1009
39696SOL     OW26202   8.149   1.533   1.201  0.3247  0.5397 -0.3633
39696SOL    HW126203   8.140   1.453   1.253  2.9038  0.4150  0.0253
39696SOL    HW226204   8.069   1.582   1.218  1.0813  0.6524  4.0487
39697SOL     OW26205   2.413   4.199   6.211 -0.7421  0.1546  0.2424
39697SOL    HW126206   2.428   4.106   6.228  0.2548  0.5504  1.7418
39697SOL    HW226207   2.484   4.224   6.152  0.3856  0.4449  1.6739
39698SOL     OW26208   0.920   6.268   4.024 -0.0627 -0.0709 -0.0958
39698SOL    HW126209   1.015   6.279   4.030  0.0753  0.1281 -2.0146
39698SOL    HW226210   0.908   6.203   3.955 -1.3044 -1.6328  1.4736
39699SOL     OW26211   7.607   9.452   3.417 -0.1917 -0.1983  0.2259
39699SOL    HW126212   7.608   9.547   3.407 -0.6904 -0.2528 -0.4122
39699SOL    HW226213   7.553   9.436   3.494  0.2452  0.0533  0.5868
39700SOL     OW26214   0.574   6.841  11.010 -0.0165  0.3132  0.0578
39700SOL    HW126215   0.492   6.857  10.962  0.0778  0.4552 -0.0552
39700SOL    HW226216   0.614   6.927  11.018 -0.3536  0.3890  0.9731
39701SOL     OW26217   9.653   9.564   9.455  0.5935  0.3868 -0.2476
39701SOL    HW126218   9.586   9.538   9.518  1.1997 -1.1527 -0.1911
39701SOL    HW226219   9.610   9.629   9.399 -0.3755  0.7485  0.8804
39702SOL     OW26220  12.769  10.530   1.288  0.1016 -0.1760  0.3475
39702SOL    HW126221  12.731  10.465   1.347  0.5317  0.4541  1.3448
39702SOL    HW226222  12.814  10.592   1.346  1.3406 -0.0517 -0.6914
39703SOL     OW26223   4.497   5.345  12.219  0.4186 -0.6730  0.2398
39703SOL    HW126224   4.552   5.424  12.219  1.1570 -1.1686  0.9113
39703SOL    HW226225   4.438   5.357  12.293 -0.8128  0.1312 -0.8362
39704SOL     OW26226   5.805   2.652   4.118  0.2006  0.0632  0.1002
39704SOL    HW126227   5.885   2.657   4.170  0.0272 -1.0944  0.5193
39704SOL    HW226228   5.745   2.600   4.172 -0.2953 -0.4144 -0.8841
39705SOL     OW26229   3.283   7.326   8.709  0.0427  0.1207 -0.1112
39705SOL    HW126230   3.263   7.245   8.756  0.3680 -0.3593 -0.7831
39705SOL    HW226231   3.345   7.372   8.764  2.0674 -1.4094 -0.9915
39706SOL     OW26232  10.061   0.965   3.459 -0.2415 -0.4552 -0.0312
39706SOL    HW126233   9.998   0.922   3.517 -0.2737 -1.3152 -0.6760
39706SOL    HW226234  10.049   0.921   3.375  0.1125  0.4727 -0.5732
39707SOL     OW26235   4.094   3.070   9.468  0.0500 -0.6052 -0.2029
39707SOL    HW126236   4.061   3.073   9.558 -0.9871  0.6160 -0.5941
39707SOL    HW226237   4.030   3.018   9.420 -0.9265  1.0263 -0.7734
39708SOL     OW26238   9.520   9.685   2.944 -0.3452  0.0910  0.1488
39708SOL    HW126239   9.588   9.618   2.941  0.4189  0.6480  2.5935
39708SOL    HW226240   9.554   9.756   2.889 -0.0992 -0.6080 -0.6113
39709SOL     OW26241   9.767  12.310  12.910  0.1790  0.4372 -0.3454
39709SOL    HW126242   9.782  12.225  12.952  2.0225  0.7058 -0.4114
39709SOL    HW226243   9.681  12.337  12.943  0.3052 -0.6757  1.0136
39710SOL     OW26244   4.910   1.886   8.898  0.2755 -0.0265  0.5686
39710SOL    HW126245   4.886   1.839   8.818  1.8357  1.7057 -1.0213
39710SOL    HW226246   4.986   1.838   8.932  0.2907 -0.1339  0.3841
39711SOL     OW26247   3.947   4.882   1.070 -0.3410  0.2770 -0.4246
39711SOL    HW126248   4.033   4.921   1.083 -0.0881  0.0327 -1.3102
39711SOL    HW226249   3.909   4.877   1.158  0.2417  1.0760 -0.1183
39712SOL     OW26250   0.815  11.468   5.043 -0.7215 -0.6191 -0.1043
39712SOL    HW126251   0.884  11.436   5.102  1.2207  0.4773 -1.6417
39712SOL    HW226252   0.733  11.446   5.087  0.6123 -0.1898  2.8134
39713SOL     OW26253   4.437   4.585   2.354 -0.3980  0.4109  0.2150
39713SOL    HW126254   4.470   4.526   2.422 -1.4376  0.0773  0.4401
39713SOL    HW226255   4.462   4.672   2.386 -1.7494  0.3463  1.5645
39714SOL     OW26256   4.586   9.633   3.003  0.0612  0.3621 -0.4374
39714SOL    HW126257   4.644   9.564   2.970 -1.2840 -0.5082 -1.0486
39714SOL    HW226258   4.644   9.689   3.055  1.6223  0.0149 -1.7076
39715SOL     OW26259   1.218   9.766   8.786 -0.0935  0.1354 -0.4137
39715SOL    HW126260   1.237   9.859   8.782  0.3398  0.0904  0.3215
39715SOL    HW226261   1.263   9.736   8.865  0.2985 -0.8141 -0.9752
39716SOL     OW26262   7.591   3.495   3.399  0.1708  0.1138 -0.4454
39716SOL    HW126263   7.500   3.510   3.425 -0.4495 -1.0808 -1.7573
39716SOL    HW226264   7.591   3.512   3.304  0.9833 -1.2124 -0.7062
39717SOL     OW26265  12.494   3.702   9.444 -0.0942 -0.1421 -0.0358
39717SOL    HW126266  12.530   3.737   9.362 -0.6864  0.6812  0.0409
39717SOL    HW226267  12.532   3.614   9.451  0.0172 -0.2049 -1.1616
39718SOL     OW26268  11.716   2.184   8.432 -0.5386 -0.4782  0.0319
39718SOL    HW126269  11.646   2.198   8.497  0.6101  1.0912  1.0022
39718SOL    HW226270  11.691   2.104   8.388 -2.5658 -0.3832  0.8724
39719SOL     OW26271   1.198   9.936   7.878  0.1611 -0.2848 -0.5786
39719SOL    HW126272   1.150   9.999   7.826 -1.7568 -2.3428 -1.4504
39719SOL    HW226273   1.143   9.921   7.955  0.6468 -0.7959 -0.3198
39720SOL     OW26274   5.128  10.421   2.175  0.8799  0.0209  0.5127
39720SOL    HW126275   5.136  10.486   2.245 -0.9025 -0.5690  1.3350
39720SOL    HW226276   5.175  10.458   2.101  0.4146  1.9784  1.1469
39721SOL     OW26277   4.319   3.475  11.785 -0.0372  0.0157  0.2684
39721SOL    HW126278   4.386   3.462  11.851  1.7551 -0.5411 -1.5597
39721SOL    HW226279   4.249   3.415  11.809  1.2544 -1.3361  0.7883
39722SOL     OW26280   2.994   4.367  10.808 -0.2977 -0.1210  0.0802
39722SOL    HW126281   3.067   4.409  10.761  0.2285  0.5266  1.4312
39722SOL    HW226282   2.999   4.275  10.783 -0.5607  0.3257 -1.7827
39723SOL     OW26283   8.544   5.557   9.309  0.3024 -0.0814 -0.1061
39723SOL    HW126284   8.635   5.527   9.310  0.1119 -1.0117 -2.9693
39723SOL    HW226285   8.532   5.601   9.393  2.5288 -2.4444  1.6069
39724SOL     OW26286  11.619   6.675   0.085  0.1349 -0.2693  0.8974
39724SOL    HW126287  11.672   6.667   0.165  1.8560 -0.3218 -0.2032
39724SOL    HW226288  11.593   6.585   0.064  3.1081 -0.8481 -0.7756
39725SOL     OW26289  11.410   5.827  10.584  0.6959  0.1972 -0.1246
39725SOL    HW126290  11.370   5.752  10.541 -1.1949  0.5224  0.9235
39725SOL    HW226291  11.340   5.892  10.588  1.4211  0.9510  1.4863
39726SOL     OW26292   3.927   9.698  10.843  0.1420 -0.3408  0.5284
39726SOL    HW126293   3.977   9.719  10.764 -1.9080  0.7287 -0.5906
39726SOL    HW226294   3.938   9.774  10.900 -0.2129 -0.0814  0.2590
39727SOL     OW26295   4.987   4.992   4.321  0.6582 -0.6010 -0.3128
39727SOL    HW126296   4.933   4.919   4.352 -0.5677  0.4118  0.0246
39727SOL    HW226297   5.040   5.016   4.397 -0.8649  0.5409  0.4606
39728SOL     OW26298   4.347  12.474   3.796  0.1947 -0.0723 -0.2823
39728SOL    HW126299   4.342  12.460   3.701 -2.3580 -0.0156 -0.2060
39728SOL    HW226300   4.385  12.561   3.805 -0.3710  0.2991 -1.2923
39729SOL     OW26301   6.407  11.011   6.547 -0.0272 -0.3711 -0.4045
39729SOL    HW126302   6.489  10.975   6.511  0.5943 -0.8456  1.3791
39729SOL    HW226303   6.338  10.969   6.496  0.7945 -1.3356 -0.7563
39730SOL     OW26304   5.184   3.757   5.192  0.3607 -0.4082  0.0908
39730SOL    HW126305   5.187   3.813   5.115  0.9500 -0.0150  0.3974
39730SOL    HW226306   5.272   3.719   5.198  0.0937 -1.0432  0.1299
39731SOL     OW26307  10.357   4.421   0.518 -0.6087  0.2340 -0.0075
39731SOL    HW126308  10.443   4.379   0.520 -1.4825 -1.8065 -1.1759
39731SOL    HW226309  10.374   4.513   0.533  1.5263 -0.4253  2.1982
39732SOL     OW26310   1.729   9.416   9.211 -0.2187 -0.2489  0.1997
39732SOL    HW126311   1.649   9.464   9.191  0.1210  0.8327  1.3152
39732SOL    HW226312   1.795   9.484   9.224  0.8324 -1.1180 -0.4886
39733SOL     OW26313   2.342   6.751   9.450  0.3581  0.5218  0.3973
39733SOL    HW126314   2.336   6.679   9.513 -0.6303 -0.1546 -0.4261
39733SOL    HW226315   2.292   6.822   9.490 -2.4461 -0.7077 -0.6023
39734SOL     OW26316  11.471  11.442   3.951  0.0863 -0.2977 -0.3681
39734SOL    HW126317  11.479  11.360   3.999 -0.6243  0.1443  0.5228
39734SOL    HW226318  11.453  11.508   4.018 -1.2222  0.2852 -1.2480
39735SOL     OW26319   1.124   3.289   0.340 -0.2517  0.4137 -0.1389
39735SOL    HW126320   1.169   3.215   0.300 -0.5826 -0.4945  1.1208
39735SOL    HW226321   1.132   3.359   0.275  0.5915 -0.5292 -1.0992
39736SOL     OW26322   9.469   9.549  10.349 -0.4821  0.9423  0.3170
39736SOL    HW126323   9.432   9.464  10.328 -0.9335  1.6921 -2.3198
39736SOL    HW226324   9.394   9.603  10.372 -0.7096  1.5857 -1.7707
39737SOL     OW26325   1.560  11.784   0.246 -0.3371 -0.0913 -0.4261
39737SOL    HW126326   1.628  11.816   0.305 -0.6517 -0.9710  0.4356
39737SOL    HW226327   1.550  11.854   0.181  2.0161 -0.3069 -1.1331
39738SOL     OW26328   8.761   2.839   2.537  0.1944 -0.4459 -0.5953
39738SOL    HW126329   8.800   2.792   2.463  0.3913 -1.1975 -0.0320
39738SOL    HW226330   8.752   2.772   2.606 -1.9090 -0.2813 -0.6229
39739SOL     OW26331  12.177   4.229   0.248 -0.2373 -0.4533 -0.0307
39739SOL    HW126332  12.158   4.282   0.326  0.4219 -0.0037 -0.1670
39739SOL    HW226333  12.207   4.145   0.283 -1.0488 -0.6582  0.1909
39740SOL     OW26334   1.660   6.897  10.628 -0.3243  0.1637  0.1954
39740SOL    HW126335   1.583   6.914  10.682 -0.3155  0.1092  0.2253
39740SOL    HW226336   1.654   6.804  10.607 -0.0278  0.0559  0.5779
39741SOL     OW26337   9.115   2.604  10.113  0.0339  0.3989  0.3106
39741SOL    HW126338   9.150   2.555  10.187  1.0595 -0.0535 -0.4470
39741SOL    HW226339   9.191   2.648  10.075 -0.4371  0.4669 -0.5841
39742SOL     OW26340   5.180   2.701  10.220  0.6115 -0.0257  0.0079
39742SOL    HW126341   5.098   2.655  10.237  1.0311 -0.3967  1.0972
39742SOL    HW226342   5.165   2.790  10.252  0.7518 -0.1901  0.5296
39743SOL     OW26343  10.920   5.201  12.482  0.4168 -0.1760 -0.0649
39743SOL    HW126344  11.013   5.213  12.503  0.5817 -0.1283 -0.8045
39743SOL    HW226345  10.874   5.224  12.563  0.9829  0.8715 -0.0294
39744SOL     OW26346   8.681  12.575   3.341 -0.2107 -0.2965  0.1353
39744SOL    HW126347   8.621  12.522   3.289 -2.0080  1.2969  0.4901
39744SOL    HW226348   8.725  12.513   3.398 -1.8801 -1.4785  0.1961
39745SOL     OW26349   8.790   7.991   7.869  0.0320 -0.1307  0.0275
39745SOL    HW126350   8.734   7.935   7.923  0.6746 -0.0950  0.7410
39745SOL    HW226351   8.754   7.982   7.780 -0.3046 -1.1196  0.2541
39746SOL     OW26352  11.189   0.933   6.458 -0.1692  0.2968  0.5751
39746SOL    HW126353  11.186   0.851   6.409  0.8853  0.3230  0.4532
39746SOL    HW226354  11.131   0.918   6.533  0.6390 -0.8671  0.9957
39747SOL     OW26355   1.027  11.029   5.954  0.6991 -0.3157  0.0740
39747SOL    HW126356   1.061  10.953   5.907 -0.1336 -1.4252  1.1881
39747SOL    HW226357   0.983  11.082   5.887  0.3477 -1.3748 -0.5558
39748SOL     OW26358   1.933   6.385   9.947  0.9149 -0.2571 -0.1431
39748SOL    HW126359   1.995   6.458   9.940 -0.8525  1.3244 -0.2460
39748SOL    HW226360   1.874   6.396   9.872 -0.9474 -0.2161  1.2517
39749SOL     OW26361   2.611   1.410   8.047  0.0384  0.5201  0.1628
39749SOL    HW126362   2.625   1.495   8.089  1.5134 -0.2852  1.3881
39749SOL    HW226363   2.641   1.423   7.957 -0.4810  1.4999  0.1204
39750SOL     OW26364  12.503  10.016   1.584  0.3760 -0.5051  0.0968
39750SOL    HW126365  12.593  10.044   1.566  0.1181  0.2556 -0.0229
39750SOL    HW226366  12.494  10.023   1.679  0.6847 -1.3459  0.1997
39751SOL     OW26367  10.991   7.742   5.969 -0.1058  0.0204  0.2384
39751SOL    HW126368  11.015   7.825   6.011  0.9809  0.3723 -1.0013
39751SOL    HW226369  11.019   7.675   6.032  1.5641  0.5303  0.0918
39752SOL     OW26370  11.996   1.900   6.895  0.1642 -0.1566  0.4090
39752SOL    HW126371  12.038   1.958   6.832 -1.6593 -0.6021 -1.3086
39752SOL    HW226372  11.923   1.951   6.930 -2.0547 -1.5706 -1.8281
39753SOL     OW26373  12.697  12.240  11.076 -0.1911  0.0767 -0.0339
39753SOL    HW126374  12.648  12.177  11.023 -0.8951 -0.9573  1.7544
39753SOL    HW226375  12.635  12.311  11.092  0.2607  0.7546 -1.1591
39754SOL     OW26376   3.953  11.232   5.294 -0.5102 -0.1119  0.0509
39754SOL    HW126377   3.963  11.326   5.310 -0.9113 -0.3468  1.8957
39754SOL    HW226378   3.868  11.224   5.251 -0.1337  0.4150 -0.8209
39755SOL     OW26379   5.560   7.534   4.858  0.0105  0.1455  0.3534
39755SOL    HW126380   5.612   7.565   4.784  2.8798 -0.1874  2.0926
39755SOL    HW226381   5.537   7.444   4.835 -0.8514  0.6508 -0.9196
39756SOL     OW26382  12.203  11.900  10.058  0.3571  0.4458 -0.3950
39756SOL    HW126383  12.240  11.833  10.117 -1.0317  1.8730  2.3043
39756SOL    HW226384  12.267  11.971  10.060  0.3601  0.4537 -0.7393
39757SOL     OW26385   5.294  12.966   6.538  0.2273 -0.3108  0.7580
39757SOL    HW126386   5.335  12.906   6.476  0.6286  0.1565  0.5606
39757SOL    HW226387   5.365  13.024   6.566 -0.2608  0.4380  0.4951
39758SOL     OW26388   9.224  10.489   7.524  0.1795 -0.4962 -0.4321
39758SOL    HW126389   9.221  10.512   7.431 -0.3926  2.0344  0.1392
39758SOL    HW226390   9.316  10.497   7.547  0.3562 -1.3306 -0.7884
39759SOL     OW26391   7.348   8.037   6.501 -0.1231 -0.8057 -0.0188
39759SOL    HW126392   7.419   8.081   6.548 -1.4381  1.7178 -0.1978
39759SOL    HW226393   7.327   7.961   6.555  0.9980 -0.1446  1.4070
39760SOL     OW26394   8.770  12.548  10.191  0.1874  0.4668 -0.3341
39760SOL    HW126395   8.678  12.562  10.170  0.1131  1.3832  0.5358
39760SOL    HW226396   8.797  12.475  10.135 -1.0340  0.2589 -0.6692
39761SOL     OW26397   0.666   0.099   7.147  0.4837 -0.3988 -0.4202
39761SOL    HW126398   0.571   0.094   7.146  0.5282 -1.4198 -0.4103
39761SOL    HW226399   0.687   0.149   7.226 -0.0816  1.3761 -1.3390
39762SOL     OW26400   5.885  11.637   8.073  0.5824 -0.4706  0.2354
39762SOL    HW126401   5.868  11.632   7.979  0.0404  0.4387  0.2719
39762SOL    HW226402   5.962  11.693   8.081 -0.9351  1.7212  0.4276
39763SOL     OW26403   9.682   0.670   4.961  0.3684  0.1914 -0.2724
39763SOL    HW126404   9.737   0.591   4.954 -0.0856  0.0159 -2.3687
39763SOL    HW226405   9.604   0.640   5.008  1.5002  0.1668  1.6967
39764SOL     OW26406   7.413   8.661   8.976  0.2943  0.3327 -0.0388
39764SOL    HW126407   7.322   8.664   9.005 -0.0293 -1.8483 -0.6561
39764SOL    HW226408   7.464   8.648   9.056  0.0647  1.2880  0.2774
39765SOL     OW26409   6.795   0.335  10.944  0.2559 -0.7263 -0.1978
39765SOL    HW126410   6.824   0.288  11.023 -1.3932 -1.6547 -0.0977
39765SOL    HW226411   6.869   0.391  10.921  0.7138 -0.2482  2.1355
39766SOL     OW26412  12.722   1.508   1.953 -0.3521 -0.2224  0.4850
39766SOL    HW126413  12.754   1.431   1.906  2.2473  0.3589  1.1978
39766SOL    HW226414  12.702   1.571   1.883  1.3342 -0.1596  0.0220
39767SOL     OW26415  11.745   7.537   0.171  1.0586  0.4244 -0.0543
39767SOL    HW126416  11.705   7.556   0.086 -1.2872 -0.8229  0.6750
39767SOL    HW226417  11.735   7.618   0.221 -0.2583  0.2837 -0.0431
39768SOL     OW26418   6.024   3.028   4.471  0.3485 -0.3452  0.2918
39768SOL    HW126419   6.041   2.989   4.386 -0.1562  1.7143 -0.8296
39768SOL    HW226420   5.954   2.975   4.509 -0.6702 -0.2633 -1.3675
39769SOL     OW26421   8.714  12.086   5.087  0.5117  0.2703 -0.1297
39769SOL    HW126422   8.701  12.110   5.179 -1.1476  1.4048 -0.5930
39769SOL    HW226423   8.805  12.108   5.069  1.1945 -0.9849  1.4950
39770SOL     OW26424  10.742  10.991  10.684 -0.0896 -0.1154 -0.2304
39770SOL    HW126425  10.740  10.923  10.617 -1.3988  0.1925 -0.5269
39770SOL    HW226426  10.804  11.056  10.649 -0.0746 -0.3879 -0.7232
39771SOL     OW26427  10.324   4.120  11.215 -0.0360  0.1592 -0.4841
39771SOL    HW126428  10.352   4.089  11.129 -2.1654 -1.8333 -0.5554
39771SOL    HW226429  10.266   4.194  11.196  2.0627  1.9165 -0.5005
39772SOL     OW26430   4.017   5.460   9.586  0.1693 -0.4283  0.2133
39772SOL    HW126431   4.000   5.370   9.557  0.6725 -0.8509  1.1770
39772SOL    HW226432   4.112   5.470   9.579  0.3982 -0.7502  2.1626
39773SOL     OW26433   4.366  11.592   6.727 -0.0180 -0.2875 -0.2964
39773SOL    HW126434   4.388  11.684   6.740  0.5362 -0.3628 -0.7234
39773SOL    HW226435   4.281  11.594   6.683 -1.6339 -0.0119  2.5855
39774SOL     OW26436   0.297  11.079  11.275  1.0727 -0.1189  0.1992
39774SOL    HW126437   0.328  11.167  11.253  0.5559 -0.5209 -2.5102
39774SOL    HW226438   0.207  11.076  11.244  0.7841 -1.3334  1.0696
39775SOL     OW26439   1.141  10.788  12.901  0.2304  0.1262  0.4575
39775SOL    HW126440   1.069  10.826  12.852 -0.0331 -1.0442 -0.1049
39775SOL    HW226441   1.148  10.698  12.868  1.8811  0.1802  0.5634
39776SOL     OW26442  12.601   4.930   9.091 -0.0791  0.4100  0.2139
39776SOL    HW126443  12.515   4.973   9.089 -0.3047  0.0902  1.8262
39776SOL    HW226444  12.593   4.860   9.026 -0.6859  1.0076 -0.3790
39777SOL     OW26445   0.672   9.800   9.137 -0.6813 -0.6213 -0.0618
39777SOL    HW126446   0.713   9.815   9.222  0.1915 -2.7824 -0.0223
39777SOL    HW226447   0.597   9.860   9.135  0.7347  1.2858  1.1374
39778SOL     OW26448  11.564   8.478   1.088  0.2839  0.2627  0.2627
39778SOL    HW126449  11.637   8.538   1.072 -1.0382  1.2451 -2.9029
39778SOL    HW226450  11.594   8.394   1.053  1.0514 -0.2203  2.0003
39779SOL     OW26451   7.244   5.703  11.519 -0.0501  0.0338 -0.0228
39779SOL    HW126452   7.331   5.743  11.518  0.1949 -0.4024  1.8692
39779SOL    HW226453   7.260   5.611  11.539 -1.0591  0.5445  4.0053
39780SOL     OW26454   1.870   5.398   2.290 -0.1085  0.6299  0.7982
39780SOL    HW126455   1.802   5.334   2.312 -0.0439  0.3607  0.2242
39780SOL    HW226456   1.824   5.483   2.292 -1.1795  0.2227 -2.3400
39781SOL     OW26457  10.912   7.188   2.094  0.2423 -0.0050 -0.1122
39781SOL    HW126458  10.927   7.095   2.108  2.0364  0.2018 -0.4301
39781SOL    HW226459  10.887   7.222   2.180  0.8007 -0.5582  0.2727
39782SOL     OW26460   7.901   6.866   2.855 -0.1378  0.0343  0.2984
39782SOL    HW126461   7.899   6.782   2.901  2.5163 -0.3559 -0.1182
39782SOL    HW226462   7.837   6.857   2.785 -0.5681 -1.2823  0.8372
39783SOL     OW26463   4.434  12.068   1.245 -0.1584  0.3590 -0.4593
39783SOL    HW126464   4.353  12.059   1.295 -0.7410 -1.8021 -1.6272
39783SOL    HW226465   4.489  11.996   1.277  0.8665  1.1379 -0.4458
39784SOL     OW26466   6.341   0.068   1.167  0.2128 -0.1809 -0.1322
39784SOL    HW126467   6.289   0.007   1.115  0.2620  0.4589 -0.9459
39784SOL    HW226468   6.320   0.046   1.258  0.6921 -1.8072 -0.3816
39785SOL     OW26469   9.811   1.773   8.974  0.5379  0.1981  0.9785
39785SOL    HW126470   9.787   1.729   8.893  1.3625  0.0710  0.7961
39785SOL    HW226471   9.765   1.724   9.042  0.4758 -0.1857  0.6618
39786SOL     OW26472   1.372   1.444   9.880  0.3124 -0.2337  0.1791
39786SOL    HW126473   1.281   1.415   9.874 -0.1105  0.8678  0.9293
39786SOL    HW226474   1.372   1.507   9.952  1.8526 -0.8534  0.7540
39787SOL     OW26475   6.516   4.158  10.305 -0.1604  0.0553  0.4008
39787SOL    HW126476   6.537   4.205  10.386 -0.1541 -1.5568  1.3675
39787SOL    HW226477   6.430   4.191  10.280 -0.2759  0.3918  1.2080
39788SOL     OW26478   0.955   4.857   9.946 -0.0824 -0.3452  0.1977
39788SOL    HW126479   0.885   4.880   9.885 -0.3042  0.8398  0.8654
39788SOL    HW226480   1.035   4.857   9.892 -0.3236  0.3246 -0.1731
39789SOL     OW26481  10.797   1.951   4.631  0.0076 -0.0340 -0.0118
39789SOL    HW126482  10.810   1.913   4.544  2.7124  0.1822  0.2322
39789SOL    HW226483  10.775   2.043   4.614 -1.8440 -0.5043 -0.4584
39790SOL     OW26484   8.213   0.943   5.263 -0.3482 -0.2920 -0.1865
39790SOL    HW126485   8.180   1.001   5.195 -0.0615 -0.1041 -0.1692
39790SOL    HW226486   8.271   0.999   5.315 -0.1850 -0.5576 -0.0822
39791SOL     OW26487   2.223   0.529   7.003 -0.0290  0.2058  0.1981
39791SOL    HW126488   2.224   0.440   6.967  1.7600  0.0333  0.5656
39791SOL    HW226489   2.294   0.574   6.957 -0.0714  1.0513  0.9344
39792SOL     OW26490  12.220   6.694   9.279  0.2604  0.1657  0.7346
39792SOL    HW126491  12.130   6.681   9.249  0.5272  0.1735 -0.1055
39792SOL    HW226492  12.238   6.619   9.336  0.3546 -0.8895 -0.6349
39793SOL     OW26493  10.940  10.720   9.350 -0.0217 -0.4537 -0.0747
39793SOL    HW126494  10.982  10.749   9.431 -1.0028  1.5451 -0.2251
39793SOL    HW226495  11.011  10.677   9.301  1.5143  1.4159  0.3448
39794SOL     OW26496   2.910  12.364   2.791  0.0239  0.3177  0.1121
39794SOL    HW126497   2.986  12.422   2.790  0.1025  0.2968  1.7458
39794SOL    HW226498   2.894  12.343   2.699  0.4241  2.3384 -0.4598
39795SOL     OW26499   7.125   3.897   8.306 -0.0009 -0.4360 -0.2849
39795SOL    HW126500   7.111   3.991   8.307 -0.5102 -0.4580 -2.0223
39795SOL    HW226501   7.041   3.860   8.277 -0.2640 -1.5593  1.6646
39796SOL     OW26502   9.692  11.230   0.776 -0.2657  0.3806 -0.3824
39796SOL    HW126503   9.617  11.266   0.824  2.0002  1.3821  2.6777
39796SOL    HW226504   9.707  11.144   0.817 -0.2818 -0.2492 -1.6479
39797SOL     OW26505   6.857  10.773   0.710 -0.2061 -0.4378  0.7624
39797SOL    HW126506   6.923  10.788   0.778  0.0898 -0.9674  0.5913
39797SOL    HW226507   6.783  10.735   0.757 -0.0242 -0.7466  0.7994
39798SOL     OW26508   7.705   9.477   9.318  0.5110 -0.3559  0.4052
39798SOL    HW126509   7.779   9.417   9.314  2.4814  1.7377  2.4667
39798SOL    HW226510   7.716   9.533   9.241  1.0807 -0.0499  0.7058
39799SOL     OW26511   5.789   3.473   2.096 -0.1256  0.2689  0.2314
39799SOL    HW126512   5.819   3.421   2.171  1.3707  1.4808  0.5148
39799SOL    HW226513   5.829   3.431   2.020 -2.5846 -1.6830 -0.1273
39800SOL     OW26514   0.554   9.123   4.397 -0.5097 -0.1683  0.3060
39800SOL    HW126515   0.565   9.100   4.304 -0.8487 -0.0178  0.2255
39800SOL    HW226516   0.480   9.184   4.398  0.3448  0.8896  0.5264
39801SOL     OW26517   6.812   3.226   7.850 -0.5404 -0.4588 -0.6993
39801SOL    HW126518   6.819   3.248   7.757  0.1793  1.3279 -0.2422
39801SOL    HW226519   6.877   3.157   7.863  1.6311  1.4539 -0.9038
39802SOL     OW26520   3.483   3.796   0.474 -0.4708  0.2145  0.2186
39802SOL    HW126521   3.462   3.725   0.413 -1.5658  1.4357 -0.8846
39802SOL    HW226522   3.559   3.839   0.435 -0.5971  0.4271  0.2081
39803SOL     OW26523  10.208   8.056   8.479 -0.3072  0.4043  0.0343
39803SOL    HW126524  10.238   8.043   8.390 -0.0867 -1.4147  0.3335
39803SOL    HW226525  10.120   8.017   8.481  0.1425 -0.6422  0.8537
39804SOL     OW26526   0.455  12.363   3.210  0.0872 -0.2340  0.2609
39804SOL    HW126527   0.514  12.404   3.147 -0.4677 -0.2180 -0.2605
39804SOL    HW226528   0.371  12.357   3.164 -0.3401 -0.1877  1.0127
39805SOL     OW26529  12.579   2.339  12.684  0.4365  0.0190  0.0477
39805SOL    HW126530  12.507   2.385  12.727 -2.0393 -2.1138 -1.5094
39805SOL    HW226531  12.599   2.393  12.607 -2.6684 -1.3595 -1.9515
39806SOL     OW26532   9.126   9.865   3.287  0.3073  0.2174  0.0586
39806SOL    HW126533   9.111   9.827   3.201  0.9698  0.4032 -0.1436
39806SOL    HW226534   9.062   9.822   3.344 -0.8499  0.8619 -0.7221
39807SOL     OW26535   9.000   2.341   9.998  0.1293  0.5374 -0.0525
39807SOL    HW126536   8.959   2.341  10.085 -0.9276  0.9266 -0.5270
39807SOL    HW226537   9.090   2.368  10.014 -0.2295  1.2704  0.8634
39808SOL     OW26538   0.465   0.403   9.193  0.1528 -0.2650  0.1273
39808SOL    HW126539   0.381   0.439   9.165  0.1472  0.8479  1.4250
39808SOL    HW226540   0.485   0.450   9.275  1.4381 -1.3901  0.5025
39809SOL     OW26541   6.263  10.800   2.609  0.3544 -0.4085 -0.1576
39809SOL    HW126542   6.223  10.884   2.585  2.6834  0.4126 -1.4799
39809SOL    HW226543   6.303  10.816   2.694 -1.2074 -0.9683  0.7389
39810SOL     OW26544  10.076   1.426   4.022  0.6385 -0.3499  0.0030
39810SOL    HW126545  10.119   1.492   4.077 -0.5109 -1.4062  2.2916
39810SOL    HW226546   9.983   1.439   4.038  0.3694 -2.0174 -0.1288
39811SOL     OW26547   7.005   4.930   4.268  0.0637  0.7390  0.3517
39811SOL    HW126548   6.938   4.997   4.261  2.8342  3.6082 -1.1953
39811SOL    HW226549   7.057   4.956   4.345 -0.0220 -0.9258  1.0221
39812SOL     OW26550   8.674   7.724   8.411 -0.0435 -0.3637  0.2268
39812SOL    HW126551   8.698   7.750   8.500  0.1589 -2.2659  0.7524
39812SOL    HW226552   8.733   7.652   8.390  0.6660  0.7478 -1.8996
39813SOL     OW26553   4.037  11.951   7.688 -0.5648 -0.6044  0.5550
39813SOL    HW126554   3.949  11.987   7.678 -0.1260  1.1997  2.3890
39813SOL    HW226555   4.039  11.876   7.630 -2.4124  0.8850 -1.6074
39814SOL     OW26556   5.385   9.255   2.743  0.1440 -0.2832 -0.2093
39814SOL    HW126557   5.475   9.280   2.724  0.3487 -0.7825  0.0740
39814SOL    HW226558   5.363   9.190   2.676  1.1425 -2.6566  1.6124
39815SOL     OW26559   9.554   4.563  11.280  0.3659  0.7442  0.3685
39815SOL    HW126560   9.630   4.572  11.338  0.7369 -0.8588  0.1755
39815SOL    HW226561   9.591   4.538  11.196 -0.4104 -1.5872  0.6405
39816SOL     OW26562  10.613   5.539   2.541 -0.3220  0.2634  0.1376
39816SOL    HW126563  10.564   5.596   2.481 -0.5084  0.6088  0.6084
39816SOL    HW226564  10.605   5.452   2.503  1.8408  0.8066 -1.8553
39817SOL     OW26565   4.546  11.309  12.212 -0.5087 -0.1474  0.2226
39817SOL    HW126566   4.541  11.356  12.295  2.1750  0.9853 -0.1531
39817SOL    HW226567   4.546  11.378  12.145  1.8250 -0.6987 -0.4354
39818SOL     OW26568   6.512   4.220   6.742  0.4193 -0.0324  0.2849
39818SOL    HW126569   6.578   4.170   6.791  1.8660  1.2360 -0.2744
39818SOL    HW226570   6.464   4.268   6.809  0.4540 -0.4959  0.6545
39819SOL     OW26571   9.454   0.678  10.153  0.2599 -0.1061 -0.3718
39819SOL    HW126572   9.411   0.713  10.231  0.9558 -1.8080  0.8292
39819SOL    HW226573   9.445   0.583  10.161 -0.9684 -0.3463 -3.1617
39820SOL     OW26574  12.846   7.854   3.637  0.0418 -0.2081 -0.1957
39820SOL    HW126575  12.811   7.921   3.578  2.0836  1.6220  0.5491
39820SOL    HW226576  12.818   7.881   3.724 -0.4312 -1.2472 -0.0051
39821SOL     OW26577   9.643   3.696   9.270  0.2362  0.4644 -0.3251
39821SOL    HW126578   9.565   3.715   9.218 -1.1489 -1.6553  0.8280
39821SOL    HW226579   9.693   3.778   9.271 -1.1308  1.3898 -2.4791
39822SOL     OW26580   3.197   1.554   6.829  0.0063 -0.3467  0.1191
39822SOL    HW126581   3.178   1.509   6.912 -0.7932  2.0454  1.3181
39822SOL    HW226582   3.279   1.600   6.845  0.9748 -1.5175 -1.1983
39823SOL     OW26583   1.189   9.711   7.195  0.3686 -1.2320 -0.0609
39823SOL    HW126584   1.178   9.617   7.211 -0.1567 -1.0148  0.9959
39823SOL    HW226585   1.155   9.753   7.275  1.0950 -0.1631 -0.2878
39824SOL     OW26586  10.714   9.576  12.185  0.1641  0.0505  0.4604
39824SOL    HW126587  10.746   9.495  12.145 -0.5877  1.3943 -3.3569
39824SOL    HW226588  10.621   9.578  12.162  0.4184  2.4954 -0.6327
39825SOL     OW26589   2.856   4.692  12.931  0.1802 -0.1083  0.5979
39825SOL    HW126590   2.825   4.736  13.010 -0.0840  1.3546 -0.2731
39825SOL    HW226591   2.951   4.703  12.932  0.0304  1.4515 -0.1308
39826SOL     OW26592   0.850   6.555   5.857  0.3537  0.1581 -0.1481
39826SOL    HW126593   0.840   6.460   5.868 -0.9756  0.2210 -0.5892
39826SOL    HW226594   0.886   6.585   5.941 -2.0655 -0.3849  1.1828
39827SOL     OW26595   7.923   4.430   2.093  0.1813  0.0154  0.3296
39827SOL    HW126596   7.902   4.428   1.999  3.5803 -0.5855 -0.5644
39827SOL    HW226597   7.935   4.338   2.116  1.6175  0.2732  0.7032
39828SOL     OW26598   6.790   9.573   8.491  0.0012 -0.0567 -0.3523
39828SOL    HW126599   6.717   9.591   8.551  1.1279  1.5786  0.6129
39828SOL    HW226600   6.772   9.628   8.415  1.0796  1.7872  0.6497
39829SOL     OW26601   4.118   7.989   2.102 -0.6768  0.2796 -0.0646
39829SOL    HW126602   4.183   7.974   2.171 -0.6768  1.6649  0.2642
39829SOL    HW226603   4.167   7.977   2.020 -0.3872 -0.1871  0.1736
39830SOL     OW26604   0.187  10.019   9.017  0.5014 -0.1123 -0.0873
39830SOL    HW126605   0.229  10.106   9.018  1.3954 -0.5292 -0.2449
39830SOL    HW226606   0.253   9.962   8.978 -0.6939 -0.5603 -1.5263
39831SOL     OW26607  12.404   1.134   2.113 -0.5442 -0.1664  0.6565
39831SOL    HW126608  12.481   1.104   2.065 -0.8658 -0.3997  0.2768
39831SOL    HW226609  12.413   1.094   2.199 -1.2704 -1.9203 -0.0251
39832SOL     OW26610   5.958  12.778   8.545 -0.4053  0.0688 -0.5634
39832SOL    HW126611   5.865  12.759   8.557  0.3192 -4.1785  0.0241
39832SOL    HW226612   5.970  12.784   8.451 -1.1255 -0.4335 -0.6940
39833SOL     OW26613  12.966   6.985   8.812  0.0193 -0.4398 -0.5272
39833SOL    HW126614  12.959   6.890   8.802  0.7437 -0.7284  1.3334
39833SOL    HW226615  12.877   7.013   8.833 -0.2335 -0.6817 -1.2744
39834SOL     OW26616   9.850   4.708   7.215  0.4415 -0.1463  0.1729
39834SOL    HW126617   9.873   4.637   7.155 -0.3137 -1.1488  1.0313
39834SOL    HW226618   9.933   4.755   7.229  0.8376 -0.5047 -0.8318
39835SOL     OW26619  11.132   8.842   2.876 -0.4093 -0.0628 -0.0594
39835SOL    HW126620  11.107   8.759   2.917 -0.4306  0.6000  1.3210
39835SOL    HW226621  11.227   8.848   2.887 -0.2637 -0.3469 -1.0425
39836SOL     OW26622   1.447   5.715   2.644  0.4681 -0.0338 -0.2880
39836SOL    HW126623   1.542   5.708   2.630  0.6071 -0.7194  0.8739
39836SOL    HW226624   1.438   5.775   2.718 -0.0140  0.1072 -0.4580
39837SOL     OW26625   8.632   1.286   3.054  0.1432  0.4930  0.1691
39837SOL    HW126626   8.636   1.322   3.142 -1.4947 -2.0247  1.4106
39837SOL    HW226627   8.684   1.206   3.058 -1.1441 -0.4298 -0.6934
39838SOL     OW26628   7.851   0.237   9.598  0.3326 -0.1307  0.0639
39838SOL    HW126629   7.801   0.252   9.679  0.3072 -1.4630  0.3167
39838SOL    HW226630   7.806   0.163   9.556  0.6256  0.2564 -0.9450
39839SOL     OW26631  10.290  12.645  12.378  0.6678  0.5728 -0.3489
39839SOL    HW126632  10.222  12.689  12.327  0.0060 -0.2010 -0.1646
39839SOL    HW226633  10.282  12.683  12.466  1.2762  1.3317 -0.6096
39840SOL     OW26634   9.019  12.270   2.226 -0.1205  0.0551 -0.5025
39840SOL    HW126635   9.008  12.358   2.263 -1.3553  0.5179 -1.8848
39840SOL    HW226636   9.062  12.221   2.296 -0.3957  1.4547  0.7227
39841SOL     OW26637   7.525   6.341   0.975  0.5471 -0.3131 -0.1256
39841SOL    HW126638   7.500   6.254   0.945  0.7038 -0.3811 -0.0589
39841SOL    HW226639   7.562   6.327   1.062  1.4592 -0.3030 -0.5027
39842SOL     OW26640   3.894   8.603   1.928 -0.0456 -0.0897 -0.0680
39842SOL    HW126641   3.970   8.599   1.986  0.3606 -0.9954 -0.6521
39842SOL    HW226642   3.828   8.651   1.979  0.8712  0.6291  0.4763
39843SOL     OW26643  10.262   4.516   2.727  0.0374  0.0560  0.6946
39843SOL    HW126644  10.277   4.519   2.632 -2.6534 -1.0864  0.1520
39843SOL    HW226645  10.288   4.427   2.752 -1.4706 -0.4674  0.5247
39844SOL     OW26646   7.106  10.199   6.921 -0.7713  0.2135 -0.2497
39844SOL    HW126647   7.102  10.260   6.847 -3.4830  0.0767 -0.3131
39844SOL    HW226648   7.042  10.233   6.983 -0.5675 -1.2438  0.8046
39845SOL     OW26649  11.181  10.267   3.067 -0.3210  0.2437  0.3487
39845SOL    HW126650  11.272  10.244   3.089  0.5810  1.6547 -1.6298
39845SOL    HW226651  11.162  10.342   3.123 -0.3899 -0.2469  0.9922
39846SOL     OW26652  10.887  10.431   7.850 -0.4897 -0.2439  0.0886
39846SOL    HW126653  10.808  10.481   7.832  0.1377  0.4760 -0.6967
39846SOL    HW226654  10.870  10.345   7.811 -0.1547  0.4975 -1.7792
39847SOL     OW26655   1.781   6.689  12.090  0.3233 -0.1973 -0.0718
39847SOL    HW126656   1.718   6.702  12.019  0.4449 -0.6030 -0.2516
39847SOL    HW226657   1.764   6.600  12.122 -0.7524  0.4872  1.4072
39848SOL     OW26658  11.358  11.721   6.498 -0.0845 -0.1210 -0.0707
39848SOL    HW126659  11.411  11.671   6.561  0.5254  0.1500 -0.3597
39848SOL    HW226660  11.325  11.655   6.437 -0.5371 -0.3631  0.4262
39849SOL     OW26661   5.344   3.596   6.712  0.3124 -0.0407 -0.1207
39849SOL    HW126662   5.375   3.513   6.676  1.9726  0.2328  0.5754
39849SOL    HW226663   5.249   3.591   6.706  0.4329 -1.3435 -1.5056
39850SOL     OW26664   5.003   2.916   5.234 -0.1084  0.0570  0.4070
39850SOL    HW126665   4.987   2.911   5.328  0.9442 -1.1127  0.5496
39850SOL    HW226666   4.963   2.837   5.198 -0.6750  0.5907 -0.1698
39851SOL     OW26667  10.790   8.571   8.064 -0.5340  0.0573  1.0365
39851SOL    HW126668  10.722   8.568   7.997 -1.6642 -1.8202  2.1649
39851SOL    HW226669  10.872   8.572   8.016 -1.3132 -1.2099 -0.3836
39852SOL     OW26670   5.283   7.342   8.624  0.0092 -1.1826 -0.1212
39852SOL    HW126671   5.239   7.421   8.656  1.1334 -0.2891 -0.7245
39852SOL    HW226672   5.254   7.334   8.533  1.9931  0.1320 -0.9254
39853SOL     OW26673   1.257   7.099   6.591 -0.4620 -0.2147 -0.1942
39853SOL    HW126674   1.223   7.188   6.588 -0.6248 -0.2343  0.7684
39853SOL    HW226675   1.289   7.088   6.680  0.5311 -0.7701 -0.5945
39854SOL     OW26676   9.845   7.625   1.642  0.6801 -0.4359  0.2620
39854SOL    HW126677   9.814   7.591   1.558  1.5892  0.5842 -0.5015
39854SOL    HW226678   9.795   7.706   1.655  1.3471 -0.0107  0.1668
39855SOL     OW26679  10.087   8.246   5.457  0.0975  0.2501  0.7138
39855SOL    HW126680  10.146   8.189   5.407 -1.2435  1.0485 -1.9865
39855SOL    HW226681  10.138   8.325   5.474 -0.1712  1.1379 -2.0319
39856SOL     OW26682  10.934   5.106   6.800  0.0572 -0.1219 -0.0322
39856SOL    HW126683  11.018   5.076   6.765  0.1992 -1.0477  1.0183
39856SOL    HW226684  10.904   5.032   6.853 -1.3832  0.2358 -0.3222
39857SOL     OW26685   2.295   2.993   3.114 -0.3390  0.7685  0.2441
39857SOL    HW126686   2.273   3.008   3.206 -1.9734  3.5813 -0.4609
39857SOL    HW226687   2.385   3.024   3.106  0.4997 -1.2610  1.1923
39858SOL     OW26688   7.134   8.616   3.818  0.1118  0.1954 -0.4613
39858SOL    HW126689   7.153   8.548   3.754 -0.0513 -0.0832 -0.2162
39858SOL    HW226690   7.133   8.697   3.768 -1.7608 -0.2018 -1.1337
39859SOL     OW26691  12.949   6.938   1.566  0.1250  0.3114 -0.0318
39859SOL    HW126692  13.034   6.980   1.552 -1.7462  4.6497  0.0608
39859SOL    HW226693  12.934   6.947   1.660 -1.1827  1.4098 -0.3135
39860SOL     OW26694   1.367   7.075   5.902  0.9083  0.5030 -0.4016
39860SOL    HW126695   1.396   7.012   5.968  1.6683  0.4897 -0.7323
39860SOL    HW226696   1.321   7.022   5.837 -2.9805  0.9089  1.7513
39861SOL     OW26697   5.477  10.166   6.314  0.1054 -0.0891 -0.4518
39861SOL    HW126698   5.526  10.203   6.388  0.4153 -0.8753 -0.2562
39861SOL    HW226699   5.386  10.190   6.332  0.0150 -1.2337  0.8088
39862SOL     OW26700   6.519   5.483   1.895 -0.5596  0.5593  1.0458
39862SOL    HW126701   6.496   5.567   1.934  0.1133  0.4565  1.6857
39862SOL    HW226702   6.609   5.468   1.922 -0.3722  0.0547  0.1790
39863SOL     OW26703   4.247   6.483  10.257 -0.1396  0.0568  0.4357
39863SOL    HW126704   4.258   6.578  10.261 -0.2297  0.0191  2.1369
39863SOL    HW226705   4.168   6.465  10.308  0.5557 -1.0197  1.1768
39864SOL     OW26706   4.867  11.421   8.581  0.3579  0.1568  0.1170
39864SOL    HW126707   4.943  11.475   8.561  1.2626 -0.3332  1.9838
39864SOL    HW226708   4.795  11.483   8.590  0.6693  0.7012 -0.9628
39865SOL     OW26709   0.275  11.988   3.201  0.6894  0.1713 -0.1728
39865SOL    HW126710   0.262  11.895   3.219  2.0011 -0.2852 -1.3323
39865SOL    HW226711   0.230  12.003   3.118  1.6611  0.2042 -0.7138
39866SOL     OW26712   9.042   9.511   3.683 -0.1955 -0.0750 -0.6480
39866SOL    HW126713   8.990   9.516   3.763 -0.2315  0.1627 -0.6858
39866SOL    HW226714   9.050   9.602   3.654 -0.6243 -0.2091 -1.2017
39867SOL     OW26715   7.360   9.841   8.979  0.1030  0.1687 -0.0295
39867SOL    HW126716   7.392   9.898   9.050 -1.1235 -0.2103  0.8532
39867SOL    HW226717   7.403   9.875   8.901 -0.1607  1.9729  0.5616
39868SOL     OW26718   1.928  10.714   6.893  0.5614 -0.0909 -0.0456
39868SOL    HW126719   2.019  10.734   6.870  0.6933  2.1648  1.9681
39868SOL    HW226720   1.880  10.792   6.866 -1.0477 -1.6716 -2.0610
39869SOL     OW26721   6.359  12.675   9.048  0.5360 -0.2633  0.1178
39869SOL    HW126722   6.399  12.594   9.080  0.7133 -0.5139 -0.7005
39869SOL    HW226723   6.372  12.672   8.953 -1.8955 -0.6090 -0.2479
39870SOL     OW26724   9.473   6.658   1.920  1.0410 -0.0477 -0.1686
39870SOL    HW126725   9.480   6.662   1.824  1.6159 -0.2822 -0.1437
39870SOL    HW226726   9.393   6.705   1.940  0.7084 -0.3259 -0.7973
39871SOL     OW26727   8.293   0.593   4.463  0.5259 -0.1870  0.1650
39871SOL    HW126728   8.383   0.584   4.432 -0.3654 -1.7797 -2.3119
39871SOL    HW226729   8.260   0.503   4.467 -1.1836  0.4009  0.1646
39872SOL     OW26730   9.940   6.938   3.227  0.2298  0.6015 -0.1195
39872SOL    HW126731   9.939   6.855   3.274  3.3934  0.4494 -0.1339
39872SOL    HW226732   9.892   6.920   3.146  0.6815 -1.1866 -0.0392
39873SOL     OW26733   4.772  10.498   2.777  0.0050  0.5370 -0.4629
39873SOL    HW126734   4.748  10.461   2.692  0.8000  0.1387 -0.5254
39873SOL    HW226735   4.865  10.475   2.788  0.0645  1.0847  0.2501
39874SOL     OW26736   9.467   9.514   9.063 -0.3346 -0.8739 -0.0776
39874SOL    HW126737   9.404   9.515   9.135 -0.0369  3.4814  0.4022
39874SOL    HW226738   9.415   9.530   8.985 -0.2426 -1.5897 -0.2905
39875SOL     OW26739   2.061   5.148   7.536  0.2497  0.1532  0.3283
39875SOL    HW126740   1.986   5.192   7.497  0.4862 -0.1223 -0.4558
39875SOL    HW226741   2.064   5.062   7.493  1.8431  0.6862 -0.7142
39876SOL     OW26742  10.035   6.494  10.793 -0.0843 -0.4563  0.2744
39876SOL    HW126743   9.966   6.428  10.783 -1.5169  0.7306  1.8522
39876SOL    HW226744  10.096   6.454  10.855  0.3411 -1.2501 -0.6319
39877SOL     OW26745   8.730   0.934  11.151 -0.2022  0.2297  0.1172
39877SOL    HW126746   8.777   0.898  11.075  0.6996  1.4767  0.0641
39877SOL    HW226747   8.747   1.028  11.148  0.0537  0.2836  2.0122
39878SOL     OW26748   0.908   3.980   4.104  1.2176  0.1577  0.2964
39878SOL    HW126749   0.860   4.037   4.164  0.7916  0.4076 -0.2713
39878SOL    HW226750   0.948   4.041   4.041  1.9619 -0.0722  0.5338
39879SOL     OW26751   1.897   1.587  10.556 -0.1007 -0.6528 -0.1046
39879SOL    HW126752   1.970   1.536  10.591 -0.4974 -0.0521  1.7438
39879SOL    HW226753   1.886   1.557  10.466  2.4156 -0.7552 -0.4411
39880SOL     OW26754   2.886   8.863   3.258 -0.1821  0.3093  0.0860
39880SOL    HW126755   2.964   8.918   3.254  1.1301 -1.4290  0.4550
39880SOL    HW226756   2.864   8.859   3.351  2.2926 -3.0294  0.7157
39881SOL     OW26757   6.584   8.581   8.995 -0.1247  0.5525 -0.3379
39881SOL    HW126758   6.510   8.609   9.050  0.0146  2.0436 -0.8428
39881SOL    HW226759   6.661   8.598   9.048 -0.0782  0.4290 -0.3681
39882SOL     OW26760   1.171   2.119   0.385  0.4072  0.5464 -0.4596
39882SOL    HW126761   1.084   2.111   0.425 -0.6978 -0.9441 -2.8843
39882SOL    HW226762   1.172   2.050   0.318  3.1458  1.1147 -1.1100
39883SOL     OW26763   9.016   8.292   3.759  0.1241  0.6768 -0.1826
39883SOL    HW126764   9.078   8.235   3.714 -1.0669  0.2983 -1.4286
39883SOL    HW226765   9.071   8.356   3.805  1.4304  0.9900 -2.0523
39884SOL     OW26766   2.097   4.351   5.743  0.6109 -0.3197 -0.0953
39884SOL    HW126767   2.090   4.267   5.788  0.2125 -0.2735 -0.0660
39884SOL    HW226768   2.174   4.343   5.688  0.4725 -0.7672 -0.2230
39885SOL     OW26769  10.523  10.953   9.125 -0.0678 -0.1148 -0.2051
39885SOL    HW126770  10.535  10.970   9.032  2.1967  1.5303  0.3163
39885SOL    HW226771  10.596  10.897   9.150 -0.6308 -0.5148  0.6009
39886SOL     OW26772   3.523  12.917  10.534 -0.0117  0.1011 -0.2530
39886SOL    HW126773   3.478  12.895  10.453  0.4933  1.9294 -1.1023
39886SOL    HW226774   3.614  12.929  10.508  0.0596  1.2784  0.4547
39887SOL     OW26775   6.628  11.184  10.533  0.2313  0.0175  0.6586
39887SOL    HW126776   6.588  11.244  10.595  0.2462  1.1430 -0.3938
39887SOL    HW226777   6.704  11.149  10.580 -0.0798  0.4144  1.4738
39888SOL     OW26778  11.782  11.604   6.538 -0.2502  0.6109  0.1848
39888SOL    HW126779  11.704  11.581   6.588  0.1318 -1.1878  0.0271
39888SOL    HW226780  11.848  11.624   6.604  0.5651 -2.7832  0.6044
39889SOL     OW26781   5.792   3.085   7.798  0.3021  0.1629 -0.7707
39889SOL    HW126782   5.756   3.044   7.719  0.1457  2.3111 -1.9050
39889SOL    HW226783   5.715   3.117   7.846  0.4821  2.3351 -1.8103
39890SOL     OW26784   2.452   6.900  10.528 -0.3013 -0.0070 -0.3323
39890SOL    HW126785   2.377   6.868  10.479 -0.3416 -0.8789  0.2847
39890SOL    HW226786   2.415   6.965  10.588 -0.4193  0.2277 -0.6543
39891SOL     OW26787   1.900   3.901   5.570 -0.3014 -0.3442  0.1678
39891SOL    HW126788   1.975   3.940   5.526 -0.6174  0.9500  0.7268
39891SOL    HW226789   1.898   3.811   5.538  1.6106 -0.4808  0.3116
39892SOL     OW26790   0.489   0.118   2.624  0.0383 -0.6512  0.3065
39892SOL    HW126791   0.572   0.165   2.611 -1.9178  2.7686 -1.1056
39892SOL    HW226792   0.473   0.123   2.719  0.4298  0.5872  0.3181
39893SOL     OW26793   0.047   5.012   7.574  0.0182 -0.2910  0.5020
39893SOL    HW126794   0.131   4.980   7.542 -0.3653 -2.4422  1.4486
39893SOL    HW226795   0.010   5.061   7.500  1.0811 -1.2868 -0.7354
39894SOL     OW26796  12.309   9.409   3.978  0.1454  0.1709  0.3822
39894SOL    HW126797  12.402   9.430   3.977  0.2496 -0.1137  1.8890
39894SOL    HW226798  12.265   9.493   3.965  0.6034  0.3942  0.2704
39895SOL     OW26799   0.411   1.488   2.402 -0.2088  0.3788 -0.3186
39895SOL    HW126800   0.455   1.411   2.437 -3.4293 -1.3089  0.4083
39895SOL    HW226801   0.349   1.515   2.470 -0.7948  2.1985 -1.4709
39896SOL     OW26802   8.108   7.182   7.798  0.0223  0.2345  0.0426
39896SOL    HW126803   8.147   7.146   7.718  0.0777  1.0037 -0.2837
39896SOL    HW226804   8.169   7.157   7.868 -0.4490 -1.1588 -0.0249
39897SOL     OW26805   9.859  10.669   9.388  0.0142  0.2264 -1.1102
39897SOL    HW126806   9.941  10.701   9.428 -1.9109  2.0134  1.8611
39897SOL    HW226807   9.856  10.711   9.302  2.0915  0.2878 -1.1997
39898SOL     OW26808  11.052  11.980  10.114  0.4026 -0.0869 -0.8457
39898SOL    HW126809  11.047  12.068  10.078  0.4770  0.2837  0.0084
39898SOL    HW226810  11.146  11.965  10.128  0.3055  0.2631  0.3020
39899SOL     OW26811   1.037   5.702   1.350 -0.0927  0.0506  0.1666
39899SOL    HW126812   1.087   5.680   1.272 -1.1601 -0.3322 -0.4307
39899SOL    HW226813   0.948   5.718   1.318  0.3041  4.3381  0.6417
39900SOL     OW26814   4.334  12.244  11.923  0.5079  0.1278 -0.0221
39900SOL    HW126815   4.331  12.148  11.927 -1.2410  0.0156 -1.9459
39900SOL    HW226816   4.405  12.263  11.861  0.7794  0.0661  0.2706
39901SOL     OW26817   2.371   5.954   6.120 -0.2446  0.2948 -0.3425
39901SOL    HW126818   2.370   5.986   6.029 -0.0039 -0.4330 -0.6100
39901SOL    HW226819   2.463   5.931   6.136 -0.3665  0.0042 -0.0633
39902SOL     OW26820   0.652   1.956   5.722  0.4169 -0.0377 -0.9700
39902SOL    HW126821   0.715   2.025   5.702  1.2435 -0.9422 -1.6327
39902SOL    HW226822   0.652   1.900   5.644  0.4152 -1.2401 -0.1349
39903SOL     OW26823  11.960   9.576   6.377 -0.0025  0.4534 -0.1428
39903SOL    HW126824  11.999   9.501   6.423  0.7751  0.4465 -0.7931
39903SOL    HW226825  11.993   9.568   6.287  1.2433  2.3651  0.0941
39904SOL     OW26826   9.756  10.697   8.211  0.4264 -0.4845  0.4735
39904SOL    HW126827   9.761  10.646   8.131  0.1297 -0.2750  0.3218
39904SOL    HW226828   9.662  10.702   8.231  0.3990  0.5600  0.1290
39905SOL     OW26829   6.217   2.304   5.093  0.5344 -0.5201 -0.2153
39905SOL    HW126830   6.147   2.280   5.154  0.5302 -0.5025 -0.2130
39905SOL    HW226831   6.286   2.342   5.148 -0.1027  0.9513 -0.3949
39906SOL     OW26832  12.829   1.269   0.106 -0.2768  0.0354 -0.2024
39906SOL    HW126833  12.786   1.283   0.190  1.2278  0.8201  0.4930
39906SOL    HW226834  12.815   1.351   0.058  0.1354  0.1635 -0.1085
39907SOL     OW26835  11.353  10.831  11.142 -0.5298 -0.3998  0.2407
39907SOL    HW126836  11.350  10.741  11.174 -1.9924 -0.0335  1.2788
39907SOL    HW226837  11.436  10.838  11.095 -1.7542 -3.1867 -2.6938
39908SOL     OW26838   0.450   1.665   9.232 -0.3449  0.3081 -0.1954
39908SOL    HW126839   0.399   1.638   9.155  0.8937  0.4959 -1.1032
39908SOL    HW226840   0.417   1.752   9.253 -2.1034 -0.5324  0.7657
39909SOL     OW26841   1.423   5.574   5.951  0.2598 -0.0668 -0.3896
39909SOL    HW126842   1.504   5.548   5.908  1.1672  1.1969  0.4722
39909SOL    HW226843   1.385   5.492   5.982  0.1211 -0.8973 -2.5769
39910SOL     OW26844   5.336   0.064   8.141 -0.2052  0.2930  0.1573
39910SOL    HW126845   5.352  -0.019   8.094 -3.1411  0.5558 -1.5401
39910SOL    HW226846   5.417   0.114   8.129  1.1406 -1.7700  0.0728
39911SOL     OW26847   7.094   6.334   9.621 -0.3976  0.0319  0.0200
39911SOL    HW126848   7.127   6.291   9.699 -1.2054 -0.2000  0.2472
39911SOL    HW226849   7.073   6.423   9.648  2.0795  0.9103 -0.6527
39912SOL     OW26850   4.215   6.379   6.609  0.0307  0.4445 -0.2164
39912SOL    HW126851   4.190   6.287   6.617 -1.2932  0.7108 -0.9746
39912SOL    HW226852   4.310   6.378   6.608  0.0351 -1.0314 -1.3038
39913SOL     OW26853   2.935   8.704   5.168  0.8103  0.1782  0.1134
39913SOL    HW126854   2.893   8.710   5.254  0.6278  0.2198  0.0228
39913SOL    HW226855   3.020   8.664   5.185  0.0658 -1.4754  0.0787
39914SOL     OW26856  11.196   4.464   3.512  0.2060 -0.6659  0.5431
39914SOL    HW126857  11.284   4.499   3.498 -0.1612  1.0029  1.9907
39914SOL    HW226858  11.169   4.432   3.427  1.1997  1.2861 -0.5831
39915SOL     OW26859   1.311   3.529   1.725  0.2568 -0.2118  0.0035
39915SOL    HW126860   1.324   3.599   1.659  0.3166  0.9064  1.1608
39915SOL    HW226861   1.329   3.448   1.677  2.1140  0.6735 -0.9221
39916SOL     OW26862  10.267   9.833   3.347 -0.7504  0.1428 -0.1788
39916SOL    HW126863  10.266   9.803   3.438 -1.3696  0.6812 -0.0004
39916SOL    HW226864  10.341   9.787   3.308 -0.1468  0.3109  0.7323
39917SOL     OW26865   0.926   3.218  11.111 -0.6743  0.0477  0.2675
39917SOL    HW126866   0.940   3.125  11.092  1.1379  0.6536 -1.8726
39917SOL    HW226867   0.924   3.224  11.206 -0.6111 -2.1408  0.4479
39918SOL     OW26868   5.556  12.323   7.236  0.1242  0.8439 -0.2727
39918SOL    HW126869   5.629  12.382   7.256  1.9253 -1.2183 -0.3716
39918SOL    HW226870   5.479  12.366   7.274  1.3745  3.0699 -0.0875
39919SOL     OW26871   9.074   9.389   9.038 -0.5346  0.0188 -0.0326
39919SOL    HW126872   9.150   9.401   8.981 -0.5335  0.4127  0.0539
39919SOL    HW226873   9.071   9.294   9.053 -0.2199 -0.0286 -0.2530
39920SOL     OW26874  10.355  12.927   1.046  0.0697  0.0318  0.7745
39920SOL    HW126875  10.289  12.906   1.113 -1.4345  0.4513 -0.5171
39920SOL    HW226876  10.360  12.848   0.992  1.4180 -0.3727  1.4430
39921SOL     OW26877   0.866   0.976   1.457  0.5564 -0.1700  0.7213
39921SOL    HW126878   0.884   1.045   1.393 -1.5196  0.8225  1.1314
39921SOL    HW226879   0.860   1.022   1.541 -0.6067 -0.8581  1.0347
39922SOL     OW26880   5.715   2.507  11.211 -0.2376 -0.1505  0.0343
39922SOL    HW126881   5.755   2.459  11.139 -0.7167  0.9668 -1.0013
39922SOL    HW226882   5.630   2.535  11.177 -0.1885  0.9744  0.7995
39923SOL     OW26883   9.941   3.499   2.336  0.3472 -0.2067 -0.0424
39923SOL    HW126884   9.968   3.517   2.426  0.4916  0.9927 -0.3076
39923SOL    HW226885   9.845   3.496   2.341  0.3999 -1.7596  0.4196
39924SOL     OW26886   1.256  12.849   0.846  0.6648 -0.4184 -0.4374
39924SOL    HW126887   1.225  12.815   0.762 -0.3035  0.2318 -0.3680
39924SOL    HW226888   1.304  12.777   0.885  0.5868 -0.9401 -1.2787
39925SOL     OW26889   8.765   2.532   6.125 -0.2212  0.2561  0.4090
39925SOL    HW126890   8.674   2.520   6.096 -0.1986  0.7643  0.1126
39925SOL    HW226891   8.769   2.624   6.152  1.0986  1.3354 -2.9475
39926SOL     OW26892   7.258   1.868   0.852 -0.5278 -0.1556  0.1628
39926SOL    HW126893   7.194   1.804   0.885 -1.7171  1.5282  1.2776
39926SOL    HW226894   7.277   1.839   0.763 -0.2596 -2.6038  0.9491
39927SOL     OW26895   8.803   4.765   2.178 -0.1114 -0.2473  0.6675
39927SOL    HW126896   8.761   4.690   2.136 -0.4405  0.0643  0.4243
39927SOL    HW226897   8.872   4.728   2.232  0.6559 -0.6339 -0.5299
39928SOL     OW26898   1.981  10.020   5.286 -0.1636 -0.1161 -0.4233
39928SOL    HW126899   1.928  10.014   5.206 -0.3961  1.0815 -0.3830
39928SOL    HW226900   1.917  10.031   5.356 -0.0363 -2.4411  0.1295
39929SOL     OW26901   4.077   8.951   9.983 -0.3419  0.2426  0.5127
39929SOL    HW126902   4.115   8.873   9.944  0.5915  1.3262 -0.8384
39929SOL    HW226903   4.026   8.991   9.912  0.3991  1.6102  0.7163
39930SOL     OW26904   8.370   6.300   4.151  0.2029 -1.0179 -0.3220
39930SOL    HW126905   8.313   6.242   4.202 -1.0859  0.0876 -0.4292
39930SOL    HW226906   8.385   6.253   4.069 -0.4518 -1.4026 -0.2329
39931SOL     OW26907   6.699   6.057   3.558  0.0908  0.2598  0.3948
39931SOL    HW126908   6.794   6.054   3.550  0.1478  1.3685  0.4316
39931SOL    HW226909   6.682   6.032   3.649  0.0173 -3.9869 -0.5938
39932SOL     OW26910   9.829   5.664   0.401  0.6379  0.1122 -0.1184
39932SOL    HW126911   9.775   5.631   0.473 -1.1947 -2.3734 -2.3857
39932SOL    HW226912   9.782   5.741   0.369  0.9362  0.6398  0.6725
39933SOL     OW26913   6.006  11.297   9.758 -0.0814  0.2182  0.0506
39933SOL    HW126914   5.973  11.211   9.782  0.7851 -0.5866 -1.5112
39933SOL    HW226915   5.992  11.303   9.664 -1.5842  2.4624  0.3246
39934SOL     OW26916   2.381   1.485   5.336  0.1238 -0.4718 -0.1490
39934SOL    HW126917   2.385   1.551   5.267 -1.0319 -0.1804  0.0293
39934SOL    HW226918   2.320   1.419   5.302  0.3239 -0.8239  0.1751
39935SOL     OW26919   5.100   6.210   3.406 -0.1721  0.3025  0.0356
39935SOL    HW126920   5.178   6.204   3.350  0.3167 -0.2100  0.7575
39935SOL    HW226921   5.043   6.271   3.360  1.0686  1.4888 -0.0220
39936SOL     OW26922   6.231   1.196   3.370  0.1782 -0.6468 -0.0372
39936SOL    HW126923   6.293   1.261   3.339  0.1598 -1.0397 -0.9395
39936SOL    HW226924   6.192   1.235   3.449  0.3554  0.3034 -0.4100
39937SOL     OW26925   4.794   3.620   4.188 -0.2916 -0.2904  0.3549
39937SOL    HW126926   4.802   3.654   4.277  1.6908  0.1765  0.0433
39937SOL    HW226927   4.845   3.539   4.190 -0.7248 -0.5793 -0.2216
39938SOL     OW26928   7.790   5.597  10.332  0.5141  0.6798  0.5233
39938SOL    HW126929   7.867   5.608  10.388 -0.2176 -1.3285  2.0877
39938SOL    HW226930   7.781   5.502  10.323 -1.0672  0.9022 -0.6625
39939SOL     OW26931   2.611  11.368  11.584  0.1805 -0.0922  0.1392
39939SOL    HW126932   2.528  11.322  11.574  0.1280 -0.0313  0.2879
39939SOL    HW226933   2.612  11.395  11.676 -0.1623  0.9275 -0.1465
39940SOL     OW26934   0.976   9.767  11.485  0.1106  0.5429  0.8689
39940SOL    HW126935   1.029   9.828  11.536 -0.9401  2.8811 -0.6828
39940SOL    HW226936   0.912   9.822  11.440 -0.4756 -1.6366 -1.1634
39941SOL     OW26937   3.295   1.960   2.382 -0.2433  0.4200 -0.2905
39941SOL    HW126938   3.216   1.997   2.423 -1.0409 -1.9362  0.4159
39941SOL    HW226939   3.367   2.010   2.420 -1.2469  1.1908  0.6655
39942SOL     OW26940   8.534  11.627   5.704 -0.5928  0.0565 -0.1529
39942SOL    HW126941   8.578  11.635   5.620 -0.3055  2.1024  0.1396
39942SOL    HW226942   8.469  11.697   5.704 -1.2960 -0.5538  0.9425
39943SOL     OW26943   8.459   8.449   8.545  0.2338  0.3417 -0.2585
39943SOL    HW126944   8.517   8.483   8.613 -0.7108  0.0812  0.7055
39943SOL    HW226945   8.417   8.372   8.585  0.2461 -0.2947 -1.4127
39944SOL     OW26946   6.321   2.139   0.596  0.3999 -0.5093  0.3536
39944SOL    HW126947   6.228   2.122   0.608  0.3229 -2.4230 -2.0048
39944SOL    HW226948   6.364   2.090   0.666 -0.3171 -1.5290  0.1078
39945SOL     OW26949   4.491   0.738   9.115 -0.5683 -0.0575 -0.3581
39945SOL    HW126950   4.553   0.715   9.046 -0.7844 -3.1642  0.3221
39945SOL    HW226951   4.545   0.746   9.194 -0.7629 -0.5977 -0.1653
39946SOL     OW26952   0.566   5.662   5.959  0.1919 -0.8290 -0.4904
39946SOL    HW126953   0.474   5.640   5.974  0.6050 -3.4826 -1.2825
39946SOL    HW226954   0.614   5.587   5.995  2.1945  1.1927  1.3328
39947SOL     OW26955   3.137   5.399   5.401 -0.5272 -0.6391 -0.1790
39947SOL    HW126956   3.182   5.467   5.352 -2.5455  1.0341  0.1327
39947SOL    HW226957   3.175   5.402   5.488 -0.9363  0.4892 -0.0240
39948SOL     OW26958   0.814   8.149  10.465  0.5074  0.1284 -0.0855
39948SOL    HW126959   0.809   8.086  10.393  1.5140 -1.0090  0.8074
39948SOL    HW226960   0.803   8.234  10.422 -0.5554 -0.6121 -1.3581
39949SOL     OW26961   6.977   4.596  11.410  0.4891 -0.2659 -0.2424
39949SOL    HW126962   6.916   4.663  11.440 -0.8112 -1.7265  0.5406
39949SOL    HW226963   6.935   4.513  11.433  1.4071 -1.4070 -2.3725
39950SOL     OW26964   6.493   4.634  11.797 -0.1805 -0.8244 -0.1222
39950SOL    HW126965   6.521   4.720  11.767  0.9363 -1.3404 -0.6144
39950SOL    HW226966   6.501   4.639  11.892  1.7098 -0.9451 -0.2247
39951SOL     OW26967  11.226   1.350   5.905  0.3258  0.4848 -0.1379
39951SOL    HW126968  11.178   1.378   5.983 -1.6622  0.2421 -1.2129
39951SOL    HW226969  11.264   1.266   5.929  1.3673  1.3001  1.1776
39952SOL     OW26970   5.741   2.833   8.125  0.2636  0.1040  1.0906
39952SOL    HW126971   5.835   2.841   8.110  0.0073  1.0843 -0.2166
39952SOL    HW226972   5.714   2.922   8.149 -0.4395 -0.0086  0.7200
39953SOL     OW26973   7.850   6.038   2.674  0.1049 -0.2419  0.1853
39953SOL    HW126974   7.775   6.097   2.660  0.2341 -0.1481 -0.1144
39953SOL    HW226975   7.880   6.016   2.586  0.5884 -0.0779  0.3047
39954SOL     OW26976   0.885   9.313   9.102  0.3555  0.2102 -0.6613
39954SOL    HW126977   0.959   9.373   9.104  0.0264  0.6099  0.5358
39954SOL    HW226978   0.900   9.254   9.176 -0.3629  0.0997 -0.5982
39955SOL     OW26979  11.628   8.435   7.598 -0.1357  0.2704  0.0888
39955SOL    HW126980  11.703   8.433   7.658 -1.0312  0.3073  1.2445
39955SOL    HW226981  11.580   8.354   7.616 -1.1519  0.9217  0.4142
39956SOL     OW26982  11.210  12.812   9.654  0.2749 -0.2564 -0.2973
39956SOL    HW126983  11.248  12.885   9.703 -1.3707  0.2735  0.2508
39956SOL    HW226984  11.267  12.738   9.673  0.2716  0.1863  1.6032
39957SOL     OW26985   5.111   8.044   5.761 -0.0120 -0.2657 -0.2652
39957SOL    HW126986   5.041   7.988   5.795 -0.7891 -0.7015 -2.4232
39957SOL    HW226987   5.165   7.985   5.708  3.0751 -0.3272  2.5991
39958SOL     OW26988   3.375   2.217  12.954 -0.3514  0.0083  0.0313
39958SOL    HW126989   3.407   2.168  13.030 -1.0693 -0.3027  0.1484
39958SOL    HW226990   3.407   2.306  12.967 -0.0833 -0.1514  0.4686
39959SOL     OW26991   2.771  12.751   6.529 -0.0438 -0.2183 -0.5995
39959SOL    HW126992   2.690  12.745   6.581  0.8705  2.5238  1.3917
39959SOL    HW226993   2.742  12.747   6.438 -2.2779 -0.4603  0.0650
39960SOL     OW26994   7.001  10.977  11.228 -0.1185 -0.4490  0.0686
39960SOL    HW126995   7.063  11.007  11.162  0.1931 -0.3466  0.4048
39960SOL    HW226996   7.051  10.975  11.310 -0.9600  1.1667  0.6678
39961SOL     OW26997   5.172   1.132   2.532  0.2361  0.7019 -0.3007
39961SOL    HW126998   5.127   1.101   2.454 -0.6891  1.6595 -0.1740
39961SOL    HW226999   5.122   1.095   2.605  1.7014 -1.0704 -0.0850
39962SOL     OW27000   9.495   5.727   8.387 -0.4957  0.5596  0.1986
39962SOL    HW127001   9.416   5.768   8.421 -0.2683 -0.0418  1.4922
39962SOL    HW227002   9.501   5.644   8.434 -0.7812 -0.8739 -2.1117
39963SOL     OW27003  12.927  11.748   3.253 -0.2522  0.1554  0.0981
39963SOL    HW127004  12.843  11.729   3.210  0.0009 -0.6969 -0.0304
39963SOL    HW227005  12.988  11.686   3.214  0.6459  1.3415 -0.4413
39964SOL     OW27006   0.226   4.794   2.040 -0.4864  0.3900 -0.0721
39964SOL    HW127007   0.314   4.768   2.012 -0.7823  0.3138 -0.9710
39964SOL    HW227008   0.168   4.742   1.985 -1.0918  0.9521  0.0307
39965SOL     OW27009  12.333   1.573  12.404  0.0713  0.4465  0.0908
39965SOL    HW127010  12.295   1.659  12.421  0.4089  0.3911  1.2266
39965SOL    HW227011  12.427   1.590  12.398  0.0870  0.2366 -0.2641
39966SOL     OW27012   4.736  11.486  12.515 -0.2315 -0.5652  0.2741
39966SOL    HW127013   4.769  11.470  12.427  2.0055  3.1830  0.2253
39966SOL    HW227014   4.802  11.450  12.573  0.3752  0.5645  0.3051
39967SOL     OW27015   8.763   8.218   2.589  0.2011  0.0664  0.0012
39967SOL    HW127016   8.842   8.170   2.563  0.1044  1.2655 -2.7808
39967SOL    HW227017   8.782   8.309   2.566 -1.8595  0.4363 -0.3844
39968SOL     OW27018   0.894   2.649   0.888  0.3039 -0.4095 -0.2128
39968SOL    HW127019   0.800   2.635   0.877  0.3094 -0.5038 -0.1380
39968SOL    HW227020   0.935   2.575   0.844  0.3158 -1.1027  0.9108
39969SOL     OW27021  11.509   3.779   9.990 -0.2729 -0.3964 -0.5352
39969SOL    HW127022  11.471   3.847  10.045  0.0185  0.9499 -1.9260
39969SOL    HW227023  11.450   3.773   9.915  1.1339  0.3357 -1.7651
39970SOL     OW27024   0.195  12.287   7.424  0.3388  0.0505  0.0459
39970SOL    HW127025   0.141  12.302   7.346  0.4530  0.0391 -0.0352
39970SOL    HW227026   0.211  12.374   7.460  0.9120  0.1201 -0.3644
39971SOL     OW27027   4.569   8.240  10.339  0.6275  0.0957  0.6495
39971SOL    HW127028   4.544   8.194  10.259  1.5608  0.5687  0.0733
39971SOL    HW227029   4.501   8.306  10.351  0.3457 -0.1460  0.3917
39972SOL     OW27030   6.971   7.306   0.531  0.1191  0.2852 -0.1459
39972SOL    HW127031   6.957   7.314   0.437  2.2758  2.9509 -0.3641
39972SOL    HW227032   7.058   7.267   0.538 -0.2418 -0.3814  0.7802
39973SOL     OW27033  11.200   2.003   1.080 -0.2984  0.1740  0.0377
39973SOL    HW127034  11.214   2.055   1.001 -1.5116  1.3695  0.5811
39973SOL    HW227035  11.282   2.011   1.129 -0.5910  1.9265  0.2975
39974SOL     OW27036  12.388   0.319   4.954 -0.1191  0.1481  0.7060
39974SOL    HW127037  12.413   0.231   4.981  0.8416  0.0942 -0.2910
39974SOL    HW227038  12.295   0.314   4.936 -0.6336 -0.0070  3.1598
39975SOL     OW27039  12.104  11.734   5.949  0.2955 -0.1653  0.0118
39975SOL    HW127040  12.014  11.712   5.975 -0.1142  0.6636 -0.6482
39975SOL    HW227041  12.149  11.753   6.031 -0.9140  2.1752  0.2129
39976SOL     OW27042  10.509  12.584   7.171  0.6300  0.1792 -0.0084
39976SOL    HW127043  10.493  12.526   7.096  0.0935 -1.6280  1.4530
39976SOL    HW227044  10.600  12.612   7.159  0.4984  0.0934 -1.4291
39977SOL     OW27045   1.552   2.870  12.957  0.1754  0.6751  0.4697
39977SOL    HW127046   1.620   2.865  12.889  1.8564  0.8706  2.0590
39977SOL    HW227047   1.570   2.952  13.003  0.0794 -0.1886  2.1270
39978SOL     OW27048  11.036   1.172   8.820 -0.6039 -0.3755  0.1735
39978SOL    HW127049  11.116   1.224   8.812 -0.4272 -0.9372 -2.2242
39978SOL    HW227050  10.966   1.235   8.806 -0.3734 -0.7657 -3.8941
39979SOL     OW27051   7.468   5.956  10.957 -0.2335  0.1240  0.2531
39979SOL    HW127052   7.484   6.001  11.040  1.7640 -1.0506  0.5827
39979SOL    HW227053   7.542   5.896  10.948 -1.0493 -0.6684 -1.7921
39980SOL     OW27054   5.821   7.563   1.067 -0.6111 -0.2172 -0.7734
39980SOL    HW127055   5.784   7.483   1.104 -0.5601  0.9487  1.9965
39980SOL    HW227056   5.908   7.537   1.034 -0.2659 -1.1714  0.8130
39981SOL     OW27057   9.427   4.808   5.908 -0.0592 -0.1104 -0.2916
39981SOL    HW127058   9.512   4.850   5.899 -0.1845 -0.0056 -1.0640
39981SOL    HW227059   9.447   4.719   5.936  0.3690 -0.3660 -1.3443
39982SOL     OW27060   2.497   5.079   7.505  0.0078 -0.1111 -0.1101
39982SOL    HW127061   2.482   5.173   7.496  0.1257 -0.1116 -0.3283
39982SOL    HW227062   2.447   5.040   7.433  1.4178 -0.0794 -1.1583
39983SOL     OW27063   9.855   6.643   8.042 -0.6101  0.0012  0.0185
39983SOL    HW127064   9.763   6.641   8.016 -0.9593 -2.3570  1.1510
39983SOL    HW227065   9.855   6.614   8.133  1.2148  0.6220  0.2561
39984SOL     OW27066   1.974   2.875   6.764  0.0865 -0.3280  0.4822
39984SOL    HW127067   1.940   2.852   6.678  0.3589  1.2464 -0.0869
39984SOL    HW227068   1.900   2.865   6.823 -1.2591  2.2046 -0.5924
39985SOL     OW27069   9.612   0.416  11.729 -0.4839  0.6386 -0.0050
39985SOL    HW127070   9.660   0.487  11.769  1.2611 -1.4713  1.9216
39985SOL    HW227071   9.660   0.397  11.648 -0.0044  0.6050  0.2887
39986SOL     OW27072   8.580   5.932   7.074  0.1975  0.6141 -0.6282
39986SOL    HW127073   8.606   5.943   6.982  0.7082  0.4456 -0.5102
39986SOL    HW227074   8.515   5.862   7.072  1.5552 -0.6878 -0.6611
39987SOL     OW27075  10.955   5.834   4.929 -0.3669  0.1055 -0.1269
39987SOL    HW127076  10.912   5.903   4.879 -1.2171 -1.3059 -1.4186
39987SOL    HW227077  10.901   5.823   5.007 -1.5803 -0.6720 -1.0480
39988SOL     OW27078   1.537   1.289   3.898 -0.4610 -0.1113  0.4983
39988SOL    HW127079   1.478   1.244   3.959 -1.1248  0.2978  0.1741
39988SOL    HW227080   1.624   1.260   3.923 -0.7916 -0.6433  1.0655
39989SOL     OW27081  10.473   2.383   3.499 -0.7340  0.2563  0.0879
39989SOL    HW127082  10.530   2.458   3.516  0.5527 -0.6633 -0.0154
39989SOL    HW227083  10.523   2.329   3.437 -2.2215 -0.0168 -0.9276
39990SOL     OW27084   4.951  10.431   0.115 -0.0199  0.6160  0.8747
39990SOL    HW127085   4.953  10.426   0.210 -0.3687  1.0213  0.9055
39990SOL    HW227086   4.865  10.467   0.094 -0.0973  0.1779  0.3896
39991SOL     OW27087   2.932   1.823  10.569  0.3422  0.0672  0.2217
39991SOL    HW127088   2.849   1.830  10.618  0.8925 -1.8144  1.5401
39991SOL    HW227089   2.955   1.913  10.549 -1.3934  0.7233  0.9299
39992SOL     OW27090   0.889   1.812   4.495  0.2285 -0.4845 -0.4554
39992SOL    HW127091   0.834   1.808   4.416  2.7592 -0.2091 -2.3493
39992SOL    HW227092   0.921   1.902   4.497  2.4003 -1.1849 -0.7920
39993SOL     OW27093   1.816   1.435   3.739  0.2925  0.0803  0.3098
39993SOL    HW127094   1.823   1.369   3.809 -1.3086  0.0605  0.4766
39993SOL    HW227095   1.896   1.423   3.688  1.5750  0.1508  2.1699
39994SOL     OW27096   2.843   0.068   3.283 -0.5601 -0.0454  0.2972
39994SOL    HW127097   2.810   0.008   3.216 -2.2796  0.5252  0.5805
39994SOL    HW227098   2.764   0.102   3.326  0.3268  2.5802  0.0104
39995SOL     OW27099   6.725   4.945   6.916  0.5381 -0.2766  0.4861
39995SOL    HW127100   6.785   4.930   6.989  1.3474 -1.0794 -0.3197
39995SOL    HW227101   6.746   4.877   6.853 -0.3290  0.2380 -0.3941
39996SOL     OW27102   7.863   1.300   6.604 -1.0586  0.5922  0.5484
39996SOL    HW127103   7.890   1.228   6.546 -1.6891 -0.2948  1.3342
39996SOL    HW227104   7.924   1.370   6.584  0.8296 -0.8105  1.1461
39997SOL     OW27105   9.685   9.042   1.113  0.0581  0.4530  0.6680
39997SOL    HW127106   9.780   9.048   1.123  0.1450  1.4267 -0.5330
39997SOL    HW227107   9.653   9.128   1.140 -0.2238  0.9964 -1.2458
39998SOL     OW27108   9.024   4.595  11.942  0.3559 -0.2173  0.1318
39998SOL    HW127109   8.994   4.594  12.033  0.7497  0.9349  0.2870
39998SOL    HW227110   8.986   4.675  11.905  1.1508 -0.0738 -0.3908
39999SOL     OW27111  11.087  11.251   4.438  0.0779  0.6319 -0.2379
39999SOL    HW127112  11.014  11.191   4.425  0.5457  0.0417 -0.1579
39999SOL    HW227113  11.046  11.337   4.449 -0.6379  0.2139  0.4007
40000SOL     OW27114  10.269   5.240   9.792 -0.3967  0.4461 -0.1384
40000SOL    HW127115  10.240   5.331   9.801  0.0962  0.5394  0.5281
40000SOL    HW227116  10.298   5.234   9.701 -2.7614  0.2636 -0.9637
40001SOL     OW27117   5.307  11.674   6.969  0.2071 -0.6139  0.3213
40001SOL    HW127118   5.349  11.657   6.885 -0.5170  0.1358 -0.2011
40001SOL    HW227119   5.229  11.619   6.969 -0.4579  0.3150 -0.0361
40002SOL     OW27120  10.945   5.319   0.266 -0.4640  0.1669 -0.4382
40002SOL    HW127121  10.983   5.340   0.181  0.7168  0.2672  0.0810
40002SOL    HW227122  10.919   5.404   0.302  0.6336  0.3396 -0.0009
40003SOL     OW27123  12.293   3.713   4.246  0.2858 -1.1970  0.0264
40003SOL    HW127124  12.287   3.617   4.249  1.3315 -1.2961 -0.6618
40003SOL    HW227125  12.314   3.733   4.154  3.4870 -0.5599  0.7634
40004SOL     OW27126   9.283   4.930   3.924  0.0728 -0.1033  0.2449
40004SOL    HW127127   9.353   4.977   3.969  0.1148 -0.7057  0.8201
40004SOL    HW227128   9.315   4.920   3.834  0.0073  1.0685  0.0679
40005SOL     OW27129  10.485  10.406   1.655 -0.3128 -0.0922  0.1733
40005SOL    HW127130  10.533  10.486   1.674  0.3288 -0.6594  0.9864
40005SOL    HW227131  10.484  10.358   1.737  1.8701 -2.2671 -0.9565
40006SOL     OW27132  10.780   3.852   4.296  0.3362  0.0662  0.4043
40006SOL    HW127133  10.710   3.803   4.253 -0.9371  1.2097  1.0996
40006SOL    HW227134  10.786   3.934   4.247  1.2052 -0.0166  0.3482
40007SOL     OW27135   2.335   1.452   9.385  0.2931  0.0507  0.1241
40007SOL    HW127136   2.420   1.409   9.372  1.1718  1.9406 -0.7866
40007SOL    HW227137   2.357   1.535   9.428 -0.8634  1.3054 -1.5795
40008SOL     OW27138  11.885   6.923   1.417 -0.4000 -0.0949 -0.0368
40008SOL    HW127139  11.871   6.835   1.451  0.7589  0.0257  0.8199
40008SOL    HW227140  11.797   6.958   1.404 -0.8862 -0.8051  1.1810
40009SOL     OW27141  10.770   4.869   8.261  0.4284 -0.4381  0.3925
40009SOL    HW127142  10.771   4.925   8.184  1.1581 -0.8823  0.0691
40009SOL    HW227143  10.792   4.782   8.227  2.8369 -0.2853  1.3685
40010SOL     OW27144   7.042   5.373   7.506 -0.1061 -0.2770 -0.6333
40010SOL    HW127145   7.127   5.329   7.497  2.1148  3.3793  0.2875
40010SOL    HW227146   7.052   5.427   7.584 -3.6334 -0.2190 -0.0987
40011SOL     OW27147   6.871  11.139   4.933  0.1203 -0.2910  0.0592
40011SOL    HW127148   6.809  11.133   5.006  2.1958  2.3973  2.2713
40011SOL    HW227149   6.816  11.160   4.858 -2.0189 -2.2421  0.9360
40012SOL     OW27150   9.524   7.035   6.682 -0.5003  0.2318  0.3691
40012SOL    HW127151   9.472   7.115   6.669 -1.9741 -0.7733 -0.0844
40012SOL    HW227152   9.613   7.067   6.694 -1.1427  1.9898  0.7598
40013SOL     OW27153   3.817  10.361  11.863  0.2182 -0.3463  0.2823
40013SOL    HW127154   3.889  10.303  11.884 -0.0018 -0.4426  0.7832
40013SOL    HW227155   3.754  10.306  11.817  2.1704  0.5705 -3.9294
40014SOL     OW27156   4.276   0.946  11.906 -0.1709 -0.3215 -0.7552
40014SOL    HW127157   4.269   1.032  11.947  0.7707 -1.4504  1.9724
40014SOL    HW227158   4.329   0.961  11.828 -0.0424  1.5675 -0.3495
40015SOL     OW27159   6.363  10.561  12.877  0.2706  0.3682  0.5060
40015SOL    HW127160   6.409  10.606  12.806  0.4005 -0.0032  0.3544
40015SOL    HW227161   6.406  10.594  12.957 -1.3314  2.5049  0.5859
40016SOL     OW27162   3.741   7.033   8.092 -0.1042 -0.6351  0.6209
40016SOL    HW127163   3.655   7.067   8.068  0.4777  1.2834  1.0037
40016SOL    HW227164   3.802   7.102   8.065  1.0138 -0.5543  3.0803
40017SOL     OW27165   9.798   8.414   1.795  0.0166  0.5046  0.1643
40017SOL    HW127166   9.881   8.368   1.779 -0.9200 -2.0508  1.8924
40017SOL    HW227167   9.824   8.505   1.810  2.2392  0.2283 -1.4419
40018SOL     OW27168  10.541   6.812   4.075 -0.5358  0.1758  0.1177
40018SOL    HW127169  10.445   6.813   4.078 -0.5600  1.1160 -0.4504
40018SOL    HW227170  10.564   6.898   4.039  0.3346 -1.5203 -4.0360
40019SOL     OW27171   5.636   1.363   9.718  0.1332  0.1709  0.0541
40019SOL    HW127172   5.656   1.301   9.788  1.0296 -2.1954 -2.1801
40019SOL    HW227173   5.542   1.379   9.726  0.4252  1.1046  2.6014
40020SOL     OW27174   1.093   1.812   2.890 -0.5410 -0.2310  0.4728
40020SOL    HW127175   1.119   1.886   2.944 -0.2268  0.6504 -0.8461
40020SOL    HW227176   1.135   1.827   2.806  0.0052 -2.2123  0.3333
40021SOL     OW27177   0.671   4.008   5.999  0.0011  0.7570  0.2031
40021SOL    HW127178   0.717   4.033   5.919 -0.9545  0.3324 -0.5001
40021SOL    HW227179   0.726   4.040   6.070  0.9534  0.9837 -0.6247
40022SOL     OW27180   4.523   4.490   7.082 -0.0782  0.3561 -0.5619
40022SOL    HW127181   4.555   4.580   7.083 -1.7853  1.0056  0.3767
40022SOL    HW227182   4.559   4.451   7.161  1.3882 -0.0920 -1.4204
40023SOL     OW27183   4.184   3.894  10.820  0.2269 -0.0154  0.1108
40023SOL    HW127184   4.130   3.817  10.801 -0.2838 -0.1084  1.7501
40023SOL    HW227185   4.166   3.954  10.749 -2.0462 -0.0624  0.5704
40024SOL     OW27186  12.861   0.598  11.039  0.1994 -0.5329  0.4800
40024SOL    HW127187  12.921   0.534  11.076 -0.6131 -0.1118  2.6861
40024SOL    HW227188  12.774   0.559  11.050 -0.1573  0.1194  0.0704
40025SOL     OW27189   8.405  11.575   7.797  0.2582 -0.1857 -0.1546
40025SOL    HW127190   8.314  11.578   7.824 -0.2089 -1.3160 -1.5166
40025SOL    HW227191   8.450  11.634   7.858 -1.4744  0.9364  0.0915
40026SOL     OW27192   4.557  11.733   9.255  0.3977  0.3079 -0.3210
40026SOL    HW127193   4.594  11.775   9.333  0.3046  1.5683 -0.9308
40026SOL    HW227194   4.548  11.641   9.280  1.3846  0.4782  0.7769
40027SOL     OW27195   4.563   6.414  11.373 -0.3030 -0.4582 -0.3116
40027SOL    HW127196   4.628   6.344  11.378 -0.2398 -0.4196 -0.5859
40027SOL    HW227197   4.602   6.486  11.423 -0.0945 -0.4050 -0.5480
40028SOL     OW27198   8.994  11.804   2.500  0.5050  0.7028  0.5923
40028SOL    HW127199   8.969  11.782   2.411  1.8905 -0.2731  0.4136
40028SOL    HW227200   9.087  11.825   2.494  0.4200  1.5195  1.6729
40029SOL     OW27201  11.893   3.397   8.919 -0.0746 -0.2200 -0.1159
40029SOL    HW127202  11.910   3.366   8.830  1.3982  2.0953 -0.7470
40029SOL    HW227203  11.948   3.341   8.974  2.3729  0.9767 -1.1831
40030SOL     OW27204   1.266   3.864   5.917  0.2981 -0.1145  0.3552
40030SOL    HW127205   1.288   3.793   5.977  1.0591 -0.4546 -0.3142
40030SOL    HW227206   1.346   3.879   5.866 -0.0201  0.8538  0.1119
40031SOL     OW27207  10.088   5.483   8.904  0.4575 -0.3750  0.4339
40031SOL    HW127208  10.061   5.437   8.825 -0.3898 -2.6341  1.9285
40031SOL    HW227209  10.078   5.418   8.974  0.8942  1.6030  2.4485
40032SOL     OW27210   1.383  10.713   5.186 -0.0011 -0.3028  0.1195
40032SOL    HW127211   1.415  10.801   5.204  0.7835 -1.1474  3.9026
40032SOL    HW227212   1.319  10.697   5.255  0.3900 -2.8842 -0.0097
40033SOL     OW27213  12.235   8.029   4.882  0.0008  0.0135  0.4546
40033SOL    HW127214  12.167   7.996   4.824 -1.7513  0.8665  1.8950
40033SOL    HW227215  12.193   8.032   4.968  2.1702 -0.2708  1.5913
40034SOL     OW27216   3.144   2.825  11.592 -0.8527 -0.0729 -0.2090
40034SOL    HW127217   3.154   2.906  11.542 -0.1437  1.0234  1.6236
40034SOL    HW227218   3.087   2.848  11.665 -1.2644 -1.4380 -0.0693
40035SOL     OW27219  11.571   7.147  11.743  0.6069  0.2810 -0.0146
40035SOL    HW127220  11.503   7.093  11.703  1.5444 -0.8409 -0.1449
40035SOL    HW227221  11.571   7.121  11.836 -0.0811  1.2944  0.2780
40036SOL     OW27222   1.039   1.396  12.510  0.0742 -0.2432 -0.1051
40036SOL    HW127223   1.073   1.310  12.535  0.8550  0.6010  1.9858
40036SOL    HW227224   0.980   1.419  12.582 -0.0567  0.9983 -0.5995
40037SOL     OW27225   8.657   4.587   2.042  0.5298  0.3643  0.1968
40037SOL    HW127226   8.731   4.548   1.995  0.3353 -0.4846  0.5775
40037SOL    HW227227   8.580   4.565   1.990  0.3335 -0.4327  0.8127
40038SOL     OW27228   2.435   7.940  10.977  0.0991 -0.0408  0.3573
40038SOL    HW127229   2.385   7.913  11.054 -2.6231  0.4027 -1.1179
40038SOL    HW227230   2.479   7.860  10.947 -1.1117 -0.8746  0.7614
40039SOL     OW27231   4.672   3.004  11.845 -0.0376  0.1174  0.0632
40039SOL    HW127232   4.689   2.923  11.893 -0.3122 -0.4035 -0.7017
40039SOL    HW227233   4.750   3.017  11.791 -1.6232 -2.0291 -3.1015
40040SOL     OW27234   9.726   7.216   9.541 -0.0139 -0.0195  0.4608
40040SOL    HW127235   9.746   7.257   9.625  0.0804  0.0938  0.3841
40040SOL    HW227236   9.643   7.170   9.556  0.4051 -0.6624  0.8328
40041SOL     OW27237   4.691   4.408  12.265 -0.0854 -0.0359 -0.1519
40041SOL    HW127238   4.641   4.380  12.341 -0.7231 -1.8808 -1.1684
40041SOL    HW227239   4.627   4.451  12.208  0.4066  1.4281  0.3529
40042SOL     OW27240   5.341   9.722   5.535  0.1683 -0.2653  0.0594
40042SOL    HW127241   5.324   9.631   5.512 -0.9731 -0.1143  0.2370
40042SOL    HW227242   5.436   9.730   5.532  0.1941 -0.7303 -2.7376
40043SOL     OW27243  10.889   9.321   9.178 -0.0765  0.5077  0.2643
40043SOL    HW127244  10.938   9.250   9.137  0.1945  0.3981  0.7751
40043SOL    HW227245  10.800   9.287   9.187  0.3582 -0.3306  1.8129
40044SOL     OW27246   2.420  10.666   9.536  0.0808 -0.2569  0.2835
40044SOL    HW127247   2.456  10.628   9.456 -0.2775 -0.2298  0.1085
40044SOL    HW227248   2.399  10.756   9.512 -0.4112 -0.3679  0.2917
40045SOL     OW27249   5.927   9.550   1.776  0.1465  0.1487  0.6294
40045SOL    HW127250   5.846   9.527   1.822  0.5171 -1.6688  0.4272
40045SOL    HW227251   5.964   9.623   1.827 -2.3481  2.1106 -0.1329
40046SOL     OW27252   5.181  10.616   9.290  0.6172  0.0155 -0.4959
40046SOL    HW127253   5.242  10.645   9.358  1.2342 -2.4417  0.0927
40046SOL    HW227254   5.217  10.652   9.209  0.3217  2.3149  0.3144
40047SOL     OW27255  11.380   8.422   6.569 -0.3487 -0.7005 -0.3118
40047SOL    HW127256  11.312   8.418   6.637 -1.1201 -0.8538 -1.0716
40047SOL    HW227257  11.340   8.473   6.499  0.5391 -0.3244 -0.5427
40048SOL     OW27258   4.912   9.764   6.273  0.4356 -0.1512  0.2374
40048SOL    HW127259   4.997   9.799   6.300  0.2023  0.7103 -0.1137
40048SOL    HW227260   4.932   9.699   6.207  0.7937  0.5523 -0.3600
40049SOL     OW27261  10.033   1.485   0.113 -0.8482  0.3208  0.1594
40049SOL    HW127262  10.092   1.449   0.179 -1.4390  0.4841  0.7931
40049SOL    HW227263  10.002   1.408   0.064  1.4182  0.3858 -1.5460
40050SOL     OW27264   8.543   8.695   7.935  0.1783 -0.3375 -0.1127
40050SOL    HW127265   8.545   8.634   7.861 -1.4154 -0.8243  0.2041
40050SOL    HW227266   8.539   8.781   7.894 -2.2312 -0.6491 -0.6793
40051SOL     OW27267  12.563   4.426   2.059 -0.5207  0.7052 -0.2091
40051SOL    HW127268  12.481   4.379   2.044 -1.0535  1.4893  0.1664
40051SOL    HW227269  12.572   4.483   1.983 -0.1034  0.3360 -0.4462
40052SOL     OW27270   4.690   0.078  10.387  0.0412 -0.3435  0.6073
40052SOL    HW127271   4.686   0.055  10.480 -0.0089  0.5594  0.8330
40052SOL    HW227272   4.651   0.165  10.382  1.0078  0.0670 -0.1079
40053SOL     OW27273  11.853   5.211  10.487  0.4630 -0.1496 -0.2514
40053SOL    HW127274  11.869   5.305  10.480  0.2092 -0.1398 -0.8083
40053SOL    HW227275  11.793   5.191  10.414  0.5110 -0.7392 -0.1389
40054SOL     OW27276   3.537   8.081   3.375 -0.3609  0.4204  0.4183
40054SOL    HW127277   3.603   8.149   3.365 -0.0757  0.4495  2.1653
40054SOL    HW227278   3.587   8.001   3.392 -0.7440  0.2898  0.9682
40055SOL     OW27279   4.241   9.029  12.603 -0.2478  0.0439 -0.1518
40055SOL    HW127280   4.282   8.953  12.562  0.1447 -0.0694  0.4428
40055SOL    HW227281   4.300   9.102  12.584 -0.1886  0.0376  0.0101
40056SOL     OW27282   6.604   1.063   7.841  0.3392  0.3755  0.5127
40056SOL    HW127283   6.692   1.095   7.822 -0.0621  2.1466  1.3218
40056SOL    HW227284   6.580   1.108   7.923 -0.8039 -1.1108  1.0435
40057SOL     OW27285   4.419   0.190   0.756 -0.1012 -0.5936  0.1650
40057SOL    HW127286   4.342   0.172   0.810 -0.1206 -2.2101 -0.3600
40057SOL    HW227287   4.384   0.232   0.678 -0.2707  0.0312  0.5648
40058SOL     OW27288   5.628   0.189   1.471  0.0527 -0.3685 -0.2068
40058SOL    HW127289   5.685   0.197   1.394 -1.5599  1.5092 -1.3062
40058SOL    HW227290   5.668   0.120   1.524  0.8023 -2.3075 -3.0814
40059SOL     OW27291   8.598  11.631  11.524 -0.5333  0.3346 -1.1248
40059SOL    HW127292   8.615  11.691  11.596  0.4177 -1.5529  0.2951
40059SOL    HW227293   8.665  11.652  11.459  0.6148 -0.0126 -0.0831
40060SOL     OW27294   9.781   9.215   1.712 -0.4037 -0.1011  0.3308
40060SOL    HW127295   9.812   9.208   1.803 -2.0732 -1.4067  0.8655
40060SOL    HW227296   9.821   9.141   1.667 -0.5743 -0.2063  0.3475
40061SOL     OW27297  11.975   3.914   4.176 -0.1196 -0.4074 -0.1687
40061SOL    HW127298  12.067   3.890   4.166  0.0578 -0.2520  0.8902
40061SOL    HW227299  11.931   3.830   4.192  0.1762 -0.2985  1.4053
40062SOL     OW27300   5.149   7.355  10.087 -0.8555  0.2575  0.6252
40062SOL    HW127301   5.189   7.433  10.048 -0.3221 -0.3876 -0.1584
40062SOL    HW227302   5.162   7.286  10.021 -3.3512  0.0310  0.2824
40063SOL     OW27303   7.661   2.303   1.300  0.2606 -0.1871  0.1441
40063SOL    HW127304   7.735   2.280   1.355 -1.4706 -0.9775  2.2707
40063SOL    HW227305   7.619   2.219   1.280 -0.4434  0.2991 -0.4761
40064SOL     OW27306   3.217  12.250   2.821  0.0915 -0.2826  1.3630
40064SOL    HW127307   3.227  12.286   2.909  0.8247 -1.2090  1.6680
40064SOL    HW227308   3.132  12.205   2.823  1.2370 -2.5682  2.4519
40065SOL     OW27309   1.921   2.516   9.587  0.6794 -0.6271  0.0115
40065SOL    HW127310   1.862   2.585   9.617  1.4437 -0.1237  0.3760
40065SOL    HW227311   1.910   2.446   9.652 -0.3302 -1.0044 -0.5299
40066SOL     OW27312   0.649   1.990  11.594  0.3373 -0.1003 -0.2368
40066SOL    HW127313   0.731   1.940  11.591 -0.0547 -0.7821  0.0317
40066SOL    HW227314   0.628   2.007  11.502  0.9321  0.3518 -0.3000
40067SOL     OW27315   4.456   3.360   2.557 -0.6627  0.3558  0.1536
40067SOL    HW127316   4.371   3.384   2.593 -1.0221  0.1949 -0.5898
40067SOL    HW227317   4.518   3.420   2.600 -0.9982 -0.2249  1.4983
40068SOL     OW27318   0.627   1.394   8.591 -0.0452  0.4280 -0.1133
40068SOL    HW127319   0.642   1.489   8.586  1.9783  0.1400 -0.5503
40068SOL    HW227320   0.532   1.384   8.590 -0.3673  2.5433  1.6005
40069SOL     OW27321  10.981   3.776   3.375 -0.3736 -0.4732 -0.5491
40069SOL    HW127322  10.958   3.860   3.334  0.2200  0.4604  0.9397
40069SOL    HW227323  10.932   3.776   3.458  1.9609 -0.1391  0.9203
40070SOL     OW27324   6.215   1.212   1.071 -0.2177 -0.2385 -0.2024
40070SOL    HW127325   6.277   1.284   1.083 -0.6190 -0.0114  0.6429
40070SOL    HW227326   6.144   1.233   1.132 -0.4645 -1.2104 -0.1509
40071SOL     OW27327   0.144  12.895   0.084 -0.3474  0.3435 -0.3308
40071SOL    HW127328   0.146  12.803   0.058 -2.3328  0.3854 -0.7427
40071SOL    HW227329   0.221  12.904   0.141 -0.4885 -1.7486  0.3084
40072SOL     OW27330  11.756   3.616   2.564  0.8375  0.2292  0.4059
40072SOL    HW127331  11.788   3.662   2.642  1.3476  1.0832 -0.2863
40072SOL    HW227332  11.675   3.663   2.542  1.0408  0.4096  0.0446
40073SOL     OW27333   8.663  11.961   2.363 -0.2780 -0.0655  0.1887
40073SOL    HW127334   8.616  12.017   2.301  0.2148 -0.8684 -0.9416
40073SOL    HW227335   8.627  11.874   2.348  0.3797 -0.3990  0.5193
40074SOL     OW27336   4.366   4.017   7.269 -0.8197  0.0516  0.0532
40074SOL    HW127337   4.336   3.939   7.315  0.7613 -0.4205  0.3371
40074SOL    HW227338   4.446   3.989   7.224 -0.9183  1.1830 -0.8798
40075SOL     OW27339   0.730   2.838   4.567 -0.1087 -0.4239  0.3142
40075SOL    HW127340   0.706   2.777   4.498  1.1655  0.8425 -1.3468
40075SOL    HW227341   0.774   2.783   4.633 -1.0841 -1.6183  0.0046
40076SOL     OW27342  12.003   0.760   1.764  0.0911 -0.3387  0.1044
40076SOL    HW127343  11.979   0.852   1.766 -0.8502 -0.5811  0.7617
40076SOL    HW227344  11.928   0.716   1.725  0.6278 -0.8049 -0.4191
40077SOL     OW27345  10.529   4.583   2.112  0.0760 -0.0923 -0.2246
40077SOL    HW127346  10.491   4.507   2.156  0.2736 -0.8964 -1.4072
40077SOL    HW227347  10.495   4.578   2.023  1.2475  0.4004 -0.7101
40078SOL     OW27348  12.732   3.278   0.272 -0.0136  0.4484 -0.0619
40078SOL    HW127349  12.766   3.354   0.319  1.0102  0.4450 -0.7535
40078SOL    HW227350  12.744   3.205   0.332 -0.8047  0.7909  0.5260
40079SOL     OW27351  10.359  12.207   5.264 -0.0707  0.1694 -0.0143
40079SOL    HW127352  10.444  12.169   5.282  0.0090  0.7096  0.8385
40079SOL    HW227353  10.357  12.220   5.169  0.6131 -0.2633 -0.0879
40080SOL     OW27354   9.636   5.467   4.739 -0.0161  0.5795  0.4466
40080SOL    HW127355   9.641   5.467   4.644 -1.3548 -0.6027  0.3353
40080SOL    HW227356   9.553   5.422   4.758  0.3644  0.5482  2.1697
40081SOL     OW27357   2.068   8.361   8.019  0.1597  0.2613 -0.3097
40081SOL    HW127358   2.081   8.417   7.943 -0.2748 -0.2432 -0.7640
40081SOL    HW227359   2.011   8.290   7.988 -1.8042  1.1752  0.9963
40082SOL     OW27360   4.693   1.832  10.332 -0.0474 -0.1313 -0.6760
40082SOL    HW127361   4.646   1.803  10.253 -0.7295 -0.4837 -0.1545
40082SOL    HW227362   4.659   1.920  10.348 -0.5319 -0.3769 -0.3129
40083SOL     OW27363   9.151   0.647   4.078  0.6747  0.5419 -0.2283
40083SOL    HW127364   9.077   0.627   4.134  0.4043  0.8014 -0.4899
40083SOL    HW227365   9.174   0.738   4.100  0.3894  0.7398 -0.7346
40084SOL     OW27366  12.548  11.205   3.432 -0.5690  0.2293 -0.3998
40084SOL    HW127367  12.465  11.216   3.479 -0.3824 -0.6652  0.1650
40084SOL    HW227368  12.572  11.114   3.447 -0.3635 -0.0187 -2.0304
40085SOL     OW27369  10.123   1.494   5.465 -0.2375  0.7429  0.3587
40085SOL    HW127370  10.197   1.539   5.425 -0.5899  1.1598  0.1721
40085SOL    HW227371  10.087   1.441   5.394 -0.0227  0.4143  0.4922
40086SOL     OW27372   0.539   4.443   9.220 -0.1752  0.6460 -0.3318
40086SOL    HW127373   0.501   4.382   9.157 -0.1946  0.8363 -0.5046
40086SOL    HW227374   0.484   4.436   9.298 -1.4937  2.0167 -1.0835
40087SOL     OW27375   9.516   3.153   4.338 -0.2693  0.2523 -0.1267
40087SOL    HW127376   9.603   3.190   4.352 -0.2776  0.2545 -0.0780
40087SOL    HW227377   9.461   3.228   4.317 -0.6477  0.5243  1.6402
40088SOL     OW27378   9.064   7.053  10.653 -0.0757  0.0901  0.3596
40088SOL    HW127379   9.091   6.963  10.672  1.2202  0.5309  0.6827
40088SOL    HW227380   9.073   7.099  10.737  0.8562  0.8972 -0.1670
40089SOL     OW27381   1.302   8.657  10.822  0.4787 -0.6485  0.0451
40089SOL    HW127382   1.293   8.595  10.750  2.0913  0.4682 -1.1809
40089SOL    HW227383   1.255   8.616  10.895 -0.9970 -1.9107 -1.5437
40090SOL     OW27384  11.462   6.973   4.000 -0.9084  0.3878 -0.7076
40090SOL    HW127385  11.466   7.052   3.947  0.8995  0.2478 -0.8566
40090SOL    HW227386  11.452   7.003   4.090 -4.7891  0.6167 -1.0461
40091SOL     OW27387   2.795   0.089   2.887  0.2231 -0.5975 -0.1852
40091SOL    HW127388   2.741   0.162   2.917  1.5015  0.6575 -0.8140
40091SOL    HW227389   2.756   0.062   2.804 -1.2832 -1.8191  0.8689
40092SOL     OW27390   4.776  11.953   7.065  0.7152 -0.2082 -0.3456
40092SOL    HW127391   4.753  11.931   7.155 -1.2350  0.1606 -0.7005
40092SOL    HW227392   4.869  11.931   7.057  1.0251  0.1342  1.8588
40093SOL     OW27393   3.923   3.361   0.521  0.8615 -0.5231 -0.3950
40093SOL    HW127394   3.845   3.412   0.498  1.3811 -0.0918 -1.2642
40093SOL    HW227395   3.892   3.297   0.585 -0.1969 -0.3382 -0.7036
40094SOL     OW27396   3.821   1.131   6.824 -1.0055 -0.6271 -0.5061
40094SOL    HW127397   3.804   1.056   6.880 -1.6074 -0.7696 -0.8735
40094SOL    HW227398   3.747   1.133   6.763 -0.4039 -0.4299 -1.2465
40095SOL     OW27399   4.052   4.689   0.519 -0.0791 -0.0929 -0.4525
40095SOL    HW127400   4.109   4.766   0.511 -0.1544  0.1364  1.0373
40095SOL    HW227401   3.974   4.722   0.564 -0.0656 -1.0649  0.3010
40096SOL     OW27402   7.860   7.619   7.842 -0.0325  0.0959 -0.0169
40096SOL    HW127403   7.870   7.696   7.898  1.3765  0.4846 -0.7674
40096SOL    HW227404   7.847   7.655   7.754  1.0625 -0.5098 -0.4375
40097SOL     OW27405   5.497   9.825   0.154  0.6489  0.5025 -0.2261
40097SOL    HW127406   5.580   9.792   0.122  0.7640 -0.6675  1.1889
40097SOL    HW227407   5.500   9.812   0.249 -1.5552 -0.6194 -0.2335
40098SOL     OW27408  10.443   5.941   5.286  0.1595 -0.8057 -0.3395
40098SOL    HW127409  10.385   5.865   5.281  0.2322 -0.9699  0.9522
40098SOL    HW227410  10.524   5.908   5.324  0.1279 -0.0546  0.4194
40099SOL     OW27411   2.441   8.843   4.100  0.3304 -0.2044 -0.0779
40099SOL    HW127412   2.465   8.903   4.030 -2.4358 -1.0386 -1.9409
40099SOL    HW227413   2.447   8.756   4.059 -0.2681 -0.8068  1.0711
40100SOL     OW27414   6.065   6.667   1.512 -0.4250 -0.0756  0.7712
40100SOL    HW127415   6.113   6.742   1.477 -0.3509  0.1350  1.3167
40100SOL    HW227416   6.097   6.592   1.461 -1.3989  0.4201 -0.6388
40101SOL     OW27417   7.952  11.495   3.730 -0.6801  0.1222 -0.1100
40101SOL    HW127418   7.899  11.448   3.665 -0.3025 -2.2671  1.1736
40101SOL    HW227419   8.040  11.496   3.692 -0.5367 -0.9321  0.1563
40102SOL     OW27420   2.744   1.643   0.392 -0.0905  0.0995 -0.2707
40102SOL    HW127421   2.651   1.657   0.375 -0.6712 -0.4317  2.0863
40102SOL    HW227422   2.762   1.554   0.360 -0.5249 -0.0085 -0.2123
40103SOL     OW27423  11.508  11.559   6.646  0.0262  0.4408 -0.5282
40103SOL    HW127424  11.512  11.465   6.629  1.5475  0.2027  0.9363
40103SOL    HW227425  11.530  11.569   6.739 -2.1305  2.1128 -0.1038
40104SOL     OW27426   7.427  11.597   6.853  0.3752  0.7090 -0.1848
40104SOL    HW127427   7.483  11.603   6.776 -0.8660  1.7812 -1.0459
40104SOL    HW227428   7.381  11.681   6.857 -1.4470 -0.2387  0.2600
40105SOL     OW27429   0.480   1.717   9.892  0.6595 -0.1318 -0.7327
40105SOL    HW127430   0.472   1.695   9.985  1.7945 -2.5853 -1.1521
40105SOL    HW227431   0.567   1.757   9.884  0.5099  0.1987 -0.7377
40106SOL     OW27432  10.157   8.509   1.525  0.7034  0.5044 -0.5947
40106SOL    HW127433  10.139   8.480   1.615  1.8048 -0.5018 -0.6729
40106SOL    HW227434  10.087   8.468   1.474 -0.8456  2.3209 -0.0472
40107SOL     OW27435   1.495   8.154   8.666  0.2373  0.5423  0.2316
40107SOL    HW127436   1.554   8.165   8.740  0.4090 -0.9564  0.3462
40107SOL    HW227437   1.445   8.075   8.686 -1.7829  1.7034  0.1021
40108SOL     OW27438   9.822  11.702   5.525  0.7113 -0.0056 -0.1422
40108SOL    HW127439   9.868  11.752   5.457  1.4149 -0.9074 -0.3373
40108SOL    HW227440   9.845  11.747   5.606  0.6145  0.5224 -0.3996
40109SOL     OW27441   4.762   2.850   0.735 -0.0348  0.0415 -0.2517
40109SOL    HW127442   4.719   2.927   0.775 -1.0622 -0.3158 -0.6261
40109SOL    HW227443   4.827   2.823   0.800 -1.2048 -0.1204  0.9012
40110SOL     OW27444   1.820   3.531   5.745 -0.4314  0.7375 -0.3240
40110SOL    HW127445   1.746   3.591   5.753 -0.2497  0.7986  1.2384
40110SOL    HW227446   1.828   3.491   5.832  0.7256 -0.0395 -0.7609
40111SOL     OW27447   6.517  12.450  11.246 -0.3050 -0.8567 -0.0647
40111SOL    HW127448   6.528  12.355  11.241  1.0947 -0.7788  0.8570
40111SOL    HW227449   6.603  12.483  11.271 -0.4419  0.7836 -1.5302
40112SOL     OW27450   0.601   9.308   7.588  0.0856  0.1689 -0.4300
40112SOL    HW127451   0.670   9.359   7.630  0.3506 -0.4577 -0.0788
40112SOL    HW227452   0.537   9.373   7.559  0.2037  0.6651  0.3882
40113SOL     OW27453   8.036   0.806   1.429  0.3941 -0.1371  0.1492
40113SOL    HW127454   7.956   0.845   1.394  0.6803  1.1443  0.8500
40113SOL    HW227455   8.089   0.786   1.352 -0.2297 -0.1599 -0.2787
40114SOL     OW27456   8.390   7.758  10.995 -0.6630 -0.2405 -0.6229
40114SOL    HW127457   8.462   7.751  10.932 -0.4713  0.9931 -0.5821
40114SOL    HW227458   8.359   7.848  10.985 -0.0996  0.2537  1.5865
40115SOL     OW27459   5.620   6.769   3.449 -0.0359 -0.4739 -0.1175
40115SOL    HW127460   5.689   6.826   3.416  0.6873 -1.0716  0.3239
40115SOL    HW227461   5.541   6.823   3.448  0.1946 -0.1302 -1.7202
40116SOL     OW27462   6.153   7.231   9.424 -0.1288  0.2688  0.6102
40116SOL    HW127463   6.224   7.223   9.360 -0.2300 -0.9198  0.6257
40116SOL    HW227464   6.127   7.323   9.420  2.0154  0.9618  1.2453
40117SOL     OW27465  10.557   7.507   8.065 -0.0856 -0.3680  0.2029
40117SOL    HW127466  10.592   7.431   8.018 -0.3837 -0.5040  0.1951
40117SOL    HW227467  10.467   7.515   8.033  0.6453  1.4273 -1.5500
40118SOL     OW27468   7.151   3.773  11.581 -0.2104 -0.0150  0.4111
40118SOL    HW127469   7.134   3.843  11.518  2.1851 -0.2909 -0.6414
40118SOL    HW227470   7.186   3.818  11.658  0.5460  0.0534  0.0413
40119SOL     OW27471   9.908   9.977  10.232 -0.1642  0.2311 -0.1200
40119SOL    HW127472   9.994   9.985  10.193  0.7001  0.1758  1.6636
40119SOL    HW227473   9.877   9.890  10.205  0.4013  0.1827 -0.6339
40120SOL     OW27474  12.558  11.256  12.138 -0.4558  0.9631 -0.0492
40120SOL    HW127475  12.512  11.186  12.091  0.9507  1.3928 -2.2162
40120SOL    HW227476  12.511  11.336  12.114 -0.8834  1.0000  0.8656
40121SOL     OW27477   0.784   1.965   8.915 -0.6338 -0.1919  0.5426
40121SOL    HW127478   0.850   1.995   8.977 -0.0956  1.4509 -0.7594
40121SOL    HW227479   0.830   1.961   8.831 -2.0534  0.5633 -0.3121
40122SOL     OW27480  12.455  11.672  12.612 -0.0938  0.5817 -0.3815
40122SOL    HW127481  12.546  11.642  12.615 -0.3042 -0.0413 -0.2162
40122SOL    HW227482  12.430  11.683  12.704 -0.0662  1.1371 -0.4352
40123SOL     OW27483   8.489   5.932   2.804  0.4236  0.3039  0.3620
40123SOL    HW127484   8.537   6.011   2.781 -1.9147  2.1346  1.3222
40123SOL    HW227485   8.501   5.923   2.899 -0.3958  0.2989  0.4745
40124SOL     OW27486   6.718   9.628   9.453 -0.1283 -0.7312  0.2164
40124SOL    HW127487   6.806   9.665   9.452 -0.5698  0.4650  1.8235
40124SOL    HW227488   6.661   9.700   9.428 -0.8725 -0.6666  1.9557
40125SOL     OW27489   0.848  11.566   1.314 -0.3484  0.0939 -0.2219
40125SOL    HW127490   0.907  11.513   1.368 -0.7758  0.2157  0.3770
40125SOL    HW227491   0.853  11.527   1.227 -0.8423 -1.1021  0.2583
40126SOL     OW27492   3.102   0.451  10.619 -0.1713  0.0632 -0.0455
40126SOL    HW127493   3.188   0.438  10.659 -0.1803  0.6775  0.1715
40126SOL    HW227494   3.087   0.370  10.570 -0.0438 -0.5893  0.9618
40127SOL     OW27495   8.349   6.773   2.555 -0.2739 -0.2444  0.1660
40127SOL    HW127496   8.285   6.791   2.486  1.2254 -0.9870 -1.4769
40127SOL    HW227497   8.330   6.839   2.622 -3.0613 -0.7542 -0.0112
40128SOL     OW27498  12.047   1.791  12.531 -0.5284 -0.0366 -0.3076
40128SOL    HW127499  12.007   1.738  12.601 -0.6129 -0.4221 -0.6452
40128SOL    HW227500  12.123   1.831  12.572 -2.1126  2.0307  0.8397
40129SOL     OW27501   1.755   9.432   3.710  0.7367 -0.2342 -0.2019
40129SOL    HW127502   1.828   9.401   3.656  1.4001 -0.1834  0.6291
40129SOL    HW227503   1.696   9.475   3.649 -0.2131 -3.0677 -1.4009
40130SOL     OW27504  12.120   2.212   2.069 -0.0381 -0.3102 -0.2041
40130SOL    HW127505  12.197   2.269   2.068  1.2168 -1.9534 -1.0163
40130SOL    HW227506  12.066   2.247   2.140  1.8168  0.4321  0.9314
40131SOL     OW27507   8.753   8.728   9.156  0.2706 -0.6634 -0.3294
40131SOL    HW127508   8.730   8.651   9.208  0.1264 -0.1636  0.3660
40131SOL    HW227509   8.849   8.726   9.152  0.2285 -1.7127 -1.6356
40132SOL     OW27510   2.101   9.584  11.282  0.3793 -0.3732  0.0516
40132SOL    HW127511   2.174   9.616  11.229  0.4887 -0.3016  0.2452
40132SOL    HW227512   2.023   9.603  11.229  0.5051 -0.5119 -0.1859
40133SOL     OW27513   0.837   8.116  11.514 -0.0009  0.0375  0.0958
40133SOL    HW127514   0.746   8.097  11.491  0.3123  1.2156 -2.4660
40133SOL    HW227515   0.880   8.030  11.510 -0.8861 -0.4769  0.9912
40134SOL     OW27516   9.164   4.515   2.261  0.0007 -0.0392 -0.4861
40134SOL    HW127517   9.105   4.586   2.287  0.2542 -0.0967  0.2476
40134SOL    HW227518   9.251   4.545   2.286  0.2433 -0.1504 -1.1612
40135SOL     OW27519   9.499   3.724   0.829 -0.0136 -0.5369 -0.4226
40135SOL    HW127520   9.524   3.677   0.749  4.6213 -0.0431  0.4797
40135SOL    HW227521   9.516   3.816   0.809  1.2826 -0.4199  1.1232
40136SOL     OW27522   1.893   5.747   4.047 -0.3135 -0.1747  0.6732
40136SOL    HW127523   1.811   5.760   4.000 -0.7884 -0.0755  1.5104
40136SOL    HW227524   1.903   5.652   4.052  0.9217 -0.2437 -1.6034
40137SOL     OW27525  11.365   0.856  10.366  0.6403  0.3292 -0.1185
40137SOL    HW127526  11.270   0.863  10.370  0.5800 -0.4026 -0.1181
40137SOL    HW227527  11.397   0.941  10.396 -0.0189  0.8238 -0.7794
40138SOL     OW27528   1.381   3.175   9.932 -0.6439  0.3128 -0.4541
40138SOL    HW127529   1.321   3.109   9.965 -1.0922  0.5269 -0.8340
40138SOL    HW227530   1.413   3.220  10.011 -0.5458 -0.1753 -0.2169
40139SOL     OW27531   9.000  10.067   0.563 -0.4446 -0.2785 -0.2359
40139SOL    HW127532   9.000  10.038   0.654  1.2747  0.3890  0.0168
40139SOL    HW227533   8.908  10.085   0.543 -0.6974  1.2131  1.9192
40140SOL     OW27534   7.502  12.282   1.823 -0.2343  0.0614 -0.6373
40140SOL    HW127535   7.532  12.373   1.835 -2.2114  0.6600  0.0931
40140SOL    HW227536   7.510  12.243   1.909 -1.4424  0.2173 -0.4409
40141SOL     OW27537   7.672   1.741  11.294 -0.4034 -0.0405 -0.1803
40141SOL    HW127538   7.652   1.808  11.360 -0.3654 -0.9715  0.8110
40141SOL    HW227539   7.701   1.791  11.217  0.5857  1.0653  0.8500
40142SOL     OW27540  10.188  10.540   6.300 -0.2285  0.0214  0.2646
40142SOL    HW127541  10.230  10.483   6.235 -1.5300  0.6479 -1.2000
40142SOL    HW227542  10.156  10.614   6.248 -0.7925  0.8431  1.7419
40143SOL     OW27543   7.395  10.682   8.726  0.2125  0.1065  0.1457
40143SOL    HW127544   7.398  10.594   8.688  2.6880 -0.0196  0.4609
40143SOL    HW227545   7.333  10.674   8.799 -2.1095 -0.4724 -1.7684
40144SOL     OW27546  11.289   1.229   0.598 -0.5130  0.1045 -0.1820
40144SOL    HW127547  11.216   1.291   0.599 -1.3516 -0.8560 -0.3759
40144SOL    HW227548  11.254   1.150   0.640  0.3827 -0.4109 -0.3746
40145SOL     OW27549   4.363   8.435   2.915 -0.3534 -0.4610 -0.0601
40145SOL    HW127550   4.289   8.496   2.911  0.2938  0.2959 -0.7966
40145SOL    HW227551   4.423   8.465   2.847  1.6315  0.2634  1.8841
40146SOL     OW27552   7.842   5.534   7.004 -0.1291 -0.1811 -0.5356
40146SOL    HW127553   7.919   5.588   7.023 -0.8964  1.6525 -2.3091
40146SOL    HW227554   7.873   5.444   7.013  1.3038  0.4743  2.1677
40147SOL     OW27555   3.664   5.186   5.932 -0.1612  0.0710  0.5313
40147SOL    HW127556   3.725   5.121   5.898 -0.4149 -0.3939  0.9474
40147SOL    HW227557   3.649   5.159   6.023 -1.5914 -0.2711  0.2016
40148SOL     OW27558   4.094   8.937   1.677 -0.2169 -0.6206  0.0204
40148SOL    HW127559   4.185   8.917   1.656 -0.2583 -1.7330  0.8593
40148SOL    HW227560   4.077   9.019   1.630  1.1024 -0.5750 -0.4275
40149SOL     OW27561   3.675   9.647   1.831  0.1415  0.1205 -0.1660
40149SOL    HW127562   3.665   9.742   1.840  1.4222  0.2193  0.5086
40149SOL    HW227563   3.590   9.617   1.799  0.1071  1.6472 -1.6444
40150SOL     OW27564   3.311   9.807   5.172  0.5817 -0.2574 -0.2176
40150SOL    HW127565   3.241   9.799   5.108  0.8193 -0.7496 -0.4283
40150SOL    HW227566   3.278   9.868   5.237 -0.1027 -0.6043 -0.2307
40151SOL     OW27567   8.330   0.228   2.895 -0.0710  0.0425  0.2706
40151SOL    HW127568   8.323   0.317   2.860  0.5636 -0.0710 -0.1750
40151SOL    HW227569   8.270   0.226   2.970 -0.6335  0.6273 -0.1497
40152SOL     OW27570   7.225   9.827   5.111 -0.5038 -0.0665  0.6124
40152SOL    HW127571   7.316   9.826   5.081 -0.3748 -1.3378  1.0047
40152SOL    HW227572   7.180   9.883   5.048  0.3527 -0.2435 -0.1801
40153SOL     OW27573   7.653   2.168   8.215  0.0987 -0.1980  0.6150
40153SOL    HW127574   7.665   2.089   8.267  0.7787  0.2213  1.1247
40153SOL    HW227575   7.742   2.199   8.198 -0.1633  0.5969  0.6532
40154SOL     OW27576   2.514   8.501   2.467 -0.2277 -0.2305 -0.5844
40154SOL    HW127577   2.473   8.520   2.551  0.0737 -1.4073 -0.1563
40154SOL    HW227578   2.539   8.409   2.473  2.8567  0.5043 -0.6666
40155SOL     OW27579  12.092   3.052   7.929 -0.0806 -0.2071  0.6061
40155SOL    HW127580  12.112   3.002   7.850 -1.4295  0.5687 -0.2610
40155SOL    HW227581  12.052   3.133   7.897 -0.3547  0.2731  2.0762
40156SOL     OW27582   8.158   8.444   4.990 -0.0815  1.2030 -0.2127
40156SOL    HW127583   8.151   8.365   5.045 -0.6296  0.2442 -1.6017
40156SOL    HW227584   8.075   8.490   5.004 -0.6808  0.4040 -1.0249
40157SOL     OW27585  12.578   3.835   5.786  0.6859  0.2795  0.7291
40157SOL    HW127586  12.482   3.838   5.781  0.5672 -1.5158  1.1726
40157SOL    HW227587  12.604   3.926   5.799 -0.8364  1.0543 -1.1140
40158SOL     OW27588   6.494  10.670   3.472 -0.0342 -0.1855 -0.4108
40158SOL    HW127589   6.415  10.617   3.473  0.5980 -1.2214  1.9407
40158SOL    HW227590   6.546  10.635   3.400 -0.3421 -1.7186  0.0850
40159SOL     OW27591  11.284   8.815   7.040  0.4238  0.2125 -0.5572
40159SOL    HW127592  11.295   8.900   7.083  2.7444 -0.2457 -0.1505
40159SOL    HW227593  11.328   8.825   6.956  1.0590 -0.6821 -0.3468
40160SOL     OW27594   3.530   2.369   0.852 -0.1788 -0.0718  0.9904
40160SOL    HW127595   3.550   2.312   0.779 -0.0868 -0.6820  1.4825
40160SOL    HW227596   3.573   2.452   0.831 -0.8366  0.0267 -0.0176
40161SOL     OW27597  12.778   4.808   3.910 -0.1968 -0.1891 -0.1178
40161SOL    HW127598  12.682   4.817   3.906 -0.3419 -0.9074  1.1405
40161SOL    HW227599  12.811   4.897   3.909 -0.8856  0.0703 -0.3686
40162SOL     OW27600   0.619   9.328   6.545 -0.7639 -0.9573  0.5719
40162SOL    HW127601   0.646   9.420   6.551 -1.1504 -0.8434  0.5871
40162SOL    HW227602   0.700   9.279   6.556 -0.5152 -0.6119  0.3125
40163SOL     OW27603  11.736   3.802   5.146 -0.1773 -0.4145  0.5143
40163SOL    HW127604  11.788   3.881   5.130 -0.4134 -0.3497  0.0338
40163SOL    HW227605  11.649   3.823   5.113 -0.3229 -0.7694  0.6643
40164SOL     OW27606   5.738   9.991  12.525 -0.5501  0.1109  0.4075
40164SOL    HW127607   5.762  10.067  12.577 -2.2745  1.5311 -0.7459
40164SOL    HW227608   5.812   9.979  12.465 -0.6744  1.5639 -0.0824
40165SOL     OW27609  11.142   1.500   0.708  0.2613  0.0285  0.8008
40165SOL    HW127610  11.081   1.431   0.682  1.7578 -1.7073  1.6137
40165SOL    HW227611  11.152   1.489   0.802  1.5237  0.4966  0.7405
40166SOL     OW27612   7.619   5.550   4.022  0.2349 -0.1321  0.4465
40166SOL    HW127613   7.527   5.578   4.022  0.0504 -0.7109  0.7064
40166SOL    HW227614   7.655   5.585   4.104  0.3884  0.5323  0.0996
40167SOL     OW27615   8.748   8.552   8.078 -0.2554 -0.7138  0.0587
40167SOL    HW127616   8.756   8.473   8.025 -1.0830  0.7342 -2.3844
40167SOL    HW227617   8.682   8.605   8.033  1.0652  1.8611  0.9471
40168SOL     OW27618  12.025   3.316   3.271  0.3449 -0.2740 -0.5616
40168SOL    HW127619  12.046   3.380   3.204 -2.6576  0.3396 -1.0838
40168SOL    HW227620  11.980   3.246   3.224 -2.0795  0.2981  0.7177
40169SOL     OW27621   3.107   7.748   8.712  0.0851 -0.4821 -0.0862
40169SOL    HW127622   3.043   7.776   8.778 -0.9208 -1.9322 -0.3943
40169SOL    HW227623   3.111   7.822   8.651 -0.8724 -0.1216  0.2569
40170SOL     OW27624  12.901   8.480   5.141  0.0624  0.4115  0.0395
40170SOL    HW127625  12.971   8.530   5.183 -0.3337 -0.8772  2.3823
40170SOL    HW227626  12.901   8.396   5.186 -0.2344 -1.2496 -2.8081
40171SOL     OW27627   9.802  11.197   0.513  0.4577 -0.2883 -0.4708
40171SOL    HW127628   9.753  11.217   0.592 -0.6181  1.8157 -1.5928
40171SOL    HW227629   9.887  11.240   0.526 -0.3221  1.5567 -1.0865
40172SOL     OW27630   9.345   9.773   4.885 -0.1039 -0.6224 -0.2841
40172SOL    HW127631   9.409   9.761   4.814  0.3414 -1.1219  0.1875
40172SOL    HW227632   9.390   9.741   4.963 -0.0181  1.3536  0.5286
40173SOL     OW27633  11.479   1.957   2.296  0.3548  0.0902 -0.1340
40173SOL    HW127634  11.410   1.890   2.294 -0.1194  0.5768 -1.4588
40173SOL    HW227635  11.435   2.037   2.325  1.0031 -0.2136  1.8346
40174SOL     OW27636  11.782   3.405   9.623 -0.0027  0.1402  0.1727
40174SOL    HW127637  11.851   3.443   9.567 -0.2983 -0.6722 -0.7769
40174SOL    HW227638  11.800   3.440   9.710  1.8251 -0.3236  0.0133
40175SOL     OW27639   8.039  10.730   1.530 -0.1292 -0.1529  0.2016
40175SOL    HW127640   8.107  10.704   1.592  0.2362 -2.0563 -0.9073
40175SOL    HW227641   7.957  10.702   1.570  0.1010 -1.3304 -0.0906
40176SOL     OW27642   3.203   9.114   4.294 -0.7522  0.2639  0.4256
40176SOL    HW127643   3.157   9.029   4.295  0.7298 -0.5779  2.1397
40176SOL    HW227644   3.132   9.178   4.293 -1.9756 -0.9926  1.0285
40177SOL     OW27645   4.198   6.242   4.333 -0.1495 -0.2327  0.6685
40177SOL    HW127646   4.103   6.236   4.338 -0.1702  0.5547  1.4244
40177SOL    HW227647   4.229   6.153   4.350 -0.7456 -0.5050  0.3557
40178SOL     OW27648  10.302  12.228   7.854 -0.4993  0.1954 -0.3567
40178SOL    HW127649  10.296  12.176   7.774  0.2963 -0.6804  0.1400
40178SOL    HW227650  10.395  12.250   7.861 -0.8935  2.2721 -0.8951
40179SOL     OW27651   1.684  11.955   5.194 -0.1166  0.0904 -0.4359
40179SOL    HW127652   1.605  11.969   5.141 -2.0075 -2.7278  1.3516
40179SOL    HW227653   1.652  11.957   5.285  1.6871 -1.7404  0.3209
40180SOL     OW27654   4.075   8.636   2.367  0.2694 -0.2016  0.0684
40180SOL    HW127655   4.134   8.698   2.410  0.4958  0.6958 -1.4677
40180SOL    HW227656   4.094   8.646   2.274 -2.2240  0.0601 -0.4768
40181SOL     OW27657   2.415   5.829   3.655  0.0467 -0.0862 -0.1639
40181SOL    HW127658   2.326   5.852   3.627 -0.8664  0.0736  2.5733
40181SOL    HW227659   2.457   5.913   3.672  0.9544 -0.1420 -1.9750
40182SOL     OW27660   7.830  12.438   5.182  1.0905  0.2796  0.4334
40182SOL    HW127661   7.861  12.516   5.136  0.0890  0.5343  0.1798
40182SOL    HW227662   7.782  12.389   5.115 -2.5247  1.8114  1.6771
40183SOL     OW27663   3.319   9.753   8.227 -0.0174 -0.3921 -0.0989
40183SOL    HW127664   3.413   9.735   8.224  0.2256  0.7900 -0.5536
40183SOL    HW227665   3.280   9.687   8.169  0.4698 -1.1884  0.4658
40184SOL     OW27666   6.471   6.051   0.558  0.1045  0.3122 -0.4138
40184SOL    HW127667   6.537   6.117   0.580 -2.3449  2.3963  1.1903
40184SOL    HW227668   6.429   6.085   0.479 -0.0602 -0.2405 -0.5674
40185SOL     OW27669   6.823   7.639   2.174 -0.4836 -0.1270 -0.1306
40185SOL    HW127670   6.851   7.729   2.189 -0.6226 -0.2607  1.0288
40185SOL    HW227671   6.817   7.601   2.262  0.9611 -1.7018 -0.6710
40186SOL     OW27672   5.765   5.650   2.794  0.1546  0.0168 -0.4112
40186SOL    HW127673   5.772   5.578   2.857  0.9782  1.0452  0.7137
40186SOL    HW227674   5.853   5.685   2.787 -0.5327  2.1326  0.5805
40187SOL     OW27675   9.001   9.256   0.876 -0.3805 -0.1345 -0.2128
40187SOL    HW127676   9.058   9.332   0.868 -0.5717  0.2820  1.8055
40187SOL    HW227677   9.057   9.186   0.911 -0.9903  0.2512  1.6983
40188SOL     OW27678  12.290  10.337   4.783  0.0530  0.1348  0.1849
40188SOL    HW127679  12.282  10.380   4.698 -0.0959 -0.1795  0.0368
40188SOL    HW227680  12.358  10.386   4.829  1.3954 -0.7507 -0.7924
40189SOL     OW27681   0.524   7.802   2.243  0.4248  0.5484  0.0993
40189SOL    HW127682   0.545   7.884   2.289 -0.7601  0.4068  0.9403
40189SOL    HW227683   0.574   7.807   2.162  1.3735  1.5194  0.7097
40190SOL     OW27684   8.101  12.505   8.968 -0.8219 -0.0813  0.7407
40190SOL    HW127685   8.081  12.414   8.988 -1.4067 -0.2590 -0.5204
40190SOL    HW227686   8.194  12.506   8.946 -0.9582 -0.5077  0.1225
40191SOL     OW27687  10.408   4.434   5.510 -0.1007 -0.1432 -0.5948
40191SOL    HW127688  10.473   4.494   5.473 -0.8280  0.8818 -0.2637
40191SOL    HW227689  10.346   4.418   5.438 -0.3484  0.1537 -0.4500
40192SOL     OW27690   6.402   3.603   2.403  0.3228 -0.3159  0.1251
40192SOL    HW127691   6.311   3.609   2.430  0.2183  1.4342 -0.5179
40192SOL    HW227692   6.413   3.512   2.374 -1.6433 -0.1611 -1.2785
40193SOL     OW27693  12.784   2.520  11.141 -0.3115  0.2041  0.3938
40193SOL    HW127694  12.722   2.591  11.125 -1.0494 -0.3290  0.8371
40193SOL    HW227695  12.869   2.564  11.149 -0.8030  1.0758  1.0385
40194SOL     OW27696   9.382   6.749   6.997  0.1143 -0.2088 -0.4414
40194SOL    HW127697   9.424   6.819   7.048  0.3204  0.2443 -1.2139
40194SOL    HW227698   9.422   6.669   7.029 -0.2303  0.0053  0.5631
40195SOL     OW27699   5.012  11.834  12.638 -0.1973  0.0522 -0.2089
40195SOL    HW127700   5.041  11.761  12.584  0.7830  1.3041 -1.4821
40195SOL    HW227701   4.918  11.842  12.620 -0.2165 -0.6083 -0.4151
40196SOL     OW27702   9.986   0.021  10.958 -0.1331  0.3466  0.2681
40196SOL    HW127703  10.044  -0.046  10.923 -1.3120 -0.5519 -0.0360
40196SOL    HW227704  10.005   0.100  10.906  2.6994  0.9069  1.9503
40197SOL     OW27705  11.905   2.784  10.322  0.3494 -0.3089  0.6750
40197SOL    HW127706  11.812   2.804  10.310  0.4565  0.6551  1.3478
40197SOL    HW227707  11.929   2.734  10.244 -1.1915 -2.2743  1.3904
40198SOL     OW27708  11.395  11.735   9.614 -0.4425 -0.3110 -0.5677
40198SOL    HW127709  11.302  11.728   9.594 -0.2341 -1.8592 -1.1340
40198SOL    HW227710  11.411  11.669   9.682  0.4173 -0.7680 -1.1908
40199SOL     OW27711   5.220   9.840   8.485  0.0009  0.4920 -0.0031
40199SOL    HW127712   5.294   9.880   8.531 -0.7777  2.2333 -0.1954
40199SOL    HW227713   5.172   9.793   8.553  0.4733  0.5817  0.3950
40200SOL     OW27714  10.190   4.026  11.422  0.6249  0.1154  0.1007
40200SOL    HW127715  10.175   3.934  11.403  1.1367 -0.0157  0.2961
40200SOL    HW227716  10.246   4.056  11.351 -0.5719  0.6101 -0.6562
40201SOL     OW27717   1.008   8.612  11.192  0.3639 -0.3377 -0.2198
40201SOL    HW127718   0.994   8.697  11.233  0.8064 -0.2850 -0.1805
40201SOL    HW227719   0.936   8.558  11.225 -0.7180  0.3898 -1.3113
40202SOL     OW27720  10.521   6.024   8.792 -0.7492 -0.3473  0.3497
40202SOL    HW127721  10.551   6.103   8.748 -0.7600 -0.7208 -0.3481
40202SOL    HW227722  10.579   6.014   8.867 -1.2125  0.7202  0.8779
40203SOL     OW27723   9.791   1.420   8.729  0.1016  0.1327  0.5952
40203SOL    HW127724   9.731   1.386   8.796 -0.2856  1.5904  1.0286
40203SOL    HW227725   9.870   1.366   8.738 -0.3835 -0.4597  1.4301
40204SOL     OW27726   1.849   4.464  12.175 -0.0048  0.8214  0.5721
40204SOL    HW127727   1.856   4.447  12.081 -0.8520  1.0752  0.4475
40204SOL    HW227728   1.932   4.435  12.212 -0.5642 -1.6462  0.0862
40205SOL     OW27729  10.679   6.138   2.860  1.2749  0.1461 -0.2299
40205SOL    HW127730  10.690   6.074   2.789  0.7895  0.3042 -0.4462
40205SOL    HW227731  10.703   6.222   2.820  0.5548  0.3032 -0.3378
40206SOL     OW27732   3.038   9.684   7.273 -0.5040 -0.1076  0.1192
40206SOL    HW127733   3.079   9.668   7.188  0.6659  0.1408  0.6286
40206SOL    HW227734   2.971   9.616   7.280 -1.3661  0.5250 -1.4693
40207SOL     OW27735   5.410   2.605   9.560 -0.3100  0.3194  0.0824
40207SOL    HW127736   5.496   2.638   9.585  0.1597 -0.4009 -0.5382
40207SOL    HW227737   5.413   2.600   9.465  0.1233 -2.6539  0.1683
40208SOL     OW27738  11.126   6.500   2.958 -0.4334  0.2062 -0.4971
40208SOL    HW127739  11.184   6.445   2.905 -0.9216 -2.2708  1.3335
40208SOL    HW227740  11.172   6.511   3.041 -1.3156  0.6996 -0.0531
40209SOL     OW27741   7.162   1.143   5.037  0.2536 -0.4591 -0.0635
40209SOL    HW127742   7.204   1.122   4.954  0.7507 -0.2708  0.1330
40209SOL    HW227743   7.151   1.238   5.035 -0.6409 -0.5566 -0.3284
40210SOL     OW27744   8.334   8.162   0.014 -0.0427  0.5673  0.0017
40210SOL    HW127745   8.428   8.146   0.005  0.1847  2.3055 -1.2477
40210SOL    HW227746   8.311   8.214  -0.063 -1.8522  0.9118  0.7274
40211SOL     OW27747   3.044   0.608   5.722 -0.6436  0.4160 -0.7119
40211SOL    HW127748   2.980   0.557   5.671  0.8636  0.0205 -2.2707
40211SOL    HW227749   3.059   0.687   5.671 -0.4727  0.8981  0.0599
40212SOL     OW27750   9.134   7.907   5.015 -0.2759 -0.3686  0.6654
40212SOL    HW127751   9.097   7.943   4.934 -0.5985 -0.0280  0.9612
40212SOL    HW227752   9.226   7.891   4.994  0.0065  1.1245  0.6857
40213SOL     OW27753   4.041   3.880   6.458  0.1646  0.1687 -0.0116
40213SOL    HW127754   4.062   3.964   6.418 -0.6770  0.3717 -0.0283
40213SOL    HW227755   3.971   3.844   6.403  0.7428 -0.7000 -0.2076
40214SOL     OW27756  11.610   9.265  11.644 -0.3459 -0.2986 -0.1366
40214SOL    HW127757  11.667   9.340  11.626  0.0608 -0.8127 -1.0869
40214SOL    HW227758  11.671   9.192  11.657 -0.7432 -0.5023  0.6268
40215SOL     OW27759   4.890  12.839  12.769 -0.1350 -0.1985  0.2707
40215SOL    HW127760   4.854  12.928  12.772 -3.2739 -1.3582  1.1884
40215SOL    HW227761   4.941  12.831  12.850 -0.7311  0.4587  0.7277
40216SOL     OW27762  12.777   9.144   3.525  0.3025 -0.3196  0.3944
40216SOL    HW127763  12.845   9.188   3.474 -1.0929  2.1410  0.4964
40216SOL    HW227764  12.824   9.101   3.596  2.0065 -1.4213 -1.3170
40217SOL     OW27765   7.642   3.340   8.941 -0.1520  1.1021 -0.2177
40217SOL    HW127766   7.667   3.336   8.848  0.0023 -0.4065 -0.1309
40217SOL    HW227767   7.558   3.295   8.946 -0.4398  1.6768  0.3043
40218SOL     OW27768   1.131   9.921   6.176 -0.6402  0.7909  0.2207
40218SOL    HW127769   1.070   9.871   6.230 -0.5407 -1.3905 -1.5581
40218SOL    HW227770   1.090   9.925   6.089  1.2856  0.0727 -0.7846
40219SOL     OW27771   5.308   9.892  12.110 -0.6509  0.0613  0.9028
40219SOL    HW127772   5.387   9.886  12.164  0.4376  0.1692 -0.6180
40219SOL    HW227773   5.279   9.801  12.100 -0.6396  0.0091  1.3253
40220SOL     OW27774   2.015   0.927  11.561  0.1906 -1.0758 -0.3913
40220SOL    HW127775   1.974   1.013  11.564 -0.3998 -1.3852  0.7683
40220SOL    HW227776   1.943   0.866  11.546  0.5011 -1.4447 -0.4041
40221SOL     OW27777  11.076  10.359  11.456 -0.2448  0.0805  0.3884
40221SOL    HW127778  11.017  10.418  11.411 -1.0658 -1.7595 -1.0925
40221SOL    HW227779  11.043  10.356  11.546  0.3338  2.4152  0.7520
40222SOL     OW27780   6.775   4.785  12.806 -0.5583  0.0448  0.1277
40222SOL    HW127781   6.823   4.812  12.884 -1.2350  0.7501  0.3042
40222SOL    HW227782   6.775   4.862  12.750 -0.3577 -0.3583 -0.4328
40223SOL     OW27783   8.942   6.751   2.518 -0.5298 -0.7668  0.1507
40223SOL    HW127784   8.887   6.673   2.507 -0.1614 -0.8410 -1.5154
40223SOL    HW227785   8.884   6.824   2.497 -0.8114 -0.5833  1.4869
40224SOL     OW27786   2.034   4.803  11.584 -0.1834 -0.2503 -0.2861
40224SOL    HW127787   2.045   4.750  11.663  2.0275  1.4907  0.6786
40224SOL    HW227788   2.070   4.749  11.513 -1.6766 -1.6015 -0.0702
40225SOL     OW27789  10.877  10.302   9.500 -0.6450  0.2878  0.0566
40225SOL    HW127790  10.822  10.311   9.422 -0.6383  1.1111  0.1437
40225SOL    HW227791  10.954  10.356   9.481 -0.5782  0.3822  0.5760
40226SOL     OW27792  10.312  10.425   6.098  0.3072  0.2912 -0.1679
40226SOL    HW127793  10.337  10.513   6.071 -2.3839  0.8890 -0.9371
40226SOL    HW227794  10.280  10.383   6.019  1.7982 -1.5380  0.1260
40227SOL     OW27795   7.351   4.153  10.870  0.0311  0.4044  0.1917
40227SOL    HW127796   7.384   4.094  10.802 -0.4839 -0.4423  0.6550
40227SOL    HW227797   7.258   4.165  10.847 -0.2726 -0.2776  0.9889
40228SOL     OW27798   4.005   7.700   1.992  0.5372 -0.1996 -0.3644
40228SOL    HW127799   4.091   7.739   2.005  0.9691 -0.1505 -2.8544
40228SOL    HW227800   4.022   7.614   1.954 -0.5044 -0.2550 -0.7463
40229SOL     OW27801   8.245   1.336   7.985  0.1612  0.2039 -0.0129
40229SOL    HW127802   8.197   1.417   7.995  0.6371  0.3718  1.0401
40229SOL    HW227803   8.178   1.271   7.963 -0.2377  0.8433 -0.7162
40230SOL     OW27804   7.152   1.641   7.310  0.3671  0.0832  0.8381
40230SOL    HW127805   7.086   1.572   7.298  1.3482 -1.0966  2.0460
40230SOL    HW227806   7.139   1.672   7.400  2.1545 -0.9437  1.4826
40231SOL     OW27807   6.060  12.141  11.812 -0.9791  0.4511 -0.2629
40231SOL    HW127808   6.135  12.200  11.819 -0.0917 -0.7245  0.7152
40231SOL    HW227809   6.040  12.117  11.903 -1.0397 -1.0664 -0.6558
40232SOL     OW27810   3.534   2.659   6.380 -0.0825 -0.3463 -0.3311
40232SOL    HW127811   3.617   2.662   6.429 -1.2903  1.7741  1.8027
40232SOL    HW227812   3.514   2.751   6.362 -1.5919 -0.8712 -1.5069
40233SOL     OW27813   8.312  10.887  10.975  0.5914  0.0131  0.0791
40233SOL    HW127814   8.401  10.867  10.945  0.2811 -2.1316  0.3967
40233SOL    HW227815   8.324  10.931  11.060  1.3505 -0.3860  0.1839
40234SOL     OW27816   6.746  12.213   6.893  0.6430 -1.0333  0.3090
40234SOL    HW127817   6.665  12.178   6.856  0.8650 -0.3313 -0.9007
40234SOL    HW227818   6.801  12.231   6.816  2.0216 -1.6725  1.1095
40235SOL     OW27819   2.390   5.491   5.327  0.0333  0.6553 -0.7370
40235SOL    HW127820   2.471   5.489   5.276  1.2624  1.1436  1.0818
40235SOL    HW227821   2.410   5.549   5.401 -0.5836 -2.3067  1.9789
40236SOL     OW27822   6.119  10.645   7.556 -0.3568 -0.0260 -0.3313
40236SOL    HW127823   6.091  10.609   7.640 -1.3795 -0.2770 -0.7633
40236SOL    HW227824   6.153  10.732   7.577 -1.3794  0.2519  0.2420
40237SOL     OW27825  12.758   1.476   1.479  0.0361 -0.1520  0.0162
40237SOL    HW127826  12.851   1.461   1.496  0.1177  0.0149 -0.2867
40237SOL    HW227827  12.719   1.389   1.479  0.5022 -0.4006 -1.7116
40238SOL     OW27828   2.609   8.987  11.408  0.3681  0.8185  0.2619
40238SOL    HW127829   2.675   9.029  11.352  2.5327 -1.8386  0.6656
40238SOL    HW227830   2.659   8.941  11.475 -1.6998 -2.7334 -0.3630
40239SOL     OW27831  10.890   0.633   6.611  0.7745 -0.5082  0.2285
40239SOL    HW127832  10.935   0.587   6.683  0.7736 -2.0869 -0.7291
40239SOL    HW227833  10.908   0.726   6.627 -2.9908 -0.2253  4.8865
40240SOL     OW27834  10.124   5.931   4.047  0.3283  0.4126  0.3220
40240SOL    HW127835  10.086   5.939   3.960  2.3461 -1.2127 -0.8062
40240SOL    HW227836  10.144   5.837   4.057  1.5017  0.7713  1.9025
40241SOL     OW27837   2.525   5.800  12.518  0.1825 -0.1477  0.3874
40241SOL    HW127838   2.493   5.880  12.561 -1.6551  0.0224 -1.1631
40241SOL    HW227839   2.461   5.733  12.542  1.6369 -1.1643  1.5549
40242SOL     OW27840   0.745   8.791  12.502 -0.2554  0.1150 -0.1307
40242SOL    HW127841   0.793   8.837  12.571  2.1736 -1.1372 -0.8796
40242SOL    HW227842   0.653   8.797  12.529  0.2220  2.7787  1.2867
40243SOL     OW27843   5.326   2.543   2.615 -0.1574 -0.1239 -0.0574
40243SOL    HW127844   5.413   2.564   2.647 -0.9992  1.0287  1.6214
40243SOL    HW227845   5.324   2.448   2.611  2.0230 -0.1857 -2.7684
40244SOL     OW27846   8.923   9.285   7.762 -0.0855 -0.0670 -0.1277
40244SOL    HW127847   9.015   9.270   7.785 -0.5594 -0.9344  1.2848
40244SOL    HW227848   8.895   9.355   7.821 -0.4398 -0.0820 -0.2783
40245SOL     OW27849  10.903   6.810  11.930  0.2409 -0.6519 -0.0619
40245SOL    HW127850  10.903   6.730  11.982 -1.0259 -1.0937 -0.7078
40245SOL    HW227851  10.819   6.810  11.885 -0.3431  1.6426  0.8427
40246SOL     OW27852   2.052   8.371   4.951 -0.3150  0.1516 -0.1393
40246SOL    HW127853   1.991   8.384   4.879 -0.2468 -0.3513 -0.2926
40246SOL    HW227854   2.134   8.346   4.908  0.2438  1.6101  0.0127
40247SOL     OW27855   0.982  12.885  10.194 -0.4971 -0.0852  0.4893
40247SOL    HW127856   1.073  12.869  10.219 -1.0554 -1.5617  1.7237
40247SOL    HW227857   0.932  12.872  10.275 -1.7961  0.8850 -0.1228
40248SOL     OW27858   3.811   4.698   9.097  0.3260  0.1290  0.1056
40248SOL    HW127859   3.895   4.737   9.074 -0.2781  1.7792  0.5514
40248SOL    HW227860   3.781   4.657   9.016  1.0530  0.4656 -0.3455
40249SOL     OW27861   4.507   1.685   7.524 -0.7956  0.4893  0.8381
40249SOL    HW127862   4.600   1.677   7.546 -0.4512  1.3058 -0.2515
40249SOL    HW227863   4.503   1.670   7.430 -2.0554 -1.5675  1.1551
40250SOL     OW27864   0.546   4.891   2.200 -0.0655 -0.3735 -0.1989
40250SOL    HW127865   0.521   4.966   2.145  1.4246  0.1755 -0.1584
40250SOL    HW227866   0.506   4.815   2.156 -0.9982  0.3422 -0.6333
40251SOL     OW27867  11.836   4.554   5.629  0.8968  0.4990 -0.3242
40251SOL    HW127868  11.839   4.537   5.724  0.1905  1.5558 -0.1014
40251SOL    HW227869  11.926   4.540   5.600  1.3814  1.3242  0.7157
40252SOL     OW27870   6.056  12.360  12.031  0.7656 -0.0514  0.3645
40252SOL    HW127871   5.995  12.326  12.097  0.7270 -0.8456 -0.0607
40252SOL    HW227872   6.136  12.310  12.045  0.0796 -1.8724 -1.5733
40253SOL     OW27873   0.141  10.052  11.867 -0.8852  0.0867  0.1547
40253SOL    HW127874   0.099  10.099  11.795 -1.0998  3.6968  2.3709
40253SOL    HW227875   0.234  10.065  11.854 -0.7675 -1.2650 -0.6023
40254SOL     OW27876  11.890   9.349  12.395 -0.3312  0.0255  0.2798
40254SOL    HW127877  11.913   9.370  12.304 -1.3847 -0.6284 -0.1666
40254SOL    HW227878  11.970   9.314  12.433 -0.1065 -0.5424 -0.6775
40255SOL     OW27879   5.120   0.186   7.111 -0.3662 -0.5302  0.0465
40255SOL    HW127880   5.072   0.195   7.029 -0.6433 -0.7291  0.1827
40255SOL    HW227881   5.168   0.103   7.102 -2.5245 -2.0105  1.1246
40256SOL     OW27882   2.478   0.109  10.281  0.0081 -0.0610 -0.3706
40256SOL    HW127883   2.566   0.123  10.246  0.3527 -2.2420 -0.5114
40256SOL    HW227884   2.422   0.108  10.204 -0.0179  0.4102 -0.3622
40257SOL     OW27885   2.640  10.845   0.277 -0.7362 -0.1230 -0.1004
40257SOL    HW127886   2.579  10.826   0.206  0.0885  2.4852 -1.6274
40257SOL    HW227887   2.679  10.760   0.298 -1.0098 -1.0015 -2.7939
40258SOL     OW27888   1.197  12.471   9.315 -0.1106 -0.1373 -0.7029
40258SOL    HW127889   1.192  12.459   9.220  4.1332 -0.1416 -1.1526
40258SOL    HW227890   1.218  12.385   9.349 -0.0838  0.1538  0.0312
40259SOL     OW27891  12.123   7.892   4.331 -0.2452 -0.8191  0.4410
40259SOL    HW127892  12.102   7.940   4.410  1.1596 -0.0972  0.4163
40259SOL    HW227893  12.064   7.927   4.264  1.5905  1.8979  0.1064
40260SOL     OW27894   5.988  11.257  12.061 -0.1735  0.1952  0.6322
40260SOL    HW127895   5.971  11.195  12.132  1.9572 -0.7952  0.3769
40260SOL    HW227896   5.906  11.262  12.012 -1.1356 -0.4766  2.1308
40261SOL     OW27897   3.844  10.332   2.925 -0.1556 -0.9553 -0.4027
40261SOL    HW127898   3.749  10.326   2.916 -0.2484 -0.4615  0.1768
40261SOL    HW227899   3.876  10.250   2.889 -0.8934 -1.7251  0.6402
40262SOL     OW27900   9.036   0.886   5.850  0.0142 -0.4271 -0.2508
40262SOL    HW127901   9.108   0.943   5.875 -0.0828 -0.1233 -0.6567
40262SOL    HW227902   8.978   0.885   5.926 -0.7856  1.2805 -0.7860
40263SOL     OW27903   5.902   7.994  12.578  0.1560 -0.3414 -0.3600
40263SOL    HW127904   5.903   8.001  12.674 -0.0410 -1.6369 -0.2407
40263SOL    HW227905   5.811   8.012  12.554  0.2155  0.0297 -0.3007
40264SOL     OW27906   8.860  11.666   2.969  0.2617 -0.0007 -0.2033
40264SOL    HW127907   8.801  11.736   2.942  0.8403  1.2025  1.5134
40264SOL    HW227908   8.936  11.674   2.912 -0.9610 -1.2864 -2.1360
40265SOL     OW27909   1.717   4.932  10.323  0.0843 -0.0692  0.2138
40265SOL    HW127910   1.740   4.873  10.395  0.2769  0.9031  0.9621
40265SOL    HW227911   1.734   5.020  10.357  0.3510  0.3984 -1.0842
40266SOL     OW27912   3.474   3.076   7.890  0.9003  0.0746  0.7155
40266SOL    HW127913   3.407   3.139   7.865  0.7614 -0.3478 -0.0196
40266SOL    HW227914   3.441   3.036   7.970 -0.0846 -0.6397 -0.0208
40267SOL     OW27915  11.963   5.391   3.940 -0.0865 -0.2254 -0.5039
40267SOL    HW127916  11.939   5.471   3.892  0.4221 -0.7319 -1.6498
40267SOL    HW227917  11.882   5.342   3.948 -0.0669 -0.4509 -1.4940
40268SOL     OW27918  10.679  11.696   0.222 -0.0136 -0.2312  0.4527
40268SOL    HW127919  10.745  11.720   0.156  0.1173  1.1432  1.0435
40268SOL    HW227920  10.730  11.667   0.297 -0.1400 -0.8440  0.3049
40269SOL     OW27921  10.222  11.639  10.494 -0.1232 -0.1342 -0.4287
40269SOL    HW127922  10.262  11.724  10.481  0.0889 -0.2965 -0.8415
40269SOL    HW227923  10.130  11.652  10.471 -0.1468  0.0444 -0.2378
40270SOL     OW27924   9.466   3.174  12.273  0.0864  0.1396  0.3148
40270SOL    HW127925   9.388   3.157  12.220  0.3458 -0.5060  0.1249
40270SOL    HW227926   9.540   3.148  12.217  0.2734 -3.5544  1.9718
40271SOL     OW27927   6.009   4.823   9.030 -0.3107 -0.4765 -0.0447
40271SOL    HW127928   5.923   4.856   9.058 -0.9428 -1.5010 -0.7494
40271SOL    HW227929   6.047   4.896   8.981  0.3256  0.9350  2.3539
40272SOL     OW27930  12.594   2.770   8.229  0.1271  0.1806 -0.4543
40272SOL    HW127931  12.645   2.833   8.179 -0.3264 -0.7233 -2.1443
40272SOL    HW227932  12.623   2.685   8.197  1.5329 -0.6148  2.5484
40273SOL     OW27933   0.079  10.325   8.388 -0.2867  0.2068  0.9229
40273SOL    HW127934   0.023  10.285   8.454 -0.7011 -0.4900  0.1532
40273SOL    HW227935   0.078  10.264   8.315  1.5080  0.1579  0.8954
40274SOL     OW27936   0.345   4.512   6.008  0.2099  0.2037  0.2263
40274SOL    HW127937   0.302   4.583   6.056 -0.4075 -0.7147  1.0721
40274SOL    HW227938   0.278   4.478   5.951  0.4913  0.2523 -0.1358
40275SOL     OW27939  11.543   3.074  11.531  0.2747 -0.4322  0.6872
40275SOL    HW127940  11.562   3.166  11.514 -0.4880 -0.2894  0.5857
40275SOL    HW227941  11.623   3.041  11.573  0.8859  0.0516 -0.0606
40276SOL     OW27942   3.864  11.799   3.963 -0.2715 -0.6407 -0.5659
40276SOL    HW127943   3.922  11.724   3.965  0.0384 -0.3900  0.1188
40276SOL    HW227944   3.778  11.764   3.989 -0.4953 -1.0534 -1.8095
40277SOL     OW27945   7.036   4.961   0.543 -0.5337 -0.2754 -0.2088
40277SOL    HW127946   7.015   5.052   0.561 -1.9437 -0.7842  0.9242
40277SOL    HW227947   7.127   4.951   0.569 -1.3028  0.0544  2.9449
40278SOL     OW27948  12.879  12.827   6.839 -0.1829  0.0801  0.2445
40278SOL    HW127949  12.832  12.818   6.756  1.4568 -2.1513 -0.5447
40278SOL    HW227950  12.968  12.852   6.813  0.0110  0.7051  1.4477
40279SOL     OW27951   5.089   2.970   4.095 -0.2342 -0.5193  0.1685
40279SOL    HW127952   5.026   3.033   4.060  1.1194 -0.2704 -2.0126
40279SOL    HW227953   5.077   2.891   4.041  2.7126  0.2678 -1.8862
40280SOL     OW27954   6.438   5.825   6.590 -0.7267 -0.3910  0.4842
40280SOL    HW127955   6.446   5.907   6.639 -2.0352  0.1322 -0.1184
40280SOL    HW227956   6.435   5.757   6.657  0.2706  0.0531  0.9968
40281SOL     OW27957   9.187   9.134   5.722  0.5412  0.3469 -0.4115
40281SOL    HW127958   9.252   9.064   5.725  3.5138  2.5867 -4.0653
40281SOL    HW227959   9.172   9.157   5.814  2.9088 -2.0297  0.6822
40282SOL     OW27960   6.047   1.563   8.471  0.5591  0.4400 -0.5540
40282SOL    HW127961   6.045   1.531   8.381  0.8744  1.1649 -0.8268
40282SOL    HW227962   6.130   1.611   8.478 -1.3248  4.1393 -1.2140
40283SOL     OW27963   0.901   6.678   8.007 -0.2837  0.0979  0.3033
40283SOL    HW127964   0.964   6.750   8.010  0.4427 -0.4612 -0.9660
40283SOL    HW227965   0.886   6.657   8.099  0.0187  1.3979  0.6845
40284SOL     OW27966   6.192   9.443   1.652  0.3875  0.3488 -0.7285
40284SOL    HW127967   6.129   9.415   1.718  1.0531 -1.2215 -0.7056
40284SOL    HW227968   6.239   9.515   1.693 -0.3330  0.4998 -0.1485
40285SOL     OW27969   6.554   5.861   7.432 -0.6270 -0.3470  0.7724
40285SOL    HW127970   6.473   5.910   7.416 -0.4186 -0.3054 -0.1659
40285SOL    HW227971   6.559   5.798   7.360  1.2397  1.0386 -0.4030
40286SOL     OW27972   8.674   4.770   1.427  0.6615 -0.4447 -0.9013
40286SOL    HW127973   8.750   4.792   1.373  1.4770  0.4342  0.5368
40286SOL    HW227974   8.696   4.685   1.465  1.1656  0.0161 -0.1265
40287SOL     OW27975   7.984   6.555   2.916  0.0217 -0.7703  0.0316
40287SOL    HW127976   8.066   6.554   2.866  1.1289  0.1930  1.7284
40287SOL    HW227977   7.961   6.462   2.924  1.1093 -1.0889 -0.2324
40288SOL     OW27978   6.317   9.768   2.727 -0.2454 -0.0307 -0.0576
40288SOL    HW127979   6.403   9.787   2.688 -0.8749  0.5686 -1.1955
40288SOL    HW227980   6.337   9.746   2.818  1.2596 -1.2326 -0.6168
40289SOL     OW27981   4.895   1.357   6.002 -0.2323  0.2038  0.0220
40289SOL    HW127982   4.845   1.320   5.929  1.0226 -1.0347 -0.2368
40289SOL    HW227983   4.832   1.360   6.074 -1.4762  1.3909 -1.0475
40290SOL     OW27984   3.255   5.995   2.003  0.1248 -0.0942  0.3887
40290SOL    HW127985   3.170   6.009   2.044  0.0088 -1.8178  0.8202
40290SOL    HW227986   3.240   6.012   1.910 -0.0651  1.9772  0.7471
40291SOL     OW27987  11.499   4.302   9.337  0.2915  0.2842 -0.0238
40291SOL    HW127988  11.477   4.221   9.290  1.2536  1.0369 -1.8480
40291SOL    HW227989  11.416   4.330   9.375 -0.1521 -1.3020  0.2605
40292SOL     OW27990   5.143   3.457   7.901  0.0334 -0.5627 -0.7452
40292SOL    HW127991   5.187   3.406   7.970  1.2713  1.8241  0.3673
40292SOL    HW227992   5.213   3.484   7.843 -0.5627 -0.0249 -1.2295
40293SOL     OW27993   6.138   6.295   6.607 -0.4971  0.8755  1.1451
40293SOL    HW127994   6.187   6.219   6.576 -1.6897  1.3079 -2.1923
40293SOL    HW227995   6.205   6.354   6.641  1.2714  0.8203 -1.8485
40294SOL     OW27996   0.127  12.765   8.777 -0.3199  0.0136 -0.4574
40294SOL    HW127997   0.097  12.712   8.703 -3.2998 -0.8477  1.1960
40294SOL    HW227998   0.101  12.855   8.754 -3.4565 -0.5490  0.3828
40295SOL     OW27999   9.029   9.641   4.069  0.2970  0.0705 -0.3881
40295SOL    HW128000   8.953   9.592   4.039 -0.0516  0.1560  0.3256
40295SOL    HW228001   9.032   9.718   4.012 -0.7150  0.5461  0.1751
40296SOL     OW28002  12.407   5.190   7.998  0.3313  0.1357  0.2719
40296SOL    HW128003  12.406   5.270   8.049 -2.2819  0.4243 -0.1028
40296SOL    HW228004  12.423   5.219   7.908  2.4889 -0.1370  0.5110
40297SOL     OW28005   0.486  11.519   5.949  0.3089  0.4970  0.0836
40297SOL    HW128006   0.580  11.501   5.944  0.6383  1.3300  2.0374
40297SOL    HW228007   0.479  11.614   5.934 -0.3341  0.2964 -0.9575
40298SOL     OW28008  10.623   6.917  11.418  0.2490 -0.7931 -0.3464
40298SOL    HW128009  10.574   6.865  11.354 -1.4477 -0.9579  1.0382
40298SOL    HW228010  10.572   6.997  11.430 -0.1662 -1.3011  1.6854
40299SOL     OW28011   6.428  12.176   8.708  0.3881  0.4341 -0.4087
40299SOL    HW128012   6.479  12.137   8.637  2.5718  2.6307 -0.1489
40299SOL    HW228013   6.461  12.134   8.788  0.2985  0.3583 -0.4114
40300SOL     OW28014   0.985   2.843   6.561 -0.1154 -0.4716  0.5127
40300SOL    HW128015   0.941   2.927   6.548  0.7399  0.3435  2.5086
40300SOL    HW228016   0.940   2.783   6.502 -1.0466  1.2784 -0.6315
40301SOL     OW28017   4.668   0.737   3.693 -0.1583  0.1212 -0.1605
40301SOL    HW128018   4.705   0.692   3.617 -1.1492  0.8946 -1.1540
40301SOL    HW228019   4.583   0.769   3.662 -0.4168  0.7911  1.1639
40302SOL     OW28020   6.083   9.169   6.872  0.0793  0.1782 -0.3916
40302SOL    HW128021   6.011   9.128   6.824  0.1640  2.0479 -2.2673
40302SOL    HW228022   6.074   9.137   6.962 -1.3371 -1.8666 -1.1832
40303SOL     OW28023   3.223   0.225   7.163  0.4438  0.4390 -0.0390
40303SOL    HW128024   3.251   0.317   7.159  1.2867  0.2900  1.5269
40303SOL    HW228025   3.129   0.229   7.179  0.0108  0.9777 -2.3690
40304SOL     OW28026   9.919   9.498   8.933 -0.4040  0.0306 -0.4541
40304SOL    HW128027   9.847   9.490   8.996 -0.2790  1.9256  0.0010
40304SOL    HW228028   9.905   9.426   8.872  0.1188 -2.6697  2.3100
40305SOL     OW28029   0.586   4.940  12.909  0.1062  0.3824 -0.5900
40305SOL    HW128030   0.646   4.994  12.859 -0.8630  2.1775  0.0997
40305SOL    HW228031   0.642   4.873  12.949  1.4264  1.1895 -1.0180
40306SOL     OW28032  11.495   6.106  12.186 -0.3399 -0.5440  0.5823
40306SOL    HW128033  11.572   6.162  12.181 -0.1551 -0.8639 -0.4482
40306SOL    HW228034  11.480   6.094  12.280  0.0794  0.5800  0.8073
40307SOL     OW28035   3.012   5.404  11.054 -1.0317  0.3818 -0.0728
40307SOL    HW128036   3.104   5.383  11.035 -1.0480 -0.4894  0.7430
40307SOL    HW228037   2.973   5.320  11.078 -1.6899  0.9749  0.9943
40308SOL     OW28038  12.290  12.665  11.114 -0.2963  0.1353 -0.1414
40308SOL    HW128039  12.259  12.602  11.179 -0.8706  1.8558  1.3291
40308SOL    HW228040  12.256  12.632  11.031 -2.5641 -0.2769  0.8710
40309SOL     OW28041  12.288   2.930  10.277  0.4270 -0.3330 -0.3315
40309SOL    HW128042  12.313   2.842  10.249 -0.2111 -1.5052  2.3858
40309SOL    HW228043  12.215   2.954  10.220  0.1903 -1.8479 -0.7137
40310SOL     OW28044   9.686   2.875   0.930 -0.2426 -0.8999  0.0304
40310SOL    HW128045   9.710   2.788   0.899  1.5060 -0.5261  0.2611
40310SOL    HW228046   9.697   2.931   0.853  0.5550 -0.5623  0.3907
40311SOL     OW28047   8.441   1.586   7.759  0.3152 -0.4736 -0.0706
40311SOL    HW128048   8.474   1.533   7.686  0.3661 -0.9465  0.2963
40311SOL    HW228049   8.497   1.562   7.833 -1.2077 -1.7406  0.7231
40312SOL     OW28050   9.955   9.070   1.126 -0.3933  0.1475 -0.4074
40312SOL    HW128051  10.007   9.030   1.196 -0.4437  0.4160 -0.2161
40312SOL    HW228052  10.015   9.133   1.086 -1.4429  2.6471  1.7179
40313SOL     OW28053   0.645  11.172  12.897 -0.1551 -0.0672  0.1907
40313SOL    HW128054   0.725  11.223  12.911 -1.0984  0.8583  2.7627
40313SOL    HW228055   0.596  11.222  12.831 -0.4108  1.6710  1.6185
40314SOL     OW28056   8.559   0.663   7.929 -0.5998  0.3451 -0.0704
40314SOL    HW128057   8.580   0.756   7.931  0.5356  0.0890  1.2817
40314SOL    HW228058   8.530   0.647   7.840  0.0101  1.8156 -0.5586
40315SOL     OW28059   5.885   3.387   7.149 -0.3286  0.0447  0.0211
40315SOL    HW128060   5.950   3.444   7.106  0.7739 -1.0456  0.1967
40315SOL    HW228061   5.856   3.438   7.225  0.6857  0.3802  0.2086
40316SOL     OW28062  12.466  11.088  10.483  0.3231  0.3932  0.0089
40316SOL    HW128063  12.523  11.011  10.475 -0.5517 -0.5532  2.2430
40316SOL    HW228064  12.523  11.155  10.520  1.4094  1.3127 -3.0190
40317SOL     OW28065   6.768  12.649   5.660 -0.1381  0.0778  0.7084
40317SOL    HW128066   6.725  12.568   5.632 -1.6517  0.5885  1.4317
40317SOL    HW228067   6.802  12.687   5.578  3.9646 -2.9975  0.6984
40318SOL     OW28068  12.052  11.227  12.347  0.4049 -0.0515 -0.2368
40318SOL    HW128069  12.077  11.277  12.269  1.2690 -1.4628 -0.9141
40318SOL    HW228070  11.965  11.192  12.326  0.2767  0.2639 -0.2237
40319SOL     OW28071   2.952   4.059   2.387  0.8124  0.6037 -0.7947
40319SOL    HW128072   2.980   4.013   2.307  0.8269 -0.2710 -0.3032
40319SOL    HW228073   3.034   4.090   2.426  1.0305 -0.8802  0.0002
40320SOL     OW28074  12.276   9.656   0.767  0.1470 -0.4043 -0.1549
40320SOL    HW128075  12.188   9.631   0.741  0.7925 -0.0744 -2.9642
40320SOL    HW228076  12.284   9.748   0.739  0.3764  0.6449  2.9660
40321SOL     OW28077   5.905   1.917  12.388 -0.0629  0.2419  0.1244
40321SOL    HW128078   5.814   1.908  12.416  0.3182  1.2860  1.8219
40321SOL    HW228079   5.914   1.855  12.316 -1.5811 -1.3127  1.1929
40322SOL     OW28080   2.665   3.514  11.389 -0.3625  0.2690  0.0476
40322SOL    HW128081   2.648   3.419  11.394 -0.3143  0.3284  2.2562
40322SOL    HW228082   2.760   3.521  11.390 -0.3537  0.3480 -0.6399
40323SOL     OW28083   3.167   8.131   0.429  0.7280 -0.5010 -1.1025
40323SOL    HW128084   3.226   8.099   0.497 -1.6917  0.2813  1.5839
40323SOL    HW228085   3.081   8.096   0.453 -0.5151  1.0796 -2.9102
40324SOL     OW28086   9.032  12.313   7.136  0.4915  0.2629  0.1388
40324SOL    HW128087   9.056  12.349   7.221 -0.9864 -1.1098  1.2150
40324SOL    HW228088   8.944  12.345   7.120 -0.0864 -1.2220  0.1946
40325SOL     OW28089   9.899   9.772  10.803 -0.6716 -0.6549  0.7735
40325SOL    HW128090   9.967   9.706  10.788 -1.3355 -1.2737  0.3815
40325SOL    HW228091   9.864   9.791  10.716 -0.6310  0.0564  0.9116
40326SOL     OW28092  10.649   6.424   5.653  0.9460  0.4662 -0.6321
40326SOL    HW128093  10.689   6.347   5.613 -0.0889  0.0605 -0.9178
40326SOL    HW228094  10.655   6.408   5.747  1.2105  0.2868 -0.6779
40327SOL     OW28095   4.791   4.122   4.185 -0.0853  0.3199  0.0800
40327SOL    HW128096   4.832   4.038   4.208 -0.6050  0.3357  1.1544
40327SOL    HW228097   4.698   4.101   4.175  0.0191  0.4737 -1.3143
40328SOL     OW28098   8.413   8.429   2.182 -0.0624 -0.1127 -0.9676
40328SOL    HW128099   8.495   8.470   2.156  1.1093 -1.5933  0.1739
40328SOL    HW228100   8.437   8.337   2.198 -1.7707 -0.3990  0.1756
40329SOL     OW28101   5.914   6.725   1.081 -0.1975 -0.0710  0.4968
40329SOL    HW128102   5.886   6.761   1.164  1.7537 -0.7123  1.4954
40329SOL    HW228103   6.005   6.699   1.095 -0.3304 -1.7961 -1.3106
40330SOL     OW28104   9.313   9.459   8.376 -0.0475 -0.7706  0.4473
40330SOL    HW128105   9.375   9.436   8.307 -1.0725  0.3954 -0.9231
40330SOL    HW228106   9.291   9.551   8.359 -2.0145 -1.0900  0.9722
40331SOL     OW28107   7.985   4.335   1.372  0.2458  0.2806 -0.2326
40331SOL    HW128108   8.062   4.334   1.314 -0.4228  0.3586 -1.1326
40331SOL    HW228109   7.997   4.258   1.428  1.0043  0.3177 -0.3274
40332SOL     OW28110   7.132   2.014   1.581 -0.0777  0.3598  0.1600
40332SOL    HW128111   7.217   1.976   1.603 -0.5892 -0.1339  1.3596
40332SOL    HW228112   7.086   1.944   1.536 -0.1298  0.3741  0.1917
40333SOL     OW28113   3.934   0.391   8.503  0.8486 -0.2634  0.1665
40333SOL    HW128114   4.029   0.388   8.496  0.8974  1.2834 -0.1126
40333SOL    HW228115   3.914   0.482   8.526 -0.5505 -0.6215  0.4826
40334SOL     OW28116   7.048  11.823  12.889 -0.0632  0.0861  0.3485
40334SOL    HW128117   7.019  11.848  12.977  1.5041 -1.2412  1.2823
40334SOL    HW228118   7.091  11.902  12.855 -1.6933  0.9894  0.2570
40335SOL     OW28119  11.468   7.135  10.957  0.2700 -0.0136 -0.3969
40335SOL    HW128120  11.502   7.055  10.915 -0.2007  0.0231 -0.8603
40335SOL    HW228121  11.484   7.204  10.893 -1.3398 -0.1212 -0.9582
40336SOL     OW28122   6.636   0.228   5.416 -0.2374  0.1140 -0.2284
40336SOL    HW128123   6.576   0.217   5.342 -1.6337  2.2475  0.5054
40336SOL    HW228124   6.586   0.197   5.492  0.1081  0.5916  0.1984
40337SOL     OW28125   7.043   0.681   5.430  0.0520 -0.2213 -0.2228
40337SOL    HW128126   7.116   0.728   5.390 -0.5345 -0.0722 -1.1456
40337SOL    HW228127   7.064   0.588   5.417  0.4617 -0.2039  0.2496
40338SOL     OW28128   0.434   3.057   9.732 -0.5189 -0.0780  0.3994
40338SOL    HW128129   0.512   3.010   9.763  0.3620  1.3167  0.4201
40338SOL    HW228130   0.383   3.074   9.812 -1.2450 -1.6263  0.2990
40339SOL     OW28131   3.454   7.900   7.455 -0.2343 -0.5821  0.2177
40339SOL    HW128132   3.398   7.829   7.487  0.5763 -1.9589 -1.2420
40339SOL    HW228133   3.468   7.956   7.531 -2.9092 -0.5963  0.8276
40340SOL     OW28134   7.111   6.675   6.057 -0.4673 -0.6186 -0.4999
40340SOL    HW128135   7.133   6.633   6.140  1.3910  1.2768  0.0731
40340SOL    HW228136   7.159   6.624   5.991 -0.4461 -1.0261 -0.1715
40341SOL     OW28137  10.859   8.656   0.121  0.2503  0.3603 -0.5447
40341SOL    HW128138  10.780   8.710   0.113 -0.0611 -0.2385 -1.7016
40341SOL    HW228139  10.877   8.654   0.215 -0.5240  1.3384 -0.3611
40342SOL     OW28140  12.229   0.693   1.444 -0.5925  0.0026  0.3432
40342SOL    HW128141  12.322   0.687   1.424 -0.6188 -0.6149  0.3804
40342SOL    HW228142  12.193   0.749   1.376 -0.7420 -2.2724 -1.5795
40343SOL     OW28143  10.994  10.594  10.494 -0.1680  0.2682  0.0098
40343SOL    HW128144  11.035  10.677  10.467  1.3458  0.4403  2.5172
40343SOL    HW228145  11.068  10.538  10.519 -1.2518 -1.2865 -0.1594
40344SOL     OW28146   7.840  12.143   4.423  0.2449 -0.1139  0.0518
40344SOL    HW128147   7.776  12.211   4.440 -0.9922 -1.1478 -0.2784
40344SOL    HW228148   7.880  12.125   4.508  1.1739  1.5402  0.0007
40345SOL     OW28149   1.629   2.100   4.187 -0.1111 -0.1751  0.2945
40345SOL    HW128150   1.570   2.041   4.234 -0.7678  0.0146 -0.2842
40345SOL    HW228151   1.617   2.185   4.229 -0.2728 -0.1312  0.1612
40346SOL     OW28152   3.196   8.149   6.650  0.4838 -0.1826 -0.6030
40346SOL    HW128153   3.175   8.239   6.674 -1.0503 -0.2500 -1.5454
40346SOL    HW228154   3.279   8.131   6.693  0.7950  1.6650 -0.3672
40347SOL     OW28155   3.572  11.299   6.597  0.2076 -0.5922 -0.0205
40347SOL    HW128156   3.562  11.380   6.548  0.4810 -0.2029  0.5562
40347SOL    HW228157   3.665  11.278   6.590  0.6143  0.4040  1.7509
40348SOL     OW28158   3.511   6.853   1.411  0.3930  0.1115  0.4368
40348SOL    HW128159   3.568   6.909   1.357 -0.0146  0.4999  0.3999
40348SOL    HW228160   3.430   6.848   1.362  0.9584 -1.9038 -0.3831
40349SOL     OW28161   1.711   8.448   0.179  0.2735 -0.1747  0.1962
40349SOL    HW128162   1.745   8.531   0.146 -0.8864 -0.0611 -0.7896
40349SOL    HW228163   1.743   8.443   0.269  1.0549  0.9361  0.0027
40350SOL     OW28164   2.842   0.400   6.824 -0.3316 -0.4523 -0.5337
40350SOL    HW128165   2.783   0.344   6.775 -0.3903 -0.7363 -0.1470
40350SOL    HW228166   2.840   0.484   6.778 -1.1495 -0.4120 -0.4469
40351SOL     OW28167   9.961   7.872   4.928 -0.3965 -0.3544 -0.0861
40351SOL    HW128168   9.951   7.854   4.834 -0.6873  1.4754 -0.4594
40351SOL    HW228169   9.876   7.851   4.966 -0.3575 -0.8637 -0.2820
40352SOL     OW28170   1.981   5.803   6.270 -0.0454 -0.2361  0.0804
40352SOL    HW128171   2.001   5.885   6.225  0.5365 -0.3853  0.0588
40352SOL    HW228172   1.893   5.781   6.241  0.0393  0.0523 -0.4100
40353SOL     OW28173   4.213   8.029   3.205  0.4141  0.2311 -0.0459
40353SOL    HW128174   4.287   8.074   3.165 -0.2883  1.9349  0.5021
40353SOL    HW228175   4.211   8.060   3.295  0.7699 -2.0329  0.8220
40354SOL     OW28176  10.095   7.438   6.686  0.2247 -0.8976  0.1296
40354SOL    HW128177  10.080   7.391   6.603  2.2927 -0.1326 -0.7499
40354SOL    HW228178  10.024   7.501   6.691  0.7000 -0.1423 -1.7207
40355SOL     OW28179   0.115   4.334  11.715  0.3656  0.2953  0.3580
40355SOL    HW128180   0.023   4.358  11.715  0.1484 -0.5096  0.3912
40355SOL    HW228181   0.132   4.301  11.804  0.6494  0.3253  0.3167
40356SOL     OW28182   3.178   4.122   2.541  0.0250 -0.7525  0.7117
40356SOL    HW128183   3.147   4.171   2.617 -0.5837  0.4959 -0.3085
40356SOL    HW228184   3.192   4.188   2.473 -1.3544 -2.0101 -0.9011
40357SOL     OW28185   1.152   2.328   9.008 -0.9932  0.1222 -0.1802
40357SOL    HW128186   1.223   2.343   8.945  0.4363 -1.0963  1.0747
40357SOL    HW228187   1.097   2.407   9.002  2.8047  3.2847  1.8808
40358SOL     OW28188   4.645   4.799   6.603  0.1680  0.1982  0.2072
40358SOL    HW128189   4.706   4.872   6.615 -0.7619  1.2760 -1.2255
40358SOL    HW228190   4.631   4.796   6.508 -1.6832 -0.2719  0.4587
40359SOL     OW28191  10.560  11.888   0.410 -0.4959  0.0484 -0.3861
40359SOL    HW128192  10.605  11.811   0.375 -0.2839  0.0986 -0.2247
40359SOL    HW228193  10.469  11.861   0.419 -0.7303  0.2941 -1.7810
40360SOL     OW28194   7.547  11.004   2.361  0.1025  0.2841  0.2027
40360SOL    HW128195   7.529  10.947   2.286  0.5718 -0.4110  0.6110
40360SOL    HW228196   7.522  10.952   2.437  1.3205  0.2971  0.6323
40361SOL     OW28197   5.140   2.176   9.848  0.3712 -0.1159  0.4333
40361SOL    HW128198   5.212   2.234   9.824  0.8370 -0.6980  0.3934
40361SOL    HW228199   5.138   2.178   9.944 -0.3566  0.8437  0.4154
40362SOL     OW28200  10.595  10.996   5.080 -0.0608  0.0084 -0.4100
40362SOL    HW128201  10.552  11.055   5.142  1.3297  0.6672 -0.0289
40362SOL    HW228202  10.625  10.923   5.133  0.1581  0.0378 -0.4888
40363SOL     OW28203   3.461   9.319   0.180  0.1297  0.3949 -0.4570
40363SOL    HW128204   3.534   9.372   0.150 -0.5750  1.1843 -0.8047
40363SOL    HW228205   3.453   9.339   0.274  0.1692  0.5420 -0.4851
40364SOL     OW28206   2.762   9.841   3.651 -0.1025 -0.3864 -0.3094
40364SOL    HW128207   2.753   9.907   3.720 -1.0944  0.6056 -1.3377
40364SOL    HW228208   2.674   9.804   3.641 -0.0328 -0.3350 -1.2002
40365SOL     OW28209   2.360   9.014   3.067 -0.1227 -0.2641  0.0528
40365SOL    HW128210   2.425   8.956   3.026 -0.7959  0.0036 -1.4581
40365SOL    HW228211   2.276   8.973   3.047 -0.4888  0.0082  1.0008
40366SOL     OW28212  10.448   4.532  11.963 -0.2836  0.1779 -0.2600
40366SOL    HW128213  10.513   4.592  11.998  0.2692 -0.7624  0.3832
40366SOL    HW228214  10.469   4.447  12.003 -1.8322 -0.1798 -0.1145
40367SOL     OW28215   0.126   5.294   0.506 -0.9009  0.6264  0.0282
40367SOL    HW128216   0.103   5.231   0.574  0.3501  1.6708  1.4586
40367SOL    HW228217   0.162   5.369   0.552  1.1070  0.9100 -1.8123
40368SOL     OW28218   2.853   2.347   7.518  0.4850  0.6567 -0.8363
40368SOL    HW128219   2.930   2.299   7.549  0.2806  0.7926 -0.0972
40368SOL    HW228220   2.882   2.437   7.509  0.1354  0.9367  0.5583
40369SOL     OW28221   7.523   7.700   6.765 -0.0276  0.4785  0.2291
40369SOL    HW128222   7.556   7.660   6.846  1.2293 -0.1655 -0.5739
40369SOL    HW228223   7.602   7.721   6.715 -0.7410  1.9765 -0.3261
40370SOL     OW28224   6.604   6.485   1.123 -0.4068 -0.0366  0.0692
40370SOL    HW128225   6.625   6.538   1.045 -1.0918  2.2423  1.3429
40370SOL    HW228226   6.665   6.516   1.190 -1.1667 -0.5037  0.9961
40371SOL     OW28227   2.126   7.782  12.261  0.0470 -0.4470  0.1603
40371SOL    HW128228   2.060   7.832  12.309  0.3632 -0.2946  0.4327
40371SOL    HW228229   2.177   7.848  12.215  0.6983 -0.4939  0.8109
40372SOL     OW28230   4.123   3.197   5.294  0.1233  0.3892  0.0623
40372SOL    HW128231   4.069   3.265   5.335 -0.9102 -0.4979  0.2142
40372SOL    HW228232   4.130   3.225   5.203  2.4361  2.3801  0.7474
40373SOL     OW28233   3.196  11.933   5.769 -0.4380 -0.2067  0.1999
40373SOL    HW128234   3.276  11.895   5.805 -0.4531 -1.0805 -0.6493
40373SOL    HW228235   3.133  11.930   5.841 -0.4451 -1.8413  0.1492
40374SOL     OW28236   0.117   6.938   0.018 -0.3459 -0.2289  0.4440
40374SOL    HW128237   0.039   6.934   0.074 -0.2421  1.0729  0.7049
40374SOL    HW228238   0.088   6.899  -0.065 -1.1784 -0.0702  0.6462
40375SOL     OW28239   9.684   3.532   5.137 -0.4007 -0.5164  0.2102
40375SOL    HW128240   9.735   3.494   5.064  1.1326  0.2915  0.8225
40375SOL    HW228241   9.596   3.496   5.125 -0.1157 -0.6608 -1.8589
40376SOL     OW28242  10.738   0.694   7.810 -0.1888  0.8551 -0.4043
40376SOL    HW128243  10.698   0.709   7.724  0.3077 -0.9768 -0.9913
40376SOL    HW228244  10.668   0.709   7.872 -0.8905  0.9946 -1.2136
40377SOL     OW28245   3.802   8.323  10.887  0.3299  0.2582  0.4986
40377SOL    HW128246   3.714   8.314  10.850  0.3085  0.8207  0.4074
40377SOL    HW228247   3.849   8.378  10.824  0.8565 -0.3192  0.3710
40378SOL     OW28248   9.312   9.686   3.879 -0.0165  0.5527 -0.5653
40378SOL    HW128249   9.372   9.677   3.953 -1.3972  0.5055  0.5871
40378SOL    HW228250   9.241   9.740   3.912 -1.4175 -0.7323 -1.3822
40379SOL     OW28251   2.381   3.024   8.221  0.1588  0.5277 -0.4852
40379SOL    HW128252   2.413   2.969   8.292  2.7808  1.3483 -0.9080
40379SOL    HW228253   2.339   3.098   8.264  1.8769  1.1101  0.2904
40380SOL     OW28254   2.239   1.904   4.397  0.2280  0.5363 -0.0924
40380SOL    HW128255   2.315   1.957   4.371  0.9604  0.0013  0.8528
40380SOL    HW228256   2.168   1.967   4.407  0.8784  1.2394  0.2197
40381SOL     OW28257   2.186   4.353   7.612 -0.0987  0.7577  0.5119
40381SOL    HW128258   2.222   4.349   7.701 -0.2465  1.0518  0.5860
40381SOL    HW228259   2.175   4.446   7.595 -2.6158  0.6466  1.2228
40382SOL     OW28260   2.282   1.992   4.894 -0.3178  0.6457 -0.2547
40382SOL    HW128261   2.329   2.058   4.843  1.0679  0.3982  0.6391
40382SOL    HW228262   2.348   1.927   4.917 -0.8772  0.6980  1.7538
40383SOL     OW28263   9.106   5.477   1.481 -0.2110  0.1072  0.1045
40383SOL    HW128264   9.066   5.507   1.399  0.5960  0.4579 -0.1716
40383SOL    HW228265   9.098   5.382   1.478  0.8774  0.0206 -0.9660
40384SOL     OW28266   6.885  12.360   3.078 -0.0230  0.3823 -0.6615
40384SOL    HW128267   6.914  12.277   3.041 -0.5978  0.0262 -0.3146
40384SOL    HW228268   6.897  12.423   3.007  1.3870  0.2101 -0.6044
40385SOL     OW28269  11.392   6.599   5.302  0.2420  0.3824 -0.4382
40385SOL    HW128270  11.381   6.510   5.337 -0.6863  0.0595 -1.5028
40385SOL    HW228271  11.438   6.587   5.219 -0.0588  0.8791 -0.6801
40386SOL     OW28272   0.896   9.473   7.918  0.1922  0.2491 -0.6359
40386SOL    HW128273   0.802   9.490   7.921  0.0080 -0.7711  0.1623
40386SOL    HW228274   0.903   9.378   7.933  1.2291 -0.0830 -2.8270
40387SOL     OW28275   5.905   7.167  10.429 -0.1052 -0.0279  0.4474
40387SOL    HW128276   5.845   7.242  10.432  0.6306  0.5521  2.2627
40387SOL    HW228277   5.987   7.202  10.463  0.0981 -1.7953  1.8636
40388SOL     OW28278   2.330  11.295   2.500  0.2184 -0.7319 -0.1390
40388SOL    HW128279   2.353  11.206   2.527  0.5936 -0.9475 -1.1126
40388SOL    HW228280   2.240  11.306   2.530  0.6747 -0.8676  1.3413
40389SOL     OW28281  10.515   6.306   0.747  0.2321  0.3507 -0.0432
40389SOL    HW128282  10.431   6.266   0.767  0.6576 -0.7385 -0.3472
40389SOL    HW228283  10.494   6.394   0.715 -0.7639  0.1531  0.0469
40390SOL     OW28284   5.445   6.710   8.973 -0.6784  0.5364  0.4301
40390SOL    HW128285   5.390   6.781   8.940 -0.9750 -0.4296 -1.2534
40390SOL    HW228286   5.521   6.754   9.011 -0.6841  1.7469 -0.9044
40391SOL     OW28287   4.219   5.798   4.208  0.0237 -0.0575 -0.4583
40391SOL    HW128288   4.233   5.791   4.114  1.4486  1.5020 -0.4064
40391SOL    HW228289   4.130   5.764   4.222  0.6208 -2.4972 -2.0087
40392SOL     OW28290   0.970   6.277  12.025  0.2317 -0.7043  0.4532
40392SOL    HW128291   1.044   6.232  12.067 -0.1047 -1.3956  0.3138
40392SOL    HW228292   0.975   6.367  12.058  0.2838 -1.0991  1.5685
40393SOL     OW28293   5.684   7.034   9.301 -0.4668 -0.7226  0.9309
40393SOL    HW128294   5.693   6.940   9.316  1.6548 -0.8400 -0.5835
40393SOL    HW228295   5.707   7.046   9.209 -1.3974  1.2121  0.9111
40394SOL     OW28296   8.900   0.921   2.370  0.8685 -0.7211  0.1404
40394SOL    HW128297   8.823   0.976   2.388  0.4236 -1.1932 -0.2621
40394SOL    HW228298   8.868   0.832   2.380  1.6676 -0.9074  1.1113
40395SOL     OW28299   0.466   5.588   7.225 -0.1932 -0.1445 -0.1526
40395SOL    HW128300   0.485   5.656   7.160 -2.8291 -0.8258 -1.7611
40395SOL    HW228301   0.546   5.583   7.278  0.5108  3.3812 -0.6555
40396SOL     OW28302   0.976   6.836   2.402  0.2311  0.2716 -0.3258
40396SOL    HW128303   0.999   6.805   2.314 -1.3503  0.8201 -0.9690
40396SOL    HW228304   1.048   6.895   2.426  1.0262 -0.4198 -0.9475
40397SOL     OW28305   1.665   8.072   2.720 -0.0267 -0.5296 -0.1268
40397SOL    HW128306   1.685   8.145   2.779  1.1866 -1.6835  0.9791
40397SOL    HW228307   1.653   8.112   2.635 -0.4061  1.0580  0.6371
40398SOL     OW28308   6.773   6.229   5.530  0.5408 -0.2249  0.3412
40398SOL    HW128309   6.829   6.152   5.528  1.2949  0.3226 -0.8386
40398SOL    HW228310   6.741   6.233   5.620  0.0413 -2.2096  0.3027
40399SOL     OW28311   6.611   4.561  12.846  0.9096 -0.0958 -0.3876
40399SOL    HW128312   6.619   4.656  12.834 -1.1003  0.0309 -1.2404
40399SOL    HW228313   6.575   4.530  12.763 -1.2966 -1.1278  0.8567
40400SOL     OW28314   7.738  12.127   2.403 -0.2716 -0.1872 -0.1504
40400SOL    HW128315   7.685  12.206   2.405  1.4810  1.1947 -2.3513
40400SOL    HW228316   7.748  12.107   2.309  0.7321 -2.0221  0.2878
40401SOL     OW28317   4.338   2.752   5.054 -0.3119 -0.0274  0.2567
40401SOL    HW128318   4.283   2.769   5.131  2.2158 -0.7654  2.3749
40401SOL    HW228319   4.428   2.759   5.087  0.9018 -0.3989 -2.6723
40402SOL     OW28320   5.673   6.989  10.935 -0.4635 -0.0457 -0.2090
40402SOL    HW128321   5.607   7.058  10.930  0.3695  0.7099 -1.6978
40402SOL    HW228322   5.669   6.947  10.849  1.0410  0.0878 -0.3708
40403SOL     OW28323   6.964  12.302  10.680  0.1544 -0.7379 -0.0316
40403SOL    HW128324   6.881  12.348  10.687  0.9758  0.9539 -0.8293
40403SOL    HW228325   6.987  12.309  10.587  1.6552 -0.3056  0.3528
40404SOL     OW28326   9.847   6.184   6.013  0.3397 -0.5658 -0.5368
40404SOL    HW128327   9.920   6.224   5.966  1.8223 -0.5451  1.6610
40404SOL    HW228328   9.873   6.093   6.025  0.1112 -0.5108  0.4456
40405SOL     OW28329   1.958   2.111   2.757  0.1859  0.2718  0.2238
40405SOL    HW128330   1.904   2.034   2.742  1.5949 -0.1613 -3.5391
40405SOL    HW228331   1.895   2.181   2.778 -1.4202 -1.0762  0.0847
40406SOL     OW28332   9.674   5.836   8.236  0.1101  0.3722  0.3106
40406SOL    HW128333   9.691   5.753   8.191 -0.7448  0.5491 -0.3687
40406SOL    HW228334   9.612   5.812   8.305 -0.7985  0.5765 -0.4201
40407SOL     OW28335  10.851   6.014   7.079  0.4376  0.5733  0.3496
40407SOL    HW128336  10.757   6.002   7.065  0.5766  1.8590 -2.3074
40407SOL    HW228337  10.859   6.100   7.121  0.4500  0.7982 -0.1085
40408SOL     OW28338   4.009  12.187  11.489  0.4473 -0.0253  0.7028
40408SOL    HW128339   3.963  12.190  11.573 -0.5141  1.1188  0.1692
40408SOL    HW228340   3.979  12.107  11.448 -0.9817  0.6151  0.4414
40409SOL     OW28341   9.062   9.129   6.169  0.3950  0.1334  0.5763
40409SOL    HW128342   9.095   9.158   6.255 -0.9273 -0.3325  1.2609
40409SOL    HW228343   8.995   9.193   6.147 -0.2696 -0.5569  0.5707
40410SOL     OW28344  12.337   4.255   5.299 -0.4208  0.1970  0.4310
40410SOL    HW128345  12.309   4.231   5.211  0.2541  0.0276  0.2584
40410SOL    HW228346  12.256   4.258   5.350 -0.9320  1.1495 -0.3906
40411SOL     OW28347   3.991   9.365   4.613 -0.2834 -0.5848 -0.3964
40411SOL    HW128348   3.964   9.425   4.544 -1.1164 -0.6767 -0.1683
40411SOL    HW228349   3.909   9.328   4.646  0.2241 -2.1636 -0.8058
40412SOL     OW28350   6.022  10.464   6.984 -0.2218  0.3881 -0.1555
40412SOL    HW128351   6.010  10.441   7.076  0.1151  0.5848 -0.0629
40412SOL    HW228352   5.954  10.530   6.967 -1.3623 -0.8166 -0.4901
40413SOL     OW28353   5.621   4.580   6.271 -0.0075 -0.0166  0.0264
40413SOL    HW128354   5.630   4.615   6.183  0.4825  0.4878  0.2678
40413SOL    HW228355   5.529   4.559   6.280 -0.2880  1.0594 -0.1887
40414SOL     OW28356   6.036  12.934   0.562  0.3224  0.0160 -0.6068
40414SOL    HW128357   6.015  12.845   0.535 -1.5525 -0.0377  0.8269
40414SOL    HW228358   5.954  12.969   0.597  1.4605  1.6441  0.5978
40415SOL     OW28359   2.196   6.245   4.023 -0.3957  0.4608 -0.5484
40415SOL    HW128360   2.161   6.156   4.014  0.0725  0.3340 -1.2139
40415SOL    HW228361   2.268   6.249   3.959 -1.7288  1.9951 -2.0552
40416SOL     OW28362   9.126   3.358   9.297  0.3982 -0.0958  0.3912
40416SOL    HW128363   9.115   3.452   9.304 -0.4173 -0.2611  1.6847
40416SOL    HW228364   9.110   3.338   9.205 -1.0500  0.8522  0.4101
40417SOL     OW28365  10.273   8.996   6.936  0.0769  0.0305  0.4470
40417SOL    HW128366  10.356   8.988   6.890 -0.0616 -0.2905  0.2463
40417SOL    HW228367  10.297   9.007   7.028  0.3658 -4.0094  1.0216
40418SOL     OW28368   9.669   8.562   8.739  0.0209  0.7905  0.1800
40418SOL    HW128369   9.729   8.516   8.680 -0.8998 -1.8186  1.0864
40418SOL    HW228370   9.725   8.606   8.802  1.0104  0.1157 -0.2048
40419SOL     OW28371   9.199   1.605  12.966  0.7182  0.1958 -0.1180
40419SOL    HW128372   9.245   1.584  12.885 -0.4170  0.7419 -0.9447
40419SOL    HW228373   9.109   1.622  12.938 -0.0823 -1.1777  1.4692
40420SOL     OW28374   0.505   7.088  12.766 -0.0872  0.6329  0.3137
40420SOL    HW128375   0.519   7.010  12.820  1.3847  0.4094 -0.3442
40420SOL    HW228376   0.590   7.105  12.726 -1.1728  0.5109 -2.2959
40421SOL     OW28377   4.005   8.944   3.667 -0.2196  0.5100  0.0824
40421SOL    HW128378   3.998   8.883   3.741  0.0391 -0.7934 -0.9237
40421SOL    HW228379   4.046   9.022   3.704 -1.8095  0.6494  1.7187
40422SOL     OW28380   9.270   0.446   1.676  0.3278 -0.3237 -0.3941
40422SOL    HW128381   9.307   0.438   1.764  1.1233  0.2230 -0.6710
40422SOL    HW228382   9.179   0.421   1.686  0.6944 -1.4148  0.3618
40423SOL     OW28383  11.913   2.370   6.364 -0.5101  0.1682 -0.4726
40423SOL    HW128384  11.834   2.325   6.393  0.2351 -1.0357 -0.2312
40423SOL    HW228385  11.942   2.419   6.441 -0.2989 -0.4615 -0.1415
40424SOL     OW28386   2.782   3.989   6.232 -0.2303  0.0358  0.0998
40424SOL    HW128387   2.817   4.066   6.188 -2.1668  1.3973  0.8029
40424SOL    HW228388   2.830   3.916   6.193  3.1509  1.6412  0.8117
40425SOL     OW28389   8.540   9.435   1.543  0.0074 -0.1196 -0.1613
40425SOL    HW128390   8.460   9.417   1.593 -0.6241  1.6540 -0.4293
40425SOL    HW228391   8.524   9.397   1.457 -0.7171  0.4793 -0.3077
40426SOL     OW28392   7.743   4.345  10.385  0.0728 -0.2871 -0.6019
40426SOL    HW128393   7.760   4.417  10.446 -0.4004 -0.3253 -0.4178
40426SOL    HW228394   7.705   4.388  10.308 -0.7732 -0.3907 -0.2576
40427SOL     OW28395  10.771   8.048   2.377 -0.2420 -0.5307 -0.0706
40427SOL    HW128396  10.804   8.128   2.336 -1.3342 -0.9640 -1.8790
40427SOL    HW228397  10.846   7.989   2.378  0.6612  0.5442  1.5479
40428SOL     OW28398   4.594   4.966  11.367  0.1520  0.0156  0.5828
40428SOL    HW128399   4.503   4.937  11.371  0.1846 -0.0975  0.5003
40428SOL    HW228400   4.636   4.904  11.308  0.2865  0.0584  0.6342
40429SOL     OW28401  11.567   6.196  11.859 -0.5989 -0.0869  1.1848
40429SOL    HW128402  11.562   6.137  11.783 -1.8543 -0.4137  1.4934
40429SOL    HW228403  11.659   6.196  11.884 -0.2232 -0.2259 -0.1452
40430SOL     OW28404  12.310   9.445   8.465  0.4531 -0.2414 -1.1267
40430SOL    HW128405  12.338   9.362   8.428  1.0012 -0.1201 -0.9978
40430SOL    HW228406  12.375   9.464   8.533  0.4667  0.4047 -1.3123
40431SOL     OW28407  10.722   8.951   8.043 -0.0662 -0.5231 -0.2725
40431SOL    HW128408  10.791   9.002   8.001 -1.0522  1.0734 -0.0705
40431SOL    HW228409  10.645   8.964   7.987 -1.1208  0.7726  1.3772
40432SOL     OW28410   4.775   2.597  11.125 -0.1988 -0.1980 -0.0262
40432SOL    HW128411   4.813   2.515  11.156 -0.7494 -0.4052  0.1123
40432SOL    HW228412   4.834   2.665  11.157 -0.6533 -0.4199  1.3414
40433SOL     OW28413   3.525   0.854   6.606 -0.4834 -0.5448 -0.1907
40433SOL    HW128414   3.524   0.809   6.522 -1.0653  0.7176 -0.8991
40433SOL    HW228415   3.437   0.838   6.642 -0.7967  0.2253 -0.5813
40434SOL     OW28416   1.711  10.109   8.580  0.1009 -0.0396  0.3917
40434SOL    HW128417   1.670  10.053   8.647  1.1723  0.8735  1.8618
40434SOL    HW228418   1.801  10.078   8.575  0.4533  0.9276  0.5427
40435SOL     OW28419   0.857   1.515   5.979 -0.1400  0.2161 -0.1294
40435SOL    HW128420   0.934   1.571   5.988 -0.4514  0.6649 -0.2258
40435SOL    HW228421   0.785   1.575   5.966  0.0075 -0.2166 -4.2636
40436SOL     OW28422   4.225  11.798   5.430 -0.3093 -0.5561  0.7790
40436SOL    HW128423   4.232  11.772   5.338 -0.5150  1.6121  0.1117
40436SOL    HW228424   4.131  11.793   5.449 -0.3842  0.0102  0.5578
40437SOL     OW28425   0.449   2.683   0.530 -0.0519  0.6821 -0.5596
40437SOL    HW128426   0.377   2.711   0.586  0.7521  0.2472  0.7194
40437SOL    HW228427   0.412   2.686   0.441 -1.7989  0.0136  0.0937
40438SOL     OW28428   8.080   0.121   0.348 -0.3448  0.1029  0.3178
40438SOL    HW128429   7.997   0.072   0.344 -0.5930  0.4767  0.7135
40438SOL    HW228430   8.130   0.075   0.415 -1.3159  1.4495  2.0583
40439SOL     OW28431   9.365   4.195   1.231 -0.2767  0.6387  0.6584
40439SOL    HW128432   9.371   4.164   1.321 -0.4135  1.3143  0.9059
40439SOL    HW228433   9.395   4.121   1.178  1.3524  0.7703  1.3379
40440SOL     OW28434   6.671  12.281  12.670  0.6951  0.0508 -0.0089
40440SOL    HW128435   6.685  12.237  12.586  0.3317 -0.7841  0.3523
40440SOL    HW228436   6.757  12.281  12.712  0.7722  0.0136 -0.1649
40441SOL     OW28437  11.832  11.049   9.079 -0.2682  0.2431 -0.5873
40441SOL    HW128438  11.861  11.140   9.074  0.3002  0.0392 -1.3882
40441SOL    HW228439  11.745  11.049   9.039 -0.9369  0.6840  0.8425
40442SOL     OW28440  11.945   3.309  11.445  0.2104  0.4723  0.6021
40442SOL    HW128441  11.989   3.226  11.430  2.0192  1.4439  0.2157
40442SOL    HW228442  11.852   3.289  11.434  0.6186 -1.4158  0.2245
40443SOL     OW28443   9.380   5.054   5.783 -0.5264 -0.3165 -0.1270
40443SOL    HW128444   9.441   5.066   5.710 -0.2301  1.4228  0.3667
40443SOL    HW228445   9.402   4.968   5.819  1.5923  0.2118 -0.0448
40444SOL     OW28446  12.563  10.787  11.075  0.0601  0.4283 -0.0448
40444SOL    HW128447  12.496  10.728  11.110 -0.4416  1.4053  0.6997
40444SOL    HW228448  12.620  10.730  11.023 -0.0904 -0.8126  1.0641
40445SOL     OW28449   6.277   3.962   3.809 -0.0152 -0.1079  0.4283
40445SOL    HW128450   6.323   4.025   3.754 -1.5260  1.4266  0.8456
40445SOL    HW228451   6.286   3.996   3.898 -0.5453 -0.6885  0.7148
40446SOL     OW28452   2.105   5.802   2.164  0.1475 -0.6475 -0.1384
40446SOL    HW128453   2.071   5.754   2.089 -0.3379  0.2711 -0.5170
40446SOL    HW228454   2.144   5.881   2.127  1.0125 -0.7702  0.4709
40447SOL     OW28455   5.011   9.254   3.451 -0.7174 -0.4388  0.1909
40447SOL    HW128456   5.050   9.192   3.513 -1.5682 -0.0279  1.1773
40447SOL    HW228457   5.044   9.227   3.365  2.1368  0.2181  0.9850
40448SOL     OW28458   9.989   0.068   5.818  0.1862 -0.3148  0.0413
40448SOL    HW128459  10.055   0.044   5.883 -0.5107 -0.5982  0.6628
40448SOL    HW228460  10.013   0.018   5.740  0.0494 -1.3164  0.6228
40449SOL     OW28461  11.445   1.839   8.014 -0.2873 -0.0194  0.2462
40449SOL    HW128462  11.488   1.876   7.936 -2.1853 -0.2634 -0.9943
40449SOL    HW228463  11.354   1.869   8.007 -1.4210 -3.1145  0.3386
40450SOL     OW28464   1.190   6.473   0.423  0.4336 -0.0896 -0.2155
40450SOL    HW128465   1.157   6.511   0.504 -0.3553  0.7678 -0.9265
40450SOL    HW228466   1.266   6.527   0.400  0.0992  0.2572 -0.5280
40451SOL     OW28467   8.589   6.750   1.663  0.1470  0.1315 -0.4047
40451SOL    HW128468   8.637   6.833   1.664 -0.9312  0.7736  0.2173
40451SOL    HW228469   8.497   6.776   1.657 -0.5456 -0.8339  3.4803
40452SOL     OW28470   8.975   4.679   2.360 -0.5596 -0.3008  0.0643
40452SOL    HW128471   8.984   4.726   2.443  0.4399  1.2712 -0.8819
40452SOL    HW228472   8.955   4.589   2.386  1.3867 -0.2492  2.0710
40453SOL     OW28473   9.364   5.863   2.676 -0.1593 -0.0274  0.7190
40453SOL    HW128474   9.427   5.872   2.604  0.6183  2.8387  1.6114
40453SOL    HW228475   9.333   5.773   2.670  1.1645 -0.3966 -2.1145
40454SOL     OW28476   0.066  11.107  11.122 -0.7424  0.7928 -0.0494
40454SOL    HW128477   0.127  11.149  11.061 -1.7832  1.8896 -0.3822
40454SOL    HW228478  -0.019  11.115  11.079 -1.4111  1.0171  1.2713
40455SOL     OW28479  12.722   8.297   2.412 -0.4120  0.0684 -0.2957
40455SOL    HW128480  12.632   8.307   2.383 -0.7799 -2.5653 -0.3231
40455SOL    HW228481  12.775   8.313   2.333 -0.9302  0.3254 -0.5960
40456SOL     OW28482   1.507  11.725   8.613 -0.2946  0.3556  0.4751
40456SOL    HW128483   1.545  11.808   8.584 -2.7197  1.0317 -1.0334
40456SOL    HW228484   1.549  11.659   8.560  1.6644  0.5447  1.6853
40457SOL     OW28485  10.262   7.150   3.419  0.6399  0.2317  0.6396
40457SOL    HW128486  10.266   7.244   3.406  0.7541  0.2161  0.5544
40457SOL    HW228487  10.315   7.113   3.348  0.6834  0.1100  0.7325
40458SOL     OW28488   5.283   9.602  11.009 -0.2064  0.9746  0.4963
40458SOL    HW128489   5.329   9.548  10.945 -1.6169  1.5871 -1.1240
40458SOL    HW228490   5.342   9.606  11.084  1.3990 -0.0165 -0.6413
40459SOL     OW28491   4.564   6.905  11.183  0.3940 -0.0158  0.2552
40459SOL    HW128492   4.516   6.967  11.128 -0.8593  0.4614  1.8388
40459SOL    HW228493   4.648   6.948  11.199 -0.0304  0.7767  0.4000
40460SOL     OW28494   8.053  11.352   5.296 -0.2987 -0.0288  0.3984
40460SOL    HW128495   8.046  11.440   5.258 -2.1532 -0.1517  0.3856
40460SOL    HW228496   8.051  11.293   5.220  0.7149 -0.1172  0.4236
40461SOL     OW28497   5.794   0.382   3.759 -0.1544  0.2711 -0.3993
40461SOL    HW128498   5.776   0.382   3.665  3.4621 -0.5179 -1.2239
40461SOL    HW228499   5.792   0.289   3.784  2.6207  0.0615 -0.6518
40462SOL     OW28500   6.755   8.511   2.585  0.6061 -0.5074 -0.6856
40462SOL    HW128501   6.673   8.501   2.536 -0.0361 -0.3266  0.3202
40462SOL    HW228502   6.769   8.605   2.590 -0.3522 -0.4237  1.0752
40463SOL     OW28503   4.935   6.575   7.826  0.4755 -0.5918 -0.1390
40463SOL    HW128504   4.998   6.625   7.775 -0.3269  1.8655  1.1554
40463SOL    HW228505   4.867   6.551   7.762  0.4603  0.7276 -0.6487
40464SOL     OW28506   9.329   3.732   0.126  0.6736 -0.1332  0.0672
40464SOL    HW128507   9.422   3.747   0.145  0.5024  1.4685 -0.1899
40464SOL    HW228508   9.294   3.819   0.108 -0.3821 -0.9234 -2.1443
40465SOL     OW28509  10.641   3.490  11.657  0.9591  0.0232  0.1909
40465SOL    HW128510  10.565   3.519  11.607  0.4499  1.4321  1.6897
40465SOL    HW228511  10.631   3.395  11.662 -0.4016  0.1303 -0.1241
40466SOL     OW28512   1.591   1.055   4.919  0.0449 -0.1510  0.2166
40466SOL    HW128513   1.612   1.140   4.879 -0.3876 -0.6138 -1.0578
40466SOL    HW228514   1.667   1.000   4.899  1.4125  0.5056  3.0472
40467SOL     OW28515   8.820  11.430   4.735 -0.2430  0.3855  0.6308
40467SOL    HW128516   8.769  11.425   4.816 -1.2337  0.7469  0.0567
40467SOL    HW228517   8.792  11.354   4.684 -0.6579  0.8937  0.0760
40468SOL     OW28518   2.737   9.119   7.236 -0.1539  0.0627  0.2309
40468SOL    HW128519   2.742   9.058   7.310 -0.5409 -1.3945 -0.9047
40468SOL    HW228520   2.763   9.067   7.160  2.7429  2.1692 -0.3908
40469SOL     OW28521   4.998   3.974   4.790  0.1106  1.0328  0.2667
40469SOL    HW128522   4.981   3.978   4.884  0.4765 -0.7396  0.4557
40469SOL    HW228523   4.961   3.890   4.763  1.8725  0.5306 -0.7418
40470SOL     OW28524   7.701   3.856   2.831  0.0809 -0.1081 -0.0280
40470SOL    HW128525   7.614   3.865   2.871 -0.0319 -1.5957  0.0980
40470SOL    HW228526   7.756   3.823   2.902  0.5773  0.1161 -0.3064
40471SOL     OW28527   1.683   3.027   5.603 -0.6736 -0.1025 -0.2354
40471SOL    HW128528   1.675   3.083   5.526 -0.9184  1.2213  0.7200
40471SOL    HW228529   1.630   2.950   5.583 -0.8934  0.3123 -1.2975
40472SOL     OW28530  12.000   5.177   2.235 -0.7302  0.1452 -0.1508
40472SOL    HW128531  12.077   5.185   2.179 -0.8143 -1.1859 -0.4806
40472SOL    HW228532  12.031   5.126   2.311 -0.7405  1.4942  0.8023
40473SOL     OW28533   6.970   3.738   7.511 -0.1999  0.1579 -0.3173
40473SOL    HW128534   6.878   3.732   7.487  0.1470  0.5944 -1.8688
40473SOL    HW228535   7.017   3.715   7.431  1.0733  4.5239 -1.0796
40474SOL     OW28536   8.914   6.423   7.790 -0.3687  0.3080 -0.4954
40474SOL    HW128537   8.915   6.333   7.756 -0.7917 -0.0992  0.5170
40474SOL    HW228538   8.966   6.473   7.727  0.0978 -0.7006 -0.9365
40475SOL     OW28539  12.180   3.274   9.879 -0.3969 -0.0591  0.1557
40475SOL    HW128540  12.230   3.334   9.824 -0.4481 -0.1305  0.0325
40475SOL    HW228541  12.135   3.331   9.942  1.7304 -0.0984  1.8622
40476SOL     OW28542  12.873   4.125   2.786  0.0915  0.4153  0.1283
40476SOL    HW128543  12.786   4.162   2.801  0.6842  2.7219 -1.5374
40476SOL    HW228544  12.881   4.121   2.691  0.9870 -1.9445  0.2433
40477SOL     OW28545   7.066  10.492   2.641  0.1602 -0.1443  0.2328
40477SOL    HW128546   7.147  10.476   2.593 -0.9059 -1.4220 -1.2743
40477SOL    HW228547   7.071  10.434   2.717  1.8700  1.8987  1.8187
40478SOL     OW28548   0.050   3.727   7.825  0.7835  0.3734  0.0299
40478SOL    HW128549   0.092   3.738   7.740 -0.5818  0.8253 -0.6083
40478SOL    HW228550  -0.023   3.667   7.809  0.5315  0.4314  0.8920
40479SOL     OW28551   0.357   1.610   1.758 -0.2186 -0.0367  0.6812
40479SOL    HW128552   0.339   1.702   1.740  0.6136 -0.1172 -0.6900
40479SOL    HW228553   0.328   1.563   1.679  0.3939 -0.8227  0.9050
40480SOL     OW28554   3.622  11.535   1.852  0.1552 -0.0873 -0.1655
40480SOL    HW128555   3.541  11.563   1.809 -0.2221  0.1939  0.7288
40480SOL    HW228556   3.645  11.453   1.807  0.3515  0.7348 -1.6309
40481SOL     OW28557   9.552  11.551  11.134  0.3173  0.6741  0.5835
40481SOL    HW128558   9.524  11.464  11.104 -1.1614  0.9159  1.1677
40481SOL    HW228559   9.640  11.561  11.099  0.3870 -0.9208  0.2048
40482SOL     OW28560   2.969   3.216  11.792 -0.2115 -0.3938 -0.1265
40482SOL    HW128561   2.985   3.273  11.868 -0.4948 -0.1240 -0.2684
40482SOL    HW228562   2.894   3.162  11.818 -0.9770  0.4093 -0.5959
40483SOL     OW28563   6.766   0.229   0.920 -0.6592 -0.4925  0.0229
40483SOL    HW128564   6.802   0.208   0.835 -1.6187 -0.3343 -0.4383
40483SOL    HW228565   6.695   0.166   0.932  0.1145 -1.1922  1.1709
40484SOL     OW28566   0.384   7.156   8.268 -0.2978  0.2971 -0.2630
40484SOL    HW128567   0.445   7.139   8.196  0.9717 -1.3007  1.1136
40484SOL    HW228568   0.355   7.069   8.296 -0.1330  0.8184  1.6535
40485SOL     OW28569   8.673  12.820   1.922  0.1055 -0.2174  0.3827
40485SOL    HW128570   8.667  12.729   1.951  1.6460 -0.8229 -1.0000
40485SOL    HW228571   8.687  12.813   1.827 -1.5953  1.5381 -0.0557
40486SOL     OW28572   9.156  12.002   5.937 -0.0855 -0.2422 -0.3140
40486SOL    HW128573   9.107  12.062   5.993  1.0938 -0.9267  1.5658
40486SOL    HW228574   9.209  12.059   5.881  0.7307  0.5101  1.1705
40487SOL     OW28575   5.748   8.579   1.321  0.1105  0.1873  0.1199
40487SOL    HW128576   5.807   8.647   1.287  0.6276 -0.7525 -0.9450
40487SOL    HW228577   5.698   8.550   1.245 -1.4368  0.6427  0.9206
40488SOL     OW28578   3.006   1.359  12.445 -0.5488 -0.0528 -0.3174
40488SOL    HW128579   2.950   1.433  12.424 -0.9542 -0.2695 -0.0185
40488SOL    HW228580   3.055   1.342  12.364 -1.2556 -0.1586 -0.7266
40489SOL     OW28581   9.552   1.444   9.744 -0.2328  0.6472 -0.0057
40489SOL    HW128582   9.489   1.372   9.758 -0.9202  1.4150  1.0175
40489SOL    HW228583   9.636   1.400   9.732 -0.9032 -0.3969 -1.1582
40490SOL     OW28584   1.396  11.942  11.939  0.0182 -0.2961  0.2312
40490SOL    HW128585   1.441  12.018  11.905 -0.0715 -1.2061 -2.0860
40490SOL    HW228586   1.321  11.978  11.988  1.2030  1.1017  1.0981
40491SOL     OW28587   8.721   2.731   1.805 -0.2356  0.3985 -0.0014
40491SOL    HW128588   8.809   2.730   1.844 -0.0532 -1.2239 -0.4075
40491SOL    HW228589   8.668   2.679   1.865 -0.9146  1.2765  0.1797
40492SOL     OW28590  11.286   2.245   1.854  0.6073  0.0046  0.5820
40492SOL    HW128591  11.352   2.191   1.810  1.2877 -0.1917  1.7909
40492SOL    HW228592  11.336   2.320   1.887  0.0139  0.4246  0.5294
40493SOL     OW28593  11.947   8.596   5.298  0.0711 -0.5536  0.7179
40493SOL    HW128594  11.914   8.670   5.247  0.9314 -0.1907  0.6553
40493SOL    HW228595  11.927   8.519   5.245  0.5514 -0.2187  0.0252
40494SOL     OW28596   7.626   2.373  10.560  0.0331  0.4000  0.2283
40494SOL    HW128597   7.592   2.460  10.583  0.7282  0.9989 -0.8920
40494SOL    HW228598   7.563   2.312  10.597 -0.8678  1.4071  0.4177
40495SOL     OW28599   7.964   4.212   0.513 -0.1607 -0.0365 -0.3641
40495SOL    HW128600   7.946   4.200   0.420 -0.9376 -0.4212 -0.1796
40495SOL    HW228601   7.888   4.261   0.546  0.1478  0.1728  0.0463
40496SOL     OW28602   8.545   8.231   3.859  0.4823 -0.6479  0.3275
40496SOL    HW128603   8.606   8.170   3.817  0.0731  0.5392 -2.1798
40496SOL    HW228604   8.599   8.307   3.883  0.4223 -0.6170  0.3647
40497SOL     OW28605   8.568   2.129   8.783 -0.1448  0.5205 -0.2526
40497SOL    HW128606   8.561   2.173   8.868 -1.3983  0.7818 -0.4781
40497SOL    HW228607   8.500   2.062   8.785 -1.4533  1.7422 -1.7341
40498SOL     OW28608   4.762   6.813   1.009  0.1200 -0.3412 -0.4009
40498SOL    HW128609   4.725   6.797   0.923 -2.1713  0.2365  0.4159
40498SOL    HW228610   4.756   6.729   1.054  0.6029 -0.4496 -0.5304
40499SOL     OW28611   9.102   7.466   8.634 -0.2083  0.2350 -0.0676
40499SOL    HW128612   9.083   7.549   8.679 -0.0057 -0.4254  1.2790
40499SOL    HW228613   9.035   7.406   8.666  0.6752 -0.5722  0.3183
40500SOL     OW28614   8.011  10.267   4.102 -0.2360  0.5311  0.0877
40500SOL    HW128615   8.049  10.347   4.138 -0.0488 -0.7500  2.9738
40500SOL    HW228616   8.000  10.209   4.177 -2.4934 -1.3451 -1.5370
40501SOL     OW28617  10.646  11.898   9.776  0.1580 -0.1270 -0.8390
40501SOL    HW128618  10.658  11.991   9.794 -0.4495  0.1438 -1.7726
40501SOL    HW228619  10.732  11.859   9.792  0.7346  0.7881 -1.6109
40502SOL     OW28620  12.356   6.799  12.048 -0.5370 -0.4010  0.0794
40502SOL    HW128621  12.436   6.786  11.997 -0.0831 -1.6147  1.0465
40502SOL    HW228622  12.344   6.894  12.051  1.4375 -0.1171  0.7451
40503SOL     OW28623   5.667  10.519   1.811  0.1294  0.2159  0.2343
40503SOL    HW128624   5.670  10.571   1.731  0.1927  0.2481  0.2575
40503SOL    HW228625   5.758  10.502   1.832  0.0916 -0.5198 -0.1661
40504SOL     OW28626   5.785  11.545   1.532  0.2658  0.0795 -0.0233
40504SOL    HW128627   5.751  11.455   1.538  1.0467 -0.2661 -0.5306
40504SOL    HW228628   5.792  11.561   1.438  1.6387  0.0603  0.0438
40505SOL     OW28629   5.817   0.753   6.986  0.6153  0.3662 -0.9287
40505SOL    HW128630   5.848   0.706   7.064  1.0535  2.3841  0.1847
40505SOL    HW228631   5.731   0.714   6.968  0.5576 -0.2484  0.4901
40506SOL     OW28632   0.012   8.674   9.652 -0.0466  0.1550 -0.2938
40506SOL    HW128633  -0.070   8.630   9.630 -0.4101  0.1784  0.9615
40506SOL    HW228634   0.036   8.639   9.738  0.3070  1.5086  0.1772
40507SOL     OW28635   5.299  11.869   4.123 -0.2847 -0.4556  0.4819
40507SOL    HW128636   5.230  11.884   4.058 -0.9122  1.3218  1.5071
40507SOL    HW228637   5.326  11.778   4.108 -0.7864 -0.2829 -1.8869
40508SOL     OW28638   1.442   9.777   8.038  1.1365 -0.3034  0.3568
40508SOL    HW128639   1.375   9.827   7.992  0.9410 -1.2832 -0.4783
40508SOL    HW228640   1.394   9.722   8.099  1.1062 -1.2682 -0.4917
40509SOL     OW28641   0.743  12.431   6.549  0.2626 -0.4788 -0.3872
40509SOL    HW128642   0.719  12.504   6.493 -1.6980 -1.5605 -1.0452
40509SOL    HW228643   0.791  12.371   6.492  0.1625 -0.6022 -0.3418
40510SOL     OW28644  11.671   4.130   4.166 -0.2671  0.1693  0.2668
40510SOL    HW128645  11.651   4.218   4.197 -0.3237  0.3170 -0.1820
40510SOL    HW228646  11.732   4.095   4.230 -1.7759 -0.2062  1.5666
40511SOL     OW28647  11.119   0.165   5.639  0.3626 -0.1470  0.3318
40511SOL    HW128648  11.084   0.229   5.578  0.8762  1.3492  1.5409
40511SOL    HW228649  11.181   0.114   5.588  0.4793  0.7998 -0.4910
40512SOL     OW28650   3.361   9.409   5.346 -0.2213 -0.9585  0.0560
40512SOL    HW128651   3.385   9.477   5.283  0.1206  0.8728  2.0307
40512SOL    HW228652   3.338   9.333   5.292 -1.6469  1.0108 -2.3420
40513SOL     OW28653   4.032   9.267   9.963  0.0723  0.0114  0.3796
40513SOL    HW128654   4.023   9.352  10.006 -0.5861  0.6255 -0.9422
40513SOL    HW228655   4.061   9.209  10.033  1.5917  1.5269  1.0818
40514SOL     OW28656   7.196   0.526   2.847 -0.0983  0.0358 -0.0128
40514SOL    HW128657   7.199   0.456   2.912 -1.1037 -0.5719 -0.6023
40514SOL    HW228658   7.151   0.598   2.892  0.1072 -0.0190  0.2855
40515SOL     OW28659   4.777   8.502   7.876  0.4072  0.1271 -0.0870
40515SOL    HW128660   4.806   8.551   7.953 -1.2552  1.4764 -0.2579
40515SOL    HW228661   4.682   8.515   7.874  0.1477 -1.6573 -1.1818
40516SOL     OW28662   7.419  10.806  11.037  0.3679  0.6777 -0.2652
40516SOL    HW128663   7.471  10.838  10.963 -0.8300  0.2012 -1.3620
40516SOL    HW228664   7.475  10.740  11.079  1.1812  1.1652 -0.5540
40517SOL     OW28665  11.592  11.351   7.586 -0.1366  0.1138  0.0273
40517SOL    HW128666  11.571  11.264   7.618  0.9927 -0.6085 -1.0774
40517SOL    HW228667  11.508  11.397   7.581 -0.9988 -1.5015 -1.0163
40518SOL     OW28668   9.992   6.751  11.150 -0.3552  0.0184  0.1727
40518SOL    HW128669   9.923   6.802  11.107 -0.4001  0.2573  0.5252
40518SOL    HW228670  10.017   6.685  11.085 -0.6804  0.1427 -0.0812
40519SOL     OW28671   2.542  11.304   0.443 -0.1175 -0.6439  0.0541
40519SOL    HW128672   2.454  11.273   0.425 -0.0572 -1.0014  0.3514
40519SOL    HW228673   2.545  11.315   0.538  0.0142 -0.1806  0.0019
40520SOL     OW28674   3.015  12.935   2.957  0.1308 -0.5883 -0.1035
40520SOL    HW128675   2.933  12.980   2.933  0.3371 -0.6051 -0.8712
40520SOL    HW228676   2.994  12.842   2.950  0.7770 -0.6282 -2.4654
40521SOL     OW28677   2.687   6.592   3.561  0.3114  0.1972 -0.1575
40521SOL    HW128678   2.735   6.589   3.479  0.5951 -0.7700  0.0291
40521SOL    HW228679   2.664   6.684   3.573 -1.7196  0.0772 -2.4375
40522SOL     OW28680  12.222   7.342   0.697  0.7378 -0.5891 -0.4460
40522SOL    HW128681  12.247   7.432   0.720  0.2135 -0.8001  1.0245
40522SOL    HW228682  12.235   7.338   0.602 -0.7308  1.5139 -0.8009
40523SOL     OW28683   1.614   1.707   8.909  0.4692  0.2274 -0.0378
40523SOL    HW128684   1.661   1.790   8.902 -0.3042  0.6305 -0.6429
40523SOL    HW228685   1.600   1.680   8.818  0.3264 -0.3329  0.1488
40524SOL     OW28686   2.918   6.927   2.961  0.0796  0.2547  0.0173
40524SOL    HW128687   2.920   6.910   2.867 -1.4943  0.8881 -0.1697
40524SOL    HW228688   2.826   6.948   2.979  0.5666  1.2630  1.4992
40525SOL     OW28689  11.439  10.754   1.633 -0.0244  0.2037 -0.3374
40525SOL    HW128690  11.485  10.779   1.713 -0.1567  2.0357 -0.7984
40525SOL    HW228691  11.471  10.815   1.566 -0.8767 -0.4525 -1.3835
40526SOL     OW28692   1.954  10.185  12.617 -0.0349  0.1327 -0.3608
40526SOL    HW128693   1.994  10.151  12.697 -1.5694  0.1548  0.4703
40526SOL    HW228694   1.976  10.278  12.617  0.4377  0.0196 -0.2474
40527SOL     OW28695   0.518   3.670  12.295  0.5136 -0.1095 -0.0048
40527SOL    HW128696   0.461   3.607  12.250  1.1890  0.4830 -1.7922
40527SOL    HW228697   0.598   3.621  12.313 -0.1996 -0.6964  1.7242
40528SOL     OW28698   1.198   2.334   4.918  0.5383  0.4350  0.2473
40528SOL    HW128699   1.165   2.266   4.859 -1.9082  0.7675  1.1259
40528SOL    HW228700   1.236   2.400   4.860 -0.2518 -0.0407 -0.8397
40529SOL     OW28701   4.603   2.317   8.554  0.3764 -0.1113  0.1451
40529SOL    HW128702   4.520   2.269   8.541 -0.7333  1.5405  0.8011
40529SOL    HW228703   4.618   2.312   8.648 -0.2618  1.5494  0.3692
40530SOL     OW28704   0.585   3.952   4.152 -0.2687  0.0251  0.0922
40530SOL    HW128705   0.565   4.003   4.073 -0.3899 -1.3161 -0.7645
40530SOL    HW228706   0.677   3.929   4.143 -0.3981 -0.5103  0.1196
40531SOL     OW28707   1.181   5.087   0.449 -0.2745 -0.1090  0.4664
40531SOL    HW128708   1.170   5.181   0.461 -1.7106 -0.0729 -0.8283
40531SOL    HW228709   1.209   5.055   0.535 -1.0347  1.3080  1.2732
40532SOL     OW28710   2.960  11.997   5.350  0.7163  0.2502  0.3678
40532SOL    HW128711   2.960  12.028   5.260  1.4987 -1.5976 -0.3270
40532SOL    HW228712   2.913  12.064   5.399  2.3396  2.4982 -0.9617
40533SOL     OW28713   0.560  12.318   9.816 -0.4422  0.2552  0.0665
40533SOL    HW128714   0.609  12.346   9.893  0.4363  1.3336 -0.8519
40533SOL    HW228715   0.481  12.277   9.852  0.1343  0.3573  1.5340
40534SOL     OW28716  10.243   9.097  10.449  0.6109  0.2310 -0.6611
40534SOL    HW128717  10.308   9.130  10.511 -0.1256  0.3712  0.0566
40534SOL    HW228718  10.259   9.003  10.445 -0.0732  0.0137  0.6912
40535SOL     OW28719  11.286   3.481   6.719 -0.4456  0.1411 -0.0794
40535SOL    HW128720  11.316   3.557   6.669  0.1241 -0.0738 -0.0731
40535SOL    HW228721  11.231   3.518   6.788 -1.1642  0.4476 -0.7938
40536SOL     OW28722  10.964   1.843  12.290 -0.1663  0.1473 -0.2079
40536SOL    HW128723  10.992   1.752  12.275  1.0884  0.8509 -2.5466
40536SOL    HW228724  11.022   1.875  12.358 -0.7173 -0.8172  0.7502
40537SOL     OW28725   9.080   8.505   6.596  0.6137 -0.0177  0.1928
40537SOL    HW128726   8.994   8.471   6.574  1.4306 -1.5463 -0.8185
40537SOL    HW228727   9.129   8.429   6.627  1.7136  0.7535  0.4147
40538SOL     OW28728  11.423   2.203   1.184  0.4505  0.0345 -0.0359
40538SOL    HW128729  11.477   2.127   1.159  1.6524  0.5799  0.7936
40538SOL    HW228730  11.439   2.214   1.277 -0.0689  1.0261 -0.0497
40539SOL     OW28731   6.626   5.312  10.455 -0.0677  0.9880 -0.0281
40539SOL    HW128732   6.598   5.375  10.388 -0.9866 -0.5027 -1.1037
40539SOL    HW228733   6.547   5.295  10.507 -0.5050 -1.0292 -1.2444
40540SOL     OW28734   6.408   8.319   0.244 -0.3750 -0.4600  0.6545
40540SOL    HW128735   6.499   8.331   0.269 -0.5844  0.4744  1.0283
40540SOL    HW228736   6.404   8.347   0.153 -0.6515  1.4261  1.2130
40541SOL     OW28737  10.995  12.800  12.018 -0.1840  0.7040 -0.1349
40541SOL    HW128738  10.958  12.854  11.949  1.9904  1.9390 -0.4295
40541SOL    HW228739  11.000  12.713  11.981 -2.0902  0.6336 -0.3046
40542SOL     OW28740  10.307   7.230   4.789 -0.4741 -0.2681  0.1385
40542SOL    HW128741  10.331   7.292   4.720 -0.0520 -0.3279  0.2297
40542SOL    HW228742  10.226   7.189   4.757  0.1786 -0.9258 -0.7296
40543SOL     OW28743   9.639   5.029  12.015  0.3819 -0.1714  0.6598
40543SOL    HW128744   9.722   5.044  11.971 -0.6496  0.7295 -1.0914
40543SOL    HW228745   9.623   4.935  12.005  0.7833 -0.2011  0.2632
40544SOL     OW28746   0.591   0.041   4.434  0.2338  0.0231 -0.3175
40544SOL    HW128747   0.532   0.038   4.509 -1.1868  0.5132 -1.3616
40544SOL    HW228748   0.570  -0.039   4.384 -0.2760  0.6869 -1.1976
40545SOL     OW28749   5.537   3.385   5.130 -0.4702  0.6908  0.1514
40545SOL    HW128750   5.472   3.354   5.192 -2.0558  0.6542 -1.4528
40545SOL    HW228751   5.500   3.366   5.044  3.3448 -3.1688 -1.0505
40546SOL     OW28752  11.274   6.411  11.642  0.0193  0.4867 -0.1184
40546SOL    HW128753  11.298   6.478  11.578  0.4592 -0.7150 -1.2550
40546SOL    HW228754  11.189   6.379  11.613  1.2407 -1.7083 -1.5766
40547SOL     OW28755  10.527   8.631   1.334  0.4312  0.3620  0.4809
40547SOL    HW128756  10.446   8.647   1.381 -0.2480  2.7593 -1.3203
40547SOL    HW228757  10.595   8.667   1.390 -0.1043  1.0963  0.6696
40548SOL     OW28758   8.683   4.051   3.787  0.1409 -0.0311 -0.1855
40548SOL    HW128759   8.627   3.990   3.835 -0.0199 -0.6814 -1.1690
40548SOL    HW228760   8.702   4.121   3.849  0.2704 -1.0498  0.9429
40549SOL     OW28761  12.480   4.628   8.641  0.0068 -0.3619 -0.0025
40549SOL    HW128762  12.456   4.565   8.709 -0.4130 -0.6723 -0.4324
40549SOL    HW228763  12.466   4.581   8.558  2.0906 -0.5620 -0.3048
40550SOL     OW28764  12.401   7.059   1.203 -0.5507 -0.2245 -0.2633
40550SOL    HW128765  12.492   7.055   1.172 -0.4107 -0.7572  0.1947
40550SOL    HW228766  12.407   7.103   1.288 -1.0394  2.0662 -1.3467
40551SOL     OW28767   6.025  12.330  10.613 -0.4575  0.4289  0.0227
40551SOL    HW128768   5.999  12.238  10.621  0.9158 -0.0740 -0.9484
40551SOL    HW228769   6.109  12.335  10.660  0.0744  0.8947 -0.9494
40552SOL     OW28770  12.408  12.405   2.416  0.4380 -0.1025  0.0536
40552SOL    HW128771  12.484  12.449   2.376 -0.2749  0.6326 -0.5504
40552SOL    HW228772  12.351  12.477   2.443  0.6217 -0.6032  1.9136
40553SOL     OW28773   0.967  12.837   5.468  0.2087  0.4800  0.4387
40553SOL    HW128774   0.908  12.764   5.489  1.1482 -0.1212  1.0450
40553SOL    HW228775   1.004  12.863   5.552  1.4655  0.2744 -0.0262
40554SOL     OW28776  12.219   9.212   1.988  0.0315 -0.1529 -0.4654
40554SOL    HW128777  12.291   9.260   1.946  0.2545 -0.2344 -0.1811
40554SOL    HW228778  12.244   9.207   2.080  0.8060 -2.2436 -0.7383
40555SOL     OW28779   1.683   8.710   6.293  0.4561 -0.5788 -0.0437
40555SOL    HW128780   1.721   8.646   6.234  0.2438 -1.3227  0.6155
40555SOL    HW228781   1.681   8.791   6.242  0.7100 -1.0945 -0.8884
40556SOL     OW28782   0.225   6.556   5.040 -0.4696  0.8045  0.6086
40556SOL    HW128783   0.165   6.481   5.050  0.4507 -0.3910 -1.8301
40556SOL    HW228784   0.187   6.606   4.967  1.4088 -0.0288 -1.0521
40557SOL     OW28785   3.836   4.520   5.599 -0.2318  0.4612 -0.3175
40557SOL    HW128786   3.823   4.502   5.692  0.0793 -0.0539 -0.3653
40557SOL    HW228787   3.782   4.597   5.581 -0.8639  0.1377  0.1287
40558SOL     OW28788   8.970  12.358   8.129 -0.0709 -0.2241  0.2963
40558SOL    HW128789   9.025  12.287   8.095 -0.9741  0.0316 -1.8857
40558SOL    HW228790   9.031  12.413   8.179  0.5258 -2.8078  2.6708
40559SOL     OW28791   9.927   2.901  10.354 -0.6095  0.3119  0.0338
40559SOL    HW128792   9.839   2.873  10.332 -1.0948  2.1671 -0.5677
40559SOL    HW228793   9.983   2.830  10.323 -1.5809  0.9474 -3.6737
40560SOL     OW28794   8.259   2.524   7.231  0.4406 -0.2961  0.2458
40560SOL    HW128795   8.230   2.448   7.281  0.1598  0.6826  1.5933
40560SOL    HW228796   8.182   2.551   7.181 -0.4705  1.0840  2.2961
40561SOL     OW28797   2.400  10.109   3.567  0.3248 -0.1919  0.4596
40561SOL    HW128798   2.440  10.101   3.653 -0.4902 -1.1707  0.7676
40561SOL    HW228799   2.383  10.018   3.540 -1.3555  0.1771  0.1887
40562SOL     OW28800   3.272   5.590   3.496 -0.0015 -0.4683  0.5037
40562SOL    HW128801   3.358   5.568   3.459  0.2836 -1.9828  1.9903
40562SOL    HW228802   3.289   5.607   3.588 -1.2045 -0.1002  0.6737
40563SOL     OW28803   9.476   8.564   4.201  0.0160  0.2052 -0.6713
40563SOL    HW128804   9.434   8.604   4.125 -0.3376  1.4041  0.1169
40563SOL    HW228805   9.403   8.532   4.255  0.1518  1.0758  0.0535
40564SOL     OW28806  10.358   1.398   8.099 -0.4873  0.2036  0.2110
40564SOL    HW128807  10.353   1.430   8.189  0.6467 -0.8083  0.6467
40564SOL    HW228808  10.450   1.407   8.075 -1.0426  2.1507 -1.5193
40565SOL     OW28809   2.607   5.254  11.292 -0.5392  0.1045  0.5535
40565SOL    HW128810   2.526   5.284  11.333 -0.4540  2.0178 -0.5328
40565SOL    HW228811   2.579   5.211  11.212 -0.4992  1.0433  0.0196
40566SOL     OW28812   9.678   7.205  10.478 -0.5015 -0.6630 -0.3995
40566SOL    HW128813   9.626   7.190  10.557 -1.0697 -2.5307 -1.0545
40566SOL    HW228814   9.766   7.175  10.501 -0.3616 -0.0539 -0.1197
40567SOL     OW28815  11.668  12.351  12.645 -0.4938 -0.1533  0.5853
40567SOL    HW128816  11.728  12.372  12.716 -1.3699  2.1731  0.7081
40567SOL    HW228817  11.603  12.293  12.684 -1.4783  1.7967  2.0045
40568SOL     OW28818  10.519   2.674   7.701  0.0972  0.0877 -0.8135
40568SOL    HW128819  10.478   2.680   7.616 -2.0970  0.2021  0.1993
40568SOL    HW228820  10.462   2.616   7.752  1.4201 -0.1000  0.5456
40569SOL     OW28821   5.386   6.895   1.435 -0.1982 -0.5191 -0.3160
40569SOL    HW128822   5.379   6.963   1.368  0.3644  0.5160  0.6424
40569SOL    HW228823   5.421   6.819   1.389  1.3883  0.5605 -0.9759
40570SOL     OW28824   9.416  10.389   9.542  0.3624  0.3817 -0.4537
40570SOL    HW128825   9.504  10.426   9.557 -0.7711  2.1779  3.0943
40570SOL    HW228826   9.376  10.448   9.479  0.7549  1.3969  0.2105
40571SOL     OW28827  12.461   9.208   6.162  0.1286 -0.3672  0.3822
40571SOL    HW128828  12.439   9.291   6.119 -0.4263 -1.2427 -1.0998
40571SOL    HW228829  12.381   9.156   6.157  0.7552 -1.3514  0.4125
40572SOL     OW28830  10.109   7.708   7.468 -0.3746  0.2734  1.0867
40572SOL    HW128831  10.035   7.748   7.422 -0.9394  0.9265  2.5147
40572SOL    HW228832  10.102   7.615   7.446 -1.4932  0.3600  1.0138
40573SOL     OW28833   9.652   8.114  10.650 -0.3460 -0.0418 -0.0978
40573SOL    HW128834   9.711   8.088  10.721 -0.0908  0.1238 -0.2482
40573SOL    HW228835   9.672   8.206  10.634 -1.0810  0.1933  0.2691
40574SOL     OW28836  12.697   5.480  12.676 -0.0598  0.6864  0.2951
40574SOL    HW128837  12.603   5.468  12.690 -0.0099  1.0964  1.0733
40574SOL    HW228838  12.734   5.392  12.679 -0.1838  0.6433  1.9952
40575SOL     OW28839   1.144   9.064   1.977 -0.0935  0.2054  0.2990
40575SOL    HW128840   1.187   9.115   1.909  0.2651 -0.6218 -0.1064
40575SOL    HW228841   1.111   8.987   1.932  0.3995 -0.4998  1.1124
40576SOL     OW28842   7.461   3.841   2.987  0.0496 -0.5831  0.4237
40576SOL    HW128843   7.376   3.825   2.947 -0.4032  0.7056  0.8143
40576SOL    HW228844   7.480   3.760   3.036 -0.3379 -1.3667 -0.6759
40577SOL     OW28845   1.315   2.361  12.537 -0.4126 -0.3497  0.0643
40577SOL    HW128846   1.311   2.415  12.458 -0.0341 -0.5278 -0.0766
40577SOL    HW228847   1.356   2.417  12.603 -0.7642 -0.1872  0.1474
40578SOL     OW28848  11.123   5.203  12.003  0.7913  0.9073  0.2903
40578SOL    HW128849  11.149   5.226  11.914  1.4570 -2.0042 -0.3619
40578SOL    HW228850  11.033   5.236  12.010  0.3917  0.4591 -1.8103
40579SOL     OW28851   2.979   7.739   4.633 -0.1170  0.4281  0.8319
40579SOL    HW128852   2.894   7.729   4.674 -0.0348 -0.2164  0.8523
40579SOL    HW228853   2.975   7.684   4.554  0.6304 -0.4600  1.3876
40580SOL     OW28854   0.673   6.471   4.034 -0.6834 -0.6320  0.2853
40580SOL    HW128855   0.752   6.417   4.037 -0.9763 -1.0859 -0.0238
40580SOL    HW228856   0.643   6.474   4.125  0.2480  0.4018  0.5837
40581SOL     OW28857  12.015   6.717   4.857 -0.4487 -0.0189 -0.2152
40581SOL    HW128858  12.074   6.711   4.782  0.1754  1.6160  0.1100
40581SOL    HW228859  11.927   6.713   4.819 -0.1408  0.9264 -1.0523
40582SOL     OW28860   9.745  12.352   1.321 -0.7182 -0.3585 -0.4184
40582SOL    HW128861   9.823  12.395   1.355 -1.0935 -0.0675  0.0872
40582SOL    HW228862   9.778  12.278   1.270 -0.0839  0.2386 -0.8856
40583SOL     OW28863   7.612   3.155   8.251 -0.3205  0.6501 -0.3134
40583SOL    HW128864   7.566   3.219   8.196 -0.5565  2.3296  1.7229
40583SOL    HW228865   7.611   3.194   8.338  3.3832 -0.0906  0.1989
40584SOL     OW28866   4.528   0.190   0.346 -0.0137  0.0998  0.2458
40584SOL    HW128867   4.578   0.195   0.265 -0.6465 -3.1968 -0.4866
40584SOL    HW228868   4.591   0.159   0.411 -0.0735  0.2767  0.3880
40585SOL     OW28869   8.423   0.264   9.964  0.2992  0.4267  0.1296
40585SOL    HW128870   8.450   0.174   9.984  2.5040  1.2095  0.8621
40585SOL    HW228871   8.413   0.305  10.050  1.2981  1.4325 -0.2268
40586SOL     OW28872   1.126  10.720  12.323  0.6985  0.2662  0.3376
40586SOL    HW128873   1.054  10.740  12.263  0.7797  0.8911  0.4356
40586SOL    HW228874   1.095  10.645  12.373  1.3140 -1.3734 -1.6193
40587SOL     OW28875   2.870  10.773   3.615  0.1062  0.2662  0.2968
40587SOL    HW128876   2.909  10.815   3.538  0.5246  0.4771  0.6262
40587SOL    HW228877   2.792  10.826   3.634  0.4048  0.6431  0.4612
40588SOL     OW28878   1.839   0.269   1.858 -0.5271  0.3940  0.2417
40588SOL    HW128879   1.895   0.195   1.836  0.0517  0.4463  1.4229
40588SOL    HW228880   1.843   0.326   1.781 -0.0986 -0.2852 -0.2494
40589SOL     OW28881  10.475   4.531   1.853  0.1628 -0.3313 -0.7947
40589SOL    HW128882  10.418   4.575   1.790  1.0592 -0.1342 -1.4944
40589SOL    HW228883  10.532   4.476   1.800  0.5737 -0.5865 -0.1073
40590SOL     OW28884  10.102   1.142   6.946  0.0683  0.2733 -0.2561
40590SOL    HW128885  10.103   1.046   6.957  0.2601  0.0767 -1.7545
40590SOL    HW228886  10.055   1.174   7.022 -0.7271 -1.0878 -0.1346
40591SOL     OW28887   6.225  11.271  12.186 -0.2102 -0.0284 -0.0230
40591SOL    HW128888   6.252  11.179  12.181  1.1237  0.2890  0.9812
40591SOL    HW228889   6.140  11.273  12.140  0.5662 -1.4052 -1.6556
40592SOL     OW28890  11.007   9.124   9.373  0.3544  0.0585  0.1206
40592SOL    HW128891  11.075   9.154   9.312 -1.0935  1.4294 -0.9098
40592SOL    HW228892  10.965   9.205   9.403 -2.0501 -0.7845 -0.7635
40593SOL     OW28893   9.247   9.191   5.985  0.0118 -0.1705  0.3321
40593SOL    HW128894   9.322   9.213   6.040  0.6308 -1.5671  0.1081
40593SOL    HW228895   9.188   9.141   6.042  0.5860 -1.4919 -0.1826
40594SOL     OW28896   2.538   7.522   1.171 -0.3695 -0.4604  0.2181
40594SOL    HW128897   2.458   7.569   1.146  0.6886  3.0693  2.5943
40594SOL    HW228898   2.512   7.466   1.244 -1.0692 -1.2295 -0.5987
40595SOL     OW28899   1.922   2.079   8.617 -0.1398 -0.0161 -0.2709
40595SOL    HW128900   2.007   2.040   8.598  0.2317  0.8474 -0.4260
40595SOL    HW228901   1.868   2.057   8.541  0.6371  1.3844 -1.2822
40596SOL     OW28902  11.143   3.251   3.189 -0.0649 -0.3172  0.2717
40596SOL    HW128903  11.132   3.342   3.219 -1.4301  0.1167 -1.4006
40596SOL    HW228904  11.183   3.206   3.264  2.3388  2.0299  0.5771
40597SOL     OW28905   1.386   1.227   4.757  0.3757  0.0113  0.4513
40597SOL    HW128906   1.299   1.206   4.723  0.5030  0.4230 -0.1442
40597SOL    HW228907   1.407   1.153   4.814  0.0668 -0.6004 -0.1984
40598SOL     OW28908  11.174  11.392  12.431  0.8739 -0.7762  0.2726
40598SOL    HW128909  11.222  11.463  12.388 -0.5721 -0.7800 -1.5215
40598SOL    HW228910  11.225  11.313  12.414  1.2802 -0.4980  0.2046
40599SOL     OW28911   0.975  11.455  11.218  0.2440  0.2173 -0.4529
40599SOL    HW128912   0.983  11.406  11.300  0.7825 -0.9305 -1.1600
40599SOL    HW228913   1.055  11.434  11.169 -0.0418  0.9183 -1.2489
40600SOL     OW28914   5.857   3.851   7.171 -0.0386  0.2503 -0.0342
40600SOL    HW128915   5.767   3.819   7.179  0.1206 -0.4051 -0.7897
40600SOL    HW228916   5.876   3.849   7.077  0.2605  1.8175 -0.0415
40601SOL     OW28917   4.746   8.566   9.849  0.1742 -0.3980 -1.1864
40601SOL    HW128918   4.734   8.659   9.866  0.7266 -0.5689  0.2357
40601SOL    HW228919   4.671   8.523   9.890 -0.1101 -0.5837 -1.8845
40602SOL     OW28920   3.622  12.280   4.665 -0.5050  0.2371 -0.0289
40602SOL    HW128921   3.701  12.334   4.658  1.0753 -1.8507  0.4201
40602SOL    HW228922   3.631  12.215   4.595 -1.6320 -0.2820  0.2830
40603SOL     OW28923   2.006   8.467   7.204 -0.0715 -0.3232  0.1978
40603SOL    HW128924   2.071   8.531   7.177 -3.0494  2.2676 -1.4593
40603SOL    HW228925   2.032   8.386   7.159  2.1918  0.4311  0.0340
40604SOL     OW28926   7.181   2.924   6.497  0.2572  0.1541 -0.1056
40604SOL    HW128927   7.174   2.956   6.407  1.9754 -0.2769 -0.4300
40604SOL    HW228928   7.211   3.000   6.547  1.3741 -0.1289 -0.3150
40605SOL     OW28929   9.664   3.924   2.644  0.9146 -0.1793  0.2966
40605SOL    HW128930   9.637   3.933   2.736 -1.2078  0.0501 -0.2918
40605SOL    HW228931   9.639   3.834   2.621 -0.2871  0.3519 -0.5467
40606SOL     OW28932   1.936   1.018   3.449  0.2755 -0.4279  0.0408
40606SOL    HW128933   1.999   0.948   3.465 -1.4349 -2.0409 -0.0185
40606SOL    HW228934   1.871   1.009   3.519 -1.2546 -0.4687 -1.3115
40607SOL     OW28935   4.306   7.319   1.690 -0.3628  0.2703 -0.1098
40607SOL    HW128936   4.395   7.346   1.713  0.4208 -1.2861 -1.1791
40607SOL    HW228937   4.264   7.400   1.659  0.2656  1.2634  1.4972
40608SOL     OW28938   1.453  11.292   8.661  0.0537 -0.0433  0.4045
40608SOL    HW128939   1.451  11.345   8.582  0.5049  0.5238  0.7639
40608SOL    HW228940   1.531  11.320   8.708 -0.0586 -0.5569  0.9287
40609SOL     OW28941   8.316   6.521  10.760  0.2091  0.4280  0.0109
40609SOL    HW128942   8.394   6.472  10.735 -0.3536  0.2470 -1.4641
40609SOL    HW228943   8.339   6.612  10.743 -0.2780  0.2794 -1.5064
40610SOL     OW28944   0.165   3.223  12.817 -0.1137 -0.8402 -0.0129
40610SOL    HW128945   0.189   3.236  12.725 -0.5855 -1.3831 -0.2140
40610SOL    HW228946   0.085   3.275  12.829  0.1897 -0.4123  0.2161
40611SOL     OW28947   3.096  11.326   8.087 -0.0782  0.6873  0.3065
40611SOL    HW128948   3.045  11.248   8.110 -0.1396  0.2941 -1.0806
40611SOL    HW228949   3.131  11.357   8.171 -1.7316  0.3694  1.1597
40612SOL     OW28950   6.598   1.201   7.223 -0.3902  0.0883  0.1453
40612SOL    HW128951   6.661   1.265   7.191 -0.1257 -0.2345  0.0209
40612SOL    HW228952   6.635   1.116   7.199 -0.0029 -0.1874  1.6157
40613SOL     OW28953   8.665   9.808  11.915  0.2634 -0.5864 -0.9758
40613SOL    HW128954   8.591   9.813  11.974 -0.4873 -2.1660 -1.7241
40613SOL    HW228955   8.626   9.807  11.827  1.3472  1.9535 -1.5875
40614SOL     OW28956   1.128   2.332   6.451 -0.3474  0.1556  0.5448
40614SOL    HW128957   1.195   2.328   6.520 -0.9311 -1.1407  1.0805
40614SOL    HW228958   1.178   2.349   6.371  0.8718 -2.2543  0.6800
40615SOL     OW28959   1.686  10.573  11.963  0.3125  0.4956 -0.0686
40615SOL    HW128960   1.699  10.596  12.055  2.3122  0.0675 -0.1913
40615SOL    HW228961   1.655  10.654  11.923  1.1112  1.1928  0.6731
40616SOL     OW28962   0.685  10.995  11.305 -0.1104  0.4852 -0.3124
40616SOL    HW128963   0.676  11.054  11.230  0.0411  0.4650 -0.3470
40616SOL    HW228964   0.767  11.022  11.346 -0.3469  0.7034  0.0285
40617SOL     OW28965   3.377   4.817   6.008  0.0393 -0.3485  0.3202
40617SOL    HW128966   3.333   4.895   5.975  0.7912  0.8945  2.1059
40617SOL    HW228967   3.322   4.744   5.980 -0.7391  0.8045 -1.2980
40618SOL     OW28968   1.296   9.556  11.107 -0.3196  0.1719  0.3745
40618SOL    HW128969   1.254   9.642  11.113 -1.2048  0.0460 -2.4157
40618SOL    HW228970   1.371   9.562  11.165 -3.4743  0.7423  4.8719
40619SOL     OW28971   7.127   0.633   4.089 -0.2217 -0.0684 -0.2545
40619SOL    HW128972   7.147   0.678   4.007 -0.5820  1.2438  0.3421
40619SOL    HW228973   7.158   0.693   4.157 -3.4652  0.7925  0.6694
40620SOL     OW28974  12.372   6.527  11.219  0.1193  0.3959  0.0809
40620SOL    HW128975  12.365   6.471  11.297  2.2108  0.7083  0.5394
40620SOL    HW228976  12.341   6.472  11.147 -0.3204 -0.4435  0.8894
40621SOL     OW28977  10.303   0.919  10.490  0.3330 -0.4425 -0.2931
40621SOL    HW128978  10.330   0.978  10.420 -0.5243 -0.3171 -0.5309
40621SOL    HW228979  10.289   0.835  10.446  0.7541 -0.6164 -0.0978
40622SOL     OW28980   8.232   5.023   0.626  0.3435 -0.0884  0.0230
40622SOL    HW128981   8.294   5.096   0.621  0.4743 -0.0501  1.7765
40622SOL    HW228982   8.229   5.000   0.718  0.2326 -2.2749 -0.4751
40623SOL     OW28983   4.704  11.625   6.030 -0.3611 -0.3474 -0.3773
40623SOL    HW128984   4.665  11.705   6.065 -0.1901 -1.1460  1.7310
40623SOL    HW228985   4.775  11.604   6.091  0.6475 -1.2479 -1.7897
40624SOL     OW28986   9.159   0.003   4.335  0.1908 -0.2117  0.5170
40624SOL    HW128987   9.127  -0.078   4.375  0.0732  0.0395  0.9360
40624SOL    HW228988   9.080   0.047   4.304  0.2986 -0.4920 -0.1611
40625SOL     OW28989   3.787   8.815   6.106 -0.3013  0.5860 -0.6635
40625SOL    HW128990   3.768   8.907   6.123 -1.1082  0.6152 -1.6512
40625SOL    HW228991   3.828   8.813   6.020 -1.4709 -0.0828 -1.2355
40626SOL     OW28992  12.310   1.536   0.354 -0.5203 -0.3203  0.4081
40626SOL    HW128993  12.367   1.465   0.384 -0.1967 -0.1376  0.2213
40626SOL    HW228994  12.268   1.569   0.434  0.5429  0.3459  0.7053
40627SOL     OW28995  11.998   3.544   5.739  0.3690 -0.1941 -0.5060
40627SOL    HW128996  11.906   3.531   5.719 -0.1048 -0.4921  1.6324
40627SOL    HW228997  12.015   3.486   5.813  1.9266  0.8280 -0.0060
40628SOL     OW28998   5.709   2.016   8.932 -0.1101  0.1574  0.0870
40628SOL    HW128999   5.749   2.026   8.845  0.6859  1.6503  0.5912
40628SOL    HW229000   5.616   2.008   8.914  0.0200  0.6819 -0.9047
40629SOL     OW29001   3.494   7.835   4.731  0.4126 -0.1348 -0.1397
40629SOL    HW129002   3.503   7.927   4.706 -2.2200  0.1831 -0.1640
40629SOL    HW229003   3.505   7.834   4.826 -0.0366  0.2968 -0.0820
40630SOL     OW29004  10.626   1.121   2.185 -0.1851  0.4336  0.3026
40630SOL    HW129005  10.548   1.072   2.159  0.1054  0.4271 -0.6138
40630SOL    HW229006  10.597   1.212   2.190  0.1281  0.7195 -1.9273
40631SOL     OW29007   1.968  12.057   1.544  0.5251  0.5844  0.1420
40631SOL    HW129008   1.963  12.065   1.640 -0.9701  1.3946  0.0347
40631SOL    HW229009   1.876  12.057   1.516  0.8682 -1.3826 -1.1826
40632SOL     OW29010  12.674   1.600  12.240  0.1561 -0.1865 -0.2075
40632SOL    HW129011  12.689   1.580  12.332 -0.1072  1.4008  0.2145
40632SOL    HW229012  12.761   1.622  12.205 -0.1026  2.0791  0.4401
40633SOL     OW29013  11.218   5.852  12.016 -0.6173  0.5383  0.0538
40633SOL    HW129014  11.244   5.825  12.104 -0.0992 -1.4936 -0.6704
40633SOL    HW229015  11.298   5.885  11.976 -0.4293 -0.2503 -0.2397
40634SOL     OW29016   0.027   5.828  12.051  0.5814 -0.0328 -0.0448
40634SOL    HW129017   0.077   5.893  12.101  0.4286 -0.7290  1.0401
40634SOL    HW229018  -0.052   5.813  12.102 -0.8271  1.0894 -1.7637
40635SOL     OW29019   0.717   1.606   3.236 -0.1769 -0.7144 -0.1929
40635SOL    HW129020   0.752   1.669   3.300 -0.1110 -1.7637  0.8331
40635SOL    HW229021   0.782   1.604   3.166  0.1953 -0.2103  0.1310
40636SOL     OW29022   1.607   9.343   9.951  0.5144 -0.0971 -0.2860
40636SOL    HW129023   1.614   9.377  10.040  0.1664 -0.8105  0.0246
40636SOL    HW229024   1.690   9.298   9.936  0.4899 -0.1551 -0.2467
40637SOL     OW29025   1.160   7.830   3.419  0.2685  0.5796  0.0122
40637SOL    HW129026   1.224   7.834   3.490  0.0606  4.1297  0.1917
40637SOL    HW229027   1.080   7.867   3.457 -0.1660  1.5359 -1.7455
40638SOL     OW29028   5.208   4.987   0.997  0.0592 -0.0848  0.5115
40638SOL    HW129029   5.158   5.015   0.920  0.0485  2.4791  1.3625
40638SOL    HW229030   5.145   4.989   1.069 -0.3490 -4.0183  0.4652
40639SOL     OW29031   0.647  10.976   8.225  0.0556  0.0538  0.3297
40639SOL    HW129032   0.631  10.923   8.303 -1.9391 -0.5199 -0.4276
40639SOL    HW229033   0.723  11.030   8.248 -0.0006 -0.6670  2.3667
40640SOL     OW29034   0.916   1.964  12.481 -0.6804  0.1891  0.3127
40640SOL    HW129035   0.939   1.918  12.561  1.6039  0.3893 -0.1491
40640SOL    HW229036   0.903   2.055  12.508 -0.6125  0.1284  0.5513
40641SOL     OW29037   1.046   0.308   1.011 -0.2638  0.5913 -0.0105
40641SOL    HW129038   1.077   0.328   1.099 -0.3641  2.0049 -0.2681
40641SOL    HW229039   1.120   0.328   0.954 -1.0487  2.4539 -0.4766
40642SOL     OW29040   4.883  11.302   7.925 -0.2412 -0.0845 -0.5902
40642SOL    HW129041   4.950  11.322   7.859  0.7537 -1.0550  0.0718
40642SOL    HW229042   4.904  11.360   7.998  0.2054 -0.7158 -0.1984
40643SOL     OW29043   8.828  11.483   7.582 -0.1366 -0.3500  0.2307
40643SOL    HW129044   8.893  11.503   7.650  0.4120 -1.2847  0.0060
40643SOL    HW229045   8.880  11.450   7.509 -0.7061  0.8167 -0.7304
40644SOL     OW29046   1.526  11.052   8.025 -0.5618  0.5867 -0.0820
40644SOL    HW129047   1.575  11.089   8.099 -0.8140 -2.4547  1.7769
40644SOL    HW229048   1.544  10.958   8.029 -3.1259 -0.0966 -1.9638
40645SOL     OW29049   1.911   1.174  11.171  0.2524 -0.0102 -0.4369
40645SOL    HW129050   1.961   1.151  11.250  0.6490  0.1558 -0.6344
40645SOL    HW229051   1.885   1.265  11.185 -2.4469 -0.8929  0.9392
40646SOL     OW29052   7.077  10.856   3.144  0.3570  0.4713 -0.2654
40646SOL    HW129053   7.069  10.773   3.097 -1.5276  0.7239 -0.4780
40646SOL    HW229054   7.042  10.921   3.083  0.5908  1.2390  0.4025
40647SOL     OW29055   4.045   7.748  12.100 -0.2414 -0.0505  0.0315
40647SOL    HW129056   3.998   7.756  12.183 -0.2148 -1.7526  0.2341
40647SOL    HW229057   3.988   7.791  12.036 -0.9951 -0.0971  0.6611
40648SOL     OW29058   1.534   1.323   2.761  0.3107 -0.2241  0.5571
40648SOL    HW129059   1.622   1.285   2.753  0.0183 -0.7410 -0.4927
40648SOL    HW229060   1.548   1.408   2.801  1.3857  0.0235 -0.2912
40649SOL     OW29061   3.917   1.476   5.324 -0.3685 -0.6818  0.2067
40649SOL    HW129062   3.901   1.570   5.318 -0.0803 -0.7000 -1.1156
40649SOL    HW229063   4.012   1.467   5.321 -0.3770 -1.0082  0.7063
40650SOL     OW29064   8.248   7.056   3.324  0.2014  0.0727  0.1654
40650SOL    HW129065   8.212   7.052   3.412  2.7988 -0.6878  1.2962
40650SOL    HW229066   8.174   7.080   3.268 -1.9537 -1.2898  2.2675
40651SOL     OW29067   1.058   6.826   5.182 -0.1427 -0.0494  0.4004
40651SOL    HW129068   0.988   6.771   5.148 -0.4590  0.1950  0.6502
40651SOL    HW229069   1.115   6.843   5.107 -0.3784 -0.2034  0.1879
40652SOL     OW29070   1.477   7.731  11.916 -0.7726 -0.5824  0.9882
40652SOL    HW129071   1.563   7.716  11.876 -0.7777  0.1922  0.6773
40652SOL    HW229072   1.419   7.750  11.842 -1.2261 -1.1174  1.1959
40653SOL     OW29073   1.235   7.541   2.459 -0.8497 -0.0622  0.0974
40653SOL    HW129074   1.240   7.471   2.524 -2.7435 -0.9745 -0.6518
40653SOL    HW229075   1.324   7.576   2.454  0.0024 -1.9757  0.9792
40654SOL     OW29076   3.979  11.652  11.426 -0.8792  0.3123 -0.2848
40654SOL    HW129077   4.031  11.576  11.402  0.6417  1.4565 -0.7703
40654SOL    HW229078   3.957  11.639  11.518  1.5732  0.4892  0.3794
40655SOL     OW29079  12.431   9.021   5.916  0.2841  0.6404  0.2162
40655SOL    HW129080  12.499   9.049   5.855  0.6550  3.9359  1.8789
40655SOL    HW229081  12.479   8.982   5.989  0.2902  1.2796  0.5659
40656SOL     OW29082   4.959   3.870  10.262 -0.8697  0.2543  0.3663
40656SOL    HW129083   4.907   3.852  10.340  0.6713 -1.2160  1.1268
40656SOL    HW229084   4.901   3.852  10.189 -1.5727 -0.8482  1.1749
40657SOL     OW29085  10.906   7.661  12.150  0.1791 -0.5238  0.0368
40657SOL    HW129086  10.976   7.622  12.098  1.2253 -0.5494  1.3902
40657SOL    HW229087  10.923   7.755  12.147  0.3290 -0.5369  0.4414
40658SOL     OW29088  12.952   4.518   6.995 -0.2553  0.0431  0.2929
40658SOL    HW129089  12.919   4.445   6.942  0.1490 -0.0224  0.1311
40658SOL    HW229090  13.028   4.482   7.040  1.2910  0.9655 -1.4655
40659SOL     OW29091   4.493   4.384   6.680 -0.4403  0.0375  1.0494
40659SOL    HW129092   4.436   4.445   6.727 -1.7529 -0.9647  0.7862
40659SOL    HW229093   4.438   4.309   6.660  0.8127 -0.7053  0.2365
40660SOL     OW29094   1.955   8.389   3.849  0.3753 -0.0138 -0.6875
40660SOL    HW129095   1.972   8.301   3.814  0.2003  0.0575 -0.9572
40660SOL    HW229096   1.911   8.435   3.777 -1.7210 -0.4434  0.2570
40661SOL     OW29097   3.105   9.542   8.809 -0.3143  0.4382 -0.1157
40661SOL    HW129098   3.061   9.526   8.726 -0.8572  1.8772 -0.1364
40661SOL    HW229099   3.090   9.635   8.827  3.3832  1.2571 -0.4883
40662SOL     OW29100  11.398   8.526   3.528 -0.8408  0.1699  0.0786
40662SOL    HW129101  11.348   8.525   3.446 -0.6441  1.5494 -0.0817
40662SOL    HW229102  11.483   8.564   3.503  0.2432 -1.9168  0.3893
40663SOL     OW29103   0.234   3.197   1.989 -0.3677 -0.3343  0.3558
40663SOL    HW129104   0.266   3.127   2.046  0.2457 -0.6348 -0.3354
40663SOL    HW229105   0.204   3.265   2.049  3.3843  0.8453  1.1846
40664SOL     OW29106   6.985   7.005   0.785  0.1742  0.1459  0.4388
40664SOL    HW129107   7.062   7.048   0.747  0.1328 -0.1271  0.0347
40664SOL    HW229108   6.912   7.061   0.759  0.1113 -0.2044 -0.1553
40665SOL     OW29109   2.601   0.989   4.867  0.1741 -0.2689 -0.9432
40665SOL    HW129110   2.547   1.049   4.919  0.6354  0.0197 -0.7962
40665SOL    HW229111   2.681   1.038   4.848  0.8387 -1.0609 -0.2743
40666SOL     OW29112   8.036   8.931  10.835  0.5456 -0.0984  0.1372
40666SOL    HW129113   7.965   8.956  10.894  0.6370  1.4164 -0.3547
40666SOL    HW229114   8.109   8.987  10.860  0.8837 -0.1073 -0.7839
40667SOL     OW29115   8.662   7.644   4.242 -0.7116  0.5150  0.3285
40667SOL    HW129116   8.601   7.708   4.205  0.5555  3.3956  2.7611
40667SOL    HW229117   8.748   7.672   4.211 -0.0133  0.7338  2.3014
40668SOL     OW29118   4.767  11.030   4.787  0.0147  0.0802  0.2023
40668SOL    HW129119   4.847  10.987   4.757  1.0981  2.6585 -0.8093
40668SOL    HW229120   4.721  11.054   4.707 -0.1686  1.4459  0.6928
40669SOL     OW29121   1.375   2.453   2.450  0.5057 -0.0270  0.0195
40669SOL    HW129122   1.395   2.446   2.357 -2.5285  1.8516 -0.9348
40669SOL    HW229123   1.297   2.398   2.462 -0.6347  1.6779  0.8366
40670SOL     OW29124   2.612  12.504  10.123 -0.4644  0.4075 -0.2385
40670SOL    HW129125   2.611  12.508  10.027 -1.1456 -1.2220 -0.3323
40670SOL    HW229126   2.679  12.438  10.143 -1.5043 -0.5114  0.3220
40671SOL     OW29127   3.376   2.610  11.838 -0.4281 -0.7737  0.1491
40671SOL    HW129128   3.396   2.527  11.880  0.2242 -0.3089  0.7700
40671SOL    HW229129   3.446   2.621  11.773  0.3408 -0.0175  1.0784
40672SOL     OW29130   2.235   4.592   7.892 -0.2402  0.1531 -0.0264
40672SOL    HW129131   2.281   4.517   7.855 -0.6773  0.6762 -1.7073
40672SOL    HW229132   2.152   4.595   7.845 -0.5890  1.2015  0.6133
40673SOL     OW29133   5.835   9.765  12.094 -0.0537  0.0443  0.3828
40673SOL    HW129134   5.826   9.722  12.179 -1.3132 -0.3133  0.1010
40673SOL    HW229135   5.928   9.761  12.074  0.2536  0.0767  1.7140
40674SOL     OW29136   1.971   2.811   4.884 -0.3517  0.2844  0.5571
40674SOL    HW129137   2.011   2.751   4.821  0.5781  1.3228  0.1307
40674SOL    HW229138   1.877   2.792   4.878 -0.1127 -0.8608  0.1705
40675SOL     OW29139   8.235   0.785   8.071 -0.1661  0.1753 -0.0895
40675SOL    HW129140   8.252   0.713   8.010  1.3239  0.0292  0.4524
40675SOL    HW229141   8.271   0.862   8.028 -1.7093  0.6249 -0.6423
40676SOL     OW29142   9.046   5.699  10.002  0.0933 -0.0076  0.2697
40676SOL    HW129143   9.049   5.610   9.966 -1.9819 -1.4855  3.3597
40676SOL    HW229144   8.956   5.728   9.987 -0.0009  0.4600  1.6592
40677SOL     OW29145   4.725   8.330   5.927  0.0309  0.3850  0.6891
40677SOL    HW129146   4.782   8.373   5.991 -0.0410 -1.1758  1.8818
40677SOL    HW229147   4.784   8.295   5.861  0.0916  2.1874 -0.2777
40678SOL     OW29148   4.362   6.069  12.672 -0.3516 -0.3840 -0.5310
40678SOL    HW129149   4.405   6.154  12.684  0.9716 -1.3446  2.6701
40678SOL    HW229150   4.434   6.008  12.655 -0.6770 -1.5452  1.8986
40679SOL     OW29151  12.195   0.323   6.739  0.2402 -0.4280  0.2097
40679SOL    HW129152  12.251   0.282   6.672  0.8672 -1.3016  1.2424
40679SOL    HW229153  12.255   0.345   6.810 -0.3591  0.8455  0.3570
40680SOL     OW29154   1.073   8.226   2.595  0.3863  0.6671  0.1179
40680SOL    HW129155   1.059   8.219   2.690 -0.3340 -0.2773 -0.0517
40680SOL    HW229156   1.125   8.306   2.585  1.9934 -0.1228  1.4664
40681SOL     OW29157  11.010   4.892  11.561 -0.0422  0.2618  0.4832
40681SOL    HW129158  10.941   4.840  11.519  0.6994 -1.6555  1.4881
40681SOL    HW229159  11.078   4.900  11.495 -0.0251 -0.3754  0.4153
40682SOL     OW29160   0.245   1.644  10.752 -0.1192 -0.2767 -0.4662
40682SOL    HW129161   0.266   1.725  10.799 -0.5625 -0.9142  0.8965
40682SOL    HW229162   0.295   1.576  10.798 -1.9023 -1.1888  0.2301
40683SOL     OW29163   5.383  11.975   7.537  0.2470 -0.3831 -0.1321
40683SOL    HW129164   5.456  12.016   7.583  0.8724 -0.6149 -0.8909
40683SOL    HW229165   5.313  12.040   7.540 -0.3342 -1.0450  2.6139
40684SOL     OW29166   8.180   8.218  11.355 -0.4430 -0.2266 -0.2267
40684SOL    HW129167   8.129   8.138  11.336  0.3946 -1.1219  1.1474
40684SOL    HW229168   8.257   8.211  11.299 -0.1963 -0.5657  0.1537
40685SOL     OW29169   7.359   2.058  11.280  0.2881 -0.6027  0.1520
40685SOL    HW129170   7.396   2.011  11.205  0.3011 -1.9068  0.9448
40685SOL    HW229171   7.300   1.994  11.321 -2.2959  1.1354 -0.6252
40686SOL     OW29172   5.744  10.561   0.090 -0.0240 -0.0870  0.1647
40686SOL    HW129173   5.672  10.563   0.154 -0.1522  1.7426 -0.0041
40686SOL    HW229174   5.823  10.570   0.143 -0.0709  0.4220  0.1501
40687SOL     OW29175  11.470   4.236   5.812  0.4010 -0.0454  0.3361
40687SOL    HW129176  11.426   4.297   5.752 -0.4880  0.6528  1.6409
40687SOL    HW229177  11.400   4.200   5.866  1.2541  0.1104  1.6164
40688SOL     OW29178   9.399   6.905   8.734  0.3173 -0.3409 -0.7716
40688SOL    HW129179   9.448   6.968   8.788 -1.8428  1.0816 -0.3236
40688SOL    HW229180   9.446   6.904   8.651  0.3504  2.1096 -0.8739
40689SOL     OW29181   1.813   4.967   7.083 -0.1272  0.2226 -0.5773
40689SOL    HW129182   1.740   5.010   7.127 -0.7503 -0.2979 -1.0853
40689SOL    HW229183   1.845   4.903   7.147  1.2696  1.8682  0.4663
40690SOL     OW29184   0.410  10.089   0.620  0.2889  0.0494  0.1508
40690SOL    HW129185   0.338  10.122   0.567 -0.0760  0.1892  0.7189
40690SOL    HW229186   0.387   9.998   0.638  0.6661 -0.1473 -0.3552
40691SOL     OW29187   3.580   6.991  10.090 -0.1407 -0.3875 -0.2418
40691SOL    HW129188   3.552   6.981   9.999 -2.5270  0.7332  0.2871
40691SOL    HW229189   3.613   7.081  10.096 -0.8394 -0.1454  0.1639
40692SOL     OW29190  10.976  10.126   2.931  0.0377 -0.1453  0.3168
40692SOL    HW129191  11.025  10.165   3.003 -0.3753  0.8074  0.0975
40692SOL    HW229192  10.915  10.065   2.972 -0.3773  0.5838  0.7981
40693SOL     OW29193   4.458  10.182   8.103  0.6066 -0.2552  0.3048
40693SOL    HW129194   4.401  10.239   8.155 -0.1833  0.3281 -1.1368
40693SOL    HW229195   4.402  10.108   8.080  1.2722 -1.0430  1.1540
40694SOL     OW29196   7.144   5.039   2.926  1.0419 -0.0527 -0.4674
40694SOL    HW129197   7.238   5.025   2.941  0.6671 -1.7215  0.7079
40694SOL    HW229198   7.103   4.958   2.958 -0.8177  0.6995 -0.8265
40695SOL     OW29199   1.788  11.339   0.100 -0.0014 -0.3691 -0.1760
40695SOL    HW129200   1.801  11.429   0.070  0.4831  0.1686  1.5228
40695SOL    HW229201   1.698  11.318   0.074 -0.2314  0.7213 -0.3158
40696SOL     OW29202   2.349   3.533   4.730  0.1763  0.0607  0.3786
40696SOL    HW129203   2.325   3.562   4.642  2.4546 -0.6971 -0.5814
40696SOL    HW229204   2.411   3.599   4.761  0.9093 -0.6983  0.5684
40697SOL     OW29205  12.711  12.081  11.576 -0.0636 -0.0989 -0.3724
40697SOL    HW129206  12.714  12.067  11.671  0.8468  1.5198 -0.1275
40697SOL    HW229207  12.798  12.053  11.545  0.3348  1.1551 -0.4341
40698SOL     OW29208   1.056   0.902  11.449  0.2635  0.3996  0.0862
40698SOL    HW129209   1.031   0.930  11.537  0.3950 -0.5803  0.4540
40698SOL    HW229210   1.117   0.968  11.418 -1.6625  2.1169 -0.2879
40699SOL     OW29211   4.959   1.872   7.649 -0.4536  0.3711  0.5443
40699SOL    HW129212   5.011   1.826   7.582  1.8327  1.4274  1.4896
40699SOL    HW229213   4.959   1.812   7.724 -0.5863  0.3917  0.5607
40700SOL     OW29214   1.296  11.144   2.072  0.2285 -0.1982  0.0713
40700SOL    HW129215   1.318  11.100   2.154 -0.4232 -0.0872  0.3112
40700SOL    HW229216   1.230  11.088   2.031 -1.4912  1.0890  0.9368
40701SOL     OW29217  11.174   6.843   7.319 -0.1615 -0.5309 -0.0300
40701SOL    HW129218  11.170   6.900   7.395  0.3313  1.1549 -1.2111
40701SOL    HW229219  11.202   6.900   7.247 -1.7540 -1.7669 -1.7362
40702SOL     OW29220  12.209   6.454   3.812 -0.0176  0.4918 -0.5429
40702SOL    HW129221  12.194   6.441   3.906  0.8662 -0.4820 -0.5014
40702SOL    HW229222  12.235   6.367   3.781  1.2705  1.1380 -1.3619
40703SOL     OW29223   5.640  12.941   4.225 -0.6277 -0.0268 -0.4834
40703SOL    HW129224   5.550  12.910   4.212 -0.6338 -0.0172 -0.4645
40703SOL    HW229225   5.643  12.967   4.317 -0.5535 -0.2013 -0.4359
40704SOL     OW29226   6.626   9.287  12.421  0.2432  0.0809 -0.1386
40704SOL    HW129227   6.672   9.309  12.502 -0.1411  0.3071  0.0193
40704SOL    HW229228   6.536   9.315  12.436 -0.2351 -1.4268  0.0090
40705SOL     OW29229   2.623   9.440   4.641 -0.3923  0.0266 -0.4360
40705SOL    HW129230   2.529   9.458   4.631 -0.4923 -1.1222 -1.8956
40705SOL    HW229231   2.665   9.495   4.575 -0.2664 -1.1466 -1.3622
40706SOL     OW29232   2.597  11.909  10.632 -0.1520  0.1232  0.0177
40706SOL    HW129233   2.542  11.974  10.588 -0.9069 -1.5858 -1.6803
40706SOL    HW229234   2.642  11.959  10.700  0.2587  2.6982 -1.9714
40707SOL     OW29235   4.877  12.228   3.043 -0.5506  0.0130 -0.2679
40707SOL    HW129236   4.862  12.307   3.096  2.3857  0.5342 -0.0394
40707SOL    HW229237   4.935  12.258   2.972  0.1302 -1.8229 -0.5302
40708SOL     OW29238   0.847   6.236  12.250  0.1013  0.4796  0.1186
40708SOL    HW129239   0.873   6.275  12.333 -1.0395  2.3997 -0.3742
40708SOL    HW229240   0.908   6.273  12.186  0.0262  0.1908 -0.1214
40709SOL     OW29241   9.863   3.036  11.916  0.1614 -0.1329  0.2109
40709SOL    HW129242   9.905   3.005  11.836 -0.3741 -0.7344  0.1577
40709SOL    HW229243   9.897   2.979  11.985  0.6674  0.4206  0.4355
40710SOL     OW29244  11.114   8.856  12.714  0.3160  0.4784 -0.0281
40710SOL    HW129245  11.185   8.843  12.651  0.5774 -0.4329  0.4314
40710SOL    HW229246  11.112   8.774  12.765 -1.7226  0.0615 -0.6897
40711SOL     OW29247   2.783  10.946   9.406  0.2731 -0.0521  0.0629
40711SOL    HW129248   2.795  11.021   9.464 -1.7567  0.9116 -0.6539
40711SOL    HW229249   2.688  10.938   9.397  0.3961 -2.9503  0.3610
40712SOL     OW29250  12.406  10.920   6.132 -0.0582 -0.0273 -0.6590
40712SOL    HW129251  12.444  10.838   6.164  1.3878  1.4086  1.5812
40712SOL    HW229252  12.477  10.962   6.083  0.2011  1.1107  0.6170
40713SOL     OW29253  10.367   3.579   1.911 -0.1150 -0.0179  0.3556
40713SOL    HW129254  10.348   3.553   2.001  1.3825 -1.1038  0.3907
40713SOL    HW229255  10.356   3.675   1.911  1.7849  0.2666  2.2138
40714SOL     OW29256  10.545   8.517  12.748  0.2934  0.3081 -0.1761
40714SOL    HW129257  10.551   8.568  12.667  0.3860  0.6634  0.0528
40714SOL    HW229258  10.566   8.427  12.722 -0.7179  0.2320 -0.7393
40715SOL     OW29259  12.861  10.328   5.550  0.3793  0.0293 -0.1578
40715SOL    HW129260  12.807  10.303   5.625 -0.3891  0.1202 -0.6735
40715SOL    HW229261  12.927  10.259   5.544 -0.4503 -0.7756 -0.2883
40716SOL     OW29262   9.381   5.828   5.887 -0.7315  0.1794 -0.1366
40716SOL    HW129263   9.399   5.748   5.837  0.3573 -0.8516  1.7758
40716SOL    HW229264   9.444   5.825   5.960 -2.7837  1.1164  1.8025
40717SOL     OW29265   7.246   2.533   9.468 -0.1533 -0.0880 -0.1547
40717SOL    HW129266   7.305   2.481   9.414 -0.5543  0.0587 -0.7383
40717SOL    HW229267   7.169   2.478   9.480 -1.0157  0.7364 -1.6334
40718SOL     OW29268   5.436   4.245   6.771  0.6456  0.0847 -0.1464
40718SOL    HW129269   5.458   4.162   6.813 -0.0206 -2.1387 -3.7991
40718SOL    HW229270   5.519   4.280   6.741  0.7756 -0.0659  0.0360
40719SOL     OW29271   4.342   6.005   1.008  0.5681 -0.3181 -0.1601
40719SOL    HW129272   4.269   5.956   0.971  0.7502 -0.5851 -0.1698
40719SOL    HW229273   4.402   5.937   1.042  0.2349 -0.0802  0.9558
40720SOL     OW29274  11.008   6.116   1.646  0.1237 -0.0029  0.3891
40720SOL    HW129275  10.934   6.146   1.594  0.3395  0.0483  0.1124
40720SOL    HW229276  11.084   6.124   1.588  0.6517  1.7475  1.2620
40721SOL     OW29277   5.222   9.734   7.199 -0.4384  0.1599 -0.1699
40721SOL    HW129278   5.286   9.769   7.260 -1.0787  1.5566 -0.2651
40721SOL    HW229279   5.138   9.741   7.244 -0.9652  1.5107 -1.2857
40722SOL     OW29280   9.891  12.140   6.081  0.5565 -0.3789  0.5379
40722SOL    HW129281   9.880  12.230   6.050  1.0600 -0.8453 -1.0737
40722SOL    HW229282   9.850  12.086   6.014  1.4655 -1.4340  0.8036
40723SOL     OW29283   8.990  10.550  10.220  0.2026  0.0046  0.3816
40723SOL    HW129284   8.968  10.459  10.202  0.9189  0.2428 -2.2246
40723SOL    HW229285   9.085  10.554  10.210  0.1285  1.1104 -0.0494
40724SOL     OW29286   4.273   4.861   0.644 -0.3227  0.4889  0.2844
40724SOL    HW129287   4.264   4.850   0.739  0.7977  0.2450  0.3764
40724SOL    HW229288   4.299   4.774   0.612  1.0081  0.9761 -0.0098
40725SOL     OW29289   7.358   4.104   0.776  0.2516  0.7096  0.1609
40725SOL    HW129290   7.380   4.178   0.719 -1.3906 -0.1733 -1.7821
40725SOL    HW229291   7.269   4.079   0.749 -0.0876 -0.6286  2.2441
40726SOL     OW29292   5.112   9.755  11.143  0.0946 -0.1620 -0.2243
40726SOL    HW129293   5.174   9.744  11.071  0.4907  0.1026  0.0734
40726SOL    HW229294   5.165   9.746  11.222  0.6280  4.1701  0.1292
40727SOL     OW29295   7.877   6.053   2.144 -0.1750  0.3037 -0.5704
40727SOL    HW129296   7.821   5.976   2.154  0.0039  0.3765  1.2821
40727SOL    HW229297   7.966   6.020   2.157 -0.1435  0.8989  0.9106
40728SOL     OW29298   4.276   5.749   7.354  0.4890 -0.0995 -0.1325
40728SOL    HW129299   4.250   5.814   7.419  0.4865  0.7869 -0.9865
40728SOL    HW229300   4.354   5.787   7.313  0.1435 -0.3594 -1.0463
40729SOL     OW29301   4.978  12.119   5.613 -0.1308  0.2528  0.0963
40729SOL    HW129302   5.040  12.047   5.601 -0.7036 -0.0716 -1.1087
40729SOL    HW229303   4.967  12.156   5.525 -2.4837 -0.4310  0.0180
40730SOL     OW29304  12.752   8.697   6.518  0.2285  0.5524  0.2924
40730SOL    HW129305  12.827   8.755   6.500 -0.2375  0.8615 -0.6688
40730SOL    HW229306  12.687   8.721   6.453 -0.0954 -0.8601  0.0764
40731SOL     OW29307   8.288   8.110   4.982 -0.0489 -0.4992 -0.0553
40731SOL    HW129308   8.383   8.112   4.969 -0.2401 -0.1996 -1.5231
40731SOL    HW229309   8.252   8.089   4.896 -1.3264 -0.6270  0.4856
40732SOL     OW29310  10.996   9.115   2.850  0.1609 -0.1843  0.4069
40732SOL    HW129311  11.063   9.047   2.858 -0.9584 -1.3050  0.5856
40732SOL    HW229312  10.920   9.069   2.814 -1.0719  0.6487  1.8394
40733SOL     OW29313   5.197   3.869   2.954  0.1469 -0.3016  0.1283
40733SOL    HW129314   5.152   3.785   2.942  0.6881 -0.6660  0.5969
40733SOL    HW229315   5.155   3.908   3.031 -1.2621  0.6499 -1.0843
40734SOL     OW29316   6.143   8.332   3.653  0.5759  0.7704 -0.4017
40734SOL    HW129317   6.090   8.256   3.678  1.2438  0.3991 -0.0624
40734SOL    HW229318   6.227   8.294   3.627  0.1596  1.2070 -2.5123
40735SOL     OW29319   8.178   6.120  11.634  0.0859  0.0191 -0.2185
40735SOL    HW129320   8.194   6.084  11.547  2.4912 -1.2821  0.6846
40735SOL    HW229321   8.141   6.048  11.684 -1.5393  0.8362 -0.1720
40736SOL     OW29322   5.100   2.907   3.155  0.5904 -0.7575 -0.1701
40736SOL    HW129323   5.009   2.890   3.131  0.1854 -1.6626  1.8013
40736SOL    HW229324   5.151   2.876   3.081 -0.7006  0.4841 -1.6583
40737SOL     OW29325   7.334   4.737   6.071  0.3973  0.1393 -0.6065
40737SOL    HW129326   7.240   4.719   6.060  0.3301  0.6950 -0.9955
40737SOL    HW229327   7.370   4.732   5.983  0.6144  0.5734 -0.5463
40738SOL     OW29328   2.047   7.631   2.925  0.0124 -0.5710  0.0151
40738SOL    HW129329   2.031   7.677   2.843 -0.7339 -0.6151  0.1314
40738SOL    HW229330   2.006   7.545   2.913  2.4227 -1.7248 -0.6644
40739SOL     OW29331   3.337   6.645  11.380 -0.1319  0.5317  0.2926
40739SOL    HW129332   3.388   6.574  11.342  1.5037  1.4412  0.6673
40739SOL    HW229333   3.276   6.602  11.440  0.0860 -0.6099 -0.2829
40740SOL     OW29334  12.851   9.178  12.885 -0.4206 -0.0652  0.0541
40740SOL    HW129335  12.900   9.192  12.966 -0.3207 -0.1070  0.0023
40740SOL    HW229336  12.792   9.105  12.904 -2.1063  1.4262  0.8301
40741SOL     OW29337   0.275   0.706   0.206 -0.2137 -0.2985  0.7825
40741SOL    HW129338   0.232   0.742   0.128  1.1561 -1.4341 -0.5740
40741SOL    HW229339   0.365   0.741   0.201  0.6613 -2.4816  0.3368
40742SOL     OW29340  10.051  10.145   1.595  0.0278  0.0762  0.4504
40742SOL    HW129341  10.076  10.176   1.508  1.1461 -0.5461  0.5351
40742SOL    HW229342   9.980  10.203   1.621  1.4951  2.0903  0.2530
40743SOL     OW29343   8.194  10.246  12.352 -0.2275 -0.3149 -0.2682
40743SOL    HW129344   8.228  10.184  12.288  0.5714  0.3240 -0.4903
40743SOL    HW229345   8.233  10.219  12.435  1.4526  0.8051 -0.6275
40744SOL     OW29346  12.493   8.376   6.155  0.5115  0.3413  0.5915
40744SOL    HW129347  12.434   8.363   6.229 -0.8012  2.5966  0.0135
40744SOL    HW229348  12.445   8.431   6.094  1.7471 -1.0123 -1.7587
40745SOL     OW29349   9.049   0.553  11.653 -0.0056 -0.4647  0.5073
40745SOL    HW129350   9.059   0.616  11.582  0.0910 -0.7053  0.3052
40745SOL    HW229351   9.138   0.523  11.672  0.0673  0.2046  1.2936
40746SOL     OW29352   8.082   0.397   9.067 -0.3465  0.3128  0.9813
40746SOL    HW129353   8.118   0.309   9.071  1.6950  0.9911 -0.7025
40746SOL    HW229354   8.097   0.434   9.154  2.0988  0.1710  0.6751
40747SOL     OW29355   3.963   8.527   9.298  0.5312 -0.6313 -0.5907
40747SOL    HW129356   3.963   8.507   9.392  1.5773 -0.3510 -0.5143
40747SOL    HW229357   3.952   8.442   9.256  3.1885 -1.2443 -0.2358
40748SOL     OW29358  11.163  10.097   4.642 -0.2223  0.5246 -1.0703
40748SOL    HW129359  11.068  10.103   4.650 -0.2766 -1.2128  0.0637
40748SOL    HW229360  11.189  10.033   4.708  1.7495  0.9470 -1.3671
40749SOL     OW29361  10.154   9.479   2.027  0.2314  0.1029  0.2314
40749SOL    HW129362  10.173   9.521   1.943 -0.2918  2.2632  1.0996
40749SOL    HW229363  10.158   9.551   2.090 -1.3263 -1.0773  1.7739
40750SOL     OW29364   3.571  12.160   0.205  0.3509  0.0303  0.4754
40750SOL    HW129365   3.501  12.182   0.266 -0.3631 -0.1791 -0.2595
40750SOL    HW229366   3.622  12.093   0.250  0.3754  0.5352  1.2150
40751SOL     OW29367   1.984  11.510   8.780  0.0046 -0.2225  0.0253
40751SOL    HW129368   2.066  11.555   8.799 -0.3578  0.0376  1.0634
40751SOL    HW229369   1.937  11.511   8.863  0.0048 -2.5722  0.1233
40752SOL     OW29370   4.617   3.794   9.033  0.1617 -0.1121  0.4986
40752SOL    HW129371   4.558   3.825   8.964 -0.6062 -2.3098  0.0869
40752SOL    HW229372   4.646   3.874   9.077 -0.9180  1.2197 -1.0709
40753SOL     OW29373  12.573  12.689  10.713 -0.0757 -0.0601 -0.2325
40753SOL    HW129374  12.518  12.611  10.718  1.6452 -1.2789  0.9336
40753SOL    HW229375  12.591  12.699  10.620 -0.8315 -0.6724 -0.4631
40754SOL     OW29376   7.515  12.056   4.266 -0.1624  0.2138 -0.6101
40754SOL    HW129377   7.423  12.061   4.240 -0.0642 -1.1198 -1.3364
40754SOL    HW229378   7.557  12.129   4.221 -1.1835  2.1110  1.3661
40755SOL     OW29379   3.609   3.349   2.727  0.3108  0.7265  0.3739
40755SOL    HW129380   3.527   3.387   2.695 -0.7626 -0.8479  1.1184
40755SOL    HW229381   3.600   3.349   2.823  0.7165 -0.4201  0.4312
40756SOL     OW29382   6.788   3.853   6.754 -0.6018  0.6176  0.0186
40756SOL    HW129383   6.820   3.775   6.708 -1.2734  0.6180 -0.4503
40756SOL    HW229384   6.862   3.880   6.809  0.5053  1.0734 -1.6167
40757SOL     OW29385   1.594   1.385   8.791  0.0239 -0.4831 -0.3309
40757SOL    HW129386   1.593   1.412   8.882 -1.1785  1.8624 -0.9440
40757SOL    HW229387   1.508   1.347   8.776 -0.1489  0.0388 -0.7026
40758SOL     OW29388  12.909   7.714   0.727 -0.4780  0.5540  0.2995
40758SOL    HW129389  12.909   7.665   0.645  3.5464  0.9173 -0.1005
40758SOL    HW229390  12.902   7.648   0.795 -0.9233 -0.0108 -0.2796
40759SOL     OW29391   8.612   1.248   0.612  0.1852 -0.4027  0.6622
40759SOL    HW129392   8.661   1.330   0.619 -0.4617 -0.0982  1.9333
40759SOL    HW229393   8.531   1.272   0.566 -0.3047 -0.1691  1.6221
40760SOL     OW29394   5.348   4.739  12.762  1.0044  0.5212  0.2297
40760SOL    HW129395   5.273   4.697  12.720  1.8485 -0.4872 -0.3382
40760SOL    HW229396   5.320   4.828  12.778  0.0851  0.4972 -1.0545
40761SOL     OW29397   3.734   2.742   1.485  0.0717  0.2108 -0.0331
40761SOL    HW129398   3.775   2.664   1.522  0.0466  0.4789  0.5740
40761SOL    HW229399   3.726   2.723   1.392  1.9137  0.2953 -0.2526
40762SOL     OW29400   4.799   0.362   4.506 -0.1848  0.2350  0.2438
40762SOL    HW129401   4.846   0.419   4.445  1.4175 -0.4866  0.7550
40762SOL    HW229402   4.821   0.396   4.592  2.1412 -2.0429  0.6531
40763SOL     OW29403  12.768   0.989  11.892 -0.2074 -0.5103  0.0413
40763SOL    HW129404  12.698   1.009  11.830  0.0015  1.2983  0.3285
40763SOL    HW229405  12.812   0.912  11.856 -0.9050 -0.2800 -1.3444
40764SOL     OW29406   8.712   3.622   5.569 -0.5804 -0.4428 -0.2757
40764SOL    HW129407   8.783   3.601   5.508  0.5697  0.3193  0.7663
40764SOL    HW229408   8.755   3.667   5.641 -1.8077 -1.9063  1.4426
40765SOL     OW29409   9.026   3.332   2.911  0.2462  0.0985  0.2694
40765SOL    HW129410   8.947   3.386   2.916  1.4585  1.8704  1.5521
40765SOL    HW229411   9.026   3.282   2.993 -0.3533 -1.1480 -0.4667
40766SOL     OW29412   7.427  11.313   9.711  0.3288 -0.1547  0.0959
40766SOL    HW129413   7.505  11.366   9.694  0.4006  0.6287  2.4242
40766SOL    HW229414   7.374  11.322   9.632  0.6476  2.8786  0.0969
40767SOL     OW29415   3.129  10.656   8.384  0.8050 -0.5088  0.2041
40767SOL    HW129416   3.066  10.716   8.345 -2.9396 -2.4089  2.7415
40767SOL    HW229417   3.117  10.574   8.336  1.3736 -0.9024  0.7172
40768SOL     OW29418  12.169   8.846   3.265 -0.3978  0.0115 -0.5451
40768SOL    HW129419  12.142   8.821   3.353  1.0689 -1.6691 -0.5321
40768SOL    HW229420  12.120   8.926   3.247 -1.3936 -0.1011  1.4389
40769SOL     OW29421   9.032   4.904   1.487  0.1129  0.2701  0.5395
40769SOL    HW129422   9.091   4.933   1.557  1.9234  0.1721 -0.8736
40769SOL    HW229423   9.018   4.811   1.505 -0.2604  0.4689  1.3230
40770SOL     OW29424   9.275   3.244  10.567 -0.2166 -0.5029  0.6298
40770SOL    HW129425   9.313   3.194  10.639 -0.3108  0.1694  1.1580
40770SOL    HW229426   9.281   3.186  10.491  1.6877 -0.4882  0.7391
40771SOL     OW29427   7.292   9.686   0.719 -0.2001  0.4466  0.1489
40771SOL    HW129428   7.282   9.692   0.814 -1.2773  1.9947 -0.0410
40771SOL    HW229429   7.339   9.765   0.694  0.9432 -0.4082 -0.5322
40772SOL     OW29430  10.545   7.499   5.389 -0.0830  0.1266  0.2462
40772SOL    HW129431  10.573   7.424   5.441 -1.9896 -0.8388 -0.0565
40772SOL    HW229432  10.450   7.502   5.400 -0.2427  1.4260 -1.1745
40773SOL     OW29433   3.112   6.372   6.217 -0.0125 -0.6913  0.0298
40773SOL    HW129434   3.064   6.359   6.136 -0.8956 -1.4029  0.6383
40773SOL    HW229435   3.187   6.426   6.193  0.0447 -1.3581 -1.3525
40774SOL     OW29436  10.071   4.641   0.967 -0.5464  0.3396 -0.0882
40774SOL    HW129437  10.067   4.672   1.057  3.1782 -2.3925  1.2973
40774SOL    HW229438  10.148   4.685   0.930 -0.9709  0.0713 -1.3481
40775SOL     OW29439   7.011   1.841  10.708 -0.1368 -0.3405  0.2535
40775SOL    HW129440   7.035   1.906  10.775 -4.2245  1.5617  0.1691
40775SOL    HW229441   7.010   1.758  10.755 -0.4512  0.5694  1.9390
40776SOL     OW29442   3.647   8.372   7.040 -0.0676  0.4669  0.2461
40776SOL    HW129443   3.560   8.333   7.037 -1.3352  3.1470  0.1089
40776SOL    HW229444   3.687   8.334   7.118 -1.9683  0.3765  1.2308
40777SOL     OW29445   6.850   4.536   7.821  0.1329 -0.3291 -0.6523
40777SOL    HW129446   6.845   4.468   7.753  0.5589  0.0818 -1.1082
40777SOL    HW229447   6.807   4.498   7.897  0.4377 -1.1376 -0.8795
40778SOL     OW29448   5.716   3.091   8.248 -0.3851 -0.0235  0.2021
40778SOL    HW129449   5.729   3.018   8.309  0.8227 -0.3690 -0.4276
40778SOL    HW229450   5.635   3.132   8.277 -2.8493 -3.3953 -1.1886
40779SOL     OW29451   6.000  10.744   7.902  0.2496 -0.5218 -0.1888
40779SOL    HW129452   6.040  10.659   7.922 -1.8356 -1.0482  2.2526
40779SOL    HW229453   6.049  10.806   7.956 -1.0272 -0.9265  1.5349
40780SOL     OW29454   0.781  12.674   3.769 -0.2858 -0.2578  0.3407
40780SOL    HW129455   0.773  12.769   3.768 -1.4575 -0.2295  3.0601
40780SOL    HW229456   0.690  12.643   3.769  0.0324 -1.2684  1.4275
40781SOL     OW29457  12.035   2.538   9.335 -0.0618  0.4003 -0.5463
40781SOL    HW129458  11.979   2.580   9.400 -0.3385 -0.9061  0.0801
40781SOL    HW229459  12.115   2.591   9.335 -0.0336  0.3953  0.8983
40782SOL     OW29460   0.381   1.647   1.252 -0.0270  0.0225  0.5463
40782SOL    HW129461   0.425   1.727   1.226  1.5252 -1.4622 -1.7185
40782SOL    HW229462   0.297   1.649   1.205  0.6767 -0.3558 -0.7723
40783SOL     OW29463   9.836   9.646  12.433 -0.2931  0.2328  0.2574
40783SOL    HW129464   9.844   9.570  12.375  1.2175 -2.0790  3.2155
40783SOL    HW229465   9.896   9.711  12.395  1.5015 -1.5973 -0.2327
40784SOL     OW29466  11.926  12.129   4.136 -0.2110 -0.4347  0.4402
40784SOL    HW129467  11.967  12.088   4.061  0.3989 -0.5452  0.8225
40784SOL    HW229468  11.977  12.098   4.211 -0.2558  0.3542  0.8118
40785SOL     OW29469   0.457   6.467  10.919  0.3088 -0.0562 -0.8819
40785SOL    HW129470   0.543   6.429  10.901  0.7087  0.6504 -0.4882
40785SOL    HW229471   0.399   6.427  10.854  1.4511  1.5009 -2.9987
40786SOL     OW29472   1.840   0.675   7.761 -0.1572 -0.8394  0.2806
40786SOL    HW129473   1.767   0.736   7.759 -0.4910 -1.2344 -0.9633
40786SOL    HW229474   1.917   0.730   7.772 -0.4430 -0.1616 -0.9023
40787SOL     OW29475   3.884   0.549   0.910  0.0085 -0.0863 -0.5087
40787SOL    HW129476   3.797   0.582   0.887  1.0197  3.5222  0.1856
40787SOL    HW229477   3.882   0.542   1.006  0.3201 -0.4484 -0.5289
40788SOL     OW29478  11.694   9.102  11.955 -0.1091 -0.8903  0.3909
40788SOL    HW129479  11.678   9.123  12.047  2.2168  0.0094  0.6783
40788SOL    HW229480  11.715   9.008  11.955 -0.1054 -0.8903  0.7743
40789SOL     OW29481   6.107  11.867  11.506 -0.4176  0.0847 -0.6448
40789SOL    HW129482   6.025  11.913  11.488 -0.7734  0.2530  1.2388
40789SOL    HW229483   6.083  11.774  11.500 -0.5767  0.1300 -0.7387
40790SOL     OW29484   4.491   0.373   6.548 -0.0633 -0.2031 -0.6014
40790SOL    HW129485   4.401   0.367   6.580 -0.2585 -0.4679 -1.1886
40790SOL    HW229486   4.486   0.343   6.457  0.6083 -0.1647 -0.6535
40791SOL     OW29487   5.825  10.349   6.701 -0.3364 -0.2504  0.0533
40791SOL    HW129488   5.807  10.380   6.790 -0.0419  1.5630 -0.4919
40791SOL    HW229489   5.899  10.402   6.671 -0.0331 -1.2667 -1.0589
40792SOL     OW29490   8.960  12.557   2.366  0.0567 -0.2999 -0.4205
40792SOL    HW129491   8.950  12.598   2.281  0.2156  0.0016 -0.2947
40792SOL    HW229492   8.951  12.628   2.429 -1.6013 -0.7538 -0.1067
40793SOL     OW29493  11.034   7.570  11.186 -0.1948  0.2405 -0.0433
40793SOL    HW129494  11.103   7.544  11.246  1.5710 -1.4566 -2.5942
40793SOL    HW229495  10.968   7.501  11.194  0.0722 -0.0204 -0.0584
40794SOL     OW29496   1.970  12.220  12.920  0.3553 -0.0792  0.4160
40794SOL    HW129497   2.010  12.281  12.981 -0.6746  1.7923 -0.6952
40794SOL    HW229498   2.026  12.224  12.842 -0.0526 -0.1158  0.1196
40795SOL     OW29499  10.713   3.871   1.119 -0.5161  0.0938  0.7174
40795SOL    HW129500  10.684   3.962   1.116  0.3600  0.3684 -1.1888
40795SOL    HW229501  10.799   3.875   1.160 -0.2254  0.2296  0.1143
40796SOL     OW29502   7.937   2.602   2.240  0.2611  0.3751 -0.2178
40796SOL    HW129503   8.002   2.629   2.304  0.0550  0.5501 -0.0812
40796SOL    HW229504   7.958   2.651   2.161  0.5387  0.1299 -0.2974
40797SOL     OW29505   7.165  11.196   5.597 -0.4334 -0.2250  0.1260
40797SOL    HW129506   7.125  11.251   5.528  0.7302  1.6616  0.8711
40797SOL    HW229507   7.161  11.250   5.676  1.0184 -1.1125  0.8493
40798SOL     OW29508  12.659   6.572   7.439  0.1676 -0.2812  0.2341
40798SOL    HW129509  12.600   6.498   7.428 -0.5233  0.1918  0.6392
40798SOL    HW229510  12.615   6.645   7.395  1.1779 -0.2616 -0.7931
40799SOL     OW29511  11.119   8.878  10.210  0.2712 -0.1524  0.1232
40799SOL    HW129512  11.081   8.900  10.295 -0.0527 -0.9770  0.1986
40799SOL    HW229513  11.195   8.936  10.202 -0.2576  0.6139  0.5348
40800SOL     OW29514   6.680   5.880   1.243 -0.1286  0.0982  0.6986
40800SOL    HW129515   6.738   5.848   1.174  0.5164  0.0662  1.2496
40800SOL    HW229516   6.622   5.942   1.199  1.7990  1.8808  0.5568
40801SOL     OW29517   0.191   7.197   0.851 -0.1499 -0.7027 -0.1295
40801SOL    HW129518   0.216   7.249   0.928  0.8782  0.5248 -1.2336
40801SOL    HW229519   0.227   7.110   0.868  3.2151  0.4377 -0.6784
40802SOL     OW29520   1.606   4.826   4.062  0.1296 -0.5273  0.2425
40802SOL    HW129521   1.583   4.742   4.101 -0.4876 -0.8139 -0.6958
40802SOL    HW229522   1.530   4.849   4.008  0.7207  0.1199 -0.3327
40803SOL     OW29523  11.978  12.428  10.347  0.6244 -0.3759  0.0106
40803SOL    HW129524  11.917  12.361  10.317 -0.8647  0.7512  0.3718
40803SOL    HW229525  11.994  12.482  10.269  0.0706  0.1088  0.2233
40804SOL     OW29526  10.555   7.441   4.074  0.3027 -0.7569 -0.4026
40804SOL    HW129527  10.556   7.536   4.081 -3.5219 -0.6203  0.6390
40804SOL    HW229528  10.579   7.424   3.982 -0.0554  1.3033 -0.9353
40805SOL     OW29529   2.183  11.529  10.449 -0.2715 -0.5396 -0.0207
40805SOL    HW129530   2.214  11.613  10.484  0.1100 -0.4369 -0.5975
40805SOL    HW229531   2.135  11.490  10.522 -0.1816  0.0359  0.3592
40806SOL     OW29532   7.503   5.464  11.358 -0.1006 -0.9812  0.1671
40806SOL    HW129533   7.556   5.388  11.337 -1.4043 -1.6930 -0.6952
40806SOL    HW229534   7.431   5.430  11.412 -0.6618 -0.3701 -0.1772
40807SOL     OW29535   6.517   0.239   7.724 -0.4651 -0.2483 -0.1564
40807SOL    HW129536   6.424   0.229   7.703 -1.0546 -2.5943  2.8170
40807SOL    HW229537   6.518   0.270   7.814  1.6117 -1.1897  0.2083
40808SOL     OW29538   6.324   8.894  10.673 -0.3663 -0.4598 -0.4121
40808SOL    HW129539   6.290   8.981  10.694 -1.3546 -0.8177 -0.4772
40808SOL    HW229540   6.378   8.870  10.748  0.0391  0.2610 -0.4613
40809SOL     OW29541   3.619  11.813  12.509  0.1566 -0.0876  0.0018
40809SOL    HW129542   3.535  11.851  12.532 -0.3443  0.0185 -1.8080
40809SOL    HW229543   3.661  11.880  12.455  0.9599 -0.5499  0.0387
40810SOL     OW29544   7.088   8.822   7.748 -0.1240 -0.3467  0.2322
40810SOL    HW129545   7.032   8.893   7.779 -1.6134 -1.7450  0.8653
40810SOL    HW229546   7.176   8.861   7.745 -0.6191  1.0614  2.0900
40811SOL     OW29547  10.008   1.380   6.817 -0.2721 -0.3182  0.7480
40811SOL    HW129548   9.989   1.449   6.880 -2.4536 -0.7044  0.6072
40811SOL    HW229549  10.041   1.307   6.871  1.0558  0.4392  1.0084
40812SOL     OW29550   4.364   2.077   3.408 -0.2213  0.3076 -0.4656
40812SOL    HW129551   4.401   2.156   3.449 -1.1245  1.0662 -1.0733
40812SOL    HW229552   4.365   2.097   3.314 -1.5847  0.1003 -0.5396
40813SOL     OW29553   1.687  11.190   1.716  0.4823  0.2014  0.0839
40813SOL    HW129554   1.643  11.273   1.696 -1.3404 -0.7445  0.0009
40813SOL    HW229555   1.762  11.188   1.657 -0.7610  0.7317 -1.5912
40814SOL     OW29556  10.507   8.690   6.025  0.1682 -0.9629  0.6889
40814SOL    HW129557  10.482   8.671   6.116  0.9080  2.1362  1.6600
40814SOL    HW229558  10.426   8.678   5.975 -0.8532 -0.5050  2.1573
40815SOL     OW29559   1.050  10.989   2.632 -0.2388  0.3406 -0.3800
40815SOL    HW129560   0.974  10.987   2.690  0.0661  0.3871  0.0285
40815SOL    HW229561   1.123  10.960   2.687  0.3222  1.7503 -0.3332
40816SOL     OW29562   9.161  10.605   7.285 -0.2058 -0.5735  0.0002
40816SOL    HW129563   9.208  10.679   7.247  0.5644 -1.6410 -1.1929
40816SOL    HW229564   9.076  10.606   7.243 -0.3249 -0.1842  0.2398
40817SOL     OW29565  10.829  12.801  11.649 -0.5824 -0.6888  0.0032
40817SOL    HW129566  10.793  12.862  11.713 -0.1055 -1.4940  1.0664
40817SOL    HW229567  10.757  12.785  11.587 -1.1204 -0.0740  0.4593
40818SOL     OW29568   3.707   0.681   0.345  0.7257 -0.5203  0.2291
40818SOL    HW129569   3.760   0.707   0.269  0.9311 -1.0395  0.1929
40818SOL    HW229570   3.652   0.611   0.313 -0.0099  0.0311  0.2656
40819SOL     OW29571   4.531   9.567  12.656 -0.1708  0.2865  0.3428
40819SOL    HW129572   4.569   9.581  12.569 -0.2118  0.1978  0.3104
40819SOL    HW229573   4.561   9.641  12.708  0.0733  0.2031  0.3260
40820SOL     OW29574   3.718  10.958   5.251  0.2004  0.5519 -0.3186
40820SOL    HW129575   3.741  11.047   5.278 -0.9592  0.7308  0.1046
40820SOL    HW229576   3.774  10.902   5.304 -1.3395  0.9328  1.7990
40821SOL     OW29577   4.445   6.357   9.553 -0.7988 -0.7207 -0.3675
40821SOL    HW129578   4.356   6.393   9.544 -0.1949  0.8232 -0.4733
40821SOL    HW229579   4.466   6.324   9.466 -0.2509  1.4773 -1.1423
40822SOL     OW29580   4.319   1.543   4.605  0.1840 -0.3673  0.6712
40822SOL    HW129581   4.378   1.618   4.595  1.2854 -1.2231  0.4967
40822SOL    HW229582   4.233   1.582   4.620  0.3205  0.9447 -1.5327
40823SOL     OW29583   1.013   6.878  12.171 -0.5463 -0.8195  0.6302
40823SOL    HW129584   0.926   6.856  12.139 -0.0646 -1.2016 -0.4839
40823SOL    HW229585   1.073   6.835  12.109  0.4315 -0.8604  1.5663
40824SOL     OW29586   8.502  10.294  10.092 -0.9215 -0.2142 -0.0345
40824SOL    HW129587   8.559  10.322  10.164 -1.6745 -1.3475  1.0333
40824SOL    HW229588   8.554  10.231  10.043 -1.3247 -1.4918  1.1277
40825SOL     OW29589   1.251   1.122   8.501  0.2127 -0.2912 -0.3182
40825SOL    HW129590   1.210   1.156   8.422  1.2424 -1.4880 -1.4241
40825SOL    HW229591   1.315   1.188   8.526 -0.6401  0.4395 -0.0263
40826SOL     OW29592   6.775   3.597   2.168 -0.7553 -0.1525  0.3294
40826SOL    HW129593   6.786   3.512   2.210  1.3343  0.4684  1.1716
40826SOL    HW229594   6.807   3.660   2.233  0.6261  1.0046 -1.3750
40827SOL     OW29595  11.621  10.091   1.800 -0.1680 -0.2050 -0.0524
40827SOL    HW129596  11.652  10.078   1.889  0.3587 -2.5339 -0.5230
40827SOL    HW229597  11.557  10.021   1.786  1.3962 -1.3027 -2.2062
40828SOL     OW29598   6.272   4.626   4.664 -0.0755  0.2012  0.2283
40828SOL    HW129599   6.289   4.673   4.745 -1.3729  0.6702  0.2609
40828SOL    HW229600   6.182   4.593   4.673  0.8387 -2.4978  0.2754
40829SOL     OW29601   8.865  11.849   5.019  0.2300  0.1031  0.0631
40829SOL    HW129602   8.903  11.864   4.933  2.1255  1.2552  1.0358
40829SOL    HW229603   8.808  11.925   5.034  1.1096  0.7120  0.4215
40830SOL     OW29604   5.624   4.756  10.625  0.3048 -0.8590  0.9842
40830SOL    HW129605   5.606   4.746  10.532  0.8778  0.2466  0.7282
40830SOL    HW229606   5.719   4.763  10.630  0.1897  1.0185  1.4016
40831SOL     OW29607   0.956  10.046  10.759 -0.0888  0.4966  0.8691
40831SOL    HW129608   0.944  10.137  10.785 -2.5280  0.2222  0.9510
40831SOL    HW229609   0.908   9.996  10.825  1.1841 -0.8802  0.8070
40832SOL     OW29610  10.973   8.301  10.108 -0.2173  0.1009 -0.0059
40832SOL    HW129611  11.005   8.351  10.033  1.9285  0.2720  0.9611
40832SOL    HW229612  10.992   8.210  10.086  1.0586  0.2069  0.5918
40833SOL     OW29613  11.487   5.617   6.344 -0.1126 -0.1822  0.0242
40833SOL    HW129614  11.417   5.578   6.291  0.2220  0.2734 -0.7839
40833SOL    HW229615  11.549   5.649   6.279  1.2628 -1.3148  0.7369
40834SOL     OW29616   0.133  12.967   7.562  0.2032 -0.8623 -0.1925
40834SOL    HW129617   0.046  12.927   7.569 -1.0510  1.2178 -2.2909
40834SOL    HW229618   0.150  13.002   7.649 -1.1958 -1.0563  0.1942
40835SOL     OW29619   3.977   8.550   3.550 -0.9596  0.1131 -0.5544
40835SOL    HW129620   4.061   8.527   3.510 -0.9631 -1.9475  0.4868
40835SOL    HW229621   3.962   8.640   3.524  0.3947 -0.2346 -2.8073
40836SOL     OW29622   1.125   3.326   9.645  0.0209 -0.1915  0.3546
40836SOL    HW129623   1.149   3.400   9.588 -0.7177  0.0252  0.3254
40836SOL    HW229624   1.107   3.254   9.584 -1.0667  0.1257  0.2949
40837SOL     OW29625   6.626   9.497  11.817  0.1912 -0.4125 -0.0882
40837SOL    HW129626   6.599   9.434  11.750  0.4965 -1.0169  0.3498
40837SOL    HW229627   6.720   9.484  11.826  0.0885 -0.6117  0.7322
40838SOL     OW29628   6.622   6.672   6.490 -0.5529  0.5095 -0.0753
40838SOL    HW129629   6.695   6.616   6.516 -0.5307  0.1142 -0.9574
40838SOL    HW229630   6.644   6.759   6.525  0.7737  0.5982 -1.0670
40839SOL     OW29631  12.207   2.629   2.528  0.0891 -0.1128 -0.2755
40839SOL    HW129632  12.282   2.590   2.483 -0.1882 -2.2195  0.9826
40839SOL    HW229633  12.246   2.692   2.589  0.7494 -0.3631 -0.4239
40840SOL     OW29634  12.243  10.592   0.970  0.5832 -0.0522 -0.0590
40840SOL    HW129635  12.256  10.636   0.886  1.8326 -0.6119 -0.1765
40840SOL    HW229636  12.219  10.662   1.030  2.3474  0.7968 -0.2825
40841SOL     OW29637   7.323  10.529   6.065 -0.0413 -0.8632  0.5490
40841SOL    HW129638   7.262  10.576   6.121  0.1235  0.4040 -0.2889
40841SOL    HW229639   7.408  10.569   6.084 -0.1391  0.3405 -1.3306
40842SOL     OW29640  12.347   5.305   1.531  0.3366  0.5435 -0.0596
40842SOL    HW129641  12.291   5.289   1.606 -0.7818 -0.4262 -1.0586
40842SOL    HW229642  12.421   5.355   1.566 -0.4043  0.5543  1.5636
40843SOL     OW29643   8.792   8.117   4.321  0.5784  0.2088 -0.0755
40843SOL    HW129644   8.779   8.101   4.228 -0.1024 -1.8620  0.3353
40843SOL    HW229645   8.883   8.090   4.338 -0.1282 -2.1142  0.3359
40844SOL     OW29646   6.917  10.799   9.099  0.1372 -0.1143 -0.2088
40844SOL    HW129647   6.960  10.721   9.132 -0.8277 -1.2754 -1.5532
40844SOL    HW229648   6.885  10.844   9.177  1.0167 -0.8581  0.6082
40845SOL     OW29649   5.241   6.576   7.019 -0.5309 -0.2773  0.1603
40845SOL    HW129650   5.169   6.635   7.041 -1.9080 -0.6098 -2.8720
40845SOL    HW229651   5.198   6.494   6.994  0.9855 -0.8916 -0.5703
40846SOL     OW29652   3.265   0.671  12.441 -0.2936  0.1417  0.3475
40846SOL    HW129653   3.341   0.617  12.466  0.1569  0.2499 -0.7325
40846SOL    HW229654   3.281   0.755  12.484  1.9339  1.2914 -2.3752
40847SOL     OW29655   8.279   3.864   7.627  0.2092  0.3924 -0.0949
40847SOL    HW129656   8.372   3.862   7.649  0.1993 -0.9605 -0.0984
40847SOL    HW229657   8.263   3.955   7.601  1.6783  0.5145 -0.7198
40848SOL     OW29658  12.699   6.959   1.162  0.2426 -0.5762 -0.0563
40848SOL    HW129659  12.724   6.944   1.071 -1.2340 -2.7277 -0.1950
40848SOL    HW229660  12.780   6.984   1.206  1.1085 -0.1265 -1.8112
40849SOL     OW29661   9.760  11.596  10.696 -0.2145 -0.4589  0.0898
40849SOL    HW129662   9.820  11.671  10.689  1.4321 -1.8155 -1.3310
40849SOL    HW229663   9.677  11.629  10.662  0.3553  0.8546 -0.0957
40850SOL     OW29664  11.481   2.102   6.513 -0.0401 -0.4865  0.1949
40850SOL    HW129665  11.509   2.011   6.519  1.5176  0.0850  4.2369
40850SOL    HW229666  11.562   2.152   6.502 -0.5043  0.5923  1.4503
40851SOL     OW29667   9.650   8.810   2.079 -0.4871 -0.0204  0.5449
40851SOL    HW129668   9.585   8.846   2.140  1.7892  1.2615  2.4002
40851SOL    HW229669   9.734   8.827   2.121  1.0254 -4.3170 -0.2613
40852SOL     OW29670  10.336   9.975   7.532 -0.7361  0.7104 -0.1018
40852SOL    HW129671  10.311   9.916   7.603  0.4760 -0.3431 -0.5168
40852SOL    HW229672  10.431   9.983   7.539 -0.7246  1.5111 -0.9233
40853SOL     OW29673   4.844   3.886   0.078  0.3827 -0.0476 -0.7738
40853SOL    HW129674   4.865   3.970   0.119  1.3651  0.4132 -2.1392
40853SOL    HW229675   4.890   3.821   0.131 -0.0409  0.3084  0.0438
40854SOL     OW29676   2.520   6.290   0.288 -0.0490 -0.2130 -0.0691
40854SOL    HW129677   2.514   6.386   0.285 -0.8140 -0.1521  1.7420
40854SOL    HW229678   2.584   6.268   0.221 -1.0227  1.4353 -1.6270
40855SOL     OW29679   8.625   8.759   6.256  0.2876 -0.2293 -0.4373
40855SOL    HW129680   8.653   8.849   6.275  1.2900 -0.3393 -1.2867
40855SOL    HW229681   8.664   8.740   6.170 -0.8015 -1.1020 -0.7552
40856SOL     OW29682   7.766  11.537   1.059 -0.1399  0.1675 -0.2399
40856SOL    HW129683   7.683  11.506   1.023  0.1814  1.2300 -2.0060
40856SOL    HW229684   7.832  11.510   0.994  1.1487 -1.8835  1.7661
40857SOL     OW29685   2.042   2.358   4.817  0.0793 -0.4376 -0.5237
40857SOL    HW129686   2.072   2.286   4.762  1.6446 -0.0181 -0.2524
40857SOL    HW229687   2.036   2.320   4.905 -0.1163 -0.4970 -0.5616
40858SOL     OW29688  10.069   1.930   6.429  0.6233 -0.1725  0.3880
40858SOL    HW129689  10.139   1.983   6.391  0.8315 -1.0328 -0.4560
40858SOL    HW229690  10.099   1.913   6.519  1.0316  0.2778  0.3428
40859SOL     OW29691   2.271  11.667   4.911 -0.2624  0.8506  0.4186
40859SOL    HW129692   2.332  11.676   4.839 -1.3229  0.7817 -0.5120
40859SOL    HW229693   2.251  11.574   4.915  0.9845  0.5992  1.8474
40860SOL     OW29694   2.247   7.755  10.696 -0.1117 -0.4069  0.1610
40860SOL    HW129695   2.194   7.706  10.633 -1.1426 -1.1705  1.5970
40860SOL    HW229696   2.338   7.735  10.671 -0.4183  0.7417 -2.1776
40861SOL     OW29697   7.338   3.530   3.494 -0.6723  0.3040 -0.3539
40861SOL    HW129698   7.294   3.525   3.579 -0.8444  0.4384 -0.4340
40861SOL    HW229699   7.268   3.515   3.430 -0.2271 -1.8651 -0.4317
40862SOL     OW29700   6.721   3.741   5.809 -0.1832  0.1536 -0.4715
40862SOL    HW129701   6.813   3.737   5.838 -0.3239 -0.2208 -0.0617
40862SOL    HW229702   6.677   3.789   5.878 -0.4009 -0.1763 -0.3761
40863SOL     OW29703   1.144   8.985   2.706 -0.0136 -0.1061  0.1774
40863SOL    HW129704   1.147   8.915   2.772 -1.8222 -0.1598  0.2536
40863SOL    HW229705   1.076   9.044   2.737 -0.5219  0.1561 -1.3526
40864SOL     OW29706   9.001   5.151   4.404  0.0318  1.0934 -0.3948
40864SOL    HW129707   9.062   5.137   4.332 -1.3074  2.1057 -1.7895
40864SOL    HW229708   8.975   5.063   4.432  0.9957  0.6860 -0.7633
40865SOL     OW29709  10.767   2.547   8.391 -0.5249 -0.0758  0.0416
40865SOL    HW129710  10.761   2.591   8.476  2.2606  1.4047 -0.4245
40865SOL    HW229711  10.795   2.615   8.330  0.6932 -1.7560 -1.3940
40866SOL     OW29712   8.314   7.382  10.265 -0.4435  0.5288  0.5608
40866SOL    HW129713   8.404   7.352  10.279 -0.4015  1.0765  1.5967
40866SOL    HW229714   8.260   7.304  10.281 -0.2740  0.7042  2.1907
40867SOL     OW29715   5.480   8.699   3.076  0.1250  0.7588 -0.2509
40867SOL    HW129716   5.409   8.753   3.042 -0.3607  0.2840  0.0010
40867SOL    HW229717   5.442   8.653   3.151  1.1778  1.8523  1.0246
40868SOL     OW29718   9.185  10.265   5.006 -0.2026 -0.5823 -0.2572
40868SOL    HW129719   9.219  10.280   5.095  2.2566 -1.1350 -1.0075
40868SOL    HW229720   9.144  10.347   4.981  2.3543  0.8932  0.0845
40869SOL     OW29721   3.647   1.984   2.693  0.1331  0.5945  0.5836
40869SOL    HW129722   3.704   1.906   2.691  0.8929  1.1432 -0.3819
40869SOL    HW229723   3.574   1.959   2.749  0.4114 -0.7929  0.3774
40870SOL     OW29724  12.861   2.612   0.785  0.0829 -0.3405  0.7291
40870SOL    HW129725  12.847   2.558   0.862  0.2630 -1.9198 -0.2972
40870SOL    HW229726  12.793   2.584   0.723 -1.7362  2.7105  1.1692
40871SOL     OW29727   6.197   1.912   4.610  0.5239 -0.0177  0.5437
40871SOL    HW129728   6.124   1.850   4.613 -2.6120  3.3864  1.6754
40871SOL    HW229729   6.214   1.934   4.701  2.6443 -0.2021  0.2619
40872SOL     OW29730  11.143   5.166   8.461 -0.2592 -0.6300  0.0077
40872SOL    HW129731  11.050   5.158   8.484 -0.5119 -0.9381 -1.0968
40872SOL    HW229732  11.185   5.189   8.544 -1.2995 -0.6039  0.5522
40873SOL     OW29733   5.559   6.298   2.127 -0.2127  0.2022  0.1420
40873SOL    HW129734   5.476   6.328   2.090 -0.5234  1.1662  1.5377
40873SOL    HW229735   5.536   6.260   2.212  0.8613  1.4445  1.0321
40874SOL     OW29736   7.460  12.141   3.293  0.4033  0.0892 -0.0445
40874SOL    HW129737   7.432  12.230   3.315 -0.4164 -0.5080  1.5026
40874SOL    HW229738   7.522  12.118   3.363  0.0534 -0.7973 -0.0133
40875SOL     OW29739  12.635   0.087   0.272  0.0580 -0.0284 -0.1320
40875SOL    HW129740  12.698   0.054   0.336 -0.6414 -0.9793  0.0803
40875SOL    HW229741  12.555   0.037   0.289 -0.6458  0.9024 -0.6422
40876SOL     OW29742  12.344   0.570   6.130  0.0619  0.1191  0.1189
40876SOL    HW129743  12.254   0.602   6.120 -0.3319 -0.8008  0.5282
40876SOL    HW229744  12.393   0.612   6.060 -1.1545 -1.0200 -1.4918
40877SOL     OW29745   7.236  10.696   0.514  0.1181  0.3678 -0.9731
40877SOL    HW129746   7.185  10.639   0.455 -1.2182 -0.6261  1.0302
40877SOL    HW229747   7.175  10.765   0.539 -0.5879 -1.1692  1.9382
40878SOL     OW29748   0.863  12.375  12.147  0.6598  0.5103  0.2369
40878SOL    HW129749   0.768  12.360  12.146  0.6278  0.5288 -1.7534
40878SOL    HW229750   0.874  12.457  12.196 -0.1844 -0.2973  1.8326
40879SOL     OW29751  12.932   3.725   5.208 -0.4043  0.0967  0.2258
40879SOL    HW129752  12.884   3.804   5.234 -0.6114 -0.1236  0.5242
40879SOL    HW229753  13.014   3.728   5.258 -0.6453 -0.1447  0.6418
40880SOL     OW29754   8.957   2.233   7.712  0.2482 -0.1282  0.2476
40880SOL    HW129755   8.880   2.277   7.748 -0.5919 -1.8822  0.6762
40880SOL    HW229756   9.000   2.195   7.789  0.4881 -0.7654 -0.1985
40881SOL     OW29757   6.901   8.550   9.958  0.0775  0.3038  0.5190
40881SOL    HW129758   6.862   8.632   9.990 -2.9894 -0.6349 -0.4562
40881SOL    HW229759   6.908   8.562   9.863  1.8333  0.2247  0.5956
40882SOL     OW29760   5.498   4.420  12.000 -0.0424 -0.1789 -0.0587
40882SOL    HW129761   5.423   4.367  12.025 -0.0452 -0.2100 -0.1344
40882SOL    HW229762   5.462   4.489  11.945  0.0687 -0.5401 -0.5882
40883SOL     OW29763   3.295   0.305   5.663 -0.1765  0.6068  0.4158
40883SOL    HW129764   3.278   0.386   5.710  0.8269  0.9696  0.1865
40883SOL    HW229765   3.218   0.250   5.680 -0.1182  0.9510  1.9960
40884SOL     OW29766   9.042  12.934  12.066 -0.6212 -0.0977 -0.0741
40884SOL    HW129767   9.073  12.846  12.088 -1.2576 -0.2510  0.2384
40884SOL    HW229768   9.042  12.936  11.970  1.7880  0.4411 -0.1396
40885SOL     OW29769   0.426   2.975   1.359  0.0543 -0.1208 -0.5117
40885SOL    HW129770   0.343   2.982   1.311  0.5352  0.6852 -1.2747
40885SOL    HW229771   0.403   2.936   1.443 -0.9432 -0.8411 -1.0990
40886SOL     OW29772  10.544  12.898  11.324  0.5119  0.5506  0.3265
40886SOL    HW129773  10.456  12.881  11.291  0.3626  1.1073  0.4317
40886SOL    HW229774  10.565  12.820  11.376  1.0864 -0.7220 -1.6861
40887SOL     OW29775  11.375   8.601   2.492 -0.2857  0.2466  0.6458
40887SOL    HW129776  11.291   8.642   2.514 -1.0867 -1.1208  0.2455
40887SOL    HW229777  11.433   8.626   2.564 -0.9840  1.3234  0.8629
40888SOL     OW29778  11.963   1.674   9.739  0.0586  0.1296  0.8974
40888SOL    HW129779  11.875   1.655   9.707  0.6590 -0.1475 -0.6816
40888SOL    HW229780  11.999   1.735   9.675  1.5300 -0.9235  0.6686
40889SOL     OW29781   9.315   6.600   0.258 -0.0653 -0.0031 -0.2216
40889SOL    HW129782   9.245   6.535   0.258 -0.6710  0.6405 -0.8335
40889SOL    HW229783   9.281   6.672   0.312 -1.1647  1.6317 -2.9167
40890SOL     OW29784   3.832   7.552   0.756  0.6635  0.3216  0.1384
40890SOL    HW129785   3.886   7.544   0.677 -0.7870 -1.7937 -0.7391
40890SOL    HW229786   3.874   7.495   0.820  1.2449  1.2077  0.5600
40891SOL     OW29787  11.813   1.786   7.125 -0.3871 -0.1702  0.3199
40891SOL    HW129788  11.802   1.881   7.128 -1.6916 -0.3023  0.6251
40891SOL    HW229789  11.792   1.762   7.035  2.5622  0.0720 -0.5002
40892SOL     OW29790  11.900   6.982   8.614 -0.2316 -0.2180 -0.0094
40892SOL    HW129791  11.850   6.939   8.544 -0.0412 -2.5824  1.2376
40892SOL    HW229792  11.847   6.970   8.693  0.1061  1.4079  0.5190
40893SOL     OW29793   8.053   8.136   9.078 -0.3466 -0.2327  0.4432
40893SOL    HW129794   8.148   8.141   9.087 -0.2405  0.7426 -0.8513
40893SOL    HW229795   8.022   8.102   9.162  1.0599  0.5262  1.3090
40894SOL     OW29796   9.997   0.645  11.624 -0.3421 -0.2572  0.2662
40894SOL    HW129797   9.982   0.560  11.583 -0.3240 -1.3412  2.3696
40894SOL    HW229798   9.980   0.708  11.554  1.0702 -1.9917 -1.7624
40895SOL     OW29799   5.715   7.350  11.013  0.1832  0.5078 -0.0391
40895SOL    HW129800   5.642   7.291  10.993 -1.2170  2.2238 -0.1877
40895SOL    HW229801   5.772   7.345  10.936 -0.9428  0.8464 -0.9173
40896SOL     OW29802   3.769   5.295   2.334  0.0788  0.5739  0.4835
40896SOL    HW129803   3.713   5.366   2.367  0.1412  0.6403  0.4488
40896SOL    HW229804   3.723   5.215   2.356 -1.5280  0.6499 -2.1257
40897SOL     OW29805   1.118   8.848   3.448  0.3725 -0.0734 -0.2623
40897SOL    HW129806   1.028   8.822   3.427 -0.2906 -0.1134  2.3240
40897SOL    HW229807   1.161   8.767   3.474  0.4208  0.2759  0.8127
40898SOL     OW29808   8.695   0.682   2.347 -0.1149  0.4205  0.8463
40898SOL    HW129809   8.649   0.756   2.307  0.9335  1.8426  2.1124
40898SOL    HW229810   8.756   0.652   2.279 -1.6307 -0.3431 -0.2216
40899SOL     OW29811   1.204   6.395   3.996  0.2228 -0.5994 -0.4666
40899SOL    HW129812   1.216   6.400   4.091 -2.0242  0.8593 -0.1880
40899SOL    HW229813   1.282   6.349   3.965  0.7229 -1.7038  2.1245
40900SOL     OW29814   7.362   7.707   2.863  0.3906  0.5748  0.2690
40900SOL    HW129815   7.362   7.798   2.836  2.1765  0.3945 -0.4922
40900SOL    HW229816   7.393   7.710   2.954 -0.9213  0.8074  0.7285
40901SOL     OW29817   1.954   9.512  10.327  0.3837 -0.0336 -0.1290
40901SOL    HW129818   1.919   9.573  10.392 -0.5410 -1.3336  0.6436
40901SOL    HW229819   1.917   9.428  10.352  0.7715 -0.7289 -1.8024
40902SOL     OW29820  10.482  12.508   5.428 -0.0686  0.2427  0.2380
40902SOL    HW129821  10.515  12.555   5.505 -0.6731  4.3582 -1.7478
40902SOL    HW229822  10.554  12.511   5.365 -1.0041  0.7976 -0.8343
40903SOL     OW29823  11.506   4.993   5.091 -0.0585 -0.8601  0.4215
40903SOL    HW129824  11.417   4.958   5.078 -0.4599  0.3438 -0.2073
40903SOL    HW229825  11.492   5.079   5.130  0.8175 -0.3935 -0.2820
40904SOL     OW29826   1.457   5.985   2.802 -0.1296  0.1743 -0.0886
40904SOL    HW129827   1.467   5.951   2.892  1.3393  0.7239 -0.0190
40904SOL    HW229828   1.546   5.988   2.768 -0.5113  1.4355 -1.0327
40905SOL     OW29829   7.841   0.287   5.032  0.0136 -0.2661 -0.3665
40905SOL    HW129830   7.901   0.317   5.100  0.2805 -0.7158 -0.4021
40905SOL    HW229831   7.876   0.323   4.951  0.0868 -0.3147 -0.3557
40906SOL     OW29832   0.737   9.524  10.880 -0.4641 -0.0393  0.2099
40906SOL    HW129833   0.759   9.488  10.794 -0.4357 -0.8026  0.5220
40906SOL    HW229834   0.821   9.532  10.925 -0.5064  0.0668  0.2688
40907SOL     OW29835  10.954   2.024   3.705  0.3318  0.7565  0.2735
40907SOL    HW129836  10.869   2.013   3.663  1.3921  0.6396 -1.9722
40907SOL    HW229837  10.979   1.937   3.734  0.5665  0.4168 -0.9085
40908SOL     OW29838  10.950   2.256   0.759  0.1736 -0.2225 -0.2628
40908SOL    HW129839  10.887   2.315   0.718 -0.1016 -1.5218 -1.8335
40908SOL    HW229840  11.015   2.239   0.690  1.9814  0.6441  1.1268
40909SOL     OW29841   2.972   0.077  10.192 -0.8178  0.6903 -0.0171
40909SOL    HW129842   3.017   0.010  10.244  1.2776  0.8788 -1.4675
40909SOL    HW229843   2.927   0.027  10.124 -2.4620  0.5451  1.1107
40910SOL     OW29844   2.034   0.744  10.956 -0.0798  0.0974  0.4330
40910SOL    HW129845   2.020   0.811  10.889  3.0399 -0.4702 -0.9883
40910SOL    HW229846   1.988   0.778  11.034 -0.4780  2.7737 -0.8359
40911SOL     OW29847  12.872   5.467   3.770  0.1949  0.1671  0.0805
40911SOL    HW129848  12.858   5.386   3.722 -1.1362  0.3322  0.1308
40911SOL    HW229849  12.864   5.536   3.704  1.9135  0.2482 -0.0705
40912SOL     OW29850   7.409   0.580   6.376 -0.0508  0.0637  0.4271
40912SOL    HW129851   7.485   0.628   6.409  0.3467 -0.4051  0.2173
40912SOL    HW229852   7.418   0.492   6.412  0.1490 -0.3284 -0.5339
40913SOL     OW29853   0.746  10.669   9.174  0.3671  0.0506 -0.0270
40913SOL    HW129854   0.748  10.765   9.172 -0.7089  0.3218  3.7260
40913SOL    HW229855   0.773  10.642   9.086 -0.8514  3.7785 -1.7304
40914SOL     OW29856   1.650   0.659   5.012  0.0368 -0.2943  0.6315
40914SOL    HW129857   1.610   0.573   5.024 -0.4515 -0.3916 -1.4139
40914SOL    HW229858   1.723   0.643   4.952  0.0038  0.6970  0.3100
40915SOL     OW29859   9.309   6.768   6.482 -0.0660 -0.1539 -0.1528
40915SOL    HW129860   9.397   6.790   6.514 -0.6426  2.0715  0.0299
40915SOL    HW229861   9.324   6.698   6.417  1.6779 -0.7507  0.8238
40916SOL     OW29862   1.660   8.902   7.755 -0.1623  0.2758 -0.6400
40916SOL    HW129863   1.692   8.974   7.700  0.1581  0.0278 -0.7830
40916SOL    HW229864   1.733   8.883   7.814 -0.1423 -0.1202 -0.7908
40917SOL     OW29865   6.350   2.443  10.853  0.4262  0.5619 -0.0643
40917SOL    HW129866   6.414   2.426  10.784  0.3402 -2.0282  0.3892
40917SOL    HW229867   6.266   2.451  10.807  0.2974 -1.6030 -0.3005
40918SOL     OW29868   2.378   3.677   3.675  0.0923  0.7898 -0.2045
40918SOL    HW129869   2.382   3.600   3.619  0.4093  0.9406 -0.3920
40918SOL    HW229870   2.323   3.739   3.627  1.6084  1.5047 -1.0881
40919SOL     OW29871   3.440   3.293  12.316 -0.0088  0.1003 -0.0905
40919SOL    HW129872   3.518   3.275  12.265 -0.6710 -0.2811 -0.9924
40919SOL    HW229873   3.407   3.206  12.340 -0.0101  0.2633  0.5184
40920SOL     OW29874   2.402   6.098  12.083 -0.0322  0.3488  0.3121
40920SOL    HW129875   2.323   6.142  12.114 -0.8092 -0.4632 -0.4474
40920SOL    HW229876   2.386   6.005  12.101  0.5465  0.1292 -0.2736
40921SOL     OW29877   7.311   3.947   1.743 -0.1801  0.9641 -0.0501
40921SOL    HW129878   7.246   3.983   1.804  0.2612  0.2161  0.8787
40921SOL    HW229879   7.263   3.881   1.693  0.1312 -0.5090  1.5149
40922SOL     OW29880  12.225   1.380  10.294  0.1347  0.6846  0.1158
40922SOL    HW129881  12.299   1.324  10.272 -1.0190 -1.4150  1.2919
40922SOL    HW229882  12.170   1.378  10.216  0.1423  0.2173  0.1184
40923SOL     OW29883   1.377   9.895  10.897 -0.0963 -0.4762 -0.1861
40923SOL    HW129884   1.380   9.990  10.895 -1.9145 -0.2672  2.1436
40923SOL    HW229885   1.467   9.867  10.877  0.2616  1.6322 -1.8314
40924SOL     OW29886   3.676   1.807   7.573 -0.1164  0.3580  0.4821
40924SOL    HW129887   3.762   1.792   7.610  0.0711  1.7762  0.6768
40924SOL    HW229888   3.655   1.898   7.595 -0.5288  0.8896 -1.7880
40925SOL     OW29889   1.100  10.939   3.525 -0.8365 -0.0541 -0.2062
40925SOL    HW129890   1.051  10.975   3.450 -0.8763  0.6217  0.1362
40925SOL    HW229891   1.158  11.010   3.551 -0.4891 -0.4545  0.1157
40926SOL     OW29892   3.525   6.858   2.613  0.3976  0.0983  0.0653
40926SOL    HW129893   3.454   6.806   2.575  0.1210  0.4470  0.1031
40926SOL    HW229894   3.487   6.944   2.628  1.2460  0.7597 -1.3520
40927SOL     OW29895   4.805   1.239  10.455  0.0171  0.7545 -0.4296
40927SOL    HW129896   4.832   1.328  10.431 -0.5755  0.7576 -1.0895
40927SOL    HW229897   4.817   1.188  10.375 -0.9612  0.5390 -0.4475
40928SOL     OW29898   9.797   5.097  10.074  0.6017 -0.7080  0.0569
40928SOL    HW129899   9.776   5.012  10.112 -0.3983 -1.5525 -2.1994
40928SOL    HW229900   9.868   5.079  10.012  2.5647  0.7107  1.7212
40929SOL     OW29901  12.328  11.426  10.561  0.1697  0.1982  0.6022
40929SOL    HW129902  12.361  11.377  10.637 -0.6862 -0.6519  0.4321
40929SOL    HW229903  12.241  11.390  10.545  0.8128 -0.5022 -1.5498
40930SOL     OW29904   7.850   1.583   3.208  0.0833  0.4301 -0.7399
40930SOL    HW129905   7.829   1.499   3.249 -1.5051  0.5417 -1.2421
40930SOL    HW229906   7.852   1.646   3.281 -0.4913  0.2506 -0.5657
40931SOL     OW29907  12.843   8.928   7.934  0.4111  0.2654 -0.0170
40931SOL    HW129908  12.873   8.955   7.848  1.0332  0.6074  0.3012
40931SOL    HW229909  12.903   8.972   7.995  2.3157 -2.7600  0.5159
40932SOL     OW29910   3.041   7.104   3.684 -0.3320 -0.5363 -0.0077
40932SOL    HW129911   2.973   7.038   3.676 -0.4724 -0.2798 -1.2325
40932SOL    HW229912   3.031   7.139   3.772 -0.8482 -1.4925  0.3341
40933SOL     OW29913  12.372   7.224   4.599  0.1824  0.4081  0.3043
40933SOL    HW129914  12.452   7.172   4.595  0.0430  0.1077  1.0568
40933SOL    HW229915  12.384   7.294   4.536  1.0246  0.3455  0.3944
40934SOL     OW29916   4.064   9.122   3.144  0.7464 -0.6020  0.3685
40934SOL    HW129917   4.053   9.107   3.238  1.7674 -2.3525  0.2526
40934SOL    HW229918   4.108   9.043   3.112 -1.1281 -0.8379 -1.9081
40935SOL     OW29919  10.388   0.340   1.372 -0.2804  0.4243  0.3947
40935SOL    HW129920  10.371   0.433   1.386  0.3498  0.7373 -0.7374
40935SOL    HW229921  10.312   0.295   1.409 -0.4206  1.3569  1.2791
40936SOL     OW29922   7.988   1.610  12.118  0.1185 -0.3069  0.1566
40936SOL    HW129923   7.961   1.523  12.148  1.0981 -0.4149  0.7938
40936SOL    HW229924   8.084   1.608  12.126  0.3970 -0.0991 -2.3900
40937SOL     OW29925   0.218   2.064   7.196 -0.9357  0.1438  0.4934
40937SOL    HW129926   0.278   2.095   7.263 -1.1983 -0.9146  1.2323
40937SOL    HW229927   0.273   2.047   7.120 -0.7601  2.2433  0.0822
40938SOL     OW29928  12.351   9.150   2.500 -0.2688 -0.1857 -0.1033
40938SOL    HW129929  12.343   9.105   2.584  0.6915 -0.5395 -0.1886
40938SOL    HW229930  12.444   9.171   2.493 -0.5891  1.1820 -0.4046
40939SOL     OW29931  10.395   3.851   1.860  0.1119 -0.3214 -0.0244
40939SOL    HW129932  10.470   3.891   1.815  1.6671 -1.5557  1.3251
40939SOL    HW229933  10.404   3.880   1.951 -2.1537  0.9821 -0.1297
40940SOL     OW29934  10.800  12.775   1.127 -0.1716  0.1891 -0.4326
40940SOL    HW129935  10.729  12.711   1.136  0.0991 -0.1084 -0.4029
40940SOL    HW229936  10.781  12.819   1.044  0.6429 -1.2002 -1.3999
40941SOL     OW29937  12.454   6.101   8.850 -0.1976  0.0774  0.5584
40941SOL    HW129938  12.413   6.142   8.774  0.4214  0.5889  0.4861
40941SOL    HW229939  12.405   6.133   8.925  1.3903  2.4845  0.6730
40942SOL     OW29940   7.356   6.593   6.970  0.3533 -0.7889 -0.1921
40942SOL    HW129941   7.439   6.550   6.989  1.1714 -0.3402 -2.4510
40942SOL    HW229942   7.370   6.684   6.996 -0.6386 -1.3097  2.5273
40943SOL     OW29943  12.577   4.519  10.210  0.7039 -0.1216  0.0542
40943SOL    HW129944  12.651   4.459  10.217 -1.2486 -2.4696  3.0791
40943SOL    HW229945  12.574   4.565  10.294  0.1901  1.8725 -0.9853
40944SOL     OW29946   8.001   2.301   7.604  0.5325  0.4154 -0.2041
40944SOL    HW129947   8.056   2.236   7.648  0.6095  0.2763 -0.5024
40944SOL    HW229948   7.922   2.307   7.658  1.1324  1.1364  0.6285
40945SOL     OW29949   4.818   4.037   8.161  0.1816 -0.3405  0.7798
40945SOL    HW129950   4.833   4.092   8.084 -0.8061 -0.3700  0.5499
40945SOL    HW229951   4.773   3.960   8.127  0.0705 -0.5264  1.3319
40946SOL     OW29952  11.570   1.941   1.551 -0.3031  0.4519 -0.7203
40946SOL    HW129953  11.615   1.884   1.613 -0.2658 -0.1491 -1.2856
40946SOL    HW229954  11.606   1.916   1.466  0.7281  2.2696 -0.8626
40947SOL     OW29955   3.892   1.806   1.607 -0.0622 -1.0696  0.5471
40947SOL    HW129956   3.829   1.837   1.673 -2.2668 -1.3876 -1.2925
40947SOL    HW229957   3.860   1.719   1.583  0.1693 -0.6362 -1.5152
40948SOL     OW29958  12.945   5.321   4.710 -0.2228  0.4844 -0.1044
40948SOL    HW129959  12.867   5.292   4.662  0.6359 -1.5952 -0.3395
40948SOL    HW229960  12.922   5.308   4.802 -0.3085  0.3012 -0.1515
40949SOL     OW29961   5.624   6.393   9.868  0.4180 -0.3741 -0.0526
40949SOL    HW129962   5.678   6.466   9.838  2.2350 -1.8665 -0.6235
40949SOL    HW229963   5.676   6.352   9.937  0.2335 -2.1008 -0.8818
40950SOL     OW29964   1.333   7.649   1.455  0.0307  0.5287 -0.0553
40950SOL    HW129965   1.411   7.594   1.466 -1.5962 -1.5264  2.3777
40950SOL    HW229966   1.322   7.655   1.360  1.0827 -2.2926 -0.4779
40951SOL     OW29967   4.557   0.086  10.727 -0.1800  0.3949 -0.0565
40951SOL    HW129968   4.462   0.091  10.717 -0.6214 -1.7749  2.0669
40951SOL    HW229969   4.583   0.173  10.757 -1.7778  0.4821  1.1787
40952SOL     OW29970  10.367  11.001   4.160  0.4612 -0.1201 -0.1385
40952SOL    HW129971  10.374  11.095   4.143  0.8771 -0.3527 -1.3703
40952SOL    HW229972  10.403  10.960   4.082  1.1625 -1.3069  0.7629
40953SOL     OW29973   0.563  12.415   1.109 -0.6023  0.3279 -0.4338
40953SOL    HW129974   0.622  12.340   1.109 -0.5416  0.3460 -1.7652
40953SOL    HW229975   0.492  12.391   1.168  0.5407  0.1586  0.9027
40954SOL     OW29976   5.497   6.621   5.814 -0.5598  0.1104  0.3111
40954SOL    HW129977   5.555   6.546   5.795  0.8915  1.5070 -1.1317
40954SOL    HW229978   5.481   6.661   5.728 -2.4609  0.6762  0.8761
40955SOL     OW29979  10.209   9.077   2.511  0.3885 -0.4244 -0.4812
40955SOL    HW129980  10.277   9.118   2.566  0.9987 -1.9076 -0.0605
40955SOL    HW229981  10.182   9.146   2.451  2.0874  0.3131 -0.4754
40956SOL     OW29982   7.448   6.852   3.463  0.1108 -0.1443  0.2569
40956SOL    HW129983   7.535   6.871   3.497 -0.1203 -0.5921  1.1299
40956SOL    HW229984   7.419   6.934   3.423  1.2866 -0.2480 -0.8687
40957SOL     OW29985   1.008   7.880   4.168  0.4255  0.0075 -0.4883
40957SOL    HW129986   0.952   7.904   4.094  1.1253  0.5453 -0.8529
40957SOL    HW229987   0.988   7.945   4.235  0.9445  0.4878 -0.7903
40958SOL     OW29988   2.424  10.101   1.283  0.8529  0.4483 -0.0579
40958SOL    HW129989   2.435  10.017   1.238 -0.5259 -0.1769  0.7173
40958SOL    HW229990   2.467  10.165   1.226 -0.3679 -0.3859 -1.9960
40959SOL     OW29991   6.886  11.127  10.672 -0.5839 -0.0263 -0.2579
40959SOL    HW129992   6.910  11.047  10.718 -1.4895 -0.3716 -0.3578
40959SOL    HW229993   6.949  11.192  10.703 -1.2576 -0.1996  1.6260
40960SOL     OW29994   3.882   0.168   5.223 -0.4909  0.0438  0.1079
40960SOL    HW129995   3.949   0.133   5.282 -1.2767  0.4311  1.2650
40960SOL    HW229996   3.878   0.106   5.151 -0.5444 -1.2546  1.1966
40961SOL     OW29997   8.149  10.241   9.165  0.3675 -0.1194 -0.0478
40961SOL    HW129998   8.193  10.278   9.241  0.5545  0.5751 -0.4836
40961SOL    HW229999   8.121  10.154   9.193  0.9567 -0.1014  0.6211
40962SOL     OW30000   7.980   3.547   7.592 -0.2307 -0.1550  0.1607
40962SOL    HW130001   7.947   3.633   7.619 -0.1311  0.6105 -1.9503
40962SOL    HW230002   7.936   3.530   7.509  0.6319 -1.6260 -0.0149
40963SOL     OW30003   3.132   5.849   0.292  0.2327  0.4605 -0.1189
40963SOL    HW130004   3.046   5.856   0.251  0.4933  1.0907 -0.5678
40963SOL    HW230005   3.142   5.755   0.310 -1.3331  0.5804  1.6909
40964SOL     OW30006   2.509   2.322   6.715 -0.0964  0.4830  0.0230
40964SOL    HW130007   2.510   2.388   6.645 -1.2926  0.5650  0.0745
40964SOL    HW230008   2.442   2.260   6.688  0.4715 -0.3027  0.3740
40965SOL     OW30009   0.723   5.898   2.308  0.5105  1.0320  0.5131
40965SOL    HW130010   0.738   5.938   2.393  1.9591  1.2108  0.2022
40965SOL    HW230011   0.807   5.904   2.263  0.0557  0.0111 -0.5463
40966SOL     OW30012   4.449   4.605   2.716 -0.2562  0.0335  0.0708
40966SOL    HW130013   4.500   4.670   2.667 -1.7624 -1.6058 -4.1976
40966SOL    HW230014   4.510   4.534   2.732 -0.0772 -0.0960 -1.0687
40967SOL     OW30015   2.515   3.897  10.142  0.0771 -0.2486  0.3880
40967SOL    HW130016   2.543   3.842  10.068 -0.0799  0.4954 -0.2368
40967SOL    HW230017   2.549   3.852  10.219  0.7715 -0.7175 -0.1771
40968SOL     OW30018   7.206   0.867   1.421  0.1797 -0.1158 -0.0518
40968SOL    HW130019   7.226   0.786   1.374 -1.1952 -1.8487  2.1472
40968SOL    HW230020   7.289   0.894   1.460  0.4935 -0.9173 -0.1626
40969SOL     OW30021  12.557  12.445   3.300  0.0260 -0.2563 -0.0889
40969SOL    HW130022  12.547  12.351   3.285  0.2573 -1.0666  3.7217
40969SOL    HW230023  12.612  12.475   3.227  0.7737 -3.2667 -0.9110
40970SOL     OW30024   3.170  10.420   4.629  0.2180  0.7277 -0.0490
40970SOL    HW130025   3.214  10.480   4.570  1.1147  0.7098  0.5783
40970SOL    HW230026   3.221  10.424   4.710 -0.5108  0.1519  0.4534
40971SOL     OW30027   7.656   3.009   3.905 -0.3168  0.2977  0.1352
40971SOL    HW130028   7.646   3.100   3.934  0.4975  1.5205 -2.9650
40971SOL    HW230029   7.567   2.982   3.883 -0.3231  1.3727 -1.3958
40972SOL     OW30030   1.008   3.368   2.029  0.5627 -1.2391 -0.1724
40972SOL    HW130031   0.932   3.345   1.974 -0.2384  0.4418  0.1659
40972SOL    HW230032   1.018   3.463   2.018  0.3698 -0.8176  2.5462
40973SOL     OW30033   1.047   5.130  11.421 -0.2974 -0.0005  0.0820
40973SOL    HW130034   0.967   5.151  11.374  0.9029  1.7149 -1.3365
40973SOL    HW230035   1.117   5.140  11.356  1.3858  1.9251  2.0338
40974SOL     OW30036   5.115   2.066  11.272 -0.1676 -0.0711  0.9049
40974SOL    HW130037   5.175   2.019  11.213 -0.0288  0.7274  0.3891
40974SOL    HW230038   5.164   2.073  11.355  0.7624  1.1260  0.3072
40975SOL     OW30039   3.876  11.299   8.324  0.0617  0.0910 -0.4886
40975SOL    HW130040   3.852  11.353   8.400  3.3100 -0.2085  0.9617
40975SOL    HW230041   3.970  11.317   8.312  0.2078 -1.8198 -2.8446
40976SOL     OW30042   8.862   1.114   8.712 -0.6691  0.4547  0.0758
40976SOL    HW130043   8.840   1.118   8.804  1.3481  1.6236  0.5758
40976SOL    HW230044   8.812   1.185   8.672 -1.9793 -0.4069  0.1246
40977SOL     OW30045  12.092   3.459   0.908  0.1619 -0.1889  0.0932
40977SOL    HW130046  12.093   3.418   0.995 -1.0532 -0.6662 -0.0949
40977SOL    HW230047  12.002   3.447   0.878 -0.8554  4.1799  0.7427
40978SOL     OW30048   3.582   2.016   6.910  0.4194  0.1947 -0.2151
40978SOL    HW130049   3.506   2.066   6.879  0.1142 -0.3584 -0.3696
40978SOL    HW230050   3.573   1.930   6.869  0.1129 -0.5052  1.2282
40979SOL     OW30051   7.067  11.558   9.121 -0.0240  0.3175 -0.1943
40979SOL    HW130052   6.991  11.501   9.128  0.0505  0.3473  1.0049
40979SOL    HW230053   7.039  11.629   9.063 -0.6577 -0.0508 -0.3439
40980SOL     OW30054   0.577  11.329  10.721 -0.6298 -0.1760  0.2573
40980SOL    HW130055   0.634  11.264  10.763 -0.6460 -0.0179  0.5216
40980SOL    HW230056   0.543  11.283  10.643 -0.3078 -0.3412  0.2108
40981SOL     OW30057   1.425  11.070   5.909  0.0676  0.1061  0.0216
40981SOL    HW130058   1.496  11.006   5.914  0.1928  0.2647  0.2830
40981SOL    HW230059   1.401  11.072   5.816  0.2304 -0.1360 -0.0270
40982SOL     OW30060   0.865  11.327   3.859 -0.6732 -0.6712 -0.3811
40982SOL    HW130061   0.797  11.344   3.924 -1.6810 -0.6507 -1.4087
40982SOL    HW230062   0.819  11.327   3.775  0.4556 -1.4949 -1.0376
40983SOL     OW30063  10.868   4.410   3.382 -0.2604  0.7850  0.0669
40983SOL    HW130064  10.798   4.465   3.418 -0.3957  0.7836 -0.1907
40983SOL    HW230065  10.869   4.332   3.437 -0.8385  0.5335 -0.2732
40984SOL     OW30066   9.585   6.038   1.147  0.1203  0.7116 -0.4428
40984SOL    HW130067   9.581   6.011   1.055 -2.9676 -1.8237  0.2480
40984SOL    HW230068   9.542   6.123   1.149 -2.2708 -0.3770 -1.1481
40985SOL     OW30069   2.745   8.883   2.754  0.0608  0.2135  0.5622
40985SOL    HW130070   2.675   8.818   2.765 -1.0570  1.4122  0.7179
40985SOL    HW230071   2.707   8.965   2.784  0.7877  1.3283 -1.3880
40986SOL     OW30072  10.160   3.444   0.342  0.0322 -0.4170  0.3545
40986SOL    HW130073  10.099   3.394   0.289 -0.7043  1.0191 -0.2049
40986SOL    HW230074  10.105   3.488   0.407  0.7672 -1.0455  1.4486
40987SOL     OW30075  12.024   0.157  11.057 -0.6634  0.1367  0.7363
40987SOL    HW130076  12.037   0.230  11.119  0.1762  0.1823  0.5232
40987SOL    HW230077  12.001   0.083  11.113  2.3647 -0.4282  1.4321
40988SOL     OW30078   6.527   8.263   2.689 -0.6820  0.1608  0.3355
40988SOL    HW130079   6.449   8.254   2.744  0.1063  0.3190  1.5198
40988SOL    HW230080   6.497   8.311   2.611 -2.0421 -0.9804  0.1263
40989SOL     OW30081   3.020   3.788  10.409  0.0386 -0.4054  0.6082
40989SOL    HW130082   3.002   3.826  10.495 -2.2823 -1.2156  0.5559
40989SOL    HW230083   3.004   3.694  10.421 -0.1396 -0.5462 -0.6417
40990SOL     OW30084  10.570   8.355   6.728 -0.3441 -0.0631  0.1356
40990SOL    HW130085  10.515   8.429   6.702 -0.0508  0.1467  0.1035
40990SOL    HW230086  10.543   8.284   6.670 -0.7215 -0.0220  0.2578
40991SOL     OW30087  12.951   1.087  11.582 -0.0459  0.1646  0.3031
40991SOL    HW130088  12.924   1.179  11.574  0.6218  0.3718  0.3714
40991SOL    HW230089  12.972   1.077  11.675 -0.4785 -0.1609  0.3663
40992SOL     OW30090   9.119   4.117   4.875  0.0599 -0.8830  0.0767
40992SOL    HW130091   9.116   4.022   4.861  2.1619 -1.0379  0.3157
40992SOL    HW230092   9.129   4.127   4.969  1.9775 -0.5490 -0.1295
40993SOL     OW30093   3.359  11.051   7.290  0.1361  0.1328 -0.4401
40993SOL    HW130094   3.291  11.042   7.357 -0.3911 -0.5708 -1.0549
40993SOL    HW230095   3.350  10.973   7.236  1.0540  0.3236 -0.8857
40994SOL     OW30096   6.840   4.195   3.608  0.5330 -0.5088  0.1857
40994SOL    HW130097   6.848   4.283   3.644 -0.9271  0.2696 -1.2820
40994SOL    HW230098   6.758   4.161   3.645  0.8616 -1.1108  0.3922
40995SOL     OW30099   1.504   1.765   8.398  0.2209  0.0187 -1.1494
40995SOL    HW130100   1.414   1.798   8.403  1.2216  2.8422 -0.0024
40995SOL    HW230101   1.547   1.821   8.333  1.9424  0.9183  0.6675
40996SOL     OW30102   9.652   6.009   4.628  0.1651 -0.1353 -0.2466
40996SOL    HW130103   9.718   5.962   4.577  0.6969 -0.9400  1.1264
40996SOL    HW230104   9.686   6.007   4.718 -1.1509  0.4963  0.2813
40997SOL     OW30105  12.252   6.518  10.706  0.4326  0.0247  0.0460
40997SOL    HW130106  12.276   6.488  10.794 -0.2003  0.1373  0.2554
40997SOL    HW230107  12.320   6.481  10.649 -0.6895 -2.4525  0.1925
40998SOL     OW30108   5.329  11.926   6.548  0.7256 -0.4898  0.6049
40998SOL    HW130109   5.324  11.943   6.454 -0.7156 -2.7118  0.1908
40998SOL    HW230110   5.276  11.995   6.588  1.4466  0.5439 -0.1743
40999SOL     OW30111   6.592  11.782  10.164  0.3683 -0.1794 -0.6555
40999SOL    HW130112   6.664  11.724  10.187  0.2948 -0.3062 -0.7434
40999SOL    HW230113   6.530  11.726  10.117 -0.4678 -0.4313  0.6873
41000SOL     OW30114   4.629   9.809  12.132  0.6179  0.5559  0.1105
41000SOL    HW130115   4.576   9.749  12.184 -1.7729 -0.2683 -3.0101
41000SOL    HW230116   4.667   9.869  12.197 -0.9589 -1.2084  2.8859
41001SOL     OW30117   5.011   0.228   8.765 -0.0899 -0.2067  0.2976
41001SOL    HW130118   5.070   0.203   8.694  1.1732  1.1187  0.8361
41001SOL    HW230119   5.013   0.323   8.766  0.7309 -0.1738  2.7396
41002SOL     OW30120   3.208   6.651   0.306  0.2715  0.6203  0.1547
41002SOL    HW130121   3.178   6.742   0.313 -0.1051  0.4006  1.5859
41002SOL    HW230122   3.230   6.640   0.213  1.2136  2.4499  0.1127
41003SOL     OW30123   2.232   9.561   5.600 -0.5822  0.1274 -0.2335
41003SOL    HW130124   2.163   9.621   5.630 -0.0973  0.7156 -0.2709
41003SOL    HW230125   2.258   9.514   5.679 -0.7053  0.2331 -0.1273
41004SOL     OW30126   1.673  11.439  10.994  0.0426 -0.2387 -0.6136
41004SOL    HW130127   1.722  11.430  10.912 -0.5117  0.2865 -1.0101
41004SOL    HW230128   1.586  11.469  10.967  0.4284  1.8551  0.2908
41005SOL     OW30129   5.288   9.042   8.619 -0.0416  0.1300 -0.4453
41005SOL    HW130130   5.352   9.077   8.681  1.1914 -0.6818 -1.2084
41005SOL    HW230131   5.341   9.006   8.548 -1.4022  0.9147 -1.9315
41006SOL     OW30132  10.129   4.191  10.171  0.5292 -0.4061  0.4153
41006SOL    HW130133  10.114   4.252  10.243 -0.4575  0.3204 -0.3792
41006SOL    HW230134  10.160   4.246  10.099 -1.7909 -0.5464 -0.7882
41007SOL     OW30135   1.782  12.926   0.832  0.2334  0.5079  0.0203
41007SOL    HW130136   1.840  12.923   0.908 -0.1338 -1.1271  0.2682
41007SOL    HW230137   1.695  12.943   0.868  0.5421  3.5979 -0.4007
41008SOL     OW30138   4.435   1.589   8.489 -0.8503 -0.6243  0.0852
41008SOL    HW130139   4.362   1.634   8.532 -1.0006 -2.1252  1.5208
41008SOL    HW230140   4.506   1.653   8.490 -1.7548  0.4159 -0.1565
41009SOL     OW30141   0.851  11.120   7.685 -0.5852  0.1745 -0.0794
41009SOL    HW130142   0.876  11.108   7.593 -3.0317 -0.4187 -0.7525
41009SOL    HW230143   0.856  11.215   7.699 -0.8870  0.3494 -1.0622
41010SOL     OW30144   2.271   3.417   5.793 -0.0262  0.0582 -0.2563
41010SOL    HW130145   2.239   3.328   5.780  0.7526 -0.3083  0.2548
41010SOL    HW230146   2.326   3.412   5.871 -0.5660  1.1486  0.2129
41011SOL     OW30147  10.991  12.896   5.789  0.1109  0.2857  0.1524
41011SOL    HW130148  10.942  12.815   5.796  0.0855  0.4039  1.6866
41011SOL    HW230149  10.977  12.925   5.699  0.7609 -1.7921 -0.6771
41012SOL     OW30150   0.534  11.509  10.045  0.4991  0.4192 -0.3140
41012SOL    HW130151   0.621  11.549  10.037  0.1817  1.5933  1.3791
41012SOL    HW230152   0.491  11.561  10.113 -0.4734 -1.9342  0.9895
41013SOL     OW30153   0.517   4.397   2.136 -0.4882  0.2996 -0.0231
41013SOL    HW130154   0.494   4.410   2.043 -0.4799  0.7090  0.0299
41013SOL    HW230155   0.608   4.368   2.134  0.5371  3.1623 -0.0239
41014SOL     OW30156   0.076   7.957   5.498 -0.2073  0.0685  0.5879
41014SOL    HW130157   0.038   8.031   5.545  0.4619  1.1771 -0.5542
41014SOL    HW230158   0.170   7.962   5.516  0.0782  0.5683 -0.8570
41015SOL     OW30159   4.371   8.780   0.359  0.2189  0.4001 -0.8812
41015SOL    HW130160   4.288   8.812   0.395  1.9704  1.8579  2.2362
41015SOL    HW230161   4.422   8.859   0.342  2.5524 -0.4711  1.5204
41016SOL     OW30162   7.419  10.951   3.907  0.0686  0.9615 -0.3041
41016SOL    HW130163   7.483  10.975   3.841  1.5642 -1.9666 -0.0699
41016SOL    HW230164   7.348  10.911   3.858  0.5158  0.0983 -0.2542
41017SOL     OW30165   4.835  12.112   4.680  0.0519 -0.3575 -0.2741
41017SOL    HW130166   4.851  12.109   4.585 -0.2435 -0.5406 -0.3181
41017SOL    HW230167   4.807  12.202   4.697 -1.5617 -0.7533 -0.6328
41018SOL     OW30168   3.426   1.946   4.473  0.1420  0.1564 -0.3575
41018SOL    HW130169   3.341   1.986   4.485  0.3347  0.4805 -0.0557
41018SOL    HW230170   3.438   1.890   4.550  1.2107  1.9374  0.8566
41019SOL     OW30171   0.243   3.761   9.236  0.1208  0.3987 -0.3793
41019SOL    HW130172   0.320   3.779   9.181 -1.3341  2.2727 -1.9529
41019SOL    HW230173   0.272   3.693   9.296  2.7911  0.5295 -1.3777
41020SOL     OW30174   2.754   2.118  12.149  0.4550  0.2798 -0.5171
41020SOL    HW130175   2.672   2.072  12.170 -0.0293  0.4313 -1.9642
41020SOL    HW230176   2.823   2.058  12.176 -0.1646 -0.7048 -1.0632
41021SOL     OW30177  11.196  10.563   3.570  0.1847 -0.6660  0.5481
41021SOL    HW130178  11.241  10.498   3.624  0.6414  0.2695  1.3295
41021SOL    HW230179  11.107  10.566   3.605  1.0391  1.5249  2.8331
41022SOL     OW30180   3.760   9.436  11.408 -0.0020  0.2268  0.6238
41022SOL    HW130181   3.755   9.530  11.427 -2.1261  0.6335 -1.4908
41022SOL    HW230182   3.671   9.404  11.421  0.4621 -1.2927  0.2853
41023SOL     OW30183  10.735   2.303   9.146  0.7399  0.0093  0.2080
41023SOL    HW130184  10.746   2.214   9.112 -1.4252 -0.2144 -0.0411
41023SOL    HW230185  10.682   2.348   9.080 -0.8429  0.5174  1.7412
41024SOL     OW30186   0.238  10.687  12.958 -0.3706  0.1970  0.1005
41024SOL    HW130187   0.227  10.708  13.050 -0.4426  0.6608 -0.0100
41024SOL    HW230188   0.310  10.624  12.955 -0.8386 -0.3691  0.5376
41025SOL     OW30189   7.274   0.775   7.326 -0.3216 -0.4604  0.3932
41025SOL    HW130190   7.280   0.854   7.272  1.7509 -1.1729 -0.5514
41025SOL    HW230191   7.198   0.789   7.382 -0.0123  2.1961  0.2709
41026SOL     OW30192  11.324   1.716   6.531  0.4124 -0.4835 -0.1309
41026SOL    HW130193  11.274   1.781   6.580 -1.9079 -1.4705 -1.0102
41026SOL    HW230194  11.411   1.753   6.523 -1.2828  3.7024 -2.5616
41027SOL     OW30195   2.502   3.101   4.575 -0.1877 -0.1414 -0.1788
41027SOL    HW130196   2.438   3.169   4.594  0.4223  0.5668 -0.6176
41027SOL    HW230197   2.454   3.019   4.586 -1.1950  0.3827 -0.5895
41028SOL     OW30198  10.450   1.850   0.199  0.0939  0.3027 -0.0228
41028SOL    HW130199  10.384   1.905   0.238 -1.9852 -0.8525 -1.6809
41028SOL    HW230200  10.487   1.800   0.272 -1.3755  0.4782  0.8703
41029SOL     OW30201  11.251   7.510  10.875  0.0566 -0.1533  0.5287
41029SOL    HW130202  11.167   7.465  10.877  0.0401 -0.3839 -2.1235
41029SOL    HW230203  11.231   7.600  10.902 -1.0915 -0.1452 -0.3054
41030SOL     OW30204   9.070   0.881  10.501 -0.1089  0.1823  0.0586
41030SOL    HW130205   9.081   0.918  10.588 -3.1991  2.2535 -0.2862
41030SOL    HW230206   9.092   0.953  10.441 -2.2564  0.2665 -0.7226
41031SOL     OW30207   7.055   9.458   4.710 -0.2280 -0.4719 -0.0567
41031SOL    HW130208   7.079   9.398   4.781  0.2108  0.7709  0.8837
41031SOL    HW230209   7.119   9.439   4.641  0.4648 -0.4868  0.5764
41032SOL     OW30210   6.366   1.198   8.832  0.4156 -0.6603  0.1034
41032SOL    HW130211   6.343   1.283   8.870  0.4911  0.0614 -1.4117
41032SOL    HW230212   6.288   1.144   8.845 -0.2586  0.1673 -0.3941
41033SOL     OW30213  12.838  10.393   1.758 -0.5138  0.1279  0.1266
41033SOL    HW130214  12.925  10.420   1.728 -0.9740  0.3653 -1.0629
41033SOL    HW230215  12.784  10.471   1.745 -1.0725 -0.2616  0.0989
41034SOL     OW30216   2.792   4.656  10.788 -0.2954 -0.0646  0.0814
41034SOL    HW130217   2.883   4.681  10.802 -0.2250 -1.4335  2.6203
41034SOL    HW230218   2.753   4.732  10.745  1.5765  1.3354  0.6997
41035SOL     OW30219   5.137   8.079  11.621 -0.1544 -0.1036 -0.3318
41035SOL    HW130220   5.089   8.135  11.683 -1.6085 -0.1511 -1.3641
41035SOL    HW230221   5.089   7.996  11.621  0.7871 -0.6633 -0.3361
41036SOL     OW30222   5.111   6.484   1.324 -0.2554  0.8174  0.1199
41036SOL    HW130223   5.171   6.416   1.355  0.7857  1.8056  0.3648
41036SOL    HW230224   5.069   6.447   1.247  0.2765 -0.1004  0.2622
41037SOL     OW30225   2.810   2.849   5.430 -0.3604  0.2155 -0.8076
41037SOL    HW130226   2.815   2.900   5.350 -0.4811  1.9204  0.2158
41037SOL    HW230227   2.717   2.832   5.443 -0.3649  0.1933 -0.8698
41038SOL     OW30228  12.536   3.052   3.482  0.9357  0.2696 -0.2820
41038SOL    HW130229  12.573   3.077   3.567  0.0142  0.1996  0.1528
41038SOL    HW230230  12.570   2.964   3.466  0.1797 -0.2087  0.5969
41039SOL     OW30231   9.733   7.656   9.734 -0.2181  0.7700  0.0924
41039SOL    HW130232   9.672   7.715   9.691  1.0434  0.8977 -1.6527
41039SOL    HW230233   9.698   7.645   9.822 -2.1550  1.6473 -0.5082
41040SOL     OW30234   4.464   5.453   2.727  0.3299 -0.4368  0.3041
41040SOL    HW130235   4.413   5.529   2.698 -1.9711 -1.6109  1.0440
41040SOL    HW230236   4.537   5.448   2.665 -3.4471 -1.9733 -4.6089
41041SOL     OW30237   6.846   8.921   3.241  0.2047 -0.5043  0.5065
41041SOL    HW130238   6.813   8.948   3.155  1.2953 -1.3889 -0.2207
41041SOL    HW230239   6.834   8.998   3.296 -1.4007 -0.2261 -0.1707
41042SOL     OW30240  12.190   0.985   3.855 -0.5662  0.7242 -0.1462
41042SOL    HW130241  12.224   1.069   3.887 -0.4346 -0.0538  1.9078
41042SOL    HW230242  12.266   0.927   3.852 -0.9000  0.2759 -0.1111
41043SOL     OW30243  12.190   5.739   5.289 -0.0656 -0.3322  0.1210
41043SOL    HW130244  12.234   5.793   5.223 -0.4186 -0.6501 -0.3733
41043SOL    HW230245  12.176   5.799   5.363  2.6750 -0.6113  0.9759
41044SOL     OW30246   3.760   3.213   8.619  0.3658 -0.4152 -0.3341
41044SOL    HW130247   3.682   3.269   8.620  0.5619 -0.1356  1.0010
41044SOL    HW230248   3.825   3.263   8.570  0.8018  0.9426  1.5371
41045SOL     OW30249   5.442  12.748   8.008  0.6919  0.1534  0.3621
41045SOL    HW130250   5.467  12.710   7.923  1.3236 -0.3672  0.7666
41045SOL    HW230251   5.526  12.759   8.054  0.2386 -1.3109  1.6359
41046SOL     OW30252  12.823   4.924  12.642 -0.6393  0.7495 -0.3808
41046SOL    HW130253  12.917   4.907  12.640 -0.6542  0.3473  1.1779
41046SOL    HW230254  12.788   4.872  12.569  0.0774 -0.9776  0.4399
41047SOL     OW30255  12.957   1.093   8.963  0.5895  0.2124  0.0531
41047SOL    HW130256  13.050   1.076   8.945  0.9491  2.4496 -0.4865
41047SOL    HW230257  12.914   1.080   8.878  0.4862 -0.3196  0.1859
41048SOL     OW30258   8.980   2.601   3.670  0.3810  0.2244  0.2601
41048SOL    HW130259   8.896   2.577   3.630  0.7959 -0.2121 -0.3624
41048SOL    HW230260   8.985   2.696   3.660 -0.3772  0.3558  0.9827
41049SOL     OW30261   6.124   0.672   5.821 -0.9023  0.9430 -0.3997
41049SOL    HW130262   6.215   0.687   5.794 -1.0084  3.4370  0.3305
41049SOL    HW230263   6.121   0.704   5.911 -2.2188 -0.3630  0.0439
41050SOL     OW30264   5.421   6.281   6.045  0.4691  0.0360  0.5332
41050SOL    HW130265   5.404   6.292   6.139  1.2868  0.2118  0.6639
41050SOL    HW230266   5.337   6.251   6.009 -0.0501  0.6577  1.2014
41051SOL     OW30267  10.911   6.579   2.651 -0.1963 -0.3397  0.0078
41051SOL    HW130268  10.944   6.635   2.581  0.3515 -0.6782 -0.0104
41051SOL    HW230269  10.964   6.602   2.728 -0.2889 -0.4961  0.1193
41052SOL     OW30270   2.777   3.856   4.277  0.0550 -0.6190  0.3674
41052SOL    HW130271   2.765   3.811   4.193 -1.3032  0.2673  0.0499
41052SOL    HW230272   2.705   3.824   4.332 -0.5889  0.7055  0.3217
41053SOL     OW30273   6.454  10.588  10.478 -0.2837 -0.0194 -0.2371
41053SOL    HW130274   6.473  10.503  10.437  0.3828  0.5681 -1.1834
41053SOL    HW230275   6.361  10.583  10.501 -0.8232 -0.1734 -2.3188
41054SOL     OW30276   9.406   4.414   7.874 -0.0027 -0.3044  0.1969
41054SOL    HW130277   9.439   4.450   7.791 -1.2582  1.1891  0.3184
41054SOL    HW230278   9.380   4.490   7.925 -1.3361 -1.3104  1.0802
41055SOL     OW30279   5.036   3.136  10.795  0.6006 -0.6115 -0.5001
41055SOL    HW130280   4.956   3.113  10.843  0.1132 -0.2345 -1.1159
41055SOL    HW230281   5.060   3.222  10.829  1.1352 -1.0145  0.1676
41056SOL     OW30282   7.473   7.262   4.528  0.0860  0.1190  0.3705
41056SOL    HW130283   7.519   7.178   4.525  0.1457  0.1780 -0.4830
41056SOL    HW230284   7.515   7.309   4.600 -2.1204 -1.8055  3.1431
41057SOL     OW30285   7.849   2.968   1.046 -0.0673  0.1050  0.1739
41057SOL    HW130286   7.818   2.928   1.128  0.8335 -0.6232  0.1766
41057SOL    HW230287   7.929   3.014   1.071  0.0774  0.0849 -0.2503
41058SOL     OW30288   8.865   6.271   6.283 -0.0048 -0.5335 -0.2249
41058SOL    HW130289   8.875   6.180   6.258  0.9866 -0.3645 -0.4663
41058SOL    HW230290   8.935   6.287   6.346  0.0370  0.1476 -0.4342
41059SOL     OW30291  11.633   1.811  11.441 -0.6108 -0.3195 -0.1581
41059SOL    HW130292  11.632   1.782  11.350  0.6569  2.1509 -1.0501
41059SOL    HW230293  11.723   1.797  11.469 -0.0737  2.0588 -0.4700
41060SOL     OW30294   2.536   9.860   2.362 -0.0652  0.4662 -0.1085
41060SOL    HW130295   2.441   9.861   2.358 -0.0893  1.3661  0.5096
41060SOL    HW230296   2.559   9.929   2.424  0.9388 -0.5181  0.6808
41061SOL     OW30297  11.351   2.491  12.550  0.2920  0.3675 -0.0338
41061SOL    HW130298  11.278   2.431  12.533  0.7588 -0.6283  1.3088
41061SOL    HW230299  11.428   2.445  12.518  0.5639  0.5493  0.3531
41062SOL     OW30300   7.461   0.087   3.499 -0.3920 -0.3791  0.0105
41062SOL    HW130301   7.541   0.085   3.447  1.3062  1.5188  2.2961
41062SOL    HW230302   7.396   0.043   3.445  1.8955 -1.0423 -2.4318
41063SOL     OW30303   2.546   4.142  10.347 -0.4849  0.2720 -0.0956
41063SOL    HW130304   2.519   4.107  10.431 -1.3306  0.6457 -0.2074
41063SOL    HW230305   2.567   4.065  10.294 -1.0264 -0.0108  0.0969
41064SOL     OW30306  11.436   9.835   1.741  0.2078  0.2790  0.8698
41064SOL    HW130307  11.477   9.775   1.678  0.8531  1.1843  0.4133
41064SOL    HW230308  11.342   9.816   1.735  0.3982 -0.6423  0.6933
41065SOL     OW30309   8.856   6.923   2.887 -0.3974 -0.6854  0.1470
41065SOL    HW130310   8.774   6.919   2.839 -1.5433  1.0705  1.8414
41065SOL    HW230311   8.831   6.917   2.980  1.4733 -1.0986  0.6783
41066SOL     OW30312   7.565   9.424  10.337 -0.0594 -0.3611  0.1181
41066SOL    HW130313   7.647   9.417  10.385  2.0039 -0.2243 -3.0726
41066SOL    HW230314   7.547   9.518  10.333  0.9297 -0.1863 -1.0143
41067SOL     OW30315  10.326   1.408   6.565  0.3083 -0.4338 -0.0609
41067SOL    HW130316  10.275   1.477   6.522  0.7437  1.3685  2.1101
41067SOL    HW230317  10.261   1.353   6.608  0.0330 -0.4903 -0.5426
41068SOL     OW30318   1.698   1.672   4.250  0.6344  0.2591  0.1803
41068SOL    HW130319   1.724   1.722   4.173  0.0499  3.1295  1.6956
41068SOL    HW230320   1.606   1.648   4.234  0.9344 -0.4022 -0.5841
41069SOL     OW30321  12.497   6.864  11.662 -0.5049  0.1371 -0.2906
41069SOL    HW130322  12.572   6.907  11.703  0.3834 -0.5710 -1.1127
41069SOL    HW230323  12.471   6.925  11.592 -0.6257  0.3300 -0.0794
41070SOL     OW30324   7.861   7.752   0.648 -0.3363  0.2089  0.9463
41070SOL    HW130325   7.766   7.759   0.637 -0.2455  1.4220  0.8178
41070SOL    HW230326   7.878   7.791   0.734  0.0758  0.3413  0.8073
41071SOL     OW30327   7.488   3.186   0.345 -0.1281  0.2440  0.9188
41071SOL    HW130328   7.444   3.157   0.265  0.7643 -0.9231  0.8118
41071SOL    HW230329   7.448   3.270   0.366 -0.4036  0.5549 -0.7363
41072SOL     OW30330   3.026   6.009   1.294 -0.0008 -0.0458 -0.1590
41072SOL    HW130331   2.964   6.075   1.264  0.6692 -0.0688 -1.6709
41072SOL    HW230332   3.110   6.053   1.294  0.3765 -0.7422 -0.6636
41073SOL     OW30333   2.054  10.073   1.288  0.0910  0.7739 -0.2450
41073SOL    HW130334   2.026  10.057   1.378  0.8936  1.1068  0.0720
41073SOL    HW230335   2.111   9.999   1.267  2.0425  2.0023  0.4637
41074SOL     OW30336   9.604  11.353   8.831  0.5330 -0.1352  0.3955
41074SOL    HW130337   9.690  11.372   8.796 -0.0592  1.3142 -0.3646
41074SOL    HW230338   9.569  11.284   8.775  1.1426 -0.6617  0.6525
41075SOL     OW30339   0.495   9.686   3.026 -0.5150  0.5514 -0.1514
41075SOL    HW130340   0.580   9.671   2.984 -0.1079  1.8068  0.1611
41075SOL    HW230341   0.447   9.740   2.963 -0.3243  1.4987  0.4869
41076SOL     OW30342   9.140   6.313   3.395 -0.0728  0.8713  0.7865
41076SOL    HW130343   9.192   6.334   3.473 -0.7467 -0.1123  1.5269
41076SOL    HW230344   9.049   6.329   3.422 -0.3570 -0.0079  0.3824
41077SOL     OW30345  10.017   3.002   2.621  0.5834 -0.1533 -1.0295
41077SOL    HW130346  10.083   3.046   2.674 -0.8399  1.2873 -0.3928
41077SOL    HW230347  10.015   2.912   2.656 -0.5266  0.8106  1.6274
41078SOL     OW30348  10.833   7.999   0.215  0.1046  0.4128  0.1653
41078SOL    HW130349  10.904   7.964   0.161  0.9410  1.2038  0.7186
41078SOL    HW230350  10.851   7.966   0.303  0.8524  2.0672  0.6794
41079SOL     OW30351   0.244   0.917  10.637  0.1263  0.0504  0.4057
41079SOL    HW130352   0.160   0.881  10.668 -0.3524  1.6331  1.0362
41079SOL    HW230353   0.310   0.860  10.675 -0.6516 -1.6257 -0.6332
41080SOL     OW30354   1.348  11.829   2.147  0.0153 -0.0342  1.0117
41080SOL    HW130355   1.291  11.776   2.090  0.0424 -1.0651  1.9175
41080SOL    HW230356   1.292  11.853   2.221  0.6172 -0.6907  1.6989
41081SOL     OW30357   9.210   1.940   6.786 -0.3639 -0.3716 -0.1154
41081SOL    HW130358   9.301   1.923   6.811 -0.4348  0.4199  0.7280
41081SOL    HW230359   9.215   2.019   6.732 -0.6273  0.1736  0.6388
41082SOL     OW30360   8.696   3.148   0.696 -0.2527  0.4793  0.5634
41082SOL    HW130361   8.653   3.159   0.611 -0.7924  1.8927  0.9907
41082SOL    HW230362   8.770   3.208   0.693  0.4109 -0.3157  0.6736
41083SOL     OW30363  11.897   0.483  11.973 -1.2134 -0.3018 -0.2629
41083SOL    HW130364  11.833   0.418  12.001  0.3024 -1.0352  1.7373
41083SOL    HW230365  11.979   0.457  12.017 -0.3414  2.4419 -0.0953
41084SOL     OW30366   4.128   2.913   1.436  0.6162 -0.5727  0.1829
41084SOL    HW130367   4.071   2.989   1.447 -0.1134 -1.2108  0.9223
41084SOL    HW230368   4.151   2.886   1.525 -0.7401 -2.3731  0.0701
41085SOL     OW30369   8.712   4.772  10.075 -0.0463 -0.3464  0.2130
41085SOL    HW130370   8.668   4.841  10.025 -0.2348  0.4152  1.3854
41085SOL    HW230371   8.790   4.751  10.023 -0.7164 -0.2676 -0.8704
41086SOL     OW30372   3.209   9.042   9.171 -0.4794 -0.6252  0.0331
41086SOL    HW130373   3.150   9.114   9.191 -0.0463 -0.0811 -0.5990
41086SOL    HW230374   3.296   9.082   9.167 -0.3451 -0.9936 -1.2322
41087SOL     OW30375   2.133   1.745   2.124  0.1070  0.3008  0.2855
41087SOL    HW130376   2.136   1.757   2.219 -1.0576 -0.6065  0.4637
41087SOL    HW230377   2.043   1.767   2.100 -0.7401 -2.9379 -0.0507
41088SOL     OW30378   3.394   9.761   0.632  0.3236 -0.1040 -0.0156
41088SOL    HW130379   3.378   9.835   0.574 -0.8180  0.3388  0.8333
41088SOL    HW230380   3.330   9.695   0.606  0.2257 -0.1420  0.3188
41089SOL     OW30381  10.146   0.429  10.367  0.0186 -0.0606  0.1256
41089SOL    HW130382  10.101   0.459  10.287  0.2302 -0.4807 -0.1521
41089SOL    HW230383  10.225   0.386  10.336  0.2157 -0.0325  0.5777
41090SOL     OW30384   7.237   1.172   9.680 -0.1362  0.0922 -0.8780
41090SOL    HW130385   7.154   1.209   9.650 -1.8775 -2.5853  0.2938
41090SOL    HW230386   7.269   1.234   9.745 -1.3913  1.0037 -1.0958
41091SOL     OW30387  11.737   6.502   2.129 -0.1623  0.4127 -0.1530
41091SOL    HW130388  11.733   6.481   2.222 -0.3769  0.8033 -0.0724
41091SOL    HW230389  11.714   6.420   2.085  1.8642 -0.3535  0.0793
41092SOL     OW30390   7.567   4.309   4.849 -0.2384 -0.3596  0.5114
41092SOL    HW130391   7.634   4.241   4.857  0.7286  0.7695  2.8397
41092SOL    HW230392   7.485   4.260   4.838  0.4756 -1.9160  1.6858
41093SOL     OW30393   6.280  11.238   3.747 -0.7864 -0.9276 -0.2793
41093SOL    HW130394   6.207  11.208   3.694 -1.4798 -0.7400  0.5403
41093SOL    HW230395   6.240  11.293   3.815  0.2757  0.4670 -0.7354
41094SOL     OW30396  12.579   7.652   2.202  0.1329  0.0730 -0.3583
41094SOL    HW130397  12.554   7.640   2.293 -1.9068 -1.2620 -1.0328
41094SOL    HW230398  12.538   7.736   2.177 -1.0125 -0.5265 -0.5596
41095SOL     OW30399  10.070   9.494  10.242  0.5672 -0.0031  0.0346
41095SOL    HW130400  10.107   9.417  10.199  2.2314  0.7774  0.0021
41095SOL    HW230401   9.995   9.460  10.291 -0.0426 -1.2752 -1.6622
41096SOL     OW30402   0.085   6.039   3.104  0.7661  0.2559  0.2318
41096SOL    HW130403   0.034   6.021   3.183  0.4985 -1.1797 -0.2408
41096SOL    HW230404   0.023   6.079   3.043  0.0573 -1.8024 -0.4674
41097SOL     OW30405   9.883   5.386  10.598  0.1996 -0.4690 -0.1149
41097SOL    HW130406   9.870   5.373  10.504 -0.8673 -0.5782  0.0388
41097SOL    HW230407   9.806   5.348  10.639  0.4068  0.0436  0.7802
41098SOL     OW30408   7.064   5.028   2.616 -0.2005 -0.0452  0.1401
41098SOL    HW130409   7.089   4.992   2.701  0.6227 -2.3877 -0.9918
41098SOL    HW230410   7.129   5.096   2.598  0.9293 -0.9857  0.5004
41099SOL     OW30411   4.661   4.538   5.810 -0.0607 -0.4218 -0.2705
41099SOL    HW130412   4.567   4.516   5.808 -0.2299  0.2059  0.4321
41099SOL    HW230413   4.677   4.583   5.727 -0.8545  1.2738  0.4452
41100SOL     OW30414  11.465   9.352   2.078 -0.2804  0.7416 -0.5240
41100SOL    HW130415  11.531   9.402   2.126 -0.4981  1.7033 -1.1922
41100SOL    HW230416  11.514   9.280   2.038  0.3442  1.3358 -0.8554
41101SOL     OW30417   6.322   2.768   3.335  0.1120  0.5615  0.0623
41101SOL    HW130418   6.287   2.845   3.290  0.9268  1.3769  0.7938
41101SOL    HW230419   6.411   2.759   3.302  0.1288  0.1240  0.2174
41102SOL     OW30420   6.862  12.519  11.022 -0.0233  0.3661  0.1389
41102SOL    HW130421   6.810  12.576  10.965  0.1517  1.2788  0.8707
41102SOL    HW230422   6.815  12.519  11.106 -0.8584 -1.8023 -0.2587
41103SOL     OW30423   7.780   1.420   8.840  0.1355 -0.0403 -0.4694
41103SOL    HW130424   7.728   1.366   8.899  2.6932 -1.4164  0.7201
41103SOL    HW230425   7.809   1.494   8.893 -1.0152  1.0255 -1.2782
41104SOL     OW30426  11.465   7.681  10.360 -0.4474 -0.3151 -0.0767
41104SOL    HW130427  11.427   7.665  10.446 -0.5579  1.0757  0.1624
41104SOL    HW230428  11.466   7.777  10.352  0.7369 -0.3936 -1.0967
41105SOL     OW30429   9.648  11.688   3.059 -0.4239 -0.3341  0.3445
41105SOL    HW130430   9.567  11.722   3.023  0.5541  0.6637 -1.0160
41105SOL    HW230431   9.641  11.704   3.153 -0.3787  2.9867 -0.0944
41106SOL     OW30432   5.557   4.671   8.639  0.1541 -0.3985 -0.0425
41106SOL    HW130433   5.532   4.695   8.550 -0.3808  0.1288  0.2480
41106SOL    HW230434   5.516   4.586   8.653 -1.4683  0.4266  0.4088
41107SOL     OW30435   4.471  11.712   5.519  0.1535 -0.3246 -0.1453
41107SOL    HW130436   4.389  11.752   5.490  1.1446  1.6716 -0.3454
41107SOL    HW230437   4.506  11.670   5.440 -0.3818 -0.6800 -0.1998
41108SOL     OW30438   3.791  12.302   0.737 -0.0901  0.0168  0.0846
41108SOL    HW130439   3.761  12.214   0.715  0.0638 -0.1055  0.3497
41108SOL    HW230440   3.724  12.360   0.702 -0.7776 -0.2607  0.8980
41109SOL     OW30441   8.032   0.270  11.453  0.2799 -0.2578  0.0071
41109SOL    HW130442   8.127   0.276  11.461  0.2586  1.3275 -0.4563
41109SOL    HW230443   8.008   0.348  11.403 -1.1432 -1.2929 -0.9898
41110SOL     OW30444   4.268   4.010   1.178  0.0263  0.0281 -0.0877
41110SOL    HW130445   4.271   4.106   1.175 -1.5854  0.0744 -1.9980
41110SOL    HW230446   4.259   3.983   1.087 -1.8493 -1.8129  0.5590
41111SOL     OW30447  11.753   2.344   2.943  0.3879  0.1470 -0.7977
41111SOL    HW130448  11.821   2.330   3.009  0.1711 -1.9355 -0.9523
41111SOL    HW230449  11.725   2.256   2.919 -1.0611  0.9256 -2.1049
41112SOL     OW30450   9.637   8.134   4.298 -0.2546 -0.5520 -0.0365
41112SOL    HW130451   9.549   8.099   4.285  0.2267 -2.0954  0.6391
41112SOL    HW230452   9.695   8.071   4.253  0.5208  0.3552 -0.3393
41113SOL     OW30453   2.239   1.457   8.552  0.5688 -0.3587 -0.4613
41113SOL    HW130454   2.176   1.508   8.501  0.8269 -0.4212 -0.8492
41113SOL    HW230455   2.208   1.464   8.642 -1.3607 -2.3214 -0.8748
41114SOL     OW30456   4.588   1.477   6.524  0.9364 -0.0400 -0.0268
41114SOL    HW130457   4.510   1.423   6.518  0.7774  0.1173  0.5573
41114SOL    HW230458   4.561   1.563   6.494  0.5930  0.2960  1.1885
41115SOL     OW30459   3.289  12.531  12.082 -0.3312  0.2020  0.0803
41115SOL    HW130460   3.353  12.471  12.122  0.2028 -0.2016 -1.3168
41115SOL    HW230461   3.341  12.605  12.052 -0.8561  0.9247  0.9059
41116SOL     OW30462  11.403  12.404   7.827  0.3324 -0.1390 -0.5066
41116SOL    HW130463  11.390  12.410   7.732  1.1836  2.1207 -0.5368
41116SOL    HW230464  11.470  12.337   7.838 -0.0552 -0.7085 -1.4652
41117SOL     OW30465   8.757   6.591   4.561  0.2524 -0.7640  0.2670
41117SOL    HW130466   8.775   6.632   4.477  0.1545  1.1039  1.0943
41117SOL    HW230467   8.681   6.639   4.595  2.1985  0.8100  2.8077
41118SOL     OW30468  12.184   3.671   9.383 -0.2112  0.4320 -0.2643
41118SOL    HW130469  12.270   3.678   9.422 -0.3692 -1.7111  0.6233
41118SOL    HW230470  12.201   3.638   9.294 -0.0977 -0.4529  0.0695
41119SOL     OW30471   9.622   0.396   8.941  0.2087 -0.3112  0.0115
41119SOL    HW130472   9.594   0.487   8.949  1.2930  0.1311 -0.8370
41119SOL    HW230473   9.674   0.395   8.860 -1.8307 -2.2270 -1.3658
41120SOL     OW30474   3.582   2.521   7.469 -0.1247  0.1831 -0.0315
41120SOL    HW130475   3.650   2.459   7.442 -0.7013  0.1857 -1.5775
41120SOL    HW230476   3.506   2.467   7.487  0.1921  0.2031  1.4740
41121SOL     OW30477  10.945   8.736   5.504 -0.6371  0.1512 -0.5846
41121SOL    HW130478  10.877   8.669   5.504  0.8540 -1.4453 -0.5664
41121SOL    HW230479  11.027   8.686   5.509  0.4990  2.0333  0.5187
41122SOL     OW30480   6.269   8.793   5.487 -0.1763 -0.1030 -0.0919
41122SOL    HW130481   6.311   8.878   5.500 -0.2234  0.0347 -0.8043
41122SOL    HW230482   6.289   8.744   5.567  0.8401  0.1671 -0.1686
41123SOL     OW30483   2.562   9.542   0.320 -0.0273  0.0315 -0.5235
41123SOL    HW130484   2.545   9.636   0.322 -2.0114 -0.2725  2.2630
41123SOL    HW230485   2.493   9.506   0.264 -1.3323 -0.0044  1.0302
41124SOL     OW30486   6.819   8.928   9.751 -0.1397  0.5556 -0.7959
41124SOL    HW130487   6.790   8.998   9.692  0.3512  0.6957 -0.8741
41124SOL    HW230488   6.884   8.880   9.701  0.0930  0.5203 -0.4603
41125SOL     OW30489   0.747   6.060   8.149 -0.1655 -0.2641  0.0567
41125SOL    HW130490   0.816   6.105   8.198 -0.3311 -1.0816  1.0883
41125SOL    HW230491   0.749   6.100   8.062  2.5204 -1.1832 -0.4100
41126SOL     OW30492   6.269   6.815  10.830  0.2510  0.0551 -0.0321
41126SOL    HW130493   6.225   6.891  10.789 -0.3277  0.2239  0.8720
41126SOL    HW230494   6.201   6.776  10.885  0.6054 -1.0200 -0.3394
41127SOL     OW30495   5.746   1.313   7.758 -0.0722 -0.3680 -0.3341
41127SOL    HW130496   5.708   1.394   7.791  1.0291 -0.5248  1.4970
41127SOL    HW230497   5.836   1.314   7.791  1.6344 -0.0044 -4.4425
41128SOL     OW30498  12.150   5.647   6.967  0.5243  0.0758  0.0376
41128SOL    HW130499  12.223   5.613   6.915 -0.0671 -0.0324 -0.7352
41128SOL    HW230500  12.133   5.734   6.931 -0.5309 -0.3864 -0.6452
41129SOL     OW30501   6.973   2.008   8.055  0.3338  0.7911 -0.1252
41129SOL    HW130502   6.997   1.952   8.129 -1.6562  0.0217  0.0144
41129SOL    HW230503   6.962   2.095   8.094 -0.7642  0.3816  0.5632
41130SOL     OW30504   5.591   5.040  11.974 -0.1886 -0.1317 -0.3184
41130SOL    HW130505   5.512   5.088  11.949 -0.6321 -1.3897 -1.4737
41130SOL    HW230506   5.658   5.070  11.914 -0.4695 -0.9312 -1.0506
41131SOL     OW30507   1.524   2.315   3.316  0.1812 -0.1057  0.7212
41131SOL    HW130508   1.570   2.234   3.340 -0.1287 -0.1875  1.0500
41131SOL    HW230509   1.494   2.351   3.400  0.5333  0.4848  0.6005
41132SOL     OW30510  12.683   2.484  12.243  0.3900 -0.1957  0.1111
41132SOL    HW130511  12.645   2.526  12.320 -0.7642  1.1694 -1.1623
41132SOL    HW230512  12.681   2.390  12.264  0.2423  0.1410  1.7758
41133SOL     OW30513   5.440   6.571  12.074 -0.0483 -0.5156  0.3861
41133SOL    HW130514   5.515   6.535  12.027  0.5107  0.3171  0.6257
41133SOL    HW230515   5.426   6.657  12.036  0.1519  0.0007  1.4618
41134SOL     OW30516   1.417   9.781   5.648 -0.1832  0.0319 -0.6995
41134SOL    HW130517   1.403   9.703   5.593  0.1793  0.3759 -1.2946
41134SOL    HW230518   1.407   9.854   5.587 -0.1995  0.4393 -0.2065
41135SOL     OW30519   1.231  10.278   6.869 -0.0527 -0.7136  0.0365
41135SOL    HW130520   1.312  10.275   6.818 -0.0763  0.3435 -0.0814
41135SOL    HW230521   1.164  10.303   6.805 -0.2522 -0.3645  0.3825
41136SOL     OW30522   9.305   9.286   1.177 -0.2271 -0.2205  0.1925
41136SOL    HW130523   9.210   9.280   1.187 -0.1046  0.4962  2.4226
41136SOL    HW230524   9.317   9.349   1.107 -1.4053  0.2068  0.3411
41137SOL     OW30525   6.837   2.320   3.691  0.3409 -0.3827 -0.1213
41137SOL    HW130526   6.780   2.324   3.768 -0.7074 -2.3213 -0.7272
41137SOL    HW230527   6.840   2.410   3.659 -2.0178 -0.1161  0.2340
41138SOL     OW30528  12.645   3.370  11.570  0.0370  0.6390 -0.0203
41138SOL    HW130529  12.716   3.422  11.534  0.2524 -0.2208 -0.9040
41138SOL    HW230530  12.689   3.296  11.612 -0.1769  1.8977  2.6055
41139SOL     OW30531   0.341   7.744   0.422 -0.2029 -0.0312 -0.1646
41139SOL    HW130532   0.247   7.728   0.428 -0.2909 -1.2194 -2.9385
41139SOL    HW230533   0.381   7.658   0.434  0.3689  0.1081 -0.9682
41140SOL     OW30534   3.621   7.819   6.267 -0.6079 -0.0588  0.4082
41140SOL    HW130535   3.693   7.880   6.252 -1.5907  1.3655  1.2231
41140SOL    HW230536   3.573   7.818   6.184 -1.0181  0.8855  0.6277
41141SOL     OW30537   6.617   4.924   7.950  0.2676 -0.6428  0.5098
41141SOL    HW130538   6.568   4.842   7.942  0.3429 -0.5580 -1.2614
41141SOL    HW230539   6.708   4.897   7.950  0.3186 -0.5540 -0.8404
41142SOL     OW30540  12.295   3.273   8.181  0.0688  0.3360  0.1807
41142SOL    HW130541  12.284   3.364   8.211  2.2940  0.5232  0.6133
41142SOL    HW230542  12.372   3.276   8.125  0.0731 -1.2647  0.0664
41143SOL     OW30543   2.805   3.419   3.028  0.0681 -0.3367 -0.1163
41143SOL    HW130544   2.850   3.407   3.112  0.2940 -0.7791 -0.2982
41143SOL    HW230545   2.863   3.377   2.964  0.4299  0.9374 -0.6444
41144SOL     OW30546   1.928  10.682   7.245 -0.2637  0.3367  0.0362
41144SOL    HW130547   1.974  10.629   7.310 -0.3668 -0.2762 -0.3868
41144SOL    HW230548   1.982  10.761   7.236 -1.8179  1.9651  3.1822
41145SOL     OW30549   8.178   5.768   9.479 -0.2690 -0.3920 -0.6259
41145SOL    HW130550   8.211   5.808   9.398 -0.9668 -0.8017 -1.1274
41145SOL    HW230551   8.240   5.697   9.497  0.4205  0.2954 -0.2739
41146SOL     OW30552   0.066   5.926  11.790 -0.0858  0.5080  0.1177
41146SOL    HW130553   0.070   5.890  11.879  1.4659  0.1747 -0.0587
41146SOL    HW230554   0.123   6.003  11.792  1.9185 -0.8395 -1.1306
41147SOL     OW30555   2.142   1.097   6.948 -0.3176  0.3799  0.4357
41147SOL    HW130556   2.120   1.004   6.939  0.5816  0.2464 -0.6759
41147SOL    HW230557   2.069   1.143   6.907 -0.9730  0.1972  1.3701
41148SOL     OW30558  10.235   6.911   9.236 -0.4922 -0.1758  0.0700
41148SOL    HW130559  10.227   6.872   9.148 -0.2178 -1.8714  0.7651
41148SOL    HW230560  10.272   6.842   9.290 -5.1371 -1.0149  2.7178
41149SOL     OW30561  10.259   6.684   0.296 -0.6665 -0.0122  0.0475
41149SOL    HW130562  10.307   6.752   0.247 -0.9366  0.1107 -0.0489
41149SOL    HW230563  10.291   6.602   0.261 -1.4260  0.0793 -0.8958
41150SOL     OW30564   2.546  11.325   3.356  0.0734  0.3338  0.1415
41150SOL    HW130565   2.539  11.374   3.438  1.4656 -0.3620  0.7094
41150SOL    HW230566   2.483  11.253   3.367 -0.7766  1.0372 -0.0107
41151SOL     OW30567   0.215   2.724   8.152 -0.1724  0.3936  0.1824
41151SOL    HW130568   0.130   2.714   8.195  1.1564  1.7315  3.3946
41151SOL    HW230569   0.276   2.672   8.205  0.8551 -2.2983 -3.2405
41152SOL     OW30570   6.783   2.259  11.374  0.0000 -0.5060  0.0057
41152SOL    HW130571   6.709   2.225  11.424  0.2025 -0.6924  0.1851
41152SOL    HW230572   6.744   2.298  11.296 -0.1016 -3.0480 -1.3147
41153SOL     OW30573   5.209  12.015  10.963  0.0071  0.2947 -0.1987
41153SOL    HW130574   5.196  11.923  10.939 -0.9019  0.0139  1.2544
41153SOL    HW230575   5.292  12.038  10.921  0.0097 -1.0299 -1.0074
41154SOL     OW30576   8.485   1.674   7.298  0.4066 -0.1463  0.1214
41154SOL    HW130577   8.475   1.594   7.247  0.1211 -0.8467  1.2380
41154SOL    HW230578   8.541   1.649   7.371  0.1710  0.6334  0.5787
41155SOL     OW30579   3.484   5.923   6.787 -0.4716 -0.0737  0.3483
41155SOL    HW130580   3.395   5.954   6.802 -0.5410  0.6234 -1.2622
41155SOL    HW230581   3.489   5.840   6.834 -1.9192 -0.0595  0.5704
41156SOL     OW30582  11.941  11.961   4.717 -0.2324  0.1540 -0.4200
41156SOL    HW130583  11.918  12.051   4.741  1.0408  0.6489 -0.9835
41156SOL    HW230584  11.976  11.923   4.797  1.3304  0.8917 -0.7230
41157SOL     OW30585   5.552   6.266   6.450 -0.5590 -0.5099 -0.1725
41157SOL    HW130586   5.533   6.325   6.522 -0.9806 -0.1072 -0.6076
41157SOL    HW230587   5.480   6.203   6.449 -0.5036 -0.5735 -0.1781
41158SOL     OW30588   3.998  12.818   1.251 -0.4367 -0.0478 -0.1336
41158SOL    HW130589   3.962  12.845   1.167 -2.7063 -1.0330  0.4474
41158SOL    HW230590   3.922  12.809   1.309  0.9204 -0.5904  1.6873
41159SOL     OW30591   8.885   0.800  10.942 -0.1513 -0.1297 -0.2342
41159SOL    HW130592   8.973   0.787  10.907  0.6393 -0.1684  1.6555
41159SOL    HW230593   8.844   0.714  10.934 -0.0013 -0.1310 -1.0559
41160SOL     OW30594   4.562   0.574  12.641  0.2828  0.2702  0.3561
41160SOL    HW130595   4.477   0.618  12.639 -0.3665 -0.9063 -2.1571
41160SOL    HW230596   4.555   0.510  12.712  0.1374  2.0553  2.0027
41161SOL     OW30597  12.001   7.832  12.315  0.5137 -0.4706 -0.0531
41161SOL    HW130598  11.946   7.831  12.237 -0.0176  1.1010  0.2597
41161SOL    HW230599  11.939   7.848  12.387  1.4538  3.1797  0.1315
41162SOL     OW30600  10.611  10.007   4.132  0.9645 -0.2355 -0.8040
41162SOL    HW130601  10.649   9.921   4.119 -1.0259 -0.9827 -2.0956
41162SOL    HW230602  10.677  10.068   4.097  2.7575 -1.1028  0.8890
41163SOL     OW30603   8.128   1.278   3.959  0.3620  0.0773 -0.6553
41163SOL    HW130604   8.212   1.264   4.003  0.1682 -0.3513 -0.4109
41163SOL    HW230605   8.122   1.206   3.895 -1.0894 -1.6563  1.2831
41164SOL     OW30606  10.488  11.393   8.120 -0.2587  0.5220  0.0527
41164SOL    HW130607  10.555  11.389   8.188 -1.9663 -1.2602  1.7381
41164SOL    HW230608  10.422  11.453   8.154 -1.0677 -0.2788 -0.0567
41165SOL     OW30609  11.229   4.112  10.762  0.2705 -0.3552  0.2392
41165SOL    HW130610  11.154   4.053  10.754 -1.6271  1.9068  0.2224
41165SOL    HW230611  11.278   4.079  10.837 -0.9798 -1.6638  0.5090
41166SOL     OW30612   4.424   8.127   5.361  0.2409  0.2534  0.0605
41166SOL    HW130613   4.416   8.151   5.453 -0.3014  0.5264 -0.0549
41166SOL    HW230614   4.352   8.066   5.346 -0.7264  1.5210 -0.6045
41167SOL     OW30615   0.112   3.931   0.580 -0.1022  0.2440 -0.2907
41167SOL    HW130616   0.071   3.891   0.503  1.0715  1.0484 -1.3674
41167SOL    HW230617   0.161   3.860   0.621  0.6440  0.1816 -1.2636
41168SOL     OW30618  12.891  11.005   7.812  0.1102  0.1562  0.5037
41168SOL    HW130619  12.803  11.038   7.827  0.6102  1.4734  0.6602
41168SOL    HW230620  12.915  11.037   7.725 -0.1110 -1.4674 -0.1850
41169SOL     OW30621   3.381   1.136  11.003  0.2213 -0.1589  0.1989
41169SOL    HW130622   3.304   1.093  11.040 -0.2826  1.3680  1.0361
41169SOL    HW230623   3.409   1.197  11.072  1.9780 -0.4166 -0.2359
41170SOL     OW30624   5.419   1.533   6.310 -0.1533  0.1612 -0.0841
41170SOL    HW130625   5.329   1.516   6.338  0.0592  0.3963  0.7567
41170SOL    HW230626   5.412   1.605   6.248 -0.6121 -0.2540 -0.5220
41171SOL     OW30627   3.223  12.729   3.185  0.6967  0.0696 -0.4084
41171SOL    HW130628   3.231  12.648   3.235 -0.6397  0.6485  0.8298
41171SOL    HW230629   3.155  12.779   3.231  1.0958  1.6599 -1.4486
41172SOL     OW30630   6.173  10.381   0.184 -0.3655  0.5045  0.2685
41172SOL    HW130631   6.213  10.469   0.180 -0.2665  0.4325 -0.4912
41172SOL    HW230632   6.243  10.325   0.217  0.2254  0.3623 -1.1492
41173SOL     OW30633   4.495  10.386   2.270  0.0782  0.1733  0.9580
41173SOL    HW130634   4.409  10.422   2.250 -0.1954 -0.6276  0.6592
41173SOL    HW230635   4.553  10.463   2.273 -0.1952  0.5307 -1.1866
41174SOL     OW30636   6.156   2.852  11.764 -0.6604  0.0138  0.2765
41174SOL    HW130637   6.129   2.941  11.739  1.1525  0.6034  0.3047
41174SOL    HW230638   6.251   2.852  11.752 -0.3459 -1.2426  2.3906
41175SOL     OW30639   8.477   0.615  10.410 -0.5509  0.1034  0.5405
41175SOL    HW130640   8.447   0.706  10.421 -1.6774 -0.2139  0.2764
41175SOL    HW230641   8.412   0.563  10.456  0.0835 -0.5787  0.6735
41176SOL     OW30642   1.768   7.137   7.750  0.4155 -0.1094  0.4023
41176SOL    HW130643   1.767   7.208   7.686 -1.1558  0.2528  0.7815
41176SOL    HW230644   1.755   7.058   7.698  0.1674  0.0861  0.1658
41177SOL     OW30645   4.429   5.911   7.931  0.6012  0.3494 -0.0538
41177SOL    HW130646   4.438   5.879   8.021 -1.2260 -0.1142  0.0077
41177SOL    HW230647   4.442   5.833   7.877 -1.8335 -0.2003  0.0149
41178SOL     OW30648   3.327  11.254   6.676 -0.1971 -0.3137  0.2208
41178SOL    HW130649   3.301  11.341   6.704 -1.1292 -0.2514 -0.7815
41178SOL    HW230650   3.414  11.265   6.637 -1.1622  0.5562 -1.7782
41179SOL     OW30651   8.786   6.767   7.955 -0.2377  0.1130 -0.2725
41179SOL    HW130652   8.718   6.700   7.948  0.1254 -0.2621 -0.2232
41179SOL    HW230653   8.739   6.850   7.947 -0.5416 -0.1687 -1.6260
41180SOL     OW30654   8.061   1.939  10.451  0.3184  0.3660  0.2295
41180SOL    HW130655   8.139   1.890  10.479  1.2014  0.2124 -2.2786
41180SOL    HW230656   7.991   1.873  10.449  0.4865  0.1500  0.8882
41181SOL     OW30657   0.169   2.390   0.848 -0.8278  0.0926  0.2313
41181SOL    HW130658   0.100   2.422   0.906 -1.2121 -1.3644  0.6388
41181SOL    HW230659   0.247   2.384   0.903 -0.5612  0.9860 -0.0308
41182SOL     OW30660   1.126   3.517   3.524 -0.0544  0.0738 -0.1095
41182SOL    HW130661   1.217   3.547   3.534 -0.7453  2.1860  0.3901
41182SOL    HW230662   1.132   3.421   3.524  2.0204  0.1219  1.6107
41183SOL     OW30663  11.951   0.991   9.114  0.2244 -0.1023 -0.0818
41183SOL    HW130664  11.994   0.922   9.064 -1.1846 -2.0512  1.2266
41183SOL    HW230665  11.950   0.958   9.204  0.5732  2.2132  0.8548
41184SOL     OW30666   6.674  12.233   0.587 -0.0948  0.0102  0.2192
41184SOL    HW130667   6.599  12.196   0.541 -0.2994  0.1127  0.4731
41184SOL    HW230668   6.741  12.165   0.580  0.0996  0.2838 -0.7947
41185SOL     OW30669   5.730   5.448   0.175 -0.2897 -0.1259  0.0022
41185SOL    HW130670   5.734   5.537   0.141 -0.6081 -0.2294 -0.3057
41185SOL    HW230671   5.695   5.396   0.103 -1.5845 -0.2426  0.6984
41186SOL     OW30672  11.480  10.852   5.101  0.3389 -0.3975 -0.5614
41186SOL    HW130673  11.480  10.757   5.099 -0.6298 -0.4109 -0.4312
41186SOL    HW230674  11.568  10.877   5.071  0.2606 -1.3051 -1.6064
41187SOL     OW30675   4.132   3.418   4.795 -0.2512  0.0956  0.7665
41187SOL    HW130676   4.207   3.374   4.755 -0.2834  0.8688 -0.1904
41187SOL    HW230677   4.110   3.364   4.871  0.1981 -1.0859  0.0863
41188SOL     OW30678   8.958   6.228   1.174  0.3955 -0.6165 -1.0469
41188SOL    HW130679   8.870   6.204   1.202  0.2282 -0.1720 -1.1906
41188SOL    HW230680   8.946   6.272   1.091  0.4466  2.1298  0.3048
41189SOL     OW30681   2.712   9.457   1.534  0.1124  0.0828  0.2406
41189SOL    HW130682   2.797   9.413   1.523 -0.0769  0.2234 -2.4605
41189SOL    HW230683   2.734   9.545   1.564  0.8250 -0.2341  0.6831
41190SOL     OW30684   3.966   0.468  10.104 -0.5119 -0.1116 -0.2637
41190SOL    HW130685   3.900   0.517  10.152 -1.5365 -1.4124 -0.3065
41190SOL    HW230686   3.918   0.397  10.061  0.6691 -0.1715 -1.5876
41191SOL     OW30687   2.287   8.468   1.217 -0.2705 -0.0960 -0.0717
41191SOL    HW130688   2.261   8.550   1.176 -1.2040 -1.0378 -1.4356
41191SOL    HW230689   2.216   8.407   1.196 -0.1374 -0.9780  1.8588
41192SOL     OW30690   4.995   0.949   3.160 -1.0246  0.2171 -0.4242
41192SOL    HW130691   5.076   0.907   3.132  0.2525  0.7949  2.1198
41192SOL    HW230692   4.996   1.035   3.119  0.1758  0.5973  0.3745
41193SOL     OW30693   9.293   0.230   2.980 -0.3226  0.7201  0.4671
41193SOL    HW130694   9.243   0.310   2.961 -0.0116  0.7995 -0.0362
41193SOL    HW230695   9.368   0.234   2.920  0.2839  0.5973  1.2051
41194SOL     OW30696   7.320   2.532   9.021  0.2964 -0.3055 -0.2304
41194SOL    HW130697   7.271   2.601   9.064  0.2494 -0.2302 -0.4019
41194SOL    HW230698   7.255   2.464   9.003  0.3155 -0.3354 -0.1855
41195SOL     OW30699  10.868   5.109   8.469  0.0364  0.6618 -0.8259
41195SOL    HW130700  10.835   5.174   8.531 -2.0148 -0.9159 -0.1553
41195SOL    HW230701  10.826   5.027   8.496  2.4714 -0.9594 -1.6764
41196SOL     OW30702   1.074   6.043   8.635 -0.5734 -0.1090  0.0162
41196SOL    HW130703   1.003   6.016   8.694 -0.1447  1.4771  1.3335
41196SOL    HW230704   1.039   6.119   8.589 -0.1706 -0.0865 -0.2489
41197SOL     OW30705   9.841   6.303   7.794 -0.2509  0.2197 -0.4801
41197SOL    HW130706   9.759   6.278   7.835 -0.0786 -1.4193 -1.0574
41197SOL    HW230707   9.819   6.315   7.702  0.1030 -0.0347 -0.6020
41198SOL     OW30708  10.063   2.104   2.755 -0.2779  0.5261  0.5775
41198SOL    HW130709  10.102   2.152   2.681  1.7112 -0.1519  1.1121
41198SOL    HW230710  10.036   2.172   2.816  0.1295  1.0474  0.1907
41199SOL     OW30711  12.738   4.278  10.335 -0.1928 -0.7949  0.1518
41199SOL    HW130712  12.779   4.193  10.349  1.3347  0.0438  1.1063
41199SOL    HW230713  12.755   4.326  10.417 -0.0484  0.7804 -0.7626
41200SOL     OW30714   7.152   2.980  12.401  0.0221 -0.5548 -0.1570
41200SOL    HW130715   7.063   2.964  12.430  0.0524  0.1610  0.3369
41200SOL    HW230716   7.191   3.035  12.469  0.1912  0.8957 -1.3916
41201SOL     OW30717  11.619   6.203   5.253  0.1274  0.3134 -0.3623
41201SOL    HW130718  11.684   6.161   5.310 -1.4317 -0.6003  0.8442
41201SOL    HW230719  11.557   6.133   5.232 -0.1901  1.0217 -1.9279
41202SOL     OW30720   9.782   9.444   9.170  0.3333 -0.1878 -0.8746
41202SOL    HW130721   9.690   9.448   9.145  0.2904  0.2127 -0.6746
41202SOL    HW230722   9.798   9.353   9.194  0.1452 -0.3820 -1.4872
41203SOL     OW30723   0.380   3.974   6.719  0.0446  0.1908  0.6248
41203SOL    HW130724   0.451   3.972   6.655  0.0254 -0.4895  0.6160
41203SOL    HW230725   0.388   4.059   6.762  0.0045  0.6944 -0.3433
41204SOL     OW30726   3.622   4.399   8.275  0.1878 -0.2620 -0.5069
41204SOL    HW130727   3.694   4.401   8.212 -0.9172  0.3312 -1.8065
41204SOL    HW230728   3.574   4.480   8.259 -1.5206 -1.2439 -0.6109
41205SOL     OW30729   3.157   4.961   6.405  0.3851  0.0232  0.1161
41205SOL    HW130730   3.202   5.037   6.444  1.4822 -0.7617  0.4276
41205SOL    HW230731   3.228   4.903   6.378 -0.3862 -0.1075 -1.7880
41206SOL     OW30732  11.049   0.683   4.508 -0.4195  0.6702 -0.4742
41206SOL    HW130733  11.089   0.659   4.424 -0.5250 -0.1952 -0.2921
41206SOL    HW230734  11.076   0.773   4.523 -1.6300  1.3791 -2.1734
41207SOL     OW30735  11.651   2.949   3.233 -0.0144 -0.8679  0.2318
41207SOL    HW130736  11.637   2.948   3.139  0.9849 -2.1079  0.0500
41207SOL    HW230737  11.576   2.902   3.269  0.5663 -2.1496 -0.1570
41208SOL     OW30738  12.531  11.924   9.279 -0.0964 -0.2373  0.6190
41208SOL    HW130739  12.544  11.972   9.197 -0.9657  1.8652  1.6312
41208SOL    HW230740  12.456  11.867   9.262  0.4659 -0.6923 -0.3941
41209SOL     OW30741   0.074   9.499   8.703  0.3768  0.1512 -0.4118
41209SOL    HW130742   0.085   9.559   8.628 -2.2526  0.6527 -0.5046
41209SOL    HW230743   0.072   9.412   8.664 -0.5699  0.3848 -0.9338
41210SOL     OW30744   5.492   9.722   5.968  0.5784  0.2648 -0.4387
41210SOL    HW130745   5.542   9.747   5.890  0.9456 -1.4413 -0.7998
41210SOL    HW230746   5.411   9.773   5.963  1.3310  1.4424 -1.0156
41211SOL     OW30747   1.145   1.608  12.820 -0.2466 -0.2761  0.0453
41211SOL    HW130748   1.067   1.562  12.791 -0.3003 -1.1347  1.4450
41211SOL    HW230749   1.218   1.554  12.789 -0.1639  0.6400 -1.4521
41212SOL     OW30750   6.561   6.592   8.870  0.0299 -0.7069 -0.3668
41212SOL    HW130751   6.571   6.504   8.905  1.6203 -0.3784  0.0723
41212SOL    HW230752   6.572   6.650   8.945  0.4531 -0.0877 -0.8916
41213SOL     OW30753   9.204  11.237   8.939  0.3686  0.4398  0.1996
41213SOL    HW130754   9.276  11.272   8.992  0.3275  0.8410 -0.0001
41213SOL    HW230755   9.201  11.144   8.960  1.4157  0.2753 -0.3364
41214SOL     OW30756   4.588  11.992   8.745  0.5640 -0.6632  0.1248
41214SOL    HW130757   4.508  11.946   8.720 -1.4014  2.2691  0.5824
41214SOL    HW230758   4.612  11.953   8.830 -1.4493 -0.4198  0.8641
41215SOL     OW30759   9.472   0.852   1.753 -0.3139  0.3891  0.2967
41215SOL    HW130760   9.555   0.823   1.791 -0.3368  0.9909  0.8500
41215SOL    HW230761   9.483   0.947   1.744 -1.1786  0.5748  1.0233
41216SOL     OW30762   6.858  10.412  10.437 -0.1594  0.0641 -0.4579
41216SOL    HW130763   6.898  10.330  10.407  0.5114  0.5979 -1.0431
41216SOL    HW230764   6.764  10.398  10.426 -0.1166 -0.9494  0.2791
41217SOL     OW30765   5.555   0.188  10.006 -0.3899  0.0081  0.2640
41217SOL    HW130766   5.489   0.155  10.067 -0.2744 -0.1081  0.3260
41217SOL    HW230767   5.506   0.204   9.925 -1.3589  3.7085  1.3913
41218SOL     OW30768  12.759   6.149  10.621  0.0335  0.3254 -0.1375
41218SOL    HW130769  12.678   6.174  10.666 -0.4533 -1.5861  0.1369
41218SOL    HW230770  12.784   6.066  10.662  0.6115 -0.5181 -2.1074
41219SOL     OW30771   7.438  11.179   1.945 -0.8080 -0.5474  0.2863
41219SOL    HW130772   7.364  11.238   1.935  0.8146  1.6944  0.7292
41219SOL    HW230773   7.510  11.224   1.900  1.2024 -0.7469  3.0595
41220SOL     OW30774   6.643   6.904   6.635  0.2705 -0.1600  0.7027
41220SOL    HW130775   6.612   6.896   6.725 -0.4725 -0.1169  0.4621
41220SOL    HW230776   6.705   6.977   6.637 -1.9689  1.8722  0.6556
41221SOL     OW30777   5.889   4.191   0.706  0.3367  0.4852  0.5447
41221SOL    HW130778   5.845   4.115   0.668  1.7759 -1.1173  1.9250
41221SOL    HW230779   5.822   4.260   0.705 -1.4633 -1.1798  0.4984
41222SOL     OW30780   1.728   0.589   8.993  0.1073 -0.1061  0.1335
41222SOL    HW130781   1.679   0.509   9.013  1.8759 -1.7803 -1.7967
41222SOL    HW230782   1.810   0.558   8.955  1.6053  2.6337  0.8747
41223SOL     OW30783   2.911   4.105   1.244  0.0300 -0.3049 -0.1597
41223SOL    HW130784   2.874   4.142   1.163 -1.0509  0.3435  0.6027
41223SOL    HW230785   2.845   4.124   1.311  0.7711 -1.1039  0.8224
41224SOL     OW30786  11.788   2.056   6.978  0.1930  0.4179  0.0961
41224SOL    HW130787  11.706   2.054   7.027  0.0397  0.6169 -0.1525
41224SOL    HW230788  11.809   2.149   6.970  0.6117  0.3536  0.4440
41225SOL     OW30789   8.893   3.152  12.801 -0.1840 -0.9136 -0.0799
41225SOL    HW130790   8.920   3.240  12.827 -1.1065 -0.8475  0.7067
41225SOL    HW230791   8.797   3.155  12.802 -0.2272 -1.9161 -0.0853
41226SOL     OW30792   6.335   6.720  10.322  0.4120 -0.4892 -0.4804
41226SOL    HW130793   6.336   6.627  10.300 -1.0682 -0.5530 -0.4026
41226SOL    HW230794   6.403   6.730  10.388 -0.4904 -1.8563  0.7182
41227SOL     OW30795   6.061  12.120  10.380  0.1705  0.1292 -0.5613
41227SOL    HW130796   6.062  12.066  10.459  0.6814 -0.6306 -1.0736
41227SOL    HW230797   6.141  12.172  10.385  0.1046  0.2232 -0.4832
41228SOL     OW30798   9.031   5.257   8.361 -0.0625 -0.4912  0.8217
41228SOL    HW130799   8.943   5.223   8.375  0.5352 -2.0320  0.9856
41228SOL    HW230800   9.044   5.252   8.267 -0.2843  0.1276  0.7513
41229SOL     OW30801   0.223   5.114   6.325  0.0783 -0.4485 -0.0768
41229SOL    HW130802   0.294   5.107   6.388  0.6232 -1.0970 -0.7490
41229SOL    HW230803   0.145   5.130   6.379  0.7551  0.5320  0.6498
41230SOL     OW30804   5.152   9.245  10.241  0.2844 -0.1292  0.3464
41230SOL    HW130805   5.161   9.212  10.152 -1.6340 -1.2527  0.5304
41230SOL    HW230806   5.067   9.289  10.243  0.6079  0.5066  1.4560
41231SOL     OW30807  11.070   6.006   4.067 -0.4321  0.7854 -0.1444
41231SOL    HW130808  11.151   6.044   4.034 -0.3216  0.2487 -0.5122
41231SOL    HW230809  11.001   6.053   4.020 -0.2618 -0.5897 -1.9282
41232SOL     OW30810   1.182  12.057   5.214 -0.7718  0.6834  0.6311
41232SOL    HW130811   1.145  11.969   5.218  0.8273 -0.0050  1.3275
41232SOL    HW230812   1.113  12.111   5.176 -1.6567 -0.9366 -0.1594
41233SOL     OW30813   0.722   3.197   3.920  0.1393 -0.2102 -0.0290
41233SOL    HW130814   0.664   3.155   3.856  0.0097  0.1680 -0.1594
41233SOL    HW230815   0.738   3.129   3.985 -1.7459  0.1702  0.8820
41234SOL     OW30816   3.596  12.698   3.311  0.4943  0.4342  0.6514
41234SOL    HW130817   3.674  12.733   3.354  1.7065  0.0614 -1.1378
41234SOL    HW230818   3.549  12.774   3.279  1.7145  0.5909 -0.8652
41235SOL     OW30819  12.779   3.885   0.672 -0.1571 -0.0831  0.2790
41235SOL    HW130820  12.700   3.938   0.672 -0.0121  0.1526  1.1563
41235SOL    HW230821  12.828   3.915   0.596 -0.4091  0.5455  0.3583
41236SOL     OW30822  11.993   7.761  10.568  0.5090  0.2610 -0.0009
41236SOL    HW130823  12.006   7.736  10.660  0.2175 -0.6994 -0.2001
41236SOL    HW230824  12.059   7.710  10.520  0.8270  0.9495 -0.2957
41237SOL     OW30825   9.170  10.677   4.184  0.1942 -0.0918  0.3062
41237SOL    HW130826   9.163  10.723   4.267 -0.0163 -0.0930  0.2898
41237SOL    HW230827   9.238  10.612   4.198 -0.3444 -0.5777  0.7057
41238SOL     OW30828  11.521   5.603   3.567  0.8782  0.1020 -0.6725
41238SOL    HW130829  11.566   5.536   3.516  2.4880 -0.0278  0.8290
41238SOL    HW230830  11.552   5.590   3.656 -1.3788  0.6974  0.2699
41239SOL     OW30831  11.096   3.502   7.694 -0.3455 -0.6688  0.4161
41239SOL    HW130832  11.041   3.429   7.667 -0.7722  0.0053 -0.5833
41239SOL    HW230833  11.097   3.561   7.619  0.5475  0.0352  0.9545
41240SOL     OW30834   5.524   7.770   7.479  0.1109 -0.0897 -0.1964
41240SOL    HW130835   5.593   7.732   7.533 -0.9700 -0.2070  1.1423
41240SOL    HW230836   5.518   7.861   7.507  0.4206  0.2048 -1.0528
41241SOL     OW30837   8.445   7.437   8.764  0.4582  0.5244  0.2781
41241SOL    HW130838   8.538   7.418   8.752  0.5362 -0.4725  2.0647
41241SOL    HW230839   8.402   7.352   8.753 -0.2427  0.9633 -0.4390
41242SOL     OW30840   3.167   3.892   1.408 -0.8272  0.4375 -0.5234
41242SOL    HW130841   3.237   3.830   1.430 -1.3739 -0.0622 -0.1808
41242SOL    HW230842   3.136   3.864   1.322 -0.5418  0.7199 -0.7198
41243SOL     OW30843  12.856  11.700   0.818 -0.1747 -0.2281  0.0307
41243SOL    HW130844  12.844  11.640   0.891  1.3404 -0.9035 -0.2364
41243SOL    HW230845  12.882  11.645   0.744  1.6734  0.7368 -0.1107
41244SOL     OW30846   3.377   0.685   3.445 -0.0108  0.0351 -0.0406
41244SOL    HW130847   3.377   0.625   3.520  0.1419 -0.4804 -0.4443
41244SOL    HW230848   3.402   0.630   3.371 -1.6569  0.1992 -0.7488
41245SOL     OW30849   3.966   3.885  11.375  0.0004 -0.1716 -0.3139
41245SOL    HW130850   3.945   3.793  11.389 -0.8308  0.1076  0.3169
41245SOL    HW230851   3.881   3.929  11.367  0.3759  0.5965 -0.2217
41246SOL     OW30852   1.384   3.168  11.702  0.4005 -0.0484 -0.7194
41246SOL    HW130853   1.385   3.256  11.741  0.3053  0.8434 -2.5826
41246SOL    HW230854   1.299   3.132  11.726  1.2925 -0.5808  1.9398
41247SOL     OW30855   6.539   0.968   0.602 -0.0888  0.0748 -0.3147
41247SOL    HW130856   6.445   0.966   0.581 -0.0687 -0.9704 -0.3200
41247SOL    HW230857   6.556   0.884   0.643  0.7286  0.5072  0.2525
41248SOL     OW30858   1.929   2.553   3.908 -0.1141  0.1664 -0.6562
41248SOL    HW130859   1.853   2.502   3.935 -1.2925  2.0709 -0.2475
41248SOL    HW230860   2.003   2.492   3.917 -1.2640 -1.0371  1.1226
41249SOL     OW30861   7.886   3.064   4.483 -0.0818 -0.1228  0.5986
41249SOL    HW130862   7.820   3.013   4.529 -0.3480  0.3007  0.6859
41249SOL    HW230863   7.969   3.039   4.524 -0.4163  1.0488  2.0589
41250SOL     OW30864   0.362   3.680   5.832  0.0251 -0.4640  0.5258
41250SOL    HW130865   0.456   3.661   5.834  0.1470 -0.1826 -1.0078
41250SOL    HW230866   0.331   3.659   5.920  1.9813  1.8211  1.8804
41251SOL     OW30867   1.318   9.309   2.543 -0.1216 -0.2864  0.3555
41251SOL    HW130868   1.251   9.314   2.612 -0.0745 -0.2242  0.3972
41251SOL    HW230869   1.376   9.238   2.571 -0.3303 -0.5299  0.1752
41252SOL     OW30870   5.447   7.257   6.594 -0.0773  0.1887  0.0395
41252SOL    HW130871   5.469   7.347   6.571  1.5857 -0.5684 -1.5497
41252SOL    HW230872   5.503   7.237   6.669 -0.7763  0.5809  0.6871
41253SOL     OW30873   2.143  11.480  10.172  0.0035  0.0275  0.1023
41253SOL    HW130874   2.192  11.537  10.113 -1.3529 -0.5262 -1.6708
41253SOL    HW230875   2.164  11.511  10.260  0.4369  2.2978 -0.7482
41254SOL     OW30876  11.800   5.177  11.534 -0.3746 -0.0645  0.1152
41254SOL    HW130877  11.864   5.148  11.468 -0.4018  0.5306 -0.1731
41254SOL    HW230878  11.715   5.163  11.493 -0.4416 -0.8859  0.5124
41255SOL     OW30879   0.654  12.508   9.045  0.5065 -0.3551 -0.1061
41255SOL    HW130880   0.717  12.578   9.025 -0.7087  0.4075 -1.3881
41255SOL    HW230881   0.633  12.521   9.137 -1.4123  2.4795 -0.8304
41256SOL     OW30882  10.036   6.977   4.105  0.0036 -0.0343 -0.2742
41256SOL    HW130883  10.099   7.004   4.038 -0.1878 -0.1223 -0.4925
41256SOL    HW230884   9.955   6.962   4.057  0.8594 -4.3372 -0.8301
41257SOL     OW30885   7.327   6.918   2.568 -0.0200  0.2143  0.3091
41257SOL    HW130886   7.266   6.925   2.641  1.9288 -0.3109  2.0988
41257SOL    HW230887   7.411   6.947   2.604  1.2350 -1.0458 -1.4203
41258SOL     OW30888  10.203  10.577   8.734 -0.4143 -0.6354 -0.0312
41258SOL    HW130889  10.128  10.632   8.711 -1.1217 -1.6305 -0.1662
41258SOL    HW230890  10.274  10.639   8.752 -1.3598  0.3390  0.4426
41259SOL     OW30891   0.435   2.099   1.806 -0.3557 -0.0903 -0.2532
41259SOL    HW130892   0.391   2.029   1.854  1.2526 -2.1647 -1.6542
41259SOL    HW230893   0.528   2.078   1.811  0.4119  2.9965  0.7921
41260SOL     OW30894   8.198   2.543  11.957 -0.0306  0.1296 -0.0804
41260SOL    HW130895   8.190   2.628  11.999 -1.8000 -0.0258 -0.0242
41260SOL    HW230896   8.268   2.499  12.005 -0.6571  0.7026  1.4035
41261SOL     OW30897   0.099   8.416   5.813 -0.6777  0.2898 -0.1602
41261SOL    HW130898   0.114   8.448   5.723  2.0650  0.7211  0.3576
41261SOL    HW230899   0.038   8.344   5.803  0.6519 -0.6221 -2.5963
41262SOL     OW30900   9.629   2.161   0.507 -0.2104  0.0481  0.1546
41262SOL    HW130901   9.535   2.157   0.525 -0.2089 -0.5270  0.0421
41262SOL    HW230902   9.661   2.234   0.560 -0.6667  0.0454  0.4347
41263SOL     OW30903   2.082   2.323   7.173  0.1077 -0.3038 -0.0373
41263SOL    HW130904   2.171   2.296   7.150 -0.8590 -3.0478 -0.9169
41263SOL    HW230905   2.084   2.332   7.269  1.0263 -1.6098  0.0888
41264SOL     OW30906  12.460   6.759   5.420  0.3025 -1.0356 -0.4095
41264SOL    HW130907  12.463   6.854   5.424  2.1956 -0.9390 -2.1678
41264SOL    HW230908  12.544   6.731   5.459 -0.0501 -1.9621 -0.2894
41265SOL     OW30909   8.986   4.524   6.758 -0.2840  0.4868 -0.7270
41265SOL    HW130910   8.986   4.511   6.663 -1.1354 -0.0469 -0.6726
41265SOL    HW230911   8.902   4.487   6.787 -1.5613  3.5014 -0.1505
41266SOL     OW30912  10.859   5.165   3.342 -0.1277  0.0995 -0.1307
41266SOL    HW130913  10.911   5.195   3.416 -1.4618 -1.1622  1.3731
41266SOL    HW230914  10.770   5.195   3.361 -0.3298  0.6275 -1.7445
41267SOL     OW30915   8.511   5.832   2.014 -0.1573  0.2712 -0.2968
41267SOL    HW130916   8.551   5.828   1.927  1.7212 -2.6470  0.5557
41267SOL    HW230917   8.502   5.926   2.032  1.0376  0.9833 -2.8793
41268SOL     OW30918   1.015   4.667   1.527 -0.2508 -0.4237  0.2661
41268SOL    HW130919   0.956   4.739   1.504 -0.3048 -0.9871 -1.4713
41268SOL    HW230920   1.100   4.709   1.539 -0.5389  0.0928  0.5628
41269SOL     OW30921  10.707   5.039   1.150 -0.5295  0.2146  0.2772
41269SOL    HW130922  10.765   5.114   1.165 -1.4780  0.8858  0.6917
41269SOL    HW230923  10.731   5.008   1.062  1.1055 -0.1340  0.8033
41270SOL     OW30924  11.908   2.907   0.676  0.2204 -0.5107 -0.3222
41270SOL    HW130925  11.822   2.949   0.683  0.3491 -0.4002  0.7057
41270SOL    HW230926  11.890   2.815   0.693  0.6870 -0.0961  2.9592
41271SOL     OW30927   6.838   7.156   6.343 -0.1192  0.1208 -0.1126
41271SOL    HW130928   6.929   7.185   6.335  0.0088 -0.2713 -0.0847
41271SOL    HW230929   6.827   7.091   6.275 -0.4628  0.3669 -0.2942
41272SOL     OW30930   4.178   0.155   5.687  1.2079  0.0380 -0.0415
41272SOL    HW130931   4.100   0.201   5.719  0.6974 -1.4246  0.8847
41272SOL    HW230932   4.190   0.082   5.748  2.1981 -0.8687 -1.2799
41273SOL     OW30933   0.782   4.634   5.718  0.3029  0.3729 -0.2266
41273SOL    HW130934   0.860   4.579   5.726 -0.9184 -1.3287  0.7657
41273SOL    HW230935   0.719   4.594   5.778 -0.2180  3.7337  1.6979
41274SOL     OW30936  11.790   9.422  11.477  0.2055 -0.0174 -0.5384
41274SOL    HW130937  11.819   9.503  11.521  0.3644 -0.0372 -0.6081
41274SOL    HW230938  11.795   9.442  11.384  1.1163 -0.4076 -0.5797
41275SOL     OW30939   9.811  12.469   4.833  0.5073  0.0744 -0.1348
41275SOL    HW130940   9.784  12.546   4.883  1.3402 -1.2131  2.4957
41275SOL    HW230941   9.891  12.497   4.788  0.8897  0.7182  0.9021
41276SOL     OW30942  10.143   5.253   0.444 -0.1366  0.1155 -0.8643
41276SOL    HW130943  10.225   5.228   0.402  0.4904 -0.4216  0.6089
41276SOL    HW230944  10.112   5.328   0.393 -0.5437 -1.7495 -3.5708
41277SOL     OW30945  12.381  12.702   2.058 -0.4516 -0.1511  0.3228
41277SOL    HW130946  12.303  12.757   2.062  1.1998  2.3140  2.0943
41277SOL    HW230947  12.439  12.747   1.996  0.1762 -1.0063  0.2735
41278SOL     OW30948   1.168   4.294   0.614  0.3010 -0.2424  0.0385
41278SOL    HW130949   1.094   4.323   0.560  0.4121 -0.5154 -0.2720
41278SOL    HW230950   1.146   4.320   0.703  0.5285  1.0273 -0.2649
41279SOL     OW30951   5.885   3.888   6.833 -0.4722  0.1000 -0.7428
41279SOL    HW130952   5.979   3.877   6.846 -0.4925 -1.3578 -1.6450
41279SOL    HW230953   5.875   3.900   6.739 -1.3053 -1.3092 -0.8589
41280SOL     OW30954   9.251   4.272   2.147  0.0313  0.0418 -0.5164
41280SOL    HW130955   9.331   4.312   2.114 -1.2210  1.6386 -1.7857
41280SOL    HW230956   9.192   4.346   2.163 -1.6286 -1.1382 -0.8748
41281SOL     OW30957   8.450   7.015  11.536  0.1828  0.0207 -0.2468
41281SOL    HW130958   8.511   7.025  11.609 -0.8381  1.4336  0.4674
41281SOL    HW230959   8.427   6.922  11.537  1.4099 -0.3030  0.2003
41282SOL     OW30960   3.858   5.101   9.932  0.3736 -0.0208  0.3756
41282SOL    HW130961   3.767   5.128   9.930  0.5287  0.6139  1.3128
41282SOL    HW230962   3.884   5.098   9.839 -0.6878 -0.5659  0.0874
41283SOL     OW30963   1.862   3.698   8.949 -0.1893  0.1735 -0.4464
41283SOL    HW130964   1.889   3.610   8.977  2.0235  1.1255  0.6710
41283SOL    HW230965   1.864   3.693   8.853 -1.6266 -1.3846 -0.4464
41284SOL     OW30966  12.806   9.063   0.477  0.0737 -0.0735  0.2951
41284SOL    HW130967  12.852   9.001   0.421 -0.4356 -1.4668  1.3625
41284SOL    HW230968  12.800   9.019   0.562 -4.7039 -0.8283 -0.1311
41285SOL     OW30969  10.521   7.608   4.723 -0.5673  0.2275 -0.1487
41285SOL    HW130970  10.549   7.669   4.791  0.7943  0.1115 -0.5701
41285SOL    HW230971  10.507   7.663   4.646  0.4842  0.0680 -0.4788
41286SOL     OW30972   1.031  11.470   9.469 -0.2723 -0.2195 -0.3967
41286SOL    HW130973   0.952  11.521   9.450 -0.2057 -0.2450 -0.7526
41286SOL    HW230974   1.061  11.502   9.554  1.1450  2.0818 -1.6619
41287SOL     OW30975   3.670   4.100   8.350  0.2652  0.5887 -0.1310
41287SOL    HW130976   3.763   4.119   8.336 -0.2472  2.9956 -0.7207
41287SOL    HW230977   3.660   4.096   8.445  1.2244 -1.3199 -0.0772
41288SOL     OW30978   9.144  12.624   1.326  0.1080 -0.4431 -0.3638
41288SOL    HW130979   9.238  12.633   1.315  0.2617 -1.1183  0.3035
41288SOL    HW230980   9.124  12.537   1.291 -0.4468  0.1266 -1.5114
41289SOL     OW30981   5.669   6.665   2.507 -0.0092  0.2630 -0.4566
41289SOL    HW130982   5.584   6.641   2.468  0.1868 -1.4613  0.0865
41289SOL    HW230983   5.707   6.726   2.445 -2.0330  1.8294 -0.2680
41290SOL     OW30984   0.714   2.878  11.027  0.0306 -0.0656  0.4015
41290SOL    HW130985   0.799   2.901  11.065  1.3455 -2.3614 -0.8952
41290SOL    HW230986   0.733   2.868  10.933 -1.8007 -0.1759  0.0181
41291SOL     OW30987   9.527   1.836   6.191 -0.3113  0.2357 -0.1853
41291SOL    HW130988   9.539   1.784   6.112 -0.6757 -2.9134  1.6677
41291SOL    HW230989   9.610   1.828   6.238 -0.6609  0.6707  0.5210
41292SOL     OW30990   6.772  12.612  11.574  0.0692 -0.2881  0.5350
41292SOL    HW130991   6.685  12.649  11.590 -0.4361  0.2155 -2.6742
41292SOL    HW230992   6.823  12.635  11.652 -1.7677  2.2863  1.1088
41293SOL     OW30993   7.657   9.998   1.650  0.2606 -0.2006  0.2304
41293SOL    HW130994   7.734  10.008   1.594 -0.3029 -2.1635 -1.0199
41293SOL    HW230995   7.585  10.034   1.599  0.2114  0.9928  1.1053
41294SOL     OW30996   9.491  10.491   9.872 -0.3797  0.5910  0.2581
41294SOL    HW130997   9.578  10.451   9.871 -1.7941 -2.8108 -1.3441
41294SOL    HW230998   9.493  10.550   9.947  3.7216  1.8225 -0.5504
41295SOL     OW30999   1.545   9.752  11.131  0.3079  0.3639 -0.3766
41295SOL    HW131000   1.608   9.798  11.186 -1.5450  0.1498  2.0977
41295SOL    HW231001   1.460   9.787  11.157 -0.7125  0.1810 -3.1254
41296SOL     OW31002   8.743   5.492   0.024  0.0717 -0.2341  0.1067
41296SOL    HW131003   8.750   5.476  -0.070  2.0853  1.1341 -0.0453
41296SOL    HW231004   8.681   5.564   0.032 -0.6115 -0.7948 -0.1078
41297SOL     OW31005   9.202   3.030   7.950 -0.1328  0.3465  0.1561
41297SOL    HW131006   9.201   2.941   7.985 -1.2907  0.1579 -0.3168
41297SOL    HW231007   9.198   3.018   7.855 -0.4732  0.9114  0.0987
41298SOL     OW31008   1.174  10.941   5.436 -0.2461 -0.2387 -0.3325
41298SOL    HW131009   1.178  10.983   5.351  0.7675  0.4547  0.0407
41298SOL    HW231010   1.113  10.995   5.487  1.2572  0.9975  0.2309
41299SOL     OW31011   7.126   9.882   8.530  0.0632  0.0370  0.1872
41299SOL    HW131012   7.120   9.958   8.472  1.7772 -0.5502 -0.8383
41299SOL    HW231013   7.191   9.909   8.596 -0.5487  0.0388  0.8039
41300SOL     OW31014   7.646   7.285   5.160  0.5989 -0.3011 -0.3316
41300SOL    HW131015   7.677   7.208   5.112  1.2694 -1.4248  1.7668
41300SOL    HW231016   7.640   7.256   5.251 -0.0278  1.8860  0.3956
41301SOL     OW31017   0.841  11.568   2.746 -0.1974 -0.3668 -0.0082
41301SOL    HW131018   0.838  11.580   2.841  1.9844  1.6225 -0.1180
41301SOL    HW231019   0.858  11.655   2.711  1.1598 -1.3887 -2.0734
41302SOL     OW31020  12.907   2.572   6.248  0.2755  0.4964 -0.3118
41302SOL    HW131021  12.847   2.613   6.310 -0.0578  0.8151 -0.8332
41302SOL    HW231022  12.964   2.518   6.302 -0.1682  0.5714  0.2468
41303SOL     OW31023   2.796   8.498   7.053  0.0912 -0.5099 -0.1515
41303SOL    HW131024   2.854   8.534   6.987 -0.0527 -0.7612 -0.4195
41303SOL    HW231025   2.849   8.433   7.099 -0.0534 -0.9329 -0.5741
41304SOL     OW31026   7.008   0.551   0.118  0.1540 -0.7295 -0.3225
41304SOL    HW131027   7.054   0.624   0.078 -0.6332  0.3765  0.6950
41304SOL    HW231028   7.065   0.476   0.105  2.2456  0.5613  0.8783
41305SOL     OW31029   0.861  11.578   8.538 -0.1118  0.6423 -0.6028
41305SOL    HW131030   0.795  11.564   8.606 -1.1679 -1.3743 -1.9758
41305SOL    HW231031   0.864  11.673   8.527 -1.5251  0.8681  0.6813
41306SOL     OW31032   4.669   3.909   4.678  0.0067  0.4875  0.1419
41306SOL    HW131033   4.612   3.974   4.638  0.4641  0.2648 -0.8952
41306SOL    HW231034   4.610   3.849   4.723 -0.4545  1.2781  0.6174
41307SOL     OW31035   8.772   8.894   3.601 -0.0604 -0.1370 -0.2086
41307SOL    HW131036   8.741   8.847   3.679  2.7280  0.1778  1.2390
41307SOL    HW231037   8.828   8.830   3.556  1.6452  0.8736  0.3604
41308SOL     OW31038   3.129   0.883   6.473 -0.2892 -0.4347 -0.3181
41308SOL    HW131039   3.195   0.881   6.543  0.4504 -0.2029 -0.9917
41308SOL    HW231040   3.054   0.929   6.512  0.8157  1.4318 -0.2517
41309SOL     OW31041   7.305   9.370   2.888 -0.1032  0.6629 -0.4794
41309SOL    HW131042   7.381   9.392   2.835  0.1448  1.0322  0.0294
41309SOL    HW231043   7.232   9.372   2.827  0.2567  0.5801 -0.9133
41310SOL     OW31044   5.952   8.344   3.972 -0.1893  0.1774  0.3837
41310SOL    HW131045   5.975   8.280   4.040  1.0192  0.1295 -0.0436
41310SOL    HW231046   6.028   8.345   3.914 -0.6691  1.1815 -0.2472
41311SOL     OW31047   3.197  10.409   4.012  0.0775 -0.1295  0.2554
41311SOL    HW131048   3.109  10.446   4.007  0.2054  0.2246  0.6407
41311SOL    HW231049   3.194  10.333   3.953 -0.3038  0.2401 -0.2076
41312SOL     OW31050   2.770   5.293   6.533 -0.0021 -0.5527 -0.0783
41312SOL    HW131051   2.686   5.336   6.522  0.7068  0.8000 -0.4611
41312SOL    HW231052   2.750   5.210   6.575 -1.6527 -0.8339 -1.3296
41313SOL     OW31053  10.646   4.936   5.128 -0.5830  0.1094  0.0752
41313SOL    HW131054  10.734   4.959   5.099 -0.4590  1.2417  1.2440
41313SOL    HW231055  10.589   4.999   5.083 -0.4218  1.6552  1.9090
41314SOL     OW31056  10.047  10.175   0.277  0.2139 -0.2006 -0.0729
41314SOL    HW131057   9.997  10.178   0.359 -0.7540 -0.6247 -0.6334
41314SOL    HW231058  10.043  10.083   0.250  0.7840 -0.1209 -0.4421
41315SOL     OW31059   9.164  10.414   7.005  0.4216  0.0656 -0.5825
41315SOL    HW131060   9.128  10.384   7.088 -0.7207  0.5481 -0.8826
41315SOL    HW231061   9.216  10.340   6.973 -0.1690 -0.5865 -0.0482
41316SOL     OW31062   6.846  12.013  12.062 -0.2976 -0.3713  0.0572
41316SOL    HW131063   6.858  12.040  11.971  0.9972 -0.4908  0.1785
41316SOL    HW231064   6.931  11.978  12.088 -0.0781  1.3447  1.8783
41317SOL     OW31065  11.819   9.926   8.926 -0.3670 -0.5071  0.1413
41317SOL    HW131066  11.755   9.954   8.860  0.1175  1.2533  0.3485
41317SOL    HW231067  11.876   9.864   8.880 -0.1161  0.5831 -1.0861
41318SOL     OW31068   1.090   0.423   4.428 -0.3712  0.3271 -0.2101
41318SOL    HW131069   1.178   0.386   4.435 -1.0173 -1.1246  0.7624
41318SOL    HW231070   1.062   0.436   4.519 -1.6942 -0.6288 -0.4400
41319SOL     OW31071   5.366   5.722  12.491  0.0095  0.2632 -0.2278
41319SOL    HW131072   5.377   5.711  12.396 -2.0616  0.9019 -0.5856
41319SOL    HW231073   5.402   5.809  12.509 -1.4690  1.0423 -0.8368
41320SOL     OW31074  11.576   6.477   9.914  0.8338 -0.5945  0.5604
41320SOL    HW131075  11.526   6.396   9.912 -1.2414  0.6144  0.9670
41320SOL    HW231076  11.565   6.511  10.002  2.6222 -0.3807  0.7467
41321SOL     OW31077   8.208   9.745   1.690  0.3618 -0.4659 -0.6447
41321SOL    HW131078   8.287   9.721   1.738  0.5805 -0.9034 -1.2067
41321SOL    HW231079   8.167   9.813   1.743  1.0280 -0.3538 -0.2632
41322SOL     OW31080   4.098   3.377   6.497  0.0702  0.2125 -0.0210
41322SOL    HW131081   4.060   3.439   6.435  0.8180  0.3640 -0.3311
41322SOL    HW231082   4.146   3.314   6.443 -2.0430 -1.6592  0.1346
41323SOL     OW31083   8.994  12.473  12.138 -0.2187  0.3268  0.0762
41323SOL    HW131084   8.952  12.401  12.184 -0.0226 -1.2615 -2.0710
41323SOL    HW231085   9.086  12.447  12.131  0.1801  1.5348  0.6149
41324SOL     OW31086   4.332  12.297  12.350  0.4945  0.0577 -0.4358
41324SOL    HW131087   4.410  12.307  12.297  0.9941 -1.6651 -0.0703
41324SOL    HW231088   4.364  12.278  12.438 -0.3342  1.1137  0.1218
41325SOL     OW31089   2.654   3.720   2.114 -0.2684 -0.0970 -0.4284
41325SOL    HW131090   2.707   3.790   2.076 -0.5857 -1.0700 -2.8451
41325SOL    HW231091   2.676   3.643   2.062 -1.6649 -1.2781  0.6392
41326SOL     OW31092   7.510   9.158   3.753  0.2444 -0.5540  0.0976
41326SOL    HW131093   7.598   9.128   3.778 -0.0752 -1.5767  0.0235
41326SOL    HW231094   7.451   9.108   3.808 -0.3178 -0.0810 -0.0655
41327SOL     OW31095   7.578   2.907  11.122  0.1941 -0.5768 -0.6352
41327SOL    HW131096   7.496   2.928  11.168  0.3251 -2.7137  0.7286
41327SOL    HW231097   7.556   2.914  11.029 -0.8696  1.1468 -0.2972
41328SOL     OW31098   8.097   2.557   0.572 -0.1719  0.3384 -0.1576
41328SOL    HW131099   8.011   2.522   0.550 -0.1976  0.9772 -1.1363
41328SOL    HW231100   8.093   2.575   0.666 -1.3924  1.1063 -0.3358
41329SOL     OW31101   9.267   9.313   1.625 -0.1741  0.0328  0.2272
41329SOL    HW131102   9.317   9.376   1.676 -0.5533  0.8308 -0.3568
41329SOL    HW231103   9.291   9.227   1.661  0.5080  0.4950  0.8920
41330SOL     OW31104   6.971  12.908   5.993  0.2389 -0.3771  0.0026
41330SOL    HW131105   7.058  12.948   5.992 -0.7053  1.7725 -1.6579
41330SOL    HW231106   6.940  12.920   6.083  0.5545  1.4138 -0.0985
41331SOL     OW31107   5.611   8.393  11.908 -0.0423 -0.0193  0.1930
41331SOL    HW131108   5.698   8.416  11.877  0.4400 -2.3295 -0.3015
41331SOL    HW231109   5.600   8.444  11.989  1.9234 -0.0040  0.4942
41332SOL     OW31110   0.422  10.370   4.796 -0.9572 -0.4668 -0.3088
41332SOL    HW131111   0.407  10.297   4.857 -0.7832  0.1192  0.4427
41332SOL    HW231112   0.412  10.330   4.709 -1.3179 -1.2899  0.0949
41333SOL     OW31113   5.158   3.559   2.577  0.4001  0.0536  0.4412
41333SOL    HW131114   5.227   3.618   2.609  0.5768  0.2273 -0.2421
41333SOL    HW231115   5.086   3.616   2.553  0.3454 -0.0584  0.3368
41334SOL     OW31116  10.265   9.612   2.968  0.8089  0.6570 -0.8954
41334SOL    HW131117  10.361   9.613   2.970  0.8229  1.4698  1.6011
41334SOL    HW231118  10.240   9.576   3.053 -1.1089  1.0342 -1.2599
41335SOL     OW31119   9.154   1.747   9.280 -0.5086  0.0918 -0.0572
41335SOL    HW131120   9.138   1.681   9.212 -0.8147 -0.0714  0.1675
41335SOL    HW231121   9.135   1.831   9.238 -0.2752  0.0222 -0.2998
41336SOL     OW31122   5.577  10.358   8.285  0.7936  0.6135 -0.1141
41336SOL    HW131123   5.522  10.296   8.238  0.5172 -0.2761  1.3151
41336SOL    HW231124   5.667  10.332   8.264  0.7305 -1.3359  1.6522
41337SOL     OW31125  12.299   4.746   3.082 -0.0775 -0.2104 -0.3074
41337SOL    HW131126  12.379   4.700   3.106 -0.4346 -0.4825  0.3777
41337SOL    HW231127  12.318   4.783   2.996  2.3300  3.1815  1.4030
41338SOL     OW31128   5.820  11.740   6.303  0.0795 -0.1224  0.1123
41338SOL    HW131129   5.779  11.670   6.252 -1.0729  1.6899 -1.6280
41338SOL    HW231130   5.747  11.798   6.326  1.1974  1.4386 -0.1094
41339SOL     OW31131  12.283   2.097  11.027 -0.2909  0.0268 -0.1318
41339SOL    HW131132  12.361   2.046  11.004 -0.3872 -0.0272 -0.3481
41339SOL    HW231133  12.316   2.176  11.069  0.0312  1.3233 -2.6597
41340SOL     OW31134   0.161  12.038   6.856 -0.1401  0.6120  0.0632
41340SOL    HW131135   0.225  12.092   6.902  1.8029 -0.4968 -1.2540
41340SOL    HW231136   0.084  12.038   6.914  0.6772  2.7153  1.2522
41341SOL     OW31137   4.730   2.937   4.325 -0.1301  0.4709  0.1003
41341SOL    HW131138   4.809   2.898   4.362  0.2659  2.4838  1.5866
41341SOL    HW231139   4.668   2.940   4.399 -0.8492  0.7938 -0.5025
41342SOL     OW31140   7.779  10.141   1.850  0.6432  0.0612  0.3344
41342SOL    HW131141   7.729  10.222   1.835 -0.3419 -0.7222 -0.8808
41342SOL    HW231142   7.740  10.078   1.789  0.6597 -1.6494  1.9993
41343SOL     OW31143   4.881   3.848   6.075  0.0339 -0.3544  0.9260
41343SOL    HW131144   4.799   3.843   6.123  0.9726 -0.9206  2.5826
41343SOL    HW231145   4.910   3.938   6.085 -0.1993 -0.2528  0.6777
41344SOL     OW31146   6.255   2.160   8.247 -0.5094  0.5095  0.5208
41344SOL    HW131147   6.314   2.133   8.177  0.1137 -0.6560  1.4531
41344SOL    HW231148   6.188   2.092   8.250 -2.4254  2.2166 -1.0448
41345SOL     OW31149   6.717   7.357   5.271  0.0388  0.3953  0.0458
41345SOL    HW131150   6.668   7.330   5.193  1.7327  1.3037 -1.4248
41345SOL    HW231151   6.804   7.319   5.258  0.8100  1.8429  0.7126
41346SOL     OW31152  11.952   5.352   5.656 -0.8720 -0.7964  0.2348
41346SOL    HW131153  11.988   5.313   5.576  0.8142  0.2547  0.4344
41346SOL    HW231154  11.945   5.279   5.717  1.3150 -1.0045  0.2914
41347SOL     OW31155   6.772  11.711   4.518  0.2378  0.1192  0.5774
41347SOL    HW131156   6.834  11.678   4.454 -0.3884 -0.5366  0.3027
41347SOL    HW231157   6.774  11.806   4.506 -0.7670 -0.0590 -1.2605
41348SOL     OW31158   2.974  12.032   7.988  0.1767  0.4992  0.0141
41348SOL    HW131159   2.908  12.098   7.967 -0.5118 -0.3744 -0.6823
41348SOL    HW231160   2.960  11.963   7.923  2.0084  0.4367 -0.3775
41349SOL     OW31161  11.671   5.381   7.711 -0.1053  0.0601 -0.4649
41349SOL    HW131162  11.601   5.347   7.767 -0.4677  0.5598 -0.6015
41349SOL    HW231163  11.746   5.389   7.769 -0.1111 -0.6409 -0.3531
41350SOL     OW31164   1.876   8.814  11.051 -0.6760 -0.1545  0.2875
41350SOL    HW131165   1.939   8.877  11.086  0.2531  0.7468 -2.7511
41350SOL    HW231166   1.818   8.865  10.995  0.4459 -1.9074 -2.7329
41351SOL     OW31167   6.282  12.269  10.456 -0.4853  0.6306 -0.2649
41351SOL    HW131168   6.349  12.201  10.465 -2.3725 -1.0268  4.2877
41351SOL    HW231169   6.330  12.351  10.455  1.7455 -0.4516  2.9564
41352SOL     OW31170  10.521   1.122   2.772  0.0382  0.0778  0.3275
41352SOL    HW131171  10.606   1.080   2.785 -0.3750 -0.7362  0.4775
41352SOL    HW231172  10.535   1.185   2.701  0.6091 -0.4915 -0.0714
41353SOL     OW31173  12.764   4.053   7.637 -0.1753  0.2298  0.2082
41353SOL    HW131174  12.713   3.973   7.648 -0.5891  0.7195  2.4854
41353SOL    HW231175  12.700   4.119   7.610 -0.0929  0.1096 -0.2905
41354SOL     OW31176   0.002  10.594   9.561  0.3910  0.4427 -0.3562
41354SOL    HW131177  -0.036  10.586   9.648  0.4838  0.1867 -0.3412
41354SOL    HW231178   0.096  10.603   9.576  0.5154 -0.5582 -0.4751
41355SOL     OW31179   4.908   9.570   9.626  0.5143  0.2599  0.2090
41355SOL    HW131180   4.888   9.660   9.653 -1.0630 -0.1182  0.3574
41355SOL    HW231181   4.914   9.574   9.530 -0.3326  0.3825  0.1571
41356SOL     OW31182   2.383   9.247   2.939  0.1055  0.0587 -0.3634
41356SOL    HW131183   2.300   9.271   2.899  0.0631  1.1705  0.3450
41356SOL    HW231184   2.360   9.180   3.003 -0.2382  0.2898 -0.2414
41357SOL     OW31185   0.247  11.151   9.238 -0.6535  0.0295 -0.4446
41357SOL    HW131186   0.333  11.130   9.275 -1.4010 -0.6594  0.9595
41357SOL    HW231187   0.266  11.218   9.172  0.7208  1.6082  1.4273
41358SOL     OW31188   9.888   5.188   6.203  0.1566  0.2210  0.2646
41358SOL    HW131189   9.857   5.275   6.226 -0.4424 -0.0697  0.5858
41358SOL    HW231190   9.947   5.164   6.275  3.1666  1.7493 -1.5048
41359SOL     OW31191  10.478   8.730   1.867  0.3119 -0.6389  0.3450
41359SOL    HW131192  10.570   8.746   1.889  0.6306  0.2731 -1.4174
41359SOL    HW231193  10.451   8.808   1.819 -1.2279 -1.1381  0.3364
41360SOL     OW31194   4.267   6.945   4.857  0.3672 -0.4464 -0.2809
41360SOL    HW131195   4.209   7.018   4.836 -0.5476 -0.9907  0.2822
41360SOL    HW231196   4.344   6.960   4.803 -0.4814  0.0458 -1.4028
41361SOL     OW31197   0.785  10.297   9.639 -0.0897  0.1354 -0.1811
41361SOL    HW131198   0.717  10.245   9.680  0.6240 -0.8745 -0.2381
41361SOL    HW231199   0.814  10.357   9.708  0.8024 -1.2569  0.7239
41362SOL     OW31200   0.716   8.232   5.656 -0.0465 -0.2371 -0.3309
41362SOL    HW131201   0.731   8.156   5.712 -1.2316  0.4527  0.9860
41362SOL    HW231202   0.765   8.302   5.697  0.2363 -0.0404 -0.9841
41363SOL     OW31203   1.113   2.865   9.078  0.4421 -0.7658  0.0661
41363SOL    HW131204   1.161   2.786   9.101 -0.1531 -1.4537 -0.9553
41363SOL    HW231205   1.027   2.833   9.048 -0.4811  0.3776  1.3359
41364SOL     OW31206   3.208   1.827   0.570  0.0975 -0.0372 -0.7452
41364SOL    HW131207   3.231   1.917   0.593  0.0152  0.2638 -1.7654
41364SOL    HW231208   3.142   1.836   0.501 -0.0734 -0.8870 -0.7080
41365SOL     OW31209   9.183   5.617   8.538  0.2026 -0.1778 -0.3216
41365SOL    HW131210   9.206   5.524   8.546  1.4675  0.1794  0.6006
41365SOL    HW231211   9.251   5.663   8.588 -0.9988  1.1831  0.1477
41366SOL     OW31212  12.185   7.030   8.578 -0.3426 -0.5894 -0.3229
41366SOL    HW131213  12.177   7.089   8.504 -1.0372  0.2785  0.4232
41366SOL    HW231214  12.099   7.033   8.621  0.4521 -0.0037  1.3044
41367SOL     OW31215   9.028   3.749   2.573  0.0856 -0.2822  0.4183
41367SOL    HW131216   9.022   3.793   2.488  0.5159 -0.9609  0.0221
41367SOL    HW231217   9.002   3.659   2.555  0.0889 -0.4109  1.0297
41368SOL     OW31218   6.198   0.686   7.161  0.2566  0.7193  0.5462
41368SOL    HW131219   6.189   0.753   7.228  0.3903  0.3552  0.9334
41368SOL    HW231220   6.187   0.603   7.208 -0.9874  0.4992 -0.1060
41369SOL     OW31221   7.793   5.893   4.418  0.4892  0.5511 -0.2832
41369SOL    HW131222   7.852   5.959   4.382  0.5109  1.3672  1.1968
41369SOL    HW231223   7.712   5.940   4.435 -0.2288 -0.3038 -1.2074
41370SOL     OW31224  10.977   4.628   1.344  0.2143 -0.1647 -0.6819
41370SOL    HW131225  10.994   4.592   1.432 -1.2687  4.3177  1.7551
41370SOL    HW231226  10.887   4.602   1.325 -0.5174  1.2378  0.6202
41371SOL     OW31227   6.488   7.337   6.559  0.0867  0.1422 -0.1596
41371SOL    HW131228   6.573   7.334   6.603  0.4380 -1.4839 -0.8664
41371SOL    HW231229   6.433   7.277   6.610 -0.2523  0.2231 -0.4342
41372SOL     OW31230   7.508   8.321   9.304  0.3373  0.3609 -0.1716
41372SOL    HW131231   7.424   8.281   9.280 -0.4440  1.5322  0.5071
41372SOL    HW231232   7.534   8.274   9.383 -0.4990  1.0328  0.5328
41373SOL     OW31233  11.335  11.044   7.085  0.4316 -0.0987 -0.5697
41373SOL    HW131234  11.282  11.080   7.014  0.1677  1.9188  0.5785
41373SOL    HW231235  11.283  10.972   7.120  0.1811 -0.5595 -1.8329
41374SOL     OW31236   9.304   0.790   3.788 -0.0887 -0.3037 -0.5983
41374SOL    HW131237   9.353   0.868   3.763 -1.1821  0.9126  0.8390
41374SOL    HW231238   9.361   0.745   3.851 -0.3008  0.5002  0.1960
41375SOL     OW31239   4.596   2.929   3.611  0.2626 -0.4905 -0.6479
41375SOL    HW131240   4.522   2.895   3.661 -0.2185 -0.5540 -1.3723
41375SOL    HW231241   4.558   2.998   3.557  1.0814  0.6699  0.2374
41376SOL     OW31242   2.987   8.237   7.453 -0.0690 -0.0002 -0.1548
41376SOL    HW131243   2.940   8.176   7.510 -1.5731  0.0935 -1.2377
41376SOL    HW231244   2.958   8.324   7.482 -0.5330  0.0618 -0.7937
41377SOL     OW31245  11.492   6.522   6.319  0.2231 -0.1585 -0.4623
41377SOL    HW131246  11.456   6.610   6.316  0.1735 -0.1867 -0.7994
41377SOL    HW231247  11.522   6.505   6.229 -0.1926 -0.6584 -0.5142
41378SOL     OW31248   9.017   4.466  10.366 -0.3854 -0.1276 -0.7333
41378SOL    HW131249   8.963   4.545  10.361 -1.4465 -0.8086 -0.4635
41378SOL    HW231250   8.960   4.397  10.333 -0.4617 -1.2434  1.5497
41379SOL     OW31251   1.061   0.661   5.780 -0.1294 -0.6134  0.0596
41379SOL    HW131252   1.121   0.704   5.841 -0.5424  0.7658 -0.4573
41379SOL    HW231253   1.118   0.615   5.718  0.5994  2.3715 -1.6932
41380SOL     OW31254   4.509   5.466   5.829 -0.3149  0.1986 -0.3682
41380SOL    HW131255   4.567   5.430   5.762 -1.7367  0.4606 -1.7978
41380SOL    HW231256   4.472   5.389   5.872  0.7440  0.0305  0.2970
41381SOL     OW31257   7.796   5.766   0.019 -0.1059  0.1774 -0.0671
41381SOL    HW131258   7.757   5.700   0.076 -0.6038  1.0016  0.5732
41381SOL    HW231259   7.780   5.849   0.064  0.1163  0.7799 -1.0665
41382SOL     OW31260  11.108   3.966   2.420  0.1500  0.4241  0.1249
41382SOL    HW131261  11.059   3.987   2.340 -1.5637  0.6272  1.1766
41382SOL    HW231262  11.137   3.876   2.407 -2.2361 -0.4398  0.2345
41383SOL     OW31263   2.402  11.703  12.943 -0.1137 -0.7082  0.1022
41383SOL    HW131264   2.377  11.618  12.905 -0.6733 -0.0519 -1.0440
41383SOL    HW231265   2.471  11.736  12.885  0.1313 -0.3881  0.5682
41384SOL     OW31266   6.754  11.002   1.262  0.5231  0.4158  0.0657
41384SOL    HW131267   6.752  11.067   1.332  0.6140  2.2268 -1.5179
41384SOL    HW231268   6.845  11.005   1.230 -0.5425  3.4783 -3.3967
41385SOL     OW31269   5.401   6.791  11.946 -0.1240  0.2078  0.3881
41385SOL    HW131270   5.313   6.827  11.932 -1.5211 -3.3462 -0.9458
41385SOL    HW231271   5.437   6.780  11.859 -1.1350 -4.3120  0.2877
41386SOL     OW31272   7.574   0.483   8.762  0.1350 -0.2573 -0.0455
41386SOL    HW131273   7.492   0.508   8.804  0.3087  0.3035 -0.0358
41386SOL    HW231274   7.609   0.414   8.818 -0.2380 -0.3744  0.0492
41387SOL     OW31275   8.523   3.289   3.852 -0.5644 -0.5157 -0.0476
41387SOL    HW131276   8.511   3.334   3.935 -0.9675 -0.2278 -0.2604
41387SOL    HW231277   8.594   3.226   3.869 -1.9774 -1.9017  1.1019
41388SOL     OW31278  12.461   3.396   4.762  0.5086 -0.2335  0.3930
41388SOL    HW131279  12.523   3.324   4.774 -0.6189 -1.2645  0.2278
41388SOL    HW231280  12.443   3.427   4.851  0.1517 -0.9104  0.5635
41389SOL     OW31281  10.310   7.230   2.512 -0.1575  0.3228  0.1435
41389SOL    HW131282  10.233   7.198   2.464  0.0021  0.7031 -0.3862
41389SOL    HW231283  10.382   7.223   2.448  0.0402  0.9307  0.2908
41390SOL     OW31284   8.568   2.178  10.446 -0.2951  0.0338 -0.6686
41390SOL    HW131285   8.569   2.211  10.356 -0.6803 -0.4847 -0.8699
41390SOL    HW231286   8.502   2.108  10.445  0.1382 -0.3904 -0.1316
41391SOL     OW31287   1.659   8.733   3.937  0.7004  0.3276  0.3854
41391SOL    HW131288   1.694   8.698   4.018  2.6325  0.0584 -0.5060
41391SOL    HW231289   1.732   8.731   3.876 -0.4461  1.3571 -1.1229
41392SOL     OW31290   0.556   0.733   3.122 -0.2920  0.4990 -0.4159
41392SOL    HW131291   0.524   0.644   3.135  1.6803 -0.3721 -1.2201
41392SOL    HW231292   0.477   0.784   3.104 -1.3685 -1.2837 -1.0161
41393SOL     OW31293   0.425   4.346   3.146  0.3800  0.1399  0.2261
41393SOL    HW131294   0.368   4.322   3.219  0.6615 -1.8881 -0.1657
41393SOL    HW231295   0.508   4.370   3.187  1.1284 -2.7178  0.5849
41394SOL     OW31296  11.668   4.334   5.457 -0.1980  0.5101 -0.7585
41394SOL    HW131297  11.708   4.407   5.504  2.0995 -0.1229 -1.6164
41394SOL    HW231298  11.656   4.367   5.368 -1.0084  0.4723 -0.6684
41395SOL     OW31299   8.076   1.580   4.483 -0.5756 -0.4289 -0.1276
41395SOL    HW131300   8.022   1.589   4.404  0.7562  0.4645 -0.9888
41395SOL    HW231301   8.101   1.488   4.484 -2.9177 -1.1254  0.8897
41396SOL     OW31302   2.287   8.803   9.827 -0.1440 -0.1839  0.2684
41396SOL    HW131303   2.295   8.841   9.914 -2.0572  2.4182 -0.5613
41396SOL    HW231304   2.376   8.809   9.790  0.3328  0.2307  1.4325
41397SOL     OW31305   8.513   1.374   4.390  0.8852  0.4562  0.0212
41397SOL    HW131306   8.423   1.369   4.422  0.4235 -0.5829 -1.3868
41397SOL    HW231307   8.549   1.452   4.434 -0.5936  0.7396  0.8025
41398SOL     OW31308   7.509   3.437  12.575 -0.4685  0.4068 -0.4817
41398SOL    HW131309   7.521   3.511  12.635 -0.2496 -0.7778  0.9965
41398SOL    HW231310   7.596   3.424  12.536 -0.9114  2.0235 -2.1504
41399SOL     OW31311   3.916   8.170  12.030  0.3106 -0.0965  0.2176
41399SOL    HW131312   3.987   8.231  12.011  0.0506 -0.0550 -0.6876
41399SOL    HW231313   3.897   8.182  12.123  2.5278 -1.2281  0.8761
41400SOL     OW31314   5.945   3.722   3.417  0.0288  0.0180  0.8147
41400SOL    HW131315   5.909   3.778   3.486 -0.0396 -0.1772  0.9373
41400SOL    HW231316   5.963   3.782   3.344  0.9987  0.3971  1.3383
41401SOL     OW31317   0.044  10.532   8.780 -0.4351  0.2571  0.5239
41401SOL    HW131318   0.061  10.483   8.860 -0.8261 -0.9054 -0.0775
41401SOL    HW231319  -0.024  10.596   8.805 -0.2197  0.2205  1.2182
41402SOL     OW31320   7.097   0.723   2.569 -0.6567 -0.7069 -0.0897
41402SOL    HW131321   7.036   0.763   2.507 -0.9814 -0.5886  0.3049
41402SOL    HW231322   7.126   0.795   2.625  0.1072 -0.7007 -0.4857
41403SOL     OW31323   8.431  10.547  10.960 -0.2843  0.0638  0.1519
41403SOL    HW131324   8.359  10.591  10.914  1.1042  0.8514 -1.3851
41403SOL    HW231325   8.510  10.591  10.928  0.8190  0.4418  3.1096
41404SOL     OW31326   8.527   5.213   8.246 -0.0217  0.0084  0.3413
41404SOL    HW131327   8.571   5.158   8.310  0.1990  0.1757  0.3358
41404SOL    HW231328   8.474   5.153   8.194  0.8779 -0.3267 -0.2206
41405SOL     OW31329   6.870   0.076   2.103  0.2346  0.6489 -0.0264
41405SOL    HW131330   6.877   0.050   2.011 -0.7148 -0.8656  0.2801
41405SOL    HW231331   6.949   0.127   2.120  0.9798  0.0103 -1.3834
41406SOL     OW31332   5.696   4.287   2.295 -0.2900 -0.6991 -0.4174
41406SOL    HW131333   5.661   4.198   2.289 -1.3974 -0.3177  0.0602
41406SOL    HW231334   5.642   4.329   2.362  2.1533 -0.5144  1.5364
41407SOL     OW31335   7.671  10.217  11.602  0.3619 -0.5039 -0.0110
41407SOL    HW131336   7.648  10.168  11.681 -0.9579 -1.1396 -0.7518
41407SOL    HW231337   7.607  10.189  11.537  0.5407  1.0613 -0.9165
41408SOL     OW31338   8.114   7.815  11.712 -0.0790  0.9568 -0.0677
41408SOL    HW131339   8.073   7.856  11.788 -0.1452  0.7486  0.0090
41408SOL    HW231340   8.137   7.727  11.741  0.3085  1.0313 -0.1517
41409SOL     OW31341  11.931   2.622   4.861 -0.7215 -0.3172 -0.0612
41409SOL    HW131342  11.919   2.597   4.953 -1.3482 -0.9854 -0.3089
41409SOL    HW231343  12.020   2.595   4.840 -0.6373 -0.3271  0.3032
41410SOL     OW31344   1.673   6.871   4.713 -0.3044  0.2829 -0.7069
41410SOL    HW131345   1.741   6.838   4.772 -1.3264  0.1961  0.4483
41410SOL    HW231346   1.710   6.860   4.626  0.1060 -2.2545 -0.2765
41411SOL     OW31347   4.204   8.640   3.765 -0.5456  0.4652 -0.2086
41411SOL    HW131348   4.116   8.615   3.737 -1.1116  0.6999  1.2687
41411SOL    HW231349   4.230   8.709   3.703 -0.5949 -0.8853 -1.8178
41412SOL     OW31350  11.671   4.781   1.926 -0.4896 -0.0857  0.0042
41412SOL    HW131351  11.579   4.757   1.921 -0.5384 -0.1962  1.1338
41412SOL    HW231352  11.678   4.835   2.005  0.5490 -0.7672  0.4101
41413SOL     OW31353   9.421   0.250   5.649 -0.5508 -0.3682  0.5224
41413SOL    HW131354   9.388   0.337   5.674  0.2967 -0.2385  1.2474
41413SOL    HW231355   9.514   0.254   5.668 -0.7216 -1.8855  1.8402
41414SOL     OW31356  10.799   1.326   3.072  0.0609  0.4091 -0.1304
41414SOL    HW131357  10.869   1.297   3.131 -1.3277  2.3597  2.7061
41414SOL    HW231358  10.750   1.246   3.052  1.2045 -0.4762  0.5210
41415SOL     OW31359   2.900  10.640  10.817  0.0796  0.1141  0.6115
41415SOL    HW131360   2.935  10.657  10.904 -1.2863  0.0552  1.1929
41415SOL    HW231361   2.807  10.661  10.824 -0.1432 -0.3426 -0.7102
41416SOL     OW31362   0.265  11.430   9.462 -0.5301  0.5521 -0.0488
41416SOL    HW131363   0.323  11.362   9.497 -1.4080 -0.6293 -0.7946
41416SOL    HW231364   0.184  11.383   9.442 -1.1431  1.8315 -0.6238
41417SOL     OW31365   1.496   0.126   3.914 -0.0167  0.4166 -0.1160
41417SOL    HW131366   1.525   0.054   3.857  0.2844  0.8160 -0.4761
41417SOL    HW231367   1.409   0.148   3.882 -1.7617 -2.2179  2.3166
41418SOL     OW31368   7.982   3.467  11.614 -0.3402 -0.0300  0.1304
41418SOL    HW131369   8.025   3.384  11.593  1.1730  0.5102  0.9521
41418SOL    HW231370   7.941   3.452  11.699 -0.6761 -0.1452 -0.0497
41419SOL     OW31371  10.595   5.937   8.296  0.0764  0.3990  0.3045
41419SOL    HW131372  10.628   5.883   8.367 -0.2615 -1.0536 -0.6153
41419SOL    HW231373  10.574   5.876   8.226 -2.7049  1.4575  0.1152
41420SOL     OW31374  10.698   4.244   7.299  0.4483 -0.0043 -0.1007
41420SOL    HW131375  10.752   4.290   7.235  0.3142  2.1356  1.2209
41420SOL    HW231376  10.633   4.197   7.247  1.7981 -0.2798 -1.5952
41421SOL     OW31377  12.939   4.139   2.473  0.0957 -0.1069  0.0884
41421SOL    HW131378  12.973   4.163   2.387  1.1196  2.1052  1.0333
41421SOL    HW231379  12.856   4.186   2.480  0.3574  0.3069  0.5475
41422SOL     OW31380  11.054   9.613   1.432  0.0696  0.6802  0.6795
41422SOL    HW131381  10.963   9.590   1.452  0.6062 -1.0245  1.3242
41422SOL    HW231382  11.057   9.708   1.441 -2.1775  1.0836 -1.6402
41423SOL     OW31383   4.277   3.898   3.941  0.3920 -0.1774 -0.1805
41423SOL    HW131384   4.300   3.909   4.033 -0.1959 -1.2364  0.1170
41423SOL    HW231385   4.331   3.824   3.912  1.1928  0.6814 -0.9327
41424SOL     OW31386   4.043   6.125  11.783  0.9299 -0.2517 -0.4253
41424SOL    HW131387   4.003   6.169  11.709 -0.7306  0.9938  1.1102
41424SOL    HW231388   3.993   6.044  11.794 -0.5245  0.7514  0.7822
41425SOL     OW31389   2.728   5.202   9.678 -0.1241  0.5571  0.6790
41425SOL    HW131390   2.742   5.143   9.604 -0.8067  1.8505 -0.5166
41425SOL    HW231391   2.795   5.269   9.670  0.9483 -0.2460  2.3051
41426SOL     OW31392  10.748   3.066   0.023  0.1892  1.0138  0.3238
41426SOL    HW131393  10.771   3.125  -0.050 -2.3447  0.7042 -0.8328
41426SOL    HW231394  10.715   2.987  -0.020 -0.7172  0.5493  1.8019
41427SOL     OW31395  10.412   9.973   8.126 -0.1601  0.0437  0.2278
41427SOL    HW131396  10.462   9.920   8.064  0.7652  0.9788  0.1472
41427SOL    HW231397  10.477  10.007   8.186 -0.3407  2.9335 -1.0508
41428SOL     OW31398   2.724  10.022  12.949 -0.0987 -0.1295 -0.0702
41428SOL    HW131399   2.782  10.098  12.947  1.6530 -1.4228 -0.3371
41428SOL    HW231400   2.710  10.000  12.857 -0.3166 -0.3549  0.0145
41429SOL     OW31401   7.603  11.117   9.980  0.5189 -0.1649  0.0139
41429SOL    HW131402   7.592  11.078   9.894 -1.5197 -0.2712  0.2806
41429SOL    HW231403   7.689  11.086  10.010  1.2605 -0.1189 -1.9486
41430SOL     OW31404   6.404   1.827   2.713 -0.5968 -0.0565 -0.5314
41430SOL    HW131405   6.490   1.803   2.748 -0.2950  1.6010 -0.0427
41430SOL    HW231406   6.422   1.898   2.651 -1.5509 -0.2059 -1.0103
41431SOL     OW31407   3.656  10.748   6.994 -0.1572 -0.1292 -0.0807
41431SOL    HW131408   3.607  10.768   6.913  1.0625 -3.3120 -1.7792
41431SOL    HW231409   3.604  10.679   7.036  1.0959 -1.1859 -0.1935
41432SOL     OW31410  10.402   1.168   9.908  0.4030 -0.4781  0.4123
41432SOL    HW131411  10.425   1.076   9.894  0.8951 -0.1813 -0.8560
41432SOL    HW231412  10.475   1.217   9.869 -1.0210  0.4554 -1.2169
41433SOL     OW31413   6.449  11.341   7.712  0.1078 -0.0771 -0.4040
41433SOL    HW131414   6.414  11.430   7.709  0.8298  0.2713  0.9733
41433SOL    HW231415   6.543  11.351   7.702  0.0550 -0.8580 -2.0586
41434SOL     OW31416   1.254   6.723   8.473  0.2538  0.6916 -0.0552
41434SOL    HW131417   1.244   6.718   8.568  0.0025  0.2414 -0.0989
41434SOL    HW231418   1.305   6.802   8.458 -0.4579  1.2448  0.3987
41435SOL     OW31419   0.929   5.342   3.751  0.3846 -0.0127  0.0669
41435SOL    HW131420   0.890   5.344   3.663  0.0207  1.1480  0.2304
41435SOL    HW231421   0.906   5.256   3.785 -0.4743 -0.0507 -0.5535
41436SOL     OW31422   1.865  10.854  12.265 -0.0997  0.0731 -0.0998
41436SOL    HW131423   1.798  10.795  12.230 -0.8048  0.0128  1.2844
41436SOL    HW231424   1.828  10.942  12.255  0.4395  0.2047 -1.0607
41437SOL     OW31425  10.351   6.222  11.001  0.1029  0.5174  0.4417
41437SOL    HW131426  10.319   6.184  11.082 -0.1135 -0.2685  0.0012
41437SOL    HW231427  10.328   6.158  10.934  0.5633  1.0052 -0.1947
41438SOL     OW31428   1.034   3.239   3.884 -0.7029  0.1195 -0.3685
41438SOL    HW131429   1.092   3.206   3.953 -0.5059 -0.9747 -1.0316
41438SOL    HW231430   0.951   3.193   3.899 -0.1059 -1.6293 -1.9528
41439SOL     OW31431   9.412   1.427   4.812 -0.0385 -0.2190  0.2094
41439SOL    HW131432   9.385   1.427   4.904 -0.8861  1.4450 -0.0037
41439SOL    HW231433   9.349   1.485   4.769  0.7632 -0.4237 -1.3002
41440SOL     OW31434  11.170   3.684   1.260  0.7075  0.2375 -0.8982
41440SOL    HW131435  11.166   3.636   1.342 -0.5875  2.1486  0.2414
41440SOL    HW231436  11.246   3.742   1.269  0.4982  0.5314 -0.9845
41441SOL     OW31437   1.829   6.930   9.158  0.4278  0.1587 -0.0359
41441SOL    HW131438   1.795   6.903   9.243 -1.1047 -1.0876 -0.9785
41441SOL    HW231439   1.801   7.021   9.148 -1.7254 -0.4647 -0.2563
41442SOL     OW31440  10.401   2.856   2.182  0.1246 -0.0205 -0.3445
41442SOL    HW131441  10.487   2.831   2.215 -0.0947 -0.4402 -0.0796
41442SOL    HW231442  10.419   2.928   2.122  0.8268 -1.1005 -1.4764
41443SOL     OW31443   7.424  11.763   2.560 -0.4253 -0.0596 -0.0317
41443SOL    HW131444   7.464  11.812   2.489  0.0993 -1.2914 -0.6256
41443SOL    HW231445   7.463  11.798   2.639  0.8343 -0.3081 -0.5200
41444SOL     OW31446   0.233  10.258  10.924 -0.5557  0.0161 -0.1051
41444SOL    HW131447   0.182  10.244  10.844  0.4302 -1.4939 -0.5203
41444SOL    HW231448   0.258  10.170  10.952  1.1612  0.6516  0.4951
41445SOL     OW31449  11.214   6.637   9.231  0.7913 -0.1309  0.3367
41445SOL    HW131450  11.124   6.658   9.254 -0.2956 -1.7645 -2.0075
41445SOL    HW231451  11.252   6.721   9.205  0.2788  0.7255  2.1922
41446SOL     OW31452   2.214   8.324   8.474  0.3870 -0.5347  0.2502
41446SOL    HW131453   2.142   8.318   8.412  0.3094 -0.7310  0.3587
41446SOL    HW231454   2.285   8.367   8.425 -0.3127  1.1084  0.5945
41447SOL     OW31455  10.521  11.195   2.520  0.6670 -0.2392 -0.4123
41447SOL    HW131456  10.454  11.221   2.456 -0.3003 -1.2532  0.1444
41447SOL    HW231457  10.486  11.225   2.604  0.9964 -0.6260 -0.1369
41448SOL     OW31458   5.348   6.374   7.540  0.3026 -0.8060  0.2846
41448SOL    HW131459   5.325   6.416   7.458  0.0678 -0.0493  0.7279
41448SOL    HW231460   5.264   6.358   7.584  0.4834  1.8190  1.8329
41449SOL     OW31461   0.207   3.845   1.995 -0.5285  0.1348 -0.4056
41449SOL    HW131462   0.294   3.842   2.035  0.5386  0.8246 -2.4818
41449SOL    HW231463   0.176   3.934   2.013 -0.9914 -0.2259  0.6464
41450SOL     OW31464   7.443   1.719   9.526 -0.1056 -0.0671 -0.2391
41450SOL    HW131465   7.375   1.673   9.575  0.1954  0.4378  0.6795
41450SOL    HW231466   7.397   1.794   9.486 -0.0405  0.4553  0.6443
41451SOL     OW31467   0.895   4.457   7.381 -0.5548 -0.4115 -0.8092
41451SOL    HW131468   0.853   4.372   7.366 -1.3992  0.1790 -2.0135
41451SOL    HW231469   0.822   4.520   7.380 -0.0308  0.2754  0.7630
41452SOL     OW31470   0.340   3.512   8.474 -0.1870  0.0099  0.5140
41452SOL    HW131471   0.315   3.454   8.402  1.2064  1.1351 -0.9496
41452SOL    HW231472   0.258   3.532   8.519 -1.1085 -0.5985 -0.8450
41453SOL     OW31473  12.732   1.899   2.684 -0.0201 -0.8675 -0.0801
41453SOL    HW131474  12.699   1.981   2.719 -0.6258 -1.3894  0.5858
41453SOL    HW231475  12.684   1.831   2.731  1.3357 -1.6319  0.2615
41454SOL     OW31476   4.339   0.620   0.600  0.0216  0.5610  0.2245
41454SOL    HW131477   4.414   0.633   0.543 -0.1632  0.5278 -0.0276
41454SOL    HW231478   4.269   0.672   0.560  0.2835  1.7088  1.2138
41455SOL     OW31479  10.079  10.958  12.452 -0.0984 -0.8883  0.1178
41455SOL    HW131480  10.070  11.051  12.430  0.9676 -0.4503  1.4164
41455SOL    HW231481   9.994  10.920  12.431 -0.3732  0.2558 -0.9743
41456SOL     OW31482   8.114  12.356   7.425  0.2376  0.1262 -0.1189
41456SOL    HW131483   8.095  12.320   7.512 -2.5168  0.5918 -0.4360
41456SOL    HW231484   8.054  12.430   7.416  1.4397  0.9594 -1.9082
41457SOL     OW31485   2.162   5.231  12.205 -0.4384 -0.5309 -0.0643
41457SOL    HW131486   2.130   5.141  12.206  1.0533 -1.1005 -0.8477
41457SOL    HW231487   2.131   5.268  12.288  0.1459 -2.2132  0.9669
41458SOL     OW31488  10.922   8.470   2.071  0.3567  0.2819  0.2191
41458SOL    HW131489  11.017   8.475   2.085  0.9468 -0.2845 -2.8961
41458SOL    HW231490  10.910   8.495   1.979 -2.4580 -0.2931  0.3504
41459SOL     OW31491   7.582   7.518   5.284  0.3578  0.1575  0.0561
41459SOL    HW131492   7.597   7.444   5.225  0.6050  0.4426 -0.2512
41459SOL    HW231493   7.661   7.522   5.338 -1.1291 -2.0017  2.5698
41460SOL     OW31494  11.024   6.512   3.662 -0.3263  0.6800  0.4474
41460SOL    HW131495  11.072   6.592   3.682  0.7665  0.3117 -0.5876
41460SOL    HW231496  11.047   6.452   3.734  3.7305 -0.7013 -1.6984
41461SOL     OW31497  11.790   4.704   0.568 -0.0491  0.4972  0.0779
41461SOL    HW131498  11.798   4.760   0.645 -1.2974 -1.5178  1.7729
41461SOL    HW231499  11.695   4.695   0.555  0.0899 -1.6121  0.2187
41462SOL     OW31500  10.491   9.132   9.673  0.0264 -0.3776  0.1149
41462SOL    HW131501  10.470   9.040   9.658 -0.1682 -0.1642 -0.9900
41462SOL    HW231502  10.413   9.180   9.645  0.2152  0.1397  0.4564
41463SOL     OW31503   8.377  12.265   7.118 -0.0762 -0.0560  0.3813
41463SOL    HW131504   8.347  12.300   7.203 -1.7141 -2.2300  0.7873
41463SOL    HW231505   8.306  12.286   7.058  0.0273 -0.5406  0.0874
41464SOL     OW31506   0.981   5.802   4.675  0.5397  0.0024 -0.0352
41464SOL    HW131507   1.044   5.811   4.746 -0.2136  1.0175  0.5362
41464SOL    HW231508   0.925   5.879   4.682  0.4295  0.1278 -1.7323
41465SOL     OW31509  11.527   8.715   0.270 -0.2665  0.4217 -0.0461
41465SOL    HW131510  11.508   8.803   0.303 -0.9821  0.5899 -0.8500
41465SOL    HW231511  11.472   8.707   0.192 -0.8710 -1.0681  0.5033
41466SOL     OW31512   2.297   8.902   1.664  0.2723 -0.2030  0.0410
41466SOL    HW131513   2.206   8.877   1.678 -0.9958  3.0831 -1.5520
41466SOL    HW231514   2.337   8.893   1.751 -1.3939 -2.0459  0.7067
41467SOL     OW31515  12.672   8.540   4.577  0.0700 -0.1209  0.4411
41467SOL    HW131516  12.612   8.500   4.640 -0.7406  0.4250  0.0426
41467SOL    HW231517  12.660   8.488   4.497 -1.5301  1.2683 -0.3059
41468SOL     OW31518   1.414   0.469   9.975  0.7902 -0.3079  0.8458
41468SOL    HW131519   1.369   0.491  10.057 -2.5876 -1.6643 -0.4670
41468SOL    HW231520   1.415   0.551   9.925  1.1424  0.0837  1.4849
41469SOL     OW31521   6.062   3.026   1.317 -0.5624  0.1723  0.3681
41469SOL    HW131522   6.061   3.117   1.347 -1.1544  0.2068  0.2592
41469SOL    HW231523   6.032   3.031   1.226  0.1863 -0.0485  0.0990
41470SOL     OW31524  12.077   8.547   5.935  0.4563  0.2288  0.2281
41470SOL    HW131525  12.103   8.578   5.849 -0.0098 -0.0761 -0.0260
41470SOL    HW231526  12.142   8.480   5.957  1.1337  0.9669  0.5361
41471SOL     OW31527   9.013   4.476   3.199  0.0515 -0.0944 -0.3321
41471SOL    HW131528   9.039   4.422   3.124 -0.8326 -0.5097 -0.3527
41471SOL    HW231529   8.931   4.437   3.229  0.8284 -0.4610  1.4052
41472SOL     OW31530   0.599  10.912   6.030 -0.5918 -0.6935 -0.3968
41472SOL    HW131531   0.504  10.907   6.040 -0.7742 -0.3533 -1.7315
41472SOL    HW231532   0.616  10.881   5.941  0.6101 -1.2504  0.0033
41473SOL     OW31533   2.651   8.089   0.351 -0.4049  0.6603  0.2408
41473SOL    HW131534   2.644   8.019   0.416 -0.5241 -0.7343 -1.2141
41473SOL    HW231535   2.581   8.150   0.372 -1.7829 -0.8525  0.1770
41474SOL     OW31536   5.822   8.682   4.285  0.6634  0.2554  0.0174
41474SOL    HW131537   5.840   8.621   4.357  0.4201  0.7229  0.4712
41474SOL    HW231538   5.819   8.625   4.207 -0.8696 -0.5106  0.5949
41475SOL     OW31539   3.059   8.126  12.662  0.6066 -0.2349 -0.2190
41475SOL    HW131540   2.985   8.133  12.602  0.5879 -1.9611 -0.4676
41475SOL    HW231541   3.053   8.204  12.718 -2.0939 -0.8650  0.5265
41476SOL     OW31542   6.194   4.145   2.817  0.4684  0.6761 -0.4226
41476SOL    HW131543   6.231   4.077   2.761 -1.7665 -1.0383  0.0312
41476SOL    HW231544   6.157   4.209   2.757  0.5103  0.2502 -0.9092
41477SOL     OW31545   1.980  11.623   3.374 -0.3537 -0.3254  0.3809
41477SOL    HW131546   2.018  11.590   3.456 -0.3181  0.9549  0.9051
41477SOL    HW231547   1.895  11.579   3.367 -1.5952  1.4719  2.5513
41478SOL     OW31548   2.080   1.070   3.969  0.4593  0.3647 -0.4882
41478SOL    HW131549   1.997   1.029   3.992  0.2080  1.2591  0.2578
41478SOL    HW231550   2.147   1.009   3.998  0.0993  0.5696  0.8245
41479SOL     OW31551   4.151   2.762  10.025  0.3335 -0.2790  0.2809
41479SOL    HW131552   4.240   2.770   9.989  0.3003  0.0163  0.2608
41479SOL    HW231553   4.115   2.850  10.018  0.5495 -0.0655  1.6016
41480SOL     OW31554   0.878  12.668   5.910 -0.7116  0.1278 -0.1245
41480SOL    HW131555   0.948  12.701   5.966  0.3668  0.0121 -1.3615
41480SOL    HW231556   0.802  12.663   5.968  0.0676  1.0884  1.0378
41481SOL     OW31557   8.380  12.481   0.715  0.6378 -0.2561  0.9733
41481SOL    HW131558   8.313  12.548   0.703 -0.0812 -0.9871  0.9081
41481SOL    HW231559   8.429  12.482   0.633  0.6080  0.1618  0.9579
41482SOL     OW31560  11.641   8.496  12.306 -0.2264 -0.7070  0.3032
41482SOL    HW131561  11.597   8.416  12.333 -1.3998 -0.5597 -1.0751
41482SOL    HW231562  11.721   8.467  12.262 -0.2313 -1.0740  0.5359
41483SOL     OW31563   6.544   4.988   3.777  0.3496 -0.0947 -0.0657
41483SOL    HW131564   6.571   4.943   3.856  1.0342  1.1206  0.4233
41483SOL    HW231565   6.464   4.943   3.749  0.3923 -0.8693  1.0197
41484SOL     OW31566   7.934  12.004  10.618 -0.4656  0.3722 -0.0814
41484SOL    HW131567   7.843  11.998  10.646 -0.2377  0.3055  0.6622
41484SOL    HW231568   7.984  11.963  10.688  0.2347  1.4562  0.0797
41485SOL     OW31569  11.493   0.721   4.487  0.5174  0.7308 -0.0126
41485SOL    HW131570  11.495   0.723   4.582  1.3676  1.3823 -0.0314
41485SOL    HW231571  11.490   0.813   4.461  0.4228  0.5651 -0.6161
41486SOL     OW31572   3.922   8.261   9.201  0.6173 -0.0643  0.5423
41486SOL    HW131573   3.908   8.179   9.154 -0.5412 -0.0316  0.8206
41486SOL    HW231574   3.902   8.241   9.292  1.0275  0.3554  0.7329
41487SOL     OW31575   6.849   0.600   2.681 -0.2060 -0.4248 -0.6981
41487SOL    HW131576   6.812   0.656   2.612  0.8176  1.7532  0.4386
41487SOL    HW231577   6.934   0.573   2.647  1.0253  1.9982  0.2885
41488SOL     OW31578   1.138   9.182   6.669 -0.6747 -0.0723  0.0189
41488SOL    HW131579   1.071   9.194   6.737  0.7198  2.6235  1.0672
41488SOL    HW231580   1.139   9.265   6.621  2.3798  0.3268  0.5759
41489SOL     OW31581   1.536   7.131   3.442  0.0987 -0.8118  0.1770
41489SOL    HW131582   1.484   7.160   3.517 -0.3329 -1.0144 -0.0394
41489SOL    HW231583   1.487   7.056   3.407  1.0120 -1.5883  0.5164
41490SOL     OW31584   7.744  12.409   6.544 -0.4920 -0.3133  0.3121
41490SOL    HW131585   7.834  12.381   6.560 -0.6928 -1.4270 -0.4037
41490SOL    HW231586   7.752  12.498   6.510  0.3063 -0.2501  0.6575
41491SOL     OW31587   7.826   5.222   3.539 -0.9275 -0.3394  0.5686
41491SOL    HW131588   7.851   5.307   3.504  0.8473 -0.1575  2.1281
41491SOL    HW231589   7.894   5.162   3.507 -1.9947 -1.1434 -0.2683
41492SOL     OW31590  12.618  11.020  11.190  0.2176 -0.0036 -0.3701
41492SOL    HW131591  12.590  10.933  11.163 -0.9667  0.8087 -1.9590
41492SOL    HW231592  12.550  11.051  11.250  1.1543 -0.5209  1.0124
41493SOL     OW31593   2.803   5.146   6.132  0.1053 -0.5613 -0.3584
41493SOL    HW131594   2.844   5.187   6.056 -0.1070 -0.8911 -0.6521
41493SOL    HW231595   2.763   5.066   6.098  0.2808 -0.8759  0.1583
41494SOL     OW31596   3.479   5.343   9.406 -0.3089 -0.5576  0.6607
41494SOL    HW131597   3.401   5.349   9.351 -0.2671  1.8722  0.7788
41494SOL    HW231598   3.517   5.258   9.383 -1.9106 -0.9402 -0.8306
41495SOL     OW31599   8.220   7.231   7.367  0.2350  0.0296  0.3097
41495SOL    HW131600   8.186   7.292   7.432 -0.8372 -1.3454  1.0867
41495SOL    HW231601   8.245   7.286   7.293 -2.0969  1.3117  0.3873
41496SOL     OW31602   1.112  10.302   0.013 -0.5999 -0.3048  0.1567
41496SOL    HW131603   1.131  10.280   0.104 -1.4556 -0.9650  0.1924
41496SOL    HW231604   1.127  10.220  -0.035 -0.5810 -0.0766 -0.2275
41497SOL     OW31605   8.146   8.452   2.105  0.5086 -0.1354 -0.3400
41497SOL    HW131606   8.224   8.438   2.158  0.8799  1.1271 -0.5350
41497SOL    HW231607   8.163   8.403   2.024  0.0838 -1.7841  0.5113
41498SOL     OW31608   4.750   9.701   4.958 -0.5119  0.3217  0.0985
41498SOL    HW131609   4.810   9.626   4.951 -1.2247 -0.3755  1.2335
41498SOL    HW231610   4.788   9.767   4.900 -0.0310 -1.0234 -1.1755
41499SOL     OW31611   0.475   4.308  12.525  0.6633  0.5697  0.2963
41499SOL    HW131612   0.532   4.233  12.538  0.5475  0.4815  0.2935
41499SOL    HW231613   0.514   4.355  12.451 -0.8690 -1.0464 -1.6351
41500SOL     OW31614   6.236   5.905   4.251  0.0220 -0.0366  0.0819
41500SOL    HW131615   6.164   5.924   4.191  1.0801  0.1917 -1.1770
41500SOL    HW231616   6.222   5.962   4.326 -0.0988  1.3863 -0.9907
41501SOL     OW31617   6.386   9.743   1.468 -0.1931  0.0874 -0.3375
41501SOL    HW131618   6.384   9.715   1.559 -0.5887  0.3260 -0.2711
41501SOL    HW231619   6.303   9.789   1.455 -1.2482 -1.9949 -1.4648
41502SOL     OW31620   4.007   0.623   2.657 -0.0178  0.1772 -0.0677
41502SOL    HW131621   4.094   0.601   2.690  0.2446 -0.1057 -0.9273
41502SOL    HW231622   4.007   0.591   2.567 -0.8750  0.5382 -0.2010
41503SOL     OW31623   1.671   5.181   2.970 -0.5698  0.5757  0.9514
41503SOL    HW131624   1.633   5.196   3.056 -2.7630 -1.6998  0.4901
41503SOL    HW231625   1.609   5.220   2.909 -1.2434 -1.4320  0.2717
41504SOL     OW31626   5.439   9.591   2.436  0.0361  0.1212 -0.1034
41504SOL    HW131627   5.511   9.652   2.456 -0.4613  0.0367  2.2423
41504SOL    HW231628   5.360   9.641   2.452 -0.4158 -0.4556 -0.4901
41505SOL     OW31629   2.929   8.993   1.010 -0.2199  0.4440  0.2292
41505SOL    HW131630   2.879   8.918   1.043 -0.4949  0.1404 -0.8569
41505SOL    HW231631   2.865   9.064   1.005 -0.2450  0.4096  0.0655
41506SOL     OW31632   7.990   2.197  10.925 -0.2405  0.6085  0.0265
41506SOL    HW131633   7.916   2.258  10.928 -0.1267  0.7369  0.2936
41506SOL    HW231634   7.989   2.162  10.835  0.4445  1.9527 -0.5346
41507SOL     OW31635   8.839  10.700  11.536 -0.0513 -0.2303  0.1413
41507SOL    HW131636   8.935  10.695  11.541 -0.0927 -0.0085  1.5758
41507SOL    HW231637   8.812  10.720  11.626 -1.4047  0.4666 -0.4069
41508SOL     OW31638   1.100   4.796   3.384  0.7730 -0.7125  0.4138
41508SOL    HW131639   1.006   4.781   3.381  0.7130 -0.9580  2.2418
41508SOL    HW231640   1.137   4.713   3.414  1.5486 -0.5435 -0.0426
41509SOL     OW31641   2.996   6.149   8.841 -0.1551  0.1719  0.3013
41509SOL    HW131642   3.071   6.123   8.787  0.2848  2.5617 -0.3687
41509SOL    HW231643   3.020   6.122   8.930  2.5311  2.5613  0.4775
41510SOL     OW31644  12.579   3.365   2.500 -0.1821 -0.4313 -0.6815
41510SOL    HW131645  12.572   3.422   2.576  0.6892 -0.5031 -0.5363
41510SOL    HW231646  12.570   3.277   2.535  0.2984 -0.4690 -0.6355
41511SOL     OW31647  12.651   4.856   4.849  0.8611  0.0566  0.1156
41511SOL    HW131648  12.587   4.927   4.842  0.7441  0.2668  2.4028
41511SOL    HW231649  12.622   4.791   4.785 -0.2845  1.1383 -0.5125
41512SOL     OW31650   9.300   6.944   1.153  0.7764 -0.1214  0.6376
41512SOL    HW131651   9.354   7.019   1.180 -1.0827  0.7171  2.2910
41512SOL    HW231652   9.263   6.912   1.235 -2.0412  0.0161 -0.4906
41513SOL     OW31653   3.113   6.382   6.499  0.7568  0.1924 -0.0140
41513SOL    HW131654   3.104   6.476   6.509 -1.2744 -0.2228  3.6631
41513SOL    HW231655   3.111   6.368   6.404 -2.7741  3.5732 -0.7069
41514SOL     OW31656  12.865   5.205  12.274 -0.8361 -0.3730  0.0593
41514SOL    HW131657  12.873   5.299  12.291 -1.0623 -0.4740  0.7786
41514SOL    HW231658  12.952   5.178  12.244 -0.1759 -0.3017  1.7937
41515SOL     OW31659   7.184   3.693   8.498  0.2030 -0.1612  0.2785
41515SOL    HW131660   7.135   3.629   8.446  0.3752  0.1969 -0.3270
41515SOL    HW231661   7.167   3.777   8.456  1.6884 -0.0825 -0.2403
41516SOL     OW31662   2.919   5.625   2.177  0.5308 -0.4741  0.4750
41516SOL    HW131663   2.851   5.658   2.119 -0.2529 -0.7781  1.1884
41516SOL    HW231664   2.889   5.650   2.265  1.2981 -0.6899  0.8050
41517SOL     OW31665  12.580   7.656   0.690 -0.4166 -0.1350  0.3152
41517SOL    HW131666  12.488   7.628   0.688 -0.1152 -1.1632 -1.1625
41517SOL    HW231667  12.624   7.588   0.742 -0.7247  1.2858  2.5411
41518SOL     OW31668   3.833   5.065   0.188 -0.6198  0.6410 -0.1011
41518SOL    HW131669   3.809   5.157   0.184  0.4793  0.9040 -1.2173
41518SOL    HW231670   3.867   5.053   0.277 -0.0364  1.5069 -0.1973
41519SOL     OW31671   7.364  10.915   8.920  0.1894  0.5027 -0.5836
41519SOL    HW131672   7.387  10.954   8.836  2.2455  0.2181 -0.1977
41519SOL    HW231673   7.302  10.977   8.959 -0.0921  1.0818 -1.9080
41520SOL     OW31674  11.206   8.614   5.500 -0.3148  0.2211  0.3106
41520SOL    HW131675  11.230   8.563   5.423 -0.0798  1.7198 -0.6347
41520SOL    HW231676  11.289   8.651   5.531 -0.2645 -1.0092  1.8197
41521SOL     OW31677   9.388   5.439  11.456  0.0536 -0.2858 -0.4532
41521SOL    HW131678   9.395   5.348  11.427  1.6660 -0.1115 -0.7018
41521SOL    HW231679   9.334   5.482  11.389  0.4979 -0.7457 -1.1141
41522SOL     OW31680   7.266   1.417   6.007  0.1905 -0.9653  0.4673
41522SOL    HW131681   7.176   1.400   6.034 -0.0028 -1.1345 -0.2828
41522SOL    HW231682   7.264   1.419   5.912  1.1765 -2.1990  0.3774
41523SOL     OW31683   4.452   4.728   8.642 -0.4132  0.0848  0.2600
41523SOL    HW131684   4.517   4.789   8.678 -0.3151  0.2954 -0.2684
41523SOL    HW231685   4.491   4.696   8.561  0.3020 -2.0393  1.3778
41524SOL     OW31686   9.765   8.435   7.422 -0.4399  0.8580 -0.0553
41524SOL    HW131687   9.794   8.397   7.340  1.2911  0.6836  0.6059
41524SOL    HW231688   9.772   8.530   7.410  2.7708  0.8286  0.8295
41525SOL     OW31689   8.213  11.100   1.532 -0.3150 -0.1537 -0.2551
41525SOL    HW131690   8.230  11.163   1.462  0.8964 -0.9556 -0.7166
41525SOL    HW231691   8.121  11.077   1.523 -0.1161 -0.4534 -1.7722
41526SOL     OW31692   1.350   8.767   8.210 -0.3078 -0.2878  0.2582
41526SOL    HW131693   1.271   8.795   8.256  0.4245  2.8684 -0.1885
41526SOL    HW231694   1.394   8.709   8.272 -1.7375 -0.1118  1.4979
41527SOL     OW31695  12.095   9.171   0.215 -0.5149  0.6573  0.4825
41527SOL    HW131696  12.177   9.220   0.225  0.5134 -0.6642 -0.9404
41527SOL    HW231697  12.076   9.137   0.302  1.7476 -0.9282  0.4394
41528SOL     OW31698   7.494   9.222   8.602  0.0923  0.5914 -0.8277
41528SOL    HW131699   7.516   9.270   8.682  0.7943  0.2465 -0.8072
41528SOL    HW231700   7.490   9.290   8.535 -1.1972  0.9796 -0.3829
41529SOL     OW31701   8.709   4.327   9.616  0.0075  0.0297 -0.4530
41529SOL    HW131702   8.618   4.346   9.639 -0.1660  1.7143 -2.2865
41529SOL    HW231703   8.728   4.244   9.660 -1.7096  0.6832  1.7260
41530SOL     OW31704   0.580   0.741  12.265  0.3414 -0.1540  0.1544
41530SOL    HW131705   0.500   0.748  12.213 -1.0269  0.5656  2.2186
41530SOL    HW231706   0.633   0.816  12.237 -0.7740  0.7614  0.3698
41531SOL     OW31707   7.636   6.195   2.620  0.0617  0.2968  0.2278
41531SOL    HW131708   7.566   6.220   2.560 -1.4402 -0.2122  1.7150
41531SOL    HW231709   7.668   6.278   2.655  0.5673  0.5606 -0.8028
41532SOL     OW31710  12.579   5.763   9.954  0.0050  0.3972  0.5667
41532SOL    HW131711  12.487   5.741   9.964 -0.2973  0.9461 -0.8161
41532SOL    HW231712  12.625   5.701  10.012 -1.1741 -0.2681  0.8168
41533SOL     OW31713   8.700   8.738   3.949  0.2244 -0.1016  0.3708
41533SOL    HW131714   8.620   8.688   3.968  1.6726 -2.4991  0.5407
41533SOL    HW231715   8.742   8.690   3.877  1.1881  1.5231 -0.2019
41534SOL     OW31716  10.035   8.335   9.893  0.1426  0.2019 -0.3818
41534SOL    HW131717  10.056   8.288   9.973 -1.2074 -2.1737 -1.3057
41534SOL    HW231718   9.943   8.314   9.876  0.0420  1.6366 -1.8960
41535SOL     OW31719   1.118  11.752   1.197  0.1753 -0.0320 -0.0482
41535SOL    HW131720   1.041  11.744   1.253  0.5298  0.1238  0.4663
41535SOL    HW231721   1.096  11.701   1.119  0.1363 -1.2298  0.7309
41536SOL     OW31722   0.047   5.351  10.889  0.4099  0.7100  0.9002
41536SOL    HW131723  -0.027   5.343  10.950 -2.6475 -0.2222 -2.5121
41536SOL    HW231724   0.072   5.261  10.870  0.4515  0.9277 -0.1161
41537SOL     OW31725  10.414   1.998   9.974 -0.4781 -0.8697  0.2681
41537SOL    HW131726  10.403   2.003  10.069  0.6960 -0.5866  0.4083
41537SOL    HW231727  10.479   1.928   9.961 -1.7713 -1.9765 -0.4402
41538SOL     OW31728   7.189   5.147   7.317 -0.3407 -0.0282  0.5630
41538SOL    HW131729   7.183   5.051   7.310 -1.7263  0.0422  0.5388
41538SOL    HW231730   7.220   5.162   7.406  1.1278 -0.5110  0.1670
41539SOL     OW31731   0.926   2.848   4.215  0.2617  0.1120  0.2803
41539SOL    HW131732   0.994   2.887   4.270 -0.5047  0.3067  1.1225
41539SOL    HW231733   0.922   2.756   4.241 -1.0004  0.4905  1.5256
41540SOL     OW31734   1.513   9.500   6.355  0.7734 -0.0953 -0.2777
41540SOL    HW131735   1.529   9.410   6.328  1.4683  0.3090 -1.2601
41540SOL    HW231736   1.420   9.514   6.338  0.6094 -0.6879  0.0966
41541SOL     OW31737   6.563   2.440  10.660 -0.0509  0.2646 -0.2744
41541SOL    HW131738   6.570   2.450  10.565  1.2081 -1.0655 -0.3630
41541SOL    HW231739   6.651   2.461  10.693 -0.0846 -0.6082  0.4315
41542SOL     OW31740   2.289   0.398   7.229  0.6961  0.0344  0.5372
41542SOL    HW131741   2.216   0.416   7.289  0.4351 -1.6207  0.7593
41542SOL    HW231742   2.265   0.444   7.148 -2.3641 -3.1240 -0.5872
41543SOL     OW31743  12.068   0.949  12.920 -0.3333 -0.8491 -0.1116
41543SOL    HW131744  11.993   1.001  12.949  1.0985  0.2274  1.8980
41543SOL    HW231745  12.071   0.875  12.981  1.3316  0.1736  1.1254
41544SOL     OW31746   6.572   6.864   5.181 -0.1802 -0.2124  0.2220
41544SOL    HW131747   6.663   6.835   5.192  0.3838  1.8045  1.3477
41544SOL    HW231748   6.565   6.883   5.087 -0.1122 -2.3768 -0.2553
41545SOL     OW31749  12.454   7.828   0.076  0.5751 -0.3336  0.0664
41545SOL    HW131750  12.363   7.800   0.066 -0.0011  1.6366 -0.8281
41545SOL    HW231751  12.501   7.784   0.005  0.1088 -0.5696 -0.0988
41546SOL     OW31752   8.590  12.893  11.130 -0.1097 -0.3708  0.5588
41546SOL    HW131753   8.656  12.831  11.159 -0.9650 -0.9972  1.2188
41546SOL    HW231754   8.507  12.849  11.147 -0.7134  0.6798  0.3913
41547SOL     OW31755  11.687   4.510   9.536 -0.1480 -0.2079  0.3224
41547SOL    HW131756  11.689   4.572   9.609  1.4668 -0.5183  0.5785
41547SOL    HW231757  11.717   4.561   9.460 -0.0483 -0.3529  0.2636
41548SOL     OW31758   3.911  12.686  10.491 -0.3962  0.1628 -0.0920
41548SOL    HW131759   3.919  12.590  10.491  2.0870  0.2980  1.4205
41548SOL    HW231760   3.863  12.706  10.571  0.7444  0.2671  0.5691
41549SOL     OW31761  11.662   8.553  11.859 -0.0164 -0.1091  0.0436
41549SOL    HW131762  11.576   8.549  11.817 -0.1790 -1.7468  0.4627
41549SOL    HW231763  11.724   8.543  11.787 -0.2411 -0.8062 -0.0650
41550SOL     OW31764   4.013   6.083  10.252  0.0355  0.2563  0.4196
41550SOL    HW131765   4.006   6.126  10.337  0.0141  0.1707  0.4612
41550SOL    HW231766   4.032   5.992  10.272 -0.1454  0.1993  0.3362
41551SOL     OW31767   2.545   3.901   3.578  0.0561  0.8355  0.3772
41551SOL    HW131768   2.555   3.805   3.580  0.4752  0.8560 -0.3009
41551SOL    HW231769   2.452   3.916   3.595 -0.1501  0.2666 -0.2002
41552SOL     OW31770   1.732   0.928   5.672 -0.2833 -0.4739 -0.1623
41552SOL    HW131771   1.799   0.897   5.611 -0.4949  0.0851 -0.6860
41552SOL    HW231772   1.670   0.976   5.617 -0.8602 -0.5773  0.3886
41553SOL     OW31773  11.610   4.368  11.363 -0.8610 -0.3973 -0.2185
41553SOL    HW131774  11.660   4.446  11.340  1.9054 -2.4385 -1.6148
41553SOL    HW231775  11.590   4.379  11.456  2.0082  0.6811  0.3464
41554SOL     OW31776  11.799   1.139   8.742 -0.1931 -0.1852  0.1166
41554SOL    HW131777  11.733   1.085   8.786 -1.8392  1.4878 -0.1749
41554SOL    HW231778  11.772   1.229   8.758  1.7524  0.5655 -0.4826
41555SOL     OW31779  11.204  12.562   2.405 -0.5556 -0.6713  0.1481
41555SOL    HW131780  11.262  12.601   2.340  1.4838 -1.4771  1.4079
41555SOL    HW231781  11.126  12.618   2.404 -0.7873 -0.8714 -3.2021
41556SOL     OW31782   0.556  10.266   3.058 -0.3201  0.4232 -0.3882
41556SOL    HW131783   0.592  10.200   2.998  2.2414  2.0091 -0.7461
41556SOL    HW231784   0.609  10.258   3.137  1.0297  2.8795 -0.9400
41557SOL     OW31785   7.350   4.437  12.874  0.4021  0.4454  0.1415
41557SOL    HW131786   7.328   4.359  12.924  0.9722  0.1146 -0.1127
41557SOL    HW231787   7.290   4.436  12.799  1.3619 -0.5501 -0.6485
41558SOL     OW31788   5.011   1.538   6.831 -0.5580  0.3063 -0.3982
41558SOL    HW131789   5.085   1.586   6.869 -0.0883 -0.7110  0.0215
41558SOL    HW231790   5.037   1.446   6.837 -0.6057  0.0673 -2.9366
41559SOL     OW31791   3.074   0.515   4.325 -0.2488 -0.0599 -0.4447
41559SOL    HW131792   3.117   0.583   4.376 -0.1425  0.1018 -0.7430
41559SOL    HW231793   3.096   0.434   4.370  0.4387  0.0129 -0.6308
41560SOL     OW31794   5.715  11.410   2.472 -1.0050 -0.0533  0.2844
41560SOL    HW131795   5.672  11.353   2.407 -1.4981  1.0050 -0.3444
41560SOL    HW231796   5.659  11.487   2.476 -0.8997 -0.0243  1.8816
41561SOL     OW31797  12.880   9.273   6.266 -0.5765 -0.0616  0.3926
41561SOL    HW131798  12.878   9.364   6.295 -0.2022  0.4545 -1.0722
41561SOL    HW231799  12.974   9.254   6.256 -0.6409 -0.7248  1.0171
41562SOL     OW31800   8.479   3.347   3.060  0.7627 -0.6774 -0.5612
41562SOL    HW131801   8.446   3.341   2.970  1.1376  1.3196 -0.8777
41562SOL    HW231802   8.455   3.435   3.089  2.9494 -0.2951  0.3416
41563SOL     OW31803   7.416   6.532   9.383  0.2098 -0.4646 -0.2374
41563SOL    HW131804   7.494   6.481   9.360 -0.2365 -0.7571 -1.1520
41563SOL    HW231805   7.444   6.623   9.377  0.8524 -0.5803  0.8135
41564SOL     OW31806   7.534   6.341  12.359  0.1389  0.4312  0.0709
41564SOL    HW131807   7.454   6.375  12.318 -0.4634 -1.7157 -0.6939
41564SOL    HW231808   7.503   6.293  12.436  0.4595 -1.6225 -1.0059
41565SOL     OW31809  12.240   5.278   6.221  0.2388  0.7711  0.1029
41565SOL    HW131810  12.256   5.303   6.130  0.4362  1.6476  0.3759
41565SOL    HW231811  12.147   5.297   6.235 -0.0159 -0.2143 -0.1761
41566SOL     OW31812   7.796   3.925   1.582  0.1701  0.7345 -0.2514
41566SOL    HW131813   7.702   3.907   1.570  0.1119  1.2794 -0.6584
41566SOL    HW231814   7.832   3.842   1.611 -0.5061  0.6125  0.2831
41567SOL     OW31815   6.647  10.391  11.817 -0.1296  0.2511 -0.2007
41567SOL    HW131816   6.673  10.435  11.736 -0.5738  0.1155 -0.4197
41567SOL    HW231817   6.572  10.441  11.848 -0.8564 -0.5606 -0.6326
41568SOL     OW31818   3.714   7.655  11.727  0.0445 -0.1393 -0.0760
41568SOL    HW131819   3.803   7.655  11.762 -0.2040 -0.6255  0.5810
41568SOL    HW231820   3.725   7.651  11.632  0.7206  0.2087 -0.0174
41569SOL     OW31821   9.803   8.312   6.267 -0.6844  0.5496 -0.2083
41569SOL    HW131822   9.895   8.337   6.263 -0.2866  0.2644  3.5305
41569SOL    HW231823   9.804   8.218   6.289 -1.6398  1.1425  2.8967
41570SOL     OW31824   6.100   8.114  12.878  0.2607 -0.0588  0.1006
41570SOL    HW131825   6.164   8.055  12.839  2.4822  1.9563  0.5207
41570SOL    HW231826   6.138   8.138  12.963 -1.8182  0.0147  1.0806
41571SOL     OW31827  12.939   9.765   5.570  0.1311  0.3837 -0.5615
41571SOL    HW131828  12.851   9.732   5.551 -0.1023  0.9339 -0.4637
41571SOL    HW231829  12.931   9.806   5.656  0.8096 -0.7431  0.0634
41572SOL     OW31830  11.578   4.629   5.613  0.5807 -0.0022  0.2677
41572SOL    HW131831  11.591   4.723   5.624 -0.7317  0.6058 -2.4903
41572SOL    HW231832  11.666   4.595   5.596  0.9494  0.9226  0.2664
41573SOL     OW31833   5.444   5.473   1.037  0.6400 -0.5672 -0.1692
41573SOL    HW131834   5.380   5.480   0.966  0.8471  0.5959 -0.2633
41573SOL    HW231835   5.459   5.379   1.046  1.4410 -0.7297 -2.4493
41574SOL     OW31836   6.802   7.114  11.418  0.2441 -0.4679  0.3213
41574SOL    HW131837   6.872   7.050  11.408  1.4849  0.9489 -0.4609
41574SOL    HW231838   6.779   7.139  11.329  0.9205  1.3224  0.6006
41575SOL     OW31839   7.893  10.478   1.432 -0.2962 -0.1437 -0.0603
41575SOL    HW131840   7.873  10.385   1.422  0.9209 -0.3695 -0.5191
41575SOL    HW231841   7.830  10.522   1.375 -0.4252 -0.7343 -0.3838
41576SOL     OW31842   3.909  12.925   5.778 -0.2195  0.0686 -0.2970
41576SOL    HW131843   3.898  12.859   5.846 -1.5871  1.8399  1.3158
41576SOL    HW231844   4.002  12.925   5.758 -0.0315 -1.5505  0.4363
41577SOL     OW31845  12.933   1.628   0.901  0.2320 -0.7299  0.2896
41577SOL    HW131846  12.874   1.593   0.835  0.7809 -0.6561 -0.2595
41577SOL    HW231847  13.020   1.619   0.862  0.5704 -0.7032  1.0154
41578SOL     OW31848   0.800   3.551   7.267 -0.0558  0.1398 -0.0632
41578SOL    HW131849   0.878   3.590   7.305 -0.0174 -0.1026  0.1086
41578SOL    HW231850   0.807   3.570   7.173  0.9402 -1.1021 -0.2733
41579SOL     OW31851   3.345   5.089   5.622 -0.2057 -0.4707 -0.3730
41579SOL    HW131852   3.293   5.087   5.542 -0.0725  0.8425 -0.5201
41579SOL    HW231853   3.418   5.148   5.602  0.6677 -1.3070  0.2362
41580SOL     OW31854  10.744   6.864   8.910 -0.1833 -0.0480 -0.1097
41580SOL    HW131855  10.697   6.822   8.982  0.4863  2.4335  1.9282
41580SOL    HW231856  10.832   6.825   8.914 -0.2390 -0.1473  0.2079
41581SOL     OW31857  12.346  11.512  10.169  0.3403  0.0616 -0.0582
41581SOL    HW131858  12.386  11.426  10.178 -0.3488 -0.2585  0.0607
41581SOL    HW231859  12.363  11.538  10.078 -0.4548 -0.7246 -0.4397
41582SOL     OW31860  11.539   7.401   6.605 -0.2399  0.1970 -0.2612
41582SOL    HW131861  11.591   7.474   6.571  2.3064 -0.6916  1.4373
41582SOL    HW231862  11.540   7.412   6.700 -0.5721 -1.5409 -0.0158
41583SOL     OW31863   4.304   7.784   8.401 -0.0206  0.1197  0.1140
41583SOL    HW131864   4.342   7.713   8.349 -1.7827  0.1847 -1.3777
41583SOL    HW231865   4.316   7.757   8.492  0.4256 -1.4969 -0.3959
41584SOL     OW31866   0.969  11.445   8.326 -0.0867  0.4403 -0.7707
41584SOL    HW131867   0.917  11.482   8.398  0.3231 -0.7553  0.1746
41584SOL    HW231868   0.909  11.389   8.278  0.0270 -0.0460 -0.3596
41585SOL     OW31869   7.617  10.361   1.825  0.2220  0.4557  0.0510
41585SOL    HW131870   7.562  10.369   1.747  1.3724 -0.6520 -0.9476
41585SOL    HW231871   7.556  10.349   1.897 -0.8573  0.1606 -0.8795
41586SOL     OW31872   0.547   6.971   0.298 -0.4691 -0.6135  0.1890
41586SOL    HW131873   0.497   6.938   0.223  0.5312  0.7645 -1.1305
41586SOL    HW231874   0.612   7.029   0.260  2.2683 -2.4075  1.8285
41587SOL     OW31875   2.901   1.478   6.346 -0.0962 -0.3734  0.0273
41587SOL    HW131876   2.909   1.538   6.420 -1.4227  1.1886 -1.0328
41587SOL    HW231877   2.991   1.458   6.321  0.4942  2.6535 -0.6769
41588SOL     OW31878   3.804   8.648   2.352 -0.7314  0.1054  0.1145
41588SOL    HW131879   3.780   8.655   2.259 -1.2500  0.6335  0.2818
41588SOL    HW231880   3.899   8.659   2.354 -0.5096 -1.4059 -0.5079
41589SOL     OW31881  10.319   0.479   2.401 -0.0857 -0.7363  0.2640
41589SOL    HW131882  10.380   0.406   2.414  0.3312 -0.0998  2.1519
41589SOL    HW231883  10.323   0.528   2.483  0.5533  2.0944 -1.3613
41590SOL     OW31884   3.582   0.356   3.079  0.6168 -0.4717 -0.3358
41590SOL    HW131885   3.543   0.425   3.025  1.4383  0.9998  0.8517
41590SOL    HW231886   3.538   0.276   3.051 -0.5997  0.5624 -1.5711
41591SOL     OW31887  10.018  11.501  12.289  0.1401 -0.7666 -0.2879
41591SOL    HW131888  10.052  11.585  12.319  1.7507 -0.5004 -2.5682
41591SOL    HW231889  10.049  11.437  12.353 -3.5151  0.4945  3.1528
41592SOL     OW31890   6.918   7.697  10.796  0.1569  0.5150 -0.3822
41592SOL    HW131891   6.845   7.636  10.803  0.0981  0.7415  1.3652
41592SOL    HW231892   6.993   7.643  10.771 -0.4235  0.1643 -1.4361
41593SOL     OW31893  10.631  11.627   2.215  0.0089 -0.1611  0.0996
41593SOL    HW131894  10.681  11.635   2.296 -0.5556  0.5656  0.3814
41593SOL    HW231895  10.686  11.670   2.149  0.4872 -0.7906  0.0835
41594SOL     OW31896   5.557   3.458  12.156  0.8000  0.0247 -1.3401
41594SOL    HW131897   5.567   3.378  12.208 -0.1791  0.8531  0.2149
41594SOL    HW231898   5.634   3.510  12.177 -0.4164  1.1212  0.8240
41595SOL     OW31899  12.564   0.326   5.537 -0.4984  0.6514 -0.5952
41595SOL    HW131900  12.480   0.316   5.492  0.2768  0.6123 -2.0986
41595SOL    HW231901  12.582   0.420   5.533 -1.6784  1.0827  2.0941
41596SOL     OW31902   9.937   4.801  10.147  0.0597 -0.4112 -0.0223
41596SOL    HW131903   9.989   4.869  10.190  0.7921 -0.7387 -0.3700
41596SOL    HW231904   9.846   4.823  10.167  0.2943  0.6132 -0.0606
41597SOL     OW31905   2.577   3.217   8.666  0.7106  0.1654 -0.5681
41597SOL    HW131906   2.652   3.184   8.617  0.2599 -0.2171 -1.0189
41597SOL    HW231907   2.503   3.167   8.632  0.4184 -0.3260  0.7287
41598SOL     OW31908   0.475   1.365  10.584 -0.0688  0.3247  0.2044
41598SOL    HW131909   0.550   1.379  10.643  1.8938 -2.6881 -1.2659
41598SOL    HW231910   0.413   1.315  10.637  0.9188 -0.8484  0.3302
41599SOL     OW31911  11.614   8.500   0.427  0.1802 -0.4997 -0.2026
41599SOL    HW131912  11.581   8.416   0.394 -0.5003 -0.5209  0.5120
41599SOL    HW231913  11.587   8.564   0.361 -1.0013 -0.5655  0.1938
41600SOL     OW31914  12.304   4.603   0.111  0.3704 -0.2895  0.7729
41600SOL    HW131915  12.324   4.530   0.053  1.2224 -0.5284  1.3560
41600SOL    HW231916  12.347   4.679   0.070  1.6109 -0.5983  1.4628
41601SOL     OW31917   1.181  11.251   8.740  0.0946  0.3165  0.2708
41601SOL    HW131918   1.273  11.264   8.715  0.0573  1.1751  0.5544
41601SOL    HW231919   1.151  11.337   8.766 -1.6360  0.6759 -2.5178
41602SOL     OW31920   2.759  11.362   7.037 -0.2352 -0.1519 -0.1309
41602SOL    HW131921   2.807  11.324   7.110 -1.6767 -0.0077  0.9459
41602SOL    HW231922   2.727  11.287   6.987 -1.7904 -0.3738  1.1300
41603SOL     OW31923  12.730   7.969   2.279 -0.3296  0.1860 -0.4101
41603SOL    HW131924  12.643   7.965   2.317  0.1633 -1.1376  0.6125
41603SOL    HW231925  12.721   8.032   2.207 -2.2726 -0.4100 -0.7379
41604SOL     OW31926   7.322   3.166  10.325  0.4346 -0.1916 -0.1539
41604SOL    HW131927   7.385   3.107  10.282 -0.3628 -2.3656  1.4658
41604SOL    HW231928   7.322   3.138  10.417 -1.0175  1.4761  0.4112
41605SOL     OW31929  11.914   8.490   4.579 -0.1403 -0.0821  0.2520
41605SOL    HW131930  12.010   8.489   4.575 -0.1570  1.1118 -1.3360
41605SOL    HW231931  11.893   8.541   4.657  0.4978 -0.5062  0.7149
41606SOL     OW31932   1.631   6.407   2.127 -0.1200  0.1848 -0.0352
41606SOL    HW131933   1.618   6.374   2.215 -1.4568  2.9974  0.9484
41606SOL    HW231934   1.571   6.357   2.073  1.0553 -1.8994  0.4916
41607SOL     OW31935   5.794   0.158   3.136  0.1681 -0.0384  0.4917
41607SOL    HW131936   5.874   0.194   3.098  0.4613 -0.2115  0.9331
41607SOL    HW231937   5.736   0.233   3.147  1.0636  0.4571  2.1432
41608SOL     OW31938  10.132  12.324   2.568  0.7751  0.2750  0.1697
41608SOL    HW131939  10.226  12.334   2.581  0.4747  1.5279  1.6767
41608SOL    HW231940  10.104  12.263   2.636  0.6969 -1.3759 -1.2704
41609SOL     OW31941  10.627  10.403  10.404  0.7920  0.1329  0.5860
41609SOL    HW131942  10.684  10.470  10.365  0.1914  0.2988 -0.0204
41609SOL    HW231943  10.609  10.342  10.333 -0.3563  0.4693  0.5610
41610SOL     OW31944   8.664   0.380   3.329  0.2175  0.5078 -0.0442
41610SOL    HW131945   8.624   0.467   3.333 -0.2122  0.2733  1.8036
41610SOL    HW231946   8.678   0.356   3.421  2.5155 -0.4023 -0.5640
41611SOL     OW31947   1.041   0.624  11.899 -0.0284  0.1601  0.2288
41611SOL    HW131948   1.025   0.602  11.807 -0.8975  0.6934  0.2474
41611SOL    HW231949   0.983   0.568  11.948  1.5234 -1.2334  0.5679
41612SOL     OW31950   0.886   8.853   5.497  0.4771 -0.5473 -0.1180
41612SOL    HW131951   0.809   8.893   5.456  0.0387 -0.1937  1.0125
41612SOL    HW231952   0.855   8.766   5.525  0.2390 -0.1028  1.0456
41613SOL     OW31953   3.158   4.173   0.311 -0.4868 -0.2847  0.1970
41613SOL    HW131954   3.144   4.142   0.400  3.4186 -1.7017  0.5152
41613SOL    HW231955   3.144   4.268   0.316 -1.8169 -0.5288  1.9130
41614SOL     OW31956   1.797   3.842   8.495 -0.8759 -0.3234 -0.1836
41614SOL    HW131957   1.869   3.907   8.496 -0.4215 -0.7679  2.0427
41614SOL    HW231958   1.718   3.895   8.491 -0.4636  0.2990 -0.3306
41615SOL     OW31959   2.741   0.650   6.039 -0.1747 -0.3563 -0.5763
41615SOL    HW131960   2.738   0.660   6.134  0.5224  2.1644 -0.7487
41615SOL    HW231961   2.659   0.689   6.008  0.9783  1.8061 -1.1210
41616SOL     OW31962  11.760   6.600   0.737 -0.3969  0.5408  0.0755
41616SOL    HW131963  11.841   6.650   0.742 -1.0414  2.0316 -2.4295
41616SOL    HW231964  11.769   6.546   0.659 -1.1081 -0.6916  0.8066
41617SOL     OW31965   8.052   7.302  12.620  0.3514  0.1510 -0.2858
41617SOL    HW131966   8.106   7.326  12.544  2.0808 -3.2972 -0.3472
41617SOL    HW231967   8.068   7.372  12.683 -0.5123  2.7326 -2.6746
41618SOL     OW31968   0.118   5.634   7.665  0.0170 -0.2466  0.2175
41618SOL    HW131969   0.146   5.553   7.708  1.4297  0.4932  0.7706
41618SOL    HW231970   0.035   5.612   7.623  0.4065 -1.9998  0.2877
41619SOL     OW31971   1.490   4.844   3.020 -0.6452 -0.3742  0.1593
41619SOL    HW131972   1.409   4.834   3.070 -1.5073  0.2726 -1.0513
41619SOL    HW231973   1.556   4.865   3.086 -1.5261 -0.6035  1.1408
41620SOL     OW31974   1.044   2.939   7.891 -0.3454 -0.1832  0.1929
41620SOL    HW131975   1.038   3.033   7.903  0.9939 -0.1079  0.3494
41620SOL    HW231976   1.061   2.927   7.798 -0.0184 -0.2415  0.2581
41621SOL     OW31977   1.809  12.484   5.893  0.5066 -0.0172  0.0906
41621SOL    HW131978   1.842  12.394   5.894  1.1239  0.1407 -1.8095
41621SOL    HW231979   1.864  12.529   5.828 -0.5996  1.3982  0.0896
41622SOL     OW31980   4.574  11.332   6.039 -0.0730 -0.3346 -0.2324
41622SOL    HW131981   4.496  11.297   6.081  0.7200  0.6680  2.2896
41622SOL    HW231982   4.645  11.275   6.070  1.1075  2.6358  3.2188
41623SOL     OW31983  11.251  11.254   2.299  0.2837 -0.0232 -0.5888
41623SOL    HW131984  11.237  11.345   2.326  0.8920 -0.2563  0.5836
41623SOL    HW231985  11.163  11.219   2.286  0.0469  0.7305 -1.0532
41624SOL     OW31986   4.309   4.777   0.186 -0.2233 -0.1991  0.1958
41624SOL    HW131987   4.381   4.813   0.237  0.4357  0.7032 -1.2796
41624SOL    HW231988   4.323   4.683   0.187 -0.6290 -0.2756  2.1917
41625SOL     OW31989  10.471   3.168  12.018 -0.2851  0.2482  0.4620
41625SOL    HW131990  10.460   3.247  12.072  1.2754  2.5218 -2.2707
41625SOL    HW231991  10.546   3.123  12.056 -0.4700  0.6859  1.3840
41626SOL     OW31992  11.685   4.528   0.927  0.4374  0.5764  0.1247
41626SOL    HW131993  11.619   4.459   0.937  1.4566 -0.2793  1.1779
41626SOL    HW231994  11.643   4.594   0.872 -0.6162 -0.8079 -0.7630
41627SOL     OW31995   3.056  11.483   3.217  0.5718 -0.6075 -0.3311
41627SOL    HW131996   3.073  11.567   3.174 -0.8860  0.1565  0.4961
41627SOL    HW231997   3.142  11.453   3.247  1.2135  0.2001 -1.3180
41628SOL     OW31998   6.485   1.854   0.363  0.1141  0.3860  0.0536
41628SOL    HW131999   6.545   1.781   0.349  0.4981  1.1061 -2.6870
41628SOL    HW232000   6.491   1.873   0.456  3.2075 -0.3836  0.1133
41629SOL     OW32001   4.265   6.395   2.478 -0.3591  0.5793 -0.7052
41629SOL    HW132002   4.289   6.485   2.456 -1.5123  1.0980  0.0851
41629SOL    HW232003   4.174   6.401   2.506 -0.5364 -0.8847 -0.9105
41630SOL     OW32004   9.145   9.854   7.314  0.4102 -0.0514 -0.5371
41630SOL    HW132005   9.170   9.945   7.305  2.4853 -0.6617 -1.4011
41630SOL    HW232006   9.199   9.807   7.251 -2.1893 -1.6603 -1.7360
41631SOL     OW32007   1.356   8.226  10.487 -0.0461  0.3093  0.2643
41631SOL    HW132008   1.289   8.229  10.555 -0.4794 -1.5917 -0.0244
41631SOL    HW232009   1.439   8.229  10.535 -0.3427 -1.2699  0.9173
41632SOL     OW32010   1.765   3.425   5.443 -0.4483 -0.1689  0.4614
41632SOL    HW132011   1.757   3.513   5.406 -0.6769 -0.3906 -0.0241
41632SOL    HW232012   1.747   3.437   5.536  1.0368  0.5440  0.6823
41633SOL     OW32013   9.355   0.386   2.516 -0.1987 -0.1929 -0.4779
41633SOL    HW132014   9.329   0.459   2.572 -1.3024 -0.7509 -0.2239
41633SOL    HW232015   9.364   0.424   2.429 -1.3693  0.1496 -0.4691
41634SOL     OW32016   8.737   1.152  12.767 -0.4001  0.2185  0.3074
41634SOL    HW132017   8.675   1.132  12.838 -0.7767  1.8675  0.4972
41634SOL    HW232018   8.709   1.097  12.694 -1.4328  0.1610  0.7325
41635SOL     OW32019   7.142   3.721   5.237 -0.5863 -0.7701 -0.3899
41635SOL    HW132020   7.173   3.667   5.165 -2.6035 -1.0267 -1.1412
41635SOL    HW232021   7.049   3.733   5.219 -0.6131  1.2783  0.8405
41636SOL     OW32022  11.796  11.890   1.106 -0.2308  0.0650 -0.0627
41636SOL    HW132023  11.734  11.861   1.173 -0.4365 -1.1664 -0.7457
41636SOL    HW232024  11.741  11.920   1.033 -0.1290 -2.2926 -1.2136
41637SOL     OW32025   1.320  12.953   4.922 -0.1922  0.4783  0.2999
41637SOL    HW132026   1.383  12.980   4.989 -0.0012  1.0650 -0.1118
41637SOL    HW232027   1.255  12.901   4.970 -0.8947  2.1417  1.2279
41638SOL     OW32028  12.662   3.916   3.595 -1.1277 -0.0754  0.1246
41638SOL    HW132029  12.682   3.829   3.562 -2.2959 -0.0685 -0.6599
41638SOL    HW232030  12.748   3.958   3.605 -0.5682 -1.2469  0.3641
41639SOL     OW32031  10.808   8.061   2.744  0.1804 -0.3834  0.7107
41639SOL    HW132032  10.872   8.125   2.713  1.3275 -1.6009  0.5376
41639SOL    HW232033  10.731   8.076   2.689  1.6955 -1.6012 -1.9095
41640SOL     OW32034   4.330   2.315   9.957 -0.4554  0.3687 -0.1164
41640SOL    HW132035   4.383   2.330  10.035  0.1559 -0.7297 -0.2913
41640SOL    HW232036   4.345   2.392   9.902  1.4339 -0.1610 -0.4091
41641SOL     OW32037   0.207   4.976   0.664  0.5614 -0.5720 -0.0428
41641SOL    HW132038   0.292   4.975   0.621  1.1540 -0.8990  1.1218
41641SOL    HW232039   0.215   5.044   0.732 -1.2516  1.9769 -2.1573
41642SOL     OW32040   3.803  10.362   7.152  0.6490 -0.6333  0.3570
41642SOL    HW132041   3.714  10.398   7.151  0.2953 -1.3901  1.7433
41642SOL    HW232042   3.807  10.306   7.074  0.9922  1.7827 -1.4657
41643SOL     OW32043   1.560   5.518   2.384 -0.9600 -0.2696  0.2024
41643SOL    HW132044   1.550   5.428   2.415  2.2442 -0.7340  0.2601
41643SOL    HW232045   1.619   5.559   2.448  0.2316  0.8491 -1.5171
41644SOL     OW32046   1.851   8.121  10.392  0.0569  0.0722 -0.1815
41644SOL    HW132047   1.831   8.095  10.482 -0.3164 -0.1592 -0.3271
41644SOL    HW232048   1.791   8.069  10.339 -1.7871  2.2523 -0.4069
41645SOL     OW32049   4.600   4.555   4.715  0.1032 -0.3791  0.0858
41645SOL    HW132050   4.637   4.475   4.753  0.8307  0.4734  1.2560
41645SOL    HW232051   4.653   4.571   4.637  0.9978 -0.1899  0.7185
41646SOL     OW32052   9.226   6.158   7.250 -0.3689  0.2430 -0.4649
41646SOL    HW132053   9.277   6.213   7.191 -1.2185 -0.8690 -2.3080
41646SOL    HW232054   9.136   6.187   7.237 -0.4344  1.2785  1.7719
41647SOL     OW32055   0.856   7.740  12.022  0.0889  0.0681  0.3423
41647SOL    HW132056   0.920   7.702  12.082  1.9943  0.6279 -1.2299
41647SOL    HW232057   0.908   7.790  11.959 -1.8719  0.2894 -1.2209
41648SOL     OW32058   0.643   4.338   3.528 -0.1333 -0.1386  0.5682
41648SOL    HW132059   0.604   4.254   3.555  0.0190 -0.4453 -0.1249
41648SOL    HW232060   0.634   4.395   3.604 -1.2506 -0.4437  0.6763
41649SOL     OW32061   0.398   1.930   9.182 -0.1910  0.0074  0.0123
41649SOL    HW132062   0.458   1.946   9.109  0.7544 -0.1318  0.7393
41649SOL    HW232063   0.425   1.993   9.249  1.2339 -2.0773  1.5454
41650SOL     OW32064   0.416   5.925   6.128 -0.0225 -0.3555 -0.4495
41650SOL    HW132065   0.380   5.858   6.186 -0.6927 -0.6254 -1.1541
41650SOL    HW232066   0.503   5.944   6.164  0.6905 -2.4645 -0.8920
41651SOL     OW32067   9.785   0.123  10.098  0.1604 -0.2330 -0.5199
41651SOL    HW132068   9.839   0.118  10.019 -1.6998  0.0943 -1.8790
41651SOL    HW232069   9.699   0.148  10.066 -0.6270  0.0038  1.6576
41652SOL     OW32070  11.792  10.830   1.523 -0.3051 -0.4500 -0.1347
41652SOL    HW132071  11.862  10.765   1.528  0.6158  0.6063  1.8756
41652SOL    HW232072  11.755  10.818   1.436  2.1705 -1.2427 -1.1716
41653SOL     OW32073  10.294  11.326   9.373 -0.2244  0.3526 -0.1861
41653SOL    HW132074  10.353  11.255   9.397  0.4588  0.9692 -0.0078
41653SOL    HW232075  10.212  11.304   9.418 -0.5543 -1.1637 -1.4539
41654SOL     OW32076  11.616   2.512  11.380 -0.1019  0.2421  0.3186
41654SOL    HW132077  11.627   2.426  11.420 -0.0291  0.7338  1.4037
41654SOL    HW232078  11.589   2.568  11.452  0.0759  1.1784 -0.3249
41655SOL     OW32079   0.608   3.447  11.686 -0.0811 -0.0552  0.3984
41655SOL    HW132080   0.565   3.377  11.737 -0.5856 -1.6040 -1.9882
41655SOL    HW232081   0.688   3.407  11.654 -0.1477  0.6220 -0.6388
41656SOL     OW32082   3.617  11.752  10.654  0.0500 -0.6613 -0.6396
41656SOL    HW132083   3.521  11.749  10.645 -0.0732 -1.1916  0.7084
41656SOL    HW232084   3.638  11.845  10.656 -0.3003 -0.5200 -2.0463
41657SOL     OW32085   5.504   2.377   6.001  0.0568 -0.1725 -0.4458
41657SOL    HW132086   5.489   2.466   6.033 -1.9005 -0.5633 -0.1631
41657SOL    HW232087   5.590   2.354   6.034 -0.5875  0.5751  1.9835
41658SOL     OW32088  11.104   4.808   9.136 -0.3055  0.1268 -0.1358
41658SOL    HW132089  11.195   4.837   9.135 -0.3966  0.4333 -1.5837
41658SOL    HW232090  11.096   4.750   9.060 -1.1491 -0.4901  0.3969
41659SOL     OW32091   9.654  12.887   6.762 -0.7878  0.0642  0.0483
41659SOL    HW132092   9.691  12.920   6.844  0.9450  1.2023 -1.1333
41659SOL    HW232093   9.593  12.955   6.734 -1.0152 -0.1002  0.1372
41660SOL     OW32094   6.144   5.072   7.265  0.0433 -0.2541  0.1053
41660SOL    HW132095   6.077   5.005   7.254 -0.9922  0.6394  0.7171
41660SOL    HW232096   6.227   5.026   7.252 -0.6837 -1.3520 -0.8265
41661SOL     OW32097  12.767   8.000   0.217  0.1010 -0.7057  0.0545
41661SOL    HW132098  12.861   7.984   0.208  0.1802 -0.6200  0.6595
41661SOL    HW232099  12.733   7.992   0.128  0.2447 -3.3828  0.1736
41662SOL     OW32100   4.742   8.823   7.720 -0.0353  0.3523 -0.4935
41662SOL    HW132101   4.716   8.750   7.663 -0.9656  0.3986 -0.1373
41662SOL    HW232102   4.732   8.789   7.808  0.9133  0.4536 -0.3362
41663SOL     OW32103   5.574   9.075   2.602 -0.2803 -0.2091  0.1956
41663SOL    HW132104   5.550   9.165   2.581 -0.6380 -0.4941 -0.6353
41663SOL    HW232105   5.636   9.084   2.675  1.0118  0.8157 -0.9736
41664SOL     OW32106   4.763   2.580  12.093 -0.5269 -0.4566 -1.1241
41664SOL    HW132107   4.788   2.546  12.179 -1.9993 -1.3416 -1.0088
41664SOL    HW232108   4.810   2.663  12.085  3.6596 -2.6035 -1.6102
41665SOL     OW32109  11.532  12.019   6.095 -0.1566 -0.1452 -0.3971
41665SOL    HW132110  11.546  11.967   6.174  0.2924 -0.8428 -0.9232
41665SOL    HW232111  11.616  12.061   6.078 -0.7067  1.3816  0.4348
41666SOL     OW32112   6.721   4.374   3.152 -0.3596 -1.0661  0.1401
41666SOL    HW132113   6.631   4.370   3.184 -0.6610  0.1770 -0.5191
41666SOL    HW232114   6.765   4.302   3.197 -1.2297 -0.5610  1.9058
41667SOL     OW32115   9.120   6.759   9.187  0.3006 -0.1054 -0.1038
41667SOL    HW132116   9.191   6.700   9.215  0.3214  0.7534  1.7916
41667SOL    HW232117   9.165   6.831   9.142  0.3550 -0.9788 -1.5095
41668SOL     OW32118  10.149   7.693   0.547 -0.0623  0.2586 -0.5493
41668SOL    HW132119  10.097   7.736   0.615  0.1548  0.0410 -0.2440
41668SOL    HW232120  10.098   7.614   0.525 -0.7518  0.9483 -1.5181
41669SOL     OW32121   5.545   6.111   9.088 -0.0996  0.1479  0.4571
41669SOL    HW132122   5.593   6.084   9.009 -0.2522 -0.8259  0.6858
41669SOL    HW232123   5.590   6.066   9.159 -1.0789 -0.4496  0.7201
41670SOL     OW32124   9.666   2.232   7.004 -0.0346 -0.5132 -0.3876
41670SOL    HW132125   9.665   2.246   7.099 -1.4192  0.2040 -0.4888
41670SOL    HW232126   9.721   2.304   6.971  0.2020 -0.5864 -0.1637
41671SOL     OW32127   2.563   8.554   5.971  0.2287  0.1230  0.3130
41671SOL    HW132128   2.532   8.632   6.016 -2.3574 -0.9549  0.5385
41671SOL    HW232129   2.543   8.481   6.030 -0.7264 -1.0402 -1.3442
41672SOL     OW32130   8.865   4.068  12.565  0.2837  0.6900  0.7111
41672SOL    HW132131   8.941   4.076  12.506  0.7779 -0.8136  1.1079
41672SOL    HW232132   8.790   4.086  12.509  0.7165 -1.0160 -0.5017
41673SOL     OW32133  11.131  12.608   0.115  0.2173  0.2339  0.6064
41673SOL    HW132134  11.168  12.565   0.038  1.2158 -0.1024  1.2599
41673SOL    HW232135  11.168  12.697   0.114  0.4122  0.1558  0.8201
41674SOL     OW32136   8.452   1.407   9.746 -0.3198  0.5086  0.1069
41674SOL    HW132137   8.463   1.325   9.699  1.4474 -0.4525  2.0878
41674SOL    HW232138   8.514   1.467   9.704 -0.9700  0.6016 -0.7532
41675SOL     OW32139   7.451  12.498   9.303 -0.3349 -0.4161 -0.0216
41675SOL    HW132140   7.411  12.430   9.357  1.0853 -2.5941 -1.5415
41675SOL    HW232141   7.519  12.453   9.254  1.3398  2.3274 -0.4519
41676SOL     OW32142   0.348   5.372   3.204  0.2959  0.2014 -0.1192
41676SOL    HW132143   0.411   5.376   3.132  0.5672  0.3795  0.1232
41676SOL    HW232144   0.355   5.283   3.238  1.0224  0.4593  0.4350
41677SOL     OW32145  12.861   5.601   7.551 -0.2053 -0.0815  0.0459
41677SOL    HW132146  12.880   5.644   7.468  1.0345 -1.1502 -0.2649
41677SOL    HW232147  12.813   5.522   7.527  0.5625 -0.6369  0.2754
41678SOL     OW32148   4.054   2.936   4.672  0.0837 -0.5220 -0.3108
41678SOL    HW132149   4.141   2.899   4.692  0.2697  0.6798  1.2879
41678SOL    HW232150   4.042   3.005   4.737 -2.5477 -1.3705  0.2033
41679SOL     OW32151   1.900   6.468   5.297 -0.1491  0.1249 -0.0228
41679SOL    HW132152   1.894   6.550   5.346 -3.0793  0.8799 -1.4092
41679SOL    HW232153   1.981   6.476   5.247 -0.1837  2.0319  0.1497
41680SOL     OW32154  12.827  10.947   4.903  0.4347 -0.5977 -0.1096
41680SOL    HW132155  12.864  10.957   4.991  0.4359 -0.5379 -0.1175
41680SOL    HW232156  12.899  10.970   4.844  0.2794 -0.1363 -0.1221
41681SOL     OW32157   9.475  10.716   9.677 -0.0155 -0.3291 -0.2985
41681SOL    HW132158   9.436  10.642   9.723 -0.2539 -3.1484 -4.4544
41681SOL    HW232159   9.420  10.790   9.702 -0.6425 -1.7101  3.0112
41682SOL     OW32160   8.796   0.699  12.124  0.0895 -0.9092 -0.1271
41682SOL    HW132161   8.796   0.782  12.077 -1.2600 -1.4468 -1.1217
41682SOL    HW232162   8.860   0.644  12.078  1.8447 -0.1217  1.2086
41683SOL     OW32163   7.855   2.325   5.311  0.8158 -0.2800  0.3665
41683SOL    HW132164   7.828   2.311   5.402 -2.4831 -0.7923 -0.5662
41683SOL    HW232165   7.892   2.414   5.310 -0.1861  0.1944  1.9937
41684SOL     OW32166   8.677  12.732   1.233  0.4669 -0.0114  0.2760
41684SOL    HW132167   8.745  12.797   1.249  0.0436  0.5891 -0.2989
41684SOL    HW232168   8.614  12.745   1.304  1.4242 -1.2442  1.3931
41685SOL     OW32169  10.240  10.017   5.268 -0.2014 -0.3829 -0.0891
41685SOL    HW132170  10.148  10.003   5.245 -0.1517 -1.8771  0.5369
41685SOL    HW232171  10.287  10.014   5.185 -0.5304 -1.3015 -0.2514
41686SOL     OW32172   4.983   9.448   6.804 -0.1409  0.4518 -0.3307
41686SOL    HW132173   5.020   9.526   6.845  0.5223 -0.1305  0.1833
41686SOL    HW232174   4.943   9.399   6.876  0.1906 -0.1006 -0.5182
41687SOL     OW32175   0.553   7.779   4.768 -0.5548 -0.4149 -0.2242
41687SOL    HW132176   0.480   7.832   4.799 -0.3604 -0.3034  0.0469
41687SOL    HW232177   0.613   7.775   4.842  0.2920  0.5155 -0.8263
41688SOL     OW32178   9.612   0.501   0.265  0.3257  0.2718 -0.6472
41688SOL    HW132179   9.529   0.464   0.294  0.1409 -0.2069 -1.7442
41688SOL    HW232180   9.659   0.519   0.346 -0.9254  0.7574  0.0089
41689SOL     OW32181  10.753   8.907   0.398 -0.2831 -0.5019 -0.0824
41689SOL    HW132182  10.673   8.857   0.411 -0.4380 -0.6014 -1.3068
41689SOL    HW232183  10.820   8.840   0.380  0.1355 -0.4339  1.0869
41690SOL     OW32184   1.750   1.971   8.822 -0.3680  0.3809  0.2398
41690SOL    HW132185   1.773   1.883   8.791 -2.0063  0.1359 -0.4123
41690SOL    HW232186   1.803   2.030   8.768 -1.5756 -0.1251 -1.5728
41691SOL     OW32187   5.802   7.560   7.355  0.5229  0.4637 -0.7608
41691SOL    HW132188   5.858   7.523   7.287  1.4344  0.7051 -0.1599
41691SOL    HW232189   5.850   7.636   7.387  0.5939 -0.2151  0.8412
41692SOL     OW32190  10.693   1.835   6.947 -0.0500  0.2816 -0.2362
41692SOL    HW132191  10.628   1.795   6.889  0.6658 -0.2591 -0.6935
41692SOL    HW232192  10.650   1.839   7.032 -0.8319  0.3342 -0.6215
41693SOL     OW32193   4.037  11.758   5.166  0.2267  0.0134 -0.2090
41693SOL    HW132194   3.954  11.768   5.119  1.1732  1.2560 -1.7205
41693SOL    HW232195   4.074  11.846   5.168  1.6813 -0.5761  0.0758
41694SOL     OW32196   3.732   1.227  11.242  0.5260  0.1705 -0.2851
41694SOL    HW132197   3.686   1.143  11.245  2.1928 -0.8923 -2.3011
41694SOL    HW232198   3.779   1.232  11.326 -1.3050  0.2166  0.8116
41695SOL     OW32199   0.113   8.153   6.396 -0.1802  0.1867 -0.0376
41695SOL    HW132200   0.066   8.225   6.355 -0.2517  0.7413  1.0024
41695SOL    HW232201   0.049   8.113   6.455  0.4491  0.5309  0.8867
41696SOL     OW32202   7.993   2.081   9.893  0.3667 -0.1525 -0.5123
41696SOL    HW132203   7.932   2.120   9.956  0.3872  0.7758 -1.0660
41696SOL    HW232204   8.052   2.028   9.947 -0.0222  0.1092  0.1798
41697SOL     OW32205   2.048   9.753   3.062 -0.2296 -0.5410 -0.3314
41697SOL    HW132206   2.089   9.721   2.981  2.1411  0.4856  0.3674
41697SOL    HW232207   2.049   9.849   3.052 -1.6403 -0.4575  0.1451
41698SOL     OW32208   9.582   1.692   5.906 -0.2317 -0.2794 -0.0500
41698SOL    HW132209   9.586   1.768   5.848 -1.4435 -1.4776 -1.8013
41698SOL    HW232210   9.672   1.658   5.907 -0.2866 -0.5238 -1.6692
41699SOL     OW32211  12.541   1.380  12.113 -0.0186 -0.2406 -0.5607
41699SOL    HW132212  12.598   1.445  12.153 -1.1257  0.1931  0.3964
41699SOL    HW232213  12.460   1.384  12.165  0.1924 -3.0510  0.1371
41700SOL     OW32214   7.955   6.760   6.533  0.0619  0.5712  0.1237
41700SOL    HW132215   7.899   6.774   6.457  0.6717  1.2181 -0.2211
41700SOL    HW232216   7.941   6.837   6.588  0.7342  0.8341 -0.0553
41701SOL     OW32217   3.482   3.732   1.776  0.1470 -0.4714  0.0266
41701SOL    HW132218   3.494   3.728   1.871 -0.6517  0.4292  0.1725
41701SOL    HW232219   3.551   3.674   1.741 -1.1091 -2.8365  1.2303
41702SOL     OW32220  11.488   8.077   2.096  0.5419  0.0871  0.0947
41702SOL    HW132221  11.519   7.987   2.104 -0.4989 -0.3025 -0.0612
41702SOL    HW232222  11.400   8.069   2.059 -0.0707  1.0947  1.2462
41703SOL     OW32223  12.822   1.332  12.077  0.9968 -0.4050 -0.5318
41703SOL    HW132224  12.728   1.316  12.062  0.3268  3.6914 -1.8493
41703SOL    HW232225  12.836   1.304  12.168 -1.6581 -0.6318 -0.0991
41704SOL     OW32226   1.602  12.572   3.217 -0.5228 -0.4156  0.1372
41704SOL    HW132227   1.598  12.664   3.242 -3.1221 -0.5060  0.3307
41704SOL    HW232228   1.640  12.573   3.129  2.7650  0.4468  1.4263
41705SOL     OW32229   3.485   6.251   8.294 -0.2759  0.6255  0.0929
41705SOL    HW132230   3.438   6.295   8.364  0.6264  0.0787  1.0609
41705SOL    HW232231   3.432   6.267   8.216 -2.6779 -0.9143  1.3138
41706SOL     OW32232   5.871  10.108   5.247 -0.3072 -0.0472  0.1550
41706SOL    HW132233   5.816  10.185   5.257 -1.6493 -0.5006 -2.6412
41706SOL    HW232234   5.949  10.140   5.202 -0.3406 -0.1414  0.0305
41707SOL     OW32235   8.924   7.934   8.723 -0.5228  0.3636  0.4805
41707SOL    HW132236   8.935   7.971   8.636 -0.7841  1.0889  0.7474
41707SOL    HW232237   8.937   8.008   8.783  1.4907 -0.4650  1.1556
41708SOL     OW32238  10.362   9.127   7.426 -0.5450 -0.0012  0.9593
41708SOL    HW132239  10.269   9.146   7.418 -0.6293 -0.6005  0.5091
41708SOL    HW232240  10.403   9.181   7.359 -0.7376 -1.0199  0.0122
41709SOL     OW32241   5.583   4.325   4.303  0.2908  0.2188 -0.0877
41709SOL    HW132242   5.630   4.284   4.231  0.4434  0.4081 -0.0945
41709SOL    HW232243   5.518   4.382   4.261 -0.6131 -0.7746 -0.0996
41710SOL     OW32244   8.974  11.262   9.957  0.1812 -0.2300 -0.3272
41710SOL    HW132245   9.008  11.173   9.953  0.8697  0.0697 -1.5073
41710SOL    HW232246   8.909  11.259  10.028 -0.8232 -2.0109 -1.2374
41711SOL     OW32247  10.965   7.873   2.396 -0.5733 -0.1965 -0.1215
41711SOL    HW132248  11.018   7.867   2.476  0.6069 -0.8081 -0.9108
41711SOL    HW232249  10.942   7.783   2.376  0.4219 -0.2308 -1.2614
41712SOL     OW32250   9.938   6.319  11.613  0.2786 -0.6664  0.0765
41712SOL    HW132251  10.017   6.299  11.562 -0.5746 -2.1538 -0.7480
41712SOL    HW232252   9.952   6.408  11.646  2.8866 -1.3820  1.1291
41713SOL     OW32253   8.969   0.727   1.727 -0.0616  0.0605  0.6241
41713SOL    HW132254   9.003   0.663   1.664  1.3621 -1.1525  2.5286
41713SOL    HW232255   9.044   0.781   1.750 -0.8393  1.2624  0.4346
41714SOL     OW32256   5.938   1.962   1.958  0.3263  0.4056 -0.0650
41714SOL    HW132257   5.878   1.938   1.887  1.8235  0.9450 -1.5764
41714SOL    HW232258   5.900   2.041   1.996 -0.1441  0.4895 -0.7076
41715SOL     OW32259  12.589   9.248   4.018  0.0318  0.1220 -0.0101
41715SOL    HW132260  12.559   9.171   3.970  0.1859 -0.1031  0.2477
41715SOL    HW232261  12.584   9.319   3.955 -0.0496 -0.1134 -0.2715
41716SOL     OW32262   1.888   2.889   8.594 -0.2432 -0.0618  0.0078
41716SOL    HW132263   1.961   2.849   8.548  0.1364  0.7570 -0.1158
41716SOL    HW232264   1.864   2.964   8.540 -0.7664  0.0397  0.3738
41717SOL     OW32265  11.880  11.032   7.435  0.0574  0.4094 -0.0962
41717SOL    HW132266  11.894  10.981   7.355  0.4336  0.8326 -0.3038
41717SOL    HW232267  11.845  11.116   7.404 -1.7860 -0.1536  0.3222
41718SOL     OW32268   9.004   5.418   9.885  0.2546 -0.0582  0.7056
41718SOL    HW132269   8.920   5.373   9.896 -1.0240  2.0159  0.0237
41718SOL    HW232270   9.044   5.376   9.809 -0.6474 -0.3835  0.3971
41719SOL     OW32271  11.348   0.098   6.238  0.0976  0.1292  0.2280
41719SOL    HW132272  11.423   0.062   6.190 -0.7398 -0.5843 -0.6061
41719SOL    HW232273  11.377   0.103   6.329  1.1524 -0.1330 -0.0809
41720SOL     OW32274   0.176   1.420   1.099 -0.3499 -0.4680  0.4307
41720SOL    HW132275   0.130   1.350   1.145 -1.2271 -0.4836 -0.4337
41720SOL    HW232276   0.268   1.398   1.107 -0.5914 -1.4764  0.5824
41721SOL     OW32277   7.186  10.402   8.038  0.2965 -0.0168  0.3964
41721SOL    HW132278   7.282  10.395   8.038  0.4669  1.7825 -0.5061
41721SOL    HW232279   7.156  10.315   8.011  1.6344 -0.8230  1.3708
41722SOL     OW32280   2.366   9.523   5.864 -0.2374 -0.5402 -0.6871
41722SOL    HW132281   2.451   9.484   5.842  0.8595  0.3464  1.6032
41722SOL    HW232282   2.377   9.616   5.845 -0.9891 -0.5264 -1.0910
41723SOL     OW32283   6.072   1.894   8.023  0.0066  0.0510 -0.3474
41723SOL    HW132284   6.087   1.886   8.118  1.7908  1.7705 -0.4194
41723SOL    HW232285   6.044   1.984   8.011  0.9825  0.2223 -1.5670
41724SOL     OW32286  10.033   9.876   1.671  0.5058 -0.5728 -0.0948
41724SOL    HW132287  10.052   9.968   1.653  0.6685 -0.5029  0.4267
41724SOL    HW232288   9.940   9.866   1.649  0.0505  0.1200  1.3937
41725SOL     OW32289   1.201  12.879   8.871  0.1399  0.3059 -0.2602
41725SOL    HW132290   1.180  12.943   8.803 -0.9554  1.0687  0.7604
41725SOL    HW232291   1.294  12.894   8.891  0.7078 -0.4511 -2.0771
41726SOL     OW32292   9.761  12.700   1.089 -0.6815 -0.4046 -0.4956
41726SOL    HW132293   9.673  12.668   1.067 -0.9639 -0.3538  0.5097
41726SOL    HW232294   9.764  12.788   1.051 -1.6294  0.1814  0.6774
41727SOL     OW32295   0.749   8.789  10.532  0.6830 -0.1117  0.1941
41727SOL    HW132296   0.736   8.884  10.534  0.3012 -0.1723  0.9787
41727SOL    HW232297   0.661   8.753  10.543  0.8943 -0.5529  0.4737
41728SOL     OW32298   2.798  12.311  12.043 -0.1512  0.2249 -0.7053
41728SOL    HW132299   2.730  12.371  12.073 -0.4469 -0.1410 -0.6192
41728SOL    HW232300   2.868  12.318  12.108 -0.4290  0.0583 -0.3837
41729SOL     OW32301  11.510  11.557  11.368 -0.2244  0.2978 -0.2169
41729SOL    HW132302  11.483  11.468  11.344 -1.1188  0.9322 -1.6564
41729SOL    HW232303  11.519  11.603  11.285  0.7245  1.4304  0.4882
41730SOL     OW32304   0.357   1.336   6.504  0.0231  0.8303  0.0089
41730SOL    HW132305   0.376   1.358   6.596  2.9988  0.7184 -0.4754
41730SOL    HW232306   0.442   1.309   6.468 -1.2050  0.1466 -2.6047
41731SOL     OW32307   4.685   3.935   3.077  0.2448 -0.1198 -0.1106
41731SOL    HW132308   4.739   3.887   3.141 -0.0422 -1.1032 -0.5783
41731SOL    HW232309   4.719   4.024   3.078  0.9278 -0.3789  0.6535
41732SOL     OW32310  11.765   6.549   5.894 -0.0328  0.3742  0.0304
41732SOL    HW132311  11.805   6.621   5.943 -1.6327  3.0654 -2.2755
41732SOL    HW232312  11.814   6.545   5.812 -0.3430 -0.7850 -0.1141
41733SOL     OW32313  11.112   5.915   1.818 -0.3181  0.2759 -0.0345
41733SOL    HW132314  11.154   5.831   1.801 -0.6287 -0.0547  0.7712
41733SOL    HW232315  11.086   5.947   1.732 -1.4253 -1.1102 -0.2498
41734SOL     OW32316   5.937   5.490   6.332 -0.5669 -0.6519 -0.0387
41734SOL    HW132317   6.008   5.454   6.385 -0.8433 -2.0642 -0.6043
41734SOL    HW232318   5.883   5.415   6.310 -1.9627  0.3282 -0.0586
41735SOL     OW32319   6.983  12.445   4.517  0.2250 -0.1012  0.5238
41735SOL    HW132320   6.956  12.521   4.569  0.6241 -0.0030  0.5857
41735SOL    HW232321   7.029  12.481   4.442 -2.4154 -0.0860 -1.2290
41736SOL     OW32322   7.375   7.459   9.855  0.3110  0.4251  0.8140
41736SOL    HW132323   7.280   7.451   9.856  0.4943 -3.3432  0.5823
41736SOL    HW232324   7.396   7.492   9.768 -0.7254 -0.8923  0.0308
41737SOL     OW32325   6.783   3.415   8.812  0.1311 -0.0077 -0.4520
41737SOL    HW132326   6.863   3.467   8.812  0.9925 -1.1229 -3.1508
41737SOL    HW232327   6.812   3.326   8.797 -1.5726 -0.6176 -0.4263
41738SOL     OW32328   7.819  11.875   5.118  0.4458  0.4886  0.5516
41738SOL    HW132329   7.898  11.838   5.077 -0.2665 -0.1811 -0.2788
41738SOL    HW232330   7.811  11.962   5.080  0.3969  0.2819  0.0730
41739SOL     OW32331   6.259   7.461   1.758  0.0844 -0.6042  0.0507
41739SOL    HW132332   6.211   7.454   1.841 -1.0893 -0.1683 -0.5580
41739SOL    HW232333   6.330   7.522   1.776 -0.6494  0.1319  0.5367
41740SOL     OW32334   4.078   4.382   4.858 -0.1052 -0.5975 -0.0079
41740SOL    HW132335   4.061   4.310   4.798 -0.9184 -1.8676  1.6773
41740SOL    HW232336   3.999   4.387   4.913  0.7957  0.1864  1.2702
41741SOL     OW32337   4.363   6.078   5.022 -0.0940 -0.2282 -0.4402
41741SOL    HW132338   4.269   6.068   5.002  0.0567  0.4423 -1.6180
41741SOL    HW232339   4.406   6.067   4.937  1.1109 -2.7724  0.4375
41742SOL     OW32340  12.339   3.331   0.367 -0.0614  0.1323 -0.4319
41742SOL    HW132341  12.421   3.282   0.376 -0.0417  0.3502  0.7407
41742SOL    HW232342  12.273   3.273   0.404  0.0212  1.0967  1.3463
41743SOL     OW32343  10.976   0.126   1.594  0.2229  0.0143 -0.1009
41743SOL    HW132344  10.959   0.209   1.637 -0.7152  0.0729 -0.5657
41743SOL    HW232345  11.023   0.149   1.514 -1.2363  0.2574 -0.9350
41744SOL     OW32346   1.503   0.130   2.569 -0.3653  0.1353 -0.3664
41744SOL    HW132347   1.465   0.088   2.493 -0.6547 -1.0761  0.4235
41744SOL    HW232348   1.432   0.184   2.605 -1.2374 -1.6781  0.7772
41745SOL     OW32349   6.486  11.462   7.371  0.2698  0.6001  0.0393
41745SOL    HW132350   6.519  11.402   7.305  0.3618  2.6484 -1.8734
41745SOL    HW232351   6.551  11.458   7.442 -0.3989 -2.4492  0.6318
41746SOL     OW32352   1.467   9.923  12.291 -0.1028 -0.5610 -0.4931
41746SOL    HW132353   1.433   9.838  12.319  1.2150 -0.4879  1.4598
41746SOL    HW232354   1.545   9.903  12.239  0.8480 -0.5512  0.8915
41747SOL     OW32355  10.881   2.537  12.073 -0.3555  0.1358  0.1784
41747SOL    HW132356  10.803   2.588  12.096 -0.4936 -0.2171  0.5090
41747SOL    HW232357  10.949   2.571  12.131 -0.4868 -0.1629  0.5094
41748SOL     OW32358   2.115   9.474   9.124 -0.0035 -0.2426  0.5210
41748SOL    HW132359   2.039   9.425   9.094 -1.0868  0.2785  2.2390
41748SOL    HW232360   2.101   9.563   9.092  0.9126 -0.5693 -0.8402
41749SOL     OW32361   5.407   7.441   1.944 -0.2016  0.4357 -0.2353
41749SOL    HW132362   5.394   7.447   1.849  0.0947  1.7319 -0.2164
41749SOL    HW232363   5.407   7.347   1.963  1.6013  0.0672 -1.7999
41750SOL     OW32364   7.904   7.420  11.650  0.3066  0.1348  0.5893
41750SOL    HW132365   7.831   7.481  11.644  0.6208  0.6181  1.5486
41750SOL    HW232366   7.913   7.385  11.561 -0.0502  1.2647  0.0935
41751SOL     OW32367  11.067   3.985   2.889 -0.3008 -0.0252 -0.5071
41751SOL    HW132368  11.045   4.076   2.908 -1.2245 -0.6256  1.4493
41751SOL    HW232369  11.014   3.934   2.949  1.5472 -1.8094 -0.2981
41752SOL     OW32370   6.180  10.040   1.212 -0.7455 -0.7897  0.4218
41752SOL    HW132371   6.100  10.058   1.163 -0.8231 -1.2137  0.3853
41752SOL    HW232372   6.150  10.013   1.299 -0.5749  1.2775  1.1743
41753SOL     OW32373  10.669  12.855   8.380 -0.8945  0.4047  0.1881
41753SOL    HW132374  10.640  12.940   8.414 -3.5913  0.4785 -2.0110
41753SOL    HW232375  10.756  12.873   8.344 -0.7175  1.8130  1.2223
41754SOL     OW32376   3.533   1.533   9.774 -0.6576  0.4305 -0.8321
41754SOL    HW132377   3.456   1.567   9.728 -1.4610 -0.1871 -0.0070
41754SOL    HW232378   3.505   1.528   9.866 -0.7800 -2.7113 -0.9109
41755SOL     OW32379   4.414   3.662   3.881  0.5772  0.2635 -0.6438
41755SOL    HW132380   4.412   3.593   3.815  1.3390  0.5101 -0.9326
41755SOL    HW232381   4.507   3.679   3.896  0.4344  0.0279  0.6926
41756SOL     OW32382  11.444  12.135   7.139 -0.2341  0.2311 -0.0034
41756SOL    HW132383  11.466  12.222   7.105  0.0559  0.5714  1.0008
41756SOL    HW232384  11.477  12.136   7.229  0.2879 -1.1329 -0.1576
41757SOL     OW32385   1.427   6.916  12.476  0.4765  0.2893  0.6875
41757SOL    HW132386   1.352   6.859  12.462  0.0324  0.6697  1.4830
41757SOL    HW232387   1.430   6.929  12.570  1.2847  0.6309  0.6226
41758SOL     OW32388   3.199   6.832  11.251 -0.2198 -0.2250  0.2492
41758SOL    HW132389   3.246   6.752  11.274  1.1669  0.5006  0.0299
41758SOL    HW232390   3.264   6.886  11.207 -0.8504  1.4199  1.2454
41759SOL     OW32391   2.012  10.150   2.086 -0.0631  0.1777  0.1259
41759SOL    HW132392   1.977  10.073   2.042 -0.8767  0.2143  0.6868
41759SOL    HW232393   2.039  10.119   2.172 -0.2100  0.4753  0.2828
41760SOL     OW32394   2.561  12.680   4.849  0.2135 -0.3332  0.1089
41760SOL    HW132395   2.594  12.768   4.867  0.0243 -0.4617  1.1540
41760SOL    HW232396   2.536  12.646   4.935  1.3744 -1.8492 -0.1017
41761SOL     OW32397   3.351  12.076  12.573 -0.1068 -0.0817  0.2705
41761SOL    HW132398   3.282  12.016  12.601 -0.2224 -0.3377 -0.5492
41761SOL    HW232399   3.348  12.148  12.637  0.3281 -1.1497  1.5267
41762SOL     OW32400  11.794   7.411   8.989  0.7436 -0.2497 -0.3604
41762SOL    HW132401  11.760   7.500   8.978  3.3833  0.9249  0.2761
41762SOL    HW232402  11.727   7.366   9.040  0.0803  1.9032  0.7916
41763SOL     OW32403   0.608   0.810   5.174  0.1610 -0.4689  0.2611
41763SOL    HW132404   0.634   0.790   5.263  3.0530  0.7312 -0.2207
41763SOL    HW232405   0.604   0.905   5.170 -1.7530 -0.5175 -0.4860
41764SOL     OW32406   3.600   9.088   0.802  0.4552 -0.2728 -0.1527
41764SOL    HW132407   3.689   9.067   0.775  0.7937  1.6721 -0.7228
41764SOL    HW232408   3.572   9.157   0.741 -1.7436 -1.3799 -0.4945
41765SOL     OW32409   2.638   7.630   7.685 -0.3327 -0.2075 -0.4414
41765SOL    HW132410   2.711   7.676   7.728 -0.4020 -0.2515 -0.2769
41765SOL    HW232411   2.583   7.599   7.757 -0.5839 -0.0629 -0.5703
41766SOL     OW32412  10.918   3.015   8.317  0.2380 -0.0202  0.0263
41766SOL    HW132413  11.011   3.028   8.300  0.1861  0.1860 -0.1105
41766SOL    HW232414  10.904   3.056   8.403 -0.0370  1.3678 -0.6531
41767SOL     OW32415   0.759   6.020   3.995  0.3274 -0.1419  0.3927
41767SOL    HW132416   0.811   6.054   4.068  2.2060 -0.2254 -0.8424
41767SOL    HW232417   0.684   5.978   4.037 -0.3989  2.6070  2.1064
41768SOL     OW32418   3.395   4.413   1.355  0.4271 -0.3364 -0.2679
41768SOL    HW132419   3.389   4.341   1.293  1.9189 -0.0343 -0.8144
41768SOL    HW232420   3.316   4.406   1.408  0.2615 -2.0020 -0.6871
41769SOL     OW32421   8.978  10.114   9.398 -0.1919  0.6851 -0.0029
41769SOL    HW132422   9.054  10.079   9.351 -1.8411 -0.4967 -1.9216
41769SOL    HW232423   8.958  10.196   9.352 -1.1285  0.0910 -0.6848
41770SOL     OW32424   7.837  11.533  10.941  0.5706 -0.2340 -0.4158
41770SOL    HW132425   7.839  11.619  10.982 -1.4814  0.4864 -1.6636
41770SOL    HW232426   7.891  11.542  10.862  0.8908 -0.2874 -0.2015
41771SOL     OW32427   4.216   9.592   6.171 -0.0102  0.1008  0.1491
41771SOL    HW132428   4.237   9.549   6.254  1.0412  0.0197 -0.1458
41771SOL    HW232429   4.121   9.581   6.162 -0.2288  0.5829  1.5982
41772SOL     OW32430   9.151   3.374   3.543  0.1007 -0.3786 -0.0918
41772SOL    HW132431   9.154   3.423   3.625 -1.6010  1.3216 -0.9769
41772SOL    HW232432   9.231   3.400   3.498 -0.3682  0.9897 -0.1866
41773SOL     OW32433   8.999  10.066  11.947  0.0955  0.0892 -0.1906
41773SOL    HW132434   9.025  10.001  11.883  1.1272  0.6256 -0.3383
41773SOL    HW232435   9.081  10.107  11.975 -0.5683  1.7942 -0.6130
41774SOL     OW32436   5.485   3.227  11.428  0.1469 -0.0597 -0.4798
41774SOL    HW132437   5.472   3.150  11.371  0.7611 -0.9305  0.5123
41774SOL    HW232438   5.566   3.208  11.474  0.2203  1.1420 -0.1045
41775SOL     OW32439   2.641   9.685   9.301 -0.6196  0.0573  0.1702
41775SOL    HW132440   2.730   9.650   9.311 -0.4129  0.8036  1.1633
41775SOL    HW232441   2.622   9.676   9.208 -1.0803 -3.8349  0.4833
41776SOL     OW32442   0.583  10.160   3.316  0.4296  0.0464  0.1167
41776SOL    HW132443   0.597  10.080   3.265 -3.6123 -0.1539 -0.9955
41776SOL    HW232444   0.518  10.136   3.382  0.0490  2.1266  0.5659
41777SOL     OW32445   9.098   7.392   9.949 -0.3286  0.0533  0.5364
41777SOL    HW132446   9.027   7.432   9.999 -1.1230  0.1199 -0.6067
41777SOL    HW232447   9.101   7.442   9.867  1.3467  0.3463  0.7390
41778SOL     OW32448   8.262   2.343  12.495  0.1311  0.0727  0.1680
41778SOL    HW132449   8.320   2.399  12.547 -0.3220 -0.0367  0.7890
41778SOL    HW232450   8.214   2.405  12.440  1.9511  0.0882 -1.5554
41779SOL     OW32451   0.586   9.924   5.320 -0.1457  0.2109  0.0973
41779SOL    HW132452   0.606   9.890   5.407 -0.4005  1.0417  0.4977
41779SOL    HW232453   0.491   9.937   5.321  0.0928  2.5449  0.6248
41780SOL     OW32454   7.100   0.157  12.070 -0.0903  0.2629  0.0317
41780SOL    HW132455   7.169   0.183  12.131  0.4878  1.4788 -1.0881
41780SOL    HW232456   7.025   0.137  12.127  0.2798  1.8030  1.1369
41781SOL     OW32457   4.373   4.512   0.179 -0.5308  0.1997 -0.2545
41781SOL    HW132458   4.429   4.471   0.113  0.0459 -3.0727  2.0062
41781SOL    HW232459   4.286   4.475   0.162 -0.7377  0.6486 -0.1795
41782SOL     OW32460   2.376   2.785   2.634  0.3784  0.7634 -0.3480
41782SOL    HW132461   2.454   2.840   2.633  1.1056 -0.2270  0.2752
41782SOL    HW232462   2.387   2.727   2.559 -0.7349  1.8905 -1.4375
41783SOL     OW32463  10.991  12.087   1.630 -1.3145 -0.1225 -0.2315
41783SOL    HW132464  11.050  12.162   1.643 -0.2043 -1.0846  0.5325
41783SOL    HW232465  10.923  12.119   1.571 -1.3943  1.7700  0.8082
41784SOL     OW32466  10.200   5.746  10.369 -0.2624  0.1358 -0.1606
41784SOL    HW132467  10.181   5.661  10.409  0.1485 -0.7563 -1.8141
41784SOL    HW232468  10.249   5.726  10.290  1.4770  2.0161  0.3427
41785SOL     OW32469   0.500  11.635   4.289  0.2356 -0.8138 -0.4790
41785SOL    HW132470   0.483  11.617   4.381  0.3652  1.7190  0.1116
41785SOL    HW232471   0.465  11.559   4.242 -2.8029 -0.7212  1.4212
41786SOL     OW32472   9.000   5.846   4.704 -0.3545  0.4249 -0.2207
41786SOL    HW132473   8.940   5.812   4.637  0.5107  0.2340 -0.9147
41786SOL    HW232474   8.999   5.779   4.773 -3.6242  1.9999  1.4972
41787SOL     OW32475   4.829  12.258   9.685 -0.2884 -0.0298  0.4097
41787SOL    HW132476   4.889  12.196   9.727  2.1652  2.8486  1.5425
41787SOL    HW232477   4.877  12.291   9.610 -2.6270 -1.3295 -1.8129
41788SOL     OW32478  12.542   9.435   4.252 -0.2443 -0.0807 -0.1393
41788SOL    HW132479  12.593   9.420   4.332  3.1424  2.8852 -1.4508
41788SOL    HW232480  12.507   9.349   4.229  2.8789 -2.0812  1.8355
41789SOL     OW32481  11.575   8.781   6.563  0.1292  0.3697  0.1014
41789SOL    HW132482  11.603   8.856   6.510  2.3149 -0.6289 -0.2287
41789SOL    HW232483  11.519   8.730   6.505 -1.0254  1.4573  0.1915
41790SOL     OW32484  10.541   0.934   3.137  0.1544  0.2597 -0.2197
41790SOL    HW132485  10.501   1.002   3.081  1.7974  1.1673 -0.3503
41790SOL    HW232486  10.553   0.977   3.221 -0.7144 -0.5683  0.3498
41791SOL     OW32487  11.238   0.939   7.174 -0.5939  0.5490 -0.0112
41791SOL    HW132488  11.273   1.024   7.147  0.6450 -0.3799 -1.5084
41791SOL    HW232489  11.315   0.881   7.173 -1.1121 -0.2982  2.4194
41792SOL     OW32490   3.988   6.048   4.202 -0.1566 -0.2502  0.0447
41792SOL    HW132491   4.041   6.064   4.124  0.7352 -0.6680  0.5552
41792SOL    HW232492   4.005   5.957   4.224 -0.9365 -0.3281  0.3357
41793SOL     OW32493   5.461   3.556   3.455  0.3058 -0.6069 -0.4324
41793SOL    HW132494   5.406   3.634   3.448 -0.7327 -1.2819 -0.0852
41793SOL    HW232495   5.541   3.587   3.497 -0.9189 -0.0952  1.6758
41794SOL     OW32496   4.552   9.259   9.421 -0.1972 -0.4889 -0.4142
41794SOL    HW132497   4.562   9.217   9.506  0.1806  0.1015 -0.1699
41794SOL    HW232498   4.636   9.245   9.377  0.4455  1.2237  0.2107
41795SOL     OW32499  10.201   4.579   8.430 -0.2609  0.0632  0.2089
41795SOL    HW132500  10.137   4.620   8.488 -1.0765  0.2009 -0.7754
41795SOL    HW232501  10.281   4.631   8.442 -0.6293  0.5270  0.6764
41796SOL     OW32502   1.471   7.607   5.763 -0.4160  0.6415 -0.5070
41796SOL    HW132503   1.390   7.561   5.743  0.1627 -0.1699 -1.0737
41796SOL    HW232504   1.540   7.542   5.747  0.3435  1.2949  0.0044
41797SOL     OW32505  12.263   6.454   9.941 -0.2725  0.1948 -0.4142
41797SOL    HW132506  12.353   6.421   9.949 -0.4499 -0.4485 -0.9612
41797SOL    HW232507  12.242   6.442   9.849 -0.4969  1.4898 -0.5444
41798SOL     OW32508   2.011   7.007   1.657 -0.3728 -0.0681 -0.0218
41798SOL    HW132509   2.099   6.969   1.657 -0.9589 -1.6553 -2.2100
41798SOL    HW232510   1.955   6.937   1.690 -0.9046  0.7894  0.9496
41799SOL     OW32511  12.184   7.526   8.380  0.1723 -0.3613 -0.1258
41799SOL    HW132512  12.190   7.611   8.337 -0.8021  0.0169  0.4548
41799SOL    HW232513  12.095   7.496   8.362  0.6601 -1.4999 -0.7460
41800SOL     OW32514   3.386  10.125   1.515 -0.0316  0.4712 -0.7727
41800SOL    HW132515   3.327  10.159   1.581 -0.4721 -1.8159  0.1029
41800SOL    HW232516   3.358  10.166   1.433 -0.3074  2.3437  0.2084
41801SOL     OW32517   8.523  10.837   7.316 -0.3977  0.7868  0.0770
41801SOL    HW132518   8.550  10.918   7.359  0.9280 -0.4699  1.7225
41801SOL    HW232519   8.492  10.781   7.387  1.5382 -1.2384 -0.5559
41802SOL     OW32520   4.645   8.832   8.000 -0.1579 -0.4994  0.4138
41802SOL    HW132521   4.734   8.806   8.022  0.2173 -1.4029 -1.8077
41802SOL    HW232522   4.643   8.927   8.012  0.8075 -0.5947  1.4020
41803SOL     OW32523   0.526   1.045   0.697 -0.6635  0.1083 -0.5555
41803SOL    HW132524   0.507   0.975   0.634  1.1805 -0.5469 -0.4471
41803SOL    HW232525   0.485   1.123   0.659 -1.7383 -0.7845 -1.2824
41804SOL     OW32526   7.143   1.017  12.158 -0.5742 -0.0065 -0.3627
41804SOL    HW132527   7.200   1.089  12.183 -0.5079 -0.6019  1.3223
41804SOL    HW232528   7.058   1.059  12.143  0.1469  0.8358 -2.5887
41805SOL     OW32529  11.157   0.777   1.658 -0.1606  0.2779  0.1808
41805SOL    HW132530  11.137   0.699   1.709  1.3497 -0.6455 -0.5500
41805SOL    HW232531  11.133   0.851   1.714 -2.1036 -0.6881  0.6891
41806SOL     OW32532   2.622   9.533   3.405 -0.4460  0.1951  0.5013
41806SOL    HW132533   2.621   9.437   3.409  0.1688  0.2099  1.5775
41806SOL    HW232534   2.535   9.557   3.374 -0.7321 -0.7029  0.5913
41807SOL     OW32535  10.185  11.413   3.695  0.1903 -0.4424 -0.2025
41807SOL    HW132536  10.195  11.501   3.731 -0.0759  0.3608 -1.9646
41807SOL    HW232537  10.211  11.355   3.766 -0.4750  1.0080  1.3164
41808SOL     OW32538  12.486   3.251   9.368 -0.0374  0.3460  0.4808
41808SOL    HW132539  12.579   3.273   9.366 -0.4431  2.1671 -0.4090
41808SOL    HW232540  12.442   3.336   9.361 -1.7568 -0.6161 -1.0090
41809SOL     OW32541  11.949   3.987  12.475  0.2489  0.0807  0.4143
41809SOL    HW132542  11.871   3.953  12.431 -0.6776 -0.6501  2.4983
41809SOL    HW232543  11.914   4.045  12.543  1.4697 -0.8285  1.8627
41810SOL     OW32544   5.238   1.705   9.567  0.2970  0.0847  0.6730
41810SOL    HW132545   5.274   1.748   9.489 -1.4760 -0.6606 -0.6505
41810SOL    HW232546   5.175   1.768   9.602 -0.4520 -0.3808  0.2149
41811SOL     OW32547  11.719   9.741   9.359  0.8004  0.1429 -0.8761
41811SOL    HW132548  11.672   9.803   9.415  0.7889  0.2111 -0.9611
41811SOL    HW232549  11.689   9.761   9.270  0.7904  0.0099 -0.9034
41812SOL     OW32550   7.568   7.110  11.584  0.3209  0.3887  0.9167
41812SOL    HW132551   7.583   7.036  11.526 -0.6157 -0.1018  1.2775
41812SOL    HW232552   7.639   7.104  11.648  0.7374  0.3042  0.4553
41813SOL     OW32553  12.552   6.597   1.117 -0.7165  0.2859 -0.3761
41813SOL    HW132554  12.573   6.507   1.091  1.0766  0.4304  0.4489
41813SOL    HW232555  12.491   6.587   1.190 -0.0525 -0.3024  0.1161
41814SOL     OW32556   5.438   6.436  11.689  0.2331 -0.2904  0.1256
41814SOL    HW132557   5.487   6.502  11.641 -0.7500  0.6570  0.3762
41814SOL    HW232558   5.455   6.354  11.643 -0.4543  0.5420 -1.6694
41815SOL     OW32559  10.646   1.839   2.473 -0.3159 -0.3698 -0.7348
41815SOL    HW132560  10.595   1.919   2.469  0.3787  0.0975 -0.5185
41815SOL    HW232561  10.643   1.803   2.384 -0.0145  0.2899 -1.0140
41816SOL     OW32562   5.477   0.920   0.022  0.4225  0.0848  0.0950
41816SOL    HW132563   5.545   0.987   0.025 -0.4389  1.0486 -0.8634
41816SOL    HW232564   5.402   0.961   0.066  0.1553 -0.5722  0.2509
41817SOL     OW32565  10.862   2.812  12.217 -0.0348  0.6634  0.3399
41817SOL    HW132566  10.951   2.810  12.181 -0.1170 -1.9793  0.1053
41817SOL    HW232567  10.866   2.755  12.294 -1.9168 -1.0976 -0.7849
41818SOL     OW32568   1.823   3.996   7.123  0.0658  0.1516  0.2265
41818SOL    HW132569   1.900   4.045   7.093  0.2614  0.0229  0.5178
41818SOL    HW232570   1.750   4.037   7.077  0.1942  0.9173  0.6799
41819SOL     OW32571   0.825   0.977  11.307  0.3131  0.0896 -0.2824
41819SOL    HW132572   0.895   0.935  11.358  1.8039  1.8359 -0.7801
41819SOL    HW232573   0.814   1.063  11.348 -0.9001  0.2024 -0.8177
41820SOL     OW32574   7.216   6.149   0.272  0.3574  0.4324  0.0697
41820SOL    HW132575   7.194   6.217   0.335  1.5404  0.7131  0.1901
41820SOL    HW232576   7.305   6.168   0.245  0.3351 -0.4581 -0.6953
41821SOL     OW32577  10.923  12.524   6.554  0.3047 -0.5191 -0.3104
41821SOL    HW132578  10.888  12.604   6.515 -0.9486 -1.1929 -0.6260
41821SOL    HW232579  10.937  12.465   6.479  0.3012 -0.9350  0.0126
41822SOL     OW32580   8.331   1.153   0.992 -0.5749 -0.5838 -0.7572
41822SOL    HW132581   8.405   1.119   0.942 -0.3647 -1.6724  0.2368
41822SOL    HW232582   8.363   1.157   1.082 -1.3646  0.0219 -0.4952
41823SOL     OW32583   8.558   7.220   5.274 -0.2252  0.5061 -0.2215
41823SOL    HW132584   8.541   7.312   5.253 -0.0917  0.1652 -1.9135
41823SOL    HW232585   8.645   7.203   5.239 -0.2504 -0.2822  0.0765
41824SOL     OW32586   5.952   9.949   5.468 -0.1621 -0.1264 -0.4847
41824SOL    HW132587   5.931  10.000   5.389  1.9698  0.2948 -0.8401
41824SOL    HW232588   6.027   9.995   5.507 -0.8245 -0.6418  1.5165
41825SOL     OW32589   4.272   9.148   7.544 -0.3521 -0.0188 -0.2320
41825SOL    HW132590   4.340   9.159   7.477  0.1219  0.6845  0.3426
41825SOL    HW232591   4.320   9.149   7.627 -1.2123  2.6893  0.3306
41826SOL     OW32592   5.718   4.752   1.728  0.0920  0.3659  0.1137
41826SOL    HW132593   5.627   4.774   1.750 -0.1576 -0.4085 -0.1024
41826SOL    HW232594   5.736   4.674   1.780  0.4580  0.2166 -0.2337
41827SOL     OW32595   1.766   2.573   0.074  0.5127 -0.1138  0.7079
41827SOL    HW132596   1.779   2.487   0.035 -0.5075 -0.5844  1.3578
41827SOL    HW232597   1.755   2.632  -0.000 -1.4772 -0.9982  0.2413
41828SOL     OW32598   6.938   4.888  11.890 -0.1090 -0.1918  0.2757
41828SOL    HW132599   6.951   4.982  11.899  0.8443 -0.4657  2.4542
41828SOL    HW232600   6.961   4.852  11.976 -0.8501 -2.3764 -0.3654
41829SOL     OW32601   6.951   9.642  10.449  0.3762 -0.0230  0.2639
41829SOL    HW132602   6.959   9.646  10.353  2.2673 -3.0175  0.1451
41829SOL    HW232603   6.857   9.632  10.465 -0.0135  0.8763 -1.2158
41830SOL     OW32604   6.581   7.767  10.412 -0.2479  0.3855  0.6370
41830SOL    HW132605   6.670   7.778  10.446  0.2697  0.7540 -0.8028
41830SOL    HW232606   6.552   7.856  10.392 -0.6636  0.1931  0.3788
41831SOL     OW32607   6.312   0.506  10.167  0.1327  0.2366  0.4601
41831SOL    HW132608   6.360   0.478  10.090  1.3397 -1.8845  1.8813
41831SOL    HW232609   6.349   0.592  10.188  0.8521  0.1617 -0.4461
41832SOL     OW32610   0.464  11.499   9.779 -0.8426 -0.0163 -0.5737
41832SOL    HW132611   0.489  11.492   9.871  1.5260 -1.0999 -1.2229
41832SOL    HW232612   0.377  11.538   9.781 -1.1938 -0.7144  2.1430
41833SOL     OW32613  12.778  10.454   6.724 -0.3831 -0.1843  0.1929
41833SOL    HW132614  12.709  10.518   6.744 -0.2804 -0.3274  1.0550
41833SOL    HW232615  12.795  10.411   6.808  2.4748  1.4951  0.5886
41834SOL     OW32616   0.362   3.215   0.757 -0.0571  0.2330  0.0128
41834SOL    HW132617   0.326   3.304   0.750 -0.0706  0.3567  1.3455
41834SOL    HW232618   0.317   3.166   0.689 -0.2117  1.1969 -0.6050
41835SOL     OW32619   4.748   6.373   7.229 -0.4027  0.2394  0.3677
41835SOL    HW132620   4.664   6.378   7.182  0.6524 -1.7918 -1.9631
41835SOL    HW232621   4.736   6.301   7.291 -1.2016  1.7388  2.0368
41836SOL     OW32622   5.506   4.454   9.200  0.1472 -0.0118 -0.6377
41836SOL    HW132623   5.599   4.440   9.213  0.2846  0.9036 -0.5788
41836SOL    HW232624   5.497   4.549   9.186 -0.7319 -0.1265 -0.9380
41837SOL     OW32625   3.127   3.338   5.237 -0.2277 -0.0044  0.1070
41837SOL    HW132626   3.210   3.318   5.192 -0.7403 -0.9960 -0.4365
41837SOL    HW232627   3.094   3.416   5.192  0.3321  0.3064  0.2243
41838SOL     OW32628   0.960   5.265   8.064  0.2037  0.0637  0.1985
41838SOL    HW132629   0.878   5.229   8.099 -1.6868  1.0542 -2.8090
41838SOL    HW232630   0.955   5.359   8.082  1.5880 -0.0642  1.4921
41839SOL     OW32631   3.143   3.854   2.575 -0.3127  0.4036 -0.6859
41839SOL    HW132632   3.157   3.944   2.547 -0.4348  0.8595  0.6163
41839SOL    HW232633   3.064   3.857   2.629  0.8615 -0.0287  1.1827
41840SOL     OW32634   6.470   4.624  12.173 -0.0317 -0.1371 -0.0402
41840SOL    HW132635   6.415   4.702  12.185  3.2806  2.0572  3.4878
41840SOL    HW232636   6.533   4.649  12.106  0.5634 -0.0540  0.5416
41841SOL     OW32637   9.773   6.424   9.123  0.7087 -0.0917  0.6312
41841SOL    HW132638   9.834   6.497   9.122 -1.2723  1.6846  0.7911
41841SOL    HW232639   9.695   6.458   9.079 -0.9249 -1.4997  2.2775
41842SOL     OW32640   1.407   2.631   8.595 -0.4255  0.2448  0.3364
41842SOL    HW132641   1.346   2.691   8.552 -0.3217  0.3101  0.2800
41842SOL    HW232642   1.480   2.687   8.623  0.5453 -0.1222 -1.3260
41843SOL     OW32643  12.504  10.196  10.940 -0.3990 -0.0505 -0.5847
41843SOL    HW132644  12.525  10.283  10.975 -0.1644 -0.0351 -0.7680
41843SOL    HW232645  12.516  10.204  10.846 -1.8906  0.1592 -0.7769
41844SOL     OW32646   0.050   1.008   1.196  0.0069  0.3270  0.1754
41844SOL    HW132647   0.009   1.095   1.196  0.2591  0.4442  0.2746
41844SOL    HW232648   0.127   1.017   1.251 -0.2236 -0.0820  0.5679
41845SOL     OW32649   6.888  11.161   6.696  0.4227  0.1499 -0.1488
41845SOL    HW132650   6.900  11.155   6.791  2.8218 -1.3145 -0.4421
41845SOL    HW232651   6.940  11.237   6.670  0.9377 -0.2780 -0.4037
41846SOL     OW32652  11.617   6.469   2.907 -0.3253 -0.3863 -0.3634
41846SOL    HW132653  11.616   6.511   2.993 -0.3349 -1.9165  0.4167
41846SOL    HW232654  11.706   6.479   2.876 -0.3131  0.1457 -0.1628
41847SOL     OW32655  10.548   0.675   3.005 -0.0939  0.1457 -0.0882
41847SOL    HW132656  10.624   0.692   2.949 -1.1412  0.9243 -1.3555
41847SOL    HW232657  10.526   0.760   3.043 -0.2748 -0.0906  0.3438
41848SOL     OW32658   1.516  12.931   8.293  0.2614  0.6763  0.5666
41848SOL    HW132659   1.555  12.851   8.329  1.1331  1.9524  2.6666
41848SOL    HW232660   1.584  12.967   8.236 -0.6775 -0.7506 -1.5621
41849SOL     OW32661   4.861   4.313   7.484  0.1105  0.2820  0.2409
41849SOL    HW132662   4.930   4.249   7.468 -0.6444 -0.5418  0.1984
41849SOL    HW232663   4.861   4.369   7.406  0.3718 -0.0436  0.0079
41850SOL     OW32664   4.754  11.094   4.454  0.3173 -0.2469  0.1277
41850SOL    HW132665   4.710  11.028   4.400  1.0879 -1.3880  0.8457
41850SOL    HW232666   4.844  11.095   4.421  0.2744  0.5528  0.0363
41851SOL     OW32667   7.180  11.926   4.547 -0.2190 -0.1936  0.3961
41851SOL    HW132668   7.211  12.000   4.599  0.8267 -0.4582  0.1816
41851SOL    HW232669   7.246  11.858   4.562  1.1385  0.2962 -2.6304
41852SOL     OW32670   4.745   9.911   0.387  0.1581  0.1821 -0.3125
41852SOL    HW132671   4.693   9.962   0.324 -0.6159 -0.3497 -0.1238
41852SOL    HW232672   4.680   9.873   0.446  0.9260  1.4327  1.4116
41853SOL     OW32673  10.636   2.296   1.450  0.0954 -0.7041 -0.8773
41853SOL    HW132674  10.612   2.387   1.431  0.0907 -0.3231  0.8597
41853SOL    HW232675  10.552   2.252   1.463  0.1604 -0.3450  0.8981
41854SOL     OW32676   2.897   4.153   5.279 -0.2776  0.2355 -0.2774
41854SOL    HW132677   2.922   4.244   5.266  0.2202  0.0496 -0.6423
41854SOL    HW232678   2.910   4.137   5.372 -1.5195  0.8751  0.0360
41855SOL     OW32679   2.009   6.530  12.092 -0.2004  0.1698  0.4406
41855SOL    HW132680   1.949   6.603  12.104  0.5215  1.1136 -1.3503
41855SOL    HW232681   1.957   6.463  12.048 -0.5767  0.0255  1.0992
41856SOL     OW32682   8.775   8.408   4.748  0.0924  0.0536 -0.1165
41856SOL    HW132683   8.835   8.447   4.685  0.8363 -1.4637 -0.4091
41856SOL    HW232684   8.689   8.418   4.709  0.0711  2.4962  0.4281
41857SOL     OW32685   9.118   6.325  11.292 -0.1050  0.0978  0.1729
41857SOL    HW132686   9.078   6.375  11.363  0.9547  1.0323  0.1316
41857SOL    HW232687   9.123   6.386  11.219  1.6265  0.0967  0.2626
41858SOL     OW32688  10.899   0.147  11.792 -0.2150 -0.1089  0.1153
41858SOL    HW132689  10.944   0.134  11.708  0.6799  1.2135  0.3677
41858SOL    HW232690  10.810   0.172  11.767 -0.4811 -1.4504 -0.3996
41859SOL     OW32691  10.557  11.678   6.183  0.1444  0.1254  0.2581
41859SOL    HW132692  10.536  11.669   6.276 -1.2649  1.5775  0.1332
41859SOL    HW232693  10.571  11.772   6.171 -2.6914  0.4635 -1.4938
41860SOL     OW32694   7.568   6.447  11.919 -0.0435  0.0968 -0.2919
41860SOL    HW132695   7.627   6.377  11.891 -0.7884 -0.8477  0.4335
41860SOL    HW232696   7.485   6.428  11.873 -0.9342 -0.8216  1.6012
41861SOL     OW32697   3.630   9.227   1.893 -0.0415  0.1756  0.2229
41861SOL    HW132698   3.574   9.300   1.918 -0.5097  0.0158 -0.3380
41861SOL    HW232699   3.683   9.262   1.821 -0.5587 -0.1586 -0.3243
41862SOL     OW32700   0.081   7.781   4.504  0.1273  0.3079  0.1641
41862SOL    HW132701   0.117   7.703   4.463  1.3245  0.9565 -0.0743
41862SOL    HW232702  -0.013   7.764   4.512  0.2356 -0.7671 -0.7210
41863SOL     OW32703   1.026   5.233   4.637  0.1900  0.2012  0.7660
41863SOL    HW132704   0.983   5.318   4.628  2.6709  1.4384 -0.3661
41863SOL    HW232705   1.057   5.211   4.549  3.1133  0.1733  1.6785
41864SOL     OW32706   6.828   1.578   5.808 -0.6500 -0.2087  0.1477
41864SOL    HW132707   6.769   1.528   5.865 -0.7322  0.1251  0.3570
41864SOL    HW232708   6.875   1.511   5.757 -0.0916 -0.5464  1.0789
41865SOL     OW32709   5.822   0.320   4.114 -0.2044 -0.7342  0.0209
41865SOL    HW132710   5.774   0.262   4.055 -0.8273 -0.8075  0.5827
41865SOL    HW232711   5.799   0.408   4.085 -0.7741 -0.7669  0.3401
41866SOL     OW32712  11.129   6.549   4.307  0.4110  0.1929 -0.5249
41866SOL    HW132713  11.091   6.570   4.222  0.8669  1.7340 -0.3675
41866SOL    HW232714  11.218   6.521   4.287  1.2923  2.7430 -0.4240
41867SOL     OW32715  10.766   4.644   0.852 -0.4358 -0.0218 -0.3306
41867SOL    HW132716  10.680   4.622   0.885 -0.6163  0.0467 -0.7425
41867SOL    HW232717  10.824   4.576   0.887 -1.0099 -1.3179 -1.7577
41868SOL     OW32718   0.381   9.995   4.054 -0.3187  0.2653 -0.2293
41868SOL    HW132719   0.341  10.028   3.973  0.3455  1.9740  0.0963
41868SOL    HW232720   0.309   9.950   4.099 -1.5657  2.0585 -0.3057
41869SOL     OW32721  10.577  10.366  12.073  0.7509 -0.1416  0.2754
41869SOL    HW132722  10.588  10.359  12.168 -0.0193 -1.4920  0.2967
41869SOL    HW232723  10.501  10.422  12.061 -0.9144 -2.2113  0.5934
41870SOL     OW32724   1.119   5.570  12.943 -0.1255  0.2866  0.1038
41870SOL    HW132725   1.093   5.662  12.940  1.7710  0.8356 -1.8763
41870SOL    HW232726   1.138   5.553  13.035  0.2700  2.1128  0.3855
41871SOL     OW32727   5.631  12.306   9.328  0.3988  0.4206 -0.0378
41871SOL    HW132728   5.705  12.256   9.362 -1.5304 -1.3681  1.8027
41871SOL    HW232729   5.595  12.252   9.258  0.2072  0.7863 -0.2250
41872SOL     OW32730   9.014   0.264   9.905 -0.6881  0.1532  0.2429
41872SOL    HW132731   9.058   0.287   9.823  2.5386  0.5964  1.9017
41872SOL    HW232732   8.942   0.208   9.879  0.3683  0.0310 -2.8686
41873SOL     OW32733  10.512  11.575  11.865  0.3948 -0.2190 -0.8024
41873SOL    HW132734  10.596  11.613  11.891  0.8131 -1.3737 -0.3556
41873SOL    HW232735  10.523  11.481  11.882 -1.3356 -0.2753  0.2337
41874SOL     OW32736   3.575   3.381   0.252 -0.2515 -0.1180 -0.3227
41874SOL    HW132737   3.485   3.358   0.228 -0.0716 -1.6195  0.3282
41874SOL    HW232738   3.598   3.454   0.194 -1.0955 -1.2112 -2.1041
41875SOL     OW32739   8.100   1.740  11.395 -0.0919  0.0349 -0.2846
41875SOL    HW132740   8.020   1.704  11.433  0.0153  0.4771  0.3651
41875SOL    HW232741   8.137   1.795  11.464  1.1524 -0.7270 -0.3084
41876SOL     OW32742   7.512   2.288  11.025  0.0123 -0.3661 -0.1159
41876SOL    HW132743   7.597   2.328  11.003  0.9736 -0.4673  2.8863
41876SOL    HW232744   7.535   2.200  11.053 -1.4865 -1.3431 -1.7964
41877SOL     OW32745   1.180   2.549   6.064  0.2129  0.7221  0.0316
41877SOL    HW132746   1.228   2.467   6.072 -0.4504  0.3802  0.6598
41877SOL    HW232747   1.136   2.560   6.149 -0.6679  1.1031 -0.4587
41878SOL     OW32748   9.160  12.050  11.801 -0.5661 -0.6796  0.5894
41878SOL    HW132749   9.116  11.965  11.789 -0.5482 -0.8006  1.3358
41878SOL    HW232750   9.213  12.038  11.879 -1.2616  0.3072  1.2331
41879SOL     OW32751   7.034   1.856   4.494  0.7595  0.1077 -0.0806
41879SOL    HW132752   7.008   1.935   4.540  2.7204  0.4178  0.6134
41879SOL    HW232753   7.059   1.886   4.407  3.0202  0.5948  0.6628
41880SOL     OW32754   1.310   7.191   7.095  0.6157 -0.0606 -0.1917
41880SOL    HW132755   1.342   7.132   7.163  1.2542 -1.0095 -1.2911
41880SOL    HW232756   1.315   7.278   7.136  0.6069 -0.6366  1.1022
41881SOL     OW32757   8.897   3.660   8.571 -0.5081 -0.0994  0.4068
41881SOL    HW132758   8.833   3.641   8.502 -1.3479  0.9886  0.8670
41881SOL    HW232759   8.885   3.589   8.634 -1.6592  0.3834  0.7555
41882SOL     OW32760   2.500   3.222   1.708 -0.3846 -0.0747  0.1717
41882SOL    HW132761   2.492   3.257   1.796 -1.2667  1.9134 -0.6238
41882SOL    HW232762   2.592   3.238   1.684 -0.5324  0.8243  0.1804
41883SOL     OW32763   4.034   7.415   5.271  0.1723  0.1576  0.4095
41883SOL    HW132764   4.012   7.327   5.301 -0.7702  0.5949  1.0509
41883SOL    HW232765   3.981   7.473   5.325 -0.1552  1.0622 -0.8336
41884SOL     OW32766   4.764   6.547   9.869 -0.2179 -0.6717 -0.2801
41884SOL    HW132767   4.787   6.632   9.907  2.3721 -1.5907  0.4115
41884SOL    HW232768   4.729   6.497   9.942  0.6255 -0.9892 -0.0783
41885SOL     OW32769   6.712   0.510   8.775  0.2491  0.2542 -0.0722
41885SOL    HW132770   6.681   0.600   8.787  0.4796  0.4411 -0.8438
41885SOL    HW232771   6.633   0.456   8.783 -0.3005  0.7284 -1.9884
41886SOL     OW32772   6.919   7.998   3.236  0.1938  0.1395  0.4626
41886SOL    HW132773   6.880   8.059   3.173  0.3868  0.1988  0.4011
41886SOL    HW232774   6.954   7.927   3.182 -1.2772 -0.7431  0.6065
41887SOL     OW32775   4.516   4.971  10.306 -0.4979 -0.5295 -0.2301
41887SOL    HW132776   4.513   4.891  10.254  0.1485 -0.7446  0.0564
41887SOL    HW232777   4.475   4.948  10.389 -0.1744 -0.6076 -0.0916
41888SOL     OW32778   8.807   6.455   6.936  0.2897  0.4863 -0.3231
41888SOL    HW132779   8.815   6.530   6.877 -0.4700  0.8419  0.0054
41888SOL    HW232780   8.763   6.388   6.883  1.3924  0.0854 -0.7640
41889SOL     OW32781  11.395   6.596  12.244 -0.5109  0.0076 -0.8799
41889SOL    HW132782  11.345   6.570  12.166 -0.7547  0.4125 -0.8652
41889SOL    HW232783  11.441   6.517  12.271 -1.2658 -0.4258 -0.8106
41890SOL     OW32784  12.727  12.229  12.381 -0.9476  0.5237 -0.2148
41890SOL    HW132785  12.730  12.324  12.365 -1.8946  0.5082 -0.5776
41890SOL    HW232786  12.717  12.222  12.476  1.2554  0.7107  0.0696
41891SOL     OW32787   3.551   1.433   1.432 -0.9492  0.3629  0.7850
41891SOL    HW132788   3.589   1.354   1.471 -0.1733  1.0109  1.3836
41891SOL    HW232789   3.578   1.430   1.341 -3.3316 -1.5168  0.0340
41892SOL     OW32790   8.769  11.184   7.967  0.0171  0.2447  0.0331
41892SOL    HW132791   8.859  11.157   7.950 -0.7231 -2.3891  0.0108
41892SOL    HW232792   8.774  11.280   7.970  2.4415  0.2786 -1.9305
41893SOL     OW32793   1.411   9.959   4.722  0.0938 -0.0443  0.2891
41893SOL    HW132794   1.415   9.896   4.794  0.6331  0.9292  1.1544
41893SOL    HW232795   1.324  10.000   4.731  0.4319  0.5800  0.8623
41894SOL     OW32796   2.408  10.302   4.701  0.1522 -0.1831  0.4962
41894SOL    HW132797   2.350  10.252   4.758  0.9210 -1.0567  0.5570
41894SOL    HW232798   2.493  10.259   4.711  0.4293 -0.0015 -0.8784
41895SOL     OW32799   3.494   2.983   2.168  0.1285 -0.7742  1.0760
41895SOL    HW132800   3.486   3.073   2.198  1.1219  0.0751 -1.0221
41895SOL    HW232801   3.588   2.971   2.155 -0.1453 -1.4214 -0.5577
41896SOL     OW32802   1.882   3.438   1.518  0.3040 -0.0278  0.3011
41896SOL    HW132803   1.976   3.449   1.536  0.9321 -0.3584 -2.3261
41896SOL    HW232804   1.851   3.526   1.498  0.3582 -0.0636  0.0439
41897SOL     OW32805  12.152  10.284   5.716 -0.0757 -0.2470  0.0565
41897SOL    HW132806  12.157  10.360   5.774  1.5989  0.2842 -0.7239
41897SOL    HW232807  12.060  10.281   5.688 -0.5210  0.5127  1.3520
41898SOL     OW32808  12.238   9.109   2.263  0.5148  0.5296 -0.3426
41898SOL    HW132809  12.286   9.131   2.343  1.1975  2.1509 -1.1509
41898SOL    HW232810  12.272   9.023   2.238  0.2099 -0.0523  1.1382
41899SOL     OW32811   7.753   8.427   8.321  0.2654 -0.0494 -0.0882
41899SOL    HW132812   7.776   8.514   8.353 -0.5846  0.1331  0.0672
41899SOL    HW232813   7.776   8.428   8.228 -0.3624  0.5777 -0.2440
41900SOL     OW32814   7.360   5.644   0.884 -0.0145  0.1688 -0.0908
41900SOL    HW132815   7.446   5.684   0.877 -0.2374  0.5309 -0.8146
41900SOL    HW232816   7.301   5.705   0.840 -0.8468  0.5304  1.4219
41901SOL     OW32817   4.848  10.117   0.935 -0.1810  0.5874  0.1539
41901SOL    HW132818   4.893  10.131   1.019 -2.3231  0.5365  1.3813
41901SOL    HW232819   4.782  10.051   0.954 -0.3713  0.1824 -1.7343
41902SOL     OW32820   4.099   6.090   4.899  0.3235  0.1316 -0.5540
41902SOL    HW132821   4.076   6.005   4.939  0.7843  0.7579  1.1211
41902SOL    HW232822   4.022   6.114   4.849 -0.0041 -1.0466 -0.6529
41903SOL     OW32823  10.532  12.824   5.064  0.0976  0.1321 -0.1074
41903SOL    HW132824  10.467  12.882   5.103  0.8886  0.4710  0.7332
41903SOL    HW232825  10.609  12.880   5.048  0.3679 -0.3694 -0.6172
41904SOL     OW32826   6.676   1.083  12.954 -0.4696  0.5510 -0.0509
41904SOL    HW132827   6.654   1.107  13.044  1.4312  2.8145 -0.0911
41904SOL    HW232828   6.649   1.159  12.902 -1.3841 -0.6549 -1.3985
41905SOL     OW32829   6.387   9.092   1.331 -0.5565 -0.5037 -0.6488
41905SOL    HW132830   6.335   9.033   1.386  0.4053 -0.8831 -0.1233
41905SOL    HW232831   6.429   9.151   1.393  1.2741 -1.5124 -0.8557
41906SOL     OW32832   0.009  12.172   5.196 -0.1663  0.2477  0.0102
41906SOL    HW132833   0.038  12.242   5.254 -1.6052  2.1580 -1.4359
41906SOL    HW232834  -0.069  12.136   5.238  0.8314 -0.8614  0.9801
41907SOL     OW32835  11.932   5.819   8.984 -0.5432 -0.3296  0.0029
41907SOL    HW132836  12.018   5.849   8.955 -0.2365  1.0587  2.1221
41907SOL    HW232837  11.872   5.847   8.915  0.6461 -1.2091 -1.4506
41908SOL     OW32838   0.833   7.519   0.256  0.1459 -0.5807 -0.6445
41908SOL    HW132839   0.918   7.542   0.294 -0.5956 -0.1022  0.8051
41908SOL    HW232840   0.785   7.602   0.254 -1.2327 -1.2518  1.1419
41909SOL     OW32841   0.985   9.738   1.572 -0.0584  0.4486  0.1332
41909SOL    HW132842   0.915   9.767   1.631  2.2468 -2.1997  4.6983
41909SOL    HW232843   0.953   9.656   1.535 -0.5827  0.9197 -0.4913
41910SOL     OW32844   2.022   2.136   1.943 -0.3407 -0.6543  0.3447
41910SOL    HW132845   2.016   2.222   1.985 -0.7449 -0.1256 -0.7480
41910SOL    HW232846   2.056   2.155   1.855 -0.9670 -1.5384 -0.0960
41911SOL     OW32847  10.924   8.152  11.605 -0.0868  0.0197 -0.3756
41911SOL    HW132848  10.876   8.176  11.684  1.1047 -0.3304  0.4808
41911SOL    HW232849  10.888   8.067  11.580 -1.8164  0.9868 -1.3603
41912SOL     OW32850   9.129   2.414   2.840  0.0865  0.0111  0.4708
41912SOL    HW132851   9.208   2.446   2.883 -0.2588 -1.3012  2.1917
41912SOL    HW232852   9.064   2.407   2.909 -0.9459 -0.8256 -0.5273
41913SOL     OW32853   9.461   4.110   6.333  0.2853 -0.1816 -0.5491
41913SOL    HW132854   9.432   4.086   6.421  1.3921  1.3943  0.2807
41913SOL    HW232855   9.448   4.205   6.328 -1.4743 -0.4362 -2.7746
41914SOL     OW32856   0.326  12.660   1.786  0.0889  0.3742  0.5739
41914SOL    HW132857   0.276  12.595   1.835  1.9888 -0.7230  1.2007
41914SOL    HW232858   0.375  12.707   1.854  0.6652  0.7089 -0.0639
41915SOL     OW32859   3.943   4.434   4.453 -0.2986 -0.1157 -0.1872
41915SOL    HW132860   3.973   4.463   4.539  0.0852 -3.6486  1.0236
41915SOL    HW232861   3.848   4.433   4.459 -0.2995  0.3909 -0.0942
41916SOL     OW32862   5.238   1.599   2.596 -0.9852 -0.5349  0.2985
41916SOL    HW132863   5.193   1.540   2.657  1.4087 -2.2183  0.5850
41916SOL    HW232864   5.285   1.661   2.652  0.6563 -1.6544  0.2503
41917SOL     OW32865   6.573   9.966   1.024 -0.4119 -0.1276  0.3282
41917SOL    HW132866   6.568   9.882   0.980 -1.6634  1.0731 -1.9861
41917SOL    HW232867   6.651  10.008   0.988  0.0934 -0.1769  1.3162
41918SOL     OW32868   8.699  10.610   8.129  0.2442 -0.7739  0.5911
41918SOL    HW132869   8.766  10.564   8.180  1.0315 -0.4964 -0.1698
41918SOL    HW232870   8.708  10.702   8.156  1.1388 -0.5125 -0.5283
41919SOL     OW32871   2.690  11.519   9.911  0.5175  0.4759 -0.2937
41919SOL    HW132872   2.603  11.497   9.944 -0.0767  2.0302 -0.7295
41919SOL    HW232873   2.710  11.449   9.847 -0.3682  0.0638 -0.1356
41920SOL     OW32874   4.827  12.248   1.798 -0.0678 -0.0257  0.6141
41920SOL    HW132875   4.915  12.231   1.831  0.3767  1.2777  0.1875
41920SOL    HW232876   4.776  12.172   1.824  1.9333 -2.5126 -2.0138
41921SOL     OW32877   7.651   0.456   8.289  0.2212 -0.1835 -0.4833
41921SOL    HW132878   7.657   0.542   8.330 -3.1133  0.4767 -1.0623
41921SOL    HW232879   7.628   0.397   8.360  1.3097 -0.3852 -0.2897
41922SOL     OW32880   9.840  10.943   5.489  0.5975 -0.1137  0.0240
41922SOL    HW132881   9.812  11.035   5.492  1.0982  0.1210 -1.7745
41922SOL    HW232882   9.801  10.905   5.568 -0.5668  1.3685  0.2272
41923SOL     OW32883   2.184   2.650   4.118  0.1278 -0.1369  0.3490
41923SOL    HW132884   2.264   2.634   4.068 -1.1455  0.2871 -1.9624
41923SOL    HW232885   2.113   2.627   4.058 -1.5133  1.0998  1.7166
41924SOL     OW32886   4.994   6.858   5.767  0.8847 -0.2668  0.2585
41924SOL    HW132887   4.929   6.852   5.697  1.3029 -1.1259 -0.0732
41924SOL    HW232888   4.943   6.882   5.844  0.6599  2.5930 -0.6603
41925SOL     OW32889  11.763  11.846   5.859  0.3710  0.1794  0.3630
41925SOL    HW132890  11.679  11.814   5.893  0.3822 -1.5402 -1.0615
41925SOL    HW232891  11.825  11.831   5.929 -0.4024  0.9806  1.2428
41926SOL     OW32892   0.136   4.969  12.538 -0.7581  0.0788  0.2153
41926SOL    HW132893   0.102   5.018  12.463 -0.4039  1.5493  0.9686
41926SOL    HW232894   0.228   4.994  12.543 -0.4604 -0.9857  0.4119
41927SOL     OW32895   2.133  10.165  12.098 -0.2200 -0.0183  0.2635
41927SOL    HW132896   2.118  10.074  12.126  0.0697  0.1136  0.8813
41927SOL    HW232897   2.105  10.217  12.173  0.0654  0.3817  0.0928
41928SOL     OW32898   7.499   4.962   7.261  0.0781  0.6431 -0.3051
41928SOL    HW132899   7.492   4.867   7.251  0.3629  0.5664  0.1801
41928SOL    HW232900   7.559   4.974   7.335  1.7230  1.2250 -1.6647
41929SOL     OW32901   4.840   8.077   8.558  0.0288  0.6490 -0.1395
41929SOL    HW132902   4.846   8.000   8.502 -0.4632  0.7530 -0.3404
41929SOL    HW232903   4.917   8.129   8.537 -0.4733  0.9949 -1.1779
41930SOL     OW32904   1.296   3.062  11.336 -0.4372  0.0667 -0.2273
41930SOL    HW132905   1.271   3.119  11.408 -0.4928 -0.6632  0.3438
41930SOL    HW232906   1.369   3.106  11.294 -0.6631  0.6907  0.0243
41931SOL     OW32907   4.875   3.395   0.137 -0.0210  0.3385  0.0867
41931SOL    HW132908   4.888   3.411   0.231  1.0905  1.5825 -0.2324
41931SOL    HW232909   4.886   3.301   0.127 -0.1265  0.1907  1.1989
41932SOL     OW32910  11.818   7.461   2.876  0.0736 -0.2204 -0.4327
41932SOL    HW132911  11.758   7.524   2.915 -1.0616 -0.9187 -1.0020
41932SOL    HW232912  11.770   7.377   2.879  1.5140 -1.0604  0.2615
41933SOL     OW32913  11.895   1.457   3.212 -0.4305  0.0260 -0.0992
41933SOL    HW132914  11.963   1.475   3.277 -0.8599  0.6133  0.2017
41933SOL    HW232915  11.940   1.412   3.141 -0.4388 -3.4208  1.8682
41934SOL     OW32916   8.867  12.508  12.457 -0.3046 -0.6017  0.1077
41934SOL    HW132917   8.847  12.546  12.542  1.6528  0.4492  0.1759
41934SOL    HW232918   8.953  12.545  12.434  0.3830 -2.7945 -1.1765
41935SOL     OW32919   7.540   7.821   1.401  0.0120 -0.6395  0.0397
41935SOL    HW132920   7.528   7.745   1.344  2.0130 -0.5084 -0.6521
41935SOL    HW232921   7.496   7.798   1.483  0.2531 -2.3829 -0.2894
41936SOL     OW32922   6.671  12.650   5.920 -0.1044 -0.1193 -0.3349
41936SOL    HW132923   6.701  12.651   5.830 -0.4733  2.3504 -0.4849
41936SOL    HW232924   6.576  12.635   5.914 -0.1465  0.1590 -0.3656
41937SOL     OW32925   4.701  10.566   3.318 -0.5844 -0.0294  0.5716
41937SOL    HW132926   4.730  10.551   3.228  1.3496  2.3276  0.6969
41937SOL    HW232927   4.779  10.556   3.371 -0.5706  3.1377  1.3679
41938SOL     OW32928   1.351  10.921   1.012 -0.4016 -0.0888  0.4503
41938SOL    HW132929   1.425  10.964   1.055 -1.5277  1.1342  1.1984
41938SOL    HW232930   1.283  10.915   1.079 -1.1210 -0.9070 -0.3168
41939SOL     OW32931  10.235  10.515   5.351 -0.1909  0.2959  0.3327
41939SOL    HW132932  10.246  10.436   5.297 -2.1216  0.7649 -0.8489
41939SOL    HW232933  10.296  10.578   5.313 -0.5330  0.1750 -0.4433
41940SOL     OW32934   1.729   3.337   1.739  0.2778 -0.2064  0.1779
41940SOL    HW132935   1.770   3.252   1.754  0.5365  0.0668  1.0734
41940SOL    HW232936   1.802   3.394   1.715  0.3787  0.1811  1.3585
41941SOL     OW32937   7.607   8.249  10.429  0.1841  0.5698 -0.1004
41941SOL    HW132938   7.627   8.174  10.484  0.6455  2.4587  2.5111
41941SOL    HW232939   7.663   8.238  10.352  1.3302 -0.9965  0.8939
41942SOL     OW32940   6.087   8.580  11.974  0.0976  0.8333 -0.3487
41942SOL    HW132941   6.097   8.675  11.986  0.4992  0.6162  1.2014
41942SOL    HW232942   6.176   8.545  11.982 -0.1299  0.2653 -0.2396
41943SOL     OW32943   2.524   0.955   6.535  0.0233  0.0231 -0.1275
41943SOL    HW132944   2.504   1.042   6.501 -0.2424  0.5824  1.3809
41943SOL    HW232945   2.440   0.909   6.534 -0.0627  0.1690  0.0893
41944SOL     OW32946   3.753   1.239  12.497 -0.3740  0.5079  0.4462
41944SOL    HW132947   3.804   1.160  12.482 -1.3919 -0.2346  0.8222
41944SOL    HW232948   3.786   1.274  12.580  1.1399  1.3621 -0.4504
41945SOL     OW32949  10.176  12.196  12.768  0.4012  0.3604  0.0294
41945SOL    HW132950  10.092  12.219  12.729 -0.5404 -3.1783 -0.3729
41945SOL    HW232951  10.236  12.264  12.739 -1.5020  0.9400 -2.9185
41946SOL     OW32952   9.446   2.131   3.856 -0.1721  0.6123 -0.3318
41946SOL    HW132953   9.388   2.112   3.930  0.4270  0.7809  0.1848
41946SOL    HW232954   9.405   2.086   3.782 -0.3196 -0.2699  0.2776
41947SOL     OW32955  11.430   0.499  10.334 -0.0264  0.4832  0.3928
41947SOL    HW132956  11.484   0.576  10.349  1.6790 -0.5980  0.0153
41947SOL    HW232957  11.350   0.516  10.385 -0.4843  3.2506 -1.0898
41948SOL     OW32958  11.479   3.266   3.159  0.7043 -0.4129 -0.0631
41948SOL    HW132959  11.566   3.236   3.187  0.5574  0.3781  1.3423
41948SOL    HW232960  11.474   3.357   3.188 -1.6372 -1.2265  2.6522
41949SOL     OW32961  11.147  10.239   9.569 -0.3556  0.1993  0.0970
41949SOL    HW132962  11.121  10.162   9.619 -0.8974  0.7839  0.7220
41949SOL    HW232963  11.142  10.211   9.477 -1.3354 -0.2660  0.2834
41950SOL     OW32964   6.800  10.320   1.987 -0.2182  0.0323 -0.6704
41950SOL    HW132965   6.855  10.268   2.044  0.6276 -0.4502 -1.8742
41950SOL    HW232966   6.716  10.326   2.032  0.2589 -0.7648  0.3551
41951SOL     OW32967   7.125  12.252   3.690 -0.5182 -0.1142  0.0479
41951SOL    HW132968   7.141  12.298   3.773  0.9176  1.4012 -0.9927
41951SOL    HW232969   7.166  12.166   3.702  1.1712  0.6897  0.3718
41952SOL     OW32970   8.016  10.802  12.911 -0.2485  0.2337  0.2383
41952SOL    HW132971   8.034  10.821  13.003 -2.3701 -0.0597  0.7561
41952SOL    HW232972   8.037  10.709  12.901  0.3949  0.3658  0.2939
41953SOL     OW32973   7.825   7.391   7.196  0.5346 -0.2979 -0.0130
41953SOL    HW132974   7.882   7.315   7.210 -0.2684 -1.2517 -1.5637
41953SOL    HW232975   7.863   7.436   7.120 -0.6815 -0.9119 -1.0290
41954SOL     OW32976   5.627   8.741   4.090  0.0755 -0.2389  0.1457
41954SOL    HW132977   5.661   8.703   4.009 -1.9481 -1.2061 -0.3087
41954SOL    HW232978   5.704   8.749   4.147  1.3710 -0.4646 -1.4887
41955SOL     OW32979   0.427   7.544   3.780 -0.0351 -0.1914 -0.1649
41955SOL    HW132980   0.395   7.588   3.859  0.2877  0.9594 -0.6484
41955SOL    HW232981   0.517   7.576   3.770  1.0612 -2.7400  0.7324
41956SOL     OW32982   2.143  12.698   0.907  0.7735 -0.4578 -0.1891
41956SOL    HW132983   2.111  12.759   0.973 -1.4813  0.4412 -1.9742
41956SOL    HW232984   2.171  12.621   0.956 -2.1991 -0.4292  1.7536
41957SOL     OW32985   8.788   7.505  12.086  0.2312  0.1667  0.1298
41957SOL    HW132986   8.791   7.531  11.994  0.8459  0.6624  0.2792
41957SOL    HW232987   8.821   7.414  12.086  0.9211  0.4083 -0.0638
41958SOL     OW32988   4.521   1.688  11.440 -0.3147 -0.4273  0.5246
41958SOL    HW132989   4.612   1.683  11.411  0.2701 -3.8246  2.4764
41958SOL    HW232990   4.478   1.740  11.372  2.1764 -2.4866 -2.9658
41959SOL     OW32991   4.409  11.740   2.763 -0.5818  0.1857 -1.0025
41959SOL    HW132992   4.459  11.774   2.838 -0.2026 -1.0531 -0.6747
41959SOL    HW232993   4.379  11.819   2.717 -0.1724  0.9648  0.0185
41960SOL     OW32994  10.679   5.243  11.974 -0.0897 -0.4692 -0.6172
41960SOL    HW132995  10.750   5.307  11.975  0.1781 -0.7689 -0.6963
41960SOL    HW232996  10.607   5.287  12.021  0.1597 -0.1896 -0.4953
41961SOL     OW32997   3.019  12.000   4.855  0.1337 -0.2649  0.1410
41961SOL    HW132998   3.043  12.062   4.786  2.1609 -0.7951  0.3091
41961SOL    HW232999   3.066  11.920   4.832 -1.8744 -1.5740  0.3107
41962SOL     OW33000   0.422   1.270   4.589 -0.2647  0.3469  0.5045
41962SOL    HW133001   0.379   1.320   4.519 -0.1604  0.3863  0.4675
41962SOL    HW233002   0.488   1.330   4.623 -0.8210  0.6051  1.1525
41963SOL     OW33003   4.480  11.536  12.662  0.2690  0.0134  0.4363
41963SOL    HW133004   4.473  11.508  12.754 -0.6788 -1.9804 -0.1752
41963SOL    HW233005   4.574  11.533  12.644  0.4220 -0.0870  1.1953
41964SOL     OW33006   5.272  11.240   2.751  0.1140  0.0281  0.3715
41964SOL    HW133007   5.328  11.313   2.777 -2.1157  1.5441  1.2616
41964SOL    HW233008   5.270  11.183   2.828 -0.4225  0.5726  0.7790
41965SOL     OW33009   6.869   0.226   7.166  0.9110  0.0766 -0.2294
41965SOL    HW133010   6.909   0.308   7.136  0.0765  0.5763 -0.0222
41965SOL    HW233011   6.892   0.221   7.259 -0.0663  0.7357  0.0710
41966SOL     OW33012   1.610   3.864   6.048 -0.0657 -0.1084  0.3111
41966SOL    HW133013   1.687   3.905   6.087  0.8981 -2.1510  0.6693
41966SOL    HW233014   1.624   3.873   5.954  1.3579 -1.6233  0.3205
41967SOL     OW33015   3.763   8.610   6.426  0.3683  0.5038 -0.3749
41967SOL    HW133016   3.731   8.566   6.347  1.6639  0.4737 -0.9110
41967SOL    HW233017   3.809   8.541   6.474 -0.6575  0.4500  0.5858
41968SOL     OW33018   6.600   7.823   4.976 -0.1690 -0.0697  0.0434
41968SOL    HW133019   6.626   7.742   4.931  0.6176  0.0848  0.1979
41968SOL    HW233020   6.561   7.794   5.058 -0.9428 -0.3286 -0.4126
41969SOL     OW33021   8.574   7.595   1.517 -0.0145  0.6387  0.0397
41969SOL    HW133022   8.584   7.633   1.605 -1.7131  1.8355 -0.2206
41969SOL    HW233023   8.653   7.622   1.470  0.4647  0.8023  0.9193
41970SOL     OW33024   5.262  12.789  11.006 -0.4664  0.2161 -0.2988
41970SOL    HW133025   5.175  12.822  10.984 -1.7178 -2.5696  0.0736
41970SOL    HW233026   5.259  12.775  11.101 -1.1040 -3.4996 -0.7265
41971SOL     OW33027   0.364   6.621   1.680 -0.3772  0.0467  0.2222
41971SOL    HW133028   0.283   6.625   1.628 -0.0530  0.4436 -0.2581
41971SOL    HW233029   0.334   6.603   1.769 -1.0644  0.9509  0.1927
41972SOL     OW33030   4.579  11.693   5.765  0.3359  0.4898 -0.4287
41972SOL    HW133031   4.665  11.716   5.729  0.2162  0.4248 -0.7660
41972SOL    HW233032   4.526  11.675   5.688  0.0493  0.4230 -0.2158
41973SOL     OW33033   3.619  12.858   1.802 -0.0586 -0.3247  0.3828
41973SOL    HW133034   3.606  12.790   1.869 -0.4810 -0.2226  0.4088
41973SOL    HW233035   3.713  12.857   1.785 -0.2387 -2.0344 -0.7995
41974SOL     OW33036   7.790  12.527   6.793 -0.0493  0.1236  0.3040
41974SOL    HW133037   7.773  12.475   6.715 -2.2060  0.3058  0.5754
41974SOL    HW233038   7.805  12.615   6.761  1.0586 -0.1666 -0.0029
41975SOL     OW33039   9.566   3.096   6.227  0.2798  0.1512  0.9810
41975SOL    HW133040   9.660   3.083   6.240 -0.0715  0.2513  4.3794
41975SOL    HW233041   9.554   3.190   6.232 -0.1026  0.0774  1.5171
41976SOL     OW33042   7.810   9.395  10.477 -0.0939  0.0376 -0.3899
41976SOL    HW133043   7.847   9.432  10.557 -0.1013  0.2904 -0.5052
41976SOL    HW233044   7.849   9.445  10.406  0.9862 -1.0846 -0.6239
41977SOL     OW33045   1.045  12.112   9.166 -0.3506  0.3538  0.4130
41977SOL    HW133046   1.025  12.020   9.183 -1.7487  0.6344  0.4097
41977SOL    HW233047   1.094  12.140   9.243 -1.1889 -0.0173  1.0914
41978SOL     OW33048   4.196  12.547   7.498 -0.1008 -0.0364 -0.4425
41978SOL    HW133049   4.115  12.592   7.476 -0.1233  0.3133  0.3184
41978SOL    HW233050   4.178  12.504   7.581  0.0958 -1.0189 -0.8939
41979SOL     OW33051  10.625   9.841  12.444 -0.3908  0.1442  0.3685
41979SOL    HW133052  10.545   9.894  12.437  0.2035  0.8640 -1.4476
41979SOL    HW233053  10.608   9.764  12.390  0.8311  1.2611 -1.7241
41980SOL     OW33054   2.011   6.279  10.257  0.4682  0.5159 -0.1515
41980SOL    HW133055   2.062   6.297  10.336 -1.2949 -1.9194  1.6811
41980SOL    HW233056   1.921   6.295  10.283 -0.0054  3.0193 -2.8040
41981SOL     OW33057   6.387   5.025   2.514 -0.0517 -0.0555  0.1834
41981SOL    HW133058   6.322   4.957   2.494 -0.6211  0.1566  1.2053
41981SOL    HW233059   6.366   5.051   2.604 -0.4088  2.0859 -0.4729
41982SOL     OW33060  11.386  11.584   7.668  0.1045 -0.1563  0.5116
41982SOL    HW133061  11.377  11.653   7.734 -0.7506 -0.4920  0.7614
41982SOL    HW233062  11.330  11.514   7.699 -0.8175 -0.0864 -0.8925
41983SOL     OW33063   9.662   0.367   4.042 -0.1844 -0.0913  0.6864
41983SOL    HW133064   9.573   0.397   4.059 -0.1131  0.4625  0.0882
41983SOL    HW233065   9.717   0.444   4.053  0.4808 -0.7709  2.8369
41984SOL     OW33066   3.817  12.029   2.040 -0.2351 -0.5887 -0.1203
41984SOL    HW133067   3.738  11.977   2.053  0.1770 -0.6065  3.4047
41984SOL    HW233068   3.888  11.976   2.076  0.6338  1.1383  0.9048
41985SOL     OW33069   0.568  10.765   4.006 -0.0109  0.0639  0.2684
41985SOL    HW133070   0.522  10.725   3.931 -1.3374 -0.5574  1.3694
41985SOL    HW233071   0.601  10.690   4.055 -0.7250  0.3769  1.2492
41986SOL     OW33072   2.678   7.336   1.378 -0.3497  0.6369  0.2818
41986SOL    HW133073   2.744   7.402   1.401 -0.4160  0.3791  1.2537
41986SOL    HW233074   2.726   7.254   1.378 -0.5367  0.5289  0.3080
41987SOL     OW33075   6.847   6.488   0.725  0.2127  0.7147 -0.6020
41987SOL    HW133076   6.859   6.578   0.755  0.1526 -0.0483  1.9820
41987SOL    HW233077   6.753   6.473   0.733  0.3027  0.2406 -0.3796
41988SOL     OW33078   5.596   0.444   5.411 -0.4929 -0.0135  0.4884
41988SOL    HW133079   5.556   0.436   5.324 -0.8714 -0.2144  0.6794
41988SOL    HW233080   5.535   0.499   5.460 -2.3506 -3.0180  1.8449
41989SOL     OW33081   2.253   8.605   0.329  0.0758  0.0364 -0.0783
41989SOL    HW133082   2.330   8.655   0.304 -0.4450  0.2815 -1.2738
41989SOL    HW233083   2.210   8.659   0.396  0.8047  0.0069  0.4200
41990SOL     OW33084   6.496  11.518  10.571 -0.0479  0.1143 -0.4823
41990SOL    HW133085   6.441  11.594  10.590  1.5397  0.7504  2.1123
41990SOL    HW233086   6.514  11.480  10.657  1.2690 -1.7261 -1.5090
41991SOL     OW33087  11.022  10.533   2.968  0.0992 -0.1047 -0.5625
41991SOL    HW133088  11.099  10.578   3.002  1.4424 -2.6133 -0.1340
41991SOL    HW233089  11.055  10.471   2.903 -1.8509  0.4835 -2.2640
41992SOL     OW33090  11.956   5.175   8.313 -0.0178  0.2101 -0.0678
41992SOL    HW133091  11.981   5.258   8.354  2.6404  0.2350 -1.5125
41992SOL    HW233092  12.014   5.110   8.353 -1.6378 -0.8973  0.5971
41993SOL     OW33093  12.436   8.120   6.899 -0.4510 -0.6687  0.0239
41993SOL    HW133094  12.416   8.202   6.944  0.0649 -1.7561  2.3985
41993SOL    HW233095  12.351   8.076   6.889 -0.5594 -0.4830  0.1251
41994SOL     OW33096   8.212  11.790  11.374 -0.1287  0.1988 -0.0978
41994SOL    HW133097   8.290  11.782  11.320 -0.5526 -0.8819 -0.5797
41994SOL    HW233098   8.150  11.838  11.319 -0.4134 -0.5325 -0.4341
41995SOL     OW33099  11.030   2.884   6.847  0.1367  0.1095 -0.3858
41995SOL    HW133100  10.999   2.885   6.756 -0.6732  0.6652 -0.1137
41995SOL    HW233101  11.116   2.925   6.843 -0.5779  1.6935 -0.6943
41996SOL     OW33102   7.825  10.023   3.643  0.0688 -0.1924  0.2030
41996SOL    HW133103   7.778   9.942   3.663  1.0387 -0.2107  2.8262
41996SOL    HW233104   7.917   9.999   3.648  0.3922  1.1910  1.9957
41997SOL     OW33105   6.182   4.484   8.773 -0.4565 -0.2157  0.1300
41997SOL    HW133106   6.190   4.544   8.699  2.9762 -0.4922  0.1375
41997SOL    HW233107   6.234   4.523   8.843 -0.2797 -1.8987  1.0101
41998SOL     OW33108   5.461   8.684  11.313 -0.3642 -0.2889 -0.1342
41998SOL    HW133109   5.437   8.765  11.358  0.7970 -0.1567  0.2773
41998SOL    HW233110   5.475   8.711  11.222  0.2540  0.0272  0.0497
41999SOL     OW33111   8.532   5.231   4.515  0.2991 -0.1153 -0.2155
41999SOL    HW133112   8.454   5.273   4.479  0.0865 -2.8044 -3.3449
41999SOL    HW233113   8.604   5.261   4.459  1.0761  0.2285  0.9285
42000SOL     OW33114   5.905  10.053   6.731  0.6057 -0.7054 -0.3706
42000SOL    HW133115   5.883  10.139   6.696  2.0008 -0.4665 -0.7381
42000SOL    HW233116   5.898  10.063   6.826 -1.7114 -0.9269 -0.4652
42001SOL     OW33117  10.793   6.056   1.299 -0.3437  0.0744  0.0177
42001SOL    HW133118  10.782   6.150   1.287  0.0947 -0.0855 -1.9221
42001SOL    HW233119  10.742   6.035   1.377 -2.6068  1.4863 -0.9996
42002SOL     OW33120   7.111  12.307   7.145 -0.0203 -0.4784  0.4490
42002SOL    HW133121   7.165  12.290   7.223  0.3355  0.1550  0.3536
42002SOL    HW233122   7.149  12.253   7.077  0.2736 -0.3140  0.4784
42003SOL     OW33123   9.141   4.242   3.057  0.0932 -0.5362 -0.1158
42003SOL    HW133124   9.142   4.159   3.009  0.3929  0.5211 -2.0187
42003SOL    HW233125   9.167   4.308   2.993  0.9093  0.9227  1.6164
42004SOL     OW33126   5.490   6.981   2.466 -0.4952 -0.0116  0.1836
42004SOL    HW133127   5.414   7.033   2.439  0.3565  0.5190 -1.3278
42004SOL    HW233128   5.535   7.036   2.531 -0.2210  0.6693 -0.5662
42005SOL     OW33129  12.483   5.624   7.015 -0.4896 -0.4840  0.1573
42005SOL    HW133130  12.426   5.583   7.080 -1.5352 -0.0034 -0.4420
42005SOL    HW233131  12.571   5.613   7.051 -1.0129 -0.5076  1.5028
42006SOL     OW33132   0.543   8.412   5.520  0.5894  0.2068 -0.2440
42006SOL    HW133133   0.589   8.335   5.552  0.7008  0.5977  0.5834
42006SOL    HW233134   0.450   8.392   5.532  0.5873 -0.1434 -0.8592
42007SOL     OW33135  10.662   5.803   5.349 -0.1404 -1.0095 -0.3350
42007SOL    HW133136  10.711   5.723   5.368  1.1180 -0.8314 -2.4543
42007SOL    HW233137  10.706   5.839   5.272 -0.3968  1.9437  0.7735
42008SOL     OW33138   8.052  10.086  11.334  0.1526  0.6719 -0.0942
42008SOL    HW133139   7.990  10.029  11.379  2.5877 -1.5205  0.6697
42008SOL    HW233140   8.114  10.113  11.401  1.0255  1.4593 -1.1658
42009SOL     OW33141  10.061  11.614   7.695  0.0931  0.2912 -0.1189
42009SOL    HW133142  10.128  11.551   7.668 -0.1705 -0.5145  1.0562
42009SOL    HW233143  10.108  11.674   7.754 -0.5933 -1.4231  2.2787
42010SOL     OW33144   6.861   6.359   4.527 -0.5870  0.3499 -0.0347
42010SOL    HW133145   6.888   6.450   4.521  0.1661  0.0880 -0.9176
42010SOL    HW233146   6.908   6.315   4.456 -2.1414 -0.4373 -0.6243
42011SOL     OW33147   0.291   2.154   1.314 -0.2139 -0.1050  0.1537
42011SOL    HW133148   0.233   2.080   1.333 -0.7182 -0.2116 -1.6256
42011SOL    HW233149   0.363   2.116   1.263  0.0885  0.4443  0.1579
42012SOL     OW33150  10.654   9.236   2.700 -0.1447 -0.2047 -0.2386
42012SOL    HW133151  10.645   9.150   2.658  1.0029 -1.8108  2.5345
42012SOL    HW233152  10.744   9.262   2.682  0.4595 -1.0577  1.3425
42013SOL     OW33153   2.545   0.831   9.220  0.3818  0.6405  0.2290
42013SOL    HW133154   2.577   0.857   9.306 -0.2847  0.6811  0.4735
42013SOL    HW233155   2.572   0.901   9.162 -0.8995  1.6451  0.7786
42014SOL     OW33156  10.955   3.713   6.682  0.6334 -0.6860  0.0512
42014SOL    HW133157  10.886   3.646   6.679 -0.3599  0.2630  0.6545
42014SOL    HW233158  10.990   3.707   6.771 -0.3962  0.4533  0.5711
42015SOL     OW33159  10.463  12.960  10.291  0.1717 -0.0372 -0.6723
42015SOL    HW133160  10.427  12.884  10.247  3.6574 -3.0232  1.0681
42015SOL    HW233161  10.535  12.989  10.235 -0.4954  1.4202 -0.8263
42016SOL     OW33162   4.767   6.748   8.049  0.3262  0.1692  0.0470
42016SOL    HW133163   4.814   6.782   7.973 -1.5853  1.6320 -0.5594
42016SOL    HW233164   4.684   6.716   8.012 -1.1998  2.0897  1.6117
42017SOL     OW33165   4.259   3.165   6.659 -0.5707  0.1324 -0.1617
42017SOL    HW133166   4.337   3.213   6.684  1.0869 -1.4516 -1.9510
42017SOL    HW233167   4.199   3.231   6.626 -0.1311  1.4053  1.4643
42018SOL     OW33168   4.066   8.840   1.059  0.5821 -0.2233  0.1246
42018SOL    HW133169   4.136   8.778   1.041 -1.0160 -2.6770  1.8213
42018SOL    HW233170   4.112   8.920   1.085  2.7303 -1.2537 -0.2344
42019SOL     OW33171  12.828   5.466   1.320  0.1549 -0.0160 -0.3105
42019SOL    HW133172  12.744   5.474   1.365  1.0404  1.5249  1.1791
42019SOL    HW233173  12.866   5.385   1.353 -1.6266 -1.9840 -2.6976
42020SOL     OW33174   7.913   0.680   5.863  0.1855 -0.3657 -0.2495
42020SOL    HW133175   7.824   0.685   5.827 -0.7894 -1.3237  1.8935
42020SOL    HW233176   7.948   0.598   5.827 -1.0748 -1.7379  1.4449
42021SOL     OW33177   4.099  12.728   5.351  0.5047 -0.1850 -0.2013
42021SOL    HW133178   4.188  12.692   5.362  0.2049 -0.6730  0.7533
42021SOL    HW233179   4.110  12.822   5.358  0.6995 -0.3180  2.0887
42022SOL     OW33180  12.502   9.401  11.802  0.0653  0.6564  0.0203
42022SOL    HW133181  12.595   9.422  11.793  0.3227  0.9050  2.6391
42022SOL    HW233182  12.463   9.479  11.842 -1.0791  0.1830 -0.1098
42023SOL     OW33183   9.865   5.729   1.821  0.2498 -0.2315 -0.1933
42023SOL    HW133184   9.838   5.674   1.747  1.1675 -2.1335  0.7969
42023SOL    HW233185   9.798   5.797   1.827 -2.2012 -2.4850 -0.1687
42024SOL     OW33186  12.039   5.004   0.372  0.2366  0.0736  0.7132
42024SOL    HW133187  12.110   5.068   0.366 -0.2305  0.5981  0.6693
42024SOL    HW233188  12.060   4.952   0.449 -0.6983  1.9408  2.2917
42025SOL     OW33189   0.761  11.547   5.611 -0.1222 -0.2066 -0.0856
42025SOL    HW133190   0.810  11.629   5.620 -1.8845  0.9056 -0.2346
42025SOL    HW233191   0.768  11.505   5.697 -1.5193  1.4788  0.9132
42026SOL     OW33192   7.635   2.775   3.560  0.0647  0.6778 -0.5143
42026SOL    HW133193   7.718   2.768   3.606 -0.1226 -1.5606 -0.3912
42026SOL    HW233194   7.633   2.698   3.503 -1.3834  1.3543 -1.4396
42027SOL     OW33195   2.523   0.203   4.240 -0.2084 -0.0299 -0.4956
42027SOL    HW133196   2.606   0.160   4.221 -1.4020 -2.6905 -0.1555
42027SOL    HW233197   2.506   0.259   4.164  2.5880  1.8699  0.1410
42028SOL     OW33198  11.758   8.063   9.514  0.2055 -0.1431 -0.4163
42028SOL    HW133199  11.674   8.029   9.484  0.3242  0.5053 -1.5618
42028SOL    HW233200  11.736   8.129   9.579 -0.1305 -0.5598 -0.1047
42029SOL     OW33201   7.221   5.816   7.142  0.5115 -0.3504  0.3690
42029SOL    HW133202   7.214   5.794   7.235 -0.5243  0.1299  0.4276
42029SOL    HW233203   7.141   5.867   7.124  0.7868 -0.2877 -0.7367
42030SOL     OW33204   0.621  10.731   2.904 -0.5190  0.1313 -0.2056
42030SOL    HW133205   0.642  10.716   2.996  0.1723  1.8732 -0.0268
42030SOL    HW233206   0.652  10.652   2.859 -0.1798 -0.4284  0.9647
42031SOL     OW33207  10.666   0.105   6.093 -0.4421 -0.7757 -0.1627
42031SOL    HW133208  10.590   0.158   6.119 -0.5174 -1.1791  0.4693
42031SOL    HW233209  10.682   0.129   6.002 -0.4142  0.3985  0.1343
42032SOL     OW33210   3.560  12.841  12.543 -0.1619  0.0299 -0.1350
42032SOL    HW133211   3.616  12.809  12.472 -0.9962 -2.0901  0.0897
42032SOL    HW233212   3.500  12.902  12.499  0.4150  0.0594 -0.9165
42033SOL     OW33213   9.621   9.095   6.903 -0.2329 -0.2428 -0.2498
42033SOL    HW133214   9.607   9.162   6.837  1.3684  1.3308  0.9376
42033SOL    HW233215   9.566   9.122   6.977  0.8435  0.1281  0.4448
42034SOL     OW33216  12.093   9.432   8.110 -0.3626 -0.0664 -0.2385
42034SOL    HW133217  12.028   9.481   8.059 -1.9360 -2.5426 -0.7463
42034SOL    HW233218  12.142   9.382   8.044  0.4763 -0.0543  0.3582
42035SOL     OW33219  12.000   8.510   7.178  0.3661 -0.4061  0.1184
42035SOL    HW133220  11.941   8.439   7.202 -0.7028  0.6187  0.6002
42035SOL    HW233221  11.950   8.590   7.194  1.3855  0.4571 -0.8267
42036SOL     OW33222  12.568   7.160  12.432  0.1430  0.5615 -0.6113
42036SOL    HW133223  12.527   7.245  12.447  0.7706  0.9004 -0.7677
42036SOL    HW233224  12.598   7.132  12.519 -1.3339 -0.1819 -0.3179
42037SOL     OW33225   1.729   3.600   0.166  0.1839 -0.6029 -0.4122
42037SOL    HW133226   1.702   3.665   0.101  1.8330 -0.3326 -0.8805
42037SOL    HW233227   1.701   3.637   0.250 -0.7232 -0.2818 -0.8441
42038SOL     OW33228  11.600  11.620   3.249 -0.2620 -0.0121  0.1371
42038SOL    HW133229  11.666  11.675   3.291 -0.6686  1.4028 -0.9504
42038SOL    HW233230  11.646  11.540   3.224  1.2365  1.1943 -1.1652
42039SOL     OW33231   5.616  11.289   0.206 -0.1538 -0.6510  0.1095
42039SOL    HW133232   5.611  11.222   0.137  0.5485 -0.3689 -0.2211
42039SOL    HW233233   5.544  11.349   0.185  0.2807 -0.3628 -0.6010
42040SOL     OW33234   7.277   1.548   3.417 -0.5546  0.2606 -0.2781
42040SOL    HW133235   7.345   1.570   3.480  0.6353 -1.6283 -0.8112
42040SOL    HW233236   7.291   1.610   3.345  0.9797 -0.4021 -0.6015
42041SOL     OW33237   6.828  11.755   5.453 -0.2077  0.2732  0.2215
42041SOL    HW133238   6.849  11.662   5.467 -2.7732 -0.8647 -2.5300
42041SOL    HW233239   6.911  11.793   5.424  1.0961 -0.8834  2.1034
42042SOL     OW33240   5.079   2.280  12.082 -0.2269 -0.7689 -0.3899
42042SOL    HW133241   5.086   2.351  12.018 -1.9193  0.4963  0.7559
42042SOL    HW233242   5.168   2.268  12.114  0.6676 -1.3917 -2.8627
42043SOL     OW33243   4.868   2.390   5.364 -0.1600  0.2926 -0.0102
42043SOL    HW133244   4.782   2.348   5.366 -0.7308  1.4457  1.1651
42043SOL    HW233245   4.925   2.329   5.412 -1.0317  0.8771  1.9012
42044SOL     OW33246   6.499   2.131   8.464  0.0530 -0.1771  0.0598
42044SOL    HW133247   6.583   2.142   8.509 -1.6213 -0.2126  3.5901
42044SOL    HW233248   6.467   2.220   8.451  0.7844 -0.1368 -1.8214
42045SOL     OW33249  11.402   9.441   7.534  0.2365  0.2684 -0.2911
42045SOL    HW133250  11.394   9.395   7.451 -0.5698  0.3102 -0.2486
42045SOL    HW233251  11.353   9.522   7.522 -1.4841 -0.5396  0.7802
42046SOL     OW33252   6.498  10.228   9.602  0.6047 -0.0898  0.1370
42046SOL    HW133253   6.584  10.270   9.607  0.6614 -0.3013  1.3942
42046SOL    HW233254   6.440  10.288   9.649  0.2016 -0.2624 -0.1368
42047SOL     OW33255   1.942   4.595   2.657  0.0189  0.8397 -0.1081
42047SOL    HW133256   1.949   4.566   2.749 -1.1056  2.2551  0.4497
42047SOL    HW233257   1.864   4.550   2.624 -0.8879  2.0651  0.3246
42048SOL     OW33258   5.865   5.648   3.767  0.1456  0.0865 -0.4492
42048SOL    HW133259   5.858   5.730   3.816 -2.5860 -0.6132  0.5057
42048SOL    HW233260   5.856   5.579   3.834  0.8754 -0.9888 -1.4121
42049SOL     OW33261   1.748   3.176   4.038 -0.4935 -0.1418 -0.0572
42049SOL    HW133262   1.787   3.262   4.055 -1.6580  0.6736 -1.3244
42049SOL    HW233263   1.823   3.118   4.024  0.3771  0.2407  2.4154
42050SOL     OW33264   8.282   0.495  10.567  0.2367  0.0099  0.0224
42050SOL    HW133265   8.301   0.480  10.659  0.3243 -2.2847 -0.3020
42050SOL    HW233266   8.256   0.409  10.533 -0.7015  0.9756 -1.8898
42051SOL     OW33267   2.781   4.125  12.466  0.3833  0.1842  0.2600
42051SOL    HW133268   2.707   4.076  12.429  0.7157  1.0023 -1.6172
42051SOL    HW233269   2.756   4.217  12.454  1.4017  0.4614  0.2213
42052SOL     OW33270   6.127  12.213  11.267  0.1806 -0.2745  0.4971
42052SOL    HW133271   6.097  12.191  11.355  0.4538 -1.4020  0.3248
42052SOL    HW233272   6.054  12.188  11.210  0.5982 -1.0235  0.2736
42053SOL     OW33273   3.039  10.008   6.623 -0.0467  0.1487  0.4442
42053SOL    HW133274   2.986   9.931   6.602  1.3218 -0.7162 -0.0378
42053SOL    HW233275   3.061   9.998   6.716 -0.9639  0.6755  0.7264
42054SOL     OW33276   3.800  10.300   8.420 -0.4002  0.2863 -0.2494
42054SOL    HW133277   3.807  10.223   8.365  3.0359  1.5575 -1.8811
42054SOL    HW233278   3.868  10.288   8.487 -1.7561  0.6430  1.2449
42055SOL     OW33279   2.107  11.898   3.589  0.4806  0.4403  0.6799
42055SOL    HW133280   2.063  11.841   3.652 -2.9818 -0.5433 -2.2309
42055SOL    HW233281   2.159  11.838   3.535 -1.8458  0.0576 -1.3400
42056SOL     OW33282   0.493   3.675  11.664  0.8512  0.2767  0.8982
42056SOL    HW133283   0.535   3.710  11.585  0.7500  1.6449  1.4305
42056SOL    HW233284   0.533   3.588  11.675 -0.8878 -1.0244 -1.9947
42057SOL     OW33285   0.338   1.108   0.287  0.2189  0.4697 -0.3425
42057SOL    HW133286   0.246   1.119   0.263  0.3771 -0.0254 -1.2386
42057SOL    HW233287   0.386   1.140   0.211  0.7360 -2.5675 -1.4402
42058SOL     OW33288  12.956  12.083  10.388 -0.8163 -0.3578  0.7773
42058SOL    HW133289  13.008  12.120  10.459  0.5296  0.1668 -0.4285
42058SOL    HW233290  13.020  12.041  10.331 -1.7189  0.1170 -0.6388
42059SOL     OW33291  11.236   4.014   4.687 -0.3933  0.4772 -0.0009
42059SOL    HW133292  11.316   3.966   4.667 -0.4041  0.4166  0.1009
42059SOL    HW233293  11.168   3.946   4.691 -0.5865  0.6192 -0.8495
42060SOL     OW33294  11.898   1.448  10.331 -0.3201  0.4191 -1.1439
42060SOL    HW133295  11.957   1.514  10.367 -1.0454  0.3593  0.2314
42060SOL    HW233296  11.956   1.376  10.306  0.1766 -0.1694  1.3445
42061SOL     OW33297  12.863   1.380   6.086 -0.3464  0.6924 -0.0090
42061SOL    HW133298  12.880   1.287   6.069 -2.5366  0.1905  0.2458
42061SOL    HW233299  12.845   1.417   6.000 -0.6121  0.6107  0.0095
42062SOL     OW33300  10.456   4.051   3.841 -0.6055 -0.1159 -0.2070
42062SOL    HW133301  10.504   3.972   3.865  0.6893  0.7974  0.3122
42062SOL    HW233302  10.407   4.074   3.919  1.5464  1.3610  0.8230
42063SOL     OW33303   9.448   2.683   0.027  0.5134  0.6774  0.7004
42063SOL    HW133304   9.407   2.769   0.018  1.8496  1.1661 -1.5128
42063SOL    HW233305   9.484   2.683   0.115  1.3421  2.8111  0.4239
42064SOL     OW33306   4.861   4.531  12.561  0.1969 -0.3237  0.8095
42064SOL    HW133307   4.787   4.577  12.522  0.8379  0.0764  0.0297
42064SOL    HW233308   4.906   4.598  12.614  1.8771  0.3713 -1.3588
42065SOL     OW33309   8.711   0.168   7.032 -0.1583 -0.0177  0.5121
42065SOL    HW133310   8.693   0.178   7.125  2.8189 -1.5405  1.3665
42065SOL    HW233311   8.794   0.214   7.019 -0.2966 -0.2259 -1.3200
42066SOL     OW33312   2.434   0.280   1.403 -0.4655 -0.1559 -0.4205
42066SOL    HW133313   2.502   0.214   1.390 -1.5075 -1.1949 -0.7391
42066SOL    HW233314   2.430   0.291   1.498  0.9671  0.8379 -0.4322
42067SOL     OW33315   7.556   1.303   2.655 -0.4873 -0.3365  0.1561
42067SOL    HW133316   7.620   1.279   2.587 -0.5739 -1.6042  0.4951
42067SOL    HW233317   7.577   1.245   2.729  0.4877  1.9258  1.7666
42068SOL     OW33318  12.246  10.252   7.317 -0.4565  0.0326 -0.3442
42068SOL    HW133319  12.181  10.297   7.263 -1.9136 -0.2224  1.0967
42068SOL    HW233320  12.286  10.188   7.259 -1.7502 -0.0304 -1.2039
42069SOL     OW33321  11.119   8.480   6.772  0.5571  0.0322 -0.6422
42069SOL    HW133322  11.025   8.487   6.788  0.5725 -0.9830 -0.0751
42069SOL    HW233323  11.160   8.523   6.847  0.5599  0.1632 -0.7170
42070SOL     OW33324   0.268  11.098   3.973 -0.4346  0.3176 -0.7456
42070SOL    HW133325   0.192  11.047   4.001  1.0190 -2.3731 -1.2864
42070SOL    HW233326   0.232  11.175   3.931 -2.8069 -0.0802  0.4040
42071SOL     OW33327  10.609   8.868  11.065  0.1299  0.3511 -0.0275
42071SOL    HW133328  10.564   8.844  10.984 -0.4251 -0.1732  0.4165
42071SOL    HW233329  10.701   8.876  11.040  0.3380 -2.0814 -0.2945
42072SOL     OW33330   6.637   9.298   4.306 -0.2460  0.0964 -0.2657
42072SOL    HW133331   6.724   9.334   4.286 -0.9775  0.0371 -4.4833
42072SOL    HW233332   6.647   9.203   4.296 -0.4977 -0.0669  0.8658
42073SOL     OW33333   7.352  12.697   5.048  0.0209  1.1146  0.3316
42073SOL    HW133334   7.347  12.628   4.981  0.5861  0.2328  1.1777
42073SOL    HW233335   7.407  12.765   5.008  0.5896  0.4693 -0.0073
42074SOL     OW33336  11.073   3.560   5.598 -0.8149  0.5251 -0.0416
42074SOL    HW133337  10.992   3.532   5.556 -0.2051 -1.4971  0.0573
42074SOL    HW233338  11.134   3.572   5.526 -0.5642 -0.2011  0.0437
42075SOL     OW33339   0.549   3.885  11.852  0.6747  0.0096 -0.0506
42075SOL    HW133340   0.639   3.856  11.845  0.8557  0.8124 -1.2943
42075SOL    HW233341   0.497   3.816  11.811  0.8010 -0.0425 -0.1216
42076SOL     OW33342   8.657   4.660   0.797  0.0941 -0.2443  0.1282
42076SOL    HW133343   8.608   4.724   0.746 -1.2840 -0.5444  1.0287
42076SOL    HW233344   8.680   4.706   0.877  2.2082  0.2087 -0.6594
42077SOL     OW33345   1.518   7.771  11.263  0.4421  0.2450  0.0054
42077SOL    HW133346   1.437   7.815  11.287 -0.0595 -0.6382 -0.0251
42077SOL    HW233347   1.492   7.710  11.193  1.0459 -0.3569  0.2998
42078SOL     OW33348   9.216   5.184   7.924  0.0872  0.3113  0.0776
42078SOL    HW133349   9.210   5.154   8.015  1.4486  0.4451  0.2379
42078SOL    HW233350   9.310   5.189   7.907 -0.1231  1.7648 -0.8510
42079SOL     OW33351   6.510  12.128   5.558  0.1187 -0.0764  0.3176
42079SOL    HW133352   6.462  12.204   5.525  1.3110 -0.0825 -1.5802
42079SOL    HW233353   6.442  12.072   5.597 -0.8054  1.8228  1.6223
42080SOL     OW33354  12.254   3.280   0.700  0.0681 -0.2888  0.2647
42080SOL    HW133355  12.171   3.261   0.743 -1.5493  1.4580 -1.8485
42080SOL    HW233356  12.321   3.248   0.761 -2.1242 -2.6517  1.6032
42081SOL     OW33357  10.044   8.537   9.266 -0.2477 -0.2406  0.1558
42081SOL    HW133358  10.051   8.571   9.355 -2.3960  2.8266 -0.6907
42081SOL    HW233359  10.117   8.578   9.219 -1.6548  1.8017 -0.3930
42082SOL     OW33360   4.321   7.129   5.489  0.1317 -0.1156 -0.1699
42082SOL    HW133361   4.384   7.058   5.482  0.2188 -0.0256 -0.3102
42082SOL    HW233362   4.296   7.130   5.582 -0.5862 -0.9411 -0.3344
42083SOL     OW33363   7.987  11.820  10.437  0.7583 -0.3456  0.0760
42083SOL    HW133364   7.987  11.903  10.485 -0.6862 -0.0743 -0.3509
42083SOL    HW233365   8.080  11.800  10.424  1.1556  1.7574 -0.7532
42084SOL     OW33366  12.860   9.834   7.916 -0.0743  0.0807  0.3057
42084SOL    HW133367  12.828   9.890   7.987 -0.0200 -0.2708  0.6118
42084SOL    HW233368  12.818   9.869   7.837 -0.3699  0.2899  0.5533
42085SOL     OW33369   3.459   9.306   6.296 -0.5527  0.0063  0.0240
42085SOL    HW133370   3.384   9.255   6.327 -0.5514  0.2009  0.3575
42085SOL    HW233371   3.440   9.325   6.205 -1.4996  1.1078  0.4201
42086SOL     OW33372  10.675   9.116   5.389  0.3073 -0.4653 -0.0552
42086SOL    HW133373  10.714   9.196   5.423  2.8414 -1.2878 -0.7468
42086SOL    HW233374  10.699   9.049   5.453  0.6265 -1.1235 -0.8519
42087SOL     OW33375   3.253   9.288   3.515  0.0408  0.1008  0.1560
42087SOL    HW133376   3.332   9.253   3.556  1.4627  1.9082 -0.8528
42087SOL    HW233377   3.283   9.319   3.429 -1.7852  0.8009 -0.2740
42088SOL     OW33378  12.449   7.133   3.673 -0.0080 -0.3881  0.2208
42088SOL    HW133379  12.530   7.095   3.708  0.6084  1.0508  0.4073
42088SOL    HW233380  12.428   7.204   3.733 -1.2415 -0.5304 -0.0252
42089SOL     OW33381   8.285  12.337   4.457 -0.5915 -0.1671  0.1697
42089SOL    HW133382   8.249  12.425   4.468  0.5743  0.4114 -0.4751
42089SOL    HW233383   8.356  12.348   4.394  0.0314 -1.4506  0.6149
42090SOL     OW33384   9.803   3.153   6.042  0.1041  0.2959 -0.0689
42090SOL    HW133385   9.756   3.134   5.960 -0.6808  0.0249  0.4282
42090SOL    HW233386   9.869   3.217   6.017 -1.3213  1.6362 -0.5870
42091SOL     OW33387   8.784   3.154  11.689  0.5775 -0.2673  0.2025
42091SOL    HW133388   8.820   3.232  11.649  0.9008 -0.3415  0.3473
42091SOL    HW233389   8.834   3.143  11.770  0.0801 -0.2408  0.5157
42092SOL     OW33390   5.107   2.705   8.280 -0.7156 -0.0707 -0.1175
42092SOL    HW133391   5.158   2.652   8.219  0.9743 -0.4509  1.5260
42092SOL    HW233392   5.048   2.643   8.322  1.9182 -1.0617  2.5037
42093SOL     OW33393   0.598   6.979   1.173 -0.1606  0.2304 -0.5050
42093SOL    HW133394   0.571   7.071   1.185 -1.3937 -0.2721  0.9248
42093SOL    HW233395   0.540   6.946   1.104 -2.4952 -0.4832  1.6572
42094SOL     OW33396  10.044   8.760   8.020  0.2846  0.2842 -0.5314
42094SOL    HW133397  10.025   8.761   7.926 -1.9417 -1.4190 -0.1987
42094SOL    HW233398   9.959   8.742   8.061  1.5840 -1.3447  1.6381
42095SOL     OW33399   4.314   4.278   9.634 -0.0087  0.5786 -0.1041
42095SOL    HW133400   4.238   4.316   9.589 -1.2966  0.6984  2.0521
42095SOL    HW233401   4.321   4.190   9.598 -1.1372  0.5889 -0.3917
42096SOL     OW33402   8.703  12.030   4.211  0.2905 -0.0420 -0.3387
42096SOL    HW133403   8.766  11.961   4.231 -1.4339 -1.6781 -0.2812
42096SOL    HW233404   8.626  12.008   4.263 -0.5113  1.6345 -0.7501
42097SOL     OW33405   0.545   6.802   8.974  0.4694  0.0589  0.5392
42097SOL    HW133406   0.632   6.819   8.939  1.5115 -0.3402  2.8048
42097SOL    HW233407   0.534   6.865   9.045 -0.4242 -0.9786  1.3587
42098SOL     OW33408   9.747  11.966   3.500 -0.6038 -0.5353  0.2257
42098SOL    HW133409   9.825  11.936   3.545  0.0761  0.2081 -0.4402
42098SOL    HW233410   9.676  11.913   3.537  0.6247 -3.6448 -1.5157
42099SOL     OW33411   7.097   2.888  12.810 -0.4599  0.7896  0.0231
42099SOL    HW133412   7.004   2.878  12.833 -0.3282 -0.1296  0.1883
42099SOL    HW233413   7.144   2.841  12.880  0.1064  0.8814 -0.2918
42100SOL     OW33414  11.112  10.188   3.560 -0.8039  0.1705  0.1770
42100SOL    HW133415  11.131  10.129   3.633 -1.0460  0.3503  0.3859
42100SOL    HW233416  11.194  10.192   3.511 -0.6913 -0.0905  0.3386
42101SOL     OW33417   8.489  12.701   6.145  0.1955 -0.3298 -0.3684
42101SOL    HW133418   8.502  12.715   6.051  2.6785 -0.6256 -0.1125
42101SOL    HW233419   8.454  12.785   6.176 -0.3622 -0.1268 -1.4746
42102SOL     OW33420   6.706  12.650   2.130  0.1324  0.4861  0.0572
42102SOL    HW133421   6.764  12.717   2.167  2.9531 -1.5996 -0.2624
42102SOL    HW233422   6.716  12.659   2.035  1.8526 -1.2992 -0.0030
42103SOL     OW33423  12.651   8.640   8.964 -0.3805  0.3346  0.3271
42103SOL    HW133424  12.590   8.713   8.972 -1.1256 -0.2127 -0.2636
42103SOL    HW233425  12.737   8.681   8.956 -0.8982  1.1995 -1.1086
42104SOL     OW33426   6.067   3.609   9.586  0.2425 -0.0756 -0.3995
42104SOL    HW133427   6.126   3.608   9.661 -0.5162 -1.6256  0.2186
42104SOL    HW233428   6.124   3.592   9.511  0.7658 -0.2823  0.0327
42105SOL     OW33429   5.479   9.468  12.552 -0.1990 -0.6454 -0.3235
42105SOL    HW133430   5.398   9.519  12.549  1.3120  2.0146  0.6096
42105SOL    HW233431   5.471   9.406  12.480 -2.8885 -0.2519 -0.4714
42106SOL     OW33432   2.435   5.495   2.456  0.1036  0.5205  0.5458
42106SOL    HW133433   2.444   5.523   2.365  0.0559  2.6197  1.1494
42106SOL    HW233434   2.347   5.457   2.461  0.9144 -1.7967 -0.7618
42107SOL     OW33435   8.826   8.361   6.538 -0.4744  1.0728 -0.1919
42107SOL    HW133436   8.877   8.294   6.493 -3.1608  0.7575 -3.1285
42107SOL    HW233437   8.809   8.324   6.625  1.2070 -0.3477 -0.4091
42108SOL     OW33438  12.787   6.169   4.568 -0.1921  0.2574 -0.4041
42108SOL    HW133439  12.738   6.189   4.648  0.5064  1.3444 -0.2193
42108SOL    HW233440  12.741   6.218   4.500 -0.6310 -0.4614 -0.6384
42109SOL     OW33441   9.812   6.300  12.402 -0.3956 -0.5212 -0.3580
42109SOL    HW133442   9.739   6.282  12.343 -0.9596 -4.3913  1.2853
42109SOL    HW233443   9.773   6.304  12.489  1.1328 -1.1294  0.3986
42110SOL     OW33444  11.174   5.936   0.864  0.4143 -0.3711  0.7118
42110SOL    HW133445  11.125   5.939   0.782  0.8055  0.2943  0.5019
42110SOL    HW233446  11.107   5.944   0.933  0.0021 -1.6586  0.5006
42111SOL     OW33447   3.175   2.291   6.958  0.0574  0.5106  0.1260
42111SOL    HW133448   3.170   2.256   6.869  0.3227  3.4378 -1.1589
42111SOL    HW233449   3.268   2.310   6.971 -0.0830  0.8286  0.6997
42112SOL     OW33450   7.997   7.387   5.565  0.3010 -0.8590  0.4397
42112SOL    HW133451   8.039   7.301   5.573  0.4203 -0.6548  2.7939
42112SOL    HW233452   8.047   7.443   5.624  1.1427  1.2544 -2.1407
42113SOL     OW33453   2.322   9.403   5.398 -0.0093 -0.3000  0.1018
42113SOL    HW133454   2.243   9.349   5.389 -0.1084 -0.0479 -0.5886
42113SOL    HW233455   2.302   9.464   5.469 -1.3001  1.2050 -1.4675
42114SOL     OW33456   1.056   3.956  10.408 -0.1829  0.3963 -0.0024
42114SOL    HW133457   1.036   4.002  10.326 -1.1452  0.7134  0.3884
42114SOL    HW233458   1.062   3.864  10.383 -0.2410  0.5172 -0.4734
42115SOL     OW33459  11.181  11.105   2.895 -0.0038 -0.0849 -0.7432
42115SOL    HW133460  11.086  11.094   2.900 -0.3472  1.9950 -1.5745
42115SOL    HW233461  11.202  11.169   2.963  0.1763  2.3767 -2.9772
42116SOL     OW33462  11.736   0.862   7.828 -0.6013 -0.6815  0.2333
42116SOL    HW133463  11.648   0.859   7.791 -0.3607 -1.3205 -0.2998
42116SOL    HW233464  11.754   0.955   7.839 -0.7985 -0.4896 -0.9654
42117SOL     OW33465  10.822   4.737   4.028  0.1948 -0.5954  0.2109
42117SOL    HW133466  10.763   4.709   3.958  0.9238 -2.0302  0.1246
42117SOL    HW233467  10.864   4.816   3.993  0.2190 -1.0382 -0.7951
42118SOL     OW33468   1.472   0.652   7.983 -0.2910  0.3082  1.1212
42118SOL    HW133469   1.452   0.624   8.073 -2.7935  0.5985  0.7254
42118SOL    HW233470   1.502   0.743   7.993  1.0289 -0.1718  1.7700
42119SOL     OW33471  10.181   7.461  10.094  0.8073 -0.2384  0.2311
42119SOL    HW133472  10.208   7.401  10.025  2.6556  1.0511 -0.2565
42119SOL    HW233473  10.207   7.548  10.061  0.6496  0.5284  2.0307
42120SOL     OW33474   7.962  11.977   1.292 -0.4240  0.0706 -0.2543
42120SOL    HW133475   7.887  11.942   1.244  0.5591 -0.6279 -1.3304
42120SOL    HW233476   8.010  12.030   1.228  0.2068  0.1896  0.3061
42121SOL     OW33477   4.267   5.813   5.207 -0.1819  0.2773 -0.4684
42121SOL    HW133478   4.275   5.728   5.165  0.4959 -0.2504  0.6617
42121SOL    HW233479   4.350   5.857   5.191 -0.0146  0.1746  0.0781
42122SOL     OW33480   5.155   5.978   5.583 -0.2081 -0.3037  0.0374
42122SOL    HW133481   5.160   6.003   5.675  0.6970 -1.3305  0.2824
42122SOL    HW233482   5.245   5.957   5.558 -0.5511 -0.7391 -0.8777
42123SOL     OW33483   8.897  10.714   7.228  0.0276 -0.4089  0.2801
42123SOL    HW133484   8.832  10.732   7.160  1.6213  1.0203 -0.9686
42123SOL    HW233485   8.940  10.798   7.243  2.2288 -1.4589  0.3424
42124SOL     OW33486  10.583   5.987   6.962 -0.3899  0.5388  0.6786
42124SOL    HW133487  10.544   5.902   6.940  1.5218 -0.8605  2.3377
42124SOL    HW233488  10.553   6.045   6.892 -0.9534 -1.7210 -1.0992
42125SOL     OW33489   0.771   2.691   7.212  0.3965 -0.5707  0.4258
42125SOL    HW133490   0.837   2.678   7.280 -0.1271 -3.2158  0.5609
42125SOL    HW233491   0.820   2.723   7.137  1.1220  1.5485  1.7338
42126SOL     OW33492   8.953   1.620   0.702  0.0414  1.1448  0.1518
42126SOL    HW133493   8.961   1.645   0.610 -0.0539  1.5503  0.2506
42126SOL    HW233494   9.031   1.566   0.719  0.8392  2.2721  0.2101
42127SOL     OW33495   0.696  11.291  11.441 -0.0880  0.6350  0.3723
42127SOL    HW133496   0.780  11.315  11.480  0.3371 -0.0651 -0.0891
42127SOL    HW233497   0.656  11.374  11.416 -0.3547  1.1146  2.2392
42128SOL     OW33498   4.614   3.547   2.743  0.1037 -0.6938  0.9631
42128SOL    HW133499   4.698   3.522   2.783  1.0056  0.4773 -0.1062
42128SOL    HW233500   4.616   3.642   2.741 -0.1530 -0.6741 -1.2654
42129SOL     OW33501  11.054   3.727   6.131  0.0643  0.0842 -0.0559
42129SOL    HW133502  10.963   3.705   6.111 -0.4957  0.9538  1.3403
42129SOL    HW233503  11.054   3.744   6.226  1.3610  1.5296 -0.2665
42130SOL     OW33504  10.229   7.037   6.552 -0.4787 -1.1095 -0.3012
42130SOL    HW133505  10.321   7.043   6.575 -0.3887 -1.9816 -0.3982
42130SOL    HW233506  10.228   7.027   6.457 -0.7658  0.6312 -0.5085
42131SOL     OW33507   8.419  11.943   1.956  0.0600  0.1232  0.2712
42131SOL    HW133508   8.367  12.010   1.911  0.6875 -0.4412 -1.3658
42131SOL    HW233509   8.365  11.864   1.953  0.0930  0.0872  0.5613
42132SOL     OW33510  11.472   0.960   0.207 -0.1235 -0.2977  0.2857
42132SOL    HW133511  11.507   0.985   0.122 -1.0891  0.4953  0.1017
42132SOL    HW233512  11.447   1.043   0.248  0.2998 -0.6738  1.3298
42133SOL     OW33513  10.996  12.592   0.372  0.0329 -0.2667 -0.3757
42133SOL    HW133514  11.058  12.575   0.301  0.1297  0.9048 -0.5922
42133SOL    HW233515  10.933  12.654   0.334  1.0535  1.7536  1.0146
42134SOL     OW33516   5.542  11.851   6.134  0.8053 -0.2761 -0.0652
42134SOL    HW133517   5.543  11.828   6.227 -1.3642  0.9239  0.3262
42134SOL    HW233518   5.492  11.781   6.093 -0.7648  0.6414  0.1938
42135SOL     OW33519   4.474   2.720   8.483  0.7595 -0.2302  0.1762
42135SOL    HW133520   4.437   2.708   8.396  2.5129 -1.6698 -0.4364
42135SOL    HW233521   4.399   2.717   8.542 -0.3003 -0.9449 -1.1562
42136SOL     OW33522   2.504   1.756  11.740 -0.3843 -0.2462 -0.1864
42136SOL    HW133523   2.529   1.848  11.731 -2.5954  0.3288 -1.4606
42136SOL    HW233524   2.567   1.708  11.686  1.4399  0.3329  1.3312
42137SOL     OW33525   3.124   9.139   5.463 -0.9971  0.1217 -0.5025
42137SOL    HW133526   3.143   9.223   5.505 -1.6702  0.0593 -0.0607
42137SOL    HW233527   3.195   9.127   5.401  0.6925 -0.3436  1.4288
42138SOL     OW33528  10.126   0.639   3.352  0.3911 -0.3897 -0.6952
42138SOL    HW133529  10.056   0.590   3.309  0.9381 -2.7660  0.9792
42138SOL    HW233530  10.090   0.665   3.436  0.6032  0.9306 -0.9784
42139SOL     OW33531   6.174  11.430   2.835 -0.2737  0.2941  0.1117
42139SOL    HW133532   6.081  11.448   2.819 -0.2187 -0.3936 -1.0970
42139SOL    HW233533   6.212  11.421   2.747  1.2158  1.9045  0.5336
42140SOL     OW33534  10.051   4.010   1.139  0.4201  0.2773  0.4040
42140SOL    HW133535  10.118   3.942   1.132  0.5777  0.4834 -0.1517
42140SOL    HW233536   9.974   3.973   1.094  1.0336  1.1050 -1.4583
42141SOL     OW33537   7.681   4.156   8.419 -0.2760 -0.0638 -0.3310
42141SOL    HW133538   7.714   4.067   8.431 -0.1249 -0.1398 -1.1924
42141SOL    HW233539   7.590   4.152   8.447 -0.0828 -0.3238  0.2703
42142SOL     OW33540   7.751   1.725   6.954 -0.4548  0.3296 -0.6175
42142SOL    HW133541   7.832   1.727   7.005 -1.7968 -0.2891  1.7203
42142SOL    HW233542   7.721   1.634   6.960 -2.2504  0.9387  0.2017
42143SOL     OW33543   6.822   8.328   3.849 -0.0540 -0.0522  0.0594
42143SOL    HW133544   6.778   8.410   3.871  1.3394  0.5007  0.9529
42143SOL    HW233545   6.865   8.302   3.930 -0.7066 -1.8514 -0.1207
42144SOL     OW33546   5.076   7.374   0.942 -0.2685  0.3539 -0.2287
42144SOL    HW133547   5.132   7.430   0.888  0.5530 -0.2719 -0.0414
42144SOL    HW233548   5.081   7.412   1.030  0.7613 -0.3416  0.0247
42145SOL     OW33549  10.251  10.153   0.655 -0.2847  0.6766  0.3283
42145SOL    HW133550  10.162  10.169   0.623  0.1100  2.3435  0.0147
42145SOL    HW233551  10.308  10.186   0.586  0.5958 -0.1992  0.6139
42146SOL     OW33552   3.403  11.237   4.923 -0.6615  0.4594  0.4203
42146SOL    HW133553   3.374  11.304   4.985 -1.1330 -0.9015  1.7271
42146SOL    HW233554   3.442  11.169   4.978  0.0326 -0.2226 -0.8912
42147SOL     OW33555   6.544   1.866   6.444  0.2162  0.0601 -0.1982
42147SOL    HW133556   6.539   1.801   6.373  2.9241  0.6913 -1.0748
42147SOL    HW233557   6.499   1.943   6.409 -0.6872 -0.4392 -0.1824
42148SOL     OW33558   8.328   9.658  11.241 -0.3176 -0.3102  0.0715
42148SOL    HW133559   8.318   9.752  11.229  0.0219 -0.1156  1.1931
42148SOL    HW233560   8.290   9.619  11.163 -1.1067  0.7280 -0.0714
42149SOL     OW33561   3.295   7.128   2.700  0.4521  0.0163 -0.6095
42149SOL    HW133562   3.329   7.189   2.635 -2.0661 -0.3435 -2.4416
42149SOL    HW233563   3.277   7.182   2.777  1.2786  0.9394 -1.0489
42150SOL     OW33564   8.808   8.525   6.860 -0.7748 -0.4746  0.2831
42150SOL    HW133565   8.850   8.529   6.945  0.4566 -1.3352 -0.2639
42150SOL    HW233566   8.771   8.613   6.847  1.1732  0.4351  0.6239
42151SOL     OW33567  11.509   0.379  11.029  0.0896  0.5556  0.6376
42151SOL    HW133568  11.435   0.336  10.986 -0.0319  2.6065 -1.4191
42151SOL    HW233569  11.585   0.352  10.978  0.3012  1.0285  0.6982
42152SOL     OW33570   6.218   5.700   6.189 -0.2088  0.0661 -0.1885
42152SOL    HW133571   6.291   5.754   6.218 -1.6257  1.2038  1.4858
42152SOL    HW233572   6.240   5.612   6.219  0.5034  0.3808  0.2343
42153SOL     OW33573   4.459   7.872   0.539  0.0778  0.2722 -0.1330
42153SOL    HW133574   4.447   7.791   0.588  0.6532  0.4449  0.3000
42153SOL    HW233575   4.440   7.848   0.448  1.6456 -0.7022 -0.2305
42154SOL     OW33576   6.837   4.966   2.357 -0.2525 -0.1288  0.0880
42154SOL    HW133577   6.906   4.931   2.301  0.4248 -1.5364  1.7222
42154SOL    HW233578   6.843   5.061   2.345  1.2978 -0.2801 -0.5642
42155SOL     OW33579   3.026   1.764   6.704  0.2744  0.1333  0.2155
42155SOL    HW133580   3.091   1.821   6.744 -1.3785  1.7790  0.7494
42155SOL    HW233581   3.064   1.738   6.620  2.1378 -0.1036  1.0968
42156SOL     OW33582   4.728   4.370   6.546 -0.7861 -0.1453  0.2594
42156SOL    HW133583   4.646   4.386   6.593 -0.2054  2.3026  0.5592
42156SOL    HW233584   4.701   4.364   6.454 -1.4741 -1.0988  0.5060
42157SOL     OW33585   4.332   5.407   5.460 -0.2283  0.8468 -0.1816
42157SOL    HW133586   4.263   5.472   5.456 -0.9825  0.0653 -0.2056
42157SOL    HW233587   4.288   5.326   5.485  0.6937  0.3533 -0.0820
42158SOL     OW33588   8.211   6.006  10.305 -0.1273 -0.1940  0.0209
42158SOL    HW133589   8.300   6.008  10.271 -1.1848 -0.8949 -3.1683
42158SOL    HW233590   8.212   5.937  10.371  1.6479 -0.2563 -0.0341
42159SOL     OW33591   5.870   5.620   9.395 -0.1934  0.2952  0.0018
42159SOL    HW133592   5.908   5.534   9.377 -0.4034  0.4179 -1.0982
42159SOL    HW233593   5.789   5.622   9.344 -0.7957  0.7086  0.9429
42160SOL     OW33594   6.235  11.637   3.898  0.7633  0.1390  0.0667
42160SOL    HW133595   6.275  11.563   3.944  1.6612  1.0417  0.7865
42160SOL    HW233596   6.204  11.695   3.968 -3.0663 -1.0920 -0.3894
42161SOL     OW33597  10.431  10.353   9.507  0.0276 -0.2353  0.1512
42161SOL    HW133598  10.345  10.367   9.468 -0.2695  1.0593  1.2048
42161SOL    HW233599  10.489  10.415   9.460  0.1168 -0.2094  0.2955
42162SOL     OW33600   2.791   0.668   1.162  0.6149  0.3934  0.1983
42162SOL    HW133601   2.723   0.614   1.203  1.2119  0.5973  1.5226
42162SOL    HW233602   2.874   0.633   1.197  1.2426 -0.1138 -1.6883
42163SOL     OW33603   1.918   7.389   2.485 -0.7921  0.1137 -0.2351
42163SOL    HW133604   2.012   7.396   2.500 -0.9211  1.6136 -0.0030
42163SOL    HW233605   1.881   7.378   2.573 -0.9554  1.3670 -0.1260
42164SOL     OW33606  11.584   2.182  10.472  0.1018 -0.0651 -0.3244
42164SOL    HW133607  11.536   2.099  10.473  0.2024 -0.1530  1.7012
42164SOL    HW233608  11.538   2.235  10.407 -1.1849 -1.0191 -0.2428
42165SOL     OW33609  12.063   7.318  11.317  0.1246 -0.5349  0.0422
42165SOL    HW133610  12.067   7.264  11.238  0.7771 -0.3308 -0.0692
42165SOL    HW233611  12.094   7.260  11.387 -3.0012 -1.6230  0.6857
42166SOL     OW33612   2.769   4.485  10.551  0.5360 -0.8196 -0.3531
42166SOL    HW133613   2.760   4.507  10.643  0.7179 -0.2353 -0.4696
42166SOL    HW233614   2.863   4.494  10.533  0.3919 -0.0941 -0.7914
42167SOL     OW33615   2.293   5.461   1.845  0.1699 -0.3907 -0.0717
42167SOL    HW133616   2.333   5.462   1.932  1.3201 -0.9061 -0.5640
42167SOL    HW233617   2.201   5.482   1.860  0.7913  1.7603  1.0182
42168SOL     OW33618   7.280   8.259   4.811  0.0152  0.4475  0.6649
42168SOL    HW133619   7.242   8.346   4.800 -2.1942 -0.3199  1.5677
42168SOL    HW233620   7.223   8.217   4.877  1.1632 -1.5833  0.4327
42169SOL     OW33621   3.599  12.451   0.555 -0.1346  0.4037 -0.4517
42169SOL    HW133622   3.553  12.369   0.569 -2.0200  0.9520 -2.6901
42169SOL    HW233623   3.670  12.428   0.494  0.3267  0.1715  0.1699
42170SOL     OW33624   2.477  11.444   1.727 -0.3024  0.0449 -0.0223
42170SOL    HW133625   2.519  11.479   1.806 -1.3661  0.3941  0.4165
42170SOL    HW233626   2.443  11.359   1.755  0.3444 -0.3637 -0.4549
42171SOL     OW33627   5.396  10.836   0.880  0.1150  0.1941 -0.1034
42171SOL    HW133628   5.314  10.865   0.839 -0.8834 -2.5417 -0.2466
42171SOL    HW233629   5.461  10.901   0.852 -1.9497  2.5203  0.0857
42172SOL     OW33630   9.269   9.059  10.298 -0.2973  0.0712 -0.0380
42172SOL    HW133631   9.175   9.067  10.282 -0.1120  2.0600 -0.4369
42172SOL    HW233632   9.280   8.972  10.335 -2.3367 -0.0788  0.3405
42173SOL     OW33633   2.301   3.623   0.126 -0.1649  0.5635  0.5145
42173SOL    HW133634   2.235   3.693   0.127  0.2097  0.9191  1.1402
42173SOL    HW233635   2.354   3.639   0.204  0.2167 -0.1493  0.4101
42174SOL     OW33636  12.580   0.291   9.465  0.2071  0.1354  0.1735
42174SOL    HW133637  12.562   0.247   9.381 -0.7531  0.8839 -0.0333
42174SOL    HW233638  12.538   0.377   9.456 -0.2319  0.0810  1.5752
42175SOL     OW33639   1.332   7.247   2.743  0.2687 -0.3483 -0.4408
42175SOL    HW133640   1.366   7.177   2.688  1.4831  0.3363 -0.5993
42175SOL    HW233641   1.402   7.264   2.806  0.6191  1.6748 -1.3089
42176SOL     OW33642   3.153  12.413   5.673  0.2253 -0.4752  0.0763
42176SOL    HW133643   3.091  12.485   5.665 -0.1230 -0.4424  2.4198
42176SOL    HW233644   3.239  12.453   5.660  0.0307  0.3862  1.3176
42177SOL     OW33645   4.588   3.717   5.078 -0.0310 -0.5551  0.2426
42177SOL    HW133646   4.597   3.788   5.142 -1.1832 -2.3861  2.5948
42177SOL    HW233647   4.597   3.637   5.130 -0.3311 -2.1686 -2.0455
42178SOL     OW33648   4.759   8.980   8.981  0.3586 -0.1941  0.3054
42178SOL    HW133649   4.784   8.937   8.899  0.8757 -0.2514  0.4866
42178SOL    HW233650   4.738   8.907   9.040 -1.0640 -0.1334 -0.0843
42179SOL     OW33651   0.191   0.726   2.449 -0.4718  0.1317  0.4515
42179SOL    HW133652   0.098   0.705   2.444 -0.9778  2.2358 -0.1870
42179SOL    HW233653   0.194   0.809   2.498  1.2710 -0.9510  2.3108
42180SOL     OW33654  11.323  11.326   7.342  0.4287  0.3202  0.2936
42180SOL    HW133655  11.304  11.376   7.262 -2.1849 -0.2361  0.4837
42180SOL    HW233656  11.417  11.312   7.339  1.0065  3.4727 -0.8107
42181SOL     OW33657   8.701   9.424   0.810 -0.5854 -0.2204  0.2440
42181SOL    HW133658   8.763   9.457   0.745 -1.0844 -0.4770 -0.3616
42181SOL    HW233659   8.745   9.349   0.850 -0.2334  0.0079  0.2931
42182SOL     OW33660  10.359  12.047   9.470 -0.2856 -0.0691 -0.3395
42182SOL    HW133661  10.431  12.105   9.498 -0.2001 -0.0459 -0.6059
42182SOL    HW233662  10.281  12.101   9.479 -0.2724 -0.1053 -0.0136
42183SOL     OW33663  10.018   9.717   1.441 -0.4428 -0.2218 -1.0549
42183SOL    HW133664  10.021   9.765   1.524 -0.8513 -0.9056 -0.6372
42183SOL    HW233665   9.937   9.746   1.399 -2.1169 -2.4067  0.3861
42184SOL     OW33666  11.402   8.757   7.329 -0.1686 -0.2786 -0.2653
42184SOL    HW133667  11.341   8.693   7.365 -0.2557  0.1944  0.4684
42184SOL    HW233668  11.429   8.809   7.405 -0.2753  0.6907 -0.8633
42185SOL     OW33669   8.037   9.175   5.908 -0.2914  0.1757 -0.4069
42185SOL    HW133670   8.067   9.134   5.989 -0.3121  2.0830  0.6036
42185SOL    HW233671   8.039   9.104   5.844  0.3995 -1.2133  1.0799
42186SOL     OW33672   0.306   6.202   3.150 -0.4124  0.3104  0.0294
42186SOL    HW133673   0.294   6.223   3.058 -0.4439  1.0650  0.2037
42186SOL    HW233674   0.239   6.136   3.168 -1.5744  1.4224 -0.0617
42187SOL     OW33675   7.201   1.560   6.907 -0.3196  1.0714  0.6010
42187SOL    HW133676   7.121   1.584   6.955 -0.1231  1.3905  0.7734
42187SOL    HW233677   7.260   1.528   6.975  0.0335  1.7134  0.6083
42188SOL     OW33678   3.089   0.802  12.260 -0.2469  0.2126 -0.0892
42188SOL    HW133679   3.042   0.870  12.307  0.5951  0.5855  0.2352
42188SOL    HW233680   3.144   0.761  12.326 -0.0351 -0.1441 -0.4790
42189SOL     OW33681   7.706   7.883   2.097 -0.8608 -0.4543 -0.1847
42189SOL    HW133682   7.731   7.866   2.006  0.2236  1.2880 -0.2596
42189SOL    HW233683   7.613   7.906   2.092 -0.4540  1.1728 -1.1157
42190SOL     OW33684   7.356  12.260   5.109 -0.3170  0.6659 -0.3857
42190SOL    HW133685   7.429  12.199   5.119 -0.1111  0.8023 -0.9806
42190SOL    HW233686   7.278  12.204   5.104 -0.1247  0.4441 -0.9764
42191SOL     OW33687   6.936   7.662  12.274 -0.1365  0.3570  0.2520
42191SOL    HW133688   6.864   7.598  12.280 -1.9692  2.3326  0.3339
42191SOL    HW233689   6.987   7.633  12.198 -0.5527 -1.5245  0.6395
42192SOL     OW33690   7.398   3.578  12.354  0.0037  0.0839  0.1631
42192SOL    HW133691   7.455   3.539  12.421  2.1133 -1.3501 -2.2546
42192SOL    HW233692   7.430   3.668  12.346  1.4479 -0.4578 -0.5670
42193SOL     OW33693   3.185   9.744   9.292  0.3308  0.4953 -0.2253
42193SOL    HW133694   3.142   9.768   9.375  0.0865 -0.6370 -0.0136
42193SOL    HW233695   3.151   9.808   9.229  0.0810  1.0180  0.4236
42194SOL     OW33696   3.446   6.270   1.960 -0.2918 -0.3940  0.5173
42194SOL    HW133697   3.453   6.220   2.041  1.1463 -0.0375  0.6377
42194SOL    HW233698   3.475   6.358   1.983  0.1878 -0.3053 -0.3878
42195SOL     OW33699   2.409   6.569  12.294  0.1777 -0.5018  0.0502
42195SOL    HW133700   2.314   6.581  12.296  0.1720  0.0182 -1.5684
42195SOL    HW233701   2.428   6.508  12.365 -1.2809 -0.1037  0.8142
42196SOL     OW33702  12.822   7.914  10.228  0.3155  0.0282 -0.2044
42196SOL    HW133703  12.916   7.926  10.222  0.4823 -0.9202  0.3887
42196SOL    HW233704  12.785   7.990  10.183  1.3267  1.4150  1.2228
42197SOL     OW33705   9.109   9.510   0.889 -0.2135  0.8224 -0.4368
42197SOL    HW133706   9.077   9.599   0.876 -0.4913  0.8642  0.4875
42197SOL    HW233707   9.183   9.519   0.950 -2.0659  0.1591  2.0476
42198SOL     OW33708  11.723   5.668   9.702 -0.5029  0.2578  0.1434
42198SOL    HW133709  11.736   5.702   9.791 -1.1126 -0.3157  0.4599
42198SOL    HW233710  11.746   5.576   9.709  0.9846  0.5446 -0.6702
42199SOL     OW33711   6.138   8.138   7.150  0.0866  0.4516  0.0055
42199SOL    HW133712   6.170   8.177   7.230 -1.0586 -0.4323  0.9460
42199SOL    HW233713   6.207   8.078   7.123  1.1614  1.8926 -0.5792
42200SOL     OW33714  12.561   5.038  10.496  0.0910  0.4297 -0.4411
42200SOL    HW133715  12.470   5.051  10.468 -0.1083  0.3187  0.1431
42200SOL    HW233716  12.556   4.971  10.564  0.9410 -1.6838 -2.3235
42201SOL     OW33717   7.775  12.849   0.654 -0.3301 -0.7408  0.2364
42201SOL    HW133718   7.722  12.906   0.599  0.2283 -1.8990 -1.5898
42201SOL    HW233719   7.714  12.818   0.722 -1.3253 -0.1151 -0.3419
42202SOL     OW33720   6.322  12.769   5.106 -0.0708 -0.5762 -0.2393
42202SOL    HW133721   6.386  12.735   5.043  1.3965 -0.7140  1.2570
42202SOL    HW233722   6.369  12.770   5.190 -1.1674  1.9393  0.4225
42203SOL     OW33723   6.241   0.898  11.147 -0.5986 -0.0632 -0.1523
42203SOL    HW133724   6.318   0.887  11.090 -0.4480  0.8884 -0.1462
42203SOL    HW233725   6.167   0.901  11.087 -0.5338 -0.0154 -0.2295
42204SOL     OW33726   5.548   8.821   5.709 -0.1461  0.1103 -0.1655
42204SOL    HW133727   5.543   8.775   5.625  1.2223  1.6228 -1.1499
42204SOL    HW233728   5.631   8.791   5.747  0.4368  1.2211 -0.5190
42205SOL     OW33729   0.857   8.511  10.904  0.1665 -0.0281 -0.7375
42205SOL    HW133730   0.812   8.533  10.985 -0.6297 -0.4825 -1.0454
42205SOL    HW233731   0.883   8.419  10.914  0.0768 -0.0823 -0.9858
42206SOL     OW33732   2.836   5.699   4.412 -0.6193  0.1864  0.0048
42206SOL    HW133733   2.756   5.726   4.457  0.9528 -0.0641  3.2514
42206SOL    HW233734   2.873   5.781   4.378 -0.9617  0.6861  0.8086
42207SOL     OW33735   9.031   8.387   4.303 -0.1874 -0.4952 -0.1753
42207SOL    HW133736   8.964   8.414   4.240 -1.0476 -1.8099  0.1327
42207SOL    HW233737   9.057   8.299   4.275 -0.1210 -0.8476  0.9225
42208SOL     OW33738   8.975   0.120   6.742  0.8661  0.0332 -0.2362
42208SOL    HW133739   8.975   0.215   6.755 -0.5326  0.0667 -0.3423
42208SOL    HW233740   8.988   0.109   6.648 -0.1466  0.1768 -0.4053
42209SOL     OW33741   4.490  11.139   2.350 -0.0460  0.9292  0.4545
42209SOL    HW133742   4.454  11.131   2.262 -1.7498 -0.3138  1.2001
42209SOL    HW233743   4.560  11.074   2.354 -1.2116 -0.3779  0.5503
42210SOL     OW33744   7.070   1.006   9.943  0.2108  0.4091 -0.2409
42210SOL    HW133745   7.111   0.920   9.956 -0.2842  0.2839  0.5142
42210SOL    HW233746   7.120   1.065   9.999 -1.1511  0.0929  1.4034
42211SOL     OW33747   9.575  12.799   5.288  0.4864  0.4271 -0.2042
42211SOL    HW133748   9.553  12.823   5.378 -0.0074  0.1875 -0.2563
42211SOL    HW233749   9.670  12.787   5.289  0.4488  0.1318  0.3595
42212SOL     OW33750  12.241   3.416   4.233  0.2482 -0.5152  0.0967
42212SOL    HW133751  12.147   3.429   4.222  0.1806  1.2354  2.0996
42212SOL    HW233752  12.277   3.419   4.144 -1.4514 -0.0800 -0.6010
42213SOL     OW33753   2.423   3.429   2.295 -0.1218  0.1186 -0.4105
42213SOL    HW133754   2.491   3.424   2.228 -0.6940 -1.7803 -0.9008
42213SOL    HW233755   2.404   3.338   2.318 -2.1451  0.6112  0.0678
42214SOL     OW33756  10.825   1.638   7.515 -0.2417 -0.3945  0.5201
42214SOL    HW133757  10.864   1.684   7.590  1.0334 -0.8665  0.1831
42214SOL    HW233758  10.733   1.665   7.515  0.2038  1.2317  1.0086
42215SOL     OW33759   3.676  10.240   7.791 -0.2529 -0.4250 -0.4022
42215SOL    HW133760   3.727  10.320   7.776 -0.6701  0.0209  0.4604
42215SOL    HW233761   3.642  10.217   7.704 -0.5612  0.6542 -0.5912
42216SOL     OW33762   3.707  11.138   1.316 -0.7381 -0.3135 -0.0411
42216SOL    HW133763   3.723  11.053   1.275 -0.9084 -0.5532  0.3808
42216SOL    HW233764   3.612  11.149   1.310 -1.0820 -1.4234  2.3312
42217SOL     OW33765   2.359   8.065   6.360 -0.4342  0.2690  0.0299
42217SOL    HW133766   2.297   8.124   6.319  0.4472  1.6270  0.5914
42217SOL    HW233767   2.307   8.015   6.423 -1.2484  0.1835 -0.6937
42218SOL     OW33768   3.757   7.168   9.757 -0.2646 -0.0132 -0.4680
42218SOL    HW133769   3.771   7.262   9.770  1.2863 -0.4212  1.2224
42218SOL    HW233770   3.733   7.161   9.664  0.7474  1.9463 -0.9571
42219SOL     OW33771   2.925   3.839  11.592 -0.9590  0.0330  0.0799
42219SOL    HW133772   2.899   3.852  11.501 -0.8752 -1.4160 -0.1838
42219SOL    HW233773   3.018   3.816  11.587 -1.2855 -1.4777  0.3600
42220SOL     OW33774  10.674   5.851  12.623  0.1376  0.2520 -0.0565
42220SOL    HW133775  10.739   5.888  12.682  1.8062 -1.5237 -0.6582
42220SOL    HW233776  10.615   5.802  12.680  1.2121 -0.7210  0.2509
42221SOL     OW33777   5.026   5.355   2.206 -0.8027 -0.2165 -0.0071
42221SOL    HW133778   5.072   5.313   2.134 -0.1512  1.1560 -0.4204
42221SOL    HW233779   4.985   5.283   2.254  1.1284 -1.4138 -0.0674
42222SOL     OW33780   1.027  10.597  10.597 -0.3224  0.5331 -0.3936
42222SOL    HW133781   1.112  10.600  10.642 -0.2913  0.9222 -0.4775
42222SOL    HW233782   0.965  10.634  10.659 -0.4717  0.0292 -0.2418
42223SOL     OW33783   5.587   9.978  10.299 -0.0285  0.1780  0.3379
42223SOL    HW133784   5.624   9.905  10.349  1.3051 -0.5359 -1.5602
42223SOL    HW233785   5.517   9.938  10.248  0.2423  0.3571 -0.1795
42224SOL     OW33786  12.287  12.344   0.268  0.0176  0.1822  0.3702
42224SOL    HW133787  12.328  12.420   0.308  1.0697  0.3857 -1.0236
42224SOL    HW233788  12.309  12.271   0.326 -0.8518  0.8819  1.6201
42225SOL     OW33789   7.936   9.799   7.809  0.9084 -0.1056  0.0585
42225SOL    HW133790   7.846   9.781   7.783  0.7057 -0.6330  1.0657
42225SOL    HW233791   7.955   9.885   7.772 -1.1967  1.6244  2.5945
42226SOL     OW33792   4.965  10.781  10.999  0.0107  0.3847 -0.2760
42226SOL    HW133793   4.893  10.797  11.060 -0.9460 -3.4387 -0.1652
42226SOL    HW233794   4.935  10.818  10.916 -1.4621  0.1178  0.1095
42227SOL     OW33795   3.609   9.913  10.100 -1.1068  0.5586  0.1027
42227SOL    HW133796   3.599   9.943  10.010 -0.8851  0.6517  0.1104
42227SOL    HW233797   3.534   9.855  10.114 -0.4066 -0.5590 -0.5865
42228SOL     OW33798   3.159   4.961  12.110  0.1716 -0.5008 -0.1950
42228SOL    HW133799   3.137   5.053  12.123  0.6796 -0.2866 -0.8246
42228SOL    HW233800   3.183   4.930  12.197 -0.9522 -0.3022  0.1993
42229SOL     OW33801   1.278   7.974   9.316  0.6137  0.5076 -0.6121
42229SOL    HW133802   1.207   8.013   9.265  0.0591 -0.4703 -0.6288
42229SOL    HW233803   1.319   8.047   9.361 -1.2102  0.9812  0.3815
42230SOL     OW33804   6.734   7.808   2.686 -0.0925  0.1197  0.1100
42230SOL    HW133805   6.642   7.782   2.692 -0.2744  0.5468 -0.7201
42230SOL    HW233806   6.731   7.903   2.673  0.5297  0.4248  1.9350
42231SOL     OW33807   4.034   1.474   1.459  0.1712  0.5136 -0.3082
42231SOL    HW133808   3.981   1.498   1.535 -1.1416 -1.5609 -0.4642
42231SOL    HW233809   4.124   1.470   1.491 -0.6235 -3.5127  2.1990
42232SOL     OW33810  12.704   7.641   4.296  0.1782  0.4947 -0.3837
42232SOL    HW133811  12.638   7.645   4.227  1.0381 -1.9972 -1.4453
42232SOL    HW233812  12.786   7.620   4.252  0.7598 -1.2080  1.3395
42233SOL     OW33813   6.206   2.974   7.007 -0.0303  0.2294  0.0457
42233SOL    HW133814   6.169   2.995   6.921 -0.3832  0.4494  0.2456
42233SOL    HW233815   6.157   3.030   7.068 -1.1485 -1.3179  0.6241
42234SOL     OW33816   9.421   8.030   3.194 -0.0955  0.0681 -0.3632
42234SOL    HW133817   9.348   7.975   3.223 -0.2052  0.6262  0.4597
42234SOL    HW233818   9.464   8.058   3.275 -1.1242  2.6408 -0.6040
42235SOL     OW33819   9.002  12.420   6.838  1.4649  0.4825  0.0935
42235SOL    HW133820   8.939  12.405   6.908  2.6223 -0.1299  1.0293
42235SOL    HW233821   9.056  12.493   6.868  1.3476  0.8720 -0.6090
42236SOL     OW33822   9.117   8.661   8.110  0.6532  0.1774  0.1133
42236SOL    HW133823   9.073   8.660   8.024  0.7981 -0.0237  0.0405
42236SOL    HW233824   9.188   8.723   8.099 -0.1116  1.1439  0.4869
42237SOL     OW33825   3.594  12.608  10.596 -0.2548 -0.5465  0.2794
42237SOL    HW133826   3.558  12.652  10.673 -1.1943  0.3017 -0.6173
42237SOL    HW233827   3.550  12.649  10.522  0.6061 -1.3659 -0.7209
42238SOL     OW33828   7.946   7.137   8.961  0.2704 -0.0591  0.2306
42238SOL    HW133829   8.037   7.148   8.988  0.3339  0.6743 -0.2536
42238SOL    HW233830   7.950   7.112   8.869 -0.0376  1.1720 -0.1349
42239SOL     OW33831   4.226   1.612  12.175  0.0142  0.1540  0.1261
42239SOL    HW133832   4.320   1.607  12.155  0.3752 -0.0275  1.6945
42239SOL    HW233833   4.193   1.681  12.118  0.9355 -0.3097 -1.0071
42240SOL     OW33834   0.491   2.366   7.970  0.2502  0.0562  0.2831
42240SOL    HW133835   0.560   2.394   8.030 -0.2399  0.2889  0.7464
42240SOL    HW233836   0.530   2.376   7.883  0.5134  0.9842  0.4987
42241SOL     OW33837   2.455  10.287   6.339 -0.1630  0.0498  0.7180
42241SOL    HW133838   2.370  10.290   6.384  0.1523  0.0120  1.3360
42241SOL    HW233839   2.499  10.211   6.378  0.2771  0.2593  0.6284
42242SOL     OW33840  11.853   9.100  11.420  1.2081  0.2028  0.5586
42242SOL    HW133841  11.898   9.184  11.405  3.2818 -0.7400  1.1252
42242SOL    HW233842  11.863   9.085  11.514  0.1246 -0.2896  0.5993
42243SOL     OW33843   8.040   4.864   3.841 -0.0473 -0.3369 -0.2445
42243SOL    HW133844   8.079   4.866   3.754  1.2846  0.6507  0.3468
42243SOL    HW233845   8.100   4.812   3.894 -0.4578 -0.3014  0.2727
42244SOL     OW33846   8.797   3.306   6.312 -0.1679 -0.4405  0.5106
42244SOL    HW133847   8.746   3.383   6.286 -1.3037 -1.6817 -1.1865
42244SOL    HW233848   8.811   3.259   6.230  2.6816 -0.8022  1.1220
42245SOL     OW33849   1.673   8.546   4.624  0.0557  0.6051  0.0386
42245SOL    HW133850   1.642   8.631   4.653 -0.4391  0.1336  0.9532
42245SOL    HW233851   1.594   8.495   4.608  0.3016 -0.4702  1.9570
42246SOL     OW33852   2.189   6.555   3.709 -0.0789 -0.0873 -0.4358
42246SOL    HW133853   2.161   6.592   3.793  0.7521 -1.1616  0.3353
42246SOL    HW233854   2.250   6.620   3.674 -0.2073  0.2333 -0.0788
42247SOL     OW33855   3.435   1.652   2.620  0.8411 -0.5005 -0.1455
42247SOL    HW133856   3.360   1.711   2.624  0.6090 -0.8476  1.8062
42247SOL    HW233857   3.427   1.598   2.699  3.2134 -0.4334  0.2132
42248SOL     OW33858   7.742   5.499   8.499  0.1632 -0.0082  0.1005
42248SOL    HW133859   7.766   5.407   8.487  2.7228  0.7512 -1.4483
42248SOL    HW233860   7.752   5.515   8.593 -0.0198 -1.2022  0.3381
42249SOL     OW33861  11.996   2.586  10.755  0.1693  0.2935 -0.2261
42249SOL    HW133862  12.041   2.639  10.690 -0.5111 -0.9936 -1.8043
42249SOL    HW233863  12.065   2.536  10.798  0.5288  0.3945 -0.6883
42250SOL     OW33864   9.511  12.597   2.511  0.0827 -0.1395  0.3343
42250SOL    HW133865   9.548  12.686   2.510 -0.0422 -0.0889 -0.0913
42250SOL    HW233866   9.432  12.604   2.564 -0.5281  0.2563 -0.6028
42251SOL     OW33867   0.127   1.333  12.097 -0.0614 -0.3247  0.2143
42251SOL    HW133868   0.134   1.374  12.183  1.3876 -0.9551  0.4226
42251SOL    HW233869   0.033   1.336  12.077 -0.3382  0.4468  1.4996
42252SOL     OW33870   7.064   5.969   5.301  0.1067 -0.0205 -0.2437
42252SOL    HW133871   6.999   5.995   5.235  0.4388 -0.5077 -0.7738
42252SOL    HW233872   7.012   5.939   5.375 -0.2917 -0.9784 -0.8882
42253SOL     OW33873  12.386  10.035   6.640  0.3352  0.5535 -0.2851
42253SOL    HW133874  12.326  10.035   6.714  0.0697  3.6315 -0.3552
42253SOL    HW233875  12.333  10.003   6.566 -0.0503 -0.3817  0.3772
42254SOL     OW33876   8.120  11.648   6.786 -0.0237  0.1152 -0.4520
42254SOL    HW133877   8.203  11.603   6.770 -0.1408 -0.1918 -0.1876
42254SOL    HW233878   8.057  11.604   6.728 -0.4326 -0.9506  0.7562
42255SOL     OW33879   6.836   0.167   0.673  0.7873  0.2139 -0.1456
42255SOL    HW133880   6.907   0.110   0.644 -0.7305 -1.4173 -0.8318
42255SOL    HW233881   6.772   0.163   0.603 -1.2486 -0.6747  1.6413
42256SOL     OW33882   3.182   1.479  10.389  0.1637  0.0986 -0.1791
42256SOL    HW133883   3.249   1.546  10.376  0.6475 -0.0595  1.2714
42256SOL    HW233884   3.231   1.396  10.384  0.0907 -0.0177  0.8694
42257SOL     OW33885   9.662   4.529   9.408  0.4055  0.4018 -0.1758
42257SOL    HW133886   9.671   4.574   9.324 -0.4945 -1.8999 -1.6045
42257SOL    HW233887   9.748   4.493   9.426  0.0929 -1.0731 -1.3835
42258SOL     OW33888   5.533   7.393   5.342 -0.5523  0.0193  0.2032
42258SOL    HW133889   5.612   7.347   5.312  0.1938  1.8912 -0.9296
42258SOL    HW233890   5.551   7.485   5.321 -2.8385  0.5558  0.4043
42259SOL     OW33891   0.941   3.593   3.725 -0.3170 -0.3388 -0.2674
42259SOL    HW133892   0.993   3.577   3.804 -0.6519 -3.8496 -0.5845
42259SOL    HW233893   0.996   3.563   3.653 -0.5085  1.6301 -1.3159
42260SOL     OW33894   1.266   3.591  12.116  0.0318  0.2717 -0.3026
42260SOL    HW133895   1.258   3.644  12.037  1.3377  1.9308  0.6183
42260SOL    HW233896   1.209   3.634  12.180  1.6304  1.0285  0.6587
42261SOL     OW33897   8.326   0.274  11.834  0.2334 -0.5876  0.3715
42261SOL    HW133898   8.245   0.226  11.818  0.5145 -1.8301  2.3241
42261SOL    HW233899   8.355   0.245  11.921  1.1373  2.1315  1.1059
42262SOL     OW33900   8.992   4.057  10.345  0.2632  0.3136 -0.2485
42262SOL    HW133901   8.978   3.962  10.349 -1.4829  0.5580  0.5875
42262SOL    HW233902   8.943   4.091  10.420  1.7226  1.8040  0.0801
42263SOL     OW33903   3.787  12.825   7.916 -0.3356  0.3537 -0.0771
42263SOL    HW133904   3.741  12.908   7.930 -0.0661  1.0987 -2.9076
42263SOL    HW233905   3.872  12.836   7.959 -0.5979  1.2373  0.2268
42264SOL     OW33906   7.856   5.766   5.331  0.7941 -0.0591 -0.1963
42264SOL    HW133907   7.950   5.783   5.330  0.7349  0.3799  0.7479
42264SOL    HW233908   7.834   5.759   5.424  0.2915 -2.4710 -0.4301
42265SOL     OW33909   1.473   6.036  10.977  0.2526  0.4378  0.8927
42265SOL    HW133910   1.465   5.983  10.898  1.6242  1.1702  0.2238
42265SOL    HW233911   1.425   6.116  10.957  2.5697  1.6438 -0.1904
42266SOL     OW33912  11.198   5.818   4.540 -0.1208 -0.6133 -0.0097
42266SOL    HW133913  11.199   5.840   4.447  2.7890 -0.0175  0.0484
42266SOL    HW233914  11.188   5.903   4.584 -0.1389 -0.7333  0.2166
42267SOL     OW33915   8.280   5.392   5.626 -0.1794 -0.0281 -0.1669
42267SOL    HW133916   8.241   5.369   5.711  0.2854  0.3231  0.1493
42267SOL    HW233917   8.344   5.322   5.610 -0.2311 -0.0671 -0.2034
42268SOL     OW33918   7.797   7.628   9.760 -0.1459 -0.1787 -0.0549
42268SOL    HW133919   7.804   7.587   9.674  0.0279  0.9750 -0.6030
42268SOL    HW233920   7.763   7.715   9.743 -0.3568 -0.0195  1.0811
42269SOL     OW33921  12.628   5.995   0.680 -0.1855 -0.6720  0.5952
42269SOL    HW133922  12.656   6.046   0.604 -0.0800  0.3714  1.2987
42269SOL    HW233923  12.658   5.906   0.663  1.2825 -0.1155  0.1520
42270SOL     OW33924  11.495   0.974  10.734  0.0069  0.2288 -0.2694
42270SOL    HW133925  11.498   0.890  10.779 -4.2951 -0.2520 -0.4989
42270SOL    HW233926  11.515   1.039  10.801 -1.6543 -0.7524  1.2591
42271SOL     OW33927   0.566  12.711  11.144 -0.3354 -0.3577 -0.1002
42271SOL    HW133928   0.621  12.674  11.213 -0.7565  1.0878  1.0413
42271SOL    HW233929   0.476  12.690  11.170 -0.4712 -0.4343 -0.6033
42272SOL     OW33930   3.133   4.302  11.120  0.4551  0.4366  0.0587
42272SOL    HW133931   3.053   4.249  11.131  0.1359  1.0396  0.7633
42272SOL    HW233932   3.103   4.381  11.075  0.9403  0.0182 -1.0262
42273SOL     OW33933   5.925   6.631   5.923  0.2413 -0.2060  0.4883
42273SOL    HW133934   5.844   6.626   5.974 -1.1008  0.0633 -1.5371
42273SOL    HW233935   5.988   6.581   5.975 -1.6784 -2.0176  1.2356
42274SOL     OW33936   4.327   6.820   1.755  0.8208  0.1402 -0.5958
42274SOL    HW133937   4.358   6.908   1.734 -0.8588  1.0106  0.3126
42274SOL    HW233938   4.284   6.830   1.840  1.4033 -1.7736 -0.0418
42275SOL     OW33939   7.217  10.639  11.478 -0.1988  0.1794 -0.1374
42275SOL    HW133940   7.186  10.709  11.536 -1.4600  0.1382 -0.7406
42275SOL    HW233941   7.300  10.672  11.444 -1.3589  1.9576 -1.3705
42276SOL     OW33942   0.606   6.321   4.735 -0.2316  0.1749  0.1686
42276SOL    HW133943   0.676   6.352   4.678  1.1667 -2.5025  0.2455
42276SOL    HW233944   0.627   6.357   4.821  0.7915 -0.2060  0.0879
42277SOL     OW33945   0.701   1.520   8.896  0.4159  0.3314  0.4084
42277SOL    HW133946   0.728   1.428   8.890  1.2942  0.6222 -0.2885
42277SOL    HW233947   0.782   1.569   8.909  0.3799  1.2522 -2.1302
42278SOL     OW33948   6.987   1.479  11.756  0.2204  0.8694  0.0273
42278SOL    HW133949   6.898   1.514  11.749  0.5140  1.5100 -0.7413
42278SOL    HW233950   7.043   1.555  11.737  0.8830 -0.0548 -1.9782
42279SOL     OW33951   5.917   5.246   7.082  0.0174  0.4257  0.0454
42279SOL    HW133952   5.877   5.191   7.015  1.4759 -1.9615  1.0028
42279SOL    HW233953   6.009   5.253   7.054  0.3928  0.3060  1.2128
42280SOL     OW33954   6.522   6.727   2.322  0.5235  0.5877 -0.5625
42280SOL    HW133955   6.559   6.800   2.371  1.1640  0.2116 -0.4696
42280SOL    HW233956   6.459   6.687   2.383  0.4748  0.8162 -0.4647
42281SOL     OW33957   2.280   9.032   9.055  0.3460  0.4250 -0.1581
42281SOL    HW133958   2.265   9.027   8.961 -0.5373  0.4052 -0.0290
42281SOL    HW233959   2.365   9.075   9.064  1.0368 -0.7212 -0.9829
42282SOL     OW33960   0.522   8.689   1.841  0.2270  0.2943 -0.7091
42282SOL    HW133961   0.580   8.681   1.765 -0.2713  0.7764 -1.1475
42282SOL    HW233962   0.568   8.642   1.911  0.3935 -0.7285 -1.4754
42283SOL     OW33963   2.979  12.858   1.051  0.2954 -0.3229 -0.4723
42283SOL    HW133964   2.908  12.921   1.036 -0.1131 -0.2468  1.5386
42283SOL    HW233965   3.029  12.894   1.123  1.1561 -1.4100 -0.4955
42284SOL     OW33966   4.014   9.808   0.405 -0.1383  0.0487 -0.1888
42284SOL    HW133967   3.926   9.772   0.398  0.5991 -1.6434 -1.3680
42284SOL    HW233968   4.053   9.793   0.319  0.9917  1.6983 -0.0231
42285SOL     OW33969   3.096   3.562   4.309  0.0226  0.2453 -0.2004
42285SOL    HW133970   3.053   3.552   4.224  0.8224  2.9701 -1.0479
42285SOL    HW233971   3.056   3.495   4.364 -3.0392  0.5932 -1.7607
42286SOL     OW33972   2.688   1.442   3.419  0.6045 -0.3563 -0.5054
42286SOL    HW133973   2.750   1.379   3.456  1.7357  0.4762 -0.9024
42286SOL    HW233974   2.740   1.490   3.355  0.3254  2.2130  1.0590
42287SOL     OW33975   1.033   5.998   5.368  0.2916 -0.4679  0.4141
42287SOL    HW133976   1.008   5.933   5.434 -1.1857  0.2946  0.6419
42287SOL    HW233977   0.987   5.971   5.289  1.0433 -0.6496  0.0269
42288SOL     OW33978   7.153   3.287   9.956  0.2171  0.4502  0.2547
42288SOL    HW133979   7.136   3.304   9.864 -1.0718 -0.1527  0.3613
42288SOL    HW233980   7.157   3.191   9.962  1.2484  0.5067  0.6754
42289SOL     OW33981   9.431   6.015   1.669 -0.8399  0.0480 -0.2797
42289SOL    HW133982   9.453   6.054   1.584 -0.9886 -0.5175 -0.5779
42289SOL    HW233983   9.362   5.953   1.650 -0.5593 -0.4164  0.1890
42290SOL     OW33984  12.419   4.957   4.364  0.0561 -0.1680 -0.0730
42290SOL    HW133985  12.329   4.976   4.339 -0.1142 -3.2747 -2.3412
42290SOL    HW233986  12.473   4.996   4.295  0.5619  1.7448  1.3105
42291SOL     OW33987  12.625   5.476  10.694  0.4234  0.4322  0.1614
42291SOL    HW133988  12.617   5.500  10.786 -0.2873 -0.5547  0.3768
42291SOL    HW233989  12.689   5.537  10.658  1.0323  0.5518  1.4131
42292SOL     OW33990  12.874  11.531   7.684  0.2432 -0.7455  0.2041
42292SOL    HW133991  12.874  11.488   7.598  0.3068  0.3250 -0.3546
42292SOL    HW233992  12.783  11.557   7.698  0.4740  0.3927 -0.2505
42293SOL     OW33993   6.945   1.573   4.727 -0.3944  0.1487  0.1284
42293SOL    HW133994   6.922   1.481   4.718 -1.4764  0.3024  1.0563
42293SOL    HW233995   6.881   1.620   4.674 -0.7150  0.4301  0.7420
42294SOL     OW33996   2.839  11.330  12.945 -0.3649  0.4257  0.6704
42294SOL    HW133997   2.801  11.251  12.984  1.3134 -0.2484  1.0357
42294SOL    HW233998   2.797  11.402  12.991 -0.9909 -0.2900  1.2485
42295SOL     OW33999   5.306  10.731   2.611  0.2969 -0.1595 -0.1516
42295SOL    HW134000   5.243  10.706   2.679  0.6646  1.8027  0.9889
42295SOL    HW234001   5.371  10.784   2.657  1.8945 -0.7602 -1.6228
42296SOL     OW34002  10.157   8.596   0.287  0.4035 -0.2732 -0.1548
42296SOL    HW134003  10.124   8.625   0.372 -0.8666  0.7836 -0.9580
42296SOL    HW234004  10.084   8.612   0.227  0.6814 -2.5398 -1.1793
42297SOL     OW34005  11.490  10.569  12.406 -0.3783  0.3314 -0.2713
42297SOL    HW134006  11.540  10.487  12.403 -2.0364 -0.7520  0.2192
42297SOL    HW234007  11.432  10.564  12.330 -1.0562  0.6711  0.2186
42298SOL     OW34008  10.311   7.577   6.975  0.3522 -0.6692 -0.9122
42298SOL    HW134009  10.372   7.630   7.025  1.9030 -0.6182 -2.7499
42298SOL    HW234010  10.233   7.631   6.966  1.0179  0.3346 -0.7511
42299SOL     OW34011   6.008  11.645   7.412 -0.4488 -0.9315 -0.1114
42299SOL    HW134012   6.057  11.563   7.411 -1.1658 -1.5417  2.8737
42299SOL    HW234013   6.074  11.712   7.429 -0.1063 -1.1616 -0.5371
42300SOL     OW34014   1.449   4.850   5.109  0.2823 -0.2934  0.2031
42300SOL    HW134015   1.450   4.778   5.171 -0.7458  0.1600  0.7670
42300SOL    HW234016   1.359   4.883   5.112  0.3174 -0.0075 -1.2322
42301SOL     OW34017  11.557   3.961   7.048 -0.0033 -0.6561 -0.3607
42301SOL    HW134018  11.574   3.924   7.135 -0.4481  0.8233  0.3788
42301SOL    HW234019  11.630   4.021   7.033 -0.1324 -0.6168 -0.8559
42302SOL     OW34020  10.478   8.446  10.437 -0.0056  0.0833  1.0148
42302SOL    HW134021  10.555   8.502  10.442  0.0170  0.5821 -2.4168
42302SOL    HW234022  10.509   8.367  10.392 -1.4021  0.2276 -0.2839
42303SOL     OW34023  11.395   5.213   9.185 -0.2545  0.1165  0.2286
42303SOL    HW134024  11.452   5.286   9.209  2.1409 -0.7388 -2.3256
42303SOL    HW234025  11.327   5.253   9.131  0.4477  0.6214 -0.3041
42304SOL     OW34026   8.239  10.808   9.832  0.0580  0.1544  0.4966
42304SOL    HW134027   8.287  10.764   9.762  0.4184  0.6637  0.4239
42304SOL    HW234028   8.307  10.838   9.892 -0.2253  0.1091  0.8415
42305SOL     OW34029   4.078   9.574  12.257 -0.1000  0.2046  1.0818
42305SOL    HW134030   4.078   9.660  12.215 -1.9226 -0.2262  0.1102
42305SOL    HW234031   4.170   9.559  12.279  1.6144 -0.4306 -4.7394
42306SOL     OW34032   4.058  11.572   0.875 -0.0920  0.2148  0.3402
42306SOL    HW134033   3.970  11.610   0.882 -0.1935 -0.3215  3.4235
42306SOL    HW234034   4.116  11.641   0.907  0.3873 -0.1110  0.1728
42307SOL     OW34035  12.227   0.752   2.533  0.1812 -0.0383 -0.5480
42307SOL    HW134036  12.282   0.676   2.516  1.0010  0.7020 -1.2983
42307SOL    HW234037  12.218   0.795   2.448  0.5843  1.2615  0.0428
42308SOL     OW34038   9.203   6.248   8.093  0.5142  0.3135  0.2475
42308SOL    HW134039   9.163   6.329   8.125  0.2240  1.7763 -3.2953
42308SOL    HW234040   9.128   6.190   8.075  0.3116  0.9903 -1.2743
42309SOL     OW34041   5.884   1.256   1.902 -0.2915  0.1735  0.3440
42309SOL    HW134042   5.843   1.207   1.973 -0.7832  0.5071  0.2966
42309SOL    HW234043   5.954   1.305   1.944  0.5479 -0.9557  0.3081
42310SOL     OW34044   8.534   1.729  12.218 -0.0495  0.4083  0.1878
42310SOL    HW134045   8.591   1.655  12.202 -0.1151  0.2088  0.8337
42310SOL    HW234046   8.584   1.786  12.277 -0.3824  0.3830  0.5067
42311SOL     OW34047  12.367   3.952   0.900  0.0119 -0.9092 -0.2005
42311SOL    HW134048  12.295   4.013   0.917 -0.6822 -1.6629 -0.4192
42311SOL    HW234049  12.336   3.868   0.933  0.4648 -1.4175 -1.0406
42312SOL     OW34050   0.772   8.907  11.591 -0.8394 -0.5127  0.3585
42312SOL    HW134051   0.843   8.934  11.533 -1.1585  0.9370  0.6054
42312SOL    HW234052   0.777   8.811  11.592  1.8921 -0.4738  1.3146
42313SOL     OW34053   3.174   3.310  12.909  0.4449  0.2380  0.5805
42313SOL    HW134054   3.118   3.357  12.848 -3.5030 -3.8872  0.5154
42313SOL    HW234055   3.241   3.269  12.853  0.4111  1.0982 -0.1056
42314SOL     OW34056   6.220   1.037   9.530 -0.5690 -0.2198  0.2975
42314SOL    HW134057   6.173   0.966   9.486  1.0745  0.2298 -2.4860
42314SOL    HW234058   6.215   1.111   9.468  0.7155  0.9412  1.4961
42315SOL     OW34059   6.337  12.072   1.385 -0.6826  0.4259  0.3985
42315SOL    HW134060   6.412  12.014   1.391  1.2403  2.5558 -1.1679
42315SOL    HW234061   6.344  12.130   1.461 -1.3563 -0.0089  0.8012
42316SOL     OW34062  10.580   1.315  10.280  0.1438  0.5055 -0.3956
42316SOL    HW134063  10.668   1.291  10.253  0.8672  0.7812  1.5340
42316SOL    HW234064  10.591   1.356  10.366 -2.0555 -1.7898  1.1525
42317SOL     OW34065   4.328   5.967   1.624  0.4559 -0.0773  0.2408
42317SOL    HW134066   4.331   6.017   1.543  0.0914 -0.8732 -0.2766
42317SOL    HW234067   4.390   5.896   1.611 -0.2024 -0.6816  0.3294
42318SOL     OW34068   6.971   1.687   9.191  0.5177  0.3013 -0.2205
42318SOL    HW134069   7.061   1.697   9.161  0.7084 -2.1139 -0.5945
42318SOL    HW234070   6.977   1.691   9.287  0.7659  1.6373 -0.2630
42319SOL     OW34071   3.258   9.240   7.756  0.1821  0.3991  0.2412
42319SOL    HW134072   3.258   9.336   7.759 -2.5388  0.4588  1.2427
42319SOL    HW234073   3.193   9.218   7.689  0.0356 -0.7347  0.7305
42320SOL     OW34074   3.730   8.273  11.848  0.5980 -0.5312  0.5526
42320SOL    HW134075   3.704   8.193  11.802  0.7737  0.1377 -0.7778
42320SOL    HW234076   3.793   8.244  11.914  2.2707 -1.2956 -1.2708
42321SOL     OW34077   7.642   7.078   8.632 -0.0391  0.5364 -0.0742
42321SOL    HW134078   7.591   7.158   8.646 -1.9517 -0.7526  0.8518
42321SOL    HW234079   7.633   7.030   8.714  2.4663  0.0636 -0.0034
42322SOL     OW34080   7.611   2.497   0.040 -0.0286  0.0677 -0.0749
42322SOL    HW134081   7.555   2.513  -0.036 -1.1735 -0.8851  0.5280
42322SOL    HW234082   7.693   2.542   0.020 -0.0146 -0.7890 -2.2158
42323SOL     OW34083   8.049   9.457   9.802 -0.1022  0.0997  0.0699
42323SOL    HW134084   8.002   9.502   9.732  0.6188  1.1080  0.2105
42323SOL    HW234085   8.054   9.366   9.773 -0.1139  0.4360 -1.0296
42324SOL     OW34086   9.080   0.968   3.330 -0.1236 -0.2507  0.0246
42324SOL    HW134087   8.994   0.995   3.361 -0.8631  0.7710 -2.5958
42324SOL    HW234088   9.141   1.028   3.372 -1.1376  1.5559 -0.9511
42325SOL     OW34089   1.488   0.380   5.859  0.1950 -0.2257 -0.1659
42325SOL    HW134090   1.549   0.452   5.873 -1.5521  1.1299  0.8572
42325SOL    HW234091   1.468   0.384   5.765  0.1574  0.5790 -0.1279
42326SOL     OW34092   5.560   8.817   5.032  0.3478 -0.1400  0.3702
42326SOL    HW134093   5.639   8.779   5.070 -0.7040 -2.1317  0.7385
42326SOL    HW234094   5.572   8.811   4.938  1.6980  2.0247  0.3475
42327SOL     OW34095   5.550  10.911  12.722  0.2665  0.0163  0.7473
42327SOL    HW134096   5.607  10.837  12.742 -1.0457 -0.9138  1.1527
42327SOL    HW234097   5.541  10.909  12.626 -0.5478 -0.9704  0.8326
42328SOL     OW34098  10.039   2.845   8.066 -0.5784 -0.4800 -0.4932
42328SOL    HW134099   9.956   2.824   8.024 -0.4504  0.2971 -1.1598
42328SOL    HW234100  10.016   2.861   8.158 -0.9885 -1.3421 -0.4417
42329SOL     OW34101   9.970   6.873   6.056 -0.3328 -0.3396  0.0990
42329SOL    HW134102  10.014   6.923   5.987 -0.4399  0.8062  0.8248
42329SOL    HW234103  10.008   6.785   6.051  2.2545  0.6454  0.8283
42330SOL     OW34104   4.469   8.710   1.166 -0.3758 -0.5696  0.3734
42330SOL    HW134105   4.401   8.649   1.196  0.1764 -0.5077  1.8255
42330SOL    HW234106   4.544   8.691   1.222  1.2798 -1.5340 -2.0279
42331SOL     OW34107   1.384   3.899   5.324 -0.1386  0.3719  0.2814
42331SOL    HW134108   1.325   3.974   5.335 -0.5917  0.0932 -0.1896
42331SOL    HW234109   1.331   3.823   5.347 -0.1229  0.0767 -0.6162
42332SOL     OW34110   5.773   2.904   6.540  0.0316  0.7480 -0.3607
42332SOL    HW134111   5.788   2.998   6.532  0.7607  0.6641 -0.0327
42332SOL    HW234112   5.792   2.884   6.631 -0.7581  0.3867 -0.2666
42333SOL     OW34113   9.188   8.996   4.783 -0.3825  0.3388 -0.4341
42333SOL    HW134114   9.256   8.930   4.776 -1.5038 -0.9332  0.1276
42333SOL    HW234115   9.224   9.074   4.741 -0.2332 -1.5815 -4.2177
42334SOL     OW34116   0.277  12.564  10.678 -0.0725 -0.4287  0.5807
42334SOL    HW134117   0.186  12.542  10.657 -0.1760 -0.4512  1.0461
42334SOL    HW234118   0.287  12.655  10.651 -0.7416  0.1197  2.1347
42335SOL     OW34119  11.922   4.758   5.103 -0.7675 -0.3269 -0.0564
42335SOL    HW134120  11.907   4.788   5.192 -1.2459  1.7190 -0.7539
42335SOL    HW234121  12.002   4.804   5.076 -0.0454 -1.7111 -0.3643
42336SOL     OW34122   2.659   9.853   4.385 -0.3822 -0.0607 -0.3819
42336SOL    HW134123   2.648   9.945   4.365  1.3056  0.9742  2.7194
42336SOL    HW234124   2.573   9.824   4.415 -0.3421  1.3178  1.1784
42337SOL     OW34125   5.454   5.150   8.822 -0.0226  0.0258  0.5358
42337SOL    HW134126   5.488   5.065   8.848  1.4983  1.0063  1.9119
42337SOL    HW234127   5.532   5.205   8.809 -0.9193  0.9851 -1.2243
42338SOL     OW34128   0.358   2.456   9.845 -0.4188 -0.2850  0.1218
42338SOL    HW134129   0.445   2.465   9.882 -0.4794 -1.1171  0.4892
42338SOL    HW234130   0.373   2.451   9.750 -0.1944  0.9323  0.0732
42339SOL     OW34131   4.244   5.988  11.048  0.2301 -0.2442 -0.1914
42339SOL    HW134132   4.247   5.933  11.126 -2.4104  1.2685  1.1294
42339SOL    HW234133   4.168   5.957  10.999 -1.3679  2.0907  0.6192
42340SOL     OW34134   5.284   9.832   1.726 -0.2105 -0.0045 -0.1748
42340SOL    HW134135   5.198   9.858   1.693 -0.1225  0.8113  0.2127
42340SOL    HW234136   5.346   9.864   1.660 -0.2243 -1.0351 -0.7067
42341SOL     OW34137  11.776  11.119   6.474 -0.2386 -0.5515 -0.5341
42341SOL    HW134138  11.844  11.127   6.541 -0.6542 -2.0958  0.1182
42341SOL    HW234139  11.790  11.032   6.436 -1.4972 -0.6690 -0.7770
42342SOL     OW34140   9.399  12.859   6.446 -0.4391  0.1924  0.1699
42342SOL    HW134141   9.383  12.795   6.378  1.0498 -0.7216  0.6302
42342SOL    HW234142   9.364  12.820   6.526  0.2335  0.0576  0.4054
42343SOL     OW34143   3.324   6.142  11.025  0.1118 -0.5562  0.2796
42343SOL    HW134144   3.240   6.096  11.018  0.7068 -1.5724 -0.3128
42343SOL    HW234145   3.335   6.158  11.118 -0.7435 -0.3843  0.3634
42344SOL     OW34146   9.468   6.321   8.151  0.5116  0.0455  0.0399
42344SOL    HW134147   9.443   6.405   8.189  1.1033 -0.0963  0.7454
42344SOL    HW234148   9.386   6.272   8.149  0.3896  0.2025  0.7609
42345SOL     OW34149   5.199  12.745   2.159 -0.5157 -0.2568  0.1648
42345SOL    HW134150   5.212  12.659   2.118 -0.2220  0.2328 -0.7985
42345SOL    HW234151   5.264  12.801   2.117 -1.5044  0.7206 -0.0698
42346SOL     OW34152   2.190  11.298   5.447 -0.3531  0.7735  0.4117
42346SOL    HW134153   2.154  11.377   5.407 -1.4279  0.0323 -0.1070
42346SOL    HW234154   2.234  11.252   5.375  2.1839  1.9078  1.1171
42347SOL     OW34155  11.154   2.808   5.670  1.2068  0.2435  0.0822
42347SOL    HW134156  11.181   2.759   5.747  1.0323 -0.6315 -0.3927
42347SOL    HW234157  11.207   2.772   5.599 -0.7441 -1.1618 -0.7724
42348SOL     OW34158   4.023  10.551   5.979 -0.3613 -0.0367  0.0796
42348SOL    HW134159   3.973  10.524   5.902  0.0807 -0.9151  0.0951
42348SOL    HW234160   4.103  10.589   5.944 -0.5230  0.3215  0.0901
42349SOL     OW34161   6.498  10.002   7.495  0.2911 -0.5749 -0.9521
42349SOL    HW134162   6.425   9.992   7.434 -0.6977  2.8112 -0.5164
42349SOL    HW234163   6.459  10.042   7.573  2.1231 -1.5916  0.5768
42350SOL     OW34164   1.981   7.616  11.553 -0.5025  0.1082 -0.7152
42350SOL    HW134165   1.996   7.660  11.637  1.6550  0.7782 -1.3845
42350SOL    HW234166   1.922   7.675  11.505 -1.2645  0.0150  0.0740
42351SOL     OW34167  11.721   4.211   7.070 -0.1530  0.0473  0.0424
42351SOL    HW134168  11.762   4.294   7.091  0.9315 -0.3829 -0.2982
42351SOL    HW234169  11.667   4.229   6.993  0.1289  0.4246 -0.0670
42352SOL     OW34170   5.163   5.074  11.821  0.2667 -0.0470  0.1388
42352SOL    HW134171   5.071   5.097  11.831  0.7923  3.3385 -1.5354
42352SOL    HW234172   5.162   4.985  11.785 -2.3611  0.1358 -0.4098
42353SOL     OW34173   2.707   1.968   2.431 -0.2594  0.5115 -0.5586
42353SOL    HW134174   2.726   1.934   2.519  0.9423  0.9068 -0.6423
42353SOL    HW234175   2.677   1.891   2.382 -1.7195  0.4406  0.3874
42354SOL     OW34176   2.777   2.405  11.258 -0.0517 -0.0912  0.4003
42354SOL    HW134177   2.681   2.412  11.254 -0.0275  0.7423  0.8916
42354SOL    HW234178   2.807   2.445  11.176 -0.1689 -2.3340 -0.7929
42355SOL     OW34179   6.950   8.617   9.698 -0.4006  0.5183  0.3992
42355SOL    HW134180   7.012   8.682   9.665 -0.9602  0.5420 -0.6652
42355SOL    HW234181   6.942   8.554   9.626  0.4913 -1.0091  1.5814
42356SOL     OW34182   0.819   6.608   9.668  0.0542 -0.2082  0.0521
42356SOL    HW134183   0.815   6.643   9.757 -1.2233 -1.4985  0.5294
42356SOL    HW234184   0.913   6.601   9.650  0.3318  0.8386  0.9754
42357SOL     OW34185   5.085   0.764   7.020  0.2327  0.8930 -0.1630
42357SOL    HW134186   5.160   0.709   6.996  1.6708  2.2715  0.9990
42357SOL    HW234187   5.028   0.762   6.943  0.7608 -1.2706 -0.5817
42358SOL     OW34188   6.460   9.895   4.802  0.0604 -0.1048 -0.1601
42358SOL    HW134189   6.494   9.842   4.730 -0.2812  0.1156 -0.4881
42358SOL    HW234190   6.414   9.833   4.858  1.8360 -0.5762  0.8257
42359SOL     OW34191  11.840  12.930   2.495  0.6621  0.2416 -0.0046
42359SOL    HW134192  11.812  12.894   2.411 -0.0427  1.2059 -0.2002
42359SOL    HW234193  11.759  12.959   2.537  1.1437  1.0486  0.3899
42360SOL     OW34194   3.017   1.324   9.506  0.0167 -0.5232 -0.0729
42360SOL    HW134195   2.953   1.335   9.576 -2.5147 -0.0345 -2.3272
42360SOL    HW234196   2.976   1.362   9.429  2.3793 -1.6451 -2.0290
42361SOL     OW34197   3.830   8.454  12.081  0.2580  0.0115  0.1373
42361SOL    HW134198   3.882   8.500  12.015  1.0991 -0.3269  0.5368
42361SOL    HW234199   3.886   8.453  12.159 -0.0433 -1.0139  0.3610
42362SOL     OW34200   4.059   0.983  10.025  0.7353 -0.3238 -0.6517
42362SOL    HW134201   4.091   1.065   9.988  1.4324  0.7153  2.0609
42362SOL    HW234202   4.046   1.001  10.118  0.6558 -3.2176  0.0088
42363SOL     OW34203   1.069   1.340   5.808 -0.4286  0.5239  0.4507
42363SOL    HW134204   1.155   1.312   5.837 -0.4825 -0.2973 -0.1643
42363SOL    HW234205   1.032   1.386   5.884  0.3252  0.4035  0.8972
42364SOL     OW34206   9.622  11.850   5.198 -0.1828  0.2179  0.1076
42364SOL    HW134207   9.633  11.758   5.172 -1.3997 -0.0294  0.3984
42364SOL    HW234208   9.698  11.868   5.254 -0.4851 -0.9619  0.9445
42365SOL     OW34209   5.224   7.133   6.667  0.0544  0.0230  0.0523
42365SOL    HW134210   5.202   7.151   6.758  1.0963 -1.4226  0.6446
42365SOL    HW234211   5.300   7.187   6.649  0.7110 -0.7223  0.5192
42366SOL     OW34212   7.946   4.168   9.964 -0.1865  0.1081  0.0043
42366SOL    HW134213   7.970   4.227   9.893  1.4611  0.7263  1.0043
42366SOL    HW234214   7.969   4.216  10.044 -0.0241 -1.3705  0.8918
42367SOL     OW34215   6.091   6.520   4.050  0.3186  0.4191  0.1632
42367SOL    HW134216   6.119   6.534   3.959 -0.3486  0.6980 -0.0043
42367SOL    HW234217   6.006   6.564   4.056  0.6341  0.9301  1.0926
42368SOL     OW34218  11.179   3.690   3.110  0.5670 -0.0571  0.2496
42368SOL    HW134219  11.097   3.673   3.155  0.7595  0.5703  0.8551
42368SOL    HW234220  11.158   3.755   3.043  0.8519  1.3552  1.4671
42369SOL     OW34221   9.195   6.314   3.666  0.0473 -0.1974 -0.2922
42369SOL    HW134222   9.243   6.367   3.730  0.1305  0.0408 -0.5487
42369SOL    HW234223   9.255   6.242   3.646  1.0014  0.9463 -1.8062
42370SOL     OW34224   1.844   5.185  10.184  0.0314  0.0756 -0.2703
42370SOL    HW134225   1.848   5.201  10.278 -0.0029 -2.0103  0.1456
42370SOL    HW234226   1.750   5.184  10.163  0.0603  1.3103 -0.4947
42371SOL     OW34227   8.377  10.970   3.748 -0.7175 -0.0654 -0.4639
42371SOL    HW134228   8.310  10.908   3.721 -0.1990 -1.7509  1.7907
42371SOL    HW234229   8.333  11.055   3.747 -2.1562 -0.7856 -1.3131
42372SOL     OW34230   5.799   9.897   2.706  0.1826  0.1206  0.3124
42372SOL    HW134231   5.720   9.946   2.729 -0.0006  0.7796 -1.5508
42372SOL    HW234232   5.855   9.903   2.783 -1.1169  0.6169  1.2475
42373SOL     OW34233   0.348   9.319   1.179 -0.0593 -0.2059  0.1019
42373SOL    HW134234   0.403   9.247   1.209 -1.6772 -1.0308  1.2363
42373SOL    HW234235   0.371   9.330   1.086 -0.3374 -2.7543 -0.3322
42374SOL     OW34236   9.191   9.017   5.450 -0.5892 -0.1453 -1.0097
42374SOL    HW134237   9.188   9.074   5.527  0.1020  0.0260 -1.0995
42374SOL    HW234238   9.245   9.065   5.387 -0.2394 -0.7737 -1.1913
42375SOL     OW34239   1.354   6.538   3.118  0.6249  0.0972  0.0160
42375SOL    HW134240   1.278   6.492   3.153  0.0629  0.6111 -0.5148
42375SOL    HW234241   1.318   6.606   3.061  1.4295  1.2500  0.8205
42376SOL     OW34242   7.794   4.504   7.378 -0.1741 -0.0523 -0.5979
42376SOL    HW134243   7.755   4.446   7.311  0.3504 -1.2495  0.0996
42376SOL    HW234244   7.820   4.582   7.329 -0.2993 -0.6737 -1.7046
42377SOL     OW34245   0.581   3.396   8.646 -0.2251  0.1655  0.6110
42377SOL    HW134246   0.653   3.457   8.629 -0.5357  0.2126 -0.5697
42377SOL    HW234247   0.506   3.434   8.601 -1.1135  0.3082  2.1262
42378SOL     OW34248   3.874  10.230   6.056  0.2074  0.4195 -0.5542
42378SOL    HW134249   3.849  10.138   6.048  0.3885  0.2863  0.3238
42378SOL    HW234250   3.812  10.276   6.000 -1.7676  0.0596  1.2235
42379SOL     OW34251  11.049   6.621   4.587  0.0505 -0.0360  0.2391
42379SOL    HW134252  11.093   6.625   4.672  0.3682  0.6999  0.0461
42379SOL    HW234253  11.116   6.644   4.523 -0.7230  1.6548 -0.0199
42380SOL     OW34254   6.113   0.727   6.097  0.1734  0.0732 -1.0480
42380SOL    HW134255   6.128   0.820   6.113  3.3751 -0.3064 -1.1614
42380SOL    HW234256   6.106   0.689   6.185  4.0113 -0.1439 -0.6592
42381SOL     OW34257   7.259   6.049   4.990  0.1007 -0.6397 -0.2657
42381SOL    HW134258   7.213   6.127   5.022  0.3340 -0.3346 -0.6669
42381SOL    HW234259   7.337   6.043   5.046 -0.2071 -0.9204  0.1431
42382SOL     OW34260   9.329  11.715   4.293 -0.2193 -0.3152 -0.2586
42382SOL    HW134261   9.260  11.707   4.228 -0.7580  0.1162  0.2529
42382SOL    HW234262   9.285  11.702   4.377 -0.2531  2.5835  0.2989
42383SOL     OW34263   5.690   7.065   2.647  1.3426 -0.3791  0.1586
42383SOL    HW134264   5.733   7.143   2.613  0.1292  0.1398 -0.2577
42383SOL    HW234265   5.657   7.091   2.733  0.4840 -0.2441 -0.1968
42384SOL     OW34266  11.414   6.812   6.304  0.3601  0.8523  0.5368
42384SOL    HW134267  11.482   6.876   6.284 -0.4833  1.8939  0.8282
42384SOL    HW234268  11.366   6.851   6.378 -1.2313  0.7142 -0.3662
42385SOL     OW34269   7.165   4.740   3.889 -0.3211 -0.6302  0.0791
42385SOL    HW134270   7.166   4.824   3.934 -3.1911 -1.0918  1.1933
42385SOL    HW234271   7.140   4.760   3.799 -1.6327 -0.3042  0.4970
42386SOL     OW34272   5.985  11.433   1.672 -0.0581 -0.5767 -0.0161
42386SOL    HW134273   5.916  11.483   1.628 -0.6613 -0.5131  0.9762
42386SOL    HW234274   6.058  11.436   1.611  0.3874  2.6023  0.5024
42387SOL     OW34275  10.030   7.626   8.013  0.5653  0.2567 -0.5076
42387SOL    HW134276  10.048   7.653   7.923  1.1742 -0.2370 -0.5388
42387SOL    HW234277   9.946   7.580   8.007  0.7585 -0.0551 -0.8843
42388SOL     OW34278  10.781   7.514   9.889  0.2831 -0.8409  0.1649
42388SOL    HW134279  10.795   7.571   9.964  1.0068 -2.7747  1.6021
42388SOL    HW234280  10.866   7.512   9.845  0.4986 -1.3957  0.5864
42389SOL     OW34281   0.811   4.832   5.029 -0.4129  0.4912 -0.0004
42389SOL    HW134282   0.747   4.876   5.085 -1.5666  1.7219 -2.1367
42389SOL    HW234283   0.854   4.903   4.981  0.3001 -0.5174 -0.9084
42390SOL     OW34284   2.807   8.650   5.851 -0.3247 -0.0264 -0.4012
42390SOL    HW134285   2.736   8.586   5.856  0.3125 -0.6554  1.0222
42390SOL    HW234286   2.769   8.724   5.803 -1.1009 -1.3961 -1.9969
42391SOL     OW34287   9.450   4.270  11.292  0.2846  0.3017 -0.1514
42391SOL    HW134288   9.455   4.261  11.387  1.6658  0.4724 -0.1910
42391SOL    HW234289   9.444   4.365  11.278  2.0051  0.4132 -0.2806
42392SOL     OW34290   8.111   0.934   7.088 -0.1659  0.2764  0.1241
42392SOL    HW134291   8.049   0.876   7.043 -0.4052  1.0993 -0.6279
42392SOL    HW234292   8.062   1.015   7.103  1.5293  2.1987 -3.3602
42393SOL     OW34293   5.147  12.830   4.314 -0.3018 -0.2490  0.1640
42393SOL    HW134294   5.181  12.911   4.353  0.7697 -0.9258  0.6539
42393SOL    HW234295   5.084  12.860   4.249  0.3675  0.9938  0.0638
42394SOL     OW34296   3.213   2.481   1.310 -0.0923 -0.4927  0.3382
42394SOL    HW134297   3.254   2.564   1.334 -2.2441  0.4850  0.9593
42394SOL    HW234298   3.148   2.466   1.379 -0.7651 -1.9267 -0.5528
42395SOL     OW34299   1.238  10.823  10.367 -0.2750  0.3934 -0.1184
42395SOL    HW134300   1.273  10.901  10.411 -0.6897  0.7286 -0.3769
42395SOL    HW234301   1.290  10.751  10.402 -0.5977  0.6495  0.9423
42396SOL     OW34302   9.912   7.635   5.328 -0.2085 -0.1817 -0.1150
42396SOL    HW134303   9.955   7.550   5.319 -0.9546 -0.4646 -1.2599
42396SOL    HW234304   9.983   7.696   5.346  0.7676 -0.5401 -2.4161
42397SOL     OW34305   9.403   2.880  12.340  0.2560  0.0983  0.1956
42397SOL    HW134306   9.324   2.909  12.384 -1.2660 -1.0644 -1.5988
42397SOL    HW234307   9.449   2.961  12.316  0.0840  0.7614  2.0059
42398SOL     OW34308   0.125  12.239   4.188 -0.0268 -0.1549  0.1086
42398SOL    HW134309   0.201  12.235   4.130  0.4011 -0.4376  0.6768
42398SOL    HW234310   0.133  12.323   4.233  0.4482 -0.5600  0.8138
42399SOL     OW34311   3.548   1.736   1.509  0.1508 -0.4862  0.4223
42399SOL    HW134312   3.592   1.651   1.506  0.1276 -0.4818 -0.3755
42399SOL    HW234313   3.512   1.741   1.598  2.7373  0.0345  1.5206
42400SOL     OW34314   4.373   8.497  12.859 -0.3543 -0.8408 -0.4105
42400SOL    HW134315   4.455   8.454  12.883  1.3791  1.9797 -0.8988
42400SOL    HW234316   4.365   8.569  12.922 -0.6718  0.9354 -2.3851
42401SOL     OW34317   5.025   4.770   4.906 -0.1922 -0.3501  0.3511
42401SOL    HW134318   5.013   4.812   4.991 -0.7200 -0.0925  0.1539
42401SOL    HW234319   4.982   4.685   4.915 -0.4877 -0.2113  0.2560
42402SOL     OW34320   9.225  12.779  11.112  0.0216  0.1597 -0.1273
42402SOL    HW134321   9.237  12.694  11.155 -0.9679  1.3064  2.6775
42402SOL    HW234322   9.308  12.825  11.125 -0.2270  0.4513  0.4702
42403SOL     OW34323   8.066   3.686  12.632  0.3290  0.0676  0.0873
42403SOL    HW134324   8.092   3.651  12.547 -2.1120 -0.6157 -0.4426
42403SOL    HW234325   8.086   3.780  12.626  0.6206 -0.0517 -1.0446
42404SOL     OW34326   3.394   2.003  11.341 -0.2557  0.0554  0.1789
42404SOL    HW134327   3.318   2.020  11.287  1.6981 -0.7210 -3.0661
42404SOL    HW234328   3.405   2.083  11.393 -3.0514  0.2527  0.6279
42405SOL     OW34329   1.827   5.143  12.668 -0.1069 -0.5683 -0.1802
42405SOL    HW134330   1.886   5.187  12.607  0.8552 -1.1160  0.3279
42405SOL    HW234331   1.820   5.203  12.742 -1.8414  0.4190 -1.0937
42406SOL     OW34332   2.901   8.411   8.439 -0.7637  0.6436  0.3825
42406SOL    HW134333   2.982   8.441   8.479 -0.6358  0.6525  0.1196
42406SOL    HW234334   2.913   8.427   8.345 -0.9068  0.2701  0.2972
42407SOL     OW34335   0.432   2.688  11.980 -0.2838 -0.3848 -0.0975
42407SOL    HW134336   0.514   2.736  11.992  0.6402 -1.0766 -2.8902
42407SOL    HW234337   0.437   2.616  12.042  1.3124 -0.4918 -0.3014
42408SOL     OW34338   4.141   3.239   3.072  0.7043 -0.0096 -0.0163
42408SOL    HW134339   4.116   3.331   3.059  2.4966  0.3563 -1.2164
42408SOL    HW234340   4.225   3.243   3.117 -0.1208 -1.1517  1.7409
42409SOL     OW34341   3.775  11.810   6.465  0.1153  0.4847 -0.0852
42409SOL    HW134342   3.871  11.808   6.467  0.1107 -1.3968  0.2584
42409SOL    HW234343   3.749  11.744   6.530 -1.4388  1.8547  0.7334
42410SOL     OW34344   7.076   6.735   6.836  0.3545  0.2941  0.7810
42410SOL    HW134345   7.055   6.691   6.754  0.0108  1.2190  0.3493
42410SOL    HW234346   7.147   6.684   6.874 -0.9747 -1.4789  1.0337
42411SOL     OW34347   1.819   3.670  12.567  0.3403  0.0295 -0.4594
42411SOL    HW134348   1.735   3.712  12.583 -0.2148 -0.7389 -1.2386
42411SOL    HW234349   1.797   3.591  12.518  1.7102  0.9824 -2.7539
42412SOL     OW34350   0.018  11.067   4.087  0.3193  0.0272 -0.4233
42412SOL    HW134351   0.029  11.161   4.098  1.3229  0.2865 -3.0990
42412SOL    HW234352  -0.052  11.058   4.023  1.3502 -0.9379 -1.4705
42413SOL     OW34353   9.858   8.456   6.000  0.1990 -0.4289  0.2158
42413SOL    HW134354   9.844   8.383   5.940 -2.9352  0.5605 -0.4120
42413SOL    HW234355   9.774   8.469   6.043  0.9558  2.1392  1.1123
42414SOL     OW34356   3.024   6.164   4.661 -0.0339 -0.0333  1.2390
42414SOL    HW134357   3.105   6.152   4.712  0.6456  1.5704  0.6067
42414SOL    HW234358   3.053   6.169   4.570 -1.0693 -1.2398  0.8108
42415SOL     OW34359   2.444   4.682   3.222  0.0135 -0.1555  0.4083
42415SOL    HW134360   2.428   4.609   3.163 -0.2634  0.5795 -0.4656
42415SOL    HW234361   2.366   4.737   3.213  1.1296  1.3597 -0.6705
42416SOL     OW34362   2.679   5.525   8.935 -0.4024  0.1113 -0.1137
42416SOL    HW134363   2.739   5.503   8.863  1.0377  0.9370  0.7676
42416SOL    HW234364   2.729   5.587   8.989 -1.6629 -0.0250  1.2697
42417SOL     OW34365   6.710   8.360   1.509  0.3399  0.2983  0.3270
42417SOL    HW134366   6.627   8.369   1.557  0.4679  2.2635  0.2709
42417SOL    HW234367   6.705   8.428   1.442  1.0009 -1.1294 -1.2386
42418SOL     OW34368   3.257   4.607   6.944  0.7265 -0.1099  0.0891
42418SOL    HW134369   3.330   4.632   6.888  3.2181 -2.8036  1.8316
42418SOL    HW234370   3.269   4.659   7.023  0.3012 -0.0140  0.0905
42419SOL     OW34371   5.414   6.827   2.221 -0.7071 -0.0795 -0.4108
42419SOL    HW134372   5.443   6.896   2.281 -2.6455  0.6390 -0.2436
42419SOL    HW234373   5.495   6.785   2.193  0.3334  0.0531  2.1036
42420SOL     OW34374  12.427   0.882   0.442  0.3281 -0.6877 -0.0629
42420SOL    HW134375  12.335   0.875   0.464 -0.2557  0.0212 -2.0330
42420SOL    HW234376  12.473   0.838   0.514 -1.6620 -3.4878 -0.3313
42421SOL     OW34377   7.370   3.020   3.818 -0.0029 -0.4077 -0.1615
42421SOL    HW134378   7.337   3.108   3.838 -2.1566 -1.2955  0.3859
42421SOL    HW234379   7.412   3.030   3.733  1.4961  1.5330  0.7006
42422SOL     OW34380   6.255   5.318   7.334  0.7218 -0.2900 -0.2591
42422SOL    HW134381   6.326   5.307   7.271  0.1514 -0.0248 -0.9686
42422SOL    HW234382   6.194   5.247   7.313  0.7434 -0.4867  0.3133
42423SOL     OW34383  10.512  12.036   1.263  0.1601  0.4645 -0.0796
42423SOL    HW134384  10.525  11.951   1.307  3.1990  1.1481  0.5438
42423SOL    HW234385  10.490  12.013   1.173  1.0702 -1.0053  0.0421
42424SOL     OW34386   4.746   1.324   6.681 -0.7627  0.1582  0.4992
42424SOL    HW134387   4.716   1.237   6.654  0.5093  0.2032 -1.2830
42424SOL    HW234388   4.707   1.384   6.617  1.3061  0.4300 -0.6001
42425SOL     OW34389   3.392   2.708   8.453  0.4447 -0.0075 -0.1055
42425SOL    HW134390   3.392   2.735   8.544 -0.6857  0.7339 -0.3044
42425SOL    HW234391   3.335   2.772   8.409  0.6608 -0.5796 -1.2496
42426SOL     OW34392   1.476   4.541   4.686 -0.5422 -0.0529 -0.0996
42426SOL    HW134393   1.474   4.618   4.742 -2.1973 -0.6480  0.7040
42426SOL    HW234394   1.415   4.561   4.615 -1.5668 -0.8897  0.5192
42427SOL     OW34395   6.083  12.840   1.657  0.4778  0.1227 -0.4677
42427SOL    HW134396   6.159  12.829   1.714  0.4802  3.1485  0.2784
42427SOL    HW234397   6.008  12.829   1.715  0.2988 -1.5590 -0.9470
42428SOL     OW34398   1.317  10.987  11.365 -0.4092 -0.2469 -0.3803
42428SOL    HW134399   1.314  11.002  11.460  1.2552 -1.1413 -0.1455
42428SOL    HW234400   1.326  11.075  11.328  0.2936  0.0251  0.3901
42429SOL     OW34401  10.643  10.052  11.970 -0.3616  0.2885  0.7321
42429SOL    HW134402  10.578  10.119  11.991 -0.8527  0.3265 -0.7979
42429SOL    HW234403  10.726  10.099  11.968 -0.3585  0.3665  2.0542
42430SOL     OW34404  11.742   2.935   0.953  0.5221 -1.0112 -0.3067
42430SOL    HW134405  11.801   2.914   1.026  1.2651  1.5253 -0.0458
42430SOL    HW234406  11.801   2.963   0.882 -0.1890  2.8720  0.3970
42431SOL     OW34407   3.680  11.892   2.256 -0.1174  0.5551 -0.4991
42431SOL    HW134408   3.725  11.813   2.285  0.7225  0.8647 -0.9224
42431SOL    HW234409   3.630  11.866   2.179 -0.1605  0.3535 -0.4020
42432SOL     OW34410   9.266   5.987   0.027 -0.1092  0.2361  0.1255
42432SOL    HW134411   9.286   6.042  -0.049 -1.4065  1.1759  0.4514
42432SOL    HW234412   9.172   5.974   0.023 -0.1272 -0.0867  1.3337
42433SOL     OW34413   8.128   2.466   2.741 -0.0163  0.6967  0.0782
42433SOL    HW134414   8.166   2.510   2.665 -0.6915 -0.2064 -0.8073
42433SOL    HW234415   8.123   2.374   2.714 -1.2111  0.5310  0.8370
42434SOL     OW34416   6.647  10.424   7.320  0.5023 -0.2943  0.3510
42434SOL    HW134417   6.705  10.397   7.248  0.3664 -0.4971  0.3168
42434SOL    HW234418   6.577  10.359   7.320  0.2823 -0.0613  0.4037
42435SOL     OW34419   0.288   5.136   7.725 -0.2954  0.2296  0.4895
42435SOL    HW134420   0.199   5.102   7.741 -0.3240 -0.1240 -0.3608
42435SOL    HW234421   0.289   5.221   7.768 -0.9287  0.0740  0.8317
42436SOL     OW34422   5.819   8.948   6.144  0.0953 -0.0976 -0.0206
42436SOL    HW134423   5.879   8.954   6.218  0.1118  1.5088 -0.1317
42436SOL    HW234424   5.731   8.952   6.184  0.1051  1.1108 -0.0809
42437SOL     OW34425  10.560   5.532   5.184  0.5152 -0.5885 -0.0267
42437SOL    HW134426  10.478   5.558   5.226  0.4482 -0.6154 -0.1401
42437SOL    HW234427  10.541   5.447   5.145  1.3105 -1.7916  2.0611
42438SOL     OW34428   7.162   0.914   6.068 -0.1647  0.1003  0.2496
42438SOL    HW134429   7.211   0.974   6.124 -0.0040  0.3993 -0.2053
42438SOL    HW234430   7.195   0.827   6.091  1.1705  0.3529 -0.6231
42439SOL     OW34431   1.603   0.558  12.552  0.4054 -0.2580  0.3827
42439SOL    HW134432   1.663   0.537  12.481  0.3850  2.4545 -0.5454
42439SOL    HW234433   1.653   0.542  12.632  1.1172 -1.4046 -0.2701
42440SOL     OW34434   4.096   7.544   3.004  0.2044  0.1662 -0.0757
42440SOL    HW134435   4.041   7.600   2.948 -1.4345  0.5676  1.8347
42440SOL    HW234436   4.175   7.596   3.019 -0.0069  0.6993 -0.7454
42441SOL     OW34437  11.386   9.743   5.333 -0.0036  0.1574  0.4840
42441SOL    HW134438  11.421   9.655   5.345 -1.0730 -0.3528 -0.0105
42441SOL    HW234439  11.417   9.770   5.247 -0.9345 -0.3604 -0.0260
42442SOL     OW34440   5.839   8.087   7.651 -0.3830 -0.5857 -0.0696
42442SOL    HW134441   5.927   8.091   7.615  0.5678 -0.6006  2.1212
42442SOL    HW234442   5.826   8.172   7.693 -0.7418 -1.1910  1.0793
42443SOL     OW34443   2.369   8.151  10.809 -0.3858  0.1609  0.2207
42443SOL    HW134444   2.365   8.120  10.899 -0.8497  0.0564  0.1690
42443SOL    HW234445   2.405   8.078  10.759 -0.5297  0.0675  0.2550
42444SOL     OW34446   7.875   9.678   1.315  0.0417  0.0832 -0.5093
42444SOL    HW134447   7.952   9.699   1.368  0.1696 -0.4379 -0.4803
42444SOL    HW234448   7.906   9.682   1.225  0.0969 -0.0942 -0.4990
42445SOL     OW34449  12.152   5.166   0.657 -0.1998 -0.2990  0.0172
42445SOL    HW134450  12.132   5.257   0.634  1.6088 -0.1157 -1.0019
42445SOL    HW234451  12.153   5.166   0.753 -0.2291  0.7646  0.0345
42446SOL     OW34452   8.358  11.516   6.733 -0.2818 -0.4189 -0.4180
42446SOL    HW134453   8.419  11.506   6.660 -1.1112  3.7971 -1.9679
42446SOL    HW234454   8.414  11.527   6.810  0.7104 -1.2911 -0.9918
42447SOL     OW34455   0.589  12.935   6.672 -0.4170  0.1335 -0.1513
42447SOL    HW134456   0.544  13.001   6.725 -1.4342  0.6444 -1.5868
42447SOL    HW234457   0.564  12.851   6.711  0.7314  0.5541  1.5676
42448SOL     OW34458   1.768  11.249  10.017  0.2441 -0.3652  0.7538
42448SOL    HW134459   1.799  11.198  10.092 -1.8172 -0.3257  1.7095
42448SOL    HW234460   1.736  11.331  10.056  3.2900  1.7087 -0.7013
42449SOL     OW34461   2.482   2.772   6.043  0.1402  0.0404  0.3288
42449SOL    HW134462   2.577   2.765   6.035  0.2411  0.6920  0.8244
42449SOL    HW234463   2.449   2.751   5.956  0.6462 -1.6168  0.5034
42450SOL     OW34464   7.430  11.070  10.431  0.2764  0.4767 -0.2925
42450SOL    HW134465   7.351  11.117  10.456 -0.5191 -1.0326  0.1211
42450SOL    HW234466   7.495  11.094  10.497 -0.1272  0.9488 -0.0679
42451SOL     OW34467  12.047   8.435  11.187 -0.0076 -0.4735  0.2348
42451SOL    HW134468  12.080   8.482  11.264  1.2433  0.7979 -1.0272
42451SOL    HW234469  12.067   8.492  11.113 -0.3146 -2.0830 -1.1545
42452SOL     OW34470   6.692   3.125   6.063  0.0129 -0.0177  0.2882
42452SOL    HW134471   6.641   3.202   6.041  0.9167  0.0268 -1.9681
42452SOL    HW234472   6.733   3.146   6.147 -0.9437  1.3233  0.4470
42453SOL     OW34473  10.753   3.698   2.461  0.0435 -0.1806 -0.0306
42453SOL    HW134474  10.789   3.779   2.497  0.5733 -0.4651  0.0946
42453SOL    HW234475  10.659   3.703   2.479 -0.0102  0.6371 -0.4868
42454SOL     OW34476   9.779   3.040   5.344 -0.5733  0.3564  0.0496
42454SOL    HW134477   9.730   2.959   5.329 -0.4407  0.4175 -0.7627
42454SOL    HW234478   9.782   3.083   5.258 -0.9921  1.4244  0.5412
42455SOL     OW34479   3.860  11.041  12.609 -0.2210  0.3706 -0.3365
42455SOL    HW134480   3.930  11.085  12.560 -0.1334 -1.3741 -1.8730
42455SOL    HW234481   3.901  10.965  12.649 -0.3682  1.5804  2.3270
42456SOL     OW34482   7.448   8.581  11.994 -0.5580  0.1012 -0.5204
42456SOL    HW134483   7.525   8.617  12.037 -0.8923  0.2920 -0.0755
42456SOL    HW234484   7.459   8.486  12.000 -0.2344  0.1252 -0.6900
42457SOL     OW34485   5.895  11.107  12.289  0.2041 -0.2545  0.4042
42457SOL    HW134486   5.842  11.171  12.337 -0.5046  0.2376 -0.9767
42457SOL    HW234487   5.872  11.023  12.329 -1.8489 -0.0822 -0.2853
42458SOL     OW34488   8.842   8.222   8.184  0.3045 -0.0731  0.5414
42458SOL    HW134489   8.785   8.145   8.179 -0.6965  0.6668  0.1972
42458SOL    HW234490   8.928   8.187   8.208 -0.4203 -1.1671  1.6810
42459SOL     OW34491  11.187   2.929  12.590  0.3802  0.0686 -0.3724
42459SOL    HW134492  11.129   2.895  12.658 -1.8916  2.2544 -1.0830
42459SOL    HW234493  11.243   2.855  12.567 -0.1491 -1.3175  2.3826
42460SOL     OW34494   5.491   7.599   8.868 -0.3584 -0.1611 -0.1978
42460SOL    HW134495   5.414   7.552   8.899 -0.2188 -0.2402  0.0301
42460SOL    HW234496   5.508   7.665   8.935  0.5986 -1.0452  0.4657
42461SOL     OW34497   3.349   9.073   0.135  0.5116 -0.0469 -0.4402
42461SOL    HW134498   3.289   9.099   0.205 -0.1061  1.3162 -1.4298
42461SOL    HW234499   3.412   9.144   0.129  0.3342  0.0419 -1.5124
42462SOL     OW34500   3.268   9.551   5.586 -0.0156 -0.5465 -0.4606
42462SOL    HW134501   3.216   9.528   5.509  2.1618 -0.1183 -2.1505
42462SOL    HW234502   3.342   9.491   5.584  0.5925  0.1230  0.7372
42463SOL     OW34503  10.542   6.210   1.695  0.5248  0.3908 -0.0740
42463SOL    HW134504  10.517   6.119   1.678  0.9267  0.2569  0.0299
42463SOL    HW234505  10.528   6.221   1.789  1.2539  0.1812  0.0683
42464SOL     OW34506  10.456   9.666   9.879  0.3171  0.1629  0.2974
42464SOL    HW134507  10.533   9.702   9.922  0.8206 -0.3787 -0.1516
42464SOL    HW234508  10.458   9.702   9.790 -0.3369  0.7094  0.4886
42465SOL     OW34509   7.411  11.039   8.226  0.3707  0.4847 -0.3566
42465SOL    HW134510   7.340  11.065   8.285  0.5742  0.1016  0.0664
42465SOL    HW234511   7.453  11.121   8.201 -0.5616  0.7589 -1.0508
42466SOL     OW34512   7.985   6.197   5.794  0.4950  0.1429 -0.4328
42466SOL    HW134513   7.919   6.149   5.844 -1.0567  0.8832 -1.6863
42466SOL    HW234514   8.033   6.247   5.859  0.0531 -0.6695  0.5440
42467SOL     OW34515  12.134   7.631   2.350 -0.0765  0.1972  0.2694
42467SOL    HW134516  12.138   7.696   2.420  1.4738  0.7393 -0.2650
42467SOL    HW234517  12.042   7.627   2.325 -0.6395  0.0572  2.2474
42468SOL     OW34518   6.205   9.264   1.991 -0.0286  0.2258  0.0899
42468SOL    HW134519   6.264   9.203   1.948 -0.6739  0.9967 -2.0373
42468SOL    HW234520   6.255   9.345   1.999 -0.3345  0.4828 -0.4949
42469SOL     OW34521   3.174  12.484   7.639  0.8187  0.4726 -0.1210
42469SOL    HW134522   3.136  12.452   7.721 -0.8505  0.9275 -0.6678
42469SOL    HW234523   3.149  12.576   7.635 -0.7956  0.0398 -1.9788
42470SOL     OW34524   5.873   4.897   4.583 -0.4942  0.4803  0.2978
42470SOL    HW134525   5.846   4.978   4.628 -0.8180  0.5946 -0.1006
42470SOL    HW234526   5.829   4.827   4.631  0.7702  0.4073  1.4449
42471SOL     OW34527   9.652   2.765   2.792 -0.4628  0.3340 -0.3385
42471SOL    HW134528   9.556   2.768   2.791 -0.4748  0.9745  0.7994
42471SOL    HW234529   9.678   2.797   2.705 -1.2773 -1.5759 -1.3377
42472SOL     OW34530   0.592   6.713  10.668  0.2958  0.2387  0.1396
42472SOL    HW134531   0.629   6.651  10.730 -1.0148 -0.0769  0.6421
42472SOL    HW234532   0.643   6.701  10.588  2.2196  0.8832  1.2161
42473SOL     OW34533   7.841   6.860  12.783 -0.5973 -0.2611 -0.0040
42473SOL    HW134534   7.870   6.775  12.748  0.0848 -0.7375  1.6407
42473SOL    HW234535   7.913   6.920  12.763 -0.8449 -0.1885 -0.6915
42474SOL     OW34536   4.199   8.558   0.724 -0.5130  0.0944  0.5432
42474SOL    HW134537   4.199   8.590   0.814  0.2823  0.6940  0.3449
42474SOL    HW234538   4.289   8.572   0.694 -0.5648 -0.8375 -0.0868
42475SOL     OW34539   3.947  12.432   1.969  0.0110  0.3725  0.0248
42475SOL    HW134540   3.913  12.522   1.974 -1.9992 -0.2405 -1.2570
42475SOL    HW234541   4.041  12.442   1.955  0.2846  2.2132  2.5172
42476SOL     OW34542   4.966  11.037   0.852 -0.5103 -0.1279 -0.5185
42476SOL    HW134543   4.937  10.983   0.925  1.0588 -1.5757 -0.9080
42476SOL    HW234544   4.889  11.044   0.796 -1.3919 -0.0011  0.6506
42477SOL     OW34545   4.811  11.481   9.593 -0.3463 -0.2773  0.0255
42477SOL    HW134546   4.717  11.498   9.593 -0.3807 -0.4176  0.8918
42477SOL    HW234547   4.845  11.538   9.662  0.2754  0.1145 -0.5868
42478SOL     OW34548   6.022   9.232   1.790  0.4794  0.2201 -0.2938
42478SOL    HW134549   5.954   9.184   1.837  0.1802  1.7501  0.9123
42478SOL    HW234550   6.085   9.257   1.858  2.1592 -0.9134 -1.3332
42479SOL     OW34551   7.893   5.871   1.671 -0.3893  0.2456  0.2084
42479SOL    HW134552   7.960   5.929   1.636 -1.3422  0.5666 -1.1536
42479SOL    HW234553   7.817   5.928   1.684 -0.7816 -0.3526  0.5915
42480SOL     OW34554   1.989   9.601   4.835  0.1615 -0.0378 -0.3198
42480SOL    HW134555   2.037   9.551   4.770  0.3040  0.3175 -0.4917
42480SOL    HW234556   2.025   9.574   4.919 -0.5339 -1.0528 -0.3324
42481SOL     OW34557   9.066   6.583   3.193 -1.2519 -0.2430 -0.4308
42481SOL    HW134558   9.034   6.633   3.118 -1.8418  1.5490  0.9614
42481SOL    HW234559   9.152   6.551   3.166 -0.9249  1.4040 -1.4355
42482SOL     OW34560  10.772   2.692  11.704  0.1518 -0.3387  0.0161
42482SOL    HW134561  10.716   2.754  11.751 -1.1610 -2.7488  1.8202
42482SOL    HW234562  10.718   2.662  11.631  0.2795 -0.3813 -0.0606
42483SOL     OW34563   5.779   1.183   6.626  0.8837 -0.1875  0.0849
42483SOL    HW134564   5.853   1.147   6.577 -1.2539 -2.5047 -1.7460
42483SOL    HW234565   5.740   1.247   6.567  0.7517  0.1810  0.5627
42484SOL     OW34566   4.996   9.572   1.516 -0.0460  0.3204 -0.4500
42484SOL    HW134567   5.016   9.634   1.585 -1.2916 -2.6749  2.8897
42484SOL    HW234568   4.901   9.580   1.503 -0.3717 -1.3492  0.6378
42485SOL     OW34569   3.102   2.099   0.234  0.5584 -0.5087 -1.0001
42485SOL    HW134570   3.041   2.172   0.240  1.0638  0.0021 -1.8800
42485SOL    HW234571   3.072   2.049   0.159  0.2961 -1.1456 -0.4832
42486SOL     OW34572   0.078   0.286   0.423  0.5495  0.3182  0.5309
42486SOL    HW134573   0.172   0.294   0.441  0.2239  0.3600  2.4092
42486SOL    HW234574   0.048   0.377   0.414  0.3901  0.4362  1.8924
42487SOL     OW34575   1.171  10.268  12.142  0.1835 -0.0344 -0.5770
42487SOL    HW134576   1.137  10.208  12.076 -0.9683 -1.2418  1.0419
42487SOL    HW234577   1.097  10.325  12.164  0.1399 -0.5487  0.6481
42488SOL     OW34578   4.891   8.217   0.946  0.4304 -0.6308  0.3035
42488SOL    HW134579   4.890   8.203   1.040 -0.4640 -0.2900  0.3591
42488SOL    HW234580   4.802   8.196   0.917  0.0282  1.3551 -0.1210
42489SOL     OW34581   6.382   7.627  11.290  0.9370  0.3137 -0.4673
42489SOL    HW134582   6.289   7.622  11.310  0.8528 -0.6636 -1.0619
42489SOL    HW234583   6.425   7.596  11.370  0.7042 -0.3913 -0.6089
42490SOL     OW34584  11.284   1.832   3.667 -0.2281  0.3566  0.0969
42490SOL    HW134585  11.324   1.746   3.656 -1.9402 -0.4097 -0.4653
42490SOL    HW234586  11.225   1.821   3.742  0.9959  1.6355  1.3186
42491SOL     OW34587   4.615   2.639  10.742  0.6736 -0.6675 -0.6748
42491SOL    HW134588   4.623   2.691  10.663  2.5883 -0.0172 -0.1066
42491SOL    HW234589   4.524   2.609  10.742 -0.2799  1.9536 -1.4649
42492SOL     OW34590   7.930   9.437   9.053 -0.1359 -0.0761  0.2288
42492SOL    HW134591   8.022   9.436   9.079 -0.0570 -1.3022 -0.0646
42492SOL    HW234592   7.917   9.524   9.014  1.2191 -0.3369 -0.8822
42493SOL     OW34593   3.373  11.364   0.865  0.0405  0.3067 -0.2514
42493SOL    HW134594   3.364  11.451   0.904 -1.5014  0.0581  0.0271
42493SOL    HW234595   3.463  11.361   0.833  0.4804  1.5723  0.7630
42494SOL     OW34596   4.576  10.959   3.018 -0.3566 -0.2327 -0.3586
42494SOL    HW134597   4.598  10.881   2.967  2.8898  0.6170 -0.5063
42494SOL    HW234598   4.600  10.937   3.108 -0.4320  0.2539 -0.2168
42495SOL     OW34599   9.722   2.392   4.002 -0.0870  0.0386 -0.8635
42495SOL    HW134600   9.731   2.483   3.974 -2.5051  0.6454  0.0843
42495SOL    HW234601   9.628   2.379   4.009  0.2229 -2.4983 -0.7536
42496SOL     OW34602  10.685   4.625   7.294 -0.0340 -0.5047 -0.1440
42496SOL    HW134603  10.771   4.641   7.256  0.6653 -0.4003  1.3770
42496SOL    HW234604  10.700   4.556   7.359 -0.7801  0.5105  1.1655
42497SOL     OW34605   5.336   4.628  12.374  0.3399 -0.2542  0.4748
42497SOL    HW134606   5.271   4.559  12.361  0.9009 -0.6375 -0.3668
42497SOL    HW234607   5.289   4.697  12.420 -0.9738 -0.0752 -1.0603
42498SOL     OW34608   2.587  11.486   6.820 -0.3328 -0.0053  0.0991
42498SOL    HW134609   2.683  11.484   6.820 -0.2912 -1.1193  2.4366
42498SOL    HW234610   2.564  11.501   6.729  2.0441 -1.1656 -0.7848
42499SOL     OW34611  12.931   1.548  12.736 -0.2316  0.1257  0.1483
42499SOL    HW134612  12.913   1.522  12.826 -1.3705  0.1233 -0.0675
42499SOL    HW234613  12.881   1.628  12.723  0.4118  0.4701 -0.2999
42500SOL     OW34614   2.517  11.541   3.556 -0.2319  0.0774 -0.4078
42500SOL    HW134615   2.441  11.521   3.610 -0.5084  1.1820 -0.3593
42500SOL    HW234616   2.592  11.531   3.615 -0.3464 -0.7970 -0.3979
42501SOL     OW34617  11.592   8.320   9.963  0.1205  0.6367 -0.3126
42501SOL    HW134618  11.597   8.406   9.922 -2.4696  2.2817  2.4421
42501SOL    HW234619  11.499   8.307   9.980  0.7802 -0.7312  3.0958
42502SOL     OW34620   3.502   3.468  11.352  0.0132 -0.1200  0.2217
42502SOL    HW134621   3.418   3.511  11.334  0.0792 -0.0075  0.1791
42502SOL    HW234622   3.481   3.375  11.355 -0.3376 -0.0219  1.4807
42503SOL     OW34623  10.254   0.601   0.134 -0.1058  0.0687  0.5787
42503SOL    HW134624  10.218   0.662   0.199  1.8868 -0.4318  2.2689
42503SOL    HW234625  10.187   0.535   0.123  0.0202 -0.6422  3.3179
42504SOL     OW34626   4.638  11.329   1.818  0.1481 -0.1227 -0.0629
42504SOL    HW134627   4.606  11.377   1.742 -2.9995 -1.6841  0.1249
42504SOL    HW234628   4.675  11.397   1.875  0.9262  1.2994 -2.1272
42505SOL     OW34629   4.502   6.690   5.238 -0.4206 -0.7398 -0.3246
42505SOL    HW134630   4.461   6.660   5.157 -2.2045 -0.2057  0.3558
42505SOL    HW234631   4.432   6.690   5.302  0.7895 -0.3761  1.0438
42506SOL     OW34632   7.436  12.121   0.670 -0.7869 -0.1805  0.0902
42506SOL    HW134633   7.425  12.126   0.765 -0.5438  0.0403  0.1071
42506SOL    HW234634   7.479  12.202   0.647  0.0811 -0.6785 -0.0745
42507SOL     OW34635   9.919   6.345   2.698  0.6113  0.3437  0.1113
42507SOL    HW134636   9.894   6.265   2.745  0.7040  0.3691  0.2049
42507SOL    HW234637  10.004   6.368   2.735 -0.0407  1.2885  1.1033
42508SOL     OW34638  12.819  11.260   1.211 -0.1418 -0.2294  0.0790
42508SOL    HW134639  12.731  11.234   1.185  0.0295 -0.8204  0.0585
42508SOL    HW234640  12.813  11.354   1.229 -0.7224 -0.2229 -0.1362
42509SOL     OW34641   5.236   8.851   1.247 -0.2626  0.1229  0.2093
42509SOL    HW134642   5.233   8.939   1.209 -0.5250 -0.6214 -1.6071
42509SOL    HW234643   5.148   8.835   1.280 -0.3662  0.3393  0.0373
42510SOL     OW34644   9.425   0.795  11.581 -0.0939 -0.1811  0.3739
42510SOL    HW134645   9.418   0.885  11.548  0.4467 -0.3010 -0.0930
42510SOL    HW234646   9.335   0.765  11.588 -0.2691  0.3001  0.2392
42511SOL     OW34647   0.647   4.651   7.437  0.3248 -0.1147  0.5004
42511SOL    HW134648   0.633   4.686   7.525 -0.3089  1.6008 -0.2398
42511SOL    HW234649   0.610   4.718   7.378 -2.0879 -2.5613 -1.0030
42512SOL     OW34650   6.805  12.657   2.444  0.0455  0.6480 -0.1209
42512SOL    HW134651   6.815  12.733   2.387 -1.4814  1.4507  0.6120
42512SOL    HW234652   6.770  12.588   2.387  1.8091  0.3248 -0.8781
42513SOL     OW34653  12.241   8.946   0.101  0.1967 -0.5630 -0.1346
42513SOL    HW134654  12.200   8.865   0.071  0.8283 -2.1306  2.9239
42513SOL    HW234655  12.167   9.003   0.122 -0.2557 -0.5485 -1.6156
42514SOL     OW34656   0.644   5.558  12.818  0.1796  0.1783 -0.0169
42514SOL    HW134657   0.730   5.596  12.838 -0.3676  1.4536  0.0547
42514SOL    HW234658   0.653   5.524  12.729  0.6508  0.6848 -0.1701
42515SOL     OW34659  10.062   7.723  12.352 -0.2070  0.8719  0.0640
42515SOL    HW134660  10.091   7.796  12.406  0.6435 -0.1927  1.1093
42515SOL    HW234661  10.004   7.672  12.409  1.9391 -1.1361  0.6374
42516SOL     OW34662   0.999   7.176   9.292  0.3789  0.5313 -0.0905
42516SOL    HW134663   1.045   7.094   9.308 -1.6138 -0.7644 -0.6507
42516SOL    HW234664   0.936   7.184   9.363 -0.7875  0.5427 -1.0928
42517SOL     OW34665   3.935   7.125   6.458  0.4515  0.5070 -0.0109
42517SOL    HW134666   3.935   7.196   6.523 -0.4701  1.3564 -0.9076
42517SOL    HW234667   4.021   7.130   6.418  0.1441  1.6067 -0.5655
42518SOL     OW34668   5.704   2.168   7.665 -0.0517  0.5004 -0.6169
42518SOL    HW134669   5.730   2.212   7.746  1.5157 -0.4563 -0.5607
42518SOL    HW234670   5.691   2.238   7.602 -1.1564  1.2536  0.3986
42519SOL     OW34671   0.542   5.680  11.943  0.0644  0.1623 -0.1997
42519SOL    HW134672   0.518   5.605  11.998 -0.9699 -0.0637 -0.9257
42519SOL    HW234673   0.502   5.661  11.858  1.6240  0.4989 -1.0640
42520SOL     OW34674   1.779  11.479  12.823 -0.4083  0.6224 -0.4368
42520SOL    HW134675   1.687  11.475  12.799  0.3212  2.0612 -4.2554
42520SOL    HW234676   1.811  11.390  12.814 -1.3695  0.0850  1.0598
42521SOL     OW34677   2.585  10.032   4.636  0.2631  0.0823  0.2117
42521SOL    HW134678   2.648   9.988   4.694  0.8492 -0.4752 -0.8232
42521SOL    HW234679   2.614  10.124   4.637  1.3776 -0.2387 -0.5765
42522SOL     OW34680   1.373   9.756   9.891 -0.4883 -0.0770  0.6147
42522SOL    HW134681   1.280   9.774   9.910 -0.7471  0.2829 -0.8674
42522SOL    HW234682   1.374   9.665   9.861 -0.1906 -0.4137  1.6063
42523SOL     OW34683   3.503  12.417  11.337  0.7540 -0.0250  0.0738
42523SOL    HW134684   3.466  12.392  11.421 -0.7909 -2.5813 -1.2467
42523SOL    HW234685   3.597  12.400  11.346  0.5495 -0.6833  1.1386
42524SOL     OW34686  11.634   8.796   9.338 -0.5734 -0.3036 -0.5486
42524SOL    HW134687  11.629   8.725   9.402  0.1248 -0.1504 -0.3117
42524SOL    HW234688  11.722   8.833   9.350 -0.6836  0.1670 -1.1277
42525SOL     OW34689  10.609   4.081   7.504 -0.0979 -0.1463 -0.5014
42525SOL    HW134690  10.664   4.137   7.450 -0.9995  1.1957 -0.0649
42525SOL    HW234691  10.609   3.997   7.459 -0.1063  0.6833 -2.0979
42526SOL     OW34692   6.603   6.351   8.209  0.0674 -0.0816  0.0520
42526SOL    HW134693   6.646   6.371   8.125 -0.4522 -0.7484 -0.3812
42526SOL    HW234694   6.616   6.257   8.221 -0.3810 -0.0999  0.4240
42527SOL     OW34695   6.030   0.512  10.526 -0.2308  0.0289  0.3489
42527SOL    HW134696   5.983   0.445  10.477 -1.1616  1.8053 -1.2952
42527SOL    HW234697   6.075   0.463  10.595 -1.6486 -2.1538 -0.1625
42528SOL     OW34698  12.235   0.968   4.247 -0.3793  0.0436  0.2780
42528SOL    HW134699  12.239   1.036   4.315 -2.1745  0.2183  0.2634
42528SOL    HW234700  12.176   1.004   4.181 -0.8531 -1.2572 -0.0340
42529SOL     OW34701   0.697  12.114  10.905 -0.3094 -0.1637 -0.1460
42529SOL    HW134702   0.733  12.033  10.941 -0.5093 -0.0465  0.3289
42529SOL    HW234703   0.602  12.098  10.901 -0.1379 -1.0034 -2.7032
42530SOL     OW34704  10.161   1.318   4.692  0.2586  0.0436 -0.6215
42530SOL    HW134705  10.066   1.316   4.699  0.2923 -0.7143 -0.2484
42530SOL    HW234706  10.178   1.336   4.599 -0.2432  0.1421 -0.6973
42531SOL     OW34707   9.149   6.589  10.407  0.1809  0.0988  0.0492
42531SOL    HW134708   9.140   6.494  10.397  0.3833  0.1334 -0.4899
42531SOL    HW234709   9.194   6.618  10.328  1.0145  0.5213  0.6626
42532SOL     OW34710   2.303  10.305  12.505 -0.2733  0.6332  0.2838
42532SOL    HW134711   2.385  10.256  12.497  0.3642  1.7743 -0.3724
42532SOL    HW234712   2.308  10.347  12.591 -0.0929  0.8174  0.1850
42533SOL     OW34713  10.439  10.741   8.942 -0.4858  0.3574  0.0047
42533SOL    HW134714  10.355  10.782   8.963 -1.2886  0.4583 -2.9043
42533SOL    HW234715  10.428  10.650   8.970 -1.5853  0.3638 -0.3559
42534SOL     OW34716   8.207   4.727   6.249 -0.1383  0.4448  0.4619
42534SOL    HW134717   8.115   4.708   6.269 -0.5476 -0.6992 -2.0612
42534SOL    HW234718   8.256   4.658   6.294 -0.6030  0.4507  0.9825
42535SOL     OW34719  10.672  11.629   0.722  0.1874  0.1612  0.2064
42535SOL    HW134720  10.660  11.690   0.650 -0.0019  1.2202  1.1149
42535SOL    HW234721  10.767  11.620   0.731  0.2965  2.1716  1.5559
42536SOL     OW34722   4.227  10.832   0.016 -0.6654  0.0360  0.1726
42536SOL    HW134723   4.177  10.913   0.022 -1.4131 -0.3479 -0.6871
42536SOL    HW234724   4.166  10.763   0.042 -0.4201 -0.3754 -0.3084
42537SOL     OW34725  12.196   2.964   0.309 -0.3089  0.1274 -0.1853
42537SOL    HW134726  12.171   3.050   0.343  0.8753  0.3555  0.1466
42537SOL    HW234727  12.187   2.905   0.384 -0.8215  0.0099 -0.3335
42538SOL     OW34728  12.954   4.766   2.215 -0.0561  0.1600  0.8345
42538SOL    HW134729  13.044   4.772   2.183 -0.0064 -0.2897  0.8774
42538SOL    HW234730  12.900   4.771   2.137  0.0073  0.4550  0.8106
42539SOL     OW34731   4.546   2.688  11.003  0.0552 -0.0028 -0.2713
42539SOL    HW134732   4.586   2.657  10.922  2.4860  1.1344  0.4044
42539SOL    HW234733   4.615   2.677  11.069 -1.2710  0.7061  1.2870
42540SOL     OW34734   8.305  11.589   0.464  0.5459 -0.3033 -0.0970
42540SOL    HW134735   8.278  11.535   0.539  0.1089  0.3741  0.2411
42540SOL    HW234736   8.300  11.529   0.390  2.2452 -1.3487  0.5809
42541SOL     OW34737   2.324   9.179  12.962  0.2064 -0.0343  0.2257
42541SOL    HW134738   2.266   9.121  12.913 -0.3087 -0.3233  1.1699
42541SOL    HW234739   2.360   9.125  13.032 -0.3967  0.7977  1.2134
42542SOL     OW34740   2.435   4.867  11.706 -0.2657  0.3010  0.3487
42542SOL    HW134741   2.479   4.808  11.767 -0.4338 -0.4467 -0.2381
42542SOL    HW234742   2.353   4.890  11.750 -0.5721 -0.5509  0.2520
42543SOL     OW34743  12.035  11.762   9.400  1.2025  0.2505  0.1727
42543SOL    HW134744  12.084  11.832   9.357  0.1259  0.4481 -0.7776
42543SOL    HW234745  11.944  11.778   9.376  0.5810  0.1841  2.3053
42544SOL     OW34746   6.041   3.567   7.034  0.1530  0.3664  0.2238
42544SOL    HW134747   6.072   3.651   7.069  0.8247  0.4764 -0.5956
42544SOL    HW234748   6.051   3.576   6.939 -0.1848 -0.4844  0.0987
42545SOL     OW34749   6.611   0.119  10.222 -0.2855  0.4467 -0.4827
42545SOL    HW134750   6.535   0.123  10.164 -1.3725  0.7809  0.8966
42545SOL    HW234751   6.610   0.202  10.269  0.4385  0.1023  0.1671
42546SOL     OW34752  11.500   0.211  10.616 -0.3289 -0.4843  0.6001
42546SOL    HW134753  11.450   0.246  10.689 -0.7717 -0.2163  0.1795
42546SOL    HW234754  11.526   0.289  10.565  0.6926 -0.5988  0.9171
42547SOL     OW34755  10.908  11.093   7.778  0.2446 -0.4280  0.3236
42547SOL    HW134756  10.904  11.185   7.751 -0.9964 -0.0161  1.7732
42547SOL    HW234757  10.939  11.047   7.701  0.8246  1.1915 -0.4664
42548SOL     OW34758   0.025   8.504   6.068  0.0555 -0.2697 -0.2291
42548SOL    HW134759   0.032   8.510   5.973 -0.0268  1.3664 -0.1552
42548SOL    HW234760  -0.066   8.524   6.087  0.5760  1.8222  0.3177
42549SOL     OW34761   2.667  12.832  11.795 -0.0714  0.2199 -0.0841
42549SOL    HW134762   2.710  12.770  11.854  1.3552  0.7169 -0.5470
42549SOL    HW234763   2.728  12.906  11.789 -0.1708  0.2147 -2.1184
42550SOL     OW34764   1.574   0.301   7.536  0.3862  0.2094 -0.0964
42550SOL    HW134765   1.515   0.275   7.465  0.2877 -0.9912  0.4085
42550SOL    HW234766   1.592   0.394   7.519 -1.9253  0.7088 -0.0540
42551SOL     OW34767   9.892   2.036  12.630 -0.3530  0.2265 -0.0499
42551SOL    HW134768   9.853   2.123  12.616  1.3601  1.2131  0.9302
42551SOL    HW234769   9.818   1.980  12.652 -1.5804  1.2820 -1.3134
42552SOL     OW34770   3.918   6.359   7.713  0.3707 -0.3084  0.0443
42552SOL    HW134771   3.994   6.326   7.666  0.4173  0.3283 -0.3434
42552SOL    HW234772   3.893   6.439   7.666 -1.5094 -1.3375 -0.8406
42553SOL     OW34773   3.323  10.934   5.972  0.0910 -0.3777  0.2950
42553SOL    HW134774   3.265  10.916   6.046 -2.6550 -2.0685 -2.0286
42553SOL    HW234775   3.334  11.029   5.973 -3.1867  0.1139  0.6781
42554SOL     OW34776  12.051  11.493   6.486 -0.2639 -0.8746  0.1168
42554SOL    HW134777  12.053  11.588   6.476  1.1077 -0.8968 -0.0225
42554SOL    HW234778  12.138  11.471   6.521 -0.5735 -2.0695  0.1754
42555SOL     OW34779   3.435   4.674   3.504  0.3281 -0.0247 -0.0464
42555SOL    HW134780   3.406   4.629   3.425  0.3920  0.4372 -0.3354
42555SOL    HW234781   3.517   4.717   3.479 -0.7870  2.0225 -0.4161
42556SOL     OW34782  11.113   2.000  11.202  0.0666 -0.3853 -0.0583
42556SOL    HW134783  11.086   2.004  11.294  0.1460 -0.4579 -0.0324
42556SOL    HW234784  11.209   2.001  11.206  0.1158  2.1703 -0.2279
42557SOL     OW34785   7.107   4.924   7.577  0.0054 -0.3218 -0.3328
42557SOL    HW134786   7.113   4.910   7.483 -0.8617  1.3693 -0.6715
42557SOL    HW234787   7.119   4.837   7.615  0.8340 -0.9520 -1.9692
42558SOL     OW34788   0.939   7.221   8.978 -0.2472 -0.0685 -0.5023
42558SOL    HW134789   0.909   7.173   9.055 -3.5947  1.5838 -0.5924
42558SOL    HW234790   0.976   7.154   8.920 -0.4339 -1.7742  1.2684
42559SOL     OW34791   8.346   3.954   2.832  0.1633 -0.2063  0.2254
42559SOL    HW134792   8.369   3.963   2.925 -0.4682  0.2582  0.3438
42559SOL    HW234793   8.426   3.975   2.785 -0.1363  2.0041  0.6168
42560SOL     OW34794   5.543   4.876   5.130  0.6630  0.3134 -0.1130
42560SOL    HW134795   5.506   4.907   5.213  1.9517  0.2817  0.4985
42560SOL    HW234796   5.467   4.856   5.076 -0.2043  0.9107  0.8461
42561SOL     OW34797   3.772   0.197   9.738 -0.2396  0.4631  0.3927
42561SOL    HW134798   3.709   0.146   9.687  0.1762  0.3627 -0.0311
42561SOL    HW234799   3.784   0.277   9.687  0.9250 -0.0561 -0.2061
42562SOL     OW34800  12.278   9.295   5.958  0.1562  0.3333  0.1040
42562SOL    HW134801  12.373   9.296   5.946  0.1695 -1.2878 -0.1492
42562SOL    HW234802  12.248   9.374   5.914  1.2589  0.1345 -1.0858
42563SOL     OW34803  11.130   7.039   7.511 -0.2585  0.2918  0.0225
42563SOL    HW134804  11.182   6.992   7.576 -0.7258 -2.0588 -1.2129
42563SOL    HW234805  11.042   7.042   7.548  0.2032  2.3651  1.1339
42564SOL     OW34806  12.666   2.253  10.042 -0.0358  0.3555  0.2147
42564SOL    HW134807  12.754   2.274  10.011  0.1558 -0.1861  0.3899
42564SOL    HW234808  12.609   2.314   9.994  0.2146 -0.6759 -1.4867
42565SOL     OW34809   3.508  12.289   6.749  0.5448  0.3908  0.2650
42565SOL    HW134810   3.492  12.281   6.655 -1.6641  1.5183  0.4879
42565SOL    HW234811   3.575  12.357   6.755  1.5845 -0.5172 -0.4997
42566SOL     OW34812   0.694   6.352   0.131  0.3536  0.6225 -0.5216
42566SOL    HW134813   0.615   6.390   0.093  1.2973  2.3084 -0.9146
42566SOL    HW234814   0.664   6.309   0.211 -1.0182  0.7948 -0.9266
42567SOL     OW34815   7.415  12.625   1.305 -0.0888  0.3718  0.1559
42567SOL    HW134816   7.337  12.610   1.357 -0.5231 -0.7840 -0.7718
42567SOL    HW234817   7.476  12.557   1.334 -0.1207  0.0959 -0.4079
42568SOL     OW34818   2.795   2.826   1.656 -0.5454 -0.0359 -0.1666
42568SOL    HW134819   2.790   2.913   1.616  0.4319 -0.0877 -0.4312
42568SOL    HW234820   2.818   2.842   1.747 -2.6264  0.0747  0.3883
42569SOL     OW34821   3.963   2.830   8.119  0.4937  0.0922 -0.4257
42569SOL    HW134822   4.019   2.895   8.075  0.4993 -0.7647 -1.7195
42569SOL    HW234823   3.977   2.749   8.070 -0.1861 -0.6845  0.6319
42570SOL     OW34824   6.682   3.419   7.272  0.0274  0.1912  0.3680
42570SOL    HW134825   6.602   3.401   7.322  0.2584 -2.4880 -0.0369
42570SOL    HW234826   6.682   3.353   7.203  0.7890  2.4584 -1.9302
42571SOL     OW34827   7.888   1.151   0.145  0.3156  0.5621 -0.1382
42571SOL    HW134828   7.797   1.153   0.174  0.7382 -0.7461  1.4417
42571SOL    HW234829   7.925   1.232   0.180  0.0666  0.4650  0.3667
42572SOL     OW34830   6.835   2.289  12.424 -0.4015 -0.0967  0.0196
42572SOL    HW134831   6.762   2.304  12.484 -0.4954 -0.3601 -0.0245
42572SOL    HW234832   6.793   2.268  12.341 -0.2745 -0.1252 -0.0375
42573SOL     OW34833   9.977   5.616   6.754  0.0439  0.1560  0.9031
42573SOL    HW134834   9.896   5.657   6.785 -0.1661  0.0428  0.5073
42573SOL    HW234835  10.043   5.642   6.819 -0.4541 -0.3413  1.6241
42574SOL     OW34836  12.670   5.734  12.505  0.2004  0.3139  0.5342
42574SOL    HW134837  12.619   5.658  12.476  0.8996 -0.5906  1.5612
42574SOL    HW234838  12.708   5.706  12.589  2.2341  1.0103 -0.1001
42575SOL     OW34839   9.074   5.640   0.507  0.2399  0.2369  0.2611
42575SOL    HW134840   9.133   5.710   0.537 -1.0150  1.2441  0.4758
42575SOL    HW234841   9.087   5.637   0.412  0.8311  0.2677  0.3402
42576SOL     OW34842  11.797   2.900   4.445 -0.3568  0.0254  0.0247
42576SOL    HW134843  11.775   2.953   4.369 -1.3571 -0.8440 -0.3081
42576SOL    HW234844  11.718   2.903   4.500  0.1665  0.2179  0.7828
42577SOL     OW34845  12.768   3.601   1.823  0.7142 -0.5989  0.3556
42577SOL    HW134846  12.746   3.628   1.912  2.2801 -0.0501  0.6205
42577SOL    HW234847  12.688   3.561   1.788 -0.4303  0.6725  1.4226
42578SOL     OW34848   9.938  12.122   7.339 -0.1242  0.1890 -0.1078
42578SOL    HW134849   9.904  12.163   7.259 -0.6756  0.1302  0.0923
42578SOL    HW234850  10.032  12.137   7.336  0.2286 -2.0075 -2.0190
42579SOL     OW34851   6.717   3.633   7.088  0.6006 -0.0742 -0.3467
42579SOL    HW134852   6.683   3.553   7.129 -0.3237  1.3536  1.8645
42579SOL    HW234853   6.670   3.640   7.006 -0.8827 -0.7331  0.4064
42580SOL     OW34854  10.226   1.307   7.855 -0.1592  0.1563 -0.5678
42580SOL    HW134855  10.259   1.350   7.934  1.6233 -1.1337 -0.5475
42580SOL    HW234856  10.304   1.278   7.809 -1.2295 -1.4009 -1.4975
42581SOL     OW34857  10.949   5.834   2.523  0.3745  0.0844  0.0208
42581SOL    HW134858  11.019   5.777   2.492 -0.8046 -0.7995 -1.0833
42581SOL    HW234859  10.966   5.918   2.481  1.0528  0.0232  0.1605
42582SOL     OW34860   6.746  11.647   9.038  0.8012 -0.0656  0.2256
42582SOL    HW134861   6.746  11.552   9.028 -0.2509  0.1751 -4.2753
42582SOL    HW234862   6.835  11.674   9.015  0.1565  0.1344 -2.2797
42583SOL     OW34863   8.159   9.970  12.756 -0.7221 -0.3485 -0.5244
42583SOL    HW134864   8.147   9.952  12.849  3.6015  1.5853  0.6571
42583SOL    HW234865   8.215   9.899  12.725  1.5566  1.3013 -0.3922
42584SOL     OW34866  10.910  10.715   8.046 -0.2032 -0.6238 -0.3003
42584SOL    HW134867  10.828  10.764   8.054  0.2894  0.2157 -0.2304
42584SOL    HW234868  10.937  10.698   8.136 -0.0175 -0.4101 -0.3146
42585SOL     OW34869   3.356  12.816   0.595  0.1362 -0.1097  0.0802
42585SOL    HW134870   3.435  12.802   0.543 -0.0365 -0.9782  0.0257
42585SOL    HW234871   3.322  12.727   0.611 -1.5666  0.2948 -1.0446
42586SOL     OW34872   4.459   2.913  11.130  0.5334  0.3514  0.2168
42586SOL    HW134873   4.487   2.910  11.222 -1.1390  1.2751  0.8203
42586SOL    HW234874   4.483   2.828  11.094  0.7806 -0.2184  1.6574
42587SOL     OW34875   9.378  12.703   1.797  0.2604  0.5549  0.0794
42587SOL    HW134876   9.357  12.640   1.866  0.4552  0.1674 -0.2099
42587SOL    HW234877   9.317  12.682   1.726 -1.3944  2.3119  0.9016
42588SOL     OW34878   7.787  11.885   9.041  0.4224  0.2557  0.1686
42588SOL    HW134879   7.818  11.807   8.994  0.7182  0.9608 -0.8440
42588SOL    HW234880   7.715  11.917   8.987  1.4077  1.6453 -0.3725
42589SOL     OW34881   5.831  12.702   0.856 -0.5610  0.1233  0.0096
42589SOL    HW134882   5.869  12.664   0.935 -0.0498 -0.8875 -0.6918
42589SOL    HW234883   5.872  12.788   0.849  1.2511 -0.7165 -0.4200
42590SOL     OW34884   4.248   4.743  12.744  0.3365 -0.6866 -0.1551
42590SOL    HW134885   4.166   4.694  12.743  0.4384 -0.8595 -0.9844
42590SOL    HW234886   4.316   4.675  12.751  0.3880 -0.4798  1.8187
42591SOL     OW34887   8.839   8.524   0.123  0.3134 -0.0831 -0.2321
42591SOL    HW134888   8.854   8.458   0.055  3.0168  0.1318  0.0556
42591SOL    HW234889   8.915   8.517   0.180 -0.5701  1.6140  1.2344
42592SOL     OW34890   0.874  12.687  12.225  0.3823 -0.0415 -0.3221
42592SOL    HW134891   0.897  12.729  12.308 -0.1285  1.5729 -0.9388
42592SOL    HW234892   0.781  12.666  12.234  0.2762  0.3155 -0.5312
42593SOL     OW34893   1.570  11.854   1.135  0.1905  0.1701 -0.4759
42593SOL    HW134894   1.486  11.898   1.118  0.0768  0.0303 -0.2772
42593SOL    HW234895   1.549  11.760   1.129  0.0041  0.0833  1.0671
42594SOL     OW34896  10.061   4.081   9.113 -0.0717 -0.1612 -0.2353
42594SOL    HW134897  10.030   4.117   9.030  0.3320  0.4157 -0.1427
42594SOL    HW234898  10.145   4.040   9.092 -0.7088 -1.3983 -0.4138
42595SOL     OW34899  11.891  11.581   7.410  0.2372  1.1250 -0.3400
42595SOL    HW134900  11.805  11.610   7.378  0.4390  1.1286 -0.8976
42595SOL    HW234901  11.881  11.575   7.505 -0.9982 -0.8913 -0.5368
42596SOL     OW34902  12.016  11.055   8.586  0.2358  0.0078  0.0290
42596SOL    HW134903  12.000  11.087   8.497  1.3311  0.3966 -0.0539
42596SOL    HW234904  12.107  11.026   8.584  0.6380  1.0810  1.3212
42597SOL     OW34905   3.292  11.287   4.325  0.7016  0.2980 -0.3928
42597SOL    HW134906   3.352  11.359   4.305 -1.2059  1.9740 -0.3798
42597SOL    HW234907   3.280  11.241   4.242  1.4088  0.4045 -0.5573
42598SOL     OW34908  10.591   2.494   5.042 -0.1252 -0.7536 -0.1146
42598SOL    HW134909  10.498   2.474   5.056 -0.7077  1.9456  0.5477
42598SOL    HW234910  10.614   2.448   4.962 -2.4972 -0.3248 -1.1413
42599SOL     OW34911  11.102   4.483   1.827  0.3433  0.0241 -0.3737
42599SOL    HW134912  11.167   4.471   1.758 -0.1736 -0.1933 -0.8260
42599SOL    HW234913  11.075   4.395   1.851 -1.8064  0.1291 -2.1302
42600SOL     OW34914   8.075   5.767   6.841 -0.8556  0.4747  0.3100
42600SOL    HW134915   8.098   5.832   6.908 -2.2521  1.5302 -0.1840
42600SOL    HW234916   8.058   5.687   6.891  1.5065  0.2594  0.8750
42601SOL     OW34917  11.060   2.858   4.738  0.0810 -0.2143  0.5963
42601SOL    HW134918  11.056   2.905   4.654  0.4833 -0.8940  0.1871
42601SOL    HW234919  11.092   2.923   4.800 -0.5412  0.3915  0.2988
42602SOL     OW34920   6.127  10.523   1.521  0.7475  0.0862  0.1610
42602SOL    HW134921   6.075  10.503   1.598 -0.0964 -0.4649 -0.5393
42602SOL    HW234922   6.064  10.534   1.450  1.3548  2.5321 -0.0889
42603SOL     OW34923   0.588   0.769   9.383 -0.1338  0.2872  0.6248
42603SOL    HW134924   0.547   0.682   9.386  0.1436  0.1742  2.1668
42603SOL    HW234925   0.520   0.827   9.418 -0.8930  0.9885 -1.8179
42604SOL     OW34926  11.798   5.313   8.106 -0.1051 -0.5192 -0.5567
42604SOL    HW134927  11.725   5.308   8.168 -0.6732 -1.3449 -1.2657
42604SOL    HW234928  11.869   5.264   8.149 -0.4395 -0.9506 -0.4824
42605SOL     OW34929   6.956  10.146   2.672 -0.4453 -0.4502 -0.2914
42605SOL    HW134930   7.018  10.101   2.614 -1.6525 -0.6018 -1.5345
42605SOL    HW234931   7.011  10.191   2.736  1.1098  1.5404 -2.8349
42606SOL     OW34932   9.030   2.028   9.182 -0.1204 -0.0081  0.1185
42606SOL    HW134933   9.071   2.061   9.102  1.7190 -2.8197 -0.2647
42606SOL    HW234934   8.937   2.046   9.171 -0.0513 -0.9481 -3.0944
42607SOL     OW34935   7.619   1.071   3.683 -0.1730  0.0274 -0.1298
42607SOL    HW134936   7.705   1.035   3.663 -0.4928  0.3901 -2.4237
42607SOL    HW234937   7.565   1.050   3.607 -2.1928 -0.3395  1.3181
42608SOL     OW34938   1.062   8.802  12.792 -0.4686  0.0793 -0.4817
42608SOL    HW134939   1.154   8.775  12.785 -0.1836  0.9042  0.0008
42608SOL    HW234940   1.054   8.839  12.879 -1.5486 -1.0207 -0.0830
42609SOL     OW34941   4.191   6.347   9.855 -0.4870 -0.0897 -0.3727
42609SOL    HW134942   4.207   6.391   9.772 -0.3952 -1.1253 -0.9213
42609SOL    HW234943   4.097   6.362   9.872 -0.9911 -1.5360 -1.6880
42610SOL     OW34944  11.540   6.758   4.260 -0.3086 -0.1198  0.0987
42610SOL    HW134945  11.523   6.739   4.167 -1.2968 -1.1322  0.4742
42610SOL    HW234946  11.510   6.848   4.272  1.9572  0.8787 -1.0828
42611SOL     OW34947   1.187   8.457   2.548 -0.7692  0.1199 -0.0710
42611SOL    HW134948   1.179   8.525   2.482 -1.1934 -0.6463 -0.8284
42611SOL    HW234949   1.279   8.458   2.574 -0.9816  1.7259  0.7630
42612SOL     OW34950   5.886  11.308   0.198 -0.4754  0.5904  0.3986
42612SOL    HW134951   5.791  11.316   0.197 -0.4280  1.2135 -0.5609
42612SOL    HW234952   5.908  11.274   0.112  0.2325  1.2644  0.3067
42613SOL     OW34953  12.858   2.687  12.951  0.3337  0.1027  0.3074
42613SOL    HW134954  12.842   2.781  12.937 -0.1763 -0.0293 -0.0015
42613SOL    HW234955  12.777   2.644  12.925  1.1331 -0.5624 -1.2205
42614SOL     OW34956  12.512   0.454   9.215  0.0740  0.0205 -0.2232
42614SOL    HW134957  12.576   0.449   9.144  0.4656 -0.7181  0.1581
42614SOL    HW234958  12.428   0.432   9.174  0.4167 -1.1960 -0.3280
42615SOL     OW34959  11.424   1.145  10.951 -0.0070 -0.0032  0.1466
42615SOL    HW134960  11.469   1.193  11.021  0.7057 -1.7145  0.9072
42615SOL    HW234961  11.376   1.213  10.903  0.7132  1.4218  1.3497
42616SOL     OW34962   6.859   7.133   9.651 -0.0819  0.0611 -0.2135
42616SOL    HW134963   6.948   7.137   9.617 -0.2174  2.0865 -0.3994
42616SOL    HW234964   6.815   7.209   9.613 -1.8436 -0.7858  0.0360
42617SOL     OW34965   2.975  11.970   5.901  0.1088 -0.4396 -0.8151
42617SOL    HW134966   2.912  12.037   5.872 -0.3280  1.1821  3.1886
42617SOL    HW234967   2.946  11.890   5.857 -2.1623  1.0726 -2.3396
42618SOL     OW34968  11.816   2.396   9.775  0.8805 -0.5203 -0.0251
42618SOL    HW134969  11.797   2.345   9.696  0.1957 -0.1885 -0.0848
42618SOL    HW234970  11.730   2.427   9.805  1.0672 -1.0726  1.1527
42619SOL     OW34971   2.387   2.600   9.120 -0.4928  0.6837 -0.4137
42619SOL    HW134972   2.445   2.534   9.157 -0.5893  0.7643 -0.1141
42619SOL    HW234973   2.438   2.641   9.050 -0.3778  0.3986 -0.4974
42620SOL     OW34974   0.537   1.621   8.425 -0.0780 -0.4909 -0.0906
42620SOL    HW134975   0.486   1.686   8.474 -0.2997 -0.0628 -0.8594
42620SOL    HW234976   0.627   1.651   8.434 -0.1463 -0.2515 -0.1705
42621SOL     OW34977   3.174   5.083  12.775 -0.1958 -0.0463 -0.0919
42621SOL    HW134978   3.254   5.035  12.797  0.8977  2.4456  1.9380
42621SOL    HW234979   3.106   5.040  12.826  0.3308 -0.7585  0.0247
42622SOL     OW34980   3.825   9.101   2.056  0.5254  0.0870 -0.5038
42622SOL    HW134981   3.918   9.113   2.036  0.2916  0.6132 -1.3049
42622SOL    HW234982   3.779   9.146   1.985 -0.3467 -0.5277 -0.3445
42623SOL     OW34983   6.451   6.801   1.006  0.4813 -0.0943 -0.2233
42623SOL    HW134984   6.362   6.837   1.003  0.2538 -0.7122 -1.4615
42623SOL    HW234985   6.505   6.873   1.038 -0.3080  0.6299 -0.4877
42624SOL     OW34986   3.767   8.451   4.747  0.1483  0.4666 -0.2061
42624SOL    HW134987   3.694   8.498   4.787 -1.1383  0.4225 -2.3323
42624SOL    HW234988   3.740   8.438   4.656  3.3732  1.7039 -1.5013
42625SOL     OW34989   3.491  12.149   2.277  0.7562  0.2766 -0.3408
42625SOL    HW134990   3.464  12.187   2.361  0.6595 -1.7586  0.6158
42625SOL    HW234991   3.548  12.076   2.301 -0.8973 -1.6586 -1.9056
42626SOL     OW34992  11.939   3.922   8.156 -0.1644 -0.8979  0.5081
42626SOL    HW134993  11.846   3.921   8.178 -0.1492 -0.1979  0.6368
42626SOL    HW234994  11.983   3.924   8.241 -0.0674  0.1483  0.4423
42627SOL     OW34995   6.267   9.491   3.375  0.0859 -0.2787 -0.1890
42627SOL    HW134996   6.254   9.400   3.348  2.0890 -0.0824 -2.0706
42627SOL    HW234997   6.183   9.534   3.356 -1.9006 -2.1541  3.2939
42628SOL     OW34998   2.008   5.164   1.009 -0.0390 -0.0931  0.3381
42628SOL    HW134999   2.009   5.072   0.981 -0.4823 -0.1532  0.4977
42628SOL    HW235000   1.917   5.179   1.036  0.1263  0.2723  0.7078
42629SOL     OW35001   2.130  11.288   4.053  0.3723 -0.3709 -0.4486
42629SOL    HW135002   2.106  11.335   3.974  0.0852 -1.1760 -0.8501
42629SOL    HW235003   2.065  11.218   4.061 -0.2444  0.3425  1.0886
42630SOL     OW35004   9.636   4.497   3.395  0.0716  0.0609 -0.4175
42630SOL    HW135005   9.608   4.524   3.482 -1.9310  0.3558 -1.1109
42630SOL    HW235006   9.654   4.579   3.349 -1.7950  0.0814 -1.1783
42631SOL     OW35007   3.057   3.906   5.184  0.0269 -0.5850 -0.7283
42631SOL    HW135008   2.965   3.921   5.165 -0.6225  0.6767  2.7186
42631SOL    HW235009   3.065   3.810   5.188 -1.4651 -0.7037  0.1969
42632SOL     OW35010   2.579   4.518   4.067  0.5556  0.0493  0.3275
42632SOL    HW135011   2.537   4.519   3.981 -2.4319 -0.8029  1.6473
42632SOL    HW235012   2.657   4.464   4.054  1.7471  2.1615 -2.3939
42633SOL     OW35013  10.348   0.844   5.666 -0.0231  0.3198  0.5698
42633SOL    HW135014  10.293   0.774   5.631 -0.7163  1.4697 -0.7222
42633SOL    HW235015  10.340   0.835   5.761 -0.2263 -1.2401  0.4244
42634SOL     OW35016   4.619   0.862  12.587  0.0555  0.3545 -0.0932
42634SOL    HW135017   4.594   0.769  12.586 -0.8988  0.5902  0.4292
42634SOL    HW235018   4.587   0.896  12.503 -1.3029  0.6127  0.4941
42635SOL     OW35019   7.860   2.390   7.142 -0.1082  0.1171  0.1745
42635SOL    HW135020   7.843   2.351   7.228 -0.2990 -1.2448 -0.4521
42635SOL    HW235021   7.871   2.315   7.083 -1.4176  0.9821 -1.2764
42636SOL     OW35022   1.248   5.226   3.449  0.2347 -0.0622  0.0802
42636SOL    HW135023   1.196   5.160   3.493 -0.2732 -0.2933 -0.8369
42636SOL    HW235024   1.266   5.189   3.363  1.3378  0.3032  0.1306
42637SOL     OW35025  12.058   5.270   2.957 -0.1074 -0.0243 -0.7582
42637SOL    HW135026  12.118   5.242   2.887 -0.0526 -2.1832  0.1107
42637SOL    HW235027  12.110   5.265   3.037 -0.6654  0.7992 -0.3279
42638SOL     OW35028   0.641   7.309   1.455 -0.3677  0.1010  0.0374
42638SOL    HW135029   0.670   7.336   1.368 -0.0535 -1.9040 -0.5310
42638SOL    HW235030   0.722   7.305   1.507 -0.5710  1.4336  0.4989
42639SOL     OW35031   2.631   2.252   9.443 -0.0275  0.7659 -0.4927
42639SOL    HW135032   2.540   2.279   9.456 -0.3048 -0.8152  1.4032
42639SOL    HW235033   2.672   2.266   9.528  1.3558  0.9089 -1.1680
42640SOL     OW35034   2.178   0.350   6.606 -0.4730 -0.0288  0.2046
42640SOL    HW135035   2.196   0.257   6.606 -1.5624 -0.2575  0.0406
42640SOL    HW235036   2.202   0.379   6.695 -2.5783 -1.0082  1.1653
42641SOL     OW35037  10.326   5.087   5.033  0.2598 -0.1152  0.0691
42641SOL    HW135038  10.344   5.015   5.095  2.1630 -2.1717 -2.5972
42641SOL    HW235039  10.272   5.047   4.965 -1.0885  1.8359 -0.0730
42642SOL     OW35040   5.817   8.602  12.191  0.1104  0.1018  0.0435
42642SOL    HW135041   5.781   8.670  12.134  0.7004  0.0290 -0.4157
42642SOL    HW235042   5.856   8.650  12.264  1.8211  0.3469 -1.0046
42643SOL     OW35043  12.032   1.562  11.935 -0.2073  0.0999  0.3147
42643SOL    HW135044  12.068   1.628  11.994 -0.8374 -1.2354  2.3264
42643SOL    HW235045  11.941   1.590  11.922  0.6857  2.0618 -2.6572
42644SOL     OW35046   4.339   8.840   1.544 -0.6910  0.0467  0.0274
42644SOL    HW135047   4.357   8.926   1.506  1.6320  0.3611  1.5665
42644SOL    HW235048   4.423   8.794   1.538 -0.3801 -0.1595  3.8363
42645SOL     OW35049   2.597  12.187   9.084 -0.0463  0.0995 -0.4036
42645SOL    HW135050   2.511  12.185   9.127  0.3698  0.3463  0.4505
42645SOL    HW235051   2.576  12.203   8.992 -0.9412 -0.2883 -0.2828
42646SOL     OW35052   4.963   7.523   3.470  0.6890 -0.9616 -0.6482
42646SOL    HW135053   4.929   7.457   3.409 -4.0500  1.1835 -0.7151
42646SOL    HW235054   4.902   7.521   3.544  1.6087  1.8736  0.3080
42647SOL     OW35055   5.113   1.327   7.745  0.0574  0.0069 -0.3457
42647SOL    HW135056   5.110   1.241   7.788  2.3260 -0.6967 -1.4684
42647SOL    HW235057   5.127   1.307   7.653 -0.0373  1.5874 -0.7300
42648SOL     OW35058   0.337   1.033   1.918 -0.1471  0.1051 -0.3964
42648SOL    HW135059   0.386   0.955   1.943 -0.7740 -0.5304 -1.1147
42648SOL    HW235060   0.313   1.018   1.827 -1.7767  0.3379 -0.0339
42649SOL     OW35061   4.583  11.002   6.169  0.0576 -0.2620 -0.6467
42649SOL    HW135062   4.566  10.927   6.111 -0.0834 -0.3393 -0.5048
42649SOL    HW235063   4.678  11.014   6.165  0.1779 -0.9548 -0.0421
42650SOL     OW35064   8.484   5.622   0.026  0.4406  0.4300  0.1347
42650SOL    HW135065   8.513   5.713   0.032  1.3298  0.3062 -1.4876
42650SOL    HW235066   8.453   5.600   0.113 -1.0493  2.6983  0.2549
42651SOL     OW35067   9.515   3.918   0.452 -0.2470 -0.2259  0.2045
42651SOL    HW135068   9.596   3.953   0.414 -0.5199  0.7896  0.5325
42651SOL    HW235069   9.525   3.823   0.446  1.0320 -0.1203  0.3650
42652SOL     OW35070   4.140   8.575  11.813 -0.5692 -0.1731 -0.1688
42652SOL    HW135071   4.052   8.606  11.836 -0.8284 -0.7969 -0.2972
42652SOL    HW235072   4.197   8.650  11.829 -1.1046  0.1884  0.0669
42653SOL     OW35073   8.426  11.866   9.066  0.3919  0.5014 -0.9347
42653SOL    HW135074   8.381  11.832   9.144  1.7060 -2.6945 -1.4250
42653SOL    HW235075   8.516  11.834   9.075  0.7483  0.6686 -3.4050
42654SOL     OW35076  11.677   2.263   1.814  0.0979  0.5481 -0.1773
42654SOL    HW135077  11.606   2.323   1.833 -2.2382 -1.2589 -2.4183
42654SOL    HW235078  11.657   2.185   1.866  0.7448  0.1944 -0.4448
42655SOL     OW35079   5.301   4.135   7.549  0.2531  0.3400  0.4087
42655SOL    HW135080   5.215   4.144   7.510 -0.3818 -0.8809  1.4562
42655SOL    HW235081   5.320   4.221   7.587  0.2659  1.1136 -1.2759
42656SOL     OW35082  10.894  12.239   1.019  0.2266  0.8107 -0.2944
42656SOL    HW135083  10.874  12.285   1.101  0.4672 -0.5758  0.5827
42656SOL    HW235084  10.832  12.166   1.017  0.3560  0.7137 -1.2677
42657SOL     OW35085   7.306   1.839  12.295 -0.2350 -0.0919 -0.1179
42657SOL    HW135086   7.371   1.900  12.330 -0.0438 -0.5441  0.3175
42657SOL    HW235087   7.357   1.768  12.257 -0.4683 -0.6598  0.6045
42658SOL     OW35088   8.457   9.946  10.321 -0.3543 -0.3477  0.5194
42658SOL    HW135089   8.397   9.876  10.348 -1.1336  0.1834  0.1948
42658SOL    HW235090   8.515   9.905  10.257 -1.4156 -0.4724 -0.3870
42659SOL     OW35091  10.344   3.249   0.382 -0.1522  0.0980 -0.2052
42659SOL    HW135092  10.302   3.175   0.425 -1.1942  0.1789 -1.0436
42659SOL    HW235093  10.276   3.316   0.378  0.1387  0.3476 -1.2937
42660SOL     OW35094   5.349   4.483  10.401 -0.2972  0.3326 -0.1535
42660SOL    HW135095   5.282   4.431  10.446  1.0931 -0.6547  0.8782
42660SOL    HW235096   5.359   4.441  10.316 -0.5774  0.1149 -0.0809
42661SOL     OW35097   0.849   9.710   1.973  0.3036  0.2276 -0.8006
42661SOL    HW135098   0.824   9.798   1.999 -0.9618 -0.8483  2.0696
42661SOL    HW235099   0.790   9.688   1.901 -0.4593  1.1801 -0.4839
42662SOL     OW35100   8.757   0.100   9.895 -0.4591  0.8682 -0.4525
42662SOL    HW135101   8.695   0.048   9.845 -0.3714 -0.3482  0.6724
42662SOL    HW235102   8.781   0.045   9.970 -0.0382  2.3430  0.5488
42663SOL     OW35103  12.734  10.857   4.115 -0.5929 -0.2711  0.0307
42663SOL    HW135104  12.689  10.857   4.031  2.1025 -0.5028 -1.5519
42663SOL    HW235105  12.808  10.917   4.102  0.7829 -1.5001  1.7027
42664SOL     OW35106   9.928   6.229   4.504 -0.5133  0.0985  0.2007
42664SOL    HW135107   9.835   6.245   4.492 -0.4490 -0.0096 -0.4803
42664SOL    HW235108   9.969   6.262   4.424 -0.2589 -2.2881 -0.7691
42665SOL     OW35109  12.557   9.485  10.649 -0.0424  0.5423 -0.2920
42665SOL    HW135110  12.488   9.500  10.713 -0.5793 -0.8393 -0.5100
42665SOL    HW235111  12.632   9.457  10.701 -0.4540 -0.5040 -0.2440
42666SOL     OW35112   7.206   9.126   8.274 -0.3587  0.0525 -0.3658
42666SOL    HW135113   7.281   9.174   8.240  0.3955 -1.6240 -1.1860
42666SOL    HW235114   7.235   9.092   8.359 -0.7333  0.6324  0.0049
42667SOL     OW35115   1.193   6.326   5.824  0.7690  0.6980 -0.4996
42667SOL    HW135116   1.210   6.385   5.751 -1.1889  0.9046 -0.8457
42667SOL    HW235117   1.160   6.383   5.894 -1.1146  0.0842 -0.8286
42668SOL     OW35118   2.473   0.002  12.079  0.1200 -0.4316  0.1350
42668SOL    HW135119   2.493  -0.089  12.103 -0.5872 -0.8072 -0.6609
42668SOL    HW235120   2.425  -0.005  11.997  0.5474  0.7020 -0.2301
42669SOL     OW35121   5.392   3.466   4.558  0.0546  0.2212 -0.1084
42669SOL    HW135122   5.424   3.495   4.644  0.2136  1.0024 -0.4212
42669SOL    HW235123   5.442   3.518   4.495 -0.3026 -0.0999 -0.6672
42670SOL     OW35124   8.254   6.246   3.160  0.5210 -0.3057  0.0946
42670SOL    HW135125   8.225   6.245   3.251  0.7532 -0.7252  0.1644
42670SOL    HW235126   8.174   6.234   3.109  0.4496 -0.5088  0.2568
42671SOL     OW35127   1.611   2.746  12.366  0.4637 -0.3643  0.0684
42671SOL    HW135128   1.533   2.729  12.420 -0.1339  1.4465 -0.1345
42671SOL    HW235129   1.598   2.694  12.287 -0.1425 -0.7062  0.3854
42672SOL     OW35130   3.135   1.987   4.488 -0.1595 -0.0986 -0.0586
42672SOL    HW135131   3.124   1.969   4.581 -0.9567 -0.4729 -0.2205
42672SOL    HW235132   3.105   1.907   4.444  2.8297 -1.1027 -0.5701
42673SOL     OW35133   9.133   5.310   6.071 -0.3300  0.0471 -1.0687
42673SOL    HW135134   9.195   5.372   6.110 -0.1021 -0.9918  0.3163
42673SOL    HW235135   9.111   5.348   5.986  0.2189  1.7345 -0.5003
42674SOL     OW35136   3.562   3.718   2.034 -0.3313  0.0814 -0.1406
42674SOL    HW135137   3.574   3.803   2.075  0.9823 -0.3166  0.3558
42674SOL    HW235138   3.648   3.677   2.038 -0.7122 -0.8954 -1.2330
42675SOL     OW35139   3.220   1.884   5.467  0.1467  0.1526  0.1829
42675SOL    HW135140   3.292   1.888   5.404 -0.4752  0.9399 -0.4877
42675SOL    HW235141   3.215   1.973   5.502 -0.2575  0.0016  0.5051
42676SOL     OW35142   7.365   8.967   9.908  0.0669 -0.1426  0.0109
42676SOL    HW135143   7.319   9.012   9.979  1.7475 -1.0205  1.7622
42676SOL    HW235144   7.457   8.971   9.934  0.6913 -0.8162 -1.9770
42677SOL     OW35145   9.426   4.950   9.604  0.6581  0.2745 -0.3770
42677SOL    HW135146   9.435   5.014   9.534  1.0873  0.5084 -0.1147
42677SOL    HW235147   9.332   4.934   9.611  0.3671  2.1588  0.6790
42678SOL     OW35148   0.819  12.066   6.067  0.0462 -0.3772 -0.2918
42678SOL    HW135149   0.845  12.157   6.062 -0.3409 -0.1880  0.7872
42678SOL    HW235150   0.859  12.025   5.990  0.7579  0.5588 -0.4410
42679SOL     OW35151  12.183   0.567   5.241 -0.6097  0.2619 -0.5358
42679SOL    HW135152  12.171   0.577   5.336  0.9042 -0.4469 -0.2392
42679SOL    HW235153  12.145   0.647   5.204 -0.7173  0.8236  0.7120
42680SOL     OW35154   5.604   5.925   8.047 -0.0727 -0.6901  0.9009
42680SOL    HW135155   5.667   5.977   7.997 -0.7123 -1.4720 -0.7818
42680SOL    HW235156   5.636   5.930   8.137  2.1189 -0.6601  0.1849
42681SOL     OW35157   5.660   8.871  12.434  0.3629 -0.1440 -0.3184
42681SOL    HW135158   5.677   8.877  12.528 -1.4330  1.0418 -0.0186
42681SOL    HW235159   5.636   8.780  12.419  2.5151 -0.8078 -0.0111
42682SOL     OW35160  10.616   1.282  12.851  0.1309  0.0828  0.3122
42682SOL    HW135161  10.611   1.196  12.809  0.0772 -0.2882  1.0704
42682SOL    HW235162  10.709   1.297  12.863  0.0983 -0.8057  2.0385
42683SOL     OW35163   3.395   1.533  10.031  0.1971 -0.0913 -0.0020
42683SOL    HW135164   3.300   1.539  10.032  0.2346  0.4634  0.4995
42683SOL    HW235165   3.425   1.622  10.017  0.6350 -0.4278 -1.4048
42684SOL     OW35166   7.881   4.228   3.532  0.2426 -0.5964 -0.3496
42684SOL    HW135167   7.907   4.244   3.623  1.2773  1.4473 -0.9514
42684SOL    HW235168   7.797   4.182   3.539 -0.1813  0.3566  1.6409
42685SOL     OW35169   8.450   4.379   7.515  0.2566  0.0193  0.3415
42685SOL    HW135170   8.408   4.386   7.601  0.0811  2.3581  0.1327
42685SOL    HW235171   8.393   4.429   7.456  0.8164 -0.8306 -0.9790
42686SOL     OW35172  10.523  11.173  12.811 -0.8496 -0.0777 -0.3233
42686SOL    HW135173  10.437  11.208  12.787 -2.1084 -0.7960  2.6913
42686SOL    HW235174  10.557  11.234  12.876 -0.6317 -1.5439  0.9941
42687SOL     OW35175   1.662  10.866   5.327  0.2030 -0.7473 -0.3805
42687SOL    HW135176   1.635  10.925   5.398 -1.9045 -1.0526 -0.8600
42687SOL    HW235177   1.691  10.787   5.372  0.3766 -0.3605  0.1937
42688SOL     OW35178   5.303  10.492   4.685 -0.3499  0.3372 -0.4776
42688SOL    HW135179   5.392  10.525   4.670 -1.1094  2.0592 -1.4866
42688SOL    HW235180   5.258  10.564   4.729 -1.0556 -0.8071  0.7231
42689SOL     OW35181  12.018   0.198   7.841 -0.3600 -0.2351  0.7125
42689SOL    HW135182  11.940   0.250   7.861 -1.0536 -1.0590  0.2135
42689SOL    HW235183  12.089   0.263   7.833 -1.2112  0.6351  0.0422
42690SOL     OW35184   9.671   4.484   2.661  0.1980 -0.3873 -0.3637
42690SOL    HW135185   9.733   4.418   2.693  0.8348  0.0849 -0.6113
42690SOL    HW235186   9.723   4.564   2.654 -0.6076  0.1930  0.0984
42691SOL     OW35187   5.027  11.265   9.038 -0.1480  0.2093 -0.2411
42691SOL    HW135188   5.023  11.261   8.942  1.3772 -1.0080 -0.3038
42691SOL    HW235189   5.062  11.179   9.063 -2.1013 -0.1350  1.5392
42692SOL     OW35190  11.172   7.140   8.962  0.3285 -0.0906  0.0333
42692SOL    HW135191  11.214   7.226   8.961  0.8051 -0.3233 -0.4010
42692SOL    HW235192  11.117   7.141   9.040 -1.7862  1.6105 -1.3257
42693SOL     OW35193   0.301   1.701  11.705 -0.6250  0.3139  0.3646
42693SOL    HW135194   0.355   1.764  11.753  2.5622 -1.7823 -0.1750
42693SOL    HW235195   0.276   1.636  11.771 -2.9833  1.4561  0.6909
42694SOL     OW35196   7.802   9.801  10.683  0.4379 -0.0620 -0.3264
42694SOL    HW135197   7.819   9.880  10.632 -1.4288  0.4447 -0.2663
42694SOL    HW235198   7.808   9.831  10.774  0.5506 -0.1863 -0.2933
42695SOL     OW35199   8.957   4.720   3.383 -0.0094 -0.1765  0.0441
42695SOL    HW135200   9.023   4.790   3.389 -0.2567  0.1077 -0.5044
42695SOL    HW235201   8.960   4.693   3.291 -0.6772 -0.1421  0.0121
42696SOL     OW35202  11.567  12.722   9.997 -0.1125  0.6249  0.1434
42696SOL    HW135203  11.600  12.649   9.946  0.3630  1.3712 -0.6510
42696SOL    HW235204  11.634  12.790   9.988  1.0871  0.0780  3.5571
42697SOL     OW35205   9.946   8.739  10.610  0.2241  0.0858 -0.2964
42697SOL    HW135206   9.950   8.674  10.681 -0.0718  2.4564  2.0379
42697SOL    HW235207  10.017   8.714  10.551  1.9301 -0.8119  1.9651
42698SOL     OW35208   2.091   2.583   6.177 -0.2368  0.1486  0.2671
42698SOL    HW135209   2.005   2.578   6.136  0.1377 -0.6182 -0.4500
42698SOL    HW235210   2.101   2.676   6.200 -0.4679  0.6135 -1.3884
42699SOL     OW35211   5.550  12.313  11.006 -0.9415 -0.7661 -0.4083
42699SOL    HW135212   5.492  12.387  11.022 -0.3706 -0.7906  2.4176
42699SOL    HW235213   5.638  12.349  11.020 -0.6746 -1.9906  1.3947
42700SOL     OW35214  11.661   6.677  11.875  0.2910  0.5089 -0.7445
42700SOL    HW135215  11.736   6.631  11.839  0.9735 -0.9116  2.2352
42700SOL    HW235216  11.589   6.614  11.869  0.6367 -0.1101  1.0945
42701SOL     OW35217   5.884  10.101   7.006  0.0426 -0.2382  0.1956
42701SOL    HW135218   5.947  10.110   7.077  1.0540 -1.3460 -0.5264
42701SOL    HW235219   5.821  10.173   7.020 -1.1175 -1.7080  3.4747
42702SOL     OW35220   4.667   2.547   8.425  0.6190 -0.5307 -0.2353
42702SOL    HW135221   4.648   2.465   8.470  1.7505 -0.3501  0.5985
42702SOL    HW235222   4.601   2.608   8.457  0.1363 -0.9491 -0.4179
42703SOL     OW35223   2.087   9.167   6.526  0.0261 -0.1491  0.3099
42703SOL    HW135224   2.147   9.111   6.477 -0.8125 -1.8350  1.1179
42703SOL    HW235225   2.101   9.142   6.618 -1.1706  0.1467  0.5909
42704SOL     OW35226  12.336   9.427   2.331  0.3831  0.3299  0.3220
42704SOL    HW135227  12.330   9.376   2.412 -0.7954  0.2360  0.1921
42704SOL    HW235228  12.268   9.493   2.340 -0.5704 -0.4149 -1.1051
42705SOL     OW35229   9.448  10.782   9.325  0.0351  0.3204 -0.4482
42705SOL    HW135230   9.410  10.756   9.241 -0.6539 -0.8709  0.2094
42705SOL    HW235231   9.502  10.708   9.351 -0.3396  0.3742  0.5110
42706SOL     OW35232  12.913   3.222   4.251  0.0486 -0.3316 -0.1539
42706SOL    HW135233  12.862   3.183   4.322 -0.6527 -0.4502 -0.7109
42706SOL    HW235234  12.849   3.239   4.182  0.4018  1.4718 -0.0840
42707SOL     OW35235   2.311   5.207   0.522 -0.2201 -0.3055 -0.9508
42707SOL    HW135236   2.229   5.162   0.540  0.6864 -1.7309 -0.2198
42707SOL    HW235237   2.371   5.138   0.495  1.1399  0.4771 -0.0587
42708SOL     OW35238   5.272   6.849   5.190 -0.3254  0.1729  0.1930
42708SOL    HW135239   5.331   6.863   5.116  0.2697  1.9012  0.9264
42708SOL    HW235240   5.266   6.754   5.199  1.0961 -0.0511 -0.8888
42709SOL     OW35241   9.633   2.865   3.499 -0.2210  0.3720 -0.1997
42709SOL    HW135242   9.542   2.844   3.521 -0.8245  1.2150 -1.6603
42709SOL    HW235243   9.682   2.785   3.518 -1.2011  0.0089  0.9356
42710SOL     OW35244   2.853   1.635  10.810  0.1553 -0.5856  0.2514
42710SOL    HW135245   2.785   1.581  10.849 -1.2740  0.6926 -0.3444
42710SOL    HW235246   2.855   1.608  10.718  0.2694 -0.4468  0.2133
42711SOL     OW35247  11.806   2.148   8.713  0.5918  0.1799  0.3659
42711SOL    HW135248  11.758   2.065   8.710  0.0619  0.4776  0.4117
42711SOL    HW235249  11.785   2.190   8.630  1.0166  0.1856  0.2601
42712SOL     OW35250   4.963   0.196   1.350 -0.3848 -0.4785 -0.5892
42712SOL    HW135251   4.911   0.166   1.275 -0.8729 -0.3662 -0.3031
42712SOL    HW235252   4.941   0.289   1.358  0.1040 -0.3574 -0.6569
42713SOL     OW35253   2.531   4.297  11.570  0.1529  0.2303  0.6911
42713SOL    HW135254   2.527   4.302  11.474 -1.0619  0.1503  0.7176
42713SOL    HW235255   2.530   4.203  11.589  4.0311  0.0291  0.7311
42714SOL     OW35256  12.935   0.861  11.013  0.3253 -0.0995  0.2555
42714SOL    HW135257  12.911   0.770  11.031 -0.2768 -0.0219 -0.1217
42714SOL    HW235258  12.872   0.913  11.063 -1.5152  0.1226 -2.1110
42715SOL     OW35259   5.236   3.858   0.202 -0.0825 -0.1588  0.2366
42715SOL    HW135260   5.157   3.851   0.257  0.4876  1.0398  1.2603
42715SOL    HW235261   5.230   3.783   0.143 -1.4186 -0.7342  1.0396
42716SOL     OW35262   3.530  11.960   8.544 -0.3127 -0.0708 -0.8452
42716SOL    HW135263   3.560  11.873   8.572  2.0602  1.2307  1.1336
42716SOL    HW235264   3.595  11.987   8.479 -0.0552  0.8033 -0.2521
42717SOL     OW35265   2.759   5.637   6.937 -1.0246 -0.2651  0.6212
42717SOL    HW135266   2.771   5.555   6.986 -0.7256  0.2521  1.4334
42717SOL    HW235267   2.815   5.700   6.982  1.0766 -0.2886 -1.7686
42718SOL     OW35268   0.267   4.463   8.802  0.0450 -0.1882 -0.8844
42718SOL    HW135269   0.216   4.432   8.727 -0.8252 -2.2915  0.4761
42718SOL    HW235270   0.208   4.452   8.877  1.4479  0.2966  0.3357
42719SOL     OW35271  12.731   9.485   5.353 -0.2952  0.2213  0.4397
42719SOL    HW135272  12.690   9.513   5.271 -0.5085 -0.0316  0.4586
42719SOL    HW235273  12.659   9.476   5.415 -0.8021 -3.8719 -0.5057
42720SOL     OW35274   1.129   3.800   6.817 -0.2704 -0.0582  0.2629
42720SOL    HW135275   1.109   3.790   6.724  0.7558 -1.5052  0.1524
42720SOL    HW235276   1.090   3.884   6.842 -0.5938  0.3334 -1.4560
42721SOL     OW35277  12.271  10.339   8.403 -0.1349  0.0551 -0.0812
42721SOL    HW135278  12.326  10.382   8.338 -1.1446  1.3000 -0.1449
42721SOL    HW235279  12.223  10.272   8.355  1.3457 -1.1207 -0.0084
42722SOL     OW35280   7.285  12.348   8.429 -0.6411 -0.3143  0.5905
42722SOL    HW135281   7.311  12.335   8.337  0.2892 -1.0227  0.9390
42722SOL    HW235282   7.315  12.436   8.450  1.1508 -0.9476  0.8452
42723SOL     OW35283   0.541   3.491   6.377 -0.4804 -0.5586  0.5704
42723SOL    HW135284   0.491   3.462   6.453 -1.2427 -0.3521  0.1594
42723SOL    HW235285   0.589   3.567   6.407 -1.8580  0.3867  0.4987
42724SOL     OW35286   4.593   5.646   8.922  0.1734  0.5360  0.4343
42724SOL    HW135287   4.561   5.562   8.957  1.7691 -0.9344 -1.4330
42724SOL    HW235288   4.664   5.670   8.982  0.3981  0.0007  0.3933
42725SOL     OW35289  12.919   3.470   2.008  0.5227  0.4551  0.0626
42725SOL    HW135290  12.908   3.553   1.961  0.6006  0.5492  0.2086
42725SOL    HW235291  12.924   3.404   1.939 -0.0473  0.5110 -0.0395
42726SOL     OW35292   5.973   9.268   8.805  0.5245 -0.0818 -0.3146
42726SOL    HW135293   5.957   9.181   8.770  1.2208 -1.1285  1.7705
42726SOL    HW235294   5.971   9.256   8.900  0.0944  2.2948  0.0414
42727SOL     OW35295   2.497   1.133   9.378  0.0964 -0.4752 -0.0191
42727SOL    HW135296   2.510   1.205   9.317 -2.0591  0.3784  0.4435
42727SOL    HW235297   2.402   1.124   9.384  0.2719 -1.3728  2.2369
42728SOL     OW35298  12.269   4.103  11.311 -0.2647  0.0531 -0.1757
42728SOL    HW135299  12.342   4.131  11.255  0.3348  0.4651  0.7858
42728SOL    HW235300  12.191   4.128  11.261  0.2032 -1.4963 -1.7819
42729SOL     OW35301   5.412   3.807   6.529 -0.0225  0.0312 -0.2150
42729SOL    HW135302   5.362   3.752   6.589  1.1376  0.7174  1.4462
42729SOL    HW235303   5.498   3.766   6.524 -0.0436  0.1002 -1.2543
42730SOL     OW35304   3.988  11.892  10.702  0.1175  1.0091 -0.4882
42730SOL    HW135305   3.901  11.905  10.663 -0.7294 -2.0871  0.0892
42730SOL    HW235306   3.996  11.963  10.766 -3.2501 -0.1053  1.4373
42731SOL     OW35307   6.438   1.191   7.445 -0.3133 -0.1315  0.0048
42731SOL    HW135308   6.484   1.184   7.362 -0.4070 -1.5751  0.0404
42731SOL    HW235309   6.354   1.232   7.423 -0.1586 -0.1036 -0.5349
42732SOL     OW35310   0.685   5.699   3.382 -0.6758 -0.1719 -0.1623
42732SOL    HW135311   0.620   5.631   3.362 -0.6013 -0.5575  0.8646
42732SOL    HW235312   0.762   5.651   3.411  0.5587  0.2104 -2.5468
42733SOL     OW35313   1.348   3.223   0.896  0.5546 -0.4997 -0.3291
42733SOL    HW135314   1.436   3.251   0.874  0.4608  0.7205  0.7480
42733SOL    HW235315   1.293   3.300   0.878 -0.5472 -1.6458 -2.3295
42734SOL     OW35316   2.185   1.705   9.037 -0.0166  0.1214  0.0548
42734SOL    HW135317   2.147   1.758   8.967  0.4275  1.1861  0.6003
42734SOL    HW235318   2.259   1.756   9.069 -0.8150  0.1438  1.9917
42735SOL     OW35319   3.983   5.033  11.267 -0.7802 -0.0908  0.4552
42735SOL    HW135320   4.002   4.946  11.302 -0.1612  0.1857  0.8218
42735SOL    HW235321   4.050   5.089  11.305 -1.0067  0.4977 -0.0016
42736SOL     OW35322   0.637   2.971  12.451  0.0815 -0.2695 -0.4196
42736SOL    HW135323   0.597   2.924  12.378  0.5109 -0.3815 -0.5788
42736SOL    HW235324   0.631   2.909  12.525  1.2600 -0.8538 -0.7884
42737SOL     OW35325   5.649  12.797   3.563 -0.3249  0.2596 -0.7947
42737SOL    HW135326   5.744  12.799   3.564 -0.2981 -0.8386 -0.6167
42737SOL    HW235327   5.626  12.709   3.534 -1.3035  1.0427 -2.5993
42738SOL     OW35328   7.588   0.858  11.596  0.2514 -0.0210  0.0341
42738SOL    HW135329   7.538   0.925  11.548  0.9515 -0.0739 -0.7853
42738SOL    HW235330   7.666   0.904  11.627  0.4472 -0.3236 -0.0130
42739SOL     OW35331   4.388   6.914   2.746 -0.1760 -0.4256 -0.0229
42739SOL    HW135332   4.475   6.915   2.705 -1.4304 -2.2360 -3.0294
42739SOL    HW235333   4.378   6.824   2.778 -1.5772 -0.7793 -1.3436
42740SOL     OW35334   7.085  10.028  10.084 -0.2027 -0.1508 -0.1174
42740SOL    HW135335   7.158   9.999  10.030  0.1841  0.3198  0.1443
42740SOL    HW235336   7.045  10.100  10.036  0.1249  0.2511  0.2097
42741SOL     OW35337   9.551   4.571   4.611  0.1828 -0.3587 -0.4084
42741SOL    HW135338   9.598   4.604   4.688 -0.1734 -0.6791 -0.0431
42741SOL    HW235339   9.481   4.634   4.597  1.8312  1.1938 -2.1439
42742SOL     OW35340   0.340   0.147  11.669 -0.3033  0.9179 -0.7692
42742SOL    HW135341   0.347   0.057  11.698 -0.4893  0.2286 -2.7119
42742SOL    HW235342   0.396   0.152  11.591 -0.7301  2.3105 -1.0202
42743SOL     OW35343   1.051   6.886   9.330 -0.1558 -0.1671  0.1124
42743SOL    HW135344   1.058   6.894   9.425  0.3379  0.9818 -0.0154
42743SOL    HW235345   1.048   6.791   9.315 -0.8494 -0.3543  1.3026
42744SOL     OW35346   8.287  11.222   7.413  0.3317 -0.1203  0.5174
42744SOL    HW135347   8.236  11.303   7.411 -0.2748 -0.4597  1.5222
42744SOL    HW235348   8.378  11.251   7.426  0.1173  0.3937  0.8883
42745SOL     OW35349   0.081   4.683   2.917 -0.0417  0.1973 -0.7037
42745SOL    HW135350   0.141   4.641   2.978 -0.6044 -0.7222 -0.7577
42745SOL    HW235351   0.006   4.710   2.972 -0.4399 -0.4123 -0.9408
42746SOL     OW35352   9.050   8.433   9.183 -0.1691  0.1829 -0.0301
42746SOL    HW135353   8.968   8.388   9.166  0.4436 -1.7854  1.8966
42746SOL    HW235354   9.030   8.526   9.169 -2.4421 -0.3329 -0.4872
42747SOL     OW35355   0.769   8.987   2.599 -0.1827  0.3093 -0.6292
42747SOL    HW135356   0.739   8.901   2.630  0.9390 -0.3425 -1.2705
42747SOL    HW235357   0.690   9.039   2.592 -0.8437 -0.5546  0.1395
42748SOL     OW35358  12.937   4.909   3.615  0.1294 -0.0603 -0.0521
42748SOL    HW135359  12.867   4.970   3.635  0.2746  0.2875 -0.5832
42748SOL    HW235360  12.978   4.890   3.700  0.2848  0.8252  0.0837
42749SOL     OW35361  12.802   1.873   7.108  0.4552 -0.4927  0.0178
42749SOL    HW135362  12.824   1.943   7.169 -0.0034  1.3803 -1.8774
42749SOL    HW235363  12.867   1.805   7.126 -0.5019 -0.6864  3.5068
42750SOL     OW35364   7.607   9.704  12.012  0.9371 -0.4176 -0.3774
42750SOL    HW135365   7.608   9.768  11.940  0.4999  0.1027  0.0647
42750SOL    HW235366   7.630   9.756  12.089  0.3599 -0.7482  0.0233
42751SOL     OW35367   8.268   5.494   4.122  0.1096 -0.0008  0.5003
42751SOL    HW135368   8.299   5.515   4.035  1.0228 -0.5179  0.6929
42751SOL    HW235369   8.177   5.466   4.109 -0.0902  0.9226 -0.1394
42752SOL     OW35370   3.303  12.544   6.188 -0.0308  0.0375  0.2698
42752SOL    HW135371   3.360  12.586   6.124  2.3290  0.0468  2.2560
42752SOL    HW235372   3.292  12.610   6.257 -1.2431 -0.5174  0.6285
42753SOL     OW35373  11.349   8.549   7.096 -0.1905 -0.3940  0.0891
42753SOL    HW135374  11.414   8.560   7.027  1.5578 -1.1126  1.5235
42753SOL    HW235375  11.318   8.637   7.115 -0.2719 -0.1284 -1.1900
42754SOL     OW35376   7.261   4.704   6.893 -0.2395 -0.2084  0.2222
42754SOL    HW135377   7.229   4.768   6.956  0.7465  0.4026  0.1284
42754SOL    HW235378   7.304   4.756   6.825  2.8271 -0.9697  1.3989
42755SOL     OW35379   8.915   5.219   9.479  0.2771  0.3089 -0.3952
42755SOL    HW135380   8.991   5.267   9.512  0.7632 -0.5493 -0.2536
42755SOL    HW235381   8.949   5.166   9.407 -0.3953  0.6824 -1.0044
42756SOL     OW35382   2.501   2.544   6.564  0.5626 -0.4055  0.0088
42756SOL    HW135383   2.586   2.588   6.570  0.5717 -0.4928  0.5017
42756SOL    HW235384   2.496   2.515   6.472  1.0148 -0.3041 -0.0512
42757SOL     OW35385   7.615  10.270  12.363 -0.3230  0.3232 -0.6514
42757SOL    HW135386   7.642  10.361  12.357 -1.5516  0.8223  0.8843
42757SOL    HW235387   7.693  10.224  12.393 -0.2093  1.2096  0.4937
42758SOL     OW35388   9.905   8.058   1.781  0.0677  0.6080  0.3860
42758SOL    HW135389   9.993   8.027   1.802  0.0150  0.2527  0.0916
42758SOL    HW235390   9.899   8.145   1.822 -0.3785 -0.4405  2.7041
42759SOL     OW35391   9.278   2.788   9.630  0.2042 -0.2524  0.7197
42759SOL    HW135392   9.306   2.879   9.620  0.4167 -0.2929  0.9291
42759SOL    HW235393   9.244   2.784   9.720  1.3273 -0.6668  1.1522
42760SOL     OW35394  12.775  11.360   8.332  0.5106  0.3194 -0.6930
42760SOL    HW135395  12.849  11.403   8.289  1.0364  0.0473 -0.0655
42760SOL    HW235396  12.795  11.267   8.328  0.2971  0.2587 -0.3377
42761SOL     OW35397   8.713   5.556   8.327  0.5451  0.6812  0.4380
42761SOL    HW135398   8.785   5.619   8.326 -1.2290  2.8168  0.1659
42761SOL    HW235399   8.643   5.599   8.375 -1.0796 -0.7098 -0.5393
42762SOL     OW35400   0.338  10.268   9.843  0.4007 -0.7387  0.1883
42762SOL    HW135401   0.256  10.244   9.799  0.2459  1.3988 -0.8051
42762SOL    HW235402   0.312  10.334   9.907  1.4856  1.0161 -1.1073
42763SOL     OW35403   6.679   6.549  10.149 -0.2895  0.2173 -0.2807
42763SOL    HW135404   6.752   6.607  10.171 -0.6312  0.2563  0.7906
42763SOL    HW235405   6.679   6.484  10.219 -0.6790 -0.3614 -0.8123
42764SOL     OW35406   2.477   2.150   1.491  0.0440  0.3433 -0.4589
42764SOL    HW135407   2.521   2.103   1.420  2.7666  0.8345  0.7775
42764SOL    HW235408   2.479   2.089   1.565 -2.1944  0.0722 -0.5588
42765SOL     OW35409   6.113  11.457   0.237 -0.1554  0.4283 -0.4932
42765SOL    HW135410   6.127  11.480   0.145 -1.5676 -0.3288 -0.9202
42765SOL    HW235411   6.034  11.403   0.237  0.7751 -1.0364  0.9558
42766SOL     OW35412  10.270   7.332  11.552  0.4201  0.3950 -0.1656
42766SOL    HW135413  10.316   7.252  11.528  0.2414  0.1653  0.2382
42766SOL    HW235414  10.289   7.343  11.645  1.9244  1.8181 -0.5939
42767SOL     OW35415   3.220   0.762  12.887 -0.5956 -0.1760 -0.2529
42767SOL    HW135416   3.241   0.754  12.980 -0.8186 -1.2739 -0.2803
42767SOL    HW235417   3.302   0.745  12.842 -0.5295  0.1752 -0.2738
42768SOL     OW35418   3.230   0.425   3.505  0.4043  0.3215 -0.1002
42768SOL    HW135419   3.266   0.387   3.585  0.5405  1.8210  0.5884
42768SOL    HW235420   3.230   0.354   3.442  1.8640 -0.4590  0.7475
42769SOL     OW35421  12.245   2.663   7.916  0.1928  0.4739  0.5679
42769SOL    HW135422  12.224   2.597   7.850 -1.7671 -0.6387  2.1843
42769SOL    HW235423  12.339   2.652   7.932  0.5265  0.2049 -1.3970
42770SOL     OW35424  12.523   7.435   5.808 -0.3612 -0.0095  0.2034
42770SOL    HW135425  12.477   7.507   5.764 -0.8256 -0.6952 -0.4553
42770SOL    HW235426  12.615   7.448   5.788 -0.4848  0.1822 -0.2422
42771SOL     OW35427   6.324   3.876   9.316  0.1573  0.0762  0.0344
42771SOL    HW135428   6.331   3.892   9.222 -1.0727  0.0912 -0.0676
42771SOL    HW235429   6.356   3.957   9.356  0.1270  0.2962 -0.3814
42772SOL     OW35430   4.483   9.278   0.048 -0.1186  0.0724  0.2735
42772SOL    HW135431   4.418   9.321   0.104 -1.1847  0.8506 -1.4658
42772SOL    HW235432   4.562   9.273   0.101 -1.3624 -0.1902  2.1981
42773SOL     OW35433   1.015   7.869   6.699  0.2450 -0.4856 -0.3195
42773SOL    HW135434   1.110   7.870   6.713  0.4415 -1.8646 -1.2584
42773SOL    HW235435   0.988   7.960   6.710  1.2284 -0.4367  2.7023
42774SOL     OW35436   2.404   3.130   4.905  0.5239 -0.5148 -0.1848
42774SOL    HW135437   2.353   3.179   4.841  0.4919 -0.3029  0.0013
42774SOL    HW235438   2.343   3.064   4.938  0.0190  0.4358  0.8375
42775SOL     OW35439  10.545   7.785   6.573  0.3546  0.3949  0.3329
42775SOL    HW135440  10.630   7.801   6.614  0.7223  0.8117 -0.5579
42775SOL    HW235441  10.535   7.689   6.574  1.4384  0.2502 -0.7096
42776SOL     OW35442   2.175   4.809   3.533 -0.7423 -0.2751 -0.3451
42776SOL    HW135443   2.207   4.898   3.519  0.3454 -0.6923 -0.6346
42776SOL    HW235444   2.080   4.817   3.533 -0.7664  0.4607 -3.3547
42777SOL     OW35445   8.297  12.145   1.801 -0.1676 -0.1524 -0.2730
42777SOL    HW135446   8.227  12.126   1.738 -0.3776 -0.7585  0.1310
42777SOL    HW235447   8.252  12.183   1.876  0.1688  1.2624 -0.7648
42778SOL     OW35448   5.669   4.155   1.859  0.1442  0.1189 -0.2850
42778SOL    HW135449   5.719   4.095   1.803  0.9590  0.3635  0.1722
42778SOL    HW235450   5.694   4.132   1.948 -0.7434  0.0938 -0.0320
42779SOL     OW35451  11.134   5.393  10.375  0.6416  0.5421 -0.5572
42779SOL    HW135452  11.039   5.404  10.375  0.6963  1.0786 -1.6637
42779SOL    HW235453  11.168   5.482  10.380  1.0695  0.5667 -2.9327
42780SOL     OW35454   8.506   9.216   9.341  0.3282  0.3621  0.5282
42780SOL    HW135455   8.521   9.206   9.247 -0.2197 -0.5390  0.5257
42780SOL    HW235456   8.591   9.244   9.375  0.5977  0.4605 -0.2005
42781SOL     OW35457   0.345   2.828   0.948  0.3593  0.2398  0.0739
42781SOL    HW135458   0.288   2.795   1.018  0.8196  1.1667  0.9133
42781SOL    HW235459   0.315   2.918   0.934 -0.7468 -0.4001 -2.0334
42782SOL     OW35460  11.210  11.436   0.829  0.1378 -0.4720 -0.3162
42782SOL    HW135461  11.141  11.493   0.794  0.5371 -0.6532 -1.4122
42782SOL    HW235462  11.162  11.365   0.871 -0.3566  0.1696  0.2479
42783SOL     OW35463  10.192   8.485   7.289 -0.0692 -0.4365  0.3247
42783SOL    HW135464  10.286   8.504   7.293  0.6134 -2.2879 -2.8211
42783SOL    HW235465  10.159   8.542   7.219 -0.4405 -2.2230 -1.0447
42784SOL     OW35466  12.604  10.558  12.244 -0.4984  0.0778  0.5032
42784SOL    HW135467  12.662  10.623  12.204 -1.8590 -1.0290 -3.7824
42784SOL    HW235468  12.518  10.599  12.244 -1.3466 -1.4056 -2.1137
42785SOL     OW35469  10.694   9.298  10.631  0.5302 -0.2438  0.4351
42785SOL    HW135470  10.649   9.336  10.555 -2.5018 -2.6431  0.8413
42785SOL    HW235471  10.663   9.349  10.705 -0.9854 -1.3692  0.6169
42786SOL     OW35472  10.953  11.977  12.911  0.0393 -0.0714 -0.7498
42786SOL    HW135473  10.866  12.017  12.898  0.3977  0.5119 -1.4165
42786SOL    HW235474  10.979  11.947  12.824  0.8935  0.5577 -0.7208
42787SOL     OW35475  12.103   2.137  10.698 -0.6332  0.1399  0.2023
42787SOL    HW135476  12.087   2.043  10.708 -0.4600  0.2510  1.8896
42787SOL    HW235477  12.159   2.145  10.622 -2.4788 -0.9135 -1.3533
42788SOL     OW35478   3.537   3.481   5.247  0.1594  0.5975 -0.1439
42788SOL    HW135479   3.513   3.500   5.156 -0.8831 -1.2935 -0.3041
42788SOL    HW235480   3.633   3.479   5.247  0.2055 -1.9144 -1.8276
42789SOL     OW35481   9.024   0.237   7.458  0.1294 -0.5432  0.1248
42789SOL    HW135482   8.967   0.218   7.532 -0.7832  0.3596 -0.3238
42789SOL    HW235483   8.985   0.314   7.417  0.8394 -0.7913 -1.0615
42790SOL     OW35484   6.514   2.744  10.643 -0.0095  1.0070 -0.1460
42790SOL    HW135485   6.575   2.784  10.704  0.2659 -0.7690  0.8344
42790SOL    HW235486   6.459   2.688  10.698  0.2804 -0.6957 -1.4940
42791SOL     OW35487  12.433   4.092   8.981 -0.5509 -0.2607  0.1678
42791SOL    HW135488  12.509   4.128   9.026 -0.5550 -1.8918  1.5765
42791SOL    HW235489  12.360   4.107   9.042 -1.1757  0.3433 -0.7040
42792SOL     OW35490   0.874  10.855   8.521  0.5225 -0.3318  0.3136
42792SOL    HW135491   0.779  10.842   8.514  0.3239  1.6607 -1.8072
42792SOL    HW235492   0.909  10.827   8.437  1.4787  1.2431  0.1491
42793SOL     OW35493   9.530  11.765   1.229  0.1841  0.4919  0.1645
42793SOL    HW135494   9.497  11.790   1.142 -0.5545  0.7403  0.5041
42793SOL    HW235495   9.612  11.720   1.212 -0.3119 -0.1108 -0.7249
42794SOL     OW35496  12.836   0.041   4.920 -0.1933 -0.2853  0.3805
42794SOL    HW135497  12.889  -0.035   4.946  0.5898  0.3889  0.8195
42794SOL    HW235498  12.870   0.113   4.974 -1.6402  0.1518  0.7382
42795SOL     OW35499   0.440   1.627   2.077 -0.2293  0.4012 -0.5654
42795SOL    HW135500   0.482   1.582   2.003  0.1891  0.5557 -0.4278
42795SOL    HW235501   0.436   1.561   2.146 -1.0328  0.1245 -0.8714
42796SOL     OW35502   5.744   7.272   5.129 -0.4442 -0.0824 -0.2168
42796SOL    HW135503   5.681   7.277   5.057 -1.8887 -1.4051  0.8884
42796SOL    HW235504   5.830   7.269   5.086 -1.0952  1.6352 -1.7665
42797SOL     OW35505   4.348  10.062   3.957  0.5630  0.1125 -0.2774
42797SOL    HW135506   4.369  10.141   4.007  0.0973  0.1706 -0.1732
42797SOL    HW235507   4.279  10.019   4.008  2.0621 -1.3191  0.6556
42798SOL     OW35508  11.845   7.875   7.143 -0.0422  0.4120 -0.2922
42798SOL    HW135509  11.829   7.797   7.196  0.4916  0.2577 -0.3512
42798SOL    HW235510  11.759   7.900   7.110 -0.5656  1.0894  1.4428
42799SOL     OW35511   3.690   0.775  11.887 -0.1202 -0.8935  0.3491
42799SOL    HW135512   3.612   0.721  11.873 -0.0388 -0.8245 -0.4052
42799SOL    HW235513   3.708   0.767  11.981 -2.1240  0.5911  0.9183
42800SOL     OW35514   3.066   1.126  10.479 -0.3964 -0.6323  0.2892
42800SOL    HW135515   3.083   1.054  10.418  0.0725 -0.7514  0.5603
42800SOL    HW235516   3.125   1.196  10.450  0.1284 -0.8355  0.8605
42801SOL     OW35517   2.327   8.597   4.513  0.2335  0.0124  0.7403
42801SOL    HW135518   2.302   8.680   4.555 -0.8700 -0.6106  1.3441
42801SOL    HW235519   2.247   8.544   4.514 -0.1083  0.2198 -2.8509
42802SOL     OW35520  12.676   1.622   8.884 -0.6385 -0.1480 -0.1814
42802SOL    HW135521  12.656   1.539   8.841  0.2403 -0.9686  0.9322
42802SOL    HW235522  12.739   1.664   8.825 -0.4091 -0.6773 -0.3241
42803SOL     OW35523   2.750   9.308   7.855 -0.0907  0.3463  0.3141
42803SOL    HW135524   2.655   9.294   7.848 -0.1408  1.0266 -0.5991
42803SOL    HW235525   2.788   9.244   7.795  0.1533 -0.9956  1.8221
42804SOL     OW35526   9.852   2.884  11.300 -0.0101  0.5941 -0.3189
42804SOL    HW135527   9.879   2.877  11.208  0.4425  0.0062 -0.1491
42804SOL    HW235528   9.840   2.977  11.314 -2.0408  0.5724 -1.5227
42805SOL     OW35529   8.556  10.623   3.917  0.3379 -0.0569  0.0547
42805SOL    HW135530   8.646  10.644   3.890 -0.1328  0.1478 -1.4435
42805SOL    HW235531   8.560  10.619   4.012  1.5922  1.5738  0.1149
42806SOL     OW35532   8.029   5.000   7.953 -0.4897 -0.1268 -0.1937
42806SOL    HW135533   7.956   4.980   7.894  2.1721 -2.0944 -3.1234
42806SOL    HW235534   8.048   5.093   7.936 -0.9586 -0.1680 -1.0195
42807SOL     OW35535   5.963   3.230   5.153  0.6377  0.4989 -0.3829
42807SOL    HW135536   5.925   3.187   5.077  2.6630  0.2510 -1.3205
42807SOL    HW235537   6.037   3.176   5.177  2.8891  3.0098 -1.1750
42808SOL     OW35538   7.469   1.543  11.424 -0.2394 -0.0720  0.1210
42808SOL    HW135539   7.385   1.504  11.400  0.0613 -1.4047  1.1164
42808SOL    HW235540   7.481   1.615  11.362 -1.8252 -0.2350 -0.4127
42809SOL     OW35541   3.651   6.788   3.464  0.5293  0.4489 -0.0011
42809SOL    HW135542   3.587   6.765   3.531  1.2034 -0.7571  0.2597
42809SOL    HW235543   3.631   6.731   3.390  2.7270 -1.7186  0.9464
42810SOL     OW35544   6.098  10.396   0.735  0.4249  0.3687 -0.4545
42810SOL    HW135545   6.138  10.369   0.653  1.8565  1.4167 -0.1494
42810SOL    HW235546   6.167  10.386   0.800 -0.9041 -1.1747  0.8136
42811SOL     OW35547   6.920   7.858   8.412 -0.0287  0.5336  0.2269
42811SOL    HW135548   6.971   7.865   8.332 -0.8992  0.2210 -0.3789
42811SOL    HW235549   6.984   7.839   8.481  0.8252  1.6598 -0.2364
42812SOL     OW35550   1.248   3.476   1.433  0.3178  0.6905  0.4321
42812SOL    HW135551   1.207   3.455   1.349  2.3849 -1.0973 -0.2273
42812SOL    HW235552   1.176   3.479   1.495 -1.1138  0.6281 -1.1521
42813SOL     OW35553  12.468  12.184   3.218  0.2770 -0.2602 -0.3255
42813SOL    HW135554  12.546  12.137   3.247 -0.4503 -1.4712 -0.2722
42813SOL    HW235555  12.395  12.125   3.239 -0.6139  0.6401 -0.8048
42814SOL     OW35556   3.863   3.950   8.775 -0.3431  0.2408 -0.3496
42814SOL    HW135557   3.897   4.040   8.773 -0.9920  0.5575  1.2759
42814SOL    HW235558   3.936   3.897   8.742  0.3979  1.2528 -0.4226
42815SOL     OW35559   2.968   5.102   4.479 -0.5341  0.5664  0.3728
42815SOL    HW135560   2.932   5.014   4.472  0.1279  0.2853  0.4471
42815SOL    HW235561   2.896   5.155   4.514 -0.3911 -0.3082  2.0716
42816SOL     OW35562   9.882  10.336   4.985  0.0926 -0.0278  0.5137
42816SOL    HW135563   9.804  10.346   4.931  0.5502  0.0968 -0.1318
42816SOL    HW235564   9.955  10.356   4.927  0.6967 -1.3852  0.7551
42817SOL     OW35565   4.744   6.413   3.051 -0.1920  0.3302 -0.6723
42817SOL    HW135566   4.703   6.495   3.022 -0.2352  0.8044  0.6965
42817SOL    HW235567   4.672   6.349   3.052 -0.6086  0.8078  0.3355
42818SOL     OW35568   3.021  10.626   5.958  0.1221 -0.0819 -0.7168
42818SOL    HW135569   3.116  10.617   5.965  0.5333  2.5736 -1.6876
42818SOL    HW235570   3.005  10.636   5.864 -0.8049  1.7310 -0.4211
42819SOL     OW35571  11.698   0.139   3.530  0.3363  0.5057  0.2228
42819SOL    HW135572  11.684   0.124   3.436 -1.5500  0.9953  0.3750
42819SOL    HW235573  11.696   0.235   3.539  1.9802  0.5200  0.5817
42820SOL     OW35574   3.045   1.043   2.022  0.0492 -0.5778  0.0520
42820SOL    HW135575   2.970   1.100   2.001  0.3792  0.4085  1.4234
42820SOL    HW235576   3.114   1.103   2.049  0.4121 -1.6122  1.5521
42821SOL     OW35577   8.077   6.457   1.702 -0.5163  0.3925 -0.4212
42821SOL    HW135578   8.037   6.441   1.787  0.2094  1.1947  0.0830
42821SOL    HW235579   8.162   6.497   1.722  1.2670 -2.6145 -1.3919
42822SOL     OW35580   2.846  10.481  11.559 -0.5732  0.0508 -0.6797
42822SOL    HW135581   2.853  10.446  11.470 -0.9859  1.1225 -1.1498
42822SOL    HW235582   2.867  10.406  11.616 -1.2482 -0.9030 -1.6427
42823SOL     OW35583   3.515   2.518   2.542 -0.3410 -0.5153 -0.0708
42823SOL    HW135584   3.534   2.557   2.628  0.2821  0.2525 -0.5440
42823SOL    HW235585   3.469   2.437   2.562  1.8535 -1.5551  1.0989
42824SOL     OW35586  10.317   9.402   8.121 -0.3436  0.8088  0.2465
42824SOL    HW135587  10.352   9.480   8.164 -0.7498  1.0225  0.1963
42824SOL    HW235588  10.393   9.362   8.079 -0.0582  0.9459  0.6289
42825SOL     OW35589  10.635   7.258  10.998 -0.2790 -0.4331  0.0254
42825SOL    HW135590  10.635   7.166  11.024  1.5452 -0.1464  1.1732
42825SOL    HW235591  10.553   7.269  10.950 -1.2648 -2.2779  1.1756
42826SOL     OW35592  10.503   1.290   7.814 -0.4817 -0.6528 -0.0316
42826SOL    HW135593  10.571   1.272   7.749 -1.2818  0.2522 -1.1582
42826SOL    HW235594  10.547   1.281   7.898  1.7535  2.3753 -0.6987
42827SOL     OW35595   3.797   7.631   5.163 -0.1246 -0.1462 -0.9142
42827SOL    HW135596   3.736   7.580   5.110 -2.2901 -0.1591  1.4012
42827SOL    HW235597   3.797   7.587   5.248  1.2430  1.2958 -0.1176
42828SOL     OW35598   6.193   0.056  11.492  0.1357  0.1013 -0.6096
42828SOL    HW135599   6.192   0.064  11.588  2.0955 -1.2580 -0.4160
42828SOL    HW235600   6.107   0.019  11.470 -0.9841  1.9177  0.4030
42829SOL     OW35601   3.000   2.068   5.574 -0.2424  0.2757  0.1805
42829SOL    HW135602   3.049   2.139   5.615  0.3004  0.6533 -1.0744
42829SOL    HW235603   2.994   2.093   5.482  0.7769 -1.7245 -0.4944
42830SOL     OW35604  12.479   8.572   0.972  0.0179 -0.3539 -0.0027
42830SOL    HW135605  12.490   8.543   0.881  1.3499 -1.2872  0.4239
42830SOL    HW235606  12.384   8.575   0.984 -0.1901 -0.0821 -1.4534
42831SOL     OW35607  11.239   7.616   1.834  0.0519  0.4913  0.3130
42831SOL    HW135608  11.209   7.525   1.843  0.1467  0.3123 -0.9030
42831SOL    HW235609  11.334   7.611   1.845  0.2160  0.2144 -1.0031
42832SOL     OW35610   6.319   3.425   6.895  0.2426 -0.2550  0.3165
42832SOL    HW135611   6.289   3.509   6.861  0.9283  0.3975  1.2712
42832SOL    HW235612   6.414   3.435   6.903  0.1831 -0.6270  1.7335
42833SOL     OW35613  11.035   6.449   2.217 -0.0630  0.3989 -0.0996
42833SOL    HW135614  11.025   6.510   2.144  0.6446 -0.1342 -0.6508
42833SOL    HW235615  11.112   6.396   2.194  1.2498  1.3543  1.8263
42834SOL     OW35616   6.914   0.827  10.169  0.1856  0.8247  0.4486
42834SOL    HW135617   6.975   0.876  10.114 -1.4974  1.0252 -1.3568
42834SOL    HW235618   6.938   0.735  10.155 -2.2939  0.5193 -3.6517
42835SOL     OW35619  12.363   5.882   5.150 -0.4775 -0.1016  0.1740
42835SOL    HW135620  12.399   5.945   5.088 -1.4145  0.4844  0.2012
42835SOL    HW235621  12.393   5.912   5.236 -0.2004 -0.2003  0.1107
42836SOL     OW35622   1.403  11.583   0.095 -0.1005 -0.2192  0.5308
42836SOL    HW135623   1.446  11.635   0.026 -3.3802  2.0766 -0.0139
42836SOL    HW235624   1.431  11.625   0.177 -0.1093  0.3028  0.2742
42837SOL     OW35625   9.386   3.902   3.046  0.1395  0.2087  0.4877
42837SOL    HW135626   9.363   3.949   2.966  2.1635  0.0772 -0.2370
42837SOL    HW235627   9.305   3.861   3.075 -0.9684  1.5141 -0.6331
42838SOL     OW35628  10.544  11.758  10.013 -0.4539 -0.1711 -0.5662
42838SOL    HW135629  10.528  11.838  10.062 -3.3580 -0.3897 -1.0079
42838SOL    HW235630  10.573  11.788   9.927 -0.3173  0.3594 -0.3391
42839SOL     OW35631   0.356   6.675  10.451  0.9398  0.1781  0.2431
42839SOL    HW135632   0.399   6.692  10.535  1.3158  1.5689 -0.2194
42839SOL    HW235633   0.262   6.673  10.472  0.9854  1.2207  0.6011
42840SOL     OW35634  10.081   3.551   4.643 -0.0662  0.1727  0.0197
42840SOL    HW135635  10.149   3.595   4.592  1.3454 -1.5207  0.3320
42840SOL    HW235636  10.077   3.599   4.725  0.7256  0.3574 -0.0389
42841SOL     OW35637   7.488   2.301  11.322  0.1287  0.9386 -0.2305
42841SOL    HW135638   7.459   2.216  11.289  0.4579  0.2958  1.0888
42841SOL    HW235639   7.511   2.351  11.243 -2.5814  0.7864 -1.2394
42842SOL     OW35640   2.179   3.987   8.598  0.0857 -0.1376  0.0949
42842SOL    HW135641   2.191   3.961   8.507 -2.5285 -1.0989 -0.0722
42842SOL    HW235642   2.086   4.007   8.605  0.6500  2.2385  2.0405
42843SOL     OW35643   3.663   1.121   1.951  0.2705 -0.4158 -0.0174
42843SOL    HW135644   3.650   1.056   1.882 -0.3184 -1.4549  1.0512
42843SOL    HW235645   3.749   1.159   1.931  0.0842 -0.6419 -1.3492
42844SOL     OW35646   0.335  12.820   5.278 -0.4225  0.6848  0.1463
42844SOL    HW135647   0.296  12.866   5.203 -0.6699  0.7880  0.3352
42844SOL    HW235648   0.427  12.809   5.254 -0.9759 -1.4947 -1.2682
42845SOL     OW35649  12.913   5.344   7.787 -0.4250  0.2591  0.2711
42845SOL    HW135650  12.876   5.260   7.814 -1.1274  1.0626  1.9440
42845SOL    HW235651  12.996   5.349   7.833 -0.5648  0.6412  0.4857
42846SOL     OW35652   1.613   8.413  10.119  0.2426  0.4674 -0.1667
42846SOL    HW135653   1.569   8.420  10.204 -0.4409  0.5689 -0.5243
42846SOL    HW235654   1.542   8.408  10.056  0.7492  0.6589 -0.7589
42847SOL     OW35655   8.278   4.250  12.833 -0.5069  0.3269 -0.1248
42847SOL    HW135656   8.298   4.161  12.862 -0.1630 -0.9582 -3.7318
42847SOL    HW235657   8.183   4.255  12.834 -0.4986  0.4422  1.3800
42848SOL     OW35658   8.495   6.665   4.613 -0.3875  0.3452  0.2140
42848SOL    HW135659   8.419   6.611   4.636 -1.9247  0.7286 -3.2922
42848SOL    HW235660   8.473   6.752   4.646 -0.0909 -0.1213  1.7221
42849SOL     OW35661   9.774   7.531   0.012  0.2457  0.0959 -0.0508
42849SOL    HW135662   9.829   7.585   0.069 -0.2232 -0.1781  0.6790
42849SOL    HW235663   9.691   7.523   0.059  0.0772 -0.6975 -0.4643
42850SOL     OW35664   8.421   4.457  11.246 -0.0462  0.1156  0.5603
42850SOL    HW135665   8.434   4.455  11.151  0.4918 -0.3667  0.6344
42850SOL    HW235666   8.503   4.494  11.280  0.8617 -2.1147  0.9867
42851SOL     OW35667   1.530   3.964   2.252 -0.2113 -0.0950  0.1234
42851SOL    HW135668   1.436   3.970   2.266 -0.4312 -1.0456 -0.8326
42851SOL    HW235669   1.557   3.885   2.298 -0.0116 -0.2178 -0.1968
42852SOL     OW35670   0.735  10.980   0.854 -0.2509 -0.0520 -0.2123
42852SOL    HW135671   0.698  10.961   0.940 -0.9351 -0.3028 -0.5583
42852SOL    HW235672   0.788  10.904   0.833 -0.0857  0.0079 -0.0171
42853SOL     OW35673   2.596   9.621  10.169 -0.3017 -0.1021 -0.3589
42853SOL    HW135674   2.687   9.592  10.161  0.4793  2.4605 -1.7675
42853SOL    HW235675   2.593   9.667  10.253 -0.2335 -0.0023 -0.4110
42854SOL     OW35676   4.787  10.831   7.431  0.7022 -0.3869 -0.6932
42854SOL    HW135677   4.854  10.810   7.366  0.9332 -0.0121 -0.5793
42854SOL    HW235678   4.801  10.923   7.451  0.6350 -0.4977 -0.1163
42855SOL     OW35679   8.760  10.703   6.298  0.0732 -0.4306  1.0896
42855SOL    HW135680   8.668  10.689   6.278  0.1875  0.5443 -0.2696
42855SOL    HW235681   8.761  10.732   6.389 -1.4775  3.8104 -0.0255
42856SOL     OW35682   2.201   3.672   8.350  1.0682 -0.6782 -0.3819
42856SOL    HW135683   2.273   3.616   8.381 -0.7221 -1.6710  2.3684
42856SOL    HW235684   2.126   3.613   8.344 -0.7757  1.2033  2.1578
42857SOL     OW35685   9.803   2.132   4.229 -0.1467  1.3238  0.1578
42857SOL    HW135686   9.753   2.109   4.151 -0.4432  1.9765  0.1502
42857SOL    HW235687   9.758   2.086   4.300 -0.7480  1.8772  0.1464
42858SOL     OW35688   4.605   2.107   6.555 -0.4451 -0.4641 -0.4900
42858SOL    HW135689   4.566   2.186   6.518  0.3957 -0.1851 -0.8068
42858SOL    HW235690   4.538   2.072   6.614 -1.1986 -0.0507 -1.0831
42859SOL     OW35691   7.213   9.274   8.776 -0.1405 -0.4420  0.3798
42859SOL    HW135692   7.275   9.212   8.814 -0.5671 -0.7861  0.5149
42859SOL    HW235693   7.245   9.287   8.687  0.5745 -0.0146  0.6842
42860SOL     OW35694   5.812   4.759  12.698  0.4279 -0.1236 -0.3151
42860SOL    HW135695   5.736   4.714  12.659 -1.0392  0.5660  1.5968
42860SOL    HW235696   5.842   4.700  12.767  0.6585  0.2954 -0.0537
42861SOL     OW35697   2.998   4.025   4.857 -0.1220  0.3368 -0.0171
42861SOL    HW135698   2.929   4.064   4.803  0.1346 -0.8575 -1.2678
42861SOL    HW235699   2.996   3.932   4.834 -0.5733 -0.4164  2.6949
42862SOL     OW35700   6.713  10.684   9.790 -0.3270  0.7191 -0.4390
42862SOL    HW135701   6.713  10.633   9.871  0.3248  0.2727 -0.7107
42862SOL    HW235702   6.804  10.680   9.759 -0.6276  0.6407 -1.3398
42863SOL     OW35703  10.218   0.504   1.021 -0.2764 -0.0283 -0.0189
42863SOL    HW135704  10.253   0.416   1.035 -1.1024 -0.3604  0.0475
42863SOL    HW235705  10.258   0.534   0.939  0.5948 -0.1564  0.3519
42864SOL     OW35706   4.418   2.513   4.455  0.0587  0.4162 -0.1349
42864SOL    HW135707   4.499   2.462   4.462 -0.2214  0.1033  0.9724
42864SOL    HW235708   4.350   2.448   4.435  0.1557  0.7563 -1.7279
42865SOL     OW35709   4.784  10.525   0.560  0.3404  0.4113  0.6764
42865SOL    HW135710   4.833  10.510   0.641  0.7203  1.4748  0.6545
42865SOL    HW235711   4.695  10.546   0.590  0.1610 -0.4274  0.7577
42866SOL     OW35712   8.681  12.785   9.364 -0.5065 -0.2266  0.4228
42866SOL    HW135713   8.664  12.692   9.348 -1.0406  0.1051 -1.1075
42866SOL    HW235714   8.598  12.828   9.345  0.0030  0.6602  0.1418
42867SOL     OW35715  11.546   1.750   0.365  0.3406 -0.0594 -0.0113
42867SOL    HW135716  11.585   1.662   0.364 -1.2601 -0.8048  0.3746
42867SOL    HW235717  11.531   1.771   0.273 -0.1067 -0.5974 -0.0703
42868SOL     OW35718   0.425   3.950   6.142  0.3726  0.1530 -0.6018
42868SOL    HW135719   0.457   4.040   6.133 -1.1164  0.7237 -0.6137
42868SOL    HW235720   0.341   3.960   6.188  0.2292 -1.2474 -0.5292
42869SOL     OW35721  10.699  11.125   7.941 -0.7443  0.1855  0.2999
42869SOL    HW135722  10.766  11.107   7.875  0.1068 -1.0047  1.4340
42869SOL    HW235723  10.668  11.212   7.920  0.0051  0.1224 -1.2436
42870SOL     OW35724   2.008  11.571   6.029 -0.2572 -0.4876  0.1592
42870SOL    HW135725   1.946  11.640   6.053 -1.1438 -1.6749  1.5256
42870SOL    HW235726   1.967  11.526   5.955  0.2840  0.3812 -0.6800
42871SOL     OW35727   0.863  12.877   4.673  0.2390  0.0501 -0.0261
42871SOL    HW135728   0.806  12.949   4.700 -0.2136 -0.5571  0.6941
42871SOL    HW235729   0.808  12.820   4.619 -0.0239 -0.7957  1.0764
42872SOL     OW35730   9.665   6.211   9.991  0.0067 -0.0844  0.3493
42872SOL    HW135731   9.722   6.284  10.016 -0.4244  0.0422  0.9863
42872SOL    HW235732   9.592   6.216  10.053 -0.4890 -0.4949 -0.1965
42873SOL     OW35733   5.200  10.486   3.047 -0.6076  0.7871  0.1761
42873SOL    HW135734   5.144  10.539   3.104  0.2342  0.6038  1.1856
42873SOL    HW235735   5.286  10.527   3.053 -0.0537 -0.4138  0.6117
42874SOL     OW35736   9.233   3.316   4.010  0.2635  0.6331  0.0465
42874SOL    HW135737   9.275   3.302   3.925 -0.6192  0.4634 -0.3830
42874SOL    HW235738   9.285   3.383   4.053  1.7286 -0.4908  0.0873
42875SOL     OW35739   5.248   5.041   2.250 -0.9113 -0.0757 -0.2581
42875SOL    HW135740   5.200   5.013   2.172 -1.2244  0.2416 -0.1823
42875SOL    HW235741   5.277   4.960   2.291 -0.8639 -0.2491 -0.6312
42876SOL     OW35742   4.515   6.363   6.481 -0.3595  0.1325 -0.3470
42876SOL    HW135743   4.488   6.273   6.463 -0.6982  0.3225 -0.8183
42876SOL    HW235744   4.560   6.359   6.565 -1.9147 -0.1995  0.5188
42877SOL     OW35745   1.263   8.604   9.885  0.2185 -0.0144 -0.2010
42877SOL    HW135746   1.265   8.625   9.978 -1.2845 -1.1155  0.1264
42877SOL    HW235747   1.313   8.523   9.877  0.8135  0.3728 -0.4539
42878SOL     OW35748   7.167   8.527   8.578  0.0766  0.1880  0.3385
42878SOL    HW135749   7.085   8.577   8.581 -0.1361 -0.2112  2.2753
42878SOL    HW235750   7.203   8.534   8.667  2.5619  1.0022 -0.6432
42879SOL     OW35751   5.082   9.470   3.882  0.6258 -0.0754 -0.1468
42879SOL    HW135752   5.125   9.524   3.948 -0.4578 -0.5995  1.0164
42879SOL    HW235753   4.989   9.488   3.893  0.2293 -2.1735  0.2872
42880SOL     OW35754  12.895   6.894   5.749  0.5237  0.1285  0.0899
42880SOL    HW135755  12.980   6.852   5.753  0.7028  0.5010  0.1933
42880SOL    HW235756  12.913   6.985   5.724  0.1894  0.3016  0.4555
42881SOL     OW35757  11.131  11.113   7.356 -0.3055  0.1685  0.4273
42881SOL    HW135758  11.206  11.172   7.364  0.6095 -1.0358  0.9776
42881SOL    HW235759  11.101  11.099   7.445 -1.3312  0.7987  0.1950
42882SOL     OW35760   3.272   5.335   9.167 -0.1770  0.1303 -0.2199
42882SOL    HW135761   3.307   5.301   9.084  0.7385 -0.3833  0.3539
42882SOL    HW235762   3.177   5.334   9.155 -0.0444  2.2385 -2.0902
42883SOL     OW35763   5.483   7.452   4.285  0.2090  0.1480 -0.1155
42883SOL    HW135764   5.468   7.393   4.211 -2.6028 -0.2006  0.6077
42883SOL    HW235765   5.494   7.394   4.360 -2.3673  0.4379  0.5676
42884SOL     OW35766   7.633  10.796   1.765 -0.3519 -1.2780 -0.0609
42884SOL    HW135767   7.708  10.851   1.786 -1.9900  1.3879 -0.8008
42884SOL    HW235768   7.581  10.794   1.846 -0.5495 -1.3525 -0.1895
42885SOL     OW35769   3.356   0.561   1.003 -0.2127 -0.0235  0.0200
42885SOL    HW135770   3.299   0.589   0.932 -0.4249  1.0099  0.5749
42885SOL    HW235771   3.314   0.596   1.082  1.2767  0.9208  0.4250
42886SOL     OW35772   9.550   6.581  10.848  0.3351  0.1387 -0.1870
42886SOL    HW135773   9.535   6.583  10.943 -1.4540  0.8248 -0.4380
42886SOL    HW235774   9.632   6.629  10.836 -0.7077  2.3066  0.8333
42887SOL     OW35775  12.564   6.171   9.263  0.4609 -0.1644 -0.1138
42887SOL    HW135776  12.485   6.224   9.268  0.2342 -0.4011 -0.9749
42887SOL    HW235777  12.635   6.234   9.249  0.2765 -0.0303 -0.4651
42888SOL     OW35778   7.447   6.813   5.105  0.4351  0.3053 -0.1190
42888SOL    HW135779   7.466   6.866   5.183 -0.4621  1.1523 -0.4557
42888SOL    HW235780   7.530   6.807   5.059  1.2367 -1.1072  1.4232
42889SOL     OW35781   4.889   9.128   6.803  0.0354 -0.7256  0.4840
42889SOL    HW135782   4.894   9.212   6.758 -1.9863 -0.4180  0.7523
42889SOL    HW235783   4.898   9.063   6.734 -0.0344 -0.2866  0.0585
42890SOL     OW35784   3.256  11.549   5.601  0.7657 -0.3506  0.0613
42890SOL    HW135785   3.230  11.480   5.662  0.3075 -0.8823 -0.7185
42890SOL    HW235786   3.174  11.584   5.566  1.0271 -0.7284 -0.9821
42891SOL     OW35787  11.623   6.851  10.473  0.1551 -0.1210 -0.1630
42891SOL    HW135788  11.672   6.933  10.477 -0.0252 -0.0602  2.1720
42891SOL    HW235789  11.690   6.783  10.470  0.3804  0.0296  1.0423
42892SOL     OW35790   6.681   9.135  11.893  0.2045  0.1577  0.4105
42892SOL    HW135791   6.632   9.133  11.811 -0.2132  0.1909  0.6557
42892SOL    HW235792   6.646   9.211  11.940 -0.8287 -0.8733  1.3801
42893SOL     OW35793   2.531   5.884   9.338  0.0624  0.1876 -0.0805
42893SOL    HW135794   2.527   5.938   9.259 -0.2064  0.3887  0.0692
42893SOL    HW235795   2.534   5.947   9.410 -0.4323  0.0044  0.1041
42894SOL     OW35796   7.461  11.747  10.221 -0.5061  0.2736  0.1342
42894SOL    HW135797   7.526  11.679  10.201 -0.9832  0.1593 -1.1381
42894SOL    HW235798   7.513  11.820  10.255  0.1464 -0.2870  0.3627
42895SOL     OW35799   3.673   2.951   3.488  0.1233 -0.3922 -0.5879
42895SOL    HW135800   3.637   2.992   3.567  0.8800 -1.1250  0.1510
42895SOL    HW235801   3.711   2.869   3.518  1.9723  0.1093 -1.4012
42896SOL     OW35802  12.364  12.252   2.143  0.1181  0.2691  0.0760
42896SOL    HW135803  12.367  12.160   2.167 -0.8715  0.0848 -0.4726
42896SOL    HW235804  12.315  12.294   2.214 -0.0967  0.2456 -0.0588
42897SOL     OW35805  10.359   4.938   4.157  0.2066 -0.1903 -0.3218
42897SOL    HW135806  10.365   4.912   4.065 -1.4235 -0.8323 -0.2825
42897SOL    HW235807  10.350   4.855   4.205  1.6698  0.0898  0.5133
42898SOL     OW35808   9.366   1.113   8.970 -0.3111  0.0787  0.7085
42898SOL    HW135809   9.280   1.071   8.966 -0.3674  0.1409  1.1453
42898SOL    HW235810   9.349   1.205   8.953 -0.3033  0.0550  0.5765
42899SOL     OW35811   9.575   7.331   8.369  0.0657  0.0370 -0.2224
42899SOL    HW135812   9.560   7.393   8.440 -1.8636 -1.0667  0.4069
42899SOL    HW235813   9.570   7.245   8.411 -1.1633 -0.6476 -1.6536
42900SOL     OW35814   4.525   6.845   3.065  0.1731 -0.0362  0.4214
42900SOL    HW135815   4.493   6.804   2.985 -0.0878 -0.3913  0.7061
42900SOL    HW235816   4.479   6.800   3.136 -0.5781  1.1480  0.7206
42901SOL     OW35817   4.241   3.671   0.963  0.2277 -0.4608  0.0652
42901SOL    HW135818   4.266   3.748   0.910 -0.3937  1.1521  1.9950
42901SOL    HW235819   4.149   3.655   0.939  0.3106 -0.5222 -0.2212
42902SOL     OW35820  12.608   8.398  11.860 -0.4951 -0.0388  0.2616
42902SOL    HW135821  12.581   8.489  11.872  1.8322  0.5274  1.9323
42902SOL    HW235822  12.526   8.349  11.855 -1.8091  1.9694  0.8828
42903SOL     OW35823   5.162   5.333  11.573  0.0848 -0.4214 -0.0469
42903SOL    HW135824   5.240   5.281  11.593  0.8778 -0.1428 -2.1615
42903SOL    HW235825   5.089   5.274  11.588  0.7121 -0.8048  1.6171
42904SOL     OW35826  11.226   1.624  12.149  0.0317 -0.0226 -0.9032
42904SOL    HW135827  11.254   1.656  12.235 -0.3560 -0.8503 -0.4614
42904SOL    HW235828  11.135   1.599  12.161  0.6656 -2.5443 -0.8623
42905SOL     OW35829   4.972  11.751   7.890 -0.5811  0.0248 -0.2772
42905SOL    HW135830   4.965  11.843   7.915  4.1196  0.2147  1.4274
42905SOL    HW235831   5.005  11.753   7.800 -0.2888  0.0702 -0.1726
42906SOL     OW35832   4.302  11.033   9.951  0.5341 -0.4371 -0.2600
42906SOL    HW135833   4.324  10.955   9.900 -1.8194 -2.2375  1.2527
42906SOL    HW235834   4.221  11.010   9.996  1.5895  1.6072  3.0592
42907SOL     OW35835   5.224   4.086   4.620 -0.4591 -0.0777 -0.8056
42907SOL    HW135836   5.174   4.082   4.538 -0.5999 -1.6027 -0.6798
42907SOL    HW235837   5.158   4.077   4.689 -0.4895  2.4179 -0.4221
42908SOL     OW35838  12.010  10.122   5.201  0.1617  0.6050 -0.0043
42908SOL    HW135839  12.048  10.142   5.116  0.0788 -0.8945 -0.4190
42908SOL    HW235840  11.940  10.060   5.182  0.5472 -0.2439  1.2105
42909SOL     OW35841   4.496   3.227   7.709 -0.8256 -0.3065 -0.2859
42909SOL    HW135842   4.437   3.302   7.712 -0.7035 -0.2158 -0.1644
42909SOL    HW235843   4.501   3.197   7.800 -0.0411  0.1857 -0.1639
42910SOL     OW35844   6.086  12.039   4.843 -0.0217  0.5825 -0.4941
42910SOL    HW135845   6.172  12.070   4.872 -0.5945  1.4341  0.3626
42910SOL    HW235846   6.024  12.086   4.899 -1.1143  1.0829 -2.0665
42911SOL     OW35847  10.006   9.714   4.537  0.3523  0.0657 -0.7637
42911SOL    HW135848   9.965   9.720   4.623 -0.2463  1.0938 -1.1057
42911SOL    HW235849  10.057   9.633   4.541  2.1618  1.1907  1.3468
42912SOL     OW35850   0.529   7.579   2.424 -0.6703  0.0846 -0.1495
42912SOL    HW135851   0.551   7.664   2.386 -0.8323  0.5739  0.8190
42912SOL    HW235852   0.440   7.589   2.456 -0.7918 -0.5405 -0.2780
42913SOL     OW35853   7.039   2.455  10.558  0.8335  0.5064  0.4387
42913SOL    HW135854   6.980   2.381  10.543 -0.2060  1.4036  0.0244
42913SOL    HW235855   7.097   2.455  10.482 -0.2198  1.0933 -0.3854
42914SOL     OW35856   7.875   0.176   4.148  0.0077  0.3434  0.2603
42914SOL    HW135857   7.868   0.256   4.199  0.3173 -1.3175  3.0958
42914SOL    HW235858   7.787   0.138   4.149  0.2753 -0.2910  0.6120
42915SOL     OW35859   8.904   6.729   8.225  0.7820 -0.6269 -0.0524
42915SOL    HW135860   8.869   6.721   8.313  0.7834 -2.1039 -0.1621
42915SOL    HW235861   8.842   6.784   8.178  0.4946 -0.2922  0.7234
42916SOL     OW35862   4.892   2.449   5.102 -0.4579 -0.3877 -0.0222
42916SOL    HW135863   4.902   2.408   5.188  0.1608 -1.2215 -0.4792
42916SOL    HW235864   4.940   2.531   5.109  0.5053 -0.9422  0.1114
42917SOL     OW35865   4.520  11.640   9.788 -0.3321  0.1471  0.3209
42917SOL    HW135866   4.599  11.639   9.843  1.2339 -0.2296 -1.7791
42917SOL    HW235867   4.505  11.548   9.766 -0.6092  0.3238 -0.2557
42918SOL     OW35868   6.743   9.872   8.889 -0.4531  0.2377  0.6038
42918SOL    HW135869   6.805   9.895   8.820 -2.0304 -1.2055 -1.4257
42918SOL    HW235870   6.787   9.803   8.939 -0.2878 -0.5651 -0.6232
42919SOL     OW35871   9.342   3.358   2.408  0.5386  0.7367  0.5426
42919SOL    HW135872   9.251   3.377   2.385  1.2550  1.2400 -2.1422
42919SOL    HW235873   9.359   3.272   2.371  1.4551  1.1175  0.0545
42920SOL     OW35874   0.305   9.521   2.095 -0.7053 -0.2126 -0.6907
42920SOL    HW135875   0.222   9.473   2.100 -0.5822 -0.5104 -1.4563
42920SOL    HW235876   0.319   9.552   2.185 -1.9807  0.4188 -0.6839
42921SOL     OW35877   3.218   4.593  11.420 -0.0899 -0.3371 -0.1748
42921SOL    HW135878   3.141   4.644  11.441 -0.6996 -1.0804 -0.5630
42921SOL    HW235879   3.285   4.624  11.481  0.0251  2.0085 -1.4069
42922SOL     OW35880   9.091  11.942   2.195 -0.7279  0.1002 -0.1082
42922SOL    HW135881   9.021  11.978   2.250 -0.5401 -0.9990  0.8869
42922SOL    HW235882   9.164  12.002   2.208 -1.0829  0.5587 -0.1741
42923SOL     OW35883  10.678   0.995   2.502 -0.0946 -0.2517 -0.3309
42923SOL    HW135884  10.758   1.024   2.458 -0.9458  2.4810 -0.2528
42923SOL    HW235885  10.607   1.026   2.446 -1.1287 -1.1337  0.4505
42924SOL     OW35886  12.214  10.419   1.208 -0.3087  0.7327  0.1642
42924SOL    HW135887  12.235  10.492   1.150 -2.5402  0.9965 -0.4113
42924SOL    HW235888  12.128  10.389   1.180  0.6823 -2.4830  0.0703
42925SOL     OW35889   8.756  11.357   3.927  0.1331  0.2789  0.3736
42925SOL    HW135890   8.693  11.364   3.856 -0.5911  2.2611  1.1397
42925SOL    HW235891   8.841  11.357   3.884 -0.2141  3.0710 -0.5092
42926SOL     OW35892   3.722  11.733  11.484  0.2378 -0.2597 -0.4667
42926SOL    HW135893   3.744  11.748  11.392  2.6293  0.9833  0.2017
42926SOL    HW235894   3.749  11.643  11.501  1.0464 -0.0735 -0.7046
42927SOL     OW35895  10.092   7.113   2.413  0.3083  0.0148 -0.5006
42927SOL    HW135896  10.098   7.050   2.342  2.0293  0.1301 -0.5010
42927SOL    HW235897  10.044   7.187   2.375  1.3700  0.1562 -1.6130
42928SOL     OW35898   3.149  10.222  12.369  0.8732 -0.4732  0.5962
42928SOL    HW135899   3.125  10.307  12.332 -2.5689 -0.9129  1.4967
42928SOL    HW235900   3.178  10.243  12.458 -0.4675 -0.2498  0.9971
42929SOL     OW35901   1.758  10.312   3.153  0.0816  0.1552 -0.0771
42929SOL    HW135902   1.791  10.323   3.242 -0.8000 -0.2421  0.3194
42929SOL    HW235903   1.691  10.244   3.161  1.6126 -1.6468 -1.4495
42930SOL     OW35904  10.912   8.680   7.359  0.0265 -0.5898 -0.3410
42930SOL    HW135905  10.949   8.678   7.271 -0.8528 -1.0133 -0.7229
42930SOL    HW235906  10.969   8.739   7.409  0.0820  0.2848 -1.4074
42931SOL     OW35907   1.610   9.687  11.925 -0.2924  0.3434 -0.3560
42931SOL    HW135908   1.674   9.616  11.922  1.8697  2.1834 -0.2732
42931SOL    HW235909   1.632   9.736  12.004 -1.7288  1.1457 -0.4149
42932SOL     OW35910   1.047   1.567  11.340  0.3333 -0.3380 -0.1966
42932SOL    HW135911   1.116   1.597  11.280  1.7308 -0.2610  1.3796
42932SOL    HW235912   1.086   1.576  11.427 -1.5100 -0.7932  0.7072
42933SOL     OW35913  10.902   6.561   7.485 -0.1922  0.2521 -0.2478
42933SOL    HW135914  10.890   6.475   7.525 -0.5922  0.0302 -0.8333
42933SOL    HW235915  10.953   6.610   7.549  0.1280 -0.4524  0.0475
42934SOL     OW35916   5.682   0.294  10.931 -0.1253  0.3234 -0.0999
42934SOL    HW135917   5.778   0.296  10.923 -0.2686  1.3894 -2.1097
42934SOL    HW235918   5.654   0.230  10.867 -0.7111 -1.8563  2.1750
42935SOL     OW35919   5.821   6.647   5.024 -0.3018  0.5482 -0.0280
42935SOL    HW135920   5.751   6.696   5.068 -0.5031 -1.2837  1.8437
42935SOL    HW235921   5.901   6.681   5.064 -0.4317 -0.4611  1.1517
42936SOL     OW35922   8.876  10.027   3.947  0.3724  0.3630 -0.4153
42936SOL    HW135923   8.845  10.065   4.029 -1.1058 -0.3000 -0.6369
42936SOL    HW235924   8.798  10.020   3.892  1.0129 -0.8337 -1.2333
42937SOL     OW35925  12.705  12.099   8.839 -0.2359 -0.2015 -0.2956
42937SOL    HW135926  12.725  12.034   8.906 -0.9925  0.4793  0.6324
42937SOL    HW235927  12.619  12.073   8.806 -0.3284  0.0595 -0.2602
42938SOL     OW35928   3.043  12.952   4.626  0.1007  0.2383 -0.0727
42938SOL    HW135929   3.107  12.978   4.692  0.3628 -0.7904  0.0939
42938SOL    HW235930   2.958  12.963   4.670  0.1708  1.2866 -0.1828
42939SOL     OW35931   9.588   8.181   4.573  0.3069 -0.0026 -0.0740
42939SOL    HW135932   9.583   8.086   4.588  0.7627 -0.0134  0.0131
42939SOL    HW235933   9.602   8.189   4.479 -0.1519 -0.0039 -0.1476
42940SOL     OW35934   9.881  11.065   6.167  0.8642  0.3343 -0.4987
42940SOL    HW135935   9.831  11.103   6.239  2.8221  1.4854  0.3464
42940SOL    HW235936   9.944  11.133   6.143  3.3957 -1.6852 -0.0909
42941SOL     OW35937   1.481   3.617   5.711 -0.1189  0.4137 -0.1670
42941SOL    HW135938   1.446   3.561   5.641  1.2797  0.2209 -0.7438
42941SOL    HW235939   1.443   3.703   5.693  1.6490  0.8400 -2.3505
42942SOL     OW35940   1.508   2.471   5.044 -0.1050  0.1254 -0.4165
42942SOL    HW135941   1.589   2.488   5.092  0.0706 -0.8994 -0.3339
42942SOL    HW235942   1.450   2.430   5.108 -0.4534  0.2390 -0.6542
42943SOL     OW35943   5.440  11.437   2.837 -0.6838 -0.3772  0.2188
42943SOL    HW135944   5.427  11.486   2.918  1.0546  2.1493 -0.8961
42943SOL    HW235945   5.531  11.454   2.813 -0.8184 -1.9949 -1.6997
42944SOL     OW35946   0.553   9.090   2.460  0.2218  0.5328 -0.1044
42944SOL    HW135947   0.604   9.093   2.379  0.1046 -0.0544 -0.2020
42944SOL    HW235948   0.506   9.007   2.456 -1.0932  1.2649 -0.2202
42945SOL     OW35949   4.884   4.885   9.621  0.2288 -0.4390 -0.1521
42945SOL    HW135950   4.978   4.878   9.635  0.1066 -0.2733  0.8121
42945SOL    HW235951   4.866   4.979   9.621  0.0564 -0.4706 -0.2712
42946SOL     OW35952  11.051   2.131   1.484  0.5062  0.5065 -0.4870
42946SOL    HW135953  10.980   2.114   1.422  0.5943  0.1364 -0.4890
42946SOL    HW235954  11.120   2.070   1.458  0.2227 -0.2612  0.4944
42947SOL     OW35955  10.440   5.483   4.826 -0.4588  0.3775  0.5350
42947SOL    HW135956  10.479   5.419   4.886 -1.3036 -2.1088 -1.3714
42947SOL    HW235957  10.346   5.479   4.845 -0.5859  0.5537 -0.0445
42948SOL     OW35958   6.812  12.249   7.686  0.5643  0.5736 -0.3212
42948SOL    HW135959   6.826  12.205   7.602 -1.4657 -0.0596 -0.3858
42948SOL    HW235960   6.720  12.276   7.683  1.0115  2.3486  0.8898
42949SOL     OW35961  12.347  12.680  12.545  0.2548 -0.1734 -0.3933
42949SOL    HW135962  12.374  12.638  12.627  0.4167 -1.7888 -1.2225
42949SOL    HW235963  12.333  12.607  12.485  2.2343  1.0046 -2.4525
42950SOL     OW35964   2.817   3.716   5.256  0.1009  0.6576  0.3996
42950SOL    HW135965   2.776   3.632   5.275  0.4185  0.6511  1.1111
42950SOL    HW235966   2.748   3.781   5.271  0.4475  0.6953  2.1624
42951SOL     OW35967   2.977   1.847   1.082  0.3511  0.1430 -0.2503
42951SOL    HW135968   2.888   1.824   1.111  0.1066  0.6020 -0.6191
42951SOL    HW235969   3.034   1.785   1.128 -0.1487 -0.0700  0.0929
42952SOL     OW35970   3.812   9.685   7.691  0.4371  0.6054  0.5183
42952SOL    HW135971   3.832   9.600   7.731  0.1121 -0.2106 -0.9841
42952SOL    HW235972   3.890   9.737   7.707  0.6735  0.0043  1.4060
42953SOL     OW35973   3.657   1.011  11.629  0.3867  0.2254  0.5635
42953SOL    HW135974   3.655   0.998  11.723  0.2574 -0.9252  0.4177
42953SOL    HW235975   3.629   1.101  11.616  0.5400  0.4341  1.6282
42954SOL     OW35976   8.140   8.378   7.910  0.5799 -0.4646  0.6210
42954SOL    HW135977   8.137   8.283   7.899  1.6774 -0.3939 -0.4720
42954SOL    HW235978   8.065   8.397   7.966 -0.5090 -1.8140 -0.2854
42955SOL     OW35979   6.751   2.672   5.908 -0.2346  0.2570  0.1607
42955SOL    HW135980   6.833   2.721   5.909 -0.1200  0.0526  1.1289
42955SOL    HW235981   6.692   2.723   5.964 -0.4785 -0.0863  0.2181
42956SOL     OW35982   2.032   2.329   3.179 -0.0890  0.4520  0.6270
42956SOL    HW135983   1.959   2.390   3.178 -0.1670  0.4128 -1.8941
42956SOL    HW235984   2.099   2.371   3.125  1.1861 -0.2098  1.6298
42957SOL     OW35985   1.092   9.037   8.968  0.4023  0.0970  0.0264
42957SOL    HW135986   1.121   8.947   8.951  0.2773  0.0384  0.1232
42957SOL    HW235987   1.003   9.028   9.001  1.1229  0.0820  2.1393
42958SOL     OW35988   4.871   8.416   7.371 -0.1515  0.5775  0.2293
42958SOL    HW135989   4.829   8.405   7.286 -0.9198  0.5432  0.6001
42958SOL    HW235990   4.899   8.508   7.372  0.3780  0.4311 -0.2760
42959SOL     OW35991   4.309   1.473   2.234 -0.1074  0.3623  0.1335
42959SOL    HW135992   4.367   1.408   2.195 -1.3475  0.7040 -2.5553
42959SOL    HW235993   4.225   1.427   2.242 -0.6962  1.2313 -0.7253
42960SOL     OW35994   9.713   5.321   3.700  0.8690 -0.2772 -0.2374
42960SOL    HW135995   9.740   5.411   3.721 -0.9793  0.6521 -1.5684
42960SOL    HW235996   9.697   5.280   3.784 -1.1990  1.6378  0.3965
42961SOL     OW35997   5.425   5.199   0.376 -0.3622 -0.6221 -0.1120
42961SOL    HW135998   5.375   5.198   0.458 -1.8459 -0.4708 -0.9732
42961SOL    HW235999   5.488   5.271   0.387 -0.4456 -0.7026  0.9392
42962SOL     OW36000   3.459   2.849   7.188  0.1006 -0.0263 -0.4944
42962SOL    HW136001   3.529   2.831   7.252  0.0064 -0.3824 -0.4878
42962SOL    HW236002   3.446   2.765   7.143 -0.2891  0.0501 -0.5282
42963SOL     OW36003   0.067  11.320   3.467 -0.0232  0.0563  0.1153
42963SOL    HW136004   0.041  11.401   3.510  0.6045  1.1168 -1.4028
42963SOL    HW236005   0.159  11.334   3.444  0.0194 -0.9856 -0.4208
42964SOL     OW36006   3.914   8.552   4.547 -0.0679  0.3364  0.4146
42964SOL    HW136007   3.878   8.595   4.470 -2.9006 -3.4702 -0.6750
42964SOL    HW236008   3.840   8.545   4.607  0.2508 -2.6141  0.5947
42965SOL     OW36009  11.459   3.419   1.220  0.2876 -0.3314  0.6621
42965SOL    HW136010  11.514   3.462   1.286  1.0164  0.3147 -0.3453
42965SOL    HW236011  11.493   3.329   1.216  2.9650  0.6409 -1.6396
42966SOL     OW36012  10.394   9.646  10.780 -0.7051 -0.7229  0.5453
42966SOL    HW136013  10.437   9.708  10.838  0.1876 -0.8251  0.0132
42966SOL    HW236014  10.330   9.698  10.732 -1.3537 -0.6119  1.4974
42967SOL     OW36015   0.300   6.753  11.489 -0.4426 -0.8069 -0.4956
42967SOL    HW136016   0.393   6.739  11.510 -0.7236  0.0064  1.6164
42967SOL    HW236017   0.263   6.665  11.483  0.2152 -1.1276 -0.0229
42968SOL     OW36018   1.395   5.338   6.100  0.6961 -0.7917  0.7414
42968SOL    HW136019   1.417   5.374   6.186 -1.9019 -1.3496  1.7553
42968SOL    HW236020   1.446   5.257   6.094 -0.1450 -1.5040  2.4590
42969SOL     OW36021  12.398  12.426   4.884 -0.0418 -0.0259 -0.1030
42969SOL    HW136022  12.329  12.375   4.927 -1.0138  0.9683 -0.4285
42969SOL    HW236023  12.395  12.512   4.926  2.8781 -0.7166  1.8006
42970SOL     OW36024   2.347   3.000   1.729  0.1077  0.2720  0.7482
42970SOL    HW136025   2.411   3.066   1.705 -2.2620  3.1801  1.8653
42970SOL    HW236026   2.310   3.030   1.812 -0.1011 -3.3097  2.1760
42971SOL     OW36027   3.715   4.695   0.891 -0.1022 -0.0990 -0.2327
42971SOL    HW136028   3.705   4.733   0.978 -1.6808  1.4348 -1.0378
42971SOL    HW236029   3.805   4.663   0.889 -0.0553 -0.2536  1.9696
42972SOL     OW36030   6.605   5.794  12.203  0.3805 -0.1327  0.0445
42972SOL    HW136031   6.512   5.782  12.184  0.4344 -0.2696 -0.1435
42972SOL    HW236032   6.620   5.749  12.286  0.1454  0.4415  0.4029
42973SOL     OW36033   9.958  10.010  11.466  0.9715 -0.5026  0.4860
42973SOL    HW136034  10.007   9.930  11.485  1.3817 -0.0924  1.1889
42973SOL    HW236035  10.016  10.062  11.411  1.1552 -0.2108  0.9479
42974SOL     OW36036   4.262  12.602   0.028 -0.0610 -0.2630 -1.1316
42974SOL    HW136037   4.299  12.621   0.114 -1.6627  0.3426 -0.5384
42974SOL    HW236038   4.178  12.647   0.028 -1.1078 -2.1219 -2.1708
42975SOL     OW36039   1.657  11.970  10.133  0.2270 -0.0755 -0.1541
42975SOL    HW136040   1.672  12.057  10.168  1.1489 -0.1601 -0.3290
42975SOL    HW236041   1.691  11.911  10.200 -0.6412 -0.3191  0.0886
42976SOL     OW36042   6.032   0.742   2.251 -0.4999 -0.3543  0.1356
42976SOL    HW136043   6.109   0.726   2.306  1.3858  0.7814 -1.9734
42976SOL    HW236044   6.003   0.830   2.275  1.4032  0.8750 -1.7210
42977SOL     OW36045   0.982   4.415   5.300  0.3191 -0.5207  0.2738
42977SOL    HW136046   0.902   4.429   5.351  0.6007  0.2130  0.5276
42977SOL    HW236047   1.030   4.498   5.307 -0.4088  0.2750 -2.5922
42978SOL     OW36048   8.689   6.136   7.909  0.7325  0.0620  0.4847
42978SOL    HW136049   8.719   6.166   7.823  0.1577 -0.6972  0.0038
42978SOL    HW236050   8.593   6.134   7.901  0.7210 -2.3158  0.3012
42979SOL     OW36051   5.289   6.168   7.261  0.0965 -0.1700 -0.5050
42979SOL    HW136052   5.319   6.254   7.292 -0.3120 -0.3296  0.3468
42979SOL    HW236053   5.267   6.183   7.169 -0.3570  0.7377 -0.2618
42980SOL     OW36054  12.189  11.538   7.806  0.0882 -0.2473  0.4812
42980SOL    HW136055  12.123  11.468   7.802  1.2205 -1.2961 -0.3722
42980SOL    HW236056  12.146  11.613   7.763 -0.3863 -1.0640 -0.5271
42981SOL     OW36057   9.302   4.044   4.535 -0.4575  0.2122 -0.4946
42981SOL    HW136058   9.342   3.979   4.593  1.1313  1.7488  0.2291
42981SOL    HW236059   9.298   4.124   4.588  0.0683  1.3832 -2.1591
42982SOL     OW36060   9.439   0.853  10.790  0.4912  0.0955 -0.4329
42982SOL    HW136061   9.472   0.852  10.701 -1.8670 -0.4696 -1.3906
42982SOL    HW236062   9.403   0.942  10.801 -0.1062 -0.1381 -0.4336
42983SOL     OW36063   2.440  11.137   9.883 -0.2354 -0.1044  0.6863
42983SOL    HW136064   2.394  11.187   9.950 -0.6585 -0.8315  0.9430
42983SOL    HW236065   2.428  11.188   9.803 -1.1753 -0.1094  0.8208
42984SOL     OW36066   8.828   9.540   0.020  0.2305  0.0469 -0.1444
42984SOL    HW136067   8.866   9.484  -0.047  1.0049  0.0137  0.3116
42984SOL    HW236068   8.844   9.629  -0.011 -0.7137  0.0330 -0.7100
42985SOL     OW36069   7.199  12.783   6.227 -0.1273  0.3124  0.6739
42985SOL    HW136070   7.158  12.866   6.203 -1.3974 -0.1537  1.1897
42985SOL    HW236071   7.209  12.736   6.145 -0.5336  0.4736  0.5303
42986SOL     OW36072   5.758   9.084   1.884 -0.1537 -0.3417  0.3630
42986SOL    HW136073   5.765   9.028   1.807  1.1183  0.6925 -0.3074
42986SOL    HW236074   5.770   9.025   1.958 -0.4805 -1.1974 -0.2509
42987SOL     OW36075   6.785   5.562   5.409 -0.0679  0.8240 -0.2258
42987SOL    HW136076   6.777   5.525   5.497 -0.5405  0.2886 -0.4840
42987SOL    HW236077   6.854   5.510   5.368 -0.8709  0.0693 -0.6565
42988SOL     OW36078   0.151  11.193  11.605 -0.3678 -0.1503 -0.1139
42988SOL    HW136079   0.125  11.224  11.691 -0.0857 -1.9237  0.6506
42988SOL    HW236080   0.185  11.271  11.561  0.6277  0.5687  1.8147
42989SOL     OW36081   8.551   6.172   6.204 -0.2557  0.1929  0.2462
42989SOL    HW136082   8.578   6.152   6.294  0.2555  0.1599  0.0857
42989SOL    HW236083   8.615   6.127   6.149 -0.2940  0.5973 -0.1349
42990SOL     OW36084   6.402  10.497   6.871  0.2707 -0.4461  0.2500
42990SOL    HW136085   6.462  10.423   6.864  0.1864 -0.5156  0.2639
42990SOL    HW236086   6.316  10.460   6.853  0.1008 -0.5412  1.2074
42991SOL     OW36087   7.290   5.101  12.202  0.1439  0.2040  0.4043
42991SOL    HW136088   7.314   5.119  12.293  0.2898 -2.5104  0.9798
42991SOL    HW236089   7.196   5.121  12.198  0.2352  0.8022  1.0036
42992SOL     OW36090   3.534   7.237   0.744  0.0520 -0.6099  0.1391
42992SOL    HW136091   3.469   7.229   0.674  1.3519  0.5976 -1.2891
42992SOL    HW236092   3.514   7.321   0.786  1.2137  0.2619 -0.9567
42993SOL     OW36093   9.808   4.802   9.490  0.1048 -0.2163 -0.2422
42993SOL    HW136094   9.831   4.797   9.583  0.6268  0.2074 -0.3416
42993SOL    HW236095   9.816   4.895   9.469 -1.4420 -0.0892 -0.3660
42994SOL     OW36096   9.398  10.507   8.056 -0.7034 -0.1363  0.1974
42994SOL    HW136097   9.457  10.498   7.981  0.1942  0.8219  0.7705
42994SOL    HW236098   9.444  10.565   8.117 -1.1374 -1.3515  1.7628
42995SOL     OW36099   2.123   2.362  11.643 -0.6366 -0.1937 -0.4499
42995SOL    HW136100   2.090   2.320  11.723  0.1162 -0.2095 -0.1453
42995SOL    HW236101   2.069   2.325  11.574  0.3636 -2.1366 -0.2724
42996SOL     OW36102   0.457  10.914   4.670 -0.3245 -0.2581  0.1587
42996SOL    HW136103   0.490  10.915   4.760  0.9256 -0.3779 -0.2921
42996SOL    HW236104   0.498  10.989   4.628 -1.2842  0.0870 -0.2017
42997SOL     OW36105   9.954   4.972   1.575 -0.1492 -0.0750  0.2256
42997SOL    HW136106  10.035   5.022   1.581 -0.5835  0.5195  1.4753
42997SOL    HW236107   9.927   4.982   1.484  0.9943  0.0008 -0.1210
42998SOL     OW36108   7.920   9.385  11.504  0.3666 -0.2376  0.3106
42998SOL    HW136109   7.929   9.385  11.599  0.4191 -0.1845  0.3062
42998SOL    HW236110   7.934   9.476  11.478 -1.9455  0.2175  0.4579
42999SOL     OW36111   3.272   6.049   4.780 -1.0394  0.7104  0.2273
42999SOL    HW136112   3.335   6.030   4.711 -1.7057 -1.0095  0.0595
42999SOL    HW236113   3.302   5.999   4.855 -3.0181 -1.5091 -0.3236
43000SOL     OW36114   0.142  12.446   0.714 -0.4918 -0.4222  0.0633
43000SOL    HW136115   0.195  12.525   0.701 -1.5219  0.8883  3.0354
43000SOL    HW236116   0.205  12.374   0.711  0.6880  0.6136 -1.2930
43001SOL     OW36117  11.825  10.634   2.631  0.0151 -0.5754 -0.3047
43001SOL    HW136118  11.833  10.580   2.710 -0.6794 -0.0555  0.1234
43001SOL    HW236119  11.751  10.691   2.648  1.7210  1.7064 -0.0517
43002SOL     OW36120   6.859   6.618   2.119  0.0177 -0.0240 -0.0069
43002SOL    HW136121   6.805   6.653   2.048 -0.6242 -0.1631  0.4024
43002SOL    HW236122   6.929   6.571   2.074 -1.3184 -1.5527 -0.5902
43003SOL     OW36123  12.396   5.583   7.825 -0.6497  0.2039  0.2346
43003SOL    HW136124  12.339   5.543   7.759 -1.0920  0.9567  0.1474
43003SOL    HW236125  12.380   5.677   7.816  0.0281  0.3732  0.7451
43004SOL     OW36126   1.773   9.078   8.477 -0.0955 -0.4615 -0.3467
43004SOL    HW136127   1.819   9.033   8.547  1.4323 -1.2003 -1.7726
43004SOL    HW236128   1.728   9.009   8.429  0.2836 -0.1971 -1.1084
43005SOL     OW36129   5.194   2.055   8.473 -0.3094  0.0169 -0.5595
43005SOL    HW136130   5.205   2.036   8.566 -0.3472  2.0981 -0.0697
43005SOL    HW236131   5.257   1.998   8.429 -1.0577 -1.8098  0.6115
43006SOL     OW36132   1.574  10.800   4.739  0.0793  0.0963 -0.2027
43006SOL    HW136133   1.559  10.720   4.688  0.5644 -0.6378  0.7791
43006SOL    HW236134   1.642  10.776   4.802 -3.0141 -0.2673  3.3781
43007SOL     OW36135  12.350  10.978   3.293  0.7827 -0.3801  0.3956
43007SOL    HW136136  12.285  11.039   3.257  0.6084 -0.3053  0.8288
43007SOL    HW236137  12.342  10.900   3.239 -2.2339 -1.8064  2.6078
43008SOL     OW36138  11.016   0.885   6.652 -0.1270 -0.1505  0.7816
43008SOL    HW136139  11.008   0.862   6.745  1.7705  0.3855  1.1171
43008SOL    HW236140  11.006   0.980   6.650  0.9615 -0.0275  0.6083
43009SOL     OW36141   7.241  11.034   8.032  0.4020  0.0264  0.0709
43009SOL    HW136142   7.268  10.976   7.961  1.8034  1.7596 -0.9020
43009SOL    HW236143   7.301  11.014   8.103 -0.8511 -1.5433  0.7551
43010SOL     OW36144  12.566   3.944  11.743 -0.4044  0.6549 -1.1781
43010SOL    HW136145  12.476   3.973  11.727 -0.4420  2.3140  1.4982
43010SOL    HW236146  12.556   3.861  11.790 -0.5035  0.4820 -1.4995
43011SOL     OW36147   0.705  11.727   9.911  0.4780  0.2955 -0.3724
43011SOL    HW136148   0.718  11.817   9.940  0.8899  0.3812 -0.8161
43011SOL    HW236149   0.678  11.735   9.819  0.2620 -0.0199 -0.3366
43012SOL     OW36150   3.144   9.646   4.656 -0.5482  0.0691  0.2359
43012SOL    HW136151   3.117   9.561   4.621  1.0867 -0.2874 -0.2554
43012SOL    HW236152   3.139   9.636   4.751 -0.6779 -0.4620  0.1741
43013SOL     OW36153  10.477  12.262   0.371  0.0660 -0.2594 -0.2423
43013SOL    HW136154  10.441  12.205   0.303 -2.6810  1.2437 -0.1903
43013SOL    HW236155  10.459  12.217   0.453  0.0138 -0.3733 -0.3167
43014SOL     OW36156  10.686   3.823   4.622  0.1511  0.0989 -0.0251
43014SOL    HW136157  10.755   3.853   4.562  0.8673  0.4083  0.9418
43014SOL    HW236158  10.732   3.803   4.703 -0.5855 -1.8901 -0.0617
43015SOL     OW36159   9.606   7.678   4.716  0.1466  0.2762  0.4488
43015SOL    HW136160   9.551   7.602   4.736 -0.0250  1.0977  3.7206
43015SOL    HW236161   9.694   7.641   4.708 -0.2815 -0.5526 -0.6315
43016SOL     OW36162   6.025   3.259   9.417  0.4820  0.1916 -0.0699
43016SOL    HW136163   5.948   3.280   9.470 -0.3636  0.8910 -1.5106
43016SOL    HW236164   6.096   3.308   9.458 -0.1509  0.7204  0.4138
43017SOL     OW36165  10.605  12.651  11.438 -0.2647  0.2019  0.1344
43017SOL    HW136166  10.577  12.635  11.528 -0.6115 -0.0164 -0.0064
43017SOL    HW236167  10.589  12.567  11.393 -2.5396  0.9970 -0.7266
43018SOL     OW36168   2.163   6.511   2.973  0.3022 -0.4229 -0.0599
43018SOL    HW136169   2.128   6.425   2.952 -0.0219 -0.0001 -1.3649
43018SOL    HW236170   2.239   6.521   2.916  0.1445  0.2644 -0.1668
43019SOL     OW36171  12.599   8.758   1.719  0.5585  0.5233  0.3575
43019SOL    HW136172  12.553   8.841   1.733  0.0727  0.3468 -0.1736
43019SOL    HW236173  12.622   8.728   1.807 -1.6413 -0.1172  0.7649
43020SOL     OW36174   1.145   9.680   7.715  0.7845 -0.9564  0.1182
43020SOL    HW136175   1.159   9.707   7.805  0.6668 -1.3463  0.2552
43020SOL    HW236176   1.163   9.586   7.715  3.2590 -0.5503 -0.7865
43021SOL     OW36177  10.959   1.154   6.721  0.0623  0.0364 -0.7172
43021SOL    HW136178  11.015   1.216   6.673  2.1321 -1.3239 -0.1985
43021SOL    HW236179  10.942   1.197   6.804  1.0137  0.1917 -0.5836
43022SOL     OW36180   7.778  11.889   2.731 -0.6429 -0.5606  0.0091
43022SOL    HW136181   7.688  11.921   2.722 -0.8072 -0.5979  1.3097
43022SOL    HW236182   7.769  11.797   2.752 -0.2719 -0.6695 -0.2911
43023SOL     OW36183  10.147  12.650   3.020  0.2585 -0.4227  0.2564
43023SOL    HW136184  10.223  12.679   3.072  0.0870  0.0017  0.2725
43023SOL    HW236185  10.175  12.567   2.981  1.3594  0.5492 -1.1071
43024SOL     OW36186  11.361   4.564   5.431  0.6218  0.1792 -0.5739
43024SOL    HW136187  11.376   4.603   5.517  1.2720 -0.6500 -0.2969
43024SOL    HW236188  11.428   4.601   5.375  1.0593 -0.2991 -0.3796
43025SOL     OW36189  10.993   7.807  11.082 -0.6838 -0.8095  0.4472
43025SOL    HW136190  11.015   7.717  11.107  1.0011  0.0332  2.2236
43025SOL    HW236191  11.024   7.861  11.155  0.2694  1.4231 -1.4729
43026SOL     OW36192   9.658   0.182  11.857 -0.4007 -0.4353 -0.2533
43026SOL    HW136193   9.574   0.143  11.832 -0.9933  1.0245 -0.6760
43026SOL    HW236194   9.658   0.268  11.814  1.3648 -0.4492 -0.3561
43027SOL     OW36195   8.021   2.135   5.210  0.4495  0.0972 -0.4068
43027SOL    HW136196   8.056   2.200   5.149  0.1829  1.0522  0.4273
43027SOL    HW236197   7.958   2.184   5.263  1.4822 -0.4189  1.3735
43028SOL     OW36198   1.009   1.929   0.530  0.1331 -0.6432 -0.0707
43028SOL    HW136199   0.963   1.847   0.507  0.5691 -1.4958  1.9375
43028SOL    HW236200   1.092   1.900   0.566  0.4821  0.7321  0.2534
43029SOL     OW36201  12.381  10.137   8.655 -0.2485  0.3941 -0.2963
43029SOL    HW136202  12.461  10.189   8.653  1.1371 -1.4670  1.5070
43029SOL    HW236203  12.399  10.062   8.597 -2.0889  1.6179 -2.6318
43030SOL     OW36204   9.700   7.972   8.999 -0.2883  0.2873 -0.3795
43030SOL    HW136205   9.766   8.034   9.031  0.3894  0.0486 -1.2621
43030SOL    HW236206   9.739   7.886   9.013 -0.7303  0.1126 -0.2229
43031SOL     OW36207   5.880   4.461   3.673 -0.6322 -0.6457 -0.0491
43031SOL    HW136208   5.950   4.454   3.738 -1.4075  0.8843  1.0149
43031SOL    HW236209   5.924   4.491   3.594 -0.1937  1.9588  1.0514
43032SOL     OW36210   2.153   1.975  11.228 -0.2491 -0.5462  0.4251
43032SOL    HW136211   2.171   1.911  11.297  0.5733 -0.5564  0.2174
43032SOL    HW236212   2.199   1.940  11.151  0.7655  0.6041  0.4789
43033SOL     OW36213   9.689   0.908  11.641 -0.0372  0.1200 -0.3348
43033SOL    HW136214   9.602   0.908  11.602  0.5815 -0.6544 -1.8019
43033SOL    HW236215   9.674   0.915  11.735 -1.6619  0.2264 -0.5811
43034SOL     OW36216   8.966   2.012   7.550  0.1024 -0.3944  0.9820
43034SOL    HW136217   9.057   1.995   7.574  1.9552  1.5569 -3.5066
43034SOL    HW236218   8.941   2.087   7.604  1.7152 -0.0479  1.2971
43035SOL     OW36219  11.985   0.183  10.196  0.3763 -0.0646  0.0996
43035SOL    HW136220  11.944   0.210  10.278  0.9168  3.5655 -0.6500
43035SOL    HW236221  12.079   0.189  10.213  0.5037 -0.4215 -0.4617
43036SOL     OW36222   9.530   1.447   0.641  0.9493 -0.4793  0.2174
43036SOL    HW136223   9.490   1.468   0.725  2.6946 -1.3373  1.3232
43036SOL    HW236224   9.521   1.528   0.589  1.7801  0.8309  2.0156
43037SOL     OW36225   5.352  12.478  10.685  0.3211 -0.6013 -0.6898
43037SOL    HW136226   5.310  12.398  10.718 -0.5007  0.5144  1.1414
43037SOL    HW236227   5.410  12.505  10.756 -0.8891  1.4560 -0.4134
43038SOL     OW36228  10.276   0.128   4.829  0.1853  0.1406 -0.9233
43038SOL    HW136229  10.365   0.097   4.845  0.2477  0.2958 -0.9639
43038SOL    HW236230  10.269   0.133   4.733  0.5272  1.2532 -0.8999
43039SOL     OW36231  10.418   9.262   1.336  0.3247 -0.1729 -0.2423
43039SOL    HW136232  10.410   9.356   1.350  1.2640 -0.1144 -0.0427
43039SOL    HW236233  10.356   9.223   1.399 -0.5125  0.3174 -0.7441
43040SOL     OW36234   8.971   9.851   5.521 -0.1650  0.7743 -0.0221
43040SOL    HW136235   9.055   9.860   5.475 -0.1686  1.2379  0.0626
43040SOL    HW236236   8.938   9.940   5.528 -1.8223  0.4041 -2.1796
43041SOL     OW36237  10.857   4.918   0.474 -0.1433  0.2780 -0.2591
43041SOL    HW136238  10.842   4.928   0.380  1.7520  0.3412 -0.5943
43041SOL    HW236239  10.873   5.007   0.505  1.3889  0.0471 -0.3158
43042SOL     OW36240   5.719   0.613  12.889  0.2773  0.5540 -0.2044
43042SOL    HW136241   5.752   0.697  12.922  1.0980 -0.2625  1.1534
43042SOL    HW236242   5.742   0.614  12.796  1.7565  1.1792  0.1240
43043SOL     OW36243   4.963   2.721  10.818 -0.2599  0.0078 -0.1003
43043SOL    HW136244   4.937   2.790  10.879 -0.5517 -1.4134  1.4230
43043SOL    HW236245   4.951   2.761  10.731  2.8097  3.0914  0.6550
43044SOL     OW36246   4.444   6.127   4.775  0.2545  0.3441  0.7024
43044SOL    HW136247   4.423   6.220   4.787 -1.9352  0.1086 -0.6785
43044SOL    HW236248   4.503   6.126   4.700 -0.7388  0.5568 -0.0982
43045SOL     OW36249   4.418   9.802   2.025  0.4136  0.3761  0.6466
43045SOL    HW136250   4.419   9.898   2.030 -1.3864  0.4858 -0.2467
43045SOL    HW236251   4.379   9.775   2.109 -1.5792  0.6147 -0.1438
43046SOL     OW36252   5.978   8.007   9.630  0.0517 -0.4817 -0.1475
43046SOL    HW136253   5.921   8.070   9.675  0.6430  0.4190 -0.6131
43046SOL    HW236254   6.046   7.987   9.693 -1.3242 -2.4112  0.8129
43047SOL     OW36255   8.916   9.434   5.560 -0.3359  0.2849 -0.4992
43047SOL    HW136256   8.878   9.487   5.631 -0.7647 -0.0109 -0.5057
43047SOL    HW236257   8.995   9.482   5.534  0.1934  0.0637  0.6180
43048SOL     OW36258  10.929   3.882   1.264  0.1174  0.3469 -0.4862
43048SOL    HW136259  11.014   3.859   1.227  0.9981  0.5656  1.3248
43048SOL    HW236260  10.922   3.830   1.343 -1.1792  0.7940 -0.2754
43049SOL     OW36261  10.256  10.528   1.146 -0.9348  0.2137  0.1717
43049SOL    HW136262  10.262  10.582   1.067  3.9677  0.0972  0.1841
43049SOL    HW236263  10.236  10.440   1.114  0.5707  0.2545 -0.9388
43050SOL     OW36264   2.144   5.307   4.909 -0.9288  0.3583  0.2844
43050SOL    HW136265   2.210   5.270   4.968 -0.4885  0.1918 -0.3026
43050SOL    HW236266   2.194   5.353   4.843 -1.4579  1.5330  0.6778
43051SOL     OW36267   9.289   7.551   5.215 -0.3572 -0.7356  0.2584
43051SOL    HW136268   9.226   7.614   5.251 -0.3024  0.4660 -1.6126
43051SOL    HW236269   9.250   7.523   5.132  1.1137 -0.6760 -0.4797
43052SOL     OW36270   3.191   8.582   8.477 -0.1071  0.0575  0.4242
43052SOL    HW136271   3.131   8.607   8.407  0.0971  1.4628  0.7149
43052SOL    HW236272   3.188   8.655   8.539  0.1462 -0.8966  1.6157
43053SOL     OW36273   0.862   6.251   6.451 -0.0234  0.1314  0.7206
43053SOL    HW136274   0.954   6.268   6.429  0.3457 -1.7790  0.6113
43053SOL    HW236275   0.814   6.277   6.372  0.9039 -2.8895 -1.0160
43054SOL     OW36276   9.741  10.514   3.086 -0.4136  0.1916  0.1636
43054SOL    HW136277   9.820  10.466   3.112  0.0351 -0.1656 -1.7328
43054SOL    HW236278   9.743  10.594   3.140 -0.5086 -1.2669  2.4616
43055SOL     OW36279  10.857   4.797  12.528  0.2270  0.1074 -0.1719
43055SOL    HW136280  10.920   4.819  12.459  0.7706 -0.3261  0.1810
43055SOL    HW236281  10.773   4.823  12.492  0.7555  2.0848 -0.0690
43056SOL     OW36282   4.448   9.912  11.937 -0.4262  0.8188  0.0185
43056SOL    HW136283   4.420   9.991  11.982 -0.1280  0.1411  1.4781
43056SOL    HW236284   4.505   9.868  12.000 -0.3397 -0.4041 -0.8735
43057SOL     OW36285   4.354   2.388   0.543 -0.0013  0.4212 -0.5301
43057SOL    HW136286   4.352   2.327   0.469  0.6368  1.2362 -1.2401
43057SOL    HW236287   4.374   2.333   0.619  0.2681 -0.2961 -1.1030
43058SOL     OW36288   0.000   7.211  11.882 -0.3406 -0.6041  0.1990
43058SOL    HW136289   0.081   7.254  11.853 -0.9398  0.1848 -0.3288
43058SOL    HW236290   0.009   7.121  11.851  0.6433 -0.7103  0.7519
43059SOL     OW36291  12.578  11.442   3.239  0.0079 -0.8211  0.4728
43059SOL    HW136292  12.579  11.352   3.271  0.3065 -0.8580  0.3666
43059SOL    HW236293  12.578  11.496   3.318  2.8349 -0.8819  0.6166
43060SOL     OW36294  10.972   3.157   5.326 -0.4723  0.1451 -0.4848
43060SOL    HW136295  10.917   3.121   5.395 -1.6672  2.1909 -0.2764
43060SOL    HW236296  11.058   3.166   5.367 -0.7224 -0.3340  0.1695
43061SOL     OW36297   9.370   0.133   2.522 -0.1752 -0.2172 -0.3044
43061SOL    HW136298   9.281   0.107   2.497 -0.3065 -0.0489 -0.0179
43061SOL    HW236299   9.365   0.228   2.532  0.0527 -0.2010 -0.3422
43062SOL     OW36300   4.314   5.903  12.029  0.7034 -0.0918  0.3465
43062SOL    HW136301   4.386   5.848  11.999  0.5130  0.6258 -1.5630
43062SOL    HW236302   4.298   5.875  12.119  1.4111 -2.2899 -0.1589
43063SOL     OW36303   4.595   7.138  12.420 -0.1423  0.2413 -0.1013
43063SOL    HW136304   4.610   7.111  12.510  0.5302 -0.6167 -0.4544
43063SOL    HW236305   4.629   7.227  12.415  2.1536 -0.5747 -0.1160
43064SOL     OW36306   2.544   4.025   9.559  0.5441 -0.0815  0.2705
43064SOL    HW136307   2.465   3.972   9.545  1.3384 -0.8108 -1.8863
43064SOL    HW236308   2.587   3.986   9.635 -0.6570 -0.2697  0.8754
43065SOL     OW36309  11.628   8.898  10.258  0.3869 -0.4011  0.1523
43065SOL    HW136310  11.582   8.981  10.243  1.3710  0.1602  0.1398
43065SOL    HW236311  11.684   8.915  10.334  0.7118 -1.0061  0.0511
43066SOL     OW36312   8.388   2.554  10.054  0.1184  0.1498  0.7540
43066SOL    HW136313   8.381   2.521  10.144 -0.0594  0.1893  0.7554
43066SOL    HW236314   8.373   2.648  10.062  1.2315  0.3260  0.8251
43067SOL     OW36315   7.978   7.903   6.226 -0.0397  0.2416  0.6548
43067SOL    HW136316   8.037   7.945   6.163 -1.2376  2.2856  0.7795
43067SOL    HW236317   8.004   7.939   6.310 -2.0589  2.1050  0.5975
43068SOL     OW36318   9.301   4.000   6.885 -0.0073  0.1211  0.1941
43068SOL    HW136319   9.375   3.952   6.922  1.0987  2.4311  1.1877
43068SOL    HW236320   9.258   4.041   6.960 -1.8498 -0.4939 -0.4580
43069SOL     OW36321   9.012   3.521   0.480 -0.2756  0.3156  0.6466
43069SOL    HW136322   9.014   3.598   0.424 -0.0241 -0.7534 -0.8798
43069SOL    HW236323   8.997   3.448   0.420  2.9672 -1.2535  1.5454
43070SOL     OW36324  12.297   0.539   6.394  0.4116  0.2651  0.4730
43070SOL    HW136325  12.298   0.541   6.299 -1.2903  0.3694  0.4368
43070SOL    HW236326  12.373   0.485   6.417 -0.1256 -1.2064 -1.0004
43071SOL     OW36327   4.548   3.379   5.464 -0.5659 -0.0300  0.3622
43071SOL    HW136328   4.515   3.347   5.548  0.7408 -0.2189  0.8306
43071SOL    HW236329   4.556   3.301   5.409 -2.0832  0.1765 -0.2168
43072SOL     OW36330   6.726  12.675  11.926 -0.6269 -0.1947 -0.0342
43072SOL    HW136331   6.673  12.687  11.847  0.5920  0.5190 -0.7596
43072SOL    HW236332   6.662  12.672  11.997 -1.7412 -0.8193 -1.0314
43073SOL     OW36333  10.318   5.715   3.182  0.0511  0.1324  0.3294
43073SOL    HW136334  10.408   5.714   3.216  0.6106 -0.1519 -1.0680
43073SOL    HW236335  10.317   5.644   3.118 -1.7695 -1.1785  1.7320
43074SOL     OW36336   8.646   1.060   1.679 -0.3239  0.8899  0.2759
43074SOL    HW136337   8.624   1.082   1.770 -0.1045 -1.2360  0.9002
43074SOL    HW236338   8.741   1.055   1.677 -0.3562  0.1553  0.1535
43075SOL     OW36339  12.306   5.729   9.903 -0.4737 -0.9763 -0.0729
43075SOL    HW136340  12.306   5.682   9.819  1.1260 -0.6328 -0.2983
43075SOL    HW236341  12.285   5.819   9.879  1.4537 -0.5656 -0.3390
43076SOL     OW36342   5.654  11.187   0.969 -0.2223 -0.4955 -0.3610
43076SOL    HW136343   5.667  11.126   0.896  0.1531  0.0930 -0.8005
43076SOL    HW236344   5.726  11.250   0.960 -0.9119  0.3239 -0.2457
43077SOL     OW36345   6.533  10.668   5.336  0.0840  0.2032 -0.1542
43077SOL    HW136346   6.470  10.618   5.286  1.2367 -2.2451  0.6788
43077SOL    HW236347   6.617  10.625   5.319  1.0000  1.2697  1.3858
43078SOL     OW36348   7.532  10.064  11.785  0.2006 -0.1081 -0.3245
43078SOL    HW136349   7.547  10.065  11.879 -0.1186 -0.9664 -0.2631
43078SOL    HW236350   7.558   9.976  11.757  0.9129  0.3382 -1.1432
43079SOL     OW36351   4.895   7.625   2.337 -0.0507  0.1396 -0.1793
43079SOL    HW136352   4.989   7.611   2.348 -0.2066 -1.3703 -0.5185
43079SOL    HW236353   4.859   7.615   2.426 -0.0683 -1.0602 -0.2999
43080SOL     OW36354   7.098   8.012  12.042 -0.0421 -0.0760  0.2381
43080SOL    HW136355   7.050   8.024  12.124  0.9749  0.5588  0.7567
43080SOL    HW236356   7.089   7.919  12.022 -0.9539 -0.0875  0.6464
43081SOL     OW36357   6.759   0.218   5.832  0.0549  0.1826 -0.1344
43081SOL    HW136358   6.789   0.130   5.809  2.7692  1.1599 -0.7093
43081SOL    HW236359   6.782   0.271   5.756 -1.9893  1.3484 -0.0022
43082SOL     OW36360  11.197   0.394   2.046  0.2850  0.3329 -0.2603
43082SOL    HW136361  11.168   0.476   2.087  0.6421 -0.0378  0.7760
43082SOL    HW236362  11.184   0.328   2.115 -1.1499 -0.7130 -1.4650
43083SOL     OW36363   6.263   6.649   6.219  0.1599 -0.1303  0.3459
43083SOL    HW136364   6.184   6.604   6.189 -0.3513  1.1134 -0.2770
43083SOL    HW236365   6.322   6.647   6.144  1.0670 -1.7569  1.0702
43084SOL     OW36366   1.561   5.132  12.551 -0.1404  0.0793 -0.4099
43084SOL    HW136367   1.579   5.058  12.493  0.4838 -1.8789  2.1418
43084SOL    HW236368   1.645   5.153  12.590  0.0005  3.1279 -1.9931
43085SOL     OW36369   5.044   3.406   6.417 -0.2681  0.1122  0.0500
43085SOL    HW136370   5.133   3.397   6.450 -0.3917  1.8355  1.0306
43085SOL    HW236371   5.007   3.478   6.469 -0.9265  2.1784 -3.0266
43086SOL     OW36372   4.256   6.034   2.691  0.4554  0.0537 -0.6622
43086SOL    HW136373   4.177   6.020   2.637 -0.4297  0.4381  0.4906
43086SOL    HW236374   4.324   5.982   2.648 -1.0194 -2.2834 -0.3442
43087SOL     OW36375  12.394   5.997   2.724 -0.3273  0.2020 -0.7539
43087SOL    HW136376  12.465   5.951   2.769 -0.8146  1.2664  1.2032
43087SOL    HW236377  12.437   6.044   2.652  0.7828 -0.0484 -0.2711
43088SOL     OW36378   4.800   6.928  10.941  1.0947 -0.2819  0.1831
43088SOL    HW136379   4.755   6.975  11.011  1.6674 -1.9632  1.7304
43088SOL    HW236380   4.741   6.856  10.919  1.5003 -0.5017 -0.1807
43089SOL     OW36381   4.060   0.707   9.730  0.7017 -0.5000 -0.0264
43089SOL    HW136382   3.985   0.720   9.788  0.4163 -0.5946 -0.3673
43089SOL    HW236383   4.133   0.750   9.774  0.0590  1.1727 -0.5289
43090SOL     OW36384   7.871  11.917  11.675 -0.2387  0.0493  0.0759
43090SOL    HW136385   7.910  12.002  11.654 -1.9455  0.4972 -1.5723
43090SOL    HW236386   7.883  11.865  11.595 -1.0661 -0.5150  0.3051
43091SOL     OW36387   4.321  10.664   1.032 -0.0127 -0.7845 -0.4585
43091SOL    HW136388   4.395  10.706   0.988  1.3776 -2.1184  0.4589
43091SOL    HW236389   4.255  10.654   0.964 -0.2381  2.3064 -0.8361
43092SOL     OW36390   3.501   5.684   6.892 -0.3189  0.2037  0.1073
43092SOL    HW136391   3.533   5.674   6.803  0.1996 -0.6310  0.3809
43092SOL    HW236392   3.511   5.598   6.932  0.1592  0.7428  1.1969
43093SOL     OW36393  12.421  12.792   3.529 -0.4508 -0.4161 -0.3260
43093SOL    HW136394  12.419  12.770   3.622  1.6275  0.9386  0.0931
43093SOL    HW236395  12.342  12.845   3.515 -0.6552 -0.4390  0.7056
43094SOL     OW36396   1.292  10.519  12.115 -0.0304  1.1011  0.1651
43094SOL    HW136397   1.242  10.438  12.107  2.0860 -0.5212  2.0477
43094SOL    HW236398   1.237  10.576  12.168 -0.8297  0.2338  0.3037
43095SOL     OW36399  11.991   3.026  11.212 -0.0477 -0.0615 -0.5267
43095SOL    HW136400  12.043   2.964  11.162  0.9261 -2.2834  2.9160
43095SOL    HW236401  11.901   2.997  11.199  0.1829 -0.6386 -0.9067
43096SOL     OW36402   1.630   6.612   5.052  0.8744  0.0233  0.0764
43096SOL    HW136403   1.666   6.684   5.104 -0.5096  0.4956  0.4241
43096SOL    HW236404   1.573   6.654   4.987 -0.9287 -0.7465  1.0588
43097SOL     OW36405   8.982   7.346   1.395  0.1239 -0.4345  0.0394
43097SOL    HW136406   8.998   7.303   1.479 -0.3674 -0.8918 -0.0971
43097SOL    HW236407   8.930   7.423   1.417  0.5451 -0.1943  0.2207
43098SOL     OW36408   8.545   3.578   7.259 -0.5826 -0.2059  0.1902
43098SOL    HW136409   8.605   3.531   7.201 -1.3100 -0.4980 -0.3326
43098SOL    HW236410   8.505   3.645   7.204 -0.8604 -0.1152  0.4954
43099SOL     OW36411   3.867   6.237  11.964  0.0763 -0.8850  0.1064
43099SOL    HW136412   3.899   6.238  12.054  1.5393  1.4070 -0.3340
43099SOL    HW236413   3.934   6.188  11.916  0.6304  0.0655 -0.1092
43100SOL     OW36414   8.622   5.853   0.144  0.3296  0.0650  0.4550
43100SOL    HW136415   8.716   5.840   0.155  0.4821  0.5462 -0.2335
43100SOL    HW236416   8.612   5.947   0.130 -0.2010 -0.0538  0.0070
43101SOL     OW36417   7.383   5.237   5.027 -0.2466 -0.2615 -0.1631
43101SOL    HW136418   7.315   5.303   5.038  0.3419  0.2917  0.2141
43101SOL    HW236419   7.455   5.267   5.083  0.6589 -0.3720 -1.2348
43102SOL     OW36420  11.198   2.544   9.205 -0.0982  0.4019 -0.1335
43102SOL    HW136421  11.163   2.464   9.164  0.9967 -0.0833 -0.1719
43102SOL    HW236422  11.124   2.603   9.210 -0.6863 -0.2186 -1.1261
43103SOL     OW36423   0.604   4.903   8.945 -0.9812  0.5950 -0.9630
43103SOL    HW136424   0.586   4.820   8.989  0.1930  0.6376 -0.3701
43103SOL    HW236425   0.637   4.877   8.858 -2.7988  0.5052 -1.6604
43104SOL     OW36426   6.517   3.239  11.558 -0.4436 -0.5008  0.3995
43104SOL    HW136427   6.517   3.222  11.653  0.0338  1.1121  0.7193
43104SOL    HW236428   6.490   3.156  11.519 -0.9883 -1.1024  1.9683
43105SOL     OW36429   2.983   5.346  10.511  0.1906 -0.0883 -0.0779
43105SOL    HW136430   2.903   5.390  10.480 -0.0317  0.2477  0.9560
43105SOL    HW236431   3.022   5.310  10.431 -1.7102 -1.4550 -0.4576
43106SOL     OW36432  10.201  10.769   1.517  0.0331 -0.2355 -0.4644
43106SOL    HW136433  10.183  10.800   1.606  0.3142  0.2573 -0.5749
43106SOL    HW236434  10.212  10.674   1.526 -0.4971 -0.2646 -0.0637
43107SOL     OW36435   6.543   5.857   9.480 -0.0895  0.2090  0.0644
43107SOL    HW136436   6.527   5.951   9.493  1.5084  0.3152  1.5238
43107SOL    HW236437   6.599   5.853   9.403  0.1573  0.4838  0.2282
43108SOL     OW36438  11.712  10.676  12.085 -0.0488 -0.2659  0.0242
43108SOL    HW136439  11.770  10.741  12.045 -0.0697  0.2803  0.8585
43108SOL    HW236440  11.686  10.619  12.012 -0.4713  0.9768 -0.8327
43109SOL     OW36441   1.067   8.530   8.339  0.5670 -0.0246  0.3246
43109SOL    HW136442   1.083   8.555   8.430  0.2625  4.6251 -0.6701
43109SOL    HW236443   1.154   8.534   8.297  0.2821  1.0789 -0.1918
43110SOL     OW36444  10.566   2.793   5.104  0.5956 -0.2181 -0.2056
43110SOL    HW136445  10.576   2.742   5.185 -1.2375  1.9207  1.5157
43110SOL    HW236446  10.550   2.882   5.134  0.6312  0.8311 -3.0081
43111SOL     OW36447   8.258  12.923  11.007 -0.3549  0.1708  0.5219
43111SOL    HW136448   8.279  12.905  11.099  0.2100 -1.5622  0.0934
43111SOL    HW236449   8.215  12.843  10.977 -1.8416  1.2600 -0.3547
43112SOL     OW36450   8.123  11.734   8.980  0.0813 -0.1006 -0.3847
43112SOL    HW136451   8.041  11.686   8.976 -0.3069  0.4748  0.4735
43112SOL    HW236452   8.191  11.667   8.969 -0.5031 -0.4775 -1.8608
43113SOL     OW36453   2.255  10.270   0.142  0.2448 -0.3627  0.4465
43113SOL    HW136454   2.324  10.212   0.110 -0.7461 -0.6187 -1.3684
43113SOL    HW236455   2.204  10.216   0.203  1.8750 -0.0165  2.2175
43114SOL     OW36456  10.742   9.190   9.687  0.2985 -0.3620 -0.3603
43114SOL    HW136457  10.648   9.179   9.671  0.7755 -1.2994 -3.2508
43114SOL    HW236458  10.773   9.103   9.711  0.4566 -0.0482  0.6198
43115SOL     OW36459   4.648   7.546   9.595  0.5671 -0.2805  0.4259
43115SOL    HW136460   4.686   7.613   9.652  1.7751 -1.4994  1.1182
43115SOL    HW236461   4.673   7.463   9.636  1.4243 -1.2144 -1.8334
43116SOL     OW36462   3.562   3.635   3.797 -0.3884  0.6163 -0.7467
43116SOL    HW136463   3.654   3.649   3.820 -0.7046  0.6428  0.5586
43116SOL    HW236464   3.541   3.549   3.832 -0.6892  0.3172 -1.6394
43117SOL     OW36465   2.898   8.997   0.624  0.2579 -0.2368  0.1991
43117SOL    HW136466   2.822   9.045   0.593  0.8709 -0.4963 -1.7931
43117SOL    HW236467   2.961   9.064   0.651 -0.2987 -0.0165  0.9811
43118SOL     OW36468  11.379   5.669   3.160 -0.3052  0.3092 -0.3788
43118SOL    HW136469  11.397   5.763   3.152 -0.4117  0.6848  2.6852
43118SOL    HW236470  11.462   5.632   3.191 -0.7669 -0.3086  0.1316
43119SOL     OW36471   8.453   2.428   9.018 -0.5647 -0.6038 -0.2642
43119SOL    HW136472   8.475   2.336   9.033  1.3152 -0.3422 -1.1696
43119SOL    HW236473   8.423   2.431   8.927 -0.1185 -0.2513 -0.4039
43120SOL     OW36474   1.610   0.990   0.680  0.1529  0.0330  0.1770
43120SOL    HW136475   1.594   0.899   0.704  2.0530 -0.7796 -1.3415
43120SOL    HW236476   1.650   1.029   0.758  0.4047 -0.7701  0.4612
43121SOL     OW36477   0.342   5.337   6.205  0.4082  0.2056  0.2450
43121SOL    HW136478   0.430   5.315   6.235  0.6616 -0.4646 -0.9155
43121SOL    HW236479   0.292   5.257   6.216  0.9106 -0.5989 -2.4417
43122SOL     OW36480   8.790   5.924  12.283 -0.1585 -0.0451 -0.2616
43122SOL    HW136481   8.846   5.927  12.360  1.6533  1.1052 -1.5689
43122SOL    HW236482   8.826   5.853  12.230 -1.0631 -0.4765 -0.3219
43123SOL     OW36483   8.950  11.459   5.577  0.1576 -0.2232  0.1053
43123SOL    HW136484   8.865  11.454   5.535 -0.0309  1.2995  0.2354
43123SOL    HW236485   8.944  11.401   5.653 -0.6411 -0.3685 -0.0694
43124SOL     OW36486   3.564   0.398  10.125 -0.3906  0.6039 -0.7730
43124SOL    HW136487   3.468   0.400  10.119 -0.4538 -0.4016 -0.2647
43124SOL    HW236488   3.582   0.393  10.219  0.1700  1.0292 -0.8539
43125SOL     OW36489   3.288   5.521   0.301  0.4048  0.0600  0.1985
43125SOL    HW136490   3.320   5.434   0.278  0.6985 -0.0214  0.8971
43125SOL    HW236491   3.345   5.550   0.372  0.1868  0.7459  0.1018
43126SOL     OW36492   4.988   0.371   9.631  0.4082 -0.2334 -0.1465
43126SOL    HW136493   4.964   0.361   9.723 -0.7231 -0.0620 -0.3994
43126SOL    HW236494   5.081   0.394   9.632  0.3732 -0.1001  0.9562
43127SOL     OW36495  10.881   4.002   0.110  0.7505  0.0261  0.1726
43127SOL    HW136496  10.918   4.073   0.057  3.5653 -0.6326  1.0990
43127SOL    HW236497  10.869   4.041   0.197  0.8995 -0.2545  0.3175
43128SOL     OW36498   1.964  10.694   1.331 -0.1129  0.0123 -0.2605
43128SOL    HW136499   1.949  10.619   1.388 -0.1663  0.1024 -0.1558
43128SOL    HW236500   1.950  10.770   1.387  0.5520  0.0983 -0.2093
43129SOL     OW36501   4.825   3.180   0.590 -0.3649  0.2283 -0.1187
43129SOL    HW136502   4.743   3.190   0.543  0.3135  0.1703 -1.3445
43129SOL    HW236503   4.802   3.128   0.668 -1.3614 -0.3278 -0.7618
43130SOL     OW36504   5.657   3.831  11.569 -0.2470  0.7423 -0.6322
43130SOL    HW136505   5.718   3.822  11.643 -0.6598  1.7538 -0.1509
43130SOL    HW236506   5.570   3.832  11.610 -0.4696  1.5318 -1.1025
43131SOL     OW36507   7.718   3.563   0.912  0.6299  0.0130  0.0498
43131SOL    HW136508   7.763   3.484   0.884  1.7391  0.7266 -0.2756
43131SOL    HW236509   7.780   3.606   0.971  0.4826  1.1440 -0.5918
43132SOL     OW36510   8.013  11.260   6.294  0.2034 -0.0220 -0.3285
43132SOL    HW136511   8.097  11.249   6.338  0.8489  1.5838 -1.0710
43132SOL    HW236512   7.970  11.175   6.301  0.2433  0.0871  3.3989
43133SOL     OW36513   7.465  10.764  12.256  0.3093 -0.7264  0.2500
43133SOL    HW136514   7.516  10.838  12.289  1.6620 -1.7389  0.5050
43133SOL    HW236515   7.453  10.707  12.333  0.1977 -1.2801 -0.1695
43134SOL     OW36516  12.767   5.453   6.287  0.6277 -0.0453  0.2961
43134SOL    HW136517  12.722   5.418   6.364 -1.0289  0.2576 -0.4819
43134SOL    HW236518  12.765   5.548   6.299  2.4869 -0.0484  0.9815
43135SOL     OW36519   5.242   8.023   6.792 -0.0693  0.0478 -0.0937
43135SOL    HW136520   5.221   8.023   6.699 -0.0036  2.6692 -0.1711
43135SOL    HW236521   5.161   8.049   6.835 -0.0917 -1.1100  0.6144
43136SOL     OW36522   0.935   5.861   3.822  0.0175  0.0395  0.1458
43136SOL    HW136523   0.999   5.845   3.890 -1.0121  0.6902  1.3116
43136SOL    HW236524   0.959   5.800   3.751 -0.1571 -2.2432  1.9249
43137SOL     OW36525   6.201   2.079  10.759  0.0362  0.2364 -0.1520
43137SOL    HW136526   6.223   2.121  10.676  0.2294  2.0367  0.7805
43137SOL    HW236527   6.194   1.986  10.737  2.6459  0.3244 -1.6716
43138SOL     OW36528   2.831   9.279  12.252 -0.2355 -0.1224  0.1847
43138SOL    HW136529   2.896   9.298  12.185 -1.3016  2.1170 -0.3219
43138SOL    HW236530   2.773   9.214  12.211  0.6721 -0.8483  0.0132
43139SOL     OW36531  12.205   6.788   1.489 -0.1158  0.8094  0.0063
43139SOL    HW136532  12.118   6.781   1.528 -0.2905 -0.3649 -0.5676
43139SOL    HW236533  12.259   6.824   1.559 -1.1427  1.9974  0.2322
43140SOL     OW36534  12.886  12.821   7.558  0.7719 -0.1226 -0.9752
43140SOL    HW136535  12.882  12.760   7.632 -1.5311  1.1214  0.0182
43140SOL    HW236536  12.799  12.818   7.520  0.7793  2.0225 -1.2959
43141SOL     OW36537   2.909  10.896   1.381  0.1032 -0.0979 -0.3873
43141SOL    HW136538   2.866  10.973   1.342  1.0193 -0.5213 -2.3363
43141SOL    HW236539   2.854  10.822   1.355 -0.8169 -0.1661  1.5457
43142SOL     OW36540  10.352   7.161   0.163 -0.4517  0.5529 -0.5479
43142SOL    HW136541  10.323   7.218   0.234 -1.8742 -0.3007 -0.4114
43142SOL    HW236542  10.378   7.222   0.093  0.5769  1.3890  0.5373
43143SOL     OW36543   0.671   8.523   4.808  0.0031 -0.6313 -0.5949
43143SOL    HW136544   0.600   8.464   4.835 -0.8276  0.2763 -0.7283
43143SOL    HW236545   0.731   8.523   4.882 -1.6774  0.9482  0.8923
43144SOL     OW36546  12.844  10.720   0.980  0.0489  0.0128 -0.0268
43144SOL    HW136547  12.874  10.811   0.985 -2.0313  0.7703 -0.4588
43144SOL    HW236548  12.910  10.670   1.029  0.2352  1.9998  1.8984
43145SOL     OW36549   9.960   5.741   8.885 -0.1759  0.0022  0.0740
43145SOL    HW136550   9.872   5.706   8.897  0.0108 -0.0413  1.4356
43145SOL    HW236551  10.016   5.664   8.874 -0.3922  0.0462 -1.6907
43146SOL     OW36552   8.110   4.577   5.253 -0.2029 -0.2952  0.1829
43146SOL    HW136553   8.125   4.494   5.298 -0.9935 -0.6769 -0.2348
43146SOL    HW236554   8.042   4.620   5.304  1.4250  0.9357  1.4399
43147SOL     OW36555   1.712  11.663   4.719 -0.6377 -0.6559 -0.5268
43147SOL    HW136556   1.737  11.754   4.729 -0.4886 -0.5845 -1.4936
43147SOL    HW236557   1.757  11.618   4.791  0.4348 -0.1829 -0.8797
43148SOL     OW36558   3.276  12.621  11.420 -0.0393  0.9500 -0.0146
43148SOL    HW136559   3.371  12.611  11.429  0.0200  0.8541 -0.7263
43148SOL    HW236560   3.243  12.606  11.509  0.5781  0.6202  0.1706
43149SOL     OW36561   1.822  12.035   5.569 -0.3747  0.4468  0.0405
43149SOL    HW136562   1.793  11.958   5.616 -1.7695  1.4269  0.8473
43149SOL    HW236563   1.759  12.045   5.497 -0.2843  0.9087  0.0202
43150SOL     OW36564   5.388  11.438   7.390  0.0875  0.3876  0.1553
43150SOL    HW136565   5.404  11.458   7.298 -0.6914  0.4662  0.0271
43150SOL    HW236566   5.474  11.439   7.431  0.5151 -0.3213 -0.7046
43151SOL     OW36567   5.056  10.573   8.707 -0.2676  0.1699 -0.3023
43151SOL    HW136568   5.118  10.569   8.634 -0.6754 -2.1576 -0.6173
43151SOL    HW236569   4.995  10.501   8.690 -2.7626  1.9961  0.3017
43152SOL     OW36570   9.011   7.420  10.561  0.0963 -0.5278 -0.2533
43152SOL    HW136571   8.920   7.403  10.584  0.1213 -1.2645 -0.6825
43152SOL    HW236572   9.034   7.498  10.611 -0.2741 -1.2732  1.1066
43153SOL     OW36573   0.437  10.211   0.953 -0.7842 -0.4751 -0.5184
43153SOL    HW136574   0.409  10.276   1.018 -1.8904 -1.0989 -0.3355
43153SOL    HW236575   0.481  10.262   0.885  1.6570  0.0550  1.3305
43154SOL     OW36576   0.308   4.703   2.421  0.0468 -1.0435  0.2566
43154SOL    HW136577   0.229   4.678   2.468 -0.6132 -1.4897 -1.0461
43154SOL    HW236578   0.336   4.623   2.377  0.1640 -0.4434 -0.7854
43155SOL     OW36579  11.293   0.283  11.449 -0.3520  0.8065  0.5438
43155SOL    HW136580  11.370   0.329  11.479  0.0687  0.3867  0.1265
43155SOL    HW236581  11.260   0.236  11.526  0.0697  0.6234  0.6112
43156SOL     OW36582   6.558   8.106  12.131 -0.2850 -0.2306 -0.1893
43156SOL    HW136583   6.549   8.095  12.225 -1.2216 -1.3762 -0.3943
43156SOL    HW236584   6.643   8.150  12.119 -0.0418 -0.3180  1.1503
43157SOL     OW36585   9.244  12.598  10.268 -0.0463 -0.1238  0.1830
43157SOL    HW136586   9.170  12.563  10.317  0.2757  0.7228  1.2926
43157SOL    HW236587   9.292  12.652  10.330 -0.4901  2.3154 -1.4347
43158SOL     OW36588   0.796   9.510   8.278  0.2731  0.3112 -0.1386
43158SOL    HW136589   0.828   9.495   8.367 -0.8942 -0.1544  0.2193
43158SOL    HW236590   0.841   9.444   8.225  0.4677  0.1518  0.2193
43159SOL     OW36591   2.530   3.490  11.029  0.4219  0.1347 -0.4509
43159SOL    HW136592   2.506   3.428  11.098  0.9276 -0.5045 -0.8342
43159SOL    HW236593   2.452   3.496  10.974  0.5819 -0.7105 -0.7974
43160SOL     OW36594  11.101   1.838   8.796  0.0129  0.1299 -0.0270
43160SOL    HW136595  11.120   1.749   8.825 -0.2022  0.3798  0.9254
43160SOL    HW236596  11.009   1.836   8.771 -0.0343  0.1186  0.1460
43161SOL     OW36597  10.235   5.588  12.662 -0.1898  0.1185 -0.2067
43161SOL    HW136598  10.175   5.582  12.736 -1.3507  0.7229 -1.0697
43161SOL    HW236599  10.219   5.675  12.625  2.6471  1.1232  0.7188
43162SOL     OW36600  11.448  10.524   6.778  0.2600  0.1305 -0.3614
43162SOL    HW136601  11.451  10.619   6.793 -1.3839  0.2734 -0.7205
43162SOL    HW236602  11.370  10.495   6.824 -0.6298 -0.6220 -2.2232
43163SOL     OW36603   9.858   2.389  10.938  0.8526 -0.7045  0.3443
43163SOL    HW136604   9.945   2.367  10.970  1.5408  0.5022 -0.6011
43163SOL    HW236605   9.866   2.479  10.906  0.6334 -2.0981 -4.3800
43164SOL     OW36606   5.785  10.066   4.686 -0.0306  0.3838 -0.5891
43164SOL    HW136607   5.782  10.066   4.590  0.9824  0.0986 -0.6306
43164SOL    HW236608   5.855  10.005   4.708  0.0277  0.7611  0.3265
43165SOL     OW36609   3.128   9.875  11.896  0.4120 -0.2569 -0.2552
43165SOL    HW136610   3.164   9.963  11.894 -0.4291  0.1745  1.7325
43165SOL    HW236611   3.167   9.835  11.974  0.5269 -1.5451 -0.9475
43166SOL     OW36612   7.702   1.944   9.779  0.3573 -0.4697  0.4714
43166SOL    HW136613   7.683   1.877   9.713  0.5251  0.0999 -0.1708
43166SOL    HW236614   7.776   1.993   9.742  0.2651  0.0436  0.9559
43167SOL     OW36615   0.965  11.360   5.252  0.1877 -0.1257  0.2847
43167SOL    HW136616   0.921  11.328   5.330 -0.9254 -1.7823 -0.9482
43167SOL    HW236617   1.046  11.399   5.284 -2.2925  3.6754  2.7344
43168SOL     OW36618   8.352   0.906   0.206  0.1939  0.0962  0.3182
43168SOL    HW136619   8.439   0.910   0.247  0.6251  0.7598 -0.6151
43168SOL    HW236620   8.297   0.861   0.271  1.4562 -1.2348  0.5333
43169SOL     OW36621   7.871  12.348   1.657  0.0693  0.4585 -0.1281
43169SOL    HW136622   7.910  12.300   1.584  1.7071 -0.8273  1.4998
43169SOL    HW236623   7.777  12.344   1.641  0.3659  0.0901 -2.0547
43170SOL     OW36624   9.189   6.296   5.117  0.5406  0.2168 -0.1213
43170SOL    HW136625   9.176   6.384   5.153  1.0347  0.6100 -0.8890
43170SOL    HW236626   9.231   6.310   5.032  1.2835 -0.7889  0.0538
43171SOL     OW36627  11.467   8.067  10.798  0.5024 -0.5288  0.8372
43171SOL    HW136628  11.386   8.028  10.830 -0.5774  2.3730  1.9404
43171SOL    HW236629  11.497   8.123  10.869  0.7233  2.3041 -1.2720
43172SOL     OW36630   3.234  11.714   6.122 -0.2774  0.1781 -0.8637
43172SOL    HW136631   3.233  11.622   6.148 -0.8218 -0.2650 -2.3469
43172SOL    HW236632   3.283  11.716   6.040  1.5345  1.5525  0.1832
43173SOL     OW36633   8.146  10.688   2.691 -0.4903  0.7287  0.0126
43173SOL    HW136634   8.194  10.693   2.608  1.1497  0.5225  0.9092
43173SOL    HW236635   8.201  10.737   2.752 -0.5337 -0.9852  1.4831
43174SOL     OW36636   3.519   6.335   4.188  0.3075  0.3597 -0.5983
43174SOL    HW136637   3.464   6.265   4.152  0.5659 -0.0987 -0.1177
43174SOL    HW236638   3.521   6.318   4.282 -0.9853  1.9829 -0.2414
43175SOL     OW36639   1.008  10.539   9.002 -0.4471  0.0299 -0.5616
43175SOL    HW136640   0.916  10.561   8.986 -0.0571  1.7607 -0.5969
43175SOL    HW236641   1.019  10.549   9.097 -0.1575  0.4178 -0.6344
43176SOL     OW36642   8.412   8.720   6.675  0.3420  0.6552 -0.0884
43176SOL    HW136643   8.430   8.781   6.747  3.1066  0.1125 -0.1963
43176SOL    HW236644   8.389   8.638   6.718 -0.1204  0.8933  0.1240
43177SOL     OW36645   7.692  10.552   4.421 -0.3305 -0.5444 -0.4380
43177SOL    HW136646   7.698  10.464   4.385  0.1439 -1.2022  1.1429
43177SOL    HW236647   7.734  10.546   4.507  2.0174  1.7842 -1.2554
43178SOL     OW36648   1.781   2.461   0.549 -0.2068 -0.3088 -0.1565
43178SOL    HW136649   1.751   2.390   0.492  0.5679 -0.9843  0.2546
43178SOL    HW236650   1.843   2.420   0.608  0.0540  0.6663  0.2756
43179SOL     OW36651   8.700   8.864   5.269 -0.2609 -0.2792  0.1584
43179SOL    HW136652   8.684   8.913   5.349 -0.3012  1.2028 -0.7332
43179SOL    HW236653   8.704   8.773   5.298 -0.8348  0.1651  1.7598
43180SOL     OW36654   1.864   6.998  12.797 -0.7236 -0.2635 -0.1262
43180SOL    HW136655   1.917   6.926  12.765 -1.5025 -0.7081 -0.4567
43180SOL    HW236656   1.883   7.071  12.739  2.7793  0.9945  2.2530
43181SOL     OW36657   8.707   2.486   4.812  0.6128 -0.6798  0.4570
43181SOL    HW136658   8.639   2.424   4.782 -0.0132  0.5961 -0.9043
43181SOL    HW236659   8.751   2.440   4.883  0.4508 -2.8701 -0.7509
43182SOL     OW36660   7.880   1.012   1.360  0.1275 -0.6023  0.1579
43182SOL    HW136661   7.958   1.068   1.364  0.4825 -1.1226  0.8390
43182SOL    HW236662   7.818   1.052   1.420 -0.0400 -0.3244 -0.1985
43183SOL     OW36663   2.039   5.149  10.727 -0.4781 -0.2435  0.2980
43183SOL    HW136664   2.001   5.062  10.738  0.1130 -0.4264  0.9559
43183SOL    HW236665   1.979   5.207  10.773 -0.9927 -0.2615 -0.3285
43184SOL     OW36666   2.339  10.238   8.653 -0.0867  0.3688  0.0023
43184SOL    HW136667   2.337  10.306   8.720  0.5807  1.3403 -0.9361
43184SOL    HW236668   2.429  10.205   8.654  0.0583  0.7291 -0.7385
43185SOL     OW36669   1.237  11.100  10.560  0.3823  0.3741 -0.3588
43185SOL    HW136670   1.224  11.109  10.465  0.1268 -0.7334 -0.4482
43185SOL    HW236671   1.167  11.153  10.598 -0.8382 -0.8115 -0.8261
43186SOL     OW36672  11.647   4.412  11.648  0.2404  0.0464  0.1038
43186SOL    HW136673  11.616   4.409  11.738 -1.3884  3.8307 -0.1654
43186SOL    HW236674  11.742   4.417  11.655  0.0621  3.6095  1.9360
43187SOL     OW36675   4.379   4.937   5.701  0.0883 -0.3201 -0.3205
43187SOL    HW136676   4.474   4.940   5.701  0.1657 -1.2037  1.3447
43187SOL    HW236677   4.357   4.859   5.649  0.3334 -0.7067  0.1487
43188SOL     OW36678  10.382   3.455   0.574 -0.2462 -0.5635 -0.2046
43188SOL    HW136679  10.457   3.447   0.633  1.5700  0.4012 -2.2585
43188SOL    HW236680  10.406   3.401   0.499 -0.5625  1.5236 -1.8693
43189SOL     OW36681   1.869  11.604   0.440 -0.6888  0.3960 -0.1244
43189SOL    HW136682   1.930  11.666   0.479 -0.3743 -0.9644  1.6948
43189SOL    HW236683   1.784  11.647   0.448 -0.3404  1.0639  0.0906
43190SOL     OW36684   9.177   8.082  10.021 -0.1034 -0.4662  0.5029
43190SOL    HW136685   9.097   8.049   9.981 -0.7347  1.7907 -0.2217
43190SOL    HW236686   9.147   8.147  10.084  1.1402  0.2231  0.4172
43191SOL     OW36687  10.356  11.338   6.510 -0.4009  0.5926 -0.7388
43191SOL    HW136688  10.263  11.329   6.487 -0.3486  1.2708 -1.2653
43191SOL    HW236689  10.362  11.425   6.549 -0.0390  0.4283 -0.4270
43192SOL     OW36690   0.220   0.582   9.300  0.3877  0.1281 -0.1293
43192SOL    HW136691   0.155   0.515   9.323 -1.0144  1.6273  0.4966
43192SOL    HW236692   0.246   0.561   9.211 -0.4832 -0.8774 -0.1688
43193SOL     OW36693   4.983   2.728  12.958  0.1614  0.2473 -0.4223
43193SOL    HW136694   4.974   2.785  12.882  2.6429  1.2572 -0.0438
43193SOL    HW236695   4.985   2.639  12.921 -0.6969  0.5789 -1.3064
43194SOL     OW36696   0.266   3.175  11.484 -0.3358 -0.1092 -0.0755
43194SOL    HW136697   0.273   3.270  11.469  2.5712 -0.4387 -1.5063
43194SOL    HW236698   0.282   3.136  11.398  2.5208 -1.9299  1.1345
43195SOL     OW36699   3.905  12.610   7.481  0.2560 -0.3629  0.3261
43195SOL    HW136700   3.870  12.678   7.540  0.4726  0.1473 -0.1232
43195SOL    HW236701   3.877  12.638   7.394 -0.3225 -1.2740  0.2062
43196SOL     OW36702  12.247   6.003  10.506  0.3962 -0.0999  0.0270
43196SOL    HW136703  12.189   5.971  10.575  0.8831  0.7177  0.8585
43196SOL    HW236704  12.189   6.050  10.446  0.1915  0.8536  0.9358
43197SOL     OW36705   7.498  12.481  10.049  0.4040  0.4798  0.5332
43197SOL    HW136706   7.453  12.518   9.973  0.0968  1.4841  1.1799
43197SOL    HW236707   7.545  12.405  10.015 -1.5083 -0.4265 -0.2291
43198SOL     OW36708  11.719   4.408   7.659  0.5147  0.4433 -0.2054
43198SOL    HW136709  11.652   4.469   7.627  0.0823  0.4273  0.6467
43198SOL    HW236710  11.781   4.400   7.586 -1.6335 -1.3890 -2.0013
43199SOL     OW36711   1.180   3.722   7.573  0.1453 -0.0637 -0.0643
43199SOL    HW136712   1.233   3.678   7.640  1.3761 -1.6170 -1.9677
43199SOL    HW236713   1.142   3.651   7.522  0.6542  1.0463 -2.0797
43200SOL     OW36714   8.822   0.650   9.645 -0.0847 -0.0087  0.4946
43200SOL    HW136715   8.784   0.567   9.675  2.4940 -1.0609  1.0987
43200SOL    HW236716   8.855   0.631   9.557  1.3628  0.0428  0.9971
43201SOL     OW36717   0.323  10.706   2.595  0.6842 -0.5972 -0.2148
43201SOL    HW136718   0.343  10.641   2.662  1.9380  1.1927  1.2232
43201SOL    HW236719   0.232  10.730   2.610  0.8648 -0.4391  0.6701
43202SOL     OW36720   6.000   0.985  10.132  0.0334 -0.2324  0.7558
43202SOL    HW136721   5.920   0.979  10.185 -0.4646 -1.1477 -0.0508
43202SOL    HW236722   5.968   1.002  10.043  0.7783 -0.0081  0.5225
43203SOL     OW36723   8.154  10.843   0.529  0.3952  0.5314 -0.2379
43203SOL    HW136724   8.172  10.927   0.486 -0.1155  0.0706 -1.3887
43203SOL    HW236725   8.105  10.793   0.464  2.3009 -1.3816 -0.3411
43204SOL     OW36726   0.340  10.545   8.092  0.0527  0.2368 -0.5427
43204SOL    HW136727   0.285  10.562   8.169 -1.3113 -1.2162 -1.1474
43204SOL    HW236728   0.403  10.479   8.123 -1.2433 -1.2359 -0.9395
43205SOL     OW36729   1.328   5.620   4.076 -0.1354  0.0522  0.2381
43205SOL    HW136730   1.368   5.624   3.989 -0.1882 -0.3130  0.1947
43205SOL    HW236731   1.391   5.569   4.128 -0.5090 -0.4622  0.1895
43206SOL     OW36732  10.562   8.386  12.271 -0.4933  0.4872  0.2468
43206SOL    HW136733  10.504   8.375  12.346  0.3863 -0.4106  0.8262
43206SOL    HW236734  10.512   8.352  12.197 -0.6381 -0.4915  0.7751
43207SOL     OW36735   0.138  12.173   8.067  0.0132 -0.1264  0.4440
43207SOL    HW136736   0.231  12.194   8.079 -0.2494  0.6762  1.1259
43207SOL    HW236737   0.124  12.176   7.973  0.8653 -1.0921  0.2626
43208SOL     OW36738   3.817   3.138   9.094 -0.0775 -0.0372  0.5563
43208SOL    HW136739   3.824   3.085   9.014 -3.1027  1.2317 -0.7081
43208SOL    HW236740   3.774   3.079   9.157  0.3047 -0.3590  0.5194
43209SOL     OW36741   8.201  10.391   5.054 -0.1314  0.2936  0.0065
43209SOL    HW136742   8.166  10.326   4.992  0.6134 -1.0781  0.9684
43209SOL    HW236743   8.288  10.411   5.019  0.3533 -0.6013  0.6527
43210SOL     OW36744   8.726   1.692   0.977 -0.4518 -0.5910 -0.0511
43210SOL    HW136745   8.813   1.660   0.951 -1.0855 -1.0420 -1.8199
43210SOL    HW236746   8.737   1.720   1.067  1.2422 -1.7407  0.1667
43211SOL     OW36747   9.394   8.097   9.497  0.2168 -0.2211 -0.8472
43211SOL    HW136748   9.425   8.185   9.518 -0.9240 -0.3158  1.4846
43211SOL    HW236749   9.473   8.050   9.469  0.6750  1.7683 -3.2878
43212SOL     OW36750  10.072   8.808   6.181 -0.4473  0.0963 -0.2663
43212SOL    HW136751  10.054   8.714   6.189  0.1809  0.1195  3.4642
43212SOL    HW236752  10.163   8.817   6.211 -0.6048  1.9408 -0.2184
43213SOL     OW36753   3.303   5.166   0.465  0.2902 -0.3553 -0.1681
43213SOL    HW136754   3.383   5.201   0.425  1.7652 -3.1501  0.0841
43213SOL    HW236755   3.327   5.149   0.556 -1.1516  0.2643  0.3558
43214SOL     OW36756   5.951   2.529   3.326 -0.0476 -0.3120  0.2522
43214SOL    HW136757   5.937   2.621   3.305  2.8761  0.3333  0.7187
43214SOL    HW236758   6.033   2.527   3.376  1.6128 -3.3895 -2.1943
43215SOL     OW36759   6.651   7.352   4.040  0.2212  0.1746 -0.0812
43215SOL    HW136760   6.585   7.420   4.029  0.3205  0.5353  1.3728
43215SOL    HW236761   6.692   7.345   3.954  0.5647  2.3379 -0.1559
43216SOL     OW36762   4.000   6.355   5.624 -0.6024  0.2721 -0.1803
43216SOL    HW136763   4.013   6.331   5.533 -3.7824  0.7512 -0.8800
43216SOL    HW236764   4.010   6.450   5.625  0.2630  0.1829  0.1623
43217SOL     OW36765   2.458  11.402   7.900 -0.0075  0.0890  0.2109
43217SOL    HW136766   2.426  11.378   7.988  2.2926 -2.8785  0.3955
43217SOL    HW236767   2.481  11.495   7.907 -0.2202  0.0260  2.6387
43218SOL     OW36768   4.091   6.851   1.027 -0.3952 -0.5866  0.1389
43218SOL    HW136769   4.126   6.903   0.954  1.7075 -1.3745  0.5204
43218SOL    HW236770   4.090   6.762   0.994 -3.0402 -0.5096 -0.1641
43219SOL     OW36771   0.839   5.871  12.190 -0.3597  0.1111 -0.5588
43219SOL    HW136772   0.867   5.790  12.146 -1.1163 -0.6597  0.3418
43219SOL    HW236773   0.921   5.913  12.216  0.0444 -0.7550 -0.3695
43220SOL     OW36774   0.031   7.281   2.808 -0.0186  0.0689  0.0418
43220SOL    HW136775   0.106   7.233   2.841  0.5688 -0.3919 -1.8482
43220SOL    HW236776   0.058   7.373   2.812  0.8938 -0.1256 -1.1293
43221SOL     OW36777   2.457   2.884   6.561  0.0956 -0.4263  0.2807
43221SOL    HW136778   2.427   2.846   6.478  1.1805 -2.7030  0.8443
43221SOL    HW236779   2.382   2.873   6.620 -0.2528  0.0627 -0.0637
43222SOL     OW36780  12.662   2.851   1.923 -0.3170  0.3138 -0.0900
43222SOL    HW136781  12.751   2.825   1.899  0.3076  1.0798  1.2642
43222SOL    HW236782  12.670   2.941   1.954 -1.7488  0.7465 -0.8735
43223SOL     OW36783   6.401   3.810  11.047 -0.3384  0.1139  0.7579
43223SOL    HW136784   6.493   3.834  11.048 -0.4295  1.0249 -2.1439
43223SOL    HW236785   6.384   3.783  10.956 -2.8224 -0.5187  1.3164
43224SOL     OW36786  11.350   9.068   3.609 -0.2116 -0.4100 -0.2629
43224SOL    HW136787  11.437   9.071   3.570  0.1138 -1.6094  0.3251
43224SOL    HW236788  11.347   8.984   3.654 -1.3229  0.0454  0.5496
43225SOL     OW36789   9.647   3.173   3.317 -0.5046  0.2386 -0.4522
43225SOL    HW136790   9.622   3.089   3.279  1.5547 -0.7122  0.1571
43225SOL    HW236791   9.620   3.238   3.252 -1.4613 -0.9266 -1.2678
43226SOL     OW36792  12.027   9.873  12.805  0.0533  0.4659  0.1408
43226SOL    HW136793  12.061   9.864  12.716  0.4950  1.2139  0.2179
43226SOL    HW236794  11.996   9.786  12.829 -0.2525  0.2992 -0.8146
43227SOL     OW36795   5.956  10.121   4.143  0.0459 -0.6544  0.0969
43227SOL    HW136796   5.932  10.065   4.217 -1.6346 -0.6700 -0.4045
43227SOL    HW236797   5.932  10.070   4.066 -2.5868  1.0826 -0.3722
43228SOL     OW36798  10.517   6.518   0.567 -0.3626  0.6509  0.4158
43228SOL    HW136799  10.520   6.609   0.538  1.4013  0.7767  0.8269
43228SOL    HW236800  10.603   6.483   0.543 -0.9878 -0.9056  0.3149
43229SOL     OW36801   8.795   0.933  11.971 -0.1813  0.0857  0.3266
43229SOL    HW136802   8.791   0.981  11.888 -0.0251 -1.9201 -0.8989
43229SOL    HW236803   8.812   1.001  12.037  0.9013  1.6116 -1.4159
43230SOL     OW36804   3.181   1.829   2.681 -0.9908  0.4344 -0.2757
43230SOL    HW136805   3.116   1.809   2.614 -0.9087 -0.4608 -0.1047
43230SOL    HW236806   3.142   1.797   2.762 -0.1096 -0.6322 -0.2537
43231SOL     OW36807  12.880  11.424  11.229 -0.0279 -0.1019 -0.1459
43231SOL    HW136808  12.893  11.378  11.146 -1.6411  0.4665 -0.7616
43231SOL    HW236809  12.860  11.355  11.292 -0.2762 -0.4298 -0.5732
43232SOL     OW36810   0.788   7.872   7.559  0.3445  0.4010  0.2571
43232SOL    HW136811   0.839   7.938   7.513 -1.3554  1.7686  0.2290
43232SOL    HW236812   0.847   7.797   7.568  1.6617  1.1707 -1.5206
43233SOL     OW36813   8.009   9.530   4.442 -0.7480  0.9776 -0.7572
43233SOL    HW136814   7.952   9.473   4.493  1.1305  0.5685  0.9809
43233SOL    HW236815   8.027   9.481   4.362  0.3724 -0.6834  0.4558
43234SOL     OW36816   4.474   5.643   6.024  0.2337  0.0272  0.5952
43234SOL    HW136817   4.465   5.597   5.941 -0.6609 -1.2666  1.3656
43234SOL    HW236818   4.568   5.654   6.036  0.4200 -0.8121 -0.0473
43235SOL     OW36819   1.083   9.478   9.105 -0.1530  0.3991 -0.3544
43235SOL    HW136820   1.164   9.428   9.121 -0.2397 -0.6081 -2.6273
43235SOL    HW236821   1.111   9.569   9.105  0.9399  0.0825 -0.7800
43236SOL     OW36822   8.135   3.352  11.305  0.0335  0.6306  0.4785
43236SOL    HW136823   8.160   3.409  11.233 -0.2934  2.0392  1.4344
43236SOL    HW236824   8.062   3.300  11.271 -0.7914  1.9960  0.0838
43237SOL     OW36825   6.090  11.672   2.013  0.3947 -0.3803  0.3180
43237SOL    HW136826   6.144  11.607   1.968  1.8554 -0.5541  2.1680
43237SOL    HW236827   6.151  11.743   2.032 -0.5677  0.3813  0.6179
43238SOL     OW36828   8.301   0.757   3.712  0.3838 -0.4395  0.4725
43238SOL    HW136829   8.261   0.721   3.633  0.9519  0.2509 -0.1408
43238SOL    HW236830   8.227   0.770   3.772 -0.5495  1.8433 -1.0360
43239SOL     OW36831   2.936   8.318   6.079  0.0654  0.2106 -0.3191
43239SOL    HW136832   2.960   8.263   6.153  0.9743  1.2232  0.1627
43239SOL    HW236833   2.907   8.257   6.012  0.4928 -0.8077  0.4023
43240SOL     OW36834   6.594   7.127   3.831 -0.3199 -0.3087 -0.2153
43240SOL    HW136835   6.652   7.101   3.760  0.1313 -1.8464  0.6663
43240SOL    HW236836   6.507   7.100   3.802 -0.2709 -0.1105 -0.5529
43241SOL     OW36837   0.848   2.253   1.578  0.1636  0.0796 -0.3003
43241SOL    HW136838   0.819   2.171   1.618 -0.5511  0.4137 -0.1161
43241SOL    HW236839   0.936   2.234   1.546  0.2511 -0.5738  0.2941
43242SOL     OW36840   6.445   5.311  12.120  0.0193 -0.0471  0.8074
43242SOL    HW136841   6.440   5.340  12.029 -0.9344 -1.6988  0.2875
43242SOL    HW236842   6.354   5.311  12.150 -0.0447 -2.1575  0.8225
43243SOL     OW36843   6.287   9.619   4.754  0.0708  0.3720 -0.4833
43243SOL    HW136844   6.276   9.651   4.844  0.5390 -0.1503 -0.2300
43243SOL    HW236845   6.253   9.530   4.756  0.5882  0.1630 -0.6807
43244SOL     OW36846   5.910   7.427   4.337  0.0988 -0.7068 -0.1771
43244SOL    HW136847   5.831   7.472   4.306 -0.4518 -0.1565  1.8347
43244SOL    HW236848   5.879   7.342   4.368  0.6208 -1.2375 -1.0829
43245SOL     OW36849   9.122   5.377  12.612  0.4267  0.4072 -0.0175
43245SOL    HW136850   9.101   5.470  12.614 -0.1768  0.2658  0.7499
43245SOL    HW236851   9.216   5.374  12.594  0.6636  1.2020  1.0098
43246SOL     OW36852   9.876   4.289  11.074 -0.1886 -0.8999  0.5975
43246SOL    HW136853   9.781   4.285  11.084 -0.1673 -3.2787  0.5010
43246SOL    HW236854   9.908   4.320  11.159 -0.9622 -2.5201  1.5273
43247SOL     OW36855   8.706   3.016   1.807 -0.1723 -0.4431  0.0707
43247SOL    HW136856   8.688   3.069   1.884  1.1152 -0.0255  0.1065
43247SOL    HW236857   8.686   2.927   1.834 -1.1031 -0.1416  0.4197
43248SOL     OW36858   9.166  10.673  12.128  0.0102  0.0636  0.3326
43248SOL    HW136859   9.183  10.657  12.221  0.9547 -0.1896  0.1310
43248SOL    HW236860   9.248  10.648  12.085 -0.1829  0.8215 -0.4976
43249SOL     OW36861   0.852   0.721  12.849 -0.0470 -0.7016 -0.1698
43249SOL    HW136862   0.821   0.678  12.930  2.5777 -0.2553  1.1787
43249SOL    HW236863   0.903   0.653  12.804 -0.0433 -0.4381 -0.5682
43250SOL     OW36864   9.089   3.999  11.631 -0.1592 -0.0782  0.3710
43250SOL    HW136865   9.018   3.985  11.568 -0.6221  1.2993  0.5387
43250SOL    HW236866   9.123   4.086  11.609  0.8090 -0.3015  0.9452
43251SOL     OW36867   8.637   6.351   1.878 -0.0685 -0.6937  0.0225
43251SOL    HW136868   8.603   6.275   1.831 -0.0577 -1.1232  0.7010
43251SOL    HW236869   8.688   6.314   1.950 -0.1707 -0.0478  0.4324
43252SOL     OW36870   8.780  11.663  10.664 -0.2580 -0.0291 -0.1777
43252SOL    HW136871   8.749  11.750  10.687  0.6614  0.1934  0.2194
43252SOL    HW236872   8.754  11.652  10.572 -1.2302  0.2661  0.0475
43253SOL     OW36873   5.074   0.859   5.417  0.6992 -0.2950 -0.1796
43253SOL    HW136874   5.093   0.909   5.338  2.1385  0.7084  0.7479
43253SOL    HW236875   5.145   0.883   5.478 -0.4262 -0.9463  1.4486
43254SOL     OW36876   0.615   3.071   9.038 -0.9332 -0.4511  0.2221
43254SOL    HW136877   0.621   3.155   8.993  0.8412  0.3225  1.7345
43254SOL    HW236878   0.601   3.007   8.968  1.0129  0.7439 -1.3868
43255SOL     OW36879   0.887   3.729  10.323 -0.6162  0.1661  0.3475
43255SOL    HW136880   0.846   3.799  10.372  0.6617  0.0603  1.6416
43255SOL    HW236881   0.875   3.650  10.376 -1.0721 -0.3922 -0.5511
43256SOL     OW36882  12.154  12.698   9.604 -0.4108 -0.3921  0.2247
43256SOL    HW136883  12.107  12.741   9.676 -0.0632  0.8239 -0.2405
43256SOL    HW236884  12.085  12.665   9.547 -0.8284  2.4032 -1.0581
43257SOL     OW36885   1.650  10.544   2.673 -0.8248 -0.0978 -0.0825
43257SOL    HW136886   1.648  10.527   2.579 -2.5563  1.5181 -0.4044
43257SOL    HW236887   1.627  10.636   2.681 -0.4359 -0.1326  1.9335
43258SOL     OW36888   8.635   9.137  12.534 -0.1506 -0.5586  0.8933
43258SOL    HW136889   8.604   9.224  12.559 -0.3814 -0.9171  1.8985
43258SOL    HW236890   8.564   9.078  12.558 -1.2424 -0.7794 -2.4112
43259SOL     OW36891  10.742   5.939   3.026 -0.1523  0.2955 -0.4589
43259SOL    HW136892  10.690   5.993   2.967 -1.8966 -0.5087  0.2588
43259SOL    HW236893  10.830   5.975   3.020 -0.5602  1.1074 -2.4690
43260SOL     OW36894   2.745   0.633   6.319  0.2561 -0.2846  0.9538
43260SOL    HW136895   2.828   0.595   6.348  1.0653 -0.1238 -0.9868
43260SOL    HW236896   2.756   0.727   6.334  0.1960 -0.3219  1.2323
43261SOL     OW36897  12.899   0.973   0.847 -0.4293  0.0493 -0.0967
43261SOL    HW136898  12.973   0.969   0.785 -1.4413 -0.3917 -1.3143
43261SOL    HW236899  12.928   0.921   0.922  0.5763  0.0456 -0.4681
43262SOL     OW36900  10.565  10.732   6.972 -0.3811  0.0909  0.0741
43262SOL    HW136901  10.602  10.654   7.013 -1.0751 -0.2679  0.0398
43262SOL    HW236902  10.611  10.805   7.013  1.4711 -0.3713 -1.1027
43263SOL     OW36903   8.861   2.360   6.351  0.4094 -0.0188  1.0110
43263SOL    HW136904   8.823   2.403   6.275  1.5247 -0.0756  0.4116
43263SOL    HW236905   8.794   2.297   6.378  0.2350 -0.4066 -0.2658
43264SOL     OW36906   2.871  10.718   3.100  0.3729 -0.0505 -0.0253
43264SOL    HW136907   2.778  10.739   3.109 -0.1301 -1.6579 -0.9902
43264SOL    HW236908   2.890  10.733   3.007  0.9541 -0.2057  0.0679
43265SOL     OW36909  11.061   1.930   3.072  0.2886  0.1300 -0.1669
43265SOL    HW136910  11.006   1.857   3.103  2.3925 -1.4451  0.0950
43265SOL    HW236911  11.071   1.914   2.978 -1.2122  1.5297 -0.6152
43266SOL     OW36912   9.765   6.102   4.193 -0.4079  0.0781 -0.2306
43266SOL    HW136913   9.684   6.054   4.210  0.6066 -1.5857  0.1004
43266SOL    HW236914   9.835   6.038   4.208  0.9237  0.9913 -2.1069
43267SOL     OW36915   5.480   0.133   7.011 -0.2353 -0.1758  0.1761
43267SOL    HW136916   5.457   0.173   6.927 -0.1516  0.2527  0.3536
43267SOL    HW236917   5.445   0.044   7.006  0.0961 -0.2749 -0.4593
43268SOL     OW36918   4.904   9.038   8.545  0.1269  0.4440 -0.2938
43268SOL    HW136919   4.876   9.038   8.453  0.8547  0.1912 -0.5235
43268SOL    HW236920   4.865   8.958   8.581  2.1258 -1.0093 -1.1374
43269SOL     OW36921   8.789  11.929   8.043 -0.2000  0.2051  0.6106
43269SOL    HW136922   8.764  12.009   7.997 -0.6515  0.4483  1.2754
43269SOL    HW236923   8.758  11.942   8.133  1.9693  0.3869  1.3957
43270SOL     OW36924  12.673  11.131   8.660 -0.4106  0.1083  0.1727
43270SOL    HW136925  12.722  11.198   8.708 -0.0189 -1.3454  1.9444
43270SOL    HW236926  12.602  11.179   8.618 -1.2883  1.4349  2.9428
43271SOL     OW36927   4.750   6.175   7.405 -0.0762  0.9394 -0.3628
43271SOL    HW136928   4.675   6.130   7.443 -0.1722 -0.4111 -2.0007
43271SOL    HW236929   4.798   6.210   7.479 -0.1144 -1.7259  1.0383
43272SOL     OW36930  11.583  10.177   7.128 -0.1550  0.6037 -0.2213
43272SOL    HW136931  11.527  10.255   7.123  0.3924  0.9839 -0.7049
43272SOL    HW236932  11.530  10.107   7.092 -0.2763  0.9875 -0.8072
43273SOL     OW36933   8.923   9.847  10.594 -0.3586  0.3545 -0.5262
43273SOL    HW136934   8.870   9.776  10.629  0.7315 -0.6564 -0.8419
43273SOL    HW236935   8.862   9.903  10.547 -1.3110 -0.1288  0.1204
43274SOL     OW36936  12.305   0.245   8.378  0.3379 -0.0788 -0.7125
43274SOL    HW136937  12.240   0.210   8.318 -0.6825  3.1485 -1.7214
43274SOL    HW236938  12.359   0.302   8.323  1.6712  0.1751  0.8012
43275SOL     OW36939   8.656   0.422  10.338  0.2194  0.1870  0.3709
43275SOL    HW136940   8.740   0.461  10.362  0.1441 -1.3397  3.6228
43275SOL    HW236941   8.591   0.478  10.378 -0.2782  0.4233 -0.7190
43276SOL     OW36942  10.459   0.920   6.830 -0.4904 -0.0957 -0.4873
43276SOL    HW136943  10.434   0.991   6.770 -0.5026  0.3785  0.0627
43276SOL    HW236944  10.531   0.875   6.785 -1.2163 -0.4326 -1.3339
43277SOL     OW36945   7.399   1.089   0.956 -0.2264 -0.8521  0.2787
43277SOL    HW136946   7.375   1.096   1.049 -2.1908  1.3815 -0.2918
43277SOL    HW236947   7.343   1.020   0.921 -1.0170 -0.2558  0.3451
43278SOL     OW36948   6.531   1.933   7.954  0.0144  0.4170 -0.1465
43278SOL    HW136949   6.571   1.940   8.041  2.4970 -2.8512 -0.8519
43278SOL    HW236950   6.445   1.974   7.964  0.2496  0.2954  3.8038
43279SOL     OW36951   3.437   2.825   8.681 -0.4335  0.1560 -0.0999
43279SOL    HW136952   3.475   2.768   8.748 -0.9034 -0.7035 -0.5450
43279SOL    HW236953   3.512   2.865   8.636 -0.1063  0.0404  0.3420
43280SOL     OW36954   5.433   6.079   2.896 -0.2223 -0.7721 -0.0415
43280SOL    HW136955   5.406   6.121   2.815  1.7629 -1.9130 -1.3900
43280SOL    HW236956   5.473   6.149   2.948 -2.2824  0.1471  0.4102
43281SOL     OW36957   2.378   1.030   3.979  0.1827 -0.1308 -0.0504
43281SOL    HW136958   2.379   1.126   3.973  2.0779 -0.1611 -0.8740
43281SOL    HW236959   2.462   1.008   4.020 -0.8650 -1.4004  1.5224
43282SOL     OW36960   6.047   2.256  12.632 -0.1361  0.6070 -0.3804
43282SOL    HW136961   5.955   2.232  12.620  0.0430  0.2015 -0.9865
43282SOL    HW236962   6.049   2.300  12.717 -0.6019 -0.8883  0.4403
43283SOL     OW36963  11.921   7.343  12.177 -0.7115 -0.3462  0.1212
43283SOL    HW136964  11.959   7.257  12.157  0.4742 -0.0510  0.9788
43283SOL    HW236965  11.959   7.367  12.261 -0.4155  1.3648 -0.4585
43284SOL     OW36966  12.890   8.765  12.825  0.4114 -0.5921 -0.4717
43284SOL    HW136967  12.941   8.830  12.776 -0.4576  0.6189  0.1655
43284SOL    HW236968  12.931   8.681  12.804  0.9671  0.0421 -2.1104
43285SOL     OW36969   0.285   0.575   9.031 -0.3482 -0.4516 -0.2534
43285SOL    HW136970   0.216   0.624   8.986 -0.6326 -1.8250 -1.3822
43285SOL    HW236971   0.292   0.492   8.983  1.1116 -0.9392  0.7053
43286SOL     OW36972   2.739   5.477   4.264  0.0793 -0.5568  0.6004
43286SOL    HW136973   2.772   5.543   4.325 -1.6621  0.1647  0.7956
43286SOL    HW236974   2.644   5.483   4.270 -0.2467  0.2557 -2.9031
43287SOL     OW36975   1.523  11.778   2.970 -0.3850  0.2168  0.1465
43287SOL    HW136976   1.504  11.685   2.978  2.1498 -0.2941  1.4379
43287SOL    HW236977   1.603  11.782   2.917 -0.7038  1.6927 -0.2733
43288SOL     OW36978  10.326   7.991   6.566 -0.6460 -0.0780  0.2695
43288SOL    HW136979  10.245   7.961   6.608 -1.0267  2.2011  1.3066
43288SOL    HW236980  10.394   7.935   6.602 -1.7549 -2.5109 -1.1331
43289SOL     OW36981   4.926   0.179   7.314  0.7444 -0.2057  0.0247
43289SOL    HW136982   4.994   0.189   7.248  1.2162 -0.1751  0.5038
43289SOL    HW236983   4.878   0.101   7.288  0.1293  0.4967 -1.0419
43290SOL     OW36984  12.646   5.617   2.589 -0.5196 -0.0318  0.3345
43290SOL    HW136985  12.585   5.674   2.543  1.4086  0.9303 -1.1582
43290SOL    HW236986  12.611   5.529   2.575 -1.0579  0.4024 -1.2838
43291SOL     OW36987   5.923  11.425  12.478 -0.7408 -0.1376 -0.4981
43291SOL    HW136988   5.935  11.488  12.407  0.5741  0.6081  0.3431
43291SOL    HW236989   5.834  11.391  12.465 -0.9802  0.8925 -1.7589
43292SOL     OW36990   3.607   5.850   9.502 -0.2080  0.0403  0.1936
43292SOL    HW136991   3.531   5.908   9.511  0.3507  0.8290 -0.1326
43292SOL    HW236992   3.570   5.770   9.464 -1.0472  0.0297  0.9934
43293SOL     OW36993   9.799   5.331  11.009 -0.7948 -0.6397 -0.0521
43293SOL    HW136994   9.894   5.335  10.995 -0.8785 -1.7318 -1.1337
43293SOL    HW236995   9.774   5.422  11.026  0.1740  0.0408 -1.8739
43294SOL     OW36996   8.626   1.195   5.331 -0.2789 -0.1770 -0.0791
43294SOL    HW136997   8.704   1.184   5.276  0.2364 -1.1745  0.8076
43294SOL    HW236998   8.593   1.282   5.308  1.2316  0.3756 -0.3103
43295SOL     OW36999  10.096   3.245  11.211 -0.0780 -0.4077 -0.1015
43295SOL    HW137000  10.047   3.227  11.292 -2.2923 -0.4989 -1.3776
43295SOL    HW237001  10.166   3.180  11.211 -0.2392 -0.6401  1.5419
43296SOL     OW37002   7.222  11.944   6.623  0.1591 -0.3852 -0.0514
43296SOL    HW137003   7.206  11.932   6.717 -0.4951 -0.4457 -0.1637
43296SOL    HW237004   7.257  12.033   6.616 -1.1284  0.1583  0.1129
43297SOL     OW37005   6.463   5.548   2.263 -0.6904  0.3580  0.2136
43297SOL    HW137006   6.497   5.466   2.226  1.4065  1.0895  0.3987
43297SOL    HW237007   6.463   5.610   2.190 -0.5662  0.6544  0.4620
43298SOL     OW37008   0.159   7.627  12.231  0.2648  0.5059 -0.0923
43298SOL    HW137009   0.143   7.696  12.295 -0.2136 -0.1829  0.5527
43298SOL    HW237010   0.254   7.627  12.219  0.4934 -0.1163  1.5028
43299SOL     OW37011  11.383  12.891   4.576 -0.3799  0.3759  0.3124
43299SOL    HW137012  11.358  12.817   4.520 -0.4088 -1.1380  2.2253
43299SOL    HW237013  11.470  12.916   4.546 -0.0747 -0.9059  0.0679
43300SOL     OW37014   1.390   3.168  12.300  0.4781 -0.1573 -0.1159
43300SOL    HW137015   1.375   3.100  12.366  0.6525 -0.0561  0.0267
43300SOL    HW237016   1.329   3.147  12.230  1.4895 -1.2845 -0.6985
43301SOL     OW37017   1.884   0.512   7.550 -0.2634 -0.1714  0.4531
43301SOL    HW137018   1.884   0.569   7.627  0.7264 -0.2442  0.5159
43301SOL    HW237019   1.893   0.424   7.586 -0.6478 -0.2769  0.2950
43302SOL     OW37020  10.108  12.654   3.303 -0.4431  0.3685  0.3929
43302SOL    HW137021  10.103  12.613   3.216  1.9216  0.5777  0.0714
43302SOL    HW237022  10.018  12.660   3.333 -1.3671  0.7146 -2.2517
43303SOL     OW37023   0.445   5.746  12.858 -0.4623 -0.1253 -0.0570
43303SOL    HW137024   0.507   5.673  12.861  0.3164  0.5435  1.4899
43303SOL    HW237025   0.494   5.821  12.893 -1.2628  1.1461 -1.5003
43304SOL     OW37026  11.435  12.649   0.651 -0.0694 -0.2753 -0.5362
43304SOL    HW137027  11.406  12.589   0.719  0.4105 -0.2724 -0.3231
43304SOL    HW237028  11.528  12.663   0.670 -0.7124  2.6346  1.0214
43305SOL     OW37029   0.129   5.740  11.595  0.1928 -0.1030  0.2033
43305SOL    HW137030   0.122   5.810  11.659  0.6211 -0.2141  0.3828
43305SOL    HW237031   0.089   5.664  11.638 -0.6152  0.1198 -0.1384
43306SOL     OW37032  10.995   6.496  11.443 -0.1900 -0.5069 -0.3130
43306SOL    HW137033  10.919   6.552  11.457  0.2746 -0.0335  0.4497
43306SOL    HW237034  11.026   6.519  11.356  0.3721  0.9416  0.2266
43307SOL     OW37035   3.887   6.464   0.803 -0.2746 -0.1134  0.2480
43307SOL    HW137036   3.972   6.422   0.812  0.2439  1.1556  1.7804
43307SOL    HW237037   3.846   6.451   0.889 -0.5438  1.5037  0.3953
43308SOL     OW37038   2.177   1.761   2.450 -0.2530  0.8760  0.0761
43308SOL    HW137039   2.241   1.778   2.519  1.2479  0.4636 -1.1677
43308SOL    HW237040   2.115   1.699   2.489  1.5597 -0.7149  0.5392
43309SOL     OW37041  12.614   9.133   6.850 -0.3778 -0.0557  0.2809
43309SOL    HW137042  12.678   9.067   6.824 -0.9891 -0.2888 -0.6964
43309SOL    HW237043  12.536   9.113   6.798 -1.1450  0.4184  1.2119
43310SOL     OW37044   8.289   3.974   7.105  0.3517 -0.1427  0.6294
43310SOL    HW137045   8.357   3.945   7.167  0.4518 -0.5798  0.3194
43310SOL    HW237046   8.289   3.908   7.037  0.3569  0.4305  0.0660
43311SOL     OW37047  11.038   8.912   6.947 -0.9439  0.6872  0.1518
43311SOL    HW137048  11.020   8.993   6.993 -0.1156 -0.4328  2.6182
43311SOL    HW237049  11.115   8.875   6.991 -0.6862 -0.9708 -1.5194
43312SOL     OW37050   8.990  11.019   4.275 -0.5302 -0.1175 -0.1058
43312SOL    HW137051   9.027  11.064   4.350 -0.0763  1.1708 -1.0690
43312SOL    HW237052   9.065  10.999   4.219 -1.0348  0.7172 -1.1248
43313SOL     OW37053  11.966  10.334   8.777  0.1500  0.2158  0.9501
43313SOL    HW137054  11.999  10.285   8.852 -0.2638  0.2344  1.1451
43313SOL    HW237055  12.044  10.355   8.726  0.3659 -0.3248  1.0566
43314SOL     OW37056   2.876  12.855  11.529  0.1872  0.3582  0.3333
43314SOL    HW137057   2.931  12.810  11.465  0.2696 -2.0793  1.9449
43314SOL    HW237058   2.886  12.948  11.509  0.4711 -0.2489 -2.9056
43315SOL     OW37059   2.585   8.674   1.602 -0.4158  0.6843 -0.0701
43315SOL    HW137060   2.594   8.607   1.534  1.0008  0.5184  0.2630
43315SOL    HW237061   2.526   8.635   1.667 -0.1466  0.0349 -0.2079
43316SOL     OW37062  11.526   6.008   4.616 -0.4484 -0.0014  0.1354
43316SOL    HW137063  11.519   5.966   4.530  1.5295  0.0615 -0.0912
43316SOL    HW237064  11.450   6.067   4.620 -1.9933 -1.8323 -0.4906
43317SOL     OW37065  11.862   2.025   1.801  0.5367  0.2738  0.2243
43317SOL    HW137066  11.872   2.118   1.783  1.4715  0.2707  0.6567
43317SOL    HW237067  11.947   1.998   1.837  0.0815 -0.6071  0.6859
43318SOL     OW37068  11.953   9.869   4.037  0.0765 -0.0786  0.4093
43318SOL    HW137069  11.907   9.953   4.032 -0.9992 -0.7118 -1.1916
43318SOL    HW237070  11.883   9.804   4.042  0.8426 -0.9908 -0.4930
43319SOL     OW37071   7.103  12.555   8.221 -0.4292 -0.5049 -0.2942
43319SOL    HW137072   7.035  12.620   8.237 -0.3935  0.0512 -2.1721
43319SOL    HW237073   7.162  12.561   8.297 -1.5639  0.1523  0.5535
43320SOL     OW37074   8.009   9.478   1.588 -0.0150 -0.3072  0.4161
43320SOL    HW137075   7.948   9.532   1.539  0.3807 -0.0345  0.2188
43320SOL    HW237076   8.074   9.450   1.524 -0.4963 -1.4527  0.3958
43321SOL     OW37077  11.816   2.233   5.480  0.2177 -0.1395  0.5586
43321SOL    HW137078  11.822   2.158   5.538 -0.1881  0.2999  1.1788
43321SOL    HW237079  11.725   2.232   5.449  0.4091 -0.3236 -0.0059
43322SOL     OW37080   4.464   3.877   2.944  0.1726 -0.2712 -0.2706
43322SOL    HW137081   4.545   3.876   2.994 -0.6413 -1.4937  1.1429
43322SOL    HW237082   4.420   3.957   2.971  0.6137  0.0766 -0.5671
43323SOL     OW37083   8.627   0.814   8.620 -0.3751 -0.0860  0.4297
43323SOL    HW137084   8.638   0.818   8.715 -1.5675 -0.3407  0.6027
43323SOL    HW237085   8.569   0.888   8.600  0.2780  0.2758 -0.1798
43324SOL     OW37086   9.086   4.924  10.308  0.0133  0.0125  0.0983
43324SOL    HW137087   9.003   4.880  10.288  1.1397 -2.1392 -0.1688
43324SOL    HW237088   9.102   4.905  10.400  0.9676 -1.0390 -0.2534
43325SOL     OW37089   8.698   4.940   7.644 -0.4571 -0.2756 -0.1683
43325SOL    HW137090   8.737   4.969   7.562 -1.6521 -0.4511 -0.8188
43325SOL    HW237091   8.770   4.896   7.691  0.1476 -0.4876 -1.2677
43326SOL     OW37092  10.785   4.334   9.437 -0.2266  0.0746 -0.7288
43326SOL    HW137093  10.728   4.261   9.460  0.9053 -1.7471 -3.3141
43326SOL    HW237094  10.757   4.360   9.349 -0.2294  2.4418 -0.0955
43327SOL     OW37095  10.928   5.382  12.040 -0.0416  0.3246  0.0198
43327SOL    HW137096  10.923   5.395  12.134 -1.9228  1.0278 -0.1426
43327SOL    HW237097  10.953   5.468  12.005  0.2972  0.1572 -0.1607
43328SOL     OW37098   7.994   1.967   8.994 -0.3251  0.3951  0.2938
43328SOL    HW137099   7.935   2.030   8.953 -0.2642  0.3490  0.1365
43328SOL    HW237100   7.976   1.975   9.088  0.5363  1.5323  0.3938
43329SOL     OW37101   1.686   2.370   6.708  0.3517  0.2323 -0.5625
43329SOL    HW137102   1.704   2.463   6.694  0.0656  0.5068  0.7353
43329SOL    HW237103   1.747   2.344   6.777  0.7092 -0.6606 -1.1922
43330SOL     OW37104   1.623   9.060   2.341 -0.1348  0.1572  0.5539
43330SOL    HW137105   1.535   9.022   2.343 -0.6908  1.3679  0.3082
43330SOL    HW237106   1.677   9.000   2.391 -1.2693 -0.2169  1.3593
43331SOL     OW37107  11.898   7.609  11.619 -0.4537  0.0229  0.3657
43331SOL    HW137108  11.930   7.617  11.529  1.6395 -0.1361  1.0336
43331SOL    HW237109  11.929   7.523  11.647 -0.7384  0.2367  1.3587
43332SOL     OW37110   1.354   9.282   8.029  0.4627 -0.2505  0.1331
43332SOL    HW137111   1.309   9.235   8.100 -0.4794 -1.0415 -0.9434
43332SOL    HW237112   1.396   9.213   7.978 -0.7711  0.0436 -1.3622
43333SOL     OW37113  10.831   3.961  12.345  0.1553  0.2332 -0.0144
43333SOL    HW137114  10.872   3.894  12.290  0.1210  0.0142  0.2261
43333SOL    HW237115  10.896   4.032  12.348  0.7293 -0.3090  0.7557
43334SOL     OW37116   7.228   3.199  12.023  0.3230  0.1125 -0.0647
43334SOL    HW137117   7.194   3.284  11.996  1.7392  0.8353  0.3081
43334SOL    HW237118   7.300   3.220  12.084  1.4582 -1.3029 -0.8537
43335SOL     OW37119  10.565   4.370  12.291  0.0761  0.1280  0.4176
43335SOL    HW137120  10.649   4.415  12.303 -0.6471  1.4538  0.6182
43335SOL    HW237121  10.502   4.440  12.276 -1.1938 -0.7848  1.3248
43336SOL     OW37122   0.520   7.368   9.338 -0.2695  0.3578  0.7464
43336SOL    HW137123   0.570   7.346   9.416  2.6606 -0.0402 -1.0736
43336SOL    HW237124   0.472   7.288   9.317  2.0526 -0.9697  0.0560
43337SOL     OW37125  12.061   0.655   3.684  0.5391 -0.3929 -0.1059
43337SOL    HW137126  12.116   0.618   3.616 -2.4058  0.3447 -3.1563
43337SOL    HW237127  12.011   0.581   3.718  0.6412 -0.4863 -0.1631
43338SOL     OW37128   6.808   6.645  11.834  0.1597 -0.1486 -0.2584
43338SOL    HW137129   6.718   6.637  11.866  0.3735  0.2638  0.4684
43338SOL    HW237130   6.829   6.557  11.802 -0.0679 -0.5937  0.7504
43339SOL     OW37131   7.766   7.140   2.735  0.1068 -0.6970 -0.0388
43339SOL    HW137132   7.720   7.061   2.706  0.3774 -1.0662  0.5276
43339SOL    HW237133   7.859   7.121   2.719  0.1148 -0.1084 -0.8095
43340SOL     OW37134   8.194   7.906   1.491 -0.1077 -0.4765  0.6367
43340SOL    HW137135   8.209   7.817   1.522 -3.1128 -0.8368  1.3935
43340SOL    HW237136   8.204   7.900   1.396 -2.4293 -2.2213  0.4125
43341SOL     OW37137   2.475   0.892   8.435 -0.0632  0.0600 -0.3423
43341SOL    HW137138   2.381   0.876   8.445  0.5451 -2.2655  3.4430
43341SOL    HW237139   2.485   0.987   8.445 -1.8996  0.1892  0.6264
43342SOL     OW37140  10.924  10.912   0.437  0.2265  0.7164 -0.4020
43342SOL    HW137141  10.921  11.003   0.466 -0.0999  0.6623 -0.2636
43342SOL    HW237142  10.864  10.909   0.362  0.1014  0.5773 -0.2973
43343SOL     OW37143   1.781   3.579   9.263 -0.0616  0.2506 -0.3023
43343SOL    HW137144   1.723   3.506   9.282  0.1323 -0.3432 -1.8474
43343SOL    HW237145   1.860   3.538   9.227  0.1647  1.1941 -0.9237
43344SOL     OW37146  11.893   3.501  11.090  0.3144 -0.2510  0.0750
43344SOL    HW137147  11.948   3.426  11.110  0.8689 -0.4475 -1.9682
43344SOL    HW237148  11.901   3.512  10.995 -2.0887  0.5631 -0.1025
43345SOL     OW37149   0.559   3.801   1.566  0.0707  0.4233 -0.3913
43345SOL    HW137150   0.614   3.876   1.589 -1.9421  2.0516 -0.5216
43345SOL    HW237151   0.516   3.777   1.648  1.5259 -1.3982 -0.0972
43346SOL     OW37152   9.995  12.681   7.724  0.5920 -0.3400  0.3458
43346SOL    HW137153   9.922  12.694   7.785  0.0037 -1.0151 -0.1891
43346SOL    HW237154  10.061  12.634   7.775  0.6681  0.2794  0.8374
43347SOL     OW37155   3.887  10.090   8.275  0.0388 -0.2731 -0.2370
43347SOL    HW137156   3.900  10.084   8.180  0.3839 -0.9520 -0.1502
43347SOL    HW237157   3.801  10.051   8.290 -0.3661  0.5581 -0.3561
43348SOL     OW37158   6.452   2.338   7.117  0.1932 -0.1900 -0.3712
43348SOL    HW137159   6.533   2.297   7.149 -0.0738 -0.9815 -0.6792
43348SOL    HW237160   6.475   2.371   7.030 -0.1410 -1.5477 -1.0018
43349SOL     OW37161   0.585   6.791   7.374 -0.2720  0.4895 -0.1768
43349SOL    HW137162   0.563   6.884   7.363 -0.2075  0.5752  0.3769
43349SOL    HW237163   0.658   6.792   7.437  1.5518  0.2478 -2.1633
43350SOL     OW37164   1.660  11.456   9.542  0.3304 -0.9823 -0.0737
43350SOL    HW137165   1.659  11.436   9.636 -0.3805 -0.9713 -0.0734
43350SOL    HW237166   1.577  11.421   9.509  0.2784 -0.4078 -0.5692
43351SOL     OW37167   3.630   1.449   4.617 -0.3414 -0.3927 -0.1624
43351SOL    HW137168   3.683   1.370   4.626 -0.6466 -0.5725  0.0939
43351SOL    HW237169   3.551   1.431   4.669  0.4928  0.8588  1.6456
43352SOL     OW37170   9.134   5.499   3.546  0.0428  0.0145 -0.0985
43352SOL    HW137171   9.072   5.427   3.555 -0.3223  0.1656 -1.2035
43352SOL    HW237172   9.132   5.544   3.630 -0.0591 -0.9923  0.4526
43353SOL     OW37173   0.547   8.635  11.823 -0.1258 -0.2480 -0.2288
43353SOL    HW137174   0.601   8.603  11.895  1.4104  0.6594 -0.9349
43353SOL    HW237175   0.583   8.594  11.745 -1.0664 -0.3626 -0.6154
43354SOL     OW37176   9.366   5.803   0.448  0.1272 -0.8006  0.2770
43354SOL    HW137177   9.329   5.887   0.420  2.0382  0.2186  0.6476
43354SOL    HW237178   9.378   5.754   0.367 -0.9996 -0.7484  0.0568
43355SOL     OW37179   4.624   2.308  10.463  0.4987  0.5037 -0.7509
43355SOL    HW137180   4.542   2.352  10.485  0.6260  0.4605 -0.1739
43355SOL    HW237181   4.685   2.335  10.531  0.4567 -0.9044 -0.1114
43356SOL     OW37182   9.878   7.037  12.788 -0.0162  0.0514 -0.2801
43356SOL    HW137183   9.916   7.066  12.871  0.1678 -2.1657  0.4795
43356SOL    HW237184   9.929   7.082  12.721  1.3909  0.1119  0.7869
43357SOL     OW37185   6.776   7.291   6.561 -0.2641  0.1844  0.0487
43357SOL    HW137186   6.800   7.239   6.484  2.0975  0.8405  0.2636
43357SOL    HW237187   6.841   7.267   6.628 -0.5840  1.6358  0.9259
43358SOL     OW37188   6.880   5.306   3.794  0.0972 -0.2620 -0.0619
43358SOL    HW137189   6.876   5.236   3.859  0.2900  0.3918  0.6671
43358SOL    HW237190   6.817   5.371   3.824 -1.7760 -1.0931 -1.9497
43359SOL     OW37191   7.512  10.509   2.435 -0.5296  0.5672  0.0590
43359SOL    HW137192   7.555  10.444   2.380 -0.5571 -0.0101  0.7054
43359SOL    HW237193   7.583  10.567   2.465 -0.2517 -0.1200  0.7626
43360SOL     OW37194   1.427   0.356   5.586  0.3391 -0.5306 -0.1142
43360SOL    HW137195   1.373   0.326   5.514 -0.1069  0.1910 -0.0915
43360SOL    HW237196   1.501   0.295   5.588 -0.6570 -1.7811  0.1089
43361SOL     OW37197   8.854   7.762  12.136  0.0541  0.0503  0.4223
43361SOL    HW137198   8.826   7.673  12.113  2.5353 -1.1602  1.6386
43361SOL    HW237199   8.809   7.819  12.073  0.9739 -2.3615 -2.6840
43362SOL     OW37200   9.966   0.780   1.382 -0.2973  0.0590 -0.4338
43362SOL    HW137201   9.936   0.715   1.319  0.2501  0.7111 -1.3869
43362SOL    HW237202   9.886   0.807   1.428 -0.7638 -0.1359 -1.1174
43363SOL     OW37203   3.317   2.185   0.916  0.0630 -0.0258  0.3551
43363SOL    HW137204   3.285   2.206   1.004 -1.0823  0.6947 -0.2125
43363SOL    HW237205   3.361   2.265   0.888  1.5925 -0.6884  0.7514
43364SOL     OW37206   2.842   5.029   9.460 -0.3358  0.6412 -0.1921
43364SOL    HW137207   2.817   4.988   9.378 -1.5210 -0.0661  0.5007
43364SOL    HW237208   2.936   5.046   9.451  0.1111 -1.7892 -0.6872
43365SOL     OW37209   0.269  11.754   8.431  0.4899  0.4450  0.5075
43365SOL    HW137210   0.253  11.693   8.359  0.0041 -0.6746  1.5298
43365SOL    HW237211   0.200  11.819   8.423  0.1016  0.0156  0.2800
43366SOL     OW37212   6.466  12.525   6.174 -0.0714  0.0641  0.1219
43366SOL    HW137213   6.477  12.616   6.145 -0.8134 -0.0738 -0.6437
43366SOL    HW237214   6.382  12.524   6.219  0.5471  0.0250  1.3136
43367SOL     OW37215   4.772   7.207   4.030  0.5650  0.4148 -0.1939
43367SOL    HW137216   4.688   7.184   4.070  0.1608 -1.0880 -1.8029
43367SOL    HW237217   4.835   7.202   4.102 -0.1061 -2.3113  0.3292
43368SOL     OW37218   9.103  12.637  12.392 -0.0110  0.1104 -0.5341
43368SOL    HW137219   9.146  12.689  12.459 -1.8057  1.2409 -0.1855
43368SOL    HW237220   9.110  12.690  12.313 -0.8119  0.3537 -0.4502
43369SOL     OW37221   1.705   0.074  10.817  0.1707 -0.1325 -0.1211
43369SOL    HW137222   1.673  -0.016  10.816 -0.4174  0.0737 -0.8594
43369SOL    HW237223   1.730   0.090  10.908 -3.3491  0.2008  0.9253
43370SOL     OW37224  12.558  12.305   7.299  0.1396  0.0929  0.0079
43370SOL    HW137225  12.470  12.339   7.318 -0.1409 -1.0223  0.7641
43370SOL    HW237226  12.544  12.237   7.233  0.5972  0.7849 -0.8228
43371SOL     OW37227   5.817   4.799   1.447 -0.5251 -0.0112 -0.7954
43371SOL    HW137228   5.820   4.724   1.507 -2.5804  0.2901 -0.2473
43371SOL    HW237229   5.836   4.761   1.361 -1.4138 -1.1746 -0.5131
43372SOL     OW37230   8.395   4.524   1.170 -0.4998 -0.1256 -0.1573
43372SOL    HW137231   8.415   4.586   1.240  1.6303 -0.6296 -0.2490
43372SOL    HW237232   8.392   4.576   1.091  1.2336 -0.0826 -0.2285
43373SOL     OW37233   7.733   5.701   9.639  0.7864  0.2815  0.0654
43373SOL    HW137234   7.774   5.678   9.556  0.5254 -0.5463  0.1576
43373SOL    HW237235   7.639   5.693   9.624  0.6857  1.1693  0.1487
43374SOL     OW37236   3.231   3.890   8.509  0.5751  0.6690 -0.4871
43374SOL    HW137237   3.271   3.823   8.454  0.2540 -0.4915  0.6657
43374SOL    HW237238   3.217   3.848   8.593 -1.7942  1.4480 -0.4130
43375SOL     OW37239   9.604   6.016   3.396 -0.1949  0.5134  0.7687
43375SOL    HW137240   9.690   6.038   3.360 -1.2495  1.7843 -1.1139
43375SOL    HW237241   9.547   6.009   3.320 -1.8293 -0.0612  1.9910
43376SOL     OW37242   2.623   2.944  12.764 -0.2900  0.7992 -0.1657
43376SOL    HW137243   2.689   2.929  12.831 -0.7586  1.1002  0.3704
43376SOL    HW237244   2.658   2.901  12.686  0.0492  0.0471  0.3887
43377SOL     OW37245   9.858   6.610   2.261 -0.0957  0.2413  0.1966
43377SOL    HW137246   9.850   6.555   2.339 -0.7659 -0.6391 -0.4692
43377SOL    HW237247   9.795   6.573   2.199 -2.0927  2.9561  0.4081
43378SOL     OW37248  10.792  12.457  11.653  0.2870  0.1015 -0.3160
43378SOL    HW137249  10.724  12.468  11.720 -0.0670 -2.0045 -0.2566
43378SOL    HW237250  10.874  12.453  11.703  0.0653 -1.0566 -0.0268
43379SOL     OW37251   7.122   5.532   3.986 -0.8959 -0.2158 -0.3264
43379SOL    HW137252   7.101   5.474   3.913 -1.0731  0.5920 -0.9325
43379SOL    HW237253   7.041   5.579   4.005 -0.8309 -0.3560  0.3461
43380SOL     OW37254   1.945   7.714   4.929  0.1719 -0.2025 -0.4458
43380SOL    HW137255   2.020   7.655   4.932 -0.3696 -0.8522  0.9776
43380SOL    HW237256   1.980   7.799   4.955  0.3569 -0.5866  0.6150
43381SOL     OW37257   4.269  11.239  12.886 -0.2843  0.2805 -0.0594
43381SOL    HW137258   4.300  11.317  12.933 -0.9483  1.8950 -2.1594
43381SOL    HW237259   4.346  11.209  12.838 -0.0802 -0.2867  0.5991
43382SOL     OW37260   3.629   7.694   5.564  0.3188  0.5637  0.2230
43382SOL    HW137261   3.663   7.779   5.537  1.3898  0.3284  0.7749
43382SOL    HW237262   3.543   7.689   5.523 -0.0837  2.2186  0.7733
43383SOL     OW37263   4.565   0.255   1.307  0.6677  0.5503  0.3083
43383SOL    HW137264   4.563   0.322   1.375  0.2948  0.0651  0.7856
43383SOL    HW237265   4.501   0.189   1.336  1.3766 -0.2491  0.1065
43384SOL     OW37266   5.699   5.254   3.501  0.2261 -0.2264 -0.3875
43384SOL    HW137267   5.686   5.318   3.432  0.5232  1.5831  1.1581
43384SOL    HW237268   5.619   5.258   3.553  1.7896  2.1019  2.1472
43385SOL     OW37269   1.751   3.448   7.224  0.1627  0.2873 -0.1878
43385SOL    HW137270   1.794   3.368   7.250 -1.0582  0.1295  1.5306
43385SOL    HW237271   1.800   3.518   7.267 -1.0925  0.1178  1.6489
43386SOL     OW37272   3.601   5.726   9.813  0.0969  0.0065 -0.9828
43386SOL    HW137273   3.688   5.767   9.810  0.1823 -0.0767  0.1751
43386SOL    HW237274   3.613   5.642   9.769  0.5806  0.0289 -0.8970
43387SOL     OW37275   4.812  11.159   2.397 -0.5513  0.6508  0.2311
43387SOL    HW137276   4.902  11.182   2.418 -0.6230  0.2771  0.9731
43387SOL    HW237277   4.814  11.139   2.303  0.4773 -0.9099  0.5471
43388SOL     OW37278   3.298   1.130   7.194  0.1933 -0.0012  0.2294
43388SOL    HW137279   3.229   1.164   7.250 -0.4823  0.3099 -0.7508
43388SOL    HW237280   3.366   1.197   7.196 -0.4594  0.6967 -0.4602
43389SOL     OW37281   6.682   3.512   1.287  0.3095  0.6099 -0.3251
43389SOL    HW137282   6.599   3.488   1.329  0.3550  0.4086 -0.3450
43389SOL    HW237283   6.663   3.592   1.239 -0.4129 -0.4977 -1.9762
43390SOL     OW37284   3.313   3.390  10.278 -0.3398  0.0309  0.1262
43390SOL    HW137285   3.269   3.320  10.325  1.8601 -0.0547  2.2657
43390SOL    HW237286   3.371   3.345  10.216  0.4015 -0.0682  0.8660
43391SOL     OW37287   0.507   1.200   9.451 -0.0627 -0.1972 -0.3357
43391SOL    HW137288   0.473   1.187   9.363 -1.3073  0.1370  0.0695
43391SOL    HW237289   0.551   1.285   9.449 -1.0342  0.3186 -0.3772
43392SOL     OW37290   7.904   6.918  10.952 -0.3514  0.0871 -0.0093
43392SOL    HW137291   7.963   6.983  10.913 -0.0715 -0.8770 -1.2797
43392SOL    HW237292   7.944   6.834  10.931 -0.8299 -0.5160  1.4048
43393SOL     OW37293   8.411  12.541   7.713 -0.1280  0.0300 -0.1310
43393SOL    HW137294   8.491  12.499   7.743 -0.8699 -0.8281  0.7065
43393SOL    HW237295   8.437  12.631   7.691  1.0912 -0.2986 -0.0701
43394SOL     OW37296   3.272   9.162   8.404  0.3142  0.6279  0.0317
43394SOL    HW137297   3.271   9.112   8.323 -0.5934 -0.5539  0.7370
43394SOL    HW237298   3.202   9.227   8.392 -0.9465 -0.5905  0.4491
43395SOL     OW37299   3.517   8.689   5.295 -0.2590  0.0889 -0.1008
43395SOL    HW137300   3.496   8.597   5.315  0.3550 -0.1432 -0.5011
43395SOL    HW237301   3.536   8.728   5.380 -1.2153  0.0360  0.1567
43396SOL     OW37302  12.062   5.716  11.591  0.4199 -0.1588  0.6945
43396SOL    HW137303  12.032   5.655  11.659 -0.6097  0.6435  1.0014
43396SOL    HW237304  12.140   5.675  11.554  1.2847 -0.4125  2.6605
43397SOL     OW37305   8.458   2.445   8.015  0.1463  0.1054 -0.3341
43397SOL    HW137306   8.387   2.380   8.005 -1.1104  1.2282  0.9144
43397SOL    HW237307   8.435   2.515   7.954 -1.0308  1.4398  1.5316
43398SOL     OW37308   9.960   3.646  10.278  0.4709  0.3889  0.1766
43398SOL    HW137309   9.916   3.630  10.195  2.4918 -0.5277 -0.7920
43398SOL    HW237310   9.992   3.560  10.306  1.2706  0.9333  1.0229
43399SOL     OW37311   8.436   2.449   6.291  0.2823 -0.0714 -0.3919
43399SOL    HW137312   8.443   2.431   6.197  1.7695 -2.3571  0.0699
43399SOL    HW237313   8.481   2.533   6.302 -0.9150  0.8099 -1.8334
43400SOL     OW37314   1.855   7.408   0.655 -0.2213 -0.0865  0.1877
43400SOL    HW137315   1.916   7.398   0.728 -0.2870  0.0210  0.2574
43400SOL    HW237316   1.888   7.483   0.606  0.2463 -0.6025 -0.3107
43401SOL     OW37317  12.122   8.627   1.011  0.4249  0.3630 -0.1334
43401SOL    HW137318  12.095   8.698   1.069  0.8018  2.0983 -1.9475
43401SOL    HW237319  12.120   8.666   0.923 -1.6968 -2.5462 -1.5662
43402SOL     OW37320   6.305  12.811   0.343 -0.7371  0.0321 -0.5440
43402SOL    HW137321   6.384  12.818   0.290 -1.0882  0.3640 -1.0361
43402SOL    HW237322   6.289  12.899   0.375 -0.0147 -0.3389  0.8907
43403SOL     OW37323   5.651  12.967   8.003 -0.0185 -0.1009 -0.3586
43403SOL    HW137324   5.606  12.963   7.918  1.8419  0.8730 -1.4817
43403SOL    HW237325   5.623  13.051   8.040 -0.8102 -0.5119 -0.0122
43404SOL     OW37326  11.809  12.736  10.558  0.6921 -0.3552  0.1035
43404SOL    HW137327  11.896  12.739  10.597  1.1400  2.0412 -0.9217
43404SOL    HW237328  11.756  12.794  10.613  0.8879  1.6344 -1.6999
43405SOL     OW37329   6.991   8.240   9.300  0.1425  0.8840  0.3750
43405SOL    HW137330   7.087   8.240   9.300  0.1622  1.7578 -0.7527
43405SOL    HW237331   6.967   8.170   9.360  1.4800 -1.1664 -1.3504
43406SOL     OW37332  10.481   0.770   8.232 -0.2566  0.1069 -0.2581
43406SOL    HW137333  10.565   0.800   8.266 -0.0167  0.1068 -0.8374
43406SOL    HW237334  10.417   0.832   8.266 -0.0492  0.0126  0.3225
43407SOL     OW37335  10.854   6.346   4.348  0.1991  0.0201 -0.6206
43407SOL    HW137336  10.906   6.270   4.321  0.0179 -0.6730  0.9032
43407SOL    HW237337  10.766   6.327   4.315  0.1115 -0.5350 -0.0802
43408SOL     OW37338   9.553   8.435   1.097  0.2300 -0.2011  0.1250
43408SOL    HW137339   9.580   8.488   1.172  0.4499  0.5700 -0.4812
43408SOL    HW237340   9.566   8.493   1.022 -1.6462 -0.3183 -0.3456
43409SOL     OW37341   0.337  10.799  12.513  0.0678  0.2155  0.5171
43409SOL    HW137342   0.384  10.861  12.458  0.3543 -0.0079  0.5088
43409SOL    HW237343   0.266  10.850  12.552 -0.8268  0.1242 -0.9134
43410SOL     OW37344   6.949   2.548   2.199  0.0172 -0.0601 -0.4658
43410SOL    HW137345   6.932   2.455   2.186 -0.1889 -0.1749  0.5348
43410SOL    HW237346   7.040   2.552   2.229  0.3330  0.1561 -1.4020
43411SOL     OW37347   0.809   1.065   6.979  0.4439  0.7209  0.4727
43411SOL    HW137348   0.736   1.056   7.040  1.5479 -1.4024  1.5679
43411SOL    HW237349   0.876   1.111   7.029  0.6520  0.7111  0.2028
43412SOL     OW37350   9.059   7.190  10.882  0.0778  0.0744  0.3365
43412SOL    HW137351   9.009   7.257  10.929  0.0113  1.4259 -1.5275
43412SOL    HW237352   9.146   7.230  10.870  0.2614 -0.4710 -0.1859
43413SOL     OW37353   6.730   6.773   4.473  0.2879 -0.1850  0.6729
43413SOL    HW137354   6.720   6.868   4.476 -0.7295 -0.2919  2.4852
43413SOL    HW237355   6.749   6.753   4.382 -0.4405  1.6680  0.0740
43414SOL     OW37356   6.138   3.349   8.670 -0.1999  0.3750 -0.4825
43414SOL    HW137357   6.156   3.443   8.668 -0.6575  0.4638 -0.7380
43414SOL    HW237358   6.076   3.338   8.741  0.2700  0.1849 -0.1013
43415SOL     OW37359   5.623   7.645   9.665 -0.4444 -1.0100 -0.3502
43415SOL    HW137360   5.543   7.641   9.613 -0.5732  0.5330 -0.3193
43415SOL    HW237361   5.687   7.687   9.607 -0.1383 -0.7219  0.1929
43416SOL     OW37362   3.894   4.299   6.937 -0.1404 -0.2156 -0.3643
43416SOL    HW137363   3.832   4.368   6.961 -0.1631 -0.7669  1.3162
43416SOL    HW237364   3.842   4.219   6.937  1.0170 -1.3211  4.7821
43417SOL     OW37365   6.721  12.098   2.924 -0.3049  0.1610  0.1383
43417SOL    HW137366   6.665  12.110   3.000  0.7219  2.9353  0.5790
43417SOL    HW237367   6.720  12.182   2.879  2.7588  0.0951 -0.3113
43418SOL     OW37368   2.665   5.402   0.242  0.5257 -0.5911 -0.3741
43418SOL    HW137369   2.709   5.465   0.299 -0.4614  0.5695 -0.8603
43418SOL    HW237370   2.723   5.394   0.166  0.0467  0.7630 -0.9139
43419SOL     OW37371   5.618   3.086  10.350 -0.2577  0.3041  0.0441
43419SOL    HW137372   5.636   2.993  10.336 -1.3157 -0.3125  2.3276
43419SOL    HW237373   5.677   3.112  10.420 -1.0932  0.9119  0.5399
43420SOL     OW37374   4.709   7.433   5.923  0.3079 -0.3190 -0.2895
43420SOL    HW137375   4.757   7.515   5.911 -0.5873  0.2595 -0.0231
43420SOL    HW237376   4.648   7.429   5.849 -1.2228  0.4095  0.8680
43421SOL     OW37377  10.274  11.109   1.257 -0.2007  0.3287 -0.0473
43421SOL    HW137378  10.345  11.051   1.285 -1.4487 -0.3962  1.7461
43421SOL    HW237379  10.317  11.173   1.201  1.4656 -1.4892 -0.9830
43422SOL     OW37380   1.776   2.802   9.881 -0.6930 -0.5073 -0.5301
43422SOL    HW137381   1.870   2.783   9.887 -0.6409 -0.3091 -0.7133
43422SOL    HW237382   1.745   2.746   9.809 -0.0498  1.9038 -2.8356
43423SOL     OW37383   4.125   9.437   8.564  0.2999 -0.4613  0.2858
43423SOL    HW137384   4.104   9.348   8.590  2.7297 -1.0202  0.5253
43423SOL    HW237385   4.183   9.470   8.633  1.2090  0.5150 -0.8938
43424SOL     OW37386   5.212   9.429   3.164  0.3791  0.7575 -0.1024
43424SOL    HW137387   5.149   9.383   3.109 -0.7313  1.5511  0.4627
43424SOL    HW237388   5.264   9.360   3.204 -0.9633  0.0037  0.3934
43425SOL     OW37389   4.830  11.818   5.472  0.2681 -0.3206 -0.1938
43425SOL    HW137390   4.814  11.885   5.538 -1.1320 -1.1795  0.3878
43425SOL    HW237391   4.871  11.746   5.520 -1.1753 -1.1319 -0.1055
43426SOL     OW37392  11.795   6.903   8.368 -0.0435  0.1866 -0.3660
43426SOL    HW137393  11.839   6.871   8.289 -0.6586  2.8523 -1.9314
43426SOL    HW237394  11.708   6.930   8.338  0.0708  2.2682  0.9505
43427SOL     OW37395   0.308   8.455   2.987  0.4004 -0.2435  0.1512
43427SOL    HW137396   0.361   8.382   2.954 -1.1409 -1.7333  0.8332
43427SOL    HW237397   0.219   8.420   2.991 -0.7249  2.2408 -1.1346
43428SOL     OW37398   9.858   4.825   3.573 -0.6755 -0.3170 -0.2593
43428SOL    HW137399   9.892   4.839   3.485 -2.2985 -2.2348 -1.2602
43428SOL    HW237400   9.781   4.882   3.578  0.6080  1.4223  0.7635
43429SOL     OW37401   7.628   8.730   6.178  0.1610  0.1356 -0.4402
43429SOL    HW137402   7.606   8.818   6.209  3.0975  0.1729  2.0768
43429SOL    HW237403   7.697   8.744   6.114 -1.0863 -0.2888 -1.9233
43430SOL     OW37404   5.785   2.511   3.558  0.4542  0.0058  0.6632
43430SOL    HW137405   5.829   2.433   3.592  1.4476  0.6976  1.0279
43430SOL    HW237406   5.812   2.516   3.467  0.0751 -0.2806  0.5310
43431SOL     OW37407   6.743  10.210   8.371 -0.7325  0.1657 -0.2201
43431SOL    HW137408   6.659  10.255   8.366 -0.3079  1.0712  0.5367
43431SOL    HW237409   6.805  10.276   8.403  0.4455 -0.2536 -1.4857
43432SOL     OW37410   7.415   0.325   1.787  0.4013  0.2247  0.2587
43432SOL    HW137411   7.499   0.280   1.779 -0.0899 -0.6679  0.0038
43432SOL    HW237412   7.431   0.393   1.853  1.0448 -0.5895  0.9709
43433SOL     OW37413   8.275   9.987   1.341  0.1609 -0.0593  0.0653
43433SOL    HW137414   8.215  10.050   1.381  0.4996  0.3776 -0.1041
43433SOL    HW237415   8.362  10.014   1.372  0.1854 -1.4302  1.3384
43434SOL     OW37416   5.972  12.670   4.211  0.8284  0.4297 -0.1808
43434SOL    HW137417   5.885  12.687   4.175  1.9826  1.9558 -2.4730
43434SOL    HW237418   5.982  12.735   4.281  1.3318  2.6583 -2.1859
43435SOL     OW37419   2.141   3.513   1.558 -0.3468  0.1240  0.2089
43435SOL    HW137420   2.168   3.601   1.534 -0.7475 -0.2128 -1.6340
43435SOL    HW237421   2.214   3.457   1.530 -0.1031 -0.1537  1.3480
43436SOL     OW37422  10.468   0.365   5.117  0.5582  0.1513  0.7863
43436SOL    HW137423  10.441   0.279   5.150  0.5334  1.0122  3.2416
43436SOL    HW237424  10.549   0.348   5.069  0.2127 -1.3228  0.6697
43437SOL     OW37425   2.912   4.613   8.281 -0.3142  0.2279  0.2417
43437SOL    HW137426   2.988   4.581   8.231  1.3908  1.5735  1.8127
43437SOL    HW237427   2.946   4.624   8.370 -2.3411  1.0479  0.9567
43438SOL     OW37428  10.445   3.925   1.340 -0.3099 -0.0543 -0.2646
43438SOL    HW137429  10.469   3.961   1.255 -1.0616 -0.6807 -0.7621
43438SOL    HW237430  10.437   3.831   1.325 -1.2069 -0.0851  0.3031
43439SOL     OW37431   8.464  11.508   2.885 -0.4305 -0.0937  0.7790
43439SOL    HW137432   8.445  11.544   2.799 -0.0947 -2.5411 -0.4023
43439SOL    HW237433   8.559  11.491   2.884 -0.7123 -1.9382  0.8136
43440SOL     OW37434   3.887   8.007   9.426  0.0464  0.3357  0.2514
43440SOL    HW137435   3.906   7.915   9.406 -0.4878  0.5013 -1.1735
43440SOL    HW237436   3.967   8.040   9.466 -0.0750 -0.9774  1.6659
43441SOL     OW37437   8.670  10.634  12.480  0.0643 -0.1602 -0.0444
43441SOL    HW137438   8.607  10.571  12.445 -0.1743 -0.6084  1.1360
43441SOL    HW237439   8.628  10.669  12.559  1.7343 -1.3603  1.4844
43442SOL     OW37440   8.570   1.767   2.889  0.1744 -0.9879  0.4386
43442SOL    HW137441   8.608   1.851   2.917 -2.1522 -0.2888  1.7364
43442SOL    HW237442   8.556   1.719   2.971  0.6532 -2.3097 -0.2305
43443SOL     OW37443  12.805   7.018   5.435  0.2399 -0.4298 -0.2680
43443SOL    HW137444  12.821   6.924   5.423 -0.8678 -0.7453  0.5814
43443SOL    HW237445  12.885   7.052   5.475 -0.1868 -1.4526  1.5114
43444SOL     OW37446   9.680   2.791   9.802 -0.3626  0.1851  0.6989
43444SOL    HW137447   9.646   2.742   9.728 -1.6087  0.6477  0.9338
43444SOL    HW237448   9.712   2.873   9.764 -0.0107 -0.0227  0.5436
43445SOL     OW37449   4.210   1.334   6.873 -0.1690  0.0304 -0.2841
43445SOL    HW137450   4.275   1.400   6.895 -0.2931  0.6019 -1.5462
43445SOL    HW237451   4.231   1.260   6.930  1.9093  0.0092 -0.9842
43446SOL     OW37452   6.884   9.929   1.181  0.2460 -0.2464  0.1779
43446SOL    HW137453   6.848   9.954   1.096 -0.5950 -0.9552  0.3121
43446SOL    HW237454   6.834   9.982   1.244 -1.3979 -2.0037  0.4481
43447SOL     OW37455  10.791   9.847   7.366 -0.1388  0.2706 -0.1896
43447SOL    HW137456  10.753   9.775   7.417 -1.2705  0.3426 -0.9182
43447SOL    HW237457  10.828   9.906   7.432  0.6306 -0.8577  0.4299
43448SOL     OW37458   0.165   4.838   3.196  0.2568 -0.3501  0.3058
43448SOL    HW137459   0.178   4.860   3.288 -0.5738 -0.2718  0.4073
43448SOL    HW237460   0.072   4.817   3.189 -0.4608  2.7017 -1.1103
43449SOL     OW37461   9.592   8.462   9.879  0.7070 -0.0780  0.0739
43449SOL    HW137462   9.626   8.414   9.804  1.4310 -0.1198  0.4184
43449SOL    HW237463   9.663   8.522   9.903  0.1606  0.5260  0.2092
43450SOL     OW37464   6.462   0.276  12.329  0.0286 -0.2310 -0.2307
43450SOL    HW137465   6.444   0.267  12.236  1.1325 -0.5934 -0.4315
43450SOL    HW237466   6.541   0.223  12.343 -1.8856 -2.8266  1.5409
43451SOL     OW37467   0.469  11.968   3.376 -0.2932  0.1747  0.2474
43451SOL    HW137468   0.405  11.993   3.310 -2.5390  1.0459  2.5664
43451SOL    HW237469   0.541  12.030   3.364 -1.1717  1.0647 -0.6402
43452SOL     OW37470   2.359   5.810   0.853  0.2718 -0.2008 -0.2336
43452SOL    HW137471   2.296   5.739   0.866 -0.0762 -0.0999 -1.2839
43452SOL    HW237472   2.438   5.780   0.899 -0.0494 -1.0098 -0.1874
43453SOL     OW37473   7.051   9.570   4.344  0.5793  0.1126 -0.6095
43453SOL    HW137474   7.118   9.602   4.405 -0.5621  0.3994  0.5255
43453SOL    HW237475   7.080   9.602   4.258  2.4798 -0.7208 -0.3445
43454SOL     OW37476  11.602   4.792   9.232  0.2997  0.7211 -0.0400
43454SOL    HW137477  11.633   4.880   9.253 -1.9528  2.1753 -2.2274
43454SOL    HW237478  11.681   4.740   9.221  1.8147  3.1105 -1.1863
43455SOL     OW37479   0.876  10.155   8.133  0.5534 -0.1060 -0.2624
43455SOL    HW137480   0.900  10.094   8.063  0.6193  1.4101 -1.6261
43455SOL    HW237481   0.782  10.142   8.146 -0.0962  1.4819 -2.6626
43456SOL     OW37482  11.138   0.543   3.358  0.0684 -0.0051 -0.0468
43456SOL    HW137483  11.112   0.544   3.450  1.8932  0.0512  0.5035
43456SOL    HW237484  11.125   0.453   3.330  1.8733 -0.6492  1.0215
43457SOL     OW37485   8.738   9.711   7.185 -0.1115  0.5669  0.0334
43457SOL    HW137486   8.793   9.657   7.242 -0.5146 -0.3900 -0.4611
43457SOL    HW237487   8.654   9.715   7.230 -0.5135 -0.4170 -0.5993
43458SOL     OW37488   9.286   2.361   8.298 -0.0112 -0.1047 -0.7748
43458SOL    HW137489   9.213   2.422   8.296 -0.2947 -0.4422 -0.6299
43458SOL    HW237490   9.268   2.299   8.227  0.1412 -0.1813 -0.7477
43459SOL     OW37491  12.100   6.863   2.049 -0.6955 -0.2637 -0.1750
43459SOL    HW137492  12.101   6.923   1.974  0.3842  0.8950  0.7344
43459SOL    HW237493  12.166   6.797   2.027  1.9678  1.8122  1.0413
43460SOL     OW37494  11.513   1.541   5.348  0.2615 -0.2616 -0.1314
43460SOL    HW137495  11.532   1.503   5.263  2.9570 -0.2917  0.3974
43460SOL    HW237496  11.445   1.606   5.331  0.7043 -0.2912 -2.2900
43461SOL     OW37497   7.521  12.000   2.745 -0.4593  0.0742  0.3111
43461SOL    HW137498   7.521  12.094   2.761 -1.8131  0.2097 -0.3243
43461SOL    HW237499   7.456  11.965   2.806  0.6019 -0.5744  1.1005
43462SOL     OW37500   5.183   6.956  11.884  0.5985  0.2544 -0.6517
43462SOL    HW137501   5.217   7.045  11.891  0.0346  0.6065 -1.9291
43462SOL    HW237502   5.171   6.943  11.789 -3.0965  0.2990 -0.3347
43463SOL     OW37503  10.125   8.675   1.853 -0.5715 -0.5696  0.5029
43463SOL    HW137504  10.089   8.746   1.800 -2.2018 -1.2316  0.6543
43463SOL    HW237505  10.219   8.689   1.852 -0.5663 -0.2786 -2.2014
43464SOL     OW37506  12.602   5.369   8.857  0.0479  0.8574  0.1301
43464SOL    HW137507  12.576   5.336   8.943  0.2982  2.2080  0.7516
43464SOL    HW237508  12.532   5.429   8.832  0.5754  1.4129 -0.0339
43465SOL     OW37509   9.208  11.259   5.853 -0.3332 -0.1872 -0.3902
43465SOL    HW137510   9.258  11.187   5.892  1.1841  0.6398 -0.7232
43465SOL    HW237511   9.268  11.297   5.788 -1.2674  1.0924 -0.5458
43466SOL     OW37512  11.160  10.684  12.767  0.6887 -0.0792 -0.4944
43466SOL    HW137513  11.184  10.771  12.798 -1.2678  0.4852 -0.4440
43466SOL    HW237514  11.205  10.675  12.683  0.6799  1.1123 -0.6415
43467SOL     OW37515   5.851   2.847   1.375 -0.0969 -0.0458  0.3170
43467SOL    HW137516   5.941   2.880   1.384 -0.4053  0.6860  0.7504
43467SOL    HW237517   5.832   2.806   1.459 -0.9298  1.7342  1.0480
43468SOL     OW37518   4.350   8.064   3.947  0.0248  0.1537  0.4486
43468SOL    HW137519   4.379   7.975   3.924 -1.1560 -0.4079  1.0485
43468SOL    HW237520   4.421   8.099   4.001 -0.4828 -1.3055  2.1566
43469SOL     OW37521   7.269   6.122  10.129  0.2712 -0.1776 -0.3854
43469SOL    HW137522   7.246   6.087  10.043 -0.6076 -1.3581  0.3062
43469SOL    HW237523   7.213   6.199  10.140  0.6954  0.2369 -1.0262
43470SOL     OW37524   4.241  10.304  10.494  0.1613  0.2470  0.2961
43470SOL    HW137525   4.297  10.256  10.432 -0.4891  1.5043 -1.3541
43470SOL    HW237526   4.299  10.326  10.567  1.3232 -0.1448 -0.4795
43471SOL     OW37527   9.486   8.761   4.518 -0.1147  0.4559 -0.1004
43471SOL    HW137528   9.450   8.738   4.433  0.7054  1.0672 -0.6269
43471SOL    HW237529   9.432   8.712   4.581  0.8551 -2.0059 -1.0724
43472SOL     OW37530   4.287   9.282  10.620  0.9242 -0.5160 -0.0153
43472SOL    HW137531   4.336   9.295  10.539  1.0239  1.1342  0.2863
43472SOL    HW237532   4.327   9.205  10.661  2.1465 -0.2010 -0.5975
43473SOL     OW37533  12.764   1.145   3.505 -0.1716  0.2872  0.5882
43473SOL    HW137534  12.699   1.215   3.492 -1.9616 -1.0021  2.0343
43473SOL    HW237535  12.816   1.174   3.579 -0.5410  0.3640  0.8225
43474SOL     OW37536   2.550   5.063   9.134 -0.5966  0.0431 -0.1195
43474SOL    HW137537   2.508   5.063   9.048  0.2429 -0.7024 -0.5548
43474SOL    HW237538   2.634   5.020   9.119 -0.4229 -0.0694  1.0735
43475SOL     OW37539   4.820  12.727   2.538 -0.0015  0.0596 -0.2871
43475SOL    HW137540   4.840  12.722   2.631 -0.7709  3.0546  0.1292
43475SOL    HW237541   4.903  12.706   2.494  0.8805  0.5155  1.1131
43476SOL     OW37542  11.814   3.839  11.955 -0.2553  0.0983  0.0685
43476SOL    HW137543  11.838   3.929  11.976 -0.6691 -0.0629  1.3158
43476SOL    HW237544  11.718   3.837  11.962 -0.1607 -0.7664  1.5579
43477SOL     OW37545   5.299   0.621   7.271  0.5409  0.1935  0.3783
43477SOL    HW137546   5.339   0.689   7.216  2.0390  0.2153  1.4293
43477SOL    HW237547   5.314   0.539   7.224 -2.1044  0.5831 -1.3696
43478SOL     OW37548   0.376  10.559  11.700 -0.2884  0.2756  0.2069
43478SOL    HW137549   0.440  10.535  11.767  1.1733  1.7897 -0.5871
43478SOL    HW237550   0.311  10.489  11.703 -0.3504  0.3457  3.2563
43479SOL     OW37551   2.640  10.411   7.291  0.4589  0.2226  0.1097
43479SOL    HW137552   2.702  10.484   7.303  0.5209  0.0664  0.7435
43479SOL    HW237553   2.621  10.381   7.380 -1.0403  0.6871 -0.0287
43480SOL     OW37554  12.040  12.786   0.040 -0.2088  0.2284 -0.4103
43480SOL    HW137555  12.131  12.802   0.014 -0.7225  2.0939 -1.3097
43480SOL    HW237556  11.989  12.811  -0.037 -1.4990 -0.6630  0.1228
43481SOL     OW37557   1.583   7.921   9.704  0.1053 -0.0204  0.4796
43481SOL    HW137558   1.658   7.971   9.672  0.6709 -0.2611  1.3981
43481SOL    HW237559   1.545   7.883   9.625  1.3204 -0.3903  0.0491
43482SOL     OW37560   2.503   9.315   7.685  0.5305  0.1013 -0.0922
43482SOL    HW137561   2.430   9.345   7.739  0.0238 -1.2093 -0.0123
43482SOL    HW237562   2.462   9.260   7.618  1.5488 -2.1019  0.9891
43483SOL     OW37563   0.473   7.771  10.565 -0.5043  0.2801  0.1161
43483SOL    HW137564   0.386   7.809  10.558 -0.0162  1.2840 -0.6637
43483SOL    HW237565   0.486   7.759  10.659 -1.3402  0.4206  0.2614
43484SOL     OW37566   2.294   4.947   7.335  0.4715 -0.1915 -0.6039
43484SOL    HW137567   2.241   4.934   7.413  1.1546  2.0788  0.3060
43484SOL    HW237568   2.232   4.973   7.267  0.1566  0.2886 -0.1377
43485SOL     OW37569   4.731  12.381  10.412 -0.3684 -0.4813 -0.4921
43485SOL    HW137570   4.765  12.467  10.437 -2.4884  0.8181 -1.7537
43485SOL    HW237571   4.673  12.357  10.485  0.2899 -0.9088 -0.0996
43486SOL     OW37572   5.230   0.452   9.383 -0.1204 -0.7457 -0.0169
43486SOL    HW137573   5.255   0.366   9.348 -0.6313 -0.8641 -0.1018
43486SOL    HW237574   5.306   0.508   9.365 -0.2262 -0.8910 -0.9982
43487SOL     OW37575   1.580  10.459   2.933  0.0686  0.3202 -0.1201
43487SOL    HW137576   1.610  10.496   2.850 -1.5658 -0.0792 -0.9143
43487SOL    HW237577   1.652  10.476   2.993  1.1731  0.8822 -1.5350
43488SOL     OW37578   2.509   3.430  12.813  0.2152 -0.3168  0.0173
43488SOL    HW137579   2.452   3.419  12.889 -1.4138 -1.7301 -1.3074
43488SOL    HW237580   2.590   3.466  12.848 -0.9970  0.4508  2.1897
43489SOL     OW37581  12.279   2.720   9.741  0.8313 -0.1315 -0.0999
43489SOL    HW137582  12.281   2.772   9.661  2.0205  2.3747  1.4618
43489SOL    HW237583  12.365   2.732   9.781  0.4663 -1.7591  1.3333
43490SOL     OW37584   3.797   8.044   8.568  0.5346 -0.4759 -0.1189
43490SOL    HW137585   3.857   8.071   8.637  0.6075 -0.2721 -0.2632
43490SOL    HW237586   3.798   8.115   8.505  1.6523 -1.3194 -1.0960
43491SOL     OW37587   4.702   5.720   0.074  0.4296  0.0086 -0.1515
43491SOL    HW137588   4.763   5.743   0.003  2.9065 -1.1819  1.4310
43491SOL    HW237589   4.684   5.628   0.060 -0.4071  0.1698 -0.1504
43492SOL     OW37590   2.236   7.753   5.796 -0.1318  0.3488  0.4938
43492SOL    HW137591   2.273   7.807   5.726 -0.3985  0.3630  0.3603
43492SOL    HW237592   2.146   7.783   5.804  0.1839  1.0561  1.5586
43493SOL     OW37593   9.112   7.753   1.403 -0.0744 -0.3774 -0.0715
43493SOL    HW137594   9.204   7.747   1.378  0.2757 -0.0664  1.0815
43493SOL    HW237595   9.107   7.830   1.459 -1.2683  0.2740 -1.0217
43494SOL     OW37596   3.930   2.150  11.636  0.6005 -0.1725 -0.5680
43494SOL    HW137597   3.947   2.107  11.720  0.8556 -1.8157 -1.4068
43494SOL    HW237598   3.968   2.237  11.645  0.0741 -0.0991  1.2203
43495SOL     OW37599  11.918   3.398   2.497 -0.1596  0.4311  0.2116
43495SOL    HW137600  11.861   3.467   2.530  2.5879  3.7919 -1.3750
43495SOL    HW237601  11.926   3.416   2.403  1.3166 -1.5698 -0.1191
43496SOL     OW37602  10.095   6.311   4.841 -0.7541  0.4702 -0.4651
43496SOL    HW137603  10.089   6.243   4.773 -1.8655  0.7359 -0.6454
43496SOL    HW237604  10.177   6.291   4.887 -0.7030 -0.5638 -0.9729
43497SOL     OW37605  10.889   6.990  12.791  0.1739 -0.3322  0.1329
43497SOL    HW137606  10.966   7.018  12.741 -0.9998 -1.6813 -2.6772
43497SOL    HW237607  10.917   6.910  12.835  0.1613 -1.4348 -1.7629
43498SOL     OW37608   0.818   1.594  11.187 -0.1041 -0.2804 -0.3391
43498SOL    HW137609   0.866   1.600  11.105 -0.8878 -1.7016 -0.9230
43498SOL    HW237610   0.885   1.578  11.254  0.4395 -0.0505 -0.8260
43499SOL     OW37611   4.510   8.564   2.463 -0.2707 -0.0535 -0.0332
43499SOL    HW137612   4.515   8.639   2.404 -1.2759  0.2893  0.3086
43499SOL    HW237613   4.501   8.488   2.405  0.8115  0.0646 -0.3797
43500SOL     OW37614   6.686   9.695   7.905  0.4091  0.1937 -0.0292
43500SOL    HW137615   6.600   9.698   7.948 -0.3520  0.0779 -1.4552
43500SOL    HW237616   6.672   9.744   7.823  2.0133  1.1076  0.2120
43501SOL     OW37617   8.132   0.770   3.919  0.0868 -0.1745 -0.5734
43501SOL    HW137618   8.145   0.820   3.999  2.9584  0.5732 -1.3964
43501SOL    HW237619   8.037   0.757   3.914 -0.2012 -0.3048  2.9147
43502SOL     OW37620   3.539  11.670   1.538  0.0798  0.2128  0.6159
43502SOL    HW137621   3.487  11.697   1.462 -1.7714  2.1436  2.4330
43502SOL    HW237622   3.479  11.617   1.591  0.8277  0.2179  1.4911
43503SOL     OW37623   6.970   0.937   7.710 -0.1444 -0.2443  0.0455
43503SOL    HW137624   6.942   0.935   7.618  0.2839  0.2311 -0.0979
43503SOL    HW237625   7.025   0.860   7.720  0.6549  0.2643 -0.3740
43504SOL     OW37626   8.314  12.068   8.915  0.6102  0.1906 -0.0586
43504SOL    HW137627   8.234  12.033   8.877  1.1060  0.6471 -1.5696
43504SOL    HW237628   8.360  11.992   8.951  0.7840 -0.4747 -1.6264
43505SOL     OW37629   4.339   6.373   3.350  0.5234  0.4071 -0.0146
43505SOL    HW137630   4.303   6.341   3.433  0.7476  0.7482  0.2134
43505SOL    HW237631   4.266   6.363   3.288  0.6790 -0.8305 -0.0249
43506SOL     OW37632   2.961   1.072  10.985 -0.6275  0.1982 -0.1756
43506SOL    HW137633   3.002   0.989  10.960 -0.7767 -0.7218  2.3329
43506SOL    HW237634   2.961   1.124  10.905  2.4538 -0.9603 -1.0602
43507SOL     OW37635   1.194   2.497   3.944 -0.3218 -0.1832  0.3561
43507SOL    HW137636   1.113   2.467   3.901 -0.3904  2.1076 -1.2813
43507SOL    HW237637   1.256   2.425   3.930 -1.3764 -0.9653 -0.5045
43508SOL     OW37638   9.657  11.850   7.143  0.3289 -0.1361  0.3792
43508SOL    HW137639   9.593  11.921   7.148  1.5783  1.1141 -0.5847
43508SOL    HW237640   9.713  11.863   7.220 -0.4990 -1.1935  1.1911
43509SOL     OW37641  11.852   7.949   8.963  0.2621  0.0583 -0.1018
43509SOL    HW137642  11.831   7.864   8.923  2.1537 -0.5753  0.1821
43509SOL    HW237643  11.930   7.932   9.015 -0.4499  1.5590  1.5245
43510SOL     OW37644   1.101  11.782   2.536 -0.0672 -0.1680  0.6659
43510SOL    HW137645   1.118  11.727   2.612 -0.7744 -0.4600  0.6215
43510SOL    HW237646   1.188  11.802   2.500  0.1820 -2.0303  0.1398
43511SOL     OW37647   3.582   2.902   4.876  0.3635  0.4513  0.2258
43511SOL    HW137648   3.640   2.837   4.836  0.9897  0.6975  0.7142
43511SOL    HW237649   3.624   2.923   4.959 -0.3653  0.7323  0.5330
43512SOL     OW37650  10.316  11.470  10.276 -0.1522  0.4088  0.1485
43512SOL    HW137651  10.411  11.462  10.291 -0.1430 -1.0362 -0.5025
43512SOL    HW237652  10.283  11.514  10.354  0.6990 -1.5545  1.7172
43513SOL     OW37653   5.970   7.009  10.974  0.2137 -0.4675 -0.1335
43513SOL    HW137654   5.879   7.024  11.001  0.6931 -1.6771  2.3942
43513SOL    HW237655   5.974   6.916  10.952  0.6524 -0.2178 -1.1807
43514SOL     OW37656   6.144   9.592  10.402 -0.1604 -0.0189  0.3786
43514SOL    HW137657   6.098   9.585  10.486 -0.2653 -0.2021  0.3059
43514SOL    HW237658   6.128   9.682  10.374  2.2057  0.9753  1.9092
43515SOL     OW37659   5.568   3.478   5.755 -0.2873 -1.0712 -0.6723
43515SOL    HW137660   5.548   3.433   5.673  1.9974  1.2226 -2.6471
43515SOL    HW237661   5.626   3.418   5.802  0.0721 -1.5551 -1.7167
43516SOL     OW37662  11.773   0.764   5.765 -0.2645  0.3538 -0.1102
43516SOL    HW137663  11.859   0.806   5.771  1.1583 -2.3367 -0.1249
43516SOL    HW237664  11.713   0.825   5.807  1.7302  2.0852  0.3816
43517SOL     OW37665   0.263   8.021   6.619  0.1764  0.3602 -0.7219
43517SOL    HW137666   0.187   7.965   6.632 -0.4470  1.2313 -0.5205
43517SOL    HW237667   0.238   8.078   6.546  1.7800 -1.2725 -2.6583
43518SOL     OW37668   4.819   7.676   6.802 -0.2415  0.0050  0.1659
43518SOL    HW137669   4.747   7.634   6.849  0.4293  0.9607  2.1606
43518SOL    HW237670   4.784   7.761   6.774  0.2876  0.8547  1.9119
43519SOL     OW37671   3.829  10.286   2.509 -0.0029  0.3360 -0.4468
43519SOL    HW137672   3.792  10.344   2.576 -0.5138 -0.6900  0.1884
43519SOL    HW237673   3.901  10.336   2.470  2.1453  0.0551  2.7330
43520SOL     OW37674  11.182   9.738   5.882  0.2452  0.3589  0.0833
43520SOL    HW137675  11.178   9.811   5.820 -1.4960 -0.1574 -0.4796
43520SOL    HW237676  11.163   9.660   5.829 -0.2060 -0.2227  1.0684
43521SOL     OW37677   0.834  12.771   9.336  0.0283  0.4394 -0.5668
43521SOL    HW137678   0.851  12.711   9.408 -1.0523 -0.6583 -1.1892
43521SOL    HW237679   0.816  12.855   9.378 -0.0463 -0.0580  0.4104
43522SOL     OW37680   4.493   8.609  12.626 -0.0475  0.2513 -0.8426
43522SOL    HW137681   4.486   8.532  12.569 -1.2235 -0.0969 -0.2639
43522SOL    HW237682   4.445   8.584  12.705  1.1556  0.8992  0.1238
43523SOL     OW37683   5.883   1.246   1.132  0.0974 -0.3753 -0.4788
43523SOL    HW137684   5.857   1.220   1.221  0.9380 -1.7897 -0.6329
43523SOL    HW237685   5.875   1.342   1.133 -1.2417 -0.4514  0.6851
43524SOL     OW37686   3.540   7.077   4.794  0.3674 -0.1648 -0.1708
43524SOL    HW137687   3.583   7.009   4.743  2.9394  1.3311 -0.1474
43524SOL    HW237688   3.523   7.147   4.731 -1.9179 -0.6087 -0.1236
43525SOL     OW37689   0.649  11.813  12.159 -0.2114 -0.0008  0.2249
43525SOL    HW137690   0.650  11.763  12.240 -0.1846  1.6292  1.2721
43525SOL    HW237691   0.674  11.901  12.185  0.8997  0.3178 -1.7451
43526SOL     OW37692   4.459  12.461   7.473 -0.2042  0.0257 -0.9118
43526SOL    HW137693   4.411  12.538   7.441  0.3553  0.4033 -0.8570
43526SOL    HW237694   4.393  12.410   7.520 -0.1147  1.6873  1.1704
43527SOL     OW37695   0.082   5.965   9.919  0.0602  0.1720 -0.0879
43527SOL    HW137696   0.128   5.982  10.000 -0.3962  0.6476  0.0782
43527SOL    HW237697   0.105   5.875   9.896 -1.1749 -0.6047  1.5024
43528SOL     OW37698  11.636   2.624   6.628  0.1631  0.1493  0.1295
43528SOL    HW137699  11.698   2.659   6.564  0.4566  1.8936  1.2959
43528SOL    HW237700  11.690   2.571   6.687 -0.4980 -4.1172 -2.6023
43529SOL     OW37701   6.558   0.734  11.543  0.4246  0.3581 -0.0127
43529SOL    HW137702   6.478   0.761  11.498  1.3475  0.8074 -1.4646
43529SOL    HW237703   6.540   0.750  11.635 -1.2392  0.2148 -0.2818
43530SOL     OW37704   3.985   1.503   1.833 -0.3700  0.2969  0.2255
43530SOL    HW137705   4.010   1.595   1.830 -2.0158  0.7724  0.4219
43530SOL    HW237706   3.918   1.498   1.900 -1.7903 -0.6396 -1.1829
43531SOL     OW37707   8.363   3.033   9.328  0.0884  0.1068 -0.2342
43531SOL    HW137708   8.425   3.085   9.378  0.8583 -0.7278 -0.2899
43531SOL    HW237709   8.412   3.005   9.251 -1.5637  2.8373 -2.4731
43532SOL     OW37710  12.893   0.014   6.549 -0.3228  0.7161  0.5780
43532SOL    HW137711  12.905   0.104   6.518 -1.1341  0.6648  0.0923
43532SOL    HW237712  12.869  -0.036   6.471  2.1860 -0.3854  0.4125
43533SOL     OW37713   6.977   4.548   7.023 -0.3050 -0.7094  0.3432
43533SOL    HW137714   6.892   4.560   7.065 -0.2927 -0.6979  0.3649
43533SOL    HW237715   7.040   4.554   7.094 -0.2613 -0.3607  0.2775
43534SOL     OW37716   0.440   2.345   1.467 -0.3535 -0.1091 -0.1574
43534SOL    HW137717   0.356   2.389   1.455  0.7828  1.5136 -3.1301
43534SOL    HW237718   0.452   2.294   1.386  1.3263 -0.6589  0.3945
43535SOL     OW37719   8.599  12.549   8.285  0.2415  0.3308 -0.5394
43535SOL    HW137720   8.629  12.600   8.360 -1.3245  0.7264 -0.1475
43535SOL    HW237721   8.663  12.479   8.276  0.7683  0.6221  0.7998
43536SOL     OW37722   1.163   6.396   4.296  0.2240 -0.2054  0.1905
43536SOL    HW137723   1.161   6.333   4.368 -3.1787 -1.8336 -1.1208
43536SOL    HW237724   1.131   6.478   4.334 -1.1584 -0.9489  0.6960
43537SOL     OW37725   8.359  11.315   5.979  0.1126 -0.1353  0.5082
43537SOL    HW137726   8.403  11.296   5.896  0.4736  1.1779  0.3735
43537SOL    HW237727   8.361  11.410   5.986 -1.2116 -0.1378  1.3285
43538SOL     OW37728   6.730  12.779   0.993  0.2718 -0.1430 -0.1678
43538SOL    HW137729   6.766  12.797   1.080  0.0470 -0.0226 -0.0980
43538SOL    HW237730   6.685  12.695   1.003 -0.2545  0.1505 -0.0116
43539SOL     OW37731   1.295   4.624   2.395  0.8790  0.0716  0.0074
43539SOL    HW137732   1.314   4.532   2.415 -1.8542 -0.3299  1.3244
43539SOL    HW237733   1.219   4.620   2.337  1.7126  1.5254 -1.2537
43540SOL     OW37734  12.779   7.059   3.005  0.5814 -0.1381  0.1544
43540SOL    HW137735  12.691   7.023   3.010  0.7731 -0.7408 -0.6099
43540SOL    HW237736  12.773   7.131   2.942  1.1442 -1.8566 -1.9781
43541SOL     OW37737   8.587  11.703  10.957 -0.0081  0.4913 -0.5130
43541SOL    HW137738   8.664  11.752  10.988 -0.2181  0.4302  0.1296
43541SOL    HW237739   8.572  11.735  10.868 -0.5847  2.1305  0.1398
43542SOL     OW37740   2.131  12.918   0.398  0.3573  0.3076 -0.1839
43542SOL    HW137741   2.047  12.939   0.359  0.2451  2.1442  0.9350
43542SOL    HW237742   2.194  12.972   0.351  0.7704 -0.2886 -0.3305
43543SOL     OW37743  11.625  10.442   8.542  0.0020  0.0920 -0.2051
43543SOL    HW137744  11.535  10.437   8.510  0.1674 -1.3308 -0.5029
43543SOL    HW237745  11.657  10.526   8.509 -0.8998  0.1691 -0.9343
43544SOL     OW37746   6.448   6.071  12.786 -0.1895  0.3421  0.1789
43544SOL    HW137747   6.502   6.093  12.710  1.3165 -1.3473  0.6923
43544SOL    HW237748   6.397   5.995  12.759 -0.0166  0.0384  0.6892
43545SOL     OW37749   6.674   3.246  10.264  0.0725 -0.2744  0.1072
43545SOL    HW137750   6.753   3.222  10.313  0.8202 -1.9820 -1.8202
43545SOL    HW237751   6.700   3.245  10.172 -2.2371 -1.0939 -0.6145
43546SOL     OW37752   8.659  10.469   6.484 -0.6366 -0.4243  0.4486
43546SOL    HW137753   8.726  10.447   6.549  1.3833  0.8847 -1.0358
43546SOL    HW237754   8.706  10.465   6.400 -1.9640  2.1001 -0.5324
43547SOL     OW37755   2.248  12.674   3.885 -0.0079 -0.1666 -0.2160
43547SOL    HW137756   2.296  12.651   3.965 -1.1798  1.1360  0.9049
43547SOL    HW237757   2.194  12.597   3.867 -1.4574  0.3488  1.6158
43548SOL     OW37758   3.707   4.741   5.587 -0.2001 -0.3095  0.3149
43548SOL    HW137759   3.650   4.715   5.515  0.4654  0.1140 -0.3856
43548SOL    HW237760   3.655   4.803   5.639  0.2130  1.5495 -1.3694
43549SOL     OW37761   2.799  12.403   9.057  0.0337  0.3003 -0.4692
43549SOL    HW137762   2.734  12.335   9.076 -0.2549  0.2839 -1.5048
43549SOL    HW237763   2.791  12.419   8.963  2.4218 -0.6328 -0.8868
43550SOL     OW37764   0.227  12.274   4.928  0.3433  0.1566  0.3839
43550SOL    HW137765   0.240  12.367   4.946 -0.0630  0.2402  0.2369
43550SOL    HW237766   0.134  12.259   4.943  0.5891 -0.4485  1.3930
43551SOL     OW37767   8.722   1.692   9.377 -0.8227  0.6549  0.0275
43551SOL    HW137768   8.667   1.771   9.376  0.0516  1.3780 -3.3794
43551SOL    HW237769   8.810   1.724   9.399 -0.3928  0.7484 -1.7225
43552SOL     OW37770  10.224   0.808   2.073 -0.4279  0.1933  0.3695
43552SOL    HW137771  10.318   0.789   2.072 -0.0675  1.5389  2.5849
43552SOL    HW237772  10.184   0.729   2.109 -0.1275 -0.1975 -0.1274
43553SOL     OW37773   9.108   8.982   8.355  0.1651  0.0424  0.3263
43553SOL    HW137774   9.092   8.963   8.262 -2.4878 -2.4269  1.1281
43553SOL    HW237775   9.203   8.988   8.363  0.4317  1.3454 -2.6789
43554SOL     OW37776   0.043   5.184  11.542  0.3290 -0.1782 -0.4245
43554SOL    HW137777   0.066   5.146  11.457  0.0063 -0.4834 -0.3748
43554SOL    HW237778   0.092   5.132  11.606  1.8535  1.0709 -0.5263
43555SOL     OW37779   1.500   5.257   2.016 -0.2050  0.0243 -0.0945
43555SOL    HW137780   1.585   5.233   2.053  0.3466  1.5496 -0.2707
43555SOL    HW237781   1.443   5.182   2.034  1.6628 -1.9309 -1.7760
43556SOL     OW37782   0.753  11.855   4.583  0.4362  0.1239  0.0204
43556SOL    HW137783   0.747  11.834   4.676  2.8092  0.9400  0.4303
43556SOL    HW237784   0.754  11.770   4.539  1.1013 -0.3497  0.9081
43557SOL     OW37785   8.321   7.142   4.265  0.0982 -1.0054 -0.3224
43557SOL    HW137786   8.236   7.101   4.248  0.2585 -0.2144 -3.7221
43557SOL    HW237787   8.316   7.227   4.222  1.9260 -0.0606  1.1976
43558SOL     OW37788  11.120   8.900   9.537 -0.0661  0.7683  0.2086
43558SOL    HW137789  11.074   8.976   9.503  0.3019  1.3904  1.0569
43558SOL    HW237790  11.194   8.888   9.478 -0.4900  0.6546 -0.3124
43559SOL     OW37791   7.011   5.638   3.340  0.1611 -0.3063 -0.3135
43559SOL    HW137792   7.023   5.730   3.363 -0.1537 -0.4333  0.4157
43559SOL    HW237793   6.998   5.637   3.246  0.9125  0.3192 -0.4325
43560SOL     OW37794  11.132   3.123   6.722  0.2024 -0.3075  0.3681
43560SOL    HW137795  11.038   3.121   6.740  0.1809 -1.0742  0.2133
43560SOL    HW237796  11.172   3.143   6.806 -0.1742  2.0963  0.0565
43561SOL     OW37797   8.984   3.296  10.042  0.0328  0.7348  0.2683
43561SOL    HW137798   8.893   3.269  10.048 -0.9412  3.8896  2.3154
43561SOL    HW237799   9.027   3.252  10.116 -0.4786  1.2496  0.8819
43562SOL     OW37800   4.549  11.845   0.886  0.4091  0.4351  0.0146
43562SOL    HW137801   4.467  11.893   0.896 -1.4845 -2.1744 -1.7512
43562SOL    HW237802   4.536  11.765   0.937  1.3355 -0.5709 -1.2521
43563SOL     OW37803   0.318   6.093  11.491  0.1819  0.1537 -0.3825
43563SOL    HW137804   0.223   6.105  11.497  0.3306  0.9437  1.0062
43563SOL    HW237805   0.329   6.018  11.433 -1.2107  1.1629 -2.0500
43564SOL     OW37806   6.575  12.648  12.144 -0.7094 -0.2104 -0.1811
43564SOL    HW137807   6.501  12.612  12.193 -1.1296  1.9969  0.9456
43564SOL    HW237808   6.652  12.621  12.194 -0.9959  0.2152  0.5042
43565SOL     OW37809   9.959   4.728  12.845 -0.3101  0.2866 -0.2080
43565SOL    HW137810   9.867   4.755  12.847 -0.2914  0.3873 -0.6172
43565SOL    HW237811   9.956   4.637  12.815 -0.4252 -0.4479  1.8488
43566SOL     OW37812  10.555   6.512   6.579 -0.1268 -0.3282 -0.2866
43566SOL    HW137813  10.494   6.507   6.506 -0.4789 -1.3024  0.0522
43566SOL    HW237814  10.507   6.472   6.652  1.0990 -1.6152 -0.1478
43567SOL     OW37815   3.295   6.236  10.758  0.0140 -0.3976  0.4535
43567SOL    HW137816   3.382   6.205  10.732  0.1316 -0.6383  1.1200
43567SOL    HW237817   3.292   6.221  10.853 -1.0903 -1.2300  0.3038
43568SOL     OW37818   4.558   2.596   3.369  0.5416  0.3951  0.1013
43568SOL    HW137819   4.512   2.648   3.302 -0.6217 -1.0792 -0.3252
43568SOL    HW237820   4.647   2.588   3.336  0.8225  2.2689  0.3015
43569SOL     OW37821   3.094   4.492   3.201 -0.0729 -0.2215  0.5834
43569SOL    HW137822   3.051   4.447   3.128 -0.3074  0.5501  0.2414
43569SOL    HW237823   3.058   4.580   3.200  1.7677  0.5522  0.0814
43570SOL     OW37824   6.648   6.299   6.985 -0.6126  0.0353 -0.0920
43570SOL    HW137825   6.597   6.219   6.998  0.2214 -0.4330  0.3732
43570SOL    HW237826   6.673   6.327   7.073 -1.2690  1.0656 -0.2219
43571SOL     OW37827   2.826  11.865   4.047 -0.0638 -0.3335  0.0939
43571SOL    HW137828   2.878  11.941   4.021 -1.8575  1.1291  0.5743
43571SOL    HW237829   2.756  11.901   4.101 -2.1209 -2.0703 -1.2613
43572SOL     OW37830  11.094   3.172  10.678  0.2947 -0.1207 -0.0352
43572SOL    HW137831  11.068   3.173  10.586  0.0349 -0.5024  0.0333
43572SOL    HW237832  11.108   3.265  10.700  1.1845 -0.0891 -0.6840
43573SOL     OW37833  11.661   9.313   0.606  0.0614 -0.4143  0.1672
43573SOL    HW137834  11.608   9.234   0.613 -0.3454 -0.4320 -2.2134
43573SOL    HW237835  11.610   9.372   0.551  1.7775  0.1483 -0.9416
43574SOL     OW37836   0.659   4.240   0.795 -0.0722  0.0197 -0.2124
43574SOL    HW137837   0.606   4.202   0.864 -1.1385  0.1179 -0.9568
43574SOL    HW237838   0.747   4.206   0.811 -0.6622 -1.4372  0.1173
43575SOL     OW37839   6.019  10.051   9.831 -0.6507  0.1458  0.3166
43575SOL    HW137840   6.002   9.971   9.880  1.1802  0.8803  2.2826
43575SOL    HW237841   6.100  10.086   9.868 -0.2937  1.8759 -1.8501
43576SOL     OW37842  11.895   4.417  12.641  0.0954 -0.2813 -0.0110
43576SOL    HW137843  11.978   4.447  12.678  0.4708 -1.0504 -0.1955
43576SOL    HW237844  11.911   4.412  12.547  0.3334 -1.8299  0.0748
43577SOL     OW37845   0.323   0.203   3.566 -0.7426  0.4046  0.9058
43577SOL    HW137846   0.247   0.157   3.530 -0.1770 -0.2220  0.4948
43577SOL    HW237847   0.360   0.251   3.491  0.0344 -0.3527  0.7884
43578SOL     OW37848   6.152   7.540   7.797 -0.3287  1.1456 -0.4001
43578SOL    HW137849   6.194   7.479   7.737  0.9292 -1.7280  3.0458
43578SOL    HW237850   6.216   7.610   7.809  1.6418 -0.7750  1.1652
43579SOL     OW37851  11.369  12.090  10.527  0.3986 -0.0381  0.1641
43579SOL    HW137852  11.374  12.052  10.615 -0.0145 -2.5938 -0.8223
43579SOL    HW237853  11.278  12.075  10.500  1.1412 -1.6866 -1.6343
43580SOL     OW37854   5.390   2.945  12.622  0.0861 -0.3579  0.3445
43580SOL    HW137855   5.383   2.982  12.535  2.3327 -0.0742  0.2180
43580SOL    HW237856   5.300   2.937  12.653 -0.6636  0.9839 -1.3761
43581SOL     OW37857   3.699  12.759   4.058  0.2844 -0.1915 -0.2504
43581SOL    HW137858   3.632  12.711   4.109 -0.7161  0.6559 -0.7369
43581SOL    HW237859   3.781  12.737   4.101 -0.2210 -1.8014 -0.0336
43582SOL     OW37860  12.645  12.746  12.489  0.0697  0.0002  0.1245
43582SOL    HW137861  12.651  12.823  12.545  0.2950  0.0054  0.0945
43582SOL    HW237862  12.630  12.674  12.549  0.9928 -0.0939  0.2615
43583SOL     OW37863   7.262   7.164   3.754  0.7042  0.0254 -0.1811
43583SOL    HW137864   7.213   7.084   3.774  0.0677  0.8882  2.1060
43583SOL    HW237865   7.259   7.171   3.659 -1.7916 -1.1099 -0.2712
43584SOL     OW37866  10.618   5.751   9.890 -0.3441 -0.5005  0.3441
43584SOL    HW137867  10.640   5.839   9.919 -2.0894  0.3039 -0.6260
43584SOL    HW237868  10.555   5.720   9.955 -4.0312  1.1923 -2.1156
43585SOL     OW37869   1.455   8.332   3.414 -0.5801  0.1743 -0.0072
43585SOL    HW137870   1.537   8.309   3.459 -0.3349 -1.3495 -1.1781
43585SOL    HW237871   1.430   8.416   3.453  1.3539  0.5133  0.6220
43586SOL     OW37872   4.593   2.761   4.670 -0.3186 -0.1341  0.2741
43586SOL    HW137873   4.585   2.666   4.662 -0.1204 -0.0639 -0.8792
43586SOL    HW237874   4.654   2.773   4.743  2.2237 -0.9982 -1.5603
43587SOL     OW37875  11.785  10.575   8.745 -0.3931 -0.1461 -0.8265
43587SOL    HW137876  11.707  10.611   8.786  0.8677 -0.3816  2.0033
43587SOL    HW237877  11.842  10.650   8.730  0.6941 -0.4125  1.5567
43588SOL     OW37878   6.393   2.576  11.796 -0.2099 -0.2562 -0.1363
43588SOL    HW137879   6.386   2.657  11.747 -0.2337 -0.3827 -0.3430
43588SOL    HW237880   6.448   2.519  11.741 -1.7913 -1.0798 -0.9390
43589SOL     OW37881   8.430   6.745  11.477 -0.0872 -0.9053  0.1337
43589SOL    HW137882   8.408   6.669  11.422  0.1859 -2.0405  1.5325
43589SOL    HW237883   8.511   6.779  11.439 -0.9000 -0.4638 -1.3105
43590SOL     OW37884  11.811   6.860   0.409 -0.0799 -0.7163 -0.2847
43590SOL    HW137885  11.867   6.932   0.439  1.0458 -2.3138  1.7671
43590SOL    HW237886  11.733   6.903   0.374  1.5521  1.5391 -1.4010
43591SOL     OW37887   7.023   6.740   0.396 -0.7159  0.2223 -0.0314
43591SOL    HW137888   7.028   6.771   0.306  1.0303 -2.2200 -0.8775
43591SOL    HW237889   7.113   6.717   0.419 -1.2539 -0.0834  2.0194
43592SOL     OW37890   7.290   2.661   5.462 -0.3779 -1.1010 -0.0266
43592SOL    HW137891   7.259   2.685   5.374 -0.6177 -0.1007  0.3088
43592SOL    HW237892   7.306   2.567   5.457 -0.0002 -0.9969 -1.2557
43593SOL     OW37893   7.962  10.409   5.139 -0.6044  0.3866  0.1891
43593SOL    HW137894   7.939  10.497   5.170  0.4232  0.3031  1.2160
43593SOL    HW237895   8.055  10.414   5.119 -0.2349 -0.8077  1.4990
43594SOL     OW37896   7.623   7.206  11.022 -0.4216 -0.1898  0.0649
43594SOL    HW137897   7.594   7.202  11.113  0.0682  0.8834  0.2875
43594SOL    HW237898   7.717   7.225  11.027 -0.0432 -1.6961 -0.6660
43595SOL     OW37899   8.790  12.604   7.273  0.2282  0.0740 -0.1844
43595SOL    HW137900   8.702  12.592   7.237  0.4416 -0.2243 -0.6210
43595SOL    HW237901   8.787  12.560   7.358  0.1445 -0.5220 -0.4912
43596SOL     OW37902   0.165   4.080   6.605 -0.1218  0.0129  0.0879
43596SOL    HW137903   0.121   4.137   6.668 -0.0067  1.7237 -1.3037
43596SOL    HW237904   0.230   4.032   6.657 -0.8041  0.5013  1.4443
43597SOL     OW37905   6.808   0.200   0.004 -0.1078 -0.0361 -0.1710
43597SOL    HW137906   6.748   0.253   0.056 -0.7489 -0.0577 -0.8681
43597SOL    HW237907   6.847   0.139   0.066  0.4215  1.0412  0.5983
43598SOL     OW37908  11.846   5.120   5.821  0.2877  0.3215 -0.2870
43598SOL    HW137909  11.754   5.127   5.797  0.4841 -1.5617 -1.8687
43598SOL    HW237910  11.857   5.180   5.895 -2.4595 -0.2677  0.7066
43599SOL     OW37911   4.324   9.302   3.971  0.6895  0.1452  0.1395
43599SOL    HW137912   4.324   9.394   3.996  2.7815 -0.1136  1.3044
43599SOL    HW237913   4.416   9.281   3.955  0.1688 -1.5488 -0.8854
43600SOL     OW37914   3.386  12.002   8.273 -0.3846 -0.2377 -0.4592
43600SOL    HW137915   3.306  11.949   8.268 -0.4381 -0.2230  0.1567
43600SOL    HW237916   3.456  11.939   8.288 -0.1373 -0.3487 -1.9601
43601SOL     OW37917   3.626   2.239   8.934 -0.3307  0.2274  0.0793
43601SOL    HW137918   3.580   2.241   8.850  0.8261  0.7131 -0.5589
43601SOL    HW237919   3.590   2.314   8.982  0.4971  1.2414 -0.8210
43602SOL     OW37920   4.912   4.583   2.773  0.2539  0.7141 -0.1187
43602SOL    HW137921   4.997   4.574   2.815 -0.8435  2.3388  2.7222
43602SOL    HW237922   4.932   4.621   2.687  2.4587 -0.7483 -0.3399
43603SOL     OW37923   9.448   4.376   6.229  0.4323 -0.1198 -0.5325
43603SOL    HW137924   9.371   4.423   6.261  1.2722  0.8008  0.2039
43603SOL    HW237925   9.521   4.416   6.275  1.3437 -1.0965 -1.0873
43604SOL     OW37926   3.606   0.059   1.415  0.0185  0.3252 -0.0133
43604SOL    HW137927   3.675   0.122   1.398  1.2888 -0.7898  0.7997
43604SOL    HW237928   3.538   0.108   1.460  1.4583  0.8985  1.6167
43605SOL     OW37929   0.576   1.469   7.669  0.1664  0.6469 -0.1156
43605SOL    HW137930   0.488   1.442   7.644  1.0569 -0.8568 -1.8113
43605SOL    HW237931   0.588   1.554   7.626 -0.7049  1.2292  0.7592
43606SOL     OW37932   4.992   8.549   4.535 -0.1018 -0.3878  0.1342
43606SOL    HW137933   5.047   8.627   4.531  0.7627 -0.9875 -0.1008
43606SOL    HW237934   5.020   8.504   4.615 -0.6121 -0.4352  0.2852
43607SOL     OW37935   2.123   8.221   6.800  0.0683  0.7876 -0.0340
43607SOL    HW137936   2.204   8.248   6.757  0.5316 -0.3700  0.0902
43607SOL    HW237937   2.131   8.126   6.809 -1.4387  0.6118 -0.3151
43608SOL     OW37938   6.808   1.460   3.021 -0.2286 -0.0626  0.2705
43608SOL    HW137939   6.896   1.499   3.024  0.4778 -1.6144  0.8927
43608SOL    HW237940   6.774   1.469   3.110 -0.1503 -0.6512  0.3619
43609SOL     OW37941   8.529   0.103   3.448 -0.0935  0.2196  0.4467
43609SOL    HW137942   8.521   0.012   3.475 -0.7867  0.7616  2.1720
43609SOL    HW237943   8.595   0.140   3.506 -1.3391  1.3180  1.2094
43610SOL     OW37944  11.015   9.902  12.504  0.4153  0.0734  0.4325
43610SOL    HW137945  11.070   9.905  12.426  1.4878 -0.5134  1.1437
43610SOL    HW237946  11.066   9.948  12.571 -1.1352  1.8897  0.4245
43611SOL     OW37947   1.081   4.552  11.661  0.4336 -0.7825  0.0309
43611SOL    HW137948   1.082   4.642  11.627  0.4818  0.8263  3.7716
43611SOL    HW237949   0.999   4.516  11.630 -0.1172  0.9591 -0.6698
43612SOL     OW37950   4.471   7.697   1.604  0.5952 -0.5306  0.1469
43612SOL    HW137951   4.393   7.725   1.652  0.6398  1.0786 -0.6195
43612SOL    HW237952   4.487   7.608   1.633 -0.0223 -0.0205  2.2563
43613SOL     OW37953   3.173  10.864   1.359  0.1107 -0.2511  0.1433
43613SOL    HW137954   3.079  10.880   1.349 -0.2230 -1.1904  1.4856
43613SOL    HW237955   3.180  10.770   1.373  1.0884  0.0182  1.6521
43614SOL     OW37956   0.531  12.946   6.209  0.2011  0.4124 -0.3236
43614SOL    HW137957   0.438  12.936   6.190  0.3595  1.1954 -1.5791
43614SOL    HW237958   0.533  13.001   6.288 -0.3943  0.0284 -0.0311
43615SOL     OW37959   2.091   1.276   5.437  0.1534  0.4354  0.2821
43615SOL    HW137960   2.090   1.348   5.374 -1.1504 -1.3593 -1.9129
43615SOL    HW237961   2.004   1.278   5.478 -0.5191 -0.8061 -1.0001
43616SOL     OW37962   4.147  11.195   7.052 -0.3408 -0.1729 -0.5348
43616SOL    HW137963   4.053  11.206   7.043 -0.5272 -1.6575 -0.5393
43616SOL    HW237964   4.166  11.109   7.014  1.0052  0.0610 -0.4618
43617SOL     OW37965  10.565   6.270  12.874 -0.3695  0.0496  0.6893
43617SOL    HW137966  10.530   6.195  12.922 -0.6817 -0.1866  0.0967
43617SOL    HW237967  10.502   6.285  12.803  0.8446 -0.5277 -0.5425
43618SOL     OW37968   6.508  11.908   1.132 -0.1430 -0.2860  0.0080
43618SOL    HW137969   6.514  11.877   1.042  0.5950 -2.4966  0.7381
43618SOL    HW237970   6.422  11.877   1.162 -0.3286  0.3221  0.1253
43619SOL     OW37971   6.927   6.275  12.752 -0.0503  0.0546  0.1798
43619SOL    HW137972   6.857   6.228  12.707  0.5027 -0.0490 -0.5956
43619SOL    HW237973   6.993   6.209  12.770  0.4155  0.3858 -0.2665
43620SOL     OW37974  12.184  10.490   9.044  0.1888 -0.0958 -0.0573
43620SOL    HW137975  12.184  10.500   9.139 -1.4575  1.6668 -0.1662
43620SOL    HW237976  12.274  10.466   9.022  0.7326 -0.0096  1.8874
43621SOL     OW37977   2.974  12.187   1.040  0.9680 -0.2917  0.0978
43621SOL    HW137978   3.062  12.164   1.011  0.7648 -0.9311 -0.0235
43621SOL    HW237979   2.957  12.272   1.000  1.4627 -0.2416 -0.0139
43622SOL     OW37980  12.471  12.060   4.261  0.1577  0.7769  0.3312
43622SOL    HW137981  12.432  12.088   4.179 -0.2469 -1.5859 -0.3578
43622SOL    HW237982  12.566  12.063   4.245  0.1140  1.4576  0.1965
43623SOL     OW37983   7.492   2.117   4.768  0.2367  0.3073 -0.2500
43623SOL    HW137984   7.427   2.178   4.734 -2.2018 -1.0345  1.6708
43623SOL    HW237985   7.474   2.112   4.862  0.2415 -3.3251 -0.2767
43624SOL     OW37986   3.058   0.422  12.153  0.0286  0.0855  0.0019
43624SOL    HW137987   2.964   0.437  12.142  0.2472  2.7550  1.1854
43624SOL    HW237988   3.070   0.415  12.248  1.0339 -0.4532 -0.1498
43625SOL     OW37989   3.522   7.886   8.524 -0.4105  0.2008  0.2798
43625SOL    HW137990   3.509   7.976   8.555 -0.0918  0.3697 -0.0707
43625SOL    HW237991   3.528   7.834   8.604  0.2593  0.6100  0.5004
43626SOL     OW37992   4.892   6.425   3.556 -0.0803 -0.3088  0.4349
43626SOL    HW137993   4.924   6.514   3.539  0.2374 -1.0022 -3.8926
43626SOL    HW237994   4.831   6.434   3.628  0.0251  3.4025  0.2387
43627SOL     OW37995   2.966   7.728   5.812 -0.1107 -0.0840  0.1507
43627SOL    HW137996   2.964   7.785   5.889 -1.7576  1.8612 -1.2222
43627SOL    HW237997   2.876   7.694   5.805  0.1164 -0.5354 -0.6860
43628SOL     OW37998  10.146   3.639   3.816  0.1137 -0.3260  0.0873
43628SOL    HW137999  10.094   3.575   3.767 -1.0674 -0.6907  1.7410
43628SOL    HW238000  10.136   3.721   3.768 -0.1698 -0.8849 -0.8352
43629SOL     OW38001   6.822   9.416   2.229  0.3869 -0.0109 -0.2211
43629SOL    HW138002   6.844   9.347   2.291  0.8146  2.5560  2.7487
43629SOL    HW238003   6.895   9.417   2.167  0.6414 -1.7802 -0.0045
43630SOL     OW38004   9.616   4.619  12.958  0.3248 -0.1965  0.4523
43630SOL    HW138005   9.685   4.561  12.990 -0.5598 -2.2920 -1.1795
43630SOL    HW238006   9.543   4.607  13.019  0.1219 -0.8871  0.0820
43631SOL     OW38007   4.335   8.016   2.783 -0.2819  0.6104 -0.2138
43631SOL    HW138008   4.421   8.033   2.822 -0.2163  0.7077 -0.4014
43631SOL    HW238009   4.304   8.103   2.756 -0.2504  0.5165 -0.5459
43632SOL     OW38010   7.268   7.257  12.238  0.0681  0.2539 -0.6097
43632SOL    HW138011   7.193   7.222  12.286  0.0341  2.1857  0.8876
43632SOL    HW238012   7.344   7.215  12.277 -0.1692 -1.2265 -1.6899
43633SOL     OW38013   1.590   2.372  12.302 -0.0151  0.1016 -0.4468
43633SOL    HW138014   1.507   2.370  12.350  0.6267 -0.5834  0.6953
43633SOL    HW238015   1.582   2.447  12.243 -2.2595 -1.1540 -1.8881
43634SOL     OW38016   7.362   7.833   8.269 -0.0897 -0.3749 -0.1734
43634SOL    HW138017   7.349   7.756   8.324  0.9399  0.5810  1.4611
43634SOL    HW238018   7.423   7.804   8.201 -0.9453 -1.4125 -0.5311
43635SOL     OW38019   4.052   2.073   6.677 -0.1057 -0.1015 -0.3933
43635SOL    HW138020   3.982   2.021   6.637 -1.6869  0.1241  1.8888
43635SOL    HW238021   4.007   2.131   6.738  2.0709  0.0900  1.1508
43636SOL     OW38022   9.332   8.630   9.846  0.2630  0.0298 -0.2965
43636SOL    HW138023   9.382   8.559   9.807 -1.0776 -0.5120 -1.1045
43636SOL    HW238024   9.302   8.595   9.930  1.7211  0.5842  0.4859
43637SOL     OW38025   5.121   3.709   2.213 -0.5776  0.0445  0.3300
43637SOL    HW138026   5.144   3.634   2.159  0.9410  0.3169  0.5393
43637SOL    HW238027   5.190   3.712   2.280 -1.7104  0.4508  1.5269
43638SOL     OW38028   4.074   4.565   4.661  0.0565 -0.2898  0.9310
43638SOL    HW138029   4.093   4.515   4.741  3.7185 -3.2306 -1.4116
43638SOL    HW238030   4.156   4.611   4.643 -0.6826  0.2992 -1.1197
43639SOL     OW38031   6.762   6.443   1.625  0.0945 -0.1285 -0.3349
43639SOL    HW138032   6.672   6.468   1.647  1.3843  4.0947  1.0797
43639SOL    HW238033   6.763   6.439   1.529 -1.4055  0.7522 -0.4157
43640SOL     OW38034   5.189   4.480   4.738 -0.8084 -0.1180 -0.2731
43640SOL    HW138035   5.193   4.526   4.655 -1.6499  0.1767 -0.1578
43640SOL    HW238036   5.243   4.402   4.725  0.4087  0.7446 -0.5502
43641SOL     OW38037  11.276   3.497   7.903 -0.1297  0.4351 -0.2188
43641SOL    HW138038  11.250   3.580   7.943 -1.0520 -0.3759  0.9591
43641SOL    HW238039  11.225   3.493   7.822 -2.0639 -0.0844  0.9515
43642SOL     OW38040  11.211  12.254   6.717 -0.4029 -0.2419  0.3465
43642SOL    HW138041  11.269  12.237   6.644  0.0918  0.5260  0.5422
43642SOL    HW238042  11.178  12.168   6.744 -0.5192 -0.5327 -0.7043
43643SOL     OW38043  12.916   3.788  10.483 -0.3660  0.2427 -0.0539
43643SOL    HW138044  12.900   3.748  10.569  1.6938 -0.9796 -0.1732
43643SOL    HW238045  12.891   3.721  10.420 -2.6339  1.4248 -0.5041
43644SOL     OW38046   0.142   9.688   4.838  0.1877 -0.3029  0.4255
43644SOL    HW138047   0.180   9.750   4.775  1.2099  1.5402  2.6995
43644SOL    HW238048   0.195   9.609   4.829  1.3026  0.4629  0.0212
43645SOL     OW38049   3.930  10.552   7.935 -0.0522  0.1354  0.3043
43645SOL    HW138050   3.903  10.503   8.013 -0.9039 -0.4300 -0.3198
43645SOL    HW238051   4.020  10.524   7.919 -0.0498 -0.1474  0.7807
43646SOL     OW38052   2.785   2.139   8.080  0.1998 -0.5832  0.1754
43646SOL    HW138053   2.747   2.167   8.163 -0.0194 -1.9556  0.5688
43646SOL    HW238054   2.800   2.220   8.031 -1.5538  0.1234  0.7279
43647SOL     OW38055   0.011   3.437  10.309 -0.2811 -0.4980  0.6153
43647SOL    HW138056   0.009   3.342  10.293 -1.2479 -0.2428 -0.9896
43647SOL    HW238057   0.048   3.445  10.397 -2.2313 -2.4738  1.7127
43648SOL     OW38058   8.428   5.508   7.305  0.0469  0.4149 -0.1872
43648SOL    HW138059   8.481   5.456   7.365 -0.0595  1.6803  1.0622
43648SOL    HW238060   8.491   5.546   7.243  0.3182  0.1264 -0.0896
43649SOL     OW38061   6.299   2.783   9.339  0.2336 -0.3625  0.0660
43649SOL    HW138062   6.345   2.746   9.264  1.3007 -2.7413  1.7680
43649SOL    HW238063   6.366   2.789   9.407 -1.4355 -1.9545  1.9883
43650SOL     OW38064   8.253   2.697   6.859  0.8211 -0.0788  0.3120
43650SOL    HW138065   8.305   2.635   6.808  1.1199  2.6653 -3.0753
43650SOL    HW238066   8.164   2.689   6.825 -0.0162 -1.2645  2.5980
43651SOL     OW38067   5.436   2.971   3.276  0.2521 -0.4451 -0.1612
43651SOL    HW138068   5.434   2.878   3.299 -1.3740 -0.7543 -1.4382
43651SOL    HW238069   5.374   3.012   3.337  1.5604 -0.0278  0.9395
43652SOL     OW38070   4.876  12.777   6.780  0.4944  0.4260  0.2743
43652SOL    HW138071   4.814  12.704   6.774 -0.9021  1.5418  0.2775
43652SOL    HW238072   4.937  12.752   6.848 -0.3199 -0.4920  0.6898
43653SOL     OW38073   8.793   6.177  11.068  0.3836  0.0176 -0.5173
43653SOL    HW138074   8.849   6.118  11.119 -0.3428  0.7151  1.1754
43653SOL    HW238075   8.708   6.133  11.066  0.0149  0.6911  0.1858
43654SOL     OW38076   1.795   9.126  10.575 -0.2965 -0.1759  0.0332
43654SOL    HW138077   1.846   9.070  10.635 -0.7843 -0.4433  0.2051
43654SOL    HW238078   1.714   9.144  10.623 -0.8823 -0.7480 -0.7107
43655SOL     OW38079   4.507   7.944   8.028 -0.1284 -0.4951  0.1826
43655SOL    HW138080   4.520   8.008   7.958 -0.6934  0.9767  1.3747
43655SOL    HW238081   4.455   7.875   7.987 -3.6513  2.0356 -0.0241
43656SOL     OW38082   9.868   8.397   9.103 -0.8527 -0.1142 -0.2724
43656SOL    HW138083   9.890   8.421   9.193 -1.2948  0.3770 -0.2905
43656SOL    HW238084   9.792   8.451   9.082 -0.2693  0.3698 -1.2153
43657SOL     OW38085   2.804   3.746   3.701 -0.0394  0.2915  0.4734
43657SOL    HW138086   2.775   3.762   3.612 -1.0318 -0.9794  0.5430
43657SOL    HW238087   2.852   3.663   3.697 -1.0083 -0.3426  1.2711
43658SOL     OW38088  12.040   3.752   3.521 -0.0454  0.0623  0.3201
43658SOL    HW138089  12.016   3.824   3.462 -0.2053  0.5653  0.9863
43658SOL    HW238090  12.092   3.693   3.466  0.9588  1.1851 -0.0001
43659SOL     OW38091  11.479   2.424   1.862 -0.3069 -0.1304  0.4624
43659SOL    HW138092  11.475   2.488   1.933  0.1850 -0.4746  0.8081
43659SOL    HW238093  11.486   2.476   1.782 -0.5851  0.2541  0.6859
43660SOL     OW38094   4.695   2.071   1.337  0.0899 -0.5190  0.0640
43660SOL    HW138095   4.601   2.064   1.326 -0.1022 -0.5422  1.5492
43660SOL    HW238096   4.707   2.148   1.393  0.8879 -1.0527  0.6436
43661SOL     OW38097   5.117   3.426  10.264 -0.1622 -0.6419 -0.4932
43661SOL    HW138098   5.189   3.461  10.211  1.6867 -0.0181  2.2108
43661SOL    HW238099   5.038   3.453  10.217  1.2862  2.2726 -1.5256
43662SOL     OW38100   8.809   2.448   6.951  0.1715 -0.0805 -0.4985
43662SOL    HW138101   8.839   2.505   7.022  1.9094 -1.7346  0.1904
43662SOL    HW238102   8.770   2.373   6.995  0.3635 -0.6683 -1.3081
43663SOL     OW38103   4.813   7.048   0.837 -0.0701 -0.2689  0.0388
43663SOL    HW138104   4.802   7.138   0.866  1.2994  0.1629 -0.7189
43663SOL    HW238105   4.784   6.995   0.911  0.1481  0.7913  0.8979
43664SOL     OW38106   6.476   6.855  12.638 -0.0634 -0.6462  0.3270
43664SOL    HW138107   6.461   6.944  12.606 -0.8118 -0.9250 -0.1377
43664SOL    HW238108   6.477   6.801  12.559  1.7834 -0.8872  0.4861
43665SOL     OW38109   0.202   2.600  10.260 -0.4703  0.8013  0.5098
43665SOL    HW138110   0.193   2.517  10.308 -0.8769  0.5389 -0.0144
43665SOL    HW238111   0.252   2.656  10.320 -0.9140  0.4615  1.2166
43666SOL     OW38112   3.766   7.747   2.583  0.1156 -0.4837  0.6051
43666SOL    HW138113   3.838   7.803   2.553 -0.4923 -0.5786 -1.1910
43666SOL    HW238114   3.711   7.736   2.505  0.2495 -3.6630  0.8119
43667SOL     OW38115  11.412   8.563   8.081 -0.1039  0.1057  0.0659
43667SOL    HW138116  11.502   8.550   8.051  0.0060 -0.8183  0.7525
43667SOL    HW238117  11.367   8.602   8.006  1.0139  1.1603 -0.0743
43668SOL     OW38118   1.010  10.424   7.740  0.0115  0.2929  0.1307
43668SOL    HW138119   0.981  10.513   7.760 -1.8142 -0.3412  0.5038
43668SOL    HW238120   0.940  10.368   7.774  2.1762 -1.4422  2.0158
43669SOL     OW38121   4.818  10.757  11.490 -0.6374  0.5866 -0.2204
43669SOL    HW138122   4.874  10.722  11.559 -0.2770 -1.2187 -1.3790
43669SOL    HW238123   4.870  10.826  11.449  0.3275 -0.3564 -0.5992
43670SOL     OW38124  12.654   9.234   8.581  0.1509  0.1573  0.3919
43670SOL    HW138125  12.689   9.197   8.500  0.1293  0.9550  0.0094
43670SOL    HW238126  12.570   9.272   8.556 -0.1682 -0.1833  0.9355
43671SOL     OW38127   8.587   8.417   6.739 -0.8485  0.1312  0.0855
43671SOL    HW138128   8.573   8.409   6.645 -0.0888 -0.2124 -0.0036
43671SOL    HW238129   8.657   8.482   6.747 -1.0174  0.2726  0.4193
43672SOL     OW38130   4.688   1.798  10.824  0.0582  0.3670 -0.1221
43672SOL    HW138131   4.783   1.783  10.828 -0.0447 -0.0794  1.1047
43672SOL    HW238132   4.665   1.781  10.733  0.9520 -0.8936 -0.1431
43673SOL     OW38133   0.683   3.605   3.738 -0.8656 -0.1093  0.0526
43673SOL    HW138134   0.654   3.578   3.825 -1.4233  0.6602  0.1190
43673SOL    HW238135   0.778   3.593   3.739 -1.0436 -1.7561  0.1700
43674SOL     OW38136  12.062   1.699   6.467 -0.5493 -0.1720 -0.0225
43674SOL    HW138137  11.990   1.724   6.410 -1.7654 -1.8508  0.7143
43674SOL    HW238138  12.024   1.638   6.530  1.4113 -0.7774  0.6677
43675SOL     OW38139   6.168   3.713  11.133  0.2449  0.0086 -0.2369
43675SOL    HW138140   6.189   3.622  11.112  1.6770  0.4601 -0.8766
43675SOL    HW238141   6.248   3.762  11.115 -0.4789  1.4081  0.1204
43676SOL     OW38142   1.455   7.930   5.271 -0.3956  0.6007 -0.1267
43676SOL    HW138143   1.475   7.838   5.252  0.5848  0.7380  0.1598
43676SOL    HW238144   1.371   7.927   5.317 -0.7372 -0.0816 -0.7728
43677SOL     OW38145   0.206   3.729   7.556  0.3913 -0.2733  0.2382
43677SOL    HW138146   0.220   3.753   7.464  0.4847 -2.7444 -0.4822
43677SOL    HW238147   0.295   3.716   7.591  0.3685  0.9553  0.8064
43678SOL     OW38148   7.341   6.489  11.150 -0.4310 -0.0675  0.5466
43678SOL    HW138149   7.294   6.554  11.098 -1.7826 -2.1092 -0.9172
43678SOL    HW238150   7.307   6.405  11.120  0.3422 -1.4400  3.2445
43679SOL     OW38151   6.873  11.761   6.797 -0.2155  0.2680 -0.0503
43679SOL    HW138152   6.893  11.760   6.703 -0.0266 -0.0424 -0.0077
43679SOL    HW238153   6.870  11.854   6.820 -1.6464  0.3962 -0.6600
43680SOL     OW38154   6.243   2.816   7.404  0.0760  0.1920  0.0001
43680SOL    HW138155   6.248   2.762   7.483  0.0529  1.3558  0.8130
43680SOL    HW238156   6.211   2.901   7.434  1.7588  1.2383 -0.9411
43681SOL     OW38157  11.507   7.264   9.235 -0.3519  0.2635  0.2553
43681SOL    HW138158  11.418   7.236   9.260 -0.2824  0.3647  0.6287
43681SOL    HW238159  11.496   7.306   9.150 -0.4604 -0.8801 -0.3108
43682SOL     OW38160   2.130   5.941   1.340  0.7105 -0.6743  0.3653
43682SOL    HW138161   2.156   5.896   1.420  1.2116 -2.1895 -0.5996
43682SOL    HW238162   2.212   5.965   1.298  0.5112 -1.5294 -0.5593
43683SOL     OW38163   9.292  12.145   5.754  0.1083  0.2816  0.4930
43683SOL    HW138164   9.337  12.074   5.709 -0.4510  0.7007 -0.7834
43683SOL    HW238165   9.272  12.209   5.685 -0.7880  0.9482  1.3293
43684SOL     OW38166   6.132   2.113  12.236 -0.0623 -0.4227 -0.8320
43684SOL    HW138167   6.188   2.050  12.191 -0.6314 -0.5804 -1.3454
43684SOL    HW238168   6.106   2.068  12.317  0.2757 -0.4796 -0.7550
43685SOL     OW38169   3.776   5.192   1.550  0.4183 -0.0764  0.5598
43685SOL    HW138170   3.697   5.241   1.526 -0.0686  0.1808  2.5738
43685SOL    HW238171   3.838   5.259   1.579  0.8078 -0.4288  0.5596
43686SOL     OW38172   1.811   0.961   4.015 -0.0355 -0.6638  0.2103
43686SOL    HW138173   1.725   0.954   3.972 -1.0418  0.6381  1.8685
43686SOL    HW238174   1.800   0.914   4.098  0.4643  0.4506  0.9311
43687SOL     OW38175   2.545   9.088   0.612  0.4235 -0.2276 -0.0290
43687SOL    HW138176   2.557   9.156   0.545 -0.9072  0.2504  0.1900
43687SOL    HW238177   2.496   9.019   0.567  2.1364 -1.2942 -0.3784
43688SOL     OW38178   5.438   3.150   0.346 -0.5466  0.0759 -0.2776
43688SOL    HW138179   5.425   3.197   0.264 -1.1768 -0.0711 -0.2630
43688SOL    HW238180   5.403   3.209   0.413 -0.3200  0.0592 -0.1413
43689SOL     OW38181   1.370   2.735   2.175  0.1420  0.3530  0.5848
43689SOL    HW138182   1.390   2.826   2.198 -0.9353  0.5547  0.7898
43689SOL    HW238183   1.343   2.739   2.083  1.1515  0.0606  0.2613
43690SOL     OW38184   8.168   8.617  10.770 -0.4468 -0.4222 -0.4939
43690SOL    HW138185   8.172   8.711  10.788 -2.0332 -0.7649  2.0286
43690SOL    HW238186   8.258   8.587  10.783 -0.2974  0.4569  0.6414
43691SOL     OW38187  10.040   0.652   2.602  0.3438  0.0612 -0.1906
43691SOL    HW138188  10.009   0.702   2.526 -1.4762 -0.2878  0.2791
43691SOL    HW238189   9.976   0.670   2.670  1.6124 -0.1265  1.1124
43692SOL     OW38190  12.188   7.436   3.007 -0.3672 -0.2313 -0.1137
43692SOL    HW138191  12.198   7.368   2.940 -2.7780 -0.0984 -0.7109
43692SOL    HW238192  12.163   7.389   3.086  0.8687 -0.2424  0.2966
43693SOL     OW38193   5.068   5.777  12.177  0.0296  0.1060 -0.2342
43693SOL    HW138194   5.069   5.851  12.238 -0.1684  0.5235 -0.7330
43693SOL    HW238195   5.012   5.712  12.219 -2.4956  1.5132 -1.2551
43694SOL     OW38196  10.106   8.500  12.547  0.1492  0.5957  1.2670
43694SOL    HW138197  10.173   8.568  12.557 -0.2696  1.1905  0.0781
43694SOL    HW238198  10.024   8.547  12.540 -0.1572 -0.0275  0.4854
43695SOL     OW38199  11.978   2.903   1.085 -0.4920 -0.1903  1.0119
43695SOL    HW138200  12.050   2.857   1.044 -1.7026  0.9750 -2.8215
43695SOL    HW238201  11.954   2.849   1.160  1.9761 -2.5025  0.2623
43696SOL     OW38202   1.661   2.704   4.774  0.3711 -0.3427  0.0172
43696SOL    HW138203   1.581   2.690   4.825  0.6660 -1.9093  0.0834
43696SOL    HW238204   1.712   2.624   4.786  1.7668  0.4509 -0.3768
43697SOL     OW38205   8.226   9.972   3.082 -0.0501 -0.1071  0.4807
43697SOL    HW138206   8.263  10.030   3.148  1.1578  0.3377 -0.5484
43697SOL    HW238207   8.158   9.923   3.128  0.3558  0.6087  1.8888
43698SOL     OW38208   8.366  12.424  12.292 -0.3999 -0.6060  0.3533
43698SOL    HW138209   8.418  12.350  12.262 -0.0319  0.1056 -0.8262
43698SOL    HW238210   8.406  12.500  12.249  0.3880  0.5449  2.9646
43699SOL     OW38211  11.829  10.729   3.127  0.4270 -0.0307  0.0872
43699SOL    HW138212  11.733  10.725   3.117  0.1300  1.0146  1.9460
43699SOL    HW238213  11.842  10.793   3.197  2.4721 -0.6011  0.2725
43700SOL     OW38214   6.521  11.925   6.250 -0.1530 -0.1106  0.7773
43700SOL    HW138215   6.571  11.994   6.208  0.2744 -0.5697  0.5119
43700SOL    HW238216   6.494  11.868   6.178 -1.1465  0.1833  0.9074
43701SOL     OW38217   8.582  10.160   0.891  0.0793 -0.5182 -0.2358
43701SOL    HW138218   8.498  10.205   0.901  0.0487 -0.6516  0.1234
43701SOL    HW238219   8.567  10.072   0.925  0.0204 -0.9440 -1.3284
43702SOL     OW38220   9.550   1.368   6.054  0.2795  0.1989  0.3918
43702SOL    HW138221   9.556   1.373   5.959 -0.6122  0.2545  0.3228
43702SOL    HW238222   9.509   1.450   6.080 -0.7758 -0.3881  0.6735
43703SOL     OW38223   0.882  11.070   9.920 -0.4937  0.5417  0.3423
43703SOL    HW138224   0.791  11.078   9.946 -0.5887 -0.1754  0.2477
43703SOL    HW238225   0.883  11.003   9.852  0.3015 -0.7604  1.5597
43704SOL     OW38226  11.855   5.883   1.811  0.4201  0.3437 -0.4158
43704SOL    HW138227  11.812   5.916   1.733  0.7638  1.2553 -0.2300
43704SOL    HW238228  11.944   5.918   1.806  0.0710  1.5355  1.0497
43705SOL     OW38229  10.951   8.576   9.336 -0.3908  0.0317  0.5534
43705SOL    HW138230  10.861   8.554   9.316 -0.0908  0.0880 -0.9210
43705SOL    HW238231  10.986   8.498   9.379 -1.1201  0.0019  1.1022
43706SOL     OW38232   6.033   7.350   3.017  0.0796  0.3958 -0.5187
43706SOL    HW138233   5.971   7.355   3.090  0.6239 -1.8970  0.1937
43706SOL    HW238234   6.119   7.342   3.059  0.4150 -0.8100 -1.3783
43707SOL     OW38235   2.796   4.139   8.200 -0.2070 -0.4431  0.5673
43707SOL    HW138236   2.786   4.051   8.237  0.0089 -0.9900 -0.5995
43707SOL    HW238237   2.870   4.130   8.140 -0.5072  0.4090  0.0621
43708SOL     OW38238   0.635   5.526   7.421  0.0974 -0.2663  0.0001
43708SOL    HW138239   0.697   5.456   7.442 -0.7923 -0.9658  0.3432
43708SOL    HW238240   0.681   5.606   7.445  0.9262 -0.7644  0.1129
43709SOL     OW38241  10.200   9.456   5.984 -0.0586  0.2325 -0.4632
43709SOL    HW138242  10.230   9.479   5.896  0.9906 -1.3956 -0.5730
43709SOL    HW238243  10.125   9.514   6.000  1.2468  2.3242 -1.4130
43710SOL     OW38244   5.978   1.621   9.824 -0.4530  0.0304  0.0430
43710SOL    HW138245   5.884   1.621   9.841  0.0225  0.8454  3.2993
43710SOL    HW238246   6.011   1.543   9.870  0.9890  2.4117  3.4235
43711SOL     OW38247   5.530   8.100   1.539  0.3500  0.0993 -0.1951
43711SOL    HW138248   5.591   8.165   1.503  0.3149  0.5897  0.6078
43711SOL    HW238249   5.542   8.023   1.483  2.9238 -0.4257  0.8947
43712SOL     OW38250  11.460   8.854  11.210  0.1368 -0.4392  0.0545
43712SOL    HW138251  11.495   8.790  11.272  2.1017  1.5370  1.0966
43712SOL    HW238252  11.480   8.939  11.248  0.5756  0.8803 -2.8410
43713SOL     OW38253  12.031  10.955   5.704 -0.2752 -0.2098 -0.1261
43713SOL    HW138254  12.108  11.009   5.726  0.7664 -0.6595 -2.3671
43713SOL    HW238255  11.987  11.004   5.635 -1.2077 -0.6599  0.1432
43714SOL     OW38256   1.535   7.947   0.752 -0.0962  0.0457 -0.0618
43714SOL    HW138257   1.440   7.945   0.748 -0.0469 -1.1369 -2.1843
43714SOL    HW238258   1.560   7.860   0.782  0.3324  0.7507  1.7411
43715SOL     OW38259   4.015  12.953   8.002  0.1097 -0.3061 -0.0806
43715SOL    HW138260   4.002  13.034   8.049 -1.2825  0.1574 -1.1651
43715SOL    HW238261   4.108  12.935   8.009 -0.0857 -0.5864  3.2620
43716SOL     OW38262   6.276   9.369   4.632 -0.1863  0.1594  0.3344
43716SOL    HW138263   6.365   9.338   4.648 -0.1862  0.3625  0.7391
43716SOL    HW238264   6.276   9.397   4.541 -0.0487 -0.5578  0.1084
43717SOL     OW38265   7.518   3.536   6.568  0.2787 -0.3585 -0.9511
43717SOL    HW138266   7.577   3.611   6.562  0.5052 -0.5594 -1.2717
43717SOL    HW238267   7.561   3.477   6.630 -0.7902  0.5685  0.7563
43718SOL     OW38268   9.113  12.371   7.382 -0.0506 -0.0436  0.5475
43718SOL    HW138269   9.095  12.387   7.475  0.7233  0.9354  0.5367
43718SOL    HW238270   9.178  12.436   7.358  0.2899 -0.7469 -0.5137
43719SOL     OW38271   0.660   7.180  10.448 -0.5054  0.0600 -0.3782
43719SOL    HW138272   0.604   7.232  10.391  2.1948  1.2046 -2.1538
43719SOL    HW238273   0.744   7.225  10.448  0.5954 -1.7628  1.8686
43720SOL     OW38274   6.051  12.151   5.668 -0.1791 -0.1870 -0.1084
43720SOL    HW138275   5.991  12.220   5.639  2.0403  1.3825 -1.2448
43720SOL    HW238276   5.993  12.081   5.697 -2.6090  0.4439 -2.8755
43721SOL     OW38277   0.197   0.890   9.205 -0.2425 -0.0120 -0.3712
43721SOL    HW138278   0.175   0.975   9.243 -1.4387  0.0517 -1.1472
43721SOL    HW238279   0.171   0.826   9.272 -0.6133  0.1706 -0.3420
43722SOL     OW38280   9.145  10.764   5.618  0.4170 -0.6745 -0.0706
43722SOL    HW138281   9.058  10.739   5.649 -0.4298  2.9299  0.8967
43722SOL    HW238282   9.191  10.796   5.696  1.5033  0.2463 -1.0387
43723SOL     OW38283   9.447  12.106   8.845  0.8286  0.0157  0.3835
43723SOL    HW138284   9.517  12.168   8.825  0.0002  0.5484 -0.9594
43723SOL    HW238285   9.383  12.156   8.895  0.5545  0.0344  0.0212
43724SOL     OW38286   7.343   8.464   4.128 -0.2486 -0.2392 -0.0574
43724SOL    HW138287   7.300   8.380   4.142  0.5781 -0.3269  2.1779
43724SOL    HW238288   7.275   8.529   4.147 -0.1123 -0.3952  0.9908
43725SOL     OW38289  10.904   2.057   4.348  0.1777  0.5888  0.5788
43725SOL    HW138290  10.976   2.069   4.410 -0.1342 -1.2596  1.3808
43725SOL    HW238291  10.875   1.966   4.362  0.5421 -0.1862 -2.7409
43726SOL     OW38292  12.321   3.142   1.593  0.1610 -0.4236  0.3555
43726SOL    HW138293  12.409   3.168   1.567 -0.1757 -0.1500 -0.5239
43726SOL    HW238294  12.276   3.225   1.611 -0.8453 -0.3283 -2.2302
43727SOL     OW38295  12.667   0.921   3.685  0.2432 -0.4226 -0.3571
43727SOL    HW138296  12.728   0.987   3.652  0.0546 -0.1055 -0.0817
43727SOL    HW238297  12.581   0.959   3.670  0.0075 -1.5851 -2.2958
43728SOL     OW38298   7.018   6.646   8.167 -0.4885  0.4474  0.2070
43728SOL    HW138299   6.997   6.554   8.158 -0.4256  0.5413 -1.1506
43728SOL    HW238300   6.948   6.692   8.119 -0.3164  1.0786  0.5431
43729SOL     OW38301   5.101  10.174  10.573  0.4335  0.1854  0.0452
43729SOL    HW138302   5.046  10.252  10.581  0.5948  0.4924 -1.5043
43729SOL    HW238303   5.159  10.178  10.648  1.0091  2.0469 -0.4548
43730SOL     OW38304   4.208  12.177   2.302 -0.2291 -0.2679  0.6567
43730SOL    HW138305   4.264  12.101   2.285 -1.3919 -0.8208 -0.9237
43730SOL    HW238306   4.269  12.251   2.307  0.7888 -1.0973  0.8052
43731SOL     OW38307  10.285   5.152  10.477 -0.2744  0.1989 -0.7569
43731SOL    HW138308  10.374   5.186  10.482 -0.0238 -0.2735 -1.8240
43731SOL    HW238309  10.295   5.057  10.476 -0.7237  0.1480 -1.7426
43732SOL     OW38310  12.518   4.600   9.243  0.9926 -0.0322 -0.7411
43732SOL    HW138311  12.596   4.624   9.292  1.3565 -0.7966 -0.9408
43732SOL    HW238312  12.498   4.511   9.271 -0.1660  0.3645 -0.2395
43733SOL     OW38313  12.801   0.350   3.849  0.1011 -0.1261 -0.3489
43733SOL    HW138314  12.855   0.328   3.773 -1.6362 -1.3065 -1.2818
43733SOL    HW238315  12.765   0.267   3.879  0.6930  0.3203  1.7687
43734SOL     OW38316  11.668   4.784   4.977 -0.4931 -0.2740  0.0398
43734SOL    HW138317  11.744   4.768   5.033 -1.4085  0.5621  1.5793
43734SOL    HW238318  11.631   4.866   5.009 -2.8468 -1.3378  0.2532
43735SOL     OW38319   1.565   7.068   8.864  0.0332  0.2998  0.4282
43735SOL    HW138320   1.477   7.074   8.900 -0.4790 -2.6150 -0.0846
43735SOL    HW238321   1.615   7.137   8.908 -1.8971  0.4202  2.5450
43736SOL     OW38322   4.262   3.835   6.877 -0.2745  0.2066 -0.2535
43736SOL    HW138323   4.220   3.903   6.825 -0.0622  0.5939  0.0718
43736SOL    HW238324   4.212   3.833   6.959  0.2667  0.6127  0.1038
43737SOL     OW38325   2.274   6.655   3.204 -0.3505 -0.2497  0.2994
43737SOL    HW138326   2.355   6.609   3.227 -0.3475  0.0647  0.9521
43737SOL    HW238327   2.246   6.615   3.122  0.4655 -0.3642  0.0645
43738SOL     OW38328   0.909  10.259   1.008 -0.9535  0.1567 -0.6237
43738SOL    HW138329   0.865  10.213   0.938 -2.5780 -3.0792  2.2648
43738SOL    HW238330   0.839  10.300   1.059 -0.0783  0.3282  0.4970
43739SOL     OW38331   8.253   3.234   4.358 -0.1862 -0.0588  0.2223
43739SOL    HW138332   8.214   3.305   4.306 -2.0339 -1.4262 -0.3965
43739SOL    HW238333   8.235   3.155   4.306  0.9940 -1.0826  1.3226
43740SOL     OW38334  12.774   9.723   4.652 -0.3905 -0.0885 -0.4309
43740SOL    HW138335  12.690   9.765   4.630 -0.2431 -1.0354 -3.2137
43740SOL    HW238336  12.832   9.796   4.673 -1.3667  0.7369 -0.5138
43741SOL     OW38337  12.818  12.360   7.372  0.5052 -0.0007  0.5280
43741SOL    HW138338  12.727  12.356   7.341  0.3356 -1.2915  1.1509
43741SOL    HW238339  12.863  12.413   7.306 -0.6652  0.5586  0.1430
43742SOL     OW38340  12.667   5.462   7.363  0.3222 -0.0111  0.4850
43742SOL    HW138341  12.571   5.469   7.367  0.0185 -2.7243  0.2659
43742SOL    HW238342  12.691   5.505   7.281 -0.7397  0.5616  0.4597
43743SOL     OW38343   0.843   1.022   8.450  0.3150  0.1031  0.4197
43743SOL    HW138344   0.798   0.966   8.388 -0.5367  0.1170  1.0164
43743SOL    HW238345   0.897   0.963   8.503 -1.5242 -0.3584  1.8754
43744SOL     OW38346   7.725   6.458   8.274 -0.2871  0.2335  0.0713
43744SOL    HW138347   7.638   6.482   8.306 -0.7280  0.6552 -1.3497
43744SOL    HW238348   7.785   6.514   8.322 -1.1215  2.7240 -1.5867
43745SOL     OW38349   0.161   4.222   7.132 -0.5633 -0.0105 -0.0052
43745SOL    HW138350   0.077   4.232   7.177 -1.1088 -3.8302  0.1464
43745SOL    HW238351   0.225   4.251   7.197 -1.5203 -2.7061  2.4005
43746SOL     OW38352   9.613   3.479   7.474 -0.3396  0.1711  0.4845
43746SOL    HW138353   9.656   3.404   7.432 -0.5308  0.7737 -0.8346
43746SOL    HW238354   9.600   3.451   7.565  1.5044 -0.5833  0.5637
43747SOL     OW38355   2.037   1.037   0.541 -0.0019  0.4214  0.3302
43747SOL    HW138356   1.971   0.969   0.526 -0.3877  0.8930 -0.1365
43747SOL    HW238357   1.993   1.101   0.599  0.5778 -0.0409  1.3071
43748SOL     OW38358   2.223  12.436   1.000 -0.2514  0.2497  0.0969
43748SOL    HW138359   2.225  12.376   0.925 -1.5918  0.5294 -0.2035
43748SOL    HW238360   2.140  12.415   1.044  1.3435 -1.1887  2.5995
43749SOL     OW38361   1.756  10.127  10.690 -0.7279  0.0743 -0.3654
43749SOL    HW138362   1.757  10.112  10.595 -0.4973 -2.1246 -0.0710
43749SOL    HW238363   1.848  10.136  10.714 -0.6251 -1.5094 -0.0907
43750SOL     OW38364   1.170  11.340   6.017  0.1736  0.3902 -0.1606
43750SOL    HW138365   1.129  11.293   5.944 -1.2642  0.2113  0.7177
43750SOL    HW238366   1.117  11.315   6.094  0.8028  1.6476  0.7085
43751SOL     OW38367   0.621   1.963   3.345  0.2887  0.0936 -0.6821
43751SOL    HW138368   0.686   2.023   3.382  1.1759 -1.0956 -0.2669
43751SOL    HW238369   0.554   2.021   3.308  0.7790  1.3382  0.2907
43752SOL     OW38370   9.481   4.512   1.952  0.3347  0.7809  0.2225
43752SOL    HW138371   9.481   4.519   2.048  2.2400  0.3123  0.2834
43752SOL    HW238372   9.550   4.449   1.933 -0.4499  0.3802 -1.4548
43753SOL     OW38373  12.379   8.189   8.552 -0.2783  0.3591  0.3244
43753SOL    HW138374  12.308   8.190   8.615  0.1792  0.2055  0.8546
43753SOL    HW238375  12.459   8.189   8.605  0.1161 -0.0444 -0.2413
43754SOL     OW38376   7.096   6.606   2.998 -0.5838 -0.3733 -0.3446
43754SOL    HW138377   7.019   6.616   2.942 -1.8523 -2.8651  0.7915
43754SOL    HW238378   7.063   6.615   3.087  0.6762 -0.2600  0.1385
43755SOL     OW38379   9.534   3.393   7.737  0.1632 -0.3092 -0.6484
43755SOL    HW138380   9.496   3.463   7.789  3.3160 -0.0668  1.6253
43755SOL    HW238381   9.498   3.313   7.774 -1.6745 -0.0428 -1.7358
43756SOL     OW38382   3.852   3.517   9.217  0.2717  0.1475  0.0510
43756SOL    HW138383   3.865   3.587   9.152 -0.4319  0.2402  0.0052
43756SOL    HW238384   3.924   3.457   9.201  0.8330  0.8107  0.0229
43757SOL     OW38385   0.032  10.057  10.839  0.0576 -0.2280  0.4022
43757SOL    HW138386  -0.010  10.029  10.758  0.3812 -0.0325  0.1647
43757SOL    HW238387   0.065   9.976  10.878  2.1552 -0.0948 -0.9422
43758SOL     OW38388   6.992   4.906   2.114  0.6642 -0.1554 -0.3236
43758SOL    HW138389   7.065   4.905   2.176  0.9408  0.1908 -0.6383
43758SOL    HW238390   7.022   4.963   2.043 -1.0673  2.6224  0.9803
43759SOL     OW38391  11.718   1.311   9.124 -0.1955 -0.6866  0.4736
43759SOL    HW138392  11.690   1.340   9.211  0.9503 -1.0964  0.9934
43759SOL    HW238393  11.640   1.322   9.069 -0.6481  0.5381  1.3170
43760SOL     OW38394   7.062   0.194   4.146  0.3737  0.2372  0.1530
43760SOL    HW138395   7.046   0.112   4.192  1.5329 -0.0019  0.1463
43760SOL    HW238396   7.053   0.261   4.214 -0.8054  0.1385  0.1098
43761SOL     OW38397   4.342  10.920   6.667  0.1980  0.5610  0.1956
43761SOL    HW138398   4.418  10.948   6.617  0.6101  0.4171  0.7306
43761SOL    HW238399   4.267  10.942   6.612  0.5810  1.5230  0.0438
43762SOL     OW38400   1.392   6.883   7.654 -0.4228  0.2321 -0.1186
43762SOL    HW138401   1.359   6.794   7.671  0.5295  0.1880  1.6990
43762SOL    HW238402   1.354   6.936   7.724  0.1067  0.9881 -0.3941
43763SOL     OW38403   3.630   4.024   3.132 -0.0214  0.1457 -0.2167
43763SOL    HW138404   3.725   4.024   3.124 -0.1345  1.6089 -2.5694
43763SOL    HW238405   3.609   4.110   3.169 -0.4165 -0.8017  1.9323
43764SOL     OW38406   5.993   3.494   3.261  0.1261 -0.3573  0.2226
43764SOL    HW138407   5.919   3.454   3.216  1.5617 -2.7259 -0.1657
43764SOL    HW238408   5.955   3.570   3.306 -2.1562 -0.4161 -1.4355
43765SOL     OW38409   7.991   4.621   4.527  0.4648 -0.4315  0.5818
43765SOL    HW138410   8.051   4.576   4.468  0.6756  0.2973  0.2343
43765SOL    HW238411   8.017   4.713   4.523 -1.9647  0.2625 -1.1415
43766SOL     OW38412   3.301   1.463  12.870  0.1610  0.0479  0.5083
43766SOL    HW138413   3.253   1.540  12.839  1.1368 -0.1387 -1.6644
43766SOL    HW238414   3.236   1.411  12.917 -0.5844  2.0328  1.7438
43767SOL     OW38415   7.934   4.470   5.643  0.4592  0.2434 -0.0280
43767SOL    HW138416   7.890   4.548   5.608  0.0296 -0.2198 -0.5402
43767SOL    HW238417   7.863   4.412   5.669  0.7689 -0.2180 -0.1940
43768SOL     OW38418   3.012   9.099   5.964  0.2227 -0.0389 -0.4692
43768SOL    HW138419   3.041   9.190   5.977  0.8300 -0.4232  1.0468
43768SOL    HW238420   3.063   9.069   5.889 -0.8391  1.2038 -1.7595
43769SOL     OW38421  11.971  11.306   5.295  0.2491 -0.1042  0.1369
43769SOL    HW138422  11.976  11.227   5.241  0.1486 -1.3988  1.9309
43769SOL    HW238423  12.040  11.363   5.260 -1.0625 -0.0136 -2.5875
43770SOL     OW38424   4.094   3.990   3.739  0.0572  0.3613 -0.1618
43770SOL    HW138425   4.027   3.943   3.788  0.9371 -1.8754 -0.9550
43770SOL    HW238426   4.170   3.992   3.799  1.2423 -2.6686 -1.4037
43771SOL     OW38427   3.544   3.184   9.262 -0.0262 -0.7262  0.2924
43771SOL    HW138428   3.563   3.277   9.276 -0.3790 -0.7182  0.7058
43771SOL    HW238429   3.621   3.139   9.296  0.5639 -0.5502 -0.7482
43772SOL     OW38430   7.603   8.724   7.426 -0.2814 -0.2472 -0.2622
43772SOL    HW138431   7.682   8.682   7.392 -1.2062 -1.7347 -0.6795
43772SOL    HW238432   7.635   8.801   7.473  1.2461  0.6003 -2.5149
43773SOL     OW38433   6.171   1.422   5.413  0.0867 -0.2191 -0.4625
43773SOL    HW138434   6.115   1.352   5.448 -0.3242  0.1497 -0.3702
43773SOL    HW238435   6.111   1.495   5.400  0.6904  0.4532  0.4047
43774SOL     OW38436   0.079   1.199   0.236  0.5893 -0.0335 -0.1872
43774SOL    HW138437  -0.001   1.205   0.184  1.3776  1.6662 -1.2807
43774SOL    HW238438   0.052   1.153   0.316 -1.5762  0.8667 -0.3314
43775SOL     OW38439   7.745   9.161   7.067  0.2416 -0.0382 -0.3168
43775SOL    HW138440   7.712   9.137   6.980 -1.3546  2.2434 -0.4353
43775SOL    HW238441   7.839   9.178   7.053  0.4261 -1.5514 -1.1337
43776SOL     OW38442   9.020  10.714   3.954  0.4644  0.0357 -0.5574
43776SOL    HW138443   9.093  10.690   4.012 -0.6630 -0.9463  0.5055
43776SOL    HW238444   9.000  10.804   3.976  0.2759 -0.2213  0.3503
43777SOL     OW38445   3.431   4.870   2.939  0.1645  0.1579  0.2709
43777SOL    HW138446   3.384   4.797   2.898  1.1169 -0.9657  1.1126
43777SOL    HW238447   3.422   4.854   3.033  1.3329  0.5073  0.4517
43778SOL     OW38448   8.691   2.949   5.953 -0.5431 -0.8706  0.0117
43778SOL    HW138449   8.608   2.905   5.935 -1.1779  0.5450 -0.6235
43778SOL    HW238450   8.744   2.933   5.875  0.1206 -2.4554  0.7418
43779SOL     OW38451   9.305   7.353  10.911  0.1434  1.1112 -0.1268
43779SOL    HW138452   9.299   7.447  10.894  2.4469  1.4316  0.3715
43779SOL    HW238453   9.326   7.347  11.005 -1.0759  0.0193  0.1021
43780SOL     OW38454  11.267  12.436  10.643 -0.6488  1.0507  0.1089
43780SOL    HW138455  11.320  12.511  10.619 -0.5099  1.2278  0.9472
43780SOL    HW238456  11.249  12.392  10.559 -0.1454  1.6144 -0.3070
43781SOL     OW38457   3.263   3.616  11.310  0.5615 -0.0892  0.0708
43781SOL    HW138458   3.218   3.608  11.394  1.5233  0.9759  0.7087
43781SOL    HW238459   3.198   3.588  11.246 -0.1321 -1.1098  1.1676
43782SOL     OW38460   9.927   5.091  12.249  0.1106  0.7498  0.1873
43782SOL    HW138461   9.999   5.051  12.296  0.8961  1.2040 -0.5832
43782SOL    HW238462   9.869   5.126  12.317  0.6775  0.4877  0.8109
43783SOL     OW38463   3.330   2.421   5.864  0.2441 -0.0374 -0.0500
43783SOL    HW138464   3.412   2.467   5.846 -0.5716  1.3065 -0.4921
43783SOL    HW238465   3.296   2.463   5.942 -1.2240  1.1741 -1.2734
43784SOL     OW38466   6.947   8.253   1.402 -0.1681  0.3573 -0.5544
43784SOL    HW138467   6.870   8.283   1.451 -0.2046  1.2366 -1.1359
43784SOL    HW238468   7.018   8.256   1.466 -0.3750  0.7225 -0.3366
43785SOL     OW38469   7.802   0.502   4.023 -0.0359 -0.1791  0.2641
43785SOL    HW138470   7.897   0.496   4.031  0.0279  0.1084 -0.2682
43785SOL    HW238471   7.781   0.453   3.943 -0.3925 -0.6761  0.6487
43786SOL     OW38472   1.120   9.898   6.570 -0.4897  0.5240  0.0434
43786SOL    HW138473   1.066   9.907   6.649 -0.5595 -1.8527  0.3347
43786SOL    HW238474   1.069   9.842   6.512  0.8752 -0.2908 -0.4114
43787SOL     OW38475   5.418  11.458   5.585  0.2379 -0.5788  0.0931
43787SOL    HW138476   5.482  11.432   5.651  0.9992 -0.2938 -0.5213
43787SOL    HW238477   5.441  11.549   5.563 -0.3822 -0.4701 -0.1213
43788SOL     OW38478  10.226   5.557   7.195  0.1190  0.5754 -0.0850
43788SOL    HW138479  10.276   5.482   7.165  1.6377  1.4990  0.0021
43788SOL    HW238480  10.235   5.555   7.290 -2.2376 -0.7012  0.1716
43789SOL     OW38481   0.612  12.122   3.757  0.3168 -0.3383  0.0276
43789SOL    HW138482   0.687  12.162   3.713  0.0342 -1.6973 -1.7436
43789SOL    HW238483   0.539  12.182   3.739  0.5143 -0.1161 -0.0447
43790SOL     OW38484   6.687   7.623   3.824  0.1980  0.6786 -0.5596
43790SOL    HW138485   6.593   7.621   3.842  0.4591  0.6257  0.8712
43790SOL    HW238486   6.701   7.552   3.761 -0.7857  1.0196 -1.1863
43791SOL     OW38487   8.512   8.307  10.038 -0.2109  0.0823  0.2572
43791SOL    HW138488   8.505   8.271  10.126 -0.1290 -1.2387 -0.2456
43791SOL    HW238489   8.434   8.275   9.993  0.7275 -0.9417 -0.6958
43792SOL     OW38490   6.086  12.646  11.240 -0.6152  0.3737  0.2931
43792SOL    HW138491   6.160  12.593  11.211 -0.5590  2.5190 -4.2824
43792SOL    HW238492   6.009  12.589  11.229 -0.0698 -0.7516  1.8605
43793SOL     OW38493   7.574   2.464   9.112  0.0979  0.1618 -0.8231
43793SOL    HW138494   7.486   2.501   9.108  0.0628  0.7401  2.5199
43793SOL    HW238495   7.622   2.508   9.042 -1.4524  2.2131 -0.6778
43794SOL     OW38496  11.304   9.083  10.156  0.2930 -0.4527  0.0306
43794SOL    HW138497  11.398   9.090  10.167  0.2905 -2.1043  1.6948
43794SOL    HW238498  11.268   9.158  10.204  0.7244 -0.3315  0.1640
43795SOL     OW38499   9.846   9.139   5.834  0.6590  0.3137 -0.1463
43795SOL    HW138500   9.819   9.222   5.873  0.0155 -0.5581  1.3719
43795SOL    HW238501   9.913   9.105   5.894  0.3785 -0.5971 -0.3342
43796SOL     OW38502   6.008  12.534   1.828  0.2885  0.1860 -0.4908
43796SOL    HW138503   5.926  12.494   1.801  0.1801  0.2674 -0.2796
43796SOL    HW238504   5.994  12.561   1.919  0.2171  1.0797 -0.7579
43797SOL     OW38505   0.888   5.113   1.501 -0.6997 -0.1594  0.3730
43797SOL    HW138506   0.974   5.155   1.495  0.4686 -2.2487  1.1663
43797SOL    HW238507   0.900   5.044   1.567 -2.6601 -1.2884 -0.3691
43798SOL     OW38508   1.691   7.394   4.996  0.6615  0.5327  0.0780
43798SOL    HW138509   1.643   7.353   5.067 -2.8796  3.2156 -0.4809
43798SOL    HW238510   1.745   7.460   5.039  2.3242 -1.0331  0.5281
43799SOL     OW38511   4.200   7.815   5.704  0.0702  0.0005 -0.4966
43799SOL    HW138512   4.258   7.779   5.771  0.6772  0.6157 -0.6755
43799SOL    HW238513   4.112   7.809   5.741  0.2664 -0.7972 -0.1535
43800SOL     OW38514   6.829   4.228   8.905 -0.1236  0.4255 -0.0579
43800SOL    HW138515   6.796   4.284   8.976  1.3015 -0.9571  1.7636
43800SOL    HW238516   6.896   4.173   8.946 -0.5721 -1.7598 -2.0551
43801SOL     OW38517   4.276  11.885   0.601  0.4900  0.1727 -0.1794
43801SOL    HW138518   4.280  11.918   0.690  2.8400  0.4279 -0.3085
43801SOL    HW238519   4.192  11.841   0.595  0.9308 -1.2969  2.6737
43802SOL     OW38520   0.045   4.887   9.407 -0.2862 -0.2880  0.3854
43802SOL    HW138521   0.012   4.848   9.326  0.1929 -0.8992  0.4746
43802SOL    HW238522  -0.027   4.941   9.439 -0.7598 -0.6498 -0.0467
43803SOL     OW38523   0.400  11.940   2.826 -0.2485  0.1294  0.6027
43803SOL    HW138524   0.485  11.979   2.846 -0.4443  0.2474  1.2161
43803SOL    HW238525   0.410  11.847   2.848  0.2397 -0.2101 -0.9242
43804SOL     OW38526   5.318   2.026   3.211  0.5659  0.0982  0.1654
43804SOL    HW138527   5.361   2.111   3.212  0.8814 -0.0563  0.1170
43804SOL    HW238528   5.247   2.034   3.274  0.8690  0.2613  0.4916
43805SOL     OW38529   6.824   0.786   2.905 -0.4957  0.8025 -0.1884
43805SOL    HW138530   6.903   0.746   2.942 -1.8018 -0.9437  0.9152
43805SOL    HW238531   6.801   0.730   2.832 -1.1642  0.8030  0.0158
43806SOL     OW38532  10.593   6.644   8.676 -0.5740  0.1345  0.1654
43806SOL    HW138533  10.522   6.641   8.740  0.4055  0.0080  1.2736
43806SOL    HW238534  10.673   6.632   8.727  0.1408 -2.0862 -1.3236
43807SOL     OW38535   1.421   7.388  12.412 -0.2534 -0.2187  0.2509
43807SOL    HW138536   1.372   7.316  12.373 -0.9453  0.7070 -0.6462
43807SOL    HW238537   1.453   7.353  12.496  0.5543 -1.9768 -0.7375
43808SOL     OW38538   7.968   8.190   1.080 -0.7451  0.5774  0.0926
43808SOL    HW138539   7.921   8.222   1.003 -0.9228  1.0479  0.3923
43808SOL    HW238540   8.047   8.150   1.045 -1.2972 -0.1020 -0.4083
43809SOL     OW38541  11.406   6.580   3.763  0.3478  0.5443 -0.2482
43809SOL    HW138542  11.372   6.491   3.774  0.9301  0.2761 -0.6000
43809SOL    HW238543  11.468   6.574   3.690  2.8219  0.5255  1.7121
43810SOL     OW38544   7.011   6.826   2.262  0.7428 -0.0961 -0.2346
43810SOL    HW138545   6.976   6.881   2.192 -0.5780  1.3070  1.4423
43810SOL    HW238546   6.971   6.741   2.248  1.7290 -0.3064 -2.0580
43811SOL     OW38547   9.152   1.419  10.142  0.3420 -0.4883 -0.7234
43811SOL    HW138548   9.064   1.395  10.113 -0.9822  1.0453  1.6969
43811SOL    HW238549   9.195   1.449  10.063 -1.9750  0.5577 -1.6899
43812SOL     OW38550  11.103  12.824   3.711  0.6679  0.5025 -0.1473
43812SOL    HW138551  11.044  12.831   3.786  1.3938 -0.6178  0.5790
43812SOL    HW238552  11.047  12.798   3.638  0.4258 -2.4791  0.9428
43813SOL     OW38553   6.768   1.420   7.150 -0.0628  0.1786  0.0789
43813SOL    HW138554   6.861   1.399   7.147 -0.0018  0.6187 -1.5477
43813SOL    HW238555   6.765   1.510   7.184 -0.0589 -0.5609  2.2125
43814SOL     OW38556  11.864  10.870   1.780 -0.0086  0.1224 -0.8032
43814SOL    HW138557  11.837  10.958   1.807 -0.7582 -0.7487  1.5307
43814SOL    HW238558  11.832  10.862   1.690 -2.2337  1.3246 -0.1990
43815SOL     OW38559   5.131   8.689   1.701  0.0481 -0.5189  0.1452
43815SOL    HW138560   5.132   8.596   1.722  0.7037 -0.8235 -1.1693
43815SOL    HW238561   5.188   8.698   1.625  0.7894  1.1153  0.8389
43816SOL     OW38562   1.380   5.765  11.035 -0.0543  0.6253  0.1122
43816SOL    HW138563   1.399   5.682  10.990 -2.5162  0.7545 -1.3495
43816SOL    HW238564   1.422   5.756  11.120 -0.7847 -2.4290  0.2604
43817SOL     OW38565   9.629   9.712   8.768 -0.3567  0.4531 -0.5076
43817SOL    HW138566   9.629   9.617   8.781 -0.5925  0.6117  0.7215
43817SOL    HW238567   9.704   9.743   8.818 -0.8185  1.0076 -0.1509
43818SOL     OW38568   9.873   2.152   0.802  0.2704  0.0550 -0.2567
43818SOL    HW138569   9.910   2.205   0.731  1.3875 -2.4255 -1.6538
43818SOL    HW238570   9.829   2.080   0.758 -1.7919  0.0959  1.5510
43819SOL     OW38571   1.019   6.898  10.701 -0.2091  0.3307  0.4052
43819SOL    HW138572   1.107   6.933  10.685  0.0550  0.2492  1.5597
43819SOL    HW238573   0.981   6.886  10.614  0.8698  0.5056 -0.1016
43820SOL     OW38574   1.746  11.386  11.239  0.4881  0.2497 -0.7503
43820SOL    HW138575   1.742  11.474  11.275 -0.2017  0.0352 -0.2865
43820SOL    HW238576   1.722  11.396  11.147 -0.5441  0.4199 -0.4719
43821SOL     OW38577   8.529   3.896   7.736  0.2761  0.0193 -0.2265
43821SOL    HW138578   8.588   3.824   7.759 -0.4962 -0.8696 -0.9789
43821SOL    HW238579   8.580   3.949   7.674 -0.0393 -1.2982 -1.6669
43822SOL     OW38580   1.812   4.647  10.197  0.1214 -0.4313  0.0745
43822SOL    HW138581   1.763   4.714  10.245  0.1166  0.4289 -1.0950
43822SOL    HW238582   1.861   4.696  10.131  1.6012 -1.4059  0.4070
43823SOL     OW38583   0.615  10.428   5.626  0.1774 -0.0094  0.0097
43823SOL    HW138584   0.556  10.495   5.661 -0.2308 -0.3595  0.0016
43823SOL    HW238585   0.558  10.353   5.608  0.6627 -0.4390  0.2315
43824SOL     OW38586   1.148   1.737   9.878 -0.0116 -0.0763 -0.6825
43824SOL    HW138587   1.218   1.759   9.816  0.1316 -2.5492 -1.4883
43824SOL    HW238588   1.079   1.700   9.824 -1.2421  0.6758  0.3222
43825SOL     OW38589   5.387   8.320   2.022  0.6563  0.1783  0.0944
43825SOL    HW138590   5.428   8.287   2.102  0.9844  1.0570  0.2969
43825SOL    HW238591   5.348   8.242   1.981 -0.2306 -0.1575  1.5159
43826SOL     OW38592  12.036   3.316   4.446 -0.0644  0.1472 -0.5969
43826SOL    HW138593  11.940   3.312   4.454 -0.0103 -1.1503 -0.3334
43826SOL    HW238594  12.067   3.246   4.503  1.0481  0.5396 -0.7069
43827SOL     OW38595   4.198   2.354   3.693 -0.0636 -1.0923  0.3337
43827SOL    HW138596   4.127   2.302   3.655  0.2958 -1.5431  0.2676
43827SOL    HW238597   4.261   2.289   3.725  1.0652 -0.7064 -1.0173
43828SOL     OW38598   6.808   3.222   6.265 -0.2490  0.1672 -0.0015
43828SOL    HW138599   6.838   3.239   6.354 -1.1693  0.2055  0.3164
43828SOL    HW238600   6.751   3.296   6.245  0.7623  0.6889 -1.0187
43829SOL     OW38601   0.914   0.565   1.753 -0.7143  0.2810  0.5761
43829SOL    HW138602   0.933   0.489   1.698 -1.6498  0.1164  0.4594
43829SOL    HW238603   0.988   0.570   1.813 -0.4139 -0.4472  0.2808
43830SOL     OW38604   8.584   6.313   2.960  1.0142  0.2756 -0.5298
43830SOL    HW138605   8.616   6.392   3.002 -0.2674 -0.1694  1.3993
43830SOL    HW238606   8.620   6.241   3.013 -0.5706 -0.3027 -0.1869
43831SOL     OW38607   2.256  11.503   3.326 -0.3319  0.0611 -0.8494
43831SOL    HW138608   2.217  11.590   3.325  1.5842  1.1057  2.1013
43831SOL    HW238609   2.335  11.512   3.272  1.0738  0.8889  1.2516
43832SOL     OW38610   6.009   6.405   6.384  0.5244 -0.4974 -0.1694
43832SOL    HW138611   5.947   6.336   6.361  1.4602 -0.8411 -1.8477
43832SOL    HW238612   6.074   6.362   6.439  0.4672 -0.6740 -0.2383
43833SOL     OW38613   1.004   7.890  12.687 -0.3924 -0.3846  0.1818
43833SOL    HW138614   0.909   7.890  12.672 -0.4902 -0.0777  0.7585
43833SOL    HW238615   1.015   7.938  12.769  0.1744 -1.4323  0.7279
43834SOL     OW38616   3.730  12.314   2.390  0.3230  0.1246 -0.4224
43834SOL    HW138617   3.779  12.331   2.309  1.1055 -1.6869 -0.3659
43834SOL    HW238618   3.753  12.224   2.414 -1.4797 -0.0888  0.7153
43835SOL     OW38619  12.437  10.243   1.291  0.2225  0.2568  0.0068
43835SOL    HW138620  12.370  10.293   1.245 -1.3280 -0.7228  1.1108
43835SOL    HW238621  12.388  10.183   1.347  2.0346 -1.1131  0.2009
43836SOL     OW38622   1.233  10.585  10.786  0.5234  0.0686 -0.6118
43836SOL    HW138623   1.262  10.677  10.782  1.3345 -0.1661 -0.3367
43836SOL    HW238624   1.240  10.562  10.878 -1.1910  0.1854 -0.4143
43837SOL     OW38625   9.561  12.805  10.067 -0.8743  0.2898 -0.2160
43837SOL    HW138626   9.539  12.874  10.130 -1.7948 -0.6540  0.5250
43837SOL    HW238627   9.581  12.853   9.986 -0.6950  1.4637  0.4960
43838SOL     OW38628   3.271   8.449   3.066 -0.4955 -0.1207 -0.6147
43838SOL    HW138629   3.181   8.417   3.061 -0.1916 -0.9014 -1.3136
43838SOL    HW238630   3.326   8.371   3.054  0.3101  0.0569  1.4781
43839SOL     OW38631  10.675  10.092   6.231 -0.0595  0.5696 -0.6025
43839SOL    HW138632  10.736  10.166   6.236  2.8057 -1.6727  0.6115
43839SOL    HW238633  10.590  10.132   6.212  2.0044  3.8077 -4.5519
43840SOL     OW38634   3.515   6.554   5.888 -0.3109  0.0453  0.3743
43840SOL    HW138635   3.565   6.621   5.936 -0.3211  0.5369 -0.2920
43840SOL    HW238636   3.582   6.506   5.839 -0.5603  1.3138 -1.2653
43841SOL     OW38637   8.372   9.001   8.162  1.0346 -0.0752  0.2339
43841SOL    HW138638   8.409   9.089   8.174  0.6741  0.0255  0.6151
43841SOL    HW238639   8.381   8.959   8.247  2.4977 -0.9168 -0.2946
43842SOL     OW38640   4.974   5.110   5.035  0.1997 -0.0076  0.1426
43842SOL    HW138641   4.913   5.050   5.077  1.5216 -0.3625  1.6438
43842SOL    HW238642   4.967   5.090   4.941 -0.2277 -1.7142  0.5021
43843SOL     OW38643   8.512   5.190   3.119 -0.3690 -0.3086  0.2197
43843SOL    HW138644   8.546   5.173   3.206  1.0437  0.2597 -0.1868
43843SOL    HW238645   8.523   5.107   3.072  0.3233 -0.1726  0.1376
43844SOL     OW38646   8.647  10.741   0.777 -0.0008 -0.1873  0.1776
43844SOL    HW138647   8.728  10.783   0.749  0.5290 -0.8780  0.6512
43844SOL    HW238648   8.675  10.665   0.828 -0.9475 -0.0835  0.8782
43845SOL     OW38649   7.627   9.777   6.670 -0.2408 -0.0838  0.0355
43845SOL    HW138650   7.721   9.759   6.669 -0.3605 -1.0855 -2.6805
43845SOL    HW238651   7.620   9.867   6.640 -0.0942  1.4171  3.9613
43846SOL     OW38652  11.866  11.474  10.395 -0.0692 -0.1338  0.7106
43846SOL    HW138653  11.904  11.558  10.420 -0.6404  0.0703  0.9187
43846SOL    HW238654  11.877  11.471  10.299  0.7948 -0.2535  0.8046
43847SOL     OW38655   9.272   6.456   6.729  0.3226  0.4220 -0.7796
43847SOL    HW138656   9.213   6.452   6.654  1.7396  0.1816 -1.9187
43847SOL    HW238657   9.358   6.470   6.691  1.1923 -0.5009  0.7553
43848SOL     OW38658   3.416   7.270   1.799 -0.1537  0.1178 -0.5279
43848SOL    HW138659   3.342   7.309   1.846  0.8493  0.8014  0.5473
43848SOL    HW238660   3.452   7.206   1.861  0.9630  0.7647 -0.4790
43849SOL     OW38661   6.132   6.031   9.287 -0.5122  0.2722  0.0904
43849SOL    HW138662   6.069   5.970   9.325 -0.1401  0.8420  1.6949
43849SOL    HW238663   6.090   6.117   9.296 -0.6820  0.3592 -1.3860
43850SOL     OW38664  11.916   8.295   3.470 -0.5587  0.1591 -0.0497
43850SOL    HW138665  11.999   8.272   3.513 -0.8386  0.7817  0.8440
43850SOL    HW238666  11.901   8.223   3.408  0.4968 -0.1124 -0.0073
43851SOL     OW38667   9.022   5.804   9.712 -0.2484  0.0445  0.3529
43851SOL    HW138668   8.958   5.839   9.774 -0.4098 -0.5461  0.5274
43851SOL    HW238669   8.999   5.711   9.704 -0.5696  0.2133 -0.9975
43852SOL     OW38670  12.341   9.142   8.449 -0.2015 -0.3394  0.5084
43852SOL    HW138671  12.245   9.144   8.456 -0.1355  0.1718  1.3400
43852SOL    HW238672  12.369   9.081   8.517  0.1067  0.1679  0.8466
43853SOL     OW38673   8.307   0.137   1.614  0.0806 -0.4402 -0.0863
43853SOL    HW138674   8.286   0.208   1.553  1.0459  0.5634  0.7073
43853SOL    HW238675   8.335   0.065   1.557 -0.8314 -0.1729 -0.9077
43854SOL     OW38676  12.659  10.887   2.468  0.1751 -0.2408 -0.3865
43854SOL    HW138677  12.719  10.953   2.434  1.0548 -0.6237  0.3501
43854SOL    HW238678  12.688  10.805   2.427  2.4052 -1.0525  2.3737
43855SOL     OW38679  12.891  10.625   0.284  0.2207 -0.1567 -0.2206
43855SOL    HW138680  12.880  10.718   0.266  0.4335 -0.5464 -2.7414
43855SOL    HW238681  12.969  10.620   0.339  0.5900  1.0928 -0.5986
43856SOL     OW38682   1.130  10.354   4.870 -0.4786  0.8255  0.6948
43856SOL    HW138683   1.186  10.325   4.943  0.7302 -0.1423 -0.5706
43856SOL    HW238684   1.159  10.444   4.853  0.1269  0.6091  0.5730
43857SOL     OW38685   5.856   0.683   1.187  0.2816  0.6527 -0.4089
43857SOL    HW138686   5.809   0.742   1.129 -2.6505  0.3451  1.4749
43857SOL    HW238687   5.909   0.740   1.242 -0.7620  1.3732 -0.1263
43858SOL     OW38688  10.853  11.475  10.414 -0.1862  0.8379 -0.0311
43858SOL    HW138689  10.893  11.562  10.417 -0.4739  0.9580  2.8601
43858SOL    HW238690  10.763  11.490  10.445 -0.8887 -0.2286 -1.4378
43859SOL     OW38691   4.347   0.842   3.984 -0.7949  0.2317  0.4705
43859SOL    HW138692   4.353   0.915   3.922 -1.9452  0.8767  1.0815
43859SOL    HW238693   4.270   0.792   3.954  0.1316 -0.8961 -0.0948
43860SOL     OW38694  12.839   2.960   3.654 -0.2193 -0.0231 -0.3818
43860SOL    HW138695  12.759   2.971   3.706  1.3204 -0.1687  2.1811
43860SOL    HW238696  12.879   3.047   3.652  0.4304 -0.3043 -0.0842
43861SOL     OW38697   7.224   8.975  10.644 -0.2865 -0.1768 -0.0778
43861SOL    HW138698   7.180   8.953  10.561 -0.0501 -0.8224 -0.0406
43861SOL    HW238699   7.220   8.894  10.695  1.6471 -0.5272 -0.3950
43862SOL     OW38700   1.392  10.987   9.443 -0.0373 -0.0037  0.5276
43862SOL    HW138701   1.339  10.944   9.509 -0.5937 -4.1272 -2.2556
43862SOL    HW238702   1.479  10.947   9.451 -0.0354 -0.3722 -0.9856
43863SOL     OW38703   5.465   8.190  12.784  0.1861 -0.8390  0.5334
43863SOL    HW138704   5.530   8.256  12.760 -0.1631 -0.1115  1.5169
43863SOL    HW238705   5.464   8.191  12.880 -1.9447 -0.1340  0.5525
43864SOL     OW38706   0.834   3.829   0.204 -0.6584  0.0400  0.2901
43864SOL    HW138707   0.914   3.777   0.212 -1.0976 -0.8180 -0.7338
43864SOL    HW238708   0.843   3.875   0.121 -0.9010  0.5409  0.5344
43865SOL     OW38709   5.300  10.702  10.826  0.3167  0.3673 -0.2224
43865SOL    HW138710   5.205  10.719  10.822  0.4843  2.4506  2.1581
43865SOL    HW238711   5.309  10.612  10.797 -2.4964 -0.1843  0.2686
43866SOL     OW38712   6.625   3.538   0.650 -0.4226  0.2016  0.1558
43866SOL    HW138713   6.602   3.467   0.709  1.2893 -0.0869  0.5126
43866SOL    HW238714   6.688   3.499   0.589 -0.5745  1.0366 -0.5527
43867SOL     OW38715   1.406   8.593   1.526 -0.0247 -0.6357 -0.2283
43867SOL    HW138716   1.364   8.570   1.610 -0.5282  0.5388 -0.1416
43867SOL    HW238717   1.441   8.510   1.494 -2.2005 -1.6723 -0.1715
43868SOL     OW38718   1.752   5.882   5.743  0.5203 -0.4698  0.4966
43868SOL    HW138719   1.791   5.862   5.658  0.8810  0.0437  0.5378
43868SOL    HW238720   1.826   5.888   5.803  0.7679  3.3706  0.0501
43869SOL     OW38721  11.356   2.329   3.115  0.1162 -0.4394  0.0337
43869SOL    HW138722  11.308   2.308   3.195 -1.3672 -0.2157 -0.7610
43869SOL    HW238723  11.447   2.307   3.135 -0.2973 -0.8393  1.6081
43870SOL     OW38724   4.383  12.176   5.280 -0.2316 -0.3811  0.2015
43870SOL    HW138725   4.333  12.243   5.327  0.4023 -0.0599  0.4364
43870SOL    HW238726   4.388  12.102   5.341  1.6113  0.4735  1.1679
43871SOL     OW38727   9.831   4.599   2.329  0.1466  0.7604 -0.0171
43871SOL    HW138728   9.834   4.526   2.268 -0.1964  1.4484 -0.8712
43871SOL    HW238729   9.894   4.575   2.398  0.5227 -0.0306 -0.6221
43872SOL     OW38730   0.329   4.549   8.446  0.0190  0.3029  0.5493
43872SOL    HW138731   0.359   4.476   8.392  0.1086 -1.9683  3.4414
43872SOL    HW238732   0.238   4.562   8.420  0.7930  1.2337 -2.0183
43873SOL     OW38733  10.805  10.128   3.702  0.3903 -0.0839  0.5669
43873SOL    HW138734  10.794  10.124   3.797 -0.3519  0.0243  0.4950
43873SOL    HW238735  10.804  10.036   3.673 -4.3704 -0.1484  0.1846
43874SOL     OW38736   6.002   8.453   9.862  0.1836  0.1596  0.1204
43874SOL    HW138737   5.988   8.527   9.922 -0.2931 -0.8911  1.3555
43874SOL    HW238738   6.080   8.477   9.812 -0.9929  2.2838 -0.7821
43875SOL     OW38739   8.644  10.756   8.393  0.7025  0.2259 -0.4114
43875SOL    HW138740   8.695  10.813   8.335 -0.1707  0.8858 -0.5644
43875SOL    HW238741   8.566  10.808   8.413 -0.3469 -1.0978 -0.9311
43876SOL     OW38742  10.805   2.460   0.295 -0.1118  0.8905  0.6843
43876SOL    HW138743  10.729   2.481   0.350 -0.8043 -0.8517  0.4634
43876SOL    HW238744  10.873   2.519   0.325 -0.4977  0.1223  3.3632
43877SOL     OW38745   5.495   1.702   4.251 -0.4673 -0.2194 -0.2201
43877SOL    HW138746   5.535   1.773   4.201 -0.2842  0.8649  1.3985
43877SOL    HW238747   5.567   1.663   4.301 -0.9992  0.2992  1.0082
43878SOL     OW38748  11.368   3.949   0.783  0.2736 -0.6897  0.2925
43878SOL    HW138749  11.286   3.970   0.737 -0.4697  0.0352  1.8657
43878SOL    HW238750  11.391   3.862   0.752  1.3480  0.7510 -3.5192
43879SOL     OW38751   1.540   3.065   7.739 -0.0704  0.7692  0.2594
43879SOL    HW138752   1.595   3.047   7.816 -0.6448  1.7985  0.9494
43879SOL    HW238753   1.452   3.039   7.766  0.1081 -1.2584 -0.9874
43880SOL     OW38754   4.363  12.942  11.657  0.0303 -0.8145 -0.2296
43880SOL    HW138755   4.290  12.978  11.607 -0.0776  1.5794  1.4996
43880SOL    HW238756   4.322  12.891  11.727 -0.0103 -0.1271  0.2642
43881SOL     OW38757  11.688   3.446   0.176  0.1204 -0.1626  0.4676
43881SOL    HW138758  11.676   3.540   0.188 -1.1577 -0.2348 -0.1618
43881SOL    HW238759  11.783   3.434   0.180  0.2629  1.0267  1.3951
43882SOL     OW38760   3.628   4.889   2.048 -0.2895  0.1947  0.0831
43882SOL    HW138761   3.588   4.957   2.103 -0.6471 -0.8422  1.1483
43882SOL    HW238762   3.689   4.845   2.106  0.0817 -0.2762 -0.6548
43883SOL     OW38763   5.838  10.647  12.311 -0.2093 -0.3664 -0.4210
43883SOL    HW138764   5.858  10.581  12.245  1.3419 -0.1141 -0.2212
43883SOL    HW238765   5.809  10.596  12.387 -2.8345 -0.6349 -1.4807
43884SOL     OW38766  12.219   5.194  11.529 -0.1993  0.3129  0.2097
43884SOL    HW138767  12.312   5.202  11.510 -0.6607  3.4761 -1.3580
43884SOL    HW238768  12.206   5.102  11.550  2.6248 -1.0532 -3.1534
43885SOL     OW38769   1.503  10.572   1.654  0.3653 -0.4678 -0.0536
43885SOL    HW138770   1.552  10.654   1.656  0.3210 -0.4400  1.6426
43885SOL    HW238771   1.485  10.556   1.561  0.1371  1.5813 -0.3975
43886SOL     OW38772  11.572   3.830  12.883 -0.4063  0.8690 -0.2970
43886SOL    HW138773  11.541   3.741  12.897 -0.2699  0.4354 -2.5204
43886SOL    HW238774  11.606   3.857  12.969 -0.5154 -1.1643  0.4319
43887SOL     OW38775   1.501   7.800   3.564 -0.4853  0.2171 -0.2139
43887SOL    HW138776   1.455   7.720   3.539  1.2308 -0.8976  0.0255
43887SOL    HW238777   1.433   7.856   3.601 -1.3926 -2.1039  1.9417
43888SOL     OW38778   4.274   7.970   2.334  0.5257  0.8458 -0.4971
43888SOL    HW138779   4.241   8.052   2.371  2.0687  1.4347 -0.3866
43888SOL    HW238780   4.369   7.975   2.343  0.7485 -0.3339 -1.8013
43889SOL     OW38781   4.801   9.893  11.814  0.3307  0.5772  0.1482
43889SOL    HW138782   4.715   9.872  11.850  1.7874  1.6888  5.0780
43889SOL    HW238783   4.788   9.976  11.768 -1.0812  1.4440  1.9730
43890SOL     OW38784   7.401   4.896  11.469 -0.0198 -0.0899 -0.2756
43890SOL    HW138785   7.386   4.843  11.547  2.6261  1.5546  1.5218
43890SOL    HW238786   7.422   4.832  11.400 -1.4494 -1.5246  0.5478
43891SOL     OW38787  10.868   1.781   4.410 -0.1552 -0.4287  0.2021
43891SOL    HW138788  10.806   1.713   4.382 -0.3943 -0.4334  0.7357
43891SOL    HW238789  10.946   1.732   4.437 -0.2296 -0.4762  0.3341
43892SOL     OW38790   7.375  11.845  11.685  0.0217 -0.5379  0.1436
43892SOL    HW138791   7.449  11.793  11.655  0.6252 -0.1033  0.8567
43892SOL    HW238792   7.331  11.873  11.604  2.0109  1.1899 -0.4369
43893SOL     OW38793   0.505   4.200   0.381  0.3399 -0.2208  0.5530
43893SOL    HW138794   0.491   4.273   0.443 -0.6642 -1.3780  1.7458
43893SOL    HW238795   0.599   4.203   0.362  0.2547  1.6303  0.2483
43894SOL     OW38796   6.776  11.440   9.637 -0.0974 -0.4176  0.5368
43894SOL    HW138797   6.755  11.357   9.679  2.6292 -1.6381 -0.3027
43894SOL    HW238798   6.857  11.468   9.679 -1.0270  1.9760  0.9128
43895SOL     OW38799   4.160   3.855   0.086  0.0099 -0.1231  0.0846
43895SOL    HW138800   4.214   3.785   0.123  1.4146  0.5869 -0.5411
43895SOL    HW238801   4.179   3.853  -0.008 -0.8272  0.3412 -0.1039
43896SOL     OW38802  11.537   1.719   4.915 -0.3062 -0.2976 -0.3229
43896SOL    HW138803  11.562   1.811   4.925 -1.6463  0.1327 -0.8071
43896SOL    HW238804  11.546   1.702   4.821  0.6871 -0.9066 -0.1375
43897SOL     OW38805  12.644  10.870   7.442  0.6730  0.1612 -0.0439
43897SOL    HW138806  12.675  10.818   7.516 -0.7532  1.1663  1.3029
43897SOL    HW238807  12.695  10.837   7.367 -0.2254 -3.2401  0.6797
43898SOL     OW38808   8.465  10.032  12.860  0.4529 -0.1383  0.0444
43898SOL    HW138809   8.498  10.066  12.943 -1.4927 -0.2770  0.9419
43898SOL    HW238810   8.470   9.937  12.869 -1.5727 -0.2214  0.8747
43899SOL     OW38811  11.636  12.016   0.931  0.1609  0.1288  0.1225
43899SOL    HW138812  11.606  11.981   0.847 -1.5946  0.2433  0.6554
43899SOL    HW238813  11.652  12.108   0.915 -0.5528  0.2348 -0.0093
43900SOL     OW38814   4.624   3.948   5.893  0.1574 -0.1602  0.6708
43900SOL    HW138815   4.608   3.854   5.888 -1.5966  0.1080  0.7339
43900SOL    HW238816   4.567   3.978   5.964  0.0905  1.0732  0.1059
43901SOL     OW38817   4.849  10.110   6.938  0.1375 -0.2784  0.1162
43901SOL    HW138818   4.846  10.147   6.850  2.1942 -0.2121  0.0198
43901SOL    HW238819   4.895  10.027   6.928 -1.9352 -1.5798  0.7704
43902SOL     OW38820   1.052   4.768   1.090  0.0936 -0.0547 -0.3524
43902SOL    HW138821   1.064   4.749   0.997  0.0421  0.9564 -0.5771
43902SOL    HW238822   1.016   4.857   1.092 -0.1650 -0.1702  0.6225
43903SOL     OW38823   8.335  12.430  12.768  0.0884 -0.4270 -0.2518
43903SOL    HW138824   8.380  12.514  12.780 -2.0135  0.9084 -1.1779
43903SOL    HW238825   8.319  12.399  12.857  0.0986  0.6220  0.1353
43904SOL     OW38826   0.052   1.436   1.547 -0.4482  0.1963 -0.7199
43904SOL    HW138827   0.142   1.442   1.516  0.4089 -1.7311  1.1205
43904SOL    HW238828   0.035   1.520   1.589  0.5953  0.4916 -0.8646
43905SOL     OW38829  11.935   7.541   2.091  0.4764 -0.3138 -0.2672
43905SOL    HW138830  11.856   7.534   2.038  0.6860  0.2108 -0.6637
43905SOL    HW238831  11.906   7.580   2.173  0.3964  0.3088 -0.5891
43906SOL     OW38832   7.306   2.010  11.868  0.7567  0.3132 -0.1131
43906SOL    HW138833   7.229   2.018  11.925  1.3330  2.1188  0.4670
43906SOL    HW238834   7.347   1.928  11.894 -0.0502  0.1587  0.7247
43907SOL     OW38835   4.787   3.169   4.876 -0.0812  0.1596  0.0514
43907SOL    HW138836   4.864   3.226   4.883 -1.0453  2.2361 -3.7814
43907SOL    HW238837   4.723   3.208   4.935  0.1813  1.4784 -0.5053
43908SOL     OW38838   4.290   2.806   4.769  0.2009  0.1052 -0.1054
43908SOL    HW138839   4.317   2.780   4.857 -1.9806  0.8446  0.8556
43908SOL    HW238840   4.264   2.724   4.727 -1.1634 -0.0021  0.8760
43909SOL     OW38841   7.538  11.576  10.441 -0.6364  0.2996  0.5056
43909SOL    HW138842   7.585  11.494  10.428 -1.5923 -0.2798  0.6831
43909SOL    HW238843   7.607  11.640  10.460  0.2983 -0.0209 -1.5753
43910SOL     OW38844   8.889   5.006  11.514  0.1464 -0.1431 -0.1947
43910SOL    HW138845   8.831   5.016  11.590  0.8332 -2.9545  0.8360
43910SOL    HW238846   8.970   5.051  11.540  0.2906 -0.8814  0.6902
43911SOL     OW38847  10.366   6.996  11.652 -0.8726 -0.2318  0.0511
43911SOL    HW138848  10.288   7.039  11.687 -0.5271 -0.7401  1.5065
43911SOL    HW238849  10.386   7.044  11.571 -0.2544  2.6339  1.7669
43912SOL     OW38850   4.617   4.803   9.580 -0.0818  0.1697  0.0346
43912SOL    HW138851   4.711   4.804   9.601 -0.2972  0.7761  1.0817
43912SOL    HW238852   4.611   4.760   9.495  1.3964  2.3664 -1.2830
43913SOL     OW38853   7.357   9.734  12.680  0.3731  0.0280 -0.6364
43913SOL    HW138854   7.284   9.754  12.738  0.1207  1.2314 -1.3360
43913SOL    HW238855   7.410   9.670  12.728 -2.3767 -2.8375 -1.1025
43914SOL     OW38856   8.740   7.908   1.125 -0.5387  0.3577 -0.1481
43914SOL    HW138857   8.689   7.860   1.061  2.6932 -0.3679 -2.4153
43914SOL    HW238858   8.718   8.000   1.109 -1.1030  0.0709 -1.0863
43915SOL     OW38859   6.958   7.766   4.163 -0.2986  0.4812 -0.0286
43915SOL    HW138860   6.885   7.720   4.122 -0.7066  2.0359 -1.1190
43915SOL    HW238861   6.954   7.854   4.127  1.8800  0.7190  0.2244
43916SOL     OW38862   0.851   3.273   9.724  0.5728 -0.0468  0.0845
43916SOL    HW138863   0.931   3.262   9.776  0.0327 -1.9963  0.5742
43916SOL    HW238864   0.876   3.246   9.636  0.7446  0.5210 -0.0491
43917SOL     OW38865  11.691  11.878   4.619  0.4371  0.7354 -1.0307
43917SOL    HW138866  11.689  11.850   4.528  0.8391  1.0363 -1.1344
43917SOL    HW238867  11.784  11.889   4.639  0.4225 -0.1796 -0.3246
43918SOL     OW38868   8.588   3.990   2.704  0.2266  0.0377 -0.2613
43918SOL    HW138869   8.658   4.051   2.728 -1.0699  0.6777  2.1072
43918SOL    HW238870   8.622   3.904   2.728 -0.0520  0.4276  1.6692
43919SOL     OW38871   0.826   3.895   7.682 -0.9627 -0.5709 -0.3843
43919SOL    HW138872   0.886   3.842   7.733  0.2203 -0.2990 -1.4451
43919SOL    HW238873   0.841   3.984   7.712  0.8929 -0.1918 -2.2111
43920SOL     OW38874  12.806   1.569   0.048  0.7370 -0.2426  0.0161
43920SOL    HW138875  12.749   1.574   0.125  0.0879 -1.3369 -0.3599
43920SOL    HW238876  12.816   1.659   0.020 -0.9081 -0.0141  0.0484
43921SOL     OW38877   4.611   1.308   4.770 -0.0208  0.6618  0.5718
43921SOL    HW138878   4.595   1.342   4.682  0.0904  0.2581  0.3932
43921SOL    HW238879   4.604   1.213   4.761  0.1410  0.6097  0.9675
43922SOL     OW38880   5.007   1.178  11.185 -0.9079 -0.2206 -0.1864
43922SOL    HW138881   4.959   1.126  11.249  1.6669 -0.7585  1.4546
43922SOL    HW238882   5.032   1.115  11.117  0.2115 -0.6989  0.6281
43923SOL     OW38883   6.996   2.192   2.265  0.3790  0.9898  0.1063
43923SOL    HW138884   7.015   2.128   2.332  0.4091 -0.2972 -1.0874
43923SOL    HW238885   6.904   2.177   2.243  0.2504  1.6808  0.1467
43924SOL     OW38886  12.097  10.043   8.595  0.1350  0.4550  0.0455
43924SOL    HW138887  12.116  10.080   8.682  1.3862 -0.8441  0.3704
43924SOL    HW238888  12.158   9.970   8.587 -2.0452 -1.4180 -0.6484
43925SOL     OW38889   1.962   2.438   8.090 -0.3816 -0.1019 -0.3009
43925SOL    HW138890   1.990   2.515   8.040 -1.6363  0.4132 -0.2633
43925SOL    HW238891   1.969   2.365   8.028  1.7538 -0.1588 -0.0525
43926SOL     OW38892   3.286   4.369   7.529  0.3120  0.5905 -0.2278
43926SOL    HW138893   3.214   4.431   7.535 -0.5911 -0.3418 -1.0974
43926SOL    HW238894   3.326   4.370   7.616  0.6809  2.7769 -0.3686
43927SOL     OW38895   9.810   2.610   2.064  0.6003  0.2987  0.3485
43927SOL    HW138896   9.775   2.697   2.082  0.0320 -0.0144  0.7945
43927SOL    HW238897   9.855   2.585   2.144  1.1399  0.3533  0.0699
43928SOL     OW38898   3.512   5.046   9.426 -0.3044  0.7264 -0.2708
43928SOL    HW138899   3.467   5.048   9.342 -0.2214  1.3476 -0.3029
43928SOL    HW238900   3.522   4.953   9.445 -1.7614  0.5631 -0.1789
43929SOL     OW38901   0.581  10.884  11.578 -0.0021  0.2721 -0.4562
43929SOL    HW138902   0.584  10.883  11.674  0.0638  0.6448 -0.4520
43929SOL    HW238903   0.497  10.926  11.557  0.3515  0.9502 -0.5551
43930SOL     OW38904  11.878  10.003   2.932  0.1664  0.4580 -0.2773
43930SOL    HW138905  11.804  10.011   2.992 -0.2295 -3.9615  0.1345
43930SOL    HW238906  11.951   9.976   2.988  0.8794  0.2650 -1.2781
43931SOL     OW38907   8.375   6.199   8.546 -0.3325  0.1965  0.0876
43931SOL    HW138908   8.312   6.189   8.618  2.0643 -0.8753  2.1749
43931SOL    HW238909   8.364   6.120   8.493 -2.2815  1.1027 -0.9988
43932SOL     OW38910   1.426   0.023   7.756 -0.1256 -0.5226 -0.6768
43932SOL    HW138911   1.333   0.012   7.779 -0.2422  0.5474 -0.5969
43932SOL    HW238912   1.456   0.095   7.811  0.0334  0.9612 -2.5993
43933SOL     OW38913   8.851  11.147   2.301  0.2395  0.2061 -0.2673
43933SOL    HW138914   8.926  11.154   2.360  0.0961 -0.2167 -0.0266
43933SOL    HW238915   8.780  11.115   2.357  0.1046 -0.2083 -0.6670
43934SOL     OW38916   2.595   1.654  11.482  0.1163  0.0984 -0.1321
43934SOL    HW138917   2.560   1.738  11.452  1.9282  0.7230 -0.5837
43934SOL    HW238918   2.649   1.623  11.410  1.7042 -0.0843  1.0894
43935SOL     OW38919  11.386   9.838   3.729  0.3558 -0.2169  0.2086
43935SOL    HW138920  11.450   9.847   3.658  1.0078  0.5639  0.8698
43935SOL    HW238921  11.329   9.766   3.702  1.9530 -1.4156 -0.0598
43936SOL     OW38922   1.126   2.384  11.914  0.0210 -0.4848  0.1211
43936SOL    HW138923   1.041   2.346  11.892 -0.6959  0.2804  1.4649
43936SOL    HW238924   1.147   2.349  12.001 -0.0361  1.1163  0.8125
43937SOL     OW38925   4.402   8.169   3.072 -0.0844 -0.0689 -0.7588
43937SOL    HW138926   4.494   8.154   3.050 -0.4824 -1.5384 -1.5149
43937SOL    HW238927   4.373   8.235   3.008  0.5637  0.8040 -0.1758
43938SOL     OW38928   3.324  11.136   1.929 -0.1171  0.4602 -0.5544
43938SOL    HW138929   3.248  11.094   1.970 -0.1410  1.2768  0.2565
43938SOL    HW238930   3.385  11.151   2.001  0.6956  0.0871 -1.1552
43939SOL     OW38931  10.357   3.473  12.730  0.5287 -0.1218 -0.5073
43939SOL    HW138932  10.371   3.525  12.651 -0.7784 -0.2484 -0.8344
43939SOL    HW238933  10.283   3.515  12.774 -0.0789 -1.2526 -0.4078
43940SOL     OW38934  12.553   8.886   5.384  0.2530 -0.2901 -1.1004
43940SOL    HW138935  12.613   8.873   5.457  1.2040  1.4597 -1.5229
43940SOL    HW238936  12.592   8.838   5.311  0.0858 -0.8011 -0.8546
43941SOL     OW38937   8.914  11.513   6.917 -0.4071 -0.0817  0.0359
43941SOL    HW138938   8.865  11.536   6.838  2.0520  0.5079 -1.4292
43941SOL    HW238939   8.919  11.595   6.966 -0.3086  0.0254 -0.1494
43942SOL     OW38940   6.652  12.877   1.649 -0.4165 -0.4268 -0.4563
43942SOL    HW138941   6.611  12.962   1.665 -2.6452 -1.5677  0.3475
43942SOL    HW238942   6.646  12.865   1.554  0.3391  0.4720 -0.6346
43943SOL     OW38943   1.980  11.421   4.707 -0.4886 -0.2366 -0.2880
43943SOL    HW138944   1.920  11.462   4.769 -0.8161  1.3996 -1.5975
43943SOL    HW238945   2.065  11.461   4.726 -0.2757 -0.8521  0.0728
43944SOL     OW38946   1.857  12.914   5.827 -0.2464 -0.0471  0.5438
43944SOL    HW138947   1.932  12.956   5.785 -0.2859  0.0842  0.6026
43944SOL    HW238948   1.896  12.859   5.895 -0.2306  0.4148  0.9127
43945SOL     OW38949   1.928   8.130   1.260 -0.4301  0.4646  0.3940
43945SOL    HW138950   1.958   8.070   1.328  0.2210 -0.6115 -0.7739
43945SOL    HW238951   1.842   8.096   1.234 -1.1666  1.5014  1.3663
43946SOL     OW38952   2.425   6.237   2.412 -0.6217 -0.3117  0.0881
43946SOL    HW138953   2.335   6.245   2.381  0.4018  1.8386 -2.7928
43946SOL    HW238954   2.424   6.278   2.499 -2.4257 -0.4613  0.1713
43947SOL     OW38955   8.365   3.129   5.568 -0.1569  0.5438 -0.3045
43947SOL    HW138956   8.370   3.034   5.562  0.3211  0.5594 -0.2044
43947SOL    HW238957   8.328   3.156   5.484  0.9007  0.3501 -0.8511
43948SOL     OW38958  11.692  11.215   4.366 -0.0158 -0.5003  0.0126
43948SOL    HW138959  11.650  11.131   4.345  0.7315 -0.9224  0.1331
43948SOL    HW238960  11.781  11.190   4.392 -0.0149  0.2665  0.7909
43949SOL     OW38961   5.682  10.766   6.612 -0.0984  0.0406 -0.0097
43949SOL    HW138962   5.625  10.713   6.667 -0.5296  0.3168 -0.1830
43949SOL    HW238963   5.686  10.851   6.655  0.9924 -0.2725  0.5316
43950SOL     OW38964   6.201   8.285  11.495 -0.0822 -0.5983 -0.1398
43950SOL    HW138965   6.196   8.312  11.587 -0.4983 -0.4999 -0.1887
43950SOL    HW238966   6.282   8.324  11.462 -0.1702 -0.2445  0.0584
43951SOL     OW38967   6.176   5.022  11.423  0.5414 -0.2640  0.0743
43951SOL    HW138968   6.175   5.005  11.329 -1.2731 -2.5910  0.4071
43951SOL    HW238969   6.229   4.950  11.460 -0.6214 -0.6956  0.9669
43952SOL     OW38970   4.754   2.616   8.189  0.6637  0.3801  0.6032
43952SOL    HW138971   4.821   2.551   8.169  0.4036 -0.1314  1.3913
43952SOL    HW238972   4.726   2.597   8.278 -1.4514 -0.2285 -0.1391
43953SOL     OW38973   7.734  11.181  11.705  0.7181 -0.1560  0.1076
43953SOL    HW138974   7.691  11.146  11.627 -0.6788 -0.4053  0.9550
43953SOL    HW238975   7.791  11.250  11.672  0.4656 -0.5457 -1.1757
43954SOL     OW38976  12.041   1.485   5.597  0.0849  0.2244  0.0968
43954SOL    HW138977  12.128   1.460   5.566  0.2844 -0.5472  1.2420
43954SOL    HW238978  12.057   1.561   5.654 -0.3778  2.2552 -2.2877
43955SOL     OW38979   0.719   4.803   8.229  0.4128 -0.2692  0.2133
43955SOL    HW138980   0.761   4.838   8.308 -1.0280  1.7162  0.1991
43955SOL    HW238981   0.632   4.776   8.258 -0.2973  0.8927 -0.7077
43956SOL     OW38982   0.103   8.970   6.177 -0.0915  0.3661  0.2297
43956SOL    HW138983   0.169   8.944   6.112 -0.2760 -0.2805  0.2975
43956SOL    HW238984   0.140   9.049   6.218  0.3137  0.4159 -0.2234
43957SOL     OW38985   5.064   4.931   1.999  0.1891  0.6024 -0.1648
43957SOL    HW138986   5.018   4.918   2.082 -2.1044  0.2302 -1.4258
43957SOL    HW238987   5.029   5.012   1.964  1.7166  1.1739 -0.4579
43958SOL     OW38988  10.080  12.137   0.341  0.5134 -0.3049 -0.6542
43958SOL    HW138989  10.091  12.227   0.372 -1.0594  0.3447 -1.8060
43958SOL    HW238990  10.088  12.144   0.246  0.8606 -1.4752 -0.7146
43959SOL     OW38991   9.123  12.851  10.638  0.2748  0.0978 -0.0153
43959SOL    HW138992   9.191  12.808  10.587 -1.3760 -1.9558 -0.6562
43959SOL    HW238993   9.133  12.816  10.727  1.1957  1.2567  0.3553
43960SOL     OW38994   0.969  12.411   5.210 -0.3952  0.6534 -0.3912
43960SOL    HW138995   1.029  12.393   5.139 -1.1227  1.6970 -1.3038
43960SOL    HW238996   1.025  12.438   5.283  0.3213  0.1826 -0.7607
43961SOL     OW38997   1.787  10.877  10.505  0.4970  0.0684 -0.3845
43961SOL    HW138998   1.798  10.803  10.446 -0.2560 -0.3184 -0.0569
43961SOL    HW238999   1.694  10.899  10.500  0.4979  0.2815  0.3461
43962SOL     OW39000   7.845  11.751   6.591  0.3937  0.5654  0.1239
43962SOL    HW139001   7.847  11.844   6.572 -0.0336  0.8111  1.2298
43962SOL    HW239002   7.828  11.745   6.685  1.8454 -0.5988  0.3635
43963SOL     OW39003   9.710   5.337   9.940 -0.4282  0.2891 -0.0425
43963SOL    HW139004   9.735   5.404  10.004  1.4989 -0.1850 -0.2357
43963SOL    HW239005   9.738   5.255   9.980  2.5702  0.1142 -2.1732
43964SOL     OW39006   0.921  11.880   8.700  0.3875  0.3256  0.0909
43964SOL    HW139007   0.964  11.963   8.721  0.0862  0.5018  0.0180
43964SOL    HW239008   0.986  11.831   8.650  0.5282  0.5593  0.0452
43965SOL     OW39009   1.259  12.854   1.798 -0.4112 -0.1247  0.0313
43965SOL    HW139010   1.269  12.938   1.844  1.1053  1.0602 -2.2805
43965SOL    HW239011   1.278  12.788   1.865 -0.7995  1.3819  1.7085
43966SOL     OW39012   0.612  10.679   2.182 -0.2275 -0.0978  0.5643
43966SOL    HW139013   0.544  10.635   2.233 -0.7856 -1.7388 -1.4325
43966SOL    HW239014   0.687  10.685   2.241 -0.8523 -1.8204  1.6022
43967SOL     OW39015   8.640   1.432  12.141  0.5058 -0.5639  0.1050
43967SOL    HW139016   8.642   1.342  12.174 -1.1488 -0.4551  0.5744
43967SOL    HW239017   8.687   1.483  12.207 -0.9789 -0.6810  1.3218
43968SOL     OW39018   7.212   3.535   6.148  0.0318  0.2770  0.4984
43968SOL    HW139019   7.234   3.482   6.072 -1.6123  0.0837  0.1115
43968SOL    HW239020   7.262   3.615   6.138 -0.3197  0.3445 -0.9221
43969SOL     OW39021  11.356  12.565  12.850 -0.2832  0.0387 -0.3345
43969SOL    HW139022  11.312  12.641  12.812 -0.5369  0.9950  1.7744
43969SOL    HW239023  11.448  12.590  12.856  0.0414 -0.7193 -1.7076
43970SOL     OW39024   9.190  11.656  11.817  0.0240  0.2834 -0.1106
43970SOL    HW139025   9.282  11.670  11.793 -0.0732 -0.3486 -0.8815
43970SOL    HW239026   9.172  11.566  11.791 -1.0720  0.6826 -0.7818
43971SOL     OW39027   2.095  10.445   0.949  0.7785  0.0576  0.4793
43971SOL    HW139028   2.027  10.408   0.893  1.7881  0.2552 -0.9563
43971SOL    HW239029   2.078  10.409   1.036 -0.0576 -1.3615 -0.2357
43972SOL     OW39030   1.665   8.100   3.345  0.1515  0.3254  0.1993
43972SOL    HW139031   1.646   8.169   3.409  1.0880 -0.5375  1.4683
43972SOL    HW239032   1.758   8.081   3.358  0.5380  0.5666 -1.8949
43973SOL     OW39033   0.586   6.137   4.335 -0.2577 -0.1870  0.4180
43973SOL    HW139034   0.643   6.208   4.307  0.4130  0.0283  2.2129
43973SOL    HW239035   0.515   6.180   4.382 -0.3198 -0.6355  0.7408
43974SOL     OW39036   0.789   9.734   9.428 -0.2827 -0.1945  0.3426
43974SOL    HW139037   0.828   9.651   9.403  1.0589  0.5535 -0.1345
43974SOL    HW239038   0.794   9.736   9.523  0.2563 -0.3904  0.3201
43975SOL     OW39039   3.636   7.165  10.873  0.1172  0.1445 -0.1411
43975SOL    HW139040   3.633   7.072  10.851 -0.0060  0.5366 -1.9683
43975SOL    HW239041   3.701   7.202  10.813  0.4810  1.1682  0.8582
43976SOL     OW39042   0.927   1.875  12.921  0.3909 -0.0579 -0.2711
43976SOL    HW139043   0.835   1.901  12.911  0.4288  0.0114 -0.4308
43976SOL    HW239044   0.926   1.816  12.996  0.2508  0.1250 -0.1253
43977SOL     OW39045  11.826  10.158   7.958 -0.0244  0.0278  0.2979
43977SOL    HW139046  11.798  10.178   7.869  0.7065  0.6513  0.2055
43977SOL    HW239047  11.776  10.218   8.013 -0.3885 -0.2780  0.3141
43978SOL     OW39048   0.788   2.223   5.683 -0.5334  0.2360 -0.0418
43978SOL    HW139049   0.748   2.290   5.738  0.6976 -0.2952  1.5651
43978SOL    HW239050   0.830   2.273   5.612  2.4584  1.5475  2.4015
43979SOL     OW39051  10.491   9.039   1.933 -0.1680 -0.0851 -0.3269
43979SOL    HW139052  10.486   9.107   2.001 -1.8627 -0.6486  0.1652
43979SOL    HW239053  10.584   9.023   1.922  0.2533  1.8875 -0.0189
43980SOL     OW39054   7.853   6.735  11.249 -0.3967  0.2954  0.7285
43980SOL    HW139055   7.932   6.682  11.256  0.5813  1.2127 -2.0097
43980SOL    HW239056   7.885   6.825  11.242 -1.7723  0.8293  0.9582
43981SOL     OW39057   3.980   1.953   7.419 -0.8057 -0.4422 -0.6238
43981SOL    HW139058   3.996   2.042   7.452 -1.0682  0.4489 -2.7155
43981SOL    HW239059   4.056   1.903   7.447 -0.0495  0.7605 -0.4340
43982SOL     OW39060   3.253  10.924   1.686 -0.0827 -0.2106 -0.3332
43982SOL    HW139061   3.339  10.941   1.725  0.4058 -0.9021 -1.0663
43982SOL    HW239062   3.268  10.931   1.591 -0.4316 -2.0223 -0.5565
43983SOL     OW39063  12.615   8.296   3.403  0.5103  0.1228  0.1965
43983SOL    HW139064  12.560   8.245   3.344  1.5897  1.6864 -2.3494
43983SOL    HW239065  12.554   8.349   3.453 -0.4239  0.4664 -1.2414
43984SOL     OW39066   7.130   0.671  11.132  0.2209  0.1598  0.3527
43984SOL    HW139067   7.192   0.696  11.064  0.9129 -0.4065  0.7584
43984SOL    HW239068   7.181   0.674  11.213  0.2534 -2.0882  0.4795
43985SOL     OW39069  11.458   1.249   3.094 -0.2913 -0.5184 -0.2720
43985SOL    HW139070  11.524   1.271   3.160 -1.8370 -0.5786  1.3661
43985SOL    HW239071  11.493   1.170   3.052  0.2483 -1.1341  1.2463
43986SOL     OW39072   6.693   4.720  12.014 -0.6104 -0.6596  0.4928
43986SOL    HW139073   6.775   4.676  12.038 -1.5395 -1.3356  2.6057
43986SOL    HW239074   6.718   4.811  12.002  0.9674 -1.2962 -1.9335
43987SOL     OW39075   9.945   3.527   8.336 -0.4249 -0.0018 -0.6584
43987SOL    HW139076  10.023   3.472   8.334 -1.1993 -1.1288 -1.7096
43987SOL    HW239077   9.929   3.544   8.429  0.7898 -0.1464 -0.4128
43988SOL     OW39078   0.471   4.243   6.068  0.6478 -0.2484 -0.9926
43988SOL    HW139079   0.543   4.305   6.079  0.0605  0.1714  0.8624
43988SOL    HW239080   0.395   4.297   6.046  0.2673 -0.3345  0.0398
43989SOL     OW39081   3.229   0.537   8.079 -0.7629  0.1213  0.4427
43989SOL    HW139082   3.318   0.571   8.074 -0.8841  0.6363  1.4105
43989SOL    HW239083   3.236   0.447   8.047 -0.3125  0.8151 -1.5187
43990SOL     OW39084  12.118   9.525   9.343 -0.3292 -0.4070 -0.0353
43990SOL    HW139085  12.188   9.579   9.305 -0.3622 -0.8179 -0.6997
43990SOL    HW239086  12.131   9.438   9.304 -0.9506 -0.5962  0.1692
43991SOL     OW39087   3.247   3.963   2.940  0.1209  0.4983 -0.1598
43991SOL    HW139088   3.222   3.880   2.900 -0.0755  0.2090  0.5450
43991SOL    HW239089   3.163   4.007   2.959  0.2072  0.5973 -0.0021
43992SOL     OW39090   2.186   6.411   6.709 -0.0497 -0.6740 -0.4389
43992SOL    HW139091   2.174   6.361   6.790 -0.4218 -0.5262 -0.4013
43992SOL    HW239092   2.231   6.350   6.651 -0.4086 -1.0224 -0.3564
43993SOL     OW39093  10.015  11.806   0.517  0.4213  0.2016 -0.2847
43993SOL    HW139094  10.039  11.714   0.512 -1.2032 -0.3604  1.3250
43993SOL    HW239095   9.951  11.818   0.446 -1.2504 -0.5777  1.0358
43994SOL     OW39096   3.888   1.338   6.574 -0.2663  0.0838 -0.0877
43994SOL    HW139097   3.839   1.282   6.514 -1.0091  0.5953  0.0279
43994SOL    HW239098   3.830   1.349   6.649 -0.3513  1.4026 -0.3246
43995SOL     OW39099   8.035   8.886   4.101 -0.4625  0.0237  0.4655
43995SOL    HW139100   7.976   8.938   4.156 -1.1293 -0.6822  0.4332
43995SOL    HW239101   8.121   8.925   4.115 -0.8935  0.9142  0.7111
43996SOL     OW39102   7.924   3.373   5.673  0.0695 -0.1884 -0.0137
43996SOL    HW139103   8.013   3.401   5.651  0.1825  0.1101  0.7602
43996SOL    HW239104   7.924   3.368   5.769 -1.6646  3.0216  0.2860
43997SOL     OW39105   9.059   3.260   1.263 -0.0834 -0.5491 -0.2271
43997SOL    HW139106   9.136   3.312   1.238 -1.4153  0.9521 -1.4082
43997SOL    HW239107   9.064   3.255   1.359  1.2314 -0.0909 -0.2520
43998SOL     OW39108   9.748  12.609   6.390 -0.0050  0.1464  0.4082
43998SOL    HW139109   9.670  12.571   6.431  0.8449 -0.1835  1.7671
43998SOL    HW239110   9.808  12.626   6.463 -0.1846  3.9023 -0.1134
43999SOL     OW39111   7.971   7.063   3.135  0.1437  0.7031  0.2199
43999SOL    HW139112   7.897   7.114   3.101  1.3366  1.4311 -1.3807
43999SOL    HW239113   7.932   6.981   3.164 -1.3030  1.0678 -0.6008
44000SOL     OW39114   0.410   1.542   0.624  0.1151  0.5642  0.1325
44000SOL    HW139115   0.413   1.506   0.536 -0.8815  0.2651  0.2183
44000SOL    HW239116   0.483   1.605   0.627  0.0545  0.6903 -0.9449
44001SOL     OW39117  12.427   1.685   4.147 -0.0598  0.8038 -0.1375
44001SOL    HW139118  12.497   1.749   4.158  0.2945  0.4545 -0.3078
44001SOL    HW239119  12.407   1.655   4.235 -1.2254  2.1840  0.0918
44002SOL     OW39120   3.573   5.430   2.449  0.0564 -0.2227 -0.2890
44002SOL    HW139121   3.486   5.397   2.427 -0.1570 -0.5473  0.9572
44002SOL    HW239122   3.571   5.523   2.424 -0.9263 -0.0332  0.4774
44003SOL     OW39123   4.847  10.662   7.078  0.6740  1.0264  0.3472
44003SOL    HW139124   4.845  10.572   7.045  1.2771  1.2798 -0.4437
44003SOL    HW239125   4.756  10.682   7.101  1.0164 -1.1133  4.4375
44004SOL     OW39126   7.531   0.989   5.188  0.4178 -0.2158  0.2080
44004SOL    HW139127   7.473   0.915   5.175 -1.5514  1.2592  0.1716
44004SOL    HW239128   7.573   1.003   5.103 -0.5510 -0.2037 -0.2735
44005SOL     OW39129   3.004   7.915   2.833  0.4579  0.1187  0.1252
44005SOL    HW139130   2.993   7.886   2.742 -0.7968 -1.9727  0.8681
44005SOL    HW239131   3.088   7.878   2.860 -0.9322 -2.8277  0.9296
44006SOL     OW39132  10.157  10.071  12.319  0.5100 -0.3519  0.0772
44006SOL    HW139133  10.198  10.038  12.239  0.8008 -0.2011  0.1625
44006SOL    HW239134  10.099  10.141  12.288  1.5657  0.5697  0.1108
44007SOL     OW39135   1.265   6.498   7.803 -0.4415 -0.2990  0.2135
44007SOL    HW139136   1.225   6.471   7.886  0.2922  0.9647  0.9934
44007SOL    HW239137   1.346   6.542   7.828  0.8306 -1.6444 -1.2822
44008SOL     OW39138   6.041   5.171   2.396 -0.3365  0.0420  0.5135
44008SOL    HW139139   5.986   5.158   2.319 -0.2762 -1.4239  0.6808
44008SOL    HW239140   6.041   5.265   2.411 -0.8913  0.2760 -0.8770
44009SOL     OW39141   4.445   0.786   3.524  0.4771 -0.2952 -0.8450
44009SOL    HW139142   4.422   0.860   3.469  1.0523 -0.4350 -1.2927
44009SOL    HW239143   4.362   0.741   3.541  0.4324 -1.1354 -2.9068
44010SOL     OW39144  10.872   3.059   3.093  0.5956 -0.4616 -0.4231
44010SOL    HW139145  10.816   3.085   3.020  0.0638 -1.9423 -0.5722
44010SOL    HW239146  10.855   3.124   3.161 -1.8164 -1.1818 -0.2336
44011SOL     OW39147   1.300   0.530   6.488  0.3312  0.3360  0.4233
44011SOL    HW139148   1.237   0.581   6.539  0.7781  0.0060  1.3349
44011SOL    HW239149   1.378   0.586   6.484  0.8194 -0.2431  1.4177
44012SOL     OW39150  10.137   0.396   0.666  0.2086  0.2843 -0.3086
44012SOL    HW139151  10.140   0.313   0.619  0.8454 -0.5691  1.1778
44012SOL    HW239152  10.182   0.458   0.608 -0.5822 -0.2865 -1.5889
44013SOL     OW39153  10.947   5.943  11.948  0.3829 -0.1131 -0.3265
44013SOL    HW139154  11.034   5.910  11.971  0.5064  0.4691  0.0761
44013SOL    HW239155  10.895   5.931  12.028  0.4551  0.7365 -0.1442
44014SOL     OW39156   0.359   2.249   2.434  0.0069  0.1798 -0.3643
44014SOL    HW139157   0.382   2.220   2.522 -1.2784  0.2394  0.0177
44014SOL    HW239158   0.381   2.342   2.433  1.7226 -0.2083 -0.7310
44015SOL     OW39159   0.179   2.535  11.481  0.0442  0.5214 -0.3905
44015SOL    HW139160   0.164   2.620  11.439  2.9063  0.7338 -1.1628
44015SOL    HW239161   0.122   2.475  11.433 -3.1296  2.1183  1.0932
44016SOL     OW39162   2.193  10.886  12.499  0.4475  0.2986  0.3985
44016SOL    HW139163   2.243  10.883  12.581 -1.1447  1.5618  1.4690
44016SOL    HW239164   2.104  10.908  12.526  0.0271  1.4949 -1.7457
44017SOL     OW39165   1.718   5.042   5.772 -0.2606 -0.1491 -0.1168
44017SOL    HW139166   1.811   5.062   5.786 -0.1753 -0.9485  0.5112
44017SOL    HW239167   1.675   5.127   5.779  0.3949  0.1976 -0.1654
44018SOL     OW39168   1.775   6.668   7.945  0.4350  0.1744  0.2738
44018SOL    HW139169   1.815   6.619   7.873 -1.0743  0.3227 -0.7233
44018SOL    HW239170   1.848   6.711   7.989  1.5391 -1.0637 -0.2913
44019SOL     OW39171   6.597  11.619   6.625  0.3500 -0.2368 -0.4594
44019SOL    HW139172   6.600  11.709   6.593 -0.5655  0.5495  1.4972
44019SOL    HW239173   6.504  11.595   6.620  0.5464 -0.9603 -0.6875
44020SOL     OW39174   7.598  10.266   2.297 -0.1512  0.1789  0.1889
44020SOL    HW139175   7.571  10.205   2.365  1.0652 -0.2908  0.2839
44020SOL    HW239176   7.694  10.266   2.302 -0.0128 -0.0758 -1.6902
44021SOL     OW39177   2.783  10.356   6.400 -0.0895  0.7368 -0.1937
44021SOL    HW139178   2.724  10.281   6.393 -1.0958  1.6623 -2.8123
44021SOL    HW239179   2.726  10.430   6.424  0.8226  0.8481  1.9468
44022SOL     OW39180   0.985  12.373   8.441 -0.2558  0.8579  0.2730
44022SOL    HW139181   1.005  12.279   8.448 -0.0245  0.8442 -0.4978
44022SOL    HW239182   1.070  12.415   8.435 -0.3571  1.1381  0.7347
44023SOL     OW39183   9.339  12.248   7.918 -0.1120  0.0835 -0.0056
44023SOL    HW139184   9.408  12.182   7.918 -0.0575  0.1238  1.0744
44023SOL    HW239185   9.284  12.226   7.993 -0.6098  0.7298 -0.1705
44024SOL     OW39186   7.384   6.896  10.070  0.2571  0.1805  0.0654
44024SOL    HW139187   7.358   6.821  10.016  0.9880 -0.3609  0.4588
44024SOL    HW239188   7.317   6.900  10.138 -0.4974  0.6765 -0.6926
44025SOL     OW39189   3.993   8.123   4.569 -0.6540  0.4867  0.0723
44025SOL    HW139190   4.011   8.210   4.532 -3.6591  0.7583 -1.1271
44025SOL    HW239191   4.058   8.111   4.638  1.1297  2.8010 -1.0723
44026SOL     OW39192   6.913   4.635   3.945  0.0159 -0.3819  0.0859
44026SOL    HW139193   6.885   4.649   4.035 -0.0453 -1.1064  0.1865
44026SOL    HW239194   6.995   4.683   3.937 -0.7256  0.9068  0.0854
44027SOL     OW39195   7.615   9.943   3.225  0.0261 -0.0441  0.6049
44027SOL    HW139196   7.580   9.941   3.136 -1.1497 -0.8092  1.0658
44027SOL    HW239197   7.708   9.923   3.215 -0.2367 -0.8366 -0.3805
44028SOL     OW39198   9.993  11.860   6.110  0.2197  0.2303  0.1102
44028SOL    HW139199   9.922  11.801   6.087  0.2015  0.6200 -0.8629
44028SOL    HW239200   9.952  11.946   6.117  0.5083  0.3753  0.0476
44029SOL     OW39201   7.039  11.151   8.337 -0.6135  0.5279  0.0557
44029SOL    HW139202   7.053  11.056   8.335  1.2799  0.7674 -2.1667
44029SOL    HW239203   7.080  11.179   8.418 -1.0412 -0.4995  0.6567
44030SOL     OW39204   2.339   4.732   3.744  0.0965  0.2785 -0.0355
44030SOL    HW139205   2.279   4.781   3.688  0.1412  1.3803  0.8467
44030SOL    HW239206   2.411   4.793   3.761  1.3544 -0.9248 -0.8523
44031SOL     OW39207   5.606  11.948   1.294  0.6710  0.7593  0.3040
44031SOL    HW139208   5.688  11.992   1.316 -0.0450  1.1735  2.2902
44031SOL    HW239209   5.568  11.924   1.378 -1.0704  0.2397 -0.5866
44032SOL     OW39210   4.346  12.920   2.767 -0.0040 -0.1694 -0.5322
44032SOL    HW139211   4.301  12.867   2.832 -1.1280 -0.4346 -1.4805
44032SOL    HW239212   4.279  12.980   2.734  1.1629  1.7057  0.3300
44033SOL     OW39213   2.558  11.619   1.938 -0.5147 -0.3829 -0.6105
44033SOL    HW139214   2.558  11.713   1.957  0.8876 -0.5465  0.3555
44033SOL    HW239215   2.579  11.578   2.021 -0.1282 -1.4998 -1.2415
44034SOL     OW39216   5.376   5.921   9.442 -0.5902 -0.5196  0.2832
44034SOL    HW139217   5.382   5.901   9.349 -0.4840 -3.4150  0.8151
44034SOL    HW239218   5.286   5.951   9.455 -0.5188  0.1793 -0.7624
44035SOL     OW39219   2.695   5.908   1.233 -0.5405 -0.1156  0.1609
44035SOL    HW139220   2.748   5.899   1.312  1.0521 -4.5686 -1.0807
44035SOL    HW239221   2.746   5.965   1.176  0.6298 -0.5818  0.6997
44036SOL     OW39222   3.433   3.363  10.706  0.6059  0.0030  0.0413
44036SOL    HW139223   3.504   3.397  10.651 -0.2989  1.8169 -0.0884
44036SOL    HW239224   3.424   3.271  10.680  1.6868  0.2230 -1.2317
44037SOL     OW39225   4.323  10.564   4.139  0.1620 -0.6989 -0.1722
44037SOL    HW139226   4.410  10.601   4.120 -0.8869  1.5178 -1.0136
44037SOL    HW239227   4.310  10.583   4.232  0.8365 -1.6583  0.1299
44038SOL     OW39228  11.485   6.846  12.204 -0.2371  0.3276  0.8379
44038SOL    HW139229  11.497   6.765  12.253  4.1757 -0.2780 -0.7973
44038SOL    HW239230  11.512   6.915  12.265  1.7639 -0.0949  0.4982
44039SOL     OW39231  12.196   6.003   7.177  0.2136  0.2278  0.0628
44039SOL    HW139232  12.285   6.019   7.146  0.4476 -0.4789  0.3410
44039SOL    HW239233  12.151   5.962   7.103  0.4826 -0.5410  0.3118
44040SOL     OW39234   6.125  10.937  10.481  0.0269 -0.3117  0.0209
44040SOL    HW139235   6.044  10.887  10.486  1.0111 -2.1962 -1.4048
44040SOL    HW239236   6.118  10.986  10.399 -0.4347  1.0574  0.8413
44041SOL     OW39237   8.061   1.971   8.647  0.3660 -0.1700 -0.0924
44041SOL    HW139238   7.997   1.900   8.649 -0.3480  0.4591 -0.1932
44041SOL    HW239239   8.045   2.019   8.728  0.3915  0.2730 -0.3523
44042SOL     OW39240   9.482   6.893  10.713 -0.6278  0.2359 -0.4527
44042SOL    HW139241   9.450   6.812  10.676 -0.6420 -0.6385  1.3589
44042SOL    HW239242   9.435   6.902  10.796 -0.0086  1.6591 -0.2207
44043SOL     OW39243   7.065  10.684   5.567 -0.2226 -0.3458 -0.3035
44043SOL    HW139244   7.066  10.780   5.568  0.2898 -0.3303  1.5089
44043SOL    HW239245   7.154  10.659   5.541  0.2477 -0.2794  1.1385
44044SOL     OW39246   1.247   7.423   5.653  0.3309  0.1559 -0.1415
44044SOL    HW139247   1.231   7.378   5.569 -1.4546 -0.3624  0.4279
44044SOL    HW239248   1.285   7.356   5.709 -1.5024 -0.4623  0.4304
44045SOL     OW39249   4.132  11.606   4.608  0.5201  0.8429 -0.2549
44045SOL    HW139250   4.190  11.548   4.657 -0.0871  0.3007 -0.1542
44045SOL    HW239251   4.101  11.552   4.535 -1.9503  0.1891  1.1750
44046SOL     OW39252   4.232   6.699   4.712 -0.3545  0.0754  0.0557
44046SOL    HW139253   4.323   6.669   4.718 -0.3920 -0.2506 -0.9000
44046SOL    HW239254   4.228   6.774   4.771  0.6552  0.3847 -0.2519
44047SOL     OW39255  12.577  12.512   2.069 -0.3643 -0.1589 -0.1195
44047SOL    HW139256  12.616  12.527   1.983  1.3017 -1.4058  0.3811
44047SOL    HW239257  12.499  12.568   2.069  3.1612  5.6753  0.1634
44048SOL     OW39258   0.384  10.843  12.810  0.0911 -0.2485  0.7025
44048SOL    HW139259   0.346  10.843  12.722  0.3351 -0.0008  0.5971
44048SOL    HW239260   0.331  10.779  12.858  0.2815 -0.7670  0.2353
44049SOL     OW39261  10.276   4.290   9.685 -0.5143 -0.2571 -0.2078
44049SOL    HW139262  10.319   4.373   9.706  0.0422 -0.4945 -0.3785
44049SOL    HW239263  10.306   4.230   9.753 -0.4802 -0.4556 -0.3954
44050SOL     OW39264   1.549  10.506   3.466  0.3034  0.2905  0.3283
44050SOL    HW139265   1.580  10.542   3.383  2.9630 -0.3921  0.9152
44050SOL    HW239266   1.562  10.412   3.458 -2.2685 -0.1395  0.4760
44051SOL     OW39267  12.284   4.528   1.893  0.3835 -0.0942 -0.3624
44051SOL    HW139268  12.346   4.581   1.843 -2.3020  0.9307 -2.8958
44051SOL    HW239269  12.243   4.590   1.953 -0.5295  0.0458 -1.1038
44052SOL     OW39270   8.198   1.675  10.128 -0.5966  0.5096 -0.2116
44052SOL    HW139271   8.104   1.685  10.136 -0.3624  1.5606  2.2553
44052SOL    HW239272   8.217   1.588  10.164 -0.3891  1.6675  2.7337
44053SOL     OW39273   2.848   6.506   8.589 -0.2509  0.3178  0.0360
44053SOL    HW139274   2.927   6.559   8.584 -0.1822  0.2667  0.4799
44053SOL    HW239275   2.842   6.462   8.505  1.2913 -1.2323  0.6795
44054SOL     OW39276   6.716   0.473   3.089  0.1287  0.1446 -0.3896
44054SOL    HW139277   6.638   0.498   3.039 -0.9609 -0.8957  0.7219
44054SOL    HW239278   6.748   0.394   3.044  0.9083  0.8761 -1.1749
44055SOL     OW39279   5.495   4.123   6.351  0.4116  0.3412  0.0700
44055SOL    HW139280   5.451   4.058   6.297 -0.9004  0.9899  0.3096
44055SOL    HW239281   5.509   4.079   6.435  0.4695  0.0446 -0.0928
44056SOL     OW39282   6.624   1.707  12.746  0.1184 -0.0903 -0.7610
44056SOL    HW139283   6.656   1.638  12.687  0.5674  0.6094 -1.3562
44056SOL    HW239284   6.557   1.664  12.798  0.0245 -0.8523 -1.4821
44057SOL     OW39285   3.568   4.193  10.169 -0.2638  0.0754  0.4788
44057SOL    HW139286   3.624   4.120  10.197 -0.1113  0.0884  0.2171
44057SOL    HW239287   3.613   4.271  10.201  0.1974  0.1238 -0.2628
44058SOL     OW39288   2.027   2.330   6.290 -0.3831 -0.3927  0.9274
44058SOL    HW139289   2.072   2.404   6.251  2.3748 -0.5909  3.4592
44058SOL    HW239290   1.937   2.360   6.302  0.3658  2.0930  0.7559
44059SOL     OW39291  11.155   1.908  12.955 -0.3445 -0.2679  0.3108
44059SOL    HW139292  11.216   1.912  13.029  0.8044  3.5282 -0.5730
44059SOL    HW239293  11.068   1.913  12.994 -0.0280 -2.6490  1.4759
44060SOL     OW39294   8.785   9.671   2.766  0.3924 -0.0352 -0.5203
44060SOL    HW139295   8.755   9.758   2.739 -0.1755 -0.2906 -0.7213
44060SOL    HW239296   8.765   9.614   2.691  0.7618 -0.3419 -0.3931
44061SOL     OW39297   5.919   3.601   6.222 -0.2395 -0.3602 -0.1033
44061SOL    HW139298   5.924   3.689   6.185  1.1159 -0.1660  0.5039
44061SOL    HW239299   5.835   3.567   6.191 -1.7816  1.9004  1.3914
44062SOL     OW39300   4.570   7.599  10.975  0.0096 -0.1978  0.4936
44062SOL    HW139301   4.596   7.630  10.889  2.0606  0.9763  1.4599
44062SOL    HW239302   4.605   7.664  11.036  0.7453 -2.2019  2.3611
44063SOL     OW39303   0.067   6.375   5.707  0.0144 -0.2842  0.3291
44063SOL    HW139304   0.125   6.344   5.637 -1.3375  0.6342 -1.2866
44063SOL    HW239305   0.075   6.471   5.703  0.8605 -0.2158  2.3367
44064SOL     OW39306   6.262   3.739   1.215 -0.0380  0.6269 -0.1768
44064SOL    HW139307   6.196   3.774   1.276 -0.2696  1.7527 -1.0379
44064SOL    HW239308   6.236   3.772   1.129  0.8453 -0.1084 -0.7521
44065SOL     OW39309   0.421   2.230  11.451 -0.7301 -0.4154  0.1978
44065SOL    HW139310   0.358   2.180  11.503 -0.0472 -0.2694  1.2052
44065SOL    HW239311   0.505   2.187  11.467 -0.1993  0.7703  0.7323
44066SOL     OW39312   1.149   5.965   1.824  0.2323 -0.1540 -0.2330
44066SOL    HW139313   1.190   5.924   1.900 -1.8676 -1.9027  0.0452
44066SOL    HW239314   1.070   6.006   1.858  0.2819  0.7694 -1.1840
44067SOL     OW39315   0.783  12.673   5.535 -0.0029  0.1032 -0.1087
44067SOL    HW139316   0.799  12.612   5.607 -2.0811  0.4178  0.7134
44067SOL    HW239317   0.718  12.629   5.480  3.2926 -1.2446 -3.3801
44068SOL     OW39318   6.040  12.859   5.802  0.4520 -1.2810  0.0732
44068SOL    HW139319   6.027  12.840   5.895  1.0454 -1.5863  0.0971
44068SOL    HW239320   6.105  12.929   5.801 -0.5102 -0.3612 -0.0764
44069SOL     OW39321  12.830   1.900   1.800  0.5230 -0.0813  0.2450
44069SOL    HW139322  12.741   1.922   1.826  0.0614  0.9802 -1.9518
44069SOL    HW239323  12.822   1.816   1.755  0.5995  0.0634 -0.0424
44070SOL     OW39324   5.870   5.223   0.900  0.1326  0.0363  0.4403
44070SOL    HW139325   5.890   5.315   0.917 -0.2392 -0.0330  1.3448
44070SOL    HW239326   5.796   5.224   0.840  0.3867  0.3180  0.1262
44071SOL     OW39327   0.755  11.343   7.860  0.1912 -0.4693 -0.2224
44071SOL    HW139328   0.714  11.282   7.922 -0.4365 -0.7396 -0.8973
44071SOL    HW239329   0.819  11.390   7.913 -0.4943 -0.5329  0.6927
44072SOL     OW39330   5.028   0.959  12.332 -0.1559  0.1273 -0.3256
44072SOL    HW139331   5.018   1.051  12.305  1.3350 -0.2128 -2.2851
44072SOL    HW239332   4.999   0.909  12.255 -2.8936 -1.1644  1.4137
44073SOL     OW39333   1.794   3.256   3.083 -0.0205 -0.3508  0.9687
44073SOL    HW139334   1.699   3.264   3.083  0.0045  0.1395 -0.3525
44073SOL    HW239335   1.817   3.245   2.991  1.2842  0.6428  1.1510
44074SOL     OW39336   6.575   6.700   0.665  0.0426  0.7647  0.2723
44074SOL    HW139337   6.596   6.615   0.705 -0.6019  0.5596  0.1788
44074SOL    HW239338   6.621   6.764   0.720 -0.7591  0.4871  1.3023
44075SOL     OW39339   1.211   8.752   7.466 -0.4876  0.6186  0.7396
44075SOL    HW139340   1.127   8.732   7.424  0.5049 -0.9378 -0.6309
44075SOL    HW239341   1.264   8.790   7.396 -0.1268  1.8812  1.6673
44076SOL     OW39342  10.337   6.712  11.679 -0.1742  0.1786  0.3541
44076SOL    HW139343  10.353   6.801  11.648 -1.7394 -0.5025 -2.7943
44076SOL    HW239344  10.300   6.723  11.766  2.3973  2.3943  1.2980
44077SOL     OW39345   0.892   1.868   1.254  0.0402 -0.0173  0.2956
44077SOL    HW139346   0.964   1.833   1.305  0.4976 -0.9245 -0.9363
44077SOL    HW239347   0.867   1.797   1.194 -0.3900  1.0357 -0.8277
44078SOL     OW39348   8.505   2.055  11.139 -0.1273 -0.0368  0.4044
44078SOL    HW139349   8.416   2.088  11.148 -0.4030 -0.1558 -1.5043
44078SOL    HW239350   8.495   1.968  11.101  0.8276  0.7171 -1.7032
44079SOL     OW39351   1.321   5.268   4.117  0.5023 -0.0436 -0.2020
44079SOL    HW139352   1.245   5.304   4.071 -0.5149 -0.1208  1.3379
44079SOL    HW239353   1.370   5.220   4.049  0.1662  1.5059 -1.5946
44080SOL     OW39354  11.804   7.519   6.874 -0.7559 -0.6780  0.2679
44080SOL    HW139355  11.714   7.488   6.884 -0.6725 -1.3597 -0.9191
44080SOL    HW239356  11.852   7.478   6.946 -1.4627  0.0426  1.1796
44081SOL     OW39357   9.606   7.118   3.127  0.4891  0.1578 -0.6507
44081SOL    HW139358   9.522   7.146   3.164  1.5018  0.5474  1.5144
44081SOL    HW239359   9.666   7.190   3.148  1.9705 -1.2901  0.3292
44082SOL     OW39360   3.158   9.756   4.959  0.1880 -0.4241  0.1136
44082SOL    HW139361   3.103   9.686   4.994  0.6794 -1.8399 -1.7609
44082SOL    HW239362   3.097   9.813   4.913 -0.0018 -0.6874  0.0348
44083SOL     OW39363   2.018   0.269  10.224  0.0502 -0.0469  0.0110
44083SOL    HW139364   2.088   0.247  10.286  0.7916 -2.3018 -1.4865
44083SOL    HW239365   2.052   0.343  10.175  1.8275 -1.5815 -1.2166
44084SOL     OW39366   3.332   4.102   0.086 -0.1216 -0.5708  0.4231
44084SOL    HW139367   3.307   4.128   0.175 -1.4427 -1.1015  0.2242
44084SOL    HW239368   3.421   4.137   0.075  0.2427 -0.8586  2.1098
44085SOL     OW39369   6.097   8.724   2.115  0.0542 -0.1339  0.4441
44085SOL    HW139370   6.087   8.797   2.053 -2.1713 -0.6007  0.1913
44085SOL    HW239371   6.088   8.765   2.201  0.3488  0.0997  0.3668
44086SOL     OW39372  12.478   2.813   3.736  0.7454  0.4961 -0.1608
44086SOL    HW139373  12.491   2.732   3.687  1.2157  1.1434 -1.1382
44086SOL    HW239374  12.550   2.870   3.709  0.7944  1.0181  1.0028
44087SOL     OW39375   7.107   1.585   8.102  0.1387 -0.6775  0.1696
44087SOL    HW139376   7.091   1.550   8.190 -0.2271 -0.0260  0.3704
44087SOL    HW239377   7.155   1.666   8.117 -0.1710 -0.4188 -0.2129
44088SOL     OW39378   3.722   0.378  11.360  0.0303 -0.2578  0.6559
44088SOL    HW139379   3.794   0.371  11.297  0.0392 -0.2055  0.6601
44088SOL    HW239380   3.705   0.472  11.366 -1.5357 -0.3735 -1.0499
44089SOL     OW39381   7.442   8.330  11.902 -0.0370  0.4960 -0.3097
44089SOL    HW139382   7.421   8.325  11.809 -0.9372  0.5112 -0.1185
44089SOL    HW239383   7.508   8.262  11.916 -1.3820 -0.9150 -0.5627
44090SOL     OW39384   1.476   0.823   6.504  0.0696  0.4004  0.2600
44090SOL    HW139385   1.517   0.752   6.454  2.0612  0.8069  1.2190
44090SOL    HW239386   1.476   0.898   6.444 -1.9050 -0.2962 -0.7054
44091SOL     OW39387  12.488   0.763  10.925 -0.1055  0.1608  0.5957
44091SOL    HW139388  12.525   0.849  10.909 -0.7611  0.4012  0.3334
44091SOL    HW239389  12.395   0.772  10.903 -0.5326 -0.1770  2.1049
44092SOL     OW39390  11.392   0.942   8.015  0.1161  0.5390 -0.2021
44092SOL    HW139391  11.336   0.977   7.946 -0.6892  0.2871  0.3110
44092SOL    HW239392  11.349   0.968   8.097 -1.1656 -2.4989  0.2287
44093SOL     OW39393   9.782   6.815   3.689  0.1913  0.2023  0.2319
44093SOL    HW139394   9.751   6.802   3.778  1.1744  0.4230  0.6161
44093SOL    HW239395   9.817   6.729   3.663  1.3915  0.5538  0.6587
44094SOL     OW39396   2.118   3.993   5.431  0.9776  0.1296 -0.0910
44094SOL    HW139397   2.064   3.980   5.353  0.5396  1.1909  0.0127
44094SOL    HW239398   2.174   3.916   5.435  0.6314 -0.1921 -1.1501
44095SOL     OW39399   8.887   6.428   6.619 -0.3568  0.5360  0.0643
44095SOL    HW139400   8.904   6.507   6.670  0.2813  1.4481 -1.4945
44095SOL    HW239401   8.922   6.357   6.674  0.3576  1.4772  0.8663
44096SOL     OW39402   8.841   9.393   0.300 -0.1282 -0.2191  0.1199
44096SOL    HW139403   8.776   9.461   0.282  2.7316  3.4086  2.1239
44096SOL    HW239404   8.915   9.414   0.243  0.9053 -1.6243  0.8658
44097SOL     OW39405   6.700   2.123   0.962  0.4382 -0.0690 -0.2068
44097SOL    HW139406   6.607   2.135   0.981  0.9471  0.6538  2.1458
44097SOL    HW239407   6.709   2.029   0.944 -0.6399 -0.2912  0.3453
44098SOL     OW39408   5.568  11.375   6.375  0.2176 -0.4531  0.3570
44098SOL    HW139409   5.526  11.290   6.388 -0.0356 -0.2496  0.8966
44098SOL    HW239410   5.580  11.382   6.280 -2.4247  0.1771  0.0042
44099SOL     OW39411   8.084  11.089  11.481  0.4276  0.7156 -0.2065
44099SOL    HW139412   8.059  11.093  11.574  1.0627 -0.2568  0.0181
44099SOL    HW239413   8.144  11.015  11.475  1.5465  1.6600 -1.1362
44100SOL     OW39414   1.010   8.407   6.090  0.0810  0.1076 -0.4980
44100SOL    HW139415   0.963   8.333   6.052 -0.7618 -0.2299  1.1178
44100SOL    HW239416   1.045   8.454   6.014 -3.1705  0.6127 -1.8791
44101SOL     OW39417   1.067   4.082   0.911  0.3078  0.4652  0.4390
44101SOL    HW139418   1.156   4.050   0.896  0.3145  0.4179  0.5821
44101SOL    HW239419   1.055   4.076   1.006  0.0582  0.2196  0.3941
44102SOL     OW39420   7.569   4.243   7.481  0.1308 -0.0502 -0.1285
44102SOL    HW139421   7.527   4.173   7.530 -1.4569  0.9007 -0.0469
44102SOL    HW239422   7.656   4.251   7.520 -0.1351 -1.0895  0.7208
44103SOL     OW39423   7.910   6.112   1.889 -0.6538 -0.2428  0.0184
44103SOL    HW139424   7.927   6.206   1.888 -1.7261 -0.0258  0.5179
44103SOL    HW239425   7.890   6.092   1.981  0.5718 -1.1670  0.1215
44104SOL     OW39426  12.240   4.624   2.218  0.3218  0.4099  0.2319
44104SOL    HW139427  12.268   4.702   2.171  0.5776  0.3083  0.2099
44104SOL    HW239428  12.315   4.603   2.274  0.2226  0.2265  0.2946
44105SOL     OW39429   6.416   8.015  10.100  0.1623 -0.2111  0.1371
44105SOL    HW139430   6.322   7.997  10.097  0.0300  0.1436  1.5160
44105SOL    HW239431   6.441   7.998  10.191  1.1324  1.1729  0.1639
44106SOL     OW39432   4.692   8.106   1.441  0.4732  0.3720  0.2654
44106SOL    HW139433   4.676   8.022   1.484  1.2364  0.5988  1.0389
44106SOL    HW239434   4.778   8.096   1.399 -0.1267  0.2627 -0.9573
44107SOL     OW39435   7.336  11.681   0.959  0.0635 -0.7603  0.1070
44107SOL    HW139436   7.278  11.754   0.937 -0.7439 -1.3730  0.1633
44107SOL    HW239437   7.378  11.658   0.876  1.4670  0.7053  0.3488
44108SOL     OW39438   4.010   8.402   6.166  0.0620  0.0496  0.2519
44108SOL    HW139439   4.052   8.483   6.195  1.4007 -0.4960 -0.0454
44108SOL    HW239440   3.953   8.429   6.094  1.4466  0.6145 -0.7012
44109SOL     OW39441   4.333   4.795   5.275  0.1283  0.2904 -0.3011
44109SOL    HW139442   4.392   4.764   5.207  0.8146  0.9633 -0.0264
44109SOL    HW239443   4.359   4.886   5.291 -0.3034  0.2820  0.5503
44110SOL     OW39444  10.183  10.833  12.163 -0.1632 -0.2077  0.1493
44110SOL    HW139445  10.093  10.801  12.156  0.5142 -1.9872 -0.9555
44110SOL    HW239446  10.224  10.777  12.228  0.4197 -0.0213 -0.0518
44111SOL     OW39447  11.962   1.208  12.648 -0.0176  0.4746  0.1217
44111SOL    HW139448  12.000   1.284  12.603 -1.2446  1.0929  0.0816
44111SOL    HW239449  11.893   1.245  12.704 -0.1629 -0.5386  0.6367
44112SOL     OW39450  10.911   0.827   4.752 -0.2285  0.5799 -0.1226
44112SOL    HW139451  10.979   0.888   4.725  0.4549  0.3917  1.1443
44112SOL    HW239452  10.953   0.741   4.750 -0.6083  0.3869  0.0660
44113SOL     OW39453   7.620   5.682   0.253  0.0091  0.2685 -0.3260
44113SOL    HW139454   7.609   5.776   0.241  0.3808  0.1686 -1.6149
44113SOL    HW239455   7.637   5.671   0.347  1.6590  1.6571 -0.4150
44114SOL     OW39456   3.059   2.318   0.800  0.1338  0.6162 -0.2617
44114SOL    HW139457   3.140   2.332   0.850 -0.2003  1.2510  0.1211
44114SOL    HW239458   2.990   2.350   0.858 -0.3952  0.0774 -0.5868
44115SOL     OW39459  10.837   7.928  11.512  0.3394 -0.0358 -0.3525
44115SOL    HW139460  10.828   7.834  11.526 -0.6194  0.4785  3.6847
44115SOL    HW239461  10.751   7.956  11.483  1.0945 -0.4762 -3.4401
44116SOL     OW39462   3.634  10.543   3.496 -0.1383 -0.4642 -0.4325
44116SOL    HW139463   3.657  10.628   3.534  0.8033  0.0510 -2.0408
44116SOL    HW239464   3.542  10.551   3.472 -0.5406 -0.5444  1.0074
44117SOL     OW39465   1.299   9.053   3.381 -0.4224 -0.2091  0.5510
44117SOL    HW139466   1.212   9.013   3.377 -0.6886  0.4274 -0.3361
44117SOL    HW239467   1.293   9.120   3.449 -1.2589  1.2430 -0.8865
44118SOL     OW39468   4.931   7.677   0.038  0.6436 -0.4425  0.0275
44118SOL    HW139469   4.890   7.597   0.006  1.4740 -0.4479 -1.0916
44118SOL    HW239470   4.944   7.662   0.131 -2.7953 -0.0239  0.6925
44119SOL     OW39471  11.251   8.293  10.413  0.1133 -0.5452 -0.1747
44119SOL    HW139472  11.296   8.349  10.349 -0.9059  0.6722  0.1410
44119SOL    HW239473  11.232   8.213  10.364 -2.1665  0.9771 -2.0260
44120SOL     OW39474  10.340  11.060   6.586 -0.9110 -0.2132 -0.1782
44120SOL    HW139475  10.371  11.138   6.540 -1.6509  1.0448  1.3610
44120SOL    HW239476  10.344  11.083   6.678 -3.3332 -1.1206  0.2357
44121SOL     OW39477   9.007   8.439   9.451 -0.1641  0.5445 -0.5599
44121SOL    HW139478   8.983   8.347   9.463  1.3588  0.0543 -1.0823
44121SOL    HW239479   9.034   8.445   9.360 -0.2327  1.5209 -0.5215
44122SOL     OW39480   3.985   9.513  11.472  0.1302 -0.4025  0.4525
44122SOL    HW139481   4.048   9.441  11.483  2.0951  0.4908 -3.1129
44122SOL    HW239482   3.911   9.473  11.427  0.9896 -0.3790 -1.0488
44123SOL     OW39483   3.893   8.440   1.012  0.2668  0.1474  0.9006
44123SOL    HW139484   3.839   8.518   1.023 -0.2937 -0.0748 -0.1159
44123SOL    HW239485   3.959   8.446   1.081 -0.2878  1.0778  1.3648
44124SOL     OW39486  11.190   2.573   6.320 -0.0496 -0.6503  0.1055
44124SOL    HW139487  11.280   2.558   6.350  0.0171 -0.6003 -0.0671
44124SOL    HW239488  11.165   2.656   6.361 -0.3611 -1.1413  0.9349
44125SOL     OW39489   7.584  11.206   8.094 -0.1089  0.7593  0.5732
44125SOL    HW139490   7.577  11.195   7.999 -1.2015 -1.6177  0.8571
44125SOL    HW239491   7.676  11.187   8.113 -0.0156  0.6728  0.0623
44126SOL     OW39492   1.567   8.345   0.805 -0.0911 -0.7475  0.1314
44126SOL    HW139493   1.479   8.376   0.827 -0.0538  0.1715 -0.8818
44126SOL    HW239494   1.554   8.289   0.729  0.2170 -0.3703 -0.2041
44127SOL     OW39495   6.275   0.488   7.377  0.1249  0.2756 -0.3256
44127SOL    HW139496   6.318   0.424   7.321 -1.8244 -2.7097  1.3235
44127SOL    HW239497   6.346   0.526   7.430  1.1457 -2.4921  0.4499
44128SOL     OW39498   7.970   7.689  12.313 -0.4589 -0.0388  0.1416
44128SOL    HW139499   7.980   7.704  12.219  0.4533 -1.5107 -0.0257
44128SOL    HW239500   8.055   7.653  12.340 -1.6081 -2.2638  0.9757
44129SOL     OW39501  10.048   2.955   0.876  0.0505  0.1467 -0.0990
44129SOL    HW139502   9.977   2.944   0.812  0.7071  0.2113 -0.8526
44129SOL    HW239503  10.027   3.037   0.921 -0.6079 -0.0826  0.0170
44130SOL     OW39504   2.353   3.269  12.346  0.0908  0.0502 -0.4412
44130SOL    HW139505   2.366   3.293  12.438 -0.8105  1.2594 -0.5950
44130SOL    HW239506   2.437   3.235  12.317 -0.0971 -2.1218  1.3322
44131SOL     OW39507   9.533   1.207   2.065 -0.2516  0.4049 -0.4249
44131SOL    HW139508   9.486   1.277   2.109 -0.2543 -0.6969  1.4384
44131SOL    HW239509   9.622   1.241   2.053  0.1720  0.2399  1.8555
44132SOL     OW39510   7.482  10.207   8.841  0.1331  0.8115 -0.0925
44132SOL    HW139511   7.515  10.287   8.882  0.1085  1.1579 -0.7269
44132SOL    HW239512   7.559  10.168   8.800 -0.2322  1.7140 -1.7279
44133SOL     OW39513  10.140  12.144   3.353  0.1996  0.5182  0.4050
44133SOL    HW139514  10.187  12.110   3.276  1.5681  0.5770  1.1834
44133SOL    HW239515  10.130  12.067   3.410  1.6279  0.9863  1.3401
44134SOL     OW39516  11.394   8.214  11.712 -0.0262 -0.5910 -0.0440
44134SOL    HW139517  11.353   8.163  11.643  1.4016 -0.5456 -0.9667
44134SOL    HW239518  11.359   8.177  11.794 -0.5319 -1.6897 -0.7364
44135SOL     OW39519   7.827  11.005   5.721 -0.3159 -0.1245 -0.0450
44135SOL    HW139520   7.736  11.012   5.691 -0.7384  0.3613  1.2550
44135SOL    HW239521   7.828  11.051   5.805  0.5760 -2.1154  1.1158
44136SOL     OW39522   0.612  12.343   6.913  0.4458  0.0323  0.2421
44136SOL    HW139523   0.630  12.436   6.899  0.0329  0.2509  1.1007
44136SOL    HW239524   0.549  12.341   6.985 -0.5959 -0.8671 -0.6766
44137SOL     OW39525   0.023   5.968   5.333  0.0605  0.0273  0.4345
44137SOL    HW139526   0.027   5.931   5.421  0.1108 -1.9895 -0.3625
44137SOL    HW239527  -0.070   5.980   5.316  0.0953  1.7214  1.2257
44138SOL     OW39528   0.606  11.917   8.596 -0.3347 -0.0309 -0.3389
44138SOL    HW139529   0.694  11.894   8.626 -0.0091  1.8087  0.2756
44138SOL    HW239530   0.554  11.923   8.677 -1.2460 -1.7744 -0.7422
44139SOL     OW39531  12.843   9.746   2.485 -0.9975  0.0750 -0.5599
44139SOL    HW139532  12.855   9.660   2.446  3.1370  0.7460 -1.1983
44139SOL    HW239533  12.762   9.779   2.445 -1.1505 -2.3671 -2.5072
44140SOL     OW39534   9.415   0.555  12.143  0.3301 -0.3526  0.5594
44140SOL    HW139535   9.485   0.620  12.154  0.5333 -0.4353 -0.1933
44140SOL    HW239536   9.411   0.540  12.049  0.2692 -1.4252  0.7239
44141SOL     OW39537   8.519   7.095   7.322  0.7504  0.1772  0.1979
44141SOL    HW139538   8.444   7.098   7.382  0.5178 -0.2365 -0.0759
44141SOL    HW239539   8.552   7.006   7.328  0.4413 -0.0030 -0.6409
44142SOL     OW39540   6.884   0.742   8.319  0.0764 -0.1249 -0.3403
44142SOL    HW139541   6.976   0.759   8.340  0.1720  0.2808 -1.0733
44142SOL    HW239542   6.848   0.705   8.400  0.2318  2.1668  0.8630
44143SOL     OW39543   2.669  10.883  12.475  0.6599  0.3315  0.0069
44143SOL    HW139544   2.641  10.967  12.512 -0.7136  1.5556 -3.3729
44143SOL    HW239545   2.764  10.888  12.474  0.6021  2.1706 -0.6609
44144SOL     OW39546   5.011   4.758   5.922 -0.7349  0.1242 -0.2529
44144SOL    HW139547   4.995   4.840   5.969  0.3523 -0.4884  1.2713
44144SOL    HW239548   5.092   4.773   5.873 -1.2816  0.3981 -1.0964
44145SOL     OW39549   1.355   7.502   5.131  0.4615 -0.1229  0.2790
44145SOL    HW139550   1.279   7.444   5.127  1.5312 -1.5303 -0.6444
44145SOL    HW239551   1.397   7.493   5.045  1.3520  1.0704  0.5629
44146SOL     OW39552   4.640  11.304   8.177 -0.5123  0.2956  0.1843
44146SOL    HW139553   4.716  11.247   8.164  0.4549  1.1714  1.6921
44146SOL    HW239554   4.570  11.264   8.124  0.6826 -1.1306 -0.3787
44147SOL     OW39555  10.152  10.921   7.629 -0.1995  0.2906  0.1927
44147SOL    HW139556  10.065  10.932   7.668 -1.1360 -1.7356 -1.1675
44147SOL    HW239557  10.145  10.959   7.542  0.2845  0.1079  0.0708
44148SOL     OW39558   8.412   0.214   4.476  0.2983  0.4083 -0.0610
44148SOL    HW139559   8.432   0.162   4.398 -1.8362  1.1937 -1.2178
44148SOL    HW239560   8.470   0.179   4.544 -1.2484 -3.7804 -0.6180
44149SOL     OW39561   3.869   2.749  11.589 -0.1249 -0.0773  0.0104
44149SOL    HW139562   3.802   2.813  11.615 -0.3185 -0.4558  0.4548
44149SOL    HW239563   3.908   2.722  11.672  1.1383  0.7336 -0.2928
44150SOL     OW39564   2.426   8.395   4.365  0.0863  0.1433 -0.3660
44150SOL    HW139565   2.489   8.410   4.295  1.9742  0.5334  1.3247
44150SOL    HW239566   2.425   8.477   4.415 -0.6248 -0.3668  0.5007
44151SOL     OW39567  11.127   5.422  11.229 -0.0094  0.0588 -0.2266
44151SOL    HW139568  11.059   5.359  11.253 -1.3568  1.0786 -1.2397
44151SOL    HW239569  11.148   5.400  11.138  2.3676 -1.3878  0.5762
44152SOL     OW39570   0.278   4.348   5.302  0.0479 -0.1746  0.5122
44152SOL    HW139571   0.252   4.436   5.276  1.8471 -0.0818 -1.1964
44152SOL    HW239572   0.288   4.300   5.220  2.3670 -0.9544  1.1744
44153SOL     OW39573  11.543   1.756  12.077 -0.1331  0.0257  0.2995
44153SOL    HW139574  11.498   1.723  12.155  2.7100 -0.6862  1.7670
44153SOL    HW239575  11.510   1.845  12.065 -1.4605 -0.2633  1.6015
44154SOL     OW39576   5.731   9.915   3.874  0.4581 -0.1315  0.0082
44154SOL    HW139577   5.769   9.832   3.905  0.7653 -0.3635 -0.9747
44154SOL    HW239578   5.803   9.977   3.875  0.5316 -0.2088 -0.5068
44155SOL     OW39579  11.473   4.869   9.985  0.4513  0.1492 -0.2258
44155SOL    HW139580  11.476   4.916   9.901 -1.6986  1.9983  0.6201
44155SOL    HW239581  11.382   4.841   9.993  1.0583 -1.7094  0.6647
44156SOL     OW39582   0.376  12.176   6.979 -0.5078  0.5595 -0.0731
44156SOL    HW139583   0.431  12.097   6.986 -0.2319  0.8658  1.7229
44156SOL    HW239584   0.410  12.223   6.903  0.3230 -0.3002 -0.2487
44157SOL     OW39585   3.424   7.790   6.941 -0.2743 -0.1584 -0.3849
44157SOL    HW139586   3.341   7.811   6.899 -1.0538 -1.5033  0.3852
44157SOL    HW239587   3.467   7.875   6.955 -1.0534  0.4767 -1.6853
44158SOL     OW39588   6.739   2.011   9.573 -0.1521 -0.0851  0.3327
44158SOL    HW139589   6.697   1.965   9.646  0.0519  0.1969  0.6324
44158SOL    HW239590   6.666   2.035   9.516 -0.2491 -0.8589  0.1231
44159SOL     OW39591   4.211   0.402   1.865 -0.6307 -0.3797  0.0442
44159SOL    HW139592   4.138   0.414   1.805  0.6079 -0.1809 -1.4892
44159SOL    HW239593   4.288   0.396   1.808  0.7869  1.3334  1.6633
44160SOL     OW39594   6.104  10.503   4.360  0.0124  0.4372  0.1909
44160SOL    HW139595   6.135  10.517   4.449  0.0524  1.4848  0.0328
44160SOL    HW239596   6.149  10.569   4.308 -0.2273  0.0291 -0.5576
44161SOL     OW39597   2.628   2.111   8.346 -0.2243 -0.1948 -0.0039
44161SOL    HW139598   2.642   2.174   8.416 -0.8976 -1.6313  1.4918
44161SOL    HW239599   2.534   2.111   8.331  0.0045  0.9200 -1.7692
44162SOL     OW39600   2.068   5.534  11.940  0.0720  0.8101 -0.0143
44162SOL    HW139601   2.043   5.468  11.875  2.5328 -1.1283  0.8079
44162SOL    HW239602   2.007   5.521  12.012 -1.3279  1.5192 -1.0242
44163SOL     OW39603   1.027   6.804   5.447  0.3504 -0.0023  0.4192
44163SOL    HW139604   1.024   6.821   5.353  3.8260  0.7002  0.2956
44163SOL    HW239605   1.019   6.709   5.454  1.1626 -0.1832 -0.7189
44164SOL     OW39606   7.856   6.572   4.127  0.6157 -0.0374 -0.1551
44164SOL    HW139607   7.927   6.630   4.098  1.9402 -1.7290 -0.4470
44164SOL    HW239608   7.857   6.500   4.064 -1.0174 -0.3691  0.1698
44165SOL     OW39609   2.932   8.629   9.318 -0.1990  0.7223  0.2722
44165SOL    HW139610   3.009   8.669   9.359  0.4607 -0.1970 -0.0438
44165SOL    HW239611   2.860   8.686   9.344  0.8032  2.6573 -0.9180
44166SOL     OW39612   8.345   6.362  11.121 -0.1936 -0.1838  0.1858
44166SOL    HW139613   8.361   6.319  11.037  1.2440  1.2512 -0.3273
44166SOL    HW239614   8.250   6.358  11.133 -0.4164 -0.4416 -1.4841
44167SOL     OW39615  12.951  11.572   8.622  0.1267 -0.6017  0.2118
44167SOL    HW139616  12.916  11.649   8.668  1.5222  0.2677 -0.1443
44167SOL    HW239617  13.041  11.595   8.601  0.3031 -2.0074 -0.6884
44168SOL     OW39618   4.124   8.349   4.493  0.2792  0.8293 -0.6067
44168SOL    HW139619   4.069   8.378   4.420  0.5995  0.8477 -0.8447
44168SOL    HW239620   4.133   8.426   4.548 -0.6695  0.5903 -0.0900
44169SOL     OW39621   2.115  12.870   2.073  0.1092 -0.0319  0.5164
44169SOL    HW139622   2.168  12.943   2.040 -0.4897  0.4532  0.6115
44169SOL    HW239623   2.027  12.887   2.038  0.0902 -1.0147  0.0690
44170SOL     OW39624   1.840   6.473   1.446 -0.3653 -0.1284  0.1421
44170SOL    HW139625   1.889   6.555   1.445 -0.9255  0.2668  1.6984
44170SOL    HW239626   1.888   6.416   1.506 -0.5262 -0.5874 -0.1538
44171SOL     OW39627   8.059   8.007   8.170 -0.1129 -0.3539  0.5830
44171SOL    HW139628   8.125   7.963   8.223 -0.6076 -0.0457  1.4705
44171SOL    HW239629   8.108   8.040   8.094  0.5391 -1.0821  0.6786
44172SOL     OW39630   6.244  12.531   2.888  0.0040 -0.2427 -0.4887
44172SOL    HW139631   6.298  12.609   2.896  0.5329 -0.5381 -1.0706
44172SOL    HW239632   6.154  12.562   2.900  0.1432  0.5847 -1.4693
44173SOL     OW39633   2.415   6.042   6.758 -0.9200 -0.0130 -0.5804
44173SOL    HW139634   2.488   6.002   6.710  0.0167  1.7923 -0.7573
44173SOL    HW239635   2.419   6.003   6.845  1.4012  1.2631 -0.0290
44174SOL     OW39636   3.365   3.403   5.734  0.1406  0.2300  0.0726
44174SOL    HW139637   3.357   3.360   5.649 -1.4270 -2.4071  1.4162
44174SOL    HW239638   3.369   3.497   5.714  0.6176 -0.3393 -2.9022
44175SOL     OW39639   6.341  11.390   8.717 -0.1337 -0.5042 -0.0878
44175SOL    HW139640   6.272  11.335   8.681 -2.1064  2.3479 -1.0505
44175SOL    HW239641   6.373  11.441   8.643  0.6312  0.6393  0.9815
44176SOL     OW39642   2.535   8.959  12.429 -0.7323 -0.4903  0.0062
44176SOL    HW139643   2.593   9.021  12.473  3.3970 -2.9211 -1.4300
44176SOL    HW239644   2.517   8.893  12.496 -1.7167  0.1108  0.3627
44177SOL     OW39645   2.439   9.924  11.673 -0.1156  0.0929 -0.2406
44177SOL    HW139646   2.423   9.852  11.613 -0.0822 -0.3694  0.2974
44177SOL    HW239647   2.505   9.978  11.629  0.4227 -0.6112 -0.3231
44178SOL     OW39648  10.494   4.228   1.396 -0.0010  0.3308  0.3444
44178SOL    HW139649  10.436   4.152   1.392  0.8038 -0.2767 -0.2790
44178SOL    HW239650  10.569   4.199   1.449 -0.6064  1.3683  1.8300
44179SOL     OW39651   9.445   1.660   6.407 -0.2547  0.1215 -0.2193
44179SOL    HW139652   9.498   1.581   6.397 -0.5238 -0.2309  1.0339
44179SOL    HW239653   9.375   1.650   6.342  0.8746  0.3499 -1.5246
44180SOL     OW39654   8.130  10.914   2.308  0.4131  0.4027  0.0008
44180SOL    HW139655   8.068  10.843   2.328  1.0246  0.3132  1.8253
44180SOL    HW239656   8.216  10.873   2.315  0.7419  1.0230 -0.3059
44181SOL     OW39657  10.240   2.627   9.735 -0.1351  0.0816  0.4323
44181SOL    HW139658  10.313   2.567   9.753  0.0442 -1.1667 -3.5132
44181SOL    HW239659  10.162   2.580   9.763  0.3273  0.6145  2.8569
44182SOL     OW39660  10.608   9.955   3.345  0.0022  0.3230  0.6226
44182SOL    HW139661  10.628   9.916   3.431 -0.2073  0.7266  0.8596
44182SOL    HW239662  10.556  10.033   3.366  1.9510  1.7806  0.2679
44183SOL     OW39663  10.091  10.692   3.405 -0.0954  0.3107  0.5549
44183SOL    HW139664  10.051  10.727   3.326  0.8031 -0.4450 -0.2512
44183SOL    HW239665  10.042  10.613   3.425 -0.3439  0.5193  0.7791
44184SOL     OW39666   2.528  10.937   3.631  0.4742 -0.1182  0.6207
44184SOL    HW139667   2.490  10.866   3.579  1.2851  0.2759 -0.5625
44184SOL    HW239668   2.564  10.893   3.708  0.6978 -0.9716  0.0493
44185SOL     OW39669   4.923  10.375   7.011  0.5331  0.2517 -0.4181
44185SOL    HW139670   4.905  10.288   6.976  1.5481 -0.7153  1.2721
44185SOL    HW239671   5.017  10.387   6.997  0.2746  1.3820 -1.2449
44186SOL     OW39672   5.345   7.275   0.115  0.8012  0.2651 -0.3604
44186SOL    HW139673   5.369   7.313   0.200 -0.5377  0.4082 -0.0323
44186SOL    HW239674   5.258   7.238   0.128 -0.0511  1.5226 -2.0215
44187SOL     OW39675   8.478  10.158  11.996  0.6808 -0.0521  0.0542
44187SOL    HW139676   8.516  10.134  11.912 -1.2787  1.2625 -1.2925
44187SOL    HW239677   8.513  10.245  12.015  0.4064  0.0430  0.1366
44188SOL     OW39678   7.936  12.829  12.204  0.1387 -0.5572  0.0017
44188SOL    HW139679   7.916  12.737  12.188 -0.5756 -0.2932 -0.7234
44188SOL    HW239680   7.859  12.876  12.173  0.7312  0.3227 -0.1927
44189SOL     OW39681  12.913  10.219   4.690 -0.0916 -0.6832 -0.3723
44189SOL    HW139682  12.868  10.250   4.768 -1.5288 -0.0370 -1.3987
44189SOL    HW239683  12.889  10.283   4.622  1.3918 -1.0277 -1.2603
44190SOL     OW39684   3.092  10.590  11.365  0.0484 -0.1527 -0.1864
44190SOL    HW139685   3.043  10.582  11.283 -1.0670  0.3537  0.4043
44190SOL    HW239686   3.036  10.549  11.431 -0.0640  1.3202  0.6813
44191SOL     OW39687   4.624  11.934   9.477  0.6123  0.3519 -0.3765
44191SOL    HW139688   4.577  11.880   9.540 -0.1240  2.4712  1.0015
44191SOL    HW239689   4.622  12.022   9.515  1.7005  1.3767 -2.5325
44192SOL     OW39690  11.925   6.261   6.543  0.0502  0.5137  0.0018
44192SOL    HW139691  11.973   6.210   6.477  0.9536 -1.3140  1.9506
44192SOL    HW239692  11.859   6.200   6.576 -0.5650  1.4854  0.6182
44193SOL     OW39693  11.942   2.752   9.499  1.0575  0.0374 -0.1768
44193SOL    HW139694  11.904   2.764   9.587  0.4059 -0.9040 -0.3170
44193SOL    HW239695  11.891   2.810   9.443  1.0390  0.1488 -0.0459
44194SOL     OW39696  12.507   9.572  12.123 -0.2241  0.1948  0.0590
44194SOL    HW139697  12.444   9.514  12.165 -0.2447 -0.0326 -0.2811
44194SOL    HW239698  12.521   9.642  12.186 -0.1560 -0.2087  0.4939
44195SOL     OW39699   7.997   7.776   5.009 -0.4884  0.4027 -0.6140
44195SOL    HW139700   7.935   7.814   5.071  0.2224 -2.2003  1.9309
44195SOL    HW239701   8.082   7.811   5.035 -0.1985 -0.6097 -0.1502
44196SOL     OW39702  11.630  10.770   2.140 -0.4475  0.3883  0.3329
44196SOL    HW139703  11.712  10.818   2.130  0.6106 -1.4866 -0.5313
44196SOL    HW239704  11.630  10.740   2.231 -0.2751  0.5511  0.3862
44197SOL     OW39705  12.647   9.534   8.959  0.0310  0.0922 -0.6296
44197SOL    HW139706  12.627   9.448   8.922 -0.5576 -0.3140  0.5752
44197SOL    HW239707  12.576   9.551   9.021  2.7060 -1.0010  3.1906
44198SOL     OW39708   4.603  12.651   3.550 -0.1813  0.7545 -0.4519
44198SOL    HW139709   4.581  12.698   3.630 -1.4412 -0.1662 -0.2344
44198SOL    HW239710   4.642  12.569   3.580  0.9336  1.1278 -0.8197
44199SOL     OW39711  12.065  11.127   6.973 -0.0870  0.1530  0.2014
44199SOL    HW139712  12.027  11.202   6.927  0.6502  0.6138  0.3300
44199SOL    HW239713  12.158  11.148   6.980 -0.0140 -0.3894  0.9754
44200SOL     OW39714   2.813  10.278   0.023  0.8521  0.2812  0.7214
44200SOL    HW139715   2.727  10.314   0.041  0.2448 -1.1728  0.8902
44200SOL    HW239716   2.871  10.354   0.017 -0.6658  1.3724 -0.7741
44201SOL     OW39717   5.840   9.180   1.330  0.2974 -0.0899  0.3148
44201SOL    HW139718   5.769   9.117   1.344 -1.4583  1.8296  0.5651
44201SOL    HW239719   5.860   9.213   1.418  0.6203  0.3128  0.0919
44202SOL     OW39720   0.885   8.112   6.726  0.0925  0.2998  0.1067
44202SOL    HW139721   0.907   8.161   6.805 -0.3395 -0.0586  0.4496
44202SOL    HW239722   0.867   8.180   6.661  0.8228  0.5942  0.2047
44203SOL     OW39723   9.027   9.777   3.629  0.0255  0.2514 -0.1801
44203SOL    HW139724   9.013   9.840   3.700  0.6255 -0.9632  1.0594
44203SOL    HW239725   8.939   9.754   3.600 -0.2079  1.6193 -0.6494
44204SOL     OW39726  10.100   6.376   7.742  0.9319 -0.6646 -0.4978
44204SOL    HW139727  10.012   6.368   7.778  1.2383 -0.9958  0.2123
44204SOL    HW239728  10.142   6.292   7.761  1.0583 -0.9251 -1.8203
44205SOL     OW39729   1.404  12.003   1.429  0.3879 -0.1070  0.0525
44205SOL    HW139730   1.438  11.954   1.504 -0.8292  0.6184  1.1338
44205SOL    HW239731   1.395  11.939   1.359  3.6614 -0.4038 -0.2697
44206SOL     OW39732  12.945   1.104   1.486 -0.6346 -0.2117 -0.4018
44206SOL    HW139733  12.994   1.049   1.548  0.7661  0.4441 -0.8902
44206SOL    HW239734  12.979   1.192   1.500 -0.7267  0.0448 -1.6663
44207SOL     OW39735   8.779   9.724  12.241 -0.0300  0.5504 -0.7352
44207SOL    HW139736   8.774   9.813  12.205 -0.3381  1.1781  0.7930
44207SOL    HW239737   8.690   9.706  12.272  0.1446 -0.1152 -0.6161
44208SOL     OW39738   1.774   6.992   3.747  0.1564  0.4189  0.3025
44208SOL    HW139739   1.717   7.067   3.767  0.2642  0.4199  0.6033
44208SOL    HW239740   1.854   7.009   3.796  0.3114  0.2760  0.0995
44209SOL     OW39741  12.069   5.556   9.263 -0.1641 -0.2223 -0.6383
44209SOL    HW139742  11.993   5.613   9.265 -0.2405 -0.3075  1.2102
44209SOL    HW239743  12.041   5.481   9.210 -0.3037  1.0809 -2.4728
44210SOL     OW39744   2.855   8.881   4.114 -0.5731  0.1306 -0.1234
44210SOL    HW139745   2.895   8.948   4.059 -0.2956 -0.1289 -0.2454
44210SOL    HW239746   2.770   8.916   4.137  0.3523  1.4362  1.5124
44211SOL     OW39747   3.822   6.006   1.748 -0.2294 -0.5068  0.4398
44211SOL    HW139748   3.906   5.970   1.719 -0.9937 -1.0008 -1.2844
44211SOL    HW239749   3.759   5.935   1.734 -1.3528  0.6524 -0.7248
44212SOL     OW39750  10.322   6.378  10.118  0.1655 -0.0762  0.9604
44212SOL    HW139751  10.351   6.460  10.077  1.7838 -0.8167  0.5363
44212SOL    HW239752  10.256   6.405  10.181 -1.2812  1.2803 -1.0227
44213SOL     OW39753   1.852  10.191   3.996 -0.0362 -0.3467 -0.0778
44213SOL    HW139754   1.924  10.240   3.958 -1.3993  0.4216 -1.8145
44213SOL    HW239755   1.815  10.141   3.923 -0.8361 -1.2581  0.9164
44214SOL     OW39756  12.903   4.367   3.141  0.2641 -0.4132  0.4120
44214SOL    HW139757  12.957   4.341   3.067 -1.7216 -1.1765 -0.8535
44214SOL    HW239758  12.921   4.461   3.153  1.8613 -0.6575  0.0890
44215SOL     OW39759   0.498   1.800   0.826  0.4222 -0.0188 -0.4446
44215SOL    HW139760   0.555   1.804   0.749 -0.2717  0.5714 -0.9360
44215SOL    HW239761   0.438   1.873   0.816  0.7113  0.4567  0.9865
44216SOL     OW39762   7.049   4.499   1.057  0.6105 -0.0698  0.4373
44216SOL    HW139763   6.997   4.579   1.056  1.4448  0.4865  0.0042
44216SOL    HW239764   7.000   4.439   1.113 -1.6246 -0.3639 -1.6651
44217SOL     OW39765   3.483   0.978   0.931  0.2114 -0.0042 -0.1005
44217SOL    HW139766   3.552   0.958   0.994  0.5170 -1.7913 -0.9284
44217SOL    HW239767   3.501   1.067   0.902  0.6886  0.4541  1.5022
44218SOL     OW39768   1.844   1.152   8.814 -0.5649 -0.2478  0.3081
44218SOL    HW139769   1.931   1.117   8.829 -0.3656 -0.9646 -2.0969
44218SOL    HW239770   1.830   1.213   8.887  2.0477  0.1030  0.6287
44219SOL     OW39771  12.475   9.477  12.845 -0.3936 -0.1180 -0.7408
44219SOL    HW139772  12.477   9.409  12.912 -1.6742 -1.4367 -1.9449
44219SOL    HW239773  12.567   9.503  12.834 -0.0459 -0.6281  0.7343
44220SOL     OW39774   7.743   2.103   7.534 -0.7139  0.1728  0.9258
44220SOL    HW139775   7.782   2.063   7.612  0.5066 -0.0294  0.2469
44220SOL    HW239776   7.691   2.033   7.494  0.2445 -0.3406  0.5285
44221SOL     OW39777  11.170  10.368   6.484 -0.6923 -0.2963  0.2467
44221SOL    HW139778  11.162  10.331   6.396 -0.3432  0.2952 -0.0414
44221SOL    HW239779  11.168  10.463   6.470  1.8505 -0.1442  0.6165
44222SOL     OW39780   8.559   1.478   1.337  0.3122  0.0997 -0.1806
44222SOL    HW139781   8.500   1.552   1.350  0.2643  0.1987 -0.9527
44222SOL    HW239782   8.502   1.404   1.316  0.2198 -0.5698  2.1242
44223SOL     OW39783   0.726   8.434   9.747  0.1409 -0.1515 -0.1451
44223SOL    HW139784   0.819   8.454   9.758 -0.1415  1.7958 -1.0055
44223SOL    HW239785   0.700   8.479   9.666 -1.6019 -0.4606  0.1920
44224SOL     OW39786   2.597   5.680   7.669 -0.6172 -0.0975  0.2301
44224SOL    HW139787   2.683   5.639   7.664 -0.7470 -0.2518 -0.9396
44224SOL    HW239788   2.613   5.773   7.655 -0.6404 -0.1304 -0.0219
44225SOL     OW39789   8.999   2.275  12.853  0.7258  0.5983  0.2204
44225SOL    HW139790   9.075   2.247  12.802  1.4960  1.0083  1.1189
44225SOL    HW239791   8.953   2.193  12.874  0.5392  0.4074 -0.8839
44226SOL     OW39792   4.607   7.221   5.263 -0.2853 -0.0927  0.1897
44226SOL    HW139793   4.519   7.252   5.239 -1.0295 -1.7087  0.7287
44226SOL    HW239794   4.619   7.140   5.213 -0.1916 -1.2981  2.0876
44227SOL     OW39795   0.649   5.232   5.947 -0.3817  0.3279 -0.5198
44227SOL    HW139796   0.572   5.178   5.931 -0.3139 -0.5339  1.7029
44227SOL    HW239797   0.709   5.175   5.996  1.3370  1.2303 -1.4622
44228SOL     OW39798   7.579   3.182   2.825  0.0542  0.1523 -1.0084
44228SOL    HW139799   7.494   3.216   2.853 -0.3135 -0.2030 -1.6586
44228SOL    HW239800   7.572   3.087   2.839  0.8532  0.2440  0.2325
44229SOL     OW39801   6.864   8.541  12.508 -0.1683  0.1761 -0.0179
44229SOL    HW139802   6.956   8.547  12.484 -0.0474  2.4992  0.8098
44229SOL    HW239803   6.832   8.465  12.459  2.1054 -0.5913 -0.4639
44230SOL     OW39804   1.273   9.333   0.220  0.4692 -0.6074  0.2249
44230SOL    HW139805   1.278   9.263   0.285  0.8363 -0.8210 -0.0267
44230SOL    HW239806   1.267   9.288   0.136 -0.7245 -0.3350  0.1475
44231SOL     OW39807   1.734   6.703  10.004  0.3722  0.3622 -0.0759
44231SOL    HW139808   1.670   6.771  10.027  0.9967  0.8059  0.3618
44231SOL    HW239809   1.819   6.744  10.020  0.7454 -0.7648  0.8671
44232SOL     OW39810   5.872   2.443   8.131  0.2894  0.1233 -0.7255
44232SOL    HW139811   5.886   2.513   8.195  2.6211 -0.8312 -0.0830
44232SOL    HW239812   5.960   2.412   8.110 -0.6211 -1.9290 -1.7802
44233SOL     OW39813   0.891   9.223   3.145 -0.2148  0.4429 -0.7927
44233SOL    HW139814   0.912   9.130   3.157 -0.2440  0.5342 -0.0115
44233SOL    HW239815   0.975   9.263   3.121  0.0677  0.4268  0.1332
44234SOL     OW39816   4.186  11.885   1.622 -0.2600  0.2374 -0.4373
44234SOL    HW139817   4.128  11.852   1.690  1.1302  0.2799  0.8283
44234SOL    HW239818   4.156  11.974   1.605 -0.8638  0.0902 -0.1552
44235SOL     OW39819   8.780  11.923   2.636 -0.1232 -0.1077  0.5042
44235SOL    HW139820   8.870  11.894   2.620  0.7874  2.7524 -0.0494
44235SOL    HW239821   8.752  11.960   2.553 -0.9558  1.0981  1.2871
44236SOL     OW39822   8.395   2.901   7.690  0.2612  0.0778 -0.1610
44236SOL    HW139823   8.329   2.875   7.626  1.5481  1.2232 -2.0478
44236SOL    HW239824   8.358   2.978   7.733 -0.1150  0.0175 -0.3728
44237SOL     OW39825   3.475  10.445   3.891  0.1486 -0.7135  0.3255
44237SOL    HW139826   3.508  10.356   3.878  1.1880 -0.1872 -0.8174
44237SOL    HW239827   3.408  10.436   3.959  0.3578 -2.3341  0.3536
44238SOL     OW39828   9.332   7.571   6.528 -0.2928 -0.2857  0.2914
44238SOL    HW139829   9.419   7.533   6.521 -0.8363 -1.5482  0.1061
44238SOL    HW239830   9.342   7.644   6.589  1.3288  1.0049 -1.4099
44239SOL     OW39831   3.247   4.657  12.234  0.3921 -0.3576 -0.1414
44239SOL    HW139832   3.328   4.622  12.196  0.7066 -0.6906  0.8014
44239SOL    HW239833   3.239   4.613  12.318 -0.9113 -0.5060 -0.3169
44240SOL     OW39834   2.162   9.231   8.131  0.2561  0.0801  0.3697
44240SOL    HW139835   2.190   9.321   8.113 -4.2211  1.7245  0.2358
44240SOL    HW239836   2.172   9.186   8.048 -0.0943  1.3479 -0.3952
44241SOL     OW39837   1.594   1.899   3.279  0.7424 -0.8772  0.2145
44241SOL    HW139838   1.575   1.818   3.327 -1.1805  0.4840  1.8798
44241SOL    HW239839   1.620   1.962   3.346  1.6551  0.0689 -0.9874
44242SOL     OW39840   2.917   1.737  11.936  0.2468  0.1598  0.6178
44242SOL    HW139841   2.953   1.705  11.854  0.4282  0.6574  0.4986
44242SOL    HW239842   2.962   1.687  12.004 -2.1423 -2.5667  0.3703
44243SOL     OW39843   5.348   1.501   7.439 -0.7108 -0.0671 -0.2636
44243SOL    HW139844   5.263   1.458   7.433 -1.6429  1.1423  2.7142
44243SOL    HW239845   5.383   1.473   7.523  1.9217 -0.5243 -1.3967
44244SOL     OW39846  12.867   0.079   7.873  0.1361  0.5237  0.2198
44244SOL    HW139847  12.798   0.070   7.807 -0.0498 -0.4397  0.5342
44244SOL    HW239848  12.823   0.061   7.956  0.6732  0.3212  0.4644
44245SOL     OW39849   5.908   4.360   2.739  0.1414  0.0740  0.4861
44245SOL    HW139850   5.920   4.327   2.828  1.5121  3.2162  1.5691
44245SOL    HW239851   5.878   4.450   2.750 -0.4506  0.2972 -2.2755
44246SOL     OW39852   3.231   7.093   4.363  0.2845  0.6869  0.2845
44246SOL    HW139853   3.221   6.998   4.367  0.4501  0.4552 -2.4914
44246SOL    HW239854   3.171   7.121   4.294 -0.3746  2.7476  1.5985
44247SOL     OW39855   2.247   8.201   4.404 -0.4348 -0.0021  0.6232
44247SOL    HW139856   2.320   8.259   4.386 -0.3170 -0.4409 -0.3927
44247SOL    HW239857   2.288   8.119   4.432 -0.5638  0.0097  0.8514
44248SOL     OW39858   6.314   4.953  11.929 -0.2053 -0.3533 -0.3106
44248SOL    HW139859   6.302   4.858  11.939  0.6905 -0.4820 -0.3725
44248SOL    HW239860   6.397   4.962  11.883  0.7924  0.5152  1.5565
44249SOL     OW39861  11.506   1.911   2.028  0.0668 -0.4885  0.1132
44249SOL    HW139862  11.573   1.845   2.013 -1.6051 -2.5848  1.1897
44249SOL    HW239863  11.510   1.930   2.122 -0.3212 -0.0267  0.0461
44250SOL     OW39864   2.779  10.273  10.109 -0.1444 -0.1089  0.2810
44250SOL    HW139865   2.855  10.264  10.051  0.4451  0.1115  1.0055
44250SOL    HW239866   2.814  10.312  10.189 -1.2271  1.0956  0.2030
44251SOL     OW39867   6.543  10.774   9.420 -0.4134  0.1813 -0.1186
44251SOL    HW139868   6.627  10.750   9.381 -0.6684  0.6184 -0.9693
44251SOL    HW239869   6.490  10.804   9.346 -1.7925 -1.3633  0.1913
44252SOL     OW39870   4.594   1.804  11.685  0.0809  0.2989  0.0836
44252SOL    HW139871   4.648   1.867  11.637  0.5358 -0.1677 -0.0320
44252SOL    HW239872   4.547   1.756  11.616  0.9513 -0.5667  0.0706
44253SOL     OW39873   5.971   5.661  10.102 -0.5438 -0.2710 -0.0801
44253SOL    HW139874   5.964   5.703  10.016 -1.1707 -0.9267 -0.3613
44253SOL    HW239875   6.062   5.632  10.107 -0.6534 -0.7737 -0.7950
44254SOL     OW39876   4.411   7.114   7.351 -0.3705 -0.4301  0.3265
44254SOL    HW139877   4.407   7.062   7.270  0.1118  0.5425 -0.3554
44254SOL    HW239878   4.381   7.201   7.324  2.6537  0.7715  0.4136
44255SOL     OW39879   0.048   3.146   0.284  0.2379 -0.3076  0.2262
44255SOL    HW139880  -0.030   3.179   0.240  0.3414  0.0938  0.3436
44255SOL    HW239881   0.025   3.057   0.310  0.2823 -0.6671 -0.9230
44256SOL     OW39882   0.618   1.659   1.494  0.0810  0.4450  0.4816
44256SOL    HW139883   0.550   1.597   1.520  0.3075  0.2751  0.6757
44256SOL    HW239884   0.573   1.724   1.440 -0.4536  0.9757  1.5531
44257SOL     OW39885   7.649   9.913  12.436 -0.5838 -0.0995 -0.2684
44257SOL    HW139886   7.556   9.892  12.441 -0.6766  0.5003  1.2073
44257SOL    HW239887   7.681   9.901  12.526  1.1302 -1.8159 -1.0404
44258SOL     OW39888  12.710  12.732   9.938  0.3870 -0.0676  0.7212
44258SOL    HW139889  12.724  12.641   9.914 -0.0668 -0.3406  1.4502
44258SOL    HW239890  12.687  12.775   9.856 -0.7583 -0.8994  0.5742
44259SOL     OW39891   0.398   1.067   6.012  0.1008  0.0041  0.2908
44259SOL    HW139892   0.475   1.020   6.044  0.0350  0.0395  0.5049
44259SOL    HW239893   0.327   1.002   6.018 -0.0439  0.2105  0.8360
44260SOL     OW39894  12.875   0.478  12.085  0.2983  0.3858  0.2701
44260SOL    HW139895  12.865   0.388  12.117  1.5172  0.1919  0.1546
44260SOL    HW239896  12.814   0.529  12.138 -0.5257 -0.5251  0.2333
44261SOL     OW39897   5.115   9.078  12.795  0.0104 -0.4791 -0.1221
44261SOL    HW139898   5.149   9.105  12.880  0.6504 -0.3111 -0.4265
44261SOL    HW239899   5.193   9.060  12.742 -0.3076  1.5185 -1.3670
44262SOL     OW39900   5.336   0.311   7.747  0.2983 -0.0614 -0.1022
44262SOL    HW139901   5.350   0.348   7.834 -0.7676  0.4339 -0.1238
44262SOL    HW239902   5.356   0.384   7.687  0.1854 -0.1408 -0.2360
44263SOL     OW39903   6.353  10.261  10.697 -0.1568 -0.7907 -0.0640
44263SOL    HW139904   6.366  10.242  10.604 -0.4210 -1.4033  0.0169
44263SOL    HW239905   6.416  10.329  10.717 -0.1769 -0.5744 -0.7244
44264SOL     OW39906   9.317  10.162   4.630 -0.2045  0.7340 -0.3120
44264SOL    HW139907   9.300  10.173   4.724 -0.0462  1.2106 -0.3341
44264SOL    HW239908   9.340  10.070   4.620 -0.1976  0.6852  0.1222
44265SOL     OW39909  12.186  10.342  12.270 -0.2169 -0.2197 -0.1018
44265SOL    HW139910  12.182  10.263  12.215  0.2321 -1.9853  2.2475
44265SOL    HW239911  12.096  10.356  12.298 -0.2965  0.1012 -0.5184
44266SOL     OW39912   4.094   4.194   7.097 -0.1744  0.3647  0.1024
44266SOL    HW139913   4.023   4.223   7.039 -0.3754  0.6760  0.5027
44266SOL    HW239914   4.155   4.268   7.099  1.0782 -0.5464 -1.6610
44267SOL     OW39915   9.929   2.559   5.255 -0.0869  0.5172 -0.0846
44267SOL    HW139916   9.852   2.565   5.313  0.2280  0.4342  0.3461
44267SOL    HW239917   9.927   2.641   5.205 -2.0652 -0.6734 -2.1360
44268SOL     OW39918   4.001   8.796   7.694 -0.1974 -0.7830 -0.1622
44268SOL    HW139919   4.000   8.892   7.689  0.0047 -0.7195  0.8629
44268SOL    HW239920   3.970   8.768   7.608  0.7807  0.1989 -0.8700
44269SOL     OW39921   8.613   8.501   3.498  0.4253  0.3204 -0.3289
44269SOL    HW139922   8.578   8.589   3.487  1.3469  0.5067 -2.1082
44269SOL    HW239923   8.540   8.443   3.479 -0.4171  0.6431  1.6677
44270SOL     OW39924  12.516   3.476   9.095 -0.3227  0.2517 -0.1194
44270SOL    HW139925  12.577   3.403   9.106  0.8366  1.1180 -0.5952
44270SOL    HW239926  12.571   3.554   9.098 -1.4942  1.0987  0.0493
44271SOL     OW39927   2.603   7.121  10.169 -0.2773  0.5454  0.0615
44271SOL    HW139928   2.581   7.156  10.082  1.1170 -0.7146 -0.8348
44271SOL    HW239929   2.519   7.094  10.205 -1.0010  1.9225 -0.4951
44272SOL     OW39930   1.061  12.391   9.970 -0.1670  0.3699  0.3266
44272SOL    HW139931   1.088  12.480   9.945  1.5451 -0.2084 -0.0290
44272SOL    HW239932   1.142  12.350  10.002 -0.8202 -1.2115  0.0120
44273SOL     OW39933   3.018   7.006  11.808  0.2664  0.5866  0.0500
44273SOL    HW139934   3.002   6.983  11.900  0.2641 -1.2368 -0.3769
44273SOL    HW239935   2.931   7.017  11.771  0.0441 -2.5857 -0.6268
44274SOL     OW39936  11.574   2.724   9.556  0.2958  0.2260  0.0887
44274SOL    HW139937  11.516   2.801   9.562 -1.5303 -0.9148 -1.7291
44274SOL    HW239938  11.596   2.718   9.464  2.2697 -0.1926  0.5515
44275SOL     OW39939   4.152  12.698   0.761  0.0120 -0.5222  0.6314
44275SOL    HW139940   4.217  12.643   0.717  0.9615  0.1026  1.2230
44275SOL    HW239941   4.155  12.781   0.713  0.6831 -0.0144  1.5096
44276SOL     OW39942   5.906  12.683   7.953 -0.3586  0.0825  0.3444
44276SOL    HW139943   5.838  12.636   8.001 -1.1338  1.8417  1.0554
44276SOL    HW239944   5.879  12.678   7.862  0.5153 -2.3030  0.1432
44277SOL     OW39945   9.592  11.023   7.695  0.9943 -0.2215 -0.5714
44277SOL    HW139946   9.556  11.090   7.753 -1.9163 -0.0995 -2.3253
44277SOL    HW239947   9.591  10.943   7.748 -1.8110 -0.1748 -0.3999
44278SOL     OW39948  12.471   8.095   7.573  0.3727 -0.3705  0.1976
44278SOL    HW139949  12.403   8.132   7.630 -0.4746  1.4176 -1.8307
44278SOL    HW239950  12.544   8.156   7.579  0.3255 -0.2364 -0.5313
44279SOL     OW39951   1.795   4.287   0.318 -0.4399  0.2385 -0.1506
44279SOL    HW139952   1.753   4.258   0.399 -0.1894  0.3618  0.0226
44279SOL    HW239953   1.833   4.208   0.280  0.8280  0.4464  0.6626
44280SOL     OW39954   2.324   6.475   4.828  0.1622 -0.6432 -0.0996
44280SOL    HW139955   2.399   6.443   4.878 -0.1884 -1.3797 -0.0281
44280SOL    HW239956   2.359   6.548   4.777 -0.2382  2.8025  3.9614
44281SOL     OW39957   7.991   1.965  11.867 -0.1205  0.3270 -0.4622
44281SOL    HW139958   7.940   1.908  11.809 -0.1505  0.8748 -0.9775
44281SOL    HW239959   8.028   2.032  11.810  1.3001 -0.1235 -0.1136
44282SOL     OW39960  11.165  12.709   8.737 -0.3914 -0.0895 -0.1090
44282SOL    HW139961  11.076  12.678   8.757 -0.1381 -1.2719 -0.6866
44282SOL    HW239962  11.207  12.717   8.822 -0.9041 -0.0024  0.1418
44283SOL     OW39963  12.838   2.121   4.343  0.0268 -0.1120 -0.5214
44283SOL    HW139964  12.875   2.209   4.354  1.1241 -0.3817 -1.7654
44283SOL    HW239965  12.766   2.134   4.281  0.0153 -0.0429 -0.4949
44284SOL     OW39966   2.349   3.534   1.192  0.2671  0.4706  0.3343
44284SOL    HW139967   2.364   3.599   1.261  3.2492  1.6500 -1.2458
44284SOL    HW239968   2.380   3.576   1.112 -0.7779 -1.7455 -1.3529
44285SOL     OW39969   0.425   6.429   0.731  0.4671  0.0544  0.0635
44285SOL    HW139970   0.485   6.469   0.667  0.3536 -0.2803 -0.2500
44285SOL    HW239971   0.476   6.425   0.812  0.8534 -0.1881 -0.1913
44286SOL     OW39972   2.091  11.961   2.778 -0.5896 -1.0187 -0.3272
44286SOL    HW139973   2.116  11.941   2.868  2.7656 -1.2395 -1.1526
44286SOL    HW239974   2.101  12.056   2.770 -0.7352 -1.0150 -0.4796
44287SOL     OW39975   6.210  11.114   0.933 -0.3380 -0.0805 -0.1805
44287SOL    HW139976   6.118  11.114   0.907 -0.8176  0.6365  1.4132
44287SOL    HW239977   6.215  11.048   1.002 -0.2944  1.7813  1.6922
44288SOL     OW39978   8.408   5.712   6.052 -0.4016 -0.1940  0.5781
44288SOL    HW139979   8.409   5.629   6.004  0.3028 -0.3009  0.7693
44288SOL    HW239980   8.369   5.690   6.137  0.1040 -0.4006  0.7561
44289SOL     OW39981   7.204  12.305   3.945 -0.2706 -0.0141 -0.5423
44289SOL    HW139982   7.172  12.293   4.035  1.4922  1.7968  0.4104
44289SOL    HW239983   7.293  12.269   3.947 -0.3403 -0.2605 -1.6775
44290SOL     OW39984  10.859  10.462   8.259 -0.8424  0.0001 -0.0642
44290SOL    HW139985  10.770  10.451   8.292  0.1701 -2.6293  2.1785
44290SOL    HW239986  10.909  10.496   8.334 -0.0239  2.3601 -1.5445
44291SOL     OW39987  10.735  10.926   4.679 -0.0759  0.0553  0.3274
44291SOL    HW139988  10.667  10.919   4.746 -0.4110 -0.4458 -0.0549
44291SOL    HW239989  10.697  10.884   4.602 -0.7498  2.9230 -1.0334
44292SOL     OW39990   5.272   3.809   4.544  0.1529 -0.3127 -0.4516
44292SOL    HW139991   5.361   3.836   4.519 -0.5780 -0.1025 -3.0785
44292SOL    HW239992   5.242   3.878   4.603  0.9063  0.8554 -1.3831
44293SOL     OW39993   2.929   1.038   6.560 -0.3737  0.5870 -0.0530
44293SOL    HW139994   2.861   1.026   6.626 -2.6896 -2.0303 -2.5984
44293SOL    HW239995   2.890   1.099   6.497 -0.2705 -0.6355 -1.3443
44294SOL     OW39996   5.034   1.498   4.935  0.4582 -0.1567 -0.2587
44294SOL    HW139997   4.973   1.558   4.978 -2.3288 -2.2612 -0.9705
44294SOL    HW239998   5.011   1.502   4.843  0.2395 -2.2152 -0.3355
44295SOL     OW39999  11.016   4.388   8.409 -0.6011  0.0036 -0.4366
44295SOL    HW140000  10.958   4.389   8.333 -0.4253  1.1549 -0.5715
44295SOL    HW240001  10.993   4.308   8.456 -0.7672 -0.6877 -1.6521
44296SOL     OW40002  10.363   4.717   4.313  0.3214  0.1050  0.4302
44296SOL    HW140003  10.454   4.708   4.341  0.9170 -1.2558 -1.7097
44296SOL    HW240004  10.345   4.636   4.264 -1.2781  1.3594 -1.1778
44297SOL     OW40005   8.439   0.024  10.408 -0.3851  1.2642  0.2314
44297SOL    HW140006   8.371  -0.009  10.468 -2.7949  1.2881 -2.2638
44297SOL    HW240007   8.467  -0.054  10.360  1.5078  1.2524  1.2766
44298SOL     OW40008   2.563   7.701  10.289  0.1783  0.4292  0.6579
44298SOL    HW140009   2.562   7.605  10.298 -0.3272  0.4691  1.0471
44298SOL    HW240010   2.637   7.729  10.343  0.5585  0.2316  0.2464
44299SOL     OW40011  12.508   1.013   1.281  0.0325  0.2157 -0.0066
44299SOL    HW140012  12.434   1.058   1.240  0.1334  1.0695  0.7240
44299SOL    HW240013  12.545   0.960   1.210 -0.6713  0.5427 -0.6403
44300SOL     OW40014  11.704   9.616   0.672 -0.0732  0.0440  0.6106
44300SOL    HW140015  11.676   9.611   0.763 -0.1102 -1.9120  0.5400
44300SOL    HW240016  11.792   9.655   0.676 -0.4758  0.8902  1.3769
44301SOL     OW40017   2.575   9.783   2.745 -0.2457 -0.1334 -0.4947
44301SOL    HW140018   2.609   9.864   2.785 -2.0955 -0.2109  1.4398
44301SOL    HW240019   2.481   9.788   2.760 -0.7249 -1.4404 -2.7307
44302SOL     OW40020   1.228   2.898  11.137  0.0771  0.1569  0.2843
44302SOL    HW140021   1.291   2.829  11.117  2.1521  2.3026 -1.0252
44302SOL    HW240022   1.258   2.934  11.221 -1.1996 -0.7017  1.1358
44303SOL     OW40023   7.777   8.544   4.084  0.3466 -0.3851  0.1072
44303SOL    HW140024   7.708   8.552   4.150 -0.1818 -1.3063 -0.3177
44303SOL    HW240025   7.842   8.487   4.124 -0.1335 -1.2252 -0.2688
44304SOL     OW40026   2.052   5.647   7.282  0.0438  0.2386  0.0238
44304SOL    HW140027   2.087   5.722   7.235  1.3865  1.1139  2.2431
44304SOL    HW240028   2.069   5.666   7.374 -1.5913 -1.7898  0.8465
44305SOL     OW40029   9.675   5.606   8.063  0.3875  0.0745 -0.1971
44305SOL    HW140030   9.696   5.606   7.970  1.8426  0.6647  0.1155
44305SOL    HW240031   9.579   5.597   8.066 -0.0770  3.2010 -1.8510
44306SOL     OW40032   7.154   8.727  11.416 -0.8278 -0.6710  0.6284
44306SOL    HW140033   7.250   8.729  11.405 -0.9859 -1.1010 -1.1942
44306SOL    HW240034   7.131   8.817  11.438 -0.3816  0.6800 -3.5946
44307SOL     OW40035   0.638   0.760  10.579 -0.5518 -0.4628  0.2556
44307SOL    HW140036   0.694   0.776  10.655 -1.3976  0.2817  0.7527
44307SOL    HW240037   0.555   0.732  10.617 -0.8378 -0.5487 -0.4196
44308SOL     OW40038   0.534   4.974   9.814  0.3301 -0.2443 -0.0024
44308SOL    HW140039   0.517   5.021   9.732  0.9664  0.3857  0.2186
44308SOL    HW240040   0.476   5.016   9.878 -0.3161 -0.8700 -0.1613
44309SOL     OW40041   7.439  12.616   8.607 -0.1860  0.3290 -0.1212
44309SOL    HW140042   7.421  12.645   8.696  0.9785 -0.6338  0.4494
44309SOL    HW240043   7.532  12.593   8.607 -0.8745 -2.9389 -0.6010
44310SOL     OW40044   9.848   0.274   8.603 -0.6381  0.3788 -0.2556
44310SOL    HW140045   9.861   0.318   8.519 -2.5626 -0.6852 -1.1992
44310SOL    HW240046   9.766   0.226   8.592 -1.3366  0.7466  2.4822
44311SOL     OW40047   9.266   6.290   5.991 -0.6869  0.0118 -0.2636
44311SOL    HW140048   9.233   6.226   5.928 -0.9376 -0.5963  0.4668
44311SOL    HW240049   9.327   6.344   5.941 -1.4061 -0.0132 -1.1914
44312SOL     OW40050   1.410   6.410   7.523 -0.1730 -0.4762 -0.4797
44312SOL    HW140051   1.482   6.352   7.546  1.3562  1.4124 -0.2533
44312SOL    HW240052   1.361   6.422   7.605 -1.8344 -3.0605 -0.9785
44313SOL     OW40053   9.529   6.727   3.013  0.0396 -0.4882 -0.1622
44313SOL    HW140054   9.549   6.640   3.048  0.6665  0.0875  0.9901
44313SOL    HW240055   9.484   6.771   3.085 -0.2626  0.1468 -0.7336
44314SOL     OW40056   9.713   1.633   9.209  0.7061  0.0365  0.1937
44314SOL    HW140057   9.751   1.567   9.151 -0.4716 -0.1204 -0.4303
44314SOL    HW240058   9.714   1.592   9.296  1.5042 -0.1405  0.1139
44315SOL     OW40059   0.645   9.728   3.458  0.0734  0.7137 -0.1966
44315SOL    HW140060   0.629   9.644   3.413 -0.6258 -0.2421  1.7499
44315SOL    HW240061   0.679   9.785   3.389 -0.3922 -0.8555 -1.8135
44316SOL     OW40062   2.928   8.216   4.691 -0.0279  0.2621  0.2449
44316SOL    HW140063   2.938   8.129   4.731 -2.0669  0.4271  1.2310
44316SOL    HW240064   2.873   8.202   4.615  0.3916  0.5705 -0.1201
44317SOL     OW40065   1.666   4.148  11.748 -0.1297  0.5513 -0.1713
44317SOL    HW140066   1.589   4.111  11.791  1.1891  0.9749  2.8299
44317SOL    HW240067   1.714   4.192  11.818  2.1524  1.5325 -2.1761
44318SOL     OW40068   5.492  12.647   7.301  0.0486  0.1705 -0.1260
44318SOL    HW140069   5.487  12.627   7.208 -1.0344  1.6702 -0.4365
44318SOL    HW240070   5.571  12.700   7.310  0.0269  0.2241 -0.2470
44319SOL     OW40071   1.468   2.526   7.306  0.0020 -0.2924  0.1198
44319SOL    HW140072   1.465   2.622   7.299  1.4653 -0.2684 -0.5097
44319SOL    HW240073   1.525   2.509   7.381  0.8416 -0.6628 -0.5890
44320SOL     OW40074   1.033   8.612   1.676  0.5131 -0.1250 -0.5921
44320SOL    HW140075   1.126   8.588   1.674  0.7758  0.8758 -0.5758
44320SOL    HW240076   0.995   8.551   1.739  1.2022 -0.3953 -0.4191
44321SOL     OW40077   5.968   4.275   8.175 -0.0078  0.1270  0.2666
44321SOL    HW140078   6.001   4.364   8.161  0.7461 -0.2229 -0.2556
44321SOL    HW240079   5.917   4.281   8.255  1.2808  0.7121  1.0776
44322SOL     OW40080   7.895   5.168   5.865  0.9191 -0.2016 -0.3666
44322SOL    HW140081   7.815   5.116   5.859  0.5495  0.4517 -1.4881
44322SOL    HW240082   7.878   5.230   5.937 -0.8718  1.9400 -2.4561
44323SOL     OW40083   9.908   6.987   8.929  0.3059 -0.8721 -0.0104
44323SOL    HW140084   9.851   6.957   8.859  0.1267 -0.2109 -0.1510
44323SOL    HW240085   9.957   6.908   8.955 -0.8644 -1.5155  0.3230
44324SOL     OW40086   3.409  12.526   7.874  0.2778 -0.8623  0.5868
44324SOL    HW140087   3.416  12.531   7.970 -0.1535  1.2442  0.5713
44324SOL    HW240088   3.343  12.592   7.852  0.9247 -0.7615 -1.2163
44325SOL     OW40089   7.416   5.734   7.436  0.1971 -0.0412  0.5049
44325SOL    HW140090   7.482   5.776   7.382 -0.4893  0.8798  0.3656
44325SOL    HW240091   7.410   5.644   7.401  0.0224  0.4283 -0.7251
44326SOL     OW40092  11.845   2.613   1.019 -0.2694  0.0228 -0.3914
44326SOL    HW140093  11.801   2.528   1.028  1.6116 -1.0571 -0.8642
44326SOL    HW240094  11.863   2.640   1.109 -0.2573 -0.4286 -0.2553
44327SOL     OW40095   1.931   8.067   6.133 -0.0855  0.7351 -0.0361
44327SOL    HW140096   2.009   8.118   6.149  1.4479 -1.7941  1.1553
44327SOL    HW240097   1.870   8.092   6.203  0.2396  1.5585 -0.0385
44328SOL     OW40098   0.826   2.694  12.852 -0.4045  0.2235  0.1435
44328SOL    HW140099   0.735   2.677  12.827 -0.2672  0.4744 -0.5400
44328SOL    HW240100   0.874   2.619  12.817 -0.0901  0.9828 -1.0986
44329SOL     OW40101   7.996   1.041   2.160  0.5530  0.1006 -0.1830
44329SOL    HW140102   7.936   1.022   2.233  0.4961  0.1449 -0.2187
44329SOL    HW240103   7.944   1.093   2.099  0.4159 -0.4493 -0.5402
44330SOL     OW40104   4.231   9.605   7.252 -0.2606 -0.2853 -0.0405
44330SOL    HW140105   4.197   9.657   7.325 -1.0701  0.7541 -1.1149
44330SOL    HW240106   4.210   9.515   7.276 -0.0128 -0.0257  1.2561
44331SOL     OW40107   0.150   0.335  10.800 -0.0423 -0.1023  0.1592
44331SOL    HW140108   0.173   0.290  10.718  0.1917  0.3442 -0.0264
44331SOL    HW240109   0.111   0.267  10.854 -0.9013 -0.2434 -0.6092
44332SOL     OW40110   1.243  11.048   1.456 -0.7927  0.2885  0.5935
44332SOL    HW140111   1.313  11.095   1.411 -0.8590  1.0096  1.2153
44332SOL    HW240112   1.198  11.000   1.387  0.6568 -0.6553  0.2544
44333SOL     OW40113   2.761  11.962   1.679  0.2263 -0.1100  0.0631
44333SOL    HW140114   2.756  11.872   1.710 -1.3247  0.6289  2.2670
44333SOL    HW240115   2.853  11.986   1.688  0.7784 -1.6102 -1.1521
44334SOL     OW40116   6.207   9.332  11.978  0.2853  0.5299  0.1087
44334SOL    HW140117   6.222   9.238  11.994  1.6266  0.8739  1.0254
44334SOL    HW240118   6.112   9.341  11.977  0.0233 -1.2630 -2.7095
44335SOL     OW40119   9.700   3.166   5.062  0.1479 -0.2152  0.1290
44335SOL    HW140120   9.657   3.214   5.133 -0.2553 -0.8619  0.3331
44335SOL    HW240121   9.628   3.136   5.006  0.3747 -0.7107  0.0916
44336SOL     OW40122   0.781   6.184   7.881 -0.2254 -0.3518  0.2930
44336SOL    HW140123   0.798   6.210   7.790 -1.8748 -0.2823 -0.0271
44336SOL    HW240124   0.722   6.109   7.874 -2.8754  1.4920  1.2708
44337SOL     OW40125   4.852   2.197   4.054 -0.4755  1.0181 -0.4831
44337SOL    HW140126   4.803   2.239   3.984 -0.5517  0.0592 -1.0287
44337SOL    HW240127   4.842   2.103   4.037 -1.5816  0.7137  1.5661
44338SOL     OW40128   5.601   3.519  11.627 -0.3445  0.0736  0.0525
44338SOL    HW140129   5.693   3.492  11.627 -0.1871  0.5817 -0.8919
44338SOL    HW240130   5.571   3.500  11.716  0.2365 -1.5539 -0.0582
44339SOL     OW40131   6.715   2.939   3.667  0.4302  0.4263 -0.2695
44339SOL    HW140132   6.781   2.954   3.600  1.1049 -0.0968  0.2524
44339SOL    HW240133   6.761   2.888   3.734 -0.3933  0.4128  0.2997
44340SOL     OW40134   0.982   7.799   1.355  0.2818 -0.1228 -0.2052
44340SOL    HW140135   0.973   7.887   1.392  0.5175 -0.1739 -0.0263
44340SOL    HW240136   0.893   7.764   1.354  0.1438  0.2302 -0.5560
44341SOL     OW40137   2.143   6.541   8.042 -0.4742 -0.2303  0.1419
44341SOL    HW140138   2.216   6.567   8.098 -0.8389  1.7232 -0.2173
44341SOL    HW240139   2.165   6.453   8.013  1.5760  0.1666  0.3401
44342SOL     OW40140   9.270   7.588  11.809  0.0869  0.3392 -0.7291
44342SOL    HW140141   9.335   7.647  11.770  0.7823  0.5028  0.6218
44342SOL    HW240142   9.186   7.632  11.795  0.6660  2.1749  1.0843
44343SOL     OW40143   0.229   9.006   0.008  0.0954 -0.0311  0.6796
44343SOL    HW140144   0.214   8.995   0.102 -0.9467 -0.0364  0.5270
44343SOL    HW240145   0.223   9.100  -0.006 -0.9377 -0.1207  0.4456
44344SOL     OW40146   6.563  12.292   4.134  0.0890 -0.0920  0.0999
44344SOL    HW140147   6.636  12.324   4.188  0.1124  0.6361 -0.3477
44344SOL    HW240148   6.516  12.371   4.109 -0.7689 -0.5518  0.2479
44345SOL     OW40149   2.793   7.531   9.472  0.0682  0.4835 -0.1806
44345SOL    HW140150   2.704   7.500   9.487 -0.0651  1.4328  1.2280
44345SOL    HW240151   2.847   7.452   9.475 -0.6493 -0.0279 -0.4463
44346SOL     OW40152   2.422  11.951   6.633  0.4088 -0.1501  0.2221
44346SOL    HW140153   2.400  12.022   6.572  0.7428 -0.0141  0.2626
44346SOL    HW240154   2.513  11.930   6.614  0.5763  0.0312  0.8181
44347SOL     OW40155   0.544   0.901   2.213  0.2976 -0.0713  0.6074
44347SOL    HW140156   0.467   0.847   2.233  1.2688 -1.2162  1.3736
44347SOL    HW240157   0.550   0.962   2.286  0.8911 -0.8931  1.2640
44348SOL     OW40158   2.935   3.400   6.702  0.1653 -0.3238  0.1612
44348SOL    HW140159   2.958   3.492   6.691 -0.8901  1.0579  6.0649
44348SOL    HW240160   2.872   3.382   6.632  0.2624  3.4400 -1.1303
44349SOL     OW40161   1.985   6.781  12.718 -0.1417  0.0402 -0.4243
44349SOL    HW140162   2.052   6.721  12.748 -0.6399 -0.0948  0.4444
44349SOL    HW240163   1.938   6.733  12.650  0.6927  0.1768 -1.1189
44350SOL     OW40164   0.646   9.213   2.908 -0.3598  0.0674 -0.0289
44350SOL    HW140165   0.583   9.276   2.944  0.1164  0.1392  0.6964
44350SOL    HW240166   0.664   9.153   2.980 -0.3253 -0.5265 -0.5269
44351SOL     OW40167   4.623   3.436  10.222  0.2273  0.3510  0.1563
44351SOL    HW140168   4.566   3.462  10.150 -1.0521  0.4579  1.1756
44351SOL    HW240169   4.610   3.341  10.230 -2.2117  0.7396  2.2831
44352SOL     OW40170   2.747  11.829   6.204 -0.2233 -0.0106 -0.4328
44352SOL    HW140171   2.820  11.802   6.259 -0.4775  1.1193  0.5127
44352SOL    HW240172   2.735  11.922   6.224 -2.2714 -0.2795 -0.0931
44353SOL     OW40173   9.620   2.446   1.054  0.2828  0.7817  0.1496
44353SOL    HW140174   9.569   2.476   1.129  1.0845  2.2731  0.1466
44353SOL    HW240175   9.577   2.485   0.978  1.0568  1.5875  0.1010
44354SOL     OW40176   1.870   8.995  10.776 -0.4215  0.7724 -0.3042
44354SOL    HW140177   1.934   9.047  10.825  0.6578 -0.9347  0.1764
44354SOL    HW240178   1.789   9.004  10.825  0.6967 -1.1905  2.1332
44355SOL     OW40179   6.735   2.465   8.526 -0.0128  0.5152 -0.1933
44355SOL    HW140180   6.714   2.545   8.575  0.4848  1.5095 -1.5259
44355SOL    HW240181   6.828   2.474   8.505  1.1628 -2.3043  2.9036
44356SOL     OW40182  10.761   8.155   1.339 -0.1620 -0.6121  0.3724
44356SOL    HW140183  10.765   8.228   1.401  0.9925  0.6048 -1.0572
44356SOL    HW240184  10.852   8.125   1.332 -0.2094 -0.4900 -0.9701
44357SOL     OW40185   1.402   4.695   2.136 -0.5537  0.0942  0.2915
44357SOL    HW140186   1.345   4.675   2.210 -0.5348  1.7146  0.7936
44357SOL    HW240187   1.375   4.634   2.068 -1.9771 -0.0618  0.9577
44358SOL     OW40188   6.311   5.407  12.610  0.3337 -0.4096  0.1088
44358SOL    HW140189   6.230   5.361  12.587  0.7276 -0.7074 -0.7377
44358SOL    HW240190   6.371   5.386  12.538  1.1006 -0.0368  0.6302
44359SOL     OW40191   2.460   3.703  12.757  0.6255  0.0236 -0.1485
44359SOL    HW140192   2.467   3.611  12.784 -0.6729 -0.2893 -0.7927
44359SOL    HW240193   2.468   3.753  12.838  0.9690 -0.6727  0.2562
44360SOL     OW40194   6.161   2.392   7.397 -0.1363 -0.2020 -0.1206
44360SOL    HW140195   6.251   2.361   7.406  0.0342  0.2887 -0.1119
44360SOL    HW240196   6.149   2.404   7.303 -0.5742 -1.3780 -0.2255
44361SOL     OW40197   7.291   4.867  12.538  0.6902 -0.0508 -0.2738
44361SOL    HW140198   7.309   4.960  12.551 -1.4966  0.3167  0.6394
44361SOL    HW240199   7.211   4.851  12.589 -0.4660 -1.8280 -2.4644
44362SOL     OW40200  11.228   4.225   1.952  0.3347  0.0719  0.1972
44362SOL    HW140201  11.207   4.158   1.887 -0.1473 -0.1842  0.6160
44362SOL    HW240202  11.162   4.215   2.020  0.1118  1.1132  0.1605
44363SOL     OW40203  11.484   6.049   4.225 -0.5562  0.0335  0.6433
44363SOL    HW140204  11.535   6.113   4.273  0.0758  0.1201 -0.1199
44363SOL    HW240205  11.473   5.976   4.286 -0.6757  0.5713  1.2696
44364SOL     OW40206   5.481   9.870   7.258  0.7496  0.3292 -0.2431
44364SOL    HW140207   5.526   9.799   7.212 -1.4878 -0.3040 -1.6049
44364SOL    HW240208   5.477   9.941   7.193 -0.2635  0.3328 -0.1868
44365SOL     OW40209  10.096   0.720   4.979 -0.0036  0.4551  0.5851
44365SOL    HW140210  10.028   0.783   5.002 -1.1214 -0.3321 -0.4443
44365SOL    HW240211  10.075   0.642   5.031 -2.8454 -1.5246 -3.0740
44366SOL     OW40212   0.821   0.503   7.296 -0.0827  0.2942  0.2050
44366SOL    HW140213   0.750   0.443   7.316  0.3433 -0.1569  0.3727
44366SOL    HW240214   0.793   0.549   7.217  0.5662 -1.7180 -1.2780
44367SOL     OW40215   7.836   0.775   8.575  0.5096  0.4139 -0.6004
44367SOL    HW140216   7.877   0.785   8.661 -1.0815  0.4953  0.1955
44367SOL    HW240217   7.833   0.863   8.539 -0.0649  0.6005 -0.1139
44368SOL     OW40218   1.560  10.791   5.605  0.0483 -0.5401  1.1574
44368SOL    HW140219   1.631  10.728   5.595  0.5669  0.2599 -0.5076
44368SOL    HW240220   1.588  10.847   5.678  1.5028  0.1976  0.0814
44369SOL     OW40221   4.506   4.361   1.140  0.5988 -0.2340 -0.0475
44369SOL    HW140222   4.522   4.289   1.079 -1.1917  0.6135 -1.6231
44369SOL    HW240223   4.588   4.370   1.188  1.1242 -2.8334 -0.2767
44370SOL     OW40224   8.625  12.239   2.442  0.0620 -0.2687 -0.2655
44370SOL    HW140225   8.712  12.248   2.482 -0.7664  1.3752  1.2826
44370SOL    HW240226   8.625  12.149   2.408  2.1717 -0.4983  0.1575
44371SOL     OW40227   2.197   3.744   7.887 -0.4436 -0.3225  0.4707
44371SOL    HW140228   2.159   3.802   7.821  1.9830  0.6351 -0.2048
44371SOL    HW240229   2.283   3.782   7.905  0.7211 -2.9918  0.9891
44372SOL     OW40230  10.666   9.032  10.226  0.0299  0.0953  0.2646
44372SOL    HW140231  10.741   8.986  10.189 -0.0780 -0.7259  1.0251
44372SOL    HW240232  10.596   8.966  10.227 -0.8240  0.9443 -0.7771
44373SOL     OW40233  11.550  11.547   6.925  0.2144 -0.3409 -0.2908
44373SOL    HW140234  11.591  11.630   6.948 -1.6733  0.5275  0.1578
44373SOL    HW240235  11.623  11.485   6.919  1.6020  1.1798  0.0338
44374SOL     OW40236   8.498  10.948   8.892 -0.1270  0.2547  0.2688
44374SOL    HW140237   8.516  11.006   8.817  1.7870 -0.1432  0.3483
44374SOL    HW240238   8.407  10.922   8.882 -0.2830  1.2636 -1.1920
44375SOL     OW40239   8.090   3.684   2.414 -0.1873 -0.6092  0.5107
44375SOL    HW140240   8.173   3.704   2.457  0.0497  0.6851 -0.4976
44375SOL    HW240241   8.103   3.597   2.377  1.7406  0.5595 -1.8927
44376SOL     OW40242   3.185   3.488   3.819 -1.1480 -0.5709  0.1596
44376SOL    HW140243   3.215   3.513   3.907 -2.9692  0.0965  0.6450
44376SOL    HW240244   3.166   3.571   3.776 -0.6782 -0.9135 -0.7300
44377SOL     OW40245   3.820   5.942   9.370 -0.3865  0.2411 -0.3904
44377SOL    HW140246   3.747   5.894   9.408 -0.5270  1.3368  0.7847
44377SOL    HW240247   3.895   5.883   9.378 -0.5240  0.2332  1.1727
44378SOL     OW40248   5.200  10.100   6.541 -0.0062  0.0816  0.0071
44378SOL    HW140249   5.190  10.045   6.464  1.5688  0.3728 -0.4356
44378SOL    HW240250   5.190  10.190   6.508 -1.9019  0.1584  0.6131
44379SOL     OW40251   6.838   7.102   3.968  0.3545 -0.3563  0.4315
44379SOL    HW140252   6.745   7.081   3.960  0.3274 -0.2292  0.4190
44379SOL    HW240253   6.848   7.185   3.921  0.4621 -0.3384  0.4868
44380SOL     OW40254   7.405   6.757   0.070 -0.2474 -0.5527 -0.0245
44380SOL    HW140255   7.444   6.684   0.118  0.5488  0.0780  0.3059
44380SOL    HW240256   7.469   6.780   0.003  0.1123  0.6776  0.7081
44381SOL     OW40257   3.590   4.092   5.875 -0.2454 -0.5925 -0.0946
44381SOL    HW140258   3.640   4.147   5.936 -1.6579  0.8440 -0.1735
44381SOL    HW240259   3.645   4.015   5.862  1.4728  0.4564  0.6139
44382SOL     OW40260   0.331   5.198  10.350 -0.5800 -0.5030  0.3395
44382SOL    HW140261   0.390   5.182  10.277 -4.0148  0.7210 -3.0420
44382SOL    HW240262   0.276   5.120  10.354 -0.7455 -0.3515  1.3224
44383SOL     OW40263   3.579  11.274   4.173 -0.1792 -0.1679  0.1808
44383SOL    HW140264   3.547  11.361   4.148 -0.6707 -0.6191 -0.7828
44383SOL    HW240265   3.556  11.217   4.100 -1.7067 -1.5430  1.6529
44384SOL     OW40266   6.747   4.265  12.262 -1.0334 -0.4586  0.0723
44384SOL    HW140267   6.838   4.246  12.236 -1.0825 -0.5092 -0.0627
44384SOL    HW240268   6.756   4.330  12.332 -0.9023 -0.2333 -0.1502
44385SOL     OW40269  11.131   5.858   4.279 -0.1189 -0.0511  0.4857
44385SOL    HW140270  11.056   5.806   4.308 -0.4315 -0.3412 -0.7984
44385SOL    HW240271  11.102   5.899   4.198  1.1196 -0.1854 -0.0477
44386SOL     OW40272   3.413   5.522  12.100  0.0065  0.1418 -0.5456
44386SOL    HW140273   3.379   5.499  12.013  1.4060  0.3570 -1.1733
44386SOL    HW240274   3.472   5.450  12.123  0.1888  0.4359 -0.0804
44387SOL     OW40275   8.332   1.479   9.022  0.7146 -0.0059 -0.6555
44387SOL    HW140276   8.329   1.574   9.008  0.5568  0.0439 -0.2990
44387SOL    HW240277   8.352   1.469   9.115  0.5465 -0.3222 -0.6503
44388SOL     OW40278   2.282   1.033  12.027  0.2406  0.0158 -0.6017
44388SOL    HW140279   2.320   1.026  11.939  1.9989  1.4728 -0.0308
44388SOL    HW240280   2.203   1.086  12.015  0.8655  0.8364 -1.2286
44389SOL     OW40281   7.122  12.603   7.106 -0.0319 -0.2533 -0.1660
44389SOL    HW140282   7.140  12.519   7.147 -0.4444 -0.1074  0.3130
44389SOL    HW240283   7.201  12.655   7.124  0.1014 -0.4375 -0.2124
44390SOL     OW40284  11.029  10.753   2.557 -0.0759  0.1597  0.0837
44390SOL    HW140285  10.997  10.775   2.645 -0.3577  0.1741 -0.0224
44390SOL    HW240286  11.080  10.830   2.530 -1.0832  0.7061 -0.2964
44391SOL     OW40287  11.800   0.077  11.722  0.6841 -0.6677 -0.0220
44391SOL    HW140288  11.751   0.106  11.799  1.3203  0.2834  0.0478
44391SOL    HW240289  11.743   0.098  11.648  1.4063  1.5458 -0.0352
44392SOL     OW40290   8.985   8.901   0.223 -0.2734  0.1740 -0.5654
44392SOL    HW140291   9.019   8.982   0.186  1.2602  0.8215  1.9876
44392SOL    HW240292   9.063   8.854   0.252 -1.3136 -0.1012  2.0387
44393SOL     OW40293   8.016   2.271   8.987 -0.1198 -0.1849 -0.4150
44393SOL    HW140294   8.030   2.301   8.897  1.3598  0.6358  0.0547
44393SOL    HW240295   7.925   2.241   8.988 -0.1522 -0.2809 -2.1951
44394SOL     OW40296   6.948   8.924   2.460 -0.4112  0.1487 -0.0068
44394SOL    HW140297   7.011   8.890   2.396 -0.7711  1.1346 -0.9223
44394SOL    HW240298   6.867   8.875   2.443 -0.6367  0.7158 -0.6422
44395SOL     OW40299   4.107   5.808   0.208 -0.1144  0.0298  0.4852
44395SOL    HW140300   4.143   5.850   0.130 -1.9455 -0.0294 -0.4305
44395SOL    HW240301   4.073   5.879   0.262  1.5963  0.1210  1.5407
44396SOL     OW40302   7.667   2.196   3.625 -0.2335  0.7527 -0.0567
44396SOL    HW140303   7.627   2.226   3.706 -1.4012 -1.1399  0.1250
44396SOL    HW240304   7.759   2.221   3.633 -0.3007  0.5047  1.9083
44397SOL     OW40305   1.633   1.856   1.103 -0.3651  0.3664  0.7352
44397SOL    HW140306   1.640   1.949   1.079 -1.2390 -0.1674 -1.9276
44397SOL    HW240307   1.670   1.851   1.191 -0.1311  3.2023  0.8839
44398SOL     OW40308   1.555   7.178   6.233  0.1738  0.0945  0.3611
44398SOL    HW140309   1.465   7.160   6.260 -0.1906 -1.5372 -1.6179
44398SOL    HW240310   1.609   7.133   6.298 -0.3400  1.9457  2.1584
44399SOL     OW40311   4.591   9.319  11.762  0.1497 -0.4461 -0.0228
44399SOL    HW140312   4.684   9.297  11.774  0.2733  0.7984  1.6237
44399SOL    HW240313   4.551   9.298  11.846 -1.1180 -1.0918 -0.7603
44400SOL     OW40314   1.619   5.799   3.975 -0.7344  0.4753  0.6570
44400SOL    HW140315   1.537   5.777   3.931  1.1292 -2.1973 -1.8314
44400SOL    HW240316   1.647   5.881   3.933 -0.9308  0.0487 -0.3487
44401SOL     OW40317   0.513  12.684   4.314  0.9400 -0.1069  0.0202
44401SOL    HW140318   0.463  12.753   4.271  0.7233  0.3810  1.0296
44401SOL    HW240319   0.458  12.606   4.307  0.7365  0.0615 -0.2540
44402SOL     OW40320  12.783   3.938   4.397 -0.0736 -0.8160 -0.1902
44402SOL    HW140321  12.878   3.944   4.385 -0.1922 -1.0912 -1.3848
44402SOL    HW240322  12.753   4.029   4.402  0.5634 -0.6688  3.2873
44403SOL     OW40323   4.907   9.150   7.312 -0.5762  0.2113  0.2325
44403SOL    HW140324   4.986   9.110   7.349  1.1636  1.3228 -2.0077
44403SOL    HW240325   4.845   9.152   7.384  0.4497 -3.1929  1.3821
44404SOL     OW40326   1.184  11.228   2.884  0.0930 -0.4143  0.1319
44404SOL    HW140327   1.166  11.296   2.948 -0.5442  0.0017 -0.4715
44404SOL    HW240328   1.138  11.256   2.805  1.0473 -0.8076 -0.5800
44405SOL     OW40329   1.977   1.766  12.402 -0.3571  0.5988  0.5596
44405SOL    HW140330   1.908   1.819  12.443 -0.0657  1.3554  0.0838
44405SOL    HW240331   2.057   1.815  12.417  0.0563 -0.1596  0.8945
44406SOL     OW40332   5.760   9.885   2.013 -0.0727 -0.7976 -0.1139
44406SOL    HW140333   5.726   9.840   2.091 -0.5895  0.3628  0.3538
44406SOL    HW240334   5.692   9.949   1.991  1.3397  0.8874  0.2398
44407SOL     OW40335   4.580   8.799   9.612  0.5256 -0.1659 -0.1538
44407SOL    HW140336   4.648   8.840   9.557 -1.2697  0.7785 -1.7887
44407SOL    HW240337   4.561   8.864   9.678  0.2232  0.1564 -0.5543
44408SOL     OW40338   4.588   7.951   3.406 -0.1722  0.1314  0.0154
44408SOL    HW140339   4.528   8.007   3.356  0.3937  2.0111  1.3305
44408SOL    HW240340   4.532   7.908   3.471 -0.4143  0.1967 -0.1481
44409SOL     OW40341   4.040  12.760   3.463 -0.4123  0.3132  0.0994
44409SOL    HW140342   4.124  12.743   3.419 -1.1166 -0.3175 -1.0388
44409SOL    HW240343   4.031  12.689   3.526  0.1853  0.7275  0.6685
44410SOL     OW40344   5.174   5.936  11.977  0.0873  0.3281  0.0485
44410SOL    HW140345   5.117   5.876  12.025 -1.2314  0.0658 -1.7263
44410SOL    HW240346   5.261   5.919  12.012  0.0397 -3.6451 -1.2289
44411SOL     OW40347   9.755   6.609   6.775 -0.4363  0.0657 -0.5729
44411SOL    HW140348   9.795   6.526   6.747 -2.4851 -1.0496 -0.3540
44411SOL    HW240349   9.713   6.643   6.696  1.4480  1.6183 -0.9898
44412SOL     OW40350   5.255   9.628   4.895 -1.1296 -0.1560 -0.3768
44412SOL    HW140351   5.209   9.711   4.905 -1.0100 -0.0813 -0.4424
44412SOL    HW240352   5.344   9.653   4.872 -0.5820 -0.2322  1.4734
44413SOL     OW40353   8.995   4.632   1.531 -0.0826 -0.2066  0.1322
44413SOL    HW140354   9.005   4.539   1.513  0.8799 -0.3320  1.1822
44413SOL    HW240355   8.921   4.636   1.593  0.9935 -0.4854  1.4897
44414SOL     OW40356   0.945   3.790   3.033 -0.0601  0.8684  0.0080
44414SOL    HW140357   0.974   3.763   2.946 -0.4972  0.2302  0.0546
44414SOL    HW240358   1.019   3.770   3.090  0.9275  2.9363 -0.4605
44415SOL     OW40359   0.062   6.969  10.494  0.3315 -0.6064 -0.2148
44415SOL    HW140360  -0.030   6.942  10.492 -0.4880  1.9214 -0.3236
44415SOL    HW240361   0.091   6.949  10.583 -0.6792 -0.4359  0.1689
44416SOL     OW40362  10.364   6.165  12.267  0.4507 -0.0121  0.0283
44416SOL    HW140363  10.305   6.192  12.337 -1.7084 -1.9079 -0.8983
44416SOL    HW240364  10.420   6.099  12.307 -1.0766 -1.4259 -0.0290
44417SOL     OW40365   7.378  11.493   0.443 -0.4040  0.5416  0.6826
44417SOL    HW140366   7.342  11.580   0.425 -1.2549 -0.0214 -0.4750
44417SOL    HW240367   7.303  11.440   0.469 -0.2649 -0.3663 -0.6682
44418SOL     OW40368  10.955  11.412   9.257 -0.3558 -0.0128  0.0325
44418SOL    HW140369  11.003  11.494   9.248 -0.5432  0.1061  0.1070
44418SOL    HW240370  11.007  11.360   9.318 -1.5318  1.0588  2.0614
44419SOL     OW40371   2.885   5.701   8.994 -1.1780 -0.1846  0.3597
44419SOL    HW140372   2.883   5.797   9.001 -2.4690 -0.2033  0.5617
44419SOL    HW240373   2.960   5.682   8.938 -0.4491  0.9002  0.9221
44420SOL     OW40374   8.002   7.132   5.674  0.0050 -0.5541 -0.1150
44420SOL    HW140375   8.084   7.085   5.682  0.3455 -0.3777 -1.9750
44420SOL    HW240376   7.961   7.095   5.595 -0.8919  0.5388 -0.1894
44421SOL     OW40377   0.416   0.747  11.863 -0.2309 -0.3015  0.2067
44421SOL    HW140378   0.332   0.791  11.872 -0.5029 -0.9707  1.0214
44421SOL    HW240379   0.419   0.719  11.771 -0.9747 -0.4341  0.2216
44422SOL     OW40380   7.237   4.099   3.380  0.0025  0.1190  0.2566
44422SOL    HW140381   7.181   4.064   3.450  1.3759 -1.0378  0.8383
44422SOL    HW240382   7.208   4.054   3.301  1.2016 -1.8240  0.8560
44423SOL     OW40383   7.968  10.780   5.644  0.9007  0.0012 -0.1259
44423SOL    HW140384   7.882  10.737   5.635  1.0429 -0.5079  0.8708
44423SOL    HW240385   7.949  10.862   5.690  0.9439 -0.0589 -0.0034
44424SOL     OW40386   3.449   8.356   4.000 -0.1059 -0.4992 -0.1220
44424SOL    HW140387   3.365   8.402   3.991  1.4594  3.3782  2.5260
44424SOL    HW240388   3.509   8.406   3.945  1.4088 -0.1085  1.7851
44425SOL     OW40389  10.214   3.627   5.982 -0.2822  0.3450 -0.1745
44425SOL    HW140390  10.155   3.581   6.042  2.2875  0.2657  2.5067
44425SOL    HW240391  10.239   3.560   5.917  0.2696 -0.9436  1.3063
44426SOL     OW40392   1.759  11.465   9.285 -0.4451  0.3742 -0.2942
44426SOL    HW140393   1.844  11.508   9.290  0.4405 -1.0677 -1.7519
44426SOL    HW240394   1.718  11.481   9.370  1.5041  0.6651  0.6381
44427SOL     OW40395   4.245   8.483   2.509 -0.0521  0.0224  0.1101
44427SOL    HW140396   4.202   8.511   2.429  0.5709  0.5146 -0.0619
44427SOL    HW240397   4.337   8.508   2.497  0.3961 -1.4409  0.2564
44428SOL     OW40398   0.958   9.202   2.417 -0.2113  0.3500  0.3480
44428SOL    HW140399   0.896   9.255   2.469  0.3465  0.6556  0.7074
44428SOL    HW240400   1.031   9.261   2.399 -0.4399  0.2813 -0.8875
44429SOL     OW40401   0.426   8.815   4.887 -0.4412 -0.2383  0.9185
44429SOL    HW140402   0.517   8.791   4.908 -1.1897 -1.8291  2.5992
44429SOL    HW240403   0.413   8.900   4.929  0.2467 -0.0056  0.6783
44430SOL     OW40404  10.685   2.993   2.164  0.0033 -0.6280 -0.2455
44430SOL    HW140405  10.688   2.911   2.212  2.2494 -0.4141  0.1251
44430SOL    HW240406  10.700   3.061   2.230  2.3435 -0.2751 -1.0105
44431SOL     OW40407   4.892   2.298  10.205  0.0737  0.6690 -0.6501
44431SOL    HW140408   4.841   2.325  10.129 -0.5288  1.4141 -0.0099
44431SOL    HW240409   4.835   2.240  10.254  0.7886 -0.5341 -1.2043
44432SOL     OW40410  12.026   6.750  11.092 -0.0728 -0.4366 -0.2307
44432SOL    HW140411  11.978   6.832  11.100 -0.4134 -0.6130 -0.4531
44432SOL    HW240412  12.118   6.776  11.100 -0.2566 -0.3370  2.1114
44433SOL     OW40413   5.735   8.365   4.284 -0.0259 -0.2269  0.1153
44433SOL    HW140414   5.745   8.394   4.375  0.4374 -3.0717  1.1033
44433SOL    HW240415   5.825   8.356   4.253 -0.1746  0.2416 -0.4504
44434SOL     OW40416  10.754   7.660   7.927 -0.1555 -0.3338  0.5287
44434SOL    HW140417  10.815   7.586   7.915  0.4771  0.3656 -0.8435
44434SOL    HW240418  10.669   7.619   7.940 -0.1059 -1.3448 -1.8708
44435SOL     OW40419   7.705   1.728   6.652 -0.4690  0.3210 -0.1121
44435SOL    HW140420   7.621   1.683   6.652 -1.0947  1.4570  0.4865
44435SOL    HW240421   7.723   1.746   6.745  0.3398  0.2507 -0.2487
44436SOL     OW40422   3.289   6.491   3.629 -0.3415 -0.3591 -0.2883
44436SOL    HW140423   3.214   6.483   3.570  0.8769 -1.3663 -1.7645
44436SOL    HW240424   3.334   6.407   3.622  1.3654  0.5081 -0.0596
44437SOL     OW40425   3.181   5.909   8.862  0.3198 -0.4650 -0.1232
44437SOL    HW140426   3.176   5.966   8.785  1.3749 -0.9299 -0.5537
44437SOL    HW240427   3.237   5.957   8.923 -0.6255 -0.0359  0.4215
44438SOL     OW40428   1.283   0.542  11.064  0.0624 -0.1705  0.2351
44438SOL    HW140429   1.290   0.552  10.969 -0.6879  1.3234  0.3083
44438SOL    HW240430   1.276   0.447  11.078  0.6787 -0.4433 -1.1434
44439SOL     OW40431   5.080  12.272   8.651 -0.0373  0.1116 -0.2521
44439SOL    HW140432   5.097  12.315   8.567  0.2832 -0.6363 -0.5765
44439SOL    HW240433   4.987  12.250   8.647  0.2195 -0.9234 -0.8955
44440SOL     OW40434  11.076   4.882  11.963 -0.1932  0.6289  0.0833
44440SOL    HW140435  11.064   4.945  11.892  1.3010 -0.0007 -0.7712
44440SOL    HW240436  11.123   4.930  12.031  1.6581  0.2969 -0.8881
44441SOL     OW40437   1.394   6.667   2.561 -0.5717  0.1163 -0.1501
44441SOL    HW140438   1.361   6.646   2.473 -0.7274 -0.0189 -0.0608
44441SOL    HW240439   1.340   6.741   2.589 -1.1095 -0.3882  0.1753
44442SOL     OW40440   0.772   4.125   5.467 -0.0862  0.0397  0.2416
44442SOL    HW140441   0.852   4.160   5.507 -0.6300  1.2595  0.3134
44442SOL    HW240442   0.795   4.113   5.375  0.3300 -0.1216  0.3612
44443SOL     OW40443  11.916  10.542   3.344 -0.3013  0.0758  0.2448
44443SOL    HW140444  11.840  10.567   3.292  0.1772 -2.2447 -1.7368
44443SOL    HW240445  11.984  10.605   3.320 -0.6570  0.2051 -0.4275
44444SOL     OW40446   3.762   9.983   7.820 -0.1254 -0.7074 -0.2470
44444SOL    HW140447   3.722  10.070   7.816 -0.0909 -0.6982 -0.3941
44444SOL    HW240448   3.801   9.970   7.734  1.2798 -0.1975  0.2827
44445SOL     OW40449   3.661   5.623   6.111  0.4441  0.3423  0.2632
44445SOL    HW140450   3.667   5.563   6.185 -0.0096 -0.0369  0.0018
44445SOL    HW240451   3.660   5.566   6.034  0.6784  0.7194 -0.0245
44446SOL     OW40452   7.122   0.619   4.753  0.1865 -0.4455 -1.0043
44446SOL    HW140453   7.104   0.587   4.665 -0.7315 -1.2382 -0.5326
44446SOL    HW240454   7.040   0.658   4.783  0.9119  1.2459 -1.0669
44447SOL     OW40455   3.908   2.315   6.813 -0.0050 -0.0673 -0.3320
44447SOL    HW140456   3.957   2.388   6.774 -2.9273  1.9920 -0.5448
44447SOL    HW240457   3.817   2.345   6.812 -1.5825 -4.1995 -1.4105
44448SOL     OW40458  10.429  12.006  10.093 -0.0962 -0.0457  0.2134
44448SOL    HW140459  10.387  12.043  10.015  0.0703 -2.4887 -1.1500
44448SOL    HW240460  10.499  12.068  10.114 -2.7473  2.8885  1.1260
44449SOL     OW40461   9.055   8.052   4.323  0.7899  0.0880 -0.0546
44449SOL    HW140462   9.119   8.077   4.256  0.4154  1.9636  0.2418
44449SOL    HW240463   9.107   8.041   4.403  0.9929 -0.4050 -0.2474
44450SOL     OW40464   0.066   6.649   3.745 -0.6266  0.3217 -0.3947
44450SOL    HW140465  -0.005   6.597   3.781 -2.4915  2.1555 -1.2040
44450SOL    HW240466   0.142   6.627   3.799 -1.9232 -1.2351  0.9095
44451SOL     OW40467   9.740   5.845   2.897  0.4603 -0.1104 -0.2781
44451SOL    HW140468   9.783   5.856   2.982  0.9942  0.1140 -0.5757
44451SOL    HW240469   9.778   5.912   2.841 -1.4464  1.1929 -0.1194
44452SOL     OW40470   4.263  10.646   6.720  0.5864  0.0373 -0.1750
44452SOL    HW140471   4.252  10.741   6.716  0.2248 -0.0298 -1.2977
44452SOL    HW240472   4.225  10.621   6.804 -0.0118  0.8030 -0.2004
44453SOL     OW40473   3.656   1.912   1.738  0.4633 -0.6313 -0.3443
44453SOL    HW140474   3.702   1.899   1.821  0.5690 -0.5199 -0.3837
44453SOL    HW240475   3.571   1.871   1.751  0.5556 -0.7968 -0.2525
44454SOL     OW40476   2.864   6.562   1.069  1.0402 -0.5079  0.0001
44454SOL    HW140477   2.857   6.475   1.109  1.1032 -0.6277 -0.2436
44454SOL    HW240478   2.946   6.558   1.019 -0.1988 -1.1704 -2.0843
44455SOL     OW40479   6.027  12.509  10.988 -0.0729 -0.4890 -0.0191
44455SOL    HW140480   6.098  12.467  11.037  0.1399  2.2398  2.2710
44455SOL    HW240481   6.072  12.571  10.930 -0.5108 -0.3834 -0.2452
44456SOL     OW40482   7.424   7.599   3.178  0.0176  0.1359  0.4847
44456SOL    HW140483   7.336   7.569   3.156 -0.5247  1.3390  0.8998
44456SOL    HW240484   7.451   7.544   3.252 -0.4625 -0.1032  0.4834
44457SOL     OW40485   8.751   3.135   1.574 -0.8230  0.2703  0.1311
44457SOL    HW140486   8.776   3.053   1.533 -0.6221  0.2854  0.2229
44457SOL    HW240487   8.751   3.117   1.668  0.8969  0.8231  0.2687
44458SOL     OW40488   3.514  10.198   8.804  0.0922 -0.1156 -0.3267
44458SOL    HW140489   3.438  10.151   8.769 -0.8576  3.0095 -2.9136
44458SOL    HW240490   3.476  10.269   8.855  1.4726 -1.1992  2.3795
44459SOL     OW40491   0.011  12.373   7.687  0.2725  0.1760 -0.1841
44459SOL    HW140492  -0.037  12.439   7.737 -0.9488 -0.1823 -0.8377
44459SOL    HW240493   0.100  12.408   7.681  0.8520 -0.3869  3.2978
44460SOL     OW40494  11.338   8.951   2.716 -0.0488 -0.3367 -0.1008
44460SOL    HW140495  11.422   8.959   2.760  0.3208 -0.3222 -0.7931
44460SOL    HW240496  11.331   9.030   2.663 -1.0518  0.2470  0.8653
44461SOL     OW40497  12.353   2.847   9.284 -0.1017 -0.3527  0.1207
44461SOL    HW140498  12.332   2.826   9.193  0.7572 -0.1105 -0.1365
44461SOL    HW240499  12.333   2.767   9.332 -0.3351 -0.5570 -0.3138
44462SOL     OW40500   6.507   1.231   1.859  0.2299 -0.8081 -0.4437
44462SOL    HW140501   6.429   1.286   1.856  1.0871  0.4308 -1.2093
44462SOL    HW240502   6.473   1.142   1.862 -1.2460 -0.4075 -2.6825
44463SOL     OW40503   8.665  10.041  12.315  0.1322 -0.7909  0.2152
44463SOL    HW140504   8.692  10.001  12.232  1.0387 -0.4033  0.3087
44463SOL    HW240505   8.684  10.134  12.304  1.7108 -0.9320  1.3787
44464SOL     OW40506  12.517   1.579   6.897 -0.1603  0.7419 -0.1496
44464SOL    HW140507  12.606   1.592   6.865  0.5203 -0.7902  1.0000
44464SOL    HW240508  12.508   1.645   6.966  0.9519 -0.5274  1.2862
44465SOL     OW40509   0.313   4.591  11.154 -0.6054  0.3125  0.2719
44465SOL    HW140510   0.342   4.500  11.142  3.6858  1.7362 -2.1752
44465SOL    HW240511   0.259   4.588  11.232  2.4640 -3.7654  2.6591
44466SOL     OW40512   3.812   4.655   8.814  0.6550 -0.3093  0.0709
44466SOL    HW140513   3.838   4.738   8.775  0.5371  0.1107  0.8768
44466SOL    HW240514   3.756   4.614   8.748  2.4130 -0.7274 -1.2353
44467SOL     OW40515   3.762   9.243   2.297  0.6848  0.0893  1.3037
44467SOL    HW140516   3.779   9.337   2.308 -1.3023  0.6399  0.2022
44467SOL    HW240517   3.789   9.224   2.208 -0.1010 -0.0504  1.0829
44468SOL     OW40518   9.703   3.667   2.587 -0.5906  0.0755 -0.2417
44468SOL    HW140519   9.796   3.654   2.571 -0.3198  1.8282 -0.2622
44468SOL    HW240520   9.682   3.609   2.660  1.1150  1.4656  1.4599
44469SOL     OW40521  10.520   4.236   4.179 -0.5405  0.1727 -0.5797
44469SOL    HW140522  10.445   4.217   4.123 -1.5255 -0.2441  0.8367
44469SOL    HW240523  10.510   4.178   4.254  0.4743  1.0628  0.2817
44470SOL     OW40524   0.087  11.033  10.636 -0.2330  0.2696 -0.2676
44470SOL    HW140525   0.151  11.047  10.566 -0.8358  0.5206 -0.7809
44470SOL    HW240526   0.027  10.968  10.601 -1.7220  1.8631 -0.8248
44471SOL     OW40527   2.836  11.051   8.658  0.1907  0.1599 -0.0280
44471SOL    HW140528   2.800  11.130   8.698  1.1023 -0.0809  1.3416
44471SOL    HW240529   2.929  11.055   8.677  0.1999 -1.4067  0.3766
44472SOL     OW40530  10.359   5.483   9.069  0.1898  0.5428  0.1834
44472SOL    HW140531  10.441   5.458   9.113  1.2592 -1.9154 -2.8621
44472SOL    HW240532  10.292   5.428   9.110  0.3583  1.2204  1.4170
44473SOL     OW40533  10.847   4.358   6.917  0.3510 -0.2985 -0.3180
44473SOL    HW140534  10.903   4.328   6.845  1.5385  2.2731 -0.5604
44473SOL    HW240535  10.850   4.453   6.912 -1.8572 -0.0629  1.4076
44474SOL     OW40536   0.760   4.760  10.860 -0.1928  0.0756 -0.2439
44474SOL    HW140537   0.816   4.729  10.789 -0.0589 -1.0990  0.3531
44474SOL    HW240538   0.821   4.789  10.928 -0.3211  0.7413 -0.4075
44475SOL     OW40539  11.070   1.750   3.818 -0.1164  0.2544 -0.2593
44475SOL    HW140540  11.066   1.738   3.913 -0.0950 -0.9698 -0.4002
44475SOL    HW240541  10.993   1.705   3.784 -0.7060  1.5815 -0.7655
44476SOL     OW40542  11.463   6.109   1.795 -0.0181 -0.2965 -0.6470
44476SOL    HW140543  11.478   6.015   1.801 -2.5248 -0.8540 -1.8865
44476SOL    HW240544  11.488   6.132   1.706 -2.9623 -0.6297 -1.6605
44477SOL     OW40545   6.808   9.375   5.174  0.4194 -0.3360 -0.3872
44477SOL    HW140546   6.854   9.451   5.138 -0.1344  0.3861  0.3906
44477SOL    HW240547   6.795   9.317   5.098 -0.9412  1.2529 -1.4434
44478SOL     OW40548  12.872   3.122   5.561 -0.2441 -0.4300 -0.4893
44478SOL    HW140549  12.903   3.131   5.651 -0.0587 -1.0553 -0.4855
44478SOL    HW240550  12.946   3.087   5.513 -0.1569  0.4583 -1.0188
44479SOL     OW40551  12.457   1.954   6.654  0.5548 -0.6380  0.1689
44479SOL    HW140552  12.445   1.859   6.649  0.0037 -0.5944  0.6055
44479SOL    HW240553  12.511   1.975   6.577  0.3260 -1.2474 -0.1659
44480SOL     OW40554   3.145   6.913   7.704 -0.0273  0.0510 -0.2969
44480SOL    HW140555   3.055   6.902   7.671  0.5195 -0.6821 -1.5961
44480SOL    HW240556   3.149   6.855   7.780 -0.3120 -0.8430 -0.9434
44481SOL     OW40557  12.943  11.599   8.075 -0.3117 -1.0028 -1.0994
44481SOL    HW140558  12.967  11.506   8.068 -1.8006 -1.6239  1.1355
44481SOL    HW240559  12.848  11.599   8.078 -0.3322  0.6252 -0.9533
44482SOL     OW40560   4.907   4.148   9.984  0.1712 -0.2180  0.4393
44482SOL    HW140561   4.890   4.161  10.077  0.1521  2.0138  0.1794
44482SOL    HW240562   4.944   4.232   9.954 -0.0811 -0.7756 -1.6159
44483SOL     OW40563  10.646   0.330   3.621 -0.1229 -0.4871 -0.3083
44483SOL    HW140564  10.619   0.309   3.710  0.4805 -0.7893 -0.1902
44483SOL    HW240565  10.596   0.270   3.565 -1.1357  0.2840 -0.2411
44484SOL     OW40566   0.373   6.900   0.117 -0.0274  0.3913 -0.3062
44484SOL    HW140567   0.287   6.905   0.075 -0.5143  0.1807  0.6449
44484SOL    HW240568   0.411   6.819   0.085  0.0268  0.7244 -1.1092
44485SOL     OW40569  11.094  10.363   9.300  0.4836  0.3941  0.0259
44485SOL    HW140570  11.151  10.287   9.310  0.4587  0.4981  1.1225
44485SOL    HW240571  11.134  10.414   9.229  0.9240 -0.2576 -0.2055
44486SOL     OW40572  10.857   6.738  11.524  0.2457  0.2503  0.2841
44486SOL    HW140573  10.820   6.817  11.485  0.2165 -0.3353 -0.9277
44486SOL    HW240574  10.945   6.763  11.550 -0.1154  0.9571  0.8597
44487SOL     OW40575   1.393   4.288   4.841 -0.2540 -0.4306 -0.2983
44487SOL    HW140576   1.416   4.365   4.788 -0.8192  0.4445  0.7002
44487SOL    HW240577   1.396   4.215   4.779  1.2662  0.2366 -1.0610
44488SOL     OW40578   7.511  11.471  11.833  0.2278 -0.3661 -0.1382
44488SOL    HW140579   7.591  11.462  11.783 -0.8315 -0.3522 -1.9257
44488SOL    HW240580   7.529  11.543  11.894  1.3661  0.0316 -0.9070
44489SOL     OW40581   8.341  12.595  11.621 -0.4583  0.3541  0.3550
44489SOL    HW140582   8.374  12.683  11.608  0.0163 -0.0923 -1.8666
44489SOL    HW240583   8.416  12.545  11.651 -0.2388  0.3042 -0.2707
44490SOL     OW40584   9.991   3.019   8.950  0.2709 -0.5652  0.7526
44490SOL    HW140585  10.062   3.081   8.965  0.5726  0.1164 -2.6700
44490SOL    HW240586  10.032   2.947   8.903 -1.1068 -0.4602 -0.7055
44491SOL     OW40587   6.365  12.766   3.032  0.4384  0.4611  0.1822
44491SOL    HW140588   6.411  12.776   3.115 -0.8886 -0.1874  1.0284
44491SOL    HW240589   6.272  12.771   3.055  0.0372 -0.0757 -1.2194
44492SOL     OW40590   5.558   6.389   1.762 -0.0122 -0.1390 -0.4673
44492SOL    HW140591   5.539   6.380   1.669  2.6745 -1.4417 -0.9772
44492SOL    HW240592   5.654   6.384   1.768 -0.1643 -2.3100  2.5419
44493SOL     OW40593   8.975  10.336   7.539 -0.1706 -0.3046  0.2663
44493SOL    HW140594   8.926  10.355   7.459 -0.7420  2.3724  1.1481
44493SOL    HW240595   9.057  10.385   7.528 -1.1688  1.9420  2.1631
44494SOL     OW40596   3.462   5.941   5.471 -0.2771  0.2465  0.4647
44494SOL    HW140597   3.421   5.929   5.557  0.7465 -0.3755  0.8825
44494SOL    HW240598   3.427   5.870   5.418 -0.2825  0.1387  0.6123
44495SOL     OW40599  11.690  10.384   8.092 -0.4202  0.1725  0.0433
44495SOL    HW140600  11.768  10.378   8.147  2.0184 -1.6718 -3.2442
44495SOL    HW240601  11.712  10.451   8.026 -1.7985 -0.0621 -0.6977
44496SOL     OW40602   2.888   0.778  11.393  0.1681 -0.0941 -0.4371
44496SOL    HW140603   2.910   0.689  11.423  0.4166 -0.0548 -0.5011
44496SOL    HW240604   2.796   0.789  11.417  1.2640  1.3720  3.8765
44497SOL     OW40605   1.564   3.975  11.422 -0.4836 -0.1607 -0.2382
44497SOL    HW140606   1.546   4.069  11.422  0.2029 -0.0250 -0.1536
44497SOL    HW240607   1.591   3.956  11.512 -0.1865 -0.3543 -0.3702
44498SOL     OW40608   8.746   5.334   8.143 -0.0830 -0.1569 -0.1339
44498SOL    HW140609   8.670   5.281   8.169  0.3381 -0.4989  0.3983
44498SOL    HW240610   8.745   5.409   8.203 -0.3799  0.1862 -0.5581
44499SOL     OW40611  10.438  10.576   1.352  0.5861  0.0967  0.1717
44499SOL    HW140612  10.377  10.552   1.283  0.3440  0.7378  0.1569
44499SOL    HW240613  10.396  10.546   1.433  0.3132  0.4045  0.1475
44500SOL     OW40614   7.719   1.366   9.484  0.4859 -0.5063  0.6907
44500SOL    HW140615   7.757   1.362   9.572  0.5685  0.9466  0.7547
44500SOL    HW240616   7.775   1.309   9.431  1.6760  0.1555  1.1777
44501SOL     OW40617  11.941   4.855   2.476  0.0654 -0.7582 -0.3323
44501SOL    HW140618  11.946   4.773   2.428 -0.8284 -2.7831  2.7276
44501SOL    HW240619  11.944   4.829   2.568 -2.2450  2.4656  0.8328
44502SOL     OW40620   5.891   6.242   7.631 -0.2002 -0.1792  0.2735
44502SOL    HW140621   5.860   6.281   7.712  1.8019 -0.7278  1.3778
44502SOL    HW240622   5.986   6.234   7.643  0.1551 -0.2827 -2.1276
44503SOL     OW40623   0.348   8.900   2.416  0.2607  0.1284 -0.4123
44503SOL    HW140624   0.265   8.854   2.434 -0.4695  0.9537 -1.5102
44503SOL    HW240625   0.383   8.854   2.340 -0.0560  0.8490 -1.0000
44504SOL     OW40626   2.556  12.029   2.501  0.1041  0.4021  0.2782
44504SOL    HW140627   2.623  12.093   2.478 -0.2340  1.0483  1.0542
44504SOL    HW240628   2.474  12.070   2.475 -0.0790  0.0884  0.3576
44505SOL     OW40629   7.694   3.840   3.957  0.4489 -0.2203  0.0831
44505SOL    HW140630   7.656   3.928   3.963  1.2221  0.1206  0.1200
44505SOL    HW240631   7.637   3.786   4.012 -0.4287  0.1116 -0.4789
44506SOL     OW40632  10.016  10.788   3.166 -0.2588  0.3354  0.0624
44506SOL    HW140633  10.032  10.823   3.078  0.4008 -1.7075 -0.7037
44506SOL    HW240634   9.924  10.761   3.163 -0.4410  0.9319  0.2523
44507SOL     OW40635  11.713   6.857   3.230 -0.5410  0.0636 -0.7208
44507SOL    HW140636  11.709   6.854   3.326 -1.3601 -0.9642 -0.7680
44507SOL    HW240637  11.718   6.950   3.209 -1.3510  0.3486  0.2887
44508SOL     OW40638   2.543   4.034   9.100  0.1075 -0.2357 -0.9791
44508SOL    HW140639   2.595   4.060   9.024 -1.1746 -1.3462 -2.3083
44508SOL    HW240640   2.586   4.076   9.175  1.0760  1.3701 -2.3710
44509SOL     OW40641  11.018   6.592  12.549 -0.0937  0.4537 -0.1865
44509SOL    HW140642  11.077   6.619  12.480 -1.2135  0.2195 -1.2715
44509SOL    HW240643  10.935   6.636  12.529 -0.3976  0.5139  1.0984
44510SOL     OW40644   0.469   8.392   4.130  0.5704  0.2419  0.4766
44510SOL    HW140645   0.481   8.479   4.169  0.0761  0.3942  0.2970
44510SOL    HW240646   0.551   8.376   4.083  0.8828  0.3735  0.9646
44511SOL     OW40647   7.436  12.256   3.596 -0.3556 -0.4019 -0.6188
44511SOL    HW140648   7.510  12.231   3.651  0.6177  0.9310 -1.2804
44511SOL    HW240649   7.359  12.221   3.642  0.6641 -1.7833  0.0859
44512SOL     OW40650   2.664  10.910   2.786  0.5439 -0.1263 -0.0720
44512SOL    HW140651   2.630  10.931   2.699  2.9174 -2.7265 -1.7930
44512SOL    HW240652   2.629  10.823   2.805  2.0591 -0.6694  0.3878
44513SOL     OW40653   4.096  11.171  12.546 -0.3503 -0.8968  0.0074
44513SOL    HW140654   4.088  11.252  12.495 -1.6300 -1.3725 -0.5881
44513SOL    HW240655   4.191  11.154  12.548 -0.1617 -0.1221 -1.0371
44514SOL     OW40656   9.428  11.696   9.778  0.4751  0.0635  0.4337
44514SOL    HW140657   9.344  11.697   9.733  0.0594 -1.0603  1.1408
44514SOL    HW240658   9.443  11.787   9.804 -1.5504 -0.0371  2.1600
44515SOL     OW40659   1.297  12.797  10.173  0.1338  0.0642 -0.4471
44515SOL    HW140660   1.329  12.887  10.181  0.5792 -0.0626 -0.7598
44515SOL    HW240661   1.355  12.746  10.230  0.3993 -0.1469 -0.9049
44516SOL     OW40662  11.005   0.180   8.752  0.4065  0.3506  0.1427
44516SOL    HW140663  11.071   0.162   8.819  0.2091 -1.9784 -0.1972
44516SOL    HW240664  11.038   0.137   8.673 -1.0925 -0.1144 -0.2658
44517SOL     OW40665   0.627   6.193   5.104  0.9856 -0.0750  0.1376
44517SOL    HW140666   0.549   6.234   5.141  1.4865  0.7830  0.2877
44517SOL    HW240667   0.681   6.267   5.076  1.2115 -0.6832 -1.0796
44518SOL     OW40668   2.265   7.291   9.797  0.4904 -0.0807 -0.0199
44518SOL    HW140669   2.258   7.386   9.787 -2.4591 -0.3748 -1.6883
44518SOL    HW240670   2.298   7.259   9.713  0.1801 -0.6554  0.0701
44519SOL     OW40671   1.510   1.766   2.043 -0.3943 -0.0402 -0.5653
44519SOL    HW140672   1.519   1.844   2.097 -0.6276 -1.1387  1.1470
44519SOL    HW240673   1.549   1.790   1.959  2.7091  0.8812  0.9669
44520SOL     OW40674   0.006   7.341   8.954  0.5513  0.1258  0.2773
44520SOL    HW140675  -0.071   7.286   8.966 -0.4839  1.6565  0.9742
44520SOL    HW240676  -0.010   7.390   8.873 -0.2824  1.9978  1.4827
44521SOL     OW40677   7.940   7.664   2.757  0.1198  0.6119 -0.2009
44521SOL    HW140678   8.028   7.682   2.724 -0.0982  0.3293 -0.9274
44521SOL    HW240679   7.954   7.632   2.846  0.8054 -0.2782 -0.6247
44522SOL     OW40680  12.427   3.788  12.153 -0.0333 -0.4958  0.4072
44522SOL    HW140681  12.434   3.769  12.059  0.7840 -0.7843  0.5219
44522SOL    HW240682  12.412   3.882  12.157  0.4067 -0.4023 -0.0049
44523SOL     OW40683   7.344   7.321   5.674 -0.0059 -0.2592  0.0590
44523SOL    HW140684   7.392   7.371   5.740 -0.5246 -0.2462  0.4247
44523SOL    HW240685   7.400   7.246   5.655  1.1637  0.8375 -1.0687
44524SOL     OW40686   4.998   6.749   9.357 -0.4068 -1.0196 -0.0584
44524SOL    HW140687   4.909   6.777   9.337  0.0856  0.9492  0.3709
44524SOL    HW240688   5.034   6.818   9.412  1.3542 -1.8413 -0.1002
44525SOL     OW40689   1.136   5.864  11.039  0.1465  0.6713  0.1395
44525SOL    HW140690   1.119   5.951  11.075 -0.3309  1.1222 -1.1066
44525SOL    HW240691   1.231   5.856  11.039  0.1719  0.9286  0.8560
44526SOL     OW40692  10.111   3.757  11.412 -0.2585  0.0651 -0.1476
44526SOL    HW140693  10.108   3.720  11.500  0.6665  0.1347 -0.0783
44526SOL    HW240694  10.088   3.684  11.355 -2.2114  0.3377  0.2025
44527SOL     OW40695   2.203  11.882   9.682 -0.0121  0.4858 -0.2198
44527SOL    HW140696   2.136  11.856   9.619  0.5461 -0.0566 -0.6095
44527SOL    HW240697   2.174  11.967   9.715 -0.2000  0.8965 -1.3892
44528SOL     OW40698   8.340   6.846   1.673  0.1141 -0.0647 -0.2386
44528SOL    HW140699   8.341   6.869   1.580 -1.6657  1.8369  0.1485
44528SOL    HW240700   8.275   6.904   1.712  1.9375  0.3343  2.4934
44529SOL     OW40701   9.676  12.410  11.252  0.6211 -0.1652  0.7025
44529SOL    HW140702   9.591  12.452  11.266  0.4371 -0.2343 -0.1235
44529SOL    HW240703   9.659  12.317  11.262  0.3596 -0.2618 -0.4879
44530SOL     OW40704   0.121   1.859  11.414 -0.2287 -0.8148  0.0885
44530SOL    HW140705   0.074   1.942  11.422 -0.0200 -0.5070 -1.6457
44530SOL    HW240706   0.066   1.806  11.356 -0.0968 -1.7072  0.7631
44531SOL     OW40707   3.661   5.784   1.443  0.1278  0.2315 -0.2014
44531SOL    HW140708   3.580   5.757   1.400 -0.0251 -1.4481  1.0808
44531SOL    HW240709   3.637   5.797   1.535  0.7969  2.2009 -0.2532
44532SOL     OW40710  11.956   3.720   6.043 -0.3880  0.1465 -0.4877
44532SOL    HW140711  12.008   3.655   6.090 -0.9940  0.0060 -0.0037
44532SOL    HW240712  11.939   3.788   6.108 -1.3328 -0.1088 -0.4580
44533SOL     OW40713   5.811  12.369   6.553 -0.3194  0.1862 -0.2168
44533SOL    HW140714   5.879  12.380   6.487 -1.3556  0.4520 -1.2836
44533SOL    HW240715   5.852  12.317   6.622  0.7370 -0.2933 -1.1724
44534SOL     OW40716   2.092   0.990   5.623 -0.0985  0.2049  0.3300
44534SOL    HW140717   2.057   0.901   5.618  1.6572 -0.4948 -0.5149
44534SOL    HW240718   2.041   1.032   5.692  0.0340 -1.9717  1.8714
44535SOL     OW40719   3.100   1.959   8.419  0.2994  0.1660 -0.3519
44535SOL    HW140720   3.043   2.024   8.460 -2.8810 -1.3069 -2.1131
44535SOL    HW240721   3.104   1.887   8.483 -0.9928 -0.2812 -0.7480
44536SOL     OW40722   1.697   0.003   9.139 -0.4354 -0.0071 -0.5690
44536SOL    HW140723   1.672   0.057   9.064  1.8514  0.2865 -1.1796
44536SOL    HW240724   1.706   0.065   9.211  0.9940  0.2870 -0.9772
44537SOL     OW40725  10.856   9.974   7.880 -0.4027  0.1949 -0.4157
44537SOL    HW140726  10.783  10.030   7.907 -1.9940 -2.0216  0.2048
44537SOL    HW240727  10.827   9.886   7.903  1.9607 -0.8979 -1.3867
44538SOL     OW40728   7.433   6.764   0.842 -0.0227  0.0266  0.6839
44538SOL    HW140729   7.528   6.758   0.840 -0.0491 -0.3762 -1.6706
44538SOL    HW240730   7.403   6.707   0.771 -2.0971 -0.7344  2.0651
44539SOL     OW40731   4.817  11.221   9.657  0.4499  0.1024 -0.0738
44539SOL    HW140732   4.881  11.216   9.729  2.3942  0.0240 -1.7238
44539SOL    HW240733   4.830  11.309   9.620  1.3219 -0.7485 -1.8991
44540SOL     OW40734   7.293   9.333   2.049 -0.0058  0.0099 -0.0894
44540SOL    HW140735   7.218   9.392   2.055  0.6300  0.8199 -0.0285
44540SOL    HW240736   7.361   9.375   2.100  0.3941 -0.8914  0.1319
44541SOL     OW40737  10.813  10.635  12.281 -0.0166  0.0661 -0.2865
44541SOL    HW140738  10.717  10.633  12.276 -0.3711  1.1140  3.1686
44541SOL    HW240739  10.837  10.719  12.244 -0.7339  0.8527  0.9494
44542SOL     OW40740   2.339  10.651   1.659  0.2599  1.1804 -0.0914
44542SOL    HW140741   2.294  10.617   1.582 -0.2910  0.2575  0.6103
44542SOL    HW240742   2.407  10.708   1.624  0.2406  0.5098 -1.2812
44543SOL     OW40743   6.324   9.124   6.391  0.1718 -0.3028 -0.1251
44543SOL    HW140744   6.295   9.033   6.399  2.3766 -1.0658 -0.0560
44543SOL    HW240745   6.346   9.151   6.480  2.5045 -0.8431 -0.4551
44544SOL     OW40746   2.734   3.915   2.552 -0.2961 -0.3347 -0.3899
44544SOL    HW140747   2.804   3.963   2.508 -0.5881 -0.2150 -0.7356
44544SOL    HW240748   2.669   3.981   2.575 -0.3531 -0.4602 -0.1864
44545SOL     OW40749   8.189   2.792   1.372  0.0311  0.5043  0.2993
44545SOL    HW140750   8.168   2.877   1.334  1.8384  0.1013 -1.8315
44545SOL    HW240751   8.185   2.806   1.467 -0.9287  2.6127 -0.0015
44546SOL     OW40752   2.578   7.711   2.876  0.0402 -0.3842 -0.0909
44546SOL    HW140753   2.529   7.779   2.922 -0.3775 -1.1301  0.5835
44546SOL    HW240754   2.556   7.630   2.922  1.2277 -0.8591 -0.3244
44547SOL     OW40755   7.367   3.509  11.652  0.7247  0.2401 -0.0118
44547SOL    HW140756   7.279   3.476  11.637  0.9532  0.2054 -1.3801
44547SOL    HW240757   7.363   3.550  11.739 -0.2107 -1.1579  0.6366
44548SOL     OW40758  10.558   7.127   2.616  0.3872 -0.4986 -0.0072
44548SOL    HW140759  10.468   7.151   2.594  0.4895 -0.1879 -0.0775
44548SOL    HW240760  10.604   7.124   2.532  0.1124 -2.0444 -0.1334
44549SOL     OW40761   1.555   3.442   1.941  0.4495  0.3661  0.0193
44549SOL    HW140762   1.601   3.402   1.867  0.8727  2.5104 -0.9358
44549SOL    HW240763   1.468   3.402   1.938  0.9382 -0.7145 -0.6736
44550SOL     OW40764  11.522   4.182   3.562  0.1135  0.5013 -0.4979
44550SOL    HW140765  11.579   4.106   3.574  2.0472  1.8266 -0.6797
44550SOL    HW240766  11.435   4.151   3.584  1.4727 -0.3593  5.7115
44551SOL     OW40767   3.851  12.784   7.229  0.2584  0.2302 -0.0432
44551SOL    HW140768   3.871  12.758   7.140  2.2749  0.4128  0.3147
44551SOL    HW240769   3.900  12.865   7.243 -1.8907  1.5196  0.5027
44552SOL     OW40770   5.892  10.432   4.137  0.0211  0.0831  0.9666
44552SOL    HW140771   5.937  10.354   4.105 -0.7939 -0.5966  1.4471
44552SOL    HW240772   5.936  10.454   4.219 -0.2625 -0.3637  1.2460
44553SOL     OW40773   7.719   8.166   5.577 -0.0274  0.4655 -0.2546
44553SOL    HW140774   7.771   8.235   5.619 -1.1712 -0.4007  2.8694
44553SOL    HW240775   7.640   8.160   5.630 -0.6299 -2.2705 -1.3007
44554SOL     OW40776   1.530  10.648   7.781 -0.2973  0.2907 -0.0746
44554SOL    HW140777   1.478  10.597   7.718  1.0236 -1.5615  0.2373
44554SOL    HW240778   1.514  10.739   7.758 -0.7708 -0.3104 -2.3527
44555SOL     OW40779   0.561  12.242   8.162 -0.4756  0.0392  0.1206
44555SOL    HW140780   0.556  12.180   8.235  0.1560 -1.4546 -1.0445
44555SOL    HW240781   0.625  12.307   8.190 -0.0264 -0.6714  0.7899
44556SOL     OW40782   8.794  12.586   0.357  0.3001 -0.1340  0.1423
44556SOL    HW140783   8.774  12.615   0.268 -1.7619 -1.6289  0.0394
44556SOL    HW240784   8.709  12.583   0.400  0.5121 -4.0763  0.6631
44557SOL     OW40785   8.049   2.599   7.072 -0.2474 -0.6481 -0.6307
44557SOL    HW140786   8.011   2.513   7.085 -0.4682 -0.3588  0.8957
44557SOL    HW240787   8.046   2.614   6.978 -0.8403 -2.0088 -0.8386
44558SOL     OW40788   9.791   4.367   5.668 -0.3609 -0.5990 -0.2011
44558SOL    HW140789   9.886   4.377   5.659 -0.6329  1.6598 -1.2411
44558SOL    HW240790   9.766   4.313   5.593  0.2011 -2.4381  0.8577
44559SOL     OW40791   3.498   5.427   1.674  0.3406 -0.1692  0.4938
44559SOL    HW140792   3.413   5.460   1.646  0.6371  0.9647  0.8783
44559SOL    HW240793   3.494   5.333   1.656 -1.2022 -0.2442  1.0426
44560SOL     OW40794   4.904   6.296   4.935 -0.1571 -0.1125  0.2402
44560SOL    HW140795   4.963   6.311   4.861  0.4890 -0.3216  0.6987
44560SOL    HW240796   4.818   6.325   4.905  0.1786  0.1639 -0.4535
44561SOL     OW40797  12.013   6.888   1.103  0.4949  0.3919  0.3758
44561SOL    HW140798  12.093   6.900   1.051  0.8767  0.6990  1.0212
44561SOL    HW240799  12.036   6.819   1.166 -0.2491 -0.6109 -0.4216
44562SOL     OW40800   8.947   8.403   1.134 -0.4003 -0.0929 -0.0008
44562SOL    HW140801   9.017   8.345   1.163  0.6984  1.4610  0.5214
44562SOL    HW240802   8.991   8.479   1.096 -1.7528  1.5240  1.4950
44563SOL     OW40803   2.740   2.603  11.510  0.2898  0.2399  0.1707
44563SOL    HW140804   2.793   2.594  11.589 -0.0381  0.2899  0.3982
44563SOL    HW240805   2.798   2.575  11.439  0.2099 -0.9419  0.5484
44564SOL     OW40806   3.374  12.823   7.771 -0.0349  0.7491 -0.3133
44564SOL    HW140807   3.312  12.886   7.735  0.2355  0.6028 -1.0396
44564SOL    HW240808   3.412  12.780   7.695  1.2287  1.0871  0.1102
44565SOL     OW40809  10.143   5.880   3.562 -0.0934  0.4970  0.9179
44565SOL    HW140810  10.165   5.880   3.469 -0.0871  0.6389  0.9193
44565SOL    HW240811  10.122   5.971   3.582  0.5312  0.5819  1.2050
44566SOL     OW40812   9.028   7.577  10.290  0.4091 -0.3053  0.0317
44566SOL    HW140813   9.074   7.648  10.245  0.5907 -0.3424  0.1615
44566SOL    HW240814   9.090   7.544  10.355  2.2071 -3.6776 -3.0004
44567SOL     OW40815   7.483   6.469   3.305  0.2037  0.6365  0.5804
44567SOL    HW140816   7.456   6.377   3.305 -0.8711  0.9238 -0.7852
44567SOL    HW240817   7.404   6.518   3.285  0.8607  1.8461  0.8270
44568SOL     OW40818   6.322   2.748   8.384 -0.2829 -0.1756 -0.3175
44568SOL    HW140819   6.384   2.802   8.434  0.8740 -0.3769 -1.4779
44568SOL    HW240820   6.280   2.809   8.323 -2.1579  0.1943  1.2317
44569SOL     OW40821   3.233   7.279   5.594 -0.0563 -0.0478  0.3456
44569SOL    HW140822   3.159   7.253   5.539 -1.0417  2.7969  0.1688
44569SOL    HW240823   3.194   7.334   5.662  1.5320 -1.0647  2.1917
44570SOL     OW40824  10.094   2.716   0.283  0.2009 -0.0840 -0.0085
44570SOL    HW140825  10.100   2.625   0.257  0.6496  0.7208 -3.1884
44570SOL    HW240826  10.184   2.739   0.310  0.6847 -0.0111 -1.5867
44571SOL     OW40827   4.039  12.510   5.527 -0.3596  0.1998  0.1750
44571SOL    HW140828   4.077  12.516   5.615 -0.5493  0.0949  0.2654
44571SOL    HW240829   4.055  12.595   5.488  1.2712 -0.2958 -0.3303
44572SOL     OW40830   6.910   9.736   3.454 -0.0743  0.7034  0.1336
44572SOL    HW140831   6.936   9.651   3.420 -0.7109  0.8587 -0.7647
44572SOL    HW240832   6.874   9.717   3.541 -0.3175  0.0482 -0.1090
44573SOL     OW40833   8.690   9.438   4.829  0.2485 -0.0529  0.2430
44573SOL    HW140834   8.724   9.464   4.744  0.2621 -0.2398  0.1894
44573SOL    HW240835   8.758   9.466   4.891  0.0279  0.4943  0.2386
44574SOL     OW40836   7.162   0.794   3.851  0.2856 -0.7740 -0.5233
44574SOL    HW140837   7.121   0.816   3.768 -1.6185 -2.0709  0.0138
44574SOL    HW240838   7.103   0.830   3.917 -0.1562 -2.8071  0.2761
44575SOL     OW40839   6.305  11.317   5.541  0.2116  0.3007  0.4432
44575SOL    HW140840   6.381  11.355   5.496  2.1021 -0.6118  2.6733
44575SOL    HW240841   6.308  11.224   5.519 -1.0976  0.4671 -0.5224
44576SOL     OW40842  10.244   2.816   1.806  0.1215  0.4089 -0.3791
44576SOL    HW140843  10.206   2.732   1.779  1.4706 -0.6161  0.7591
44576SOL    HW240844  10.216   2.826   1.898 -0.5299  1.5361 -0.6735
44577SOL     OW40845   3.963   6.385  11.115 -0.4894  0.1678 -0.5419
44577SOL    HW140846   4.022   6.351  11.182  0.7804  0.1401 -1.6316
44577SOL    HW240847   3.951   6.313  11.054 -1.0097  0.4336 -0.7666
44578SOL     OW40848   5.540   6.370   3.892  0.5815 -0.0075 -0.0577
44578SOL    HW140849   5.457   6.409   3.863  0.0628  2.0517  3.5290
44578SOL    HW240850   5.515   6.286   3.931  0.0937  0.6440  1.0881
44579SOL     OW40851  10.092   4.678  11.111 -0.4017  0.6425 -0.7608
44579SOL    HW140852  10.171   4.625  11.101 -0.0430  0.8509  0.6594
44579SOL    HW240853  10.075   4.714  11.024  1.8390  1.6558 -0.8358
44580SOL     OW40854   8.171  10.648   1.770 -0.1640 -0.0420 -0.3613
44580SOL    HW140855   8.153  10.563   1.730  0.7351 -0.6394  0.4575
44580SOL    HW240856   8.112  10.652   1.845  0.3138 -0.2855  0.0358
44581SOL     OW40857  11.758   2.825   5.078  0.6689 -0.3718  0.3709
44581SOL    HW140858  11.664   2.841   5.085  0.7180 -0.4169  1.3859
44581SOL    HW240859  11.780   2.779   5.160  1.5131 -0.6394  0.0009
44582SOL     OW40860   0.798   9.934   6.873 -0.4037 -0.2163 -0.1547
44582SOL    HW140861   0.806   9.991   6.796 -0.8964  1.1074  0.7348
44582SOL    HW240862   0.786   9.846   6.837 -0.6955  0.3842 -1.5885
44583SOL     OW40863   0.680   7.625   3.720 -0.2747 -0.2975 -0.4206
44583SOL    HW140864   0.648   7.697   3.666  0.0874 -0.1623 -0.4591
44583SOL    HW240865   0.681   7.550   3.661 -2.6451 -0.8408  0.1577
44584SOL     OW40866   2.187   5.692   3.963  0.0275  0.4441 -0.1109
44584SOL    HW140867   2.173   5.770   3.908  2.3684  2.6547  2.1397
44584SOL    HW240868   2.104   5.679   4.008 -0.3502  1.7896 -0.3743
44585SOL     OW40869   7.984   7.324  10.255  0.1846  0.1650  0.1977
44585SOL    HW140870   7.986   7.301  10.348  0.8586 -0.5487  0.0217
44585SOL    HW240871   7.986   7.420  10.254 -0.1516  0.1844  0.9222
44586SOL     OW40872   4.550   6.039   0.381  0.5421  0.2048  0.3064
44586SOL    HW140873   4.638   6.004   0.395  0.7230  0.3470 -0.4314
44586SOL    HW240874   4.519   5.996   0.301  0.0938  0.4358  0.3517
44587SOL     OW40875  12.275  10.270  10.297 -0.1584 -0.3272 -0.5662
44587SOL    HW140876  12.303  10.203  10.234 -0.2961 -0.4179 -0.5330
44587SOL    HW240877  12.323  10.348  10.272 -1.5519  0.1541 -1.9449
44588SOL     OW40878   3.774   0.716   6.644  0.2937 -0.2428 -0.1069
44588SOL    HW140879   3.693   0.763   6.664  0.9517  0.1044  1.9065
44588SOL    HW240880   3.748   0.624   6.640 -0.3929 -0.0334 -0.7025
44589SOL     OW40881   6.961  11.545   5.593  0.5446  0.0063  0.1236
44589SOL    HW140882   7.051  11.517   5.610  0.3648 -0.5628  0.1517
44589SOL    HW240883   6.939  11.601   5.667  1.4279  1.5005 -0.6825
44590SOL     OW40884   2.242   3.751   5.131  0.9708  0.4664  0.6038
44590SOL    HW140885   2.256   3.659   5.109  2.1143  0.6347  0.5498
44590SOL    HW240886   2.327   3.781   5.165  1.1979  2.0071 -1.1407
44591SOL     OW40887  10.448  11.924   5.797 -0.2016 -0.4126 -0.3929
44591SOL    HW140888  10.401  11.842   5.814  0.9518 -0.7502  1.4277
44591SOL    HW240889  10.513  11.901   5.730 -0.6257 -0.6882 -0.7142
44592SOL     OW40890   8.138   3.418   1.226  0.2830  0.1160  0.6132
44592SOL    HW140891   8.190   3.433   1.305  0.5702  0.8771  0.2895
44592SOL    HW240892   8.201   3.424   1.155 -0.1908  0.7612  0.2356
44593SOL     OW40893   0.722   2.842   2.680 -0.6798 -0.0982 -0.4218
44593SOL    HW140894   0.671   2.762   2.690 -3.4385  1.6892  1.2155
44593SOL    HW240895   0.766   2.853   2.764  0.0086 -0.0784 -0.7786
44594SOL     OW40896   5.631   0.427   1.268  0.4189 -0.1217  0.1974
44594SOL    HW140897   5.719   0.420   1.233  1.1324 -0.0001  1.8736
44594SOL    HW240898   5.587   0.346   1.240  1.3106 -0.5495  0.0217
44595SOL     OW40899   1.857   3.441   3.263 -0.6492  0.3149 -0.2348
44595SOL    HW140900   1.821   3.390   3.191  0.6750  1.6542 -1.9184
44595SOL    HW240901   1.825   3.530   3.249 -0.5725  0.5519  0.9763
44596SOL     OW40902   6.153   2.896   3.983 -0.0833  0.6015 -0.8376
44596SOL    HW140903   6.161   2.826   3.918  2.6312  1.4955 -1.5945
44596SOL    HW240904   6.126   2.972   3.931 -3.1558  0.2068 -0.0010
44597SOL     OW40905   7.454  12.948  10.763 -0.2573  0.1233 -0.2502
44597SOL    HW140906   7.540  12.943  10.722  0.2706  1.7074  0.5817
44597SOL    HW240907   7.424  12.856  10.769  2.4949 -0.7714  1.7499
44598SOL     OW40908   0.159  12.305   3.291  0.1195  0.1211 -0.2242
44598SOL    HW140909   0.144  12.341   3.204 -0.2711 -0.0845 -0.2426
44598SOL    HW240910   0.083  12.250   3.308  0.9649 -1.1611 -0.4324
44599SOL     OW40911   1.703   2.396   5.990  0.5888 -0.5570  0.2211
44599SOL    HW140912   1.703   2.305   6.019  2.1855 -0.5336  0.4187
44599SOL    HW240913   1.712   2.391   5.895  0.8345 -0.6143  0.2461
44600SOL     OW40914   2.082   8.179  10.212  0.3659 -0.1746  0.1632
44600SOL    HW140915   2.086   8.235  10.135  0.8593 -2.4126 -1.5098
44600SOL    HW240916   1.993   8.193  10.246 -0.0652  0.4070 -1.1321
44601SOL     OW40917   8.527   4.982   2.915  0.4056  0.1721 -0.6006
44601SOL    HW140918   8.446   4.952   2.873 -0.3400  0.8063  0.3316
44601SOL    HW240919   8.567   5.042   2.852 -1.5430  2.4263  0.1592
44602SOL     OW40920   8.807  11.989   1.034  0.0075  0.0804  0.1045
44602SOL    HW140921   8.827  12.082   1.020 -0.2811  0.3655  1.4425
44602SOL    HW240922   8.790  11.982   1.128  2.1827 -1.7498  0.4275
44603SOL     OW40923   4.368   3.402   7.877 -0.4660  0.1352 -0.1123
44603SOL    HW140924   4.423   3.435   7.949  0.3506 -1.2451 -0.0611
44603SOL    HW240925   4.288   3.371   7.920 -0.4205  0.2794  0.0762
44604SOL     OW40926   0.484   4.681   6.916 -0.0317 -1.0774 -0.1887
44604SOL    HW140927   0.425   4.675   6.841 -1.6930 -0.7969  1.0485
44604SOL    HW240928   0.477   4.772   6.944  2.8452 -0.3406 -1.3907
44605SOL     OW40929   1.915   1.503   5.472  0.4354  0.3949  0.0331
44605SOL    HW140930   1.908   1.597   5.486 -0.9147  0.3498 -0.1592
44605SOL    HW240931   1.890   1.489   5.381  1.9386 -0.0431 -0.3463
44606SOL     OW40932  11.258   9.920  12.671 -0.5560 -0.5167 -0.0633
44606SOL    HW140933  11.290   9.883  12.588  1.5164 -1.0344  0.9071
44606SOL    HW240934  11.251   9.845  12.729 -2.3202 -0.1995  0.1701
44607SOL     OW40935   4.956   2.895   8.775  0.0493  0.4253 -0.3518
44607SOL    HW140936   4.867   2.891   8.741  0.0223 -0.7372 -0.1722
44607SOL    HW240937   5.011   2.865   8.703  0.0777 -1.0829  0.2672
44608SOL     OW40938  10.612   4.795   7.023 -0.1323 -0.2332  0.1863
44608SOL    HW140939  10.560   4.776   7.101  0.1303  0.3540  0.5142
44608SOL    HW240940  10.551   4.836   6.962  0.0660  1.0733  0.8242
44609SOL     OW40941   7.991   8.755   4.683  0.0589  0.4662  0.0926
44609SOL    HW140942   7.995   8.687   4.615 -0.8887  1.0938 -0.6178
44609SOL    HW240943   8.074   8.747   4.730  0.2682 -0.7095 -0.4360
44610SOL     OW40944   5.927   2.202   2.113  0.6039  0.1518 -0.4040
44610SOL    HW140945   5.997   2.228   2.053 -0.6462  0.9575 -1.5893
44610SOL    HW240946   5.908   2.282   2.163  0.9407 -0.2334  0.3457
44611SOL     OW40947   4.901   6.050   4.811 -0.4682  0.1100  0.3250
44611SOL    HW140948   4.926   6.138   4.839 -0.6751  0.4537 -0.5442
44611SOL    HW240949   4.981   6.011   4.778 -0.6584  0.4769 -0.5777
44612SOL     OW40950   9.930   7.504   4.362 -0.5920 -0.4241  0.1445
44612SOL    HW140951   9.969   7.418   4.376 -0.8445 -0.7574 -1.0562
44612SOL    HW240952   9.933   7.516   4.267  0.9316  1.6001  0.3889
44613SOL     OW40953  11.710   7.232   6.222 -0.0233  0.1702  0.0951
44613SOL    HW140954  11.719   7.257   6.314 -1.9686 -2.0274  0.9984
44613SOL    HW240955  11.636   7.284   6.190  2.4257  3.1982 -1.2979
44614SOL     OW40956   4.675   7.296   6.706 -0.1233  0.8513 -0.5493
44614SOL    HW140957   4.599   7.344   6.674  0.6772  0.8344 -2.6870
44614SOL    HW240958   4.650   7.265   6.793 -2.1612  1.6790 -0.7878
44615SOL     OW40959   6.669   8.799   4.942 -0.4217  0.1287 -0.2603
44615SOL    HW140960   6.583   8.838   4.953 -1.1101 -0.8902 -1.7899
44615SOL    HW240961   6.693   8.819   4.851 -1.0719 -3.3604 -1.3510
44616SOL     OW40962   8.908  11.873   5.843  0.0686 -0.3416  0.0226
44616SOL    HW140963   8.975  11.923   5.890 -0.4602  0.4222 -0.0187
44616SOL    HW240964   8.951  11.790   5.822  1.8753  1.0181 -2.1257
44617SOL     OW40965   0.522   3.177   0.129 -0.4735  1.0115 -0.4946
44617SOL    HW140966   0.591   3.185   0.063  1.1752  2.5560  1.3019
44617SOL    HW240967   0.518   3.083   0.148 -0.1005  0.6984 -1.8442
44618SOL     OW40968  10.850  11.878   3.764  0.1164  0.6090 -0.0071
44618SOL    HW140969  10.834  11.882   3.669  2.2918  0.8155 -0.4271
44618SOL    HW240970  10.855  11.969   3.791  0.2397  0.5550  0.1527
44619SOL     OW40971  10.069   2.224   1.957 -0.0591 -0.0225  0.3638
44619SOL    HW140972  10.055   2.245   1.865 -1.1210 -2.0118 -0.0020
44619SOL    HW240973   9.982   2.234   1.997 -0.2690 -1.9273  0.4764
44620SOL     OW40974   2.222   7.307   2.519  0.0192  0.2156  0.0664
44620SOL    HW140975   2.277   7.252   2.463 -1.8787 -0.1710 -1.5218
44620SOL    HW240976   2.269   7.390   2.524  0.1946  0.3261 -2.3095
44621SOL     OW40977  11.933   2.092   1.267 -0.4917 -0.0397 -0.9213
44621SOL    HW140978  11.874   2.118   1.337  0.4406  1.0572 -0.5150
44621SOL    HW240979  12.017   2.132   1.290 -0.1405  0.2742 -2.6119
44622SOL     OW40980   0.748   4.599   6.908 -0.4965  0.0018  0.0760
44622SOL    HW140981   0.749   4.508   6.880 -0.7016 -0.0790  0.3228
44622SOL    HW240982   0.656   4.626   6.898 -0.5713 -0.0277  0.6553
44623SOL     OW40983   8.319   1.638   4.595  0.1262  0.0166 -0.0663
44623SOL    HW140984   8.335   1.556   4.642 -0.9122 -0.2181 -0.0883
44623SOL    HW240985   8.233   1.626   4.554  0.2245  0.8903 -0.5664
44624SOL     OW40986   1.633   9.748   2.516  0.1714  0.0310  0.3984
44624SOL    HW140987   1.614   9.664   2.557  0.3935 -0.5497 -0.6408
44624SOL    HW240988   1.650   9.807   2.589 -2.1841 -0.2613  1.2524
44625SOL     OW40989  12.801  10.613   9.244  0.3481 -0.0205  0.2954
44625SOL    HW140990  12.888  10.575   9.231 -0.6069 -2.7842  1.2293
44625SOL    HW240991  12.786  10.606   9.339 -1.6565 -1.5583 -0.0815
44626SOL     OW40992   3.043   9.367   4.653  0.0802 -0.3396  0.1154
44626SOL    HW140993   3.026   9.377   4.560 -1.1445  0.1257  0.3775
44626SOL    HW240994   3.015   9.278   4.674  1.0329 -0.7042 -0.0831
44627SOL     OW40995  11.874   5.409  12.336  0.0484  0.2291  0.7629
44627SOL    HW140996  11.965   5.384  12.348 -0.2633 -1.5326 -0.2575
44627SOL    HW240997  11.876   5.504  12.323  1.7603  0.1590  0.3575
44628SOL     OW40998   0.988   1.785  12.667 -0.0486 -0.5053  0.0614
44628SOL    HW140999   1.035   1.702  12.667  0.2881 -0.3454  1.3922
44628SOL    HW241000   0.949   1.790  12.755  1.3741  1.4993  0.6587
44629SOL     OW41001   5.636   0.198   2.187  0.3335 -0.1813  0.0299
44629SOL    HW141002   5.558   0.241   2.222 -1.8032 -1.8735 -2.3089
44629SOL    HW241003   5.675   0.264   2.128  1.8275  1.3113  2.5149
44630SOL     OW41004   9.557   9.240   1.294  0.1903  0.1365 -0.5086
44630SOL    HW141005   9.543   9.287   1.212 -0.4417  1.0209  0.0885
44630SOL    HW241006   9.477   9.253   1.344  0.6860 -0.1128  0.3874
44631SOL     OW41007  12.834   0.678   3.593 -0.2210  0.3794  0.1232
44631SOL    HW141008  12.770   0.650   3.527  0.2574 -0.3249 -0.0508
44631SOL    HW241009  12.783   0.732   3.654 -0.3901  2.3283 -1.6078
44632SOL     OW41010  10.621   9.673   9.290 -0.1160 -0.2052 -0.0236
44632SOL    HW141011  10.580   9.759   9.300  1.3693  0.7041 -1.2442
44632SOL    HW241012  10.603   9.648   9.199 -1.4607 -1.7301  0.6228
44633SOL     OW41013   6.039   6.375  11.094 -0.3644  0.1350  0.5375
44633SOL    HW141014   6.033   6.339  11.005  0.9942 -0.0085  0.4758
44633SOL    HW241015   5.948   6.384  11.123 -0.8721  0.8386 -1.1263
44634SOL     OW41016   2.085   4.313   4.596  0.1315 -0.0087 -0.3148
44634SOL    HW141017   2.034   4.237   4.567 -2.7784  1.8120 -0.3781
44634SOL    HW241018   2.127   4.346   4.516  2.9405 -2.4105 -0.0191
44635SOL     OW41019   6.410   7.970   4.712  0.4737 -0.4118 -0.0170
44635SOL    HW141020   6.468   7.970   4.788  0.3628 -1.3397  0.0804
44635SOL    HW241021   6.357   8.049   4.722  0.4168 -0.5598  0.9097
44636SOL     OW41022   6.257  12.447   9.984 -0.2021 -0.0744 -0.4851
44636SOL    HW141023   6.315  12.500   9.930  1.1991 -0.1168  0.9140
44636SOL    HW241024   6.272  12.357   9.955  0.3794 -0.0772 -0.1775
44637SOL     OW41025   5.731   7.699  12.634  0.1124 -0.2751 -0.4691
44637SOL    HW141026   5.793   7.720  12.703 -0.3447  2.7333 -0.8569
44637SOL    HW241027   5.784   7.689  12.556  0.5923 -3.3465  0.1137
44638SOL     OW41028   8.598   0.841   9.682  0.0453  0.3273 -0.3485
44638SOL    HW141029   8.657   0.902   9.726 -1.3069  2.2550 -1.0493
44638SOL    HW241030   8.511   0.868   9.711 -0.5999 -1.3938 -0.5883
44639SOL     OW41031   6.722   8.570   1.313  0.0537  0.4677  0.6757
44639SOL    HW141032   6.634   8.590   1.283 -0.2274 -1.1459  0.3851
44639SOL    HW241033   6.768   8.538   1.236  0.5181  0.0668  1.1104
44640SOL     OW41034  10.991   3.929  10.818 -0.6250 -0.3290  0.0415
44640SOL    HW141035  10.995   3.833  10.825 -0.4973 -0.3322 -0.0633
44640SOL    HW241036  10.991   3.960  10.908 -1.0039 -0.4407  0.0801
44641SOL     OW41037  10.566   7.210   5.033 -0.4605 -0.4017  0.2919
44641SOL    HW141038  10.532   7.293   5.068  0.3294  0.0890 -0.0978
44641SOL    HW241039  10.603   7.166   5.110 -1.5468 -0.7465  0.6428
44642SOL     OW41040   5.243  10.296   8.371  0.3447 -0.0230  0.2640
44642SOL    HW141041   5.309  10.227   8.377  0.4379  0.0685  0.2767
44642SOL    HW241042   5.162  10.254   8.402  0.1875 -0.4140 -0.6387
44643SOL     OW41043   9.722   0.886   3.680 -0.2020 -0.7055 -0.0661
44643SOL    HW141044   9.633   0.919   3.690 -0.3001 -0.7075 -0.8590
44643SOL    HW241045   9.736   0.883   3.585  1.1605  0.6745  0.0476
44644SOL     OW41046   2.104   5.129   7.835  0.3367  0.1252  0.6578
44644SOL    HW141047   2.069   5.206   7.878  0.1055 -0.0516  0.7922
44644SOL    HW241048   2.094   5.146   7.741 -1.2432 -0.4238  0.7021
44645SOL     OW41049   6.276   5.267   7.909  0.4273  0.2380  0.8496
44645SOL    HW141050   6.186   5.273   7.940  0.1187 -0.8661  0.2116
44645SOL    HW241051   6.270   5.283   7.815  0.5929 -1.8522  0.4433
44646SOL     OW41052   2.023   2.392   1.999 -0.2293 -0.2561 -0.2348
44646SOL    HW141053   2.017   2.466   2.061 -3.9648 -1.2898  0.9016
44646SOL    HW241054   2.066   2.429   1.922  0.0672  2.4781  1.1175
44647SOL     OW41055   8.208   1.810  11.940 -0.4423  0.2491  0.2456
44647SOL    HW141056   8.158   1.892  11.934 -1.3384 -0.3771 -1.6063
44647SOL    HW241057   8.153   1.745  11.896  1.1439 -0.9055 -0.1180
44648SOL     OW41058   1.094  12.427   1.029  0.5068  0.7467 -0.2806
44648SOL    HW141059   1.022  12.452   0.970 -0.4548  2.8699  1.6327
44648SOL    HW241060   1.170  12.474   0.994  1.1282 -1.5904 -2.3763
44649SOL     OW41061   1.245  12.905  11.242  0.4376 -0.6415  0.0942
44649SOL    HW141062   1.291  12.840  11.296  0.4709 -0.6390  0.0692
44649SOL    HW241063   1.297  12.909  11.162  1.6738  0.9829  0.9172
44650SOL     OW41064  12.075   3.289  10.669 -0.1934  0.0001 -0.2003
44650SOL    HW141065  12.153   3.235  10.681 -0.2063 -0.1531 -0.7682
44650SOL    HW241066  12.098   3.349  10.598  0.1310  1.3328  0.9709
44651SOL     OW41067  11.949   1.521   8.795 -0.2567  0.4180  0.5559
44651SOL    HW141068  12.013   1.456   8.822 -1.1706 -0.5678  0.4089
44651SOL    HW241069  11.989   1.565   8.720 -0.7794 -1.9697 -1.2180
44652SOL     OW41070  10.319   5.071  12.281 -0.3687  0.3322  0.0369
44652SOL    HW141071  10.368   5.146  12.314  0.5546  0.8710 -2.3824
44652SOL    HW241072  10.242   5.065  12.339 -0.1823  2.7668  0.6321
44653SOL     OW41073   0.619   1.223   9.046  0.2897 -0.3564 -0.1366
44653SOL    HW141074   0.549   1.207   9.109  0.3175  0.7033  0.1809
44653SOL    HW241075   0.697   1.187   9.088  0.2096 -0.1544  0.1863
44654SOL     OW41076   9.865   9.406   7.987 -0.1644 -0.3071 -0.2339
44654SOL    HW141077   9.919   9.478   7.956 -0.2780  2.0137  4.1591
44654SOL    HW241078   9.926   9.334   8.000  0.9707  0.6907  0.0802
44655SOL     OW41079   7.823   7.195  12.523 -0.4952  0.2839  0.5577
44655SOL    HW141080   7.847   7.104  12.508 -0.6668  0.2420  0.5307
44655SOL    HW241081   7.900   7.234  12.564 -0.1470  0.3210 -0.1221
44656SOL     OW41082  12.716  12.452   1.377 -0.2861  0.1849  0.3536
44656SOL    HW141083  12.806  12.432   1.402 -1.3670 -2.0499  3.0600
44656SOL    HW241084  12.684  12.372   1.336 -1.5042  0.3326  0.9683
44657SOL     OW41085   6.374  12.767  10.628  0.2237  0.0904 -0.3845
44657SOL    HW141086   6.442  12.736  10.687  0.8993 -1.0005 -1.6797
44657SOL    HW241087   6.416  12.836  10.577 -0.9071  2.4108  1.6156
44658SOL     OW41088   3.614   4.114   1.462 -0.3649 -0.0591 -0.5872
44658SOL    HW141089   3.572   4.053   1.523  0.4433 -0.9593 -0.9021
44658SOL    HW241090   3.573   4.198   1.480 -0.4512 -0.3960  0.8933
44659SOL     OW41091  10.343   6.914   2.116 -0.0373  0.0124 -0.4604
44659SOL    HW141092  10.269   6.877   2.163 -0.4057  0.5163 -0.6291
44659SOL    HW241093  10.314   7.002   2.092  0.5308  0.1308 -0.7294
44660SOL     OW41094   2.498   7.459   1.681  0.6787 -0.2967  0.0739
44660SOL    HW141095   2.551   7.415   1.748  0.8045  0.5560  0.5467
44660SOL    HW241096   2.560   7.515   1.634 -0.0214  1.9252  1.6594
44661SOL     OW41097   2.923   2.963  10.557 -0.5936 -1.0092 -0.0262
44661SOL    HW141098   2.997   2.945  10.500  0.3046 -0.3638  0.9037
44661SOL    HW241099   2.856   2.900  10.530 -0.2507 -0.6465 -1.8422
44662SOL     OW41100   5.766   2.549   3.865  0.2227 -0.0210 -0.1770
44662SOL    HW141101   5.801   2.583   3.948  0.4774  2.3528 -1.1840
44662SOL    HW241102   5.799   2.609   3.799 -1.0951 -1.0657 -1.8537
44663SOL     OW41103   5.141   3.674   4.073 -0.1268 -0.4931 -0.0474
44663SOL    HW141104   5.181   3.740   4.129 -0.5452 -1.2889  1.2152
44663SOL    HW241105   5.055   3.709   4.050 -0.4732 -0.7236  0.8765
44664SOL     OW41106   6.273   3.444  11.199  0.0394 -0.0018  0.3907
44664SOL    HW141107   6.366   3.452  11.177 -0.2761 -1.1182 -1.6220
44664SOL    HW241108   6.273   3.396  11.282  1.2595 -0.6366  0.0531
44665SOL     OW41109   3.232   0.664   6.362  0.0099  0.3554  0.1546
44665SOL    HW141110   3.221   0.669   6.267 -1.3183  1.1786  0.3135
44665SOL    HW241111   3.187   0.742   6.395  0.4132  0.0598  1.4611
44666SOL     OW41112   8.541   4.445   3.327  0.2291 -0.2491  0.3148
44666SOL    HW141113   8.446   4.449   3.316 -0.2330 -4.6331  0.9109
44666SOL    HW241114   8.555   4.463   3.420 -0.3146 -1.5797  0.6775
44667SOL     OW41115  10.611   0.727   4.000  0.3128  0.7173  0.9271
44667SOL    HW141116  10.524   0.763   3.982  0.5079  0.4226 -0.7375
44667SOL    HW241117  10.667   0.803   4.012  0.3627  0.9809 -0.7767
44668SOL     OW41118   6.187   1.055  10.412  0.2035  0.5301  0.3152
44668SOL    HW141119   6.107   1.060  10.360  0.1995  0.8712  0.3523
44668SOL    HW241120   6.171   1.112  10.487 -1.3483 -2.8226  2.8194
44669SOL     OW41121   5.498   5.991   7.302  0.4749  0.8180 -0.6649
44669SOL    HW141122   5.515   5.977   7.395  2.3271  0.1466 -1.0604
44669SOL    HW241123   5.431   6.059   7.299  0.5823  1.0321  1.1516
44670SOL     OW41124   7.439   5.307  10.722 -0.2510  0.3444  0.8285
44670SOL    HW141125   7.344   5.305  10.708 -0.2404 -1.5159  0.7325
44670SOL    HW241126   7.473   5.358  10.649 -1.1671  1.0071  0.8439
44671SOL     OW41127   5.050  11.785  11.935  0.4741 -0.4387  0.1084
44671SOL    HW141128   4.993  11.859  11.955 -0.5967 -0.9866 -0.7787
44671SOL    HW241129   5.075  11.798  11.844  0.3676 -1.0910 -0.0231
44672SOL     OW41130   9.613   4.698   7.955  0.1727 -0.9132  0.1511
44672SOL    HW141131   9.598   4.679   8.047  0.5319  1.4591  0.7627
44672SOL    HW241132   9.661   4.621   7.922  0.6993 -1.4814  2.1105
44673SOL     OW41133   0.866   3.202   3.499 -0.1607  0.1972  0.1740
44673SOL    HW141134   0.865   3.116   3.457  0.4028 -0.1707  0.8983
44673SOL    HW241135   0.950   3.205   3.545 -1.7060 -0.3994  3.2665
44674SOL     OW41136   8.338   6.573   5.296  0.2733 -0.6640  0.4855
44674SOL    HW141137   8.296   6.586   5.211 -1.6806  1.2454  1.6319
44674SOL    HW241138   8.431   6.571   5.276 -0.1299 -0.6557 -1.7263
44675SOL     OW41139   4.381   4.313   2.833 -0.2164  0.1120  0.2951
44675SOL    HW141140   4.455   4.340   2.779 -0.4971 -0.2304 -0.2663
44675SOL    HW241141   4.369   4.385   2.895 -0.9229  1.2780 -1.1424
44676SOL     OW41142  11.462   4.757  12.512  0.7441  0.1352  0.8812
44676SOL    HW141143  11.493   4.683  12.460  2.2250  0.6564  0.9930
44676SOL    HW241144  11.517   4.831  12.485 -0.7664  1.2501  0.6973
44677SOL     OW41145  12.932   2.719   8.287  1.0251 -0.4117  0.1275
44677SOL    HW141146  12.936   2.756   8.375  0.9294  0.7539 -0.3417
44677SOL    HW241147  12.895   2.789   8.233 -3.0586 -2.4231 -0.1095
44678SOL     OW41148   0.304   0.705   4.794  0.4815 -0.4653  0.2441
44678SOL    HW141149   0.361   0.705   4.871  0.8884 -0.4624 -0.0490
44678SOL    HW241150   0.245   0.778   4.807  0.6678 -0.3552  0.4690
44679SOL     OW41151  10.382   7.389   9.588 -0.1650 -0.2492 -0.1280
44679SOL    HW141152  10.445   7.405   9.517  0.0651 -0.5748  0.0043
44679SOL    HW241153  10.309   7.344   9.545 -1.1574  1.7368 -0.6635
44680SOL     OW41154  10.684   9.339  12.719  0.2126 -0.1400  0.1523
44680SOL    HW141155  10.751   9.343  12.650 -1.1044 -0.1936 -1.1816
44680SOL    HW241156  10.606   9.376  12.679 -0.6600 -0.3739  1.5650
44681SOL     OW41157  10.649   9.013   0.654  0.1361  0.2751 -0.3759
44681SOL    HW141158  10.742   8.991   0.656  0.1517  0.3289 -0.4745
44681SOL    HW241159  10.627   9.016   0.561  0.0180  0.1894 -0.3523
44682SOL     OW41160  12.032   1.348  11.614  0.0638  0.1814 -0.0650
44682SOL    HW141161  12.028   1.291  11.537  0.1682  0.1314 -0.0341
44682SOL    HW241162  12.122   1.337  11.646 -0.0554  0.0054  0.2112
44683SOL     OW41163   1.398   3.451   6.466 -0.2360  0.6407  0.3170
44683SOL    HW141164   1.386   3.367   6.420  0.0363  0.5429  0.4203
44683SOL    HW241165   1.488   3.476   6.445 -0.9667  1.9660 -1.4592
44684SOL     OW41166   3.453   6.813   6.588 -0.3622 -0.4984 -0.5414
44684SOL    HW141167   3.368   6.772   6.600 -0.6579 -0.2158 -1.6021
44684SOL    HW241168   3.501   6.755   6.530  0.0553 -0.4867 -0.2165
44685SOL     OW41169   9.754   2.247  12.318  0.1764  0.6385 -0.0369
44685SOL    HW141170   9.822   2.180  12.309 -1.8789 -1.6281 -0.0155
44685SOL    HW241171   9.728   2.244  12.410  1.2880  2.8630  0.4088
44686SOL     OW41172   5.341   4.749   0.655 -0.5314 -0.0132  0.6671
44686SOL    HW141173   5.344   4.690   0.730  0.7693 -0.3378  0.3990
44686SOL    HW241174   5.272   4.713   0.599  0.5784 -1.6697  0.2517
44687SOL     OW41175   5.619   0.411   6.725 -0.3827 -0.1411  0.5408
44687SOL    HW141176   5.590   0.450   6.643 -1.0176 -0.3437  0.6653
44687SOL    HW241177   5.711   0.388   6.710  0.4015  2.4831  0.8542
44688SOL     OW41178   4.230   6.699   4.031  0.7261 -0.2886  0.0377
44688SOL    HW141179   4.307   6.756   4.029  1.5387 -1.3398  0.5277
44688SOL    HW241180   4.259   6.621   4.078 -1.3813  0.3826  2.6920
44689SOL     OW41181   6.432   4.326   7.207 -0.0410 -0.3063 -0.2528
44689SOL    HW141182   6.368   4.390   7.175 -1.2580 -1.2113  0.2395
44689SOL    HW241183   6.436   4.341   7.301 -0.6638 -1.2017 -0.0696
44690SOL     OW41184   9.993   0.276   7.088 -0.7931 -0.2705 -0.0030
44690SOL    HW141185  10.029   0.361   7.062 -3.1329  0.7043 -0.2496
44690SOL    HW241186  10.071   0.222   7.104  0.8460  2.4006  2.0088
44691SOL     OW41187   3.557   5.915   4.935  0.0995 -0.3113 -0.0073
44691SOL    HW141188   3.483   5.878   4.887 -2.1156 -0.1119  2.9575
44691SOL    HW241189   3.575   5.851   5.004  2.8877 -0.4143 -0.7137
44692SOL     OW41190   8.446   5.809   8.776 -0.0413 -0.3417 -0.1499
44692SOL    HW141191   8.390   5.831   8.702 -1.0981 -0.1760  0.6746
44692SOL    HW241192   8.531   5.790   8.737 -0.4275  0.2931 -1.3474
44693SOL     OW41193  11.824   4.780  11.077 -0.2380 -0.1120 -0.2585
44693SOL    HW141194  11.908   4.815  11.046 -0.0331  0.3934  0.8256
44693SOL    HW241195  11.759   4.837  11.037 -0.0784 -0.5446 -1.1576
44694SOL     OW41196  10.921   3.566   8.886  0.0106 -0.5387  0.6936
44694SOL    HW141197  10.982   3.534   8.952  1.2213  1.6288  0.7370
44694SOL    HW241198  10.925   3.662   8.894  0.8130 -0.1094 -3.0026
44695SOL     OW41199   9.897   9.649  11.267 -0.3968  0.7473  0.2345
44695SOL    HW141200   9.914   9.561  11.232 -1.0084  0.6087  0.2704
44695SOL    HW241201   9.851   9.694  11.197  1.3025  1.5835 -0.3980
44696SOL     OW41202   6.835   9.867  11.904  0.5840  0.4533 -0.2556
44696SOL    HW141203   6.788   9.938  11.947  0.0527 -0.2969  0.4274
44696SOL    HW241204   6.926   9.879  11.933  0.3718  0.4280  0.4429
44697SOL     OW41205   1.217  11.468   7.827 -0.0142 -0.0704  0.2522
44697SOL    HW141206   1.276  11.401   7.862  0.2800 -1.0083 -1.8682
44697SOL    HW241207   1.273  11.543   7.808  0.1068 -0.1347  0.3574
44698SOL     OW41208   3.992   0.437   1.690  0.1882  0.2031  0.1312
44698SOL    HW141209   3.937   0.384   1.748  0.3234  1.1170  1.1230
44698SOL    HW241210   3.952   0.523   1.691  0.2272  0.2540 -1.1146
44699SOL     OW41211   8.110   4.466   0.129 -0.3151  0.2740 -0.2119
44699SOL    HW141212   8.068   4.530   0.072 -0.5517  0.3172  0.0054
44699SOL    HW241213   8.202   4.490   0.128 -0.4739  0.9436  0.2728
44700SOL     OW41214   8.596   5.749  10.490 -0.6952  0.0588  0.2273
44700SOL    HW141215   8.634   5.761  10.403  1.5213  1.0878  1.2486
44700SOL    HW241216   8.670   5.722  10.544 -1.8510  0.2221  1.9667
44701SOL     OW41217   6.128   6.143   5.764 -0.5047  0.4936  0.4995
44701SOL    HW141218   6.133   6.057   5.806  0.4292  0.4010  0.2189
44701SOL    HW241219   6.177   6.132   5.682 -0.4847  1.2619  0.4043
44702SOL     OW41220   3.723  10.487   5.014 -0.0736 -1.2695  0.3669
44702SOL    HW141221   3.793  10.423   5.030 -0.8056 -1.8019  1.6044
44702SOL    HW241222   3.768  10.571   5.013  0.7697 -1.6996 -0.2620
44703SOL     OW41223   9.596   1.020   8.309 -0.1215 -0.1679  0.1355
44703SOL    HW141224   9.528   1.088   8.312  0.1845  0.1253  1.8049
44703SOL    HW241225   9.678   1.069   8.314  0.2596 -0.5168 -1.8881
44704SOL     OW41226   0.004   5.212   1.400  0.3118 -0.4676  0.0331
44704SOL    HW141227   0.087   5.222   1.352 -0.7864 -1.2038 -2.1942
44704SOL    HW241228  -0.040   5.139   1.355 -0.6958 -1.4745  2.4625
44705SOL     OW41229   0.783   2.222   8.554 -0.4800 -0.5797  0.3981
44705SOL    HW141230   0.770   2.129   8.537  0.2568 -0.9066  1.5134
44705SOL    HW241231   0.878   2.235   8.541 -0.7107  0.2223 -0.6560
44706SOL     OW41232   3.463   7.705  11.844 -0.2187  0.1136 -0.4893
44706SOL    HW141233   3.431   7.656  11.768 -0.1341 -0.9740  0.1546
44706SOL    HW241234   3.558   7.703  11.835 -0.2304  1.1479 -1.0474
44707SOL     OW41235   0.227   2.865  11.613  0.0258 -0.4514  0.0647
44707SOL    HW141236   0.167   2.907  11.552  0.6441  1.9234  1.0038
44707SOL    HW241237   0.181   2.865  11.696  0.8778  0.4438  0.5614
44708SOL     OW41238   3.833   8.748   7.487 -0.6125  0.2051  0.0215
44708SOL    HW141239   3.816   8.840   7.463 -1.9836  0.1992  0.8830
44708SOL    HW241240   3.750   8.717   7.523 -0.8968 -2.0638 -2.2931
44709SOL     OW41241   0.895   9.815   7.761  0.8166 -0.0602 -0.3545
44709SOL    HW141242   0.984   9.782   7.744  0.9973  0.1441  0.1830
44709SOL    HW241243   0.841   9.771   7.695  0.6901 -3.0732  1.5801
44710SOL     OW41244   2.955  10.058   5.020  0.1595 -0.1760  0.5425
44710SOL    HW141245   2.926   9.969   5.001 -0.6971  0.0770  0.5987
44710SOL    HW241246   2.926  10.109   4.945 -0.8470  0.3418  1.2557
44711SOL     OW41247   3.435  11.606   0.888 -0.3841 -0.0887  0.0205
44711SOL    HW141248   3.530  11.614   0.897 -0.2198 -0.7697 -1.0013
44711SOL    HW241249   3.403  11.694   0.908  0.3352 -0.1667  1.6860
44712SOL     OW41250   0.165   7.221  11.227 -0.0239  0.4711  0.4389
44712SOL    HW141251   0.137   7.260  11.144  0.2501 -0.0807  0.0803
44712SOL    HW241252   0.150   7.127  11.216  0.0566  0.3861  0.9982
44713SOL     OW41253   7.727   5.349   1.191  0.2772  0.2893 -0.2531
44713SOL    HW141254   7.640   5.318   1.218  1.2993 -2.0338  0.7032
44713SOL    HW241255   7.746   5.421   1.250 -0.9775  0.8138 -0.4552
44714SOL     OW41256  12.744   0.641   7.396 -0.3138 -0.2414  0.3305
44714SOL    HW141257  12.792   0.704   7.343 -1.0597 -1.0244 -1.3362
44714SOL    HW241258  12.672   0.692   7.435  0.3035  0.3579  0.7036
44715SOL     OW41259   8.355   9.415   2.395 -0.2845  0.2679  0.3113
44715SOL    HW141260   8.271   9.407   2.348 -0.0209  2.1965 -0.6082
44715SOL    HW241261   8.333   9.397   2.486 -1.4483 -0.4705 -0.0861
44716SOL     OW41262   1.760   2.125   9.195 -0.1786  0.2365 -0.3308
44716SOL    HW141263   1.743   2.034   9.170  1.5992  0.0395 -0.9057
44716SOL    HW241264   1.708   2.137   9.275 -0.6589 -1.1804 -0.3907
44717SOL     OW41265   4.138  10.646   1.747 -0.4082  0.3227  0.2566
44717SOL    HW141266   4.213  10.704   1.730  0.1226 -0.8782 -1.8645
44717SOL    HW241267   4.092  10.641   1.663 -0.8821 -1.6423  0.5745
44718SOL     OW41268   3.436  11.531   8.147  0.3836  0.7566 -0.1214
44718SOL    HW141269   3.513  11.553   8.199  1.3482  0.2526 -1.2829
44718SOL    HW241270   3.430  11.436   8.152 -0.7805  0.8555  0.7758
44719SOL     OW41271  10.396   4.102   5.346  0.8872  0.2359  0.2383
44719SOL    HW141272  10.458   4.175   5.341  0.1558  1.1014  2.4018
44719SOL    HW241273  10.429   4.049   5.419  0.9019 -1.1278 -0.7388
44720SOL     OW41274   6.638   4.016   3.248 -0.2138 -0.1855  0.2772
44720SOL    HW141275   6.659   3.986   3.160 -0.0109 -0.7015  0.4946
44720SOL    HW241276   6.702   4.085   3.266  0.9433 -1.3060  0.6885
44721SOL     OW41277  10.228   4.902   6.677  0.2547  0.0816 -0.4844
44721SOL    HW141278  10.269   4.888   6.591 -0.9124  1.2014 -1.2525
44721SOL    HW241279  10.137   4.923   6.657 -0.5874 -1.7058  1.1595
44722SOL     OW41280   2.024  10.500   6.168 -0.2340  0.1547 -0.4211
44722SOL    HW141281   2.090  10.506   6.100 -0.7704 -0.0234 -0.9682
44722SOL    HW241282   1.982  10.586   6.168  1.1239  0.8815  1.1223
44723SOL     OW41283  12.681   8.736  10.357  0.1144  0.4215 -0.4470
44723SOL    HW141284  12.734   8.744  10.436 -3.2895  1.0963  2.0135
44723SOL    HW241285  12.631   8.817  10.353 -2.4090 -1.0566 -1.1877
44724SOL     OW41286  10.999   1.869   7.294 -0.1154  0.3385  0.1425
44724SOL    HW141287  10.981   1.882   7.201  0.8643  0.3555 -0.0578
44724SOL    HW241288  11.040   1.783   7.299  1.8555  1.2449  0.2493
44725SOL     OW41289  12.554   0.439  12.807  0.2393  0.2303 -0.1360
44725SOL    HW141290  12.594   0.375  12.864 -1.4225 -0.2896  0.5110
44725SOL    HW241291  12.469   0.401  12.784 -1.0755  2.4156  0.7727
44726SOL     OW41292   0.054   9.480  10.232 -0.5365  0.7941 -0.3069
44726SOL    HW141293  -0.033   9.471  10.271  0.0437 -0.1654  0.8065
44726SOL    HW241294   0.113   9.496  10.306  0.3404  0.7341 -0.9723
44727SOL     OW41295  11.775   1.409   8.476 -0.3677 -0.1645 -0.2379
44727SOL    HW141296  11.766   1.489   8.423  0.2927  1.0270  1.3652
44727SOL    HW241297  11.867   1.384   8.464 -1.0797 -2.0248 -2.4819
44728SOL     OW41298   6.348   7.964  12.024 -0.6159 -0.1397  0.3741
44728SOL    HW141299   6.429   8.008  12.047 -0.8891  0.0596  0.9555
44728SOL    HW241300   6.376   7.885  11.977 -0.1279  0.8517 -1.0929
44729SOL     OW41301  12.449   4.538   7.776  0.0492 -0.0944  0.3532
44729SOL    HW141302  12.447   4.446   7.802  2.2732 -0.2943 -0.0237
44729SOL    HW241303  12.541   4.556   7.755 -0.3570  2.1682  0.2173
44730SOL     OW41304   6.010   0.314   9.679  0.3762 -0.3561  0.1818
44730SOL    HW141305   5.949   0.253   9.722  0.9614 -0.7253  0.5056
44730SOL    HW241306   6.056   0.356   9.752  0.5555 -0.1242 -0.0656
44731SOL     OW41307  10.060   1.941  11.158 -0.1035 -0.0451 -0.4639
44731SOL    HW141308  10.134   1.882  11.142  0.0656  0.3426 -1.1560
44731SOL    HW241309  10.000   1.890  11.212  0.5270 -0.4765 -0.1606
44732SOL     OW41310   2.099   7.578   2.363 -0.6581 -0.0009  0.0480
44732SOL    HW141311   2.103   7.637   2.288  0.8968  1.5771  1.3010
44732SOL    HW241312   2.020   7.605   2.410 -0.7593  0.0710 -0.1606
44733SOL     OW41313   2.223   8.850   1.976 -0.2094 -0.3197 -0.1394
44733SOL    HW141314   2.136   8.890   1.964  0.1481  0.5055 -0.0213
44733SOL    HW241315   2.284   8.924   1.970  0.4140 -0.7485  0.8112
44734SOL     OW41316   1.869   6.000   6.903 -0.0196 -0.4770 -0.0984
44734SOL    HW141317   1.952   6.014   6.859  0.7302 -0.8621  1.1537
44734SOL    HW241318   1.837   5.917   6.868  0.4777 -0.6961 -0.0271
44735SOL     OW41319   8.306   0.778   2.030 -0.0947 -0.5117  0.4603
44735SOL    HW141320   8.278   0.864   2.062  1.5288 -0.1339  0.9951
44735SOL    HW241321   8.284   0.717   2.100  0.0242 -0.2938  0.6882
44736SOL     OW41322   4.651   4.402   6.292  0.1959  0.1488 -0.4566
44736SOL    HW141323   4.568   4.365   6.264  0.4241 -0.8321  0.1058
44736SOL    HW241324   4.681   4.453   6.217 -0.9591  0.6185 -0.6188
44737SOL     OW41325   9.693   4.870  10.253 -0.2541 -0.0459  0.0613
44737SOL    HW141326   9.694   4.829  10.340  0.8174  1.9171  1.0256
44737SOL    HW241327   9.634   4.945  10.263  0.5232  0.6728 -0.6612
44738SOL     OW41328   8.096  11.177   2.354  0.8595  0.8524 -0.9567
44738SOL    HW141329   8.185  11.201   2.328  1.4263 -0.3444 -0.2220
44738SOL    HW241330   8.095  11.082   2.350  0.1221  0.7701  0.6163
44739SOL     OW41331  12.032   4.121  10.553  0.4737  0.1010 -0.6887
44739SOL    HW141332  11.976   4.171  10.494 -0.2566  0.5726  0.3750
44739SOL    HW241333  11.972   4.079  10.614  1.0999 -1.7849 -1.2965
44740SOL     OW41334   3.730   1.367  10.187 -0.0354  0.0562 -0.4350
44740SOL    HW141335   3.825   1.379  10.182 -0.1763  1.0891 -0.9852
44740SOL    HW241336   3.695   1.455  10.199 -0.8815 -0.4184  0.8275
44741SOL     OW41337  11.134   1.858  10.857  0.6299  0.0986  0.1674
44741SOL    HW141338  11.169   1.823  10.939 -0.0828  0.3446  0.5845
44741SOL    HW241339  11.085   1.935  10.884  2.5660  1.7633 -0.7612
44742SOL     OW41340   5.190   1.284   3.556 -0.4805  0.8656  0.3597
44742SOL    HW141341   5.263   1.341   3.535  0.7278 -0.5220  0.6634
44742SOL    HW241342   5.129   1.295   3.484  1.7089 -0.7293 -1.8969
44743SOL     OW41343   6.593   1.343   4.096  0.2747  0.3063 -0.3397
44743SOL    HW141344   6.641   1.425   4.097  0.6891  0.1487 -2.4873
44743SOL    HW241345   6.501   1.367   4.109  0.7519  0.5587  4.5640
44744SOL     OW41346   6.508   9.168   2.803  0.0850  0.2672  0.2471
44744SOL    HW141347   6.432   9.159   2.746  0.0244  1.7185  0.0596
44744SOL    HW241348   6.564   9.232   2.759  0.6527  0.4276  1.1723
44745SOL     OW41349   9.125   2.088  12.474 -0.0844  0.4095  1.0613
44745SOL    HW141350   9.163   2.114  12.390  0.9131 -0.1087  1.3368
44745SOL    HW241351   9.034   2.065  12.453  0.0483  0.6471  0.1954
44746SOL     OW41352   0.135   0.916   6.290 -0.4127 -0.1163 -0.2134
44746SOL    HW141353   0.126   1.005   6.255 -0.6893  0.3277  0.9320
44746SOL    HW241354   0.170   0.929   6.378 -1.0956 -1.0929  0.2165
44747SOL     OW41355  10.804   6.230   9.208 -0.4190 -0.4045 -0.1832
44747SOL    HW141356  10.883   6.235   9.155  0.2614 -0.9170  0.7655
44747SOL    HW241357  10.827   6.173   9.281 -1.1610  0.6956  0.9478
44748SOL     OW41358   5.275   0.488  12.280  0.0366  0.4213 -0.0572
44748SOL    HW141359   5.295   0.559  12.340 -0.4760  0.9305 -0.4741
44748SOL    HW241360   5.274   0.529  12.193  0.5267 -0.2522 -0.3907
44749SOL     OW41361   1.429   4.684   7.702 -0.5746 -0.2084  0.1095
44749SOL    HW141362   1.460   4.688   7.793  0.0289 -0.4232 -0.0845
44749SOL    HW241363   1.446   4.594   7.675 -1.1655 -0.2699 -0.0797
44750SOL     OW41364   8.051  10.132   0.104  0.2319  0.1102  0.1505
44750SOL    HW141365   7.965  10.104   0.071 -0.2226  1.2297  0.3364
44750SOL    HW241366   8.100  10.051   0.114 -0.2883 -0.4423 -1.4028
44751SOL     OW41367   3.085   9.768  11.329  0.2197  0.3641  0.0442
44751SOL    HW141368   3.105   9.680  11.296 -0.0854 -0.0909  1.0464
44751SOL    HW241369   3.031   9.753  11.406 -0.4837  1.4670 -0.2214
44752SOL     OW41370  12.402   9.582   6.174  0.1016  0.2291  0.1200
44752SOL    HW141371  12.439   9.524   6.108 -0.0976  0.1835  0.0473
44752SOL    HW241372  12.344   9.640   6.125  1.8872  1.9139 -0.1497
44753SOL     OW41373   2.865  10.091  11.831 -0.4757  0.0713 -0.2692
44753SOL    HW141374   2.839  10.056  11.916  0.3634 -0.5553 -0.2520
44753SOL    HW241375   2.898  10.179  11.849  0.8965 -0.5210  0.2681
44754SOL     OW41376  11.538   3.465  10.767 -0.4598  0.3951 -0.1922
44754SOL    HW141377  11.557   3.522  10.842  0.4431 -0.1491  0.0052
44754SOL    HW241378  11.468   3.511  10.720 -0.7911  0.9254  0.7768
44755SOL     OW41379   2.609  10.761   3.206  0.2598  0.7894  0.0178
44755SOL    HW141380   2.543  10.714   3.155  0.7209  0.7072 -0.5046
44755SOL    HW241381   2.562  10.836   3.243  0.0763  1.2180 -1.0579
44756SOL     OW41382   5.770   1.957   8.036 -0.1855  0.0153 -0.0770
44756SOL    HW141383   5.833   2.024   8.010 -1.7862  1.5133 -0.2100
44756SOL    HW241384   5.712   1.946   7.961  0.0498 -1.5803 -0.0751
44757SOL     OW41385   0.589   7.462   5.615  0.0353  0.1176  0.1542
44757SOL    HW141386   0.668   7.411   5.632  0.0834  0.0112 -0.3596
44757SOL    HW241387   0.586   7.527   5.684 -0.5069 -1.1555  1.3840
44758SOL     OW41388   9.672   6.476  11.464 -0.1396  0.5058 -0.1803
44758SOL    HW141389   9.589   6.524  11.469 -0.2735  0.5027 -1.7290
44758SOL    HW241390   9.731   6.535  11.416  1.0846  0.9057  1.7437
44759SOL     OW41391   7.916   2.565   5.222 -0.3039 -0.4464 -0.4162
44759SOL    HW141392   7.839   2.543   5.170  0.0336  0.4759 -1.3455
44759SOL    HW241393   7.971   2.617   5.162 -0.2556  1.3153  1.0740
44760SOL     OW41394   7.776   2.738   0.004  0.2349 -1.1142 -0.2101
44760SOL    HW141395   7.714   2.782  -0.054  1.3953 -0.1093 -0.7431
44760SOL    HW241396   7.845   2.707  -0.054  0.9804 -0.8672  0.5259
44761SOL     OW41397   6.218   6.029   7.863 -0.1016 -0.0213  0.1163
44761SOL    HW141398   6.289   6.089   7.886 -0.6715  0.9000 -0.4536
44761SOL    HW241399   6.233   5.952   7.917  0.7827  0.5453  0.6992
44762SOL     OW41400   3.703   1.482  11.530 -0.1044  0.1114  0.3104
44762SOL    HW141401   3.761   1.551  11.562  0.3916 -0.1931  0.0999
44762SOL    HW241402   3.680   1.431  11.608 -0.5048  0.5366  0.4705
44763SOL     OW41403   7.622   8.457   5.813  0.6014 -0.6066  0.4012
44763SOL    HW141404   7.682   8.441   5.741 -0.2084  0.5506 -0.5890
44763SOL    HW241405   7.676   8.452   5.892  1.6161 -1.3344 -0.3184
44764SOL     OW41406  11.509   7.712   1.876 -0.3420  0.1048  0.8035
44764SOL    HW141407  11.540   7.782   1.818  1.4881 -0.9246  0.4753
44764SOL    HW241408  11.539   7.739   1.963 -1.9840  1.0136  1.1358
44765SOL     OW41409   5.236   1.767  11.888 -0.1928 -0.6662  0.2026
44765SOL    HW141410   5.233   1.743  11.981 -1.7458 -2.1021 -0.1935
44765SOL    HW241411   5.151   1.743  11.853  0.0414  0.6655 -1.4387
44766SOL     OW41412   4.508   9.790   6.934  0.1802 -0.1928  0.1285
44766SOL    HW141413   4.497   9.886   6.935  0.9697 -0.0276 -1.7077
44766SOL    HW241414   4.504   9.764   7.026  0.4000  1.6581  0.7077
44767SOL     OW41415   3.969   7.828   5.831 -0.3313  0.3904  0.0442
44767SOL    HW141416   3.943   7.795   5.745  1.4726  0.0670 -0.4167
44767SOL    HW241417   3.944   7.921   5.830 -1.6036  0.0549 -0.2728
44768SOL     OW41418   1.470   8.429   4.481  0.2183 -0.7326  0.0194
44768SOL    HW141419   1.498   8.367   4.413 -0.8074 -1.1983  0.0133
44768SOL    HW241420   1.442   8.506   4.433  0.3838 -0.7023 -0.0314
44769SOL     OW41421   6.995   5.131   6.896 -0.2253  0.1597 -0.3136
44769SOL    HW141422   7.064   5.066   6.907  0.2037  0.5655 -0.5665
44769SOL    HW241423   6.939   5.121   6.974  0.6362  0.4591  0.3520
44770SOL     OW41424   2.403  11.340   1.369 -0.0591  0.4909 -0.7477
44770SOL    HW141425   2.433  11.264   1.320  0.1904  0.8730 -1.2030
44770SOL    HW241426   2.476  11.361   1.428 -0.1336  0.3636 -0.6126
44771SOL     OW41427   7.333   0.455   5.545  0.1896 -0.0552 -0.4854
44771SOL    HW141428   7.394   0.402   5.596  1.3878  0.1126 -1.7127
44771SOL    HW241429   7.256   0.462   5.602  1.1603 -0.5458  0.9623
44772SOL     OW41430   5.164   7.906   8.315 -0.1857  0.3084 -0.0401
44772SOL    HW141431   5.184   7.993   8.350  0.2676  0.4172 -0.5626
44772SOL    HW241432   5.221   7.897   8.239 -1.7103  0.3933 -1.2437
44773SOL     OW41433   6.298   2.608  11.123 -0.7414  0.3203 -0.0381
44773SOL    HW141434   6.307   2.529  11.070  0.0314  1.2236 -1.2969
44773SOL    HW241435   6.204   2.614  11.140 -1.2215  0.6853 -2.4465
44774SOL     OW41436   0.253  10.003  12.595  0.4135 -0.2996 -0.2531
44774SOL    HW141437   0.248  10.095  12.570 -0.3711 -0.6266 -1.3851
44774SOL    HW241438   0.329   9.997  12.653  0.9439  0.9096 -0.8123
44775SOL     OW41439   3.270   9.560   4.190  0.5148 -0.4530 -0.3213
44775SOL    HW141440   3.337   9.603   4.137  0.5544  1.2530  1.0036
44775SOL    HW241441   3.188   9.603   4.165  0.4259 -0.1744  0.4015
44776SOL     OW41442   2.631   8.735   8.001  0.2729 -0.2245  0.5010
44776SOL    HW141443   2.612   8.816   8.049  1.1602 -0.3978  1.1784
44776SOL    HW241444   2.552   8.719   7.949 -0.1716  0.7227  0.8529
44777SOL     OW41445   9.217   4.062   7.135  0.3241 -0.6585  0.1968
44777SOL    HW141446   9.153   4.123   7.172 -0.7568 -1.7217  0.1501
44777SOL    HW241447   9.187   3.976   7.163 -0.6698 -1.5712 -3.1910
44778SOL     OW41448   7.645  10.817   5.981  0.4524 -0.1921 -0.4453
44778SOL    HW141449   7.587  10.761   6.032  1.5805 -1.5372 -0.5926
44778SOL    HW241450   7.730  10.774   5.986  1.1229  0.9631 -1.4450
44779SOL     OW41451   6.109   7.195  12.907  0.3721  0.0732  0.5968
44779SOL    HW141452   6.105   7.241  12.990  2.7663  0.0704  0.7914
44779SOL    HW241453   6.110   7.102  12.931 -0.1210  0.0326  0.4749
44780SOL     OW41454   7.771   3.821   8.839 -0.3697 -0.5525  0.2461
44780SOL    HW141455   7.841   3.791   8.781  0.1860 -0.4891  0.8709
44780SOL    HW241456   7.807   3.811   8.928 -0.4259  1.2362  0.5204
44781SOL     OW41457   6.245   4.208   1.271 -0.0480  0.0520 -0.0925
44781SOL    HW141458   6.248   4.303   1.277  0.2715 -0.0704  2.5920
44781SOL    HW241459   6.303   4.187   1.198 -0.0235  1.8889 -0.6504
44782SOL     OW41460   0.534   4.869   4.653  0.6559 -0.1889  0.0588
44782SOL    HW141461   0.453   4.847   4.698  0.7683 -1.6940 -0.4205
44782SOL    HW241462   0.570   4.943   4.703 -0.4266 -0.2379  0.9469
44783SOL     OW41463  11.641   7.543   0.713 -0.2524  0.0504  0.2415
44783SOL    HW141464  11.703   7.599   0.666 -1.5460  0.0799 -1.5004
44783SOL    HW241465  11.586   7.604   0.761  2.3552 -0.0150  3.7286
44784SOL     OW41466  11.251   7.818  11.566 -0.0026 -0.2845 -0.2281
44784SOL    HW141467  11.254   7.797  11.472  1.1126  0.3732 -0.3527
44784SOL    HW241468  11.315   7.760  11.606 -1.5785 -1.6914  0.4033
44785SOL     OW41469   5.726   7.553   9.003 -0.1630  0.6977  0.1506
44785SOL    HW141470   5.673   7.592   8.933  0.4742  1.3257  0.0155
44785SOL    HW241471   5.739   7.462   8.975 -1.2805  0.4877  0.2545
44786SOL     OW41472   8.148   9.787   2.459 -0.3499  0.5890 -0.3535
44786SOL    HW141473   8.200   9.754   2.385 -1.8087 -1.2164 -0.6372
44786SOL    HW241474   8.081   9.842   2.419 -2.8907 -2.5503 -0.8546
44787SOL     OW41475   6.383   7.987   2.918 -0.1036  0.1272  0.0505
44787SOL    HW141476   6.398   8.076   2.886  0.9790  0.1274  0.5389
44787SOL    HW241477   6.291   7.986   2.943 -0.5329  0.6514 -1.3811
44788SOL     OW41478  10.852   8.473   6.785  0.6065 -0.2976  0.1883
44788SOL    HW141479  10.838   8.568   6.794  1.4991  0.0365 -1.6105
44788SOL    HW241480  10.768   8.439   6.757  1.0762  0.5114 -2.5046
44789SOL     OW41481   9.287   2.505   6.619  0.4466  0.9485  0.0923
44789SOL    HW141482   9.290   2.582   6.562  1.1672  0.8709  0.0171
44789SOL    HW241483   9.377   2.471   6.619 -0.0948 -0.5561 -0.7622
44790SOL     OW41484  12.001   7.330   6.386 -0.5198 -0.6349 -0.4858
44790SOL    HW141485  11.996   7.338   6.482 -0.2893  0.1992 -0.5346
44790SOL    HW241486  11.940   7.259   6.365 -4.4691  2.3424 -0.1635
44791SOL     OW41487   3.401   9.833   3.019  0.1091 -0.6714 -0.3711
44791SOL    HW141488   3.424   9.919   2.983 -1.5935  0.2451  0.6310
44791SOL    HW241489   3.421   9.772   2.948  1.0518  0.5678 -1.2254
44792SOL     OW41490   4.658   0.219   6.255  0.0302  0.0029  0.2320
44792SOL    HW141491   4.565   0.225   6.278  0.1741  1.4151  0.4982
44792SOL    HW241492   4.704   0.223   6.339  0.3804  0.6970  0.0113
44793SOL     OW41493   4.403   0.572   3.312 -0.0714  0.0772  0.2844
44793SOL    HW141494   4.320   0.529   3.333  1.0689 -2.9176 -0.8760
44793SOL    HW241495   4.447   0.580   3.397  0.0622 -2.0539  0.4778
44794SOL     OW41496   2.138  11.650   6.903  0.1916  0.5512 -0.4178
44794SOL    HW141497   2.159  11.709   6.831 -0.5380  1.0761 -0.2177
44794SOL    HW241498   2.116  11.709   6.976 -0.5692  0.0396 -0.2206
44795SOL     OW41499  10.925   9.856   4.545  0.4588  0.7064  0.0140
44795SOL    HW141500  10.907   9.935   4.495  0.4448  0.1416 -0.8845
44795SOL    HW241501  10.922   9.785   4.481  0.4955 -0.0254  0.8009
44796SOL     OW41502   6.426   0.561   1.973  0.3555  0.1458  0.2444
44796SOL    HW141503   6.343   0.514   1.980  0.3209 -0.0129 -1.0329
44796SOL    HW241504   6.450   0.580   2.064  0.1445 -1.9294  0.7891
44797SOL     OW41505   0.233  10.148   4.702 -0.2952  0.1055 -0.3755
44797SOL    HW141506   0.222  10.132   4.796 -0.6551 -0.2796 -0.4797
44797SOL    HW241507   0.149  10.184   4.674 -1.0259 -1.9268 -0.9901
44798SOL     OW41508   2.003   3.845   5.194 -0.2208  0.7870 -0.6693
44798SOL    HW141509   1.971   3.902   5.124  1.5303  3.7004  0.7142
44798SOL    HW241510   2.092   3.821   5.167  0.2473  1.4457  0.2595
44799SOL     OW41511  12.619   5.016   4.586  0.0470  0.3614  0.5235
44799SOL    HW141512  12.562   5.012   4.509  1.0338  1.8795 -0.3211
44799SOL    HW241513  12.565   5.058   4.653  0.3378  2.5972 -0.5276
44800SOL     OW41514   9.067   4.169   6.682  0.0703  0.0232 -0.8616
44800SOL    HW141515   9.068   4.076   6.659  1.9181 -0.1570 -0.2754
44800SOL    HW241516   9.147   4.204   6.642 -0.0344  1.1198 -0.1587
44801SOL     OW41517   5.868  10.934   8.519 -0.9804  0.0204 -0.3733
44801SOL    HW141518   5.848  10.841   8.516 -0.4594 -0.0757 -1.1985
44801SOL    HW241519   5.905  10.953   8.433  2.3994  0.1997  0.9737
44802SOL     OW41520   9.825  11.452  11.632  0.2275  0.5276 -0.0576
44802SOL    HW141521   9.793  11.489  11.714  0.8156  1.0900 -0.0733
44802SOL    HW241522   9.819  11.524  11.569 -1.5883 -0.2857 -0.8939
44803SOL     OW41523   8.460  10.172   5.179 -0.1615  0.1991  0.0969
44803SOL    HW141524   8.454  10.083   5.143  2.7563 -0.8253  1.7637
44803SOL    HW241525   8.398  10.172   5.252 -1.8592  0.3603 -1.2944
44804SOL     OW41526   8.413   1.951   5.538 -0.0207  0.2539 -0.4179
44804SOL    HW141527   8.487   2.011   5.542  0.3343 -0.2346  0.3963
44804SOL    HW241528   8.350   1.996   5.481  1.5638 -0.0724 -2.5625
44805SOL     OW41529   1.843   7.499   1.585 -0.2150 -0.2870  0.3059
44805SOL    HW141530   1.823   7.406   1.575  0.6902 -0.6927  1.8307
44805SOL    HW241531   1.867   7.508   1.677 -0.3866  1.4891  0.2095
44806SOL     OW41532  11.924  12.650   0.922 -0.6487 -0.1728  0.0035
44806SOL    HW141533  11.963  12.567   0.894 -1.0836  0.0730 -1.4263
44806SOL    HW241534  11.977  12.677   0.997 -0.3918 -1.6440  0.3980
44807SOL     OW41535   8.488   5.664   9.583 -0.0351  0.3276  0.0637
44807SOL    HW141536   8.558   5.695   9.642  0.3937 -1.9784  0.9012
44807SOL    HW241537   8.423   5.625   9.642 -0.3164 -0.7042 -0.8868
44808SOL     OW41538  10.027  10.570   1.924 -0.3456  0.3129  0.3819
44808SOL    HW141539   9.943  10.562   1.969 -0.2654 -0.4586  0.4108
44808SOL    HW241540  10.076  10.492   1.950 -0.7433 -0.7966 -1.9458
44809SOL     OW41541   3.539  12.635   9.324 -0.0376  0.1105 -0.1219
44809SOL    HW141542   3.579  12.657   9.240 -0.7343  0.4688 -0.3700
44809SOL    HW241543   3.592  12.682   9.389 -0.8450  1.6908 -0.5612
44810SOL     OW41544  12.216   9.292  10.163 -1.1695 -0.0833  0.0615
44810SOL    HW141545  12.150   9.336  10.109 -1.0904 -0.4809 -0.3606
44810SOL    HW241546  12.296   9.342  10.147 -1.2597  0.1046  0.1986
44811SOL     OW41547  12.723   0.412   0.605  0.2382 -0.4145 -0.7398
44811SOL    HW141548  12.790   0.409   0.537  0.6375 -1.6349 -0.3293
44811SOL    HW241549  12.670   0.334   0.590 -0.3749 -0.0756 -0.3584
44812SOL     OW41550   7.674  11.620   2.770 -0.1898 -0.0428 -0.5314
44812SOL    HW141551   7.611  11.635   2.840 -3.1701  0.1851 -3.0206
44812SOL    HW241552   7.628  11.564   2.708  2.7594 -1.3100 -1.7487
44813SOL     OW41553   9.315   7.091   3.209  0.3505 -0.0537 -0.1402
44813SOL    HW141554   9.336   7.179   3.241  0.3048 -0.0329 -0.1678
44813SOL    HW241555   9.266   7.051   3.281  0.6015 -0.1503 -0.0219
44814SOL     OW41556  10.777  12.163   8.003 -0.4398 -0.2966 -0.0084
44814SOL    HW141557  10.868  12.192   8.013 -0.7710  0.6819  0.3651
44814SOL    HW241558  10.761  12.107   8.078  0.0989 -1.1527 -0.5208
44815SOL     OW41559   3.082  12.727   3.422  0.6656 -0.3914  0.2794
44815SOL    HW141560   3.076  12.648   3.476 -1.9572 -0.6111 -0.2224
44815SOL    HW241561   3.010  12.782   3.451  1.3298  1.0301 -0.6427
44816SOL     OW41562   8.556   3.766  10.084  0.0074 -0.2935  0.9052
44816SOL    HW141563   8.535   3.673  10.079 -0.2316 -0.1697 -0.6147
44816SOL    HW241564   8.471   3.809  10.093  0.1477 -0.2251  2.1563
44817SOL     OW41565   4.201   3.736   3.655 -0.0737 -0.0512 -0.5298
44817SOL    HW141566   4.120   3.685   3.649 -0.6394  0.8199 -0.3479
44817SOL    HW241567   4.173   3.825   3.675  0.8739  0.4502 -1.3191
44818SOL     OW41568   0.313   9.192   2.240  0.3453  0.1370 -0.1080
44818SOL    HW141569   0.384   9.235   2.192 -0.5749 -2.6479 -4.5130
44818SOL    HW241570   0.345   9.104   2.257 -1.6238 -0.9654 -1.5892
44819SOL     OW41571   6.284  10.901   3.252 -0.1361 -0.2660 -0.0603
44819SOL    HW141572   6.239  10.841   3.312 -0.2830  1.0215  1.1757
44819SOL    HW241573   6.283  10.985   3.297  2.6286  0.0634 -0.4036
44820SOL     OW41574   2.772  10.997  10.827  0.3270  0.6963 -0.2789
44820SOL    HW141575   2.750  11.088  10.847  2.6606  1.2822 -0.1504
44820SOL    HW241576   2.690  10.959  10.794 -1.2976  2.1944  1.7519
44821SOL     OW41577   3.180   5.611  12.192 -0.4881 -0.6837 -0.5382
44821SOL    HW141578   3.254   5.570  12.146  0.7836  1.4704 -0.5219
44821SOL    HW241579   3.216   5.637  12.277 -1.7171 -0.9778  0.0951
44822SOL     OW41580  12.511   6.970   6.087  0.0139  0.0334  0.0228
44822SOL    HW141581  12.568   6.915   6.034  0.5921 -1.2756  1.9113
44822SOL    HW241582  12.493   7.047   6.031 -0.6112 -1.8726 -2.5889
44823SOL     OW41583  11.349   4.718  11.489  0.1696  0.0276  0.1303
44823SOL    HW141584  11.337   4.770  11.568  1.6900  0.6189  0.0124
44823SOL    HW241585  11.301   4.765  11.421  0.1259  0.3487  0.3790
44824SOL     OW41586   4.570   8.463  12.043  0.3416 -0.3979 -0.0659
44824SOL    HW141587   4.616   8.457  12.126  0.1584  1.3930  0.1899
44824SOL    HW241588   4.477   8.456  12.067  0.1533  2.0906  0.1763
44825SOL     OW41589  11.316  10.853   7.969 -0.7865 -0.1449  0.5192
44825SOL    HW141590  11.394  10.824   7.922 -1.4126 -0.5118 -0.2949
44825SOL    HW241591  11.348  10.924   8.025  0.1291 -0.2788  0.1845
44826SOL     OW41592   2.821   4.707   1.151 -0.3436  0.5196  0.8509
44826SOL    HW141593   2.870   4.783   1.183  1.7723  0.1332 -1.1722
44826SOL    HW241594   2.751   4.745   1.097  1.6321  1.1554 -1.4449
44827SOL     OW41595   3.172  11.985   3.281  0.6928  0.7842 -0.1851
44827SOL    HW141596   3.251  11.947   3.320  0.8241  1.1270 -0.1184
44827SOL    HW241597   3.120  11.909   3.257  1.0125  0.5544 -0.1692
44828SOL     OW41598   9.921  11.547   4.858  0.1426 -0.1533 -0.5538
44828SOL    HW141599   9.913  11.641   4.845 -2.2847 -0.3013 -0.4635
44828SOL    HW241600   9.904  11.508   4.772  1.2502 -0.5371 -0.6195
44829SOL     OW41601  10.903  11.095   4.342  0.7117 -0.0793 -0.1347
44829SOL    HW141602  10.914  11.164   4.277  1.5940  0.3144  0.4199
44829SOL    HW241603  10.814  11.062   4.327 -0.0425  1.7265  0.1258
44830SOL     OW41604   0.782   2.559   5.480  0.4136  0.1382  0.2364
44830SOL    HW141605   0.802   2.605   5.399 -1.8051  0.8417  0.0280
44830SOL    HW241606   0.849   2.490   5.486  0.1709 -0.4629 -2.6043
44831SOL     OW41607   3.047   6.953   8.403 -0.3238  1.0153 -0.3422
44831SOL    HW141608   3.095   6.872   8.419 -0.9713  0.5337 -0.7953
44831SOL    HW241609   3.102   7.022   8.441 -0.1735  0.2794  0.7942
44832SOL     OW41610   9.305   8.033  12.129  0.0896 -0.2785  0.3478
44832SOL    HW141611   9.230   8.005  12.182 -0.9306  0.6434 -0.5340
44832SOL    HW241612   9.300   7.978  12.051 -0.5147  0.6782 -0.3212
44833SOL     OW41613   3.699   2.223   5.762 -0.0894 -0.2873 -0.8280
44833SOL    HW141614   3.607   2.198   5.773  0.0315 -0.4093 -0.0725
44833SOL    HW241615   3.745   2.180   5.834  0.4853  0.1753 -0.9108
44834SOL     OW41616   3.875   4.599   5.009  0.4231 -0.0454  0.5708
44834SOL    HW141617   3.847   4.507   5.003  0.1141  0.0751  0.0635
44834SOL    HW241618   3.949   4.598   5.069  1.6566 -0.9111 -0.9176
44835SOL     OW41619   2.744  12.751  12.188  0.2165 -0.6208  0.1400
44835SOL    HW141620   2.785  12.749  12.102 -3.1100 -0.0948 -1.6473
44835SOL    HW241621   2.710  12.662  12.201 -0.0283 -0.4742  0.5369
44836SOL     OW41622   5.685   7.422  11.654 -0.6838  0.0339  0.5895
44836SOL    HW141623   5.734   7.497  11.619 -0.7495  0.3152  1.0867
44836SOL    HW241624   5.736   7.395  11.731  0.7591 -2.0428 -0.9748
44837SOL     OW41625   5.553   6.287   5.280  0.1583  0.1495  0.1144
44837SOL    HW141626   5.553   6.346   5.355 -0.1661  2.3554 -1.5109
44837SOL    HW241627   5.626   6.317   5.226 -0.8810  0.0197 -1.4402
44838SOL     OW41628  10.682   6.081   3.339  0.4069 -0.2336 -0.4366
44838SOL    HW141629  10.719   6.039   3.261  2.0160  2.1292 -1.0420
44838SOL    HW241630  10.587   6.072   3.328  0.5829 -0.0092 -2.6659
44839SOL     OW41631   4.005   0.444  12.244  0.2705 -0.4216  0.2959
44839SOL    HW141632   3.924   0.393  12.235  0.1230 -0.3850  1.2944
44839SOL    HW241633   3.991   0.497  12.323  1.3850 -0.6414  0.6563
44840SOL     OW41634  11.030   7.490  10.607  0.0696 -0.0271  0.1244
44840SOL    HW141635  11.014   7.554  10.676 -0.1117 -1.0905  1.1086
44840SOL    HW241636  10.975   7.415  10.631  0.9145 -0.8845 -0.5252
44841SOL     OW41637   4.594   6.785   9.751 -0.3051 -0.1543  0.2457
44841SOL    HW141638   4.520   6.841   9.728  0.4484 -0.0451 -2.2101
44841SOL    HW241639   4.655   6.843   9.797 -0.3996  0.5436 -0.4991
44842SOL     OW41640   5.364   5.632   6.028 -0.4746 -0.3204  0.0123
44842SOL    HW141641   5.437   5.652   5.968 -0.0764 -1.0774  0.2286
44842SOL    HW241642   5.346   5.539   6.013 -0.5953 -0.4332  0.8277
44843SOL     OW41643   7.574   3.727   2.340 -0.5246  0.3646  0.5741
44843SOL    HW141644   7.637   3.683   2.397  0.2391 -0.1833 -0.6497
44843SOL    HW241645   7.527   3.655   2.297  2.5639  0.4651 -3.5041
44844SOL     OW41646   2.146   3.511   9.934 -0.0852 -0.5755 -0.4134
44844SOL    HW141647   2.148   3.483  10.026  1.3386 -0.2206 -0.3145
44844SOL    HW241648   2.120   3.603   9.937 -0.2881 -0.6348 -0.3801
44845SOL     OW41649   0.665   3.887   8.348 -0.4221 -0.2851 -0.3488
44845SOL    HW141650   0.671   3.799   8.312 -0.5355 -1.5798  2.5643
44845SOL    HW241651   0.601   3.881   8.419  1.2085  1.5539  1.4258
44846SOL     OW41652  12.767  12.328   2.007 -0.3540  0.3427  0.1679
44846SOL    HW141653  12.816  12.309   2.087  0.3133  0.0313 -0.3030
44846SOL    HW241654  12.715  12.405   2.029 -0.7199 -0.1653  1.1182
44847SOL     OW41655   7.947   5.171   1.756  0.0279 -0.2188 -0.1494
44847SOL    HW141656   7.891   5.176   1.678  0.9126 -0.8763 -0.8462
44847SOL    HW241657   7.988   5.257   1.760  1.5340 -0.8018 -1.6414
44848SOL     OW41658   7.121   3.656   4.147 -0.2473 -0.6961  0.1358
44848SOL    HW141659   7.052   3.652   4.214  0.8571  1.4207  1.4854
44848SOL    HW241660   7.190   3.599   4.181  0.5610  0.8353  1.1858
44849SOL     OW41661   5.442   0.867   4.055 -0.1309 -0.4016 -0.3612
44849SOL    HW141662   5.487   0.816   4.123 -0.6661  0.9119  1.0422
44849SOL    HW241663   5.363   0.816   4.036  0.1911 -0.9554 -0.2479
44850SOL     OW41664   3.714   4.166   4.754  0.2051 -0.5198 -0.3937
44850SOL    HW141665   3.785   4.104   4.767  0.5016 -0.2947 -0.9350
44850SOL    HW241666   3.645   4.116   4.711  0.3046 -0.5642 -0.5018
44851SOL     OW41667   4.775   6.990   0.422  0.8471  0.1011  0.4775
44851SOL    HW141668   4.826   6.941   0.486  1.1643  0.3562  0.4215
44851SOL    HW241669   4.713   7.041   0.473  0.7300 -0.1180  0.5528
44852SOL     OW41670   7.394  12.213  10.341  0.2143  0.1736 -0.3517
44852SOL    HW141671   7.350  12.296  10.324 -2.0296 -0.9883 -0.5249
44852SOL    HW241672   7.389  12.202  10.436 -0.2757 -0.1645 -0.4148
44853SOL     OW41673   3.918   2.805  10.562 -0.6929 -0.4008 -0.0582
44853SOL    HW141674   3.854   2.770  10.624  0.3090  1.1579  1.9933
44853SOL    HW241675   3.998   2.815  10.614 -0.6947  4.1833 -0.5667
44854SOL     OW41676   9.322   8.913   4.010  0.1104 -1.2076 -0.2531
44854SOL    HW141677   9.417   8.904   4.002  0.0274 -2.3930 -0.1339
44854SOL    HW241678   9.306   8.909   4.104 -0.0212 -0.5738 -0.2485
44855SOL     OW41679  10.332  10.840  10.765 -0.1791 -0.0074  0.4979
44855SOL    HW141680  10.332  10.935  10.752  1.6778  0.2393  1.9227
44855SOL    HW241681  10.407  10.809  10.714 -1.0081 -0.7920 -0.2841
44856SOL     OW41682   1.639   1.707   1.500  0.2268 -0.1991  0.4383
44856SOL    HW141683   1.548   1.681   1.484  0.0775  0.8235 -0.4479
44856SOL    HW241684   1.657   1.774   1.434  1.8173 -0.7986  0.2151
44857SOL     OW41685   7.098   2.087   3.307  0.0850  0.2021 -0.4034
44857SOL    HW141686   7.065   2.152   3.369  1.1117 -1.1405  1.6830
44857SOL    HW241687   7.187   2.115   3.288 -0.4428  0.9679 -1.8566
44858SOL     OW41688  11.450   3.942  11.691  0.0987 -0.3470  0.2186
44858SOL    HW141689  11.460   3.897  11.775 -0.1078  0.7022  0.8330
44858SOL    HW241690  11.389   4.013  11.711 -2.2385 -1.7362 -1.4695
44859SOL     OW41691  11.353   4.124   6.975  0.4052 -0.2005 -0.2845
44859SOL    HW141692  11.409   4.053   7.006 -0.1862 -0.9316 -0.8632
44859SOL    HW241693  11.406   4.169   6.908  0.7840 -0.0809  0.0931
44860SOL     OW41694   7.753   6.659   2.504 -0.0505  0.0261  0.2183
44860SOL    HW141695   7.798   6.650   2.420 -1.6933  0.3870 -0.7457
44860SOL    HW241696   7.778   6.745   2.536 -0.5595  0.5020 -0.6352
44861SOL     OW41697  10.917   1.129   7.075  0.9568  0.8917 -0.4308
44861SOL    HW141698  10.980   1.171   7.134  0.9891  1.9446 -1.1802
44861SOL    HW241699  10.846   1.193   7.068  1.6910  1.5398 -2.8008
44862SOL     OW41700   2.054   4.933   1.208  0.2428  0.5147  0.6929
44862SOL    HW141701   2.144   4.958   1.187 -0.1707  0.8602 -0.8392
44862SOL    HW241702   2.012   4.922   1.122 -1.1170  0.1578  1.3756
44863SOL     OW41703   5.273  10.849   2.983 -0.1817 -0.3330 -0.0650
44863SOL    HW141704   5.305  10.853   2.893 -2.3789  0.1925 -0.8756
44863SOL    HW241705   5.353  10.853   3.036  1.2973 -2.2277 -1.9435
44864SOL     OW41706   1.235   5.810  11.689 -0.1748 -0.7008 -0.2244
44864SOL    HW141707   1.296   5.811  11.763 -0.7896  0.9452  0.3075
44864SOL    HW241708   1.291   5.804  11.612  0.5138 -1.6872  0.3298
44865SOL     OW41709  12.153   0.176  10.610 -0.1664  0.5468  0.0142
44865SOL    HW141710  12.248   0.175  10.620 -0.3909  0.4838  4.0745
44865SOL    HW241711  12.123   0.238  10.677 -3.0379 -0.2257 -0.4299
44866SOL     OW41712   4.471  10.078   5.172 -0.1929 -0.3799  0.0203
44866SOL    HW141713   4.413  10.002   5.164 -3.2205  1.8718 -1.5356
44866SOL    HW241714   4.472  10.098   5.265  0.2478 -1.9559  0.3847
44867SOL     OW41715   8.048   1.139   8.360 -0.0716 -0.3276 -0.6571
44867SOL    HW141716   8.107   1.109   8.290 -0.1948 -1.5612 -0.2491
44867SOL    HW241717   8.100   1.131   8.440 -0.7720 -1.3998 -0.2940
44868SOL     OW41718   8.018   4.236   3.752  0.3291  0.4424 -0.2096
44868SOL    HW141719   8.042   4.260   3.842 -0.8063  0.1309  0.1978
44868SOL    HW241720   8.075   4.162   3.731  0.9660  0.8486  0.0563
44869SOL     OW41721   1.322   3.381  11.894 -0.3715 -0.7371 -1.0508
44869SOL    HW141722   1.287   3.441  11.959 -2.6638 -0.6880 -2.2379
44869SOL    HW241723   1.412   3.412  11.879 -1.0538  1.6111 -0.7138
44870SOL     OW41724   9.111  11.714   7.657  0.5468 -0.8628  0.2285
44870SOL    HW141725   9.080  11.802   7.636  2.4909 -0.1728  0.0208
44870SOL    HW241726   9.055  11.685   7.729 -0.1321  0.5574  0.3011
44871SOL     OW41727   6.054   8.001  11.696 -0.7146 -0.4634  0.2535
44871SOL    HW141728   6.096   7.950  11.765 -2.0772 -0.3880  1.1946
44871SOL    HW241729   6.124   8.022  11.635  0.3257 -1.4616  1.0572
44872SOL     OW41730   6.600   8.593   4.541 -0.1095  0.4518  0.0717
44872SOL    HW141731   6.604   8.672   4.487  0.4759  0.2362 -0.2174
44872SOL    HW241732   6.521   8.548   4.512  1.2584 -0.7371 -2.1961
44873SOL     OW41733   8.504   2.962   2.666 -0.7274 -0.0495 -0.3642
44873SOL    HW141734   8.588   2.975   2.711 -0.8605  1.8827 -0.6228
44873SOL    HW241735   8.460   2.894   2.718  0.2081  0.2630  0.8933
44874SOL     OW41736   2.515   8.923   1.133  0.1390  0.4119  0.2573
44874SOL    HW141737   2.484   8.837   1.160  2.4753 -0.5396  0.1359
44874SOL    HW241738   2.610   8.918   1.142  0.3018  3.1995  0.8311
44875SOL     OW41739   1.189   1.044   9.508 -0.0762  0.1672 -0.1481
44875SOL    HW141740   1.263   1.096   9.540  0.3536  0.4383 -1.4998
44875SOL    HW241741   1.224   0.998   9.432 -1.4748  0.8446 -1.2479
44876SOL     OW41742   3.147   6.696  10.174 -0.5405 -0.6699  0.0147
44876SOL    HW141743   3.174   6.777  10.217 -0.7519  0.1891 -1.3980
44876SOL    HW241744   3.164   6.711  10.081 -0.0558 -2.4692 -0.2332
44877SOL     OW41745   1.176   9.418   5.425 -0.2445  0.9581  0.6236
44877SOL    HW141746   1.085   9.409   5.454 -0.4357 -1.2204 -0.4112
44877SOL    HW241747   1.171   9.427   5.330  0.5811 -3.6176 -0.0998
44878SOL     OW41748  10.806  10.918   5.956 -0.5906  0.1770  0.6286
44878SOL    HW141749  10.802  10.841   5.899 -1.5873  1.5899 -1.3350
44878SOL    HW241750  10.716  10.928   5.988 -1.3757  2.3669 -1.8833
44879SOL     OW41751   1.089   3.364   0.083  0.1010  0.0346 -0.2686
44879SOL    HW141752   1.033   3.340   0.009  0.5765  0.5025 -0.7895
44879SOL    HW241753   1.174   3.385   0.043  0.2940  0.5287  0.3839
44880SOL     OW41754  12.450   3.325   5.400 -0.4664  0.0583  0.1066
44880SOL    HW141755  12.440   3.264   5.473 -1.7902  0.3640  0.2092
44880SOL    HW241756  12.381   3.389   5.413 -0.3021  0.4997 -1.0595
44881SOL     OW41757  10.392  11.952   6.432 -0.2049 -0.2237 -0.0143
44881SOL    HW141758  10.412  11.864   6.399  1.9612  0.1787  0.0956
44881SOL    HW241759  10.448  11.963   6.508 -0.2221  1.3549 -0.1924
44882SOL     OW41760   1.567  10.973   9.678  0.6993  0.1264 -0.1666
44882SOL    HW141761   1.477  10.992   9.704  0.2321 -1.2436 -0.6445
44882SOL    HW241762   1.601  11.055   9.643 -0.6443  0.4737 -0.7092
44883SOL     OW41763   4.138  12.560   3.143 -0.2021  0.2751  0.3241
44883SOL    HW141764   4.181  12.477   3.126 -1.7717 -0.5542  0.1932
44883SOL    HW241765   4.044  12.540   3.136 -0.6104  2.0522  0.2936
44884SOL     OW41766   2.189  11.889   1.729 -0.2826 -0.4814  0.0129
44884SOL    HW141767   2.096  11.912   1.739 -0.1754 -0.2064  0.4137
44884SOL    HW241768   2.214  11.856   1.815  0.3640  0.8225  0.3476
44885SOL     OW41769   5.330   3.937   1.421  0.1052 -0.4292 -0.3537
44885SOL    HW141770   5.389   3.958   1.493  0.0870  2.3273 -1.0680
44885SOL    HW241771   5.243   3.938   1.461  0.1580  0.2997 -0.2574
44886SOL     OW41772  10.949   8.300   7.355  0.1901 -0.4418  0.4532
44886SOL    HW141773  11.012   8.365   7.384 -0.9134  1.7312 -1.6198
44886SOL    HW241774  10.995   8.252   7.286  0.4017 -0.5655  0.6805
44887SOL     OW41775   2.516   1.039   7.499 -0.2055  0.4870  0.3973
44887SOL    HW141776   2.427   1.048   7.466 -0.5857 -0.3226  1.1590
44887SOL    HW241777   2.509   0.978   7.572  0.3746  3.0826  2.8034
44888SOL     OW41778   0.675   4.600  10.549 -0.1033  0.3446  0.1988
44888SOL    HW141779   0.643   4.582  10.461  0.7454 -2.8950  0.4037
44888SOL    HW241780   0.596   4.617  10.600 -0.8502 -0.2854 -0.7145
44889SOL     OW41781   0.118   5.758   9.198 -0.0294 -0.0796  0.4988
44889SOL    HW141782   0.189   5.795   9.145  0.8784 -1.5353  0.6492
44889SOL    HW241783   0.038   5.781   9.151  0.6820 -0.2571 -0.8440
44890SOL     OW41784   3.670   8.505   9.661  0.2765 -0.6846  0.0412
44890SOL    HW141785   3.685   8.488   9.754 -0.6627  0.0302  0.3386
44890SOL    HW241786   3.668   8.418   9.620 -1.1220 -1.1339  0.9897
44891SOL     OW41787  11.298  10.139  10.024 -0.1479 -0.3924  0.0640
44891SOL    HW141788  11.255  10.127   9.939  0.4346 -1.3259 -0.1113
44891SOL    HW241789  11.231  10.179  10.079 -0.9090 -0.8541 -0.5011
44892SOL     OW41790  12.150   0.938   2.042 -0.1937 -0.4133 -0.6582
44892SOL    HW141791  12.102   0.983   1.973 -0.6598 -0.2125 -0.2129
44892SOL    HW241792  12.235   0.919   2.003  0.1497  1.1605 -0.7581
44893SOL     OW41793  12.827  11.840   3.738 -0.2344  0.6067  0.6563
44893SOL    HW141794  12.877  11.794   3.805  1.3328  1.0302 -0.1796
44893SOL    HW241795  12.825  11.780   3.664  0.5052  1.2400  0.1011
44894SOL     OW41796   5.149   0.565   0.820  0.1801 -0.5811  0.1514
44894SOL    HW141797   5.191   0.622   0.885 -0.6574 -0.0121  0.2108
44894SOL    HW241798   5.083   0.516   0.869 -0.5246 -0.0794 -0.2597
44895SOL     OW41799  11.892  12.589   5.016  0.5535 -0.4182  0.4875
44895SOL    HW141800  11.806  12.614   5.050  0.3720 -1.3241  0.7203
44895SOL    HW241801  11.886  12.494   5.005  0.9732 -0.2970 -1.0292
44896SOL     OW41802  11.673   7.828   7.410 -1.1464  0.1943  0.3779
44896SOL    HW141803  11.623   7.757   7.369 -0.6669 -0.4871  0.9651
44896SOL    HW241804  11.608   7.876   7.462 -1.8075  1.1772 -1.2589
44897SOL     OW41805   3.880  10.289   1.254  0.0442 -0.0123 -0.7731
44897SOL    HW141806   3.954  10.341   1.225  0.6164 -1.1616 -1.4598
44897SOL    HW241807   3.838  10.260   1.173 -0.2203 -0.6630 -0.4165
44898SOL     OW41808  10.990  12.564   1.626 -0.0253 -0.6728  0.2584
44898SOL    HW141809  11.061  12.603   1.576 -0.6835  0.6251  0.2886
44898SOL    HW241810  10.965  12.486   1.577  2.7181 -2.3283  1.2989
44899SOL     OW41811   3.941  10.622   0.465  0.1276 -0.0648  0.0691
44899SOL    HW141812   4.020  10.643   0.417  1.6360 -0.1332  2.3496
44899SOL    HW241813   3.925  10.530   0.448  0.7687 -0.1424 -0.1120
44900SOL     OW41814   1.655  11.443   4.571 -0.1890 -0.2109 -0.0133
44900SOL    HW141815   1.563  11.468   4.578  0.1475  1.4922 -0.8639
44900SOL    HW241816   1.702  11.517   4.611  0.8635  0.0775 -1.6947
44901SOL     OW41817   0.210   5.108  10.961  0.4920 -0.1227 -0.5968
44901SOL    HW141818   0.244   5.019  10.956 -0.8465 -0.7082  0.1128
44901SOL    HW241819   0.171   5.114  11.049 -0.1373  0.9011 -0.9222
44902SOL     OW41820   5.894   6.693   3.369 -0.1126  0.3567 -0.1386
44902SOL    HW141821   5.953   6.736   3.431  0.9040 -0.1161 -0.7633
44902SOL    HW241822   5.922   6.724   3.283 -1.9834  1.5762 -0.3471
44903SOL     OW41823   5.107  12.203   4.514 -0.6511  0.5974  0.4248
44903SOL    HW141824   5.073  12.282   4.471 -4.5405  0.2510  2.4252
44903SOL    HW241825   5.087  12.132   4.453  0.2944  0.8023 -0.1503
44904SOL     OW41826   6.129   4.447   3.819  0.1533  0.5533 -0.0668
44904SOL    HW141827   6.158   4.525   3.865 -0.0789  1.3995 -1.3135
44904SOL    HW241828   6.194   4.434   3.750  0.4855 -0.6789  0.4536
44905SOL     OW41829   9.702   0.929   9.145  0.3399  0.2729  0.2890
44905SOL    HW141830   9.789   0.947   9.111  0.3354  1.7044  0.9414
44905SOL    HW241831   9.716   0.864   9.214  0.5926 -1.0968 -1.0033
44906SOL     OW41832   7.860  10.345   8.793  0.2338 -0.2407  0.6538
44906SOL    HW141833   7.952  10.336   8.818 -0.1609  0.3727  2.5416
44906SOL    HW241834   7.852  10.297   8.711  1.7546 -2.2276  1.5775
44907SOL     OW41835   2.706  12.470   7.613  0.1363  0.0579 -0.7221
44907SOL    HW141836   2.760  12.529   7.560  0.9035 -0.6352 -0.7233
44907SOL    HW241837   2.738  12.482   7.702 -0.8612  0.8965 -0.4480
44908SOL     OW41838  10.040   5.501   7.546 -0.4323  0.3404 -0.0337
44908SOL    HW141839  10.077   5.433   7.602 -0.8439  0.8614  0.8718
44908SOL    HW241840   9.970   5.457   7.497  1.6979 -0.8482 -2.2722
44909SOL     OW41841   3.577  12.137   3.798  0.0269  0.2605 -0.0838
44909SOL    HW141842   3.537  12.079   3.734  0.5168 -0.0340 -0.1268
44909SOL    HW241843   3.585  12.221   3.752  1.6539 -0.3055 -0.9050
44910SOL     OW41844   5.038   0.109   6.487 -0.2674 -0.0846 -0.2098
44910SOL    HW141845   4.998   0.022   6.484  0.5553 -0.4910  0.3027
44910SOL    HW241846   5.129   0.093   6.510 -0.3427  0.9728  0.9283
44911SOL     OW41847   9.415   4.694   0.451 -0.1230  0.3948  0.3660
44911SOL    HW141848   9.334   4.662   0.489 -0.1933 -1.0661 -0.9106
44911SOL    HW241849   9.482   4.680   0.518 -0.7629  0.8492  1.1125
44912SOL     OW41850   6.196  10.638   6.643  0.7054 -0.2678  0.9476
44912SOL    HW141851   6.109  10.618   6.676  0.2559  0.2083  0.0877
44912SOL    HW241852   6.216  10.724   6.680  0.9212 -0.4913  1.3537
44913SOL     OW41853   7.691   7.201   9.940  0.2022  0.2707 -0.0008
44913SOL    HW141854   7.785   7.220   9.944  0.4355 -0.6653 -0.7536
44913SOL    HW241855   7.683   7.112   9.972 -0.3724  0.1655 -0.4242
44914SOL     OW41856  10.936   3.287   2.418 -0.5362  0.0483 -0.3083
44914SOL    HW141857  10.958   3.316   2.506 -0.7789  0.7146 -0.4547
44914SOL    HW241858  11.020   3.266   2.377 -0.3078  0.8842 -0.2981
44915SOL     OW41859   2.995   9.269   1.020  0.2565 -0.0009  0.4453
44915SOL    HW141860   3.030   9.186   0.986  2.5796  0.1683  2.1305
44915SOL    HW241861   3.007   9.331   0.949  2.3374 -0.2606  0.5118
44916SOL     OW41862  11.223   4.044   6.695  0.3967 -0.2784  0.0310
44916SOL    HW141863  11.242   4.126   6.650  0.9771  0.1287  0.9805
44916SOL    HW241864  11.305   3.995   6.693 -0.2302 -1.3405 -1.4840
44917SOL     OW41865  10.427   2.787  11.745 -0.4296 -0.2422  0.1616
44917SOL    HW141866  10.344   2.809  11.787 -1.2047  0.5164 -1.6631
44917SOL    HW241867  10.493   2.835  11.795 -1.3312  0.7686  0.4067
44918SOL     OW41868  12.283   9.729   5.393 -0.8091  0.0860  0.1862
44918SOL    HW141869  12.374   9.720   5.420 -1.2438 -3.0591  1.0725
44918SOL    HW241870  12.283   9.799   5.329  1.7324  2.1003  2.1795
44919SOL     OW41871   3.214   8.770   5.991  0.4557 -0.4007 -0.2489
44919SOL    HW141872   3.285   8.749   5.931 -0.1633  0.0811 -1.1698
44919SOL    HW241873   3.156   8.694   5.989  1.6471 -1.4249  1.6198
44920SOL     OW41874   2.550   8.005   3.517 -0.3780  0.7338 -0.1554
44920SOL    HW141875   2.606   7.992   3.441  0.7315  2.0413  0.3967
44920SOL    HW241876   2.611   8.017   3.590 -1.3637  1.7980  0.5312
44921SOL     OW41877   7.862  12.052   6.552 -0.3169  0.9549 -0.3247
44921SOL    HW141878   7.870  12.114   6.480 -0.4116  2.8321  1.1960
44921SOL    HW241879   7.920  12.086   6.620 -1.1248 -0.0760  0.9325
44922SOL     OW41880   4.783   7.899   7.534 -1.0257 -0.1812 -0.2755
44922SOL    HW141881   4.778   7.893   7.438 -0.5936 -0.0482 -0.3111
44922SOL    HW241882   4.802   7.991   7.551 -0.1818 -0.3745 -0.1131
44923SOL     OW41883   5.450   7.985  10.378  0.0055  0.1429 -0.0460
44923SOL    HW141884   5.414   7.971  10.291 -3.3194  1.3468  1.0075
44923SOL    HW241885   5.430   8.076  10.399 -0.9278 -0.5783  2.6264
44924SOL     OW41886   6.437   8.227   1.388  0.2585  0.5827  0.3128
44924SOL    HW141887   6.510   8.169   1.409  0.1331  0.7049  1.0965
44924SOL    HW241888   6.464   8.270   1.306  0.2568 -0.7184 -0.4062
44925SOL     OW41889  10.294   4.612   1.677  0.1186  0.4799 -0.4102
44925SOL    HW141890  10.320   4.696   1.638  0.3108  0.4797 -0.2836
44925SOL    HW241891  10.251   4.565   1.606 -1.7843  1.4741  0.0147
44926SOL     OW41892   8.740  12.691   4.430  0.4104  0.0395  0.2683
44926SOL    HW141893   8.725  12.671   4.338  1.1176  1.2152 -0.1289
44926SOL    HW241894   8.814  12.636   4.455  1.1733  0.7805 -0.2976
44927SOL     OW41895   2.175   9.439  12.964 -0.2824  0.4766  0.1319
44927SOL    HW141896   2.230   9.414  13.039  2.0428  0.1554 -1.5503
44927SOL    HW241897   2.148   9.356  12.925  1.4778  0.5235 -1.3368
44928SOL     OW41898   3.307   4.745   3.743  0.6792  0.2317 -0.1310
44928SOL    HW141899   3.217   4.714   3.737  0.5258  0.4873  0.7122
44928SOL    HW241900   3.353   4.699   3.673  0.1296 -0.7481  0.1301
44929SOL     OW41901   2.900  12.331   5.192  0.5398  0.2291  0.3294
44929SOL    HW141902   2.880  12.239   5.172 -1.8111  0.4532  1.3250
44929SOL    HW241903   2.980  12.326   5.246  0.5166 -1.2205  0.2814
44930SOL     OW41904   2.032   9.648   5.359  0.0065  0.3960  0.7481
44930SOL    HW141905   2.062   9.724   5.409  1.9013 -1.0789  1.9926
44930SOL    HW241906   2.077   9.574   5.399 -1.3799 -1.3404 -0.7513
44931SOL     OW41907   9.074   1.273   5.023  0.1677  0.3651 -0.4470
44931SOL    HW141908   9.069   1.224   4.941  1.1471  0.8491 -0.8130
44931SOL    HW241909   9.073   1.365   4.996  2.9030  0.5779 -0.1652
44932SOL     OW41910   6.839  12.807  10.884  0.0468 -0.7383 -0.2982
44932SOL    HW141911   6.813  12.890  10.843  1.1975 -0.7558 -1.1148
44932SOL    HW241912   6.885  12.760  10.814 -0.2493 -1.9030  0.2727
44933SOL     OW41913   6.268   4.558   9.795  0.1335 -0.0331 -0.3033
44933SOL    HW141914   6.237   4.483   9.846 -3.4725  0.3966 -1.5550
44933SOL    HW241915   6.240   4.635   9.844  2.5439  0.5984  0.2478
44934SOL     OW41916   7.362   3.058  11.257 -0.5454 -0.1780 -0.1934
44934SOL    HW141917   7.389   3.093  11.342  0.1309  0.4855 -0.6681
44934SOL    HW241918   7.268   3.077  11.251 -0.3019  1.0617 -0.2004
44935SOL     OW41919   9.652   0.787  12.482 -0.5115 -0.3273  0.9595
44935SOL    HW141920   9.738   0.830  12.478 -1.1154  1.0041 -3.3048
44935SOL    HW241921   9.669   0.696  12.459 -0.1570 -0.3415  1.2622
44936SOL     OW41922   9.054   0.990   8.528  0.2246 -0.1356  0.1653
44936SOL    HW141923   9.001   1.046   8.585 -0.5140  0.3445 -0.9545
44936SOL    HW241924   8.989   0.938   8.480  0.8833 -1.5737  0.7854
44937SOL     OW41925   2.420   4.537   6.803 -0.4490  0.3833 -0.1537
44937SOL    HW141926   2.459   4.618   6.772  1.3310 -0.1020  0.6908
44937SOL    HW241927   2.471   4.514   6.882 -3.0183  0.1851  1.5768
44938SOL     OW41928   7.712   7.761  12.287  0.0508 -0.3494  0.1604
44938SOL    HW141929   7.801   7.736  12.313  0.4214  0.3146 -0.4240
44938SOL    HW241930   7.695   7.709  12.209  0.2042  0.0209 -0.1267
44939SOL     OW41931  11.221   8.322   7.023 -0.4586 -0.4601  0.3497
44939SOL    HW141932  11.281   8.394   7.040 -1.1512  0.1079  0.4470
44939SOL    HW241933  11.187   8.299   7.109 -0.9710 -0.2472  0.2079
44940SOL     OW41934   8.619   7.463  10.050 -0.1737  0.2599 -0.2736
44940SOL    HW141935   8.545   7.504  10.005 -0.1429  0.1369 -0.4343
44940SOL    HW241936   8.627   7.376  10.011  0.2499  0.3870 -0.4716
44941SOL     OW41937   1.454   7.702   4.178 -0.4078  1.0669  0.3313
44941SOL    HW141938   1.417   7.690   4.091  1.2384 -0.3489 -0.2306
44941SOL    HW241939   1.530   7.758   4.165 -0.5832  1.4800  0.9999
44942SOL     OW41940   7.440   4.183   8.552 -0.6677 -0.3826  0.0734
44942SOL    HW141941   7.418   4.210   8.642 -3.0953 -0.5643 -0.3811
44942SOL    HW241942   7.442   4.265   8.503 -2.4392 -0.4681 -0.2332
44943SOL     OW41943   8.582   8.500   5.443 -0.0963  0.3509  0.2422
44943SOL    HW141944   8.657   8.551   5.412 -1.6654  2.1603 -0.8232
44943SOL    HW241945   8.559   8.444   5.369  1.5331 -1.9745  1.3589
44944SOL     OW41946  11.814   5.278   8.859  0.5275  0.0680 -0.3215
44944SOL    HW141947  11.846   5.231   8.782  2.3152  3.3446 -1.7901
44944SOL    HW241948  11.833   5.370   8.841 -1.5274  1.3115  2.8835
44945SOL     OW41949   0.892   5.104   0.340  0.2483  0.2629  0.9460
44945SOL    HW141950   0.945   5.149   0.406 -0.6614 -0.6219  2.3487
44945SOL    HW241951   0.910   5.150   0.259  0.4163  2.2591  2.0474
44946SOL     OW41952   5.836   7.428   8.273 -0.1743 -0.1062 -0.2557
44946SOL    HW141953   5.794   7.387   8.197 -0.1399  3.8498 -2.6809
44946SOL    HW241954   5.765   7.476   8.316  0.5496  1.1357 -0.3857
44947SOL     OW41955  12.781  10.268   9.845  0.3457  0.3586  0.2905
44947SOL    HW141956  12.730  10.310   9.776  0.6048 -1.1388 -0.8624
44947SOL    HW241957  12.717  10.225   9.900  0.2131  0.4469  0.2067
44948SOL     OW41958   1.293   4.511  11.851 -0.3013  0.3827  0.7739
44948SOL    HW141959   1.342   4.592  11.836  0.6871 -0.4871 -0.9936
44948SOL    HW241960   1.232   4.507  11.778 -1.7352  0.4788  1.9202
44949SOL     OW41961   0.196   8.298   1.868  0.8205 -0.1118 -0.6618
44949SOL    HW141962   0.278   8.290   1.820  0.7627 -1.1326 -0.6144
44949SOL    HW241963   0.129   8.308   1.801  0.8476 -0.5443 -0.7545
44950SOL     OW41964   9.218  10.607   0.198  0.4290 -0.6493 -0.2828
44950SOL    HW141965   9.278  10.533   0.187  0.3392 -0.4517 -2.4830
44950SOL    HW241966   9.133  10.566   0.212  0.7308 -0.9310  0.8334
44951SOL     OW41967   6.596  12.675   7.551  0.4111 -0.0140  0.4220
44951SOL    HW141968   6.558  12.723   7.477 -0.6127  0.4943  1.2426
44951SOL    HW241969   6.689  12.671   7.532  0.1537 -0.0201 -0.9612
44952SOL     OW41970   9.343  10.058   4.901 -0.2369 -0.2167  0.0855
44952SOL    HW141971   9.320   9.965   4.892 -1.1974  0.1772 -2.3971
44952SOL    HW241972   9.265  10.099   4.936  0.0036 -0.2646  0.6794
44953SOL     OW41973   7.705   9.370   1.996  0.3214 -0.3214 -0.0742
44953SOL    HW141974   7.648   9.434   2.040 -0.5363 -0.3179 -1.1490
44953SOL    HW241975   7.776   9.422   1.959 -1.7352  0.5204 -3.2547
44954SOL     OW41976   3.145  10.370   8.573 -0.0065  0.0985 -0.2471
44954SOL    HW141977   3.173  10.436   8.636 -2.1670  1.0202 -0.1582
44954SOL    HW241978   3.089  10.312   8.623  1.1314 -1.3028 -0.5466
44955SOL     OW41979   7.726  12.804   2.093 -0.0385  0.5915 -0.0965
44955SOL    HW141980   7.706  12.784   2.184  0.7368  1.4705  0.2782
44955SOL    HW241981   7.817  12.778   2.082 -0.0046  0.8732 -0.5047
44956SOL     OW41982  10.086   3.308   9.997 -0.3177  0.6520 -0.0326
44956SOL    HW141983  10.098   3.346  10.084  1.9031 -0.6353  0.2948
44956SOL    HW241984  10.113   3.378   9.936  0.7727  0.6537  0.4349
44957SOL     OW41985   3.096  10.152   8.209 -0.7157 -0.1906  0.0347
44957SOL    HW141986   3.142  10.110   8.136  0.0785  1.2828 -0.3414
44957SOL    HW241987   3.138  10.116   8.287 -0.8796 -1.0024 -0.2340
44958SOL     OW41988   0.498   9.044  12.906 -0.2061  0.5122  0.3106
44958SOL    HW141989   0.406   9.027  12.924 -0.4127  0.1776 -0.9331
44958SOL    HW241990   0.503   9.139  12.893 -0.7027  0.3568 -1.1977
44959SOL     OW41991   5.024   2.216   5.487  0.9851  0.3471  0.2898
44959SOL    HW141992   4.956   2.189   5.550  1.0034  1.1418  0.6614
44959SOL    HW241993   5.104   2.174   5.519  1.1720  1.4240  1.3102
44960SOL     OW41994   9.593   9.364   1.041 -0.2935  0.1043  0.3809
44960SOL    HW141995   9.606   9.332   0.952 -2.0367 -0.8676  0.4318
44960SOL    HW241996   9.657   9.435   1.050 -0.6969  0.8626 -1.9675
44961SOL     OW41997  12.795   1.277   9.952  0.7762 -0.4138 -0.6291
44961SOL    HW141998  12.887   1.305   9.945  0.4922  0.4819 -0.9428
44961SOL    HW241999  12.768   1.260   9.862  0.0605  1.2885 -0.7698
44962SOL     OW42000   6.648  12.420   0.381 -0.2670 -0.5083  0.0727
44962SOL    HW142001   6.556  12.394   0.389 -0.0494 -1.6448 -0.7701
44962SOL    HW242002   6.693  12.374   0.452 -0.4618  0.7017  0.9946
44963SOL     OW42003   6.646   5.757   3.775  0.7108 -0.7177  0.1799
44963SOL    HW142004   6.564   5.709   3.788 -1.0792  1.0852 -2.9959
44963SOL    HW242005   6.670   5.788   3.862 -2.4770 -0.6730  1.1786
44964SOL     OW42006   3.821   4.109   6.271 -0.1495 -0.7884 -0.9685
44964SOL    HW142007   3.913   4.133   6.279 -0.7611  1.0109  3.6053
44964SOL    HW242008   3.822   4.013   6.272  1.7250 -0.8598  1.3636
44965SOL     OW42009   6.082   0.705   6.912  0.0262 -0.2495  0.3501
44965SOL    HW142010   5.989   0.712   6.935  0.1435  0.1295  0.7252
44965SOL    HW242011   6.124   0.680   6.995  0.2796 -0.2667  0.2148
44966SOL     OW42012   0.261   5.424   1.554  0.2952  0.1186 -0.2619
44966SOL    HW142013   0.254   5.420   1.459  0.0108 -1.2662 -0.1980
44966SOL    HW242014   0.339   5.478   1.570  0.8295 -0.3264 -1.2946
44967SOL     OW42015  11.425   1.320   1.651  0.0698  0.1411  0.2709
44967SOL    HW142016  11.504   1.287   1.608  1.1535 -0.0932  2.3190
44967SOL    HW242017  11.430   1.415   1.640  1.0566  0.1902  1.0177
44968SOL     OW42018   2.690  10.285   4.585  0.2557  0.0038 -0.2398
44968SOL    HW142019   2.783  10.290   4.566  0.3234 -1.6929 -0.5236
44968SOL    HW242020   2.647  10.309   4.504  0.4696 -0.4726 -0.4985
44969SOL     OW42021   4.008  10.551  11.799  0.0300 -0.1478 -0.3234
44969SOL    HW142022   4.021  10.553  11.894  0.6652  1.2755 -0.3992
44969SOL    HW242023   3.922  10.512  11.787 -0.2745  0.1001  0.8792
44970SOL     OW42024   5.862   1.350   6.331  0.3860  0.2739 -0.5300
44970SOL    HW142025   5.832   1.319   6.246 -1.7795  1.4327 -0.2437
44970SOL    HW242026   5.798   1.415   6.357  1.2837  0.3229  1.7769
44971SOL     OW42027   1.128   5.114   6.254  0.2649  0.3006  0.7220
44971SOL    HW142028   1.050   5.122   6.309  0.4508 -0.2504  1.0776
44971SOL    HW242029   1.183   5.188   6.278 -0.0433  0.5565  0.6429
44972SOL     OW42030   3.092   6.032   0.830 -0.2244  0.3840 -0.0372
44972SOL    HW142031   3.175   5.991   0.807 -0.1641 -0.7268  2.0372
44972SOL    HW242032   3.051   6.051   0.745  1.1866 -0.9852 -1.0750
44973SOL     OW42033  11.496   5.644   8.114  0.1288 -0.1164 -0.0099
44973SOL    HW142034  11.507   5.720   8.170 -0.2336 -1.3335  1.8219
44973SOL    HW242035  11.581   5.633   8.071  1.0247 -0.1614  1.6915
44974SOL     OW42036   0.593   0.208   0.297  0.0695 -0.3588 -0.6283
44974SOL    HW142037   0.664   0.183   0.238  0.5393  0.3775 -0.3951
44974SOL    HW242038   0.625   0.287   0.340 -1.0168  0.1408 -0.7191
44975SOL     OW42039   9.610   6.633   7.638  1.0570  0.1319 -0.6015
44975SOL    HW142040   9.632   6.698   7.571  2.1547 -0.6415 -1.0209
44975SOL    HW242041   9.660   6.556   7.614 -0.2589 -0.8998 -0.1202
44976SOL     OW42042   9.585   9.597   1.563  0.1786  0.1685 -0.6544
44976SOL    HW142043   9.505   9.616   1.514  1.1334  0.0555 -2.3412
44976SOL    HW242044   9.613   9.682   1.597 -0.8036  0.1591  0.2397
44977SOL     OW42045   3.396   2.115   6.762 -0.6418 -0.0063 -0.4011
44977SOL    HW142046   3.397   2.166   6.681 -2.9092 -1.3806 -1.3779
44977SOL    HW242047   3.351   2.034   6.739 -0.0430 -1.0646  1.9027
44978SOL     OW42048   7.066   8.445   1.764  0.3628 -0.1416 -0.3792
44978SOL    HW142049   7.004   8.517   1.759  0.0918 -0.3762 -0.4013
44978SOL    HW242050   7.023   8.373   1.718  0.5615 -0.3672 -0.2161
44979SOL     OW42051   0.762   0.189   3.974 -0.6113  0.7866  0.3642
44979SOL    HW142052   0.767   0.109   4.027  0.2857  1.3229  1.1370
44979SOL    HW242053   0.679   0.182   3.927 -1.6622  0.4752  2.1690
44980SOL     OW42054   6.560   1.696  10.763 -0.1866  0.3691  0.0450
44980SOL    HW142055   6.640   1.720  10.716  0.4664 -0.5671  0.6575
44980SOL    HW242056   6.589   1.640  10.834 -1.4252 -0.3161  0.0450
44981SOL     OW42057  12.426   3.046   7.037 -0.3542 -0.5804 -0.2044
44981SOL    HW142058  12.370   3.121   7.019 -0.2894  0.4755  3.2360
44981SOL    HW242059  12.512   3.073   7.005 -0.3764  0.8109  0.7800
44982SOL     OW42060  11.318   6.908   9.040  0.2376 -0.4959  0.2238
44982SOL    HW142061  11.321   6.828   8.989  0.7238  0.0542 -0.6376
44982SOL    HW242062  11.263   6.967   8.989 -1.0672 -0.6337  1.4050
44983SOL     OW42063   7.817   8.006   3.866 -0.1165  0.1743 -0.2477
44983SOL    HW142064   7.752   7.940   3.843  0.0051 -0.2404  0.5667
44983SOL    HW242065   7.770   8.068   3.922  0.3626 -0.5848  1.0508
44984SOL     OW42066  10.630   9.768   8.099  0.8486  0.0542  0.3782
44984SOL    HW142067  10.690   9.731   8.034  0.6467  0.8154 -0.2560
44984SOL    HW242068  10.687   9.795   8.171  1.0175 -1.3295  0.8047
44985SOL     OW42069   4.044   9.785   4.318 -0.4316 -0.1775 -1.2695
44985SOL    HW142070   4.107   9.792   4.247 -0.7913 -0.5713 -1.6338
44985SOL    HW242071   3.974   9.846   4.294  0.9189  2.1561  0.3542
44986SOL     OW42072   9.510  10.967   8.985  0.6362  0.1455  0.3761
44986SOL    HW142073   9.453  11.004   8.918 -0.5575  0.0399  1.3139
44986SOL    HW242074   9.591  10.946   8.938 -0.0322  0.4307 -0.9459
44987SOL     OW42075   8.591   2.253   1.764  0.6877  0.4657  0.0782
44987SOL    HW142076   8.565   2.313   1.694  0.7920  0.2787 -0.1244
44987SOL    HW242077   8.667   2.206   1.728 -0.4489 -1.0546 -0.4598
44988SOL     OW42078   3.370   7.614   4.725 -0.1427  0.0005  0.5798
44988SOL    HW142079   3.407   7.578   4.806  2.7559  0.0722 -0.6098
44988SOL    HW242080   3.397   7.706   4.725 -0.3470  0.0638 -0.3329
44989SOL     OW42081  10.877   5.171   9.436 -0.0605  0.4180 -0.0255
44989SOL    HW142082  10.966   5.146   9.462  0.0551  0.7045 -0.1394
44989SOL    HW242083  10.890   5.232   9.363 -0.3290  0.8949  0.3217
44990SOL     OW42084   6.918   5.970   8.228  0.0446  0.3830 -0.3384
44990SOL    HW142085   6.950   5.903   8.288  1.2832  1.3139  0.0842
44990SOL    HW242086   6.823   5.970   8.239  0.2297  0.4396  1.5351
44991SOL     OW42087  12.248  12.252   9.084  0.3902  0.5449 -0.0227
44991SOL    HW142088  12.264  12.337   9.042  1.2506  0.2121 -0.4034
44991SOL    HW242089  12.154  12.249   9.097  0.2543  1.2229 -0.7555
44992SOL     OW42090   9.646   4.858   4.693 -0.4657  0.1116  0.1813
44992SOL    HW142091   9.614   4.939   4.733  0.0456 -0.3006  1.4794
44992SOL    HW242092   9.717   4.829   4.751 -1.3000 -1.7883  0.3324
44993SOL     OW42093   2.091   8.462   9.109 -0.3320 -0.4112  0.1950
44993SOL    HW142094   2.137   8.440   9.190  0.3559 -0.8566 -0.3170
44993SOL    HW242095   2.091   8.558   9.108  0.4001 -0.4024  0.3073
44994SOL     OW42096   7.257  12.212   6.617  0.2247 -0.2790 -0.4799
44994SOL    HW142097   7.303  12.270   6.678  0.2382 -1.2566  0.4806
44994SOL    HW242098   7.166  12.241   6.619 -0.1022 -1.2820  1.2764
44995SOL     OW42099   3.668   6.575   8.660  0.2046 -0.0943  0.4517
44995SOL    HW142100   3.582   6.614   8.679  0.1260  0.7692 -1.5090
44995SOL    HW242101   3.649   6.500   8.604  0.7449  0.3203 -0.2991
44996SOL     OW42102  10.337   3.104   0.153 -0.0034  0.1516 -0.2744
44996SOL    HW142103  10.347   3.163   0.228  0.9864 -0.2087 -0.1084
44996SOL    HW242104  10.383   3.149   0.081 -2.5748  1.4391 -1.2597
44997SOL     OW42105   2.820   1.167   8.889 -0.0076  0.4266 -0.7845
44997SOL    HW142106   2.794   1.242   8.943 -0.9055 -0.1444 -0.3949
44997SOL    HW242107   2.916   1.172   8.885 -0.0167  1.2323 -0.2436
44998SOL     OW42108   0.979  11.232   8.098 -0.5584 -0.1255  0.1069
44998SOL    HW142109   0.972  11.161   8.034 -1.8645 -0.7822  0.9318
44998SOL    HW242110   0.986  11.312   8.045  0.3021 -0.8104 -0.8335
44999SOL     OW42111   5.668   8.391   2.384  0.2327  0.1264 -0.5589
44999SOL    HW142112   5.695   8.482   2.399  0.3204 -0.1431  1.1449
44999SOL    HW242113   5.729   8.339   2.436 -0.7476 -0.8097 -0.3103
45000SOL     OW42114   3.753   9.956  12.037 -0.5072 -0.0424  0.3667
45000SOL    HW142115   3.708   9.967  11.953  0.2621  1.8895  0.1443
45000SOL    HW242116   3.711  10.020  12.095  0.0954 -0.1609  0.9493
45001SOL     OW42117   0.147  12.129   9.298  0.1487  0.3298  0.6238
45001SOL    HW142118   0.164  12.182   9.376 -0.8819 -0.0219  1.1015
45001SOL    HW242119   0.056  12.102   9.307  0.2084 -0.2408 -0.3941
45002SOL     OW42120   3.459  11.119   9.417 -0.2271  0.0363  0.1724
45002SOL    HW142121   3.476  11.044   9.473  3.1187  0.3517 -0.2169
45002SOL    HW242122   3.479  11.088   9.328 -0.2377  0.9888 -0.1770
45003SOL     OW42123   7.435   0.845  12.531 -0.6964  0.2401 -0.2398
45003SOL    HW142124   7.513   0.887  12.568  1.1177 -1.2134 -2.2384
45003SOL    HW242125   7.383   0.821  12.608  1.9311 -0.8563  1.3461
45004SOL     OW42126   3.394   0.134   0.490 -0.3885  0.5094 -0.8351
45004SOL    HW142127   3.324   0.072   0.508  0.4183 -0.4767 -1.0348
45004SOL    HW242128   3.402   0.185   0.571 -0.0624 -0.6440 -0.1159
45005SOL     OW42129   4.941  12.430   4.021 -0.3682  0.0214  0.4583
45005SOL    HW142130   4.988  12.391   3.948  0.1113  0.3551  0.5811
45005SOL    HW242131   5.006  12.484   4.066 -0.8928  0.5820  0.5721
45006SOL     OW42132   4.208   4.605   2.566 -0.1997 -0.0389 -0.0502
45006SOL    HW142133   4.294   4.583   2.603 -0.1035  1.7762  0.9256
45006SOL    HW242134   4.153   4.531   2.590  0.9672 -1.0148 -0.2664
45007SOL     OW42135   7.838  10.220   2.767  0.3554  0.0211  0.3297
45007SOL    HW142136   7.929  10.193   2.768 -0.0072 -1.2858  1.9845
45007SOL    HW242137   7.820  10.250   2.856 -0.8884  0.0598  0.0941
45008SOL     OW42138  10.461   9.713   2.629 -0.0732 -0.0779 -0.1175
45008SOL    HW142139  10.389   9.752   2.678  0.2116 -0.1422  0.3640
45008SOL    HW242140  10.420   9.645   2.575 -0.2390 -0.8180  0.9257
45009SOL     OW42141   7.127   1.299   1.107 -0.6506  0.1721  0.7936
45009SOL    HW142142   7.218   1.301   1.076 -0.7638  0.0600  0.4431
45009SOL    HW242143   7.127   1.351   1.187  0.0253 -1.0725  1.6204
45010SOL     OW42144   4.363   3.571   6.760  0.4783 -0.7871  0.3211
45010SOL    HW142145   4.283   3.539   6.800  0.0159 -1.6034 -1.1943
45010SOL    HW242146   4.343   3.661   6.733  0.5529 -0.4952  1.2200
45011SOL     OW42147   8.851  12.243   0.984 -0.1635 -0.0731 -0.4703
45011SOL    HW142148   8.797  12.299   1.040 -1.3049 -1.6014  0.0025
45011SOL    HW242149   8.860  12.293   0.902 -2.2442  0.2529 -0.5442
45012SOL     OW42150   5.663   5.402  11.324 -0.6584  0.5683  0.2900
45012SOL    HW142151   5.720   5.338  11.280 -1.5292  0.7946 -1.2436
45012SOL    HW242152   5.723   5.470  11.353  0.4847 -1.4302  3.0956
45013SOL     OW42153   7.751   0.965   5.001  0.1509  0.4274 -0.3133
45013SOL    HW142154   7.822   0.928   5.054  0.6223  0.3663 -0.9802
45013SOL    HW242155   7.773   1.058   4.994  0.2129  0.3898 -0.6022
45014SOL     OW42156  12.789   9.465   8.172  0.1077 -0.1479 -0.0098
45014SOL    HW142157  12.850   9.535   8.194  0.0187  0.4762 -1.5964
45014SOL    HW242158  12.703   9.501   8.192  0.0178  0.4620 -1.3434
45015SOL     OW42159  11.353  10.252   5.102  0.0380  0.5225 -0.2983
45015SOL    HW142160  11.440  10.229   5.072  1.1193  1.7549  1.7008
45015SOL    HW242161  11.361  10.342   5.133 -2.1725  0.9695 -0.8286
45016SOL     OW42162   0.819  10.202  10.033 -0.0743 -0.3007 -0.1024
45016SOL    HW142163   0.742  10.190   9.978 -1.5127  0.9146  1.5498
45016SOL    HW242164   0.877  10.257   9.981 -0.6903 -0.4902 -1.0231
45017SOL     OW42165   5.651   9.183  12.641  0.0489  0.5018 -0.2338
45017SOL    HW142166   5.649   9.192  12.545  1.6400 -1.6416 -0.5315
45017SOL    HW242167   5.666   9.273  12.672 -2.9923  1.6983 -1.7744
45018SOL     OW42168  11.223   0.599   1.413  0.1116 -0.6095 -0.0244
45018SOL    HW142169  11.245   0.539   1.341 -1.6439 -3.1690  1.3740
45018SOL    HW242170  11.187   0.541   1.481  1.5300  1.6750  2.8898
45019SOL     OW42171   2.682   0.680   2.499 -0.1329  0.4207 -0.0653
45019SOL    HW142172   2.652   0.771   2.502 -1.6551 -0.0683  0.8100
45019SOL    HW242173   2.746   0.673   2.570 -0.6002  0.6356  0.3839
45020SOL     OW42174   9.554   8.141   9.161 -0.3527 -0.0019  0.1533
45020SOL    HW142175   9.509   8.095   9.231 -0.0270 -1.2339 -0.4162
45020SOL    HW242176   9.601   8.072   9.113  1.4366  1.1030  0.2019
45021SOL     OW42177   7.143   1.337  11.155 -0.1376  0.4212  0.1553
45021SOL    HW142178   7.145   1.252  11.111 -2.1835 -1.5342  3.4955
45021SOL    HW242179   7.054   1.369  11.141  0.0172  1.0672  0.6271
45022SOL     OW42180  12.877   0.398   1.752 -0.6528 -0.5969 -0.3832
45022SOL    HW142181  12.782   0.390   1.748 -0.6571 -0.2127 -1.0274
45022SOL    HW242182  12.902   0.438   1.669 -0.0268  0.3199  0.2376
45023SOL     OW42183  11.613   2.573  10.417  0.0518  0.1872 -0.2613
45023SOL    HW142184  11.637   2.648  10.362  0.8089 -0.0920 -0.3253
45023SOL    HW242185  11.576   2.510  10.355 -0.1062  0.2974 -0.2818
45024SOL     OW42186   7.442   3.738   7.489  0.2426 -0.1381 -0.2211
45024SOL    HW142187   7.425   3.810   7.430  0.3455 -0.0998 -0.2042
45024SOL    HW242188   7.386   3.667   7.457 -0.6075  0.2500  0.3487
45025SOL     OW42189   8.949   1.887   3.304  0.3302 -0.1303 -0.0666
45025SOL    HW142190   9.044   1.876   3.305  0.2441 -0.8713  1.5999
45025SOL    HW242191   8.915   1.800   3.286 -0.0626  0.2960 -1.6050
45026SOL     OW42192   4.297  10.301   4.139  0.2905  0.6013 -0.4578
45026SOL    HW142193   4.331  10.390   4.147 -1.0871  1.1753 -0.6895
45026SOL    HW242194   4.348  10.249   4.201  1.8806  1.3085 -1.1214
45027SOL     OW42195  10.558   7.683  10.382 -0.2976  0.5102  0.0780
45027SOL    HW142196  10.650   7.660  10.370 -0.2696  0.2781  0.6958
45027SOL    HW242197  10.558   7.778  10.388 -0.3725  0.6875 -2.1688
45028SOL     OW42198   7.163   1.305   6.454 -0.1707  0.1841  0.7419
45028SOL    HW142199   7.187   1.237   6.391 -0.9988  0.1694  0.4377
45028SOL    HW242200   7.221   1.379   6.433  0.0895 -0.0919  0.4731
45029SOL     OW42201   4.248   9.805  12.563 -0.1055  0.3083  0.1366
45029SOL    HW142202   4.272   9.844  12.479  0.1392 -2.7341 -1.3317
45029SOL    HW242203   4.332   9.787  12.606 -0.0830 -0.8545 -0.3533
45030SOL     OW42204   4.891  10.169  11.924  0.4145  0.1616 -0.0857
45030SOL    HW142205   4.886  10.251  11.974  0.4547  0.8972 -1.2437
45030SOL    HW242206   4.811  10.168  11.872  0.7155 -0.2142 -0.5526
45031SOL     OW42207   2.799   3.305   3.940 -0.1409 -0.3752 -0.2453
45031SOL    HW142208   2.717   3.299   3.989 -0.3778  0.3050 -0.5437
45031SOL    HW242209   2.801   3.225   3.887  0.1725 -1.1662  0.9303
45032SOL     OW42210   9.998  11.015   0.913  0.6874  0.5695 -0.1213
45032SOL    HW142211  10.008  11.028   1.007 -0.0540 -0.0788  0.0559
45032SOL    HW242212   9.908  11.041   0.894  1.0251  1.3126 -0.7729
45033SOL     OW42213   7.754   9.356   4.282  0.1725  0.3736  0.7532
45033SOL    HW142214   7.715   9.442   4.291  0.5657  0.7178 -0.6258
45033SOL    HW242215   7.728   9.326   4.195  1.7872  0.0319  0.3466
45034SOL     OW42216   5.257  12.128   3.862  0.0976 -0.3803  0.2597
45034SOL    HW142217   5.344  12.146   3.899 -0.9047  0.1995  2.4806
45034SOL    HW242218   5.262  12.162   3.773  2.3814 -1.0711  0.0567
45035SOL     OW42219   0.325  12.620  11.792  0.0357  0.4057  0.3013
45035SOL    HW142220   0.360  12.572  11.717  0.2025 -1.2257  1.3871
45035SOL    HW242221   0.230  12.610  11.785 -0.0317  1.2638 -0.3044
45036SOL     OW42222   0.074   9.650  12.619 -0.2419 -0.5188  0.1599
45036SOL    HW142223   0.000   9.643  12.558 -1.2330 -0.4662  1.3240
45036SOL    HW242224   0.107   9.561  12.627  0.4965 -0.3873 -1.1494
45037SOL     OW42225   1.548  11.048   8.747  0.1553  0.2425 -0.1977
45037SOL    HW142226   1.549  11.111   8.675 -2.1891 -2.4769 -2.8846
45037SOL    HW242227   1.548  11.102   8.826  4.7094  3.4003 -1.9487
45038SOL     OW42228  11.201   4.511   0.541 -0.0782  0.6339 -0.0094
45038SOL    HW142229  11.289   4.475   0.533 -0.6056 -0.8886  0.7910
45038SOL    HW242230  11.215   4.603   0.566  1.2703  0.5041 -0.2444
45039SOL     OW42231   4.980  11.027  12.512 -0.2344  0.1156 -0.0246
45039SOL    HW142232   4.917  10.994  12.576 -0.2776  2.1178  1.0349
45039SOL    HW242233   4.925  11.069  12.445 -0.1104 -0.4229 -0.4727
45040SOL     OW42234   1.566   9.052   7.343 -0.4764  0.6112  0.1110
45040SOL    HW142235   1.547   9.137   7.382 -0.0182  0.4977  0.6002
45040SOL    HW242236   1.627   9.070   7.272  1.8512  0.4453  1.9518
45041SOL     OW42237  11.841   4.421   7.231  0.4424 -0.2286  0.6270
45041SOL    HW142238  11.871   4.389   7.316 -0.2903  1.0875  1.3986
45041SOL    HW242239  11.908   4.484   7.204  0.8232 -0.8519  0.0695
45042SOL     OW42240   3.655   9.984   2.711 -0.4927 -0.5475  0.0050
45042SOL    HW142241   3.699   9.905   2.743 -1.4569 -0.8049  0.7437
45042SOL    HW242242   3.679   9.989   2.619 -1.2402 -2.2947 -0.3173
45043SOL     OW42243  10.350   0.083   8.080  0.0108  0.4610  0.0547
45043SOL    HW142244  10.332   0.041   8.164 -0.3412 -1.0103 -0.7171
45043SOL    HW242245  10.420   0.031   8.041 -1.9694 -0.9604 -1.9212
45044SOL     OW42246  10.828   3.353   4.990  0.5729  0.2717  0.3906
45044SOL    HW142247  10.791   3.277   5.034  1.0865  0.7753  1.7473
45044SOL    HW242248  10.832   3.421   5.058  2.5624  0.6954 -0.0647
45045SOL     OW42249  12.616   6.506   2.876  0.1218 -0.1848  0.1037
45045SOL    HW142250  12.571   6.574   2.826  0.9865 -0.7644 -1.5479
45045SOL    HW242251  12.686   6.553   2.922 -0.9160  0.4152  1.1164
45046SOL     OW42252   6.175   2.438   7.137 -0.4739 -0.9223  0.2838
45046SOL    HW142253   6.239   2.389   7.085  0.2279 -0.6211  0.8467
45046SOL    HW242254   6.214   2.525   7.147 -1.3900 -0.4519 -0.1223
45047SOL     OW42255   4.202   0.701   6.478 -0.0465  0.3731 -0.1775
45047SOL    HW142256   4.272   0.718   6.541  0.0794  1.2896 -0.5391
45047SOL    HW242257   4.223   0.616   6.440  1.1325  0.8379 -0.6043
45048SOL     OW42258   8.785  12.391   8.741 -0.3952 -0.3760 -0.2864
45048SOL    HW142259   8.689  12.395   8.741 -0.4408 -0.6535  1.5979
45048SOL    HW242260   8.806  12.309   8.786  0.7258 -0.0125 -0.1089
45049SOL     OW42261   4.222  11.304   4.897 -0.6230 -0.5625  0.3763
45049SOL    HW142262   4.251  11.386   4.855  0.8293 -1.4439 -0.4587
45049SOL    HW242263   4.266  11.235   4.846 -3.4918 -2.0171 -0.3242
45050SOL     OW42264   2.892   9.787   0.016  0.2396  0.8585 -0.6503
45050SOL    HW142265   2.819   9.726   0.021  0.8951  0.0079 -1.1575
45050SOL    HW242266   2.853   9.873   0.029 -0.9504  0.4858 -1.6065
45051SOL     OW42267  10.149   7.511   0.150  0.1782 -0.1177  0.1457
45051SOL    HW142268  10.077   7.572   0.167 -1.1809 -1.2793 -1.1642
45051SOL    HW242269  10.169   7.475   0.236  0.1254  1.1982  0.7433
45052SOL     OW42270   1.413  12.022   3.499  0.1711 -0.1438 -0.0674
45052SOL    HW142271   1.361  12.041   3.421 -0.5229  1.8942  0.8136
45052SOL    HW242272   1.503  12.037   3.471  0.0160 -0.4240 -0.7398
45053SOL     OW42273   4.228   1.594   1.226  0.3262  0.6971  0.8631
45053SOL    HW142274   4.220   1.586   1.322  0.3711 -0.1551  0.8039
45053SOL    HW242275   4.139   1.611   1.196 -0.3285 -2.1724  0.8025
45054SOL     OW42276   7.809   0.445   8.995 -0.5357 -0.3244 -0.1877
45054SOL    HW142277   7.899   0.415   8.998 -0.0767  1.0496  1.2878
45054SOL    HW242278   7.759   0.371   8.961  0.7788 -2.0565  1.5063
45055SOL     OW42279   1.160   0.210  10.391 -0.2965 -0.1394  0.4249
45055SOL    HW142280   1.145   0.288  10.337  0.6630 -0.4256 -0.2737
45055SOL    HW242281   1.182   0.141  10.328  0.6742 -0.5252  1.1692
45056SOL     OW42282   8.513   4.144  10.268  0.2015  0.7761  0.2515
45056SOL    HW142283   8.571   4.068  10.275 -0.5841  0.0903 -0.5253
45056SOL    HW242284   8.538   4.187  10.186 -1.7334 -0.7231 -1.2206
45057SOL     OW42285   9.776   6.436   2.469  0.0225 -0.7564 -0.3426
45057SOL    HW142286   9.829   6.412   2.545  2.6694 -1.0556 -2.1317
45057SOL    HW242287   9.757   6.352   2.425 -0.0015 -0.4654 -0.9049
45058SOL     OW42288   4.874  10.318   4.710  0.7313  0.1249  0.1951
45058SOL    HW142289   4.964  10.290   4.693  0.9866  0.1602  1.3524
45058SOL    HW242290   4.883  10.409   4.740  0.4345 -0.1725  1.2568
45059SOL     OW42291   5.496   4.962  10.823 -0.0822 -0.1587 -0.3078
45059SOL    HW142292   5.444   4.892  10.863 -0.5889  1.1596  1.4452
45059SOL    HW242293   5.534   4.921  10.745 -1.1917 -2.0762  0.0816
45060SOL     OW42294  10.016   0.170   0.045  0.1209 -0.2986  0.0327
45060SOL    HW142295   9.952   0.128   0.102  1.2970 -0.3874  1.3465
45060SOL    HW242296  10.055   0.098  -0.004 -1.4479 -0.1484 -1.5730
45061SOL     OW42297   2.672  10.129   7.306  0.2370  0.2085  0.4621
45061SOL    HW142298   2.694  10.220   7.289 -0.9108  0.2490 -1.0719
45061SOL    HW242299   2.674  10.120   7.401 -0.6117  2.1017  0.6968
45062SOL     OW42300  12.320  10.216   5.199  0.2232 -0.8341 -0.1023
45062SOL    HW142301  12.266  10.234   5.275 -0.2148 -0.1870 -0.5577
45062SOL    HW242302  12.258  10.208   5.126  0.7423  0.1390 -0.6709
45063SOL     OW42303   7.272   1.006   7.154 -0.3068 -0.2017  0.0617
45063SOL    HW142304   7.356   0.977   7.118 -1.0434 -1.9150 -0.3765
45063SOL    HW242305   7.239   1.068   7.089  0.8071  0.8784  0.4762
45064SOL     OW42306   3.731   4.366   0.793 -0.1662 -0.6149 -0.3653
45064SOL    HW142307   3.692   4.355   0.706 -1.4832 -0.7684  0.2321
45064SOL    HW242308   3.682   4.439   0.832  1.0430  0.0792 -0.0828
45065SOL     OW42309   2.667  12.129   7.880  0.1284 -0.1765  0.2544
45065SOL    HW142310   2.646  12.199   7.942 -2.5576  0.2860 -1.0634
45065SOL    HW242311   2.606  12.058   7.901 -0.9460  0.0358 -1.8612
45066SOL     OW42312   7.359   6.102   7.692 -0.3474  0.5405 -0.2992
45066SOL    HW142313   7.300   6.037   7.732  1.0464 -0.3107  0.4255
45066SOL    HW242314   7.303   6.179   7.678 -1.9556 -0.6704 -0.8477
45067SOL     OW42315   4.016   8.366   2.325  0.4399 -0.1619 -0.7819
45067SOL    HW142316   3.935   8.358   2.276 -0.4635 -0.2054  0.6700
45067SOL    HW242317   4.030   8.460   2.334 -0.5531 -0.1058  0.6429
45068SOL     OW42318  10.563   5.365   7.573 -0.2721 -0.4349  0.2601
45068SOL    HW142319  10.474   5.357   7.538 -0.3378 -2.1060  0.7356
45068SOL    HW242320  10.568   5.456   7.603 -1.5966 -0.1299 -0.3477
45069SOL     OW42321   2.659  10.110   6.406  0.8991  0.0205 -0.2734
45069SOL    HW142322   2.723  10.069   6.347  0.5100  0.0433 -0.7129
45069SOL    HW242323   2.650  10.048   6.478  1.4622  0.0438 -0.1731
45070SOL     OW42324  10.253   1.390   7.546 -0.0081 -0.4248  0.6535
45070SOL    HW142325  10.281   1.446   7.618  1.0458 -1.4309  1.0524
45070SOL    HW242326  10.157   1.389   7.552  0.0006  0.6074  1.1730
45071SOL     OW42327   9.938   8.129   7.594  0.3255 -0.2298 -0.1307
45071SOL    HW142328   9.921   8.109   7.686 -0.9646 -0.4436 -0.3964
45071SOL    HW242329   9.855   8.111   7.550  0.7241  0.5222 -1.2330
45072SOL     OW42330   2.587   9.671  11.616  0.5559  0.4528 -0.0972
45072SOL    HW142331   2.591   9.576  11.616  0.1016  0.4099  1.3810
45072SOL    HW242332   2.564   9.694  11.525  0.6979 -0.8289 -0.4737
45073SOL     OW42333   8.074   5.611   7.129  0.3340 -0.1892  0.0754
45073SOL    HW142334   8.073   5.610   7.225  0.4576 -1.0196  0.0758
45073SOL    HW242335   8.118   5.530   7.105  0.1536 -0.0647 -0.6920
45074SOL     OW42336   4.244   1.821   7.430  0.3977  0.1236  0.0679
45074SOL    HW142337   4.266   1.830   7.523 -0.4080  0.2863  0.2504
45074SOL    HW242338   4.272   1.732   7.408  2.2112  0.6764 -0.0035
45075SOL     OW42339   3.739   1.225   0.262 -0.2622 -0.1736 -0.3921
45075SOL    HW142340   3.718   1.291   0.196  1.1756  0.2820 -0.4259
45075SOL    HW242341   3.826   1.249   0.293 -1.4586  0.5479  2.8008
45076SOL     OW42342   0.232   7.661   3.615 -0.6899  0.0635  0.4203
45076SOL    HW142343   0.296   7.615   3.670 -1.5143 -0.7440  0.7347
45076SOL    HW242344   0.273   7.746   3.597  1.3059 -1.1021 -0.9644
45077SOL     OW42345  12.144   5.636   4.041  0.5091 -0.0278  0.3400
45077SOL    HW142346  12.122   5.544   4.025  0.6718 -0.2455  1.2791
45077SOL    HW242347  12.211   5.656   3.976 -0.6860 -0.0813 -0.9389
45078SOL     OW42348   8.398  11.019   4.144 -0.4757 -0.6460 -0.2791
45078SOL    HW142349   8.460  10.971   4.089  1.9714 -1.6281  2.9740
45078SOL    HW242350   8.409  11.111   4.119  0.9970 -0.9966 -0.9951
45079SOL     OW42351  10.409   2.277   2.006  0.0566 -0.0623 -0.1832
45079SOL    HW142352  10.437   2.332   2.079  1.2412  0.6384 -1.1097
45079SOL    HW242353  10.400   2.189   2.043 -2.1639  0.7613  1.3924
45080SOL     OW42354   5.313   7.080   3.623 -0.3873  0.6715 -0.4647
45080SOL    HW142355   5.390   7.039   3.662 -0.8952  1.2369  1.2082
45080SOL    HW242356   5.262   7.007   3.588 -1.2669 -0.2234  2.4399
45081SOL     OW42357  11.347   8.947   7.986 -0.0380  0.6810 -0.2052
45081SOL    HW142358  11.402   8.915   7.915  1.3979  0.5666  0.9219
45081SOL    HW242359  11.350   9.042   7.980  1.2387  0.7046  0.5241
45082SOL     OW42360  11.809  11.358  11.782  0.4151  0.0819  0.3239
45082SOL    HW142361  11.744  11.361  11.852  0.9651  0.1846  0.8408
45082SOL    HW242362  11.830  11.450  11.764  0.8376  0.0361  0.5642
45083SOL     OW42363   2.298  12.868  11.026 -0.3192 -0.1188 -0.7450
45083SOL    HW142364   2.343  12.789  11.057  0.2602 -0.1466 -1.6080
45083SOL    HW242365   2.261  12.907  11.105  1.0735 -0.2041 -0.0065
45084SOL     OW42366   1.068   8.957   0.023 -0.6400 -0.2534 -0.5009
45084SOL    HW142367   0.992   9.010   0.000 -0.8380 -0.5984 -0.6399
45084SOL    HW242368   1.073   8.962   0.119 -1.7426 -1.4615 -0.3539
45085SOL     OW42369   1.474   6.567   6.834 -0.2949  0.0894 -0.1118
45085SOL    HW142370   1.546   6.605   6.884 -0.4213 -0.4389  0.4715
45085SOL    HW242371   1.495   6.588   6.743  0.3975  0.2712  0.0852
45086SOL     OW42372   8.672   3.074   3.501  0.1065 -0.0934 -0.2994
45086SOL    HW142373   8.603   3.083   3.566 -1.3782 -2.7074 -1.3790
45086SOL    HW242374   8.657   3.146   3.439 -3.0763 -1.7389 -1.6463
45087SOL     OW42375   9.682   5.294   3.963  0.3829 -1.3853 -0.0598
45087SOL    HW142376   9.679   5.349   4.041 -0.9959 -1.3877 -0.0923
45087SOL    HW242377   9.753   5.232   3.980  0.2191 -1.2687  1.1119
45088SOL     OW42378   8.206   1.898  12.391  0.2000  0.5971  0.5667
45088SOL    HW142379   8.199   1.803  12.378  1.0236  0.4777  0.9187
45088SOL    HW242380   8.124   1.933  12.356  0.2934 -0.1476 -0.4632
45089SOL     OW42381   3.712   4.283   6.076 -0.3525 -0.4362  0.1601
45089SOL    HW142382   3.760   4.224   6.135  0.8533 -1.8856 -2.1098
45089SOL    HW242383   3.633   4.305   6.124  1.1541 -0.4187  2.8405
45090SOL     OW42384   8.330   1.136  10.984  0.1350  0.6803  0.5270
45090SOL    HW142385   8.339   1.224  10.949  1.8255  0.2324 -0.3135
45090SOL    HW242386   8.288   1.086  10.914  1.6425  0.2552 -0.1384
45091SOL     OW42387   7.908   2.303  10.513  0.0562 -0.1849  0.0919
45091SOL    HW142388   7.843   2.339  10.573 -0.0919  3.0244 -1.7246
45091SOL    HW242389   7.967   2.377  10.495  2.0165 -1.9406 -1.1683
45092SOL     OW42390  11.020   4.353   0.256 -0.1874 -0.1107  0.1004
45092SOL    HW142391  11.001   4.440   0.292  0.5741 -0.0548  0.3898
45092SOL    HW242392  11.113   4.355   0.237  0.2304 -1.4113  1.7024
45093SOL     OW42393   9.642  11.015   2.714  0.2923 -0.4706 -0.3037
45093SOL    HW142394   9.596  10.934   2.691 -0.7770  0.0018  0.0693
45093SOL    HW242395   9.595  11.084   2.668 -0.2833  0.1886  1.1829
45094SOL     OW42396   3.078   4.440   2.710 -0.0059 -1.0443 -0.4544
45094SOL    HW142397   3.100   4.528   2.679  1.4353 -0.5617  1.7551
45094SOL    HW242398   2.995   4.420   2.666 -0.1180  1.1902 -1.3985
45095SOL     OW42399   3.815  11.176   0.553 -0.0064  0.5783 -0.6959
45095SOL    HW142400   3.881  11.107   0.543  0.7832  1.3730 -1.0816
45095SOL    HW242401   3.855  11.254   0.515 -0.2884  1.6492  1.0908
45096SOL     OW42402   2.872   1.791  11.088  0.4448  0.2658  0.1214
45096SOL    HW142403   2.875   1.854  11.016  1.1612  1.0932  0.8464
45096SOL    HW242404   2.961   1.793  11.125  0.6418 -1.5430 -0.1412
45097SOL     OW42405   3.112   6.004  10.761 -0.0653 -0.0440  0.9233
45097SOL    HW142406   3.133   5.917  10.729 -2.1681 -0.2887  0.0130
45097SOL    HW242407   3.192   6.055  10.749  0.6672 -1.4035 -0.1983
45098SOL     OW42408  11.380   3.590  10.582 -0.0211 -0.6075 -0.6097
45098SOL    HW142409  11.422   3.632  10.507 -1.3071 -0.9794 -1.5858
45098SOL    HW242410  11.336   3.662  10.629  2.8492  0.0412  1.3195
45099SOL     OW42411  12.089  11.305  10.492  0.5931 -0.2547  0.3452
45099SOL    HW142412  11.995  11.303  10.474  0.8188  1.8325 -1.4439
45099SOL    HW242413  12.120  11.219  10.465 -0.6292 -0.5714 -0.1357
45100SOL     OW42414   8.162   8.289   6.431  0.3223  0.2931 -0.6433
45100SOL    HW142415   8.132   8.350   6.363 -0.2205  0.2591 -0.4429
45100SOL    HW242416   8.110   8.210   6.416 -0.1752  0.4660  0.1234
45101SOL     OW42417   8.921   2.297   1.414  0.5842  0.0082 -0.4102
45101SOL    HW142418   8.968   2.310   1.332  1.2307  2.4652  0.2596
45101SOL    HW242419   8.983   2.249   1.469  0.2727 -1.3533 -1.2200
45102SOL     OW42420  12.816   9.017   0.744 -0.6175  0.1617  0.2233
45102SOL    HW142421  12.721   9.007   0.755 -0.8839 -0.1917 -1.9115
45102SOL    HW242422  12.854   8.963   0.813 -1.9130  1.4870  2.0913
45103SOL     OW42423   1.085   9.560   0.231 -0.7122 -0.3865  0.7181
45103SOL    HW142424   1.142   9.485   0.215  0.6396  0.2054  2.4593
45103SOL    HW242425   1.048   9.545   0.318 -3.8808 -1.1021 -0.6182
45104SOL     OW42426   9.858   3.913   9.280 -0.0380  0.8464  0.0001
45104SOL    HW142427   9.943   3.878   9.254 -0.2500  0.2612  0.0889
45104SOL    HW242428   9.879   3.980   9.345  0.2823 -0.5036  1.3415
45105SOL     OW42429   7.242  10.619   0.782  0.2198 -0.2947  0.0789
45105SOL    HW142430   7.282  10.706   0.783 -0.3073 -0.0590  0.8266
45105SOL    HW242431   7.198  10.614   0.697 -0.2167  0.3832  0.2610
45106SOL     OW42432   8.750   1.701   1.266  0.6071  1.1424  0.2870
45106SOL    HW142433   8.783   1.612   1.257  0.1897  1.1534 -1.7603
45106SOL    HW242434   8.668   1.692   1.315  0.3319  0.3323 -0.3022
45107SOL     OW42435   8.655  12.836   5.581 -0.1432  0.3789 -0.9634
45107SOL    HW142436   8.750  12.845   5.570  0.0297 -1.7985 -1.7045
45107SOL    HW242437   8.643  12.830   5.676  0.6573 -0.7455 -0.9073
45108SOL     OW42438  11.503   7.496   3.483 -0.6175  0.0701  0.0476
45108SOL    HW142439  11.495   7.591   3.482  1.5215  0.3074 -0.4695
45108SOL    HW242440  11.507   7.471   3.391  1.2394 -0.1934  0.1496
45109SOL     OW42441   1.969   9.541   9.585  0.3694 -0.2660  0.4909
45109SOL    HW142442   2.056   9.507   9.561 -0.1146 -1.1304 -0.0995
45109SOL    HW242443   1.970   9.632   9.558  0.4009 -0.7852 -1.4274
45110SOL     OW42444   3.879   0.987   3.644 -0.3549  0.3416 -0.2522
45110SOL    HW142445   3.784   0.997   3.631 -0.3639 -0.1956 -0.6887
45110SOL    HW242446   3.915   0.994   3.556  0.2057  2.2352  0.0846
45111SOL     OW42447   8.822  10.164   5.119 -0.6639  0.3313  0.3384
45111SOL    HW142448   8.754  10.113   5.162 -1.2092 -0.3301 -1.2286
45111SOL    HW242449   8.902  10.112   5.132 -0.7224  0.3987  0.9763
45112SOL     OW42450   3.122  11.078   9.066  0.7491  0.0709  0.2696
45112SOL    HW142451   3.204  11.100   9.112  0.7182  0.8143 -0.0150
45112SOL    HW242452   3.067  11.039   9.134  1.6851 -1.3730  0.2476
45113SOL     OW42453   9.814   5.349   7.708  0.2605 -0.0835 -0.3236
45113SOL    HW142454   9.832   5.262   7.671 -0.2158  0.1845 -1.2092
45113SOL    HW242455   9.847   5.344   7.798 -0.0598 -1.2876 -0.2585
45114SOL     OW42456   4.342  10.047  10.755  0.6103  0.3473 -0.1508
45114SOL    HW142457   4.402  10.121  10.743  2.6310 -1.2916 -0.8967
45114SOL    HW242458   4.400   9.971  10.761 -1.4328 -1.3581 -0.9846
45115SOL     OW42459   2.829  10.462   3.269  0.0979 -0.0467 -0.1253
45115SOL    HW142460   2.880  10.541   3.253 -0.0721  0.3797  1.2985
45115SOL    HW242461   2.894  10.393   3.281  0.2791  0.0969 -0.2810
45116SOL     OW42462   2.662   0.263   7.986 -0.3214  0.2162 -0.6449
45116SOL    HW142463   2.686   0.171   7.979 -1.7460 -0.1200 -1.6230
45116SOL    HW242464   2.621   0.271   8.072  1.2968  0.3420  0.1502
45117SOL     OW42465  12.486   2.346   0.970  0.4854  0.0568 -0.3048
45117SOL    HW142466  12.484   2.433   1.009  0.8016  0.3528 -0.9371
45117SOL    HW242467  12.421   2.350   0.900  1.5034  0.2535 -1.2744
45118SOL     OW42468  11.962  10.856  12.611  0.0803  0.7099 -0.1173
45118SOL    HW142469  11.930  10.810  12.534 -0.3747  2.4516 -1.0320
45118SOL    HW242470  12.006  10.789  12.664 -0.5349 -0.7189 -1.3651
45119SOL     OW42471  12.726   5.045   1.726  0.2094  0.0761 -0.4827
45119SOL    HW142472  12.694   5.133   1.745  0.8744 -0.0602  1.4592
45119SOL    HW242473  12.754   5.011   1.811 -0.4873 -2.2105 -1.1138
45120SOL     OW42474   7.290  10.233   8.319  0.3210 -0.8339  0.1847
45120SOL    HW142475   7.355  10.236   8.248  1.6075  2.1809  1.3311
45120SOL    HW242476   7.316  10.156   8.371  0.2236 -2.2436 -1.7757
45121SOL     OW42477   4.478   3.346   1.868  0.1110  0.1262  0.2930
45121SOL    HW142478   4.441   3.377   1.785  1.7431  1.6775  0.1001
45121SOL    HW242479   4.416   3.377   1.935 -0.8690 -0.5776 -0.2556
45122SOL     OW42480  10.214  12.135   1.197 -0.1289 -0.3093 -0.1811
45122SOL    HW142481  10.258  12.124   1.281  0.3155  1.3225 -0.1535
45122SOL    HW242482  10.167  12.053   1.183 -0.3177 -0.5727  1.7092
45123SOL     OW42483  11.989  12.087   8.708 -0.2222 -0.1849 -0.4237
45123SOL    HW142484  11.954  12.074   8.796  1.1246 -1.0790  0.0123
45123SOL    HW242485  12.075  12.044   8.709  0.7491  1.5826 -1.5493
45124SOL     OW42486   7.411   4.006   7.339  0.9311 -0.1921 -0.3189
45124SOL    HW142487   7.492   3.957   7.323  1.1191  0.4922 -1.5446
45124SOL    HW242488   7.387   4.042   7.254  0.4653  1.3377  0.4228
45125SOL     OW42489   2.724   4.817  10.327 -0.5082 -0.1794 -0.0543
45125SOL    HW142490   2.814   4.802  10.298 -0.7087  0.2927 -0.9740
45125SOL    HW242491   2.684   4.730  10.326 -0.1611 -0.3433  0.0229
45126SOL     OW42492  10.093   2.217   4.639  0.1541 -0.4657 -0.1304
45126SOL    HW142493  10.156   2.268   4.691 -1.3852  0.2266  1.1591
45126SOL    HW242494  10.075   2.273   4.563  0.5924 -0.3646 -0.1633
45127SOL     OW42495   6.248   5.517   9.606  0.2703  0.6945 -0.3816
45127SOL    HW142496   6.182   5.469   9.657  0.6128 -0.2182 -0.7772
45127SOL    HW242497   6.255   5.468   9.524 -0.1884  2.0775 -1.2778
45128SOL     OW42498   7.746   0.948   5.342 -0.1640  0.4395 -0.3224
45128SOL    HW142499   7.657   0.968   5.311  0.0341  0.7747 -0.6884
45128SOL    HW242500   7.770   1.023   5.396 -0.3126  0.0900  0.2405
45129SOL     OW42501   5.496   3.420   3.961 -0.0386  0.5079  0.3605
45129SOL    HW142502   5.421   3.378   4.005  0.5061  1.8586  2.7385
45129SOL    HW242503   5.468   3.510   3.945  0.4684  0.5520 -0.3186
45130SOL     OW42504   8.045   1.460  12.375  0.6117  0.2528 -0.2675
45130SOL    HW142505   7.991   1.407  12.434  1.6524 -0.1222  0.3716
45130SOL    HW242506   8.078   1.398  12.310  0.1125  0.5225 -0.7907
45131SOL     OW42507  10.463  10.266   6.560 -0.3644  0.4558  0.0028
45131SOL    HW142508  10.428  10.217   6.487 -3.2178  0.0134  1.5132
45131SOL    HW242509  10.499  10.200   6.619 -1.4814  0.3914  0.6525
45132SOL     OW42510   1.316   1.488   7.653 -0.1408 -0.2305  0.4870
45132SOL    HW142511   1.252   1.451   7.713 -1.0617 -0.0537 -0.3641
45132SOL    HW242512   1.274   1.483   7.567  1.0449 -0.2432 -0.1116
45133SOL     OW42513   9.786  12.379   3.755 -0.1451 -0.2468 -0.1433
45133SOL    HW142514   9.873  12.381   3.717 -0.1197  0.0289 -0.0709
45133SOL    HW242515   9.732  12.336   3.688 -0.4283  1.6102 -1.1999
45134SOL     OW42516   9.677   3.161  12.869 -0.1174 -0.1003  0.3006
45134SOL    HW142517   9.655   3.155  12.776 -0.2917 -0.5886  0.3705
45134SOL    HW242518   9.603   3.207  12.908  1.0890  2.4297 -0.1886
45135SOL     OW42519   7.790   3.026  10.777 -0.1317  0.6471  0.1466
45135SOL    HW142520   7.832   3.112  10.784  0.2210  0.4364  0.7033
45135SOL    HW242521   7.712   3.042  10.724  0.0379  1.2727  0.0727
45136SOL     OW42522   2.290   4.505   9.682 -0.2483  0.3365  0.0729
45136SOL    HW142523   2.247   4.547   9.607  2.6659  1.5620 -1.0513
45136SOL    HW242524   2.282   4.411   9.664 -1.7322  0.5311 -0.4592
45137SOL     OW42525   3.328   0.912   0.378 -0.1033  0.7353 -0.3675
45137SOL    HW142526   3.257   0.848   0.378  0.2638  0.3119 -0.6972
45137SOL    HW242527   3.366   0.906   0.465 -0.2075  0.6602 -0.3275
45138SOL     OW42528  11.857   4.239   9.185  0.2254  0.0467  0.1301
45138SOL    HW142529  11.817   4.154   9.204  1.1967 -0.2800  0.8366
45138SOL    HW242530  11.846   4.250   9.091  1.1420 -1.4575 -0.2082
45139SOL     OW42531   7.963   6.310  11.464 -0.2907 -0.4300  0.1111
45139SOL    HW142532   8.017   6.291  11.541  0.6416  1.5153 -0.0020
45139SOL    HW242533   7.976   6.235  11.406  1.2944 -0.5799  0.6309
45140SOL     OW42534  11.806   7.330  10.982  0.2186  0.3335 -0.5987
45140SOL    HW142535  11.821   7.365  11.070 -0.1992 -0.4935 -0.1758
45140SOL    HW242536  11.825   7.402  10.923 -1.6355  1.6023  0.2721
45141SOL     OW42537   0.062  12.634   6.951  0.0124 -0.3264 -0.6781
45141SOL    HW142538  -0.017  12.683   6.929 -0.9493 -1.1615  0.8010
45141SOL    HW242539   0.125  12.702   6.977 -1.1024  0.2046  0.7489
45142SOL     OW42540   5.964  11.355   7.631 -0.0520  0.2322 -0.0187
45142SOL    HW142541   5.999  11.350   7.542  0.6603 -0.4089  0.2869
45142SOL    HW242542   5.935  11.266   7.650  1.2375  0.0009  0.9522
45143SOL     OW42543  11.565   1.649   9.702  0.0885 -0.2129  0.4718
45143SOL    HW142544  11.511   1.572   9.686 -0.4216  0.5637 -1.8681
45143SOL    HW242545  11.642   1.637   9.647  0.4589  0.4943  0.8182
45144SOL     OW42546   5.878   5.424  12.715 -0.3551 -0.3043  0.1910
45144SOL    HW142547   5.937   5.477  12.768  1.6887 -2.0379 -0.1935
45144SOL    HW242548   5.835   5.487  12.657 -0.7467  1.3121  2.1210
45145SOL     OW42549  10.879   4.364   5.974 -0.7803 -0.2767  0.3020
45145SOL    HW142550  10.969   4.347   6.000 -0.5984  1.0455  0.6100
45145SOL    HW242551  10.886   4.406   5.888 -1.0866 -0.1127  0.3530
45146SOL     OW42552   7.793   3.088   9.402  0.7323 -0.6562 -0.0413
45146SOL    HW142553   7.719   3.133   9.443 -0.6627 -3.0267  0.2127
45146SOL    HW242554   7.765   3.073   9.312  1.6568 -0.0524 -0.4482
45147SOL     OW42555   9.193   1.461   0.756 -0.1742 -0.1088 -0.1548
45147SOL    HW142556   9.198   1.411   0.675  0.6230 -0.2871 -0.0011
45147SOL    HW242557   9.243   1.410   0.819 -0.2508  0.3485  0.2856
45148SOL     OW42558  12.186   1.360   8.961  0.2056  0.0298  0.2388
45148SOL    HW142559  12.104   1.333   9.003 -0.1494 -1.3957 -1.2892
45148SOL    HW242560  12.236   1.279   8.950  1.4571  0.7561  0.3120
45149SOL     OW42561   8.675   6.674   9.855  0.3596 -0.1223  0.2384
45149SOL    HW142562   8.629   6.590   9.856  0.5924 -0.2459  0.5231
45149SOL    HW242563   8.670   6.703   9.763  1.0534 -0.8705 -0.0379
45150SOL     OW42564   6.710  11.727  11.271 -0.0207 -0.0315  0.2513
45150SOL    HW142565   6.779  11.751  11.209 -1.4331  1.2971 -0.8868
45150SOL    HW242566   6.649  11.674  11.220 -0.4347 -0.2199  0.9259
45151SOL     OW42567   8.924  12.805   1.322  0.5388  0.3078 -0.7672
45151SOL    HW142568   8.994  12.741   1.309 -1.1149 -1.4667 -1.3114
45151SOL    HW242569   8.887  12.785   1.408  0.5495  1.0922 -0.5723
45152SOL     OW42570   6.529  12.450   7.739 -0.3314 -0.8233  0.7303
45152SOL    HW142571   6.521  12.501   7.658  0.6495 -0.5474  0.7923
45152SOL    HW242572   6.573  12.509   7.800 -1.3775 -0.9059  1.5961
45153SOL     OW42573   0.751  12.000  11.787 -0.3205  0.1441  0.3961
45153SOL    HW142574   0.842  12.019  11.766 -0.2069 -0.4444  0.3483
45153SOL    HW242575   0.739  11.907  11.765 -1.2569  0.5109 -0.7675
45154SOL     OW42576   5.382   8.660   4.796  0.0815 -0.1990  0.8999
45154SOL    HW142577   5.307   8.637   4.741 -1.0116  0.7922  1.9199
45154SOL    HW242578   5.457   8.657   4.736 -0.8719 -0.4434 -0.3296
45155SOL     OW42579   7.013   7.253   6.741  0.2111 -0.4061  0.0182
45155SOL    HW142580   6.962   7.239   6.820  0.0739 -1.4270 -0.2434
45155SOL    HW242581   7.065   7.332   6.760 -1.7046  0.8950  0.1523
45156SOL     OW42582   1.829  12.661   0.282  0.3116  0.0390  0.1439
45156SOL    HW142583   1.833  12.630   0.192  1.1611 -2.6080  1.0044
45156SOL    HW242584   1.736  12.663   0.303  0.1883 -1.8090 -0.0647
45157SOL     OW42585   0.963   8.902  10.018  0.5315  0.2798 -0.3281
45157SOL    HW142586   0.888   8.923  10.074  0.0216  1.0168 -1.2475
45157SOL    HW242587   1.038   8.940  10.063  0.6171 -1.7570  1.3618
45158SOL     OW42588   7.049   4.323  11.875 -0.0867 -0.3020  0.0511
45158SOL    HW142589   7.075   4.405  11.832 -3.8756 -0.2206 -2.5451
45158SOL    HW242590   7.117   4.260  11.849  2.1133  1.5592  0.9021
45159SOL     OW42591   0.207   3.043   4.755  0.0683  0.2783  0.2751
45159SOL    HW142592   0.208   3.090   4.672 -1.0613  0.9665  0.6299
45159SOL    HW242593   0.137   2.978   4.745  0.8384 -0.5687  0.2111
45160SOL     OW42594   7.701   5.887   7.848  0.9373  0.4004 -0.0302
45160SOL    HW142595   7.640   5.885   7.922  2.4257  1.1850  1.2963
45160SOL    HW242596   7.671   5.960   7.794 -0.0165 -0.0164 -0.0732
45161SOL     OW42597   0.038   7.245   0.140 -0.1803 -0.0614  0.1046
45161SOL    HW142598   0.106   7.180   0.157 -0.8267 -0.4735  1.1941
45161SOL    HW242599   0.042   7.259   0.045  0.0664 -1.5962 -0.1419
45162SOL     OW42600   9.097   6.714   5.869  0.4016 -0.2366 -0.2581
45162SOL    HW142601   9.162   6.679   5.929  0.0559  1.9752  1.5413
45162SOL    HW242602   9.082   6.804   5.899 -1.1789  0.3595 -2.5374
45163SOL     OW42603  12.543   6.034   5.815  0.3161 -0.9051 -0.3307
45163SOL    HW142604  12.609   6.022   5.883  1.5099 -0.7422 -1.4297
45163SOL    HW242605  12.519   5.945   5.789  0.9061 -0.9637 -0.6819
45164SOL     OW42606   2.329   1.770  12.513  0.2355  0.3751  0.0444
45164SOL    HW142607   2.414   1.815  12.507  0.1673  0.3927 -0.8684
45164SOL    HW242608   2.344   1.700  12.576  0.3772  1.5833  1.4071
45165SOL     OW42609  10.940  10.746   4.452  0.3249  0.0003 -0.0449
45165SOL    HW142610  10.952  10.802   4.529 -0.0174 -0.1886  0.1502
45165SOL    HW242611  10.851  10.766   4.422  0.6823  0.5292 -0.7687
45166SOL     OW42612  12.758   7.768   5.192 -0.7831 -0.3220 -0.0038
45166SOL    HW142613  12.724   7.679   5.196 -2.0486  0.1121 -0.6863
45166SOL    HW242614  12.748   7.794   5.101  1.4239 -0.1631 -0.2509
45167SOL     OW42615   2.316   0.427   3.795 -0.5406 -0.0384  0.1278
45167SOL    HW142616   2.353   0.505   3.753  0.1350 -0.6119 -0.3742
45167SOL    HW242617   2.227   0.452   3.820 -0.2618  0.9540  0.1553
45168SOL     OW42618   4.796  11.678   5.233 -0.4269 -0.9793  0.0874
45168SOL    HW142619   4.810  11.753   5.291 -1.6985 -0.0607 -0.7314
45168SOL    HW242620   4.883  11.641   5.220  1.1339  2.9161 -2.8409
45169SOL     OW42621   3.552   9.446   9.394 -0.3108  0.0728 -0.3063
45169SOL    HW142622   3.625   9.410   9.342 -0.1737  1.2132 -0.9488
45169SOL    HW242623   3.483   9.461   9.330 -0.7401 -0.0541  0.1297
45170SOL     OW42624   7.769   9.138  10.512 -0.5154 -0.0073  0.2500
45170SOL    HW142625   7.775   9.232  10.496  0.4828 -0.4768 -2.8539
45170SOL    HW242626   7.685   9.125  10.556 -1.7338  2.1066 -1.3436
45171SOL     OW42627   4.261   2.273   5.617 -0.7944  0.4022 -0.3902
45171SOL    HW142628   4.219   2.316   5.691 -0.8763 -1.0656  0.4798
45171SOL    HW242629   4.194   2.267   5.550 -2.1988 -2.1880  1.0871
45172SOL     OW42630  10.266   4.651   7.766 -0.2683 -0.2474 -0.1717
45172SOL    HW142631  10.317   4.701   7.701  0.2726 -0.8201 -0.1947
45172SOL    HW242632  10.244   4.716   7.833 -2.7169  0.8948 -1.9385
45173SOL     OW42633   4.668   7.464  12.254 -0.6634  0.1042  0.5312
45173SOL    HW142634   4.683   7.439  12.163  0.0101  2.3135 -0.0121
45173SOL    HW242635   4.589   7.518  12.252 -0.6027  0.2337  1.2651
45174SOL     OW42636   6.868   0.552   9.896  0.2684  0.0836  0.4463
45174SOL    HW142637   6.932   0.622   9.908  0.0697  0.9033 -2.4458
45174SOL    HW242638   6.916   0.483   9.850 -0.5660  0.1187 -0.4982
45175SOL     OW42639  10.117   9.027   7.892 -0.2753 -0.1098  0.2491
45175SOL    HW142640  10.107   8.947   7.944  0.2711 -0.7892 -0.6666
45175SOL    HW242641  10.210   9.047   7.897 -0.3710  0.3377  0.2741
45176SOL     OW42642   0.211   0.275  11.876 -0.0128 -0.4899 -0.0190
45176SOL    HW142643   0.273   0.296  11.946  0.6245  1.1722 -1.0112
45176SOL    HW242644   0.265   0.228  11.811 -0.2452 -0.7365 -0.0315
45177SOL     OW42645   8.080  11.138  10.449 -0.4130  0.2092 -0.8650
45177SOL    HW142646   8.089  11.164  10.357 -0.0325 -0.4417 -1.0211
45177SOL    HW242647   7.986  11.141  10.466 -0.5115  0.0571 -1.3642
45178SOL     OW42648   1.310   4.413  10.870 -0.1803 -0.1520  0.6673
45178SOL    HW142649   1.281   4.452  10.788 -0.8816  0.8009  1.3513
45178SOL    HW242650   1.234   4.417  10.928  0.8687  1.1072  2.0412
45179SOL     OW42651  12.810   9.064  10.195 -0.2550  0.4813  0.2763
45179SOL    HW142652  12.896   9.090  10.227  0.2019 -1.3229  0.6103
45179SOL    HW242653  12.819   9.063  10.100 -0.6601  2.6401  0.1565
45180SOL     OW42654   1.646  11.099   5.532  0.4095  0.1378  0.3189
45180SOL    HW142655   1.717  11.036   5.542 -1.0938 -1.8416 -0.7904
45180SOL    HW242656   1.590  11.083   5.608  0.5249  0.8772  0.5681
45181SOL     OW42657   9.285   6.532  11.955  0.4355  0.1363  0.1098
45181SOL    HW142658   9.233   6.549  11.877  0.5732  1.0307  0.1997
45181SOL    HW242659   9.234   6.469  12.005 -0.2496  0.4989 -0.1159
45182SOL     OW42660   6.563   4.340   5.865 -0.1105 -0.1119  0.4380
45182SOL    HW142661   6.539   4.422   5.908 -0.2370 -0.5229  1.1551
45182SOL    HW242662   6.654   4.325   5.890 -0.1191 -0.2470  0.3932
45183SOL     OW42663   8.340   3.714   5.053  0.0981  0.0188  0.4586
45183SOL    HW142664   8.359   3.744   5.142  1.1769  2.4958 -0.4924
45183SOL    HW242665   8.269   3.772   5.023  0.7607  0.2478 -0.7537
45184SOL     OW42666   7.443  11.370   3.111  0.4561 -0.4276  0.1101
45184SOL    HW142667   7.370  11.316   3.140 -0.9932  0.9574 -0.7765
45184SOL    HW242668   7.402  11.437   3.055  2.5861 -0.5140 -1.6712
45185SOL     OW42669   4.436   2.183   8.355 -0.5421  0.5347 -0.3424
45185SOL    HW142670   4.504   2.206   8.290 -0.1035 -0.2607 -0.1706
45185SOL    HW242671   4.359   2.233   8.327 -0.9187 -1.0995 -2.5415
45186SOL     OW42672   8.134   2.679  10.250 -0.1400  0.0729  0.1274
45186SOL    HW142673   8.099   2.592  10.234 -0.3365  0.4690 -1.8549
45186SOL    HW242674   8.184   2.671  10.331  0.3849 -2.0264 -0.3688
45187SOL     OW42675   9.286  12.807  11.834 -0.4837  0.1416 -0.2200
45187SOL    HW142676   9.220  12.745  11.864  0.7342 -0.8423  0.5239
45187SOL    HW242677   9.317  12.849  11.914  0.3609  0.0092 -0.4725
45188SOL     OW42678   8.587   1.670   6.057  0.1653  0.6176 -0.2720
45188SOL    HW142679   8.547   1.698   6.139  0.1503 -0.8974  0.2796
45188SOL    HW242680   8.526   1.605   6.021  0.7065  0.4511 -0.9207
45189SOL     OW42681   5.765  11.060   8.724 -0.3776  0.0715 -0.4426
45189SOL    HW142682   5.814  11.141   8.708  0.2972 -0.2459 -0.0378
45189SOL    HW242683   5.794  11.001   8.655  1.0261 -0.6382  0.7116
45190SOL     OW42684  11.571   3.134   9.731 -0.8819  0.1112 -0.3300
45190SOL    HW142685  11.578   3.210   9.673  1.6369  1.2159  1.2719
45190SOL    HW242686  11.553   3.171   9.817 -1.0517 -1.2381  0.2405
45191SOL     OW42687   1.619   4.797  12.028 -0.0206 -0.2988  0.3267
45191SOL    HW142688   1.545   4.810  12.087  0.0464 -0.3621  0.4240
45191SOL    HW242689   1.620   4.703  12.011  0.7928 -0.4895  1.3111
45192SOL     OW42690   7.915   2.243  12.571  0.4276  0.0072  0.0423
45192SOL    HW142691   7.859   2.265  12.496  0.4503  0.1967  0.0799
45192SOL    HW242692   7.970   2.171  12.539 -2.1635 -2.6003  1.0692
45193SOL     OW42693  12.607   0.954  10.043 -0.0928 -0.0130  0.1707
45193SOL    HW142694  12.646   0.982  10.126 -1.1710  1.9975  0.0641
45193SOL    HW242695  12.548   0.883  10.067  1.7518 -1.4593  0.6665
45194SOL     OW42696   6.086  10.209   7.181  0.5647 -0.1521 -0.1766
45194SOL    HW142697   6.159  10.171   7.133 -0.8866 -3.1297 -0.2364
45194SOL    HW242698   6.110  10.201   7.273  0.7793 -0.1140 -0.2298
45195SOL     OW42699   6.217   8.739   4.363  0.0592  0.2705  0.0974
45195SOL    HW142700   6.205   8.833   4.347 -1.2455  0.0802 -0.1028
45195SOL    HW242701   6.225   8.700   4.276 -1.4847 -0.0542  0.0782
45196SOL     OW42702  12.616   9.015  10.362 -0.0773 -0.0648 -0.1522
45196SOL    HW142703  12.670   9.045  10.289 -0.6059  0.5031 -0.3170
45196SOL    HW242704  12.528   9.046  10.342  0.1756  2.3538  1.9008
45197SOL     OW42705   7.821   7.609  11.869 -0.4699  0.4171  0.3751
45197SOL    HW142706   7.813   7.528  11.918  0.0958 -0.3261 -0.7279
45197SOL    HW242707   7.895   7.595  11.809 -1.2665  1.1805 -0.8500
45198SOL     OW42708   9.192   6.260   1.374 -0.0442 -0.0861 -0.3326
45198SOL    HW142709   9.195   6.232   1.283  0.6793 -2.1793  0.2873
45198SOL    HW242710   9.277   6.303   1.388 -0.2797  0.5134 -0.7105
45199SOL     OW42711   6.598   8.905   4.681  0.2097  0.1486 -0.7268
45199SOL    HW142712   6.645   8.972   4.631 -1.0620  0.3707 -1.6774
45199SOL    HW242713   6.535   8.869   4.619 -1.5634  0.5438  0.7601
45200SOL     OW42714  10.270   8.191   0.498 -0.7228 -0.0473  0.7252
45200SOL    HW142715  10.175   8.199   0.508 -0.5077  1.8959  1.7716
45200SOL    HW242716  10.302   8.281   0.499  1.0909 -0.6188 -0.4063
45201SOL     OW42717   2.354   1.380   1.670 -0.7664 -0.0383 -0.4659
45201SOL    HW142718   2.317   1.440   1.605 -0.1159 -0.6180 -1.4034
45201SOL    HW242719   2.409   1.436   1.725 -1.8594  0.5754  0.0342
45202SOL     OW42720   5.937   1.372  11.933  0.0107 -0.3582  0.1318
45202SOL    HW142721   5.885   1.294  11.951 -1.3824  0.2237 -1.2007
45202SOL    HW242722   5.916   1.395  11.843 -1.3691  2.7867  1.0930
45203SOL     OW42723   7.226   6.204   5.342  0.0573  0.0702 -0.0660
45203SOL    HW142724   7.219   6.112   5.317 -0.5794 -0.1179  0.7555
45203SOL    HW242725   7.165   6.250   5.284 -0.6451 -0.2194  0.4375
45204SOL     OW42726   3.941   0.661   6.432 -0.1001  0.4061  0.2159
45204SOL    HW142727   4.035   0.679   6.438 -0.1784  0.7839  0.3270
45204SOL    HW242728   3.905   0.693   6.515 -0.2881  0.0108  0.2895
45205SOL     OW42729   9.020  11.211   7.594  0.0253  0.4246  1.0137
45205SOL    HW142730   9.002  11.213   7.501  3.5893 -1.3198  0.0789
45205SOL    HW242731   9.062  11.295   7.613  0.1718  0.3986  0.8019
45206SOL     OW42732   4.749  10.961   8.217  0.2185  0.4303 -0.5565
45206SOL    HW142733   4.840  10.957   8.185 -0.0754  0.8157 -1.4576
45206SOL    HW242734   4.753  11.020   8.291  1.6467 -3.3586  2.7863
45207SOL     OW42735   9.780   5.648   0.056  0.5582 -0.6691  0.9401
45207SOL    HW142736   9.866   5.607   0.060  1.6322  1.3775  0.1736
45207SOL    HW242737   9.757   5.664   0.148  1.3151 -0.6366  1.1331
45208SOL     OW42738   7.283   7.075  12.537 -0.3482  0.1654  0.4051
45208SOL    HW142739   7.248   7.002  12.587 -0.7794  0.1595  0.1000
45208SOL    HW242740   7.354   7.037  12.485 -0.7584 -0.1068  0.0283
45209SOL     OW42741  12.816   3.856   6.475  0.1313 -0.4395 -0.0937
45209SOL    HW142742  12.765   3.930   6.509 -0.7320 -1.7456  1.6299
45209SOL    HW242743  12.900   3.862   6.522 -0.0386 -0.6961  0.2452
45210SOL     OW42744   0.405   4.556   3.873  0.0085  0.2394 -0.4349
45210SOL    HW142745   0.355   4.632   3.900  2.0058  1.0148  1.3871
45210SOL    HW242746   0.417   4.505   3.953  1.3948 -0.3297 -0.9723
45211SOL     OW42747  10.705   1.977  12.716 -0.3631  0.2393 -0.7967
45211SOL    HW142748  10.799   1.995  12.712 -0.5929  1.8406  0.1427
45211SOL    HW242749  10.687   1.963  12.808 -0.6251 -2.8817 -1.2265
45212SOL     OW42750  12.653   4.768   6.851 -0.2661 -0.3418  0.1626
45212SOL    HW142751  12.646   4.848   6.799  3.4938 -1.1408 -1.9920
45212SOL    HW242752  12.658   4.698   6.786  0.6612 -1.8641  1.7838
45213SOL     OW42753   8.814   9.411  12.583  0.7041 -0.0185  0.5134
45213SOL    HW142754   8.749   9.392  12.516 -1.3900 -0.7209  2.6109
45213SOL    HW242755   8.838   9.503  12.568  1.6534 -0.6177 -2.1918
45214SOL     OW42756   9.219  11.701   5.131  0.0748 -1.3504 -0.1776
45214SOL    HW142757   9.285  11.664   5.190  0.4028 -0.2676  0.1457
45214SOL    HW242758   9.144  11.720   5.188  0.7681  0.6713  0.1190
45215SOL     OW42759  12.688   0.948   8.334  0.0477 -0.0397  0.3490
45215SOL    HW142760  12.605   0.969   8.292 -0.1996 -1.5074  0.0351
45215SOL    HW242761  12.710   1.026   8.385 -2.4235 -0.2755  1.9018
45216SOL     OW42762   1.562   5.371  11.510  0.3108  0.7335  0.3934
45216SOL    HW142763   1.525   5.290  11.546  2.5354 -1.4276 -1.8060
45216SOL    HW242764   1.501   5.397  11.441  0.2148  0.2065  0.2752
45217SOL     OW42765   9.196   7.576   7.646  0.5059 -0.2778 -0.3934
45217SOL    HW142766   9.127   7.640   7.626  0.2406 -0.5680 -0.4087
45217SOL    HW242767   9.274   7.611   7.602  0.2857 -0.1297 -0.6699
45218SOL     OW42768   7.104   9.602   2.367  0.1985 -0.4062  0.7033
45218SOL    HW142769   7.164   9.527   2.369  2.3281  1.1189 -1.0413
45218SOL    HW242770   7.057   9.592   2.284 -1.0164 -0.8413  1.4146
45219SOL     OW42771   1.592  11.444   0.315 -0.0045 -0.8299 -0.2740
45219SOL    HW142772   1.643  11.363   0.320 -0.5666 -1.1163  1.9324
45219SOL    HW242773   1.501  11.415   0.323 -0.3467 -0.0990 -1.2992
45220SOL     OW42774   5.392  12.348  10.430  0.0266 -0.0348  0.1084
45220SOL    HW142775   5.379  12.400  10.510 -2.2724  0.0160 -0.2376
45220SOL    HW242776   5.304  12.334  10.396  0.7911 -1.9977 -1.2154
45221SOL     OW42777   4.803   6.405   1.470  0.4330 -0.2551 -0.6217
45221SOL    HW142778   4.830   6.490   1.436  1.4492 -0.7769 -1.1766
45221SOL    HW242779   4.782   6.421   1.562 -1.6470  1.0506 -1.2510
45222SOL     OW42780   8.343   5.024  11.916 -0.1047 -0.3565  0.0875
45222SOL    HW142781   8.343   4.929  11.928 -0.3982 -0.3126  0.4700
45222SOL    HW242782   8.410   5.055  11.977 -1.6520 -0.1259  1.7591
45223SOL     OW42783   5.702   0.833  11.370 -0.0839 -0.2786  0.3479
45223SOL    HW142784   5.716   0.819  11.277  0.3295  2.3741 -0.0631
45223SOL    HW242785   5.776   0.791  11.413  0.3716 -0.4585 -0.6113
45224SOL     OW42786   0.246  10.295  12.876  0.2271  0.3099  0.0189
45224SOL    HW142787   0.320  10.253  12.918 -0.8055 -0.5874  1.0125
45224SOL    HW242788   0.173  10.234  12.887 -2.0735  3.2222  3.8989
45225SOL     OW42789  12.008  11.496   1.094  0.2058  0.0569 -0.6817
45225SOL    HW142790  11.927  11.498   1.145 -0.5845 -1.6136 -1.7832
45225SOL    HW242791  12.047  11.410   1.115  1.6355  0.7591 -0.3023
45226SOL     OW42792   3.459   8.533   2.872 -0.0689 -0.1240  0.2888
45226SOL    HW142793   3.389   8.527   2.937 -1.2736 -0.2855 -0.9534
45226SOL    HW242794   3.507   8.450   2.880 -1.7056 -1.2156 -0.6059
45227SOL     OW42795   4.302   0.705  11.156 -0.0413  0.3694 -0.4219
45227SOL    HW142796   4.244   0.713  11.232  2.2194 -1.2211  1.6219
45227SOL    HW242797   4.331   0.794  11.138 -2.5602  1.1157 -1.1186
45228SOL     OW42798   5.013   7.924  12.033  0.2751 -0.0134  0.3674
45228SOL    HW142799   5.022   7.829  12.028 -0.4635 -0.2618  2.6202
45228SOL    HW242800   5.024   7.954  11.943 -0.7029 -2.3255 -0.5909
45229SOL     OW42801   5.134   6.736   3.290 -0.1002  0.2176  0.7770
45229SOL    HW142802   5.049   6.692   3.281 -0.1105 -0.1018  2.1354
45229SOL    HW242803   5.198   6.666   3.279 -0.0538  0.2783  0.6749
45230SOL     OW42804   7.469   1.001   2.129 -0.1738 -0.1145  0.1617
45230SOL    HW142805   7.527   1.046   2.190  0.1213  0.7041 -0.6871
45230SOL    HW242806   7.428   0.932   2.181  0.3854  0.2827  1.1669
45231SOL     OW42807   1.198  10.379   0.943 -0.9522 -0.3866 -0.1225
45231SOL    HW142808   1.130  10.327   0.986 -0.1226  0.6054  2.5888
45231SOL    HW242809   1.153  10.424   0.873 -2.8040 -0.8129  0.7349
45232SOL     OW42810   8.236  12.590  10.306 -0.4707  0.1666 -0.4684
45232SOL    HW142811   8.323  12.631  10.314 -0.0973 -0.7283  0.3192
45232SOL    HW242812   8.252  12.499  10.329 -1.8126  0.2039  0.7303
45233SOL     OW42813   0.335   0.708  11.553 -0.0808  0.0308  0.0124
45233SOL    HW142814   0.288   0.639  11.599  0.1381 -0.9905 -1.2476
45233SOL    HW242815   0.281   0.786  11.565 -1.5669 -0.8825 -0.5430
45234SOL     OW42816  10.034   7.293   0.600 -0.2272 -0.2584 -0.8864
45234SOL    HW142817   9.992   7.257   0.522  2.4353 -1.6019 -1.8329
45234SOL    HW242818  10.037   7.219   0.661 -0.5955  0.2610 -0.2271
45235SOL     OW42819   0.309   6.536   5.426  0.3209 -0.0310 -0.4109
45235SOL    HW142820   0.367   6.567   5.356  1.0992 -0.2453  0.1266
45235SOL    HW242821   0.352   6.458   5.460  0.2651  0.4064  0.7078
45236SOL     OW42822  10.162   7.050   6.279 -0.4192 -0.1711 -0.5517
45236SOL    HW142823  10.099   7.121   6.268 -1.5555 -0.8586  1.0430
45236SOL    HW242824  10.228   7.065   6.212 -2.3974  0.4547 -2.4618
45237SOL     OW42825   5.604   8.305   6.246 -0.5178 -0.5961 -0.4752
45237SOL    HW142826   5.663   8.349   6.184  0.0676 -1.6564 -0.6913
45237SOL    HW242827   5.658   8.238   6.287 -0.5340  0.8032  2.0869
45238SOL     OW42828   6.367   3.986   2.335  0.4798  0.1131  0.1864
45238SOL    HW142829   6.392   3.989   2.243  1.5460  1.1822  0.4920
45238SOL    HW242830   6.295   3.922   2.338  0.5443 -0.0685 -1.3428
45239SOL     OW42831  10.214  12.404   8.105  0.2444 -0.0407  0.9139
45239SOL    HW142832  10.260  12.348   8.043  0.1297 -0.7568  1.4589
45239SOL    HW242833  10.260  12.391   8.188  0.8211  1.4131  0.8623
45240SOL     OW42834  10.133   6.243   3.038  0.4905 -0.8925 -0.1588
45240SOL    HW142835  10.052   6.193   3.050  0.4850 -0.6945  0.6579
45240SOL    HW242836  10.193   6.181   2.997 -0.1675 -0.9527 -1.0644
45241SOL     OW42837   3.392  12.749   2.690 -0.4218  0.2838 -0.3447
45241SOL    HW142838   3.344  12.751   2.773 -0.4769  1.4762 -0.3861
45241SOL    HW242839   3.385  12.838   2.657  0.5816  0.1018 -1.0705
45242SOL     OW42840  10.542  10.160   4.615  0.0189 -0.2442  0.1184
45242SOL    HW142841  10.454  10.150   4.577 -0.7695 -0.7222  1.9463
45242SOL    HW242842  10.564  10.072   4.646 -0.1407  0.3951  2.2297
45243SOL     OW42843  10.340  11.879   7.441  0.7008  0.0372  0.0982
45243SOL    HW142844  10.270  11.817   7.423  0.3633 -0.3807  2.4726
45243SOL    HW242845  10.416  11.824   7.461  0.5672  0.3533  1.5993
45244SOL     OW42846  10.914   9.471  10.954  0.2283 -0.5632 -0.0595
45244SOL    HW142847  10.881   9.547  11.002 -2.0432 -1.1418 -0.5646
45244SOL    HW242848  10.944   9.507  10.870  1.2123  0.0250  0.5247
45245SOL     OW42849   7.807   8.328   6.501  0.1910 -0.6143 -0.0615
45245SOL    HW142850   7.834   8.260   6.562  0.8032 -0.6429 -0.3628
45245SOL    HW242851   7.771   8.397   6.556  2.9136  0.4120  0.5498
45246SOL     OW42852  10.022  11.722   3.246 -0.2309  0.1322  0.0473
45246SOL    HW142853  10.004  11.632   3.220  3.7943 -0.9411  0.2830
45246SOL    HW242854   9.968  11.735   3.325 -1.9173 -1.5105 -0.7497
45247SOL     OW42855   0.410   9.194   7.746  0.2956 -0.3053 -0.5460
45247SOL    HW142856   0.481   9.205   7.682 -0.8566 -0.0777 -1.8229
45247SOL    HW242857   0.330   9.208   7.696 -0.6332  0.7303  1.1349
45248SOL     OW42858   5.756   6.205  10.427  0.3546  0.4830 -0.2131
45248SOL    HW142859   5.703   6.128  10.406  1.1943  0.0139 -0.6923
45248SOL    HW242860   5.794   6.231  10.344  0.0886  1.4221 -0.0480
45249SOL     OW42861   2.958   6.641   0.446  0.1966  0.4947 -0.0053
45249SOL    HW142862   2.923   6.555   0.467  2.0766  0.1216  1.9259
45249SOL    HW242863   3.016   6.626   0.372 -0.8515  0.4600 -0.8379
45250SOL     OW42864   1.438   8.861   0.343  0.0772  0.0351 -0.2072
45250SOL    HW142865   1.351   8.892   0.319  0.1108  0.1582 -0.1706
45250SOL    HW242866   1.442   8.873   0.438  0.5029  0.9699 -0.3371
45251SOL     OW42867  10.381  10.800   7.658 -0.8937  0.1502 -0.1834
45251SOL    HW142868  10.418  10.852   7.729  0.2177 -0.3012 -0.4172
45251SOL    HW242869  10.292  10.833   7.649 -0.0919  2.3779 -0.6550
45252SOL     OW42870  10.245   9.506   0.407 -0.4782 -0.1194 -0.0370
45252SOL    HW142871  10.334   9.524   0.376  0.7135 -2.2085  1.8415
45252SOL    HW242872  10.224   9.420   0.370  0.1961 -1.7448  3.0005
45253SOL     OW42873   6.633   5.215   8.792 -0.0055 -0.1050 -0.4681
45253SOL    HW142874   6.710   5.235   8.739  0.9404 -1.4784  0.3269
45253SOL    HW242875   6.668   5.195   8.879 -1.3105 -0.3148  0.0342
45254SOL     OW42876   2.408   8.014   6.916  0.3813  0.5033  0.0805
45254SOL    HW142877   2.339   7.973   6.863 -0.1841 -0.4398  1.4914
45254SOL    HW242878   2.470   8.048   6.852 -0.2906 -0.5712 -1.1868
45255SOL     OW42879   5.613   8.994   4.006  0.2429 -0.1634 -0.2020
45255SOL    HW142880   5.604   8.903   4.034 -0.1024  0.0706  0.4603
45255SOL    HW242881   5.524   9.030   4.012  0.2517  0.0449 -1.0929
45256SOL     OW42882   2.192  10.970   5.450  0.6725  0.0530 -0.0157
45256SOL    HW142883   2.217  10.897   5.508 -0.0142  0.3107  0.6210
45256SOL    HW242884   2.139  11.027   5.505  1.1025  0.9856 -0.5471
45257SOL     OW42885   1.872   3.147   6.583  0.3908  0.2877  0.3706
45257SOL    HW142886   1.873   3.065   6.533  1.3722  0.2510  0.4310
45257SOL    HW242887   1.780   3.159   6.608 -0.0198 -0.0139 -0.9155
45258SOL     OW42888  11.774   2.483   8.919  0.1556 -0.4301  0.0185
45258SOL    HW142889  11.797   2.463   8.828  0.2357 -0.7482  0.1077
45258SOL    HW242890  11.815   2.413   8.970 -0.1940 -0.4563  0.2644
45259SOL     OW42891   3.762   3.054   2.804  0.2136  0.2408  0.1564
45259SOL    HW142892   3.857   3.062   2.792  0.0583  1.1022 -0.6672
45259SOL    HW242893   3.734   3.141   2.833 -0.4385  0.2900 -0.5679
45260SOL     OW42894  10.431  11.288   1.615 -0.6667  0.3696  0.4449
45260SOL    HW142895  10.377  11.210   1.621 -0.7349  0.2414 -1.3178
45260SOL    HW242896  10.449  11.312   1.706  0.6320 -2.5717  1.1088
45261SOL     OW42897   8.311  11.798   5.726 -0.3098  0.3472 -0.2659
45261SOL    HW142898   8.308  11.817   5.820 -0.0459 -0.6958 -0.0363
45261SOL    HW242899   8.352  11.876   5.687 -1.3453  1.2213  0.3465
45262SOL     OW42900   1.553   5.266  10.310  0.0813  0.5482 -0.6415
45262SOL    HW142901   1.583   5.332  10.373  1.6033 -0.3175 -0.4129
45262SOL    HW242902   1.523   5.193  10.365  1.9624 -0.4493 -0.8490
45263SOL     OW42903   4.481   1.383  11.897  0.1663 -0.0437 -0.1370
45263SOL    HW142904   4.552   1.324  11.872  0.5738 -0.0562  0.9852
45263SOL    HW242905   4.448   1.418  11.814 -1.1353 -3.0073 -1.0181
45264SOL     OW42906   5.232   6.869   0.662 -0.0516  0.0866 -0.3072
45264SOL    HW142907   5.235   6.962   0.638  1.6980  0.1365 -0.0759
45264SOL    HW242908   5.313   6.833   0.626  0.5078 -0.8015  1.6827
45265SOL     OW42909   1.395   3.237   2.629 -0.1331  0.9294  0.3099
45265SOL    HW142910   1.397   3.259   2.536  2.4475  0.2865  0.1573
45265SOL    HW242911   1.378   3.142   2.630  0.3497  0.8460  0.4792
45266SOL     OW42912   5.105   1.932   4.707  0.0918 -0.0170  0.4499
45266SOL    HW142913   5.148   1.971   4.783 -0.6656  1.7950  0.0107
45266SOL    HW242914   5.020   1.903   4.740  0.1629 -0.1719  0.5003
45267SOL     OW42915   4.799  11.944  12.902 -0.0435 -0.4383  0.3969
45267SOL    HW142916   4.755  11.889  12.965 -0.9829 -0.0215  0.1203
45267SOL    HW242917   4.729  11.995  12.861  0.3724 -1.4798 -1.7724
45268SOL     OW42918   5.392   3.672  12.219 -0.3567  0.7218  0.2849
45268SOL    HW142919   5.454   3.740  12.243  1.4632 -0.3841 -0.9313
45268SOL    HW242920   5.447   3.594  12.206 -2.0635 -0.4192 -0.4577
45269SOL     OW42921   6.354   6.249   7.491  0.3224 -0.2795  0.6285
45269SOL    HW142922   6.354   6.286   7.403  0.6790 -0.8371  0.3908
45269SOL    HW242923   6.387   6.320   7.547  0.7255 -0.1436  0.2212
45270SOL     OW42924   5.200   6.513  11.398  0.5937  0.2089 -0.2069
45270SOL    HW142925   5.186   6.596  11.443  0.1659 -0.1962  0.4388
45270SOL    HW242926   5.192   6.447  11.468  0.0704 -0.4246 -0.8524
45271SOL     OW42927   7.164   6.977   9.809  0.1521  0.6349  0.1278
45271SOL    HW142928   7.143   7.042   9.876  0.7484  1.5245 -0.5333
45271SOL    HW242929   7.160   7.025   9.727  2.2691  0.2540 -0.2432
45272SOL     OW42930   0.735   2.918  10.273  0.0753  0.0005  0.8835
45272SOL    HW142931   0.729   2.862  10.350  0.2023  0.0555  0.9344
45272SOL    HW242932   0.668   2.885  10.214 -0.5158  0.4089  1.3060
45273SOL     OW42933   7.706  10.520   4.710 -0.1240 -0.2755 -0.0357
45273SOL    HW142934   7.613  10.540   4.701  0.0045 -0.2436 -1.5574
45273SOL    HW242935   7.712  10.472   4.793 -1.2472  1.0423  0.8576
45274SOL     OW42936   1.196   4.442   4.230  0.3127  0.2282  0.0171
45274SOL    HW142937   1.234   4.496   4.299  0.3878 -0.3687  0.4538
45274SOL    HW242938   1.127   4.392   4.275  1.6005 -1.5672  0.1101
45275SOL     OW42939   9.543   1.547  11.572  0.0952  0.4237 -0.1442
45275SOL    HW142940   9.494   1.478  11.527  0.0976  0.1088  0.3311
45275SOL    HW242941   9.538   1.524  11.665  2.2917 -0.3921 -0.1699
45276SOL     OW42942   3.520   5.301   0.379  0.1993 -1.0157  0.2008
45276SOL    HW142943   3.588   5.329   0.440  1.4708 -2.9578 -0.2458
45276SOL    HW242944   3.567   5.275   0.300 -1.3521  0.6566 -1.3781
45277SOL     OW42945   2.295  12.453   2.998  0.4972 -0.0452  0.1798
45277SOL    HW142946   2.345  12.477   3.075  1.0377 -0.8964  0.1092
45277SOL    HW242947   2.350  12.388   2.953 -1.2919 -2.1539  0.8775
45278SOL     OW42948   4.974   4.908   2.944  0.2830  0.6857 -0.5198
45278SOL    HW142949   4.954   4.819   2.972  1.3518  0.4248 -0.5708
45278SOL    HW242950   4.995   4.955   3.024  0.7979  0.6077 -0.6080
45279SOL     OW42951   5.630   5.489  12.868 -0.0697  0.3770 -0.4608
45279SOL    HW142952   5.589   5.418  12.917 -0.0640  1.2511  0.8406
45279SOL    HW242953   5.556   5.540  12.833 -0.0928  0.6706  0.0050
45280SOL     OW42954   6.535   1.975   0.072  0.5834 -0.2325  0.0050
45280SOL    HW142955   6.470   2.037   0.039 -0.2752 -0.5691  1.0104
45280SOL    HW242956   6.484   1.910   0.120  1.6972 -0.2872  1.1527
45281SOL     OW42957   2.762   4.297   1.667  0.2262  0.3575 -0.2616
45281SOL    HW142958   2.704   4.331   1.736 -1.2818 -1.1930 -0.7010
45281SOL    HW242959   2.850   4.313   1.700 -0.4489  0.1123  1.8137
45282SOL     OW42960   3.887   4.656  11.792  0.1814  0.1851  0.2906
45282SOL    HW142961   3.820   4.670  11.859 -1.0205 -0.1819 -0.7882
45282SOL    HW242962   3.901   4.743  11.754 -0.9471  0.0100 -0.5978
45283SOL     OW42963   3.288   6.849   1.238  0.3245  1.0126 -0.4466
45283SOL    HW142964   3.298   6.760   1.204 -0.7966  0.9911 -0.7723
45283SOL    HW242965   3.234   6.840   1.316 -0.5042  1.4895 -0.9550
45284SOL     OW42966   7.799   0.953   1.083  0.3528  0.0254  1.2012
45284SOL    HW142967   7.795   0.995   1.169  1.6995  0.1482  1.2297
45284SOL    HW242968   7.742   1.007   1.028 -0.3625  0.0676  1.9595
45285SOL     OW42969  10.253   8.005   9.348  0.3986  0.0713  0.1793
45285SOL    HW142970  10.257   7.955   9.267 -1.1091  1.0399 -0.5331
45285SOL    HW242971  10.288   7.946   9.415  0.8656 -1.0507 -1.0260
45286SOL     OW42972  10.711   3.034  12.130 -0.2610  0.4712 -0.2585
45286SOL    HW142973  10.781   2.979  12.165  0.0441  0.8722 -0.2287
45286SOL    HW242974  10.728   3.121  12.167  0.1574  0.9445 -1.5183
45287SOL     OW42975  12.619   0.138   1.994 -0.5183 -0.2093  0.5039
45287SOL    HW142976  12.587   0.061   1.947  1.0677 -0.2224 -0.6217
45287SOL    HW242977  12.688   0.173   1.938  1.0680  0.1140  2.5472
45288SOL     OW42978   7.958  11.377   8.680 -0.2061 -0.6043  0.0331
45288SOL    HW142979   7.941  11.408   8.591  0.8807  0.7062  0.2578
45288SOL    HW242980   8.053  11.382   8.689 -0.3725  0.1694  1.5795
45289SOL     OW42981   5.191   2.596  11.128 -0.0176 -0.0999 -0.1104
45289SOL    HW142982   5.171   2.503  11.144 -0.5063  0.2355  1.3205
45289SOL    HW242983   5.137   2.644  11.190 -0.1364  1.2026 -1.1627
45290SOL     OW42984  11.790   6.813  10.047 -0.0587 -0.5030  0.3413
45290SOL    HW142985  11.842   6.737  10.021  0.2157 -0.3441  0.4223
45290SOL    HW242986  11.701   6.779  10.057 -0.2200 -0.5313 -0.9893
45291SOL     OW42987   7.146  12.667   3.248 -0.2024 -0.5726 -0.7052
45291SOL    HW142988   7.155  12.580   3.287 -2.3941 -0.3338  0.4846
45291SOL    HW242989   7.062  12.699   3.280  0.4695  1.9343 -1.2333
45292SOL     OW42990   5.211   2.432  10.530 -0.1602 -0.4672 -0.7839
45292SOL    HW142991   5.195   2.442  10.624  0.7508 -1.0173 -0.5626
45292SOL    HW242992   5.297   2.471  10.516  0.4456 -1.8462 -1.0855
45293SOL     OW42993  11.076  10.988   7.581 -0.5374  0.3753  0.2541
45293SOL    HW142994  11.024  10.911   7.561 -1.0353  0.4967  1.0685
45293SOL    HW242995  11.157  10.954   7.620 -1.3705  0.2912  2.0013
45294SOL     OW42996  12.350   9.856   4.343 -0.1056  0.1010 -0.9555
45294SOL    HW142997  12.359   9.924   4.275 -1.3341  1.1676 -0.0940
45294SOL    HW242998  12.264   9.871   4.381  0.2259 -0.9940  0.3077
45295SOL     OW42999   1.192   1.692   3.279  0.0675  0.1096 -0.1708
45295SOL    HW143000   1.234   1.772   3.311  0.5091  0.5878 -1.8203
45295SOL    HW243001   1.240   1.621   3.321  1.5692  0.6885 -0.8280
45296SOL     OW43002  10.622   0.040   0.255  0.2916 -0.1130  0.2561
45296SOL    HW143003  10.660   0.077   0.175 -0.4779  0.3295  0.0821
45296SOL    HW243004  10.548  -0.012   0.224 -0.3332  0.4889  0.7200
45297SOL     OW43005   2.994   1.605   5.175  1.0534  0.2960 -0.1444
45297SOL    HW143006   2.943   1.525   5.188 -1.0949  1.7744  1.1544
45297SOL    HW243007   3.011   1.637   5.263  1.7537  1.3493 -0.6454
45298SOL     OW43008   5.576   6.152  11.312 -0.1056  0.0929  0.7918
45298SOL    HW143009   5.506   6.091  11.289  0.5121 -0.1736 -0.4871
45298SOL    HW243010   5.657   6.105  11.290  0.4323  0.7972  1.2300
45299SOL     OW43011  12.902   5.915   3.860  0.2998 -0.2154 -0.1753
45299SOL    HW143012  12.984   5.963   3.878 -1.1671  1.6593  2.1783
45299SOL    HW243013  12.898   5.849   3.929 -1.0954  1.0837  1.0537
45300SOL     OW43014   0.250   3.572   9.003  0.3487 -0.3214 -0.6951
45300SOL    HW143015   0.222   3.612   9.085 -0.3463 -0.6130 -0.7758
45300SOL    HW243016   0.292   3.643   8.955 -0.0632  0.0903 -0.4633
45301SOL     OW43017  10.102   1.771   4.003  0.2069  0.4794 -0.3048
45301SOL    HW143018  10.054   1.780   4.086  2.1533  0.2932  0.9052
45301SOL    HW243019  10.035   1.782   3.936 -1.6405 -0.4463  1.2803
45302SOL     OW43020  11.881   8.743  12.161  0.3858  0.5582 -0.5993
45302SOL    HW143021  11.854   8.794  12.085 -1.9398  2.8359  1.5557
45302SOL    HW243022  11.832   8.661  12.153  2.5379 -0.6431 -3.0060
45303SOL     OW43023   5.465   5.981   0.392  0.4988 -0.0638 -0.2445
45303SOL    HW143024   5.548   6.009   0.352 -0.0947  0.2785 -1.2682
45303SOL    HW243025   5.492   5.931   0.469  1.6495  0.4230 -0.3019
45304SOL     OW43026   3.494   7.102   1.995 -0.2235 -0.0479  0.0830
45304SOL    HW143027   3.561   7.038   2.022  0.9643  1.4565  0.8668
45304SOL    HW243028   3.472   7.149   2.075 -0.5115  1.0200 -0.6078
45305SOL     OW43029   4.057  10.734   3.183  0.3902 -0.4946  0.8082
45305SOL    HW143030   4.082  10.715   3.274  0.0713 -0.1139  0.9825
45305SOL    HW243031   4.048  10.648   3.142  2.0975 -0.6434  0.6906
45306SOL     OW43032   2.639   4.591   2.513 -0.2041  0.0872 -0.3169
45306SOL    HW143033   2.622   4.657   2.446  0.0058 -1.3101 -1.8247
45306SOL    HW243034   2.552   4.565   2.544 -0.4395 -0.8618 -1.7132
45307SOL     OW43035  12.232  11.654   3.149  0.1516  0.1714 -0.1291
45307SOL    HW143036  12.148  11.626   3.113 -0.0909 -2.4560  2.1602
45307SOL    HW243037  12.210  11.725   3.210 -0.6011 -1.0656  1.1001
45308SOL     OW43038   6.228   8.273   6.003 -0.0622  0.2567  0.0511
45308SOL    HW143039   6.279   8.268   6.084 -0.8577 -1.0609  0.5008
45308SOL    HW243040   6.207   8.366   5.993  0.4975  0.5047  1.0681
45309SOL     OW43041   0.843   4.162  11.839  0.5176  0.0327  0.5330
45309SOL    HW143042   0.821   4.255  11.846 -0.0440 -0.2097  3.3800
45309SOL    HW243043   0.788   4.120  11.905  0.2645 -2.4533 -1.1466
45310SOL     OW43044   9.469  12.257   4.753 -0.2782  0.3071 -0.6226
45310SOL    HW143045   9.541  12.237   4.812 -0.7944 -1.5376 -0.5590
45310SOL    HW243046   9.407  12.307   4.807  0.4963  1.0439 -0.4059
45311SOL     OW43047   6.271   4.762  11.497 -0.0021 -0.4995 -0.3812
45311SOL    HW143048   6.244   4.746  11.587  0.0986 -0.0584 -0.2716
45311SOL    HW243049   6.360   4.725  11.492  0.0103 -0.4823 -0.2874
45312SOL     OW43050   5.760  12.744  10.682 -0.6161  0.0967  0.8825
45312SOL    HW143051   5.791  12.776  10.766  0.2543 -1.4887  1.2007
45312SOL    HW243052   5.784  12.651  10.680  2.1059  0.6750 -2.3041
45313SOL     OW43053   4.824   8.484   3.373 -0.3128  0.2565  0.6405
45313SOL    HW143054   4.819   8.400   3.328 -1.2773  0.5962  0.0963
45313SOL    HW243055   4.735   8.499   3.405 -0.1344  1.0502  0.7762
45314SOL     OW43056   2.301   4.844   7.991 -0.1747 -0.0538 -0.5191
45314SOL    HW143057   2.315   4.879   7.903 -1.4471  0.9199 -0.3587
45314SOL    HW243058   2.268   4.755   7.976 -0.5368  0.1641 -1.0397
45315SOL     OW43059   3.241   8.749   2.926  0.1217  0.4284  0.0923
45315SOL    HW143060   3.249   8.689   3.000 -2.2613  0.0239  0.0884
45315SOL    HW243061   3.147   8.765   2.917  0.1601 -0.5630 -3.6449
45316SOL     OW43062   7.806   0.139   7.963  0.0234  0.3096 -0.5912
45316SOL    HW143063   7.804   0.205   7.894 -1.1566  0.4033 -0.4867
45316SOL    HW243064   7.880   0.164   8.019 -0.4997  1.6480 -0.4665
45317SOL     OW43065   9.844   7.753   9.401 -0.4727  0.5648 -0.0714
45317SOL    HW143066   9.804   7.764   9.315 -0.0667  2.1462 -0.0759
45317SOL    HW243067   9.873   7.840   9.426  0.6625 -0.1067  1.0685
45318SOL     OW43068  11.369   2.704   5.190 -0.1669 -0.0808 -0.2183
45318SOL    HW143069  11.413   2.778   5.148  0.3009 -0.6486 -0.7532
45318SOL    HW243070  11.293   2.743   5.234  0.2859  0.7638 -0.1662
45319SOL     OW43071   7.448   4.588   9.211 -0.1336 -0.1030  0.7367
45319SOL    HW143072   7.421   4.659   9.153 -2.2414 -1.0112  0.5077
45319SOL    HW243073   7.526   4.621   9.256 -1.0317  2.3231  0.6098
45320SOL     OW43074   3.561   0.271  11.866  0.1545 -0.3974 -0.0286
45320SOL    HW143075   3.591   0.244  11.952 -3.0641 -2.5149  0.6051
45320SOL    HW243076   3.630   0.241  11.806  2.7283  1.6013  1.6928
45321SOL     OW43077   6.666   8.864  10.600  0.0614 -0.4874 -0.1924
45321SOL    HW143078   6.682   8.921  10.676  0.1003 -2.0136  0.9845
45321SOL    HW243079   6.659   8.925  10.526  3.3388  0.8935  0.4332
45322SOL     OW43080   2.867  10.665  10.053 -0.1307 -0.3362  0.1440
45322SOL    HW143081   2.820  10.732  10.004 -0.5756 -1.3809 -0.9177
45322SOL    HW243082   2.805  10.637  10.120  0.0252  0.2528  0.5362
45323SOL     OW43083   9.649   1.503   3.428  1.0276 -0.2088 -0.8140
45323SOL    HW143084   9.563   1.527   3.463  1.5193  2.2722 -1.1275
45323SOL    HW243085   9.640   1.410   3.406 -0.5970 -0.8233  1.9118
45324SOL     OW43086  12.086   6.119   0.940 -0.8537  0.3916  0.2168
45324SOL    HW143087  12.017   6.166   0.987 -2.0186  0.1453 -1.1664
45324SOL    HW243088  12.040   6.048   0.895  0.4190 -0.1929 -0.2082
45325SOL     OW43089   8.717   7.291   1.750  0.4490 -0.5493 -0.0915
45325SOL    HW143090   8.775   7.366   1.742  1.2118 -1.2649 -1.7853
45325SOL    HW243091   8.676   7.301   1.836  1.2952  1.2316  0.1487
45326SOL     OW43092   8.171   5.013   6.684  0.0018 -0.0047 -1.1601
45326SOL    HW143093   8.140   5.051   6.603 -1.1745 -1.3387 -1.3793
45326SOL    HW243094   8.098   4.959   6.715  0.3524  0.6198  0.8846
45327SOL     OW43095   2.514   7.963  10.680 -0.0589 -0.4225  0.5583
45327SOL    HW143096   2.488   7.882  10.636 -0.2794  0.6146 -1.3446
45327SOL    HW243097   2.600   7.983  10.643 -0.7375  1.0665 -0.3167
45328SOL     OW43098   7.717   0.435  11.257 -0.4523  0.1867 -0.3147
45328SOL    HW143099   7.664   0.485  11.319 -0.2521 -0.4465  0.3825
45328SOL    HW243100   7.706   0.481  11.174 -1.0812  0.7935  0.0902
45329SOL     OW43101   9.808   9.246   7.239  0.5253  0.0020 -0.0599
45329SOL    HW143102   9.820   9.341   7.244 -0.5608  0.4559 -3.3351
45329SOL    HW243103   9.809   9.227   7.145  0.6375 -3.2575  0.4820
45330SOL     OW43104  10.233   8.941   0.770  0.0247  0.2262 -0.6605
45330SOL    HW143105  10.235   8.909   0.680 -2.3000 -1.1264 -0.2986
45330SOL    HW243106  10.145   8.979   0.780 -0.6303 -1.6982  1.6506
45331SOL     OW43107  10.210  12.599   7.865  0.3856 -0.1049 -0.4313
45331SOL    HW143108  10.197  12.519   7.915  1.5830 -0.1982 -0.2263
45331SOL    HW243109  10.218  12.668   7.931 -0.8140  0.2208 -0.6133
45332SOL     OW43110   2.841   4.793  11.905 -0.2607  0.1587  0.3791
45332SOL    HW143111   2.873   4.746  11.828  0.9499  0.9847  0.3473
45332SOL    HW243112   2.889   4.755  11.979 -0.0034  0.6516  0.4740
45333SOL     OW43113   5.228   7.468   3.072  0.0254 -0.0704  0.3073
45333SOL    HW143114   5.210   7.376   3.055  0.9693 -0.2631  0.3035
45333SOL    HW243115   5.143   7.505   3.097 -0.6756 -0.6042 -1.1475
45334SOL     OW43116  12.712   8.536   9.586 -0.0809  0.1982 -0.0869
45334SOL    HW143117  12.656   8.462   9.563 -0.1794  0.5785 -1.1430
45334SOL    HW243118  12.697   8.549   9.680 -0.7228 -0.5589 -0.0711
45335SOL     OW43119   4.660   1.023   1.830  0.0625  0.4399  0.6210
45335SOL    HW143120   4.659   0.988   1.919 -1.1838 -1.2096  0.0195
45335SOL    HW243121   4.673   0.946   1.774  0.3153  1.3711 -0.6451
45336SOL     OW43122  12.121  10.156   0.921 -0.2805 -0.8326 -0.2119
45336SOL    HW143123  12.093  10.112   0.841 -0.9743  0.3164 -0.6397
45336SOL    HW243124  12.212  10.181   0.904 -0.3604 -0.7729 -0.5662
45337SOL     OW43125  12.421  12.080   6.679  0.9431 -0.7071 -0.4271
45337SOL    HW143126  12.483  12.093   6.606  0.3566 -1.9597 -1.1757
45337SOL    HW243127  12.365  12.008   6.650  0.0370 -0.5379  0.8472
45338SOL     OW43128   7.850   3.215   8.093  0.2617 -0.1295 -0.1561
45338SOL    HW143129   7.827   3.296   8.048  0.9306  0.5383  0.6593
45338SOL    HW243130   7.794   3.213   8.171 -0.9915 -1.3451 -1.0378
45339SOL     OW43131   8.889   6.921  12.582  0.0163  0.5308 -0.0053
45339SOL    HW143132   8.894   7.002  12.531  1.3755 -0.2070 -1.1272
45339SOL    HW243133   8.980   6.897  12.598 -0.2658 -1.6134 -1.1273
45340SOL     OW43134   9.436  12.201   5.982  0.4705  0.2655  0.5651
45340SOL    HW143135   9.372  12.164   6.042 -0.3635  0.4137 -0.2090
45340SOL    HW243136   9.399  12.184   5.895  1.7666 -0.1753  0.0762
45341SOL     OW43137   3.475  11.792  12.770 -0.5738  0.3906  0.0301
45341SOL    HW143138   3.417  11.862  12.799 -0.1243  1.3098 -1.1889
45341SOL    HW243139   3.419  11.715  12.761 -1.5903  1.2133 -0.9432
45342SOL     OW43140  11.082  10.161  11.839 -0.0506  0.6961  0.3929
45342SOL    HW143141  11.109  10.231  11.899  0.5786  0.1220  0.8091
45342SOL    HW243142  11.079  10.083  11.894  0.2480  0.2101 -0.2610
45343SOL     OW43143   3.013   5.641  11.182  0.9494  0.2225 -0.3196
45343SOL    HW143144   3.032   5.554  11.147 -0.5626 -0.2993  0.0975
45343SOL    HW243145   3.068   5.700  11.131  0.8097 -0.8090 -1.7022
45344SOL     OW43146   4.988   2.729  11.298 -0.5043 -0.2297 -0.7495
45344SOL    HW143147   5.029   2.790  11.359  2.8022 -1.5231 -1.5054
45344SOL    HW243148   4.973   2.649  11.350  1.9640 -1.2007 -1.4203
45345SOL     OW43149   9.895   7.461   8.709 -0.5841  0.3707  0.3363
45345SOL    HW143150   9.919   7.380   8.755  0.8265 -0.2650 -1.4268
45345SOL    HW243151   9.931   7.531   8.764  3.5966 -0.4647 -0.9848
45346SOL     OW43152  10.586   3.191   7.299 -0.8430  0.0279 -0.0209
45346SOL    HW143153  10.503   3.239   7.306 -0.3034  1.3484 -1.7373
45346SOL    HW243154  10.563   3.100   7.314 -2.9367  0.1401 -1.9572
45347SOL     OW43155  12.000   1.024   2.519  0.3689 -0.8345 -0.0750
45347SOL    HW143156  12.086   1.064   2.506  0.7816 -1.7944 -0.4218
45347SOL    HW243157  11.949   1.090   2.567 -0.1338  1.5500 -3.5131
45348SOL     OW43158  10.117   4.407  10.350  0.5351  0.3064  0.0139
45348SOL    HW143159  10.121   4.497  10.384  1.8067  0.6040 -0.8044
45348SOL    HW243160  10.072   4.357  10.418  0.7904  1.3463  0.9889
45349SOL     OW43161  11.402   0.674   5.271 -0.6637  0.1592  0.0649
45349SOL    HW143162  11.325   0.654   5.218 -0.2480  1.3663 -1.0631
45349SOL    HW243163  11.371   0.740   5.334 -0.9911 -0.7641  0.8894
45350SOL     OW43164   3.483   2.160   0.615  1.1804 -0.4188 -0.0388
45350SOL    HW143165   3.504   2.069   0.638 -0.0691 -1.1957 -1.8137
45350SOL    HW243166   3.393   2.157   0.584 -0.0585  2.0203  2.8349
45351SOL     OW43167  10.591   4.337   1.696 -0.2236  0.0890 -0.2905
45351SOL    HW143168  10.644   4.320   1.618  1.6215  1.0731  0.6864
45351SOL    HW243169  10.587   4.252   1.740 -0.5100 -0.2641 -0.9637
45352SOL     OW43170   6.314   2.330   9.812 -0.3022 -0.2316 -0.5391
45352SOL    HW143171   6.357   2.276   9.878 -0.0155  0.3890 -0.1996
45352SOL    HW243172   6.223   2.333   9.839 -0.3858 -0.8191 -0.7516
45353SOL     OW43173  12.502   0.382   3.234 -0.0942  0.0129  0.1520
45353SOL    HW143174  12.539   0.420   3.313 -1.9269  0.7960  0.6727
45353SOL    HW243175  12.494   0.289   3.254 -0.2817  0.1614  0.7965
45354SOL     OW43176   5.300   2.735   7.136  0.5323  0.1855  0.3671
45354SOL    HW143177   5.270   2.657   7.183  0.8035 -0.1436  0.0009
45354SOL    HW243178   5.320   2.703   7.048  1.2137  0.5615  0.3854
45355SOL     OW43179  10.116   7.263   2.728  0.1031  0.5570  0.1044
45355SOL    HW143180  10.067   7.330   2.681  0.0486  0.7467  0.4276
45355SOL    HW243181  10.202   7.261   2.685 -0.6187 -0.7432 -1.3640
45356SOL     OW43182   9.906   7.059   2.777  0.0637  0.4554 -0.0923
45356SOL    HW143183   9.859   7.118   2.719  0.2506  0.9409  0.2490
45356SOL    HW243184   9.998   7.084   2.769  0.1564  0.1422 -0.0299
45357SOL     OW43185   3.313   3.741   5.448 -0.6194  0.8820 -0.2885
45357SOL    HW143186   3.221   3.737   5.422 -0.2332 -0.0694 -1.5827
45357SOL    HW243187   3.313   3.717   5.540 -1.7177  1.4524 -0.1204
45358SOL     OW43188   2.632  10.683  12.858 -0.8967 -0.9330 -0.0327
45358SOL    HW143189   2.646  10.661  12.766  0.1904  1.6103 -0.5623
45358SOL    HW243190   2.718  10.674  12.898 -1.2040 -1.2311  0.5774
45359SOL     OW43191   9.148  10.113   9.771  0.1151 -0.3568 -0.9698
45359SOL    HW143192   9.204  10.165   9.829 -1.8119  1.8105 -0.9255
45359SOL    HW243193   9.149  10.161   9.688 -0.8814 -0.8426 -1.2673
45360SOL     OW43194  11.831   2.524   6.155  0.4306 -0.2545  0.2174
45360SOL    HW143195  11.876   2.494   6.076 -0.4372  0.0148 -0.3948
45360SOL    HW243196  11.863   2.467   6.225  1.4131 -0.3193 -0.2753
45361SOL     OW43197  12.006   1.235   5.997 -0.4101 -0.0250 -0.0028
45361SOL    HW143198  12.016   1.151   6.041  2.1802  0.9741  1.5529
45361SOL    HW243199  11.978   1.295   6.066 -1.1704  0.6099 -0.8433
45362SOL     OW43200   8.373   0.539  11.736 -0.5127  0.4763  0.3068
45362SOL    HW143201   8.427   0.579  11.668 -0.5426  0.5629  0.3328
45362SOL    HW243202   8.384   0.445  11.722 -1.8713  0.4545 -0.9139
45363SOL     OW43203   6.728  10.438  11.515 -0.4778  0.2328  0.5135
45363SOL    HW143204   6.791  10.390  11.460 -0.1479  0.7030  0.4756
45363SOL    HW243205   6.782  10.481  11.581 -0.5284  2.1632 -0.6185
45364SOL     OW43206   2.875   9.795   5.565 -0.0723 -0.0416 -0.0225
45364SOL    HW143207   2.804   9.857   5.585 -0.2489 -1.0055  2.8146
45364SOL    HW243208   2.830   9.720   5.526 -0.5889 -0.4538  1.3204
45365SOL     OW43209   2.062   3.269   4.499  0.1600 -0.2169  0.1371
45365SOL    HW143210   2.086   3.176   4.498  1.8045  0.1687 -1.4242
45365SOL    HW243211   2.097   3.303   4.417 -1.9803  1.4307 -0.1511
45366SOL     OW43212  11.967   1.229   5.721 -0.6979 -0.4223  0.2359
45366SOL    HW143213  11.986   1.318   5.689 -2.2568 -0.6359 -1.4491
45366SOL    HW243214  11.963   1.238   5.816 -2.0635  1.6128  0.0504
45367SOL     OW43215   7.411   0.916   4.432 -0.3308 -0.5481 -0.1415
45367SOL    HW143216   7.422   0.911   4.527 -0.0297  0.2631 -0.1333
45367SOL    HW243217   7.318   0.935   4.420  0.1729  2.4700  0.1190
45368SOL     OW43218  11.919   1.198   2.265  0.1043  0.4323  0.5426
45368SOL    HW143219  12.007   1.180   2.231 -0.8568 -1.8661 -0.9529
45368SOL    HW243220  11.911   1.142   2.342  0.1950  1.2329  1.1492
45369SOL     OW43221   0.349   7.464  10.407 -0.5372  0.0839  0.5420
45369SOL    HW143222   0.391   7.448  10.491 -2.2290 -2.0831  1.0787
45369SOL    HW243223   0.273   7.518  10.427  0.0456  1.0988  0.0956
45370SOL     OW43224  12.506   6.323  11.656  0.0272  0.0284  0.4216
45370SOL    HW143225  12.514   6.417  11.671 -2.5016  0.2617  0.6932
45370SOL    HW243226  12.459   6.315  11.574 -1.2083 -0.9465  1.1907
45371SOL     OW43227  11.836   1.959   5.631  0.6359  0.0270 -0.0341
45371SOL    HW143228  11.771   1.975   5.700 -0.3342  2.1928 -1.3243
45371SOL    HW243229  11.810   1.876   5.592 -0.2176 -0.0706  0.6923
45372SOL     OW43230   2.431  11.403  10.517 -0.4193  0.0223  0.4614
45372SOL    HW143231   2.340  11.414  10.491 -0.2872  1.7308  0.6316
45372SOL    HW243232   2.466  11.492  10.520  0.9742 -0.5303  1.4265
45373SOL     OW43233   1.040   0.112  10.626  0.2180 -0.3328 -0.0598
45373SOL    HW143234   1.077   0.169  10.559 -1.1480  1.0042  0.2669
45373SOL    HW243235   1.109   0.103  10.692  0.9116 -0.1532 -0.7557
45374SOL     OW43236  10.001   7.594  12.120  0.3106 -0.5092  0.7928
45374SOL    HW143237  10.034   7.663  12.063  1.8393 -1.3294  0.6194
45374SOL    HW243238  10.031   7.618  12.207  1.7379 -1.4088  0.5926
45375SOL     OW43239   5.333   4.249   2.018 -0.1488  0.1060 -0.4380
45375SOL    HW143240   5.265   4.182   2.017  1.2289 -1.3818 -1.5262
45375SOL    HW243241   5.359   4.258   1.926  0.3071  1.4927 -0.1897
45376SOL     OW43242   8.686  10.185   1.252 -0.6775  0.2314 -0.2505
45376SOL    HW143243   8.623  10.125   1.291 -1.3015  1.0220 -0.0136
45376SOL    HW243244   8.635  10.262   1.230  0.5370  1.7050  1.7326
45377SOL     OW43245   6.240   9.405   3.672  0.2025  0.4640  0.1143
45377SOL    HW143246   6.239   9.323   3.722  1.6529  1.0464  1.1754
45377SOL    HW243247   6.318   9.398   3.616  0.3823  1.1383  0.2690
45378SOL     OW43248   8.485   2.775  11.775 -0.5885  0.3108 -0.1527
45378SOL    HW143249   8.574   2.804  11.757 -0.8123  1.1420  0.0658
45378SOL    HW243250   8.476   2.782  11.870 -1.2978  1.4514 -0.2894
45379SOL     OW43251   4.509  12.470   6.454 -0.2117  0.0977  0.3530
45379SOL    HW143252   4.416  12.451   6.469 -0.1995 -0.1173  0.1603
45379SOL    HW243253   4.556  12.395   6.490 -0.1424 -0.0417 -0.0217
45380SOL     OW43254  11.255   2.021  12.208 -0.9360  0.4107  0.1115
45380SOL    HW143255  11.227   1.953  12.147 -0.0753  0.1389  0.0035
45380SOL    HW243256  11.297   2.087  12.152  1.2638 -0.5656  0.5178
45381SOL     OW43257  11.084  12.925   3.277 -0.2130  0.3597 -0.6558
45381SOL    HW143258  10.994  12.917   3.310 -0.2570 -0.3620 -0.9339
45381SOL    HW243259  11.139  12.923   3.355 -0.4363  0.7915 -0.4835
45382SOL     OW43260   2.333   6.012   1.033  0.2059 -0.3296 -0.0296
45382SOL    HW143261   2.239   6.027   1.035  0.3659  1.2276 -1.4793
45382SOL    HW243262   2.346   5.945   0.965  0.2417  0.9802 -1.3814
45383SOL     OW43263   4.883   8.314   9.026 -0.1705 -0.0001  0.5400
45383SOL    HW143264   4.807   8.326   8.969 -0.4045  0.1105  0.8749
45383SOL    HW243265   4.896   8.219   9.029 -1.7552 -0.2163  2.3713
45384SOL     OW43266   6.045  11.244   0.634 -0.1379 -0.0440 -0.3153
45384SOL    HW143267   6.079  11.326   0.671 -1.9180  0.2596  0.7711
45384SOL    HW243268   6.098  11.230   0.555  1.0702  1.4512  0.1664
45385SOL     OW43269   2.070   5.470   6.353  0.4310 -0.0524 -0.6300
45385SOL    HW143270   2.053   5.388   6.306  1.4810 -0.9983  0.5663
45385SOL    HW243271   2.162   5.490   6.332  0.4838  0.2607 -0.0959
45386SOL     OW43272   4.789   1.803   7.383 -0.9125  0.4530 -0.1147
45386SOL    HW143273   4.879   1.836   7.385 -0.6157 -0.3619  1.4141
45386SOL    HW243274   4.777   1.759   7.467 -2.5922  0.1199 -0.4828
45387SOL     OW43275   3.761   3.018  10.887  0.4572  0.1563  0.3308
45387SOL    HW143276   3.827   2.988  10.950  1.5628 -2.5387 -1.9157
45387SOL    HW243277   3.683   3.031  10.940  2.1852  1.5202  2.7838
45388SOL     OW43278   9.277   3.653  10.017 -1.0283 -0.2992 -0.3942
45388SOL    HW143279   9.286   3.586   9.949 -1.9937 -1.0460  0.1803
45388SOL    HW243280   9.365   3.690  10.026 -0.7858 -0.4963 -1.7130
45389SOL     OW43281   9.882   2.200  10.081  0.2781 -0.5675  0.0081
45389SOL    HW143282   9.933   2.134  10.128 -1.5645 -1.0532  1.4305
45389SOL    HW243283   9.831   2.150  10.017 -1.6173 -0.6732  1.5310
45390SOL     OW43284   2.609   3.047   5.699  0.2356 -0.4515  0.0286
45390SOL    HW143285   2.693   3.086   5.673  0.3190  0.4236  1.5126
45390SOL    HW243286   2.614   3.041   5.795 -1.5299 -0.0962  0.1698
45391SOL     OW43287   5.467  12.956   0.985 -0.2394 -0.4808 -0.4555
45391SOL    HW143288   5.497  12.927   0.898 -0.1883 -0.6723 -0.3741
45391SOL    HW243289   5.426  12.879   1.023  0.5147 -0.6453  0.0396
45392SOL     OW43290   2.101  12.251   3.031  0.6195 -0.3190  0.4162
45392SOL    HW143291   2.153  12.332   3.038 -0.4864  0.2957  2.4965
45392SOL    HW243292   2.071  12.235   3.121 -0.1343 -2.4409 -0.1616
45393SOL     OW43293   7.878  11.946   1.555  0.0995 -0.1703 -0.3673
45393SOL    HW143294   7.931  11.966   1.478 -0.9014 -0.9032 -1.2676
45393SOL    HW243295   7.799  12.000   1.544 -0.7168 -1.3732 -0.6512
45394SOL     OW43296   3.892   3.776   2.825 -0.0335 -0.3319  0.2681
45394SOL    HW143297   3.922   3.842   2.763  2.0809 -1.7147 -0.2863
45394SOL    HW243298   3.946   3.790   2.903 -0.1886 -0.8244  0.4688
45395SOL     OW43299  11.910   5.894  11.766 -0.5206 -0.0034 -0.2412
45395SOL    HW143300  11.843   5.839  11.807  0.9800  0.5242  3.2271
45395SOL    HW243301  11.961   5.834  11.712 -0.8529 -1.4109  0.9493
45396SOL     OW43302   6.256   4.201   5.563  0.0672  0.0806  0.3979
45396SOL    HW143303   6.273   4.126   5.506 -1.5738  0.9901 -1.4129
45396SOL    HW243304   6.337   4.252   5.561 -0.2949  0.7041 -2.2041
45397SOL     OW43305   8.572   0.433   9.802 -0.0996 -0.6111  0.5742
45397SOL    HW143306   8.509   0.387   9.858 -0.8929  0.1056  0.2951
45397SOL    HW243307   8.628   0.481   9.863 -0.3149 -0.6401  0.7980
45398SOL     OW43308  12.436   2.623   7.663  0.3787  0.1300  0.1203
45398SOL    HW143309  12.361   2.567   7.646  1.5840 -1.2855 -0.7692
45398SOL    HW243310  12.407   2.711   7.637 -0.3535 -0.7091 -2.0969
45399SOL     OW43311   6.882   8.821  11.705  0.3072  0.4413  0.0360
45399SOL    HW143312   6.937   8.800  11.629 -0.4676  0.0013 -0.4163
45399SOL    HW243313   6.796   8.840  11.667  0.7218  3.8483  0.4349
45400SOL     OW43314   9.435   4.758   7.101 -0.2383  0.6438  0.3425
45400SOL    HW143315   9.372   4.696   7.138  0.4985  0.3268  1.0963
45400SOL    HW243316   9.502   4.703   7.060 -0.0847  0.9609  0.1650
45401SOL     OW43317   2.111  10.167   8.525  0.0439 -0.1762  0.2474
45401SOL    HW143318   2.125  10.076   8.498  0.8315 -0.6023  1.9550
45401SOL    HW243319   2.194  10.194   8.564 -0.5790  0.8620  0.9283
45402SOL     OW43320   5.885   8.441  11.918  0.0781  0.5994  0.2508
45402SOL    HW143321   5.944   8.514  11.936 -0.3044  0.6636  1.3156
45402SOL    HW243322   5.883   8.391  11.999 -1.5410  0.7458  0.3307
45403SOL     OW43323   0.460  10.521   7.128 -0.0440 -0.3407  0.0275
45403SOL    HW143324   0.426  10.470   7.202 -1.0937  2.0327  1.2886
45403SOL    HW243325   0.555  10.520   7.140 -0.1532 -0.6248  1.0127
45404SOL     OW43326   3.298   5.998   3.146  0.2448 -0.5312  0.3694
45404SOL    HW143327   3.219   5.977   3.095  0.2769  1.5334 -0.6017
45404SOL    HW243328   3.347   5.916   3.148  0.0950 -0.8072 -2.6937
45405SOL     OW43329   9.708   5.897   5.148  0.3631 -0.3554  0.0110
45405SOL    HW143330   9.784   5.935   5.193  1.6403 -1.2947 -1.2515
45405SOL    HW243331   9.735   5.807   5.129 -0.1665 -0.0553 -2.4449
45406SOL     OW43332   1.298   5.381   6.363 -0.4764 -0.2001 -0.2727
45406SOL    HW143333   1.275   5.413   6.450 -1.0934 -1.4716  0.0378
45406SOL    HW243334   1.391   5.360   6.370 -0.4910 -0.1696  0.0322
45407SOL     OW43335   5.028   2.666  11.721 -0.9745 -0.2018 -0.1262
45407SOL    HW143336   5.047   2.751  11.680 -0.8404 -0.0094  0.3259
45407SOL    HW243337   4.984   2.616  11.652  0.3171 -0.3226 -0.9033
45408SOL     OW43338   5.180  10.374   4.930 -0.0085 -0.8870 -0.2714
45408SOL    HW143339   5.185  10.395   5.023  0.6845 -3.8239  0.4505
45408SOL    HW243340   5.265  10.401   4.895  0.2314 -0.9770  0.2288
45409SOL     OW43341   2.438  10.933   4.430  0.4963  0.3934  0.8296
45409SOL    HW143342   2.372  10.871   4.400  0.1647  0.8296  0.6608
45409SOL    HW243343   2.490  10.953   4.352  0.3168  0.6831  0.7848
45410SOL     OW43344   9.736   5.898   7.112  0.1800 -0.7978 -0.5008
45410SOL    HW143345   9.829   5.879   7.120  0.2113 -0.5306 -0.2076
45410SOL    HW243346   9.698   5.818   7.076  0.5297 -0.8886 -0.6743
45411SOL     OW43347   0.630  11.068  10.035  0.4088 -0.1175  0.2160
45411SOL    HW143348   0.583  11.019  10.103 -0.3000  1.2252  0.7344
45411SOL    HW243349   0.608  11.160  10.053  2.3548  0.4719 -0.2033
45412SOL     OW43350   7.233  12.588   2.389 -0.5884  0.1241 -0.1727
45412SOL    HW143351   7.216  12.493   2.391  0.8931 -0.1653  0.1348
45412SOL    HW243352   7.159  12.624   2.340 -0.7266 -1.3017 -1.0977
45413SOL     OW43353  11.509   3.141   1.318  0.8471 -0.5535 -0.0323
45413SOL    HW143354  11.483   3.102   1.234 -1.3380  0.7780 -0.0466
45413SOL    HW243355  11.449   3.102   1.382  0.2512  0.9351  0.3393
45414SOL     OW43356  11.000   5.591   4.847 -0.0323  0.6134 -0.0513
45414SOL    HW143357  10.973   5.523   4.909 -1.3440 -0.4017 -1.6453
45414SOL    HW243358  10.965   5.672   4.883 -0.6042  0.0754  0.6395
45415SOL     OW43359   4.625  12.488   5.718 -0.6862  0.0352 -0.6329
45415SOL    HW143360   4.556  12.421   5.720 -0.2301 -0.4239 -0.1809
45415SOL    HW243361   4.684  12.459   5.649  0.0012 -0.5277  0.1751
45416SOL     OW43362   4.098   0.017   9.496  0.5531  0.9528 -0.5983
45416SOL    HW143363   4.176   0.066   9.469  0.5299  1.0031 -0.5735
45416SOL    HW243364   4.063   0.066   9.570 -0.4578  1.8811 -1.6511
45417SOL     OW43365   9.160  12.936   7.815  0.3214 -0.2480 -0.2405
45417SOL    HW143366   9.171  13.030   7.832  0.3030 -0.1600 -0.7025
45417SOL    HW243367   9.209  12.894   7.885 -1.2485  0.0737  1.1061
45418SOL     OW43368  11.720   0.198   9.179 -0.3476  0.1734  0.0576
45418SOL    HW143369  11.812   0.218   9.195  0.0570 -0.6562 -1.0880
45418SOL    HW243370  11.707   0.113   9.222 -0.9256  0.8364  1.2551
45419SOL     OW43371  12.428   5.580   6.237  0.6064 -0.4535 -0.1160
45419SOL    HW143372  12.463   5.493   6.218 -1.4909 -1.2020 -0.8671
45419SOL    HW243373  12.338   5.577   6.204 -0.4681  1.0687  2.4167
45420SOL     OW43374   8.849   4.179   3.962 -0.2059  0.1965  0.0956
45420SOL    HW143375   8.925   4.236   3.948  0.1476 -0.2573  0.1173
45420SOL    HW243376   8.887   4.094   3.983 -0.7252 -0.1000 -0.1466
45421SOL     OW43377   8.364   1.300  12.068  0.0729 -0.0341 -0.1354
45421SOL    HW143378   8.413   1.380  12.046  1.6677 -1.1992 -1.0370
45421SOL    HW243379   8.369   1.295  12.164 -0.7578  1.3568  0.0013
45422SOL     OW43380   1.785   5.858   1.098 -0.1062 -0.3454  0.3756
45422SOL    HW143381   1.861   5.818   1.056  0.0908 -0.5475  0.9259
45422SOL    HW243382   1.765   5.802   1.172 -1.9106 -1.3083 -0.7725
45423SOL     OW43383  11.628  12.913  10.726  0.0507 -0.0278 -0.3936
45423SOL    HW143384  11.588  12.999  10.714 -0.3353 -0.1036  0.3321
45423SOL    HW243385  11.555  12.852  10.730  0.3517 -0.5292 -1.8438
45424SOL     OW43386   2.785  11.553  12.465 -0.0064 -0.1424  0.1318
45424SOL    HW143387   2.691  11.571  12.469 -0.5479 -1.7049 -2.9602
45424SOL    HW243388   2.799  11.486  12.532 -0.9375  0.6148  1.1130
45425SOL     OW43389   8.329   6.562   1.763  0.4272 -0.2844 -0.3305
45425SOL    HW143390   8.350   6.655   1.769  0.2104 -0.1671 -1.2517
45425SOL    HW243391   8.370   6.523   1.840  1.3745  0.4098 -0.4737
45426SOL     OW43392   4.498   4.593  12.747 -0.3547 -0.0080 -0.0970
45426SOL    HW143393   4.555   4.612  12.672 -0.4694 -0.1771 -0.2288
45426SOL    HW243394   4.465   4.505  12.730  0.5010 -0.5029  0.7081
45427SOL     OW43395   4.985   3.696  11.362 -0.5152  0.1383 -0.5655
45427SOL    HW143396   4.958   3.613  11.401 -0.9480  0.3006 -0.5106
45427SOL    HW243397   5.080   3.689  11.354  0.0354  1.1571  3.0592
45428SOL     OW43398   0.337   3.900   4.830  0.0527 -0.4328 -0.6944
45428SOL    HW143399   0.340   3.815   4.787  0.8440 -0.5504 -0.4194
45428SOL    HW243400   0.311   3.961   4.761  1.8943 -0.5200 -1.5201
45429SOL     OW43401  12.191  11.541   7.426 -0.0113  0.2092 -0.0573
45429SOL    HW143402  12.151  11.454   7.430  0.8611 -0.1363  2.0567
45429SOL    HW243403  12.157  11.587   7.502  0.2236  1.4525 -0.6760
45430SOL     OW43404   2.649   9.091  12.209  0.2169 -0.1898 -0.5707
45430SOL    HW143405   2.584   9.043  12.260  0.9782  1.0370  1.6913
45430SOL    HW243406   2.628   9.070  12.118 -1.5760 -2.0284  0.1816
45431SOL     OW43407   4.231   0.587   7.971 -0.0918 -0.1789 -0.3139
45431SOL    HW143408   4.274   0.667   7.943  0.8280 -0.4115  0.3843
45431SOL    HW243409   4.197   0.606   8.059  0.9758 -0.8265  0.2655
45432SOL     OW43410   3.370   7.216   7.238  0.2845 -0.5692 -0.1290
45432SOL    HW143411   3.435   7.223   7.168  0.6640  0.4607  0.3103
45432SOL    HW243412   3.418   7.241   7.317 -0.5220 -0.2664  0.2695
45433SOL     OW43413   5.044   3.410  10.944 -0.4189 -0.0616 -0.3329
45433SOL    HW143414   4.990   3.454  10.879 -0.7957 -1.7705 -1.2269
45433SOL    HW243415   5.134   3.434  10.920 -0.6635  2.1129  0.6664
45434SOL     OW43416   5.583   8.025   7.611 -0.1987  0.1640  0.1781
45434SOL    HW143417   5.553   8.064   7.693  0.4205  1.5613 -0.2243
45434SOL    HW243418   5.677   8.012   7.624 -0.2644 -0.4969  0.0210
45435SOL     OW43419   9.061   7.419   3.288  0.7779  0.5088  0.1475
45435SOL    HW143420   9.087   7.341   3.337 -0.2520 -0.2089 -0.4296
45435SOL    HW243421   9.024   7.477   3.354  2.2144  0.8330  0.7004
45436SOL     OW43422  12.360   8.654   4.809 -0.6523  0.1930  0.3694
45436SOL    HW143423  12.289   8.714   4.787  0.0829  0.1776 -2.4608
45436SOL    HW243424  12.430   8.711   4.843  0.4969  1.3306 -3.4043
45437SOL     OW43425  11.999   6.173   5.809  0.5039 -0.2099  0.3275
45437SOL    HW143426  11.930   6.237   5.791 -0.8444 -1.7444 -0.1658
45437SOL    HW243427  12.070   6.198   5.750 -0.4985  0.0914 -0.7891
45438SOL     OW43428  11.009  10.992  11.275 -0.2473  0.2183  0.0651
45438SOL    HW143429  10.958  11.065  11.309 -1.3704 -0.2584 -0.5508
45438SOL    HW243430  10.956  10.915  11.294  0.3553 -0.3126 -0.3820
45439SOL     OW43431  11.332   9.592   1.564 -0.5540 -0.1421  0.5815
45439SOL    HW143432  11.353   9.520   1.504 -2.3219 -0.9793  0.9040
45439SOL    HW243433  11.243   9.618   1.541  0.3721  2.6593 -0.1750
45440SOL     OW43434   2.215   1.791   5.749 -0.1513 -0.7233 -0.8972
45440SOL    HW143435   2.137   1.779   5.694 -0.9342  1.7213 -0.4209
45440SOL    HW243436   2.250   1.875   5.722  0.3502 -0.1989  1.2564
45441SOL     OW43437  12.743  11.434   4.749  0.2234  0.4191 -0.1800
45441SOL    HW143438  12.822  11.421   4.801  0.1327  2.4924  0.5726
45441SOL    HW243439  12.679  11.471   4.810 -1.0998 -0.4709 -0.9520
45442SOL     OW43440   4.862   7.378   5.177  0.3359  0.0113 -0.6476
45442SOL    HW143441   4.826   7.428   5.104  0.1485 -0.3123 -0.7779
45442SOL    HW243442   4.786   7.334   5.215  0.3016  0.8117  0.2420
45443SOL     OW43443  12.754   4.620   9.398 -0.9060 -0.2497  0.0182
45443SOL    HW143444  12.838   4.585   9.429 -0.8026  0.1508  0.1954
45443SOL    HW243445  12.777   4.684   9.331 -1.1310 -1.1790 -0.9855
45444SOL     OW43446   1.961  11.205   7.768  0.2951  0.8485 -0.1143
45444SOL    HW143447   1.866  11.202   7.764  0.2086 -1.6952  1.6725
45444SOL    HW243448   1.990  11.201   7.677 -1.3218 -2.3465 -0.6031
45445SOL     OW43449  11.199   9.181   0.246  0.9373  0.1571 -0.4922
45445SOL    HW143450  11.127   9.207   0.305  0.7898 -1.5047  0.1063
45445SOL    HW243451  11.267   9.246   0.263 -0.3138  1.6689 -0.9359
45446SOL     OW43452   6.701   3.770   0.822  0.1947  0.1468 -0.3006
45446SOL    HW143453   6.656   3.734   0.899  2.3337  0.7044  1.3217
45446SOL    HW243454   6.681   3.708   0.752 -3.6106  0.7586  0.0532
45447SOL     OW43455   0.817  12.791   0.002  0.1856 -0.3552 -0.2346
45447SOL    HW143456   0.815  12.695   0.009 -1.5816 -0.3656 -0.3672
45447SOL    HW243457   0.787  12.822   0.087  2.8621  0.1842  0.5857
45448SOL     OW43458   8.769   1.167   8.968 -0.3776  0.4678  0.2418
45448SOL    HW143459   8.687   1.200   9.003  0.2386  2.5321 -0.1203
45448SOL    HW243460   8.821   1.245   8.951  0.4128 -0.5613 -2.6518
45449SOL     OW43461   7.204  12.198  10.780  0.0198  0.4403 -0.4118
45449SOL    HW143462   7.126  12.242  10.746 -0.9962  0.8992  2.3076
45449SOL    HW243463   7.250  12.265  10.829 -0.2532 -0.8359  1.7169
45450SOL     OW43464  10.125   0.536   7.041  0.2964 -0.0589  0.1960
45450SOL    HW143465  10.164   0.610   6.997  0.9929 -0.4723  0.1043
45450SOL    HW243466  10.079   0.574   7.116 -0.1254  0.5474 -0.3639
45451SOL     OW43467   3.998  10.920   1.263 -0.5624 -0.5986 -0.3091
45451SOL    HW143468   4.053  10.984   1.217  1.4769 -1.2672  1.0606
45451SOL    HW243469   3.992  10.846   1.203 -1.7283  0.2669 -1.3077
45452SOL     OW43470   5.101  11.069   1.401  0.0800 -0.1010  0.4752
45452SOL    HW143471   5.066  11.009   1.335  1.0069  0.8631 -0.9633
45452SOL    HW243472   5.036  11.140   1.404 -0.3158 -0.4803  1.1475
45453SOL     OW43473   0.329  12.259   0.766 -0.3491  0.2251  0.5691
45453SOL    HW143474   0.401  12.198   0.752 -0.7925 -0.1801  0.0229
45453SOL    HW243475   0.295  12.237   0.853  0.8898  1.1592  1.3101
45454SOL     OW43476   7.263   4.418   7.642 -0.4096  0.5379  0.0445
45454SOL    HW143477   7.256   4.373   7.557 -0.5187  0.4897  0.0782
45454SOL    HW243478   7.228   4.355   7.705 -1.8376  1.1742 -0.0787
45455SOL     OW43479  11.920   5.084   9.577  0.5057 -0.3475 -0.1757
45455SOL    HW143480  11.983   5.042   9.636 -0.0759 -0.6550  0.2255
45455SOL    HW243481  11.834   5.064   9.614  0.1497 -0.2038 -0.8986
45456SOL     OW43482   3.079   7.478  12.516 -0.0784  0.0814 -1.1320
45456SOL    HW143483   3.092   7.558  12.463 -2.1001  0.1205 -1.6618
45456SOL    HW243484   3.026   7.507  12.590  2.4748 -0.0402  0.8755
45457SOL     OW43485   8.997   9.145  11.643  0.2740 -0.2618 -0.2136
45457SOL    HW143486   8.906   9.121  11.657  0.1233  0.6926  0.5204
45457SOL    HW243487   8.996   9.241  11.636  1.3315 -0.1508  0.7990
45458SOL     OW43488   9.330   5.263   9.284  0.3962 -0.6006 -0.0395
45458SOL    HW143489   9.263   5.203   9.251  1.1921 -1.2778 -0.4689
45458SOL    HW243490   9.399   5.261   9.217  0.3675  0.9336 -0.1395
45459SOL     OW43491  11.652   7.445   5.633 -0.9091  0.6154 -0.0776
45459SOL    HW143492  11.569   7.423   5.677 -0.6022 -2.6614 -0.8719
45459SOL    HW243493  11.627   7.506   5.564 -2.7162 -0.3043 -0.3113
45460SOL     OW43494   9.432   2.785   8.408 -0.1241 -0.6079 -0.2442
45460SOL    HW143495   9.408   2.721   8.341  0.0972 -0.5535 -0.3787
45460SOL    HW243496   9.408   2.744   8.491 -1.6409 -0.1255 -0.4270
45461SOL     OW43497  11.773   5.371  12.765  0.2543 -0.1771  0.6964
45461SOL    HW143498  11.766   5.433  12.837 -0.6374 -0.1276  0.5773
45461SOL    HW243499  11.688   5.376  12.721  0.9585  0.1618 -0.6666
45462SOL     OW43500   5.614   8.873   1.244 -0.2155  0.4462 -0.5495
45462SOL    HW143501   5.608   8.879   1.340  0.8344 -1.0840 -0.3601
45462SOL    HW243502   5.702   8.841   1.227 -1.0752 -1.4064 -1.9022
45463SOL     OW43503   0.668   0.625   7.102 -0.0407 -0.2151  0.8582
45463SOL    HW143504   0.697   0.716   7.095 -0.7343  0.5632  5.4818
45463SOL    HW243505   0.582   0.624   7.059 -0.0916  1.3417  0.8557
45464SOL     OW43506   7.236  11.064   9.505  0.4429 -0.3630 -0.1579
45464SOL    HW143507   7.310  11.004   9.496 -0.8189 -1.7376 -1.8191
45464SOL    HW243508   7.257  11.137   9.447  0.8839 -0.3107  0.0586
45465SOL     OW43509   7.829  11.713   7.563  0.0552 -0.0668 -0.5514
45465SOL    HW143510   7.812  11.773   7.491 -0.6975  0.2924 -0.0815
45465SOL    HW243511   7.839  11.769   7.640  1.4307 -0.4021 -0.4510
45466SOL     OW43512   2.755   2.464   1.378  0.2141 -0.6559  0.5234
45466SOL    HW143513   2.681   2.452   1.437 -0.3061  1.2409  0.3131
45466SOL    HW243514   2.715   2.486   1.294  0.9970  0.5874  0.4549
45467SOL     OW43515   0.999  11.499   7.992  0.4280  0.0201 -0.4970
45467SOL    HW143516   1.078  11.488   7.939  1.0185  0.5885  0.2283
45467SOL    HW243517   0.961  11.581   7.962 -0.0751 -0.4157 -1.0686
45468SOL     OW43518   0.205   3.216   5.505  0.2644  0.5289  0.2138
45468SOL    HW143519   0.176   3.125   5.517 -0.6740  0.8668  0.5894
45468SOL    HW243520   0.295   3.217   5.539  0.3219 -0.2848  0.1055
45469SOL     OW43521   0.994   9.262  10.905 -0.4676  0.0799 -0.4149
45469SOL    HW143522   0.951   9.250  10.820  0.0661  0.5239 -0.7529
45469SOL    HW243523   1.008   9.356  10.912  0.4716 -0.0572 -0.3188
45470SOL     OW43524   2.532   9.217   3.647 -0.8276 -0.2671 -0.1636
45470SOL    HW143525   2.600   9.218   3.714 -0.9971  1.2495  0.0235
45470SOL    HW243526   2.579   9.235   3.565 -0.8462 -0.4164 -0.2076
45471SOL     OW43527   2.346   0.868  12.601  0.4731  0.4039 -0.0020
45471SOL    HW143528   2.440   0.866  12.581  0.8808 -1.4563  1.7656
45471SOL    HW243529   2.333   0.951  12.646  0.7535  1.7472 -2.2419
45472SOL     OW43530   7.416   4.723   3.439  0.1420  0.5786  0.5649
45472SOL    HW143531   7.333   4.699   3.478 -0.2211 -0.1337 -0.5970
45472SOL    HW243532   7.465   4.641   3.434 -0.3817  0.3337 -1.7334
45473SOL     OW43533   0.387  11.016   7.270 -0.0246 -0.1570  0.3390
45473SOL    HW143534   0.438  11.022   7.351  0.8284  0.3375 -0.2204
45473SOL    HW243535   0.414  10.932   7.232 -0.1546 -0.2179  0.3809
45474SOL     OW43536   2.188  12.599   8.258 -0.0411  0.4440  0.5732
45474SOL    HW143537   2.157  12.689   8.269  0.6277  0.9216 -1.0456
45474SOL    HW243538   2.114  12.552   8.220  0.0880  0.7148 -0.0290
45475SOL     OW43539   3.396   3.436   3.653 -0.4708  0.5477 -0.3169
45475SOL    HW143540   3.339   3.457   3.727 -0.3697 -1.3709  0.3705
45475SOL    HW243541   3.360   3.485   3.580 -2.6999 -0.2057  0.2154
45476SOL     OW43542  10.529   1.801   7.167  0.4082 -0.7270 -0.0733
45476SOL    HW143543  10.516   1.711   7.198  0.0728 -0.9173 -0.7523
45476SOL    HW243544  10.484   1.856   7.231  0.0521 -1.0850 -0.0166
45477SOL     OW43545   9.693   4.181   8.269  0.1132 -0.0903  0.2726
45477SOL    HW143546   9.687   4.259   8.325  0.9912 -0.7012  1.2766
45477SOL    HW243547   9.671   4.212   8.181  0.6462  1.3322  0.6132
45478SOL     OW43548  12.230   0.414   3.132  0.0859 -0.3173  0.5090
45478SOL    HW143549  12.183   0.332   3.144 -0.2969 -0.0296  1.0704
45478SOL    HW243550  12.310   0.404   3.183 -0.7571  0.2748  2.0363
45479SOL     OW43551   1.421   7.861  10.212  0.2612  0.0810 -0.1343
45479SOL    HW143552   1.493   7.815  10.169  0.8948  0.6102  0.3468
45479SOL    HW243553   1.380   7.796  10.268 -0.8984 -0.7788 -1.8619
45480SOL     OW43554   5.351   2.402   8.989  0.4360  0.2512 -0.0618
45480SOL    HW143555   5.408   2.477   8.973  1.4637 -0.3123  0.8900
45480SOL    HW243556   5.263   2.441   8.997  0.7708  1.2039 -0.8184
45481SOL     OW43557   3.550  12.682  11.439 -0.4117  0.1657  0.4195
45481SOL    HW143558   3.609  12.607  11.440 -0.5814  0.0296  1.0259
45481SOL    HW243559   3.607  12.759  11.446 -0.0455  0.2692 -2.6743
45482SOL     OW43560   8.025   7.920   0.396 -0.1739 -0.7125 -0.2036
45482SOL    HW143561   7.964   7.850   0.420  0.3913 -1.3382 -0.5626
45482SOL    HW243562   8.111   7.880   0.401  0.3329  0.5018  1.5015
45483SOL     OW43563   7.722   1.316  10.601  0.0101 -0.5248 -0.0524
45483SOL    HW143564   7.706   1.311  10.695 -0.5678  1.1168 -0.0194
45483SOL    HW243565   7.658   1.257  10.562 -1.4915  0.6735  0.4829
45484SOL     OW43566  10.278   5.517   4.306 -0.1105  0.2732 -0.2487
45484SOL    HW143567  10.360   5.499   4.352 -0.3828  2.4221  1.2346
45484SOL    HW243568  10.225   5.438   4.318  0.2380  0.3558  2.3452
45485SOL     OW43569  12.060   4.691   1.937  0.0647  0.1874  0.1258
45485SOL    HW143570  12.049   4.666   1.845 -0.3458 -1.7365  0.6675
45485SOL    HW243571  11.983   4.655   1.981  0.8174  0.0995  1.4171
45486SOL     OW43572  12.512   9.704   4.484 -0.7571 -0.6559  0.1791
45486SOL    HW143573  12.588   9.692   4.427  0.0344 -0.0197  1.0527
45486SOL    HW243574  12.477   9.790   4.460  0.8417  0.5902  1.9914
45487SOL     OW43575   0.082  12.947   2.746 -0.6435 -0.5629 -0.5333
45487SOL    HW143576  -0.003  12.937   2.702 -1.4294 -0.7102  0.9657
45487SOL    HW243577   0.134  12.998   2.684 -2.4329  1.1462 -0.7348
45488SOL     OW43578   7.502   0.858   1.357 -0.4221 -0.0833 -0.0204
45488SOL    HW143579   7.532   0.838   1.446  0.8183 -1.4930 -0.7298
45488SOL    HW243580   7.563   0.924   1.325 -1.1977  0.8340  0.3391
45489SOL     OW43581  12.934   2.316  12.641  0.5284  0.3224 -0.0311
45489SOL    HW143582  12.878   2.259  12.695 -0.1525  1.3568  0.3943
45489SOL    HW243583  13.013   2.265  12.627 -0.3076 -0.9822 -0.1890
45490SOL     OW43584   7.863  12.643   8.872  0.0298  0.2102 -0.0003
45490SOL    HW143585   7.802  12.626   8.944 -0.6905  0.4900 -0.5298
45490SOL    HW243586   7.948  12.615   8.905 -0.1204  1.2202  1.2993
45491SOL     OW43587   0.336   1.054  12.269  0.1511 -0.1024 -0.1606
45491SOL    HW143588   0.400   1.125  12.263 -1.6699  1.4957 -1.6023
45491SOL    HW243589   0.279   1.079  12.342  0.9674 -1.4128  0.9778
45492SOL     OW43590   8.138   8.594   7.428  0.3340 -0.2109  0.5441
45492SOL    HW143591   8.146   8.649   7.506  0.4192  0.7205 -0.1037
45492SOL    HW243592   8.070   8.636   7.376 -0.6354 -1.5562  0.6971
45493SOL     OW43593   6.230   3.345   6.374  0.4473 -0.1324 -0.1105
45493SOL    HW143594   6.263   3.308   6.456  1.4340  1.5953  0.3047
45493SOL    HW243595   6.187   3.271   6.331  2.9570 -1.9639  0.3325
45494SOL     OW43596   8.254  12.565   6.157 -0.5775  0.3425  0.1844
45494SOL    HW143597   8.189  12.635   6.153  0.0718  0.8970 -1.0295
45494SOL    HW243598   8.337  12.608   6.139 -0.0077 -0.5436  0.6309
45495SOL     OW43599   1.847   8.851   2.889 -0.1371 -0.3827 -0.6578
45495SOL    HW143600   1.869   8.876   2.979  0.0691 -1.7446 -0.3034
45495SOL    HW243601   1.752   8.863   2.884 -0.2292 -0.7643 -0.0793
45496SOL     OW43602   6.297  11.550   6.639  0.5142 -0.4504 -0.6739
45496SOL    HW143603   6.313  11.488   6.568 -1.5140 -1.1326 -0.6056
45496SOL    HW243604   6.252  11.623   6.597 -1.4246 -1.2130 -0.0408
45497SOL     OW43605   5.396  11.180   8.022 -0.1563  0.5509 -0.4244
45497SOL    HW143606   5.438  11.155   7.940  1.0203  1.5901 -0.1723
45497SOL    HW243607   5.423  11.271   8.036 -1.1782  0.7212  0.5948
45498SOL     OW43608  12.961   7.325   5.454 -0.2341  0.2020 -0.3103
45498SOL    HW143609  13.037   7.275   5.482 -1.2872 -1.3140 -0.0683
45498SOL    HW243610  12.901   7.322   5.528 -1.0761  0.2539 -0.9747
45499SOL     OW43611   0.810   2.992   2.479  0.3756  0.4723 -0.6864
45499SOL    HW143612   0.847   3.054   2.542 -1.2178  0.9595 -0.1980
45499SOL    HW243613   0.771   2.923   2.533  0.4627  0.0164 -1.1928
45500SOL     OW43614   8.089   3.733  11.581 -0.1515 -0.1293 -0.3387
45500SOL    HW143615   8.024   3.799  11.609 -0.1921 -0.2206 -0.2160
45500SOL    HW243616   8.046   3.649  11.599 -0.4103 -0.1966 -1.2082
45501SOL     OW43617   5.286  11.370   5.109  0.0296  0.0232 -0.0217
45501SOL    HW143618   5.323  11.307   5.172  0.1091  1.3035  1.2655
45501SOL    HW243619   5.363  11.415   5.073  0.0592 -1.3978 -1.8589
45502SOL     OW43620  11.186   4.997   6.712  0.2614  0.2913 -0.2751
45502SOL    HW143621  11.139   4.918   6.684  0.5899  0.1600 -0.4653
45502SOL    HW243622  11.220   5.034   6.631 -1.7144  1.8352 -0.4821
45503SOL     OW43623   6.971   0.453   6.987 -0.1447  0.2253 -0.5080
45503SOL    HW143624   6.903   0.505   7.031 -1.0737 -0.0258 -1.5937
45503SOL    HW243625   7.048   0.510   6.986 -0.5363  0.7783  0.1537
45504SOL     OW43626   5.633  10.133   1.974 -0.4823  0.3066  0.1196
45504SOL    HW143627   5.637  10.098   1.885 -0.7897 -0.5471  0.4329
45504SOL    HW243628   5.558  10.193   1.973 -1.8245 -1.3240  0.3522
45505SOL     OW43629   6.146  11.023   5.686 -0.4254 -0.3895 -0.0039
45505SOL    HW143630   6.219  11.059   5.635 -1.1686 -0.0834 -0.8672
45505SOL    HW243631   6.166  10.930   5.694  0.0784 -0.3024 -0.1956
45506SOL     OW43632   7.462   5.818   4.096  0.0182  0.0092 -0.1759
45506SOL    HW143633   7.390   5.858   4.145  1.4676 -0.1701  2.2499
45506SOL    HW243634   7.537   5.873   4.114  0.7953 -0.5535 -1.5733
45507SOL     OW43635   1.391  11.859   3.718 -0.0629 -0.1553 -0.0433
45507SOL    HW143636   1.419  11.902   3.637  1.3580 -2.5432 -0.9629
45507SOL    HW243637   1.458  11.791   3.732 -1.2368 -0.9398  2.1822
45508SOL     OW43638   8.118   8.749   7.675  0.0316  0.4091 -0.0699
45508SOL    HW143639   8.182   8.685   7.705 -0.1665  0.6804  0.9956
45508SOL    HW243640   8.159   8.834   7.691  0.1224  0.5596 -1.0700
45509SOL     OW43641   8.647   0.494   2.526  0.4317  0.2990  0.5714
45509SOL    HW143642   8.670   0.558   2.459 -1.2079  0.4445  0.0983
45509SOL    HW243643   8.606   0.546   2.596 -0.5397 -0.1608  0.3637
45510SOL     OW43644   7.567   7.686   6.022 -0.3735  0.3289  0.2901
45510SOL    HW143645   7.565   7.775   6.056  0.0699  0.3293  0.3254
45510SOL    HW243646   7.658   7.658   6.034 -0.6272 -0.3263  0.8114
45511SOL     OW43647   2.298   9.448  12.549  0.0794 -0.2176 -0.2897
45511SOL    HW143648   2.275   9.521  12.606  0.1596  1.0491 -1.8168
45511SOL    HW243649   2.387   9.424  12.575  0.4819  0.9813 -0.5371
45512SOL     OW43650   1.986   1.039   4.270 -0.1383 -0.4031  0.4258
45512SOL    HW143651   2.056   1.101   4.251 -0.1614  0.1437  1.9905
45512SOL    HW243652   2.020   0.986   4.341 -1.4933  0.2264  1.5797
45513SOL     OW43653  10.105   9.992   6.292 -0.5355  0.1118 -0.2114
45513SOL    HW143654  10.025   9.949   6.322 -1.2968  0.1871 -1.9947
45513SOL    HW243655  10.093  10.085   6.315 -1.2839  0.2390 -1.0910
45514SOL     OW43656   5.726  11.934  12.231 -0.1603  0.0113  0.1668
45514SOL    HW143657   5.670  11.900  12.300 -0.0923  0.8840  0.6694
45514SOL    HW243658   5.734  12.028  12.250 -0.3765  0.3257 -1.1914
45515SOL     OW43659   8.974  10.754   4.475 -0.2976 -0.0334 -0.2099
45515SOL    HW143660   8.920  10.729   4.400 -0.7551  1.1065 -0.2787
45515SOL    HW243661   9.015  10.836   4.448  2.0858 -1.2013 -0.4635
45516SOL     OW43662   0.577  12.737  11.533 -0.9307 -0.0228  0.3976
45516SOL    HW143663   0.620  12.674  11.474  0.7050  2.4811 -1.3222
45516SOL    HW243664   0.484  12.723  11.520 -0.6332 -1.9485 -0.0072
45517SOL     OW43665  11.001   4.031  11.590 -0.1153 -0.3170 -0.1985
45517SOL    HW143666  11.014   4.115  11.546 -1.6320 -1.2560 -2.6366
45517SOL    HW243667  10.909   4.032  11.617  0.0122 -0.9795  0.3084
45518SOL     OW43668  10.640  12.913  10.757  0.3083  0.3762 -0.3586
45518SOL    HW143669  10.700  12.960  10.814  0.5642 -0.0209 -0.3002
45518SOL    HW243670  10.557  12.911  10.805  0.2765  0.8292 -0.3938
45519SOL     OW43671   1.495   3.599   8.133 -0.1764 -0.9975 -0.0614
45519SOL    HW143672   1.527   3.517   8.095 -0.0752 -1.4431  0.9599
45519SOL    HW243673   1.412   3.575   8.175 -0.6707 -0.3487 -0.6484
45520SOL     OW43674   9.356   7.266   2.512 -0.4867  0.0441 -0.6372
45520SOL    HW143675   9.402   7.188   2.546  0.1046  0.6091 -0.1019
45520SOL    HW243676   9.404   7.289   2.433  1.4765  1.7710  0.9207
45521SOL     OW43677   7.562   5.972   3.441  0.1468 -0.3498  0.2639
45521SOL    HW143678   7.521   6.038   3.497  1.5940  1.0124 -0.1981
45521SOL    HW243679   7.530   5.888   3.475  1.4546  0.3551  3.5746
45522SOL     OW43680  12.762  11.387   4.205  0.5264 -0.3855 -0.1419
45522SOL    HW143681  12.688  11.447   4.215  1.3877  0.9526 -1.3240
45522SOL    HW243682  12.721  11.304   4.182 -0.6453  0.3878 -1.0535
45523SOL     OW43683  10.423   9.860  12.776  0.0812 -0.1237  0.0275
45523SOL    HW143684  10.369   9.929  12.814  1.2275  1.0130 -0.3034
45523SOL    HW243685  10.389   9.848  12.688 -0.1275  0.0322  0.0877
45524SOL     OW43686   8.631   8.538   7.368 -0.4925  0.3914 -0.0472
45524SOL    HW143687   8.567   8.592   7.413  0.4863  1.3027  0.2933
45524SOL    HW243688   8.589   8.452   7.359 -0.1876 -0.3601  3.9911
45525SOL     OW43689   9.950   0.195   3.890  0.3370  0.2013 -0.2601
45525SOL    HW143690   9.905   0.112   3.873  0.5567 -0.0381  0.2956
45525SOL    HW243691  10.031   0.190   3.840 -0.5859  0.9700 -1.9175
45526SOL     OW43692   6.152   2.693  12.530 -0.7309 -0.1032  0.0290
45526SOL    HW143693   6.205   2.691  12.451  0.0238 -0.0812  0.5312
45526SOL    HW243694   6.205   2.649  12.597 -0.4261  1.7257  1.0769
45527SOL     OW43695  10.029   7.319   2.998 -0.0488 -0.5626  0.2267
45527SOL    HW143696  10.072   7.240   3.031 -0.0607 -0.4670  0.4718
45527SOL    HW243697  10.049   7.320   2.904  2.1501  0.4958  0.6238
45528SOL     OW43698   2.220  11.441   5.768 -0.0364 -0.4395 -1.0210
45528SOL    HW143699   2.134  11.413   5.799  0.7003  0.1686  1.8466
45528SOL    HW243700   2.203  11.521   5.718 -1.2566 -1.1800 -1.8372
45529SOL     OW43701   7.083   1.392   5.030  0.6839  0.0419  0.4799
45529SOL    HW143702   6.988   1.404   5.028  0.8663  1.8168  1.0237
45529SOL    HW243703   7.115   1.464   5.085  2.5978  1.2371 -2.0088
45530SOL     OW43704   2.880  10.382  10.360  0.0062  0.5414  0.6151
45530SOL    HW143705   2.960  10.344  10.396 -0.7920 -1.0708  0.7602
45530SOL    HW243706   2.857  10.451  10.422  1.1642  0.8946  0.6761
45531SOL     OW43707   9.701   4.931  12.538  0.7445 -0.0887 -0.5749
45531SOL    HW143708   9.627   4.921  12.479 -0.1417  1.1328  0.2897
45531SOL    HW243709   9.706   4.848  12.585 -0.8781  0.2352  0.2340
45532SOL     OW43710   0.665  10.657   3.172  0.1533 -0.0651  0.2848
45532SOL    HW143711   0.715  10.696   3.244  2.8403 -0.4935 -1.2164
45532SOL    HW243712   0.640  10.570   3.204 -0.0363  0.3119  1.2079
45533SOL     OW43713   8.895   2.664   8.042 -0.6916  0.5164 -0.0024
45533SOL    HW143714   8.801   2.682   8.041 -0.8489 -0.2652  0.2420
45533SOL    HW243715   8.936   2.749   8.026 -1.4463  0.7610 -0.6655
45534SOL     OW43716   4.797  12.702   0.183  0.1113  0.1881 -0.4618
45534SOL    HW143717   4.712  12.741   0.203  0.3590  1.4318 -1.7012
45534SOL    HW243718   4.797  12.619   0.232 -1.1504  0.8974  0.8206
45535SOL     OW43719   2.380  10.860  11.143  0.0303  0.5358  0.1227
45535SOL    HW143720   2.408  10.840  11.232 -1.4494  2.6742  1.1433
45535SOL    HW243721   2.434  10.934  11.116  1.3829 -0.8823 -1.3482
45536SOL     OW43722   2.450   6.483   5.592 -0.1438  0.1255 -0.0467
45536SOL    HW143723   2.508   6.411   5.568  0.8094  0.8384  0.0547
45536SOL    HW243724   2.432   6.528   5.510  0.3674  0.5633  0.0745
45537SOL     OW43725   5.538   9.519   3.744  0.3782  0.1975 -0.1598
45537SOL    HW143726   5.506   9.458   3.811  0.0043  0.5273 -0.0341
45537SOL    HW243727   5.625   9.543   3.774  2.0639 -2.9825 -1.9916
45538SOL     OW43728   1.475   0.445   1.944 -0.4517 -0.6648 -0.7468
45538SOL    HW143729   1.537   0.377   1.918 -2.0434 -2.0407 -1.0735
45538SOL    HW243730   1.456   0.493   1.863  1.3470  0.8352 -0.3630
45539SOL     OW43731   6.585   1.131   4.489 -0.1784  0.2181  0.4521
45539SOL    HW143732   6.527   1.055   4.479  0.6328 -0.5298  1.2461
45539SOL    HW243733   6.546   1.181   4.561  0.0991 -0.2446  0.9346
45540SOL     OW43734  11.409   1.047   5.120  0.1530 -0.8076  0.6719
45540SOL    HW143735  11.327   0.999   5.133 -0.2290 -0.0913  0.9844
45540SOL    HW243736  11.385   1.139   5.133  0.6109 -0.4040 -1.1327
45541SOL     OW43737   8.285   5.271  10.480  0.1508  0.3286 -0.3503
45541SOL    HW143738   8.291   5.344  10.542  0.9541 -0.8730  1.0586
45541SOL    HW243739   8.362   5.217  10.499 -0.4325 -0.8991 -1.3370
45542SOL     OW43740   1.066   5.900   2.670 -0.2478  0.0679 -0.2592
45542SOL    HW143741   1.053   5.918   2.763  0.9117 -1.9916  0.3696
45542SOL    HW243742   1.138   5.957   2.644 -0.7047  0.7920  0.0459
45543SOL     OW43743   7.931  12.571   0.394  0.3194 -0.2608  0.2108
45543SOL    HW143744   7.902  12.601   0.308 -2.5376 -2.3390  0.3222
45543SOL    HW243745   8.018  12.610   0.404  0.4165  0.7765 -3.2017
45544SOL     OW43746   9.294   3.308   9.512  0.2355  0.1080 -0.5362
45544SOL    HW143747   9.237   3.289   9.438  0.5603  0.3253 -0.8513
45544SOL    HW243748   9.239   3.355   9.574  0.0076  0.0869 -0.7234
45545SOL     OW43749   3.934   6.806   8.079  0.5652 -0.3674  0.1002
45545SOL    HW143750   4.018   6.821   8.036  0.0037 -1.7989 -1.6271
45545SOL    HW243751   3.885   6.887   8.066  1.0504 -0.1501 -0.3962
45546SOL     OW43752  10.737  12.779   8.037  0.4958  0.3286  0.2616
45546SOL    HW143753  10.765  12.697   8.077  1.8552  1.7391  2.4813
45546SOL    HW243754  10.643  12.783   8.053  0.6247 -0.2573  1.2600
45547SOL     OW43755   3.952  11.188   9.992  0.0538 -0.2511  0.0179
45547SOL    HW143756   3.996  11.224  10.068  2.4056  2.1358 -2.2398
45547SOL    HW243757   3.990  11.101   9.981  1.1056  0.1340  0.5025
45548SOL     OW43758   4.556   7.104   1.413 -0.2784  0.4659  0.4909
45548SOL    HW143759   4.484   7.065   1.462 -0.4790 -0.3758 -0.4397
45548SOL    HW243760   4.555   7.197   1.439 -1.6321  0.4513  0.5666
45549SOL     OW43761  12.531   1.559   0.183  0.1858  0.2639  0.1051
45549SOL    HW143762  12.511   1.477   0.137 -1.2883  0.8187 -0.3183
45549SOL    HW243763  12.454   1.575   0.237  0.5546  1.2530  0.3512
45550SOL     OW43764  12.963   5.680   0.431  0.7131  0.4221 -0.0776
45550SOL    HW143765  12.909   5.602   0.444 -2.2331  2.3384  0.2270
45550SOL    HW243766  12.969   5.720   0.518  0.2730  1.6540 -0.5914
45551SOL     OW43767   6.654   6.447   0.136 -0.0344  0.2578  0.2160
45551SOL    HW143768   6.598   6.393   0.192 -0.1487  1.5149  1.3582
45551SOL    HW243769   6.622   6.536   0.148  0.1214  0.6167 -1.6622
45552SOL     OW43770  11.527   5.701  10.129 -0.0463  0.4485 -0.7342
45552SOL    HW143771  11.518   5.637  10.199  0.3621  1.0631 -0.0979
45552SOL    HW243772  11.446   5.753  10.133  0.0737  0.6267 -0.5582
45553SOL     OW43773  12.058   3.575  11.407  0.6482  0.0225  0.1086
45553SOL    HW143774  11.979   3.606  11.450  1.3690 -0.0569  1.5370
45553SOL    HW243775  12.043   3.481  11.395  0.7909 -0.1146  0.9760
45554SOL     OW43776   5.011   8.088   6.958 -0.7282 -0.4543  0.0598
45554SOL    HW143777   4.951   8.024   6.996 -1.4343 -1.0080 -1.9110
45554SOL    HW243778   5.061   8.120   7.033 -2.5729 -0.9305  1.5702
45555SOL     OW43779  10.976   5.083   8.019  0.6094 -0.1884 -0.5343
45555SOL    HW143780  11.017   5.009   8.063 -0.4344 -0.1918  0.4759
45555SOL    HW243781  10.882   5.069   8.029  0.3882  1.2810 -0.2895
45556SOL     OW43782  10.185   0.054   8.930  0.1144 -0.3510  0.8740
45556SOL    HW143783  10.162   0.023   8.842  1.8037  1.6304 -0.3616
45556SOL    HW243784  10.150   0.143   8.933  1.4213  0.1627  1.5934
45557SOL     OW43785  10.058  12.849  11.972 -0.2982  0.1063  0.6164
45557SOL    HW143786  10.004  12.828  12.048 -1.1663 -0.4855 -0.1274
45557SOL    HW243787  10.008  12.916  11.925  1.5334  2.5164  1.9501
45558SOL     OW43788  12.354  11.203   1.688 -0.3739  0.0333  0.2218
45558SOL    HW143789  12.448  11.187   1.694 -0.3142 -0.1085 -0.9150
45558SOL    HW243790  12.317  11.122   1.653 -0.8433  0.2736  0.1429
45559SOL     OW43791  12.403   0.703   0.010  0.1601 -0.3492 -0.3458
45559SOL    HW143792  12.460   0.687   0.085 -1.8844  1.9066  1.9155
45559SOL    HW243793  12.327   0.647   0.026 -0.6198  0.6978 -0.2423
45560SOL     OW43794   7.778   6.733   3.853 -0.0509 -0.9887  0.0199
45560SOL    HW143795   7.835   6.663   3.822  0.6733 -0.4830  0.1798
45560SOL    HW243796   7.696   6.690   3.874  0.1483 -1.6718 -0.5754
45561SOL     OW43797  11.528   6.011  11.175 -0.1349 -0.7409  0.0618
45561SOL    HW143798  11.531   5.992  11.269  3.1994  1.3506  0.5415
45561SOL    HW243799  11.611   5.978  11.141 -0.7013 -0.2797 -1.9216
45562SOL     OW43800   0.626   5.546   1.148  0.3598  0.3555  0.4911
45562SOL    HW143801   0.698   5.606   1.169 -0.0314  0.7215  0.8252
45562SOL    HW243802   0.668   5.472   1.105  0.9249  0.6097  0.5909
45563SOL     OW43803   8.315   2.566   1.640  0.7336  0.2198  0.0476
45563SOL    HW143804   8.305   2.520   1.723 -0.5291 -0.5913 -0.5188
45563SOL    HW243805   8.397   2.534   1.604 -0.3818 -2.0929 -0.5946
45564SOL     OW43806  12.775   6.247   0.829  0.2129  0.1085 -0.1974
45564SOL    HW143807  12.710   6.273   0.895  1.3265  2.7095  0.0099
45564SOL    HW243808  12.736   6.276   0.746  0.8189  1.2133 -0.1234
45565SOL     OW43809   0.664   1.449  10.756 -0.3605 -0.0445  0.1478
45565SOL    HW143810   0.710   1.392  10.817 -0.3215  0.7855  0.9177
45565SOL    HW243811   0.662   1.534  10.799  0.6442  0.8637 -1.4814
45566SOL     OW43812  12.329   5.555  12.187  0.3969 -0.0012 -0.4154
45566SOL    HW143813  12.361   5.505  12.112  0.9660  1.5573 -1.2596
45566SOL    HW243814  12.240   5.581  12.162  0.6501  0.6693 -0.6696
45567SOL     OW43815   5.099   3.155   6.627 -0.1280 -0.1964  0.5134
45567SOL    HW143816   5.173   3.195   6.581  0.9141 -1.2838  1.2035
45567SOL    HW243817   5.034   3.225   6.631  1.1846  1.0759  0.6504
45568SOL     OW43818   9.094   1.727   7.427 -0.0144  0.0697 -0.2662
45568SOL    HW143819   9.144   1.678   7.492  1.4534  0.1017 -1.3381
45568SOL    HW243820   9.023   1.768   7.478  1.0553  0.0620  1.3061
45569SOL     OW43821   2.386   2.753   0.257 -0.0602  0.2088  0.3199
45569SOL    HW143822   2.441   2.825   0.228 -0.3805  1.0564  1.7559
45569SOL    HW243823   2.311   2.795   0.299 -0.9190 -0.9447 -0.0008
45570SOL     OW43824  12.525   3.518  10.772  0.3316  0.1592 -0.2428
45570SOL    HW143825  12.469   3.586  10.809 -1.8620 -1.2301 -0.8458
45570SOL    HW243826  12.489   3.503  10.685  2.8072  0.4414 -1.3899
45571SOL     OW43827   1.114   8.318  12.234 -0.2806  0.3224  0.5708
45571SOL    HW143828   1.062   8.346  12.310 -0.8877  2.9244 -0.7158
45571SOL    HW243829   1.057   8.331  12.159 -0.0534 -3.1323 -0.3948
45572SOL     OW43830   6.371   3.696   6.817  0.0331 -0.2179 -0.2157
45572SOL    HW143831   6.398   3.776   6.771  0.2868 -1.1126 -1.7099
45572SOL    HW243832   6.400   3.709   6.907 -0.1143  1.4503 -0.3719
45573SOL     OW43833   4.584   9.018   6.836 -0.3050  0.5841 -0.7420
45573SOL    HW143834   4.627   8.964   6.902 -1.8042  0.4754  0.2073
45573SOL    HW243835   4.580   9.105   6.874 -4.2979 -0.1467  1.0427
45574SOL     OW43836   9.215   1.855   4.626  0.5981 -0.1596 -0.3011
45574SOL    HW143837   9.205   1.942   4.663 -0.9834 -0.9563  1.3407
45574SOL    HW243838   9.125   1.823   4.616  1.1115 -1.1938 -1.9283
45575SOL     OW43839   2.719  11.386   3.701  0.2722 -0.2330  0.6083
45575SOL    HW143840   2.804  11.345   3.720  0.9893  0.6772 -0.5201
45575SOL    HW243841   2.670  11.319   3.653  1.0273 -0.1627 -0.2866
45576SOL     OW43842   3.453   9.147   3.603 -0.0896 -0.4722  0.2926
45576SOL    HW143843   3.504   9.081   3.556  0.8893 -0.6281  1.5272
45576SOL    HW243844   3.465   9.126   3.695 -0.5066  0.8889  0.6836
45577SOL     OW43845   3.039   0.677   8.220  0.5503  0.8294 -0.1885
45577SOL    HW143846   3.102   0.623   8.174 -0.0103 -0.8212  0.8971
45577SOL    HW243847   2.964   0.683   8.160  0.5325  0.1956 -0.2381
45578SOL     OW43848   4.653   8.111   0.821 -0.3872  0.0822  0.5403
45578SOL    HW143849   4.629   8.027   0.861  0.3827 -0.2552  0.3118
45578SOL    HW243850   4.576   8.166   0.834 -0.6006 -0.3987  1.4146
45579SOL     OW43851   8.797   0.760   1.246 -0.2018 -0.1644  0.3377
45579SOL    HW143852   8.840   0.680   1.276  0.4822 -0.0267 -0.2458
45579SOL    HW243853   8.749   0.791   1.323  1.3143  0.0566  1.2427
45580SOL     OW43854   5.164  12.946  12.153  0.0797  0.1802 -0.2106
45580SOL    HW143855   5.214  13.028  12.158  1.0562 -0.4010 -0.1918
45580SOL    HW243856   5.230  12.878  12.141 -0.5202 -0.8778  2.0881
45581SOL     OW43857   8.202   2.465   2.296  0.1652 -0.0641 -0.2876
45581SOL    HW143858   8.207   2.369   2.295 -0.3284 -0.1383  1.4335
45581SOL    HW243859   8.119   2.485   2.252 -0.0947 -0.4762  0.0070
45582SOL     OW43860  12.390   1.584   2.129 -0.0478 -0.4269  0.1012
45582SOL    HW143861  12.340   1.502   2.118 -1.0368  0.3125 -1.2440
45582SOL    HW243862  12.443   1.590   2.050  0.2819  0.0613  0.3553
45583SOL     OW43863   2.424   6.260   8.439  0.1243  0.1112  0.1238
45583SOL    HW143864   2.499   6.314   8.414  1.7274 -1.6960  0.8368
45583SOL    HW243865   2.384   6.235   8.356  0.3504  1.0060 -0.2751
45584SOL     OW43866   4.314  11.012   4.341 -0.5800 -0.0156  0.2064
45584SOL    HW143867   4.249  11.001   4.411  0.2839  0.5765  1.1195
45584SOL    HW243868   4.272  11.073   4.280 -2.2707 -2.2341 -1.0194
45585SOL     OW43869   4.344   3.040  11.590  0.2558 -0.0511 -0.3167
45585SOL    HW143870   4.293   2.973  11.635 -1.1802  1.8205  1.0287
45585SOL    HW243871   4.394   3.083  11.659  1.5841 -0.0698 -1.2368
45586SOL     OW43872   7.531   6.913   9.673 -0.6017 -0.0141 -0.2988
45586SOL    HW143873   7.603   6.856   9.699  0.3511  1.1420 -0.3468
45586SOL    HW243874   7.455   6.879   9.721  0.2317 -0.5016  0.7033
45587SOL     OW43875  10.000   8.893   2.614  0.5575 -0.2113 -0.2668
45587SOL    HW143876   9.909   8.924   2.609  0.4826 -0.4910 -0.7379
45587SOL    HW243877  10.048   8.952   2.556  1.2346  1.7899  2.1492
45588SOL     OW43878  12.553  11.836  10.900 -0.3529 -0.5076  0.3219
45588SOL    HW143879  12.525  11.910  10.847  0.3801 -0.8194 -0.5167
45588SOL    HW243880  12.585  11.771  10.837 -0.9774 -1.5393  1.0434
45589SOL     OW43881  10.001   1.346   6.214 -0.1111  0.2926 -0.0385
45589SOL    HW143882  10.076   1.394   6.179 -0.6194  0.1576 -1.3963
45589SOL    HW243883  10.039   1.270   6.257  0.5440  0.2569 -0.6571
45590SOL     OW43884   5.221  12.362   7.844 -0.0423 -0.3055  0.2252
45590SOL    HW143885   5.295  12.370   7.904  0.0907 -1.7114  0.2908
45590SOL    HW243886   5.175  12.446   7.850  1.9266  0.8674 -0.3499
45591SOL     OW43887   7.876   7.795   8.049  0.7135  0.0771  0.3980
45591SOL    HW143888   7.951   7.843   8.082  1.5084 -2.0851  1.9466
45591SOL    HW243889   7.828   7.768   8.127 -1.3844  0.8763 -0.5375
45592SOL     OW43890   0.774  11.284   3.026  0.3417 -0.0285 -0.1586
45592SOL    HW143891   0.863  11.276   2.992  1.1629 -0.7059  1.9487
45592SOL    HW243892   0.743  11.194   3.034  0.7600 -0.0331  2.1206
45593SOL     OW43893   0.066  11.395   2.733 -0.9117  0.0273 -0.1219
45593SOL    HW143894   0.064  11.335   2.808  2.5656 -0.2404 -0.0842
45593SOL    HW243895   0.062  11.338   2.657  1.4699 -0.3254 -0.0755
45594SOL     OW43896  11.068   4.311   4.776  0.2243  0.2196  0.5096
45594SOL    HW143897  11.004   4.241   4.763  0.0663  0.3447  0.6087
45594SOL    HW243898  11.089   4.341   4.687  0.4927 -0.1301  0.4517
45595SOL     OW43899   1.906   5.028  11.566 -0.0665  0.4535  0.3124
45595SOL    HW143900   1.968   4.959  11.593 -0.2521  0.2083  0.1083
45595SOL    HW243901   1.920   5.037  11.472 -1.0854 -0.3465  0.0695
45596SOL     OW43902  11.104   3.941   9.985  0.8401 -0.0979 -0.5083
45596SOL    HW143903  11.144   3.860   9.954  0.0162 -0.4129 -0.7633
45596SOL    HW243904  11.089   3.993   9.906 -0.2679 -0.4513 -0.5461
45597SOL     OW43905   3.901   5.453   3.605 -0.3192  0.5029  0.0631
45597SOL    HW143906   3.910   5.482   3.696 -0.1606  0.3654  0.0926
45597SOL    HW243907   3.899   5.357   3.611 -0.0314  0.4873 -0.1041
45598SOL     OW43908   1.351  12.467   5.394 -0.4066 -0.0570 -0.6750
45598SOL    HW143909   1.274  12.413   5.412 -0.9895  0.9324 -0.0643
45598SOL    HW243910   1.315  12.545   5.350  0.2072  0.5368 -0.1364
45599SOL     OW43911   9.508   6.710  12.663 -0.0936  0.1429  0.3420
45599SOL    HW143912   9.425   6.756  12.653 -0.4470 -0.8415 -1.7814
45599SOL    HW243913   9.574   6.774  12.638 -0.4695  0.0102 -1.0785
45600SOL     OW43914   1.430   3.947   8.827 -0.6709 -0.3583  0.6260
45600SOL    HW143915   1.480   3.949   8.908  0.6410  0.5407 -0.1712
45600SOL    HW243916   1.386   4.032   8.823 -0.3908 -0.2295  0.1947
45601SOL     OW43917   1.544   9.748   8.518 -0.0138  0.2245  0.7025
45601SOL    HW143918   1.508   9.736   8.430 -0.9681  0.7889  1.0063
45601SOL    HW243919   1.599   9.671   8.532 -1.2100 -0.7361  0.2709
45602SOL     OW43920   4.029   5.717   7.606 -0.0749  0.3489 -0.2871
45602SOL    HW143921   4.008   5.717   7.700  0.0648  0.1231 -0.2554
45602SOL    HW243922   4.064   5.805   7.590 -1.1235  0.7637 -0.3624
45603SOL     OW43923   0.687   0.539   1.986  0.3562  0.1916 -0.3459
45603SOL    HW143924   0.747   0.565   1.917 -1.3550  0.3663 -1.8363
45603SOL    HW243925   0.667   0.447   1.967  1.9528 -0.6061  1.5457
45604SOL     OW43926   5.830   6.179   0.873 -0.2902  0.1884  0.8124
45604SOL    HW143927   5.872   6.265   0.865 -0.4889  0.1938 -0.5258
45604SOL    HW243928   5.791   6.165   0.787 -0.0705 -1.3412  0.9441
45605SOL     OW43929  12.522   4.948  11.536 -0.1732 -0.2309 -0.3542
45605SOL    HW143930  12.429   4.925  11.528 -0.2810  0.4227 -1.0384
45605SOL    HW243931  12.538   5.009  11.464  0.9468 -0.8276 -0.6353
45606SOL     OW43932   4.217   8.849  11.811 -0.1495 -0.2541  0.2468
45606SOL    HW143933   4.153   8.888  11.871 -0.4124  2.0480 -1.3666
45606SOL    HW243934   4.287   8.914  11.807  0.5432 -1.0424 -0.8098
45607SOL     OW43935   6.237   7.578   7.020 -0.1793 -0.3024  0.1814
45607SOL    HW143936   6.303   7.509   7.013 -0.3560 -0.4373 -0.1877
45607SOL    HW243937   6.249   7.614   7.108 -0.2071 -0.9261  0.4450
45608SOL     OW43938  10.751   3.664   5.586  0.1454  0.3452  0.2491
45608SOL    HW143939  10.781   3.753   5.603  0.9923 -0.1174  1.2759
45608SOL    HW243940  10.701   3.641   5.664  1.0337 -0.5387  0.5696
45609SOL     OW43941  10.862   5.348   2.100 -0.6205 -0.2609 -0.4858
45609SOL    HW143942  10.950   5.386   2.093 -1.0932  0.8216 -0.7713
45609SOL    HW243943  10.829   5.379   2.184 -0.8210 -0.4691 -0.4873
45610SOL     OW43944   6.752   9.177  11.484 -0.1673 -0.3698 -0.0218
45610SOL    HW143945   6.753   9.185  11.580 -0.1515 -0.1257 -0.0396
45610SOL    HW243946   6.810   9.103  11.466  0.6093  0.1877  0.1107
45611SOL     OW43947   8.794   1.438   4.741 -0.4305 -0.1004 -0.1881
45611SOL    HW143948   8.785   1.344   4.755  1.1717 -0.2465  0.0634
45611SOL    HW243949   8.846   1.468   4.816 -1.0376  1.0080 -0.2028
45612SOL     OW43950   7.537   1.221   4.511 -0.0950  0.0451  0.5080
45612SOL    HW143951   7.614   1.203   4.565  0.6412  2.4563  0.4060
45612SOL    HW243952   7.509   1.136   4.479  1.6710 -1.0539  1.7148
45613SOL     OW43953   7.403   3.904   7.730 -0.0655 -0.5735 -0.3706
45613SOL    HW143954   7.319   3.950   7.732  0.8310  1.2516 -1.7061
45613SOL    HW243955   7.393   3.840   7.660 -0.1218  0.1158 -1.0009
45614SOL     OW43956  12.139   2.198   4.193  0.4027 -0.8726 -0.4615
45614SOL    HW143957  12.184   2.238   4.267 -0.6802  0.0072 -0.2487
45614SOL    HW243958  12.145   2.104   4.208 -0.6022 -0.6950  1.2496
45615SOL     OW43959   5.536  12.149   5.861  0.2091  0.0697 -0.0407
45615SOL    HW143960   5.507  12.062   5.835  0.4115 -0.0690  0.2050
45615SOL    HW243961   5.457  12.203   5.854  0.3709  0.1679 -1.5039
45616SOL     OW43962   6.474   9.283   2.430  0.1292  0.0975 -0.3507
45616SOL    HW143963   6.385   9.248   2.431 -0.0518  0.5347 -0.6662
45616SOL    HW243964   6.463   9.374   2.401  0.5852  0.4097  0.4197
45617SOL     OW43965  12.854   8.881   3.287  0.4496 -0.1319 -0.0058
45617SOL    HW143966  12.771   8.851   3.250  1.0930 -0.3008 -1.3453
45617SOL    HW243967  12.885   8.949   3.227  1.2097  0.0585  0.5770
45618SOL     OW43968   3.757   9.888  12.856  0.1626  0.4410  0.4137
45618SOL    HW143969   3.771   9.819  12.792 -4.1083  0.2132 -0.5498
45618SOL    HW243970   3.711   9.845  12.928 -0.6692  1.8542  0.7633
45619SOL     OW43971  12.620  10.664   6.749 -0.4288  0.3953  0.4137
45619SOL    HW143972  12.529  10.643   6.729 -0.1632 -1.3748  0.9348
45619SOL    HW243973  12.629  10.756   6.724 -1.9913  0.2394 -0.8913
45620SOL     OW43974   3.315   2.997   2.445  0.2110  0.7574 -0.6435
45620SOL    HW143975   3.332   3.010   2.352  1.5701  0.4985 -0.4566
45620SOL    HW243976   3.333   2.904   2.460 -1.4023  0.4584 -0.3875
45621SOL     OW43977  11.517   7.599  12.220  0.0216 -0.1037 -0.7079
45621SOL    HW143978  11.426   7.607  12.189 -0.6211 -2.9040  0.1643
45621SOL    HW243979  11.555   7.531  12.165  0.9125 -0.4789  0.3370
45622SOL     OW43980   9.794  10.550   6.442 -0.4295  0.1245 -0.4761
45622SOL    HW143981   9.823  10.640   6.460 -0.6873 -0.1011  1.1935
45622SOL    HW243982   9.873  10.497   6.452 -0.8381 -0.1840  1.6597
45623SOL     OW43983  11.337   9.029   5.209 -0.3246  0.0516  0.3419
45623SOL    HW143984  11.406   8.991   5.263  1.3631  2.0730 -0.2544
45623SOL    HW243985  11.257   8.985   5.237  0.8065 -0.5298  2.9008
45624SOL     OW43986   2.114  11.739   1.234  0.6673  0.0515 -0.0237
45624SOL    HW143987   2.087  11.738   1.326  0.0795  0.5564 -0.1860
45624SOL    HW243988   2.192  11.684   1.232  0.6151 -0.0672  0.7562
45625SOL     OW43989   9.689   0.132   2.120 -0.1976 -0.3619 -0.3262
45625SOL    HW143990   9.663   0.147   2.211 -1.2413  0.2839 -0.7132
45625SOL    HW243991   9.764   0.073   2.126  1.2540  1.4752  1.0766
45626SOL     OW43992   1.139  10.033   2.979  0.2390 -1.1728  0.2736
45626SOL    HW143993   1.111   9.993   3.061 -0.4167 -0.1171  0.5945
45626SOL    HW243994   1.071  10.010   2.917 -0.6056  0.1083  0.6734
45627SOL     OW43995  10.413   3.143   6.154  0.5073 -0.2506 -0.5777
45627SOL    HW143996  10.334   3.098   6.123  0.7811 -0.2735 -1.2457
45627SOL    HW243997  10.469   3.149   6.077  0.2312  1.7888 -0.6789
45628SOL     OW43998   3.104  12.279   8.072  0.0233 -0.1875 -0.4835
45628SOL    HW143999   3.109  12.283   8.168 -1.4341 -0.1290 -0.3809
45628SOL    HW244000   3.094  12.186   8.052  2.1647 -0.4202 -0.7393
45629SOL     OW44001   8.274   8.243  11.601 -0.3569 -0.3245 -0.4726
45629SOL    HW144002   8.299   8.151  11.604 -1.0617 -0.5049  0.2456
45629SOL    HW244003   8.239   8.255  11.512  0.3637 -0.5704 -0.7952
45630SOL     OW44004   1.268   7.574   7.565  0.3024 -0.4903  0.1466
45630SOL    HW144005   1.311   7.580   7.650  3.2969 -1.3615 -1.1725
45630SOL    HW244006   1.307   7.644   7.513  0.1858 -1.3629 -1.1602
45631SOL     OW44007   0.742   2.911   7.922  0.1852 -0.1657  0.5309
45631SOL    HW144008   0.833   2.886   7.907  0.0813 -1.3861  1.7588
45631SOL    HW244009   0.745   2.964   8.002 -0.1666 -0.0621  0.4777
45632SOL     OW44010   0.528   1.882   1.375  0.5142  0.4518  0.4643
45632SOL    HW144011   0.587   1.873   1.300  0.5549 -2.0594  0.6935
45632SOL    HW244012   0.557   1.962   1.419  3.0129 -0.0594 -0.0751
45633SOL     OW44013   1.058  12.397   1.462  0.6350 -0.0232  0.2668
45633SOL    HW144014   1.123  12.387   1.393 -0.5554  0.7321 -1.0073
45633SOL    HW244015   0.977  12.364   1.424 -0.4705  2.1787  0.5742
45634SOL     OW44016   1.146   4.361   8.808 -0.3087 -0.4507  0.3906
45634SOL    HW144017   1.149   4.392   8.718 -0.8763 -1.6697 -0.0731
45634SOL    HW244018   1.147   4.440   8.861 -2.8787  0.4504 -0.7534
45635SOL     OW44019   7.431   5.300   1.254  0.1214  0.4223 -0.3219
45635SOL    HW144020   7.412   5.371   1.315 -0.6729  0.7183 -0.8947
45635SOL    HW244021   7.390   5.327   1.172 -0.5656 -0.8839 -0.4390
45636SOL     OW44022   7.629   4.850   2.894  0.3304 -0.1490  0.0501
45636SOL    HW144023   7.637   4.824   2.986 -0.8210 -2.2316 -0.3661
45636SOL    HW244024   7.600   4.941   2.897 -0.8263 -0.5237  1.7905
45637SOL     OW44025   4.397   4.654   9.175  0.0751  0.7083 -0.6487
45637SOL    HW144026   4.312   4.620   9.144  1.0645 -0.2929 -2.4229
45637SOL    HW244027   4.375   4.739   9.213 -1.9569 -0.2415  0.5144
45638SOL     OW44028   5.186   6.489  11.988  0.1146 -0.3672 -0.0355
45638SOL    HW144029   5.280   6.501  12.002 -0.2291  0.6192  1.6355
45638SOL    HW244030   5.175   6.394  11.981  1.1614 -0.5346  0.3729
45639SOL     OW44031   9.416   4.750   7.743 -0.0690  0.0841 -0.2488
45639SOL    HW144032   9.462   4.723   7.663 -0.7378 -1.8032 -0.0377
45639SOL    HW244033   9.474   4.816   7.782  1.4214 -0.6728 -1.0760
45640SOL     OW44034   9.496   2.731   4.277 -0.2045  0.0298 -0.1351
45640SOL    HW144035   9.493   2.682   4.195  1.4740 -0.9792  0.3637
45640SOL    HW244036   9.412   2.712   4.319 -0.6030 -0.3769 -1.0864
45641SOL     OW44037   8.633  12.166  11.665  0.3691 -0.3185  0.2660
45641SOL    HW144038   8.585  12.109  11.605  0.7843 -1.1626  0.7211
45641SOL    HW244039   8.724  12.156  11.640  0.4044  0.6418 -0.0507
45642SOL     OW44040   2.943   2.380   1.045  0.1353  0.5622  0.0264
45642SOL    HW144041   3.037   2.393   1.050  0.4138 -0.6738 -1.2358
45642SOL    HW244042   2.931   2.287   1.063 -0.6102  0.2722 -1.7112
45643SOL     OW44043   9.133   1.702   5.735 -0.3197 -0.1725  0.0977
45643SOL    HW144044   9.144   1.755   5.814 -0.0812 -1.8530  1.2391
45643SOL    HW244045   9.039   1.686   5.729 -0.1486 -2.0046  1.4459
45644SOL     OW44046   6.202  11.806   1.451 -0.2236  0.2601  0.2371
45644SOL    HW144047   6.221  11.816   1.357 -0.1639  2.4827  0.4358
45644SOL    HW244048   6.249  11.726   1.476 -1.8861 -1.5626 -1.9996
45645SOL     OW44049  11.290  10.358   8.230 -0.8232  0.5877  0.3650
45645SOL    HW144050  11.219  10.400   8.182 -0.9667 -0.5687 -0.4669
45645SOL    HW244051  11.367  10.368   8.173 -1.0648 -1.0828 -0.3204
45646SOL     OW44052   6.213  10.817   8.770  0.4586 -0.0001 -0.0938
45646SOL    HW144053   6.131  10.785   8.809  0.6701  0.4566  0.7593
45646SOL    HW244054   6.222  10.766   8.690  0.8729 -2.2650  1.2865
45647SOL     OW44055   6.501   8.162  10.798  0.0641  0.3515  0.6563
45647SOL    HW144056   6.443   8.218  10.747  0.3600  1.2516  1.2686
45647SOL    HW244057   6.546   8.108  10.734 -0.9904  0.0851  0.1315
45648SOL     OW44058   9.113  12.669   9.283  0.3751 -0.1297  0.5055
45648SOL    HW144059   9.129  12.681   9.190 -3.7682  1.8180 -0.2019
45648SOL    HW244060   9.122  12.575   9.297  3.8914 -0.1954 -1.0531
45649SOL     OW44061  12.724   8.499   9.179 -0.0119 -0.1402 -0.2402
45649SOL    HW144062  12.698   8.554   9.105  0.7483 -0.6922 -0.9359
45649SOL    HW244063  12.642   8.463   9.212 -0.6430  2.1080  0.8331
45650SOL     OW44064   8.015  10.351   9.795 -0.0316  0.1668 -0.1420
45650SOL    HW144065   7.995  10.277   9.738 -0.6428  0.2002  0.0216
45650SOL    HW244066   8.105  10.375   9.772 -0.1218 -0.0835 -0.7970
45651SOL     OW44067   4.246  12.030   8.635 -0.2130 -0.2099  0.1786
45651SOL    HW144068   4.196  12.052   8.556  1.5227  0.7945 -0.7173
45651SOL    HW244069   4.303  11.957   8.607  0.0237 -0.2137  0.6665
45652SOL     OW44070   3.152  12.819   7.262  0.4879 -0.3519 -0.1136
45652SOL    HW144071   3.217  12.749   7.271  1.3827  0.1033 -2.1841
45652SOL    HW244072   3.196  12.896   7.296  0.5440 -0.2963 -0.3098
45653SOL     OW44073   7.986   8.613  12.535  0.1404 -0.5181 -0.0829
45653SOL    HW144074   8.053   8.615  12.604 -0.1908 -1.5040  0.2840
45653SOL    HW244075   7.910   8.573  12.577 -0.7803  0.7910 -0.4281
45654SOL     OW44076   6.829   5.041  12.193 -0.3351  0.1853  0.0479
45654SOL    HW144077   6.874   4.957  12.203 -1.0547 -0.4141 -1.4046
45654SOL    HW244078   6.896   5.107  12.211  0.0008 -0.6546  2.2347
45655SOL     OW44079   0.173   8.494   4.754 -0.0898  0.0002  0.2941
45655SOL    HW144080   0.215   8.551   4.818 -1.3058  1.5240 -0.2075
45655SOL    HW244081   0.084   8.527   4.747 -0.7820 -1.8355 -0.2177
45656SOL     OW44082   9.183   7.171   9.817 -0.3543 -0.2591 -0.0296
45656SOL    HW144083   9.169   7.247   9.873 -0.9846 -0.0277 -0.4860
45656SOL    HW244084   9.207   7.101   9.877  1.5948  0.6255  0.2737
45657SOL     OW44085   4.572   4.967   1.700 -0.1092  0.4660  0.1875
45657SOL    HW144086   4.623   4.890   1.727 -0.1134  0.6631  0.7841
45657SOL    HW244087   4.503   4.932   1.644  0.2767  0.1127 -0.0785
45658SOL     OW44088   5.897   4.852   0.435  0.5305  0.1966 -0.3545
45658SOL    HW144089   5.985   4.819   0.418  0.5780  0.3822 -0.4723
45658SOL    HW244090   5.909   4.946   0.449  0.4304  0.1217  0.2491
45659SOL     OW44091   5.228  12.337  11.957 -0.0502 -0.4724  0.4239
45659SOL    HW144092   5.194  12.425  11.941 -0.4520 -0.5528  0.8105
45659SOL    HW244093   5.286  12.348  12.033 -2.6779 -1.0941  2.6612
45660SOL     OW44094   7.044   1.755   9.496 -0.3446 -0.4670 -0.4765
45660SOL    HW144095   7.073   1.836   9.454 -1.9037  0.4395  0.0907
45660SOL    HW244096   7.115   1.693   9.480  1.0929  1.1135 -0.5813
45661SOL     OW44097   8.468   5.465  11.332  0.6109  0.6633  0.6442
45661SOL    HW144098   8.563   5.457  11.340  0.6045 -0.1253  0.0962
45661SOL    HW244099   8.435   5.442  11.419  0.7967 -2.3603  0.0293
45662SOL     OW44100   0.958  10.512  11.218  0.1845  0.3365  0.3293
45662SOL    HW144101   0.873  10.477  11.243  0.2082  0.5414  0.7082
45662SOL    HW244102   0.938  10.583  11.156  0.1053  0.0930  0.0743
45663SOL     OW44103   9.554  11.407  12.055  0.0910  0.2479 -0.3398
45663SOL    HW144104   9.488  11.452  12.108  0.1621 -0.5987  0.5038
45663SOL    HW244105   9.638  11.444  12.084  0.2375 -1.0908  1.1101
45664SOL     OW44106   0.871   0.704   6.486 -0.2219 -0.0581 -0.1833
45664SOL    HW144107   0.890   0.695   6.392  0.5803  0.0317 -0.0344
45664SOL    HW244108   0.953   0.733   6.524 -1.2787  2.8877  0.1176
45665SOL     OW44109   6.424   6.673   1.296 -0.3104  0.2123 -0.3124
45665SOL    HW144110   6.439   6.697   1.205 -0.0733  0.5513 -0.1866
45665SOL    HW244111   6.365   6.741   1.330 -0.2537  0.1892 -0.1648
45666SOL     OW44112   1.521   5.108   4.786 -0.0577  0.5594 -0.2757
45666SOL    HW144113   1.478   5.193   4.774  1.3175  1.1156 -1.4973
45666SOL    HW244114   1.452   5.044   4.767 -1.6714  1.2909  2.5387
45667SOL     OW44115  12.429   8.909   2.268 -0.0609 -0.2464 -0.4163
45667SOL    HW144116  12.498   8.965   2.232 -1.6369  1.8256 -0.3890
45667SOL    HW244117  12.455   8.894   2.358 -0.3560  1.8575  0.0710
45668SOL     OW44118   0.580   8.176   6.068  0.6157  0.3883 -0.6902
45668SOL    HW144119   0.488   8.167   6.044  0.4329 -0.9931  0.4333
45668SOL    HW244120   0.598   8.270   6.060 -0.2764  0.4347 -2.9683
45669SOL     OW44121   2.453   6.327   2.655 -0.5203 -0.3458 -0.1848
45669SOL    HW144122   2.509   6.252   2.676 -2.8343 -1.9143  0.9368
45669SOL    HW244123   2.513   6.401   2.650  1.5156 -1.6309  2.3425
45670SOL     OW44124   0.291   8.992   4.474 -0.1753  0.2300  0.0032
45670SOL    HW144125   0.255   8.926   4.532  1.8583 -0.5999  0.4177
45670SOL    HW244126   0.286   9.074   4.524  0.9950 -0.3673  1.1597
45671SOL     OW44127   6.093   3.588   6.429  0.0171 -0.3416  0.4330
45671SOL    HW144128   6.036   3.578   6.352  0.7004 -0.4992 -0.0659
45671SOL    HW244129   6.167   3.530   6.410 -0.5492 -1.6311  1.9408
45672SOL     OW44130   7.121   7.237   7.666 -0.1920 -0.2299  0.1024
45672SOL    HW144131   7.161   7.231   7.752 -0.2153 -2.8393  0.0237
45672SOL    HW244132   7.157   7.163   7.617 -1.2868  0.3156 -1.6480
45673SOL     OW44133  11.539   1.669   1.694 -0.2893  0.0639 -0.1061
45673SOL    HW144134  11.483   1.730   1.743  0.3886 -0.1133  0.9207
45673SOL    HW244135  11.494   1.658   1.610 -1.8813 -0.1855  0.7292
45674SOL     OW44136  11.317   5.173   3.388 -0.2526 -0.4548  0.1368
45674SOL    HW144137  11.338   5.234   3.318 -0.5644 -0.1923  0.2686
45674SOL    HW244138  11.221   5.173   3.392 -0.2576  1.1482  1.9282
45675SOL     OW44139   0.685  12.484   3.048 -0.2495  0.0586  0.3607
45675SOL    HW144140   0.757  12.423   3.062 -1.2803 -1.1879  0.5019
45675SOL    HW244141   0.681  12.537   3.127 -0.6726 -1.1716  1.1911
45676SOL     OW44142  10.464   2.005  10.245  0.1080  0.1829 -0.2894
45676SOL    HW144143  10.441   1.916  10.270 -0.5668  0.9224  1.9163
45676SOL    HW244144  10.424   2.061  10.312  1.2692  2.0892 -1.0819
45677SOL     OW44145  12.807  10.816   4.568 -0.3906  0.0683  0.2111
45677SOL    HW144146  12.872  10.866   4.518  0.4328 -2.4814 -1.4934
45677SOL    HW244147  12.741  10.792   4.504 -0.0031 -2.1674  0.5726
45678SOL     OW44148   0.486   2.013   7.019  0.2323  0.4306  0.2553
45678SOL    HW144149   0.546   1.997   7.092 -1.7925 -0.5558  1.7905
45678SOL    HW244150   0.514   1.951   6.952  0.6087 -0.4012  1.1466
45679SOL     OW44151  11.516  11.463   2.451 -0.2816 -0.4166  0.4668
45679SOL    HW144152  11.578  11.534   2.469 -1.1445  0.3732  0.3748
45679SOL    HW244153  11.558  11.385   2.488 -0.1434  0.4466  2.2362
45680SOL     OW44154   5.143   0.867  10.779 -0.3806  0.4199  0.5796
45680SOL    HW144155   5.119   0.936  10.841  1.3989 -0.8328  2.8018
45680SOL    HW244156   5.211   0.907  10.724 -2.6661  1.8665 -1.4420
45681SOL     OW44157   5.318   5.691   6.617 -0.1315 -0.1777  0.7881
45681SOL    HW144158   5.316   5.658   6.528 -1.5732  1.8448 -0.0131
45681SOL    HW244159   5.405   5.728   6.628 -0.3526  0.7057 -0.2670
45682SOL     OW44160   9.489   1.791   4.070 -0.5054  0.2690  0.7208
45682SOL    HW144161   9.461   1.883   4.069 -0.5122  0.2689  0.8498
45682SOL    HW244162   9.491   1.768   4.163 -0.6551  0.0934  0.6826
45683SOL     OW44163   2.167  10.883  10.909 -0.0482  0.3034  0.1764
45683SOL    HW144164   2.206  10.835  10.836 -2.2114 -1.1035 -0.1483
45683SOL    HW244165   2.234  10.880  10.978  0.5896 -1.7162 -0.4428
45684SOL     OW44166  10.563   6.197   2.497  0.5207 -0.2815  0.9560
45684SOL    HW144167  10.587   6.180   2.406  0.5385  0.1698  0.8772
45684SOL    HW244168  10.647   6.208   2.542  0.5003  1.8580  0.5765
45685SOL     OW44169   4.018   1.616   7.219  0.0888  0.1626  0.2806
45685SOL    HW144170   4.025   1.521   7.228 -0.7888  0.1639  1.1074
45685SOL    HW244171   4.107   1.645   7.196  0.6093 -0.7362  1.1076
45686SOL     OW44172   0.341  10.806   8.247 -0.1894 -0.1422 -0.0605
45686SOL    HW144173   0.346  10.884   8.302  0.2239  0.0131 -0.3123
45686SOL    HW244174   0.403  10.745   8.286 -1.3419 -0.7933  0.8191
45687SOL     OW44175   3.674   2.793   8.106 -0.0211  0.5613 -0.6874
45687SOL    HW144176   3.689   2.715   8.053 -0.4225 -0.3335  0.4718
45687SOL    HW244177   3.759   2.837   8.109  0.2305  0.1297 -1.2722
45688SOL     OW44178   2.439   4.924   2.978  0.3235 -0.0354 -0.3702
45688SOL    HW144179   2.504   4.855   2.969 -0.1128 -0.2138 -2.5458
45688SOL    HW244180   2.489   5.006   2.973  0.4606 -0.1768 -1.6681
45689SOL     OW44181   5.050   3.903   2.521 -0.1669  0.0452 -0.0150
45689SOL    HW144182   5.104   3.982   2.523 -1.9905  1.3872 -0.9704
45689SOL    HW244183   5.027   3.892   2.429 -1.2900 -0.6447  0.3319
45690SOL     OW44184   5.365   3.413   1.509  0.2740 -0.3965  0.0479
45690SOL    HW144185   5.306   3.393   1.437 -0.8436 -0.0632  0.8407
45690SOL    HW244186   5.316   3.389   1.588  1.5491 -0.9682  0.7065
45691SOL     OW44187   2.138   1.648   4.483 -0.3448 -0.2008 -0.0172
45691SOL    HW144188   2.184   1.728   4.458 -1.8626  0.5656 -0.5220
45691SOL    HW244189   2.085   1.626   4.407  0.7196 -2.2499 -0.2344
45692SOL     OW44190   9.150  10.593   8.479  0.4246 -0.6371 -0.0878
45692SOL    HW144191   9.098  10.590   8.399  1.4043  0.0720 -0.7712
45692SOL    HW244192   9.172  10.501   8.497  0.8846 -0.7321 -1.0986
45693SOL     OW44193   9.839   1.339   0.867 -0.0288 -0.0820 -0.9308
45693SOL    HW144194   9.790   1.267   0.906 -1.7111 -0.0271 -2.7731
45693SOL    HW244195   9.795   1.418   0.898  0.8904  0.1096 -0.0868
45694SOL     OW44196   0.292  11.820   2.458 -0.5636  0.3084 -0.4005
45694SOL    HW144197   0.222  11.869   2.502 -0.9829 -1.2257  0.7101
45694SOL    HW244198   0.342  11.780   2.529  1.4842  1.3538 -1.1710
45695SOL     OW44199   5.284   4.122  10.735 -0.1536  0.6553  0.0692
45695SOL    HW144200   5.300   4.126  10.829 -1.9130 -3.4483  0.7631
45695SOL    HW244201   5.347   4.058  10.702 -2.1956 -1.1301 -0.6456
45696SOL     OW44202   1.968  12.553   4.123 -0.1886  0.4211 -0.0229
45696SOL    HW144203   1.884  12.516   4.151 -0.7274  1.7889  0.2797
45696SOL    HW244204   2.023  12.477   4.103 -1.2784 -0.5122  0.4188
45697SOL     OW44205   6.557   5.711   8.898  0.3488 -0.6143  0.1871
45697SOL    HW144206   6.524   5.728   8.987 -0.9635  0.0214 -0.3925
45697SOL    HW244207   6.481   5.725   8.841  1.9087  2.5690 -1.4117
45698SOL     OW44208   1.201   1.870   7.950  0.6328 -0.8116 -1.2427
45698SOL    HW144209   1.156   1.890   7.868 -0.1788 -0.4867 -0.7366
45698SOL    HW244210   1.182   1.777   7.966  0.2811 -0.7226 -1.1252
45699SOL     OW44211   5.315   4.698   5.824  0.2533  0.1340 -0.1753
45699SOL    HW144212   5.308   4.627   5.887 -0.7506  0.0765 -0.3355
45699SOL    HW244213   5.326   4.655   5.739  0.7929  0.1990 -0.1445
45700SOL     OW44214   4.146   8.885   0.436  0.3584 -0.6077  0.1142
45700SOL    HW144215   4.107   8.856   0.519 -0.1795  1.4443  0.6251
45700SOL    HW244216   4.171   8.976   0.451  2.5639 -0.9128 -1.2183
45701SOL     OW44217   4.557   6.392   3.567  0.4362 -0.3918 -0.3405
45701SOL    HW144218   4.595   6.415   3.652 -1.5245 -0.5276  0.6387
45701SOL    HW244219   4.502   6.467   3.544  0.0153 -0.8508 -0.8732
45702SOL     OW44220   7.705   2.201   5.119 -0.0704  0.0378  0.3029
45702SOL    HW144221   7.732   2.271   5.058  0.6806 -0.5903 -0.1019
45702SOL    HW244222   7.750   2.222   5.200 -0.9032  0.7577  0.5986
45703SOL     OW44223   1.495   8.631  10.491  0.2282  0.1294  0.0166
45703SOL    HW144224   1.407   8.658  10.517 -0.0103  0.7724 -1.3429
45703SOL    HW244225   1.550   8.653  10.565 -0.5299  1.1495  0.2985
45704SOL     OW44226   6.299   1.242   6.611  0.2431  0.0910 -0.1749
45704SOL    HW144227   6.283   1.176   6.678  0.9175 -1.3970 -1.4200
45704SOL    HW244228   6.216   1.288   6.601 -0.3719 -0.8675  0.4109
45705SOL     OW44229   9.780   5.624   1.611  0.3336  0.6058 -0.3840
45705SOL    HW144230   9.720   5.695   1.588 -1.7984 -0.1185  2.3664
45705SOL    HW244231   9.730   5.544   1.594  1.8297 -0.2033 -1.2116
45706SOL     OW44232   9.852   8.002   1.149 -0.5332  0.0831  0.6771
45706SOL    HW144233   9.787   7.976   1.214 -1.3105  1.1199  0.3351
45706SOL    HW244234   9.815   8.080   1.107  0.8146  0.5595  0.3065
45707SOL     OW44235  10.987  10.919   2.774 -0.2825 -0.2631  0.3860
45707SOL    HW144236  10.993  10.904   2.869  0.0428  0.2932  0.4589
45707SOL    HW244237  10.957  11.009   2.766 -2.8174 -1.0724 -0.0458
45708SOL     OW44238   8.749   0.922   2.043  0.6725 -0.3284 -0.5378
45708SOL    HW144239   8.680   0.916   2.109  0.8934 -0.2411 -0.2933
45708SOL    HW244240   8.777   1.014   2.046  1.1964 -0.4870 -0.2143
45709SOL     OW44241   8.884   5.777   0.127 -0.3450 -0.4356  0.3187
45709SOL    HW144242   8.923   5.848   0.076 -0.0797 -0.0296  1.0624
45709SOL    HW244243   8.912   5.697   0.083 -0.0936 -0.0989 -0.1407
45710SOL     OW44244   0.824   3.312   1.444 -0.3258  0.3938 -0.8443
45710SOL    HW144245   0.730   3.293   1.443 -0.2941  0.2275 -1.7987
45710SOL    HW244246   0.862   3.247   1.385  0.3719  0.5516 -0.5740
45711SOL     OW44247   5.489   6.834   9.630  0.1063  0.3615 -0.2365
45711SOL    HW144248   5.496   6.898   9.559 -0.6809  2.2066  1.2652
45711SOL    HW244249   5.575   6.837   9.673  0.1535  0.2206 -0.3215
45712SOL     OW44250   8.369   6.117   8.186  0.6678 -0.4064 -0.0814
45712SOL    HW144251   8.371   6.092   8.093 -1.1165 -0.4409 -0.1473
45712SOL    HW244252   8.362   6.213   8.184 -0.7906 -0.4901 -0.0481
45713SOL     OW44253   3.402   1.175   1.848  0.1077 -0.0602 -0.5844
45713SOL    HW144254   3.452   1.142   1.923  1.4990 -1.1089 -1.9079
45713SOL    HW244255   3.318   1.201   1.885  0.2940 -1.6906  1.1495
45714SOL     OW44256   5.208   9.566   8.225 -0.3553 -0.1620  0.4584
45714SOL    HW144257   5.288   9.594   8.269 -0.8296  1.8863  0.1346
45714SOL    HW244258   5.239   9.521   8.146  0.5346  1.2072 -0.0226
45715SOL     OW44259   3.359   0.055   8.802  0.5395 -0.4440  0.6155
45715SOL    HW144260   3.410   0.089   8.875  0.0772  2.3455 -0.2281
45715SOL    HW244261   3.415   0.068   8.725 -0.1437 -0.4297  0.1040
45716SOL     OW44262  10.144   3.263   5.051  0.3905  0.2609 -0.7376
45716SOL    HW144263  10.166   3.351   5.020 -1.6578  0.9165 -0.5094
45716SOL    HW244264  10.177   3.261   5.141  0.5677  0.7482 -0.7841
45717SOL     OW44265   5.278   2.775   6.221  0.0195  0.1687 -0.7319
45717SOL    HW144266   5.190   2.793   6.190  0.0488 -0.4677 -1.2175
45717SOL    HW244267   5.333   2.839   6.174 -0.3609  1.8226  0.9548
45718SOL     OW44268   2.528   8.447   0.257 -0.2508  0.1794  0.4396
45718SOL    HW144269   2.612   8.484   0.283  0.9650 -1.2504 -1.2109
45718SOL    HW244270   2.498   8.400   0.335  0.9613 -0.0830  0.7773
45719SOL     OW44271   0.875   1.544   1.376 -0.1799  0.1932 -0.0064
45719SOL    HW144272   0.788   1.582   1.387 -0.0384  0.6796 -0.5238
45719SOL    HW244273   0.936   1.614   1.396  0.0834  0.1820 -0.7181
45720SOL     OW44274   0.804  10.088   6.638 -1.1212  0.4068  0.2578
45720SOL    HW144275   0.797  10.092   6.542 -2.0322  3.6189  0.3450
45720SOL    HW244276   0.720  10.121   6.670 -0.5511  0.1434  2.1698
45721SOL     OW44277   5.286   0.634   6.898 -0.0153  0.3431 -0.0798
45721SOL    HW144278   5.256   0.572   6.831  1.2377 -0.2344 -0.1372
45721SOL    HW244279   5.305   0.715   6.850 -1.0488  0.5874 -0.0992
45722SOL     OW44280   5.692   7.787  11.717 -0.2553  0.2267 -0.3115
45722SOL    HW144281   5.726   7.787  11.807  0.4612  0.0188 -0.5794
45722SOL    HW244282   5.701   7.878  11.688 -0.8915  0.3886 -0.0332
45723SOL     OW44283   9.777   9.276  10.739 -0.4414 -0.6108  0.2183
45723SOL    HW144284   9.796   9.272  10.645 -0.9756 -2.1168  0.1381
45723SOL    HW244285   9.821   9.200  10.775  0.9336  0.7137  1.4595
45724SOL     OW44286   2.412  12.402   6.107 -0.5928  0.4829  0.1030
45724SOL    HW144287   2.402  12.431   6.198 -0.9406 -0.0949  0.2530
45724SOL    HW244288   2.384  12.310   6.108  2.4384 -0.5571  0.0617
45725SOL     OW44289   1.129   6.041   0.079  0.2820 -0.0223 -0.1647
45725SOL    HW144290   1.149   6.124   0.035  0.8506  0.5980  1.2005
45725SOL    HW244291   1.039   6.050   0.109  0.1245 -0.1718 -0.5827
45726SOL     OW44292   0.702  12.871   4.919 -0.6041 -0.1346 -0.5324
45726SOL    HW144293   0.687  12.912   4.833 -1.0321  0.6295 -0.1099
45726SOL    HW244294   0.769  12.926   4.959  0.0792 -0.8824 -0.6269
45727SOL     OW44295   6.295   9.310  11.009  0.1339  0.4622 -0.1756
45727SOL    HW144296   6.246   9.375  10.958  0.3571  0.9517  0.2270
45727SOL    HW244297   6.370   9.358  11.043  0.6983 -0.1938 -0.4758
45728SOL     OW44298   4.298  10.385   4.489  0.7149 -0.4753 -0.0111
45728SOL    HW144299   4.374  10.342   4.530  0.4059  1.2456  2.5637
45728SOL    HW244300   4.229  10.318   4.491  1.0401 -0.7962  1.3382
45729SOL     OW44301   6.644  10.718  11.538  0.1002 -0.3680 -0.0078
45729SOL    HW144302   6.723  10.664  11.544  0.3221 -0.1656 -0.9026
45729SOL    HW244303   6.615  10.728  11.628  0.6397 -1.1199  0.2636
45730SOL     OW44304   6.344   6.185   8.435  0.1602 -0.0700 -0.5449
45730SOL    HW144305   6.362   6.117   8.371  0.2672  0.7892 -1.4381
45730SOL    HW244306   6.428   6.204   8.476 -0.1218 -1.5356  0.8128
45731SOL     OW44307   6.249  12.509   8.510 -0.0723  0.1896  0.2836
45731SOL    HW144308   6.234  12.530   8.417 -1.5747  1.2407  0.7167
45731SOL    HW244309   6.342  12.490   8.516 -0.1853 -1.2837 -1.7007
45732SOL     OW44310   6.169  12.685   2.449 -0.1109  0.0785  0.4328
45732SOL    HW144311   6.204  12.700   2.361 -0.9426  0.3385  0.1370
45732SOL    HW244312   6.184  12.768   2.495 -0.7344  0.3440  0.1658
45733SOL     OW44313   9.035   9.364   9.905 -0.5983  0.3046  0.4075
45733SOL    HW144314   8.986   9.303   9.960  0.8605 -2.7089 -1.3927
45733SOL    HW244315   9.017   9.337   9.816  2.6011  0.3600 -0.3973
45734SOL     OW44316   2.821   5.001   5.270 -0.2036 -0.2757 -0.5203
45734SOL    HW144317   2.873   5.077   5.247 -1.0821 -0.0756 -2.0349
45734SOL    HW244318   2.732   5.035   5.281 -0.5710 -1.0272 -1.0285
45735SOL     OW44319   8.022   1.449  11.016 -0.2534  0.1673  0.2214
45735SOL    HW144320   8.028   1.534  11.059  1.6998  0.2852 -0.1757
45735SOL    HW244321   8.107   1.439  10.972 -0.8178 -1.5531 -0.5428
45736SOL     OW44322   0.971   7.907   2.877 -0.9733 -0.2486  0.2636
45736SOL    HW144323   1.023   7.858   2.813 -0.5581  2.1853 -1.4345
45736SOL    HW244324   1.035   7.950   2.932 -1.2737 -0.0434  0.4564
45737SOL     OW44325   7.977  10.694   2.325 -0.5056 -0.0467  0.6174
45737SOL    HW144326   7.922  10.692   2.247 -1.4103 -2.2166  1.2328
45737SOL    HW244327   8.015  10.606   2.330  0.1286  0.2886  2.1961
45738SOL     OW44328   1.075   5.173   8.292  0.0090  0.0679  0.0999
45738SOL    HW144329   1.045   5.185   8.202  1.1957 -0.3506 -0.3692
45738SOL    HW244330   1.063   5.079   8.308  0.5864 -0.0111  0.0770
45739SOL     OW44331   2.478   3.760   4.792  0.9974  0.1579 -0.6365
45739SOL    HW144332   2.405   3.820   4.780 -0.1970 -1.1235 -0.1252
45739SOL    HW244333   2.542   3.808   4.845 -0.1388  0.8004  0.1771
45740SOL     OW44334   1.129   0.186   7.049  0.2567 -0.4667  0.2165
45740SOL    HW144335   1.051   0.132   7.065  0.1717  0.1162  1.9790
45740SOL    HW244336   1.164   0.204   7.136  0.7305  1.6842 -0.3659
45741SOL     OW44337   1.308   9.520   2.163 -0.2672 -0.3020  0.6838
45741SOL    HW144338   1.277   9.527   2.073  1.1256 -4.0788 -0.2850
45741SOL    HW244339   1.399   9.550   2.159 -0.2077 -0.4646  0.7905
45742SOL     OW44340  11.017  10.213  10.941  0.4313  0.2870 -0.1617
45742SOL    HW144341  11.109  10.226  10.914  0.3783 -1.3989 -1.2842
45742SOL    HW244342  10.990  10.300  10.972  1.5432  1.5919 -2.5205
45743SOL     OW44343   7.128   9.707   7.207 -0.5138 -0.0158 -0.1506
45743SOL    HW144344   7.143   9.644   7.136  0.5741 -0.9759  0.8761
45743SOL    HW244345   7.177   9.785   7.180  0.2931 -0.5385 -0.2563
45744SOL     OW44346   1.998   8.003   2.166  0.8925  0.0597  0.1749
45744SOL    HW144347   2.058   8.067   2.129 -1.2732  1.8102 -0.5697
45744SOL    HW244348   1.913   8.023   2.126  0.0582 -3.3555 -0.1518
45745SOL     OW44349   2.117   4.190   1.232 -0.0585 -0.0400  0.5294
45745SOL    HW144350   2.155   4.103   1.221 -0.1405 -0.0183  0.0401
45745SOL    HW244351   2.141   4.216   1.321  3.1166  0.9769 -0.4817
45746SOL     OW44352  10.494   9.795   0.512  0.4086 -0.0731  0.5197
45746SOL    HW144353  10.452   9.866   0.463  2.5514  0.7827 -0.2361
45746SOL    HW244354  10.423   9.753   0.560 -1.2875  1.1432 -0.7904
45747SOL     OW44355  11.988   0.334  10.812 -0.4317  0.6413  0.3808
45747SOL    HW144356  12.067   0.388  10.807 -0.3139  0.6135  1.6421
45747SOL    HW244357  12.012   0.261  10.870 -1.2652  0.4283  0.4744
45748SOL     OW44358   9.652   2.860  10.387  0.2579 -0.3533 -0.3819
45748SOL    HW144359   9.688   2.782  10.431  0.5096  0.3400  0.6886
45748SOL    HW244360   9.563   2.835  10.362  0.3089 -0.9585  0.0247
45749SOL     OW44361   6.491   7.023   3.557 -0.4483 -0.0122  0.4036
45749SOL    HW144362   6.534   7.106   3.536  2.0629 -1.5353 -0.8254
45749SOL    HW244363   6.561   6.965   3.584 -2.1513 -1.7939  1.2512
45750SOL     OW44364   2.066  12.499  11.256  0.7436 -0.1083  0.4219
45750SOL    HW144365   2.078  12.594  11.258 -0.0278 -0.0161  1.7042
45750SOL    HW244366   2.153  12.464  11.278  1.2126  0.2585 -0.7650
45751SOL     OW44367   5.176   2.224   7.965 -0.0179 -0.0267 -0.3616
45751SOL    HW144368   5.235   2.148   7.973  1.6295  1.2427  0.1727
45751SOL    HW244369   5.232   2.293   7.930 -0.8501  1.6102  1.3933
45752SOL     OW44370   6.125   1.393   0.523 -0.0842 -0.0941  0.2319
45752SOL    HW144371   6.085   1.339   0.591  1.2841  0.1596  1.2836
45752SOL    HW244372   6.051   1.430   0.475 -1.0659 -1.0782  0.9424
45753SOL     OW44373   2.573   5.825   1.901  0.3162  0.8359 -0.1243
45753SOL    HW144374   2.558   5.830   1.996  1.1947  1.5101 -0.0039
45753SOL    HW244375   2.651   5.769   1.893 -0.2465  0.0863 -0.5145
45754SOL     OW44376   6.033   1.197  12.953  0.8357 -0.5496 -0.2420
45754SOL    HW144377   6.062   1.269  13.009  0.8726  0.6225 -1.7234
45754SOL    HW244378   5.998   1.132  13.014 -1.9059  1.8912  1.0298
45755SOL     OW44379   0.330  12.497   9.672 -0.2818 -0.1165 -0.1377
45755SOL    HW144380   0.289  12.573   9.712 -0.4175 -0.0062 -0.4897
45755SOL    HW244381   0.306  12.424   9.730  0.8210  0.2776  0.8714
45756SOL     OW44382   3.099   3.011  12.020  0.3466 -0.5021 -0.8613
45756SOL    HW144383   3.101   2.917  12.002 -0.3630 -0.8066  0.4741
45756SOL    HW244384   3.022   3.023  12.076  1.9979  0.4093  1.3887
45757SOL     OW44385   3.315   4.386  11.891 -0.2220 -0.0001 -0.5371
45757SOL    HW144386   3.374   4.324  11.847 -1.4112 -1.0156 -0.7743
45757SOL    HW244387   3.229   4.346  11.882 -0.8968  1.2609  0.1382
45758SOL     OW44388  10.326   5.456   8.215  0.0117 -0.3680  0.2326
45758SOL    HW144389  10.419   5.434   8.225  0.6410  1.3288 -1.4356
45758SOL    HW244390  10.320   5.548   8.241 -1.3097 -0.5488  0.6779
45759SOL     OW44391  12.560  11.143   1.902 -0.4325  0.0854  0.4336
45759SOL    HW144392  12.617  11.144   1.979 -1.0744 -1.0242  0.9467
45759SOL    HW244393  12.589  11.218   1.850  2.0822 -0.9271  0.2339
45760SOL     OW44394   6.861   9.148  10.663  0.1325  0.6077 -0.6135
45760SOL    HW144395   6.912   9.211  10.715 -0.7924 -0.3799  1.6532
45760SOL    HW244396   6.775   9.189  10.654  0.0278  0.4006 -0.5692
45761SOL     OW44397   9.154  10.981   1.405 -0.2888  0.2974 -0.5591
45761SOL    HW144398   9.211  10.905   1.393 -0.1315  0.0232  1.5549
45761SOL    HW244399   9.177  11.040   1.333 -0.1975 -1.4928 -2.0890
45762SOL     OW44400   2.944   5.565   6.017  0.9419 -0.7677  0.1875
45762SOL    HW144401   2.991   5.618   6.081  1.5482 -0.8409 -0.1925
45762SOL    HW244402   2.875   5.622   5.984  1.2465 -0.3994  0.1858
45763SOL     OW44403   1.817   1.000   6.876  0.2772  0.4437 -0.0561
45763SOL    HW144404   1.883   0.932   6.871 -0.9267 -0.7869  0.0239
45763SOL    HW244405   1.742   0.964   6.827 -0.3028  1.8041 -0.2024
45764SOL     OW44406   2.524   8.675   1.255 -0.7802 -0.2530  0.6490
45764SOL    HW144407   2.522   8.591   1.302  0.0720  0.1126  1.3628
45764SOL    HW244408   2.466   8.732   1.306  0.0988  0.1272  1.2350
45765SOL     OW44409   9.387   5.841   3.478  0.6153 -0.3136  0.1924
45765SOL    HW144410   9.463   5.897   3.459  1.1169 -0.4880  1.5550
45765SOL    HW244411   9.420   5.752   3.467 -0.2832 -0.4052 -2.3342
45766SOL     OW44412   4.210   4.995   1.078  0.1074  0.1632 -0.6404
45766SOL    HW144413   4.296   5.004   1.120 -0.2904 -0.9502  0.4700
45766SOL    HW244414   4.198   5.077   1.029  2.9885 -0.7216 -3.1182
45767SOL     OW44415  12.759   4.773  12.237 -0.4262  0.3016  0.3669
45767SOL    HW144416  12.744   4.837  12.167  0.0905  0.6434  0.5663
45767SOL    HW244417  12.712   4.808  12.313 -0.2483  0.3785  0.4409
45768SOL     OW44418  10.994  10.474  11.014  0.8544  0.2700 -0.2844
45768SOL    HW144419  10.909  10.496  11.053  2.1461  0.3283  2.7457
45768SOL    HW244420  11.027  10.558  10.981  0.7904  0.7400  0.8013
45769SOL     OW44421   7.961   8.440   3.076  0.4057 -0.0814 -0.0196
45769SOL    HW144422   7.989   8.499   3.006  0.0292 -0.2170 -0.2847
45769SOL    HW244423   7.995   8.354   3.050  1.7082  0.1489  0.7919
45770SOL     OW44424  10.074   9.794  11.963  0.6354  0.3186 -0.2025
45770SOL    HW144425  10.120   9.746  11.894  0.2330 -0.1061 -0.1781
45770SOL    HW244426  10.045   9.727  12.024  0.1697  0.6007 -0.1054
45771SOL     OW44427   4.208   8.064   3.683 -0.7887  0.4014  0.3041
45771SOL    HW144428   4.123   8.055   3.725 -0.5735 -1.8954  0.3586
45771SOL    HW244429   4.266   8.096   3.753 -1.5427  1.9432  0.2709
45772SOL     OW44430   4.955   6.924   3.038 -0.0320  0.0632 -0.3267
45772SOL    HW144431   4.956   7.011   2.999 -0.3346 -0.7950 -2.4061
45772SOL    HW244432   5.046   6.906   3.060  0.3604  0.1344 -1.8003
45773SOL     OW44433   1.696   4.859  10.057  0.1007  0.0323 -0.6440
45773SOL    HW144434   1.649   4.915   9.995 -0.0551 -0.2122 -0.7507
45773SOL    HW244435   1.694   4.907  10.140  0.3281  0.3713 -0.8336
45774SOL     OW44436   5.119   4.916   9.799  0.5154 -0.5945 -0.2084
45774SOL    HW144437   5.202   4.894   9.842  1.8021  0.1301 -2.2147
45774SOL    HW244438   5.052   4.880   9.858  2.2790 -5.1959 -0.5854
45775SOL     OW44439  10.950   1.939   9.669  0.4188 -0.4089 -0.1100
45775SOL    HW144440  10.901   1.992   9.731  0.8034 -0.7294  0.4715
45775SOL    HW244441  11.042   1.959   9.685  0.6561 -2.0865  0.9437
45776SOL     OW44442   5.771   7.183   7.518 -0.5309  0.1100 -0.1760
45776SOL    HW144443   5.854   7.226   7.540 -0.4080  0.0636 -0.5417
45776SOL    HW244444   5.712   7.256   7.496 -0.2555  0.0920 -1.0221
45777SOL     OW44445   2.663  12.689   6.956 -0.1924  0.2373 -0.1446
45777SOL    HW144446   2.643  12.613   6.901 -0.1634  0.4252 -0.4189
45777SOL    HW244447   2.751  12.671   6.990 -0.3640 -0.0561  0.1462
45778SOL     OW44448   0.274   0.279   0.885  0.2339 -0.2677  0.5277
45778SOL    HW144449   0.224   0.264   0.805  0.4088 -2.2055  0.7231
45778SOL    HW244450   0.220   0.243   0.954  1.4261 -1.5164  0.8577
45779SOL     OW44451  11.608   5.311   1.214  0.1733 -0.1274 -0.4923
45779SOL    HW144452  11.533   5.350   1.258 -1.0253 -1.2703 -1.4327
45779SOL    HW244453  11.603   5.218   1.236  1.4181 -0.2092 -0.4601
45780SOL     OW44454   2.817   6.057   5.213 -0.0343  0.1622  0.0818
45780SOL    HW144455   2.909   6.038   5.227  0.1770  0.3843 -0.8996
45780SOL    HW244456   2.806   6.147   5.244 -0.0861 -0.0890  0.8222
45781SOL     OW44457   9.573   9.064  11.181  0.1132 -0.2713  0.1162
45781SOL    HW144458   9.495   9.109  11.212 -0.0661 -0.0747 -0.5953
45781SOL    HW244459   9.555   9.046  11.088  1.1181  0.2303 -0.1875
45782SOL     OW44460   8.911   5.518   7.649  0.4116  0.8086 -0.5957
45782SOL    HW144461   8.968   5.590   7.674  0.5555  0.0884  1.3438
45782SOL    HW244462   8.868   5.492   7.731  1.6858 -2.4233 -0.8137
45783SOL     OW44463   6.883  10.038  12.676  0.1043  0.0982 -0.0346
45783SOL    HW144464   6.960  10.091  12.694  1.8146 -1.2097 -2.7625
45783SOL    HW244465   6.918   9.955  12.644 -2.4512 -0.9533 -0.3452
45784SOL     OW44466  10.497   5.991   7.562  0.4387 -0.1753  0.8619
45784SOL    HW144467  10.497   5.935   7.639  1.6214  0.1037  1.0957
45784SOL    HW244468  10.588   5.991   7.533  0.2604  0.7945  0.2570
45785SOL     OW44469   4.425   7.762   4.165  0.2335 -0.2819 -0.0272
45785SOL    HW144470   4.329   7.765   4.162  0.1953 -1.0491  0.1447
45785SOL    HW244471   4.449   7.827   4.231 -0.0529  1.3122 -1.4318
45786SOL     OW44472  12.681   8.684   9.830 -0.1839 -0.2584 -0.1249
45786SOL    HW144473  12.603   8.658   9.878  0.8212 -1.8841  0.6914
45786SOL    HW244474  12.753   8.640   9.874  1.4201  2.3364  0.0446
45787SOL     OW44475  11.484   3.274   6.716  0.3992  0.2992 -0.1518
45787SOL    HW144476  11.413   3.333   6.690 -0.4721 -0.5967  0.1171
45787SOL    HW244477  11.447   3.222   6.788  1.7925  0.7447  0.9471
45788SOL     OW44478   1.462   5.091   9.250  0.2521  0.4749  0.0171
45788SOL    HW144479   1.378   5.126   9.278  0.3529  0.6124  0.1485
45788SOL    HW244480   1.450   5.070   9.157 -0.5257 -1.2968  0.4720
45789SOL     OW44481   0.336   3.721   9.952 -0.4021  0.5050 -0.2924
45789SOL    HW144482   0.304   3.811   9.960  0.8285  0.8415  1.2415
45789SOL    HW244483   0.264   3.668   9.988 -0.4280  1.0319  0.4708
45790SOL     OW44484   8.625   1.589   9.672 -0.5796  0.1330 -0.0653
45790SOL    HW144485   8.710   1.572   9.631 -1.3479  0.9516 -2.1228
45790SOL    HW244486   8.631   1.679   9.704 -0.2749 -0.2232  0.9255
45791SOL     OW44487   3.077   4.741   7.743  0.2765 -0.0450  0.1196
45791SOL    HW144488   3.037   4.822   7.772 -1.6112 -1.7493  2.7910
45791SOL    HW244489   3.171   4.755   7.752 -0.0767  1.2315  2.5131
45792SOL     OW44490   5.156   0.774   8.877 -0.1055 -0.3527 -0.6543
45792SOL    HW144491   5.198   0.805   8.958 -0.0249  0.9793 -1.1838
45792SOL    HW244492   5.071   0.741   8.906  0.7596 -1.9022  0.2520
45793SOL     OW44493   4.320   9.483   6.418  0.2408 -0.1384  0.0750
45793SOL    HW144494   4.346   9.480   6.510  2.2505 -1.4392 -0.4763
45793SOL    HW244495   4.401   9.496   6.370 -0.5681 -0.9340 -1.5882
45794SOL     OW44496   5.886   5.400   8.253 -0.2015  0.0247  0.0231
45794SOL    HW144497   5.805   5.371   8.211 -1.2463  0.9050  1.3358
45794SOL    HW244498   5.869   5.491   8.278 -0.6485 -1.0227  4.4129
45795SOL     OW44499   3.650  11.649   4.649  0.2454  0.6056 -0.4558
45795SOL    HW144500   3.684  11.584   4.710 -0.6156  0.4348 -0.1436
45795SOL    HW244501   3.581  11.695   4.698 -0.3264  0.5970 -1.2293
45796SOL     OW44502   7.909   9.999   0.559 -0.0418  0.1407 -0.3798
45796SOL    HW144503   7.838  10.049   0.599 -0.6673  0.0354 -1.3288
45796SOL    HW244504   7.943  10.055   0.490 -1.3560 -1.0134 -2.0753
45797SOL     OW44505   9.416   8.234   0.537  0.1338  0.5800 -0.3904
45797SOL    HW144506   9.375   8.229   0.450 -0.5936  1.2989 -0.0994
45797SOL    HW244507   9.418   8.328   0.557  0.5784  0.4415  0.2464
45798SOL     OW44508  12.679  12.901  11.368  0.2030  0.0675  0.9637
45798SOL    HW144509  12.667  12.808  11.348  1.5076  0.2687 -1.0755
45798SOL    HW244510  12.635  12.914  11.452 -1.8357 -1.9184  0.3024
45799SOL     OW44511  10.872   1.017   2.212 -0.7283  0.2283 -0.3786
45799SOL    HW144512  10.777   1.028   2.212 -0.6315  1.2023 -0.0870
45799SOL    HW244513  10.906   1.099   2.176 -0.0114 -0.3107 -0.9655
45800SOL     OW44514   8.949   3.359  12.241 -0.0098  0.3665 -0.2741
45800SOL    HW144515   8.996   3.308  12.307 -0.6816  0.5720  0.3889
45800SOL    HW244516   9.016   3.411  12.198  0.2621  1.3970  1.3229
45801SOL     OW44517   1.123  12.842   0.380 -0.1067  0.1474  0.2677
45801SOL    HW144518   1.082  12.925   0.356 -1.4188 -0.2212  1.1290
45801SOL    HW244519   1.209  12.844   0.337  0.1269  2.1909  0.7320
45802SOL     OW44520   7.675  12.246   9.970 -0.3379 -0.3289  0.3401
45802SOL    HW144521   7.671  12.173   9.908  1.9211 -0.6707  0.4906
45802SOL    HW244522   7.693  12.206  10.054 -1.1542  0.2857  0.8243
45803SOL     OW44523   4.995   3.735   1.554  0.3782  0.0840 -0.3514
45803SOL    HW144524   4.994   3.829   1.534  1.0216 -0.1228 -1.4475
45803SOL    HW244525   5.087   3.715   1.569  0.3758 -0.5625 -1.1508
45804SOL     OW44526   4.876   5.525   5.829  0.5340  0.3279 -0.7135
45804SOL    HW144527   4.902   5.441   5.792  0.8577  0.4779 -0.8330
45804SOL    HW244528   4.853   5.579   5.753 -0.7984 -0.0075 -0.5836
45805SOL     OW44529   9.578   8.764   9.874  0.1045  0.6779 -0.1866
45805SOL    HW144530   9.617   8.722   9.797 -0.9096  0.7040 -0.7361
45805SOL    HW244531   9.496   8.718   9.887  0.0786  0.9527  0.6389
45806SOL     OW44532  10.798  10.683  11.884  0.0095  0.0645  0.5665
45806SOL    HW144533  10.716  10.728  11.903  0.0472  0.3842  0.0259
45806SOL    HW244534  10.798  10.606  11.940 -0.9860 -0.3078  0.0835
45807SOL     OW44535   8.994   8.926   4.484 -0.0217  0.5749  0.4196
45807SOL    HW144536   8.927   8.927   4.552 -0.9860 -0.3976 -0.4952
45807SOL    HW244537   9.025   9.017   4.480 -2.2045  1.3496 -0.0354
45808SOL     OW44538   6.555  10.603   0.111  0.2549  0.5274 -0.4428
45808SOL    HW144539   6.547  10.620   0.205 -1.7897 -0.4419 -0.3824
45808SOL    HW244540   6.638  10.556   0.102  1.3685  2.2139  0.5981
45809SOL     OW44541   3.124   4.243   3.405  0.6158  0.0871  0.3704
45809SOL    HW144542   3.078   4.212   3.327  0.0183 -0.9947  1.1196
45809SOL    HW244543   3.121   4.338   3.399 -1.1601  0.0477  0.0467
45810SOL     OW44544   8.607  12.612   4.694 -0.6098 -0.3299  0.4521
45810SOL    HW144545   8.667  12.616   4.620 -0.3623 -2.4817  0.4824
45810SOL    HW244546   8.530  12.661   4.665  0.4487  0.9947 -0.2385
45811SOL     OW44547   0.427  12.136  10.881  0.4885  0.9720  0.2172
45811SOL    HW144548   0.356  12.071  10.885  0.6005  0.8305 -0.1238
45811SOL    HW244549   0.381  12.220  10.879  0.2839  0.8450 -1.3169
45812SOL     OW44550   6.574   1.067   5.609  0.5651  0.1798  0.7323
45812SOL    HW144551   6.554   1.150   5.567  1.4234 -0.3005 -0.7032
45812SOL    HW244552   6.641   1.089   5.674  2.0235  0.4201 -0.7726
45813SOL     OW44553   5.599   4.673   2.594 -0.2338  0.3001 -0.1427
45813SOL    HW144554   5.695   4.670   2.589 -0.2061  2.0117 -2.8829
45813SOL    HW244555   5.576   4.759   2.558 -2.8376 -0.4589 -0.4735
45814SOL     OW44556   4.526   3.215   6.821 -0.0267 -0.3283 -0.0773
45814SOL    HW144557   4.549   3.199   6.912  1.5765 -1.4291 -0.6482
45814SOL    HW244558   4.575   3.294   6.797  0.9978 -1.0612 -0.4743
45815SOL     OW44559   8.520   3.446   5.320  0.2197 -1.1133  0.6837
45815SOL    HW144560   8.587   3.491   5.371  0.1964 -1.8908  1.4257
45815SOL    HW244561   8.554   3.446   5.231  0.1538  0.4581  0.6299
45816SOL     OW44562  11.285   2.248   4.442 -1.1736 -0.0863 -0.6529
45816SOL    HW144563  11.354   2.256   4.508 -3.4497  0.1275  1.8726
45816SOL    HW244564  11.291   2.328   4.391 -0.7990  0.8642  0.8162
45817SOL     OW44565  10.500   5.015   1.995 -0.0747  0.3060 -0.2190
45817SOL    HW144566  10.593   4.992   2.001 -0.0136  0.3837 -0.8321
45817SOL    HW244567  10.495   5.077   1.923 -0.9581 -1.6500 -1.9537
45818SOL     OW44568   6.153   0.422   5.163  0.1764  0.0191 -0.1015
45818SOL    HW144569   6.112   0.477   5.230  0.8722 -1.9618  2.0875
45818SOL    HW244570   6.087   0.416   5.094 -1.2717  0.7946  1.1522
45819SOL     OW44571  11.841   6.792   7.029  0.3492  0.2901 -0.2047
45819SOL    HW144572  11.873   6.704   7.053 -0.5594  0.2753  1.0622
45819SOL    HW244573  11.832   6.789   6.934  1.3990 -0.6145 -0.3109
45820SOL     OW44574   2.917   5.037   4.003 -0.5567 -0.3220 -0.0118
45820SOL    HW144575   2.973   4.962   3.984 -0.7822 -0.6014  0.4163
45820SOL    HW244576   2.896   5.029   4.096 -0.7294  0.1718 -0.0054
45821SOL     OW44577   8.905   1.286  10.096  0.0860 -0.6650  0.4109
45821SOL    HW144578   8.895   1.193  10.076 -1.1288 -0.9709  2.1725
45821SOL    HW244579   8.828   1.327  10.057  0.9023 -0.2693 -0.8530
45822SOL     OW44580   4.602  11.820   8.989  0.0523 -0.3496  0.0475
45822SOL    HW144581   4.661  11.891   9.013  1.3452 -1.5410  0.5389
45822SOL    HW244582   4.575  11.782   9.072 -2.3397  0.8484 -0.1094
45823SOL     OW44583   1.277   6.857   4.565  0.3963 -0.2510 -0.1045
45823SOL    HW144584   1.186   6.886   4.578 -0.5343 -3.1922  0.6636
45823SOL    HW244585   1.286   6.779   4.619  2.6024 -1.5362 -2.1167
45824SOL     OW44586   9.643  12.536   8.836 -0.0441 -0.4049  0.2967
45824SOL    HW144587   9.684  12.592   8.902 -0.2242 -0.4993  0.4889
45824SOL    HW244588   9.550  12.540   8.855 -0.0751 -0.6226  0.1977
45825SOL     OW44589  12.948   5.184   0.724 -0.0284  0.4904 -0.5063
45825SOL    HW144590  12.932   5.093   0.700 -1.5132  0.7281 -0.5081
45825SOL    HW244591  13.015   5.180   0.792  0.2156 -0.5625 -0.7961
45826SOL     OW44592   5.039   7.673   8.943 -0.3093 -0.0001 -0.2847
45826SOL    HW144593   5.023   7.741   9.008 -0.3006  1.1688 -1.4660
45826SOL    HW244594   4.960   7.619   8.945 -0.1656 -0.1956  0.9120
45827SOL     OW44595   9.539  10.259  12.005  0.8266 -0.0579  0.2569
45827SOL    HW144596   9.595  10.184  11.987 -0.1934 -1.1905  1.5689
45827SOL    HW244597   9.453  10.234  11.970  1.0114  1.5572 -1.5413
45828SOL     OW44598   4.433   9.191  12.503 -0.4936  0.1773  0.4572
45828SOL    HW144599   4.473   9.219  12.585  0.9228  1.9756 -0.7957
45828SOL    HW244600   4.413   9.272  12.456 -3.4628 -0.7009 -0.0417
45829SOL     OW44601   7.093   3.427   2.386  0.0333  0.3398  0.3370
45829SOL    HW144602   7.077   3.454   2.476  2.1731  0.4069  0.7290
45829SOL    HW244603   7.157   3.356   2.393 -2.3675 -2.1519 -0.9346
45830SOL     OW44604   4.976   5.718   9.519 -0.3351 -0.1761  0.2076
45830SOL    HW144605   4.915   5.698   9.448  1.1100  0.7487 -1.3686
45830SOL    HW244606   5.043   5.650   9.514 -0.7847 -0.7555  1.4545
45831SOL     OW44607   1.184   7.195   9.703  0.0654  0.4703  0.2432
45831SOL    HW144608   1.198   7.151   9.787 -0.4492  0.9745  0.6038
45831SOL    HW244609   1.197   7.127   9.637  1.9194  0.3821  0.6435
45832SOL     OW44610   7.606   7.318  12.946 -0.4513 -0.1144  0.0139
45832SOL    HW144611   7.686   7.271  12.923  0.6769  1.3803  0.7932
45832SOL    HW244612   7.607   7.396  12.890 -1.4858 -0.1887 -0.1292
45833SOL     OW44613   7.203   4.988   6.204 -0.2831 -0.1183  0.3498
45833SOL    HW144614   7.151   5.003   6.125  0.3999  2.1247  0.2566
45833SOL    HW244615   7.226   4.895   6.200 -2.4339 -0.6654 -0.7042
45834SOL     OW44616   2.649   2.941  10.316 -0.0131 -0.2644 -0.5587
45834SOL    HW144617   2.707   2.882  10.363  0.8161 -0.0481 -1.2780
45834SOL    HW244618   2.679   3.029  10.340 -2.6456  0.0220  2.2894
45835SOL     OW44619   7.414  12.687   3.483  0.1622 -0.2939  0.1405
45835SOL    HW144620   7.353  12.755   3.457  1.4235  0.8782  0.1552
45835SOL    HW244621   7.393  12.669   3.575 -0.0577  0.1959  0.1866
45836SOL     OW44622   6.411  10.884   6.982 -0.1228 -0.0439  0.0821
45836SOL    HW144623   6.361  10.805   7.007 -0.7135 -0.6023 -2.5358
45836SOL    HW244624   6.484  10.887   7.044  0.7921 -3.5708 -0.5940
45837SOL     OW44625  12.094   2.023   3.348  0.0952  0.0395 -0.2601
45837SOL    HW144626  12.058   1.935   3.336  1.6138 -0.3180 -2.9774
45837SOL    HW244627  12.169   2.011   3.407 -2.0581  0.2886  2.7654
45838SOL     OW44628   3.792   4.501   1.525 -0.1454 -0.3999  0.0681
45838SOL    HW144629   3.872   4.482   1.574 -0.4038  1.5163  1.3380
45838SOL    HW244630   3.823   4.547   1.447  0.1173 -1.6862 -0.6170
45839SOL     OW44631   0.348   5.138   1.569  0.5270  0.3865  0.5113
45839SOL    HW144632   0.308   5.224   1.580  0.1486  0.7083 -2.4951
45839SOL    HW244633   0.441   5.157   1.559  0.4817  0.4551  0.1739
45840SOL     OW44634   4.378   4.209  10.597  0.2550 -0.3316  0.1583
45840SOL    HW144635   4.430   4.145  10.646 -0.6558  0.0140  1.6224
45840SOL    HW244636   4.408   4.199  10.507  1.5728 -1.3969  0.6729
45841SOL     OW44637   7.252  12.864   7.201  0.1907  0.0977  0.1174
45841SOL    HW144638   7.283  12.923   7.270  1.6774  0.7493 -1.0483
45841SOL    HW244639   7.177  12.910   7.163  0.3729  0.5005  0.2345
45842SOL     OW44640   2.817   3.112   8.555 -0.0598 -0.6353  0.2310
45842SOL    HW144641   2.856   3.052   8.492 -1.3219 -1.1027 -0.1260
45842SOL    HW244642   2.884   3.122   8.623  1.9899  1.1725 -1.9247
45843SOL     OW44643   2.575   8.377   6.727  0.0026 -0.2435  0.6947
45843SOL    HW144644   2.631   8.405   6.655  1.0531  0.6036  1.7935
45843SOL    HW244645   2.628   8.313   6.775  0.2422  0.8715  1.9867
45844SOL     OW44646   3.498   6.811  12.053 -0.2882 -0.4221 -0.2689
45844SOL    HW144647   3.443   6.801  12.131 -0.9570 -1.6570 -0.8797
45844SOL    HW244648   3.445   6.866  11.994 -0.9242 -1.6532 -0.8770
45845SOL     OW44649   0.675   6.060   6.504  0.6049 -1.1117  0.3807
45845SOL    HW144650   0.676   6.040   6.410  0.0549 -0.1150  0.1503
45845SOL    HW244651   0.749   6.120   6.516  0.6805 -1.2459  0.5925
45846SOL     OW44652  10.145   7.482  12.829  0.5484 -0.2159  0.2147
45846SOL    HW144653  10.139   7.490  12.924 -0.5689  0.7093  0.0884
45846SOL    HW244654  10.231   7.519  12.808  0.1648  1.0625  0.7470
45847SOL     OW44655   2.948   8.328   8.949 -0.6013 -0.1071  0.2804
45847SOL    HW144656   2.918   8.310   8.860  0.7448 -0.6954 -0.0731
45847SOL    HW244657   2.885   8.393   8.983 -0.5003  0.9588 -1.4642
45848SOL     OW44658   3.332   3.244   3.397 -0.3445  0.0197  0.3961
45848SOL    HW144659   3.422   3.213   3.399 -0.8543 -1.7339 -0.8946
45848SOL    HW244660   3.336   3.331   3.436  2.3546  1.0755 -1.8752
45849SOL     OW44661   7.521   4.403   8.131  0.2488 -0.2190  0.4121
45849SOL    HW144662   7.476   4.367   8.208 -1.2630  1.8609  0.5990
45849SOL    HW244663   7.607   4.361   8.132  1.0314  1.0187  4.3076
45850SOL     OW44664   3.513  10.039   1.123 -0.1315 -0.4414  0.8366
45850SOL    HW144665   3.496   9.974   1.055  1.7159 -1.4011  1.2213
45850SOL    HW244666   3.428  10.052   1.165 -0.8517 -1.4744 -0.2311
45851SOL     OW44667   1.898   5.282   4.680 -0.0904 -0.1540  0.0538
45851SOL    HW144668   1.850   5.215   4.633 -0.3481 -1.0709  1.5482
45851SOL    HW244669   1.830   5.333   4.726  0.1570  0.6579 -0.4529
45852SOL     OW44670   0.698   9.976   2.665  0.3949 -0.2121  0.0027
45852SOL    HW144671   0.668   9.989   2.575 -1.2046 -0.4809  0.4675
45852SOL    HW244672   0.618   9.972   2.717  1.3023  0.5484  1.5399
45853SOL     OW44673   1.088  10.399   0.666  0.1774 -0.4092 -0.2701
45853SOL    HW144674   1.009  10.433   0.623  0.5659 -1.3596 -1.8293
45853SOL    HW244675   1.081  10.304   0.657  0.9568 -0.5570  0.5765
45854SOL     OW44676  10.183   0.826   9.630 -0.0482  0.1200 -1.0934
45854SOL    HW144677  10.128   0.777   9.570  0.6942  0.0147 -1.6968
45854SOL    HW244678  10.141   0.912   9.637 -0.4795 -0.0762 -1.2608
45855SOL     OW44679   1.530   2.748   8.018  0.3408  0.0438  0.1505
45855SOL    HW144680   1.496   2.738   7.929  0.7259  2.1313 -0.2699
45855SOL    HW244681   1.453   2.769   8.071  0.1751 -0.7893  0.2569
45856SOL     OW44682  11.222   7.576  12.274 -0.0556 -0.1473 -0.2378
45856SOL    HW144683  11.192   7.489  12.304 -2.0167 -0.3727 -2.5245
45856SOL    HW244684  11.141   7.624  12.258  0.9863  1.5011 -0.7648
45857SOL     OW44685   1.088   3.351   6.616 -0.5755  0.0560  0.1211
45857SOL    HW144686   1.079   3.290   6.542 -1.2286  0.9821 -0.5895
45857SOL    HW244687   1.048   3.306   6.690 -0.6155 -0.5738 -0.2795
45858SOL     OW44688   4.758   5.896   5.018  0.2510  0.3013  0.3346
45858SOL    HW144689   4.804   5.962   4.966  0.0983 -0.6946 -1.1241
45858SOL    HW244690   4.796   5.812   4.990  0.7340 -0.2445  2.4384
45859SOL     OW44691   0.099  10.667   0.605  0.3523 -0.3771 -1.2545
45859SOL    HW144692   0.131  10.601   0.544 -0.3875 -1.6276 -0.3537
45859SOL    HW244693   0.121  10.632   0.692 -0.8889  0.0939 -0.7228
45860SOL     OW44694  10.269   6.710   4.079  0.2421 -0.0908 -0.3261
45860SOL    HW144695  10.312   6.628   4.055  1.2424  0.6605 -1.1990
45860SOL    HW244696  10.213   6.687   4.153  0.4405 -1.5719 -0.6105
45861SOL     OW44697   2.946   3.839   6.094  0.0296 -0.0616  0.4294
45861SOL    HW144698   2.996   3.763   6.123 -0.0266 -0.7730 -1.2463
45861SOL    HW244699   3.013   3.904   6.072  0.0810  0.3394  1.6754
45862SOL     OW44700   3.285   9.726  12.065  0.2450 -0.7520  0.2968
45862SOL    HW144701   3.269   9.641  12.106 -2.5866 -1.3844 -1.8228
45862SOL    HW244702   3.361   9.711  12.009  0.9630 -1.2887  1.3694
45863SOL     OW44703  10.163   3.651   9.857 -0.0552  0.0708 -0.4322
45863SOL    HW144704  10.232   3.709   9.890  1.1701 -1.2850 -0.5309
45863SOL    HW244705  10.178   3.649   9.762 -0.3980 -0.0483 -0.4849
45864SOL     OW44706   1.347  11.313   0.704 -0.8192  0.3250  0.2820
45864SOL    HW144707   1.320  11.309   0.796 -1.4527  0.7086  0.1247
45864SOL    HW244708   1.372  11.405   0.690 -1.9445  0.5732 -0.2424
45865SOL     OW44709  10.594   4.066   6.271 -0.0031  0.3876 -0.1070
45865SOL    HW144710  10.663   4.132   6.263  0.3245  0.2427  1.2221
45865SOL    HW244711  10.522   4.111   6.315 -0.1909  0.1507 -0.1697
45866SOL     OW44712  12.593   9.318   4.494 -0.1858 -0.3960  0.1016
45866SOL    HW144713  12.630   9.369   4.566 -0.6755  2.2587 -1.3808
45866SOL    HW244714  12.508   9.288   4.527  0.6479 -1.3461  1.4450
45867SOL     OW44715  11.715   3.932   8.303 -0.5669  0.2135 -0.0521
45867SOL    HW144716  11.681   3.870   8.368 -0.5064 -1.1950 -1.3166
45867SOL    HW244717  11.713   4.017   8.348 -3.4539 -0.1662  0.7811
45868SOL     OW44718   6.010   5.234   8.039  0.0516 -0.2619  0.3264
45868SOL    HW144719   5.983   5.303   8.099  2.7890 -1.0100  2.6543
45868SOL    HW244720   5.940   5.169   8.043 -0.6427  0.5306  1.3407
45869SOL     OW44721   9.827   2.051   9.681 -0.0074  0.0146  0.6452
45869SOL    HW144722   9.849   2.109   9.608 -0.0092 -1.7219 -0.8242
45869SOL    HW244723   9.745   2.084   9.715 -0.0710  0.8019 -0.2336
45870SOL     OW44724   0.700   6.865   2.344 -0.2765 -0.4686  0.0230
45870SOL    HW144725   0.788   6.852   2.379 -1.5067 -1.2800  3.2084
45870SOL    HW244726   0.690   6.795   2.279  0.8784 -1.4155  0.8068
45871SOL     OW44727  10.899  11.922   2.198 -0.8252  0.1050  0.4152
45871SOL    HW144728  10.812  11.947   2.229 -0.6874 -0.0830  0.9515
45871SOL    HW244729  10.890  11.831   2.170 -1.2424  0.6027 -1.2204
45872SOL     OW44730  10.683   8.363   4.669 -0.1074  0.5354 -0.4456
45872SOL    HW144731  10.684   8.267   4.677 -2.1920  0.5847  1.3834
45872SOL    HW244732  10.748   8.393   4.732  0.0866  0.3295 -0.5462
45873SOL     OW44733   4.635  11.917  10.183 -0.0491 -0.1540  0.5410
45873SOL    HW144734   4.590  11.832  10.188 -1.7458  0.6424 -0.2832
45873SOL    HW244735   4.603  11.965  10.259 -0.7741  0.5024 -0.1715
45874SOL     OW44736   3.936   0.339  11.170  0.5537  0.3672  0.3676
45874SOL    HW144737   3.967   0.391  11.096  0.2066  0.3238  0.1847
45874SOL    HW244738   3.989   0.366  11.244  0.1185  1.2662  0.3587
45875SOL     OW44739  10.954   4.016   4.538  0.5572  0.3599 -0.1455
45875SOL    HW144740  11.034   4.063   4.514  0.3937  0.9060  0.3692
45875SOL    HW244741  10.984   3.931   4.569  0.9874  0.8132  0.6937
45876SOL     OW44742   3.925   5.171   3.625  0.1383 -0.0287 -0.0716
45876SOL    HW144743   3.852   5.129   3.579 -0.6489  1.2194 -0.0145
45876SOL    HW244744   3.926   5.130   3.711  0.6325 -1.2866 -0.6594
45877SOL     OW44745   9.158  10.310   8.468 -0.2144  0.0898  0.0285
45877SOL    HW144746   9.069  10.290   8.439 -0.0957  0.7146 -0.7891
45877SOL    HW244747   9.208  10.231   8.449 -0.6014 -0.2863  0.5492
45878SOL     OW44748   4.217   4.316   1.809 -0.0201 -0.3578 -0.4620
45878SOL    HW144749   4.172   4.258   1.748  0.3641 -1.2781  0.1085
45878SOL    HW244750   4.293   4.266   1.839 -1.2801 -0.8168  2.3574
45879SOL     OW44751  12.792  12.290   9.423  0.2328  0.5022  0.1998
45879SOL    HW144752  12.705  12.278   9.463 -0.8508  0.4771 -1.9954
45879SOL    HW244753  12.819  12.202   9.397  0.6612  0.5818  0.3801
45880SOL     OW44754  10.917   7.932   0.471 -0.3275 -0.5323  0.2179
45880SOL    HW144755  10.996   7.981   0.490  0.5519 -0.7337 -2.4409
45880SOL    HW244756  10.948   7.844   0.448 -1.6477 -1.6347  2.3196
45881SOL     OW44757   5.249  12.910  12.898 -0.5156 -0.0690 -0.5687
45881SOL    HW144758   5.193  12.985  12.914 -0.2579  0.6212 -2.6453
45881SOL    HW244759   5.203  12.837  12.940 -1.0862  1.0986  0.9341
45882SOL     OW44760   0.452   5.805   3.600 -0.1373 -0.0188 -0.9351
45882SOL    HW144761   0.444   5.870   3.530  1.6338  0.0382 -1.1361
45882SOL    HW244762   0.533   5.829   3.646 -0.1238 -1.3373 -0.2243
45883SOL     OW44763  11.181   2.480   5.270 -0.3545 -0.4170 -0.3290
45883SOL    HW144764  11.167   2.480   5.175  2.6006 -1.7373 -0.8816
45883SOL    HW244765  11.268   2.520   5.281 -0.9444  0.3789  1.9226
45884SOL     OW44766   2.843   9.560   1.985  0.0590  0.1573 -0.2908
45884SOL    HW144767   2.785   9.587   1.913 -0.0126  0.3540 -0.1620
45884SOL    HW244768   2.786   9.510   2.043  0.1542 -0.1382 -0.4488
45885SOL     OW44769  10.490   4.167  10.188 -0.0540 -0.5013 -0.3890
45885SOL    HW144770  10.570   4.187  10.236 -0.1788 -0.5605 -0.1558
45885SOL    HW244771  10.454   4.253  10.166  2.1221 -0.3205 -4.0146
45886SOL     OW44772   9.769   2.127   2.560  0.0239 -0.1635  0.4282
45886SOL    HW144773   9.753   2.045   2.606 -0.4326  0.2553  1.0380
45886SOL    HW244774   9.684   2.171   2.560 -0.4138 -0.8350 -2.2331
45887SOL     OW44775   1.068   5.626  11.178  0.2204 -0.2003 -0.1720
45887SOL    HW144776   0.974   5.633  11.196  0.5122 -0.2944  1.6284
45887SOL    HW244777   1.095   5.715  11.156 -0.1365 -0.0064  0.1726
45888SOL     OW44778   6.686   7.503  11.292  0.5222  0.2020 -0.1869
45888SOL    HW144779   6.692   7.559  11.370 -1.1655 -1.2383  1.0754
45888SOL    HW244780   6.765   7.449  11.295  0.2052 -0.2354  0.8977
45889SOL     OW44781   9.718   2.455  11.275 -0.3075  0.0655  0.2549
45889SOL    HW144782   9.638   2.501  11.250 -0.6005 -0.1237  0.8368
45889SOL    HW244783   9.702   2.425  11.364  0.8404  0.9642  0.7875
45890SOL     OW44784   2.681   9.507   8.199 -0.0920  0.4836  0.2283
45890SOL    HW144785   2.682   9.602   8.198  2.5851  0.5162 -0.6247
45890SOL    HW244786   2.770   9.481   8.176 -0.9538 -2.2384 -0.4721
45891SOL     OW44787   1.066   1.742   1.441 -0.4779  0.2765 -0.0120
45891SOL    HW144788   1.146   1.795   1.437 -0.7203  0.8293  1.5526
45891SOL    HW244789   1.078   1.689   1.520 -1.1193 -0.5678 -0.4674
45892SOL     OW44790  10.892  10.938   5.047 -0.5124 -0.3921  0.1681
45892SOL    HW144791  10.952  10.977   5.110  0.3599 -2.4608  0.7032
45892SOL    HW244792  10.939  10.944   4.963  0.5676 -2.0864  0.5976
45893SOL     OW44793   8.822   3.203   5.338 -0.4350  0.4194 -0.5479
45893SOL    HW144794   8.832   3.284   5.287  0.1887  0.0719 -0.9876
45893SOL    HW244795   8.780   3.232   5.419 -0.2389  1.1903 -0.7073
45894SOL     OW44796   8.927   9.907   7.501  0.0972  0.1184  0.0402
45894SOL    HW144797   8.999   9.881   7.444  0.2847  2.1621 -0.7236
45894SOL    HW244798   8.883   9.978   7.455 -1.9031 -0.4745  0.8850
45895SOL     OW44799   7.187   1.082   8.261  0.1392 -0.4041 -0.0090
45895SOL    HW144800   7.098   1.088   8.226  0.4890 -0.0448 -0.8741
45895SOL    HW244801   7.175   1.072   8.355 -0.8120  1.9929  0.2082
45896SOL     OW44802   5.023   8.558   9.796 -0.3675  0.3059 -0.0197
45896SOL    HW144803   5.061   8.631   9.746 -0.1368 -1.1457 -2.0698
45896SOL    HW244804   4.928   8.572   9.791 -0.3579  0.0864 -1.0682
45897SOL     OW44805  10.750   9.016   7.183 -0.1895 -0.0334  0.0729
45897SOL    HW144806  10.826   9.033   7.239 -0.2693  0.4836  0.0259
45897SOL    HW244807  10.696   8.955   7.233 -0.4620  0.7415  0.7496
45898SOL     OW44808   1.494   5.937   7.595 -0.4283  0.2380  0.0398
45898SOL    HW144809   1.547   5.867   7.555 -0.0746 -0.8194  2.1813
45898SOL    HW244810   1.404   5.914   7.572 -0.2316 -0.2522 -0.2742
45899SOL     OW44811   9.574   4.059   7.566 -0.3064  0.5401  0.3000
45899SOL    HW144812   9.612   4.138   7.527  1.2308  0.3481  1.3125
45899SOL    HW244813   9.647   3.997   7.571 -1.2956 -0.6629  0.2749
45900SOL     OW44814   7.022  12.273   8.459  0.5497 -0.1970 -0.0695
45900SOL    HW144815   7.019  12.182   8.427 -0.3254  0.4403 -1.9576
45900SOL    HW244816   7.115  12.297   8.454  0.5999 -0.5304 -1.0263
45901SOL     OW44817   9.185   8.560   5.929 -0.4398  0.2016  0.6542
45901SOL    HW144818   9.199   8.592   6.018 -1.2947  1.0792  0.4905
45901SOL    HW244819   9.273   8.546   5.894  0.0493 -3.7492  2.8390
45902SOL     OW44820   5.785   8.208   3.524  0.0649  0.1391  0.3871
45902SOL    HW144821   5.850   8.138   3.518  1.0425  0.8853  1.6534
45902SOL    HW244822   5.777   8.225   3.618  0.3773  2.1958  0.0800
45903SOL     OW44823   5.966   5.868   9.433  0.1907 -0.2446  0.5477
45903SOL    HW144824   5.978   5.878   9.528  1.2300 -1.4207  0.5745
45903SOL    HW244825   5.922   5.783   9.423 -1.6962  0.7498  0.0456
45904SOL     OW44826  11.833  11.489   7.656  0.0901 -0.1750 -0.8107
45904SOL    HW144827  11.750  11.441   7.649  0.6110 -1.3929  0.6535
45904SOL    HW244828  11.878  11.447   7.729  1.6521  1.0087 -1.0462
45905SOL     OW44829   0.783   2.490   2.701 -0.2136  0.1904  0.7157
45905SOL    HW144830   0.836   2.494   2.781  0.1520 -0.8488  0.5327
45905SOL    HW244831   0.790   2.399   2.672  2.7255  1.2384 -2.5340
45906SOL     OW44832   9.290   1.231   9.661 -0.5882 -0.3361 -0.6118
45906SOL    HW144833   9.280   1.239   9.566 -0.3728 -0.5329 -0.6515
45906SOL    HW244834   9.280   1.137   9.678  0.8467 -0.5142 -0.6186
45907SOL     OW44835  10.074  11.611   8.924  0.2795  0.5900  0.1103
45907SOL    HW144836  10.120  11.612   8.839 -1.0166 -1.4421 -0.6821
45907SOL    HW244837  10.108  11.534   8.968 -1.6290 -0.4238 -0.1038
45908SOL     OW44838  12.935   9.568   6.646  0.2539  0.4251 -0.7902
45908SOL    HW144839  13.013   9.622   6.655 -0.0256  0.8507 -0.8541
45908SOL    HW244840  12.867   9.618   6.693  0.1682 -0.2473 -0.1845
45909SOL     OW44841   5.565   3.870   4.950 -0.3701 -0.5338  0.4848
45909SOL    HW144842   5.601   3.959   4.949 -0.0400 -0.6400  1.4691
45909SOL    HW244843   5.626   3.821   5.006 -0.5040 -1.3977 -0.1159
45910SOL     OW44844   2.822   1.945   4.791  0.1594  0.7602 -0.0259
45910SOL    HW144845   2.809   2.006   4.865  0.2374 -0.2823  0.8745
45910SOL    HW244846   2.916   1.934   4.786  0.2838  2.0628 -1.3535
45911SOL     OW44847   3.729   1.437   2.970  0.1569 -0.3567 -0.0786
45911SOL    HW144848   3.690   1.524   2.970 -2.5309 -1.4537  0.2006
45911SOL    HW244849   3.765   1.426   3.058 -0.2494  0.1776  0.1571
45912SOL     OW44850  12.608   2.365   2.523  0.3424 -0.3451  0.0226
45912SOL    HW144851  12.639   2.278   2.498  2.4883 -0.2480  1.9658
45912SOL    HW244852  12.528   2.349   2.572 -0.0748 -1.0662 -0.8568
45913SOL     OW44853   2.668   1.756   5.904 -0.6310 -0.0064  0.2907
45913SOL    HW144854   2.642   1.848   5.912 -0.4246  0.1552 -0.8243
45913SOL    HW244855   2.759   1.759   5.875  0.2500 -0.5775  2.6912
45914SOL     OW44856   2.534   8.605   2.152 -0.1277 -0.0266  0.1209
45914SOL    HW144857   2.555   8.512   2.162 -0.5526 -0.0463  0.8860
45914SOL    HW244858   2.439   8.609   2.159 -0.1420  0.4314 -0.2754
45915SOL     OW44859   3.656  12.144   1.757  0.4811 -0.1024 -0.2960
45915SOL    HW144860   3.594  12.074   1.773  0.8775  0.3224  4.2287
45915SOL    HW244861   3.735  12.100   1.724  0.0731 -1.5515  0.6112
45916SOL     OW44862   3.652   2.425   6.742  0.3370 -0.2637 -0.2341
45916SOL    HW144863   3.596   2.498   6.770  2.3326  0.4702  2.1813
45916SOL    HW244864   3.636   2.418   6.648 -3.8811 -0.2586  0.2667
45917SOL     OW44865   3.401   3.837  12.544 -0.1949  0.1357  0.0966
45917SOL    HW144866   3.311   3.820  12.516 -0.3700  0.9534  0.1116
45917SOL    HW244867   3.391   3.886  12.626  0.2038  1.7014 -0.7387
45918SOL     OW44868  10.424   8.482   3.594 -0.6093  0.6556 -0.1764
45918SOL    HW144869  10.450   8.445   3.678 -0.2891 -0.9589 -0.9462
45918SOL    HW244870  10.345   8.433   3.569 -0.5688  0.9427 -0.9086
45919SOL     OW44871  12.094  11.709   0.938 -0.0411  0.1335 -0.7084
45919SOL    HW144872  12.052  11.719   0.853 -2.0435  1.1066  0.3433
45919SOL    HW244873  12.044  11.641   0.982 -0.0959  0.8152  0.3184
45920SOL     OW44874  11.026   1.603  11.787  0.6823  0.3851  0.4746
45920SOL    HW144875  10.991   1.623  11.874  1.5306  0.1450  0.8810
45920SOL    HW244876  10.953   1.564  11.740  0.6642 -1.0478  1.6284
45921SOL     OW44877   9.566   9.315   0.147 -0.0497  0.2214 -0.2381
45921SOL    HW144878   9.642   9.263   0.173  0.6378  1.4317  0.2305
45921SOL    HW244879   9.587   9.345   0.059  1.4245  2.9662  0.9107
45922SOL     OW44880  10.160   4.403   4.730  0.3427 -0.0898  0.8922
45922SOL    HW144881  10.242   4.438   4.766 -0.3023  2.9395 -0.2426
45922SOL    HW244882  10.188   4.338   4.666  2.1381  2.5988 -1.2958
45923SOL     OW44883   4.862   5.872   8.898  0.1626 -0.5163 -0.0266
45923SOL    HW144884   4.837   5.917   8.979  1.1040 -0.2652  0.1308
45923SOL    HW244885   4.941   5.824   8.921  0.1847 -0.8057 -0.6885
45924SOL     OW44886   1.621   9.429  10.518  0.3768  0.3840 -0.0592
45924SOL    HW144887   1.632   9.374  10.595 -1.6693  1.5054  1.1201
45924SOL    HW244888   1.658   9.513  10.543  1.2983  0.2677 -0.9717
45925SOL     OW44889   4.508   7.881   9.058  0.3206 -0.1537  0.8993
45925SOL    HW144890   4.463   7.824   8.996  0.2724  1.7947 -0.9775
45925SOL    HW244891   4.552   7.820   9.118  0.1371 -2.1623 -0.8548
45926SOL     OW44892   7.288   6.485  12.303  0.2156 -0.8150 -0.2470
45926SOL    HW144893   7.240   6.500  12.221  3.2237  1.3887 -1.7923
45926SOL    HW244894   7.268   6.561  12.357  2.8904  0.9422 -1.5204
45927SOL     OW44895   6.174   8.088   5.097 -0.2647  0.1018  0.3799
45927SOL    HW144896   6.198   8.142   5.022 -0.6385  1.2064  1.0212
45927SOL    HW244897   6.087   8.120   5.123 -1.3025 -1.9859 -0.2696
45928SOL     OW44898   5.048  10.799   3.607  0.6220  0.4912  0.1310
45928SOL    HW144899   5.082  10.887   3.594  1.0272  0.3287  0.0642
45928SOL    HW244900   4.970  10.795   3.552 -0.2285  1.2787  1.2381
45929SOL     OW44901   5.205   5.425   1.698 -0.5493 -0.5704  0.1185
45929SOL    HW144902   5.120   5.442   1.739 -0.6769  0.5089 -0.5677
45929SOL    HW244903   5.184   5.372   1.621 -0.8559  1.2765 -1.1306
45930SOL     OW44904   3.909   3.563  11.926  0.1939 -0.1758 -0.1403
45930SOL    HW144905   3.830   3.538  11.974  0.7995 -3.1836 -0.4848
45930SOL    HW244906   3.938   3.644  11.967 -1.5985 -0.4127  1.7462
45931SOL     OW44907  10.547  10.800  11.931 -0.0855  0.7302 -0.7048
45931SOL    HW144908  10.533  10.889  11.962  0.1183  0.6923 -0.4958
45931SOL    HW244909  10.493  10.793  11.852  0.3673  1.2317 -1.0704
45932SOL     OW44910   2.730   8.142   6.451  0.2149  0.0066  0.5139
45932SOL    HW144911   2.740   8.150   6.545 -0.7047  1.4049  0.5113
45932SOL    HW244912   2.672   8.067   6.439  0.7244 -0.4826  1.0159
45933SOL     OW44913   8.971  11.422   9.174  0.2336  0.7964  0.1401
45933SOL    HW144914   8.917  11.385   9.243  0.7777 -0.4114 -0.0507
45933SOL    HW244915   8.909  11.450   9.107 -0.1813 -0.8972 -0.2310
45934SOL     OW44916   4.487   7.856   7.654  0.4074 -0.4100  0.0046
45934SOL    HW144917   4.517   7.772   7.619 -0.9206 -0.7812 -0.3239
45934SOL    HW244918   4.431   7.832   7.728  0.4728  0.2144  0.2564
45935SOL     OW44919   6.953  11.714   5.125 -0.6665  0.1449 -1.2983
45935SOL    HW144920   6.859  11.707   5.105 -0.7233 -0.9272 -0.6728
45935SOL    HW244921   6.986  11.625   5.117  0.1285  0.3752 -0.6110
45936SOL     OW44922   2.329   0.381   4.320  0.0702  0.1989  0.5136
45936SOL    HW144923   2.383   0.456   4.347 -0.3238  1.3775 -1.7661
45936SOL    HW244924   2.393   0.311   4.304  0.7686  0.9911 -0.2887
45937SOL     OW44925  10.124   7.807   5.347 -1.0089 -0.9184 -0.0596
45937SOL    HW144926  10.180   7.797   5.270 -2.7111 -0.3284 -1.4371
45937SOL    HW244927  10.141   7.896   5.377 -1.3002 -0.6859 -0.5666
45938SOL     OW44928   4.622  11.999  11.841  0.4661  0.2149 -0.4168
45938SOL    HW144929   4.659  12.085  11.822  1.7248 -0.3815 -0.7977
45938SOL    HW244930   4.678  11.938  11.792 -0.7741 -0.7721 -0.6590
45939SOL     OW44931  12.356   7.146   3.230  0.3287  0.4339  0.8930
45939SOL    HW144932  12.353   7.075   3.294 -0.1728 -0.2377  0.1331
45939SOL    HW244933  12.278   7.198   3.249  0.8440  0.9643  1.6322
45940SOL     OW44934   4.949   4.454  12.140 -0.8049 -0.4877 -0.0556
45940SOL    HW144935   4.874   4.442  12.198 -1.5057 -1.2012 -1.0742
45940SOL    HW244936   4.930   4.400  12.064  0.8344 -0.8373 -0.2686
45941SOL     OW44937  12.060  12.594   9.085 -0.0594 -0.0386 -0.0913
45941SOL    HW144938  11.975  12.557   9.110  0.7674 -0.8447  1.7271
45941SOL    HW244939  12.071  12.668   9.146  0.9774 -0.5823  0.4022
45942SOL     OW44940   3.173   8.591   1.416 -0.5826  0.5264 -0.1710
45942SOL    HW144941   3.264   8.601   1.444 -0.2427 -0.1914 -0.9650
45942SOL    HW244942   3.126   8.663   1.457  0.1362  0.2577  1.1543
45943SOL     OW44943   2.190  10.043   5.698 -0.4379  0.0368  0.1076
45943SOL    HW144944   2.196   9.987   5.776 -1.4057 -0.4485 -0.1444
45943SOL    HW244945   2.167  10.129   5.732 -1.9433 -0.4194  0.3020
45944SOL     OW44946   3.379  12.407   5.840  0.1042  0.0978 -0.6497
45944SOL    HW144947   3.287  12.384   5.858  0.3634  0.3168  1.1015
45944SOL    HW244948   3.382  12.419   5.745 -1.7489  0.3846 -0.7141
45945SOL     OW44949  12.877   1.348   5.506  0.4983 -0.4726  0.4045
45945SOL    HW144950  12.959   1.396   5.519  1.0286 -1.0032 -0.7988
45945SOL    HW244951  12.884   1.272   5.563  0.9323 -0.6138  0.1677
45946SOL     OW44952   6.881   7.524   6.701 -0.2905  0.1452 -0.0255
45946SOL    HW144953   6.955   7.537   6.760  0.7682  0.1282 -1.2811
45946SOL    HW244954   6.913   7.462   6.636 -1.7241 -0.5403 -0.1090
45947SOL     OW44955  11.884  10.599   6.664  0.0078  0.2027 -0.1176
45947SOL    HW144956  11.947  10.576   6.595 -0.0785  1.9003 -0.8111
45947SOL    HW244957  11.825  10.524   6.669  0.8049 -0.5018 -0.9632
45948SOL     OW44958  11.792   2.687   0.212  0.3060 -0.5239  0.5363
45948SOL    HW144959  11.815   2.741   0.136  0.2163 -0.9301  0.2177
45948SOL    HW244960  11.876   2.667   0.253  0.5493 -1.9101 -0.5617
45949SOL     OW44961   9.592   9.290   0.761  0.2187  0.3923 -0.2689
45949SOL    HW144962   9.637   9.278   0.677  0.6161 -2.1483  0.2386
45949SOL    HW244963   9.499   9.277   0.740  0.4573 -1.9719 -0.1074
45950SOL     OW44964   6.901  10.553  11.683 -0.2031 -0.9125  0.0234
45950SOL    HW144965   6.959  10.629  11.679 -0.2383 -0.8117  1.2463
45950SOL    HW244966   6.912  10.519  11.771 -3.2656  0.1296  0.9498
45951SOL     OW44967   2.807   3.856   7.891 -0.7167  0.1842 -0.5441
45951SOL    HW144968   2.876   3.914   7.923  1.1030 -2.2436  0.2653
45951SOL    HW244969   2.753   3.911   7.834  1.4128  2.3893 -0.5719
45952SOL     OW44970  12.294   8.023   1.420 -0.3019 -0.4143 -0.2587
45952SOL    HW144971  12.313   7.935   1.453 -1.5682 -0.3832  0.6261
45952SOL    HW244972  12.203   8.019   1.391 -0.6055  0.7766  0.4568
45953SOL     OW44973   3.276   7.282  10.242  0.0690  0.6078 -0.4248
45953SOL    HW144974   3.269   7.327  10.159 -1.6826 -0.5898 -0.9881
45953SOL    HW244975   3.209   7.323  10.298 -0.0621  0.1614 -0.2453
45954SOL     OW44976   6.923   3.317   1.933  0.1776  0.3997  0.3118
45954SOL    HW144977   6.920   3.346   2.024 -1.1514  0.9221  0.1235
45954SOL    HW244978   6.834   3.285   1.915 -0.1362  2.0292 -1.3498
45955SOL     OW44979   8.319   4.877   9.842 -0.0661 -0.2517 -0.5438
45955SOL    HW144980   8.355   4.925   9.768 -0.2283 -0.2097 -0.5955
45955SOL    HW244981   8.236   4.920   9.861 -0.1686 -0.4501 -0.5311
45956SOL     OW44982  12.901   2.216   7.480 -0.1110 -0.4075  0.1510
45956SOL    HW144983  12.975   2.266   7.514 -0.2736  0.0158 -0.1118
45956SOL    HW244984  12.824   2.269   7.501 -0.4064 -1.1615  1.0180
45957SOL     OW44985   4.874   4.416   5.715  0.4630 -0.1438 -0.1667
45957SOL    HW144986   4.847   4.349   5.652  1.5684  0.6024 -1.4909
45957SOL    HW244987   4.793   4.440   5.760 -0.4626 -0.4004 -1.6201
45958SOL     OW44988   2.846   0.898   1.029  0.1574 -0.5111 -0.0672
45958SOL    HW144989   2.827   0.807   1.051  0.5341 -0.9491 -1.4282
45958SOL    HW244990   2.798   0.913   0.947  1.5110 -0.0568 -0.8129
45959SOL     OW44991   6.626   7.757   1.340  0.0527  0.3493 -0.3150
45959SOL    HW144992   6.626   7.717   1.427  1.3308 -0.5696 -0.7088
45959SOL    HW244993   6.711   7.734   1.303 -0.4774  0.7119 -1.8255
45960SOL     OW44994  12.314  10.186   8.028  0.0151  0.8748 -0.2674
45960SOL    HW144995  12.348  10.268   8.064 -0.4211  0.3923  1.3267
45960SOL    HW244996  12.265  10.146   8.100 -0.4076 -0.4392 -1.2334
45961SOL     OW44997  10.432  12.462  10.503  0.8191  0.4390 -0.0282
45961SOL    HW144998  10.399  12.503  10.583  1.0236 -0.7106  0.6654
45961SOL    HW244999  10.526  12.456  10.516  0.7953 -0.2127 -0.1345
45962SOL     OW45000   8.712   0.933   4.166 -0.0385 -0.4092 -0.0982
45962SOL    HW145001   8.780   0.980   4.117 -0.6597  0.5679 -0.0403
45962SOL    HW245002   8.662   1.002   4.209 -1.1625 -1.1098 -0.2571
45963SOL     OW45003   5.146   2.626   4.389  0.4215  0.4199  0.3451
45963SOL    HW145004   5.209   2.696   4.406  0.1974  0.5107  0.8374
45963SOL    HW245005   5.182   2.550   4.435 -0.4182  0.7837  1.6544
45964SOL     OW45006   9.690   5.164   8.796  0.4886 -0.0321 -0.5064
45964SOL    HW145007   9.697   5.246   8.747  0.5698  0.5932  0.5311
45964SOL    HW245008   9.767   5.113   8.769 -0.4357 -0.5223 -2.4609
45965SOL     OW45009  10.653   9.825   8.772 -0.0630  0.1509  0.5277
45965SOL    HW145010  10.651   9.847   8.866 -0.4179  0.5263  0.4367
45965SOL    HW245011  10.702   9.743   8.768 -0.3685 -0.0670  1.0831
45966SOL     OW45012  12.345   4.353  12.313 -0.0116  0.1190 -0.5004
45966SOL    HW145013  12.293   4.325  12.238  0.2922  0.9875 -1.0608
45966SOL    HW245014  12.393   4.430  12.281  1.8616 -0.8255 -0.1120
45967SOL     OW45015  10.712   1.276   7.650  0.2784 -0.3367 -0.3153
45967SOL    HW145016  10.801   1.307   7.635 -0.7172  1.8498 -2.3246
45967SOL    HW245017  10.723   1.189   7.689  3.2584 -0.0366 -0.2942
45968SOL     OW45018   5.287   8.417   1.334  0.4052 -0.0660  0.0600
45968SOL    HW145019   5.333   8.339   1.304 -1.4749 -0.7381 -1.2151
45968SOL    HW245020   5.202   8.414   1.291 -0.5751  1.5371  1.6999
45969SOL     OW45021   6.134   9.508  10.910 -0.0694  0.8052 -0.2093
45969SOL    HW145022   6.121   9.557  10.829 -1.5301 -0.7623 -0.9774
45969SOL    HW245023   6.045   9.496  10.945  0.2280 -1.2856 -0.0690
45970SOL     OW45024   3.078  11.267   0.265  0.0466 -0.9772  0.0317
45970SOL    HW145025   3.033  11.185   0.243 -0.0411 -0.8679 -0.2029
45970SOL    HW245026   3.084  11.314   0.182 -0.2833 -0.5543  0.2431
45971SOL     OW45027  12.762  10.644   7.640 -0.0209  0.7968 -0.4759
45971SOL    HW145028  12.708  10.696   7.700  2.3079  0.6123  1.9886
45971SOL    HW245029  12.704  10.574   7.610 -1.3872  1.0709  1.3471
45972SOL     OW45030  12.624   6.774   3.798 -0.4196 -0.5533 -0.1055
45972SOL    HW145031  12.636   6.681   3.818 -0.9741 -0.4498  0.7858
45972SOL    HW245032  12.532   6.791   3.817 -0.8396 -0.2559 -2.1590
45973SOL     OW45033   3.360   4.643   2.084  0.8753 -0.5602 -0.0278
45973SOL    HW145034   3.438   4.617   2.131  0.7270  0.9614  1.1490
45973SOL    HW245035   3.392   4.697   2.011  0.9479 -0.4569  0.0816
45974SOL     OW45036   1.781   1.842   2.316 -0.3249 -0.2429 -0.0148
45974SOL    HW145037   1.713   1.899   2.280 -0.3202  0.8432  1.5746
45974SOL    HW245038   1.760   1.755   2.282 -0.8304  0.5290 -1.8416
45975SOL     OW45039   3.594   0.651   3.906  0.9027  0.0201 -0.1393
45975SOL    HW145040   3.684   0.676   3.881  1.5475 -1.5431  0.4877
45975SOL    HW245041   3.603   0.616   3.994 -0.4076  0.1735  0.0628
45976SOL     OW45042   4.632  12.074   4.018 -0.0017 -0.1470  0.4669
45976SOL    HW145043   4.633  12.093   4.111  0.4789 -2.2401  0.9202
45976SOL    HW245044   4.718  12.037   4.000 -0.0337  0.3601 -0.8612
45977SOL     OW45045   4.609  10.457   3.723  0.0218 -0.3463 -0.3915
45977SOL    HW145046   4.692  10.461   3.770 -1.3732  0.5379  2.1863
45977SOL    HW245047   4.569  10.375   3.751  0.3142 -1.1347 -2.1997
45978SOL     OW45048  10.809   3.470   1.925  0.3296  0.0990 -0.1693
45978SOL    HW145049  10.740   3.531   1.899  0.6170  1.6895  2.4144
45978SOL    HW245050  10.889   3.523   1.927  0.8424 -0.6648  0.8556
45979SOL     OW45051   3.438   2.982   4.652 -0.2365 -0.1799  0.2680
45979SOL    HW145052   3.360   3.017   4.695  0.0562 -0.1247  0.7479
45979SOL    HW245053   3.498   2.960   4.723 -0.0743 -0.8527 -0.0693
45980SOL     OW45054   8.995   6.307   0.927  0.5777  0.0540 -0.5484
45980SOL    HW145055   8.990   6.400   0.909 -1.1331 -0.3864 -2.7478
45980SOL    HW245056   9.079   6.280   0.889  0.0207  0.3251 -2.0299
45981SOL     OW45057   2.385   3.741   2.153 -0.2224  0.5142 -0.4067
45981SOL    HW145058   2.477   3.740   2.127 -0.3154  0.7708 -0.7452
45981SOL    HW245059   2.374   3.659   2.202  0.0911  0.2960 -0.6921
45982SOL     OW45060   0.219  11.962  12.181 -0.3002  0.1429 -0.4397
45982SOL    HW145061   0.183  11.874  12.171  0.4695 -0.2621  0.2421
45982SOL    HW245062   0.233  11.971  12.276 -0.8291  1.1807 -0.4467
45983SOL     OW45063   0.803   9.068  12.946 -0.3803  0.3753 -0.5003
45983SOL    HW145064   0.715   9.092  12.919 -0.0193  1.1573 -0.9910
45983SOL    HW245065   0.800   9.070  13.042 -0.9117  0.3077 -0.5125
45984SOL     OW45066  11.683   1.431  11.304 -0.3156  0.1297 -0.0641
45984SOL    HW145067  11.649   1.422  11.393 -0.4755  0.8840 -0.0461
45984SOL    HW245068  11.677   1.524  11.285  1.2282  0.2069 -0.2676
45985SOL     OW45069   6.347   7.071  12.108  0.4577 -0.4145  0.7011
45985SOL    HW145070   6.271   7.052  12.162  0.8621  0.3308  1.5509
45985SOL    HW245071   6.338   7.013  12.032 -1.5078  0.4323  0.2390
45986SOL     OW45072   2.070  10.700   5.331 -0.2630 -0.1118  0.3654
45986SOL    HW145073   2.009  10.650   5.276  2.1123 -1.7578 -0.9755
45986SOL    HW245074   2.101  10.771   5.274  0.7284 -0.6473  0.2130
45987SOL     OW45075   3.032  11.064   2.066 -0.1988 -0.3232 -0.0910
45987SOL    HW145076   3.045  11.015   2.147  2.6343  0.1979 -0.1225
45987SOL    HW245077   3.042  11.155   2.091 -0.9935 -0.0394 -0.7706
45988SOL     OW45078   6.703   1.650   8.262 -0.0432  0.4602 -0.1158
45988SOL    HW145079   6.755   1.690   8.330  1.1037 -1.6648  0.3594
45988SOL    HW245080   6.618   1.633   8.303  0.6903 -0.9603  0.9297
45989SOL     OW45081  11.453  10.663   7.798 -0.0259 -0.4658  0.4127
45989SOL    HW145082  11.443  10.576   7.760 -0.3205 -0.1448 -0.2670
45989SOL    HW245083  11.543  10.665   7.830  0.6135 -0.3641 -1.3130
45990SOL     OW45084   8.151   7.995   0.952 -0.0412 -0.0043 -0.2909
45990SOL    HW145085   8.220   7.985   1.018  0.2725 -0.6289 -0.6968
45990SOL    HW245086   8.088   7.926   0.973 -1.1505  1.2875  0.7772
45991SOL     OW45087  12.066   4.986   6.233  0.3226 -0.5848  0.6727
45991SOL    HW145088  12.041   5.078   6.229  1.5922 -0.2403  0.4034
45991SOL    HW245089  12.123   4.973   6.157 -0.6740 -1.8637  0.1074
45992SOL     OW45090   6.186  10.700  10.313  0.1228  0.0393 -0.2309
45992SOL    HW145091   6.253  10.744  10.260 -1.9155  0.8596 -2.2692
45992SOL    HW245092   6.182  10.751  10.393  3.2095 -1.1574  0.8377
45993SOL     OW45093  11.118   9.452   3.172  0.2621  0.0630 -0.7477
45993SOL    HW145094  11.039   9.422   3.218 -0.2892 -0.4466 -1.9748
45993SOL    HW245095  11.191   9.418   3.224 -0.3402 -0.6401 -0.3425
45994SOL     OW45096   9.224   5.097  12.562  0.4573 -0.5545  0.0226
45994SOL    HW145097   9.198   5.061  12.477  1.0218  0.2796 -0.5045
45994SOL    HW245098   9.141   5.106  12.610  0.3396 -3.3105  0.5021
45995SOL     OW45099   9.572   8.823  10.944 -0.3312 -0.2553  0.3345
45995SOL    HW145100   9.627   8.834  10.866 -0.1677  0.3037  0.5227
45995SOL    HW245101   9.484   8.813  10.910 -0.3690  0.7632  0.0917
45996SOL     OW45102   8.486   9.970   8.623 -0.2676  0.7374  0.5061
45996SOL    HW145103   8.467   9.934   8.710  0.6414 -0.0475  0.3977
45996SOL    HW245104   8.571  10.011   8.632 -0.1452  0.6070 -0.0232
45997SOL     OW45105   3.248   3.481   0.771 -0.1000  0.0800  0.5115
45997SOL    HW145106   3.256   3.431   0.690  0.1813  0.5430  0.2483
45997SOL    HW245107   3.275   3.421   0.840 -0.7980 -0.4688  0.3183
45998SOL     OW45108   9.287  10.010   2.984  0.3453  0.9953  0.6576
45998SOL    HW145109   9.285  10.055   2.899  1.0852  0.2929  0.2587
45998SOL    HW245110   9.370  10.035   3.023  0.5754  0.3139  0.6160
45999SOL     OW45111   6.425   2.639   1.538 -0.0579  0.0173  0.3213
45999SOL    HW145112   6.374   2.704   1.490  0.0877  0.2015  0.4161
45999SOL    HW245113   6.432   2.675   1.627  1.6164  0.7737 -0.0857
46000SOL     OW45114   4.525  12.851   6.459  0.2962  0.2793 -0.1163
46000SOL    HW145115   4.465  12.807   6.400 -0.3846 -0.5165  1.1132
46000SOL    HW245116   4.612  12.827   6.428 -0.0268  0.4197 -1.1641
46001SOL     OW45117   1.503   2.065   9.644  0.1216 -0.3971 -0.4074
46001SOL    HW145118   1.515   2.049   9.550 -0.2109  0.3048 -0.5773
46001SOL    HW245119   1.589   2.093   9.675  0.9370 -3.0620  0.0527
46002SOL     OW45120  11.367   8.601   6.374 -0.3059  0.2249 -0.0162
46002SOL    HW145121  11.303   8.545   6.330 -1.0586  1.4022 -0.4485
46002SOL    HW245122  11.402   8.657   6.305  0.7329  0.0445  0.3364
46003SOL     OW45123   4.969  11.038  12.866 -0.6708  0.4451  0.2050
46003SOL    HW145124   5.016  11.014  12.786 -2.3685  2.0341 -1.3579
46003SOL    HW245125   5.034  11.027  12.936  0.7534 -1.3370 -1.3025
46004SOL     OW45126   1.077  12.065   4.800  0.0594 -0.0428  0.3588
46004SOL    HW145127   1.098  11.986   4.850  1.0623  0.0620  0.1226
46004SOL    HW245128   1.117  12.050   4.714  1.6397  1.3506  0.7852
46005SOL     OW45129   6.371   3.991   9.903  0.0228  0.1378 -0.0361
46005SOL    HW145130   6.430   3.931   9.948 -0.4067 -1.6390 -1.7353
46005SOL    HW245131   6.297   3.937   9.875 -0.4739  1.4758 -1.4786
46006SOL     OW45132   1.468   1.317   2.495 -0.7811 -0.0932  0.2726
46006SOL    HW145133   1.421   1.390   2.454 -1.6338 -0.6072  0.3065
46006SOL    HW245134   1.475   1.342   2.587  1.4701  1.2380 -0.1824
46007SOL     OW45135   9.405  10.113   9.608 -0.0725 -0.1655 -0.0609
46007SOL    HW145136   9.368  10.091   9.523  0.8008  0.7994 -0.7028
46007SOL    HW245137   9.418  10.208   9.606  0.0813 -0.1427  1.0995
46008SOL     OW45138   7.905  10.870   0.792 -0.0982 -0.6278 -0.5059
46008SOL    HW145139   7.838  10.880   0.724 -0.3779  0.6286 -0.0739
46008SOL    HW245140   7.866  10.811   0.856 -2.2515  2.5608  1.4054
46009SOL     OW45141   4.925  10.177   1.963  0.6897 -0.4186 -0.3258
46009SOL    HW145142   4.943  10.250   1.904  0.8568  0.2164  0.4798
46009SOL    HW245143   4.878  10.216   2.036  2.8377 -0.6141  1.2890
46010SOL     OW45144   0.162   3.411   7.982  0.0767 -0.5248  0.1171
46010SOL    HW145145   0.126   3.323   7.994 -1.2920 -0.0079  0.0357
46010SOL    HW245146   0.088   3.470   8.000  1.3889  0.6868  1.8897
46011SOL     OW45147  12.816   6.960   9.994  0.4253  0.1696  0.6594
46011SOL    HW145148  12.850   7.037  10.040 -1.5312  2.2814 -1.2149
46011SOL    HW245149  12.722   6.962  10.010  0.0862 -0.7153 -0.9893
46012SOL     OW45150   6.653   2.113   8.956 -0.8491  0.3066 -0.0619
46012SOL    HW145151   6.692   2.028   8.934  0.6379  0.6047  1.2296
46012SOL    HW245152   6.717   2.177   8.923 -0.6741  0.8371  1.2597
46013SOL     OW45153  10.806   9.531   7.505 -0.8518 -0.4000  0.0875
46013SOL    HW145154  10.855   9.526   7.422 -2.5038  0.5674 -1.0012
46013SOL    HW245155  10.717   9.508   7.481 -1.9520  2.4269  1.0159
46014SOL     OW45156   2.516   9.665   5.082  0.6302 -0.1873  0.3854
46014SOL    HW145157   2.556   9.680   4.997  1.3241 -0.1252  0.7167
46014SOL    HW245158   2.549   9.736   5.137 -0.4455  0.2459  0.5039
46015SOL     OW45159   7.855  12.504  12.774  0.4703 -0.5946  0.1159
46015SOL    HW145160   7.933  12.501  12.830  0.8442 -1.6974 -0.4304
46015SOL    HW245161   7.882  12.461  12.693 -0.6586 -0.8334 -0.1528
46016SOL     OW45162  10.472   5.222   2.268 -0.2895 -0.3711  0.1845
46016SOL    HW145163  10.537   5.279   2.308 -0.4966 -0.2843  0.4026
46016SOL    HW245164  10.518   5.139   2.252  0.0066 -0.1488 -0.1160
46017SOL     OW45165   9.156   8.479   3.885  0.4399 -1.4341  0.9173
46017SOL    HW145166   9.100   8.536   3.937  1.9381 -1.0276  2.1678
46017SOL    HW245167   9.240   8.525   3.880  0.6538 -1.9360 -1.0594
46018SOL     OW45168   1.825   5.254   9.738  0.5240  0.1859 -0.4112
46018SOL    HW145169   1.769   5.181   9.712 -3.2162  2.7680 -0.4322
46018SOL    HW245170   1.900   5.213   9.779 -1.7135 -3.6730  0.3213
46019SOL     OW45171   2.650   6.602   0.882  0.2317  0.8211 -0.2872
46019SOL    HW145172   2.671   6.578   0.791 -0.1600  2.0748 -0.7272
46019SOL    HW245173   2.729   6.580   0.931  0.1218 -0.7324 -0.7610
46020SOL     OW45174   8.906   9.323   6.039 -0.3046 -0.1162  0.4570
46020SOL    HW145175   8.929   9.291   5.952 -0.2681  1.6170 -0.2111
46020SOL    HW245176   8.817   9.357   6.029 -0.6501 -0.7236  1.3416
46021SOL     OW45177   2.681   5.758   8.110  0.6083  0.2922  0.1574
46021SOL    HW145178   2.711   5.818   8.042 -0.3419 -0.1080 -0.6321
46021SOL    HW245179   2.586   5.755   8.100  0.3161  1.0068  2.1582
46022SOL     OW45180   5.838   0.898   1.503  0.1771 -0.3774  0.1475
46022SOL    HW145181   5.876   0.920   1.587  0.4110 -0.2039 -0.0031
46022SOL    HW245182   5.910   0.857   1.454  0.4287  0.7287 -0.4515
46023SOL     OW45183   9.232   7.407  11.607 -0.0234  0.3554 -0.1216
46023SOL    HW145184   9.232   7.466  11.683  3.1351  0.7970 -0.3276
46023SOL    HW245185   9.280   7.455  11.540  0.2678 -1.3915 -1.2186
46024SOL     OW45186   8.904   5.984   0.858  0.4025  0.7104  0.0089
46024SOL    HW145187   8.845   5.966   0.785 -2.6159  0.4583  2.2774
46024SOL    HW245188   8.893   6.077   0.876  0.6506  0.6529  0.4867
46025SOL     OW45189   0.899   0.021   5.978  0.7124 -0.2411  0.1686
46025SOL    HW145190   0.840   0.080   6.025 -0.3144  0.2654 -1.6423
46025SOL    HW245191   0.907  -0.055   6.035  1.1673  1.1381  2.0527
46026SOL     OW45192   2.055  12.136  11.752  0.2228  0.2301 -0.5209
46026SOL    HW145193   2.129  12.194  11.770  1.2573 -1.2758  0.3302
46026SOL    HW245194   2.046  12.137  11.657  0.8334  1.0297 -0.5789
46027SOL     OW45195   4.309   9.173   2.961  0.1432  0.0811  0.0664
46027SOL    HW145196   4.404   9.189   2.960  0.0489  0.6462  0.0930
46027SOL    HW245197   4.281   9.198   3.049  0.3340 -2.3584  0.9197
46028SOL     OW45198  11.295   9.746  12.012  0.2575  0.9115 -0.1054
46028SOL    HW145199  11.387   9.736  12.033  0.4971  2.6539 -0.1755
46028SOL    HW245200  11.252   9.674  12.057  1.4328  1.1952  1.5728
46029SOL     OW45201   6.464   7.112   1.367  0.9609 -0.3942  0.0714
46029SOL    HW145202   6.477   7.096   1.274  2.8434 -0.2195  0.2754
46029SOL    HW245203   6.394   7.051   1.392 -0.7984  0.7526 -1.7586
46030SOL     OW45204   8.590  12.652   5.189  0.1168 -0.1391 -0.4313
46030SOL    HW145205   8.530  12.615   5.254 -1.5248  2.5100 -0.2618
46030SOL    HW245206   8.673  12.661   5.236 -0.4920 -0.1351  0.6838
46031SOL     OW45207   1.331   3.457   8.428  0.0469  0.1312  0.7522
46031SOL    HW145208   1.253   3.417   8.390 -0.0218  0.3745  0.6373
46031SOL    HW245209   1.340   3.415   8.514  0.0009 -0.1622  0.6138
46032SOL     OW45210   4.935   9.660   8.861  0.2480  0.6879 -0.0348
46032SOL    HW145211   4.902   9.689   8.946 -1.4851  0.4484 -0.5940
46032SOL    HW245212   5.009   9.719   8.843  2.1568 -0.7007  2.6348
46033SOL     OW45213   5.885  12.313  11.717 -0.4025 -0.1042  0.0042
46033SOL    HW145214   5.930  12.395  11.697  1.9954 -1.5108 -0.6520
46033SOL    HW245215   5.950  12.260  11.763 -1.4945 -2.1018 -0.6282
46034SOL     OW45216   4.256   2.364  12.257 -0.6536 -0.5490 -0.5499
46034SOL    HW145217   4.164   2.341  12.245 -0.4739 -1.7142  0.1680
46034SOL    HW245218   4.304   2.282  12.245  0.1677 -0.2482  0.4722
46035SOL     OW45219   8.347   6.851   0.532  0.0533  0.1309 -0.0806
46035SOL    HW145220   8.410   6.785   0.563 -1.3023 -0.4682  1.5361
46035SOL    HW245221   8.365   6.858   0.438  0.7259 -2.0253 -0.1734
46036SOL     OW45222  11.161  12.410   1.163 -0.1765  0.1214 -0.0549
46036SOL    HW145223  11.134  12.358   1.087  0.6960 -0.0557 -0.2480
46036SOL    HW245224  11.079  12.444   1.198 -0.6405 -0.2602 -0.7394
46037SOL     OW45225   4.642   8.600  11.502  0.3153 -0.5221 -0.1996
46037SOL    HW145226   4.719   8.652  11.479 -0.4404  0.6977 -0.0879
46037SOL    HW245227   4.676   8.513  11.521  1.6254 -0.0801 -0.4458
46038SOL     OW45228   1.858   2.480   9.294  0.4955  0.4246  0.2263
46038SOL    HW145229   1.874   2.471   9.200  0.0646  3.5414 -0.2330
46038SOL    HW245230   1.766   2.455   9.305  1.1830 -2.4442  0.3496
46039SOL     OW45231   0.368   7.416   8.186 -0.2032 -0.0168  0.0889
46039SOL    HW145232   0.361   7.322   8.207  0.0875 -0.0731 -0.0562
46039SOL    HW245233   0.305   7.429   8.116 -1.2173  0.1848  1.0239
46040SOL     OW45234   8.691   9.817   1.969 -0.3698  0.0003 -0.1835
46040SOL    HW145235   8.686   9.847   2.060  0.3150 -0.7500  0.1166
46040SOL    HW245236   8.780   9.841   1.941  0.2104 -1.6691  0.0715
46041SOL     OW45237   6.480  12.788   7.328  0.1447 -0.3339 -0.0891
46041SOL    HW145238   6.437  12.740   7.256  0.2829 -1.4913  0.5725
46041SOL    HW245239   6.571  12.796   7.300 -0.2412  1.2087 -1.0282
46042SOL     OW45240   5.463   3.697   3.141 -0.6688  0.4885 -0.7499
46042SOL    HW145241   5.471   3.791   3.161  1.0616  0.0230  1.0761
46042SOL    HW245242   5.399   3.664   3.204 -1.6957  0.5055 -1.7552
46043SOL     OW45243   1.707   1.064  12.117 -0.3834  0.1103  0.3420
46043SOL    HW145244   1.731   0.984  12.163  1.5845 -2.3658 -4.3097
46043SOL    HW245245   1.791   1.106  12.096 -1.2536  1.9581  0.3378
46044SOL     OW45246   7.319   9.669   7.768 -0.0940  0.2117 -0.1168
46044SOL    HW145247   7.323   9.762   7.791  0.5557  0.0530  0.4246
46044SOL    HW245248   7.286   9.669   7.678 -0.9126  0.9257  0.1667
46045SOL     OW45249   7.703   1.686  12.715  0.3516  0.1339 -0.5775
46045SOL    HW145250   7.796   1.702  12.732  0.0016 -0.2985  2.1767
46045SOL    HW245251   7.683   1.606  12.763 -1.1184 -0.6966 -2.4628
46046SOL     OW45252   2.894  10.933   5.668  0.1376  0.1493  0.2917
46046SOL    HW145253   2.923  10.871   5.600 -0.5602  1.3646 -1.1742
46046SOL    HW245254   2.969  10.991   5.681  0.0762  0.2690  0.1219
46047SOL     OW45255   3.957  10.105   2.842  0.5078 -0.2686  0.1434
46047SOL    HW145256   3.905  10.044   2.790  1.4526 -0.7549 -0.2448
46047SOL    HW245257   4.036  10.120   2.790 -0.1856  2.2048 -0.3418
46048SOL     OW45258   0.520   5.758  10.812 -0.1880  0.0790  0.4464
46048SOL    HW145259   0.461   5.760  10.737 -2.9231 -0.3489  2.4448
46048SOL    HW245260   0.542   5.665  10.822 -0.9365 -0.0532  0.9467
46049SOL     OW45261   3.369  11.571   8.905 -0.4461  0.2744  0.0895
46049SOL    HW145262   3.457  11.540   8.883 -1.0216 -0.6983 -0.9615
46049SOL    HW245263   3.375  11.666   8.899  0.4388  0.2019 -0.3600
46050SOL     OW45264   4.142   4.033  11.207  0.0681  0.2635  0.1620
46050SOL    HW145265   4.207   4.048  11.275  0.8639 -3.0720  0.3051
46050SOL    HW245266   4.080   3.971  11.246  0.5287 -1.7401 -2.0033
46051SOL     OW45267  12.055   5.982   5.493  0.9225 -0.6349 -0.2997
46051SOL    HW145268  12.114   5.918   5.533  0.8532 -0.0790  0.7294
46051SOL    HW245269  12.058   6.057   5.552 -0.7317 -0.5470 -0.2738
46052SOL     OW45270   5.557   4.894   8.820 -0.0355  0.1765 -0.3308
46052SOL    HW145271   5.634   4.938   8.786  0.7173 -1.6082 -1.0842
46052SOL    HW245272   5.522   4.846   8.745 -1.2411  0.0892  0.2653
46053SOL     OW45273  11.642  10.586   9.636  0.2270 -0.6258 -0.0972
46053SOL    HW145274  11.716  10.549   9.588 -0.2495 -0.5181 -0.9377
46053SOL    HW245275  11.601  10.647   9.574 -0.1978 -0.2222  0.5683
46054SOL     OW45276   6.182   0.726   2.701 -0.1900  0.3971 -0.1414
46054SOL    HW145277   6.101   0.773   2.718  0.7908  1.9021  0.5522
46054SOL    HW245278   6.239   0.791   2.660  1.5518  0.1540  1.7493
46055SOL     OW45279  12.828   6.054  11.370  0.2123  0.4612 -0.7122
46055SOL    HW145280  12.917   6.020  11.357  1.2961  2.6809  0.3370
46055SOL    HW245281  12.798   6.012  11.451 -0.3469 -1.4333 -1.8458
46056SOL     OW45282   6.769  12.059   1.470  0.4791 -0.3149 -0.4277
46056SOL    HW145283   6.819  12.066   1.389  0.6404  0.5440 -0.2717
46056SOL    HW245284   6.727  11.974   1.466 -0.2046  0.0668 -1.8059
46057SOL     OW45285   2.566   9.145   4.494  0.1435 -0.2682  0.7671
46057SOL    HW145286   2.622   9.085   4.543  2.6057  0.9070 -0.4593
46057SOL    HW245287   2.588   9.232   4.529  1.0125  0.4672 -1.4464
46058SOL     OW45288   6.203  11.298   9.247  0.6560 -0.2650  0.3454
46058SOL    HW145289   6.229  11.207   9.260  1.8137  0.2999  2.2912
46058SOL    HW245290   6.224  11.315   9.155 -1.4682 -2.4869 -0.6708
46059SOL     OW45291   3.014  12.709  12.403 -0.5535 -0.3471 -0.0609
46059SOL    HW145292   2.979  12.793  12.373 -0.3304 -0.9616 -2.2497
46059SOL    HW245293   2.962  12.688  12.481 -1.6865  1.0640 -0.3832
46060SOL     OW45294  11.471   8.438  12.928 -0.1866 -0.1454 -0.3018
46060SOL    HW145295  11.563   8.460  12.921 -0.1103 -0.0237  0.9106
46060SOL    HW245296  11.428   8.519  12.954 -0.5332 -0.3779 -0.1319
46061SOL     OW45297   2.290   6.610   9.675 -0.1371  0.0093 -0.2156
46061SOL    HW145298   2.291   6.559   9.757  0.1418 -0.2389 -0.3705
46061SOL    HW245299   2.222   6.568   9.622 -0.4604  0.2998 -0.0293
46062SOL     OW45300   6.957   5.224   3.002  0.5263  0.9280  0.1566
46062SOL    HW145301   7.040   5.186   2.973  0.5568  1.7404 -0.8602
46062SOL    HW245302   6.919   5.158   3.060  2.3698  0.9662  1.4796
46063SOL     OW45303  11.862  11.863   7.546  0.2260 -0.0142  0.0905
46063SOL    HW145304  11.796  11.805   7.506 -0.0971 -0.4210  1.1714
46063SOL    HW245305  11.899  11.911   7.473  0.5143 -1.6096 -0.8490
46064SOL     OW45306   3.112  11.577   0.957  0.4045  0.0213 -0.1848
46064SOL    HW145307   3.177  11.582   1.026  1.0184 -0.5270 -0.7060
46064SOL    HW245308   3.049  11.646   0.977  0.9012  0.2582  0.5747
46065SOL     OW45309   3.381   5.409   3.241  0.6426  0.6868 -0.2494
46065SOL    HW145310   3.442   5.391   3.171  0.4455  0.6986 -0.4254
46065SOL    HW245311   3.430   5.463   3.303  0.9706  0.2554 -0.1303
46066SOL     OW45312   0.540  11.473   4.810 -0.3210 -0.0581  0.3040
46066SOL    HW145313   0.538  11.382   4.839 -0.1895 -0.1260  0.1078
46066SOL    HW245314   0.605  11.515   4.867 -0.8924  0.0795  0.8566
46067SOL     OW45315  12.024  10.412   9.850  0.0030 -0.4813  0.1102
46067SOL    HW145316  12.041  10.400   9.757 -1.6277  0.0340 -0.2823
46067SOL    HW245317  11.981  10.497   9.857 -2.2449 -1.5774  0.9579
46068SOL     OW45318  11.715   1.668  10.685  0.1421 -0.2775 -0.6726
46068SOL    HW145319  11.723   1.579  10.718 -1.1189 -0.2555 -0.2482
46068SOL    HW245320  11.712   1.723  10.763  1.8460  0.2567 -0.9426
46069SOL     OW45321   2.070  12.905  11.777  0.5770  0.6583  0.1964
46069SOL    HW145322   1.982  12.871  11.762  1.0561  0.0192 -1.3993
46069SOL    HW245323   2.075  12.918  11.871 -0.6558 -0.8474  0.5101
46070SOL     OW45324   2.060   1.496   9.497  0.5783 -0.8017 -0.4539
46070SOL    HW145325   2.007   1.552   9.441 -0.3914 -1.3958 -0.1347
46070SOL    HW245326   2.139   1.478   9.446  0.9608  0.9141 -0.5387
46071SOL     OW45327   4.989  12.193  11.403  0.2297  0.5999  0.3778
46071SOL    HW145328   4.937  12.272  11.389  0.7105  0.7368 -0.7149
46071SOL    HW245329   5.055  12.195  11.334  0.1991 -0.8037  0.2734
46072SOL     OW45330   1.673  11.085  11.217  0.5770 -0.4041  0.4721
46072SOL    HW145331   1.694  11.178  11.216  0.2490 -0.2812  2.1407
46072SOL    HW245332   1.716  11.050  11.139 -0.8000  1.4309 -1.2105
46073SOL     OW45333   0.958   3.065  11.830 -0.6513  0.0261 -0.3267
46073SOL    HW145334   0.960   2.980  11.874  1.0399  0.5627  0.7086
46073SOL    HW245335   1.043   3.072  11.786 -0.7606  1.1913 -0.3870
46074SOL     OW45336   0.246  12.481  10.420  0.0138  0.2161 -0.0274
46074SOL    HW145337   0.260  12.533  10.500 -0.9618  0.7666 -0.1999
46074SOL    HW245338   0.240  12.546  10.350  0.0852 -0.2151 -0.4397
46075SOL     OW45339   1.013   8.116   3.401 -0.5916  0.2094  0.0458
46075SOL    HW145340   0.993   8.086   3.490  1.5436 -2.7124 -0.3183
46075SOL    HW245341   1.103   8.147   3.406 -1.0350  1.7238 -0.7843
46076SOL     OW45342   5.522   5.653  11.000  0.0629  0.0372 -0.4779
46076SOL    HW145343   5.454   5.650  11.068 -1.1909  1.8441 -1.5619
46076SOL    HW245344   5.601   5.678  11.047 -0.8106  1.4490  0.3307
46077SOL     OW45345   9.387  10.793  10.273 -0.3838 -0.2376 -0.1700
46077SOL    HW145346   9.351  10.873  10.234 -0.6520 -0.7730 -1.0802
46077SOL    HW245347   9.400  10.814  10.365 -2.2141  0.2796  0.0209
46078SOL     OW45348   0.637   9.770   4.377 -0.4345 -1.2810  0.3780
46078SOL    HW145349   0.718   9.721   4.393 -0.3712 -1.7160 -1.1162
46078SOL    HW245350   0.636   9.837   4.445  2.3943  0.2188 -0.8687
46079SOL     OW45351  12.604  10.645   9.972 -0.1358 -0.3365 -0.1918
46079SOL    HW145352  12.537  10.578   9.955 -1.4673  0.5807  1.1692
46079SOL    HW245353  12.578  10.719   9.917 -1.1646  0.5594  1.4114
46080SOL     OW45354  11.390   5.998   8.512 -0.0200 -0.0654 -0.2966
46080SOL    HW145355  11.423   5.929   8.570  1.1459  1.3051  0.7560
46080SOL    HW245356  11.451   5.999   8.439  1.0133  0.9589  0.5416
46081SOL     OW45357   6.205   1.748  12.573 -0.0987  0.3208  0.5037
46081SOL    HW145358   6.218   1.831  12.528 -1.2584 -0.0436 -0.5645
46081SOL    HW245359   6.249   1.683  12.518  1.1758  0.2635  1.5560
46082SOL     OW45360   2.020   7.262   4.770  0.5964  0.0841 -0.2905
46082SOL    HW145361   1.937   7.307   4.752  0.4948  0.4490  0.9968
46082SOL    HW245362   2.029   7.199   4.698 -0.4515  0.5122 -0.8178
46083SOL     OW45363   5.350   9.182   5.978 -0.1977 -0.0803 -0.3741
46083SOL    HW145364   5.398   9.108   6.016 -1.1242 -0.9397 -0.8288
46083SOL    HW245365   5.267   9.184   6.026 -0.8189 -0.3285 -1.4237
46084SOL     OW45366   1.271   7.370   1.076  0.3569  0.0380  0.2812
46084SOL    HW145367   1.246   7.302   1.138 -0.3175 -1.5582 -1.6243
46084SOL    HW245368   1.225   7.347   0.995  1.9911  1.4146 -1.1386
46085SOL     OW45369  10.631   0.549   9.269  0.4657  0.9611 -0.1536
46085SOL    HW145370  10.549   0.539   9.318  0.9218  1.0217  0.6420
46085SOL    HW245371  10.662   0.637   9.292  1.4972  0.3883  0.7410
46086SOL     OW45372   7.319  12.895  11.957  0.3714 -0.0417  0.3101
46086SOL    HW145373   7.239  12.872  11.911  1.3257 -0.0428 -1.4429
46086SOL    HW245374   7.318  12.990  11.962  1.2846  0.1266 -1.7689
46087SOL     OW45375   6.657  11.762   8.563 -0.1813 -0.1693 -0.0444
46087SOL    HW145376   6.738  11.745   8.514 -0.0837 -0.7806  0.3099
46087SOL    HW245377   6.607  11.681   8.554  0.7368 -1.1446  2.5763
46088SOL     OW45378   6.347   3.588   1.840  0.2573  0.2297  0.4009
46088SOL    HW145379   6.419   3.598   1.777 -0.7565  3.3927 -0.4184
46088SOL    HW245380   6.296   3.668   1.831 -3.6208 -1.9504  0.7262
46089SOL     OW45381  12.106  10.007   0.672  0.0128  0.1058 -0.0849
46089SOL    HW145382  12.197   9.980   0.683  0.5339  1.9943  0.7122
46089SOL    HW245383  12.109  10.081   0.611 -0.9997  0.0919 -0.1824
46090SOL     OW45384   1.272   0.276   5.349  0.5209 -0.0868  0.3174
46090SOL    HW145385   1.322   0.195   5.345  0.2298 -0.2468 -0.2998
46090SOL    HW245386   1.298   0.324   5.270  2.1168  1.2918  1.6125
46091SOL     OW45387   9.713  12.193   8.823  0.3376 -0.1270 -0.5007
46091SOL    HW145388   9.775  12.168   8.754 -0.6797  1.0227 -1.9041
46091SOL    HW245389   9.767  12.205   8.901  1.8772  0.6811 -1.6327
46092SOL     OW45390  11.097   1.122   8.527 -0.0720 -0.6170 -0.1684
46092SOL    HW145391  11.167   1.069   8.566  0.1710 -0.8729 -0.9372
46092SOL    HW245392  11.016   1.080   8.556  0.0822 -0.3002  0.7560
46093SOL     OW45393   3.384   9.323   4.917 -0.4404  0.2005 -0.1131
46093SOL    HW145394   3.387   9.260   4.988  3.4220 -2.1786 -2.0384
46093SOL    HW245395   3.390   9.408   4.960  2.4119 -1.1518  2.5250
46094SOL     OW45396  12.062  12.492  10.604 -0.1530 -0.2571 -0.0702
46094SOL    HW145397  12.027  12.459  10.522  0.5740  0.4727 -0.6916
46094SOL    HW245398  12.127  12.557  10.578  0.6453 -0.5660  1.0703
46095SOL     OW45399  12.936   7.486   0.547 -0.5161  0.5279 -0.0523
46095SOL    HW145400  12.943   7.436   0.628 -1.2672  1.1755  0.4333
46095SOL    HW245401  12.976   7.430   0.481  0.9449  0.3782  0.9135
46096SOL     OW45402   7.448   5.656   1.221 -0.1168 -0.2088  0.5027
46096SOL    HW145403   7.454   5.687   1.311  0.5698  2.4908 -0.3922
46096SOL    HW245404   7.535   5.621   1.201  1.2561  3.2734 -0.3720
46097SOL     OW45405  11.231   7.840   2.677 -0.4996  0.4344  0.5377
46097SOL    HW145406  11.237   7.922   2.726 -0.8349  1.8801 -1.6751
46097SOL    HW245407  11.137   7.818   2.679 -0.6083  0.8395  0.0359
46098SOL     OW45408   9.572   6.140  10.921  0.0584  0.1777  0.1953
46098SOL    HW145409   9.503   6.098  10.972 -0.5520  1.6771  0.6767
46098SOL    HW245410   9.609   6.205  10.981  1.2987  0.0076 -0.3513
46099SOL     OW45411   9.838   5.929  11.096  0.3089  0.5053  0.9144
46099SOL    HW145412   9.824   5.928  11.001 -1.2880  1.1114  1.1212
46099SOL    HW245413   9.784   5.857  11.129  0.8283  0.3212  1.3717
46100SOL     OW45414  11.204   0.542  12.329 -0.4424 -0.2450 -0.2279
46100SOL    HW145415  11.120   0.523  12.286 -0.8497  0.3660  0.2730
46100SOL    HW245416  11.229   0.628  12.294 -0.1203 -0.3411 -0.2344
46101SOL     OW45417   0.528  11.061  12.596  0.0594 -0.0173  0.0951
46101SOL    HW145418   0.616  11.095  12.610  0.3616 -1.0795  0.8548
46101SOL    HW245419   0.470  11.128  12.634  0.6270 -0.1365  1.2072
46102SOL     OW45420   8.758   0.601  11.380 -0.2323  0.0505 -0.0658
46102SOL    HW145421   8.827   0.570  11.321 -0.1394  1.0389 -0.5047
46102SOL    HW245422   8.774   0.696  11.387 -0.5833  0.0370  1.1062
46103SOL     OW45423   9.496   1.158   2.660 -1.1597  0.0806 -0.3004
46103SOL    HW145424   9.500   1.115   2.575 -0.7709 -1.9380  0.6853
46103SOL    HW245425   9.444   1.100   2.715  1.7225 -0.7111  1.8774
46104SOL     OW45426   4.745   2.920  12.554 -0.4354  0.4940 -0.1770
46104SOL    HW145427   4.774   2.979  12.484 -0.3686  0.5435 -0.1086
46104SOL    HW245428   4.725   2.838  12.510  2.9599 -0.6496  0.0981
46105SOL     OW45429   3.672   7.542  10.603  0.9728  0.3281  0.0814
46105SOL    HW145430   3.626   7.533  10.520  1.8524 -1.8535 -0.2285
46105SOL    HW245431   3.605   7.523  10.670  0.6740  0.3586 -0.2065
46106SOL     OW45432   0.499   8.778  12.659  0.3572  0.0201 -0.1978
46106SOL    HW145433   0.524   8.786  12.751  1.2098 -1.4114 -0.2637
46106SOL    HW245434   0.455   8.860  12.638 -0.7991 -0.0201  1.7715
46107SOL     OW45435   5.910   5.151   0.508  0.6036  0.4218  0.5468
46107SOL    HW145436   5.995   5.157   0.552  0.9254  2.4257 -0.2431
46107SOL    HW245437   5.853   5.208   0.559  0.3803  0.9641 -0.2927
46108SOL     OW45438   3.474   3.118   4.401 -0.0216 -0.1866 -0.0624
46108SOL    HW145439   3.480   3.058   4.476 -1.7034 -2.5889 -1.6844
46108SOL    HW245440   3.562   3.117   4.363  0.2207 -0.9340  0.4871
46109SOL     OW45441   7.117   9.365   3.138  0.1958 -0.2758  0.1215
46109SOL    HW145442   7.072   9.283   3.116  1.2462 -0.7517 -0.3489
46109SOL    HW245443   7.164   9.388   3.058 -2.0257  2.1585 -0.6151
46110SOL     OW45444  11.609   7.030   0.284 -0.4931 -0.2035  0.5515
46110SOL    HW145445  11.567   7.117   0.287  1.9370  1.0300  1.2106
46110SOL    HW245446  11.608   7.007   0.191 -0.0841  1.1108  0.1929
46111SOL     OW45447   7.140   1.000   3.302 -0.1213 -0.0875 -0.2632
46111SOL    HW145448   7.213   1.040   3.254  0.3619  1.2223  1.4312
46111SOL    HW245449   7.175   0.917   3.334  0.6402  0.4941  0.4658
46112SOL     OW45450  11.022  12.568   5.169  0.1295  0.4164 -0.0556
46112SOL    HW145451  10.979  12.538   5.088  0.0875 -0.3407  0.2401
46112SOL    HW245452  11.028  12.489   5.223 -1.5950  1.2624  1.4786
46113SOL     OW45453  11.560   3.839   6.382  0.1543 -0.1934 -0.0150
46113SOL    HW145454  11.594   3.927   6.398  3.1289 -1.1381 -0.4684
46113SOL    HW245455  11.536   3.839   6.289  0.9231 -0.0705 -0.2194
46114SOL     OW45456   1.034   6.211  10.946 -0.4595  0.1022  0.4389
46114SOL    HW145457   1.048   6.159  11.026  0.6631 -0.2219  0.0477
46114SOL    HW245458   1.080   6.293  10.962 -0.2503  0.0449  0.1399
46115SOL     OW45459   6.904   8.144  12.505  0.5221 -0.7749 -0.1386
46115SOL    HW145460   6.873   8.130  12.594  0.4450  1.0186  0.1574
46115SOL    HW245461   6.995   8.170  12.516  0.4076 -0.1949 -0.5542
46116SOL     OW45462  12.088  12.194  11.895  0.0753  0.5038 -0.1978
46116SOL    HW145463  12.127  12.189  11.808  0.1178 -0.7934 -0.1190
46116SOL    HW245464  11.994  12.190  11.880  0.1065 -0.6159 -0.1413
46117SOL     OW45465   4.636   4.767   6.879 -0.1240  0.9341 -0.2855
46117SOL    HW145466   4.612   4.774   6.787 -0.9344  2.0649 -0.0117
46117SOL    HW245467   4.649   4.857   6.908  0.0930  0.6000  0.7188
46118SOL     OW45468   7.619   5.547   3.051  0.0783 -0.1772  0.5004
46118SOL    HW145469   7.598   5.615   2.987  2.6339 -0.1451 -0.4253
46118SOL    HW245470   7.585   5.466   3.013  1.2322 -0.0996 -0.7532
46119SOL     OW45471  10.735   0.053   3.559 -0.3338  0.3295  0.1605
46119SOL    HW145472  10.649   0.073   3.522 -1.0656 -2.3378  0.2469
46119SOL    HW245473  10.726  -0.035   3.594  1.6039  1.1060  2.8717
46120SOL     OW45474   5.876   6.383   3.347  0.2784 -0.1983  0.2326
46120SOL    HW145475   5.878   6.479   3.340 -0.1979 -0.2640 -1.0793
46120SOL    HW245476   5.915   6.353   3.265  1.2808 -1.1460  1.0250
46121SOL     OW45477   8.529   9.960  11.083  0.0298 -0.9894  0.4472
46121SOL    HW145478   8.436   9.979  11.092  0.1441 -0.9875  1.8514
46121SOL    HW245479   8.536   9.911  11.001 -0.9271  0.6581 -0.6596
46122SOL     OW45480   7.989   2.871   7.136  0.1722 -0.0494 -0.5200
46122SOL    HW145481   7.980   2.780   7.110  1.0351 -0.6901  1.2472
46122SOL    HW245482   7.908   2.913   7.108 -0.3743 -1.4292 -1.0549
46123SOL     OW45483   6.633   0.069   6.409  0.1290 -0.4462 -0.0796
46123SOL    HW145484   6.718   0.026   6.408 -0.5268 -1.8432 -1.5640
46123SOL    HW245485   6.609   0.073   6.501  1.0677 -1.5801  0.2414
46124SOL     OW45486   6.839   3.619  12.687 -0.4062  0.4576 -0.0289
46124SOL    HW145487   6.778   3.683  12.721  1.2663  1.7013  0.7655
46124SOL    HW245488   6.921   3.667  12.676  0.9877 -1.5945  0.8655
46125SOL     OW45489   4.028   7.888   7.729 -0.1329  0.1679  0.3667
46125SOL    HW145490   3.974   7.824   7.683  0.7352 -1.2428  1.2248
46125SOL    HW245491   4.058   7.843   7.807  0.0170  1.8517  1.3355
46126SOL     OW45492   5.539   2.376  12.058  0.1800  0.4436  0.0871
46126SOL    HW145493   5.603   2.342  12.120 -0.2619  1.1036  0.9444
46126SOL    HW245494   5.511   2.300  12.007  0.9149 -0.0228  0.3672
46127SOL     OW45495   9.596   7.619  12.512 -0.8476  0.0291 -0.1094
46127SOL    HW145496   9.626   7.654  12.595 -2.0324  1.0087 -0.0506
46127SOL    HW245497   9.565   7.531  12.532 -2.7254  0.8588  0.8977
46128SOL     OW45498   9.868   9.072  12.594 -0.0738 -0.3710 -0.9653
46128SOL    HW145499   9.872   9.121  12.512  0.7703  1.2853 -0.0014
46128SOL    HW245500   9.775   9.058  12.609 -0.4115  1.4491 -1.0499
46129SOL     OW45501   7.808   8.884  10.952  0.5639 -0.3144 -0.4006
46129SOL    HW145502   7.723   8.926  10.937  0.5248 -0.7433 -1.4641
46129SOL    HW245503   7.830   8.906  11.042 -1.2036 -1.1390  0.2767
46130SOL     OW45504   5.807   7.713   8.742 -0.0627  0.0520  0.2576
46130SOL    HW145505   5.858   7.636   8.767  0.4946  0.0225 -0.8927
46130SOL    HW245506   5.791   7.701   8.648 -2.0169  0.1697  0.5401
46131SOL     OW45507   7.589  11.396   5.760  0.1126 -0.3636  0.5128
46131SOL    HW145508   7.641  11.475   5.773 -1.6572  0.9447  0.0066
46131SOL    HW245509   7.555  11.404   5.671 -0.4873 -1.4658  0.6253
46132SOL     OW45510   7.622   6.894  11.440  0.3834 -0.3625 -0.2090
46132SOL    HW145511   7.549   6.861  11.388  0.2497 -0.7551  0.2179
46132SOL    HW245512   7.659   6.816  11.482  1.0357 -0.1634 -0.4056
46133SOL     OW45513  10.646   0.606   1.791  0.7164  0.4565 -0.1873
46133SOL    HW145514  10.714   0.667   1.762  2.0851 -0.9624 -0.0882
46133SOL    HW245515  10.690   0.550   1.856  0.3859 -2.4832 -2.2976
46134SOL     OW45516   3.297   8.090   5.282  0.2353  0.4784  0.3191
46134SOL    HW145517   3.332   8.177   5.300 -1.5730  0.9701  1.8163
46134SOL    HW245518   3.364   8.030   5.316  1.2558  1.2700 -0.2385
46135SOL     OW45519   5.315  11.956   2.529 -0.1025  0.7699 -0.1218
46135SOL    HW145520   5.357  11.963   2.615 -1.9225  1.1890  0.7937
46135SOL    HW245521   5.288  12.045   2.508  0.9096  0.7781 -1.4696
46136SOL     OW45522   1.922   2.640   2.154 -0.2057  0.5857  0.0168
46136SOL    HW145523   2.012   2.640   2.184 -0.8049 -0.9084  2.0743
46136SOL    HW245524   1.878   2.706   2.207 -0.9885 -1.0959  1.5685
46137SOL     OW45525   9.286   1.031  10.247 -0.0518  0.4611  0.6577
46137SOL    HW145526   9.252   1.005  10.161  0.4752  1.0073  0.2747
46137SOL    HW245527   9.219   1.088  10.283  0.4803  1.6291 -0.1440
46138SOL     OW45528   7.070   9.823   9.241  0.2561 -0.1178  0.3147
46138SOL    HW145529   7.015   9.797   9.315 -0.8669  2.6675  0.5759
46138SOL    HW245530   7.153   9.850   9.281  0.7586 -1.4270  0.2119
46139SOL     OW45531   9.104   9.533  10.607 -0.2790  0.2232 -0.3302
46139SOL    HW145532   9.156   9.553  10.685 -2.5619 -1.1766  1.7413
46139SOL    HW245533   9.120   9.440  10.591 -0.1892  0.3957 -1.2639
46140SOL     OW45534   9.071   8.692   3.641 -0.2803 -0.0851 -0.2911
46140SOL    HW145535   9.161   8.679   3.611  0.1295 -2.5019  1.6387
46140SOL    HW245536   9.080   8.741   3.723 -0.6709 -0.7240  0.1417
46141SOL     OW45537   2.267   8.792   3.463 -0.1333  0.0157 -0.7277
46141SOL    HW145538   2.358   8.814   3.483 -0.3043 -0.9991  1.3922
46141SOL    HW245539   2.227   8.876   3.440  1.6083  0.2907 -3.1109
46142SOL     OW45540   5.611   7.956   5.073  0.5454 -0.0898 -0.6527
46142SOL    HW145541   5.566   7.953   4.988 -0.0127 -0.7646 -0.3364
46142SOL    HW245542   5.684   8.016   5.058  0.1093  0.2738 -1.4469
46143SOL     OW45543   2.987   8.830   2.894  0.5134  0.2012  0.2486
46143SOL    HW145544   2.899   8.826   2.856  0.5181  0.4313  0.2124
46143SOL    HW245545   2.994   8.918   2.929  1.4124  0.8449 -1.4225
46144SOL     OW45546  11.968   2.699   8.940 -0.0408  0.2346 -0.3431
46144SOL    HW145547  11.884   2.657   8.924  0.4183 -0.6690 -0.4789
46144SOL    HW245548  12.024   2.629   8.975  0.5009  0.9411  0.2536
46145SOL     OW45549   8.070  10.685   8.382 -0.9692 -0.4178  0.5185
46145SOL    HW145550   8.013  10.760   8.368  0.0600  0.3622  0.3322
46145SOL    HW245551   8.021  10.627   8.440 -1.4429  0.7905  1.3445
46146SOL     OW45552   4.232   1.704   2.103  0.6770 -0.2823 -0.7228
46146SOL    HW145553   4.294   1.699   2.177  0.7495 -1.4008 -0.8524
46146SOL    HW245554   4.187   1.620   2.104  2.4180 -1.3777 -3.4605
46147SOL     OW45555   6.769   7.592   2.415  0.0078  0.2221 -0.1677
46147SOL    HW145556   6.686   7.632   2.441 -1.5193 -2.1617 -1.0669
46147SOL    HW245557   6.817   7.581   2.498 -0.9445  0.8441  0.4813
46148SOL     OW45558   1.497   2.485   2.202 -0.4201  0.0400  0.1256
46148SOL    HW145559   1.478   2.578   2.195 -1.5933 -0.2111 -0.2112
46148SOL    HW245560   1.586   2.481   2.237  0.9994  1.3414 -2.8994
46149SOL     OW45561   0.527   2.726   1.168 -0.0731 -0.1415 -0.2178
46149SOL    HW145562   0.556   2.797   1.112 -0.6473  0.3487  0.0980
46149SOL    HW245563   0.432   2.726   1.160 -0.2895  0.7631  1.7033
46150SOL     OW45564   1.819   5.825   8.328  0.1851  0.4979 -0.3511
46150SOL    HW145565   1.865   5.839   8.245 -0.2373  1.9224 -0.3748
46150SOL    HW245566   1.854   5.892   8.386 -1.7085  1.5427 -0.3237
46151SOL     OW45567   9.599   9.539   5.757 -0.5125 -0.5201  0.3788
46151SOL    HW145568   9.543   9.617   5.751  1.3545  0.7747 -2.1527
46151SOL    HW245569   9.564   9.479   5.691  1.4934  0.7248 -1.9890
46152SOL     OW45570   2.014   2.217   9.179 -0.2267  0.6194  0.0197
46152SOL    HW145571   2.037   2.252   9.093 -1.1301  1.2895  0.0315
46152SOL    HW245572   1.923   2.189   9.170  0.1677 -0.8445  0.3014
46153SOL     OW45573   8.127   6.332  10.725  0.0520  0.1806  0.1208
46153SOL    HW145574   8.103   6.271  10.794  0.0020  0.5163  0.4017
46153SOL    HW245575   8.191   6.391  10.766 -1.6401  1.8091  0.5697
46154SOL     OW45576   8.675   9.669  12.711 -0.2208 -0.3662 -0.0030
46154SOL    HW145577   8.639   9.754  12.688  1.6002  0.0224 -1.6751
46154SOL    HW245578   8.758   9.689  12.754 -0.1259 -1.2769  0.2521
46155SOL     OW45579   5.545   6.608   0.915  0.5234 -0.3221 -0.2128
46155SOL    HW145580   5.636   6.638   0.902  0.3203  0.7434  0.6792
46155SOL    HW245581   5.515   6.657   0.991 -0.7213 -0.8768 -0.3358
46156SOL     OW45582   8.252   2.812   0.817 -0.1106  0.1624  0.3006
46156SOL    HW145583   8.318   2.796   0.750  1.2566 -0.6308  1.7826
46156SOL    HW245584   8.293   2.873   0.878 -0.7521 -0.2743  1.2018
46157SOL     OW45585   2.161   7.710   1.362  0.1145 -0.0448 -0.1414
46157SOL    HW145586   2.112   7.632   1.385  0.4340  0.5198  2.8469
46157SOL    HW245587   2.213   7.730   1.439  1.0517  2.3854 -1.2763
46158SOL     OW45588   8.450   4.166  11.164 -0.0593  0.0454 -0.4822
46158SOL    HW145589   8.452   4.071  11.155 -0.2996  0.0014 -0.1101
46158SOL    HW245590   8.542   4.192  11.168  0.0058 -0.3565  1.2230
46159SOL     OW45591   4.494   7.966  10.919  0.2936 -0.0754  0.4933
46159SOL    HW145592   4.477   7.969  11.013 -2.2623  2.6558  0.0933
46159SOL    HW245593   4.570   8.023  10.906 -0.5915  1.2069  0.7656
46160SOL     OW45594   5.291   8.333   3.477  0.6339 -0.3766  0.0626
46160SOL    HW145595   5.260   8.356   3.565  1.0862 -0.3840  0.2273
46160SOL    HW245596   5.272   8.240   3.469 -0.0827 -0.2139 -0.1324
46161SOL     OW45597   8.236   5.641   8.089 -0.5219  0.0359 -0.2646
46161SOL    HW145598   8.310   5.579   8.092  0.2215  0.9431  0.8928
46161SOL    HW245599   8.174   5.600   8.028 -0.5785 -2.4368  1.3097
46162SOL     OW45600  11.701  11.170  10.174  0.4497  0.0578  0.5800
46162SOL    HW145601  11.756  11.118  10.115  1.3838  1.7419 -0.1126
46162SOL    HW245602  11.635  11.209  10.117  0.4910  0.5642  0.8733
46163SOL     OW45603  12.795  10.633   7.005  0.1492 -0.5538 -0.1230
46163SOL    HW145604  12.739  10.658   6.932  0.0829  0.5429  0.2909
46163SOL    HW245605  12.741  10.645   7.083  1.2105  1.4533  0.3723
46164SOL     OW45606   3.810   6.676   5.583 -0.5537 -0.2495  0.4798
46164SOL    HW145607   3.824   6.739   5.512 -1.2887 -0.8810 -0.2316
46164SOL    HW245608   3.899   6.654   5.612 -0.2403  0.0046 -0.2535
46165SOL     OW45609  10.360   8.847   2.114 -0.2014 -0.0430  0.2171
46165SOL    HW145610  10.393   8.775   2.062 -1.7012 -0.7988  0.2625
46165SOL    HW245611  10.381   8.926   2.063 -0.4535 -0.6687 -0.8719
46166SOL     OW45612   1.748   6.643   7.578 -0.5566  0.5200  0.2822
46166SOL    HW145613   1.832   6.598   7.570 -0.6417  0.3705  0.2237
46166SOL    HW245614   1.697   6.587   7.635 -0.8570  0.2557 -0.2352
46167SOL     OW45615  10.779   1.064   5.835  0.1333  0.5612 -0.1186
46167SOL    HW145616  10.791   0.970   5.821  1.5821  0.8032 -0.7047
46167SOL    HW245617  10.692   1.071   5.873 -0.4714 -0.9279 -1.0930
46168SOL     OW45618   5.198   6.164   4.490  0.1800  0.4564 -0.9820
46168SOL    HW145619   5.220   6.089   4.546 -0.5163  1.6856  1.0524
46168SOL    HW245620   5.132   6.131   4.430 -1.2462 -0.2558  0.8642
46169SOL     OW45621  12.294   8.547   8.710  0.4964 -0.2689  0.2097
46169SOL    HW145622  12.379   8.582   8.683  0.8674  0.0450  1.7185
46169SOL    HW245623  12.309   8.453   8.719  0.2220 -0.4700 -1.1220
46170SOL     OW45624   1.456   5.620  10.703 -0.3385  0.0725  0.2513
46170SOL    HW145625   1.413   5.705  10.716 -1.5715 -0.6353  0.9420
46170SOL    HW245626   1.508   5.632  10.624 -1.4876  1.0934 -0.3889
46171SOL     OW45627  11.681  12.095   2.250  0.5737  0.1181 -0.0134
46171SOL    HW145628  11.744  12.161   2.279  0.8657  0.0714 -0.5237
46171SOL    HW245629  11.624  12.081   2.325 -0.2027  1.7814 -0.2479
46172SOL     OW45630  10.574   1.500   7.622 -0.0264  0.7286 -0.1533
46172SOL    HW145631  10.628   1.421   7.626  0.4970  0.9834 -1.6197
46172SOL    HW245632  10.526   1.500   7.705  3.0628  1.1148  1.7968
46173SOL     OW45633   5.955   0.579   9.546 -0.3138 -0.2321 -0.0660
46173SOL    HW145634   5.966   0.496   9.592 -1.4769  0.2315  1.1064
46173SOL    HW245635   5.936   0.643   9.615  2.9986  1.5854 -0.5844
46174SOL     OW45636   7.257   3.627   6.642  0.4325  0.1576 -0.3339
46174SOL    HW145637   7.263   3.716   6.677 -0.2929 -0.4735  1.5211
46174SOL    HW245638   7.347   3.603   6.623  0.6421  1.2663 -0.8057
46175SOL     OW45639   8.288   4.349   7.753  0.1905 -0.4783  0.1411
46175SOL    HW145640   8.214   4.391   7.798  0.6656  0.6547 -0.1037
46175SOL    HW245641   8.327   4.293   7.819 -0.4710 -0.5566  0.4782
46176SOL     OW45642   9.094   3.096   8.319  0.3014  0.1040 -0.4347
46176SOL    HW145643   9.114   3.149   8.242 -0.7737  1.8958  0.4476
46176SOL    HW245644   9.002   3.117   8.339  0.6262 -0.1065  1.4622
46177SOL     OW45645   6.680   5.881  10.051  0.1856 -0.6720 -0.8310
46177SOL    HW145646   6.683   5.853   9.959 -0.3943 -1.2212 -0.6852
46177SOL    HW245647   6.728   5.812  10.098  1.0564 -0.0596 -0.7922
46178SOL     OW45648  11.825  12.863   7.595 -0.1795 -0.1458  0.6400
46178SOL    HW145649  11.772  12.869   7.516  3.4082  0.5100 -1.9669
46178SOL    HW245650  11.799  12.939   7.647 -1.8180  0.0711 -0.4342
46179SOL     OW45651  11.565   7.939  10.338 -0.0064  0.2273 -0.0647
46179SOL    HW145652  11.648   7.919  10.381 -0.3968  2.6108  2.0953
46179SOL    HW245653  11.577   8.029  10.305 -1.1613 -0.0353 -1.2771
46180SOL     OW45654  11.950   0.735   5.205  0.2217  0.3363 -0.6874
46180SOL    HW145655  11.923   0.649   5.238  0.2104  1.1179  1.4972
46180SOL    HW245656  11.904   0.744   5.122 -1.1576 -1.0401 -0.1217
46181SOL     OW45657   6.256   7.254   7.162  0.8925 -0.5023 -0.4389
46181SOL    HW145658   6.311   7.179   7.181  0.0056 -1.1760 -0.4447
46181SOL    HW245659   6.289   7.289   7.079  0.9191 -1.2701 -0.7538
46182SOL     OW45660   8.436   6.064   7.912  0.6707 -0.0183 -0.3894
46182SOL    HW145661   8.423   5.970   7.922 -0.4423  0.1713  0.0381
46182SOL    HW245662   8.391   6.086   7.830  0.6071  0.2071 -0.2943
46183SOL     OW45663   4.932   2.309   7.885  0.2569 -0.4761  0.2199
46183SOL    HW145664   4.900   2.253   7.815 -0.1003 -0.6993  0.5575
46183SOL    HW245665   5.020   2.275   7.905 -0.0829 -1.1312  0.6440
46184SOL     OW45666   7.495  12.873  11.064  0.1005 -0.1515 -0.4323
46184SOL    HW145667   7.417  12.909  11.105  0.3575  0.9886 -0.9202
46184SOL    HW245668   7.494  12.907  10.974  1.8899  1.0629 -0.0432
46185SOL     OW45669   2.832   5.221   3.829 -0.0529 -0.8902 -0.1759
46185SOL    HW145670   2.755   5.264   3.868 -2.3626 -4.6615 -0.0542
46185SOL    HW245671   2.872   5.174   3.902  1.9563  0.3302 -0.4377
46186SOL     OW45672   5.283   5.541   4.610 -0.1819 -0.1465  0.1101
46186SOL    HW145673   5.241   5.619   4.574 -0.2350 -0.5755 -0.7667
46186SOL    HW245674   5.296   5.563   4.703  0.5735  1.2223 -0.2917
46187SOL     OW45675   1.858   6.373   6.932  0.5178 -0.2018 -0.2356
46187SOL    HW145676   1.819   6.299   6.979 -0.3670  0.8930  0.8270
46187SOL    HW245677   1.891   6.430   7.001 -0.9030  1.5073 -0.8944
46188SOL     OW45678  12.476   8.531   8.078  0.5487  0.4235  0.3615
46188SOL    HW145679  12.568   8.555   8.073 -0.1645  3.5584  0.1784
46188SOL    HW245680  12.448   8.560   8.165 -0.5866  0.8714 -0.1307
46189SOL     OW45681   6.999   7.223   1.059 -0.4922  0.6627  0.6243
46189SOL    HW145682   7.025   7.135   1.088 -2.0015  0.0604  0.2330
46189SOL    HW245683   6.915   7.210   1.016 -1.7756  2.6205  2.3782
46190SOL     OW45684   2.418   3.855  11.660  0.3968 -0.0841  0.0121
46190SOL    HW145685   2.498   3.907  11.661  0.5589 -0.3365  0.5598
46190SOL    HW245686   2.414   3.817  11.572  1.0852 -0.3903  0.1082
46191SOL     OW45687  12.647   1.375   3.629  0.3870  0.1505 -0.1454
46191SOL    HW145688  12.699   1.429   3.569  0.0314  0.1645 -0.4376
46191SOL    HW245689  12.664   1.413   3.715 -1.1935  1.8316 -0.5183
46192SOL     OW45690  11.910   0.749   8.694 -0.6581 -0.1502 -0.6627
46192SOL    HW145691  11.819   0.747   8.725 -0.2792 -0.2299  0.4760
46192SOL    HW245692  11.918   0.671   8.639 -1.0952 -0.4845 -0.2575
46193SOL     OW45693   0.952  12.960   9.088  0.2343 -0.1308  0.0079
46193SOL    HW145694   1.013  12.986   9.019 -0.2982  2.3273  0.3823
46193SOL    HW245695   0.870  13.004   9.067  0.3784  1.7352  2.7982
46194SOL     OW45696   3.204   7.041   7.111  0.1623  0.0236  0.0235
46194SOL    HW145697   3.177   7.061   7.022  0.8173  0.6909 -0.0369
46194SOL    HW245698   3.280   7.098   7.127  0.3885 -0.4745  0.8142
46195SOL     OW45699   8.597  11.302   0.275  0.5048 -0.9396  0.8269
46195SOL    HW145700   8.550  11.261   0.203  0.5320 -1.6965  1.2214
46195SOL    HW245701   8.554  11.267   0.354 -0.3497  0.8327  1.1883
46196SOL     OW45702   7.437  10.081   6.674 -0.8665 -0.1955  0.0153
46196SOL    HW145703   7.450  10.066   6.767 -1.0647  0.5145  0.1672
46196SOL    HW245704   7.518  10.052   6.633  1.1144  3.4980  0.8629
46197SOL     OW45705  11.819   6.210   4.548  0.0194 -0.3708  0.9222
46197SOL    HW145706  11.869   6.291   4.548 -0.5635 -0.0025  0.2880
46197SOL    HW245707  11.826   6.177   4.458 -2.4500  0.6986  0.2591
46198SOL     OW45708   9.949   3.920   0.587  0.2742  0.5814 -0.0873
46198SOL    HW145709   9.925   3.835   0.624  1.3008  0.3449  0.0840
46198SOL    HW245710  10.006   3.898   0.513  0.2173  1.1163 -0.2905
46199SOL     OW45711  11.485  10.529  10.315  0.4098 -0.1947  0.2386
46199SOL    HW145712  11.416  10.517  10.249  1.3125 -0.3008 -0.7139
46199SOL    HW245713  11.491  10.445  10.360 -0.6238  0.0594  0.8957
46200SOL     OW45714   2.705  12.475   8.806 -0.1813  0.0721 -0.4784
46200SOL    HW145715   2.632  12.413   8.803  0.8042 -1.1363 -0.5653
46200SOL    HW245716   2.679  12.546   8.749 -1.6353  0.0692  0.1466
46201SOL     OW45717   8.924   5.768   8.385  0.7968  0.2685 -0.4661
46201SOL    HW145718   8.959   5.713   8.456 -0.5961  0.0891  0.0977
46201SOL    HW245719   8.993   5.766   8.319  2.1031  0.3780  0.8318
46202SOL     OW45720   6.795   5.157   8.031 -0.1373  0.2220 -0.4587
46202SOL    HW145721   6.886   5.134   8.013 -1.1755 -3.9628 -1.3489
46202SOL    HW245722   6.785   5.143   8.125 -0.3540 -1.7041 -0.7355
46203SOL     OW45723   2.891   7.032   5.126  0.4265 -0.2345  0.3582
46203SOL    HW145724   2.911   6.939   5.127 -0.1377 -0.3603  0.1992
46203SOL    HW245725   2.822   7.042   5.192  1.2329  0.2493  1.1561
46204SOL     OW45726  10.981  10.425   3.862  0.2183  0.0889 -0.6817
46204SOL    HW145727  10.914  10.472   3.912  0.5958 -0.6110  0.5324
46204SOL    HW245728  10.932  10.371   3.801 -0.2770  0.5740 -0.7207
46205SOL     OW45729   0.983   9.555   6.818  0.1158  0.5536 -0.2359
46205SOL    HW145730   0.973   9.513   6.904 -0.8548  2.7480  0.8349
46205SOL    HW245731   1.040   9.630   6.835 -0.0752  1.0175 -1.5047
46206SOL     OW45732   5.243   0.173   1.448 -0.0356 -0.3712  0.4095
46206SOL    HW145733   5.158   0.159   1.406 -0.5580 -0.1885  1.3660
46206SOL    HW245734   5.294   0.095   1.425  0.3546  0.5578 -2.0635
46207SOL     OW45735  11.044   1.584   7.265  0.1365 -0.1492  0.6691
46207SOL    HW145736  11.021   1.498   7.231 -1.1298 -0.1185  1.3877
46207SOL    HW245737  10.982   1.599   7.337 -0.2751  1.7339 -0.0102
46208SOL     OW45738  10.643  10.090   0.523 -0.4514 -0.0347 -0.4171
46208SOL    HW145739  10.559  10.046   0.521 -0.5497  0.1621 -1.3484
46208SOL    HW245740  10.635  10.155   0.593 -0.6874 -0.7372  0.2143
46209SOL     OW45741  11.305   3.141  10.970 -0.3148  0.1890  0.3566
46209SOL    HW145742  11.213   3.124  10.991 -0.8428  0.5400 -1.4572
46209SOL    HW245743  11.313   3.236  10.970 -0.9033  0.3571 -2.8093
46210SOL     OW45744   8.518   7.808   0.970 -0.0840  0.0578 -0.2994
46210SOL    HW145745   8.483   7.769   0.890 -0.3930 -0.4908  0.0960
46210SOL    HW245746   8.464   7.771   1.040  0.8408 -0.2792  0.2612
46211SOL     OW45747  10.029   3.631   4.920 -0.3208  0.0899  0.4405
46211SOL    HW145748  10.055   3.723   4.923 -0.6583  0.1930  0.1741
46211SOL    HW245749  10.064   3.594   5.002  1.6301 -0.0356 -0.4016
46212SOL     OW45750   7.379   2.558   8.015  0.2126 -0.2070  0.6824
46212SOL    HW145751   7.327   2.590   8.089  0.3523  0.7532  0.3683
46212SOL    HW245752   7.342   2.471   7.996 -0.4892 -0.0354  1.2246
46213SOL     OW45753   1.523   8.453   8.764  0.4032 -0.4319  0.1533
46213SOL    HW145754   1.562   8.514   8.701  0.2297  0.7481  1.1803
46213SOL    HW245755   1.598   8.414   8.809  0.4885 -0.4121  0.0289
46214SOL     OW45756   3.770   1.024   3.169  0.2292  0.8625 -0.0685
46214SOL    HW145757   3.783   0.987   3.081  2.4226 -0.4431  0.7352
46214SOL    HW245758   3.715   0.960   3.214  0.0060  1.0027 -0.1364
46215SOL     OW45759   2.038  12.823   0.137  0.4676 -0.1784 -0.3540
46215SOL    HW145760   1.983  12.897   0.163  0.3078 -0.0641 -0.9880
46215SOL    HW245761   1.979  12.748   0.135  0.8224 -0.5303  1.2049
46216SOL     OW45762   2.640   2.882   3.702 -0.8168 -0.3509  0.2110
46216SOL    HW145763   2.556   2.903   3.743 -0.0508  0.4283  1.4536
46216SOL    HW245764   2.617   2.834   3.622 -2.4448  0.2237  0.3035
46217SOL     OW45765   4.331  12.894   4.447 -0.5939 -0.0060 -0.0246
46217SOL    HW145766   4.358  12.807   4.476  1.7696 -0.3187 -2.6529
46217SOL    HW245767   4.338  12.949   4.525  2.0548 -1.3894  0.8397
46218SOL     OW45768  12.102   1.448   3.381  0.0642 -0.5297  0.6413
46218SOL    HW145769  12.191   1.428   3.353 -0.5686 -0.7985 -1.3057
46218SOL    HW245770  12.090   1.394   3.460  1.6595 -0.3424  1.0552
46219SOL     OW45771   1.086  12.425   5.471  0.1504  0.0603  0.0006
46219SOL    HW145772   1.075  12.464   5.557  0.0280  0.7057 -0.3007
46219SOL    HW245773   1.088  12.331   5.487  5.3179  0.0835  1.3893
46220SOL     OW45774   1.007  10.696   3.221  0.5927  0.0498  0.1822
46220SOL    HW145775   0.967  10.610   3.230  0.4431 -0.0394 -1.1843
46220SOL    HW245776   0.934  10.754   3.196  1.2327 -0.0913 -2.2168
46221SOL     OW45777   3.991  11.558   7.969 -0.3949 -0.5290  0.2180
46221SOL    HW145778   4.025  11.470   7.954 -1.0565 -0.6856 -0.4333
46221SOL    HW245779   4.069  11.612   7.979  0.0206 -1.2722  1.1972
46222SOL     OW45780   7.598   9.801   1.847 -0.5558  0.1269 -0.2476
46222SOL    HW145781   7.579   9.881   1.797  1.9970  0.5750 -0.6472
46222SOL    HW245782   7.693   9.800   1.854 -0.6819 -1.0074  2.8787
46223SOL     OW45783   9.692   9.436   2.853  0.5375 -0.4071 -0.1947
46223SOL    HW145784   9.693   9.366   2.788  0.6552  1.7694 -2.7118
46223SOL    HW245785   9.769   9.489   2.833 -0.4960  1.4404  0.4097
46224SOL     OW45786  10.685   1.448   3.376 -0.2688  0.3487  0.2636
46224SOL    HW145787  10.689   1.364   3.330 -1.8637  0.5976 -0.3851
46224SOL    HW245788  10.632   1.504   3.320 -0.1222  1.4686  1.1999
46225SOL     OW45789   0.853   0.544   9.384  0.5771  0.5160 -0.1662
46225SOL    HW145790   0.919   0.476   9.373 -0.7183 -1.5880  3.2854
46225SOL    HW245791   0.775   0.510   9.338  0.5659  0.7826 -0.3489
46226SOL     OW45792   4.854   8.907   2.353 -0.2271 -0.0833 -0.1092
46226SOL    HW145793   4.880   8.896   2.262 -1.8477  1.3251 -0.8090
46226SOL    HW245794   4.873   8.999   2.373  0.5716 -0.4895  1.1591
46227SOL     OW45795   2.074   0.579  11.604  0.1447  0.0289 -0.0536
46227SOL    HW145796   2.036   0.493  11.587 -1.1531  0.2665  1.4240
46227SOL    HW245797   2.001   0.640  11.591  0.9123  0.8651 -0.5391
46228SOL     OW45798  12.682  12.499  10.886 -0.2122  0.2783  0.6383
46228SOL    HW145799  12.664  12.590  10.863 -0.4819  0.2030  0.5496
46228SOL    HW245800  12.755  12.504  10.948  0.7706  0.4681 -0.4803
46229SOL     OW45801  10.623   4.422  12.700  0.6868  0.2125 -0.3643
46229SOL    HW145802  10.548   4.465  12.660  1.5532  1.3794 -0.8065
46229SOL    HW245803  10.591   4.336  12.728 -1.4432  1.5078  1.5340
46230SOL     OW45804  10.679   9.667   2.316  0.1766 -0.8983 -0.0254
46230SOL    HW145805  10.731   9.592   2.288 -0.1156 -1.6896  1.4550
46230SOL    HW245806  10.655   9.647   2.406 -0.0510  0.9144  0.3459
46231SOL     OW45807   2.948   2.173   6.368 -0.3204  0.3577  0.1504
46231SOL    HW145808   2.915   2.092   6.408 -1.3237  0.5316 -0.2737
46231SOL    HW245809   2.870   2.212   6.328  0.5767  0.3497 -1.6765
46232SOL     OW45810   7.380   1.335  10.205 -0.3871  0.0159  0.3219
46232SOL    HW145811   7.352   1.388  10.130 -1.1344 -0.5088  0.2133
46232SOL    HW245812   7.340   1.377  10.281  0.4606  0.6121  0.4504
46233SOL     OW45813   8.493   9.045  11.221 -0.1840 -0.1165 -0.3355
46233SOL    HW145814   8.539   9.001  11.293  0.4572  0.4340 -0.3897
46233SOL    HW245815   8.473   9.132  11.256 -0.0523  0.0839 -0.7473
46234SOL     OW45816   0.761   3.822  10.055 -0.0215 -0.4846 -0.2014
46234SOL    HW145817   0.818   3.834  10.130  0.3640 -0.3068 -0.5197
46234SOL    HW245818   0.697   3.756  10.083 -0.1574 -0.0898  0.4335
46235SOL     OW45819  11.931   9.087  10.028  0.1971 -0.3337 -0.2210
46235SOL    HW145820  11.843   9.084   9.990 -0.4920  1.4788  1.1055
46235SOL    HW245821  11.920   9.136  10.109  2.8240  2.0520 -1.1542
46236SOL     OW45822   5.202   0.981  11.502 -0.0081 -0.4740  0.3679
46236SOL    HW145823   5.290   0.999  11.536 -0.5223 -1.1075  2.1382
46236SOL    HW245824   5.153   1.061  11.522 -0.4606 -1.0636  1.7146
46237SOL     OW45825   9.352   1.480   8.102 -0.2007 -0.2504 -0.2206
46237SOL    HW145826   9.301   1.471   8.183 -1.0234  1.3435 -0.5201
46237SOL    HW245827   9.288   1.467   8.032  0.5759 -1.9891 -0.6584
46238SOL     OW45828   9.011   9.359  10.846 -0.4247  0.0254  0.4331
46238SOL    HW145829   9.028   9.374  10.753  0.8323 -2.5187  0.1562
46238SOL    HW245830   8.955   9.432  10.872 -0.8615  0.7989 -2.3064
46239SOL     OW45831  10.331   7.496   1.270 -0.4075  0.5161 -0.8576
46239SOL    HW145832  10.271   7.424   1.289  0.0281 -0.0844 -1.7280
46239SOL    HW245833  10.410   7.476   1.320 -0.4317  0.6043 -0.7834
46240SOL     OW45834   3.253   3.693   3.154  0.0663 -0.5764  0.1858
46240SOL    HW145835   3.256   3.741   3.071 -0.4866  0.7214  0.8769
46240SOL    HW245836   3.198   3.618   3.138  0.6364 -0.7865 -0.8391
46241SOL     OW45837   0.985   8.400  12.479 -0.0169  0.0341 -0.2494
46241SOL    HW145838   0.937   8.319  12.496 -1.9015  1.0562 -0.3988
46241SOL    HW245839   0.968   8.454  12.556 -0.5604  1.0575 -1.0608
46242SOL     OW45840  10.920   4.636  11.947 -0.3625  0.3783  0.2614
46242SOL    HW145841  10.958   4.720  11.971  1.6642 -0.2413 -0.6021
46242SOL    HW245842  10.974   4.605  11.874 -1.0302 -1.6855  0.5798
46243SOL     OW45843   8.397   9.649   1.264 -0.2786 -0.1372  0.4693
46243SOL    HW145844   8.392   9.736   1.225 -3.6539 -0.9221 -1.2784
46243SOL    HW245845   8.344   9.656   1.344  2.6869  0.2643  2.5548
46244SOL     OW45846   2.009   6.144  12.807 -0.4764 -0.1214  0.0362
46244SOL    HW145847   2.005   6.235  12.836 -2.6567  0.1983 -1.0701
46244SOL    HW245848   2.039   6.095  12.884 -0.1577  1.4051  0.9188
46245SOL     OW45849   1.099   1.295   1.605 -0.3879  0.2670  0.3890
46245SOL    HW145850   1.006   1.317   1.608 -0.7344 -1.1648  1.2653
46245SOL    HW245851   1.106   1.217   1.660  1.3697  0.4755  0.4981
46246SOL     OW45852   3.839  11.519   8.655 -0.0724 -0.1508  0.1954
46246SOL    HW145853   3.790  11.440   8.633 -0.1480  0.1293 -0.7214
46246SOL    HW245854   3.904  11.527   8.584 -0.4638  0.9259 -0.0651
46247SOL     OW45855   7.004   4.361   2.997 -0.5149 -0.1808 -0.4945
46247SOL    HW145856   6.915   4.380   3.028 -0.4350 -1.2724  0.4534
46247SOL    HW245857   7.061   4.394   3.067 -0.2954 -1.7554  0.1075
46248SOL     OW45858   4.661   2.287   2.627 -0.6143  0.4423  0.0419
46248SOL    HW145859   4.697   2.375   2.620 -0.2835  0.4886  1.8068
46248SOL    HW245860   4.608   2.289   2.707  0.4474 -1.2859  0.8515
46249SOL     OW45861   5.370   6.978   4.156  0.7847 -0.4295  0.1484
46249SOL    HW145862   5.376   6.925   4.077  0.3403 -0.1573 -0.0700
46249SOL    HW245863   5.456   6.968   4.198  0.4928 -1.8398  0.4558
46250SOL     OW45864   0.453   5.353   0.415  0.0621 -0.2207  0.1317
46250SOL    HW145865   0.439   5.446   0.430 -1.1705 -0.6468  2.0412
46250SOL    HW245866   0.371   5.311   0.443  0.0301 -1.8004 -2.0259
46251SOL     OW45867   4.219   7.908  11.951  0.4887 -0.1754 -0.2366
46251SOL    HW145868   4.172   7.986  11.922  2.2512  1.2198  0.4556
46251SOL    HW245869   4.160   7.865  12.013 -1.4154 -0.6818 -2.2836
46252SOL     OW45870  12.400   8.802  11.837  0.1005 -0.7188 -0.1931
46252SOL    HW145871  12.463   8.866  11.868 -2.1408  0.6807  1.8595
46252SOL    HW245872  12.353   8.846  11.766  1.3081 -1.7588 -1.7223
46253SOL     OW45873  11.947   3.571   1.335 -0.0745  0.5586  0.0645
46253SOL    HW145874  12.020   3.625   1.305  0.3025 -0.2959 -0.5692
46253SOL    HW245875  11.910   3.534   1.255 -0.0555 -0.4642  0.5198
46254SOL     OW45876  11.122   9.917   7.919 -0.5393  0.6585  0.2080
46254SOL    HW145877  11.032   9.933   7.893 -0.7629 -1.0532 -0.1998
46254SOL    HW245878  11.171   9.915   7.837 -0.1833  1.2370  0.4007
46255SOL     OW45879   5.067   0.828   6.545  0.2993  0.1521  0.1497
46255SOL    HW145880   5.136   0.895   6.549  1.4854 -1.0615  1.0875
46255SOL    HW245881   5.099   0.766   6.480  0.7372 -1.0578  1.4634
46256SOL     OW45882   7.213   6.544   6.281 -0.4898  0.2001 -0.7830
46256SOL    HW145883   7.265   6.584   6.351 -0.3341 -0.7265 -0.3612
46256SOL    HW245884   7.189   6.458   6.315  2.1183 -1.5453 -3.0524
46257SOL     OW45885   8.409   4.944   3.961 -0.3934  0.0714  0.4461
46257SOL    HW145886   8.333   5.000   3.977 -0.1472  0.6147 -0.1945
46257SOL    HW245887   8.393   4.865   4.012 -1.4932  0.0880  0.1534
46258SOL     OW45888   1.675   8.749   0.279  0.4983  0.0337 -0.4633
46258SOL    HW145889   1.684   8.699   0.360  0.9675 -0.0175 -0.5387
46258SOL    HW245890   1.591   8.792   0.286  0.8227  0.5578  0.3436
46259SOL     OW45891   9.304   6.916  10.908  0.1261 -0.8246  0.0081
46259SOL    HW145892   9.273   6.833  10.945 -0.4014 -0.7354 -0.2144
46259SOL    HW245893   9.342   6.963  10.982 -3.8556  0.7893  1.2799
46260SOL     OW45894  10.253   3.350   4.229  0.1907 -0.5707  0.0669
46260SOL    HW145895  10.309   3.388   4.162  1.5303 -2.7794 -0.1873
46260SOL    HW245896  10.311   3.293   4.279 -1.5667 -1.9655  0.6337
46261SOL     OW45897  12.701   4.890   2.644  0.1448 -0.2678 -0.1326
46261SOL    HW145898  12.787   4.872   2.680 -0.2059 -0.0283  0.8614
46261SOL    HW245899  12.664   4.957   2.702 -0.2716  0.4406 -1.1999
46262SOL     OW45900   9.531   6.343   4.232  0.7504 -0.3409  0.1290
46262SOL    HW145901   9.577   6.289   4.296  1.9089  0.0054 -0.3878
46262SOL    HW245902   9.591   6.416   4.214 -0.7694  1.1618  0.8100
46263SOL     OW45903   9.467  12.664   5.085  0.3994 -0.0957 -0.0588
46263SOL    HW145904   9.531  12.700   5.023  0.9086 -0.7487  0.0787
46263SOL    HW245905   9.495  12.696   5.170  0.2405  0.0376 -0.0558
46264SOL     OW45906   4.975   4.984   0.500  0.0927 -0.4902 -0.4933
46264SOL    HW145907   4.905   5.033   0.457  0.0532 -0.1067  0.0089
46264SOL    HW245908   5.051   4.998   0.443  0.3268  0.9607  0.1533
46265SOL     OW45909  10.258   3.655   2.696  0.1429  0.8312 -0.0517
46265SOL    HW145910  10.322   3.615   2.755 -0.4288  0.5805  0.4128
46265SOL    HW245911  10.201   3.582   2.671  0.5922  0.8559 -1.2128
46266SOL     OW45912   3.941   2.420   8.120 -0.5952  0.4749 -0.2287
46266SOL    HW145913   4.020   2.409   8.068 -0.2403 -0.8046  0.5286
46266SOL    HW245914   3.874   2.370   8.074 -0.5535  0.2437 -0.0433
46267SOL     OW45915   1.329   6.190   3.353 -0.5211 -0.2006  0.4330
46267SOL    HW145916   1.384   6.211   3.278  0.7092 -0.9026  1.1090
46267SOL    HW245917   1.391   6.172   3.424 -1.6634  1.0580  1.7956
46268SOL     OW45918   4.466  10.099   1.885 -0.2720 -0.0056 -0.5288
46268SOL    HW145919   4.439  10.078   1.796  0.8058  1.2830 -1.1798
46268SOL    HW245920   4.462  10.195   1.890  2.4460  0.1519 -0.1295
46269SOL     OW45921  12.459   2.452   3.400  0.4008  0.2492  0.0628
46269SOL    HW145922  12.439   2.435   3.308 -0.8210 -0.7808  0.4851
46269SOL    HW245923  12.391   2.405   3.448  1.9702 -0.6590  1.5339
46270SOL     OW45924  10.526   4.972   6.820 -0.0061  0.0912 -0.1326
46270SOL    HW145925  10.601   4.995   6.765 -0.8340  1.3401 -0.8214
46270SOL    HW245926  10.450   4.987   6.763 -0.9124  1.4771  1.3503
46271SOL     OW45927   7.146  10.654   2.320  0.2492 -0.1481 -0.4717
46271SOL    HW145928   7.069  10.691   2.277  0.5126 -2.1908 -2.9058
46271SOL    HW245929   7.134  10.675   2.413 -2.6450  0.5612 -0.9238
46272SOL     OW45930   3.677   0.864   8.115 -0.2622  0.2834  0.0834
46272SOL    HW145931   3.609   0.831   8.175 -1.8602  0.3035 -1.6224
46272SOL    HW245932   3.643   0.948   8.085  0.5210  0.2958 -0.8231
46273SOL     OW45933   8.474   5.028   2.142 -0.7196  0.4064  0.0471
46273SOL    HW145934   8.452   4.975   2.066  1.1031 -0.7590  0.2700
46273SOL    HW245935   8.462   4.970   2.217  2.4914 -0.2169  0.2077
46274SOL     OW45936   3.004   5.414  11.659  0.1429  0.2651  0.2062
46274SOL    HW145937   2.923   5.369  11.684 -0.1942  1.7970  2.1123
46274SOL    HW245938   2.985   5.448  11.571 -1.0565  0.0714  0.3659
46275SOL     OW45939   9.186  12.959   7.462  0.4701 -0.0243  0.1869
46275SOL    HW145940   9.091  12.953   7.472  0.4932 -0.4202  0.1668
46275SOL    HW245941   9.216  12.868   7.458  0.4363 -0.0127 -3.6333
46276SOL     OW45942   9.103   0.950   2.984  0.0213  0.0360  0.2316
46276SOL    HW145943   9.057   1.033   2.984  2.6406  1.6175 -0.9352
46276SOL    HW245944   9.077   0.907   2.903 -1.2165 -0.2722  0.7656
46277SOL     OW45945  12.223   7.306   5.087 -0.2912 -0.7706  0.5055
46277SOL    HW145946  12.237   7.295   4.992 -0.5453  0.8275  0.2591
46277SOL    HW245947  12.259   7.226   5.125  4.5507  0.5562 -0.5315
46278SOL     OW45948   1.936   7.509  10.617 -0.3495 -0.0223  0.1437
46278SOL    HW145949   1.868   7.576  10.621 -0.5362 -0.2630  2.2677
46278SOL    HW245950   1.889   7.426  10.614 -0.1369 -0.1395  0.0103
46279SOL     OW45951   9.502   6.062   3.161  0.0561 -0.1070  0.2698
46279SOL    HW145952   9.506   6.022   3.074  0.0865 -1.6067  0.9247
46279SOL    HW245953   9.423   6.117   3.158 -0.4729 -0.8750 -0.4175
46280SOL     OW45954   8.384   3.064   0.695 -0.2135  0.3766 -0.4409
46280SOL    HW145955   8.321   3.025   0.635  1.3245 -1.1343 -1.1507
46280SOL    HW245956   8.363   3.026   0.780  0.2886 -0.8262 -0.8420
46281SOL     OW45957   2.573  12.145  11.954 -0.0493  0.2065  0.0531
46281SOL    HW145958   2.624  12.218  11.990 -0.4379 -0.1574  1.4304
46281SOL    HW245959   2.601  12.069  12.005 -0.9954 -0.2368 -0.0690
46282SOL     OW45960   4.825  12.033   6.715  0.8823  0.6510 -0.0113
46282SOL    HW145961   4.752  11.974   6.735  0.0891  1.6930  0.2698
46282SOL    HW245962   4.902  11.976   6.712  0.1751 -0.3589  0.4369
46283SOL     OW45963  10.938   8.543  11.777  0.8982 -0.0096  0.0089
46283SOL    HW145964  11.027   8.578  11.778  1.0343 -0.3414 -0.4939
46283SOL    HW245965  10.948   8.450  11.795  0.5430  0.1592  1.2404
46284SOL     OW45966   4.263  10.592   9.864 -0.5044  0.0730 -0.1501
46284SOL    HW145967   4.281  10.519   9.805 -1.3972  0.3434 -0.7762
46284SOL    HW245968   4.206  10.555   9.932  0.0903 -0.1105  0.2574
46285SOL     OW45969   5.904   1.530  10.780  0.0334  0.0701  0.2663
46285SOL    HW145970   5.936   1.607  10.734 -0.8967  1.3832  1.7519
46285SOL    HW245971   5.939   1.538  10.868  1.3434 -2.1271  0.0386
46286SOL     OW45972   2.986   0.956   5.291  0.4548  0.0654  0.3350
46286SOL    HW145973   2.909   1.003   5.259  1.5862  1.9382  0.2209
46286SOL    HW245974   2.952   0.870   5.318 -1.3286  0.0944 -1.5238
46287SOL     OW45975  12.912   1.376  10.873  0.2706 -0.2197  0.2617
46287SOL    HW145976  12.838   1.353  10.817  1.1488 -0.7205 -0.7419
46287SOL    HW245977  12.963   1.295  10.881  1.1500  0.3090  0.2296
46288SOL     OW45978   5.169   1.881  10.086  0.1404 -0.0132 -0.3638
46288SOL    HW145979   5.202   1.968  10.064 -0.8583  0.2740 -0.7903
46288SOL    HW245980   5.075   1.893  10.096 -0.2504 -1.3513 -2.0126
46289SOL     OW45981  10.382   7.288  10.801  0.1595  0.3263  0.0906
46289SOL    HW145982  10.297   7.264  10.765 -0.1011 -0.3517  1.1059
46289SOL    HW245983  10.361   7.349  10.872  0.5432  0.4331  0.1159
46290SOL     OW45984   0.757  12.503   4.819  0.6403 -0.6775 -0.0560
46290SOL    HW145985   0.792  12.416   4.798  1.4688 -0.5945  0.8986
46290SOL    HW245986   0.751  12.503   4.915 -0.7837 -0.2165 -0.1264
46291SOL     OW45987   4.115  11.003   3.242 -0.3106  0.0892  0.2463
46291SOL    HW145988   4.145  10.913   3.231 -0.2287  0.1045  0.3426
46291SOL    HW245989   4.179  11.042   3.301  0.2331  0.5094 -0.6205
46292SOL     OW45990   3.647  10.725  11.556 -0.2681 -0.1608  0.0731
46292SOL    HW145991   3.565  10.694  11.595  0.3763 -0.7620  1.0211
46292SOL    HW245992   3.708  10.652  11.569  0.3219  0.1292 -0.9520
46293SOL     OW45993   9.164   8.967   6.810 -0.4650 -0.3082  0.6162
46293SOL    HW145994   9.175   8.882   6.767 -0.5572 -0.1784  0.3362
46293SOL    HW245995   9.172   9.031   6.740 -0.2250 -0.0749  0.8543
46294SOL     OW45996  11.100   9.863   1.492 -0.1791 -0.2113  0.2601
46294SOL    HW145997  11.045   9.939   1.470  0.3102  0.0317 -0.1447
46294SOL    HW245998  11.085   9.849   1.585 -1.1079 -0.2895  0.1077
46295SOL     OW45999  12.916  10.768   6.362 -0.0042 -0.2124  0.0877
46295SOL    HW146000  13.002  10.789   6.325 -0.4176  0.9337 -0.2655
46295SOL    HW246001  12.866  10.849   6.353 -1.4586 -1.1624 -0.6929
46296SOL     OW46002   4.510   2.534  11.875 -0.1028 -0.1782 -0.1470
46296SOL    HW146003   4.581   2.558  11.934  0.1070 -0.6952 -0.1838
46296SOL    HW246004   4.433   2.525  11.932 -0.1529  0.4387 -0.1172
46297SOL     OW46005   8.559   5.246   7.072 -0.2049  0.6669 -0.0893
46297SOL    HW146006   8.583   5.204   6.990 -0.3491  1.6575 -0.6467
46297SOL    HW246007   8.488   5.306   7.049  1.4582  2.8961  0.2232
46298SOL     OW46008   5.593   4.590  10.986 -0.0126 -0.0862  0.1910
46298SOL    HW146009   5.659   4.658  10.970  0.6807 -1.1395 -1.6051
46298SOL    HW246010   5.642   4.518  11.025  0.1199 -1.1701 -1.8501
46299SOL     OW46011  10.726   2.388   7.183  0.1382 -0.0340 -0.3570
46299SOL    HW146012  10.661   2.437   7.132 -0.1032 -0.3198 -0.3303
46299SOL    HW246013  10.725   2.300   7.143 -0.9863 -0.6488  0.9378
46300SOL     OW46014   3.298   6.960   3.688  0.1692 -0.3169 -0.0894
46300SOL    HW146015   3.368   7.024   3.701 -0.5945  0.4573  0.3354
46300SOL    HW246016   3.223   7.012   3.660 -0.5391 -0.9976  0.5062
46301SOL     OW46017  11.833   9.599   5.651 -0.0695  1.0116 -0.5568
46301SOL    HW146018  11.916   9.598   5.604 -0.5622  0.8456 -1.4357
46301SOL    HW246019  11.771   9.641   5.591 -0.9568 -0.1546 -0.4909
46302SOL     OW46020   6.128  12.680   4.917  0.0131  0.1627 -0.7767
46302SOL    HW146021   6.164  12.741   4.981  0.9311  1.7125 -2.6625
46302SOL    HW246022   6.204  12.637   4.879 -0.4667 -0.2857 -1.2470
46303SOL     OW46023   7.242   3.882  10.743 -0.7730  0.2380  0.4780
46303SOL    HW146024   7.306   3.906  10.675 -1.5901 -0.3034 -0.5141
46303SOL    HW246025   7.176   3.952  10.738 -0.7869  0.2441  0.7774
46304SOL     OW46026   4.627   6.105   2.763 -0.3129  0.2459 -0.0012
46304SOL    HW146027   4.563   6.151   2.710  0.1508 -0.7648 -1.5038
46304SOL    HW246028   4.712   6.134   2.729 -0.0096 -0.6233 -0.0033
46305SOL     OW46029  10.950   1.340   3.927  0.0623 -0.4353  0.0849
46305SOL    HW146030  10.967   1.432   3.947 -1.0144 -0.2076  0.0172
46305SOL    HW246031  10.888   1.343   3.854  0.1988 -1.2154 -0.0658
46306SOL     OW46032   9.756   4.747   6.893 -0.3651  0.7330  0.1679
46306SOL    HW146033   9.756   4.791   6.808  1.2534 -0.6444 -0.6112
46306SOL    HW246034   9.805   4.805   6.950 -0.1024  0.9367 -0.2611
46307SOL     OW46035   4.795   0.165   1.691 -0.3238 -0.1386  0.5645
46307SOL    HW146036   4.792   0.103   1.764  0.5258 -1.2894 -0.3152
46307SOL    HW246037   4.778   0.111   1.614  1.3414  0.5192 -0.3328
46308SOL     OW46038   8.601   2.206   0.940 -0.2166  0.5185 -0.0018
46308SOL    HW146039   8.697   2.212   0.937 -0.1608 -0.4497 -0.4909
46308SOL    HW246040   8.571   2.278   0.885  0.2438  0.5636 -0.2006
46309SOL     OW46041   4.186   7.532   1.534  0.0469  0.2530 -0.1209
46309SOL    HW146042   4.129   7.545   1.458 -1.8744 -0.8836  1.0080
46309SOL    HW246043   4.166   7.605   1.592 -0.4505 -0.2503  0.3607
46310SOL     OW46044   8.784   0.139  12.446 -0.1777 -0.1496 -0.3780
46310SOL    HW146045   8.874   0.147  12.415  0.7620 -0.8509  1.8936
46310SOL    HW246046   8.762   0.047  12.431  0.2281 -0.4559  0.7771
46311SOL     OW46047   1.930   2.671  10.602 -0.4268  0.1685  0.6193
46311SOL    HW146048   1.847   2.699  10.641 -1.4609 -0.5678 -0.9600
46311SOL    HW246049   1.939   2.725  10.524  1.2259  1.0751  1.3802
46312SOL     OW46050   9.791  10.348  12.128  0.0690 -0.3885  0.0099
46312SOL    HW146051   9.715  10.306  12.088  0.6519 -1.7173  0.2699
46312SOL    HW246052   9.761  10.369  12.217  0.3480 -1.9918  0.5150
46313SOL     OW46053   6.460   5.624   9.174 -0.0553  0.2823  0.2376
46313SOL    HW146054   6.374   5.623   9.217 -0.3828 -2.4328 -0.2620
46313SOL    HW246055   6.452   5.559   9.104  1.8598  1.3349 -1.0335
46314SOL     OW46056  10.931  10.505   3.233  0.4062 -0.4351 -0.2515
46314SOL    HW146057  10.847  10.462   3.245  1.1249 -1.8943 -0.1740
46314SOL    HW246058  10.957  10.483   3.143  1.2253 -1.0126  0.1068
46315SOL     OW46059   4.090   7.767   3.500  0.5259 -0.9207 -0.1445
46315SOL    HW146060   4.099   7.789   3.593  0.6722 -1.1266 -0.1097
46315SOL    HW246061   4.010   7.813   3.473  1.8123  1.1647 -0.5486
46316SOL     OW46062   0.708   9.705   1.019 -0.4474 -0.0018 -0.5814
46316SOL    HW146063   0.733   9.785   0.972  0.9357 -0.1786 -0.2033
46316SOL    HW246064   0.759   9.636   0.977 -1.0233 -0.5575 -0.3779
46317SOL     OW46065   8.590  10.448   4.429  0.3448  0.4403 -0.6570
46317SOL    HW146066   8.558  10.360   4.449 -0.8149  0.9293 -0.3198
46317SOL    HW246067   8.670  10.456   4.481 -0.0434 -0.0711  0.0384
46318SOL     OW46068   4.271  11.730   2.038 -0.1857 -0.3012  0.0143
46318SOL    HW146069   4.236  11.642   2.053  1.8332 -1.0117  1.0445
46318SOL    HW246070   4.346  11.716   1.980  0.9673  0.5258  1.2471
46319SOL     OW46071  11.358   2.181   5.897  0.1648 -0.0583  0.3170
46319SOL    HW146072  11.334   2.190   5.990  0.2567  1.6362  0.2161
46319SOL    HW246073  11.301   2.244   5.852 -0.4751 -1.4688 -0.9028
46320SOL     OW46074  10.334   9.980   0.372 -0.3423 -0.3088  0.4818
46320SOL    HW146075  10.334  10.003   0.279 -0.7976 -1.2344  0.2393
46320SOL    HW246076  10.307  10.061   0.416  2.9291  1.1605  0.1224
46321SOL     OW46077   6.529   1.037   6.312 -0.1971  0.7647  0.3544
46321SOL    HW146078   6.455   1.097   6.307  0.0109  1.0973  1.0724
46321SOL    HW246079   6.534   0.998   6.225 -1.2847  0.6545  0.3222
46322SOL     OW46080   7.931  12.112  12.443 -0.0954 -0.4426 -0.2888
46322SOL    HW146081   7.882  12.095  12.523  1.5904 -2.4366  0.4341
46322SOL    HW246082   7.864  12.120  12.375 -1.5124  0.1081  1.1085
46323SOL     OW46083   1.504  10.702   3.932  0.3451  0.3163  0.2729
46323SOL    HW146084   1.451  10.757   3.990  1.4259  0.5353  1.0655
46323SOL    HW246085   1.485  10.735   3.844 -1.1620  0.1064  0.4876
46324SOL     OW46086  12.366   5.256   1.995 -0.4884 -0.4476  0.2049
46324SOL    HW146087  12.337   5.343   2.022  2.1466 -0.0532  2.1331
46324SOL    HW246088  12.353   5.201   2.072  2.1999 -0.5817  0.6566
46325SOL     OW46089   7.824   8.135   8.123 -0.1149  0.1605  0.2322
46325SOL    HW146090   7.840   8.227   8.146 -0.4500  0.4917 -0.8021
46325SOL    HW246091   7.909   8.093   8.134  0.2286  0.7657 -0.0434
46326SOL     OW46092  10.841  11.603   9.631 -0.0797  0.0243 -0.7212
46326SOL    HW146093  10.925  11.591   9.587 -1.0121  1.2307 -3.0522
46326SOL    HW246094  10.851  11.686   9.678  0.7377 -0.9807  0.9434
46327SOL     OW46095  10.799  11.679   6.858 -0.2166 -0.0834  0.3384
46327SOL    HW146096  10.821  11.722   6.940  0.0429 -1.0706  0.7988
46327SOL    HW246097  10.858  11.604   6.853 -1.4186 -1.0538  0.1266
46328SOL     OW46098   6.310  12.896   3.586 -0.0140  0.2827  0.0619
46328SOL    HW146099   6.233  12.872   3.534 -0.1974  1.0226 -0.0094
46328SOL    HW246100   6.317  12.991   3.578  0.7508  0.2556  0.2928
46329SOL     OW46101   3.295   1.414   1.362  0.1746  0.1069 -0.2960
46329SOL    HW146102   3.379   1.435   1.402 -0.5331  1.2512  0.6633
46329SOL    HW246103   3.317   1.368   1.281  1.6946 -0.5558  0.4529
46330SOL     OW46104   6.007   2.663  11.902 -0.2260  0.0078  0.3323
46330SOL    HW146105   6.062   2.726  11.855 -0.6617  0.5632  0.5486
46330SOL    HW246106   6.068   2.619  11.961  0.2799 -0.5386 -0.5775
46331SOL     OW46107   6.535  10.390   8.279  0.4199  0.0155  0.0464
46331SOL    HW146108   6.586  10.451   8.226  1.0250 -1.1889 -0.8133
46331SOL    HW246109   6.452  10.382   8.233 -0.2567  1.3455  0.9985
46332SOL     OW46110   9.366   9.927   4.203 -0.4373  0.2900 -0.6201
46332SOL    HW146111   9.453   9.886   4.198 -0.4951 -0.0053  0.5320
46332SOL    HW246112   9.306   9.855   4.219 -0.4486  0.8190  2.2392
46333SOL     OW46113   2.487   9.770   1.494 -0.2625  0.3486  0.7985
46333SOL    HW146114   2.423   9.726   1.550 -0.0783  1.0157  1.5502
46333SOL    HW246115   2.531   9.832   1.552 -0.2229  1.2210 -0.1344
46334SOL     OW46116   6.772   8.329   9.590  0.2042  0.9207 -0.3971
46334SOL    HW146117   6.775   8.259   9.524  1.8816 -0.3841  0.9602
46334SOL    HW246118   6.821   8.401   9.550  1.7165 -0.0676 -0.4248
46335SOL     OW46119   7.262  10.916  12.547 -0.4046  0.5058 -0.3175
46335SOL    HW146120   7.288  10.836  12.502  1.5198  0.2299  1.1194
46335SOL    HW246121   7.172  10.901  12.574 -0.2815 -0.9103 -0.6314
46336SOL     OW46122  10.548   5.359  12.197  0.1921 -0.0060 -0.4752
46336SOL    HW146123  10.604   5.293  12.237  0.8172  0.2062 -0.9757
46336SOL    HW246124  10.540   5.428  12.263 -1.3322 -1.0248  0.4681
46337SOL     OW46125   0.642   5.078   4.794 -0.0759 -0.8024 -0.2188
46337SOL    HW146126   0.719   5.051   4.842  0.1177 -1.2519 -0.7662
46337SOL    HW246127   0.638   5.173   4.805  1.1836 -0.6280 -1.0932
46338SOL     OW46128   6.248   0.227   8.022 -0.5362  0.4426  0.6604
46338SOL    HW146129   6.260   0.322   8.023 -0.3467  0.4142  1.5776
46338SOL    HW246130   6.178   0.213   7.958 -0.3102  1.1633  0.2380
46339SOL     OW46131  12.323   6.402   7.946 -0.4884  0.0162 -0.3543
46339SOL    HW146132  12.280   6.443   8.022  0.6885  0.2468  0.2071
46339SOL    HW246133  12.251   6.380   7.887 -1.3807  0.3468  0.5822
46340SOL     OW46134  12.729  11.353   0.761  0.4971  0.6608  0.0654
46340SOL    HW146135  12.816  11.364   0.799  0.6934 -1.4282  0.3434
46340SOL    HW246136  12.743  11.354   0.666  1.0919 -1.0898  0.0959
46341SOL     OW46137   6.173  12.886   6.922  0.1715  0.5157 -0.0910
46341SOL    HW146138   6.195  12.973   6.955  2.2324  0.7709 -1.8602
46341SOL    HW246139   6.081  12.891   6.898 -0.4189  1.3805  2.1478
46342SOL     OW46140   9.530   7.283   5.817 -0.1442 -0.1867  0.5708
46342SOL    HW146141   9.461   7.288   5.751 -0.5729 -2.1949  0.8198
46342SOL    HW246142   9.611   7.278   5.766 -0.2933  0.4033  0.2608
46343SOL     OW46143   3.141   7.049   6.634  0.0685 -0.4898  0.2425
46343SOL    HW146144   3.217   6.995   6.613  0.7876  0.2533  0.8744
46343SOL    HW246145   3.094   6.999   6.700  1.5457  0.2854  1.9655
46344SOL     OW46146   9.772   4.475   6.793  0.0821 -0.3820 -0.1544
46344SOL    HW146147   9.753   4.565   6.817 -0.8058 -0.3024 -1.0975
46344SOL    HW246148   9.853   4.454   6.840 -0.1678  0.6108  0.7529
46345SOL     OW46149   8.248   3.938   3.203  0.3318 -0.4976 -0.2510
46345SOL    HW146150   8.255   4.022   3.249  1.5120 -1.7082  1.9681
46345SOL    HW246151   8.160   3.908   3.222  1.2940 -1.7703  2.9616
46346SOL     OW46152   5.335   3.648   5.722  0.2286  0.2073  0.2705
46346SOL    HW146153   5.366   3.731   5.759 -0.2503 -0.4692  2.3159
46346SOL    HW246154   5.403   3.584   5.747 -0.5995 -0.4533  0.9093
46347SOL     OW46155  11.432   1.940  10.471  0.0605  0.1383 -0.3659
46347SOL    HW146156  11.446   1.951  10.377  0.5546 -0.1933 -0.3343
46347SOL    HW246157  11.451   1.847  10.488  1.0951  0.4499  0.2504
46348SOL     OW46158  12.931   3.647   0.090 -0.2577 -0.2727  0.5846
46348SOL    HW146159  12.950   3.738   0.111 -0.4734 -0.0320 -0.2255
46348SOL    HW246160  12.871   3.619   0.158 -2.6027  1.1108 -0.7945
46349SOL     OW46161   5.911   9.694  11.660 -0.1629  0.0893  0.5215
46349SOL    HW146162   5.973   9.648  11.716 -0.0482  0.2626  0.5364
46349SOL    HW246163   5.956   9.775  11.635 -0.8373  0.8040  1.5232
46350SOL     OW46164   2.029  12.733   7.671  0.4622  0.5227  0.4606
46350SOL    HW146165   2.032  12.715   7.766 -0.1562  2.7235  0.9440
46350SOL    HW246166   1.936  12.734   7.650  0.4571  2.5351  0.4002
46351SOL     OW46167   9.885   4.960  10.544  0.7411  0.0902 -0.4234
46351SOL    HW146168   9.940   4.929  10.617 -1.4162  0.1023  1.3057
46351SOL    HW246169   9.801   4.980  10.585 -0.1033  1.5396 -2.7134
46352SOL     OW46170   7.906   1.634  11.865  0.0681 -0.4132 -0.2408
46352SOL    HW146171   7.915   1.608  11.956 -0.3694 -1.1192 -0.3912
46352SOL    HW246172   7.980   1.594  11.820 -0.0321 -0.5408 -0.2938
46353SOL     OW46173   2.677   2.253   8.565 -0.5938  0.0707 -0.2998
46353SOL    HW146174   2.674   2.188   8.636 -0.9969 -0.5716 -0.8929
46353SOL    HW246175   2.748   2.312   8.591  1.3186 -1.8779 -0.7949
46354SOL     OW46176   9.176   5.043   2.993 -0.0950 -0.8390  0.1028
46354SOL    HW146177   9.083   5.038   3.013 -0.3436  1.3870 -0.2396
46354SOL    HW246178   9.217   4.983   3.055 -1.6634 -1.1285  0.9101
46355SOL     OW46179  11.941   6.457   0.065  0.4400  0.2476 -0.1190
46355SOL    HW146180  11.885   6.482   0.138  0.3492  0.1914 -0.1706
46355SOL    HW246181  11.903   6.501  -0.012 -0.1731 -0.6739 -0.3488
46356SOL     OW46182   5.191   7.990  10.686 -0.1373 -0.5449 -0.1144
46356SOL    HW146183   5.144   7.918  10.643 -0.2304 -0.7699  0.3493
46356SOL    HW246184   5.165   7.983  10.778 -0.2976  0.2076 -0.0949
46357SOL     OW46185   6.518   2.594   9.237 -0.2228 -0.5743  0.5077
46357SOL    HW146186   6.470   2.513   9.254 -1.0049 -0.3311 -0.4677
46357SOL    HW246187   6.554   2.619   9.322 -0.6638 -1.4980  0.9802
46358SOL     OW46188   3.847   7.531   8.579 -0.2052  0.0767  0.1719
46358SOL    HW146189   3.892   7.577   8.650  2.9912 -0.4566 -1.3161
46358SOL    HW246190   3.811   7.600   8.524  1.7131  0.7563 -0.3078
46359SOL     OW46191  12.379   7.001   4.335  0.3409  0.1573 -0.2356
46359SOL    HW146192  12.435   6.988   4.412 -0.8354  1.6091  0.9095
46359SOL    HW246193  12.420   7.073   4.287  1.8259 -1.5946 -1.7733
46360SOL     OW46194   2.030   0.641   8.799  0.7816 -0.1648 -0.0283
46360SOL    HW146195   2.040   0.549   8.824  0.5493  0.6373  3.4392
46360SOL    HW246196   1.955   0.642   8.739 -0.9496 -1.9788  1.9514
46361SOL     OW46197   4.454  11.747   9.556  0.1789  0.5414 -0.4462
46361SOL    HW146198   4.475  11.696   9.635 -0.6725  0.3487 -0.3364
46361SOL    HW246199   4.462  11.685   9.485 -0.1767  0.4293 -0.3877
46362SOL     OW46200   6.917   9.106   2.693  0.0385  0.1613  0.0711
46362SOL    HW146201   6.855   9.037   2.716  1.6086 -1.9824 -1.7623
46362SOL    HW246202   6.924   9.102   2.597  1.6822  1.5153  0.0815
46363SOL     OW46203   9.484  11.887   8.685 -0.1050  1.2071  0.0384
46363SOL    HW146204   9.448  11.963   8.730  0.1779  1.9783 -0.9863
46363SOL    HW246205   9.505  11.824   8.754 -3.0986  0.8285  0.7304
46364SOL     OW46206   1.528  12.279   8.851  0.0225  0.3531  0.3252
46364SOL    HW146207   1.463  12.210   8.836 -0.1283  0.3103  1.0983
46364SOL    HW246208   1.553  12.269   8.943  1.1739  0.3385  0.0293
46365SOL     OW46209   5.440  11.208   9.983 -0.3958  0.0947  0.6394
46365SOL    HW146210   5.472  11.151   9.912  0.3265  0.4898  0.6412
46365SOL    HW246211   5.509  11.274   9.994 -1.0431  0.7414  0.9074
46366SOL     OW46212   9.170   7.945   2.132  0.1661 -0.0315 -0.3821
46366SOL    HW146213   9.079   7.976   2.136 -0.2358 -1.2588  1.4332
46366SOL    HW246214   9.206   7.966   2.218  0.9242 -1.4427 -0.3239
46367SOL     OW46215   5.555   0.281   2.923 -0.4907 -0.4772 -0.3826
46367SOL    HW146216   5.585   0.369   2.902  0.2386 -0.7408 -0.4516
46367SOL    HW246217   5.541   0.239   2.838 -1.1343 -0.3393 -0.3546
46368SOL     OW46218  12.546  11.270   1.399 -0.4962 -0.4861  0.4527
46368SOL    HW146219  12.452  11.266   1.418 -0.5784  0.3155  0.2814
46368SOL    HW246220  12.552  11.265   1.303 -0.3194 -1.1165  0.4923
46369SOL     OW46221   0.561   3.666  10.226  0.5438  0.2316  0.4776
46369SOL    HW146222   0.561   3.571  10.241 -0.9708  0.3193  1.1377
46369SOL    HW246223   0.485   3.699  10.274 -0.2953  1.5031 -1.5698
46370SOL     OW46224  12.720   4.273   4.966 -0.1060  0.3035 -0.1380
46370SOL    HW146225  12.664   4.199   4.942  0.5546 -0.3168  0.1989
46370SOL    HW246226  12.691   4.345   4.909  0.6217 -0.7752 -1.9489
46371SOL     OW46227   1.764   4.451  10.574  0.6661  0.3202 -0.3955
46371SOL    HW146228   1.838   4.449  10.514  0.9940 -3.1507 -0.0451
46371SOL    HW246229   1.784   4.385  10.640 -1.1249  1.8146  1.8067
46372SOL     OW46230  12.255  11.966   7.617  0.7233  0.3111  0.3067
46372SOL    HW146231  12.327  11.992   7.674 -0.1434  2.5881  0.4317
46372SOL    HW246232  12.266  12.020   7.539 -0.0216 -0.3994 -0.3089
46373SOL     OW46233   4.417   8.663   0.615  0.0846  0.7505  0.1516
46373SOL    HW146234   4.510   8.643   0.622  0.3610  1.8305 -0.2139
46373SOL    HW246235   4.408   8.706   0.530 -0.3309  2.6997  1.1115
46374SOL     OW46236   9.504   1.372  10.107 -0.3984  0.9731  0.3267
46374SOL    HW146237   9.513   1.283  10.075 -0.4774  0.5181  1.5212
46374SOL    HW246238   9.438   1.412  10.050  0.3876  0.6020 -0.8687
46375SOL     OW46239   8.715   8.552   4.460 -0.5589 -0.1798 -0.4582
46375SOL    HW146240   8.791   8.518   4.507 -0.7207 -2.5181 -1.7380
46375SOL    HW246241   8.738   8.543   4.368 -2.2667 -0.7229 -0.8760
46376SOL     OW46242   2.243  12.018  10.425 -0.2519 -0.2535 -0.4359
46376SOL    HW146243   2.310  12.052  10.485 -0.6383  1.0044 -0.6910
46376SOL    HW246244   2.163  12.014  10.478 -0.7747  1.5629 -0.9947
46377SOL     OW46245  12.170   8.434   4.536  0.3714 -0.1052  0.2548
46377SOL    HW146246  12.223   8.416   4.614  1.2531 -0.5491 -0.4248
46377SOL    HW246247  12.189   8.525   4.515 -0.0518  0.0846  0.6989
46378SOL     OW46248   0.788  11.817   8.258  0.0131 -0.2593  0.3189
46378SOL    HW146249   0.814  11.908   8.276  0.0145 -0.3772  0.9372
46378SOL    HW246250   0.702  11.809   8.298 -0.3376 -0.3075 -0.4268
46379SOL     OW46251   5.755   9.504   8.465 -0.4189  0.1923 -0.4842
46379SOL    HW146252   5.687   9.439   8.445 -1.4491  1.5890 -1.6731
46379SOL    HW246253   5.786   9.534   8.380  1.2674  0.0489  0.0490
46380SOL     OW46254   0.298   7.653   2.522 -0.4074 -0.3060  0.0509
46380SOL    HW146255   0.267   7.707   2.449  0.7690  0.2571 -0.0538
46380SOL    HW246256   0.236   7.671   2.593  1.2215  3.0999  0.8048
46381SOL     OW46257  10.924  10.002   7.604  0.8255  0.0085  0.6140
46381SOL    HW146258  10.915   9.962   7.691 -2.6562 -1.8529 -0.4167
46381SOL    HW246259  10.932  10.096   7.622  1.3508 -0.4128  2.9616
46382SOL     OW46260   9.569   9.503   0.359 -0.0209 -0.2604 -0.1192
46382SOL    HW146261   9.487   9.552   0.356 -0.8284 -1.5879 -0.5620
46382SOL    HW246262   9.560   9.437   0.291  0.1093 -2.3674  1.7889
46383SOL     OW46263   0.224   8.524   9.357  0.9098  0.1469 -0.1177
46383SOL    HW146264   0.281   8.515   9.280 -0.9627  1.2388 -1.7417
46383SOL    HW246265   0.157   8.457   9.344 -0.5970  1.6787 -0.6126
46384SOL     OW46266   5.328   8.638   7.969 -0.3181 -0.0293  0.3563
46384SOL    HW146267   5.384   8.572   7.927  0.1190  1.2338 -1.1295
46384SOL    HW246268   5.313   8.603   8.058  2.1509 -0.8154  0.5449
46385SOL     OW46269   0.052  10.994  11.944 -0.3283 -0.1541 -0.1740
46385SOL    HW146270   0.121  10.958  11.889 -1.0361 -1.3298 -0.3378
46385SOL    HW246271   0.060  11.089  11.935  2.2582 -0.1821  1.0907
46386SOL     OW46272   0.903   9.923  12.553  0.3538  0.5980  0.3996
46386SOL    HW146273   0.923   9.860  12.484 -1.2795  0.7208 -0.2257
46386SOL    HW246274   0.974   9.987  12.549  1.4167 -0.5573  0.2829
46387SOL     OW46275   9.825  11.400   6.640  0.0513  0.3187  0.3061
46387SOL    HW146276   9.793  11.311   6.623  0.4711 -0.0192  1.2117
46387SOL    HW246277   9.762  11.457   6.597 -0.7048 -0.3905  0.4523
46388SOL     OW46278   9.026   9.071   5.212 -0.2539 -0.7653 -0.1575
46388SOL    HW146279   8.986   9.134   5.152  0.6003  1.3447  1.3679
46388SOL    HW246280   9.118   9.069   5.187 -0.1843 -1.0577  0.1088
46389SOL     OW46281   6.090  10.805  12.932  0.0015 -0.3177  0.3361
46389SOL    HW146282   6.046  10.890  12.925  1.4631  0.7197  2.5318
46389SOL    HW246283   6.079  10.765  12.846 -3.3500  0.7467  0.1427
46390SOL     OW46284   7.690   1.154   7.589 -0.0382  0.2978  0.2536
46390SOL    HW146285   7.710   1.219   7.656  0.9694  1.1064 -0.7991
46390SOL    HW246286   7.612   1.188   7.546  1.3172  1.6312 -1.2607
46391SOL     OW46287   4.841  10.486   3.048 -0.3947  0.0666 -0.2846
46391SOL    HW146288   4.818  10.475   2.956  0.8574 -1.8443 -0.4259
46391SOL    HW246289   4.889  10.569   3.051 -0.1634 -0.0054 -1.4228
46392SOL     OW46290   7.644   9.786   7.784 -0.3929 -0.2566 -0.0501
46392SOL    HW146291   7.656   9.879   7.802 -1.7622 -0.0273 -0.1435
46392SOL    HW246292   7.589   9.785   7.705  2.7438 -1.1994 -2.4020
46393SOL     OW46293  11.052   7.787   3.206 -0.1677 -0.2921  0.1730
46393SOL    HW146294  10.961   7.800   3.234 -0.5532 -0.0363 -1.1556
46393SOL    HW246295  11.045   7.738   3.124  0.8032  1.4992 -1.0172
46394SOL     OW46296  12.957  11.615   4.900  0.2692  0.2555  0.5079
46394SOL    HW146297  12.976  11.523   4.883 -0.7362 -0.1831  1.6074
46394SOL    HW246298  13.043  11.658   4.899  1.4790 -1.5451  4.9638
46395SOL     OW46299  12.646   7.518   5.227 -0.4036 -0.1332  0.0937
46395SOL    HW146300  12.656   7.511   5.321 -0.0191 -0.8042  0.0102
46395SOL    HW246301  12.553   7.506   5.211 -0.6474  1.0759  0.4667
46396SOL     OW46302   3.329   3.572   4.050  0.4115  0.9294 -0.1105
46396SOL    HW146303   3.339   3.646   4.110  0.8880 -1.0440  2.4200
46396SOL    HW246304   3.417   3.537   4.040  0.1734  0.5984 -1.1320
46397SOL     OW46305  11.157   8.765   2.559 -0.1993  0.3338 -0.4025
46397SOL    HW146306  11.068   8.743   2.585 -0.1786  0.1361 -0.5013
46397SOL    HW246307  11.192   8.815   2.633  0.6169 -2.1150  0.9655
46398SOL     OW46308   2.555   0.511   8.163  0.1436 -0.2547  0.3983
46398SOL    HW146309   2.554   0.475   8.252 -0.4591  0.4790  0.6991
46398SOL    HW246310   2.486   0.463   8.118 -1.2240  1.0257  1.0293
46399SOL     OW46311  12.212  10.524   9.310 -0.0819 -0.6983  0.5351
46399SOL    HW146312  12.219  10.439   9.354 -0.3008  0.1309  2.2195
46399SOL    HW246313  12.275  10.580   9.355  0.2271 -0.0051 -0.7112
46400SOL     OW46314   4.271  12.318   3.027 -0.1377 -0.7043  0.5020
46400SOL    HW146315   4.266  12.370   2.947  1.3951 -2.9174 -1.1607
46400SOL    HW246316   4.355  12.272   3.021 -0.0350 -1.0732  3.3467
46401SOL     OW46317   3.588   9.214   2.545  0.3812 -0.1269  0.5887
46401SOL    HW146318   3.651   9.205   2.474 -0.6465  1.7995 -0.6844
46401SOL    HW246319   3.529   9.139   2.536 -0.3979  0.6513 -1.3822
46402SOL     OW46320  10.549   3.688   1.232 -0.0552 -0.4149 -0.0661
46402SOL    HW146321  10.592   3.610   1.267 -0.0087 -0.3858 -0.0585
46402SOL    HW246322  10.608   3.720   1.164 -1.1705 -1.7239 -1.7398
46403SOL     OW46323  12.946   2.146   4.999 -0.0492  0.4701  0.1876
46403SOL    HW146324  12.969   2.230   4.962  1.1347  0.1616  0.1926
46403SOL    HW246325  12.903   2.098   4.928  0.5099  0.5733 -0.2171
46404SOL     OW46326   4.455   4.868   3.500  0.2454 -0.2961 -0.1890
46404SOL    HW146327   4.520   4.929   3.535  1.3330  0.0665 -2.5936
46404SOL    HW246328   4.478   4.860   3.407 -2.0329 -1.6365 -0.7126
46405SOL     OW46329   1.359   6.798  12.068 -0.0397  0.6306 -0.1782
46405SOL    HW146330   1.356   6.891  12.088  1.3467  0.8020 -0.6761
46405SOL    HW246331   1.376   6.756  12.152  3.2971  1.1595 -0.4641
46406SOL     OW46332   4.063  10.850   5.889 -0.7899 -0.3927  0.1561
46406SOL    HW146333   4.130  10.791   5.855  1.1052  1.4831  0.3776
46406SOL    HW246334   3.995  10.852   5.822  0.2856 -0.9160 -0.9831
46407SOL     OW46335  11.277   8.872   9.963 -0.5659 -0.3956  0.0904
46407SOL    HW146336  11.183   8.883   9.978 -0.2323  0.0889  2.1547
46407SOL    HW246337  11.314   8.960   9.972  0.3056 -0.8613  1.3423
46408SOL     OW46338   5.503   4.943   0.392  0.4297 -0.1658  0.1899
46408SOL    HW146339   5.554   4.946   0.473  0.9282  0.3895 -0.1341
46408SOL    HW246340   5.483   5.035   0.373  0.4708 -0.2776 -0.4072
46409SOL     OW46341   6.219   0.357   0.304 -0.0507 -0.0499  0.0930
46409SOL    HW146342   6.220   0.433   0.362  1.0241 -0.5181  0.7334
46409SOL    HW246343   6.188   0.390   0.220  0.3466  1.0819  0.3751
46410SOL     OW46344   6.284   6.614   3.149 -0.2146 -0.2092 -0.4335
46410SOL    HW146345   6.356   6.564   3.111  2.1549  2.8173 -0.3344
46410SOL    HW246346   6.304   6.617   3.243 -2.4048 -2.0716  0.1875
46411SOL     OW46347   4.252   2.817   1.209  0.0286 -0.2652 -0.0704
46411SOL    HW146348   4.212   2.828   1.296  1.2966  1.5396  0.3552
46411SOL    HW246349   4.341   2.788   1.227  0.4282  0.5081 -0.7159
46412SOL     OW46350   0.218   3.575   4.178  0.7939  0.2083 -0.0370
46412SOL    HW146351   0.160   3.644   4.146  1.3418  0.4386 -0.5407
46412SOL    HW246352   0.303   3.617   4.187  0.9769 -0.2313  0.3173
46413SOL     OW46353   1.386   3.716   9.734 -0.8422  0.1193 -0.6434
46413SOL    HW146354   1.341   3.790   9.773  0.3787 -0.5185  2.2831
46413SOL    HW246355   1.479   3.733   9.750 -0.5224 -1.8791 -0.1148
46414SOL     OW46356   3.473   4.154  11.778  0.0599 -0.5119  0.1015
46414SOL    HW146357   3.565   4.131  11.771  0.3869  0.3422  1.2828
46414SOL    HW246358   3.445   4.169  11.687  1.4112  0.4229 -0.1884
46415SOL     OW46359  12.683   3.162   1.738  0.3399 -0.3068  0.3532
46415SOL    HW146360  12.761   3.198   1.780  0.0460  0.0211  0.6242
46415SOL    HW246361  12.616   3.163   1.806  0.4258 -1.7643  0.4969
46416SOL     OW46362  12.376  12.938  12.460  0.2352  0.0959 -0.0357
46416SOL    HW146363  12.394  12.849  12.492 -0.0153 -0.5710 -1.6305
46416SOL    HW246364  12.312  12.925  12.390  0.4878  1.4968 -0.5516
46417SOL     OW46365   4.977   4.711   9.963  0.1454  0.3505 -0.0140
46417SOL    HW146366   4.940   4.762  10.035 -0.2556  0.7570 -0.4996
46417SOL    HW246367   4.906   4.655   9.933  0.9614 -1.5538  1.4092
46418SOL     OW46368  10.176  11.202   0.481  0.2164 -0.6037  0.0987
46418SOL    HW146369  10.251  11.142   0.476 -0.7178 -1.8074  0.0475
46418SOL    HW246370  10.200  11.275   0.425  1.6624 -0.6091  0.6647
46419SOL     OW46371   8.354   6.773   2.948 -0.1726 -0.1657 -0.7886
46419SOL    HW146372   8.362   6.779   3.043 -2.0212  0.3694 -0.6244
46419SOL    HW246373   8.305   6.691   2.933  0.5972 -0.5443 -1.3267
46420SOL     OW46374   5.521  10.932   8.721 -0.2905 -0.1862 -0.1512
46420SOL    HW146375   5.606  10.975   8.732 -0.1839  0.3695 -2.5528
46420SOL    HW246376   5.533  10.845   8.759  1.3323 -0.0863 -0.3608
46421SOL     OW46377   5.480   7.723   5.992 -0.0737  0.0157  0.3339
46421SOL    HW146378   5.435   7.640   5.976 -0.1958  0.2179 -0.4315
46421SOL    HW246379   5.415   7.776   6.038  0.0152 -0.3180  0.8524
46422SOL     OW46380   0.068   6.823   4.313 -0.2012  0.3496  0.1616
46422SOL    HW146381  -0.017   6.855   4.283 -1.7950 -2.8233  0.8644
46422SOL    HW246382   0.117   6.803   4.233 -1.0611 -0.0032 -0.2819
46423SOL     OW46383   6.262   3.349  12.509  0.5156 -0.5475 -0.1935
46423SOL    HW146384   6.328   3.366  12.575 -0.5418  2.1594  0.2607
46423SOL    HW246385   6.211   3.276  12.544  1.1948 -0.4547  1.0145
46424SOL     OW46386   1.565   1.933   2.983  0.2648  0.0264 -0.2553
46424SOL    HW146387   1.567   1.929   3.079  0.9951 -2.2682 -0.3027
46424SOL    HW246388   1.502   2.001   2.963 -1.0624 -0.4803  1.8669
46425SOL     OW46389   3.167   4.667   4.172 -0.4351 -0.0137  0.2998
46425SOL    HW146390   3.225   4.723   4.224 -1.0972  1.6195 -0.6290
46425SOL    HW246391   3.205   4.579   4.180  0.8006  0.5883  1.6036
46426SOL     OW46392   9.085   8.282   4.807  0.5892  0.6258 -0.1580
46426SOL    HW146393   9.180   8.278   4.820  0.7391  1.9977 -0.6141
46426SOL    HW246394   9.066   8.213   4.744  1.4261  0.8698 -0.6969
46427SOL     OW46395   7.190  10.851   6.630  0.2361 -0.0122  0.3403
46427SOL    HW146396   7.116  10.844   6.690 -0.1403 -1.6978 -0.2841
46427SOL    HW246397   7.228  10.937   6.650 -1.4212  0.5805  1.1832
46428SOL     OW46398  12.939   8.550  11.198  0.5868 -0.2793 -0.5433
46428SOL    HW146399  12.942   8.624  11.259 -0.8541 -1.3240  0.9019
46428SOL    HW246400  12.881   8.486  11.241  0.0918 -1.3803 -2.7060
46429SOL     OW46401   6.338   6.880   0.697  0.0522  0.1044 -0.2253
46429SOL    HW146402   6.342   6.934   0.776 -1.0949  0.4065 -0.3525
46429SOL    HW246403   6.417   6.825   0.701 -0.6307 -0.8379  1.8218
46430SOL     OW46404   4.033   3.048   2.734  0.2887  0.4417 -0.3587
46430SOL    HW146405   4.095   3.034   2.662  0.8955  0.2649  0.1968
46430SOL    HW246406   4.053   3.136   2.765  1.1284 -0.0885  0.6480
46431SOL     OW46407   3.427   1.631   3.289 -0.0194 -0.0289 -0.2268
46431SOL    HW146408   3.476   1.550   3.302 -0.2294 -0.4717 -1.8990
46431SOL    HW246409   3.481   1.698   3.331  0.5057 -0.9373  0.5810
46432SOL     OW46410   9.625   6.696   3.420 -0.4713  0.1705 -0.2703
46432SOL    HW146411   9.570   6.736   3.353 -0.5030  0.2081 -0.2212
46432SOL    HW246412   9.566   6.680   3.494 -0.5104 -0.1743 -0.3732
46433SOL     OW46413   9.492   4.133   1.807  0.1380  0.0863  0.1742
46433SOL    HW146414   9.399   4.157   1.799 -0.0044 -0.2286  0.8925
46433SOL    HW246415   9.521   4.124   1.716  0.0436  2.3468 -0.1493
46434SOL     OW46416   7.680   9.354   0.346  0.4283 -0.5856  0.4991
46434SOL    HW146417   7.619   9.281   0.354 -0.3929 -0.0014 -0.2813
46434SOL    HW246418   7.662   9.409   0.422  0.3395 -0.6755  0.5427
46435SOL     OW46419   2.956   4.396   8.858  0.2181 -0.4396 -0.1516
46435SOL    HW146420   2.968   4.399   8.763 -0.5190 -1.9099 -0.3289
46435SOL    HW246421   2.867   4.362   8.869  0.3885 -0.5109  1.0605
46436SOL     OW46422  10.867   7.242   8.505 -0.4782 -0.1184 -0.0443
46436SOL    HW146423  10.849   7.310   8.569 -1.7371  0.2346 -0.7440
46436SOL    HW246424  10.915   7.175   8.554 -0.7562  0.4742  1.0735
46437SOL     OW46425   2.294   8.552  12.222 -0.0387 -0.6138  0.1885
46437SOL    HW146426   2.341   8.628  12.188  1.1051 -1.6302 -0.5713
46437SOL    HW246427   2.270   8.577  12.312  1.5721  0.1098  0.4558
46438SOL     OW46428   4.744   2.593  12.680 -1.0242 -0.6512 -0.2111
46438SOL    HW146429   4.753   2.515  12.626  0.2213  0.4078 -1.6026
46438SOL    HW246430   4.814   2.586  12.745 -2.7668 -2.1265  1.6699
46439SOL     OW46431   7.476   3.883   5.072  0.3608  0.6251 -0.1947
46439SOL    HW146432   7.571   3.875   5.073  0.2215 -1.4975  0.7360
46439SOL    HW246433   7.445   3.801   5.032 -1.1082  0.2452  1.5635
46440SOL     OW46434  11.243  12.930   2.817  0.1119  0.0757  0.5212
46440SOL    HW146435  11.257  13.015   2.775 -0.7838 -0.2723 -0.5393
46440SOL    HW246436  11.167  12.894   2.772  0.6786 -1.4356  0.7338
46441SOL     OW46437   5.492   0.770   9.779 -0.4664  0.0879  0.0152
46441SOL    HW146438   5.514   0.712   9.852  1.4509  1.1509  0.3831
46441SOL    HW246439   5.399   0.790   9.791 -0.3665 -0.3039  1.7935
46442SOL     OW46440   3.192   0.149   8.147 -0.2854 -0.1984 -0.0424
46442SOL    HW146441   3.247   0.074   8.168  0.4693  0.0613 -1.0257
46442SOL    HW246442   3.228   0.221   8.200  0.1985 -0.0800 -0.5259
46443SOL     OW46443  11.841   2.352  11.168 -0.2623 -0.2084  0.5807
46443SOL    HW146444  11.777   2.373  11.236  1.3383  1.6410  1.5988
46443SOL    HW246445  11.839   2.427  11.108  0.5558 -0.3879  0.3140
46444SOL     OW46446  12.097   8.715   0.770 -0.1454  0.0215 -0.2107
46444SOL    HW146447  12.035   8.787   0.755  0.7725  0.6218 -1.1714
46444SOL    HW246448  12.084   8.656   0.696 -0.5669 -0.5836  0.3342
46445SOL     OW46449   7.879   2.234   8.091 -0.2820 -0.1778  0.3483
46445SOL    HW146450   7.945   2.166   8.103 -0.2535 -0.1881  0.1415
46445SOL    HW246451   7.928   2.308   8.053 -0.4613 -0.3236 -0.1833
46446SOL     OW46452  10.722   5.935   6.433  0.4991 -0.2533  0.3781
46446SOL    HW146453  10.783   5.897   6.495 -0.1530 -1.6363  0.2192
46446SOL    HW246454  10.722   6.029   6.453  1.7470 -0.3975  1.1568
46447SOL     OW46455  11.685   3.306   5.908  0.5396  0.6127  0.4127
46447SOL    HW146456  11.754   3.244   5.933  0.4863  0.8198  1.0994
46447SOL    HW246457  11.730   3.390   5.900  0.8500  0.3038 -1.7431
46448SOL     OW46458  12.828   9.639   3.768 -0.2709  0.1054 -0.5495
46448SOL    HW146459  12.816   9.701   3.840  1.1994  1.2641 -1.2432
46448SOL    HW246460  12.761   9.572   3.782 -0.1195  0.3746  1.7851
46449SOL     OW46461  12.586   9.727  10.992 -0.2513 -0.2799 -0.4067
46449SOL    HW146462  12.664   9.680  11.020 -1.1235 -2.1439 -0.9350
46449SOL    HW246463  12.615   9.780  10.918  0.8429  0.3350  0.4348
46450SOL     OW46464   8.217  11.502   3.941 -0.0877  0.3762  0.3821
46450SOL    HW146465   8.194  11.567   3.874  0.2544 -0.1524 -0.2533
46450SOL    HW246466   8.143  11.441   3.942  0.1700  0.0524  0.0632
46451SOL     OW46467  10.281   9.836   2.769 -0.2735  0.0447 -0.6574
46451SOL    HW146468  10.307   9.794   2.851  1.6798 -0.1911 -1.3351
46451SOL    HW246469  10.238   9.918   2.796  1.6450  0.7047  0.6122
46452SOL     OW46470   7.253   1.843   4.688  0.5956 -0.4503 -0.3211
46452SOL    HW146471   7.182   1.864   4.627  0.5406 -0.8454 -0.3999
46452SOL    HW246472   7.333   1.853   4.637  0.5978  0.0092 -0.2291
46453SOL     OW46473   0.584  11.473   3.933  0.1771 -0.5538 -0.5082
46453SOL    HW146474   0.508  11.455   3.878  0.1328 -0.3867 -0.5011
46453SOL    HW246475   0.626  11.550   3.894  0.8119 -1.1363 -0.9976
46454SOL     OW46476   5.669  10.306   8.812 -0.3240 -0.0237 -0.3160
46454SOL    HW146477   5.652  10.400   8.811  1.0847  0.2550 -0.7969
46454SOL    HW246478   5.669  10.280   8.720  1.4034 -0.0480 -0.3452
46455SOL     OW46479   0.205  10.829   5.638  0.4605  0.1155  0.4325
46455SOL    HW146480   0.235  10.763   5.575 -1.2838  1.1447 -1.5872
46455SOL    HW246481   0.238  10.797   5.722  1.0552 -2.4712 -0.6618
46456SOL     OW46482   8.257   1.732   7.018  0.2826 -0.2621 -0.1821
46456SOL    HW146483   8.341   1.776   7.030 -0.3287  0.8058  0.2712
46456SOL    HW246484   8.265   1.651   7.069 -0.0617  1.2877  2.5054
46457SOL     OW46485  12.382   2.194   7.569 -0.5679  0.1315  0.2404
46457SOL    HW146486  12.468   2.204   7.610 -1.3407 -0.7191  2.1957
46457SOL    HW246487  12.398   2.139   7.493  0.9080  1.6844 -0.6466
46458SOL     OW46488   1.156   6.855   9.594  0.0455 -0.4034  0.0069
46458SOL    HW146489   1.239   6.871   9.548  0.1721  1.2139  0.7424
46458SOL    HW246490   1.165   6.767   9.630  1.7599  0.0045  0.6810
46459SOL     OW46491  10.370   8.670   7.817  0.6964 -0.1570 -0.7818
46459SOL    HW146492  10.430   8.701   7.749 -1.1759  1.2098 -1.8993
46459SOL    HW246493  10.285   8.664   7.773 -0.3037 -0.5727  1.1087
46460SOL     OW46494  10.629   2.651  12.255  0.2251 -0.0087 -0.1668
46460SOL    HW146495  10.539   2.677  12.274  0.1910 -0.1366 -0.1511
46460SOL    HW246496  10.683   2.722  12.288  0.1785 -0.2957  0.5502
46461SOL     OW46497   4.783   2.972   2.313 -0.3170 -0.2107 -0.1800
46461SOL    HW146498   4.834   3.026   2.373  1.4713 -0.1554 -1.6665
46461SOL    HW246499   4.764   3.030   2.239  1.6189 -1.5183 -1.7918
46462SOL     OW46500   6.621  11.175  12.801  0.6870  0.3150  0.4750
46462SOL    HW146501   6.685  11.129  12.746  0.2887  0.9220 -0.5331
46462SOL    HW246502   6.596  11.251  12.748  0.3325  0.9507  1.5440
46463SOL     OW46503   4.672   3.345   8.989 -0.7247  0.5819  0.1698
46463SOL    HW146504   4.672   3.422   9.046  1.1539  0.2489  0.7065
46463SOL    HW246505   4.701   3.378   8.904  0.3206  0.4497  0.4638
46464SOL     OW46506  12.870   4.384   6.432 -0.4128  0.1310  0.4705
46464SOL    HW146507  12.911   4.326   6.368  0.1959 -1.4682  2.2189
46464SOL    HW246508  12.833   4.325   6.497 -2.3097  1.6603  0.8680
46465SOL     OW46509   2.217   4.219   5.176 -0.5281  0.1974 -0.4748
46465SOL    HW146510   2.309   4.234   5.153 -0.3027 -0.1457  0.1838
46465SOL    HW246511   2.200   4.129   5.149 -1.2566  0.8603 -2.4156
46466SOL     OW46512   3.129   5.159   7.111  0.1659 -0.0019  0.2337
46466SOL    HW146513   3.081   5.226   7.061  0.8661  0.8648  0.6894
46466SOL    HW246514   3.073   5.141   7.187  0.9136  1.6512  1.2276
46467SOL     OW46515   2.019  12.808  10.897  0.1476  0.0486  0.0564
46467SOL    HW146516   2.056  12.758  10.824 -0.5218  0.5354 -0.6310
46467SOL    HW246517   2.086  12.874  10.917  1.2798 -1.3976  1.3275
46468SOL     OW46518   4.079   3.259   2.456  0.1789 -0.0463 -0.0727
46468SOL    HW146519   4.005   3.309   2.421 -0.0462  0.9337  1.6778
46468SOL    HW246520   4.064   3.258   2.551  0.9663 -2.2178  0.0811
46469SOL     OW46521   2.481   0.224   8.652  0.2649 -0.4776 -0.1612
46469SOL    HW146522   2.388   0.205   8.642 -0.2994  0.2917  2.6713
46469SOL    HW246523   2.524   0.164   8.591 -2.0583 -0.9314 -1.4662
46470SOL     OW46524   5.686   5.416   6.098 -0.2655 -0.3611 -0.2936
46470SOL    HW146525   5.706   5.349   6.163 -2.7601  0.3816  1.3772
46470SOL    HW246526   5.609   5.383   6.052 -1.0537  0.9750  0.0195
46471SOL     OW46527   8.282   9.534   7.045 -0.1898  0.3541 -0.0515
46471SOL    HW146528   8.301   9.621   7.080 -3.0234  0.8695  0.3940
46471SOL    HW246529   8.278   9.548   6.950 -2.3901  1.1751  0.1052
46472SOL     OW46530   3.019   4.135   0.067 -0.2111  0.4955 -0.6589
46472SOL    HW146531   3.024   4.226   0.038  1.0632  0.6290 -0.1008
46472SOL    HW246532   3.069   4.133   0.148  2.6776 -1.2905 -2.2838
46473SOL     OW46533   7.111   9.684   3.729  0.3727 -1.2758  0.5074
46473SOL    HW146534   7.040   9.701   3.668  1.2981 -0.8791 -0.4785
46473SOL    HW246535   7.067   9.655   3.809 -0.8945 -0.9443 -0.0481
46474SOL     OW46536   5.138   6.624   8.000 -0.5735  0.4022  0.5464
46474SOL    HW146537   5.061   6.608   7.946  0.3612 -0.3366 -0.5965
46474SOL    HW246538   5.211   6.587   7.951  0.1249 -1.8908  3.0458
46475SOL     OW46539   9.101   3.063   1.085  0.1885  0.3991 -0.3618
46475SOL    HW146540   9.094   3.136   1.146 -1.7279 -0.6624  0.7903
46475SOL    HW246541   9.185   3.076   1.041  1.1652  1.7663  1.7579
46476SOL     OW46542   2.024   1.415   2.645 -0.4950  0.2252  0.4460
46476SOL    HW146543   2.073   1.473   2.704  0.7511  0.1971 -0.5152
46476SOL    HW246544   2.069   1.423   2.561 -2.0301 -0.0010 -0.4253
46477SOL     OW46545   5.554   7.437   0.311  0.5994 -0.3971  0.4080
46477SOL    HW146546   5.531   7.528   0.295  2.3153  0.7725  3.7528
46477SOL    HW246547   5.630   7.421   0.255  0.2728  0.1909 -0.2123
46478SOL     OW46548   2.450   6.052   1.793  0.2757 -0.3797 -0.0057
46478SOL    HW146549   2.476   5.977   1.845 -0.9545  0.3605  1.7750
46478SOL    HW246550   2.521   6.115   1.804 -0.2505  0.0094  1.3338
46479SOL     OW46551   2.985   9.606   2.597 -0.2108  0.0712 -0.1776
46479SOL    HW146552   2.968   9.625   2.690 -3.5531  2.0269 -0.9840
46479SOL    HW246553   3.008   9.691   2.560  1.8775 -0.8350 -1.0790
46480SOL     OW46554   2.000   3.477   9.113 -0.7924 -0.1871 -0.5355
46480SOL    HW146555   2.089   3.484   9.147 -0.8850 -0.1332 -0.3020
46480SOL    HW246556   1.989   3.385   9.092 -0.5972 -0.1507 -0.7946
46481SOL     OW46557   4.958  12.416  12.887 -0.1699  0.0991 -0.1584
46481SOL    HW146558   5.037  12.371  12.916  2.1592  3.7172 -0.1818
46481SOL    HW246559   4.930  12.467  12.963 -1.2767  0.4332 -0.7666
46482SOL     OW46560   6.703   7.083  11.778 -0.4204  0.9653 -0.4414
46482SOL    HW146561   6.762   7.029  11.830  0.8508  0.8921 -1.8911
46482SOL    HW246562   6.651   7.131  11.842 -0.3968 -0.6769  0.8852
46483SOL     OW46563   7.657  12.750   0.009 -0.3084 -0.0368  0.0987
46483SOL    HW146564   7.653  12.836   0.051 -2.3762  1.6413 -3.0957
46483SOL    HW246565   7.725  12.759  -0.058 -0.2381 -1.0501  0.0203
46484SOL     OW46566   2.638   8.459   1.454  0.3032 -0.1553  0.3881
46484SOL    HW146567   2.654   8.402   1.529  1.0561 -0.0425  0.3255
46484SOL    HW246568   2.576   8.411   1.400  0.4537 -0.6389  0.6383
46485SOL     OW46569   3.256   7.579   4.292 -0.0557  0.6026  0.6888
46485SOL    HW146570   3.339   7.536   4.313  0.4299  0.7289 -0.8552
46485SOL    HW246571   3.276   7.672   4.295 -0.9020  0.7857  3.1971
46486SOL     OW46572   6.796   5.131   8.306  0.2748  0.0941 -0.4832
46486SOL    HW146573   6.789   5.075   8.383  1.6327 -0.6306 -0.8489
46486SOL    HW246574   6.882   5.172   8.314  0.3833  0.1059 -1.5315
46487SOL     OW46575   2.967   5.053   0.986 -0.2177 -0.2619 -0.3532
46487SOL    HW146576   2.949   5.001   0.907  0.7455 -0.2474 -0.5920
46487SOL    HW246577   3.048   5.099   0.967 -0.8863  1.1133 -0.0140
46488SOL     OW46578   8.213   9.729   6.264 -0.0076  0.0575 -0.4315
46488SOL    HW146579   8.250   9.787   6.198  2.9552 -0.4004  0.6958
46488SOL    HW246580   8.276   9.657   6.271 -1.1361 -0.8028  1.6352
46489SOL     OW46581   1.830   8.254  10.048 -0.0076 -0.6236  0.6499
46489SOL    HW146582   1.777   8.180  10.019  0.9868 -0.3763 -2.1063
46489SOL    HW246583   1.767   8.313  10.090 -1.0083 -2.4553  1.8475
46490SOL     OW46584   8.101   5.573   0.300 -0.1973  0.0644  0.2682
46490SOL    HW146585   8.025   5.517   0.283  1.5509 -1.8189 -1.8451
46490SOL    HW246586   8.098   5.640   0.232  0.4042 -0.4326 -0.2529
46491SOL     OW46587   9.381  12.481   7.000 -0.1759  0.0189  0.0066
46491SOL    HW146588   9.296  12.525   7.004  0.4366  1.6423 -2.5500
46491SOL    HW246589   9.361  12.392   6.971 -1.0103  0.4867 -0.9072
46492SOL     OW46590   1.580  10.310   5.667 -0.2891 -0.1874  0.1075
46492SOL    HW146591   1.663  10.283   5.705  0.6124  0.5575 -1.2411
46492SOL    HW246592   1.572  10.403   5.687 -0.7324 -0.2207  0.1039
46493SOL     OW46593   8.296  12.010   3.002  0.7555 -0.3248  0.6604
46493SOL    HW146594   8.232  12.007   2.931  0.4178  0.0575  0.9459
46493SOL    HW246595   8.322  11.918   3.014 -0.7557 -0.6974  1.4429
46494SOL     OW46596   1.541   9.303   6.025 -0.0957 -0.1359 -0.0813
46494SOL    HW146597   1.519   9.301   6.118  1.9321 -0.2313  0.4319
46494SOL    HW246598   1.518   9.392   5.997 -1.0842 -0.2250  0.3841
46495SOL     OW46599   5.807   2.968   5.272  0.0108 -0.3476  0.7687
46495SOL    HW146600   5.854   2.938   5.350 -0.2973 -1.7837  0.4305
46495SOL    HW246601   5.757   3.044   5.301  1.2777  0.2321  1.5198
46496SOL     OW46602   2.031   5.105   3.678 -0.8085  0.1559 -0.3633
46496SOL    HW146603   1.996   5.052   3.749 -0.7822 -0.7181 -0.9895
46496SOL    HW246604   2.119   5.129   3.707 -0.5944 -0.6475 -0.3174
46497SOL     OW46605   5.931   0.204  11.630  0.6432  0.3838 -0.2787
46497SOL    HW146606   5.869   0.265  11.671  0.8179  1.1132 -1.0569
46497SOL    HW246607   5.916   0.215  11.536  1.2790 -0.1605 -0.4505
46498SOL     OW46608  11.404   6.778  11.950  0.1928  0.9799 -0.1866
46498SOL    HW146609  11.491   6.747  11.925 -0.7022 -0.6116 -1.5426
46498SOL    HW246610  11.412   6.800  12.043  1.5982 -0.8974  0.1936
46499SOL     OW46611  11.816   8.658   2.539  0.3851  0.4166 -0.4514
46499SOL    HW146612  11.813   8.564   2.561  0.3749  0.0417 -1.9587
46499SOL    HW246613  11.832   8.701   2.623  0.3476 -0.9280  0.2847
46500SOL     OW46614   6.397  11.016   2.334 -0.1180 -0.1659 -0.2545
46500SOL    HW146615   6.441  11.028   2.250 -1.4692  0.3474 -0.9232
46500SOL    HW246616   6.405  10.923   2.354 -2.2707 -0.8997 -2.4190
46501SOL     OW46617  10.840   8.901  10.624 -0.1025 -0.1353 -0.2595
46501SOL    HW146618  10.749   8.928  10.628  0.2518  0.9120  2.1157
46501SOL    HW246619  10.838   8.807  10.644 -0.5448  0.2152  1.4186
46502SOL     OW46620   0.374  11.092   3.505 -0.2163 -0.4856  0.0705
46502SOL    HW146621   0.372  11.043   3.587 -0.4976 -1.9034 -0.7613
46502SOL    HW246622   0.301  11.057   3.454  0.1740  0.1232 -0.9388
46503SOL     OW46623   5.308   8.336   5.056 -0.2805  0.1190  0.4989
46503SOL    HW146624   5.361   8.343   4.977  1.3591  0.2354  1.5584
46503SOL    HW246625   5.364   8.371   5.126 -1.4170 -0.5909  1.8186
46504SOL     OW46626   2.735   8.394   1.885 -0.0047 -0.1136 -0.2777
46504SOL    HW146627   2.645   8.367   1.902  0.0156 -0.3268 -0.5053
46504SOL    HW246628   2.755   8.455   1.956  0.9580 -2.8642  1.9895
46505SOL     OW46629   8.199   1.408   2.807 -0.1325  0.4137 -0.4021
46505SOL    HW146630   8.281   1.416   2.856 -0.0291 -0.4065 -0.4300
46505SOL    HW246631   8.132   1.402   2.874  0.0881 -1.5737 -0.3084
46506SOL     OW46632   0.013   8.095   3.076  0.1920  0.2996  0.2067
46506SOL    HW146633  -0.032   8.041   3.141  0.4413 -0.1814 -0.0165
46506SOL    HW246634   0.088   8.043   3.048  1.2204  1.3161  0.9671
46507SOL     OW46635   3.211   2.782   9.225  0.4691  0.2054 -0.4441
46507SOL    HW146636   3.236   2.855   9.282 -0.0419 -0.1872  0.2907
46507SOL    HW246637   3.260   2.707   9.259 -2.8778 -1.0099  2.1619
46508SOL     OW46638   4.686   4.860  11.113  0.2665  0.9336  0.1337
46508SOL    HW146639   4.749   4.905  11.057  0.2133  0.6340 -0.1778
46508SOL    HW246640   4.618   4.831  11.052 -0.0594  1.0601  0.4331
46509SOL     OW46641  11.186  12.477   2.941  0.3983  0.8979  0.2104
46509SOL    HW146642  11.133  12.543   2.986 -0.4473 -0.5814  1.4890
46509SOL    HW246643  11.192  12.508   2.851 -2.8655  1.0875 -0.0669
46510SOL     OW46644   1.818   9.577   2.219 -0.0030 -0.3307 -0.2585
46510SOL    HW146645   1.832   9.549   2.128 -0.9930 -1.7259 -0.0203
46510SOL    HW246646   1.796   9.496   2.265 -2.0957  0.7105  0.7015
46511SOL     OW46647   1.172   4.545   6.780  0.3878  0.2411 -0.0224
46511SOL    HW146648   1.246   4.486   6.764  1.1433  1.4480 -1.1744
46511SOL    HW246649   1.105   4.519   6.717  0.7812  0.7031 -0.6374
46512SOL     OW46650   7.403   8.512   4.585  0.2880 -0.8339 -0.3000
46512SOL    HW146651   7.325   8.529   4.532  0.7769  0.0754 -0.7346
46512SOL    HW246652   7.462   8.585   4.567  0.2947 -0.2549  1.8348
46513SOL     OW46653   7.875   6.836  12.096  0.1800 -0.1829  0.2335
46513SOL    HW146654   7.945   6.835  12.030  0.9292  1.6703  0.9368
46513SOL    HW246655   7.838   6.748  12.092  1.5135 -0.7385 -1.2647
46514SOL     OW46656   0.169  12.071  11.199 -0.4882  0.4590  0.4874
46514SOL    HW146657   0.141  12.161  11.185 -0.4172  0.5531  0.9470
46514SOL    HW246658   0.229  12.076  11.273 -0.1364  0.0977  0.2293
46515SOL     OW46659  12.262  11.261   1.077  0.2895  0.2353 -0.5087
46515SOL    HW146660  12.218  11.177   1.063 -1.7154  1.4026 -1.5761
46515SOL    HW246661  12.271  11.298   0.989 -0.0292  1.7042  0.0551
46516SOL     OW46662  10.937   2.740   4.316 -0.1619 -0.3885  0.6763
46516SOL    HW146663  10.937   2.765   4.223 -1.0789  2.2998  1.3030
46516SOL    HW246664  10.862   2.682   4.325  1.4401 -2.8868 -0.6620
46517SOL     OW46665   2.627   4.464   5.265  0.3095 -0.4361 -0.0089
46517SOL    HW146666   2.699   4.512   5.307 -0.3176 -0.2620  0.9051
46517SOL    HW246667   2.571   4.531   5.227 -1.1759 -0.2939  2.2480
46518SOL     OW46668   6.065   9.306  11.150  0.0456  0.3682  0.3329
46518SOL    HW146669   6.147   9.295  11.102 -0.9669  1.3197 -1.7584
46518SOL    HW246670   6.053   9.223  11.197  1.4948 -0.3259 -0.4517
46519SOL     OW46671   6.112   4.034   6.443 -0.3528  0.7045 -0.0600
46519SOL    HW146672   6.096   3.981   6.521 -0.3245  0.9542  0.1175
46519SOL    HW246673   6.025   4.061   6.414 -0.5724 -1.2981 -1.4814
46520SOL     OW46674   5.185  11.760   1.748  0.1094  0.5331  0.0378
46520SOL    HW146675   5.101  11.720   1.768 -1.1164  2.9974  0.1604
46520SOL    HW246676   5.250  11.698   1.783 -1.4785 -2.2698 -1.5506
46521SOL     OW46677   7.046   4.397   2.715  0.2302  0.1185  0.0557
46521SOL    HW146678   7.123   4.454   2.722  2.2449 -2.4627  0.4511
46521SOL    HW246679   7.039   4.356   2.802 -0.3444 -1.1630 -0.5701
46522SOL     OW46680   9.847   7.015   1.363  0.2641  0.0960  0.2376
46522SOL    HW146681   9.814   7.067   1.437  2.2806  3.7681 -1.1622
46522SOL    HW246682   9.769   6.979   1.322 -1.1140  0.1745  2.5701
46523SOL     OW46683   3.902   6.766   5.874 -0.5436  0.0313  0.0288
46523SOL    HW146684   3.970   6.724   5.822 -0.1564  0.3584  0.2722
46523SOL    HW246685   3.928   6.858   5.879 -1.5903  0.3956 -0.8291
46524SOL     OW46686   4.241   5.091  11.882  0.2694 -0.1349  0.5602
46524SOL    HW146687   4.286   5.044  11.952 -0.3989 -0.2573  0.9206
46524SOL    HW246688   4.245   5.031  11.807  2.2692  0.5962  0.0208
46525SOL     OW46689  12.087  10.538   5.449 -0.7106 -0.1547  0.3414
46525SOL    HW146690  12.031  10.530   5.371 -0.9781  0.7979  0.4292
46525SOL    HW246691  12.049  10.610   5.499  0.1941  0.0556  0.7440
46526SOL     OW46692   1.770   1.315   2.498 -0.0727  0.5988  0.0511
46526SOL    HW146693   1.676   1.322   2.513 -0.0207  0.4670  0.4511
46526SOL    HW246694   1.802   1.405   2.508 -0.0720  0.5489  0.5211
46527SOL     OW46695   6.180   8.282   4.120  0.4713  0.4944  0.3308
46527SOL    HW146696   6.140   8.198   4.144  0.0510  1.0434  1.6682
46527SOL    HW246697   6.237   8.261   4.047  1.3981 -1.2251  1.4660
46528SOL     OW46698   0.599   2.144   9.952 -0.0949  0.4446 -0.0874
46528SOL    HW146699   0.673   2.091   9.981 -0.9915 -0.3649  0.8438
46528SOL    HW246700   0.576   2.197  10.029 -1.8071 -0.9026  0.3970
46529SOL     OW46701  12.219   2.632   3.691 -0.0337  0.4411  0.2703
46529SOL    HW146702  12.262   2.547   3.684 -1.7711 -0.5654  1.0392
46529SOL    HW246703  12.137   2.622   3.643 -1.0756  1.0736  1.8338
46530SOL     OW46704   2.318  10.491  10.766 -0.2051 -0.0968  0.1088
46530SOL    HW146705   2.395  10.443  10.738 -0.2435  0.3487 -0.8107
46530SOL    HW246706   2.275  10.433  10.829 -0.3179 -1.3328 -1.0554
46531SOL     OW46707   0.271   5.439  11.769  1.2948 -0.2835 -0.1415
46531SOL    HW146708   0.194   5.450  11.713  0.7452 -1.0379  0.4437
46531SOL    HW246709   0.316   5.523  11.765  1.8667 -0.6132 -2.5685
46532SOL     OW46710   7.405   4.917  11.090  0.3035  0.4856  0.4264
46532SOL    HW146711   7.324   4.963  11.113 -1.2536 -0.0420 -3.1441
46532SOL    HW246712   7.409   4.844  11.151 -3.5108 -0.9962 -0.7758
46533SOL     OW46713   2.337  12.054  10.932 -0.0552  0.0041 -0.4871
46533SOL    HW146714   2.268  12.044  10.998 -1.5620  1.4553 -1.7674
46533SOL    HW246715   2.361  12.147  10.936 -0.1863  0.1226 -1.9850
46534SOL     OW46716   3.333   5.396   3.826 -0.0628  0.2608  0.0175
46534SOL    HW146717   3.337   5.490   3.809 -0.8023  0.4147  0.6420
46534SOL    HW246718   3.256   5.366   3.778  1.2391 -0.4223 -1.8203
46535SOL     OW46719   7.164   8.683  10.523 -0.0347  0.3043  0.4210
46535SOL    HW146720   7.103   8.614  10.496  0.7097 -0.6647  1.1295
46535SOL    HW246721   7.208   8.710  10.442 -2.8622  2.5853 -0.5289
46536SOL     OW46722   0.763   3.550   2.922 -0.2622  0.3893 -0.0335
46536SOL    HW146723   0.761   3.644   2.904 -3.6661  0.8300  1.7584
46536SOL    HW246724   0.808   3.542   3.006  1.2138  0.2195 -0.8196
46537SOL     OW46725   2.569   3.201  12.163 -0.6792  0.2164 -0.0523
46537SOL    HW146726   2.528   3.115  12.163  0.0344 -0.1567 -1.3806
46537SOL    HW246727   2.565   3.229  12.071  0.9384  0.6734 -0.0133
46538SOL     OW46728  12.044   3.086   4.252 -0.5913 -0.1370 -0.0028
46538SOL    HW146729  12.042   3.136   4.171  0.2094 -1.0254 -0.5903
46538SOL    HW246730  12.012   3.147   4.319 -0.2735  0.9395 -0.8046
46539SOL     OW46731   5.913   1.955  10.165  0.2640  0.1308 -0.1299
46539SOL    HW146732   5.974   1.904  10.112  1.8609  0.1641  1.5842
46539SOL    HW246733   5.837   1.967  10.108  1.2811 -1.0815 -1.8566
46540SOL     OW46734  10.729   5.038   6.662 -0.5461  0.1960 -0.0696
46540SOL    HW146735  10.814   5.069   6.692  0.2655 -0.8284 -1.2007
46540SOL    HW246736  10.732   5.051   6.567 -0.4640 -2.5344 -0.4999
46541SOL     OW46737   2.142  11.790   2.581 -0.4831  0.1719  0.0764
46541SOL    HW146738   2.154  11.850   2.654 -0.5371  1.5618 -1.0275
46541SOL    HW246739   2.058  11.747   2.598 -0.0914 -0.1667  1.2523
46542SOL     OW46740   3.978  10.015   0.010 -0.6493 -0.3078 -0.7105
46542SOL    HW146741   3.908   9.952  -0.006  0.3990 -1.2972 -1.5290
46542SOL    HW246742   3.962  10.085  -0.054 -2.5279  0.9625  0.9949
46543SOL     OW46743  12.486   1.245   3.004 -0.0970 -0.1877 -0.5940
46543SOL    HW146744  12.426   1.252   2.930 -0.9654  0.1848  0.1201
46543SOL    HW246745  12.444   1.183   3.063  0.3133 -0.0644 -0.1674
46544SOL     OW46746   5.259  12.154   5.479 -0.4767 -0.0522  0.1006
46544SOL    HW146747   5.348  12.170   5.447 -0.7950  1.2042 -0.2222
46544SOL    HW246748   5.272  12.118   5.567  0.3559  0.4058  0.1837
46545SOL     OW46749  12.644   4.923   7.380 -0.0325  0.4310  0.0643
46545SOL    HW146750  12.630   4.830   7.400 -0.0971 -0.2014 -2.5469
46545SOL    HW246751  12.702   4.954   7.449  0.4774 -1.7230  0.6668
46546SOL     OW46752  11.099   8.878   7.916  0.1972  0.0168 -0.2247
46546SOL    HW146753  11.189   8.895   7.945  0.5242 -2.0595  0.1100
46546SOL    HW246754  11.105   8.797   7.865 -1.5685 -0.5348  0.3657
46547SOL     OW46755   8.095   3.261  10.213 -0.2444 -0.2705 -0.1012
46547SOL    HW146756   8.079   3.230  10.123 -0.0565  1.0882 -0.6296
46547SOL    HW246757   8.153   3.196  10.251 -1.3522 -1.5579 -0.5256
46548SOL     OW46758   3.328   7.344   1.470 -0.6638 -0.6160 -0.0710
46548SOL    HW146759   3.341   7.282   1.398  0.2532  0.6348 -1.0318
46548SOL    HW246760   3.374   7.305   1.544 -0.1311 -1.1104 -0.6503
46549SOL     OW46761   8.861   1.419   1.404 -0.0596  0.5307 -0.5263
46549SOL    HW146762   8.778   1.408   1.358  0.1644 -0.5884 -0.7072
46549SOL    HW246763   8.882   1.331   1.436  1.8549  0.4232 -1.8975
46550SOL     OW46764   4.268   0.967  11.579 -0.2911 -0.2215  0.1287
46550SOL    HW146765   4.178   1.001  11.577  0.0518  0.7266  0.3715
46550SOL    HW246766   4.257   0.873  11.591 -1.2743 -0.2806 -1.0407
46551SOL     OW46767   8.944   7.595   5.698  0.2076  0.2883 -0.3855
46551SOL    HW146768   8.967   7.684   5.670 -0.4165  0.5893  0.0223
46551SOL    HW246769   8.897   7.558   5.624  1.2910 -0.0546 -0.9252
46552SOL     OW46770   2.987   3.498  10.452  0.2851  0.2820 -0.0205
46552SOL    HW146771   2.980   3.430  10.385  1.9823 -2.2115  2.1439
46552SOL    HW246772   2.897   3.520  10.473 -0.5055 -3.3268  1.0379
46553SOL     OW46773  11.313   2.623   7.519 -0.2842 -0.5488 -0.5480
46553SOL    HW146774  11.363   2.544   7.501 -0.0809 -0.5996  0.2189
46553SOL    HW246775  11.268   2.605   7.601  2.1209  1.2087  1.3025
46554SOL     OW46776   4.168   7.491   8.018 -0.1975 -0.0475  0.1157
46554SOL    HW146777   4.212   7.440   7.950 -0.0426  0.3673 -0.0952
46554SOL    HW246778   4.173   7.435   8.097  0.5825 -0.0598  0.0607
46555SOL     OW46779   9.990   1.412   7.549  0.3552  0.1879  0.4064
46555SOL    HW146780   9.954   1.324   7.545 -1.5172  0.8919  0.3380
46555SOL    HW246781   9.920   1.464   7.590 -0.6455  2.5557 -3.7184
46556SOL     OW46782   5.654   8.472  11.350  0.1602  0.2082  0.0559
46556SOL    HW146783   5.581   8.410  11.358  0.4674 -0.0235  1.2510
46556SOL    HW246784   5.614   8.553  11.318 -0.4097 -0.2984 -0.5374
46557SOL     OW46785   4.767   8.244   3.142  0.2759 -0.2344  0.3130
46557SOL    HW146786   4.690   8.246   3.199  0.6746  0.0501  0.8529
46557SOL    HW246787   4.794   8.152   3.141  1.8046  0.1013  2.7195
46558SOL     OW46788  10.336   4.743   9.973 -0.1646  0.0547 -0.2259
46558SOL    HW146789  10.355   4.791  10.054  0.7083 -1.4582  0.5213
46558SOL    HW246790  10.242   4.754   9.960  0.0379  2.1632 -0.2624
46559SOL     OW46791   4.713   4.421  11.221  0.0235  0.4036  0.5279
46559SOL    HW146792   4.784   4.484  11.224  0.8836 -0.5578  0.9591
46559SOL    HW246793   4.733   4.365  11.146  0.8347 -1.0902  1.7837
46560SOL     OW46794   9.116   3.064   6.072  0.1430  0.0738 -0.6172
46560SOL    HW146795   9.123   3.048   6.166 -0.3352  0.7292 -0.4624
46560SOL    HW246796   9.072   3.149   6.066 -1.6083 -0.8546 -1.4514
46561SOL     OW46797   0.056   0.226   2.197 -0.1988 -0.3878 -0.3148
46561SOL    HW146798   0.069   0.141   2.239 -0.6845 -0.6710 -0.7223
46561SOL    HW246799  -0.036   0.227   2.172 -0.4086  0.6206  0.4473
46562SOL     OW46800   8.170   3.701   0.305 -0.6375 -0.3109  0.2527
46562SOL    HW146801   8.141   3.786   0.339  0.5264 -0.5999  2.1241
46562SOL    HW246802   8.096   3.642   0.322 -2.2578  0.6140 -2.8353
46563SOL     OW46803   9.722   5.311   1.379  1.0707 -0.1082 -0.5384
46563SOL    HW146804   9.794   5.327   1.318  0.1836  0.0396 -1.5702
46563SOL    HW246805   9.643   5.316   1.325  0.4195 -3.5647 -0.1280
46564SOL     OW46806   3.056  10.459   3.709 -0.6568  0.4604 -0.2293
46564SOL    HW146807   3.085  10.371   3.734 -2.5614  0.0069  0.6092
46564SOL    HW246808   3.097  10.475   3.624 -0.3319 -1.2877 -0.4355
46565SOL     OW46809   3.171   0.900   2.821 -0.4421 -0.0777 -0.3776
46565SOL    HW146810   3.076   0.891   2.834 -0.3315  0.8154  1.1723
46565SOL    HW246811   3.190   0.842   2.747 -1.8846 -1.8183  0.5470
46566SOL     OW46812   8.453   5.283   9.493  0.4827 -0.0352  0.0178
46566SOL    HW146813   8.437   5.261   9.401  1.2629 -0.8565  0.0697
46566SOL    HW246814   8.542   5.318   9.494  1.0622 -1.4574  0.6795
46567SOL     OW46815  12.778   1.297   4.715 -0.2550 -0.2964 -0.2206
46567SOL    HW146816  12.770   1.375   4.660  0.1041  0.7704  1.1711
46567SOL    HW246817  12.699   1.247   4.697  0.6211 -0.8608 -2.9339
46568SOL     OW46818   2.804   8.243   3.407 -0.4603  0.4925 -0.3640
46568SOL    HW146819   2.747   8.240   3.330 -0.5079  1.6011 -0.3934
46568SOL    HW246820   2.892   8.236   3.372 -0.5609 -1.7353 -0.2794
46569SOL     OW46821   7.841  11.458   1.333 -0.6493  0.1490 -0.0762
46569SOL    HW146822   7.894  11.532   1.361 -1.0839  0.3122  0.3315
46569SOL    HW246823   7.824  11.474   1.240  1.7219 -0.9504 -0.7941
46570SOL     OW46824   5.552   0.457   4.786 -0.3964 -0.1224 -0.2989
46570SOL    HW146825   5.633   0.434   4.740 -0.2549  1.3981 -0.8419
46570SOL    HW246826   5.524   0.539   4.747 -1.5549  0.0025  0.7294
46571SOL     OW46827   0.150   4.069   2.958  0.4028  0.3458  0.0468
46571SOL    HW146828   0.109   4.048   2.874  1.3370  0.6231 -0.4936
46571SOL    HW246829   0.203   4.147   2.940  1.0342  0.0888  0.7480
46572SOL     OW46830  12.437  11.522   4.178 -0.3037  0.7240  0.0246
46572SOL    HW146831  12.492  11.585   4.224 -1.2995  1.4462  0.2752
46572SOL    HW246832  12.347  11.548   4.201 -0.7315 -1.2259  0.7175
46573SOL     OW46833   9.732   7.651   7.006 -0.6084 -0.1498 -0.2760
46573SOL    HW146834   9.655   7.707   6.995 -1.9790 -2.0550 -1.1045
46573SOL    HW246835   9.705   7.584   7.069  0.4752 -0.6585 -0.3171
46574SOL     OW46836   1.212   6.074  12.507  0.2923 -0.5107  0.6480
46574SOL    HW146837   1.273   6.031  12.567  0.2727  0.1330  1.1435
46574SOL    HW246838   1.243   6.165  12.502 -1.3330  0.1715  1.9227
46575SOL     OW46839   8.248  10.529  12.856 -0.1745  0.2179  0.3288
46575SOL    HW146840   8.160  10.506  12.885 -0.6712  1.2036 -0.3375
46575SOL    HW246841   8.306  10.469  12.903 -1.2350 -0.7878  0.3821
46576SOL     OW46842   1.948   5.643   6.549 -0.3107  0.0525 -0.1490
46576SOL    HW146843   2.017   5.709   6.560 -1.4511  1.2439  0.1789
46576SOL    HW246844   1.983   5.581   6.485  0.0231  2.1415 -2.1180
46577SOL     OW46845   1.038   2.965   2.243  0.0666 -0.7519 -0.1092
46577SOL    HW146846   1.039   2.985   2.336  0.6071  2.2813 -0.6531
46577SOL    HW246847   0.945   2.960   2.221 -0.0716 -0.6310  0.4361
46578SOL     OW46848   9.288   1.290   0.541 -0.4158  0.1311 -0.0385
46578SOL    HW146849   9.373   1.316   0.577  0.0559 -1.1657 -0.1341
46578SOL    HW246850   9.287   1.323   0.452 -0.7091  1.5545  0.4724
46579SOL     OW46851   9.031   8.884   2.514  0.0083 -0.1094 -0.0595
46579SOL    HW146852   9.087   8.823   2.563  0.5922  0.2759 -0.2373
46579SOL    HW246853   9.011   8.954   2.576  0.0587 -0.0436 -0.1170
46580SOL     OW46854   3.170   9.346  10.038 -0.3184 -0.6888 -0.6874
46580SOL    HW146855   3.138   9.421   9.988  1.3925  0.0646 -0.7247
46580SOL    HW246856   3.148   9.367  10.129  1.2939  0.5381 -0.5361
46581SOL     OW46857   0.328   0.786  12.154 -0.1395 -0.2985  0.6056
46581SOL    HW146858   0.340   0.881  12.160 -1.3993 -0.1313  0.5847
46581SOL    HW246859   0.311   0.770  12.061 -0.6857 -0.4518  0.7322
46582SOL     OW46860   1.377   6.716  10.435  0.1995 -0.5124  0.4525
46582SOL    HW146861   1.326   6.682  10.508 -2.2251 -2.6900 -2.0267
46582SOL    HW246862   1.340   6.802  10.417 -0.5019 -0.7886  0.5756
46583SOL     OW46863   3.299   2.565  10.753 -0.5484  0.1370 -0.2455
46583SOL    HW146864   3.297   2.477  10.714  2.1683 -0.0477 -0.1459
46583SOL    HW246865   3.259   2.621  10.687  3.2424 -0.2828 -3.2754
46584SOL     OW46866  11.047   2.300   1.993  0.5665 -0.2961  0.2764
46584SOL    HW146867  11.103   2.268   1.922 -0.5988 -1.2669 -0.2374
46584SOL    HW246868  11.088   2.265   2.073  0.3833 -1.5243 -0.1395
46585SOL     OW46869   5.456   9.141   7.519 -0.3910  0.5392 -0.2254
46585SOL    HW146870   5.395   9.162   7.448 -1.2020 -1.5739 -0.2319
46585SOL    HW246871   5.515   9.216   7.523 -1.7678  1.7577 -1.5575
46586SOL     OW46872  12.737   9.003   7.419  0.1450  0.2715 -0.0356
46586SOL    HW146873  12.797   9.056   7.366  1.8737 -0.8604  0.7245
46586SOL    HW246874  12.758   9.026   7.509 -0.8483  0.1181  0.2467
46587SOL     OW46875   7.951  12.440  11.706 -0.1444  0.3277 -0.4518
46587SOL    HW146876   8.012  12.507  11.738  0.5814 -1.2077  1.6496
46587SOL    HW246877   7.865  12.481  11.715  0.3803  1.7438 -1.3717
46588SOL     OW46878   6.385  10.696   3.071 -0.6503  0.1542 -0.4304
46588SOL    HW146879   6.413  10.730   2.986  2.1853 -0.3230  0.1975
46588SOL    HW246880   6.317  10.756   3.100  2.0806  3.6763 -0.6734
46589SOL     OW46881  12.291   6.260   7.468 -0.1408 -0.1201  0.1800
46589SOL    HW146882  12.336   6.302   7.395 -0.9118  0.2426 -0.0961
46589SOL    HW246883  12.351   6.191   7.497  0.0375 -0.4795 -1.0052
46590SOL     OW46884   4.548   1.043   4.731  0.7252  0.0091 -0.1582
46590SOL    HW146885   4.465   0.997   4.717  0.0252  0.3853  2.2798
46590SOL    HW246886   4.615   0.978   4.712 -0.1793 -0.9975 -0.0166
46591SOL     OW46887   3.598   1.737   5.497  0.8652  0.3287  0.6010
46591SOL    HW146888   3.663   1.724   5.428  0.9214 -0.5381  0.8082
46591SOL    HW246889   3.599   1.655   5.547 -0.3145  0.3481  0.6788
46592SOL     OW46890   9.591   8.604   6.066 -0.6935  0.1522 -0.2149
46592SOL    HW146891   9.510   8.632   6.108 -0.0942  1.3156  0.2172
46592SOL    HW246892   9.656   8.669   6.094  0.5608 -1.1743  0.0573
46593SOL     OW46893   3.587   5.828   4.493 -0.2174  0.4515  0.4629
46593SOL    HW146894   3.499   5.791   4.490 -0.1724  0.1148  2.2954
46593SOL    HW246895   3.581   5.908   4.441 -1.9256  1.0424  1.4768
46594SOL     OW46896  10.497   0.272   4.163 -0.1272  0.1035  0.2271
46594SOL    HW146897  10.421   0.302   4.112  0.3248  0.3375 -0.3263
46594SOL    HW246898  10.537   0.352   4.196 -1.2036 -0.1000  2.1640
46595SOL     OW46899   8.270   4.997   9.185 -0.1594  0.2548  0.1954
46595SOL    HW146900   8.265   4.989   9.280  1.3746 -1.0888  0.2058
46595SOL    HW246901   8.189   4.956   9.153  0.3692 -1.3799  0.8650
46596SOL     OW46902   0.239   9.878   7.415 -0.0634  0.0669  0.1682
46596SOL    HW146903   0.199   9.798   7.379  3.0125 -1.4101 -0.3065
46596SOL    HW246904   0.272   9.925   7.338  0.8461  0.2044  0.6320
46597SOL     OW46905  10.472   1.999   2.067 -0.0149 -0.5528 -0.3014
46597SOL    HW146906  10.466   1.966   2.156 -2.2261  0.4366 -0.0175
46597SOL    HW246907  10.433   1.930   2.013 -3.0486  0.7020  0.1017
46598SOL     OW46908   7.502  12.913   2.344 -0.2598 -0.2481 -0.5845
46598SOL    HW146909   7.595  12.891   2.338 -0.2453 -0.1670 -0.6723
46598SOL    HW246910   7.462  12.865   2.271 -0.2246  0.0320 -0.7906
46599SOL     OW46911   4.464   3.461   2.966  0.3449 -0.2921  0.1414
46599SOL    HW146912   4.515   3.492   2.891  0.1522 -0.4715 -0.0669
46599SOL    HW246913   4.415   3.538   2.995  1.6300  0.1939  1.1003
46600SOL     OW46914  10.793   6.800   0.583 -0.0860  0.3040  0.9291
46600SOL    HW146915  10.769   6.772   0.671 -0.4027 -1.1995  0.3910
46600SOL    HW246916  10.808   6.719   0.534  2.6183  1.0935  0.2512
46601SOL     OW46917   1.526   6.598   7.909  0.0335  0.1186 -0.5613
46601SOL    HW146918   1.617   6.628   7.918 -0.1191  0.1775  1.1664
46601SOL    HW246919   1.480   6.640   7.981 -0.6744 -2.3565  0.5605
46602SOL     OW46920   4.665  11.574   3.683 -0.2324 -0.3181 -0.2325
46602SOL    HW146921   4.683  11.484   3.711  1.3532 -0.3582 -1.2324
46602SOL    HW246922   4.743  11.599   3.634 -0.7865  1.5099 -0.2346
46603SOL     OW46923   9.145   5.995   8.682  0.1464  0.1998  0.2788
46603SOL    HW146924   9.140   6.090   8.692  0.2910  0.4127 -1.3289
46603SOL    HW246925   9.078   5.960   8.740 -0.5488  1.3438  0.1895
46604SOL     OW46926  10.440  10.785   8.089  0.2385  0.0776 -0.1554
46604SOL    HW146927  10.439  10.691   8.107 -0.7347  0.4876  2.2233
46604SOL    HW246928  10.392  10.794   8.007 -1.2562 -1.3545  0.5063
46605SOL     OW46929   7.201   3.517   8.066 -0.5827 -0.6576  0.2872
46605SOL    HW146930   7.275   3.549   8.015 -0.0331  2.8063  2.8992
46605SOL    HW246931   7.124   3.556   8.024 -0.5841 -1.2722 -0.2957
46606SOL     OW46932   2.211   3.023  10.006  0.3067 -0.2470 -0.3357
46606SOL    HW146933   2.215   2.943  10.058  2.8535  1.7925  3.0622
46606SOL    HW246934   2.270   3.007   9.932  0.6102 -1.5665  0.1686
46607SOL     OW46935   0.586   8.323   2.990  0.6997 -0.6809 -0.3052
46607SOL    HW146936   0.575   8.413   3.021  1.6507 -0.8723  0.6207
46607SOL    HW246937   0.629   8.333   2.905  0.6385 -0.2642 -0.2921
46608SOL     OW46938   8.235  10.769   3.598 -0.6404  0.0571  0.2123
46608SOL    HW146939   8.146  10.738   3.581 -0.7908  1.6866 -2.5260
46608SOL    HW246940   8.288  10.689   3.605 -2.0849 -0.8987  0.6420
46609SOL     OW46941   0.540   5.334   3.024  0.0932  0.6425  0.0519
46609SOL    HW146942   0.621   5.295   3.058  1.3616  2.6694 -0.4838
46609SOL    HW246943   0.534   5.303   2.934 -3.0569 -4.4059  1.6281
46610SOL     OW46944   8.431   2.443   1.334  0.1368  0.3163  0.0017
46610SOL    HW146945   8.495   2.399   1.278  0.0348 -1.1091  0.9494
46610SOL    HW246946   8.360   2.380   1.343  0.6633 -0.0472  2.6384
46611SOL     OW46947   1.998   8.726   5.347  0.1628  0.2803  0.0675
46611SOL    HW146948   2.064   8.734   5.279  0.2527 -0.6695  0.0352
46611SOL    HW246949   2.040   8.674   5.415 -0.5871 -0.4380 -0.0052
46612SOL     OW46950   5.431   0.406   1.922  0.2804  0.0170 -0.1869
46612SOL    HW146951   5.491   0.474   1.953 -0.7597 -0.3293  2.8664
46612SOL    HW246952   5.425   0.344   1.994 -2.2646 -0.9623 -1.1291
46613SOL     OW46953   3.736   1.792   5.014  0.7854  0.1604 -0.4560
46613SOL    HW146954   3.709   1.839   4.935  1.2126 -0.3602 -0.9186
46613SOL    HW246955   3.688   1.710   5.012  0.6976  0.1983 -0.0990
46614SOL     OW46956   8.862   0.845   8.385 -0.0780 -0.3039 -0.1515
46614SOL    HW146957   8.773   0.876   8.364  0.5632  0.1296 -2.5388
46614SOL    HW246958   8.849   0.755   8.415 -1.3286 -0.1775 -0.2260
46615SOL     OW46959   5.166  12.826   8.950  0.9585 -0.3231  0.1481
46615SOL    HW146960   5.089  12.873   8.982  0.6714 -0.4558 -0.3333
46615SOL    HW246961   5.181  12.862   8.862  0.8005 -1.0514 -0.1835
46616SOL     OW46962   1.875   7.792   6.388 -0.1307  0.0815  0.4367
46616SOL    HW146963   1.858   7.835   6.471  1.8563  1.0076  0.4071
46616SOL    HW246964   1.945   7.729   6.407 -0.5667 -0.6438 -0.2694
46617SOL     OW46965   6.081   9.287  10.595 -0.0801  0.0042 -0.0086
46617SOL    HW146966   6.128   9.244  10.666 -0.2813  1.2947  0.9636
46617SOL    HW246967   5.990   9.290  10.625 -0.2198  0.2909 -0.4482
46618SOL     OW46968  12.600  11.956   8.519  0.1000 -0.2854 -0.1395
46618SOL    HW146969  12.573  12.003   8.441  0.9684  0.3431 -0.0804
46618SOL    HW246970  12.673  11.900   8.490 -0.3493 -0.9443 -0.0234
46619SOL     OW46971   5.362   5.953  10.449 -0.0061  0.3748 -0.3611
46619SOL    HW146972   5.314   6.023  10.404  0.1988  1.4274  0.9951
46619SOL    HW246973   5.316   5.942  10.532 -0.4841 -1.6623 -0.8475
46620SOL     OW46974  10.342   1.192   6.067  0.3592 -0.6417 -0.2897
46620SOL    HW146975  10.405   1.120   6.061  0.9976 -0.2289  1.0873
46620SOL    HW246976  10.337   1.213   6.160  0.0261  0.9545 -0.6249
46621SOL     OW46977   9.836   9.064   2.470  0.4870  0.0398 -0.4327
46621SOL    HW146978   9.805   9.009   2.398  0.4657 -0.6882  0.1163
46621SOL    HW246979   9.916   9.104   2.436  1.2160 -1.3360 -0.4236
46622SOL     OW46980   3.698  10.328   5.866 -0.0014 -0.1042 -0.5122
46622SOL    HW146981   3.732  10.353   5.780  0.3485 -0.8901 -0.6123
46622SOL    HW246982   3.637  10.257   5.848  0.1976 -0.3853 -0.0939
46623SOL     OW46983   9.419  12.887   3.696 -0.2373 -0.1764 -0.1456
46623SOL    HW146984   9.386  12.966   3.739 -0.5206  0.1449 -0.9376
46623SOL    HW246985   9.342  12.831   3.687 -0.0908 -0.4328  0.1550
46624SOL     OW46986   2.490   4.845   4.712  0.1953 -0.1963  0.2266
46624SOL    HW146987   2.514   4.900   4.637  2.0022 -0.9481  0.2023
46624SOL    HW246988   2.482   4.757   4.676 -1.3168 -0.2010  0.5163
46625SOL     OW46989  11.327   8.317  11.389 -0.2205  0.0474 -0.3034
46625SOL    HW146990  11.259   8.377  11.418 -1.5203 -0.4139 -2.2025
46625SOL    HW246991  11.304   8.234  11.430 -0.4803  0.0268 -0.4869
46626SOL     OW46992   8.005   2.819   5.984 -0.3323  0.2650 -0.1166
46626SOL    HW146993   7.939   2.796   5.918 -0.7795  0.6279  0.2039
46626SOL    HW246994   8.000   2.748   6.048 -0.6328  0.4481  0.0670
46627SOL     OW46995   8.022   5.265   9.038  0.0494  0.1727 -0.1270
46627SOL    HW146996   8.053   5.176   9.026  0.8464  0.2743  0.9908
46627SOL    HW246997   7.961   5.280   8.965 -0.8619 -1.6000  0.2377
46628SOL     OW46998   0.267   6.233   2.883 -0.0581  0.4346 -0.6049
46628SOL    HW146999   0.320   6.238   2.803 -0.2629 -0.5467 -0.8140
46628SOL    HW247000   0.251   6.324   2.906  0.9524  0.7512 -1.0519
46629SOL     OW47001  12.090  11.382  12.115 -0.1861  0.7024 -0.6798
46629SOL    HW147002  12.024  11.449  12.094  2.2558  3.1547 -1.0750
46629SOL    HW247003  12.114  11.345  12.030 -1.6302 -0.8825 -0.4490
46630SOL     OW47004   3.243   0.758   8.932  0.3449 -0.9669 -0.3329
46630SOL    HW147005   3.253   0.753   9.027 -0.7978 -1.8094 -0.2312
46630SOL    HW247006   3.254   0.851   8.911  1.7919 -0.9336  0.4524
46631SOL     OW47007   9.141   9.834   1.137 -0.2520 -0.6810 -0.2409
46631SOL    HW147008   9.203   9.769   1.170  1.0125  1.6464  2.4345
46631SOL    HW247009   9.080   9.849   1.209 -1.8926 -0.4872 -1.6117
46632SOL     OW47010   7.085   3.750   0.335 -0.0025 -0.7442 -0.2358
46632SOL    HW147011   7.034   3.693   0.277 -0.3639 -0.2574 -0.4020
46632SOL    HW247012   7.124   3.815   0.276 -1.0694  0.2799  0.1501
46633SOL     OW47013   0.896  10.599   1.606  0.3813  0.2407  0.3988
46633SOL    HW147014   0.875  10.638   1.691  0.2623 -0.4571  0.7010
46633SOL    HW247015   0.811  10.593   1.562  0.5202  1.1348 -0.0116
46634SOL     OW47016   9.996   8.045   2.297 -0.7376 -0.0728 -0.0296
46634SOL    HW147017   9.925   8.098   2.332  0.3524  1.2773  0.2183
46634SOL    HW247018  10.015   8.084   2.211  1.8949  1.8385  1.2630
46635SOL     OW47019  12.555   1.894   4.749 -0.6093  0.0283  0.3226
46635SOL    HW147020  12.500   1.892   4.670 -1.8383  0.4989  1.1275
46635SOL    HW247021  12.549   1.805   4.784 -1.3621  0.2135  0.7071
46636SOL     OW47022  11.563  11.310   6.671 -0.0864 -0.2486  0.2494
46636SOL    HW147023  11.542  11.266   6.589  1.3523  0.1339 -0.3556
46636SOL    HW247024  11.613  11.246   6.722 -0.3638 -0.2460  0.5293
46637SOL     OW47025   2.772  10.108   0.942 -0.1274 -0.0112  0.0709
46637SOL    HW147026   2.798  10.199   0.951  0.6114 -0.2296  0.2341
46637SOL    HW247027   2.757  10.078   1.032 -0.1153 -0.1211  0.0373
46638SOL     OW47028   0.208   6.155   1.405 -0.1449  0.4599  0.1135
46638SOL    HW147029   0.244   6.147   1.494  0.9455 -0.1741 -0.3601
46638SOL    HW247030   0.218   6.248   1.383 -0.3540  0.6066  0.6222
46639SOL     OW47031   5.308   8.357  10.162 -0.3580  0.2129 -0.2916
46639SOL    HW147032   5.234   8.403  10.122  0.5294  1.3731 -0.6633
46639SOL    HW247033   5.272   8.272  10.188 -2.1302  1.1824  0.6330
46640SOL     OW47034  10.633   4.043  11.872 -0.2969 -0.2930  0.7237
46640SOL    HW147035  10.684   4.118  11.839 -0.0081 -1.0683 -0.6647
46640SOL    HW247036  10.651   3.973  11.810 -2.1353 -0.9467  0.8685
46641SOL     OW47037   5.464   9.244   4.264  0.0180  0.0376  0.5964
46641SOL    HW147038   5.520   9.316   4.234 -1.0045  0.4707 -0.3894
46641SOL    HW247039   5.422   9.212   4.184 -2.0097  0.5195  1.3807
46642SOL     OW47040   1.842   8.404  10.406  0.2757 -0.5314 -0.0456
46642SOL    HW147041   1.830   8.389  10.500 -1.2140 -0.7648 -0.2492
46642SOL    HW247042   1.830   8.318  10.367 -0.2252 -0.2445 -0.5359
46643SOL     OW47043   5.096   8.754   0.547 -0.1770 -0.1871  0.0534
46643SOL    HW147044   5.105   8.661   0.569 -1.5784 -0.5869 -0.9798
46643SOL    HW247045   5.185   8.781   0.526  0.3556 -1.1254  0.9700
46644SOL     OW47046  12.011  12.549   7.418  0.3844  0.4699 -0.4693
46644SOL    HW147047  11.976  12.623   7.369  0.2339 -0.7828 -2.3385
46644SOL    HW247048  12.013  12.477   7.355  4.8309  0.0007 -0.1107
46645SOL     OW47049   3.971   7.177   5.364 -0.1499  0.6061 -0.0813
46645SOL    HW147050   4.002   7.089   5.343 -1.3496  0.1390  0.0317
46645SOL    HW247051   3.952   7.174   5.457 -0.3532  0.9358 -0.1110
46646SOL     OW47052   0.385   5.845   4.393 -0.2543 -0.0288  0.4473
46646SOL    HW147053   0.404   5.769   4.447  0.8368  0.7149  1.1592
46646SOL    HW247054   0.316   5.892   4.439 -0.7104 -0.4117  0.1650
46647SOL     OW47055   3.448  10.578  11.217 -0.4247 -0.2390  0.0041
46647SOL    HW147056   3.505  10.519  11.167 -0.1442  0.7969 -0.9462
46647SOL    HW247057   3.382  10.607  11.153 -2.2239 -1.5889  1.1276
46648SOL     OW47058   3.176   4.628   9.488 -0.8628 -0.2377 -0.8258
46648SOL    HW147059   3.155   4.534   9.492 -0.2089 -0.4072 -1.3205
46648SOL    HW247060   3.094   4.670   9.464 -1.4309 -0.5745  0.4325
46649SOL     OW47061   9.642  10.229   2.812  0.0030 -0.2464  0.2227
46649SOL    HW147062   9.590  10.200   2.737 -0.0309 -0.0626  0.1759
46649SOL    HW247063   9.637  10.324   2.809  1.0135 -0.1996 -0.2540
46650SOL     OW47064   3.797  11.733  12.907  0.7345  0.7584  0.1889
46650SOL    HW147065   3.863  11.687  12.958 -0.4962 -1.2507  0.0905
46650SOL    HW247066   3.748  11.784  12.971  0.4262 -0.2310  0.7707
46651SOL     OW47067   0.252   9.188   5.038 -0.0929 -0.4890  0.0332
46651SOL    HW147068   0.199   9.108   5.048 -1.4607  0.1583 -1.6707
46651SOL    HW247069   0.325   9.162   4.982 -1.7853 -0.0966 -2.5172
46652SOL     OW47070   5.446  12.729   5.917 -0.1215  0.3435 -0.2036
46652SOL    HW147071   5.493  12.811   5.929  1.8307 -0.7883  0.2900
46652SOL    HW247072   5.449  12.686   6.002  0.1636 -0.8701 -0.8033
46653SOL     OW47073   4.678   8.627   7.543 -0.1603 -0.1371 -0.0788
46653SOL    HW147074   4.646   8.583   7.464 -1.3571  1.0028 -0.2805
46653SOL    HW247075   4.617   8.600   7.612  1.2679 -1.6563  0.6533
46654SOL     OW47076   1.824   8.272   0.842  0.1652  0.3187 -0.4776
46654SOL    HW147077   1.853   8.204   0.780 -0.4836 -0.0484 -0.3829
46654SOL    HW247078   1.738   8.298   0.810  1.6153  3.3607 -2.3849
46655SOL     OW47079   5.663   0.093   6.028  0.5762 -0.3631  0.2558
46655SOL    HW147080   5.594   0.125   6.086 -0.2477 -0.7320 -0.4920
46655SOL    HW247081   5.698   0.172   5.987 -0.7382 -0.3088 -0.8096
46656SOL     OW47082   1.452   3.229   9.669 -0.6443 -0.2599  0.0501
46656SOL    HW147083   1.431   3.320   9.647 -0.3762 -0.2341 -0.0939
46656SOL    HW247084   1.424   3.220   9.760 -0.2352  0.1019  0.2181
46657SOL     OW47085   6.053   6.390   2.600  0.3486 -0.2036  0.5479
46657SOL    HW147086   5.967   6.384   2.643  1.2438 -0.7881  2.3183
46657SOL    HW247087   6.047   6.468   2.546 -2.1114 -1.4940 -1.2644
46658SOL     OW47088   0.986   9.931   5.951 -0.1601 -0.1013 -0.1003
46658SOL    HW147089   0.941   9.851   5.922 -0.9689 -0.0009  0.8137
46658SOL    HW247090   1.039   9.957   5.876 -1.1684 -0.5822 -1.0199
46659SOL     OW47091   3.876   5.839   9.754  0.4195  0.3267 -0.2219
46659SOL    HW147092   3.838   5.825   9.667  1.6170 -1.2747 -0.5328
46659SOL    HW247093   3.874   5.934   9.766 -0.7855  0.4936 -1.5166
46660SOL     OW47094   8.034   0.465   4.572 -0.1180  0.2984  0.3692
46660SOL    HW147095   8.064   0.409   4.500 -2.8668 -0.0806 -0.6075
46660SOL    HW247096   8.031   0.553   4.535  0.0383  0.3784  0.5449
46661SOL     OW47097   5.388   3.603   3.774 -0.0655  0.9265 -0.5126
46661SOL    HW147098   5.357   3.550   3.701  2.8443 -0.3762 -0.9644
46661SOL    HW247099   5.416   3.686   3.734  0.6434  0.5812 -0.7427
46662SOL     OW47100  11.686   5.840   5.661  0.0844  0.0974 -0.4883
46662SOL    HW147101  11.599   5.821   5.697  0.1175  1.0377  0.1537
46662SOL    HW247102  11.691   5.936   5.662  1.0772  0.0555 -0.6307
46663SOL     OW47103   2.988  10.042   2.441  0.0390  0.2842  0.3095
46663SOL    HW147104   2.990  10.125   2.489  1.0785 -0.1412  1.0438
46663SOL    HW247105   2.974   9.976   2.509  0.9611 -0.2825 -0.0312
46664SOL     OW47106   5.248   9.099   1.105 -0.3244  0.8889  0.1663
46664SOL    HW147107   5.340   9.114   1.082 -0.5771  2.3540  0.0089
46664SOL    HW247108   5.209   9.067   1.024 -0.2965  1.9393 -0.2867
46665SOL     OW47109  11.490  12.094   3.355  0.2458  0.8394  0.3472
46665SOL    HW147110  11.575  12.056   3.379 -0.0418  0.6453  1.0748
46665SOL    HW247111  11.459  12.039   3.283  1.0195  1.2941 -0.3611
46666SOL     OW47112  12.922  12.466   5.295 -0.3685 -0.4767  0.3185
46666SOL    HW147113  12.826  12.473   5.291 -0.3434  1.7146  1.7438
46666SOL    HW247114  12.940  12.440   5.385  0.3828 -0.4543  0.1811
46667SOL     OW47115  12.113  10.706  10.900  0.2831  0.3580  0.3114
46667SOL    HW147116  12.166  10.638  10.857  1.5650  1.5878 -0.1175
46667SOL    HW247117  12.060  10.743  10.829  0.5496  0.6805  0.2777
46668SOL     OW47118   1.283  12.113  10.190 -0.4809  0.2748 -0.6189
46668SOL    HW147119   1.265  12.067  10.108 -1.0288 -0.1635 -0.2575
46668SOL    HW247120   1.367  12.157  10.175 -0.8707  0.7049 -1.6326
46669SOL     OW47121   7.198  10.972   3.450  0.1017  0.3117  0.5560
46669SOL    HW147122   7.253  10.981   3.372 -1.2296  0.6349 -0.3609
46669SOL    HW247123   7.183  10.878   3.458  1.2772  0.1484  1.1941
46670SOL     OW47124  10.090   8.264   6.181 -0.0379  0.1153 -0.6004
46670SOL    HW147125  10.090   8.221   6.096 -1.0456 -0.0442 -0.5359
46670SOL    HW247126  10.154   8.216   6.233  1.2145  0.7344 -1.5030
46671SOL     OW47127   4.185   2.230   8.260  0.1842 -0.0765 -0.2380
46671SOL    HW147128   4.171   2.315   8.302  0.2178 -0.6710  1.0194
46671SOL    HW247129   4.170   2.247   8.167 -1.4176  0.9388  0.1707
46672SOL     OW47130   1.714   5.694   2.616 -0.0558  0.1948  0.6272
46672SOL    HW147131   1.800   5.715   2.581 -0.1768  2.1565  1.4064
46672SOL    HW247132   1.730   5.654   2.701  0.0920 -0.1050  0.4596
46673SOL     OW47133   1.725   4.000   3.451 -0.7204  0.5670  0.1097
46673SOL    HW147134   1.756   4.015   3.362 -0.5619 -1.8615 -0.2873
46673SOL    HW247135   1.653   4.062   3.462  1.2226  3.1252 -0.5413
46674SOL     OW47136  10.753  11.424   7.922  0.2091 -0.9547 -0.1641
46674SOL    HW147137  10.708  11.508   7.923 -0.0148 -1.0326  1.8236
46674SOL    HW247138  10.781  11.411   7.832 -1.2687  0.4317 -0.8479
46675SOL     OW47139  10.898   5.609   6.181 -0.1200  0.2266 -0.7012
46675SOL    HW147140  10.829   5.604   6.248  1.2860  0.5149  0.8489
46675SOL    HW247141  10.893   5.700   6.150 -0.4641  0.2380 -0.6214
46676SOL     OW47142   3.214   9.644   1.959  0.2833  0.2330 -0.0058
46676SOL    HW147143   3.204   9.660   1.865 -2.5927 -1.6042 -0.1302
46676SOL    HW247144   3.276   9.571   1.965  0.0433 -0.0123 -0.5104
46677SOL     OW47145   6.491  10.006  12.779 -0.1559  0.0509  0.0828
46677SOL    HW147146   6.485  10.097  12.807  0.2151  0.5453 -1.3374
46677SOL    HW247147   6.517  10.011  12.687 -0.6208 -1.4789 -0.1663
46678SOL     OW47148   7.488  12.969   1.755 -0.2587 -0.3245  0.2564
46678SOL    HW147149   7.560  13.030   1.769 -0.3082 -0.3479  0.6300
46678SOL    HW247150   7.435  12.976   1.835 -1.6731  1.0294 -0.7350
46679SOL     OW47151   3.469   3.838   2.558  0.4249  0.0887  0.3210
46679SOL    HW147152   3.421   3.755   2.556  1.1411 -0.3784  1.4420
46679SOL    HW247153   3.534   3.827   2.627  0.4321  1.6495  0.6135
46680SOL     OW47154   1.949  10.971   0.586  0.0023 -0.0443  0.8062
46680SOL    HW147155   1.936  10.931   0.672  0.7674 -0.4823  0.7326
46680SOL    HW247156   1.903  11.054   0.591 -1.4037 -0.8137  1.0503
46681SOL     OW47157   0.710   4.072   1.667  0.2214  0.1071  0.0321
46681SOL    HW147158   0.792   4.120   1.651  0.3329  0.7752  2.1838
46681SOL    HW247159   0.649   4.105   1.602  1.3659  0.3798 -0.9317
46682SOL     OW47160  11.382   8.752   1.106  0.5406  0.3816 -0.3665
46682SOL    HW147161  11.352   8.830   1.153 -0.9912  0.9244 -2.1029
46682SOL    HW247162  11.311   8.689   1.116 -0.0318  0.6586 -2.1746
46683SOL     OW47163   2.817   2.841   8.180 -0.2882  0.0530  0.6193
46683SOL    HW147164   2.867   2.845   8.098  1.0317  1.0655  1.4207
46683SOL    HW247165   2.880   2.809   8.245 -0.3169  2.2938  1.8692
46684SOL     OW47166   4.540   5.851  10.998 -0.2039  0.4249 -0.0279
46684SOL    HW147167   4.524   5.758  11.012  1.3250  0.0951 -0.2926
46684SOL    HW247168   4.461   5.894  11.029 -0.0554 -0.8041  2.2270
46685SOL     OW47169   6.902   7.460   1.192  0.1481  0.4973 -0.2394
46685SOL    HW147170   6.935   7.376   1.160 -1.9760 -0.3207 -0.3856
46685SOL    HW247171   6.880   7.445   1.283 -1.1266  0.6178 -0.5192
46686SOL     OW47172   6.333   0.628   3.813  0.0778  0.4193 -0.8062
46686SOL    HW147173   6.271   0.681   3.763 -0.6778 -1.1199 -1.5575
46686SOL    HW247174   6.352   0.681   3.891 -0.8927  1.6298 -1.3592
46687SOL     OW47175   2.462   0.628   4.389  0.1709  0.1474  0.1722
46687SOL    HW147176   2.423   0.682   4.320 -1.1997 -1.0372 -0.0540
46687SOL    HW247177   2.399   0.632   4.461 -1.0206 -2.6123 -0.5638
46688SOL     OW47178   0.483   2.965   5.483  0.6897 -0.2197 -0.2844
46688SOL    HW147179   0.442   2.980   5.568 -0.6384 -1.5377 -0.6434
46688SOL    HW247180   0.528   2.880   5.493  0.1022 -0.6312 -1.0243
46689SOL     OW47181   9.047   2.961  10.187 -0.3669 -0.6289  0.0435
46689SOL    HW147182   9.026   2.867  10.184  1.0685 -0.9542 -0.2629
46689SOL    HW247183   9.137   2.967  10.156 -1.1966  1.1083 -2.4192
46690SOL     OW47184   0.238   1.918   5.619  0.0691  0.2851  0.6691
46690SOL    HW147185   0.300   1.968   5.672  0.5993  1.5945 -1.1006
46690SOL    HW247186   0.154   1.928   5.664  0.5198  1.2528  1.3256
46691SOL     OW47187   6.245   2.061  10.169  0.0155  0.4844 -0.2129
46691SOL    HW147188   6.247   2.004  10.247 -1.5084 -0.6239 -0.9195
46691SOL    HW247189   6.197   2.010  10.104  0.1601  1.9022 -1.4795
46692SOL     OW47190  10.038  11.361   4.442  0.2287 -0.5374  0.2989
46692SOL    HW147191   9.984  11.361   4.521  1.6841 -2.1275  1.3933
46692SOL    HW247192  10.021  11.275   4.402 -0.0563  0.0245 -0.8253
46693SOL     OW47193   9.042   3.715   9.123  0.1518  0.0050  0.1474
46693SOL    HW147194   9.017   3.807   9.129 -2.2789 -0.5449 -0.6843
46693SOL    HW247195   9.106   3.704   9.194  0.5950  2.3147  0.2044
46694SOL     OW47196   1.201   9.203  10.230  0.4380 -0.0531  0.6977
46694SOL    HW147197   1.194   9.298  10.230  0.4777  0.0019 -1.5902
46694SOL    HW247198   1.111   9.172  10.238  0.2788  0.2163  0.0013
46695SOL     OW47199  11.823  12.702   5.694  0.1910  0.2824  0.1690
46695SOL    HW147200  11.880  12.713   5.770  0.5234 -0.5838  0.0548
46695SOL    HW247201  11.877  12.731   5.620  0.3839 -0.2670  0.0938
46696SOL     OW47202  10.752   5.713   3.599 -1.0753  0.7096 -0.0241
46696SOL    HW147203  10.811   5.709   3.675 -0.2790 -1.0990 -0.6764
46696SOL    HW247204  10.694   5.787   3.618  0.6057  1.8100  1.2237
46697SOL     OW47205   2.591   6.918   8.407 -0.1465 -0.0075  0.1361
46697SOL    HW147206   2.520   6.871   8.365 -0.1750  0.0948  0.0697
46697SOL    HW247207   2.669   6.867   8.387 -0.2102 -0.1585  0.2685
46698SOL     OW47208   4.938   4.316   6.287 -0.4468 -0.0849  0.1738
46698SOL    HW147209   4.940   4.394   6.232 -2.3560 -0.9336 -1.2520
46698SOL    HW247210   4.849   4.313   6.322  0.5573  0.0954  2.9143
46699SOL     OW47211  10.470   8.896   8.531  0.2047  0.0606  0.1693
46699SOL    HW147212  10.423   8.979   8.532  0.1360  0.0242  0.7812
46699SOL    HW247213  10.503   8.887   8.442 -0.4663  0.3590 -0.1144
46700SOL     OW47214   7.473   7.928   1.846  0.6994  0.3657  0.0997
46700SOL    HW147215   7.567   7.928   1.831  0.5281 -0.0892 -1.0914
46700SOL    HW247216   7.463   7.896   1.936  1.7800  3.2566  1.3417
46701SOL     OW47217   4.293  12.967   6.759 -0.0600  0.2573 -0.2622
46701SOL    HW147218   4.231  13.027   6.716 -0.2314  0.7439  0.6570
46701SOL    HW247219   4.321  13.013   6.838 -0.9251 -1.2469  0.9713
46702SOL     OW47220  10.220   6.262   1.656 -0.1521  0.5183  0.0207
46702SOL    HW147221  10.202   6.173   1.687  1.4468  0.4242  0.8123
46702SOL    HW247222  10.285   6.296   1.718  2.7794  0.5283 -2.7430
46703SOL     OW47223   6.475   8.911   0.133  0.3425 -0.6465  0.0133
46703SOL    HW147224   6.436   8.899   0.220 -1.9279 -0.1546 -0.8673
46703SOL    HW247225   6.453   8.830   0.086  0.8917 -0.6006 -0.3230
46704SOL     OW47226  10.834   8.348  12.310  0.3866 -0.2484 -0.6212
46704SOL    HW147227  10.859   8.405  12.383  0.1682 -1.8669  0.7683
46704SOL    HW247228  10.744   8.374  12.290  1.1489  1.6810 -1.8215
46705SOL     OW47229   5.322   6.404   8.939 -0.1763  0.3580  0.2470
46705SOL    HW147230   5.332   6.365   9.026  2.3260  2.6032  1.1185
46705SOL    HW247231   5.265   6.480   8.952 -4.3135 -2.1276 -1.2723
46706SOL     OW47232   6.556  11.374   3.827 -0.0911 -0.0918 -0.3519
46706SOL    HW147233   6.508  11.415   3.754  0.5748  1.8904  0.2642
46706SOL    HW247234   6.503  11.394   3.904 -0.1869 -1.1670 -0.1286
46707SOL     OW47235   5.962  10.774   8.842  0.4214 -0.3793 -0.4711
46707SOL    HW147236   5.880  10.726   8.849  0.5114 -0.6512 -1.1963
46707SOL    HW247237   5.943  10.845   8.780  0.7378 -0.4674 -0.6736
46708SOL     OW47238   6.878   9.561  12.348 -0.2440 -0.2693 -0.0346
46708SOL    HW147239   6.800   9.602  12.384 -0.3231 -0.8392  0.4629
46708SOL    HW247240   6.925   9.529  12.425  0.3011 -0.2502 -0.3535
46709SOL     OW47241   8.254  11.686   6.227 -0.0918  0.0561 -0.0562
46709SOL    HW147242   8.161  11.709   6.239  0.0650  1.7966 -1.6866
46709SOL    HW247243   8.288  11.678   6.316 -1.4741  0.9548  0.5957
46710SOL     OW47244   3.209   6.792   2.501 -0.1688  0.2372  0.1205
46710SOL    HW147245   3.225   6.720   2.441 -0.2622  1.7592 -1.8295
46710SOL    HW247246   3.114   6.806   2.498 -0.0080  1.2792 -0.5802
46711SOL     OW47247   9.013   9.293   1.175 -0.0431  0.6247 -0.3697
46711SOL    HW147248   8.979   9.264   1.090 -0.9595  1.8156 -0.4407
46711SOL    HW247249   8.968   9.376   1.191 -0.3632  0.1168  1.5967
46712SOL     OW47250   0.063  11.213   5.283 -0.4656  0.2011  0.2871
46712SOL    HW147251   0.063  11.257   5.368 -0.1950  0.3802  0.1930
46712SOL    HW247252  -0.024  11.231   5.247  0.0245  1.6243 -0.2503
46713SOL     OW47253   6.369   3.027   7.834  0.0312 -0.0108  0.1268
46713SOL    HW147254   6.356   3.108   7.785 -1.4886  0.5316  1.3739
46713SOL    HW247255   6.464   3.014   7.832  0.3274  1.8431 -0.0404
46714SOL     OW47256  11.168   7.485   9.193  0.2797 -0.2390  0.2311
46714SOL    HW147257  11.200   7.403   9.229 -0.5130 -1.4883 -1.7289
46714SOL    HW247258  11.243   7.520   9.144  0.3302 -0.2926  0.2695
46715SOL     OW47259   7.736   5.298   2.073  0.4390  0.3162 -0.3968
46715SOL    HW147260   7.706   5.332   1.989  0.4343 -0.6007 -0.7850
46715SOL    HW247261   7.829   5.279   2.059  1.3882  3.4631  0.8977
46716SOL     OW47262   1.392   1.568   5.698  0.1292 -0.4867 -0.6253
46716SOL    HW147263   1.418   1.567   5.606  2.6837  0.4895 -0.0121
46716SOL    HW247264   1.434   1.647   5.733  0.1703 -1.4454  1.6111
46717SOL     OW47265   5.804   6.984   3.298 -0.1479 -0.6694  0.5890
46717SOL    HW147266   5.866   6.940   3.240 -1.1874 -0.3895 -0.8073
46717SOL    HW247267   5.858   7.037   3.357  0.9511 -0.7328 -0.3332
46718SOL     OW47268   0.747   4.061   7.063  0.5252 -0.3175 -0.4543
46718SOL    HW147269   0.699   4.013   7.131  1.6973 -0.9321 -0.0391
46718SOL    HW247270   0.735   4.009   6.983  0.7411 -0.6278 -0.2867
46719SOL     OW47271   3.119  11.911   7.341  0.0848 -0.7720 -0.0162
46719SOL    HW147272   3.095  11.975   7.274 -2.0612 -0.9433  0.5071
46719SOL    HW247273   3.170  11.960   7.405  0.6894 -0.2203 -0.9007
46720SOL     OW47274  12.249   1.972   3.579 -0.8420  0.3896  0.3125
46720SOL    HW147275  12.205   1.887   3.571  2.6316 -1.5477 -0.2160
46720SOL    HW247276  12.183   2.030   3.617 -3.6553 -2.2847 -0.1403
46721SOL     OW47277   0.237   8.346   5.485  0.1976  0.4616  0.3210
46721SOL    HW147278   0.169   8.291   5.523 -0.3616  1.1753  0.3652
46721SOL    HW247279   0.285   8.287   5.426  0.8890 -0.5699  1.8660
46722SOL     OW47280   0.357  10.937   3.744 -0.3711 -0.3529  0.3813
46722SOL    HW147281   0.380  10.847   3.766  1.3834  0.2087  0.9806
46722SOL    HW247282   0.336  10.978   3.828  0.8568  0.3189  0.3817
46723SOL     OW47283   2.539   8.278   7.554 -0.1946 -0.7304 -0.0562
46723SOL    HW147284   2.472   8.267   7.621 -1.4147  0.7556 -0.9795
46723SOL    HW247285   2.494   8.261   7.472 -0.0987  2.3301 -0.8745
46724SOL     OW47286   4.994   0.767   0.727 -0.3693  0.3581  0.8686
46724SOL    HW147287   5.053   0.718   0.784  0.4742  0.0536 -0.2397
46724SOL    HW247288   4.919   0.788   0.783 -1.1044 -2.7381  1.2509
46725SOL     OW47289   2.072   6.822  11.866 -0.1761  0.2633 -0.9892
46725SOL    HW147290   2.059   6.889  11.799  0.7614  0.6447 -0.7972
46725SOL    HW247291   2.004   6.841  11.932 -2.9730 -1.7781 -3.0481
46726SOL     OW47292  11.239   2.896  11.673 -0.1465  0.7514 -0.8209
46726SOL    HW147293  11.215   2.989  11.674 -0.0974  0.7698  0.6445
46726SOL    HW247294  11.291   2.884  11.752 -0.0807 -0.5163 -1.0354
46727SOL     OW47295   5.092   2.888   8.530  0.2080  0.0205  0.4207
46727SOL    HW147296   5.128   2.972   8.502  1.5141 -0.0648  1.7633
46727SOL    HW247297   5.112   2.828   8.457  2.2396  0.1310  0.8339
46728SOL     OW47298   6.204   6.187  12.307 -0.0449 -0.5278 -0.0889
46728SOL    HW147299   6.296   6.172  12.283  0.0579 -1.3235  0.7273
46728SOL    HW247300   6.205   6.188  12.403 -0.7541  0.4227 -0.0870
46729SOL     OW47301   4.387   9.139  11.462 -0.3991 -0.3259 -0.0483
46729SOL    HW147302   4.395   9.045  11.448  1.5603  0.0288 -1.9462
46729SOL    HW247303   4.429   9.178  11.385  1.8861  2.0717  2.2021
46730SOL     OW47304   7.707  12.428  12.045 -0.3700 -0.1961  0.3724
46730SOL    HW147305   7.705  12.333  12.056 -1.0081 -0.1599  0.6637
46730SOL    HW247306   7.619  12.449  12.013 -0.3460  0.3365  0.6574
46731SOL     OW47307  12.446   7.229   8.965 -0.4861 -0.1186  0.3415
46731SOL    HW147308  12.456   7.324   8.961 -0.4099 -0.1449 -0.0827
46731SOL    HW247309  12.412   7.204   8.879 -0.0878 -0.5262  0.2983
46732SOL     OW47310   7.893   5.051   8.342 -0.1736 -0.3895 -0.1404
46732SOL    HW147311   7.944   5.082   8.268 -0.0125  0.3880  0.2906
46732SOL    HW247312   7.862   4.965   8.315  1.7380 -1.1063 -0.2532
46733SOL     OW47313  10.975   4.961   1.443  0.2280  0.2310 -0.1014
46733SOL    HW147314  10.948   4.871   1.459  0.2906  0.6727  3.2617
46733SOL    HW247315  10.898   5.014   1.465  0.1276  1.0469 -2.2031
46734SOL     OW47316   2.229   0.187   8.551  0.5855 -0.2588  0.1570
46734SOL    HW147317   2.168   0.206   8.480  0.8341 -3.2820 -1.0191
46734SOL    HW247318   2.174   0.179   8.629  0.0777  1.2461 -0.0085
46735SOL     OW47319  11.359   7.020  11.416  0.4522 -0.0552  0.1106
46735SOL    HW147320  11.409   7.089  11.373  1.1856  1.0914  2.6005
46735SOL    HW247321  11.423   6.949  11.428  0.2693 -0.3419 -0.5762
46736SOL     OW47322   0.986   9.186   3.700  0.6778 -0.1333  0.0193
46736SOL    HW147323   0.935   9.179   3.619  1.3992 -0.6140 -0.4103
46736SOL    HW247324   1.001   9.095   3.726  2.7636 -0.1027 -0.8137
46737SOL     OW47325   8.810   9.437   8.956  0.2970 -0.3369  0.1190
46737SOL    HW147326   8.774   9.499   9.019  0.2323  1.0061 -1.2018
46737SOL    HW247327   8.898   9.418   8.990  0.0266 -0.1608  0.9589
46738SOL     OW47328  10.313   3.996  10.960  0.1364 -0.4950 -0.0441
46738SOL    HW147329  10.259   3.917  10.961  0.2664 -0.6045 -0.8824
46738SOL    HW247330  10.336   4.008  10.867 -2.2108  2.1180 -0.4064
46739SOL     OW47331   8.547  10.750   0.533  0.0247  0.0401  0.2366
46739SOL    HW147332   8.590  10.740   0.618  0.1436 -2.3096 -0.0380
46739SOL    HW247333   8.598  10.694   0.474 -2.6705 -1.9877 -0.3542
46740SOL     OW47334   5.723   1.104  11.525  0.2487  0.5085 -0.0349
46740SOL    HW147335   5.796   1.069  11.474  0.4100  1.1398 -0.2437
46740SOL    HW247336   5.690   1.028  11.574  0.7892  0.1342 -0.2361
46741SOL     OW47337   5.939   2.077   8.728 -0.6030  0.0532  0.1354
46741SOL    HW147338   5.934   2.115   8.640 -0.7231 -2.1405 -0.8954
46741SOL    HW247339   6.023   2.031   8.729 -1.0390 -0.7625  0.7871
46742SOL     OW47340  11.285   2.411   8.565 -0.6791 -0.5686  0.6563
46742SOL    HW147341  11.240   2.487   8.604 -0.3012 -0.1849  0.3557
46742SOL    HW247342  11.220   2.371   8.508  0.2271  1.8247 -2.2794
46743SOL     OW47343   9.394   6.142   4.509 -0.1118 -0.4048 -0.1698
46743SOL    HW147344   9.335   6.162   4.436 -0.0577 -0.3686 -0.2031
46743SOL    HW247345   9.338   6.101   4.574 -0.5743  1.3623  0.6042
46744SOL     OW47346   9.412   1.238   1.363  0.0350  0.0083 -0.1826
46744SOL    HW147347   9.391   1.312   1.306  0.5073 -0.9567 -1.6816
46744SOL    HW247348   9.487   1.196   1.321  0.1563 -0.9696  0.9566
46745SOL     OW47349   3.779  12.310   9.313  0.8487  0.0311  0.3539
46745SOL    HW147350   3.791  12.394   9.269  1.7856  0.0792  0.6691
46745SOL    HW247351   3.867  12.287   9.344  1.2129 -2.4196 -2.1416
46746SOL     OW47352   3.854   3.476   2.838  0.0277  0.1893 -0.6412
46746SOL    HW147353   3.763   3.451   2.852  0.0808 -0.5990 -1.6354
46746SOL    HW247354   3.859   3.567   2.867 -1.0158  0.1716 -0.3786
46747SOL     OW47355   2.202   2.577   4.865  0.1042 -0.7247  0.1272
46747SOL    HW147356   2.203   2.590   4.770 -0.3936  0.4838  0.2654
46747SOL    HW247357   2.141   2.505   4.879  0.7469 -1.4166 -0.5055
46748SOL     OW47358   3.441   0.638  11.432  0.4355 -0.4745  0.4312
46748SOL    HW147359   3.411   0.567  11.489 -1.8677  0.5764  0.6271
46748SOL    HW247360   3.410   0.718  11.475 -0.3097  0.4200 -1.6650
46749SOL     OW47361   9.491   2.166  11.033 -0.1703  0.0317 -0.1621
46749SOL    HW147362   9.527   2.226  11.098 -1.3782 -0.5434  1.0685
46749SOL    HW247363   9.530   2.195  10.950  2.1524  0.1933  0.9039
46750SOL     OW47364   6.038  11.927   0.465 -0.4975  0.0930  0.2158
46750SOL    HW147365   6.007  12.003   0.415  0.4588  0.6859  0.4838
46750SOL    HW247366   6.065  11.864   0.398  1.2863  1.0906 -0.0932
46751SOL     OW47367  12.554  10.011  12.453 -0.0892  0.3574  0.2574
46751SOL    HW147368  12.581  10.072  12.522  2.5510  0.5738 -0.8308
46751SOL    HW247369  12.511   9.940  12.500 -0.6124  1.6630  1.8559
46752SOL     OW47370   0.207   7.518   2.912  0.3336 -0.1716  0.0163
46752SOL    HW147371   0.275   7.581   2.935  2.2409 -0.6575 -3.4644
46752SOL    HW247372   0.249   7.432   2.923  0.2768 -0.4893 -1.8177
46753SOL     OW47373   7.215   6.339   4.218 -0.6765  0.5318  0.2666
46753SOL    HW147374   7.307   6.356   4.200 -0.6434  0.1048  0.0277
46753SOL    HW247375   7.205   6.357   4.312 -0.3798  0.7040  0.2649
46754SOL     OW47376   8.472  12.718  10.608  0.2262 -0.8329  0.4346
46754SOL    HW147377   8.522  12.661  10.667 -0.1233 -1.0054  0.5640
46754SOL    HW247378   8.463  12.800  10.657  0.4237 -0.7826  0.3896
46755SOL     OW47379   6.665   6.326   0.461  0.0061  0.2268 -0.2920
46755SOL    HW147380   6.587   6.335   0.405  0.8074 -0.4438 -1.5649
46755SOL    HW247381   6.673   6.412   0.504  0.3761  1.4314 -2.6020
46756SOL     OW47382   6.387   5.925   9.173 -0.4093  0.4248 -0.1726
46756SOL    HW147383   6.349   5.838   9.185 -0.0790  0.4729  1.3972
46756SOL    HW247384   6.313   5.985   9.183 -0.7780  0.3417 -1.9698
46757SOL     OW47385   3.139   5.570  11.879  0.0814  0.0108 -0.3676
46757SOL    HW147386   3.082   5.528  11.814 -0.0213  0.0894 -0.3306
46757SOL    HW247387   3.085   5.575  11.958  0.1370  0.0950 -0.3350
46758SOL     OW47388   3.983   4.590   0.065 -0.2341 -0.2848 -0.0021
46758SOL    HW147389   4.043   4.526   0.104  1.0027 -0.2880 -1.8039
46758SOL    HW247390   3.966   4.653   0.135  2.1111 -0.1294  0.4993
46759SOL     OW47391   1.822   2.588   9.022 -0.2521  0.5528  0.2717
46759SOL    HW147392   1.801   2.610   8.931 -2.0933  0.5556  0.6675
46759SOL    HW247393   1.757   2.635   9.074  1.4081  1.3975  1.6868
46760SOL     OW47394   9.350   2.652  12.703 -0.1860 -0.8395 -0.3709
46760SOL    HW147395   9.376   2.636  12.794 -1.2392 -0.0944  0.0693
46760SOL    HW247396   9.428   2.690  12.663  0.6120 -2.0725 -0.0559
46761SOL     OW47397   9.495   8.496  10.609 -0.4386 -0.4967 -0.2367
46761SOL    HW147398   9.458   8.540  10.532 -0.5881 -0.8745 -0.3789
46761SOL    HW247399   9.439   8.420  10.623 -1.9479  0.8706  1.7499
46762SOL     OW47400   6.501   0.399   3.920  0.2887  0.0613  0.0251
46762SOL    HW147401   6.426   0.355   3.880  1.4700 -0.7862 -1.3556
46762SOL    HW247402   6.515   0.477   3.866  0.9972 -0.3098 -0.3367
46763SOL     OW47403   2.681  12.830  10.945  0.9059 -0.0814 -0.1886
46763SOL    HW147404   2.605  12.850  10.891 -0.8772 -0.0330  2.2061
46763SOL    HW247405   2.692  12.907  11.001  2.2047 -0.4494  0.0885
46764SOL     OW47406   6.681   0.180   9.836  0.1142 -0.1236  0.0748
46764SOL    HW147407   6.761   0.183   9.889  0.8073 -1.3906 -0.8484
46764SOL    HW247408   6.659   0.272   9.821  1.4714  0.2556  0.2589
46765SOL     OW47409   6.902   0.259   1.413 -0.9533 -0.1516  0.5467
46765SOL    HW147410   6.889   0.299   1.327  0.1011  0.1306  0.5024
46765SOL    HW247411   6.910   0.166   1.394 -0.3089 -0.0500  0.2777
46766SOL     OW47412   2.034   0.030  12.768 -0.4169  0.0396  0.5028
46766SOL    HW147413   2.098  -0.031  12.807 -0.6616 -0.1873  0.5546
46766SOL    HW247414   2.037   0.010  12.674 -0.5055 -0.0660  0.5209
46767SOL     OW47415   8.552   3.813   2.215  0.0053  0.4386  0.2426
46767SOL    HW147416   8.475   3.825   2.271 -0.8624  1.8234 -1.1564
46767SOL    HW247417   8.618   3.872   2.251 -1.0226  2.3974 -0.9541
46768SOL     OW47418   9.174   4.810   9.451 -0.2877 -0.2447  0.1073
46768SOL    HW147419   9.079   4.810   9.452 -0.3607  0.2250 -2.2347
46768SOL    HW247420   9.199   4.842   9.538 -2.2476 -0.3474  0.7386
46769SOL     OW47421   8.583   6.423   9.873  0.4627 -0.0728  0.6449
46769SOL    HW147422   8.669   6.383   9.883  0.7274 -0.3961 -2.1070
46769SOL    HW247423   8.523   6.359   9.912  0.9376 -3.2181 -3.0816
46770SOL     OW47424   2.562   7.923   7.630 -0.3679 -0.1812  0.3512
46770SOL    HW147425   2.474   7.907   7.596 -0.9529  0.7075  1.3663
46770SOL    HW247426   2.606   7.838   7.624 -0.6643 -0.2418 -1.8346
46771SOL     OW47427   4.358   0.070   8.722  0.5190  0.3914  0.1971
46771SOL    HW147428   4.325   0.158   8.741  0.8132  0.1671  1.8417
46771SOL    HW247429   4.298   0.037   8.655 -0.9162  1.0317  1.1185
46772SOL     OW47430   8.804   6.109   9.944  0.7400 -0.3840 -0.0514
46772SOL    HW147431   8.735   6.104  10.010  1.0061  0.8530  0.3430
46772SOL    HW247432   8.811   6.020   9.910 -2.2311 -0.2081 -1.3341
46773SOL     OW47433  11.812   8.793   0.350 -0.7881 -0.0098 -0.2523
46773SOL    HW147434  11.779   8.881   0.369 -2.1308 -0.8721  1.7016
46773SOL    HW247435  11.739   8.735   0.370  0.6216 -1.7198  0.1991
46774SOL     OW47436   3.144   3.146   1.940 -0.1097  0.5879  0.5488
46774SOL    HW147437   3.164   3.069   1.993  0.0074 -0.2791 -0.7095
46774SOL    HW247438   3.203   3.139   1.865 -2.1913  0.2532 -1.1187
46775SOL     OW47439  11.158   9.406   4.062 -0.1362  0.0911 -0.2611
46775SOL    HW147440  11.232   9.374   4.113 -0.4664  0.1296  0.2519
46775SOL    HW247441  11.187   9.492   4.031 -0.6900  1.0142  1.6214
46776SOL     OW47442   0.434  10.996   0.069 -0.1670  0.3738  0.2147
46776SOL    HW147443   0.489  10.928   0.109 -0.7139  0.2294  0.7365
46776SOL    HW247444   0.416  10.963  -0.019  0.6955  0.4903 -0.0070
46777SOL     OW47445  10.595   0.844   3.565  0.3469 -0.2520 -0.1594
46777SOL    HW147446  10.619   0.759   3.530  0.2287 -0.7310  0.8951
46777SOL    HW247447  10.516   0.868   3.517  1.0079 -0.2009 -1.2624
46778SOL     OW47448   8.226   5.713   7.765  0.3790  0.0741 -0.1406
46778SOL    HW147449   8.201   5.691   7.675 -0.9994 -1.2956  0.5176
46778SOL    HW247450   8.145   5.744   7.806  0.7986 -0.0643  0.8328
46779SOL     OW47451  11.918   6.978  10.266  0.2789 -0.0463 -0.9037
46779SOL    HW147452  11.845   7.020  10.311  1.0115  0.9303 -0.5964
46779SOL    HW247453  11.889   6.969  10.175 -0.6917 -0.8063 -0.5325
46780SOL     OW47454   6.360  12.346   1.305 -0.4245 -0.5747  0.5851
46780SOL    HW147455   6.367  12.338   1.400  1.9742 -1.9097  0.3850
46780SOL    HW247456   6.375  12.257   1.272 -0.6456 -0.0514 -1.0544
46781SOL     OW47457   0.572   6.902   6.656 -0.5052  0.1243 -0.0166
46781SOL    HW147458   0.502   6.842   6.681  1.4117 -2.4296 -0.3228
46781SOL    HW247459   0.562   6.912   6.561 -0.2078 -0.6513 -0.1413
46782SOL     OW47460   1.490  10.274   3.927  0.1691  0.0309  0.0994
46782SOL    HW147461   1.501  10.181   3.949 -2.0507 -0.2133  0.3736
46782SOL    HW247462   1.395  10.287   3.923  0.4086  2.4016  0.5309
46783SOL     OW47463   7.135   4.360   4.564 -0.4375 -0.2492  0.0350
46783SOL    HW147464   7.181   4.409   4.633  0.6123 -0.4599 -0.4881
46783SOL    HW247465   7.061   4.320   4.608  0.3785 -0.6122  1.1121
46784SOL     OW47466   1.467   7.903   6.147  0.1820  0.1400  0.1104
46784SOL    HW147467   1.560   7.925   6.154  0.3112 -0.0287 -0.9809
46784SOL    HW247468   1.466   7.811   6.122 -0.2977 -0.0081  0.6564
46785SOL     OW47469   2.098   3.373   4.243  0.4086 -0.6232  0.2390
46785SOL    HW147470   2.125   3.308   4.178  2.2302  0.5719 -0.2680
46785SOL    HW247471   2.155   3.448   4.227 -0.0342  0.2243  2.3328
46786SOL     OW47472   5.939   2.840   7.119  0.1929 -0.0339 -0.2124
46786SOL    HW147473   6.001   2.905   7.086  1.1911  0.3024  2.1500
46786SOL    HW247474   5.889   2.886   7.186 -0.7951 -1.0682 -0.2009
46787SOL     OW47475   3.418   4.505   5.637  0.1812 -0.1349 -0.4907
46787SOL    HW147476   3.428   4.564   5.562 -0.6662  0.0712 -0.4493
46787SOL    HW247477   3.399   4.420   5.598 -0.7906  0.0783 -0.5188
46788SOL     OW47478   8.382   3.356   8.056 -0.1007 -0.5527 -0.5897
46788SOL    HW147479   8.363   3.343   8.149  0.0572 -0.9386 -0.6100
46788SOL    HW247480   8.300   3.333   8.011 -0.0034 -0.9225 -0.5835
46789SOL     OW47481   0.054   7.874   1.267  0.1495 -0.2043 -0.0437
46789SOL    HW147482  -0.004   7.819   1.215 -1.4637  0.9330  0.4630
46789SOL    HW247483  -0.005   7.932   1.315  1.7077  0.7586  0.7928
46790SOL     OW47484   1.769   3.996   1.053 -0.0548  0.2466  0.3531
46790SOL    HW147485   1.814   4.078   1.036 -1.8030  1.1320 -0.2250
46790SOL    HW247486   1.702   4.019   1.118  0.5460 -1.1163  1.5137
46791SOL     OW47487  11.428  10.134   6.264  0.0739 -0.2966 -0.7525
46791SOL    HW147488  11.383  10.052   6.243  0.3942 -0.9981  1.1379
46791SOL    HW247489  11.448  10.127   6.357  0.7408  1.6417 -0.7137
46792SOL     OW47490   4.383   7.934  12.352  0.1767 -0.2323  0.1493
46792SOL    HW147491   4.305   7.983  12.324  0.3126  0.9841  1.7307
46792SOL    HW247492   4.371   7.847  12.315 -1.7955  0.0083  0.0960
46793SOL     OW47493  10.379   7.664   0.385  0.1424  0.3625 -0.0205
46793SOL    HW147494  10.333   7.738   0.425  0.0369  1.6431 -2.3145
46793SOL    HW247495  10.319   7.590   0.395 -0.6887  1.0858  0.4825
46794SOL     OW47496   7.474  11.707  11.987  0.1833  0.1315 -0.4246
46794SOL    HW147497   7.396  11.685  12.037  0.8013 -2.8505 -0.6124
46794SOL    HW247498   7.441  11.737  11.902 -0.7893 -0.9976 -0.4642
46795SOL     OW47499  10.025   4.193   7.765  0.6747 -0.4950  0.5570
46795SOL    HW147500  10.060   4.238   7.689 -0.2283 -1.5370 -0.5096
46795SOL    HW247501   9.941   4.157   7.736  0.9364 -2.0855  1.6110
46796SOL     OW47502  10.986   4.674   5.731 -0.3428 -0.1745 -0.7574
46796SOL    HW147503  11.016   4.584   5.748 -0.2911 -0.0463 -0.1504
46796SOL    HW247504  11.032   4.699   5.651  1.2387  0.0178  0.1604
46797SOL     OW47505  12.377   0.746  11.245 -0.3984  0.7209 -0.0341
46797SOL    HW147506  12.340   0.665  11.282  1.6379  0.1725  0.9197
46797SOL    HW247507  12.328   0.816  11.287 -0.3771  0.0243  1.1820
46798SOL     OW47508  11.988   2.057   0.619  0.4152 -0.0475  0.2216
46798SOL    HW147509  12.002   2.148   0.645 -0.7867  0.7751 -1.7408
46798SOL    HW247510  11.894   2.052   0.601  0.2776 -1.9802  1.2386
46799SOL     OW47511   3.071   4.729   2.926 -0.1780 -0.1992 -0.2980
46799SOL    HW147512   3.071   4.824   2.910  0.4574 -0.3083 -0.9773
46799SOL    HW247513   3.153   4.698   2.889 -0.0372 -0.9215  0.5748
46800SOL     OW47514   2.738   0.369   1.569  0.3182  0.0923  0.3447
46800SOL    HW147515   2.808   0.422   1.606  0.3258  0.1229  0.2865
46800SOL    HW247516   2.775   0.281   1.562 -0.0459 -0.1610  1.4529
46801SOL     OW47517  11.497   8.682   3.845  0.0864 -0.3251  0.1425
46801SOL    HW147518  11.464   8.603   3.889  1.1182 -1.5142 -1.1129
46801SOL    HW247519  11.590   8.684   3.868  0.3446 -0.2030 -0.8589
46802SOL     OW47520   0.842   4.564   4.154 -0.2089 -0.1766 -0.1850
46802SOL    HW147521   0.828   4.529   4.242  0.2085  0.4025  0.1189
46802SOL    HW247522   0.913   4.628   4.164 -0.7408  0.5298 -0.7744
46803SOL     OW47523  10.554   0.329  10.495  0.3441  0.6511  0.0802
46803SOL    HW147524  10.489   0.279  10.445  0.8277 -0.4052  0.4672
46803SOL    HW247525  10.527   0.420  10.485 -1.2596  0.2378  0.3225
46804SOL     OW47526   6.887   0.318   6.066  0.0376  0.3412 -0.1089
46804SOL    HW147527   6.815   0.301   6.126  1.0110 -0.7883  0.7787
46804SOL    HW247528   6.867   0.265   5.988  0.2420 -0.5160  0.4124
46805SOL     OW47529  11.144   9.825   8.662  0.1382 -0.2069  0.0119
46805SOL    HW147530  11.178   9.897   8.609  2.8740  0.1105  1.9245
46805SOL    HW247531  11.105   9.868   8.738 -2.4584 -0.6869 -0.9724
46806SOL     OW47532   8.215   3.357   9.690 -0.5629 -0.0747 -0.3776
46806SOL    HW147533   8.169   3.282   9.726 -0.4796  0.7030  1.4513
46806SOL    HW247534   8.295   3.321   9.652 -1.1920 -1.0543 -0.8032
46807SOL     OW47535  11.578   0.297   0.831 -0.1557  1.0222 -0.4636
46807SOL    HW147536  11.579   0.226   0.896 -1.2539  0.8301 -0.6309
46807SOL    HW247537  11.539   0.257   0.753  0.9822  1.3036 -1.1897
46808SOL     OW47538   9.856   1.176  12.446  0.3910  0.6963 -0.3895
46808SOL    HW147539   9.909   1.099  12.428 -1.0100 -0.5520  0.5683
46808SOL    HW247540   9.839   1.173  12.541 -0.8850  1.3735 -0.5697
46809SOL     OW47541   6.408   3.916   8.771  0.1441 -0.1369 -0.0971
46809SOL    HW147542   6.492   3.902   8.729 -0.0440 -1.3706 -0.1034
46809SOL    HW247543   6.414   3.867   8.854 -0.6424 -0.4671 -0.2181
46810SOL     OW47544  11.769   2.263  10.853 -0.3683  0.0280 -0.4444
46810SOL    HW147545  11.787   2.284  10.761 -0.5775  3.3233  0.1590
46810SOL    HW247546  11.764   2.347  10.897 -1.9735 -1.3535  2.3290
46811SOL     OW47547  12.969   3.353   0.050  0.0221  0.1538 -0.2932
46811SOL    HW147548  13.007   3.395   0.128  0.5096 -0.7966  0.0002
46811SOL    HW247549  12.960   3.424  -0.013 -1.0906  1.1141  0.8701
46812SOL     OW47550   2.490  12.284   8.855  0.1522  0.2430  0.1815
46812SOL    HW147551   2.416  12.345   8.852  0.0512  0.3072  2.2611
46812SOL    HW247552   2.459  12.207   8.808 -0.2615  1.2088 -1.1983
46813SOL     OW47553   7.192   2.947   8.073 -0.1328  0.4286 -0.0158
46813SOL    HW147554   7.213   3.008   8.144  0.0001  0.6575 -0.2513
46813SOL    HW247555   7.265   2.955   8.012 -0.1574  0.0952 -0.0913
46814SOL     OW47556   8.288   8.065   3.393  0.3461 -0.2844  0.4035
46814SOL    HW147557   8.260   7.977   3.369 -0.8420  0.2136 -0.1314
46814SOL    HW247558   8.336   8.053   3.475  0.6835 -1.4886  0.0541
46815SOL     OW47559   9.220   5.061   3.331 -0.2955  0.2184  0.1728
46815SOL    HW147560   9.141   5.066   3.384  0.3006  0.8786  1.0357
46815SOL    HW247561   9.246   4.969   3.336 -1.3171 -0.1282 -0.6098
46816SOL     OW47562   2.339   6.333   3.810  0.0386  0.2359 -0.2184
46816SOL    HW147563   2.360   6.304   3.722  1.4575 -1.4325  0.6175
46816SOL    HW247564   2.290   6.414   3.797  0.4673  0.1956 -2.5137
46817SOL     OW47565   7.291   9.072   0.187 -0.0039  0.2879 -0.3585
46817SOL    HW147566   7.340   8.991   0.172  0.8343  0.5165  1.0215
46817SOL    HW247567   7.200   9.048   0.167  0.1657 -1.1267  0.3998
46818SOL     OW47568   1.814   3.963   8.117 -0.0197 -0.3384  0.0069
46818SOL    HW147569   1.890   3.908   8.138 -0.6761 -1.5743 -0.7457
46818SOL    HW247570   1.745   3.900   8.094 -0.6985  0.8172 -1.2034
46819SOL     OW47571   0.671  11.519   0.247 -0.0299  0.0449 -0.0234
46819SOL    HW147572   0.678  11.556   0.335  0.1638  2.3761 -0.9302
46819SOL    HW247573   0.626  11.436   0.259 -1.5453  1.0792  2.0997
46820SOL     OW47574   3.134   1.344   9.838  0.4850 -0.2351  0.2618
46820SOL    HW147575   3.050   1.383   9.861 -0.0062 -1.0778 -0.0495
46820SOL    HW247576   3.171   1.316   9.923  0.8001  0.7874  0.4732
46821SOL     OW47577  12.116   0.974  12.646 -0.3644 -0.1974  0.2592
46821SOL    HW147578  12.096   1.065  12.666 -0.4717 -0.3143  0.6883
46821SOL    HW247579  12.113   0.929  12.731  1.4642 -0.2663  0.3303
46822SOL     OW47580   2.029   7.604   9.973 -0.0010 -0.2439  0.4847
46822SOL    HW147581   2.001   7.695   9.969  0.1706 -0.1528  1.2118
46822SOL    HW247582   1.957   7.558  10.016  1.7296  0.3872  4.5841
46823SOL     OW47583   1.819  12.538   3.810 -0.5191  0.2057  0.3957
46823SOL    HW147584   1.776  12.571   3.888  1.2933  1.8518  0.7743
46823SOL    HW247585   1.795  12.600   3.741 -0.0914  0.2018  0.2381
46824SOL     OW47586   2.965   8.610   6.878 -0.0327  0.2793 -0.5040
46824SOL    HW147587   3.016   8.689   6.897 -0.2551  0.5413 -0.9857
46824SOL    HW247588   2.882   8.642   6.844 -0.3641 -0.1555 -0.1147
46825SOL     OW47589  11.194   4.192  10.307 -0.3412 -0.0575 -0.4114
46825SOL    HW147590  11.165   4.239  10.385  0.4940  0.2493 -0.2835
46825SOL    HW247591  11.289   4.198  10.309 -0.3325  2.0927 -2.7369
46826SOL     OW47592   1.699   7.901   5.890 -0.4939 -0.0591  0.1311
46826SOL    HW147593   1.688   7.816   5.847  4.1124 -0.9850  0.2172
46826SOL    HW247594   1.730   7.880   5.978  1.0305  1.6087  0.0698
46827SOL     OW47595   1.279   5.350   8.246 -0.5341  0.1149 -0.2252
46827SOL    HW147596   1.279   5.393   8.331  1.3285 -1.4613  0.6401
46827SOL    HW247597   1.206   5.288   8.251 -0.7654  0.4017 -0.0020
46828SOL     OW47598   3.577   4.063  12.765  0.1225  0.2059  0.5247
46828SOL    HW147599   3.608   4.070  12.674  0.1234  2.1850  0.6334
46828SOL    HW247600   3.550   4.152  12.788  0.4698 -0.1757  2.6023
46829SOL     OW47601   4.336   7.704   2.982 -0.0329  0.3352 -0.1127
46829SOL    HW147602   4.346   7.705   3.077  0.3684 -0.3473 -0.1429
46829SOL    HW247603   4.410   7.754   2.949  0.2279 -0.0377 -0.0955
46830SOL     OW47604  11.443  12.812  12.704  0.3944  0.0800  0.4782
46830SOL    HW147605  11.500  12.833  12.778  1.2900 -0.7163  0.0364
46830SOL    HW247606  11.483  12.734  12.664 -0.7679 -0.2418 -0.1000
46831SOL     OW47607  11.912  10.367   5.638 -0.0569  0.4411 -0.1458
46831SOL    HW147608  11.836  10.309   5.648  0.0499  0.3526  0.1677
46831SOL    HW247609  11.894  10.416   5.558 -0.7317  0.8417  0.2396
46832SOL     OW47610   0.328   5.964   4.656 -0.3673  0.4787  0.1979
46832SOL    HW147611   0.250   6.018   4.641 -1.2968 -0.3853  1.7053
46832SOL    HW247612   0.394   6.027   4.687 -1.4350  0.7976  1.9343
46833SOL     OW47613  11.528   9.956   5.481  0.1661  0.3335 -1.0862
46833SOL    HW147614  11.485  10.020   5.537  0.2602  0.3777 -1.0640
46833SOL    HW247615  11.465   9.938   5.412 -0.3449 -0.4771 -0.4177
46834SOL     OW47616   1.920   9.691  12.756 -0.4218  0.6893  0.0234
46834SOL    HW147617   1.887   9.605  12.733  2.4902 -0.4785 -0.2697
46834SOL    HW247618   1.926   9.690  12.852 -0.3596  0.5310  0.0182
46835SOL     OW47619   1.828   3.481   5.087  0.1391 -0.1320 -0.5353
46835SOL    HW147620   1.912   3.455   5.124 -0.0734 -0.9532 -0.6068
46835SOL    HW247621   1.764   3.464   5.156 -0.3749 -2.4349 -1.4605
46836SOL     OW47622  10.098   9.292   3.536  0.1913  0.3182  0.3028
46836SOL    HW147623  10.168   9.231   3.511 -0.0330  0.5900 -1.0353
46836SOL    HW247624  10.030   9.279   3.470 -0.1342  1.5496  0.3736
46837SOL     OW47625  11.546   2.999   3.978 -0.0724  0.3945 -0.1363
46837SOL    HW147626  11.596   2.918   3.975 -2.3273 -1.0609 -0.2921
46837SOL    HW247627  11.485   2.987   4.050  0.5242  2.6127  0.8259
46838SOL     OW47628   5.972   3.064   6.871  0.0384 -0.4446  0.1274
46838SOL    HW147629   6.012   3.136   6.823 -0.2224 -1.1503 -1.1906
46838SOL    HW247630   5.919   3.106   6.939  0.8556  0.5544  0.1534
46839SOL     OW47631   7.339  10.652   6.529  0.1449 -0.3805 -0.7833
46839SOL    HW147632   7.413  10.647   6.589  0.7674  0.9039 -1.3895
46839SOL    HW247633   7.284  10.723   6.565  0.1212 -0.1391 -1.2882
46840SOL     OW47634   2.630   1.466  10.291  0.1115 -0.2325 -0.1389
46840SOL    HW147635   2.684   1.544  10.307 -0.3615 -0.1849  1.4363
46840SOL    HW247636   2.674   1.396  10.338  0.4125 -0.9015 -1.3678
46841SOL     OW47637  10.618   3.595   5.804  0.4362  0.1000  0.0556
46841SOL    HW147638  10.524   3.590   5.790  0.6813 -0.5629 -1.4971
46841SOL    HW247639  10.636   3.531   5.872 -0.2377  0.2994  0.4303
46842SOL     OW47640   8.679   2.608   7.544  0.5436 -0.3470 -0.6301
46842SOL    HW147641   8.602   2.552   7.550  1.2415 -1.1972  1.9814
46842SOL    HW247642   8.644   2.697   7.542 -0.5637 -0.7194  0.6446
46843SOL     OW47643   0.706   6.103   3.007  0.1993 -0.5700  0.6838
46843SOL    HW147644   0.695   6.164   2.934  2.9515 -0.2349  0.4630
46843SOL    HW247645   0.672   6.020   2.974 -0.4748  0.0505 -0.2257
46844SOL     OW47646   7.528  11.835   6.096  0.3265  0.0008 -0.1658
46844SOL    HW147647   7.454  11.884   6.133  0.6362  0.7365 -0.5122
46844SOL    HW247648   7.568  11.895   6.034  1.1144 -0.4567 -0.1105
46845SOL     OW47649   0.017   4.072   4.906 -0.2290  0.0676 -0.0741
46845SOL    HW147650  -0.076   4.053   4.914 -0.3012  0.2179 -0.5127
46845SOL    HW247651   0.037   4.054   4.814  0.4531 -1.1712  0.3041
46846SOL     OW47652   8.445   8.588   3.923 -0.0006 -0.2106 -0.3348
46846SOL    HW147653   8.402   8.502   3.926 -0.0935 -0.1337  1.9179
46846SOL    HW247654   8.391   8.644   3.977  0.6181  1.0320 -0.9715
46847SOL     OW47655   6.524  11.705   0.916  0.4507  0.0629 -0.7480
46847SOL    HW147656   6.575  11.715   0.836  0.9359  1.1833 -0.3240
46847SOL    HW247657   6.439  11.674   0.887  0.5389  0.6999 -1.7265
46848SOL     OW47658   5.837   8.197   2.469  0.1348 -0.0734 -0.1297
46848SOL    HW147659   5.764   8.145   2.502  0.1596 -0.7067 -1.0481
46848SOL    HW247660   5.910   8.135   2.461  0.9200  0.6402  1.1898
46849SOL     OW47661   2.906   0.901  10.266 -0.3333  0.1440 -0.0467
46849SOL    HW147662   2.827   0.929  10.219  0.2620  0.4033 -0.9336
46849SOL    HW247663   2.874   0.845  10.336 -1.3099  0.3037 -0.3455
46850SOL     OW47664   9.143   5.241   3.874  0.7947 -0.1174 -0.3009
46850SOL    HW147665   9.158   5.221   3.782 -1.4061  1.3990 -1.0625
46850SOL    HW247666   9.191   5.322   3.889  0.1562  0.2934 -0.4609
46851SOL     OW47667   3.942   0.965   5.447  0.5750 -0.3192  0.4077
46851SOL    HW147668   3.979   0.885   5.411  0.2922 -0.5241  0.5670
46851SOL    HW247669   3.924   1.020   5.371  2.3255  0.2935  0.3755
46852SOL     OW47670  10.959   7.769   4.949 -0.0291 -0.0693  0.4111
46852SOL    HW147671  11.038   7.762   5.003  0.4121  2.3110  0.2132
46852SOL    HW247672  10.892   7.800   5.010  0.4086  2.3899 -0.2510
46853SOL     OW47673  11.847  11.694   6.070  0.3551  0.6407  0.1717
46853SOL    HW147674  11.817  11.624   6.012  3.1004 -0.0471 -0.5870
46853SOL    HW247675  11.823  11.665   6.158 -0.8534  0.0398 -0.3386
46854SOL     OW47676   9.234   1.477   0.271  0.2079  0.3454  0.0234
46854SOL    HW147677   9.313   1.464   0.219  0.4224  0.5040  0.2987
46854SOL    HW247678   9.215   1.571   0.262  0.4660  0.4535  0.5245
46855SOL     OW47679  12.598   8.788   4.877  0.4684  0.5399  0.0389
46855SOL    HW147680  12.676   8.736   4.857  0.0824  0.3195 -0.9024
46855SOL    HW247681  12.612   8.870   4.830 -0.0126  0.3805 -0.3818
46856SOL     OW47682   9.186   4.500   8.570  0.1130 -0.2185  0.1245
46856SOL    HW147683   9.133   4.461   8.639  1.8920  0.2227  1.8239
46856SOL    HW247684   9.221   4.580   8.609 -0.9560  1.4983 -2.2242
46857SOL     OW47685   5.215   0.199   3.777 -0.4247 -0.4034  0.1178
46857SOL    HW147686   5.182   0.283   3.745  0.5053  0.2494  0.8018
46857SOL    HW247687   5.174   0.134   3.720 -0.2218  0.5834 -1.2206
46858SOL     OW47688   8.172  12.159   6.285  0.9100 -0.0632 -0.3999
46858SOL    HW147689   8.080  12.134   6.282  0.4574  1.0869  1.6491
46858SOL    HW247690   8.208  12.112   6.361  1.2891  1.5297  0.4556
46859SOL     OW47691  12.541   6.070   2.060  0.1092 -0.5343  0.1645
46859SOL    HW147692  12.549   6.108   2.147 -0.1640 -0.0357 -0.0241
46859SOL    HW247693  12.559   5.977   2.073  2.9326 -0.0609  0.2979
46860SOL     OW47694   0.275   1.743   6.589  0.4655 -0.1408 -0.3797
46860SOL    HW147695   0.238   1.664   6.549 -0.5807  0.2094 -0.1248
46860SOL    HW247696   0.200   1.798   6.609  0.9498 -0.2356  1.9573
46861SOL     OW47697   1.207   7.692  10.112 -0.2621 -0.1978 -0.1842
46861SOL    HW147698   1.142   7.732  10.053  0.3366 -0.1228 -0.8139
46861SOL    HW247699   1.289   7.736  10.089  0.0690 -0.5143  0.3864
46862SOL     OW47700   5.343  11.016   5.736 -0.0576  0.0497 -0.5527
46862SOL    HW147701   5.354  11.072   5.660 -0.1033 -0.2969 -0.8152
46862SOL    HW247702   5.271  10.958   5.713 -2.2729  2.0016  0.9688
46863SOL     OW47703   1.628   6.461   1.055  0.2337  0.2241 -0.3087
46863SOL    HW147704   1.635   6.514   0.976  0.1080  0.9652  0.1695
46863SOL    HW247705   1.601   6.523   1.123  1.7904 -0.0963  0.6532
46864SOL     OW47706  12.627   1.588  11.800 -0.3586  0.0363  0.7294
46864SOL    HW147707  12.618   1.674  11.759 -0.4250 -1.0913 -1.7964
46864SOL    HW247708  12.540   1.569  11.835 -0.2974  1.0304  1.4743
46865SOL     OW47709   9.120   0.593   8.462 -0.0723 -0.6657  0.3837
46865SOL    HW147710   9.087   0.524   8.520  0.2637  0.2461  1.7177
46865SOL    HW247711   9.207   0.614   8.497  0.9846 -1.4177 -1.6630
46866SOL     OW47712   4.761   1.341   1.439 -0.7461  0.6523 -0.7031
46866SOL    HW147713   4.715   1.425   1.444 -2.6473 -0.3872  0.5549
46866SOL    HW247714   4.704   1.286   1.384  1.7158  0.8264 -3.7511
46867SOL     OW47715   1.589   9.879   9.299  0.2040  0.1152  0.4216
46867SOL    HW147716   1.633   9.835   9.371  0.6164  0.4194  0.3560
46867SOL    HW247717   1.518   9.819   9.274 -0.7458  0.5645  1.9070
46868SOL     OW47718  11.263   2.055   0.615  0.9057  0.5005 -0.3125
46868SOL    HW147719  11.194   2.076   0.552  1.6235  0.5562 -1.1072
46868SOL    HW247720  11.221   1.998   0.679  0.0625  0.7455 -0.6369
46869SOL     OW47721   7.245   3.229   7.179  0.3252  0.2993  0.0750
46869SOL    HW147722   7.295   3.148   7.172 -0.0909  0.1068 -0.9125
46869SOL    HW247723   7.163   3.204   7.221 -1.5357 -0.7010 -3.6696
46870SOL     OW47724   1.152   2.341   4.371  0.1748 -0.4459 -0.1222
46870SOL    HW147725   1.136   2.399   4.446  3.7852 -1.0695  1.3071
46870SOL    HW247726   1.211   2.392   4.314  0.3797 -1.3395 -0.7229
46871SOL     OW47727   1.024   4.951  12.963 -0.4822 -0.1731 -0.1528
46871SOL    HW147728   1.065   5.037  12.967  0.0711 -0.3704 -1.3308
46871SOL    HW247729   0.990   4.944  12.874 -3.4820  0.1406  0.8441
46872SOL     OW47730   5.367   6.994   7.082 -0.3467  0.1614  0.6211
46872SOL    HW147731   5.425   7.048   7.135  0.9245  0.6000 -1.1494
46872SOL    HW247732   5.400   6.905   7.092  0.0362  0.2765  0.3907
46873SOL     OW47733   5.909   4.589   4.438 -0.3998  0.1475  0.0302
46873SOL    HW147734   5.972   4.572   4.508 -1.1756  0.2448  0.7783
46873SOL    HW247735   5.877   4.678   4.456  0.0979  0.5471 -1.0180
46874SOL     OW47736   9.872   7.777   7.299 -0.3163 -0.2912  0.2403
46874SOL    HW147737   9.826   7.696   7.320  0.1698 -1.0956 -1.5647
46874SOL    HW247738   9.806   7.832   7.258 -0.7883  0.4900  1.9942
46875SOL     OW47739   7.374   1.511   9.993 -0.6669 -0.5445  0.2942
46875SOL    HW147740   7.375   1.591   9.941  0.6615  0.0212  1.1343
46875SOL    HW247741   7.460   1.508  10.034  0.1958 -3.5538 -1.3932
46876SOL     OW47742   6.048  12.658   7.201 -0.1204 -0.7608 -0.3394
46876SOL    HW147743   6.041  12.658   7.297  0.8602 -0.8420 -0.2583
46876SOL    HW247744   6.128  12.708   7.183 -0.2843 -0.7737 -1.1146
46877SOL     OW47745   9.696   5.864   0.293  0.3599 -0.2142  0.4252
46877SOL    HW147746   9.699   5.959   0.297  0.4264 -0.2768  2.5244
46877SOL    HW247747   9.612   5.844   0.251  0.0774  0.7531  0.5203
46878SOL     OW47748   9.708   6.931  12.409  0.1622  0.0508  0.1915
46878SOL    HW147749   9.789   6.922  12.359  0.5826  0.8729  0.7112
46878SOL    HW247750   9.723   6.882  12.490  0.2663  0.4940  0.4393
46879SOL     OW47751   7.921   3.696   1.647  0.0542 -0.1300  0.0929
46879SOL    HW147752   7.916   3.606   1.681  3.0479 -0.7013 -0.6817
46879SOL    HW247753   7.967   3.745   1.715 -1.5649  0.8958  0.5136
46880SOL     OW47754   0.803  12.359   7.147  0.0827 -0.3732  0.0590
46880SOL    HW147755   0.805  12.278   7.198 -0.5282 -0.7798 -0.5352
46880SOL    HW247756   0.710  12.379   7.137  0.2307  1.5127  1.8752
46881SOL     OW47757   7.057   2.260   3.540  0.2263 -0.2980 -0.1411
46881SOL    HW147758   6.968   2.270   3.575  0.4837  0.2890  0.3760
46881SOL    HW247759   7.056   2.310   3.458 -0.0410 -0.6556 -0.3571
46882SOL     OW47760  11.035   1.568   2.444 -0.0311 -0.3760 -0.7677
46882SOL    HW147761  10.946   1.552   2.415 -0.1763  0.3306 -0.7321
46882SOL    HW247762  11.087   1.570   2.364 -0.1340 -0.2410 -0.8298
46883SOL     OW47763   7.099  10.176   5.763 -0.0609  0.1073  0.6458
46883SOL    HW147764   7.036  10.247   5.748  0.2218  0.1438 -0.4339
46883SOL    HW247765   7.181  10.209   5.727  0.2722 -0.4479  0.8880
46884SOL     OW47766  11.032   8.130   7.164 -0.2491  0.1564 -0.1163
46884SOL    HW147767  11.063   8.049   7.204 -0.6119  0.1233  0.1000
46884SOL    HW247768  10.965   8.101   7.102 -1.8687  0.4310  1.4279
46885SOL     OW47769   2.785   2.206   8.815 -0.1307  0.3758 -0.6821
46885SOL    HW147770   2.860   2.257   8.844 -0.6683  0.6577  0.2534
46885SOL    HW247771   2.709   2.252   8.851 -0.6804 -0.5362 -0.6454
46886SOL     OW47772   8.642   1.945   4.005 -0.5318  0.2422  0.0895
46886SOL    HW147773   8.711   1.908   3.950 -0.2270  0.8290  0.0666
46886SOL    HW247774   8.583   1.990   3.944 -1.6738 -1.3697 -0.0340
46887SOL     OW47775   8.214   3.040  10.693 -0.0498  0.4064 -0.1897
46887SOL    HW147776   8.222   3.136  10.686  0.6759  0.3451 -0.3296
46887SOL    HW247777   8.145   3.018  10.631  1.6816  0.5764 -2.3044
46888SOL     OW47778   5.586   2.357   8.598 -0.1154 -0.5780 -0.4509
46888SOL    HW147779   5.601   2.404   8.516 -0.2023 -2.1226 -1.3984
46888SOL    HW247780   5.492   2.339   8.598 -0.4897  1.1518  1.0025
46889SOL     OW47781  10.962   9.574   1.035 -0.5212  0.8801 -0.0310
46889SOL    HW147782  11.045   9.559   1.080 -0.8919  2.0554  1.1018
46889SOL    HW247783  10.957   9.669   1.025 -0.2149  0.7012 -3.1130
46890SOL     OW47784   9.697   9.253   3.660 -0.3128  0.4968  0.2594
46890SOL    HW147785   9.788   9.257   3.690 -0.0117 -3.0803  0.3034
46890SOL    HW247786   9.645   9.276   3.737  0.5819 -1.1587  1.4273
46891SOL     OW47787   5.214   9.686   0.590 -0.2061 -0.3144  0.5213
46891SOL    HW147788   5.236   9.681   0.497 -0.9191 -1.4716  0.3933
46891SOL    HW247789   5.220   9.779   0.611 -1.6212  0.1926 -1.0933
46892SOL     OW47790   2.771  12.184   2.363 -0.3118 -0.2580 -0.7128
46892SOL    HW147791   2.822  12.164   2.285 -1.1782 -2.0203 -0.8653
46892SOL    HW247792   2.735  12.272   2.346  0.8108  0.0606 -1.5602
46893SOL     OW47793   0.738  11.514   8.131 -0.6056 -0.0974  0.1711
46893SOL    HW147794   0.828  11.519   8.100 -0.9997 -0.8712 -1.2303
46893SOL    HW247795   0.716  11.603   8.159  0.2309  0.3453 -0.5540
46894SOL     OW47796   3.815   9.134   3.966 -0.0481  0.0929  0.0456
46894SOL    HW147797   3.889   9.111   4.022 -1.8700 -0.3216  2.4440
46894SOL    HW247798   3.837   9.221   3.933  1.3889  0.0977  0.8999
46895SOL     OW47799   1.751   3.299  11.740  0.1115 -0.1154 -0.3017
46895SOL    HW147800   1.837   3.338  11.754 -0.9386  2.3295 -0.1785
46895SOL    HW247801   1.761   3.208  11.768  2.5661  0.1636 -0.0549
46896SOL     OW47802  10.227   7.168   1.953  0.0955  0.0162  0.3991
46896SOL    HW147803  10.295   7.183   1.888 -0.7548  0.6242 -0.3708
46896SOL    HW247804  10.149   7.146   1.902 -1.0158  2.1008  1.0863
46897SOL     OW47805   4.531  10.968  11.585 -0.4980  0.6061  0.1354
46897SOL    HW147806   4.508  10.907  11.656 -0.8596  0.9465  0.3155
46897SOL    HW247807   4.468  11.040  11.594  0.9488  1.8034  0.9223
46898SOL     OW47808   8.189   6.104   9.178 -0.0311 -0.2220  0.7769
46898SOL    HW147809   8.103   6.142   9.159  0.2578 -0.2512 -0.7753
46898SOL    HW247810   8.249   6.179   9.179  0.5922 -0.5131 -2.5996
46899SOL     OW47811   5.272   6.656   7.553  0.1438 -0.5749  0.3580
46899SOL    HW147812   5.183   6.675   7.522 -0.2410  0.2103  1.8345
46899SOL    HW247813   5.282   6.561   7.540 -0.6902 -0.5767 -0.3703
46900SOL     OW47814   0.192   1.135   3.875 -0.3621 -0.0414 -0.0142
46900SOL    HW147815   0.235   1.058   3.837  0.1751  1.3223 -2.4406
46900SOL    HW247816   0.263   1.185   3.916 -0.4314 -0.0893  0.1625
46901SOL     OW47817   9.147   2.494   5.534  0.0146  0.4554  0.7900
46901SOL    HW147818   9.083   2.528   5.596 -0.7630  1.8588 -0.6896
46901SOL    HW247819   9.119   2.404   5.517 -0.0753  0.2403  2.0211
46902SOL     OW47820   2.849   2.530  10.055  0.1745 -0.7631 -0.0693
46902SOL    HW147821   2.808   2.525  10.141  1.7345 -0.4918  0.7193
46902SOL    HW247822   2.786   2.580  10.001 -1.2244 -1.7266  0.6298
46903SOL     OW47823   0.468   0.676   9.740  0.0901  0.1986 -0.0083
46903SOL    HW147824   0.453   0.744   9.675  0.5415  1.9802  1.6454
46903SOL    HW247825   0.399   0.689   9.805 -0.7196 -1.9250 -0.3673
46904SOL     OW47826   7.947   0.838  11.194 -0.4269  0.0319 -0.0641
46904SOL    HW147827   7.882   0.787  11.242 -0.6792  1.1094  0.7912
46904SOL    HW247828   7.911   0.927  11.194  1.3890  0.8105  1.1034
46905SOL     OW47829   9.709   5.116   2.175 -0.9491 -0.0524 -0.0988
46905SOL    HW147830   9.757   5.157   2.247 -0.3296 -0.9563  0.0215
46905SOL    HW247831   9.749   5.029   2.166 -1.2442 -0.0779 -1.3136
46906SOL     OW47832   4.337  10.090   2.171  0.1608  0.8342 -0.3367
46906SOL    HW147833   4.427  10.070   2.197  0.4907  1.7402 -0.7244
46906SOL    HW247834   4.340  10.096   2.075 -0.6400 -0.6062 -0.4722
46907SOL     OW47835  12.322   9.704  12.949  0.1255 -0.0040  0.7174
46907SOL    HW147836  12.240   9.681  12.907  0.3492  0.1810  0.1758
46907SOL    HW247837  12.383   9.634  12.925  0.1771 -0.0521  0.9776
46908SOL     OW47838  12.360   5.950   1.814  0.2608  0.3403 -0.5086
46908SOL    HW147839  12.421   5.992   1.875 -0.4761 -1.2124  1.4387
46908SOL    HW247840  12.407   5.874   1.781  1.0106  1.6886 -2.7641
46909SOL     OW47841   0.946   1.450   7.210 -0.4072  0.3852 -0.3915
46909SOL    HW147842   0.944   1.542   7.183 -0.6301  0.6400  0.4579
46909SOL    HW247843   0.854   1.429   7.230 -0.2597  0.1936  0.1041
46910SOL     OW47844  10.716   1.041   1.953  0.1513 -0.5394  0.6078
46910SOL    HW147845  10.643   0.983   1.933 -0.5991  0.7010 -0.3546
46910SOL    HW247846  10.699   1.071   2.042 -0.4233 -0.3745  0.4434
46911SOL     OW47847  12.427   8.899   7.193 -0.4537 -0.1513 -0.1008
46911SOL    HW147848  12.385   8.985   7.200 -1.1434 -0.4853 -0.0196
46911SOL    HW247849  12.367   8.840   7.240  0.8899 -0.3748  1.4232
46912SOL     OW47850   4.063   7.567  11.777 -0.5477  0.3453 -0.0577
46912SOL    HW147851   4.069   7.663  11.778 -2.2205  0.5314 -1.6917
46912SOL    HW247852   4.089   7.543  11.688 -0.8430 -0.6354  0.1154
46913SOL     OW47853   3.564   9.175  10.520  0.1274 -0.0181  0.1308
46913SOL    HW147854   3.543   9.211  10.606 -0.9712 -0.2943  0.0021
46913SOL    HW247855   3.577   9.252  10.464 -0.7975  0.1919  0.1824
46914SOL     OW47856  11.314   0.650   0.469  0.1646  0.1069 -0.4365
46914SOL    HW147857  11.264   0.687   0.542 -1.1509 -0.3489 -1.0585
46914SOL    HW247858  11.377   0.591   0.510  2.7888  3.3553  0.6261
46915SOL     OW47859   2.491   9.298   8.117 -0.2676  0.0033  0.4754
46915SOL    HW147860   2.430   9.335   8.053 -2.0382 -0.9734  1.5060
46915SOL    HW247861   2.552   9.369   8.136 -0.2376  0.6008 -1.5833
46916SOL     OW47862   3.798  10.464   4.186  0.0010 -0.1542 -0.1572
46916SOL    HW147863   3.785  10.407   4.110 -0.5868 -2.6890  1.7151
46916SOL    HW247864   3.878  10.431   4.227  1.2171  2.2103 -0.4598
46917SOL     OW47865   5.069  10.496   4.209  0.2670  0.2191  0.2151
46917SOL    HW147866   5.141  10.526   4.265 -0.7042 -0.5800  1.9764
46917SOL    HW247867   5.014  10.573   4.197  2.0789  1.2411 -2.3841
46918SOL     OW47868   9.060   1.533  10.827 -0.6989 -0.0607 -0.5479
46918SOL    HW147869   9.010   1.557  10.905 -1.2040 -1.1625 -0.5081
46918SOL    HW247870   9.072   1.615  10.780 -0.5422  0.5929  0.5956
46919SOL     OW47871   6.051   1.586   6.564 -0.1822  0.4835 -0.1057
46919SOL    HW147872   6.052   1.613   6.656  0.3814 -2.0585  0.7469
46919SOL    HW247873   6.144   1.581   6.540  0.0338 -3.4748  0.8538
46920SOL     OW47874   3.127   1.883  11.452 -0.2089 -0.5312  0.0991
46920SOL    HW147875   3.150   1.838  11.533  0.2837  0.3941  0.4823
46920SOL    HW247876   3.128   1.976  11.474  1.2852 -0.1686 -1.2822
46921SOL     OW47877  10.335   6.480   6.386 -0.1213  0.0134  0.2643
46921SOL    HW147878  10.279   6.420   6.436 -0.4290  1.3734  1.6537
46921SOL    HW247879  10.280   6.557   6.371  0.8848  0.7700  0.3222
46922SOL     OW47880   5.520  12.115   3.486  0.5384 -0.3971  0.2559
46922SOL    HW147881   5.522  12.115   3.390 -0.3901 -0.0625  0.2230
46922SOL    HW247882   5.548  12.027   3.511 -0.0149 -0.7515 -0.3536
46923SOL     OW47883   9.674   4.867   5.794 -0.0620  0.5147  0.0126
46923SOL    HW147884   9.700   4.922   5.868 -0.9830 -0.8739  1.4398
46923SOL    HW247885   9.655   4.928   5.723 -1.2573  2.0559  1.5898
46924SOL     OW47886   1.131   4.572  12.077  0.1188  0.1658 -0.2088
46924SOL    HW147887   1.147   4.662  12.046  0.7986 -0.1943 -0.9399
46924SOL    HW247888   1.172   4.517  12.011 -0.8816 -0.7141 -0.1227
46925SOL     OW47889   3.613   9.320   3.378 -0.0166  0.2689  0.0076
46925SOL    HW147890   3.659   9.314   3.294 -0.2779 -0.0422 -0.1133
46925SOL    HW247891   3.597   9.229   3.403  1.6723  0.2677  1.2858
46926SOL     OW47892   2.583   7.449  10.076 -0.3975  0.0358  0.3462
46926SOL    HW147893   2.543   7.427  10.160 -0.4158  1.4248  0.7133
46926SOL    HW247894   2.677   7.432  10.089 -0.6785 -2.2537 -0.2017
46927SOL     OW47895   3.650   6.236   3.367  0.4211 -0.2267  0.1087
46927SOL    HW147896   3.707   6.311   3.347 -1.5704  0.4454 -3.9708
46927SOL    HW247897   3.677   6.167   3.307  0.3687 -1.8670  1.8693
46928SOL     OW47898  11.420   9.174  12.793  0.3506 -0.7448  0.7092
46928SOL    HW147899  11.362   9.156  12.719 -2.5767  2.5454  1.9135
46928SOL    HW247900  11.399   9.106  12.857  0.8847 -1.9651 -0.3645
46929SOL     OW47901   2.067   5.838   9.947 -0.2341  0.2403 -0.2744
46929SOL    HW147902   2.027   5.781  10.013  0.6811 -0.4371 -0.2877
46929SOL    HW247903   2.033   5.925   9.968 -0.1252  0.0118  0.9724
46930SOL     OW47904   4.195   0.087   0.882  0.0696 -0.1530  0.4603
46930SOL    HW147905   4.105   0.116   0.891  0.0598 -0.1246  0.2729
46930SOL    HW247906   4.235   0.106   0.967 -0.1403 -0.3093  0.5931
46931SOL     OW47907   4.503   5.389   3.678 -0.5823 -0.0473 -0.1538
46931SOL    HW147908   4.529   5.392   3.586 -0.8432  2.0798 -0.2232
46931SOL    HW247909   4.584   5.372   3.726 -0.5915 -2.0783 -0.7796
46932SOL     OW47910   5.114  11.259   4.905 -0.1741 -0.0660  0.2990
46932SOL    HW147911   5.181  11.263   4.973 -0.4963  0.1000  0.6157
46932SOL    HW247912   5.073  11.346   4.907  0.8516  0.4977 -1.1998
46933SOL     OW47913   8.852   4.096   3.424  0.2124  0.0879 -0.3592
46933SOL    HW147914   8.848   4.143   3.341 -0.7638  0.0145 -0.3623
46933SOL    HW247915   8.775   4.039   3.424 -0.4762  0.9604  1.0980
46934SOL     OW47916   6.060   9.579   6.937 -0.0827  0.0765 -0.0301
46934SOL    HW147917   6.107   9.662   6.939  2.3134 -1.2094  1.5377
46934SOL    HW247918   6.129   9.512   6.934 -1.9070 -1.8966 -0.6994
46935SOL     OW47919   6.373  11.133   7.459 -0.0117  0.3510  0.3630
46935SOL    HW147920   6.349  11.130   7.367 -0.4366  2.5382  0.3484
46935SOL    HW247921   6.424  11.213   7.469 -2.1498  1.5794  2.4530
46936SOL     OW47922   2.979   7.317  11.799 -0.1989 -0.4233 -0.0509
46936SOL    HW147923   2.948   7.405  11.776 -2.2525 -1.2515 -0.6487
46936SOL    HW247924   2.957   7.263  11.723 -0.9685 -1.8798  1.1644
46937SOL     OW47925   2.929   6.602  10.341  0.1117 -0.1364  0.0874
46937SOL    HW147926   3.001   6.619  10.280  0.0334  1.1430  0.3192
46937SOL    HW247927   2.858   6.658  10.311  0.5459  1.6838  2.1321
46938SOL     OW47928  11.074   6.988   6.380  0.0907 -0.5343  0.1944
46938SOL    HW147929  11.062   6.919   6.315  1.6119  1.2806 -2.1991
46938SOL    HW247930  11.115   6.944   6.455  3.5014 -1.9521 -2.2463
46939SOL     OW47931   3.346   9.368   6.558  0.2111 -0.1494 -0.4804
46939SOL    HW147932   3.323   9.441   6.500 -1.4961  0.6156  1.0759
46939SOL    HW247933   3.297   9.294   6.523 -0.1168  0.0853 -0.5227
46940SOL     OW47934   4.563  10.825  10.010 -0.3826  0.8307 -0.1441
46940SOL    HW147935   4.511  10.806   9.932 -0.3820  0.5705 -0.0811
46940SOL    HW247936   4.654  10.811   9.983 -0.4365 -0.1143  0.1458
46941SOL     OW47937  10.298  12.201   9.074 -0.2374 -0.0059  0.3466
46941SOL    HW147938  10.202  12.202   9.074 -0.2822 -0.7547  2.1681
46941SOL    HW247939  10.323  12.267   9.138  0.4569 -0.3732  0.4690
46942SOL     OW47940   2.566  11.424   2.606 -0.1679  0.4406  0.2599
46942SOL    HW147941   2.524  11.378   2.678  0.4802 -2.3687 -0.9728
46942SOL    HW247942   2.508  11.409   2.531  2.0334 -2.1969 -1.1151
46943SOL     OW47943   4.160   6.768   8.257  0.4011 -0.5699  0.1228
46943SOL    HW147944   4.065   6.771   8.247  0.4745  1.2116 -0.2212
46943SOL    HW247945   4.185   6.686   8.214 -0.8171 -0.2551 -1.2842
46944SOL     OW47946   0.782  12.223  12.753  0.3620  0.5099  0.2274
46944SOL    HW147947   0.877  12.238  12.756  0.2249  1.8680 -0.9316
46944SOL    HW247948   0.752  12.242  12.842  0.9900  1.5940  0.2259
46945SOL     OW47949   0.988   4.747  11.484 -0.3014  0.4021  0.1657
46945SOL    HW147950   0.895   4.768  11.482 -0.7717 -1.5143 -1.8414
46945SOL    HW247951   1.017   4.755  11.393  1.4263  0.6195  0.6975
46946SOL     OW47952   5.234   6.497   3.271 -0.1602  0.2573 -0.1042
46946SOL    HW147953   5.324   6.464   3.270  0.1693  1.1376  0.1382
46946SOL    HW247954   5.186   6.437   3.214  1.0554  1.1347 -2.1704
46947SOL     OW47955   9.977  10.530  11.564 -0.4185  0.1201 -0.6663
46947SOL    HW147956   9.934  10.462  11.616  0.9177 -0.0929  0.2060
46947SOL    HW247957  10.033  10.482  11.503  1.0576  0.3834  0.4077
46948SOL     OW47958   1.888   0.854  11.148 -0.7897 -0.0903  0.7138
46948SOL    HW147959   1.808   0.811  11.179 -1.5755  0.2298 -0.7728
46948SOL    HW247960   1.859   0.939  11.117  0.1481  0.0637  0.2347
46949SOL     OW47961   6.582   7.143   0.079  0.4751  0.3646 -0.6579
46949SOL    HW147962   6.611   7.149   0.170 -0.0140 -2.0491 -0.2575
46949SOL    HW247963   6.545   7.229   0.059 -0.9217  0.4920  1.9981
46950SOL     OW47964   5.888   0.028   6.850  0.6183  0.3371 -0.3885
46950SOL    HW147965   5.855   0.028   6.939  0.9787 -1.0309 -0.2332
46950SOL    HW247966   5.826  -0.026   6.801 -0.0130  1.7147 -1.1585
46951SOL     OW47967   7.600   5.711  10.563 -0.3071  0.1362 -0.4839
46951SOL    HW147968   7.689   5.724  10.531 -0.4539  0.1837 -0.8860
46951SOL    HW247969   7.550   5.781  10.522 -0.3470  0.7153  0.5178
46952SOL     OW47970   1.499   4.106   9.643 -0.4967 -0.4862 -0.4861
46952SOL    HW147971   1.447   4.114   9.722 -0.5159 -0.2445 -0.5226
46952SOL    HW247972   1.444   4.054   9.583 -1.0839  0.5281 -0.8520
46953SOL     OW47973   7.293  10.233   4.119  0.6073 -0.6696  0.6370
46953SOL    HW147974   7.211  10.250   4.073  1.0258 -1.0959 -0.2800
46953SOL    HW247975   7.352  10.301   4.088  1.1371 -1.4462 -0.1088
46954SOL     OW47976   9.605   1.342  11.336  0.0046 -0.3502 -0.4409
46954SOL    HW147977   9.520   1.340  11.379  1.0878 -0.9277  1.7925
46954SOL    HW247978   9.641   1.254  11.350  1.4604  0.2483 -0.3053
46955SOL     OW47979   7.346   2.918   4.171  0.1542  0.1005 -0.1701
46955SOL    HW147980   7.369   2.925   4.079 -0.4925 -0.8576 -0.4195
46955SOL    HW247981   7.340   3.008   4.202  1.0764  0.4215 -0.8739
46956SOL     OW47982   6.128  12.435   0.292  0.3244 -0.1430  0.3817
46956SOL    HW147983   6.107  12.512   0.239  0.1362 -0.5770 -0.1790
46956SOL    HW247984   6.055  12.427   0.354 -0.4462 -0.7682 -0.5771
46957SOL     OW47985   1.926  11.673  12.031 -0.0883 -0.0468 -0.4196
46957SOL    HW147986   1.850  11.624  12.062  0.8183 -1.3104 -0.1408
46957SOL    HW247987   1.890  11.734  11.966 -1.3363 -0.6046 -0.2759
46958SOL     OW47988   2.946   8.901  11.205 -0.3889 -0.1891 -0.6255
46958SOL    HW147989   3.000   8.945  11.270 -1.3960  0.0754  0.0608
46958SOL    HW247990   2.892   8.970  11.167 -2.0020 -0.7647  0.4806
46959SOL     OW47991  11.352   8.930   0.521 -0.2244 -0.4831  0.0014
46959SOL    HW147992  11.342   8.900   0.431  1.3381 -1.8142  0.2134
46959SOL    HW247993  11.263   8.954   0.548 -0.6659  0.3268 -1.9846
46960SOL     OW47994   8.640   4.482   0.523 -0.2730 -0.4537  0.6543
46960SOL    HW147995   8.708   4.515   0.464 -1.0138  0.2513  0.1777
46960SOL    HW247996   8.645   4.539   0.600 -0.3542 -0.3722  0.5992
46961SOL     OW47997   9.892   8.750   2.863  0.4696  0.5287 -0.4369
46961SOL    HW147998   9.800   8.733   2.846  0.3701  1.2214 -0.6111
46961SOL    HW247999   9.917   8.817   2.800  1.2806 -0.1496 -0.8660
46962SOL     OW48000   9.794  11.468   9.367 -0.5256 -0.3203 -0.1851
46962SOL    HW148001   9.720  11.429   9.321 -0.0609  1.0753 -2.2398
46962SOL    HW248002   9.823  11.400   9.427 -1.7277 -1.9280 -1.3315
46963SOL     OW48003   3.449   3.988   2.120 -0.1258  0.1822  0.0461
46963SOL    HW148004   3.374   3.939   2.087  0.8780 -1.4425  0.0308
46963SOL    HW248005   3.434   3.994   2.215 -0.4551  0.2040 -0.0070
46964SOL     OW48006  12.150   0.065   9.965 -0.0761 -0.6811 -0.1927
46964SOL    HW148007  12.116  -0.025   9.964  1.4748 -1.2882 -0.8195
46964SOL    HW248008  12.088   0.112  10.021 -1.2951 -1.9715 -0.3695
46965SOL     OW48009   7.054   6.120   3.652 -0.2145 -0.5821 -0.1157
46965SOL    HW148010   7.071   6.135   3.745  1.0610  0.4320 -0.4833
46965SOL    HW248011   7.103   6.041   3.630  0.3866 -0.1998 -0.1630
46966SOL     OW48012   5.879   6.715   2.226 -0.1195 -0.6087  0.7172
46966SOL    HW148013   5.921   6.791   2.265 -0.3029 -0.5971  0.8901
46966SOL    HW248014   5.951   6.666   2.186 -0.2285  0.7607 -1.3075
46967SOL     OW48015   7.599   9.420   8.169 -0.2494  0.5886  0.3997
46967SOL    HW148016   7.602   9.501   8.120 -1.5841  1.2222  1.2863
46967SOL    HW248017   7.659   9.361   8.124 -2.4113  0.6319 -2.8672
46968SOL     OW48018  12.269   4.717   4.499  0.1047 -0.2487 -0.0235
46968SOL    HW148019  12.296   4.802   4.463 -1.2575  0.0103 -0.5019
46968SOL    HW248020  12.246   4.665   4.422  0.2309 -0.7984  0.3098
46969SOL     OW48021   5.356   0.686   9.355  0.0447  0.3377 -0.6382
46969SOL    HW148022   5.311   0.769   9.338 -0.3096  0.3491  0.2355
46969SOL    HW248023   5.321   0.659   9.441  1.5581  0.2325 -0.0357
46970SOL     OW48024   9.961   3.195   1.014  0.1687  0.0031  1.3902
46970SOL    HW148025   9.902   3.254   0.969  2.2377  0.9674 -0.2172
46970SOL    HW248026   9.971   3.232   1.101  0.5729  1.4226  0.7580
46971SOL     OW48027   1.233  12.373   1.279  0.1917  0.4071  0.9999
46971SOL    HW148028   1.181  12.398   1.202 -0.3994  1.3381  1.6789
46971SOL    HW248029   1.321  12.358   1.245 -0.1374  0.4821  0.0891
46972SOL     OW48030  11.636  12.147   6.668 -0.0516 -0.0042  0.2395
46972SOL    HW148031  11.542  12.160   6.649 -0.5374 -2.9644  0.0995
46972SOL    HW248032  11.677  12.142   6.582 -0.5228 -2.8050  0.0856
46973SOL     OW48033   7.269   2.193  10.994  0.2951  0.5730  0.3586
46973SOL    HW148034   7.353   2.237  11.006  2.0042 -1.7280 -2.1580
46973SOL    HW248035   7.256   2.191  10.899 -0.8066 -2.1871  0.4681
46974SOL     OW48036   4.639  11.091  11.366 -0.4559 -0.1829 -0.5605
46974SOL    HW148037   4.566  11.150  11.347  0.1935  0.7592 -0.1878
46974SOL    HW248038   4.613  11.045  11.446 -0.0924  1.1171  0.3358
46975SOL     OW48039   1.938   5.729   7.800  0.4806  0.0139 -0.3645
46975SOL    HW148040   1.963   5.753   7.710 -2.5160  1.2910 -1.0173
46975SOL    HW248041   1.899   5.642   7.791  1.1655 -0.3210 -0.0932
46976SOL     OW48042   0.384   2.117   7.393 -0.1264  0.3048 -0.4933
46976SOL    HW148043   0.335   2.100   7.473 -0.7145  1.5823 -0.5699
46976SOL    HW248044   0.400   2.211   7.394 -0.5090  0.4064 -2.0807
46977SOL     OW48045  12.544   5.093   3.454  0.3652 -0.2166 -0.1916
46977SOL    HW148046  12.472   5.147   3.486  0.2466 -0.1778 -0.5181
46977SOL    HW248047  12.618   5.116   3.510  0.3782  0.4647 -0.4740
46978SOL     OW48048   6.681   3.733   9.486 -0.9633  0.4085 -0.3991
46978SOL    HW148049   6.689   3.646   9.447  0.5678  0.9691 -1.4599
46978SOL    HW248050   6.587   3.746   9.499 -1.4774 -0.3293 -2.7862
46979SOL     OW48051  11.165  12.233   5.794 -0.6163  0.1113  0.1593
46979SOL    HW148052  11.236  12.172   5.814 -1.9135 -1.3591  0.4915
46979SOL    HW248053  11.141  12.213   5.704  0.8652  2.2220 -0.8019
46980SOL     OW48054  12.127   2.523   1.506 -0.4602  0.1180 -0.1779
46980SOL    HW148055  12.167   2.476   1.579  1.1182  2.8872  0.8577
46980SOL    HW248056  12.059   2.577   1.547  1.5915  3.0372 -0.3108
46981SOL     OW48057   1.483   5.137   3.940  0.2971 -0.1977 -0.3422
46981SOL    HW148058   1.485   5.152   3.845  1.7572 -0.5807 -0.3987
46981SOL    HW248059   1.572   5.157   3.969 -0.3039  0.5274  1.0609
46982SOL     OW48060  10.463   1.149  11.304  0.5804 -0.1437 -0.1125
46982SOL    HW148061  10.501   1.231  11.272  0.8504 -0.3465 -0.3139
46982SOL    HW248062  10.374   1.149  11.268  0.2922  0.4528  0.5727
46983SOL     OW48063   1.549  12.269   5.844  0.1098 -0.2081  0.5622
46983SOL    HW148064   1.632  12.295   5.805  0.1753  1.3708  1.6572
46983SOL    HW248065   1.537  12.329   5.918 -3.3814  1.5900 -1.2108
46984SOL     OW48066   1.210   2.464   0.899  0.2222 -0.0781  0.0162
46984SOL    HW148067   1.119   2.447   0.873  0.1225  0.9700 -0.3778
46984SOL    HW248068   1.263   2.410   0.841 -0.1535 -0.8437  0.3741
46985SOL     OW48069   9.631   8.122   4.875  0.6905  0.2447  0.5665
46985SOL    HW148070   9.673   8.123   4.789 -2.5027 -1.0729 -1.1953
46985SOL    HW248071   9.648   8.210   4.911  3.9582  0.1007 -0.3161
46986SOL     OW48072  11.311   2.242   3.744  0.5146  0.4262  0.1629
46986SOL    HW148073  11.225   2.256   3.785  0.2274 -0.1848 -0.2175
46986SOL    HW248074  11.356   2.182   3.803  0.6637  0.7078  0.3368
46987SOL     OW48075   6.096   5.015   0.296  0.0236  0.1645  0.0326
46987SOL    HW148076   6.122   5.031   0.205 -0.3769  0.1947 -0.0782
46987SOL    HW248077   6.156   4.947   0.326  0.2700  0.2768 -0.1992
46988SOL     OW48078   1.093   9.996   1.809  0.1472 -0.3859 -0.2799
46988SOL    HW148079   1.041   9.934   1.858 -0.7673 -1.3975 -2.3882
46988SOL    HW248080   1.184   9.970   1.825 -0.1737 -1.3982 -0.0441
46989SOL     OW48081   9.827  12.325   2.057  0.0946 -0.3131  0.0188
46989SOL    HW148082   9.831  12.232   2.035 -2.5745 -0.8163  1.2063
46989SOL    HW248083   9.736  12.351   2.038  0.2685  1.5723  1.4055
46990SOL     OW48084   9.944   4.169   0.263  0.4308 -0.3562  0.3618
46990SOL    HW148085   9.996   4.241   0.228 -1.0876 -0.2676 -1.9265
46990SOL    HW248086   9.960   4.171   0.357  3.6322  0.3347 -0.0832
46991SOL     OW48087   6.548   5.027  11.509 -0.4516  0.0125 -0.3935
46991SOL    HW148088   6.507   4.975  11.440 -2.1839  0.2311  0.4205
46991SOL    HW248089   6.636   5.047  11.475 -0.9988 -0.4672 -2.2118
46992SOL     OW48090  11.635   3.732   5.824 -0.4877  0.2322  0.5497
46992SOL    HW148091  11.662   3.809   5.873  1.5383  0.8639 -1.3716
46992SOL    HW248092  11.552   3.757   5.784 -0.7133  0.7571  1.3239
46993SOL     OW48093   9.293   8.011  10.380 -0.1435  0.1074 -0.0683
46993SOL    HW148094   9.203   8.044  10.374  0.4917  1.9362 -0.1929
46993SOL    HW248095   9.348   8.090  10.376  1.4880 -0.9966 -0.4012
46994SOL     OW48096   2.610  12.576  11.038 -0.2033  0.4064  0.3317
46994SOL    HW148097   2.650  12.655  11.001  0.8711 -0.5844 -0.7357
46994SOL    HW248098   2.677  12.539  11.095 -0.4887 -0.0232  0.3937
46995SOL     OW48099   4.745   8.236   4.362 -0.3988  0.1320 -0.1900
46995SOL    HW148100   4.703   8.309   4.407  0.6484 -0.3379  1.6255
46995SOL    HW248101   4.828   8.272   4.330 -1.5006  0.7092 -2.6634
46996SOL     OW48102   7.824   0.986   7.400 -0.8184 -0.3424 -0.5054
46996SOL    HW148103   7.752   1.019   7.454 -3.2880 -1.2245 -2.9761
46996SOL    HW248104   7.850   1.060   7.347 -0.4513 -0.2343 -0.1784
46997SOL     OW48105   1.330   3.885  12.471 -0.1781  0.2830  0.3653
46997SOL    HW148106   1.297   3.898  12.382 -0.1328  1.2912  0.4824
46997SOL    HW248107   1.425   3.878  12.460 -0.1082  1.1271  0.4020
46998SOL     OW48108   6.506   4.920   6.040 -0.0935  0.1604 -0.3591
46998SOL    HW148109   6.429   4.897   5.987  0.1861 -1.7996  0.0161
46998SOL    HW248110   6.515   5.015   6.028 -1.3731  0.1358 -1.9997
46999SOL     OW48111   3.802   4.161   2.759 -0.1920  1.0891 -0.2477
46999SOL    HW148112   3.828   4.069   2.747 -2.1921  0.3383  0.7848
46999SOL    HW248113   3.806   4.198   2.671  1.5081  0.2978 -0.5607
47000SOL     OW48114   0.672   9.715   8.666 -0.0635  1.1204  0.1269
47000SOL    HW148115   0.636   9.700   8.579  1.4693  0.7386 -0.4899
47000SOL    HW248116   0.642   9.640   8.717 -1.9333  1.9285  0.2886
47001SOL     OW48117   0.557   2.398   7.699  0.3121  0.2523  0.5285
47001SOL    HW148118   0.504   2.397   7.620  0.1009 -3.2567  0.5673
47001SOL    HW248119   0.646   2.412   7.668  0.1487 -0.3962 -0.2616
47002SOL     OW48120   8.422   4.425   3.990 -0.0757  0.0375 -0.4729
47002SOL    HW148121   8.386   4.510   4.015  2.9133  0.8148  1.8273
47002SOL    HW248122   8.374   4.362   4.044 -0.5898  0.5871 -0.2785
47003SOL     OW48123   6.475   1.753   9.757 -0.2263  0.0238  0.2760
47003SOL    HW148124   6.434   1.800   9.685 -2.3300 -2.1566 -0.0753
47003SOL    HW248125   6.415   1.764   9.830 -0.4604 -1.5531  0.3531
47004SOL     OW48126  10.725   3.894  10.591  0.0336  0.0712 -0.0091
47004SOL    HW148127  10.654   3.902  10.527 -1.5663 -2.9311  1.1685
47004SOL    HW248128  10.798   3.857  10.541 -0.2916  0.2484 -0.6255
47005SOL     OW48129   3.711   9.937   2.415  0.2042 -0.2833  0.1817
47005SOL    HW148130   3.702   9.894   2.330  0.6161 -0.6248  0.3083
47005SOL    HW248131   3.764  10.015   2.397  0.6635 -0.5840  0.1913
47006SOL     OW48132   9.097   4.747   3.128 -0.1816 -0.0070 -0.5658
47006SOL    HW148133   9.086   4.652   3.134  0.2680 -0.2198 -2.4605
47006SOL    HW248134   9.104   4.764   3.034 -0.8341  1.9819 -0.2896
47007SOL     OW48135   5.359   5.085  11.550 -0.4598 -0.2536 -0.0184
47007SOL    HW148136   5.415   5.159  11.574 -1.8213  0.3819  1.3637
47007SOL    HW248137   5.407   5.008  11.579 -0.1404  0.2566  0.8523
47008SOL     OW48138  10.042   3.986   7.952 -0.1357 -0.6998  0.0411
47008SOL    HW148139  10.098   3.938   7.890  0.3857  1.6827 -1.4915
47008SOL    HW248140  10.033   4.073   7.913 -0.0961  0.8468  3.1760
47009SOL     OW48141   2.246   2.487   3.355  0.6946  0.3560 -0.3547
47009SOL    HW148142   2.320   2.467   3.412 -0.6821  0.8056  1.6731
47009SOL    HW248143   2.207   2.402   3.335  0.4131  0.2791  0.4842
47010SOL     OW48144   5.087  10.322  12.646 -0.6471 -0.4927  0.1389
47010SOL    HW148145   5.110  10.310  12.738 -0.1343  1.1611  0.2675
47010SOL    HW248146   5.006  10.372  12.648 -0.4128 -0.0891 -0.3027
47011SOL     OW48147   8.601   9.575   9.318 -0.5334  0.7987  0.5120
47011SOL    HW148148   8.592   9.568   9.223  1.4174 -1.0943  0.3740
47011SOL    HW248149   8.618   9.668   9.334  1.0174  0.8869 -1.2666
47012SOL     OW48150   1.258   9.555   1.676 -0.2032  0.3821 -0.5374
47012SOL    HW148151   1.199   9.540   1.602  0.0533 -1.4303 -0.4260
47012SOL    HW248152   1.207   9.606   1.738 -0.9383  0.6141 -1.3184
47013SOL     OW48153  10.712  11.708   3.928 -0.1831 -0.3582  0.0086
47013SOL    HW148154  10.676  11.771   3.990  0.5682 -0.8913  1.0118
47013SOL    HW248155  10.764  11.761   3.867  0.6585 -0.0207  0.9941
47014SOL     OW48156   9.603   0.952   9.831  0.2337 -1.1135  0.0078
47014SOL    HW148157   9.585   0.965   9.738 -0.6732  1.2345  0.4253
47014SOL    HW248158   9.532   0.895   9.861 -1.3951  0.7058 -0.1711
47015SOL     OW48159   9.714  11.191  12.736  0.7253  0.1688  0.0528
47015SOL    HW148160   9.653  11.118  12.726  1.0274  0.0477 -1.0357
47015SOL    HW248161   9.800  11.154  12.715  1.1994  0.3273  1.6074
47016SOL     OW48162   3.733   7.232  11.291  0.3551  0.4267  0.3785
47016SOL    HW148163   3.660   7.239  11.229  0.0826 -1.0112  0.5183
47016SOL    HW248164   3.755   7.323  11.312 -1.8454  0.9010  0.8653
47017SOL     OW48165   4.879   5.429   9.440  0.8352 -0.1987 -0.1938
47017SOL    HW148166   4.852   5.446   9.349  3.1059  0.5971 -0.7780
47017SOL    HW248167   4.970   5.458   9.444  0.7122  0.0504  2.4386
47018SOL     OW48168   1.615   9.616   5.039  0.2404 -0.3589 -0.0691
47018SOL    HW148169   1.660   9.554   4.981  0.6246 -1.3423  1.2344
47018SOL    HW248170   1.666   9.614   5.120  0.1982  1.6104  0.0588
47019SOL     OW48171  10.068   6.893   4.698 -0.3063 -0.0110 -0.3493
47019SOL    HW148172  10.073   6.803   4.666 -2.1549 -0.4342  0.4415
47019SOL    HW248173  10.070   6.885   4.793 -1.8209  0.6323 -0.2325
47020SOL     OW48174  10.075   3.212   7.583 -0.0224 -0.3616  0.0948
47020SOL    HW148175   9.999   3.256   7.621 -0.3106 -0.0382 -0.8134
47020SOL    HW248176  10.143   3.279   7.582  0.8184 -1.0855  2.3627
47021SOL     OW48177   2.570   9.219   9.330  0.1933  0.7072  0.0496
47021SOL    HW148178   2.541   9.309   9.344 -1.7048 -0.0504  1.5060
47021SOL    HW248179   2.656   9.214   9.371 -0.5936  1.3657  1.8781
47022SOL     OW48180   9.739   0.649   4.102 -0.5186  0.0232  0.8510
47022SOL    HW148181   9.726   0.658   4.196 -2.2845 -1.0534  0.7666
47022SOL    HW248182   9.735   0.738   4.068 -1.0452  0.3217  1.6794
47023SOL     OW48183   1.218   8.717   7.747  0.8082 -0.3109 -0.5425
47023SOL    HW148184   1.161   8.640   7.741 -0.2298  0.2866  1.0434
47023SOL    HW248185   1.213   8.758   7.661 -0.2047 -0.9455 -0.8027
47024SOL     OW48186   0.852   3.968  12.421  0.0513  0.0192 -0.0592
47024SOL    HW148187   0.801   3.998  12.496  1.7739  1.7318  0.4958
47024SOL    HW248188   0.789   3.921  12.367 -1.4858 -0.3375  1.9031
47025SOL     OW48189   8.397   0.790   5.890 -0.2570 -0.8278 -0.6872
47025SOL    HW148190   8.410   0.866   5.833 -1.3059  0.6206  0.9351
47025SOL    HW248191   8.356   0.725   5.833 -0.3434  0.1972 -1.8390
47026SOL     OW48192   0.664   8.861   0.725 -0.4759 -0.4745  0.4580
47026SOL    HW148193   0.662   8.849   0.819 -1.0105  0.2089  0.5381
47026SOL    HW248194   0.621   8.783   0.689  1.7672 -1.9085  0.6350
47027SOL     OW48195   5.595   8.580   6.208 -0.9069  0.1790 -0.5457
47027SOL    HW148196   5.593   8.661   6.260  0.5080  0.1722 -0.4362
47027SOL    HW248197   5.584   8.510   6.273  1.9643  0.1119 -0.0108
47028SOL     OW48198   6.989   7.888   2.583 -0.0313  0.1444  0.2162
47028SOL    HW148199   6.962   7.978   2.599  0.6678  0.6393 -1.2488
47028SOL    HW248200   6.941   7.837   2.649 -1.6119  1.3921  0.0904
47029SOL     OW48201  11.167  11.123   9.781  0.0547 -0.5678  0.0627
47029SOL    HW148202  11.200  11.046   9.736  0.8882 -0.7699  0.9882
47029SOL    HW248203  11.083  11.096   9.817 -0.0557 -0.7692 -0.3395
47030SOL     OW48204   9.610   2.607   9.333 -0.1431 -0.5252  0.2908
47030SOL    HW148205   9.697   2.640   9.357 -0.3717 -0.4607  1.0456
47030SOL    HW248206   9.628   2.531   9.277  0.3915 -0.0712 -0.1587
47031SOL     OW48207   5.019   8.079   1.382 -0.1334 -0.5726  0.4757
47031SOL    HW148208   5.059   8.108   1.464 -1.2704  0.3955  0.7172
47031SOL    HW248209   5.023   8.156   1.325 -0.7571 -0.7480  0.1803
47032SOL     OW48210   7.959   7.225  11.820  0.2646 -0.4934 -0.2598
47032SOL    HW148211   7.938   7.299  11.763 -1.1379 -0.6212  0.0726
47032SOL    HW248212   7.897   7.157  11.795  1.1730 -1.3730 -0.1763
47033SOL     OW48213   1.671  10.840  11.930 -0.2208 -0.3733 -0.2116
47033SOL    HW148214   1.746  10.872  11.881  0.9320 -1.6566  0.6579
47033SOL    HW248215   1.630  10.918  11.966 -0.3407  0.4879 -2.0974
47034SOL     OW48216   2.912   6.297   7.459 -0.7921  0.4093 -0.8955
47034SOL    HW148217   2.822   6.320   7.436 -0.6738  1.1724 -0.6375
47034SOL    HW248218   2.965   6.335   7.389 -0.5979  0.9099 -0.4866
47035SOL     OW48219   8.863   7.518   9.002  0.0212 -0.1729  0.0015
47035SOL    HW148220   8.957   7.507   9.018  0.2582  1.1493 -0.3626
47035SOL    HW248221   8.822   7.451   9.057  1.1345 -0.2190  0.8288
47036SOL     OW48222   4.428   2.185   4.184  0.3886  0.4355  0.0027
47036SOL    HW148223   4.423   2.264   4.130 -1.0313  1.1529  1.1113
47036SOL    HW248224   4.391   2.116   4.129  0.9370  0.6829 -0.6976
47037SOL     OW48225   6.049   4.163   6.010  0.0385  0.2144  0.8784
47037SOL    HW148226   6.001   4.113   5.944 -0.3633 -1.5124  2.3768
47037SOL    HW248227   6.122   4.202   5.963 -0.7922 -0.1059 -0.7556
47038SOL     OW48228   6.452   1.701   1.397 -0.1150 -0.0567 -0.3555
47038SOL    HW148229   6.397   1.634   1.357 -1.0824 -0.1739  1.0713
47038SOL    HW248230   6.540   1.663   1.398 -0.2070 -0.3532 -1.5976
47039SOL     OW48231   3.476  10.229   7.592 -0.0920  0.2757  0.4189
47039SOL    HW148232   3.480  10.227   7.496 -1.6032 -1.1598  0.3343
47039SOL    HW248233   3.386  10.256   7.612  0.3590  1.0688  1.4563
47040SOL     OW48234   3.000  12.431   4.520  0.1866 -0.1434 -0.1816
47040SOL    HW148235   3.032  12.393   4.438 -0.7657 -1.4136  0.0144
47040SOL    HW248236   3.006  12.526   4.506  4.5151 -0.2155  0.0638
47041SOL     OW48237  11.539   9.789   7.869 -0.0475 -0.0485 -0.5591
47041SOL    HW148238  11.526   9.874   7.911  0.3638 -0.3188  0.1374
47041SOL    HW248239  11.612   9.801   7.810  0.1335  0.0396 -0.3195
47042SOL     OW48240   2.763   4.882   6.070  0.0103 -0.2886  0.2606
47042SOL    HW148241   2.778   4.810   6.008  0.4035  0.1598 -0.1754
47042SOL    HW248242   2.842   4.882   6.125 -0.3792 -0.7448  0.8245
47043SOL     OW48243  10.956   0.319   2.907 -0.3576  0.5146  0.8620
47043SOL    HW148244  10.887   0.266   2.947  0.4990 -0.8861  0.5499
47043SOL    HW248245  11.038   0.276   2.932  0.2572 -0.1273 -1.9053
47044SOL     OW48246   9.969   8.621  10.202 -0.3857 -0.4216  0.4484
47044SOL    HW148247  10.016   8.538  10.210  0.9099 -0.0999 -2.5092
47044SOL    HW248248   9.898   8.615  10.266  0.8999 -2.9026  1.7877
47045SOL     OW48249   9.865   7.845   4.662 -0.0328 -0.1936 -0.3078
47045SOL    HW148250   9.843   7.826   4.571  0.1836  1.7230 -0.8010
47045SOL    HW248251   9.839   7.937   4.674  2.1904  0.3433  0.8393
47046SOL     OW48252   5.546   4.182   7.148  0.3394  0.6716  0.2198
47046SOL    HW148253   5.471   4.124   7.133 -0.0757  1.1733  0.3399
47046SOL    HW248254   5.606   4.162   7.076  0.3238 -0.0976  0.4099
47047SOL     OW48255   9.017   0.297   1.693  0.0442  0.7833  0.1146
47047SOL    HW148256   8.946   0.315   1.755 -0.1367 -3.5909  1.5069
47047SOL    HW248257   9.003   0.207   1.665  3.7184  0.5070 -1.4729
47048SOL     OW48258  10.305   6.965   5.447 -0.4859 -0.4955  0.0724
47048SOL    HW148259  10.302   6.892   5.509 -1.0773 -1.3195 -0.8909
47048SOL    HW248260  10.214   6.978   5.420 -0.2612 -0.0360 -0.4831
47049SOL     OW48261   0.082   6.434   8.920 -0.1785 -0.4941 -0.2808
47049SOL    HW148262   0.108   6.525   8.933  1.3566 -0.0644 -4.6874
47049SOL    HW248263  -0.014   6.438   8.916 -0.5090  0.0179  3.7462
47050SOL     OW48264   5.576   7.255  11.988 -0.8825 -0.1253  0.0848
47050SOL    HW148265   5.643   7.305  11.943 -0.9342  0.4185  0.6011
47050SOL    HW248266   5.619   7.173  12.013 -0.4078  0.2315  0.4295
47051SOL     OW48267   2.275   8.300  11.670  0.2002  0.3518  0.1006
47051SOL    HW148268   2.306   8.238  11.737 -0.9902  0.2891  0.6235
47051SOL    HW248269   2.334   8.375  11.678  0.6636 -0.0482  0.5611
47052SOL     OW48270   6.788   1.712   4.509 -0.2566 -0.2639  0.0709
47052SOL    HW148271   6.873   1.755   4.504 -0.6962  0.5844 -0.3579
47052SOL    HW248272   6.725   1.784   4.517 -0.8663 -0.9121  1.4984
47053SOL     OW48273  11.999   3.981   4.548  0.2245 -0.4040 -0.6067
47053SOL    HW148274  11.914   3.954   4.511  0.2522 -2.5839  0.7923
47053SOL    HW248275  12.005   4.074   4.526 -2.0217 -0.4415 -1.7075
47054SOL     OW48276   4.354   7.758   5.376  0.0450  0.5383 -0.5828
47054SOL    HW148277   4.279   7.817   5.385 -0.2297  0.0381  0.5240
47054SOL    HW248278   4.325   7.691   5.314 -0.5494  0.1745  0.0746
47055SOL     OW48279  11.875   0.269   8.798 -0.3943  0.3305  0.3191
47055SOL    HW148280  11.880   0.301   8.708 -2.0604 -1.3599 -0.4254
47055SOL    HW248281  11.923   0.335   8.849  1.6004  0.7477 -1.9047
47056SOL     OW48282   4.707   5.897   4.698  0.3721 -0.1892  0.1221
47056SOL    HW148283   4.678   5.956   4.628 -1.0492 -0.8566  0.1220
47056SOL    HW248284   4.784   5.941   4.736  1.6826 -0.1671 -2.3375
47057SOL     OW48285   2.983   0.603  12.902 -0.5859  0.8539  0.1556
47057SOL    HW148286   2.978   0.612  12.997  1.3589 -0.3933  0.4349
47057SOL    HW248287   3.056   0.660  12.877  0.0856 -0.2063 -0.3352
47058SOL     OW48288   1.489  10.282   9.718  0.1211  0.3026  0.0211
47058SOL    HW148289   1.418  10.300   9.780 -1.3889  1.6339 -1.9384
47058SOL    HW248290   1.549  10.356   9.727 -0.6418  1.0410 -0.7786
47059SOL     OW48291   5.904   0.810   0.516  0.2781  0.4572 -0.4457
47059SOL    HW148292   5.835   0.875   0.502  0.7680  0.8335 -1.1476
47059SOL    HW248293   5.876   0.762   0.594 -0.6379  0.7883 -0.5582
47060SOL     OW48294   4.700   0.251   8.384  0.3134  0.8216  0.2563
47060SOL    HW148295   4.731   0.275   8.471  1.4985 -0.7319  0.3021
47060SOL    HW248296   4.766   0.286   8.324  0.0061  1.0521  0.0475
47061SOL     OW48297   1.882   2.068   4.036 -0.3312  0.3412  0.1856
47061SOL    HW148298   1.806   2.073   4.095 -0.2319  1.4863  0.2424
47061SOL    HW248299   1.947   2.126   4.076 -0.7168  2.1783 -1.6883
47062SOL     OW48300  11.406   1.459   7.283  0.1130  0.2527  0.2061
47062SOL    HW148301  11.355   1.424   7.357  0.5778 -0.6751  0.1033
47062SOL    HW248302  11.340   1.497   7.225 -0.2890  0.6745  0.9298
47063SOL     OW48303   3.908   2.437   4.909 -0.1788  0.0600  0.1360
47063SOL    HW148304   3.937   2.383   4.982  0.7853 -1.9254 -1.5996
47063SOL    HW248305   3.966   2.514   4.911  0.1088 -0.1777  1.2001
47064SOL     OW48306   9.682   0.415  11.467 -0.3985 -0.2096  0.5265
47064SOL    HW148307   9.630   0.494  11.452 -0.6633 -0.4773 -0.0175
47064SOL    HW248308   9.674   0.366  11.385 -1.1172 -1.3088  1.2301
47065SOL     OW48309   1.670   0.152   6.932  0.2934 -0.0863  0.2224
47065SOL    HW148310   1.596   0.097   6.957 -1.6713  1.0164 -2.7727
47065SOL    HW248311   1.660   0.232   6.984 -2.0978  1.0163 -1.7375
47066SOL     OW48312   6.927   2.759   7.153 -0.5460 -0.5241  0.1719
47066SOL    HW148313   6.958   2.699   7.220 -0.3045 -2.6418 -1.7097
47066SOL    HW248314   6.999   2.820   7.140  0.0235 -1.0625  0.7534
47067SOL     OW48315   9.460   2.762   8.983 -0.6042 -0.1495  0.4041
47067SOL    HW148316   9.461   2.764   8.887 -0.0070  0.3481  0.4204
47067SOL    HW248317   9.410   2.682   9.004 -2.5855  0.8306 -0.3020
47068SOL     OW48318   7.633   1.348   1.175  0.2494  0.3677 -0.3083
47068SOL    HW148319   7.681   1.393   1.106 -2.6790  2.4518 -1.1707
47068SOL    HW248320   7.632   1.410   1.248  0.3848 -0.4140  0.3762
47069SOL     OW48321  12.688   9.441  11.289  0.5273 -0.5108 -0.4177
47069SOL    HW148322  12.679   9.497  11.367 -0.0183 -0.5309 -0.4580
47069SOL    HW248323  12.598   9.413  11.270  0.9178 -2.4944  0.3932
47070SOL     OW48324   2.950   9.761   0.331  0.4799  0.3070 -0.5458
47070SOL    HW148325   2.994   9.816   0.266  1.0078  1.1909  0.5212
47070SOL    HW248326   2.863   9.801   0.340 -0.9576 -1.9088 -3.2394
47071SOL     OW48327   8.070   4.913   5.529 -0.0997  0.1226  0.2347
47071SOL    HW148328   8.047   5.004   5.512 -1.8544 -0.4842 -0.9932
47071SOL    HW248329   8.042   4.898   5.619  0.9314  0.9874  0.7135
47072SOL     OW48330  10.761   0.259   8.277  0.6691 -0.9164 -0.4954
47072SOL    HW148331  10.835   0.271   8.338  0.9185  1.3457 -1.1729
47072SOL    HW248332  10.685   0.245   8.334  1.1654 -0.5042  0.2855
47073SOL     OW48333  11.714   0.644  12.192  0.2506 -0.3296 -0.1387
47073SOL    HW148334  11.806   0.663  12.209  0.7391 -1.8009 -0.9598
47073SOL    HW248335  11.709   0.631  12.097 -1.0624  0.9831 -0.2789
47074SOL     OW48336   9.599  11.640   8.761 -0.1146 -0.0731 -0.1977
47074SOL    HW148337   9.564  11.553   8.778  1.4019 -0.6514  0.1814
47074SOL    HW248338   9.612  11.643   8.667  1.8595 -1.1364 -0.0171
47075SOL     OW48339   2.282   7.723   3.232  0.3944  0.3812  0.5612
47075SOL    HW148340   2.328   7.791   3.183 -0.7752  1.3898  0.8317
47075SOL    HW248341   2.317   7.729   3.321  1.1893 -0.2202  0.2981
47076SOL     OW48342   2.496  12.523  12.790 -0.0711 -0.2078 -0.9811
47076SOL    HW148343   2.494  12.613  12.823 -1.7539 -1.0219  1.3556
47076SOL    HW248344   2.584  12.492  12.813 -0.3291  0.0788  0.4946
47077SOL     OW48345   1.191   5.075  11.628  0.0772  0.2746  0.0686
47077SOL    HW148346   1.118   5.044  11.681  0.8304 -0.2126  0.8370
47077SOL    HW248347   1.152   5.091  11.541 -1.2419  1.3933  0.8106
47078SOL     OW48348  12.390   8.770   2.022  0.3941 -0.5320  0.2485
47078SOL    HW148349  12.387   8.809   2.109  0.1341  0.0537 -0.0184
47078SOL    HW248350  12.323   8.817   1.972  0.0929 -1.2935 -0.0935
47079SOL     OW48351  12.948   4.541  11.409  0.8991  0.9765 -0.3832
47079SOL    HW148352  12.891   4.517  11.483 -0.2360 -1.5896 -1.9342
47079SOL    HW248353  12.925   4.631  11.389 -1.4073  0.5639  0.1529
47080SOL     OW48354  12.139  11.901   5.622 -0.6994 -0.2508 -0.8920
47080SOL    HW148355  12.136  11.869   5.712  1.9481  0.2600 -0.5306
47080SOL    HW248356  12.154  11.823   5.569 -0.3646 -0.3454 -0.6636
47081SOL     OW48357   6.772   1.421   9.215 -0.5754  0.7739  0.3794
47081SOL    HW148358   6.690   1.433   9.263 -1.4786  1.3321 -1.2146
47081SOL    HW248359   6.825   1.497   9.238 -0.9073  0.9232  0.6617
47082SOL     OW48360   6.755   3.876   5.499 -0.7715 -0.0872 -0.0692
47082SOL    HW148361   6.716   3.919   5.575 -0.0004  2.7272 -1.1197
47082SOL    HW248362   6.846   3.864   5.522 -0.1662  2.1570 -0.9383
47083SOL     OW48363   3.069   0.740   4.506 -0.5582  0.0747  0.4587
47083SOL    HW148364   2.982   0.734   4.466 -1.0030 -3.5200  1.6419
47083SOL    HW248365   3.058   0.706   4.594  1.7008  1.5423  1.4041
47084SOL     OW48366   0.259   3.153   7.458 -0.1913  0.3683  0.2572
47084SOL    HW148367   0.276   3.162   7.552  0.5704 -2.1199  0.4197
47084SOL    HW248368   0.329   3.204   7.417  0.2027  0.4721  1.0231
47085SOL     OW48369   2.476   5.447   4.318 -0.0706  0.2441 -0.7189
47085SOL    HW148370   2.388   5.411   4.333  0.1099  0.3406  0.6929
47085SOL    HW248371   2.489   5.508   4.390  0.1955  2.1154 -2.2773
47086SOL     OW48372   2.741   4.853   0.187  0.6337 -0.2535  0.2950
47086SOL    HW148373   2.817   4.904   0.215  0.5434 -0.0155  0.1087
47086SOL    HW248374   2.700   4.906   0.119 -1.5845  1.1802  2.6051
47087SOL     OW48375  11.219   7.018   3.682  0.0163  0.5707  0.4031
47087SOL    HW148376  11.130   6.985   3.665  0.2755 -0.3868  0.8401
47087SOL    HW248377  11.209   7.113   3.684 -0.8688  0.5015 -0.2834
47088SOL     OW48378   7.402   6.667   3.674  0.1631 -0.2101 -0.6883
47088SOL    HW148379   7.310   6.655   3.652  0.4503  0.8755 -2.6527
47088SOL    HW248380   7.436   6.726   3.607  1.8436  0.9830  1.1009
47089SOL     OW48381   0.674   7.550  10.465  0.1265 -0.0290 -0.3703
47089SOL    HW148382   0.580   7.529  10.470  0.2517 -0.4863  0.1644
47089SOL    HW248383   0.685   7.621  10.529 -0.0615  0.8372 -1.2708
47090SOL     OW48384   9.742   0.906  10.334  0.2217  0.1998 -0.4935
47090SOL    HW148385   9.787   0.883  10.252  0.6044 -1.1868  0.0692
47090SOL    HW248386   9.779   0.990  10.359 -0.2308  0.8609 -1.9703
47091SOL     OW48387  12.929   8.050   6.606  0.1310 -0.2116 -0.5288
47091SOL    HW148388  12.906   8.108   6.679 -0.1074 -0.6047 -0.2869
47091SOL    HW248389  12.960   7.970   6.649 -0.2439 -0.5337 -0.8592
47092SOL     OW48390   2.735   2.246   9.715  0.4006  0.2103  0.1222
47092SOL    HW148391   2.822   2.208   9.712 -0.2949 -1.3874 -0.6793
47092SOL    HW248392   2.688   2.195   9.781 -0.8019 -0.9764 -1.5615
47093SOL     OW48393   0.244  10.723   9.598  0.4174 -0.0627 -0.1578
47093SOL    HW148394   0.225  10.796   9.657 -0.4165 -0.5975  0.2439
47093SOL    HW248395   0.325  10.749   9.554  0.1511  1.0934 -0.0012
47094SOL     OW48396   7.793   3.952  10.895 -0.2009 -0.4886 -0.0749
47094SOL    HW148397   7.771   3.875  10.843 -1.4128 -0.7133  0.7320
47094SOL    HW248398   7.869   3.926  10.947  0.2939 -0.6413 -0.8638
47095SOL     OW48399   6.582   9.750   5.427  0.1366  0.0328  0.0128
47095SOL    HW148400   6.608   9.765   5.518  0.9215 -0.7500 -0.0593
47095SOL    HW248401   6.661   9.714   5.386 -1.2436 -3.3161 -0.0258
47096SOL     OW48402   9.923   7.058  11.763  0.4101  0.0818 -0.1978
47096SOL    HW148403   9.964   6.982  11.723 -0.7012 -0.9372  0.5370
47096SOL    HW248404   9.847   7.023  11.809  1.2246  1.2651  2.2286
47097SOL     OW48405   4.667  11.825   4.236 -0.2947  0.2049 -0.8128
47097SOL    HW148406   4.657  11.779   4.152  1.0805  1.1153 -1.5181
47097SOL    HW248407   4.762  11.832   4.248 -0.3861 -1.4230  1.7045
47098SOL     OW48408   1.329   2.331   1.223  0.3180  0.7787  0.4907
47098SOL    HW148409   1.270   2.395   1.185  0.9905  1.3759  0.4394
47098SOL    HW248410   1.315   2.251   1.171  0.8626  1.4349 -0.6940
47099SOL     OW48411   4.392  12.676   5.845  0.6077  0.5986  0.0128
47099SOL    HW148412   4.483  12.650   5.832  0.8829  1.2263  0.6116
47099SOL    HW248413   4.341  12.611   5.797  1.3778  0.3350 -0.4597
47100SOL     OW48414  10.435   2.078  11.633  0.7279 -0.8838  0.2140
47100SOL    HW148415  10.371   2.122  11.689 -0.5174  1.4025 -2.7010
47100SOL    HW248416  10.418   1.985  11.645 -0.9692 -0.4131  1.9432
47101SOL     OW48417   6.220   8.138   0.141 -0.0787  0.4229 -0.7091
47101SOL    HW148418   6.291   8.195   0.169  0.3393  0.2868 -1.4820
47101SOL    HW248419   6.175   8.115   0.222  0.9533  0.2427 -0.1658
47102SOL     OW48420   6.027  11.930   2.225  0.2098  0.1843 -0.2408
47102SOL    HW148421   6.028  11.840   2.258 -0.0240 -0.0429 -0.8358
47102SOL    HW248422   6.119  11.950   2.208  0.5359  0.8942  2.0681
47103SOL     OW48423  12.799   2.044  11.341  0.0538  0.3672  0.6735
47103SOL    HW148424  12.734   1.974  11.339  0.7501 -0.2676 -0.2603
47103SOL    HW248425  12.757   2.117  11.295  0.2134 -0.2468 -0.4702
47104SOL     OW48426   7.322   8.426  11.352 -0.5587 -0.3184  0.2836
47104SOL    HW148427   7.388   8.374  11.306 -1.6854 -1.8670  0.3526
47104SOL    HW248428   7.320   8.391  11.441 -1.5521 -0.3933  0.2496
47105SOL     OW48429   3.302   6.096   1.526  0.2682  0.1701 -0.0434
47105SOL    HW148430   3.292   6.094   1.430  1.9411 -1.9292 -0.2445
47105SOL    HW248431   3.239   6.031   1.558  1.0137 -0.5014  0.0920
47106SOL     OW48432   8.133   8.379   4.492 -0.1740 -0.8608  0.0901
47106SOL    HW148433   8.172   8.401   4.577  0.0875  0.0790 -0.2630
47106SOL    HW248434   8.193   8.416   4.428 -1.5770  0.5281 -0.4687
47107SOL     OW48435   6.805  10.471   7.949  0.2712 -0.5186 -0.4495
47107SOL    HW148436   6.774  10.562   7.941 -2.7208 -1.3079  0.6159
47107SOL    HW248437   6.852  10.470   8.032 -2.4586 -0.4708  1.2472
47108SOL     OW48438   2.253  10.186   4.170  0.3379  0.0286  0.0910
47108SOL    HW148439   2.236  10.264   4.117  2.4718 -1.1517 -2.5199
47108SOL    HW248440   2.173  10.134   4.161 -0.4280  1.0881  0.4480
47109SOL     OW48441  12.631   4.859   2.997 -0.3085  0.7472  0.7309
47109SOL    HW148442  12.594   4.911   3.068 -0.2535  1.8330  0.0005
47109SOL    HW248443  12.599   4.902   2.917  1.1022  0.6859  0.0896
47110SOL     OW48444   5.376   8.293  11.654  0.2226  0.5835 -0.4348
47110SOL    HW148445   5.342   8.205  11.639  2.0636 -0.1970 -0.3331
47110SOL    HW248446   5.460   8.279  11.699 -0.7122  2.4977  2.1650
47111SOL     OW48447   7.105  11.133   4.799  0.1934 -0.1049  0.1005
47111SOL    HW148448   7.031  11.151   4.857  0.8328  1.4381  0.5042
47111SOL    HW248449   7.083  11.050   4.757 -0.7457 -0.7798  1.8119
47112SOL     OW48450   0.788   6.652   6.645 -0.3759 -0.5878 -1.0029
47112SOL    HW148451   0.716   6.696   6.600 -0.4148 -1.2955 -1.6685
47112SOL    HW248452   0.748   6.612   6.722 -0.2001  1.1386  0.0263
47113SOL     OW48453   9.863   5.302   1.881 -0.3447  0.1324 -0.7353
47113SOL    HW148454   9.834   5.211   1.870 -2.4190  0.8228 -1.2617
47113SOL    HW248455   9.809   5.352   1.821 -0.0211  1.8837  0.3766
47114SOL     OW48456   1.893   6.838  10.330  0.1846 -0.0280 -0.0485
47114SOL    HW148457   1.822   6.785  10.368 -0.3195  0.4788 -0.2566
47114SOL    HW248458   1.949   6.775  10.286  0.1537 -0.4996  0.5732
47115SOL     OW48459  12.744   3.868  11.247  0.4630  0.1415  0.1301
47115SOL    HW148460  12.836   3.855  11.226  0.9257  0.6484  1.7389
47115SOL    HW248461  12.744   3.912  11.332 -1.2488  0.9229 -0.2230
47116SOL     OW48462   5.304  11.906   2.235  0.1934  0.1028  0.2302
47116SOL    HW148463   5.323  11.904   2.329 -0.9476  2.9011  0.6123
47116SOL    HW248464   5.389  11.921   2.193  0.8015 -1.7178  0.6874
47117SOL     OW48465  12.829  12.659  12.132  0.0040 -0.1413 -0.1383
47117SOL    HW148466  12.780  12.733  12.169  0.4742  0.1814 -0.1621
47117SOL    HW248467  12.790  12.582  12.174 -1.4661 -0.0117 -1.1669
47118SOL     OW48468   0.804   0.195   1.529  0.2917 -0.0613  0.5245
47118SOL    HW148469   0.738   0.184   1.598 -1.3393  0.1993 -0.9048
47118SOL    HW248470   0.797   0.288   1.505  0.7215 -0.1893 -0.1015
47119SOL     OW48471   2.944   5.475   4.882  0.1269 -0.3438 -0.2508
47119SOL    HW148472   3.023   5.480   4.828  1.3708 -0.6437  1.4337
47119SOL    HW248473   2.878   5.525   4.834  1.4074  0.1152 -1.5990
47120SOL     OW48474  11.531   3.652   7.204 -0.0823  0.2269  0.6768
47120SOL    HW148475  11.525   3.693   7.291  0.3389 -1.8657  1.7628
47120SOL    HW248476  11.508   3.560   7.220  0.3588 -0.2748 -1.3830
47121SOL     OW48477   2.941   3.024   9.367 -0.2888 -0.6460  0.0172
47121SOL    HW148478   2.853   2.991   9.383 -1.0056  0.8550 -0.5937
47121SOL    HW248479   2.928   3.114   9.337  1.5421  0.1516  1.3957
47122SOL     OW48480   6.530  12.334  11.546 -0.5452 -0.4541  0.7123
47122SOL    HW148481   6.616  12.294  11.532 -0.4527 -0.5516  1.5448
47122SOL    HW248482   6.516  12.388  11.468  0.3984 -0.2086  0.7027
47123SOL     OW48483   3.729   4.659  12.863 -0.2269 -0.1877 -0.4432
47123SOL    HW148484   3.726   4.746  12.823  2.3813 -0.3002 -1.0712
47123SOL    HW248485   3.818   4.652  12.897 -1.0193 -1.8355  1.4916
47124SOL     OW48486  11.372   9.371   2.481  0.1577  0.0544  0.0814
47124SOL    HW148487  11.433   9.403   2.548 -0.7648 -0.9322  1.4546
47124SOL    HW248488  11.303   9.437   2.478  0.8757  0.7944 -0.9361
47125SOL     OW48489  10.777   2.881   0.979 -0.3388 -0.1095  0.5487
47125SOL    HW148490  10.817   2.960   0.942 -1.3201 -1.5301 -4.2802
47125SOL    HW248491  10.852   2.826   1.002  0.3393  1.3438  2.0555
47126SOL     OW48492   0.830   0.198  12.341  0.3017 -0.4503 -0.2140
47126SOL    HW148493   0.922   0.220  12.355  0.4849  1.1369 -3.1151
47126SOL    HW248494   0.789   0.281  12.316 -2.1951 -0.9055  1.9598
47127SOL     OW48495  11.935   6.653  11.584  0.5558  0.4748 -0.0198
47127SOL    HW148496  11.992   6.712  11.533  0.7459  0.2376 -0.0810
47127SOL    HW248497  11.900   6.592  11.519 -1.8274  2.1804 -0.4645
47128SOL     OW48498   5.321   7.172  11.980 -0.5725  0.5813 -0.0228
47128SOL    HW148499   5.410   7.207  11.987 -0.8693  1.5994 -0.9797
47128SOL    HW248500   5.287   7.175  12.069  0.0466  1.0415  0.2093
47129SOL     OW48501  12.006   6.555   7.065 -0.4828 -0.1761  0.3086
47129SOL    HW148502  12.058   6.565   6.985 -1.3935  0.1196 -0.2507
47129SOL    HW248503  11.945   6.484   7.046 -0.7653 -0.0461  0.7149
47130SOL     OW48504   2.594   9.423  10.909  0.4696  0.2270  0.1993
47130SOL    HW148505   2.514   9.444  10.956 -0.1698  2.5762 -1.7336
47130SOL    HW248506   2.564   9.381  10.828  1.3324 -0.6003  0.2844
47131SOL     OW48507  12.803   7.799   2.792  0.3075 -0.6366  0.1609
47131SOL    HW148508  12.825   7.752   2.712  0.3178 -0.2813 -0.0475
47131SOL    HW248509  12.762   7.733   2.848  1.6714 -1.2646  0.4625
47132SOL     OW48510   6.925   7.001   7.897 -0.6891 -0.2134 -0.1308
47132SOL    HW148511   6.969   6.919   7.921  1.3458  0.7416 -0.4766
47132SOL    HW248512   6.869   6.976   7.823  0.9366 -1.0579 -1.1432
47133SOL     OW48513  11.654   3.731   9.179  0.0572 -0.8261  0.4666
47133SOL    HW148514  11.572   3.689   9.155  0.0251 -1.6416  1.8913
47133SOL    HW248515  11.718   3.659   9.178  0.6185 -0.3265  0.0352
47134SOL     OW48516   2.018   7.915  10.623 -0.2359 -0.5594  0.2566
47134SOL    HW148517   2.088   7.869  10.669 -1.4672 -2.2166  0.5901
47134SOL    HW248518   2.052   7.929  10.534  1.9051  2.0565  1.3674
47135SOL     OW48519   6.516   2.317  12.463  0.5077 -0.0344  0.1103
47135SOL    HW148520   6.548   2.365  12.539  0.1351  1.1306 -0.4503
47135SOL    HW248521   6.422   2.334  12.462 -0.2839 -3.3333  1.6892
47136SOL     OW48522  10.365  10.816   6.769  0.1646  0.0836 -0.2093
47136SOL    HW148523  10.434  10.765   6.727  0.0450 -0.0464 -0.2442
47136SOL    HW248524  10.284  10.775   6.742  0.0820  0.0855  0.0344
47137SOL     OW48525   7.794   8.046   8.965  0.5486 -0.4650 -0.0242
47137SOL    HW148526   7.876   8.013   9.002  1.7769  1.2426 -1.0928
47137SOL    HW248527   7.774   8.123   9.017 -0.2895 -0.7616  0.0997
47138SOL     OW48528   2.152  12.406  12.274  0.0741 -0.0034  0.2383
47138SOL    HW148529   2.201  12.442  12.201  0.3687 -0.4504  0.2076
47138SOL    HW248530   2.182  12.456  12.350 -1.4430  1.6049 -0.1550
47139SOL     OW48531   7.772  11.819   1.091  0.0578 -0.3958  0.1432
47139SOL    HW148532   7.841  11.811   1.025  0.4025 -1.0587  0.5705
47139SOL    HW248533   7.740  11.730   1.103 -0.8924 -0.0942 -0.0540
47140SOL     OW48534  10.841  10.597   2.391 -0.1275 -0.0822  0.3648
47140SOL    HW148535  10.821  10.648   2.469  0.0443  1.4420 -0.5407
47140SOL    HW248536  10.937  10.597   2.386 -0.1527  0.2472 -0.1134
47141SOL     OW48537   7.647   5.225   9.357 -0.1159 -0.3479 -0.3730
47141SOL    HW148538   7.660   5.318   9.338 -0.6998 -0.2230 -0.2014
47141SOL    HW248539   7.733   5.193   9.385  0.2390 -0.0223 -1.0826
47142SOL     OW48540   1.949   9.863   2.508  0.3550  0.8730 -0.2125
47142SOL    HW148541   1.987   9.871   2.421  0.8523  1.9032  0.0774
47142SOL    HW248542   1.963   9.772   2.532  0.6113  0.6911 -1.0338
47143SOL     OW48543  10.827   7.853   1.246 -0.3783  0.0920 -0.4053
47143SOL    HW148544  10.824   7.929   1.187  0.0196  0.8927  0.5767
47143SOL    HW248545  10.867   7.887   1.326  0.0645 -1.2361 -0.0475
47144SOL     OW48546   9.814  10.265   4.140  0.0841  0.0305 -0.0438
47144SOL    HW148547   9.879  10.197   4.158 -0.1295 -0.4225 -0.9402
47144SOL    HW248548   9.735  10.217   4.115 -1.1660  0.5083  2.6085
47145SOL     OW48549  11.768   9.382   2.237  0.0992  0.7936  0.1037
47145SOL    HW148550  11.744   9.455   2.294  0.2269  0.0668  1.1197
47145SOL    HW248551  11.854   9.353   2.270 -0.2548 -0.2385  0.1701
47146SOL     OW48552   8.965   4.338   4.513  0.0667  0.0915  0.4090
47146SOL    HW148553   9.005   4.400   4.452  0.1584  0.2969  0.6749
47146SOL    HW248554   8.949   4.390   4.592 -0.6805 -0.0023  0.3231
47147SOL     OW48555  12.403   6.013  12.699 -0.1622 -0.6438 -0.3983
47147SOL    HW148556  12.427   6.074  12.768 -2.0223  0.9917 -1.1055
47147SOL    HW248557  12.365   6.068  12.631 -2.2596 -2.6132 -0.9331
47148SOL     OW48558   3.360   7.878   1.243 -0.3457 -0.1922  0.2625
47148SOL    HW148559   3.335   7.797   1.288 -1.6978  0.1168  0.1090
47148SOL    HW248560   3.453   7.865   1.220 -0.4312 -1.5303  0.5726
47149SOL     OW48561   8.560   4.940   6.314  0.3481 -0.3486  0.3771
47149SOL    HW148562   8.535   4.944   6.406 -0.3048 -1.3081  0.2660
47149SOL    HW248563   8.635   4.880   6.312  3.1141  2.7971  0.7537
47150SOL     OW48564   0.789   7.517   4.990  0.0067  0.6191  0.0971
47150SOL    HW148565   0.745   7.597   5.018 -1.3761 -0.4586  1.2031
47150SOL    HW248566   0.729   7.477   4.927  1.1206  0.9005 -1.1720
47151SOL     OW48567  11.029   3.683   2.756  0.2100 -0.2558 -0.3507
47151SOL    HW148568  11.123   3.667   2.744 -0.2056 -1.1929 -3.0636
47151SOL    HW248569  11.015   3.768   2.714 -0.4051 -0.9592 -1.6296
47152SOL     OW48570  10.148   3.914   2.664  0.2008 -0.2207  0.3905
47152SOL    HW148571  10.179   3.988   2.716 -1.4142  0.9077 -0.1793
47152SOL    HW248572  10.208   3.842   2.685  0.2602  0.5087  2.9247
47153SOL     OW48573   1.821  10.419   0.492  0.4483  0.0784 -0.0977
47153SOL    HW148574   1.887  10.381   0.550  0.7998  1.9216  0.8080
47153SOL    HW248575   1.872  10.475   0.433 -0.2562  1.7016  0.7585
47154SOL     OW48576   2.610  11.971   5.218 -0.4065  0.1649 -0.4024
47154SOL    HW148577   2.522  11.956   5.253 -0.3014 -1.6385 -0.8250
47154SOL    HW248578   2.665  11.908   5.263  0.2136 -0.3820 -1.8456
47155SOL     OW48579  12.561   9.234   3.159 -0.5197 -0.3238 -0.5474
47155SOL    HW148580  12.553   9.276   3.074 -0.9795 -0.5331 -0.6107
47155SOL    HW248581  12.599   9.301   3.216 -1.7226  0.3618 -0.5183
47156SOL     OW48582   4.168   8.050   0.416  0.0380  0.0141  0.1229
47156SOL    HW148583   4.218   7.968   0.412  1.4117  0.8020  0.4328
47156SOL    HW248584   4.220   8.112   0.365 -0.1387  1.1034  1.2267
47157SOL     OW48585  12.636   3.362   8.784  0.0191  0.1349  0.0527
47157SOL    HW148586  12.654   3.349   8.877  0.1532 -0.8889 -0.1128
47157SOL    HW248587  12.645   3.276   8.745 -0.4972  0.4712 -0.8400
47158SOL     OW48588   9.204  11.390   9.881  0.0545 -0.2697  0.6202
47158SOL    HW148589   9.115  11.383   9.914  0.4035  0.6546  1.8128
47158SOL    HW248590   9.196  11.369   9.788 -1.4955  0.3097  0.5901
47159SOL     OW48591   7.409   9.495   7.281  0.4535 -0.1026 -0.2842
47159SOL    HW148592   7.416   9.578   7.234 -0.7646  0.2967  0.1938
47159SOL    HW248593   7.487   9.446   7.256 -0.6456 -0.4008 -3.6333
47160SOL     OW48594   0.062   2.498  10.997 -0.2770  0.2404 -0.0778
47160SOL    HW148595   0.009   2.527  10.923 -1.6376 -1.3892  0.1924
47160SOL    HW248596   0.108   2.577  11.026 -0.3326  1.0907 -2.1101
47161SOL     OW48597   6.948   3.766   0.031 -0.2335 -0.2112 -0.7092
47161SOL    HW148598   6.993   3.693  -0.010 -0.0381 -0.8302  0.5368
47161SOL    HW248599   6.866   3.729   0.064 -1.2971  0.7132 -2.2134
47162SOL     OW48600   6.331   0.226   3.517 -0.1032  0.3306 -0.1843
47162SOL    HW148601   6.276   0.194   3.445  0.0812 -1.4931  0.4332
47162SOL    HW248602   6.309   0.319   3.524 -0.9425  0.3016 -1.8527
47163SOL     OW48603   6.113   0.977   3.850 -0.5137 -0.8391 -0.4319
47163SOL    HW148604   6.121   1.009   3.940  0.1911  1.3855 -1.2255
47163SOL    HW248605   6.034   1.019   3.817 -0.6337 -1.4600 -0.9621
47164SOL     OW48606   1.272  10.696   7.330 -0.0236  0.3044 -0.2535
47164SOL    HW148607   1.208  10.624   7.335 -0.4820  0.7102 -0.2210
47164SOL    HW248608   1.356  10.652   7.320 -0.1605 -0.2836  0.9523
47165SOL     OW48609   7.743   2.601   2.558 -0.4012  0.1060 -0.0881
47165SOL    HW148610   7.707   2.552   2.483  1.1481 -0.4826 -0.4886
47165SOL    HW248611   7.782   2.533   2.613  0.2675  0.7430  0.2201
47166SOL     OW48612   3.218   9.941   8.051 -0.1344 -0.3549 -0.0292
47166SOL    HW148613   3.254   9.892   8.125 -0.0226  0.3596  0.3982
47166SOL    HW248614   3.252   9.896   7.974  0.7306 -0.3808  0.3601
47167SOL     OW48615   7.205   6.301   1.422 -0.2303 -0.2735  0.0052
47167SOL    HW148616   7.261   6.335   1.352  0.8324  1.0760  1.4134
47167SOL    HW248617   7.120   6.286   1.381  0.4309  0.2042 -1.6093
47168SOL     OW48618   0.440  11.792   5.964 -0.2773 -0.5566 -0.5495
47168SOL    HW148619   0.465  11.879   5.994 -1.5055 -0.6879  1.0067
47168SOL    HW248620   0.385  11.808   5.887  3.2224 -0.2236 -3.2343
47169SOL     OW48621   5.626   1.465  11.368  0.0852  0.3856 -0.3172
47169SOL    HW148622   5.705   1.476  11.420 -0.8959  2.3966  0.9016
47169SOL    HW248623   5.629   1.374  11.338  1.7239 -0.2672  1.5785
47170SOL     OW48624   4.432  11.292   4.327 -0.0641 -0.1420  0.4602
47170SOL    HW148625   4.421  11.387   4.337 -0.1660  0.0327 -1.1053
47170SOL    HW248626   4.525  11.281   4.306 -0.5836 -0.0696 -2.2104
47171SOL     OW48627   0.720   2.047   9.533 -0.3008  0.2433  0.6863
47171SOL    HW148628   0.679   2.121   9.578  0.6455  0.6496  0.9002
47171SOL    HW248629   0.719   2.071   9.440  0.1348  0.5937  0.7704
47172SOL     OW48630  12.163   3.344   4.909 -0.7852  0.2668 -0.1955
47172SOL    HW148631  12.195   3.399   4.837 -0.5910 -1.1785 -1.2618
47172SOL    HW248632  12.218   3.369   4.983  1.4801 -0.6559 -1.4410
47173SOL     OW48633   9.640   7.989   9.457  0.1085  0.0081  0.0017
47173SOL    HW148634   9.696   8.067   9.459  0.1663 -0.0454  0.6226
47173SOL    HW248635   9.658   7.949   9.372  0.8913  0.0861  0.1244
47174SOL     OW48636  12.923  10.127   2.937  0.5574  0.1551  0.5858
47174SOL    HW148637  13.016  10.107   2.947  0.3265 -1.9985 -0.7831
47174SOL    HW248638  12.920  10.188   2.863  0.9709  1.9704  1.9922
47175SOL     OW48639   5.028   1.790  12.773 -0.0330  0.5147 -0.6426
47175SOL    HW148640   5.017   1.791  12.869 -1.7132 -1.0680 -0.7489
47175SOL    HW248641   4.992   1.874  12.744 -2.8358 -0.3799 -0.0803
47176SOL     OW48642   5.801   5.153  11.278  0.5837 -0.5516  0.5901
47176SOL    HW148643   5.733   5.115  11.222  0.2407 -0.5234  0.9772
47176SOL    HW248644   5.822   5.084  11.340  1.5014 -0.8405 -0.0295
47177SOL     OW48645   0.863   5.498   6.935  0.6102  0.1095  0.2651
47177SOL    HW148646   0.900   5.421   6.893  0.5963 -0.8411  1.9451
47177SOL    HW248647   0.843   5.557   6.862 -0.3113 -1.8599 -1.1630
47178SOL     OW48648   0.747   7.137   7.861  0.2857  0.5642  0.8815
47178SOL    HW148649   0.714   7.221   7.830 -0.1710  0.1409  0.1947
47178SOL    HW248650   0.804   7.106   7.791  2.1390  1.2453  2.0166
47179SOL     OW48651   8.141   2.240  12.943  0.3608  0.0602 -0.3231
47179SOL    HW148652   8.116   2.294  13.018  0.2745 -1.8096  1.0590
47179SOL    HW248653   8.113   2.291  12.867 -0.0373  1.7787  0.8982
47180SOL     OW48654   2.512   3.663   7.250  0.1113  0.5845 -0.9262
47180SOL    HW148655   2.517   3.655   7.154  0.3606  0.1660 -0.8835
47180SOL    HW248656   2.423   3.695   7.267 -0.9070 -1.8530 -1.1731
47181SOL     OW48657   3.894  11.783   5.482 -0.2235  0.0761 -0.0455
47181SOL    HW148658   3.927  11.844   5.548  0.5593 -0.0126 -0.3381
47181SOL    HW248659   3.903  11.697   5.523  2.3645 -0.2156 -1.0160
47182SOL     OW48660  12.694   0.997   2.395  0.1463  0.2915  0.6494
47182SOL    HW148661  12.621   1.042   2.438  1.1497  2.0720  0.5540
47182SOL    HW248662  12.720   1.055   2.323  1.6125 -0.3401  0.6343
47183SOL     OW48663  12.677   7.066   1.521 -0.1253 -0.0158 -0.1363
47183SOL    HW148664  12.697   6.987   1.470 -1.3575 -0.4496  0.0314
47183SOL    HW248665  12.753   7.077   1.578  0.1164 -1.0041 -0.2469
47184SOL     OW48666   7.261   6.616   4.005  0.1311  0.5863 -0.2128
47184SOL    HW148667   7.349   6.625   3.967  0.1908 -1.6718 -0.7434
47184SOL    HW248668   7.278   6.601   4.098  0.3736 -0.3129 -0.3861
47185SOL     OW48669   3.469   1.624   5.150  0.0480  0.1802  0.0943
47185SOL    HW148670   3.438   1.556   5.090  2.2446 -0.5309 -0.3247
47185SOL    HW248671   3.465   1.583   5.237  0.1876 -0.0309  0.0016
47186SOL     OW48672   6.714   6.877   3.692  0.2963 -0.8575 -0.1044
47186SOL    HW148673   6.805   6.849   3.699  0.0474 -1.4161  1.1261
47186SOL    HW248674   6.679   6.869   3.781 -0.5948  0.6301 -0.2829
47187SOL     OW48675   1.627   0.281   1.088 -0.4227  0.1267 -0.4194
47187SOL    HW148676   1.716   0.309   1.112 -0.2197  0.7674 -1.8153
47187SOL    HW248677   1.573   0.359   1.101 -0.6866 -0.1137 -0.0683
47188SOL     OW48678  10.311   5.711   0.485  0.0595 -0.4982 -0.2734
47188SOL    HW148679  10.372   5.739   0.553  0.2074  0.2947 -0.7217
47188SOL    HW248680  10.266   5.635   0.523 -0.8438  0.7531  1.2599
47189SOL     OW48681   9.401   8.259   9.819 -0.1489  0.3470 -0.6251
47189SOL    HW148682   9.478   8.287   9.870  0.0697 -0.3995 -0.5253
47189SOL    HW248683   9.431   8.263   9.728  1.7474 -4.4441 -0.5317
47190SOL     OW48684   3.578   8.592   7.939  0.2291  0.6509  0.2917
47190SOL    HW148685   3.565   8.687   7.928  0.0195  0.5382 -0.5034
47190SOL    HW248686   3.653   8.571   7.884  0.3085  0.3597  0.5090
47191SOL     OW48687   7.545   7.966   3.694  0.4299  0.6119 -0.1996
47191SOL    HW148688   7.577   7.945   3.606  0.7747 -0.2326  0.1068
47191SOL    HW248689   7.467   7.911   3.705  0.2287  0.9219 -0.0865
47192SOL     OW48690  10.139   6.275   6.174  0.0104  0.0955  0.6885
47192SOL    HW148691  10.116   6.212   6.242  1.4366 -0.8452  0.3299
47192SOL    HW248692  10.108   6.235   6.093 -0.3851  0.5464  0.6097
47193SOL     OW48693   2.949   5.408   5.689  0.0123  0.4756  0.4860
47193SOL    HW148694   2.912   5.356   5.618 -0.6088  0.8523  0.5303
47193SOL    HW248695   2.919   5.497   5.673  0.4748  0.6948  0.8103
47194SOL     OW48696   2.593   3.536   8.930  0.8278  0.3847  0.3266
47194SOL    HW148697   2.550   3.517   8.847  1.5759  1.7465 -0.4146
47194SOL    HW248698   2.527   3.517   8.997 -0.1329  0.2505 -0.6396
47195SOL     OW48699   6.774   6.023  11.091 -0.4868 -0.3932  0.2162
47195SOL    HW148700   6.832   6.086  11.135  1.9004 -1.8511 -0.6472
47195SOL    HW248701   6.742   6.071  11.015  0.6502  0.0738 -0.0024
47196SOL     OW48702   0.938   2.328   4.183 -0.4492 -0.0310 -0.2586
47196SOL    HW148703   0.915   2.421   4.181 -0.5948 -0.0802 -1.3601
47196SOL    HW248704   0.993   2.319   4.260 -0.7166  0.9032  0.0604
47197SOL     OW48705   0.730  11.294   3.624 -0.1555  0.9207 -0.0745
47197SOL    HW148706   0.685  11.368   3.581 -2.3020 -0.9715 -1.3059
47197SOL    HW248707   0.742  11.229   3.554 -0.0897 -0.6732  1.3620
47198SOL     OW48708   2.917   5.493   8.142  0.1090  0.6822  0.1146
47198SOL    HW148709   3.010   5.481   8.164  0.5593  0.6617 -1.5797
47198SOL    HW248710   2.918   5.562   8.075 -0.9757 -0.1153 -0.7525
47199SOL     OW48711   4.095   7.943   1.436 -0.0723  0.0102  0.3168
47199SOL    HW148712   4.031   7.883   1.399  0.5810 -1.4700  1.5123
47199SOL    HW248713   4.048   8.026   1.443 -0.4049  0.2543 -3.1855
47200SOL     OW48714   4.368  10.393   0.833  0.5101 -0.5702 -0.3532
47200SOL    HW148715   4.375  10.373   0.927  0.8827  0.7166 -0.0952
47200SOL    HW248716   4.295  10.339   0.803 -0.8945  0.4390  1.1061
47201SOL     OW48717   6.107   1.120   0.336 -0.0717  0.2776 -0.2962
47201SOL    HW148718   6.038   1.113   0.401  0.7977 -0.7306  0.5626
47201SOL    HW248719   6.099   1.208   0.300 -0.6604  0.7984  1.0796
47202SOL     OW48720  12.389  11.372   2.758  0.5129  0.2166  0.5371
47202SOL    HW148721  12.400  11.366   2.853 -0.1081  1.9569  0.7441
47202SOL    HW248722  12.299  11.341   2.742  0.8958 -0.8746  0.3946
47203SOL     OW48723   4.382   7.038   8.256 -0.6131  0.0097 -0.2772
47203SOL    HW148724   4.430   7.081   8.185 -1.2251  0.5459 -0.3732
47203SOL    HW248725   4.375   6.947   8.228  1.0200 -0.2683  0.0915
47204SOL     OW48726   2.381   3.642  11.825  0.2082 -0.4116  0.4705
47204SOL    HW148727   2.386   3.723  11.775  0.4116  1.2761  3.0542
47204SOL    HW248728   2.455   3.646  11.886 -1.0284 -1.4557  2.1315
47205SOL     OW48729   8.175   0.785  12.317  0.5822  0.3866 -0.3353
47205SOL    HW148730   8.155   0.736  12.237  0.9655  0.8449 -0.7145
47205SOL    HW248731   8.108   0.852  12.321  0.0294 -0.1838  0.2098
47206SOL     OW48732  12.242   0.428   4.341 -0.3111  0.5884  0.3078
47206SOL    HW148733  12.182   0.492   4.301  0.3240  2.0564  1.6217
47206SOL    HW248734  12.325   0.475   4.349 -0.1774  0.0559  2.4952
47207SOL     OW48735  11.220   7.163  11.885 -0.2609 -0.2654  0.1698
47207SOL    HW148736  11.276   7.140  11.811  0.0606 -0.6005  0.5141
47207SOL    HW248737  11.187   7.079  11.918 -0.7137 -0.0929  0.1667
47208SOL     OW48738   2.759  11.404  12.692 -0.0533  0.7555 -0.3178
47208SOL    HW148739   2.667  11.379  12.682 -0.3596  1.2309  1.0943
47208SOL    HW248740   2.779  11.387  12.784  1.3366  0.4780 -0.6515
47209SOL     OW48741   1.964   8.182   5.572 -0.2160  0.1954 -0.7362
47209SOL    HW148742   1.999   8.118   5.635 -0.9594  2.2634  1.9612
47209SOL    HW248743   2.042   8.230   5.542  0.0512 -0.1671 -0.6348
47210SOL     OW48744   1.853   1.575   1.722  0.3962  0.2671 -0.0453
47210SOL    HW148745   1.825   1.488   1.692 -1.3792  0.5064  0.8147
47210SOL    HW248746   1.852   1.629   1.643  0.4069 -0.2180 -0.3807
47211SOL     OW48747  11.869   0.536   6.965  0.0445 -0.2849 -0.1360
47211SOL    HW148748  11.922   0.601   7.009  0.0695 -0.1121 -0.4167
47211SOL    HW248749  11.810   0.502   7.033  1.1841 -1.2148  0.4310
47212SOL     OW48750   9.444   3.150   5.975  0.5677 -0.0289 -0.1845
47212SOL    HW148751   9.498   3.110   6.042  0.6418  0.8345  0.2968
47212SOL    HW248752   9.354   3.130   6.001  0.6227 -0.6812 -0.4786
47213SOL     OW48753  10.331   0.586   8.440 -0.4843  0.0964 -0.6905
47213SOL    HW148754  10.283   0.585   8.357  0.8428  0.3487 -1.4784
47213SOL    HW248755  10.416   0.624   8.419 -0.3187  0.6893  0.9055
47214SOL     OW48756  10.224   6.791   8.087 -0.0155 -0.0371  0.1291
47214SOL    HW148757  10.306   6.836   8.105  0.0055  1.1140 -2.4123
47214SOL    HW248758  10.246   6.698   8.092  1.4128  0.2510 -0.2866
47215SOL     OW48759  12.040   2.238   1.788  0.2057 -0.1878 -0.2845
47215SOL    HW148760  12.077   2.217   1.874  2.0659  2.7427 -0.2274
47215SOL    HW248761  12.100   2.199   1.725  1.6744  1.7669 -0.1803
47216SOL     OW48762   6.877   3.044   3.399  0.5491 -0.5308  0.3019
47216SOL    HW148763   6.858   3.125   3.352 -1.6708 -1.0312  0.2049
47216SOL    HW248764   6.971   3.045   3.412  0.6914  1.6201 -0.4940
47217SOL     OW48765  12.093   4.167   4.132  0.2492 -0.7193 -0.0637
47217SOL    HW148766  12.032   4.099   4.160  0.9377 -0.2406  2.9819
47217SOL    HW248767  12.085   4.170   4.037 -3.9339 -1.1433  0.1049
47218SOL     OW48768  11.645  11.310   6.195  0.0370 -0.4248 -0.1088
47218SOL    HW148769  11.632  11.311   6.100  0.0162  1.5144 -0.1346
47218SOL    HW248770  11.738  11.290   6.207  0.7622  2.1270 -0.7450
47219SOL     OW48771   7.278   9.746   8.310  0.0842  0.0436 -0.4244
47219SOL    HW148772   7.236   9.830   8.295 -1.1565 -0.2274  1.2392
47219SOL    HW248773   7.249   9.720   8.398  1.0510 -1.7550 -0.5941
47220SOL     OW48774  12.853  10.301   8.007  0.2164  0.3245 -0.0460
47220SOL    HW148775  12.776  10.297   7.950 -1.1892 -2.3505  1.7829
47220SOL    HW248776  12.861  10.393   8.031 -0.0253  1.3041 -3.2391
47221SOL     OW48777   5.030   5.120   5.945 -0.1460 -0.0024 -0.0058
47221SOL    HW148778   5.040   5.188   6.010  0.6736 -0.4608  0.3699
47221SOL    HW248779   5.102   5.059   5.963  0.8291  0.4358 -2.0389
47222SOL     OW48780   4.134   9.745   9.172  0.6506  0.3297  0.4233
47222SOL    HW148781   4.115   9.838   9.166  2.2374  0.6219 -0.9092
47222SOL    HW248782   4.224   9.737   9.141  0.0920 -1.8103 -0.8624
47223SOL     OW48783   6.997   5.852   7.974  0.7299 -0.7251  0.2014
47223SOL    HW148784   6.935   5.786   7.943  0.4048  0.2703 -1.3039
47223SOL    HW248785   6.955   5.890   8.052  0.8821 -2.1900  1.0403
47224SOL     OW48786  11.404  10.554   4.118 -0.2868 -0.2075 -0.3921
47224SOL    HW148787  11.336  10.613   4.151 -0.0565 -0.2439  0.1489
47224SOL    HW248788  11.434  10.595   4.037 -0.2818  0.3136 -0.1289
47225SOL     OW48789   5.986   1.518   8.215 -0.2428  0.2787  0.0072
47225SOL    HW148790   5.927   1.592   8.199 -1.0865 -0.1843  0.8073
47225SOL    HW248791   6.038   1.510   8.135  1.0224  2.7415  0.4844
47226SOL     OW48792   6.576   2.805   8.222  0.1480  0.1711  0.3502
47226SOL    HW148793   6.522   2.770   8.151 -0.3135  1.3267  0.1177
47226SOL    HW248794   6.665   2.806   8.186  0.0230  0.1039  0.0381
47227SOL     OW48795   6.005   0.415   7.406 -0.2719 -0.5905 -0.6076
47227SOL    HW148796   6.006   0.369   7.489 -0.7170 -2.4856 -1.6042
47227SOL    HW248797   6.097   0.439   7.391 -0.2365  0.0862  0.5503
47228SOL     OW48798   4.821   0.079   7.653  0.2208 -0.0597 -0.0421
47228SOL    HW148799   4.794   0.157   7.605 -0.0006 -1.1255 -1.7234
47228SOL    HW248800   4.917   0.082   7.652  0.2136  0.4204  0.3188
47229SOL     OW48801   8.142   5.162   6.227  0.1821  0.8463  0.2067
47229SOL    HW148802   8.203   5.107   6.277  0.0387  0.8617  0.4028
47229SOL    HW248803   8.144   5.126   6.138  0.4168  0.7968  0.2318
47230SOL     OW48804  11.144   3.714  12.398 -0.3555 -0.3126  0.4909
47230SOL    HW148805  11.049   3.727  12.397 -0.2095  1.0355  1.4716
47230SOL    HW248806  11.159   3.644  12.335 -1.8436  0.6536 -1.0258
47231SOL     OW48807   6.447  12.223   4.458  0.3669  0.4387  0.5815
47231SOL    HW148808   6.360  12.256   4.481 -0.8668 -0.5619 -2.1171
47231SOL    HW248809   6.462  12.149   4.517 -0.9716  0.1660  0.6127
47232SOL     OW48810   2.619  12.763   5.937  0.1627 -0.2814 -0.3234
47232SOL    HW148811   2.616  12.667   5.933  2.4667 -0.5979  2.3249
47232SOL    HW248812   2.665  12.789   5.857  0.6268 -1.4759 -0.4629
47233SOL     OW48813   9.649  10.131   3.467 -0.2249 -0.0232  0.0486
47233SOL    HW148814   9.689  10.070   3.529 -0.6234 -0.2241  0.1159
47233SOL    HW248815   9.675  10.098   3.381 -0.7233 -0.4981  0.0740
47234SOL     OW48816   3.411   1.722   6.882 -0.3809  0.6105  0.2469
47234SOL    HW148817   3.367   1.806   6.881  0.2585  0.9634  1.0057
47234SOL    HW248818   3.475   1.728   6.953  0.8900  0.1179 -0.8119
47235SOL     OW48819   2.327   3.477   3.521 -0.6427 -0.4514 -0.0753
47235SOL    HW148820   2.373   3.399   3.490 -0.1715 -0.8202  1.4552
47235SOL    HW248821   2.295   3.519   3.441  0.3919 -1.4044 -1.0366
47236SOL     OW48822   2.023  11.569  12.956  0.0542 -0.5204  0.0625
47236SOL    HW148823   1.942  11.562  12.906 -1.2592 -0.7143  2.0904
47236SOL    HW248824   1.995  11.593  13.045  2.2038 -0.7388  0.8719
47237SOL     OW48825   0.733   2.722   8.644 -0.1630 -0.0349  0.1417
47237SOL    HW148826   0.768   2.702   8.731 -1.1872  1.6995  1.0189
47237SOL    HW248827   0.780   2.801   8.617  0.1168 -0.5367 -0.8765
47238SOL     OW48828   0.757   9.422  11.210  0.0220 -0.6006 -0.1180
47238SOL    HW148829   0.851   9.440  11.218 -0.3023  1.3225 -0.3309
47238SOL    HW248830   0.718   9.466  11.286 -0.8526 -0.1606 -0.8103
47239SOL     OW48831   8.945   0.680   2.594 -0.3029  0.2609 -0.2372
47239SOL    HW148832   9.016   0.715   2.647  1.1101 -3.3118  0.5757
47239SOL    HW248833   8.990   0.633   2.523 -1.8803 -1.0001 -0.4507
47240SOL     OW48834   3.216   5.809  12.781  0.8401  0.4589  0.5687
47240SOL    HW148835   3.208   5.714  12.769  1.0554  0.4647  0.3810
47240SOL    HW248836   3.217   5.844  12.693  2.4002  0.5039  0.5830
47241SOL     OW48837   5.339  10.205   2.704 -0.1178  0.0410 -0.1485
47241SOL    HW148838   5.270  10.235   2.645  0.3232  0.8974 -0.2527
47241SOL    HW248839   5.389  10.284   2.723  0.7395 -0.5421  0.0500
47242SOL     OW48840  11.731   3.729  12.694  0.1000  0.5058  0.0719
47242SOL    HW148841  11.683   3.762  12.770  0.2371  1.9242 -0.4288
47242SOL    HW248842  11.664   3.686  12.640  0.0961 -1.0410  1.2218
47243SOL     OW48843   5.305   0.184  10.463  0.1494 -0.3784 -0.0107
47243SOL    HW148844   5.308   0.274  10.429 -1.1972  0.2836  1.4853
47243SOL    HW248845   5.213   0.171  10.486  0.7850 -1.1755  2.2681
47244SOL     OW48846   1.555  12.917  11.896 -0.0708  0.0901 -0.2002
47244SOL    HW148847   1.526  12.977  11.965  0.5799  1.7349 -1.2807
47244SOL    HW248848   1.492  12.931  11.825  0.7343  0.3520 -0.8821
47245SOL     OW48849  11.836   0.414   1.984  0.2304  0.2815 -0.0679
47245SOL    HW148850  11.898   0.344   1.964 -0.5254 -0.2840 -0.4971
47245SOL    HW248851  11.887   0.494   1.979  1.0903 -0.2348  0.3407
47246SOL     OW48852   7.104  12.739   2.057  0.0974  0.2824  0.6395
47246SOL    HW148853   7.048  12.735   1.979  0.2488  0.7326  0.5047
47246SOL    HW248854   7.143  12.651   2.063 -0.6358 -0.0384  0.7522
47247SOL     OW48855   8.469   2.097   3.784 -0.0983  0.4544 -0.2825
47247SOL    HW148856   8.440   2.094   3.876  1.3981 -0.6382  0.2012
47247SOL    HW248857   8.437   2.015   3.747 -0.4859  0.7819 -0.6799
47248SOL     OW48858  10.573   5.037   2.721  0.3992 -0.1367 -0.2184
47248SOL    HW148859  10.494   4.993   2.689  1.7467 -2.3920 -0.6780
47248SOL    HW248860  10.551   5.065   2.809 -0.9377 -0.7055 -0.3411
47249SOL     OW48861   4.398   2.214   0.731 -0.5395  0.1473  0.5962
47249SOL    HW148862   4.346   2.204   0.811 -2.2863 -0.9949 -0.5989
47249SOL    HW248863   4.428   2.126   0.711  0.9752  0.6243  0.6475
47250SOL     OW48864  11.018   4.570   4.120 -0.2467 -0.0218 -0.6507
47250SOL    HW148865  11.092   4.615   4.081 -1.0163  2.2575  0.3616
47250SOL    HW248866  10.941   4.611   4.080 -0.9980  0.5732  1.2744
47251SOL     OW48867   7.336   4.385   5.248  0.1102 -0.1235  0.7083
47251SOL    HW148868   7.259   4.357   5.299  0.3589 -0.7725  0.7303
47251SOL    HW248869   7.406   4.393   5.313  0.6107 -1.6300  0.4017
47252SOL     OW48870  11.565  10.173   9.765  0.1747  0.7595  0.3193
47252SOL    HW148871  11.533  10.248   9.815  2.2547  0.7320  1.7892
47252SOL    HW248872  11.660  10.176   9.775  0.3643 -1.6326 -0.2541
47253SOL     OW48873  11.604   4.078   1.514 -0.1953 -0.7838 -0.0604
47253SOL    HW148874  11.605   4.032   1.598  2.3795 -1.0787 -0.1547
47253SOL    HW248875  11.647   4.162   1.533 -2.5693  0.6073 -0.4343
47254SOL     OW48876  11.337  11.336  10.326 -1.0001 -0.0115  0.5081
47254SOL    HW148877  11.383  11.256  10.351 -1.4626 -0.1661  0.8785
47254SOL    HW248878  11.292  11.313  10.244 -1.6478 -0.3400  0.9425
47255SOL     OW48879   2.795   0.404   4.025 -0.1930  0.1890 -0.0639
47255SOL    HW148880   2.706   0.405   3.991 -0.6196 -2.2900  0.7726
47255SOL    HW248881   2.849   0.376   3.951  0.0749  2.4804 -0.8032
47256SOL     OW48882   3.251   0.797   7.318  0.4526 -0.2370  0.1342
47256SOL    HW148883   3.330   0.771   7.365  0.6481 -0.2524 -0.2023
47256SOL    HW248884   3.213   0.865   7.372  1.4300  0.7495 -0.3863
47257SOL     OW48885  11.991   6.384   4.214 -0.4405 -0.0990 -0.3107
47257SOL    HW148886  12.085   6.388   4.197 -0.0698 -1.9915  0.9167
47257SOL    HW248887  11.980   6.426   4.300 -0.9088  1.0727 -0.9170
47258SOL     OW48888   0.490  12.730   6.837  0.1955 -0.3108 -0.2908
47258SOL    HW148889   0.569  12.713   6.888 -0.1098  0.6263  0.5207
47258SOL    HW248890   0.424  12.754   6.902 -0.7600 -1.0394 -0.9556
47259SOL     OW48891   9.749   5.314   5.483  0.4349 -0.6021 -0.2516
47259SOL    HW148892   9.763   5.224   5.453  0.6062 -1.1115  1.3105
47259SOL    HW248893   9.821   5.332   5.543  0.3914  0.5807 -0.5274
47260SOL     OW48894  11.651  10.038   6.532 -0.1866  0.3016  0.0940
47260SOL    HW148895  11.569  10.048   6.580 -1.2527 -3.0765 -0.7748
47260SOL    HW248896  11.719  10.043   6.600 -1.3190  0.2652  1.2630
47261SOL     OW48897   1.614   8.047   9.263 -0.0987  0.4747 -0.0496
47261SOL    HW148898   1.709   8.047   9.252  0.1537  1.3935  1.7727
47261SOL    HW248899   1.579   8.047   9.174  1.6242  2.9040 -0.8099
47262SOL     OW48900   3.304   0.331  11.935  0.0927  0.3414  0.0628
47262SOL    HW148901   3.311   0.399  12.002 -0.1854  0.0778  0.3686
47262SOL    HW248902   3.393   0.301  11.921  0.2651  1.0438 -0.3644
47263SOL     OW48903   9.739   0.875   3.412 -0.0412 -0.3901  0.1774
47263SOL    HW148904   9.748   0.962   3.373  1.3876 -0.9408 -0.8183
47263SOL    HW248905   9.731   0.815   3.338  1.4941 -1.3398  0.7138
47264SOL     OW48906  11.621   5.755   2.809 -0.1172 -0.2116 -0.0033
47264SOL    HW148907  11.649   5.821   2.872 -1.6789 -1.5052  2.1703
47264SOL    HW248908  11.696   5.745   2.750  1.5293  0.8770  1.7868
47265SOL     OW48909   5.780  10.403  12.804  0.1318  0.4768 -0.0640
47265SOL    HW148910   5.873  10.424  12.791  0.7843 -0.7343  2.0255
47265SOL    HW248911   5.754  10.455  12.880 -0.1511 -0.9901  0.8986
47266SOL     OW48912   3.432   3.059   2.723 -0.5189 -0.2411  0.1046
47266SOL    HW148913   3.526   3.078   2.718 -0.6438  0.1844 -0.7344
47266SOL    HW248914   3.403   3.056   2.632 -1.4009  0.0276  0.3671
47267SOL     OW48915   0.525   4.634  10.888 -0.0702  0.0131 -0.5637
47267SOL    HW148916   0.550   4.552  10.845 -1.3786 -0.2520 -0.8695
47267SOL    HW248917   0.604   4.688  10.885  0.4302 -0.7369 -1.5386
47268SOL     OW48918   4.753  12.759   3.345  0.2850 -0.1366 -0.3981
47268SOL    HW148919   4.742  12.838   3.397  1.5830 -0.5239  0.5269
47268SOL    HW248920   4.683  12.700   3.375 -0.0550  0.2905 -0.3548
47269SOL     OW48921  12.609   7.508   9.967  0.1639  0.0347  0.2625
47269SOL    HW148922  12.635   7.416   9.973  1.7489  0.4545  0.2299
47269SOL    HW248923  12.691   7.556   9.975 -0.8117  1.5127  2.0262
47270SOL     OW48924   2.836   0.077   0.049  0.6480 -0.2234  0.0216
47270SOL    HW148925   2.909   0.050  -0.006  1.7288  1.2583  0.6529
47270SOL    HW248926   2.758   0.044   0.004  1.7392 -3.4773  0.2669
47271SOL     OW48927   7.213  12.510  12.260  0.1863  0.7113  0.2897
47271SOL    HW148928   7.274  12.475  12.325 -0.2376  1.2656  0.9959
47271SOL    HW248929   7.191  12.435  12.205  0.7474  0.2931  0.6224
47272SOL     OW48930  10.982   1.147   5.356  0.3815  0.8351  0.0342
47272SOL    HW148931  10.992   1.068   5.302 -0.6569  0.8739 -0.2332
47272SOL    HW248932  10.908   1.127   5.413  1.3555  0.8677  1.3445
47273SOL     OW48933   4.905   6.508   2.593 -0.5402  0.2862  0.1097
47273SOL    HW148934   4.981   6.566   2.594 -0.3728  0.1279 -1.2774
47273SOL    HW248935   4.859   6.531   2.512 -1.1339 -0.6710  0.1607
47274SOL     OW48936  11.260   6.862   7.708  0.6670  0.0863  0.0179
47274SOL    HW148937  11.175   6.819   7.697 -0.0305  0.7824  2.1917
47274SOL    HW248938  11.322   6.804   7.664 -0.5747 -1.7984  0.6306
47275SOL     OW48939   1.269   0.615   7.352  0.3486  0.2538  0.0475
47275SOL    HW148940   1.304   0.622   7.263 -0.2179 -1.9756 -0.4271
47275SOL    HW248941   1.312   0.684   7.401  2.3011  0.1821 -1.4563
47276SOL     OW48942   3.247   9.815   1.626 -0.7004  0.1785  0.3895
47276SOL    HW148943   3.263   9.881   1.559 -0.1357 -0.0743  0.2654
47276SOL    HW248944   3.184   9.755   1.587 -0.7574  0.3140  0.2746
47277SOL     OW48945   1.030   2.894   7.298 -0.1501 -0.1060  0.3480
47277SOL    HW148946   1.091   2.854   7.236 -0.6871 -1.4298  0.6256
47277SOL    HW248947   1.057   2.860   7.383 -2.0113 -1.7585  0.3405
47278SOL     OW48948  10.350   0.345  11.755  0.7284  0.2021  0.2995
47278SOL    HW148949  10.278   0.289  11.782  1.3324 -0.7287  0.0306
47278SOL    HW248950  10.322   0.382  11.672 -0.2883  1.4859  1.1650
47279SOL     OW48951   6.396   1.396   2.216 -0.5588 -0.2528 -0.7225
47279SOL    HW148952   6.351   1.463   2.269  1.6693  0.6065  0.2032
47279SOL    HW248953   6.353   1.402   2.131 -1.3098  1.4704 -0.2882
47280SOL     OW48954   1.188   7.553   9.070 -0.3375 -0.0562  0.7991
47280SOL    HW148955   1.138   7.586   9.144  0.5575 -0.2889  1.5293
47280SOL    HW248956   1.266   7.608   9.067 -0.2036 -0.2677  0.2323
47281SOL     OW48957   7.772   3.657   7.397 -0.0879 -0.2300  0.2603
47281SOL    HW148958   7.707   3.590   7.418 -1.6386  0.6772 -1.3272
47281SOL    HW248959   7.725   3.740   7.405  0.4509  0.3937 -2.1637
47282SOL     OW48960   2.007   3.296  12.480 -0.5404  0.2098  0.0906
47282SOL    HW148961   2.067   3.242  12.530  0.0510  0.9991  0.2504
47282SOL    HW248962   2.051   3.381  12.473 -0.5697  0.1017 -1.8288
47283SOL     OW48963  12.379   9.074  10.258 -0.4101 -0.0895 -0.3204
47283SOL    HW148964  12.308   9.013  10.241 -1.2141 -0.1039  2.5550
47283SOL    HW248965  12.352   9.155  10.214 -1.1148 -0.7409 -1.1147
47284SOL     OW48966  11.924   8.394   2.764  0.2535  0.1318  0.1004
47284SOL    HW148967  11.955   8.478   2.797  0.3627  0.8367 -1.7397
47284SOL    HW248968  11.961   8.330   2.825  0.5684  1.3618  1.2459
47285SOL     OW48969   3.699   8.183   4.494 -0.1478 -0.4911 -0.4269
47285SOL    HW148970   3.651   8.105   4.522 -0.6954  0.1692  0.5216
47285SOL    HW248971   3.791   8.161   4.508 -0.2431 -1.2871 -1.0064
47286SOL     OW48972  12.416   4.449   8.853 -0.6914 -0.2308  0.1577
47286SOL    HW148973  12.394   4.493   8.935  2.1239  0.0136  0.9012
47286SOL    HW248974  12.461   4.369   8.881  0.2118 -0.2058 -1.1272
47287SOL     OW48975   0.395  11.849  12.377 -0.1638  0.2324 -0.2831
47287SOL    HW148976   0.460  11.779  12.383  0.4270  0.7171 -0.9207
47287SOL    HW248977   0.442  11.923  12.338 -1.1879  0.4753 -1.1157
47288SOL     OW48978   4.426   7.817   3.888  0.6697 -0.4140 -0.3595
47288SOL    HW148979   4.460   7.752   3.826  0.7320 -0.0685 -0.6879
47288SOL    HW248980   4.472   7.798   3.970 -1.4215 -2.7100  0.4255
47289SOL     OW48981  11.560   5.099   1.422  0.0446 -0.3164  0.0185
47289SOL    HW148982  11.640   5.070   1.378  0.3847  0.6135  0.0013
47289SOL    HW248983  11.588   5.120   1.511 -0.5210 -1.5925  0.5239
47290SOL     OW48984   3.252   0.186   9.858 -0.4163 -0.1003 -0.2349
47290SOL    HW148985   3.227   0.235   9.937 -0.4576  0.0482 -0.3386
47290SOL    HW248986   3.173   0.139   9.833  0.2121 -2.0425  1.1578
47291SOL     OW48987   8.740   7.952  10.582 -0.2044 -0.6653 -0.4399
47291SOL    HW148988   8.745   7.937  10.676  2.5298  2.9676  0.2514
47291SOL    HW248989   8.802   7.890  10.544  0.8951 -0.2271  0.5733
47292SOL     OW48990   8.949  12.732   3.657 -0.2723  0.0212  0.2039
47292SOL    HW148991   8.947  12.760   3.565  0.9069  0.1449  0.1964
47292SOL    HW248992   8.958  12.637   3.653 -2.6026 -0.2476  0.2242
47293SOL     OW48993   8.084   4.110   8.167 -0.3383 -0.0164  0.4347
47293SOL    HW148994   8.087   4.045   8.238  1.6006 -0.4865 -0.0290
47293SOL    HW248995   8.160   4.165   8.181 -1.0457  1.1442 -0.1598
47294SOL     OW48996   1.528   7.128   2.531  0.1815  0.1638  0.4679
47294SOL    HW148997   1.597   7.062   2.527  0.7646  0.7825  0.2605
47294SOL    HW248998   1.469   7.105   2.459 -0.0293 -0.5700  0.8593
47295SOL     OW48999   6.884   0.795  11.855 -0.5057 -0.2115  0.0043
47295SOL    HW149000   6.889   0.722  11.794 -0.0002 -1.0891  1.0450
47295SOL    HW249001   6.964   0.845  11.840 -0.6661 -0.0941 -0.4507
47296SOL     OW49002  12.640   2.248   9.447  0.6353 -0.1413 -0.0815
47296SOL    HW149003  12.626   2.161   9.484 -1.1910  0.1355 -0.0484
47296SOL    HW249004  12.629   2.308   9.521  0.5964  0.1966 -0.3592
47297SOL     OW49005  10.183   8.424   2.650 -0.3744 -0.0713  0.0920
47297SOL    HW149006  10.247   8.374   2.599 -2.1137 -0.8647 -1.4429
47297SOL    HW249007  10.202   8.515   2.629 -0.3807 -0.3429 -1.1787
47298SOL     OW49008   2.454   6.310   1.357 -0.0146 -0.0710 -0.6660
47298SOL    HW149009   2.432   6.272   1.442  0.1838 -1.5016 -1.2299
47298SOL    HW249010   2.474   6.402   1.376  0.0001 -0.3602  0.8192
47299SOL     OW49011  12.031  12.562  11.861 -0.1319  0.1175 -0.0025
47299SOL    HW149012  11.990  12.497  11.804  0.1934  0.2674 -0.4104
47299SOL    HW249013  11.983  12.643  11.845 -1.0988 -0.2009  1.1358
47300SOL     OW49014   7.558   6.734  11.205  0.0670  0.8914  0.4761
47300SOL    HW149015   7.559   6.656  11.149 -0.4227  0.3467  1.1873
47300SOL    HW249016   7.643   6.733  11.249  0.0240  0.7015  0.5555
47301SOL     OW49017   4.954   7.864  11.669 -0.1852 -0.3123  0.5106
47301SOL    HW149018   4.901   7.785  11.677 -1.4204  0.6259  2.1795
47301SOL    HW249019   4.901   7.933  11.709  0.7880  1.4217 -1.0079
47302SOL     OW49020   4.868   1.673   9.097 -0.3160  0.0007  0.0234
47302SOL    HW149021   4.952   1.646   9.135 -0.1107  1.9744  1.1467
47302SOL    HW249022   4.868   1.635   9.009  1.0135 -1.3840  0.5755
47303SOL     OW49023   2.509  11.247  12.753  0.4889  0.0972 -0.0076
47303SOL    HW149024   2.550  11.171  12.794 -1.6277 -0.9407  0.3242
47303SOL    HW249025   2.463  11.291  12.825  0.6879  0.9858 -0.4207
47304SOL     OW49026   6.601  12.723   8.379  0.2187  0.1025 -0.4560
47304SOL    HW149027   6.523  12.777   8.364 -0.0032  0.4577  1.7147
47304SOL    HW249028   6.672  12.773   8.338 -0.5009  0.3040 -1.5173
47305SOL     OW49029  10.942   8.002  10.762 -0.2061 -0.4989  0.6267
47305SOL    HW149030  11.011   8.060  10.731 -0.1297 -0.4483  0.8920
47305SOL    HW249031  10.897   8.051  10.830  0.8778 -1.3350  1.9983
47306SOL     OW49032   8.960   2.201   3.955 -0.0290 -0.4615 -0.2632
47306SOL    HW149033   8.996   2.274   3.905  0.5861 -1.4595 -1.3258
47306SOL    HW249034   9.000   2.209   4.041  2.5150 -1.2729 -1.2676
47307SOL     OW49035   2.096   3.659   9.530 -0.5602 -0.7604 -0.0175
47307SOL    HW149036   2.100   3.567   9.504 -1.9634 -0.6581 -0.6497
47307SOL    HW249037   2.136   3.706   9.456  1.5017 -0.9116  0.9130
47308SOL     OW49038   9.791  11.565  11.912 -0.3336  0.0139  0.1404
47308SOL    HW149039   9.870  11.613  11.937 -0.0592 -1.4984  2.4556
47308SOL    HW249040   9.731  11.577  11.986 -1.4378 -0.6415 -0.6176
47309SOL     OW49041   5.633  11.755  10.765  0.5614 -0.5027  0.0706
47309SOL    HW149042   5.622  11.844  10.796 -0.1291 -1.4839  3.0101
47309SOL    HW249043   5.722  11.731  10.789  0.2319 -1.0670  0.7970
47310SOL     OW49044   7.745   2.810   7.308 -0.3859  0.3646 -0.4418
47310SOL    HW149045   7.832   2.789   7.340 -0.4862  0.8519  0.1714
47310SOL    HW249046   7.721   2.735   7.253 -0.4248 -0.7529  1.0329
47311SOL     OW49047   6.203   4.588  11.038  0.0626 -0.2401 -0.2920
47311SOL    HW149048   6.180   4.579  11.131 -1.3220 -0.8476 -0.6630
47311SOL    HW249049   6.290   4.550  11.031 -0.5332 -1.8399  0.4709
47312SOL     OW49050  12.692   3.358   1.285 -0.0898 -0.9488  0.3349
47312SOL    HW149051  12.608   3.397   1.309  0.3950  0.4718 -0.1914
47312SOL    HW249052  12.673   3.305   1.208 -0.5436 -0.7579  0.3136
47313SOL     OW49053   4.256   0.940   6.241  0.0300 -0.2541  0.6875
47313SOL    HW149054   4.290   0.852   6.251  1.1068  0.2085  1.2853
47313SOL    HW249055   4.286   0.968   6.154 -0.5637 -0.5825  0.3776
47314SOL     OW49056   8.930   5.275  10.478  0.3179  0.5224  0.0967
47314SOL    HW149057   8.880   5.197  10.498 -0.3279  1.0371  0.5290
47314SOL    HW249058   8.962   5.306  10.563  2.6287 -0.5922 -0.2854
47315SOL     OW49059   7.866   5.532   8.764  0.1598  0.0939 -0.3037
47315SOL    HW149060   7.941   5.589   8.778  0.8477 -0.9363  0.3544
47315SOL    HW249061   7.806   5.553   8.835  0.7033 -0.4497  0.3285
47316SOL     OW49062   1.369   9.843   1.881  0.0512 -0.1802  0.3822
47316SOL    HW149063   1.382   9.925   1.929  0.8164 -0.3505  0.4745
47316SOL    HW249064   1.283   9.812   1.910  0.0375  0.2583  0.8311
47317SOL     OW49065   2.325   7.611   7.561 -0.0876  0.5030  0.5105
47317SOL    HW149066   2.234   7.606   7.591  0.2247 -0.5150  1.3444
47317SOL    HW249067   2.320   7.658   7.478 -1.4205  0.1631  0.3742
47318SOL     OW49068   9.116   6.059   2.176  0.3160 -0.1046  0.3027
47318SOL    HW149069   9.106   5.992   2.244  0.9603 -0.5720 -0.0619
47318SOL    HW249070   9.201   6.098   2.193 -0.5775  1.5553  1.3192
47319SOL     OW49071   1.750  10.968   1.407 -0.7414 -0.2013 -0.0397
47319SOL    HW149072   1.687  10.932   1.471  0.3247 -0.0810  1.1128
47319SOL    HW249073   1.794  11.038   1.454 -0.2836  0.2401 -1.1034
47320SOL     OW49074   2.295   6.760  12.514  0.6153  0.2340  0.4915
47320SOL    HW149075   2.382   6.737  12.483  1.2013  1.9014  0.7738
47320SOL    HW249076   2.237   6.735  12.442  1.5288  0.6405 -0.4248
47321SOL     OW49077   8.489  12.150   4.503  0.0315 -0.2930  0.5805
47321SOL    HW149078   8.495  12.059   4.474 -0.0386 -1.0374  2.7303
47321SOL    HW249079   8.423  12.190   4.446 -0.0247 -1.6088 -0.3039
47322SOL     OW49080   5.426   5.481   5.103 -0.5903 -0.0056  0.2838
47322SOL    HW149081   5.462   5.443   5.184 -2.0280 -0.9388  0.5064
47322SOL    HW249082   5.449   5.574   5.109 -0.2280 -0.1542  1.5181
47323SOL     OW49083   2.063   5.668   9.714 -0.0346  0.0407 -0.4887
47323SOL    HW149084   2.033   5.719   9.789 -1.0723  0.7491 -1.3686
47323SOL    HW249085   2.025   5.582   9.727  0.6022 -0.1394  0.2928
47324SOL     OW49086   5.680   9.389   8.050  0.1458 -0.0637 -0.6043
47324SOL    HW149087   5.623   9.344   7.988  0.4257 -1.3367  0.0354
47324SOL    HW249088   5.680   9.334   8.128  0.2845  1.1989  0.3241
47325SOL     OW49089   3.413  10.612   0.430 -0.0401 -0.4651  0.4617
47325SOL    HW149090   3.482  10.603   0.365  0.2343  1.3522  0.4669
47325SOL    HW249091   3.446  10.677   0.492 -1.8351  0.6752  0.3040
47326SOL     OW49092   2.228   9.977   0.076 -0.4071  0.5232 -0.3176
47326SOL    HW149093   2.225   9.882   0.066  0.5694  0.2770  1.3693
47326SOL    HW249094   2.177   9.995   0.154  0.2523  1.2691 -0.0403
47327SOL     OW49095  12.020   7.720   9.864  0.0605 -0.4674  0.3256
47327SOL    HW149096  11.932   7.695   9.836 -0.3251  0.3812  0.7391
47327SOL    HW249097  12.045   7.791   9.806  0.6902 -1.0292 -0.1123
47328SOL     OW49098   3.869   9.985   9.646 -0.2299  0.1782 -0.3758
47328SOL    HW149099   3.849   9.899   9.610  0.7725 -0.1590 -0.1763
47328SOL    HW249100   3.910  10.032   9.574  1.4334 -0.3687  0.1588
47329SOL     OW49101   1.692   9.164   0.016  0.3926  0.4476 -0.0110
47329SOL    HW149102   1.680   9.215   0.096 -0.2864 -0.2539  0.3461
47329SOL    HW249103   1.704   9.074   0.047 -1.0768 -0.0264 -0.7497
47330SOL     OW49104   0.997   6.053   9.525 -0.3088 -0.0125  0.2108
47330SOL    HW149105   1.013   6.143   9.496  3.5260 -0.5615  0.1443
47330SOL    HW249106   1.009   6.057   9.620  0.6980 -0.5816  0.1111
47331SOL     OW49107   5.132   8.268  10.600  1.0562  0.2621 -0.1505
47331SOL    HW149108   5.081   8.235  10.526 -1.2540  1.3629  0.8855
47331SOL    HW249109   5.182   8.192  10.630  1.8679 -0.2891 -2.6043
47332SOL     OW49110   2.942   7.660   3.144  0.0271 -0.0391  0.0470
47332SOL    HW149111   3.015   7.628   3.197 -2.1438 -1.9931  2.0906
47332SOL    HW249112   2.948   7.756   3.150  1.0539 -0.1782  2.1639
47333SOL     OW49113   3.476   1.503  10.458  0.1994 -0.4035 -0.5756
47333SOL    HW149114   3.482   1.580  10.402  1.1553 -0.6261 -0.8112
47333SOL    HW249115   3.432   1.533  10.537 -0.1276  0.1951 -0.9773
47334SOL     OW49116  12.959   6.887   7.254 -0.8211  0.5420  0.5793
47334SOL    HW149117  12.965   6.813   7.314 -1.5625  0.0547  0.0827
47334SOL    HW249118  12.947   6.963   7.310  0.4373  0.3582  1.1179
47335SOL     OW49119  11.662  12.770   0.228 -0.5624 -0.5142  0.2366
47335SOL    HW149120  11.646  12.684   0.265  0.6805 -0.5603  0.7170
47335SOL    HW249121  11.578  12.816   0.237 -0.6283 -0.9285  2.0027
47336SOL     OW49122   6.605   4.474   0.143  0.6083 -0.2376 -0.1613
47336SOL    HW149123   6.549   4.404   0.110 -1.3170  0.9754  0.3420
47336SOL    HW249124   6.655   4.503   0.067 -0.0436 -0.8301 -0.8279
47337SOL     OW49125   1.828  11.060   7.166  0.4589  0.1284 -0.4688
47337SOL    HW149126   1.799  10.990   7.107  0.8650  0.7717 -1.4673
47337SOL    HW249127   1.913  11.031   7.198 -0.4433 -0.9512  1.0792
47338SOL     OW49128   7.847  10.532   9.041 -0.1767  0.6006  0.7492
47338SOL    HW149129   7.852  10.618   9.083  0.9976  0.4987  0.8506
47338SOL    HW249130   7.927  10.526   8.988 -0.1665 -0.4863  0.8624
47339SOL     OW49131   0.750   7.576   3.255  0.4984 -0.0571  0.4072
47339SOL    HW149132   0.727   7.506   3.316  0.0171 -0.5757 -0.3518
47339SOL    HW249133   0.784   7.646   3.311 -0.5145 -0.2720  1.3286
47340SOL     OW49134   4.638   5.853  10.671  0.3803 -0.1983 -0.2065
47340SOL    HW149135   4.606   5.889  10.754  0.1951  2.0149 -1.1722
47340SOL    HW249136   4.576   5.784  10.649 -1.1244  0.9842  0.1835
47341SOL     OW49137  11.658  10.536  12.836 -0.0082 -0.1887 -0.0572
47341SOL    HW149138  11.630  10.445  12.840  0.2697 -0.2706  0.1015
47341SOL    HW249139  11.754  10.531  12.827 -0.0956  0.0749 -1.1657
47342SOL     OW49140   5.788  11.917  11.617 -0.0580  0.0717  0.0585
47342SOL    HW149141   5.735  11.995  11.633 -1.3050 -0.8063  0.3172
47342SOL    HW249142   5.727  11.853  11.580  0.6208 -1.2440  1.1352
47343SOL     OW49143   8.355  11.217  12.137  0.1696  0.0665  0.0068
47343SOL    HW149144   8.289  11.152  12.163  0.7579 -0.4971  0.1097
47343SOL    HW249145   8.419  11.167  12.086 -0.1963  0.8751 -1.2906
47344SOL     OW49146   2.086   9.099  10.927 -0.0309  0.3019  0.1708
47344SOL    HW149147   2.175   9.066  10.913  0.0496  0.8194 -0.6377
47344SOL    HW249148   2.076   9.102  11.022  0.5527 -0.4542  0.2637
47345SOL     OW49149  10.973   0.591  11.458 -0.0480  0.0765  0.0637
47345SOL    HW149150  10.958   0.674  11.414 -1.0571  0.6391  1.3947
47345SOL    HW249151  10.890   0.544  11.451 -0.1677  0.0972  1.1623
47346SOL     OW49152   4.638   7.149   7.555 -0.2529 -0.1688  0.4240
47346SOL    HW149153   4.592   7.180   7.477  0.6341 -1.6501 -0.7406
47346SOL    HW249154   4.731   7.161   7.535 -0.0102  2.0083  2.4083
47347SOL     OW49155   9.059   3.081   1.997  0.0956 -0.6223 -0.1228
47347SOL    HW149156   9.116   3.016   2.036 -0.0009  0.5309  2.1050
47347SOL    HW249157   9.053   3.056   1.905  0.6620 -3.2770  0.4792
47348SOL     OW49158   8.108   7.286   8.701  0.2928  0.0670  0.2851
47348SOL    HW149159   8.187   7.249   8.741  1.3764  0.6114 -1.2577
47348SOL    HW249160   8.057   7.209   8.674  0.3770 -0.2847  1.0710
47349SOL     OW49161   4.615   5.534   4.913  0.1251  0.1479  0.3867
47349SOL    HW149162   4.670   5.611   4.929 -0.5594  0.3942  1.6802
47349SOL    HW249163   4.673   5.459   4.929  0.7786  0.3546 -0.8216
47350SOL     OW49164   7.753   3.276   5.070  0.0166  0.1609  0.7290
47350SOL    HW149165   7.708   3.348   5.113 -0.6592  0.6839 -0.7841
47350SOL    HW249166   7.844   3.285   5.098  1.0638  4.5234 -2.8220
47351SOL     OW49167   8.281   4.032   8.702 -0.2197  0.4564  0.0936
47351SOL    HW149168   8.354   4.068   8.752  0.2605  0.9789 -0.9544
47351SOL    HW249169   8.322   3.982   8.632 -0.8819 -1.4233  0.9873
47352SOL     OW49170   2.585   1.010  11.709 -0.0308 -0.6927 -0.5296
47352SOL    HW149171   2.532   1.089  11.717  0.1674 -0.5336 -0.7958
47352SOL    HW249172   2.606   0.987  11.800  2.1082  1.0496 -0.4987
47353SOL     OW49173  11.380   1.927   8.277  0.3827  0.5318  0.1497
47353SOL    HW149174  11.455   1.898   8.329  1.2834  1.7952 -0.3906
47353SOL    HW249175  11.413   2.002   8.228 -0.9187  0.3933 -0.9849
47354SOL     OW49176   1.897   1.781   5.474  0.0137 -0.1439 -0.7208
47354SOL    HW149177   1.870   1.816   5.389  2.5616  2.2271 -0.6861
47354SOL    HW249178   1.958   1.846   5.508  1.6473 -2.6298  1.4366
47355SOL     OW49179   9.100   6.828   6.646 -0.4203 -0.0906 -0.4604
47355SOL    HW149180   9.137   6.893   6.706  0.0196  1.1519 -2.0076
47355SOL    HW249181   9.172   6.804   6.589 -0.9955 -0.7319 -0.9386
47356SOL     OW49182   1.938  11.677   8.443 -0.0933 -0.3834 -0.2846
47356SOL    HW149183   2.016  11.725   8.417  0.2093 -1.5761 -1.7282
47356SOL    HW249184   1.895  11.733   8.508  0.3906  1.6686 -1.6444
47357SOL     OW49185   5.409   1.166  12.558  0.6677  0.4947 -0.2644
47357SOL    HW149186   5.340   1.184  12.622  0.3263  1.8370 -0.9748
47357SOL    HW249187   5.482   1.133  12.611  0.1173  0.8014  0.7229
47358SOL     OW49188   0.664   0.687  11.958  0.0539 -0.8267 -0.5780
47358SOL    HW149189   0.674   0.595  11.937 -1.8530 -1.0536 -0.6456
47358SOL    HW249190   0.577   0.711  11.924  1.3114  1.5476 -2.5075
47359SOL     OW49191   6.896   8.959  11.453  0.1826  0.3686 -0.5093
47359SOL    HW149192   6.974   8.984  11.403 -0.4255  2.0432 -0.6703
47359SOL    HW249193   6.872   8.873  11.419  1.2794  0.3386 -1.2613
47360SOL     OW49194   8.310   0.089  11.426 -0.2663 -0.3303  0.7259
47360SOL    HW149195   8.316   0.042  11.343  1.5447 -0.0783  0.6834
47360SOL    HW249196   8.304   0.020  11.492  2.3341 -0.6974  0.6612
47361SOL     OW49197   3.405  12.226   7.924  0.1170 -0.0773  0.2626
47361SOL    HW149198   3.410  12.251   7.832  0.3450 -0.2598  0.2244
47361SOL    HW249199   3.382  12.307   7.970  1.2075  0.2972  0.1811
47362SOL     OW49200  10.261  12.147   4.911  0.0345  0.3931  0.1841
47362SOL    HW149201  10.295  12.235   4.929 -0.3520  0.1727  2.1580
47362SOL    HW249202  10.340  12.094   4.898  0.2772  1.1766 -2.2053
47363SOL     OW49203   3.582   2.250   2.117 -0.0671 -0.3270 -0.3571
47363SOL    HW149204   3.614   2.185   2.180  0.1886  0.1028 -0.0413
47363SOL    HW249205   3.556   2.198   2.041 -0.0463 -0.8192 -0.0338
47364SOL     OW49206   4.482  10.208   4.591  0.2507  0.7948  0.0400
47364SOL    HW149207   4.468  10.193   4.685 -0.5400  0.1169 -0.1740
47364SOL    HW249208   4.558  10.154   4.569 -1.6096 -1.8230 -0.3902
47365SOL     OW49209   8.718   6.139   7.634 -0.7852 -0.0690 -0.3538
47365SOL    HW149210   8.635   6.140   7.585 -0.2159  1.7700 -1.3872
47365SOL    HW249211   8.784   6.161   7.568  0.1911  1.0661  0.9596
47366SOL     OW49212   5.489   2.706   6.590 -0.0065 -0.1073  0.0788
47366SOL    HW149213   5.446   2.653   6.523 -1.3457 -1.3295  1.7841
47366SOL    HW249214   5.574   2.664   6.604 -1.4717 -2.6808  2.1796
47367SOL     OW49215   8.898   7.966  11.898  0.0411 -0.5505 -0.2954
47367SOL    HW149216   8.968   8.029  11.886  0.5915 -0.8635  1.0808
47367SOL    HW249217   8.917   7.896  11.835 -0.1564  0.2823 -1.2996
47368SOL     OW49218   8.353   2.301   9.393 -0.0838  0.4908 -0.2931
47368SOL    HW149219   8.295   2.302   9.317 -1.2575 -1.6081  0.4888
47368SOL    HW249220   8.315   2.364   9.453 -1.0605 -0.1908 -0.1725
47369SOL     OW49221  12.634  11.270  12.417 -0.1559  0.3465 -0.2372
47369SOL    HW149222  12.683  11.189  12.434 -0.2435  0.0196 -1.4181
47369SOL    HW249223  12.632  11.277  12.322  0.3015  2.0442 -0.1531
47370SOL     OW49224   8.843   6.543   5.377  0.1350 -0.1679  0.2974
47370SOL    HW149225   8.752   6.538   5.407  0.0311 -0.4555 -0.0593
47370SOL    HW249226   8.859   6.459   5.335  0.5142 -0.0527  0.2092
47371SOL     OW49227   2.259   1.081   7.374  0.2963 -0.0104 -0.5706
47371SOL    HW149228   2.292   1.012   7.316  0.6742 -0.4152  0.1068
47371SOL    HW249229   2.181   1.115   7.330  0.2835 -0.6586 -1.0622
47372SOL     OW49230   1.162  10.733   2.583 -0.3953  0.2230  0.0797
47372SOL    HW149231   1.087  10.792   2.590  0.2125  0.9988  0.2608
47372SOL    HW249232   1.220  10.775   2.519  0.1029 -0.1180  0.2964
47373SOL     OW49233   1.855   8.305  11.632  0.0989 -0.2935 -0.0879
47373SOL    HW149234   1.763   8.281  11.629  0.2250 -1.4028  2.4495
47373SOL    HW249235   1.873   8.319  11.725  1.6919  3.2716 -0.7560
47374SOL     OW49236  12.523   8.415   7.402  0.4656 -0.3983 -0.3492
47374SOL    HW149237  12.533   8.509   7.409  1.0383 -0.5422  1.0729
47374SOL    HW249238  12.430   8.399   7.421  0.1886 -0.0824 -1.3583
47375SOL     OW49239   7.528   8.294  12.937 -0.1140 -0.0692  0.1012
47375SOL    HW149240   7.515   8.321  13.028 -0.4606  1.7523 -0.4522
47375SOL    HW249241   7.623   8.295  12.926 -0.1254  1.2591  0.0206
47376SOL     OW49242   1.173  10.564   5.385  0.4938  0.2516  0.4943
47376SOL    HW149243   1.217  10.628   5.440  0.3954 -0.4187  1.3739
47376SOL    HW249244   1.176  10.482   5.435 -0.6049 -0.1056  0.0136
47377SOL     OW49245   9.708   8.537   9.365 -0.3229  0.0392 -0.1106
47377SOL    HW149246   9.695   8.527   9.270  0.9074 -2.3100 -0.1088
47377SOL    HW249247   9.760   8.616   9.374  1.6578 -1.0039 -1.6564
47378SOL     OW49248   7.545   6.994  12.828 -0.1204  0.5099  0.1661
47378SOL    HW149249   7.596   7.019  12.905 -1.0418  1.4711  0.4899
47378SOL    HW249250   7.608   6.998  12.755  0.7658 -0.4342  0.8449
47379SOL     OW49251   2.103   3.698   7.018 -0.5737 -0.2120 -0.4886
47379SOL    HW149252   2.070   3.736   6.937  1.9829  1.7332 -0.7414
47379SOL    HW249253   2.153   3.621   6.990 -0.5517 -0.1439 -0.6356
47380SOL     OW49254  11.613  12.064   7.634  0.4445 -0.2320 -0.6237
47380SOL    HW149255  11.658  11.985   7.664  0.6934 -0.2915 -1.1361
47380SOL    HW249256  11.614  12.123   7.709  0.5380 -0.5954 -0.3379
47381SOL     OW49257   3.451  11.947  11.643  0.0982  0.5038  0.5612
47381SOL    HW149258   3.381  11.955  11.707  1.0318 -0.7703  1.7811
47381SOL    HW249259   3.425  11.873  11.588 -0.1717  0.9214  0.1081
47382SOL     OW49260   6.185   5.836   0.132 -0.4162  0.1077  0.8351
47382SOL    HW149261   6.145   5.785   0.202 -2.0415  1.5721  1.0411
47382SOL    HW249262   6.278   5.837   0.154 -0.4078 -2.2199  1.1205
47383SOL     OW49263   3.662   3.970   0.318 -0.2392  0.3241  0.4985
47383SOL    HW149264   3.758   3.968   0.325 -0.2464 -2.4199  0.7326
47383SOL    HW249265   3.645   3.954   0.225 -0.5041  1.3047  0.3629
47384SOL     OW49266  10.003  10.548   7.620  0.0458  0.1904 -0.5258
47384SOL    HW149267   9.965  10.461   7.625  1.0834 -0.2253  0.4893
47384SOL    HW249268  10.071  10.541   7.552  1.7685 -0.4875  1.1829
47385SOL     OW49269  10.279  12.681   6.330  0.2962  0.3231 -0.1261
47385SOL    HW149270  10.211  12.747   6.318 -1.2240 -1.3035 -0.9127
47385SOL    HW249271  10.326  12.709   6.409 -1.4917  1.3311  0.6328
47386SOL     OW49272   6.457   4.998   5.252 -0.1491  0.2252 -0.9653
47386SOL    HW149273   6.456   4.902   5.244 -1.0223  0.2846 -1.6741
47386SOL    HW249274   6.365   5.023   5.245  0.0413  1.0915 -0.4086
47387SOL     OW49275   7.114   7.909  12.674  0.0412  0.0365 -0.2543
47387SOL    HW149276   7.118   8.003  12.693 -1.7077  0.3748 -1.2903
47387SOL    HW249277   7.022   7.887  12.687 -0.1566 -0.8949 -2.7163
47388SOL     OW49278   7.713   3.896   6.255 -0.1127 -0.0045  0.0278
47388SOL    HW149279   7.642   3.936   6.304 -0.4687  1.3260 -1.4688
47388SOL    HW249280   7.789   3.902   6.313 -0.6255  1.0135  0.6207
47389SOL     OW49281   8.491   8.583  12.823 -0.0926 -0.2332 -0.0828
47389SOL    HW149282   8.457   8.594  12.911  1.4470 -0.9012  0.6245
47389SOL    HW249283   8.413   8.582  12.767 -1.0628  0.5890  1.2006
47390SOL     OW49284   8.674   8.833   2.638 -0.6692 -0.1278 -0.5099
47390SOL    HW149285   8.680   8.924   2.610 -1.3444  0.2369  0.4675
47390SOL    HW249286   8.727   8.785   2.575  4.2219  1.5481  1.7970
47391SOL     OW49287   3.143  10.390   3.107  0.3669 -0.2603  0.4049
47391SOL    HW149288   3.073  10.399   3.172 -1.6759 -0.5180 -1.6147
47391SOL    HW249289   3.174  10.300   3.117 -1.0349 -0.8093  0.0455
47392SOL     OW49290  11.294   3.740   7.092 -0.5864  0.4454 -0.3517
47392SOL    HW149291  11.241   3.778   7.161 -0.2260  0.7064 -0.2142
47392SOL    HW249292  11.379   3.724   7.132 -0.1346  1.3188 -0.9287
47393SOL     OW49293   6.952  11.004   7.975 -0.2282 -0.6386 -0.1695
47393SOL    HW149294   6.960  11.082   7.920  0.9243  0.5384  1.5321
47393SOL    HW249295   7.040  10.992   8.011 -0.8365 -1.5958  1.0726
47394SOL     OW49296   8.504   2.148   9.061  0.5196 -0.1683  0.5771
47394SOL    HW149297   8.419   2.112   9.088  0.2079  0.5492  0.5943
47394SOL    HW249298   8.568   2.102   9.116 -0.0425  0.7035  2.0304
47395SOL     OW49299  11.364   4.302   5.499  0.1223  0.2535 -0.4920
47395SOL    HW149300  11.345   4.390   5.465  2.7282  1.8749  1.7883
47395SOL    HW249301  11.454   4.285   5.471  0.6963 -0.3348  1.5312
47396SOL     OW49302   7.329  10.164   0.528 -0.3867  0.0557  0.4315
47396SOL    HW149303   7.281  10.215   0.594  0.0018  0.6045  0.3011
47396SOL    HW249304   7.263  10.143   0.462 -0.4156  1.0356  0.1225
47397SOL     OW49305   9.517   4.265   3.345 -0.2654  0.2522  0.3031
47397SOL    HW149306   9.596   4.318   3.352  0.2958 -0.7558  2.4684
47397SOL    HW249307   9.454   4.307   3.403  0.2100 -1.3559  2.1109
47398SOL     OW49308  10.328   7.543   0.719 -0.1747 -0.4551  0.2246
47398SOL    HW149309  10.277   7.586   0.650 -0.7511 -1.3055  0.1075
47398SOL    HW249310  10.419   7.560   0.696 -0.3500 -0.9562 -0.9024
47399SOL     OW49311   3.196   2.923   3.041  0.6016 -0.1453 -0.1757
47399SOL    HW149312   3.186   3.016   3.017  1.9364 -0.0462 -0.3729
47399SOL    HW249313   3.255   2.887   2.976 -0.2868 -1.2731 -0.3858
47400SOL     OW49314  12.384   7.470  10.993  0.2493  0.0144 -0.2806
47400SOL    HW149315  12.382   7.548  10.937  1.3629  0.1338 -0.1757
47400SOL    HW249316  12.294   7.438  10.992 -0.0031  0.6983 -1.1799
47401SOL     OW49317   5.848   6.449   2.345  0.1717  0.9926 -0.1953
47401SOL    HW149318   5.759   6.470   2.317  0.1096  2.7688  1.1650
47401SOL    HW249319   5.898   6.440   2.264 -0.9261  1.4452 -0.9444
47402SOL     OW49320   4.788   1.372   5.194  0.0456  0.1064  0.4651
47402SOL    HW149321   4.765   1.332   5.110  1.4814  1.7203 -0.7637
47402SOL    HW249322   4.848   1.309   5.235 -0.6501 -0.6820  0.2998
47403SOL     OW49323   4.313  12.148   0.543 -0.7313  0.1010  0.0158
47403SOL    HW149324   4.273  12.156   0.629  0.4661 -1.8619  0.8187
47403SOL    HW249325   4.322  12.054   0.529  0.2181  0.4019 -1.7406
47404SOL     OW49326   9.905  10.933   7.781  0.5738  0.3062 -0.1351
47404SOL    HW149327   9.858  10.884   7.714 -1.2109  0.5149  0.8968
47404SOL    HW249328   9.909  10.874   7.856  2.1497  0.2371 -0.2434
47405SOL     OW49329   1.938   1.446   2.259 -0.5693  0.0465  0.4847
47405SOL    HW149330   1.879   1.410   2.192  1.4209 -1.5246 -0.5511
47405SOL    HW249331   1.881   1.493   2.319 -2.6094  0.4269 -1.6102
47406SOL     OW49332   1.962  10.504   3.563  0.2176  0.0465 -0.3805
47406SOL    HW149333   1.942  10.552   3.643 -0.4920  0.5112 -0.8228
47406SOL    HW249334   2.005  10.568   3.507 -1.0908  0.3193 -1.1279
47407SOL     OW49335   0.120  10.337   7.484 -0.3442 -0.7958 -0.6031
47407SOL    HW149336   0.186  10.323   7.552 -1.3749 -0.1896  0.5651
47407SOL    HW249337   0.050  10.386   7.528 -0.3833  0.9507 -2.4788
47408SOL     OW49338   6.790  12.525   5.340 -0.8162 -0.3828  0.1368
47408SOL    HW149339   6.718  12.523   5.403 -0.0741 -0.6526  0.9965
47408SOL    HW249340   6.805  12.432   5.319 -1.8275 -0.2491 -1.3696
47409SOL     OW49341   7.795   9.370   1.234 -0.4737  0.4436  0.0099
47409SOL    HW149342   7.766   9.447   1.283  0.6777  0.6695  0.3701
47409SOL    HW249343   7.731   9.360   1.164 -2.3467 -0.0759  1.7238
47410SOL     OW49344   0.902   8.096  12.269 -0.2905  0.9770 -0.2282
47410SOL    HW149345   0.836   8.062  12.208  0.5069 -0.6044 -0.2588
47410SOL    HW249346   0.891   8.191  12.266 -4.3061  0.8063  1.6388
47411SOL     OW49347   7.979   3.328   2.521 -0.0263 -0.5635  0.3673
47411SOL    HW149348   7.894   3.285   2.533 -0.0716 -0.1510  1.7599
47411SOL    HW249349   8.043   3.258   2.532 -0.1410 -0.5308  1.3361
47412SOL     OW49350  11.723   5.931   6.328  0.2108  0.8549 -0.0203
47412SOL    HW149351  11.785   5.867   6.364  0.6564  0.8168 -0.8130
47412SOL    HW249352  11.659   5.946   6.398  1.6609  1.6445  1.1905
47413SOL     OW49353   4.148   3.449  10.287  0.1265  0.7667 -0.1012
47413SOL    HW149354   4.184   3.424  10.372 -1.2002  1.6533  0.7512
47413SOL    HW249355   4.059   3.412  10.287  0.0025  1.0470 -0.9621
47414SOL     OW49356  12.508  11.401   5.287  0.1460 -0.6465 -0.1933
47414SOL    HW149357  12.449  11.334   5.319 -0.5854  0.0655 -0.0198
47414SOL    HW249358  12.464  11.438   5.210 -0.6250  1.2828  1.1204
47415SOL     OW49359   2.184   9.960   9.302 -0.5376 -0.3340 -0.0681
47415SOL    HW149360   2.152   9.986   9.216 -1.3670  0.2972  0.4189
47415SOL    HW249361   2.280   9.957   9.293 -0.6922 -2.9351 -1.7470
47416SOL     OW49362   5.492   3.834   7.487  0.3614 -0.1808  0.1272
47416SOL    HW149363   5.444   3.797   7.562  0.1779 -0.2884 -0.0425
47416SOL    HW249364   5.578   3.856   7.522 -0.2544  1.3122  0.7880
47417SOL     OW49365  12.256   7.176   1.501 -0.2640  0.0227  0.4735
47417SOL    HW149366  12.339   7.218   1.482 -0.3229  0.5530  1.3385
47417SOL    HW249367  12.279   7.097   1.550 -0.1325 -1.1718 -1.4146
47418SOL     OW49368   1.522   6.792   0.550 -0.0376 -0.3259  1.0536
47418SOL    HW149369   1.575   6.868   0.525  0.5898 -1.4660 -1.3534
47418SOL    HW249370   1.510   6.802   0.644  2.3658  1.2835  1.2833
47419SOL     OW49371   1.491   8.790  12.756 -0.4366  0.2128 -0.0703
47419SOL    HW149372   1.456   8.773  12.843  0.6442 -1.3298  0.1146
47419SOL    HW249373   1.472   8.882  12.739 -1.8149  0.2108  1.2402
47420SOL     OW49374   3.954   2.860   5.031  0.3162 -0.0265  0.1666
47420SOL    HW149375   4.037   2.837   5.074 -0.7936  1.4004  3.4340
47420SOL    HW249376   3.890   2.800   5.069 -0.6397  0.8986  0.0606
47421SOL     OW49377  11.912  10.868   4.319  0.5761 -0.7232 -0.6550
47421SOL    HW149378  11.835  10.865   4.262  0.4425 -0.0207 -0.5176
47421SOL    HW249379  11.972  10.929   4.275  1.1697 -1.4463 -0.8888
47422SOL     OW49380  10.212  10.367   1.972  0.5082 -0.4951  0.2119
47422SOL    HW149381  10.227  10.274   1.989  1.7428 -0.4401 -0.4817
47422SOL    HW249382  10.299  10.403   1.957 -0.1082  0.3607 -1.5211
47423SOL     OW49383   3.363   3.811  10.405  0.0890  0.4584 -0.3421
47423SOL    HW149384   3.418   3.852  10.472  0.9984 -0.3434 -0.5808
47423SOL    HW249385   3.408   3.729  10.384 -1.5099 -0.5223 -0.1191
47424SOL     OW49386   1.133   3.269   6.180  0.3314 -0.2699 -0.3050
47424SOL    HW149387   1.059   3.278   6.240  2.4100 -0.8809  2.5709
47424SOL    HW249388   1.101   3.212   6.110 -2.2954  0.6964  0.0123
47425SOL     OW49389   0.815   0.078   5.695 -0.6938 -0.0871 -0.5525
47425SOL    HW149390   0.823  -0.016   5.681 -0.4418 -0.1920  0.2517
47425SOL    HW249391   0.846   0.092   5.785 -0.5333  0.7858 -0.7307
47426SOL     OW49392   9.220   0.043   2.186  0.1601  0.0901  0.0154
47426SOL    HW149393   9.290  -0.022   2.193 -0.2786 -0.4373 -0.3771
47426SOL    HW249394   9.175   0.021   2.105 -0.3123  0.5766  0.1363
47427SOL     OW49395   1.668   3.672  11.007  0.6461 -0.0261 -0.0035
47427SOL    HW149396   1.690   3.593  11.057  1.1211  0.6314  0.8509
47427SOL    HW249397   1.752   3.716  10.993  0.1326  1.6205  1.7627
47428SOL     OW49398   6.394   3.137   5.638 -0.1527 -0.2441 -0.0791
47428SOL    HW149399   6.343   3.098   5.566 -0.9893 -1.9806  1.3648
47428SOL    HW249400   6.389   3.072   5.708  0.1612  1.6249  1.7711
47429SOL     OW49401  11.375   2.533  12.848  0.3710 -0.4234  0.5896
47429SOL    HW149402  11.330   2.451  12.867 -1.1312  0.3035  0.2660
47429SOL    HW249403  11.381   2.536  12.752 -0.2585  0.1869  0.5618
47430SOL     OW49404   7.132   1.023   4.765  0.3466 -0.4373  0.2245
47430SOL    HW149405   7.122   0.946   4.709 -1.2551 -0.1126  0.0258
47430SOL    HW249406   7.173   1.089   4.708 -2.9301  0.5138 -1.2883
47431SOL     OW49407   0.913   9.432   6.208 -0.0173  0.3889  0.5112
47431SOL    HW149408   0.922   9.520   6.245  0.6012 -0.0535  1.4563
47431SOL    HW249409   0.972   9.378   6.261 -0.3990 -0.5982 -0.0521
47432SOL     OW49410   9.510   1.866   8.919 -0.0175  1.1426 -0.2054
47432SOL    HW149411   9.575   1.894   8.854  0.5610 -1.3400 -0.7904
47432SOL    HW249412   9.525   1.772   8.929 -1.3284  1.1168  2.1755
47433SOL     OW49413   0.866   1.969  11.233 -0.2883 -0.1902 -0.0086
47433SOL    HW149414   0.842   2.027  11.161  1.5079  0.2936 -0.2637
47433SOL    HW249415   0.800   1.986  11.300 -1.0670  0.5256 -0.9204
47434SOL     OW49416   2.288   1.147  10.946 -0.5431  0.8790  0.3661
47434SOL    HW149417   2.376   1.168  10.979 -0.9627  0.0535  2.1395
47434SOL    HW249418   2.235   1.138  11.025 -2.2287  1.2935 -0.6741
47435SOL     OW49419   5.476   1.690  11.769 -0.0100  0.5714 -0.0646
47435SOL    HW149420   5.399   1.741  11.791  0.6840  1.1473  1.0737
47435SOL    HW249421   5.548   1.731  11.816  0.7057 -0.9889  0.2918
47436SOL     OW49422   8.996  12.029  12.458 -0.1348 -0.3539  0.7409
47436SOL    HW149423   8.994  11.990  12.371 -0.9932  0.8909  0.1714
47436SOL    HW249424   8.921  11.990  12.504 -0.7559  0.3097  0.3066
47437SOL     OW49425   6.575   0.893   3.408  0.1002 -0.3272  0.1571
47437SOL    HW149426   6.661   0.903   3.368 -0.4317  0.7612 -0.7582
47437SOL    HW249427   6.575   0.955   3.481  0.0582 -0.2463  0.0887
47438SOL     OW49428  11.683   7.008   9.650 -0.3030  0.5155  0.6183
47438SOL    HW149429  11.702   7.061   9.572  0.4286 -2.6164 -1.5069
47438SOL    HW249430  11.769   6.977   9.679 -0.7219  0.3497  1.7327
47439SOL     OW49431   5.559   1.609   6.022  0.1331  0.8072  0.3345
47439SOL    HW149432   5.584   1.661   5.946 -1.5574 -0.8671 -1.4736
47439SOL    HW249433   5.509   1.669   6.077 -0.5437  1.5073 -0.9999
47440SOL     OW49434  10.125   5.695   1.089 -0.2455 -0.2609 -0.1066
47440SOL    HW149435  10.137   5.727   1.179  0.3096  0.4118 -0.4154
47440SOL    HW249436  10.035   5.661   1.088 -0.4858  0.3356  0.5147
47441SOL     OW49437   8.757   3.814   2.830  0.0600  0.2972 -0.0932
47441SOL    HW149438   8.804   3.735   2.803 -1.8043 -0.9298  0.0291
47441SOL    HW249439   8.728   3.795   2.920 -0.3906  1.1150 -0.0558
47442SOL     OW49440   5.719   3.601   5.253 -0.0900  0.0927  0.0459
47442SOL    HW149441   5.661   3.533   5.221  0.5973 -0.0934 -0.8496
47442SOL    HW249442   5.778   3.556   5.313  0.0036  0.0047 -0.1106
47443SOL     OW49443   6.048   6.295   0.451 -0.3699 -0.0402 -0.6068
47443SOL    HW149444   6.023   6.205   0.430 -2.2495 -0.0340  1.3398
47443SOL    HW249445   5.967   6.345   0.440  0.1483  1.0419  0.3821
47444SOL     OW49446  10.200  11.246  10.865  0.0500  0.6856 -0.5868
47444SOL    HW149447  10.247  11.196  10.798 -0.7256  0.3883 -0.9155
47444SOL    HW249448  10.118  11.198  10.878 -0.2747  1.3337 -0.2001
47445SOL     OW49449   0.105   5.008  10.461  0.0026  0.0821 -0.3173
47445SOL    HW149450   0.132   4.917  10.470 -1.2792 -0.4369 -1.3694
47445SOL    HW249451   0.149   5.053  10.533  0.6801 -1.3505  0.2105
47446SOL     OW49452   2.667  12.015   4.248  0.1307  0.1013  0.0791
47446SOL    HW149453   2.742  12.043   4.301 -0.3405 -0.9428  1.3680
47446SOL    HW249454   2.591  12.050   4.294 -0.3673 -1.8187  0.8184
47447SOL     OW49455   5.629   7.618   0.852  0.1387 -0.3161  0.1024
47447SOL    HW149456   5.698   7.606   0.918  0.3332  1.0948  0.1802
47447SOL    HW249457   5.668   7.583   0.771  0.0813 -1.6030  0.5994
47448SOL     OW49458   7.305   2.433   3.015  0.4386 -0.5710  0.5602
47448SOL    HW149459   7.275   2.342   3.014  0.9740 -0.7425 -0.0349
47448SOL    HW249460   7.308   2.459   2.923  0.3793  0.0248  0.7211
47449SOL     OW49461   2.677   7.042   2.736 -0.1106 -0.3058 -0.4817
47449SOL    HW149462   2.759   7.091   2.740  0.0012 -0.5892  1.9017
47449SOL    HW249463   2.610   7.105   2.764 -0.3222 -0.8034  0.1494
47450SOL     OW49464  11.840   9.263   9.292  0.1091 -0.1614 -0.2124
47450SOL    HW149465  11.793   9.280   9.210  1.5287 -0.8473 -1.2161
47450SOL    HW249466  11.806   9.179   9.322  0.3420 -0.4149 -0.6601
47451SOL     OW49467  10.280  11.233   3.863 -0.0530  0.3234  0.0065
47451SOL    HW149468  10.374  11.218   3.870 -0.2476 -0.2041  3.9921
47451SOL    HW249469  10.241  11.157   3.906 -2.3214  0.6974 -1.2433
47452SOL     OW49470   6.002   2.159   0.947 -0.0236 -0.0811  0.3940
47452SOL    HW149471   6.033   2.104   1.019 -0.6848  0.0936  0.8337
47452SOL    HW249472   5.907   2.144   0.945 -0.3582  1.6676  1.1000
47453SOL     OW49473   6.638  11.564  12.730  0.7794  0.0678 -0.1457
47453SOL    HW149474   6.578  11.606  12.792 -0.4544  1.2357 -2.0336
47453SOL    HW249475   6.583  11.501  12.683  2.0069 -1.8159  0.8048
47454SOL     OW49476   3.080   9.362   5.937 -0.0144 -0.0978 -0.0727
47454SOL    HW149477   3.054   9.374   5.845 -0.3234 -1.7568 -0.2204
47454SOL    HW249478   3.020   9.419   5.986 -1.3661 -0.9139 -0.7267
47455SOL     OW49479   8.366   4.802   1.981  0.4272 -0.1048  0.8850
47455SOL    HW149480   8.350   4.719   2.024  1.3534 -1.1927 -0.7598
47455SOL    HW249481   8.309   4.801   1.904  1.7063 -0.0076 -0.0883
47456SOL     OW49482  12.135   3.077  12.520  0.6882  0.6553 -0.0124
47456SOL    HW149483  12.119   3.091  12.613 -0.6169 -2.3194  0.3095
47456SOL    HW249484  12.051   3.097  12.478  0.9656  0.9418 -0.4390
47457SOL     OW49485   0.107   2.916  11.327  0.4229 -0.2819 -0.3968
47457SOL    HW149486   0.066   2.970  11.259 -1.1420 -1.0378 -0.1000
47457SOL    HW249487   0.040   2.851  11.349  0.9512 -0.1580  1.7533
47458SOL     OW49488  10.657   5.210   7.308 -0.0946 -0.5999 -0.5349
47458SOL    HW149489  10.697   5.267   7.374  1.0797  0.5459 -2.1493
47458SOL    HW249490  10.729   5.155   7.277 -0.2540 -0.0548 -1.9260
47459SOL     OW49491   0.680   8.296   7.295  0.3078 -0.6623 -0.3826
47459SOL    HW149492   0.717   8.282   7.208  0.0909 -1.9057 -0.2907
47459SOL    HW249493   0.752   8.336   7.345 -0.1898  2.1149 -1.6465
47460SOL     OW49494   9.858   6.626   7.113  0.3708 -0.1412  0.1130
47460SOL    HW149495   9.874   6.697   7.175 -0.8075  0.4005 -0.1709
47460SOL    HW249496   9.865   6.668   7.027  2.2970 -0.9421 -0.1832
47461SOL     OW49497   7.907   7.853   5.820 -0.0640  0.1041 -0.1764
47461SOL    HW149498   7.915   7.764   5.855  0.7033  0.3794  0.3749
47461SOL    HW249499   7.992   7.893   5.838  0.6011  0.1066 -2.8157
47462SOL     OW49500  10.066  12.413   0.391  0.4715 -0.7524 -0.0951
47462SOL    HW149501  10.148  12.455   0.367  0.1418 -0.9973 -1.7294
47462SOL    HW249502   9.999  12.478   0.371  0.1812 -0.9263  0.2861
47463SOL     OW49503   1.763  10.049   2.413  0.3398  0.5469  0.5515
47463SOL    HW149504   1.714   9.989   2.357 -0.9001  1.6260  0.4133
47463SOL    HW249505   1.798   9.994   2.483  2.4855 -0.9533 -1.5539
47464SOL     OW49506   4.421   3.842   8.249 -0.3232  0.4216 -0.0953
47464SOL    HW149507   4.514   3.852   8.268 -0.7151  0.7343  1.8045
47464SOL    HW249508   4.407   3.896   8.170  1.1508  0.0517 -0.6383
47465SOL     OW49509   0.866   1.910   3.025 -0.0101 -0.1341  0.6191
47465SOL    HW149510   0.919   1.832   3.010  0.2354  0.1801 -0.1852
47465SOL    HW249511   0.778   1.885   2.999  0.1419 -0.0333 -0.0108
47466SOL     OW49512   7.781   8.190  10.677 -0.2159  0.4467 -0.0975
47466SOL    HW149513   7.726   8.249  10.625 -1.9555 -0.5662  0.5002
47466SOL    HW249514   7.724   8.163  10.749  0.9111 -1.0706  0.2537
47467SOL     OW49515   0.367  10.000   7.196  0.2774  0.5718  0.1580
47467SOL    HW149516   0.424   9.949   7.138 -0.6242 -0.6215  0.2991
47467SOL    HW249517   0.309  10.048   7.136 -0.3243 -0.2745  0.0549
47468SOL     OW49518   0.662   9.813   5.616  0.4462 -0.2764  0.3865
47468SOL    HW149519   0.757   9.803   5.620  0.4044 -0.3549  1.4884
47468SOL    HW249520   0.632   9.797   5.705 -0.8100 -2.2544 -0.3058
47469SOL     OW49521   1.241   9.506  12.125  0.7723  0.1761  0.3958
47469SOL    HW149522   1.263   9.583  12.072  0.8168  0.0246  0.1925
47469SOL    HW249523   1.146   9.510  12.134  0.6541 -0.3172 -0.5110
47470SOL     OW49524  10.545   2.733   4.103  0.1179  0.6816  0.5621
47470SOL    HW149525  10.615   2.796   4.086  1.2084 -0.4527  0.7239
47470SOL    HW249526  10.583   2.648   4.080 -1.5802  0.1389 -0.4071
47471SOL     OW49527   0.588   1.160   6.471 -0.3452  0.0132  0.4381
47471SOL    HW149528   0.630   1.080   6.438 -0.6949  0.3554 -0.9093
47471SOL    HW249529   0.653   1.199   6.530  0.0806 -0.9274  0.6081
47472SOL     OW49530   2.566   7.843   4.378 -0.1228  0.0027 -0.2378
47472SOL    HW149531   2.521   7.840   4.294 -0.4464 -0.7532 -0.0483
47472SOL    HW249532   2.563   7.753   4.410  0.4441  0.1808  0.3499
47473SOL     OW49533   4.555   8.695   8.246  0.1590 -0.4587 -0.4595
47473SOL    HW149534   4.548   8.735   8.333  0.4272 -2.6872  0.6690
47473SOL    HW249535   4.594   8.763   8.191  1.4937  0.5117  1.5499
47474SOL     OW49536   0.707   0.994  12.249 -0.0487 -0.1890 -0.6137
47474SOL    HW149537   0.703   1.077  12.201  1.1640 -0.0932 -0.5762
47474SOL    HW249538   0.729   1.019  12.339 -0.8805 -0.4756 -0.3188
47475SOL     OW49539  11.428   3.236   4.857 -0.0634 -0.5997 -0.4762
47475SOL    HW149540  11.352   3.230   4.800 -1.8571 -0.8230  1.7704
47475SOL    HW249541  11.447   3.329   4.863 -0.2525 -0.5304 -0.9439
47476SOL     OW49542   5.388   0.811   7.097  0.1028  0.1520 -0.2504
47476SOL    HW149543   5.346   0.888   7.058  0.3069  0.6058  0.3957
47476SOL    HW249544   5.387   0.745   7.028 -1.5358  0.1919 -0.2938
47477SOL     OW49545   9.878   4.442   0.192 -0.3480 -0.6323 -0.3835
47477SOL    HW149546   9.885   4.535   0.174  1.8677 -0.8912 -1.2085
47477SOL    HW249547   9.857   4.403   0.107 -0.7754 -0.9434 -0.1408
47478SOL     OW49548  12.819  10.511   6.247 -0.5804  0.4013 -0.0359
47478SOL    HW149549  12.786  10.450   6.314 -0.0969  0.4777  0.2761
47478SOL    HW249550  12.829  10.594   6.294 -1.3792  0.7700 -0.4948
47479SOL     OW49551   3.646   3.317   3.663 -0.0114 -0.4391 -0.1328
47479SOL    HW149552   3.608   3.230   3.678 -0.1797  0.0119  2.3788
47479SOL    HW249553   3.570   3.375   3.654  0.0998 -0.2697  0.0296
47480SOL     OW49554   6.716   5.497   0.205 -0.1608 -0.3593  0.7453
47480SOL    HW149555   6.628   5.472   0.175 -0.0729 -2.7534  2.2445
47480SOL    HW249556   6.762   5.521   0.124 -1.9362  0.2219 -0.1618
47481SOL     OW49557   8.772  11.195   1.675 -0.2587  0.1775  0.1014
47481SOL    HW149558   8.733  11.169   1.592 -0.1372  0.4931 -0.0576
47481SOL    HW249559   8.762  11.290   1.678 -2.0579 -0.0050  1.3682
47482SOL     OW49560   3.922   4.397   1.747  0.0205  0.2419  0.0297
47482SOL    HW149561   3.959   4.396   1.835  1.5151 -0.2478 -0.5738
47482SOL    HW249562   3.942   4.310   1.712 -2.3061 -0.3053 -0.1319
47483SOL     OW49563   7.250   8.068   9.552 -0.3121 -0.4865 -0.4082
47483SOL    HW149564   7.219   8.023   9.630  1.5983  1.2651  1.4973
47483SOL    HW249565   7.344   8.054   9.552 -0.1510  0.3980 -1.8544
47484SOL     OW49566   0.611   7.364  11.171  0.1140 -0.0221 -0.3863
47484SOL    HW149567   0.697   7.396  11.201 -0.4267 -0.5053  1.8823
47484SOL    HW249568   0.561   7.353  11.252 -1.5466 -1.3479 -1.5431
47485SOL     OW49569   8.636   8.970   4.256 -0.5219 -0.4980 -0.9069
47485SOL    HW149570   8.549   8.965   4.295 -0.6214  0.8508 -0.9231
47485SOL    HW249571   8.631   9.043   4.195  1.1795  0.9478  0.5785
47486SOL     OW49572   4.273   9.631  12.852  0.1682  0.5878  0.1722
47486SOL    HW149573   4.327   9.564  12.893  0.6702  1.9903  1.9202
47486SOL    HW249574   4.335   9.684  12.801 -0.0604  0.3841 -0.3300
47487SOL     OW49575   5.927   5.037   1.456  0.5881 -0.3524  0.0587
47487SOL    HW149576   5.899   5.046   1.364  1.8184  1.6771 -0.1884
47487SOL    HW249577   5.917   4.944   1.475 -1.6258 -0.5118 -1.4766
47488SOL     OW49578   6.141   5.786  11.360 -0.6069 -0.0187 -0.0552
47488SOL    HW149579   6.112   5.772  11.450 -0.2594  1.0374  0.2301
47488SOL    HW249580   6.111   5.708  11.313  1.1279 -1.6957  1.4134
47489SOL     OW49581   9.061  12.128  12.719  0.9033  0.0861 -0.7302
47489SOL    HW149582   8.970  12.150  12.738  0.8898  1.3031 -2.0894
47489SOL    HW249583   9.056  12.074  12.640  1.3225 -0.5626 -0.3251
47490SOL     OW49584   9.026  12.866   5.285  0.1056  0.1818 -0.5770
47490SOL    HW149585   9.121  12.880   5.288  0.4019 -1.1358 -2.1265
47490SOL    HW249586   8.994  12.901   5.368  2.4073 -2.3978  1.6181
47491SOL     OW49587   9.712  11.334   4.868  0.2789 -0.4845  0.3218
47491SOL    HW149588   9.733  11.241   4.860  0.0081 -0.4478 -0.9656
47491SOL    HW249589   9.796  11.375   4.888  1.4189 -0.4827 -3.5942
47492SOL     OW49590  11.354   3.465   3.782  0.1322 -0.0979 -0.3428
47492SOL    HW149591  11.284   3.516   3.823  0.3891  0.3925 -0.5149
47492SOL    HW249592  11.319   3.376   3.778 -0.9189  0.3476 -1.4224
47493SOL     OW49593   8.417   5.227   9.225  0.2869 -0.1251 -0.0419
47493SOL    HW149594   8.432   5.271   9.142 -1.3836  0.9636  0.2044
47493SOL    HW249595   8.369   5.148   9.202  0.4981 -0.2204 -0.1651
47494SOL     OW49596   0.673   2.656  11.646  0.5112 -0.4329 -0.7690
47494SOL    HW149597   0.581   2.679  11.659  0.7575  0.0906  0.1709
47494SOL    HW249598   0.692   2.684  11.557 -0.2339 -0.5252 -0.9647
47495SOL     OW49599   8.211   4.204   2.915 -0.2828  0.0999  0.1599
47495SOL    HW149600   8.226   4.137   2.848 -1.3534 -0.0912  0.0979
47495SOL    HW249601   8.292   4.203   2.967 -0.4110 -1.5164  0.4030
47496SOL     OW49602   6.471   2.366   1.513 -0.0083 -0.4063  0.2633
47496SOL    HW149603   6.566   2.361   1.514  0.0839 -0.0644 -1.7827
47496SOL    HW249604   6.451   2.460   1.516 -0.1349 -0.3220 -1.6720
47497SOL     OW49605   0.772  11.171  10.890 -0.1640 -0.4155 -0.6572
47497SOL    HW149606   0.865  11.158  10.910  0.0739  1.8496  0.0014
47497SOL    HW249607   0.728  11.168  10.975  0.0602  3.4023 -0.2189
47498SOL     OW49608   9.216  11.326   9.618 -0.3282  0.7236  0.2417
47498SOL    HW149609   9.183  11.355   9.534  0.4912 -0.6358 -0.5773
47498SOL    HW249610   9.279  11.258   9.597  1.8357  2.1053  1.7902
47499SOL     OW49611   2.015   4.823  10.178 -0.2500 -0.6395  0.3851
47499SOL    HW149612   2.006   4.912  10.213  1.2672  0.0732 -0.9087
47499SOL    HW249613   2.109   4.806  10.179 -0.4944 -2.1246  0.3369
47500SOL     OW49614   7.448   0.401   0.835  0.2377  0.0220 -0.1226
47500SOL    HW149615   7.537   0.427   0.857  0.6088 -0.8135 -0.6272
47500SOL    HW249616   7.426   0.332   0.898 -0.0268  0.1549 -0.0634
47501SOL     OW49617   5.059   5.714   5.149  0.2026  0.1341 -0.0059
47501SOL    HW149618   5.112   5.772   5.095 -1.6051  3.9472  1.8987
47501SOL    HW249619   5.118   5.682   5.217  1.3469 -0.7122 -1.3596
47502SOL     OW49620   3.843   2.444   5.336 -0.2709  0.0955 -0.0058
47502SOL    HW149621   3.923   2.404   5.302 -0.7031 -0.0887 -0.8438
47502SOL    HW249622   3.861   2.458   5.429  0.2969 -1.0420  0.0765
47503SOL     OW49623  10.168   1.699   8.027  0.2668 -0.2238 -0.3900
47503SOL    HW149624  10.248   1.751   8.017  0.7884 -1.1579 -1.3262
47503SOL    HW249625  10.178   1.657   8.112  0.5098  0.1091 -0.2524
47504SOL     OW49626   0.564   4.999   2.633  0.3666  0.3949  0.4946
47504SOL    HW149627   0.586   5.087   2.662  0.2565  0.8312 -0.7020
47504SOL    HW249628   0.589   4.997   2.540  0.0311 -0.7117  0.4102
47505SOL     OW49629  11.790   8.131  10.653  0.3546  0.0389 -0.0762
47505SOL    HW149630  11.757   8.175  10.731 -2.2240  0.9383 -1.5734
47505SOL    HW249631  11.731   8.157  10.582 -0.5891 -4.6737 -1.4270
47506SOL     OW49632   9.651   3.935   4.385 -0.2005  0.1955 -0.4440
47506SOL    HW149633   9.707   3.905   4.457  0.6505 -1.2576 -1.6641
47506SOL    HW249634   9.649   4.030   4.396  2.0701  0.2689  0.0001
47507SOL     OW49635   7.761  12.277   3.339 -0.0419  0.5135 -0.5990
47507SOL    HW149636   7.740  12.246   3.427  2.2085 -1.5042 -0.6639
47507SOL    HW249637   7.775  12.372   3.350  0.9105  0.2069  1.4030
47508SOL     OW49638   7.228   1.467  12.253  0.7819 -0.0572  0.1260
47508SOL    HW149639   7.191   1.502  12.172 -0.0003 -0.3567  0.3414
47508SOL    HW249640   7.302   1.525  12.273 -1.4107  2.5511  1.3445
47509SOL     OW49641   3.497   1.591   7.484  0.6839  0.0630 -0.1208
47509SOL    HW149642   3.553   1.663   7.513 -0.8282  1.0213  0.5940
47509SOL    HW249643   3.480   1.609   7.391 -1.0734  1.6849  0.4461
47510SOL     OW49644   1.783   8.909   0.082  0.0566 -0.4766 -0.4893
47510SOL    HW149645   1.755   8.859   0.158  0.4030  0.3774  0.2203
47510SOL    HW249646   1.879   8.906   0.086  0.1672  2.1349  0.9217
47511SOL     OW49647   4.075   0.851   3.803 -0.1848 -0.3093  0.1506
47511SOL    HW149648   4.134   0.838   3.729 -0.6891 -1.5875 -0.0572
47511SOL    HW249649   4.014   0.919   3.774 -0.4884 -0.9235 -0.6918
47512SOL     OW49650  12.630   8.369   4.339  0.0395  0.5381 -0.0088
47512SOL    HW149651  12.674   8.398   4.259  1.3452  1.0014  0.8372
47512SOL    HW249652  12.561   8.310   4.309  0.8280  0.2973 -1.4402
47513SOL     OW49653   1.147   2.402   3.204  0.3198 -0.0395  0.5084
47513SOL    HW149654   1.177   2.330   3.260  1.4631  0.7592  0.9670
47513SOL    HW249655   1.146   2.478   3.262  1.1383  0.7213 -0.4368
47514SOL     OW49656   3.884   0.716   7.381 -0.7122 -0.1920 -0.0159
47514SOL    HW149657   3.922   0.743   7.298 -1.4410 -0.4626 -0.4484
47514SOL    HW249658   3.902   0.622   7.387 -1.7488 -0.4401 -0.4852
47515SOL     OW49659   3.877  10.092   1.451 -0.5171 -0.1684 -0.1344
47515SOL    HW149660   3.784  10.071   1.442 -1.3647  2.8675  0.3109
47515SOL    HW249661   3.895  10.155   1.382  0.9756 -0.0123  0.3447
47516SOL     OW49662   4.705   0.620   8.935 -0.1211 -0.1652  0.8692
47516SOL    HW149663   4.735   0.529   8.928 -2.0530 -0.7567 -0.5902
47516SOL    HW249664   4.716   0.655   8.847 -0.4073  0.6899  1.1673
47517SOL     OW49665   2.489   3.976   1.776 -0.4395  0.0030  0.2796
47517SOL    HW149666   2.458   4.066   1.786  0.2082  0.5781 -2.2266
47517SOL    HW249667   2.584   3.983   1.786 -0.5761 -0.9437  2.9747
47518SOL     OW49668   3.898   1.933   2.858 -0.1053 -0.2574  0.0637
47518SOL    HW149669   3.979   1.891   2.829  0.1173 -0.8549  1.5099
47518SOL    HW249670   3.911   2.026   2.838  0.6025 -0.4566 -0.4330
47519SOL     OW49671   6.719   7.639  11.541 -0.5935 -0.3736 -0.0820
47519SOL    HW149672   6.789   7.704  11.551 -0.9800 -0.2032  1.9108
47519SOL    HW249673   6.731   7.579  11.615 -2.8462 -0.0174  0.6495
47520SOL     OW49674   5.500   8.781   1.616 -0.2150 -0.3280 -0.2992
47520SOL    HW149675   5.522   8.832   1.694 -1.0790 -0.8157  0.2781
47520SOL    HW249676   5.418   8.818   1.584  1.4752  1.7370 -2.6678
47521SOL     OW49677  11.101   1.851   2.828 -0.3973  0.1574 -0.1261
47521SOL    HW149678  11.152   1.895   2.759 -0.5368 -0.6388 -0.7454
47521SOL    HW249679  11.017   1.831   2.787 -0.5228 -0.2262  0.3148
47522SOL     OW49680   5.433   5.525   4.317 -0.1951  0.0877 -0.0705
47522SOL    HW149681   5.401   5.441   4.283  1.0884  0.3731 -2.1238
47522SOL    HW249682   5.477   5.501   4.399 -1.0279 -1.0281  0.0870
47523SOL     OW49683   9.911   9.944   4.139  0.5230  0.2919  0.2072
47523SOL    HW149684   9.989   9.991   4.168 -0.5906  1.3697  1.6197
47523SOL    HW249685   9.890   9.887   4.212  1.5949 -2.2066 -1.3075
47524SOL     OW49686  11.295   5.231   8.026  0.6076 -0.1834  0.4240
47524SOL    HW149687  11.266   5.140   8.024 -1.3844  0.3958 -2.0052
47524SOL    HW249688  11.249   5.269   8.102 -0.1669 -0.7271  0.2338
47525SOL     OW49689  12.723   7.648   0.460  0.1312 -0.5165  0.4690
47525SOL    HW149690  12.670   7.655   0.539  0.6289 -0.8134  0.8401
47525SOL    HW249691  12.768   7.564   0.469  2.3178  0.6598  1.2120
47526SOL     OW49692  11.246   1.770   2.520  0.4446 -0.0821  0.4002
47526SOL    HW149693  11.319   1.755   2.580  2.6129 -2.3441 -2.5229
47526SOL    HW249694  11.191   1.692   2.529 -1.2929  1.2432  1.9876
47527SOL     OW49695   7.881  10.196   6.473  0.2123 -0.3011 -0.5362
47527SOL    HW149696   7.821  10.265   6.502  1.2523  1.0882 -1.5180
47527SOL    HW249697   7.896  10.142   6.550 -2.3987 -0.7949 -0.2992
47528SOL     OW49698   0.280  10.565   2.114 -0.1781 -0.3224  0.0037
47528SOL    HW149699   0.296  10.651   2.076 -0.3915  0.2841  1.2555
47528SOL    HW249700   0.341  10.560   2.188 -0.9635 -0.7851  0.6299
47529SOL     OW49701   2.856   2.190   2.412 -0.2528 -0.0432 -0.3570
47529SOL    HW149702   2.826   2.246   2.484 -1.0270 -2.1177  1.0098
47529SOL    HW249703   2.794   2.118   2.410  0.7365 -0.9025 -2.0319
47530SOL     OW49704   9.263   5.843  10.949  0.0051  0.3407 -0.2758
47530SOL    HW149705   9.343   5.825  10.900 -0.4357  0.0429 -0.9011
47530SOL    HW249706   9.287   5.913  11.009  0.1736  1.7437 -1.9182
47531SOL     OW49707   5.869   4.555   9.748  0.0224 -0.3204 -0.2864
47531SOL    HW149708   5.875   4.563   9.843  2.3782  2.0818 -0.5216
47531SOL    HW249709   5.898   4.466   9.729  0.7649 -0.4177  1.1824
47532SOL     OW49710   1.941   0.383   9.132  0.3540  0.1792 -0.1580
47532SOL    HW149711   1.993   0.462   9.119  0.4210  0.1442 -0.1090
47532SOL    HW249712   1.906   0.392   9.221  0.1372  0.2828 -0.2543
47533SOL     OW49713  12.353   6.010   7.989  0.2258 -0.1781  0.0353
47533SOL    HW149714  12.417   6.078   7.968  1.1430 -1.3085 -0.9413
47533SOL    HW249715  12.379   5.978   8.076  0.3829  0.0444  0.0710
47534SOL     OW49716   3.605  11.842   5.079 -0.4357  0.1550 -0.2643
47534SOL    HW149717   3.639  11.801   5.159 -1.9725  0.3739  0.5482
47534SOL    HW249718   3.683  11.872   5.032  0.5245 -0.2719  0.9990
47535SOL     OW49719   3.333   1.321   9.406 -0.1671  0.4989  0.0227
47535SOL    HW149720   3.259   1.262   9.394 -0.2618  0.8816 -1.4359
47535SOL    HW249721   3.365   1.302   9.494 -1.5558 -0.1605  0.4043
47536SOL     OW49722   1.400  11.960   5.020 -0.2658  0.5343  0.9640
47536SOL    HW149723   1.357  12.040   5.050 -0.5095  0.0799  1.8346
47536SOL    HW249724   1.328  11.898   5.006  0.1135 -0.4792  3.1659
47537SOL     OW49725  11.035   3.517   2.146  0.5779 -0.4095 -0.0758
47537SOL    HW149726  10.941   3.535   2.152  0.7581  0.2356  0.9530
47537SOL    HW249727  11.060   3.555   2.062  0.0778  0.1821  0.0300
47538SOL     OW49728   0.973   6.276   0.867 -0.3372  0.0834 -0.4599
47538SOL    HW149729   0.995   6.191   0.905  0.6409 -0.0268 -1.2365
47538SOL    HW249730   0.939   6.255   0.780 -2.3191  0.3470  0.2072
47539SOL     OW49731   2.042  11.333   9.968 -0.3532  0.0017 -0.0704
47539SOL    HW149732   1.990  11.271  10.020  1.1843 -0.9713  0.3803
47539SOL    HW249733   2.094  11.381  10.032  0.2106  0.0826 -0.5757
47540SOL     OW49734   5.342   3.974   2.760  0.1453 -0.5328  0.9164
47540SOL    HW149735   5.299   3.929   2.832 -1.2319 -1.0321 -0.1640
47540SOL    HW249736   5.342   4.067   2.786 -1.5081 -0.5299  1.0189
47541SOL     OW49737   0.752   1.114  10.812  0.2704 -0.0369 -0.1843
47541SOL    HW149738   0.807   1.042  10.843 -0.8289 -0.6151  0.4575
47541SOL    HW249739   0.768   1.185  10.874 -0.0216 -0.3425  0.2438
47542SOL     OW49740   3.949   3.437   0.188  0.5497 -0.3887 -0.5727
47542SOL    HW149741   4.031   3.479   0.212  1.1902 -1.3862 -0.9579
47542SOL    HW249742   3.882   3.487   0.235  1.4143  0.1264  0.1431
47543SOL     OW49743  12.399  11.007   9.516  0.3685 -0.1606  0.5609
47543SOL    HW149744  12.390  11.052   9.433  1.4019  0.8820  0.9840
47543SOL    HW249745  12.315  11.020   9.561 -0.2239 -0.8089 -0.3339
47544SOL     OW49746   8.966  12.054   7.291 -0.4211  0.1663  0.1451
47544SOL    HW149747   8.914  12.134   7.287  0.7233  0.9676  0.6472
47544SOL    HW249748   9.044  12.073   7.238 -1.5628 -1.7974 -2.4933
47545SOL     OW49749   3.994  11.753   1.796 -0.2935 -0.6002  0.0581
47545SOL    HW149750   3.955  11.682   1.745 -0.2865  0.0784 -0.9362
47545SOL    HW249751   3.990  11.723   1.887 -2.4623 -0.8458 -0.0807
47546SOL     OW49752  11.632  12.957   4.469 -0.6846 -0.2019 -0.2677
47546SOL    HW149753  11.645  13.004   4.387 -1.1009 -1.4752 -1.0905
47546SOL    HW249754  11.714  12.911   4.484 -1.5093 -2.1518 -1.4446
47547SOL     OW49755  12.538   1.986   6.031  0.7360  0.1979 -0.8180
47547SOL    HW149756  12.495   1.900   6.027 -0.7600  0.7011  1.9764
47547SOL    HW249757  12.494   2.037   5.963 -0.1197 -0.5365 -0.8467
47548SOL     OW49758   2.565   4.164   7.068  0.4817  0.5829  0.5416
47548SOL    HW149759   2.636   4.107   7.100  0.3302  1.0668  1.8097
47548SOL    HW249760   2.509   4.105   7.018  2.7306  0.5371 -2.1785
47549SOL     OW49761   4.587  11.513  10.826  0.2060  0.2263  0.3059
47549SOL    HW149762   4.544  11.560  10.897 -0.2593  0.0833  0.1215
47549SOL    HW249763   4.552  11.551  10.746  0.7363  0.3933  0.1484
47550SOL     OW49764  11.142   0.142   1.384 -0.1914  0.2410 -0.3444
47550SOL    HW149765  11.202   0.196   1.332  0.2265  0.3589  0.2488
47550SOL    HW249766  11.107   0.078   1.322 -0.6092  1.1197 -1.0373
47551SOL     OW49767   9.348   2.021   4.088 -0.3255 -0.5331  0.1562
47551SOL    HW149768   9.354   2.038   4.183 -0.0374 -3.0137  0.6548
47551SOL    HW249769   9.262   1.983   4.076 -0.6265  0.3978 -0.7343
47552SOL     OW49770   1.886   0.958  12.341 -0.0720 -0.1047  0.5368
47552SOL    HW149771   1.960   0.912  12.380  1.0797  0.1177 -1.3030
47552SOL    HW249772   1.925   1.018  12.278 -1.8679 -0.8994 -1.4251
47553SOL     OW49773  10.757   6.558   0.411 -0.1881  0.1730  0.1347
47553SOL    HW149774  10.818   6.487   0.429 -1.0710 -0.7215 -0.2658
47553SOL    HW249775  10.741   6.552   0.316 -1.0180  0.2741  0.2577
47554SOL     OW49776   9.960  11.723   8.010  0.2910  0.7967 -0.5733
47554SOL    HW149777   9.944  11.758   8.098  1.2503  0.2423 -0.1644
47554SOL    HW249778  10.000  11.795   7.962  0.2521  0.9336 -0.4011
47555SOL     OW49779  10.873  12.442  11.392 -0.0924  0.3594  0.1841
47555SOL    HW149780  10.839  12.455  11.480  0.7294 -0.0924  0.5721
47555SOL    HW249781  10.804  12.477  11.335 -1.0078 -0.1218  0.9624
47556SOL     OW49782   4.111   9.390   3.609  0.3816  0.5458 -0.2300
47556SOL    HW149783   4.111   9.341   3.526  0.8863 -2.4750  1.3995
47556SOL    HW249784   4.203   9.411   3.624  0.0279  3.8530 -1.7700
47557SOL     OW49785   0.988   6.980   1.566  0.1364 -0.1711  0.1481
47557SOL    HW149786   0.955   6.932   1.642  0.4865 -1.0736 -0.2584
47557SOL    HW249787   0.913   6.984   1.506 -0.4020  1.3120  0.8895
47558SOL     OW49788   0.019   6.274  11.257 -0.8341 -0.2473 -0.0265
47558SOL    HW149789  -0.051   6.240  11.312 -0.9623 -0.4670 -0.3204
47558SOL    HW249790   0.085   6.307  11.319 -0.6307 -1.1796  0.2709
47559SOL     OW49791  10.168   9.986   8.938  0.3948 -0.1325  0.0665
47559SOL    HW149792  10.113   9.982   9.016 -1.0586  1.5286 -0.8145
47559SOL    HW249793  10.166   9.897   8.902  0.6702 -0.7868  1.6186
47560SOL     OW49794   2.783  11.785  11.350 -0.1353 -0.0360  0.2843
47560SOL    HW149795   2.855  11.818  11.296 -1.6978  1.3358 -1.0407
47560SOL    HW249796   2.717  11.756  11.287 -1.7699  1.0298  1.4345
47561SOL     OW49797   2.341   4.137   0.285  0.0762  0.2373 -0.0744
47561SOL    HW149798   2.325   4.202   0.216 -2.5559 -0.1873  0.0343
47561SOL    HW249799   2.352   4.054   0.238  0.8957  0.3532 -0.0932
47562SOL     OW49800   0.015   4.666   6.764 -0.0937  0.4641  0.5655
47562SOL    HW149801  -0.065   4.665   6.712 -0.9587 -0.0965  1.8365
47562SOL    HW249802   0.007   4.589   6.821  0.7843  1.0689  1.5424
47563SOL     OW49803   1.011   3.597   0.203  0.2317  0.0017  0.0736
47563SOL    HW149804   1.078   3.640   0.150  3.8425 -0.5717  3.6638
47563SOL    HW249805   1.010   3.506   0.172  1.3331 -0.0307  0.1064
47564SOL     OW49806  11.930   3.122   2.017 -0.2889  0.1598  0.4552
47564SOL    HW149807  11.948   3.096   1.927 -0.3904 -0.2834  0.5585
47564SOL    HW249808  12.008   3.093   2.066  0.7167  2.2499  0.1931
47565SOL     OW49809   6.260   1.367   1.513 -0.7159 -0.3967  0.3314
47565SOL    HW149810   6.194   1.415   1.562 -1.6317 -0.9497 -0.3174
47565SOL    HW249811   6.222   1.279   1.502  0.2925 -0.8400  0.2734
47566SOL     OW49812  11.296   8.996   4.189  0.1313  0.2231  0.2560
47566SOL    HW149813  11.272   8.957   4.105 -1.3292  0.9206  0.3305
47566SOL    HW249814  11.359   8.934   4.226  0.8066 -0.1018 -1.3346
47567SOL     OW49815   1.556   4.390  12.602  0.3241  0.1580 -0.1344
47567SOL    HW149816   1.507   4.326  12.550  3.3912 -3.2579  0.7819
47567SOL    HW249817   1.605   4.440  12.537  0.8054 -1.1070 -0.7842
47568SOL     OW49818   3.662   4.651  10.788 -0.0356 -0.3887  0.6132
47568SOL    HW149819   3.704   4.571  10.755  0.5901 -0.7657  2.2190
47568SOL    HW249820   3.718   4.722  10.755 -0.6926 -0.5601 -0.9680
47569SOL     OW49821   9.615   0.164   7.283 -0.6906 -0.0626  0.1561
47569SOL    HW149822   9.645   0.088   7.233  0.2995  1.5931 -1.8915
47569SOL    HW249823   9.675   0.169   7.357 -0.5057 -1.0049  0.0818
47570SOL     OW49824   9.895   1.765   4.230 -0.1226  0.5367 -0.5912
47570SOL    HW149825   9.886   1.670   4.219  0.3111  0.3773  0.2740
47570SOL    HW249826   9.865   1.781   4.320 -1.5699  1.4279 -1.2039
47571SOL     OW49827   8.999   0.638   9.373  0.2200  0.3191  0.3292
47571SOL    HW149828   9.075   0.694   9.357 -1.1338  2.2654  0.2607
47571SOL    HW249829   9.024   0.552   9.341  1.5070  1.5027 -2.0733
47572SOL     OW49830   4.158  10.062   8.334  0.4199 -0.4475  0.0409
47572SOL    HW149831   4.178  10.155   8.337  1.5533 -0.6746  0.0968
47572SOL    HW249832   4.063  10.058   8.324  0.4061  0.7112 -0.4547
47573SOL     OW49833   3.312  11.047   9.642 -0.0735 -0.3365  0.2714
47573SOL    HW149834   3.302  10.955   9.618 -1.1393  0.2458 -1.7241
47573SOL    HW249835   3.239  11.065   9.701 -0.2742 -0.6011  0.1039
47574SOL     OW49836   6.889   9.864   0.020 -0.1488 -0.0118  0.3246
47574SOL    HW149837   6.930   9.950   0.018 -0.8964  0.3657  0.7243
47574SOL    HW249838   6.864   9.852   0.112  0.5757 -0.9582  0.4076
47575SOL     OW49839   7.262   3.088  12.751 -0.5897  0.1247 -0.0254
47575SOL    HW149840   7.213   3.006  12.764 -0.3299 -0.1278 -0.5960
47575SOL    HW249841   7.195   3.156  12.754 -0.5991  0.1000  2.3754
47576SOL     OW49842   6.164   5.325   5.472  0.9671  0.0277 -0.0178
47576SOL    HW149843   6.090   5.280   5.513  2.0969 -1.1271  0.8820
47576SOL    HW249844   6.219   5.352   5.546  1.0396  1.6231 -0.6247
47577SOL     OW49845   5.525  12.557  12.764 -0.1537 -0.2934 -0.5264
47577SOL    HW149846   5.495  12.474  12.800  1.2413 -0.8163 -0.4834
47577SOL    HW249847   5.507  12.550  12.670  1.3641 -1.3431 -0.7818
47578SOL     OW49848   8.196   9.886   0.058 -0.2992  0.0910 -0.3337
47578SOL    HW149849   8.141   9.807   0.058  0.0046 -0.1279  0.0789
47578SOL    HW249850   8.284   9.853   0.078 -0.2928  0.6094  0.5814
47579SOL     OW49851  11.446   0.939   1.896  0.6120  0.1234 -0.5702
47579SOL    HW149852  11.532   0.937   1.854  0.5092  1.1402 -0.8788
47579SOL    HW249853  11.404   0.858   1.870  1.4489 -0.3616 -0.4629
47580SOL     OW49854  12.858   9.025   8.934 -0.1205 -0.7198 -0.0202
47580SOL    HW149855  12.894   9.002   8.848  1.7639 -1.5799  0.9357
47580SOL    HW249856  12.870   9.120   8.940  4.6833 -1.1172  1.2000
47581SOL     OW49857  12.029   5.224   5.377  0.5166  0.2130  0.0691
47581SOL    HW149858  12.125   5.220   5.381  0.5024  0.0775  0.2942
47581SOL    HW249859  12.006   5.162   5.307  0.6246  0.6976 -0.3981
47582SOL     OW49860   7.887  11.768  10.177 -0.0640  0.0332  0.2883
47582SOL    HW149861   7.921  11.788  10.264 -2.6177  0.3786  1.3179
47582SOL    HW249862   7.945  11.814  10.117  0.9445  0.9550  1.8952
47583SOL     OW49863   1.227  10.099   0.832 -0.2118  0.1235 -0.3557
47583SOL    HW149864   1.164  10.118   0.763 -0.6908  1.0664  0.3118
47583SOL    HW249865   1.281  10.179   0.838 -0.1715  0.0544  0.3346
47584SOL     OW49866   2.612  11.774   8.955 -0.3256  0.5552 -0.2451
47584SOL    HW149867   2.530  11.816   8.930 -0.9040 -0.0635  0.5468
47584SOL    HW249868   2.629  11.711   8.885 -1.4877 -0.5763  0.4448
47585SOL     OW49869   9.049   2.785   9.223 -0.2233 -0.6763  0.3118
47585SOL    HW149870   9.116   2.737   9.272  0.1821 -1.7299 -1.2234
47585SOL    HW249871   8.969   2.775   9.276  0.3999 -1.0169  1.2079
47586SOL     OW49872   8.513  10.776   6.796  0.3060 -0.0737  0.3266
47586SOL    HW149873   8.470  10.852   6.757  0.1749 -0.0383  0.5367
47586SOL    HW249874   8.458  10.702   6.772 -0.0755  0.0155  0.8915
47587SOL     OW49875   1.052   2.719   9.325  0.1714  0.1459  0.5503
47587SOL    HW149876   1.008   2.767   9.256  1.2868  0.4487  0.0274
47587SOL    HW249877   1.068   2.784   9.393 -0.6302 -0.0795  0.9702
47588SOL     OW49878   4.507   2.108   7.537 -0.2281 -0.0840 -0.0519
47588SOL    HW149879   4.496   2.025   7.583  0.4662 -0.2303 -0.1230
47588SOL    HW249880   4.424   2.154   7.548  0.0893  0.1234  1.7983
47589SOL     OW49881   4.477   3.348   4.375  0.7922 -0.9853  0.3027
47589SOL    HW149882   4.552   3.368   4.432  0.6372  1.0069 -0.1242
47589SOL    HW249883   4.498   3.391   4.292 -0.8962 -0.2337  0.2256
47590SOL     OW49884  12.950   6.648   4.044  0.5729 -0.0802 -0.4226
47590SOL    HW149885  12.956   6.589   4.118  0.4102 -0.4398 -0.6949
47590SOL    HW249886  12.874   6.618   3.995  1.2112 -0.4203 -1.2328
47591SOL     OW49887  10.798  10.564   4.064 -0.1832  0.2303  0.2665
47591SOL    HW149888  10.804  10.658   4.050  1.3976  0.3781  1.7193
47591SOL    HW249889  10.737  10.554   4.137 -0.8593  0.0511 -0.3016
47592SOL     OW49890   7.620   3.878   8.208 -0.8263  0.8299 -0.1842
47592SOL    HW149891   7.645   3.821   8.280 -0.7713  0.1215 -0.7460
47592SOL    HW249892   7.541   3.838   8.172 -0.5394  0.8614 -0.8611
47593SOL     OW49893   4.929   4.135   0.222 -0.3420 -0.2452 -0.0136
47593SOL    HW149894   4.933   4.223   0.186 -2.2076  0.6865  1.8506
47593SOL    HW249895   5.021   4.109   0.232  0.2824  1.9829  0.5493
47594SOL     OW49896   6.146   9.967  10.592 -0.2537  0.5314  0.3506
47594SOL    HW149897   6.191  10.029  10.535  0.0398  0.4958  0.5451
47594SOL    HW249898   6.096   9.911  10.532  1.0060 -0.2855  0.0279
47595SOL     OW49899   2.407   4.992   7.761 -0.3892 -0.0374  0.6035
47595SOL    HW149900   2.321   5.033   7.748 -0.3242  0.5965  2.0311
47595SOL    HW249901   2.447   4.993   7.674 -1.8525 -0.4367 -0.1074
47596SOL     OW49902   1.333   6.576   9.260 -0.5698 -0.5569 -0.4477
47596SOL    HW149903   1.326   6.532   9.175 -0.9042 -0.2486 -0.5812
47596SOL    HW249904   1.424   6.562   9.286 -0.5645 -0.9883 -0.6729
47597SOL     OW49905  10.373   6.823  12.436  0.1595  0.1677 -0.1912
47597SOL    HW149906  10.305   6.796  12.498  0.8875 -0.0470  0.5414
47597SOL    HW249907  10.403   6.908  12.470  0.5841  0.0339 -0.2343
47598SOL     OW49908   2.872   8.593   0.964 -0.2082 -0.1664 -0.5945
47598SOL    HW149909   2.965   8.575   0.979 -0.1314  0.5825 -0.1122
47598SOL    HW249910   2.871   8.657   0.893 -0.3636 -0.3155 -0.7274
47599SOL     OW49911   8.130   3.735  11.331 -0.4509  0.0873 -0.1176
47599SOL    HW149912   8.181   3.661  11.297  1.2296  1.1546 -0.0421
47599SOL    HW249913   8.114   3.712  11.423 -1.1289 -0.7822 -0.4386
47600SOL     OW49914  11.227   7.818   1.064 -0.1336  0.1129  0.1584
47600SOL    HW149915  11.279   7.757   1.117  0.2630  0.0336 -0.3123
47600SOL    HW249916  11.137   7.785   1.071 -0.4942  1.3723  2.5768
47601SOL     OW49917  10.154   6.769   6.562  0.1986  0.4716  0.3552
47601SOL    HW149918  10.194   6.779   6.649  1.2986  0.6179 -0.1579
47601SOL    HW249919  10.196   6.836   6.508 -1.4832  1.3293  0.0289
47602SOL     OW49920   9.402   1.949   1.050  0.5239 -0.1136 -0.2681
47602SOL    HW149921   9.416   1.968   0.957  0.8458 -1.4549 -0.5160
47602SOL    HW249922   9.480   1.985   1.093  0.2374  0.7699 -0.4769
47603SOL     OW49923   0.285  11.829   1.863  0.1344 -0.4420  0.8570
47603SOL    HW149924   0.227  11.753   1.860  0.9333 -1.2092  3.0853
47603SOL    HW249925   0.227  11.901   1.890  0.0345 -1.0737  2.4524
47604SOL     OW49926   2.187  12.568   4.978  0.4915  0.3246  0.6252
47604SOL    HW149927   2.115  12.559   5.041  0.7218 -2.0189  0.6301
47604SOL    HW249928   2.144  12.592   4.896 -0.0848  0.7686  1.0473
47605SOL     OW49929  12.146   9.665   0.200 -0.6394  0.2203  0.2124
47605SOL    HW149930  12.075   9.614   0.161  0.4069 -0.0667 -1.4033
47605SOL    HW249931  12.213   9.671   0.132  1.1418  0.0363  1.8374
47606SOL     OW49932   6.040   4.597   1.682  0.1576 -0.3911 -0.1945
47606SOL    HW149933   6.034   4.669   1.744 -0.3848 -1.0981  0.6035
47606SOL    HW249934   6.054   4.519   1.737 -1.5670 -1.2101 -0.8372
47607SOL     OW49935   5.717   4.101   4.515  0.3721 -0.4837 -0.1274
47607SOL    HW149936   5.647   4.076   4.575  0.6541  0.9673  0.8681
47607SOL    HW249937   5.674   4.161   4.453  0.3708 -0.9401 -0.5738
47608SOL     OW49938  11.342   4.284   4.671  0.2551 -0.0658  0.1894
47608SOL    HW149939  11.323   4.190   4.674  0.8035 -0.1648  2.4299
47608SOL    HW249940  11.437   4.289   4.677  0.2370  0.6355 -0.0533
47609SOL     OW49941  10.854   9.568  10.059 -0.2967 -0.6163 -0.2054
47609SOL    HW149942  10.872   9.493  10.117 -0.8935 -0.5826  0.0361
47609SOL    HW249943  10.929   9.571   9.999  0.7913 -0.1195  1.1145
47610SOL     OW49944  10.259   8.947   9.989  0.1027 -0.8258  0.5963
47610SOL    HW149945  10.263   8.876  10.053  0.7929 -1.2347  0.1119
47610SOL    HW249946  10.296   9.023  10.035 -1.1741 -0.6177  1.3094
47611SOL     OW49947   7.765  10.858   4.111 -0.0829 -0.5231 -0.0996
47611SOL    HW149948   7.777  10.938   4.162  2.7314 -2.2861  2.3340
47611SOL    HW249949   7.788  10.884   4.021 -0.0178  1.5533  0.4638
47612SOL     OW49950   4.831   2.164   3.602 -0.0841 -0.3279  0.3363
47612SOL    HW149951   4.776   2.086   3.615 -0.7828 -0.1057 -1.1243
47612SOL    HW249952   4.896   2.159   3.672 -0.4418 -1.9413  0.5920
47613SOL     OW49953   3.216  11.374   2.455  0.0406 -0.0949 -0.3222
47613SOL    HW149954   3.137  11.409   2.413 -0.1604 -1.1155 -0.8413
47613SOL    HW249955   3.183  11.308   2.516  0.4888 -0.6993 -0.7173
47614SOL     OW49956  11.576  10.542   0.891  0.2032  0.3305  0.2616
47614SOL    HW149957  11.520  10.475   0.931 -1.1159  1.4630  0.3972
47614SOL    HW249958  11.554  10.539   0.798 -1.1064  1.6632  0.4952
47615SOL     OW49959   0.797   8.316   6.592 -0.1912 -0.2065  0.0275
47615SOL    HW149960   0.867   8.326   6.527 -0.0057  0.8239  0.3809
47615SOL    HW249961   0.720   8.356   6.551 -0.2991 -0.3567  0.0817
47616SOL     OW49962   5.737   4.381  11.126 -0.2172  0.0183 -0.6797
47616SOL    HW149963   5.822   4.338  11.134  0.0989  0.8298  0.6518
47616SOL    HW249964   5.675   4.320  11.167 -0.7259 -1.6089 -3.5905
47617SOL     OW49965   4.470   9.342   1.952  0.3914 -0.3721  0.2695
47617SOL    HW149966   4.430   9.405   2.012  0.8100  1.1906 -1.0322
47617SOL    HW249967   4.562   9.367   1.948  0.4459 -0.6809 -0.7235
47618SOL     OW49968   2.902   7.517   1.527  0.0424  0.4127  0.5471
47618SOL    HW149969   2.943   7.512   1.441 -0.3815 -1.1122  0.4162
47618SOL    HW249970   2.840   7.589   1.520 -0.5249 -0.1756 -0.6616
47619SOL     OW49971   4.293   0.238   7.431 -0.3905  0.5306 -0.3790
47619SOL    HW149972   4.283   0.309   7.495  1.6693  0.5412  0.0021
47619SOL    HW249973   4.283   0.158   7.482  2.7851  0.4976  0.4033
47620SOL     OW49974  11.117  11.882   7.015  0.0415 -0.5902 -0.0031
47620SOL    HW149975  11.181  11.849   7.078  0.8804 -1.6023 -1.3284
47620SOL    HW249976  11.169  11.934   6.954 -0.0292 -2.7822 -2.0715
47621SOL     OW49977   7.904  12.672   0.128  0.0014 -0.6653 -0.1055
47621SOL    HW149978   7.823  12.686   0.079  0.4630  0.1244 -0.6729
47621SOL    HW249979   7.972  12.666   0.061  0.6147  0.2235  0.4041
47622SOL     OW49980   6.826  11.282   2.664 -0.2961  0.2901  0.2086
47622SOL    HW149981   6.837  11.373   2.634 -0.8436  0.1922 -0.3290
47622SOL    HW249982   6.843  11.285   2.758 -0.2554  0.9452  0.1874
47623SOL     OW49983   9.557  10.737   5.291  0.3416 -0.2383 -0.4773
47623SOL    HW149984   9.497  10.719   5.363 -0.5534 -0.4529 -1.2584
47623SOL    HW249985   9.641  10.752   5.334 -0.6744  2.3001  0.8473
47624SOL     OW49986   5.552   1.018   3.192 -0.0505  0.2730 -0.3674
47624SOL    HW149987   5.623   0.971   3.149 -1.2555 -3.2511  1.1051
47624SOL    HW249988   5.577   1.022   3.285 -0.7595  1.0294 -0.1891
47625SOL     OW49989   1.599   0.806   5.871  0.0465 -0.1783 -0.2046
47625SOL    HW149990   1.659   0.848   5.809 -1.0637  0.5113 -0.8468
47625SOL    HW249991   1.565   0.878   5.924  0.6203 -0.7077  0.9051
47626SOL     OW49992   5.342   4.562   3.181  0.4785  0.2806 -1.1087
47626SOL    HW149993   5.314   4.473   3.162 -0.9235  0.3676  0.3581
47626SOL    HW249994   5.435   4.564   3.158  0.3528 -1.3299 -1.8454
47627SOL     OW49995  10.584   3.705  12.322  0.2405 -0.9381 -0.4161
47627SOL    HW149996  10.575   3.695  12.227  0.3214 -0.5339 -0.4661
47627SOL    HW249997  10.588   3.799  12.336  0.4085 -1.0029 -0.0258
47628SOL     OW49998  11.917   0.690  10.251  0.0039  0.1244 -0.9070
47628SOL    HW149999  11.913   0.660  10.160  2.3363  0.3039 -1.1466
47628SOL    HW250000  11.965   0.772  10.248 -1.1217  0.8746  0.3705
47629SOL     OW50001   5.456   8.118   7.851 -0.2936 -0.3955 -0.0840
47629SOL    HW150002   5.455   8.210   7.826 -2.7097 -0.1871  0.5788
47629SOL    HW250003   5.480   8.119   7.944  1.7903 -0.6649 -0.5543
47630SOL     OW50004   1.258  12.469   8.446 -0.1165 -0.7571  0.4797
47630SOL    HW150005   1.335  12.451   8.499 -0.0834 -1.9037  0.0627
47630SOL    HW250006   1.293  12.498   8.362 -0.1209 -1.4254  0.2381
47631SOL     OW50007   1.420   7.597  12.822 -0.1232  0.1450  0.5221
47631SOL    HW150008   1.377   7.669  12.776  0.7031  1.0212  1.0777
47631SOL    HW250009   1.359   7.572  12.891 -0.7993 -0.2954 -0.2227
47632SOL     OW50010  11.009   4.134   3.902  0.0313 -0.2583  0.5204
47632SOL    HW150011  11.083   4.122   3.963 -0.1092 -1.7283  0.4281
47632SOL    HW250012  11.032   4.213   3.853  1.3249 -0.4212  0.8123
47633SOL     OW50013   2.692   3.094   9.596  0.4386 -0.0335  0.4918
47633SOL    HW150014   2.710   3.143   9.516  1.3014  0.0049  0.7000
47633SOL    HW250015   2.618   3.140   9.636  0.0017 -0.0504 -0.2699
47634SOL     OW50016   5.358  12.426  12.173  0.2966 -0.1102 -0.0915
47634SOL    HW150017   5.421  12.496  12.155 -0.6578  0.2374 -2.6040
47634SOL    HW250018   5.305  12.459  12.245  0.3389  1.4566 -0.7338
47635SOL     OW50019   8.848  10.335   5.790 -0.3087 -0.4901 -0.1575
47635SOL    HW150020   8.793  10.283   5.848 -1.4120  0.7017 -0.0873
47635SOL    HW250021   8.788  10.398   5.749  0.7150 -0.2329 -1.3597
47636SOL     OW50022   0.274   9.405  11.128 -0.1019  0.0627 -0.0371
47636SOL    HW150023   0.366   9.383  11.140 -0.4642 -0.9866  1.0659
47636SOL    HW250024   0.238   9.331  11.079 -0.1056  1.0851 -1.6373
47637SOL     OW50025  11.516   2.419  10.210  0.4157  0.3897  0.0340
47637SOL    HW150026  11.420   2.422  10.204  0.2826 -1.2866  0.8775
47637SOL    HW250027  11.546   2.433  10.120 -0.6014  1.0084 -0.2308
47638SOL     OW50028   2.685   4.632   4.893  0.6995  0.4464  0.7850
47638SOL    HW150029   2.629   4.562   4.858  2.0868 -0.7646  0.9014
47638SOL    HW250030   2.651   4.648   4.981  1.1303 -0.9794  1.2313
47639SOL     OW50031   6.205  11.108  11.743  0.4221  0.2155 -0.0963
47639SOL    HW150032   6.117  11.142  11.757  0.4931 -0.3201  1.9996
47639SOL    HW250033   6.258  11.186  11.725 -0.1251  0.7645  0.6187
47640SOL     OW50034  10.728   0.761  12.798 -0.6079  0.4859 -0.4091
47640SOL    HW150035  10.769   0.737  12.715 -0.9479 -1.6977 -0.0024
47640SOL    HW250036  10.667   0.689  12.817  0.7833 -0.0650  2.5989
47641SOL     OW50037  12.595   5.387   7.818 -0.4267  0.3508 -0.0962
47641SOL    HW150038  12.685   5.409   7.843  0.1683  0.1729 -1.9091
47641SOL    HW250039  12.549   5.471   7.818 -0.1350  0.5165  0.3350
47642SOL     OW50040   2.266   6.754   2.178  0.1999 -0.9270  0.2310
47642SOL    HW150041   2.234   6.827   2.231  0.2866 -1.3635  0.8952
47642SOL    HW250042   2.319   6.702   2.238  2.7466  0.1107 -0.9593
47643SOL     OW50043   9.144   0.499  10.727  0.5441 -0.1836  0.6275
47643SOL    HW150044   9.170   0.590  10.740 -1.0410  0.2586  0.9574
47643SOL    HW250045   9.100   0.500  10.641  0.4011 -0.5983  0.6964
47644SOL     OW50046   4.900  11.281  10.248  0.3992 -0.4333 -0.0641
47644SOL    HW150047   4.831  11.301  10.184  1.4649  0.8903 -0.8628
47644SOL    HW250048   4.885  11.190  10.272 -1.1276 -0.4124 -0.8425
47645SOL     OW50049   8.647   6.571   4.042  0.3446  0.6830  0.1626
47645SOL    HW150050   8.558   6.601   4.061  0.2795 -0.2790  1.5739
47645SOL    HW250051   8.662   6.500   4.105  1.3495 -0.5952 -1.4410
47646SOL     OW50052   7.427   4.890   0.336  0.0134  0.3152 -0.2758
47646SOL    HW150053   7.504   4.944   0.319  1.5263 -0.7796  2.5246
47646SOL    HW250054   7.404   4.854   0.250  4.4092 -1.5814 -0.8755
47647SOL     OW50055   5.623  10.543   4.140 -0.0851 -0.0703  0.0089
47647SOL    HW150056   5.577  10.595   4.075 -0.5265  0.1136  0.4534
47647SOL    HW250057   5.688  10.493   4.091  0.4963  1.0573 -0.3929
47648SOL     OW50058   0.918   9.733   5.213  0.3799 -0.5779  0.1453
47648SOL    HW150059   1.006   9.698   5.227  0.1962 -1.0218  0.2148
47648SOL    HW250060   0.875   9.669   5.157  0.0053 -0.5149  0.3546
47649SOL     OW50061  12.323  11.411   8.337  0.0354  0.5372 -0.1878
47649SOL    HW150062  12.253  11.434   8.398  0.2871  0.6023  0.0751
47649SOL    HW250063  12.361  11.495   8.311  0.5173  0.4581  0.2618
47650SOL     OW50064   7.475   6.031   2.772  0.2285 -0.2131 -0.2478
47650SOL    HW150065   7.547   6.082   2.735  0.6678  0.3168  1.2377
47650SOL    HW250066   7.472   6.058   2.864 -1.1255 -1.0842 -0.0091
47651SOL     OW50067   0.083   6.288   5.043 -0.3456  0.5992  0.2328
47651SOL    HW150068   0.057   6.240   4.964  2.7072  0.4136 -0.7913
47651SOL    HW250069   0.124   6.221   5.099  2.2463  1.5345 -0.3940
47652SOL     OW50070  10.699   6.084   9.465  0.0440  0.2216 -0.1004
47652SOL    HW150071  10.637   6.147   9.501 -0.0326  0.9429 -1.4275
47652SOL    HW250072  10.772   6.083   9.528 -0.5975  0.5375  0.6661
47653SOL     OW50073   3.031   9.632   2.142  0.4421  0.3244 -0.8938
47653SOL    HW150074   2.964   9.611   2.077  0.6763 -3.8223 -0.0644
47653SOL    HW250075   3.113   9.638   2.092  0.3577 -1.0483 -1.2268
47654SOL     OW50076   3.544   8.505   4.919 -0.1393  0.2891 -0.2767
47654SOL    HW150077   3.455   8.481   4.896 -0.4483 -0.1532  1.2543
47654SOL    HW250078   3.540   8.600   4.935 -0.2309  0.3415 -0.6020
47655SOL     OW50079   9.079  12.588  11.884  0.0211  0.0479 -0.0284
47655SOL    HW150080   9.040  12.559  11.966 -0.4054 -1.4186 -0.7199
47655SOL    HW250081   9.137  12.516  11.858  1.1834  1.0683 -0.3496
47656SOL     OW50082   2.618  12.234   6.521  0.0643 -0.1480 -1.0743
47656SOL    HW150083   2.607  12.328   6.505 -1.9532 -0.2302 -0.3676
47656SOL    HW250084   2.529  12.201   6.531  0.8148 -1.6767  1.3026
47657SOL     OW50085   5.959   7.881   8.036 -0.1072  0.4396 -0.1912
47657SOL    HW150086   6.021   7.953   8.034 -0.3057  0.6044 -0.4787
47657SOL    HW250087   5.873   7.923   8.040 -0.3505  0.2803 -2.5499
47658SOL     OW50088   0.924   5.178   9.527  0.1712  0.4893  0.4411
47658SOL    HW150089   0.841   5.148   9.488 -0.3660  1.2360  0.9656
47658SOL    HW250090   0.985   5.180   9.454 -0.5900  1.0327 -0.2086
47659SOL     OW50091   9.692   3.636  11.071  0.8524 -0.1750  0.4172
47659SOL    HW150092   9.733   3.717  11.041 -0.6319  0.2351 -0.6065
47659SOL    HW250093   9.667   3.654  11.161 -0.3168  0.8754 -0.0886
47660SOL     OW50094   3.663   0.239   2.616 -0.3589 -0.6641 -0.0441
47660SOL    HW150095   3.610   0.273   2.544 -0.2410  0.4355  0.3628
47660SOL    HW250096   3.741   0.203   2.574 -0.1848  0.1658 -0.4670
47661SOL     OW50097   6.968  11.815   7.207  0.4479 -0.7752  0.5219
47661SOL    HW150098   6.889  11.769   7.238  0.4573 -1.1315  0.0193
47661SOL    HW250099   6.985  11.880   7.275 -0.0651 -0.9443  0.8216
47662SOL     OW50100   9.242   4.575   3.942  0.3083  0.4490  0.6098
47662SOL    HW150101   9.218   4.636   3.872  0.6634 -0.8043 -0.6433
47662SOL    HW250102   9.159   4.556   3.987 -0.4443 -0.8259 -1.2139
47663SOL     OW50103  11.037   3.475   4.200  0.3435 -0.1029  0.5662
47663SOL    HW150104  11.086   3.393   4.212 -1.2377 -1.3436 -0.9527
47663SOL    HW250105  11.055   3.500   4.109 -0.1315  0.5967  0.6617
47664SOL     OW50106  12.756   0.112   6.876 -0.3649 -0.0846 -0.0564
47664SOL    HW150107  12.840   0.157   6.869 -0.5584  0.1026 -1.5450
47664SOL    HW250108  12.777   0.020   6.860 -0.4227 -0.0532 -0.3156
47665SOL     OW50109  10.770   8.983   5.600 -0.6806 -0.8294 -0.3277
47665SOL    HW150110  10.859   8.982   5.633 -0.8000 -0.7432  0.0065
47665SOL    HW250111  10.735   8.897   5.621 -1.0510 -0.4643  0.6016
47666SOL     OW50112   0.640   3.571   9.063  0.1319 -0.2639 -0.4777
47666SOL    HW150113   0.643   3.510   9.137 -0.3419  0.7820  0.4321
47666SOL    HW250114   0.569   3.631   9.084  0.2318  0.2865 -1.6145
47667SOL     OW50115   7.585   0.331   7.284 -0.0855 -0.4119 -0.0639
47667SOL    HW150116   7.668   0.372   7.309 -0.0979  0.1735 -0.9441
47667SOL    HW250117   7.518   0.394   7.310 -0.1338 -0.0723 -0.9833
47668SOL     OW50118   6.931  11.929   0.240  0.3709  0.4282  0.3561
47668SOL    HW150119   6.899  12.004   0.190 -1.1316 -0.9949 -0.8971
47668SOL    HW250120   6.891  11.938   0.326 -0.9627  0.3359 -0.2331
47669SOL     OW50121   4.273   5.660   0.625  0.2200 -0.3514 -0.2265
47669SOL    HW150122   4.220   5.676   0.547  1.2082  0.8633 -0.6947
47669SOL    HW250123   4.326   5.740   0.635  0.4289 -0.6512  1.4423
47670SOL     OW50124   8.781   2.421  11.263 -0.2026 -0.5844 -0.5103
47670SOL    HW150125   8.689   2.397  11.249 -1.2371  0.5796  3.0683
47670SOL    HW250126   8.782   2.460  11.350  3.4433  1.0638 -1.1044
47671SOL     OW50127   7.434   4.634   0.860 -0.1909 -0.1985 -0.0253
47671SOL    HW150128   7.442   4.595   0.773 -0.7017 -0.0346 -0.1496
47671SOL    HW250129   7.501   4.591   0.912 -0.0512 -0.4820 -0.4372
47672SOL     OW50130   7.931   7.630  12.817  0.3364 -0.3321 -0.0607
47672SOL    HW150131   7.877   7.627  12.738 -0.2890 -0.4455  0.3621
47672SOL    HW250132   8.020   7.614  12.786  0.1886  0.2449 -0.8219
47673SOL     OW50133   4.816   0.255   6.471 -0.0865 -0.3056 -0.0046
47673SOL    HW150134   4.797   0.238   6.564 -1.6417 -0.4614 -0.3133
47673SOL    HW250135   4.907   0.229   6.460  0.3117  0.2830  1.6100
47674SOL     OW50136   6.126   2.137   1.496  0.2597 -0.2185 -0.4493
47674SOL    HW150137   6.113   2.076   1.424 -2.6610  0.0682 -0.2709
47674SOL    HW250138   6.138   2.081   1.573 -1.0875 -0.6070 -0.4969
47675SOL     OW50139   9.574   2.904   4.482 -0.3939  0.1644 -0.1171
47675SOL    HW150140   9.544   2.989   4.451  0.9612 -0.1807 -2.6408
47675SOL    HW250141   9.555   2.844   4.409  0.4099 -1.3135  0.8359
47676SOL     OW50142  11.658   8.822   9.981 -0.5547  0.4491  0.4027
47676SOL    HW150143  11.639   8.851  10.070 -1.4015  0.7240  0.1418
47676SOL    HW250144  11.752   8.834   9.971 -0.7383  2.3586  0.5835
47677SOL     OW50145   3.049   5.211  12.562  0.2123  0.1009  0.0005
47677SOL    HW150146   3.126   5.201  12.506  1.1333  0.5299  1.1701
47677SOL    HW250147   3.071   5.165  12.643  0.3175  2.3862  1.3591
47678SOL     OW50148   6.950   8.058   9.486  0.6313  0.0203 -0.1192
47678SOL    HW150149   6.987   8.087   9.569  2.0325  0.1339 -0.7577
47678SOL    HW250150   6.968   7.964   9.484 -0.3630 -0.1884  0.1688
47679SOL     OW50151   1.949  10.787   0.839 -0.1877  0.1709 -0.0544
47679SOL    HW150152   2.016  10.727   0.806 -0.8351 -0.8527  0.4176
47679SOL    HW250153   1.920  10.747   0.921 -1.6397  0.3846 -0.4402
47680SOL     OW50154   2.236   5.318   6.912  0.1105 -0.0722  0.0901
47680SOL    HW150155   2.150   5.302   6.873  1.1795  0.3878 -2.6952
47680SOL    HW250156   2.240   5.413   6.922  0.4133 -0.0601 -0.1265
47681SOL     OW50157   7.090   0.117   9.578  0.2088 -0.4453 -0.1906
47681SOL    HW150158   7.146   0.059   9.525  1.3089 -0.1292  0.5972
47681SOL    HW250159   7.006   0.072   9.580  1.0641 -2.1134  0.4958
47682SOL     OW50160   6.911   4.911   1.514  0.4754 -0.1360  0.0700
47682SOL    HW150161   6.937   4.848   1.582  0.0992  0.7910  1.1037
47682SOL    HW250162   6.821   4.887   1.492  1.0441 -1.2981 -1.1360
47683SOL     OW50163  11.175   3.329   0.421  0.9379 -0.0066  0.7758
47683SOL    HW150164  11.115   3.382   0.368 -0.4106  0.8981  3.0693
47683SOL    HW250165  11.252   3.386   0.433  1.2607 -0.2251 -0.1717
47684SOL     OW50166  10.962   9.429   9.811 -1.1974  0.1101  0.5625
47684SOL    HW150167  10.923   9.395   9.730 -1.0100  1.5303 -0.1493
47684SOL    HW250168  10.961   9.354   9.871  0.8017 -1.6744 -1.4654
47685SOL     OW50169  10.713  10.523   2.974  0.2932  0.2226  0.1317
47685SOL    HW150170  10.732  10.443   2.926  0.5735  0.2231  0.2391
47685SOL    HW250171  10.798  10.566   2.983  0.3188  0.0078  1.0147
47686SOL     OW50172   5.198  11.468  10.614  0.2509 -0.5200 -0.4109
47686SOL    HW150173   5.182  11.562  10.601 -0.2265 -0.6123 -0.5303
47686SOL    HW250174   5.112  11.428  10.600 -0.1549 -0.7201  2.1988
47687SOL     OW50175   2.251   1.743  10.653 -0.2546 -0.2260 -0.1138
47687SOL    HW150176   2.292   1.825  10.624  0.5771 -0.7884 -0.5614
47687SOL    HW250177   2.320   1.699  10.703  0.1353 -1.7510 -1.9030
47688SOL     OW50178   3.569   8.058   8.238 -0.1048 -0.0013 -0.7250
47688SOL    HW150179   3.529   8.145   8.239 -0.2416 -0.0355 -1.8114
47688SOL    HW250180   3.555   8.024   8.326  0.5915  1.3585 -0.0606
47689SOL     OW50181   4.771   1.414  12.081 -0.1897  0.0877 -0.1047
47689SOL    HW150182   4.851   1.377  12.043  0.7673 -0.8230  2.5665
47689SOL    HW250183   4.734   1.468  12.011  0.8805 -2.1787 -2.5951
47690SOL     OW50184   8.294   6.932   7.939  0.1046  0.4438 -0.3740
47690SOL    HW150185   8.337   6.917   7.855 -0.5531 -0.6539 -0.5344
47690SOL    HW250186   8.221   6.871   7.940 -0.4910  1.1349  0.5849
47691SOL     OW50187   0.737   4.203   9.141  0.3481 -0.5480 -0.2383
47691SOL    HW150188   0.729   4.141   9.068  0.4388 -0.3067 -0.4549
47691SOL    HW250189   0.719   4.150   9.219  0.1218 -0.7809 -0.4448
47692SOL     OW50190   5.535   4.515   8.889  0.1447  0.2064 -0.4725
47692SOL    HW150191   5.559   4.573   8.961  0.1850  3.0205 -2.6062
47692SOL    HW250192   5.443   4.493   8.905  0.0634  1.0350  0.2616
47693SOL     OW50193   8.816   8.089   1.607 -0.0505  0.6369  0.2214
47693SOL    HW150194   8.838   8.181   1.593 -0.3948  0.5501 -0.9491
47693SOL    HW250195   8.720   8.087   1.606 -0.0323  0.1492 -0.5315
47694SOL     OW50196  11.630   1.206  12.003 -0.5292 -0.1832 -0.5053
47694SOL    HW150197  11.590   1.149  11.939 -1.2291  0.3870 -0.5851
47694SOL    HW250198  11.702   1.248  11.956  0.0513 -1.0519 -0.4173
47695SOL     OW50199   1.007   0.242   8.875  0.3636 -0.1017  0.6217
47695SOL    HW150200   1.099   0.257   8.896 -0.1983  1.4112  2.2296
47695SOL    HW250201   0.963   0.321   8.905 -1.4646 -0.7594 -0.2097
47696SOL     OW50202   5.106   2.164   2.614 -0.1224 -0.3074 -0.2873
47696SOL    HW150203   5.028   2.127   2.654 -0.7803  1.4707  0.1942
47696SOL    HW250204   5.094   2.150   2.520 -1.6431  0.9466 -0.3321
47697SOL     OW50205   0.411   6.391  12.052 -0.5296  0.2715 -0.9315
47697SOL    HW150206   0.345   6.403  12.120  1.2042 -0.6309  0.9908
47697SOL    HW250207   0.482   6.451  12.076 -0.1186  0.3794 -2.3053
47698SOL     OW50208   6.629  10.310   2.577  0.3169 -0.3360 -1.0384
47698SOL    HW150209   6.662  10.316   2.667 -0.1145 -1.4830 -0.7932
47698SOL    HW250210   6.708  10.298   2.524  0.4914 -0.6820 -0.7041
47699SOL     OW50211  10.868   4.384  12.613  0.2955  0.4424  0.5781
47699SOL    HW150212  10.791   4.430  12.648 -0.1820 -0.2819  0.5183
47699SOL    HW250213  10.942   4.421  12.661  0.2303  2.9339 -1.0916
47700SOL     OW50214   8.777   2.149   9.194  0.5331  0.0561 -0.5248
47700SOL    HW150215   8.744   2.238   9.209  0.9770  0.5536 -2.2225
47700SOL    HW250216   8.798   2.116   9.281  1.7672  2.1719  0.0603
47701SOL     OW50217   5.582   0.991   6.678 -0.4444  0.1692  0.0496
47701SOL    HW150218   5.547   1.051   6.744  0.8773 -0.2908  1.2118
47701SOL    HW250219   5.675   1.014   6.672  0.4399 -2.5654  1.5266
47702SOL     OW50220   6.877  12.674   6.331  0.1249  0.3737 -0.2997
47702SOL    HW150221   6.860  12.610   6.262  0.0080 -1.5994  1.4523
47702SOL    HW250222   6.963  12.652   6.365  0.4308  1.6773 -0.1531
47703SOL     OW50223  11.295   4.172   9.693 -0.1421  0.0676  0.2580
47703SOL    HW150224  11.247   4.092   9.718  1.3611 -0.8261  0.3836
47703SOL    HW250225  11.266   4.190   9.604  1.2985 -2.0878 -0.7241
47704SOL     OW50226   9.544   6.320   0.859  0.1005 -0.3202  0.4669
47704SOL    HW150227   9.522   6.408   0.889  1.4031  0.0274  0.4774
47704SOL    HW250228   9.636   6.309   0.884  0.7056 -0.7121 -1.7441
47705SOL     OW50229  11.487  12.655   6.265  0.3831  0.3299 -0.4542
47705SOL    HW150230  11.494  12.748   6.244  3.8482  0.4168  0.4611
47705SOL    HW250231  11.492  12.652   6.360  0.1861 -0.8047 -0.4680
47706SOL     OW50232   4.212   4.857   6.772 -0.0655  0.1592 -0.3797
47706SOL    HW150233   4.218   4.864   6.868  0.4215 -1.1127 -0.2937
47706SOL    HW250234   4.125   4.889   6.751  0.0880  1.1523  0.4067
47707SOL     OW50235   4.855   4.272   3.371 -0.5387  0.0613 -0.7211
47707SOL    HW150236   4.786   4.317   3.421 -0.6028 -0.1359 -0.6327
47707SOL    HW250237   4.839   4.179   3.386  0.3493  0.0330  0.0971
47708SOL     OW50238  10.702   9.409   5.258 -0.4329 -0.2674 -0.5083
47708SOL    HW150239  10.626   9.387   5.204 -0.9620  0.2993 -0.0200
47708SOL    HW250240  10.776   9.367   5.215 -0.7702  0.5201 -1.9181
47709SOL     OW50241   9.322   7.134  11.884 -0.2136  0.2509  0.5457
47709SOL    HW150242   9.408   7.112  11.848 -0.4171 -1.4972  1.0335
47709SOL    HW250243   9.260   7.086  11.829 -0.8441  1.0487  0.5438
47710SOL     OW50244   4.795   4.154  12.204  0.2223  0.1525  0.1564
47710SOL    HW150245   4.772   4.237  12.246  1.3329  0.2933  0.5185
47710SOL    HW250246   4.784   4.171  12.110  0.1757  0.6194  0.2423
47711SOL     OW50247  10.386   7.462  11.003 -0.3875  0.3175  0.2554
47711SOL    HW150248  10.462   7.518  11.016 -0.4419  0.3890  0.2728
47711SOL    HW250249  10.361   7.434  11.091  0.0022 -0.2263  0.1976
47712SOL     OW50250   3.342   5.409  10.473 -0.3979  0.5808  0.3060
47712SOL    HW150251   3.289   5.396  10.394  0.6365  2.0341 -0.6796
47712SOL    HW250252   3.315   5.339  10.532 -1.4230 -0.3596 -1.2155
47713SOL     OW50253   6.645   2.307   3.964 -0.3180 -0.5677  0.2449
47713SOL    HW150254   6.629   2.307   4.059  0.9263 -3.3178  0.5658
47713SOL    HW250255   6.568   2.263   3.927 -2.0566  2.7560 -0.4347
47714SOL     OW50256   4.553   5.825   0.938  0.0325 -0.2317 -0.4124
47714SOL    HW150257   4.529   5.793   1.025  1.1867 -2.4730 -0.8501
47714SOL    HW250258   4.601   5.906   0.955  0.1757 -0.5929  1.0192
47715SOL     OW50259   2.134   9.555   3.794 -0.2312 -0.0627  0.2581
47715SOL    HW150260   2.177   9.596   3.868 -1.1048 -0.6876  1.1467
47715SOL    HW250261   2.205   9.524   3.738  0.4296  1.2847  0.3298
47716SOL     OW50262   6.694   3.261  12.623 -0.0872 -0.5482  0.1723
47716SOL    HW150263   6.749   3.245  12.546 -0.8139  0.2495 -0.5410
47716SOL    HW250264   6.678   3.174  12.660  0.9785 -0.8604 -0.0739
47717SOL     OW50265   5.277   9.618   3.995  0.6343 -0.1440 -0.2957
47717SOL    HW150266   5.332   9.560   3.943 -1.1500 -1.7210 -0.5129
47717SOL    HW250267   5.338   9.660   4.056  2.0209 -2.2408 -0.1291
47718SOL     OW50268   2.267   3.195   0.900 -0.5283  0.5726  0.1514
47718SOL    HW150269   2.186   3.246   0.910  0.1082  1.1186  4.0074
47718SOL    HW250270   2.262   3.129   0.968  2.1977  0.5461  0.4266
47719SOL     OW50271   5.918   7.727   3.351  0.1504  0.2868 -0.4408
47719SOL    HW150272   5.866   7.647   3.363  1.5038 -0.9314 -2.1776
47719SOL    HW250273   6.008   7.700   3.369  0.5444  1.6572 -0.2537
47720SOL     OW50274   7.984  12.956   5.001  0.5870 -0.1788  0.1583
47720SOL    HW150275   7.896  12.933   4.970  0.1269  0.4229  0.9556
47720SOL    HW250276   7.970  13.033   5.057  1.7181  0.3694 -0.2682
47721SOL     OW50277   1.679   1.001  11.513  0.6327  0.4071 -0.3182
47721SOL    HW150278   1.662   0.981  11.421  1.1679 -1.7912  0.0172
47721SOL    HW250279   1.593   1.005  11.554  0.4418  0.5146 -0.7288
47722SOL     OW50280   9.183   4.178   5.140 -0.2452  0.4219 -0.4014
47722SOL    HW150281   9.144   4.205   5.222 -1.9025  2.0707 -1.6558
47722SOL    HW250282   9.270   4.219   5.140 -0.7312  1.4893 -0.0019
47723SOL     OW50283   0.602  10.359   0.797  0.1814 -0.1950  0.5248
47723SOL    HW150284   0.561  10.385   0.714  2.2915 -1.3973 -0.9869
47723SOL    HW250285   0.643  10.440   0.829 -1.1321  0.4144  0.7380
47724SOL     OW50286   6.613   5.370   5.559 -0.0686  0.1346  0.0264
47724SOL    HW150287   6.584   5.281   5.540  1.6014 -0.2043 -1.1439
47724SOL    HW250288   6.617   5.413   5.474  0.7033  0.8166  0.3931
47725SOL     OW50289  10.426   4.732   8.439  0.2035  0.9945  0.2038
47725SOL    HW150290  10.470   4.700   8.517 -0.9125  0.5163  0.6451
47725SOL    HW250291  10.470   4.815   8.419  1.8361  0.1590  0.1486
47726SOL     OW50292   8.995   4.489   4.987 -0.6049  0.0691  0.1873
47726SOL    HW150293   9.051   4.466   5.061  1.4262  0.6757 -1.0870
47726SOL    HW250294   8.948   4.567   5.015 -0.6945 -0.3483  1.2240
47727SOL     OW50295  12.305   6.807   1.222  0.0160  0.1346  0.0009
47727SOL    HW150296  12.330   6.896   1.201  0.1268  0.0845 -0.0788
47727SOL    HW250297  12.266   6.812   1.309 -0.0370  0.2705 -0.0314
47728SOL     OW50298  11.408  10.752   8.549 -0.2515  0.5946 -0.0701
47728SOL    HW150299  11.346  10.821   8.571  0.3425  1.3886 -0.8447
47728SOL    HW250300  11.356  10.689   8.498 -1.2023 -0.3969  1.9885
47729SOL     OW50301  12.129   0.493   2.442 -0.1338 -0.2139  0.0384
47729SOL    HW150302  12.160   0.417   2.392  1.2087  0.2425  0.1453
47729SOL    HW250303  12.124   0.463   2.532 -0.9238 -0.5558 -0.1138
47730SOL     OW50304   1.627  12.189   1.886  0.0716 -0.5520 -0.0411
47730SOL    HW150305   1.543  12.150   1.860  0.2979 -1.0042 -0.1060
47730SOL    HW250306   1.608  12.282   1.896 -0.6615 -0.7826  0.8583
47731SOL     OW50307   4.132  11.308  10.149  0.2184 -0.2094 -0.1250
47731SOL    HW150308   4.163  11.392  10.183 -1.8341  0.5158  0.1376
47731SOL    HW250309   4.197  11.282  10.085  2.0076  0.4981  1.3237
47732SOL     OW50310   1.937   9.872   7.547  0.2664 -0.5739 -0.4667
47732SOL    HW150311   1.986   9.806   7.498 -2.5017 -2.7522 -0.5164
47732SOL    HW250312   1.845   9.851   7.531 -0.7555  2.6173  0.5196
47733SOL     OW50313  10.342   7.443   1.663  0.2238  0.0669 -0.1545
47733SOL    HW150314  10.395   7.374   1.703 -0.2321  0.6867  1.6261
47733SOL    HW250315  10.319   7.501   1.736 -0.5860  1.3313 -1.3581
47734SOL     OW50316   5.730   6.558   1.210 -0.5824  0.3199 -0.2625
47734SOL    HW150317   5.805   6.532   1.263  0.2848  0.8555 -1.1975
47734SOL    HW250318   5.768   6.596   1.131 -1.7949 -1.4343 -1.8041
47735SOL     OW50319   9.803   5.015   1.320  0.2621  0.3060 -0.7911
47735SOL    HW150320   9.839   5.039   1.235  1.3242 -0.2967 -0.5460
47735SOL    HW250321   9.768   5.096   1.356 -0.3554  0.5274 -1.8726
47736SOL     OW50322   6.290   5.519  11.620  0.1313  0.6470 -0.2180
47736SOL    HW150323   6.291   5.428  11.592  0.8883  0.2117  1.1485
47736SOL    HW250324   6.208   5.528  11.668 -1.5486  1.5946 -2.9948
47737SOL     OW50325   7.127   0.039   1.203  0.0409  0.3144 -0.7739
47737SOL    HW150326   7.214   0.009   1.180 -0.3605 -0.3955 -1.3905
47737SOL    HW250327   7.136   0.134   1.209  1.1594  0.1546  0.5309
47738SOL     OW50328   2.583   8.011   7.313 -0.3101 -0.1254  0.1065
47738SOL    HW150329   2.634   8.034   7.391  0.5433 -0.1035 -0.4554
47738SOL    HW250330   2.605   7.920   7.296  0.5533  0.2485 -0.8888
47739SOL     OW50331  11.333   8.504   1.670  0.3614 -0.2999 -0.4387
47739SOL    HW150332  11.389   8.500   1.747  0.3097 -3.4940 -0.4594
47739SOL    HW250333  11.394   8.502   1.596  0.4017  2.6052 -0.6169
47740SOL     OW50334   7.409   8.708   3.886  0.3968  0.6581  0.2075
47740SOL    HW150335   7.470   8.657   3.834  0.4524 -0.2033  1.0701
47740SOL    HW250336   7.326   8.659   3.880  0.5691  0.1722  1.4233
47741SOL     OW50337   2.604   7.796  12.408  0.0043  0.4251  0.6767
47741SOL    HW150338   2.598   7.884  12.445 -0.1353 -0.2955  2.4459
47741SOL    HW250339   2.514   7.764  12.405  0.2665 -1.5450  5.0642
47742SOL     OW50340   8.063   9.443   9.390 -0.3946 -0.3243 -0.4141
47742SOL    HW150341   7.999   9.504   9.425  0.6183  0.5137  0.0234
47742SOL    HW250342   8.143   9.461   9.439  0.4307 -0.7019 -1.5770
47743SOL     OW50343  11.646   5.185   9.051 -0.3230  0.1861 -0.1098
47743SOL    HW150344  11.613   5.103   9.014  0.6378 -0.0758 -0.4237
47743SOL    HW250345  11.711   5.216   8.987 -0.2800  0.9018  0.2725
47744SOL     OW50346   2.562  11.621  10.596  0.1783 -0.0417 -0.2474
47744SOL    HW150347   2.594  11.628  10.686 -0.2566 -2.2045  0.1086
47744SOL    HW250348   2.537  11.711  10.573  1.4348  0.7673  1.3318
47745SOL     OW50349   8.352  11.900   3.570 -0.2556  0.7090  0.1749
47745SOL    HW150350   8.345  11.856   3.485  1.6767  0.6767 -0.0145
47745SOL    HW250351   8.443  11.930   3.574 -0.4829  1.2763  1.9644
47746SOL     OW50352   0.202   1.603   2.565 -0.8646 -0.5108 -0.1206
47746SOL    HW150353   0.151   1.679   2.538 -0.2265 -0.4209 -1.1114
47746SOL    HW250354   0.223   1.620   2.657  0.9690  1.5156 -0.8178
47747SOL     OW50355   2.696   0.959   0.827 -0.5092 -0.1583  0.4408
47747SOL    HW150356   2.705   1.055   0.829  2.3344 -0.3439  0.5069
47747SOL    HW250357   2.682   0.938   0.735  4.6751  0.1057 -0.6802
47748SOL     OW50358   3.624   4.946   5.011 -0.4770 -0.3703  0.0699
47748SOL    HW150359   3.642   5.004   4.937  1.8789 -0.6198  0.3537
47748SOL    HW250360   3.573   4.874   4.973 -2.4315  1.2410 -0.5203
47749SOL     OW50361   5.127  11.881  12.945  0.5544  0.1653  0.0813
47749SOL    HW150362   5.047  11.830  12.938 -0.1310  1.1243  0.7818
47749SOL    HW250363   5.123  11.942  12.871 -0.6224  1.8923  1.4713
47750SOL     OW50364   1.063  10.640   2.023 -0.3209 -0.2083  0.2079
47750SOL    HW150365   1.130  10.683   2.076 -0.7086  0.5581  0.0791
47750SOL    HW250366   1.113  10.581   1.966 -0.0009 -2.6086  2.7390
47751SOL     OW50367   1.139  11.655   6.303 -0.1571 -0.3181 -0.1267
47751SOL    HW150368   1.138  11.748   6.282  3.6530  0.1961  1.2471
47751SOL    HW250369   1.104  11.650   6.392 -0.8269 -0.2971 -0.3826
47752SOL     OW50370   3.114   1.282   8.601 -0.2315  0.0866  0.2093
47752SOL    HW150371   3.136   1.202   8.555  1.1930 -0.6015  1.9688
47752SOL    HW250372   3.102   1.256   8.692  0.4638  1.8660  0.8716
47753SOL     OW50373   6.647   8.225  10.217 -0.1315  0.2212  0.0578
47753SOL    HW150374   6.589   8.301  10.218  0.8530  0.9995 -0.6454
47753SOL    HW250375   6.729   8.257  10.180  0.5744 -0.9934  0.5027
47754SOL     OW50376  11.184   5.707  12.518 -0.0143 -0.3571  0.3248
47754SOL    HW150377  11.157   5.740  12.432 -0.6747  0.7277  0.9256
47754SOL    HW250378  11.279   5.695  12.510 -0.0289 -0.0030 -0.4755
47755SOL     OW50379  12.879  11.580   3.624 -0.2296  0.0550  0.5759
47755SOL    HW150380  12.823  11.549   3.696  0.1251  1.4633  1.5267
47755SOL    HW250381  12.817  11.608   3.556 -0.6875  0.8158  1.2781
47756SOL     OW50382   8.749   7.035  10.749  0.4515  0.0282 -0.1275
47756SOL    HW150383   8.791   7.101  10.804  0.7894  0.0545 -0.4165
47756SOL    HW250384   8.707   7.084  10.679 -0.8265  0.0808  0.6307
47757SOL     OW50385   6.052   4.031  12.499 -0.3530 -0.1692 -0.5347
47757SOL    HW150386   6.103   4.013  12.421  2.2780 -0.0588  1.0370
47757SOL    HW250387   6.003   4.110  12.478 -0.7337 -0.8648 -2.4670
47758SOL     OW50388   1.454   0.828   3.676  0.2071 -0.2483 -0.1453
47758SOL    HW150389   1.487   0.756   3.623 -1.5071 -1.7210  0.6496
47758SOL    HW250390   1.359   0.815   3.676 -0.0931  1.7136  0.4726
47759SOL     OW50391   5.321   8.045   9.386  0.0078  0.0139 -0.2191
47759SOL    HW150392   5.262   8.120   9.379 -0.5948 -0.2113  1.7900
47759SOL    HW250393   5.290   7.984   9.319 -1.3571  0.3610  0.0661
47760SOL     OW50394   3.069   4.747  10.763 -0.4157  0.0684 -0.0917
47760SOL    HW150395   3.050   4.828  10.715  1.7688 -0.2467 -1.5971
47760SOL    HW250396   3.164   4.743  10.766 -0.4888 -2.0844  0.6299
47761SOL     OW50397  12.577  11.131   9.728 -0.2912  0.1486 -0.1642
47761SOL    HW150398  12.643  11.172   9.673  0.9744  0.1174  1.2714
47761SOL    HW250399  12.520  11.084   9.667  1.6978 -0.7965 -1.3776
47762SOL     OW50400  11.224   7.109  10.025  0.1837  0.4904 -0.0315
47762SOL    HW150401  11.285   7.036  10.013 -0.7570 -0.4900  0.9454
47762SOL    HW250402  11.280   7.187  10.024  1.1031 -0.1114 -2.1222
47763SOL     OW50403   9.458  10.794  12.929  0.3192 -0.0797  0.1323
47763SOL    HW150404   9.376  10.839  12.946 -0.3007  0.1658 -2.8897
47763SOL    HW250405   9.431  10.707  12.899  1.1878 -0.2276 -0.2437
47764SOL     OW50406   4.343   6.325   4.563  0.0531  0.8584 -0.0330
47764SOL    HW150407   4.319   6.241   4.524 -2.4254  0.5378  1.8954
47764SOL    HW250408   4.343   6.386   4.489 -0.5525 -0.4108 -1.1263
47765SOL     OW50409   6.281   7.696   2.129 -0.4445 -0.2658  0.3197
47765SOL    HW150410   6.287   7.779   2.176 -1.2010 -0.4254  0.7167
47765SOL    HW250411   6.370   7.661   2.132 -0.0885  0.5851  0.0289
47766SOL     OW50412  10.413  10.382   7.297 -0.0060  0.0833  0.5086
47766SOL    HW150413  10.382  10.295   7.272 -0.5620  0.1828  0.8432
47766SOL    HW250414  10.419  10.380   7.392 -0.3415  0.5169  0.5441
47767SOL     OW50415   6.774   0.412   5.609  0.2438  0.2400  0.4304
47767SOL    HW150416   6.754   0.384   5.520  2.5598 -0.5968  0.1174
47767SOL    HW250417   6.803   0.503   5.599  0.0056  0.3108  0.3906
47768SOL     OW50418   9.675   2.889   8.309  0.2266  0.6920 -0.4114
47768SOL    HW150419   9.659   2.836   8.231 -0.2122  1.1232 -0.6252
47768SOL    HW250420   9.600   2.872   8.366  0.8977 -0.1737  0.2399
47769SOL     OW50421   1.667   4.023   4.968  0.5983  0.2764  0.0078
47769SOL    HW150422   1.581   4.011   4.927  1.1347 -2.4784 -0.5209
47769SOL    HW250423   1.652   4.005   5.061  0.5931 -0.3805 -0.1114
47770SOL     OW50424   3.076  10.769   7.388 -0.1652 -0.0962  0.4568
47770SOL    HW150425   3.066  10.810   7.302  0.5901 -0.5434  0.1413
47770SOL    HW250426   3.077  10.841   7.450  1.7411  0.4508 -0.1339
47771SOL     OW50427   6.321   2.302  11.087 -0.0157  0.3292 -0.5647
47771SOL    HW150428   6.376   2.228  11.112 -0.9997  0.2098  1.4271
47771SOL    HW250429   6.345   2.320  10.996  2.3433 -0.5447 -0.1863
47772SOL     OW50430  12.159   3.238   8.551 -0.2931 -0.5259  0.0651
47772SOL    HW150431  12.125   3.153   8.578 -0.0287 -0.9694 -0.9294
47772SOL    HW250432  12.126   3.249   8.462 -1.0843  0.8426  0.5057
47773SOL     OW50433   7.019   3.226   3.669  0.2221  0.1644 -0.7853
47773SOL    HW150434   7.002   3.133   3.657 -0.9113  0.3894 -1.0346
47773SOL    HW250435   7.101   3.241   3.622  1.2552 -0.9849  0.5590
47774SOL     OW50436   8.487   2.226   6.816  0.4192  0.1642 -0.2675
47774SOL    HW150437   8.536   2.162   6.867  2.5731  2.0227  0.1982
47774SOL    HW250438   8.439   2.277   6.881  0.7078  0.5820 -0.3756
47775SOL     OW50439   1.591   5.560  11.153 -0.3594  0.3711 -0.0495
47775SOL    HW150440   1.605   5.626  11.221 -2.2776 -0.8241  1.5828
47775SOL    HW250441   1.551   5.486  11.198  0.5059 -1.4367 -2.0681
47776SOL     OW50442  10.051  11.254   9.495  0.2752  0.4164 -0.0945
47776SOL    HW150443  10.029  11.329   9.550  3.2026  1.8130 -0.6231
47776SOL    HW250444  10.087  11.189   9.555 -0.8765 -0.0045  0.1689
47777SOL     OW50445  10.891   4.082   4.153 -0.0869  0.1966 -0.0362
47777SOL    HW150446  10.919   4.172   4.171 -2.0316  0.5588  1.5639
47777SOL    HW250447  10.871   4.081   4.060 -0.0227  1.4248 -0.0780
47778SOL     OW50448   4.391   4.251   2.187 -0.2256  0.2424 -0.0757
47778SOL    HW150449   4.317   4.191   2.197 -0.0534 -0.0478 -0.5244
47778SOL    HW250450   4.384   4.310   2.262 -1.3367  0.6776 -0.5034
47779SOL     OW50451   4.314  10.802   3.746 -0.4674 -0.1998  0.5038
47779SOL    HW150452   4.311  10.895   3.770  1.2071  0.0466 -0.0944
47779SOL    HW250453   4.403  10.775   3.768  0.2523 -0.7045 -2.5707
47780SOL     OW50454   8.292   9.307   1.151  0.9394  0.5601 -0.2397
47780SOL    HW150455   8.322   9.216   1.150  0.2537  0.3337 -0.9383
47780SOL    HW250456   8.339   9.349   1.078 -0.1662  0.2867 -1.1235
47781SOL     OW50457   8.670   9.711  11.516  0.2076 -0.2200 -0.1401
47781SOL    HW150458   8.765   9.724  11.519  0.0908  0.6151  1.8173
47781SOL    HW250459   8.658   9.621  11.548  0.3649 -0.6671 -1.2975
47782SOL     OW50460   7.483   6.582  10.833  0.4604  0.0206 -0.5990
47782SOL    HW150461   7.448   6.514  10.890  0.3045  1.0167  0.5487
47782SOL    HW250462   7.491   6.659  10.890 -1.4660  1.6178 -2.3157
47783SOL     OW50463   9.135   9.229   9.637 -0.0208 -0.1204 -0.1592
47783SOL    HW150464   9.213   9.274   9.668  0.5922 -0.2024 -1.5185
47783SOL    HW250465   9.165   9.176   9.564 -1.1807 -0.8953 -0.1021
47784SOL     OW50466   1.587   0.161   8.936  0.3959  0.0341 -0.0035
47784SOL    HW150467   1.603   0.218   8.861  1.2930  1.1675  1.0233
47784SOL    HW250468   1.574   0.221   9.010 -1.5235 -1.0106  0.5995
47785SOL     OW50469   0.713  12.167   7.698  0.5730  0.2723  0.2684
47785SOL    HW150470   0.626  12.183   7.662  1.4323  0.7314 -1.7388
47785SOL    HW250471   0.725  12.072   7.690  0.1013  0.1401  1.0026
47786SOL     OW50472   7.961   8.107   9.577  0.4236  0.1287  0.3706
47786SOL    HW150473   7.951   8.039   9.643 -1.0369  0.6519  0.7156
47786SOL    HW250474   7.928   8.187   9.619 -0.2374  0.5340 -0.8763
47787SOL     OW50475   3.114   3.176   2.963 -0.0504 -0.2492 -0.1573
47787SOL    HW150476   3.150   3.243   3.021 -0.0826 -0.0518 -0.3620
47787SOL    HW250477   3.052   3.224   2.908  2.0487  0.1589 -2.3339
47788SOL     OW50478   1.651   9.427  10.249 -0.8369 -0.3668 -0.2173
47788SOL    HW150479   1.596   9.424  10.327  0.2144  0.8079  0.6179
47788SOL    HW250480   1.726   9.372  10.270  0.1900  1.1433  0.2474
47789SOL     OW50481  12.391   9.631   2.665 -0.3172  0.1609  0.0719
47789SOL    HW150482  12.385   9.545   2.707 -0.3438  0.9135  1.7084
47789SOL    HW250483  12.476   9.665   2.693 -1.5242  1.8546  1.9617
47790SOL     OW50484  11.230   1.719   5.742 -0.1551  0.2676 -0.1561
47790SOL    HW150485  11.234   1.814   5.748  0.5657  0.3021 -1.0421
47790SOL    HW250486  11.160   1.701   5.679 -1.1380  0.1556  0.9206
47791SOL     OW50487  11.548   1.357   3.610 -0.1795 -0.0970  0.2477
47791SOL    HW150488  11.556   1.444   3.571  0.2094 -0.3474 -0.2511
47791SOL    HW250489  11.576   1.368   3.701  1.0220  0.0739 -0.1245
47792SOL     OW50490   4.684   8.035   5.701  0.0151  0.3083 -0.0629
47792SOL    HW150491   4.742   8.091   5.649  2.6262 -1.5655  0.6305
47792SOL    HW250492   4.596   8.068   5.683  1.2552  3.3778 -1.1278
47793SOL     OW50493  12.147   0.068   1.175 -0.3501 -0.0629 -0.3038
47793SOL    HW150494  12.223   0.059   1.118 -0.3849  0.9025 -0.5126
47793SOL    HW250495  12.127   0.162   1.174 -1.0835 -0.2046  0.3434
47794SOL     OW50496   4.857   9.648   4.649  0.3571 -0.2227  0.2372
47794SOL    HW150497   4.857   9.553   4.663  2.0026 -0.3883 -0.6069
47794SOL    HW250498   4.941   9.678   4.686  0.3096  0.7488 -0.3941
47795SOL     OW50499   6.160   1.013   4.335 -0.2979 -0.4280  0.0972
47795SOL    HW150500   6.139   0.959   4.412 -0.1598  1.0499  1.2210
47795SOL    HW250501   6.182   1.098   4.372 -1.1223  0.5883 -1.6711
47796SOL     OW50502  11.064  10.222   1.939  0.2482  0.4399  0.2394
47796SOL    HW150503  11.106  10.222   2.025 -0.7640  0.4035  0.7516
47796SOL    HW250504  10.978  10.261   1.955 -0.0286  0.2400 -0.7217
47797SOL     OW50505   0.591  12.148   4.770  0.2134 -0.0683  0.0998
47797SOL    HW150506   0.525  12.078   4.772  0.9169 -0.7439 -0.1471
47797SOL    HW250507   0.605  12.170   4.862 -1.0656  0.7826  0.1305
47798SOL     OW50508   2.563   6.989   9.033 -0.1247  0.2614  0.5235
47798SOL    HW150509   2.606   7.075   9.029 -1.9357  1.2157  0.4730
47798SOL    HW250510   2.572   6.962   9.125  0.4939  0.4705  0.5306
47799SOL     OW50511   9.496   5.868  10.181 -0.3600 -0.8313  0.4409
47799SOL    HW150512   9.452   5.818  10.111  0.0111 -1.4264  0.6244
47799SOL    HW250513   9.451   5.952  10.182 -0.6503 -0.9693 -0.2376
47800SOL     OW50514  10.141  10.646   6.700 -0.5464 -0.2553  0.0751
47800SOL    HW150515  10.074  10.673   6.637  1.5998 -0.3527 -2.3807
47800SOL    HW250516  10.194  10.581   6.654  2.8574  1.7021  0.8759
47801SOL     OW50517   5.098  11.545  11.051  0.0238  0.2552 -0.3209
47801SOL    HW150518   5.003  11.554  11.054  0.0061 -0.0759  2.4243
47801SOL    HW250519   5.114  11.456  11.082  1.2357  0.1343 -1.2254
47802SOL     OW50520   6.498   5.811   5.528  0.0589  0.0427 -0.5598
47802SOL    HW150521   6.533   5.733   5.570 -0.3791  0.1458  0.0087
47802SOL    HW250522   6.541   5.884   5.573 -0.9569  0.1765  0.2418
47803SOL     OW50523   6.867  10.847   3.336 -0.1779 -0.1341  0.7290
47803SOL    HW150524   6.947  10.838   3.284  0.0561 -0.2354  1.1075
47803SOL    HW250525   6.796  10.839   3.272  0.0159 -3.1717  0.7664
47804SOL     OW50526   9.724  10.577   6.160 -0.3069  0.0665 -0.2708
47804SOL    HW150527   9.687  10.489   6.172  2.3764 -1.2697 -0.9756
47804SOL    HW250528   9.772  10.593   6.241 -2.6774  2.0519  0.9036
47805SOL     OW50529   8.860  12.006   6.518  0.0430 -0.4020  0.4582
47805SOL    HW150530   8.886  11.972   6.604 -2.0114  0.1727  1.3817
47805SOL    HW250531   8.879  11.934   6.458  1.3423 -0.8981  1.4165
47806SOL     OW50532   0.798   0.465   8.455 -0.0956  0.5013 -0.0372
47806SOL    HW150533   0.741   0.522   8.403  1.2545  1.3339 -0.6668
47806SOL    HW250534   0.792   0.380   8.412 -1.8225  0.2280  0.6692
47807SOL     OW50535   3.966   6.126   1.176  0.0419 -0.2872 -0.0352
47807SOL    HW150536   4.050   6.153   1.211 -0.0456  0.3581 -0.3104
47807SOL    HW250537   3.911   6.111   1.253  0.3399 -0.5138  0.1370
47808SOL     OW50538   6.082   5.046   6.046  0.1240  0.2441 -0.6402
47808SOL    HW150539   6.047   5.102   5.976  0.5791  0.6331 -0.5671
47808SOL    HW250540   6.137   4.983   6.000  1.8038  1.5514 -0.5340
47809SOL     OW50541   4.862   7.198   0.229 -0.1550 -0.3936  0.6427
47809SOL    HW150542   4.795   7.263   0.209 -0.5223 -0.9889 -0.1376
47809SOL    HW250543   4.827   7.148   0.303 -0.8208 -1.0214 -0.0735
47810SOL     OW50544   6.730   6.495   2.336  0.1933 -0.6874  0.2729
47810SOL    HW150545   6.649   6.545   2.328  0.0590 -1.0717 -0.9294
47810SOL    HW250546   6.782   6.522   2.261  0.6539 -1.3970  0.3299
47811SOL     OW50547  11.250  10.147   9.322  0.1239 -0.6331  0.1668
47811SOL    HW150548  11.324  10.143   9.382  2.1716 -0.3713 -2.1576
47811SOL    HW250549  11.283  10.108   9.241 -1.5442  1.4840 -1.6587
47812SOL     OW50550  11.182   9.244   7.004 -0.0358 -0.1623  0.1268
47812SOL    HW150551  11.165   9.337   7.021  0.2188  0.2091 -1.4508
47812SOL    HW250552  11.097   9.209   6.977 -0.1332 -0.3968  0.7286
47813SOL     OW50553   0.449   1.949  11.768 -0.4229  0.2070 -0.1442
47813SOL    HW150554   0.386   2.002  11.720 -1.0752 -1.3051 -1.0365
47813SOL    HW250555   0.529   1.954  11.716  0.4325  2.5069  1.2304
47814SOL     OW50556   6.476   5.239   0.882 -0.0886 -0.3058 -0.1408
47814SOL    HW150557   6.403   5.232   0.820 -0.6267  0.4098  0.3996
47814SOL    HW250558   6.461   5.169   0.945 -0.3399 -0.1253  0.0002
47815SOL     OW50559   6.984  10.763   1.174 -0.0737  1.1242 -0.3033
47815SOL    HW150560   6.947  10.709   1.244 -0.4600  0.7571 -0.7827
47815SOL    HW250561   7.042  10.825   1.219  1.2030 -0.3600  0.1724
47816SOL     OW50562   4.123   7.375   3.347 -0.1146 -0.1717 -0.1259
47816SOL    HW150563   4.060   7.420   3.291  0.4702  0.3557 -0.3819
47816SOL    HW250564   4.121   7.424   3.430 -1.2314 -1.1620  0.4530
47817SOL     OW50565   5.918   3.000   9.613 -0.0802  0.7788  0.0745
47817SOL    HW150566   6.013   3.006   9.608  0.1277  0.4803  2.6367
47817SOL    HW250567   5.890   3.084   9.648 -0.4300 -0.2087  2.3056
47818SOL     OW50568   4.674   7.611   8.347 -0.2037  0.0753  0.0760
47818SOL    HW150569   4.717   7.598   8.263 -0.2397  0.9791 -0.0949
47818SOL    HW250570   4.650   7.704   8.348  0.2958  0.2191  1.3133
47819SOL     OW50571   8.037  11.419   4.587 -0.3647  0.3125  0.0572
47819SOL    HW150572   8.096  11.437   4.513 -0.7858 -0.1215 -0.3968
47819SOL    HW250573   8.076  11.465   4.661  1.5493 -1.3880  0.2193
47820SOL     OW50574  10.855   8.784  12.560 -0.9298  0.0000 -0.0985
47820SOL    HW150575  10.928   8.841  12.583 -0.4907 -0.3101 -0.6986
47820SOL    HW250576  10.779   8.823  12.604 -0.0986 -0.6933  2.0645
47821SOL     OW50577   1.169   1.421   4.939 -0.6592 -0.3364 -0.1426
47821SOL    HW150578   1.214   1.355   4.991 -1.2855 -0.2470  0.5405
47821SOL    HW250579   1.158   1.495   5.000 -1.0861 -0.0907 -0.5156
47822SOL     OW50580   0.771   3.447   3.442 -0.2145 -0.4504 -0.9158
47822SOL    HW150581   0.811   3.362   3.461 -0.5152 -0.4754 -0.3699
47822SOL    HW250582   0.842   3.500   3.407  0.5192 -0.2373  0.7799
47823SOL     OW50583   5.967   7.807   9.999  0.1262  0.1327  0.3204
47823SOL    HW150584   5.911   7.750   9.946 -1.1504  1.2883  0.3580
47823SOL    HW250585   5.956   7.775  10.088 -1.4588  1.0487  0.4982
47824SOL     OW50586   3.255   8.068   8.195 -0.9268 -0.1173 -0.1531
47824SOL    HW150587   3.308   8.142   8.224 -2.7709  0.7608  1.2239
47824SOL    HW250588   3.269   8.063   8.100  1.7170 -0.1023  0.1611
47825SOL     OW50589   7.065   8.248   8.043 -0.0589 -0.1743 -0.1796
47825SOL    HW150590   7.018   8.176   8.000  1.8249 -1.1756 -0.6603
47825SOL    HW250591   7.056   8.231   8.136 -0.9317 -0.1538 -0.2551
47826SOL     OW50592   9.348  12.057   3.593 -0.0346 -0.3734 -0.1392
47826SOL    HW150593   9.419  11.993   3.605 -0.6070 -1.5131 -2.3069
47826SOL    HW250594   9.325  12.084   3.682  0.7213 -2.6404  0.8256
47827SOL     OW50595   1.050  10.910  11.243 -0.1841 -0.7215 -0.4050
47827SOL    HW150596   0.995  10.973  11.290 -0.4892 -0.5900 -0.9205
47827SOL    HW250597   1.137  10.921  11.280 -0.6100 -1.3316  0.8162
47828SOL     OW50598   9.779  11.926   9.355  0.1973 -0.4748 -0.2645
47828SOL    HW150599   9.870  11.919   9.382  0.1908  0.9910  0.2479
47828SOL    HW250600   9.737  11.846   9.387  1.5951 -1.8926 -1.8273
47829SOL     OW50601   3.618   3.423   9.341 -0.5447 -0.4893 -0.2475
47829SOL    HW150602   3.697   3.465   9.306  0.0037 -1.0213  0.3120
47829SOL    HW250603   3.605   3.464   9.426 -1.3233  0.1337 -0.6578
47830SOL     OW50604   8.679   0.207   7.296  0.4429 -0.5782  0.2291
47830SOL    HW150605   8.611   0.258   7.340 -2.2811 -3.0319 -0.7808
47830SOL    HW250606   8.701   0.137   7.357  2.2419  0.2489  0.5886
47831SOL     OW50607   0.186   5.745   2.307  0.4449  0.3513  0.4927
47831SOL    HW150608   0.206   5.710   2.220  2.8033  1.1783  0.6490
47831SOL    HW250609   0.110   5.694   2.336  1.2271 -1.7884 -0.9656
47832SOL     OW50610  10.445   9.731   6.066  0.1423  0.0584  0.0727
47832SOL    HW150611  10.534   9.735   6.030  0.3912 -0.7193  0.5721
47832SOL    HW250612  10.447   9.790   6.141  0.3116 -0.1508  0.2339
47833SOL     OW50613  11.113   9.070   6.481 -0.7785  0.1778  0.6792
47833SOL    HW150614  11.166   9.142   6.516 -0.8988  1.0271 -0.7862
47833SOL    HW250615  11.116   9.003   6.549 -1.0877  1.7510  2.3179
47834SOL     OW50616   7.521   4.020   4.801 -0.5921 -0.4960  0.6736
47834SOL    HW150617   7.563   4.002   4.885  2.5319  1.0384 -0.3890
47834SOL    HW250618   7.550   3.947   4.745  1.2835  0.8424 -0.2076
47835SOL     OW50619   9.413   6.695   5.387 -0.1632  0.3585  0.1021
47835SOL    HW150620   9.342   6.741   5.342 -0.6842 -0.0982  0.4394
47835SOL    HW250621   9.485   6.758   5.388  0.0389  0.2149 -1.7719
47836SOL     OW50622   4.439  11.295  10.254 -0.2902 -0.0186 -0.3550
47836SOL    HW150623   4.444  11.372  10.310  1.1684  0.4589 -1.0815
47836SOL    HW250624   4.502  11.313  10.184 -2.3200 -0.4179 -2.3654
47837SOL     OW50625   3.690  11.715   2.567 -0.7543 -0.0757  0.2164
47837SOL    HW150626   3.742  11.681   2.494 -0.0155  2.6578 -0.6572
47837SOL    HW250627   3.683  11.642   2.628  0.7136 -1.7238 -1.4671
47838SOL     OW50628  10.390   2.969   6.365 -0.2323 -0.1148 -0.4774
47838SOL    HW150629  10.384   3.025   6.287 -1.3372 -1.4354 -1.3759
47838SOL    HW250630  10.303   2.972   6.404 -0.3577 -1.3089 -0.6247
47839SOL     OW50631  10.642  11.054   2.840 -0.6378  0.5994  0.1222
47839SOL    HW150632  10.635  11.132   2.785 -1.4184  0.8789  0.6056
47839SOL    HW250633  10.597  11.077   2.921 -0.7356 -0.2991  0.3348
47840SOL     OW50634   9.747   2.802   8.785  0.3788  0.2601 -0.3167
47840SOL    HW150635   9.826   2.811   8.732  0.8962  0.6705  0.4994
47840SOL    HW250636   9.706   2.889   8.782 -0.0181  0.0612 -0.7027
47841SOL     OW50637   7.098   9.495   0.716  1.1758  0.0972  0.1027
47841SOL    HW150638   7.167   9.561   0.708 -0.0514  1.2472 -2.1969
47841SOL    HW250639   7.027   9.540   0.761  0.5937  0.1639 -0.8467
47842SOL     OW50640   4.366   2.503   9.773  0.1341 -0.1670 -0.3355
47842SOL    HW150641   4.336   2.583   9.731  0.6593 -0.8167 -2.0205
47842SOL    HW250642   4.461   2.507   9.770  0.1802 -0.3153  0.6471
47843SOL     OW50643   6.795  11.368   1.817  0.0230 -0.1621  1.1580
47843SOL    HW150644   6.849  11.307   1.868 -0.1132 -1.7318 -0.4656
47843SOL    HW250645   6.858  11.424   1.772  0.1947 -0.0166  1.5721
47844SOL     OW50646   1.631  11.464   1.667 -0.1749  0.2492  0.2624
47844SOL    HW150647   1.628  11.511   1.583 -1.9532 -1.2573 -0.5892
47844SOL    HW250648   1.600  11.528   1.731 -0.0410  1.0309 -0.4358
47845SOL     OW50649   1.467   4.879   1.884  0.1182  0.7528 -0.5211
47845SOL    HW150650   1.516   4.867   1.965  1.9150 -0.2171 -1.6741
47845SOL    HW250651   1.375   4.868   1.909  0.7475 -2.3776  0.9473
47846SOL     OW50652   8.139  11.227   7.884  0.0386  0.4152  0.1818
47846SOL    HW150653   8.104  11.283   7.814 -0.4231 -0.5868 -0.4198
47846SOL    HW250654   8.068  11.166   7.903 -0.5538  1.7904  2.8536
47847SOL     OW50655   3.207   9.190   6.355 -0.1456 -0.3888  0.2507
47847SOL    HW150656   3.122   9.209   6.314 -0.2233 -0.0685  0.5524
47847SOL    HW250657   3.197   9.101   6.389 -0.4453 -0.2738  0.4801
47848SOL     OW50658   0.267   8.871   6.983  0.4701  0.0599 -0.5469
47848SOL    HW150659   0.287   8.778   6.988  0.7262  0.1078 -0.6939
47848SOL    HW250660   0.346   8.911   6.948  0.6657  0.4443  0.3149
47849SOL     OW50661   4.578  12.458   1.861 -0.0220 -0.0066  0.4376
47849SOL    HW150662   4.633  12.536   1.863  0.3030 -0.2488  1.7280
47849SOL    HW250663   4.633  12.391   1.820 -0.3256  0.4436 -0.7324
47850SOL     OW50664   6.115   7.465   1.985 -0.1856  0.3241 -0.1398
47850SOL    HW150665   6.052   7.535   2.003  0.7356  1.1551 -0.0736
47850SOL    HW250666   6.110   7.407   2.061  0.2072  1.1956  0.5554
47851SOL     OW50667   6.197   8.525   8.624 -0.0052  0.4808  0.4031
47851SOL    HW150668   6.285   8.526   8.663 -0.1453  0.8007  0.7227
47851SOL    HW250669   6.138   8.534   8.699 -0.3512 -0.7721  0.2940
47852SOL     OW50670  10.766   5.839   2.165 -0.0599 -0.6044  0.4325
47852SOL    HW150671  10.741   5.930   2.177  1.1703  0.3541 -3.0071
47852SOL    HW250672  10.860   5.836   2.182  0.4250 -0.5602 -1.9064
47853SOL     OW50673  12.517  10.205   0.203  0.4368  0.4541  0.1197
47853SOL    HW150674  12.435  10.163   0.231 -0.4452  1.0787 -1.3721
47853SOL    HW250675  12.536  10.269   0.271 -0.7883  0.8694  0.1132
47854SOL     OW50676  12.211   3.809   3.965  0.4657 -0.2157  0.3840
47854SOL    HW150677  12.258   3.859   3.899 -0.1882 -0.5456 -0.3468
47854SOL    HW250678  12.131   3.780   3.921 -0.2430  0.0160  1.4872
47855SOL     OW50679  12.820   6.013   8.418 -0.0399 -0.3214  0.1334
47855SOL    HW150680  12.760   6.087   8.432 -1.1421 -1.2305  0.3070
47855SOL    HW250681  12.848   5.987   8.505  1.1797  0.5273  0.0248
47856SOL     OW50682   3.658  11.933   3.549 -0.0872 -0.0335  0.7290
47856SOL    HW150683   3.716  11.971   3.483 -0.1061 -1.9018 -0.4302
47856SOL    HW250684   3.586  11.894   3.499 -0.7792 -0.4022  1.9533
47857SOL     OW50685   2.172  10.568   5.963 -0.0554  0.5671  0.2706
47857SOL    HW150686   2.130  10.623   5.897  0.4777  0.7799  0.1033
47857SOL    HW250687   2.260  10.553   5.929 -0.3498 -0.8324  0.0437
47858SOL     OW50688   7.905   3.049   0.798  0.2920 -0.0959 -0.6120
47858SOL    HW150689   7.998   3.030   0.803 -0.1025 -2.1867  0.2100
47858SOL    HW250690   7.871   3.022   0.884 -0.8409  2.1700 -0.2930
47859SOL     OW50691  10.571  12.772   9.041  0.2554  0.6087  0.3458
47859SOL    HW150692  10.571  12.677   9.057  2.3103  0.6317  0.8094
47859SOL    HW250693  10.482  12.800   9.061 -0.7890 -1.3985 -1.0508
47860SOL     OW50694   9.543   4.195  12.829  0.0868 -0.4932 -0.7138
47860SOL    HW150695   9.614   4.144  12.790  2.2616  2.2225 -0.5823
47860SOL    HW250696   9.550   4.178  12.923  1.7836  1.0684 -0.5077
47861SOL     OW50697   8.261   2.961   5.933 -0.1559  0.1348  0.6889
47861SOL    HW150698   8.271   2.915   5.850 -0.9489  1.4181 -0.1431
47861SOL    HW250699   8.175   2.934   5.966 -1.1441  1.8383 -0.3712
47862SOL     OW50700   5.178   8.097  10.243  0.1424  0.5370  0.3640
47862SOL    HW150701   5.108   8.116  10.306  0.0801  1.4559  0.0302
47862SOL    HW250702   5.195   8.003  10.254 -1.9329  0.0307 -0.3700
47863SOL     OW50703   3.004   2.066  10.614  0.0460 -0.0413  0.1392
47863SOL    HW150704   3.086   2.093  10.572 -0.0405 -0.3164 -0.2044
47863SOL    HW250705   2.969   2.146  10.653 -0.1514  0.3193 -0.7748
47864SOL     OW50706   4.860  10.180   0.351 -0.0057 -0.4783 -0.0872
47864SOL    HW150707   4.808  10.172   0.271  1.1089 -1.9777 -0.7028
47864SOL    HW250708   4.830  10.108   0.407  0.1154 -0.2171  0.3199
47865SOL     OW50709   1.180   2.182   5.152 -0.7819  0.2218 -0.1992
47865SOL    HW150710   1.272   2.162   5.133 -0.5578 -0.3484  1.4022
47865SOL    HW250711   1.157   2.249   5.086  1.1519  1.3417  0.1625
47866SOL     OW50712   1.052   3.174   0.823  1.0109 -0.0421  0.2659
47866SOL    HW150713   1.130   3.167   0.878  0.1794 -2.3664  1.2252
47866SOL    HW250714   1.001   3.096   0.842 -0.9415  0.7514 -1.3431
47867SOL     OW50715   0.667  11.918   1.178  0.1505  0.7068  0.3389
47867SOL    HW150716   0.704  12.004   1.198 -1.8481  1.0266  3.1449
47867SOL    HW250717   0.594  11.908   1.238 -0.0469 -2.7710 -0.2630
47868SOL     OW50718   8.080   0.446   2.850 -0.1598  0.2097 -0.5838
47868SOL    HW150719   8.014   0.417   2.914  0.1627 -1.3051 -0.9127
47868SOL    HW250720   8.161   0.450   2.900 -0.0000 -0.5000 -0.7884
47869SOL     OW50721   5.926   2.234   8.502 -0.7263  0.0245  0.6433
47869SOL    HW150722   6.013   2.273   8.498 -0.7499  0.2077  1.7170
47869SOL    HW250723   5.868   2.298   8.459 -0.3833  0.0051  0.1354
47870SOL     OW50724  11.104   8.158   4.926  0.3991 -0.2149 -0.4844
47870SOL    HW150725  11.129   8.120   4.842  0.6246  0.3587 -0.6815
47870SOL    HW250726  11.186   8.189   4.964  0.2017  0.2241 -0.4065
47871SOL     OW50727   8.741   2.273   3.220 -0.1467 -0.0898  0.0131
47871SOL    HW150728   8.707   2.298   3.306 -1.3432  1.4659 -0.8530
47871SOL    HW250729   8.758   2.179   3.227 -2.2816 -0.4562  1.3138
47872SOL     OW50730  12.733   5.772   7.721  0.3889 -0.0451  0.4932
47872SOL    HW150731  12.783   5.717   7.661  0.2499  0.9384 -0.5610
47872SOL    HW250732  12.795   5.839   7.750  0.1499  0.1504  0.5558
47873SOL     OW50733   3.890  12.162  10.132 -0.0056 -0.6739  0.0966
47873SOL    HW150734   3.922  12.110  10.206 -2.1187 -1.8207  0.2718
47873SOL    HW250735   3.848  12.098  10.075 -0.3623  0.5143 -1.0037
47874SOL     OW50736   1.893   9.719  11.153  0.3502  0.3068  0.3663
47874SOL    HW150737   1.940   9.803  11.153  0.7961  0.0598  0.5904
47874SOL    HW250738   1.828   9.728  11.084 -1.2609  1.7635  1.9779
47875SOL     OW50739  12.411   3.101   3.976  0.0109 -0.0116  0.3968
47875SOL    HW150740  12.340   3.164   3.972 -0.7141 -0.8423 -0.6259
47875SOL    HW250741  12.383   3.037   4.041  2.2858  2.3976  4.0998
47876SOL     OW50742   0.373   3.833  10.836  0.2444 -0.0614 -0.5865
47876SOL    HW150743   0.357   3.840  10.930 -1.7938  1.2976 -0.9874
47876SOL    HW250744   0.468   3.839  10.828  0.3993  0.7732  1.3042
47877SOL     OW50745  10.620   2.848   7.913 -0.2513  0.2559 -0.2449
47877SOL    HW150746  10.636   2.941   7.928 -0.8770  0.3904 -0.3768
47877SOL    HW250747  10.555   2.824   7.979  1.0717 -0.4884  0.8617
47878SOL     OW50748   9.596  12.327   6.714 -0.3144  0.1396  0.1119
47878SOL    HW150749   9.588  12.422   6.701  1.9364  0.4103  0.2414
47878SOL    HW250750   9.637  12.295   6.634 -0.0814 -0.5480  0.4960
47879SOL     OW50751   0.491  11.934  10.181  0.5907  0.2610 -0.0403
47879SOL    HW150752   0.499  11.869  10.251  0.7639  0.1446 -0.1662
47879SOL    HW250753   0.579  11.938  10.142  0.3977  0.0453 -0.5007
47880SOL     OW50754   6.972   5.395  11.601  0.0908  0.4805  0.3643
47880SOL    HW150755   7.062   5.401  11.633 -0.4182 -1.1805  2.4221
47880SOL    HW250756   6.971   5.317  11.546  0.0730  0.9820 -0.3578
47881SOL     OW50757   5.237   9.873  12.435  0.4933 -0.7866  0.1857
47881SOL    HW150758   5.255   9.899  12.345 -0.4661 -0.1717  0.1633
47881SOL    HW250759   5.254   9.952  12.487 -1.1498 -0.4589  0.2692
47882SOL     OW50760   4.486  10.283  11.841 -0.6286 -0.0384  0.3602
47882SOL    HW150761   4.483  10.224  11.916 -0.3473 -0.5808 -0.0473
47882SOL    HW250762   4.430  10.356  11.866 -0.2088 -0.0070  1.2635
47883SOL     OW50763   1.309   9.026  12.827  0.0508  0.3519 -0.3554
47883SOL    HW150764   1.258   9.107  12.827  0.0530  0.3533 -0.4100
47883SOL    HW250765   1.261   8.966  12.885  0.9403  0.9557  1.0734
47884SOL     OW50766  11.541   6.612  10.163 -0.4102 -0.4798 -0.3083
47884SOL    HW150767  11.496   6.685  10.206 -0.7936 -0.6970 -0.3401
47884SOL    HW250768  11.491   6.535  10.188  0.9728 -0.9665  1.1519
47885SOL     OW50769  11.646   0.939   9.776  0.4247  0.3672 -0.1516
47885SOL    HW150770  11.667   0.880   9.704 -0.8217  0.6356 -0.7541
47885SOL    HW250771  11.553   0.924   9.793  0.5079  0.9114  0.8454
47886SOL     OW50772   9.512   3.186  12.580  0.1011 -0.2758  0.2286
47886SOL    HW150773   9.538   3.106  12.535 -0.4237  0.0822 -0.7349
47886SOL    HW250774   9.417   3.185  12.577  0.0789  0.1394  0.6722
47887SOL     OW50775  12.633   7.289   1.844 -0.4110  0.4794  0.0867
47887SOL    HW150776  12.689   7.325   1.775  1.1694  0.2385  1.2112
47887SOL    HW250777  12.573   7.360   1.866  0.1325  1.1061 -0.4188
47888SOL     OW50778   5.375  10.150  12.818  0.0968 -0.0217  0.1364
47888SOL    HW150779   5.314  10.110  12.879 -2.9697  2.1853 -1.1996
47888SOL    HW250780   5.410  10.226  12.865  0.3660 -0.2535  0.3045
47889SOL     OW50781   4.329   5.255   7.148  0.2124 -0.1833 -0.6434
47889SOL    HW150782   4.264   5.192   7.180  0.0184  0.1666 -0.3256
47889SOL    HW250783   4.355   5.222   7.063  0.8939 -1.2549 -0.0367
47890SOL     OW50784   4.018  10.750   8.071 -0.1336  0.0525 -0.2229
47890SOL    HW150785   4.025  10.697   8.150  0.5087 -0.1401 -0.4022
47890SOL    HW250786   3.990  10.689   8.003 -1.1344  0.3090 -0.0576
47891SOL     OW50787  12.265   2.859  10.558 -0.3862 -0.3913  0.1590
47891SOL    HW150788  12.176   2.892  10.552  0.0980  1.1418  0.9692
47891SOL    HW250789  12.308   2.890  10.479 -0.3915 -0.6123  0.0669
47892SOL     OW50790   1.286   5.842  10.693  0.5204  0.3475 -0.5834
47892SOL    HW150791   1.253   5.931  10.679 -0.5926  0.1229  0.4476
47892SOL    HW250792   1.221   5.801  10.750  1.4658 -0.8558 -0.3294
47893SOL     OW50793   2.273   4.944   3.919 -0.1004  0.2478  0.2910
47893SOL    HW150794   2.360   4.927   3.882 -0.0476  2.5451 -0.8664
47893SOL    HW250795   2.287   5.018   3.978 -1.5038  2.0144 -1.4278
47894SOL     OW50796   4.170   8.088  12.263  0.4317  0.0537  0.0648
47894SOL    HW150797   4.180   8.183  12.275  1.1938 -0.1305  0.9532
47894SOL    HW250798   4.092   8.066  12.314 -0.8906  0.4725 -1.6720
47895SOL     OW50799  10.813   7.274   3.642 -0.3518  0.1480 -0.2387
47895SOL    HW150800  10.741   7.214   3.624 -0.0446 -1.1095  2.2647
47895SOL    HW250801  10.787   7.318   3.724  0.8309  1.1331 -0.3695
47896SOL     OW50802   8.109   2.987   8.468 -0.6575 -0.4539 -0.1881
47896SOL    HW150803   8.053   2.961   8.396 -1.5015 -1.3919  0.7699
47896SOL    HW250804   8.051   2.990   8.544 -0.3389  2.9762  0.0718
47897SOL     OW50805   5.470  10.894   2.744 -0.2168  0.2920  0.3311
47897SOL    HW150806   5.498  10.985   2.735  0.1624  0.1157 -0.3433
47897SOL    HW250807   5.543  10.852   2.790  0.3423 -0.0162 -0.8060
47898SOL     OW50808   7.466   8.838   3.246 -0.2097 -0.0473  0.5350
47898SOL    HW150809   7.518   8.836   3.327  1.2444 -1.6976 -0.3663
47898SOL    HW250810   7.508   8.773   3.190 -2.7858 -0.8520 -0.5696
47899SOL     OW50811  10.187   4.362   9.945  0.2757 -0.3032 -0.6340
47899SOL    HW150812  10.128   4.310   9.890  0.1138  0.5878 -1.3128
47899SOL    HW250813  10.223   4.428   9.887  0.0068  0.7495  0.3606
47900SOL     OW50814   7.759  11.714  10.542 -0.1100  0.4530  0.7118
47900SOL    HW150815   7.820  11.777  10.504  0.2643  0.0299  0.6004
47900SOL    HW250816   7.814  11.657  10.595 -0.4782  0.3593  0.9976
47901SOL     OW50817   6.326  11.165   6.016  0.3892 -1.0158 -0.1263
47901SOL    HW150818   6.381  11.142   5.941  0.6690  0.9181 -0.5544
47901SOL    HW250819   6.385  11.208   6.077 -0.5265  0.8578 -0.4814
47902SOL     OW50820   5.626   7.590   8.403 -0.0180  0.0255 -0.5010
47902SOL    HW150821   5.572   7.572   8.326 -1.6654  0.1870  0.5744
47902SOL    HW250822   5.605   7.680   8.427 -1.6176 -0.8467  1.7002
47903SOL     OW50823   6.824   4.878   9.162  0.0420  0.5582  0.1248
47903SOL    HW150824   6.747   4.879   9.219 -0.3407  0.3078 -0.3865
47903SOL    HW250825   6.790   4.865   9.074  0.7314 -1.1162  0.0470
47904SOL     OW50826   4.158   0.470  11.031  0.5681 -0.2242 -0.2724
47904SOL    HW150827   4.108   0.509  10.960  1.2319  1.6923  0.2497
47904SOL    HW250828   4.207   0.543  11.069  1.4062 -1.4739  1.1740
47905SOL     OW50829   2.197   0.087   0.634 -0.0362 -0.5015 -0.0664
47905SOL    HW150830   2.291   0.086   0.616 -0.1690  2.0019 -1.3257
47905SOL    HW250831   2.159   0.034   0.564  0.4013 -1.1939  0.2132
47906SOL     OW50832   9.307   6.813   2.393  0.2565 -0.4282 -0.3480
47906SOL    HW150833   9.381   6.784   2.340  2.1314  2.8157  0.1794
47906SOL    HW250834   9.286   6.738   2.448  3.6120 -1.3776 -0.0992
47907SOL     OW50835  12.551   9.832   9.116  0.3311 -0.0729  0.0690
47907SOL    HW150836  12.498   9.753   9.126  0.0953 -0.5029 -3.4404
47907SOL    HW250837  12.501   9.900   9.160 -1.0101 -1.2914  0.5130
47908SOL     OW50838   9.040   5.119   5.491 -0.1516  0.5684 -0.1336
47908SOL    HW150839   9.135   5.110   5.479 -0.4077 -0.6737 -1.4187
47908SOL    HW250840   9.009   5.030   5.506 -0.8200  1.1988  3.1160
47909SOL     OW50841   1.987   6.586   3.482  0.3575  0.0722  0.5268
47909SOL    HW150842   2.074   6.558   3.509 -0.0101  0.8094  2.6676
47909SOL    HW250843   2.002   6.667   3.434  0.9052 -0.3073  0.0370
47910SOL     OW50844   7.593   0.603   5.928  0.1679 -0.7840 -0.4008
47910SOL    HW150845   7.609   0.662   5.854 -0.2110  1.6241  1.3073
47910SOL    HW250846   7.621   0.517   5.896 -0.5549 -0.0062 -3.5179
47911SOL     OW50847   0.987   0.103   1.699  0.6376  0.4571  0.2295
47911SOL    HW150848   1.078   0.124   1.677  0.9738  0.9388  1.9542
47911SOL    HW250849   0.936   0.143   1.630  1.7962 -1.6154 -1.9993
47912SOL     OW50850   0.916   5.859   7.197 -0.3741 -0.0793 -0.0643
47912SOL    HW150851   0.868   5.841   7.116 -0.3674 -0.9701  0.1234
47912SOL    HW250852   0.964   5.939   7.178  1.7719 -1.6633 -1.9264
47913SOL     OW50853   7.633   1.143  12.590  0.0580 -0.2220 -0.4553
47913SOL    HW150854   7.608   1.214  12.531  1.7576  0.8186  0.0162
47913SOL    HW250855   7.636   1.183  12.677  0.7363 -0.9321 -0.1348
47914SOL     OW50856  11.853   5.662   5.747  0.6043 -0.2482  0.0986
47914SOL    HW150857  11.791   5.733   5.732 -0.5170 -1.0449  0.7938
47914SOL    HW250858  11.867   5.622   5.661  1.2978  0.8357 -0.3062
47915SOL     OW50859   9.161  11.941   1.860 -0.0602  0.1050 -0.1321
47915SOL    HW150860   9.172  11.846   1.861 -0.2689 -0.0180 -2.4752
47915SOL    HW250861   9.111  11.961   1.939 -0.4562 -1.7968  0.1402
47916SOL     OW50862  12.957  11.814   7.348 -0.4515  0.2815  0.4137
47916SOL    HW150863  12.991  11.900   7.323 -1.3453  1.1016  1.9296
47916SOL    HW250864  13.007  11.753   7.293  1.6186  1.6033  0.6963
47917SOL     OW50865   7.032   7.786   3.448  0.5760  0.0359  0.3297
47917SOL    HW150866   6.964   7.847   3.475 -0.3080 -0.7712 -0.0092
47917SOL    HW250867   7.006   7.702   3.486  0.6138 -0.5893 -0.9408
47918SOL     OW50868   4.704   7.875   1.587  0.0770  0.7763  0.2629
47918SOL    HW150869   4.751   7.850   1.667  0.0268  1.0758  0.3864
47918SOL    HW250870   4.631   7.813   1.582 -0.3123  1.1819  0.8143
47919SOL     OW50871  10.936   5.667   4.405 -0.8609  0.4548 -0.8021
47919SOL    HW150872  10.874   5.628   4.466  1.6684 -1.1933  0.9014
47919SOL    HW250873  10.968   5.594   4.352 -0.9189  1.3975 -2.2079
47920SOL     OW50874   9.780  10.063  11.664  0.0899  0.1255 -0.0687
47920SOL    HW150875   9.848  10.057  11.596 -0.9092  0.9318 -1.1895
47920SOL    HW250876   9.732   9.980  11.656 -0.9891  0.8384 -1.4627
47921SOL     OW50877   6.154   6.369   4.271 -0.2907  0.3759  0.0151
47921SOL    HW150878   6.100   6.406   4.341  0.7951  2.4810 -0.1747
47921SOL    HW250879   6.125   6.415   4.192  1.3859  1.1711 -0.1724
47922SOL     OW50880   1.107   3.136   5.188 -0.0741  0.0752  0.4758
47922SOL    HW150881   1.177   3.083   5.151 -1.1859 -0.2924 -1.2325
47922SOL    HW250882   1.040   3.072   5.214  0.3523  0.3896  2.4679
47923SOL     OW50883   0.951  12.709   1.061 -0.0088  0.4203  0.0074
47923SOL    HW150884   0.870  12.688   1.108 -0.3724  0.5049 -0.5696
47923SOL    HW250885   0.927  12.780   1.002  0.7293  1.1224  0.5254
47924SOL     OW50886   6.719   8.032   4.587 -0.2329 -0.0293  0.0584
47924SOL    HW150887   6.703   8.041   4.681 -1.2503 -1.9758  0.1311
47924SOL    HW250888   6.804   8.073   4.573 -0.5990  1.3678  1.6010
47925SOL     OW50889   5.435   1.228   6.515  0.3890 -0.0664 -0.4476
47925SOL    HW150890   5.493   1.293   6.475 -0.5072  0.3900 -1.0328
47925SOL    HW250891   5.433   1.252   6.607 -0.7380  1.3975 -0.8221
47926SOL     OW50892   4.258   1.437   0.535 -0.1847  0.7390  0.0297
47926SOL    HW150893   4.309   1.410   0.458  0.0515  0.2823  0.3449
47926SOL    HW250894   4.168   1.416   0.512 -0.0250 -0.1590  0.1994
47927SOL     OW50895   4.663   8.032   3.762 -0.8615  0.1386 -0.7990
47927SOL    HW150896   4.590   8.021   3.701  0.2865  0.0676 -2.2184
47927SOL    HW250897   4.713   7.950   3.756 -0.0585  0.6020 -0.7050
47928SOL     OW50898   4.194  11.568   2.714  0.3463  0.2644 -0.4276
47928SOL    HW150899   4.277  11.614   2.702  0.7698 -0.6574 -1.1745
47928SOL    HW250900   4.126  11.634   2.699  0.9396  0.7879 -0.8277
47929SOL     OW50901   8.743  11.970   9.233 -0.4118 -0.2153  1.1260
47929SOL    HW150902   8.689  12.040   9.195 -0.9821 -0.9699  0.5268
47929SOL    HW250903   8.812  12.017   9.280 -0.0833  0.7464 -0.2524
47930SOL     OW50904   9.107   1.667   8.335 -0.0070 -0.0957 -0.2859
47930SOL    HW150905   9.156   1.698   8.260  3.5527  0.3912  1.9969
47930SOL    HW250906   9.132   1.575   8.344  2.7824  0.7535  2.3126
47931SOL     OW50907  12.479  12.801  11.512 -0.8012  0.4315  0.1900
47931SOL    HW150908  12.486  12.713  11.548  0.9606  0.8453  0.9346
47931SOL    HW250909  12.444  12.854  11.583 -1.2670  0.4574 -0.0557
47932SOL     OW50910   6.266   9.491   7.673  0.2124  0.2446  0.4646
47932SOL    HW150911   6.315   9.427   7.623  1.9541  1.7903  0.0898
47932SOL    HW250912   6.325   9.517   7.743 -1.0641  0.3052  1.5623
47933SOL     OW50913   0.598   1.289   4.842  0.2360  0.2017 -0.4269
47933SOL    HW150914   0.635   1.290   4.930  1.1524  1.2577 -0.7946
47933SOL    HW250915   0.592   1.196   4.819  0.5132 -0.0615  0.5297
47934SOL     OW50916   1.472   0.051  12.153  0.0993 -0.2799  0.3433
47934SOL    HW150917   1.405   0.120  12.163  0.0402 -0.6550  3.8656
47934SOL    HW250918   1.455  -0.009  12.226  1.7684 -2.6663 -1.0970
47935SOL     OW50919   8.087  10.881   3.927 -0.5596 -0.6742  0.3916
47935SOL    HW150920   8.105  10.791   3.900  1.2987 -0.8483  2.0348
47935SOL    HW250921   8.118  10.886   4.018 -1.0000  1.5240  0.4785
47936SOL     OW50922   5.537  12.412   3.334 -0.0626  0.4615  0.3314
47936SOL    HW150923   5.514  12.500   3.364 -0.0882  0.3246  0.7264
47936SOL    HW250924   5.627  12.420   3.302 -0.1478  0.6820  0.1556
47937SOL     OW50925   7.364   0.280   7.615  0.0250  0.4320  0.4031
47937SOL    HW150926   7.269   0.275   7.617 -0.0339 -0.8062 -1.7164
47937SOL    HW250927   7.384   0.344   7.546  0.6502 -0.6698 -0.4978
47938SOL     OW50928  12.469  10.043   2.618  0.0197  0.1759  0.7632
47938SOL    HW150929  12.463  10.077   2.528 -0.0231  0.8371  1.0119
47938SOL    HW250930  12.425   9.959   2.614 -1.3095  0.8556  0.4876
47939SOL     OW50931   0.458   4.949   1.143  0.1150  0.3118  0.0238
47939SOL    HW150932   0.484   4.866   1.105  0.5180  0.1285  0.6806
47939SOL    HW250933   0.439   4.929   1.234  0.0112  0.9021  0.1362
47940SOL     OW50934   1.316   5.579  12.643 -0.2234  1.3705 -0.5598
47940SOL    HW150935   1.274   5.565  12.558  0.4204 -1.0894 -0.5788
47940SOL    HW250936   1.251   5.551  12.707  0.2143  0.6424 -0.4197
47941SOL     OW50937   6.357   5.910   7.235 -0.1538 -0.0645 -0.1270
47941SOL    HW150938   6.441   5.875   7.206 -0.3589 -0.6963  0.0187
47941SOL    HW250939   6.302   5.833   7.247 -0.2123  0.1890  1.5105
47942SOL     OW50940   7.423   4.533  12.564 -0.0651 -0.0606 -0.4839
47942SOL    HW150941   7.379   4.608  12.605 -1.8675 -0.5131 -1.5011
47942SOL    HW250942   7.516   4.554  12.571 -0.5011  2.2141 -0.5886
47943SOL     OW50943   3.571   7.719   9.698 -0.6627  0.5521  0.2843
47943SOL    HW150944   3.585   7.730   9.604  1.1405 -0.4949  0.3612
47943SOL    HW250945   3.566   7.624   9.710 -1.8223  0.7065  1.1432
47944SOL     OW50946   2.921   3.656   8.682  0.1568 -0.6360  0.4082
47944SOL    HW150947   2.877   3.573   8.666 -0.2925 -0.0363 -1.8738
47944SOL    HW250948   2.859   3.707   8.734 -0.9283 -0.6384 -0.8333
47945SOL     OW50949   7.539   5.684   1.753  0.0008  0.2211 -0.0894
47945SOL    HW150950   7.483   5.755   1.785 -0.4423 -1.2371  2.7356
47945SOL    HW250951   7.620   5.693   1.803  1.3096  0.6785 -2.1727
47946SOL     OW50952   8.553   9.885   7.661  0.4102  0.1535  0.9274
47946SOL    HW150953   8.604   9.846   7.591  0.1710  0.3527  0.6348
47946SOL    HW250954   8.472   9.834   7.663 -0.5951  1.5934 -0.5358
47947SOL     OW50955   2.240  10.231   7.598 -0.0962 -0.1451  0.3013
47947SOL    HW150956   2.314  10.204   7.653 -0.4700 -0.0710  0.8461
47947SOL    HW250957   2.217  10.319   7.630  0.1723  0.2193 -0.4850
47948SOL     OW50958   8.304   6.069   6.408 -0.4402  0.8041 -0.1732
47948SOL    HW150959   8.339   6.136   6.468  0.8688 -0.0086 -0.0013
47948SOL    HW250960   8.330   6.099   6.321 -1.0258  1.2010 -0.2176
47949SOL     OW50961   0.522   6.123  12.798  0.2298 -0.5019 -0.3430
47949SOL    HW150962   0.576   6.185  12.750  1.3565  0.5534  2.0890
47949SOL    HW250963   0.444   6.111  12.744  0.2347  2.5856 -1.2185
47950SOL     OW50964   0.152  10.919  12.665  0.2021  0.3286  0.5950
47950SOL    HW150965   0.129  11.012  12.670  0.2767  0.3035  1.7749
47950SOL    HW250966   0.076  10.874  12.704 -0.1031 -0.1533 -0.5312
47951SOL     OW50967   4.876  10.096  12.625  0.2160  0.3665 -0.0793
47951SOL    HW150968   4.919  10.174  12.661 -1.9019  1.9613 -0.8008
47951SOL    HW250969   4.862  10.039  12.700  2.6843  0.1682  0.3121
47952SOL     OW50970   9.669   9.071   9.177 -0.8103  1.0915  0.2411
47952SOL    HW150971   9.602   9.131   9.208 -0.2096  1.9825 -0.1283
47952SOL    HW250972   9.665   9.078   9.081 -0.0328  1.3409  0.2216
47953SOL     OW50973  11.793   9.553   1.076  0.4495 -0.5400  0.3646
47953SOL    HW150974  11.881   9.588   1.060  1.0722 -1.7987  0.8393
47953SOL    HW250975  11.784   9.483   1.010 -1.6099  1.7707 -2.0234
47954SOL     OW50976  12.268   1.863   7.793  0.9031  0.2308 -0.2645
47954SOL    HW150977  12.277   1.896   7.883  1.3853  0.7920 -0.5157
47954SOL    HW250978  12.173   1.853   7.781  0.8757 -0.7864  0.6301
47955SOL     OW50979   7.318   4.344  11.251  0.0755  0.1871  0.5729
47955SOL    HW150980   7.330   4.374  11.161 -0.3567  1.7123  0.9926
47955SOL    HW250981   7.396   4.292  11.270  0.9340  1.1613 -0.1633
47956SOL     OW50982   3.862   0.641  12.776 -0.2018  0.0127 -0.1974
47956SOL    HW150983   3.911   0.690  12.842  0.8603 -2.1799  0.7587
47956SOL    HW250984   3.772   0.640  12.807  0.0140  0.2687  0.4414
47957SOL     OW50985   3.108   7.856  12.698 -0.8038  0.1932 -0.0513
47957SOL    HW150986   3.081   7.947  12.681 -0.3206  0.5807  1.1724
47957SOL    HW250987   3.178   7.863  12.762  1.7028 -0.8389 -2.4683
47958SOL     OW50988  11.439   2.838  10.067  0.6438  0.0375  0.3870
47958SOL    HW150989  11.363   2.814  10.119 -0.1776  2.1647  0.2466
47958SOL    HW250990  11.418   2.809   9.978  0.5969 -0.5403  0.5784
47959SOL     OW50991   4.996  12.197   9.216 -0.4954  0.0455 -0.3626
47959SOL    HW150992   4.925  12.236   9.166  1.2057  0.8823 -2.2900
47959SOL    HW250993   4.976  12.103   9.217 -2.3740  0.4052  0.5144
47960SOL     OW50994   3.148   3.421   1.993 -0.0653 -0.1306 -0.0170
47960SOL    HW150995   3.233   3.461   2.009  0.6552 -1.1801 -1.0283
47960SOL    HW250996   3.169   3.331   1.966 -1.5372 -0.6690  0.5398
47961SOL     OW50997   7.050   7.163   4.289 -0.2021 -0.2226 -0.2975
47961SOL    HW150998   7.072   7.188   4.379 -0.3256 -1.9880  0.2571
47961SOL    HW250999   6.994   7.233   4.257 -0.4183  0.2679  1.1179
47962SOL     OW51000  12.012   1.691   9.202  0.0230  0.1161 -0.0039
47962SOL    HW151001  11.959   1.632   9.149  2.7218  0.4924 -3.5406
47962SOL    HW251002  11.967   1.775   9.197  0.2552  0.1677 -1.9703
47963SOL     OW51003   2.773   5.278   5.507  0.0107 -0.0464 -0.5608
47963SOL    HW151004   2.680   5.259   5.494 -0.2657  0.6454  0.3268
47963SOL    HW251005   2.796   5.232   5.588  0.3805  0.0017 -0.6371
47964SOL     OW51006   4.162   1.101   7.639  0.0922 -0.2641 -0.0987
47964SOL    HW151007   4.158   1.013   7.602 -1.3364 -0.6968  0.9838
47964SOL    HW251008   4.238   1.099   7.698  1.6686  0.0806 -2.0262
47965SOL     OW51009   4.956   4.711   2.549 -1.2295 -0.2474  0.0578
47965SOL    HW151010   4.891   4.657   2.503 -0.5449 -1.8825  0.9189
47965SOL    HW251011   5.040   4.674   2.522 -0.6481  1.3731 -0.4712
47966SOL     OW51012   4.036   7.482   1.019 -0.2076  0.2545  0.8426
47966SOL    HW151013   4.131   7.478   1.030 -0.2190 -1.1779  0.6232
47966SOL    HW251014   4.003   7.516   1.102  0.5097  1.1253  0.7850
47967SOL     OW51015   7.270   3.702   2.375 -0.5223  0.1018  0.9069
47967SOL    HW151016   7.291   3.780   2.323 -0.3212 -1.7021 -1.8964
47967SOL    HW251017   7.185   3.674   2.342 -0.3306 -1.1970  1.4621
47968SOL     OW51018   2.395  12.530   0.606 -0.0860  0.0824  0.6950
47968SOL    HW151019   2.336  12.604   0.622  2.2217  1.7732  2.0124
47968SOL    HW251020   2.421  12.540   0.514  0.5801  1.2467  0.9882
47969SOL     OW51021   7.048   7.671   1.848 -0.8423  0.2086  0.1953
47969SOL    HW151022   7.120   7.624   1.889 -1.1501 -1.6046 -1.1911
47969SOL    HW251023   6.969   7.627   1.880 -1.1935  0.4106 -0.3599
47970SOL     OW51024   0.852   2.590   4.322  0.3979 -0.1346  0.0863
47970SOL    HW151025   0.773   2.642   4.337 -0.2281 -1.2602  0.8810
47970SOL    HW251026   0.880   2.564   4.410  0.4456 -1.4661 -0.3023
47971SOL     OW51027  11.501   0.248   9.027 -0.1045  0.0107  0.1655
47971SOL    HW151028  11.525   0.176   8.968 -0.0324 -0.3616  0.6493
47971SOL    HW251029  11.579   0.262   9.081  0.6453  1.8207 -1.2612
47972SOL     OW51030   7.102   2.148   8.344  0.1858  0.0896 -0.2543
47972SOL    HW151031   7.158   2.224   8.331 -1.4546  1.7785  1.7811
47972SOL    HW251032   7.019   2.172   8.304 -0.3544 -0.6433  0.3923
47973SOL     OW51033  11.136   6.840   3.253 -0.0785  0.2099 -0.0780
47973SOL    HW151034  11.116   6.866   3.344  1.8320  0.7953  0.2120
47973SOL    HW251035  11.125   6.745   3.253 -0.6251  0.2603  0.6303
47974SOL     OW51036   5.618  11.270   2.272 -0.7399  0.3758  0.2856
47974SOL    HW151037   5.672  11.233   2.202 -0.7205  1.5072 -0.3213
47974SOL    HW251038   5.534  11.225   2.263 -0.4353 -0.1732  0.1488
47975SOL     OW51039   5.677   5.920   6.182 -0.4022  0.2798  0.0642
47975SOL    HW151040   5.689   5.920   6.087 -0.7793  1.1456  0.0030
47975SOL    HW251041   5.695   5.830   6.209 -4.2458 -1.1243 -1.3397
47976SOL     OW51042   7.158   5.262  10.443  0.0222 -0.0048 -0.1347
47976SOL    HW151043   7.205   5.341  10.418 -1.3572  1.4750  1.7075
47976SOL    HW251044   7.068   5.291  10.459 -0.3125 -1.7410  1.4720
47977SOL     OW51045  12.632   1.007  10.944 -0.2356  0.2432 -0.0322
47977SOL    HW151046  12.709   1.019  11.000  0.3054 -0.6002 -0.5772
47977SOL    HW251047  12.663   1.027  10.856 -0.3718 -1.0381 -0.3962
47978SOL     OW51048   3.928   1.808   4.316  0.3181  0.3096 -0.5953
47978SOL    HW151049   3.839   1.837   4.339  0.3282  0.1191 -0.3110
47978SOL    HW251050   3.933   1.718   4.347  1.2514  0.9220  1.1758
47979SOL     OW51051  10.616   1.100   9.229  0.2251 -0.1543 -0.0726
47979SOL    HW151052  10.710   1.116   9.220  0.5041 -2.2505 -1.5336
47979SOL    HW251053  10.579   1.187   9.247  2.3689  0.7720  0.2074
47980SOL     OW51054   0.683   3.145   4.877  0.0601 -0.0170 -0.0060
47980SOL    HW151055   0.698   3.226   4.927 -0.3623  1.0203 -1.4769
47980SOL    HW251056   0.745   3.151   4.804 -0.7963 -0.4239 -0.7813
47981SOL     OW51057  11.298   3.026   3.096  0.4280  0.2598  0.0437
47981SOL    HW151058  11.328   2.981   3.175 -0.0534 -0.7358 -0.3207
47981SOL    HW251059  11.338   3.113   3.101  0.9428 -0.0181  1.0410
47982SOL     OW51060  12.897   7.337  11.343 -0.4995 -0.0069  0.4360
47982SOL    HW151061  12.820   7.364  11.293  0.5845  1.1876 -0.7049
47982SOL    HW251062  12.955   7.298  11.277  1.4182  2.5595  0.4313
47983SOL     OW51063   7.170   8.359   2.254 -0.6729  0.3484 -0.2361
47983SOL    HW151064   7.221   8.318   2.324 -0.5488  1.3908  0.2958
47983SOL    HW251065   7.086   8.382   2.294 -0.5272  1.1365 -0.3546
47984SOL     OW51066   5.080   3.703   0.659  0.3702 -0.3177 -0.1385
47984SOL    HW151067   5.114   3.620   0.692 -0.4985 -1.4367 -1.9250
47984SOL    HW251068   5.003   3.720   0.713  0.8473 -0.3654  0.5817
47985SOL     OW51069   7.317   0.832   0.572 -0.3390 -0.4178 -0.0433
47985SOL    HW151070   7.261   0.905   0.596  0.5756  0.5388 -0.7453
47985SOL    HW251071   7.280   0.757   0.619 -1.2619  0.4920  0.7199
47986SOL     OW51072   1.082  10.045   7.570  0.2311  1.2143  0.0046
47986SOL    HW151073   0.991  10.069   7.550 -0.1150 -0.6080 -0.8458
47986SOL    HW251074   1.098   9.967   7.517  0.8450 -1.1761  3.3848
47987SOL     OW51075  10.232   2.040  12.313 -0.1387 -0.6317  0.0126
47987SOL    HW151076  10.217   1.994  12.396  0.3167 -0.8557 -0.0255
47987SOL    HW251077  10.255   2.129  12.340  0.9133 -0.9315  0.1844
47988SOL     OW51078   5.984   4.993   2.748 -0.1400 -0.0737  0.1080
47988SOL    HW151079   5.972   4.994   2.843 -1.7958 -1.8194 -0.0260
47988SOL    HW251080   6.079   4.997   2.736  0.1213 -0.3355  1.8562
47989SOL     OW51081   9.167   2.939  11.609  0.5584  0.0600  0.1851
47989SOL    HW151082   9.128   2.988  11.536 -0.3864 -0.9880 -0.0483
47989SOL    HW251083   9.144   2.848  11.591  1.3021 -0.3444  1.2014
47990SOL     OW51084   1.170   4.622   6.164  0.1145 -0.0887 -0.0823
47990SOL    HW151085   1.128   4.537   6.177  0.9596 -0.9004 -2.2482
47990SOL    HW251086   1.259   4.609   6.197 -0.5366  0.9473  2.3751
47991SOL     OW51087   6.560   4.511   1.337  0.4304  0.4548 -0.0409
47991SOL    HW151088   6.608   4.583   1.296 -1.7033  2.3432  0.5404
47991SOL    HW251089   6.626   4.444   1.354  2.2266  1.5918 -2.0877
47992SOL     OW51090   4.092   5.408   3.189  0.3261  0.4396 -0.4068
47992SOL    HW151091   4.106   5.313   3.190 -0.1287  0.3659  0.4241
47992SOL    HW251092   4.179   5.445   3.206  0.3880  0.1480 -0.0688
47993SOL     OW51093  12.890   9.960   4.751  0.3400 -0.0766 -0.4694
47993SOL    HW151094  12.953   9.929   4.816  2.6131  1.0915 -1.9613
47993SOL    HW251095  12.921  10.048   4.729 -3.2728  1.5893  0.4287
47994SOL     OW51096   0.794   3.254  12.182 -0.5382 -0.1080  0.3440
47994SOL    HW151097   0.800   3.279  12.090 -0.9586  1.3708  0.7024
47994SOL    HW251098   0.702   3.232  12.195  0.1592 -4.6538 -0.5946
47995SOL     OW51099  11.702  10.504  11.853  0.8595  0.5427 -0.4204
47995SOL    HW151100  11.624  10.462  11.817  0.9442  1.6907 -2.0397
47995SOL    HW251101  11.771  10.437  11.846 -0.4699 -1.6449  3.8530
47996SOL     OW51102   1.917   4.797   9.637  0.1061 -0.5352  0.8659
47996SOL    HW151103   1.975   4.804   9.713 -0.4840 -1.7379  1.4655
47996SOL    HW251104   1.908   4.702   9.624  0.4376 -0.3544 -0.9071
47997SOL     OW51105   3.475  11.823   8.868 -0.0222  0.3187 -0.3354
47997SOL    HW151106   3.436  11.910   8.874 -2.1232 -0.6089  0.4307
47997SOL    HW251107   3.506  11.816   8.778 -3.4628  0.4460 -1.6424
47998SOL     OW51108   1.298   7.871  11.324  0.1026  0.4942 -0.1662
47998SOL    HW151109   1.203   7.865  11.336 -0.0565 -0.1505 -1.5184
47998SOL    HW251110   1.328   7.929  11.393 -1.2187  0.3236  0.5742
47999SOL     OW51111   5.857   4.201   7.461 -0.3326 -0.2374 -0.1069
47999SOL    HW151112   5.894   4.132   7.516 -0.6039  0.5215  1.0585
47999SOL    HW251113   5.777   4.163   7.424 -1.4147 -0.0250  1.8855
48000SOL     OW51114   1.251   4.836  10.516  0.4726  0.3491 -0.0726
48000SOL    HW151115   1.244   4.856  10.610 -1.2059  0.1708 -0.1380
48000SOL    HW251116   1.184   4.770  10.500  4.4708 -4.2220 -0.2725
48001SOL     OW51117  12.678   8.690   5.211 -0.0333 -0.0889 -0.5206
48001SOL    HW151118  12.759   8.639   5.203 -0.5663 -1.3596  1.4058
48001SOL    HW251119  12.609   8.624   5.213 -0.9786  0.8767 -0.4992
48002SOL     OW51120  11.046   4.057   1.755 -0.1448  0.3592  0.1086
48002SOL    HW151121  11.031   3.983   1.696 -1.0954  0.3464  0.3465
48002SOL    HW251122  11.038   4.134   1.699  1.0666  0.2849 -0.1830
48003SOL     OW51123  11.979   1.980  10.100  0.4158  0.6335 -0.3924
48003SOL    HW151124  12.041   1.954  10.033 -1.0636  0.7451 -1.8551
48003SOL    HW251125  12.034   2.018  10.170  2.1631 -1.6159 -0.4465
48004SOL     OW51126   0.112   3.765   4.982 -0.3206 -0.0693 -0.2544
48004SOL    HW151127   0.178   3.833   4.996 -0.5795  0.2870 -0.7314
48004SOL    HW251128   0.061   3.764   5.063  0.5841 -0.7170  0.3331
48005SOL     OW51129   1.838   8.247   8.561 -0.0801  0.0300  0.1525
48005SOL    HW151130   1.805   8.158   8.574 -1.2421  0.5811  1.1034
48005SOL    HW251131   1.791   8.279   8.484 -0.7031  0.3010  0.6399
48006SOL     OW51132   0.155   4.037   2.647 -0.3185  0.4588 -0.0505
48006SOL    HW151133   0.135   3.954   2.690 -0.4432  0.0152 -0.9207
48006SOL    HW251134   0.079   4.053   2.590 -0.8802  1.8220  1.0170
48007SOL     OW51135   4.103   6.851   7.508 -0.7996  0.6677  0.2486
48007SOL    HW151136   4.020   6.887   7.477 -0.7890  0.9125  0.4986
48007SOL    HW251137   4.156   6.928   7.530  0.0037  0.5722 -1.1795
48008SOL     OW51138   2.288  12.697   7.920 -0.4504 -0.4826  0.2593
48008SOL    HW151139   2.323  12.734   7.838 -1.2055 -0.2938  0.0066
48008SOL    HW251140   2.339  12.618   7.935  0.7818  0.3129  0.4677
48009SOL     OW51141  12.635   0.452   1.529 -0.0252  0.2342  0.3038
48009SOL    HW151142  12.606   0.510   1.599 -0.4040  1.3215 -0.7284
48009SOL    HW251143  12.686   0.507   1.471  0.4330 -0.6918 -0.2024
48010SOL     OW51144   6.030  12.837   6.587 -0.5628 -0.1609 -0.3839
48010SOL    HW151145   6.107  12.781   6.575  0.3542  1.0247 -0.2062
48010SOL    HW251146   5.976  12.790   6.650  0.8462 -0.2142  0.8501
48011SOL     OW51147   5.075   9.794  12.804 -0.5438  0.0051 -0.9423
48011SOL    HW151148   5.144   9.840  12.851  0.3697 -1.6657 -0.5582
48011SOL    HW251149   4.995   9.813  12.853  0.0151  0.2059 -0.0947
48012SOL     OW51150   1.825   2.652   7.131  0.4842  0.7754 -0.3246
48012SOL    HW151151   1.903   2.688   7.090  0.7378  1.1029  0.4288
48012SOL    HW251152   1.822   2.692   7.218 -0.7732  1.1244 -0.5007
48013SOL     OW51153   7.382  12.657   6.627 -0.3322 -0.2162 -0.1160
48013SOL    HW151154   7.343  12.695   6.548  0.5280 -1.4033 -1.1591
48013SOL    HW251155   7.474  12.643   6.603 -0.1950 -1.1575  0.8798
48014SOL     OW51156   0.333   3.194   1.682  0.1668  0.0645 -0.2678
48014SOL    HW151157   0.362   3.103   1.691  1.0969  0.4911  1.5154
48014SOL    HW251158   0.409   3.246   1.709 -0.1555  1.4108 -1.8101
48015SOL     OW51159  12.473   8.429   8.924  0.1750  0.1229 -0.2883
48015SOL    HW151160  12.507   8.518   8.918 -0.2629  0.3393  0.3304
48015SOL    HW251161  12.479   8.407   9.017 -2.7137  0.7435  0.1565
48016SOL     OW51162   2.636  11.484   1.043 -0.0345  0.2455  0.9114
48016SOL    HW151163   2.636  11.580   1.042 -0.9889  0.2534  0.8624
48016SOL    HW251164   2.658  11.461   1.133  0.8539  0.4980  0.7642
48017SOL     OW51165  11.406   2.951   9.586 -0.0914 -0.3159 -0.2115
48017SOL    HW151166  11.440   3.032   9.624  1.6047 -0.3740 -1.4956
48017SOL    HW251167  11.311   2.963   9.584  0.0878  1.3622  0.1954
48018SOL     OW51168  11.839   8.303   7.268  0.3444 -0.1374  0.4982
48018SOL    HW151169  11.753   8.315   7.227 -0.0428  0.9261  1.5819
48018SOL    HW251170  11.825   8.234   7.332  0.0020  0.8062  1.4591
48019SOL     OW51171   6.706  10.409   3.931  0.4403 -0.4295  0.0418
48019SOL    HW151172   6.690  10.361   4.012 -0.1470 -2.3504 -1.1492
48019SOL    HW251173   6.620  10.437   3.901  0.6531  0.2729  0.0635
48020SOL     OW51174   2.998   3.871   1.184  0.0516 -0.0792 -0.3700
48020SOL    HW151175   2.974   3.963   1.194 -0.5381 -0.2061 -0.6063
48020SOL    HW251176   3.041   3.866   1.098 -0.9401 -0.2250 -0.8729
48021SOL     OW51177   7.727   9.687  11.138  0.7219 -0.3361 -0.2084
48021SOL    HW151178   7.641   9.709  11.103  1.2111 -0.0040 -1.2362
48021SOL    HW251179   7.754   9.610  11.089  1.9327  0.8473 -1.4703
48022SOL     OW51180   7.519   8.990   1.255 -0.2630 -0.4483 -0.7197
48022SOL    HW151181   7.564   8.925   1.309 -0.3009 -0.1402 -0.3090
48022SOL    HW251182   7.572   9.069   1.264 -2.9718  1.2895  3.2757
48023SOL     OW51183   5.985   5.579   6.047 -0.4276  0.3964  0.3838
48023SOL    HW151184   6.072   5.600   6.082  0.3025 -1.9113  0.1777
48023SOL    HW251185   5.935   5.548   6.123 -1.0193  1.5312  0.4673
48024SOL     OW51186  10.097   3.292  12.322  0.5392  0.1523 -0.2189
48024SOL    HW151187  10.116   3.276  12.414 -0.7546  2.2041  0.4767
48024SOL    HW251188  10.002   3.297  12.317  0.6099  0.8726 -1.5096
48025SOL     OW51189   6.272   8.331   9.265 -0.7733  0.8506  0.0932
48025SOL    HW151190   6.299   8.393   9.334 -2.3662  1.4002  0.2612
48025SOL    HW251191   6.193   8.370   9.227 -1.2137 -0.5704 -0.5208
48026SOL     OW51192  10.921   2.269  12.117 -0.0934 -0.4745  0.0573
48026SOL    HW151193  10.949   2.360  12.105 -1.3733 -0.1791 -0.8058
48026SOL    HW251194  10.964   2.221  12.046 -1.0282 -0.1651 -0.7469
48027SOL     OW51195  12.663   5.712   8.555 -0.1523 -0.3404  0.0415
48027SOL    HW151196  12.634   5.755   8.635 -0.9944  0.5282 -0.7032
48027SOL    HW251197  12.705   5.631   8.584 -1.1166 -0.4019  1.3106
48028SOL     OW51198  10.326   6.944   0.947 -0.2145  0.0996 -0.0206
48028SOL    HW151199  10.308   6.909   1.034  0.5509  1.3155  0.6503
48028SOL    HW251200  10.405   6.997   0.958 -0.8357  1.3232 -1.1702
48029SOL     OW51201  11.813   8.986   8.773 -0.5036  0.2043  0.1290
48029SOL    HW151202  11.729   8.940   8.767  0.4173 -1.4808 -0.4703
48029SOL    HW251203  11.862   8.937   8.839  1.5168 -1.5006 -2.4328
48030SOL     OW51204   4.852  10.451  12.043  0.1163 -0.2744 -0.5414
48030SOL    HW151205   4.835  10.532  11.997  0.3076 -0.2710 -0.6101
48030SOL    HW251206   4.767  10.424  12.078  0.2540  0.5764  0.5068
48031SOL     OW51207   7.317   7.772  12.811  0.3569 -0.4356 -0.7156
48031SOL    HW151208   7.357   7.853  12.841 -0.0167 -0.8018  0.8414
48031SOL    HW251209   7.223   7.793  12.804  0.0720 -1.0457  0.9158
48032SOL     OW51210   5.584  11.860   1.550  0.3479 -0.2276  0.1776
48032SOL    HW151211   5.554  11.781   1.596  2.6660 -1.9960 -1.0972
48032SOL    HW251212   5.628  11.911   1.618  0.2526 -0.8610  0.7346
48033SOL     OW51213   8.621   5.257  10.935 -0.0980 -0.2497 -0.1757
48033SOL    HW151214   8.531   5.223  10.939 -0.1168 -0.1764  0.0951
48033SOL    HW251215   8.620   5.333  10.994 -0.1447  0.4455 -1.0610
48034SOL     OW51216   9.519  10.485   0.676  0.1274 -0.1141  0.3313
48034SOL    HW151217   9.538  10.476   0.582 -0.3722 -0.6321  0.2782
48034SOL    HW251218   9.511  10.579   0.689  1.4254  0.0488  0.1008
48035SOL     OW51219   3.407   1.873   6.425  0.0314  0.0815  0.2017
48035SOL    HW151220   3.397   1.779   6.408 -0.8038  0.2862 -0.5444
48035SOL    HW251221   3.361   1.915   6.352 -1.7221  1.0591  1.7931
48036SOL     OW51222  12.308   9.924   5.235  0.3137  0.0755  0.6198
48036SOL    HW151223  12.316  10.014   5.266  0.0848 -0.2766  1.7743
48036SOL    HW251224  12.274   9.932   5.146  1.2094  1.1463  0.3506
48037SOL     OW51225  11.061   3.798   4.664  0.0989  0.1150 -0.1282
48037SOL    HW151226  10.993   3.746   4.708  0.6354 -1.8163 -1.4517
48037SOL    HW251227  11.104   3.736   4.606  1.9192  1.6970 -0.5555
48038SOL     OW51228   8.667   7.272   4.367  0.6689  0.2458 -0.0604
48038SOL    HW151229   8.640   7.355   4.328 -0.7251 -0.2245 -0.1323
48038SOL    HW251230   8.648   7.283   4.461  2.1472  0.6333  0.2273
48039SOL     OW51231   3.813  10.389   8.907  0.4901  0.1911 -0.5289
48039SOL    HW151232   3.808  10.343   8.991 -1.0221 -3.9368 -2.6061
48039SOL    HW251233   3.757  10.466   8.918  0.8119  0.1091  2.3288
48040SOL     OW51234   1.318   8.199   8.358 -0.5523 -0.4900  0.1340
48040SOL    HW151235   1.359   8.116   8.383  0.6369  0.4043  1.2910
48040SOL    HW251236   1.323   8.253   8.436  0.6976  1.4234 -1.1736
48041SOL     OW51237   6.676   8.293  10.988 -0.1604  0.0083  0.3441
48041SOL    HW151238   6.620   8.228  10.948  0.8721 -2.6562  2.8747
48041SOL    HW251239   6.725   8.332  10.915 -1.8147 -1.0091 -1.3789
48042SOL     OW51240  10.946   4.769   5.088 -0.4439  0.1105  0.0536
48042SOL    HW151241  10.940   4.691   5.033  1.9445 -0.5134  0.5762
48042SOL    HW251242  10.969   4.736   5.175 -1.1132  1.3034  0.7107
48043SOL     OW51243   6.603   5.222   2.466 -0.7085 -0.1545  0.5134
48043SOL    HW151244   6.552   5.143   2.482  1.5949 -2.5972 -2.7164
48043SOL    HW251245   6.672   5.221   2.532 -0.5174 -1.0454  0.3029
48044SOL     OW51246   8.897   3.395   1.529  0.0843 -0.2317 -1.2085
48044SOL    HW151247   8.926   3.417   1.618 -0.4379  0.2137 -1.1413
48044SOL    HW251248   8.865   3.305   1.536  1.3693 -0.7163 -1.2737
48045SOL     OW51249   4.122  10.316   3.922 -0.0229  0.0702  0.1221
48045SOL    HW151250   4.185  10.313   3.994 -1.3821  0.9573  1.4368
48045SOL    HW251251   4.123  10.408   3.893 -0.9342  0.1926  0.4197
48046SOL     OW51252   3.939   4.429   8.929 -0.1171 -0.0661  0.3618
48046SOL    HW151253   3.901   4.509   8.892 -0.0435 -0.9282 -1.7090
48046SOL    HW251254   3.864   4.372   8.945 -0.1020  0.1195  1.1478
48047SOL     OW51255   3.571  10.223   9.599 -0.0637  0.7101  0.2624
48047SOL    HW151256   3.613  10.269   9.527  0.8040 -0.6990 -0.1724
48047SOL    HW251257   3.491  10.187   9.561  0.4506 -0.1313 -0.0690
48048SOL     OW51258   4.279   2.108   3.817 -0.2977  0.3119  0.0326
48048SOL    HW151259   4.220   2.050   3.768 -0.8300  0.6844  0.2149
48048SOL    HW251260   4.305   2.056   3.893  0.6512 -0.3209 -0.7093
48049SOL     OW51261  10.534  12.523  12.421 -0.1884  0.3825 -0.6499
48049SOL    HW151262  10.463  12.577  12.387  0.2598  1.1999 -0.3055
48049SOL    HW251263  10.601  12.585  12.450 -0.2098 -0.2985  0.9923
48050SOL     OW51264   6.044   8.505   5.121  0.1721  0.3656 -0.1405
48050SOL    HW151265   6.024   8.446   5.193 -0.4871  0.7727  0.0289
48050SOL    HW251266   6.107   8.567   5.157  2.0187 -1.0628 -0.7421
48051SOL     OW51267   4.271   5.373   8.760 -0.3223 -0.1047  0.2355
48051SOL    HW151268   4.304   5.451   8.716 -0.5802 -0.2348 -0.2011
48051SOL    HW251269   4.317   5.300   8.717 -0.5541 -0.2309  0.2000
48052SOL     OW51270   1.029   9.446  11.246  0.0269 -0.0829 -0.2571
48052SOL    HW151271   1.070   9.504  11.311 -0.6473  2.3770 -1.8801
48052SOL    HW251272   1.101   9.391  11.214  0.4427 -1.1008  2.1936
48053SOL     OW51273   2.307   3.557  10.267 -0.5967 -0.1805 -0.3237
48053SOL    HW151274   2.329   3.552  10.360 -0.0476  0.5386 -0.4114
48053SOL    HW251275   2.380   3.513  10.223 -0.1895  0.6548 -0.4980
48054SOL     OW51276   7.937   6.272  10.316  0.3211  0.6503  0.0316
48054SOL    HW151277   7.889   6.277  10.399  0.3758 -1.5651  0.2572
48054SOL    HW251278   7.871   6.246  10.252  0.8148 -0.4969 -0.0320
48055SOL     OW51279   8.769   7.476  11.510  0.1709 -0.3767  0.1440
48055SOL    HW151280   8.788   7.451  11.601  0.3429 -1.1498 -0.0973
48055SOL    HW251281   8.753   7.570  11.514  2.2938  0.0202  0.6592
48056SOL     OW51282   9.865  10.447   5.747  0.1983 -0.9138 -0.5985
48056SOL    HW151283   9.909  10.446   5.662  1.2210  0.0952 -0.1055
48056SOL    HW251284   9.910  10.515   5.797  0.8853 -2.7426  1.4361
48057SOL     OW51285   6.575   5.574  10.312 -0.4652 -0.2631  0.0778
48057SOL    HW151286   6.591   5.605  10.401 -0.4844 -1.9937  0.7382
48057SOL    HW251287   6.487   5.604  10.292  0.2769  1.8953 -0.1934
48058SOL     OW51288  11.629   4.386  10.965 -0.1421 -0.3590  0.1005
48058SOL    HW151289  11.598   4.471  10.933  0.6679  0.2435  0.8596
48058SOL    HW251290  11.706   4.407  11.018  1.4467 -1.7794 -1.5249
48059SOL     OW51291   3.234   1.980   6.235  0.4748 -0.0264  0.2270
48059SOL    HW151292   3.232   2.069   6.269  0.6906  0.0942 -0.0653
48059SOL    HW251293   3.149   1.967   6.194 -0.0509 -0.4140  1.3984
48060SOL     OW51294   7.674   4.670   8.089 -0.3507  0.6951 -0.1654
48060SOL    HW151295   7.649   4.678   7.997  0.2378 -1.7292 -0.6138
48060SOL    HW251296   7.617   4.600   8.123 -1.4490  2.3922  1.7038
48061SOL     OW51297   6.283   6.454  11.846  0.2241  0.2527  0.5975
48061SOL    HW151298   6.345   6.519  11.814 -0.9331  1.1097  0.0263
48061SOL    HW251299   6.213   6.505  11.888 -1.3797 -0.4957 -1.0225
48062SOL     OW51300  12.864   9.732   4.958  0.1863 -0.3136  0.0570
48062SOL    HW151301  12.845   9.644   4.991  1.7320  0.1577  2.5120
48062SOL    HW251302  12.917   9.717   4.880 -1.3574 -1.5140 -0.8162
48063SOL     OW51303   2.184   7.827   7.854 -0.0084  0.1475  0.2159
48063SOL    HW151304   2.122   7.787   7.792  1.5930 -0.8789 -0.8024
48063SOL    HW251305   2.258   7.767   7.855  1.4444  1.8892  0.5418
48064SOL     OW51306   5.358  10.136   2.347 -0.4445 -0.5326  0.4850
48064SOL    HW151307   5.393  10.225   2.355 -1.9751  0.1228  0.2741
48064SOL    HW251308   5.263  10.147   2.351 -0.7341 -2.0030 -0.9344
48065SOL     OW51309   6.298   1.269   6.929 -0.4611 -0.2296  0.3873
48065SOL    HW151310   6.284   1.350   6.977 -0.7173 -0.3638  0.5382
48065SOL    HW251311   6.387   1.277   6.894 -0.6062  0.2625  0.1152
48066SOL     OW51312   9.275   4.694   1.322 -0.5363 -0.2031 -0.5284
48066SOL    HW151313   9.294   4.734   1.407  0.5594  0.6525 -1.1400
48066SOL    HW251314   9.301   4.761   1.258 -0.8435 -1.0275 -1.5451
48067SOL     OW51315   2.991   3.751  11.267  0.3021  0.2962  0.2678
48067SOL    HW151316   2.968   3.680  11.328  1.4828  0.4462  0.9191
48067SOL    HW251317   2.923   3.747  11.200 -1.5428  0.6303  1.9884
48068SOL     OW51318  10.450   7.315   0.396  0.4453  0.0041 -0.3120
48068SOL    HW151319  10.472   7.223   0.413 -0.6405  0.1517  2.3855
48068SOL    HW251320  10.534   7.358   0.386  1.1093 -0.8956  0.9861
48069SOL     OW51321   7.964   2.415   0.207  0.2149  0.7284  0.2351
48069SOL    HW151322   8.037   2.476   0.200  0.4135  0.4782  0.0849
48069SOL    HW251323   7.906   2.453   0.273  1.3062  0.1008  1.6219
48070SOL     OW51324   8.846   4.732   8.653 -0.4332 -0.2836  0.1856
48070SOL    HW151325   8.935   4.738   8.688 -0.9360 -1.5571  1.7859
48070SOL    HW251326   8.839   4.805   8.592  1.6044  0.0183  0.2637
48071SOL     OW51327   7.358  12.761   7.534  0.1107  0.1158 -0.4074
48071SOL    HW151328   7.381  12.809   7.613  2.2352 -0.8084 -0.3825
48071SOL    HW251329   7.282  12.807   7.499  1.1669  2.6120  0.3472
48072SOL     OW51330   2.478   1.159  12.159 -0.1081 -0.4696 -0.3004
48072SOL    HW151331   2.467   1.240  12.108  0.8199 -0.0216  0.1765
48072SOL    HW251332   2.417   1.097  12.120 -1.1975  0.6083 -0.3728
48073SOL     OW51333  12.924   5.832   6.653 -0.3772  0.6077  0.4830
48073SOL    HW151334  12.895   5.923   6.649 -0.6959  0.4587 -0.7877
48073SOL    HW251335  12.965   5.815   6.569 -3.2227 -1.3561 -0.6631
48074SOL     OW51336   4.494   0.682   4.946 -0.2517 -0.4681  0.4682
48074SOL    HW151337   4.434   0.616   4.981  0.6127 -0.6967  1.6024
48074SOL    HW251338   4.560   0.631   4.898 -0.1036 -0.3518  0.5473
48075SOL     OW51339  10.161  11.339   3.426 -0.0393 -0.1352 -0.1705
48075SOL    HW151340  10.166  11.357   3.520  0.8244 -2.4302  0.2943
48075SOL    HW251341  10.073  11.302   3.415 -0.8319  1.7950 -0.6433
48076SOL     OW51342  10.207   6.608   7.838 -0.0755  0.1336 -0.5430
48076SOL    HW151343  10.155   6.532   7.815  0.1819 -1.3094  3.0111
48076SOL    HW251344  10.144   6.675   7.863 -0.3689 -0.6349  0.9343
48077SOL     OW51345  10.780   2.024   6.468 -0.0343  0.1948  0.1728
48077SOL    HW151346  10.859   2.013   6.416 -1.1622  0.2873 -1.6238
48077SOL    HW251347  10.797   1.974   6.548  2.0984  0.7913  0.1646
48078SOL     OW51348   8.872   1.740   6.039  0.0127 -0.2111  0.1949
48078SOL    HW151349   8.863   1.659   5.989  1.4275  1.0132 -2.2242
48078SOL    HW251350   8.944   1.786   5.996  1.0431  1.1619  3.1548
48079SOL     OW51351   0.243   7.415  11.898 -0.7423  0.5120  0.6272
48079SOL    HW151352   0.245   7.492  11.842  3.7743  0.2348 -0.0219
48079SOL    HW251353   0.261   7.342  11.839 -1.1652 -0.5177  1.7376
48080SOL     OW51354   7.586   9.090  10.029  0.6303  0.2818  0.3719
48080SOL    HW151355   7.653   9.137   9.980  0.3304  2.0894  1.5669
48080SOL    HW251356   7.540   9.159  10.078 -1.9292 -0.8997 -0.1968
48081SOL     OW51357  12.875   6.487   2.235 -0.3440  0.7596  0.4318
48081SOL    HW151358  12.859   6.413   2.295 -1.3261  0.5769 -0.0255
48081SOL    HW251359  12.788   6.526   2.222 -0.1289  0.8808 -0.7578
48082SOL     OW51360  12.636   7.498   4.788  0.3939 -0.3783 -0.5824
48082SOL    HW151361  12.632   7.495   4.693  0.4795 -2.7934 -0.5659
48082SOL    HW251362  12.545   7.488   4.817  0.1068  2.1661 -0.3422
48083SOL     OW51363  12.805   3.683   8.970 -0.0452  0.1036  0.5634
48083SOL    HW151364  12.855   3.667   9.050  1.0892  0.5738 -0.0323
48083SOL    HW251365  12.722   3.718   9.001 -0.4580 -1.6938  1.6258
48084SOL     OW51366  11.725   4.864  11.678  0.3798 -0.1443  0.5869
48084SOL    HW151367  11.819   4.852  11.677  0.2015 -1.7045 -0.1193
48084SOL    HW251368  11.691   4.787  11.724 -0.6506 -0.7157 -1.0441
48085SOL     OW51369   4.845   2.366   3.095 -0.1554 -0.2134 -0.3864
48085SOL    HW151370   4.911   2.402   3.154  0.3359 -0.4136 -0.7992
48085SOL    HW251371   4.816   2.441   3.043  1.2067 -0.4633 -1.5660
48086SOL     OW51372   1.099   7.645   4.963 -0.1233 -0.4956 -0.0816
48086SOL    HW151373   1.050   7.649   4.881 -0.4873  0.5125  0.1731
48086SOL    HW251374   1.101   7.552   4.985  0.0873 -0.8057 -1.2895
48087SOL     OW51375   5.246  10.160  12.140  0.2566 -0.2063 -0.6840
48087SOL    HW151376   5.205  10.175  12.054  2.1700 -0.4249 -1.6813
48087SOL    HW251377   5.265  10.067  12.140 -1.7539 -0.6898  0.9767
48088SOL     OW51378  10.717   5.063   6.380  0.5803  0.0907  0.0590
48088SOL    HW151379  10.811   5.080   6.391  0.7062 -1.2422  1.4309
48088SOL    HW251380  10.712   5.004   6.304  0.7855  0.6466 -0.3915
48089SOL     OW51381   6.027   0.490   3.475 -0.2793  0.2964  0.2729
48089SOL    HW151382   6.116   0.517   3.455 -0.2611  0.5994  0.7663
48089SOL    HW251383   5.988   0.473   3.389 -0.4133  2.2584 -0.1100
48090SOL     OW51384   2.697  12.094  12.273  0.2202  0.1728  0.2221
48090SOL    HW151385   2.766  12.157  12.253 -0.4800  1.2701  1.1248
48090SOL    HW251386   2.717  12.018  12.219 -0.2796  2.0630 -2.8701
48091SOL     OW51387   4.545   6.236   5.599  0.0070  0.2019 -1.0646
48091SOL    HW151388   4.518   6.328   5.590  0.5973  0.4802 -0.0940
48091SOL    HW251389   4.615   6.225   5.534  0.8637  0.8209 -0.2677
48092SOL     OW51390   2.610   7.713   3.719  0.5457 -0.1862 -0.4209
48092SOL    HW151391   2.641   7.793   3.762  2.6611 -0.7854 -0.6951
48092SOL    HW251392   2.527   7.692   3.762  0.8494  1.1658  0.8802
48093SOL     OW51393   7.490   2.755   6.365  0.3737  0.0908  0.3076
48093SOL    HW151394   7.451   2.672   6.337 -0.0723 -0.1291  1.5045
48093SOL    HW251395   7.447   2.821   6.310  0.8863 -0.4757 -0.7998
48094SOL     OW51396   8.613   3.381   4.688 -0.5857  0.1255  0.3135
48094SOL    HW151397   8.588   3.470   4.711 -2.1814 -0.4021  0.7634
48094SOL    HW251398   8.533   3.343   4.650  0.3861 -0.7652 -0.9169
48095SOL     OW51399   5.746   4.750   2.058 -0.5949  0.3227 -0.2222
48095SOL    HW151400   5.780   4.679   2.004 -0.1398  0.1863  0.2365
48095SOL    HW251401   5.763   4.722   2.148 -1.6419  0.3947  0.0192
48096SOL     OW51402   1.183   1.645   5.112  0.1141  0.4381 -0.1032
48096SOL    HW151403   1.193   1.611   5.200  0.4000 -0.1120 -0.3467
48096SOL    HW251404   1.135   1.727   5.123 -0.8444 -0.1826  0.4613
48097SOL     OW51405   8.277   2.405   8.469  0.0569 -0.0941  0.1384
48097SOL    HW151406   8.351   2.354   8.436  0.5185 -1.0571  2.4325
48097SOL    HW251407   8.231   2.436   8.391  1.4908 -1.5186 -1.3307
48098SOL     OW51408   1.944   8.243   2.835 -0.0093 -0.0881 -0.6071
48098SOL    HW151409   1.901   8.219   2.917  2.0231 -1.9219  0.0090
48098SOL    HW251410   1.937   8.165   2.780  1.8621 -0.2060 -0.7327
48099SOL     OW51411   3.938  11.643  10.144  0.2970 -0.9162 -0.0091
48099SOL    HW151412   3.983  11.662  10.062  1.6146 -0.4337  0.8067
48099SOL    HW251413   3.996  11.583  10.191  0.2616 -0.0398  1.1911
48100SOL     OW51414  10.673   2.335   5.664  0.3712 -0.4914  0.2212
48100SOL    HW151415  10.676   2.384   5.582  0.3696  0.3002  0.6853
48100SOL    HW251416  10.583   2.305   5.671  0.3322 -0.4270  0.0058
48101SOL     OW51417   9.523   8.259   8.541 -0.4963  0.1395  0.4135
48101SOL    HW151418   9.579   8.310   8.483 -1.3685  1.5469  0.7621
48101SOL    HW251419   9.584   8.206   8.593  0.4111  0.5471 -0.2146
48102SOL     OW51420  11.343   3.858   8.839 -0.3734  0.1097 -0.2999
48102SOL    HW151421  11.319   3.894   8.754 -0.3548 -0.0842 -0.3869
48102SOL    HW251422  11.304   3.771   8.841  0.2233 -0.1639 -0.3971
48103SOL     OW51423  11.010  10.887   4.175 -0.0835 -0.0736 -0.0193
48103SOL    HW151424  10.931  10.854   4.131 -0.5728 -4.3304  3.3636
48103SOL    HW251425  10.979  10.916   4.261  1.7236  0.8225  0.3800
48104SOL     OW51426   5.428   9.594   5.140  0.7523 -0.2230  0.3428
48104SOL    HW151427   5.391   9.631   5.060  1.8340  0.8103  0.2847
48104SOL    HW251428   5.507   9.548   5.112  1.5542  0.7877  0.8802
48105SOL     OW51429   3.112   6.824   4.215 -0.4027  0.1492 -0.0775
48105SOL    HW151430   3.060   6.859   4.142 -1.8749 -1.8710 -0.0881
48105SOL    HW251431   3.049   6.814   4.286  0.4338 -0.4960  0.5896
48106SOL     OW51432   4.957   8.346   0.044  0.0944 -0.0125 -0.7116
48106SOL    HW151433   4.892   8.291   0.089  0.5408  1.4464  1.9409
48106SOL    HW251434   5.018   8.283   0.005  2.1210 -1.7494  4.4179
48107SOL     OW51435   3.834   5.116   9.123  0.0255  0.2602 -0.6826
48107SOL    HW151436   3.871   5.149   9.205 -0.3940  0.8442 -0.7226
48107SOL    HW251437   3.796   5.193   9.081  2.2301  0.4637 -2.5423
48108SOL     OW51438   4.928   4.069  11.018 -0.8599 -0.8079  0.3003
48108SOL    HW151439   4.922   4.164  11.017 -2.0964 -0.8666 -1.0589
48108SOL    HW251440   5.016   4.051  11.053 -0.7946  0.7923  1.0665
48109SOL     OW51441   4.952   9.133   2.793 -0.0619  0.0644 -0.1845
48109SOL    HW151442   5.014   9.061   2.797 -1.9929 -1.7221 -0.6948
48109SOL    HW251443   4.876   9.103   2.843 -0.8055  1.8913 -0.1220
48110SOL     OW51444   2.148   8.129   2.450 -0.6664  0.1893  0.2362
48110SOL    HW151445   2.085   8.060   2.466 -0.6818  0.3916  1.0914
48110SOL    HW251446   2.131   8.194   2.518  0.5531  0.1734  0.5850
48111SOL     OW51447   8.692  12.844  11.813  0.1057  0.6338  0.2397
48111SOL    HW151448   8.728  12.832  11.901  1.9238 -0.8744 -0.6269
48111SOL    HW251449   8.677  12.755  11.781  1.9393  1.0015 -1.8875
48112SOL     OW51450   2.612  10.387  11.786  0.2767 -0.5599 -0.3046
48112SOL    HW151451   2.537  10.404  11.843 -0.6858  0.0027 -1.6987
48112SOL    HW251452   2.679  10.449  11.815 -0.3291 -0.0274 -0.0241
48113SOL     OW51453   2.592   8.089   9.784 -0.2448  0.4577 -0.4556
48113SOL    HW151454   2.598   7.994   9.794 -0.0517  0.6149  1.0958
48113SOL    HW251455   2.643   8.107   9.704 -2.0144 -0.9230 -1.9831
48114SOL     OW51456   2.319  10.279   5.352  0.2343  0.1607 -0.2918
48114SOL    HW151457   2.323  10.351   5.288  0.5104  0.6754  0.2974
48114SOL    HW251458   2.334  10.321   5.436  2.1069 -0.8300 -0.0802
48115SOL     OW51459   3.473   9.979   9.254  0.4401  0.1487  0.3409
48115SOL    HW151460   3.396   9.955   9.202  0.5990  2.7119 -1.2876
48115SOL    HW251461   3.537  10.010   9.189  1.3844  1.6880  1.9129
48116SOL     OW51462   9.109   9.686   1.931  0.2279 -0.1633 -0.0517
48116SOL    HW151463   9.095   9.748   2.002  0.7024  0.5507 -0.5728
48116SOL    HW251464   9.030   9.632   1.930  0.2940 -0.3253  1.1449
48117SOL     OW51465  11.125   9.347   4.862 -0.5427 -0.0922  0.3877
48117SOL    HW151466  11.138   9.418   4.925  0.0546 -0.0843  0.2685
48117SOL    HW251467  11.207   9.346   4.811 -0.5243 -0.8957  0.4210
48118SOL     OW51468  11.623   0.696   4.198  0.2692  0.3628 -0.0263
48118SOL    HW151469  11.544   0.719   4.149 -0.0201 -1.9815 -0.7534
48118SOL    HW251470  11.590   0.647   4.274  0.9604  0.3045  0.2401
48119SOL     OW51471   9.834  12.212   5.174  0.3160  0.0692  0.6862
48119SOL    HW151472   9.856  12.225   5.082  1.0839  2.2777  1.1375
48119SOL    HW251473   9.746  12.175   5.172  0.4720 -0.2976 -0.9338
48120SOL     OW51474  12.900   5.874   4.293 -0.3712 -0.2923  0.1779
48120SOL    HW151475  12.877   5.897   4.383  0.1508 -3.1026  1.1602
48120SOL    HW251476  12.975   5.929   4.272 -2.2550  2.4950  0.3100
48121SOL     OW51477   3.036   8.618   4.375 -0.0879 -0.0206 -0.3003
48121SOL    HW151478   3.006   8.611   4.465  0.3929 -0.9319 -0.2012
48121SOL    HW251479   3.121   8.575   4.374 -0.5144 -0.8862 -1.3813
48122SOL     OW51480   6.881   6.409  10.029  0.6491 -0.2355  0.1184
48122SOL    HW151481   6.849   6.321  10.009 -1.3117  1.2317 -4.3312
48122SOL    HW251482   6.815   6.445  10.087 -2.1687  0.2462 -3.1021
48123SOL     OW51483  10.270   7.400   3.126  0.2433 -0.0118 -0.2347
48123SOL    HW151484  10.307   7.369   3.044  1.5909 -0.0834  0.3721
48123SOL    HW251485  10.179   7.420   3.105  0.4777 -0.3196 -1.6613
48124SOL     OW51486   3.780   7.455   3.899 -0.3885  0.3910  0.2824
48124SOL    HW151487   3.702   7.495   3.860 -0.1174  0.5734 -0.0785
48124SOL    HW251488   3.778   7.364   3.868  0.9778  1.0489 -1.9953
48125SOL     OW51489  11.921  12.028   5.048  0.3895 -0.4470  0.6433
48125SOL    HW151490  11.837  11.983   5.059  0.0115  0.0732 -0.0666
48125SOL    HW251491  11.976  11.993   5.118 -1.0625  0.7157  2.4540
48126SOL     OW51492   6.895   7.635   3.009  0.1541  0.7301 -0.4222
48126SOL    HW151493   6.860   7.724   3.005  0.1642  0.7243 -0.6613
48126SOL    HW251494   6.970   7.636   2.949  1.0449  0.9527  0.6655
48127SOL     OW51495   4.766   6.613   1.818  0.0612  0.2570 -0.1897
48127SOL    HW151496   4.854   6.634   1.847  0.3831  0.4181 -1.2341
48127SOL    HW251497   4.768   6.520   1.797  0.1352  0.3674 -0.6957
48128SOL     OW51498   2.387   1.496   0.775 -0.5149 -0.3416  0.3670
48128SOL    HW151499   2.458   1.480   0.837  3.3391  2.3454 -2.8521
48128SOL    HW251500   2.349   1.579   0.803 -2.2571 -1.5497  1.8136
48129SOL     OW51501   4.675   2.334   6.031  0.2481 -0.4410 -0.0661
48129SOL    HW151502   4.737   2.298   5.968  1.2327  1.1408 -0.0537
48129SOL    HW251503   4.729   2.382   6.094 -0.9427  0.6986  0.1479
48130SOL     OW51504   1.087   9.464   6.582  0.7357 -0.3087 -0.0508
48130SOL    HW151505   1.034   9.536   6.546 -0.0147  0.0481  1.6797
48130SOL    HW251506   1.044   9.441   6.664  2.3672 -1.0949  0.6350
48131SOL     OW51507  11.962   0.113   3.317  0.6356 -0.1630 -0.5023
48131SOL    HW151508  11.936   0.204   3.335 -0.6693 -0.8943  1.7161
48131SOL    HW251509  11.881   0.069   3.293  0.6051 -1.3788  1.5520
48132SOL     OW51510   2.401   7.360   6.375 -0.0962  0.2302 -0.3470
48132SOL    HW151511   2.485   7.342   6.415 -1.0277  0.6556  1.9606
48132SOL    HW251512   2.386   7.453   6.392 -0.5126  0.4581 -1.8136
48133SOL     OW51513   4.932   0.203   4.931 -0.4863 -0.2396 -0.0322
48133SOL    HW151514   4.890   0.288   4.922  0.4532  0.3486  0.9603
48133SOL    HW251515   4.865   0.148   4.972 -0.1768  0.8341  2.0445
48134SOL     OW51516   1.114   2.708   8.842  0.1125  0.3321 -0.1522
48134SOL    HW151517   1.088   2.680   8.754  1.2937 -1.2855 -0.0446
48134SOL    HW251518   1.090   2.800   8.846 -1.9583 -0.0949 -1.3797
48135SOL     OW51519   1.984   2.232  10.205 -0.0417 -0.1142  0.2116
48135SOL    HW151520   1.984   2.137  10.216  2.0373 -0.1428  0.4687
48135SOL    HW251521   2.012   2.266  10.290 -3.1953  0.9541  0.9578
48136SOL     OW51522  12.810  11.371   5.178  0.0024 -0.6680 -0.1124
48136SOL    HW151523  12.755  11.404   5.249  0.2119  0.7229 -0.5631
48136SOL    HW251524  12.881  11.435   5.172 -0.0194 -0.7506 -1.5770
48137SOL     OW51525   9.736   4.324   6.409  0.3402 -0.5454 -0.3350
48137SOL    HW151526   9.766   4.248   6.359  0.0530 -0.8703 -0.0236
48137SOL    HW251527   9.690   4.286   6.485 -0.5866 -0.0737 -0.6450
48138SOL     OW51528   0.235  10.716   7.377 -0.4232  0.0470 -0.4755
48138SOL    HW151529   0.139  10.707   7.378 -0.5013 -0.1092  2.8261
48138SOL    HW251530   0.262  10.687   7.465  2.5918  0.7953 -1.0575
48139SOL     OW51531  12.608   3.628   2.990  0.0913  0.1411 -0.3996
48139SOL    HW151532  12.526   3.579   2.983 -0.2837  0.6762  0.1412
48139SOL    HW251533  12.674   3.562   3.012  0.0535 -0.4895 -1.9819
48140SOL     OW51534   4.395   3.356  12.605  0.5880  0.1979 -0.4516
48140SOL    HW151535   4.452   3.281  12.589  1.3139  1.2307 -3.2824
48140SOL    HW251536   4.453   3.425  12.636  0.5937  0.6618 -1.4423
48141SOL     OW51537   1.216   4.399   9.978  0.0355 -0.5688 -0.0478
48141SOL    HW151538   1.252   4.356  10.056  1.1350 -0.8009 -0.6566
48141SOL    HW251539   1.289   4.451   9.943 -1.2172  1.8122  0.6255
48142SOL     OW51540  11.006  10.191   1.108 -0.1876  0.0400 -0.4623
48142SOL    HW151541  10.933  10.145   1.149 -0.0826  0.5961  0.3631
48142SOL    HW251542  11.066  10.122   1.081 -0.7449 -0.3869 -0.6139
48143SOL     OW51543   6.087   7.456   5.264 -0.0389 -0.1593 -0.3732
48143SOL    HW151544   6.044   7.541   5.271 -1.5008 -0.7889 -1.2252
48143SOL    HW251545   6.118   7.453   5.174  1.8409  0.2630  0.2122
48144SOL     OW51546   3.517   0.186   5.270  0.0613  0.2159  0.0193
48144SOL    HW151547   3.553   0.224   5.190  0.6317  0.7876  0.5389
48144SOL    HW251548   3.585   0.200   5.336  0.4596 -2.0322  0.1624
48145SOL     OW51549   8.668  11.523   2.023  0.5578  0.3302  0.1742
48145SOL    HW151550   8.646  11.497   1.933  0.4978  0.4848  0.1437
48145SOL    HW251551   8.703  11.443   2.063 -0.3578 -0.0044  0.3267
48146SOL     OW51552   6.510   5.815  11.022 -0.3370 -0.1225 -0.4165
48146SOL    HW151553   6.426   5.825  11.066 -0.0121 -0.4893  0.2920
48146SOL    HW251554   6.566   5.772  11.086  0.9526  1.7419 -0.1910
48147SOL     OW51555   5.999   7.428   3.846  0.1465  0.3522  0.3571
48147SOL    HW151556   5.945   7.503   3.871 -0.0919  0.4548 -0.4395
48147SOL    HW251557   6.048   7.406   3.925 -2.5509 -1.0418  1.7639
48148SOL     OW51558   7.195  11.591  12.112 -0.4079  0.9299 -0.7616
48148SOL    HW151559   7.183  11.540  12.032 -1.3776  0.7790 -0.5386
48148SOL    HW251560   7.152  11.539  12.180  0.9200  0.7690 -0.0157
48149SOL     OW51561   5.217   8.416   6.251 -0.4142  0.3145  0.1866
48149SOL    HW151562   5.265   8.430   6.333 -1.6128  0.4641  0.8966
48149SOL    HW251563   5.188   8.504   6.225 -0.0479  0.2666 -0.4047
48150SOL     OW51564   8.222   8.783   4.794  0.8201 -0.2837 -0.0403
48150SOL    HW151565   8.254   8.873   4.792  0.0728  0.0132  0.5542
48150SOL    HW251566   8.276   8.740   4.861  2.0713 -0.6569 -1.2480
48151SOL     OW51567   9.861   4.240   4.227  0.1289 -0.5186  0.1927
48151SOL    HW151568   9.931   4.293   4.265 -0.3735  0.6443 -0.4696
48151SOL    HW251569   9.795   4.233   4.296  1.6825 -3.3370  1.5841
48152SOL     OW51570  10.321   7.899   1.391  0.2536  0.0876  0.3254
48152SOL    HW151571  10.315   7.835   1.320  0.0044  3.4873 -3.0485
48152SOL    HW251572  10.415   7.915   1.402  0.4768 -2.0513  2.6220
48153SOL     OW51573   9.965  10.604   4.309  0.1607  0.2145  0.5205
48153SOL    HW151574  10.011  10.541   4.254 -0.7254  0.7779 -0.9417
48153SOL    HW251575  10.028  10.674   4.324 -0.0895  0.8989 -1.3189
48154SOL     OW51576   0.472  12.200   2.406 -0.5471 -0.2236 -0.2107
48154SOL    HW151577   0.512  12.114   2.413 -0.5430 -0.1194  1.9547
48154SOL    HW251578   0.409  12.203   2.479 -1.7100  1.0254 -1.1984
48155SOL     OW51579   8.656   0.399   2.221 -0.1988  0.2049  0.3579
48155SOL    HW151580   8.567   0.397   2.258 -0.6283  0.2687 -0.6594
48155SOL    HW251581   8.652   0.464   2.151  0.9929  1.1422  1.1201
48156SOL     OW51582   7.575   3.772   4.686  0.5203  0.2614 -0.5912
48156SOL    HW151583   7.512   3.708   4.650  0.4295 -0.3862  0.6641
48156SOL    HW251584   7.653   3.720   4.705  0.0697  0.2673  1.4647
48157SOL     OW51585   2.728  12.071   6.305  0.5479 -0.6548 -0.4869
48157SOL    HW151586   2.686  12.126   6.371 -0.3011  1.5509 -2.6753
48157SOL    HW251587   2.809  12.117   6.283  0.1983 -0.6510 -1.8365
48158SOL     OW51588   4.474   5.225   1.984 -0.4354 -0.7990  0.5296
48158SOL    HW151589   4.389   5.225   2.029 -0.9335  0.5285 -0.3522
48158SOL    HW251590   4.534   5.267   2.046 -0.9490  0.3401  0.2711
48159SOL     OW51591   2.676   2.869   3.252  0.1695  0.0982  0.4726
48159SOL    HW151592   2.730   2.930   3.302  0.0360  0.3225  0.3450
48159SOL    HW251593   2.737   2.803   3.221  0.1646 -0.3765  1.4338
48160SOL     OW51594   2.418   1.952   2.141 -0.1082 -0.7024  0.3895
48160SOL    HW151595   2.471   2.005   2.082  0.8838 -0.9007  1.0770
48160SOL    HW251596   2.345   2.009   2.164  0.6481  0.1864  0.6804
48161SOL     OW51597  11.891  10.787   3.772 -0.1369 -0.4183  0.2498
48161SOL    HW151598  11.885  10.877   3.804 -0.6155 -0.1352 -0.5983
48161SOL    HW251599  11.824  10.782   3.703 -0.9707 -1.7794  1.1277
48162SOL     OW51600   4.888   1.943   8.473  0.1222 -0.1406  0.3850
48162SOL    HW151601   4.800   1.905   8.479  0.7006 -1.3355  2.0760
48162SOL    HW251602   4.930   1.918   8.555  2.1349  0.2074 -0.4904
48163SOL     OW51603   8.900   0.781   3.939  0.5949 -0.2156 -0.3880
48163SOL    HW151604   8.996   0.779   3.943  0.6647 -0.1049 -1.6649
48163SOL    HW251605   8.872   0.741   4.021  1.7496 -1.2737 -0.4772
48164SOL     OW51606   2.494   4.244   1.836  0.6295 -0.5720 -0.2613
48164SOL    HW151607   2.403   4.243   1.805  0.6309  0.0501 -0.3111
48164SOL    HW251608   2.487   4.241   1.931  0.4204  1.9993 -0.1105
48165SOL     OW51609   5.174   7.896   2.239  0.4104 -0.0271 -0.2684
48165SOL    HW151610   5.215   7.955   2.303  0.0519  0.0196 -0.0806
48165SOL    HW251611   5.248   7.857   2.192  0.6895 -0.2331  0.3262
48166SOL     OW51612   4.164   8.494  12.429  0.0060 -0.0631 -0.3958
48166SOL    HW151613   4.196   8.440  12.357 -0.5730 -0.4440 -0.3759
48166SOL    HW251614   4.194   8.583  12.408  1.7190 -0.5055  0.0128
48167SOL     OW51615   5.452  10.622   0.689  0.0526  1.5153  1.1647
48167SOL    HW151616   5.398  10.658   0.759  1.3491  1.1124  2.4083
48167SOL    HW251617   5.541  10.650   0.709  0.4438  1.5627 -0.4483
48168SOL     OW51618   0.927   8.257   9.605 -0.2920  0.4989 -0.6711
48168SOL    HW151619   0.908   8.311   9.681 -0.0825  0.8891 -0.8917
48168SOL    HW251620   1.011   8.216   9.624 -1.0437 -0.7848  0.0598
48169SOL     OW51621  11.833   9.434   2.917 -0.3141 -0.1074  0.1653
48169SOL    HW151622  11.861   9.508   2.970 -2.1759  0.0893  0.9423
48169SOL    HW251623  11.826   9.469   2.828  0.6112  0.1460  0.1837
48170SOL     OW51624   8.742   1.005   7.193 -0.5911 -0.4375  0.2332
48170SOL    HW151625   8.707   0.995   7.105  0.1903 -0.4475 -0.0829
48170SOL    HW251626   8.679   1.062   7.237 -0.2404  0.7911 -0.7872
48171SOL     OW51627   8.422   5.781   7.931 -0.1142 -0.2539  0.5747
48171SOL    HW151628   8.379   5.737   8.004  0.1747 -0.4309  0.6417
48171SOL    HW251629   8.363   5.769   7.857  0.6950 -2.1860  0.1843
48172SOL     OW51630  12.824   2.260   2.900 -0.6947 -0.4700 -0.1430
48172SOL    HW151631  12.879   2.336   2.881 -2.5818  0.6248 -1.5957
48172SOL    HW251632  12.856   2.228   2.984  1.7184  0.4502 -0.6296
48173SOL     OW51633   5.304   1.165   0.102  0.4785  0.3959  0.0624
48173SOL    HW151634   5.321   1.250   0.145  1.7006  0.1443  0.1229
48173SOL    HW251635   5.210   1.154   0.108  0.1388  2.3201 -1.0146
48174SOL     OW51636   3.158  12.952   6.488  0.2202  0.5062  0.0568
48174SOL    HW151637   3.144  13.023   6.426  0.8982  1.4499  0.9547
48174SOL    HW251638   3.201  12.883   6.437  2.6077  2.0233 -0.1338
48175SOL     OW51639   2.865   9.492   0.324  0.0469 -0.1204 -0.1038
48175SOL    HW151640   2.791   9.511   0.267 -0.7619 -2.6268  0.0021
48175SOL    HW251641   2.906   9.578   0.340 -0.9916  0.9376 -2.6305
48176SOL     OW51642  12.444   5.658  10.220  0.6620  0.3305 -0.1677
48176SOL    HW151643  12.422   5.680  10.310  1.9389  2.0983 -0.2367
48176SOL    HW251644  12.360   5.656  10.174  0.1893  1.7225  0.5969
48177SOL     OW51645   2.226   0.617  12.647  0.1241 -0.3488 -0.1087
48177SOL    HW151646   2.158   0.605  12.581 -0.1942  0.2352  0.1055
48177SOL    HW251647   2.283   0.685  12.611  0.7060 -0.9605 -0.3679
48178SOL     OW51648   8.094   9.504   7.255  0.4794  0.7668  0.3304
48178SOL    HW151649   8.111   9.413   7.231  0.0747  1.0375 -1.0705
48178SOL    HW251650   8.168   9.553   7.219  0.9356  0.9540  1.4807
48179SOL     OW51651   3.523   6.506   2.054 -0.3617 -0.9329  0.2181
48179SOL    HW151652   3.552   6.497   2.145  1.5635 -0.5935 -0.3037
48179SOL    HW251653   3.487   6.594   2.049  0.9300 -0.3704  0.3374
48180SOL     OW51654   9.736  10.418   3.491  0.0210  0.2182  0.2204
48180SOL    HW151655   9.824  10.409   3.456  0.7707 -0.7241  2.1874
48180SOL    HW251656   9.715  10.331   3.527 -0.4944  1.1579  2.3744
48181SOL     OW51657   6.553   8.435   5.810  0.1120  0.3519  0.5732
48181SOL    HW151658   6.494   8.376   5.762  0.2470 -1.2187  2.1976
48181SOL    HW251659   6.501   8.462   5.886  1.6677 -1.8322  2.5626
48182SOL     OW51660   7.742   2.003   7.950 -0.0026  0.1323  0.3104
48182SOL    HW151661   7.783   2.079   7.991 -0.0720  0.3879 -0.0836
48182SOL    HW251662   7.709   1.951   8.023 -2.1241  1.6867  0.5867
48183SOL     OW51663   8.770  12.836   3.841  0.0557  0.6622 -0.2435
48183SOL    HW151664   8.714  12.763   3.866 -0.1724  0.2045 -1.9938
48183SOL    HW251665   8.834  12.799   3.781  0.7773  1.6444 -0.1131
48184SOL     OW51666   2.198   5.197   0.200 -0.4799 -0.4777  0.6147
48184SOL    HW151667   2.273   5.254   0.219 -1.3684  0.8684  0.2517
48184SOL    HW251668   2.232   5.108   0.211  1.0190  0.1058  0.9873
48185SOL     OW51669   1.254   7.301  10.559  0.2139  0.4286 -0.1913
48185SOL    HW151670   1.345   7.274  10.574  0.6329  0.5408 -2.1587
48185SOL    HW251671   1.221   7.326  10.645  2.2083  0.8674  0.4902
48186SOL     OW51672  12.462   4.820   2.309 -0.3769  0.1190  0.5604
48186SOL    HW151673  12.472   4.833   2.215  3.1940  2.3237  1.0269
48186SOL    HW251674  12.473   4.726   2.322 -0.6357 -0.1787 -1.2057
48187SOL     OW51675   4.346   6.846  10.038  0.5353 -0.1397 -0.1764
48187SOL    HW151676   4.375   6.806   9.956 -0.5837  0.1618 -0.7334
48187SOL    HW251677   4.427   6.869  10.083  1.1673 -0.5464 -1.0793
48188SOL     OW51678   8.628  11.060   9.431  0.0086  0.0764  0.2186
48188SOL    HW151679   8.556  11.047   9.370 -0.4743  2.1021  0.2938
48188SOL    HW251680   8.586  11.068   9.517  0.2408  1.5565  0.2261
48189SOL     OW51681   8.054   5.298   7.932  0.2439 -0.1341  0.0413
48189SOL    HW151682   8.120   5.339   7.876 -0.0878  0.3741  0.0182
48189SOL    HW251683   8.003   5.371   7.966 -0.4251 -0.5382 -0.0938
48190SOL     OW51684  10.573   7.767   5.306 -0.7184 -0.7914  0.1880
48190SOL    HW151685  10.581   7.678   5.341  1.8741  0.0004  1.9297
48190SOL    HW251686  10.540   7.818   5.380 -1.2705 -0.1334 -0.5018
48191SOL     OW51687  11.866   5.113   1.569 -0.8535 -0.0007 -0.0497
48191SOL    HW151688  11.819   5.094   1.488 -1.2092  1.5599 -0.2399
48191SOL    HW251689  11.836   5.047   1.631 -2.5578  0.3487 -0.4575
48192SOL     OW51690   7.018  10.597   0.362  0.7362  0.1815  0.0438
48192SOL    HW151691   7.041  10.650   0.286 -1.7929  1.0288 -0.2495
48192SOL    HW251692   6.972  10.521   0.325 -0.4087  0.5367  0.6686
48193SOL     OW51693   8.241   1.880   2.692  0.1305  0.0348 -0.1114
48193SOL    HW151694   8.304   1.951   2.687  0.4717 -0.2648 -0.0923
48193SOL    HW251695   8.245   1.838   2.606 -0.1626  0.1162 -0.1663
48194SOL     OW51696   6.455   4.347   2.414  0.6446  0.3467  0.1539
48194SOL    HW151697   6.492   4.325   2.328 -0.3731  1.5796 -0.6505
48194SOL    HW251698   6.522   4.402   2.455 -0.8019  4.2514 -2.0994
48195SOL     OW51699   6.009   0.973  11.712  0.0593 -0.0899 -0.1899
48195SOL    HW151700   6.017   0.959  11.807  0.8207 -0.9525 -0.3608
48195SOL    HW251701   6.094   1.009  11.686 -0.2187  0.3437 -0.5218
48196SOL     OW51702   7.789   9.440  10.100  0.2039 -0.0313  0.6131
48196SOL    HW151703   7.878   9.419  10.127  0.7428 -1.0093 -1.6772
48196SOL    HW251704   7.755   9.496  10.170  1.0334 -3.1533  3.7732
48197SOL     OW51705   6.886   2.377   4.033 -0.5790  0.2227  0.0737
48197SOL    HW151706   6.931   2.298   4.064 -0.7251  0.4452  0.8712
48197SOL    HW251707   6.799   2.347   4.008 -0.5078  0.0648  0.0120
48198SOL     OW51708  10.793   8.516  12.524 -0.2758  0.7466  0.2262
48198SOL    HW151709  10.703   8.551  12.525 -0.0894  1.2405  0.2234
48198SOL    HW251710  10.847   8.590  12.551 -0.0831 -0.2553  2.8222
48199SOL     OW51711  10.167   8.268  12.721  0.0734  0.0895 -0.2606
48199SOL    HW151712  10.251   8.254  12.677  0.4071  2.7672 -0.6356
48199SOL    HW251713  10.124   8.336  12.669 -1.2239  0.5688  1.3722
48200SOL     OW51714   6.515   1.457   1.582 -0.0614 -0.2023  0.3567
48200SOL    HW151715   6.567   1.383   1.550  0.0042  0.7168 -1.7721
48200SOL    HW251716   6.426   1.440   1.553 -0.3348 -0.1192  1.1023
48201SOL     OW51717  11.695   4.987   9.650  0.4013  0.2679  0.5277
48201SOL    HW151718  11.640   4.974   9.572  2.5524  0.5344 -1.1116
48201SOL    HW251719  11.632   4.993   9.722 -1.6361 -0.8473 -1.0425
48202SOL     OW51720   8.298   7.652   1.489  0.2256  0.2876  0.4653
48202SOL    HW151721   8.392   7.636   1.481  0.0672 -4.6630  4.0072
48202SOL    HW251722   8.261   7.613   1.410  1.0482 -0.0521  0.2347
48203SOL     OW51723   1.391   3.653   3.552 -0.0608 -0.2726 -0.1976
48203SOL    HW151724   1.464   3.697   3.509 -1.7187 -0.7175 -3.8728
48203SOL    HW251725   1.431   3.604   3.624  2.8923  1.1611 -0.7269
48204SOL     OW51726   5.667   6.664   6.043  0.0080  0.2385  0.0085
48204SOL    HW151727   5.596   6.651   5.979 -0.1642 -1.4124  0.4922
48204SOL    HW251728   5.649   6.599   6.111  1.7449  0.0874  0.3511
48205SOL     OW51729   9.142   4.507   9.711  0.1758 -0.1459 -0.1054
48205SOL    HW151730   9.232   4.512   9.678  1.1851  0.5773  2.5093
48205SOL    HW251731   9.136   4.420   9.751  0.3262  0.4342  1.2292
48206SOL     OW51732   0.561  10.725  11.169  0.5830  0.0545  0.4953
48206SOL    HW151733   0.519  10.790  11.113  2.2487  0.7495  0.0215
48206SOL    HW251734   0.539  10.641  11.128  0.1343  0.4307 -0.0528
48207SOL     OW51735   4.242   7.036   3.047  0.0639 -0.2664  0.4015
48207SOL    HW151736   4.237   7.062   3.139 -1.8465  0.0096  0.2695
48207SOL    HW251737   4.247   6.940   3.049 -0.0033 -0.2631  0.8109
48208SOL     OW51738   1.356  12.472   9.640  0.5146  0.0786  0.0409
48208SOL    HW151739   1.406  12.552   9.621  1.4755 -1.0632 -2.7991
48208SOL    HW251740   1.265  12.501   9.645  0.9531  1.5008  0.1470
48209SOL     OW51741   5.532   5.587   7.165  0.0281  0.0380  0.9836
48209SOL    HW151742   5.575   5.534   7.233  0.0880  0.1801  1.0570
48209SOL    HW251743   5.440   5.589   7.192 -0.6639 -2.7986 -0.7679
48210SOL     OW51744   8.474   6.618  11.707  0.2392 -0.1381  0.0240
48210SOL    HW151745   8.381   6.596  11.718  0.6171 -1.4286  0.8617
48210SOL    HW251746   8.478   6.664  11.623 -0.9600 -1.3154 -0.7150
48211SOL     OW51747   1.244   0.684   3.139  0.1671  0.3479 -0.8007
48211SOL    HW151748   1.325   0.641   3.113  1.0644  1.1992  0.4685
48211SOL    HW251749   1.189   0.612   3.172  0.6810 -0.1359 -0.9766
48212SOL     OW51750  11.146   2.044   4.903 -0.0433 -0.2292 -0.3479
48212SOL    HW151751  11.066   2.078   4.943 -0.2540 -1.3538  0.2155
48212SOL    HW251752  11.127   1.951   4.887  0.5051 -0.1090 -1.8650
48213SOL     OW51753   9.357   0.192  10.648 -0.5103 -0.2430  0.4228
48213SOL    HW151754   9.269   0.208  10.682 -1.4400 -1.4047 -1.2857
48213SOL    HW251755   9.343   0.141  10.568  1.6852  0.1939 -0.3078
48214SOL     OW51756   8.272   1.115   4.394  0.2370  0.1912  0.4627
48214SOL    HW151757   8.328   1.040   4.414  0.9870  0.8747  0.9827
48214SOL    HW251758   8.265   1.163   4.476 -1.1970  0.0841  0.4277
48215SOL     OW51759  12.519   7.544   1.882  0.2164  0.1158  0.3365
48215SOL    HW151760  12.526   7.625   1.931  2.2124 -0.4951  1.1678
48215SOL    HW251761  12.590   7.548   1.817 -1.7165  0.4461 -1.8993
48216SOL     OW51762   7.769   1.935   0.564  1.0395 -0.2176 -0.4902
48216SOL    HW151763   7.861   1.908   0.562  0.9838 -0.3861 -2.2649
48216SOL    HW251764   7.728   1.886   0.492 -0.2949  0.3704 -0.1642
48217SOL     OW51765   3.099  12.286   8.343  0.6358 -0.3048  0.4156
48217SOL    HW151766   3.073  12.203   8.382  0.5185 -0.4414  0.0464
48217SOL    HW251767   3.042  12.351   8.384  0.7722 -0.3942  0.7515
48218SOL     OW51768   2.316   5.455   4.047  0.0831 -0.3558 -0.2978
48218SOL    HW151769   2.345   5.490   4.131 -1.1917 -0.4615  0.2249
48218SOL    HW251770   2.285   5.531   3.999 -2.4937 -0.6142  0.7577
48219SOL     OW51771  12.909  10.973  10.159  0.6415  0.3714  0.4913
48219SOL    HW151772  12.830  11.009  10.201  0.1643  0.4243 -0.4334
48219SOL    HW251773  12.958  10.934  10.232 -0.3663  0.1048  1.0527
48220SOL     OW51774   3.706   5.529  11.809  0.4445 -0.2079 -0.3561
48220SOL    HW151775   3.611   5.526  11.821  0.4759 -0.2179 -0.1077
48220SOL    HW251776   3.718   5.558  11.718  0.1712 -2.9235 -1.3551
48221SOL     OW51777   9.636   8.329  12.653 -0.3197  0.2043  0.7363
48221SOL    HW151778   9.645   8.379  12.571  0.0752  0.2659  0.8123
48221SOL    HW251779   9.596   8.247  12.626  0.3842 -0.0355  0.3733
48222SOL     OW51780   8.134   4.885  12.475  0.4625 -0.1495  0.8817
48222SOL    HW151781   8.161   4.815  12.416  0.3963 -0.3010  1.0306
48222SOL    HW251782   8.211   4.943  12.480  0.2303  0.2375  0.1031
48223SOL     OW51783   6.100  10.016   4.930 -0.3709 -0.2408  0.6696
48223SOL    HW151784   6.093   9.997   5.023  2.1451 -1.5869  0.6648
48223SOL    HW251785   6.073   9.936   4.886 -0.3759 -0.0273  0.2746
48224SOL     OW51786   8.394   9.671   4.006 -0.0023 -0.1810  0.0683
48224SOL    HW151787   8.305   9.705   3.999 -0.0497  0.1343  1.7875
48224SOL    HW251788   8.386   9.577   3.992 -0.8181 -0.3438  1.4611
48225SOL     OW51789  11.125   3.819   0.372  0.2115  0.2841  0.3011
48225SOL    HW151790  11.148   3.816   0.279  0.6701 -1.1053  0.4312
48225SOL    HW251791  11.053   3.882   0.378  0.2009  0.4096 -0.9777
48226SOL     OW51792   2.737  11.610   6.562 -0.2610 -0.5029  0.2777
48226SOL    HW151793   2.830  11.633   6.564 -0.3473  0.2525 -1.7454
48226SOL    HW251794   2.736  11.515   6.548  0.1438 -0.9186  2.6763
48227SOL     OW51795  11.861   4.980   8.881 -0.8194  0.3178 -0.1301
48227SOL    HW151796  11.770   5.009   8.888 -0.6482  0.6774  0.7232
48227SOL    HW251797  11.862   4.925   8.803 -1.5172  1.2699 -0.8447
48228SOL     OW51798   5.582   4.613  12.210 -0.0097 -0.2516  0.3441
48228SOL    HW151799   5.516   4.675  12.242  0.7165  1.5632 -1.4829
48228SOL    HW251800   5.533   4.550  12.158 -0.4755  0.3001  0.1051
48229SOL     OW51801  11.264   1.606  10.254  0.2905 -0.5672 -0.1970
48229SOL    HW151802  11.288   1.590  10.163  0.4284 -1.4666 -0.0058
48229SOL    HW251803  11.347   1.608  10.301  0.1487 -1.3475  0.0988
48230SOL     OW51804   6.251   0.528   6.798  0.0563 -0.3944 -0.1496
48230SOL    HW151805   6.266   0.591   6.727 -0.2128  0.0592  0.1955
48230SOL    HW251806   6.166   0.551   6.834 -1.0666 -2.3171 -1.4165
48231SOL     OW51807   4.235  12.805   8.894 -0.1100  0.0575 -0.5601
48231SOL    HW151808   4.141  12.786   8.900  0.0666 -1.1332 -1.4022
48231SOL    HW251809   4.239  12.894   8.858 -0.9009 -0.0411 -0.9008
48232SOL     OW51810   8.082   1.733   9.796  0.0441 -0.2015 -0.3394
48232SOL    HW151811   8.087   1.828   9.787 -1.8366  0.1192  1.5003
48232SOL    HW251812   8.166   1.702   9.761  0.4146  2.0456 -1.6454
48233SOL     OW51813   2.148   5.489   2.585 -0.5242 -0.8424  0.4616
48233SOL    HW151814   2.212   5.473   2.654  1.1246 -1.8363 -1.2226
48233SOL    HW251815   2.100   5.407   2.577 -0.2718 -0.9484  0.0051
48234SOL     OW51816   3.228   0.276  12.658 -0.5157 -0.3923  0.0232
48234SOL    HW151817   3.288   0.214  12.698  1.4682  1.1305 -0.4506
48234SOL    HW251818   3.198   0.331  12.730 -0.9875 -0.8503  0.1831
48235SOL     OW51819   2.211   0.087   2.723 -0.2399 -0.0874 -0.0330
48235SOL    HW151820   2.253   0.133   2.796  0.9725 -1.2839  0.0610
48235SOL    HW251821   2.169   0.156   2.672 -1.5224  0.7579  2.0217
48236SOL     OW51822   2.352   8.793   1.415  0.1575 -0.5404 -0.2348
48236SOL    HW151823   2.343   8.856   1.486 -0.3282  1.4777 -1.9743
48236SOL    HW251824   2.319   8.711   1.451  0.6536  0.2045  2.0777
48237SOL     OW51825   0.096  10.579   6.888  0.1355  0.2418  0.2391
48237SOL    HW151826   0.012  10.620   6.909  0.3350  0.1531  1.2255
48237SOL    HW251827   0.113  10.606   6.797 -0.9172  0.3175  0.0510
48238SOL     OW51828   5.161   7.745   2.536  0.7037  0.3198 -0.5798
48238SOL    HW151829   5.185   7.826   2.582  0.5585  0.6308 -1.0440
48238SOL    HW251830   5.152   7.772   2.445 -1.9851  0.3443 -0.3662
48239SOL     OW51831   1.068  12.100   8.408 -0.0267 -0.4182 -0.4656
48239SOL    HW151832   1.073  12.034   8.477  0.8903  1.1138  1.0002
48239SOL    HW251833   1.160  12.115   8.383 -0.1489  0.8316 -0.2281
48240SOL     OW51834   5.206   2.818   9.572 -0.2437  0.3162  0.4236
48240SOL    HW151835   5.251   2.733   9.571 -1.4559 -0.3406 -0.1613
48240SOL    HW251836   5.264   2.876   9.524 -1.8891 -1.5551 -4.4522
48241SOL     OW51837   8.822   0.462   4.696 -0.0233 -0.1163  0.1385
48241SOL    HW151838   8.825   0.391   4.632  1.5174  0.4101 -0.4176
48241SOL    HW251839   8.832   0.419   4.781  0.9488 -0.5838 -0.1988
48242SOL     OW51840   8.100   6.943  12.392 -0.0264  0.1275  0.1358
48242SOL    HW151841   8.006   6.952  12.405  0.1486  0.6221  1.1758
48242SOL    HW251842   8.122   7.008  12.326 -0.4622 -0.2479 -0.3928
48243SOL     OW51843  12.028   0.639   4.691 -0.6216  0.1947 -0.0269
48243SOL    HW151844  12.043   0.545   4.699  2.6670  0.7454  2.4240
48243SOL    HW251845  12.100   0.670   4.636 -0.0531  1.5635  1.4286
48244SOL     OW51846  11.394  11.229   0.374 -0.3087  0.0060  0.1243
48244SOL    HW151847  11.311  11.224   0.326  0.0424  1.1550 -0.6355
48244SOL    HW251848  11.461  11.205   0.309  0.0075 -0.3807  0.5862
48245SOL     OW51849   1.448   8.109   6.616 -0.3980  0.2440  0.6548
48245SOL    HW151850   1.539   8.135   6.604  0.1002 -0.5887  2.3511
48245SOL    HW251851   1.406   8.186   6.655 -0.4011  0.5461  0.0837
48246SOL     OW51852  12.116   7.582   6.336  0.1457 -0.0741  0.3950
48246SOL    HW151853  12.068   7.500   6.349  0.6048 -0.4575 -0.2133
48246SOL    HW251854  12.077   7.643   6.398 -1.0353 -0.4026  0.0064
48247SOL     OW51855   1.641   6.548   4.001 -0.2642 -0.0168  0.0393
48247SOL    HW151856   1.669   6.490   4.072  2.2225  0.5707 -0.3635
48247SOL    HW251857   1.627   6.633   4.044  3.3824  0.9312 -0.3129
48248SOL     OW51858   6.369   3.884  12.594  0.7032  0.2803  0.5871
48248SOL    HW151859   6.367   3.889  12.690  1.3533 -0.6274  0.6658
48248SOL    HW251860   6.299   3.822  12.572  0.8859  0.0940  0.5215
48249SOL     OW51861  10.438   2.365  10.449  0.1354  0.1222  0.0561
48249SOL    HW151862  10.464   2.433  10.511  1.5395  0.6519 -1.0557
48249SOL    HW251863  10.520   2.328  10.418 -0.5886 -1.4077 -0.1181
48250SOL     OW51864  12.415   4.397   3.387  0.3815 -0.3928 -0.4003
48250SOL    HW151865  12.390   4.405   3.479  0.6320 -0.2276 -0.3476
48250SOL    HW251866  12.403   4.484   3.351  1.2401 -0.2251 -0.2866
48251SOL     OW51867   6.031   5.826   9.708  0.2914 -0.2984  0.3231
48251SOL    HW151868   6.035   5.865   9.795  0.5817  1.8117 -0.5576
48251SOL    HW251869   6.121   5.833   9.675  0.8192 -3.5326  0.7809
48252SOL     OW51870   4.136  11.071   5.426  0.5032 -0.0433 -0.1365
48252SOL    HW151871   4.063  11.121   5.389  0.3870  0.3587  0.6178
48252SOL    HW251872   4.180  11.033   5.349  0.6102  1.2386 -0.7373
48253SOL     OW51873   2.108   8.267  10.713  0.1718 -0.5624  0.4699
48253SOL    HW151874   2.176   8.247  10.777  1.0932 -0.3204 -0.4056
48253SOL    HW251875   2.127   8.210  10.639  1.1560  1.4404 -0.9298
48254SOL     OW51876   4.998   0.114   4.282 -0.1994  0.0528 -0.8079
48254SOL    HW151877   5.033   0.203   4.281 -1.6106  0.6303 -0.1708
48254SOL    HW251878   4.904   0.124   4.265 -0.5628 -1.2180  0.2617
48255SOL     OW51879   9.158  11.366  12.766 -0.2445 -0.0733  0.2991
48255SOL    HW151880   9.074  11.409  12.754 -0.3314 -0.2790  0.1686
48255SOL    HW251881   9.173  11.369  12.861 -0.5867 -0.3945  0.3653
48256SOL     OW51882   9.662  10.338   1.368  0.1148 -0.2988  0.0364
48256SOL    HW151883   9.751  10.329   1.401  0.2928  1.2495  0.0619
48256SOL    HW251884   9.624  10.250   1.375  1.4656 -0.8667  0.4923
48257SOL     OW51885   2.181   3.217   1.340  0.3548 -0.0342 -0.1065
48257SOL    HW151886   2.107   3.274   1.361  0.3684  0.2034 -0.6851
48257SOL    HW251887   2.255   3.254   1.388  0.5708  0.9811 -1.1990
48258SOL     OW51888   6.006   9.811   1.891 -0.4662  0.3240 -0.2340
48258SOL    HW151889   5.933   9.837   1.948 -0.1851  1.7082 -0.4712
48258SOL    HW251890   6.078   9.791   1.950 -1.2492 -1.8930  0.0500
48259SOL     OW51891   2.561   8.358   7.028 -0.7467  0.5488 -0.1079
48259SOL    HW151892   2.642   8.408   7.044  0.0496 -0.6055 -0.4288
48259SOL    HW251893   2.550   8.361   6.933 -0.9679  0.5210 -0.0831
48260SOL     OW51894  11.915   5.808   7.256  0.0144 -0.1250  0.0603
48260SOL    HW151895  11.956   5.728   7.290  0.8835  0.4963  0.5199
48260SOL    HW251896  11.976   5.839   7.190  0.4531  0.9636  0.9409
48261SOL     OW51897   1.093   7.529   5.413  0.7228  0.3712  0.1702
48261SOL    HW151898   1.124   7.591   5.347  0.5414  0.2454 -0.0361
48261SOL    HW251899   1.136   7.446   5.390  1.4646  0.5591  0.8222
48262SOL     OW51900  12.790  10.114  11.102 -0.1900 -0.2699 -0.0779
48262SOL    HW151901  12.761  10.161  11.024 -1.2169 -1.1214 -0.2202
48262SOL    HW251902  12.711  10.072  11.136  0.3691 -0.4578  1.0472
48263SOL     OW51903   3.179   5.161   1.720  0.8385 -0.0332  0.3601
48263SOL    HW151904   3.159   5.204   1.803 -0.0646  0.3835 -0.0609
48263SOL    HW251905   3.262   5.114   1.736  0.9837  0.5303  1.3043
48264SOL     OW51906   4.742   3.078  10.634 -0.0646 -0.0699 -0.3166
48264SOL    HW151907   4.770   3.072  10.725  0.0776 -2.2206 -0.4500
48264SOL    HW251908   4.780   3.161  10.603 -0.4534  0.8916  1.6503
48265SOL     OW51909   5.829   5.587   8.618  0.2644  0.3714 -0.1955
48265SOL    HW151910   5.892   5.521   8.647  0.8085  0.9937  0.0678
48265SOL    HW251911   5.884   5.659   8.586 -0.3237  0.4888 -0.9590
48266SOL     OW51912   4.709   4.393   7.677  0.9682 -0.0885 -0.3440
48266SOL    HW151913   4.778   4.380   7.611 -0.2934 -0.9082 -1.5731
48266SOL    HW251914   4.668   4.307   7.685 -0.1675  0.4744  0.0496
48267SOL     OW51915   7.401  12.415   6.750  0.2387 -0.1747  0.4245
48267SOL    HW151916   7.377  12.495   6.703  1.2689  0.2769  0.6445
48267SOL    HW251917   7.452  12.446   6.825  1.1342 -1.0630  0.2031
48268SOL     OW51918   1.203  11.936   0.641 -0.5740 -0.7652 -0.3456
48268SOL    HW151919   1.138  12.002   0.666 -1.3107 -1.4602 -0.3705
48268SOL    HW251920   1.269  11.984   0.591 -0.5741  0.1246  0.4970
48269SOL     OW51921   1.840  11.296   0.621 -0.6070  0.1790 -0.0556
48269SOL    HW151922   1.854  11.326   0.531 -0.5593  2.9265  0.7646
48269SOL    HW251923   1.749  11.266   0.623 -0.6156  0.1159 -0.9895
48270SOL     OW51924   2.382   1.476  12.357  0.5372 -0.0655  0.0846
48270SOL    HW151925   2.427   1.400  12.395  0.6807 -0.4837 -0.8884
48270SOL    HW251926   2.453   1.533  12.328  0.4370 -0.0686 -0.1666
48271SOL     OW51927  10.411   8.898  10.535  0.5295 -0.3771  0.4090
48271SOL    HW151928  10.493   8.933  10.569  0.2154  0.6172  0.1794
48271SOL    HW251929  10.436   8.852  10.455  1.0213 -1.1461  0.9927
48272SOL     OW51930   4.599   5.910   1.459 -0.1297 -0.5272 -0.1166
48272SOL    HW151931   4.663   5.978   1.440  0.5095 -0.6566  1.3795
48272SOL    HW251932   4.650   5.843   1.505 -1.3785 -0.5205  1.3370
48273SOL     OW51933   4.180   5.238   0.955 -0.2263  0.0541 -0.0548
48273SOL    HW151934   4.106   5.287   0.919 -0.2134  1.1062  1.2816
48273SOL    HW251935   4.257   5.289   0.932 -0.0308 -0.3402 -0.2887
48274SOL     OW51936   1.688  12.194  12.935  0.1504 -0.1488  0.2370
48274SOL    HW151937   1.782  12.185  12.925  0.1808  0.9667 -0.6284
48274SOL    HW251938   1.676  12.283  12.967 -0.7556  0.7539 -2.4137
48275SOL     OW51939   9.656   5.332   0.828 -0.7966  0.2196 -0.0222
48275SOL    HW151940   9.723   5.366   0.887 -1.0087  1.4422 -0.4478
48275SOL    HW251941   9.573   5.352   0.873 -1.0325  2.3503 -1.2381
48276SOL     OW51942   9.062  10.894  11.453 -0.0336 -0.2265  0.0089
48276SOL    HW151943   9.041  10.857  11.539 -1.1757  1.6897  0.6347
48276SOL    HW251944   9.157  10.902  11.452  0.0656 -1.1946  0.6818
48277SOL     OW51945   3.403   0.527  12.123 -0.2017 -0.2505  0.0475
48277SOL    HW151946   3.497   0.546  12.132  0.1422  0.6993 -3.7678
48277SOL    HW251947   3.361   0.614  12.121 -0.5931 -0.4179 -1.9146
48278SOL     OW51948   4.165   8.854   3.210 -0.3181 -0.5741  0.4268
48278SOL    HW151949   4.225   8.785   3.237  0.5434  0.3764  1.0475
48278SOL    HW251950   4.094   8.809   3.166  0.9134 -1.7531 -0.4485
48279SOL     OW51951  10.909   7.448   3.997  0.3673  0.0548  0.7955
48279SOL    HW151952  10.979   7.396   3.958  0.2300  0.5805 -0.1965
48279SOL    HW251953  10.912   7.427   4.091  0.2613 -1.7699  0.4275
48280SOL     OW51954  10.549  12.298   7.840 -0.0785  0.1148 -0.2456
48280SOL    HW151955  10.609  12.363   7.876  0.0532  0.7795 -1.6190
48280SOL    HW251956  10.605  12.222   7.822  0.1117  0.2836 -0.3664
48281SOL     OW51957  10.862   5.973   3.884 -0.1012 -0.0336  0.0374
48281SOL    HW151958  10.807   5.898   3.862 -0.8421  0.6621 -0.5805
48281SOL    HW251959  10.825   6.007   3.966  1.1817 -1.2182  1.1507
48282SOL     OW51960  10.989   9.824   1.027 -0.0646  0.2420  0.0302
48282SOL    HW151961  10.990   9.872   0.944 -0.1702 -1.1839 -0.8223
48282SOL    HW251962  11.073   9.843   1.068  0.2386  0.4618 -0.6985
48283SOL     OW51963  10.295   2.151  11.883  0.5287 -0.1005 -0.1104
48283SOL    HW151964  10.374   2.192  11.918  0.0073  0.0820  0.8852
48283SOL    HW251965  10.272   2.084  11.947 -0.0180 -0.2800 -0.4864
48284SOL     OW51966   7.448   4.921  10.224 -0.4382 -0.6048 -0.0765
48284SOL    HW151967   7.454   4.901  10.130  2.4705 -0.6436  0.0261
48284SOL    HW251968   7.483   4.843  10.267 -0.9714 -0.2583  1.0376
48285SOL     OW51969  10.187  12.634  10.346  0.2521 -0.5081  0.1857
48285SOL    HW151970  10.204  12.580  10.423  1.4844 -0.1053  0.2349
48285SOL    HW251971  10.113  12.689  10.371 -0.3990 -1.5044  0.4784
48286SOL     OW51972   2.550   9.480   5.269  0.1211  0.0083 -0.3190
48286SOL    HW151973   2.470   9.449   5.312 -0.2964  1.0974 -0.2897
48286SOL    HW251974   2.522   9.553   5.214  0.9952 -0.0235 -0.8308
48287SOL     OW51975   6.531   3.859  12.269  0.5617  0.1016  0.0000
48287SOL    HW151976   6.495   3.793  12.329 -0.9878 -0.9078 -1.8928
48287SOL    HW251977   6.565   3.808  12.195  0.3606  1.3640 -0.9970
48288SOL     OW51978   7.786   5.087   3.773  0.2015  0.2762  0.0757
48288SOL    HW151979   7.811   5.126   3.689  1.5340  0.0128  0.3279
48288SOL    HW251980   7.753   5.161   3.825  0.1448  0.5786 -0.3839
48289SOL     OW51981   8.065  11.187   5.878  0.6043  0.2172 -0.2588
48289SOL    HW151982   8.123  11.150   5.812  0.1190 -0.4827 -0.2959
48289SOL    HW251983   8.042  11.273   5.842  0.7787  0.0702 -0.7382
48290SOL     OW51984   0.242   2.553   1.454 -0.5657  0.3215 -0.0583
48290SOL    HW151985   0.161   2.598   1.429  0.6465  1.2526 -2.6286
48290SOL    HW251986   0.297   2.622   1.493 -0.2475  0.1437 -0.1849
48291SOL     OW51987   7.832   3.936  12.505  0.0248  0.5248 -0.4460
48291SOL    HW151988   7.881   3.998  12.560 -1.0908  2.0237 -1.0889
48291SOL    HW251989   7.775   3.890  12.566  2.4670 -1.6180  0.4080
48292SOL     OW51990   9.172   3.579  11.546  0.0283 -0.7818  0.3224
48292SOL    HW151991   9.161   3.579  11.451  2.2719 -2.9202 -0.0414
48292SOL    HW251992   9.100   3.526  11.579  0.9222 -2.6081 -0.5410
48293SOL     OW51993  10.405  11.453   5.479 -0.6070 -0.2355 -0.4975
48293SOL    HW151994  10.480  11.473   5.423 -1.7890 -2.5906 -3.1760
48293SOL    HW251995  10.420  11.505   5.558  1.0578  3.6713 -3.0188
48294SOL     OW51996   5.764   9.959   8.867 -0.0909  0.2162 -1.3097
48294SOL    HW151997   5.826   9.928   8.800 -0.9410  1.0446 -2.5305
48294SOL    HW251998   5.678   9.947   8.826 -0.7618 -0.8671  0.3333
48295SOL     OW51999   0.138   1.551   2.914 -0.4905 -0.0930 -0.7667
48295SOL    HW152000   0.123   1.459   2.934 -2.1485  0.3805  0.3892
48295SOL    HW252001   0.215   1.551   2.857 -0.0424 -2.1219 -0.2413
48296SOL     OW52002   2.962   3.693   8.358 -0.3741 -0.4849 -0.1372
48296SOL    HW152003   2.934   3.661   8.443 -0.3372  1.6474  0.7150
48296SOL    HW252004   3.056   3.674   8.355  0.1671  1.7111  1.4160
48297SOL     OW52005   3.801   3.810   7.572  0.8908  0.3159  0.4603
48297SOL    HW152006   3.802   3.902   7.546  1.3279 -0.1524 -1.4028
48297SOL    HW252007   3.867   3.804   7.641  0.7720  1.4163  0.6905
48298SOL     OW52008  12.836   6.624  10.967 -0.0431 -0.5280  0.1090
48298SOL    HW152009  12.790   6.556  11.016 -1.7041  0.1577 -0.4243
48298SOL    HW252010  12.923   6.628  11.007 -1.1487 -0.3415  2.6528
48299SOL     OW52011   7.857   4.479   1.189  0.1033  0.2314 -0.4043
48299SOL    HW152012   7.894   4.468   1.277 -1.5640 -1.8377  0.1292
48299SOL    HW252013   7.838   4.390   1.160 -2.1065  1.0264 -1.6060
48300SOL     OW52014   6.931  11.393   4.557 -0.3126  0.0953 -0.2495
48300SOL    HW152015   6.960  11.459   4.621  0.6419  1.1664 -1.7211
48300SOL    HW252016   6.881  11.331   4.609  1.0719  0.4878  1.7091
48301SOL     OW52017  10.270   2.776   5.162 -0.7227  0.0100 -0.3012
48301SOL    HW152018  10.337   2.784   5.230 -0.3541 -0.9929 -0.5177
48301SOL    HW252019  10.307   2.713   5.100 -1.1836  0.6603 -1.2722
48302SOL     OW52020   4.691   3.112   6.163 -0.0379  0.0842 -0.3178
48302SOL    HW152021   4.758   3.070   6.217 -0.1421 -0.7446 -0.8239
48302SOL    HW252022   4.620   3.131   6.225  0.1067 -0.2695 -0.0372
48303SOL     OW52023   9.166   2.859   4.665 -0.1877  0.3052 -0.2741
48303SOL    HW152024   9.254   2.872   4.702  0.5281 -0.8151 -1.5333
48303SOL    HW252025   9.128   2.789   4.718  0.4490 -0.5951 -0.9961
48304SOL     OW52026   2.882   3.311  11.543 -1.0219  0.1065 -0.2004
48304SOL    HW152027   2.950   3.276  11.600 -0.9183  2.0870  0.9886
48304SOL    HW252028   2.859   3.238  11.485  0.3317 -1.3493  1.0079
48305SOL     OW52029   0.774  10.995   3.952 -0.2263  0.2511 -0.4001
48305SOL    HW152030   0.724  10.913   3.957  0.1440 -0.1019 -1.9528
48305SOL    HW252031   0.720  11.051   3.896  0.7296  0.1337 -1.4674
48306SOL     OW52032   9.111   7.013   2.777  0.3017 -0.1182 -0.4933
48306SOL    HW152033   9.179   6.946   2.777  0.5332 -0.2351  4.7480
48306SOL    HW252034   9.033   6.968   2.808 -1.0913  0.9802 -2.1915
48307SOL     OW52035   2.611   1.622  12.252  0.1312 -0.6640  0.4764
48307SOL    HW152036   2.661   1.697  12.285 -1.9241  0.6652  0.7584
48307SOL    HW252037   2.622   1.625  12.157 -0.0298  0.0718  0.4794
48308SOL     OW52038   3.515  10.333   4.147  0.4771 -0.2849  0.5871
48308SOL    HW152039   3.579  10.265   4.125  1.3416 -0.1758  2.5816
48308SOL    HW252040   3.565  10.414   4.146  0.1245 -0.0586  1.0737
48309SOL     OW52041   7.592   8.971  11.557  0.7949 -0.3801 -0.6203
48309SOL    HW152042   7.627   9.046  11.604  1.7366 -1.7672  1.0379
48309SOL    HW252043   7.581   9.001  11.466 -1.5559  2.5639  0.4731
48310SOL     OW52044   4.818   6.833   3.854  0.4528 -0.7765 -0.4807
48310SOL    HW152045   4.826   6.773   3.928 -0.9638 -0.8139 -0.3313
48310SOL    HW252046   4.898   6.886   3.857  0.3765 -0.7081  1.1207
48311SOL     OW52047   8.676   3.539  11.687 -0.5034  0.1451 -0.0820
48311SOL    HW152048   8.693   3.598  11.761 -0.9654  1.9551 -1.3564
48311SOL    HW252049   8.616   3.474  11.723 -0.4073  0.7494  1.2609
48312SOL     OW52050   3.347   1.706  11.392 -0.0942  0.2069 -0.0084
48312SOL    HW152051   3.382   1.794  11.405  0.6195  0.0918 -1.0416
48312SOL    HW252052   3.256   1.721  11.366  0.1242  0.6649 -0.5413
48313SOL     OW52053   0.583  10.752  10.781  0.4361  0.1570  0.0188
48313SOL    HW152054   0.579  10.847  10.772  0.9933  0.2960  1.0768
48313SOL    HW252055   0.492  10.726  10.796  0.5849  0.9096  2.8652
48314SOL     OW52056   5.357   3.152  10.380  0.3021 -0.1872 -0.4524
48314SOL    HW152057   5.303   3.136  10.303  2.2301 -2.0565 -1.5290
48314SOL    HW252058   5.446   3.134  10.351  1.1536 -0.5910  2.1182
48315SOL     OW52059   9.047   1.653   2.024 -0.1892  0.3323 -0.0390
48315SOL    HW152060   9.069   1.669   1.933  0.2010  0.1894  0.0273
48315SOL    HW252061   9.086   1.727   2.072 -0.6410  0.5592 -0.0187
48316SOL     OW52062  11.221  12.141   9.220  0.0983  0.3405 -0.1394
48316SOL    HW152063  11.280  12.215   9.232  0.2671  0.8716 -3.3681
48316SOL    HW252064  11.137  12.181   9.195 -1.3063 -0.4683  2.8031
48317SOL     OW52065   4.779   7.582   8.073 -0.2002 -0.3648 -0.5577
48317SOL    HW152066   4.698   7.576   8.023 -0.9279 -0.5628  0.6214
48317SOL    HW252067   4.843   7.532   8.021 -1.1593 -1.3276 -0.8483
48318SOL     OW52068   9.648   9.842  12.537  0.0557  0.3734 -0.1537
48318SOL    HW152069   9.711   9.778  12.506  1.2140  0.8036  1.1990
48318SOL    HW252070   9.573   9.790  12.566  0.2601 -0.2293 -0.7056
48319SOL     OW52071   2.239   4.635   5.412  0.5658  0.4591 -0.0324
48319SOL    HW152072   2.194   4.551   5.406 -0.8468  1.1251  0.7545
48319SOL    HW252073   2.215   4.681   5.332  1.8393 -0.0839 -0.7619
48320SOL     OW52074  10.304   1.116  10.939 -0.9274 -0.3371 -0.4392
48320SOL    HW152075  10.284   1.095  11.030 -3.7145 -0.8676 -1.0692
48320SOL    HW252076  10.342   1.035  10.904  0.1805 -0.1227  0.2234
48321SOL     OW52077  10.785  12.242  11.930 -0.1650 -0.4499  0.0487
48321SOL    HW152078  10.840  12.290  11.993 -1.4324  0.0290  0.8399
48321SOL    HW252079  10.842  12.228  11.854  1.0031  0.1306  0.7785
48322SOL     OW52080   1.071  10.252  11.302  0.3516 -0.3783 -0.1062
48322SOL    HW152081   1.117  10.283  11.225  2.0664 -3.1330 -0.3198
48322SOL    HW252082   1.137  10.253  11.372 -0.4797 -0.3251  0.6998
48323SOL     OW52083  11.352   4.859  10.407  0.3349  0.4341 -0.3536
48323SOL    HW152084  11.307   4.870  10.491 -0.9042  0.9914 -1.0695
48323SOL    HW252085  11.352   4.946  10.368 -2.3824 -0.3967 -2.5360
48324SOL     OW52086  12.370   9.522   7.655  0.2457 -0.0539 -0.2136
48324SOL    HW152087  12.338   9.597   7.605  0.8688  1.8730  2.1131
48324SOL    HW252088  12.305   9.453   7.638 -3.6521  2.6846  1.8723
48325SOL     OW52089   1.545   5.660  10.434 -0.4452 -0.3803 -0.0268
48325SOL    HW152090   1.516   5.745  10.401 -0.8776 -0.0113  1.2671
48325SOL    HW252091   1.614   5.633  10.373 -1.7979 -0.1364 -1.7253
48326SOL     OW52092   9.163   4.492   8.254 -0.0912  0.4084  0.2327
48326SOL    HW152093   9.146   4.458   8.342 -0.7504  1.2281  0.4278
48326SOL    HW252094   9.077   4.515   8.220  0.3382  2.1051  0.2106
48327SOL     OW52095  11.838   7.562   5.820  0.3320  0.4261  0.0852
48327SOL    HW152096  11.804   7.541   5.733 -0.7076  0.8957  0.3599
48327SOL    HW252097  11.846   7.478   5.864 -1.4860  0.3552  0.3564
48328SOL     OW52098   1.395   2.911   7.164 -0.2504 -0.0501  0.3344
48328SOL    HW152099   1.335   2.986   7.165  0.5474  0.6453 -1.3782
48328SOL    HW252100   1.462   2.934   7.100 -1.8537 -3.6698 -3.0203
48329SOL     OW52101   1.254  10.342   6.146 -0.3716 -0.1721  0.4609
48329SOL    HW152102   1.311  10.404   6.101  1.6053 -0.5183  2.3185
48329SOL    HW252103   1.181  10.327   6.085  0.7458  1.4533 -1.3741
48330SOL     OW52104   0.921   4.656  10.612  0.1839  0.6803  0.0072
48330SOL    HW152105   0.830   4.651  10.584  0.5484  0.6612 -1.2108
48330SOL    HW252106   0.972   4.636  10.534  1.2542  1.3267  0.5092
48331SOL     OW52107   4.648   0.931   4.249  0.3697  0.5646  0.2523
48331SOL    HW152108   4.664   0.975   4.333 -0.5210  1.2164  0.0904
48331SOL    HW252109   4.675   0.995   4.183  0.8679  0.1337  0.0341
48332SOL     OW52110   3.459   8.382   0.561  0.0229  0.4294 -0.2255
48332SOL    HW152111   3.464   8.431   0.643  0.3886  1.5072 -0.8711
48332SOL    HW252112   3.450   8.291   0.589 -1.0789  0.8771  1.0043
48333SOL     OW52113  11.108   9.005  10.687 -0.0981 -0.6746  0.1117
48333SOL    HW152114  11.133   8.914  10.672 -0.4899 -0.5790 -1.2081
48333SOL    HW252115  11.016   9.010  10.661  0.1243  0.2661 -0.5421
48334SOL     OW52116  11.018  10.755   1.767  0.3803  0.4515  0.4247
48334SOL    HW152117  10.975  10.832   1.805 -0.9939 -0.3997  0.6846
48334SOL    HW252118  11.049  10.706   1.843 -2.3055 -1.2186  0.5828
48335SOL     OW52119   7.247   2.657   4.174  0.3325  0.2849  0.2100
48335SOL    HW152120   7.174   2.678   4.115 -0.3248 -0.1315  0.8529
48335SOL    HW252121   7.293   2.740   4.185 -0.7398  0.8289  0.7184
48336SOL     OW52122   7.913   2.499   0.814  0.3793 -0.2530 -0.4539
48336SOL    HW152123   7.873   2.473   0.897  1.3749  0.5261  0.2950
48336SOL    HW252124   7.841   2.538   0.764 -0.3764 -1.3389 -0.2430
48337SOL     OW52125   8.107   6.476   0.284 -0.0439  0.0492 -0.8217
48337SOL    HW152126   8.179   6.538   0.300 -0.5849  0.6734 -0.7678
48337SOL    HW252127   8.087   6.486   0.191 -0.0213 -0.1648 -0.8489
48338SOL     OW52128   0.207   2.705   2.012 -0.2880 -0.4702 -0.0980
48338SOL    HW152129   0.261   2.680   1.937  0.1402  1.3793 -0.4348
48338SOL    HW252130   0.243   2.654   2.085 -0.1172 -1.5924 -0.9320
48339SOL     OW52131   6.242  11.751   4.549  0.0272 -0.2857 -0.5366
48339SOL    HW152132   6.326  11.795   4.553  0.4617 -1.1571  0.2502
48339SOL    HW252133   6.180  11.819   4.523  0.7903  0.6053 -0.0500
48340SOL     OW52134   8.703   5.181   1.256 -0.3672 -0.0946 -0.2219
48340SOL    HW152135   8.750   5.099   1.245 -2.1284 -1.5899  2.4826
48340SOL    HW252136   8.643   5.185   1.181 -1.8559 -2.5080  0.7210
48341SOL     OW52137   6.972   3.281   8.565 -0.5653  0.0172  0.0888
48341SOL    HW152138   7.063   3.287   8.538 -0.1824 -0.0348  1.2978
48341SOL    HW252139   6.967   3.199   8.615 -1.7924 -1.1359 -1.7733
48342SOL     OW52140  11.763   9.946   3.731 -0.2602  0.3003  0.4591
48342SOL    HW152141  11.701   9.994   3.787 -0.0610  0.5686  0.4533
48342SOL    HW252142  11.835  10.007   3.718  0.3085 -0.2522  0.9950
48343SOL     OW52143   7.096  12.580   9.032 -0.3407 -0.3070  0.2734
48343SOL    HW152144   7.008  12.613   9.050  0.1820  2.0840 -1.0880
48343SOL    HW252145   7.108  12.594   8.938  1.4529 -0.6749  0.4114
48344SOL     OW52146  11.740   6.451   9.706  0.4526 -0.3017  0.3646
48344SOL    HW152147  11.718   6.359   9.693  0.3442 -0.1924 -0.2380
48344SOL    HW252148  11.689   6.478   9.782  0.2904 -0.6679  0.3851
48345SOL     OW52149  12.628   0.725   2.316 -0.1344  0.0394  0.5598
48345SOL    HW152150  12.594   0.694   2.232  0.7487 -0.3883  0.3432
48345SOL    HW252151  12.623   0.820   2.311  1.6782  0.1317 -0.7933
48346SOL     OW52152   2.078   8.577   2.564 -0.6896  0.1226  0.5578
48346SOL    HW152153   2.159   8.608   2.605 -1.3628  2.7642  0.0375
48346SOL    HW252154   2.062   8.492   2.605  0.8061  0.8397  2.8024
48347SOL     OW52155   9.710   7.791   7.814 -0.6117 -0.5068  0.6100
48347SOL    HW152156   9.778   7.845   7.855 -1.3595 -0.6809  2.1459
48347SOL    HW252157   9.720   7.705   7.855 -0.8945 -0.9003 -0.1410
48348SOL     OW52158   8.377  10.324   8.865 -0.0268  0.2263  0.3835
48348SOL    HW152159   8.408  10.282   8.785  0.1547 -0.0764  0.6114
48348SOL    HW252160   8.361  10.415   8.840 -0.6353 -0.0268 -0.1695
48349SOL     OW52161   3.515  11.754   9.531  0.0507 -0.1930  0.1747
48349SOL    HW152162   3.481  11.768   9.619  0.0713 -0.4172  0.2193
48349SOL    HW252163   3.462  11.682   9.496  0.1180 -0.1803  0.0462
48350SOL     OW52164   3.141  10.566   7.558 -0.5021 -0.6932 -0.4357
48350SOL    HW152165   3.117  10.650   7.518  0.0896 -0.6608 -0.7356
48350SOL    HW252166   3.212  10.533   7.503 -1.1304 -1.6782 -0.6793
48351SOL     OW52167  10.067   6.695   1.710 -0.8964 -0.4387  0.3842
48351SOL    HW152168  10.099   6.751   1.780 -0.8175 -1.9992  1.6411
48351SOL    HW252169   9.984   6.736   1.683  0.5752  1.9297 -0.8372
48352SOL     OW52170   2.984   3.172   5.958 -0.0681 -0.4497  0.6922
48352SOL    HW152171   3.065   3.200   6.002 -0.1712 -0.2377  0.7464
48352SOL    HW252172   2.993   3.076   5.951  1.4539 -0.2382 -1.7519
48353SOL     OW52173   8.277   6.236   0.754 -0.6518  0.1331 -0.0370
48353SOL    HW152174   8.308   6.259   0.666 -1.7213 -0.7288 -0.6672
48353SOL    HW252175   8.217   6.307   0.777 -1.7420 -0.5233 -0.7747
48354SOL     OW52176   4.429   8.187   5.631  0.2527  0.0498 -0.0520
48354SOL    HW152177   4.375   8.263   5.652  0.0340 -0.2247  0.3946
48354SOL    HW252178   4.440   8.141   5.715  1.1539  0.0865 -0.1354
48355SOL     OW52179  10.346   5.711   5.412 -0.0510 -0.3427 -0.4109
48355SOL    HW152180  10.292   5.636   5.436 -1.2873  1.1031  1.6488
48355SOL    HW252181  10.416   5.712   5.478  0.7060 -0.3991 -1.1959
48356SOL     OW52182   5.534   5.160   1.310  0.8393  0.5639 -0.4425
48356SOL    HW152183   5.480   5.175   1.232 -1.0579 -1.1791  0.4362
48356SOL    HW252184   5.600   5.096   1.282 -0.0934 -0.3771 -0.5548
48357SOL     OW52185   5.678   0.458   9.093  0.0383  0.2510  0.0230
48357SOL    HW152186   5.680   0.440   8.999  0.5564  0.6268 -0.0426
48357SOL    HW252187   5.769   0.453   9.121  0.0048  1.0445  0.3271
48358SOL     OW52188  12.823   4.985  10.814  0.2259 -0.1242 -0.3589
48358SOL    HW152189  12.832   4.983  10.909 -0.9811  0.1917 -0.2231
48358SOL    HW252190  12.750   4.927  10.795  1.0300 -0.8966 -1.1876
48359SOL     OW52191   3.135   3.627   0.209 -0.2997 -0.3282  0.1988
48359SOL    HW152192   3.064   3.625   0.145 -1.8329  2.0299  1.6839
48359SOL    HW252193   3.096   3.599   0.291  0.5067  0.7910  0.9978
48360SOL     OW52194   6.730   6.124   1.448  0.3357  0.2255  0.6155
48360SOL    HW152195   6.819   6.158   1.454  0.5560 -0.3467  0.6572
48360SOL    HW252196   6.738   6.045   1.395 -0.0171 -0.2577  1.2654
48361SOL     OW52197   0.519   2.300   8.326 -0.3928  0.0606  0.7741
48361SOL    HW152198   0.542   2.260   8.410 -0.1606 -0.4791  0.4607
48361SOL    HW252199   0.500   2.226   8.269  1.8651  0.2590 -0.3565
48362SOL     OW52200   0.128   7.369   9.690  0.5762 -0.4705  0.4037
48362SOL    HW152201   0.150   7.424   9.615  2.0069 -0.8934  0.4872
48362SOL    HW252202   0.132   7.428   9.765 -0.9284 -0.0308  0.1594
48363SOL     OW52203   7.256   5.768   2.228 -0.2352  0.3812 -0.4228
48363SOL    HW152204   7.218   5.768   2.140 -0.5058  0.7709 -0.3105
48363SOL    HW252205   7.211   5.840   2.273 -0.4175 -0.1045  0.1721
48364SOL     OW52206   0.430   0.202   9.005 -0.0897 -0.3090 -0.0251
48364SOL    HW152207   0.433   0.279   9.062  1.9019 -0.9711  0.8626
48364SOL    HW252208   0.383   0.231   8.927 -1.8819  0.9744  1.4509
48365SOL     OW52209  10.941   1.437  10.266  0.0773 -0.0858 -0.3667
48365SOL    HW152210  11.023   1.417  10.310 -0.7297  0.0855  1.2745
48365SOL    HW252211  10.899   1.352  10.251 -0.2586 -0.0641  0.4315
48366SOL     OW52212   4.909   7.979   6.725  0.0069 -0.3313  0.5084
48366SOL    HW152213   4.814   7.984   6.736 -0.1953 -2.2665  0.1352
48366SOL    HW252214   4.944   8.035   6.794 -1.4033 -0.1740  1.1450
48367SOL     OW52215   2.800   7.741   0.762 -0.0508  0.0408  0.1936
48367SOL    HW152216   2.740   7.686   0.814  1.3234  0.0176  1.8677
48367SOL    HW252217   2.879   7.747   0.816  0.8675  1.3930 -1.2174
48368SOL     OW52218  12.847   6.234   3.031 -0.0422 -0.2295  0.2874
48368SOL    HW152219  12.810   6.235   3.119  3.2595 -1.1134  1.8721
48368SOL    HW252220  12.901   6.313   3.027  0.1276 -0.3790 -0.8323
48369SOL     OW52221  10.426   2.342   7.060  0.1412  0.0075 -0.0676
48369SOL    HW152222  10.434   2.250   7.085 -2.4039 -0.4729 -0.7734
48369SOL    HW252223  10.467   2.347   6.973  0.4234 -0.4326  0.0406
48370SOL     OW52224  10.167   1.727   0.193 -0.1661  0.1014 -0.7765
48370SOL    HW152225  10.261   1.725   0.175 -0.4276 -0.3947 -2.2998
48370SOL    HW252226  10.136   1.640   0.169 -1.0988  0.4459 -0.8938
48371SOL     OW52227  11.995   8.586   9.978 -0.1721  0.1031 -0.6987
48371SOL    HW152228  11.951   8.539  10.048  1.3641  2.3441  1.9712
48371SOL    HW252229  11.958   8.674   9.981  2.0754  1.1137 -0.5499
48372SOL     OW52230  11.218   8.111   0.327 -0.1475 -0.5088 -0.1491
48372SOL    HW152231  11.173   8.095   0.409  0.6418  1.6326  0.8029
48372SOL    HW252232  11.148   8.118   0.261 -0.9385 -0.3656  0.6932
48373SOL     OW52233   6.214  11.939  10.205  0.0356  0.1585 -0.5896
48373SOL    HW152234   6.190  11.937  10.112 -1.1803 -1.0737 -0.2705
48373SOL    HW252235   6.134  11.966  10.250  0.7619  1.2522  0.0763
48374SOL     OW52236   8.515  12.040   2.669 -0.0144 -0.0855 -0.2055
48374SOL    HW152237   8.518  12.072   2.760  0.1381 -0.6171 -0.0199
48374SOL    HW252238   8.597  11.992   2.658  0.4535  0.8720 -0.9645
48375SOL     OW52239   0.848   5.610  10.368 -0.5168 -0.2551  0.1043
48375SOL    HW152240   0.768   5.650  10.334 -1.1429 -1.2128  0.4082
48375SOL    HW252241   0.821   5.569  10.451  0.5114  0.2370  0.7074
48376SOL     OW52242   0.731   1.823   2.260  0.2369  0.1680  0.3821
48376SOL    HW152243   0.716   1.729   2.266 -0.9026  0.4108  2.0864
48376SOL    HW252244   0.786   1.843   2.336  0.7239  0.8542 -0.1341
48377SOL     OW52245  10.464   4.156   9.231  0.3321  0.4832 -0.0026
48377SOL    HW152246  10.408   4.210   9.287  0.1147  0.6092 -0.3383
48377SOL    HW252247  10.477   4.075   9.280 -0.5836  0.2346 -0.1493
48378SOL     OW52248   2.265   5.368  11.997  0.7476 -0.4267  0.2129
48378SOL    HW152249   2.204   5.431  11.957  1.7532  1.1265  1.0147
48378SOL    HW252250   2.213   5.323  12.063 -0.1849 -0.9799 -0.8730
48379SOL     OW52251   1.134  10.483   4.399  0.1384  0.4462 -0.6433
48379SOL    HW152252   1.136  10.573   4.433  0.0562  0.7388 -1.3920
48379SOL    HW252253   1.168  10.491   4.310 -1.4648  0.0135 -1.3346
48380SOL     OW52254   2.019   7.543   3.251  0.0796 -0.3158 -0.0038
48380SOL    HW152255   2.070   7.560   3.329  0.6727 -1.9911  0.0269
48380SOL    HW252256   1.936   7.507   3.284  0.5705 -1.6091 -0.1285
48381SOL     OW52257  10.029   5.295   9.089 -0.0540 -0.2452  0.2165
48381SOL    HW152258   9.962   5.363   9.100  1.0570  1.3352 -1.9568
48381SOL    HW252259  10.001   5.224   9.146 -2.1101  1.4244  1.4332
48382SOL     OW52260  12.726  11.727   9.993  0.3297  0.1656  0.0449
48382SOL    HW152261  12.656  11.789   9.976 -0.0180  0.7115  2.9392
48382SOL    HW252262  12.765  11.711   9.907 -0.0617  3.7540 -0.9671
48383SOL     OW52263   9.801  11.432   1.910 -0.7736 -0.0582  0.8773
48383SOL    HW152264   9.883  11.396   1.945 -0.5407 -0.8520 -0.3977
48383SOL    HW252265   9.785  11.510   1.962  0.5746 -0.1228  1.4382
48384SOL     OW52266   3.791   1.198   4.620  0.1880 -0.1285 -0.0575
48384SOL    HW152267   3.863   1.241   4.665 -0.6103 -0.4037  1.5600
48384SOL    HW252268   3.830   1.163   4.540  1.7865 -0.0883  0.6655
48385SOL     OW52269   0.203   8.924   9.597  0.8670  0.1385  0.3471
48385SOL    HW152270   0.133   8.860   9.609  1.5466 -0.6068  0.4569
48385SOL    HW252271   0.264   8.907   9.668  0.9597  1.0597  0.4982
48386SOL     OW52272   3.044   8.807   9.564  0.4074 -0.6543  0.1977
48386SOL    HW152273   3.110   8.830   9.498 -0.0938  1.2035  0.3064
48386SOL    HW252274   3.073   8.723   9.598  1.5771 -0.8708 -1.2295
48387SOL     OW52275  10.367  10.652   3.474 -0.2014 -0.4877 -0.1999
48387SOL    HW152276  10.277  10.672   3.498 -0.2778 -1.1678  0.1093
48387SOL    HW252277  10.391  10.721   3.412 -1.0409 -0.4896 -0.5424
48388SOL     OW52278   5.627   8.926   7.366  0.0787  0.3090 -0.3736
48388SOL    HW152279   5.614   8.964   7.279 -1.3711  0.9332  0.1003
48388SOL    HW252280   5.601   8.994   7.427 -1.5187 -1.0194  0.5163
48389SOL     OW52281   1.124   2.534   9.806 -0.3964  0.0934 -0.0372
48389SOL    HW152282   1.190   2.474   9.770 -0.6128  0.7189 -1.5400
48389SOL    HW252283   1.159   2.621   9.790  0.0269  0.4370  2.3587
48390SOL     OW52284   3.294   0.920   5.937 -0.0287  0.6524  0.4506
48390SOL    HW152285   3.315   0.967   6.018  1.0151  1.1562 -0.0872
48390SOL    HW252286   3.289   0.989   5.870  0.6086  0.1028 -0.1821
48391SOL     OW52287  12.465   8.294  10.531  0.3866 -0.3168  0.3760
48391SOL    HW152288  12.446   8.200  10.536  0.1739 -0.2552  0.7486
48391SOL    HW252289  12.418   8.332  10.605  1.0666 -0.0120  0.6583
48392SOL     OW52290   4.458   9.706   4.972  0.2285 -0.3464  0.6888
48392SOL    HW152291   4.459   9.789   4.925 -1.1134 -1.3326 -1.2298
48392SOL    HW252292   4.544   9.668   4.955 -0.2804 -0.7513 -1.2240
48393SOL     OW52293  11.059   1.853   5.352  0.3593 -0.0062 -0.2174
48393SOL    HW152294  11.146   1.864   5.313 -0.2454  0.3810 -1.5153
48393SOL    HW252295  11.006   1.922   5.312 -0.9001 -1.1415 -0.5652
48394SOL     OW52296   1.087   0.148   5.826  0.3621 -0.1711  0.7130
48394SOL    HW152297   1.026   0.192   5.885  1.5211  1.5372  0.7320
48394SOL    HW252298   1.046   0.064   5.806 -0.2932 -0.6365  3.5964
48395SOL     OW52299  10.121   4.801  11.454  0.8100 -0.3824  0.5544
48395SOL    HW152300  10.127   4.895  11.435  0.9621 -0.7088 -1.0951
48395SOL    HW252301  10.163   4.758  11.380  1.5203 -1.7466  1.6876
48396SOL     OW52302   1.241   3.267   7.414 -0.0779 -0.1359  0.1859
48396SOL    HW152303   1.319   3.321   7.402  1.1689 -1.2798  2.4668
48396SOL    HW252304   1.194   3.308   7.486  0.4440 -1.5375  1.3692
48397SOL     OW52305   0.530  12.435  10.256  0.1508  0.3058 -0.1104
48397SOL    HW152306   0.437  12.452  10.272  0.5277  3.4057 -0.6591
48397SOL    HW252307   0.563  12.404  10.341 -1.9405 -4.7929 -0.7801
48398SOL     OW52308   4.693   1.983   3.978 -0.2362  0.4368  0.4274
48398SOL    HW152309   4.609   1.949   3.946 -0.7144  1.3860  0.6207
48398SOL    HW252310   4.758   1.948   3.918 -0.7790 -0.2964  0.2603
48399SOL     OW52311   7.559   5.851  12.172 -0.8470  0.0802  0.4807
48399SOL    HW152312   7.552   5.811  12.086 -1.5419  0.4334  0.3641
48399SOL    HW252313   7.510   5.793  12.230  1.0015 -1.0594  0.9828
48400SOL     OW52314   9.578   1.291   8.095  0.3600  0.1209  0.6422
48400SOL    HW152315   9.513   1.306   8.165 -1.0800  1.1529 -0.8480
48400SOL    HW252316   9.532   1.313   8.014  1.7465 -1.7041 -0.7442
48401SOL     OW52317   7.342   8.787   1.206  0.0811 -0.5013 -0.0378
48401SOL    HW152318   7.394   8.736   1.269  0.6746  0.6987  0.4814
48401SOL    HW252319   7.402   8.855   1.176 -0.7271 -0.0441 -0.6353
48402SOL     OW52320   5.773  11.232   1.797  0.0075 -0.0831 -0.1597
48402SOL    HW152321   5.821  11.313   1.815  0.6376 -0.2432 -1.0639
48402SOL    HW252322   5.746  11.240   1.705  0.8262 -1.2572 -0.5312
48403SOL     OW52323   8.687   3.026   7.898 -0.1418  0.7626  0.0189
48403SOL    HW152324   8.761   3.000   7.843 -0.6233  1.6732 -1.1166
48403SOL    HW252325   8.668   2.948   7.951  1.2424  0.3254 -0.0729
48404SOL     OW52326   6.487   5.936   4.101  0.8547 -0.0934 -0.1228
48404SOL    HW152327   6.393   5.924   4.114  0.9776 -0.9755  0.0554
48404SOL    HW252328   6.526   5.912   4.186  1.2772 -0.3607 -0.3855
48405SOL     OW52329   9.737   3.051   9.694 -0.5447 -0.1004  0.1903
48405SOL    HW152330   9.688   3.074   9.615  0.3396  0.9364 -0.0670
48405SOL    HW252331   9.762   3.134   9.733  2.0540 -0.5330 -0.3418
48406SOL     OW52332   2.917   8.450  11.941  0.4451 -0.2908  0.0605
48406SOL    HW152333   2.854   8.521  11.956  1.3798  0.6393 -0.2397
48406SOL    HW252334   2.946   8.463  11.851  0.8879 -0.8390  0.1201
48407SOL     OW52335   6.148  10.276  12.199 -0.9086  0.2319 -0.6788
48407SOL    HW152336   6.135  10.334  12.124  0.0958  1.1283 -0.1958
48407SOL    HW252337   6.119  10.328  12.274 -1.6754 -0.5660 -0.4106
48408SOL     OW52338   0.709   2.146   4.317  0.2293 -0.3684 -0.3234
48408SOL    HW152339   0.708   2.223   4.260 -1.1482  0.7027  1.0450
48408SOL    HW252340   0.765   2.171   4.390 -0.6646 -0.4239  0.3961
48409SOL     OW52341   2.825   8.508   3.481  0.5023 -0.0515 -0.2956
48409SOL    HW152342   2.846   8.416   3.499 -0.1632  0.0949  1.5019
48409SOL    HW252343   2.872   8.529   3.400 -0.1589 -2.2493 -1.3014
48410SOL     OW52344   3.468   3.241  11.732  0.0063  0.3027  0.2931
48410SOL    HW152345   3.514   3.214  11.653  1.1086  1.7085  0.4078
48410SOL    HW252346   3.397   3.178  11.742  0.5365 -0.5633 -1.1777
48411SOL     OW52347   3.699   9.705   4.211 -0.0895 -0.3392 -0.2507
48411SOL    HW152348   3.735   9.791   4.231 -1.0150 -0.2262  1.0142
48411SOL    HW252349   3.663   9.673   4.294 -2.3343 -0.7064 -1.2935
48412SOL     OW52350   8.767   3.784   7.060 -0.2526  0.6432 -0.2403
48412SOL    HW152351   8.726   3.697   7.058  2.4415 -0.7119 -0.8623
48412SOL    HW252352   8.861   3.766   7.059  0.4235  3.5629  1.4031
48413SOL     OW52353   4.759   6.174   9.105 -0.0423 -0.5355  0.4855
48413SOL    HW152354   4.854   6.185   9.098 -0.1598 -0.2980 -1.0130
48413SOL    HW252355   4.748   6.093   9.154  0.9055  0.3467  2.2712
48414SOL     OW52356  11.253  11.999   2.879 -0.2508 -0.3541  0.6733
48414SOL    HW152357  11.298  12.081   2.859  0.8220 -0.5294  2.2021
48414SOL    HW252358  11.164  12.026   2.905 -1.3300 -0.0373 -2.8120
48415SOL     OW52359  10.537  11.640   9.568  0.1306 -0.4649 -1.0988
48415SOL    HW152360  10.620  11.679   9.542 -0.1893  0.5708 -0.6230
48415SOL    HW252361  10.488  11.712   9.608 -0.6116 -1.2809 -0.4869
48416SOL     OW52362   7.758   7.822   1.580 -0.3342 -0.7661  0.3019
48416SOL    HW152363   7.718   7.859   1.501 -0.9321 -0.9261  0.5231
48416SOL    HW252364   7.841   7.786   1.550 -0.7513 -1.2106 -0.3440
48417SOL     OW52365   8.826   3.085   7.632  0.1757 -0.1052  0.0289
48417SOL    HW152366   8.748   3.050   7.590 -0.8256  1.0614  0.8532
48417SOL    HW252367   8.861   3.011   7.682 -0.8488 -0.4529  0.2614
48418SOL     OW52368  12.670   6.329   1.336  1.1121  0.2214 -0.6111
48418SOL    HW152369  12.583   6.306   1.303 -0.3069  1.9636  1.5965
48418SOL    HW252370  12.698   6.252   1.385  0.2620  0.0396 -0.3905
48419SOL     OW52371   5.099  11.443   2.020  0.3923  0.3293  0.0473
48419SOL    HW152372   5.062  11.505   1.958  1.4797  0.5197 -0.4256
48419SOL    HW252373   5.040  11.368   2.017 -0.5847  1.0767  0.1644
48420SOL     OW52374  12.020   7.390   1.292 -0.4200  0.5280  0.3814
48420SOL    HW152375  12.021   7.300   1.323 -2.3340  0.5608  0.6463
48420SOL    HW252376  12.034   7.383   1.197  1.1058  0.1029  0.6231
48421SOL     OW52377   2.975   1.937  12.126  0.0423  0.2346 -0.1346
48421SOL    HW152378   2.939   1.895  12.048  1.1605  1.5052 -1.3867
48421SOL    HW252379   3.070   1.928  12.116  0.2332  1.4374  0.4822
48422SOL     OW52380   3.583   3.690  10.696 -0.2662 -1.2191  0.2251
48422SOL    HW152381   3.559   3.633  10.623 -0.6386  1.0095 -1.5376
48422SOL    HW252382   3.530   3.659  10.769 -1.1170 -2.5443 -0.8918
48423SOL     OW52383  10.713   4.918  10.964 -0.1835  0.1390 -0.4617
48423SOL    HW152384  10.701   4.825  10.982  1.1671  0.0746  0.1800
48423SOL    HW252385  10.658   4.962  11.028  0.7872 -0.1955  0.6370
48424SOL     OW52386  10.330   7.310   6.634 -0.2999  0.3845 -0.3107
48424SOL    HW152387  10.304   7.229   6.677 -0.2168  0.9796  0.8927
48424SOL    HW252388  10.260   7.373   6.653  0.1995  0.9308 -0.2336
48425SOL     OW52389   2.193   4.705  12.401  0.2548 -0.2071  0.0795
48425SOL    HW152390   2.281   4.666  12.403  0.2468 -0.2032  0.6327
48425SOL    HW252391   2.208   4.798  12.386  0.4330  0.0294  1.5863
48426SOL     OW52392   7.749   5.162   4.862 -0.0643 -0.0804 -0.1722
48426SOL    HW152393   7.758   5.251   4.898 -2.1030 -0.4311  1.4049
48426SOL    HW252394   7.810   5.160   4.788 -1.1113  3.1651 -1.3049
48427SOL     OW52395   5.708   1.183   3.449  0.1512 -0.2301 -0.4183
48427SOL    HW152396   5.669   1.096   3.453 -0.0041 -0.3583 -2.9155
48427SOL    HW252397   5.784   1.178   3.507 -0.6940 -1.5270  0.6501
48428SOL     OW52398   4.565   0.918  10.462  0.0698  0.0043  0.1448
48428SOL    HW152399   4.586   0.982  10.530  2.7467  0.0663 -0.6486
48428SOL    HW252400   4.594   0.957  10.380 -1.9372 -0.6069 -0.9424
48429SOL     OW52401   9.179   4.004   2.128 -0.0081  0.3167  0.3047
48429SOL    HW152402   9.267   3.967   2.130  0.1204  0.6388  0.6839
48429SOL    HW252403   9.191   4.097   2.148 -0.6663 -0.0519  2.7182
48430SOL     OW52404  12.922   8.622  11.793 -0.5058 -0.0533 -0.3409
48430SOL    HW152405  12.892   8.536  11.765 -0.2619 -0.4327  0.5290
48430SOL    HW252406  12.900   8.626  11.886 -0.5877  0.8548 -0.3936
48431SOL     OW52407   2.634  10.107   4.272  0.4941 -0.3746  0.3065
48431SOL    HW152408   2.620  10.198   4.297 -1.5971 -0.5698  0.0947
48431SOL    HW252409   2.573  10.093   4.199  0.4094 -2.0635  0.6621
48432SOL     OW52410   9.488   5.638   3.203  0.3508  0.0772 -0.0902
48432SOL    HW152411   9.570   5.666   3.244  0.3736  0.2924 -0.2830
48432SOL    HW252412   9.441   5.592   3.273  1.1921 -1.1903 -0.3206
48433SOL     OW52413   2.204   0.488  11.261  0.2535  0.2007 -0.6627
48433SOL    HW152414   2.191   0.561  11.199 -3.1992  0.4504  0.1563
48433SOL    HW252415   2.133   0.428  11.241  0.2182 -0.6537  1.7816
48434SOL     OW52416   0.151  11.281   2.197  0.2921 -0.0568  0.4465
48434SOL    HW152417   0.093  11.208   2.175  0.2478 -0.5075  1.9973
48434SOL    HW252418   0.236  11.241   2.212  0.7246  0.4522 -0.5022
48435SOL     OW52419  12.151   9.349   0.441 -0.5424 -0.1895 -0.3450
48435SOL    HW152420  12.183   9.356   0.531 -0.1684  0.2212 -0.5042
48435SOL    HW252421  12.227   9.372   0.387 -1.1825  1.1751 -0.7217
48436SOL     OW52422   7.313   0.243   9.757  0.0077  0.1514 -0.7055
48436SOL    HW152423   7.237   0.298   9.740  0.3244  0.7676 -0.1849
48436SOL    HW252424   7.344   0.218   9.670 -0.5721  0.1881 -0.9291
48437SOL     OW52425   8.178   2.199   7.114  0.1923 -0.5359 -0.0194
48437SOL    HW152426   8.180   2.104   7.125 -0.5111 -0.6054 -0.4446
48437SOL    HW252427   8.151   2.232   7.200 -3.8992 -1.0054 -0.9082
48438SOL     OW52428   4.486  10.293   4.975  0.6272 -0.2948  0.2564
48438SOL    HW152429   4.491  10.368   5.034 -2.1958 -0.3058  0.6486
48438SOL    HW252430   4.477  10.218   5.033  0.3255 -0.5787 -0.1548
48439SOL     OW52431   3.819   0.385  11.884 -0.4173 -0.1704 -0.3276
48439SOL    HW152432   3.747   0.405  11.824 -0.2980 -1.7650 -1.0507
48439SOL    HW252433   3.898   0.401  11.832 -0.2967 -0.4534 -0.2323
48440SOL     OW52434   2.129  10.944  10.497  0.1074 -0.3324  0.0682
48440SOL    HW152435   2.148  10.860  10.537  1.2698 -0.1152  0.0133
48440SOL    HW252436   2.158  11.009  10.562  0.2642  0.0168 -0.3393
48441SOL     OW52437   0.410   3.217   5.880 -0.4448 -0.1834 -0.7141
48441SOL    HW152438   0.473   3.223   5.952  1.4562 -1.8744 -2.1054
48441SOL    HW252439   0.332   3.262   5.912  1.3938  1.8847  1.1741
48442SOL     OW52440   5.105   6.330   4.725 -0.6912  0.0253 -0.0129
48442SOL    HW152441   5.123   6.419   4.694  1.6215 -0.0389  0.9010
48442SOL    HW252442   5.108   6.276   4.646 -0.8577  0.6035 -0.4218
48443SOL     OW52443   3.712   0.546   8.713  0.6295 -0.1225  0.7430
48443SOL    HW152444   3.766   0.581   8.643  1.2507  1.4553  1.9629
48443SOL    HW252445   3.638   0.505   8.668  2.3687 -1.6392 -0.9332
48444SOL     OW52446   6.424  12.318   0.945 -0.3976  0.3597 -0.6492
48444SOL    HW152447   6.342  12.271   0.954 -1.2412  1.8835 -0.0663
48444SOL    HW252448   6.402  12.397   0.896  0.5083  1.2480  0.3026
48445SOL     OW52449  12.740   1.667  10.127 -0.1815 -0.2914 -0.3767
48445SOL    HW152450  12.824   1.639  10.090 -0.2851 -1.4276  0.1879
48445SOL    HW252451  12.682   1.593  10.112 -0.6189 -0.1907  0.7151
48446SOL     OW52452   5.417  11.185   2.527  0.4949  0.2144  0.0153
48446SOL    HW152453   5.392  11.136   2.449 -0.6239  0.3953  0.2371
48446SOL    HW252454   5.341  11.178   2.585  1.0974  0.5390  0.8624
48447SOL     OW52455   3.034  11.115   1.215  0.0362 -0.1830  0.2268
48447SOL    HW152456   3.104  11.144   1.273 -0.0976  1.6161 -0.4579
48447SOL    HW252457   2.955  11.119   1.269  0.0547  0.5048  0.2001
48448SOL     OW52458   1.720   6.304  10.360  0.7624  0.4381 -0.0239
48448SOL    HW152459   1.691   6.354  10.437 -1.3987 -0.9246  0.1320
48448SOL    HW252460   1.696   6.359  10.286 -2.4816 -0.5975  0.0998
48449SOL     OW52461   4.215   2.627   6.805 -0.5965  0.5567 -0.0276
48449SOL    HW152462   4.238   2.700   6.747 -1.3665 -0.1284 -1.2432
48449SOL    HW252463   4.159   2.571   6.751 -1.1602 -0.2232  1.3293
48450SOL     OW52464   6.978   0.474   3.480  0.0096 -0.5589  0.1532
48450SOL    HW152465   7.050   0.490   3.420 -1.2178  1.0318 -0.9955
48450SOL    HW252466   6.982   0.380   3.500  2.5398 -0.4537  0.3980
48451SOL     OW52467   6.537  12.484   8.528  0.2532 -0.6499 -0.5637
48451SOL    HW152468   6.566  12.411   8.474  1.3243 -0.0752 -0.8045
48451SOL    HW252469   6.557  12.562   8.475 -1.2360 -0.1937 -0.4932
48452SOL     OW52470   6.431  10.229   9.011  0.1510 -0.0691 -0.3407
48452SOL    HW152471   6.395  10.308   8.970  1.9407  1.6582  1.2461
48452SOL    HW252472   6.433  10.249   9.105 -1.7219 -3.0257  0.4727
48453SOL     OW52473  12.786  10.187  11.799 -0.8484 -0.1102 -0.3201
48453SOL    HW152474  12.745  10.102  11.783 -1.3923  0.0586  0.1557
48453SOL    HW252475  12.866  10.186  11.746 -0.6331 -1.0811  0.0102
48454SOL     OW52476   0.372   9.528  12.378  0.6499 -0.4990  0.0602
48454SOL    HW152477   0.384   9.623  12.370  0.6460 -0.4324  0.7666
48454SOL    HW252478   0.365   9.497  12.288 -0.7475  0.3464 -0.1438
48455SOL     OW52479   3.869  12.790   3.804  0.7550 -0.0654  0.2694
48455SOL    HW152480   3.791  12.790   3.859  0.1522  1.3837 -0.5323
48455SOL    HW252481   3.846  12.734   3.730  0.3094  0.6757 -0.1633
48456SOL     OW52482  11.720   1.119   0.369 -0.7473 -0.3502 -0.1741
48456SOL    HW152483  11.657   1.163   0.312 -1.1014  1.8813  1.7659
48456SOL    HW252484  11.720   1.171   0.449  0.7492 -2.5264  1.3559
48457SOL     OW52485   6.863   1.545   6.223 -0.0812 -0.2972 -1.0627
48457SOL    HW152486   6.777   1.512   6.248 -0.2219  0.3335 -0.6858
48457SOL    HW252487   6.845   1.611   6.156  0.1413 -0.4628 -1.2896
48458SOL     OW52488   7.198   8.063   1.800 -0.1055 -0.0595  0.2109
48458SOL    HW152489   7.232   8.141   1.842  1.2985 -0.4017 -0.2461
48458SOL    HW252490   7.269   7.999   1.806  0.7069  0.1972 -3.6046
48459SOL     OW52491   3.856   1.444   3.458  0.1483 -0.4882  0.0897
48459SOL    HW152492   3.934   1.443   3.513 -1.1194 -0.4256  1.9838
48459SOL    HW252493   3.876   1.508   3.389  0.4979  2.2972  2.5592
48460SOL     OW52494   0.245   6.007  10.123 -0.2851 -0.0165 -0.0656
48460SOL    HW152495   0.271   5.915  10.131 -0.3465  0.0316  0.7825
48460SOL    HW252496   0.318   6.049  10.078  0.5760 -0.1333  1.1665
48461SOL     OW52497   0.250   7.197   0.600  0.2573 -0.4332 -0.7473
48461SOL    HW152498   0.190   7.141   0.551  0.5056  0.2688 -1.9145
48461SOL    HW252499   0.211   7.206   0.686 -2.7314  2.0064 -2.1564
48462SOL     OW52500   8.482  10.380   7.816  0.4993  0.2147 -0.4762
48462SOL    HW152501   8.443  10.324   7.883  0.7747  0.4648 -0.1051
48462SOL    HW252502   8.574  10.386   7.840  0.0896  2.6619  0.8127
48463SOL     OW52503   9.707   8.062   5.161  0.0031  0.2209 -0.3835
48463SOL    HW152504   9.634   8.023   5.207  0.6448  0.5613  0.9701
48463SOL    HW252505   9.731   7.998   5.094 -1.4045  0.0390 -0.7273
48464SOL     OW52506   3.557  12.381   2.647 -0.2682 -0.1576  0.2887
48464SOL    HW152507   3.487  12.318   2.627 -0.8994  0.9321 -1.1718
48464SOL    HW252508   3.632  12.349   2.597 -0.4528 -0.0208 -0.0846
48465SOL     OW52509  12.541  10.349   9.287 -0.2321 -0.2994  0.3284
48465SOL    HW152510  12.519  10.424   9.231 -1.4212 -0.0155  1.1248
48465SOL    HW252511  12.619  10.377   9.335 -0.3729  0.2388  0.2491
48466SOL     OW52512   0.312   7.261   4.279  0.4402  0.8828  0.2163
48466SOL    HW152513   0.367   7.303   4.345 -1.6951  0.7376  2.1938
48466SOL    HW252514   0.268   7.191   4.326  1.1158 -1.2446 -2.1459
48467SOL     OW52515   7.222   9.485   7.463  0.3070  0.2064 -0.3475
48467SOL    HW152516   7.230   9.578   7.484  1.3206 -0.3482  2.1351
48467SOL    HW252517   7.296   9.468   7.404 -0.5723  1.1693 -1.7717
48468SOL     OW52518   5.748  12.776   4.023  0.4076 -0.3675  0.3530
48468SOL    HW152519   5.682  12.780   3.953  0.8012  0.5052  0.0074
48468SOL    HW252520   5.709  12.825   4.095 -0.1039 -1.4863  0.8532
48469SOL     OW52521  10.818  12.637  11.096  0.0152 -0.3763  0.1955
48469SOL    HW152522  10.736  12.654  11.143 -0.9566 -2.3195 -0.6753
48469SOL    HW252523  10.816  12.544  11.077  2.2957 -0.4120 -0.1746
48470SOL     OW52524   4.677  11.559  10.010 -0.0682 -0.5543  0.2024
48470SOL    HW152525   4.737  11.631   9.991  0.0039 -0.5006  0.6409
48470SOL    HW252526   4.617  11.593  10.077  0.0323 -0.9348  0.4895
48471SOL     OW52527   7.984  10.864   9.921 -0.0829 -0.4418 -0.4270
48471SOL    HW152528   8.006  10.792   9.979 -0.1404  0.2067  0.4124
48471SOL    HW252529   8.062  10.876   9.867 -0.3417 -1.6199 -1.1147
48472SOL     OW52530   6.819   1.815   6.906 -0.5539  0.1416  0.1661
48472SOL    HW152531   6.873   1.854   6.837  0.1184 -0.9380  0.0656
48472SOL    HW252532   6.729   1.839   6.882 -0.1826  1.5451  0.0713
48473SOL     OW52533   0.277  12.374  10.862  0.3220  0.1273 -0.3844
48473SOL    HW152534   0.190  12.341  10.837 -0.5115  0.4861  1.7920
48473SOL    HW252535   0.294  12.444  10.800 -1.5887  0.9643 -0.0525
48474SOL     OW52536   8.684   7.850   2.589  0.5838 -0.1272 -0.3246
48474SOL    HW152537   8.702   7.790   2.662  0.9682  0.4727  0.0919
48474SOL    HW252538   8.766   7.851   2.539  1.6053  2.0812  1.1864
48475SOL     OW52539   2.008   0.700   4.700  0.3576  0.1554  0.8795
48475SOL    HW152540   2.067   0.755   4.649 -0.4693  1.0996  0.9014
48475SOL    HW252541   1.950   0.762   4.744 -1.5275 -0.7469 -0.1916
48476SOL     OW52542   1.161  11.473   4.374  0.7306  0.5107  0.4152
48476SOL    HW152543   1.130  11.420   4.301  0.1663  0.1947  0.8654
48476SOL    HW252544   1.226  11.418   4.418 -0.2553 -0.0747  1.2091
48477SOL     OW52545   3.989  12.536   9.348  0.2581  0.0751  0.0265
48477SOL    HW152546   3.979  12.598   9.420  0.4563  1.4261 -1.0562
48477SOL    HW252547   4.001  12.592   9.271  0.4191 -1.3287 -0.9933
48478SOL     OW52548   5.731   0.603  10.212 -0.1010  0.0113  0.1992
48478SOL    HW152549   5.804   0.662  10.193 -1.3690  2.0161  1.1463
48478SOL    HW252550   5.743   0.578  10.304 -0.4948  0.1925  0.3013
48479SOL     OW52551  10.903   8.652   4.452 -0.1432  0.3833 -1.5462
48479SOL    HW152552  10.873   8.570   4.413 -2.0289  0.6967 -0.8565
48479SOL    HW252553  10.869   8.721   4.395 -2.7445  0.8385  0.3413
48480SOL     OW52554   8.187   5.659   2.890 -0.0053  0.0772 -0.2309
48480SOL    HW152555   8.140   5.585   2.851 -0.5524 -0.0862  0.7111
48480SOL    HW252556   8.274   5.625   2.910 -0.0226 -0.1049 -0.4607
48481SOL     OW52557  11.797   4.601   8.221  0.2562  0.2912  0.0251
48481SOL    HW152558  11.704   4.579   8.226  0.0775  1.0891  0.4824
48481SOL    HW252559  11.800   4.695   8.243  1.1006  0.4123 -0.5776
48482SOL     OW52560   1.339   8.349   8.942  0.4379 -0.8878 -0.6839
48482SOL    HW152561   1.385   8.398   8.874  1.0202 -1.1710 -0.4982
48482SOL    HW252562   1.394   8.272   8.958  1.7516  0.4901  2.0205
48483SOL     OW52563  12.823   0.703   0.985  0.0297 -0.0789  0.3423
48483SOL    HW152564  12.751   0.760   0.959 -0.5426 -0.4358  1.1278
48483SOL    HW252565  12.800   0.618   0.948  0.0883 -0.1802  0.5411
48484SOL     OW52566  12.398   9.609  10.263 -0.5788 -0.0450 -0.2364
48484SOL    HW152567  12.316   9.632  10.218 -0.3030  0.5647 -0.4286
48484SOL    HW252568  12.436   9.539  10.209 -1.0022 -0.3838 -0.1057
48485SOL     OW52569   3.700   0.836   1.855  0.1495  0.3933 -0.3517
48485SOL    HW152570   3.609   0.829   1.885  0.4942 -1.0906  0.4582
48485SOL    HW252571   3.751   0.844   1.936  0.7844  0.7362 -0.7812
48486SOL     OW52572  12.588  11.874  11.338 -0.1715  0.0602 -0.0502
48486SOL    HW152573  12.645  11.824  11.279  0.4092 -0.5684  1.0023
48486SOL    HW252574  12.649  11.910  11.404 -1.0054 -0.9097  1.2995
48487SOL     OW52575   0.818  11.652   9.376 -0.1025 -0.4927 -0.1305
48487SOL    HW152576   0.737  11.606   9.354 -1.0422  0.6943  0.7078
48487SOL    HW252577   0.868  11.654   9.294 -1.5466 -0.0019 -1.0203
48488SOL     OW52578  10.696   7.090   2.836 -0.0032 -0.3513 -0.0858
48488SOL    HW152579  10.784   7.113   2.804  0.0382  1.4788  1.1815
48488SOL    HW252580  10.637   7.116   2.765  0.3629 -0.0097 -0.2723
48489SOL     OW52581   0.606   1.832   4.788  0.6615 -0.2789  0.8560
48489SOL    HW152582   0.602   1.736   4.778  1.8493 -0.1305 -1.9989
48489SOL    HW252583   0.616   1.865   4.699 -1.5125  2.6810  1.5715
48490SOL     OW52584   2.135   2.851   0.304 -0.0968 -0.5530  0.3178
48490SOL    HW152585   2.054   2.803   0.323  0.2299 -0.3361  2.4916
48490SOL    HW252586   2.147   2.909   0.379  1.4270  0.3423 -0.5589
48491SOL     OW52587   8.924   7.432   4.278  0.4693 -0.3807  0.0915
48491SOL    HW152588   8.933   7.339   4.255  0.2618 -0.4719  0.3693
48491SOL    HW252589   8.855   7.464   4.220  2.1470  0.1992 -1.6934
48492SOL     OW52590   9.663   2.509   6.403 -0.2848  0.6292 -0.0422
48492SOL    HW152591   9.694   2.419   6.413 -0.9775  0.3775 -0.1285
48492SOL    HW252592   9.569   2.501   6.389 -0.2368  1.3242 -0.8138
48493SOL     OW52593   8.933   1.409  11.061 -0.1304 -0.0631 -0.4904
48493SOL    HW152594   8.956   1.460  11.139 -2.1062  0.5958 -0.2848
48493SOL    HW252595   8.856   1.454  11.025  0.5887 -0.4777 -2.7086
48494SOL     OW52596  10.697   5.585   6.357  0.4763 -0.0443  0.0921
48494SOL    HW152597  10.682   5.577   6.451 -1.4767  0.6338 -0.1183
48494SOL    HW252598  10.610   5.593   6.319  1.1942 -0.8054 -1.8507
48495SOL     OW52599   6.825  10.755  12.831 -0.4438  0.2381 -0.4703
48495SOL    HW152600   6.827  10.813  12.908 -1.5369 -0.5170  0.1580
48495SOL    HW252601   6.756  10.792  12.775  1.0921  1.4373 -1.6636
48496SOL     OW52602  10.632   8.083   4.753 -0.1503  0.1404 -0.1359
48496SOL    HW152603  10.688   8.071   4.829  0.2259 -0.8665 -0.5535
48496SOL    HW252604  10.544   8.059   4.783 -0.2533  1.0267  0.3209
48497SOL     OW52605  10.882   7.053  11.453 -0.2551 -0.1253 -0.4440
48497SOL    HW152606  10.965   7.011  11.429 -0.2680 -0.2064 -0.3477
48497SOL    HW252607  10.820   7.023  11.387 -0.3875 -0.6875 -0.0731
48498SOL     OW52608   2.273  12.429  10.651  0.2871  0.0815  0.0313
48498SOL    HW152609   2.197  12.374  10.667  1.6641 -2.5563 -1.6999
48498SOL    HW252610   2.337  12.400  10.716  1.3873 -1.2346 -1.5681
48499SOL     OW52611   5.396   5.379   8.043 -0.0662  0.3553 -1.0150
48499SOL    HW152612   5.358   5.456   7.999 -1.1327 -0.9770 -2.5848
48499SOL    HW252613   5.442   5.332   7.973  1.7209  0.2051  0.1929
48500SOL     OW52614   0.591   2.223  12.805 -0.1729  0.2567  0.0810
48500SOL    HW152615   0.503   2.213  12.840  0.3754  0.5798  1.5958
48500SOL    HW252616   0.643   2.256  12.878  1.4470 -0.9149 -0.4956
48501SOL     OW52617   7.147   2.897   8.602  0.7575  0.4318 -0.4617
48501SOL    HW152618   7.160   2.812   8.559  1.1998  1.6761 -2.9926
48501SOL    HW252619   7.058   2.922   8.578  0.5844  0.6429  0.3832
48502SOL     OW52620   6.801   2.377   7.307 -0.5180 -0.1582  0.2529
48502SOL    HW152621   6.838   2.341   7.387  0.4899  0.4693  0.0893
48502SOL    HW252622   6.745   2.307   7.273 -0.2161 -0.7866  1.0112
48503SOL     OW52623  10.146  10.960   7.323 -0.2269 -0.2525  0.2476
48503SOL    HW152624  10.159  10.873   7.286 -0.6365 -0.6841  1.0986
48503SOL    HW252625  10.220  11.011   7.291  1.8454 -1.7651  2.3435
48504SOL     OW52626   7.347   8.055  12.900  0.0905 -0.5165 -0.2906
48504SOL    HW152627   7.284   8.047  12.972 -1.8762  2.0875 -1.5432
48504SOL    HW252628   7.409   8.122  12.929  1.2941 -1.8081  0.2219
48505SOL     OW52629   3.828   7.163   6.199 -0.4080  0.2141 -0.1825
48505SOL    HW152630   3.802   7.254   6.214  0.1908  0.7348 -1.9819
48505SOL    HW252631   3.855   7.131   6.285  0.0114  1.9453  0.3668
48506SOL     OW52632   7.226   3.467   1.328 -0.2849  0.4661  0.8148
48506SOL    HW152633   7.209   3.561   1.317  0.3438  0.4337 -0.6596
48506SOL    HW252634   7.183   3.445   1.410 -0.5621  2.0198  1.1307
48507SOL     OW52635  10.113   2.232   9.921  0.4690  0.1672  0.0916
48507SOL    HW152636  10.042   2.225   9.985  0.5873 -1.2803  0.1181
48507SOL    HW252637  10.183   2.277   9.968  0.0415  0.4192  0.4961
48508SOL     OW52638   8.818  12.037   1.918 -0.2872 -0.1524 -0.1222
48508SOL    HW152639   8.815  11.970   1.987  1.1296 -0.7114 -0.5868
48508SOL    HW252640   8.807  12.120   1.966  1.6383 -0.4485  0.9500
48509SOL     OW52641  12.326   4.632  10.811 -0.7133  0.3588 -0.2841
48509SOL    HW152642  12.319   4.538  10.823 -0.4305  0.5538  1.6887
48509SOL    HW252643  12.367   4.642  10.725 -0.9902 -1.2921 -0.6381
48510SOL     OW52644  11.598  10.866   0.556 -0.4805  0.7346 -0.5615
48510SOL    HW152645  11.547  10.815   0.493  1.0536 -1.5060 -0.0889
48510SOL    HW252646  11.543  10.867   0.635  0.1656 -1.8694  0.0277
48511SOL     OW52647   1.969   8.432   6.369 -0.4414 -0.0924  0.0050
48511SOL    HW152648   2.017   8.392   6.296  0.2988 -0.6694  0.7981
48511SOL    HW252649   2.037   8.460   6.430 -1.0847 -0.3939  0.8743
48512SOL     OW52650  10.345   5.869   7.362 -0.5345  0.4535  0.0138
48512SOL    HW152651  10.413   5.912   7.413  0.1357 -0.0071 -0.4758
48512SOL    HW252652  10.337   5.782   7.401  0.7496 -0.2985 -1.3053
48513SOL     OW52653   8.822  12.154   1.664 -0.4759 -0.1113 -0.2628
48513SOL    HW152654   8.855  12.131   1.751 -1.8053 -1.0082  0.0289
48513SOL    HW252655   8.731  12.181   1.679 -0.1565  1.5728 -1.1398
48514SOL     OW52656   7.933  11.291  10.863 -0.6892  0.6732 -0.3347
48514SOL    HW152657   7.930  11.207  10.908  2.5255  1.4634  1.6827
48514SOL    HW252658   7.867  11.344  10.906 -0.9847 -0.0630  0.1297
48515SOL     OW52659   1.627   9.005   9.415 -0.4694  0.0444 -0.1525
48515SOL    HW152660   1.654   9.008   9.507  1.1563 -1.8055 -0.4874
48515SOL    HW252661   1.546   9.056   9.411 -0.9029 -0.3188  2.4187
48516SOL     OW52662   3.746   9.780   1.507 -0.2813 -0.4710  1.1885
48516SOL    HW152663   3.681   9.829   1.456  1.2532 -1.7118 -2.3450
48516SOL    HW252664   3.715   9.690   1.505  1.6606 -1.2037 -1.1202
48517SOL     OW52665   6.584  10.329   3.601  0.2238  0.4292  0.1602
48517SOL    HW152666   6.581  10.267   3.528  1.2191  1.9852 -1.2955
48517SOL    HW252667   6.601  10.275   3.678  0.4497 -1.1553 -0.9441
48518SOL     OW52668   8.937  10.881  10.087 -0.3405  0.1001  0.0385
48518SOL    HW152669   8.889  10.804  10.056 -1.7898  0.4787  1.1905
48518SOL    HW252670   8.926  10.879  10.182  2.8982 -0.3604  0.4906
48519SOL     OW52671   0.563   9.606   5.194 -0.1236  0.2773 -0.2731
48519SOL    HW152672   0.579   9.607   5.288 -1.0849  1.2880 -0.1094
48519SOL    HW252673   0.536   9.516   5.175 -1.2447  0.3951  0.6595
48520SOL     OW52674   0.129  11.210  12.919 -0.5972  0.3489 -0.1402
48520SOL    HW152675   0.101  11.199  12.828 -3.1463  0.2314  0.5798
48520SOL    HW252676   0.203  11.270  12.915 -0.2124 -0.1873 -2.3202
48521SOL     OW52677   4.591   6.551  12.616 -0.1543  0.2834 -0.7672
48521SOL    HW152678   4.659   6.569  12.551 -0.4681 -1.4124 -1.6173
48521SOL    HW252679   4.590   6.456  12.625 -0.2783  0.4399  1.5873
48522SOL     OW52680   1.421  12.536   3.616 -0.1333 -0.1934 -0.2754
48522SOL    HW152681   1.377  12.452   3.603  1.2087 -0.8759 -0.6123
48522SOL    HW252682   1.511  12.520   3.587 -0.4900  2.1283 -3.1197
48523SOL     OW52683   1.218   6.607   6.761 -0.4193  0.8622 -0.1074
48523SOL    HW152684   1.299   6.586   6.805 -1.4708 -0.8853  1.1075
48523SOL    HW252685   1.237   6.688   6.713  2.2011  0.1471 -0.4397
48524SOL     OW52686   8.867   9.256  12.815 -0.6114 -0.5283 -0.3488
48524SOL    HW152687   8.832   9.307  12.742 -0.3556  0.3091  0.0962
48524SOL    HW252688   8.825   9.170  12.807  1.4876 -1.4611 -3.1374
48525SOL     OW52689   4.637   0.462  12.194 -0.3903 -0.3538  0.3914
48525SOL    HW152690   4.708   0.409  12.157 -1.3598 -0.8270 -0.8780
48525SOL    HW252691   4.673   0.550  12.203  0.3051 -0.5579 -0.3764
48526SOL     OW52692   7.582  11.403   2.641 -0.3710 -0.3926  0.5954
48526SOL    HW152693   7.489  11.384   2.624 -0.2729 -3.2520  2.6036
48526SOL    HW252694   7.629  11.354   2.574 -0.2467 -0.3615  0.6595
48527SOL     OW52695   6.891   7.224   1.383 -0.1671 -0.2921 -0.8359
48527SOL    HW152696   6.824   7.237   1.450 -0.1988 -2.2974 -0.4216
48527SOL    HW252697   6.862   7.147   1.334  1.6530 -0.9986 -0.8791
48528SOL     OW52698   8.585   6.086  10.533 -0.1426  0.5254 -0.8353
48528SOL    HW152699   8.534   6.157  10.495 -1.2744 -0.1811 -0.7006
48528SOL    HW252700   8.571   6.012  10.474  1.3113  0.4947 -1.1708
48529SOL     OW52701   9.755   9.896   9.907  0.6537  1.0053 -0.1199
48529SOL    HW152702   9.672   9.941   9.892 -0.8553 -1.0913  1.4152
48529SOL    HW252703   9.762   9.834   9.834 -0.1736 -0.1939  0.7883
48530SOL     OW52704  12.412   6.423   6.213  0.1901  0.3518 -0.2101
48530SOL    HW152705  12.409   6.496   6.275  0.5003  1.2766 -1.2436
48530SOL    HW252706  12.330   6.431   6.163  0.1003 -0.1685 -0.1458
48531SOL     OW52707   8.657   4.745   0.156 -0.1891  0.0286  0.2127
48531SOL    HW152708   8.656   4.770   0.248 -1.0344  2.0983 -0.2773
48531SOL    HW252709   8.658   4.829   0.109  1.1006 -0.9708 -1.6683
48532SOL     OW52710   7.195   0.837   5.789 -0.6498 -0.4050  0.3778
48532SOL    HW152711   7.244   0.912   5.822 -0.8359 -0.2972  0.4104
48532SOL    HW252712   7.227   0.763   5.840 -1.4534 -0.1232  1.3302
48533SOL     OW52713  10.207   3.425  12.091 -0.0698  0.2162 -0.2298
48533SOL    HW152714  10.302   3.414  12.096  0.5200  1.7231 -4.4097
48533SOL    HW252715  10.173   3.371  12.162  3.8753 -0.3617  1.4530
48534SOL     OW52716   2.886   2.786  12.009 -0.1603 -0.5624 -0.3832
48534SOL    HW152717   2.800   2.825  12.021 -1.2102 -3.0605  1.1820
48534SOL    HW252718   2.908   2.751  12.096  1.4286 -1.9124 -1.2720
48535SOL     OW52719   7.525   7.899   3.055  0.3810  0.2017 -0.3278
48535SOL    HW152720   7.525   7.977   3.000 -0.4271  0.0928 -0.5069
48535SOL    HW252721   7.456   7.916   3.120  0.2473 -0.3235 -0.3258
48536SOL     OW52722  11.042   9.489  12.665  1.0054 -0.5452  0.5193
48536SOL    HW152723  10.987   9.513  12.740  0.8845  1.8878 -0.2586
48536SOL    HW252724  10.991   9.516  12.589  0.7361 -3.7440 -0.6176
48537SOL     OW52725   4.266  11.999  11.904 -0.2409 -0.4387  0.0255
48537SOL    HW152726   4.229  11.939  11.839 -0.5341  1.0952 -1.2899
48537SOL    HW252727   4.201  12.002  11.974 -1.7334  0.7205 -1.3571
48538SOL     OW52728  10.346   5.117   1.313  0.0709 -0.1457  0.0154
48538SOL    HW152729  10.358   5.024   1.293 -1.6644 -0.4457  0.1882
48538SOL    HW252730  10.432   5.156   1.299  0.5336 -1.5444 -1.3580
48539SOL     OW52731   8.140  11.568   7.871  0.2926 -0.5084  0.0951
48539SOL    HW152732   8.109  11.532   7.954  1.7021 -0.5373  0.6284
48539SOL    HW252733   8.100  11.655   7.865 -2.1893 -1.6153 -0.6371
48540SOL     OW52734   0.356   9.271  11.914  0.4810 -0.4222  0.1789
48540SOL    HW152735   0.320   9.309  11.834 -0.6728 -0.9098  0.4525
48540SOL    HW252736   0.372   9.179  11.891  1.3585 -0.2664  0.1299
48541SOL     OW52737   6.276   3.926   4.778  0.2104 -0.6982 -0.1447
48541SOL    HW152738   6.181   3.929   4.773  0.0526  0.9446  2.2614
48541SOL    HW252739   6.295   3.910   4.871  2.2306  2.9189  0.2492
48542SOL     OW52740   4.035  11.265   4.159  0.2141  0.8148 -0.4190
48542SOL    HW152741   3.978  11.224   4.093  1.2756  1.4157 -1.7667
48542SOL    HW252742   4.022  11.212   4.237 -0.4104 -0.5025 -1.3645
48543SOL     OW52743  11.449  11.093   2.248 -0.3256  0.1633  0.3060
48543SOL    HW152744  11.433  11.042   2.328 -2.6724 -0.6736 -0.6220
48543SOL    HW252745  11.409  11.178   2.266  0.2645  0.4158  0.4607
48544SOL     OW52746   4.714   3.915  12.635 -0.2949  0.8873 -0.3934
48544SOL    HW152747   4.652   3.984  12.660 -2.3455 -0.4135 -1.5544
48544SOL    HW252748   4.730   3.930  12.542  0.6886  0.8439 -0.2394
48545SOL     OW52749   4.244  12.468   5.759 -0.3121  0.3424  0.5047
48545SOL    HW152750   4.308  12.399   5.739 -0.1622 -0.1307  2.3827
48545SOL    HW252751   4.175  12.423   5.808 -0.5465  1.4108  1.1939
48546SOL     OW52752  10.322  12.409   6.285 -0.2634  0.1994  0.3454
48546SOL    HW152753  10.316  12.478   6.351 -3.1571 -0.5420  0.9914
48546SOL    HW252754  10.333  12.328   6.335  2.3540  0.0042 -0.3806
48547SOL     OW52755  12.337   9.732   2.976  0.1376  0.0678 -0.2044
48547SOL    HW152756  12.256   9.693   2.944  0.6404 -0.7656 -0.4843
48547SOL    HW252757  12.310   9.816   3.013 -1.1124 -0.9154  1.2616
48548SOL     OW52758   6.052   7.616  12.113  0.4182  0.0330 -0.0194
48548SOL    HW152759   6.052   7.683  12.045 -0.7130  0.3522  0.2736
48548SOL    HW252760   6.126   7.559  12.091  1.1306  1.1157 -0.5223
48549SOL     OW52761   8.436   7.864   9.091 -0.4779  0.2558  0.0129
48549SOL    HW152762   8.368   7.822   9.143  0.7786  0.3601  1.8117
48549SOL    HW252763   8.509   7.802   9.091  0.7318  1.5960  1.1686
48550SOL     OW52764  11.597   3.166  10.818  0.1217 -0.2866  0.6481
48550SOL    HW152765  11.513   3.149  10.859  0.6597  0.0342  1.9250
48550SOL    HW252766  11.608   3.261  10.822 -0.1453 -0.1482 -0.9654
48551SOL     OW52767   0.375   7.973   4.838  0.2606 -0.1022 -0.1312
48551SOL    HW152768   0.296   7.920   4.829  0.8271 -1.1286  0.6369
48551SOL    HW252769   0.346   8.053   4.882 -0.4012 -0.3327 -0.1371
48552SOL     OW52770   2.319   0.776  10.533 -0.4524 -0.0240  0.2010
48552SOL    HW152771   2.298   0.833  10.459 -0.4369 -0.2879 -0.0062
48552SOL    HW252772   2.270   0.696  10.518 -2.9791  1.0344  2.0801
48553SOL     OW52773   9.788   1.545  12.834 -0.3403  0.0303  0.2442
48553SOL    HW152774   9.865   1.500  12.870  0.4784  1.2437  0.0651
48553SOL    HW252775   9.737   1.570  12.910 -1.8903 -2.9154  0.3235
48554SOL     OW52776   4.653   1.988   4.637 -0.3838  0.3945 -0.2452
48554SOL    HW152777   4.723   2.041   4.598 -0.8624  1.3567  0.1526
48554SOL    HW252778   4.699   1.920   4.685  0.3372  1.4850  0.6783
48555SOL     OW52779   7.485   4.531   1.440 -0.2131  0.2079 -0.2200
48555SOL    HW152780   7.470   4.454   1.385  0.6522  1.6975 -2.7182
48555SOL    HW252781   7.410   4.534   1.499 -0.2849 -2.4794 -0.0503
48556SOL     OW52782   0.442   0.763   1.339 -0.0645 -0.0046 -0.1477
48556SOL    HW152783   0.512   0.826   1.320 -0.5971  1.3476  1.9372
48556SOL    HW252784   0.467   0.725   1.424 -0.1691 -2.0797 -0.9940
48557SOL     OW52785   4.129   5.217  11.412  0.3707  0.3800  0.0832
48557SOL    HW152786   4.137   5.306  11.379 -0.9073  0.5827  0.2741
48557SOL    HW252787   4.166   5.220  11.500  2.0232  0.2756 -0.5739
48558SOL     OW52788   2.728   9.982   3.042 -0.5537 -0.8539 -0.3089
48558SOL    HW152789   2.655  10.023   3.088  0.2252 -1.0259  1.1550
48558SOL    HW252790   2.697   9.894   3.021 -0.4658 -1.2741  1.1839
48559SOL     OW52791   3.299  11.113   0.068  0.3598  0.4928 -0.6630
48559SOL    HW152792   3.252  11.177   0.013  0.8512  1.5193  0.0831
48559SOL    HW252793   3.392  11.130   0.050  0.4904 -0.9017 -1.4316
48560SOL     OW52794   9.508  11.387  11.392 -0.5205  0.4515 -0.4544
48560SOL    HW152795   9.589  11.399  11.342 -0.6352  1.4330 -0.4196
48560SOL    HW252796   9.528  11.315  11.452  0.7059  1.3747  0.3035
48561SOL     OW52797   2.630   3.760  11.251 -0.0189  0.3083  0.4251
48561SOL    HW152798   2.650   3.684  11.305  1.1110  0.4465  0.2374
48561SOL    HW252799   2.568   3.729  11.186  0.5133 -0.4905  0.2850
48562SOL     OW52800   7.225   3.084   5.495  0.2138  0.6869 -0.3332
48562SOL    HW152801   7.207   3.173   5.525 -1.1665 -0.3032  2.0049
48562SOL    HW252802   7.196   3.083   5.404 -1.0390  2.2584  0.0127
48563SOL     OW52803   6.439  11.427  11.838  0.0489 -0.2459 -0.5933
48563SOL    HW152804   6.496  11.381  11.776  1.5984  0.3200  0.3668
48563SOL    HW252805   6.447  11.519  11.813 -0.6054 -0.1749 -0.5554
48564SOL     OW52806   4.899   9.818   0.164 -0.0327 -0.5585 -0.0870
48564SOL    HW152807   4.857   9.858   0.240  0.8351 -2.3269  1.4016
48564SOL    HW252808   4.991   9.809   0.189  0.8546  1.1388 -2.3842
48565SOL     OW52809   1.911   4.738  12.157  0.0634  0.1229  0.0210
48565SOL    HW152810   1.920   4.739  12.252 -1.7370  0.2042  0.2167
48565SOL    HW252811   1.894   4.646  12.136 -1.0376  0.3293 -0.0429
48566SOL     OW52812  10.575   6.617  10.782 -0.0379 -0.3100  0.4461
48566SOL    HW152813  10.570   6.663  10.698  1.7803 -1.7555 -0.5356
48566SOL    HW252814  10.567   6.525  10.760 -1.1311 -0.6468  2.0849
48567SOL     OW52815   0.362   3.217   8.603 -0.2543 -0.7236  0.0237
48567SOL    HW152816   0.404   3.136   8.632 -1.0459 -1.3938 -0.6440
48567SOL    HW252817   0.385   3.281   8.670  2.5378 -0.8078 -0.7083
48568SOL     OW52818   5.115   0.808   1.495  0.5287 -0.2596  0.7968
48568SOL    HW152819   5.071   0.737   1.543  1.0496 -0.0440  1.6081
48568SOL    HW252820   5.078   0.803   1.406 -0.2786 -0.8149  1.1484
48569SOL     OW52821   5.175  12.544   0.102 -0.1542 -0.4880 -0.1968
48569SOL    HW152822   5.261  12.553   0.143  0.6262  1.8164 -2.0785
48569SOL    HW252823   5.158  12.450   0.102  0.2117 -0.7519  4.2469
48570SOL     OW52824   2.124   4.398  11.508 -0.1613 -0.0204 -0.3925
48570SOL    HW152825   2.102   4.323  11.453  1.2793  0.5198 -1.7675
48570SOL    HW252826   2.112   4.474  11.451 -0.0394  0.6697  0.4857
48571SOL     OW52827   3.372   3.655   7.404 -0.9532  0.4506  0.0608
48571SOL    HW152828   3.393   3.745   7.380 -1.9916  0.5303 -0.6055
48571SOL    HW252829   3.448   3.625   7.454  0.0221  1.2254 -0.9233
48572SOL     OW52830   1.423  11.001   4.780 -0.0847  0.3589  0.6488
48572SOL    HW152831   1.476  10.923   4.764 -0.0581 -0.2893  3.4424
48572SOL    HW252832   1.481  11.074   4.759  1.5806 -0.3584  2.4522
48573SOL     OW52833   6.516   2.180  10.361  0.0253  0.4463  0.4271
48573SOL    HW152834   6.580   2.110  10.372 -1.1698 -0.5617  1.2237
48573SOL    HW252835   6.562   2.247  10.312  1.1313 -0.9962 -0.5825
48574SOL     OW52836   1.795   5.515   9.740  0.3314 -0.5320  0.5027
48574SOL    HW152837   1.840   5.546   9.818  1.3170 -0.9004  0.0845
48574SOL    HW252838   1.797   5.420   9.745  0.8488 -0.5711 -0.2110
48575SOL     OW52839   1.040   0.008   8.545  1.0210  0.2047 -0.7500
48575SOL    HW152840   1.112   0.060   8.582  1.7570 -1.3465  0.1462
48575SOL    HW252841   1.080  -0.038   8.471  1.1553 -1.0504  0.0547
48576SOL     OW52842   1.135   6.497   2.138 -0.2776  0.2255  0.7943
48576SOL    HW152843   1.042   6.488   2.156 -0.8853  3.0812 -0.3905
48576SOL    HW252844   1.146   6.464   2.048  0.3032 -2.0201  1.6391
48577SOL     OW52845  12.819   2.816   9.451 -0.0815 -0.3034 -0.0006
48577SOL    HW152846  12.830   2.867   9.371  1.6393  0.7856  0.8853
48577SOL    HW252847  12.759   2.869   9.504  0.9396  0.3682  0.5197
48578SOL     OW52848   9.879   9.119  10.242 -0.1522  0.1662 -0.0953
48578SOL    HW152849   9.968   9.095  10.214 -0.6626 -0.6018 -1.0942
48578SOL    HW252850   9.824   9.048  10.211 -1.0409  0.2796  1.1490
48579SOL     OW52851   1.044   5.822  12.876 -0.2562  0.1318 -0.0047
48579SOL    HW152852   1.063   5.906  12.917 -0.9133 -0.4537  1.5846
48579SOL    HW252853   1.053   5.838  12.782  0.9025  1.6335  0.3357
48580SOL     OW52854  10.791   2.621   5.200  0.0566  0.0422 -0.1053
48580SOL    HW152855  10.715   2.562   5.198  1.2070 -1.5892  1.1388
48580SOL    HW252856  10.816   2.631   5.108 -0.7925 -0.6053 -0.4205
48581SOL     OW52857   1.512   8.573   2.156 -0.0608 -0.0631  0.1053
48581SOL    HW152858   1.466   8.641   2.206 -1.4531 -0.9306  0.0473
48581SOL    HW252859   1.508   8.604   2.065 -0.3253 -0.0220  0.1299
48582SOL     OW52860   8.470   8.206   0.602 -0.0258  0.0440  0.3469
48582SOL    HW152861   8.414   8.139   0.642  1.0207 -0.0010  1.8245
48582SOL    HW252862   8.536   8.225   0.669 -0.9955  3.4662  0.4951
48583SOL     OW52863   4.946   4.851   2.274  0.2084 -0.1909  0.1480
48583SOL    HW152864   5.022   4.812   2.318 -0.6666 -1.5074  0.5578
48583SOL    HW252865   4.910   4.780   2.221 -0.5690  0.4971 -0.2636
48584SOL     OW52866   1.611   9.497   7.823  0.3973  0.5807  0.0614
48584SOL    HW152867   1.643   9.585   7.842 -0.2944  0.9838 -0.6014
48584SOL    HW252868   1.636   9.446   7.899  0.2009  1.5106  0.7689
48585SOL     OW52869   9.145   6.381   6.501 -0.3370 -0.4995  0.6698
48585SOL    HW152870   9.055   6.408   6.518 -0.4013 -0.1423 -0.2101
48585SOL    HW252871   9.137   6.295   6.459 -0.4063  0.4440 -1.3825
48586SOL     OW52872   3.054   6.861   1.024 -0.1188  0.1689  0.2193
48586SOL    HW152873   3.138   6.904   1.009  0.2740  0.0254  1.8531
48586SOL    HW252874   3.071   6.769   1.003 -0.1223  0.2788 -0.2896
48587SOL     OW52875   0.721  12.160   0.643 -0.6286 -0.3919  0.4159
48587SOL    HW152876   0.646  12.107   0.671  0.0233 -1.1439  0.7750
48587SOL    HW252877   0.784  12.150   0.714  0.6722 -1.5289 -0.8313
48588SOL     OW52878  12.072   8.949   9.586  0.2370  0.1030  0.1755
48588SOL    HW152879  12.073   8.855   9.565  0.4973  0.3073 -0.7774
48588SOL    HW252880  12.076   8.952   9.681  1.4468 -0.8442  0.1893
48589SOL     OW52881   8.046   1.411  10.412  0.5605 -0.0996 -0.1460
48589SOL    HW152882   8.004   1.400  10.498 -0.1209  0.1566 -0.4367
48589SOL    HW252883   8.116   1.347  10.411  0.1919 -0.5194  0.3763
48590SOL     OW52884  11.999   0.752   7.053  0.1420  0.2160  0.3694
48590SOL    HW152885  11.999   0.782   6.963 -0.5337  0.7024  0.5296
48590SOL    HW252886  11.970   0.827   7.105  0.9124  0.0758  1.0438
48591SOL     OW52887  11.699   2.499   5.599 -0.0610  1.1823  0.1173
48591SOL    HW152888  11.653   2.429   5.646  1.4600  1.3272  1.9298
48591SOL    HW252889  11.765   2.453   5.547 -1.3456  1.0722 -1.5225
48592SOL     OW52890   8.280  12.333   9.981  0.4491  0.0999  0.5315
48592SOL    HW152891   8.296  12.319   9.888  0.2912  1.2278  0.3160
48592SOL    HW252892   8.331  12.265  10.025  2.1381  0.7618 -0.3187
48593SOL     OW52893   8.044   8.518   5.388  0.9845 -0.0805 -0.7046
48593SOL    HW152894   8.019   8.477   5.471  0.2041  3.2020  0.8308
48593SOL    HW252895   7.977   8.489   5.326 -0.9522  0.7362  0.9087
48594SOL     OW52896   7.741   2.277  12.810  0.3399  0.0035  0.0143
48594SOL    HW152897   7.786   2.247  12.731 -0.5026  0.8005 -0.7909
48594SOL    HW252898   7.785   2.230  12.882  0.4653 -1.5052 -0.9976
48595SOL     OW52899   0.261   8.527   1.112  0.6039  0.7710  0.2783
48595SOL    HW152900   0.213   8.473   1.175 -0.6211  0.8400 -0.5727
48595SOL    HW252901   0.285   8.605   1.161  0.5406  0.3852  0.9362
48596SOL     OW52902   6.869  11.418   0.779 -0.4925 -0.3282 -0.6069
48596SOL    HW152903   6.861  11.406   0.874  0.2688 -2.2230 -0.7527
48596SOL    HW252904   6.804  11.486   0.758 -2.9517 -2.1002  0.8051
48597SOL     OW52905   5.639  11.527   1.930  0.2078  0.2621 -0.4561
48597SOL    HW152906   5.724  11.548   1.971 -0.0501  0.1920  0.1273
48597SOL    HW252907   5.597  11.469   1.993 -0.9284  1.5304 -0.0151
48598SOL     OW52908   5.728   9.402   3.546 -0.4836  0.3711 -0.0476
48598SOL    HW152909   5.759   9.355   3.623 -1.3067  0.8651  0.5929
48598SOL    HW252910   5.672   9.471   3.580 -0.5983  0.8086 -1.0713
48599SOL     OW52911   1.699  10.061   2.086 -0.2540  0.8018  0.0653
48599SOL    HW152912   1.659  10.008   2.155  0.3785  0.1713 -0.0447
48599SOL    HW252913   1.691  10.008   2.007 -0.0636  1.0916 -0.1524
48600SOL     OW52914   9.936   1.753  10.409  0.1964 -0.0224 -0.0596
48600SOL    HW152915  10.026   1.785  10.402  0.5502 -1.3937 -3.1353
48600SOL    HW252916   9.943   1.671  10.457  0.4980  0.1185  0.1419
48601SOL     OW52917  11.701   2.344   1.108  0.1982  0.0639  0.0596
48601SOL    HW152918  11.713   2.376   1.198  0.6605  1.8494 -0.6031
48601SOL    HW252919  11.607   2.351   1.092 -0.1148 -1.7103  0.8855
48602SOL     OW52920   6.799   3.534  11.999  0.1934  0.2034 -0.2853
48602SOL    HW152921   6.790   3.526  12.094  0.2144 -0.1494 -0.3137
48602SOL    HW252922   6.738   3.604  11.976  0.8239  0.8912  0.0929
48603SOL     OW52923  11.802  10.135  12.415  0.0833 -0.1753 -0.2590
48603SOL    HW152924  11.861  10.073  12.371 -0.4393 -0.1744 -0.9854
48603SOL    HW252925  11.854  10.214  12.426  0.4095 -0.3778 -0.3355
48604SOL     OW52926   1.007   7.945   7.875  0.1372  0.6210  0.4614
48604SOL    HW152927   1.076   7.998   7.835  1.4800  0.0078  1.8885
48604SOL    HW252928   1.010   7.861   7.829  0.8747  0.3265  1.0422
48605SOL     OW52929  11.830   0.430   0.770  0.7270  0.2681  0.3095
48605SOL    HW152930  11.847   0.480   0.689  1.1516 -0.0452  0.2030
48605SOL    HW252931  11.753   0.378   0.749  1.0520 -0.0885 -0.0256
48606SOL     OW52932   7.152  12.575   2.932 -0.0398  0.2588 -0.2321
48606SOL    HW152933   7.193  12.562   3.017 -0.5709  2.1152  0.3725
48606SOL    HW252934   7.135  12.670   2.928 -0.5949  0.1273 -2.1388
48607SOL     OW52935   1.631   6.862   3.159  0.1390  0.2568 -0.3608
48607SOL    HW152936   1.554   6.837   3.107  0.2591  0.5386 -0.6770
48607SOL    HW252937   1.633   6.958   3.154 -0.3858  0.3510  0.9339
48608SOL     OW52938   5.154   5.633   3.579  0.5474  0.0723  0.0146
48608SOL    HW152939   5.177   5.654   3.489 -0.1996 -0.0823 -0.2176
48608SOL    HW252940   5.184   5.544   3.592  0.0777 -0.1309 -0.2880
48609SOL     OW52941   8.252  12.573   5.149  0.2318  0.3607 -0.1572
48609SOL    HW152942   8.310  12.629   5.097  0.9822  1.3892  1.7089
48609SOL    HW252943   8.170  12.623   5.156 -0.4234 -0.4408 -1.5327
48610SOL     OW52944   0.788  12.170   5.242  0.3749 -0.3710  0.6217
48610SOL    HW152945   0.857  12.237   5.236  1.0828 -1.1100  0.2108
48610SOL    HW252946   0.708  12.217   5.221  1.0216  0.1110 -0.9709
48611SOL     OW52947   5.492   5.278   9.818  0.0444  0.3010 -0.4017
48611SOL    HW152948   5.405   5.253   9.786 -0.9023  0.6579  1.7508
48611SOL    HW252949   5.521   5.202   9.868  1.1345  0.0787 -1.3298
48612SOL     OW52950  10.027   0.422   1.478  0.3760 -0.4063 -0.1085
48612SOL    HW152951   9.973   0.366   1.533  0.4846 -1.0054 -0.6036
48612SOL    HW252952  10.107   0.436   1.529  0.7911 -1.5749 -0.4113
48613SOL     OW52953   8.052   4.051   7.909  0.0696 -0.1784 -0.6655
48613SOL    HW152954   8.050   4.064   8.003  0.2253 -1.7934 -0.4134
48613SOL    HW252955   8.008   4.127   7.873  1.2637  1.1856  0.6188
48614SOL     OW52956   3.200  11.599   2.037  0.2012 -0.4816 -0.7796
48614SOL    HW152957   3.119  11.579   1.992  0.0043 -0.8544 -0.2710
48614SOL    HW252958   3.230  11.515   2.072 -1.6292  0.2213  3.0085
48615SOL     OW52959   8.507   9.639  12.311 -0.7097 -0.0995  0.6592
48615SOL    HW152960   8.433   9.689  12.344 -0.7799  1.8534 -2.1577
48615SOL    HW252961   8.468   9.576  12.249 -0.1734 -0.3382  0.5573
48616SOL     OW52962   3.713   9.069   6.042  0.1793 -0.3564  0.4667
48616SOL    HW152963   3.634   9.023   6.015  0.8917 -1.2477 -0.1491
48616SOL    HW252964   3.708   9.154   5.997 -0.2449 -0.5474  0.1516
48617SOL     OW52965  10.746   4.825   5.357 -0.5873  0.3736 -0.3140
48617SOL    HW152966  10.716   4.877   5.283  0.1194  1.1891 -0.0379
48617SOL    HW252967  10.836   4.854   5.373 -0.0733 -1.1299 -0.3319
48618SOL     OW52968   6.349  12.814   3.980 -0.5464  0.3633  0.2835
48618SOL    HW152969   6.402  12.856   3.912  1.7448 -2.3824  0.1803
48618SOL    HW252970   6.266  12.794   3.938  0.5402 -0.5695 -1.5446
48619SOL     OW52971  11.228   3.851   1.696  0.0750 -0.3823  0.1749
48619SOL    HW152972  11.286   3.803   1.637 -2.0809 -0.4655 -2.0476
48619SOL    HW252973  11.175   3.784   1.739 -0.3483 -0.2148 -0.0672
48620SOL     OW52974   3.114  10.236  12.844 -1.0422  0.2702 -0.2147
48620SOL    HW152975   3.135  10.330  12.850 -0.4852  0.2331 -1.3564
48620SOL    HW252976   3.032  10.233  12.795 -1.3479  0.1814  0.2976
48621SOL     OW52977   6.365   1.012   0.269  0.0633 -0.3906  0.0576
48621SOL    HW152978   6.286   1.066   0.280  0.8105  0.7244  0.0784
48621SOL    HW252979   6.335   0.922   0.284 -1.4971 -0.1422 -1.2689
48622SOL     OW52980   4.232   8.892   8.206 -0.3023 -0.3330 -0.1445
48622SOL    HW152981   4.301   8.879   8.142 -2.1326 -0.0473 -2.2973
48622SOL    HW252982   4.225   8.808   8.252  1.1688 -0.4763 -0.1282
48623SOL     OW52983   1.230   2.426   8.554 -0.2335 -0.3371 -0.0096
48623SOL    HW152984   1.266   2.346   8.592 -0.3893 -1.1307 -1.4260
48623SOL    HW252985   1.299   2.491   8.564 -0.1059 -0.6422  1.1697
48624SOL     OW52986   2.287  12.373   2.100  0.0602 -0.0423  0.6125
48624SOL    HW152987   2.293  12.400   2.192  0.8058  1.9379  0.0493
48624SOL    HW252988   2.301  12.454   2.051  0.2900 -1.1618 -1.2666
48625SOL     OW52989   5.259   9.299   8.213 -0.2778 -0.4745  0.1394
48625SOL    HW152990   5.290   9.209   8.204 -0.7403 -0.4934 -1.4405
48625SOL    HW252991   5.211   9.300   8.296  0.1496 -1.5487  0.4084
48626SOL     OW52992  10.739   8.170  12.862 -0.0907 -0.0103  0.2378
48626SOL    HW152993  10.710   8.099  12.804 -0.2807 -0.8062  1.2664
48626SOL    HW252994  10.687   8.158  12.942 -0.8565  1.9050  0.0956
48627SOL     OW52995   2.457  11.579   9.602 -0.3289  0.0242  0.2744
48627SOL    HW152996   2.379  11.557   9.550 -0.7823 -1.3628  1.4733
48627SOL    HW252997   2.475  11.670   9.580 -1.0952 -0.2145 -1.5509
48628SOL     OW52998   7.045   7.139   3.019  0.4873 -0.0151 -0.0822
48628SOL    HW152999   7.028   7.045   3.024 -0.1217  0.1432  1.1548
48628SOL    HW253000   7.018   7.173   3.104 -1.5683  1.6264 -1.2854
48629SOL     OW53001  12.227   3.380   7.258  0.9617 -0.3577 -0.4242
48629SOL    HW153002  12.230   3.474   7.274 -0.8750 -0.5595  1.5569
48629SOL    HW253003  12.312   3.349   7.288  0.9471  0.4839  0.5582
48630SOL     OW53004   6.307   4.139   4.366 -0.2463  0.3421 -0.2007
48630SOL    HW153005   6.219   4.104   4.381  0.2478 -0.8910 -0.0867
48630SOL    HW253006   6.349   4.136   4.452  0.1299  0.3183 -0.3826
48631SOL     OW53007   3.758  11.969  12.716 -0.1208  0.0980  0.3769
48631SOL    HW153008   3.732  12.050  12.760 -1.2419  0.3005 -0.6233
48631SOL    HW253009   3.823  11.996  12.651  0.0771  0.0739  0.5623
48632SOL     OW53010   1.350   2.617   8.976 -0.5442 -0.2798  0.1135
48632SOL    HW153011   1.369   2.530   8.939 -0.8724 -1.0126  1.5724
48632SOL    HW253012   1.273   2.647   8.927  0.9594  0.2648 -2.0249
48633SOL     OW53013   6.020   3.977   9.317 -0.7645  0.4291 -0.3762
48633SOL    HW153014   5.932   3.940   9.305 -1.2380  1.4184 -0.0093
48633SOL    HW253015   6.069   3.945   9.241 -1.0727 -1.1643  0.0568
48634SOL     OW53016   0.162   8.100   8.584 -0.6980  0.1792  0.5635
48634SOL    HW153017   0.224   8.137   8.647  0.8095 -2.3126  0.6640
48634SOL    HW253018   0.077   8.135   8.610  0.2875  1.5279  2.1373
48635SOL     OW53019   9.903  12.242  11.834 -0.0404  0.1105 -0.0827
48635SOL    HW153020   9.934  12.157  11.802  0.1179  0.2162 -0.2080
48635SOL    HW253021   9.981  12.298  11.835 -0.0804  0.1646  0.2995
48636SOL     OW53022  11.739   2.967  11.665 -0.1265 -0.0863  0.3213
48636SOL    HW153023  11.801   3.017  11.719 -0.2973 -0.6793  1.0946
48636SOL    HW253024  11.742   2.878  11.702  0.3017 -0.7047 -1.1265
48637SOL     OW53025   9.122  12.121   6.430  0.1422 -0.0397  0.0497
48637SOL    HW153026   9.106  12.111   6.524 -0.3242 -0.6544 -0.0892
48637SOL    HW253027   9.083  12.043   6.391  0.6371  0.0442 -0.6224
48638SOL     OW53028  10.930   5.447  12.309 -0.0014 -0.1768  0.0103
48638SOL    HW153029  10.905   5.520  12.366  0.3226 -0.1792  0.1579
48638SOL    HW253030  10.902   5.369  12.357 -0.6076 -0.1425 -0.2772
48639SOL     OW53031   2.936   7.193  11.052 -0.0552 -0.1381  0.7438
48639SOL    HW153032   2.940   7.172  11.145 -1.7555  2.6016  1.5560
48639SOL    HW253033   2.902   7.282  11.049 -1.8651 -0.7628 -2.5669
48640SOL     OW53034   0.366   9.806   6.164  0.0905  0.5243 -0.0101
48640SOL    HW153035   0.358   9.875   6.230 -2.1197 -0.9638  1.3974
48640SOL    HW253036   0.431   9.840   6.102  0.7466  2.8684  1.8083
48641SOL     OW53037   3.017  12.772   6.270  0.0886 -0.3092  0.5308
48641SOL    HW153038   3.093  12.798   6.218 -0.6809 -1.0703 -1.0443
48641SOL    HW253039   2.958  12.847   6.265  0.8260  0.4070  2.0175
48642SOL     OW53040   9.990   4.977   2.763  0.1584  0.2392 -0.2779
48642SOL    HW153041   9.986   4.985   2.668  0.7615 -0.9809 -0.4354
48642SOL    HW253042  10.035   4.893   2.777  1.5812  1.1849  1.0766
48643SOL     OW53043   9.603   0.655  12.912  0.1148  0.2312  0.5368
48643SOL    HW153044   9.560   0.574  12.941  0.3806 -1.2916 -2.8155
48643SOL    HW253045   9.535   0.700  12.861  0.6217  1.0593  0.5877
48644SOL     OW53046   6.737   6.894   3.165  0.1856  0.6654 -0.0856
48644SOL    HW153047   6.694   6.878   3.249  0.7923  0.1768  0.1453
48644SOL    HW253048   6.676   6.861   3.100  0.2138 -0.0472  0.2367
48645SOL     OW53049   5.323   0.541   8.692  0.2342 -0.5079 -0.3607
48645SOL    HW153050   5.372   0.528   8.773 -2.1232  0.9598  1.4422
48645SOL    HW253051   5.358   0.622   8.656  0.1665 -0.2430  0.1465
48646SOL     OW53052  10.240   8.896   3.180  0.0510  0.4189  0.0413
48646SOL    HW153053  10.165   8.953   3.196 -0.5265 -0.4357  0.4944
48646SOL    HW253054  10.280   8.884   3.266  0.9196  1.1441 -0.2530
48647SOL     OW53055   5.766   4.501   1.327  0.5922 -0.0192  0.1052
48647SOL    HW153056   5.790   4.413   1.300 -0.6033 -0.5334  0.6556
48647SOL    HW253057   5.825   4.559   1.277  1.5706 -1.1198 -0.0570
48648SOL     OW53058   6.164   4.211  10.603  0.7537  0.2018  0.0360
48648SOL    HW153059   6.080   4.166  10.593  0.7156  0.3612 -0.3911
48648SOL    HW253060   6.179   4.214  10.698 -0.5577  1.7027  0.2220
48649SOL     OW53061   2.239   4.242   5.529 -0.2993  0.3332 -0.3581
48649SOL    HW153062   2.217   4.148   5.527 -0.6308  0.4114 -0.3156
48649SOL    HW253063   2.170   4.284   5.479 -1.2914  0.7931  1.3284
48650SOL     OW53064   8.117   3.914   1.301  0.0055 -0.4391 -0.2304
48650SOL    HW153065   8.157   3.950   1.222 -0.5622  1.2425  0.2078
48650SOL    HW253066   8.186   3.860   1.340  1.7011  1.7909  0.1223
48651SOL     OW53067  12.453   6.038  11.044 -0.3178  0.7824 -0.2043
48651SOL    HW153068  12.538   6.018  11.084 -0.5659  0.2830  0.0840
48651SOL    HW253069  12.455   6.132  11.028 -0.6209  1.2015  1.9532
48652SOL     OW53070   1.557   2.607   0.677 -0.8147 -0.2506 -0.5501
48652SOL    HW153071   1.623   2.585   0.611 -1.6555 -1.4869 -1.0369
48652SOL    HW253072   1.607   2.643   0.750  0.1848  0.8292 -1.6997
48653SOL     OW53073   8.317   9.850   6.047  0.2212 -0.2972 -0.2467
48653SOL    HW153074   8.310   9.768   5.999 -0.5513 -0.6389  0.4301
48653SOL    HW253075   8.289   9.917   5.985  1.2661 -0.4682 -0.9479
48654SOL     OW53076  11.637   7.387   8.495 -0.0985 -0.7895 -0.1736
48654SOL    HW153077  11.578   7.332   8.442 -0.6022  2.1800 -3.0252
48654SOL    HW253078  11.724   7.363   8.464 -0.0369 -2.1397  0.9325
48655SOL     OW53079   1.382   4.391   8.436 -0.1411  0.4047 -0.4879
48655SOL    HW153080   1.455   4.331   8.421 -1.0102 -0.5552 -0.9841
48655SOL    HW253081   1.360   4.424   8.349 -0.0190  1.0304 -0.2848
48656SOL     OW53082  11.288   0.202   9.813  0.8347 -0.2815  0.2350
48656SOL    HW153083  11.314   0.291   9.838  1.0549 -0.1340 -0.5021
48656SOL    HW253084  11.207   0.186   9.862 -0.7345  1.3610 -1.6746
48657SOL     OW53085   8.017  12.369   6.611  0.1292 -0.1238 -0.0514
48657SOL    HW153086   8.098  12.327   6.580  1.2733  0.5057  1.8733
48657SOL    HW253087   8.048  12.443   6.663 -1.7719  1.1649 -0.6670
48658SOL     OW53088  10.030   1.416  11.161 -0.4490  0.6916 -0.2434
48658SOL    HW153089   9.936   1.429  11.149 -0.6953 -1.2512 -0.7955
48658SOL    HW253090  10.047   1.328  11.127  0.7701 -0.9158  3.7890
48659SOL     OW53091   9.337   9.410   3.976 -0.5317 -0.0657  0.1799
48659SOL    HW153092   9.281   9.473   3.931 -2.0303 -0.2120  1.7115
48659SOL    HW253093   9.297   9.325   3.958  0.6982 -0.4639 -0.7722
48660SOL     OW53094   8.568   1.636   0.415  0.3693 -0.4413 -0.1762
48660SOL    HW153095   8.640   1.593   0.369  1.1668  0.0808  0.5429
48660SOL    HW253096   8.595   1.635   0.507 -0.5328 -0.2036  0.0980
48661SOL     OW53097   8.170   9.998   7.822  0.2360  0.0107 -0.1422
48661SOL    HW153098   8.179  10.047   7.903 -3.2114 -0.5806  0.7763
48661SOL    HW253099   8.122  10.057   7.764 -1.1026 -1.0529 -0.1632
48662SOL     OW53100   7.993   8.103  10.996  0.8094 -0.1824  0.0553
48662SOL    HW153101   7.936   8.050  10.940  1.6268 -0.0507 -0.9334
48662SOL    HW253102   7.941   8.180  11.018 -0.0236 -0.9016  0.6603
48663SOL     OW53103   8.871   9.506   1.975 -0.3557 -0.6402  0.2419
48663SOL    HW153104   8.835   9.495   2.063  0.4168 -0.8161  0.5373
48663SOL    HW253105   8.794   9.522   1.920 -1.0702 -2.6418  0.5824
48664SOL     OW53106   3.668   4.487   6.734 -0.1437 -0.0153 -0.0971
48664SOL    HW153107   3.653   4.410   6.790 -0.4611  0.2977  0.2553
48664SOL    HW253108   3.757   4.477   6.703  0.3480  0.2369  1.1629
48665SOL     OW53109   3.657   8.583   6.097  0.1490  0.2005  0.2580
48665SOL    HW153110   3.674   8.672   6.128  1.4009 -0.1478  0.5923
48665SOL    HW253111   3.740   8.552   6.063  0.6142 -1.9640  3.0007
48666SOL     OW53112   1.595  11.428  11.475  0.1479 -0.1133 -0.0540
48666SOL    HW153113   1.654  11.370  11.427  0.9862 -1.2955  2.2339
48666SOL    HW253114   1.509  11.384  11.470  0.8135 -1.8143  1.8391
48667SOL     OW53115   7.558  11.270   8.484  0.2921  0.0221  0.5884
48667SOL    HW153116   7.507  11.189   8.474 -0.4049  0.6091 -0.9082
48667SOL    HW253117   7.649  11.241   8.478  0.0646 -0.7046  0.4886
48668SOL     OW53118   1.242   0.056   8.318 -0.4945 -0.1648  0.2707
48668SOL    HW153119   1.262   0.148   8.336 -1.2372 -0.0351  0.4543
48668SOL    HW253120   1.326   0.018   8.292  0.2526  0.0843  2.1658
48669SOL     OW53121   8.588   4.562  10.632 -0.6274 -0.2502  0.1025
48669SOL    HW153122   8.649   4.635  10.626 -3.1647  2.0304 -0.0500
48669SOL    HW253123   8.573   4.550  10.726 -0.2499 -0.5726  0.1249
48670SOL     OW53124   8.828   8.583   6.363  0.1760  0.2224  0.1689
48670SOL    HW153125   8.744   8.623   6.340  1.5709  2.8564 -0.6999
48670SOL    HW253126   8.806   8.516   6.428 -2.4999  1.4082  0.6017
48671SOL     OW53127  12.171   8.943  11.221 -0.1477  0.4273  0.3401
48671SOL    HW153128  12.138   9.021  11.176 -0.3371  0.6038  0.7717
48671SOL    HW253129  12.227   8.900  11.157 -2.7892 -1.0099 -1.1786
48672SOL     OW53130   7.593   6.597   9.848  0.1233 -0.2025  0.7564
48672SOL    HW153131   7.626   6.641   9.769 -0.5167 -0.2320  0.4684
48672SOL    HW253132   7.534   6.529   9.815 -0.4074  0.0043  1.2712
48673SOL     OW53133  11.349   6.630  11.424 -0.1606  0.1196 -0.4775
48673SOL    HW153134  11.381   6.560  11.367 -0.8155  0.3119 -1.1053
48673SOL    HW253135  11.422   6.692  11.429  0.2088 -0.3159 -0.4081
48674SOL     OW53136   8.947   4.525   3.751  0.5669 -0.2720  0.2876
48674SOL    HW153137   8.949   4.470   3.830 -1.2528  0.3452  0.8206
48674SOL    HW253138   8.917   4.467   3.682  4.2593 -1.4225 -0.6005
48675SOL     OW53139   0.820   0.356   2.621  0.0981  0.5335 -0.2238
48675SOL    HW153140   0.890   0.387   2.564 -1.1041  0.4136 -1.8151
48675SOL    HW253141   0.740   0.389   2.582 -0.7184  1.4699  2.0813
48676SOL     OW53142   2.330   5.439   6.210  0.5080 -0.4316 -0.0912
48676SOL    HW153143   2.419   5.416   6.184 -0.1371 -1.0257 -1.8826
48676SOL    HW253144   2.325   5.534   6.197  0.9542 -0.3595  0.2661
48677SOL     OW53145   5.100   3.513   5.701 -0.2223  0.2330  0.5478
48677SOL    HW153146   5.174   3.569   5.678 -1.4196  1.9229  0.6403
48677SOL    HW253147   5.081   3.534   5.793 -0.4245 -0.6700  0.7258
48678SOL     OW53148   4.829   8.591   5.785  0.8066 -0.1808  0.8162
48678SOL    HW153149   4.792   8.633   5.707  1.2911 -0.5009  0.4021
48678SOL    HW253150   4.844   8.664   5.846 -0.0674  0.0053  0.8224
48679SOL     OW53151   2.779  11.261   6.244  0.5417 -0.1504 -0.1012
48679SOL    HW153152   2.843  11.315   6.197  0.7466 -1.3652 -1.2774
48679SOL    HW253153   2.694  11.298   6.219  0.7040  0.0820 -0.3122
48680SOL     OW53154  10.933   8.369   1.389 -0.2708 -0.1825  0.3378
48680SOL    HW153155  11.023   8.401   1.383 -0.2571 -0.3419 -0.4404
48680SOL    HW253156  10.910   8.377   1.482  0.6851 -0.5277  0.6069
48681SOL     OW53157  10.934   4.010   7.237  0.7815 -0.4481 -0.5466
48681SOL    HW153158  10.905   4.101   7.242  1.1915 -0.3850  1.4109
48681SOL    HW253159  11.017   4.014   7.188  1.5241  0.4500  0.7323
48682SOL     OW53160   7.973  10.837   8.788  0.1732 -0.3846 -0.3042
48682SOL    HW153161   7.979  10.895   8.713 -0.5995 -2.5939 -2.1988
48682SOL    HW253162   7.970  10.749   8.750  0.4408 -1.6461  2.3590
48683SOL     OW53163   4.120   5.526  11.699 -0.0506 -0.5203  0.0039
48683SOL    HW153164   4.061   5.556  11.768  1.4122  0.7191  0.7824
48683SOL    HW253165   4.131   5.433  11.716 -1.1578 -0.6107  0.3075
48684SOL     OW53166   3.149   9.868  12.293  0.2962 -0.0334 -0.0363
48684SOL    HW153167   3.224   9.841  12.242 -0.6750 -0.6896 -1.1684
48684SOL    HW253168   3.186   9.918  12.366  2.1945 -3.5938  1.7143
48685SOL     OW53169   9.428  11.353   6.022  0.3153 -0.1047  0.6089
48685SOL    HW153170   9.335  11.335   6.009  0.9129 -2.4061 -1.1944
48685SOL    HW253171   9.460  11.280   6.076  1.6551 -1.2751 -1.6117
48686SOL     OW53172   9.612   3.474   3.636  0.4990  0.3520 -0.4042
48686SOL    HW153173   9.663   3.555   3.629  1.1851  0.0106  0.5768
48686SOL    HW253174   9.664   3.417   3.692 -0.2218 -0.5919 -0.6732
48687SOL     OW53175   1.236   6.099  10.650 -0.1462  0.2388  0.1236
48687SOL    HW153176   1.141   6.090  10.658 -0.0491 -0.7884  0.1480
48687SOL    HW253177   1.249   6.193  10.635 -1.0706  0.6171  1.4590
48688SOL     OW53178   6.955   6.196   1.313 -0.3940  0.2126  0.3590
48688SOL    HW153179   6.983   6.106   1.334 -0.3873 -0.0617 -0.7837
48688SOL    HW253180   6.919   6.190   1.225 -0.9004  1.2412  0.4813
48689SOL     OW53181   2.448   5.136   8.392  0.2737  0.2490 -0.2826
48689SOL    HW153182   2.461   5.231   8.392 -1.3300  0.6518 -4.1133
48689SOL    HW253183   2.526   5.102   8.347  0.7048 -0.2741  0.8238
48690SOL     OW53184   8.290  10.380  11.493  0.1548  0.3762  0.3399
48690SOL    HW153185   8.284  10.461  11.544  0.6066  0.9012 -0.4346
48690SOL    HW253186   8.310  10.408  11.404 -1.2457 -0.4878 -0.2964
48691SOL     OW53187   1.556  10.294   1.955  0.2148  0.2435 -0.2777
48691SOL    HW153188   1.639  10.266   1.915  1.0688  0.6319  1.1380
48691SOL    HW253189   1.567  10.388   1.968  1.1120 -0.2127  3.2402
48692SOL     OW53190   0.171   7.537   4.410 -0.1464  0.5778 -0.5646
48692SOL    HW153191   0.151   7.445   4.393 -0.5059  0.9923 -2.6234
48692SOL    HW253192   0.222   7.535   4.491 -1.5100 -1.2630  0.3335
48693SOL     OW53193   8.708   4.076   9.743  0.0524  0.0701 -0.5834
48693SOL    HW153194   8.743   4.041   9.660  2.0894  0.1201  0.1946
48693SOL    HW253195   8.780   4.064   9.805 -0.8883  1.4467  0.8103
48694SOL     OW53196  10.419   7.943  11.599 -0.0047  0.2665 -0.4057
48694SOL    HW153197  10.503   7.938  11.554  1.0162 -0.8660  1.5010
48694SOL    HW253198  10.388   7.852  11.603 -2.0176  0.7883 -2.2223
48695SOL     OW53199   9.119   7.516   6.324  0.2516 -0.1530  0.1167
48695SOL    HW153200   9.043   7.470   6.358 -0.4298 -0.3624 -1.5609
48695SOL    HW253201   9.181   7.519   6.397 -0.1711 -2.6410  0.6680
48696SOL     OW53202   7.060   0.414   7.547 -0.1996  0.0588 -0.2118
48696SOL    HW153203   7.005   0.409   7.626  1.2346 -1.3628  0.7783
48696SOL    HW253204   7.113   0.493   7.559 -0.7674  0.4584 -0.3086
48697SOL     OW53205   3.568   8.929   0.248  0.1679 -0.0480 -0.0758
48697SOL    HW153206   3.532   8.841   0.244 -0.3361  0.1624 -0.1703
48697SOL    HW253207   3.533   8.974   0.171 -0.0525  0.4095  0.2849
48698SOL     OW53208   9.971   1.304   1.295  0.5909 -0.5114 -0.0852
48698SOL    HW153209  10.046   1.273   1.346  0.2374  2.1167  2.2706
48698SOL    HW253210   9.896   1.290   1.353 -0.7511 -2.3821 -2.0943
48699SOL     OW53211   4.582   7.930  11.491 -0.2992 -0.4003 -0.1561
48699SOL    HW153212   4.606   7.850  11.537  0.8139 -0.5543 -0.9427
48699SOL    HW253213   4.501   7.959  11.532 -0.7659 -1.9711  0.0766
48700SOL     OW53214   1.854   4.232  10.234 -0.0002  0.2312  0.4220
48700SOL    HW153215   1.816   4.261  10.151 -3.9064 -0.2568  1.8365
48700SOL    HW253216   1.839   4.138  10.236  2.0635 -0.1241  0.7953
48701SOL     OW53217   8.682   9.970  10.538 -0.5771  0.0894  0.3170
48701SOL    HW153218   8.624   9.987  10.463 -0.2816 -0.8029 -0.1269
48701SOL    HW253219   8.627   9.922  10.600 -0.6724  0.3655  0.4467
48702SOL     OW53220   2.527   0.222   0.288  0.0581  0.2375 -0.9656
48702SOL    HW153221   2.518   0.278   0.365  1.0799  0.2644 -0.8453
48702SOL    HW253222   2.585   0.271   0.229  2.0481 -1.1934 -0.3131
48703SOL     OW53223  12.068   2.236   3.939  0.1422  0.0352  0.3472
48703SOL    HW153224  12.067   2.142   3.917  1.1900  0.1875 -0.4309
48703SOL    HW253225  12.097   2.239   4.030  2.4605 -0.3312 -0.3063
48704SOL     OW53226   7.718   6.631   7.084 -0.4301  0.3930 -0.1350
48704SOL    HW153227   7.782   6.659   7.019  0.5712 -0.8050  0.2967
48704SOL    HW253228   7.664   6.566   7.039  0.2110 -0.3762  0.1871
48705SOL     OW53229   8.707   7.647   5.496  0.3128 -0.5411  0.4305
48705SOL    HW153230   8.724   7.553   5.491  0.4495 -0.5287  0.6383
48705SOL    HW253231   8.709   7.666   5.590  0.1858 -0.3493  0.3945
48706SOL     OW53232   4.142   7.782  12.868  0.7468  0.3758  0.1782
48706SOL    HW153233   4.137   7.819  12.780 -2.0666 -2.5773 -1.0877
48706SOL    HW253234   4.199   7.706  12.859 -0.8508 -0.9027  0.4287
48707SOL     OW53235   5.444  11.834   1.119 -0.4001  0.2008  0.1808
48707SOL    HW153236   5.513  11.868   1.175  0.7872  0.5518 -1.4124
48707SOL    HW253237   5.405  11.912   1.080  0.8610 -0.0849 -1.8017
48708SOL     OW53238   6.882  10.381  11.278 -0.2986  0.6639 -0.6081
48708SOL    HW153239   6.948  10.312  11.275 -1.3250 -0.5430  2.0251
48708SOL    HW253240   6.934  10.462  11.279  1.2390 -0.2476  1.5957
48709SOL     OW53241   5.736   5.201   6.628  0.2793 -0.1355  0.2808
48709SOL    HW153242   5.741   5.297   6.635  1.6270  0.0844 -2.3744
48709SOL    HW253243   5.798   5.169   6.693 -0.2917  0.7359  1.3035
48710SOL     OW53244  12.059   5.701   7.593  0.3393  0.1739 -0.2170
48710SOL    HW153245  12.108   5.749   7.527  2.4058 -0.7506  0.5554
48710SOL    HW253246  11.998   5.765   7.629  0.2512  1.0996 -1.8993
48711SOL     OW53247   2.690   3.635   7.987 -0.0431  0.1250  0.1813
48711SOL    HW153248   2.721   3.711   7.938 -0.6569  0.7723  0.7750
48711SOL    HW253249   2.748   3.564   7.961  0.8217  0.9013 -0.0409
48712SOL     OW53250   1.730   5.290   0.672  0.1418 -0.2321  0.3040
48712SOL    HW153251   1.748   5.369   0.623  0.8961  0.5182  1.7184
48712SOL    HW253252   1.635   5.289   0.682 -0.0791 -0.6991 -1.5881
48713SOL     OW53253   5.302  12.955   5.550  0.4646 -0.4269  0.0618
48713SOL    HW153254   5.339  13.026   5.498 -1.1088  0.2422 -0.1969
48713SOL    HW253255   5.356  12.952   5.629  0.7889  0.8023 -0.0978
48714SOL     OW53256   1.638   5.778  12.532 -0.0535  0.6501 -0.0798
48714SOL    HW153257   1.693   5.744  12.461  0.2243  0.9759 -0.0201
48714SOL    HW253258   1.652   5.716  12.604 -1.3422 -0.4412 -0.7110
48715SOL     OW53259  10.493  12.696   8.663 -0.4666  0.3407  0.1884
48715SOL    HW153260  10.447  12.626   8.708  0.5686  0.8863  2.1972
48715SOL    HW253261  10.433  12.724   8.594 -1.1940 -2.0092 -0.2386
48716SOL     OW53262  11.225  10.582   0.259 -0.0212 -0.1196  0.6214
48716SOL    HW153263  11.144  10.535   0.239  1.2864 -1.9483 -0.6936
48716SOL    HW253264  11.237  10.642   0.185  0.6668 -1.0971 -0.0911
48717SOL     OW53265   7.917   6.637  12.663 -0.8617  0.1476 -0.1415
48717SOL    HW153266   7.896   6.594  12.580 -1.2058 -2.4235  1.1921
48717SOL    HW253267   7.998   6.596  12.691 -0.0117  1.9711  0.1884
48718SOL     OW53268   8.328  10.238   8.583  0.2094  0.0996  0.2064
48718SOL    HW153269   8.335  10.143   8.584  2.1979  0.2185  0.7535
48718SOL    HW253270   8.414  10.269   8.555 -0.9472  1.7333 -1.8637
48719SOL     OW53271   2.192   0.122   7.305  0.4678  0.1498  0.4210
48719SOL    HW153272   2.191   0.218   7.313  2.3200  0.0855  2.0756
48719SOL    HW253273   2.133   0.091   7.373  0.0569  0.0955  0.0447
48720SOL     OW53274   0.512   4.222  10.564 -0.0322  0.0383  0.5626
48720SOL    HW153275   0.483   4.218  10.473 -1.4351  1.4618  0.9047
48720SOL    HW253276   0.607   4.232  10.558 -0.1279  0.3863 -0.7487
48721SOL     OW53277   4.843   9.199   2.431  0.0640 -0.3599 -0.0019
48721SOL    HW153278   4.844   9.237   2.343 -0.9798 -1.3934 -0.4910
48721SOL    HW253279   4.751   9.177   2.446  0.2348 -0.2282  1.3406
48722SOL     OW53280   3.929   3.075   8.809  0.6233  0.0257 -0.4072
48722SOL    HW153281   3.909   2.999   8.754 -0.0915  0.7956 -1.2327
48722SOL    HW253282   3.909   3.150   8.755  0.2487  0.8160  0.7907
48723SOL     OW53283   0.779   4.692   4.775  0.4192  0.1928 -0.2785
48723SOL    HW153284   0.742   4.615   4.818 -0.2101  0.4991 -0.2521
48723SOL    HW253285   0.797   4.753   4.846 -1.4991  1.0716 -0.4657
48724SOL     OW53286   0.218   7.756   9.544 -0.5784 -0.6178 -0.1208
48724SOL    HW153287   0.270   7.718   9.473 -0.6421  1.1226 -1.1678
48724SOL    HW253288   0.147   7.802   9.499 -1.5541 -0.8175  1.1713
48725SOL     OW53289  11.689   2.753   8.739  0.0367 -0.1072 -0.2045
48725SOL    HW153290  11.758   2.819   8.733  0.0716 -0.1058  0.1675
48725SOL    HW253291  11.717   2.684   8.679  1.3451 -0.9708  1.3062
48726SOL     OW53292   5.123   9.072   7.490  0.3930 -0.1223 -0.5492
48726SOL    HW153293   5.124   9.140   7.557 -0.1111 -0.8193  0.1879
48726SOL    HW253294   5.179   9.003   7.525 -0.7767 -0.9765 -0.3180
48727SOL     OW53295   5.958   4.944   2.138  0.2286  0.2434  0.0666
48727SOL    HW153296   5.894   4.879   2.107  2.1208 -1.9091  0.3524
48727SOL    HW253297   5.906   5.021   2.160 -2.0041 -0.6899 -1.5758
48728SOL     OW53298  12.886  11.362   1.953  0.0644 -0.2702  0.4272
48728SOL    HW153299  12.870  11.293   2.018  1.1347 -0.3390  0.6463
48728SOL    HW253300  12.799  11.384   1.919 -0.3594 -1.2923  0.7981
48729SOL     OW53301  11.608   7.763   1.172  0.1339 -0.0335  1.1785
48729SOL    HW153302  11.602   7.852   1.208 -1.0503  0.1909  0.4767
48729SOL    HW253303  11.702   7.748   1.161  0.3257  1.5781  0.2548
48730SOL     OW53304   0.358  12.835   8.534  0.3624 -0.6884  0.1363
48730SOL    HW153305   0.379  12.837   8.441 -0.6106 -0.8978 -0.1028
48730SOL    HW253306   0.279  12.781   8.539  1.1305 -1.7404  1.2420
48731SOL     OW53307   4.990   8.959   3.875  0.3023  0.3626 -0.2823
48731SOL    HW153308   5.043   9.033   3.846 -0.1419  0.6900 -0.2645
48731SOL    HW253309   5.047   8.883   3.862  0.6505  0.6683 -0.5978
48732SOL     OW53310  11.877   8.887   0.002 -0.6289  0.4637 -0.0585
48732SOL    HW153311  11.783   8.891  -0.016 -0.7464 -1.2427 -0.0032
48732SOL    HW253312  11.895   8.794   0.018  0.8645  0.8969  1.0871
48733SOL     OW53313   4.454   9.962   3.530 -0.3863 -0.0828 -0.1711
48733SOL    HW153314   4.369   9.958   3.573  0.6945 -0.4863  2.0502
48733SOL    HW253315   4.495   9.878   3.549  1.6926  1.1930  1.4620
48734SOL     OW53316   6.742   0.075   4.937  0.2386 -0.3766  0.4187
48734SOL    HW153317   6.760   0.168   4.952 -1.0389 -0.3266  1.8289
48734SOL    HW253318   6.648   0.066   4.950  0.1221 -1.6557 -1.0092
48735SOL     OW53319   1.950   4.231  11.022  0.3100 -0.3886 -0.1121
48735SOL    HW153320   1.872   4.181  11.047  0.3286 -0.5300 -0.3299
48735SOL    HW253321   1.966   4.205  10.931 -0.2501  0.7407 -0.5548
48736SOL     OW53322   3.876   6.294   4.175 -0.0901 -0.4470 -0.2458
48736SOL    HW153323   3.899   6.315   4.084 -0.8553 -3.2188 -1.1840
48736SOL    HW253324   3.854   6.201   4.173 -2.1132 -0.1386  2.4074
48737SOL     OW53325   0.889   1.930   2.062  0.1327  0.8579 -0.0460
48737SOL    HW153326   0.854   2.018   2.049 -1.5682 -0.0093 -1.7930
48737SOL    HW253327   0.818   1.882   2.103  0.5571 -0.0448 -0.3423
48738SOL     OW53328  10.015  11.214   3.051  0.2703 -0.5336 -0.2047
48738SOL    HW153329   9.979  11.176   3.132  0.0389 -0.6032 -0.3398
48738SOL    HW253330   9.963  11.174   2.981  1.6382 -1.8674 -0.5105
48739SOL     OW53331   9.130   5.999   1.165 -0.1464  0.0953 -0.7707
48739SOL    HW153332   9.053   6.054   1.152  1.4039  2.2628 -1.5955
48739SOL    HW253333   9.126   5.934   1.095 -1.3820 -0.0491 -0.5834
48740SOL     OW53334   8.561   1.911   9.366  0.6200 -0.1258 -0.0578
48740SOL    HW153335   8.485   1.928   9.422 -0.0544  3.0302 -1.7419
48740SOL    HW253336   8.628   1.970   9.398  0.9295  0.1796 -1.2294
48741SOL     OW53337   9.400  11.992   2.211 -0.1538 -0.3613 -0.6004
48741SOL    HW153338   9.425  12.012   2.120  0.6240  0.6576 -0.1833
48741SOL    HW253339   9.475  12.021   2.263 -1.0306  0.0721  0.4607
48742SOL     OW53340   1.865   6.813  12.317  0.0380  0.2736 -0.0533
48742SOL    HW153341   1.801   6.781  12.381 -0.9716  1.7381 -0.2945
48742SOL    HW253342   1.826   6.793  12.232  0.2017  0.5909 -0.2028
48743SOL     OW53343   1.233   7.608  11.493  0.2679 -0.2316  0.1100
48743SOL    HW153344   1.295   7.543  11.525 -1.6020 -2.8260 -1.1608
48743SOL    HW253345   1.202   7.572  11.410 -3.1928  0.6383  0.8545
48744SOL     OW53346   1.479   1.367   6.636 -0.3070 -0.3849 -0.2937
48744SOL    HW153347   1.462   1.442   6.579  0.7377 -1.1115 -1.6109
48744SOL    HW253348   1.541   1.401   6.701  0.5874 -0.2176 -1.2063
48745SOL     OW53349   7.809   1.240   5.484 -0.0614 -0.3348  0.0312
48745SOL    HW153350   7.873   1.268   5.549  0.9075  1.1984 -1.4839
48745SOL    HW253351   7.739   1.306   5.489 -0.1591 -0.4195 -0.2077
48746SOL     OW53352  12.774   9.138   6.484 -0.1015  0.3056  0.0644
48746SOL    HW153353  12.798   9.045   6.477 -2.2517 -0.2062 -1.0855
48746SOL    HW253354  12.811   9.178   6.405 -1.1580 -0.0552 -0.6258
48747SOL     OW53355   0.924  10.901  10.388  0.3991  0.1788  0.2875
48747SOL    HW153356   0.957  10.828  10.441  2.1403  1.3475  0.8682
48747SOL    HW253357   0.964  10.888  10.302 -0.8624 -0.6101 -0.2137
48748SOL     OW53358  10.853   5.472  10.346 -1.0423  0.4982 -0.4751
48748SOL    HW153359  10.788   5.530  10.386 -1.4570 -0.0274 -0.3674
48748SOL    HW253360  10.870   5.510  10.260  0.1948  1.9030  0.3339
48749SOL     OW53361  10.728  11.900   1.839  0.1034 -0.2151 -0.0029
48749SOL    HW153362  10.793  11.970   1.834  1.2659 -1.3167 -1.0550
48749SOL    HW253363  10.779  11.819   1.831 -1.2812 -1.1632  0.3738
48750SOL     OW53364   1.775   3.194   1.509  0.1643 -0.0029 -0.0552
48750SOL    HW153365   1.764   3.187   1.604 -1.2501 -1.3059 -0.2772
48750SOL    HW253366   1.791   3.287   1.494 -2.2437  0.7201  1.2415
48751SOL     OW53367   8.347   6.938  10.245 -0.4129  0.1330  0.2409
48751SOL    HW153368   8.288   6.942  10.169  0.4235  0.2183 -0.4227
48751SOL    HW253369   8.296   6.894  10.313 -0.8999 -0.6963 -0.6351
48752SOL     OW53370  12.730   0.861   8.589  0.0911 -0.3034  0.2660
48752SOL    HW153371  12.716   0.871   8.495  0.7848 -0.3245  0.1548
48752SOL    HW253372  12.643   0.866   8.627 -0.1229  0.5754 -0.3030
48753SOL     OW53373   2.325   2.965   9.775 -0.1919 -0.0679  0.4567
48753SOL    HW153374   2.241   2.971   9.730 -0.8971  0.9686  1.8239
48753SOL    HW253375   2.381   2.916   9.715 -1.1273  1.0564 -1.4332
48754SOL     OW53376   6.628   3.039  12.118  0.3632  0.5835  0.1056
48754SOL    HW153377   6.533   3.030  12.114  0.1708  1.7268  1.3706
48754SOL    HW253378   6.645   3.074  12.206  2.0035 -0.1950  0.1344
48755SOL     OW53379  10.854   3.108   9.161  0.2470 -0.1515  0.0255
48755SOL    HW153380  10.855   3.171   9.233 -1.8624  0.5778 -0.5154
48755SOL    HW253381  10.936   3.125   9.114  1.2053  0.0021  1.6437
48756SOL     OW53382   2.469   8.930  11.719 -0.1697  0.6326  0.3758
48756SOL    HW153383   2.432   8.973  11.642 -0.8568 -0.7154 -0.0833
48756SOL    HW253384   2.563   8.933  11.706 -0.2918 -0.1270 -0.8516
48757SOL     OW53385  12.853   1.554   0.397  0.9408  0.0934 -0.0235
48757SOL    HW153386  12.945   1.527   0.395  0.7201 -0.6632 -0.0849
48757SOL    HW253387  12.805   1.479   0.363  0.2201  0.1620  0.8069
48758SOL     OW53388   4.792   5.284   6.419  0.5696 -0.1847 -0.1676
48758SOL    HW153389   4.775   5.340   6.343 -1.4728  1.2854  1.2484
48758SOL    HW253390   4.709   5.239   6.434  1.1425 -0.9253  0.8073
48759SOL     OW53391   9.133  11.023   5.179 -0.0348  0.4534 -0.3621
48759SOL    HW153392   9.083  11.016   5.261  0.4096 -0.1961 -0.1339
48759SOL    HW253393   9.077  10.981   5.114  0.5739 -1.1268  0.0763
48760SOL     OW53394   9.111  11.734   8.593  0.2220 -0.4323  0.3842
48760SOL    HW153395   9.030  11.781   8.571 -2.1373 -2.9385  2.8707
48760SOL    HW253396   9.144  11.779   8.671  1.8261  1.1538 -1.1589
48761SOL     OW53397   1.492   2.720  10.854  0.5288  0.3515 -0.0184
48761SOL    HW153398   1.452   2.757  10.933 -0.8418  0.7623 -0.8750
48761SOL    HW253399   1.426   2.661  10.819  0.8500  0.7099 -1.2479
48762SOL     OW53400   4.513   4.505  10.005 -0.2667 -0.1157  0.3533
48762SOL    HW153401   4.507   4.417  10.044 -1.8239 -0.0502  0.2880
48762SOL    HW253402   4.494   4.491   9.912 -1.0135  0.3497  0.4292
48763SOL     OW53403   8.706   4.424   6.478 -0.1774 -0.4008 -0.3641
48763SOL    HW153404   8.792   4.456   6.506  0.0291 -0.1325 -1.2874
48763SOL    HW253405   8.713   4.328   6.485  1.1346 -0.5894 -2.9153
48764SOL     OW53406   3.468   1.076   2.173 -0.1011 -0.1685  0.2987
48764SOL    HW153407   3.542   1.089   2.114  0.0804  0.2534  0.6125
48764SOL    HW253408   3.477   1.145   2.238  0.7945 -1.7243  1.9269
48765SOL     OW53409   0.728  11.762   5.105  0.2629  0.0959 -0.3272
48765SOL    HW153410   0.689  11.803   5.182 -0.2120  2.0860 -1.5423
48765SOL    HW253411   0.751  11.674   5.133 -1.9826 -0.0191  1.4355
48766SOL     OW53412  11.116  12.705  12.761  0.3159 -0.0796  0.1136
48766SOL    HW153413  11.085  12.783  12.716  1.3242 -0.2285 -0.8783
48766SOL    HW253414  11.085  12.632  12.708 -2.1583 -0.5023  1.9747
48767SOL     OW53415   7.523   5.282   7.715 -0.1790  0.2499  0.3737
48767SOL    HW153416   7.454   5.253   7.775  0.6691 -0.6864  0.9104
48767SOL    HW253417   7.497   5.371   7.691 -1.8296 -0.2474  0.1833
48768SOL     OW53418  12.604   9.135   7.981 -0.2284 -0.0043  0.0846
48768SOL    HW153419  12.545   9.093   7.918  0.0850 -0.4526  0.0846
48768SOL    HW253420  12.672   9.070   7.996 -0.2648  0.1258  0.8414
48769SOL     OW53421  12.850   4.696   3.103 -0.8293  0.3429 -0.5736
48769SOL    HW153422  12.781   4.732   3.048 -1.4907  0.9083  0.6011
48769SOL    HW253423  12.831   4.728   3.191  1.0120  0.6434 -0.2348
48770SOL     OW53424   9.193   1.458   5.242  0.7631  0.2964  0.4094
48770SOL    HW153425   9.120   1.512   5.213  1.6200  0.6609 -1.1677
48770SOL    HW253426   9.159   1.411   5.318 -0.9519  0.8006 -0.0014
48771SOL     OW53427  12.268   6.749   4.385  0.5517 -0.4141  0.5694
48771SOL    HW153428  12.310   6.818   4.334  0.7732 -0.0104  1.2903
48771SOL    HW253429  12.339   6.709   4.435  0.0666  0.4723  2.0302
48772SOL     OW53430  10.762   5.828  11.730  0.5445 -0.4084  0.1420
48772SOL    HW153431  10.709   5.907  11.718 -0.1852 -0.2813  3.2951
48772SOL    HW253432  10.847   5.862  11.759  0.9077 -0.7407 -0.5285
48773SOL     OW53433   7.473   7.027  10.520 -0.7810 -0.2786  0.2447
48773SOL    HW153434   7.524   7.090  10.468 -1.0845  1.6992  2.1962
48773SOL    HW253435   7.486   7.054  10.611  0.6466 -4.3133  1.4301
48774SOL     OW53436   7.965  11.681  12.857  0.2802 -0.7335  0.1679
48774SOL    HW153437   7.873  11.709  12.854 -0.2981 -2.2691 -4.6263
48774SOL    HW253438   8.013  11.759  12.884 -2.2925  0.1829  2.6272
48775SOL     OW53439   6.798   4.348  11.689  0.0944 -0.1065  0.2791
48775SOL    HW153440   6.848   4.328  11.768 -0.3759 -0.0962  0.5852
48775SOL    HW253441   6.846   4.305  11.618  0.0930 -0.7720  0.6738
48776SOL     OW53442   1.700   1.619  11.841  0.4047 -0.0756 -0.1958
48776SOL    HW153443   1.635   1.571  11.892 -1.8431  0.8702 -1.9938
48776SOL    HW253444   1.694   1.709  11.873 -1.2835  0.6023 -2.2085
48777SOL     OW53445  11.831  10.946   6.221 -0.1392  0.0041 -0.2615
48777SOL    HW153446  11.877  10.940   6.137 -0.1283  0.8619 -0.3334
48777SOL    HW253447  11.748  10.990   6.200  0.8078  2.3005  0.4728
48778SOL     OW53448   1.111   2.376  10.198  0.2783  0.2716  0.0483
48778SOL    HW153449   1.082   2.399  10.286 -0.1328  1.4951 -0.3966
48778SOL    HW253450   1.206   2.387  10.201  0.2509  0.4509  0.2974
48779SOL     OW53451   4.606   9.012   3.685 -0.2947  0.1346  0.8001
48779SOL    HW153452   4.537   8.965   3.732  0.5119 -0.9156  0.9709
48779SOL    HW253453   4.669   9.036   3.753 -0.6849  1.4912  0.7135
48780SOL     OW53454   3.580   0.700   8.922  0.2905  0.3444 -0.0185
48780SOL    HW153455   3.577   0.638   8.849  0.3611  1.3251 -0.8748
48780SOL    HW253456   3.565   0.786   8.881  0.3572  0.9126  1.1177
48781SOL     OW53457   0.279   2.622   6.022  0.6600  0.0465  0.5981
48781SOL    HW153458   0.274   2.569   5.942 -0.6730  0.5541  0.3033
48781SOL    HW253459   0.225   2.698   6.002  1.1367  0.6647  1.6384
48782SOL     OW53460   1.198   9.792   1.381  0.3954  0.5286  0.1684
48782SOL    HW153461   1.155   9.770   1.464  0.8138 -1.0441  0.0007
48782SOL    HW253462   1.135   9.846   1.334  0.4106  2.0229  1.7672
48783SOL     OW53463   1.583   3.218  12.510  0.7740 -0.2859 -0.3952
48783SOL    HW153464   1.625   3.132  12.504 -3.0114 -2.5940  2.2528
48783SOL    HW253465   1.523   3.220  12.437  0.3482 -0.2323 -0.0455
48784SOL     OW53466   0.301   6.743   7.331  0.1174 -0.1829 -0.2886
48784SOL    HW153467   0.397   6.742   7.331  0.2622 -3.8597  0.8538
48784SOL    HW253468   0.278   6.798   7.406  1.3474  0.3613 -0.2804
48785SOL     OW53469   6.837  10.761   8.847  0.1776  0.1467  0.0084
48785SOL    HW153470   6.895  10.707   8.794 -0.5000 -0.1451 -0.4541
48785SOL    HW253471   6.884  10.775   8.928  0.6875 -0.4933 -0.1705
48786SOL     OW53472   1.917   5.371  10.454  0.2823 -0.2170  0.7114
48786SOL    HW153473   1.989   5.310  10.442  0.7966  0.4156  0.5483
48786SOL    HW253474   1.840   5.315  10.467  0.5663 -0.9149 -0.4317
48787SOL     OW53475   1.302   6.486   8.998 -0.0822 -0.0721 -1.1626
48787SOL    HW153476   1.246   6.551   8.956 -1.1103 -1.6110 -2.3194
48787SOL    HW253477   1.309   6.416   8.933  1.8228 -0.6739 -0.3649
48788SOL     OW53478   9.466   8.704   7.573  0.0520 -0.0875  0.3432
48788SOL    HW153479   9.371   8.717   7.577  0.1398  0.7188 -0.0616
48788SOL    HW253480   9.479   8.645   7.498 -0.0578  0.6185 -0.2417
48789SOL     OW53481  10.236   6.525   5.788 -0.8354  0.0511 -0.3534
48789SOL    HW153482  10.150   6.502   5.754 -1.5235 -0.4793  1.6198
48789SOL    HW253483  10.262   6.451   5.842  0.8557  0.2296 -0.8590
48790SOL     OW53484   3.023   5.682  11.455 -0.4472 -0.3373  0.1669
48790SOL    HW153485   3.002   5.660  11.365 -1.8317  0.4198  0.2813
48790SOL    HW253486   2.938   5.700  11.496  0.2666  0.8625  1.2013
48791SOL     OW53487  12.921   6.380   1.558 -0.4729  0.0865  0.5798
48791SOL    HW153488  12.864   6.368   1.634  0.1306 -0.2890  0.9892
48791SOL    HW253489  12.861   6.389   1.484 -1.0591 -1.3782  0.8409
48792SOL     OW53490   7.676   2.622   8.690  0.0076  0.3603 -0.2988
48792SOL    HW153491   7.640   2.535   8.677  1.7651 -0.7259  1.5083
48792SOL    HW253492   7.731   2.614   8.769  1.5554  2.6666 -1.0256
48793SOL     OW53493   5.021   3.498  11.781  0.6908  0.2075 -0.2612
48793SOL    HW153494   5.074   3.512  11.859  0.3412  0.6907 -0.1062
48793SOL    HW253495   4.979   3.583  11.765  1.2013  0.2738 -1.3059
48794SOL     OW53496   4.948   0.005   4.580  0.0050 -0.4597  0.3948
48794SOL    HW153497   4.854   0.015   4.598  0.2046  1.2431  0.6233
48794SOL    HW253498   4.953  -0.003   4.485 -0.3393 -0.1009  0.3431
48795SOL     OW53499   6.610   6.101   8.218 -0.5165 -1.5003 -0.0565
48795SOL    HW153500   6.637   6.091   8.127 -0.0262  0.7363 -0.1958
48795SOL    HW253501   6.550   6.028   8.233 -1.4252 -1.3327 -2.4869
48796SOL     OW53502   8.359   2.585   9.234 -0.2594  0.0368 -0.3768
48796SOL    HW153503   8.353   2.507   9.179 -0.3970  0.1407 -0.5078
48796SOL    HW253504   8.316   2.654   9.183  1.4284  0.6325 -1.0724
48797SOL     OW53505   8.140   2.573  11.088 -0.1345  0.0318  0.5370
48797SOL    HW153506   8.208   2.506  11.084  1.5940  1.7503 -1.7511
48797SOL    HW253507   8.187   2.656  11.094 -2.0442  1.2375  0.0406
48798SOL     OW53508   4.905  10.427   1.100  0.4381  0.3206  0.4514
48798SOL    HW153509   4.942  10.515   1.095  0.8392  0.1405  0.1353
48798SOL    HW253510   4.860  10.415   1.016  1.5733 -0.2791 -0.1095
48799SOL     OW53511   7.619   8.803   2.072 -0.1196  0.2334  0.0224
48799SOL    HW153512   7.654   8.716   2.093  1.2459  0.8989  0.6637
48799SOL    HW253513   7.653   8.821   1.985 -1.1866 -0.2407 -0.5108
48800SOL     OW53514   3.102   1.580   4.301 -0.1089  0.2130  0.5200
48800SOL    HW153515   3.057   1.560   4.219 -1.5391 -0.5759  1.4547
48800SOL    HW253516   3.059   1.659   4.333  0.2656  0.3693  0.6393
48801SOL     OW53517   7.911  12.405   3.828 -0.3904 -0.1178 -0.0317
48801SOL    HW153518   7.918  12.310   3.833 -0.3936 -0.1703 -0.9270
48801SOL    HW253519   7.962  12.430   3.751 -1.0776  0.5220 -0.3040
48802SOL     OW53520   3.778   8.537  11.777  0.4392  0.7859 -0.0513
48802SOL    HW153521   3.764   8.537  11.682  0.9596 -0.4101 -0.1542
48802SOL    HW253522   3.765   8.446  11.803 -0.4733  1.2396  1.1633
48803SOL     OW53523   3.682   1.071   4.877  0.1677  0.0603 -0.0943
48803SOL    HW153524   3.644   0.990   4.842 -0.2657  0.1760  0.0942
48803SOL    HW253525   3.737   1.105   4.806  2.3334 -1.6527  0.6572
48804SOL     OW53526   7.324   2.181   0.010  0.5995  0.0441 -0.5943
48804SOL    HW153527   7.368   2.109   0.054  0.0844 -1.3052 -2.1792
48804SOL    HW253528   7.283   2.231   0.081  0.6297 -1.4561  0.5302
48805SOL     OW53529   8.744   2.217   3.509  0.2828  0.0720  0.3915
48805SOL    HW153530   8.704   2.130   3.503  0.9092 -0.2010  0.0445
48805SOL    HW253531   8.832   2.201   3.542 -0.2008  0.7577  2.1049
48806SOL     OW53532   4.341  12.789  10.343  0.1213  0.0058  0.1482
48806SOL    HW153533   4.349  12.808  10.250  0.4506  0.0358  0.1834
48806SOL    HW253534   4.292  12.863  10.379  0.4288  0.2410  0.0872
48807SOL     OW53535  10.905   6.263   0.997 -0.2401  0.0681  0.1106
48807SOL    HW153536  10.841   6.335   0.998  0.7993  1.0023  0.8034
48807SOL    HW253537  10.866   6.198   0.938 -1.0854  1.2959 -0.7386
48808SOL     OW53538   5.997  12.263   9.630  0.8474 -0.0560  0.6301
48808SOL    HW153539   6.004  12.253   9.535  0.4223  0.5445  0.5350
48808SOL    HW253540   6.010  12.174   9.664  1.5490 -0.1832  0.0484
48809SOL     OW53541   7.403  11.268  10.819  0.0958 -0.2869 -0.1699
48809SOL    HW153542   7.363  11.315  10.893 -0.4349  2.3167 -1.9833
48809SOL    HW253543   7.491  11.305  10.812  0.1879 -0.6077 -0.7790
48810SOL     OW53544   4.644   1.488   0.271 -0.3244 -0.2857 -0.0661
48810SOL    HW153545   4.643   1.435   0.191 -2.1359  1.5603 -1.3775
48810SOL    HW253546   4.733   1.477   0.306  1.1295  0.1329 -3.2531
48811SOL     OW53547   0.468   2.967   9.466  0.1477  0.7742  0.6430
48811SOL    HW153548   0.468   3.022   9.544 -0.3140 -0.2644  1.4044
48811SOL    HW253549   0.376   2.950   9.448  0.2949 -0.6785  1.1230
48812SOL     OW53550   2.335   5.207  10.017 -0.4724  0.3628  0.1419
48812SOL    HW153551   2.320   5.125  10.064  2.1130 -0.9964 -1.1874
48812SOL    HW253552   2.251   5.227   9.976 -0.7776 -2.6068 -0.8770
48813SOL     OW53553  10.604   0.276   1.811 -0.6893 -0.2177 -0.2884
48813SOL    HW153554  10.608   0.259   1.717 -0.3485  0.3297 -0.3731
48813SOL    HW253555  10.649   0.359   1.823  1.7584 -1.5634  0.6899
48814SOL     OW53556   5.328  11.845   0.160  0.0359 -0.7233 -0.4589
48814SOL    HW153557   5.305  11.769   0.213 -1.3384 -0.2238 -0.3036
48814SOL    HW253558   5.257  11.853   0.097  0.5805 -0.0483 -1.0032
48815SOL     OW53559   1.708   4.547   8.261  0.4271  0.3724  1.0579
48815SOL    HW153560   1.617   4.576   8.276 -0.1650 -1.2250  0.7011
48815SOL    HW253561   1.715   4.464   8.307  1.4284  0.0120  0.2908
48816SOL     OW53562  10.426  11.268   4.148 -0.2165 -0.2081 -0.0780
48816SOL    HW153563  10.423  11.329   4.221 -0.4715 -1.6425  1.1406
48816SOL    HW253564  10.366  11.307   4.083 -0.0829  1.0176  0.4922
48817SOL     OW53565   7.037   5.919  12.229  0.5388  0.3275  0.0925
48817SOL    HW153566   7.113   5.867  12.203  1.3252  1.0776  0.8139
48817SOL    HW253567   6.963   5.879  12.183  1.0861 -1.5015  0.7186
48818SOL     OW53568   9.574   9.350   3.866  0.0191  0.0686 -0.0165
48818SOL    HW153569   9.498   9.380   3.916  0.0115 -0.6330  0.4034
48818SOL    HW253570   9.648   9.362   3.925 -0.1411 -1.8900  0.6576
48819SOL     OW53571   0.110   2.294   6.732  0.3625  0.3497  0.5274
48819SOL    HW153572   0.134   2.356   6.800  1.1153  0.0221  0.5815
48819SOL    HW253573   0.170   2.220   6.746 -0.4174 -0.3217  0.3808
48820SOL     OW53574   5.963   2.610  10.091  0.1540  0.0995  0.1748
48820SOL    HW153575   5.884   2.663  10.100  0.8084  1.0051  0.7550
48820SOL    HW253576   5.933   2.529  10.050 -1.0571  0.4562  0.3182
48821SOL     OW53577   6.901   9.338   2.831  0.2724 -0.2716  0.2147
48821SOL    HW153578   6.913   9.253   2.789 -1.1460  0.2038 -1.2686
48821SOL    HW253579   6.968   9.394   2.792  0.0915 -0.2789 -0.1096
48822SOL     OW53580  12.753   2.916   5.724 -0.2588 -0.4175 -0.1428
48822SOL    HW153581  12.772   2.985   5.660 -0.0552 -0.1843  0.1632
48822SOL    HW253582  12.699   2.853   5.677 -1.3751  0.4970 -0.1140
48823SOL     OW53583   2.810  10.316   1.332 -0.2049  0.1895 -0.1216
48823SOL    HW153584   2.741  10.361   1.283  1.1487 -1.4073 -3.8930
48823SOL    HW253585   2.883  10.378   1.331 -0.0871  0.0486 -0.4169
48824SOL     OW53586   9.334   1.983  12.106  0.3749 -0.4515  0.1029
48824SOL    HW153587   9.378   1.931  12.173  1.5547  2.0196  1.4118
48824SOL    HW253588   9.401   2.045  12.076 -0.6658 -0.2628 -2.0637
48825SOL     OW53589   5.636   7.225   8.458  0.1421 -0.5597  0.6162
48825SOL    HW153590   5.563   7.253   8.402  0.5149  1.8361  1.1804
48825SOL    HW253591   5.689   7.169   8.402 -0.6511 -0.0173 -0.7274
48826SOL     OW53592   6.712   2.827  10.173 -0.1242 -0.1785 -0.4895
48826SOL    HW153593   6.723   2.828  10.268  0.7142  0.4351 -0.5771
48826SOL    HW253594   6.690   2.736  10.152 -0.1264 -0.3576  0.2748
48827SOL     OW53595   1.645   1.552   6.730 -1.0389 -1.0229  0.1119
48827SOL    HW153596   1.609   1.635   6.762 -0.3854 -0.7069  0.0554
48827SOL    HW253597   1.738   1.570   6.716 -1.1182 -1.4172 -1.0643
48828SOL     OW53598  11.088   4.908   3.927 -0.4204  0.3347  0.0687
48828SOL    HW153599  11.150   4.964   3.879 -1.1342  0.2133 -1.0396
48828SOL    HW253600  11.007   4.959   3.929 -0.2731  0.5425  1.6184
48829SOL     OW53601  11.571  10.496   2.035 -0.1058 -0.9870 -0.0488
48829SOL    HW153602  11.493  10.479   2.089 -0.0719 -1.7436 -0.2281
48829SOL    HW253603  11.602  10.582   2.065 -0.4505 -1.1109  0.7034
48830SOL     OW53604   5.526   0.329   0.558 -0.3788  0.1288 -0.1225
48830SOL    HW153605   5.479   0.335   0.475 -0.0429  0.6806 -0.2791
48830SOL    HW253606   5.615   0.302   0.533 -0.9233 -2.2320  0.2799
48831SOL     OW53607  10.535   7.595   7.166 -0.3100  0.4683  0.0122
48831SOL    HW153608  10.601   7.538   7.126 -0.2172  0.7101 -0.1744
48831SOL    HW253609  10.543   7.577   7.260 -0.7702 -0.3612 -0.0939
48832SOL     OW53610  12.833   8.522   1.931 -0.1267 -0.2386 -0.2221
48832SOL    HW153611  12.881   8.560   1.858 -2.4006  0.7854 -1.2923
48832SOL    HW253612  12.795   8.598   1.976 -3.3630 -1.0104 -1.3763
48833SOL     OW53613   8.976   0.265  11.556  0.3671  0.0334  0.3740
48833SOL    HW153614   9.002   0.319  11.630  2.7140 -1.9791  1.1331
48833SOL    HW253615   8.883   0.249  11.570  0.1020  2.0394  1.2743
48834SOL     OW53616   6.109   3.827   9.065 -0.4299 -0.0228  0.1947
48834SOL    HW153617   6.061   3.833   8.983 -1.0913  0.6961  0.6174
48834SOL    HW253618   6.090   3.740   9.099  2.4203 -1.6575 -1.9243
48835SOL     OW53619   3.095   3.181  10.055  0.7469  0.0900 -0.3673
48835SOL    HW153620   3.048   3.191   9.972 -0.1499 -1.0589 -0.0354
48835SOL    HW253621   3.178   3.140  10.031  0.7245  0.2582 -0.7435
48836SOL     OW53622   7.538   5.095   6.528 -0.1932 -0.0259  0.4792
48836SOL    HW153623   7.449   5.100   6.494  0.4022  0.1131 -1.1768
48836SOL    HW253624   7.548   5.175   6.580 -0.5203  0.8243 -0.7108
48837SOL     OW53625   9.126  11.422   4.584  0.6911 -0.1424 -0.0894
48837SOL    HW153626   9.190  11.369   4.631  0.3045 -1.0641 -0.5847
48837SOL    HW253627   9.047  11.417   4.637  1.4534  2.4550  1.4850
48838SOL     OW53628   0.966   4.888   9.546  0.5704 -0.0566  0.2725
48838SOL    HW153629   0.934   4.903   9.635  0.4660  0.9225  0.0791
48838SOL    HW253630   0.974   4.792   9.539  0.6440 -0.1395  1.3501
48839SOL     OW53631  10.989  11.232  12.064  0.0421 -0.6369 -0.1042
48839SOL    HW153632  10.967  11.286  12.141 -1.7629 -1.0276 -0.3206
48839SOL    HW253633  10.993  11.295  11.992 -1.3903 -0.6675 -0.2342
48840SOL     OW53634   9.453   4.425   2.828 -0.1702 -0.0378  0.3139
48840SOL    HW153635   9.463   4.341   2.872  0.1600 -0.1335  0.0577
48840SOL    HW253636   9.525   4.428   2.765 -0.7714 -0.0109 -0.3871
48841SOL     OW53637   3.078  10.091   7.234  0.5097 -0.4303  0.5953
48841SOL    HW153638   3.073  10.060   7.144  0.6561 -1.0393  0.7931
48841SOL    HW253639   3.041  10.179   7.231 -0.5893 -0.8981  0.1657
48842SOL     OW53640   3.907   0.477  10.910  0.0442  0.0738  0.1080
48842SOL    HW153641   3.851   0.526  10.971 -0.1168 -0.2228  0.1981
48842SOL    HW253642   3.878   0.504  10.824  0.5683  0.8356  0.1600
48843SOL     OW53643  11.732  11.475   4.601  0.2986  0.7563 -0.1752
48843SOL    HW153644  11.757  11.437   4.516  1.1997 -2.3449  1.3212
48843SOL    HW253645  11.807  11.529   4.625 -0.0053  1.7486 -1.3439
48844SOL     OW53646   8.945   8.245  11.657  0.0248 -0.1363  0.1369
48844SOL    HW153647   9.007   8.228  11.727  0.1883 -0.7271 -0.1455
48844SOL    HW253648   8.859   8.231  11.697  0.1456 -3.1683 -0.4032
48845SOL     OW53649  12.360   1.820   9.039  0.4826 -0.5264  0.6629
48845SOL    HW153650  12.351   1.777   8.954  0.5053 -0.1716  0.4806
48845SOL    HW253651  12.431   1.883   9.027  1.9049 -1.8673  1.5108
48846SOL     OW53652   7.118   7.454   2.046  0.1530 -0.0854  0.1548
48846SOL    HW153653   7.158   7.540   2.060  1.1227 -0.1747 -1.7641
48846SOL    HW253654   7.192   7.394   2.039 -0.5045 -1.0378  1.0775
48847SOL     OW53655   7.291   1.691  12.637 -0.2572 -0.1758 -0.2593
48847SOL    HW153656   7.321   1.770  12.683 -0.1124  0.5513 -1.5727
48847SOL    HW253657   7.246   1.641  12.705 -0.3027  0.9970  0.6264
48848SOL     OW53658   5.621   0.918   1.364  0.1616  0.1358 -0.5080
48848SOL    HW153659   5.547   0.894   1.419  1.2071  1.5728  1.6949
48848SOL    HW253660   5.698   0.888   1.412  1.1291  1.4101 -1.1794
48849SOL     OW53661  12.468   6.267  12.821 -0.3319  0.0898 -0.2998
48849SOL    HW153662  12.543   6.247  12.877 -1.6773 -1.7076  0.9513
48849SOL    HW253663  12.481   6.359  12.796  2.3944 -0.2126 -0.3637
48850SOL     OW53664   5.071  10.666  12.731 -0.1073 -0.3945 -0.7210
48850SOL    HW153665   5.106  10.755  12.740 -1.2355 -0.0085  0.1538
48850SOL    HW253666   5.102  10.620  12.809 -1.0568 -0.1905 -0.1943
48851SOL     OW53667  12.311  10.812   9.239 -0.0356  0.4833 -0.4941
48851SOL    HW153668  12.216  10.807   9.228 -0.0364  0.2884 -0.4075
48851SOL    HW253669  12.329  10.905   9.254  0.0878  0.9908 -3.2306
48852SOL     OW53670   4.596   1.615  11.053 -0.7384  0.2710 -0.2028
48852SOL    HW153671   4.612   1.696  11.004  0.0731  1.6871  2.2387
48852SOL    HW253672   4.514   1.581  11.017 -0.1773  1.1878 -2.5054
48853SOL     OW53673   0.336   1.873   1.948 -0.2010 -0.0164  0.1813
48853SOL    HW153674   0.242   1.877   1.962 -0.3970 -1.4674 -0.5426
48853SOL    HW253675   0.360   1.783   1.970  0.5800 -0.4116 -2.0005
48854SOL     OW53676  10.003  10.426   3.651  0.4056  0.4338  0.1210
48854SOL    HW153677   9.912  10.398   3.659  0.8287 -0.6912  1.3428
48854SOL    HW253678  10.044  10.361   3.594  0.4562  0.9349 -0.4259
48855SOL     OW53679   2.795   6.811   6.988 -0.0660  0.1396 -0.1607
48855SOL    HW153680   2.711   6.772   7.015  0.2297  0.7751  1.8573
48855SOL    HW253681   2.833   6.746   6.929 -2.1213  0.0076 -1.4439
48856SOL     OW53682   6.119   9.927   7.671 -0.2238  0.3600  0.3314
48856SOL    HW153683   6.072   9.860   7.621  1.4515 -0.5388 -0.0997
48856SOL    HW253684   6.138   9.996   7.607 -1.3726  0.9856  0.6288
48857SOL     OW53685   8.110   1.690  11.126 -0.4472  0.3115  0.2988
48857SOL    HW153686   8.150   1.762  11.078  0.0840 -0.4058 -0.3523
48857SOL    HW253687   8.102   1.723  11.216 -0.8819  1.4361 -0.1323
48858SOL     OW53688  10.850   1.110   1.356 -0.0321 -0.3935  0.5423
48858SOL    HW153689  10.862   1.182   1.419  0.9574  1.2512 -1.3858
48858SOL    HW253690  10.813   1.039   1.407 -0.2066  1.1887  2.7617
48859SOL     OW53691   9.591   0.639   6.564 -0.3731 -0.3686 -0.1275
48859SOL    HW153692   9.536   0.679   6.631  1.0645  0.4202  0.6270
48859SOL    HW253693   9.554   0.669   6.481 -0.1200  1.5223  0.3963
48860SOL     OW53694   4.152   2.421  11.428 -0.0247 -0.0420  0.3443
48860SOL    HW153695   4.147   2.331  11.397  0.0981  0.4796 -1.3144
48860SOL    HW253696   4.061   2.444  11.448 -0.4649  0.2569 -1.7629
48861SOL     OW53697   5.420   0.559   9.051 -0.1660 -0.1141 -0.4288
48861SOL    HW153698   5.428   0.649   9.081 -0.5943 -0.0764 -0.4082
48861SOL    HW253699   5.499   0.515   9.082  0.6874  0.5606 -1.6127
48862SOL     OW53700   3.706   7.049   0.655 -0.6099 -0.7277  0.2510
48862SOL    HW153701   3.630   7.097   0.688  0.1808 -0.4066  1.6558
48862SOL    HW253702   3.677   6.958   0.652 -1.2027 -0.5469  0.2627
48863SOL     OW53703   9.572   2.471   4.419  0.6362 -0.6593  0.0763
48863SOL    HW153704   9.628   2.395   4.436  1.3387 -0.4097 -1.0133
48863SOL    HW253705   9.631   2.546   4.424  0.4126 -0.3910 -1.0607
48864SOL     OW53706  10.273  11.177  11.757  0.2327  0.2521 -1.0991
48864SOL    HW153707  10.243  11.108  11.815  1.2174  1.2359  0.6599
48864SOL    HW253708  10.193  11.221  11.727 -0.3229 -0.8001 -1.1858
48865SOL     OW53709   8.193   6.646  10.984 -0.0870  0.0427 -1.0626
48865SOL    HW153710   8.216   6.721  11.039 -1.5158 -0.2466 -0.0081
48865SOL    HW253711   8.276   6.616  10.948  0.9795  0.0100  1.2452
48866SOL     OW53712   3.522   6.516  11.026 -0.2792 -0.4977 -0.0334
48866SOL    HW153713   3.476   6.590  10.986  0.4429 -0.0330  0.0000
48866SOL    HW253714   3.585   6.489  10.960 -0.3789 -0.9435  0.0493
48867SOL     OW53715   9.534   3.355   1.122  0.1167 -0.2285  0.1327
48867SOL    HW153716   9.588   3.324   1.194 -0.2955  1.6652  1.3192
48867SOL    HW253717   9.490   3.276   1.090  1.2036 -1.2992  1.1411
48868SOL     OW53718   0.262   5.869   6.638 -0.3614 -0.4653 -0.2404
48868SOL    HW153719   0.213   5.825   6.709 -1.9492 -0.2079 -1.1284
48868SOL    HW253720   0.245   5.962   6.652 -0.6444 -0.4103 -0.9082
48869SOL     OW53721   6.001   8.003   4.802 -0.1715 -0.0617 -0.2757
48869SOL    HW153722   5.922   7.964   4.764 -0.1783  1.0666 -1.4958
48869SOL    HW253723   5.991   7.991   4.896 -2.4543  1.1927 -0.2918
48870SOL     OW53724   9.904  11.177  12.380  0.2288 -0.2645 -0.0696
48870SOL    HW153725   9.862  11.220  12.305 -1.0701  0.1911  0.8931
48870SOL    HW253726   9.927  11.250  12.438  2.5029 -0.4810 -0.5984
48871SOL     OW53727   1.607  12.666   9.043  0.0809 -0.1019  0.4757
48871SOL    HW153728   1.693  12.628   9.025 -0.1077  0.2222 -1.4041
48871SOL    HW253729   1.625  12.758   9.063  0.1842  0.0032 -0.0737
48872SOL     OW53730   5.686   8.464   3.349 -0.6408 -0.4140  0.2453
48872SOL    HW153731   5.726   8.534   3.400  0.4755 -0.3027 -0.7331
48872SOL    HW253732   5.699   8.385   3.402 -0.6771 -0.0906  0.7326
48873SOL     OW53733   2.460  10.375   1.453  0.5707  0.1302  0.4271
48873SOL    HW153734   2.472  10.381   1.359  0.0533 -2.1615  0.1548
48873SOL    HW253735   2.402  10.448   1.475  0.5313  0.5728 -1.0494
48874SOL     OW53736   4.534   0.249   2.358  0.2752 -0.1857 -0.5700
48874SOL    HW153737   4.451   0.240   2.310 -0.5397  2.8942  0.0777
48874SOL    HW253738   4.515   0.212   2.444 -0.2696  0.0691 -0.5743
48875SOL     OW53739   9.203   6.506   5.726  0.4694 -0.2481 -0.2188
48875SOL    HW153740   9.281   6.495   5.782 -0.0703 -0.7810  0.4465
48875SOL    HW253741   9.156   6.580   5.764  0.8174  0.3006 -0.8322
48876SOL     OW53742  11.198   2.533   2.027 -0.0658 -0.2270 -0.9473
48876SOL    HW153743  11.123   2.476   2.010  0.2825 -0.7008 -0.9097
48876SOL    HW253744  11.212   2.580   1.945  1.1941 -2.0130 -1.8269
48877SOL     OW53745   6.219   9.678   6.565 -0.0429 -0.2613 -0.1574
48877SOL    HW153746   6.305   9.670   6.608  0.9011  0.1370 -1.8807
48877SOL    HW253747   6.190   9.766   6.589 -0.0233 -0.4211  0.4915
48878SOL     OW53748   2.478   1.654  10.758 -0.1301  0.1778  0.3646
48878SOL    HW153749   2.494   1.680  10.849 -2.7654 -0.9387  1.2475
48878SOL    HW253750   2.467   1.559  10.761 -1.1286  0.2183 -0.9623
48879SOL     OW53751   0.660   4.569  11.976  0.1839  0.4440  0.4256
48879SOL    HW153752   0.581   4.544  12.024  0.8820 -1.6512  0.5911
48879SOL    HW253753   0.729   4.574  12.043  0.5092  0.7454  0.0750
48880SOL     OW53754   9.571  12.025   1.519  0.0871 -0.0054 -0.3836
48880SOL    HW153755   9.592  12.110   1.558  1.4313 -0.7206  0.5324
48880SOL    HW253756   9.513  12.046   1.446  1.3905  1.8230 -0.9644
48881SOL     OW53757   5.191   2.261   7.045  0.0382  0.2217 -0.3286
48881SOL    HW153758   5.147   2.176   7.042 -3.3691  1.8143 -0.3348
48881SOL    HW253759   5.284   2.240   7.057 -0.7546 -3.4298  0.5184
48882SOL     OW53760   2.159   0.210   9.121 -0.6004  0.6453  0.2427
48882SOL    HW153761   2.078   0.261   9.116 -0.6896  0.6172  1.3026
48882SOL    HW253762   2.168   0.187   9.213  0.3760  0.2525  0.0632
48883SOL     OW53763   7.666   6.318   1.224 -0.6522 -0.4938  0.3201
48883SOL    HW153764   7.600   6.372   1.267  0.0179  0.2502  0.4426
48883SOL    HW253765   7.680   6.245   1.284 -1.6496 -0.8722  0.1010
48884SOL     OW53766   6.204  10.516   1.945 -0.0077  0.1993  0.0082
48884SOL    HW153767   6.239  10.538   2.032  0.0486 -2.2619  0.6791
48884SOL    HW253768   6.116  10.484   1.963 -0.0008 -0.3136 -0.8475
48885SOL     OW53769   1.233   7.320   9.212 -0.4334 -0.0756  0.4525
48885SOL    HW153770   1.150   7.292   9.250 -0.6744 -1.6601 -1.0740
48885SOL    HW253771   1.213   7.401   9.166 -1.6051 -1.2885 -1.3004
48886SOL     OW53772   3.358   2.648   0.887 -0.4542  0.7916  0.1078
48886SOL    HW153773   3.399   2.704   0.822 -2.1175 -0.3224 -2.0014
48886SOL    HW253774   3.428   2.627   0.948  2.1631 -0.8609 -3.1699
48887SOL     OW53775   2.778   6.658   9.015 -0.2422 -0.7927  0.2010
48887SOL    HW153776   2.776   6.596   8.942  2.4672 -1.1947  0.3718
48887SOL    HW253777   2.856   6.711   9.000  0.0569 -0.4683  2.4550
48888SOL     OW53778   4.081  11.977   2.798 -0.1078  0.0852  0.2930
48888SOL    HW153779   4.154  11.971   2.860 -1.1977  2.2867  1.9295
48888SOL    HW253780   4.111  12.039   2.732 -0.2675  0.5406  0.6436
48889SOL     OW53781   4.797  10.844   8.815  0.0192  0.1559 -0.2107
48889SOL    HW153782   4.844  10.791   8.880 -1.3543  0.2524  0.8911
48889SOL    HW253783   4.829  10.933   8.829  0.3594  0.0440 -0.2607
48890SOL     OW53784   9.906   1.868   6.905  0.3272  0.0816 -0.5436
48890SOL    HW153785   9.860   1.923   6.842  0.0367 -0.4813 -0.8323
48890SOL    HW253786   9.864   1.782   6.898  1.8053 -0.6261 -1.2522
48891SOL     OW53787   4.504  12.012   0.184 -0.0675  0.4519 -0.2723
48891SOL    HW153788   4.552  12.014   0.102 -0.3682 -0.4586 -0.4822
48891SOL    HW253789   4.515  11.922   0.216 -1.9711  0.0966 -0.5357
48892SOL     OW53790   4.129   2.356   1.527  0.7663 -0.2863 -0.1398
48892SOL    HW153791   4.039   2.374   1.500  0.7513 -0.8054 -0.4558
48892SOL    HW253792   4.134   2.260   1.532  0.9093 -0.2340  1.2524
48893SOL     OW53793   6.432  12.627   1.908 -0.2872  0.3322 -0.7782
48893SOL    HW153794   6.504  12.580   1.865 -0.5165 -1.0641  0.2752
48893SOL    HW253795   6.356  12.572   1.892 -0.3962 -0.1783  1.2661
48894SOL     OW53796   7.545   8.593   4.255 -0.5455 -0.1174 -0.2960
48894SOL    HW153797   7.461   8.548   4.252 -1.1438  0.6125  2.7086
48894SOL    HW253798   7.531   8.675   4.208 -0.1207 -1.8170 -3.7194
48895SOL     OW53799   3.294   8.935   3.482 -0.0036 -0.0760  0.0991
48895SOL    HW153800   3.387   8.918   3.471 -0.1972 -0.7530 -0.5394
48895SOL    HW253801   3.290   9.013   3.538  0.9354 -0.2329  0.3970
48896SOL     OW53802   9.305   9.140   6.616  0.2649 -0.2167 -0.4673
48896SOL    HW153803   9.339   9.058   6.579  0.3047  0.1977 -1.3590
48896SOL    HW253804   9.380   9.181   6.657  0.4190 -0.2392 -0.7273
48897SOL     OW53805  11.641   0.154  11.911 -0.0387 -0.5567 -0.0880
48897SOL    HW153806  11.654   0.204  11.992  1.2320 -0.0429 -0.5761
48897SOL    HW253807  11.590   0.213  11.855  0.1336 -0.4153 -0.0995
48898SOL     OW53808   1.725   7.740   5.492  0.2855  0.5942  0.1145
48898SOL    HW153809   1.764   7.820   5.458  1.9972 -0.0143  0.5067
48898SOL    HW253810   1.684   7.699   5.416  0.3083  1.3281 -0.3011
48899SOL     OW53811   2.136   9.031   0.279  0.2626 -0.1429  0.4467
48899SOL    HW153812   2.224   9.055   0.253  0.2807 -0.0295  0.6153
48899SOL    HW253813   2.104   9.105   0.330 -1.0015  1.1278 -1.9991
48900SOL     OW53814   4.281   1.779   3.520 -0.1609 -0.2243 -0.8660
48900SOL    HW153815   4.192   1.777   3.557 -0.9489  0.3055 -2.6354
48900SOL    HW253816   4.284   1.860   3.469  0.8340 -0.9690 -2.0487
48901SOL     OW53817  11.742   4.566   6.381 -0.2636 -0.2269  0.0723
48901SOL    HW153818  11.705   4.608   6.459  0.8662  2.5129 -0.7476
48901SOL    HW253819  11.675   4.575   6.314 -0.1730 -0.0543  0.0030
48902SOL     OW53820   8.479  12.572   6.960  0.1690  0.2738  0.1184
48902SOL    HW153821   8.488  12.574   7.055 -1.7793  1.0161  0.3164
48902SOL    HW253822   8.520  12.653   6.930  0.7914  0.0357  0.3009
48903SOL     OW53823   4.973   8.964   4.176  0.2659  0.2242  0.7491
48903SOL    HW153824   5.006   8.957   4.086  0.4888 -0.7278  0.8844
48903SOL    HW253825   5.051   8.985   4.228 -0.0154  1.6743  0.6301
48904SOL     OW53826   7.825   2.647  10.404 -0.1939  0.8508 -0.4449
48904SOL    HW153827   7.763   2.670  10.473  0.0735  2.2804 -0.6512
48904SOL    HW253828   7.908   2.634  10.449  0.0909  2.2503 -0.4994
48905SOL     OW53829   3.070   8.285   0.761  0.0762  0.0769 -0.4189
48905SOL    HW153830   3.087   8.378   0.745  1.4208  0.4730  2.7441
48905SOL    HW253831   2.974   8.278   0.761 -0.0395  1.2907 -1.2627
48906SOL     OW53832   3.281   1.763  12.916 -0.1156  0.2021 -0.0378
48906SOL    HW153833   3.255   1.734  13.003  2.0392 -1.1488  0.2289
48906SOL    HW253834   3.367   1.801  12.927  0.2349 -0.0546 -1.5741
48907SOL     OW53835   3.110   4.874   6.705  0.5177  0.6167 -0.1451
48907SOL    HW153836   3.079   4.783   6.700 -0.2204  0.7797  1.1396
48907SOL    HW253837   3.089   4.911   6.619  3.1265 -1.0838 -1.6632
48908SOL     OW53838   8.010   9.610   0.426 -0.7109  0.1146 -0.5589
48908SOL    HW153839   8.046   9.535   0.474 -1.8113  0.0462  0.1995
48908SOL    HW253840   8.085   9.668   0.413 -0.2655 -0.1113  0.7931
48909SOL     OW53841   5.429  10.853  11.715  0.0175  0.2960 -0.2288
48909SOL    HW153842   5.377  10.804  11.652 -1.4012  0.3286  0.8760
48909SOL    HW253843   5.373  10.860  11.792  1.6354  0.4077  0.9845
48910SOL     OW53844   5.463   6.258  12.069 -0.2013 -0.7428  0.0688
48910SOL    HW153845   5.503   6.342  12.045 -0.4116 -1.1794 -1.9909
48910SOL    HW253846   5.526   6.218  12.129  0.0568  0.7202  0.8373
48911SOL     OW53847   3.982  10.061   3.944 -0.3060  0.2031 -0.0070
48911SOL    HW153848   4.003  10.149   3.975  1.9498 -0.2900  0.0550
48911SOL    HW253849   3.979  10.070   3.848  0.9998  0.1843 -0.0717
48912SOL     OW53850   8.613   3.503   2.577  0.0096 -0.2454 -0.1313
48912SOL    HW153851   8.635   3.427   2.630 -0.0618 -0.4623 -0.4106
48912SOL    HW253852   8.664   3.493   2.497  0.6944  0.4665  0.1948
48913SOL     OW53853   6.451   0.974   5.356  0.0205  0.0972  0.5205
48913SOL    HW153854   6.474   0.996   5.446 -1.7808  0.1807  1.0093
48913SOL    HW253855   6.473   1.052   5.305  0.5079  0.2632  0.9834
48914SOL     OW53856   1.834   2.822   2.332 -0.0875 -0.2296 -0.1802
48914SOL    HW153857   1.755   2.876   2.340 -2.3901 -3.0746 -1.6754
48914SOL    HW253858   1.836   2.771   2.413  0.4680  0.1200  0.0293
48915SOL     OW53859   3.323  10.402   8.923 -0.6557  0.1392 -0.3974
48915SOL    HW153860   3.240  10.380   8.967 -0.5674 -0.5850 -0.5853
48915SOL    HW253861   3.355  10.479   8.970 -0.4800 -0.7113  0.9344
48916SOL     OW53862  10.337   3.464   3.982 -0.3611  0.0087  0.1250
48916SOL    HW153863  10.397   3.539   3.978 -1.2695  0.8360  1.1790
48916SOL    HW253864  10.278   3.477   3.907 -0.0871 -0.0280 -0.0966
48917SOL     OW53865   6.382   5.539  11.301 -0.6786  0.1605 -0.1061
48917SOL    HW153866   6.412   5.619  11.259  2.3765 -0.8923 -0.1459
48917SOL    HW253867   6.406   5.550  11.393 -2.6174  0.2834  0.4456
48918SOL     OW53868   6.131  12.509   6.987  1.1115 -0.2490  0.3513
48918SOL    HW153869   6.101  12.554   7.066  0.5944 -0.2102  0.1308
48918SOL    HW253870   6.168  12.427   7.019  0.2035 -0.5837  0.5681
48919SOL     OW53871  10.563   8.050   3.214  0.0833 -0.5123 -0.4458
48919SOL    HW153872  10.478   8.015   3.190 -0.2557 -0.3916  0.5372
48919SOL    HW253873  10.598   8.087   3.133 -0.5229 -1.1168 -0.9910
48920SOL     OW53874   1.330   8.618   3.496 -0.1991  0.1347 -0.1682
48920SOL    HW153875   1.392   8.662   3.554  0.1075 -1.1347  0.5127
48920SOL    HW253876   1.265   8.581   3.555 -0.5402 -0.1884 -0.7373
48921SOL     OW53877   5.175  11.222  10.075  0.0571  0.1398  0.2757
48921SOL    HW153878   5.264  11.188  10.080  0.2882  0.2980 -1.8077
48921SOL    HW253879   5.180  11.309  10.114  0.2497 -0.7432  2.3306
48922SOL     OW53880  12.706  11.775  11.111  0.2286  0.4878 -0.5695
48922SOL    HW153881  12.685  11.812  11.026 -0.8449  0.6630 -0.2383
48922SOL    HW253882  12.688  11.681  11.102 -0.8365  0.6488 -0.2626
48923SOL     OW53883   4.055   1.927  11.016  0.2374  0.2369  0.5200
48923SOL    HW153884   3.980   1.986  11.007  0.5796  0.6962  0.6391
48923SOL    HW253885   4.038   1.878  11.097 -0.4108 -0.3708  0.0386
48924SOL     OW53886  11.451  10.093   5.711 -0.1860  0.2775  0.5178
48924SOL    HW153887  11.485  10.053   5.790 -0.7165 -0.2253  0.4954
48924SOL    HW253888  11.375  10.144   5.740  1.1825  2.3178  0.7487
48925SOL     OW53889  12.157   0.244   7.432  0.2802 -0.3746  0.3825
48925SOL    HW153890  12.114   0.165   7.467 -0.8764  1.3495  3.1540
48925SOL    HW253891  12.226   0.264   7.495  1.0602  0.4471 -0.6978
48926SOL     OW53892   6.518   2.925   5.377 -0.4854  0.2406  0.0748
48926SOL    HW153893   6.473   2.860   5.324  1.1808  0.2235 -1.3990
48926SOL    HW253894   6.537   2.996   5.317 -2.3200  2.2223  1.6590
48927SOL     OW53895   0.848   4.515   6.574  0.5483 -0.4349  0.1405
48927SOL    HW153896   0.938   4.513   6.542  0.6682 -0.2660  0.4604
48927SOL    HW253897   0.853   4.563   6.657  0.0248  0.3378 -0.2632
48928SOL     OW53898  12.760   6.504   2.522  0.9501  0.4821 -0.0342
48928SOL    HW153899  12.824   6.532   2.588  0.6065  1.5970 -0.1529
48928SOL    HW253900  12.759   6.409   2.529  0.6319  0.5860  1.8672
48929SOL     OW53901   9.463   0.030   2.942 -0.0771 -0.0169  0.1487
48929SOL    HW153902   9.432  -0.054   2.977  0.9927 -0.3342  0.3948
48929SOL    HW253903   9.419   0.096   2.995  0.9821 -0.4793  1.7062
48930SOL     OW53904   4.796  11.125  10.434 -0.4437 -0.2184  0.2800
48930SOL    HW153905   4.752  11.164  10.510 -2.0774 -0.8623 -0.2981
48930SOL    HW253906   4.729  11.071  10.392  0.8889 -1.1662 -0.7126
48931SOL     OW53907   3.804   4.533   3.254 -0.1428  0.1806 -0.2195
48931SOL    HW153908   3.873   4.589   3.289 -1.0176  0.5093  1.0832
48931SOL    HW253909   3.764   4.584   3.184  0.7220  0.1134 -0.7733
48932SOL     OW53910   0.092   8.780   2.497 -0.3653  0.4872 -0.5784
48932SOL    HW153911   0.063   8.694   2.465  2.2927 -0.8099  0.1527
48932SOL    HW253912   0.124   8.762   2.585  0.9988  2.0728 -0.7143
48933SOL     OW53913  11.018   0.278   3.932  0.2543 -0.1453  0.5015
48933SOL    HW153914  10.955   0.220   3.974  0.3922 -0.8306 -0.2179
48933SOL    HW253915  11.019   0.251   3.840  1.0186  0.3686  0.3440
48934SOL     OW53916   2.312   6.101   9.273 -0.3295 -0.4954  0.5445
48934SOL    HW153917   2.289   6.177   9.327 -0.3491 -1.0885  1.3910
48934SOL    HW253918   2.379   6.134   9.213  0.1263  0.0415  1.3282
48935SOL     OW53919  12.664   6.382  11.283 -0.2389 -0.8080 -1.0247
48935SOL    HW153920  12.696   6.395  11.194  0.1220 -2.1771 -1.1226
48935SOL    HW253921  12.569   6.389  11.276 -0.1374  0.8232 -1.1798
48936SOL     OW53922   9.723   0.424   1.956 -0.0434 -0.1332 -0.0687
48936SOL    HW153923   9.731   0.329   1.969  0.1326 -0.1944 -0.5874
48936SOL    HW253924   9.650   0.450   2.012 -1.1503 -0.8478 -1.1181
48937SOL     OW53925   9.149   2.229  11.092  0.1228 -0.4954 -0.0153
48937SOL    HW153926   9.082   2.172  11.053 -0.6485  0.8229 -0.6929
48937SOL    HW253927   9.232   2.192  11.063 -0.3943 -0.7023 -1.2895
48938SOL     OW53928   3.694  11.336   6.306  0.4478  0.2307 -0.2938
48938SOL    HW153929   3.647  11.391   6.369 -0.5766 -0.8057 -0.1220
48938SOL    HW253930   3.760  11.290   6.359  1.7332  1.7140 -0.5413
48939SOL     OW53931   8.428   8.565   6.268 -0.1084 -0.0412 -0.0527
48939SOL    HW153932   8.493   8.635   6.273 -1.5097  1.2607  1.4153
48939SOL    HW253933   8.347   8.610   6.244 -0.9131 -1.2581  0.2758
48940SOL     OW53934   4.178   9.289   0.025 -0.1985 -0.2253  0.4942
48940SOL    HW153935   4.159   9.373   0.068  0.4904  0.6376 -0.7973
48940SOL    HW253936   4.224   9.238   0.091  1.8615  1.4895  0.5306
48941SOL     OW53937  10.527  11.474   7.611 -0.2877 -0.3431  0.2107
48941SOL    HW153938  10.605  11.528   7.613 -0.8251  0.4694 -0.3434
48941SOL    HW253939  10.529  11.425   7.694 -0.3307  1.3029  1.2216
48942SOL     OW53940   7.800   4.518   9.881 -0.1754  0.1491  0.1762
48942SOL    HW153941   7.860   4.590   9.862 -0.4350  0.2835 -0.1418
48942SOL    HW253942   7.792   4.470   9.798 -0.2820 -0.0368  0.2922
48943SOL     OW53943  11.117   9.807   2.079  0.4283 -0.0399  0.6054
48943SOL    HW153944  11.123   9.762   2.164  2.9128  0.2304  0.6597
48943SOL    HW253945  11.190   9.869   2.080  0.8801 -0.4202 -1.9634
48944SOL     OW53946   9.077   9.525   6.137 -0.2698 -0.3533 -0.1162
48944SOL    HW153947   9.040   9.463   6.075  0.6433 -3.1086  1.8837
48944SOL    HW253948   9.117   9.593   6.083 -0.7275 -1.8501 -2.4551
48945SOL     OW53949   1.879   4.341   3.838 -0.2660 -0.7839  0.8013
48945SOL    HW153950   1.794   4.382   3.821  0.0092 -0.7564 -0.6386
48945SOL    HW253951   1.939   4.383   3.775 -0.0183 -3.4836 -0.9336
48946SOL     OW53952   7.682  10.831   2.980 -0.2447 -0.5594 -0.4064
48946SOL    HW153953   7.777  10.821   2.979 -0.1549  0.2117 -0.8000
48946SOL    HW253954   7.658  10.830   3.073  0.0537 -1.5013 -0.3322
48947SOL     OW53955   5.204   4.669   2.776  0.1319 -0.4500  0.4225
48947SOL    HW153956   5.266   4.599   2.756  0.1318 -0.0610 -1.0842
48947SOL    HW253957   5.243   4.747   2.738 -0.7455  0.0142  0.4469
48948SOL     OW53958   0.063   3.871  11.215  0.0321  0.3541 -0.2906
48948SOL    HW153959   0.102   3.875  11.303  1.2423  1.7129 -0.8563
48948SOL    HW253960   0.064   3.778  11.193 -1.2886 -0.1536  1.5439
48949SOL     OW53961   5.902   2.505   5.670 -0.0401 -0.3716  0.3286
48949SOL    HW153962   5.867   2.433   5.618  1.0831 -0.8144  0.1603
48949SOL    HW253963   5.941   2.462   5.747 -1.3203  0.2375  1.3459
48950SOL     OW53964   0.155   5.392   2.998  0.6759  0.2501 -0.5554
48950SOL    HW153965   0.097   5.316   3.001  0.0359  0.7067 -1.2220
48950SOL    HW253966   0.193   5.395   3.086 -0.0430 -0.2581 -0.2089
48951SOL     OW53967  12.265   8.231   7.706 -0.5307 -0.3983 -0.0028
48951SOL    HW153968  12.196   8.187   7.658 -1.5633  2.4349 -1.3408
48951SOL    HW253969  12.229   8.244   7.794 -0.1999 -2.0819  0.4193
48952SOL     OW53970  10.609   0.652   5.118  0.3478 -0.2507  0.0982
48952SOL    HW153971  10.644   0.739   5.097  0.2075 -0.3210 -0.4366
48952SOL    HW253972  10.677   0.592   5.087  0.8793 -0.3112  1.3237
48953SOL     OW53973   4.892   0.702   3.996 -0.3275  0.5201 -0.0593
48953SOL    HW153974   4.800   0.677   3.995 -0.3621  0.6226 -1.3394
48953SOL    HW253975   4.899   0.765   4.068 -1.0668 -0.1252  0.5990
48954SOL     OW53976   9.520  11.530  10.305 -0.3426 -0.3938  0.2556
48954SOL    HW153977   9.429  11.555  10.290 -0.8741 -1.6110  1.2300
48954SOL    HW253978   9.569  11.612  10.299 -1.4740  0.2461 -0.4784
48955SOL     OW53979   8.169   5.303   3.326  0.7291  0.0517 -0.0560
48955SOL    HW153980   8.202   5.373   3.383  1.0289 -0.1199 -0.0167
48955SOL    HW253981   8.217   5.315   3.244 -0.0859  0.6270 -0.4609
48956SOL     OW53982   3.841   2.314   1.822 -0.5672 -0.3172 -0.6104
48956SOL    HW153983   3.759   2.275   1.852 -1.2552  0.3041 -1.6563
48956SOL    HW253984   3.832   2.321   1.727  0.6403 -0.1008 -0.7289
48957SOL     OW53985   8.147   9.297   3.246  0.0910  0.6653  0.3824
48957SOL    HW153986   8.224   9.249   3.216  0.9880  2.0762  0.3287
48957SOL    HW253987   8.166   9.317   3.338  0.4485  2.2151 -0.0040
48958SOL     OW53988   0.186   8.394   6.839 -0.2647 -0.4114  0.2405
48958SOL    HW153989   0.125   8.388   6.765 -3.3308  1.7283  2.3158
48958SOL    HW253990   0.219   8.484   6.835 -0.4811 -0.2650  1.4215
48959SOL     OW53991   8.032   7.332   1.931 -0.0592 -0.1610 -0.0702
48959SOL    HW153992   7.995   7.381   2.004 -0.5554 -0.6341  0.0017
48959SOL    HW253993   7.957   7.314   1.874  0.2803 -0.0068 -0.5746
48960SOL     OW53994   7.072   5.962   2.362 -0.6472 -0.2957 -0.1864
48960SOL    HW153995   7.061   5.902   2.436 -2.5718 -1.1331 -1.0551
48960SOL    HW253996   6.989   6.010   2.358  0.1433  1.0579 -0.6798
48961SOL     OW53997   0.239   0.179  10.593  0.5625 -0.4281  0.6602
48961SOL    HW153998   0.263   0.140  10.509  1.1437 -0.6266  0.9148
48961SOL    HW253999   0.320   0.177  10.645  0.2782 -0.0601  1.1290
48962SOL     OW54000   3.361   7.611   1.357  0.0570 -0.6191  0.5441
48962SOL    HW154001   3.395   7.578   1.274 -1.4947  0.3690 -0.5310
48962SOL    HW254002   3.329   7.533   1.402  0.3058 -1.0840 -0.0608
48963SOL     OW54003   5.294   4.935   5.002  0.3870  0.2775  0.8590
48963SOL    HW154004   5.257   5.022   5.018  1.5097  0.9808 -0.1624
48963SOL    HW254005   5.339   4.943   4.918 -0.7363 -1.7134 -0.0123
48964SOL     OW54006  12.902   8.902   6.403  0.2362  0.3545 -0.3073
48964SOL    HW154007  12.926   8.915   6.311  0.4991 -0.1644 -0.3153
48964SOL    HW254008  12.985   8.880   6.447 -0.2535 -1.8882 -0.4139
48965SOL     OW54009   8.270   8.946   7.442  0.3659 -0.3018 -0.2418
48965SOL    HW154010   8.230   9.031   7.419  1.9071  0.1584 -1.4127
48965SOL    HW254011   8.359   8.953   7.409  0.8174 -2.0372  0.5454
48966SOL     OW54012  11.117   1.297  10.448 -0.1396 -0.7509  0.2662
48966SOL    HW154013  11.181   1.326  10.514  1.2637  0.0248 -1.3559
48966SOL    HW254014  11.032   1.311  10.489  0.6559  0.9086  1.4526
48967SOL     OW54015   8.981  11.125   1.863  0.3286 -0.2110  0.2778
48967SOL    HW154016   9.063  11.123   1.815  0.5310 -0.9336  0.6523
48967SOL    HW254017   8.924  11.181   1.809  0.7131 -0.5724 -0.5274
48968SOL     OW54018   2.126   9.076   4.106 -0.1448 -0.0265 -0.1226
48968SOL    HW154019   2.121   9.023   4.186 -2.0354  0.0900 -0.1059
48968SOL    HW254020   2.153   9.162   4.136  1.2042 -0.5030  0.0903
48969SOL     OW54021   6.257   3.986   5.384 -0.1547  0.2122 -0.0310
48969SOL    HW154022   6.344   3.973   5.347  0.0313  0.3578  0.3482
48969SOL    HW254023   6.205   3.915   5.348  0.5362 -0.8983  1.0570
48970SOL     OW54024  10.103   0.966   7.447 -0.0315 -0.0233  0.3991
48970SOL    HW154025  10.052   0.891   7.416 -1.0851  0.7140  0.3010
48970SOL    HW254026  10.162   0.930   7.513 -0.8988 -0.8451  0.7320
48971SOL     OW54027   0.654   1.273   4.040  0.3157 -0.5622  0.2100
48971SOL    HW154028   0.717   1.309   4.102  1.8322  1.2962 -2.2649
48971SOL    HW254029   0.684   1.183   4.026  1.4214 -0.2228  0.3131
48972SOL     OW54030   6.787   8.190   5.971  0.0446  0.1755  0.2893
48972SOL    HW154031   6.738   8.108   5.960  1.7860 -1.1776  2.0787
48972SOL    HW254032   6.773   8.237   5.888  0.5176 -2.7645 -1.6134
48973SOL     OW54033   2.108   3.207   5.019 -0.1069  0.0421  0.4123
48973SOL    HW154034   2.187   3.165   4.988  0.5361  0.9949  0.7098
48973SOL    HW254035   2.060   3.231   4.940 -1.0286 -2.1712  0.2380
48974SOL     OW54036   9.657   4.658   0.656  0.1500  0.0712  1.0023
48974SOL    HW154037   9.655   4.752   0.640 -0.4154 -0.3221 -1.6260
48974SOL    HW254038   9.725   4.625   0.598 -0.6726 -1.3015  0.7671
48975SOL     OW54039  11.290   4.896   6.217  0.4321  0.3467  0.2429
48975SOL    HW154040  11.228   4.829   6.245 -0.2030  0.7345 -0.2201
48975SOL    HW254041  11.345   4.852   6.152 -0.9811  0.6677 -1.2384
48976SOL     OW54042   9.555   5.320  10.870  0.3661 -0.1652  0.1645
48976SOL    HW154043   9.647   5.314  10.896  0.4852 -0.4603 -0.3130
48976SOL    HW254044   9.513   5.246  10.913  0.7782 -1.3208 -1.3435
48977SOL     OW54045   3.908   0.234   1.921 -0.0031 -0.4006  0.2331
48977SOL    HW154046   3.981   0.172   1.914 -0.6259 -1.3456  1.6806
48977SOL    HW254047   3.879   0.227   2.012  1.2896  3.6340  1.1635
48978SOL     OW54048   6.262  12.228   7.508  0.2542 -0.2672 -0.2649
48978SOL    HW154049   6.289  12.192   7.424  1.5533  2.7672 -1.2967
48978SOL    HW254050   6.310  12.177   7.573  2.9721  0.2647 -1.7005
48979SOL     OW54051   6.180  11.243   1.201 -0.0221  0.2045  0.1277
48979SOL    HW154052   6.188  11.201   1.115  0.2237  0.7723 -0.1261
48979SOL    HW254053   6.239  11.193   1.258  0.3208  0.2460 -0.1911
48980SOL     OW54054  11.816   4.750   3.769 -0.3257  0.1099  0.5173
48980SOL    HW154055  11.842   4.816   3.834  0.0456 -1.0910  1.6359
48980SOL    HW254056  11.744   4.791   3.720  0.2363  1.5309  0.8125
48981SOL     OW54057   0.772   2.534   0.317 -0.1150  0.0636 -0.3519
48981SOL    HW154058   0.835   2.603   0.334 -1.8145  1.1956  1.9088
48981SOL    HW254059   0.815   2.454   0.349  0.3593  0.7577  0.8200
48982SOL     OW54060  10.812  10.765  12.872  0.1199  0.2678  0.1585
48982SOL    HW154061  10.724  10.801  12.867 -0.2727 -0.4737  1.2814
48982SOL    HW254062  10.841  10.785  12.961  1.2229  0.7799 -0.2912
48983SOL     OW54063   2.134   2.736  12.642  1.0346  0.5343  0.5555
48983SOL    HW154064   2.138   2.807  12.578 -0.5057  1.2077  1.1352
48983SOL    HW254065   2.075   2.770  12.710 -1.4358 -2.0304 -0.1150
48984SOL     OW54066  12.252  11.102   5.767  0.5367  0.5266 -0.1707
48984SOL    HW154067  12.339  11.125   5.735  0.7807  0.5400  0.5020
48984SOL    HW254068  12.230  11.171   5.830  1.2604 -0.9919  1.8445
48985SOL     OW54069  11.061   1.635   8.295 -0.6489 -0.1919 -0.1457
48985SOL    HW154070  11.005   1.640   8.373 -1.3408  2.5348 -0.7029
48985SOL    HW254071  11.146   1.607   8.329 -1.5903 -1.6698  1.1502
48986SOL     OW54072  11.203  10.823   0.569 -0.0279 -0.5343 -0.6616
48986SOL    HW154073  11.127  10.865   0.529 -1.1120 -1.2089  0.6364
48986SOL    HW254074  11.167  10.752   0.622  1.5552 -1.2858 -0.5172
48987SOL     OW54075   8.502  12.448   3.133 -0.2149  0.0327 -0.1274
48987SOL    HW154076   8.492  12.460   3.039 -0.1843 -1.3649 -0.3228
48987SOL    HW254077   8.463  12.362   3.151 -1.4679  0.8507  1.3525
48988SOL     OW54078   3.385   1.517   7.719 -0.2325 -0.6377  0.4993
48988SOL    HW154079   3.419   1.555   7.638  0.2376 -0.6419  0.6908
48988SOL    HW254080   3.330   1.444   7.691 -1.6134  0.5124  0.0896
48989SOL     OW54081   8.758  10.655   2.192  0.1603  0.2832 -0.0208
48989SOL    HW154082   8.844  10.670   2.152  0.1344  1.2380  0.2597
48989SOL    HW254083   8.700  10.718   2.148 -0.8122 -1.4973 -1.4582
48990SOL     OW54084  10.114   9.739  11.461  0.4677 -0.3780  0.2117
48990SOL    HW154085  10.179   9.775  11.401 -0.8455 -0.5141 -1.3726
48990SOL    HW254086  10.123   9.644  11.451 -1.3277 -0.4260 -1.6787
48991SOL     OW54087  12.424   7.813   9.204  0.7167  0.4749  0.5119
48991SOL    HW154088  12.450   7.721   9.194  2.2365  1.0365 -1.3095
48991SOL    HW254089  12.398   7.821   9.296  0.2207 -1.8345  0.6378
48992SOL     OW54090  12.934   8.441  10.946  0.3071  0.3408 -0.1826
48992SOL    HW154091  12.932   8.487  11.030  0.6584  2.8335 -1.4463
48992SOL    HW254092  12.869   8.487  10.892  2.1653  0.7860 -2.1894
48993SOL     OW54093  12.833   4.852   8.558  0.2081  0.1661  0.3455
48993SOL    HW154094  12.822   4.910   8.483  0.1070 -0.4552 -0.1278
48993SOL    HW254095  12.783   4.894   8.628 -0.1884  0.4509 -0.1021
48994SOL     OW54096   3.845  11.150   6.850  0.3035  0.0482  0.6106
48994SOL    HW154097   3.911  11.087   6.878  0.0668 -0.7653 -0.5971
48994SOL    HW254098   3.871  11.175   6.761 -1.6973 -1.3303 -0.4354
48995SOL     OW54099   7.861   2.696   3.729 -0.5756  0.6812 -0.0292
48995SOL    HW154100   7.910   2.776   3.710 -0.7787  1.0391  0.9151
48995SOL    HW254101   7.895   2.632   3.666 -0.2135  1.4268 -0.6109
48996SOL     OW54102  11.939   0.306   3.008  0.2449  0.5073  0.0657
48996SOL    HW154103  11.970   0.216   3.023  0.7193  0.6835  0.1572
48996SOL    HW254104  11.895   0.330   3.089  0.9027  0.6767  0.3762
48997SOL     OW54105   5.479   3.995   8.311  0.0619 -0.5525 -0.0483
48997SOL    HW154106   5.440   4.012   8.397 -0.1333 -1.5142  0.0601
48997SOL    HW254107   5.523   3.911   8.321  3.0170  0.8862  0.1078
48998SOL     OW54108   7.465   4.193   1.686 -0.0726 -0.3110  0.3572
48998SOL    HW154109   7.399   4.149   1.739  1.6951 -1.2631  1.8739
48998SOL    HW254110   7.428   4.196   1.598 -1.9361 -1.1800  1.0733
48999SOL     OW54111   7.778   9.969   0.105 -0.0957 -0.2133 -0.8310
48999SOL    HW154112   7.777   9.890   0.158 -1.8107  1.2272  1.4594
48999SOL    HW254113   7.689  10.003   0.110  0.6297  2.0111 -1.4931
49000SOL     OW54114   2.581   1.293   5.980  0.8443  0.0984  0.1583
49000SOL    HW154115   2.556   1.385   5.985  1.1804  0.4289 -2.7215
49000SOL    HW254116   2.666   1.289   6.024  0.5456  1.0077  0.8499
49001SOL     OW54117  10.537   0.680   2.652 -0.0048  0.1160 -0.6232
49001SOL    HW154118  10.442   0.671   2.656  0.0519 -0.1359  0.7461
49001SOL    HW254119  10.569   0.590   2.657  0.3132  0.2587  0.1344
49002SOL     OW54120   7.403  12.832   6.384  0.4002 -0.7542  0.1260
49002SOL    HW154121   7.451  12.911   6.359 -0.1900 -0.5698 -0.4374
49002SOL    HW254122   7.342  12.816   6.312  1.4533 -2.5093 -0.4471
49003SOL     OW54123   9.599  11.229   9.371  0.3402  0.0850 -0.5726
49003SOL    HW154124   9.648  11.149   9.348 -1.3211 -1.3542  0.6482
49003SOL    HW254125   9.603  11.232   9.467 -0.6473  0.7925 -0.5483
49004SOL     OW54126   7.074   7.689   9.651  0.8619  0.1977 -0.2146
49004SOL    HW154127   7.000   7.719   9.597  1.1746  1.6500  0.1460
49004SOL    HW254128   7.068   7.593   9.646 -0.5798  0.2802 -0.8253
49005SOL     OW54129   2.613  10.505   5.635  0.4911  0.1655 -0.5312
49005SOL    HW154130   2.559  10.442   5.683 -1.4864  1.8257 -0.4028
49005SOL    HW254131   2.558  10.530   5.560  1.5645  1.1000 -1.0294
49006SOL     OW54132   2.636   4.458  10.940  0.1688 -0.1177 -0.4322
49006SOL    HW154133   2.699   4.508  10.887 -0.1876 -0.4949 -1.2318
49006SOL    HW254134   2.556   4.456  10.887  0.9344 -3.8453 -1.8111
49007SOL     OW54135   7.236   3.594   9.966 -0.3460  0.5129  0.5236
49007SOL    HW154136   7.148   3.604  10.003 -0.2823  3.6536  0.0962
49007SOL    HW254137   7.231   3.639   9.882  1.8487  1.3299  0.7864
49008SOL     OW54138  10.409   8.532   0.781  0.5347  0.1064  0.0825
49008SOL    HW154139  10.437   8.505   0.868  2.2265  1.2962 -0.0407
49008SOL    HW254140  10.435   8.624   0.776 -0.3087  0.2867 -1.3794
49009SOL     OW54141   2.973   8.323   3.689 -0.6080  0.0365 -0.1828
49009SOL    HW154142   2.910   8.252   3.707 -2.1327  1.3702 -0.0282
49009SOL    HW254143   2.976   8.374   3.770  0.4400  0.1980 -0.3082
49010SOL     OW54144  11.574  10.804   1.861 -0.0296  0.4942 -0.4265
49010SOL    HW154145  11.535  10.798   1.948 -1.6847 -1.3409 -1.2062
49010SOL    HW254146  11.668  10.813   1.877 -0.3212  0.4738  1.5361
49011SOL     OW54147   6.790   1.884   2.019  0.6034 -0.2695  0.1954
49011SOL    HW154148   6.832   1.812   1.973  1.7030 -0.0085  0.7484
49011SOL    HW254149   6.803   1.960   1.962  1.4712 -0.0607  0.6497
49012SOL     OW54150  10.690  11.811  11.403 -0.3571  0.1542  0.1201
49012SOL    HW154151  10.631  11.793  11.329  1.5287  1.0200 -1.6836
49012SOL    HW254152  10.772  11.837  11.362  0.6902  0.9322  2.5671
49013SOL     OW54153   1.626  12.514  10.013 -0.4746  0.5919  0.6685
49013SOL    HW154154   1.693  12.499  10.080 -0.1726 -2.3630 -0.1296
49013SOL    HW254155   1.675  12.514   9.931 -1.2610  0.0784  0.1915
49014SOL     OW54156   1.371   2.052   6.394 -0.3141  0.4735  0.3149
49014SOL    HW154157   1.433   1.980   6.377 -1.3360 -0.3168 -0.2078
49014SOL    HW254158   1.419   2.112   6.451  0.7785 -0.3302  0.2797
49015SOL     OW54159   4.769   7.547   7.361  0.2461  0.1448 -0.0290
49015SOL    HW154160   4.810   7.519   7.279 -0.2551  1.7267 -0.8768
49015SOL    HW254161   4.833   7.605   7.402  0.0459  0.2564  0.1300
49016SOL     OW54162   3.105   8.861   4.621  0.0926 -0.2855 -0.7442
49016SOL    HW154163   3.033   8.874   4.559 -0.6786  1.0783  0.3666
49016SOL    HW254164   3.061   8.843   4.705  1.0527 -0.0808 -0.1814
49017SOL     OW54165   4.479   8.500   3.777 -0.2294  0.7106  0.0013
49017SOL    HW154166   4.449   8.491   3.868 -1.5933 -0.3759 -0.5227
49017SOL    HW254167   4.465   8.592   3.756  0.0176  0.9505  0.8551
49018SOL     OW54168   1.940   6.784   1.071 -0.3743 -0.1496 -0.1631
49018SOL    HW154169   1.942   6.713   1.136 -1.7798 -1.1512 -1.1571
49018SOL    HW254170   2.001   6.755   1.003  0.7476  0.6833  0.4589
49019SOL     OW54171  10.739   8.133   5.510  0.1759  0.3864  0.3656
49019SOL    HW154172  10.802   8.106   5.576  1.0405  0.1520 -0.5311
49019SOL    HW254173  10.790   8.139   5.429 -1.3685 -2.2831 -0.9622
49020SOL     OW54174   5.680   2.332   7.092 -0.2441  0.6902  0.1949
49020SOL    HW154175   5.759   2.287   7.119 -0.6816 -0.5881 -0.5903
49020SOL    HW254176   5.689   2.420   7.129  2.5590  1.3336 -1.7050
49021SOL     OW54177   5.797  12.471   3.324  0.1185  0.2369  0.5876
49021SOL    HW154178   5.823  12.545   3.269  0.0842 -0.2762 -0.1386
49021SOL    HW254179   5.838  12.487   3.409  0.6373  0.7550  0.2384
49022SOL     OW54180   3.112   0.189   6.293 -0.3164  0.5862 -0.0029
49022SOL    HW154181   3.061   0.234   6.361 -1.5955  0.3649 -0.7891
49022SOL    HW254182   3.173   0.255   6.261 -0.6479  1.0976  0.4102
49023SOL     OW54183   8.128   0.152  11.174  0.3768  0.4530  0.4528
49023SOL    HW154184   8.036   0.125  11.171 -0.1831  2.1979  0.7060
49023SOL    HW254185   8.146   0.163  11.267  0.9678 -0.2800  0.4254
49024SOL     OW54186   0.136   2.893   3.305 -0.7685 -0.2516  0.8376
49024SOL    HW154187   0.170   2.916   3.391 -1.4805 -1.5009  1.4929
49024SOL    HW254188   0.205   2.917   3.244  0.5860 -1.1948  1.9559
49025SOL     OW54189   9.943  11.013   2.437 -0.0305 -0.6901  0.1619
49025SOL    HW154190   9.974  10.940   2.383  2.8778  1.6759 -1.7297
49025SOL    HW254191  10.014  11.028   2.499  0.3140  1.5708 -0.6858
49026SOL     OW54192   2.565   0.503   9.734 -0.5009 -0.3421 -0.0638
49026SOL    HW154193   2.480   0.545   9.745 -0.1807  0.8449 -1.8336
49026SOL    HW254194   2.604   0.504   9.822 -1.1187  1.7454  0.2214
49027SOL     OW54195  11.559  12.451   3.870  0.4324  0.1262  0.0412
49027SOL    HW154196  11.642  12.445   3.917 -0.2708  0.0751  1.3482
49027SOL    HW254197  11.559  12.538   3.831  0.6172  0.5903  1.0299
49028SOL     OW54198  12.724  12.217   0.916 -0.2228  0.4102 -0.0247
49028SOL    HW154199  12.817  12.201   0.900 -0.3418  0.0800 -0.4133
49028SOL    HW254200  12.705  12.170   0.997 -0.3231 -0.5513 -0.5910
49029SOL     OW54201   0.240  11.964   1.240  0.2152 -0.3519 -0.0339
49029SOL    HW154202   0.215  11.877   1.271  1.3691 -1.1744 -1.3071
49029SOL    HW254203   0.171  11.989   1.179  0.5160 -0.9218 -0.6112
49030SOL     OW54204  10.484   0.617  11.757 -0.5511 -0.0993  0.1098
49030SOL    HW154205  10.428   0.545  11.785 -0.4614 -0.0537  0.4164
49030SOL    HW254206  10.573   0.585  11.770 -0.4295 -0.9265 -2.2462
49031SOL     OW54207   2.666   2.659   2.628 -0.1023  0.0584  0.0497
49031SOL    HW154208   2.686   2.752   2.613  0.8874 -0.1669 -0.1258
49031SOL    HW254209   2.645   2.653   2.721  0.1636  0.4090  0.1353
49032SOL     OW54210   3.958   5.954   7.069 -0.2598  0.0490 -1.1405
49032SOL    HW154211   3.877   5.964   7.018 -0.7311  0.3593 -0.3621
49032SOL    HW254212   4.007   6.035   7.052 -0.5985  0.3312 -0.7975
49033SOL     OW54213   3.787  12.512  12.495 -0.4553 -0.2328 -0.5071
49033SOL    HW154214   3.808  12.419  12.506 -2.8087 -0.6372  1.3883
49033SOL    HW254215   3.765  12.542  12.583 -2.2292  1.4393 -1.4647
49034SOL     OW54216   9.184   7.570   4.067 -0.1102 -0.4113  0.1485
49034SOL    HW154217   9.177   7.474   4.067 -2.7251 -0.3283  1.2616
49034SOL    HW254218   9.178   7.594   4.159 -0.5195  0.8446 -0.1873
49035SOL     OW54219  11.279   3.063  12.375 -0.7551 -0.1973  0.3242
49035SOL    HW154220  11.286   3.003  12.300 -0.7402 -0.6475  0.6850
49035SOL    HW254221  11.249   3.008  12.447 -0.1364  0.1039  0.8194
49036SOL     OW54222  12.638   0.609   0.372  0.5081 -0.2361 -0.1234
49036SOL    HW154223  12.558   0.603   0.318 -0.2891  0.0820  0.9809
49036SOL    HW254224  12.645   0.523   0.413  0.6936 -0.2335 -0.1506
49037SOL     OW54225  12.829   5.005   7.002 -0.6787 -0.2666  1.0363
49037SOL    HW154226  12.904   5.002   6.942  0.0556 -1.6756  1.9601
49037SOL    HW254227  12.780   5.083   6.976 -0.6014 -1.0163 -1.6253
49038SOL     OW54228   7.700   4.846   4.790 -0.0531 -0.2856 -0.2321
49038SOL    HW154229   7.630   4.887   4.841  0.0205 -0.3516 -0.0805
49038SOL    HW254230   7.730   4.773   4.843 -0.7596 -1.0604 -0.8791
49039SOL     OW54231   4.885   1.578   3.800 -0.1644  0.3589  0.3239
49039SOL    HW154232   4.789   1.585   3.800 -0.3655 -1.8174 -0.4842
49039SOL    HW254233   4.907   1.559   3.891 -0.5348  0.5224  0.4501
49040SOL     OW54234   3.095   0.274   6.823  0.0327  0.7419 -0.2626
49040SOL    HW154235   3.076   0.186   6.855 -3.0661  0.5931 -2.1141
49040SOL    HW254236   3.014   0.322   6.836  0.8324  2.5748 -1.6171
49041SOL     OW54237   5.580   2.942  11.751 -0.8187 -1.0926  0.6034
49041SOL    HW154238   5.543   2.924  11.838 -2.3410  0.8744  0.4116
49041SOL    HW254239   5.655   2.998  11.768 -1.0380 -0.8147  0.6498
49042SOL     OW54240   1.250  12.315   7.116 -0.2380 -0.1204 -0.4881
49042SOL    HW154241   1.180  12.268   7.161 -1.0895  2.0776  0.6053
49042SOL    HW254242   1.206  12.357   7.042 -0.0572  1.0472  0.0488
49043SOL     OW54243   0.776   4.325  10.549  0.0270  0.0243 -0.0812
49043SOL    HW154244   0.752   4.418  10.546 -0.4147 -0.0906 -0.1753
49043SOL    HW254245   0.864   4.325  10.587  0.5760  0.5779 -1.2772
49044SOL     OW54246  10.328   5.838  11.322  0.4022 -0.1058  0.0382
49044SOL    HW154247  10.238   5.871  11.319  0.4401 -0.0390 -0.3804
49044SOL    HW254248  10.373   5.883  11.250  0.2247 -1.7716 -1.1680
49045SOL     OW54249  11.509   0.023   3.724 -0.7263  0.4182  0.2834
49045SOL    HW154250  11.484   0.081   3.796  1.4276  0.9155  0.7102
49045SOL    HW254251  11.562   0.079   3.666 -0.3548 -0.6046 -0.3851
49046SOL     OW54252  10.624  10.887   1.043  0.2897  0.2235  0.3127
49046SOL    HW154253  10.707  10.933   1.049 -0.1173  1.0089 -0.0159
49046SOL    HW254254  10.629  10.819   1.111  1.1996  0.2438  0.2728
49047SOL     OW54255   0.417   6.617  11.153 -0.2086  0.4937  0.4535
49047SOL    HW154256   0.446   6.706  11.134 -1.7211  0.8157 -0.5109
49047SOL    HW254257   0.438   6.567  11.074 -0.1871  0.1909  0.6458
49048SOL     OW54258   5.041   4.552  10.712 -0.8201 -0.0484 -0.0113
49048SOL    HW154259   4.993   4.582  10.635 -1.8597  0.0167  0.6498
49048SOL    HW254260   5.087   4.473  10.682 -0.5994  0.4019 -0.8958
49049SOL     OW54261  12.158   4.705   4.218 -0.6765  0.9607  0.4231
49049SOL    HW154262  12.164   4.799   4.232  0.2842  0.7347  1.8397
49049SOL    HW254263  12.218   4.687   4.145 -2.0677  1.6148 -0.9159
49050SOL     OW54264   4.737   9.343  12.562 -0.0437  0.2997  0.0998
49050SOL    HW154265   4.660   9.322  12.615 -0.3478 -0.9778 -0.8147
49050SOL    HW254266   4.808   9.351  12.626 -0.3352 -1.5583  0.7295
49051SOL     OW54267   6.163   5.463   3.126  0.0925 -0.3483  0.1749
49051SOL    HW154268   6.118   5.405   3.064 -0.9971 -0.4949  1.0776
49051SOL    HW254269   6.215   5.521   3.070 -0.7758 -0.5340 -0.8744
49052SOL     OW54270   5.130   8.217   9.329 -0.0357  0.2473  0.3835
49052SOL    HW154271   5.105   8.304   9.296  0.0691  0.1396  0.0199
49052SOL    HW254272   5.052   8.185   9.374 -0.6783 -0.2314 -1.0359
49053SOL     OW54273   7.389   8.980  12.575 -0.0608 -0.4361  0.7450
49053SOL    HW154274   7.465   8.985  12.633  0.0488 -0.5530  0.6133
49053SOL    HW254275   7.330   9.049  12.606 -0.0476 -0.5681  1.0608
49054SOL     OW54276   4.908   1.863   5.292 -0.3800 -0.0255  0.4804
49054SOL    HW154277   4.918   1.806   5.368  1.3692  0.8521  0.9550
49054SOL    HW254278   4.881   1.804   5.221 -0.6573 -1.0870  1.4538
49055SOL     OW54279   8.016   4.087   1.517 -0.0751 -0.6206  0.0580
49055SOL    HW154280   7.938   4.039   1.546  0.2967 -1.0217  0.4001
49055SOL    HW254281   8.047   4.038   1.441  0.1648 -0.7814  0.2601
49056SOL     OW54282   9.458   7.097   3.502  0.0108  0.2480 -0.4896
49056SOL    HW154283   9.549   7.074   3.517  0.0850  1.0787  0.4655
49056SOL    HW254284   9.411   7.014   3.503  0.9423 -0.3735 -2.6834
49057SOL     OW54285  10.783   4.923   0.911  0.1195  0.5149 -0.0187
49057SOL    HW154286  10.848   4.961   0.851  1.7765 -0.2452  1.2320
49057SOL    HW254287  10.803   4.830   0.912 -0.5355  0.3772  0.9588
49058SOL     OW54288   7.781   2.632   8.951 -0.7082 -0.3193  0.5075
49058SOL    HW154289   7.876   2.643   8.947 -0.6046 -1.1868  0.5735
49058SOL    HW254290   7.747   2.715   8.917  0.0753 -1.1736 -2.6255
49059SOL     OW54291   7.865   8.419   4.724 -0.5282  0.5185  0.2046
49059SOL    HW154292   7.874   8.379   4.810  0.3566 -1.0954 -0.5852
49059SOL    HW254293   7.955   8.442   4.698 -0.8009  1.1616 -0.2164
49060SOL     OW54294  10.879   7.867   8.502 -0.3964  0.1678 -0.0955
49060SOL    HW154295  10.930   7.908   8.432 -0.8245 -0.1619 -0.6114
49060SOL    HW254296  10.940   7.862   8.576  0.4937 -0.6914 -0.8556
49061SOL     OW54297  10.645   1.659  11.288  0.0577  0.2261 -0.5443
49061SOL    HW154298  10.645   1.724  11.217  0.6749  0.4179 -0.3717
49061SOL    HW254299  10.700   1.698  11.356  0.4830 -0.5120 -0.4607
49062SOL     OW54300   8.908  11.520   4.326  0.3031  0.6046  0.4558
49062SOL    HW154301   8.938  11.543   4.414  0.6498  0.2999  0.4169
49062SOL    HW254302   8.815  11.499   4.338  0.1150  1.4702  0.5858
49063SOL     OW54303   2.204  11.000  10.070  0.1439  0.4875  0.2287
49063SOL    HW154304   2.278  10.941  10.058  1.2513  1.7341  0.6974
49063SOL    HW254305   2.127  10.944  10.060  1.1320 -0.7766 -0.6147
49064SOL     OW54306   2.414   0.075   4.751 -0.0212 -0.1164 -0.1486
49064SOL    HW154307   2.440   0.161   4.717  1.3958 -0.6022 -0.3508
49064SOL    HW254308   2.439   0.076   4.843 -1.0765  0.0847  0.1572
49065SOL     OW54309  10.120   3.361   5.522  0.0577 -0.1076 -0.2630
49065SOL    HW154310  10.110   3.430   5.588 -0.4601  2.7761 -3.1132
49065SOL    HW254311  10.042   3.307   5.532 -0.8563  1.2792  0.4398
49066SOL     OW54312   2.636   5.582   2.246  0.2718  0.1265 -0.1672
49066SOL    HW154313   2.625   5.673   2.219  2.1063  0.7908  1.1220
49066SOL    HW254314   2.620   5.531   2.167 -0.4410  1.5712 -0.9980
49067SOL     OW54315   0.054  10.870   2.551 -0.3814  0.2416  0.4818
49067SOL    HW154316   0.007  10.829   2.624 -0.1569  2.6351  2.0811
49067SOL    HW254317   0.055  10.803   2.483 -5.0922 -0.4648  0.7274
49068SOL     OW54318   6.235   3.741   5.017 -0.3470 -0.1245 -0.1019
49068SOL    HW154319   6.268   3.778   5.099  0.1065  1.1452 -0.8214
49068SOL    HW254320   6.271   3.653   5.014 -1.3841 -0.6663  1.6352
49069SOL     OW54321   6.069   1.562  12.208 -0.0524 -0.0714 -0.0133
49069SOL    HW154322   6.018   1.508  12.147 -2.6561  2.4873 -0.3197
49069SOL    HW254323   6.033   1.541  12.294 -2.4873  2.3942 -0.3155
49070SOL     OW54324  11.713  11.984   9.537 -0.0803  0.3190  0.4792
49070SOL    HW154325  11.775  12.051   9.506  1.0713 -1.0844 -0.3681
49070SOL    HW254326  11.705  11.924   9.464  1.1965 -2.0538  2.1539
49071SOL     OW54327   4.906  10.768   0.562  0.2262  0.1034 -0.1872
49071SOL    HW154328   4.962  10.768   0.640  0.7476 -0.6775 -0.5414
49071SOL    HW254329   4.867  10.681   0.561 -3.2903  1.4558  1.5906
49072SOL     OW54330  11.123   3.436  10.782 -0.4620 -0.3437  0.0318
49072SOL    HW154331  11.046   3.418  10.836 -0.3349  0.7877  0.6275
49072SOL    HW254332  11.194   3.448  10.846 -0.0491 -0.2123 -0.4462
49073SOL     OW54333  10.106   1.587   6.452  0.4469 -0.0062 -0.1215
49073SOL    HW154334  10.045   1.638   6.506  1.7949  2.2196 -0.5796
49073SOL    HW254335  10.078   1.606   6.362 -0.5051 -2.0577 -0.3171
49074SOL     OW54336   1.382  10.506   7.602  0.4338 -0.5929  0.7595
49074SOL    HW154337   1.357  10.426   7.649  1.9896 -3.4845 -2.8773
49074SOL    HW254338   1.327  10.506   7.524  2.4116  0.2675 -0.7156
49075SOL     OW54339  10.111  11.955   6.426  0.4734  0.4869  0.3972
49075SOL    HW154340  10.205  11.952   6.443  0.3679  2.1733  1.4766
49075SOL    HW254341  10.097  12.038   6.381 -0.0472 -1.4428 -3.3567
49076SOL     OW54342   5.979  10.453   1.728  0.4586  0.1418  0.6897
49076SOL    HW154343   5.940  10.538   1.749 -1.0392 -0.4269  0.3674
49076SOL    HW254344   5.968  10.402   1.808  1.0546  0.1376  0.7726
49077SOL     OW54345  11.978   4.507   8.014 -0.0644 -0.5624 -0.4287
49077SOL    HW154346  11.949   4.561   8.088 -1.9610 -0.4339 -1.2143
49077SOL    HW254347  12.042   4.561   7.969 -0.2930  0.1313  0.0572
49078SOL     OW54348   7.535   2.149   0.395 -0.1670  0.2055  0.0317
49078SOL    HW154349   7.445   2.122   0.375  0.3317 -0.2329 -1.9268
49078SOL    HW254350   7.532   2.244   0.396 -0.7941  0.1873  0.7997
49079SOL     OW54351   8.368   2.109   2.605  0.0812  0.0777 -0.2060
49079SOL    HW154352   8.316   2.141   2.531  0.5344  0.1328 -0.5094
49079SOL    HW254353   8.458   2.112   2.573  0.0828 -2.7694 -0.7751
49080SOL     OW54354  12.609  10.780   9.118  0.0814 -0.4858 -0.0025
49080SOL    HW154355  12.534  10.726   9.143 -0.0088  0.4830  2.0384
49080SOL    HW254356  12.680  10.751   9.175 -0.1879  1.9865  1.7362
49081SOL     OW54357   2.300   7.169   1.583  0.0554  0.1137  0.2655
49081SOL    HW154358   2.383   7.134   1.551  0.3802  0.9828  0.1452
49081SOL    HW254359   2.236   7.144   1.517  0.5452  1.0319 -0.5629
49082SOL     OW54360   8.386   4.088  12.010  0.0525  0.0485 -0.1233
49082SOL    HW154361   8.310   4.112  11.957  0.5064 -1.5570 -1.5565
49082SOL    HW254362   8.400   3.995  11.992  3.1687  0.5815 -0.9666
49083SOL     OW54363  12.038   9.284   6.191 -0.3147  0.1654 -0.1198
49083SOL    HW154364  12.086   9.327   6.121  0.7650  1.9182  1.5906
49083SOL    HW254365  12.097   9.215   6.222 -1.6029 -2.0009 -2.1388
49084SOL     OW54366   0.257   0.505   8.340 -0.3294 -0.1323  0.1259
49084SOL    HW154367   0.166   0.491   8.312 -0.2913  1.1199 -0.6991
49084SOL    HW254368   0.307   0.438   8.294 -0.6341  0.2130 -0.7322
49085SOL     OW54369   9.982   6.276   0.046  0.4332  0.2654  0.2716
49085SOL    HW154370   9.937   6.317   0.120 -1.3902  0.4823 -0.9022
49085SOL    HW254371   9.994   6.185   0.072 -0.6836  0.2075  0.6358
49086SOL     OW54372  10.942   9.153   6.940  0.0632  0.0446  0.1167
49086SOL    HW154373  10.873   9.091   6.962  0.6468 -0.3957  0.7289
49086SOL    HW254374  10.907   9.202   6.865 -0.0755 -1.5939 -0.9468
49087SOL     OW54375   3.490   9.607  10.753 -0.5444  0.3438  0.3805
49087SOL    HW154376   3.566   9.628  10.807  0.8565 -2.8487 -0.1786
49087SOL    HW254377   3.490   9.675  10.685  1.1960  1.0033  0.9810
49088SOL     OW54378   3.148   8.885  10.830  0.0977  0.1729  0.2891
49088SOL    HW154379   3.196   8.937  10.894 -0.2386 -1.2959  1.8163
49088SOL    HW254380   3.062   8.871  10.871  0.1884 -1.5659 -0.0510
49089SOL     OW54381   8.423  12.615   8.641 -0.5065 -0.1123  0.1344
49089SOL    HW154382   8.414  12.711   8.640  1.6222  0.1301  0.3112
49089SOL    HW254383   8.336  12.583   8.619 -0.8789  1.9086 -1.6585
49090SOL     OW54384   1.756   1.749  10.327 -0.5215 -0.2277  0.2743
49090SOL    HW154385   1.809   1.684  10.373 -0.3839  0.9197  1.8292
49090SOL    HW254386   1.746   1.714  10.239 -1.5762 -3.0276  1.3809
49091SOL     OW54387   7.339  10.727   5.220 -0.1164  0.3556  0.0733
49091SOL    HW154388   7.313  10.684   5.302  0.4220 -1.5452 -0.6932
49091SOL    HW254389   7.432  10.746   5.231 -0.3486  1.3273  0.4003
49092SOL     OW54390   2.133   9.873  12.088  0.1309 -0.0525 -0.1794
49092SOL    HW154391   2.175   9.855  12.004 -0.6889 -0.8064 -0.4533
49092SOL    HW254392   2.205   9.891  12.148  0.6748  1.7118 -1.3037
49093SOL     OW54393   1.430   1.708  11.725  0.4245  0.1955  0.7489
49093SOL    HW154394   1.443   1.735  11.816  0.5421 -1.3721  1.2279
49093SOL    HW254395   1.352   1.652  11.727 -0.4559  1.3286 -0.3901
49094SOL     OW54396  11.504  12.332  11.402  0.0045  0.3099 -0.2644
49094SOL    HW154397  11.508  12.277  11.324 -2.1041 -0.5225  0.1442
49094SOL    HW254398  11.573  12.397  11.389  1.4121 -1.3489 -1.5813
49095SOL     OW54399   2.971   1.545  10.541  0.6757 -0.3606 -0.5631
49095SOL    HW154400   3.049   1.534  10.486  0.3632  0.1889 -1.1312
49095SOL    HW254401   2.976   1.636  10.570 -0.7379  0.2772 -2.1707
49096SOL     OW54402   0.541   9.967  11.404  0.3075  0.4235  0.3042
49096SOL    HW154403   0.542  10.012  11.488 -1.3400  0.4050  0.3634
49096SOL    HW254404   0.448   9.957  11.383  0.5669 -2.8391  0.2381
49097SOL     OW54405   2.421   5.101   2.692 -0.1499 -0.4880  0.0822
49097SOL    HW154406   2.491   5.131   2.749  0.2305  1.1119 -1.1445
49097SOL    HW254407   2.412   5.008   2.712  1.8933 -0.5985  0.7160
49098SOL     OW54408   9.950   7.202   3.394  0.5050 -0.7332 -0.8088
49098SOL    HW154409   9.910   7.122   3.428  0.5402  0.2230  1.6483
49098SOL    HW254410  10.044   7.189   3.405  0.4950  1.2115  3.9475
49099SOL     OW54411  11.989   5.771   6.440 -0.2538 -0.6274  0.6266
49099SOL    HW154412  12.042   5.715   6.498 -0.9983 -0.7208  1.2240
49099SOL    HW254413  11.989   5.856   6.483  0.0047 -0.4386  0.2550
49100SOL     OW54414   6.561   9.454   4.970 -0.0813 -0.3478 -0.0428
49100SOL    HW154415   6.656   9.461   4.960  0.2517 -0.5098  2.4384
49100SOL    HW254416   6.535   9.384   4.911  1.2401  0.0939 -1.1894
49101SOL     OW54417   9.566   9.081  12.613  0.0387  0.3591  0.2316
49101SOL    HW154418   9.524   9.158  12.574  1.1200  0.4128 -0.8872
49101SOL    HW254419   9.574   9.019  12.540  1.3880  0.1414  0.5478
49102SOL     OW54420   0.711  12.553  11.334  0.4500  0.2234  0.7322
49102SOL    HW154421   0.805  12.547  11.350  0.3432  0.7764  1.6410
49102SOL    HW254422   0.675  12.475  11.376  0.0885  2.0216  4.1337
49103SOL     OW54423   1.858  10.157   4.393 -0.2267 -0.0157 -1.0230
49103SOL    HW154424   1.823  10.143   4.305  0.0933 -0.4687 -1.0825
49103SOL    HW254425   1.882  10.250   4.394 -0.3901  0.0331 -1.3579
49104SOL     OW54426   8.278   1.528   5.764 -0.3331  0.4659  0.0706
49104SOL    HW154427   8.337   1.497   5.696 -0.8715  0.0993 -0.2409
49104SOL    HW254428   8.253   1.616   5.737  0.6458  0.9233  0.5932
49105SOL     OW54429   8.797   4.503   0.069 -0.0133  0.5271 -0.3179
49105SOL    HW154430   8.744   4.578   0.094  2.5645  1.6836  2.4139
49105SOL    HW254431   8.833   4.526  -0.017 -1.2903  1.1716 -0.7020
49106SOL     OW54432   3.565   2.396   0.498 -0.0422 -0.3233 -0.1479
49106SOL    HW154433   3.546   2.312   0.539 -1.2290  0.0271  0.0643
49106SOL    HW254434   3.659   2.409   0.510 -0.1156 -0.9148  1.1582
49107SOL     OW54435   9.372   0.972   2.826  0.1586  0.7168  0.4179
49107SOL    HW154436   9.344   1.015   2.906  0.4878 -0.6742  1.3145
49107SOL    HW254437   9.442   0.913   2.853  0.7742  0.7438 -1.0137
49108SOL     OW54438   8.809   8.999   8.032  0.0781  0.1346  0.7253
49108SOL    HW154439   8.834   9.059   8.102  0.0491  0.0701  0.7915
49108SOL    HW254440   8.815   8.912   8.071 -2.1999  0.2078  1.3650
49109SOL     OW54441   0.124   0.364   1.359 -0.2651  0.0990  0.3139
49109SOL    HW154442   0.032   0.356   1.333 -0.1465  0.7068 -0.3316
49109SOL    HW254443   0.154   0.444   1.317  0.9587 -0.8486 -0.7244
49110SOL     OW54444   6.426   0.511   6.460 -0.4883 -0.3477 -0.0234
49110SOL    HW154445   6.434   0.415   6.462  0.2775 -0.2909 -0.1646
49110SOL    HW254446   6.503   0.543   6.506  0.4518  0.2454 -1.9113
49111SOL     OW54447   9.507   4.122   2.503  0.2655  0.1249 -0.2517
49111SOL    HW154448   9.574   4.072   2.549  1.1279  0.3720 -1.2016
49111SOL    HW254449   9.431   4.064   2.502  0.5554 -0.2829  0.5671
49112SOL     OW54450   2.351   9.488   3.613  0.2538  0.1196 -0.3891
49112SOL    HW154451   2.426   9.429   3.609  0.2758  0.1726 -0.8329
49112SOL    HW254452   2.329   9.504   3.521 -1.3611 -1.2560 -0.2949
49113SOL     OW54453   5.052   0.376   7.916 -0.1311 -0.1684  0.0741
49113SOL    HW154454   5.051   0.464   7.878 -0.6586 -0.6310 -1.0296
49113SOL    HW254455   5.115   0.382   7.987 -0.4435  1.2053  0.2709
49114SOL     OW54456   8.870   9.250  12.164 -0.6887 -0.2469 -0.0893
49114SOL    HW154457   8.890   9.336  12.201 -2.1493 -0.1378  0.5141
49114SOL    HW254458   8.881   9.261  12.070 -1.7959  0.8913 -0.1049
49115SOL     OW54459   3.899   0.615   9.110 -0.1441 -0.0283  0.3843
49115SOL    HW154460   3.923   0.665   9.188 -3.1235  1.3332  0.5525
49115SOL    HW254461   3.804   0.606   9.115 -0.0331 -3.5419 -1.0234
49116SOL     OW54462  11.209   0.886   7.534  0.0962 -0.7800  0.2471
49116SOL    HW154463  11.149   0.961   7.536  0.2684 -0.6577  1.8068
49116SOL    HW254464  11.200   0.851   7.445 -0.3880  0.7585 -0.3510
49117SOL     OW54465  12.113  12.634   3.455 -0.1482  0.4509  0.3902
49117SOL    HW154466  12.072  12.705   3.503 -2.1244 -0.5348  0.2446
49117SOL    HW254467  12.052  12.560   3.464  0.8380 -0.6185 -1.1800
49118SOL     OW54468   4.374  10.841   3.214  0.3983 -0.0311  0.1287
49118SOL    HW154469   4.392  10.820   3.305  1.4505  1.1251  0.2067
49118SOL    HW254470   4.303  10.781   3.189  0.6857 -0.9533  1.4347
49119SOL     OW54471   0.629  11.677  12.400  0.5863  0.0062 -0.0898
49119SOL    HW154472   0.631  11.604  12.338  1.5127  0.7812 -1.0267
49119SOL    HW254473   0.675  11.645  12.477 -0.8781 -1.0924  0.3695
49120SOL     OW54474   4.579   3.193   9.492  0.1720  0.0165 -0.1626
49120SOL    HW154475   4.553   3.281   9.465 -0.5389 -0.0161  0.3904
49120SOL    HW254476   4.654   3.207   9.550 -0.6751  0.3633  0.8860
49121SOL     OW54477   0.896   6.954   5.641 -0.1471 -0.2016  0.6482
49121SOL    HW154478   0.942   6.903   5.575 -0.9840  0.5541 -0.5635
49121SOL    HW254479   0.840   6.891   5.686  1.7848 -1.0803  1.9579
49122SOL     OW54480   7.597   9.417   0.594 -0.6739  0.1962  0.7611
49122SOL    HW154481   7.591   9.327   0.626  0.2477 -0.5455 -1.0027
49122SOL    HW254482   7.676   9.452   0.636 -0.7936  0.0378  1.1204
49123SOL     OW54483   8.116  12.456   5.594  0.2431  0.1529  0.0650
49123SOL    HW154484   8.088  12.438   5.504  0.3331  2.0536 -0.3877
49123SOL    HW254485   8.161  12.376   5.621 -0.1579 -0.6280 -1.4125
49124SOL     OW54486  12.253   7.400  11.818 -0.2347  0.2851  0.3218
49124SOL    HW154487  12.218   7.486  11.796 -1.0216 -0.0564  0.2174
49124SOL    HW254488  12.309   7.377  11.744 -2.3099 -0.5496 -1.0486
49125SOL     OW54489   8.727   4.448   3.968 -0.2999 -0.7221  0.0631
49125SOL    HW154490   8.772   4.365   3.983  1.1228 -0.1002 -0.6339
49125SOL    HW254491   8.634   4.424   3.967  0.1102 -2.4606 -1.0180
49126SOL     OW54492   8.016   6.764   8.684 -0.1435  0.3473 -0.1541
49126SOL    HW154493   8.040   6.764   8.777  2.8711  0.5240 -0.8145
49126SOL    HW254494   8.012   6.672   8.660  3.2646  0.2094 -0.6623
49127SOL     OW54495   6.746   2.524   3.043  0.0234 -0.7297 -0.7203
49127SOL    HW154496   6.655   2.504   3.021 -0.6843  3.6398 -2.9969
49127SOL    HW254497   6.742   2.558   3.133 -0.5357 -0.7257 -0.7438
49128SOL     OW54498   5.772  12.051   6.622  0.2688  0.6747  0.0123
49128SOL    HW154499   5.818  12.113   6.678  2.8798  0.5300 -1.7987
49128SOL    HW254500   5.767  12.094   6.537 -1.2698 -0.1403 -0.3538
49129SOL     OW54501   2.216   4.286  12.023 -0.3929 -0.5142 -0.4220
49129SOL    HW154502   2.291   4.329  12.064 -0.7310 -0.6256  0.3202
49129SOL    HW254503   2.251   4.252  11.940  0.7629 -1.8282  0.5410
49130SOL     OW54504   9.403   5.688   6.575 -0.0570  0.1076  0.1478
49130SOL    HW154505   9.422   5.757   6.639  2.5064 -0.5474  0.2220
49130SOL    HW254506   9.387   5.611   6.628  0.6882 -0.1255  0.0487
49131SOL     OW54507   5.229  12.820   2.952 -0.3651 -0.0845  0.0330
49131SOL    HW154508   5.325  12.813   2.949 -0.3477 -0.1225  0.4982
49131SOL    HW254509   5.198  12.733   2.930 -0.2073 -1.0754  3.1601
49132SOL     OW54510   7.667  12.367   4.969 -0.1981 -0.4962 -0.2757
49132SOL    HW154511   7.681  12.456   4.935 -0.7875 -0.2468  0.1207
49132SOL    HW254512   7.572  12.360   4.980 -0.0645 -0.7813  0.7503
49133SOL     OW54513  10.598  10.531   7.132 -0.4683  0.4444 -0.1700
49133SOL    HW154514  10.530  10.482   7.179 -0.7978  1.4700  0.4392
49133SOL    HW254515  10.669  10.467   7.121 -1.0165 -0.2742  0.3066
49134SOL     OW54516  12.645   8.306  10.866 -0.3313 -0.2330  0.1265
49134SOL    HW154517  12.732   8.274  10.889 -0.6596 -0.9581  0.4087
49134SOL    HW254518  12.604   8.328  10.950 -0.3390  0.3307 -0.0208
49135SOL     OW54519   9.177   9.971   9.261  0.6847  0.2736 -0.4090
49135SOL    HW154520   9.161   9.896   9.318  0.4236 -0.1956 -1.0897
49135SOL    HW254521   9.175   9.935   9.172  1.4241  0.9369 -0.7048
49136SOL     OW54522   9.756   5.179   6.994  0.0338  0.1720  0.0766
49136SOL    HW154523   9.812   5.242   7.040 -1.0807 -0.2458  2.1442
49136SOL    HW254524   9.796   5.094   7.013  1.2472  0.1195 -2.2924
49137SOL     OW54525   9.551   9.650   8.310 -0.3213  0.8973 -0.5827
49137SOL    HW154526   9.604   9.729   8.321 -1.2356  1.3749  0.6359
49137SOL    HW254527   9.612   9.578   8.325 -0.2563  1.4479  2.3517
49138SOL     OW54528  12.287   8.267   6.609 -0.5742 -0.1170  0.3147
49138SOL    HW154529  12.242   8.321   6.675 -0.2290 -1.1071  1.3846
49138SOL    HW254530  12.225   8.198   6.588 -1.0758  0.7471 -1.1728
49139SOL     OW54531  11.249   2.151   2.172 -0.6861 -0.0265  0.1916
49139SOL    HW154532  11.334   2.182   2.142  0.9050 -3.4847  0.6012
49139SOL    HW254533  11.247   2.171   2.265 -0.4636  0.3189  0.1246
49140SOL     OW54534   4.383  11.340   6.316  0.1600  0.9971  0.2562
49140SOL    HW154535   4.460  11.302   6.359 -0.0823  1.7524  1.4052
49140SOL    HW254536   4.310  11.318   6.374 -0.2972  1.3576 -0.1776
49141SOL     OW54537   6.477  11.718  12.916  0.0118  0.5623  0.4359
49141SOL    HW154538   6.394  11.673  12.935  0.3056 -0.0844  0.2419
49141SOL    HW254539   6.451  11.806  12.890 -0.7006  0.0863 -0.5532
49142SOL     OW54540   5.838   7.983   2.785  0.3058 -0.0822  0.7095
49142SOL    HW154541   5.806   7.909   2.837 -1.2611  0.5942  0.7988
49142SOL    HW254542   5.788   7.978   2.704 -1.0082  1.7153  1.3376
49143SOL     OW54543  12.170   1.948   4.700  0.0264 -0.6922  0.2377
49143SOL    HW154544  12.157   1.981   4.788 -0.0689  2.2969 -0.7927
49143SOL    HW254545  12.083   1.952   4.660 -0.0422 -2.5348  0.1135
49144SOL     OW54546   4.671   3.820   2.757  0.1532 -0.1897 -0.2467
49144SOL    HW154547   4.655   3.870   2.677  0.1686 -0.9868 -0.7519
49144SOL    HW254548   4.615   3.862   2.823  0.4801  0.7589 -0.5441
49145SOL     OW54549   4.109   5.734   4.878  0.1924 -0.5659 -0.9122
49145SOL    HW154550   4.021   5.700   4.897  0.0650 -0.2995 -1.0292
49145SOL    HW254551   4.165   5.692   4.944 -0.5377  1.8729  1.4535
49146SOL     OW54552   6.141   6.093   7.209 -0.0051 -0.3354 -0.0781
49146SOL    HW154553   6.220   6.042   7.227  0.1248 -0.4674 -0.9823
49146SOL    HW254554   6.071   6.027   7.209 -0.0634 -0.2777  0.3112
49147SOL     OW54555   3.291   0.015   5.146 -0.4053 -0.0624 -0.2153
49147SOL    HW154556   3.297  -0.080   5.156 -1.1962  0.0549  2.0376
49147SOL    HW254557   3.370   0.048   5.190 -1.4631  0.3602  1.4684
49148SOL     OW54558   1.843   1.012   1.153  0.0209  0.4854  0.2915
49148SOL    HW154559   1.934   1.002   1.180 -0.1416 -2.2527  0.0479
49148SOL    HW254560   1.820   0.928   1.114 -1.6807  2.1205 -2.5710
49149SOL     OW54561   2.362   5.380   4.724  0.1952  0.2189  0.0961
49149SOL    HW154562   2.320   5.349   4.643  2.2155  1.1817 -1.4035
49149SOL    HW254563   2.411   5.304   4.755  0.4125  0.1958 -0.2887
49150SOL     OW54564   5.724   7.275   9.501  0.1957 -0.3395  0.4827
49150SOL    HW154565   5.744   7.220   9.425 -1.2130  0.1171 -0.2579
49150SOL    HW254566   5.670   7.346   9.466 -1.1096 -0.5059  2.0023
49151SOL     OW54567   9.310   5.741   9.993  1.0838  0.0494 -0.2727
49151SOL    HW154568   9.215   5.735  10.008  0.8301  0.4080 -1.6002
49151SOL    HW254569   9.318   5.782   9.907  2.4695  0.7399  0.1543
49152SOL     OW54570  11.092   5.156  10.016 -0.1200  1.1509  0.6795
49152SOL    HW154571  11.172   5.142   9.967  0.6080 -0.2383  2.1775
49152SOL    HW254572  11.121   5.199  10.097 -1.1919  2.6842  0.3039
49153SOL     OW54573   1.521   1.051  12.781  0.0572  0.4784 -0.6054
49153SOL    HW154574   1.545   1.035  12.689 -0.8312 -0.0115 -0.7644
49153SOL    HW254575   1.563   1.134  12.802 -0.9596  1.3823 -1.9382
49154SOL     OW54576   7.273   7.452   4.458 -0.3371  0.2897 -0.1020
49154SOL    HW154577   7.327   7.378   4.486 -3.3120 -1.6941  0.9596
49154SOL    HW254578   7.234   7.484   4.539  3.0529  5.2245 -0.0070
49155SOL     OW54579  10.325   2.206   1.457 -0.2017  0.6886 -0.0582
49155SOL    HW154580  10.339   2.221   1.551 -2.4589  1.5350  0.2081
49155SOL    HW254581  10.258   2.270   1.433  0.3972  0.5418 -2.2891
49156SOL     OW54582   4.499   9.637   3.302  0.0884 -0.7289 -0.6653
49156SOL    HW154583   4.576   9.581   3.297 -0.1403 -0.9887 -1.3587
49156SOL    HW254584   4.480   9.642   3.396  0.8695 -0.7599 -0.4928
49157SOL     OW54585   4.860   3.771   3.217  0.2371 -0.3219  0.1415
49157SOL    HW154586   4.931   3.832   3.197  0.6773 -1.4706 -2.1396
49157SOL    HW254587   4.895   3.715   3.286  0.4414  0.9054  1.0746
49158SOL     OW54588   9.165   2.636  12.952  0.0465 -0.2890 -0.3025
49158SOL    HW154589   9.078   2.672  12.970  0.7143  1.1909  0.1436
49158SOL    HW254590   9.181   2.573  13.023  0.2135  1.0771  0.9205
49159SOL     OW54591   5.361   6.665   4.331  0.3064  0.2017  0.1873
49159SOL    HW154592   5.351   6.570   4.336  0.8318  0.2141  1.8150
49159SOL    HW254593   5.280   6.700   4.368 -0.1668  0.4200 -1.0017
49160SOL     OW54594   1.284  11.839   2.896  0.0050  0.4520 -0.1617
49160SOL    HW154595   1.371  11.821   2.932 -0.3533  0.0681  0.5299
49160SOL    HW254596   1.281  11.934   2.885  1.4480  0.3113 -2.5982
49161SOL     OW54597  11.809   0.758  12.726  0.1675  0.6399 -0.0346
49161SOL    HW154598  11.800   0.833  12.668 -0.0172  1.4716  1.0490
49161SOL    HW254599  11.745   0.695  12.694  1.0952  0.4592 -1.6498
49162SOL     OW54600   4.958   8.626   3.077  0.1345  0.0446  0.4707
49162SOL    HW154601   4.977   8.539   3.114  0.3565  0.3733  1.1516
49162SOL    HW254602   4.867   8.643   3.103  0.7811  0.9482  2.2720
49163SOL     OW54603   4.966   5.524   1.436 -0.2139 -0.2973 -0.0861
49163SOL    HW154604   4.926   5.485   1.514 -1.4684  1.5693  0.2647
49163SOL    HW254605   4.943   5.464   1.365  1.2936 -2.2431  0.9681
49164SOL     OW54606   5.419   5.277   2.646  0.1275 -0.0016 -0.4760
49164SOL    HW154607   5.361   5.282   2.571 -0.0596  0.2403 -0.3186
49164SOL    HW254608   5.481   5.349   2.634 -2.5065  2.9218  1.7407
49165SOL     OW54609   1.134   1.443   8.369  0.1649 -0.1923  0.1698
49165SOL    HW154610   1.152   1.465   8.461 -1.8795  1.7946  0.1759
49165SOL    HW254611   1.205   1.484   8.320  0.6533 -0.3170  0.7593
49166SOL     OW54612   2.358   1.648   7.142 -0.2703  0.5068  0.1471
49166SOL    HW154613   2.422   1.647   7.213 -0.0949  0.4388 -0.0102
49166SOL    HW254614   2.411   1.643   7.063 -0.5358 -2.5642  0.0386
49167SOL     OW54615   5.720  11.430   2.825 -0.4196 -0.6119  0.2694
49167SOL    HW154616   5.735  11.467   2.912 -0.2055  0.6804 -0.2963
49167SOL    HW254617   5.806  11.437   2.782 -0.7375 -0.4434 -0.3386
49168SOL     OW54618   2.975   0.184   7.269 -0.0836 -0.7288 -0.2983
49168SOL    HW154619   2.936   0.214   7.351 -1.8668 -1.2779 -0.8842
49168SOL    HW254620   2.940   0.243   7.203  1.7615  0.0427 -0.6364
49169SOL     OW54621   6.274   4.831   0.766  0.0391 -0.3387  0.1956
49169SOL    HW154622   6.284   4.784   0.848  0.4573 -0.4432  0.0867
49169SOL    HW254623   6.335   4.788   0.706 -1.7596 -1.6733 -0.7875
49170SOL     OW54624  11.122   8.026   1.643 -0.4569 -0.2317  0.7459
49170SOL    HW154625  11.207   8.035   1.601 -1.0825  0.1994 -0.4565
49170SOL    HW254626  11.131   7.950   1.701  1.0704  0.4729  1.4706
49171SOL     OW54627   8.734  12.921   7.400  0.1492  0.4678 -0.3216
49171SOL    HW154628   8.797  12.881   7.459  0.0831  1.0094  0.1304
49171SOL    HW254629   8.766  12.900   7.313 -0.3495 -1.2846 -0.1254
49172SOL     OW54630   3.894  12.676   5.181 -0.4276 -0.1624  0.5906
49172SOL    HW154631   3.972  12.677   5.237  1.5413 -1.5015 -1.9191
49172SOL    HW254632   3.895  12.760   5.136 -1.0666  0.2423  1.3097
49173SOL     OW54633   7.265  12.954   9.121 -0.2918 -0.0293 -0.3466
49173SOL    HW154634   7.272  12.859   9.111 -0.3686 -0.3549  2.0407
49173SOL    HW254635   7.233  12.967   9.211 -0.7449  2.2508 -0.7624
49174SOL     OW54636   6.476  12.947  11.527 -0.2386  0.0372  0.0000
49174SOL    HW154637   6.385  12.974  11.528 -1.4122 -3.0837 -2.6261
49174SOL    HW254638   6.502  12.951  11.435  1.7478 -0.6559  0.4656
49175SOL     OW54639  11.634   1.246   0.873  0.2717  0.4507  0.0295
49175SOL    HW154640  11.540   1.262   0.866  0.3660  1.1218  0.2363
49175SOL    HW254641  11.642   1.153   0.890 -0.2472 -0.2005 -2.7630
49176SOL     OW54642   1.433   1.796   5.376  0.5303 -0.2589  0.5503
49176SOL    HW154643   1.487   1.858   5.425 -0.9416  0.5550  1.2230
49176SOL    HW254644   1.459   1.710   5.408  2.0528  0.0289  0.1769
49177SOL     OW54645   1.776   9.840   0.806  0.4666 -0.5184 -0.1773
49177SOL    HW154646   1.694   9.884   0.827  0.7248 -0.3415  0.4684
49177SOL    HW254647   1.827   9.843   0.887  1.4757  0.1686 -0.8061
49178SOL     OW54648   5.689   2.181   0.244  0.4724  0.1456  0.3417
49178SOL    HW154649   5.742   2.258   0.260 -1.1837  1.0005  2.0833
49178SOL    HW254650   5.726   2.114   0.301  0.9275  0.1090  0.0109
49179SOL     OW54651   3.944   4.114   5.092 -0.1748  0.4289 -0.0030
49179SOL    HW154652   3.989   4.075   5.016 -0.2160 -1.4013  0.8556
49179SOL    HW254653   3.884   4.045   5.122 -0.5685  1.3270  1.3484
49180SOL     OW54654  10.488  10.224   1.877  0.4885  0.1938 -0.3805
49180SOL    HW154655  10.461  10.138   1.845 -1.1395  0.8752 -0.9809
49180SOL    HW254656  10.543  10.206   1.953 -1.1782 -1.3722  0.5370
49181SOL     OW54657   3.068  11.583   3.498  0.4942 -0.6396 -0.0518
49181SOL    HW154658   3.125  11.507   3.508 -1.7504 -2.2703  1.6309
49181SOL    HW254659   3.028  11.573   3.412  2.7077  0.5971 -1.3062
49182SOL     OW54660   4.435   8.719   7.185 -0.0456  0.6523 -0.4537
49182SOL    HW154661   4.437   8.642   7.129  0.9981  1.3032 -1.3386
49182SOL    HW254662   4.474   8.789   7.133  1.2063  1.2270  1.1562
49183SOL     OW54663   9.652   0.480  12.407 -0.0075  0.2400  0.3714
49183SOL    HW154664   9.650   0.437  12.321 -1.1838  0.5719  0.2064
49183SOL    HW254665   9.744   0.499  12.422  0.5590 -2.2174  0.4071
49184SOL     OW54666   5.612  12.510   1.886  0.5811  0.4995  0.1872
49184SOL    HW154667   5.556  12.441   1.921 -0.7981  1.2681 -0.4013
49184SOL    HW254668   5.575  12.591   1.921  1.4723  1.0296 -0.0506
49185SOL     OW54669  10.711  12.509   7.908  0.2302  0.1823 -0.1620
49185SOL    HW154670  10.800  12.538   7.887 -0.0289 -0.3966 -2.2777
49185SOL    HW254671  10.703  12.524   8.002  2.6342  0.0496  0.1367
49186SOL     OW54672   4.418   3.649   7.265 -0.3584  0.7699 -0.0446
49186SOL    HW154673   4.405   3.679   7.175 -0.8718 -0.7953 -0.5190
49186SOL    HW254674   4.483   3.710   7.301  1.9517 -0.1147 -2.3290
49187SOL     OW54675   8.201   6.540   2.758  0.6063 -0.3633 -0.4390
49187SOL    HW154676   8.264   6.554   2.687  2.1680  0.3343  1.0073
49187SOL    HW254677   8.251   6.492   2.825  0.0001  1.2482  1.2551
49188SOL     OW54678   6.059   8.045   6.238  0.0717 -0.0219  0.0105
49188SOL    HW154679   6.006   8.114   6.279 -1.2292 -1.4907  0.8897
49188SOL    HW254680   6.042   8.055   6.144 -1.5841 -0.2745  0.2508
49189SOL     OW54681   8.932  10.730   4.746  0.2436  0.3307  0.3412
49189SOL    HW154682   8.956  10.739   4.654 -0.5914  0.9600  0.1654
49189SOL    HW254683   8.843  10.695   4.744 -0.9196  2.9825  0.7843
49190SOL     OW54684   8.636   8.651   0.251 -0.2730 -0.0581 -0.8855
49190SOL    HW154685   8.696   8.653   0.325  0.6255  0.4889 -1.6130
49190SOL    HW254686   8.675   8.588   0.190 -1.0375 -0.5555 -0.8789
49191SOL     OW54687   5.052   9.903   1.637 -0.1211  0.6969  0.1440
49191SOL    HW154688   4.964   9.866   1.638  0.3360 -0.4546 -0.5154
49191SOL    HW254689   5.045   9.980   1.581 -0.3383 -0.4000 -1.3770
49192SOL     OW54690   2.550   4.036  10.624 -0.6682  0.2089  0.0420
49192SOL    HW154691   2.545   4.129  10.644 -1.4027  0.0625  0.6048
49192SOL    HW254692   2.581   3.995  10.705  0.1777  0.0090 -0.3657
49193SOL     OW54693   3.879   0.865   6.265  0.4813 -0.4224  0.0108
49193SOL    HW154694   3.907   0.790   6.317  0.6733 -0.7093 -0.4971
49193SOL    HW254695   3.924   0.940   6.303  0.0660 -0.5173  0.7045
49194SOL     OW54696   3.863   1.591   5.980 -0.4775 -0.2905 -0.0051
49194SOL    HW154697   3.816   1.524   5.930  0.5917 -0.4166 -0.8933
49194SOL    HW254698   3.943   1.607   5.929  0.9619 -0.8454  1.9445
49195SOL     OW54699   6.534  11.520  11.191 -0.3847  0.4504  0.6137
49195SOL    HW154700   6.524  11.519  11.096  0.1013  0.3563  0.5582
49195SOL    HW254701   6.466  11.580  11.222 -1.7724 -0.9282  0.3711
49196SOL     OW54702   2.957   8.930   7.319 -0.5101  0.3856 -0.1237
49196SOL    HW154703   3.042   8.924   7.363  0.0284  0.4166 -1.1250
49196SOL    HW254704   2.905   8.859   7.357  0.1840 -0.0490  0.0326
49197SOL     OW54705   9.863   8.637   1.273 -0.5686  0.1734 -0.0610
49197SOL    HW154706   9.934   8.609   1.330 -1.3773  0.8555  1.3117
49197SOL    HW254707   9.905   8.653   1.188  0.7346 -0.3393  0.4680
49198SOL     OW54708   8.496   2.781   5.800  0.1829  0.5279 -0.3603
49198SOL    HW154709   8.412   2.813   5.834  0.6033  1.4776 -0.1879
49198SOL    HW254710   8.512   2.836   5.723  1.2623  1.2154  0.3442
49199SOL     OW54711   5.748   1.318  12.960 -0.0588 -0.6109  0.1181
49199SOL    HW154712   5.830   1.287  12.921  0.1753 -2.0143  1.6426
49199SOL    HW254713   5.703   1.362  12.888  1.2799 -1.2731 -1.1790
49200SOL     OW54714  12.104   6.075  12.801  0.2217 -0.1864 -0.0462
49200SOL    HW154715  12.019   6.118  12.801 -0.5537 -1.6082 -1.2238
49200SOL    HW254716  12.133   6.078  12.710  0.2522 -1.8649 -0.1215
49201SOL     OW54717   1.787  10.365   8.725 -0.3333 -0.3830  0.2008
49201SOL    HW154718   1.870  10.326   8.749 -0.4637 -1.1330 -0.4844
49201SOL    HW254719   1.733  10.291   8.697 -0.8481  0.2089 -0.4298
49202SOL     OW54720   0.211   8.097   5.034  0.1283 -0.0298 -0.0289
49202SOL    HW154721   0.157   8.025   5.066 -0.5790  1.7283  3.1383
49202SOL    HW254722   0.169   8.125   4.953 -1.3154 -1.2457  0.2679
49203SOL     OW54723   8.743   9.876   3.424 -0.2909 -0.1457 -0.2237
49203SOL    HW154724   8.769   9.799   3.474 -0.2420 -0.1932 -0.3221
49203SOL    HW254725   8.764   9.950   3.481 -0.4769 -0.2119 -0.0683
49204SOL     OW54726  10.276   4.870   2.374  0.5262 -0.3793 -0.2481
49204SOL    HW154727  10.356   4.870   2.322  1.5042 -0.1217  1.2053
49204SOL    HW254728  10.225   4.796   2.339  1.2432 -0.3649 -1.3892
49205SOL     OW54729  12.279   0.219   2.370  0.6242  0.2766 -0.2241
49205SOL    HW154730  12.265   0.214   2.464  2.4732 -2.4912  0.0443
49205SOL    HW254731  12.193   0.204   2.332  0.0179  0.4018  1.0388
49206SOL     OW54732   4.603  11.002   1.454  0.5247 -0.4374  0.2685
49206SOL    HW154733   4.517  11.040   1.474  0.3021 -0.0339 -1.2957
49206SOL    HW254734   4.659  11.032   1.525 -0.0695  1.3718  0.0496
49207SOL     OW54735   1.907   5.068   6.859 -0.3490 -0.0391  0.3099
49207SOL    HW154736   1.885   5.158   6.884  0.2495  0.4853 -0.9640
49207SOL    HW254737   1.854   5.014   6.917 -1.4893  1.1455  0.4300
49208SOL     OW54738   5.841   8.549   7.179  0.0237 -0.4611  0.2612
49208SOL    HW154739   5.827   8.495   7.101 -0.1214  0.7494 -0.5718
49208SOL    HW254740   5.831   8.488   7.252 -1.8470 -1.2429 -0.5743
49209SOL     OW54741  10.501   3.282   9.305  0.1426 -0.5359 -0.2952
49209SOL    HW154742  10.546   3.242   9.379 -0.3539  0.8052  0.7516
49209SOL    HW254743  10.526   3.226   9.230  0.4217 -2.0808  0.8912
49210SOL     OW54744  11.723   1.782  12.683  0.0670 -0.2942  0.3177
49210SOL    HW154745  11.805   1.813  12.721 -0.0620 -1.4318  1.5859
49210SOL    HW254746  11.665   1.769  12.758 -0.5654 -1.5506 -0.3564
49211SOL     OW54747   2.030  12.332  10.757 -0.3113 -0.1087  0.7529
49211SOL    HW154748   2.048  12.386  10.834  2.0347 -0.3111  0.4228
49211SOL    HW254749   1.935  12.338  10.745 -0.3010  2.9178  1.4527
49212SOL     OW54750   7.679   1.346   7.789 -0.7200  0.5557  0.3300
49212SOL    HW154751   7.628   1.286   7.844 -0.3984 -0.9644 -0.9666
49212SOL    HW254752   7.620   1.419   7.771 -1.5463  0.0543  0.9459
49213SOL     OW54753   7.904  10.603   8.639  0.3139 -0.5446  0.2304
49213SOL    HW154754   7.869  10.523   8.680 -0.6129 -0.6942 -0.8184
49213SOL    HW254755   7.830  10.640   8.592  0.9562  0.5018  0.0171
49214SOL     OW54756   2.160  12.892   3.714  0.4178 -0.5242  0.1229
49214SOL    HW154757   2.214  12.967   3.740 -0.5931 -0.1221  1.1860
49214SOL    HW254758   2.220  12.817   3.716  1.4085  0.2059 -0.7957
49215SOL     OW54759   7.266   6.830  11.415 -0.1408 -0.1782 -0.1414
49215SOL    HW154760   7.272   6.736  11.434 -2.4197 -0.2754  0.4338
49215SOL    HW254761   7.297   6.838  11.325  1.2232 -1.2883  0.1982
49216SOL     OW54762   5.165  11.040   6.274  0.6792 -0.7913 -0.3631
49216SOL    HW154763   5.134  11.071   6.188 -1.6240 -2.5813 -0.2851
49216SOL    HW254764   5.257  11.019   6.259  0.2368 -1.4904 -2.5595
49217SOL     OW54765   7.738   3.006   7.076 -0.9622  0.1955  0.1471
49217SOL    HW154766   7.698   3.041   7.155 -0.4901 -0.2421  0.5878
49217SOL    HW254767   7.686   2.929   7.054  0.1585 -0.9132  1.2469
49218SOL     OW54768   5.346   9.487   1.455  0.0841 -0.3357  0.0604
49218SOL    HW154769   5.287   9.421   1.491  1.6312 -2.8945 -1.8240
49218SOL    HW254770   5.320   9.496   1.363  0.9234  0.5227 -0.1138
49219SOL     OW54771   8.975   2.994   2.397  0.6545 -0.3386  0.6896
49219SOL    HW154772   9.014   2.916   2.359  1.1353 -0.6097  1.7041
49219SOL    HW254773   8.882   2.973   2.405  0.7178 -0.6541  0.6075
49220SOL     OW54774   6.964   5.177   1.713  0.8629 -0.1605 -0.3888
49220SOL    HW154775   6.961   5.135   1.627 -0.3917  0.1220 -0.5109
49220SOL    HW254776   6.920   5.261   1.700 -0.1565 -0.4941  0.7056
49221SOL     OW54777   1.195   2.093   7.009 -0.4619 -0.2874  0.2304
49221SOL    HW154778   1.255   2.021   6.988  0.2137  0.3854 -0.1963
49221SOL    HW254779   1.122   2.051   7.054 -0.4919 -1.3602 -0.7700
49222SOL     OW54780   6.302   9.523   1.219  0.4124 -0.1549 -0.5031
49222SOL    HW154781   6.241   9.459   1.256  0.9153 -1.6404 -2.1446
49222SOL    HW254782   6.332   9.573   1.295 -0.9371 -1.0219  0.6687
49223SOL     OW54783  12.720   2.548   8.099 -0.0775 -0.0492  0.1749
49223SOL    HW154784  12.802   2.552   8.050 -0.8255  0.7914 -1.0700
49223SOL    HW254785  12.722   2.464   8.144  1.0022 -0.4806 -0.6545
49224SOL     OW54786   4.133   4.032   4.905 -0.0215 -0.3494 -0.0886
49224SOL    HW154787   4.118   3.956   4.849  1.4436 -1.5800  1.0917
49224SOL    HW254788   4.123   4.107   4.847 -0.5239 -1.4833 -1.5276
49225SOL     OW54789   6.629   8.790   0.871  0.5943  0.0247 -0.5666
49225SOL    HW154790   6.620   8.779   0.776 -2.7468  1.5236 -0.5405
49225SOL    HW254791   6.693   8.861   0.880  1.7807 -0.8500 -1.5821
49226SOL     OW54792   6.424   4.493  10.666  0.5167 -0.1591 -0.5184
49226SOL    HW154793   6.328   4.486  10.671  0.2325  2.6850 -0.1314
49226SOL    HW254794   6.455   4.466  10.752 -0.2895  2.0138  0.5353
49227SOL     OW54795   3.705   6.512   4.255 -0.0034 -0.2297  0.8447
49227SOL    HW154796   3.780   6.461   4.225 -0.3860  0.1086 -0.7639
49227SOL    HW254797   3.629   6.460   4.228 -0.3945  0.9683 -0.5131
49228SOL     OW54798   0.949   4.213   1.650 -0.5716  0.1724  0.2170
49228SOL    HW154799   1.011   4.192   1.580 -0.6268 -0.0971  0.2496
49228SOL    HW254800   0.974   4.156   1.722 -0.7658  0.1698  0.2826
49229SOL     OW54801   2.713   7.415   2.981  0.4852  0.0741 -0.1993
49229SOL    HW154802   2.632   7.460   3.003 -0.0310 -0.9970  0.1889
49229SOL    HW254803   2.731   7.360   3.058  0.8319 -0.7272 -0.8391
49230SOL     OW54804   7.603  12.791   0.863  0.2393 -0.0964 -0.0564
49230SOL    HW154805   7.643  12.813   0.948  0.8053  0.6000 -0.4931
49230SOL    HW254806   7.519  12.836   0.864 -0.2606 -1.0075  0.5854
49231SOL     OW54807   5.971   9.219   6.361 -0.0022  0.0346 -0.2623
49231SOL    HW154808   6.001   9.253   6.277 -2.1176  1.3622 -0.5548
49231SOL    HW254809   5.972   9.124   6.350 -0.2454  0.1785 -1.8035
49232SOL     OW54810   3.177   3.042  10.428 -0.5629  0.1755 -0.5180
49232SOL    HW154811   3.150   3.043  10.336 -1.9757  0.0391 -0.1408
49232SOL    HW254812   3.165   3.132  10.458 -0.4781  0.1400 -0.3768
49233SOL     OW54813   8.463  12.637   1.119 -0.2218 -0.1231 -0.2402
49233SOL    HW154814   8.537  12.681   1.161 -0.3475 -1.3691  1.4025
49233SOL    HW254815   8.478  12.649   1.025  0.8328  1.5802  0.1019
49234SOL     OW54816   5.184  11.293  12.698 -0.4257 -0.1323  0.5335
49234SOL    HW154817   5.184  11.233  12.623 -1.9450  0.9014 -0.3514
49234SOL    HW254818   5.252  11.259  12.756  0.5696 -1.1699 -1.1497
49235SOL     OW54819   2.431   6.012   5.017  0.7278  0.4330  0.2448
49235SOL    HW154820   2.405   6.029   5.108  0.7422 -0.5203  0.4363
49235SOL    HW254821   2.376   5.939   4.990 -0.3653  1.6646 -1.0316
49236SOL     OW54822   4.595   3.386   8.466  0.3701 -0.0877  0.0808
49236SOL    HW154823   4.678   3.341   8.457  1.5438  2.1634 -1.5149
49236SOL    HW254824   4.554   3.379   8.379 -0.0383  0.6963  0.1914
49237SOL     OW54825   0.838   8.175   7.058  0.0881  0.0619  0.1153
49237SOL    HW154826   0.859   8.086   7.031  2.7339  0.9530 -1.0862
49237SOL    HW254827   0.903   8.196   7.125 -0.3137  1.1874  0.1742
49238SOL     OW54828   3.611   5.793   0.877 -0.4626  0.0630  0.1818
49238SOL    HW154829   3.578   5.876   0.914  1.3542  1.0880 -0.3614
49238SOL    HW254830   3.591   5.799   0.784  1.9598  1.1566 -0.3451
49239SOL     OW54831   2.049   7.291  10.354 -0.3243 -0.3223  0.2941
49239SOL    HW154832   2.028   7.246  10.272  0.3886 -0.7104  0.3127
49239SOL    HW254833   2.003   7.242  10.422 -0.8098 -0.0787  0.1486
49240SOL     OW54834   4.011   0.712   3.362  0.3180 -0.0757  0.1099
49240SOL    HW154835   3.919   0.686   3.354 -0.0505  1.3785 -0.6249
49240SOL    HW254836   4.007   0.804   3.391  1.5614 -0.5888  2.1057
49241SOL     OW54837   4.760   5.146   2.549 -0.6110 -0.1971 -0.3273
49241SOL    HW154838   4.693   5.130   2.615  0.6748  0.3809  1.1825
49241SOL    HW254839   4.826   5.079   2.566  0.4521  0.9097 -0.0184
49242SOL     OW54840   0.621   8.649   7.665 -0.1547 -0.9900  0.3203
49242SOL    HW154841   0.602   8.614   7.578 -1.9810 -0.2904  0.3970
49242SOL    HW254842   0.661   8.735   7.648 -2.2083 -0.0124  0.1108
49243SOL     OW54843   5.926   0.371   7.114 -0.0375 -0.0853  0.0274
49243SOL    HW154844   5.897   0.423   7.189 -2.0532 -1.9754  0.6953
49243SOL    HW254845   6.001   0.322   7.147 -0.4689 -0.3657  0.6228
49244SOL     OW54846  11.071  10.770   9.598 -0.1605 -0.0346 -0.4579
49244SOL    HW154847  11.127  10.808   9.665  0.6542 -1.8210 -0.0771
49244SOL    HW254848  10.989  10.750   9.642  0.2492 -0.8817 -0.0773
49245SOL     OW54849   3.075   0.051   1.987  0.0276  0.4833 -0.1728
49245SOL    HW154850   3.100  -0.001   2.064  0.2575  0.3152 -0.3573
49245SOL    HW254851   3.037   0.131   2.023 -0.4789  0.1196  0.1179
49246SOL     OW54852   8.034  10.679   7.672 -0.1752 -0.1117 -0.5095
49246SOL    HW154853   8.070  10.678   7.583 -1.4560 -1.7803 -1.0642
49246SOL    HW254854   7.944  10.708   7.661  0.3990  2.3724  0.6506
49247SOL     OW54855  11.116  10.408   1.013 -0.2442  0.0566  0.6100
49247SOL    HW154856  11.092  10.492   1.054  1.1295 -0.7405  3.3301
49247SOL    HW254857  11.057  10.345   1.054  1.3870 -0.8305  1.6906
49248SOL     OW54858   9.016   4.797   2.624  0.1799 -0.0156  0.2698
49248SOL    HW154859   8.972   4.781   2.708 -0.9955  1.4026 -0.0248
49248SOL    HW254860   9.070   4.875   2.640  0.9109 -0.4704  0.0372
49249SOL     OW54861  12.391   7.690   0.290  0.0957 -0.2051  0.1232
49249SOL    HW154862  12.379   7.749   0.365  1.6765 -0.8290  0.9176
49249SOL    HW254863  12.419   7.747   0.219  0.5576  0.1436  0.5783
49250SOL     OW54864  12.374   2.133   5.856  0.0032 -0.2739  0.1364
49250SOL    HW154865  12.367   2.183   5.775 -1.1039 -0.4530  0.1135
49250SOL    HW254866  12.290   2.145   5.900  0.7413  0.2188  1.4973
49251SOL     OW54867   6.735   8.317   9.867 -0.1222  0.4409 -0.5510
49251SOL    HW154868   6.771   8.332   9.780  1.3602 -0.1014 -0.0523
49251SOL    HW254869   6.796   8.361   9.927 -1.3008  1.1001  0.2102
49252SOL     OW54870   2.242  10.276   4.447 -0.3568 -0.1956  0.2235
49252SOL    HW154871   2.282  10.227   4.519 -2.1352 -0.6969  0.9508
49252SOL    HW254872   2.261  10.224   4.369 -0.2447 -0.8263  0.6577
49253SOL     OW54873   1.174   9.299   2.779 -0.5241 -0.1253  0.4940
49253SOL    HW154874   1.089   9.257   2.780  0.1014 -1.4426 -0.2519
49253SOL    HW254875   1.230   9.241   2.830 -0.0155  0.6372  0.8281
49254SOL     OW54876   1.981   1.599   4.275 -0.1298 -0.0533  0.3001
49254SOL    HW154877   2.005   1.551   4.196  0.8929 -0.8252  1.0539
49254SOL    HW254878   1.903   1.648   4.251 -0.2008 -0.7751 -0.9945
49255SOL     OW54879   2.315   7.802   4.902 -0.0743  0.4071 -0.2460
49255SOL    HW154880   2.395   7.768   4.944 -0.0912 -1.5246 -1.6351
49255SOL    HW254881   2.274   7.856   4.970  1.9872  0.8016  0.7759
49256SOL     OW54882   3.582   3.511   4.951 -0.0260  0.0214  0.0659
49256SOL    HW154883   3.528   3.541   4.878  0.8320 -2.2051 -1.5947
49256SOL    HW254884   3.661   3.476   4.910  1.8587  1.3532  2.2937
49257SOL     OW54885   9.669   8.367   0.480  1.0010 -0.1158  0.1146
49257SOL    HW154886   9.601   8.384   0.546  1.0142  0.6453 -0.0509
49257SOL    HW254887   9.621   8.348   0.400  0.9395  1.6773 -0.3198
49258SOL     OW54888   7.893   6.679   1.359 -0.1844 -0.0785  0.0398
49258SOL    HW154889   7.972   6.712   1.316 -0.6912  0.6526 -0.3409
49258SOL    HW254890   7.826   6.682   1.291 -1.1212  1.5391  0.9764
49259SOL     OW54891   4.254   3.609  12.607  0.8323  0.2790  0.4303
49259SOL    HW154892   4.271   3.516  12.620  1.0314  0.5514  2.3231
49259SOL    HW254893   4.326   3.639  12.552  0.3085 -0.8159 -0.9248
49260SOL     OW54894  11.166   6.723   0.275  0.0558  0.2715  0.2259
49260SOL    HW154895  11.259   6.741   0.282  0.5569 -2.1169  0.7037
49260SOL    HW254896  11.144   6.679   0.357 -1.0269 -0.9348 -0.6675
49261SOL     OW54897  12.013  11.848   5.230 -0.9494  0.0287 -0.1567
49261SOL    HW154898  12.068  11.794   5.288 -1.2919  1.0859  1.2124
49261SOL    HW254899  11.932  11.860   5.278 -1.2873  0.8725 -0.9128
49262SOL     OW54900   3.777   7.652   8.015 -0.3503  0.7264  0.8637
49262SOL    HW154901   3.848   7.709   8.046  0.1025  0.3130  0.6026
49262SOL    HW254902   3.758   7.594   8.089  1.7324 -1.2434 -0.0107
49263SOL     OW54903   3.995   5.069   2.856  0.7005 -0.6786  0.1792
49263SOL    HW154904   3.954   5.088   2.772  1.0654 -0.1731  0.1062
49263SOL    HW254905   4.029   4.980   2.847 -0.5967 -1.2135  0.3374
49264SOL     OW54906   7.255  11.525   3.286  0.4459  0.0494 -0.8023
49264SOL    HW154907   7.324  11.484   3.339  0.5709 -0.0097 -1.0104
49264SOL    HW254908   7.210  11.453   3.243 -1.1726 -0.0916  1.0243
49265SOL     OW54909   8.276   6.752   9.450  0.0490  0.3229 -0.7312
49265SOL    HW154910   8.263   6.757   9.545 -0.0870  2.3680 -0.8171
49265SOL    HW254911   8.328   6.830   9.429  0.3458 -0.2631 -2.3059
49266SOL     OW54912   1.428   3.149  10.873 -0.1815  0.0854  0.1214
49266SOL    HW154913   1.515   3.110  10.876  0.4647  1.4609  0.4202
49266SOL    HW254914   1.368   3.075  10.873  0.9450 -0.9089  1.8125
49267SOL     OW54915   3.701   1.833   6.378  0.6601  0.2047  0.0888
49267SOL    HW154916   3.608   1.840   6.397  0.5132 -0.4595 -0.3697
49267SOL    HW254917   3.717   1.739   6.369  1.4918  0.2723  0.7488
49268SOL     OW54918  11.776   7.677  12.184  0.0927 -0.0440 -0.3971
49268SOL    HW154919  11.684   7.676  12.210 -0.4458 -0.0128 -2.1325
49268SOL    HW254920  11.807   7.588  12.202  0.0906  0.2738  1.3015
49269SOL     OW54921   2.487  12.789  12.872 -0.2314  0.2189  0.0769
49269SOL    HW154922   2.519  12.868  12.915 -0.4665 -0.0673  0.8127
49269SOL    HW254923   2.393  12.803  12.861 -0.4075 -0.2391  0.8814
49270SOL     OW54924   5.692   7.346  12.312 -0.4024 -0.1468 -0.2570
49270SOL    HW154925   5.666   7.311  12.227 -0.1757 -0.3021 -0.2625
49270SOL    HW254926   5.621   7.321  12.371 -0.8225  0.4183 -0.5056
49271SOL     OW54927   9.203   8.920   4.249  0.5690  0.4604 -0.2481
49271SOL    HW154928   9.111   8.928   4.222  0.5330 -1.9879 -1.1158
49271SOL    HW254929   9.204   8.948   4.340 -1.6033 -1.8369  0.5975
49272SOL     OW54930   7.867  12.850  12.491  0.7049 -0.1060  0.1661
49272SOL    HW154931   7.857  12.864  12.397  0.2838 -2.2609 -0.1629
49272SOL    HW254932   7.957  12.877  12.510  0.3786  1.6186 -0.5538
49273SOL     OW54933  12.072   1.653   0.193  0.3199  0.7075  0.3571
49273SOL    HW154934  12.033   1.649   0.280 -0.8484 -1.6102 -0.1668
49273SOL    HW254935  12.131   1.578   0.190  1.0869  1.3288 -0.5355
49274SOL     OW54936   4.658   4.662   7.891  0.1185 -0.2547 -0.4597
49274SOL    HW154937   4.626   4.751   7.875  0.8150  0.4496  1.8090
49274SOL    HW254938   4.667   4.655   7.986 -1.4411 -3.3056 -0.4033
49275SOL     OW54939  11.373   0.658   5.745  0.0654 -0.2713  0.0166
49275SOL    HW154940  11.303   0.652   5.809 -0.6132 -1.0705 -0.7843
49275SOL    HW254941  11.422   0.577   5.754  1.0366  0.3662  0.7099
49276SOL     OW54942   9.476   0.290   5.379 -0.2147 -0.4019 -0.2800
49276SOL    HW154943   9.394   0.258   5.340  0.2877 -0.8440 -1.0155
49276SOL    HW254944   9.459   0.294   5.473 -0.9354 -0.9393 -0.3809
49277SOL     OW54945  11.422   1.633  11.724  0.3359  0.0837 -0.2158
49277SOL    HW154946  11.342   1.664  11.682  1.0272 -0.3544 -1.9655
49277SOL    HW254947  11.451   1.706  11.779  0.0738  1.2226 -1.5266
49278SOL     OW54948   5.958  11.261   9.481  0.4318  0.0770  0.3991
49278SOL    HW154949   6.011  11.321   9.428  1.6130 -2.2500 -1.2191
49278SOL    HW254950   5.891  11.228   9.420  1.2724 -1.9959  0.5117
49279SOL     OW54951   5.491   1.953   6.884 -0.0034  0.3665  0.0032
49279SOL    HW154952   5.438   2.019   6.929 -0.7463  0.4254 -0.9334
49279SOL    HW254953   5.429   1.908   6.827  1.3197  1.9933 -2.9287
49280SOL     OW54954  11.576   7.812   2.154  0.1427  0.1837  0.1163
49280SOL    HW154955  11.580   7.716   2.159  0.9572  0.1144 -1.2276
49280SOL    HW254956  11.657   7.841   2.196 -0.4775  0.3381  1.2354
49281SOL     OW54957   5.799   4.640  11.552  0.3174 -1.0106  0.9311
49281SOL    HW154958   5.780   4.643  11.458 -0.9538  1.0768  1.1901
49281SOL    HW254959   5.812   4.547  11.571 -0.5982 -1.6046 -1.0886
49282SOL     OW54960   1.306   4.588   5.130 -0.0263 -0.6677  0.2747
49282SOL    HW154961   1.233   4.620   5.077  1.4368 -1.0381 -2.0785
49282SOL    HW254962   1.316   4.496   5.106  0.1413 -1.1062  1.8889
49283SOL     OW54963   7.790   1.803  11.687  0.0934 -0.1962 -0.3617
49283SOL    HW154964   7.769   1.785  11.596  1.2111  1.0536 -0.9009
49283SOL    HW254965   7.811   1.717  11.724 -1.8882 -0.9406 -0.8158
49284SOL     OW54966   1.538   1.439  11.984 -0.3382  0.2950 -0.1701
49284SOL    HW154967   1.524   1.346  12.003 -1.2839  0.1203 -1.5126
49284SOL    HW254968   1.451   1.478  11.993 -0.3549  0.6415 -1.5845
49285SOL     OW54969  10.653   0.566   8.965 -0.2202  0.3668  0.0292
49285SOL    HW154970  10.669   0.602   9.053 -1.9641  2.2495 -0.3490
49285SOL    HW254971  10.571   0.519   8.973  0.8990 -1.7037 -0.0520
49286SOL     OW54972   9.355   3.161   7.281 -0.5625 -0.0197 -0.0679
49286SOL    HW154973   9.338   3.097   7.212  0.5395 -0.8058  0.3693
49286SOL    HW254974   9.443   3.141   7.311 -0.3696  1.4243  0.3942
49287SOL     OW54975   6.390  12.284   1.595 -0.1736  0.7348  0.2495
49287SOL    HW154976   6.471  12.273   1.645  0.2208 -1.1776 -0.7229
49287SOL    HW254977   6.347  12.360   1.636  1.8456  1.5009  1.1015
49288SOL     OW54978   4.617   3.490   5.216 -0.2232 -0.5216 -0.6181
49288SOL    HW154979   4.613   3.425   5.146 -1.5146  0.2460 -1.3004
49288SOL    HW254980   4.571   3.449   5.290 -0.5093 -0.6162 -0.8476
49289SOL     OW54981   3.134   1.398   0.866 -0.0034  0.1223 -0.1643
49289SOL    HW154982   3.094   1.327   0.816  0.6425  0.4029 -1.1256
49289SOL    HW254983   3.182   1.355   0.936 -1.4034 -0.2508  0.6075
49290SOL     OW54984  12.736   6.401   6.735  0.6909  0.2132  0.0720
49290SOL    HW154985  12.803   6.423   6.670  1.9224  0.2166  1.2864
49290SOL    HW254986  12.676   6.342   6.690  1.8894 -0.3230 -0.8639
49291SOL     OW54987  11.835   1.314  11.854 -0.4605  0.1464 -0.4984
49291SOL    HW154988  11.819   1.394  11.904  2.3446  0.7772 -0.4207
49291SOL    HW254989  11.892   1.342  11.782  3.9053 -2.2313  1.6674
49292SOL     OW54990   3.863   1.943   8.019  0.2387 -0.1175  0.3893
49292SOL    HW154991   3.860   2.033   8.053  0.2838 -0.0995  0.3454
49292SOL    HW254992   3.922   1.897   8.079  2.3816  0.5173 -1.0977
49293SOL     OW54993  12.651   0.766   8.059  0.1680  0.0488  0.0736
49293SOL    HW154994  12.597   0.811   8.124 -0.3016  0.8991 -0.8654
49293SOL    HW254995  12.735   0.812   8.061 -0.1498  0.6675 -0.5456
49294SOL     OW54996   2.125   7.859   6.137 -0.1450 -0.0078  0.3933
49294SOL    HW154997   2.191   7.902   6.083 -1.8672 -0.5332 -2.3309
49294SOL    HW254998   2.065   7.929   6.162 -0.1092  0.0163  0.4115
49295SOL     OW54999   7.228  10.489  10.861  0.6674 -0.4825 -0.2055
49295SOL    HW155000   7.261  10.561  10.808 -0.3131  0.8511  0.9276
49295SOL    HW255001   7.162  10.447  10.806  0.0060  0.5813 -0.2534
49296SOL     OW55002   4.240  10.404   1.802  0.0159 -0.2469 -0.2723
49296SOL    HW155003   4.197  10.489   1.811  0.4594 -0.1267  0.9124
49296SOL    HW255004   4.192  10.360   1.733 -1.4635  0.2096  0.4319
49297SOL     OW55005   1.755   1.007   6.424  0.0360  0.1348  0.5881
49297SOL    HW155006   1.782   0.932   6.477 -0.0067  0.9196  1.7508
49297SOL    HW255007   1.809   1.079   6.455 -0.6796  0.8426  0.2320
49298SOL     OW55008   2.067  12.122   4.169  0.2216 -0.0928  1.0632
49298SOL    HW155009   1.996  12.126   4.234  0.4482 -3.5552  1.7385
49298SOL    HW255010   2.122  12.197   4.189 -1.9723  1.3806  2.0417
49299SOL     OW55011   5.931   0.120   3.472  0.3875  0.2662 -0.0265
49299SOL    HW155012   5.959   0.089   3.558  0.6554  1.3606  0.3064
49299SOL    HW255013   5.882   0.201   3.491 -0.7393 -0.2034 -0.8045
49300SOL     OW55014   4.970   0.861   4.223  0.0871  0.2370  0.5601
49300SOL    HW155015   4.934   0.859   4.312 -0.4322  0.2940  0.3555
49300SOL    HW255016   4.997   0.952   4.210 -1.3385  0.6128  0.0807
49301SOL     OW55017   0.900   1.977   1.615  0.0228 -0.1880 -0.0460
49301SOL    HW155018   0.990   1.968   1.647  0.6642  2.5002 -0.7848
49301SOL    HW255019   0.901   1.939   1.528  0.1302 -1.1621  0.3691
49302SOL     OW55020   1.895  12.382   6.659  0.7052 -0.2298  0.1936
49302SOL    HW155021   1.902  12.476   6.641  1.1000 -0.6478 -2.1493
49302SOL    HW255022   1.984  12.353   6.675  0.8762 -0.5365 -1.1798
49303SOL     OW55023   9.785  10.305   7.624  0.3883  0.2622  0.1399
49303SOL    HW155024   9.714  10.294   7.561 -0.0865  0.2452  0.6684
49303SOL    HW255025   9.745  10.350   7.699  0.9730  0.4113  0.3753
49304SOL     OW55026  10.681   6.718   3.340 -0.2001  0.0321 -0.2502
49304SOL    HW155027  10.730   6.706   3.259 -1.6242  0.5525 -1.2220
49304SOL    HW255028  10.710   6.646   3.396  0.8155 -0.3322 -1.2067
49305SOL     OW55029   5.846   8.919   4.997 -0.6924  0.0175  0.3288
49305SOL    HW155030   5.923   8.904   4.941  0.5199  2.0361  1.3491
49305SOL    HW255031   5.838   8.838   5.048  0.8574 -0.1970  0.2879
49306SOL     OW55032  12.704   5.906   2.361  0.2779  0.2304 -0.2409
49306SOL    HW155033  12.695   5.997   2.332 -1.0542  0.2892  0.2808
49306SOL    HW255034  12.748   5.911   2.445  2.2259  0.2070 -1.2022
49307SOL     OW55035   3.783  11.611   3.395  0.0241 -0.3865 -0.1900
49307SOL    HW155036   3.788  11.592   3.302  1.1078  2.2227 -0.7675
49307SOL    HW255037   3.735  11.694   3.399  2.9646  1.4212  1.1851
49308SOL     OW55038   6.751   1.687   9.511 -0.2263  0.4173  0.2864
49308SOL    HW155039   6.806   1.757   9.474  1.3486 -1.1782 -0.5346
49308SOL    HW255040   6.768   1.690   9.605  0.6465  0.4742  0.1332
49309SOL     OW55041   9.930   2.465   4.171  0.5740  0.1826  0.2895
49309SOL    HW155042   9.967   2.464   4.082 -0.3594 -0.1417 -0.1047
49309SOL    HW255043   9.894   2.377   4.183  2.5888 -0.5194  1.8284
49310SOL     OW55044   4.626   8.414  12.948  0.3221  0.4996  0.3012
49310SOL    HW155045   4.663   8.330  12.973 -0.3072  0.1258 -0.0045
49310SOL    HW255046   4.628   8.466  13.029  2.9162  1.0612 -0.0155
49311SOL     OW55047  10.745   0.874   6.459 -0.3283 -0.2949  0.1628
49311SOL    HW155048  10.786   0.960   6.462 -0.3414 -0.3053  0.7322
49311SOL    HW255049  10.749   0.848   6.367  1.0509 -0.3514  0.2173
49312SOL     OW55050   8.776  11.422   8.673 -0.3154 -0.4307 -0.2852
49312SOL    HW155051   8.825  11.357   8.623  0.4264  0.5584 -0.8708
49312SOL    HW255052   8.685  11.410   8.646 -0.0943 -0.8022 -0.8653
49313SOL     OW55053   2.307   1.057  11.228 -0.0776  0.6510  0.1665
49313SOL    HW155054   2.223   1.012  11.233  0.4086 -0.2530  0.6024
49313SOL    HW255055   2.361   1.000  11.172  0.4093  0.9357  0.3363
49314SOL     OW55056   7.543   8.417   3.942  0.3988  0.1901 -0.1745
49314SOL    HW155057   7.609   8.483   3.964  2.1583 -1.7569  0.6122
49314SOL    HW255058   7.473   8.431   4.006  1.2775  0.5539  0.7245
49315SOL     OW55059   1.315  11.432   1.370  0.2645  0.2475  0.4800
49315SOL    HW155060   1.223  11.407   1.382  0.0277 -0.0072 -1.5050
49315SOL    HW255061   1.352  11.432   1.458 -1.3461 -0.8117  1.1940
49316SOL     OW55062   0.842   7.825  11.481  0.2863  0.0853  0.2727
49316SOL    HW155063   0.878   7.816  11.392 -0.6342 -1.1167 -0.0140
49316SOL    HW255064   0.749   7.804  11.471 -0.0347  0.9146  1.3643
49317SOL     OW55065  10.253   4.884  10.613 -0.0245 -0.1953 -0.0152
49317SOL    HW155066  10.228   4.917  10.699 -0.3280 -2.4113  0.8093
49317SOL    HW255067  10.335   4.837  10.628  0.6104  0.4784 -1.2194
49318SOL     OW55068   1.738   4.833   6.573 -0.3433  0.2167  0.1269
49318SOL    HW155069   1.807   4.788   6.525 -0.6403  0.2564 -0.3383
49318SOL    HW255070   1.716   4.773   6.644  1.3534  0.9240  1.3256
49319SOL     OW55071  11.634  11.761  12.721 -0.4580 -0.0621 -0.2197
49319SOL    HW155072  11.612  11.835  12.777  0.2638  0.8546 -1.1146
49319SOL    HW255073  11.554  11.708  12.718 -1.2631  1.1269 -0.2601
49320SOL     OW55074   5.174   7.274   3.422 -0.3864  0.3633 -0.3544
49320SOL    HW155075   5.116   7.229   3.360 -0.5952 -0.8189  0.6464
49320SOL    HW255076   5.238   7.319   3.367 -1.5383  0.7250 -1.4548
49321SOL     OW55077  12.847   8.227  11.829 -0.2211  0.1900 -0.0597
49321SOL    HW155078  12.779   8.293  11.842 -1.0286 -0.2921 -1.6582
49321SOL    HW255079  12.805   8.159  11.777  1.1512 -0.6930 -0.0611
49322SOL     OW55080  12.530   2.529   7.217 -0.3612  0.1772 -0.6120
49322SOL    HW155081  12.604   2.476   7.246  0.5123  0.5086 -2.1253
49322SOL    HW255082  12.528   2.603   7.278  0.0918 -0.2095 -0.1239
49323SOL     OW55083   6.170   6.548   1.072 -0.4685 -0.7244 -0.1867
49323SOL    HW155084   6.206   6.589   0.993 -2.1553  0.1228 -0.5723
49323SOL    HW255085   6.158   6.456   1.048 -2.2122 -0.2286 -1.4397
49324SOL     OW55086   8.770  10.523   9.115 -0.3858  0.3755  0.2959
49324SOL    HW155087   8.714  10.509   9.039  0.3246 -0.4177 -0.1023
49324SOL    HW255088   8.768  10.617   9.131 -0.5819  0.5374 -0.6734
49325SOL     OW55089  10.939   3.373   6.980 -0.3015 -0.3219 -0.8942
49325SOL    HW155090  10.918   3.320   6.903  0.2166 -1.2129 -0.4388
49325SOL    HW255091  11.026   3.343   7.007 -0.8415 -0.6642  0.5582
49326SOL     OW55092   0.017  11.378  10.049 -0.5737 -0.5680 -0.5546
49326SOL    HW155093  -0.078  11.386  10.061 -0.3806  0.3615  0.5391
49326SOL    HW255094   0.053  11.398  10.135  0.6434 -0.5883 -1.0476
49327SOL     OW55095   9.472   8.667   3.681 -0.2009 -0.2299  0.2376
49327SOL    HW155096   9.483   8.649   3.587  0.1134  1.8403 -0.1736
49327SOL    HW255097   9.505   8.757   3.692 -0.8667 -0.1824  2.2109
49328SOL     OW55098   5.280   5.547   7.255 -0.1112 -0.0994 -0.0911
49328SOL    HW155099   5.210   5.507   7.203 -1.3835  2.0847 -0.1735
49328SOL    HW255100   5.249   5.542   7.345 -0.0244  0.2069 -0.0442
49329SOL     OW55101   9.613   4.763  12.001 -0.4313 -0.1560  0.2463
49329SOL    HW155102   9.660   4.785  12.081 -0.2066 -1.1665  0.4071
49329SOL    HW255103   9.643   4.675  11.979  1.5299  1.0284 -2.4002
49330SOL     OW55104   3.010   3.071   4.495 -0.0756  0.2822 -0.3426
49330SOL    HW155105   3.096   3.073   4.455  0.2410  1.1089  0.3566
49330SOL    HW255106   2.971   2.988   4.465  1.1265 -0.3150 -0.3031
49331SOL     OW55107   0.721  12.363   4.326  0.2097  0.5836  0.2235
49331SOL    HW155108   0.783  12.388   4.395  1.2887  0.2708 -0.6186
49331SOL    HW255109   0.647  12.324   4.374  1.7549 -1.4022  1.1379
49332SOL     OW55110   9.229   0.138   3.732  0.4357 -0.4643  0.5179
49332SOL    HW155111   9.266   0.224   3.751 -0.4186  0.1799 -0.6030
49332SOL    HW255112   9.208   0.141   3.639  2.3134 -2.6576 -0.0745
49333SOL     OW55113   3.304   7.223   0.549  0.2497 -0.1728  0.2394
49333SOL    HW155114   3.268   7.140   0.579  0.8167 -0.3472  0.4487
49333SOL    HW255115   3.228   7.273   0.518 -0.0018 -1.0292 -0.5477
49334SOL     OW55116   4.606   1.382   2.466 -0.4035  0.2885 -0.3395
49334SOL    HW155117   4.586   1.382   2.560 -0.0492 -0.5091 -0.2600
49334SOL    HW255118   4.570   1.465   2.434 -0.0703  0.7996  0.5970
49335SOL     OW55119   7.729  10.002   4.182 -0.3784 -0.0993 -0.1929
49335SOL    HW155120   7.743  10.042   4.096 -2.1719 -2.2339 -1.5884
49335SOL    HW255121   7.636  10.015   4.200 -0.4770 -1.4516  0.4337
49336SOL     OW55122  11.255   2.177   0.872 -0.3292  0.3729 -0.2076
49336SOL    HW155123  11.324   2.233   0.907  0.0965 -0.3446  0.1354
49336SOL    HW255124  11.255   2.193   0.778  0.0453  0.6712 -0.1580
49337SOL     OW55125  12.238   7.112   9.658  0.2979  0.0692  0.4098
49337SOL    HW155126  12.261   7.205   9.666  0.0937  0.2018 -0.4238
49337SOL    HW255127  12.161   7.102   9.713 -0.8238  0.8434 -0.9304
49338SOL     OW55128  11.091   6.774   1.020 -0.4998  0.3536 -0.0148
49338SOL    HW155129  11.030   6.840   0.987  0.4523  1.5372  0.5349
49338SOL    HW255130  11.163   6.824   1.058  0.8942 -0.9991 -0.7633
49339SOL     OW55131   7.155  12.093   5.024  0.0780  0.2032  0.3155
49339SOL    HW155132   7.158  12.002   5.053 -1.4048 -0.2614 -0.8303
49339SOL    HW255133   7.192  12.091   4.936  0.9137  0.8958  0.6404
49340SOL     OW55134   5.364   3.325   3.323  0.3044  0.1168 -0.0289
49340SOL    HW155135   5.362   3.406   3.373 -1.1682  0.1505 -0.0907
49340SOL    HW255136   5.396   3.350   3.237 -2.0468  1.0726 -0.7010
49341SOL     OW55137   5.087   7.568   8.691 -0.4278  0.6865  0.3175
49341SOL    HW155138   5.074   7.623   8.768 -3.4182  0.6225 -0.0101
49341SOL    HW255139   5.093   7.629   8.618  1.4538  0.7026  0.4269
49342SOL     OW55140   3.944   0.515  12.510 -0.3017 -0.2937 -0.1392
49342SOL    HW155141   4.005   0.494  12.581  1.3459  0.9590 -1.1226
49342SOL    HW255142   3.857   0.500  12.548  0.5118  0.3926  2.1671
49343SOL     OW55143  11.239   6.979  11.109  0.5344  0.0747  0.3098
49343SOL    HW155144  11.294   6.995  11.032  0.5968  1.8608  0.6648
49343SOL    HW255145  11.238   7.063  11.155  1.4443 -1.2280  2.9065
49344SOL     OW55146  11.680   4.643  10.298 -0.0247 -0.3455  0.4552
49344SOL    HW155147  11.614   4.596  10.348 -1.8418  0.2186 -1.2601
49344SOL    HW255148  11.716   4.706  10.360  1.6627 -3.0840  2.4820
49345SOL     OW55149   7.587   3.164   8.554 -0.3911 -0.3500  0.0257
49345SOL    HW155150   7.632   3.232   8.605  0.4084  0.1974 -1.3717
49345SOL    HW255151   7.591   3.087   8.610  0.4169  0.2493  0.8308
49346SOL     OW55152   4.740   6.907   9.060 -0.0166 -0.2043 -0.0518
49346SOL    HW155153   4.759   6.963   8.985 -0.7302  1.2539  0.8097
49346SOL    HW255154   4.752   6.818   9.027 -2.3093  0.2628 -2.4909
49347SOL     OW55155  10.521   0.819   8.615  0.2721 -0.2665  0.2502
49347SOL    HW155156  10.558   0.843   8.700  0.1590 -0.4921  0.3652
49347SOL    HW255157  10.589   0.767   8.573  0.1250 -0.6107  0.4277
49348SOL     OW55158  10.617   3.842   4.920  0.5904 -0.3638 -0.1100
49348SOL    HW155159  10.596   3.818   5.010 -1.2753 -3.5487 -1.2256
49348SOL    HW255160  10.705   3.879   4.925  0.3397  0.0486  3.0530
49349SOL     OW55161   8.492   7.214   2.749  0.0766  0.6631 -0.2686
49349SOL    HW155162   8.553   7.155   2.704  1.8922  1.7929  0.6242
49349SOL    HW255163   8.428   7.238   2.682 -0.5517 -2.0304 -0.7405
49350SOL     OW55164   5.097   0.096   5.128  0.0947 -0.0197  0.3943
49350SOL    HW155165   5.043   0.131   5.057  0.4648  0.4217  0.3325
49350SOL    HW255166   5.047   0.115   5.207  0.7359  1.5007  0.4479
49351SOL     OW55167   1.913   7.332   2.973  0.7213  0.0021  0.4275
49351SOL    HW155168   1.906   7.301   3.063  1.4770  1.4911  1.0340
49351SOL    HW255169   1.977   7.273   2.932  0.4458 -0.6175  0.8740
49352SOL     OW55170   6.432   0.615   2.239 -0.4286 -0.2389 -0.3169
49352SOL    HW155171   6.345   0.606   2.279 -1.1161 -1.8198 -1.9778
49352SOL    HW255172   6.476   0.532   2.257 -0.9619 -1.2363 -3.0791
49353SOL     OW55173   1.230   3.398  12.522  0.5408  0.3263 -0.1052
49353SOL    HW155174   1.320   3.427  12.505  1.7201 -1.6494  2.1886
49353SOL    HW255175   1.232   3.303  12.506 -2.3124  0.6598 -4.0944
49354SOL     OW55176  12.365   1.049   3.167 -0.4611 -0.1774  0.2738
49354SOL    HW155177  12.433   1.006   3.218  0.4519  0.2537 -0.5457
49354SOL    HW255178  12.289   1.053   3.225 -0.1121 -1.5879  0.8481
49355SOL     OW55179   1.594  10.694   3.653 -0.1799 -0.5121  0.4265
49355SOL    HW155180   1.513  10.743   3.638  0.9590  1.1274 -0.7852
49355SOL    HW255181   1.588  10.620   3.593 -0.1750  0.4443 -0.8185
49356SOL     OW55182   2.828   1.928   8.399 -0.0563  0.2192  0.1300
49356SOL    HW155183   2.740   1.961   8.379 -0.3396  0.0685  1.0817
49356SOL    HW255184   2.857   1.981   8.473  0.0634 -0.6806  0.7496
49357SOL     OW55185   0.125  11.072   5.584 -0.3808 -0.2725 -0.0503
49357SOL    HW155186   0.163  10.986   5.599 -1.2460 -1.0421 -1.9345
49357SOL    HW255187   0.032  11.061   5.600 -0.7878 -0.2245 -2.0879
49358SOL     OW55188  11.376   3.224   0.141  0.1523 -0.3592 -1.3261
49358SOL    HW155189  11.306   3.215   0.205 -0.6182  1.9573 -1.7383
49358SOL    HW255190  11.330   3.241   0.058  1.1443 -2.4045 -2.3912
49359SOL     OW55191   0.876   3.762   7.056  0.0591  0.4808 -0.4321
49359SOL    HW155192   0.793   3.803   7.032  0.4600 -0.0609 -2.9959
49359SOL    HW255193   0.901   3.711   6.979  2.1821 -0.3601  0.7283
49360SOL     OW55194   5.744   0.358   5.654  0.2030 -0.4287  0.2637
49360SOL    HW155195   5.682   0.362   5.582  0.5359  0.1203  0.0030
49360SOL    HW255196   5.830   0.353   5.613  0.3476 -1.0044  0.6223
49361SOL     OW55197  11.842   5.341   2.548  0.1030  0.2880  0.1742
49361SOL    HW155198  11.837   5.327   2.642  0.5980 -1.4650 -0.0140
49361SOL    HW255199  11.936   5.354   2.531  0.1536 -0.4404 -0.1701
49362SOL     OW55200  12.696  10.365   6.438 -0.1853 -0.6754  0.3672
49362SOL    HW155201  12.720  10.402   6.523 -1.1265 -0.7932  0.6936
49362SOL    HW255202  12.604  10.341   6.447 -0.0479 -1.5697 -0.3750
49363SOL     OW55203   6.387   6.321   8.705  0.1793 -0.7269  0.3925
49363SOL    HW155204   6.482   6.306   8.708  0.1677 -0.7120  2.0626
49363SOL    HW255205   6.349   6.234   8.695  0.3716 -0.6889 -0.7320
49364SOL     OW55206   0.876   6.452   1.076  0.3939 -0.6364  0.1725
49364SOL    HW155207   0.914   6.385   1.133  0.9117 -0.2026  0.3521
49364SOL    HW255208   0.920   6.439   0.991 -0.4865 -1.3787 -0.1818
49365SOL     OW55209   8.263   6.363  11.724 -0.2975  0.0045 -0.2001
49365SOL    HW155210   8.270   6.341  11.817  1.0337 -1.3586 -0.5871
49365SOL    HW255211   8.240   6.281  11.681 -0.8487  0.6123 -1.0972
49366SOL     OW55212   2.044   1.975   5.586  0.5927  0.3031  0.0549
49366SOL    HW155213   2.088   2.010   5.663  1.1406  1.7905 -0.8739
49366SOL    HW255214   2.034   2.051   5.528  2.4054 -1.1669 -2.3767
49367SOL     OW55215   9.697   9.448   7.684 -0.0760 -0.5928 -0.0123
49367SOL    HW155216   9.767   9.398   7.642 -0.8643 -0.3595 -1.7204
49367SOL    HW255217   9.671   9.396   7.760  1.6062 -0.9079  0.3693
49368SOL     OW55218   8.720   9.613   9.761  0.4186 -0.4264  0.2853
49368SOL    HW155219   8.768   9.696   9.758  0.5915 -0.4978  0.9733
49368SOL    HW255220   8.721   9.588   9.853  0.9169 -1.5148 -0.0008
49369SOL     OW55221  11.658  12.619   8.580  0.2581  0.4662  0.3838
49369SOL    HW155222  11.570  12.635   8.614  0.5118  0.6101  1.0019
49369SOL    HW255223  11.668  12.524   8.586 -0.3397  0.3002 -0.9550
49370SOL     OW55224   6.303   6.447   4.590 -0.3982  0.0271 -0.1538
49370SOL    HW155225   6.356   6.370   4.607  0.4828  1.0711  2.2449
49370SOL    HW255226   6.282   6.442   4.496  2.5103 -1.3231 -0.8390
49371SOL     OW55227   1.446  11.167  12.727  0.5722  0.2393 -0.5644
49371SOL    HW155228   1.418  11.088  12.772 -0.7526  0.1860 -1.4205
49371SOL    HW255229   1.510  11.137  12.663  1.2052  0.0865  0.1256
49372SOL     OW55230   8.980   8.823  11.810  0.4155 -0.2546 -0.6400
49372SOL    HW155231   9.004   8.831  11.902  0.1588  0.4711 -0.6283
49372SOL    HW255232   8.885   8.839  11.808  0.4799  0.1358 -1.0681
49373SOL     OW55233   4.665   4.135   0.388 -0.0060  0.3050  0.0197
49373SOL    HW155234   4.703   4.193   0.322 -0.7307 -0.1140 -0.7929
49373SOL    HW255235   4.735   4.075   0.411  0.7477  1.4624  0.8506
49374SOL     OW55236   0.495  12.220  11.245 -0.7895 -0.6516  0.2451
49374SOL    HW155237   0.581  12.250  11.273 -0.5674 -0.6545 -0.4117
49374SOL    HW255238   0.504  12.125  11.237 -0.5174 -0.5418 -0.9148
49375SOL     OW55239  12.548   6.469   7.815  0.4476  0.1571 -0.1373
49375SOL    HW155240  12.531   6.473   7.721  0.7997  1.1069 -0.1679
49375SOL    HW255241  12.463   6.448   7.854  0.1411  0.5131 -0.6076
49376SOL     OW55242   6.498  10.238   6.849  0.3113 -0.3794  0.7836
49376SOL    HW155243   6.469  10.195   6.929 -0.6406  0.5686  0.9850
49376SOL    HW255244   6.441  10.202   6.781 -2.9943  2.9107  1.4823
49377SOL     OW55245   2.895   6.197  10.703  0.5435  0.3106  0.0010
49377SOL    HW155246   2.808   6.176  10.738 -0.1408  0.0909 -1.7001
49377SOL    HW255247   2.950   6.122  10.728  0.0608  0.1038  0.4662
49378SOL     OW55248   8.929   7.743   8.136 -0.5350  0.3316  0.0831
49378SOL    HW155249   8.882   7.665   8.167 -0.3201 -0.1565 -0.7849
49378SOL    HW255250   8.984   7.710   8.064 -0.1158  1.2074 -0.0021
49379SOL     OW55251   4.059   0.032  12.857  0.1441 -0.2494 -0.6121
49379SOL    HW155252   4.108   0.053  12.778  0.0698  2.1664 -0.1051
49379SOL    HW255253   3.979   0.084  12.850  0.4739  0.5916  1.3676
49380SOL     OW55254   2.495   7.882   3.102  0.4573  0.0872 -0.5258
49380SOL    HW155255   2.509   7.951   3.168  0.0753  0.3144 -0.6805
49380SOL    HW255256   2.538   7.805   3.139  0.0906  0.1623  0.0706
49381SOL     OW55257   7.665   7.033   2.478  0.0283  0.2542  0.4935
49381SOL    HW155258   7.679   7.127   2.464  3.0916  0.0488  1.5206
49381SOL    HW255259   7.753   6.996   2.482 -1.0425 -3.0249 -1.7851
49382SOL     OW55260  11.886   3.293   7.911  0.5225 -0.5240 -0.4774
49382SOL    HW155261  11.836   3.297   7.830 -0.7850 -2.1145  0.2026
49382SOL    HW255262  11.870   3.377   7.953 -0.1809 -0.3520 -1.0715
49383SOL     OW55263   6.433  12.245   3.007 -0.4636  0.3652  0.1242
49383SOL    HW155264   6.415  12.334   3.038 -0.3718  0.8941 -1.2587
49383SOL    HW255265   6.518  12.223   3.046 -1.7199 -0.2121  2.6808
49384SOL     OW55266   8.695   6.118   8.993  0.1484  0.7621 -0.1171
49384SOL    HW155267   8.736   6.198   9.024 -0.1085  1.6710 -2.0205
49384SOL    HW255268   8.652   6.142   8.911  0.5462 -1.4340 -1.0633
49385SOL     OW55269  10.729   3.951   7.890  0.3199 -0.3185 -0.0893
49385SOL    HW155270  10.675   4.004   7.830  2.8017  1.0808 -1.2716
49385SOL    HW255271  10.668   3.890   7.929 -2.0573  0.9407 -1.5524
49386SOL     OW55272   9.666   5.374   1.673 -0.1992  0.0950  0.3228
49386SOL    HW155273   9.673   5.331   1.588  1.1501 -1.2727  1.0944
49386SOL    HW255274   9.576   5.358   1.701  0.2561 -2.2556  0.5810
49387SOL     OW55275   8.928  10.432   4.228  0.5702  0.2290 -0.0107
49387SOL    HW155276   8.901  10.523   4.232  0.4071  0.1873 -0.1173
49387SOL    HW255277   8.983  10.427   4.149 -3.1984 -0.7055 -2.8884
49388SOL     OW55278   6.034   9.581   3.086 -0.2964 -0.3496  0.7019
49388SOL    HW155279   6.068   9.653   3.138 -1.3145  0.0656  0.8100
49388SOL    HW255280   5.965   9.543   3.140  1.3035 -2.5062  1.3997
49389SOL     OW55281   2.329  12.701   8.675 -0.3908  0.0651  0.3149
49389SOL    HW155282   2.275  12.726   8.750 -0.8292 -1.4536  0.5440
49389SOL    HW255283   2.317  12.772   8.612 -2.1263  0.1067  0.6467
49390SOL     OW55284   4.320  12.324   4.020  0.1324 -0.0005 -0.4949
49390SOL    HW155285   4.334  12.386   3.949  0.1278 -0.2346 -0.7019
49390SOL    HW255286   4.303  12.378   4.096 -0.9306  0.2523 -0.8934
49391SOL     OW55287   8.333   6.166   3.901 -0.3874  0.3601  0.4151
49391SOL    HW155288   8.291   6.094   3.948 -0.7524  0.9212  0.9638
49391SOL    HW255289   8.264   6.204   3.847  0.4042 -1.3586 -1.9912
49392SOL     OW55290   2.547   9.582   2.338 -0.0779  0.4870  0.4229
49392SOL    HW155291   2.577   9.673   2.330 -0.2263  0.4426 -1.0023
49392SOL    HW255292   2.486   9.571   2.265  0.4369 -0.9552  0.1779
49393SOL     OW55293   2.926   5.177   0.513 -0.0156 -0.7222 -0.0121
49393SOL    HW155294   2.878   5.241   0.565  0.2322 -0.6534  0.1314
49393SOL    HW255295   2.939   5.102   0.572  0.4818 -0.5451  0.1046
49394SOL     OW55296   8.543   8.768   0.706 -0.1120 -0.2002 -0.7735
49394SOL    HW155297   8.616   8.830   0.705 -0.1699  0.0189  1.8095
49394SOL    HW255298   8.479   8.807   0.765 -1.2759 -1.5378 -1.0896
49395SOL     OW55299   6.402   4.709  10.466  0.8656  0.0775 -0.2295
49395SOL    HW155300   6.325   4.732  10.518  1.5405 -0.8467  1.2467
49395SOL    HW255301   6.439   4.632  10.510  2.9582  0.8231 -0.5473
49396SOL     OW55302  11.294  12.529  12.356  0.2037 -0.2273  0.0096
49396SOL    HW155303  11.295  12.588  12.281  2.0044 -0.1895  0.0288
49396SOL    HW255304  11.336  12.579  12.426 -1.1308 -0.3856  0.9840
49397SOL     OW55305   6.196   0.769  10.009 -0.0555  0.6137 -0.0622
49397SOL    HW155306   6.272   0.767  10.067 -0.0013  0.8961 -0.1234
49397SOL    HW255307   6.129   0.717  10.054 -0.3815  1.7197  0.7518
49398SOL     OW55308   1.777   3.646   4.543 -0.0797  0.0275  0.1903
49398SOL    HW155309   1.851   3.689   4.587 -0.1117  2.4556 -1.8934
49398SOL    HW255310   1.818   3.600   4.469 -0.5449  0.6438 -0.4567
49399SOL     OW55311  11.383   3.813   3.272 -0.0431  0.1330 -0.0399
49399SOL    HW155312  11.340   3.821   3.357 -0.7900 -1.0520 -0.2717
49399SOL    HW255313  11.314   3.779   3.214  0.5690  0.5158 -1.0068
49400SOL     OW55314  11.731   7.622  10.376  0.1291 -0.3415 -0.2390
49400SOL    HW155315  11.643   7.641  10.343  0.3008  1.6841  0.3279
49400SOL    HW255316  11.790   7.658  10.309  0.4980 -0.0099  0.2575
49401SOL     OW55317  11.337   5.967   2.135  0.6598 -0.0304  0.2995
49401SOL    HW155318  11.401   5.910   2.091  0.1644 -0.2693 -0.1284
49401SOL    HW255319  11.255   5.918   2.130  0.5572  0.0214  1.3495
49402SOL     OW55320   2.912   6.588   7.184  0.4722  0.6110 -0.5831
49402SOL    HW155321   2.975   6.551   7.122  0.5342 -0.9111  0.3316
49402SOL    HW255322   2.830   6.543   7.166  0.2673  0.8042 -0.1574
49403SOL     OW55323  12.737   0.850   0.470  0.3828 -0.1286 -0.2744
49403SOL    HW155324  12.809   0.820   0.526  0.1246 -2.4188 -1.0702
49403SOL    HW255325  12.686   0.771   0.452 -0.6236  0.8898 -2.1901
49404SOL     OW55326   8.875   9.204   8.255 -0.1824 -0.2720  0.1076
49404SOL    HW155327   8.858   9.184   8.347  2.4834 -4.6747 -0.0836
49404SOL    HW255328   8.964   9.239   8.254 -0.2379 -0.1361 -0.7945
49405SOL     OW55329   8.193   9.038   3.686  0.2953 -0.2663  0.2030
49405SOL    HW155330   8.143   8.957   3.701  0.8729 -0.7793 -0.5608
49405SOL    HW255331   8.244   9.049   3.766  0.2693 -0.7076  0.2847
49406SOL     OW55332   3.793   9.119   7.710  0.3100 -0.0517  0.3110
49406SOL    HW155333   3.887   9.102   7.704  0.3100 -0.3666  1.1299
49406SOL    HW255334   3.787   9.213   7.730  0.5195 -0.3345  1.8247
49407SOL     OW55335   2.898   8.226   7.180  0.1536  0.7567 -0.0794
49407SOL    HW155336   2.911   8.224   7.274  0.1461  0.1443 -0.0923
49407SOL    HW255337   2.972   8.178   7.144 -0.4677 -0.0506 -0.3161
49408SOL     OW55338  11.123  11.483   7.480  0.5486 -0.2970 -0.1964
49408SOL    HW155339  11.206  11.444   7.453  0.6376  0.2648 -0.7693
49408SOL    HW255340  11.065  11.469   7.405 -0.3794 -2.1082  0.8095
49409SOL     OW55341  12.302   1.623  11.183 -0.1695 -0.7438  0.2296
49409SOL    HW155342  12.309   1.572  11.264  2.5418 -2.1977 -0.7931
49409SOL    HW255343  12.299   1.557  11.114 -0.0442  0.4681 -0.9689
49410SOL     OW55344   5.190   2.332  11.185  0.3742  0.3423 -0.7226
49410SOL    HW155345   5.231   2.266  11.129 -0.3608 -0.4093 -0.3934
49410SOL    HW255346   5.155   2.283  11.259  0.0957  1.1460 -0.3044
49411SOL     OW55347   8.178   3.305   8.906 -0.2845 -0.2880  0.9002
49411SOL    HW155348   8.215   3.321   8.992  0.9579  1.8203  0.0587
49411SOL    HW255349   8.246   3.258   8.858  0.0825  0.8038  0.3162
49412SOL     OW55350   1.448   4.772   4.843 -0.4590 -0.3594 -0.0801
49412SOL    HW155351   1.379   4.832   4.813 -0.0881 -0.4076 -1.0769
49412SOL    HW255352   1.455   4.788   4.937 -2.2007 -0.7405  0.1478
49413SOL     OW55353   5.076   5.724   4.493 -0.0223 -0.5497  0.1321
49413SOL    HW155354   5.007   5.784   4.463  0.3998  0.0974  0.4130
49413SOL    HW255355   5.091   5.666   4.419 -1.3155 -1.1218  0.2885
49414SOL     OW55356   4.196   3.308   5.047 -0.3281  0.2094  0.0068
49414SOL    HW155357   4.272   3.254   5.069 -0.7449 -0.0313  0.9210
49414SOL    HW255358   4.220   3.396   5.073 -0.4849  0.0732  0.6337
49415SOL     OW55359   6.725   2.116  12.705 -0.5878 -0.0649 -0.5412
49415SOL    HW155360   6.671   2.190  12.678  1.3405  1.3585 -0.7133
49415SOL    HW255361   6.770   2.147  12.783 -0.5462 -1.4744  0.0195
49416SOL     OW55362   7.321   3.681   1.949 -0.0676 -0.1177 -0.1571
49416SOL    HW155363   7.241   3.636   1.921 -0.9693 -0.4241  2.6047
49416SOL    HW255364   7.292   3.768   1.975  0.8150  0.3655 -0.7480
49417SOL     OW55365   9.855   3.352   7.667  0.9595 -0.4971 -0.1585
49417SOL    HW155366   9.778   3.347   7.724  1.0517  0.5692  0.0777
49417SOL    HW255367   9.888   3.441   7.679  2.1148 -0.8794 -0.4158
49418SOL     OW55368   7.300  10.349   4.873  0.1482  0.5592 -0.1405
49418SOL    HW155369   7.357  10.293   4.926  2.0050  1.9856 -0.5156
49418SOL    HW255370   7.212  10.332   4.906  0.9818 -0.3867  1.7454
49419SOL     OW55371   2.639  10.225   6.025 -0.0817  0.1400  0.4175
49419SOL    HW155372   2.711  10.263   5.974 -0.2712 -1.2864 -1.0028
49419SOL    HW255373   2.665  10.238   6.116 -0.2297  3.7647  0.0739
49420SOL     OW55374   6.386   1.880  11.786  0.5263 -0.1020  0.5023
49420SOL    HW155375   6.316   1.822  11.816  0.0198 -0.3856 -1.1401
49420SOL    HW255376   6.434   1.902  11.866 -2.4850  1.5847  1.9957
49421SOL     OW55377  11.604   4.325   4.692 -0.2207  0.4039 -0.6281
49421SOL    HW155378  11.662   4.296   4.762 -2.0476 -0.2746  0.6935
49421SOL    HW255379  11.634   4.413   4.670  2.6751 -0.7249 -1.6083
49422SOL     OW55380  10.452   4.013   7.184  0.1627 -0.7427  0.0387
49422SOL    HW155381  10.499   3.998   7.101  0.2384  0.2593 -0.1145
49422SOL    HW255382  10.437   3.925   7.219  2.4845 -1.1159  0.2802
49423SOL     OW55383  10.384   6.445   0.200  0.0324 -0.8153 -0.1595
49423SOL    HW155384  10.352   6.371   0.251 -0.2086 -1.0611 -0.6638
49423SOL    HW255385  10.390   6.412   0.110  4.5134 -1.7497  0.2563
49424SOL     OW55386  12.136   7.024  10.014 -0.1631  0.0407 -0.2820
49424SOL    HW155387  12.168   7.102  10.059 -0.6316  0.5241 -0.7800
49424SOL    HW255388  12.090   7.057   9.937 -1.0299 -0.6766 -0.0940
49425SOL     OW55389   3.562   2.113   5.009 -0.4049  0.4356 -0.2988
49425SOL    HW155390   3.631   2.153   4.956 -0.8015  0.4219 -0.8393
49425SOL    HW255391   3.580   2.143   5.098  1.0659 -0.6117 -0.1999
49426SOL     OW55392   1.196   8.829   3.951 -0.3935  0.2597  0.3219
49426SOL    HW155393   1.253   8.753   3.966  0.0202 -0.2868 -3.1488
49426SOL    HW255394   1.254   8.897   3.918 -1.4162  0.2731 -1.6145
49427SOL     OW55395   1.749  12.817   9.540 -0.0190  0.5776 -0.4460
49427SOL    HW155396   1.721  12.731   9.571  1.5525  0.4601  0.7361
49427SOL    HW255397   1.673  12.874   9.555 -0.0833  0.0317  1.5763
49428SOL     OW55398  11.087   6.490  11.170  0.5992  0.3929 -0.0342
49428SOL    HW155399  11.120   6.401  11.162 -0.5982  0.0540 -1.6052
49428SOL    HW255400  11.140   6.541  11.109 -0.3550  0.2415 -1.0198
49429SOL     OW55401   2.488   1.735   4.444 -0.3994 -0.2867  0.1549
49429SOL    HW155402   2.462   1.818   4.404  3.4255  0.8889 -0.2833
49429SOL    HW255403   2.496   1.754   4.537  0.1053 -0.2284  0.1053
49430SOL     OW55404   8.461  10.475  12.386  0.1758  0.4510  0.1808
49430SOL    HW155405   8.395  10.524  12.435 -0.2290 -0.1912  0.2914
49430SOL    HW255406   8.439  10.383  12.402  0.9131  0.2297 -0.0305
49431SOL     OW55407   5.119  11.482   3.160 -0.8375  0.1665  0.5795
49431SOL    HW155408   5.061  11.526   3.098  0.3307 -0.5584 -1.0978
49431SOL    HW255409   5.085  11.393   3.167 -1.4273  0.4622  1.6165
49432SOL     OW55410  10.651   5.892   9.251  0.4236 -0.3266 -0.0798
49432SOL    HW155411  10.612   5.816   9.295 -0.9199  0.7708  0.7023
49432SOL    HW255412  10.643   5.963   9.314  0.9951  0.6547 -1.0775
49433SOL     OW55413  10.771   7.841   3.186 -0.3264 -0.4638 -0.6938
49433SOL    HW155414  10.704   7.906   3.207  0.6235  0.2042  0.4247
49433SOL    HW255415  10.743   7.803   3.103 -1.3753  0.7509 -0.9222
49434SOL     OW55416   5.723   5.017   1.195 -0.4021  0.1244  0.0776
49434SOL    HW155417   5.814   5.040   1.175 -0.2880 -0.6045 -0.2576
49434SOL    HW255418   5.684   4.998   1.110 -0.8732  0.4418  0.2219
49435SOL     OW55419   8.876   0.355   2.405 -0.5013 -0.0881  0.4317
49435SOL    HW155420   8.843   0.392   2.487  0.0219  1.6377 -0.0910
49435SOL    HW255421   8.806   0.373   2.342 -0.1513  0.2191  0.1272
49436SOL     OW55422   1.869   9.042   4.945  0.2332 -0.5711  0.0609
49436SOL    HW155423   1.867   8.975   5.014  1.5651  0.7423  1.4515
49436SOL    HW255424   1.916   9.115   4.985 -1.6557  1.4389 -1.2028
49437SOL     OW55425   8.043   2.991   9.921  0.0278  0.2889  0.8190
49437SOL    HW155426   8.051   2.925   9.852 -1.6351  0.9557 -0.0773
49437SOL    HW255427   8.010   2.942   9.996 -0.7567 -0.0177  0.2944
49438SOL     OW55428   3.811  12.560   2.835  0.1722  0.2594 -0.3613
49438SOL    HW155429   3.717  12.566   2.853  0.1994  1.3121 -0.5315
49438SOL    HW255430   3.849  12.533   2.919 -0.2520  0.0513 -0.2313
49439SOL     OW55431  12.221  10.155  11.852 -0.4993  0.2518  0.3527
49439SOL    HW155432  12.171  10.217  11.799 -0.9034 -0.1583  0.2508
49439SOL    HW255433  12.183  10.161  11.939 -0.1956  0.5249  0.4672
49440SOL     OW55434   6.856   1.854   7.703  0.1192 -0.0257  0.1630
49440SOL    HW155435   6.763   1.834   7.698  0.4046 -1.5158  0.2545
49440SOL    HW255436   6.887   1.807   7.780  0.6926  1.6338  0.9851
49441SOL     OW55437   3.119  12.189   3.133  0.2298  0.2250 -0.3158
49441SOL    HW155438   3.050  12.246   3.166 -1.3991 -0.1399 -2.7961
49441SOL    HW255439   3.117  12.112   3.190 -0.6795  0.6826  0.2885
49442SOL     OW55440   5.976   9.797   2.225  0.5158  0.5109  0.3202
49442SOL    HW155441   5.884   9.821   2.209  0.6353  0.3197 -0.6637
49442SOL    HW255442   6.002   9.853   2.298 -0.3247  0.7133  0.4792
49443SOL     OW55443  12.630   2.417   3.008 -0.0503  0.2060 -0.3496
49443SOL    HW155444  12.683   2.365   2.948  1.4370 -0.1461  1.1855
49443SOL    HW255445  12.570   2.354   3.048 -0.0650  0.1728 -0.4247
49444SOL     OW55446  11.966   8.082   4.999  0.3200 -0.5129  0.1813
49444SOL    HW155447  11.938   8.032   5.076 -0.0069 -0.2383  0.2408
49444SOL    HW255448  11.949   8.173   5.021  1.2033 -0.3374  0.1912
49445SOL     OW55449   3.817   5.296   5.645 -0.1644 -1.1220 -0.2936
49445SOL    HW155450   3.831   5.341   5.728  1.5247 -1.5324 -0.3134
49445SOL    HW255451   3.877   5.338   5.584 -0.7665 -1.3943 -1.0885
49446SOL     OW55452   2.136   8.667   1.526  0.1875 -0.2042  0.5251
49446SOL    HW155453   2.098   8.628   1.604 -0.4598  0.0871  0.3658
49446SOL    HW255454   2.061   8.698   1.476  0.6851  2.3967  1.2488
49447SOL     OW55455  10.442   6.422   3.268 -0.8117 -0.1047 -0.7626
49447SOL    HW155456  10.450   6.369   3.189  0.9637  0.6913 -1.1710
49447SOL    HW255457  10.398   6.502   3.239 -0.0866  0.2212 -0.9639
49448SOL     OW55458  10.323   4.513  12.519  0.4029  0.0681  0.1468
49448SOL    HW155459  10.335   4.587  12.577 -0.4014  1.3613 -1.2515
49448SOL    HW255460  10.357   4.543  12.434 -0.8679 -0.7605 -0.7004
49449SOL     OW55461   0.396   9.565   8.172 -0.2844 -0.1772 -0.4795
49449SOL    HW155462   0.382   9.655   8.143  1.5455 -0.1996 -1.6336
49449SOL    HW255463   0.357   9.511   8.103  1.3737 -0.2246 -1.4384
49450SOL     OW55464   1.444   8.780   2.408  0.0721  0.2597 -0.6224
49450SOL    HW155465   1.406   8.832   2.479  0.8768  1.2944 -0.9220
49450SOL    HW255466   1.537   8.775   2.429  0.2066  0.0103 -1.2512
49451SOL     OW55467   5.221  10.060   1.106 -0.1622 -0.1445 -0.3928
49451SOL    HW155468   5.207  10.024   1.018 -0.3694  1.5216 -1.0796
49451SOL    HW255469   5.268  10.142   1.091 -0.8423  0.5313  1.0067
49452SOL     OW55470   7.334   6.873  12.210 -0.3598  0.0401  0.3710
49452SOL    HW155471   7.263   6.903  12.153  0.1564  0.7330  0.0764
49452SOL    HW255472   7.399   6.837  12.150 -0.8160 -1.3885  0.6975
49453SOL     OW55473   8.066   3.195   7.253  0.2263 -0.4737 -0.0451
49453SOL    HW155474   8.045   3.287   7.241  1.6925 -0.1985 -0.7012
49453SOL    HW255475   8.091   3.164   7.166  1.2290 -1.0825  0.4266
49454SOL     OW55476  10.998  12.360   9.729 -0.2891  0.2587 -0.0855
49454SOL    HW155477  10.966  12.279   9.688  1.6621  0.5319 -2.2842
49454SOL    HW255478  10.949  12.430   9.686 -0.1276  0.4115 -0.0199
49455SOL     OW55479   7.400   8.086   1.561  0.2954 -0.3971  0.4223
49455SOL    HW155480   7.479   8.134   1.536 -1.0475  0.6950 -2.1557
49455SOL    HW255481   7.431   8.000   1.587  2.3555  0.1212 -0.1850
49456SOL     OW55482   3.902   4.421   6.296  0.6461  0.1775 -0.0221
49456SOL    HW155483   3.976   4.432   6.237  1.5253 -0.0092  0.9991
49456SOL    HW255484   3.891   4.326   6.303 -0.6658  0.1910 -1.2963
49457SOL     OW55485   6.772   5.683   9.886 -0.0076 -0.1905  0.1781
49457SOL    HW155486   6.711   5.700   9.814  0.3373  1.2735  0.1921
49457SOL    HW255487   6.790   5.589   9.881 -0.8400 -0.3108 -0.9590
49458SOL     OW55488   5.664   1.942   4.724 -0.4109  0.6127  0.5823
49458SOL    HW155489   5.677   1.885   4.799  2.3126 -0.1560 -0.3542
49458SOL    HW255490   5.606   1.893   4.666 -1.3272  0.5839  1.4870
49459SOL     OW55491   6.278  12.729   6.589  0.2842  0.0961  0.1919
49459SOL    HW155492   6.332  12.687   6.523  0.3944  1.1003 -0.3849
49459SOL    HW255493   6.315  12.701   6.672  2.3021  1.4523 -0.1732
49460SOL     OW55494   2.328   4.758  11.455 -0.2286 -0.2408  0.5044
49460SOL    HW155495   2.378   4.782  11.533  0.3500  2.3071 -0.5718
49460SOL    HW255496   2.293   4.840  11.422 -1.1676 -1.3620 -1.4754
49461SOL     OW55497  12.243   6.133   5.002  0.4330 -0.0540  0.3797
49461SOL    HW155498  12.267   6.207   4.947 -0.2418 -0.1064 -0.0018
49461SOL    HW255499  12.311   6.129   5.070  0.6879  0.6619  0.1672
49462SOL     OW55500   1.777   8.418   7.048 -0.1009  0.3691  0.0688
49462SOL    HW155501   1.847   8.414   7.113 -0.4889 -0.3403  0.4530
49462SOL    HW255502   1.816   8.465   6.974  0.8348 -0.1784  0.2051
49463SOL     OW55503   9.376   7.820   1.293  0.2929 -0.0035 -0.2157
49463SOL    HW155504   9.463   7.854   1.313 -0.4381  0.9736  1.5888
49463SOL    HW255505   9.376   7.732   1.331  0.6272 -0.1766 -0.6103
49464SOL     OW55506   1.142   0.809   6.552 -0.4648 -0.2948 -0.0767
49464SOL    HW155507   1.184   0.882   6.505  1.4727 -0.8182  0.7293
49464SOL    HW255508   1.107   0.849   6.631  2.7155 -0.4483  1.6055
49465SOL     OW55509   2.435  11.951   0.076 -0.4799 -0.5671 -0.7261
49465SOL    HW155510   2.367  11.915   0.019 -0.5245 -0.2945 -0.8480
49465SOL    HW255511   2.511  11.962   0.019 -0.8526  0.7271 -1.0042
49466SOL     OW55512   8.481   7.310  11.695 -0.5438  0.1488  0.2639
49466SOL    HW155513   8.393   7.301  11.657 -0.4076 -0.9997  0.1777
49466SOL    HW255514   8.486   7.401  11.722 -0.5680  1.1291 -2.6464
49467SOL     OW55515   0.800   8.411   6.277 -0.3719 -0.2126  0.4530
49467SOL    HW155516   0.837   8.499   6.280 -0.5453 -0.1625  1.3225
49467SOL    HW255517   0.848   8.367   6.206  0.4145  0.2738  0.6703
49468SOL     OW55518  10.889   6.942   8.363 -0.1483  0.0616  0.2463
49468SOL    HW155519  10.902   6.887   8.440 -1.6738  0.1014  0.5690
49468SOL    HW255520  10.806   6.913   8.326 -0.2447  1.1429 -0.4453
49469SOL     OW55521   1.615  11.265   7.142  0.1355 -0.4948  0.0871
49469SOL    HW155522   1.700  11.223   7.127  0.5541  0.8367 -1.6909
49469SOL    HW255523   1.553  11.192   7.146  0.8346 -1.4156 -2.8420
49470SOL     OW55524  11.481  12.575   5.503  0.6522 -0.8178 -0.2134
49470SOL    HW155525  11.503  12.611   5.589  1.4432 -1.7257 -0.0170
49470SOL    HW255526  11.564  12.577   5.454  0.4911 -1.4692 -0.5210
49471SOL     OW55527   4.153   9.444   1.348 -0.0404  0.3009 -0.5040
49471SOL    HW155528   4.213   9.489   1.407 -0.1134 -0.3974  0.1097
49471SOL    HW255529   4.066   9.476   1.374  0.1170  4.1556 -3.7196
49472SOL     OW55530  11.140   6.410  10.063  0.3389 -0.0432  0.2759
49472SOL    HW155531  11.106   6.322  10.082  4.0575 -2.2267 -1.8962
49472SOL    HW255532  11.101   6.432   9.978 -0.0379  0.1068  0.4842
49473SOL     OW55533   6.363   1.562   2.669 -0.6151  0.2143 -0.3014
49473SOL    HW155534   6.349   1.653   2.694  0.2946  0.1456  0.5433
49473SOL    HW255535   6.457   1.549   2.680 -0.8516 -1.0652  0.4522
49474SOL     OW55536   8.596  12.302  10.367  0.3299 -0.4031  1.1590
49474SOL    HW155537   8.666  12.353  10.408  0.0238  0.3536  0.7666
49474SOL    HW255538   8.640  12.225  10.331  0.5701 -1.2291  3.0937
49475SOL     OW55539  12.335  12.716   1.697  0.3653 -0.4545 -0.2916
49475SOL    HW155540  12.407  12.659   1.671  0.5523 -0.2148 -0.2946
49475SOL    HW255541  12.266  12.656   1.727  0.4935 -0.6886 -0.4727
49476SOL     OW55542   7.607   7.024   4.450 -0.2874 -0.0021  0.2692
49476SOL    HW155543   7.653   7.091   4.400 -0.3034  0.1194  0.4185
49476SOL    HW255544   7.674   6.985   4.506  0.1197 -1.2971 -1.0444
49477SOL     OW55545   5.414  11.810   0.506 -0.1677  0.6888 -0.2102
49477SOL    HW155546   5.318  11.815   0.499 -0.0571  2.2149 -1.3884
49477SOL    HW255547   5.440  11.898   0.534  0.9146  0.4656 -0.4757
49478SOL     OW55548   4.842   4.930   7.239 -0.0969  0.0072 -0.4403
49478SOL    HW155549   4.889   4.878   7.173 -1.0756 -2.9252  0.9763
49478SOL    HW255550   4.863   4.886   7.322 -2.7235  0.5868  0.6071
49479SOL     OW55551   1.185   6.164   1.442 -0.2761  0.7374  0.0819
49479SOL    HW155552   1.263   6.171   1.387 -0.0633  0.4955  0.3441
49479SOL    HW255553   1.177   6.070   1.460 -0.1444  0.8422  0.7342
49480SOL     OW55554   3.597   8.425   0.851  0.8184  0.0266 -0.4838
49480SOL    HW155555   3.686   8.392   0.862  0.9528  0.3146 -0.7046
49480SOL    HW255556   3.596   8.510   0.895  0.0924 -0.8669  1.2977
49481SOL     OW55557   2.327  11.918   4.484 -0.0427 -0.4028  0.0720
49481SOL    HW155558   2.240  11.958   4.494 -0.1478 -0.0710 -1.7593
49481SOL    HW255559   2.319  11.864   4.406  0.3479 -3.4773  2.0084
49482SOL     OW55560   2.301   5.661  12.637 -0.3900 -0.3364 -0.2622
49482SOL    HW155561   2.260   5.703  12.562  0.7082 -0.6857 -1.0902
49482SOL    HW255562   2.263   5.704  12.713  0.9032  2.4085 -1.0457
49483SOL     OW55563   9.613   5.543   5.998  0.7883 -0.2038 -0.3879
49483SOL    HW155564   9.663   5.552   5.917  2.0958 -2.7265  0.0521
49483SOL    HW255565   9.534   5.495   5.972 -0.8428  2.5422 -0.8235
49484SOL     OW55566   3.739   4.699  12.045 -0.3890 -0.2408 -0.1182
49484SOL    HW155567   3.822   4.661  12.075  0.6096  1.8346 -0.0361
49484SOL    HW255568   3.681   4.624  12.031  0.7184 -1.6085  2.1403
49485SOL     OW55569   8.965   7.871   9.719  0.1603  0.1030 -0.8620
49485SOL    HW155570   8.897   7.937   9.733  0.2867  0.0526  0.0769
49485SOL    HW255571   9.046   7.914   9.744  0.2748 -0.3211 -0.4705
49486SOL     OW55572   7.910  11.542   0.257  0.1182  0.2780 -0.1593
49486SOL    HW155573   7.937  11.574   0.343 -0.3216  0.6048 -0.1348
49486SOL    HW255574   7.837  11.599   0.233 -0.2720 -0.3142 -0.4016
49487SOL     OW55575   7.433   8.882   0.044 -0.4224 -0.3706  0.2596
49487SOL    HW155576   7.373   8.812   0.020  0.7516 -0.9968 -1.0154
49487SOL    HW255577   7.518   8.839   0.052  0.0571  0.6621  0.9484
49488SOL     OW55578   6.779   3.302  11.365  0.4886  0.7706  0.4941
49488SOL    HW155579   6.830   3.381  11.349 -0.0854  1.0544  0.0206
49488SOL    HW255580   6.844   3.232  11.371  0.8582  0.8159 -1.9563
49489SOL     OW55581   4.496  12.019   4.356 -0.0449  0.0589 -0.1343
49489SOL    HW155582   4.555  11.945   4.339  0.2718  0.7589 -2.4631
49489SOL    HW255583   4.414  11.994   4.314 -0.0381  0.8697 -0.6483
49490SOL     OW55584   3.836  11.709   7.373 -0.3875  0.4597 -0.6080
49490SOL    HW155585   3.822  11.713   7.279 -0.4879 -0.2178 -0.6280
49490SOL    HW255586   3.767  11.651   7.405 -0.3855  0.7286 -0.1109
49491SOL     OW55587   7.156   6.586  10.310  0.3122 -0.0505 -0.4342
49491SOL    HW155588   7.248   6.572  10.333 -0.1239  1.3600  2.6054
49491SOL    HW255589   7.152   6.677  10.281  0.0078 -0.4355 -1.6715
49492SOL     OW55590   1.756   6.964   8.068 -0.1217  0.1862 -0.1055
49492SOL    HW155591   1.838   6.941   8.023 -0.3766 -1.0478  0.0400
49492SOL    HW255592   1.691   6.904   8.032 -0.6136  0.0650  0.9611
49493SOL     OW55593   6.970   4.680   0.625 -0.4303  0.0307  0.1791
49493SOL    HW155594   6.937   4.649   0.709  0.4451 -1.0596  0.1387
49493SOL    HW255595   6.951   4.774   0.625 -0.6168  0.0112  1.5030
49494SOL     OW55596  10.192   6.167  11.234 -0.3933 -0.4481 -0.0880
49494SOL    HW155597  10.254   6.225  11.279 -1.7352  1.1380 -0.1651
49494SOL    HW255598  10.107   6.210  11.245 -1.1481 -1.3576 -1.9238
49495SOL     OW55599   8.473   8.718  10.741  0.1426 -0.1845 -0.0982
49495SOL    HW155600   8.430   8.643  10.699  0.6495 -0.5735  0.0646
49495SOL    HW255601   8.564   8.691  10.750  0.1379  0.0786  0.8287
49496SOL     OW55602   1.041   1.677  10.727  0.0789  0.0688 -0.3702
49496SOL    HW155603   1.109   1.744  10.729  0.3651 -0.2284  0.3418
49496SOL    HW255604   1.050   1.636  10.641  0.9132 -0.0688 -0.2330
49497SOL     OW55605   0.293   4.095   5.481  0.3770  0.2606 -0.5309
49497SOL    HW155606   0.205   4.062   5.501  0.3144  0.6682 -0.1164
49497SOL    HW255607   0.294   4.104   5.386 -0.6524  1.9519 -0.4120
49498SOL     OW55608   6.299  12.031   3.110 -0.4222  0.0767 -0.6572
49498SOL    HW155609   6.204  12.042   3.108 -0.4724  0.0573  0.7178
49498SOL    HW255610   6.334  12.109   3.067 -1.0602 -0.2123 -1.7318
49499SOL     OW55611  10.010   4.471   9.094 -0.0723  0.4513  0.1031
49499SOL    HW155612   9.937   4.409   9.091  1.7881 -1.9069 -0.0371
49499SOL    HW255613   9.990   4.529   9.167 -2.8345  0.9944 -0.9740
49500SOL     OW55614   7.045   0.712   3.052  0.0227 -0.4199  0.4348
49500SOL    HW155615   7.137   0.734   3.064 -0.6198  1.5210  2.1603
49500SOL    HW255616   7.016   0.681   3.138 -1.0373 -0.6971 -0.0079
49501SOL     OW55617   0.936  12.485  10.202 -0.1610  0.0403 -0.4530
49501SOL    HW155618   1.018  12.447  10.169 -0.1840 -0.0462 -0.4098
49501SOL    HW255619   0.868  12.449  10.144 -0.3894 -1.2917  0.5917
49502SOL     OW55620   7.100   5.629   5.629 -0.5062 -0.1706  0.4577
49502SOL    HW155621   7.169   5.570   5.597  0.3920  1.2545 -0.3168
49502SOL    HW255622   7.129   5.654   5.717 -0.2778  0.0336  0.3270
49503SOL     OW55623   3.306   3.633  12.835  0.7851 -0.1277  0.6745
49503SOL    HW155624   3.288   3.724  12.810  2.2303  0.5845  2.0536
49503SOL    HW255625   3.231   3.608  12.890  0.7318  0.4865  0.8916
49504SOL     OW55626   2.816   3.445   2.550 -0.2806  0.0650 -0.0914
49504SOL    HW155627   2.738   3.496   2.532  0.0910  1.4305  1.8786
49504SOL    HW255628   2.888   3.494   2.510 -0.2245 -0.3494 -0.5143
49505SOL     OW55629   4.187   4.526   3.066  0.3801  0.0690  0.3570
49505SOL    HW155630   4.190   4.575   3.149  1.9430  0.4977  0.0797
49505SOL    HW255631   4.276   4.533   3.031  0.1739 -1.4902 -0.5651
49506SOL     OW55632   2.637   9.934   5.596  0.0062  0.0367  0.0462
49506SOL    HW155633   2.553   9.911   5.557  0.2178 -0.2201 -0.2649
49506SOL    HW255634   2.624  10.022   5.631  0.4629  1.3107 -2.6593
49507SOL     OW55635  10.056  12.932   0.392  0.4170  0.5916 -0.5009
49507SOL    HW155636  10.093  13.018   0.411 -0.7647  0.5625  2.4611
49507SOL    HW255637   9.968  12.951   0.359  0.6237  0.5289 -1.0973
49508SOL     OW55638  11.375   4.243   6.287 -0.2394 -0.5946 -0.0135
49508SOL    HW155639  11.462   4.232   6.326  0.4239  0.1715 -1.1953
49508SOL    HW255640  11.326   4.294   6.351 -0.0150 -1.5370  0.9260
49509SOL     OW55641   2.443  10.954   3.300  0.6852  0.4621  0.4069
49509SOL    HW155642   2.359  10.941   3.254  0.9064 -0.1689  0.1601
49509SOL    HW255643   2.420  11.003   3.379 -0.1120 -0.7814  0.9782
49510SOL     OW55644   9.689   7.936   8.145  0.0531  0.0677  0.3591
49510SOL    HW155645   9.737   7.959   8.066 -0.2960  1.3536  0.5001
49510SOL    HW255646   9.756   7.931   8.213  0.4674 -1.8249 -0.1300
49511SOL     OW55647   9.914   0.588  12.387  0.1326  0.3351  0.6708
49511SOL    HW155648   9.957   0.503  12.374  1.0329  0.8471  0.1718
49511SOL    HW255649   9.986   0.648  12.407 -0.3266  1.2413 -0.2826
49512SOL     OW55650  12.018  10.846  12.250  0.1056  0.0153 -0.1745
49512SOL    HW155651  12.046  10.935  12.272 -0.4133  0.3697 -0.9370
49512SOL    HW255652  11.958  10.857  12.177 -0.3641 -0.9259  0.0579
49513SOL     OW55653   4.602   5.088   3.280 -0.3250 -0.0743 -0.1379
49513SOL    HW155654   4.656   5.146   3.334 -3.3907  1.4281  1.5775
49513SOL    HW255655   4.619   5.000   3.315  0.7755  0.3910  0.5448
49514SOL     OW55656   2.557   9.344  12.954 -0.3609 -0.6731 -0.3118
49514SOL    HW155657   2.600   9.264  12.985  0.2370 -0.4654 -0.5976
49514SOL    HW255658   2.464   9.323  12.955 -0.1463 -1.7566 -1.4766
49515SOL     OW55659   9.288   9.635   2.795  0.5158  0.0917 -0.3901
49515SOL    HW155660   9.230   9.668   2.862  0.6348 -0.7768  0.1585
49515SOL    HW255661   9.376   9.645   2.831  0.6862  0.9039 -0.9949
49516SOL     OW55662   4.946  12.525   5.773  0.3243 -0.3117 -0.5710
49516SOL    HW155663   4.989  12.551   5.691  1.7760 -1.3923 -0.1902
49516SOL    HW255664   4.968  12.595   5.834  0.7190 -0.3719 -0.6403
49517SOL     OW55665  10.930  11.524   4.390  0.0198 -0.3620 -0.4805
49517SOL    HW155666  10.985  11.599   4.368  0.2843 -0.4051  0.0389
49517SOL    HW255667  10.842  11.561   4.399 -0.1036 -0.3379 -1.5940
49518SOL     OW55668   6.320   9.752  12.169  0.3768 -0.1903 -0.3973
49518SOL    HW155669   6.348   9.674  12.123  3.6867  0.3321  0.4697
49518SOL    HW255670   6.311   9.819  12.101  0.3194 -0.6082 -0.8067
49519SOL     OW55671   1.939  10.006   3.018 -0.9237  0.2308 -0.0770
49519SOL    HW155672   1.858   9.956   3.022 -1.5086  1.1873  0.3407
49519SOL    HW255673   1.962  10.008   2.925 -2.0418  0.9717 -0.3644
49520SOL     OW55674   2.025   3.351   6.931 -0.7090  0.3799  0.2539
49520SOL    HW155675   2.024   3.313   7.018  2.8792  0.9682  0.7087
49520SOL    HW255676   2.102   3.409   6.931 -2.0621  2.4279 -2.4945
49521SOL     OW55677   7.343   4.384   4.134 -0.0936  0.0756  0.4222
49521SOL    HW155678   7.439   4.388   4.136 -0.1115  0.2918  1.0893
49521SOL    HW255679   7.319   4.335   4.212 -0.4913 -1.0145 -0.3617
49522SOL     OW55680   8.714   1.499   6.380 -0.2995  0.4634 -0.3424
49522SOL    HW155681   8.789   1.531   6.330 -0.3262  0.5034 -0.3565
49522SOL    HW255682   8.737   1.409   6.402 -1.4682 -0.5553 -2.8584
49523SOL     OW55683   8.507   7.079   2.974 -0.0207  0.0469 -0.3752
49523SOL    HW155684   8.558   7.001   2.950 -0.2323  0.3032 -1.6748
49523SOL    HW255685   8.512   7.136   2.898  0.5024  1.5351  0.7142
49524SOL     OW55686  12.163   0.307   0.074 -0.2390  0.3148 -0.2212
49524SOL    HW155687  12.153   0.226   0.122  0.3748  0.2518 -0.1861
49524SOL    HW255688  12.200   0.281  -0.010 -0.9653  0.4592 -0.5959
49525SOL     OW55689  11.501  10.066   7.806  0.2906 -0.3405 -0.2321
49525SOL    HW155690  11.574  10.087   7.747 -0.7929 -0.5317 -1.6871
49525SOL    HW255691  11.437  10.021   7.751 -1.0107 -0.0394  0.9630
49526SOL     OW55692   0.821   0.237   2.866 -0.3604 -0.0041 -0.1909
49526SOL    HW155693   0.890   0.263   2.926 -0.7131  0.1735  0.1411
49526SOL    HW255694   0.840   0.286   2.785 -0.9608  1.2544  0.3943
49527SOL     OW55695   9.630  10.146   8.466 -0.2973 -0.4497  0.4607
49527SOL    HW155696   9.581  10.085   8.521  0.8083 -2.0938 -0.2872
49527SOL    HW255697   9.570  10.169   8.395 -0.3228 -1.7083  0.0541
49528SOL     OW55698   9.628   6.621   0.822  0.0110  0.5170  0.0828
49528SOL    HW155699   9.566   6.688   0.794  1.3172  2.2110  1.0047
49528SOL    HW255700   9.608   6.607   0.914  0.9053  1.0468  0.3775
49529SOL     OW55701   7.352   3.200   1.157  0.5199 -0.3707  0.7192
49529SOL    HW155702   7.291   3.148   1.210 -1.8091  0.1845 -1.2259
49529SOL    HW255703   7.412   3.136   1.119  0.1201 -1.1572  1.3937
49530SOL     OW55704   8.779   4.781   6.369 -0.5128  0.1134 -0.4961
49530SOL    HW155705   8.830   4.703   6.345  0.6965  0.9416 -0.6719
49530SOL    HW255706   8.837   4.855   6.351 -1.7312  1.0893 -0.5765
49531SOL     OW55707  12.121   4.160   0.732  0.1067 -0.1432 -0.1351
49531SOL    HW155708  12.046   4.112   0.766 -1.0356  0.3678 -1.8130
49531SOL    HW255709  12.092   4.250   0.725  0.7333  0.0010 -1.1462
49532SOL     OW55710   9.614  12.639  11.544  0.2251 -0.1963 -0.4795
49532SOL    HW155711   9.531  12.631  11.591 -0.4636 -2.6003 -1.8907
49532SOL    HW255712   9.651  12.722  11.572 -3.1223  1.4374 -0.5269
49533SOL     OW55713   4.948   4.368   0.451 -0.8621  0.1742 -0.0860
49533SOL    HW155714   4.924   4.426   0.524 -0.0523  1.4490 -0.7904
49533SOL    HW255715   4.888   4.391   0.381  0.6880  1.6231 -1.0246
49534SOL     OW55716  12.820   7.209   0.362 -0.1943 -0.3237 -0.1961
49534SOL    HW155717  12.888   7.163   0.411 -0.0474 -0.3550 -0.4221
49534SOL    HW255718  12.868   7.248   0.288 -0.1155  1.0663  0.5358
49535SOL     OW55719   5.382   1.416   5.901  0.1547 -0.0424  0.0581
49535SOL    HW155720   5.432   1.490   5.936 -1.6275  2.1182 -1.5801
49535SOL    HW255721   5.297   1.422   5.945  0.1092 -1.4085  0.1967
49536SOL     OW55722   4.514  11.195  12.839  0.5074  0.0617 -0.4694
49536SOL    HW155723   4.562  11.171  12.760  4.3432 -2.8124  2.3350
49536SOL    HW255724   4.573  11.254  12.887  0.2493 -1.5383  2.0155
49537SOL     OW55725  12.791  11.851   8.269  0.3269 -0.3682  0.5518
49537SOL    HW155726  12.754  11.766   8.246  0.8894 -1.1924  2.4749
49537SOL    HW255727  12.734  11.914   8.225 -0.3019 -1.7018 -0.6557
49538SOL     OW55728   0.482   3.588   4.362 -0.2419 -0.5304  0.5369
49538SOL    HW155729   0.498   3.659   4.300 -2.1282  0.6255  1.2667
49538SOL    HW255730   0.521   3.619   4.444  1.0513 -1.4552  0.3102
49539SOL     OW55731  12.711  12.707   1.815 -0.2558 -0.9596  0.2311
49539SOL    HW155732  12.753  12.742   1.737 -1.0082 -0.1582  0.1757
49539SOL    HW255733  12.784  12.684   1.873  0.2748 -0.4675 -0.2330
49540SOL     OW55734  12.489  12.250   6.894  0.0937 -0.0598 -0.0174
49540SOL    HW155735  12.450  12.193   6.827 -1.8747  1.0851  0.0637
49540SOL    HW255736  12.570  12.282   6.855  1.9693 -3.7697  0.3907
49541SOL     OW55737   9.518   0.335   3.278 -0.4429  0.5601  0.2035
49541SOL    HW155738   9.510   0.341   3.182 -0.4353 -0.6536  0.1199
49541SOL    HW255739   9.443   0.383   3.311 -2.1717 -1.5323 -0.4652
49542SOL     OW55740   0.811   7.202  10.017  0.0754  0.3358 -0.1190
49542SOL    HW155741   0.776   7.113  10.029 -0.6046  0.7095  0.8908
49542SOL    HW255742   0.798   7.221   9.925  0.1514 -0.5834 -0.3300
49543SOL     OW55743   1.681   2.232   6.259  0.3001 -0.6668 -0.1564
49543SOL    HW155744   1.731   2.154   6.281  2.3047  0.6250  0.1578
49543SOL    HW255745   1.699   2.293   6.331 -1.9168 -0.1808  0.0632
49544SOL     OW55746   9.138   5.397   4.405 -0.4746 -0.4682  0.2233
49544SOL    HW155747   9.085   5.475   4.389 -1.0536 -0.6679  1.0979
49544SOL    HW255748   9.163   5.366   4.318 -1.1835  0.0544 -0.1688
49545SOL     OW55749   5.148   1.880   6.874 -0.1639 -0.6044 -0.1206
49545SOL    HW155750   5.152   1.922   6.960  2.0988  0.0891 -0.5063
49545SOL    HW255751   5.069   1.915   6.834  1.2854  2.9960 -0.1990
49546SOL     OW55752   0.396   6.594   0.423  0.6105  0.1192  0.3220
49546SOL    HW155753   0.446   6.590   0.342  0.2176 -0.7276  0.1116
49546SOL    HW255754   0.305   6.602   0.395  0.4116 -0.7861  0.6504
49547SOL     OW55755   5.487   6.687  10.458 -0.2461  0.0513 -0.7823
49547SOL    HW155756   5.422   6.714  10.523 -0.8085 -0.8900 -0.9255
49547SOL    HW255757   5.440   6.687  10.375  0.2694  0.5273 -1.0794
49548SOL     OW55758  12.703   0.585  12.633  0.2336 -0.6709 -0.5469
49548SOL    HW155759  12.772   0.604  12.696 -1.1507 -1.8460  1.4023
49548SOL    HW255760  12.637   0.537  12.682 -1.6801 -0.2110 -2.5046
49549SOL     OW55761   0.421   5.422   5.748  0.1511  0.5729 -0.2804
49549SOL    HW155762   0.485   5.477   5.703  1.6227 -0.4816  0.4366
49549SOL    HW255763   0.433   5.442   5.841  0.4764 -0.6884 -0.0343
49550SOL     OW55764   4.544  11.705   0.363 -0.2971  0.5600  0.4416
49550SOL    HW155765   4.572  11.708   0.454 -0.2828  1.0876  0.4203
49550SOL    HW255766   4.461  11.656   0.366  1.4752 -2.7518  0.2640
49551SOL     OW55767   1.702   6.131   2.873 -0.4182  0.1379  0.3372
49551SOL    HW155768   1.769   6.188   2.837  0.0683 -1.5378 -1.5454
49551SOL    HW255769   1.746   6.082   2.942 -0.6614  1.4598  1.4801
49552SOL     OW55770   2.727   0.565   9.141  0.3350  0.0607  0.4030
49552SOL    HW155771   2.636   0.537   9.138  0.5426 -1.2383  3.1095
49552SOL    HW255772   2.722   0.661   9.146 -0.8690  0.0156  0.3527
49553SOL     OW55773   6.769   5.209  10.813 -0.6079  0.4518 -0.0973
49553SOL    HW155774   6.687   5.233  10.857 -0.2919  0.4449  0.5112
49553SOL    HW255775   6.824   5.287  10.821 -0.1104  0.0482  0.5984
49554SOL     OW55776   4.616  12.949   3.836  0.4575  0.1021 -0.4646
49554SOL    HW155777   4.647  13.014   3.900  2.1151 -0.7987 -0.3042
49554SOL    HW255778   4.694  12.900   3.812 -0.5070 -0.8973 -1.6900
49555SOL     OW55779   4.174   3.284  12.081  1.0803 -0.0215  0.4555
49555SOL    HW155780   4.154   3.309  11.991  0.5211 -2.7748 -0.3016
49555SOL    HW255781   4.233   3.351  12.113  1.5567  0.8690 -2.0784
49556SOL     OW55782  10.782   7.047  11.196  0.7456  0.2934  0.0182
49556SOL    HW155783  10.732   7.018  11.120  0.6538  1.8732 -0.5463
49556SOL    HW255784  10.851   6.980  11.205 -0.8139 -1.3616  0.2070
49557SOL     OW55785  10.448   2.534  11.657  0.2284  0.6223 -0.1241
49557SOL    HW155786  10.380   2.478  11.694  1.5923 -0.7562  0.4125
49557SOL    HW255787  10.435   2.619  11.700 -0.5487  0.1053  0.6948
49558SOL     OW55788   0.184   5.682   3.802  0.5021 -0.5133 -0.3602
49558SOL    HW155789   0.216   5.596   3.830  0.4111 -0.4712 -0.1213
49558SOL    HW255790   0.174   5.675   3.707 -1.7016 -1.5258 -0.1217
49559SOL     OW55791   7.006  12.458   0.005 -0.1719 -0.2725  0.1271
49559SOL    HW155792   7.072  12.409   0.054  0.1470 -2.1238 -2.0105
49559SOL    HW255793   7.036  12.456  -0.086 -1.7591  1.2653 -0.4846
49560SOL     OW55794   0.005  11.760  10.639 -0.4052 -0.1794 -0.4391
49560SOL    HW155795  -0.002  11.746  10.544 -2.5031 -0.4750 -0.2879
49560SOL    HW255796  -0.052  11.835  10.656 -0.1827 -0.2392  0.6114
49561SOL     OW55797  11.611   2.670  12.583 -0.3226 -0.2148  0.3944
49561SOL    HW155798  11.684   2.685  12.643 -1.2222  0.5089  1.3476
49561SOL    HW255799  11.614   2.576  12.565  1.1861 -0.1018 -0.0668
49562SOL     OW55800  11.626   0.629   7.367  0.5727 -0.0259  0.5926
49562SOL    HW155801  11.676   0.548   7.362 -0.0451 -0.4099  0.6584
49562SOL    HW255802  11.669   0.679   7.437 -1.0897 -1.7056  2.9549
49563SOL     OW55803   3.335   2.237  10.917  0.6312  0.2552  0.8524
49563SOL    HW155804   3.338   2.146  10.946  1.9418  0.2988  0.9067
49563SOL    HW255805   3.362   2.288  10.993 -1.4408  0.8292  1.2589
49564SOL     OW55806   7.966   9.812   8.747  0.8090  0.5448  0.2009
49564SOL    HW155807   7.970   9.892   8.800  0.6188  0.3025  0.5818
49564SOL    HW255808   8.051   9.771   8.759  1.6847  1.7128 -1.6208
49565SOL     OW55809  12.392   2.257   2.661 -0.0069 -0.4314  0.2687
49565SOL    HW155810  12.331   2.243   2.590  1.4255 -1.8462 -0.7482
49565SOL    HW255811  12.344   2.233   2.740 -1.9878  2.2303 -0.0038
49566SOL     OW55812   8.442   6.518   0.038  0.3602  0.1156 -0.2136
49566SOL    HW155813   8.480   6.450  -0.017 -0.5485 -0.8107  0.2631
49566SOL    HW255814   8.453   6.599  -0.012  0.8062 -0.4880 -1.1204
49567SOL     OW55815  11.367   3.382   2.930 -0.2420 -0.1854  0.2125
49567SOL    HW155816  11.393   3.295   2.900 -0.5805 -0.4259  0.6106
49567SOL    HW255817  11.390   3.383   3.023 -0.1285  0.1982  0.1836
49568SOL     OW55818   0.775   5.917   0.879 -0.5840  0.5482  0.2487
49568SOL    HW155819   0.731   5.939   0.961 -0.9754  1.2340 -0.1396
49568SOL    HW255820   0.868   5.923   0.900 -0.6231 -1.3486  1.1991
49569SOL     OW55821  10.526   7.192   9.711 -0.0642  0.5915  0.1675
49569SOL    HW155822  10.519   7.124   9.644  2.1529  1.6835 -1.2835
49569SOL    HW255823  10.471   7.263   9.678 -0.7118  0.3182  0.6354
49570SOL     OW55824   0.668   5.192   2.382 -0.0159 -0.1955  0.1816
49570SOL    HW155825   0.676   5.277   2.426 -1.4790  0.0735 -0.0183
49570SOL    HW255826   0.683   5.212   2.289  2.2403 -0.6249  0.3995
49571SOL     OW55827   4.267   0.359  11.730 -0.3478 -0.0596  0.1722
49571SOL    HW155828   4.345   0.342  11.676  0.2808  0.0730  1.0311
49571SOL    HW255829   4.299   0.358  11.820 -1.5624 -1.2814  0.6278
49572SOL     OW55830  10.249   2.558   4.941 -0.2774  0.4510  0.0174
49572SOL    HW155831  10.296   2.501   4.881  2.7972  0.5116  2.1336
49572SOL    HW255832  10.197   2.498   4.996 -1.3689  0.2333 -1.2068
49573SOL     OW55833   3.520   9.281  11.413  0.0557 -0.0055 -0.2275
49573SOL    HW155834   3.497   9.188  11.408  0.9173 -0.2652  0.3657
49573SOL    HW255835   3.535   9.297  11.507  0.4436  0.5897 -0.3858
49574SOL     OW55836  12.606  12.156   5.092 -0.0273  0.1566  0.1206
49574SOL    HW155837  12.553  12.231   5.118  0.5843  0.5229  0.3314
49574SOL    HW255838  12.622  12.108   5.173 -0.1841 -0.0582  0.0276
49575SOL     OW55839  12.680  10.469   2.353 -0.5770  0.1973 -0.0858
49575SOL    HW155840  12.644  10.541   2.301 -1.3078 -0.2204 -0.1761
49575SOL    HW255841  12.646  10.390   2.311 -0.3155 -0.1774  0.3957
49576SOL     OW55842  10.785   4.471   3.126 -0.3219 -0.3944  0.1436
49576SOL    HW155843  10.800   4.456   3.219  3.7559 -1.1877 -0.4467
49576SOL    HW255844  10.791   4.566   3.116 -3.6233  0.0197  0.9132
49577SOL     OW55845   5.255   7.642   8.459  0.2639 -0.1102 -0.0359
49577SOL    HW155846   5.188   7.693   8.413 -0.7040 -1.2455  0.0548
49577SOL    HW255847   5.292   7.585   8.392  2.3911  1.6406 -0.4844
49578SOL     OW55848   7.587   5.185   8.691 -0.6239  0.2023  0.0578
49578SOL    HW155849   7.652   5.197   8.622 -0.1381  0.3380  0.5330
49578SOL    HW255850   7.582   5.090   8.703 -1.2691  0.1306 -0.6816
49579SOL     OW55851   1.708   6.341  11.190 -0.3797 -0.0584  0.0426
49579SOL    HW155852   1.705   6.272  11.124 -1.6018  0.6592 -0.6960
49579SOL    HW255853   1.617   6.351  11.219  0.1826 -0.6373  2.1722
49580SOL     OW55854   7.161   6.865   4.949 -0.4506 -0.8137  0.9270
49580SOL    HW155855   7.130   6.793   4.894  1.0228  0.6045 -2.0233
49580SOL    HW255856   7.227   6.825   5.006  3.1456 -1.4878 -3.1608
49581SOL     OW55857   1.090  12.591   3.335 -0.0112  0.1145 -0.2446
49581SOL    HW155858   1.084  12.652   3.409 -0.4354  0.7016 -0.7531
49581SOL    HW255859   1.172  12.616   3.291 -0.5850  0.8677 -0.9164
49582SOL     OW55860   7.197   9.436   9.405 -0.6053 -0.0802 -0.3994
49582SOL    HW155861   7.208   9.341   9.394  1.0921  0.2333 -1.7453
49582SOL    HW255862   7.133   9.460   9.338 -0.5659 -0.1864 -0.4756
49583SOL     OW55863   5.791   3.896   3.547  0.6985 -0.1704  0.3805
49583SOL    HW155864   5.797   3.943   3.630  1.2665 -0.9147  0.7667
49583SOL    HW255865   5.752   3.960   3.487  0.8052  0.5617  1.0657
49584SOL     OW55866  12.505   9.157   6.439  0.1970  0.3967 -0.9124
49584SOL    HW155867  12.601   9.164   6.440  0.1240  1.6090 -1.3089
49584SOL    HW255868  12.481   9.164   6.347 -0.3028  0.5044 -0.7788
49585SOL     OW55869   8.436   6.874   5.778 -0.3000 -0.0870  0.2438
49585SOL    HW155870   8.515   6.864   5.724 -0.1055  0.7560  0.3522
49585SOL    HW255871   8.414   6.785   5.806 -0.3444 -0.5385 -1.1429
49586SOL     OW55872   9.484  11.247   8.168  0.3804 -0.6794  0.1287
49586SOL    HW155873   9.411  11.219   8.112  0.0645  1.7271 -0.7876
49586SOL    HW255874   9.442  11.297   8.238  1.0861 -0.1728  0.1992
49587SOL     OW55875   9.592  12.021   7.976  0.0125  0.1200 -0.3367
49587SOL    HW155876   9.638  12.026   7.892  0.8252 -1.5106 -0.0316
49587SOL    HW255877   9.658  12.044   8.040 -0.3213  0.3404 -0.0727
49588SOL     OW55878  10.235   2.668   6.353  0.8069  0.1875  0.4518
49588SOL    HW155879  10.145   2.664   6.321  1.1780 -0.5941 -0.5522
49588SOL    HW255880  10.239   2.748   6.406 -0.6262 -0.0928  1.0014
49589SOL     OW55881   5.726   5.287   9.286 -0.6044 -0.0334  0.1019
49589SOL    HW155882   5.738   5.199   9.251 -1.8617 -0.1801  0.0140
49589SOL    HW255883   5.804   5.302   9.340  1.0106 -0.1209 -2.0397
49590SOL     OW55884   2.538   6.050  11.327  0.5460  0.0475 -0.3192
49590SOL    HW155885   2.632   6.057  11.339  0.6347 -0.0456 -0.9620
49590SOL    HW255886   2.517   5.959  11.349  0.3257  0.5271  1.6491
49591SOL     OW55887   2.496  12.621   0.380 -0.2092 -0.2372 -0.2200
49591SOL    HW155888   2.543  12.559   0.323  0.0110  1.1871 -1.6563
49591SOL    HW255889   2.434  12.665   0.321 -1.5278 -0.2342  1.1152
49592SOL     OW55890  10.974   2.011  12.670 -0.0785  0.4908 -0.3719
49592SOL    HW155891  11.044   1.962  12.714  0.2409  1.6365  0.4294
49592SOL    HW255892  11.008   2.026  12.582  1.4381  2.4311  0.4690
49593SOL     OW55893  12.415  10.692   1.198 -0.4837  0.1847  0.6035
49593SOL    HW155894  12.408  10.669   1.291 -1.7453  2.9041  1.2810
49593SOL    HW255895  12.324  10.698   1.168 -0.0966 -1.0812 -0.9818
49594SOL     OW55896   7.287  12.463   7.488 -0.1254 -0.2983 -0.0096
49594SOL    HW155897   7.380  12.450   7.508 -0.9298 -1.2788  3.9468
49594SOL    HW255898   7.278  12.556   7.472  1.4057 -0.0339  0.5289
49595SOL     OW55899   0.287   4.678   9.527 -0.7848 -0.5028 -0.1763
49595SOL    HW155900   0.252   4.758   9.488 -0.4403  0.0510  0.6076
49595SOL    HW255901   0.255   4.679   9.617  0.6939 -0.2787  0.3916
49596SOL     OW55902   3.210   0.753   2.586 -0.0227 -0.1172  0.0857
49596SOL    HW155903   3.149   0.716   2.522  0.2563 -2.0269  0.8447
49596SOL    HW255904   3.264   0.814   2.535 -1.6734  0.6328 -0.8624
49597SOL     OW55905   2.869   1.248   3.505  0.0992  0.4958  0.4233
49597SOL    HW155906   2.841   1.162   3.535 -0.0420  0.1465 -0.6480
49597SOL    HW255907   2.896   1.294   3.584 -0.8989 -0.1241  1.1445
49598SOL     OW55908   0.838  10.177  11.159 -0.2814 -0.7387  0.3357
49598SOL    HW155909   0.811  10.265  11.132 -1.8510 -1.2994 -0.0641
49598SOL    HW255910   0.920  10.190  11.206  1.1030  0.6248 -2.2459
49599SOL     OW55911   1.253   3.673   5.406 -0.2429  0.1344  0.1824
49599SOL    HW155912   1.286   3.595   5.451 -0.6603 -0.6946 -0.9226
49599SOL    HW255913   1.174   3.697   5.454  0.6440  0.7326  1.3910
49600SOL     OW55914   0.194   4.799   9.748  0.3054 -0.4254  0.0777
49600SOL    HW155915   0.189   4.782   9.842  0.3751  1.6894  0.5215
49600SOL    HW255916   0.127   4.866   9.732  0.9768 -0.0069 -1.1716
49601SOL     OW55917   9.728   3.910   3.391  0.3257 -0.0355 -0.6400
49601SOL    HW155918   9.656   3.935   3.448  1.1046 -2.1026  1.3636
49601SOL    HW255919   9.806   3.947   3.432  0.7416 -0.3113 -1.1631
49602SOL     OW55920  11.032   4.623  12.649 -0.2455 -0.9184 -0.0756
49602SOL    HW155921  11.101   4.647  12.587 -0.5971 -0.2365 -0.2108
49602SOL    HW255922  10.954   4.670  12.619 -0.1297  0.4283  1.5685
49603SOL     OW55923   2.040  12.079   5.730  0.4047  0.5682 -0.3185
49603SOL    HW155924   1.967  12.062   5.670  0.0263  0.5065  0.1520
49603SOL    HW255925   2.118  12.069   5.676  0.0382  2.1519 -1.2332
49604SOL     OW55926   4.613   7.428   3.002  0.3330  0.3792  0.8495
49604SOL    HW155927   4.535   7.450   3.053 -0.2731  1.4030 -0.4541
49604SOL    HW255928   4.631   7.336   3.024 -1.6398 -0.0857  0.7017
49605SOL     OW55929   5.039   4.607   8.658 -0.1843  0.0087 -0.3550
49605SOL    HW155930   5.072   4.530   8.703  1.2290 -0.6037 -2.3250
49605SOL    HW255931   4.976   4.573   8.594 -1.3511  0.7539  0.3551
49606SOL     OW55932   2.042   9.683   5.965  0.1175  0.2642  0.2876
49606SOL    HW155933   2.090   9.609   6.001 -0.7184 -0.2562  0.3609
49606SOL    HW255934   1.971   9.698   6.027  0.4566  1.3418  0.4452
49607SOL     OW55935   5.333   4.396   3.591  0.8085  0.4905  0.4757
49607SOL    HW155936   5.372   4.323   3.543 -0.2720 -0.7645  1.4307
49607SOL    HW255937   5.399   4.465   3.586  1.2828 -0.0292 -1.6583
49608SOL     OW55938   6.182   3.952   6.197  0.1174 -0.0761 -0.2767
49608SOL    HW155939   6.174   3.998   6.281  0.0713 -1.5740  0.5636
49608SOL    HW255940   6.214   4.019   6.137 -3.2439  2.0418  0.0128
49609SOL     OW55941   2.789   8.219   0.734 -0.2335 -0.4355  0.1878
49609SOL    HW155942   2.715   8.278   0.747  0.6797  0.5398  1.2134
49609SOL    HW255943   2.774   8.148   0.795 -2.8218 -2.9278 -2.9787
49610SOL     OW55944   8.361   8.434   4.343  0.5693  0.0126  0.1571
49610SOL    HW155945   8.323   8.411   4.258 -1.3216 -1.6063  1.3436
49610SOL    HW255946   8.432   8.371   4.355  0.5096 -0.0868 -0.0050
49611SOL     OW55947   3.106   0.987  12.792 -0.1788  0.0110 -0.0291
49611SOL    HW155948   3.149   0.921  12.847 -0.3542  0.7536  1.0467
49611SOL    HW255949   3.020   0.949  12.773  0.3445 -0.7900 -0.8494
49612SOL     OW55950   9.719   9.797   7.456  0.0416 -0.5182  0.0241
49612SOL    HW155951   9.699   9.704   7.468  0.8426 -0.6110  0.7026
49612SOL    HW255952   9.637   9.842   7.476 -0.3679 -1.0758 -0.3597
49613SOL     OW55953   7.535   3.434   5.178  0.0398 -0.1056 -0.2103
49613SOL    HW155954   7.588   3.480   5.242  2.1928 -0.0964 -1.8842
49613SOL    HW255955   7.521   3.498   5.108 -0.1172 -0.8473 -0.8741
49614SOL     OW55956   2.559   4.297  10.674  0.3099  0.4300  0.2498
49614SOL    HW155957   2.505   4.375  10.691  1.7667  0.9302  3.1848
49614SOL    HW255958   2.622   4.326  10.608 -1.9962  0.2472 -2.1833
49615SOL     OW55959   5.080   1.446   9.001 -0.1683  0.1976 -0.1682
49615SOL    HW155960   5.081   1.351   9.009  0.9268  0.1649 -0.5578
49615SOL    HW255961   5.165   1.474   9.034  0.9437  0.7611 -3.1804
49616SOL     OW55962  11.534   3.706  12.495  0.3702  0.0791 -0.0082
49616SOL    HW155963  11.504   3.717  12.405 -0.2405 -0.9160  0.0571
49616SOL    HW255964  11.457   3.723  12.549  0.7556  0.7665  0.3445
49617SOL     OW55965   8.014   7.363   9.648 -0.3634  0.0792 -0.6956
49617SOL    HW155966   8.104   7.334   9.661  0.0391  1.1236 -1.0617
49617SOL    HW255967   7.989   7.401   9.732 -0.3527  0.0815 -0.6937
49618SOL     OW55968  12.089   3.838   6.842  0.1837  0.0439 -0.2554
49618SOL    HW155969  12.127   3.823   6.755 -0.8452  0.2913 -0.7609
49618SOL    HW255970  12.148   3.900   6.883  1.5270 -1.2271 -0.1784
49619SOL     OW55971   6.674   5.011   4.775  0.4711 -0.1211  0.4024
49619SOL    HW155972   6.625   5.014   4.857  1.1783 -1.7705  0.9303
49619SOL    HW255973   6.763   4.987   4.802  0.8441 -0.1392 -0.8095
49620SOL     OW55974   5.019   8.145  11.856  0.0358  0.0501 -0.9773
49620SOL    HW155975   5.106   8.178  11.881 -0.6437  2.7152 -1.8489
49620SOL    HW255976   4.963   8.168  11.930 -0.0974 -1.0813 -0.7019
49621SOL     OW55977   1.890   9.530   3.455 -0.0432  0.1874 -0.4081
49621SOL    HW155978   1.939   9.469   3.510 -2.0266  0.2954  1.6242
49621SOL    HW255979   1.888   9.611   3.506 -1.0930  0.6108 -1.0916
49622SOL     OW55980   4.035  11.753   0.455  0.4878 -0.2259  0.1850
49622SOL    HW155981   3.999  11.785   0.372  0.1657 -0.8045  0.0995
49622SOL    HW255982   4.012  11.821   0.519  1.4529  0.6278 -0.3382
49623SOL     OW55983  10.821   1.630   1.875 -0.6041 -0.1131  0.1930
49623SOL    HW155984  10.875   1.693   1.827 -0.5911 -0.1262  0.1907
49623SOL    HW255985  10.870   1.614   1.956  0.2197 -1.3721 -0.5102
49624SOL     OW55986   7.138  12.324   7.666  0.2594 -0.0381 -0.1270
49624SOL    HW155987   7.165  12.239   7.702 -0.6335 -0.3246 -0.1089
49624SOL    HW255988   7.220  12.371   7.652  0.7886 -1.0440 -0.4912
49625SOL     OW55989   5.110   1.139   5.856 -0.1895 -0.3756  0.1220
49625SOL    HW155990   5.080   1.111   5.942  2.2755 -0.7467  0.9585
49625SOL    HW255991   5.088   1.232   5.851  1.4484  0.1871  2.0855
49626SOL     OW55992  10.872  12.298   7.610 -0.3303  0.0204 -0.3310
49626SOL    HW155993  10.917  12.282   7.693 -1.0567  1.5150  0.3827
49626SOL    HW255994  10.885  12.391   7.592 -2.6608  0.4123 -0.3385
49627SOL     OW55995   0.187   0.900   7.339 -0.1148 -0.2370  0.4344
49627SOL    HW155996   0.227   0.816   7.317 -1.3822 -1.4041  2.3760
49627SOL    HW255997   0.096   0.891   7.312 -0.6426 -0.1013  2.0701
49628SOL     OW55998   8.655  12.099   8.251 -0.2792 -0.2827  0.2589
49628SOL    HW155999   8.697  12.184   8.243 -2.0110  0.5423 -0.7772
49628SOL    HW256000   8.576  12.116   8.302 -1.8116 -0.7353 -1.7936
49629SOL     OW56001   9.597  11.062   4.701  0.2723  0.6300 -0.2312
49629SOL    HW156002   9.692  11.056   4.690  0.3824 -0.4579  1.0312
49629SOL    HW256003   9.580  11.015   4.783 -1.4121  0.3411 -0.7189
49630SOL     OW56004   0.758   0.765   4.118  0.2576 -0.1588  0.0960
49630SOL    HW156005   0.814   0.770   4.040  0.5086 -0.4391  0.2585
49630SOL    HW256006   0.675   0.731   4.085  0.7354 -1.4012  0.1406
49631SOL     OW56007   3.121   3.907  12.485  0.2547 -0.0033  0.2405
49631SOL    HW156008   3.125   4.002  12.501  0.2373  0.0473 -0.0577
49631SOL    HW256009   3.027   3.887  12.485  0.2815 -0.1669  1.1537
49632SOL     OW56010  12.411   3.714   7.140  0.1437  0.2287 -0.5719
49632SOL    HW156011  12.432   3.732   7.049  0.0245 -0.2238 -0.6887
49632SOL    HW256012  12.492   3.733   7.187 -0.0990  1.5249 -0.6203
49633SOL     OW56013   0.940   9.533  12.084 -0.6712  0.0459  0.6627
49633SOL    HW156014   0.852   9.549  12.116 -1.2556 -1.8431  0.1098
49633SOL    HW256015   0.938   9.562  11.993 -0.2843  1.3281  1.0464
49634SOL     OW56016   6.186   5.645   4.587  0.4104  0.3357  1.0152
49634SOL    HW156017   6.196   5.738   4.605 -2.4154  0.7005  1.0990
49634SOL    HW256018   6.149   5.608   4.667 -2.0816 -0.0664 -0.2273
49635SOL     OW56019   8.658   9.909   2.693 -0.5190  0.6014 -0.5107
49635SOL    HW156020   8.614   9.939   2.773  0.9973  0.4277  0.4432
49635SOL    HW256021   8.687   9.989   2.650 -0.2775  0.6643 -0.2366
49636SOL     OW56022  10.788   5.280  11.665  0.5968 -0.2517  0.7666
49636SOL    HW156023  10.700   5.252  11.689  0.3484 -0.0998  0.0710
49636SOL    HW256024  10.775   5.340  11.591  1.2334  0.3875  1.1608
49637SOL     OW56025   6.989   1.165   7.071 -0.4371 -0.3397 -0.1940
49637SOL    HW156026   6.903   1.172   7.030 -0.2907  0.6158 -0.3479
49637SOL    HW256027   7.046   1.131   7.002 -0.8773 -1.9714  0.1897
49638SOL     OW56028   4.406   6.042   2.216  0.2785  0.2286  0.4342
49638SOL    HW156029   4.481   5.988   2.240  1.7305  2.6170  1.6588
49638SOL    HW256030   4.437   6.095   2.143 -0.9849 -0.2683 -0.4984
49639SOL     OW56031   1.567   1.597   8.587  0.3708 -0.7465 -0.3605
49639SOL    HW156032   1.489   1.543   8.599  0.7594 -1.2048  0.1597
49639SOL    HW256033   1.543   1.658   8.517 -0.6867 -0.4393  0.2340
49640SOL     OW56034   8.501   8.439  11.576  0.4608 -0.5161  0.9804
49640SOL    HW156035   8.464   8.509  11.629 -1.4009  0.9928 -2.0369
49640SOL    HW256036   8.427   8.380  11.560  0.9430 -0.8518 -0.0706
49641SOL     OW56037   8.218   0.298  12.447  0.0670  0.1252 -0.4766
49641SOL    HW156038   8.295   0.277  12.500 -1.0024 -1.2528  0.5831
49641SOL    HW256039   8.254   0.319  12.361  1.8429  2.2131  0.6552
49642SOL     OW56040   9.773  10.969   2.008  0.4391 -0.5023  0.2113
49642SOL    HW156041   9.866  10.985   2.022  0.5082  0.9212 -1.4545
49642SOL    HW256042   9.734  10.976   2.095  1.5826  1.4999  0.6340
49643SOL     OW56043   6.880   3.973  12.026 -0.3156 -0.2740 -0.0287
49643SOL    HW156044   6.910   3.892  12.066  0.9827 -0.0827 -0.5832
49643SOL    HW256045   6.853   4.028  12.100  3.5338  0.7094  0.8842
49644SOL     OW56046  11.770   5.525   4.873  0.0566  0.2743 -0.2186
49644SOL    HW156047  11.705   5.593   4.889 -0.6388 -0.3289 -0.4528
49644SOL    HW256048  11.767   5.511   4.778 -1.0646 -1.3143  0.0252
49645SOL     OW56049   7.938   2.278   8.491 -0.0629  0.3929  0.0405
49645SOL    HW156050   7.895   2.274   8.406  0.3006  0.2400 -0.1396
49645SOL    HW256051   7.984   2.194   8.499  1.4308  1.1345 -0.4408
49646SOL     OW56052   0.915   8.557   1.408 -0.1001  0.0853 -0.6606
49646SOL    HW156053   0.908   8.564   1.504  0.2131 -0.5977 -0.5781
49646SOL    HW256054   1.008   8.538   1.393 -0.3937 -1.1709 -1.0009
49647SOL     OW56055   9.579  12.868   5.585  0.0104  0.1046 -0.1510
49647SOL    HW156056   9.643  12.924   5.628  0.3887 -0.8547  0.5666
49647SOL    HW256057   9.505  12.926   5.567  0.9393  1.1578 -0.7188
49648SOL     OW56058   7.559   0.216  10.425 -0.2831  0.1386  0.2310
49648SOL    HW156059   7.635   0.215  10.483  0.3621 -0.0118 -0.5971
49648SOL    HW256060   7.587   0.269  10.350 -1.1452  0.4389  0.1130
49649SOL     OW56061   1.753   9.091   1.932  0.2707 -0.3849 -0.3124
49649SOL    HW156062   1.787   9.142   1.859 -0.7731  0.1451 -0.4585
49649SOL    HW256063   1.717   9.156   1.992  0.1164 -0.8734  0.1372
49650SOL     OW56064  11.159  12.925   7.708 -0.0568  0.3553  0.7289
49650SOL    HW156065  11.204  12.991   7.656 -0.7554 -0.5952 -1.2029
49650SOL    HW256066  11.225  12.857   7.723 -0.1383  0.1134  0.0520
49651SOL     OW56067  12.336   7.482   2.155  0.0150  0.4828  0.0771
49651SOL    HW156068  12.430   7.492   2.142 -0.2230  0.5598 -1.8982
49651SOL    HW256069  12.309   7.563   2.199  0.5949  1.3472 -1.1069
49652SOL     OW56070  12.604  10.585   8.039 -0.9382  0.9455  0.0734
49652SOL    HW156071  12.556  10.608   8.118  2.6113 -1.4998  3.3568
49652SOL    HW256072  12.669  10.654   8.028 -0.8426  0.8225 -0.1633
49653SOL     OW56073   2.994   8.859   7.014 -0.1482 -0.3469 -0.9320
49653SOL    HW156074   2.926   8.888   6.953 -0.0028 -0.1124 -0.9838
49653SOL    HW256075   2.979   8.911   7.093  0.6820  0.5663 -1.3417
49654SOL     OW56076   9.062   0.040  12.662  0.0033 -0.1403  0.0470
49654SOL    HW156077   9.087  -0.044  12.623 -0.2274  0.6285 -1.8949
49654SOL    HW256078   9.143   0.090  12.665 -0.0916  0.0178 -0.0191
49655SOL     OW56079   4.248   0.068   9.880  0.6833  0.3758  0.4203
49655SOL    HW156080   4.263   0.143   9.938 -0.7000  0.6461  0.4612
49655SOL    HW256081   4.204   0.105   9.804  0.7883 -0.2698  0.0390
49656SOL     OW56082   9.702  10.901   8.039 -0.0104  0.7242 -0.5299
49656SOL    HW156083   9.687  10.989   8.073 -0.0570  0.1752  0.9337
49656SOL    HW256084   9.723  10.848   8.116  0.2298 -0.5095 -1.4017
49657SOL     OW56085  11.885   9.640   8.188 -0.5042  0.0330  0.5172
49657SOL    HW156086  11.942   9.646   8.265 -0.1169  1.8783  0.1310
49657SOL    HW256087  11.828   9.716   8.195 -0.9417 -0.1672 -0.6591
49658SOL     OW56088   9.857  11.729   4.192  0.2707 -0.1087 -0.1107
49658SOL    HW156089   9.780  11.729   4.249 -1.4620 -0.1260 -2.3251
49658SOL    HW256090   9.869  11.821   4.168  0.2657 -0.2374 -0.6152
49659SOL     OW56091   6.339   1.759  12.169  0.8106 -0.2227 -0.2056
49659SOL    HW156092   6.327   1.765  12.264 -1.8437  4.3685 -0.5105
49659SOL    HW256093   6.269   1.702  12.139  1.5631 -1.5669  0.5031
49660SOL     OW56094   9.283   8.801  10.085  0.1913  0.0743 -0.0505
49660SOL    HW156095   9.189   8.815  10.087  0.0840 -0.7013  0.8979
49660SOL    HW256096   9.293   8.708  10.065  0.7582  0.1116  0.0367
49661SOL     OW56097   6.271  11.551   5.773 -0.1120 -0.7819  0.0061
49661SOL    HW156098   6.236  11.462   5.780  0.4219 -1.3254 -2.8843
49661SOL    HW256099   6.346  11.543   5.714 -0.6496  1.7011 -1.1850
49662SOL     OW56100   5.072   0.159  12.907  0.2232  0.0477 -0.6965
49662SOL    HW156101   4.984   0.148  12.872  0.1455  0.3817 -0.6093
49662SOL    HW256102   5.059   0.191  12.996  0.4311  0.3577 -0.7721
49663SOL     OW56103  11.260   2.014   6.716  0.6440  0.0904 -0.1751
49663SOL    HW156104  11.184   2.069   6.697  1.0941  1.8647  2.7066
49663SOL    HW256105  11.334   2.063   6.681  0.9486  0.9572  1.5960
49664SOL     OW56106  11.847  10.566   4.310  0.0288  0.1066 -0.1409
49664SOL    HW156107  11.763  10.567   4.354  0.8500  0.4968  1.4911
49664SOL    HW256108  11.903  10.623   4.362  1.8470 -1.6539 -0.0382
49665SOL     OW56109   8.374   6.378   6.394  0.6724  0.1674  0.1373
49665SOL    HW156110   8.412   6.466   6.390 -0.9336  0.8785 -0.1708
49665SOL    HW256111   8.385   6.352   6.485  1.1439  0.6953  0.2382
49666SOL     OW56112   5.026   3.210   5.943 -0.1616 -0.0777 -0.6510
49666SOL    HW156113   5.065   3.128   5.912  0.5734  0.4973 -1.3161
49666SOL    HW256114   4.973   3.241   5.869  1.6091  1.3110 -1.4286
49667SOL     OW56115   1.141   0.222  11.651  0.5180  0.1567  0.1745
49667SOL    HW156116   1.129   0.143  11.702 -3.6160 -0.6609 -1.6328
49667SOL    HW256117   1.185   0.193  11.571  0.1749 -0.0928  0.0736
49668SOL     OW56118   6.738   0.085  10.807 -1.0398  0.7502  0.6873
49668SOL    HW156119   6.744   0.163  10.862 -2.4481 -0.2389  2.3380
49668SOL    HW256120   6.650   0.090  10.769 -0.7660  0.4496 -0.0003
49669SOL     OW56121   7.700   1.721   9.642 -0.0759 -0.3344  0.6426
49669SOL    HW156122   7.769   1.692   9.583  0.6195  1.0453  0.7473
49669SOL    HW256123   7.620   1.719   9.589  0.1362 -1.3251  0.3400
49670SOL     OW56124   6.363  10.358   5.426 -0.0145  0.1262 -0.3798
49670SOL    HW156125   6.309  10.436   5.418  0.5350  0.3368 -3.0751
49670SOL    HW256126   6.436  10.384   5.482 -0.8322  0.9170  0.3419
49671SOL     OW56127   8.419   0.168  11.150  0.7907 -0.2743 -0.8805
49671SOL    HW156128   8.460   0.227  11.214 -0.5036 -1.7108  1.4348
49671SOL    HW256129   8.479   0.094  11.143 -0.2528 -1.3573  0.8294
49672SOL     OW56130   9.152   9.027   9.812 -0.0053 -0.0714 -0.5661
49672SOL    HW156131   9.071   9.006   9.858 -0.5548 -1.4907 -2.0941
49672SOL    HW256132   9.127   9.095   9.750  0.3918  0.7379  0.1402
49673SOL     OW56133   2.852  12.407   4.883 -0.3178  0.1506 -0.2699
49673SOL    HW156134   2.939  12.390   4.919 -0.5829  0.4218  0.5218
49673SOL    HW256135   2.799  12.430   4.959 -1.3565 -1.0798 -0.5814
49674SOL     OW56136   4.271   9.314   4.834  0.0014 -0.1574  0.4020
49674SOL    HW156137   4.279   9.391   4.779  0.3356 -0.3155  0.2279
49674SOL    HW256138   4.180   9.286   4.823 -0.0650  0.0960  0.3129
49675SOL     OW56139   4.797   2.865   6.509  0.4791  0.5839  0.1549
49675SOL    HW156140   4.841   2.887   6.592  1.0489 -2.3432  0.7301
49675SOL    HW256141   4.858   2.895   6.442  1.7108 -0.2108  0.8832
49676SOL     OW56142   0.326   0.157   3.057  0.1607 -0.2593 -0.6705
49676SOL    HW156143   0.327   0.227   3.123  1.7829 -0.7104 -0.1698
49676SOL    HW256144   0.280   0.194   2.983  0.6008  1.1989 -0.2437
49677SOL     OW56145   0.978   2.426  10.468 -0.3324 -0.0419  0.3451
49677SOL    HW156146   0.964   2.400  10.559 -0.8777  3.7362  1.5179
49677SOL    HW256147   0.912   2.494  10.451  0.1490 -0.1701 -2.7007
49678SOL     OW56148  12.076   1.415  10.066  0.4707 -0.5338 -0.1800
49678SOL    HW156149  12.065   1.510  10.056  0.7497 -0.5335 -0.4924
49678SOL    HW256150  12.135   1.390   9.995 -0.8986 -1.2029 -1.1275
49679SOL     OW56151   8.957   6.400   1.375  0.1464  0.8658  0.0417
49679SOL    HW156152   8.870   6.360   1.373  0.9304 -1.0296  1.1115
49679SOL    HW256153   9.015   6.330   1.344  1.4378  1.6434  0.6448
49680SOL     OW56154   0.232   6.437   2.642 -0.2849  0.5995 -0.0567
49680SOL    HW156155   0.250   6.531   2.644 -0.5581  0.6404  1.1566
49680SOL    HW256156   0.317   6.396   2.660 -0.2061  0.6114 -0.3895
49681SOL     OW56157   9.638   9.097   8.913 -0.4746 -0.2993 -0.4981
49681SOL    HW156158   9.687   9.070   8.835 -1.2153  0.3347 -1.2040
49681SOL    HW256159   9.570   9.155   8.879 -1.5970 -1.0018  0.4855
49682SOL     OW56160   7.518   7.283   6.646  0.4561  0.3815 -0.4737
49682SOL    HW156161   7.501   7.268   6.553  0.6466  0.9279 -0.6011
49682SOL    HW256162   7.612   7.303   6.650  0.2884  1.1561 -0.2720
49683SOL     OW56163   7.937   0.200  10.059 -0.1537  0.5856 -0.1867
49683SOL    HW156164   7.934   0.105  10.069  0.1165  0.4724 -1.0702
49683SOL    HW256165   7.916   0.235  10.146  0.1124 -0.2818  0.2322
49684SOL     OW56166   5.070   8.221   6.599  0.6685 -0.4787  0.7386
49684SOL    HW156167   5.106   8.133   6.583 -1.2278 -0.7521 -3.1688
49684SOL    HW256168   5.106   8.274   6.529 -1.9807  0.6129  0.1064
49685SOL     OW56169  12.588   0.761  11.426 -0.1866 -0.2750  0.0482
49685SOL    HW156170  12.514   0.805  11.467  0.8548  1.5820  0.0467
49685SOL    HW256171  12.558   0.738  11.339 -0.4488  1.4484 -0.3454
49686SOL     OW56172   3.312  12.199  11.245  0.2998 -0.3161  0.0747
49686SOL    HW156173   3.366  12.278  11.244  0.9931 -0.7572 -1.6782
49686SOL    HW256174   3.375  12.128  11.253 -0.2873 -0.7419  1.1523
49687SOL     OW56175  11.171  11.931   1.324  0.1751 -0.2994 -0.0450
49687SOL    HW156176  11.177  11.904   1.233  0.8457 -1.0428  0.2093
49687SOL    HW256177  11.166  11.850   1.374  1.8940  0.0102  0.7122
49688SOL     OW56178   1.215   3.740   3.135 -0.0392 -0.0137 -0.5391
49688SOL    HW156179   1.218   3.645   3.149 -2.8500 -0.2772 -1.1122
49688SOL    HW256180   1.278   3.756   3.064  0.7681 -1.3465 -0.1644
49689SOL     OW56181  11.048   4.753   6.723 -0.1916  0.4185 -0.6093
49689SOL    HW156182  11.056   4.661   6.749 -0.2447  0.6554  0.2655
49689SOL    HW256183  10.959   4.760   6.688 -0.2919  0.2063 -0.3990
49690SOL     OW56184   4.098  11.071   0.034  0.6242  0.2816  0.5159
49690SOL    HW156185   4.102  11.109   0.121  2.0238  0.7042  0.2981
49690SOL    HW256186   4.127  11.142  -0.024 -1.0069  0.2573 -0.4007
49691SOL     OW56187  12.473   4.707   2.625  0.0226 -0.6259  0.0474
49691SOL    HW156188  12.529   4.784   2.634 -0.8020  0.0403 -0.4898
49691SOL    HW256189  12.481   4.682   2.534  0.0100 -0.9669  0.1388
49692SOL     OW56190   6.303   8.203   6.360 -0.0983 -0.5156  0.1050
49692SOL    HW156191   6.261   8.285   6.385 -1.0746 -1.5733  2.1613
49692SOL    HW256192   6.334   8.166   6.442  1.8014 -1.4462 -0.9796
49693SOL     OW56193   2.468   5.153   8.759 -0.3253 -0.1597 -0.1340
49693SOL    HW156194   2.546   5.174   8.708 -1.2375  0.5961 -1.2635
49693SOL    HW256195   2.463   5.058   8.757 -0.8565 -0.1221 -2.2928
49694SOL     OW56196   6.329  10.527   5.754  0.5174 -0.3385  0.4164
49694SOL    HW156197   6.351  10.435   5.769 -0.3744 -1.5012 -3.8486
49694SOL    HW256198   6.412  10.568   5.730  0.5795 -0.6120  0.1597
49695SOL     OW56199  11.190   8.279   1.742 -0.1482 -0.1277 -0.0132
49695SOL    HW156200  11.160   8.241   1.659  0.4421 -1.8199  0.5300
49695SOL    HW256201  11.242   8.355   1.715  1.5979 -1.7053 -1.3250
49696SOL     OW56202   3.248   9.113  10.535  0.5281 -0.5007  0.3379
49696SOL    HW156203   3.267   9.207  10.533 -0.6402 -0.1649 -3.3415
49696SOL    HW256204   3.153   9.108  10.545  0.6431 -1.3470  1.1143
49697SOL     OW56205   2.984   7.450   5.619 -0.1966  0.0652  0.5744
49697SOL    HW156206   2.945   7.367   5.591  0.9162 -0.5378  0.7282
49697SOL    HW256207   2.922   7.517   5.591 -0.0638 -0.6427 -1.6287
49698SOL     OW56208   5.432  12.101   1.678 -0.2586  0.2631  0.1155
49698SOL    HW156209   5.449  12.034   1.611 -1.4558  0.9654 -0.9617
49698SOL    HW256210   5.381  12.056   1.745 -0.4150 -0.0918 -0.2399
49699SOL     OW56211  12.374   1.167   4.908 -0.6280 -0.2806 -0.0849
49699SOL    HW156212  12.464   1.133   4.901 -0.7334 -0.5240 -0.2817
49699SOL    HW256213  12.321   1.089   4.925 -1.0556 -0.4310 -1.9263
49700SOL     OW56214   9.599   4.925   7.830  0.3474 -0.3351  0.2644
49700SOL    HW156215   9.653   4.997   7.863  4.2648 -1.6261 -2.4546
49700SOL    HW256216   9.607   4.857   7.897  0.6285  0.1465  0.7278
49701SOL     OW56217   9.424   4.819   6.271 -0.2897 -0.6120 -0.4174
49701SOL    HW156218   9.500   4.836   6.326 -0.7074 -0.6568  0.1759
49701SOL    HW256219   9.432   4.727   6.247 -0.7073 -0.9022  0.5097
49702SOL     OW56220  12.050  11.334   4.109  0.2302  0.0708  0.5495
49702SOL    HW156221  12.120  11.364   4.052  0.7775  0.3418  1.3414
49702SOL    HW256222  12.044  11.401   4.177 -0.2510 -0.3570  0.9392
49703SOL     OW56223   2.389   2.906   7.952  0.1533 -0.2756  0.1166
49703SOL    HW156224   2.384   2.945   8.039 -0.9755 -0.4036  0.1169
49703SOL    HW256225   2.341   2.966   7.895 -1.2825 -1.4351  0.0484
49704SOL     OW56226   4.253  11.885   4.238 -0.3127  0.2449 -0.7449
49704SOL    HW156227   4.193  11.928   4.176 -0.6886 -2.1691 -2.1789
49704SOL    HW256228   4.313  11.836   4.182 -0.0066 -1.2172  0.8059
49705SOL     OW56229  12.280   4.877   1.818 -0.3069  0.0540 -0.2414
49705SOL    HW156230  12.313   4.878   1.728 -2.1829 -1.8266 -1.0408
49705SOL    HW256231  12.197   4.925   1.814  0.0623  0.7930  0.7043
49706SOL     OW56232   8.683   5.840   7.995  0.1934  0.1465  0.9718
49706SOL    HW156233   8.666   5.934   7.993 -0.8814  0.0172  2.4419
49706SOL    HW256234   8.597   5.800   7.990  0.7413 -0.8810 -1.8661
49707SOL     OW56235   6.932  10.272   5.483  0.6967  0.0043  0.2223
49707SOL    HW156236   6.893  10.358   5.491  1.3327  0.4255 -0.9978
49707SOL    HW256237   6.868  10.220   5.435  0.4401 -0.1251  0.6998
49708SOL     OW56238   8.108  10.040   8.920 -0.7921 -0.3071 -0.7870
49708SOL    HW156239   8.047  10.023   8.993 -1.9066 -2.6282 -2.1530
49708SOL    HW256240   8.078  10.124   8.884 -0.7705  0.4505  0.8430
49709SOL     OW56241   3.381  11.494  12.897  1.0174  0.3257 -0.5600
49709SOL    HW156242   3.473  11.518  12.888  1.8950 -2.4405  0.3411
49709SOL    HW256243   3.381  11.413  12.947 -1.8578 -0.3511 -1.4543
49710SOL     OW56244   1.497   5.873   5.229 -0.4919  0.3816 -0.3342
49710SOL    HW156245   1.528   5.878   5.319 -0.8415  1.3520 -0.2510
49710SOL    HW256246   1.546   5.941   5.183  1.1102 -1.3656 -1.3466
49711SOL     OW56247   4.622  11.032   2.570 -0.2065  0.0445 -0.0653
49711SOL    HW156248   4.673  11.091   2.514  0.2646  0.5781  0.8862
49711SOL    HW256249   4.541  11.080   2.588  0.8769  1.2306  2.0997
49712SOL     OW56250   9.652  10.120   5.667 -0.4389 -0.4274  0.2954
49712SOL    HW156251   9.584  10.185   5.683 -0.9097 -0.9011  0.2764
49712SOL    HW256252   9.678  10.089   5.754 -2.3144 -2.3096  0.2668
49713SOL     OW56253   0.148  12.237  12.432  0.1298  0.6127  0.1508
49713SOL    HW156254   0.114  12.318  12.470 -1.0234  0.6896 -0.9953
49713SOL    HW256255   0.115  12.236  12.342  1.4300 -0.3677 -0.3542
49714SOL     OW56256  10.825   9.786  11.680  0.6492  0.1455  0.5936
49714SOL    HW156257  10.852   9.812  11.592  0.1109 -0.0239  0.3681
49714SOL    HW256258  10.742   9.739  11.666  0.6415 -0.0216  1.1747
49715SOL     OW56259   6.855   2.923   8.154 -0.4006  0.1852 -0.3662
49715SOL    HW156260   6.878   2.839   8.193 -0.8916  0.2839  0.1506
49715SOL    HW256261   6.910   2.987   8.200 -0.8224  0.2769  0.0067
49716SOL     OW56262   5.466  10.558   3.138  0.4595  0.1538  0.0008
49716SOL    HW156263   5.474  10.630   3.201 -0.3764 -0.4948  0.8833
49716SOL    HW256264   5.486  10.480   3.190 -2.1944 -0.5936 -0.0018
49717SOL     OW56265   7.780   3.182   2.609 -0.0776 -0.0671 -0.2319
49717SOL    HW156266   7.742   3.102   2.575 -0.8167  0.7056 -1.3031
49717SOL    HW256267   7.706   3.227   2.651  0.3372  0.0363  0.3946
49718SOL     OW56268  11.819   1.147   7.033 -0.3024  0.2792  0.0902
49718SOL    HW156269  11.739   1.171   7.081 -0.9595 -0.3653 -0.6411
49718SOL    HW256270  11.884   1.131   7.101 -0.8580  0.5867  0.7125
49719SOL     OW56271   4.489   7.081   1.753  0.0016 -0.5125  0.3906
49719SOL    HW156272   4.453   7.124   1.830  0.3604 -1.5200  1.1410
49719SOL    HW256273   4.416   7.080   1.690  0.0100  1.2341  0.3030
49720SOL     OW56274   8.189   4.566   5.654  0.5785  0.5855  0.0086
49720SOL    HW156275   8.107   4.517   5.664  1.1149 -0.2782  0.2701
49720SOL    HW256276   8.164   4.645   5.607 -0.3633  0.2074 -0.1456
49721SOL     OW56277   7.888  10.384  11.605  0.2889 -0.2083  0.4652
49721SOL    HW156278   7.804  10.340  11.615 -0.7038  1.4370 -0.2210
49721SOL    HW256279   7.953  10.317  11.627 -1.0732 -2.2205 -1.1865
49722SOL     OW56280  10.029   4.459   4.365 -0.2110  0.4442 -0.1471
49722SOL    HW156281  10.087   4.478   4.291 -0.4135  0.9914 -0.1705
49722SOL    HW256282  10.009   4.545   4.402 -0.6504  0.2245  0.1317
49723SOL     OW56283   6.096  12.390   2.709  0.7528  0.1169 -0.2033
49723SOL    HW156284   6.149  12.445   2.767 -1.1791  1.3402  0.4816
49723SOL    HW256285   6.043  12.337   2.769  2.3303 -2.3815 -0.8427
49724SOL     OW56286   8.067   9.546   7.757 -0.1235  0.4807 -0.5597
49724SOL    HW156287   8.032   9.634   7.750  1.3427  1.0742 -0.7542
49724SOL    HW256288   8.115   9.532   7.675 -0.9644 -0.7990 -0.8687
49725SOL     OW56289  10.795   8.641   2.235  0.0734  0.3892  0.6174
49725SOL    HW156290  10.862   8.707   2.252  0.2830  0.4314 -0.3232
49725SOL    HW256291  10.832   8.587   2.165  0.2773 -1.2684  1.9381
49726SOL     OW56292   4.207   8.753   1.879 -0.3542  0.0416 -0.7973
49726SOL    HW156293   4.271   8.820   1.904  0.7432 -0.6743 -1.5936
49726SOL    HW256294   4.151   8.796   1.815 -0.5890  0.6291 -0.2093
49727SOL     OW56295   2.931   1.009   6.120 -0.0417 -0.1749  0.2744
49727SOL    HW156296   2.948   0.933   6.175  1.9465  0.0141 -0.0046
49727SOL    HW256297   2.869   0.977   6.053 -2.0576 -0.5452  2.1880
49728SOL     OW56298   7.238   7.938   9.104  0.2253 -0.0789 -0.0865
49728SOL    HW156299   7.304   7.871   9.086 -0.9995 -2.0555  2.1022
49728SOL    HW256300   7.155   7.890   9.107 -0.9848  1.8824 -0.2614
49729SOL     OW56301   7.532   7.694   8.785  0.3940 -0.0388 -0.3122
49729SOL    HW156302   7.621   7.689   8.819  0.4136  1.4476 -0.0934
49729SOL    HW256303   7.530   7.775   8.734 -0.6207 -0.4500 -0.9739
49730SOL     OW56304   0.143   0.414  10.299 -0.0019 -0.4955  0.4437
49730SOL    HW156305   0.088   0.413  10.377  1.0399  0.4562  1.2469
49730SOL    HW256306   0.148   0.507  10.275  1.6227 -0.4789  0.7115
49731SOL     OW56307   7.308   4.249   0.099 -0.0294 -0.0778  0.2619
49731SOL    HW156308   7.386   4.221   0.146  0.0809  1.2853  0.9293
49731SOL    HW256309   7.237   4.241   0.164 -0.5923 -1.8522 -0.4972
49732SOL     OW56310   9.122   1.571  10.426 -0.1741  0.0056  0.2539
49732SOL    HW156311   9.035   1.610  10.439  0.2641  0.8368  0.7348
49732SOL    HW256312   9.120   1.538  10.336 -0.9760  0.0392  0.2488
49733SOL     OW56313  10.991   0.373   0.082  0.3242 -0.5529  0.1302
49733SOL    HW156314  11.040   0.380   0.164  0.6409  2.6325 -0.2066
49733SOL    HW256315  11.022   0.447   0.029 -1.2337 -1.4103 -2.1206
49734SOL     OW56316   1.447  12.682   6.164 -0.2147  0.1132 -0.2511
49734SOL    HW156317   1.411  12.769   6.152  0.3984  0.4045 -0.0304
49734SOL    HW256318   1.470  12.678   6.257  1.5734  0.4464 -0.6407
49735SOL     OW56319   4.315  11.437   1.640 -0.1519  0.2903 -0.4111
49735SOL    HW156320   4.282  11.516   1.598 -0.5507 -0.1369 -0.8986
49735SOL    HW256321   4.410  11.444   1.633 -0.2069  0.4083 -1.0306
49736SOL     OW56322   4.781   8.786   8.784  0.3227  0.2764  0.2722
49736SOL    HW156323   4.806   8.697   8.808  0.3736 -0.3030 -1.7536
49736SOL    HW256324   4.737   8.777   8.700  0.1365  2.1543  0.1239
49737SOL     OW56325   7.191   2.350   8.654  0.5817 -0.1725 -0.0992
49737SOL    HW156326   7.123   2.383   8.595  0.3802  1.7376  1.1204
49737SOL    HW256327   7.252   2.424   8.663  1.3172 -0.8979  1.0174
49738SOL     OW56328   6.965  11.709   7.761  0.1328 -0.0912 -0.2121
49738SOL    HW156329   6.992  11.622   7.732  0.2889 -0.3374  0.6409
49738SOL    HW256330   7.020  11.727   7.837 -0.0757  0.6505 -0.2280
49739SOL     OW56331   1.606   4.381   3.713  0.0028  0.1714 -0.3875
49739SOL    HW156332   1.661   4.369   3.635  0.6213  2.7975 -0.4599
49739SOL    HW256333   1.541   4.312   3.707 -0.5338  0.7825 -3.7741
49740SOL     OW56334   6.785   7.170   4.736  0.5436  0.5060  0.2024
49740SOL    HW156335   6.829   7.128   4.810  0.9435  0.3837 -0.1010
49740SOL    HW256336   6.805   7.263   4.747  0.8937  0.4507  0.0593
49741SOL     OW56337   1.378   8.622   3.229 -0.0007 -0.3187 -0.2115
49741SOL    HW156338   1.362   8.613   3.323  0.1693 -2.4342 -0.3383
49741SOL    HW256339   1.463   8.665   3.223 -0.7793  1.4293  0.5476
49742SOL     OW56340   3.339   1.566   8.570  0.3859 -0.5670 -0.1920
49742SOL    HW156341   3.400   1.570   8.644  0.5615 -0.7893 -0.3205
49742SOL    HW256342   3.391   1.528   8.499 -0.3096 -2.1680  0.1186
49743SOL     OW56343   7.355   6.266   8.225 -0.3245  0.1115 -0.4281
49743SOL    HW156344   7.316   6.315   8.152 -0.6530 -0.2198 -0.4781
49743SOL    HW256345   7.413   6.203   8.183  0.5289  0.8251 -0.3390
49744SOL     OW56346   5.384  10.375   5.720 -0.3695  0.4150 -0.3391
49744SOL    HW156347   5.305  10.420   5.750 -0.1199  0.5787  0.0756
49744SOL    HW256348   5.353  10.288   5.693 -0.6267  0.3218  0.2437
49745SOL     OW56349   8.875   5.498   6.058 -0.5231 -0.1265 -0.1804
49745SOL    HW156350   8.878   5.585   6.098  1.3091 -0.7287  1.1070
49745SOL    HW256351   8.908   5.512   5.969  1.5011  0.2400  0.5900
49746SOL     OW56352  11.420   1.614  10.764 -0.1942 -0.1960 -0.1201
49746SOL    HW156353  11.506   1.655  10.756  0.3530 -1.0450  1.0670
49746SOL    HW256354  11.422   1.572  10.850 -1.3790 -1.1907 -0.5549
49747SOL     OW56355   1.878   0.518  12.790  0.1606 -0.0489  0.7731
49747SOL    HW156356   1.837   0.585  12.844 -1.8016 -0.8296  0.3400
49747SOL    HW256357   1.845   0.435  12.826  0.0814 -0.6372 -0.5957
49748SOL     OW56358  10.903   8.637  10.709 -0.2974  0.2263  0.3685
49748SOL    HW156359  10.983   8.684  10.734  0.6020  0.2721 -2.2913
49748SOL    HW256360  10.934   8.557  10.667 -1.5825  0.5353 -1.2822
49749SOL     OW56361   8.301  10.687   8.557 -0.3123 -0.6175 -0.1474
49749SOL    HW156362   8.370  10.737   8.514  0.2199 -2.6547 -1.8437
49749SOL    HW256363   8.225  10.697   8.499 -1.0751  0.4584  0.9776
49750SOL     OW56364  11.930   0.374   3.382  0.3486  0.8102  0.0888
49750SOL    HW156365  11.911   0.427   3.460  0.7025 -1.2148  1.6349
49750SOL    HW256366  11.871   0.408   3.315 -0.6524  2.0031  1.5080
49751SOL     OW56367   7.619   5.605   1.481 -0.0521  0.0468 -0.1653
49751SOL    HW156368   7.592   5.677   1.537 -0.0088  0.8884 -1.1782
49751SOL    HW256369   7.611   5.527   1.535  1.8869  1.0195  1.6453
49752SOL     OW56370   7.823   1.384  10.151  0.0188 -0.2287  0.7501
49752SOL    HW156371   7.896   1.361  10.209 -0.4431  1.6894  2.2265
49752SOL    HW256372   7.751   1.329  10.180 -0.3951  1.1553  2.5644
49753SOL     OW56373   7.707   2.837  11.511  0.2880 -0.0851  0.1527
49753SOL    HW156374   7.715   2.839  11.416  0.1155 -1.9651  0.0604
49753SOL    HW256375   7.739   2.922  11.540  1.6461 -0.0017 -1.4820
49754SOL     OW56376  10.966   6.154   0.467  0.3102  0.0758  0.4502
49754SOL    HW156377  11.008   6.083   0.515 -2.0870 -0.7322  1.4978
49754SOL    HW256378  10.907   6.195   0.530 -1.5033  0.2281 -1.2208
49755SOL     OW56379  11.387   4.854   4.216 -0.3405  0.6415  0.1961
49755SOL    HW156380  11.402   4.899   4.132 -0.0104 -0.9096 -0.6079
49755SOL    HW256381  11.301   4.814   4.207 -0.6629  1.1590  0.9322
49756SOL     OW56382   9.714   3.813   2.239  0.3193  0.2694 -0.0936
49756SOL    HW156383   9.754   3.856   2.163  1.7543 -2.1393 -0.7975
49756SOL    HW256384   9.785   3.807   2.303 -0.1829 -0.0113  0.4516
49757SOL     OW56385   9.329   4.833   2.104  0.0855 -0.0282 -0.5273
49757SOL    HW156386   9.250   4.882   2.125  0.6341  0.1677  1.3177
49757SOL    HW256387   9.362   4.803   2.189  2.1780  0.2089 -1.1803
49758SOL     OW56388  10.082   1.424   5.196 -0.1474  0.0215  0.0179
49758SOL    HW156389   9.993   1.415   5.160 -0.9567  0.3803  1.8027
49758SOL    HW256390  10.139   1.397   5.125 -1.6736  0.0796 -1.3017
49759SOL     OW56391   9.652   0.293   2.606  0.0295 -0.0999 -0.0389
49759SOL    HW156392   9.727   0.334   2.649  0.1943  1.5891 -1.8352
49759SOL    HW256393   9.691   0.240   2.536 -0.4087 -0.0743 -0.3008
49760SOL     OW56394   8.394  10.146   5.650  0.2445  0.1762 -0.0337
49760SOL    HW156395   8.391  10.060   5.608 -0.5025  0.4333 -0.5241
49760SOL    HW256396   8.431  10.204   5.583  0.6193  0.2674  0.2494
49761SOL     OW56397  11.278   7.596   4.015  0.5628  0.2376  0.0607
49761SOL    HW156398  11.257   7.689   4.021  0.1688  0.1693 -0.2251
49761SOL    HW256399  11.323   7.576   4.097 -1.7887  0.0487  1.3849
49762SOL     OW56400   9.036   7.459  12.290  0.4114  0.6833 -0.0763
49762SOL    HW156401   9.035   7.542  12.241  0.4536 -0.1517 -1.5394
49762SOL    HW256402   8.957   7.462  12.344  0.0923  1.4117 -0.5712
49763SOL     OW56403   1.012   1.341   6.325  0.3136  0.4582 -0.1176
49763SOL    HW156404   0.970   1.427   6.316  1.9451  1.3958  0.5727
49763SOL    HW256405   1.106   1.362   6.332  0.8597 -1.4743 -1.0450
49764SOL     OW56406  11.591   2.249   5.704  0.5924 -0.0349 -0.0412
49764SOL    HW156407  11.554   2.210   5.624  1.8584 -1.3865 -0.0156
49764SOL    HW256408  11.548   2.202   5.775  0.3455  0.3224  0.0441
49765SOL     OW56409  12.231   6.140  12.490 -0.6392  0.1231 -0.1184
49765SOL    HW156410  12.188   6.215  12.531 -0.8319 -0.4802  0.8193
49765SOL    HW256411  12.162   6.099  12.438  0.0631  1.9819 -2.7112
49766SOL     OW56412   6.628   0.833  10.041 -0.0016 -0.0502 -0.5089
49766SOL    HW156413   6.704   0.853  10.097 -0.4368  1.0342 -0.2755
49766SOL    HW256414   6.652   0.869   9.955 -0.0280 -0.1959 -0.5767
49767SOL     OW56415  11.119   8.880   6.657 -0.2671 -0.3400  0.7200
49767SOL    HW156416  11.073   8.804   6.621 -0.7691  0.4995 -0.4895
49767SOL    HW256417  11.091   8.884   6.748 -0.0634 -1.7216  0.8579
49768SOL     OW56418  12.387   2.797   5.885  0.0624 -0.2072  0.3975
49768SOL    HW156419  12.315   2.861   5.889  0.4330  0.1460  2.7932
49768SOL    HW256420  12.375   2.753   5.800 -1.2456  1.8085 -0.5420
49769SOL     OW56421   9.699   1.563  10.638  0.4483 -0.1585 -0.5225
49769SOL    HW156422   9.778   1.541  10.589 -0.1182 -1.3756 -0.9168
49769SOL    HW256423   9.634   1.583  10.571  0.3949  0.7969 -0.2002
49770SOL     OW56424  11.560   9.092  10.728  0.0581 -0.5674 -0.0282
49770SOL    HW156425  11.591   9.006  10.701 -0.8904 -0.1504 -2.7378
49770SOL    HW256426  11.534   9.081  10.820  0.9908 -2.8463  0.0046
49771SOL     OW56427  10.611   4.395   9.967 -0.7397  0.3896 -0.3277
49771SOL    HW156428  10.518   4.371   9.960 -0.6564 -0.3305  0.7177
49771SOL    HW256429  10.617   4.446  10.047 -0.0626 -0.5477  0.2414
49772SOL     OW56430  11.146   8.173   4.621  0.1259 -0.3096  0.4811
49772SOL    HW156431  11.163   8.203   4.532 -1.5707 -0.2614  0.1301
49772SOL    HW256432  11.084   8.100   4.610  0.1276 -0.4935  1.6031
49773SOL     OW56433  12.048   5.029   9.099  0.2713  0.5930  0.0452
49773SOL    HW156434  11.992   5.035   9.176 -0.2058 -0.9437 -0.1459
49773SOL    HW256435  11.988   5.016   9.026  0.8479 -1.9726 -0.0530
49774SOL     OW56436  10.615   6.381   7.400 -0.4221  0.2163 -0.2229
49774SOL    HW156437  10.593   6.442   7.330 -1.1161  1.5939  1.1454
49774SOL    HW256438  10.535   6.330   7.413 -0.7345  0.8867  0.4805
49775SOL     OW56439   4.998   1.697  11.791  0.5396  0.2000  0.6225
49775SOL    HW156440   4.984   1.682  11.698  0.8299  1.2966  0.3883
49775SOL    HW256441   4.919   1.741  11.821  0.2128 -0.6347  1.0300
49776SOL     OW56442   2.123   6.678  10.239  0.2016  0.0237 -0.5056
49776SOL    HW156443   2.131   6.585  10.215 -0.6540  0.1002 -1.1325
49776SOL    HW256444   2.209   6.715  10.218  0.3069 -0.4707 -0.9977
49777SOL     OW56445   3.048  11.262   6.880 -0.1232  0.5779 -0.7937
49777SOL    HW156446   3.109  11.239   6.951 -1.4813  1.4635  0.7284
49777SOL    HW256447   3.090  11.335   6.835  0.4608  0.4269 -0.5107
49778SOL     OW56448   0.514   9.430  10.191  0.0238 -0.2638  0.4413
49778SOL    HW156449   0.502   9.437  10.285  2.6508 -0.8661  0.9138
49778SOL    HW256450   0.571   9.504  10.169  0.0009 -0.5264 -0.5560
49779SOL     OW56451   3.991   7.024   9.425  0.0120  0.0168  0.4552
49779SOL    HW156452   4.058   7.090   9.438  1.2408 -1.0325 -0.3521
49779SOL    HW256453   4.031   6.942   9.455 -1.1880 -0.5097  0.7033
49780SOL     OW56454   5.526  12.089   8.326 -0.3068  0.2135  0.5787
49780SOL    HW156455   5.463  12.019   8.346  0.5356 -0.0128  2.7197
49780SOL    HW256456   5.608  12.043   8.310 -0.0293  0.6508  0.7344
49781SOL     OW56457   8.672   3.267   6.621  0.6027 -0.2230  0.7895
49781SOL    HW156458   8.696   3.188   6.670 -0.1397 -2.3580 -1.9862
49781SOL    HW256459   8.744   3.279   6.559  0.5165  1.1112  0.9175
49782SOL     OW56460   0.578   1.855   5.210 -0.2507 -0.5202 -0.1296
49782SOL    HW156461   0.620   1.940   5.212 -0.4201 -0.3156 -2.6131
49782SOL    HW256462   0.490   1.871   5.246  0.0837  0.1014  0.4250
49783SOL     OW56463   7.653   3.161   0.576  0.2981 -0.3254  0.0979
49783SOL    HW156464   7.637   3.232   0.639 -1.3514 -1.6665  1.3087
49783SOL    HW256465   7.609   3.189   0.496  0.3482  0.3668  0.3089
49784SOL     OW56466   4.987  12.176   2.615 -0.1678  0.1984  0.3192
49784SOL    HW156467   5.057  12.191   2.552 -1.0356 -0.3154 -0.8204
49784SOL    HW256468   4.951  12.091   2.591 -1.5807  0.7236  0.4586
49785SOL     OW56469   1.863   0.237  12.857 -0.0791 -0.2412  0.1634
49785SOL    HW156470   1.934   0.274  12.909  0.0432  0.3338 -0.3926
49785SOL    HW256471   1.902   0.162  12.812  0.2561  0.2308 -0.3438
49786SOL     OW56472   6.491  10.383   8.553  0.2277 -0.6720 -0.3132
49786SOL    HW156473   6.430  10.312   8.569 -0.1949 -0.3914 -0.6438
49786SOL    HW256474   6.482  10.401   8.459  0.5001 -0.3412 -0.2778
49787SOL     OW56475   5.357   4.069   8.584  0.0614  0.9657 -0.5352
49787SOL    HW156476   5.272   4.027   8.576 -0.9269  3.0517 -1.9360
49787SOL    HW256477   5.379   4.062   8.677  0.1671 -2.8024 -0.6964
49788SOL     OW56478   6.303   8.618   1.476  0.4976 -0.3971 -0.4664
49788SOL    HW156479   6.386   8.622   1.428  0.7488 -0.2284 -0.0290
49788SOL    HW256480   6.288   8.708   1.504  0.2651 -0.4656 -0.3734
49789SOL     OW56481   6.297  11.862   6.795  0.5170 -0.1678  0.4588
49789SOL    HW156482   6.388  11.857   6.824  0.8537  1.0166 -0.3269
49789SOL    HW256483   6.258  11.780   6.824  2.1692 -1.2914 -0.3847
49790SOL     OW56484   5.221   4.361   5.247 -0.3285 -0.2163  0.1044
49790SOL    HW156485   5.271   4.280   5.239 -1.4400 -0.8049 -1.4996
49790SOL    HW256486   5.204   4.387   5.156  0.3119  2.0328  0.5656
49791SOL     OW56487   7.313  10.275   5.653 -0.0795  0.4323  0.0127
49791SOL    HW156488   7.404  10.284   5.683  0.1631 -0.1284 -0.5314
49791SOL    HW256489   7.271  10.357   5.679  0.3586  0.3487  1.0372
49792SOL     OW56490  11.498  12.425   3.569  0.2333  0.3620 -0.3780
49792SOL    HW156491  11.571  12.377   3.609  1.8644  1.6550 -1.6311
49792SOL    HW256492  11.460  12.475   3.641  1.9096  1.2215 -0.0291
49793SOL     OW56493  11.032   2.402   8.211 -0.4025 -0.0238 -0.1314
49793SOL    HW156494  10.963   2.420   8.275  0.0936 -0.2864  0.4823
49793SOL    HW256495  11.065   2.315   8.235 -1.2679 -0.8266 -1.7115
49794SOL     OW56496  12.290   5.901   2.169  0.2217 -0.2280 -0.2919
49794SOL    HW156497  12.301   5.918   2.262 -0.5409 -2.2002  0.2144
49794SOL    HW256498  12.371   5.859   2.142  1.1646  1.8905 -0.9922
49795SOL     OW56499  11.988   1.255   9.107 -0.1884 -0.2381  0.6006
49795SOL    HW156500  11.897   1.283   9.115  0.0689  0.0133  3.7153
49795SOL    HW256501  11.984   1.159   9.112 -0.2878 -0.2776 -0.0316
49796SOL     OW56502  11.881   4.396   0.586 -0.1283  0.0859 -0.1964
49796SOL    HW156503  11.830   4.477   0.587 -1.3351 -0.6310  1.3864
49796SOL    HW256504  11.888   4.372   0.679 -0.6416 -2.1065 -0.6855
49797SOL     OW56505  10.251   8.664   8.214  0.0736  0.3102 -0.1015
49797SOL    HW156506  10.173   8.650   8.160  0.7925 -0.7825 -0.8962
49797SOL    HW256507  10.287   8.747   8.183  0.0883  0.0399 -0.8222
49798SOL     OW56508   6.777   8.945  12.909  0.6745 -0.0651 -0.2601
49798SOL    HW156509   6.792   8.856  12.943  1.3875 -0.0017 -0.3999
49798SOL    HW256510   6.715   8.933  12.838 -0.2761 -0.2894  0.5774
49799SOL     OW56511   5.398   2.997  11.291  0.4159 -0.4953  0.0368
49799SOL    HW156512   5.452   2.938  11.343  0.6261  0.0267  0.4179
49799SOL    HW256513   5.313   2.997  11.333  0.5277 -0.2317  0.2684
49800SOL     OW56514   5.586   9.574   7.784 -0.2662 -0.0969 -0.0406
49800SOL    HW156515   5.636   9.528   7.716 -0.7321  3.3702 -3.0930
49800SOL    HW256516   5.643   9.574   7.860  1.4682 -2.0091 -1.2279
49801SOL     OW56517   8.415   8.182   3.180  0.2764 -0.3841 -0.7312
49801SOL    HW156518   8.368   8.161   3.261  1.5185 -1.1441 -0.1859
49801SOL    HW256519   8.445   8.272   3.193 -1.0373  0.1295 -1.1062
49802SOL     OW56520   7.086   1.628  10.188  0.0612  0.4148 -0.1885
49802SOL    HW156521   7.004   1.649  10.231 -0.1725  0.9801 -0.8832
49802SOL    HW256522   7.063   1.560  10.124  0.5756 -1.1022  1.1628
49803SOL     OW56523   3.965   6.650   4.039  0.3053 -0.0952 -0.0682
49803SOL    HW156524   4.053   6.685   4.026 -0.4935  1.7149 -1.1293
49803SOL    HW256525   3.955   6.642   4.134  0.8964  1.7913  0.1978
49804SOL     OW56526   4.121   8.332  11.939 -0.1169 -0.4602  0.3402
49804SOL    HW156527   4.110   8.421  11.903 -1.9100 -0.3776  1.0315
49804SOL    HW256528   4.154   8.347  12.028  1.1525 -0.5718 -0.0847
49805SOL     OW56529   5.786   5.527   0.803 -0.2204  0.1599  0.1074
49805SOL    HW156530   5.776   5.619   0.779  0.3935 -0.1069 -1.2360
49805SOL    HW256531   5.857   5.527   0.868  0.5226  0.5384 -0.6847
49806SOL     OW56532  10.699   3.448   4.705  0.0752 -0.5331  0.9782
49806SOL    HW156533  10.657   3.396   4.774 -0.8257 -0.7965  0.2440
49806SOL    HW256534  10.785   3.407   4.694  0.2534 -0.4527  1.9813
49807SOL     OW56535  12.921   4.292   0.053  0.0332  0.3066 -0.0900
49807SOL    HW156536  13.015   4.304   0.049 -0.1040  1.4733 -0.2966
49807SOL    HW256537  12.905   4.249   0.138  0.7608 -0.1860 -0.1969
49808SOL     OW56538  11.805   7.816   0.252 -0.0431 -0.5065  0.5150
49808SOL    HW156539  11.884   7.824   0.198  0.4147  0.5355  1.3123
49808SOL    HW256540  11.784   7.906   0.278 -2.1015 -0.6161 -0.5151
49809SOL     OW56541  12.548  11.795   7.216 -0.4304  0.1449 -0.1652
49809SOL    HW156542  12.503  11.809   7.300  0.1260 -0.5793  0.2621
49809SOL    HW256543  12.618  11.733   7.236 -0.2624 -0.0043 -1.1603
49810SOL     OW56544  10.519   4.162   2.608 -0.3184  0.1753  0.5190
49810SOL    HW156545  10.480   4.115   2.681 -0.6017 -1.7855 -0.8103
49810SOL    HW256546  10.613   4.142   2.615 -0.5610 -1.5651 -0.6409
49811SOL     OW56547  10.762   6.297   0.600 -0.1089 -0.0710  0.0448
49811SOL    HW156548  10.715   6.280   0.682  1.4876 -1.3663  0.7422
49811SOL    HW256549  10.839   6.348   0.627 -0.4033  0.9136 -0.8989
49812SOL     OW56550   5.859  12.854   0.291 -0.0520  0.1288 -0.7620
49812SOL    HW156551   5.922  12.846   0.219  0.1302 -0.5794 -0.5367
49812SOL    HW256552   5.774  12.835   0.251  0.3773 -3.7992 -0.2076
49813SOL     OW56553   5.502  11.521   5.017  0.4602  0.0437 -0.1578
49813SOL    HW156554   5.475  11.510   4.925  0.9470 -0.1448 -0.2852
49813SOL    HW256555   5.586  11.565   5.011  0.3407  0.3179  0.2160
49814SOL     OW56556   8.891   4.947   0.118  0.1497 -0.5351 -0.0626
49814SOL    HW156557   8.907   4.853   0.120  1.1784 -0.3945 -0.7953
49814SOL    HW256558   8.848   4.962   0.034  0.8352 -0.2438 -0.3701
49815SOL     OW56559   5.159  11.049   9.097 -0.3280  0.0304 -0.2752
49815SOL    HW156560   5.180  10.956   9.102 -0.9675 -0.1188 -0.3255
49815SOL    HW256561   5.229  11.086   9.043  0.3716 -0.2780  0.4057
49816SOL     OW56562   4.797  11.153   8.405  0.1201 -0.0655 -0.0338
49816SOL    HW156563   4.886  11.185   8.397  0.2757 -0.3283  0.6485
49816SOL    HW256564   4.758  11.204   8.476  0.1035 -0.7909  0.4812
49817SOL     OW56565   9.414   2.643   8.190 -0.3579 -0.0522  0.6350
49817SOL    HW156566   9.401   2.549   8.177 -4.4524  0.2060  1.6943
49817SOL    HW256567   9.488   2.665   8.132 -1.0386 -3.4029 -1.8090
49818SOL     OW56568  12.461   1.191   7.446 -0.4011 -0.2175 -0.0501
49818SOL    HW156569  12.417   1.152   7.371 -1.9323  1.4446 -0.0641
49818SOL    HW256570  12.544   1.142   7.453  0.1700  0.0795 -3.2752
49819SOL     OW56571   3.148  10.082   9.285 -0.0174  0.2030 -0.1075
49819SOL    HW156572   3.077  10.031   9.323  1.7210 -1.4301  1.1617
49819SOL    HW256573   3.164  10.042   9.200 -1.3665  1.3654 -0.9442
49820SOL     OW56574  10.059   7.772   2.371 -0.4721 -0.0354  0.1890
49820SOL    HW156575  10.074   7.708   2.302 -0.1380 -0.5097  0.6885
49820SOL    HW256576  10.051   7.856   2.326 -2.9989 -0.6635 -0.6792
49821SOL     OW56577   3.768   6.221  12.236  0.4979  0.1080 -0.2613
49821SOL    HW156578   3.678   6.246  12.258  0.2792 -1.3981  0.7395
49821SOL    HW256579   3.813   6.217  12.321  1.1484 -0.4777 -0.6207
49822SOL     OW56580   7.779   8.329   9.674  0.1460  0.5336  0.0022
49822SOL    HW156581   7.701   8.384   9.669 -0.5678 -0.3005  1.5020
49822SOL    HW256582   7.825   8.359   9.752 -0.5570 -1.3438  1.1868
49823SOL     OW56583   8.597   6.570  10.479 -0.4060  0.3680 -0.3045
49823SOL    HW156584   8.547   6.610  10.408 -1.9254  1.3039  1.2156
49823SOL    HW256585   8.629   6.644  10.531 -0.3610 -0.3122  0.6611
49824SOL     OW56586   6.418   4.462  12.634  0.6312  0.4954  0.1702
49824SOL    HW156587   6.428   4.377  12.590  1.6074  0.2334  0.8527
49824SOL    HW256588   6.355   4.510  12.580 -2.0293 -1.6287  1.2006
49825SOL     OW56589   2.531   6.936   3.708 -0.2902 -0.1711  0.2085
49825SOL    HW156590   2.565   6.863   3.760  0.9191 -0.4117 -0.8782
49825SOL    HW256591   2.540   7.012   3.765  0.2877 -0.5514  0.6387
49826SOL     OW56592   0.452   6.468   6.241  0.3290 -0.3671 -0.0676
49826SOL    HW156593   0.453   6.557   6.204  0.8950 -0.8048 -1.1350
49826SOL    HW256594   0.544   6.441   6.241  0.2972 -0.5572  1.2784
49827SOL     OW56595  10.693  10.890   6.462 -0.0540  0.5561 -0.2111
49827SOL    HW156596  10.763  10.829   6.437 -0.5447 -1.0190  1.9451
49827SOL    HW256597  10.612  10.845   6.438 -0.4141  0.4620  1.1285
49828SOL     OW56598   0.968   0.211  12.019  0.5455 -0.2122  0.5087
49828SOL    HW156599   1.019   0.193  11.940  1.8024 -1.2695  1.5111
49828SOL    HW256600   1.009   0.289  12.057 -1.4065  1.6378 -0.9289
49829SOL     OW56601  11.129  11.628  10.172  0.1524 -0.3255  0.0003
49829SOL    HW156602  11.220  11.637  10.144 -0.0245  0.2476 -0.3974
49829SOL    HW256603  11.130  11.653  10.265  0.5609 -1.2694  0.2630
49830SOL     OW56604   6.311  11.902   8.407 -0.1838  0.2283 -0.7071
49830SOL    HW156605   6.364  11.932   8.334  0.2342 -0.1504 -0.5684
49830SOL    HW256606   6.324  11.807   8.408  0.3302  0.2892  0.2323
49831SOL     OW56607   3.972   9.274   9.379  0.1440 -0.2812  0.2657
49831SOL    HW156608   3.996   9.340   9.444 -1.4454  0.6720 -0.0412
49831SOL    HW256609   4.049   9.218   9.372  1.2684  1.0713  1.1172
49832SOL     OW56610  12.523   4.065   7.085  0.6482 -0.3180 -0.4059
49832SOL    HW156611  12.507   4.001   7.015  0.5158  0.8392 -1.4588
49832SOL    HW256612  12.436   4.092   7.113  0.6819  1.1866 -1.6588
49833SOL     OW56613   4.270   6.161  11.929 -0.3017  0.5230  0.1514
49833SOL    HW156614   4.290   6.098  11.998  2.9616  1.9998  0.7540
49833SOL    HW256615   4.192   6.126  11.886 -0.1650 -2.4979  2.0782
49834SOL     OW56616   1.988   5.266   6.208  0.0607  0.2975 -0.1037
49834SOL    HW156617   2.004   5.185   6.160  0.8219  0.1349  0.4005
49834SOL    HW256618   1.918   5.310   6.159  0.1642 -0.3035 -0.8107
49835SOL     OW56619   6.231   2.501   0.636  0.1398 -0.2684  0.2445
49835SOL    HW156620   6.229   2.597   0.630  1.2833 -0.1184  1.6517
49835SOL    HW256621   6.282   2.474   0.559 -2.1807  0.0126 -1.5144
49836SOL     OW56622   2.847   3.581   6.221 -0.3009  0.0882  0.4179
49836SOL    HW156623   2.759   3.602   6.189  0.3456  0.8024 -0.9573
49836SOL    HW256624   2.897   3.560   6.143  1.0195  0.6897  1.0674
49837SOL     OW56625  11.060   4.102   0.843 -0.2539 -0.0377 -0.2093
49837SOL    HW156626  11.105   4.146   0.770  0.2929 -0.0103  0.1389
49837SOL    HW256627  11.054   4.010   0.815 -2.8781  0.4605 -1.6824
49838SOL     OW56628  12.643   3.787   0.144  0.3211  0.1759 -0.2056
49838SOL    HW156629  12.608   3.853   0.085 -0.4028 -0.2367 -0.2503
49838SOL    HW256630  12.567   3.734   0.168  0.4257  0.8227  1.7299
49839SOL     OW56631   5.813   5.191  11.898  0.4886  0.0768  0.1163
49839SOL    HW156632   5.860   5.145  11.967  2.7537 -0.2048 -1.5040
49839SOL    HW256633   5.865   5.175  11.819 -0.4125  2.7382 -1.1276
49840SOL     OW56634   6.672   7.477   8.815  0.0538  0.1714  0.3050
49840SOL    HW156635   6.598   7.498   8.872  0.7999  1.4721  0.8375
49840SOL    HW256636   6.748   7.479   8.873  0.8121  1.3488 -0.6736
49841SOL     OW56637  12.185   6.421   9.695 -0.4925  0.1336 -0.0384
49841SOL    HW156638  12.214   6.342   9.649 -2.7438 -1.5262  1.1996
49841SOL    HW256639  12.093   6.430   9.671 -0.6260  1.5896  0.9318
49842SOL     OW56640  12.341  11.776   6.770  0.6140  0.2097 -0.1126
49842SOL    HW156641  12.392  11.737   6.841 -0.5398 -0.5630  0.3401
49842SOL    HW256642  12.400  11.778   6.695  0.7587 -2.4615 -0.1613
49843SOL     OW56643  11.273   7.274  11.102  0.5007  0.0040 -0.2668
49843SOL    HW156644  11.245   7.354  11.057  0.2471  0.8458  1.3091
49843SOL    HW256645  11.341   7.238  11.045  0.7213  1.4221 -0.9605
49844SOL     OW56646   7.495  10.580   0.575  0.0607  0.0349 -0.3706
49844SOL    HW156647   7.412  10.610   0.539  1.0287  3.2476 -0.2268
49844SOL    HW256648   7.540  10.540   0.501 -0.7904  0.1586 -0.9739
49845SOL     OW56649   0.564   1.038   8.037  0.0841 -0.2294  0.6327
49845SOL    HW156650   0.473   1.065   8.025 -0.7312 -1.9708  2.2301
49845SOL    HW256651   0.603   1.107   8.091 -0.7157 -0.1634  1.1403
49846SOL     OW56652   9.029  10.516   3.774 -0.4237  0.4569 -0.1564
49846SOL    HW156653   9.034  10.604   3.812  1.0560  0.6514 -0.7599
49846SOL    HW256654   9.118  10.498   3.743 -1.2204 -0.3136 -2.1425
49847SOL     OW56655  10.448   8.730   4.380  0.1939 -0.3415 -0.3197
49847SOL    HW156656  10.496   8.709   4.460 -2.6619 -1.6234  1.2162
49847SOL    HW256657  10.441   8.646   4.333 -0.8800 -0.2905 -0.2781
49848SOL     OW56658   1.911   2.783   0.671  0.0721 -0.2431  0.1640
49848SOL    HW156659   1.900   2.693   0.699  0.4398 -0.7089 -1.0932
49848SOL    HW256660   1.830   2.804   0.623  0.3569 -0.2255 -0.3214
49849SOL     OW56661   9.827   3.489   1.687  0.4626 -0.7890  0.4814
49849SOL    HW156662   9.872   3.563   1.727  3.1651 -1.3796 -1.2316
49849SOL    HW256663   9.868   3.412   1.725 -1.1981 -1.4453  1.0393
49850SOL     OW56664   9.996   0.476   3.876  0.3804 -0.0634 -0.3654
49850SOL    HW156665  10.042   0.460   3.794 -0.3188 -0.9862 -0.5925
49850SOL    HW256666   9.981   0.389   3.913  1.4349  0.3689  1.1778
49851SOL     OW56667   4.045   7.842   8.494  0.1878  0.2828 -0.2026
49851SOL    HW156668   3.982   7.785   8.449 -0.5970  1.2450 -0.3476
49851SOL    HW256669   4.131   7.806   8.469 -0.2589 -2.0332  1.2823
49852SOL     OW56670   5.375   5.273   4.271  0.4008  0.4028  0.1138
49852SOL    HW156671   5.398   5.184   4.247  3.1898  0.6412  1.4887
49852SOL    HW256672   5.321   5.264   4.350 -1.0648 -0.0655 -0.8997
49853SOL     OW56673  12.581  11.855   8.939  0.5857 -0.4859 -0.2036
49853SOL    HW156674  12.534  11.933   8.968  0.3879 -0.9439  0.7414
49853SOL    HW256675  12.516  11.804   8.890 -0.2602 -1.6053  1.9518
49854SOL     OW56676   1.709   7.681  11.758  0.3376  0.0740 -0.0598
49854SOL    HW156677   1.681   7.593  11.734 -0.9622  0.3494  0.3737
49854SOL    HW256678   1.805   7.679  11.752  0.2325 -0.7953 -1.9691
49855SOL     OW56679   0.702   8.583   3.921 -0.0829  0.1349 -0.3442
49855SOL    HW156680   0.687   8.494   3.954 -2.5656  0.8521  0.6790
49855SOL    HW256681   0.728   8.633   3.999 -0.3085  0.6377 -0.5854
49856SOL     OW56682   0.109  10.423   5.203 -0.1805 -0.2735  0.2048
49856SOL    HW156683   0.164  10.488   5.160 -1.9980  1.4622  0.3089
49856SOL    HW256684   0.060  10.381   5.132  0.3534 -0.9095  0.2090
49857SOL     OW56685   8.110   1.207  11.371  0.3346  0.0288 -0.0705
49857SOL    HW156686   8.173   1.148  11.330 -0.0691 -0.5005  0.0683
49857SOL    HW256687   8.149   1.294  11.362  0.7385 -0.2108 -0.6335
49858SOL     OW56688  12.401  11.639  12.879 -0.2327  0.3123 -0.4265
49858SOL    HW156689  12.305  11.636  12.880 -0.2529 -1.2682 -2.0816
49858SOL    HW256690  12.427  11.577  12.948 -0.4324 -0.6140 -1.1687
49859SOL     OW56691   1.102  12.102   1.744  0.2901 -0.0519 -0.4834
49859SOL    HW156692   1.085  12.066   1.657 -0.0307 -2.1766  0.4128
49859SOL    HW256693   1.043  12.177   1.751 -0.6871 -0.6926 -1.5688
49860SOL     OW56694   9.890   2.329   2.702  0.4953 -0.4831  0.4020
49860SOL    HW156695   9.847   2.269   2.640  0.9226  0.6324 -1.0395
49860SOL    HW256696   9.822   2.354   2.763 -0.3092 -0.5819 -0.4285
49861SOL     OW56697   9.025   8.101   3.054 -0.3248 -0.0427 -0.1579
49861SOL    HW156698   8.945   8.105   3.107 -0.5760  1.3651 -0.6156
49861SOL    HW256699   9.077   8.176   3.082 -0.0880  0.2457 -1.2952
49862SOL     OW56700   0.087  12.209  12.177 -0.1561  0.5811 -0.2894
49862SOL    HW156701   0.036  12.223  12.098 -2.0487 -0.7892  0.6006
49862SOL    HW256702   0.110  12.116  12.175  0.1428  0.6254  0.5496
49863SOL     OW56703  10.834   8.165   5.894 -0.5764 -0.6475  0.3794
49863SOL    HW156704  10.783   8.121   5.962  0.0089  0.6631  1.7003
49863SOL    HW256705  10.844   8.255   5.925  2.0637 -0.7038 -0.0706
49864SOL     OW56706   0.556   1.388   3.361 -0.1304  0.0671 -0.1082
49864SOL    HW156707   0.598   1.465   3.323 -1.0147  0.3204 -0.5834
49864SOL    HW256708   0.486   1.366   3.300  0.0970 -1.1113  0.0223
49865SOL     OW56709   6.902   4.679   4.244 -0.0488 -0.2039 -0.2985
49865SOL    HW156710   6.996   4.673   4.259  0.0242 -0.1935 -0.7342
49865SOL    HW256711   6.880   4.770   4.264  0.0214 -0.2216 -0.1391
49866SOL     OW56712   9.023   4.746   7.096  0.0915 -0.2057 -0.2563
49866SOL    HW156713   8.996   4.771   7.184 -0.2883 -0.1829 -0.3780
49866SOL    HW256714   9.102   4.693   7.110 -0.0640 -0.3501  0.1097
49867SOL     OW56715   7.038   2.343  12.141 -0.4934  0.1476  0.5060
49867SOL    HW156716   7.029   2.307  12.053 -0.6636 -0.4694  0.7724
49867SOL    HW256717   6.957   2.393  12.154 -0.1723  0.7902  0.0644
49868SOL     OW56718  12.088   1.203  11.067  0.5462  0.0108 -0.2434
49868SOL    HW156719  12.020   1.140  11.040  0.0684  0.5895 -0.4210
49868SOL    HW256720  12.039   1.284  11.084  1.2514  0.5569 -0.7901
49869SOL     OW56721   6.291   2.053   7.960  0.7668 -0.1399 -0.4449
49869SOL    HW156722   6.282   2.134   7.910  1.0878 -0.5939 -1.2573
49869SOL    HW256723   6.209   2.006   7.943 -0.6594  1.1554  2.2080
49870SOL     OW56724   4.319   1.089   6.972 -0.0356 -0.1319 -0.0792
49870SOL    HW156725   4.232   1.058   6.951 -0.2442 -1.2987  2.1418
49870SOL    HW256726   4.374   1.010   6.970  0.4608  0.1723  0.7866
49871SOL     OW56727   5.504   3.524   6.050  0.0444  0.8346  0.0658
49871SOL    HW156728   5.573   3.590   6.058  0.1566  0.8656 -0.9799
49871SOL    HW256729   5.499   3.506   5.956  1.1034 -1.7617  0.3988
49872SOL     OW56730   7.871   1.417   1.344  0.1606 -0.3468  0.1066
49872SOL    HW156731   7.937   1.402   1.413  0.0237  0.6773  0.4793
49872SOL    HW256732   7.794   1.449   1.392 -0.5071 -1.2185 -0.3609
49873SOL     OW56733   8.039   5.661  12.145  0.0289  0.7616 -0.0847
49873SOL    HW156734   8.014   5.753  12.149 -0.6702  0.5716 -0.0013
49873SOL    HW256735   7.988   5.625  12.072 -0.5501  0.1908  0.5829
49874SOL     OW56736   0.880   0.143   1.979  0.9458  0.0010  0.4465
49874SOL    HW156737   0.785   0.150   1.973  0.5460 -2.6340  2.1525
49874SOL    HW256738   0.908   0.126   1.889 -0.4002 -0.8673  0.1613
49875SOL     OW56739  11.400  11.725   0.443  0.1544 -0.0914 -0.0928
49875SOL    HW156740  11.341  11.725   0.519 -2.0951 -1.2584 -1.7258
49875SOL    HW256741  11.393  11.636   0.409  2.3080 -0.0236 -0.8283
49876SOL     OW56742  11.903   6.016   8.325  0.1602  0.3489 -0.0358
49876SOL    HW156743  11.925   6.000   8.233  0.3575  0.2000  0.0356
49876SOL    HW256744  11.987   6.023   8.369  0.0659  0.5410  0.1135
49877SOL     OW56745   0.371   0.400   2.708  0.0696  0.8068 -1.1015
49877SOL    HW156746   0.296   0.381   2.764 -0.0440  0.7544 -1.2730
49877SOL    HW256747   0.447   0.375   2.761 -0.0549  0.4230 -1.1040
49878SOL     OW56748   2.156   1.188   2.324  0.3574 -0.0414 -0.2258
49878SOL    HW156749   2.183   1.101   2.295  0.7671  0.0879 -0.2368
49878SOL    HW256750   2.166   1.243   2.246 -0.6346 -0.1336 -0.4350
49879SOL     OW56751   6.854   2.755   6.256  0.5378 -0.6171 -0.3033
49879SOL    HW156752   6.899   2.747   6.341 -0.2196  1.5225  0.3691
49879SOL    HW256753   6.868   2.671   6.214  0.8856 -1.7951  1.9797
49880SOL     OW56754  11.526  12.739   7.112 -0.0590  0.3032 -0.4425
49880SOL    HW156755  11.519  12.663   7.171  1.2290  0.2580 -0.3196
49880SOL    HW256756  11.454  12.728   7.051 -1.2146  0.1459  0.8936
49881SOL     OW56757   0.886   8.258   1.240 -0.1422 -0.1593 -0.1839
49881SOL    HW156758   0.857   8.206   1.165 -1.6657 -0.7486  0.7672
49881SOL    HW256759   0.817   8.323   1.252 -0.3923 -0.6711  1.2697
49882SOL     OW56760   6.474   2.761   9.737  0.5662  0.4308  0.2606
49882SOL    HW156761   6.406   2.727   9.677  1.3501 -0.4097 -0.1726
49882SOL    HW256762   6.451   2.853   9.748 -0.3586  0.2878 -0.2837
49883SOL     OW56763   1.593   1.618   4.766  0.1455 -0.6477  0.1745
49883SOL    HW156764   1.507   1.578   4.752 -0.7535  1.5509 -1.0675
49883SOL    HW256765   1.635   1.613   4.680  0.5394 -0.1017  0.3313
49884SOL     OW56766   1.962   5.778   3.149  0.1387 -0.2450 -0.3734
49884SOL    HW156767   1.921   5.824   3.076  0.3390 -0.3460 -0.5495
49884SOL    HW256768   2.055   5.801   3.143  0.1450 -0.1994 -0.1120
49885SOL     OW56769   7.517  11.933   3.792  0.5149  0.1314 -0.3476
49885SOL    HW156770   7.478  11.862   3.843 -0.2395  0.8547  0.0983
49885SOL    HW256771   7.590  11.964   3.846  1.5444 -0.9929 -1.0288
49886SOL     OW56772  11.236   1.479  12.744  0.2604 -0.4885  0.7808
49886SOL    HW156773  11.204   1.389  12.742  0.1131 -0.4526 -1.4513
49886SOL    HW256774  11.200   1.516  12.825 -0.7373 -2.0520  1.0965
49887SOL     OW56775   9.207   2.530   7.701 -0.5736  0.4465  0.1274
49887SOL    HW156776   9.146   2.591   7.744 -1.6828 -1.2889  1.1725
49887SOL    HW256777   9.150   2.468   7.656  0.3875 -1.1677  1.0321
49888SOL     OW56778   4.488   9.886   0.545  0.1446 -0.1006 -0.1003
49888SOL    HW156779   4.404   9.840   0.552  0.7714 -1.1660  0.8244
49888SOL    HW256780   4.490   9.944   0.621  0.4583 -0.4390  0.1482
49889SOL     OW56781   6.410  10.863   9.193  0.3415 -0.1639 -0.3439
49889SOL    HW156782   6.332  10.813   9.165  0.1270 -0.6629  1.0422
49889SOL    HW256783   6.450  10.893   9.112  0.3200 -2.3888 -1.2500
49890SOL     OW56784   5.772   5.110   8.056  0.6934  0.0994  0.1855
49890SOL    HW156785   5.706   5.179   8.064 -0.8233 -1.1413 -0.8869
49890SOL    HW256786   5.724   5.035   8.020  2.0901 -1.7803  1.9837
49891SOL     OW56787   5.372   8.920  12.244 -0.2354 -0.1072  0.2340
49891SOL    HW156788   5.419   8.991  12.288  0.2950  0.0925 -0.6366
49891SOL    HW256789   5.341   8.864  12.316 -2.1474  1.8769  1.0763
49892SOL     OW56790   3.988   0.200   4.591 -0.1350  0.7289  0.7254
49892SOL    HW156791   3.996   0.210   4.496  0.1096 -0.8215  0.5454
49892SOL    HW256792   4.078   0.193   4.622 -0.2021  1.5596  1.1267
49893SOL     OW56793   3.399   3.373   8.114  0.6895  0.2284 -0.7966
49893SOL    HW156794   3.488   3.408   8.115  0.8916 -0.2828 -0.7944
49893SOL    HW256795   3.358   3.415   8.038  1.1418 -0.0435 -1.2016
49894SOL     OW56796   6.012   5.610   5.417 -0.4490  0.4368 -0.2930
49894SOL    HW156797   6.036   5.646   5.503  0.7495  1.0477 -0.8531
49894SOL    HW256798   6.045   5.520   5.419 -1.7951 -0.0826  0.4212
49895SOL     OW56799   1.731   9.335   3.182 -0.3464  0.3147  0.4319
49895SOL    HW156800   1.817   9.374   3.171  0.0779 -1.0644 -1.7659
49895SOL    HW256801   1.670   9.409   3.185  0.7756  1.2453  0.7174
49896SOL     OW56802  10.586   1.440   1.604 -0.2900 -0.0188 -0.1439
49896SOL    HW156803  10.605   1.353   1.638 -0.5489 -0.4900 -1.1498
49896SOL    HW256804  10.626   1.500   1.667 -0.2446 -0.8581  0.6431
49897SOL     OW56805   1.703   3.874   0.077 -0.0596 -0.1388 -0.1482
49897SOL    HW156806   1.750   3.911   0.152 -2.3816  0.4078  1.1279
49897SOL    HW256807   1.611   3.893   0.095 -0.6642  0.7527 -3.5726
49898SOL     OW56808  11.876  12.001   7.782 -0.6202  0.2007  0.3649
49898SOL    HW156809  11.810  11.961   7.839  0.3302 -1.7178  0.2057
49898SOL    HW256810  11.889  11.936   7.713  1.8104  0.2671  0.6885
49899SOL     OW56811   3.752   5.038   6.318  0.7027  0.6437  0.0181
49899SOL    HW156812   3.713   5.115   6.358  1.7961  1.3578 -0.2581
49899SOL    HW256813   3.702   5.025   6.237 -0.7596 -0.1263  0.9970
49900SOL     OW56814   8.665   2.046   2.855 -0.5985 -0.4875  0.0084
49900SOL    HW156815   8.700   2.123   2.899  1.4055 -2.6140  2.5688
49900SOL    HW256816   8.718   2.037   2.776 -1.4213  1.1172 -0.7772
49901SOL     OW56817   4.074  12.761   6.428  0.2744  0.1123  0.3284
49901SOL    HW156818   4.037  12.700   6.364  2.0716 -0.3627 -0.3224
49901SOL    HW256819   4.115  12.830   6.376 -0.5036  1.1600  1.0410
49902SOL     OW56820   6.821   5.756  11.103 -0.7669 -0.1686 -0.3234
49902SOL    HW156821   6.840   5.847  11.125 -1.0416 -0.2243  0.1606
49902SOL    HW256822   6.898   5.727  11.054 -0.7586  0.3757 -0.6506
49903SOL     OW56823   6.712  12.266   8.944 -0.0842 -0.4301  0.5731
49903SOL    HW156824   6.712  12.341   9.004 -0.0816 -0.6247  0.8158
49903SOL    HW256825   6.785  12.212   8.973  1.2978  0.5379 -0.9405
49904SOL     OW56826   2.018  11.047   6.937  0.5775 -0.2647 -0.0195
49904SOL    HW156827   2.021  10.998   7.019 -0.3354  1.7107  1.2783
49904SOL    HW256828   2.103  11.089   6.932  0.2535  0.4844  0.5227
49905SOL     OW56829  12.273   3.301  12.452  0.2903  0.2568  0.2028
49905SOL    HW156830  12.216   3.227  12.474 -0.0761 -0.1192 -1.8080
49905SOL    HW256831  12.317   3.274  12.371  0.8643  1.8679 -0.0641
49906SOL     OW56832   4.489   0.479   5.335 -0.0078  0.5284  0.0219
49906SOL    HW156833   4.530   0.457   5.251 -0.8843  1.3457 -0.6553
49906SOL    HW256834   4.562   0.497   5.394  0.7065 -2.2112  0.1040
49907SOL     OW56835  10.565   6.104   5.744  0.1477  0.1653  0.4871
49907SOL    HW156836  10.603   6.036   5.688 -0.0608 -0.3941  1.0164
49907SOL    HW256837  10.639   6.134   5.798  0.9105  2.3115 -1.5932
49908SOL     OW56838   2.015  10.254   8.783 -0.0531  0.1241  0.0807
49908SOL    HW156839   2.078  10.214   8.842 -1.7533 -1.2670  1.0620
49908SOL    HW256840   2.014  10.198   8.706 -1.7130 -1.2644  1.0427
49909SOL     OW56841   9.115   6.557  11.743  0.1733 -0.3089 -0.0513
49909SOL    HW156842   9.060   6.496  11.792 -0.4597 -1.1610 -1.7537
49909SOL    HW256843   9.056   6.627  11.716 -0.1343 -1.2048 -1.8460
49910SOL     OW56844   6.424   2.847  11.714 -0.2428  0.6843 -0.2660
49910SOL    HW156845   6.516   2.824  11.710 -0.8171 -2.0753  0.5558
49910SOL    HW256846   6.408   2.893  11.631  1.7072  0.6458 -0.7147
49911SOL     OW56847   5.524   7.922  12.760  0.2935 -0.1712 -0.1008
49911SOL    HW156848   5.618   7.907  12.753  0.3134  0.2600 -0.8397
49911SOL    HW256849   5.514   8.016  12.742 -0.2904 -0.2457 -0.1643
49912SOL     OW56850  12.287  10.756   0.761 -0.1650 -0.0938  0.2418
49912SOL    HW156851  12.279  10.707   0.679 -0.3208 -0.1152  0.2681
49912SOL    HW256852  12.221  10.825   0.754 -0.3716 -0.2666  0.4679
49913SOL     OW56853   6.376   9.724  10.142  0.2844 -0.7075  0.5036
49913SOL    HW156854   6.362   9.793  10.207 -1.9701  0.3829 -1.0209
49913SOL    HW256855   6.458   9.746  10.100 -0.2973  0.9771  0.1759
49914SOL     OW56856   6.214  10.347   9.508  0.2689  0.3952 -0.0727
49914SOL    HW156857   6.141  10.406   9.488  0.1072  0.1356 -0.2691
49914SOL    HW256858   6.216  10.286   9.434  0.3304  0.0596  0.2030
49915SOL     OW56859   5.309   8.686   2.640  0.2080 -0.7166 -0.4044
49915SOL    HW156860   5.400   8.679   2.670  0.5464 -0.5007 -1.3483
49915SOL    HW256861   5.275   8.763   2.685  0.6440 -0.5073 -0.4304
49916SOL     OW56862   7.101   7.832   0.862  0.7032  0.0612  0.2562
49916SOL    HW156863   7.067   7.858   0.947 -0.8404 -0.7351 -0.0884
49916SOL    HW256864   7.157   7.757   0.880 -0.5856 -0.8825  0.4660
49917SOL     OW56865   9.264   6.982   0.872 -0.1766  0.2895  0.0542
49917SOL    HW156866   9.314   7.051   0.828  0.9901 -1.1176 -0.9091
49917SOL    HW256867   9.287   6.992   0.965 -0.7892  1.7756  0.0833
49918SOL     OW56868  11.300  12.679   0.426 -0.0402  1.5527  0.6379
49918SOL    HW156869  11.355  12.672   0.504 -0.0871  0.9638  0.6231
49918SOL    HW256870  11.353  12.730   0.364 -0.0559  2.1400  1.0912
49919SOL     OW56871  10.612  10.014   7.575 -0.4322 -0.0373  0.0190
49919SOL    HW156872  10.610  10.093   7.629  0.1436 -0.0602  0.0813
49919SOL    HW256873  10.682  10.031   7.511 -1.5746  0.2830 -1.1725
49920SOL     OW56874  12.724   5.347   8.216  0.0190  0.0070  0.1594
49920SOL    HW156875  12.653   5.318   8.273 -0.0560  0.2259  0.1790
49920SOL    HW256876  12.712   5.442   8.209 -0.6435 -0.1440 -1.1174
49921SOL     OW56877   3.916   5.408   5.174  0.4313  0.3970 -0.1897
49921SOL    HW156878   3.834   5.457   5.171 -0.7892 -1.5845 -0.6847
49921SOL    HW256879   3.894   5.320   5.142  2.5665 -0.4470  0.4422
49922SOL     OW56880   2.388   3.204   7.515 -0.0421 -0.2540  0.3879
49922SOL    HW156881   2.296   3.192   7.537 -0.0223 -0.1815  0.5145
49922SOL    HW256882   2.420   3.117   7.492  0.1002 -0.4547  1.2893
49923SOL     OW56883   7.061  11.570  10.639 -0.6767 -0.4482 -0.3656
49923SOL    HW156884   7.019  11.559  10.724 -0.3675 -1.1251 -0.2996
49923SOL    HW256885   7.154  11.554  10.655 -0.4006  0.8328 -0.5526
49924SOL     OW56886   3.208   2.609   0.580  0.4899 -0.1531 -0.6751
49924SOL    HW156887   3.260   2.611   0.660  0.2040 -1.3094 -0.4406
49924SOL    HW256888   3.257   2.550   0.521 -0.0764 -0.5086 -0.7925
49925SOL     OW56889   9.429   8.669   0.354 -0.5821 -0.0251  0.7751
49925SOL    HW156890   9.417   8.599   0.419  0.5359 -1.1846 -0.2052
49925SOL    HW256891   9.519   8.697   0.364 -0.6542  0.3922  0.3168
49926SOL     OW56892   2.542   0.001   2.421 -0.0388  0.0298 -0.4972
49926SOL    HW156893   2.454  -0.018   2.452 -1.1882  0.9653 -2.9370
49926SOL    HW256894   2.541   0.095   2.401  0.7686 -0.3275 -2.5481
49927SOL     OW56895  10.075  10.779   1.753 -0.5358  0.0331  0.4732
49927SOL    HW156896  10.065  10.688   1.782  0.4984  0.5935  2.8086
49927SOL    HW256897  10.078  10.830   1.834 -0.7754  2.1392 -0.7684
49928SOL     OW56898   2.686   9.584   0.047  0.3411 -0.1283 -0.1554
49928SOL    HW156899   2.640   9.505   0.019 -1.4829  1.6803 -2.8207
49928SOL    HW256900   2.616   9.646   0.069  1.4885  1.8056 -1.5267
49929SOL     OW56901   1.428  12.286   6.546  0.0872  0.1793 -0.5023
49929SOL    HW156902   1.495  12.220   6.561  0.8739  0.5851 -1.9688
49929SOL    HW256903   1.359  12.266   6.608  1.1104 -0.8988  0.3247
49930SOL     OW56904  11.138   6.502   5.706  0.5967  0.0885 -0.0754
49930SOL    HW156905  11.103   6.452   5.633  0.6419 -1.4388  0.9206
49930SOL    HW256906  11.062   6.545   5.745  0.7016  1.8405 -1.6323
49931SOL     OW56907   1.439  10.140   0.548 -1.0633 -0.1438 -0.2753
49931SOL    HW156908   1.378  10.071   0.520 -0.6574 -0.8656  0.5966
49931SOL    HW256909   1.408  10.218   0.502 -1.7992 -0.8007 -0.9383
49932SOL     OW56910   8.843  10.627   5.931  0.5710 -0.0195  0.3275
49932SOL    HW156911   8.901  10.621   6.008  1.5008 -1.1244 -0.4309
49932SOL    HW256912   8.772  10.566   5.951  0.8446 -0.3550  0.2955
49933SOL     OW56913   0.961   1.909   9.556 -0.0219  0.1237  0.0109
49933SOL    HW156914   0.995   1.910   9.467  0.3621 -1.4571  0.1009
49933SOL    HW256915   0.888   1.970   9.555  1.2463  1.7063 -0.8382
49934SOL     OW56916   2.189   0.534   2.500  0.1311  0.0100  0.1439
49934SOL    HW156917   2.281   0.514   2.516  0.2041 -0.3493 -0.6739
49934SOL    HW256918   2.160   0.581   2.579  1.3778  1.4144 -0.1970
49935SOL     OW56919   4.483   9.973   6.338  0.2002  0.6766  0.5965
49935SOL    HW156920   4.573   9.946   6.318  0.2168  1.1789 -0.0314
49935SOL    HW256921   4.477  10.062   6.304 -0.6365  0.5337  0.3577
49936SOL     OW56922  10.592   9.834   7.114 -0.9991 -0.2965  0.3449
49936SOL    HW156923  10.611   9.748   7.074 -1.3731 -0.5157  0.6387
49936SOL    HW256924  10.636   9.831   7.199 -2.4805 -0.8826  1.1164
49937SOL     OW56925  11.757   4.089   9.464 -0.0054 -0.1291 -0.2135
49937SOL    HW156926  11.831   4.058   9.516  0.6888  0.7794 -0.6141
49937SOL    HW256927  11.752   4.028   9.390 -1.3579 -1.7615  1.1498
49938SOL     OW56928  10.130  10.818   3.636  0.0933 -0.4104  0.5319
49938SOL    HW156929  10.134  10.744   3.696 -2.1952  0.2761  1.6545
49938SOL    HW256930  10.109  10.778   3.551  0.5056 -1.1698  0.7766
49939SOL     OW56931   9.575   0.340   6.252  0.1180 -0.4340  0.2769
49939SOL    HW156932   9.660   0.324   6.294 -1.1473 -2.8865  2.1068
49939SOL    HW256933   9.531   0.256   6.254 -1.3249  0.0602 -3.2787
49940SOL     OW56934   0.566   6.174   5.818  0.5917  0.0394 -0.0529
49940SOL    HW156935   0.620   6.235   5.768 -0.2648  0.5392 -0.3981
49940SOL    HW256936   0.628   6.111   5.855  1.4429  0.8057 -0.1308
49941SOL     OW56937   6.548  12.695   4.648 -0.1824 -0.0759  0.5950
49941SOL    HW156938   6.614  12.627   4.649  0.1780  0.2731  1.0314
49941SOL    HW256939   6.584  12.763   4.591 -1.1971 -0.8666 -1.0741
49942SOL     OW56940  10.732  10.341   3.301 -0.5497  0.2770  0.3059
49942SOL    HW156941  10.772  10.314   3.383 -1.2241 -1.2302  0.1848
49942SOL    HW256942  10.649  10.293   3.298 -0.5769  0.3527 -1.2128
49943SOL     OW56943   0.603   1.741   7.548 -0.2389 -0.7265 -0.4234
49943SOL    HW156944   0.606   1.837   7.550  2.4857 -0.7047 -1.1613
49943SOL    HW256945   0.565   1.720   7.462  2.0527 -0.1753 -1.6671
49944SOL     OW56946  10.948   6.626   8.184  0.1764  0.1449 -0.4159
49944SOL    HW156947  11.040   6.616   8.209  0.0868  0.1803 -0.0650
49944SOL    HW256948  10.936   6.720   8.175  1.0117  0.0566 -3.6926
49945SOL     OW56949  12.192   1.194   4.398 -0.5452  0.2103  0.0372
49945SOL    HW156950  12.103   1.223   4.414 -0.6822  0.1111 -0.5316
49945SOL    HW256951  12.223   1.249   4.327 -0.3191 -0.0882 -0.0993
49946SOL     OW56952   3.386   8.881   4.401  0.2324 -0.2643 -0.4554
49946SOL    HW156953   3.301   8.901   4.361 -0.2974  0.5253  0.9871
49946SOL    HW256954   3.449   8.891   4.330 -0.6948  0.8427 -1.1531
49947SOL     OW56955   0.450   8.829   6.567  0.2325 -0.2831 -0.0577
49947SOL    HW156956   0.518   8.896   6.558 -0.1979  0.2544  0.6727
49947SOL    HW256957   0.438   8.796   6.478  1.7616 -0.7049 -0.1382
49948SOL     OW56958   5.339   7.526  12.447 -0.3274 -0.5768 -0.5063
49948SOL    HW156959   5.310   7.454  12.503  0.0506 -0.5487 -0.2749
49948SOL    HW256960   5.353   7.599  12.508  0.3615 -0.6295 -0.5983
49949SOL     OW56961  10.698   8.399   5.612  0.2836 -0.4299 -0.1967
49949SOL    HW156962  10.737   8.314   5.590  0.2305 -0.1059 -1.7112
49949SOL    HW256963  10.727   8.417   5.701  0.4243 -1.9621  0.0870
49950SOL     OW56964   4.159   3.248   0.825  0.1523 -0.4317 -0.5903
49950SOL    HW156965   4.186   3.187   0.757 -0.4812  0.7826 -2.0036
49950SOL    HW256966   4.231   3.311   0.831  0.6108 -1.0546  0.5364
49951SOL     OW56967   2.514   4.519   8.708 -0.7501 -0.6139 -0.4418
49951SOL    HW156968   2.509   4.590   8.645 -2.8666 -0.8149 -0.5734
49951SOL    HW256969   2.449   4.455   8.678 -0.5804 -1.5001  0.9618
49952SOL     OW56970  10.974  12.116   9.623  0.1133 -0.4992 -0.1384
49952SOL    HW156971  10.956  12.029   9.587  1.4249 -1.2446  0.8959
49952SOL    HW256972  11.047  12.102   9.683  0.2249  1.2994  0.1994
49953SOL     OW56973   6.801   9.034   0.804 -0.0502  0.5449 -0.2972
49953SOL    HW156974   6.740   9.107   0.806 -1.6632 -0.7006 -0.8555
49953SOL    HW256975   6.843   9.040   0.718 -1.8499 -0.3833 -1.3176
49954SOL     OW56976   9.091   8.110   0.242  0.2438 -0.3084 -0.5562
49954SOL    HW156977   9.046   8.173   0.299  0.3038  1.0423 -1.9610
49954SOL    HW256978   9.137   8.163   0.178  0.6989 -1.7768 -1.4973
49955SOL     OW56979   4.827   5.838   8.613  0.1757 -0.1771 -0.0555
49955SOL    HW156980   4.734   5.815   8.621  0.3781 -0.6380  1.2174
49955SOL    HW256981   4.855   5.855   8.703  1.6349 -1.3380 -0.2514
49956SOL     OW56982   0.729  12.725   4.509  0.2951  0.0158  0.0199
49956SOL    HW156983   0.643  12.721   4.468 -0.8594  0.3617  2.2590
49956SOL    HW256984   0.750  12.633   4.530 -1.2521  0.1645  2.6649
49957SOL     OW56985   2.881   6.451   1.873 -0.1581  0.1341  0.2247
49957SOL    HW156986   2.976   6.449   1.888 -0.1053  0.8108  0.0209
49957SOL    HW256987   2.848   6.515   1.936 -0.0868  2.1228 -1.6275
49958SOL     OW56988   0.052   8.774  11.357  0.5262  0.1102  0.2117
49958SOL    HW156989   0.141   8.810  11.360  0.8315 -0.5934 -0.0435
49958SOL    HW256990   0.015   8.795  11.443  0.5520  1.3568 -0.0734
49959SOL     OW56991  12.144  12.180  10.243 -0.5611 -0.1529 -0.2005
49959SOL    HW156992  12.141  12.157  10.150 -0.6670  0.3329 -0.3210
49959SOL    HW256993  12.169  12.272  10.244 -0.0730 -0.2893  0.2753
49960SOL     OW56994   9.457   6.913   9.356 -0.2299  0.3014 -0.5125
49960SOL    HW156995   9.550   6.893   9.367 -0.6185 -1.3781  0.0566
49960SOL    HW256996   9.413   6.829   9.369 -1.6490  0.4067 -3.6028
49961SOL     OW56997   8.940  12.628   7.580  0.1382  0.7444  0.2625
49961SOL    HW156998   8.894  12.711   7.585  0.7906  1.0806  1.0206
49961SOL    HW256999   9.021  12.648   7.532  0.2297  0.5130  0.3170
49962SOL     OW57000   1.846  11.060   9.590 -0.1642  0.5913 -0.0250
49962SOL    HW157001   1.821  11.125   9.524 -2.6501 -0.4105 -0.1579
49962SOL    HW257002   1.828  11.102   9.674 -0.4203  0.5757 -0.0734
49963SOL     OW57003   8.553   3.592   1.791  0.0098 -0.6649 -0.0994
49963SOL    HW157004   8.533   3.505   1.758 -1.8864 -1.1879  2.1525
49963SOL    HW257005   8.556   3.648   1.713 -1.1574 -2.3125 -1.3811
49964SOL     OW57006   1.434   6.133   0.638  0.5919  0.5476  0.0431
49964SOL    HW157007   1.501   6.095   0.694  0.6096  1.1211  0.4165
49964SOL    HW257008   1.416   6.219   0.676 -0.7432  0.1906  0.2787
49965SOL     OW57009   5.723   6.126   1.698 -0.3052 -0.2661 -0.1759
49965SOL    HW157010   5.679   6.131   1.783  1.0731 -1.9671  0.7206
49965SOL    HW257011   5.676   6.056   1.652 -0.2258 -0.2548 -0.2725
49966SOL     OW57012   8.829   6.934   0.881  0.7315  0.6088  0.4629
49966SOL    HW157013   8.874   6.920   0.964  0.8446 -1.0255  0.1647
49966SOL    HW257014   8.747   6.886   0.889  0.2310  1.3654  0.0290
49967SOL     OW57015   7.731   0.103  11.580 -0.1200  0.0194  0.3136
49967SOL    HW157016   7.740   0.105  11.485  1.2978 -0.1490  0.4188
49967SOL    HW257017   7.726   0.194  11.607 -1.7721  0.0462  0.0002
49968SOL     OW57018  11.046   7.025  10.765  0.2543 -0.0986  0.6408
49968SOL    HW157019  10.970   6.982  10.726  1.4695 -1.6843 -0.0732
49968SOL    HW257020  11.019   7.117  10.774 -1.8914 -0.6752  0.8291
49969SOL     OW57021   9.493   6.885   3.271 -0.3694 -0.2647 -0.1232
49969SOL    HW157022   9.409   6.888   3.318  0.6236  0.4754  1.7343
49969SOL    HW257023   9.499   6.969   3.226  0.1902  0.5372  1.3620
49970SOL     OW57024   9.238  10.340  11.793  0.4510 -0.1612  0.0839
49970SOL    HW157025   9.186  10.402  11.743 -0.8804 -0.6654  0.8096
49970SOL    HW257026   9.296  10.394  11.846  1.4346  0.3931 -1.4850
49971SOL     OW57027   7.347   2.441   3.758 -0.0499 -0.4394 -0.1399
49971SOL    HW157028   7.369   2.467   3.668  0.9300  1.6606  0.6496
49971SOL    HW257029   7.252   2.436   3.758 -0.1104  0.2716 -1.1336
49972SOL     OW57030  12.119  12.265   1.717 -0.4404  0.6718 -0.5758
49972SOL    HW157031  12.166  12.201   1.770 -1.0766  0.7424  0.0896
49972SOL    HW257032  12.117  12.228   1.629 -0.0380  0.1934 -0.3839
49973SOL     OW57033   6.716   7.038   4.457 -0.3326  0.4263  0.2224
49973SOL    HW157034   6.703   7.067   4.547 -2.9676  1.8061 -0.5045
49973SOL    HW257035   6.751   7.114   4.412 -0.1816  0.1259 -0.1735
49974SOL     OW57036  10.058   7.430   7.388  0.2531  0.2577 -0.0008
49974SOL    HW157037  10.001   7.409   7.462  0.0777 -0.7657 -0.4060
49974SOL    HW257038  10.144   7.395   7.413  0.1265 -0.3439 -0.3892
49975SOL     OW57039  11.577   4.818  10.597  0.3989  0.2182 -0.5539
49975SOL    HW157040  11.576   4.913  10.583  1.5766  0.2017 -0.9033
49975SOL    HW257041  11.506   4.785  10.542  0.7017  0.8076 -1.3253
49976SOL     OW57042   7.587   9.564   1.291  0.1342  0.2933  0.2907
49976SOL    HW157043   7.551   9.613   1.217 -2.8968  1.8925  2.5930
49976SOL    HW257044   7.651   9.624   1.330 -0.9948  1.0147  1.0717
49977SOL     OW57045   1.915   3.969   2.351  0.3072 -0.7879 -0.1286
49977SOL    HW157046   2.008   3.949   2.355  0.7237  1.0837  0.8888
49977SOL    HW257047   1.911   4.056   2.310 -0.9439 -0.6306  0.2738
49978SOL     OW57048   5.618   0.915   4.321  0.2570  0.0342  0.2435
49978SOL    HW157049   5.527   0.892   4.343  0.3937 -0.1956  0.5628
49978SOL    HW257050   5.634   0.995   4.370  0.8429 -0.9346  1.6808
49979SOL     OW57051  10.030   5.755   5.493  0.2039 -0.2473 -0.3068
49979SOL    HW157052  10.096   5.722   5.553  0.3979 -0.1904 -0.4845
49979SOL    HW257053   9.999   5.678   5.446  0.0273 -0.2964 -0.1089
49980SOL     OW57054  12.420   9.213  12.493 -0.5524  0.1784  0.2523
49980SOL    HW157055  12.499   9.266  12.503  0.0365 -0.4665 -0.8249
49980SOL    HW257056  12.413   9.166  12.576 -1.1424  1.9558  1.2806
49981SOL     OW57057   6.849   4.118   7.536 -0.0047  0.4517 -0.0385
49981SOL    HW157058   6.775   4.077   7.581  0.2817  1.0322  1.0171
49981SOL    HW257059   6.879   4.053   7.473 -0.5850 -0.2987  0.4473
49982SOL     OW57060   1.235  11.862   4.019 -0.0952  0.0400 -0.1305
49982SOL    HW157061   1.199  11.854   4.107  3.0486 -1.0368  1.1855
49982SOL    HW257062   1.208  11.782   3.975  0.8738 -0.8900  0.9155
49983SOL     OW57063  10.917  11.324   3.819 -0.1500  0.1442 -0.2609
49983SOL    HW157064  10.990  11.274   3.857 -1.0595 -0.5849  0.5732
49983SOL    HW257065  10.940  11.331   3.726  1.5867  1.0292  0.1888
49984SOL     OW57066   2.576   7.628   8.065  0.4728  0.1315 -0.2238
49984SOL    HW157067   2.507   7.667   8.012  1.1163 -1.0513 -2.0484
49984SOL    HW257068   2.558   7.534   8.061  1.2290 -0.0656  0.6858
49985SOL     OW57069   6.345   2.765   0.007 -0.2315  0.2691 -0.0165
49985SOL    HW157070   6.352   2.775   0.102 -2.0699 -0.4652  0.2333
49985SOL    HW257071   6.256   2.793  -0.013  0.3201  0.9454 -1.6156
49986SOL     OW57072  10.062   2.006   2.302  0.3902  0.0888  0.2386
49986SOL    HW157073   9.986   1.952   2.323  0.5641 -0.2126  0.1077
49986SOL    HW257074  10.129   1.943   2.276  0.0114  0.4668 -1.8088
49987SOL     OW57075   3.745   4.905  11.723 -0.0878 -0.2454 -0.0354
49987SOL    HW157076   3.659   4.881  11.757  0.1842 -1.9515 -0.4487
49987SOL    HW257077   3.731   4.924  11.631 -0.2110  0.7421  0.1743
49988SOL     OW57078  12.030   0.767   7.862  0.2300 -0.3527 -0.1911
49988SOL    HW157079  11.939   0.787   7.885  1.2024  1.9422  2.0561
49988SOL    HW257080  12.023   0.693   7.801 -3.1718  0.4445 -0.9747
49989SOL     OW57081  12.424  11.658   2.792 -0.3529 -0.7011  0.4875
49989SOL    HW157082  12.398  11.566   2.803 -0.9587 -0.5975 -0.0109
49989SOL    HW257083  12.483  11.658   2.717 -1.5823 -0.4911 -0.5249
49990SOL     OW57084   9.439  10.938  12.252  0.3811 -0.0145 -0.5138
49990SOL    HW157085   9.481  11.003  12.196  0.1880  0.1286 -0.4948
49990SOL    HW257086   9.413  10.987  12.329  1.4385 -0.3896  0.1024
49991SOL     OW57087   7.366   9.027   6.832  0.3779  0.2632 -0.4628
49991SOL    HW157088   7.461   9.017   6.833  0.3548  0.0014  1.0465
49991SOL    HW257089   7.351   9.107   6.781  1.3791  0.0785 -1.0628
49992SOL     OW57090   6.067   0.879   8.665 -0.0933  0.1368  0.0481
49992SOL    HW157091   6.022   0.951   8.620 -2.2584 -1.6743 -0.9502
49992SOL    HW257092   6.141   0.858   8.608 -1.0982 -0.2019 -1.1902
49993SOL     OW57093   7.983  11.150   0.767 -0.5480 -0.0493 -0.7169
49993SOL    HW157094   7.902  11.185   0.731 -0.8005 -0.8642 -0.9736
49993SOL    HW257095   7.962  11.059   0.788  0.3259 -0.2974 -0.8853
49994SOL     OW57096   5.308  10.092  11.624  0.2050  0.2915 -0.2854
49994SOL    HW157097   5.280  10.060  11.710  0.0333  2.2166  0.4242
49994SOL    HW257098   5.258  10.040  11.562  0.2642 -1.0790  0.7765
49995SOL     OW57099   6.173   8.906  11.184  0.2836 -0.4360  0.4739
49995SOL    HW157100   6.138   8.973  11.243 -1.3517  0.5589 -1.5101
49995SOL    HW257101   6.168   8.825  11.235 -1.0152  0.3915  1.7348
49996SOL     OW57102   1.244  10.387   7.408 -0.3519  0.4089  0.1299
49996SOL    HW157103   1.173  10.415   7.350  0.5241  0.0075 -1.1897
49996SOL    HW257104   1.291  10.321   7.357  0.9566  0.6589  0.9729
49997SOL     OW57105  11.418   8.711   8.621  0.0842  0.0811 -0.0162
49997SOL    HW157106  11.415   8.700   8.526 -1.9072 -0.6796  0.0944
49997SOL    HW257107  11.367   8.638   8.656  0.4375  0.5658  1.6269
49998SOL     OW57108   0.884   3.384  11.627 -0.1253  0.3982 -0.3208
49998SOL    HW157109   0.952   3.443  11.660 -0.7028  0.4582  0.8087
49998SOL    HW257110   0.927   3.335  11.557  1.4521 -0.4561  1.1825
49999SOL     OW57111   7.551  10.572  11.769  0.2341 -0.1068 -0.0813
49999SOL    HW157112   7.641  10.585  11.740 -0.1401  0.0967 -1.2077
49999SOL    HW257113   7.546  10.617  11.853  0.8016  1.1890 -0.7044
50000SOL     OW57114  12.528   0.780   0.715  0.4986  0.2545 -0.2142
50000SOL    HW157115  12.470   0.709   0.688  0.4686  0.5824 -1.0380
50000SOL    HW257116  12.612   0.738   0.731  0.6544  0.1052 -1.3279
50001SOL     OW57117   3.630   8.067   2.756  0.4524 -0.4332 -0.0788
50001SOL    HW157118   3.655   7.981   2.788  0.2513 -0.5049 -0.1111
50001SOL    HW257119   3.708   8.121   2.767  0.4451 -0.5088  0.3399
50002SOL     OW57120  12.354   2.336   9.556 -0.4770 -0.9071  0.0634
50002SOL    HW157121  12.424   2.342   9.621  0.7745 -1.7355 -1.1410
50002SOL    HW257122  12.275   2.358   9.604  0.7136  1.2312  1.2458
50003SOL     OW57123   4.470   8.310   5.915  0.0873  0.3693 -0.5235
50003SOL    HW157124   4.458   8.364   5.993 -1.8435  1.5423 -1.5646
50003SOL    HW257125   4.565   8.314   5.898  0.2066  2.1510  0.3335
50004SOL     OW57126   0.379   0.385   0.502 -0.5496 -0.3165  0.1570
50004SOL    HW157127   0.467   0.392   0.537 -0.5862 -0.0452  0.1980
50004SOL    HW257128   0.389   0.401   0.408 -0.3630 -1.6562 -0.0756
50005SOL     OW57129   7.307  11.457   9.036  0.1061 -0.1521 -0.0836
50005SOL    HW157130   7.295  11.433   8.944  0.1538  0.6493 -0.3044
50005SOL    HW257131   7.242  11.526   9.052  0.8771  0.5312  0.1583
50006SOL     OW57132   6.602   9.479   2.930  0.2156 -0.6804 -0.1020
50006SOL    HW157133   6.627   9.413   2.994  0.3597 -1.7562 -1.2363
50006SOL    HW257134   6.610   9.435   2.846 -0.5878  0.5083 -0.8268
50007SOL     OW57135   8.324   6.634  12.501 -0.1210  0.5169 -0.1750
50007SOL    HW157136   8.288   6.598  12.582  0.7049 -2.8140 -1.1465
50007SOL    HW257137   8.247   6.650  12.446 -0.5214 -0.5414  0.0409
50008SOL     OW57138  10.512  12.846  12.852  0.2228  0.6176 -0.4735
50008SOL    HW157139  10.595  12.892  12.842  0.5225  0.0226 -0.7468
50008SOL    HW257140  10.484  12.865  12.941  1.1587 -0.0181 -0.0341
50009SOL     OW57141   7.018  11.018   4.403  0.7520 -0.3502 -0.5370
50009SOL    HW157142   6.968  10.949   4.359  2.3595 -0.4964 -2.2603
50009SOL    HW257143   7.039  10.981   4.489 -0.8014 -0.8509 -0.3458
50010SOL     OW57144   1.771   5.850  10.795 -1.1342  0.1479  0.7256
50010SOL    HW157145   1.782   5.756  10.788  0.6936  0.4136 -1.0248
50010SOL    HW257146   1.676   5.864  10.795 -1.4232 -1.6809  1.2185
50011SOL     OW57147   0.400   7.939   0.754 -0.1993  0.2636 -0.2621
50011SOL    HW157148   0.443   7.947   0.669  1.6977  1.7162  0.7524
50011SOL    HW257149   0.465   7.894   0.809 -0.8282  0.6072  0.7886
50012SOL     OW57150   3.611   3.335   3.012  0.4638 -0.4184  0.6501
50012SOL    HW157151   3.565   3.402   3.061 -1.4483  0.1019 -1.6873
50012SOL    HW257152   3.594   3.254   3.060 -1.1681  0.0880  0.9576
50013SOL     OW57153   7.101   0.444   1.908 -0.0894  0.4311  0.1812
50013SOL    HW157154   7.136   0.520   1.862 -1.2552  1.0313  0.2478
50013SOL    HW257155   7.008   0.465   1.920 -0.8182 -1.7064 -1.2360
50014SOL     OW57156   4.064   9.591   4.794  0.7401 -0.0629 -0.0484
50014SOL    HW157157   4.100   9.667   4.749  1.7931 -0.2016  0.5200
50014SOL    HW257158   4.055   9.524   4.727  1.3276  0.0535 -0.2392
50015SOL     OW57159   2.039   5.108  11.869  0.1750 -0.0157  0.0527
50015SOL    HW157160   2.022   5.014  11.877 -0.2918 -0.1882 -2.2621
50015SOL    HW257161   1.968   5.150  11.916  0.0567 -0.8093  0.6026
50016SOL     OW57162   6.843  10.340   4.526 -0.2071 -0.5440 -0.4657
50016SOL    HW157163   6.838  10.333   4.431 -2.3650  0.2947 -0.4783
50016SOL    HW257164   6.758  10.307   4.557 -0.4921  1.3760  0.9911
50017SOL     OW57165   9.872   2.525  12.227 -0.2701 -0.3027 -0.0929
50017SOL    HW157166   9.862   2.440  12.270 -0.5075 -1.0369 -1.5354
50017SOL    HW257167   9.809   2.524  12.155 -0.3766  1.1647 -0.0649
50018SOL     OW57168   4.919   4.316   6.708  0.0341  0.3133  0.2459
50018SOL    HW157169   4.850   4.319   6.641 -0.2723 -1.4087  0.4253
50018SOL    HW257170   5.001   4.321   6.659 -0.2003 -0.3032 -0.2329
50019SOL     OW57171   4.006   7.107   7.724  0.1234 -0.8216 -0.3475
50019SOL    HW157172   3.952   7.088   7.648 -0.9000  0.5598 -0.0075
50019SOL    HW257173   4.041   7.194   7.708  0.6814 -0.9073  0.3346
50020SOL     OW57174   4.663  12.673  10.814  0.7960  0.1708 -0.1061
50020SOL    HW157175   4.597  12.691  10.881 -0.3147 -1.9876 -0.5228
50020SOL    HW257176   4.723  12.611  10.855  1.7806  1.0339 -0.2022
50021SOL     OW57177   8.007   5.758   8.502 -0.1966  0.2870  0.2056
50021SOL    HW157178   8.046   5.786   8.419  0.4585  1.9741  1.0212
50021SOL    HW257179   7.935   5.700   8.477  2.3610 -2.4863 -1.4204
50022SOL     OW57180  12.185   5.371   8.683 -0.0744 -1.0042 -0.1182
50022SOL    HW157181  12.251   5.421   8.732 -1.7653  0.4261  0.8553
50022SOL    HW257182  12.195   5.282   8.715  1.3438 -0.8233  0.0353
50023SOL     OW57183   6.075   2.896   4.722 -0.1136  0.4257 -0.4908
50023SOL    HW157184   6.025   2.945   4.787  1.9464  1.2034  0.6254
50023SOL    HW257185   6.094   2.812   4.764 -1.1659 -0.2331 -1.2627
50024SOL     OW57186  11.996  10.503   0.759  0.0804  0.2110  0.0873
50024SOL    HW157187  11.959  10.511   0.847  1.5866  0.4381  0.7299
50024SOL    HW257188  12.089  10.485   0.773 -0.0249 -1.9503 -1.4576
50025SOL     OW57189   5.954  12.878  11.442 -0.1373  0.5959 -0.3071
50025SOL    HW157190   5.893  12.822  11.491  0.6853  0.4259  0.5538
50025SOL    HW257191   6.040  12.841  11.460  0.4122  2.0031  0.1219
50026SOL     OW57192   8.818   5.870   5.436  0.5485  0.4655  0.0306
50026SOL    HW157193   8.746   5.900   5.492  0.5396 -0.4452  0.5248
50026SOL    HW257194   8.852   5.792   5.480  2.3042  1.2757  0.1695
50027SOL     OW57195   7.951   3.778   7.230 -0.0165 -0.1109 -0.7600
50027SOL    HW157196   7.923   3.718   7.299 -0.9710 -1.5965 -2.3661
50027SOL    HW257197   8.046   3.767   7.224  0.4072  1.4928  1.5649
50028SOL     OW57198   1.922   5.366   1.802  0.4727  0.3070  0.7168
50028SOL    HW157199   1.868   5.293   1.830  0.8215 -0.0160  0.5617
50028SOL    HW257200   1.895   5.383   1.712  1.1094 -0.3193  0.3941
50029SOL     OW57201  10.242   9.180   4.767 -0.1717 -0.0767 -0.0193
50029SOL    HW157202  10.232   9.250   4.831 -1.6068 -0.0424 -0.2431
50029SOL    HW257203  10.234   9.099   4.818 -2.8345 -0.0644 -0.2790
50030SOL     OW57204   0.978   9.261   8.769  0.6662  0.3679 -0.0959
50030SOL    HW157205   1.061   9.299   8.798  1.0851 -0.8083  0.3517
50030SOL    HW257206   0.951   9.205   8.843  0.8752 -1.3749 -1.2725
50031SOL     OW57207   6.487   9.398   1.048  0.0967 -0.1313  0.1840
50031SOL    HW157208   6.429   9.444   1.109  2.1848  1.1112  1.3471
50031SOL    HW257209   6.515   9.320   1.096  0.4272 -0.0221  0.1717
50032SOL     OW57210   4.253  12.035   5.841 -0.0606 -0.3747 -0.8594
50032SOL    HW157211   4.344  12.014   5.821 -0.1018 -0.1447 -1.2937
50032SOL    HW257212   4.253  12.129   5.859 -0.3284 -0.2383 -1.5551
50033SOL     OW57213   3.413   9.323   2.937 -0.1228 -0.0799  0.0997
50033SOL    HW157214   3.464   9.316   2.857  1.3249  1.2987  0.8428
50033SOL    HW257215   3.346   9.388   2.918  0.4299  0.4985  0.0926
50034SOL     OW57216   7.271   2.901   2.731 -0.2042  0.1504  0.1131
50034SOL    HW157217   7.310   2.814   2.719  0.6926  0.4631  0.6336
50034SOL    HW257218   7.177   2.885   2.733 -0.0098 -1.0311  1.8027
50035SOL     OW57219   3.881   8.328   8.836  0.2997  0.6263  0.1127
50035SOL    HW157220   3.807   8.305   8.893 -0.0979 -1.4417 -1.1281
50035SOL    HW257221   3.841   8.378   8.765  0.4439  1.3246  0.5198
50036SOL     OW57222   4.419   3.873   8.856 -0.2444 -0.4981  0.1865
50036SOL    HW157223   4.394   3.959   8.823 -1.6936 -1.2974 -0.9261
50036SOL    HW257224   4.433   3.820   8.777 -1.7175 -1.8980  0.7994
50037SOL     OW57225  10.218   9.481   5.536  0.1978  0.1283 -0.4994
50037SOL    HW157226  10.293   9.524   5.578  1.0399 -1.7347  0.0221
50037SOL    HW257227  10.146   9.493   5.598  0.5945  0.2336 -0.0528
50038SOL     OW57228   1.546   4.015   1.979 -0.5852  0.4279 -0.0199
50038SOL    HW157229   1.620   3.980   1.928 -1.0533  0.2772 -0.6103
50038SOL    HW257230   1.562   3.986   2.068 -0.0068  0.2648 -0.1738
50039SOL     OW57231   9.408   7.898   8.934  0.5125 -0.6253 -0.3287
50039SOL    HW157232   9.473   7.939   8.992  1.4093 -0.8712 -1.1341
50039SOL    HW257233   9.354   7.972   8.904  0.2124 -0.4582  0.5767
50040SOL     OW57234   5.996   3.877   2.522  0.2421 -0.2705 -0.3168
50040SOL    HW157235   5.917   3.831   2.551  0.1619 -0.3267 -0.6223
50040SOL    HW257236   5.975   3.970   2.532  0.4169 -0.2964  0.3362
50041SOL     OW57237   9.750   1.431  12.441 -0.0480 -0.2244  0.0396
50041SOL    HW157238   9.828   1.488  12.442  0.4690 -0.9094  1.3270
50041SOL    HW257239   9.786   1.342  12.436 -0.7066 -0.5775  1.2618
50042SOL     OW57240   9.040   7.803   3.991  0.0191  0.3660  0.2201
50042SOL    HW157241   9.109   7.738   3.973  0.2620  1.0697 -1.5743
50042SOL    HW257242   9.012   7.783   4.081  1.8857 -0.5579  0.6644
50043SOL     OW57243   2.187   0.668   2.760  0.0727  0.4028  0.1562
50043SOL    HW157244   2.102   0.690   2.797  0.8658  0.4460  2.0161
50043SOL    HW257245   2.214   0.589   2.807  0.4918 -0.4057 -1.3634
50044SOL     OW57246   3.424   4.747   9.382 -0.2375 -0.1725 -0.1794
50044SOL    HW157247   3.393   4.769   9.294 -0.0200 -0.0986 -0.2383
50044SOL    HW257248   3.344   4.732   9.432 -0.4479  1.5592  0.0829
50045SOL     OW57249   9.142   3.556   4.757 -0.2140 -0.5975  0.5018
50045SOL    HW157250   9.051   3.539   4.783 -0.3379  1.0732  1.3153
50045SOL    HW257251   9.185   3.583   4.838  0.6644 -0.0377 -0.1355
50046SOL     OW57252   1.473  12.853   3.021  0.2740  0.5229 -0.1759
50046SOL    HW157253   1.394  12.901   2.998 -0.0728 -0.2613 -0.6713
50046SOL    HW257254   1.534  12.872   2.950 -0.5143 -1.2367 -1.4112
50047SOL     OW57255   0.036   6.769   3.502 -0.5999  0.2621  0.3411
50047SOL    HW157256   0.070   6.718   3.575  1.1596  1.1311  0.1945
50047SOL    HW257257  -0.058   6.776   3.518 -0.4703 -0.8214  1.7124
50048SOL     OW57258   2.939   8.972  12.295 -0.0894 -0.0079 -0.1231
50048SOL    HW157259   2.918   9.063  12.271 -1.1216 -0.4526 -1.0394
50048SOL    HW257260   3.008   8.947  12.234 -1.9551 -0.7855 -2.0446
50049SOL     OW57261   4.845   5.610   9.843  0.3043 -0.1329 -0.0585
50049SOL    HW157262   4.775   5.563   9.797 -0.8516 -0.0254  1.5268
50049SOL    HW257263   4.891   5.542   9.892  0.2037  0.0418  0.2783
50050SOL     OW57264   4.989   1.736   8.312  0.5437 -0.4273 -0.0888
50050SOL    HW157265   5.081   1.760   8.320 -0.2574  3.2844  0.0035
50050SOL    HW257266   4.946   1.780   8.385 -1.3859 -1.6986 -0.3800
50051SOL     OW57267   0.369   2.160   4.656 -0.6890 -0.6119 -0.1281
50051SOL    HW157268   0.314   2.171   4.578 -1.7232 -0.6212  0.5697
50051SOL    HW257269   0.348   2.072   4.688 -0.3318 -0.5785  0.2048
50052SOL     OW57270   0.904   7.675   5.521 -0.0362 -0.3898  0.8160
50052SOL    HW157271   0.965   7.649   5.452  0.6086 -0.4724  1.4124
50052SOL    HW257272   0.902   7.600   5.580 -2.2481 -1.2200 -0.1998
50053SOL     OW57273   6.958   8.999   1.366 -0.1832 -0.3072 -0.2696
50053SOL    HW157274   6.896   9.069   1.346 -1.0538 -0.2996  2.0985
50053SOL    HW257275   6.991   9.021   1.453  0.3887 -2.2465  0.0503
50054SOL     OW57276   4.637  10.235   0.615 -0.1220 -0.4153 -0.6506
50054SOL    HW157277   4.551  10.217   0.652 -0.1726  0.2606 -0.4173
50054SOL    HW257278   4.619  10.257   0.523 -0.0550 -1.5394 -0.9426
50055SOL     OW57279  12.540   0.462  10.808 -0.0981 -0.3314 -0.2967
50055SOL    HW157280  12.561   0.381  10.854 -0.6409 -0.5039 -0.3457
50055SOL    HW257281  12.533   0.529  10.876  0.3170 -0.3313 -0.2535
50056SOL     OW57282   5.239   7.309  12.575 -0.0726  1.0368  0.3530
50056SOL    HW157283   5.263   7.275  12.661  0.5032 -0.7217 -0.4550
50056SOL    HW257284   5.143   7.308  12.575 -0.0672  0.1737  0.6408
50057SOL     OW57285   4.833   7.727   9.709  0.1910 -0.3382 -0.1408
50057SOL    HW157286   4.912   7.774   9.683 -0.1557 -0.8182 -2.2828
50057SOL    HW257287   4.856   7.683   9.790  1.1697  1.8500  0.8348
50058SOL     OW57288   1.477   5.325   0.409 -0.6314  0.0121 -0.1821
50058SOL    HW157289   1.468   5.421   0.407 -2.4597 -0.1292  0.0036
50058SOL    HW257290   1.468   5.303   0.502  1.2847 -0.2653 -0.0085
50059SOL     OW57291  11.306  10.012   9.781 -0.1881  0.3964 -0.6985
50059SOL    HW157292  11.382  10.070   9.769 -0.4488  1.4399  1.9956
50059SOL    HW257293  11.333   9.950   9.848 -2.1086  1.6992  1.4134
50060SOL     OW57294   8.227   2.688  12.378 -0.2092 -0.0700  0.4797
50060SOL    HW157295   8.184   2.719  12.458 -0.3800  0.0083  0.3572
50060SOL    HW257296   8.161   2.635  12.334 -0.2594  0.2452  0.1717
50061SOL     OW57297   0.394  10.652   3.822  0.1788  0.9969  0.3095
50061SOL    HW157298   0.312  10.651   3.773  0.4195  0.8133 -0.0963
50061SOL    HW257299   0.439  10.572   3.796  0.4599  1.0631  0.5790
50062SOL     OW57300   7.812   6.858   1.048 -0.2738  0.2940  0.1185
50062SOL    HW157301   7.741   6.859   1.112 -1.3396  4.0460 -0.8831
50062SOL    HW257302   7.834   6.950   1.035  3.0136 -0.5780 -1.6206
50063SOL     OW57303  11.341   8.349  10.764  0.4197  0.2184  0.0989
50063SOL    HW157304  11.434   8.328  10.770  0.2772 -0.0976  1.7542
50063SOL    HW257305  11.309   8.342  10.854 -1.5806 -1.4599 -0.6437
50064SOL     OW57306  10.721   7.054   5.657 -0.2556  0.7989 -0.6136
50064SOL    HW157307  10.794   7.009   5.700 -0.7535  2.4996  2.1739
50064SOL    HW257308  10.723   7.020   5.567  1.1793 -2.5430  0.5118
50065SOL     OW57309   3.683   6.344   8.498  0.1687  0.0384  0.5886
50065SOL    HW157310   3.651   6.304   8.417  0.0322  0.8770  0.2140
50065SOL    HW257311   3.641   6.295   8.568 -0.8241  0.2048  0.1237
50066SOL     OW57312   6.071   8.314   4.928 -0.1330 -0.1926 -0.5713
50066SOL    HW157313   6.052   8.397   4.972  0.0436  1.1431 -2.8371
50066SOL    HW257314   5.985   8.278   4.906 -0.2488 -1.2466  1.3998
50067SOL     OW57315  10.473   6.081  10.651 -0.5161 -0.0134  0.1407
50067SOL    HW157316  10.380   6.063  10.642 -0.6593 -0.6272  2.2000
50067SOL    HW257317  10.501   6.026  10.725  1.3418  0.6009 -0.0495
50068SOL     OW57318  12.931   9.203   1.648  0.0497 -0.2629  0.0564
50068SOL    HW157319  12.854   9.172   1.600  0.5187 -0.5274 -0.5392
50068SOL    HW257320  12.981   9.253   1.583 -0.2012  0.9177  0.7448
50069SOL     OW57321   1.213   7.903   0.308  0.1029  0.2883 -0.7113
50069SOL    HW157322   1.254   7.989   0.293  0.0471  0.2806 -0.9093
50069SOL    HW257323   1.144   7.898   0.242 -1.2757  0.9781  0.5983
50070SOL     OW57324   0.128   7.388   3.769 -0.2738  0.5816  0.3790
50070SOL    HW157325   0.044   7.429   3.748 -0.2489  0.8321  0.7591
50070SOL    HW257326   0.121   7.364   3.861 -0.1430  0.0766  0.2587
50071SOL     OW57327   3.049  12.451  10.622  0.2119 -0.1500 -0.3892
50071SOL    HW157328   2.979  12.458  10.687  0.1875  1.6906 -0.5695
50071SOL    HW257329   3.114  12.514  10.650  1.2904 -1.0178 -0.8705
50072SOL     OW57330  12.499   6.271   1.666  0.1979 -0.4561  0.3372
50072SOL    HW157331  12.487   6.298   1.575 -1.0984 -0.0136  0.6153
50072SOL    HW257332  12.464   6.182   1.670 -0.5453 -0.1582  0.5786
50073SOL     OW57333   6.203  12.947   9.791 -0.2649 -0.1179  0.4793
50073SOL    HW157334   6.195  13.037   9.825  1.0334  0.0153  0.4846
50073SOL    HW257335   6.271  12.953   9.723 -0.4940 -1.0098  0.1633
50074SOL     OW57336   5.335  12.701   5.333 -0.2133 -0.0620 -0.5131
50074SOL    HW157337   5.378  12.771   5.384 -0.7472 -1.2162  1.6206
50074SOL    HW257338   5.408  12.656   5.289  0.3029  0.7472 -0.5159
50075SOL     OW57339   8.607   8.841   7.610  0.7647  0.4733 -1.0119
50075SOL    HW157340   8.587   8.925   7.568 -0.6769  0.3564 -0.6126
50075SOL    HW257341   8.525   8.793   7.607  0.2330  0.8665  2.8755
50076SOL     OW57342   4.164   3.215   1.334  0.1681 -0.2773 -0.7666
50076SOL    HW157343   4.075   3.195   1.306 -1.7726 -0.6631  4.4465
50076SOL    HW257344   4.209   3.131   1.333 -0.5512 -0.6728 -0.6049
50077SOL     OW57345   8.873  11.591   3.595 -0.4336 -0.1280 -0.6714
50077SOL    HW157346   8.807  11.617   3.531  1.4701 -0.1598 -2.7980
50077SOL    HW257347   8.948  11.648   3.576  0.6514 -1.0535  0.6629
50078SOL     OW57348  12.586   0.886   5.652  0.8133 -0.2716 -0.4270
50078SOL    HW157349  12.579   0.883   5.557  0.9361  0.2022 -0.4493
50078SOL    HW257350  12.679   0.895   5.670  0.8684 -1.0882 -0.2397
50079SOL     OW57351  11.795   1.399   0.187 -0.0432  0.1983 -0.8233
50079SOL    HW157352  11.757   1.426   0.271 -0.6277 -0.0263 -1.0055
50079SOL    HW257353  11.887   1.381   0.207  0.8117  3.7571 -1.0018
50080SOL     OW57354   1.410   8.736   6.197 -0.5103  0.1214 -0.2677
50080SOL    HW157355   1.320   8.710   6.215 -0.5293  0.9275  0.9111
50080SOL    HW257356   1.463   8.681   6.255 -0.2904  0.1897 -0.4005
50081SOL     OW57357  10.798   7.905  10.544  0.6827  0.6623 -0.2009
50081SOL    HW157358  10.853   7.949  10.609  2.3141 -0.1502 -0.9718
50081SOL    HW257359  10.845   7.916  10.461  0.4880 -1.3249 -0.6428
50082SOL     OW57360   0.997   3.415   0.726  0.6592  0.4291  0.4068
50082SOL    HW157361   0.990   3.327   0.762  1.4081  0.6020  0.9969
50082SOL    HW257362   1.057   3.461   0.785 -2.0532  2.2791  1.9330
50083SOL     OW57363   5.135  11.642  12.153 -0.0275 -0.5648 -0.5034
50083SOL    HW157364   5.080  11.698  12.098 -1.4494  1.3602  2.6005
50083SOL    HW257365   5.074  11.580  12.192  0.4728 -0.2190  0.8539
50084SOL     OW57366   5.556   7.239   0.851  0.1786  0.0636 -0.1425
50084SOL    HW157367   5.621   7.256   0.919  0.8329  1.6464 -1.0996
50084SOL    HW257368   5.599   7.178   0.791 -0.9062 -2.4986  1.4830
50085SOL     OW57369   9.254   8.356   7.348  0.1597  0.4627  0.5315
50085SOL    HW157370   9.240   8.415   7.274 -1.4662 -0.8108 -0.2263
50085SOL    HW257371   9.175   8.364   7.400  0.8778  0.5971  1.6321
50086SOL     OW57372  11.342  11.959  10.092  0.4978 -0.1890  0.0300
50086SOL    HW157373  11.380  12.047  10.086  0.9046 -0.3161  0.6269
50086SOL    HW257374  11.372  11.926  10.177 -0.6006 -0.4626  0.3296
50087SOL     OW57375   2.257   2.743   2.873  0.1629 -0.6172  0.5423
50087SOL    HW157376   2.178   2.783   2.837 -0.6305 -0.9014  1.9089
50087SOL    HW257377   2.323   2.757   2.806 -1.2129 -1.0035 -0.9691
50088SOL     OW57378   9.711   3.488  11.796  0.1712 -0.0337  0.0484
50088SOL    HW157379   9.796   3.527  11.818  0.6567 -1.5092  0.9647
50088SOL    HW257380   9.685   3.441  11.875 -0.8415 -0.7263 -0.6743
50089SOL     OW57381  11.311   6.956   0.083  0.1710  0.0531  1.0486
50089SOL    HW157382  11.234   6.979   0.031 -0.4036 -1.8188  0.9731
50089SOL    HW257383  11.326   7.032   0.139  0.7183  2.0745 -1.6715
50090SOL     OW57384   3.779   8.839   2.754  0.0870  0.4638  0.5923
50090SOL    HW157385   3.704   8.828   2.812  0.7596 -0.0932  1.3843
50090SOL    HW257386   3.742   8.876   2.674 -1.3711 -1.8245  0.1112
50091SOL     OW57387   2.694   8.845   3.741 -0.3864 -0.6960 -0.4033
50091SOL    HW157388   2.773   8.887   3.708  1.3656 -1.7860  2.1072
50091SOL    HW257389   2.673   8.893   3.822 -0.4572 -2.3137  0.5829
50092SOL     OW57390  10.345   7.384   7.413 -0.0165  0.3024  0.2397
50092SOL    HW157391  10.371   7.399   7.503  0.1465  0.5331  0.1542
50092SOL    HW257392  10.392   7.305   7.386  1.5060  1.3437 -0.2792
50093SOL     OW57393  10.213   0.123   7.143  0.4926  0.4763  0.1773
50093SOL    HW157394  10.278   0.052   7.142  2.6842  2.1686  3.5161
50093SOL    HW257395  10.263   0.202   7.121 -1.1125  1.4726 -0.0830
50094SOL     OW57396   6.700  10.943   8.093 -0.8332  0.7979 -0.3221
50094SOL    HW157397   6.680  10.862   8.047  0.5315 -0.5327  1.2931
50094SOL    HW257398   6.790  10.962   8.068  1.1149 -1.6453  3.8605
50095SOL     OW57399   8.966   4.365   5.752  0.4067  0.5077  0.9482
50095SOL    HW157400   9.044   4.310   5.760  2.2242  2.2886 -2.3942
50095SOL    HW257401   8.901   4.308   5.711  2.1346  0.5180 -2.1224
50096SOL     OW57402   7.020  12.945   4.335  0.1891  0.3493  0.1531
50096SOL    HW157403   7.046  12.972   4.422 -1.6499  0.6546  0.6468
50096SOL    HW257404   7.087  12.882   4.308  2.8463  2.9292  0.2337
50097SOL     OW57405   9.319   4.862   3.637  0.1096  0.3435  0.0917
50097SOL    HW157406   9.255   4.793   3.652  1.0795 -0.6925 -0.4146
50097SOL    HW257407   9.377   4.827   3.569  2.1730  0.5872  1.6295
50098SOL     OW57408   8.419  11.062   6.748  0.4288 -0.6050  0.4247
50098SOL    HW157409   8.371  11.025   6.674  0.9997  0.4424 -0.4899
50098SOL    HW257410   8.354  11.071   6.817 -0.0557 -1.8300  0.1518
50099SOL     OW57411   5.523   4.772   7.585 -0.1254  0.0377  0.2476
50099SOL    HW157412   5.496   4.791   7.495 -1.2503  1.5439  0.8656
50099SOL    HW257413   5.449   4.723   7.622 -0.9094  1.7755  1.1199
50100SOL     OW57414   9.254   1.762   0.307  0.3374 -0.2454 -0.2351
50100SOL    HW157415   9.290   1.770   0.218 -0.7755 -0.5160 -0.7234
50100SOL    HW257416   9.294   1.835   0.355  0.0632  0.6141 -1.2667
50101SOL     OW57417   3.536   4.326  12.597 -0.0992  0.1633 -0.1196
50101SOL    HW157418   3.466   4.306  12.535 -0.0850 -0.7687  0.1464
50101SOL    HW257419   3.492   4.344  12.680 -0.0313 -0.4441  0.0532
50102SOL     OW57420   6.517   6.697   0.208  0.2263  0.5275  0.3356
50102SOL    HW157421   6.435   6.648   0.204  1.3561 -1.4053 -0.4859
50102SOL    HW257422   6.494   6.784   0.175 -1.5028  0.0403  0.1651
50103SOL     OW57423   3.585   5.468   9.673 -1.1153  0.2584  0.3985
50103SOL    HW157424   3.520   5.476   9.604 -1.4017  1.1056  0.7582
50103SOL    HW257425   3.628   5.384   9.656 -0.3930  0.9634 -1.4878
50104SOL     OW57426   3.716   8.121   2.304 -0.2262  1.0068 -0.0651
50104SOL    HW157427   3.720   8.063   2.228  1.7350 -0.1849  0.8793
50104SOL    HW257428   3.769   8.197   2.279  0.5862  0.5233  0.1683
50105SOL     OW57429   8.520   0.264   1.194 -0.0551 -0.8522 -0.3465
50105SOL    HW157430   8.467   0.231   1.122 -0.8442 -1.3017  0.4166
50105SOL    HW257431   8.474   0.342   1.225  1.0598  0.2138 -1.2366
50106SOL     OW57432   9.525   9.642   3.485 -0.2576 -0.5770 -0.5323
50106SOL    HW157433   9.567   9.700   3.548 -0.0525 -0.2462 -0.9647
50106SOL    HW257434   9.450   9.606   3.531  1.1983 -2.2112  0.7227
50107SOL     OW57435   0.606   5.322   9.565 -0.4584  0.0758  0.3838
50107SOL    HW157436   0.629   5.391   9.502  1.3822  0.5174  1.4515
50107SOL    HW257437   0.643   5.242   9.526 -0.0217  0.2139  0.5012
50108SOL     OW57438   3.664   3.849  11.928 -0.1438  0.0783  0.4253
50108SOL    HW157439   3.655   3.779  11.864  0.5616 -0.2800  0.6973
50108SOL    HW257440   3.700   3.922  11.879  1.6467 -0.6104  0.6335
50109SOL     OW57441   8.516  11.320   6.233 -0.5909 -0.1160 -0.5037
50109SOL    HW157442   8.551  11.298   6.147  2.3556 -1.5888  0.9259
50109SOL    HW257443   8.558  11.402   6.257 -0.8952 -0.0355 -0.2376
50110SOL     OW57444   7.879   5.868   5.601 -0.4193 -0.3456  0.2044
50110SOL    HW157445   7.879   5.830   5.689 -1.4135  2.0069  1.3268
50110SOL    HW257446   7.958   5.922   5.599 -0.6739  0.0181 -0.1317
50111SOL     OW57447   9.885   3.370   4.634 -0.5838 -0.1283  0.3087
50111SOL    HW157448   9.939   3.448   4.647 -1.5051  0.3066  1.6613
50111SOL    HW257449   9.922   3.329   4.555 -0.5416  2.0327 -0.8580
50112SOL     OW57450   3.425   4.527   6.131 -0.0976  0.1454 -0.4190
50112SOL    HW157451   3.332   4.539   6.113 -0.1547  1.1396  0.4144
50112SOL    HW257452   3.468   4.537   6.046 -0.4590  3.3886 -0.3628
50113SOL     OW57453   5.881   2.230   4.492 -0.0622 -0.3068 -0.0627
50113SOL    HW157454   5.788   2.249   4.486 -0.6630 -2.5514  1.0846
50113SOL    HW257455   5.913   2.236   4.402 -1.4047  0.0875 -0.5332
50114SOL     OW57456   6.690  12.912   1.358 -0.1578 -0.8763  0.1705
50114SOL    HW157457   6.689  12.821   1.326 -0.2268 -0.9672  0.4225
50114SOL    HW257458   6.782  12.932   1.372 -0.1660 -1.0285  0.4489
50115SOL     OW57459  10.021   6.441   3.284 -0.1354  0.5478  0.3183
50115SOL    HW157460  10.001   6.529   3.315  0.3331  0.7333  0.0924
50115SOL    HW257461  10.057   6.453   3.197 -1.6962 -0.0009 -0.4326
50116SOL     OW57462   5.343   2.644   9.295  0.1031 -0.9333 -0.1483
50116SOL    HW157463   5.432   2.665   9.268 -0.3571  1.9482  0.1480
50116SOL    HW257464   5.288   2.709   9.250 -1.9875 -3.1807 -1.0384
50117SOL     OW57465   3.399   4.686  10.001  0.1673  0.2260 -0.5735
50117SOL    HW157466   3.332   4.680   9.933  1.0242 -0.4494 -1.3909
50117SOL    HW257467   3.453   4.760   9.974 -0.3258  0.8712  0.1700
50118SOL     OW57468   8.251   5.850   9.228 -0.3021 -0.4197 -0.0982
50118SOL    HW157469   8.289   5.799   9.157  0.3835 -0.9360  0.6191
50118SOL    HW257470   8.236   5.937   9.190  0.3839 -0.5849 -0.7761
50119SOL     OW57471  10.589   9.602   4.487  0.3675  0.6835  0.0306
50119SOL    HW157472  10.542   9.607   4.403  1.1542 -0.5710 -0.5163
50119SOL    HW257473  10.560   9.679   4.535  1.4600  2.6239 -2.2166
50120SOL     OW57474   6.981  11.301   5.155 -0.3950 -0.4853 -0.0002
50120SOL    HW157475   6.900  11.296   5.104 -0.4016  1.2104 -0.1921
50120SOL    HW257476   7.048  11.327   5.092 -0.0921  0.0631  0.5430
50121SOL     OW57477   5.695   9.866  10.630  0.5030  0.0510  0.1499
50121SOL    HW157478   5.684   9.812  10.551  0.5891 -0.2951  0.3709
50121SOL    HW257479   5.635   9.828  10.694  1.2839 -0.4199  0.6243
50122SOL     OW57480   1.393   5.067   2.552 -0.9871 -0.0906 -0.2782
50122SOL    HW157481   1.459   5.000   2.535 -0.8552 -0.4103  1.3105
50122SOL    HW257482   1.311   5.029   2.521 -0.9981 -1.2313  1.0781
50123SOL     OW57483   5.679  11.341  10.008 -0.1737  0.2680 -0.1449
50123SOL    HW157484   5.655  11.379  10.092 -0.9711 -1.1444  0.3038
50123SOL    HW257485   5.748  11.278  10.029 -1.1767 -0.9278 -0.3547
50124SOL     OW57486   4.095   2.123   2.647 -0.2696  0.0156 -0.4264
50124SOL    HW157487   3.999   2.122   2.650 -0.3111 -2.7120  0.4247
50124SOL    HW257488   4.116   2.095   2.558 -0.3537 -1.8800  0.1120
50125SOL     OW57489   1.559  12.598   8.059  0.2006  0.3817 -0.1160
50125SOL    HW157490   1.567  12.679   8.007  1.8770  1.5688  1.8512
50125SOL    HW257491   1.589  12.529   8.000 -0.7942  1.2260 -1.6833
50126SOL     OW57492   2.070   2.752   3.100 -0.0069 -0.0375 -0.1892
50126SOL    HW157493   2.005   2.822   3.104 -0.4400 -0.3643 -1.1185
50126SOL    HW257494   2.018   2.671   3.093  0.4649 -0.2496 -1.7211
50127SOL     OW57495  10.580   2.316   0.181  0.1728 -0.0453  0.4649
50127SOL    HW157496  10.668   2.352   0.172 -0.4883  2.2573  2.2418
50127SOL    HW257497  10.589   2.244   0.242  0.9082 -0.2498  0.1222
50128SOL     OW57498   5.985   9.298   9.751  0.1484 -0.4510  0.1949
50128SOL    HW157499   6.012   9.382   9.790 -1.9705  0.7678 -0.8251
50128SOL    HW257500   5.925   9.260   9.814 -1.1879  0.2419 -0.6243
50129SOL     OW57501   3.340   5.118  12.368  0.1462 -0.1466 -0.0172
50129SOL    HW157502   3.399   5.119  12.292 -1.9972 -0.9952 -1.8136
50129SOL    HW257503   3.294   5.034  12.361  1.3967 -1.2811  3.5537
50130SOL     OW57504   2.379  11.699   2.505 -0.6385 -0.1363  0.2737
50130SOL    HW157505   2.303  11.724   2.558 -1.1242 -1.7854  0.4245
50130SOL    HW257506   2.346  11.631   2.447  0.6341 -0.5995  0.0596
50131SOL     OW57507  12.236  12.380  12.644  0.8176 -0.2884 -0.1919
50131SOL    HW157508  12.152  12.424  12.660  0.2319 -0.7291 -1.8893
50131SOL    HW257509  12.219  12.323  12.569  1.8239 -2.6567  1.2587
50132SOL     OW57510  11.148   3.114   6.371  0.3758  0.2356 -0.4859
50132SOL    HW157511  11.195   3.048   6.424 -0.3145  0.4141  0.3785
50132SOL    HW257512  11.198   3.195   6.385  0.4654  0.1800 -0.4795
50133SOL     OW57513   0.390  11.202   2.267  0.3362 -0.1575 -0.1662
50133SOL    HW157514   0.466  11.147   2.282  1.9440  1.5783 -1.4615
50133SOL    HW257515   0.406  11.281   2.319 -0.0185  0.6803 -1.2653
50134SOL     OW57516   5.553   1.882   0.293 -0.1815 -0.1721 -0.1239
50134SOL    HW157517   5.588   1.881   0.204  1.0675  1.5682  0.2804
50134SOL    HW257518   5.553   1.790   0.320 -0.7790 -0.7477 -1.9666
50135SOL     OW57519   7.285   1.366   2.676  0.2776  0.6416 -0.3838
50135SOL    HW157520   7.364   1.314   2.661  0.1895  0.7460 -1.2128
50135SOL    HW257521   7.305   1.452   2.640  0.1453  0.9751  0.3099
50136SOL     OW57522   9.960   6.297  11.303 -0.0892 -0.0993 -0.1944
50136SOL    HW157523   9.886   6.304  11.364 -0.3784  0.1894 -0.5747
50136SOL    HW257524  10.001   6.384  11.306  0.1139 -0.1973 -0.1366
50137SOL     OW57525   6.511   8.442   1.169  0.4224 -0.6377 -0.1494
50137SOL    HW157526   6.429   8.488   1.186  1.1941  0.5333  0.6249
50137SOL    HW257527   6.528   8.456   1.076  0.7738  0.9494  0.1187
50138SOL     OW57528   9.843   2.011  10.760 -0.6997 -0.0842 -0.0813
50138SOL    HW157529   9.768   1.997  10.819 -1.2715  1.9085 -0.2795
50138SOL    HW257530   9.916   2.032  10.818 -1.0405  0.9676 -0.0231
50139SOL     OW57531   7.965   5.366   6.253 -0.2113 -0.0974  0.3766
50139SOL    HW157532   8.001   5.413   6.178  1.1070  1.5454  1.9710
50139SOL    HW257533   8.016   5.285   6.256  0.9662  0.6315  0.5381
50140SOL     OW57534   5.974  12.965   9.079  0.7944 -0.9629  0.2035
50140SOL    HW157535   6.048  13.023   9.096 -0.1601  0.1938  0.5737
50140SOL    HW257536   6.013  12.878   9.067  2.1192 -0.5501  1.3037
50141SOL     OW57537   1.009   8.436   9.829  0.0297  0.5357  0.3095
50141SOL    HW157538   1.041   8.397   9.910 -0.6520  0.8201  0.7226
50141SOL    HW257539   1.081   8.492   9.799  0.3254  0.3408  0.6531
50142SOL     OW57540  11.096   6.773   5.892  0.0664 -0.0191  0.5068
50142SOL    HW157541  11.154   6.800   5.821  0.8163 -1.9152  0.3573
50142SOL    HW257542  11.148   6.784   5.971 -0.4286  1.1312  0.6917
50143SOL     OW57543   8.242   9.718   8.708 -0.0439  0.1619  0.3671
50143SOL    HW157544   8.243   9.784   8.638  1.7517  1.0056  1.1262
50143SOL    HW257545   8.252   9.634   8.662 -1.4948  0.4588 -0.5456
50144SOL     OW57546  12.731   1.298   8.060  0.3138 -0.4341  0.1685
50144SOL    HW157547  12.794   1.229   8.038 -0.0776 -1.0094  0.8414
50144SOL    HW257548  12.685   1.315   7.977  2.0924  0.7938 -0.6222
50145SOL     OW57549   5.921   9.081   1.047  0.8446 -0.3465 -0.5030
50145SOL    HW157550   5.956   9.099   1.134 -0.3524 -1.7550  0.3138
50145SOL    HW257551   5.904   9.167   1.010  1.5311  0.2843  0.5939
50146SOL     OW57552  11.139   8.862   4.514  0.5383  0.8139 -0.2285
50146SOL    HW157553  11.155   8.768   4.516 -1.1519  0.5044  1.1770
50146SOL    HW257554  11.225   8.901   4.528  1.7214 -0.3915 -3.3267
50147SOL     OW57555   8.100   6.694   1.571  0.1076  0.0819  0.0060
50147SOL    HW157556   8.107   6.606   1.534 -0.5155  0.3767 -0.8545
50147SOL    HW257557   8.186   6.711   1.609  1.5156  0.5261 -3.0854
50148SOL     OW57558   5.169   2.765  12.233  0.0761 -0.4450 -0.2974
50148SOL    HW157559   5.265   2.770  12.231  0.0688  0.6762  0.6848
50148SOL    HW257560   5.148   2.747  12.324 -0.6700  0.6547 -0.2332
50149SOL     OW57561   3.319   2.781   4.496  0.2815  0.1465  0.7102
50149SOL    HW157562   3.373   2.795   4.418 -1.1112  1.9151 -0.0067
50149SOL    HW257563   3.322   2.864   4.542 -1.8903  0.3375  0.5857
50150SOL     OW57564   2.877   0.547   7.655  0.5181 -0.3486 -0.1769
50150SOL    HW157565   2.939   0.620   7.657 -0.0956  0.1553  0.7918
50150SOL    HW257566   2.867   0.521   7.746 -0.9256 -0.2159 -0.2773
50151SOL     OW57567   9.371   4.663   9.287  0.2463  0.8271 -0.2126
50151SOL    HW157568   9.303   4.716   9.329 -3.0216 -1.5385 -2.0919
50151SOL    HW257569   9.359   4.576   9.323  0.6860 -0.1569 -2.3143
50152SOL     OW57570  11.384  12.108  11.821  0.3339 -0.4151 -0.0650
50152SOL    HW157571  11.360  12.037  11.761  0.1444 -0.7015  0.3418
50152SOL    HW257572  11.419  12.177  11.764  0.3504 -0.7618 -0.4818
50153SOL     OW57573   8.948   9.132   7.546  0.0045 -0.3773 -0.0533
50153SOL    HW157574   8.940   9.201   7.612  0.5370 -1.1395  0.8260
50153SOL    HW257575   8.896   9.164   7.472  1.3432  1.6035 -0.2153
50154SOL     OW57576   1.250   6.477   3.603  0.2383  0.1905  0.0044
50154SOL    HW157577   1.167   6.447   3.641 -0.1002  0.8407 -0.2106
50154SOL    HW257578   1.296   6.520   3.675 -0.2529  1.1169 -0.2195
50155SOL     OW57579  11.185   0.202   6.874 -0.0593 -0.2955  0.4516
50155SOL    HW157580  11.127   0.156   6.934 -0.4742  0.2668  0.4809
50155SOL    HW257581  11.216   0.133   6.814  1.1624 -1.0646  1.9069
50156SOL     OW57582   5.496   0.163   3.722 -0.2876 -0.5585  0.2033
50156SOL    HW157583   5.407   0.195   3.732 -0.1923 -0.6832  1.6494
50156SOL    HW257584   5.506   0.147   3.628 -1.2032  1.0836 -0.1921
50157SOL     OW57585   5.218   1.057   6.526 -0.0620  0.2711 -0.0221
50157SOL    HW157586   5.157   1.131   6.522  0.1719  0.6143  1.7556
50157SOL    HW257587   5.302   1.097   6.546 -0.0625 -0.4807  1.6918
50158SOL     OW57588  11.277   0.755   6.837 -0.4639  0.7002 -0.2913
50158SOL    HW157589  11.204   0.730   6.781 -1.5874 -0.6311  1.6182
50158SOL    HW257590  11.264   0.703   6.917  0.6639  2.9186  1.4484
50159SOL     OW57591   5.194   4.128   3.736 -0.5465  0.2031  0.1698
50159SOL    HW157592   5.219   4.078   3.814  2.3663 -1.2922 -1.5938
50159SOL    HW257593   5.227   4.216   3.752 -0.0161 -0.0786  0.6293
50160SOL     OW57594   9.334   9.884  12.040  0.5212  0.4509 -0.2574
50160SOL    HW157595   9.357   9.968  11.999  0.8627  0.9487  0.9283
50160SOL    HW257596   9.361   9.819  11.975 -1.3176  1.2763 -1.9438
50161SOL     OW57597   6.345   7.353  12.403 -0.2886  0.5921 -0.0402
50161SOL    HW157598   6.284   7.279  12.405 -0.4280  0.5809 -2.4129
50161SOL    HW257599   6.337   7.389  12.315  1.0277  2.4115  0.5188
50162SOL     OW57600   5.163  10.187   3.587  0.1047 -0.6054  0.3182
50162SOL    HW157601   5.087  10.160   3.535  2.1562 -0.8665 -2.7876
50162SOL    HW257602   5.216  10.109   3.595  0.8248 -0.0563  1.0417
50163SOL     OW57603  10.576  10.020   8.345  0.0892  0.3690  0.4571
50163SOL    HW157604  10.627  10.087   8.391  0.6836  1.4726 -1.6771
50163SOL    HW257605  10.510   9.993   8.409  0.0951  2.6797  1.5757
50164SOL     OW57606   0.115   5.264  10.177  0.1076 -0.4260  0.3696
50164SOL    HW157607   0.071   5.345  10.204  0.7235 -0.2463  0.8592
50164SOL    HW257608   0.187   5.254  10.239  1.9428  0.3225 -1.5023
50165SOL     OW57609   0.425   7.522   7.189 -0.3117  0.1665 -0.1145
50165SOL    HW157610   0.367   7.593   7.159 -0.5842  0.7412  1.6522
50165SOL    HW257611   0.503   7.567   7.220  0.2803 -0.4674 -0.6710
50166SOL     OW57612  10.004   2.032  11.961  0.3726 -0.6846 -0.4120
50166SOL    HW157613   9.909   2.036  11.947  0.1488 -4.3792 -1.2586
50166SOL    HW257614  10.041   2.085  11.890 -1.1221 -2.6899 -2.8804
50167SOL     OW57615   7.486  10.292   2.046  0.0753 -0.1996  0.1602
50167SOL    HW157616   7.462  10.200   2.059 -0.5886  0.0685  0.8926
50167SOL    HW257617   7.532  10.317   2.126 -1.6694  0.7022  0.9587
50168SOL     OW57618   2.499   1.606   6.050  0.5852 -0.6536  0.1715
50168SOL    HW157619   2.410   1.613   6.015  0.8116  2.9904 -0.0264
50168SOL    HW257620   2.550   1.670   6.001  1.9421  1.5578  4.0444
50169SOL     OW57621  11.964   7.777  12.803 -0.5276  0.5748 -0.2567
50169SOL    HW157622  11.943   7.683  12.805 -1.2110  0.7337  0.7626
50169SOL    HW257623  11.984   7.799  12.894 -1.2461  1.6048 -0.3266
50170SOL     OW57624   2.234  12.614  12.432 -0.1609  0.0001  0.1823
50170SOL    HW157625   2.281  12.688  12.393 -0.0686  0.1247  0.5187
50170SOL    HW257626   2.148  12.648  12.454 -0.7924 -0.5049 -1.3700
50171SOL     OW57627   9.582  11.426   2.995 -0.3370  0.2422 -0.3321
50171SOL    HW157628   9.644  11.498   2.989  1.6522 -1.4120 -0.9137
50171SOL    HW257629   9.588  11.395   3.085 -1.0759  0.6814 -0.1229
50172SOL     OW57630  10.215   6.556  12.032 -0.3993 -0.0400 -0.2302
50172SOL    HW157631  10.186   6.466  12.041 -1.7415  0.4596  0.6284
50172SOL    HW257632  10.218   6.590  12.121 -2.0300  1.3834 -0.6603
50173SOL     OW57633  10.488  10.593   3.062 -0.2040  0.2350 -0.4023
50173SOL    HW157634  10.427  10.605   2.990  0.2382  2.2976 -0.4968
50173SOL    HW257635  10.569  10.563   3.020 -0.6657 -0.9886 -0.4503
50174SOL     OW57636   9.386   3.055   9.676  0.4698 -0.0480 -0.1326
50174SOL    HW157637   9.330   3.132   9.673  1.6317  0.8688  0.8779
50174SOL    HW257638   9.451   3.070   9.607  1.3716  0.4451  0.7979
50175SOL     OW57639  11.128   0.299   4.366  0.4855  0.0119  0.4419
50175SOL    HW157640  11.216   0.265   4.375  0.0122 -2.1760 -1.9987
50175SOL    HW257641  11.137   0.374   4.306  0.7006 -0.0816  0.3572
50176SOL     OW57642  11.090   1.260   4.925  0.5756 -0.3017  0.5338
50176SOL    HW157643  11.080   1.309   5.006 -0.2944 -0.0418  0.2828
50176SOL    HW257644  11.001   1.231   4.904  0.6341  0.4223 -0.8106
50177SOL     OW57645   7.163   4.041   2.730  0.0104 -0.0535  0.1235
50177SOL    HW157646   7.225   4.059   2.659  1.1298 -1.2779  0.7642
50177SOL    HW257647   7.192   4.097   2.802  0.7367 -1.0453  0.6136
50178SOL     OW57648  11.621   3.729   8.466 -0.9428  0.0728  0.2008
50178SOL    HW157649  11.664   3.684   8.538 -2.7365 -0.1834  1.1917
50178SOL    HW257650  11.651   3.684   8.387 -0.1569 -0.6839  0.9189
50179SOL     OW57651  11.264  10.745  10.057 -0.2559  0.1399  0.1672
50179SOL    HW157652  11.273  10.781  10.145  0.1657  0.9862 -0.1989
50179SOL    HW257653  11.306  10.659  10.061 -1.2658 -0.3294  1.0631
50180SOL     OW57654  12.464   7.841   7.435  0.2244  0.2216  0.0116
50180SOL    HW157655  12.462   7.876   7.346 -1.0235  1.1415  0.3731
50180SOL    HW257656  12.459   7.919   7.491  0.2153 -0.3921  0.8765
50181SOL     OW57657   0.971  10.975   9.549 -0.5942 -0.4999 -0.0852
50181SOL    HW157658   0.953  11.065   9.521  1.6779 -0.0168 -0.1747
50181SOL    HW257659   1.041  10.983   9.613 -0.7975 -2.1745  0.3944
50182SOL     OW57660   6.095   5.692  12.529  0.1058 -0.1619  0.3323
50182SOL    HW157661   6.106   5.787  12.522 -0.5476 -0.0907  0.2316
50182SOL    HW257662   6.169   5.664  12.582  3.4986 -0.3029 -3.8874
50183SOL     OW57663  11.454   4.460   2.927 -0.5473 -0.4674  0.3239
50183SOL    HW157664  11.504   4.474   2.846 -1.4668  0.4828 -0.0964
50183SOL    HW257665  11.512   4.492   2.996 -1.6757  3.7763 -0.4109
50184SOL     OW57666   2.791   6.905   3.325 -0.3182 -0.5136 -0.1233
50184SOL    HW157667   2.705   6.936   3.356 -0.1670 -1.0782  0.9122
50184SOL    HW257668   2.774   6.819   3.288 -0.4068 -0.0626 -1.1647
50185SOL     OW57669   8.349   6.370   5.490 -0.5453  1.2188 -0.4230
50185SOL    HW157670   8.309   6.404   5.571  0.9206  1.6077  0.1564
50185SOL    HW257671   8.343   6.442   5.428  0.6092  1.8209  0.1405
50186SOL     OW57672   3.584   5.771   1.700  0.1408 -0.1208  0.6183
50186SOL    HW157673   3.559   5.841   1.761 -0.4473 -0.4554  0.7642
50186SOL    HW257674   3.501   5.736   1.669  0.4347  0.1804 -0.5408
50187SOL     OW57675  11.473   2.286   2.276  0.3001 -0.3056  0.1028
50187SOL    HW157676  11.466   2.381   2.268 -0.9493 -0.2129  1.7015
50187SOL    HW257677  11.543   2.272   2.340 -0.0479 -0.4204  0.4633
50188SOL     OW57678   3.030  10.639   5.099 -0.1794  0.1266 -0.0471
50188SOL    HW157679   2.984  10.711   5.058 -0.3073 -1.3368 -2.7102
50188SOL    HW257680   2.982  10.561   5.072  1.7113 -1.1726  0.1419
50189SOL     OW57681   1.578   6.336   9.617  0.3863 -0.1485  0.0752
50189SOL    HW157682   1.582   6.301   9.527 -0.4911 -0.6475  0.2184
50189SOL    HW257683   1.564   6.259   9.672  0.1205  0.2454  0.5652
50190SOL     OW57684   9.784   1.145   0.019 -0.0436  0.3115 -0.0556
50190SOL    HW157685   9.850   1.159   0.086 -0.0561 -0.4673  0.1235
50190SOL    HW257686   9.701   1.156   0.065 -0.0527 -0.2346  0.0634
50191SOL     OW57687   0.138  12.790   9.287 -0.5528  0.0106 -0.2501
50191SOL    HW157688   0.145  12.830   9.374 -0.3012  1.4649 -0.9027
50191SOL    HW257689   0.088  12.853   9.235 -0.0962 -0.4966 -1.3469
50192SOL     OW57690   9.193   6.582   0.912  0.3594 -0.1504  0.0846
50192SOL    HW157691   9.216   6.490   0.899  1.8603  0.1624  0.3673
50192SOL    HW257692   9.151   6.585   0.998  1.0609 -0.4419  0.4387
50193SOL     OW57693   7.019   2.666  12.629 -0.0987  0.3945  0.2418
50193SOL    HW157694   7.076   2.730  12.670  0.9871  0.4297 -1.2660
50193SOL    HW257695   6.950   2.718  12.587  1.3519  0.7454 -1.8836
50194SOL     OW57696   0.690   0.101   9.099 -0.5567 -0.6019  0.4407
50194SOL    HW157697   0.653   0.114   9.186 -0.5758 -0.0275  0.3521
50194SOL    HW257698   0.620   0.126   9.039 -0.3033 -0.2806  0.2699
50195SOL     OW57699  12.888   8.172   3.730 -0.1619 -0.0188  0.1053
50195SOL    HW157700  12.811   8.124   3.761 -0.3510 -0.1492 -0.5524
50195SOL    HW257701  12.903   8.239   3.797 -0.8746  0.0322  0.2202
50196SOL     OW57702   4.571  12.661  11.749 -0.5041 -0.8289  0.7033
50196SOL    HW157703   4.506  12.605  11.791 -3.1093  1.6803  0.2985
50196SOL    HW257704   4.558  12.647  11.655 -0.2136 -0.5484  0.6184
50197SOL     OW57705  11.522   1.902  12.513 -0.3977 -0.0066 -0.3941
50197SOL    HW157706  11.570   1.878  12.592 -0.2208 -2.3592 -1.1473
50197SOL    HW257707  11.589   1.936  12.453 -0.2099 -0.1732 -0.2770
50198SOL     OW57708   5.384   4.853  10.018  0.3553  0.1193  0.4788
50198SOL    HW157709   5.400   4.768  10.060  0.3852  0.0051  0.2431
50198SOL    HW257710   5.326   4.899  10.078 -0.7338 -0.5832  0.0005
50199SOL     OW57711   7.671   0.967   9.528  0.0055  0.1518  0.1089
50199SOL    HW157712   7.635   1.004   9.609  0.2078  0.9237 -0.1440
50199SOL    HW257713   7.647   0.874   9.531  1.3178 -0.1936  1.7983
50200SOL     OW57714   1.139  12.126  11.509 -0.5085  0.4187 -0.6176
50200SOL    HW157715   1.175  12.167  11.430  1.6559 -0.9503 -0.4074
50200SOL    HW257716   1.056  12.087  11.479 -0.9159  1.9664 -1.6067
50201SOL     OW57717  10.819  12.892   9.127  0.5835 -0.2342 -0.0234
50201SOL    HW157718  10.737  12.881   9.080  1.9748 -1.7708 -2.3053
50201SOL    HW257719  10.840  12.804   9.159  1.1997  0.1923  0.8001
50202SOL     OW57720   5.354   8.312   7.388 -0.9984 -0.3999  0.2249
50202SOL    HW157721   5.443   8.332   7.417 -1.1955  1.3880 -0.2722
50202SOL    HW257722   5.354   8.218   7.374  0.8937 -0.4066 -0.0267
50203SOL     OW57723   6.509   8.229  12.450  0.3686 -0.0326  0.5688
50203SOL    HW157724   6.438   8.285  12.481  1.5438  1.5108  0.6039
50203SOL    HW257725   6.588   8.277  12.473  1.4052 -1.2917 -0.2642
50204SOL     OW57726  11.588  10.086   2.111 -0.4525  0.0957 -0.2305
50204SOL    HW157727  11.556  10.156   2.169  0.0491  0.4123 -0.3296
50204SOL    HW257728  11.656  10.042   2.161 -0.3473  0.0646 -0.3991
50205SOL     OW57729   3.216   9.665   2.358  0.0906 -0.1149 -0.2811
50205SOL    HW157730   3.225   9.760   2.352  0.4629 -0.1696 -0.6595
50205SOL    HW257731   3.156   9.642   2.287 -0.7635 -0.0673  0.4087
50206SOL     OW57732  11.355   0.735   4.079 -0.0828  0.3960  0.6964
50206SOL    HW157733  11.362   0.829   4.063 -0.8509  0.7914  2.4751
50206SOL    HW257734  11.294   0.703   4.012  1.9286  0.6664 -1.4305
50207SOL     OW57735   4.056  12.298  11.925  0.6758 -0.0719  0.9281
50207SOL    HW157736   3.992  12.264  11.863  0.9472  0.8725  0.0948
50207SOL    HW257737   4.136  12.248  11.907  0.4130 -0.6616  1.3834
50208SOL     OW57738   8.429   7.299   0.016  0.1988 -0.1090  0.0703
50208SOL    HW157739   8.518   7.270  -0.003 -0.0545 -1.4149  0.7984
50208SOL    HW257740   8.426   7.389  -0.017  1.7411 -0.0841 -0.0714
50209SOL     OW57741   8.208  12.874   2.018 -0.1772  0.1325 -0.0029
50209SOL    HW157742   8.154  12.939   1.972 -0.1778  0.2257  0.1274
50209SOL    HW257743   8.222  12.804   1.954  0.1519  0.4425 -0.2748
50210SOL     OW57744   4.490  11.100  12.409  0.9738 -0.7287 -0.8262
50210SOL    HW157745   4.460  11.175  12.460  1.7716 -1.5458  0.9383
50210SOL    HW257746   4.461  11.118  12.320  0.6628  1.3846 -0.3381
50211SOL     OW57747   5.571   5.045  12.662 -0.3967 -0.1621 -0.4468
50211SOL    HW157748   5.661   5.077  12.676 -0.0024 -0.8514 -1.3097
50211SOL    HW257749   5.580   4.977  12.596 -1.7026  0.4417 -1.2741
50212SOL     OW57750   6.443   1.804   1.677  0.6100 -0.3213  0.2842
50212SOL    HW157751   6.452   1.775   1.586 -0.0891 -2.5154  0.8587
50212SOL    HW257752   6.373   1.750   1.713 -1.7734  3.0333  1.1723
50213SOL     OW57753   4.529  10.533   0.660  0.0973  0.1316  0.8271
50213SOL    HW157754   4.487  10.466   0.714  0.1109 -0.7666 -0.2403
50213SOL    HW257755   4.484  10.614   0.682 -0.2075 -0.3001  1.8355
50214SOL     OW57756   4.464  12.140   6.638 -0.6795  0.3342 -0.5813
50214SOL    HW157757   4.491  12.060   6.592  0.0446 -1.0168  2.0214
50214SOL    HW257758   4.544  12.192   6.643 -0.1686 -0.5424  1.0337
50215SOL     OW57759   3.723   5.400   4.703  0.8248 -0.4267 -0.4593
50215SOL    HW157760   3.775   5.394   4.623 -0.8576 -3.3197 -1.4666
50215SOL    HW257761   3.633   5.408   4.673  0.3835  2.8560  1.2431
50216SOL     OW57762   1.031  11.353   2.684  0.4234  0.0622  0.0308
50216SOL    HW157763   1.025  11.445   2.710  4.4742  0.2775  0.8851
50216SOL    HW257764   0.981  11.348   2.602  0.2569  3.0696 -0.1633
50217SOL     OW57765   9.345  11.402   2.448  0.4952  0.8176  0.2096
50217SOL    HW157766   9.318  11.373   2.535  1.0691 -0.9611 -0.1632
50217SOL    HW257767   9.264  11.437   2.409 -0.1288  0.1605  0.8798
50218SOL     OW57768  11.618   4.260   5.117 -0.2018 -0.3267  0.3301
50218SOL    HW157769  11.593   4.347   5.084 -0.7120 -0.1640  1.1106
50218SOL    HW257770  11.535   4.219   5.139  0.1271 -0.3280  1.6461
50219SOL     OW57771  11.795  12.305   4.992 -0.4013 -0.5220  0.5203
50219SOL    HW157772  11.808  12.236   5.057 -1.2117 -1.4589 -0.2732
50219SOL    HW257773  11.722  12.356   5.025 -0.9614 -1.1350  0.2538
50220SOL     OW57774   0.884   3.125   7.583 -0.1303 -0.1251  0.2388
50220SOL    HW157775   0.952   3.192   7.580  0.1200 -0.4166 -0.8700
50220SOL    HW257776   0.931   3.042   7.576 -0.5859 -0.3392 -0.3096
50221SOL     OW57777   1.372   1.781   8.771 -0.4158 -0.1570 -0.1412
50221SOL    HW157778   1.281   1.751   8.772 -1.0640  1.6570 -0.3247
50221SOL    HW257779   1.419   1.714   8.722 -1.6666 -1.0969 -0.1078
50222SOL     OW57780   6.761   2.509   0.402 -0.4037  0.2304 -0.2706
50222SOL    HW157781   6.671   2.493   0.431 -0.8446  1.8891 -0.6352
50222SOL    HW257782   6.793   2.577   0.461  0.0993  0.7105 -1.0978
50223SOL     OW57783  10.175   6.425  11.011 -0.0916 -0.0529 -0.3244
50223SOL    HW157784  10.261   6.458  11.037  0.4472  0.1120 -2.1586
50223SOL    HW257785  10.181   6.330  11.023 -0.2160  0.0989  1.0444
50224SOL     OW57786   3.332   8.414   5.626  0.4641  0.0513 -0.0403
50224SOL    HW157787   3.243   8.383   5.644  0.8727 -0.8964  0.4211
50224SOL    HW257788   3.341   8.410   5.531  1.1978 -3.4063  0.0351
50225SOL     OW57789   9.032   0.757   5.013 -0.8803 -0.4992  0.0015
50225SOL    HW157790   9.042   0.796   5.100  0.5933  0.3089 -0.5082
50225SOL    HW257791   8.970   0.815   4.968  0.7957  0.9552 -0.5318
50226SOL     OW57792   6.547   5.718   2.496  0.0262  0.0212 -0.2361
50226SOL    HW157793   6.509   5.806   2.496  0.4366  0.2158  1.1753
50226SOL    HW257794   6.505   5.674   2.422 -0.5190  1.2527 -0.6896
50227SOL     OW57795  10.864  10.062   3.230 -0.0471 -0.2498 -0.0740
50227SOL    HW157796  10.799   9.996   3.255  0.2941 -0.0840  1.3506
50227SOL    HW257797  10.823  10.145   3.254  0.5309 -0.1199  0.4755
50228SOL     OW57798   8.144  11.042  12.129 -0.2111  0.6583 -0.2393
50228SOL    HW157799   8.084  11.052  12.055  1.3072 -1.2552 -1.8597
50228SOL    HW257800   8.143  10.948  12.148  0.1367  0.9927  1.6000
50229SOL     OW57801   4.550  12.687   8.046  0.1292 -0.0549  0.0441
50229SOL    HW157802   4.625  12.726   8.002 -0.4765  0.2832 -0.7181
50229SOL    HW257803   4.538  12.602   8.003  1.1018 -0.8550  1.3182
50230SOL     OW57804   0.674  12.276   0.064  0.0229  0.2449  0.5296
50230SOL    HW157805   0.587  12.243   0.043 -0.3401  1.2733  0.3537
50230SOL    HW257806   0.699  12.229   0.144  0.4437 -1.9756 -0.8401
50231SOL     OW57807   2.541   1.562  12.963  0.0885 -0.0112 -0.3178
50231SOL    HW157808   2.491   1.640  12.986  0.8834 -0.1030  2.0330
50231SOL    HW257809   2.492   1.490  13.002  0.7934 -0.3538 -0.0440
50232SOL     OW57810  12.648   9.262   2.859  0.2420 -0.4355  0.1929
50232SOL    HW157811  12.557   9.242   2.839 -0.4919 -0.1523  2.8167
50232SOL    HW257812  12.682   9.182   2.901  0.9441 -0.2532 -0.0090
50233SOL     OW57813  10.864   1.240  12.953 -0.2095  0.4003 -0.0653
50233SOL    HW157814  10.939   1.239  12.893 -0.1202  0.2006  0.0490
50233SOL    HW257815  10.901   1.212  13.037 -0.4732  0.0046 -0.0805
50234SOL     OW57816   5.200  11.444   8.357  0.1500 -0.2981 -0.7050
50234SOL    HW157817   5.160  11.510   8.301  0.1137  1.3099  1.1259
50234SOL    HW257818   5.216  11.489   8.440  1.5480 -2.1735  0.1120
50235SOL     OW57819   7.440  12.837   6.056 -0.1057 -0.1733  0.2800
50235SOL    HW157820   7.462  12.897   5.984  1.3208 -0.0187  0.8164
50235SOL    HW257821   7.349  12.813   6.040  0.3043 -0.4962 -1.8288
50236SOL     OW57822   2.298   9.630   9.280 -0.5842 -0.0906  0.1315
50236SOL    HW157823   2.299   9.724   9.298  1.0755  0.1672 -1.0661
50236SOL    HW257824   2.220   9.617   9.225 -0.3554  0.7437 -0.4106
50237SOL     OW57825   4.760   7.229  10.511 -0.4139 -0.3729 -0.3017
50237SOL    HW157826   4.779   7.182  10.592 -3.8944 -1.3229  0.1112
50237SOL    HW257827   4.730   7.316  10.539 -0.7089 -0.3661 -0.6262
50238SOL     OW57828   5.416   7.510   7.544  0.3429 -0.4295  0.3994
50238SOL    HW157829   5.417   7.598   7.505  1.1891 -0.9500 -0.7950
50238SOL    HW257830   5.476   7.517   7.619  1.3138 -0.2766 -0.3805
50239SOL     OW57831   1.988   4.018  11.935  0.1399 -0.2529 -0.2907
50239SOL    HW157832   2.006   4.090  11.875 -1.0246  1.0345  0.8410
50239SOL    HW257833   1.903   4.039  11.974  1.4489 -0.2415  2.8544
50240SOL     OW57834   8.935   9.528   9.548 -0.2405 -0.6947  0.4177
50240SOL    HW157835   9.010   9.519   9.607 -0.6589  0.6516  1.2086
50240SOL    HW257836   8.860   9.545   9.606 -1.4981 -3.4549 -0.2419
50241SOL     OW57837   9.951   3.649   9.456  0.5255 -0.0215 -0.4932
50241SOL    HW157838  10.036   3.655   9.499 -0.4439  1.8053  1.3750
50241SOL    HW257839   9.891   3.692   9.517 -1.7043 -1.0411 -1.8513
50242SOL     OW57840   2.071   7.705   5.415  0.1898 -0.1815 -0.0253
50242SOL    HW157841   2.095   7.613   5.407  1.5398  0.0981  0.6124
50242SOL    HW257842   2.020   7.709   5.496  0.8341 -0.2381  0.3873
50243SOL     OW57843   9.936   8.823   8.754 -0.2868 -0.7913 -0.0307
50243SOL    HW157844   9.981   8.787   8.830  0.6627  0.7717  0.2001
50243SOL    HW257845   9.997   8.811   8.681 -0.8682 -1.5788 -0.4039
50244SOL     OW57846   0.775   5.058   0.616  0.1765 -0.4081  0.5386
50244SOL    HW157847   0.751   5.065   0.524  1.1779 -0.6459  0.2432
50244SOL    HW257848   0.764   5.147   0.650 -0.5002 -0.3871  0.2716
50245SOL     OW57849   0.016   1.883   6.625 -0.6049 -0.3216  0.0156
50245SOL    HW157850  -0.017   1.824   6.692 -0.3026  0.5746  0.9789
50245SOL    HW257851  -0.006   1.971   6.657 -0.0714  0.1421 -0.8439
50246SOL     OW57852   7.793  10.371   7.462 -0.4818  0.4384 -0.1570
50246SOL    HW157853   7.723  10.340   7.404 -0.1883  0.9175 -0.7731
50246SOL    HW257854   7.872  10.366   7.409 -0.1537  0.5644  0.3159
50247SOL     OW57855   5.684   8.666  11.585 -0.4969  0.2674 -0.1561
50247SOL    HW157856   5.688   8.589  11.529 -1.5091  0.9602 -1.2453
50247SOL    HW257857   5.627   8.727  11.538 -0.9246  1.1113  1.3729
50248SOL     OW57858   8.695  11.711   1.039 -0.0132 -0.2502  0.8224
50248SOL    HW157859   8.655  11.770   1.104 -0.5905 -0.6938  0.8796
50248SOL    HW257860   8.777  11.754   1.015 -1.3632  1.6642 -0.6886
50249SOL     OW57861   0.889   6.396  12.858 -0.0498 -0.2461 -0.4962
50249SOL    HW157862   0.824   6.378  12.926  1.7444  0.2667  1.4553
50249SOL    HW257863   0.890   6.492  12.851  1.3307 -0.1760  0.3940
50250SOL     OW57864   3.841   8.754   5.840 -0.3058 -0.0800  0.3143
50250SOL    HW157865   3.859   8.660   5.839  0.6329  0.0723 -0.8470
50250SOL    HW257866   3.780   8.768   5.767  1.9205  0.5482 -1.5714
50251SOL     OW57867   8.082  10.179   7.630  0.1217  0.9592 -0.2211
50251SOL    HW157868   8.012  10.132   7.585 -1.4095  1.7352  1.2143
50251SOL    HW257869   8.158  10.169   7.574 -0.8178 -0.9744 -1.2508
50252SOL     OW57870   4.739   0.505   9.571 -0.0609 -0.6743 -0.4265
50252SOL    HW157871   4.775   0.560   9.641  0.3747  0.4177 -1.4819
50252SOL    HW257872   4.813   0.452   9.542 -0.1976 -0.9968 -0.1946
50253SOL     OW57873  10.274   4.432   9.101  0.2315  0.1200 -0.1488
50253SOL    HW157874  10.179   4.448   9.102  0.1217 -0.4832 -0.4862
50253SOL    HW257875  10.295   4.422   9.008  0.6768  0.5249 -0.0935
50254SOL     OW57876   7.973  12.432   8.404  0.2048 -0.3415  0.1223
50254SOL    HW157877   7.903  12.376   8.371 -0.1754  0.5971 -0.7253
50254SOL    HW257878   7.980  12.502   8.339  2.5544 -0.8865 -0.2885
50255SOL     OW57879   0.466   2.156   6.346 -0.3508  0.9088 -0.3251
50255SOL    HW157880   0.460   2.245   6.383 -1.2528  1.6203 -2.0469
50255SOL    HW257881   0.547   2.157   6.295 -0.7482  1.0108 -0.9633
50256SOL     OW57882  12.892   0.147   6.013  0.3723 -0.1164  0.3062
50256SOL    HW157883  12.802   0.175   5.993  0.1252  0.2751  1.8248
50256SOL    HW257884  12.947   0.214   5.972 -0.1043  0.6528  0.8831
50257SOL     OW57885   7.018   7.232   2.739  0.1549 -0.1602 -0.0653
50257SOL    HW157886   6.927   7.239   2.710  0.0097 -2.1539 -0.2600
50257SOL    HW257887   7.013   7.217   2.833  0.2736 -0.2496 -0.0723
50258SOL     OW57888   1.492   8.644   9.097  0.0450 -0.2233  0.0123
50258SOL    HW157889   1.578   8.642   9.137  0.0965  0.1622 -0.0740
50258SOL    HW257890   1.431   8.657   9.170  0.1677  0.8659 -0.0642
50259SOL     OW57891   4.335   3.756   5.837  0.2263  0.4413  0.0298
50259SOL    HW157892   4.368   3.670   5.864 -0.6812 -0.2206 -0.8882
50259SOL    HW257893   4.327   3.750   5.742  0.5553  1.6992 -0.0944
50260SOL     OW57894   4.504   1.631   2.393  0.0865  0.0751 -0.1637
50260SOL    HW157895   4.528   1.679   2.313  0.7402  0.0527  0.0139
50260SOL    HW257896   4.419   1.592   2.372  0.2214  0.1181 -0.8297
50261SOL     OW57897   6.665   0.103   6.942  0.0038  0.2682 -0.6918
50261SOL    HW157898   6.678   0.198   6.933  1.7952 -0.0263 -1.7395
50261SOL    HW257899   6.649   0.090   7.035 -1.7117  1.7195 -0.7148
50262SOL     OW57900   8.168   8.297   3.472 -0.3959 -0.1288  0.3587
50262SOL    HW157901   8.084   8.313   3.427 -0.8560 -0.0774  1.2244
50262SOL    HW257902   8.202   8.217   3.432 -0.2673  0.5036 -0.8475
50263SOL     OW57903   5.596   9.676   7.073 -0.0114 -0.3436  0.2410
50263SOL    HW157904   5.578   9.647   6.984 -0.7798  0.0960  0.2485
50263SOL    HW257905   5.677   9.726   7.066  1.0365 -1.9559  0.1355
50264SOL     OW57906   8.201  10.970   7.343  0.4012  0.2280 -0.0640
50264SOL    HW157907   8.245  11.055   7.347 -0.7742  0.8407  0.3180
50264SOL    HW257908   8.221  10.937   7.256  3.1177 -0.3796  0.6913
50265SOL     OW57909  12.804   3.082   6.009 -0.0127  0.6197  0.1596
50265SOL    HW157910  12.714   3.076   5.976 -0.4229 -0.2258  1.3633
50265SOL    HW257911  12.796   3.065   6.103  1.2410  1.9463  0.5311
50266SOL     OW57912  11.772   0.461  11.194  0.6254 -0.0827 -0.0106
50266SOL    HW157913  11.743   0.463  11.103 -0.1379 -1.8624  0.1541
50266SOL    HW257914  11.861   0.425  11.190  0.8246  0.4112 -0.0917
50267SOL     OW57915   4.005   2.607   0.831 -0.5260 -0.3360  0.0478
50267SOL    HW157916   3.994   2.673   0.763 -1.6029 -0.0903  0.4398
50267SOL    HW257917   3.962   2.644   0.908 -2.0842 -1.8859 -0.0042
50268SOL     OW57918  11.934   4.538   4.957 -0.1227  0.1404  0.3075
50268SOL    HW157919  12.005   4.497   5.007 -0.8623 -0.6049  0.7658
50268SOL    HW257920  11.907   4.612   5.012 -0.7367 -0.5028  0.8846
50269SOL     OW57921   7.817   0.625   9.392 -0.4244  0.4155 -0.2062
50269SOL    HW157922   7.777   0.637   9.306  0.9266 -0.5182 -1.0231
50269SOL    HW257923   7.850   0.535   9.390 -1.7367 -0.1703  1.9060
50270SOL     OW57924   4.989   0.920   2.085 -0.2527  0.0092  0.0416
50270SOL    HW157925   5.073   0.951   2.052  0.6426 -0.8050  1.4437
50270SOL    HW257926   5.010   0.878   2.169 -2.0728 -0.1251  0.4750
50271SOL     OW57927   6.206   7.338   2.688 -0.2279  0.2280  0.2454
50271SOL    HW157928   6.262   7.318   2.763  0.7957  0.0986 -0.5254
50271SOL    HW257929   6.245   7.416   2.649 -0.8818  0.4219 -0.0285
50272SOL     OW57930   6.258   3.391   7.162 -0.1166  0.2569 -0.4289
50272SOL    HW157931   6.209   3.472   7.156  2.5536  1.9441 -1.0775
50272SOL    HW257932   6.304   3.383   7.079  0.0231 -1.7359 -0.2274
50273SOL     OW57933  10.946   7.028   0.925 -0.2107  0.4844  0.3266
50273SOL    HW157934  10.857   7.040   0.892 -0.2003  2.4545  0.8759
50273SOL    HW257935  10.967   7.111   0.968  1.4490 -0.3720  1.2808
50274SOL     OW57936   7.312   8.019  10.248  0.1331  0.4159  0.0165
50274SOL    HW157937   7.322   8.113  10.236 -0.7289  0.8073  1.9645
50274SOL    HW257938   7.286   8.009  10.340  1.9463 -1.8480  0.3850
50275SOL     OW57939   4.177   6.333  11.278 -0.1706 -0.8923  0.0320
50275SOL    HW157940   4.234   6.374  11.214 -0.0006 -2.7044 -1.0506
50275SOL    HW257941   4.209   6.243  11.286 -0.4240 -0.8493  2.4061
50276SOL     OW57942   0.581   9.477   8.769 -0.3916  0.2333 -0.3066
50276SOL    HW157943   0.598   9.406   8.832 -0.1545  1.4065  1.0035
50276SOL    HW257944   0.490   9.464   8.743 -0.9658  0.5139  1.3960
50277SOL     OW57945   4.795  11.598   1.447 -0.2233  0.0820  0.4558
50277SOL    HW157946   4.882  11.613   1.411  0.1881 -0.3409  1.2267
50277SOL    HW257947   4.767  11.515   1.408 -0.1390  0.0530  0.4576
50278SOL     OW57948  10.706  11.650   4.735 -0.4821 -0.1288 -0.2949
50278SOL    HW157949  10.768  11.715   4.703 -0.0657  0.2559  1.2325
50278SOL    HW257950  10.749  11.610   4.810 -2.8655  1.7286  2.2943
50279SOL     OW57951   7.637   1.475   1.457 -0.5768 -0.1008  0.0635
50279SOL    HW157952   7.635   1.550   1.517  0.8523 -0.1001  0.1448
50279SOL    HW257953   7.603   1.403   1.509 -1.2674  0.3221  0.2194
50280SOL     OW57954   2.651   3.475  11.671 -0.3238  0.2087  0.1930
50280SOL    HW157955   2.589   3.485  11.599 -0.8077 -2.3524  0.1614
50280SOL    HW257956   2.712   3.408  11.640 -0.4954 -0.8916  2.1050
50281SOL     OW57957   7.621   3.319   7.715  0.1258 -0.1853  0.2109
50281SOL    HW157958   7.668   3.259   7.774 -0.8820 -1.6012 -0.3491
50281SOL    HW257959   7.541   3.271   7.692 -1.2724  1.8291  0.5745
50282SOL     OW57960   6.918   8.020   4.044 -0.2319  0.3067 -0.4230
50282SOL    HW157961   6.945   8.112   4.041  1.3397 -0.1170 -0.0007
50282SOL    HW257962   6.937   7.987   3.956 -0.4444  0.2860 -0.4613
50283SOL     OW57963   4.430   6.562   9.284  0.2112 -0.9208 -0.0161
50283SOL    HW157964   4.384   6.483   9.314 -1.8634  0.4888  0.7188
50283SOL    HW257965   4.361   6.621   9.255  1.7262  0.5772 -0.7898
50284SOL     OW57966   3.304   4.782   2.318 -0.4659  0.0091  0.0720
50284SOL    HW157967   3.233   4.781   2.254 -0.2268 -0.2549 -0.1885
50284SOL    HW257968   3.380   4.749   2.271 -0.1882  0.2099  0.3748
50285SOL     OW57969  11.645   2.389  12.537  1.1544  0.4201  0.0483
50285SOL    HW157970  11.643   2.335  12.616 -2.0890  1.2634  0.6618
50285SOL    HW257971  11.611   2.331  12.468  2.1812  0.2782 -0.3605
50286SOL     OW57972   5.581   0.501  11.301 -0.3735 -0.6846  0.2099
50286SOL    HW157973   5.554   0.501  11.209 -0.4661  1.4905  0.1735
50286SOL    HW257974   5.675   0.520  11.298 -0.2324 -1.3179  0.5518
50287SOL     OW57975   5.851   7.616   2.637 -0.3158 -0.1899 -0.4076
50287SOL    HW157976   5.868   7.546   2.701  0.5468  1.7701  1.6482
50287SOL    HW257977   5.781   7.667   2.677  1.6585  2.2921  0.0839
50288SOL     OW57978   7.335   2.955  10.557 -0.1230 -0.0945 -0.3992
50288SOL    HW157979   7.334   2.884  10.492  0.1694  0.4759 -1.0411
50288SOL    HW257980   7.254   2.944  10.606 -0.1813 -0.7456 -0.6303
50289SOL     OW57981   0.856   1.063   3.518 -0.2588  0.2896  0.7423
50289SOL    HW157982   0.792   1.038   3.452  0.3133 -0.2116  0.3588
50289SOL    HW257983   0.868   1.158   3.505  0.2427  0.1106 -0.2569
50290SOL     OW57984   3.042   5.593   0.447 -0.9019 -0.0779 -0.1640
50290SOL    HW157985   3.044   5.598   0.543 -2.4696 -0.8587 -0.0660
50290SOL    HW257986   3.103   5.523   0.425  0.7504  1.2217  0.1334
50291SOL     OW57987   4.028   9.024  11.920 -0.4820  0.1874  0.5439
50291SOL    HW157988   3.939   8.989  11.924  0.1514 -1.4378  1.9832
50291SOL    HW257989   4.042   9.062  12.007  0.3345  0.1725  0.4250
50292SOL     OW57990   0.369   9.732  10.601  0.3113 -0.0249  0.8240
50292SOL    HW157991   0.406   9.672  10.666  1.0400 -0.1771  0.2801
50292SOL    HW257992   0.436   9.739  10.534 -0.5543 -0.1174 -0.0801
50293SOL     OW57993   9.067   3.905  10.746 -0.5051  0.0719  0.3418
50293SOL    HW157994   9.052   4.000  10.741 -0.6389  0.1809  2.0455
50293SOL    HW257995   9.161   3.896  10.756 -0.5858  0.1003  1.1917
50294SOL     OW57996   7.414  11.603   4.335 -0.8488 -0.1778 -0.2290
50294SOL    HW157997   7.357  11.677   4.318 -0.6768 -0.0312 -0.1636
50294SOL    HW257998   7.360  11.526   4.316 -0.7972 -0.0273 -1.0378
50295SOL     OW57999   9.962   2.907   4.720  0.5353 -0.9284  0.1639
50295SOL    HW158000   9.969   2.973   4.789  0.6933 -1.0715  0.2860
50295SOL    HW258001  10.022   2.837   4.747 -1.6557 -2.4203  1.4893
50296SOL     OW58002  11.163  10.612   4.830  0.2073 -0.0664  0.2255
50296SOL    HW158003  11.114  10.692   4.810 -0.0678  0.1177  1.5678
50296SOL    HW258004  11.190  10.579   4.744 -0.2524  1.0971 -0.3932
50297SOL     OW58005  11.867   8.436   1.049  0.2611  0.2581 -0.5667
50297SOL    HW158006  11.904   8.510   1.098  0.0480 -0.6321  1.0228
50297SOL    HW258007  11.931   8.366   1.062 -1.2405 -0.8968  1.0711
50298SOL     OW58008  10.133   3.647  11.667  0.3595  0.2568  0.3068
50298SOL    HW158009  10.087   3.563  11.670  0.7606  0.0467  0.6469
50298SOL    HW258010  10.133   3.677  11.758  1.2756  0.0501  0.3802
50299SOL     OW58011   8.626  11.056   7.484  0.3026  0.1099 -0.0031
50299SOL    HW158012   8.606  11.147   7.462 -0.1932 -0.1708 -0.7618
50299SOL    HW258013   8.716  11.058   7.515  0.5196  0.7668 -0.6405
50300SOL     OW58014   6.014   7.072   7.143  0.0861 -0.0078 -0.4191
50300SOL    HW158015   6.065   7.141   7.099  2.6286 -2.2774 -1.3488
50300SOL    HW258016   6.044   7.074   7.234 -0.7531  0.8797 -0.1577
50301SOL     OW58017   2.150   3.027   7.460 -0.2493  0.3765 -0.0211
50301SOL    HW158018   2.176   2.935   7.454  0.0923  0.5074 -0.6495
50301SOL    HW258019   2.122   3.049   7.371  1.3727  1.3782 -0.3137
50302SOL     OW58020   6.638   2.461   5.774  0.0147 -0.1166  0.4899
50302SOL    HW158021   6.662   2.531   5.833  0.4983  1.0137 -0.9834
50302SOL    HW258022   6.644   2.500   5.686  1.1335 -2.2170 -0.4459
50303SOL     OW58023  12.765   6.793   3.560  0.0782  0.7184  0.6406
50303SOL    HW158024  12.715   6.746   3.627  1.6361 -0.2838  1.1614
50303SOL    HW258025  12.700   6.842   3.511 -1.4513 -0.8553  1.0156
50304SOL     OW58026   9.033   2.913   6.287  0.1007  0.5527  0.1308
50304SOL    HW158027   9.001   2.907   6.377  0.3522 -0.6142  0.1585
50304SOL    HW258028   8.962   2.876   6.234  1.4883 -2.5631  0.2385
50305SOL     OW58029  12.401  11.098   6.710  0.1129  0.1922 -0.0472
50305SOL    HW158030  12.362  11.128   6.792  0.0388 -0.1207  0.0353
50305SOL    HW258031  12.327  11.068   6.657  0.1509  0.4890 -0.2697
50306SOL     OW58032   3.301   8.344   0.265  0.4513  0.1041 -0.4317
50306SOL    HW158033   3.389   8.311   0.281  0.2561  0.1680  0.9368
50306SOL    HW258034   3.244   8.278   0.305 -0.0835  0.4948 -0.5410
50307SOL     OW58035   4.526   3.200   9.146 -0.3322 -0.1607 -0.0919
50307SOL    HW158036   4.566   3.256   9.079 -0.4203 -0.7325 -0.6221
50307SOL    HW258037   4.576   3.220   9.226  0.5877 -0.3746 -0.5977
50308SOL     OW58038  12.230   0.828   8.008 -0.6336 -0.3025 -0.1452
50308SOL    HW158039  12.148   0.814   7.961 -0.2259 -2.3677 -0.3512
50308SOL    HW258040  12.289   0.760   7.974  0.9043  0.5872  0.6110
50309SOL     OW58041   5.618   0.267   9.280  0.1404  0.2871 -0.2983
50309SOL    HW158042   5.631   0.321   9.202  2.1824 -0.7730 -0.7648
50309SOL    HW258043   5.645   0.323   9.353  2.0168  0.0474 -0.7547
50310SOL     OW58044   4.846   1.378  11.738  0.4216  0.8201  0.1834
50310SOL    HW158045   4.904   1.374  11.814  0.1432 -0.6896  0.3417
50310SOL    HW258046   4.904   1.373  11.662  0.4916 -1.2332  0.3422
50311SOL     OW58047   7.709   3.855   5.624 -0.3378 -0.0234 -0.1715
50311SOL    HW158048   7.670   3.942   5.615 -1.4751 -0.5210 -0.2154
50311SOL    HW258049   7.635   3.796   5.632  0.4137 -1.0170 -0.2892
50312SOL     OW58050   3.491   2.009   4.043 -0.0002  0.0017  0.2972
50312SOL    HW158051   3.459   1.919   4.038 -1.0090  0.3844 -0.2581
50312SOL    HW258052   3.442   2.048   4.115 -0.9593  0.6515 -0.6929
50313SOL     OW58053   5.659   9.333   1.137  0.2579 -0.7280 -0.0766
50313SOL    HW158054   5.745   9.325   1.095  0.2476  0.0138 -0.2645
50313SOL    HW258055   5.677   9.372   1.222  0.1665 -1.1758  0.1500
50314SOL     OW58056   7.634   4.182   1.977  0.1537 -0.2408  0.2599
50314SOL    HW158057   7.553   4.223   1.948  1.1374  0.3474 -1.7955
50314SOL    HW258058   7.690   4.181   1.900  1.4573 -2.3147  1.1516
50315SOL     OW58059   8.227   8.201   9.428 -0.1871  0.7724 -0.0025
50315SOL    HW158060   8.268   8.234   9.508 -2.9401  3.7707  0.3766
50315SOL    HW258061   8.171   8.129   9.458  2.0203 -1.0867 -0.0417
50316SOL     OW58062  12.311  10.057  12.285 -0.3271  0.1312  0.4326
50316SOL    HW158063  12.287   9.988  12.223 -1.6903  0.7629  0.2239
50316SOL    HW258064  12.406  10.052  12.292 -0.0884  0.3301 -2.0370
50317SOL     OW58065   3.217   2.431   1.022 -0.3705 -0.3565  0.3303
50317SOL    HW158066   3.257   2.442   1.108  2.3396 -2.6196 -0.4794
50317SOL    HW258067   3.248   2.506   0.971 -2.0836  1.0553  1.2675
50318SOL     OW58068   6.939   8.576  11.517 -0.1015 -0.1401  0.3678
50318SOL    HW158069   6.874   8.638  11.485  0.8816  2.1237  2.4112
50318SOL    HW258070   7.021   8.605  11.476  0.1946 -0.7100  0.5512
50319SOL     OW58071   9.216   8.293   6.653  0.0426  0.4968  0.2413
50319SOL    HW158072   9.169   8.214   6.625 -2.8221  1.6232  1.4704
50319SOL    HW258073   9.203   8.295   6.748  3.2462  0.6006  0.7828
50320SOL     OW58074   7.472  10.863   1.560  0.4074  0.0769  0.3321
50320SOL    HW158075   7.526  10.914   1.500 -0.5091 -0.1137 -0.6981
50320SOL    HW258076   7.529  10.844   1.634  0.8269  2.4959  0.7215
50321SOL     OW58077   9.281   4.500  10.425  0.4175 -0.3321 -0.1855
50321SOL    HW158078   9.186   4.494  10.420  0.2824  1.2788 -0.1028
50321SOL    HW258079   9.312   4.445  10.352 -0.5746 -0.6749 -0.3675
50322SOL     OW58080   8.124  11.882  12.957  0.2454  0.2960 -0.0711
50322SOL    HW158081   8.097  11.872  13.049  0.0460 -1.7639 -0.3114
50322SOL    HW258082   8.172  11.965  12.955  0.2178  0.4019  1.8872
50323SOL     OW58083   1.909  10.788   2.295 -0.1852 -0.2460  0.4332
50323SOL    HW158084   1.870  10.704   2.320 -0.3260 -0.2452  0.2109
50323SOL    HW258085   1.946  10.822   2.377  0.4602 -0.8351  0.3979
50324SOL     OW58086   3.461   2.375  11.113 -0.4633 -0.1275  0.0324
50324SOL    HW158087   3.492   2.387  11.202  0.2821  1.6576 -0.4195
50324SOL    HW258088   3.468   2.462  11.073 -0.6835 -0.8934 -1.7917
50325SOL     OW58089   6.325   9.870  11.477 -0.4694 -0.0260 -0.3329
50325SOL    HW158090   6.393   9.938  11.472 -0.0943 -0.4372 -0.8793
50325SOL    HW258091   6.328   9.841  11.568 -0.6031  0.6576 -0.1006
50326SOL     OW58092  10.789   1.333   9.612  0.1697  0.0258  0.1744
50326SOL    HW158093  10.721   1.373   9.666  1.0412  0.5858  0.8889
50326SOL    HW258094  10.861   1.317   9.673  0.3507 -1.3919 -0.3733
50327SOL     OW58095   9.343  11.647   2.184 -0.8456 -0.3553  0.0686
50327SOL    HW158096   9.423  11.615   2.225 -1.5857 -1.9482  0.3524
50327SOL    HW258097   9.284  11.667   2.257 -1.0924 -0.2704 -0.1501
50328SOL     OW58098  12.454   8.471   8.388  0.4518 -0.5425  0.0094
50328SOL    HW158099  12.471   8.510   8.474 -0.0906 -1.8286  0.7454
50328SOL    HW258100  12.422   8.383   8.409  0.1369 -0.8117 -1.5179
50329SOL     OW58101   3.322   8.097   7.908 -0.5783 -1.1128  0.6732
50329SOL    HW158102   3.275   8.019   7.878  1.1905 -2.7829  1.9304
50329SOL    HW258103   3.410   8.087   7.869 -0.9175  1.4837 -0.9719
50330SOL     OW58104  11.586   5.829   2.364 -0.1520  0.3026  0.1189
50330SOL    HW158105  11.597   5.738   2.390 -0.3142 -0.3627 -1.9588
50330SOL    HW258106  11.645   5.840   2.289  1.3700  2.4873  1.5169
50331SOL     OW58107   0.690   6.742   7.856 -0.1275  0.4451  0.5773
50331SOL    HW158108   0.629   6.802   7.900 -0.3082  0.3993  0.3903
50331SOL    HW258109   0.768   6.743   7.912 -0.1097  0.8920  0.5495
50332SOL     OW58110   4.569   6.965   5.142 -0.6101 -0.4278 -0.0483
50332SOL    HW158111   4.599   6.911   5.069  2.1362 -0.6177  1.0896
50332SOL    HW258112   4.548   6.903   5.211 -2.1940 -0.2037 -0.3017
50333SOL     OW58113   9.768  10.255  10.204 -0.0250  0.2983  0.0313
50333SOL    HW158114   9.817  10.243  10.286 -0.7061  1.3641  0.6141
50333SOL    HW258115   9.809  10.193  10.143 -0.1260 -1.2325  1.4269
50334SOL     OW58116   2.267   0.481   5.820  0.0031  0.2399  0.1038
50334SOL    HW158117   2.305   0.441   5.898 -0.2865 -0.7359 -0.2363
50334SOL    HW258118   2.250   0.572   5.844  2.2343  0.6409  0.3856
50335SOL     OW58119   0.287  10.343  10.311 -0.1390  0.0441  0.0397
50335SOL    HW158120   0.340  10.423  10.310  0.5644 -0.3906  0.9021
50335SOL    HW258121   0.196  10.374  10.315  0.1332  0.7970  0.5104
50336SOL     OW58122   2.942   7.720   1.095 -0.1628  0.2445  0.4543
50336SOL    HW158123   3.017   7.779   1.082 -0.2859 -0.0435 -1.9885
50336SOL    HW258124   2.867   7.771   1.065 -0.4290 -0.6828 -0.5196
50337SOL     OW58125   9.705   0.934   7.197  0.2652 -0.2916  0.4692
50337SOL    HW158126   9.631   0.984   7.230  0.9834 -0.2294  2.0664
50337SOL    HW258127   9.666   0.871   7.136 -0.9025  0.7071  0.1426
50338SOL     OW58128   7.759  11.470   7.679  0.1633  0.2868 -0.0278
50338SOL    HW158129   7.705  11.406   7.632  2.1748 -1.5294  0.0162
50338SOL    HW258130   7.747  11.552   7.630  0.0347 -0.8806 -2.0397
50339SOL     OW58131  12.350   1.330   9.816 -0.5050 -0.1095  0.2776
50339SOL    HW158132  12.409   1.301   9.747 -0.1194 -1.2576  1.0589
50339SOL    HW258133  12.268   1.350   9.770  0.2296  0.7240 -0.7078
50340SOL     OW58134   8.929   2.291   0.504 -0.1676 -0.7595 -0.3540
50340SOL    HW158135   8.918   2.309   0.411 -1.6051 -0.5579 -0.1747
50340SOL    HW258136   9.023   2.299   0.520 -0.0076  0.0650 -1.6043
50341SOL     OW58137   1.473   4.515   2.945 -0.9430 -0.3829  0.3860
50341SOL    HW158138   1.421   4.516   2.865  0.7344 -0.6428 -0.7561
50341SOL    HW258139   1.529   4.592   2.938  1.2417 -1.9326 -0.1361
50342SOL     OW58140   4.291   0.745   1.983 -0.2122  0.0585 -0.1236
50342SOL    HW158141   4.211   0.782   1.945 -0.4887 -0.4454 -0.0479
50342SOL    HW258142   4.264   0.716   2.071 -0.0305 -0.4114 -0.2198
50343SOL     OW58143   0.065  10.612   1.786  0.1179 -0.2311 -0.0055
50343SOL    HW158144   0.048  10.700   1.753 -0.2709 -0.3057 -0.0057
50343SOL    HW258145   0.160  10.604   1.785  0.2699  0.7947  1.5227
50344SOL     OW58146   3.610   0.503   1.530 -0.0027 -1.0749  0.0439
50344SOL    HW158147   3.679   0.554   1.573 -1.4226  1.0825 -0.0985
50344SOL    HW258148   3.656   0.425   1.496  2.2087 -0.0771  0.5435
50345SOL     OW58149   5.278  12.305   5.890  0.3069  1.0368  0.0615
50345SOL    HW158150   5.263  12.337   5.979 -3.7883  2.5580 -0.9631
50345SOL    HW258151   5.294  12.384   5.838  3.6507  0.1178 -0.5873
50346SOL     OW58152  10.791  11.537   5.720 -0.9310  0.0516  0.0140
50346SOL    HW158153  10.879  11.532   5.683 -0.9491  0.0610 -0.0297
50346SOL    HW258154  10.791  11.472   5.791 -0.5861  0.7176  0.6383
50347SOL     OW58155   8.242   1.626   3.144  0.1606  0.0029 -0.4409
50347SOL    HW158156   8.253   1.615   3.239  1.9336  2.7002 -0.2314
50347SOL    HW258157   8.320   1.583   3.107  1.5546  2.2831 -0.3255
50348SOL     OW58158   9.566   9.111  11.719 -0.3884  0.2288 -0.4599
50348SOL    HW158159   9.555   9.032  11.667 -0.0846  0.5671 -1.0529
50348SOL    HW258160   9.489   9.164  11.699 -0.0550  0.5469 -0.9080
50349SOL     OW58161  12.243   7.466   8.832 -0.7691 -0.0991 -0.9289
50349SOL    HW158162  12.173   7.479   8.897  0.1487  0.5390 -0.0334
50349SOL    HW258163  12.322   7.499   8.875 -0.2570  1.0745 -2.6634
50350SOL     OW58164   0.340   7.695   9.307 -0.1164  0.6418  0.3812
50350SOL    HW158165   0.431   7.716   9.285 -0.2285  1.3079  0.5391
50350SOL    HW258166   0.333   7.601   9.290  0.8469  0.3981  1.2051
50351SOL     OW58167   4.999   1.364  11.975  0.5532 -0.5615  0.0307
50351SOL    HW158168   5.043   1.282  11.996 -0.4814 -0.9537  0.7755
50351SOL    HW258169   5.070   1.427  11.961  1.4086 -1.8223 -1.7318
50352SOL     OW58170  11.565   7.326  10.776 -0.1936  0.2684  0.1267
50352SOL    HW158171  11.610   7.288  10.701 -1.3069  0.2266 -0.5448
50352SOL    HW258172  11.582   7.420  10.769 -1.6277  0.4740 -1.1470
50353SOL     OW58173  10.283   8.020   8.742 -0.0251 -0.2156  0.3235
50353SOL    HW158174  10.378   8.018   8.751  0.0518 -1.2693 -0.4556
50353SOL    HW258175  10.268   8.021   8.648 -0.7821 -0.0986  0.4443
50354SOL     OW58176   2.853  10.040  11.555  0.2338  0.5145  0.3198
50354SOL    HW158177   2.831  10.068  11.643 -0.4567  1.1977 -0.0577
50354SOL    HW258178   2.787  10.082  11.499  1.3716  1.0932 -0.6473
50355SOL     OW58179   9.351   4.037   3.400 -0.0037  0.4501 -1.0224
50355SOL    HW158180   9.264   4.057   3.365  0.5012  1.0797 -1.9577
50355SOL    HW258181   9.403   4.115   3.381  0.6662  0.2270 -0.1326
50356SOL     OW58182   7.845   2.107  10.683  0.1273 -0.0386  0.2453
50356SOL    HW158183   7.886   2.161  10.615  1.2994 -4.0808 -2.6480
50356SOL    HW258184   7.753   2.104  10.658  0.1874  0.0738  0.0040
50357SOL     OW58185   6.461   2.672   4.903  0.1964 -0.2747  0.2484
50357SOL    HW158186   6.544   2.668   4.856  0.6777 -0.6808  1.1241
50357SOL    HW258187   6.464   2.599   4.964  0.2269  1.0774  1.9609
50358SOL     OW58188   8.990  11.240  10.867 -0.5653 -0.4836  0.4993
50358SOL    HW158189   9.051  11.274  10.802  1.0835  1.3453  2.8192
50358SOL    HW258190   8.929  11.313  10.883 -1.5653 -1.2560  0.3274
50359SOL     OW58191  10.156  11.373   4.130  0.1037 -0.4426  0.2426
50359SOL    HW158192  10.214  11.444   4.103 -0.1789 -0.8003 -1.4176
50359SOL    HW258193  10.139  11.390   4.223  2.1505  0.1428  0.5482
50360SOL     OW58194   9.746   3.741  12.297  0.0567 -0.6573  0.0854
50360SOL    HW158195   9.653   3.754  12.279  0.2087  0.0145 -0.2571
50360SOL    HW258196   9.791   3.802  12.238  0.6598 -0.0612  1.1198
50361SOL     OW58197   4.722  12.358   4.588  0.2238  0.5355 -0.4130
50361SOL    HW158198   4.786  12.412   4.541 -0.5250 -0.8586 -3.2288
50361SOL    HW258199   4.674  12.311   4.519 -1.7709 -0.7939  1.7266
50362SOL     OW58200   3.368   4.330   7.088  0.0879 -0.2553 -0.0937
50362SOL    HW158201   3.356   4.268   7.160  1.4523  1.6382  1.8836
50362SOL    HW258202   3.297   4.394   7.099 -1.6446 -1.6021 -2.4446
50363SOL     OW58203   0.607   7.369   2.208 -0.6089 -0.1751  0.3224
50363SOL    HW158204   0.667   7.438   2.177  1.2352 -0.6554  2.5563
50363SOL    HW258205   0.561   7.409   2.282 -1.6451 -0.4630 -0.1524
50364SOL     OW58206   1.294   8.334   3.714  0.0375 -0.1885 -0.6909
50364SOL    HW158207   1.208   8.366   3.739  0.9405  0.8927  1.3363
50364SOL    HW258208   1.278   8.268   3.647 -2.4527 -1.0146  0.6121
50365SOL     OW58209  10.849   2.755   5.548 -0.2827 -0.5398  0.0511
50365SOL    HW158210  10.866   2.783   5.638  1.6547  1.2024 -0.7676
50365SOL    HW258211  10.910   2.683   5.533  1.4348  0.9384 -0.6066
50366SOL     OW58212  10.737   6.240  11.505  0.2050 -0.1384  0.1021
50366SOL    HW158213  10.657   6.244  11.453  0.7717 -0.1667 -0.7877
50366SOL    HW258214  10.808   6.233  11.441  1.0335  1.3115  0.8183
50367SOL     OW58215   1.473   4.418  11.215 -0.6067  0.2658  0.3508
50367SOL    HW158216   1.518   4.499  11.190 -2.3597  1.0767 -0.3836
50367SOL    HW258217   1.405   4.446  11.275 -0.2411 -0.9149  1.3575
50368SOL     OW58218   5.861   5.156   0.200  0.1463  1.0036 -0.6389
50368SOL    HW158219   5.794   5.218   0.227 -1.2296 -0.5263 -0.3876
50368SOL    HW258220   5.879   5.104   0.279  0.3949  0.3095 -1.1430
50369SOL     OW58221  11.490  10.762  10.462 -0.0810  0.0016 -0.0243
50369SOL    HW158222  11.464  10.679  10.423  0.4995  0.1981 -0.8424
50369SOL    HW258223  11.541  10.806  10.394 -0.6447  1.1698  0.2808
50370SOL     OW58224   2.410  10.498  11.991 -0.3086  0.3532  0.0176
50370SOL    HW158225   2.329  10.521  12.037  0.2369  0.9150  0.7360
50370SOL    HW258226   2.479  10.522  12.053  0.3622 -2.3005  0.4169
50371SOL     OW58227   1.522  10.056  10.086 -0.3637  0.3750  1.1335
50371SOL    HW158228   1.428  10.048  10.068 -0.4813  2.4163  0.5449
50371SOL    HW258229   1.542  10.148  10.066  2.3046 -0.5808 -1.2097
50372SOL     OW58230   7.720   9.334   3.172  0.5476 -0.4916  0.1458
50372SOL    HW158231   7.702   9.395   3.244 -1.0081 -0.9389  0.1792
50372SOL    HW258232   7.635   9.324   3.128  1.4620 -0.1331 -1.8428
50373SOL     OW58233   6.564  11.484   5.679  0.0009 -0.2659 -0.0325
50373SOL    HW158234   6.635  11.465   5.617 -0.1629  0.2400 -0.3856
50373SOL    HW258235   6.589  11.439   5.759 -1.2307 -3.4498 -1.2966
50374SOL     OW58236   8.795   4.952  12.385 -0.0110  0.2008 -0.6111
50374SOL    HW158237   8.729   4.911  12.330  0.6985 -0.7091 -0.8075
50374SOL    HW258238   8.851   4.880  12.414 -1.3091  0.3647  2.6941
50375SOL     OW58239  12.798   5.054   1.988 -0.5739  0.0274  0.7151
50375SOL    HW158240  12.877   5.098   1.956 -1.3988 -0.2815 -1.9413
50375SOL    HW258241  12.777   5.100   2.070  0.5829  2.2206 -0.1361
50376SOL     OW58242   5.971   8.052   1.624  1.2871  0.3895 -0.1947
50376SOL    HW158243   5.901   7.988   1.607  1.3263  0.3737 -0.2961
50376SOL    HW258244   5.944   8.130   1.575  0.8979  0.6816  0.4690
50377SOL     OW58245   3.444  11.048  12.422  0.5365 -0.4481  0.3758
50377SOL    HW158246   3.445  11.141  12.399 -1.1102 -0.2184  1.0656
50377SOL    HW258247   3.483  11.004  12.347 -0.3964  0.6602 -0.8113
50378SOL     OW58248   1.707  11.228   9.761 -0.3006 -0.4936 -0.1241
50378SOL    HW158249   1.617  11.262   9.762  0.5891  2.1377 -1.2019
50378SOL    HW258250   1.733  11.228   9.853 -1.1801 -0.7039  0.1410
50379SOL     OW58251   0.163   8.784   1.547 -0.0933 -0.0821  0.3838
50379SOL    HW158252   0.181   8.873   1.578  0.3662  0.0855 -0.3326
50379SOL    HW258253   0.212   8.728   1.607 -0.4282  0.1361  0.8728
50380SOL     OW58254  10.589   7.267  10.638 -0.4181  0.3050 -0.1912
50380SOL    HW158255  10.526   7.215  10.688 -1.2515  0.4790 -1.0386
50380SOL    HW258256  10.546   7.352  10.626 -1.2163 -0.4186 -3.0814
50381SOL     OW58257   5.763  12.296   7.026 -0.2327  0.1280  0.6305
50381SOL    HW158258   5.823  12.324   7.096  1.3688 -0.2116 -0.5341
50381SOL    HW258259   5.804  12.218   6.990  0.4331  1.6866 -2.3546
50382SOL     OW58260   9.359   9.756   9.568  0.1570 -0.2741 -0.1219
50382SOL    HW158261   9.375   9.754   9.473  0.9643 -0.1529  0.0010
50382SOL    HW258262   9.430   9.810   9.603  0.0280 -0.5508  0.5816
50383SOL     OW58263   7.106  11.404   0.645 -0.1245 -0.0596 -0.1094
50383SOL    HW158264   7.021  11.410   0.688 -0.8109  1.9104 -1.5820
50383SOL    HW258265   7.170  11.413   0.716 -1.1446 -0.3254  0.8699
50384SOL     OW58266   7.085  11.238  10.800  0.3685 -0.3310  0.1471
50384SOL    HW158267   7.125  11.280  10.876 -1.8878 -0.4037  1.4482
50384SOL    HW258268   7.071  11.147  10.827  1.9221 -1.0814 -1.3580
50385SOL     OW58269   7.422   8.491   7.442 -0.4993  0.1881 -0.2806
50385SOL    HW158270   7.475   8.565   7.412 -1.1680  0.8937  0.2418
50385SOL    HW258271   7.333   8.512   7.416 -0.5303 -1.0625 -1.2791
50386SOL     OW58272   0.478   0.566  10.128 -0.2179  0.1845 -0.1257
50386SOL    HW158273   0.542   0.560  10.200 -0.7831  0.2645  0.3878
50386SOL    HW258274   0.462   0.660  10.119 -0.7204  0.1295  0.1600
50387SOL     OW58275   3.607   8.313   6.491 -0.0287  0.3166  0.2412
50387SOL    HW158276   3.611   8.406   6.465  0.7625  0.2208 -0.0155
50387SOL    HW258277   3.593   8.266   6.409 -1.9158  0.2795  0.5346
50388SOL     OW58278   1.884   7.810   4.677  0.6838  0.3632 -0.6189
50388SOL    HW158279   1.977   7.832   4.679  0.5518  1.6848 -3.6015
50388SOL    HW258280   1.867   7.768   4.761  3.8063  0.6818  0.2802
50389SOL     OW58281   8.827   6.871   3.602  0.1407  0.7278 -0.3221
50389SOL    HW158282   8.881   6.816   3.544 -2.0807  0.4251 -2.2625
50389SOL    HW258283   8.807   6.814   3.677 -0.4832 -0.4618 -1.3510
50390SOL     OW58284   2.722   9.187  12.541  0.2151 -0.1839  0.5571
50390SOL    HW158285   2.735   9.101  12.581 -0.3981 -1.0478 -1.0006
50390SOL    HW258286   2.739   9.173  12.447  0.8246  1.5683  0.3749
50391SOL     OW58287   5.427  11.470   6.774 -0.4223  0.5984  0.0746
50391SOL    HW158288   5.508  11.496   6.818  0.4963 -0.4802 -0.9129
50391SOL    HW258289   5.437  11.501   6.684  0.5975 -2.6357 -1.0843
50392SOL     OW58290   8.918   8.300   1.522 -0.1532  0.1699  0.1890
50392SOL    HW158291   8.903   8.394   1.526  1.0443  0.3353  2.1894
50392SOL    HW258292   9.013   8.290   1.525 -0.0130 -1.0739 -3.3730
50393SOL     OW58293   8.266   9.222  10.753 -0.1482  0.3272  0.0570
50393SOL    HW158294   8.265   9.164  10.829 -4.3584 -0.9048 -0.6346
50393SOL    HW258295   8.237   9.307  10.786  0.6852  0.5687  0.1970
50394SOL     OW58296   4.261  10.015   8.054 -0.2307 -0.1995  0.3095
50394SOL    HW158297   4.222  10.024   8.140 -3.1542  0.2406 -0.9312
50394SOL    HW258298   4.283   9.922   8.048  0.2703 -0.1809  1.6063
50395SOL     OW58299   8.123   1.722   8.924 -0.9032 -0.1794  0.1120
50395SOL    HW158300   8.189   1.719   8.854  0.9061  0.0638  1.7145
50395SOL    HW258301   8.099   1.814   8.930 -0.8404 -0.1550  0.0048
50396SOL     OW58302   4.605   5.797   5.399  0.4652 -0.0102  0.6451
50396SOL    HW158303   4.578   5.854   5.327 -1.0302  1.3567  2.1768
50396SOL    HW258304   4.585   5.709   5.369 -1.7590  0.6363 -0.0124
50397SOL     OW58305   4.011   3.811  11.663  0.2336 -0.3852  0.5247
50397SOL    HW158306   4.052   3.726  11.645 -1.6312 -1.3512  0.6273
50397SOL    HW258307   4.049   3.869  11.597  2.0933 -1.0753  0.9116
50398SOL     OW58308   7.380   3.224   9.188  0.3613  0.0100 -0.4218
50398SOL    HW158309   7.375   3.130   9.200  0.0705 -0.1223 -1.4910
50398SOL    HW258310   7.417   3.235   9.100  3.7262  0.8920  0.9060
50399SOL     OW58311   1.610   0.119   9.389  0.2857 -0.0469  1.0174
50399SOL    HW158312   1.584   0.086   9.475  0.9901  0.0022  1.2552
50399SOL    HW258313   1.650   0.204   9.407 -0.8331  0.6139  0.4890
50400SOL     OW58314   1.514   1.335  10.156  0.6086 -0.8374 -0.3569
50400SOL    HW158315   1.439   1.392  10.138  0.1854 -0.8798  1.0953
50400SOL    HW258316   1.588   1.378  10.114  0.7461  2.0795  2.5130
50401SOL     OW58317   0.491   3.261  11.881  0.1508  0.0368 -0.1423
50401SOL    HW158318   0.469   3.184  11.829  0.9437 -0.1293 -0.2544
50401SOL    HW258319   0.502   3.227  11.970 -3.0775  0.6170  0.5822
50402SOL     OW58320   8.896  10.139  10.419 -0.1186 -0.5000 -0.2021
50402SOL    HW158321   8.830  10.180  10.475  0.7321 -0.3016  0.6862
50402SOL    HW258322   8.940  10.076  10.476  1.4473  0.4284 -0.3033
50403SOL     OW58323   6.206   0.405   6.147  0.3663 -0.0356  0.0115
50403SOL    HW158324   6.212   0.311   6.159  1.3021  0.3144  2.8061
50403SOL    HW258325   6.127   0.431   6.194  0.1134  0.6170 -0.7260
50404SOL     OW58326   3.428  11.738   6.999  0.2206 -0.0619  0.2656
50404SOL    HW158327   3.453  11.668   6.939 -0.9152 -0.8116  0.6367
50404SOL    HW258328   3.334  11.728   7.010  0.5187 -0.7929  3.1483
50405SOL     OW58329   5.253   3.105  11.628 -0.1571 -0.1727  0.3962
50405SOL    HW158330   5.195   3.176  11.598  0.4462  0.0026 -0.3921
50405SOL    HW258331   5.338   3.147  11.641 -0.4821 -0.1692  2.8026
50406SOL     OW58332  11.116   5.386   5.538  0.1612 -0.0384 -0.3284
50406SOL    HW158333  11.162   5.420   5.615  0.9224 -0.1437 -0.7279
50406SOL    HW258334  11.174   5.318   5.504 -1.7503 -2.5341  1.0493
50407SOL     OW58335   9.504   5.678   4.324  0.0485  0.0387  0.4522
50407SOL    HW158336   9.527   5.672   4.417 -0.4308  0.5602  0.6105
50407SOL    HW258337   9.516   5.771   4.302  1.8011 -0.3596 -0.4553
50408SOL     OW58338  11.062   7.297   3.142 -0.3348 -0.0856 -0.1298
50408SOL    HW158339  11.070   7.384   3.182  1.2282 -1.0304  1.7663
50408SOL    HW258340  11.132   7.294   3.078  0.1637 -0.2390  0.4146
50409SOL     OW58341  12.847   2.882   1.313  0.2684 -0.0632 -0.0110
50409SOL    HW158342  12.812   2.921   1.393  0.4239 -1.2976  0.6825
50409SOL    HW258343  12.770   2.868   1.258 -0.1904 -1.5018  0.9524
50410SOL     OW58344   3.666   1.673  10.193  0.2624  0.2820 -0.3837
50410SOL    HW158345   3.675   1.711  10.105 -2.4476 -0.4001 -1.0518
50410SOL    HW258346   3.629   1.744  10.245 -0.9940 -0.1890 -0.6035
50411SOL     OW58347   1.660   6.378   1.756 -0.0815  0.4362 -0.2209
50411SOL    HW158348   1.665   6.456   1.812  1.2208 -0.4708  0.9959
50411SOL    HW258349   1.623   6.310   1.813  1.7081 -0.6352 -0.2546
50412SOL     OW58350   7.235   6.882   6.316 -0.0984 -0.3839  0.5093
50412SOL    HW158351   7.189   6.897   6.233 -1.0391  0.9673  1.2369
50412SOL    HW258352   7.167   6.850   6.375  0.3895 -0.5213  1.0017
50413SOL     OW58353  10.753   7.934   6.065  0.0046 -0.0027 -0.1098
50413SOL    HW158354  10.661   7.962   6.069  0.0061  0.1609 -0.9736
50413SOL    HW258355  10.770   7.920   5.972  0.6865 -0.6307  0.0979
50414SOL     OW58356  12.342  12.783   5.821  0.5795  0.1680  0.1108
50414SOL    HW158357  12.342  12.795   5.916 -1.3471  0.5310  0.1121
50414SOL    HW258358  12.409  12.716   5.805  0.7389 -0.0985  1.7493
50415SOL     OW58359   4.227   9.395   5.630 -0.1549  0.2957 -0.4127
50415SOL    HW158360   4.195   9.306   5.613 -0.6257  0.5286 -0.7631
50415SOL    HW258361   4.317   9.394   5.597 -0.0338 -0.1540 -0.0824
50416SOL     OW58362  11.395   0.096   4.990 -0.0139  0.1574 -0.2694
50416SOL    HW158363  11.340   0.025   4.956 -0.1169  0.1596 -0.1090
50416SOL    HW258364  11.354   0.121   5.073  0.6252 -0.3265  0.2123
50417SOL     OW58365   7.173   4.955   4.036 -0.6923  0.0958  0.5599
50417SOL    HW158366   7.133   5.036   4.001 -0.4930  0.1800  0.5255
50417SOL    HW258367   7.129   4.941   4.120 -1.5421 -0.3883  0.0503
50418SOL     OW58368   2.357   1.727   2.677 -0.3486 -0.2444 -0.4267
50418SOL    HW158369   2.343   1.662   2.745  0.5914  0.8973  0.9076
50418SOL    HW258370   2.417   1.684   2.615 -1.7301 -1.5276 -0.9571
50419SOL     OW58371   5.315   5.713   3.365  0.3789  0.8574  0.1245
50419SOL    HW158372   5.373   5.652   3.319  0.5775  1.7602 -0.8724
50419SOL    HW258373   5.272   5.763   3.295 -0.7951  0.9461  0.8746
50420SOL     OW58374   8.936   5.958   8.868  0.1386  0.1981  0.1682
50420SOL    HW158375   8.894   6.037   8.902  0.9168  0.6826  0.0401
50420SOL    HW258376   8.991   5.927   8.941 -0.0872 -0.1722  0.1829
50421SOL     OW58377   9.626  11.709   3.849  0.0055  0.7766  0.1329
50421SOL    HW158378   9.579  11.706   3.932  1.2455  0.7866  0.8518
50421SOL    HW258379   9.660  11.621   3.836 -2.5688 -0.0473 -1.8377
50422SOL     OW58380   3.030   6.725   8.933 -0.3856  0.0296  0.1510
50422SOL    HW158381   3.087   6.673   8.877 -1.2260 -0.0482 -0.6483
50422SOL    HW258382   3.089   6.787   8.977  0.6996 -1.8424  1.4435
50423SOL     OW58383   7.448   0.666   9.909 -0.0978 -0.6288  0.2256
50423SOL    HW158384   7.386   0.598   9.885  0.9762 -0.7945 -2.3995
50423SOL    HW258385   7.443   0.730   9.837  1.9577 -0.1182  0.4515
50424SOL     OW58386   7.829  11.702   8.845 -0.0815  0.0073  0.2775
50424SOL    HW158387   7.779  11.622   8.829 -0.2206  0.2562 -0.6255
50424SOL    HW258388   7.891  11.706   8.772  1.9875 -0.8296  1.9068
50425SOL     OW58389   0.784   3.844   9.793  0.5837 -0.4517  0.3951
50425SOL    HW158390   0.718   3.912   9.778  1.1392 -0.0451 -0.2677
50425SOL    HW258391   0.780   3.827   9.887 -0.0257  0.0268  0.4616
50426SOL     OW58392   7.285   7.399   4.989  0.1346  0.1193  0.4887
50426SOL    HW158393   7.360   7.440   4.947 -0.7595  1.2143 -0.1003
50426SOL    HW258394   7.231   7.472   5.019 -1.3101 -0.6019 -0.2215
50427SOL     OW58395   7.368   2.152   8.726  0.0949  0.2409  0.0089
50427SOL    HW158396   7.291   2.201   8.700 -0.1329 -0.4130 -0.6105
50427SOL    HW258397   7.350   2.122   8.815 -1.3014 -1.6479 -0.8410
50428SOL     OW58398   0.687   0.137   0.774 -0.3442  0.1338 -0.4535
50428SOL    HW158399   0.660   0.097   0.856 -1.0344 -0.4678 -0.9614
50428SOL    HW258400   0.618   0.200   0.754  0.0423  0.5928 -0.3578
50429SOL     OW58401   8.099   9.326   5.686  0.0989 -0.0141  0.0282
50429SOL    HW158402   8.118   9.291   5.773  1.1285 -0.2206 -0.2665
50429SOL    HW258403   8.004   9.319   5.678  0.2567 -3.5410 -0.3286
50430SOL     OW58404   8.984  10.325   6.330 -0.5253 -0.5445 -0.0693
50430SOL    HW158405   9.025  10.392   6.385 -0.6186 -0.0563 -0.5916
50430SOL    HW258406   8.960  10.256   6.392 -3.8154  1.4358  1.1083
50431SOL     OW58407  11.993   8.090   9.233 -0.2663 -0.1173 -0.5272
50431SOL    HW158408  12.041   8.167   9.201  0.0792  0.1980  0.7171
50431SOL    HW258409  12.048   8.016   9.210 -0.3437  0.0334 -1.2440
50432SOL     OW58410   4.007   6.047   3.257  0.1595  0.5310 -0.6732
50432SOL    HW158411   4.047   5.976   3.306  0.4211 -0.1935 -1.8971
50432SOL    HW258412   4.018   6.124   3.313  0.3670 -0.2714  0.4251
50433SOL     OW58413   8.334   1.949   7.603 -0.5422  0.3603 -0.5496
50433SOL    HW158414   8.258   1.893   7.586 -0.7365  0.3989  0.1432
50433SOL    HW258415   8.352   1.937   7.696 -0.5383  1.3824 -0.4066
50434SOL     OW58416  11.381   1.258   3.862 -0.7379  0.0049 -0.4031
50434SOL    HW158417  11.295   1.236   3.827 -1.0044  0.8243 -0.2894
50434SOL    HW258418  11.394   1.350   3.838 -0.2532  0.1249  0.2874
50435SOL     OW58419   3.512   8.510   6.317  0.0801 -0.6033  0.2409
50435SOL    HW158420   3.538   8.519   6.225 -1.0916  2.0594  0.0756
50435SOL    HW258421   3.417   8.495   6.313  0.2391 -1.8820  0.9971
50436SOL     OW58422   9.034   6.583  10.808 -0.6310  0.0942  0.1140
50436SOL    HW158423   9.120   6.583  10.766 -1.2979  1.7598 -1.3893
50436SOL    HW258424   8.972   6.588  10.735 -1.9057  1.6505  1.2505
50437SOL     OW58425   7.311  10.750   7.198 -0.2210  0.5764 -0.2167
50437SOL    HW158426   7.328  10.664   7.160 -0.5657  0.0396  0.8134
50437SOL    HW258427   7.231  10.739   7.249  1.1568  0.7697  2.1377
50438SOL     OW58428   9.919  11.134   3.459 -0.0749  0.1026 -0.1183
50438SOL    HW158429   9.993  11.074   3.446 -0.1113  0.1211 -0.4199
50438SOL    HW258430   9.932  11.169   3.546 -0.5287 -1.0209  0.4267
50439SOL     OW58431  12.254  10.557  12.059  0.4760  0.8951  0.2705
50439SOL    HW158432  12.255  10.537  11.965  0.8006  1.3297  0.1764
50439SOL    HW258433  12.175  10.515  12.092  0.1713  1.0396 -0.2637
50440SOL     OW58434  11.384  11.529   4.613  0.0415  0.2194  0.1144
50440SOL    HW158435  11.467  11.481   4.618  0.0341 -0.0031 -1.4948
50440SOL    HW258436  11.318  11.466   4.645 -0.1170 -1.3230 -2.8818
50441SOL     OW58437   0.117   4.960   4.663  0.2184  0.1619  0.0767
50441SOL    HW158438   0.104   5.018   4.588 -0.8981 -0.0639  0.0835
50441SOL    HW258439   0.181   5.006   4.718  1.6956 -0.0619 -1.3979
50442SOL     OW58440   7.642   6.837  10.926  0.5670 -0.0551 -0.0423
50442SOL    HW158441   7.588   6.916  10.913  0.5535 -0.2285 -1.1124
50442SOL    HW258442   7.730   6.871  10.942  0.5163  0.1837 -0.2572
50443SOL     OW58443   2.237  10.586   1.397  0.0657  0.1840 -0.1144
50443SOL    HW158444   2.227  10.678   1.372 -0.3362 -0.0024 -0.6389
50443SOL    HW258445   2.185  10.537   1.333  1.5005 -0.5358 -0.7709
50444SOL     OW58446   6.143   8.805   3.069 -0.5451 -0.6142 -0.2865
50444SOL    HW158447   6.151   8.892   3.030 -0.4112 -0.6205 -0.2700
50444SOL    HW258448   6.132   8.746   2.994  1.1705 -0.8099 -0.4042
50445SOL     OW58449   6.097   9.050   5.077 -0.3085 -0.1927 -0.2138
50445SOL    HW158450   6.025   9.017   5.129 -0.7866  1.1742  0.0405
50445SOL    HW258451   6.101   8.992   5.001 -1.3428 -0.5853  0.0179
50446SOL     OW58452   6.721   1.063  12.595 -0.3014 -0.3956 -0.8742
50446SOL    HW158453   6.688   1.105  12.515  0.7146  0.2600 -0.9662
50446SOL    HW258454   6.660   0.991  12.611 -0.8453 -0.1884 -1.9185
50447SOL     OW58455   6.233  10.237   1.536 -0.2399  0.0170 -0.2999
50447SOL    HW158456   6.268  10.190   1.612 -0.8559 -0.4161 -0.2809
50447SOL    HW258457   6.263  10.327   1.549  1.5151 -0.4798 -0.6901
50448SOL     OW58458   6.179   6.360  10.799 -0.1493 -0.2556  0.0737
50448SOL    HW158459   6.103   6.416  10.783  0.5330  1.4045  2.2238
50448SOL    HW258460   6.249   6.399  10.747 -0.0944 -0.1548  0.2240
50449SOL     OW58461   5.648   8.688   6.612  0.4857  0.3436 -0.4752
50449SOL    HW158462   5.626   8.768   6.564  1.9918  1.0531 -0.0521
50449SOL    HW258463   5.709   8.642   6.555 -2.2025 -1.8354 -1.8547
50450SOL     OW58464   4.758   8.977   2.918  0.3060  0.9571  0.0574
50450SOL    HW158465   4.738   8.918   2.846  0.8605 -1.3070  1.6758
50450SOL    HW258466   4.810   8.925   2.979  0.4841  3.0006  1.7743
50451SOL     OW58467   3.334   7.089  11.467 -0.6120 -0.0348  0.1952
50451SOL    HW158468   3.395   7.015  11.463  1.3503  1.5369 -0.6434
50451SOL    HW258469   3.268   7.061  11.530 -0.5534 -2.8966 -0.8160
50452SOL     OW58470  10.013   7.153   5.647  0.2341 -0.6291 -0.0285
50452SOL    HW158471   9.999   7.114   5.561 -0.1968 -0.6062  0.0291
50452SOL    HW258472  10.056   7.237   5.629 -2.1743  0.6071 -0.4278
50453SOL     OW58473  10.173   6.261   7.498 -0.1828  0.1000 -0.9764
50453SOL    HW158474  10.134   6.178   7.527  1.4741  0.0553  1.4043
50453SOL    HW258475  10.124   6.328   7.545  0.0723  0.3019 -0.9965
50454SOL     OW58476   9.640  11.349   0.327  0.4413 -0.3701  0.2270
50454SOL    HW158477   9.676  11.286   0.389  0.2994 -0.2872  0.3964
50454SOL    HW258478   9.590  11.297   0.265 -3.2813 -0.1866  2.7477
50455SOL     OW58479   5.257   0.904   3.109  0.1977  0.2774  0.8126
50455SOL    HW158480   5.288   0.814   3.108 -2.0591 -0.6370  3.0836
50455SOL    HW258481   5.295   0.942   3.188 -2.5226 -0.2190  2.4597
50456SOL     OW58482   5.131   2.750   3.397  0.0323 -0.4451  0.2374
50456SOL    HW158483   5.089   2.828   3.434 -1.1146 -0.7496 -0.3709
50456SOL    HW258484   5.146   2.773   3.305  0.5492 -0.6060  0.2817
50457SOL     OW58485  12.896   4.798   3.386  0.1628  0.0594  0.6337
50457SOL    HW158486  12.922   4.859   3.454  0.7385  0.7894 -0.2202
50457SOL    HW258487  12.801   4.804   3.382  0.3070  2.5224 -0.8643
50458SOL     OW58488   0.170  11.730   7.614  0.4669 -0.2542  0.9877
50458SOL    HW158489   0.104  11.691   7.672  0.5066 -0.7478  0.7084
50458SOL    HW258490   0.191  11.660   7.553  1.5551 -0.2269  1.3209
50459SOL     OW58491   8.608   2.879  10.052  0.2532  0.1304  0.1683
50459SOL    HW158492   8.515   2.898  10.040  0.0247 -1.1332 -0.1748
50459SOL    HW258493   8.614   2.838  10.138  0.6635  1.2213  0.6718
50460SOL     OW58494   5.194   6.458   1.721 -0.5487 -0.4118  0.0904
50460SOL    HW158495   5.104   6.489   1.710  0.0323  0.8810 -1.4388
50460SOL    HW258496   5.213   6.410   1.640  0.6912  0.8760 -0.4273
50461SOL     OW58497   7.507  11.849   5.585  0.1082  0.4691 -0.3605
50461SOL    HW158498   7.513  11.943   5.575  1.8211  0.4114 -0.1714
50461SOL    HW258499   7.596  11.822   5.611 -0.5576 -1.0734  0.4439
50462SOL     OW58500   7.303  12.286   4.460 -0.1291  0.3132 -0.2004
50462SOL    HW158501   7.268  12.256   4.545  0.0154  1.1515  0.1595
50462SOL    HW258502   7.392  12.251   4.458 -0.2617 -0.0342 -0.1785
50463SOL     OW58503   1.802   4.383   2.545 -0.5628  0.2619  0.4717
50463SOL    HW158504   1.791   4.374   2.450  1.5235  0.0098  0.2053
50463SOL    HW258505   1.791   4.294   2.579 -1.8776  0.4383  0.5754
50464SOL     OW58506   5.620   1.352   8.573 -0.2486 -0.4003  0.2231
50464SOL    HW158507   5.661   1.405   8.505 -2.2263  2.3772  0.9872
50464SOL    HW258508   5.628   1.405   8.653  0.4895 -2.7712  1.8358
50465SOL     OW58509   8.235   4.061   3.649  0.0353 -0.0929  0.1643
50465SOL    HW158510   8.327   4.081   3.666 -0.0004 -1.2764  1.9454
50465SOL    HW258511   8.236   3.974   3.610 -0.2444  0.6546 -1.6099
50466SOL     OW58512   8.783  10.221   0.212 -0.3211  0.1170 -0.1395
50466SOL    HW158513   8.830  10.218   0.129  0.3130 -1.3709  0.2496
50466SOL    HW258514   8.698  10.181   0.194  0.4170 -1.7292  0.2614
50467SOL     OW58515   4.471   3.591  12.823  0.0306  0.2773 -0.6794
50467SOL    HW158516   4.559   3.626  12.810  0.7286 -0.3155  1.8721
50467SOL    HW258517   4.486   3.499  12.845 -1.3303 -0.0850 -1.1966
50468SOL     OW58518   6.167   1.779  12.876  0.5990 -0.0443 -0.3892
50468SOL    HW158519   6.215   1.709  12.832 -0.5574 -1.2177  0.1321
50468SOL    HW258520   6.204   1.783  12.964  1.3595  0.7358 -0.7256
50469SOL     OW58521  10.788   6.447  11.120  0.1745  0.1284 -0.8057
50469SOL    HW158522  10.872   6.483  11.148 -0.8866  1.5220  0.7559
50469SOL    HW258523  10.790   6.356  11.149  0.9849  0.2518 -0.4513
50470SOL     OW58524   1.641   6.274   8.774  0.0586 -0.0127  0.0541
50470SOL    HW158525   1.733   6.263   8.750  0.1537  1.4843 -0.3947
50470SOL    HW258526   1.641   6.344   8.839 -0.7602 -0.0133  0.0663
50471SOL     OW58527   6.225   3.013   5.476  0.4623 -0.4013 -0.4925
50471SOL    HW158528   6.172   2.941   5.511  0.0161 -0.1242 -0.5890
50471SOL    HW258529   6.191   3.026   5.387  1.1801 -0.7002 -0.8156
50472SOL     OW58530   4.924   8.477   2.679  0.5577 -0.0181 -0.1123
50472SOL    HW158531   4.901   8.441   2.765  0.3439 -0.3153 -0.2922
50472SOL    HW258532   4.972   8.557   2.699 -0.5780  0.5896  0.2856
50473SOL     OW58533   7.168   2.041   5.355  0.2909  0.0575  0.2331
50473SOL    HW158534   7.087   2.057   5.405 -0.2894 -0.0561 -0.6430
50473SOL    HW258535   7.157   2.092   5.275  0.5455 -0.9135 -0.4417
50474SOL     OW58536   3.115   4.229   8.058  0.2519 -0.1928 -0.4091
50474SOL    HW158537   3.162   4.262   8.135  0.9872 -0.0723 -0.9023
50474SOL    HW258538   3.092   4.308   8.009 -0.4869 -0.2502 -0.1623
50475SOL     OW58539   1.291   4.788   8.324 -0.0606  0.0354 -0.1840
50475SOL    HW158540   1.362   4.758   8.381 -0.7563  0.4603  0.9493
50475SOL    HW258541   1.335   4.825   8.247  0.9324 -0.0219  0.3439
50476SOL     OW58542   7.786   0.553  12.411  0.3981 -0.1344 -0.1140
50476SOL    HW158543   7.878   0.538  12.432  0.3114 -0.8352 -0.1874
50476SOL    HW258544   7.765   0.637  12.451  1.0873  0.0584 -0.1507
50477SOL     OW58545   7.481   2.386  10.174  0.2705  0.0466 -0.5855
50477SOL    HW158546   7.511   2.316  10.233 -1.4125 -1.0405 -0.9429
50477SOL    HW258547   7.560   2.436  10.154  1.4671 -1.5283 -0.0167
50478SOL     OW58548   3.868  12.035   2.411 -0.4627  0.7315 -0.1445
50478SOL    HW158549   3.819  11.991   2.343 -1.3294  0.0419  0.8965
50478SOL    HW258550   3.835  11.999   2.493  1.1891  0.8664  0.6339
50479SOL     OW58551  11.670   5.859   5.344  0.3447 -0.4547 -0.2019
50479SOL    HW158552  11.665   5.877   5.438 -0.4465 -1.3048 -0.0650
50479SOL    HW258553  11.756   5.820   5.332  0.0729 -1.2388  0.3418
50480SOL     OW58554   1.687  12.347   5.097  0.2447 -0.6451 -0.1301
50480SOL    HW158555   1.759  12.305   5.050  0.5225  1.9324 -2.2097
50480SOL    HW258556   1.608  12.315   5.056  0.3891 -0.4348 -0.5768
50481SOL     OW58557   7.482   9.598   4.789 -0.0340  0.3736  0.4296
50481SOL    HW158558   7.567   9.559   4.808 -0.0054  0.0917 -0.2398
50481SOL    HW258559   7.460   9.565   4.701  0.5712  2.7905 -0.7175
50482SOL     OW58560  12.874   5.808   0.211  0.1358 -0.6695  0.2454
50482SOL    HW158561  12.874   5.753   0.133 -0.1798  0.1771 -0.3673
50482SOL    HW258562  12.898   5.749   0.282  0.3037 -1.4806 -0.4705
50483SOL     OW58563   6.937   2.550  11.229  0.6462  0.0045 -0.2367
50483SOL    HW158564   6.949   2.612  11.301 -0.0291  0.6028 -0.6270
50483SOL    HW258565   6.955   2.465  11.268 -0.3245  0.2541  0.8133
50484SOL     OW58566   2.099   7.150   8.516 -0.0770  0.1666 -0.7266
50484SOL    HW158567   2.126   7.205   8.589  3.0323 -0.3997 -1.2915
50484SOL    HW258568   2.158   7.074   8.520 -1.4928 -1.1166 -2.3669
50485SOL     OW58569   2.535   6.346   8.786  0.0618 -0.5553 -0.3596
50485SOL    HW158570   2.479   6.410   8.742  0.0284  1.7851  2.7472
50485SOL    HW258571   2.624   6.377   8.769  0.1795 -1.0909 -0.7559
50486SOL     OW58572   1.400   5.607   3.811  0.6911  0.3860 -0.2110
50486SOL    HW158573   1.344   5.532   3.795 -0.8546  1.0633  1.6512
50486SOL    HW258574   1.351   5.682   3.778  0.2232  1.0357  1.8099
50487SOL     OW58575   0.514   7.348   1.036 -0.3502  0.4272  0.4701
50487SOL    HW158576   0.432   7.319   1.076  0.3458 -3.7124 -0.5976
50487SOL    HW258577   0.503   7.328   0.942  1.5724  0.4847  0.1970
50488SOL     OW58578   7.833   2.337   6.129  0.0187 -0.0305  0.3630
50488SOL    HW158579   7.791   2.355   6.213 -1.2448 -1.4736  0.0999
50488SOL    HW258580   7.779   2.267   6.091 -0.1144  1.3410 -2.1446
50489SOL     OW58581   2.051   2.700   7.467 -0.5371  0.1244 -0.3523
50489SOL    HW158582   2.046   2.605   7.456 -2.8215  0.3803 -2.2952
50489SOL    HW258583   2.028   2.715   7.558  3.4038 -1.2893  1.0956
50490SOL     OW58584  10.652  10.308   0.225 -0.1894  0.1548 -0.5106
50490SOL    HW158585  10.660  10.385   0.282  0.7460  1.1821 -1.9771
50490SOL    HW258586  10.636  10.235   0.286 -0.3969  1.3804  0.9628
50491SOL     OW58587   7.747   7.726   7.606 -0.1789  0.0896 -0.3216
50491SOL    HW158588   7.725   7.817   7.586  2.1673  0.8632  0.2985
50491SOL    HW258589   7.768   7.687   7.521 -0.7211  0.2512 -0.5333
50492SOL     OW58590  11.263  11.618  11.261 -0.1379 -0.5514  0.4930
50492SOL    HW158591  11.278  11.636  11.353 -0.5053  0.1699  0.4227
50492SOL    HW258592  11.242  11.525  11.258  0.6312 -0.7472  1.0344
50493SOL     OW58593   7.929   6.386  12.069 -0.1255  0.5239 -0.1640
50493SOL    HW158594   7.900   6.447  12.001  0.6768 -0.8532 -1.7955
50493SOL    HW258595   7.847   6.355  12.109 -0.7876 -0.4584 -2.1492
50494SOL     OW58596   9.804   3.076   0.155 -0.3192  0.3352  0.1973
50494SOL    HW158597   9.747   3.054   0.082  0.5696  0.7349 -0.6412
50494SOL    HW258598   9.890   3.042   0.130 -0.0016  0.4835  1.0512
50495SOL     OW58599  10.919   8.919   0.710 -0.2817 -0.3594 -0.1594
50495SOL    HW158600  10.957   8.895   0.795 -1.1504  2.7939  1.2382
50495SOL    HW258601  10.985   8.975   0.669 -1.1062  0.6053 -0.1936
50496SOL     OW58602  11.060   6.801  10.929  0.3855 -0.0407 -0.2002
50496SOL    HW158603  10.977   6.759  10.950  0.4390  1.2853  3.2450
50496SOL    HW258604  11.036   6.881  10.882 -0.1005 -0.7417 -1.1739
50497SOL     OW58605  10.530   6.907   9.276  0.5626  0.2785  0.4900
50497SOL    HW158606  10.596   6.838   9.269  0.0756 -0.1317 -0.1095
50497SOL    HW258607  10.477   6.898   9.197  0.1611  0.9973  0.6684
50498SOL     OW58608  12.922   6.763  12.486  0.2589  0.2407  0.6660
50498SOL    HW158609  12.894   6.708  12.413 -3.0026  2.4276  0.0521
50498SOL    HW258610  12.969   6.836  12.446  0.6683  0.1681  1.0096
50499SOL     OW58611   1.593   7.708  10.084 -0.3608 -0.5468  0.0495
50499SOL    HW158612   1.684   7.737  10.076 -0.5123 -0.4198 -1.4394
50499SOL    HW258613   1.576   7.660  10.003 -1.0305 -2.3142  1.1760
50500SOL     OW58614   9.312   1.459   7.436 -0.1866  0.2848  0.2224
50500SOL    HW158615   9.295   1.366   7.445  1.1687  0.0214  0.2480
50500SOL    HW258616   9.257   1.488   7.364  0.1362 -0.7550 -0.4538
50501SOL     OW58617  12.715   9.858   8.666  0.1307 -0.0535 -0.0454
50501SOL    HW158618  12.722   9.914   8.744  1.3040 -0.5780  0.2517
50501SOL    HW258619  12.757   9.776   8.692  1.4566  0.1037 -1.5353
50502SOL     OW58620  12.033   0.460   9.825  0.1787  0.3123 -0.0988
50502SOL    HW158621  12.062   0.369   9.814 -1.6735 -0.1124 -2.3441
50502SOL    HW258622  12.111   0.506   9.855  1.7220 -1.6652 -0.7969
50503SOL     OW58623   8.571   3.218   8.967  0.5956 -0.3012 -0.3352
50503SOL    HW158624   8.506   3.257   9.026  1.0701 -0.1563  0.0969
50503SOL    HW258625   8.519   3.170   8.902 -0.0397  1.5285 -1.2377
50504SOL     OW58626   2.629  11.350   3.090  0.3779 -0.7277  0.4045
50504SOL    HW158627   2.722  11.335   3.105  0.5387 -0.6009 -0.4068
50504SOL    HW258628   2.591  11.355   3.178  0.9469 -1.9240  0.7369
50505SOL     OW58629   9.729   7.019   3.513  0.1719  0.0431 -0.5572
50505SOL    HW158630   9.765   6.943   3.560  1.8604  0.0801 -1.7057
50505SOL    HW258631   9.686   6.982   3.436  0.1630  0.1803 -0.6181
50506SOL     OW58632   0.958   8.516   2.699  0.1286 -0.2671  0.2741
50506SOL    HW158633   0.970   8.610   2.696  0.3142 -0.3182 -1.0427
50506SOL    HW258634   1.029   8.480   2.646  0.9581 -1.2637  1.9431
50507SOL     OW58635  12.139   5.050   9.787  0.3069  0.3877 -0.5655
50507SOL    HW158636  12.191   5.130   9.783  0.1332  0.6721  1.5554
50507SOL    HW258637  12.190   4.991   9.842 -1.8893  0.9980  2.3566
50508SOL     OW58638   2.600   2.376   1.609  0.0351 -0.3876 -0.0614
50508SOL    HW158639   2.600   2.361   1.703 -0.4651 -1.5498 -0.2316
50508SOL    HW258640   2.538   2.311   1.574 -0.3184  0.4862 -1.1191
50509SOL     OW58641   6.215   1.044   8.266 -0.4300 -0.4337  0.3610
50509SOL    HW158642   6.211   1.129   8.308  1.3917 -0.0104 -0.2224
50509SOL    HW258643   6.152   1.049   8.194  0.3112  0.7694 -0.2280
50510SOL     OW58644   6.161  12.064   5.419 -0.1442 -0.1631  0.0549
50510SOL    HW158645   6.139  12.089   5.509  0.3262 -0.0787  0.1476
50510SOL    HW258646   6.185  11.971   5.425  0.9211  0.1167  0.1973
50511SOL     OW58647  10.124  10.713  11.688 -0.0251 -0.4387  0.0236
50511SOL    HW158648  10.075  10.651  11.634 -0.7526  1.2345 -1.3161
50511SOL    HW258649  10.058  10.772  11.723  0.8224  0.7520 -0.3216
50512SOL     OW58650   4.411   4.248   6.219 -0.0862 -0.2531 -0.0959
50512SOL    HW158651   4.336   4.232   6.275  0.7966 -0.4415  1.0582
50512SOL    HW258652   4.437   4.160   6.188 -0.8064 -0.1188 -1.1548
50513SOL     OW58653   0.680   8.644   2.393  0.1628  0.1472  0.7291
50513SOL    HW158654   0.713   8.684   2.474 -0.5220 -0.3841  1.2857
50513SOL    HW258655   0.755   8.646   2.333  0.9007 -0.0795  1.6123
50514SOL     OW58656   3.770   2.867   6.852  0.0153 -0.0757  0.1817
50514SOL    HW158657   3.821   2.814   6.912 -0.7619 -0.5976  0.4002
50514SOL    HW258658   3.739   2.805   6.786 -1.1780  0.0168  0.6251
50515SOL     OW58659   2.212  11.752   8.020  0.4767 -0.0843  0.2393
50515SOL    HW158660   2.280  11.710   8.073  1.5462  0.8486 -0.3370
50515SOL    HW258661   2.258  11.821   7.973 -0.6901 -0.0739 -0.9494
50516SOL     OW58662   4.705   1.414   8.755 -0.1304  0.1052  0.0216
50516SOL    HW158663   4.768   1.355   8.714  0.8794  0.1687  1.3973
50516SOL    HW258664   4.633   1.419   8.693  0.4831 -1.2867 -0.8578
50517SOL     OW58665   0.090   8.830   0.771 -0.1396  0.2962 -0.2559
50517SOL    HW158666   0.147   8.871   0.835 -1.4470  1.2588  0.3259
50517SOL    HW258667   0.013   8.801   0.821 -2.1446  2.8954 -1.6057
50518SOL     OW58668   3.734  11.999  12.338 -0.1350 -0.4709 -0.1184
50518SOL    HW158669   3.798  12.036  12.278 -0.0517 -1.5132 -0.6913
50518SOL    HW258670   3.744  12.050  12.418 -1.5566  2.2684 -1.5352
50519SOL     OW58671   3.661   3.522   8.400  1.3091  0.4048  0.7633
50519SOL    HW158672   3.699   3.501   8.315  1.2221 -0.7093  0.9957
50519SOL    HW258673   3.664   3.618   8.404  0.6352  0.5294 -0.8117
50520SOL     OW58674  11.126  11.284  11.041  0.2785  0.5895 -0.3838
50520SOL    HW158675  11.037  11.310  11.063  0.4538  0.4033  0.5877
50520SOL    HW258676  11.157  11.352  10.981 -0.5138  0.6451 -0.7524
50521SOL     OW58677  11.673   4.052   2.345 -0.4557  0.3088  0.1586
50521SOL    HW158678  11.739   4.024   2.408 -1.3423 -2.1351  0.1057
50521SOL    HW258679  11.602   4.087   2.398 -0.2422  0.4012  0.3819
50522SOL     OW58680  11.589   4.698   1.591 -0.0785  0.0026  0.3071
50522SOL    HW158681  11.632   4.698   1.676  1.4092 -1.6251 -0.3793
50522SOL    HW258682  11.521   4.764   1.598  1.2375  1.2450  2.1317
50523SOL     OW58683  11.506   9.830   2.814 -0.3451 -0.1850 -0.1849
50523SOL    HW158684  11.447   9.903   2.830  0.7234  0.8248 -0.6429
50523SOL    HW258685  11.521   9.832   2.719  2.4927  1.3374  0.1703
50524SOL     OW58686   5.894   0.178   1.378  0.5235 -0.0877 -0.3940
50524SOL    HW158687   5.918   0.267   1.353 -2.1832  1.2138  1.1803
50524SOL    HW258688   5.913   0.174   1.472 -1.0657 -0.4921 -0.0653
50525SOL     OW58689   0.838   5.890  10.916  0.3057 -0.2341 -0.5494
50525SOL    HW158690   0.881   5.878  11.001 -0.9136  2.2129  0.5135
50525SOL    HW258691   0.747   5.863  10.931  0.4497 -1.3539 -1.5744
50526SOL     OW58692   6.566   6.471   3.123  0.3875  0.3881 -0.2640
50526SOL    HW158693   6.537   6.520   3.200 -1.2658  2.5860 -2.1256
50526SOL    HW258694   6.657   6.499   3.110  0.2431  1.0704  0.1381
50527SOL     OW58695   6.053   8.554   2.649 -0.6774 -0.7210  0.5649
50527SOL    HW158696   6.109   8.608   2.705 -1.2976  1.6400 -0.9695
50527SOL    HW258697   5.980   8.529   2.705  0.3823 -1.2939  1.7358
50528SOL     OW58698   5.916   4.755   0.728 -0.3291 -0.3904  0.1671
50528SOL    HW158699   5.985   4.693   0.752  0.4336  0.7293  1.0052
50528SOL    HW258700   5.840   4.701   0.707  0.8808 -1.6836 -1.0909
50529SOL     OW58701   1.460   0.004   7.086 -0.1984 -0.1633  0.7102
50529SOL    HW158702   1.526  -0.039   7.140  0.5719 -0.6437 -0.5848
50529SOL    HW258703   1.377  -0.013   7.132  0.1728 -2.3302  0.6756
50530SOL     OW58704   2.128  11.871  11.048  0.3373 -0.6328  0.7086
50530SOL    HW158705   2.095  11.781  11.039 -1.6178  0.0269  0.8415
50530SOL    HW258706   2.050  11.923  11.068  1.5935  0.9468  1.6880
50531SOL     OW58707   7.392   4.962   2.789  0.0289 -0.0744  0.0849
50531SOL    HW158708   7.417   4.905   2.716  0.2943 -0.2281  0.2926
50531SOL    HW258709   7.465   5.023   2.799 -0.8590  1.2282 -1.0385
50532SOL     OW58710  10.530   7.067   5.314 -0.0065 -0.0832 -0.6829
50532SOL    HW158711  10.582   6.987   5.300 -0.8084 -0.6235 -0.6029
50532SOL    HW258712  10.441   7.036   5.331 -0.4497  0.8535 -1.2099
50533SOL     OW58713   1.970   8.452   0.981 -0.0070 -0.1652  0.0642
50533SOL    HW158714   1.905   8.417   0.920  1.2328  0.7268 -1.8543
50533SOL    HW258715   2.028   8.378   1.000  0.1553 -0.2231 -0.6241
50534SOL     OW58716   3.788   4.766   2.230 -0.0038 -0.1978 -0.0582
50534SOL    HW158717   3.869   4.747   2.182  0.0262  0.1391 -0.1430
50534SOL    HW258718   3.816   4.817   2.306 -0.2154  0.6635 -0.5350
50535SOL     OW58719   2.711   1.325   3.081  0.2091  0.3165 -0.4472
50535SOL    HW158720   2.752   1.408   3.104 -0.9574  0.9024 -0.4088
50535SOL    HW258721   2.779   1.277   3.034  1.5656  0.4425  1.3041
50536SOL     OW58722   1.965   5.436   3.000 -0.3160  0.1730  0.0599
50536SOL    HW158723   1.939   5.422   3.091 -0.6881  0.7109  0.0430
50536SOL    HW258724   1.969   5.348   2.963  1.7447 -0.2181  1.0922
50537SOL     OW58725  10.564   1.726   5.794  0.1988 -0.4183  0.1363
50537SOL    HW158726  10.595   1.812   5.767  0.7101 -0.8596 -0.7322
50537SOL    HW258727  10.501   1.701   5.726  1.1173 -1.3278 -0.4051
50538SOL     OW58728  12.205   7.617   0.095  0.2010 -0.1971  0.1773
50538SOL    HW158729  12.268   7.604   0.166  0.0370  0.2667  0.4100
50538SOL    HW258730  12.177   7.528   0.072  0.2835 -0.3540  0.6699
50539SOL     OW58731  10.726  11.166   1.815 -0.1225 -0.3887  0.1096
50539SOL    HW158732  10.743  11.167   1.909 -1.6985 -3.4837  0.5430
50539SOL    HW258733  10.661  11.235   1.801  0.6339  0.5750  1.1133
50540SOL     OW58734   8.278  11.190   2.627  0.2694  0.2667  0.8802
50540SOL    HW158735   8.287  11.112   2.572 -0.1906  0.7615  0.0755
50540SOL    HW258736   8.241  11.256   2.569  1.1386  1.2517  1.4061
50541SOL     OW58737  10.734  12.434   0.283 -0.6689 -0.3369  0.1704
50541SOL    HW158738  10.730  12.419   0.377  0.6409  0.8186  0.4463
50541SOL    HW258739  10.827  12.430   0.262 -1.0115 -1.4981 -1.2541
50542SOL     OW58740  10.691   9.427   9.342  0.3114 -0.2924  0.0847
50542SOL    HW158741  10.673   9.515   9.308  1.0637 -1.3479 -3.5000
50542SOL    HW258742  10.625   9.372   9.300  1.9641 -1.9001 -0.5207
50543SOL     OW58743  10.141   5.307   3.492  0.1432 -0.0033 -0.7782
50543SOL    HW158744  10.160   5.393   3.453  1.0647 -0.2118 -0.8028
50543SOL    HW258745  10.123   5.251   3.417 -1.6587  0.4273 -0.7135
50544SOL     OW58746   8.728   6.975   1.643 -0.0016 -0.8455  0.1384
50544SOL    HW158747   8.740   7.068   1.623  0.0659 -1.1690 -1.3681
50544SOL    HW258748   8.766   6.965   1.731 -0.4785  0.6400  0.5387
50545SOL     OW58749   7.217   2.998   5.758 -0.5367 -0.1350 -0.3571
50545SOL    HW158750   7.219   3.028   5.667  0.9653 -0.9051 -0.6049
50545SOL    HW258751   7.309   2.998   5.786 -1.0558  1.5161  1.6671
50546SOL     OW58752   9.701   5.240   6.733  0.3876  0.1294  0.0678
50546SOL    HW158753   9.780   5.290   6.709 -0.0220  1.3454  1.1350
50546SOL    HW258754   9.723   5.200   6.817 -0.2618  0.8554  0.6027
50547SOL     OW58755   7.588  12.376   7.740  0.0204 -0.2667  0.1481
50547SOL    HW158756   7.639  12.455   7.757  0.8257 -1.3956  3.9569
50547SOL    HW258757   7.607  12.353   7.649  0.5162  3.2907 -0.7794
50548SOL     OW58758   4.805   8.045   9.282  0.4666  0.1510 -0.2030
50548SOL    HW158759   4.836   7.955   9.291  0.6887  0.0330 -1.9021
50548SOL    HW258760   4.752   8.060   9.360 -0.5039 -1.8434 -0.4372
50549SOL     OW58761   3.454  12.742  11.974  0.9473  0.0924 -0.1524
50549SOL    HW158762   3.448  12.718  11.882 -2.0134  0.7663 -0.2375
50549SOL    HW258763   3.432  12.835  11.976  1.7432  0.2761  1.1643
50550SOL     OW58764   2.772  10.805   5.353  0.4499  0.6717 -0.1894
50550SOL    HW158765   2.857  10.775   5.384  0.1900  0.3176  0.2021
50550SOL    HW258766   2.709  10.748   5.398  0.0233  0.6947 -0.7484
50551SOL     OW58767   6.916   5.922   9.864 -0.0659 -0.3540  0.0403
50551SOL    HW158768   6.886   5.833   9.843 -1.2643  0.1806 -0.6247
50551SOL    HW258769   6.891   5.934   9.956  0.4380 -0.8308  0.2459
50552SOL     OW58770   9.237   4.186   3.658  0.0863  0.3921  0.3269
50552SOL    HW158771   9.231   4.228   3.573  0.1780  1.3089  0.7521
50552SOL    HW258772   9.278   4.101   3.641 -1.6399 -0.2570 -0.7802
50553SOL     OW58773   5.791   7.950   0.691  0.4442 -0.1945  0.1659
50553SOL    HW158774   5.750   7.950   0.778 -1.9133 -0.3995 -0.8731
50553SOL    HW258775   5.836   7.866   0.686  0.5828 -0.1956  1.1796
50554SOL     OW58776   3.064  12.475  12.738 -0.3847 -0.2226 -0.2624
50554SOL    HW158777   2.994  12.511  12.683 -0.2502 -0.9519 -0.9228
50554SOL    HW258778   3.143  12.519  12.707 -0.1319 -1.4641 -1.4608
50555SOL     OW58779   5.221   7.903   9.819  0.3771 -0.1361 -0.3540
50555SOL    HW158780   5.161   7.829   9.824 -1.0741  1.0447  0.2834
50555SOL    HW258781   5.216   7.944   9.905  1.6700  0.3276 -0.4771
50556SOL     OW58782   8.960   2.115   4.641  0.2013 -0.5866  0.4820
50556SOL    HW158783   9.006   2.127   4.558 -0.0029 -0.5870  0.3684
50556SOL    HW258784   8.868   2.132   4.620  0.2960  0.5606  0.9618
50557SOL     OW58785   7.641   6.102   7.705 -0.0204  0.1671  0.1093
50557SOL    HW158786   7.654   6.069   7.617  0.2463  1.5280 -0.3807
50557SOL    HW258787   7.548   6.123   7.709  0.0306  0.4073  0.0428
50558SOL     OW58788   9.366   9.772   8.440 -0.0314  0.7092 -0.3092
50558SOL    HW158789   9.438   9.730   8.393  0.7596  2.7476 -1.0228
50558SOL    HW258790   9.409   9.824   8.509 -0.8464  1.4720 -0.3627
50559SOL     OW58791  11.630   6.589  10.753  0.0978 -0.5153  0.2740
50559SOL    HW158792  11.555   6.615  10.807 -0.0985  2.4256 -1.2086
50559SOL    HW258793  11.705   6.629  10.795  0.6968 -2.1547  0.8722
50560SOL     OW58794   9.620   2.303  10.848 -0.1041  0.1273 -0.7169
50560SOL    HW158795   9.703   2.324  10.892  0.5124 -1.1604 -1.2226
50560SOL    HW258796   9.637   2.323  10.756 -0.7497  0.9314 -0.6798
50561SOL     OW58797   2.476  11.791   5.515  0.0922  0.3166  0.3657
50561SOL    HW158798   2.480  11.874   5.562  1.5096 -0.9685  2.7177
50561SOL    HW258799   2.386  11.786   5.482 -0.7637  1.6741  2.3307
50562SOL     OW58800   9.630   7.687   5.295 -0.1809  0.3078  0.0541
50562SOL    HW158801   9.616   7.768   5.343  1.8005  0.7590 -0.0420
50562SOL    HW258802   9.718   7.659   5.320 -0.5915 -1.4869 -0.3967
50563SOL     OW58803  12.073   5.389  11.348 -0.3376 -0.3935 -0.1335
50563SOL    HW158804  12.102   5.322  11.409  1.8980  0.8708  0.3171
50563SOL    HW258805  12.099   5.357  11.262  0.4705 -0.2510  0.0524
50564SOL     OW58806  12.623   5.359   5.316 -0.2967  0.1731  0.1499
50564SOL    HW158807  12.564   5.418   5.270 -1.3483 -0.0863  1.1078
50564SOL    HW258808  12.710   5.380   5.283 -0.9103  0.6191 -1.2448
50565SOL     OW58809   2.731   9.193   0.978 -0.6123  0.2495 -0.0679
50565SOL    HW158810   2.803   9.248   1.008  0.8628 -0.5861 -1.8300
50565SOL    HW258811   2.695   9.239   0.903 -0.7221 -0.1912 -0.2933
50566SOL     OW58812   7.951   1.725   6.261  0.2034 -0.5398  0.1812
50566SOL    HW158813   8.033   1.735   6.310 -0.4140  0.1314  1.1217
50566SOL    HW258814   7.926   1.814   6.238 -1.6305 -0.4265  2.2694
50567SOL     OW58815   8.771   4.981   5.253  0.4980  0.4048  0.1570
50567SOL    HW158816   8.715   4.957   5.326 -0.4587  0.9919 -0.3666
50567SOL    HW258817   8.790   5.074   5.267 -0.3154  0.7136 -0.7344
50568SOL     OW58818  10.347  12.628   2.177  0.4721 -0.1994 -0.2231
50568SOL    HW158819  10.420  12.570   2.158  0.7867  0.3029 -0.5475
50568SOL    HW258820  10.322  12.665   2.093  0.1565  0.0012 -0.0460
50569SOL     OW58821   8.075   3.025   0.006 -0.0271 -0.4714  0.1958
50569SOL    HW158822   8.050   3.092   0.069  3.2630  0.8380  0.3002
50569SOL    HW258823   8.102   2.951   0.059 -0.8310 -0.7926  0.1696
50570SOL     OW58824   8.381   3.831   8.102  0.4556 -0.1913 -0.6512
50570SOL    HW158825   8.317   3.816   8.032 -0.3414  1.7109 -0.3874
50570SOL    HW258826   8.436   3.902   8.069  1.4778 -0.7653 -0.2292
50571SOL     OW58827   4.445   5.151   9.108 -0.1849  0.1886 -0.1557
50571SOL    HW158828   4.455   5.107   9.024 -0.5989  0.4980 -0.3661
50571SOL    HW258829   4.469   5.085   9.173 -0.8424 -0.3544 -0.4681
50572SOL     OW58830   1.467   2.630   5.897 -0.1520  0.4584  0.5210
50572SOL    HW158831   1.468   2.561   5.831 -1.1062  1.5689 -0.7125
50572SOL    HW258832   1.440   2.586   5.978 -0.7683 -0.5965 -0.2415
50573SOL     OW58833   8.920   9.085   3.201  0.0887  0.1088  0.2524
50573SOL    HW158834   8.861   9.096   3.276 -0.7533 -1.9360 -0.0608
50573SOL    HW258835   8.985   9.155   3.212  0.2775 -0.3698  3.1752
50574SOL     OW58836  10.514   3.797   4.185 -0.7087  0.6970 -0.2946
50574SOL    HW158837  10.521   3.782   4.091  2.5776  0.2810 -0.0991
50574SOL    HW258838  10.431   3.757   4.210 -1.5171  0.5467 -2.9315
50575SOL     OW58839   2.544   0.426   8.434 -0.0508  0.1007  0.0394
50575SOL    HW158840   2.493   0.345   8.439 -1.3670  0.9680  1.4895
50575SOL    HW258841   2.547   0.459   8.524  2.6482  0.3987 -0.0760
50576SOL     OW58842   5.095   5.356   6.998 -0.1149  0.3298  0.3886
50576SOL    HW158843   5.002   5.348   7.016  0.0395 -1.1290  0.5924
50576SOL    HW258844   5.138   5.314   7.072  0.5961 -2.9958 -1.7328
50577SOL     OW58845   8.009   9.788   0.738  0.1169 -0.7440 -0.1354
50577SOL    HW158846   7.995   9.863   0.679  0.9101 -0.0185  0.5707
50577SOL    HW258847   8.102   9.792   0.759 -0.1927 -0.8865  1.3137
50578SOL     OW58848   5.579  11.651   2.477  0.3676 -0.1573  0.4153
50578SOL    HW158849   5.500  11.597   2.470  0.0426  0.4193 -0.5041
50578SOL    HW258850   5.563  11.706   2.554 -1.3296  1.7967 -1.2096
50579SOL     OW58851   1.217   8.205   4.009  0.1460 -0.1555 -0.2954
50579SOL    HW158852   1.144   8.186   3.949 -0.1629 -0.1974  0.0868
50579SOL    HW258853   1.183   8.180   4.095 -0.0249  1.4642  0.1362
50580SOL     OW58854   8.987   7.187   8.112  0.3540  0.9024  0.5539
50580SOL    HW158855   9.024   7.099   8.100  1.6709  1.4759  0.2395
50580SOL    HW258856   8.938   7.204   8.032  1.3178  1.0218 -0.0221
50581SOL     OW58857  11.781   9.993   7.150  0.2311 -0.3493 -0.3111
50581SOL    HW158858  11.744  10.080   7.166  1.9993  0.2009  1.1919
50581SOL    HW258859  11.721   9.933   7.194  0.3644  0.3891  0.9485
50582SOL     OW58860   7.182   6.146   7.249 -0.3268  0.1360 -0.5934
50582SOL    HW158861   7.265   6.102   7.268 -0.7060  0.2091  1.5513
50582SOL    HW258862   7.183   6.224   7.305 -2.0680 -0.1673 -0.0908
50583SOL     OW58863   7.841  11.190   1.421  0.0393 -0.2598  0.2502
50583SOL    HW158864   7.880  11.129   1.358  0.9546  0.9607 -0.4048
50583SOL    HW258865   7.855  11.276   1.382 -1.6191  0.3616  0.9416
50584SOL     OW58866  10.515   5.651   5.956 -0.4781  0.4277  0.3465
50584SOL    HW158867  10.438   5.596   5.943  0.6830 -1.1394 -0.1756
50584SOL    HW258868  10.533   5.646   6.050 -0.9098  0.7003  0.4502
50585SOL     OW58869   2.640   3.642  11.988  0.3538 -0.6580 -0.4442
50585SOL    HW158870   2.635   3.581  12.062 -0.6606 -1.9627 -1.5058
50585SOL    HW258871   2.732   3.664  11.980  0.3213  0.8489  2.1889
50586SOL     OW58872   0.587  11.168  11.658  0.0136  0.3191  0.4509
50586SOL    HW158873   0.623  11.211  11.580  1.4054 -1.4129  0.0667
50586SOL    HW258874   0.509  11.122  11.626 -0.5959  1.2749  0.5395
50587SOL     OW58875   7.188   2.748   4.970 -0.2166 -0.2596  0.2351
50587SOL    HW158876   7.190   2.843   4.960  2.5845 -0.1676  0.9000
50587SOL    HW258877   7.236   2.731   5.052  1.3894 -2.3044 -1.0150
50588SOL     OW58878   7.762   7.886  12.622 -0.2949  0.6690  0.4521
50588SOL    HW158879   7.681   7.837  12.604 -0.0934  0.2719  0.6169
50588SOL    HW258880   7.735   7.978  12.619 -1.3046  0.5320  3.0081
50589SOL     OW58881   8.745   1.308   8.109  0.1937  0.3164 -0.2293
50589SOL    HW158882   8.787   1.277   8.029  0.3716  0.9573 -0.3890
50589SOL    HW258883   8.672   1.247   8.123  0.2714  0.0949 -0.7725
50590SOL     OW58884   3.224   1.669   8.244  0.2831 -0.1977 -0.0438
50590SOL    HW158885   3.234   1.582   8.283 -2.3993 -0.3296  0.5330
50590SOL    HW258886   3.197   1.651   8.154 -0.7898 -0.0116  0.2246
50591SOL     OW58887   9.677   7.110  12.102 -0.0253  0.4476 -0.1262
50591SOL    HW158888   9.623   7.032  12.093 -0.6254  0.9791 -1.5568
50591SOL    HW258889   9.765   7.077  12.118 -0.6956 -0.4382  1.9619
50592SOL     OW58890   8.338  11.269   8.081  0.5252 -0.2042 -0.1662
50592SOL    HW158891   8.271  11.260   8.013 -0.7500 -1.8777  1.2137
50592SOL    HW258892   8.318  11.200   8.144  1.3527  1.5389  2.1662
50593SOL     OW58893   9.969   6.012   5.283 -0.1485 -0.5245 -0.5215
50593SOL    HW158894   9.970   6.098   5.241  0.2829  0.4797  1.4293
50593SOL    HW258895  10.048   6.011   5.337  0.4705 -2.6431 -1.3812
50594SOL     OW58896   9.637   5.023   2.565  0.4982  0.5434 -0.2406
50594SOL    HW158897   9.665   5.106   2.605 -0.5572  0.0931  1.5189
50594SOL    HW258898   9.688   5.018   2.484  3.1336  1.2908  1.2338
50595SOL     OW58899   3.996   3.667   7.741 -0.2120  0.0373 -0.7494
50595SOL    HW158900   3.999   3.660   7.836  2.7347  0.6384 -0.6981
50595SOL    HW258901   4.013   3.578   7.710  0.9545  0.2087 -0.6451
50596SOL     OW58902  12.588  10.695   2.839  0.0185  0.1175 -0.3416
50596SOL    HW158903  12.501  10.657   2.842  0.2025 -0.3092 -0.3396
50596SOL    HW258904  12.637  10.640   2.779  0.3185  0.2892 -0.2613
50597SOL     OW58905   5.648  12.872   4.874 -0.3562 -0.4275  0.5146
50597SOL    HW158906   5.659  12.957   4.833  0.5905 -0.5275  0.5385
50597SOL    HW258907   5.676  12.809   4.808  0.9946 -0.5970  1.2150
50598SOL     OW58908   2.803   4.177  10.555 -0.1389 -0.4195  0.7801
50598SOL    HW158909   2.846   4.132  10.628 -0.8115  0.7239  1.9210
50598SOL    HW258910   2.735   4.116  10.526  1.0795 -1.5138  0.0797
50599SOL     OW58911   0.713   5.532  12.363 -0.0585 -0.2730 -0.3454
50599SOL    HW158912   0.666   5.474  12.424  0.1066  0.2737  0.3149
50599SOL    HW258913   0.739   5.607  12.417  1.1941 -0.3621 -0.7940
50600SOL     OW58914  12.511  10.894   3.536  0.1070 -0.3785  0.0546
50600SOL    HW158915  12.590  10.843   3.557 -0.6746 -1.3666  0.7121
50600SOL    HW258916  12.508  10.893   3.440 -0.2612 -2.2408  0.0363
50601SOL     OW58917   1.550   6.759  11.260  0.5161  0.0402  0.2230
50601SOL    HW158918   1.523   6.810  11.183  0.0098 -1.2189 -0.4669
50601SOL    HW258919   1.491   6.684  11.261  0.5328  0.0105  1.8501
50602SOL     OW58920   2.231   4.917   6.201  0.5660 -0.0270 -0.1338
50602SOL    HW158921   2.250   4.850   6.266  2.1998  1.5450  1.1080
50602SOL    HW258922   2.270   4.884   6.120  0.0878 -1.2064  0.1072
50603SOL     OW58923   4.330   5.180   3.813  0.4062 -0.3560 -0.1183
50603SOL    HW158924   4.271   5.228   3.870 -0.7584 -0.6886 -0.9957
50603SOL    HW258925   4.377   5.247   3.764 -0.6391 -0.0798 -0.7736
50604SOL     OW58926   0.779   5.438  10.542  0.2595  0.0238  0.1424
50604SOL    HW158927   0.760   5.344  10.537  0.6874 -0.0900  0.5328
50604SOL    HW258928   0.696   5.478  10.569  0.0632 -0.2387 -0.0692
50605SOL     OW58929   8.916  12.273   6.324  0.1388 -0.0585 -0.3262
50605SOL    HW158930   9.007  12.281   6.351  0.1868  1.5387 -0.8233
50605SOL    HW258931   8.881  12.201   6.377  1.4312 -0.0879  0.5371
50606SOL     OW58932   4.816   3.023   3.741 -0.8553 -0.0545 -0.2516
50606SOL    HW158933   4.833   2.940   3.784  0.9040 -0.6595 -1.9839
50606SOL    HW258934   4.750   3.003   3.674 -2.1132  0.4618  0.7985
50607SOL     OW58935   8.108   0.346   6.988  0.7345 -0.0149 -0.2622
50607SOL    HW158936   8.027   0.296   6.999  0.4499  0.1410 -1.5903
50607SOL    HW258937   8.165   0.287   6.939  1.0247  0.3150 -0.3197
50608SOL     OW58938   2.276   5.586  11.345 -0.2512  0.4012  0.6441
50608SOL    HW158939   2.243   5.623  11.427  0.1649  1.2067  0.4631
50608SOL    HW258940   2.315   5.661  11.299 -1.6352  0.2538 -0.8890
50609SOL     OW58941   4.883   7.385   8.673 -0.6068  0.0048 -0.2811
50609SOL    HW158942   4.947   7.456   8.684 -0.3738 -0.4759  1.9079
50609SOL    HW258943   4.872   7.349   8.761 -1.5534 -1.9750 -1.1553
50610SOL     OW58944   7.213   8.584   5.533  0.1084 -0.2510  0.0441
50610SOL    HW158945   7.195   8.543   5.618 -0.4461 -0.6043 -0.2421
50610SOL    HW258946   7.308   8.576   5.522 -0.1087 -2.5435 -0.5492
50611SOL     OW58947   5.086   2.470   8.986 -0.3870 -0.1014  0.2708
50611SOL    HW158948   5.049   2.415   9.054 -1.7822  2.1567  1.4416
50611SOL    HW258949   5.064   2.559   9.012  1.5698  1.0424 -1.6461
50612SOL     OW58950  12.240  11.011  11.592 -0.0170  0.5113 -0.1690
50612SOL    HW158951  12.145  11.024  11.590  0.0562  1.0329 -0.3444
50612SOL    HW258952  12.277  11.094  11.562  0.4483 -0.1427 -1.5013
50613SOL     OW58953   3.519  11.496   1.156  0.1179  0.0580 -0.0663
50613SOL    HW158954   3.560  11.474   1.073  1.0122 -0.7386  0.5621
50613SOL    HW258955   3.593  11.510   1.216 -0.5133 -1.4684  1.1155
50614SOL     OW58956   0.137   7.243   3.349  0.2829  0.0679 -0.3419
50614SOL    HW158957   0.199   7.262   3.420 -0.0522  0.0491 -0.0416
50614SOL    HW258958   0.131   7.326   3.301 -1.6032  0.9698  1.2983
50615SOL     OW58959   4.189   4.832   9.902  0.0416 -0.1434  0.3119
50615SOL    HW158960   4.267   4.806   9.851  0.1878  0.6682  0.0977
50615SOL    HW258961   4.123   4.852   9.835 -0.1657 -0.2644  0.4807
50616SOL     OW58962  11.494   3.552  12.908 -0.0265 -0.3027  0.2069
50616SOL    HW158963  11.408   3.556  12.951 -0.6284 -0.0020 -0.9656
50616SOL    HW258964  11.555   3.528  12.977 -1.1529 -1.1149  0.9470
50617SOL     OW58965  12.501   0.091   9.042  0.4349  0.2170 -0.1871
50617SOL    HW158966  12.522   0.000   9.020  1.4113  0.3105  0.3477
50617SOL    HW258967  12.523   0.140   8.963 -1.2554 -0.1402 -0.9324
50618SOL     OW58968  10.547   2.132   2.714 -0.1817 -0.2269 -0.0660
50618SOL    HW158969  10.497   2.211   2.738 -0.0465  0.1995 -1.1273
50618SOL    HW258970  10.608   2.119   2.787 -3.8617 -2.6559  2.9652
50619SOL     OW58971  12.024   2.823   4.194  0.9755  0.1229  0.3764
50619SOL    HW158972  12.035   2.795   4.103 -0.2897 -1.9225  0.7624
50619SOL    HW258973  11.983   2.909   4.188 -0.0955 -0.4454 -1.0095
50620SOL     OW58974   5.193   5.683   1.458  0.0695  0.5604  0.0853
50620SOL    HW158975   5.259   5.645   1.399 -0.8632  1.4302 -1.6142
50620SOL    HW258976   5.120   5.622   1.455  0.1603  0.4288  0.6264
50621SOL     OW58977   1.718   3.737   2.808 -0.0491 -0.4488 -0.1700
50621SOL    HW158978   1.723   3.763   2.900  1.1360 -1.2237  0.0107
50621SOL    HW258979   1.732   3.643   2.809 -2.1277 -0.8130 -0.9923
50622SOL     OW58980  12.506  12.871   1.888 -0.3615 -0.4169  0.9830
50622SOL    HW158981  12.444  12.847   1.820  0.0912 -0.7021  0.6581
50622SOL    HW258982  12.584  12.819   1.868  0.0937  0.1716  1.1950
50623SOL     OW58983   5.371   5.300   7.470  0.0442  0.1278  0.3575
50623SOL    HW158984   5.296   5.293   7.412  0.2584  0.1210  0.0818
50623SOL    HW258985   5.445   5.323   7.413  0.3176 -0.1845  0.5761
50624SOL     OW58986   7.983   7.424   8.012 -0.4539 -0.0064 -0.0110
50624SOL    HW158987   7.932   7.481   7.954  1.7182  0.3458 -1.7192
50624SOL    HW258988   8.051   7.482   8.048  0.6618 -1.0782 -0.3203
50625SOL     OW58989  12.247  12.341   7.837 -0.1353 -0.7531  0.2674
50625SOL    HW158990  12.183  12.312   7.902  0.4199  1.6801  2.0800
50625SOL    HW258991  12.324  12.364   7.889  0.2058  1.6744 -1.1631
50626SOL     OW58992   7.066   0.007   2.441 -0.3160  0.3559  0.1192
50626SOL    HW158993   6.979   0.015   2.403 -0.2699 -0.4860 -0.1856
50626SOL    HW258994   7.114   0.083   2.408 -0.7321  0.4431 -0.2869
50627SOL     OW58995   7.183   0.771   9.621  0.0426 -0.1048  0.0330
50627SOL    HW158996   7.243   0.788   9.693  0.7869  0.8825 -0.7841
50627SOL    HW258997   7.217   0.691   9.580 -0.1299 -0.4254  0.5103
50628SOL     OW58998  11.567   6.614  11.055 -0.0199 -0.2301  0.6643
50628SOL    HW158999  11.642   6.571  11.013  2.1015  1.0191  2.8956
50628SOL    HW259000  11.549   6.560  11.131  0.6110  1.0431  1.7553
50629SOL     OW59001   7.105   5.883   1.961  0.0448  0.5986 -0.3500
50629SOL    HW159002   7.080   5.964   2.005 -0.5145  0.7026 -0.8447
50629SOL    HW259003   7.047   5.878   1.884 -0.3966 -0.5983  0.0292
50630SOL     OW59004   3.438   1.341  11.164  0.2092 -0.0127 -0.1970
50630SOL    HW159005   3.517   1.292  11.186  0.6286  0.2612 -1.0305
50630SOL    HW259006   3.411   1.381  11.247  1.9149  1.2662 -0.1825
50631SOL     OW59007   2.460   6.206   2.128 -1.1345 -0.1501  0.1272
50631SOL    HW159008   2.436   6.296   2.147  0.3333  0.1919  0.4883
50631SOL    HW259009   2.521   6.182   2.198 -0.7706 -1.0921 -0.4976
50632SOL     OW59010   1.731  11.344   4.313  0.2988 -0.2395  0.2555
50632SOL    HW159011   1.720  11.366   4.405  1.1950  0.0751  0.3044
50632SOL    HW259012   1.826  11.340   4.301  0.2059  0.2619 -0.7774
50633SOL     OW59013  10.012   2.297   4.872  0.2348 -0.7529 -0.9480
50633SOL    HW159014  10.021   2.268   4.781  0.0517  1.4102 -1.7394
50633SOL    HW259015   9.936   2.355   4.870  0.5726 -0.2277  0.4580
50634SOL     OW59016   4.397   5.345   6.213 -0.8085  0.3786  0.1427
50634SOL    HW159017   4.357   5.302   6.288  1.3078 -0.7605  0.7041
50634SOL    HW259018   4.411   5.436   6.241  0.9694 -0.2824  1.6348
50635SOL     OW59019   3.623  12.179   9.499 -0.0071 -0.1539  0.7001
50635SOL    HW159020   3.695  12.223   9.455 -0.3741 -0.2360  0.0083
50635SOL    HW259021   3.550  12.240   9.493 -0.7459 -1.1245 -0.9419
50636SOL     OW59022   4.054   1.708   5.806 -0.1384 -0.0637  0.0191
50636SOL    HW159023   4.137   1.676   5.840  0.2936  0.1564 -0.8089
50636SOL    HW259024   4.040   1.660   5.725 -1.7515 -1.4494  1.0590
50637SOL     OW59025   7.460   5.026   9.150 -0.3925 -0.3603 -0.3553
50637SOL    HW159026   7.551   5.019   9.179 -0.4705 -0.2726 -0.0820
50637SOL    HW259027   7.450   5.119   9.126 -0.9185  0.0601  1.3697
50638SOL     OW59028   0.182   0.856   5.304 -0.2242 -0.7024  0.1448
50638SOL    HW159029   0.121   0.798   5.259 -0.8184  0.7307 -0.9707
50638SOL    HW259030   0.236   0.894   5.234 -0.0064  0.2504  0.8053
50639SOL     OW59031   7.552   3.245   4.032 -0.5626  0.2077  0.0347
50639SOL    HW159032   7.595   3.306   3.972 -0.0113  1.2403  1.4346
50639SOL    HW259033   7.620   3.224   4.097 -1.3242 -0.4050  0.6458
50640SOL     OW59034   6.558   8.986   8.001 -0.2679  0.4776  0.1301
50640SOL    HW159035   6.476   8.946   8.028 -0.3405  0.9610  0.6434
50640SOL    HW259036   6.536   9.077   7.983 -0.0026  0.4228 -0.5262
50641SOL     OW59037   9.566   4.438   7.252  0.0743  0.0497 -0.2430
50641SOL    HW159038   9.594   4.483   7.172 -1.3100 -1.9369 -1.9468
50641SOL    HW259039   9.511   4.366   7.222 -0.3677 -0.9129  2.5192
50642SOL     OW59040   3.378   9.207   3.169  0.2659 -0.2866 -0.2898
50642SOL    HW159041   3.385   9.221   3.074  0.1072  0.7389 -0.1564
50642SOL    HW259042   3.388   9.294   3.207  1.5318 -0.8530  0.7170
50643SOL     OW59043   6.150   9.086  10.009 -0.2927 -0.0455  0.1226
50643SOL    HW159044   6.168   8.998  10.043 -0.5334  0.1710  0.8312
50643SOL    HW259045   6.232   9.134  10.021 -0.3484  0.0030  0.3109
50644SOL     OW59046  11.805   6.739  10.877  1.1743  0.1244 -0.0011
50644SOL    HW159047  11.831   6.701  10.962  1.0562  2.0441  0.9385
50644SOL    HW259048  11.888   6.748  10.829  1.3603 -0.1175  0.2675
50645SOL     OW59049   0.776  11.463   5.892 -0.3506  0.2467 -0.5652
50645SOL    HW159050   0.785  11.383   5.944 -2.1450  0.2271 -0.2383
50645SOL    HW259051   0.788  11.534   5.954  2.1318  0.3121 -1.0067
50646SOL     OW59052  12.616   9.642   6.363  0.0038 -0.3720 -0.5482
50646SOL    HW159053  12.545   9.591   6.323 -0.7439  0.6361 -0.5306
50646SOL    HW259054  12.586   9.658   6.452  0.9693 -1.2703 -0.0417
50647SOL     OW59055   8.932   0.331   7.011  0.1623 -0.1561 -0.2293
50647SOL    HW159056   9.012   0.318   7.062 -0.5387  1.4451  1.3673
50647SOL    HW259057   8.948   0.412   6.962 -0.5914  0.3802  0.3870
50648SOL     OW59058   9.824   3.063  10.565 -0.5114  0.3941 -0.3755
50648SOL    HW159059   9.846   2.997  10.500  2.8109  0.9329  0.0566
50648SOL    HW259060   9.746   3.106  10.530 -0.7755 -1.5065 -2.3037
50649SOL     OW59061  11.140   4.502   7.420 -0.5868  0.0170 -0.0713
50649SOL    HW159062  11.203   4.563   7.379  0.5990 -0.0424  1.5390
50649SOL    HW259063  11.143   4.424   7.365  0.4610  0.1740 -0.2683
50650SOL     OW59064   6.274  12.734  12.276  0.0837 -0.6300 -0.0404
50650SOL    HW159065   6.197  12.788  12.260  0.4822 -0.1549 -0.3918
50650SOL    HW259066   6.268  12.664  12.211 -0.5019 -1.0939  0.4991
50651SOL     OW59067   7.670   2.437   2.874  0.2096 -0.0806  0.1103
50651SOL    HW159068   7.627   2.500   2.815  0.4852  0.8897  0.9198
50651SOL    HW259069   7.756   2.476   2.891 -0.2524  0.1993  1.9844
50652SOL     OW59070   2.074   1.306   1.157 -0.0028 -0.0713 -0.0885
50652SOL    HW159071   2.019   1.348   1.223 -0.7461 -2.1661  0.7269
50652SOL    HW259072   2.012   1.270   1.093  0.6813  1.3599 -1.6324
50653SOL     OW59073   5.150  11.485   9.858 -0.2512 -0.3016  0.2482
50653SOL    HW159074   5.191  11.557   9.906 -3.1554  0.9483  1.0565
50653SOL    HW259075   5.180  11.406   9.903  2.7496  0.3129 -0.4498
50654SOL     OW59076   3.401   3.285   0.621  0.3191 -0.0932  0.1640
50654SOL    HW159077   3.455   3.245   0.554  0.9835  0.1177  0.5704
50654SOL    HW259078   3.462   3.330   0.678 -0.1322 -1.1805  1.5506
50655SOL     OW59079  10.735   3.340  12.145 -0.5668 -0.6077 -0.4438
50655SOL    HW159080  10.822   3.305  12.126 -0.2121 -1.0545  1.7203
50655SOL    HW259081  10.714   3.394  12.069  1.6439 -0.4055 -0.9924
50656SOL     OW59082   3.201  11.966  12.358  0.4341 -0.3009 -0.3811
50656SOL    HW159083   3.154  12.041  12.395  0.5041 -1.0663  1.3809
50656SOL    HW259084   3.277  11.955  12.415  0.8200 -1.2536 -1.0561
50657SOL     OW59085   7.774   3.229  11.698 -0.1769 -0.5706  0.2339
50657SOL    HW159086   7.701   3.256  11.643  0.4794  1.3890  0.2404
50657SOL    HW259087   7.847   3.219  11.637 -0.0291 -0.7786  0.4434
50658SOL     OW59088   7.046   5.809   4.335 -0.0860  0.3752  0.4108
50658SOL    HW159089   6.972   5.755   4.363  0.8252 -1.7955 -1.1203
50658SOL    HW259090   7.116   5.788   4.397  0.4906 -0.8684 -0.5982
50659SOL     OW59091   7.363   3.890   6.656  0.0351  0.1163 -0.4142
50659SOL    HW159092   7.424   3.870   6.726 -1.2088  2.6800  1.5933
50659SOL    HW259093   7.418   3.912   6.581  1.4688 -0.5372  0.4121
50660SOL     OW59094   2.412   3.677   9.575  0.1374  0.3534 -0.3695
50660SOL    HW159095   2.381   3.756   9.530  0.1235 -0.3049 -1.5586
50660SOL    HW259096   2.402   3.607   9.510 -1.0544 -0.8799  1.0780
50661SOL     OW59097  11.757   0.396   7.377 -0.0830 -0.6451 -0.0426
50661SOL    HW159098  11.849   0.417   7.363  0.3131 -2.6039 -0.7214
50661SOL    HW259099  11.739   0.324   7.316 -1.6126 -1.4130  1.2300
50662SOL     OW59100  11.085   4.273   9.007  0.3303 -0.1221 -0.0250
50662SOL    HW159101  11.123   4.277   8.919 -0.1034 -0.3654 -0.2250
50662SOL    HW259102  11.152   4.311   9.063  0.8417 -0.4872 -0.3826
50663SOL     OW59103   3.070   1.791   1.516 -0.4556 -0.1142  0.3293
50663SOL    HW159104   3.093   1.878   1.485 -1.7616  0.1425  0.0252
50663SOL    HW259105   3.077   1.797   1.612 -0.0911  0.1797  0.2865
50664SOL     OW59106  11.235   6.005   8.878  0.4482  0.4382 -0.2021
50664SOL    HW159107  11.209   6.057   8.954  0.2331  1.1207 -0.7291
50664SOL    HW259108  11.203   6.055   8.803  2.8829  1.1023 -0.8837
50665SOL     OW59109   8.427  10.062   6.502 -0.0260 -0.5482 -0.0829
50665SOL    HW159110   8.391  10.036   6.586  1.7207  0.0512  0.9065
50665SOL    HW259111   8.353  10.057   6.441 -1.4938 -0.3114  1.6099
50666SOL     OW59112  12.870   8.863   0.976  0.5189  0.1922  0.9740
50666SOL    HW159113  12.942   8.885   1.035 -1.5330  4.0877  2.3983
50666SOL    HW259114  12.798   8.836   1.033  0.0871 -1.3046 -0.2138
50667SOL     OW59115   2.772   4.354   5.008  0.1855 -0.0129  0.0553
50667SOL    HW159116   2.853   4.326   4.965 -1.2124 -1.2962 -1.9473
50667SOL    HW259117   2.702   4.324   4.949 -1.6983  3.4579  0.2295
50668SOL     OW59118   3.437   6.631   5.071 -0.5208 -0.6085 -0.4292
50668SOL    HW159119   3.469   6.668   4.988  1.2758  0.4685  0.6754
50668SOL    HW259120   3.399   6.706   5.117 -1.1981 -1.1374 -0.1077
50669SOL     OW59121   4.726   3.201   2.138 -0.4219  0.5880 -0.1997
50669SOL    HW159122   4.809   3.246   2.123  0.9024 -1.5360  0.2553
50669SOL    HW259123   4.681   3.254   2.204  0.5600  1.7925 -0.4713
50670SOL     OW59124   0.187   2.452   8.451 -0.2974  0.2102  0.5220
50670SOL    HW159125   0.196   2.367   8.492  0.4552 -0.0168 -0.1020
50670SOL    HW259126   0.114   2.493   8.497 -1.6437 -1.3376 -0.1385
50671SOL     OW59127   4.904   3.424   2.786  0.2656 -0.1033 -0.3778
50671SOL    HW159128   4.895   3.409   2.692  1.5090  2.5425 -1.0334
50671SOL    HW259129   4.963   3.355   2.816 -0.0030 -0.8767 -1.5892
50672SOL     OW59130   5.050   0.237   8.490 -0.1749 -0.1695  0.1883
50672SOL    HW159131   5.008   0.290   8.423 -2.2179  0.7092  2.0081
50672SOL    HW259132   5.009   0.151   8.481 -0.0578 -0.1993 -0.0429
50673SOL     OW59133   9.468   7.794  11.738  0.9841 -0.3671  0.0801
50673SOL    HW159134   9.470   7.842  11.655  1.5030  0.2192  0.4191
50673SOL    HW259135   9.511   7.710  11.718  0.0971 -0.6887 -0.5080
50674SOL     OW59136   0.735   3.897   6.850 -0.4298 -0.0452  0.3316
50674SOL    HW159137   0.725   3.942   6.765  0.0199 -0.3794  0.0976
50674SOL    HW259138   0.670   3.828   6.848  0.1847 -0.6264 -0.1307
50675SOL     OW59139  10.806   3.317   6.010 -0.0188  0.2015 -0.2035
50675SOL    HW159140  10.837   3.231   6.037  1.1474  0.7749  0.3635
50675SOL    HW259141  10.877   3.353   5.956 -1.4580 -0.1118 -2.4521
50676SOL     OW59142   3.130   5.277   4.066 -0.0126 -0.0850  0.3541
50676SOL    HW159143   3.066   5.220   4.024  0.8932 -1.6672  1.0236
50676SOL    HW259144   3.183   5.312   3.994 -1.3206  0.9195 -0.1659
50677SOL     OW59145  12.473   3.791   8.191 -0.3727  0.4055  0.5460
50677SOL    HW159146  12.430   3.741   8.260 -0.0672  0.8175  1.0499
50677SOL    HW259147  12.408   3.798   8.121 -0.8621  0.3996  0.9968
50678SOL     OW59148   9.387   5.164   1.815  0.2447 -0.4418 -0.3077
50678SOL    HW159149   9.317   5.227   1.795 -1.6421 -2.4023 -0.2115
50678SOL    HW259150   9.389   5.161   1.911  0.9384  0.0913 -0.3007
50679SOL     OW59151  10.763   3.075   6.535  0.5774  0.3192 -0.0194
50679SOL    HW159152  10.750   3.162   6.498  1.3675 -0.3977 -2.1727
50679SOL    HW259153  10.694   3.021   6.496  0.6979 -0.2215  0.4998
50680SOL     OW59154  11.960   6.746   0.851  0.5307  0.0103  0.2220
50680SOL    HW159155  12.048   6.712   0.870  1.6379  2.7034  0.4172
50680SOL    HW259156  11.943   6.808   0.922 -1.2566  0.0578 -0.1976
50681SOL     OW59157   0.031   6.260  12.049  0.7277  0.0234 -0.0420
50681SOL    HW159158   0.044   6.338  12.102  1.0686  2.3091 -3.1955
50681SOL    HW259159   0.063   6.188  12.103  0.8073  2.0692  2.8519
50682SOL     OW59160   5.333   7.035  10.265 -0.1051 -0.0592 -0.0062
50682SOL    HW159161   5.270   6.973  10.302 -1.2392  0.7497 -0.4951
50682SOL    HW259162   5.357   6.998  10.180 -0.2332 -0.1849  0.0117
50683SOL     OW59163   0.196   6.189  11.806 -0.1661  0.3846 -0.0888
50683SOL    HW159164   0.153   6.248  11.867  0.2396  2.4873 -1.6846
50683SOL    HW259165   0.290   6.199  11.825 -0.0977  0.2853 -0.3606
50684SOL     OW59166  10.673  12.951  10.487  0.1718 -0.0423  0.2809
50684SOL    HW159167  10.654  12.959  10.581  1.7483  1.6515  0.5194
50684SOL    HW259168  10.587  12.950  10.445 -0.5539  1.2492  1.6422
50685SOL     OW59169   5.694  12.084   7.355  0.6548 -0.2763 -0.3309
50685SOL    HW159170   5.717  12.029   7.280  1.7348 -0.6697  0.2726
50685SOL    HW259171   5.621  12.138   7.323  0.1762 -1.4016 -1.2166
50686SOL     OW59172   4.653   5.254   1.769 -0.8210 -0.2832  0.2904
50686SOL    HW159173   4.589   5.261   1.839 -1.9902 -1.2314 -0.6434
50686SOL    HW259174   4.633   5.171   1.726  0.7656 -0.4036 -0.3068
50687SOL     OW59175   1.563   6.808   5.503  0.8373 -0.1783  0.0856
50687SOL    HW159176   1.619   6.788   5.578  1.1966 -0.3558 -0.2262
50687SOL    HW259177   1.477   6.773   5.528  1.1160 -0.8452  0.1383
50688SOL     OW59178  11.997   8.975  10.332 -0.4777  0.1843 -0.5962
50688SOL    HW159179  12.073   8.951  10.281  0.0585  1.9546 -0.7022
50688SOL    HW259180  11.963   9.054  10.290 -1.2710  0.4780  0.5365
50689SOL     OW59181   5.925   2.919   0.426 -0.1152  0.1621 -0.0972
50689SOL    HW159182   5.893   2.847   0.481  0.5164 -0.2252 -0.2186
50689SOL    HW259183   5.863   2.990   0.440 -0.9614 -0.5312 -0.2574
50690SOL     OW59184  12.923   0.067   2.963  0.0952 -0.3220 -0.3642
50690SOL    HW159185  12.838   0.024   2.956 -0.5252  0.7739  0.2499
50690SOL    HW259186  12.980   0.016   2.905 -1.2151 -0.4684 -1.5805
50691SOL     OW59187  10.324   4.586  11.008 -0.1553 -0.3505  0.1722
50691SOL    HW159188  10.292   4.530  10.937 -0.9809 -0.7181  0.8176
50691SOL    HW259189  10.392   4.535  11.051 -1.6764 -1.3666  1.4628
50692SOL     OW59190   9.825   3.849   4.604  0.0269  0.1135  0.1698
50692SOL    HW159191   9.793   3.865   4.692  0.6321  0.0359  0.4104
50692SOL    HW259192   9.766   3.783   4.568  0.8779 -1.2553  1.1846
50693SOL     OW59193   4.222   7.126  10.883  0.1876  0.1559 -0.3307
50693SOL    HW159194   4.206   7.051  10.941 -0.9741 -0.7594 -1.7455
50693SOL    HW259195   4.160   7.193  10.913 -0.3379 -0.2711 -0.4477
50694SOL     OW59196   0.318  11.038   7.653 -0.0361 -0.0417 -0.3186
50694SOL    HW159197   0.391  11.015   7.596 -1.2491 -0.5192 -1.7531
50694SOL    HW259198   0.342  11.003   7.739  1.9908  0.9982 -0.3936
50695SOL     OW59199   9.248   0.441  12.307 -0.0175 -0.0760 -0.4325
50695SOL    HW159200   9.288   0.496  12.240  0.7034 -0.0269  0.0262
50695SOL    HW259201   9.277   0.353  12.287  0.0782 -0.0813 -0.2736
50696SOL     OW59202   0.634   5.343  11.977  0.4214  0.3734  0.1598
50696SOL    HW159203   0.595   5.405  12.039  0.9524 -0.6030  1.5177
50696SOL    HW259204   0.560   5.314  11.923  0.1219  1.9641 -0.3403
50697SOL     OW59205  10.853   3.138   8.551  0.1214 -0.3146  0.3362
50697SOL    HW159206  10.897   3.220   8.529  0.0404 -0.4658 -0.4202
50697SOL    HW259207  10.889   3.114   8.637 -0.6887  1.0758  1.0962
50698SOL     OW59208   9.769   0.879   3.014 -0.5113 -0.0645 -0.0078
50698SOL    HW159209   9.757   0.822   3.090 -1.3251 -1.4441 -1.1225
50698SOL    HW259210   9.725   0.833   2.942 -2.1554  2.4818 -0.7522
50699SOL     OW59211   8.686   2.728   2.233  0.1572  0.2887  0.2013
50699SOL    HW159212   8.697   2.816   2.196  0.9184  0.2189  0.2448
50699SOL    HW259213   8.614   2.737   2.295 -0.4691  0.6366 -0.5527
50700SOL     OW59214   9.731   2.023   4.491  0.2010  0.6444  0.0529
50700SOL    HW159215   9.674   2.025   4.568  1.0262  1.7930  0.6469
50700SOL    HW259216   9.785   1.945   4.504 -0.5897  0.0575 -0.0644
50701SOL     OW59217   1.634   2.684   0.310 -0.3431  0.2948  0.3670
50701SOL    HW159218   1.551   2.637   0.317 -0.2940  0.2273  0.4945
50701SOL    HW259219   1.657   2.678   0.217  0.1687 -0.8070  0.5491
50702SOL     OW59220   3.290   4.136  10.966  0.4871  0.6148  0.3472
50702SOL    HW159221   3.374   4.113  11.006 -0.0355 -1.1629  0.5058
50702SOL    HW259222   3.245   4.188  11.033  0.8733  0.2885  0.8689
50703SOL     OW59223   0.483   4.196  10.991 -0.2114 -0.8611  0.2229
50703SOL    HW159224   0.517   4.270  10.942 -2.2422  0.5285  0.7711
50703SOL    HW259225   0.508   4.213  11.081  1.9308 -2.4715  0.0080
50704SOL     OW59226   2.523  11.851   7.208  0.5051 -0.1926 -0.1743
50704SOL    HW159227   2.506  11.766   7.168  2.1676  0.2936 -2.0840
50704SOL    HW259228   2.449  11.905   7.181  0.1332 -0.6633 -0.1051
50705SOL     OW59229  12.099   1.740   7.090  0.6964 -0.2444  0.3394
50705SOL    HW159230  12.094   1.796   7.013  1.8893 -0.8074 -0.1742
50705SOL    HW259231  12.017   1.756   7.137  0.1834  0.4932 -0.7725
50706SOL     OW59232  11.315  11.650  12.310 -0.1539 -0.6116 -0.4235
50706SOL    HW159233  11.399  11.629  12.351 -0.7914 -1.4408  0.5093
50706SOL    HW259234  11.285  11.728  12.357 -0.1095 -0.5755 -0.4547
50707SOL     OW59235   1.814   3.274   2.817 -0.4004  0.1914 -0.1872
50707SOL    HW159236   1.803   3.233   2.731 -1.9343 -1.1181  0.5783
50707SOL    HW259237   1.758   3.352   2.814  0.3019  0.6894 -0.6817
50708SOL     OW59238   7.253   1.374   5.707  0.0024  0.0335 -0.2699
50708SOL    HW159239   7.328   1.393   5.650  0.4590 -1.1850 -0.1008
50708SOL    HW259240   7.214   1.295   5.669 -1.3628  0.7891 -0.5006
50709SOL     OW59241   1.589  11.982   5.441 -0.4583  0.6767  0.4702
50709SOL    HW159242   1.526  11.912   5.457 -1.8613  1.1243 -2.4515
50709SOL    HW259243   1.538  12.062   5.444  0.7002  1.4228  1.5263
50710SOL     OW59244   3.431   2.420   3.448  0.1692  0.3465 -0.4884
50710SOL    HW159245   3.454   2.395   3.358 -0.6946  0.9697 -0.8991
50710SOL    HW259246   3.474   2.355   3.503 -3.1829 -3.1085 -1.5138
50711SOL     OW59247   8.116  10.317   8.911  0.7982  0.6144 -0.3273
50711SOL    HW159248   8.205  10.334   8.879  1.1629  2.0992  1.3105
50711SOL    HW259249   8.127  10.304   9.005 -0.7162  0.8173 -0.1052
50712SOL     OW59250   6.709  10.734   4.501  0.2665 -0.4045  0.4884
50712SOL    HW159251   6.743  10.798   4.563 -0.9556 -0.9820  1.8275
50712SOL    HW259252   6.738  10.649   4.536 -0.8101 -0.7703  0.5566
50713SOL     OW59253   4.484   9.238   4.973  0.1774  0.3866 -0.1160
50713SOL    HW159254   4.549   9.281   4.917 -0.6003 -1.8198 -2.8960
50713SOL    HW259255   4.404   9.236   4.921 -0.6241 -1.7441  1.0886
50714SOL     OW59256   0.406   9.546   5.591 -0.3745  0.0474  0.4921
50714SOL    HW159257   0.409   9.469   5.647  2.5876 -1.3056 -1.2886
50714SOL    HW259258   0.359   9.517   5.513  1.3329 -0.2309 -0.4678
50715SOL     OW59259  10.742   3.318   7.500 -0.4023 -0.5429  0.1249
50715SOL    HW159260  10.730   3.253   7.431  0.0432  1.5422 -2.0683
50715SOL    HW259261  10.655   3.356   7.513 -0.3881 -0.5887  0.3625
50716SOL     OW59262   9.595   8.337   3.285 -0.6161 -0.1267  0.3287
50716SOL    HW159263   9.568   8.263   3.338  0.7592 -0.7844  0.1539
50716SOL    HW259264   9.630   8.298   3.205  1.1851  0.6121  0.7029
50717SOL     OW59265   2.992   7.359  10.721  0.0101  0.3423 -0.0404
50717SOL    HW159266   2.924   7.351  10.655 -0.0756 -1.2509  0.2016
50717SOL    HW259267   3.063   7.304  10.690 -1.2259 -3.0900  2.6041
50718SOL     OW59268   0.589   9.426   0.320 -0.5916 -0.1375 -0.3504
50718SOL    HW159269   0.563   9.345   0.276  0.5479  0.2461 -1.7746
50718SOL    HW259270   0.613   9.486   0.249 -1.1466  1.3733  0.6880
50719SOL     OW59271   3.107  12.753  12.836 -0.1151 -0.6271 -0.0745
50719SOL    HW159272   3.083  12.680  12.779  0.3499 -1.4741  0.8019
50719SOL    HW259273   3.183  12.792  12.793 -1.7573  0.8657 -1.8227
50720SOL     OW59274  11.993   6.423   8.626 -0.1097  0.6016  0.1286
50720SOL    HW159275  12.066   6.465   8.671  2.3465 -2.1403 -0.9500
50720SOL    HW259276  11.996   6.332   8.657  0.1765 -0.8153 -3.5566
50721SOL     OW59277   1.510   3.930   6.441 -0.5686  0.3162 -0.0881
50721SOL    HW159278   1.514   3.865   6.371  0.3187  0.4859 -0.2021
50721SOL    HW259279   1.561   4.004   6.408  0.9455 -0.0861  1.2180
50722SOL     OW59280   4.579   1.148   6.244 -0.5739  0.6274  0.4246
50722SOL    HW159281   4.637   1.224   6.245 -3.3888  2.9461 -0.0564
50722SOL    HW259282   4.627   1.082   6.192  1.3492  2.6115 -0.4659
50723SOL     OW59283   2.796   6.807  10.235 -0.0852 -0.0992 -0.2578
50723SOL    HW159284   2.807   6.850  10.150  0.5632 -0.2949 -0.2769
50723SOL    HW259285   2.815   6.876  10.299 -0.9245  0.1467 -0.2528
50724SOL     OW59286   9.366  10.293   0.845  0.0075  0.0047  0.2216
50724SOL    HW159287   9.314  10.257   0.773 -0.1290  1.6123 -0.5292
50724SOL    HW259288   9.441  10.334   0.803  0.0392  0.7768  1.0014
50725SOL     OW59289   3.471  12.705   0.857 -0.0419 -0.0414  0.0713
50725SOL    HW159290   3.522  12.764   0.803 -1.4522  0.4806 -0.7255
50725SOL    HW259291   3.425  12.648   0.795  0.7747 -1.5603  0.8025
50726SOL     OW59292  10.964   9.362   5.894  0.0815 -0.0158 -0.2835
50726SOL    HW159293  10.984   9.280   5.940 -0.1986  0.0106 -0.1138
50726SOL    HW259294  10.941   9.423   5.964 -1.8560 -0.3895 -0.5221
50727SOL     OW59295   7.381   5.161   1.481 -0.3989 -0.3488 -0.2735
50727SOL    HW159296   7.287   5.170   1.492 -0.1794  1.8328  0.3093
50727SOL    HW259297   7.398   5.190   1.391 -0.2101  0.0023 -0.1267
50728SOL     OW59298  10.695   4.377  11.381 -0.3182  0.0268 -0.0211
50728SOL    HW159299  10.646   4.430  11.445  0.4008  0.5562  0.0997
50728SOL    HW259300  10.658   4.289  11.390  0.0062  0.0061  1.3830
50729SOL     OW59301   0.267  11.572   2.642 -0.0966 -0.2460 -0.1850
50729SOL    HW159302   0.207  11.500   2.658 -0.2989 -0.2353 -0.8419
50729SOL    HW259303   0.306  11.591   2.727 -0.0068 -1.1567 -0.0205
50730SOL     OW59304   0.208   2.291  12.042  0.1955 -0.1357 -0.1013
50730SOL    HW159305   0.272   2.275  12.111  0.5701 -1.2605 -0.6990
50730SOL    HW259306   0.215   2.385  12.024  1.4314 -0.1881  0.0688
50731SOL     OW59307   1.396   1.771   1.179  0.1399  0.3062 -0.0977
50731SOL    HW159308   1.384   1.855   1.223 -0.6876 -0.1203  0.5084
50731SOL    HW259309   1.473   1.784   1.123  1.1686  0.8965  1.3858
50732SOL     OW59310   5.972   5.454   2.427 -0.3988 -0.0587 -0.3594
50732SOL    HW159311   5.885   5.425   2.400 -0.5502 -0.3700  0.4347
50732SOL    HW259312   5.961   5.548   2.443 -0.8472 -0.2812  0.7079
50733SOL     OW59313   8.020   6.458   3.600  0.2700  0.8236 -0.0830
50733SOL    HW159314   8.088   6.526   3.596  0.7498  0.3026 -1.6150
50733SOL    HW259315   7.984   6.465   3.688  1.0635  2.3328  0.1543
50734SOL     OW59316  12.868  12.329  10.519  0.2312  0.3303  0.3528
50734SOL    HW159317  12.895  12.409  10.475 -0.2148  1.3256  1.8033
50734SOL    HW259318  12.867  12.262  10.450 -0.6397  1.8347 -1.1668
50735SOL     OW59319  12.199   5.001   6.518 -0.1400  0.3307 -0.1314
50735SOL    HW159320  12.148   5.081   6.526 -1.7022 -0.6123 -0.2666
50735SOL    HW259321  12.213   4.991   6.424 -1.9741 -0.7199 -0.3468
50736SOL     OW59322   3.676   0.417   2.797 -0.0877  0.4141 -0.3395
50736SOL    HW159323   3.748   0.391   2.853 -1.2472  1.2096  1.6121
50736SOL    HW259324   3.666   0.344   2.735  1.6898 -0.1608  0.0068
50737SOL     OW59325  12.861   5.472   0.569  0.5913  0.6507 -0.3308
50737SOL    HW159326  12.939   5.455   0.621  0.8881 -1.1368 -1.2742
50737SOL    HW259327  12.794   5.417   0.609  0.6466 -0.2197 -1.3960
50738SOL     OW59328  12.114   2.840  12.728  0.1445  0.6365  0.0831
50738SOL    HW159329  12.158   2.896  12.665  2.3292  0.0760  1.0368
50738SOL    HW259330  12.172   2.838  12.804 -2.0547  0.7388  1.8980
50739SOL     OW59331  12.475   8.836   4.180 -0.1628  0.1760 -0.3482
50739SOL    HW159332  12.492   8.925   4.150  0.0762 -0.2475 -1.5256
50739SOL    HW259333  12.544   8.819   4.244 -0.5131  1.0043  0.2686
50740SOL     OW59334   2.675   7.397   2.152  0.0992  0.3397 -0.5072
50740SOL    HW159335   2.621   7.421   2.227  0.9023  2.1353 -0.4496
50740SOL    HW259336   2.689   7.303   2.162 -2.1437  0.0068  0.0073
50741SOL     OW59337   3.735   6.885   4.657  0.2782  0.4217 -0.1259
50741SOL    HW159338   3.809   6.842   4.700  0.3217  0.7927  0.1821
50741SOL    HW259339   3.722   6.836   4.576  1.7199  1.1376 -0.8429
50742SOL     OW59340   9.503  12.591   6.522 -0.5499 -0.3112  0.4261
50742SOL    HW159341   9.423  12.543   6.544 -0.8514  0.5022  1.1871
50742SOL    HW259342   9.510  12.658   6.590 -0.9802  1.7200 -1.4242
50743SOL     OW59343   5.230   2.073   4.529 -0.5502  0.5356  0.2972
50743SOL    HW159344   5.194   2.044   4.446 -0.5256 -0.4688  0.6173
50743SOL    HW259345   5.176   2.029   4.595  0.0850  0.4811  0.7935
50744SOL     OW59346   4.249   5.820  11.262  0.0214 -0.4600 -0.2685
50744SOL    HW159347   4.179   5.850  11.320  1.4324  1.1134  0.7068
50744SOL    HW259348   4.325   5.812  11.319  0.8812 -1.2050 -1.4774
50745SOL     OW59349   9.736   0.625  10.997  0.3721 -0.0899  0.5608
50745SOL    HW159350   9.751   0.703  10.944 -2.5312 -1.3431 -2.4884
50745SOL    HW259351   9.811   0.620  11.056  2.9496  2.4855 -2.2066
50746SOL     OW59352   4.277   5.394   9.069 -0.4067  0.0374 -0.6722
50746SOL    HW159353   4.184   5.380   9.052 -0.8237  2.6445 -0.9331
50746SOL    HW259354   4.313   5.417   8.983  1.1684 -3.6232 -1.1917
50747SOL     OW59355  11.804   8.893   7.787  0.4472  0.4211 -0.1261
50747SOL    HW159356  11.767   8.819   7.834 -0.0095  0.1098 -0.9636
50747SOL    HW259357  11.880   8.857   7.742 -0.6053  0.1071 -1.7062
50748SOL     OW59358   1.085  10.300   1.848 -0.2650  0.1568  0.3618
50748SOL    HW159359   1.166  10.348   1.830  1.4609 -2.3956  0.7016
50748SOL    HW259360   1.093  10.273   1.939 -1.3098 -0.4943  0.2792
50749SOL     OW59361  11.552  10.289  12.848  0.2942 -0.0405  0.1257
50749SOL    HW159362  11.628  10.232  12.839  0.3772  0.0791  0.0661
50749SOL    HW259363  11.483  10.246  12.797  0.3849 -0.0381  0.0023
50750SOL     OW59364   5.586   3.703  10.662 -0.0901 -0.3043 -0.0741
50750SOL    HW159365   5.509   3.646  10.654 -0.6255  0.5452 -1.3204
50750SOL    HW259366   5.631   3.671  10.740 -1.0721 -1.5828  0.0122
50751SOL     OW59367   9.649   9.127   8.437 -0.3441 -0.3849  0.0893
50751SOL    HW159368   9.696   9.084   8.508  0.7399  0.3343 -0.1560
50751SOL    HW259369   9.693   9.096   8.358 -1.0630 -0.6139 -0.2233
50752SOL     OW59370  10.340   8.024   0.919 -0.1009 -0.4184 -0.0280
50752SOL    HW159371  10.413   8.001   0.977 -0.1029 -0.8948 -0.2089
50752SOL    HW259372  10.305   7.939   0.891 -1.6589 -0.2173  1.2218
50753SOL     OW59373   3.993   2.384   0.974 -0.3493 -0.1462  0.2009
50753SOL    HW159374   3.915   2.343   0.938  0.5669 -0.5854 -1.3617
50753SOL    HW259375   4.020   2.447   0.908  0.2578  0.4738  1.0174
50754SOL     OW59376  12.128  12.540   8.372 -0.6799  0.3820  0.2096
50754SOL    HW159377  12.061  12.584   8.425 -1.2613  0.4363 -0.5635
50754SOL    HW259378  12.183  12.495   8.437 -0.1232  2.1302  1.0288
50755SOL     OW59379   3.950  10.035   3.119  0.0444  0.0820  0.2509
50755SOL    HW159380   3.952  10.047   3.025 -0.7910  0.7578  0.3113
50755SOL    HW259381   3.858  10.018   3.139  0.1080  0.5769  1.0126
50756SOL     OW59382   7.932   7.336  11.367  0.4220  0.0559 -0.4857
50756SOL    HW159383   7.975   7.285  11.299  1.3835  0.0444  0.1073
50756SOL    HW259384   7.883   7.272  11.418 -2.0200  0.3214 -2.3659
50757SOL     OW59385   3.257   9.752   9.941  0.5497  0.3183  0.4420
50757SOL    HW159386   3.318   9.756   9.868  0.7864 -0.6345  0.5757
50757SOL    HW259387   3.212   9.837   9.939  2.3919  1.3666  0.8056
50758SOL     OW59388   2.533  12.717   7.761  0.3897  0.4795 -0.1182
50758SOL    HW159389   2.581  12.800   7.761  1.0082  0.1576  1.4811
50758SOL    HW259390   2.595  12.653   7.796 -0.0855 -0.6760 -1.3016
50759SOL     OW59391   0.796   3.376   8.152  0.0618 -0.5339 -0.3771
50759SOL    HW159392   0.860   3.337   8.092 -0.0602 -0.2675 -0.6802
50759SOL    HW259393   0.711   3.358   8.112 -0.2229 -2.5809  0.9721
50760SOL     OW59394  10.833   2.465   2.110 -0.3553 -0.6425  0.2138
50760SOL    HW159395  10.828   2.522   2.033 -1.0114  0.4942  1.0555
50760SOL    HW259396  10.875   2.386   2.078  0.2150  0.1468 -1.1047
50761SOL     OW59397   7.277   9.780   0.982  0.0167  0.4779  0.3958
50761SOL    HW159398   7.228   9.811   1.059 -0.4575  0.8704 -0.0520
50761SOL    HW259399   7.361   9.752   1.017 -0.5535 -0.2889  1.1991
50762SOL     OW59400   4.813   8.694   2.068 -0.3260  0.1951  0.4205
50762SOL    HW159401   4.720   8.672   2.079 -0.5680  1.4263  1.0105
50762SOL    HW259402   4.836   8.657   1.983 -1.3840 -0.0310  0.2124
50763SOL     OW59403   1.018   7.755   8.096  0.5128  0.2826 -0.2737
50763SOL    HW159404   0.974   7.813   8.034 -0.0239  0.1399 -0.0302
50763SOL    HW259405   1.000   7.667   8.064 -1.2326  0.1270  1.0175
50764SOL     OW59406   0.155   5.455   0.727 -0.2274 -0.8138 -0.0606
50764SOL    HW159407   0.197   5.540   0.740 -0.2311 -0.7949 -0.1730
50764SOL    HW259408   0.208   5.394   0.779 -0.3746 -0.7003  0.2235
50765SOL     OW59409   0.088   4.317   7.653 -0.2409  0.0234 -0.2892
50765SOL    HW159410   0.052   4.403   7.632  0.4431 -0.3468 -3.4896
50765SOL    HW259411   0.183   4.329   7.649 -0.1113 -0.6350  0.4856
50766SOL     OW59412   2.525  12.417   5.638 -0.2979 -0.0385  0.2189
50766SOL    HW159413   2.512  12.499   5.590  2.5951  0.0192 -0.6050
50766SOL    HW259414   2.538  12.445   5.729  0.2337  0.4044  0.0152
50767SOL     OW59415   8.586   5.906   3.753  0.3859 -0.5449  0.2242
50767SOL    HW159416   8.637   5.891   3.673 -1.0967  1.2405 -1.1346
50767SOL    HW259417   8.638   5.969   3.803  0.1861  0.2655 -0.5496
50768SOL     OW59418   8.385   5.590   4.331 -0.1467  0.1952 -0.0160
50768SOL    HW159419   8.337   5.552   4.405 -2.3186  1.8169 -0.4906
50768SOL    HW259420   8.355   5.541   4.255 -1.7223  1.6806 -0.4128
50769SOL     OW59421  11.866   7.473   1.484  0.3091  0.0805  0.0223
50769SOL    HW159422  11.913   7.461   1.401  0.2713  1.8570 -0.2835
50769SOL    HW259423  11.894   7.399   1.537  3.0464  0.7232 -0.3624
50770SOL     OW59424  12.854   6.352   9.584 -0.2822  0.6139 -0.2159
50770SOL    HW159425  12.762   6.369   9.606 -0.4579 -0.1589 -0.2912
50770SOL    HW259426  12.882   6.289   9.651  0.3155  1.1505  0.0433
50771SOL     OW59427   2.084   3.684   1.179  0.1845  0.4865 -0.1742
50771SOL    HW159428   2.149   3.614   1.187 -1.4999 -0.9974  2.2478
50771SOL    HW259429   2.011   3.644   1.133 -1.1727  0.2008  2.0356
50772SOL     OW59430  11.283   1.485   8.001 -0.1669  0.2267  0.1836
50772SOL    HW159431  11.271   1.400   8.043  1.5270 -0.2076 -0.1311
50772SOL    HW259432  11.195   1.521   7.994 -1.4051 -2.7948 -2.3501
50773SOL     OW59433  11.654   2.759  10.207  0.2986  0.2042  0.5996
50773SOL    HW159434  11.579   2.778  10.151  0.7948  1.3761  0.2973
50773SOL    HW259435  11.714   2.711  10.150  1.2646  2.3166 -0.2615
50774SOL     OW59436   1.387   6.222   6.425 -0.0630 -0.1955  0.2189
50774SOL    HW159437   1.332   6.300   6.413 -1.4455 -0.9374  1.3464
50774SOL    HW259438   1.437   6.241   6.505  0.8268  0.1768 -0.4054
50775SOL     OW59439  12.271   8.519   7.165 -0.4561  0.4559  0.1945
50775SOL    HW159440  12.304   8.553   7.248  0.5130  1.5365 -0.6046
50775SOL    HW259441  12.175   8.526   7.172 -0.4069  0.1318  1.3648
50776SOL     OW59442   6.626   2.026   8.218  0.1790  0.0433 -0.1630
50776SOL    HW159443   6.697   2.090   8.226  0.4854  0.0466 -2.2701
50776SOL    HW259444   6.563   2.051   8.286  1.6028  0.8091  0.9207
50777SOL     OW59445   1.349   2.521  12.335  0.2587  0.0891 -0.0377
50777SOL    HW159446   1.301   2.550  12.258  1.1627  0.3509 -0.5131
50777SOL    HW259447   1.357   2.599  12.390 -0.5974 -0.1508  0.4586
50778SOL     OW59448   0.143   3.028  12.490 -0.5165  0.3878  0.2252
50778SOL    HW159449   0.224   3.078  12.478 -0.2942 -0.1903 -0.8996
50778SOL    HW259450   0.083   3.089  12.532  0.9228  0.4133  2.4104
50779SOL     OW59451   8.411   5.014   1.681  0.2123  0.3045 -0.1720
50779SOL    HW159452   8.364   4.984   1.603  0.1650  0.4895 -0.2145
50779SOL    HW259453   8.433   4.933   1.728  0.7521  0.1572 -0.6680
50780SOL     OW59454   4.697   3.150  12.104  0.7017 -0.0982 -0.0340
50780SOL    HW159455   4.756   3.135  12.178  3.1491 -1.0874 -2.0368
50780SOL    HW259456   4.752   3.189  12.037 -1.5189  1.0967 -1.2777
50781SOL     OW59457   6.330   5.690   8.353 -0.0963 -0.0243  0.0512
50781SOL    HW159458   6.277   5.630   8.300 -0.5265 -1.1570  1.6719
50781SOL    HW259459   6.310   5.777   8.319 -2.5213 -0.4659  0.1561
50782SOL     OW59460   7.144  11.444   5.792  0.3259 -0.2120 -0.1994
50782SOL    HW159461   7.224  11.487   5.823  0.8224  0.8668 -2.6786
50782SOL    HW259462   7.102  11.409   5.871  2.1937  0.9871  1.4017
50783SOL     OW59463   3.892  12.930   9.863  0.0560 -0.2728 -0.6301
50783SOL    HW159464   3.957  12.862   9.847  0.4336 -0.2221  0.5713
50783SOL    HW259465   3.923  13.005   9.811  1.8064  0.2317  1.0241
50784SOL     OW59466  11.417  11.770   0.859  0.2440  0.6161 -0.1342
50784SOL    HW159467  11.454  11.833   0.798 -0.7551  0.2692 -1.1401
50784SOL    HW259468  11.438  11.684   0.821  1.2431  0.3231  1.0117
50785SOL     OW59469   8.138   9.294   5.232  0.1222 -0.2504 -0.0677
50785SOL    HW159470   8.220   9.295   5.183  0.3101  0.5461  0.2565
50785SOL    HW259471   8.124   9.201   5.252  0.3716 -0.5173 -1.0649
50786SOL     OW59472   3.481   9.774   0.984  0.1728 -0.5533  0.0036
50786SOL    HW159473   3.413   9.716   1.018  1.0644 -1.7441 -0.1645
50786SOL    HW259474   3.501   9.737   0.897  0.2999  0.4091 -0.3824
50787SOL     OW59475   1.521   7.459   5.491 -0.4198  0.0276 -0.9420
50787SOL    HW159476   1.612   7.432   5.488 -0.8883 -2.3004  1.5366
50787SOL    HW259477   1.480   7.398   5.552 -3.7963  0.5882 -2.4229
50788SOL     OW59478   6.171   6.855   3.787  0.6010 -0.9189  0.1653
50788SOL    HW159479   6.156   6.910   3.864  1.6166  1.1914 -1.0507
50788SOL    HW259480   6.254   6.811   3.805  1.0392 -0.1249  0.1434
50789SOL     OW59481  11.223  11.851   2.637 -0.0859  0.2863 -0.3259
50789SOL    HW159482  11.238  11.758   2.657 -0.9687  0.3490  0.7052
50789SOL    HW259483  11.225  11.894   2.722 -1.3874  0.9596 -0.6218
50790SOL     OW59484   3.453   8.974   4.036 -0.4376 -0.7845 -0.7901
50790SOL    HW159485   3.459   9.063   4.001 -0.0823  0.4579  2.1235
50790SOL    HW259486   3.531   8.965   4.091 -2.2836 -1.4406  1.8828
50791SOL     OW59487   5.238  10.713   6.702 -0.4671 -0.4767  0.0500
50791SOL    HW159488   5.148  10.739   6.725 -0.3060  0.5490 -0.4388
50791SOL    HW259489   5.269  10.665   6.779 -1.1526 -0.1254  0.5608
50792SOL     OW59490   4.240   9.784  12.154 -0.1171 -0.1007 -0.1322
50792SOL    HW159491   4.190   9.831  12.087 -0.4014 -0.2316 -0.0164
50792SOL    HW259492   4.278   9.853  12.208 -0.4211  0.0028 -0.0443
50793SOL     OW59493   0.734   9.972   4.138 -0.3915 -0.4903  0.2258
50793SOL    HW159494   0.659   9.959   4.196 -0.7643 -0.7410 -0.3105
50793SOL    HW259495   0.708   9.932   4.055  0.1271 -0.1060 -0.1299
50794SOL     OW59496  10.234   7.746   0.916  0.0795 -0.2641 -0.3427
50794SOL    HW159497  10.219   7.716   1.006  0.4987 -1.0550 -0.5259
50794SOL    HW259498  10.270   7.669   0.871  0.9863  0.4496 -0.8813
50795SOL     OW59499   5.071   7.204   7.180 -0.0885  0.2827  0.0281
50795SOL    HW159500   5.082   7.182   7.272 -1.9108 -0.4605  0.1198
50795SOL    HW259501   5.007   7.276   7.180 -0.9134 -0.4321 -0.6869
50796SOL     OW59502   2.304   6.161  11.505 -0.0375 -0.4060 -0.0955
50796SOL    HW159503   2.297   6.129  11.415  0.1037 -0.9189  0.0744
50796SOL    HW259504   2.317   6.255  11.496 -1.1039 -0.2855 -0.5885
50797SOL     OW59505   8.874   3.514   5.054 -0.1450 -0.2981 -0.4504
50797SOL    HW159506   8.788   3.497   5.017  0.1842  0.3348 -1.5655
50797SOL    HW259507   8.921   3.431   5.047 -1.1034 -1.0677  1.5129
50798SOL     OW59508   8.311   3.289   8.309 -0.5223 -0.0678 -0.0961
50798SOL    HW159509   8.283   3.363   8.363 -1.7721 -0.3218 -0.3786
50798SOL    HW259510   8.287   3.211   8.360  1.0755 -0.3187  0.3492
50799SOL     OW59511   0.040   2.272   1.388 -0.0974  0.5165 -0.5620
50799SOL    HW159512   0.096   2.349   1.376 -0.9732  0.7952 -3.4949
50799SOL    HW259513   0.080   2.205   1.333 -0.5400 -0.5083  0.3241
50800SOL     OW59514   6.615   0.082   6.668  0.2880 -0.2000 -0.3112
50800SOL    HW159515   6.677   0.152   6.648 -0.0086 -0.0232 -0.6334
50800SOL    HW259516   6.631   0.061   6.760 -0.2227  0.9083  0.0518
50801SOL     OW59517   9.431   9.795   2.144  0.1454  0.4652 -0.3328
50801SOL    HW159518   9.456   9.784   2.052 -0.5267  3.5813 -1.0168
50801SOL    HW259519   9.513   9.798   2.192  0.7954  2.7286 -1.4529
50802SOL     OW59520   7.885  12.324   5.992  0.8197  0.1060  0.4006
50802SOL    HW159521   7.830  12.373   6.054  1.1895 -0.9904  1.6355
50802SOL    HW259522   7.968  12.313   6.038  1.8596  1.0973 -1.1595
50803SOL     OW59523   0.042   4.439   8.952  0.4850 -0.5127  0.3194
50803SOL    HW159524  -0.054   4.442   8.955  0.4667 -1.1384  0.4121
50803SOL    HW259525   0.064   4.347   8.960  1.0783 -0.4430 -0.3560
50804SOL     OW59526   7.842   2.721   1.386 -0.0768 -0.1211  0.6997
50804SOL    HW159527   7.900   2.667   1.439 -0.6902  0.3347  1.8672
50804SOL    HW259528   7.762   2.669   1.376 -0.5187  0.3930  1.4894
50805SOL     OW59529  11.432   1.635   6.150  0.1454 -0.4042  0.1455
50805SOL    HW159530  11.423   1.619   6.056 -0.3270 -0.9010  0.2703
50805SOL    HW259531  11.496   1.571   6.179  1.5631  0.8257 -0.1115
50806SOL     OW59532   7.953   5.782   5.863  0.0266  0.1675  0.4482
50806SOL    HW159533   7.918   5.818   5.945 -1.8057  1.0755 -0.6559
50806SOL    HW259534   8.047   5.800   5.867 -0.2787  1.7392  1.6157
50807SOL     OW59535  11.825   9.964  11.391  0.5385 -0.0766  0.1043
50807SOL    HW159536  11.797   9.916  11.313 -0.3381  0.9170 -0.2029
50807SOL    HW259537  11.837   9.895  11.457  2.1008 -1.0274 -1.0946
50808SOL     OW59538   4.739   7.569   1.364  0.1261  0.4330  0.3977
50808SOL    HW159539   4.787   7.652   1.364 -0.1955  0.6612 -1.4310
50808SOL    HW259540   4.808   7.502   1.357  0.2958  0.6361  0.1165
50809SOL     OW59541   2.799   0.720   3.735 -0.4619 -0.4274 -0.5409
50809SOL    HW159542   2.880   0.677   3.708  0.3943 -0.1162  1.3580
50809SOL    HW259543   2.733   0.650   3.733  0.5407 -1.4687  0.8532
50810SOL     OW59544   7.029   0.018   3.322  0.1920 -0.2900  0.2185
50810SOL    HW159545   6.984  -0.064   3.345 -1.1335  0.7797  1.6642
50810SOL    HW259546   6.965   0.065   3.269  0.3891  0.3750  0.5626
50811SOL     OW59547   7.416   8.086  12.612 -0.2602  0.0011 -0.5156
50811SOL    HW159548   7.497   8.108  12.565  0.5509 -1.7450 -0.0458
50811SOL    HW259549   7.447   8.045  12.693 -1.6377  0.0612  0.0555
50812SOL     OW59550   0.677   1.449   0.318 -0.1062  0.1527 -0.2618
50812SOL    HW159551   0.724   1.375   0.355  1.2594  1.3788  0.5717
50812SOL    HW259552   0.675   1.433   0.224  0.5889 -0.6863 -0.1385
50813SOL     OW59553  10.667   8.070   2.066 -0.7295 -0.4660 -0.0354
50813SOL    HW159554  10.639   8.159   2.048  2.5842  0.5785 -0.8494
50813SOL    HW259555  10.655   8.060   2.161 -0.9703  0.9276  0.1022
50814SOL     OW59556   1.222  10.403   2.389  0.5055 -0.0400 -0.0043
50814SOL    HW159557   1.312  10.414   2.360  0.8489 -0.7190  0.7539
50814SOL    HW259558   1.176  10.368   2.313  1.2986 -1.4140  0.1102
50815SOL     OW59559   5.814   4.019   8.246  0.5652  0.4867 -0.6652
50815SOL    HW159560   5.875   4.092   8.242 -0.4432  1.2961 -2.5941
50815SOL    HW259561   5.857   3.949   8.197 -0.6771  1.6492 -3.6512
50816SOL     OW59562   8.092  12.539   9.982  0.1424  0.2756 -0.5971
50816SOL    HW159563   8.048  12.558  10.065 -0.1472  2.5050 -1.2121
50816SOL    HW259564   8.158  12.473  10.005  0.4403  1.2290  1.5089
50817SOL     OW59565  11.707   7.185   9.410  0.1685  0.0664  0.0950
50817SOL    HW159566  11.635   7.226   9.362 -0.0866 -0.7533 -0.2414
50817SOL    HW259567  11.785   7.207   9.359  0.2298  1.3192  0.6914
50818SOL     OW59568   2.557  10.540  11.394  0.1165  0.1967  0.1843
50818SOL    HW159569   2.616  10.578  11.458 -0.9020  2.0380  0.1048
50818SOL    HW259570   2.584  10.578  11.310  0.3760 -0.8888 -0.2456
50819SOL     OW59571   8.791  10.527  12.742  0.0908 -0.3480  0.2846
50819SOL    HW159572   8.852  10.541  12.669  0.3272 -2.1743  0.0964
50819SOL    HW259573   8.763  10.616  12.767  2.0721  0.4820 -0.2506
50820SOL     OW59574  12.354   0.293   8.039  0.5869  0.3386 -0.4503
50820SOL    HW159575  12.297   0.263   8.109 -0.3095  0.5574 -1.0705
50820SOL    HW259576  12.412   0.357   8.080  2.1228 -1.7081  0.7631
50821SOL     OW59577   6.235  11.033   9.274  0.3885 -0.2492 -0.1533
50821SOL    HW159578   6.199  10.985   9.349  0.6558 -0.6577 -0.2823
50821SOL    HW259579   6.314  10.985   9.251  0.4482  0.0300 -0.5339
50822SOL     OW59580   8.646  10.188   8.168  0.3561  0.2746  0.5151
50822SOL    HW159581   8.687  10.209   8.252  1.2282 -0.5157  0.3075
50822SOL    HW259582   8.708  10.220   8.103 -0.8552  1.9599  0.1132
50823SOL     OW59583   2.258   8.006  12.134 -0.9299  0.6365  0.8148
50823SOL    HW159584   2.351   8.027  12.121 -1.1048  1.6462  1.0998
50823SOL    HW259585   2.222   8.002  12.045 -0.1413 -2.2025  0.5483
50824SOL     OW59586   8.121   5.131   1.307 -0.4188 -0.0439  0.5785
50824SOL    HW159587   8.077   5.113   1.223 -0.5464  0.8512  0.4442
50824SOL    HW259588   8.096   5.220   1.328 -0.7531 -0.4161  1.8132
50825SOL     OW59589  12.255   0.252  12.793  0.1212  0.0807  0.0798
50825SOL    HW159590  12.300   0.167  12.789 -0.0488  0.0320 -1.2143
50825SOL    HW259591  12.284   0.298  12.715  0.0624  1.1506  0.6759
50826SOL     OW59592   0.831  12.187   5.691 -0.4231 -0.0100 -0.0437
50826SOL    HW159593   0.921  12.165   5.667  1.0865  1.9479  3.1152
50826SOL    HW259594   0.820  12.278   5.662 -0.9783  0.1261  0.5628
50827SOL     OW59595   0.432  11.403   4.142  0.0602 -0.3102  0.6801
50827SOL    HW159596   0.488  11.430   4.069  0.8968 -1.4625  0.8579
50827SOL    HW259597   0.385  11.327   4.109 -0.5844 -0.0057  0.8970
50828SOL     OW59598  10.046   9.658   3.331 -0.0141  0.1293 -0.2184
50828SOL    HW159599  10.115   9.723   3.315  0.0567  0.2995  0.7253
50828SOL    HW259600  10.046   9.604   3.252  0.4480  0.8066 -0.6959
50829SOL     OW59601   4.983   5.986   2.497 -0.3138  0.5532  0.7331
50829SOL    HW159602   4.956   5.945   2.414  0.9788 -0.5148  0.8044
50829SOL    HW259603   4.940   5.933   2.564 -0.7170  0.9303  0.7804
50830SOL     OW59604   8.906   8.972   0.475 -0.5640 -0.0674  0.3377
50830SOL    HW159605   8.889   8.958   0.382 -1.1069 -1.0563  0.5781
50830SOL    HW259606   8.821   8.992   0.513 -0.5194 -0.7167  0.7960
50831SOL     OW59607   5.191   2.927   2.278 -0.8193  0.1511 -0.2144
50831SOL    HW159608   5.155   2.997   2.333  0.2105  0.2825  0.3221
50831SOL    HW259609   5.175   2.847   2.328 -1.7365  0.0175 -0.6948
50832SOL     OW59610   2.755   1.140   6.839 -0.0537 -0.2157 -0.0707
50832SOL    HW159611   2.838   1.183   6.862 -0.3876  0.4834 -0.1682
50832SOL    HW259612   2.704   1.207   6.796 -0.6594 -0.6625 -0.0598
50833SOL     OW59613   5.376   3.956  11.618  0.1523 -0.0906  0.4031
50833SOL    HW159614   5.359   3.896  11.691  2.6291 -1.1778  0.1834
50833SOL    HW259615   5.398   4.039  11.661  2.3253 -0.9109  1.0208
50834SOL     OW59616   0.810   3.270   6.204 -0.0521 -0.3222  0.8747
50834SOL    HW159617   0.716   3.252   6.198 -0.0663 -0.3651  1.2563
50834SOL    HW259618   0.821   3.356   6.162 -0.1817 -0.5696  0.3288
50835SOL     OW59619   3.439   3.692   0.178  0.5254  0.3358  0.0071
50835SOL    HW159620   3.442   3.670   0.085  0.2107  0.2332  0.0172
50835SOL    HW259621   3.346   3.710   0.194  0.6103  0.5514  0.2550
50836SOL     OW59622   6.434   1.610  12.906 -0.2904 -0.1680  0.0202
50836SOL    HW159623   6.364   1.581  12.847 -0.4107 -0.3870  0.2711
50836SOL    HW259624   6.426   1.553  12.982 -0.8508  0.8317  0.7318
50837SOL     OW59625   0.993   5.720  11.612  0.0348 -0.2767  0.2494
50837SOL    HW159626   0.935   5.795  11.619  0.0277 -0.4167  2.5705
50837SOL    HW259627   1.073   5.747  11.656  1.3769 -0.4781 -1.9069
50838SOL     OW59628  10.532   3.624  10.375 -0.4055  0.9104  0.1212
50838SOL    HW159629  10.554   3.594  10.463  0.9179 -1.9343 -1.0663
50838SOL    HW259630  10.436   3.623  10.372 -0.4922  1.4906  1.6039
50839SOL     OW59631   8.355   5.007   8.117  0.3136 -0.7173 -0.1799
50839SOL    HW159632   8.420   5.029   8.051  0.0768  1.2894  0.2164
50839SOL    HW259633   8.277   4.982   8.067  0.7767 -1.2973 -0.6330
50840SOL     OW59634   5.972  10.281   3.112  0.5584 -0.1319 -0.5549
50840SOL    HW159635   5.933  10.196   3.094  1.7599 -1.1359  1.3523
50840SOL    HW259636   6.041  10.264   3.175 -0.1446  2.4638  1.0838
50841SOL     OW59637   4.168  11.888   6.061  0.1238  0.5103 -0.3910
50841SOL    HW159638   4.199  11.945   5.991  2.0556 -0.9151 -0.7770
50841SOL    HW259639   4.224  11.909   6.136  0.3936 -0.3588 -0.3324
50842SOL     OW59640   1.750  12.706   3.610 -0.0908  0.0691 -0.2696
50842SOL    HW159641   1.730  12.703   3.517 -1.4791 -0.8569  0.0277
50842SOL    HW259642   1.794  12.790   3.623 -0.4026  0.4631 -1.6550
50843SOL     OW59643   7.759  10.334   8.119  0.4898 -0.7887  0.5033
50843SOL    HW159644   7.795  10.261   8.069 -1.3044 -1.6360  0.3591
50843SOL    HW259645   7.796  10.324   8.207 -0.3796 -2.3994  0.7103
50844SOL     OW59646   4.726   0.627   1.249 -0.1661  0.3543  0.4294
50844SOL    HW159647   4.791   0.690   1.219 -0.2754  0.2720  0.0166
50844SOL    HW259648   4.642   0.673   1.239 -0.2009  0.3388  0.6413
50845SOL     OW59649   6.672  11.808   9.612 -0.4085 -0.6438  0.4617
50845SOL    HW159650   6.665  11.829   9.705 -0.1847 -1.7225  0.7365
50845SOL    HW259651   6.633  11.721   9.604  0.7131 -1.1124 -0.2277
50846SOL     OW59652   1.000  10.916  10.127 -0.5050  0.0045 -0.2101
50846SOL    HW159653   1.069  10.875  10.075 -0.6558  0.7348 -1.0095
50846SOL    HW259654   0.963  10.983  10.070 -0.8555  0.6524  0.7505
50847SOL     OW59655  10.925   1.621   8.531  0.2210  0.0229 -0.5104
50847SOL    HW159656  10.948   1.705   8.570  3.4634 -0.6283 -0.7458
50847SOL    HW259657  10.925   1.559   8.604 -0.2166 -0.0995 -0.6119
50848SOL     OW59658   7.297   6.487   9.118  0.3243  0.2072 -0.1306
50848SOL    HW159659   7.298   6.391   9.119  0.5073  0.2063  0.5328
50848SOL    HW259660   7.309   6.512   9.210 -2.6038  0.8591  0.1560
50849SOL     OW59661  10.623  12.963   5.535 -0.2220 -0.3631  0.7059
50849SOL    HW159662  10.671  12.888   5.499  1.0439  0.3877  0.7705
50849SOL    HW259663  10.550  12.976   5.474  1.2802  0.2305 -1.0506
50850SOL     OW59664  11.686  11.751  10.314  0.1179  0.0249 -0.3118
50850SOL    HW159665  11.741  11.678  10.286  2.7662  2.3341 -1.6522
50850SOL    HW259666  11.747  11.813  10.353 -1.9426  1.7887  0.3077
50851SOL     OW59667   0.314   2.071  12.401  0.1341 -0.7726 -0.4763
50851SOL    HW159668   0.402   2.033  12.404  0.3547 -0.3611 -1.3656
50851SOL    HW259669   0.280   2.047  12.316 -0.4906 -0.6457 -0.2676
50852SOL     OW59670   9.838   2.876   3.726  0.0842  0.1540 -0.4827
50852SOL    HW159671   9.896   2.937   3.772 -0.0405 -0.0290 -0.0765
50852SOL    HW259672   9.866   2.880   3.635  0.0670  0.8299 -0.4626
50853SOL     OW59673   9.942   1.535   7.931 -0.2383  0.2054 -0.4974
50853SOL    HW159674   9.951   1.450   7.889 -2.5993 -0.2325 -0.2278
50853SOL    HW259675  10.021   1.543   7.985  0.4599 -1.3982 -1.2236
50854SOL     OW59676  11.677   9.377   4.519  0.3335 -0.2552  0.6031
50854SOL    HW159677  11.725   9.338   4.446 -0.0709 -1.1444  0.7988
50854SOL    HW259678  11.598   9.413   4.479  0.6821  0.3256  0.4291
50855SOL     OW59679  10.344   4.948   2.622 -0.4430  0.0347  0.2982
50855SOL    HW159680  10.311   5.037   2.635 -1.5172 -0.4270  0.7927
50855SOL    HW259681  10.328   4.930   2.529  0.7553  0.7281 -0.0684
50856SOL     OW59682   9.656   6.932  10.487 -0.0412  0.3727 -0.1620
50856SOL    HW159683   9.680   7.021  10.463 -1.6449  0.4659 -1.5764
50856SOL    HW259684   9.591   6.942  10.557  0.4611  0.2779  0.3214
50857SOL     OW59685   9.062   2.073   9.861  0.2743  0.0506  0.2319
50857SOL    HW159686   9.032   2.013   9.929 -0.4517  0.6240  0.4304
50857SOL    HW259687   9.040   2.160   9.894 -0.3244  0.3290 -0.8267
50858SOL     OW59688   9.792   1.855   6.346  0.3054  0.6050 -0.1429
50858SOL    HW159689   9.863   1.911   6.378  0.2021  0.3092  0.6132
50858SOL    HW259690   9.822   1.766   6.363 -0.4586  0.4913  0.6385
50859SOL     OW59691   3.067   4.550   2.272 -0.1054  0.1515  0.5449
50859SOL    HW159692   2.974   4.528   2.280 -0.1399  0.3879  0.8384
50859SOL    HW259693   3.068   4.642   2.244  0.0351 -0.3230 -1.0796
50860SOL     OW59694   7.023   0.354   0.729  0.5207  0.8359 -0.0588
50860SOL    HW159695   6.965   0.411   0.780 -0.5302  0.8079 -1.1654
50860SOL    HW259696   6.971   0.276   0.711  0.7881  0.9288 -1.3240
50861SOL     OW59697   9.036   5.964   7.892  0.2053  0.4757 -0.5313
50861SOL    HW159698   9.001   6.021   7.961 -0.3234  0.3246 -0.6663
50861SOL    HW259699   9.100   6.019   7.846  1.5606  0.1659  0.8961
50862SOL     OW59700   6.625   6.259   8.488 -0.5517  0.0203  0.6612
50862SOL    HW159701   6.658   6.316   8.418 -1.2237 -0.2687  0.0979
50862SOL    HW259702   6.686   6.185   8.490 -0.8572 -0.2588 -0.0263
50863SOL     OW59703   5.958  10.315   4.648  0.1493  0.1863 -0.3041
50863SOL    HW159704   5.870  10.290   4.621  0.8923 -1.6467 -1.2211
50863SOL    HW259705   5.986  10.380   4.583 -0.4410  0.6067 -0.1367
50864SOL     OW59706   7.368   8.275   5.379 -0.3134 -0.3174  0.0274
50864SOL    HW159707   7.395   8.333   5.449 -0.4043 -0.2865  0.0377
50864SOL    HW259708   7.445   8.222   5.360 -0.0718  0.1572 -0.3348
50865SOL     OW59709   8.068   4.511   8.169 -0.1206 -0.1321  0.0142
50865SOL    HW159710   8.055   4.509   8.264  3.9210  0.0602  0.7482
50865SOL    HW259711   8.085   4.604   8.150  0.8267 -0.4028 -0.5372
50866SOL     OW59712   6.866   0.308  12.711  0.4269 -0.5257  0.3271
50866SOL    HW159713   6.831   0.273  12.794  2.2904  0.7715  1.7477
50866SOL    HW259714   6.801   0.372  12.683  0.4614  0.0923  1.5974
50867SOL     OW59715   4.886  10.827   1.017 -0.3671 -0.3407  0.9543
50867SOL    HW159716   4.802  10.783   1.006 -0.4955  0.0029  0.5545
50867SOL    HW259717   4.947  10.757   1.043 -0.2511 -1.0174 -0.9926
50868SOL     OW59718   0.182   7.016   9.007  0.1051  0.2374  0.5242
50868SOL    HW159719   0.130   6.956   9.061 -1.7583  0.0886 -1.3209
50868SOL    HW259720   0.133   7.024   8.925  2.1147  1.5315 -0.6469
50869SOL     OW59721   6.899   4.561   3.510 -0.0064 -0.6078  0.3112
50869SOL    HW159722   6.810   4.541   3.481 -0.8581  2.5373  0.3922
50869SOL    HW259723   6.889   4.600   3.596  1.6278 -1.3423  0.8876
50870SOL     OW59724   2.384  11.526  10.917 -0.1764  0.0072 -0.2639
50870SOL    HW159725   2.466  11.521  10.868  1.0187  0.6137  1.5676
50870SOL    HW259726   2.333  11.593  10.870  1.4415  1.5068 -0.0136
50871SOL     OW59727   8.972  11.113  12.256 -0.5448  0.1681 -0.3468
50871SOL    HW159728   9.065  11.090  12.254 -0.5649  0.1122 -1.0711
50871SOL    HW259729   8.966  11.193  12.203 -0.5580  1.6017  1.7004
50872SOL     OW59730   3.168   7.399   4.103  0.3780 -0.2182  0.8454
50872SOL    HW159731   3.174   7.464   4.173  2.7053 -0.5542  1.0496
50872SOL    HW259732   3.122   7.443   4.032  4.7872  3.0935 -0.3912
50873SOL     OW59733   3.615   1.675  12.543  0.5990  0.1715  0.0535
50873SOL    HW159734   3.628   1.764  12.576  1.3668  0.0541  0.0734
50873SOL    HW259735   3.612   1.620  12.622 -1.9094  0.3953  0.1923
50874SOL     OW59736   7.310   7.991   0.773 -0.2837  0.8532  1.0019
50874SOL    HW159737   7.319   8.055   0.843 -1.1947  2.0056  0.1006
50874SOL    HW259738   7.229   7.945   0.792  0.3172  0.0005  1.5910
50875SOL     OW59739   9.959  11.804   4.819  0.0294  0.2150  0.6322
50875SOL    HW159740   9.992  11.815   4.730 -1.4470 -0.9213 -0.1031
50875SOL    HW259741   9.869  11.834   4.815 -1.1169 -2.7957  0.8664
50876SOL     OW59742   1.555   0.497   0.718  0.0698  0.0494  0.3079
50876SOL    HW159743   1.619   0.427   0.708  1.8171  1.2918  2.0082
50876SOL    HW259744   1.490   0.462   0.779  1.0229 -0.0745  1.2839
50877SOL     OW59745  11.738   4.920  12.620  0.0048 -0.2022  0.1897
50877SOL    HW159746  11.826   4.959  12.619  0.6328 -1.5617 -1.3760
50877SOL    HW259747  11.740   4.859  12.694  0.1877  0.1656  0.4922
50878SOL     OW59748   8.704   2.597   9.995  0.4372 -0.1962  0.1658
50878SOL    HW159749   8.761   2.660   9.951  0.0871  1.3064  1.7546
50878SOL    HW259750   8.616   2.625   9.972  0.2833 -1.0367 -0.3089
50879SOL     OW59751   4.534   9.848   6.054 -0.1787  0.0756 -0.2067
50879SOL    HW159752   4.595   9.889   6.116 -1.1070  0.0141  0.7566
50879SOL    HW259753   4.591   9.802   5.992  0.7227 -1.2262  1.5279
50880SOL     OW59754  11.224   7.814   0.329  0.0281 -0.3506 -0.1248
50880SOL    HW159755  11.266   7.900   0.338  0.6079 -0.6149 -0.3062
50880SOL    HW259756  11.252   7.765   0.406 -0.3245 -0.3700 -0.0084
50881SOL     OW59757   0.023   4.066   3.437 -0.0276 -0.4328  0.1970
50881SOL    HW159758   0.117   4.086   3.437  0.3836 -2.2568 -0.0743
50881SOL    HW259759  -0.002   4.067   3.530  0.3193 -0.2525  0.2906
50882SOL     OW59760   7.230   5.444   5.016  0.7539  0.3232 -0.0436
50882SOL    HW159761   7.161   5.477   4.958  0.4357  1.1763  0.7832
50882SOL    HW259762   7.219   5.494   5.097  0.3133 -1.7863  1.2691
50883SOL     OW59763   0.342  11.991   4.750  0.8625 -0.3266  0.3420
50883SOL    HW159764   0.349  11.927   4.678  0.1554  0.3224 -0.3240
50883SOL    HW259765   0.265  11.963   4.798 -0.2895  0.8101 -0.7792
50884SOL     OW59766  12.659  10.075   7.409 -0.5049 -0.2776  0.4450
50884SOL    HW159767  12.574  10.035   7.430 -1.6093  1.5152 -0.4143
50884SOL    HW259768  12.708  10.071   7.491 -1.7405 -0.5592  1.2001
50885SOL     OW59769   2.521   1.233  12.437  0.2128  0.2233  0.4467
50885SOL    HW159770   2.447   1.222  12.497  0.5719  0.0564  0.8676
50885SOL    HW259771   2.490   1.199  12.353 -0.1655  0.1053  0.6321
50886SOL     OW59772   9.289   8.765   5.374 -0.4215  0.3454 -0.0066
50886SOL    HW159773   9.343   8.779   5.297 -0.7560 -0.7317 -0.4504
50886SOL    HW259774   9.269   8.853   5.406 -0.2701  0.7967 -1.1352
50887SOL     OW59775   4.517   9.800  12.810  0.2722 -0.1019  0.3415
50887SOL    HW159776   4.505   9.892  12.789 -2.0163  0.2552  2.5998
50887SOL    HW259777   4.515   9.797  12.906  1.5574 -2.3905  0.3759
50888SOL     OW59778   5.098   8.723  11.630 -0.3132  0.6716  0.1926
50888SOL    HW159779   5.168   8.664  11.656 -0.7825 -0.7576 -1.6299
50888SOL    HW259780   5.142   8.807  11.614  0.9261 -0.0873 -0.5241
50889SOL     OW59781   7.460   4.920   5.703 -0.4074 -0.0257  0.5583
50889SOL    HW159782   7.466   4.896   5.611 -0.2691 -1.5589  0.9374
50889SOL    HW259783   7.369   4.904   5.727 -0.2509 -0.4571  0.8879
50890SOL     OW59784   2.387  11.630   1.334 -0.5830 -0.1235 -0.8290
50890SOL    HW159785   2.372  11.536   1.326  1.5759 -0.4905 -1.3589
50890SOL    HW259786   2.441  11.639   1.413 -0.5811  0.6446 -0.9088
50891SOL     OW59787   0.755  10.046   7.710 -0.2243  0.1879  0.3772
50891SOL    HW159788   0.767  10.045   7.615  0.9407  1.2167  0.4876
50891SOL    HW259789   0.782   9.959   7.738  0.5710  0.2601 -0.1260
50892SOL     OW59790   0.787  10.341  10.275  0.6739  0.0444  0.2569
50892SOL    HW159791   0.800  10.275  10.343 -1.6235  0.8260  1.5708
50892SOL    HW259792   0.772  10.292  10.195  0.6583 -0.9707  0.8717
50893SOL     OW59793   7.788  10.418   0.640  0.1657  0.5936  0.2118
50893SOL    HW159794   7.743  10.456   0.715  1.3148  3.1799 -0.2884
50893SOL    HW259795   7.850  10.355   0.679 -0.4551  0.6171  1.2747
50894SOL     OW59796  11.060   9.798   2.933 -0.0458 -0.3452  0.2286
50894SOL    HW159797  11.061   9.788   2.838 -1.4559 -0.5431  0.2229
50894SOL    HW259798  11.076   9.710   2.966  0.0586 -0.3448  0.1798
50895SOL     OW59799  11.032   9.399   0.356  0.0088 -0.1405 -0.1812
50895SOL    HW159800  11.076   9.482   0.376  1.1508 -1.1979  2.1075
50895SOL    HW259801  10.950   9.403   0.404  0.0507 -0.3367 -0.0958
50896SOL     OW59802   6.544  10.234   6.482  0.9114  0.2137 -0.1354
50896SOL    HW159803   6.604  10.299   6.520  1.4024 -0.0745 -0.4084
50896SOL    HW259804   6.484  10.213   6.553 -0.2371  2.1072 -0.4732
50897SOL     OW59805   7.844   7.522   6.830  0.2114 -0.8883  0.3600
50897SOL    HW159806   7.935   7.500   6.808  0.0690 -1.1449  0.0217
50897SOL    HW259807   7.827   7.602   6.781  0.5074 -0.3893  1.0514
50898SOL     OW59808   2.585   8.863   0.770  0.2804 -0.0212 -0.1590
50898SOL    HW159809   2.540   8.878   0.853  0.5943  1.8264 -0.2936
50898SOL    HW259810   2.598   8.950   0.732 -0.2604 -0.8173 -2.3815
50899SOL     OW59811  12.048   8.989   5.397 -0.5112 -0.7636 -0.2609
50899SOL    HW159812  12.074   8.947   5.315 -0.9433 -0.2577 -0.6666
50899SOL    HW259813  12.038   9.081   5.374  3.4245  0.2427  1.2654
50900SOL     OW59814   5.286  11.386   2.213  0.4811  0.1544  0.0265
50900SOL    HW159815   5.376  11.371   2.182  0.6263  0.0804  0.4670
50900SOL    HW259816   5.232  11.383   2.134  1.0519  1.7681 -0.4634
50901SOL     OW59817   9.943   4.392  11.346 -0.1719 -0.1428  0.0075
50901SOL    HW159818  10.031   4.428  11.335  0.6831 -1.7002  1.3200
50901SOL    HW259819   9.957   4.305  11.383 -2.2776 -0.4483  0.2114
50902SOL     OW59820   5.988   7.607   1.741 -0.0534  0.2295  0.0650
50902SOL    HW159821   6.071   7.640   1.776  0.3739 -1.6685  0.9773
50902SOL    HW259822   5.927   7.614   1.814 -0.6135  1.1738 -0.4640
50903SOL     OW59823   1.966  11.670   5.662 -0.2963  0.0133  0.4989
50903SOL    HW159824   1.884  11.720   5.664 -0.3276 -0.0482  0.8002
50903SOL    HW259825   1.946  11.590   5.712 -0.7761 -1.0946 -1.3487
50904SOL     OW59826   6.092   7.484   7.301  0.1344 -0.1349 -0.0484
50904SOL    HW159827   6.044   7.460   7.380  2.3163 -1.0431  1.1075
50904SOL    HW259828   6.148   7.409   7.283 -0.4273 -0.0042 -2.5996
50905SOL     OW59829   7.591   7.524   6.963  0.2067  0.1461  0.3988
50905SOL    HW159830   7.683   7.500   6.952 -0.0856 -1.2131  0.7144
50905SOL    HW259831   7.557   7.460   7.025 -0.6890  1.3224  1.1495
50906SOL     OW59832   0.688   8.540   8.250  0.3454 -0.3493  0.1534
50906SOL    HW159833   0.604   8.513   8.288 -0.9082  0.7679 -1.6735
50906SOL    HW259834   0.694   8.634   8.270  1.2300 -0.4385  0.3524
50907SOL     OW59835   7.875   9.658   9.902 -0.0331 -0.0986 -0.2270
50907SOL    HW159836   7.819   9.598   9.950 -0.0705  1.1950  1.4310
50907SOL    HW259837   7.957   9.609   9.889 -0.1521 -0.6001  0.8509
50908SOL     OW59838   8.819   0.179   7.989  0.3257  0.2476 -0.1224
50908SOL    HW159839   8.767   0.259   7.992  0.3163  0.3301 -1.9070
50908SOL    HW259840   8.879   0.187   8.063  1.2882  2.5812 -1.0718
50909SOL     OW59841   7.279   4.503   8.898  0.5003  0.3722 -0.7758
50909SOL    HW159842   7.341   4.561   8.942 -0.3221 -0.2427  1.3079
50909SOL    HW259843   7.197   4.551   8.897  0.2816  0.0015 -0.7863
50910SOL     OW59844   4.833   3.222   9.318 -0.1135 -0.3117  0.4994
50910SOL    HW159845   4.848   3.305   9.363  0.3503 -0.4023  0.5127
50910SOL    HW259846   4.763   3.180   9.369 -0.9293  0.4234  0.0129
50911SOL     OW59847   8.280   7.866   5.110 -0.1354  0.4017 -0.4102
50911SOL    HW159848   8.273   7.959   5.090  0.5182  0.7880  1.0775
50911SOL    HW259849   8.277   7.861   5.205  1.7395 -0.9111 -0.3639
50912SOL     OW59850  12.918   9.937  10.611  0.7316 -0.5725 -0.1674
50912SOL    HW159851  12.962   9.858  10.581 -0.9258 -1.0820 -1.3200
50912SOL    HW259852  12.880   9.976  10.532 -1.2397 -0.3799  0.8195
50913SOL     OW59853  12.421   7.350   5.391 -0.2620  0.0064  0.3649
50913SOL    HW159854  12.339   7.369   5.436  0.4395  1.5175  1.0961
50913SOL    HW259855  12.407   7.380   5.302 -0.4695  0.3799  0.5202
50914SOL     OW59856   7.818   1.794   8.680 -0.2648 -0.4113  0.3197
50914SOL    HW159857   7.854   1.727   8.738  3.5024 -0.1589 -1.4217
50914SOL    HW259858   7.767   1.746   8.616  2.4476 -1.8124 -0.9602
50915SOL     OW59859  10.284   9.709   8.396  0.5988  0.4107  0.2002
50915SOL    HW159860  10.292   9.633   8.453  1.1831  0.2094 -0.1466
50915SOL    HW259861  10.333   9.686   8.317 -0.4353  0.5696 -0.5059
50916SOL     OW59862   8.622   9.448   5.565  0.4442 -0.1388  0.4554
50916SOL    HW159863   8.671   9.402   5.497  1.8681 -1.2530  2.1492
50916SOL    HW259864   8.682   9.513   5.599 -0.4005  0.6911  0.4022
50917SOL     OW59865   2.918  10.559  12.079 -0.1646  0.4844 -0.3049
50917SOL    HW159866   2.893  10.541  11.989  0.0301 -0.1328 -0.2411
50917SOL    HW259867   2.899  10.652  12.091 -2.7540  0.0140 -0.1548
50918SOL     OW59868   5.304   7.472  12.186  0.3731 -0.0211  0.2942
50918SOL    HW159869   5.343   7.478  12.274  0.2250 -0.9519  0.4283
50918SOL    HW259870   5.252   7.392  12.188 -0.7832  0.6909 -0.1977
50919SOL     OW59871   6.463   3.875   0.386  0.3094 -0.1686 -0.2752
50919SOL    HW159872   6.557   3.892   0.389  0.0396  1.9344 -1.7465
50919SOL    HW259873   6.427   3.928   0.457  0.2800 -1.5806  0.7911
50920SOL     OW59874  12.345  10.999   8.861 -0.7066  0.0373 -0.4440
50920SOL    HW159875  12.426  10.948   8.855 -0.0993  0.3601  3.0563
50920SOL    HW259876  12.276  10.933   8.864 -0.6430 -0.2523 -2.9880
50921SOL     OW59877   8.462   2.418   7.566 -0.2943 -0.4743  0.0516
50921SOL    HW159878   8.381   2.426   7.617  0.3770 -0.0249  1.0834
50921SOL    HW259879   8.451   2.339   7.514 -1.3078 -0.5345  0.3469
50922SOL     OW59880   9.765   0.782   1.635  0.4838 -0.1985  0.5698
50922SOL    HW159881   9.731   0.707   1.587 -3.2772 -0.0488  2.6581
50922SOL    HW259882   9.832   0.745   1.693  0.6754 -1.3814 -0.3628
50923SOL     OW59883   7.305   3.494   4.269 -0.3518 -0.2676  0.0692
50923SOL    HW159884   7.347   3.521   4.350 -0.5620 -1.3822  0.5644
50923SOL    HW259885   7.337   3.405   4.254 -0.7575 -0.2829 -0.7682
50924SOL     OW59886   3.186   7.089   9.040  0.7274  0.1579  0.1507
50924SOL    HW159887   3.168   7.078   8.946  1.7157  1.2289 -0.1862
50924SOL    HW259888   3.136   7.019   9.082 -0.1323 -0.0358 -1.1319
50925SOL     OW59889   4.047  11.199   3.662  0.4705  0.0271  0.0250
50925SOL    HW159890   3.953  11.184   3.650  0.5193 -1.3150  1.0775
50925SOL    HW259891   4.080  11.116   3.698  1.9791  0.6298  0.0929
50926SOL     OW59892  10.484   3.225   4.310 -0.1222 -0.2191  0.5875
50926SOL    HW159893  10.578   3.239   4.299 -0.3726  1.2021 -0.0422
50926SOL    HW259894  10.476   3.173   4.390  1.1359  0.9423  1.5127
50927SOL     OW59895  12.144   1.583   5.987  0.5300  0.2576  0.2689
50927SOL    HW159896  12.209   1.535   5.935 -1.0951 -0.2836 -1.3864
50927SOL    HW259897  12.108   1.648   5.926 -0.9970  0.0319  0.8780
50928SOL     OW59898   9.930   9.653   0.882  0.1811  0.4955 -0.3333
50928SOL    HW159899   9.838   9.625   0.873 -0.0973  1.1982  0.2748
50928SOL    HW259900   9.979   9.588   0.831 -0.7353  0.6424 -1.4703
50929SOL     OW59901   6.457   7.485  12.604 -0.2188 -0.3433  0.2234
50929SOL    HW159902   6.412   7.433  12.538 -0.6834  0.7767 -0.3721
50929SOL    HW259903   6.529   7.526  12.557  0.2689 -0.6082  0.7337
50930SOL     OW59904   4.194   5.474  11.338  0.1318 -0.4330  0.3972
50930SOL    HW159905   4.213   5.567  11.345  2.9941 -1.0215  1.8658
50930SOL    HW259906   4.272   5.430  11.372 -0.5632 -3.4151 -1.4159
50931SOL     OW59907   7.812   1.697   0.064  0.0078  0.0656 -0.4094
50931SOL    HW159908   7.718   1.712   0.067  0.3472  2.5500  1.4080
50931SOL    HW259909   7.824   1.611   0.105 -1.4632 -0.2862 -0.6794
50932SOL     OW59910   4.245   0.326   7.852  0.3011  0.5135 -0.4606
50932SOL    HW159911   4.319   0.276   7.886  0.1237 -0.3677 -1.3494
50932SOL    HW259912   4.237   0.401   7.912  0.4983 -0.5601  0.9566
50933SOL     OW59913   4.411  11.944  10.659 -0.6275  0.7922 -0.5281
50933SOL    HW159914   4.402  11.951  10.564 -0.1255  1.0371 -0.5609
50933SOL    HW259915   4.501  11.972  10.676 -0.5904  0.3737 -0.0188
50934SOL     OW59916   5.013  11.950   1.597 -1.0050  0.0182 -0.0879
50934SOL    HW159917   5.051  12.001   1.525 -1.0968 -1.1577 -0.9899
50934SOL    HW259918   5.088  11.905   1.637 -1.0681 -0.0218 -0.0123
50935SOL     OW59919   7.688   9.363   4.665  0.3528  0.5129  0.5171
50935SOL    HW159920   7.777   9.331   4.676 -0.7257 -2.3344  1.9275
50935SOL    HW259921   7.662   9.393   4.752 -0.4369  0.2515  0.3789
50936SOL     OW59922  11.236  12.366  11.930 -0.6059 -0.0602  0.9410
50936SOL    HW159923  11.328  12.360  11.955 -0.5956 -2.4937  0.6240
50936SOL    HW259924  11.230  12.447  11.879  1.0225  0.8966  2.1879
50937SOL     OW59925  12.535  12.617   0.631  0.2728 -0.1605 -0.4206
50937SOL    HW159926  12.595  12.680   0.673  0.4182 -0.6626  0.1347
50937SOL    HW259927  12.540  12.539   0.686 -0.4245 -0.4241 -0.7283
50938SOL     OW59928  11.010   5.958   6.870  0.2245 -0.1351  0.1467
50938SOL    HW159929  11.096   5.958   6.912  0.2891  0.2229  0.0267
50938SOL    HW259930  10.947   5.959   6.942  0.3203 -0.5744  0.2354
50939SOL     OW59931   8.219   6.486  11.479 -0.3405  0.2213 -0.2949
50939SOL    HW159932   8.242   6.461  11.568 -1.4976 -2.2352 -0.6187
50939SOL    HW259933   8.203   6.404  11.433 -1.3624  1.4669 -2.3552
50940SOL     OW59934   3.449   4.020  12.340 -1.0317 -0.0839 -0.5804
50940SOL    HW159935   3.429   3.954  12.274 -2.3066 -0.1325 -0.1802
50940SOL    HW259936   3.453   3.970  12.422 -2.2071  0.3338 -0.2446
50941SOL     OW59937   7.911   9.482  12.927  0.0979 -0.1436 -0.0871
50941SOL    HW159938   7.889   9.401  12.974 -1.6137 -0.8326 -1.9367
50941SOL    HW259939   8.004   9.473  12.907  0.2256 -1.0637  0.8062
50942SOL     OW59940   8.307   0.450   4.163 -0.5218 -0.0503  0.2899
50942SOL    HW159941   8.388   0.466   4.211 -1.2536  3.1841  0.6605
50942SOL    HW259942   8.318   0.497   4.080 -1.3826 -0.9973 -0.3957
50943SOL     OW59943  11.680   7.993  12.871 -0.3086 -0.4521  0.1646
50943SOL    HW159944  11.677   7.902  12.899 -0.2694 -0.0001  1.7632
50943SOL    HW259945  11.613   8.037  12.925 -0.5380  0.4078 -0.7845
50944SOL     OW59946   7.528  12.341   4.642 -0.1647 -0.1566  0.2737
50944SOL    HW159947   7.567  12.391   4.715 -0.1719  0.7294 -0.3186
50944SOL    HW259948   7.456  12.292   4.683 -0.3423  0.5386  0.8193
50945SOL     OW59949   7.810   0.169  11.321  0.3571  0.4036 -0.0801
50945SOL    HW159950   7.883   0.200  11.374  0.4324  1.0858 -0.5665
50945SOL    HW259951   7.781   0.246  11.273 -1.1408  0.2947  0.6265
50946SOL     OW59952   0.865   2.331  11.818  0.3487 -0.2508  0.2748
50946SOL    HW159953   0.905   2.288  11.743 -0.3876  0.1791 -0.3813
50946SOL    HW259954   0.846   2.261  11.880 -0.9080 -0.8983 -0.8083
50947SOL     OW59955   4.961   9.661   2.298 -0.3113  0.1788  0.2252
50947SOL    HW159956   4.956   9.721   2.223  1.5570  1.3146  0.9298
50947SOL    HW259957   4.913   9.584   2.270 -1.4398  1.3773 -1.3451
50948SOL     OW59958   1.718   3.398   5.985  0.1023  0.3069 -0.1900
50948SOL    HW159959   1.705   3.324   5.927 -2.8441 -0.1611  0.8934
50948SOL    HW259960   1.631   3.438   5.993  1.1839  2.6759  0.8651
50949SOL     OW59961   7.190  10.987   7.080 -0.3519 -0.1578  0.2795
50949SOL    HW159962   7.254  10.925   7.115  2.3337  1.4474 -1.3604
50949SOL    HW259963   7.142  10.938   7.014  1.2786 -0.7581 -0.5333
50950SOL     OW59964   9.855   1.799  12.321 -0.3938 -0.6067 -0.3330
50950SOL    HW159965   9.897   1.883  12.300 -0.3959 -0.7576 -0.9407
50950SOL    HW259966   9.770   1.824  12.357 -0.5322 -0.3553 -0.8304
50951SOL     OW59967   9.811   0.542  10.474 -0.2456  0.8953  0.0232
50951SOL    HW159968   9.765   0.545  10.558 -0.9753 -0.2357 -0.3243
50951SOL    HW259969   9.816   0.449  10.452  0.5660  1.1291 -0.8497
50952SOL     OW59970  11.925   9.419   1.955  0.1558  0.0405  0.0878
50952SOL    HW159971  11.942   9.341   2.007  0.2076  1.0178  1.6074
50952SOL    HW259972  11.864   9.470   2.008  0.1821  1.0730 -0.8400
50953SOL     OW59973   9.491   5.479   9.401 -0.7447  0.1454 -0.2448
50953SOL    HW159974   9.412   5.431   9.374 -0.8536  2.1367 -4.0491
50953SOL    HW259975   9.461   5.569   9.413  0.6881  0.6277 -0.1333
50954SOL     OW59976   0.935   9.318  11.896  0.5878 -0.0667  0.1257
50954SOL    HW159977   0.918   9.246  11.835  0.4953 -0.0984  0.1898
50954SOL    HW259978   0.851   9.332  11.941  0.1500  1.0870 -0.9660
50955SOL     OW59979   3.869   7.784  10.855  0.3642 -0.0196 -0.1659
50955SOL    HW159980   3.777   7.807  10.846 -0.3499 -2.6178 -0.3813
50955SOL    HW259981   3.917   7.860  10.823 -1.7393  0.7623 -1.6186
50956SOL     OW59982   1.912  12.573   7.413 -0.9304  0.0763  0.2362
50956SOL    HW159983   1.847  12.600   7.477 -0.3800  0.0450  0.8139
50956SOL    HW259984   1.862  12.520   7.349 -1.5633  0.4985  0.3727
50957SOL     OW59985   5.175   1.628  11.421  0.3735  0.0127 -0.1735
50957SOL    HW159986   5.259   1.672  11.407  0.2922 -0.1343 -1.1571
50957SOL    HW259987   5.172   1.559  11.355 -1.1358  0.9129 -1.1087
50958SOL     OW59988   8.056   1.888   0.698 -0.2344 -0.2676 -0.2657
50958SOL    HW159989   8.059   1.839   0.780 -0.8142 -0.3295 -0.2759
50958SOL    HW259990   8.124   1.955   0.707 -1.8529  1.2693  1.2574
50959SOL     OW59991  11.241  12.943   5.401 -0.3534 -0.3558 -0.0474
50959SOL    HW159992  11.327  12.985   5.407 -1.0220  1.3302 -1.5299
50959SOL    HW259993  11.258  12.861   5.354  1.0784 -2.3369  3.4856
50960SOL     OW59994   5.595   2.976   8.880  0.3201  0.4483  0.1302
50960SOL    HW159995   5.620   3.019   8.798  2.2151  0.3213  0.5979
50960SOL    HW259996   5.654   2.901   8.887 -1.8958 -1.4182  0.0941
50961SOL     OW59997   6.586   5.862   8.108  0.3760  0.1614  0.8426
50961SOL    HW159998   6.516   5.798   8.093 -0.3735  1.2847 -0.6996
50961SOL    HW259999   6.656   5.835   8.048  0.6016  0.0157  1.1690
50962SOL     OW60000  12.593   9.488   3.809  0.7264 -0.2733 -0.0848
50962SOL    HW160001  12.598   9.412   3.752  1.9527 -0.0080 -0.3772
50962SOL    HW260002  12.507   9.525   3.793 -0.2153 -2.0390  0.6590
50963SOL     OW60003  12.932   5.771   7.261 -0.0114 -0.3300 -0.4595
50963SOL    HW160004  12.952   5.860   7.233 -0.0267 -0.2267 -0.1532
50963SOL    HW260005  13.018   5.729   7.270 -0.0137 -0.4007 -0.7833
50964SOL     OW60006   9.358   4.274   4.168  0.4091 -0.1107  0.4190
50964SOL    HW160007   9.268   4.252   4.146  0.5753 -0.1235 -0.2869
50964SOL    HW260008   9.351   4.350   4.225 -0.0283  0.2196 -0.0678
50965SOL     OW60009  10.343   1.616   4.052 -0.4872 -0.8901  0.1798
50965SOL    HW160010  10.293   1.678   3.998 -0.5952  0.7863  2.0967
50965SOL    HW260011  10.399   1.570   3.989 -1.4014  0.1725 -1.4916
50966SOL     OW60012  12.850   9.930  10.041 -0.7578  0.0417  0.4269
50966SOL    HW160013  12.830   9.946   9.949 -0.1500  0.7257  0.4130
50966SOL    HW260014  12.829   9.837  10.053  0.3051 -0.3787 -0.7051
50967SOL     OW60015  12.090   9.842   3.567  0.5521 -0.6931  0.3226
50967SOL    HW160016  12.169   9.863   3.617 -0.1753 -0.6000  1.4558
50967SOL    HW260017  12.037   9.921   3.570 -0.4695 -1.3868  1.2889
50968SOL     OW60018   8.843   3.810   3.252  0.8955 -0.2092  0.4546
50968SOL    HW160019   8.935   3.801   3.277  1.0302  2.4432  1.2200
50968SOL    HW260020   8.795   3.812   3.335  0.3523  0.0190  0.1475
50969SOL     OW60021  12.422   9.235   6.681 -0.3941  0.3986  0.2640
50969SOL    HW160022  12.434   9.206   6.590 -1.4360  2.3666 -0.5693
50969SOL    HW260023  12.492   9.299   6.695 -1.7479  2.0135 -0.0809
50970SOL     OW60024   8.009   6.928   4.940 -0.0483  0.0951  0.2368
50970SOL    HW160025   8.088   6.939   4.993 -0.5840 -1.5454  1.4398
50970SOL    HW260026   8.007   6.835   4.917 -1.6280  0.0948  0.2303
50971SOL     OW60027   3.681   2.547   3.256 -0.1170 -0.1312 -0.2845
50971SOL    HW160028   3.615   2.613   3.277  0.1342  0.1384 -0.3533
50971SOL    HW260029   3.686   2.548   3.160 -1.1535 -1.2550 -0.3837
50972SOL     OW60030   5.460   2.497  11.098 -0.0968  0.8458 -0.0166
50972SOL    HW160031   5.383   2.545  11.129  1.1452  1.6300  2.1091
50972SOL    HW260032   5.431   2.454  11.018 -2.6535  1.3335  0.5442
50973SOL     OW60033   7.582   0.001   8.490 -0.0522  0.1295  0.0026
50973SOL    HW160034   7.493   0.033   8.478  0.4689  1.0987 -1.6573
50973SOL    HW260035   7.638   0.075   8.466  1.2010 -0.6748  0.3327
50974SOL     OW60036   0.105  11.409  12.434 -0.1880  0.6021  0.3104
50974SOL    HW160037   0.178  11.461  12.468 -0.2237 -0.0244  1.3815
50974SOL    HW260038   0.148  11.335  12.390 -0.1087  1.8679 -1.9082
50975SOL     OW60039  12.672   7.048   6.333  0.2012 -0.4376  0.0179
50975SOL    HW160040  12.584   7.061   6.297 -0.3524 -0.9364  1.1491
50975SOL    HW260041  12.701   6.965   6.296 -0.5182 -1.1367  0.9605
50976SOL     OW60042   4.501   8.515  10.865  0.5146  0.0264 -0.0322
50976SOL    HW160043   4.483   8.465  10.785  1.6308 -0.9408  0.2932
50976SOL    HW260044   4.443   8.591  10.859 -0.4181 -0.7284 -1.0895
50977SOL     OW60045   1.823   8.198   5.218  0.3516  0.1391  0.2376
50977SOL    HW160046   1.756   8.181   5.153  0.5005  0.5086 -0.0215
50977SOL    HW260047   1.864   8.280   5.189 -0.0890  0.7205  1.2114
50978SOL     OW60048   3.807   4.382   7.471  0.5899 -0.0197  0.2588
50978SOL    HW160049   3.876   4.422   7.418  1.0474  0.2119  1.0099
50978SOL    HW260050   3.730   4.435   7.454  1.4449  1.9894  2.1209
50979SOL     OW60051  11.832   7.391   7.739 -0.2642  0.2471  0.2665
50979SOL    HW160052  11.842   7.448   7.815 -1.4942  0.3760  0.3512
50979SOL    HW260053  11.859   7.445   7.665 -0.0208  0.4488  0.5008
50980SOL     OW60054  10.749   2.912   5.317  0.4719 -0.0209 -0.4937
50980SOL    HW160055  10.789   2.831   5.285  1.1169  0.2127 -0.2913
50980SOL    HW260056  10.757   2.907   5.412  1.6981  0.8604 -0.5211
50981SOL     OW60057   2.158   9.767   3.341 -0.5729  0.8314 -0.7270
50981SOL    HW160058   2.067   9.741   3.331 -0.2545 -0.3253 -0.8272
50981SOL    HW260059   2.199   9.741   3.258  0.0516  0.3964 -0.2905
50982SOL     OW60060  12.932   3.465   8.306  0.0437 -0.1522 -0.0145
50982SOL    HW160061  12.961   3.453   8.397  0.9300  0.8540 -0.1347
50982SOL    HW260062  12.910   3.558   8.300 -1.2211 -0.4714 -0.5102
50983SOL     OW60063  10.830  11.084   1.087 -0.6376 -0.5989 -0.1200
50983SOL    HW160064  10.901  11.074   1.023 -1.9345  0.9306 -1.9209
50983SOL    HW260065  10.870  11.062   1.171  1.6682 -0.8405 -1.1940
50984SOL     OW60066  12.491   7.680   3.635  0.2578 -0.3849 -0.3221
50984SOL    HW160067  12.571   7.635   3.664 -0.4508 -1.0703  0.5956
50984SOL    HW260068  12.523   7.764   3.601  1.3295 -0.4562  0.4439
50985SOL     OW60069  11.527   7.531   4.363  0.0940  0.2815  0.2720
50985SOL    HW160070  11.554   7.468   4.297  1.2229  2.4339 -1.4476
50985SOL    HW260071  11.478   7.598   4.315 -0.3216  1.1977  1.8611
50986SOL     OW60072   2.003   6.021   8.415  0.1200  0.0220 -0.3533
50986SOL    HW160073   2.028   6.102   8.371 -1.3597  0.0568 -1.1905
50986SOL    HW260074   2.079   5.964   8.406  0.3144  0.4789 -1.8564
50987SOL     OW60075  10.314   2.378   0.320  0.1637 -0.0757  0.5055
50987SOL    HW160076  10.361   2.428   0.387  0.7471 -0.7272  0.6035
50987SOL    HW260077  10.383   2.350   0.260 -0.0818 -1.1058  0.6832
50988SOL     OW60078   9.975  10.837   2.232  0.0183  0.3113 -0.0711
50988SOL    HW160079  10.050  10.783   2.256 -0.0943  0.3770  0.4475
50988SOL    HW260080  10.002  10.883   2.153 -0.3650 -1.4798 -1.2831
50989SOL     OW60081  10.880   8.641   5.852 -0.1167  0.1445  0.6591
50989SOL    HW160082  10.810   8.580   5.875 -0.2970  0.6352  1.4864
50989SOL    HW260083  10.956   8.609   5.899  0.7011 -1.3535 -1.5485
50990SOL     OW60084   6.497   3.012   0.735 -0.0958 -0.1210 -0.7238
50990SOL    HW160085   6.500   3.079   0.666 -3.4606  0.2588 -0.6928
50990SOL    HW260086   6.464   2.934   0.690  0.1268 -0.6182 -0.0301
50991SOL     OW60087   0.633   2.272   4.712 -0.0805 -0.0877  0.3443
50991SOL    HW160088   0.658   2.273   4.805 -2.5543  0.5034  1.0968
50991SOL    HW260089   0.542   2.243   4.713 -0.6786  1.5029 -1.7541
50992SOL     OW60090  10.416   4.822  10.908  0.5714 -0.1293 -0.0878
50992SOL    HW160091  10.341   4.879  10.896  0.8532  0.1936 -0.3366
50992SOL    HW260092  10.379   4.735  10.918  0.2434 -0.2086 -1.7992
50993SOL     OW60093   6.667   1.669   0.358 -0.3976  0.0260  0.4815
50993SOL    HW160094   6.715   1.628   0.287 -0.5304  0.6309  0.0366
50993SOL    HW260095   6.734   1.685   0.425 -0.2018 -0.1971  0.3437
50994SOL     OW60096  12.333   6.229   2.085 -0.8497  0.2254 -0.7340
50994SOL    HW160097  12.321   6.246   2.178 -3.1992  0.1978 -0.9501
50994SOL    HW260098  12.409   6.172   2.080  0.2193  1.4220  1.0114
50995SOL     OW60099  12.860  12.359   4.649 -0.2174 -0.0661  0.1368
50995SOL    HW160100  12.785  12.341   4.705 -0.5826  0.4650 -0.1735
50995SOL    HW260101  12.922  12.405   4.706 -0.3015 -0.1294  0.2809
50996SOL     OW60102   6.179   4.000   1.979 -0.4592  0.4045  0.2819
50996SOL    HW160103   6.271   3.981   1.996  0.0025  2.0769 -0.1515
50996SOL    HW260104   6.132   3.927   2.019  1.0240 -0.2341  0.9467
50997SOL     OW60105   0.978  10.928  12.051 -0.3453  0.3077  0.0199
50997SOL    HW160106   0.901  10.980  12.026 -1.2465 -1.4413 -1.1250
50997SOL    HW260107   0.942  10.859  12.107  0.9200  1.2243  2.0615
50998SOL     OW60108   8.660   9.843   9.338  0.0988  0.3408 -0.2923
50998SOL    HW160109   8.732   9.876   9.284 -0.2354  0.0864 -0.9050
50998SOL    HW260110   8.681   9.874   9.426  0.4974  1.0265 -0.6122
50999SOL     OW60111   0.616  11.363   7.232 -0.5145  0.9028 -0.1889
50999SOL    HW160112   0.640  11.283   7.279 -1.2618 -0.3267 -1.8010
50999SOL    HW260113   0.526  11.348   7.204 -0.1667  1.6564 -1.8186
51000SOL     OW60114   0.691  12.907   8.074 -0.2912 -0.5584 -0.4013
51000SOL    HW160115   0.715  12.841   8.138  2.2025  1.5061  0.9857
51000SOL    HW260116   0.644  12.974   8.125 -1.1777 -0.3900 -1.4018
51001SOL     OW60117   6.405  11.198   8.213  0.2485  0.0651  0.6617
51001SOL    HW160118   6.316  11.179   8.183  0.0977  0.7071  0.6755
51001SOL    HW260119   6.455  11.120   8.190 -0.1359  0.0384 -0.1185
51002SOL     OW60120   8.573   3.853   4.201  0.4386  0.4903 -0.3130
51002SOL    HW160121   8.561   3.844   4.106 -1.4059  0.7684 -0.1534
51002SOL    HW260122   8.559   3.946   4.218 -0.6453  0.2228  0.3702
51003SOL     OW60123   0.587   8.815   9.962  0.0360  0.8574  0.0849
51003SOL    HW160124   0.642   8.863  10.024 -0.2144 -0.0796  1.0553
51003SOL    HW260125   0.550   8.744  10.013  0.7703 -0.6708 -1.4145
51004SOL     OW60126   9.263  11.534   3.469 -0.1052 -0.1589  0.4368
51004SOL    HW160127   9.267  11.470   3.397  0.2458  0.3613 -0.0067
51004SOL    HW260128   9.348  11.529   3.511 -0.3610 -0.5694  0.9167
51005SOL     OW60129   1.386   8.609   2.949  0.1218  0.7737  0.4664
51005SOL    HW160130   1.378   8.623   3.043 -0.1662 -1.0937  0.7519
51005SOL    HW260131   1.320   8.542   2.929  0.7664  0.5206 -0.9085
51006SOL     OW60132   0.880   2.035   9.956 -0.0353  0.4085 -0.5783
51006SOL    HW160133   0.919   2.120   9.934  0.1998  0.0457 -1.6255
51006SOL    HW260134   0.945   1.993  10.011 -1.2600  1.9329  2.2428
51007SOL     OW60135   0.382   1.034   2.776 -0.2630 -0.3312 -0.4775
51007SOL    HW160136   0.442   0.958   2.779 -0.3298 -0.3517  1.3799
51007SOL    HW260137   0.422   1.098   2.836 -0.0087  1.3040 -2.2974
51008SOL     OW60138   1.906   4.892   8.742 -0.1138 -0.0568  0.4540
51008SOL    HW160139   1.888   4.885   8.648 -0.7162  0.7196  0.5018
51008SOL    HW260140   1.821   4.878   8.784 -0.1082  0.9212  0.8134
51009SOL     OW60141   4.980   1.439  12.917  0.3345 -0.0964  0.1065
51009SOL    HW160142   4.929   1.366  12.951 -1.8768  1.7214  0.9401
51009SOL    HW260143   5.028   1.472  12.992  2.5971 -1.5821 -0.6037
51010SOL     OW60144   5.887   6.076  12.900  0.5350  0.2090  0.0551
51010SOL    HW160145   5.927   6.112  12.820  0.3567 -0.8869 -0.5491
51010SOL    HW260146   5.801   6.045  12.871  0.1429  0.5106  0.8620
51011SOL     OW60147   3.265   3.264   5.938  0.0832 -0.5210  0.2236
51011SOL    HW160148   3.296   3.325   5.871 -5.0323  0.5443 -1.5911
51011SOL    HW260149   3.316   3.184   5.922  2.2746  1.1199 -1.8038
51012SOL     OW60150  12.792  12.491   4.367 -0.4261  0.4623 -0.1021
51012SOL    HW160151  12.822  12.403   4.390  1.0947  0.6269 -1.3219
51012SOL    HW260152  12.712  12.503   4.418  0.1584 -1.0354  1.2420
51013SOL     OW60153   8.550   7.474   1.068  0.3214 -0.0783  0.0679
51013SOL    HW160154   8.629   7.527   1.053  0.2652  0.2746  1.0094
51013SOL    HW260155   8.582   7.394   1.110  0.3463 -0.6093 -0.9210
51014SOL     OW60156   7.784  10.038   4.532  0.2685  0.4800  0.2241
51014SOL    HW160157   7.840   9.961   4.522 -0.9590 -0.4687  0.3017
51014SOL    HW260158   7.817  10.083   4.610 -0.0737 -0.9575  1.2342
51015SOL     OW60159   6.713  12.618   3.372 -0.1415 -0.4348 -0.3448
51015SOL    HW160160   6.765  12.621   3.453  3.9260  1.8350 -2.7005
51015SOL    HW260161   6.728  12.529   3.338  1.7102 -0.0862 -0.5670
51016SOL     OW60162   8.185   2.338   4.039 -0.1135  0.3690 -0.0004
51016SOL    HW160163   8.101   2.383   4.031 -0.4831 -0.2855  0.1505
51016SOL    HW260164   8.200   2.299   3.952 -0.3500 -0.1765  0.2014
51017SOL     OW60165  10.625  11.067   5.485  0.0952  0.4980 -0.0101
51017SOL    HW160166  10.675  11.135   5.439  0.4835  0.2345  0.0121
51017SOL    HW260167  10.536  11.102   5.491  0.1611  0.7634 -0.4962
51018SOL     OW60168   0.577   6.194   2.396 -0.2244  0.1326 -0.2010
51018SOL    HW160169   0.579   6.270   2.338 -0.8274 -0.3018 -0.8055
51018SOL    HW260170   0.510   6.137   2.359  0.8437 -1.1125 -0.2781
51019SOL     OW60171   5.902   2.213  10.331  0.3279  0.4007 -0.0760
51019SOL    HW160172   5.823   2.252  10.294 -1.9162 -2.4362  1.3230
51019SOL    HW260173   5.894   2.120  10.312  1.8542 -0.3743  2.5842
51020SOL     OW60174   1.076   5.999  11.464 -0.2862 -0.2918  0.3918
51020SOL    HW160175   1.114   6.082  11.493  1.4320 -1.3996  1.4296
51020SOL    HW260176   0.993   5.993  11.511 -0.2704  0.6722  0.5667
51021SOL     OW60177   8.091   5.012   7.031  0.2421 -0.4167  0.0784
51021SOL    HW160178   8.134   5.082   6.982 -0.9913 -0.0577 -0.5085
51021SOL    HW260179   8.071   4.946   6.966 -1.7130  0.2053 -0.0038
51022SOL     OW60180   6.354   6.129  10.530 -0.3412  0.0579  0.2582
51022SOL    HW160181   6.368   6.061  10.595  1.0152  0.7775  0.7449
51022SOL    HW260182   6.406   6.102  10.454 -2.6432 -1.2704 -0.9937
51023SOL     OW60183   7.878   9.299  12.541 -0.2877  0.2401  0.5451
51023SOL    HW160184   7.785   9.322  12.542 -0.8213 -1.7130  2.1688
51023SOL    HW260185   7.890   9.248  12.462 -1.0992 -1.2018  1.3183
51024SOL     OW60186  11.699  12.105  10.830  0.0204 -0.0836  0.8107
51024SOL    HW160187  11.787  12.094  10.792  1.1037  2.0718  2.4651
51024SOL    HW260188  11.654  12.164  10.771  0.0200 -0.4194  0.4707
51025SOL     OW60189   9.260   2.233  11.437 -0.2544  0.9953  0.6144
51025SOL    HW160190   9.279   2.218  11.529  0.4678 -0.8430  0.2086
51025SOL    HW260191   9.168   2.261  11.436 -1.5518 -2.6099  1.6800
51026SOL     OW60192   1.094   4.669   5.338 -0.3413  0.4294  0.0163
51026SOL    HW160193   1.105   4.698   5.428 -0.9273  3.1787 -0.6875
51026SOL    HW260194   1.180   4.639   5.311  0.2989  1.3781  0.9462
51027SOL     OW60195   4.352  11.606   1.271 -0.5931  0.1403  0.8798
51027SOL    HW160196   4.419  11.627   1.206 -1.0857 -1.0915 -0.0667
51027SOL    HW260197   4.379  11.653   1.350 -0.1198  1.9167 -0.2701
51028SOL     OW60198   1.995  12.370   5.215 -0.7803  0.0573 -0.5729
51028SOL    HW160199   1.975  12.328   5.132  1.9392  1.5046 -2.1004
51028SOL    HW260200   1.971  12.462   5.202 -1.8429  0.0178  0.8714
51029SOL     OW60201  11.491   6.498   2.648 -0.2757 -0.2790 -0.4544
51029SOL    HW160202  11.532   6.573   2.605 -3.5553  1.6764 -0.4835
51029SOL    HW260203  11.548   6.481   2.724  0.6660  2.1718 -0.5051
51030SOL     OW60204   0.453   5.641   0.425 -0.3259 -0.1312 -0.1520
51030SOL    HW160205   0.402   5.722   0.415 -0.1835 -0.0833 -0.5344
51030SOL    HW260206   0.492   5.627   0.339 -1.9683 -1.7031 -0.7200
51031SOL     OW60207   3.374   0.048  11.923 -0.1759  0.7713  0.0703
51031SOL    HW160208   3.469   0.055  11.909 -0.1416  1.6774  0.6746
51031SOL    HW260209   3.346   0.137  11.944 -1.1630  0.5039 -0.0523
51032SOL     OW60210   8.040   0.887   0.938 -0.1759  0.0265 -0.0072
51032SOL    HW160211   7.975   0.886   1.008  0.8342 -0.8081  0.9557
51032SOL    HW260212   8.004   0.946   0.872 -2.8465 -1.8904 -0.4263
51033SOL     OW60213  10.208   7.075   0.745  0.2515 -0.1043 -0.1811
51033SOL    HW160214  10.271   7.017   0.789 -0.3696 -0.2841  0.4831
51033SOL    HW260215  10.206   7.043   0.655  3.2763  1.6823 -1.0550
51034SOL     OW60216   8.506   2.905  12.058  0.2449 -0.4700  0.7384
51034SOL    HW160217   8.518   2.980  11.999  2.1687 -0.1810  1.4385
51034SOL    HW260218   8.594   2.874  12.076 -0.3971 -1.5762  2.1794
51035SOL     OW60219   0.152  11.070   7.961  0.0556 -0.2896  0.3909
51035SOL    HW160220   0.128  11.150   8.009  0.2844 -0.5173  0.8963
51035SOL    HW260221   0.071  11.042   7.919  0.0661  0.4334 -0.1261
51036SOL     OW60222   2.135   3.070  11.645 -0.2600  0.4037 -0.3902
51036SOL    HW160223   2.100   3.014  11.576 -0.2991 -0.1315  0.0522
51036SOL    HW260224   2.146   3.011  11.720  0.8370  0.7213 -0.2765
51037SOL     OW60225   7.386   4.454   6.515  0.4990 -0.4711 -0.2025
51037SOL    HW160226   7.363   4.527   6.458  0.9009  0.2233  0.5086
51037SOL    HW260227   7.304   4.406   6.528  0.0762  0.2868 -0.0544
51038SOL     OW60228   2.442   6.292  12.730 -0.0595  0.3828 -0.1045
51038SOL    HW160229   2.431   6.254  12.817  0.5268 -0.8333 -0.5476
51038SOL    HW260230   2.533   6.322  12.729 -0.0687  0.4045 -0.3031
51039SOL     OW60231   8.219  10.635   4.856  0.4292  0.2359 -0.6944
51039SOL    HW160232   8.245  10.632   4.948 -0.3159 -0.9187 -0.4996
51039SOL    HW260233   8.284  10.581   4.811 -0.1085 -0.5129 -0.5931
51040SOL     OW60234   8.067  10.531   3.562 -0.4303 -0.0335 -0.0990
51040SOL    HW160235   8.122  10.460   3.595 -0.6686  0.0128  0.4219
51040SOL    HW260236   8.010  10.490   3.498  1.4800  0.2777 -2.1028
51041SOL     OW60237   5.880   1.195   5.078 -0.8212  0.4717 -0.2678
51041SOL    HW160238   5.920   1.131   5.019 -1.1300  0.1557 -0.1408
51041SOL    HW260239   5.934   1.192   5.157 -0.9951  0.1647 -0.1582
51042SOL     OW60240   8.965   6.054   3.268  0.5499  0.7191 -0.7298
51042SOL    HW160241   8.990   6.108   3.343 -0.6014  1.0208 -0.5348
51042SOL    HW260242   9.012   5.972   3.280  1.0732  1.0934 -0.1573
51043SOL     OW60243  10.569   2.608   2.769  0.0385  0.5320  0.2246
51043SOL    HW160244  10.545   2.546   2.700  0.5795  1.3614 -0.7347
51043SOL    HW260245  10.500   2.597   2.835  0.5480 -1.6219  0.4570
51044SOL     OW60246  12.530  11.425   5.956 -0.1416 -0.0436 -0.0178
51044SOL    HW160247  12.451  11.443   6.006 -0.4127  1.8125 -1.0311
51044SOL    HW260248  12.511  11.344   5.909 -0.2214 -1.3205  2.0764
51045SOL     OW60249   8.105   0.963  10.029  0.1434 -0.0416 -0.4277
51045SOL    HW160250   8.063   0.895   9.977  1.8551  0.5473 -2.7567
51045SOL    HW260251   8.122   0.922  10.113 -1.0339 -1.6721 -0.9299
51046SOL     OW60252   9.688  12.174   6.505 -0.7434  0.1736  0.2925
51046SOL    HW160253   9.604  12.129   6.494  0.4164 -2.1015  0.3248
51046SOL    HW260254   9.740  12.147   6.429  0.2625  0.9039  0.7000
51047SOL     OW60255   0.114   4.888  12.805  0.2787  0.0046 -0.0182
51047SOL    HW160256   0.115   4.887  12.709 -2.7961  2.4164 -0.2256
51047SOL    HW260257   0.090   4.799  12.830 -2.7058  0.1974 -1.7716
51048SOL     OW60258   6.382   7.702   8.284  0.1116 -0.0103  0.0822
51048SOL    HW160259   6.321   7.753   8.232  1.4837  0.1557 -1.4513
51048SOL    HW260260   6.425   7.767   8.340  0.2300  0.1680 -0.2120
51049SOL     OW60261   0.564  10.317   8.092 -0.0544  0.1245  0.0302
51049SOL    HW160262   0.660  10.315   8.084  0.0458  1.4699  0.6682
51049SOL    HW260263   0.533  10.301   8.003  0.7472 -0.8311 -0.0994
51050SOL     OW60264   9.819   7.772   0.455  0.3485 -0.5929  0.5484
51050SOL    HW160265   9.864   7.833   0.513  0.5038 -2.2108  2.2202
51050SOL    HW260266   9.731   7.764   0.492 -0.8407  1.1838 -1.6632
51051SOL     OW60267   0.886   7.113   7.119 -0.1236 -0.5391 -0.1045
51051SOL    HW160268   0.948   7.168   7.071 -0.2339  0.0259  0.3864
51051SOL    HW260269   0.924   7.105   7.206 -0.9615  0.2280  0.3597
51052SOL     OW60270   7.069   5.529   7.738 -0.0618  0.5175  0.0881
51052SOL    HW160271   7.009   5.604   7.738  0.3393  0.8510  0.5570
51052SOL    HW260272   7.156   5.569   7.752 -0.0074 -0.1515  1.9021
51053SOL     OW60273  12.877  12.533   7.884  0.3187 -0.3753 -0.4815
51053SOL    HW160274  12.825  12.613   7.875  1.3285  0.0995 -2.8046
51053SOL    HW260275  12.946  12.557   7.945 -0.5734 -0.1608  0.4815
51054SOL     OW60276   5.714   4.179   9.714 -0.1397  0.2308 -0.1184
51054SOL    HW160277   5.779   4.204   9.648  1.5471  0.4612  1.5420
51054SOL    HW260278   5.755   4.109   9.764 -2.8575 -2.6216 -1.5516
51055SOL     OW60279  10.231  10.370   5.847 -0.3316  0.1656 -0.3529
51055SOL    HW160280  10.157  10.309   5.851  0.1952 -0.4816 -0.2489
51055SOL    HW260281  10.205  10.435   5.782 -1.3605  0.4534  0.3259
51056SOL     OW60282  11.273   5.321   5.967 -0.0477  0.6995 -0.5542
51056SOL    HW160283  11.266   5.250   5.903 -1.4783 -0.4074  0.7599
51056SOL    HW260284  11.366   5.343   5.967  0.2030 -0.1619 -2.0467
51057SOL     OW60285  10.033  10.090   7.903 -0.1513  0.4399 -0.2143
51057SOL    HW160286   9.949  10.043   7.898  0.5986 -0.9287 -0.5084
51057SOL    HW260287  10.051  10.116   7.813 -0.0996  0.4228 -0.2089
51058SOL     OW60288   0.279   5.710  10.654  0.3353  0.2822  0.2108
51058SOL    HW160289   0.292   5.617  10.674 -1.1457  0.3035  1.4743
51058SOL    HW260290   0.195   5.713  10.608  0.8439  0.9084 -0.7065
51059SOL     OW60291   0.485   0.848  10.113 -0.3356 -0.5775  0.0353
51059SOL    HW160292   0.554   0.865  10.177  0.6706 -0.0825 -1.1346
51059SOL    HW260293   0.481   0.928  10.061 -0.4736 -1.3062 -1.1022
51060SOL     OW60294   9.585   3.375   6.218  0.3699  0.0501  0.4164
51060SOL    HW160295   9.619   3.428   6.290  0.9977  0.8462 -0.4426
51060SOL    HW260296   9.647   3.389   6.147 -0.0308 -1.0300 -0.1596
51061SOL     OW60297  11.831   1.110  10.841 -0.0041 -0.4742  0.3373
51061SOL    HW160298  11.822   1.037  10.778  1.5991 -1.2984  1.0201
51061SOL    HW260299  11.770   1.087  10.911 -1.3950  0.1694 -0.6138
51062SOL     OW60300   1.010   8.096   5.654 -0.2876 -0.4464  0.2884
51062SOL    HW160301   0.932   8.069   5.606 -0.8428  0.5492  0.6128
51062SOL    HW260302   1.081   8.047   5.613 -1.2743 -2.7058  1.0882
51063SOL     OW60303   7.547   4.319   1.262 -0.3144  0.0321  0.8061
51063SOL    HW160304   7.620   4.263   1.236 -0.2794  1.6525 -3.3820
51063SOL    HW260305   7.478   4.301   1.197 -1.0541  3.2404  0.5244
51064SOL     OW60306  11.188   1.082   2.389  0.0727 -0.0549 -0.0813
51064SOL    HW160307  11.232   1.075   2.305 -0.4581 -0.9563 -0.3075
51064SOL    HW260308  11.226   1.159   2.431 -1.1853  1.7611 -2.0482
51065SOL     OW60309   1.521   1.206   7.221  0.0078 -0.0661  0.0055
51065SOL    HW160310   1.473   1.184   7.140 -0.6367  0.9289  0.0946
51065SOL    HW260311   1.526   1.302   7.220 -1.4930  0.0897  1.9605
51066SOL     OW60312   1.963   7.194   9.768 -0.5786  0.2781  0.2729
51066SOL    HW160313   2.058   7.199   9.760 -0.4448 -1.5923  0.3037
51066SOL    HW260314   1.933   7.285   9.762  1.1670  0.8494 -0.1675
51067SOL     OW60315   7.472   5.976   9.110 -0.1710 -0.6723  0.2242
51067SOL    HW160316   7.519   5.899   9.078  1.9731  0.4573  0.4396
51067SOL    HW260317   7.483   5.973   9.205 -0.7380 -0.5058  0.2958
51068SOL     OW60318   3.926   2.893   6.409  0.7445  0.0917  0.0495
51068SOL    HW160319   3.991   2.918   6.475 -0.3126  0.3097  1.0299
51068SOL    HW260320   3.856   2.851   6.458  1.2729 -2.5755 -1.2683
51069SOL     OW60321   8.864   7.141   5.522 -0.2240 -0.3043 -0.0652
51069SOL    HW160322   8.919   7.087   5.578  0.3076 -0.5197 -0.7705
51069SOL    HW260323   8.836   7.081   5.452 -0.6000  0.0369 -0.2087
51070SOL     OW60324   0.536   6.713   4.705  0.4990  0.4568  0.0910
51070SOL    HW160325   0.556   6.785   4.646  1.3570  1.1105  1.1306
51070SOL    HW260326   0.608   6.713   4.767  0.1862 -0.9150  0.4736
51071SOL     OW60327   7.045   7.569   4.816 -0.2457 -0.7682 -0.4476
51071SOL    HW160328   7.086   7.490   4.780 -0.4878 -1.2357  0.2745
51071SOL    HW260329   7.030   7.625   4.740 -0.7459 -1.7279 -1.0817
51072SOL     OW60330   4.715   2.904   8.654  0.4131  1.1326  0.3648
51072SOL    HW160331   4.641   2.960   8.628  0.1479  1.7190  2.2311
51072SOL    HW260332   4.674   2.824   8.687  0.6381  1.2018  0.8164
51073SOL     OW60333   8.884   7.619   1.459 -0.1321  0.1098  0.5590
51073SOL    HW160334   8.817   7.670   1.412 -0.5124 -1.4296 -0.6274
51073SOL    HW260335   8.964   7.670   1.449 -0.6368  0.8206 -0.0196
51074SOL     OW60336   7.014   0.891   6.420 -0.1771  0.2400 -0.0540
51074SOL    HW160337   6.958   0.873   6.344  0.6787 -0.0318 -0.6360
51074SOL    HW260338   7.102   0.868   6.391  0.1654  0.1052  1.0391
51075SOL     OW60339   7.885   5.110   9.413  0.2278  0.3930 -0.4011
51075SOL    HW160340   7.931   5.108   9.498 -0.9590 -0.2202  0.2514
51075SOL    HW260341   7.917   5.032   9.368 -0.4783 -0.2835  0.2366
51076SOL     OW60342   8.141  11.718   7.486  0.2388  0.5804 -0.2105
51076SOL    HW160343   8.130  11.764   7.403  0.6534 -0.2769 -0.7583
51076SOL    HW260344   8.115  11.628   7.468  1.8400  0.0002  0.1483
51077SOL     OW60345   8.333   3.741  10.780  0.3454  0.4607 -0.4897
51077SOL    HW160346   8.273   3.815  10.793  0.8345  1.1337 -1.8881
51077SOL    HW260347   8.345   3.737  10.685  0.4856 -1.3061 -0.4217
51078SOL     OW60348   6.213   4.588   1.958  0.1954  0.3638 -0.3761
51078SOL    HW160349   6.263   4.516   1.997 -1.2458 -1.3365 -1.5257
51078SOL    HW260350   6.184   4.640   2.033  4.3871  2.0844  0.3500
51079SOL     OW60351   1.809  12.779   0.598 -0.4780  0.6549  0.1301
51079SOL    HW160352   1.745  12.823   0.542 -2.7551 -1.1177  1.1632
51079SOL    HW260353   1.821  12.838   0.672  0.7315  1.9310 -1.0345
51080SOL     OW60354   0.911   2.912   5.289  0.1348 -0.4252  0.2880
51080SOL    HW160355   0.919   2.862   5.207  2.0157  2.0186 -1.1590
51080SOL    HW260356   0.971   2.869   5.350  0.3346 -1.0237 -0.3214
51081SOL     OW60357   2.892  12.526   1.362  0.0489  0.0107  0.5878
51081SOL    HW160358   2.857  12.561   1.280  1.5645 -0.7486 -0.4414
51081SOL    HW260359   2.939  12.599   1.401 -0.2377  0.2306  0.5239
51082SOL     OW60360   3.626   2.952  11.844  0.1530  0.2885  0.5244
51082SOL    HW160361   3.710   2.924  11.878  0.4363  1.1488  0.5588
51082SOL    HW260362   3.561   2.906  11.897  0.5622 -2.0928 -0.9162
51083SOL     OW60363   6.371   7.926   4.418  0.4664 -0.0921  0.3760
51083SOL    HW160364   6.460   7.913   4.385  0.2904 -0.0132 -0.1319
51083SOL    HW260365   6.383   7.949   4.510  1.0501  1.1603  0.0103
51084SOL     OW60366   2.139   8.947  11.196  0.1637 -0.3638 -0.4589
51084SOL    HW160367   2.055   8.936  11.241 -0.3350  0.6066 -1.1108
51084SOL    HW260368   2.189   9.006  11.253 -0.7203  1.4114 -1.4258
51085SOL     OW60369   2.936   9.149   4.412  0.1493 -0.2590 -0.4607
51085SOL    HW160370   3.002   9.216   4.427  0.9340 -0.7772 -1.4326
51085SOL    HW260371   2.866   9.194   4.365 -0.1735  0.2772  0.5084
51086SOL     OW60372   9.990   6.021   6.843  0.0639 -0.1819 -0.2239
51086SOL    HW160373   9.962   6.112   6.854  1.5043  0.2290  0.1730
51086SOL    HW260374   9.919   5.981   6.794 -0.5623  1.1787 -0.4844
51087SOL     OW60375   9.559   4.124   9.061  0.2463  0.2758  0.0207
51087SOL    HW160376   9.530   4.044   9.017 -0.3923  0.3012  0.3850
51087SOL    HW260377   9.539   4.109   9.154 -0.1817  0.9891  0.0482
51088SOL     OW60378   5.066   0.269  10.844 -0.0607  0.6624  0.4471
51088SOL    HW160379   5.030   0.355  10.866  0.4846  0.6131  1.5543
51088SOL    HW260380   5.160   0.278  10.856 -0.1348 -0.5359  2.1725
51089SOL     OW60381   4.896   1.594   8.844  0.0601 -0.0129  0.2943
51089SOL    HW160382   4.835   1.524   8.820  0.8976 -1.0040  0.9999
51089SOL    HW260383   4.965   1.550   8.894  0.9829  1.2021  0.1280
51090SOL     OW60384  11.339   9.824   4.556  0.0329  0.2331 -0.0432
51090SOL    HW160385  11.405   9.873   4.507 -0.2112 -0.0091 -0.6365
51090SOL    HW260386  11.281   9.890   4.592  0.9310  0.4831  0.9971
51091SOL     OW60387   0.600  12.859  10.753  0.7061  0.2665  0.1811
51091SOL    HW160388   0.659  12.925  10.716  1.4729  0.3145  1.4466
51091SOL    HW260389   0.641  12.775  10.734  0.7223  0.2543  0.2669
51092SOL     OW60390   1.112   0.051   9.335  0.5445  0.4782 -0.2350
51092SOL    HW160391   1.207   0.053   9.345  0.4796  0.1918  0.4753
51092SOL    HW260392   1.097  -0.001   9.255  0.9506 -0.1404  0.0856
51093SOL     OW60393  10.810   2.222   9.437  0.1958 -0.4377  0.2049
51093SOL    HW160394  10.738   2.271   9.398  1.0850  0.0831 -0.8449
51093SOL    HW260395  10.791   2.131   9.417  0.9707 -0.1600 -2.1755
51094SOL     OW60396   3.591   6.279   7.565  0.0347 -0.1717  0.1033
51094SOL    HW160397   3.559   6.369   7.573  0.2326 -0.2239  1.8706
51094SOL    HW260398   3.674   6.279   7.612  0.5991 -1.0230 -0.8567
51095SOL     OW60399  10.141   1.535   9.110  0.0401 -0.6517  0.0028
51095SOL    HW160400  10.157   1.446   9.079  0.2572 -0.1452 -1.3928
51095SOL    HW260401  10.048   1.551   9.090  0.9820  0.9678 -4.0038
51096SOL     OW60402  11.535   1.506   0.038 -0.0230 -0.4258 -0.1116
51096SOL    HW160403  11.468   1.490   0.104 -1.3189 -0.7761 -1.4661
51096SOL    HW260404  11.614   1.464   0.073  0.0278  1.4097  2.3054
51097SOL     OW60405   0.101   2.850  11.860 -1.1101  0.3275 -0.1324
51097SOL    HW160406   0.169   2.840  11.927 -0.0598 -3.2229 -1.5034
51097SOL    HW260407   0.076   2.943  11.865  3.6613  1.8678  0.6113
51098SOL     OW60408   4.914   9.533   9.339  0.3993  0.3145  0.1753
51098SOL    HW160409   4.828   9.537   9.298 -0.6526 -2.0512  1.9499
51098SOL    HW260410   4.975   9.529   9.265 -1.0771  0.8130 -1.1242
51099SOL     OW60411   5.147   0.331   4.189  0.2224  0.0449 -0.2537
51099SOL    HW160412   5.210   0.282   4.137 -1.1249 -1.1838 -0.7963
51099SOL    HW260413   5.098   0.383   4.126  0.0325  0.2311  0.0421
51100SOL     OW60414   3.051   7.834   1.862 -1.0401 -0.2054  0.5430
51100SOL    HW160415   3.079   7.876   1.780  0.0855 -0.7169  0.6481
51100SOL    HW260416   3.076   7.742   1.851 -1.0603 -0.3136  1.3935
51101SOL     OW60417   5.033   5.133   6.372 -0.3296  0.1629  0.2105
51101SOL    HW160418   5.060   5.187   6.298  0.2808  1.5844  1.4226
51101SOL    HW260419   4.943   5.161   6.391  0.7049  2.4510  2.2117
51102SOL     OW60420   8.757  12.395   7.476  0.2784 -0.3185 -0.2849
51102SOL    HW160421   8.796  12.340   7.408  0.6736 -1.4474  0.8136
51102SOL    HW260422   8.667  12.364   7.484 -0.7229  1.7600 -2.2630
51103SOL     OW60423   9.176   7.102   4.494  0.0819  0.6737 -0.3047
51103SOL    HW160424   9.102   7.043   4.508  1.4950 -0.9495  0.6180
51103SOL    HW260425   9.241   7.050   4.447  0.0053  2.6205 -2.8437
51104SOL     OW60426   0.007   1.457  11.325  0.6984 -0.2768 -0.1321
51104SOL    HW160427  -0.057   1.528  11.322  0.2531 -0.6876 -0.7615
51104SOL    HW260428  -0.019   1.399  11.253  0.1200 -1.8795  1.3071
51105SOL     OW60429   0.013   0.224   9.686 -0.0510  0.4868  0.5054
51105SOL    HW160430   0.088   0.165   9.684 -0.2218  0.2230  1.6032
51105SOL    HW260431   0.040   0.297   9.742 -0.0778  1.1427 -0.3147
51106SOL     OW60432  11.943   9.760  10.394 -0.0452 -0.2603 -0.5469
51106SOL    HW160433  11.885   9.771  10.469  0.1798  0.3075 -0.4512
51106SOL    HW260434  11.885   9.739  10.321 -0.1558 -2.5475  0.0970
51107SOL     OW60435   7.258   6.089   0.661  0.0416 -0.0473  0.2198
51107SOL    HW160436   7.189   6.106   0.596 -1.0416  2.7722  1.8954
51107SOL    HW260437   7.340   6.109   0.615 -0.6491  1.2962 -0.4862
51108SOL     OW60438   4.661   6.150   4.561 -0.2126  0.2526  0.1279
51108SOL    HW160439   4.689   6.137   4.470  2.4388  0.1876  0.8676
51108SOL    HW260440   4.656   6.245   4.571 -0.6517  0.2584 -0.1026
51109SOL     OW60441   9.406  11.093   9.215 -0.9463 -0.4926  0.0371
51109SOL    HW160442   9.406  11.016   9.272  0.1558 -1.0099 -0.6504
51109SOL    HW260443   9.448  11.065   9.135  2.7631  1.6788  0.9860
51110SOL     OW60444   9.148   1.327   6.176 -0.0832  0.5727  0.4447
51110SOL    HW160445   9.155   1.258   6.109  0.5611 -1.4074  2.4193
51110SOL    HW260446   9.068   1.306   6.224 -1.0164  2.4894 -0.1767
51111SOL     OW60447   2.917   0.832   2.637  0.0288  0.2212 -0.2444
51111SOL    HW160448   2.864   0.865   2.710  2.4358 -0.4825  1.9976
51111SOL    HW260449   2.956   0.911   2.598 -1.5759  0.6344 -1.0871
51112SOL     OW60450  11.527  11.203  12.747 -0.0450 -0.5624 -0.2489
51112SOL    HW160451  11.438  11.215  12.782  0.2203  1.6822 -0.1863
51112SOL    HW260452  11.578  11.173  12.822 -0.8539 -2.7077 -0.4762
51113SOL     OW60453  12.614   1.633   7.351 -0.9062  0.8239 -0.1821
51113SOL    HW160454  12.595   1.676   7.268 -0.8941  2.4232  0.6235
51113SOL    HW260455  12.707   1.611   7.346 -1.4008 -1.2738 -1.5282
51114SOL     OW60456   7.090   6.249   3.931 -0.0988 -0.4995  0.3701
51114SOL    HW160457   7.062   6.321   3.875  1.0106 -0.4848 -0.1939
51114SOL    HW260458   7.132   6.291   4.006 -0.5396 -0.5422  0.6437
51115SOL     OW60459   3.584   1.446   1.836 -0.8799  0.1229 -0.2592
51115SOL    HW160460   3.576   1.394   1.917  1.0831 -0.6295 -0.5081
51115SOL    HW260461   3.504   1.499   1.835 -1.2387 -0.2595  1.8745
51116SOL     OW60462   3.558   1.119   8.107  0.0073 -0.1408  0.5520
51116SOL    HW160463   3.478   1.073   8.132  0.2539 -0.4281  0.8307
51116SOL    HW260464   3.530   1.184   8.043 -0.0466 -2.1679 -1.6151
51117SOL     OW60465   6.867   3.092   5.807  0.6142 -0.1776 -0.1576
51117SOL    HW160466   6.775   3.119   5.807  1.0666  1.4920  0.5207
51117SOL    HW260467   6.882   3.054   5.893  0.6520 -0.0766 -0.1191
51118SOL     OW60468  10.874  11.779   5.465  0.0477 -0.5142 -0.4393
51118SOL    HW160469  10.860  11.874   5.471 -2.4058 -0.8910  1.9088
51118SOL    HW260470  10.946  11.761   5.525 -1.2949 -0.3397  1.3248
51119SOL     OW60471   3.944  11.110   8.838 -0.1784 -0.6403  0.1996
51119SOL    HW160472   3.881  11.151   8.897 -0.1838 -0.5315  0.1181
51119SOL    HW260473   3.892  11.075   8.766 -0.0468  0.3491 -0.3844
51120SOL     OW60474   9.030   4.774   1.938 -0.3643 -0.1342 -0.0013
51120SOL    HW160475   9.082   4.825   1.875 -2.0815 -0.6206 -1.9338
51120SOL    HW260476   8.940   4.802   1.923 -0.8345 -0.0215  2.5686
51121SOL     OW60477   6.939   7.323  10.872  0.3089 -0.0264  0.1447
51121SOL    HW160478   7.000   7.326  10.798 -3.6955  0.0801 -3.5480
51121SOL    HW260479   6.946   7.233  10.904  0.5688 -0.8242 -1.9590
51122SOL     OW60480   0.403   8.649   9.164 -0.6774 -0.0918  0.4072
51122SOL    HW160481   0.382   8.680   9.252 -1.4244  0.1255  0.1578
51122SOL    HW260482   0.441   8.562   9.178 -2.8845 -1.0512  0.8268
51123SOL     OW60483   6.531   0.378   1.756  0.1576  0.3048  0.4780
51123SOL    HW160484   6.479   0.314   1.709 -0.6616  0.8194  0.6659
51123SOL    HW260485   6.584   0.327   1.817 -0.1551 -0.2155  0.3144
51124SOL     OW60486   1.070   7.101   4.272  0.0094  0.3264  0.0913
51124SOL    HW160487   1.161   7.125   4.255 -0.4667  1.9775 -0.3135
51124SOL    HW260488   1.071   7.006   4.279  1.7074  0.2898 -0.2490
51125SOL     OW60489   1.523   4.658   5.524 -0.6418  0.2909 -0.5580
51125SOL    HW160490   1.535   4.622   5.437 -0.2616 -0.0336 -0.3728
51125SOL    HW260491   1.599   4.716   5.537 -1.3269  1.3009 -0.9167
51126SOL     OW60492   7.967   8.621   5.034  0.5793  0.0916 -0.4950
51126SOL    HW160493   7.979   8.681   5.107 -0.1852 -0.0544 -0.2432
51126SOL    HW260494   7.879   8.640   5.001  0.4372 -0.6941 -0.5912
51127SOL     OW60495   1.348   0.880   1.526 -0.1741 -0.2770  0.0052
51127SOL    HW160496   1.305   0.825   1.592 -0.2736  1.8791  1.8982
51127SOL    HW260497   1.385   0.952   1.577  1.3172  0.5768 -2.1570
51128SOL     OW60498   0.214   0.644   5.547  0.0482 -0.0740  0.1252
51128SOL    HW160499   0.185   0.667   5.458 -1.0236 -1.2393  0.1533
51128SOL    HW260500   0.292   0.591   5.534 -0.4593 -0.7623 -0.1586
51129SOL     OW60501   8.886   2.360  10.247 -0.2783  0.6619  0.0401
51129SOL    HW160502   8.793   2.378  10.259 -0.5778  0.8239 -2.0999
51129SOL    HW260503   8.899   2.274  10.288 -1.9550 -0.5151 -1.7305
51130SOL     OW60504   7.384  12.683  10.801 -0.5215 -0.2245  0.6077
51130SOL    HW160505   7.332  12.645  10.730  0.1461  2.1448 -1.2813
51130SOL    HW260506   7.339  12.657  10.881 -1.7592 -2.3592 -0.6900
51131SOL     OW60507   3.963  11.466   6.996  0.5491 -0.3198 -0.1434
51131SOL    HW160508   3.911  11.479   6.917 -1.9205  0.4810  1.5156
51131SOL    HW260509   3.915  11.402   7.047  1.5121 -0.0232  1.1882
51132SOL     OW60510   2.080   1.495   1.988  0.3367  0.6722  0.2273
51132SOL    HW160511   2.118   1.575   2.024 -0.3170  0.4347  1.4905
51132SOL    HW260512   1.986   1.514   1.980  0.1418 -0.0263  0.7289
51133SOL     OW60513  11.328  10.457  10.115  0.6093 -0.5223  0.4973
51133SOL    HW160514  11.256  10.394  10.114 -1.0895  1.3189 -1.6967
51133SOL    HW260515  11.350  10.471  10.023  0.9611  2.0266  0.8911
51134SOL     OW60516   9.486   2.956   5.203  0.0052 -0.2152  0.4683
51134SOL    HW160517   9.510   3.048   5.217 -1.0973  0.1656 -0.0896
51134SOL    HW260518   9.568   2.914   5.176  0.8369  0.2845  2.1159
51135SOL     OW60519   4.874   3.672   0.843  0.2733 -0.6122 -0.3587
51135SOL    HW160520   4.859   3.620   0.922  0.4965 -0.5838 -0.2972
51135SOL    HW260521   4.800   3.651   0.786 -0.3963  0.0777  0.2242
51136SOL     OW60522  12.835   4.332   2.135  0.4855 -0.1347 -0.0243
51136SOL    HW160523  12.742   4.352   2.133  0.2252 -1.1108  1.0712
51136SOL    HW260524  12.855   4.301   2.046 -0.2523 -0.0132 -0.2350
51137SOL     OW60525   9.760   5.671   3.286  0.1121  0.4964  0.1989
51137SOL    HW160526   9.814   5.655   3.208 -1.1360 -0.7198 -0.4616
51137SOL    HW260527   9.794   5.753   3.322  1.7597  0.2706 -0.7142
51138SOL     OW60528   2.682  11.881   3.182 -0.7993 -0.3997 -0.2171
51138SOL    HW160529   2.600  11.930   3.188 -0.2617  0.8315 -2.0406
51138SOL    HW260530   2.666  11.801   3.232 -2.9073  0.0632 -0.0666
51139SOL     OW60531   3.799   5.223   7.150 -0.4226  0.2970 -0.2958
51139SOL    HW160532   3.822   5.134   7.178 -1.3507 -0.0714 -0.6386
51139SOL    HW260533   3.848   5.236   7.069  0.7983  0.6440  0.4736
51140SOL     OW60534   9.105   3.104  11.404  0.1361 -0.1854  0.1163
51140SOL    HW160535   9.152   3.088  11.322 -0.9101  0.3935 -0.6313
51140SOL    HW260536   9.135   3.191  11.432  0.8308 -0.5722  0.6038
51141SOL     OW60537   8.788   1.924   7.139 -0.1056  0.4540 -0.2775
51141SOL    HW160538   8.827   1.979   7.071 -0.0649  2.6461  1.3938
51141SOL    HW260539   8.696   1.915   7.113  0.0978  0.5338 -1.0424
51142SOL     OW60540   0.430   9.108  11.165 -0.3005  0.5217  0.1604
51142SOL    HW160541   0.500   9.055  11.204 -0.1851  0.8258  0.3702
51142SOL    HW260542   0.477   9.179  11.120 -0.4741  0.7318  0.3098
51143SOL     OW60543   2.074   7.656   8.068  0.7709  0.2732  0.2023
51143SOL    HW160544   2.148   7.597   8.077  2.0563  1.7086 -0.5751
51143SOL    HW260545   2.087   7.699   7.983 -1.6819 -0.3773 -0.6191
51144SOL     OW60546  10.821   1.042   8.919 -0.0181  0.1716 -0.3385
51144SOL    HW160547  10.846   1.081   9.003 -1.0692  0.4111 -0.1234
51144SOL    HW260548  10.894   1.062   8.860  2.2185 -2.6400  1.2359
51145SOL     OW60549   4.071   4.735   6.353 -0.2816 -0.3370  0.0059
51145SOL    HW160550   3.990   4.760   6.397  0.2232  1.4531  0.0103
51145SOL    HW260551   4.101   4.657   6.400  0.0322  1.2410  2.6974
51146SOL     OW60552   1.751   2.879   3.549  0.2078 -0.2431  0.0349
51146SOL    HW160553   1.724   2.789   3.528  0.7186 -0.2243 -0.7471
51146SOL    HW260554   1.715   2.932   3.479  0.2068  0.1182  0.3061
51147SOL     OW60555   1.897   1.565   5.883  0.1354 -0.3613  0.0338
51147SOL    HW160556   1.810   1.528   5.895 -0.8344  1.7733  0.1399
51147SOL    HW260557   1.929   1.527   5.801 -1.9843  0.6836 -1.3680
51148SOL     OW60558   3.415  11.202  11.278 -0.2235 -0.1021 -0.0190
51148SOL    HW160559   3.371  11.277  11.316 -0.8730  0.0677 -1.0482
51148SOL    HW260560   3.413  11.218  11.183 -0.3220 -1.3738 -0.2619
51149SOL     OW60561  10.679   3.161   5.141 -0.3952  0.1874  0.1487
51149SOL    HW160562  10.708   3.178   5.230  0.1895 -2.0770  0.4643
51149SOL    HW260563  10.584   3.157   5.147 -0.4968  1.9150  0.2510
51150SOL     OW60564   7.651   1.984   6.931 -0.5647  0.5564  0.0862
51150SOL    HW160565   7.661   1.890   6.946 -2.5611  0.3377  0.3357
51150SOL    HW260566   7.741   2.018   6.931  0.1556 -1.2189  0.7541
51151SOL     OW60567  11.363  12.598   1.167  0.3370 -0.1673  0.1027
51151SOL    HW160568  11.296  12.531   1.178  1.7026 -1.4625  0.8624
51151SOL    HW260569  11.319  12.679   1.193 -0.9957 -0.9296  0.3549
51152SOL     OW60570  12.839  12.392   2.334  0.7409 -0.6876 -0.1941
51152SOL    HW160571  12.858  12.448   2.409 -0.3782 -0.3931 -0.1077
51152SOL    HW260572  12.863  12.304   2.363  1.2341 -0.4460  0.1544
51153SOL     OW60573   9.524  12.211   1.207 -0.2534  0.0598  0.0653
51153SOL    HW160574   9.595  12.219   1.271 -0.1780 -0.5435  0.0639
51153SOL    HW260575   9.461  12.153   1.248 -0.2018 -0.3397 -0.4081
51154SOL     OW60576   4.944   0.695   2.853 -0.4098  0.0049  0.5135
51154SOL    HW160577   5.008   0.758   2.886 -0.2883 -0.6655  1.6224
51154SOL    HW260578   4.987   0.610   2.863 -0.0125 -0.2155 -2.2451
51155SOL     OW60579   6.761   1.828   9.053  0.5513 -0.2157 -0.3299
51155SOL    HW160580   6.710   1.841   9.132  0.1145  2.8989 -1.0073
51155SOL    HW260581   6.845   1.794   9.084  0.2643  0.5831  1.4299
51156SOL     OW60582   1.453   1.945   4.349  0.1448 -0.2152 -0.1998
51156SOL    HW160583   1.393   2.012   4.317  1.1552  0.0140 -1.7632
51156SOL    HW260584   1.403   1.863   4.346 -0.5765  0.2155  0.0849
51157SOL     OW60585   7.067  11.270   7.933 -0.3083 -0.0542  0.6077
51157SOL    HW160586   7.091  11.353   7.973  2.2986 -0.6598  0.4317
51157SOL    HW260587   7.137  11.210   7.957 -1.5187 -1.9204 -0.2548
51158SOL     OW60588  11.351  10.888   2.826  0.6954  0.0768  0.1939
51158SOL    HW160589  11.284  10.953   2.848  0.7984  0.6736 -1.1743
51158SOL    HW260590  11.426  10.910   2.882  2.0069  3.3542 -2.5385
51159SOL     OW60591  11.970   6.668   2.184 -0.0105 -0.4427  0.2329
51159SOL    HW160592  11.901   6.625   2.134  0.8558 -0.8270 -0.6735
51159SOL    HW260593  11.996   6.743   2.130 -0.2379  0.1508  0.9289
51160SOL     OW60594   4.665   0.834   5.600 -0.3193 -0.0692 -0.2588
51160SOL    HW160595   4.581   0.789   5.592 -1.6368  2.0915  0.4476
51160SOL    HW260596   4.674   0.882   5.517 -0.5269  0.8527  0.2380
51161SOL     OW60597   5.953  10.178   7.931  0.4431  0.4590  0.2275
51161SOL    HW160598   5.972  10.202   8.022 -0.6502 -0.9447  0.8722
51161SOL    HW260599   6.038  10.154   7.894  1.0305  1.8625  0.5981
51162SOL     OW60600   1.592   8.952   6.215  0.2798 -0.0009 -0.0650
51162SOL    HW160601   1.507   8.908   6.211 -0.1910  0.8550  0.4082
51162SOL    HW260602   1.624   8.949   6.125 -0.8392  0.7856 -0.5141
51163SOL     OW60603   8.890   7.895  12.397 -0.2573  0.4967 -0.4168
51163SOL    HW160604   8.924   7.962  12.337  3.1567 -0.5997  0.0664
51163SOL    HW260605   8.914   7.812  12.356 -1.9296 -0.4172  0.3431
51164SOL     OW60606  11.666   1.659   2.180  0.2325 -0.2781  0.3370
51164SOL    HW160607  11.732   1.680   2.246  1.4999 -2.1432 -0.2282
51164SOL    HW260608  11.694   1.706   2.102 -1.1126  1.7044  0.9691
51165SOL     OW60609   2.690   4.919   7.636 -0.1579 -0.1200  0.2565
51165SOL    HW160610   2.738   4.969   7.702 -0.0965  1.0771 -0.6522
51165SOL    HW260611   2.642   4.985   7.586 -0.8125 -1.0645 -0.4106
51166SOL     OW60612   9.032   0.861   6.886  0.0022  0.6417 -0.1611
51166SOL    HW160613   9.012   0.855   6.792  0.0143 -0.1141 -0.1226
51166SOL    HW260614   9.127   0.845   6.891 -0.3226 -1.5202  0.1525
51167SOL     OW60615   4.444   7.917   9.353 -0.1180 -0.3115 -0.2609
51167SOL    HW160616   4.467   7.939   9.263 -0.2759 -2.2141 -0.8048
51167SOL    HW260617   4.358   7.957   9.366  0.0213  0.2051 -0.8463
51168SOL     OW60618  10.841   2.018   0.845 -0.1743 -0.1553 -0.1020
51168SOL    HW160619  10.886   2.098   0.818 -0.4036 -0.0574 -0.1966
51168SOL    HW260620  10.882   1.993   0.927 -0.7082  0.5565  0.3945
51169SOL     OW60621   8.311   4.714   3.798  0.7757 -0.4735  0.7486
51169SOL    HW160622   8.284   4.742   3.711 -0.8493  0.4622  1.5039
51169SOL    HW260623   8.393   4.760   3.815  0.5416  0.1734  0.1404
51170SOL     OW60624   1.126   7.792   1.129  0.2182 -0.2436 -0.5040
51170SOL    HW160625   1.073   7.815   1.206 -0.6476 -0.1396 -1.1185
51170SOL    HW260626   1.216   7.809   1.157 -0.1223  0.3269  0.3043
51171SOL     OW60627  12.639  10.094   6.056  0.3700  0.1116 -0.2289
51171SOL    HW160628  12.700  10.167   6.064  0.2116  0.3498 -1.0974
51171SOL    HW260629  12.671  10.044   5.981  0.8347 -1.0778  0.7106
51172SOL     OW60630  10.469   4.788   7.618 -0.3485 -0.4408 -0.0699
51172SOL    HW160631  10.562   4.764   7.620  0.6164  2.6727 -1.3639
51172SOL    HW260632  10.458   4.849   7.690 -0.2801  2.3316 -2.2423
51173SOL     OW60633   5.162   3.143   4.747  0.1166 -0.3631 -0.1873
51173SOL    HW160634   5.211   3.130   4.828  2.5556 -0.3806 -1.5723
51173SOL    HW260635   5.148   3.237   4.742  0.1335 -0.3419  0.1489
51174SOL     OW60636   4.194   8.179   7.127  0.0733 -0.2276  0.1704
51174SOL    HW160637   4.150   8.100   7.095  0.0249  0.4923 -1.6483
51174SOL    HW260638   4.242   8.150   7.204  0.1552 -2.0538 -0.5235
51175SOL     OW60639  10.844  12.196   3.834 -0.2746  0.3073  0.1922
51175SOL    HW160640  10.755  12.169   3.859 -1.3807  0.8100 -2.7329
51175SOL    HW260641  10.834  12.226   3.744  2.6450  1.7167  0.2471
51176SOL     OW60642   7.734   8.433  10.153 -0.3003  0.2787 -0.3004
51176SOL    HW160643   7.763   8.352  10.194  0.2445 -0.0242 -1.2652
51176SOL    HW260644   7.720   8.493  10.226 -0.9987 -0.7606  0.4441
51177SOL     OW60645   6.668   1.276   1.448  0.7418  0.0031  0.0552
51177SOL    HW160646   6.754   1.234   1.457  0.7661  0.1548  0.5697
51177SOL    HW260647   6.659   1.293   1.355  1.2714 -0.0172 -0.0033
51178SOL     OW60648  11.243   0.854   3.721  0.7236 -0.0405  0.1657
51178SOL    HW160649  11.207   0.812   3.799  0.4159  0.3153  0.2179
51178SOL    HW260650  11.167   0.874   3.667  0.7535  1.3883  0.6015
51179SOL     OW60651   5.243   8.887   4.871 -0.0065  0.0942 -0.3268
51179SOL    HW160652   5.288   8.807   4.844 -0.2936 -0.3579  0.4796
51179SOL    HW260653   5.259   8.949   4.800 -0.9456 -1.1084 -1.6480
51180SOL     OW60654  10.348   4.123   7.463 -0.0723 -0.5823 -0.5802
51180SOL    HW160655  10.325   4.090   7.376  0.0736  1.4400 -1.4366
51180SOL    HW260656  10.443   4.116   7.467  0.0118  0.2467 -0.9954
51181SOL     OW60657   9.445   0.330   5.046 -0.2170  0.0649 -0.5274
51181SOL    HW160658   9.392   0.377   5.111 -0.4592  1.7415 -1.8641
51181SOL    HW260659   9.392   0.255   5.021 -1.4023  0.9895 -0.8755
51182SOL     OW60660   2.504  10.984  10.309  0.2800 -0.9329  0.5093
51182SOL    HW160661   2.456  11.066  10.302  1.0172 -0.5390  0.0110
51182SOL    HW260662   2.437  10.916  10.306 -0.1359 -0.4836 -2.1269
51183SOL     OW60663   0.719   3.517   0.291  0.2260  0.1499 -0.0849
51183SOL    HW160664   0.755   3.472   0.368 -0.4457  0.3107  0.3400
51183SOL    HW260665   0.776   3.492   0.219  0.6048 -0.3693  0.3873
51184SOL     OW60666  11.115  11.184   9.349 -0.0233  0.9350 -0.1356
51184SOL    HW160667  11.139  11.150   9.435  0.9239  2.6142  0.3100
51184SOL    HW260668  11.070  11.111   9.306  4.1411 -1.8856 -0.2741
51185SOL     OW60669   1.519   6.956   7.895 -0.6634  0.1095 -0.3522
51185SOL    HW160670   1.530   6.910   7.812  0.4899 -0.3452  0.0393
51185SOL    HW260671   1.555   7.043   7.879 -1.6191  0.4490 -0.6979
51186SOL     OW60672  11.555   8.543  11.001  0.2163 -0.1449 -0.0039
51186SOL    HW160673  11.502   8.520  11.077  0.8103  1.4471  0.9186
51186SOL    HW260674  11.619   8.605  11.034  0.5511  0.5097 -1.7907
51187SOL     OW60675   5.162   0.411   8.171  0.0784 -0.3201  0.3423
51187SOL    HW160676   5.084   0.367   8.205  0.3433 -0.6221  0.5791
51187SOL    HW260677   5.220   0.417   8.247  0.6561 -0.9423 -0.0398
51188SOL     OW60678   3.977   9.422   4.246  0.1579 -0.3009 -0.0044
51188SOL    HW160679   3.973   9.488   4.315  0.7679 -0.1285 -0.1337
51188SOL    HW260680   3.908   9.449   4.184 -0.2709 -0.3576  0.4390
51189SOL     OW60681   3.426   8.464   1.970 -0.1900  0.3600 -0.1053
51189SOL    HW160682   3.458   8.448   2.059  0.4540  1.1594 -0.1855
51189SOL    HW260683   3.445   8.556   1.954 -0.9564  0.4008 -0.8143
51190SOL     OW60684  10.197   3.130   1.340 -0.4186 -0.2330 -0.0345
51190SOL    HW160685  10.274   3.156   1.290  0.0672  0.5048  1.0434
51190SOL    HW260686  10.174   3.044   1.307  1.5079 -0.9300  0.3247
51191SOL     OW60687   6.503   9.171  11.377 -0.5303  0.0449  0.1180
51191SOL    HW160688   6.595   9.180  11.401 -0.4771 -2.8076  1.3604
51191SOL    HW260689   6.500   9.192  11.284  1.6616 -1.2292 -0.3012
51192SOL     OW60690  10.890   6.932   2.137 -0.5043  0.9036  0.0624
51192SOL    HW160691  10.823   6.885   2.187 -0.3972  0.1893 -0.4525
51192SOL    HW260692  10.972   6.888   2.159 -0.7065 -0.9871 -2.4579
51193SOL     OW60693  10.170   9.871  10.541 -0.3629 -0.2582  0.3565
51193SOL    HW160694  10.078   9.892  10.525  0.1210  0.8013 -1.2172
51193SOL    HW260695  10.181   9.783  10.503 -0.9241 -0.8152  1.4282
51194SOL     OW60696   4.828   0.718   9.719  0.0800 -0.6142 -0.4354
51194SOL    HW160697   4.899   0.696   9.780 -1.0997 -1.7513  0.5687
51194SOL    HW260698   4.872   0.767   9.649  2.1316 -2.6641 -0.6865
51195SOL     OW60699  11.921   3.080   5.051 -0.2361 -0.8460  0.1201
51195SOL    HW160700  11.866   3.003   5.035 -1.6267  0.4130 -1.5377
51195SOL    HW260701  11.859   3.153   5.057  1.1305  0.3406  0.3990
51196SOL     OW60702   5.707   0.159   3.919  0.1816  0.3676 -0.5347
51196SOL    HW160703   5.623   0.172   3.875  0.4037  0.7070 -0.8754
51196SOL    HW260704   5.738   0.074   3.889 -0.5852 -0.2909  0.5134
51197SOL     OW60705   3.694   0.906   1.531 -0.3123 -0.2766  0.3054
51197SOL    HW160706   3.654   0.891   1.617 -1.8423  1.9845  0.0786
51197SOL    HW260707   3.731   0.994   1.538  0.6936 -0.5798 -0.9584
51198SOL     OW60708   0.909   5.998   6.168  0.1557 -0.2269 -0.4813
51198SOL    HW160709   0.982   6.041   6.213 -0.2563 -0.3722  0.3578
51198SOL    HW260710   0.951   5.937   6.108  0.7295  0.4051 -0.7386
51199SOL     OW60711   7.400   7.195  10.018 -0.4998 -0.2460  0.3849
51199SOL    HW160712   7.380   7.102  10.011 -1.8716  0.0710 -0.1611
51199SOL    HW260713   7.320   7.235  10.051 -0.2829  0.8827 -0.3969
51200SOL     OW60714  10.267   8.447   2.231  0.3524  0.4107  0.0648
51200SOL    HW160715  10.279   8.402   2.314  1.5696  0.2687 -0.1750
51200SOL    HW260716  10.356   8.466   2.200 -0.0823  0.7104 -1.0638
51201SOL     OW60717   4.999   6.103   7.204 -0.1561 -0.1158 -0.3377
51201SOL    HW160718   5.001   6.160   7.127 -0.7858  0.9449  0.4056
51201SOL    HW260719   5.080   6.124   7.250  0.0896 -0.5560 -0.5599
51202SOL     OW60720   1.009  10.573   9.991  0.3109 -0.2238  0.4292
51202SOL    HW160721   0.974  10.601  10.076  1.0006 -0.7942  0.9155
51202SOL    HW260722   1.087  10.627   9.979  0.7314 -0.7759  0.6056
51203SOL     OW60723   3.769   2.331   3.369 -0.1048 -0.0283 -0.0399
51203SOL    HW160724   3.749   2.405   3.312  2.7015  1.7874  1.1266
51203SOL    HW260725   3.706   2.339   3.441  0.1932  1.2968  0.0980
51204SOL     OW60726   9.233   8.517  10.064 -0.0062  0.2920 -0.2351
51204SOL    HW160727   9.226   8.495  10.157  0.4700  0.1318 -0.2357
51204SOL    HW260728   9.196   8.441  10.019  0.9588 -0.1978 -0.2141
51205SOL     OW60729   4.146   5.525   6.120  0.4207 -0.7048 -0.5641
51205SOL    HW160730   4.163   5.491   6.032  0.6265  0.1066 -0.8489
51205SOL    HW260731   4.065   5.575   6.112 -0.9096 -2.5860  0.2655
51206SOL     OW60732   3.391   0.384   7.728 -0.1634 -0.3275  0.3978
51206SOL    HW160733   3.382   0.466   7.776 -1.1749 -0.6707  0.8274
51206SOL    HW260734   3.343   0.320   7.781 -0.8665 -0.8269 -0.7956
51207SOL     OW60735   0.404   6.898  10.780  0.0108 -0.8419 -0.2553
51207SOL    HW160736   0.458   6.828  10.744  0.4204  0.2474 -1.8716
51207SOL    HW260737   0.439   6.978  10.740 -1.9122  0.0359 -0.2698
51208SOL     OW60738   3.685   5.667  12.447 -0.3366  0.1027 -0.4844
51208SOL    HW160739   3.646   5.691  12.363 -2.1260 -1.3420 -0.1417
51208SOL    HW260740   3.647   5.581  12.467  1.4272 -0.3908  0.9617
51209SOL     OW60741   7.222   2.397   4.999  0.4059  0.4104 -0.0617
51209SOL    HW160742   7.194   2.463   4.937 -0.3042  2.7763  2.5557
51209SOL    HW260743   7.318   2.399   4.994  0.3528  0.3354 -1.2658
51210SOL     OW60744   7.352   4.162  10.122 -0.4252  0.2498  0.0904
51210SOL    HW160745   7.341   4.120  10.036  1.5540 -0.0028 -0.0853
51210SOL    HW260746   7.412   4.104  10.169  0.3399  1.5669  0.7978
51211SOL     OW60747   9.335   9.730   1.339 -0.0019 -0.2769  0.1575
51211SOL    HW160748   9.287   9.663   1.388 -0.8338 -0.2809 -0.6374
51211SOL    HW260749   9.301   9.813   1.374 -2.4241 -0.2214 -1.9784
51212SOL     OW60750   9.733   8.972   8.686 -0.3211 -0.2838 -0.0204
51212SOL    HW160751   9.804   8.916   8.715 -0.0780 -0.6051 -1.1912
51212SOL    HW260752   9.666   8.912   8.655 -0.5383  0.0453 -0.1962
51213SOL     OW60753   6.456   1.672   8.056  0.1060 -0.4394 -0.0152
51213SOL    HW160754   6.473   1.756   8.015 -1.6001 -1.3577 -2.9509
51213SOL    HW260755   6.543   1.634   8.070  0.8366  0.5763 -1.5074
51214SOL     OW60756  12.251   8.051   5.872  0.5460 -0.2172  0.1739
51214SOL    HW160757  12.252   8.105   5.792  0.0486 -0.3796  0.0525
51214SOL    HW260758  12.332   8.000   5.868  1.2030  0.7841  0.4758
51215SOL     OW60759   5.091   1.796   2.474  0.3992 -0.0540  0.2257
51215SOL    HW160760   5.184   1.819   2.465  0.3984  0.5369  1.5330
51215SOL    HW260761   5.092   1.701   2.486  0.9599  0.0810  1.4467
51216SOL     OW60762  11.498   9.842  12.335  0.1380  0.4843 -0.7145
51216SOL    HW160763  11.409   9.806  12.339  0.1801  0.4714  0.5683
51216SOL    HW260764  11.487   9.928  12.294 -0.5036  0.6076 -0.2985
51217SOL     OW60765   1.635   1.323   3.585  0.0789 -0.0773  0.3010
51217SOL    HW160766   1.707   1.378   3.617  1.0652 -1.1302 -0.0520
51217SOL    HW260767   1.564   1.339   3.647 -0.1023  2.5103 -0.4428
51218SOL     OW60768   8.858   9.237   2.132 -0.2051  0.0604  0.5470
51218SOL    HW160769   8.793   9.305   2.115  0.6643  0.7129 -0.2115
51218SOL    HW260770   8.926   9.281   2.183 -0.5192 -0.7150  1.6782
51219SOL     OW60771  10.813   4.970   0.202 -0.6801 -0.3717 -0.1496
51219SOL    HW160772  10.831   4.931   0.116 -0.6826 -0.3673 -0.1522
51219SOL    HW260773  10.878   5.039   0.210 -0.3365 -0.7153  0.0799
51220SOL     OW60774   2.863   9.793  10.891 -0.2288 -0.2020  0.0792
51220SOL    HW160775   2.898   9.710  10.921  0.6270  0.2504  0.3546
51220SOL    HW260776   2.788   9.810  10.948 -0.3597 -0.7369  0.0706
51221SOL     OW60777   5.737   6.517   4.431 -0.0763  0.2200  0.0553
51221SOL    HW160778   5.706   6.427   4.421 -0.9715  0.6724 -1.6927
51221SOL    HW260779   5.667   6.562   4.477 -0.3617  0.3827 -0.5292
51222SOL     OW60780   8.583   9.576   8.748 -0.0667 -0.4346 -0.2758
51222SOL    HW160781   8.532   9.546   8.823 -0.8636 -0.9951 -1.0336
51222SOL    HW260782   8.631   9.499   8.719 -1.4661 -0.8153 -1.6984
51223SOL     OW60783   6.939   0.775  12.465 -0.2905  0.0921 -0.3645
51223SOL    HW160784   7.008   0.767  12.530  0.0430 -0.5738 -0.7849
51223SOL    HW260785   6.870   0.823  12.509 -0.2621 -0.7423  0.6378
51224SOL     OW60786   2.392  11.889   1.223  0.4959 -0.1509  0.0031
51224SOL    HW160787   2.388  11.793   1.228 -2.3480 -0.1591 -0.8328
51224SOL    HW260788   2.333  11.919   1.291  0.9680  1.0079 -0.0817
51225SOL     OW60789  11.403   0.757   8.890  0.3553 -0.7046 -0.4362
51225SOL    HW160790  11.328   0.806   8.859  0.8871  0.0494 -0.5508
51225SOL    HW260791  11.374   0.666   8.890 -1.5651 -0.2157  2.3284
51226SOL     OW60792  11.263   1.939   0.271 -0.3576 -0.1629  0.4186
51226SOL    HW160793  11.298   1.909   0.354  0.6039 -1.3147 -0.3726
51226SOL    HW260794  11.280   2.033   0.270 -0.7665 -0.0698  1.6940
51227SOL     OW60795   6.370   8.178  11.758 -0.2462 -0.3458  0.2221
51227SOL    HW160796   6.288   8.224  11.744 -0.8683 -1.8507 -1.5317
51227SOL    HW260797   6.432   8.245  11.786 -2.0990  0.7902  1.8098
51228SOL     OW60798   5.994  12.020   3.910  0.1049 -0.2646  0.5972
51228SOL    HW160799   6.043  12.004   3.830  0.3653 -0.8324  0.8580
51228SOL    HW260800   6.051  12.078   3.962 -0.2020  0.3555  0.2464
51229SOL     OW60801   4.137   9.885   4.086  0.4704  0.4719  0.2586
51229SOL    HW160802   4.120   9.802   4.041  1.3757  0.5136 -0.1825
51229SOL    HW260803   4.077   9.947   4.047  2.3790  0.9241 -2.1793
51230SOL     OW60804  11.642   8.167   8.554  0.4606  0.0384  0.4601
51230SOL    HW160805  11.712   8.198   8.611  1.6250 -1.6334  0.0050
51230SOL    HW260806  11.621   8.242   8.499 -0.3658  1.5565  2.6685
51231SOL     OW60807  10.944   4.177   1.300  0.0748 -0.1439  0.2617
51231SOL    HW160808  10.948   4.214   1.211  0.8317  0.8922  0.7049
51231SOL    HW260809  10.955   4.083   1.287 -1.5813 -0.2143 -0.8726
51232SOL     OW60810   7.608   3.882   9.462  0.2896  0.3802  0.0226
51232SOL    HW160811   7.537   3.827   9.494  0.5166 -0.1447 -0.3512
51232SOL    HW260812   7.601   3.877   9.367  1.4576 -0.5455 -0.0405
51233SOL     OW60813   7.126   4.880   9.461 -0.0295 -0.4231 -0.1887
51233SOL    HW160814   7.083   4.958   9.498 -0.3543 -0.9566  0.5853
51233SOL    HW260815   7.106   4.884   9.368 -2.2378 -0.9159  0.1955
51234SOL     OW60816   2.436   4.125   4.105 -0.5612  0.6862 -0.1502
51234SOL    HW160817   2.388   4.191   4.155  0.4472  0.9946  0.4386
51234SOL    HW260818   2.514   4.170   4.074 -0.5350  0.1374 -0.9197
51235SOL     OW60819   8.212   8.766  12.358 -0.0219 -0.8292 -0.4129
51235SOL    HW160820   8.246   8.826  12.292 -0.5616 -0.3211 -0.2308
51235SOL    HW260821   8.177   8.822  12.427  0.1131 -1.3527  0.0923
51236SOL     OW60822  12.785   5.924  10.758  0.2990  0.2489 -0.1179
51236SOL    HW160823  12.743   5.856  10.705  0.3443  0.5528 -0.5463
51236SOL    HW260824  12.866   5.884  10.788  1.9877  1.1828 -3.0973
51237SOL     OW60825   4.940   8.555   0.372 -0.0799  0.2202 -0.0683
51237SOL    HW160826   4.966   8.511   0.453  1.4555  1.6146  0.2446
51237SOL    HW260827   4.945   8.648   0.393 -0.7060  0.5855 -1.4596
51238SOL     OW60828   4.152   7.493   6.705  0.0711 -0.1834 -0.1324
51238SOL    HW160829   4.165   7.496   6.610 -0.0952 -0.4915 -0.1636
51238SOL    HW260830   4.147   7.586   6.730  2.1942 -0.0237 -0.1301
51239SOL     OW60831  11.660  11.833   2.134  0.3228  0.0984  0.4222
51239SOL    HW160832  11.587  11.836   2.072  0.1048 -0.5616  0.6339
51239SOL    HW260833  11.659  11.919   2.177  0.2084  0.4040 -0.1748
51240SOL     OW60834   8.647   4.107   8.654 -0.3442  0.4213  0.0697
51240SOL    HW160835   8.603   4.192   8.647  0.2534  0.7244 -0.0415
51240SOL    HW260836   8.716   4.110   8.589  1.5008  0.9675  1.9556
51241SOL     OW60837  11.579  10.603   4.391  0.2474  0.0933  0.3002
51241SOL    HW160838  11.554  10.645   4.309 -1.1672 -0.9515  0.1676
51241SOL    HW260839  11.523  10.644   4.457  0.8177  0.3667  0.6172
51242SOL     OW60840  10.320   6.772  12.739 -0.1746 -0.7880 -0.1121
51242SOL    HW160841  10.230   6.741  12.729 -0.0841 -1.0357 -0.1845
51242SOL    HW260842  10.312   6.858  12.779 -0.4900 -0.3770 -1.0312
51243SOL     OW60843   4.424   2.976   0.461 -0.8004 -0.0590 -0.4068
51243SOL    HW160844   4.393   2.965   0.371 -0.4078 -0.8723 -0.4488
51243SOL    HW260845   4.466   2.893   0.483 -0.1043  0.4434  0.2247
51244SOL     OW60846  11.303   6.211   4.431 -0.5954  0.1774 -0.0958
51244SOL    HW160847  11.394   6.237   4.416 -0.3231 -1.1957 -1.0258
51244SOL    HW260848  11.256   6.239   4.353 -0.6634 -0.4018 -0.2724
51245SOL     OW60849   4.467   2.504   5.912  0.1994  0.1299 -0.2092
51245SOL    HW160850   4.553   2.463   5.918  0.5657  0.6861 -1.2667
51245SOL    HW260851   4.475   2.567   5.840 -1.1129  0.1341 -0.3924
51246SOL     OW60852   6.174  12.240   2.489 -0.4225 -0.2902  0.3628
51246SOL    HW160853   6.119  12.162   2.496  0.9040 -1.3141 -0.2000
51246SOL    HW260854   6.144  12.297   2.561 -0.4162 -1.9531  1.7546
51247SOL     OW60855   6.953   1.556   2.098 -0.1478  0.0544  0.4383
51247SOL    HW160856   6.877   1.511   2.134  0.0982 -0.4393  0.3467
51247SOL    HW260857   6.928   1.577   2.008 -0.1647 -0.1274  0.4010
51248SOL     OW60858   7.420   4.101   6.166 -0.1639  0.2289  0.5353
51248SOL    HW160859   7.334   4.134   6.193 -0.5463  0.5837 -1.0507
51248SOL    HW260860   7.465   4.084   6.249 -1.2041  1.4729  1.4082
51249SOL     OW60861   6.719   3.656   7.840 -0.3343 -0.2223 -0.5854
51249SOL    HW160862   6.662   3.675   7.915  0.7228 -0.3514  0.2782
51249SOL    HW260863   6.669   3.595   7.786 -0.7503 -0.8641  0.5038
51250SOL     OW60864  10.014   6.211   0.427  0.2794  0.3443 -0.4274
51250SOL    HW160865   9.926   6.229   0.459 -0.3505 -1.7105 -0.8475
51250SOL    HW260866  10.035   6.285   0.370 -0.7468  1.3569  0.4620
51251SOL     OW60867   0.408   1.865  11.392  0.3849  0.6368  0.2086
51251SOL    HW160868   0.326   1.844  11.437  1.0637 -1.4317  0.5501
51251SOL    HW260869   0.382   1.878  11.300  0.0168 -3.8419 -0.5531
51252SOL     OW60870  12.319  11.801   9.713 -0.1423  0.4539  0.7781
51252SOL    HW160871  12.306  11.860   9.639  1.7721  1.7411  1.3980
51252SOL    HW260872  12.232  11.763   9.729 -1.1116  1.9791 -0.5622
51253SOL     OW60873   7.424   2.940  12.036 -0.0258  0.2488  0.4258
51253SOL    HW160874   7.473   3.021  12.049 -0.3764  0.5101  0.1303
51253SOL    HW260875   7.461   2.903  11.956  0.3956 -0.0833  0.7633
51254SOL     OW60876  10.833  11.452   0.069  0.2218 -0.1541 -0.2444
51254SOL    HW160877  10.871  11.540   0.069  2.9132 -1.2302  0.2960
51254SOL    HW260878  10.819  11.432  -0.024 -1.8510  1.3244 -0.3297
51255SOL     OW60879   8.883   2.025   8.295 -0.2218  0.1716  0.3819
51255SOL    HW160880   8.873   1.931   8.314 -2.4336  0.3990  0.5822
51255SOL    HW260881   8.805   2.048   8.245 -0.6344  2.2758  1.8457
51256SOL     OW60882   4.962   6.653   1.458 -0.0737 -0.1848  0.7227
51256SOL    HW160883   5.024   6.602   1.406 -0.5794  0.2320 -0.3396
51256SOL    HW260884   5.011   6.731   1.484 -0.7260  1.3571 -2.1745
51257SOL     OW60885  11.016   0.756   7.738 -0.3781  0.5726  0.1059
51257SOL    HW160886  10.920   0.760   7.732 -0.6211 -3.1079 -0.7754
51257SOL    HW260887  11.045   0.755   7.647  0.4460  0.9349  0.3611
51258SOL     OW60888   9.074  11.061   5.585  0.3086 -0.3198  0.9208
51258SOL    HW160889   9.078  11.037   5.678  1.8075 -0.0488  0.9480
51258SOL    HW260890   9.063  10.978   5.539 -0.6290 -0.4403  1.3227
51259SOL     OW60891   5.116   6.548   9.075 -0.2398 -0.0917 -0.2137
51259SOL    HW160892   5.107   6.643   9.066  0.1416  0.1840  1.9210
51259SOL    HW260893   5.035   6.514   9.035 -0.8139  1.1724 -0.2060
51260SOL     OW60894   0.014   8.296   0.528 -0.3041 -0.6066 -0.1170
51260SOL    HW160895   0.017   8.233   0.600 -0.5751  1.0221  1.3932
51260SOL    HW260896   0.095   8.346   0.537 -1.2061  0.8473  0.2730
51261SOL     OW60897   1.141   1.165  12.591 -0.6422  0.3829 -0.7368
51261SOL    HW160898   1.086   1.129  12.661 -0.0384  0.5450 -0.1632
51261SOL    HW260899   1.195   1.091  12.564  0.2081  0.6895  0.0566
51262SOL     OW60900   6.177   3.664  12.569 -0.1415 -0.1936 -0.2040
51262SOL    HW160901   6.221   3.579  12.578  0.5456  0.0420 -1.1253
51262SOL    HW260902   6.090   3.650  12.605  0.0220 -1.2493 -0.1838
51263SOL     OW60903   1.552   1.145   3.335  0.2872 -0.2338 -0.3956
51263SOL    HW160904   1.557   1.207   3.408 -2.0785  0.7085 -0.9747
51263SOL    HW260905   1.537   1.199   3.258 -0.2545 -1.4315 -1.1525
51264SOL     OW60906   3.972   5.685   4.193 -0.1892  0.2729 -0.3622
51264SOL    HW160907   3.881   5.714   4.184 -0.2558  0.0600 -0.3806
51264SOL    HW260908   3.974   5.599   4.152  0.0879  0.3991 -0.6117
51265SOL     OW60909   5.372   5.185   2.910  0.5756  0.6425 -0.2235
51265SOL    HW160910   5.354   5.194   2.816 -0.1048  2.8060  0.0609
51265SOL    HW260911   5.360   5.092   2.928 -2.2265  0.6145 -1.7131
51266SOL     OW60912   7.775   2.884   5.223  0.0833 -0.6290 -0.0755
51266SOL    HW160913   7.710   2.935   5.271 -0.3905 -0.2477 -1.0901
51266SOL    HW260914   7.859   2.917   5.254 -0.1958  1.0983 -0.9769
51267SOL     OW60915   2.711   3.122   2.204 -0.4734 -0.0002  0.2756
51267SOL    HW160916   2.665   3.055   2.154  0.1306  0.0313 -0.3532
51267SOL    HW260917   2.676   3.205   2.170 -0.0960  0.0202 -0.0796
51268SOL     OW60918  11.894   9.245   2.629  0.3863 -0.3336 -0.2907
51268SOL    HW160919  11.936   9.169   2.588  0.1612 -0.2289 -0.7241
51268SOL    HW260920  11.956   9.316   2.615  1.0212 -0.6224  0.9224
51269SOL     OW60921   3.424   8.214   4.258  0.8922  0.3531  0.2984
51269SOL    HW160922   3.392   8.139   4.207 -0.2459  1.0936 -0.1102
51269SOL    HW260923   3.427   8.286   4.195  1.6149  0.7458  0.7749
51270SOL     OW60924   5.747   4.427   0.701  0.1252 -0.1435 -0.3031
51270SOL    HW160925   5.691   4.483   0.755 -0.5925 -1.2802  0.1563
51270SOL    HW260926   5.786   4.487   0.638 -0.8136  0.8444  0.0175
51271SOL     OW60927   9.108  12.820   8.484  0.0200 -0.1791 -0.4069
51271SOL    HW160928   9.038  12.755   8.475 -0.3896  0.3136 -0.7963
51271SOL    HW260929   9.131  12.844   8.394 -1.4324  1.9199 -0.2812
51272SOL     OW60930   1.206   0.011   2.493  0.0003 -0.4145  0.4954
51272SOL    HW160931   1.209   0.074   2.420 -2.5972 -0.5094  0.2121
51272SOL    HW260932   1.164   0.059   2.564 -1.9408 -1.7423  0.3066
51273SOL     OW60933   5.172  12.560   0.659 -0.5623 -0.0003  0.1163
51273SOL    HW160934   5.165  12.602   0.745 -0.2309  2.0611 -0.7967
51273SOL    HW260935   5.132  12.623   0.599 -0.1699 -1.0864 -1.3349
51274SOL     OW60936  10.533  12.540   3.720  0.4495  0.9237 -0.0379
51274SOL    HW160937  10.623  12.549   3.750  0.9385 -1.2202 -0.6595
51274SOL    HW260938  10.491  12.485   3.786  0.1185  0.4072 -0.6640
51275SOL     OW60939   2.294  11.927   5.359 -0.1760 -0.5118  0.0577
51275SOL    HW160940   2.242  11.858   5.401 -0.2481  0.6940  2.0755
51275SOL    HW260941   2.238  11.959   5.288 -0.9450 -1.2314  0.3218
51276SOL     OW60942   7.944   3.862   9.686 -0.4627  0.1742  0.5077
51276SOL    HW160943   8.008   3.875   9.757  1.9509  1.2566 -1.6907
51276SOL    HW260944   7.936   3.948   9.646 -0.4286 -0.7328 -1.5427
51277SOL     OW60945   2.424   8.037   1.142  0.1572 -0.1579  0.7119
51277SOL    HW160946   2.484   8.083   1.200  2.3996 -1.4591 -0.4274
51277SOL    HW260947   2.421   8.091   1.063  1.4644 -1.0398  0.0184
51278SOL     OW60948   6.682   8.978   9.051  0.2837  0.4241  0.5162
51278SOL    HW160949   6.712   8.911   8.989 -1.7634 -0.2211  0.1450
51278SOL    HW260950   6.698   9.061   9.005 -1.2581 -0.0418 -0.9860
51279SOL     OW60951   2.849  10.200   9.301  0.4711 -0.2979  0.3345
51279SOL    HW160952   2.771  10.236   9.342 -0.5325 -1.5666 -0.3852
51279SOL    HW260953   2.854  10.245   9.216 -1.4858 -2.5535 -1.1028
51280SOL     OW60954   1.508   7.972   1.736 -0.3907 -0.1134 -0.1104
51280SOL    HW160955   1.485   7.937   1.822  0.7750  0.6533  0.5446
51280SOL    HW260956   1.556   7.901   1.693  1.4782  0.4234  0.9943
51281SOL     OW60957   7.928   6.169   8.566  0.2863  0.1627  0.4724
51281SOL    HW160958   7.944   6.154   8.472  0.2039  0.3639  0.4247
51281SOL    HW260959   8.016   6.170   8.605  0.2531 -2.1184  0.7577
51282SOL     OW60960   3.182   4.886  12.377 -0.2233 -0.0189 -0.3557
51282SOL    HW160961   3.197   4.797  12.345  0.2549 -0.3845  0.8181
51282SOL    HW260962   3.134   4.874  12.459 -1.7944  0.9050 -1.1088
51283SOL     OW60963   3.412   5.807  10.008 -0.3801 -0.0735 -0.2062
51283SOL    HW160964   3.474   5.862  10.055 -1.5042  1.5904 -0.5967
51283SOL    HW260965   3.454   5.791   9.923 -0.1334  0.3750 -0.1700
51284SOL     OW60966   8.191   4.754  12.105  0.5642  0.1739  0.1969
51284SOL    HW160967   8.232   4.746  12.019  0.1949  1.5812 -0.1463
51284SOL    HW260968   8.258   4.728  12.167  1.6219  1.3680 -0.4066
51285SOL     OW60969   0.028  10.252   1.432 -0.2138  0.1215  0.8173
51285SOL    HW160970  -0.059  10.292   1.429 -0.4289 -0.3409  0.7561
51285SOL    HW260971   0.011  10.158   1.431  0.3700 -0.0140 -1.7691
51286SOL     OW60972   0.485   7.107   2.886  0.4660 -0.4909  0.2561
51286SOL    HW160973   0.406   7.148   2.923  0.6564  1.4827 -1.3295
51286SOL    HW260974   0.553   7.174   2.895  1.2380 -1.0843 -0.9268
51287SOL     OW60975   0.328  12.076   8.538  0.1854 -0.3799 -0.1681
51287SOL    HW160976   0.278  12.149   8.502  0.2875 -0.4358 -0.4284
51287SOL    HW260977   0.349  12.021   8.463 -1.6849 -1.8134  0.2729
51288SOL     OW60978   2.688   6.050  10.838  0.1532  0.9054  0.3139
51288SOL    HW160979   2.756   5.993  10.874 -1.9336 -2.2575 -0.3770
51288SOL    HW260980   2.627   6.064  10.910 -0.5373  0.3013 -0.1461
51289SOL     OW60981  12.430   2.194   0.086 -0.4315  0.0461  0.0497
51289SOL    HW160982  12.393   2.122   0.137 -2.1661 -0.0513 -1.2746
51289SOL    HW260983  12.523   2.173   0.080 -0.4204 -0.6837  1.8923
51290SOL     OW60984  11.203   5.086   4.903 -0.4251  0.7467  0.8242
51290SOL    HW160985  11.280   5.029   4.910 -1.9888 -1.4072  1.5797
51290SOL    HW260986  11.218   5.137   4.824  0.4459 -1.7455 -0.7206
51291SOL     OW60987  12.703   7.569   7.777 -0.1647 -0.9100  0.1244
51291SOL    HW160988  12.769   7.602   7.838  1.1387  0.2274 -1.7939
51291SOL    HW260989  12.633   7.536   7.833  0.2840  1.4055  2.2296
51292SOL     OW60990   3.496   4.614  11.352  0.2521  0.9025 -0.1465
51292SOL    HW160991   3.412   4.575  11.326  0.8760 -0.7007  0.1445
51292SOL    HW260992   3.542   4.629  11.270 -0.3815  2.0009 -0.3243
51293SOL     OW60993   6.804   8.191   3.000  0.1636 -0.1898  0.3344
51293SOL    HW160994   6.898   8.191   3.014  0.1044 -0.0065  0.7340
51293SOL    HW260995   6.786   8.272   2.953 -0.0246  0.7001  1.8677
51294SOL     OW60996   1.679   7.480   7.966 -0.5118 -0.5117  0.0852
51294SOL    HW160997   1.650   7.393   7.992 -3.2580  0.1029 -0.6161
51294SOL    HW260998   1.691   7.527   8.049  1.3472 -1.5898  0.4811
51295SOL     OW60999  12.222   2.104   6.452 -0.2107  0.0424  0.4405
51295SOL    HW161000  12.269   2.076   6.530 -1.2020 -0.9725  0.7104
51295SOL    HW261001  12.273   2.070   6.379  0.3070  0.3240  0.6689
51296SOL     OW61002  10.121   9.431   1.480 -0.0589 -0.4004  0.4564
51296SOL    HW161003  10.054   9.404   1.417 -0.9593 -1.2342  1.7153
51296SOL    HW261004  10.115   9.526   1.483  0.1813 -0.3150 -0.8747
51297SOL     OW61005  12.167  12.505   2.268 -0.5129 -0.3539 -0.0152
51297SOL    HW161006  12.164  12.487   2.362  0.1423 -0.6768 -0.0506
51297SOL    HW261007  12.081  12.541   2.248  0.0481  1.8222  1.1236
51298SOL     OW61008   8.965   9.565   1.290 -0.0109  0.1762  0.6492
51298SOL    HW161009   8.968   9.661   1.293 -0.6469  0.3443 -1.7923
51298SOL    HW261010   8.964   9.538   1.382  1.7416  2.4323  1.4146
51299SOL     OW61011  12.655  11.496  12.620  0.0976  0.0611  0.4225
51299SOL    HW161012  12.659  11.424  12.558 -0.2892  0.7714 -0.4366
51299SOL    HW261013  12.714  11.469  12.691  0.7823 -0.6233 -0.3836
51300SOL     OW61014  11.987   8.237   6.681 -0.1937 -0.0555 -0.5522
51300SOL    HW161015  11.945   8.322   6.691  1.1046  0.5170  0.4526
51300SOL    HW261016  11.973   8.193   6.765  0.7818 -0.0331 -0.3630
51301SOL     OW61017   3.131   1.834   5.021  0.5475  0.2128  0.3194
51301SOL    HW161018   3.186   1.878   5.086 -1.2952  0.1547  2.0221
51301SOL    HW261019   3.093   1.760   5.067 -2.5198  1.3945 -0.0581
51302SOL     OW61020   5.668   6.397   4.155  0.0771  0.2611  0.7248
51302SOL    HW161021   5.592   6.448   4.126 -1.2037 -2.2392 -0.6697
51302SOL    HW261022   5.641   6.359   4.239  0.3219  0.4097  0.8742
51303SOL     OW61023   9.119   0.578   3.805 -0.3615  0.1319  0.1683
51303SOL    HW161024   9.149   0.606   3.891  0.1126  0.3805 -0.0771
51303SOL    HW261025   9.171   0.629   3.743 -1.0075  0.2708 -0.2640
51304SOL     OW61026   7.883  10.193   2.464 -0.6063  0.2716 -0.2334
51304SOL    HW161027   7.861  10.103   2.442 -1.0895  0.0977  0.8633
51304SOL    HW261028   7.863  10.200   2.558  0.5444  1.1832 -0.0379
51305SOL     OW61029  11.871  11.703   8.833 -0.3490  0.1552 -0.0590
51305SOL    HW161030  11.821  11.643   8.779  0.3792  0.3724 -1.0102
51305SOL    HW261031  11.811  11.728   8.904 -1.9047  1.0819 -1.6195
51306SOL     OW61032   6.634  12.738   9.398 -0.7611  0.4028  0.1880
51306SOL    HW161033   6.724  12.767   9.405 -0.0419 -1.8029  1.1323
51306SOL    HW261034   6.606  12.766   9.311  1.4492 -0.3736 -0.8490
51307SOL     OW61035   5.892   2.918   0.827  0.0199 -0.0394 -0.2500
51307SOL    HW161036   5.936   2.902   0.910  0.8048 -2.6016 -1.0608
51307SOL    HW261037   5.838   2.996   0.842  1.6042  0.7085  2.0407
51308SOL     OW61038   7.343  11.552   1.200  0.5035 -0.2816  0.1379
51308SOL    HW161039   7.309  11.590   1.119 -0.3707  1.1011  1.1030
51308SOL    HW261040   7.408  11.615   1.230  0.5342 -0.5857  0.7135
51309SOL     OW61041   7.347   1.413   5.427  0.1952  0.0268  0.0741
51309SOL    HW161042   7.276   1.356   5.397 -0.5229  1.2919 -0.7725
51309SOL    HW261043   7.401   1.425   5.349 -0.5893  1.7854 -0.2456
51310SOL     OW61044   0.213   1.675   5.172 -0.3495  0.3880  0.3788
51310SOL    HW161045   0.188   1.766   5.152 -1.1625  0.1798  0.3978
51310SOL    HW261046   0.135   1.624   5.151  0.4631 -0.4548 -0.6943
51311SOL     OW61047   5.968  11.761   0.118  0.1717  0.1066  0.3842
51311SOL    HW161048   5.889  11.778   0.066 -0.6953 -0.3675  1.4956
51311SOL    HW261049   5.935  11.744   0.206  1.4109 -1.5585  0.5691
51312SOL     OW61050   2.235   2.204  11.322  0.2045  0.0930  0.1083
51312SOL    HW161051   2.196   2.129  11.277  2.4455  0.4200 -2.6236
51312SOL    HW261052   2.254   2.171  11.410 -0.1258 -2.1302 -0.5890
51313SOL     OW61053   3.462   5.920   7.142  0.0864 -0.0113  0.1175
51313SOL    HW161054   3.369   5.942   7.146  0.1957  0.6269 -0.6731
51313SOL    HW261055   3.466   5.838   7.092  0.0500  0.7663 -1.2157
51314SOL     OW61056   4.477   8.899   3.101 -0.0365 -0.6181 -0.0485
51314SOL    HW161057   4.456   8.949   3.180 -1.2021 -0.9674 -0.1253
51314SOL    HW261058   4.505   8.965   3.038 -2.1346  0.0502 -0.3487
51315SOL     OW61059   4.196  10.093   7.804  0.9485 -0.6619 -0.4089
51315SOL    HW161060   4.197  10.070   7.896  0.7897  0.3371 -0.1399
51315SOL    HW261061   4.259  10.165   7.796  0.2435 -0.0676 -0.8767
51316SOL     OW61062   1.640   0.261  12.086 -0.1527 -0.6659  0.0518
51316SOL    HW161063   1.594   0.181  12.113 -0.1853 -1.0247 -1.0215
51316SOL    HW261064   1.573   0.330  12.092 -0.2197 -0.7768  0.6387
51317SOL     OW61065  12.118   7.708  10.818  0.1215  0.6013  0.0533
51317SOL    HW161066  12.118   7.620  10.856 -0.6369  0.3859 -0.4240
51317SOL    HW261067  12.101   7.766  10.892  1.1210  0.4018  0.4613
51318SOL     OW61068   3.232   4.367   5.154  0.1006  0.0127  0.5949
51318SOL    HW161069   3.158   4.380   5.096  0.3448  0.2576  0.3355
51318SOL    HW261070   3.284   4.298   5.113  0.2713  0.1835  0.5249
51319SOL     OW61071   6.786  12.640   0.302  0.2368  0.5598  0.2315
51319SOL    HW161072   6.737  12.563   0.331  0.4953  0.3863  0.2101
51319SOL    HW261073   6.743  12.713   0.346  0.8591  0.2679  1.3783
51320SOL     OW61074   5.033  11.440   1.647  0.3670 -0.3296  0.0952
51320SOL    HW161075   5.060  11.505   1.583  1.0011  0.3898  1.0616
51320SOL    HW261076   4.984  11.490   1.713  0.3346 -0.9355  0.5407
51321SOL     OW61077   6.432   3.299   3.879  0.0468 -0.2959  0.0482
51321SOL    HW161078   6.490   3.280   3.805 -1.4606  0.8253 -1.4992
51321SOL    HW261079   6.402   3.213   3.910 -0.2372 -0.7596 -1.4562
51322SOL     OW61080   3.467   7.156   6.258 -0.1405  0.1661 -0.6185
51322SOL    HW161081   3.427   7.150   6.171  0.7797  0.0067 -1.0481
51322SOL    HW261082   3.511   7.241   6.258  1.1425 -0.4618 -0.9003
51323SOL     OW61083   5.665   3.926   1.116  0.2213  0.4311  0.0463
51323SOL    HW161084   5.646   3.835   1.092 -0.6261  0.7931 -0.7664
51323SOL    HW261085   5.741   3.950   1.063  0.2973  0.2684  0.0814
51324SOL     OW61086  12.046  12.191   2.223 -0.4008 -0.0502  0.1967
51324SOL    HW161087  12.136  12.189   2.257 -0.7452  0.8446  1.2257
51324SOL    HW261088  11.991  12.191   2.301 -1.3485 -1.4961 -0.4356
51325SOL     OW61089  11.501   5.384   8.178  0.0102  0.3813  0.2034
51325SOL    HW161090  11.414   5.344   8.178  0.6391 -1.0559 -0.2412
51325SOL    HW261091  11.486   5.475   8.150 -1.4251  0.3983  0.9360
51326SOL     OW61092   6.610   9.656  12.415  0.2433 -0.1453 -0.0047
51326SOL    HW161093   6.555   9.599  12.361  1.2808 -0.1934 -1.0370
51326SOL    HW261094   6.549   9.723  12.449 -1.1509 -2.1453  1.7531
51327SOL     OW61095   0.156   6.500   7.796  0.1256  0.2960  0.2488
51327SOL    HW161096   0.092   6.429   7.793 -1.6877  1.8600 -0.1527
51327SOL    HW261097   0.142   6.541   7.882  2.8592 -1.2314  1.5567
51328SOL     OW61098   6.088   7.683   2.896  0.7502 -0.1762  0.0617
51328SOL    HW161099   6.162   7.624   2.912  0.4911 -0.4984  0.0798
51328SOL    HW261100   6.020   7.651   2.955  0.2751 -0.4654 -0.6306
51329SOL     OW61101  11.442  10.971  11.858  0.2901  0.2829 -0.5242
51329SOL    HW161102  11.401  10.890  11.888  0.9842  0.2190  0.2968
51329SOL    HW261103  11.440  10.964  11.762 -0.2646 -0.3934 -0.4723
51330SOL     OW61104  12.969  10.528   1.111  0.6269  0.5498  0.4314
51330SOL    HW161105  13.034  10.534   1.181  2.1081  1.5299 -0.9731
51330SOL    HW261106  12.885  10.523   1.157  1.1215  5.2045  2.3778
51331SOL     OW61107  11.842   0.608   8.463  0.1353  0.2889  0.2427
51331SOL    HW161108  11.839   0.595   8.368 -0.7491  0.9327  0.1778
51331SOL    HW261109  11.768   0.665   8.482  1.5809  1.9887  1.0206
51332SOL     OW61110   8.963   9.009   8.992 -0.5297  0.7453  0.3931
51332SOL    HW161111   9.043   9.045   9.030 -0.4036  0.4320  0.4215
51332SOL    HW261112   8.989   8.982   8.904 -0.4437  0.0391  0.6316
51333SOL     OW61113  10.049   4.450   5.567 -0.1652  0.2898 -0.1072
51333SOL    HW161114   9.998   4.434   5.487 -0.1792  1.1471 -0.2888
51333SOL    HW261115  10.081   4.540   5.556 -1.9923  1.2515  1.8308
51334SOL     OW61116  10.330   8.304  11.187 -0.8460  0.3087 -0.0448
51334SOL    HW161117  10.425   8.307  11.181 -0.8121  0.2512  0.4566
51334SOL    HW261118  10.303   8.396  11.191 -0.8138  0.3245 -0.1850
51335SOL     OW61119   5.721   8.540  10.292  0.4464  0.1621 -0.1877
51335SOL    HW161120   5.816   8.547  10.293  0.4475  0.8165  2.4511
51335SOL    HW261121   5.700   8.490  10.371 -1.3849 -0.6814 -1.1410
51336SOL     OW61122   5.909  12.940   8.041  0.3778 -0.0621  0.5883
51336SOL    HW161123   5.932  12.859   7.995  1.5622  0.2359  0.6145
51336SOL    HW261124   5.815  12.948   8.031  0.4023 -0.8629 -0.3741
51337SOL     OW61125   5.111  10.283   4.610  0.0626 -0.3428  0.9316
51337SOL    HW161126   5.165  10.347   4.655  1.6840 -1.1234  0.1817
51337SOL    HW261127   5.162  10.258   4.533 -1.0073 -1.7285  0.6197
51338SOL     OW61128  11.531  10.984   2.988  0.0709 -0.1475  0.6971
51338SOL    HW161129  11.625  10.976   2.973 -0.4328 -0.7986 -3.3728
51338SOL    HW261130  11.514  11.078   2.981  0.3540 -0.1014  0.6108
51339SOL     OW61131   7.360  10.594   3.597  0.0827  0.0620 -0.4920
51339SOL    HW161132   7.324  10.552   3.675 -0.3341  1.7449  0.2555
51339SOL    HW261133   7.394  10.521   3.545  0.1428 -1.1350  1.1276
51340SOL     OW61134   4.656   1.935   5.200  0.4024  0.6195 -0.1780
51340SOL    HW161135   4.587   1.909   5.261  1.0547 -1.8305 -0.3430
51340SOL    HW261136   4.737   1.903   5.241  0.8495 -1.3045 -2.3100
51341SOL     OW61137  10.167   6.371   2.789  0.4975  0.0881  0.4117
51341SOL    HW161138  10.167   6.322   2.872  1.4371 -0.9205 -0.1520
51341SOL    HW261139  10.260   6.388   2.772  0.3029  0.3840 -0.3823
51342SOL     OW61140   8.459   5.306   1.689  0.4642  0.3774  0.1067
51342SOL    HW161141   8.447   5.320   1.594 -1.2443  0.4844  0.2987
51342SOL    HW261142   8.432   5.216   1.703  0.3233  0.4884  0.5470
51343SOL     OW61143   1.053  12.334   3.386 -0.0442 -0.6450  0.3975
51343SOL    HW161144   0.972  12.328   3.437 -0.5677 -0.7553 -0.4272
51343SOL    HW261145   1.047  12.419   3.342  1.0432  0.0619  1.5675
51344SOL     OW61146   9.480  11.391   5.008 -0.0911 -0.2285 -0.2024
51344SOL    HW161147   9.566  11.392   4.966  0.4935  1.3624  0.9284
51344SOL    HW261148   9.421  11.432   4.944  0.5108  0.9038 -0.0589
51345SOL     OW61149   0.679   8.170   1.080 -0.5158  0.4729  0.1093
51345SOL    HW161150   0.631   8.097   1.118  1.6883 -1.3874 -0.4396
51345SOL    HW261151   0.689   8.147   0.988  0.4288  1.3137 -0.0207
51346SOL     OW61152  12.521  12.388  11.753 -0.3869  0.3037  0.2498
51346SOL    HW161153  12.488  12.298  11.755  0.7355 -0.1440 -0.5621
51346SOL    HW261154  12.475  12.431  11.825 -1.7158 -0.6321  0.0111
51347SOL     OW61155  12.494   6.971  10.709  0.0672 -0.1933 -0.1396
51347SOL    HW161156  12.554   6.910  10.752  0.4807  1.6954  2.2128
51347SOL    HW261157  12.547   7.048  10.690 -1.3566  1.2247  1.2900
51348SOL     OW61158   4.070  11.882   5.684 -0.4765  0.1008 -0.4604
51348SOL    HW161159   4.109  11.799   5.709  0.0136  0.2718 -0.6639
51348SOL    HW261160   4.103  11.945   5.748  0.5088  0.4736 -1.3162
51349SOL     OW61161   3.494  12.812   3.825 -0.3414  0.5654 -0.6535
51349SOL    HW161162   3.531  12.891   3.786  1.6746 -0.2737 -0.5417
51349SOL    HW261163   3.519  12.817   3.917  0.2933 -0.4550 -0.7613
51350SOL     OW61164   9.278   9.284   0.127  0.0553  0.6671  0.3759
51350SOL    HW161165   9.238   9.371   0.140  1.7407  1.2793  1.8293
51350SOL    HW261166   9.369   9.303   0.107  0.3069 -0.7730  0.1000
51351SOL     OW61167  11.505   0.466   0.597  0.2340 -0.0804  0.3188
51351SOL    HW161168  11.571   0.505   0.540 -0.2848  0.4800  0.0848
51351SOL    HW261169  11.538   0.378   0.616  1.4272  0.4526  0.8336
51352SOL     OW61170  11.582   5.237   4.788 -0.5805  0.4462  0.3980
51352SOL    HW161171  11.490   5.261   4.779 -1.0915 -0.9085  1.6338
51352SOL    HW261172  11.582   5.141   4.787  0.8226  0.4308  0.3155
51353SOL     OW61173   0.461   9.351   0.757 -0.1397  0.1413 -0.5017
51353SOL    HW161174   0.401   9.415   0.797 -0.3969 -0.4815  0.1193
51353SOL    HW261175   0.534   9.345   0.818 -0.2994 -0.4489 -0.3711
51354SOL     OW61176   6.021  11.429   4.089  0.1791  0.0743  0.2911
51354SOL    HW161177   5.956  11.387   4.145 -0.9515 -0.6404 -1.4587
51354SOL    HW261178   6.097  11.443   4.146 -1.0225 -0.2898  2.0550
51355SOL     OW61179  11.755   9.741  10.975 -0.2021  0.6784 -0.4853
51355SOL    HW161180  11.804   9.659  10.983 -2.1641 -0.4065  1.2536
51355SOL    HW261181  11.669   9.722  11.013 -0.9481  3.3697 -0.6168
51356SOL     OW61182  12.276   5.684   9.025 -0.3932  0.1648 -0.3114
51356SOL    HW161183  12.331   5.759   9.046  2.7063 -1.9825 -0.1793
51356SOL    HW261184  12.197   5.697   9.078  0.1570  3.1083 -0.0464
51357SOL     OW61185   0.562   5.198  11.355  0.0134 -0.4554 -0.0025
51357SOL    HW161186   0.495   5.145  11.312  0.5749 -0.3239 -1.0883
51357SOL    HW261187   0.522   5.284  11.364  0.0551 -0.3481 -0.7425
51358SOL     OW61188   4.023   1.170   0.155 -0.3955 -0.4409 -0.3024
51358SOL    HW161189   4.085   1.102   0.130 -0.0373  0.2871 -1.4361
51358SOL    HW261190   3.942   1.147   0.110 -0.8853 -1.1971  0.9009
51359SOL     OW61191   3.156   4.437   5.733  0.1998 -0.2506 -0.3183
51359SOL    HW161192   3.251   4.440   5.741  0.1671 -0.4851  0.2139
51359SOL    HW261193   3.134   4.511   5.676  0.7149 -0.3266 -0.6253
51360SOL     OW61194   1.038   4.914   8.355 -0.4775  0.4454  0.9221
51360SOL    HW161195   0.989   4.859   8.415  1.4224 -1.3278  0.9593
51360SOL    HW261196   1.118   4.865   8.337 -0.0892  1.8002 -1.5448
51361SOL     OW61197   1.165   5.664   6.987  0.0999  0.4354 -0.4019
51361SOL    HW161198   1.093   5.655   7.049 -0.0991  2.3802 -0.2708
51361SOL    HW261199   1.129   5.720   6.918  0.6783 -0.7568 -1.7138
51362SOL     OW61200   0.053   9.432  10.737 -0.3775  0.3632  0.2119
51362SOL    HW161201   0.062   9.353  10.791  2.3368  0.7086  0.4037
51362SOL    HW261202   0.121   9.491  10.769 -0.5706  1.7156 -1.7059
51363SOL     OW61203  12.959  10.385   7.734 -0.3581  0.1819 -0.3251
51363SOL    HW161204  12.873  10.413   7.763 -0.0763  0.3631  0.3552
51363SOL    HW261205  13.020  10.438   7.785  0.1602 -0.5108 -0.2088
51364SOL     OW61206   0.511   4.941   5.018  0.4414 -0.3116 -0.6703
51364SOL    HW161207   0.482   4.859   4.978  0.7767 -0.8786  0.2084
51364SOL    HW261208   0.529   4.999   4.944 -0.4859 -0.7869 -1.2848
51365SOL     OW61209  10.315  12.237   3.537  0.1427 -0.3484  0.0688
51365SOL    HW161210  10.370  12.159   3.529 -0.8446 -1.2172  1.4537
51365SOL    HW261211  10.252  12.229   3.466  0.6357 -0.2983 -0.3838
51366SOL     OW61212   2.284   4.100   8.826 -0.7020 -0.1966 -0.2744
51366SOL    HW161213   2.379   4.108   8.822 -0.3409 -2.3369  1.7536
51366SOL    HW261214   2.260   4.053   8.746 -0.0192  0.0623 -0.6377
51367SOL     OW61215   0.401   2.407   9.592  0.4360  0.5000 -0.4803
51367SOL    HW161216   0.426   2.318   9.613 -0.3804 -0.1334 -2.0522
51367SOL    HW261217   0.420   2.417   9.499 -0.1923  1.7109 -0.5099
51368SOL     OW61218   0.325   4.779   0.825 -0.0695  0.1635 -0.5370
51368SOL    HW161219   0.299   4.829   0.903  0.5611 -0.0035 -0.2084
51368SOL    HW261220   0.295   4.831   0.751  1.1528  1.3800 -0.2221
51369SOL     OW61221   8.487   5.548   0.333  0.1343 -0.1104  0.3135
51369SOL    HW161222   8.469   5.582   0.420  1.4821 -0.7765  0.8750
51369SOL    HW261223   8.582   5.540   0.329  0.1933  0.8359 -1.5791
51370SOL     OW61224   1.886   2.862   4.371  0.1194 -0.2764  0.4738
51370SOL    HW161225   1.818   2.928   4.381  0.2923 -0.1605  0.8915
51370SOL    HW261226   1.842   2.779   4.386 -0.7930 -0.5696 -2.9192
51371SOL     OW61227   4.078   4.297   1.152  0.6682  0.3503  0.1334
51371SOL    HW161228   4.021   4.351   1.098  0.7595 -1.9523 -2.4640
51371SOL    HW261229   4.022   4.227   1.184  1.2449  0.1651  0.7717
51372SOL     OW61230   3.641   1.874   3.151  0.5887  0.6100 -0.1358
51372SOL    HW161231   3.615   1.860   3.241  1.6384 -1.9381 -0.1435
51372SOL    HW261232   3.680   1.962   3.150 -2.1749  1.9541  1.1355
51373SOL     OW61233   1.706   4.424  10.039 -0.0730  0.5967  0.4876
51373SOL    HW161234   1.725   4.491  10.105  0.9348  1.1735 -0.3457
51373SOL    HW261235   1.694   4.473   9.958  0.1002 -0.1926 -0.0288
51374SOL     OW61236   7.710   0.696   3.113 -0.2221 -0.0190  0.2723
51374SOL    HW161237   7.738   0.662   3.028 -0.2644 -0.8990  0.6036
51374SOL    HW261238   7.779   0.669   3.174 -1.1412 -1.1371  0.8685
51375SOL     OW61239   1.644  11.590   6.226 -0.3852 -0.1372 -0.0656
51375SOL    HW161240   1.657  11.574   6.133 -2.2176 -1.5286 -0.1253
51375SOL    HW261241   1.560  11.549   6.247  0.1486 -0.2067  2.2875
51376SOL     OW61242   8.470   6.027  11.686  0.0740 -0.4964 -0.5580
51376SOL    HW161243   8.545   5.990  11.641 -0.4411 -1.6541 -0.4999
51376SOL    HW261244   8.394   5.984  11.647 -0.4079 -1.3485  1.1879
51377SOL     OW61245   7.985   8.099  12.891  0.2463 -0.2803 -0.0442
51377SOL    HW161246   8.009   8.146  12.971 -0.0664  0.0791 -0.1584
51377SOL    HW261247   8.001   8.162  12.821 -2.2995  0.4911 -0.0236
51378SOL     OW61248   5.256   7.021   4.434  0.3167 -0.2255 -0.6812
51378SOL    HW161249   5.317   6.992   4.367  1.7113  0.2478  0.3277
51378SOL    HW261250   5.311   7.037   4.511 -1.1862 -0.5109  0.4980
51379SOL     OW61251   2.938   3.493   0.679  0.4828 -0.4237 -0.1218
51379SOL    HW161252   3.031   3.497   0.699  0.4999 -1.6168  0.1217
51379SOL    HW261253   2.919   3.399   0.671 -0.4057 -0.1553 -1.5723
51380SOL     OW61254  12.756   1.853   9.535 -0.1973  0.0321 -0.4232
51380SOL    HW161255  12.778   1.926   9.478  0.0567 -1.1934 -1.9454
51380SOL    HW261256  12.840   1.827   9.574 -0.6665  2.3627  2.4949
51381SOL     OW61257  10.004   1.265   8.777  0.6716 -0.0252  0.4449
51381SOL    HW161258   9.998   1.169   8.775  0.4155 -0.0154  0.6100
51381SOL    HW261259  10.063   1.284   8.850  0.4088 -0.0515  0.6711
51382SOL     OW61260  11.982  11.336   6.773  0.0119  0.2498  0.0032
51382SOL    HW161261  12.030  11.411   6.735  0.9943  0.7086  2.0391
51382SOL    HW261262  11.925  11.375   6.839  0.5949 -0.7741  1.1584
51383SOL     OW61263  12.482  11.075   3.746  0.1633  0.2512 -0.0632
51383SOL    HW161264  12.486  11.005   3.811 -0.6799 -0.2800 -0.5555
51383SOL    HW261265  12.495  11.031   3.662  0.5534  0.8267 -0.3120
51384SOL     OW61266  12.391   5.894  10.784  0.0871  0.3467 -0.1518
51384SOL    HW161267  12.422   5.976  10.745 -2.0378  1.4676  0.3875
51384SOL    HW261268  12.426   5.895  10.873  0.3639  0.4991 -0.2612
51385SOL     OW61269   2.183   4.671   0.616 -0.0796 -0.3812  0.7042
51385SOL    HW161270   2.159   4.578   0.615 -0.2950 -0.3383  1.1568
51385SOL    HW261271   2.100   4.717   0.629 -0.2135 -0.0136 -1.2556
51386SOL     OW61272   2.810   0.347   2.073  0.1978 -0.6330 -0.4208
51386SOL    HW161273   2.721   0.344   2.037  0.3054  2.0163 -1.0756
51386SOL    HW261274   2.798   0.359   2.167 -0.1746  0.3707 -0.5853
51387SOL     OW61275   3.852   0.725   4.617  0.6336 -0.3516 -0.0494
51387SOL    HW161276   3.903   0.688   4.689  0.5571  1.5566  1.0399
51387SOL    HW261277   3.795   0.790   4.659 -3.5110 -3.0046 -1.0033
51388SOL     OW61278   8.338  10.488   4.649  0.0516  0.0414  0.6190
51388SOL    HW161279   8.378  10.557   4.596 -2.7492  1.4327  0.1250
51388SOL    HW261280   8.284  10.438   4.587  0.1882 -1.1141  1.3970
51389SOL     OW61281   4.917   2.308   6.304 -0.5805  0.2451 -0.4203
51389SOL    HW161282   4.984   2.251   6.267 -1.0667  0.3928 -1.5623
51389SOL    HW261283   4.903   2.275   6.393  0.6855 -0.0491 -0.3207
51390SOL     OW61284  10.212   2.377   0.888  0.0460  0.3867 -0.1092
51390SOL    HW161285  10.280   2.443   0.904  0.9616 -0.3625 -0.8098
51390SOL    HW261286  10.221   2.315   0.961 -0.9976  1.1446  0.7037
51391SOL     OW61287   3.328  10.533  10.936  0.2808  0.6455  0.0818
51391SOL    HW161288   3.320  10.598  10.866  1.0784  2.6615  1.7607
51391SOL    HW261289   3.420  10.537  10.963 -0.0725  0.1900  1.4785
51392SOL     OW61290   3.338   8.476   5.972 -0.1194  0.2983  0.0399
51392SOL    HW161291   3.386   8.548   5.930  0.6598 -0.0185  0.3656
51392SOL    HW261292   3.253   8.476   5.928  0.9644 -0.6082 -2.2332
51393SOL     OW61293   0.435   2.999  12.240  0.3068 -0.6396  0.6535
51393SOL    HW161294   0.367   3.029  12.181  0.8088  0.5199  0.6485
51393SOL    HW261295   0.401   2.917  12.277  0.5547 -2.1573 -2.2254
51394SOL     OW61296   9.162   1.424   8.626 -0.4285 -0.3606  0.7428
51394SOL    HW161297   9.217   1.501   8.639  0.1255 -0.3856 -1.1952
51394SOL    HW261298   9.219   1.359   8.586 -1.3662 -1.0888  0.5415
51395SOL     OW61299   2.219   7.402   1.667  0.0943  0.4540  0.4480
51395SOL    HW161300   2.227   7.320   1.619 -0.0790  0.6440  0.0970
51395SOL    HW261301   2.309   7.434   1.675  0.0645  0.7623 -0.3457
51396SOL     OW61302  11.439   1.753   0.972 -0.7061 -0.5073 -0.3160
51396SOL    HW161303  11.344   1.758   0.962 -0.7059  1.2473  0.2057
51396SOL    HW261304  11.455   1.665   1.007 -2.2385 -0.4881  0.5092
51397SOL     OW61305   7.136   0.195   5.728 -0.8855 -0.2489  0.2552
51397SOL    HW161306   7.147   0.287   5.751  0.2572  0.0538 -1.3668
51397SOL    HW261307   7.087   0.196   5.646  0.0675 -1.0142 -0.3499
51398SOL     OW61308   9.765   7.744   4.408  0.9542 -0.3922  0.2712
51398SOL    HW161309   9.775   7.663   4.358  2.4142  0.2427 -0.5532
51398SOL    HW261310   9.675   7.773   4.391  1.6105  0.2051 -2.7065
51399SOL     OW61311   1.154   2.584  12.133  0.1239 -0.9055 -0.1356
51399SOL    HW161312   1.156   2.532  12.052 -0.8084 -1.2688  0.0696
51399SOL    HW261313   1.062   2.609  12.144  0.2032 -1.0446  0.9348
51400SOL     OW61314   6.456   9.160   7.314  0.2989 -0.3437  0.2860
51400SOL    HW161315   6.523   9.092   7.324  1.0809  0.5781  1.6508
51400SOL    HW261316   6.386   9.117   7.266  1.6309 -1.4997 -0.6988
51401SOL     OW61317  10.128  10.790   6.222 -0.4221  0.0547 -0.2021
51401SOL    HW161318  10.166  10.783   6.135  0.6817  0.1669  0.2437
51401SOL    HW261319  10.194  10.840   6.272 -0.0669 -1.7481  1.2170
51402SOL     OW61320   7.245   3.337   0.048  0.3316 -0.0985 -0.1741
51402SOL    HW161321   7.279   3.249   0.062 -0.2493 -0.3173 -0.1030
51402SOL    HW261322   7.320   3.395   0.061  0.4722 -0.5036  0.8391
51403SOL     OW61323   4.536   2.315   6.346  0.5761 -0.3643  0.5813
51403SOL    HW161324   4.468   2.261   6.306  0.5273 -0.5432  0.8984
51403SOL    HW261325   4.611   2.307   6.287 -0.9493  3.4128 -2.2931
51404SOL     OW61326  12.190   0.325   3.442  0.4917  0.8110 -0.4292
51404SOL    HW161327  12.216   0.415   3.458 -1.7075  1.1976  1.5629
51404SOL    HW261328  12.103   0.332   3.402  0.5858 -0.4342 -0.9101
51405SOL     OW61329   1.161   8.671   5.625 -0.4401 -0.3399  0.4593
51405SOL    HW161330   1.235   8.715   5.584 -0.6810 -1.3631 -1.1584
51405SOL    HW261331   1.096   8.662   5.556 -0.5332 -2.8854  0.7559
51406SOL     OW61332   8.805   7.704  10.421 -0.0804  0.2965 -0.1302
51406SOL    HW161333   8.758   7.672  10.498  1.9995  0.5597  1.3176
51406SOL    HW261334   8.871   7.637  10.404 -0.3515  0.3605 -1.5891
51407SOL     OW61335  12.766  11.043  12.350 -0.8219 -0.1112  0.4314
51407SOL    HW161336  12.689  11.021  12.296  0.4291 -1.6422 -0.8431
51407SOL    HW261337  12.821  10.965  12.345  1.5324  1.4835  0.0068
51408SOL     OW61338  11.515   6.135   3.583 -0.4621  0.1253 -0.1886
51408SOL    HW161339  11.540   6.054   3.539 -0.2543 -0.1874  0.4955
51408SOL    HW261340  11.506   6.199   3.512  0.9814 -0.0768 -0.5838
51409SOL     OW61341   2.260   7.136   9.170 -0.4112  0.4073  0.0555
51409SOL    HW161342   2.295   7.221   9.197  0.8880 -0.2797  0.6198
51409SOL    HW261343   2.335   7.077   9.174 -1.3334 -0.8144 -0.1351
51410SOL     OW61344   5.201  11.833   6.101  0.4061 -0.0681  0.5306
51410SOL    HW161345   5.192  11.884   6.020 -0.5934  1.5338  1.5913
51410SOL    HW261346   5.113  11.802   6.121  0.4409  0.4400  1.5433
51411SOL     OW61347   6.464   8.864   3.126  0.5134  0.0514 -0.2144
51411SOL    HW161348   6.547   8.894   3.089  0.1296 -0.8139 -1.8780
51411SOL    HW261349   6.405   8.859   3.052 -0.9712  0.3973  0.9019
51412SOL     OW61350   5.746   1.255   9.247  0.7439  0.1709  0.5586
51412SOL    HW161351   5.679   1.226   9.309  0.4962 -0.5217 -0.0287
51412SOL    HW261352   5.818   1.286   9.303 -0.0913  1.0239  1.1998
51413SOL     OW61353   8.341   3.599   0.640 -0.3325 -0.0910 -0.4173
51413SOL    HW161354   8.328   3.540   0.565  0.4494 -0.0984 -0.5597
51413SOL    HW261355   8.430   3.633   0.628 -0.2711  0.0554  0.4113
51414SOL     OW61356   0.768   6.660   1.461 -0.2023 -0.5249 -0.1253
51414SOL    HW161357   0.675   6.664   1.482 -0.2659 -1.4022 -0.2029
51414SOL    HW261358   0.793   6.751   1.446 -1.1166 -0.3116 -0.4086
51415SOL     OW61359   0.240  10.540   8.386  0.0395 -0.7328 -0.4524
51415SOL    HW161360   0.222  10.577   8.472  0.9170 -0.6612 -0.2937
51415SOL    HW261361   0.198  10.454   8.387  0.1021 -0.7561  0.0709
51416SOL     OW61362   2.439   3.213   9.731  0.0768 -1.1548  0.1022
51416SOL    HW161363   2.396   3.131   9.757  1.1329 -2.0440 -0.8446
51416SOL    HW261364   2.370   3.279   9.738 -0.1873 -1.5838  3.3897
51417SOL     OW61365   3.807   2.443   4.270  0.4933 -0.0308  0.5206
51417SOL    HW161366   3.778   2.480   4.353  0.4943  0.6874  0.2109
51417SOL    HW261367   3.747   2.371   4.253  0.5532 -0.2448  1.1876
51418SOL     OW61368   6.369   4.881   0.409  1.3649 -0.0062 -0.1350
51418SOL    HW161369   6.391   4.844   0.324  0.2884  0.1393 -0.4837
51418SOL    HW261370   6.454   4.907   0.446  1.9076 -0.7105 -0.8522
51419SOL     OW61371   5.473   9.102   4.472 -0.3018 -0.1936  0.2762
51419SOL    HW161372   5.466   9.162   4.397  0.2051 -0.5031 -0.0275
51419SOL    HW261373   5.567   9.101   4.492 -0.2651 -1.1223  0.0767
51420SOL     OW61374   4.618   1.298   7.143 -0.5319 -0.1720  0.4148
51420SOL    HW161375   4.527   1.278   7.165 -0.8357  1.1217  0.3996
51420SOL    HW261376   4.617   1.307   7.047  0.0017 -1.9581  0.2105
51421SOL     OW61377   5.336  10.915   7.436 -0.0808  0.3021 -0.6763
51421SOL    HW161378   5.425  10.932   7.405 -0.2758  0.6005 -1.0812
51421SOL    HW261379   5.321  10.981   7.503  0.4796 -0.5800  0.3594
51422SOL     OW61380   7.181  10.468   4.470 -0.2519  0.5193 -0.1915
51422SOL    HW161381   7.158  10.375   4.471  1.0262  0.1849  1.2332
51422SOL    HW261382   7.274  10.469   4.450 -0.0153  1.4258  0.8869
51423SOL     OW61383   6.190   1.752   4.923 -0.1558  0.1338 -0.1480
51423SOL    HW161384   6.224   1.663   4.910 -0.8839  0.0588 -1.8292
51423SOL    HW261385   6.267   1.808   4.911  0.4131 -0.2559  1.4167
51424SOL     OW61386  11.989  10.493   2.190  0.2082  0.3682  0.4473
51424SOL    HW161387  11.992  10.569   2.132  1.1712  1.2789  1.6515
51424SOL    HW261388  12.077  10.456   2.186  0.7844  1.4211  2.5692
51425SOL     OW61389   0.471  12.295   7.543 -0.1480  0.3685 -0.1819
51425SOL    HW161390   0.426  12.281   7.460  1.4511 -1.5019 -0.8049
51425SOL    HW261391   0.514  12.380   7.533  2.1047 -0.8881 -2.3750
51426SOL     OW61392   0.435   5.060   1.977 -0.4724 -0.0970 -0.0246
51426SOL    HW161393   0.462   5.152   1.974  0.6611 -0.4043  0.1898
51426SOL    HW261394   0.354   5.061   2.027  0.4747  0.5960  1.6095
51427SOL     OW61395   9.273  10.943   3.898 -0.5266 -0.4250  0.5633
51427SOL    HW161396   9.338  11.013   3.890 -0.0326 -0.9057  0.2880
51427SOL    HW261397   9.194  10.987   3.929 -0.5712  0.4409 -0.6961
51428SOL     OW61398   2.966  10.140   0.295 -0.1556 -0.2086 -0.0663
51428SOL    HW161399   2.935  10.159   0.206  2.0204 -1.1009 -1.1035
51428SOL    HW261400   2.928  10.209   0.349  0.2024  1.7048 -2.0864
51429SOL     OW61401   0.134   4.812   8.357 -0.1081  0.1928 -0.3582
51429SOL    HW161402   0.225   4.837   8.371 -0.3217  0.2801  0.9763
51429SOL    HW261403   0.084   4.867   8.418 -0.8894 -1.0123  0.1262
51430SOL     OW61404  12.238   2.429   5.955 -0.2770 -0.1032  0.6920
51430SOL    HW161405  12.262   2.394   6.041  0.0583  1.4834  1.2682
51430SOL    HW261406  12.192   2.510   5.975 -1.9155 -0.6754 -0.5779
51431SOL     OW61407   2.879   0.138  12.559  0.0272 -0.5898 -0.1765
51431SOL    HW161408   2.900   0.088  12.480  1.0898 -0.3021 -0.0937
51431SOL    HW261409   2.934   0.099  12.628 -0.8509 -0.8044  0.4204
51432SOL     OW61410  10.546   8.730   0.429 -0.0246 -0.8889 -0.0886
51432SOL    HW161411  10.479   8.726   0.361 -1.6575 -0.1278  1.4026
51432SOL    HW261412  10.565   8.639   0.451 -0.1679 -1.1171 -0.8739
51433SOL     OW61413   5.266   0.384   5.048 -0.1660 -0.5168  0.7042
51433SOL    HW161414   5.262   0.365   4.955 -1.8529 -1.1752  0.8834
51433SOL    HW261415   5.197   0.449   5.062  0.7396  0.3320  1.3359
51434SOL     OW61416   9.603  12.476   8.029  0.5127  0.0691  0.3779
51434SOL    HW161417   9.589  12.425   8.110  1.3185  2.0912  1.8620
51434SOL    HW261418   9.522  12.526   8.019  1.5002  2.0714  1.7061
51435SOL     OW61419   2.510   9.550   7.167 -0.0585  0.1181  0.1029
51435SOL    HW161420   2.525   9.583   7.256 -1.6599 -0.0865  0.4870
51435SOL    HW261421   2.465   9.622   7.122  1.3856  0.4975 -0.8003
51436SOL     OW61422  10.020   0.422   0.345 -0.5402 -0.6155  0.1514
51436SOL    HW161423  10.106   0.415   0.386 -0.2154  1.6102  0.0033
51436SOL    HW261424   9.975   0.490   0.395 -2.2926 -1.7991  0.2819
51437SOL     OW61425   4.767   9.262   4.141 -0.6730  0.0380  0.0996
51437SOL    HW161426   4.855   9.295   4.123 -0.1009 -0.8051  1.3104
51437SOL    HW261427   4.727   9.253   4.054  0.8631 -0.7842 -0.5461
51438SOL     OW61428  10.778   9.548   8.803  0.0324 -0.0832  0.0959
51438SOL    HW161429  10.733   9.467   8.780  1.1028 -0.0020 -2.7322
51438SOL    HW261430  10.857   9.547   8.749  0.5620  2.4189  0.6992
51439SOL     OW61431   5.529   2.824   2.824  0.5441  0.5858  0.4719
51439SOL    HW161432   5.559   2.827   2.915  0.6215  1.2877  0.4266
51439SOL    HW261433   5.609   2.823   2.772  0.4971  0.6739  0.3978
51440SOL     OW61434  11.018   2.916   7.170  0.2445 -0.5731  0.1567
51440SOL    HW161435  10.962   2.994   7.171 -0.2187 -0.8971 -0.1034
51440SOL    HW261436  11.030   2.897   7.077 -0.2870 -1.2604  0.2194
51441SOL     OW61437  12.287  11.588   7.179 -0.2042  0.5166  0.4144
51441SOL    HW161438  12.362  11.646   7.196 -0.8446  1.1770  1.0580
51441SOL    HW261439  12.256  11.563   7.266  0.7401 -1.7485  0.1702
51442SOL     OW61440   1.494   9.267  12.098 -0.4027 -0.0917  0.3047
51442SOL    HW161441   1.439   9.339  12.127  2.3096  2.0193  0.5365
51442SOL    HW261442   1.462   9.191  12.147 -2.8647  1.0479  0.6067
51443SOL     OW61443   5.091   6.766   6.575 -0.2214 -0.0116  0.4005
51443SOL    HW161444   5.148   6.796   6.646  0.4413  0.4741 -0.3225
51443SOL    HW261445   5.117   6.674   6.561  0.3190  0.1747  0.1476
51444SOL     OW61446   0.517   0.111   6.425 -0.5919 -0.0394  0.0211
51444SOL    HW161447   0.526   0.197   6.385 -0.2134 -0.4389 -0.7655
51444SOL    HW261448   0.588   0.106   6.489 -0.9390  0.4278  0.4603
51445SOL     OW61449   7.396   4.679  11.302 -0.4172  0.6386  0.5376
51445SOL    HW161450   7.375   4.587  11.314  3.4302 -0.3979  0.6616
51445SOL    HW261451   7.318   4.717  11.262 -2.3462 -2.5001  1.0094
51446SOL     OW61452   9.509  10.034   8.164  0.4760 -0.3207  0.6701
51446SOL    HW161453   9.441   9.997   8.108  1.9611 -0.0852 -1.4025
51446SOL    HW261454   9.563  10.086   8.105  2.3841 -0.3860  2.2512
51447SOL     OW61455  12.898   9.096   7.181  1.1230 -0.0552 -0.5827
51447SOL    HW161456  12.978   9.092   7.232  0.4684 -1.3925  0.3993
51447SOL    HW261457  12.915   9.040   7.105  0.5182 -1.9799  0.6092
51448SOL     OW61458   6.760  11.148   0.635  0.3104 -0.3086  0.0008
51448SOL    HW161459   6.767  11.153   0.540  0.7782  1.1264  0.0767
51448SOL    HW261460   6.733  11.236   0.662  0.0896 -0.7139  1.1898
51449SOL     OW61461   8.874   8.862   7.659 -0.2443  0.1695  0.2577
51449SOL    HW161462   8.780   8.876   7.648  0.0185  3.2460  0.9388
51449SOL    HW261463   8.914   8.929   7.603  1.5450 -0.8655  0.2342
51450SOL     OW61464   8.286   5.646   5.696  0.3242  0.3124  0.1857
51450SOL    HW161465   8.276   5.552   5.682 -1.3102  0.4666  0.1269
51450SOL    HW261466   8.299   5.682   5.609 -1.0802  0.3450 -0.0216
51451SOL     OW61467   6.577  10.908   0.678 -0.6684 -0.5280  0.2781
51451SOL    HW161468   6.663  10.869   0.698 -0.9506 -0.3636  2.0360
51451SOL    HW261469   6.570  10.980   0.741 -0.8190  1.4230 -1.8600
51452SOL     OW61470   0.067   6.785  12.750 -0.4642  0.0565  0.0205
51452SOL    HW161471   0.009   6.810  12.678  0.5914  0.8559 -0.5883
51452SOL    HW261472   0.037   6.698  12.775 -1.3849  0.0991 -0.8345
51453SOL     OW61473   7.889   7.798   9.411 -0.2810 -0.1329 -0.3673
51453SOL    HW161474   7.830   7.723   9.399 -0.7153 -0.2357  2.0325
51453SOL    HW261475   7.958   7.765   9.468  0.1528  0.9890 -0.2195
51454SOL     OW61476  11.320   9.396   8.438 -0.0517  0.0763 -0.2705
51454SOL    HW161477  11.386   9.434   8.496  0.4327  0.9428 -1.3619
51454SOL    HW261478  11.323   9.302   8.457 -0.1940  0.3734  1.3747
51455SOL     OW61479   1.454   1.138   4.334  0.0304 -0.0638 -0.3761
51455SOL    HW161480   1.540   1.124   4.373 -0.0574 -0.4400 -0.3172
51455SOL    HW261481   1.396   1.079   4.382 -0.4418  0.8781  0.2254
51456SOL     OW61482   2.885   1.328   7.549  0.0735  0.0764 -0.0119
51456SOL    HW161483   2.797   1.333   7.510  0.2353 -0.3981 -0.4556
51456SOL    HW261484   2.871   1.290   7.636 -0.3396  1.5207  0.5776
51457SOL     OW61485  12.823   8.185   4.483 -0.4530  0.6124  0.7909
51457SOL    HW161486  12.751   8.183   4.419 -0.0907  1.6337  0.3356
51457SOL    HW261487  12.778   8.194   4.568 -0.8710  1.1840  0.5165
51458SOL     OW61488  10.105   2.204  12.758 -0.3933  0.5178 -0.4779
51458SOL    HW161489  10.050   2.132  12.728 -0.8590  1.0823 -0.9946
51458SOL    HW261490  10.108   2.265  12.685 -0.4891  1.3021  0.1528
51459SOL     OW61491  11.555   5.275   1.670 -0.1707 -0.0782 -0.0944
51459SOL    HW161492  11.594   5.350   1.715  0.3146 -0.4778  0.1680
51459SOL    HW261493  11.477   5.310   1.627 -0.1706  0.4887  0.3587
51460SOL     OW61494  12.025   4.602   7.116  0.2347 -0.2005  0.4978
51460SOL    HW161495  12.064   4.670   7.170  1.8295  0.8054 -1.7662
51460SOL    HW261496  12.096   4.575   7.057 -1.8060  0.0151 -2.2394
51461SOL     OW61497   3.037   0.204  11.985  0.2030 -0.4231  0.1475
51461SOL    HW161498   3.023   0.284  12.036 -0.7094 -0.2407 -0.3718
51461SOL    HW261499   3.080   0.234  11.905 -1.4213 -0.2278 -0.6926
51462SOL     OW61500  12.047   3.108   6.685 -0.1375  0.5569 -0.1608
51462SOL    HW161501  12.115   3.049   6.717 -0.4457  0.2732 -0.0311
51462SOL    HW261502  11.971   3.090   6.740 -0.6986  0.0100 -1.0858
51463SOL     OW61503   4.920   8.738   0.760 -0.3521 -0.7059 -0.1864
51463SOL    HW161504   4.831   8.715   0.733 -0.4896 -2.3697  1.4374
51463SOL    HW261505   4.960   8.776   0.682 -2.3220 -0.3586 -1.0922
51464SOL     OW61506   4.456   0.105  12.776  0.2673  0.3304  0.2440
51464SOL    HW161507   4.511   0.048  12.721  0.4569  1.9439 -1.3480
51464SOL    HW261508   4.379   0.052  12.796  1.9126 -1.6355  1.6873
51465SOL     OW61509   7.508   5.763   2.874  0.1148  0.2325 -0.0918
51465SOL    HW161510   7.492   5.852   2.844  1.0855  0.2477 -0.6234
51465SOL    HW261511   7.435   5.712   2.838  0.5825  0.4773 -1.4729
51466SOL     OW61512  10.831   0.548  10.982  0.2650  0.2274  0.5535
51466SOL    HW161513  10.833   0.573  10.889 -3.0634  0.3685  0.3935
51466SOL    HW261514  10.915   0.578  11.016  0.5794  2.5368 -1.8694
51467SOL     OW61515   8.589   4.311  12.657  0.3522  0.0529  0.5645
51467SOL    HW161516   8.653   4.344  12.594 -0.9107  2.7105  0.5258
51467SOL    HW261517   8.510   4.296  12.605 -0.0861  0.2545  1.1592
51468SOL     OW61518  10.568   3.632   3.923 -0.2376 -0.3837 -0.3376
51468SOL    HW161519  10.635   3.700   3.932  0.8008 -1.5521  1.0506
51468SOL    HW261520  10.550   3.630   3.829  2.3604 -0.6710 -0.9087
51469SOL     OW61521   4.993   6.679  10.233  0.3847 -0.6171 -0.0529
51469SOL    HW161522   4.963   6.591  10.253 -0.5435  0.0441  1.6844
51469SOL    HW261523   4.951   6.700  10.149 -1.9199 -0.7291  0.9968
51470SOL     OW61524   8.830   9.653   5.648  0.1547  0.1900 -0.4813
51470SOL    HW161525   8.839   9.691   5.735 -2.0192 -0.0582 -0.1055
51470SOL    HW261526   8.880   9.712   5.591 -1.4882  2.5322  0.3695
51471SOL     OW61527   7.958   6.439   3.340  0.3065 -0.0944  0.2137
51471SOL    HW161528   7.982   6.438   3.433  1.8206 -0.2020 -0.1461
51471SOL    HW261529   7.946   6.346   3.318  2.3587 -0.3167 -0.2265
51472SOL     OW61530   0.040   1.273   5.263 -0.1156  0.0169  0.8616
51472SOL    HW161531   0.029   1.275   5.358  0.7825  1.4629  0.9620
51472SOL    HW261532   0.134   1.263   5.250 -0.4437 -2.7271  0.0764
51473SOL     OW61533   4.302  12.678  12.096 -0.4762 -0.0932 -0.1817
51473SOL    HW161534   4.391  12.671  12.131 -0.5966 -0.9768 -0.0107
51473SOL    HW261535   4.246  12.670  12.173 -0.7737 -2.9705 -0.5796
51474SOL     OW61536   6.593  11.672  12.196 -0.2868  0.1086  0.2861
51474SOL    HW161537   6.624  11.758  12.226  1.1889 -0.1552 -0.3866
51474SOL    HW261538   6.638  11.658  12.113 -1.4345 -0.8054 -0.2069
51475SOL     OW61539   4.272   6.728   7.930 -0.0843 -0.0964  0.0728
51475SOL    HW161540   4.208   6.798   7.920  0.1910  1.0658  4.3986
51475SOL    HW261541   4.223   6.648   7.910 -1.8786  0.9788 -0.0778
51476SOL     OW61542   3.381   5.248   6.752  0.2510  0.0529 -0.1726
51476SOL    HW161543   3.343   5.182   6.810  1.4599 -1.7736 -1.3640
51476SOL    HW261544   3.430   5.198   6.687 -0.5140  2.0560 -2.4184
51477SOL     OW61545   7.468   5.855   2.405 -0.4457 -0.2362 -0.4020
51477SOL    HW161546   7.420   5.889   2.481  0.2544 -1.6563  0.7142
51477SOL    HW261547   7.400   5.826   2.345 -1.0653  2.5689 -1.1925
51478SOL     OW61548   9.053   0.627   7.904  0.5728  0.0075 -0.5032
51478SOL    HW161549   9.074   0.616   7.996 -0.1766  0.4333 -0.2721
51478SOL    HW261550   9.135   0.652   7.862  0.7142  0.7770  0.2166
51479SOL     OW61551   0.193   3.435   7.366  0.1036  0.0081  0.0482
51479SOL    HW161552   0.264   3.388   7.321  0.6831 -0.2702  1.2239
51479SOL    HW261553   0.211   3.422   7.459 -1.9784 -0.7856  0.3831
51480SOL     OW61554  10.711   7.395  11.776  0.3814 -0.9027 -0.0344
51480SOL    HW161555  10.638   7.352  11.820 -0.2082  0.4314  0.3221
51480SOL    HW261556  10.725   7.343  11.697 -1.2920 -0.8767 -0.3830
51481SOL     OW61557  12.064   0.962   8.291  0.2942 -0.0851 -0.0842
51481SOL    HW161558  12.078   0.874   8.255 -2.0550 -0.3493 -0.5399
51481SOL    HW261559  12.027   0.947   8.378  0.2552  0.4654 -0.0021
51482SOL     OW61560   5.546  10.000   2.794 -0.0136 -0.3134  0.8826
51482SOL    HW161561   5.490   9.991   2.871 -3.5760 -1.0570 -1.5888
51482SOL    HW261562   5.517  10.080   2.752  1.2120 -0.4191 -0.2197
51483SOL     OW61563   3.317   8.461   9.767 -0.3434 -0.4190 -0.1506
51483SOL    HW161564   3.258   8.494   9.835  0.0693  1.1412 -0.5078
51483SOL    HW261565   3.405   8.473   9.803 -0.1528 -3.2741  0.6317
51484SOL     OW61566   5.187   7.504   3.634  0.4670  0.4324  0.2611
51484SOL    HW161567   5.140   7.548   3.562 -0.8497 -1.9709 -0.4466
51484SOL    HW261568   5.170   7.559   3.710 -0.2236  1.7096 -0.7684
51485SOL     OW61569   8.707   8.707   6.007  0.1107 -0.0645  0.2803
51485SOL    HW161570   8.723   8.719   5.914  1.0910 -0.3828  0.4005
51485SOL    HW261571   8.627   8.655   6.012 -1.2231  1.7925 -0.3365
51486SOL     OW61572  11.234   6.515   1.963  0.3873 -0.1718  0.2698
51486SOL    HW161573  11.309   6.537   2.019  0.6481  1.0308 -0.5058
51486SOL    HW261574  11.205   6.600   1.929  0.5749 -0.9042 -1.8189
51487SOL     OW61575  11.293   3.966  10.997  0.3160 -0.7373  0.1787
51487SOL    HW161576  11.345   4.002  11.069  0.1367  0.1795 -0.1382
51487SOL    HW261577  11.203   3.993  11.016  0.4564  0.8503 -1.1516
51488SOL     OW61578  12.772   9.186  10.547  0.2627  0.3873  0.0266
51488SOL    HW161579  12.761   9.154  10.637  0.6051  0.0051 -0.0667
51488SOL    HW261580  12.721   9.125  10.494 -0.1309  0.7515 -0.0138
51489SOL     OW61581   3.166   5.326   1.141  0.4055 -0.5012  0.3888
51489SOL    HW161582   3.198   5.398   1.087 -0.5562 -0.8593 -0.7183
51489SOL    HW261583   3.227   5.254   1.124  0.7672 -0.2602  0.6759
51490SOL     OW61584   8.430   9.427  11.062  0.4797 -0.2841 -0.0087
51490SOL    HW161585   8.479   9.392  10.988  0.9472  1.0765 -0.3753
51490SOL    HW261586   8.376   9.497  11.024 -0.7809 -0.8773  0.6115
51491SOL     OW61587   0.331  11.067   0.954  0.7144 -0.0498  0.1612
51491SOL    HW161588   0.264  11.000   0.941 -0.5524  1.1190  0.3063
51491SOL    HW261589   0.284  11.140   0.995  2.0207  0.9332 -0.0048
51492SOL     OW61590   0.096   3.292   3.624  0.3859 -0.0795 -0.4971
51492SOL    HW161591   0.182   3.262   3.652  1.3643  0.3856 -2.8147
51492SOL    HW261592   0.108   3.321   3.534 -1.6062  2.5296 -0.0623
51493SOL     OW61593   9.323  11.848   4.817 -0.2390  0.2637  0.3430
51493SOL    HW161594   9.230  11.830   4.805 -0.3993 -0.6405  2.5041
51493SOL    HW261595   9.368  11.776   4.773 -0.6544 -0.5259  1.1759
51494SOL     OW61596   7.079   9.909   8.986  0.0990  0.2772  0.6328
51494SOL    HW161597   7.170   9.886   8.968 -0.5881 -1.3769 -1.0755
51494SOL    HW261598   7.058   9.860   9.065  0.6608  0.6470  1.0237
51495SOL     OW61599  10.629   9.884   9.655  0.0946 -0.2757 -0.4040
51495SOL    HW161600  10.694   9.953   9.638 -0.5918  0.3794 -0.4127
51495SOL    HW261601  10.635   9.870   9.750 -1.6005  1.7056  0.0597
51496SOL     OW61602   9.850   3.663   5.691  0.7908 -1.1017  0.0640
51496SOL    HW161603   9.815   3.613   5.617  1.2761  0.3538 -1.1832
51496SOL    HW261604   9.776   3.718   5.719  0.6826 -1.4705  0.5137
51497SOL     OW61605   0.681   0.864  10.288  0.3866 -0.3878  0.8692
51497SOL    HW161606   0.734   0.944  10.284 -0.4844  0.1996  0.6628
51497SOL    HW261607   0.699   0.828  10.374  0.8827 -0.0225  0.9221
51498SOL     OW61608  11.368   0.640  11.903  0.2732  0.4651  0.0799
51498SOL    HW161609  11.439   0.694  11.868  1.3295 -0.8910  0.0588
51498SOL    HW261610  11.340   0.687  11.982  1.5197  0.8105  0.3480
51499SOL     OW61611   3.299   5.401   7.107  0.3024  0.4157 -0.7053
51499SOL    HW161612   3.208   5.378   7.085  0.2346 -0.0777  0.0447
51499SOL    HW261613   3.301   5.402   7.203  1.3773 -0.7620 -0.6936
51500SOL     OW61614   9.667   4.795   3.883 -0.2570  0.2206  0.1177
51500SOL    HW161615   9.610   4.721   3.899  1.0183 -0.4392  1.9273
51500SOL    HW261616   9.611   4.860   3.840 -1.6270 -1.4005 -0.6619
51501SOL     OW61617  10.602  11.385   8.380  0.3242 -0.1068  0.1151
51501SOL    HW161618  10.664  11.313   8.390  0.9099  0.2165 -0.9747
51501SOL    HW261619  10.658  11.463   8.376 -0.1441  0.1978 -0.7893
51502SOL     OW61620   1.263   5.570   1.860  0.4790 -0.0259 -0.0766
51502SOL    HW161621   1.216   5.562   1.777 -1.0001 -3.3397  0.9085
51502SOL    HW261622   1.345   5.522   1.845  0.9436  0.7497 -0.0609
51503SOL     OW61623   3.989   7.018  12.584  0.1811 -0.8580  0.3128
51503SOL    HW161624   3.933   7.063  12.646 -0.2478 -1.3134  0.2699
51503SOL    HW261625   4.049   6.966  12.638 -0.0489 -1.0839  0.3561
51504SOL     OW61626  10.425   1.528   7.020 -0.3929 -0.3433 -0.2285
51504SOL    HW161627  10.453   1.584   6.949  0.5371 -1.6746 -0.9482
51504SOL    HW261628  10.379   1.455   6.978  1.6345 -2.0334  0.3373
51505SOL     OW61629   1.048   4.031   7.935 -0.4158 -0.1071 -0.3919
51505SOL    HW161630   1.004   3.967   7.879  1.4919  0.9307 -3.3404
51505SOL    HW261631   1.140   4.027   7.908  0.0112  2.8168  0.2872
51506SOL     OW61632   4.699   7.167   0.627 -0.1364  0.2789 -0.1441
51506SOL    HW161633   4.750   7.109   0.684 -0.4658  1.2672  1.2141
51506SOL    HW261634   4.758   7.240   0.608 -0.9101  1.3372  1.2816
51507SOL     OW61635   6.206   4.866   5.129 -0.1847  0.1467  0.1905
51507SOL    HW161636   6.115   4.872   5.157  0.0200  0.4626  0.7958
51507SOL    HW261637   6.242   4.794   5.180 -0.2061 -0.2826 -0.3808
51508SOL     OW61638   2.747  11.143  11.149 -0.3825 -0.4486  0.3372
51508SOL    HW161639   2.774  11.123  11.238  3.8544 -3.0754 -1.2136
51508SOL    HW261640   2.801  11.218  11.123 -0.6892 -0.4618 -0.3821
51509SOL     OW61641   4.209  10.264   3.649  0.6137 -0.2755  0.1840
51509SOL    HW161642   4.199  10.288   3.742  0.1245  0.9748 -0.1670
51509SOL    HW261643   4.260  10.335   3.612 -1.2174  0.5141 -0.9949
51510SOL     OW61644  12.665   6.809  10.850 -0.3454 -0.2688 -0.0913
51510SOL    HW161645  12.749   6.764  10.851 -0.4778 -0.6129 -1.5724
51510SOL    HW261646  12.601   6.743  10.876 -0.2753 -0.2987  0.0010
51511SOL     OW61647  12.536   9.966  12.813  0.1147  0.3089 -0.3896
51511SOL    HW161648  12.511   9.893  12.869  0.1848  0.4476 -0.1787
51511SOL    HW261649  12.612   9.933  12.764  0.4276  0.3979  0.0346
51512SOL     OW61650   6.344   7.728  11.888  0.4164  0.1970 -0.5102
51512SOL    HW161651   6.421   7.713  11.943 -0.2560 -1.8788 -0.0554
51512SOL    HW261652   6.358   7.672  11.812 -0.3206  0.3467 -0.7617
51513SOL     OW61653   8.168   0.786   2.310 -0.2576  0.4771 -0.0165
51513SOL    HW161654   8.182   0.872   2.350  0.5053  0.8214 -0.9916
51513SOL    HW261655   8.242   0.734   2.338 -1.0341 -0.0765  1.0784
51514SOL     OW61656   6.480   6.244   0.007  0.2029 -0.3932  0.3217
51514SOL    HW161657   6.450   6.187  -0.063 -2.1131 -0.2914  1.1362
51514SOL    HW261658   6.526   6.187   0.068 -0.4507 -1.0673  0.1940
51515SOL     OW61659   1.211   9.331   7.800 -0.5287  0.0016  0.2253
51515SOL    HW161660   1.165   9.249   7.819  1.1717 -0.8638  0.7881
51515SOL    HW261661   1.276   9.339   7.870 -0.4588  1.6836  0.0026
51516SOL     OW61662  10.545   2.137   6.819 -0.0759 -0.7403  0.3443
51516SOL    HW161663  10.501   2.115   6.901  1.3461 -1.2227  1.0190
51516SOL    HW261664  10.509   2.076   6.756 -3.5050  1.6334 -0.2400
51517SOL     OW61665  10.663   7.108  12.899 -0.2908 -0.8338  0.0196
51517SOL    HW161666  10.598   7.040  12.880 -0.3298 -0.7363 -0.1938
51517SOL    HW261667  10.734   7.091  12.838 -0.1433 -0.8963  0.2057
51518SOL     OW61668   8.438   8.673   4.453 -0.8656  0.6397 -0.4775
51518SOL    HW161669   8.517   8.624   4.432  0.8783  2.1645  1.9923
51518SOL    HW261670   8.367   8.621   4.417  1.1227 -1.8347 -1.0661
51519SOL     OW61671   7.239   4.488   3.911  0.2033  0.0667 -0.5455
51519SOL    HW161672   7.193   4.572   3.915  0.4554  0.1855 -0.1022
51519SOL    HW261673   7.284   4.481   3.995 -0.8466 -1.0953 -0.0433
51520SOL     OW61674   0.923   9.128  10.260  0.1490 -0.2345 -0.0071
51520SOL    HW161675   0.848   9.082  10.224 -0.6723  1.6311 -0.8224
51520SOL    HW261676   0.926   9.102  10.352 -1.3862 -0.5002 -0.0150
51521SOL     OW61677   9.836   3.848   6.972  0.2393 -0.3574 -0.1315
51521SOL    HW161678   9.895   3.922   6.956  1.5179 -1.1729  0.6724
51521SOL    HW261679   9.889   3.770   6.953 -0.8992 -1.0923 -0.3882
51522SOL     OW61680   5.119   5.658   5.685  0.5599  0.0405  0.0304
51522SOL    HW161681   5.101   5.747   5.657 -0.2603 -0.1510 -0.0874
51522SOL    HW261682   5.074   5.650   5.770 -1.1246 -0.8616 -0.8860
51523SOL     OW61683  12.630   7.659   8.093 -0.0257  0.1704  0.0396
51523SOL    HW161684  12.560   7.692   8.150 -0.4881  1.2144 -1.0850
51523SOL    HW261685  12.609   7.566   8.082 -2.0289  0.7174 -1.3036
51524SOL     OW61686  12.806   4.420  10.597  0.9499  0.3657 -0.0536
51524SOL    HW161687  12.765   4.347  10.643  1.2889 -1.3151 -2.2758
51524SOL    HW261688  12.828   4.483  10.666  0.5692 -1.5818  1.9307
51525SOL     OW61689   7.109   2.343  10.083  0.0124  0.2980 -0.2755
51525SOL    HW161690   7.133   2.330  10.175  1.9453 -0.0648 -0.7750
51525SOL    HW261691   7.167   2.414  10.054 -0.8545  0.6726 -1.1166
51526SOL     OW61692   6.124  11.238  11.226  0.3735  0.4204  0.3759
51526SOL    HW161693   6.082  11.316  11.262 -1.1237  0.2399 -0.8591
51526SOL    HW261694   6.099  11.167  11.286  0.4574  0.6260  0.6555
51527SOL     OW61695   4.539   0.668  11.822  0.3052 -0.1018  0.1180
51527SOL    HW161696   4.548   0.760  11.850  0.6235 -0.3939  1.0232
51527SOL    HW261697   4.470   0.633  11.878 -2.3120  0.4403 -2.5208
51528SOL     OW61698   6.579   1.277   2.382 -0.6622  0.1370 -0.0448
51528SOL    HW161699   6.619   1.351   2.428 -1.7515 -0.6057  2.3129
51528SOL    HW261700   6.519   1.316   2.319  0.7756  1.2230 -0.7897
51529SOL     OW61701   9.779   4.805   1.899  0.0645 -0.3354  0.3305
51529SOL    HW161702   9.793   4.890   1.858 -0.2769  0.0105  0.9145
51529SOL    HW261703   9.684   4.800   1.913  0.2822  0.2275  2.4411
51530SOL     OW61704   2.900  10.396   9.089  0.1605  0.5532 -0.2903
51530SOL    HW161705   2.864  10.483   9.077 -1.2479 -0.0539 -0.7025
51530SOL    HW261706   2.880  10.350   9.008  0.0635 -0.4147  0.2566
51531SOL     OW61707   5.551  11.631  11.621  0.8295  0.1288  0.0484
51531SOL    HW161708   5.570  11.549  11.576  0.0105 -0.9922  1.6883
51531SOL    HW261709   5.574  11.615  11.712 -2.6154  0.4870  1.1269
51532SOL     OW61710   7.925   6.988   6.659  0.9056  0.1778  0.6647
51532SOL    HW161711   8.002   7.012   6.710  0.7075  0.8702  0.6444
51532SOL    HW261712   7.940   7.027   6.573  1.3994 -1.2739  0.0692
51533SOL     OW61713   7.010  11.558   9.862 -0.6029  1.0909 -0.4473
51533SOL    HW161714   7.030  11.473   9.824 -0.3483  1.6780 -1.6666
51533SOL    HW261715   7.089  11.582   9.911 -0.0245  1.3633 -1.4927
51534SOL     OW61716   6.957   1.980  12.634 -0.7065  0.4102 -0.6759
51534SOL    HW161717   6.938   1.963  12.542 -1.4790 -2.1349 -0.1271
51534SOL    HW261718   6.878   2.023  12.667 -0.3289  1.5582 -1.2244
51535SOL     OW61719   2.087   3.822  12.109  0.2123  0.1924 -0.2032
51535SOL    HW161720   2.064   3.885  12.040  0.2986 -0.7156 -1.0786
51535SOL    HW261721   2.057   3.863  12.190 -3.7717 -0.5334 -1.1346
51536SOL     OW61722   0.067   0.264   0.695 -0.0269  0.1546  0.0153
51536SOL    HW161723   0.063   0.275   0.600 -0.7195 -0.2484 -0.0123
51536SOL    HW261724  -0.005   0.204   0.715  0.8360 -0.6729  0.6761
51537SOL     OW61725   3.294   5.941   9.253 -0.5240 -0.1841 -0.6683
51537SOL    HW161726   3.330   6.026   9.231  0.7558 -0.5908 -0.2132
51537SOL    HW261727   3.370   5.883   9.260 -1.0870 -0.7627  1.6780
51538SOL     OW61728   0.376   3.560   9.353 -0.4592 -0.5741  0.0589
51538SOL    HW161729   0.355   3.474   9.315 -0.8942 -0.4577  0.0379
51538SOL    HW261730   0.465   3.577   9.322 -0.9072 -0.3486 -1.1747
51539SOL     OW61731   9.025  11.781   1.158  0.1311 -0.2314 -0.0853
51539SOL    HW161732   9.057  11.807   1.072  0.3248  0.4299  0.1837
51539SOL    HW261733   9.068  11.841   1.219 -0.5016 -0.2787  0.4151
51540SOL     OW61734  11.732   9.251   3.628  0.0511 -0.8382  0.4314
51540SOL    HW161735  11.802   9.315   3.617 -1.3516  0.8216  0.7713
51540SOL    HW261736  11.685   9.279   3.706 -0.8736 -2.0400  0.3484
51541SOL     OW61737  10.068   5.113   5.539 -0.1992  0.3761  0.3642
51541SOL    HW161738  10.139   5.087   5.598  0.5418 -0.5246 -0.8663
51541SOL    HW261739   9.998   5.049   5.556  0.0818  0.0075  0.1587
51542SOL     OW61740   4.427   4.663   1.909  0.5692  0.2609  0.2292
51542SOL    HW161741   4.463   4.622   1.830 -0.1255  0.9767 -0.4828
51542SOL    HW261742   4.474   4.622   1.981  0.6594 -0.9999 -0.5091
51543SOL     OW61743   8.449  11.880   6.971 -0.3132 -0.5068 -0.0240
51543SOL    HW161744   8.358  11.868   6.998 -1.1003 -0.3085 -2.3367
51543SOL    HW261745   8.467  11.973   6.987 -0.9217 -0.2770 -0.6371
51544SOL     OW61746   0.020   9.543   2.366  0.3858  0.4280  0.0608
51544SOL    HW161747   0.024   9.448   2.371 -0.8658  0.3250 -0.6087
51544SOL    HW261748   0.056   9.565   2.280  2.2518  0.7049  0.8693
51545SOL     OW61749   3.621   1.331   9.152 -0.9364 -0.0118 -0.9490
51545SOL    HW161750   3.690   1.282   9.107 -1.1622 -1.0329 -0.2179
51545SOL    HW261751   3.585   1.269   9.216 -2.5589  0.4813 -1.3379
51546SOL     OW61752  10.663   0.179   0.471 -0.5665  0.0083  0.2234
51546SOL    HW161753  10.619   0.126   0.539  1.4040 -2.2033 -0.1200
51546SOL    HW261754  10.661   0.124   0.393  0.0807  1.1733 -0.6381
51547SOL     OW61755   2.754   4.899   9.117 -0.1956 -0.4311  0.5135
51547SOL    HW161756   2.815   4.933   9.052 -0.5108 -0.4211  0.2198
51547SOL    HW261757   2.743   4.807   9.094  1.8452 -1.1787  2.2182
51548SOL     OW61758   3.757   7.800   8.428 -0.3270 -0.2257  0.4057
51548SOL    HW161759   3.669   7.800   8.466 -0.3798 -0.3124  0.2838
51548SOL    HW261760   3.790   7.888   8.445 -1.3797  0.6435 -1.7009
51549SOL     OW61761   2.219   2.367   5.736  0.3140  0.1175  0.6999
51549SOL    HW161762   2.230   2.391   5.644  1.9301  0.0135  0.8465
51549SOL    HW261763   2.137   2.411   5.762 -0.0958  0.2548 -0.7315
51550SOL     OW61764  10.104   0.371   2.548  0.0208  0.0616  0.4895
51550SOL    HW161765  10.071   0.460   2.561 -1.5173 -0.3604 -0.4046
51550SOL    HW261766  10.191   0.384   2.510 -0.4327  1.1932 -0.2199
51551SOL     OW61767  12.716   4.141   4.118 -0.4818 -0.3051 -0.4937
51551SOL    HW161768  12.677   4.141   4.205 -2.1175  0.7176 -1.1843
51551SOL    HW261769  12.668   4.209   4.070  0.8843 -0.3327 -1.9729
51552SOL     OW61770   5.209   9.819   5.753 -0.6462  0.1216  0.1247
51552SOL    HW161771   5.235   9.796   5.663 -3.0622  2.8733 -1.4481
51552SOL    HW261772   5.282   9.873   5.785  0.8575 -1.9776  0.4223
51553SOL     OW61773  11.821   4.203  10.383  0.0026 -0.3223 -0.0860
51553SOL    HW161774  11.772   4.209  10.301 -2.0470  0.0259  1.0811
51553SOL    HW261775  11.763   4.243  10.448  1.5096 -0.6938  1.5588
51554SOL     OW61776   2.642   7.971   5.506 -0.0250 -0.2073  0.9603
51554SOL    HW161777   2.674   8.030   5.574 -0.7713 -1.5248  2.5404
51554SOL    HW261778   2.711   7.905   5.496 -0.5441 -0.8723  1.5870
51555SOL     OW61779   2.669   6.750   3.838 -0.5412  0.1469 -0.0913
51555SOL    HW161780   2.661   6.684   3.906  1.1778  0.5626  0.5661
51555SOL    HW261781   2.760   6.744   3.809 -0.3375  2.1775 -0.0188
51556SOL     OW61782   6.164   1.734   0.462  0.4842  0.2573  0.2641
51556SOL    HW161783   6.228   1.668   0.436  0.3166  0.1477  0.1310
51556SOL    HW261784   6.191   1.760   0.550  0.2937 -0.3006  0.4865
51557SOL     OW61785   4.295  10.967  11.379 -0.3187  0.1080  0.7148
51557SOL    HW161786   4.328  11.046  11.336 -0.6634 -0.1679 -0.0661
51557SOL    HW261787   4.272  10.996  11.468  0.5406  0.6438  0.7672
51558SOL     OW61788   8.455  12.869   7.500 -0.2630  0.2493  0.0315
51558SOL    HW161789   8.547  12.885   7.477 -0.5159  1.0285 -0.4529
51558SOL    HW261790   8.453  12.876   7.596  0.2832 -0.3548  0.0999
51559SOL     OW61791   2.417   8.809  12.606 -0.5201  0.3132  0.0212
51559SOL    HW161792   2.451   8.797  12.694 -1.9070 -1.6304  0.3407
51559SOL    HW261793   2.348   8.874  12.615  0.2994  1.2089  0.0683
51560SOL     OW61794  11.693  12.276   3.689 -0.2866  0.5708  0.0369
51560SOL    HW161795  11.674  12.300   3.780  0.2062 -1.5901  0.7863
51560SOL    HW261796  11.724  12.185   3.695  0.0750  0.4911 -2.2682
51561SOL     OW61797   7.366   7.828  11.750 -0.0296  0.2517  0.1638
51561SOL    HW161798   7.299   7.765  11.722  2.1302 -1.3405 -1.7903
51561SOL    HW261799   7.416   7.782  11.817 -0.0446  0.9190  0.6448
51562SOL     OW61800  10.921   6.891   5.739 -0.1316  0.7622 -0.6419
51562SOL    HW161801  10.875   6.825   5.687  1.2222 -0.0977 -0.8184
51562SOL    HW261802  10.982   6.840   5.793  1.2835  1.8855 -1.1234
51563SOL     OW61803   0.057   5.115   4.136 -0.4325  0.1697  0.3974
51563SOL    HW161804  -0.011   5.082   4.076 -1.9486  1.4359  1.3626
51563SOL    HW261805   0.121   5.044   4.139 -1.1297 -0.6199 -1.4207
51564SOL     OW61806   7.832   9.112   0.445 -0.0985 -0.4478 -0.6324
51564SOL    HW161807   7.788   9.181   0.396  1.1023  0.9320  0.1520
51564SOL    HW261808   7.816   9.134   0.537  1.5447 -0.3473 -0.3512
51565SOL     OW61809   9.079   3.132   3.095 -0.1582 -0.0355 -0.2548
51565SOL    HW161810   9.144   3.076   3.138 -0.7707 -0.6803 -0.1621
51565SOL    HW261811   9.061   3.201   3.160  0.7837  0.4350 -0.4684
51566SOL     OW61812   6.447   3.129   0.356 -0.0560 -0.2572  0.0117
51566SOL    HW161813   6.504   3.087   0.292  1.2412 -0.3601  1.1959
51566SOL    HW261814   6.361   3.091   0.340  0.7922 -2.3270  0.0860
51567SOL     OW61815  12.119   2.544   4.246 -0.3973 -0.1067  0.2271
51567SOL    HW161816  12.037   2.504   4.217  0.1699 -0.9245 -0.3121
51567SOL    HW261817  12.118   2.631   4.207  0.3773 -1.1876 -2.4624
51568SOL     OW61818  12.892   0.735   2.482  0.2702  0.1870 -0.0611
51568SOL    HW161819  12.831   0.684   2.535 -3.1578  3.0116 -0.9327
51568SOL    HW261820  12.915   0.809   2.536  0.8868  0.4691 -0.6919
51569SOL     OW61821  12.277   0.899   0.866 -0.1521 -0.3380 -0.0224
51569SOL    HW161822  12.205   0.934   0.814 -0.3871 -0.4317  0.2356
51569SOL    HW261823  12.329   0.848   0.805 -1.0154 -1.3295  0.0478
51570SOL     OW61824   5.802  11.790   3.335  0.1164  0.0778  0.1902
51570SOL    HW161825   5.722  11.746   3.306  0.8458 -1.0837 -0.1055
51570SOL    HW261826   5.811  11.767   3.427  0.2616 -0.0236  0.1511
51571SOL     OW61827  12.663   1.724   0.946 -0.4236  0.6279 -0.4261
51571SOL    HW161828  12.755   1.716   0.969 -0.4832  1.4455  0.1828
51571SOL    HW261829  12.620   1.655   0.997 -0.1957  0.5278 -0.3661
51572SOL     OW61830   3.913   0.330   0.363  0.1890  0.2518 -0.1139
51572SOL    HW161831   3.996   0.289   0.341  0.5137  1.8433 -2.1739
51572SOL    HW261832   3.860   0.322   0.283 -1.3993 -0.0894  0.9142
51573SOL     OW61833   8.817  10.944  10.334 -0.3415 -0.0399 -0.1685
51573SOL    HW161834   8.880  10.972  10.402  0.0007  0.0839 -0.5313
51573SOL    HW261835   8.800  10.853  10.354  2.6182 -1.1646 -2.0225
51574SOL     OW61836   0.823   0.968   9.483 -0.0135 -0.1923  0.0726
51574SOL    HW161837   0.753   0.904   9.475  0.1750 -0.5810  1.3404
51574SOL    HW261838   0.779   1.048   9.511 -0.0474 -0.2217  0.1030
51575SOL     OW61839   4.393   8.076   0.242  0.2373  0.4562  0.3633
51575SOL    HW161840   4.475   8.029   0.230  0.0280  0.6576 -2.5279
51575SOL    HW261841   4.330   8.030   0.187 -0.6635  2.4483 -0.3550
51576SOL     OW61842   5.322   9.162   3.558 -0.0062 -1.0494 -0.2207
51576SOL    HW161843   5.380   9.099   3.600  0.4565 -0.3081  0.2785
51576SOL    HW261844   5.261   9.188   3.627  0.4605 -0.1808 -0.1202
51577SOL     OW61845   1.649   0.816   8.121  0.3127 -0.0277  0.2955
51577SOL    HW161846   1.574   0.867   8.089 -1.0888 -0.2431  2.9082
51577SOL    HW261847   1.723   0.877   8.119 -0.6319  1.1689  0.4711
51578SOL     OW61848   6.283   6.937   2.635  0.0970  0.3723 -0.8175
51578SOL    HW161849   6.200   6.978   2.658 -0.2022 -1.6797  2.3710
51578SOL    HW261850   6.348   7.007   2.646 -0.7386  0.9096  1.3275
51579SOL     OW61851   1.362   1.588   3.579  0.0073 -0.6082  0.2062
51579SOL    HW161852   1.415   1.565   3.656 -1.4099 -0.1840  1.3675
51579SOL    HW261853   1.286   1.530   3.584 -1.2149  0.9448  0.4343
51580SOL     OW61854   0.230  11.788  12.668  0.2450  0.0070  0.0020
51580SOL    HW161855   0.249  11.814  12.578  0.3945 -2.8592 -0.9046
51580SOL    HW261856   0.135  11.775  12.670  0.3281 -0.6427  0.0199
51581SOL     OW61857   6.826   3.412   2.878 -0.8386 -0.0153  0.4073
51581SOL    HW161858   6.795   3.502   2.871  1.3360  0.7973  0.2146
51581SOL    HW261859   6.919   3.421   2.903 -0.6181 -2.2059  0.5684
51582SOL     OW61860  10.832   1.163  10.261  0.1688  0.4801 -0.4494
51582SOL    HW161861  10.800   1.106  10.191  1.6420 -0.2967 -0.5203
51582SOL    HW261862  10.926   1.148  10.263  0.0335 -0.7596  2.7457
51583SOL     OW61863   0.367  12.186   1.974 -0.1870  0.6730 -0.0425
51583SOL    HW161864   0.420  12.205   2.051 -1.4855  1.8276  0.6034
51583SOL    HW261865   0.418  12.221   1.901 -0.2645  2.2500  0.6203
51584SOL     OW61866   3.724   3.206   8.190 -0.2562  0.5771  0.3016
51584SOL    HW161867   3.755   3.176   8.105  0.9041  0.4912  0.7344
51584SOL    HW261868   3.800   3.200   8.247 -0.2768  3.0941  0.7237
51585SOL     OW61869  12.730   1.802   6.570  0.6178  0.2638 -0.4228
51585SOL    HW161870  12.743   1.719   6.616 -0.2663  0.0491 -0.5429
51585SOL    HW261871  12.817   1.825   6.538  1.2605  0.4113  1.3341
51586SOL     OW61872   5.486   0.479   3.638 -0.2795 -0.1899 -0.7328
51586SOL    HW161873   5.391   0.487   3.640 -0.3465 -0.8843 -0.6979
51586SOL    HW261874   5.510   0.458   3.728  0.0158  1.0192 -0.5218
51587SOL     OW61875   6.796   2.703   1.686 -0.7759 -0.3655 -0.1573
51587SOL    HW161876   6.730   2.756   1.732  0.0738 -1.8385  3.0417
51587SOL    HW261877   6.764   2.613   1.693  0.3419 -0.8443 -0.8458
51588SOL     OW61878  12.722   9.946   5.053 -0.1139  0.3062  0.0314
51588SOL    HW161879  12.788   9.883   5.024  0.4027  1.1391 -0.6953
51588SOL    HW261880  12.639   9.911   5.021  0.0712 -0.3765  0.2907
51589SOL     OW61881  11.907   4.750   6.014  0.0832  0.4324 -0.2991
51589SOL    HW161882  11.840   4.795   5.963  0.3723  0.8878 -0.2804
51589SOL    HW261883  11.897   4.785   6.103  0.1387  0.2690 -0.2292
51590SOL     OW61884   9.446   8.867   2.774 -0.2502  0.1672  0.4918
51590SOL    HW161885   9.391   8.802   2.729  3.3410 -1.9337 -1.2897
51590SOL    HW261886   9.404   8.951   2.753 -2.5440 -1.2348 -1.0441
51591SOL     OW61887  11.676   0.204   6.091 -0.1168  0.6682 -0.3954
51591SOL    HW161888  11.751   0.262   6.073  1.9295 -0.6854  2.9136
51591SOL    HW261889  11.645   0.231   6.177 -0.4534 -1.7280  0.3029
51592SOL     OW61890   9.071   1.032   6.134  0.0273 -0.0657 -1.0300
51592SOL    HW161891   9.009   0.960   6.126 -0.7812  0.4385  0.3047
51592SOL    HW261892   9.017   1.108   6.156  0.9502  0.7764 -1.5778
51593SOL     OW61893   7.795   9.000   6.579 -0.0999 -0.0801 -0.1446
51593SOL    HW161894   7.740   9.078   6.584  1.5813  1.3885 -2.2827
51593SOL    HW261895   7.830   9.001   6.489  1.7079 -2.0749  0.4442
51594SOL     OW61896  11.115   9.799   2.648 -0.2415  0.1640  0.3154
51594SOL    HW161897  11.186   9.848   2.689  1.4863 -1.1850 -0.9444
51594SOL    HW261898  11.079   9.860   2.584  1.2608  0.1666 -0.5754
51595SOL     OW61899   0.247   8.800   3.515  0.0465 -0.1286 -0.4096
51595SOL    HW161900   0.240   8.895   3.525 -0.8714 -0.3092  0.8915
51595SOL    HW261901   0.157   8.771   3.495  0.4219 -0.6757 -1.4032
51596SOL     OW61902  11.793   0.808   6.271  0.3628 -0.7527 -0.3057
51596SOL    HW161903  11.796   0.713   6.277 -0.6978 -0.7726  0.1407
51596SOL    HW261904  11.701   0.828   6.252  0.5805  0.1789 -0.4413
51597SOL     OW61905   1.745   4.084  12.548  0.1467 -0.5173 -0.3613
51597SOL    HW161906   1.675   4.090  12.614 -0.1471 -0.7640 -0.6481
51597SOL    HW261907   1.820   4.049  12.596 -0.0292 -0.5789 -0.1291
51598SOL     OW61908   4.280   2.733   9.642 -0.1743 -0.0600 -0.6149
51598SOL    HW161909   4.335   2.810   9.653  0.1470 -0.3317 -0.2776
51598SOL    HW261910   4.192   2.762   9.665 -0.2283  0.4585 -1.4553
51599SOL     OW61911   4.534   2.328   5.419  0.2490  0.6092  0.2136
51599SOL    HW161912   4.502   2.328   5.329 -1.7285  0.2390  0.8647
51599SOL    HW261913   4.531   2.236   5.445  0.3533  0.7674  0.8018
51600SOL     OW61914   8.278   0.865   1.747  0.2090 -0.0102 -0.3047
51600SOL    HW161915   8.294   0.829   1.834  1.6729  0.4367 -0.3586
51600SOL    HW261916   8.312   0.954   1.751 -0.9575  0.4789 -0.9442
51601SOL     OW61917   0.656  12.421   2.514  0.6543  0.3105  0.6171
51601SOL    HW161918   0.646  12.383   2.601  0.5447  1.2258  1.0109
51601SOL    HW261919   0.597  12.370   2.458  0.8384 -0.3784  1.0417
51602SOL     OW61920   9.260  11.202   2.713 -0.1030  0.0885 -0.7906
51602SOL    HW161921   9.298  11.271   2.767  0.4397 -0.4361 -0.4962
51602SOL    HW261922   9.174  11.186   2.752  0.9182 -1.4454  0.9881
51603SOL     OW61923  10.986   7.854   8.752 -0.3313 -0.1884 -0.4950
51603SOL    HW161924  10.972   7.792   8.823  0.1581 -0.1025 -0.3148
51603SOL    HW261925  10.942   7.934   8.781  1.8947  0.6509  0.8814
51604SOL     OW61926   5.558   3.781   0.187  0.0442  0.5725 -0.5964
51604SOL    HW161927   5.604   3.864   0.169  0.2727  0.4898 -0.4115
51604SOL    HW261928   5.512   3.798   0.270 -0.0863  0.5859 -0.6721
51605SOL     OW61929   4.522   4.042  10.761 -0.0554 -0.0552 -0.3441
51605SOL    HW161930   4.510   3.948  10.769  2.2701 -0.5478 -1.5288
51605SOL    HW261931   4.472   4.080  10.833  1.2820 -2.4193  2.0120
51606SOL     OW61932   7.110   4.740   8.926  0.6183  0.1722 -0.4443
51606SOL    HW161933   7.084   4.816   8.875 -0.0336  0.7740  0.7540
51606SOL    HW261934   7.198   4.761   8.957  0.2325  0.6987  0.3342
51607SOL     OW61935   5.264   0.426   9.636 -0.1627 -0.0500  0.3477
51607SOL    HW161936   5.246   0.520   9.639 -3.1716 -0.4163 -1.8253
51607SOL    HW261937   5.291   0.410   9.546  0.7210 -1.2474  0.7997
51608SOL     OW61938  10.400   2.505  11.174  1.4642 -0.1134 -0.2941
51608SOL    HW161939  10.436   2.591  11.154  1.7761 -0.2904 -0.4934
51608SOL    HW261940  10.373   2.512  11.266  3.1443 -0.3529  0.2457
51609SOL     OW61941  10.495   3.130   0.902  0.1198 -0.5193  0.3387
51609SOL    HW161942  10.528   3.139   0.991  0.2526  2.3325  0.0713
51609SOL    HW261943  10.414   3.180   0.900  0.0689 -0.6176 -1.1315
51610SOL     OW61944  11.629   4.806   4.329  0.1486  0.0148  0.0417
51610SOL    HW161945  11.545   4.819   4.285 -0.5193  1.2951  1.6120
51610SOL    HW261946  11.681   4.758   4.265 -1.1063  0.8855 -1.7561
51611SOL     OW61947   4.975  10.426   0.390  0.7708  0.2100  1.2404
51611SOL    HW161948   4.902  10.471   0.432  0.6170  0.5503  0.6189
51611SOL    HW261949   4.946  10.335   0.384 -0.7624  0.7419 -1.3464
51612SOL     OW61950   4.002   3.695   6.702 -0.0040 -0.4014  0.1847
51612SOL    HW161951   4.009   3.745   6.783 -0.3817 -1.2287  0.7414
51612SOL    HW261952   4.015   3.760   6.633  1.9160  0.0501  0.9080
51613SOL     OW61953   8.530   2.501   5.727 -0.4584  0.1096  0.5241
51613SOL    HW161954   8.481   2.534   5.652  1.4574 -1.1909 -1.4136
51613SOL    HW261955   8.539   2.577   5.784  0.9441  2.1636 -2.1884
51614SOL     OW61956   8.161   8.444   0.581  0.4103 -0.0689  0.2407
51614SOL    HW161957   8.217   8.371   0.554  0.5846 -0.3557  1.3162
51614SOL    HW261958   8.151   8.432   0.675 -0.4793  0.6725  0.2476
51615SOL     OW61959   4.688   5.476  12.906  1.0823 -0.0575  0.2568
51615SOL    HW161960   4.601   5.439  12.890  1.1079 -0.9713  1.9183
51615SOL    HW261961   4.747   5.401  12.900  1.8163  0.5927 -1.0691
51616SOL     OW61962   2.937   8.880  10.624  0.1222 -0.3190  0.5260
51616SOL    HW161963   3.014   8.880  10.681 -0.4294 -1.9770  1.3046
51616SOL    HW261964   2.913   8.973  10.618  0.6998 -0.0059  2.3038
51617SOL     OW61965   3.223   5.747   4.095  0.0198  0.0704  0.5727
51617SOL    HW161966   3.278   5.763   4.172 -0.3725  0.3131  0.8007
51617SOL    HW261967   3.175   5.667   4.117 -1.8908  1.4404  1.5973
51618SOL     OW61968   2.122  10.129  11.056 -0.5702 -0.0410 -0.0001
51618SOL    HW161969   2.162  10.152  10.972 -0.0025 -0.2881  0.1938
51618SOL    HW261970   2.195  10.096  11.109 -1.2792 -2.0615 -0.1732
51619SOL     OW61971   4.368   5.613   6.261  0.2870  0.3399 -0.0788
51619SOL    HW161972   4.407   5.647   6.180 -0.6671  0.9198 -0.3117
51619SOL    HW261973   4.285   5.575   6.234  0.7767 -1.1264  0.3754
51620SOL     OW61974   1.339   2.283  10.966 -0.2963 -0.0830 -0.7850
51620SOL    HW161975   1.327   2.352  11.031 -1.4482 -0.4747 -0.5642
51620SOL    HW261976   1.430   2.255  10.978 -0.1758  0.5783 -0.0681
51621SOL     OW61977   0.585   9.255  10.001 -0.4164  0.1001 -0.0576
51621SOL    HW161978   0.629   9.188  10.054 -1.6439 -0.6194  0.0779
51621SOL    HW261979   0.551   9.317  10.066 -2.1187 -0.9018  0.0642
51622SOL     OW61980   5.781   5.724  11.342 -0.6202  0.0610  0.0192
51622SOL    HW161981   5.861   5.704  11.391  0.4406 -0.2445 -1.7196
51622SOL    HW261982   5.731   5.781  11.400 -0.0357 -1.2495  1.9204
51623SOL     OW61983   1.779   8.327  11.891  0.5230 -0.7409  0.7461
51623SOL    HW161984   1.777   8.410  11.937  0.2000  0.2817 -1.0408
51623SOL    HW261985   1.695   8.285  11.913 -1.2316  1.2873 -1.5684
51624SOL     OW61986   1.205   3.845  11.382 -0.1149  0.5852  0.0989
51624SOL    HW161987   1.191   3.896  11.461 -0.9233 -0.6871  0.8034
51624SOL    HW261988   1.163   3.760  11.399  1.1373 -0.3134 -1.0494
51625SOL     OW61989   7.558  10.182   6.188 -0.9844 -0.3266  0.1253
51625SOL    HW161990   7.491  10.218   6.129 -2.2620  0.1338  1.7940
51625SOL    HW261991   7.527  10.204   6.276  0.8870 -0.9686  0.9869
51626SOL     OW61992   2.195   9.642  12.757 -0.1986 -0.3732 -0.3039
51626SOL    HW161993   2.106   9.676  12.755 -0.7407 -1.7144 -2.3566
51626SOL    HW261994   2.195   9.579  12.828 -1.3183 -1.3056 -1.0906
51627SOL     OW61995   3.925   6.715   3.262 -0.5139 -0.4053  0.3726
51627SOL    HW161996   3.835   6.748   3.258 -1.0238 -1.7432  0.0479
51627SOL    HW261997   3.931   6.655   3.188  0.6809 -0.2857  0.3574
51628SOL     OW61998   0.403  11.208   6.619 -0.2058  0.1554 -0.2299
51628SOL    HW161999   0.485  11.252   6.643 -0.2022 -0.1598  0.3568
51628SOL    HW262000   0.386  11.236   6.530 -1.0152  2.6235  0.6200
51629SOL     OW62001   4.454  11.982   5.072  0.2370 -0.1504 -0.0040
51629SOL    HW162002   4.545  12.009   5.078 -0.1821  1.2280  0.5089
51629SOL    HW262003   4.409  12.034   5.139 -1.0715 -0.1034 -0.8785
51630SOL     OW62004   0.906   2.645  10.869  0.0009 -0.1027 -0.0458
51630SOL    HW162005   0.996   2.625  10.895 -0.0642  0.4033  0.5954
51630SOL    HW262006   0.913   2.724  10.816  0.0097 -0.4670 -0.5858
51631SOL     OW62007   0.940  11.808   6.854 -0.4360 -0.5001  0.2918
51631SOL    HW162008   0.889  11.816   6.774 -0.9988 -1.4996  0.5223
51631SOL    HW262009   0.886  11.850   6.921 -1.0542 -1.6760  0.5612
51632SOL     OW62010   8.080   4.508   4.776  0.4564  0.6753 -0.0612
51632SOL    HW162011   8.035   4.547   4.700  0.7897 -0.0961 -0.6623
51632SOL    HW262012   8.159   4.468   4.739  0.2513 -0.3438  0.5815
51633SOL     OW62013  12.178   2.467   1.005  0.2824  0.4728  0.4340
51633SOL    HW162014  12.104   2.406   1.012 -0.3251  1.0412 -0.8230
51633SOL    HW262015  12.234   2.430   0.938  0.5035  0.6963  0.4933
51634SOL     OW62016   8.604   9.228   6.904 -0.5813  0.4223 -0.1181
51634SOL    HW162017   8.666   9.212   6.833 -1.3210 -1.3493 -0.4249
51634SOL    HW262018   8.534   9.279   6.864 -0.1421  0.9748 -0.1928
51635SOL     OW62019   7.783   4.958  10.173  0.0250 -0.0049 -0.2680
51635SOL    HW162020   7.759   5.003  10.254 -1.3763  1.5933 -1.4996
51635SOL    HW262021   7.702   4.953  10.123  1.0012 -0.2123 -1.9271
51636SOL     OW62022  11.500   7.606   7.155 -0.2270 -0.0829  0.3491
51636SOL    HW162023  11.477   7.543   7.087  0.0144 -1.4082  1.4397
51636SOL    HW262024  11.516   7.688   7.108 -3.2064 -0.0625 -0.8879
51637SOL     OW62025   0.874  10.272   0.375 -0.1539  0.0475  0.1945
51637SOL    HW162026   0.797  10.261   0.320 -1.4910  0.9063  1.8003
51637SOL    HW262027   0.942  10.220   0.332 -1.1628  0.5248 -2.1124
51638SOL     OW62028  10.953   5.093  10.783 -0.2903  0.4417 -0.3858
51638SOL    HW162029  10.870   5.098  10.831 -0.3390  1.2093 -0.5293
51638SOL    HW262030  10.928   5.075  10.693 -0.3971  1.8200 -0.6569
51639SOL     OW62031   1.885   4.495  11.595 -0.3366 -0.2447 -0.9798
51639SOL    HW162032   1.952   4.431  11.570  0.7485 -0.1002  1.2858
51639SOL    HW262033   1.810   4.473  11.540  0.7741 -1.9493 -1.9325
51640SOL     OW62034   3.093  11.141   9.787  0.4753  0.3019 -0.0208
51640SOL    HW162035   3.050  11.090   9.855  2.4175 -3.6018 -1.4302
51640SOL    HW262036   3.030  11.144   9.716  0.4374 -0.3849 -0.0207
51641SOL     OW62037  11.743  12.552  11.889 -0.1951  0.0543 -0.2957
51641SOL    HW162038  11.712  12.623  11.832  1.6377  0.5288 -0.7646
51641SOL    HW262039  11.761  12.480  11.830  1.2005  0.3667 -0.2693
51642SOL     OW62040  12.823  11.393  12.836  0.2461 -0.1323  0.0702
51642SOL    HW162041  12.834  11.327  12.903  0.4020 -0.4886 -0.3033
51642SOL    HW262042  12.907  11.438  12.831  0.4376 -0.5295 -0.3303
51643SOL     OW62043   7.661   0.020   0.091  0.5235 -0.5942 -0.4764
51643SOL    HW162044   7.667   0.060   0.004  1.9712 -0.8733 -0.5291
51643SOL    HW262045   7.695   0.086   0.151  2.7090 -1.5775 -0.5390
51644SOL     OW62046   8.029   4.163   5.499  0.0723  0.3421  0.5495
51644SOL    HW162047   7.952   4.185   5.552  0.1010  1.2402  0.2500
51644SOL    HW262048   8.026   4.068   5.489 -0.2376  0.2155  1.6882
51645SOL     OW62049   6.610   1.266   0.412 -0.0923 -0.6347  0.8936
51645SOL    HW162050   6.634   1.346   0.459 -3.0481  0.3158  0.9968
51645SOL    HW262051   6.622   1.196   0.476  1.7108 -0.2247  1.0748
51646SOL     OW62052   5.532   4.260  10.476  0.2950 -0.0751  0.4016
51646SOL    HW162053   5.517   4.353  10.460 -0.1626  0.1463  1.9074
51646SOL    HW262054   5.454   4.216  10.442 -0.2341  0.2750  1.1311
51647SOL     OW62055   0.039   1.620   6.027 -0.2315  0.0349  0.3129
51647SOL    HW162056   0.058   1.533   5.993  2.6868  1.3135 -1.7387
51647SOL    HW262057   0.059   1.616   6.120 -1.0067 -1.6578  0.4353
51648SOL     OW62058   2.229  12.339  11.808 -0.7021 -0.0354 -0.2427
51648SOL    HW162059   2.265  12.398  11.742  0.6435 -0.9318 -0.3294
51648SOL    HW262060   2.152  12.386  11.841 -0.0025  1.5130 -0.7014
51649SOL     OW62061   3.366   2.307  12.069 -0.0108  0.2121 -0.0579
51649SOL    HW162062   3.442   2.296  12.011 -0.3055  0.0677 -0.4256
51649SOL    HW262063   3.297   2.338  12.011 -0.1804  0.5262  0.3128
51650SOL     OW62064   3.324   7.801   3.352  0.3364 -0.0627 -0.1811
51650SOL    HW162065   3.418   7.815   3.359  0.1032  1.8798 -0.3526
51650SOL    HW262066   3.288   7.842   3.431 -0.4075 -0.0654 -0.5124
51651SOL     OW62067  11.662   6.690   2.525 -0.2459  0.4119  0.5259
51651SOL    HW162068  11.668   6.782   2.499 -0.3823  1.4541  3.7143
51651SOL    HW262069  11.748   6.669   2.560 -0.1096 -0.8278 -0.5057
51652SOL     OW62070  11.667   0.413   7.645 -0.3768  0.3681 -0.2296
51652SOL    HW162071  11.587   0.443   7.600 -1.3947 -2.1667 -0.2537
51652SOL    HW262072  11.730   0.399   7.574 -1.2345 -1.4028 -0.7005
51653SOL     OW62073   5.047   5.362   5.269  0.0541 -0.3133  0.4049
51653SOL    HW162074   4.972   5.393   5.219  1.2728 -0.0767 -1.3712
51653SOL    HW262075   5.041   5.408   5.353  0.2361  2.6165 -1.0619
51654SOL     OW62076   4.220   3.313   9.365 -0.1383  0.4388  0.4376
51654SOL    HW162077   4.150   3.316   9.300 -1.1301  1.6651  1.4864
51654SOL    HW262078   4.189   3.249   9.429  1.2522 -1.4432 -0.6907
51655SOL     OW62079   6.378   5.726   1.124  0.9364 -0.4014 -0.2461
51655SOL    HW162080   6.304   5.785   1.129  1.2130 -0.0246  4.7354
51655SOL    HW262081   6.449   5.778   1.086 -0.3673  0.3838 -1.6722
51656SOL     OW62082   2.791   1.661  12.941 -0.2101 -0.3225 -0.0270
51656SOL    HW162083   2.798   1.631  12.850  3.2162 -0.9829  0.3171
51656SOL    HW262084   2.704   1.632  12.969 -1.0585 -0.7844 -2.8254
51657SOL     OW62085  12.277   0.790   1.688 -0.2070 -0.5073  0.2616
51657SOL    HW162086  12.271   0.734   1.611  0.4026 -0.7794  0.4051
51657SOL    HW262087  12.188   0.794   1.722 -0.3470 -0.9850 -0.0344
51658SOL     OW62088   3.980  12.729   9.156 -0.2500  0.0522 -0.3609
51658SOL    HW162089   3.929  12.782   9.096 -0.3256  1.6485  1.0519
51658SOL    HW262090   4.058  12.781   9.174  0.6067 -1.1607 -0.3812
51659SOL     OW62091   9.939   0.601   0.756  0.0187  0.2315  0.3674
51659SOL    HW162092   9.960   0.670   0.819  0.9049 -0.8999  1.3506
51659SOL    HW262093  10.022   0.554   0.743 -0.4898 -0.4507 -0.5227
51660SOL     OW62094   3.518   2.160   6.066 -0.0205 -0.0803 -0.1224
51660SOL    HW162095   3.611   2.169   6.082 -0.0835 -0.5629  0.5302
51660SOL    HW262096   3.476   2.217   6.130 -0.2069 -0.7627  0.3843
51661SOL     OW62097   1.466   2.485  12.720 -0.4036 -0.6429  0.1294
51661SOL    HW162098   1.562   2.485  12.722 -0.3272 -0.2159 -1.7013
51661SOL    HW262099   1.440   2.473  12.811  1.3972  1.3325  0.9825
51662SOL     OW62100  12.600   0.520   3.778  0.4298  0.2006 -0.7638
51662SOL    HW162101  12.688   0.492   3.800 -0.0222 -1.0035 -0.4132
51662SOL    HW262102  12.581   0.476   3.695  0.8009  1.8768 -1.7747
51663SOL     OW62103  10.981   0.566   4.739  0.1193  0.4061  0.8045
51663SOL    HW162104  11.004   0.591   4.649  3.5015  1.4422  1.7908
51663SOL    HW262105  10.991   0.471   4.741 -0.6125  0.3031 -0.0552
51664SOL     OW62106   3.809   3.558   2.558  0.8735  0.4693 -0.0213
51664SOL    HW162107   3.782   3.511   2.637  0.4910 -0.1043 -0.4893
51664SOL    HW262108   3.769   3.645   2.567  0.3423  0.2138  0.1387
51665SOL     OW62109   3.500  12.661  10.057 -0.2743 -0.2033 -0.1504
51665SOL    HW162110   3.448  12.728  10.100 -0.4626  0.2521 -1.0525
51665SOL    HW262111   3.495  12.683   9.964  1.4928 -0.1579 -0.2753
51666SOL     OW62112   1.390   2.205   8.607 -0.0344  0.1034 -0.5050
51666SOL    HW162113   1.436   2.154   8.674 -3.6283 -0.1695  2.0476
51666SOL    HW262114   1.314   2.151   8.584 -1.5734  2.3849 -1.0500
51667SOL     OW62115  11.971  10.121  11.570 -0.3700  0.4555 -0.3182
51667SOL    HW162116  11.921  10.082  11.498 -0.7389  0.6349 -0.1652
51667SOL    HW262117  12.060  10.128  11.537 -0.4463  0.1300 -0.5980
51668SOL     OW62118  12.260   6.900   0.007 -0.4022  0.3097 -0.1076
51668SOL    HW162119  12.296   6.850  -0.066  0.6391  0.3612  0.3443
51668SOL    HW262120  12.206   6.838   0.055  0.3593 -0.2092  0.0823
51669SOL     OW62121   4.269   4.355   9.231 -0.5171 -0.0520 -0.0590
51669SOL    HW162122   4.244   4.399   9.149  1.0169 -0.6257 -0.8729
51669SOL    HW262123   4.207   4.388   9.295 -1.7411  0.4535 -1.4410
51670SOL     OW62124   0.135  11.034   8.825  0.7066  0.1211 -0.0068
51670SOL    HW162125   0.100  11.102   8.767  0.9508 -0.2337 -0.5867
51670SOL    HW262126   0.071  10.963   8.820  1.2738 -0.3596 -0.7358
51671SOL     OW62127   7.011  10.857  12.629  0.0824 -0.2615  0.5923
51671SOL    HW162128   6.957  10.909  12.689 -0.4620 -1.6955  1.4021
51671SOL    HW262129   6.948  10.815  12.571  0.5702  0.5940 -0.5853
51672SOL     OW62130  10.323   3.170  10.323 -0.1585 -0.1596  0.1176
51672SOL    HW162131  10.412   3.191  10.351 -0.1620 -1.5478  1.2992
51672SOL    HW262132  10.267   3.222  10.380 -0.1098 -0.8051  0.7805
51673SOL     OW62133   7.081   7.845   8.184 -0.0587 -1.0701 -0.1656
51673SOL    HW162134   7.174   7.831   8.205  0.0195 -1.8505 -0.9588
51673SOL    HW262135   7.074   7.819   8.092 -0.9484 -0.4387 -0.2828
51674SOL     OW62136   9.992   4.257   1.077 -0.0613 -0.4909 -0.7190
51674SOL    HW162137  10.011   4.165   1.092 -0.9754 -0.7437 -1.0854
51674SOL    HW262138  10.077   4.301   1.090  0.4587 -1.4123 -0.9079
51675SOL     OW62139   7.872  10.790  12.665 -0.6433 -0.1726  0.1576
51675SOL    HW162140   7.900  10.809  12.755 -1.6833  1.8654  0.1091
51675SOL    HW262141   7.778  10.773  12.672 -0.6040 -0.6776 -0.4575
51676SOL     OW62142   6.502   4.545   3.541 -0.2106 -0.1196 -0.1571
51676SOL    HW162143   6.525   4.526   3.632  2.5207 -0.0608 -0.7379
51676SOL    HW262144   6.505   4.640   3.535  0.2618 -0.1503 -0.4443
51677SOL     OW62145   5.155   5.122   5.226  0.1904  0.1530 -0.2257
51677SOL    HW162146   5.139   5.192   5.289  0.9246  0.2082 -0.0874
51677SOL    HW262147   5.089   5.134   5.159 -0.1375  0.5433  0.1625
51678SOL     OW62148   3.399  10.319   2.773 -0.5508 -0.6313  0.4059
51678SOL    HW162149   3.464  10.382   2.802 -0.9939 -0.1967  0.4658
51678SOL    HW262150   3.324  10.372   2.746 -1.3188 -1.1698  1.4120
51679SOL     OW62151   3.384   5.992   2.297 -0.1386  0.0893 -0.1934
51679SOL    HW162152   3.443   5.938   2.349 -1.1539  0.1851  1.0986
51679SOL    HW262153   3.394   5.960   2.208  2.2028  0.3985 -0.1210
51680SOL     OW62154   8.525   9.443   3.274  0.0297  0.2187  0.1144
51680SOL    HW162155   8.472   9.470   3.199  0.0673  1.4053  0.4986
51680SOL    HW262156   8.477   9.369   3.311 -1.2082  1.0732  0.2724
51681SOL     OW62157   4.340  11.158   1.450  0.0919 -0.3185  0.1676
51681SOL    HW162158   4.301  11.246   1.456  0.7798  0.0206 -0.1763
51681SOL    HW262159   4.277  11.101   1.492 -0.0462  0.4503  1.0484
51682SOL     OW62160   4.117   0.226  10.087  0.3052 -0.3980 -0.2196
51682SOL    HW162161   4.037   0.187  10.050  0.7889 -0.6332 -1.0389
51682SOL    HW262162   4.094   0.318  10.100 -0.4229 -0.6755  0.5025
51683SOL     OW62163   5.713  12.795   7.350  0.5722  0.4592  0.4617
51683SOL    HW162164   5.662  12.876   7.343  0.2135  0.1209 -1.2569
51683SOL    HW262165   5.785  12.806   7.289 -1.0820 -1.6017 -2.0953
51684SOL     OW62166   6.258  11.227  12.456  0.3552 -0.3800  0.2774
51684SOL    HW162167   6.352  11.218  12.447  0.4995  1.6427 -0.8974
51684SOL    HW262168   6.230  11.269  12.375 -1.1024  1.7271  1.7540
51685SOL     OW62169   6.150   2.894   8.596 -0.0411 -0.6445 -0.2747
51685SOL    HW162170   6.245   2.902   8.596 -0.1323  0.8970 -1.1559
51685SOL    HW262171   6.119   2.981   8.573 -1.6833 -1.0594  0.2414
51686SOL     OW62172   1.720   7.944  12.907  0.2291 -0.4090  0.3857
51686SOL    HW162173   1.701   7.991  12.988 -1.5711  0.6351 -0.5810
51686SOL    HW262174   1.676   7.994  12.839  0.3790 -2.1129 -1.0496
51687SOL     OW62175  10.086   3.983  12.570 -0.6881 -0.2238  0.2966
51687SOL    HW162176  10.035   3.913  12.610 -0.9217  0.0006  0.3875
51687SOL    HW262177  10.023   4.033  12.519 -0.5372 -0.0222  0.3066
51688SOL     OW62178  10.212   1.560   1.436  0.2098  0.6787 -0.0698
51688SOL    HW162179  10.259   1.478   1.424 -1.3464 -0.3375  0.4636
51688SOL    HW262180  10.122   1.540   1.411 -0.8427  1.3914  2.7170
51689SOL     OW62181   2.631   1.866   9.164  0.0783 -0.2740 -0.2816
51689SOL    HW162182   2.630   1.837   9.255 -0.4529  0.4821 -0.0301
51689SOL    HW262183   2.711   1.829   9.127  0.8319  0.2453  0.7743
51690SOL     OW62184  10.405  11.463   4.331 -0.3441 -0.2402  0.1646
51690SOL    HW162185  10.375  11.516   4.257 -0.8031 -0.7018  0.0156
51690SOL    HW262186  10.373  11.510   4.408  0.2789  0.3315  0.0825
51691SOL     OW62187  12.712   8.105  11.322  0.1391 -0.4881 -0.7307
51691SOL    HW162188  12.635   8.099  11.265 -0.0848 -1.0244 -0.3750
51691SOL    HW262189  12.747   8.017  11.325  0.2384 -0.4328 -0.1607
51692SOL     OW62190   0.501   9.975   9.983 -0.4795 -0.0412  0.0637
51692SOL    HW162191   0.485  10.056  10.032 -0.2830  0.2602 -0.3634
51692SOL    HW262192   0.417   9.957   9.939  0.4824  2.0769 -2.9658
51693SOL     OW62193   4.747   4.556   5.328  0.7153 -0.0335  0.0262
51693SOL    HW162194   4.663   4.512   5.343  0.2418  0.6246 -0.5858
51693SOL    HW262195   4.809   4.485   5.313  0.1688 -0.5231  0.0453
51694SOL     OW62196  10.834   1.560  11.599  0.2687  0.4284 -0.3951
51694SOL    HW162197  10.815   1.510  11.520 -0.4614 -0.3923  0.2835
51694SOL    HW262198  10.803   1.648  11.580 -3.4946 -0.5656  0.2525
51695SOL     OW62199   7.480   7.279   3.855 -0.1446 -0.4496  0.6843
51695SOL    HW162200   7.421   7.209   3.826 -0.0335 -1.5531  2.8699
51695SOL    HW262201   7.566   7.237   3.859  0.4275  0.5531 -0.3761
51696SOL     OW62202  11.646   5.993   6.086 -0.0662 -0.0308  0.0464
51696SOL    HW162203  11.664   5.990   6.180  0.4904 -0.6486 -0.0719
51696SOL    HW262204  11.671   6.082   6.060  1.4328 -0.3892  0.1723
51697SOL     OW62205   9.166  11.580   8.058 -0.2754  0.2630 -0.0635
51697SOL    HW162206   9.193  11.659   8.011 -0.6074  0.1846 -0.3856
51697SOL    HW262207   9.172  11.605   8.151  1.0668  0.1927 -0.1121
51698SOL     OW62208   5.968   2.563   7.021 -0.1542  0.3181  0.1081
51698SOL    HW162209   6.012   2.505   7.083 -0.0114 -1.5310 -1.5915
51698SOL    HW262210   5.979   2.651   7.057 -0.4552 -0.6802  2.8739
51699SOL     OW62211   2.797   6.542  12.513 -0.6789 -0.9099 -0.4548
51699SOL    HW162212   2.885   6.563  12.481 -0.3946 -1.1400  0.1401
51699SOL    HW262213   2.804   6.451  12.543  0.1175  0.2576  3.5258
51700SOL     OW62214  11.376   3.716   1.520  0.7833  0.4154 -0.7984
51700SOL    HW162215  11.302   3.664   1.490  0.1709  0.7917  0.0045
51700SOL    HW262216  11.448   3.690   1.463 -0.0087  0.1930 -1.7332
51701SOL     OW62217  12.784   1.440   1.115 -0.6292  0.0253  0.8371
51701SOL    HW162218  12.732   1.408   1.041 -0.1866 -0.4343  0.7201
51701SOL    HW262219  12.833   1.514   1.079 -0.5118 -0.1163  0.7039
51702SOL     OW62220   9.242   3.392   7.301 -0.4196 -0.4218 -0.4965
51702SOL    HW162221   9.278   3.303   7.304 -0.6320 -0.5186 -0.8132
51702SOL    HW262222   9.250   3.424   7.391  1.1581 -0.1616 -0.6931
51703SOL     OW62223   1.088  11.891   9.874 -0.4471  0.1800 -0.0623
51703SOL    HW162224   1.098  11.942   9.954  1.4424 -0.5716  0.2245
51703SOL    HW262225   1.031  11.944   9.819 -0.8976  1.2152  1.3509
51704SOL     OW62226  11.934   0.322   9.588 -0.6230 -0.5658  0.1925
51704SOL    HW162227  11.904   0.397   9.639 -0.4176  1.0768 -1.9568
51704SOL    HW262228  11.889   0.247   9.627 -2.2240  0.9001  1.3225
51705SOL     OW62229  10.873   8.915  10.981  0.4464  0.2530  0.0658
51705SOL    HW162230  10.892   9.009  10.976 -0.0621  0.3141 -0.8594
51705SOL    HW262231  10.923   8.877  10.909 -0.5980  0.0308 -0.5556
51706SOL     OW62232  11.359   6.497  10.454 -0.2849 -0.3897  0.4329
51706SOL    HW162233  11.355   6.537  10.541  1.5773 -0.8559  0.7677
51706SOL    HW262234  11.450   6.471  10.444 -0.3670  0.0523 -1.8485
51707SOL     OW62235   5.264   4.248   9.899  0.4187  0.2009  0.2341
51707SOL    HW162236   5.188   4.304   9.908 -0.0807 -0.6358  1.3854
51707SOL    HW262237   5.312   4.284   9.824 -0.9020  0.9538 -0.2655
51708SOL     OW62238  11.302   0.780   9.350  0.3305 -0.0367 -0.3700
51708SOL    HW162239  11.286   0.686   9.363 -0.5808 -0.0967 -1.7786
51708SOL    HW262240  11.387   0.784   9.307  1.4863 -0.0482  1.7689
51709SOL     OW62241   4.004   2.876  12.586 -0.3745 -0.2643 -0.1060
51709SOL    HW162242   4.011   2.919  12.671 -0.3268  1.7622 -1.0708
51709SOL    HW262243   3.930   2.919  12.543  1.0124  0.4127 -1.9691
51710SOL     OW62244   6.729   8.885  12.328 -0.1755  0.2345  0.5030
51710SOL    HW162245   6.696   8.803  12.366 -1.8605  0.1492 -0.9922
51710SOL    HW262246   6.794   8.856  12.263  1.4016  0.2900  1.9919
51711SOL     OW62247   8.993   3.362   0.261  0.5264 -0.8039 -0.0198
51711SOL    HW162248   8.933   3.308   0.313  1.3480 -0.6493  1.1160
51711SOL    HW262249   8.951   3.368   0.176 -1.6347  0.2266  1.0465
51712SOL     OW62250   9.234   1.592   4.677  0.2461 -0.6113  0.3956
51712SOL    HW162251   9.153   1.602   4.627  0.9022 -2.1667 -1.0745
51712SOL    HW262252   9.272   1.680   4.679 -0.5167 -0.2367 -0.6202
51713SOL     OW62253   5.466  10.804   4.373  0.9117 -1.1982 -0.6424
51713SOL    HW162254   5.445  10.734   4.434 -1.5568  0.6885  0.8284
51713SOL    HW262255   5.419  10.781   4.293  0.3733 -1.3578 -0.2799
51714SOL     OW62256   1.106   2.315   6.781 -0.3071  0.2304  0.2433
51714SOL    HW162257   1.112   2.408   6.761  0.8808 -0.2026 -1.7200
51714SOL    HW262258   1.176   2.299   6.845  1.8599  0.1397 -2.0173
51715SOL     OW62259   0.117  12.745   1.495 -0.4062  0.0619  0.3390
51715SOL    HW162260   0.138  12.765   1.586  1.3423  2.9625 -0.5735
51715SOL    HW262261   0.030  12.781   1.480 -0.4693  0.0608  0.7130
51716SOL     OW62262   0.360   8.218  11.152 -0.3110 -0.0106  0.1728
51716SOL    HW162263   0.314   8.302  11.148 -0.5532 -0.0841  1.2621
51716SOL    HW262264   0.292   8.155  11.175 -0.0455 -0.4423 -0.2118
51717SOL     OW62265   2.135   4.251   7.094 -0.0842  0.5212 -0.4088
51717SOL    HW162266   2.167   4.184   7.034 -0.6704  0.0633 -0.2201
51717SOL    HW262267   2.110   4.203   7.173  0.8158  1.1309  0.2782
51718SOL     OW62268  12.699   6.039   1.769  0.2980 -0.2146 -0.2054
51718SOL    HW162269  12.722   6.097   1.842 -0.1985 -0.3186  0.0393
51718SOL    HW262270  12.765   6.057   1.702 -0.1005  0.9705 -0.3093
51719SOL     OW62271   1.753  10.743   9.672 -0.4625  0.4041 -0.3007
51719SOL    HW162272   1.710  10.825   9.697 -0.5380  0.0832  0.6968
51719SOL    HW262273   1.843  10.769   9.651 -0.4121  0.7143  0.2751
51720SOL     OW62274   0.079  11.367   4.888  0.2559  0.1842  0.4364
51720SOL    HW162275   0.012  11.323   4.835  0.4258  1.3616 -0.8235
51720SOL    HW262276   0.149  11.303   4.895  0.2548 -0.0012 -0.8642
51721SOL     OW62277   7.836   4.729   7.656  0.1482 -0.5155 -0.0612
51721SOL    HW162278   7.746   4.756   7.640  0.7747  1.1880 -0.9677
51721SOL    HW262279   7.849   4.740   7.750 -0.2852  0.2530 -0.0867
51722SOL     OW62280  12.741   9.651  10.086  0.0766 -0.4178  0.1041
51722SOL    HW162281  12.795   9.660  10.165 -0.5601 -0.6490  0.5793
51722SOL    HW262282  12.738   9.557  10.069  0.8378 -0.3090 -0.6485
51723SOL     OW62283  11.136  12.495   5.766  0.0598 -0.2124  0.0281
51723SOL    HW162284  11.159  12.402   5.772 -0.0953 -0.2545 -0.0155
51723SOL    HW262285  11.123  12.522   5.857 -0.3501 -0.3507  0.0121
51724SOL     OW62286   9.060   6.926   3.799  0.2757  0.3113  0.5201
51724SOL    HW162287   8.984   6.979   3.776  0.0429 -0.5913 -0.9045
51724SOL    HW262288   9.066   6.861   3.730  0.9559 -1.1142  1.8566
51725SOL     OW62289   0.870   3.101   5.478 -0.3188  0.2470 -0.0079
51725SOL    HW162290   0.791   3.153   5.461  0.3474  1.8595  1.5533
51725SOL    HW262291   0.867   3.031   5.413 -1.3086  2.1907 -2.1789
51726SOL     OW62292   8.425  12.411   9.272 -0.0236 -0.2812 -0.4023
51726SOL    HW162293   8.412  12.477   9.340  0.7644 -1.4972  0.9735
51726SOL    HW262294   8.363  12.341   9.294 -1.9910  0.5779 -2.7460
51727SOL     OW62295   6.909   5.579   4.450 -0.5195  0.8762  0.0970
51727SOL    HW162296   6.813   5.584   4.455 -0.5483  0.2644  0.2842
51727SOL    HW262297   6.934   5.533   4.529 -0.3797 -2.2942 -1.6041
51728SOL     OW62298  12.308   6.912   2.800 -0.6920 -0.2572  0.6855
51728SOL    HW162299  12.255   6.832   2.794 -0.0939 -0.6434  0.3673
51728SOL    HW262300  12.345   6.922   2.713  1.2824 -1.0890  1.3612
51729SOL     OW62301   8.720   3.694  10.494  0.1287  0.4462  0.7190
51729SOL    HW162302   8.813   3.716  10.499  0.4836 -0.3689 -1.4290
51729SOL    HW262303   8.716   3.617  10.438 -1.8859  0.7361  0.3749
51730SOL     OW62304   7.443   9.552   6.628 -0.3431 -0.1879 -0.1208
51730SOL    HW162305   7.480   9.637   6.650  0.3608 -0.3473 -0.6482
51730SOL    HW262306   7.515   9.505   6.586 -0.5861 -1.2001  0.5462
51731SOL     OW62307   9.776  11.979   2.345 -0.1819  0.4730  0.1129
51731SOL    HW162308   9.731  11.899   2.317  1.2161 -1.2184  2.4064
51731SOL    HW262309   9.864  11.970   2.308 -0.3431  1.5448 -0.5608
51732SOL     OW62310   3.762   8.383   2.205  0.5823  0.0277 -0.0326
51732SOL    HW162311   3.742   8.338   2.123  0.1397 -1.0073  0.6081
51732SOL    HW262312   3.676   8.403   2.242  0.7554 -0.5950  0.7327
51733SOL     OW62313   0.724   6.463   4.496 -0.4388  0.1802  0.0928
51733SOL    HW162314   0.631   6.467   4.476 -0.3775 -0.1294 -0.2597
51733SOL    HW262315   0.765   6.428   4.416  0.0657  1.0209 -0.0309
51734SOL     OW62316  12.896   5.680   2.485  0.0412 -0.2533 -0.4778
51734SOL    HW162317  12.910   5.765   2.526 -2.6055  0.2726 -0.4670
51734SOL    HW262318  12.813   5.649   2.521 -0.2600 -1.7329 -2.2684
51735SOL     OW62319   7.034   5.579  10.342  0.5862  0.0403 -0.2823
51735SOL    HW162320   7.001   5.542  10.424  1.7935 -2.2920 -0.7602
51735SOL    HW262321   7.130   5.573  10.350  0.7467  0.8017 -1.4280
51736SOL     OW62322   4.219   0.571   4.723 -0.0470 -0.4276 -0.3426
51736SOL    HW162323   4.293   0.511   4.712  0.4676  0.1060  0.0939
51736SOL    HW262324   4.207   0.611   4.636  1.2442  0.6643 -0.0612
51737SOL     OW62325   5.887   6.651  10.669  0.5109  0.4101  0.4517
51737SOL    HW162326   5.841   6.574  10.636  1.8395 -0.3339  0.2444
51737SOL    HW262327   5.980   6.634  10.650  1.0147  1.3204  1.8620
51738SOL     OW62328   7.116   1.405   1.369 -0.0607  0.1443 -0.4084
51738SOL    HW162329   7.171   1.444   1.437 -1.8144  0.1456  1.0786
51738SOL    HW262330   7.117   1.311   1.389 -3.1140  0.4281  1.7122
51739SOL     OW62331   7.155   8.484   1.230  0.1569 -0.1054  0.0930
51739SOL    HW162332   7.069   8.523   1.216  0.5792  0.8215 -0.0162
51739SOL    HW262333   7.186   8.522   1.312 -0.4442 -2.1301  1.3171
51740SOL     OW62334   4.987   0.487  11.958 -0.7813  0.8120 -0.4191
51740SOL    HW162335   4.930   0.554  11.921 -1.2332  0.9723  0.5303
51740SOL    HW262336   5.068   0.534  11.980 -1.5764  1.3721  1.4784
51741SOL     OW62337   2.329  10.363   1.735 -0.4028 -0.6535  0.1337
51741SOL    HW162338   2.359  10.332   1.820  0.3270  0.5636  0.3378
51741SOL    HW262339   2.312  10.457   1.748 -0.5767 -0.5142 -0.9788
51742SOL     OW62340   9.421  11.081   5.280 -0.8190 -0.2705 -0.1021
51742SOL    HW162341   9.477  11.068   5.203  0.5027 -1.2247  0.9918
51742SOL    HW262342   9.333  11.090   5.243 -0.3860 -1.8807 -1.6813
51743SOL     OW62343   4.041   6.304  10.103 -0.2596 -0.1545  0.4145
51743SOL    HW162344   4.066   6.230  10.157 -1.4590 -0.5297  0.4823
51743SOL    HW262345   3.950   6.322  10.127  0.3697  2.1757  1.3420
51744SOL     OW62346  10.524   5.442   9.888  0.3847 -0.1558  0.2090
51744SOL    HW162347  10.588   5.476   9.825  1.6331 -0.4804  1.2674
51744SOL    HW262348  10.442   5.483   9.863  1.3943  1.8738  0.0488
51745SOL     OW62349   7.747   1.968  10.056  0.1890  0.2599  0.0562
51745SOL    HW162350   7.752   2.064  10.053  3.2863  0.2072  0.4897
51745SOL    HW262351   7.742   1.942   9.965  1.6142  0.8284 -0.2132
51746SOL     OW62352   5.340   8.283   6.006  0.2265 -0.0385 -0.1323
51746SOL    HW162353   5.411   8.226   5.977  0.5096 -0.0068  0.4684
51746SOL    HW262354   5.374   8.372   5.993  1.2458  0.0098  2.2352
51747SOL     OW62355   7.868   6.093   6.019  0.0506  0.2233  0.1233
51747SOL    HW162356   7.876   6.009   6.064  0.7732  0.2793  0.1160
51747SOL    HW262357   7.841   6.154   6.088 -3.1436 -0.4679 -0.3651
51748SOL     OW62358   7.122  12.720   7.828  0.3419 -0.0823 -0.5485
51748SOL    HW162359   7.151  12.637   7.866 -0.4694  0.4400  1.2941
51748SOL    HW262360   7.199  12.752   7.780  1.7421 -0.3811  1.3815
51749SOL     OW62361   7.991  12.891   8.213  0.6675  0.4831 -0.6144
51749SOL    HW162362   7.912  12.943   8.201 -0.3395 -0.9718 -0.5273
51749SOL    HW262363   8.027  12.921   8.297 -0.7114  0.0297  0.1725
51750SOL     OW62364   1.904  12.200   5.023  0.1956 -0.7525 -0.1051
51750SOL    HW162365   1.961  12.213   4.947 -0.6925  1.0408 -0.5279
51750SOL    HW262366   1.852  12.123   5.000 -0.4515  0.0775 -1.6184
51751SOL     OW62367  11.600   7.023  12.419 -0.5272  0.0540 -1.0048
51751SOL    HW162368  11.680   7.070  12.395 -0.0533  0.7695  1.6088
51751SOL    HW262369  11.629   6.962  12.488 -2.0831 -0.2935 -0.6288
51752SOL     OW62370   7.006   1.616   7.836 -0.1404  0.4860 -0.1760
51752SOL    HW162371   7.055   1.639   7.915  0.3252 -0.0454 -0.2985
51752SOL    HW262372   6.915   1.634   7.857 -0.0403  0.1548  0.5575
51753SOL     OW62373  12.551  10.081   4.025 -0.7770 -0.2727 -0.0683
51753SOL    HW162374  12.623  10.145   4.029  0.0556 -1.2023  0.4788
51753SOL    HW262375  12.501  10.096   4.105 -0.3539 -0.5341  0.2565
51754SOL     OW62376   0.226  12.539   9.415 -0.0956  0.5428  0.0906
51754SOL    HW162377   0.286  12.470   9.440  1.1167  1.0474 -1.2731
51754SOL    HW262378   0.254  12.616   9.466  0.6971  0.8817 -0.8348
51755SOL     OW62379   2.094  12.844   2.326 -0.2756  0.0603 -0.1014
51755SOL    HW162380   2.013  12.892   2.343 -0.1421  0.4142 -0.4533
51755SOL    HW262381   2.097  12.834   2.231 -1.4621 -2.6732  0.0655
51756SOL     OW62382   8.415   1.982   1.713 -0.8577  0.3072  0.3237
51756SOL    HW162383   8.356   2.030   1.654 -1.0789 -1.3385 -0.8694
51756SOL    HW262384   8.419   2.037   1.792 -1.4841  2.0095 -0.7535
51757SOL     OW62385   5.259   5.281   7.740 -0.2516 -0.1885  0.0105
51757SOL    HW162386   5.265   5.257   7.647 -1.4844 -0.3565 -0.0505
51757SOL    HW262387   5.348   5.271   7.774 -0.0344 -1.3767 -0.8532
51758SOL     OW62388   1.300  10.052   8.711 -0.3483 -0.1632  0.1583
51758SOL    HW162389   1.385  10.008   8.715 -0.0632  0.1529 -1.7811
51758SOL    HW262390   1.254  10.010   8.639 -2.6677 -1.6384  2.3399
51759SOL     OW62391   6.886   8.055   7.971 -0.0958 -0.2917  0.2526
51759SOL    HW162392   6.796   8.070   8.000 -0.1678  0.3521 -0.3028
51759SOL    HW262393   6.898   7.960   7.980 -0.9894 -0.4501 -0.1496
51760SOL     OW62394  12.430   3.817   3.228 -0.5981  0.0523 -0.4358
51760SOL    HW162395  12.448   3.898   3.277 -1.8161 -0.5256  1.0508
51760SOL    HW262396  12.391   3.847   3.146 -0.0540  1.0122 -0.3601
51761SOL     OW62397   8.208   9.473   6.512  0.2841 -0.4780 -0.8521
51761SOL    HW162398   8.158   9.396   6.486  1.3436 -1.9102  1.1177
51761SOL    HW262399   8.278   9.478   6.446 -1.1446  0.2604 -2.3623
51762SOL     OW62400   8.483   4.198   8.373 -0.5610  0.2399  0.1750
51762SOL    HW162401   8.495   4.253   8.451 -1.0650 -1.3085  1.3904
51762SOL    HW262402   8.405   4.234   8.331 -0.0952  1.3030  0.1689
51763SOL     OW62403  10.554   5.518   0.643  0.2471  0.3430 -0.1848
51763SOL    HW162404  10.476   5.462   0.643  0.1204  0.4824  0.9381
51763SOL    HW262405  10.525   5.599   0.686  1.1475  0.1697  0.7984
51764SOL     OW62406   8.423   5.431   5.940 -0.0994 -0.8219 -0.2491
51764SOL    HW162407   8.454   5.356   5.991  1.8942 -0.9173 -1.4965
51764SOL    HW262408   8.347   5.398   5.891  0.0294 -1.6707  0.1174
51765SOL     OW62409   3.210   2.959   6.059 -0.2370 -0.3907  0.3474
51765SOL    HW162410   3.283   2.984   6.002 -1.4858 -0.9502 -1.5862
51765SOL    HW262411   3.213   2.864   6.061  1.2820 -0.4397  3.3813
51766SOL     OW62412  10.145   4.956   2.015 -0.4364  0.4062  0.1211
51766SOL    HW162413  10.105   4.898   1.950 -0.8351 -0.3988  1.0577
51766SOL    HW262414  10.212   4.902   2.057  0.6644  1.2978 -0.4317
51767SOL     OW62415   9.734   6.854   8.737 -0.1109 -0.0918 -0.2588
51767SOL    HW162416   9.742   6.888   8.648 -0.9637 -0.3054 -0.4238
51767SOL    HW262417   9.717   6.761   8.727  1.6274 -0.4866  0.1833
51768SOL     OW62418   9.120   4.181   2.741 -0.4904 -0.5836  0.0869
51768SOL    HW162419   9.104   4.229   2.660 -1.7617 -0.0420  0.6305
51768SOL    HW262420   9.075   4.097   2.728  0.6503 -1.1483 -0.3643
51769SOL     OW62421   0.871   1.579  12.255 -0.6012 -0.1478  0.0291
51769SOL    HW162422   0.896   1.670  12.270  1.8097 -0.8191  0.4151
51769SOL    HW262423   0.781   1.584  12.222 -0.6230  2.3333  0.3065
51770SOL     OW62424   7.539   7.628  10.811  0.1467  0.2237 -0.6060
51770SOL    HW162425   7.561   7.646  10.902 -1.7161  1.2599 -0.3074
51770SOL    HW262426   7.614   7.578  10.777  0.9115 -0.0977  1.4404
51771SOL     OW62427   1.062   8.545   0.879 -0.1665  0.3358  0.2888
51771SOL    HW162428   1.060   8.467   0.934 -1.3647  0.8416  1.0048
51771SOL    HW262429   1.007   8.522   0.804  2.3323 -0.7504 -1.3452
51772SOL     OW62430   3.526   8.433  10.390  0.2305 -0.1400 -0.3143
51772SOL    HW162431   3.592   8.502  10.393  0.1572 -0.0966  0.6664
51772SOL    HW262432   3.573   8.354  10.414 -0.2425  0.0481  1.3379
51773SOL     OW62433  10.218   6.339   3.447 -0.4719 -0.5226  0.2667
51773SOL    HW162434  10.147   6.385   3.402 -0.6771  1.6115  2.5613
51773SOL    HW262435  10.296   6.357   3.394 -1.0978 -0.2624 -0.5905
51774SOL     OW62436   0.607   8.465  11.062  0.1763 -0.4642  0.1813
51774SOL    HW162437   0.562   8.418  11.132  0.4274  0.1939  0.7961
51774SOL    HW262438   0.582   8.419  10.982 -1.5058 -0.1923  0.5127
51775SOL     OW62439  12.418   4.449   0.496 -0.3298 -0.2181  0.3930
51775SOL    HW162440  12.488   4.470   0.557  0.7423  0.3683 -0.9875
51775SOL    HW262441  12.425   4.354   0.483  1.0867 -0.0011 -0.7090
51776SOL     OW62442   9.372   3.029   8.304  0.5254  0.1944 -0.4935
51776SOL    HW162443   9.403   2.949   8.346  1.4961  0.5088 -0.5897
51776SOL    HW262444   9.277   3.023   8.309  0.5979 -0.2355  0.8993
51777SOL     OW62445   2.542   5.477   0.817  0.2865  0.2966 -0.1693
51777SOL    HW162446   2.594   5.556   0.830 -1.4849  1.5856 -0.4410
51777SOL    HW262447   2.499   5.463   0.902  0.2056 -0.0580 -0.2686
51778SOL     OW62448  11.543   6.516   6.026 -0.4226 -0.2205 -0.1292
51778SOL    HW162449  11.479   6.541   5.960  0.6153 -1.6393 -1.7687
51778SOL    HW262450  11.627   6.546   5.990  0.1456 -0.8772  0.6157
51779SOL     OW62451  10.120   3.713   8.475 -0.3704 -0.0484  0.0040
51779SOL    HW162452  10.094   3.719   8.383  0.5656  0.9861 -0.2230
51779SOL    HW262453  10.210   3.746   8.476 -0.9101  1.5452  1.5237
51780SOL     OW62454   3.143   1.681   2.368 -0.4107 -0.0694 -0.1641
51780SOL    HW162455   3.177   1.770   2.357 -1.1792  0.4757  1.5127
51780SOL    HW262456   3.067   1.691   2.425 -0.9437 -1.7346 -0.5183
51781SOL     OW62457   6.569  11.840   2.704 -0.2590  0.4383  0.0014
51781SOL    HW162458   6.501  11.867   2.642 -1.4050  0.7565  1.3635
51781SOL    HW262459   6.527  11.845   2.790  1.5838  0.8993  0.9076
51782SOL     OW62460   2.626   4.849   0.728  0.3228  0.2603  0.1856
51782SOL    HW162461   2.669   4.788   0.668 -0.2466  0.7866 -0.7809
51782SOL    HW262462   2.534   4.849   0.701  0.3239  1.6021  0.0993
51783SOL     OW62463   3.328   4.041   9.876 -0.0815  0.2268 -0.4433
51783SOL    HW162464   3.309   4.053   9.969 -1.5855  1.1652 -0.8394
51783SOL    HW262465   3.301   3.951   9.857  1.8639 -0.5776  0.3704
51784SOL     OW62466  12.117   3.865   5.318  0.1219 -0.1586  0.0011
51784SOL    HW162467  12.135   3.959   5.323 -1.5246  0.2346 -0.7941
51784SOL    HW262468  12.022   3.858   5.328  0.1770 -1.7108 -0.2868
51785SOL     OW62469   4.540  12.423   8.881 -0.5992 -0.1534 -0.0639
51785SOL    HW162470   4.491  12.345   8.855  0.9519 -0.8246 -1.1539
51785SOL    HW262471   4.613  12.389   8.933 -0.1134  0.5912 -0.2395
51786SOL     OW62472   8.297   7.139  10.418 -0.1091  0.5493  0.2179
51786SOL    HW162473   8.248   7.094  10.486  1.4871 -2.0790 -0.2294
51786SOL    HW262474   8.317   7.071  10.353  1.8061  2.0682 -0.9065
51787SOL     OW62475  11.503   2.886  11.303  0.2366  0.1132 -0.0735
51787SOL    HW162476  11.518   2.945  11.376  0.9401  2.5737 -2.0679
51787SOL    HW262477  11.590   2.856  11.277  0.1853  0.7759 -1.0595
51788SOL     OW62478   2.254   1.340   2.123  0.1635 -0.5012 -0.5631
51788SOL    HW162479   2.205   1.415   2.091  1.2546  0.1190 -0.8335
51788SOL    HW262480   2.256   1.279   2.049  1.0836  0.1302 -1.0761
51789SOL     OW62481   0.275  11.878   9.634  0.0872  0.1963 -0.6040
51789SOL    HW162482   0.295  11.877   9.728 -0.7570 -0.0384 -0.4179
51789SOL    HW262483   0.215  11.953   9.624  0.4006  0.3951 -1.0073
51790SOL     OW62484   3.149   9.777   6.341  0.7051  0.4697 -0.5316
51790SOL    HW162485   3.241   9.751   6.341  0.3077 -1.0305 -0.9963
51790SOL    HW262486   3.150   9.870   6.366  2.3293  0.4735 -0.5232
51791SOL     OW62487   2.605   8.473   4.153  0.3558  0.2312  0.1748
51791SOL    HW162488   2.589   8.503   4.064  0.0168 -0.7502 -0.1091
51791SOL    HW262489   2.698   8.487   4.167  0.7357 -1.0600 -0.9056
51792SOL     OW62490   3.105   2.946   6.871  0.1050  0.8370 -0.1692
51792SOL    HW162491   3.070   3.014   6.813  0.5893 -0.1582 -1.6871
51792SOL    HW262492   3.061   2.866   6.843  1.0602  0.1767  0.1879
51793SOL     OW62493   3.417   6.318   4.748 -0.1161  0.3005 -0.1965
51793SOL    HW162494   3.437   6.264   4.824 -0.6333 -0.6214 -0.7021
51793SOL    HW262495   3.410   6.256   4.675  0.9271  1.2092 -1.1205
51794SOL     OW62496   1.801   8.911   0.866  0.0586 -0.1975  0.2576
51794SOL    HW162497   1.786   8.906   0.960 -0.5347 -0.0335  0.1775
51794SOL    HW262498   1.821   9.003   0.850  0.3640 -0.2626  0.2485
51795SOL     OW62499  12.637  10.952   2.178  0.5085  0.1080  0.1937
51795SOL    HW162500  12.558  10.898   2.174  0.9939 -0.6546  0.5442
51795SOL    HW262501  12.708  10.889   2.192  0.9500  0.9330  1.9497
51796SOL     OW62502   7.053   9.854  12.545  0.2405  0.4814  0.2949
51796SOL    HW162503   7.051   9.759  12.534 -1.8589  0.6635 -1.7227
51796SOL    HW262504   7.055   9.889  12.456  1.9808  2.3750  0.9932
51797SOL     OW62505  12.360   4.416   7.272 -0.3499  0.1802  0.5530
51797SOL    HW162506  12.419   4.436   7.200 -0.1139 -1.2154  0.3398
51797SOL    HW262507  12.391   4.471   7.344 -0.4164  1.3785 -0.3036
51798SOL     OW62508  11.199  10.277   5.539 -0.1947  0.2090 -0.3014
51798SOL    HW162509  11.205  10.373   5.536  0.0973  0.2082  0.0875
51798SOL    HW262510  11.224  10.255   5.629  1.6178 -0.3684 -0.9172
51799SOL     OW62511   8.649   6.624  11.007 -0.0376 -0.1830 -0.3484
51799SOL    HW162512   8.707   6.549  11.026 -3.8504 -2.9873  1.7264
51799SOL    HW262513   8.623   6.612  10.916  0.5353 -0.5214 -0.4738
51800SOL     OW62514   6.397  11.356   4.930 -0.7039 -0.1578 -0.4988
51800SOL    HW162515   6.373  11.339   5.021 -1.0208  2.5908 -0.0069
51800SOL    HW262516   6.351  11.288   4.881 -0.2410 -1.9394  1.3693
51801SOL     OW62517   0.097   9.463   2.925 -0.5071 -0.0036  0.1794
51801SOL    HW162518   0.172   9.421   2.883 -0.4917  0.0884  0.1161
51801SOL    HW262519   0.035   9.479   2.854 -0.9039 -0.7531  0.3431
51802SOL     OW62520   6.422   8.477   7.846 -0.1235 -0.3873  0.0139
51802SOL    HW162521   6.413   8.396   7.897  2.5803 -0.6008  0.2969
51802SOL    HW262522   6.508   8.511   7.870 -1.2791  2.7491  0.0776
51803SOL     OW62523   5.617   9.992   2.429 -0.1277 -0.9395 -0.2508
51803SOL    HW162524   5.678  10.030   2.365  1.2646  1.2322  2.1486
51803SOL    HW262525   5.532   9.993   2.385  1.2179 -2.6215 -3.1733
51804SOL     OW62526   4.622   2.992   1.018 -0.2700 -0.4068 -0.0908
51804SOL    HW162527   4.528   3.006   1.021 -0.3995 -1.1811  3.0711
51804SOL    HW262528   4.632   2.898   1.002 -0.0789 -0.4939  0.5148
51805SOL     OW62529   7.653   2.998   4.314 -0.2931 -0.2087  0.1367
51805SOL    HW162530   7.598   2.927   4.348 -0.4134 -0.0914  0.1866
51805SOL    HW262531   7.737   2.987   4.360 -0.4067 -0.1428  0.3587
51806SOL     OW62532   9.470   2.637   1.516  0.6810  0.0449 -0.0340
51806SOL    HW162533   9.491   2.649   1.608  0.4419 -0.0402  0.0332
51806SOL    HW262534   9.374   2.645   1.512  0.4159 -2.4079  0.1155
51807SOL     OW62535   6.493   1.137  10.100  0.0311 -0.3562 -0.1470
51807SOL    HW162536   6.536   1.052  10.109  0.2887 -0.0214  2.2732
51807SOL    HW262537   6.525   1.171  10.016  0.0598 -2.5303 -1.0954
51808SOL     OW62538   6.207   9.461   4.377 -0.5097  0.0240  0.2321
51808SOL    HW162539   6.116   9.438   4.362 -0.3153 -0.1878 -0.6592
51808SOL    HW262540   6.224   9.534   4.318 -0.5874  1.2606  1.6688
51809SOL     OW62541  10.857   6.308   8.669  0.0641 -0.2392  0.0522
51809SOL    HW162542  10.792   6.257   8.620 -2.2227  1.9015  0.7141
51809SOL    HW262543  10.823   6.313   8.758  1.4845  0.4122  0.5968
51810SOL     OW62544  10.393   1.974   7.769 -0.0157 -0.0196 -0.7555
51810SOL    HW162545  10.460   2.000   7.705  0.7394  0.0573  0.0380
51810SOL    HW262546  10.392   1.878   7.765 -0.9553  0.0129 -1.8404
51811SOL     OW62547  12.574   3.051   9.170 -0.6523  0.2149  0.6684
51811SOL    HW162548  12.528   3.093   9.242 -0.3202 -0.3949  1.2457
51811SOL    HW262549  12.532   2.966   9.160 -1.4425  0.7199 -0.6110
51812SOL     OW62550  10.939  12.670   7.337 -0.1136 -0.0401  0.0246
51812SOL    HW162551  10.966  12.741   7.396 -0.3633 -0.4321  0.6225
51812SOL    HW262552  10.845  12.662   7.350 -0.0548 -0.6360  0.1472
51813SOL     OW62553   0.353   0.221   1.191  0.0115  0.0507  0.3022
51813SOL    HW162554   0.279   0.282   1.188 -1.4097 -1.6242 -1.2183
51813SOL    HW262555   0.312   0.135   1.199  1.7758 -0.9649 -0.9914
51814SOL     OW62556   2.950   4.115  11.181  0.3194 -0.2503  0.2542
51814SOL    HW162557   2.925   4.033  11.138 -0.9461 -0.4935  1.3927
51814SOL    HW262558   3.010   4.089  11.250 -0.3419 -0.2734  0.8308
51815SOL     OW62559   7.514   0.861   6.229 -0.1220 -0.3136 -0.3135
51815SOL    HW162560   7.479   0.779   6.194 -0.3466  0.0247 -0.9012
51815SOL    HW262561   7.575   0.892   6.162  1.0970 -0.7330  0.5589
51816SOL     OW62562   6.625   7.312   7.256  0.2125  0.0550  0.4109
51816SOL    HW162563   6.636   7.266   7.340  0.9292 -0.0285  0.2760
51816SOL    HW262564   6.585   7.247   7.198  1.5742 -0.5441  0.1097
51817SOL     OW62565   0.437  11.443   8.072  0.2665 -0.2150 -0.4465
51817SOL    HW162566   0.410  11.423   7.983 -2.1293  0.6274  0.0210
51817SOL    HW262567   0.510  11.505   8.062 -0.2284  0.1693 -1.8093
51818SOL     OW62568   5.091   5.387   4.176 -0.7403 -0.0421 -0.1267
51818SOL    HW162569   5.142   5.308   4.161  2.2409  1.3525  1.7518
51818SOL    HW262570   5.011   5.356   4.218 -1.1554 -2.2424 -2.3156
51819SOL     OW62571  11.476   8.175   0.021 -0.2003 -0.3552  0.1251
51819SOL    HW162572  11.385   8.147   0.011 -0.1554 -0.6558  0.5540
51819SOL    HW262573  11.473   8.271   0.015 -0.7141 -0.2740  1.3509
51820SOL     OW62574   6.491   4.080  11.883  0.4952  0.5708 -0.0514
51820SOL    HW162575   6.560   4.067  11.817  2.0676  1.2209  1.4092
51820SOL    HW262576   6.526   4.146  11.942 -0.7891 -0.1170  1.5582
51821SOL     OW62577   7.178   5.160   5.524  0.0740 -0.1074 -0.3047
51821SOL    HW162578   7.212   5.121   5.605 -1.8758  1.7970  1.5930
51821SOL    HW262579   7.131   5.089   5.480  3.0392 -1.7684 -1.0330
51822SOL     OW62580   8.801   9.114   0.234  0.0440  0.1880  0.2866
51822SOL    HW162581   8.859   9.113   0.157 -1.0071  1.4325 -0.5566
51822SOL    HW262582   8.791   9.207   0.255 -1.8932  0.0421  0.1945
51823SOL     OW62583  12.342   8.728   7.940  0.6007  0.1515 -0.1292
51823SOL    HW162584  12.398   8.693   8.009 -1.2447  0.7517  1.7819
51823SOL    HW262585  12.298   8.803   7.980 -2.0335 -0.6664 -1.2603
51824SOL     OW62586   0.800   7.081   4.531 -0.5138  0.1769  0.4148
51824SOL    HW162587   0.727   7.019   4.519 -0.7127  0.1635  1.6002
51824SOL    HW262588   0.834   7.095   4.442 -0.3285 -1.7893  0.1232
51825SOL     OW62589   7.388  10.299   3.494 -0.1202 -0.1519  0.3691
51825SOL    HW162590   7.301  10.306   3.456 -0.4312  1.2301  1.2583
51825SOL    HW262591   7.386  10.216   3.544 -1.0900  0.1028  0.7759
51826SOL     OW62592   8.301   7.412   2.559 -0.4609  0.0358 -0.7441
51826SOL    HW162593   8.317   7.330   2.512  0.5502 -0.2375  0.0435
51826SOL    HW262594   8.387   7.453   2.568 -0.6734  0.2710  0.5133
51827SOL     OW62595   2.329  11.675  11.238  0.0825 -0.1363  0.1825
51827SOL    HW162596   2.285  11.727  11.172 -0.9188 -0.2181  0.7685
51827SOL    HW262597   2.412  11.649  11.197 -0.1291  0.5438 -0.7016
51828SOL     OW62598   2.354   6.877   4.092  0.4821  0.1031 -0.3396
51828SOL    HW162599   2.428   6.843   4.041  3.0284  1.9797  1.8420
51828SOL    HW262600   2.343   6.814   4.163 -0.6973 -0.6503 -1.1583
51829SOL     OW62601  11.610  12.223   9.091 -0.1695 -0.3369 -0.4779
51829SOL    HW162602  11.683  12.202   9.149  0.1732  0.0414 -0.7656
51829SOL    HW262603  11.535  12.234   9.150 -0.0896 -1.1366 -0.2188
51830SOL     OW62604   7.754   2.826   2.143  0.6122  0.7584 -0.0877
51830SOL    HW162605   7.845   2.806   2.123  1.8473  1.3074  4.0607
51830SOL    HW262606   7.748   2.821   2.239 -4.2561 -1.3142 -0.1600
51831SOL     OW62607   8.992   1.469   3.142  0.5896 -0.0741  0.1738
51831SOL    HW162608   8.919   1.524   3.114 -0.0102 -0.6313  0.6101
51831SOL    HW262609   9.018   1.505   3.227  2.0721  1.2953 -0.8144
51832SOL     OW62610   7.408   3.440   9.853 -0.0668 -0.1222  0.1355
51832SOL    HW162611   7.469   3.511   9.833 -0.0196  0.3938  2.0122
51832SOL    HW262612   7.348   3.476   9.918 -1.7818 -0.9498 -0.9178
51833SOL     OW62613   5.797   5.214   8.725 -0.2403 -0.3888  0.6142
51833SOL    HW162614   5.775   5.140   8.669 -2.3778  0.3051  0.4355
51833SOL    HW262615   5.892   5.220   8.721 -0.0117 -2.9594  0.4679
51834SOL     OW62616   9.383   3.431   4.316 -0.3357 -0.4213 -0.3414
51834SOL    HW162617   9.349   3.495   4.379 -0.4334 -0.6133 -0.1979
51834SOL    HW262618   9.396   3.482   4.236 -1.2763 -0.4017 -0.5009
51835SOL     OW62619   0.312   1.231   5.481 -0.0174 -0.2231  0.3146
51835SOL    HW162620   0.396   1.199   5.448  0.0982 -0.1281  0.5117
51835SOL    HW262621   0.279   1.160   5.535 -0.1342 -0.3185  0.1178
51836SOL     OW62622  11.606   2.467   0.756  0.4035  0.0680 -1.0313
51836SOL    HW162623  11.582   2.559   0.747 -0.3572 -0.0332 -0.2221
51836SOL    HW262624  11.618   2.435   0.667  0.7634  0.9709 -1.3115
51837SOL     OW62625   4.214   6.746   9.231  0.4743 -0.0029  0.1435
51837SOL    HW162626   4.201   6.752   9.326 -0.0070 -0.6796  0.1261
51837SOL    HW262627   4.148   6.683   9.202 -0.0937  1.0065 -0.7952
51838SOL     OW62628  10.557   3.654   5.126  0.8737  0.1324  0.3711
51838SOL    HW162629  10.490   3.685   5.064  2.0982  0.3412 -0.8969
51838SOL    HW262630  10.507   3.626   5.203 -0.6013  1.1242 -0.1772
51839SOL     OW62631   0.337   3.797   8.838  0.2104  0.0552 -0.0091
51839SOL    HW162632   0.351   3.891   8.852 -0.0522  0.0742  0.1242
51839SOL    HW262633   0.425   3.759   8.843  0.0529 -0.0862  2.7457
51840SOL     OW62634   6.945   0.920   1.346 -0.5080 -0.4329 -0.1921
51840SOL    HW162635   7.039   0.916   1.362 -0.5903  0.4866  0.6285
51840SOL    HW262636   6.914   0.830   1.357 -0.0392 -0.3890  1.6624
51841SOL     OW62637   1.211   2.225   8.225 -0.0504  0.1836  0.4430
51841SOL    HW162638   1.191   2.133   8.205 -2.9576  0.9219 -0.5122
51841SOL    HW262639   1.307   2.229   8.227  0.1654 -2.8962  0.7956
51842SOL     OW62640   5.818   6.192  11.618  0.0539  0.1168  0.6466
51842SOL    HW162641   5.776   6.202  11.533  0.8578  1.3127  0.3628
51842SOL    HW262642   5.825   6.281  11.653  0.6591 -0.2420  1.5017
51843SOL     OW62643   8.179   4.508   6.706 -0.0215  0.3248  0.3481
51843SOL    HW162644   8.094   4.531   6.669 -0.4080  1.4390  1.8165
51843SOL    HW262645   8.209   4.589   6.747  1.7455 -0.0634 -0.1156
51844SOL     OW62646   4.101   2.745  11.990 -0.7087 -0.5987 -0.1781
51844SOL    HW162647   4.040   2.710  12.055  0.5519  0.9485  1.9529
51844SOL    HW262648   4.166   2.675  11.979  1.3514  0.4672  3.4464
51845SOL     OW62649   4.307  11.136   3.414 -0.0435 -0.4609  0.5179
51845SOL    HW162650   4.332  11.198   3.482  0.1579 -1.2205  1.1496
51845SOL    HW262651   4.291  11.054   3.461  0.7358 -1.1734 -0.4281
51846SOL     OW62652   7.187   5.945  11.824 -0.7592 -0.2739 -0.0192
51846SOL    HW162653   7.260   6.004  11.806  0.5531 -1.9045 -0.2535
51846SOL    HW262654   7.182   5.888  11.747 -1.7427 -0.7304  0.3562
51847SOL     OW62655   5.417   3.811  10.203 -0.0960 -0.3718 -0.5594
51847SOL    HW162656   5.460   3.733  10.167  0.2838 -0.3751 -0.1136
51847SOL    HW262657   5.342   3.776  10.251 -1.8437 -0.2319 -3.0240
51848SOL     OW62658   8.270   1.387  10.653  0.6677  0.5106  0.1672
51848SOL    HW162659   8.176   1.370  10.645  0.9503 -1.4623  0.6402
51848SOL    HW262660   8.288   1.453  10.586 -1.1140  1.2198  0.3358
51849SOL     OW62661  12.006  11.698  10.400 -0.4333  0.0149 -0.1133
51849SOL    HW162662  12.066  11.728  10.468 -1.2374 -1.0364  1.1283
51849SOL    HW262663  12.021  11.756  10.326  1.7545  0.0870  0.3195
51850SOL     OW62664   5.524   7.043   1.830  0.5870  0.2143 -0.3029
51850SOL    HW162665   5.544   7.102   1.756  1.0558  0.9251  0.3706
51850SOL    HW262666   5.556   6.958   1.801  0.9595  0.5239 -0.8464
51851SOL     OW62667   4.776   1.885   5.857  0.7632 -0.4252 -0.8436
51851SOL    HW162668   4.707   1.945   5.883 -0.9776 -2.5040 -0.4218
51851SOL    HW262669   4.831   1.876   5.935  1.2121  0.7806 -1.0001
51852SOL     OW62670   0.469   0.851  12.492 -0.4522 -0.6553  0.3427
51852SOL    HW162671   0.446   0.924  12.433  0.9167  1.0221  1.7811
51852SOL    HW262672   0.529   0.797  12.441 -0.8457 -0.3393 -0.4787
51853SOL     OW62673   0.691   9.566  12.675 -0.5173 -0.2004  0.3628
51853SOL    HW162674   0.683   9.642  12.617 -0.1164  1.0449  1.8514
51853SOL    HW262675   0.604   9.557  12.714 -0.5698 -0.5289  0.1693
51854SOL     OW62676   3.151   5.176   2.632  0.3891 -0.4402 -0.1207
51854SOL    HW162677   3.081   5.223   2.585  1.8759  1.3555 -0.6855
51854SOL    HW262678   3.201   5.246   2.675  2.1525 -1.6210 -0.1752
51855SOL     OW62679   3.591   0.137  12.124 -0.0954  0.2010 -0.0048
51855SOL    HW162680   3.521   0.167  12.182  0.1042  2.2917 -0.7572
51855SOL    HW262681   3.670   0.136  12.179 -0.6435 -2.3110  0.8867
51856SOL     OW62682   1.538  10.451   0.003  0.4384 -0.1005  0.9166
51856SOL    HW162683   1.449  10.415  -0.002 -0.5986  2.0331  2.4008
51856SOL    HW262684   1.594  10.379  -0.024 -1.7268 -1.5702  0.0352
51857SOL     OW62685   9.601   9.260   9.598 -0.0066 -0.2166 -0.1857
51857SOL    HW162686   9.615   9.167   9.613 -2.7683 -0.6799 -0.0160
51857SOL    HW262687   9.631   9.275   9.509  0.9237 -1.1413 -0.0460
51858SOL     OW62688   0.118   9.995   8.482  0.2167 -0.0119 -0.7075
51858SOL    HW162689   0.079  10.074   8.518 -0.0098 -0.4279 -0.0304
51858SOL    HW262690   0.048   9.956   8.428 -0.1373 -0.4674  0.0635
51859SOL     OW62691   8.446   1.717   1.406 -0.1553  0.2371  0.6954
51859SOL    HW162692   8.493   1.795   1.435 -0.7459 -0.7823  5.0495
51859SOL    HW262693   8.357   1.749   1.388  0.3703  1.0039 -0.7438
51860SOL     OW62694   3.344  12.897   8.197 -0.3921  0.4592  0.5062
51860SOL    HW162695   3.335  12.839   8.272  0.1980  0.2130  0.3871
51860SOL    HW262696   3.385  12.844   8.129  0.5065  1.1164  0.5192
51861SOL     OW62697   0.286   0.601  12.649 -0.5210 -0.1913 -0.3599
51861SOL    HW162698   0.214   0.540  12.632 -2.3723  1.8302 -0.3052
51861SOL    HW262699   0.298   0.646  12.565 -1.0646  1.1831  0.2675
51862SOL     OW62700   4.908   7.716  10.360 -0.0664  0.3407  0.1870
51862SOL    HW162701   4.828   7.768  10.344  0.0558 -0.0461 -2.0543
51862SOL    HW262702   4.940   7.695  10.272  4.8683  3.9477  0.6654
51863SOL     OW62703   2.809   4.814   8.525 -0.0990  0.6482  0.2065
51863SOL    HW162704   2.730   4.864   8.548  0.2915  0.6410  1.6908
51863SOL    HW262705   2.840   4.854   8.444 -0.5904  1.9173  0.6124
51864SOL     OW62706   2.732   5.953   3.487  0.4147  0.1812 -0.3191
51864SOL    HW162707   2.695   5.880   3.435  2.1181  0.2537 -1.7139
51864SOL    HW262708   2.759   5.912   3.569  1.8182 -0.9241 -1.2787
51865SOL     OW62709   3.801   8.628   8.481  0.0059  0.2488  0.3612
51865SOL    HW162710   3.743   8.554   8.499 -1.2305  0.8349 -1.0155
51865SOL    HW262711   3.860   8.596   8.412 -1.8372  1.0768 -1.7280
51866SOL     OW62712  12.615   7.169  12.155 -0.4684 -0.4640  0.4104
51866SOL    HW162713  12.710   7.183  12.150 -0.2451 -2.1502 -2.1846
51866SOL    HW262714  12.601   7.133  12.243  1.6974 -2.3781  0.0774
51867SOL     OW62715   9.973  12.162  12.136  0.5379 -0.0439 -0.2196
51867SOL    HW162716  10.057  12.130  12.102  0.1643 -0.9903 -0.2763
51867SOL    HW262717   9.926  12.193  12.058  1.2109  1.4318 -0.0734
51868SOL     OW62718   5.561   0.188  12.720 -0.2527 -0.0281 -0.3322
51868SOL    HW162719   5.548   0.187  12.814  0.4929 -0.9013 -0.2236
51868SOL    HW262720   5.492   0.246  12.686 -1.5009 -0.9171  0.5949
51869SOL     OW62721   0.693  11.784   3.805 -0.0487 -0.3448  0.2328
51869SOL    HW162722   0.653  11.871   3.814  0.8821 -0.0628  2.0950
51869SOL    HW262723   0.706  11.773   3.711  1.5627  2.3624  0.0408
51870SOL     OW62724   2.705   0.204  12.310 -0.1246 -0.6894  0.1541
51870SOL    HW162725   2.619   0.186  12.348  0.2230 -1.2147  0.7225
51870SOL    HW262726   2.731   0.288  12.347 -0.3738 -0.5454  0.0074
51871SOL     OW62727   0.125   2.647   3.435 -0.1966 -0.8554 -0.1126
51871SOL    HW162728   0.170   2.727   3.407 -0.5245 -0.1170  1.3509
51871SOL    HW262729   0.103   2.663   3.527 -0.2644 -2.6480  0.2186
51872SOL     OW62730   6.682   8.512   8.020  0.4698  0.6857  0.5794
51872SOL    HW162731   6.708   8.458   7.945 -1.1862  1.3676 -0.5284
51872SOL    HW262732   6.727   8.595   8.006  0.8820  0.5121  0.8461
51873SOL     OW62733   6.022   2.310  11.846  0.2068 -0.1508  0.5274
51873SOL    HW162734   5.976   2.269  11.919 -1.1467 -0.3253 -0.3982
51873SOL    HW262735   6.001   2.403  11.853 -0.9816 -0.3425 -0.3714
51874SOL     OW62736   1.027  12.739   7.755  0.3178 -0.6322 -0.2868
51874SOL    HW162737   0.985  12.706   7.676  1.2754 -1.4097 -0.4960
51874SOL    HW262738   0.961  12.795   7.796 -0.9436 -1.8694 -0.5420
51875SOL     OW62739   7.270   2.627   0.933 -0.3614  0.6706 -0.0877
51875SOL    HW162740   7.330   2.601   0.864 -0.7426 -0.9048  0.1297
51875SOL    HW262741   7.317   2.609   1.014 -1.0452 -0.4210  0.0811
51876SOL     OW62742   1.794   5.641   5.264 -0.3287  0.4831 -0.1667
51876SOL    HW162743   1.796   5.737   5.263  0.2047  0.4788 -1.6186
51876SOL    HW262744   1.751   5.617   5.182  1.4757 -0.5311 -0.8625
51877SOL     OW62745   7.557   5.420   8.832  0.3267  0.3013  0.0589
51877SOL    HW162746   7.552   5.346   8.772  0.0199  0.4083 -0.0471
51877SOL    HW262747   7.471   5.462   8.826 -0.7182 -1.2514  2.5754
51878SOL     OW62748  10.617   9.087   2.352  0.4489 -0.0749  0.4361
51878SOL    HW162749  10.653   9.127   2.273  1.1744 -1.0530  0.2530
51878SOL    HW262750  10.550   9.149   2.382  0.0088  0.2079 -1.0588
51879SOL     OW62751  10.203   6.988   1.637  0.9384  0.4440 -0.4403
51879SOL    HW162752  10.228   7.077   1.662  1.1565  0.5271 -0.9334
51879SOL    HW262753  10.163   6.951   1.715 -3.1286  2.3724 -1.3324
51880SOL     OW62754   6.363   8.495  11.998  0.4420 -0.1323  0.1301
51880SOL    HW162755   6.433   8.474  11.937  0.5213 -0.8410  0.4577
51880SOL    HW262756   6.393   8.575  12.042  0.6584  0.0377 -0.3221
51881SOL     OW62757  12.334   2.608   8.292 -0.1766 -0.6204  0.0489
51881SOL    HW162758  12.350   2.625   8.199 -0.1109 -1.3736 -0.0840
51881SOL    HW262759  12.341   2.694   8.333 -0.5446 -0.2235 -0.6866
51882SOL     OW62760  11.364   2.806   1.833  0.8685 -0.6087 -0.4141
51882SOL    HW162761  11.298   2.844   1.892  1.1838  0.4470 -0.7225
51882SOL    HW262762  11.319   2.732   1.792  0.0726 -0.2811 -0.1634
51883SOL     OW62763   9.125  10.122   0.322  0.0371 -0.1963 -0.1423
51883SOL    HW162764   9.195  10.187   0.338  0.0701 -0.4577  0.8533
51883SOL    HW262765   9.090  10.104   0.409  0.7123 -2.2878 -0.2682
51884SOL     OW62766   3.323   4.020   5.840  0.1445  0.1852 -0.2038
51884SOL    HW162767   3.284   4.067   5.766 -0.4011 -0.3278 -0.2445
51884SOL    HW262768   3.407   4.064   5.855 -0.3709  1.1971 -0.2236
51885SOL     OW62769  10.802   6.522   3.512  0.6938  0.4176 -0.4380
51885SOL    HW162770  10.819   6.455   3.445  1.4016 -0.9069  1.0078
51885SOL    HW262771  10.871   6.509   3.577  1.1030  2.8496 -0.2921
51886SOL     OW62772   4.170   1.898   7.702  0.7440 -0.5283 -0.1404
51886SOL    HW162773   4.202   1.837   7.769  1.5058 -2.2415 -1.9437
51886SOL    HW262774   4.228   1.974   7.708  0.8333 -0.6793  1.0790
51887SOL     OW62775   4.724   0.724   4.417 -0.1354  0.2234 -0.0469
51887SOL    HW162776   4.701   0.800   4.364 -2.2320  1.2433  2.1499
51887SOL    HW262777   4.700   0.649   4.363  2.6865  0.9239 -2.5835
51888SOL     OW62778   7.376  10.359   6.641  0.5320  0.0898  0.1462
51888SOL    HW162779   7.411  10.270   6.645 -2.3201 -1.1414  2.5663
51888SOL    HW262780   7.411  10.402   6.719  0.0662  0.2764  0.2564
51889SOL     OW62781   6.806   1.283  11.615 -0.7376  0.0277 -0.2039
51889SOL    HW162782   6.832   1.288  11.523  1.6951 -0.7814  0.3502
51889SOL    HW262783   6.857   1.351  11.658 -2.2771  0.7819  0.4998
51890SOL     OW62784  12.397  12.199  12.783  0.5937 -0.6340 -0.1536
51890SOL    HW162785  12.357  12.117  12.754  0.7193 -0.9465  0.5447
51890SOL    HW262786  12.338  12.267  12.750 -0.4140 -1.0787  0.6868
51891SOL     OW62787   5.157   1.071   9.716 -0.1743 -0.5325  0.0598
51891SOL    HW162788   5.120   1.113   9.794 -3.3258 -1.1695 -0.9245
51891SOL    HW262789   5.182   0.983   9.745  0.9912  0.0322  0.8384
51892SOL     OW62790   6.403  10.263   5.837  0.4001  0.1459  0.0803
51892SOL    HW162791   6.322  10.218   5.860 -0.7606  0.6949 -2.5224
51892SOL    HW262792   6.443  10.208   5.770  1.1980  0.8282 -0.0250
51893SOL     OW62793   3.520  10.956   6.205  0.4814 -0.3548 -0.1957
51893SOL    HW162794   3.541  11.034   6.154 -0.5555 -0.4501 -0.7957
51893SOL    HW262795   3.519  10.987   6.296  0.8679  0.1484 -0.3591
51894SOL     OW62796  11.301   8.689   0.651 -0.6674  0.6399  0.4354
51894SOL    HW162797  11.301   8.784   0.660  0.4575  0.5353  1.8625
51894SOL    HW262798  11.391   8.667   0.626 -0.5578 -0.1259  1.4286
51895SOL     OW62799   4.268   0.088   7.035 -0.1303  1.0129 -0.3091
51895SOL    HW162800   4.327   0.087   7.110 -1.8378  0.2368  1.0897
51895SOL    HW262801   4.254   0.180   7.017  0.2429  1.2119  0.3774
51896SOL     OW62802   2.503   0.426   1.738  0.4667 -0.0305 -0.2087
51896SOL    HW162803   2.578   0.415   1.681  0.7840 -0.7899  0.3359
51896SOL    HW262804   2.530   0.387   1.821 -0.4115 -0.0158  0.0973
51897SOL     OW62805   3.072   3.358   7.283 -0.3950 -0.7450  0.1050
51897SOL    HW162806   3.091   3.270   7.252 -1.6202 -1.4266  1.1544
51897SOL    HW262807   3.022   3.398   7.212 -1.2926 -1.5131  0.2834
51898SOL     OW62808   9.608   3.680   8.837 -0.3846  0.0592  0.0057
51898SOL    HW162809   9.603   3.773   8.812 -2.1573  0.0566  0.2194
51898SOL    HW262810   9.525   3.664   8.883  0.4630 -1.3102  1.1135
51899SOL     OW62811   3.217   3.808   4.857 -0.2224 -0.7812  0.1161
51899SOL    HW162812   3.226   3.864   4.780  0.3197 -0.7505  0.1968
51899SOL    HW262813   3.211   3.719   4.820 -0.4679 -0.7258  0.0180
51900SOL     OW62814   1.751   8.126   7.272 -0.3974 -0.3574 -0.1975
51900SOL    HW162815   1.841   8.104   7.249  0.2626 -0.1459  2.0009
51900SOL    HW262816   1.759   8.190   7.343 -2.2914  1.4956 -1.5201
51901SOL     OW62817   1.667   2.145  10.355  0.4089 -0.1329 -0.2859
51901SOL    HW162818   1.585   2.166  10.311  0.0847  0.7274  0.6913
51901SOL    HW262819   1.732   2.202  10.313 -0.0380  1.2278  0.8061
51902SOL     OW62820   4.032  10.885   8.510 -0.6997  0.4240 -0.2486
51902SOL    HW162821   3.988  10.800   8.519 -1.5384  0.6054 -2.1697
51902SOL    HW262822   4.115  10.864   8.468 -0.8936  0.5332 -0.6949
51903SOL     OW62823   1.594   9.159   3.003 -0.6362  0.5220  0.1486
51903SOL    HW162824   1.622   9.214   3.076 -0.4405  0.5800  0.0322
51903SOL    HW262825   1.639   9.197   2.927 -1.1884  0.7331 -0.0725
51904SOL     OW62826   8.593  11.848   6.710 -0.2211 -0.2443 -0.0788
51904SOL    HW162827   8.587  11.927   6.656  0.3388  0.5259  0.9462
51904SOL    HW262828   8.535  11.865   6.784 -0.8306 -1.2055 -0.3147
51905SOL     OW62829   8.559   9.511  10.542  0.6578  0.0219 -0.1783
51905SOL    HW162830   8.483   9.560  10.512  0.9750  0.3833 -0.4064
51905SOL    HW262831   8.566   9.437  10.481  0.2747 -0.2244  0.0692
51906SOL     OW62832   0.533   4.149   5.756  0.3772 -0.0317 -0.2658
51906SOL    HW162833   0.512   4.128   5.847  2.5049  0.9220  0.5166
51906SOL    HW262834   0.628   4.143   5.752  0.2295 -2.4744 -3.1028
51907SOL     OW62835   9.515   1.844   1.523 -0.1768 -0.2757  0.4631
51907SOL    HW162836   9.599   1.800   1.516 -0.4554 -0.7089 -0.3065
51907SOL    HW262837   9.479   1.817   1.607 -1.9676 -4.5111 -1.4001
51908SOL     OW62838  11.079   7.171   4.062  0.2236  0.1847  0.1807
51908SOL    HW162839  10.996   7.133   4.032 -0.6976  2.2048 -0.0417
51908SOL    HW262840  11.112   7.218   3.985  0.6806  0.8419  0.7698
51909SOL     OW62841   2.591   5.144   0.739  0.0046  0.3592 -0.3551
51909SOL    HW162842   2.513   5.174   0.786 -1.0525 -0.8211 -1.3273
51909SOL    HW262843   2.598   5.051   0.760 -0.6346 -0.2678 -2.6771
51910SOL     OW62844   9.114   2.066   1.334 -0.1570 -0.4396  0.3177
51910SOL    HW162845   9.179   1.996   1.323  0.6348  0.1832  0.9067
51910SOL    HW262846   9.039   2.038   1.282 -0.3060 -2.2826  1.4301
51911SOL     OW62847   8.624   8.428   2.885  0.4186  0.7225  0.4261
51911SOL    HW162848   8.566   8.485   2.936 -0.1231  0.2123  0.3846
51911SOL    HW262849   8.711   8.440   2.925  0.8991  3.5727 -1.2087
51912SOL     OW62850   5.674  10.607  11.446 -0.3341  0.1555  0.0048
51912SOL    HW162851   5.704  10.557  11.521 -0.3462  0.8596  0.4930
51912SOL    HW262852   5.593  10.563  11.418  1.4726 -2.2648 -1.8419
51913SOL     OW62853  10.114  12.894   6.248 -0.7490 -0.6096  0.4559
51913SOL    HW162854  10.137  12.987   6.244 -0.2539 -0.7560 -0.6969
51913SOL    HW262855  10.036  12.891   6.303 -1.6158  0.6698 -0.6147
51914SOL     OW62856  10.382   6.695   7.637 -0.1827  0.0352  0.1422
51914SOL    HW162857  10.464   6.649   7.656 -0.5057  0.2402  2.2710
51914SOL    HW262858  10.320   6.660   7.701 -1.9117 -0.4051 -1.6831
51915SOL     OW62859  12.409   8.340  12.725  0.4562  0.1235  0.3242
51915SOL    HW162860  12.386   8.247  12.724 -1.8026  0.6205 -1.4189
51915SOL    HW262861  12.394   8.367  12.815 -0.6166 -0.8355  0.4605
51916SOL     OW62862   7.662  11.938   7.466  0.3407 -0.7769  0.6783
51916SOL    HW162863   7.652  11.932   7.561 -0.9902 -1.3590  0.5225
51916SOL    HW262864   7.586  11.891   7.431  0.5189 -0.1019 -0.6715
51917SOL     OW62865  12.885   2.264   5.895 -0.1888  0.0126 -0.0192
51917SOL    HW162866  12.811   2.272   5.955  1.1393  1.9294  1.4935
51917SOL    HW262867  12.955   2.225   5.948  0.8327  1.1802 -0.4362
51918SOL     OW62868  11.504   6.720   9.717  0.4546 -0.0926  0.2303
51918SOL    HW162869  11.516   6.661   9.790 -1.8983 -0.2578  0.5443
51918SOL    HW262870  11.491   6.663   9.641  1.4856  0.0837 -0.1108
51919SOL     OW62871  11.363  10.111   4.089  0.8292  0.4603 -0.0077
51919SOL    HW162872  11.421  10.036   4.076  0.5056  0.5050 -1.9814
51919SOL    HW262873  11.415  10.187   4.060 -0.0862  0.5254 -1.5892
51920SOL     OW62874  11.735   1.398  10.760  0.3890 -0.0567  0.1770
51920SOL    HW162875  11.729   1.324  10.820  2.0929 -0.7365 -0.4373
51920SOL    HW262876  11.707   1.363  10.675 -0.4742  0.4768  0.2287
51921SOL     OW62877   9.560   8.120  12.951 -0.3791  0.1654  0.4824
51921SOL    HW162878   9.603   8.070  12.882 -0.9337  0.9194 -0.4385
51921SOL    HW262879   9.632   8.158  13.002  0.0586  0.9269 -0.6713
51922SOL     OW62880   0.187   0.057   3.927 -1.0422  0.0975 -0.6171
51922SOL    HW162881   0.161   0.052   4.020 -2.3751 -0.0567 -0.9729
51922SOL    HW262882   0.219   0.146   3.916  0.5832 -0.3263  0.3347
51923SOL     OW62883   2.239   7.991  11.184 -0.2618  0.5118  0.5295
51923SOL    HW162884   2.159   7.964  11.228  1.5101  0.2996  3.9477
51923SOL    HW262885   2.309   7.949  11.233  2.0137 -0.0573 -2.8569
51924SOL     OW62886  11.900   3.140   9.441 -0.5324  0.9216  0.0858
51924SOL    HW162887  11.992   3.149   9.417 -0.6345  1.5896 -0.0770
51924SOL    HW262888  11.900   3.131   9.536 -0.2827  0.5699  0.0550
51925SOL     OW62889   4.783   3.477  11.997 -0.5245 -0.1874  0.5773
51925SOL    HW162890   4.830   3.430  11.927  1.3987 -0.0545  1.6905
51925SOL    HW262891   4.837   3.462  12.075  0.1530  3.6900  1.0548
51926SOL     OW62892  10.318   3.900   9.491 -0.2497 -0.0129 -0.0923
51926SOL    HW162893  10.320   3.995   9.503 -0.4710 -0.3387  3.3951
51926SOL    HW262894  10.402   3.880   9.449 -0.0105  1.6413 -0.4963
51927SOL     OW62895  10.241  12.820  10.874 -0.6292  0.3738 -0.0886
51927SOL    HW162896  10.195  12.841  10.793  2.7588 -0.8796 -2.6001
51927SOL    HW262897  10.312  12.884  10.879  0.2222 -0.6078  0.9694
51928SOL     OW62898  11.302   5.534  11.418  0.1555  1.0166 -0.1389
51928SOL    HW162899  11.311   5.619  11.374 -0.8640 -0.3854 -3.3773
51928SOL    HW262900  11.239   5.486  11.364 -0.6441 -1.2213  2.5799
51929SOL     OW62901   3.028   5.194   0.243 -0.1619 -0.1514  0.9528
51929SOL    HW162902   2.969   5.196   0.319  0.4488  1.0370  1.4232
51929SOL    HW262903   3.110   5.231   0.275  0.7235 -1.4145  0.1920
51930SOL     OW62904   9.041   8.003   3.814 -0.2994 -0.3079  0.1230
51930SOL    HW162905   9.136   8.017   3.813 -0.2112 -0.7463  1.0819
51930SOL    HW262906   9.030   7.921   3.862 -1.0005 -1.7739 -2.3552
51931SOL     OW62907   3.718   2.927   6.030 -0.2170  0.4959 -0.6740
51931SOL    HW162908   3.775   2.861   6.070  0.6334  0.0740 -2.4736
51931SOL    HW262909   3.634   2.883   6.020 -0.4858  0.6447  0.6728
51932SOL     OW62910   0.308  11.751   5.734  0.8243  0.1558 -0.1904
51932SOL    HW162911   0.218  11.778   5.755  1.0884  1.1345 -0.2791
51932SOL    HW262912   0.303  11.656   5.726 -0.6156  0.3280 -2.0699
51933SOL     OW62913  11.861   3.139   9.106 -0.3942  0.4107  0.3194
51933SOL    HW162914  11.865   3.048   9.075 -0.0792  0.3744  0.4567
51933SOL    HW262915  11.910   3.138   9.188  1.6200  1.1377 -0.7862
51934SOL     OW62916   0.934   5.567   7.191 -0.0841  0.0990  0.2606
51934SOL    HW162917   0.899   5.522   7.114  0.6106  1.1470 -0.6936
51934SOL    HW262918   0.892   5.653   7.190 -0.1733  0.0823  1.1492
51935SOL     OW62919   1.799   7.241   1.523 -0.7581 -0.0981 -0.2388
51935SOL    HW162920   1.703   7.242   1.521 -0.8111  0.5717  1.3480
51935SOL    HW262921   1.822   7.149   1.532 -1.2797 -0.1951  0.1255
51936SOL     OW62922  11.773   7.676   0.491 -0.0754  0.4884  0.6242
51936SOL    HW162923  11.808   7.738   0.427 -1.3124  0.6162  0.0289
51936SOL    HW262924  11.680   7.671   0.469 -0.0526 -1.3554  0.8485
51937SOL     OW62925   9.839  10.274   1.058  0.5037  0.1145 -0.0675
51937SOL    HW162926   9.785  10.348   1.032 -0.1322  0.7858  2.7477
51937SOL    HW262927   9.778  10.214   1.102  1.6426 -0.1686  1.2011
51938SOL     OW62928  10.508  10.364  10.144 -0.0690 -0.0317  0.1826
51938SOL    HW162929  10.518  10.269  10.131  1.1784  0.1643 -0.4576
51938SOL    HW262930  10.415  10.376  10.164 -0.7088 -1.1853 -1.8017
51939SOL     OW62931   4.784   9.416   8.847  0.2850 -0.1762  0.0951
51939SOL    HW162932   4.849   9.486   8.840  0.5900 -0.2502  1.7114
51939SOL    HW262933   4.778   9.379   8.759  2.6415 -0.3509 -0.0336
51940SOL     OW62934   7.866   8.091   3.121  0.7106  0.6257  0.0969
51940SOL    HW162935   7.856   8.060   3.210  0.1578  1.8921  0.5016
51940SOL    HW262936   7.892   8.014   3.071  0.5213 -0.2063  1.2507
51941SOL     OW62937   8.443   8.690   2.980  0.5082 -0.6656  0.0726
51941SOL    HW162938   8.355   8.707   3.013  0.6104 -0.3370  0.1856
51941SOL    HW262939   8.437   8.703   2.885  0.7794  0.9418  0.2462
51942SOL     OW62940  10.053  11.828   9.412 -0.3385 -0.6873 -0.2094
51942SOL    HW162941  10.033  11.784   9.495 -0.3736  0.1765  0.2512
51942SOL    HW262942  10.148  11.819   9.402 -0.2669 -0.3857  0.1681
51943SOL     OW62943   0.225   6.726   4.118  0.0568  0.1940  0.2438
51943SOL    HW162944   0.156   6.698   4.057  0.1106  1.8050 -0.6400
51943SOL    HW262945   0.306   6.719   4.068  0.1168  1.4216  0.1303
51944SOL     OW62946   9.216  11.991   8.307 -0.3098 -0.1695 -0.3277
51944SOL    HW162947   9.295  11.947   8.338 -0.1935  0.1906 -0.1181
51944SOL    HW262948   9.225  12.081   8.337 -1.3852 -0.4116  0.7968
51945SOL     OW62949   9.612  10.631   1.377  0.0426  0.2206  0.0209
51945SOL    HW162950   9.658  10.652   1.459 -1.6189 -1.4756  1.4694
51945SOL    HW262951   9.590  10.538   1.385 -1.7024  0.4453 -1.5887
51946SOL     OW62952   2.665   4.013   5.191  0.0144 -0.1464  0.2256
51946SOL    HW162953   2.752   4.052   5.197 -0.4002  0.6806  1.0806
51946SOL    HW262954   2.627   4.025   5.278 -1.3072  0.3703 -0.3916
51947SOL     OW62955   0.827   6.028   5.853  0.3300 -0.0590  0.7226
51947SOL    HW162956   0.914   6.053   5.819 -0.1213 -0.7832 -1.0642
51947SOL    HW262957   0.826   5.933   5.848 -0.1931 -0.1193  1.7592
51948SOL     OW62958   3.635   5.079   6.926 -0.1734 -0.5007  0.2398
51948SOL    HW162959   3.609   5.103   7.015  1.8134 -0.5177  0.8729
51948SOL    HW262960   3.583   5.000   6.907  1.3169 -2.1411  2.4879
51949SOL     OW62961   7.880   8.682   8.430  0.1742  0.3309  0.0871
51949SOL    HW162962   7.945   8.666   8.498  0.9450 -0.0628 -0.7391
51949SOL    HW262963   7.930   8.688   8.349 -0.8788 -0.7740 -0.6769
51950SOL     OW62964  10.735   0.133  11.126  0.2120  0.3028  0.7199
51950SOL    HW162965  10.774   0.144  11.039  0.3335  0.7760  0.8305
51950SOL    HW262966  10.710   0.222  11.152 -1.1090 -0.0056  0.5786
51951SOL     OW62967   2.336   2.521   0.107  0.4266  0.0766 -0.2827
51951SOL    HW162968   2.360   2.582   0.177  0.9598  0.4628 -0.7917
51951SOL    HW262969   2.255   2.558   0.070 -0.5968 -0.8239  0.9458
51952SOL     OW62970  11.082   7.505   6.714  0.3171  0.4653 -0.4822
51952SOL    HW162971  11.141   7.459   6.655  1.5041  1.5627 -0.1968
51952SOL    HW262972  11.028   7.559   6.657  0.0983  0.0200 -0.6958
51953SOL     OW62973   9.151  12.651   6.940  0.5166  0.0933 -0.4346
51953SOL    HW162974   9.070  12.672   6.893 -0.2996 -1.0788  0.3841
51953SOL    HW262975   9.202  12.732   6.938 -0.8902  1.0122 -0.5485
51954SOL     OW62976   5.970  12.036   0.698  0.7117  0.1087 -0.0280
51954SOL    HW162977   5.990  12.011   0.608  1.7490  1.2514 -0.1454
51954SOL    HW262978   5.951  12.130   0.693 -2.5519 -0.4180  0.4486
51955SOL     OW62979   5.963   3.600  12.694 -0.0457  0.3676 -0.1942
51955SOL    HW162980   5.986   3.585  12.785  1.6740 -1.5524 -0.8427
51955SOL    HW262981   5.914   3.522  12.668 -0.1463  0.6825 -0.9960
51956SOL     OW62982   2.011  12.510   6.286  0.4549  0.0683  0.4981
51956SOL    HW162983   1.961  12.590   6.301 -0.5272 -0.4512  0.0696
51956SOL    HW262984   2.051  12.522   6.200  0.1879  0.0403  0.3700
51957SOL     OW62985   0.316  12.866   7.385 -0.1257  0.4513  0.4537
51957SOL    HW162986   0.365  12.813   7.449  0.7975  0.6219 -0.0914
51957SOL    HW262987   0.244  12.904   7.436 -1.1621 -1.7507  0.7579
51958SOL     OW62988   7.576   2.919  12.746 -0.4336 -0.1578  0.4477
51958SOL    HW162989   7.549   3.002  12.707 -0.6149 -0.7533 -0.7335
51958SOL    HW262990   7.666   2.935  12.775 -0.7268  0.6741  0.9418
51959SOL     OW62991   3.375   4.406   0.750 -0.5292  0.3310  0.1255
51959SOL    HW162992   3.423   4.487   0.766  0.0797  0.0104 -0.0425
51959SOL    HW262993   3.288   4.422   0.787  0.3512  0.1367  2.4514
51960SOL     OW62994   7.834   1.030   8.466  0.2947 -0.1799  0.6665
51960SOL    HW162995   7.819   1.099   8.531 -0.0116 -1.2167  1.7274
51960SOL    HW262996   7.912   1.059   8.418  0.0730  0.9774  0.9687
51961SOL     OW62997  12.102   9.633   2.738 -0.2276 -0.3865  0.2794
51961SOL    HW162998  12.110   9.727   2.755  0.3091 -0.4950  0.6421
51961SOL    HW262999  12.191   9.604   2.718 -0.7666 -0.3362 -2.5031
51962SOL     OW63000   3.454   5.927  12.774 -0.4145 -0.2395  0.0884
51962SOL    HW163001   3.492   5.950  12.859 -1.4106  0.2936  0.4075
51962SOL    HW263002   3.364   5.902  12.794 -1.0243  1.0259 -0.9191
51963SOL     OW63003   1.457   5.265   0.672  0.4253  0.3671  0.5154
51963SOL    HW163004   1.440   5.315   0.752 -0.6511  0.6011  0.1472
51963SOL    HW263005   1.436   5.174   0.695  2.3208  0.0302  1.1649
51964SOL     OW63006  10.013   4.724   8.615  0.1755  0.1648  0.3838
51964SOL    HW163007  10.019   4.728   8.711 -1.2181 -1.0249  0.5534
51964SOL    HW263008  10.020   4.815   8.587 -0.2425  0.6171  1.6854
51965SOL     OW63009   6.764   4.328  10.250 -0.2404  0.1164  0.4007
51965SOL    HW163010   6.754   4.422  10.259  0.0608  0.0148  2.3539
51965SOL    HW263011   6.680   4.292  10.282  0.2799 -0.2953  1.3528
51966SOL     OW63012   6.714   4.403  12.518  0.4147  0.1481 -0.4803
51966SOL    HW163013   6.676   4.481  12.478  1.5931  0.8786 -0.2052
51966SOL    HW263014   6.792   4.434  12.564 -0.9467 -0.5931  2.6224
51967SOL     OW63015   3.487   0.724   1.434  0.7053 -0.1177  0.2958
51967SOL    HW163016   3.526   0.641   1.460  2.3142  0.6160  0.3082
51967SOL    HW263017   3.557   0.789   1.443  0.0034  0.9624 -1.3692
51968SOL     OW63018   0.084   3.807   6.603 -0.2000  0.5506 -0.0749
51968SOL    HW163019   0.113   3.797   6.694 -0.6169 -0.0391 -0.0059
51968SOL    HW263020   0.105   3.898   6.581 -2.0302  1.3500  1.2892
51969SOL     OW63021   2.632   2.129   5.770  0.1282  0.3957 -0.0601
51969SOL    HW163022   2.544   2.120   5.733  0.3013  1.7263 -0.8742
51969SOL    HW263023   2.688   2.081   5.709  0.2200  1.3342 -0.7369
51970SOL     OW63024  11.260   5.720   5.216  0.5887 -0.0862  0.4335
51970SOL    HW163025  11.323   5.732   5.287  1.0932  0.6498 -0.1227
51970SOL    HW263026  11.303   5.756   5.139 -0.5987  0.6486  0.0856
51971SOL     OW63027   2.973  12.009  12.911  0.2647  0.6266  0.1258
51971SOL    HW163028   2.947  11.963  12.991 -0.0904 -0.2151 -0.4574
51971SOL    HW263029   2.962  12.102  12.932 -0.6543  0.3880  0.7678
51972SOL     OW63030   9.435   3.596   3.813  0.1145  0.6299 -0.4527
51972SOL    HW163031   9.496   3.656   3.856  1.4692 -1.3306  0.5199
51972SOL    HW263032   9.485   3.560   3.740 -0.7224  0.7361 -1.0965
51973SOL     OW63033  12.689  10.243   1.981 -0.9184 -0.1812  0.5996
51973SOL    HW163034  12.744  10.173   1.945  0.1082  0.5252  0.7372
51973SOL    HW263035  12.724  10.323   1.942 -2.3327  0.2365  0.1291
51974SOL     OW63036   7.621   5.270   5.186  0.1947  0.0055  0.0967
51974SOL    HW163037   7.643   5.233   5.271 -0.6146 -0.6819  0.0250
51974SOL    HW263038   7.704   5.301   5.151  0.3193  1.7524  1.7870
51975SOL     OW63039   4.632   8.424  10.607  0.0985 -0.0885 -0.0974
51975SOL    HW163040   4.624   8.329  10.611  1.8559 -0.2671  0.2123
51975SOL    HW263041   4.553   8.454  10.562 -1.4288 -1.4968  1.5643
51976SOL     OW63042  12.822   0.912  11.382 -0.2827  0.3781 -0.0121
51976SOL    HW163043  12.748   0.853  11.383  0.2314 -0.3157 -0.9243
51976SOL    HW263044  12.832   0.942  11.472 -0.5775 -0.8931  0.4494
51977SOL     OW63045   2.920   9.591   6.878 -0.1906 -0.4797 -0.4333
51977SOL    HW163046   2.930   9.498   6.898 -0.4693 -0.4914 -0.3478
51977SOL    HW263047   2.882   9.629   6.958 -1.0446 -0.4756 -0.8354
51978SOL     OW63048  12.910  10.132   3.216  0.0834 -0.2825 -0.7682
51978SOL    HW163049  12.850  10.060   3.233  1.4720 -1.5442 -1.0223
51978SOL    HW263050  12.921  10.132   3.121 -0.8975  1.1157 -0.9037
51979SOL     OW63051   9.717  10.418   2.467  0.5231 -0.0141  0.5640
51979SOL    HW163052   9.643  10.379   2.421  0.6523 -0.8541  1.0330
51979SOL    HW263053   9.759  10.474   2.403 -1.9497  2.5147  0.9714
51980SOL     OW63054   6.982   5.792  12.866 -0.2500 -0.6351 -0.5061
51980SOL    HW163055   6.917   5.763  12.803  0.5373  0.0422 -1.6627
51980SOL    HW263056   7.056   5.732  12.854  0.6669  0.6779 -1.6288
51981SOL     OW63057   5.927  10.772  12.707 -0.0397  0.2450 -0.0341
51981SOL    HW163058   5.842  10.745  12.741 -0.4759 -1.3403 -2.1631
51981SOL    HW263059   5.925  10.868  12.711 -1.5351  0.2031  0.8412
51982SOL     OW63060   3.165   7.419   0.459  0.0016 -0.0910  0.2357
51982SOL    HW163061   3.165   7.411   0.363  0.4822  1.4827  0.0782
51982SOL    HW263062   3.169   7.514   0.475 -0.8850 -0.2868  1.8191
51983SOL     OW63063  10.976   7.506   0.823 -0.0383  0.2030 -0.4151
51983SOL    HW163064  10.994   7.504   0.729 -2.3369  0.7160 -0.9338
51983SOL    HW263065  11.014   7.588   0.853 -0.4595  0.6969 -1.1945
51984SOL     OW63066   3.500   3.356   8.745 -0.0875 -0.2894 -0.2970
51984SOL    HW163067   3.554   3.374   8.821 -1.0819 -1.0764  0.6392
51984SOL    HW263068   3.476   3.263   8.754  0.3619 -0.6162 -1.9642
51985SOL     OW63069   7.242   3.449   8.809 -0.0547 -0.1339 -0.2049
51985SOL    HW163070   7.158   3.478   8.773  0.5838  0.3686 -1.3562
51985SOL    HW263071   7.298   3.527   8.803  0.0838  0.0137  1.9952
51986SOL     OW63072   7.217   9.362   9.857 -0.0459 -0.1157  0.5842
51986SOL    HW163073   7.203   9.282   9.907  0.9111 -0.5070  0.2448
51986SOL    HW263074   7.295   9.344   9.803  0.1296  1.0039  0.4344
51987SOL     OW63075  10.237  12.004   5.397  0.0919 -0.1453  0.1690
51987SOL    HW163076  10.263  12.077   5.340 -0.9917 -0.9966 -1.5105
51987SOL    HW263077  10.307  11.941   5.388 -0.4503 -0.6281 -0.9513
51988SOL     OW63078  12.166   9.499   9.636  0.9144  0.1597  0.6089
51988SOL    HW163079  12.091   9.534   9.684  1.2453  0.3170  1.0240
51988SOL    HW263080  12.152   9.526   9.546  1.3990  1.7782  0.9866
51989SOL     OW63081   4.384   5.109  12.496 -0.0172 -0.2846 -0.2357
51989SOL    HW163082   4.389   5.075  12.586  0.4659 -2.3487 -0.9923
51989SOL    HW263083   4.469   5.153  12.483 -0.1590  0.1818  0.3564
51990SOL     OW63084   6.301   5.791   8.002 -0.0349  0.2515  0.0076
51990SOL    HW163085   6.265   5.736   7.932  1.4108 -0.0920 -0.5086
51990SOL    HW263086   6.359   5.732   8.051  1.0215  1.1228 -0.1483
51991SOL     OW63087   8.298   6.069   5.131 -0.4080 -0.1033 -0.2522
51991SOL    HW163088   8.203   6.075   5.122 -0.4716 -1.1193 -0.3519
51991SOL    HW263089   8.312   6.042   5.222 -0.2600 -0.8115 -0.4784
51992SOL     OW63090  11.459  11.578  12.064  0.3503 -0.0823 -0.2318
51992SOL    HW163091  11.424  11.607  12.148 -0.7020  0.0045 -0.6885
51992SOL    HW263092  11.506  11.654  12.030  1.2955 -0.2957  0.5211
51993SOL     OW63093   7.662  10.659  11.129  0.3982 -0.0423 -0.8427
51993SOL    HW163094   7.746  10.624  11.158 -0.1328 -0.6786 -0.0430
51993SOL    HW263095   7.621  10.587  11.082 -0.0462  0.0012 -0.5250
51994SOL     OW63096   5.721   5.359   0.606  0.2098  0.3457  0.4999
51994SOL    HW163097   5.747   5.412   0.681  2.6917 -2.2108  1.6318
51994SOL    HW263098   5.650   5.304   0.640 -3.4605  3.6288 -1.0880
51995SOL     OW63099   3.788  10.088   3.385 -0.0598 -0.6319 -0.5356
51995SOL    HW163100   3.807  10.173   3.345  0.4918 -0.6240 -0.2744
51995SOL    HW263101   3.746  10.037   3.316 -0.3355 -0.1647 -0.7121
51996SOL     OW63102   9.372  10.443   2.876  0.0394 -0.5439 -0.3596
51996SOL    HW163103   9.462  10.433   2.845 -0.0080 -2.5648  0.0499
51996SOL    HW263104   9.380  10.474   2.966  0.2819  0.2996 -0.6614
51997SOL     OW63105   9.168   8.983   3.470  0.4822  0.7458 -0.3282
51997SOL    HW163106   9.100   8.915   3.476  0.3105  0.9402 -0.0313
51997SOL    HW263107   9.121   9.065   3.480  0.8989  0.8315  1.1100
51998SOL     OW63108   1.942   0.963   8.499  0.3854 -0.6331  0.0111
51998SOL    HW163109   1.947   1.044   8.550  0.1411  0.3648 -1.4829
51998SOL    HW263110   1.914   0.897   8.562  0.7648  0.4032  1.3128
51999SOL     OW63111   2.459   3.631   5.861 -0.3476 -0.2325  0.2539
51999SOL    HW163112   2.414   3.603   5.781  1.1364 -0.9284 -0.3661
51999SOL    HW263113   2.388   3.654   5.921 -1.4997  0.6632 -1.3690
52000SOL     OW63114   2.114   0.794   3.483 -0.2774  0.6103 -0.3343
52000SOL    HW163115   2.028   0.786   3.523  0.0099  0.6166  0.3066
52000SOL    HW263116   2.144   0.703   3.473 -0.6639  0.5807 -1.2464
52001SOL     OW63117  12.165   2.081   7.228 -0.1825 -0.3204  0.0157
52001SOL    HW163118  12.174   2.057   7.320 -0.2625 -1.4416 -0.2578
52001SOL    HW263119  12.240   2.039   7.185  2.3331  3.5482  0.1286
52002SOL     OW63120  12.033   3.889   9.321 -0.0638  0.2211  0.3025
52002SOL    HW163121  12.036   3.872   9.227 -2.7719 -0.7807  0.3090
52002SOL    HW263122  12.084   3.819   9.360  1.3936  0.8529 -0.3990
52003SOL     OW63123   7.280  10.190  10.848  0.1075  0.2124 -0.1173
52003SOL    HW163124   7.341  10.253  10.812  0.3898 -1.2708 -2.4604
52003SOL    HW263125   7.207  10.243  10.881  0.8739  1.7824 -0.8527
52004SOL     OW63126   3.855   1.674   2.295 -0.0265  0.3080  0.4819
52004SOL    HW163127   3.775   1.645   2.340  0.3187  0.2887  1.0891
52004SOL    HW263128   3.923   1.670   2.362  0.3016  1.2172  0.2168
52005SOL     OW63129   8.179   3.650   6.533  0.1727 -0.4437  0.7686
52005SOL    HW163130   8.272   3.668   6.518  0.7255 -1.9218  2.0791
52005SOL    HW263131   8.164   3.679   6.623 -1.2538  1.8452 -0.1304
52006SOL     OW63132   3.987   5.892   8.645  0.5114  0.6140 -0.1602
52006SOL    HW163133   4.031   5.959   8.594 -1.2044  1.0986 -1.0746
52006SOL    HW263134   3.995   5.812   8.592  0.1078  0.7581 -0.4463
52007SOL     OW63135   0.436   0.315   4.504  0.1805  0.0808  0.3631
52007SOL    HW163136   0.371   0.252   4.537 -0.5402  0.7161  0.1946
52007SOL    HW263137   0.454   0.286   4.415  0.2242 -0.1738  0.4547
52008SOL     OW63138   8.060   9.379   4.211 -0.1540  0.5862  0.3473
52008SOL    HW163139   7.965   9.383   4.201 -0.2583 -0.3231  0.9305
52008SOL    HW263140   8.077   9.293   4.247  0.9068  0.7173  0.1937
52009SOL     OW63141   5.528   4.474  12.854  0.1580 -0.0008  0.8867
52009SOL    HW163142   5.472   4.552  12.858  0.9169  1.0192 -3.1959
52009SOL    HW263143   5.606   4.498  12.904  0.4161  2.0238 -0.3506
52010SOL     OW63144  10.452   8.376   5.997  0.5813  0.2095 -0.1976
52010SOL    HW163145  10.453   8.359   6.091  0.8658 -1.5831 -0.4750
52010SOL    HW263146  10.369   8.421   5.981 -0.5931 -1.5507  0.6157
52011SOL     OW63147  11.152  12.343  12.820  0.3945  0.2806  0.2629
52011SOL    HW163148  11.124  12.409  12.756  1.9854 -0.0038 -0.7581
52011SOL    HW263149  11.070  12.309  12.856 -0.5549  0.5138 -1.5614
52012SOL     OW63150   2.778   9.779   1.299 -0.0360  0.2409  0.3186
52012SOL    HW163151   2.858   9.811   1.256 -0.5595 -0.8805 -1.6177
52012SOL    HW263152   2.768   9.690   1.267 -2.0181  0.3307  0.5750
52013SOL     OW63153   5.295   2.190  12.234  0.1433 -0.1672  0.2900
52013SOL    HW163154   5.334   2.254  12.292 -0.0597 -0.3601  0.6401
52013SOL    HW263155   5.365   2.168  12.172 -0.0756  1.1039 -0.4440
52014SOL     OW63156   5.227   1.313  11.495 -0.2005 -0.0511 -0.2567
52014SOL    HW163157   5.279   1.391  11.510 -0.3986  0.0710 -0.2026
52014SOL    HW263158   5.269   1.269  11.421 -0.2305  0.2285 -0.4399
52015SOL     OW63159  11.772   5.392   9.765 -0.2631  0.4727  0.4526
52015SOL    HW163160  11.832   5.428   9.831 -0.4774 -1.6133  1.8821
52015SOL    HW263161  11.817   5.314   9.731 -1.5923 -0.3964  0.6083
52016SOL     OW63162   2.563  12.556   1.997 -0.5902  0.5382  0.6590
52016SOL    HW163163   2.631  12.608   1.955 -0.7798 -0.6778 -1.2893
52016SOL    HW263164   2.484  12.573   1.945 -0.2098 -3.1960 -1.5166
52017SOL     OW63165   9.308   1.868   8.527  0.5113  0.3322  0.2141
52017SOL    HW163166   9.290   1.847   8.436  0.1708  0.3303  0.2800
52017SOL    HW263167   9.278   1.958   8.539 -2.9220 -0.7929  1.2289
52018SOL     OW63168   8.652   6.560   6.444 -0.5315 -0.6214 -0.0990
52018SOL    HW163169   8.669   6.518   6.359 -1.5349  0.1708 -0.7128
52018SOL    HW263170   8.738   6.561   6.487 -0.0980 -1.4857 -0.8899
52019SOL     OW63171   3.520   4.882   5.729 -0.0755  0.0380  0.2494
52019SOL    HW163172   3.458   4.862   5.798  0.1266  0.0013  0.4230
52019SOL    HW263173   3.490   4.964   5.691 -0.1640  0.0789  0.4091
52020SOL     OW63174   2.938   6.344  12.848 -0.1432  0.0916 -0.1950
52020SOL    HW163175   2.883   6.393  12.909  2.3453 -1.4634  3.6961
52020SOL    HW263176   3.022   6.392  12.848  1.3350 -2.3031  1.2991
52021SOL     OW63177   6.241   1.930  10.424 -0.6014 -0.4027  0.3007
52021SOL    HW163178   6.193   1.881  10.491  0.7706  0.0931  1.7126
52021SOL    HW263179   6.238   2.021  10.454 -0.5968 -0.0623 -0.7143
52022SOL     OW63180  12.725  11.997   4.607 -0.2154  0.2411 -0.3843
52022SOL    HW163181  12.819  11.998   4.589  0.0010  2.1078  0.6469
52022SOL    HW263182  12.704  11.904   4.617  1.3757 -0.2499 -1.3067
52023SOL     OW63183   6.614   6.779   2.933 -0.5982 -0.2974  0.3584
52023SOL    HW163184   6.518   6.776   2.930 -0.7883  2.3894  0.5455
52023SOL    HW263185   6.636   6.856   2.880  1.3833 -0.3526  1.0332
52024SOL     OW63186   4.484   5.601   3.032  0.1699  0.9425 -0.2072
52024SOL    HW163187   4.550   5.662   3.066  0.4881 -0.3268  1.5617
52024SOL    HW263188   4.535   5.525   3.003 -0.5076 -0.2737  1.6749
52025SOL     OW63189  11.392  11.944   5.640 -0.2251  0.2110  0.1147
52025SOL    HW163190  11.412  11.850   5.639 -0.4180  0.1524  1.1905
52025SOL    HW263191  11.368  11.963   5.730 -0.6012  1.2179 -0.1842
52026SOL     OW63192   9.049  10.597   6.836 -0.4380  0.1612  0.2870
52026SOL    HW163193   9.117  10.657   6.807 -1.5303  0.7831 -1.1361
52026SOL    HW263194   9.080  10.562   6.919  0.4309  2.3536  0.9273
52027SOL     OW63195   2.322   8.168   2.243 -0.1686 -0.2913 -0.1925
52027SOL    HW163196   2.275   8.155   2.325  1.2604  1.8551  1.0493
52027SOL    HW263197   2.260   8.214   2.186 -0.9469 -1.2241 -0.1208
52028SOL     OW63198   4.688  10.160   9.552  0.4468  0.4764  0.2182
52028SOL    HW163199   4.687  10.120   9.465  1.6030 -0.0885  0.4425
52028SOL    HW263200   4.779  10.150   9.581  0.6376  2.6620  0.5740
52029SOL     OW63201  12.838   1.079   7.176 -0.5530  0.3474 -0.1303
52029SOL    HW163202  12.933   1.073   7.161 -0.7939 -0.0187 -1.6021
52029SOL    HW263203  12.808   0.988   7.169 -0.9979  0.4327  0.5757
52030SOL     OW63204   5.557   4.896  12.910  0.2738 -0.5701 -0.1176
52030SOL    HW163205   5.528   4.835  12.843 -0.2390 -0.0202 -0.4035
52030SOL    HW263206   5.583   4.974  12.861  2.6010 -1.1473  0.0792
52031SOL     OW63207   8.370   6.656   8.498 -0.1514 -0.1255 -0.1528
52031SOL    HW163208   8.432   6.589   8.470 -0.8377 -0.4169 -1.0268
52031SOL    HW263209   8.301   6.654   8.432  0.1341  1.9297 -0.5778
52032SOL     OW63210  12.045   4.532   3.783  0.1105 -0.3476 -0.1632
52032SOL    HW163211  11.994   4.491   3.714  1.1532 -1.7824 -0.1231
52032SOL    HW263212  11.985   4.595   3.823 -0.6568  0.1744 -2.0363
52033SOL     OW63213   0.559   6.897   0.828  0.6101 -0.4967 -0.3246
52033SOL    HW163214   0.599   6.811   0.846  0.2228 -0.6193 -0.0354
52033SOL    HW263215   0.557   6.903   0.733 -1.8618 -2.0272 -0.4678
52034SOL     OW63216   6.981   9.498   3.328  0.0825 -0.4713  0.5276
52034SOL    HW163217   6.934   9.426   3.369 -0.6078 -0.8585 -0.8658
52034SOL    HW263218   7.026   9.458   3.254 -1.6802  0.7392 -1.3121
52035SOL     OW63219   6.438   2.314   7.392  0.6676 -0.4518  0.4842
52035SOL    HW163220   6.425   2.341   7.301 -0.6585 -1.7117  0.2496
52035SOL    HW263221   6.532   2.304   7.401  0.9212  0.9335 -0.3611
52036SOL     OW63222   7.427   1.929   8.285  0.0814 -0.0957 -0.0997
52036SOL    HW163223   7.382   1.845   8.287 -1.0874  0.5190  0.9633
52036SOL    HW263224   7.428   1.959   8.376  1.5224  0.5098 -0.2921
52037SOL     OW63225   0.403  11.358   6.975 -0.6521 -0.2183 -0.0689
52037SOL    HW163226   0.397  11.263   6.964 -1.7000 -0.1164 -0.5089
52037SOL    HW263227   0.362  11.394   6.896 -0.0403  0.6098 -0.0302
52038SOL     OW63228  12.189   8.272   0.797 -0.0251 -0.2762  0.5239
52038SOL    HW163229  12.239   8.310   0.869  0.3044 -0.7045  0.5248
52038SOL    HW263230  12.119   8.222   0.839  2.1322 -3.3685  0.7293
52039SOL     OW63231   9.964  10.265   9.147  0.0459 -0.0769 -0.2945
52039SOL    HW163232   9.978  10.342   9.091 -1.1096 -0.6143 -1.3916
52039SOL    HW263233   9.922  10.300   9.225  2.4592  0.8069  0.6874
52040SOL     OW63234   7.388  11.583   9.502  0.1927  0.2658  0.0588
52040SOL    HW163235   7.447  11.589   9.426  0.7709  0.1820  0.5013
52040SOL    HW263236   7.442  11.608   9.577 -0.3075  0.0878  0.4839
52041SOL     OW63237   6.366  10.005   4.575  0.0827  0.2493 -0.0228
52041SOL    HW163238   6.439  10.008   4.513 -0.0533  0.8290 -0.1525
52041SOL    HW263239   6.404   9.970   4.655 -0.3939 -3.8605 -1.3501
52042SOL     OW63240   2.726   7.861   8.140  0.4290  0.9268 -0.2867
52042SOL    HW163241   2.711   7.767   8.125  2.5362  0.3934  0.4906
52042SOL    HW263242   2.772   7.890   8.061  0.8172  1.0150 -0.0284
52043SOL     OW63243  11.332   5.531   0.489 -0.2940 -0.0563  0.0248
52043SOL    HW163244  11.415   5.555   0.530  2.4317 -1.5021 -4.0221
52043SOL    HW263245  11.327   5.436   0.498  0.1486 -0.3605 -2.3319
52044SOL     OW63246   6.729  12.558   6.516  0.3557 -0.8739  0.1646
52044SOL    HW163247   6.780  12.612   6.455 -2.3114  1.2467 -0.4137
52044SOL    HW263248   6.705  12.481   6.465 -1.6711  0.7766 -1.5482
52045SOL     OW63249   5.056  11.726  10.632  0.0933 -0.0258  0.2383
52045SOL    HW163250   4.985  11.685  10.681  1.4312 -1.2456  1.2648
52045SOL    HW263251   5.014  11.768  10.558 -1.4130 -3.5381 -1.1032
52046SOL     OW63252   2.407   0.291   2.283  0.7537 -0.3340 -0.4130
52046SOL    HW163253   2.420   0.363   2.344 -0.0910 -1.4238  1.0950
52046SOL    HW263254   2.318   0.260   2.299 -0.0747  0.2454 -3.2204
52047SOL     OW63255   4.107   9.962   1.841  0.0294 -0.1090 -0.1162
52047SOL    HW163256   4.083   9.974   1.933  1.5481 -3.5506  0.8694
52047SOL    HW263257   4.026   9.938   1.797 -0.6579  1.3126  0.3109
52048SOL     OW63258   4.131   8.868   9.003  0.0034  0.2935  0.1002
52048SOL    HW163259   4.159   8.796   9.059 -1.1911  0.0597  0.4369
52048SOL    HW263260   4.079   8.924   9.061  0.4423  1.1336 -0.2975
52049SOL     OW63261   9.061  10.758   3.548 -0.0763 -0.0603 -0.0641
52049SOL    HW163262   9.049  10.669   3.513  1.0523  0.0683 -0.8288
52049SOL    HW263263   9.115  10.746   3.626 -0.6289 -0.1235  0.3095
52050SOL     OW63264  12.218   9.392  11.971  0.3521  0.1139 -0.1115
52050SOL    HW163265  12.275   9.326  11.933 -2.3684 -2.4445 -0.1445
52050SOL    HW263266  12.245   9.397  12.063 -1.2292 -3.5040  0.7173
52051SOL     OW63267   3.716   9.794   8.996  0.0222  0.2829 -0.4346
52051SOL    HW163268   3.733   9.886   9.018 -0.2001  0.3593 -0.5751
52051SOL    HW263269   3.771   9.744   9.056  0.1356  0.5092 -0.3501
52052SOL     OW63270  12.072   4.005   7.692 -0.4439 -0.4350  0.1483
52052SOL    HW163271  12.084   3.974   7.782 -0.1947  0.4202  0.4160
52052SOL    HW263272  11.996   4.063   7.696  0.4508  0.7781  0.1166
52053SOL     OW63273   4.658   7.408   4.282  0.2268  0.4620  0.4264
52053SOL    HW163274   4.668   7.500   4.309  0.3887  0.4337  0.4636
52053SOL    HW263275   4.565   7.399   4.261 -0.0631  0.2859  1.7123
52054SOL     OW63276   9.268   9.582  10.813  0.5036 -0.3851  0.1844
52054SOL    HW163277   9.356   9.544  10.812  0.2005 -1.1692  1.6165
52054SOL    HW263278   9.257   9.614  10.903 -0.2474  0.7782 -0.2931
52055SOL     OW63279   9.882   4.961   0.910 -0.1087 -0.0980 -0.0482
52055SOL    HW163280   9.971   4.935   0.886  0.2887  2.0416 -1.0742
52055SOL    HW263281   9.838   4.975   0.827 -1.7138 -1.9157  0.4241
52056SOL     OW63282   2.332   8.533   5.251 -0.3491 -0.8072  0.0740
52056SOL    HW163283   2.380   8.573   5.324 -0.8176 -1.4939  0.7735
52056SOL    HW263284   2.368   8.445   5.245  0.7415 -0.3032 -1.5110
52057SOL     OW63285   6.213   3.596  10.199 -0.0426 -0.0963  0.0816
52057SOL    HW163286   6.133   3.648  10.200 -0.6880 -0.9823  2.5870
52057SOL    HW263287   6.270   3.639  10.263  0.7726 -0.5334 -0.3317
52058SOL     OW63288   8.411   8.474   0.293  0.1825  0.1539 -0.3135
52058SOL    HW163289   8.345   8.412   0.323  1.5724 -0.4152  1.7564
52058SOL    HW263290   8.400   8.550   0.351 -0.2163  1.0862 -1.5582
52059SOL     OW63291   3.035  10.258   2.595 -0.4548  0.1606  0.1989
52059SOL    HW163292   2.997  10.297   2.674  0.2643 -1.1388  1.2210
52059SOL    HW263293   3.111  10.313   2.576 -0.2026  0.0541  0.8623
52060SOL     OW63294   2.412   5.759  11.189 -0.4128 -0.7529  0.1074
52060SOL    HW163295   2.383   5.848  11.169 -3.7102 -1.8219 -0.5414
52060SOL    HW263296   2.474   5.769  11.261 -0.4152  2.0670 -0.1895
52061SOL     OW63297  12.361   8.652   4.038  0.0428 -0.1434  0.1578
52061SOL    HW163298  12.431   8.587   4.043  1.6098  1.4988  1.0199
52061SOL    HW263299  12.390   8.723   4.095 -1.7274  1.1846 -0.4853
52062SOL     OW63300   6.782   0.310   6.591 -0.4092  0.3119 -0.1670
52062SOL    HW163301   6.755   0.333   6.502  0.1851  0.2824 -0.3579
52062SOL    HW263302   6.866   0.266   6.580 -0.3828  0.2103  0.4042
52063SOL     OW63303   1.289   8.587   1.776  0.3480  0.4051  0.3789
52063SOL    HW163304   1.356   8.641   1.818  1.3182 -0.6836  0.2830
52063SOL    HW263305   1.285   8.508   1.829 -0.2774  0.1115 -0.0982
52064SOL     OW63306   4.636   9.566   9.263 -0.0795 -0.1229  0.3850
52064SOL    HW163307   4.565   9.502   9.259  0.0584 -0.3865  1.5930
52064SOL    HW263308   4.605   9.633   9.324  0.3126  0.2749  0.1562
52065SOL     OW63309  11.990   7.194   7.591 -0.3461 -0.2952  0.0904
52065SOL    HW163310  11.930   7.129   7.554  0.0619 -2.0971  2.3305
52065SOL    HW263311  11.933   7.251   7.643 -0.7935  1.6699 -2.3667
52066SOL     OW63312  12.960   2.836   2.527  0.4472 -0.0778 -0.4461
52066SOL    HW163313  12.984   2.796   2.610 -0.9445  1.2880  0.6670
52066SOL    HW263314  12.867   2.858   2.537 -0.3352 -1.6335 -3.0918
52067SOL     OW63315  12.249  11.970  10.810 -0.2051  0.3369  0.3645
52067SOL    HW163316  12.274  11.907  10.743  2.4064  0.7529  0.8386
52067SOL    HW263317  12.279  11.931  10.892  0.5831  1.7064  0.7751
52068SOL     OW63318   0.428  10.307  10.574  0.1057 -0.4467 -0.1977
52068SOL    HW163319   0.350  10.258  10.547  0.2924 -1.7516  1.4694
52068SOL    HW263320   0.400  10.398  10.575 -2.1413 -1.0432  2.4835
52069SOL     OW63321   5.535  10.001   1.692  0.5059 -0.3836 -0.2247
52069SOL    HW163322   5.591   9.926   1.673  1.4990  0.0853  0.7324
52069SOL    HW263323   5.593  10.077   1.684  0.1696  0.0719  1.3899
52070SOL     OW63324   2.435   7.373   4.090  0.5152  0.7477  0.3858
52070SOL    HW163325   2.351   7.408   4.060  1.2019  2.6955  0.5512
52070SOL    HW263326   2.412   7.303   4.151 -1.0212  1.7740  1.0496
52071SOL     OW63327   2.443  10.459   9.879  0.1606  0.3519 -0.0140
52071SOL    HW163328   2.494  10.392   9.834 -1.9229 -0.3246 -1.4630
52071SOL    HW263329   2.434  10.426   9.968  2.8161  0.8734  0.5547
52072SOL     OW63330   5.058  10.465   2.827  0.3935  0.2640  0.0232
52072SOL    HW163331   5.056  10.560   2.809 -0.2271 -0.0441 -1.7786
52072SOL    HW263332   5.136  10.453   2.880  1.3326  1.6063 -0.9759
52073SOL     OW63333   7.683   1.214   4.230  0.0497  0.0489 -0.2282
52073SOL    HW163334   7.746   1.141   4.230 -0.2642 -0.2237  0.5247
52073SOL    HW263335   7.732   1.288   4.265  0.2421  0.0926 -0.5852
52074SOL     OW63336   2.586  10.450   0.046  0.5870  0.1836  0.1885
52074SOL    HW163337   2.526  10.400  -0.010 -0.1758  1.5731 -0.2831
52074SOL    HW263338   2.622  10.517  -0.012  3.9172 -1.5446  0.0057
52075SOL     OW63339   1.184  11.324   8.441  0.0204  0.8619 -0.1190
52075SOL    HW163340   1.124  11.353   8.372 -0.3964 -2.0614 -1.1108
52075SOL    HW263341   1.128  11.312   8.518 -0.0582  1.2711 -0.1099
52076SOL     OW63342  11.214  12.266   0.608 -0.0145 -0.3165  0.3767
52076SOL    HW163343  11.122  12.266   0.632  0.2873 -1.1718  1.6302
52076SOL    HW263344  11.261  12.265   0.691  1.3120  5.0464  0.0405
52077SOL     OW63345   8.329  11.884  11.596 -0.7648  0.4157  0.1223
52077SOL    HW163346   8.294  11.826  11.528 -2.7245  0.7901  0.7754
52077SOL    HW263347   8.394  11.830  11.642 -2.0951 -1.0721  0.3274
52078SOL     OW63348   3.397   0.081  12.489  0.2385 -0.5664 -0.6947
52078SOL    HW163349   3.348   0.067  12.408 -0.3173  1.2328 -0.7179
52078SOL    HW263350   3.341   0.140  12.541  1.0817 -0.8001  0.5195
52079SOL     OW63351   8.280   1.490   7.196  0.2422  0.2576  0.2353
52079SOL    HW163352   8.315   1.434   7.266  0.3911  0.0247 -0.0263
52079SOL    HW263353   8.267   1.431   7.122  1.4624  0.7728 -0.4096
52080SOL     OW63354   8.436  10.573   8.253 -0.2781 -0.3092  0.5714
52080SOL    HW163355   8.406  10.646   8.307 -1.3764 -0.3570  0.0530
52080SOL    HW263356   8.525  10.596   8.229 -0.3742  0.5335  0.9768
52081SOL     OW63357   6.323  10.160   8.552 -0.4046  0.0734  0.0491
52081SOL    HW163358   6.273  10.094   8.599 -1.2642  0.6266 -0.0494
52081SOL    HW263359   6.407  10.119   8.532 -1.1383 -1.1874 -0.5282
52082SOL     OW63360  11.828   3.396   9.896  0.3176 -0.3467 -0.4553
52082SOL    HW163361  11.743   3.356   9.909  0.6077 -1.5576 -2.0049
52082SOL    HW263362  11.829   3.471   9.956 -1.4188 -0.8900  0.3086
52083SOL     OW63363   8.281   3.631   9.498 -0.0481  0.2140  0.1864
52083SOL    HW163364   8.272   3.603   9.589  1.0394  0.2444  0.3183
52083SOL    HW263365   8.334   3.710   9.503  2.5395 -1.3438 -0.6443
52084SOL     OW63366   3.111  12.939   4.177 -0.0199  0.1610 -0.4778
52084SOL    HW163367   3.076  12.971   4.261 -1.8445 -0.1145 -1.0954
52084SOL    HW263368   3.116  12.844   4.188  0.5910  0.1984 -0.3890
52085SOL     OW63369   5.910   3.068   6.263 -0.2461  0.3063  0.1424
52085SOL    HW163370   5.868   3.143   6.221  1.3191  1.3528  0.3554
52085SOL    HW263371   5.935   3.011   6.190  1.2186  1.4498 -0.2947
52086SOL     OW63372  10.782   0.381   5.434  0.1778 -0.4106 -0.2754
52086SOL    HW163373  10.726   0.401   5.509 -0.0112 -0.3205 -0.4414
52086SOL    HW263374  10.862   0.431   5.451  0.1891 -0.4956 -0.0671
52087SOL     OW63375   3.426  11.252   8.144 -0.2231  0.2600 -0.6695
52087SOL    HW163376   3.511  11.213   8.164 -0.4857  0.2969  0.6194
52087SOL    HW263377   3.378  11.183   8.098 -0.5157 -0.8239  1.1623
52088SOL     OW63378   9.666  11.486  10.083 -0.1337  0.4293 -0.1978
52088SOL    HW163379   9.609  11.470  10.159  1.3854 -0.4452  0.8295
52088SOL    HW263380   9.614  11.459  10.008 -1.1730 -0.1052  0.6795
52089SOL     OW63381  12.520   7.879  12.647 -0.5361  0.0784  0.3990
52089SOL    HW163382  12.518   7.812  12.715 -0.4244  0.0269  0.3513
52089SOL    HW263383  12.610   7.879  12.616 -0.2907  0.9404  1.0815
52090SOL     OW63384   4.970   4.596   5.521  0.6059  0.1043  0.2774
52090SOL    HW163385   4.955   4.541   5.598  0.3418 -2.0944 -1.2499
52090SOL    HW263386   4.919   4.554   5.451  0.0291  2.5801 -0.9219
52091SOL     OW63387  12.553   5.799   8.808 -0.0478  0.1336  0.0907
52091SOL    HW163388  12.471   5.783   8.762 -0.7982  0.7067  1.1556
52091SOL    HW263389  12.541   5.886   8.846  0.4915 -0.3480  1.4126
52092SOL     OW63390   6.554   7.076  11.550  0.2671  0.1094 -0.1475
52092SOL    HW163391   6.592   7.066  11.637 -0.3088  0.4415  0.1453
52092SOL    HW263392   6.629   7.073  11.490  0.7044  0.3314  0.3879
52093SOL     OW63393  12.208   0.755   0.592  0.6862 -0.0687 -0.3334
52093SOL    HW163394  12.266   0.686   0.623 -0.0594 -0.7049 -0.3319
52093SOL    HW263395  12.157   0.714   0.522  1.8322  1.1266 -1.9883
52094SOL     OW63396  12.541   8.380  11.552  0.0366 -0.4515  0.0192
52094SOL    HW163397  12.453   8.415  11.538  0.7628  0.8841 -1.6258
52094SOL    HW263398  12.579   8.436  11.619  0.2808  0.2270 -0.6758
52095SOL     OW63399   0.258   4.560   2.713  0.2839 -0.2300  0.0539
52095SOL    HW163400   0.182   4.581   2.767  1.2141  0.9860  0.9612
52095SOL    HW263401   0.241   4.472   2.680 -0.7865 -0.6122  1.5153
52096SOL     OW63402  11.442  11.605   4.185 -0.2594  0.4600  0.2162
52096SOL    HW163403  11.386  11.564   4.252  0.7244  0.2394  0.9160
52096SOL    HW263404  11.399  11.689   4.167 -0.1138  0.8864  1.7142
52097SOL     OW63405   4.214   6.305  12.307  0.0781 -0.0286 -0.2211
52097SOL    HW163406   4.167   6.253  12.373  0.5954 -0.5557 -0.2550
52097SOL    HW263407   4.285   6.248  12.279  0.4575  0.5826 -0.5113
52098SOL     OW63408   9.307   0.114  12.706 -0.5043 -0.0419 -0.2778
52098SOL    HW163409   9.343   0.203  12.715  0.3255 -0.1594 -2.0443
52098SOL    HW263410   9.370   0.068  12.652 -1.2823 -1.5293  0.0278
52099SOL     OW63411  12.276  10.178   9.876 -0.0562 -0.3880  1.0747
52099SOL    HW163412  12.280  10.124   9.956 -1.8235 -1.4543  0.4952
52099SOL    HW263413  12.183  10.195   9.863  0.3676  2.0412  0.6687
52100SOL     OW63414   5.986  12.461   8.468  0.0954  0.0053  0.0630
52100SOL    HW163415   6.022  12.373   8.455 -0.4512 -0.2090 -0.0154
52100SOL    HW263416   6.058  12.511   8.508  0.1916 -0.6519  0.7131
52101SOL     OW63417   0.978   3.562  12.487  0.6995 -0.1859  0.1201
52101SOL    HW163418   0.970   3.597  12.575 -0.5841 -2.0032  0.7750
52101SOL    HW263419   1.033   3.484  12.496  0.9888 -0.1022 -0.7765
52102SOL     OW63420  12.240   2.398  12.215  0.3205  0.2174 -0.1511
52102SOL    HW163421  12.256   2.469  12.152  1.2686  1.1004  1.0393
52102SOL    HW263422  12.205   2.442  12.293  0.5060 -0.6723  0.4506
52103SOL     OW63423  10.856   7.358   1.709  0.1211  0.8374  0.7346
52103SOL    HW163424  10.798   7.291   1.746  1.1383  0.3706  1.5566
52103SOL    HW263425  10.940   7.313   1.696  0.7590  1.8803  1.0832
52104SOL     OW63426   0.275  11.390  11.494 -0.2208 -0.3981 -0.0260
52104SOL    HW163427   0.289  11.378  11.400 -1.5036 -1.2870 -0.1252
52104SOL    HW263428   0.363  11.407  11.529  0.2179  0.4190 -1.4330
52105SOL     OW63429   0.469  12.740   7.863  0.3149  0.3287 -0.0921
52105SOL    HW163430   0.414  12.812   7.893  0.7291 -0.0327  1.6339
52105SOL    HW263431   0.499  12.697   7.943 -1.1036 -2.7044 -1.0335
52106SOL     OW63432   3.587   5.111   3.511 -0.3586  0.3616 -0.2640
52106SOL    HW163433   3.633   5.078   3.434 -0.1358  1.2449 -0.5215
52106SOL    HW263434   3.497   5.079   3.501  0.1895 -1.4572  0.2866
52107SOL     OW63435   3.037   5.947   2.473 -0.2604  0.5032 -0.6286
52107SOL    HW163436   3.113   5.891   2.454  1.0098  0.9915  2.4161
52107SOL    HW263437   2.966   5.909   2.422  1.0126 -2.7180 -0.2460
52108SOL     OW63438   2.937   6.836   7.280  0.1205  0.5475 -0.3366
52108SOL    HW163439   2.922   6.743   7.261  0.8539  0.1585  0.9169
52108SOL    HW263440   2.909   6.881   7.200 -2.8642 -0.5122 -0.0189
52109SOL     OW63441  10.094   5.461  12.263  0.2680  0.3562 -0.6728
52109SOL    HW163442  10.155   5.428  12.330  0.8617  0.8620 -0.9507
52109SOL    HW263443  10.086   5.554  12.282  0.7485  0.5821 -1.5311
52110SOL     OW63444   5.364   3.451  11.514  0.3812 -0.1614 -0.2753
52110SOL    HW163445   5.434   3.478  11.575  0.1657 -0.4360  0.0989
52110SOL    HW263446   5.399   3.373  11.471  0.1253 -0.5716  0.2488
52111SOL     OW63447   5.967   3.456  10.788 -0.3891 -0.6155  0.0843
52111SOL    HW163448   6.056   3.474  10.759 -1.2853  2.1021 -1.3373
52111SOL    HW263449   5.939   3.380  10.737  0.3910 -0.1432 -1.0603
52112SOL     OW63450   6.490   6.419   5.809  0.1992  0.5349  0.3243
52112SOL    HW163451   6.550   6.460   5.871  3.4968 -1.2177 -1.4051
52112SOL    HW263452   6.517   6.455   5.724 -1.6494  0.0774 -0.5033
52113SOL     OW63453   7.476   3.206   1.864 -0.4748  0.3599 -0.3845
52113SOL    HW163454   7.406   3.249   1.913 -1.2241  0.1918 -1.2898
52113SOL    HW263455   7.516   3.147   1.928 -2.0522 -0.5722 -0.1900
52114SOL     OW63456  12.594  10.910   8.800 -0.0492 -0.3911 -0.3855
52114SOL    HW163457  12.635  10.974   8.743  0.8448 -0.1827  0.4699
52114SOL    HW263458  12.609  10.942   8.889 -0.0686 -1.4877  0.0400
52115SOL     OW63459  12.430  11.008   0.642  0.1752  0.8726  0.2276
52115SOL    HW163460  12.417  10.957   0.562  0.9537  0.7692  0.1664
52115SOL    HW263461  12.389  10.956   0.711  1.1898  0.0421  0.2070
52116SOL     OW63462   0.922   3.322   5.128 -0.4531 -0.2329 -0.4304
52116SOL    HW163463   1.001   3.268   5.129 -0.9394 -1.0669 -2.4345
52116SOL    HW263464   0.915   3.356   5.218  2.1286 -0.1598 -0.1636
52117SOL     OW63465   9.433   0.919   9.168  0.0682 -0.6715 -0.4854
52117SOL    HW163466   9.412   1.001   9.122 -0.4780  0.0372  0.9588
52117SOL    HW263467   9.528   0.914   9.166  0.1788  0.5917  0.3411
52118SOL     OW63468   5.774  10.912   1.617 -0.7142  0.4522  0.1987
52118SOL    HW163469   5.753  10.898   1.525 -0.0241  0.5813  0.0105
52118SOL    HW263470   5.692  10.899   1.664 -1.3079  1.4099 -0.5417
52119SOL     OW63471   3.595  10.701   1.322 -0.1266  0.0298  0.7026
52119SOL    HW163472   3.635  10.699   1.409  0.7056  0.8513  0.3543
52119SOL    HW263473   3.599  10.792   1.295 -0.1720 -0.2475 -0.2903
52120SOL     OW63474   3.429  12.243  10.846 -0.0243  0.4098 -0.1980
52120SOL    HW163475   3.412  12.317  10.903 -2.0851  0.0769 -0.3054
52120SOL    HW263476   3.403  12.273  10.759  1.1419  0.2274 -0.6404
52121SOL     OW63477   6.718  10.120   5.373 -0.2363  0.1191  0.4211
52121SOL    HW163478   6.775  10.044   5.376  1.5970  1.4261  0.8248
52121SOL    HW263479   6.730  10.155   5.285 -0.0421  0.6350  0.6438
52122SOL     OW63480  11.771   4.286   4.881  0.1344 -0.2198 -0.4069
52122SOL    HW163481  11.838   4.353   4.871 -0.3252  0.3971  0.4358
52122SOL    HW263482  11.749   4.289   4.974 -1.1076 -0.3496 -0.6785
52123SOL     OW63483   0.740   6.627   8.685 -0.0756  0.4697  0.0429
52123SOL    HW163484   0.761   6.566   8.755 -2.4541 -0.0697  0.3713
52123SOL    HW263485   0.754   6.714   8.723  1.8227  0.1949  0.0701
52124SOL     OW63486   2.572   1.282  11.392 -0.2951 -0.5055 -0.0489
52124SOL    HW163487   2.533   1.369  11.391  0.4030 -0.1761  0.3226
52124SOL    HW263488   2.507   1.227  11.435 -0.6538 -0.1236 -0.0889
52125SOL     OW63489   6.936  11.303   2.978 -0.8379  0.5828 -0.8145
52125SOL    HW163490   6.877  11.368   3.017  1.0665  0.9984  1.6859
52125SOL    HW263491   6.998  11.356   2.927  0.0545  0.7001  0.3323
52126SOL     OW63492   0.199  10.784   9.965 -0.7867 -0.8123 -0.7940
52126SOL    HW163493   0.277  10.791   9.909  0.0353 -0.5842  0.3299
52126SOL    HW263494   0.135  10.842   9.924  0.9673  2.1360  0.3053
52127SOL     OW63495   3.988   2.730   9.640  0.6372  0.4500 -0.5696
52127SOL    HW163496   4.010   2.637   9.637  0.7135  0.4602 -0.3598
52127SOL    HW263497   3.914   2.740   9.581 -0.2385  0.0199  0.4126
52128SOL     OW63498  10.049   3.644   6.994  0.1114 -0.6073  0.0533
52128SOL    HW163499   9.967   3.595   6.993  0.4341 -1.1611  0.0020
52128SOL    HW263500  10.112   3.585   6.952  0.4094  0.0332 -0.4173
52129SOL     OW63501  11.799   7.616   6.323 -0.2660  0.6121 -0.1731
52129SOL    HW163502  11.862   7.560   6.368  0.8244  1.3169 -0.7718
52129SOL    HW263503  11.730   7.633   6.388 -0.4637 -1.1371  0.1138
52130SOL     OW63504   5.509   6.145  12.605 -0.4539 -0.0053 -1.0419
52130SOL    HW163505   5.545   6.233  12.605  0.4251 -0.2837  1.3526
52130SOL    HW263506   5.461   6.138  12.522  1.9743  1.6244 -2.7082
52131SOL     OW63507   0.249   4.575  11.432 -0.0589 -0.4184  0.6793
52131SOL    HW163508   0.264   4.487  11.397 -1.4931 -0.0854 -0.8809
52131SOL    HW263509   0.154   4.580  11.446 -0.6453  2.0311 -2.8165
52132SOL     OW63510   4.393  10.607   4.917 -0.1241  0.0014 -0.2496
52132SOL    HW163511   4.322  10.558   4.874  2.1428 -2.1845 -1.7483
52132SOL    HW263512   4.457  10.623   4.847  1.6970  0.3114  1.4090
52133SOL     OW63513   3.407   3.708   1.429 -0.2757 -0.4381 -0.0855
52133SOL    HW163514   3.499   3.734   1.423 -0.3277 -0.2799 -0.1840
52133SOL    HW263515   3.410   3.613   1.441 -0.1012 -0.4413 -0.1550
52134SOL     OW63516   0.498  11.638   5.469 -0.3717 -0.4387  0.1239
52134SOL    HW163517   0.480  11.552   5.433  1.4192 -0.8307  0.0404
52134SOL    HW263518   0.577  11.626   5.522 -0.6926  0.9341  0.9734
52135SOL     OW63519   0.064  11.196  12.665 -0.4339  0.0059 -0.8112
52135SOL    HW163520  -0.026  11.197  12.695 -0.9582  0.5429 -2.2815
52135SOL    HW263521   0.065  11.256  12.590  1.4344  1.0446 -0.0341
52136SOL     OW63522   0.775   7.279   5.678 -0.2291 -0.1283  0.4477
52136SOL    HW163523   0.810   7.191   5.673 -0.9116 -0.4744  1.4974
52136SOL    HW263524   0.750   7.291   5.770 -2.3828  0.2556 -0.1135
52137SOL     OW63525   1.632   9.274   3.466 -0.3872  0.1126  0.5041
52137SOL    HW163526   1.700   9.315   3.414  0.6273 -0.7749  1.0993
52137SOL    HW263527   1.660   9.183   3.476 -2.0053 -0.4643  0.1837
52138SOL     OW63528   3.964   9.612   6.172 -0.0647  0.0329  0.6054
52138SOL    HW163529   3.917   9.546   6.224 -1.2842  0.3237 -0.0739
52138SOL    HW263530   3.895   9.655   6.121  0.8343  1.1682  0.3075
52139SOL     OW63531  10.264   8.794   2.780 -0.1006 -0.0948  0.2479
52139SOL    HW163532  10.222   8.765   2.700  0.0749  1.9578 -0.6471
52139SOL    HW263533  10.327   8.725   2.800 -0.2739 -0.7372 -1.2823
52140SOL     OW63534   8.450  12.759   8.959 -0.1727  0.0455 -0.9328
52140SOL    HW163535   8.428  12.666   8.962 -1.4349  0.3505  1.5490
52140SOL    HW263536   8.543  12.760   8.935 -0.0000 -1.8685 -0.5134
52141SOL     OW63537   6.044   5.208   8.384  0.3240  0.2358  0.0673
52141SOL    HW163538   5.985   5.274   8.348 -2.3412 -0.6332  2.4100
52141SOL    HW263539   6.012   5.125   8.348  0.9605 -0.1536  0.3817
52142SOL     OW63540   2.193   4.569   3.899  0.3437  0.1235  0.2299
52142SOL    HW163541   2.189   4.484   3.856  0.2069  0.9782 -1.5503
52142SOL    HW263542   2.248   4.623   3.843  1.1785  0.9802  1.7905
52143SOL     OW63543   1.129   3.022   1.042  0.3970 -0.2734  0.0002
52143SOL    HW163544   1.076   2.950   1.008 -1.8303  1.4183 -0.3603
52143SOL    HW263545   1.072   3.065   1.106  1.0172  2.0886 -0.9445
52144SOL     OW63546  11.207   4.475  10.215  0.3246 -0.0147 -0.0103
52144SOL    HW163547  11.133   4.500  10.269 -0.4126  1.7378 -1.6989
52144SOL    HW263548  11.181   4.392  10.174 -0.0921 -0.1280  0.4867
52145SOL     OW63549   2.920   3.315  10.216 -0.3769 -0.3732 -0.0158
52145SOL    HW163550   2.888   3.392  10.169  1.4571  0.7096  0.4239
52145SOL    HW263551   2.991   3.281  10.162 -1.0313 -1.6678 -0.1011
52146SOL     OW63552   0.943   1.990   7.064 -0.0381  0.4500  0.0460
52146SOL    HW163553   0.962   1.993   6.970  1.3369 -1.1646  0.2272
52146SOL    HW263554   0.874   2.056   7.076  1.3826  2.3893 -1.6774
52147SOL     OW63555   6.173   2.980   3.680  0.2861  0.2553  0.0704
52147SOL    HW163556   6.126   2.898   3.694  0.1363  0.4014  0.4473
52147SOL    HW263557   6.164   2.997   3.586  0.0463  0.0023  0.0443
52148SOL     OW63558   3.464   9.842   6.327  0.2044 -0.9381 -0.1583
52148SOL    HW163559   3.507   9.822   6.410 -1.8621 -0.1918  1.1817
52148SOL    HW263560   3.468   9.938   6.321 -0.3894 -0.9332 -0.4925
52149SOL     OW63561   9.463   7.374   1.638 -0.0630  0.7906  0.2137
52149SOL    HW163562   9.513   7.434   1.694 -1.0832  0.8305  1.1228
52149SOL    HW263563   9.376   7.372   1.678 -0.6537  0.3623 -1.0570
52150SOL     OW63564   9.267  10.534   9.371  0.0028  0.0747  0.1309
52150SOL    HW163565   9.171  10.537   9.372 -0.0662 -1.3280  1.9981
52150SOL    HW263566   9.293  10.625   9.356 -1.6272  0.7476  1.0861
52151SOL     OW63567  11.702   7.954  11.489 -0.0573  0.4115  0.0855
52151SOL    HW163568  11.708   8.021  11.421  1.5319 -0.2726 -0.4900
52151SOL    HW263569  11.679   7.874  11.442 -0.8379  0.3112  0.6216
52152SOL     OW63570   3.883   0.643   5.002 -0.5939  0.0849 -0.0819
52152SOL    HW163571   3.841   0.724   5.028  0.3145  0.2984  0.8078
52152SOL    HW263572   3.830   0.574   5.042  0.4408  0.3879  1.9579
52153SOL     OW63573   6.885   5.199   8.624  0.0157 -0.3272  0.2255
52153SOL    HW163574   6.873   5.270   8.561  0.1226 -1.0468 -0.6237
52153SOL    HW263575   6.979   5.196   8.639  0.1238 -0.9184 -0.5036
52154SOL     OW63576   5.050   2.323   9.561 -0.3409 -0.3484 -0.0193
52154SOL    HW163577   5.037   2.341   9.468 -0.0425 -2.6350 -0.5586
52154SOL    HW263578   4.974   2.269   9.586 -2.0603  2.6854  1.8948
52155SOL     OW63579  11.419   3.115   3.754  0.0174 -0.6027  0.0336
52155SOL    HW163580  11.372   3.176   3.812  0.0315  0.0311 -0.6099
52155SOL    HW263581  11.450   3.046   3.812 -0.2548 -0.1487  0.7342
52156SOL     OW63582   6.383   3.243   1.960 -0.3378  0.1946 -0.7341
52156SOL    HW163583   6.340   3.329   1.960  0.6001  0.6888 -1.1762
52156SOL    HW263584   6.312   3.180   1.949 -0.8651  1.0371 -2.5708
52157SOL     OW63585   7.803   9.627  10.314 -0.1779  0.1391  0.0159
52157SOL    HW163586   7.730   9.663  10.364  0.6514 -1.2833  2.3569
52157SOL    HW263587   7.862   9.702  10.301 -1.0053  0.8034  0.0232
52158SOL     OW63588  10.666   4.181   3.321  0.2373  0.4670 -0.4382
52158SOL    HW163589  10.658   4.212   3.411  0.3327 -0.6841 -0.0105
52158SOL    HW263590  10.576   4.166   3.293  0.2462 -0.1145 -0.1758
52159SOL     OW63591   0.615   4.615   5.148  0.2001  0.1703 -0.1200
52159SOL    HW163592   0.529   4.606   5.106  0.3513 -1.0061 -0.2059
52159SOL    HW263593   0.677   4.624   5.075  0.0143  2.8692 -0.0512
52160SOL     OW63594   3.496   6.539   0.772  0.7036  0.3347  0.1598
52160SOL    HW163595   3.426   6.589   0.730  0.8818  1.2007  0.8560
52160SOL    HW263596   3.542   6.604   0.825  1.8860 -0.2757 -0.1019
52161SOL     OW63597   0.039   2.348   0.150  0.4157  0.2532  0.1077
52161SOL    HW163598   0.025   2.418   0.214 -0.1098  0.5254 -0.3024
52161SOL    HW263599   0.057   2.395   0.068 -1.5970 -0.0659 -0.5549
52162SOL     OW63600   6.977   6.694   5.574 -0.3154  0.0304  0.3326
52162SOL    HW163601   7.035   6.618   5.585 -0.5665 -0.1430  0.4801
52162SOL    HW263602   7.034   6.763   5.540 -0.2387 -0.4435 -0.5150
52163SOL     OW63603   4.536  10.202   3.768  0.6001  0.0733 -0.2686
52163SOL    HW163604   4.524  10.201   3.863 -1.1151  1.1643 -0.4398
52163SOL    HW263605   4.498  10.119   3.738  0.5605  0.0154 -0.0567
52164SOL     OW63606   5.228   6.331  12.793  0.2360  0.0173 -0.5107
52164SOL    HW163607   5.317   6.325  12.759  0.0731 -1.2415 -0.7916
52164SOL    HW263608   5.216   6.250  12.843 -0.8830 -0.0438 -0.8432
52165SOL     OW63609   2.227   9.453   9.548  0.4020  0.4276  0.0442
52165SOL    HW163610   2.250   9.527   9.492 -0.1340  0.2956 -0.3549
52165SOL    HW263611   2.296   9.389   9.531  0.7501  0.7433  0.2303
52166SOL     OW63612  11.364  10.575   6.122 -1.0071  0.1211 -0.0562
52166SOL    HW163613  11.316  10.493   6.114 -1.5035  0.3306  0.6963
52166SOL    HW263614  11.321  10.633   6.059 -0.9334 -0.0621 -0.2786
52167SOL     OW63615  10.793  10.394  10.069 -0.3556  0.8929 -0.4638
52167SOL    HW163616  10.703  10.399  10.100 -0.6821  0.5963 -1.3304
52167SOL    HW263617  10.786  10.368   9.977  0.7160 -3.6027  0.4787
52168SOL     OW63618   5.087   2.315   8.413 -0.4163 -0.1100  0.0227
52168SOL    HW163619   5.082   2.410   8.407 -1.1647 -0.0480  1.2850
52168SOL    HW263620   5.181   2.297   8.418 -0.2806  0.8206  2.5439
52169SOL     OW63621   2.567  10.549   8.007 -0.1715  0.2828  0.7224
52169SOL    HW163622   2.539  10.538   8.098 -0.4536  0.4173  0.6501
52169SOL    HW263623   2.663  10.549   8.012 -0.1647  1.8178  1.2053
52170SOL     OW63624   7.141   1.908   8.960  0.1795 -0.2556  0.1606
52170SOL    HW163625   7.061   1.873   8.920 -0.5225 -1.2345  2.2657
52170SOL    HW263626   7.212   1.868   8.911 -0.6370 -2.2074  0.4857
52171SOL     OW63627   0.184   3.081  12.133  0.1045 -0.0599 -0.4507
52171SOL    HW163628   0.105   3.128  12.161 -0.3161  0.3697 -2.2509
52171SOL    HW263629   0.174   2.993  12.168 -0.4205  0.4243  0.6456
52172SOL     OW63630   2.342   4.911   1.462  0.1210 -0.1484  0.0316
52172SOL    HW163631   2.350   4.882   1.371 -2.3409  0.0051 -0.3048
52172SOL    HW263632   2.284   4.847   1.504 -1.6696  1.6202  0.4813
52173SOL     OW63633   7.231   5.003   1.035 -0.1970 -0.6393  0.1231
52173SOL    HW163634   7.316   5.031   1.068  0.2090 -1.5404 -0.1206
52173SOL    HW263635   7.208   4.927   1.089 -0.9847 -0.2303  0.3807
52174SOL     OW63636   9.553   1.608   8.864 -0.1866 -0.4192 -0.0697
52174SOL    HW163637   9.494   1.579   8.794 -0.3845 -1.7372  0.6121
52174SOL    HW263638   9.518   1.569   8.943  0.3189  0.6603  0.7136
52175SOL     OW63639   8.906   3.494   3.467 -0.2985  0.2291  0.0681
52175SOL    HW163640   8.904   3.585   3.494 -0.3061  0.1718  0.2632
52175SOL    HW263641   8.992   3.462   3.496 -0.1147  0.2956 -0.3994
52176SOL     OW63642   5.818  10.715   5.037  0.0991  1.0149  0.0197
52176SOL    HW163643   5.755  10.781   5.065  0.1321  1.8227 -1.6770
52176SOL    HW263644   5.873  10.760   4.973  0.5572 -0.4686 -0.6735
52177SOL     OW63645   6.460   2.311  12.046  0.0229  0.5355  0.2554
52177SOL    HW163646   6.414   2.278  11.969  0.5583 -1.3669  0.7199
52177SOL    HW263647   6.390   2.328  12.110 -0.3189  1.0245 -0.2358
52178SOL     OW63648   0.683  11.154   2.613  0.4045 -0.1007  0.4179
52178SOL    HW163649   0.730  11.079   2.648 -0.4220  0.0207  1.8782
52178SOL    HW263650   0.603  11.117   2.576  0.8113 -0.1141 -0.4755
52179SOL     OW63651   8.898  11.028   6.325 -0.2379  0.1298 -0.8595
52179SOL    HW163652   8.853  11.111   6.341 -0.7757 -0.2099 -0.5923
52179SOL    HW263653   8.859  10.994   6.244 -0.0301  0.1295 -0.9596
52180SOL     OW63654   7.820   3.690   3.015  0.0882 -0.2714  0.2732
52180SOL    HW163655   7.881   3.631   2.971  0.9751 -1.5913  3.1037
52180SOL    HW263656   7.742   3.637   3.031  0.0599 -0.0381  0.9271
52181SOL     OW63657  12.433   8.012   6.259  0.3761  0.3372 -0.5156
52181SOL    HW163658  12.458   7.929   6.299 -0.5430  0.8226  1.1789
52181SOL    HW263659  12.516   8.053   6.235  0.8578 -0.8870 -1.0338
52182SOL     OW63660  11.044  11.721   7.589 -0.3449  0.0480  0.2969
52182SOL    HW163661  11.075  11.636   7.558  0.8224 -0.2065  2.0291
52182SOL    HW263662  11.105  11.784   7.552  0.2156 -0.1193  0.9149
52183SOL     OW63663   4.886   5.576   1.028  0.3531  0.1512  0.1186
52183SOL    HW163664   4.842   5.629   1.094 -0.6451 -1.3875  0.7426
52183SOL    HW263665   4.979   5.594   1.040  0.0120  3.1229 -0.9173
52184SOL     OW63666   0.420   5.576   3.380 -0.0498  0.5016  0.0354
52184SOL    HW163667   0.342   5.631   3.372 -0.2295  0.0019 -2.5692
52184SOL    HW263668   0.396   5.494   3.337  1.6638  0.0734 -0.1709
52185SOL     OW63669   0.043   8.930   5.410 -0.3563 -0.1640 -0.1168
52185SOL    HW163670   0.084   9.001   5.360 -4.2166  3.0049  0.7165
52185SOL    HW263671   0.082   8.936   5.497  0.3052  0.0297 -0.4240
52186SOL     OW63672   2.142  10.617   7.041  0.4282  0.1184 -0.4307
52186SOL    HW163673   2.180  10.648   7.123  0.2980  1.4949 -0.8641
52186SOL    HW263674   2.053  10.654   7.040  0.5368  0.3808 -1.3200
52187SOL     OW63675   4.985  12.333   9.467  0.0979 -0.0426  0.6679
52187SOL    HW163676   4.970  12.421   9.433  1.8407  0.1319  0.2638
52187SOL    HW263677   4.981  12.276   9.389  1.7677  0.0626  0.4733
52188SOL     OW63678   4.687   0.202  12.531 -0.4536 -0.0240 -0.0378
52188SOL    HW163679   4.610   0.252  12.503 -0.3912 -0.7285 -1.5828
52188SOL    HW263680   4.743   0.198  12.453  1.4614  0.9743  1.2140
52189SOL     OW63681   2.591   1.657   6.940  0.4537 -0.1467  0.3951
52189SOL    HW163682   2.622   1.732   6.991  1.1480  1.1565 -1.8158
52189SOL    HW263683   2.641   1.660   6.859 -1.5206 -1.3264 -0.9634
52190SOL     OW63684  10.861   9.497   6.104 -0.4546 -0.2635  0.6656
52190SOL    HW163685  10.876   9.507   6.198 -1.8552 -2.9705  1.2511
52190SOL    HW263686  10.778   9.451   6.097  0.8410 -2.5170 -1.7860
52191SOL     OW63687  11.409   6.926   2.914  0.1289 -0.6301 -0.0779
52191SOL    HW163688  11.390   6.896   3.003  1.0646 -0.7358  0.0975
52191SOL    HW263689  11.354   7.004   2.903  0.7367 -0.0216  0.9679
52192SOL     OW63690   7.117   3.998  11.421 -0.2612  0.4260  0.5178
52192SOL    HW163691   7.184   4.015  11.355  0.5846  2.0943  1.7481
52192SOL    HW263692   7.038   3.979  11.370  0.2555  2.0563 -0.9854
52193SOL     OW63693   2.750   1.346   3.750  0.8380 -0.4675  0.7026
52193SOL    HW163694   2.673   1.318   3.701  1.1658 -2.7079  1.3604
52193SOL    HW263695   2.747   1.442   3.746 -0.2639 -0.5102 -1.9175
52194SOL     OW63696   9.269   3.420   1.163 -0.2897 -0.1736 -0.3616
52194SOL    HW163697   9.248   3.482   1.092  1.2748  0.3879 -0.3815
52194SOL    HW263698   9.332   3.360   1.124  0.0698 -0.2710  0.3556
52195SOL     OW63699   0.849   4.626   3.363  0.1415 -0.4407  0.2105
52195SOL    HW163700   0.766   4.611   3.408  0.9091  1.9478  2.6774
52195SOL    HW263701   0.916   4.590   3.421  1.0964  1.7484  0.5825
52196SOL     OW63702   2.434   5.640   8.997 -0.6278  0.2937 -0.3874
52196SOL    HW163703   2.525   5.619   8.980 -1.0182 -1.6123 -0.3378
52196SOL    HW263704   2.428   5.647   9.092 -0.8002 -1.1615 -0.2605
52197SOL     OW63705   1.579   8.342   2.800 -0.2813 -0.8453 -0.1521
52197SOL    HW163706   1.553   8.392   2.722 -1.8590 -1.3780  0.0029
52197SOL    HW263707   1.649   8.394   2.839 -0.3321  0.0809 -1.2435
52198SOL     OW63708   7.560   1.915  11.505 -0.3100  0.1859  0.4308
52198SOL    HW163709   7.600   1.892  11.589 -1.1314  0.4294  0.8895
52198SOL    HW263710   7.521   2.001  11.519 -0.6513  0.1291 -0.1319
52199SOL     OW63711   9.722   1.071   0.695  0.1128  0.5569  0.0294
52199SOL    HW163712   9.747   1.156   0.657 -2.8234  1.3420 -0.3775
52199SOL    HW263713   9.721   1.087   0.790  1.8815  0.2206  0.1474
52200SOL     OW63714   7.168   7.608  11.521  0.2739  0.1714  0.6196
52200SOL    HW163715   7.233   7.538  11.529  3.1206  2.4495 -0.7342
52200SOL    HW263716   7.148   7.633  11.611  0.4453 -1.2756  1.0770
52201SOL     OW63717  10.762   9.449   8.175  0.0395  0.1334 -0.2304
52201SOL    HW163718  10.835   9.461   8.114  0.2975  0.8582  0.2042
52201SOL    HW263719  10.793   9.488   8.257 -0.1790 -1.1008  0.4704
52202SOL     OW63720  10.613  10.639   5.814 -0.4704  0.5877 -0.0496
52202SOL    HW163721  10.593  10.685   5.733 -3.1293  0.5326  0.4783
52202SOL    HW263722  10.633  10.549   5.787  0.3465  0.9734 -0.7502
52203SOL     OW63723   6.222   4.968   3.128  0.6248  0.2478  0.1094
52203SOL    HW163724   6.277   5.041   3.098 -1.0808  1.2323 -0.7914
52203SOL    HW263725   6.245   4.896   3.069  3.4647 -0.5334  1.9922
52204SOL     OW63726  11.273   5.523   2.348  0.0764 -0.4031 -0.3965
52204SOL    HW163727  11.258   5.428   2.350  0.3913 -0.4567 -0.5531
52204SOL    HW263728  11.346   5.534   2.288  0.1899 -0.0793 -0.1964
52205SOL     OW63729   6.540   3.852   1.807  0.1323  0.5352 -0.2815
52205SOL    HW163730   6.537   3.783   1.741 -2.2838 -1.3448  1.5894
52205SOL    HW263731   6.559   3.932   1.758 -0.5922 -0.8721 -3.0726
52206SOL     OW63732   7.804   6.025   3.849  0.8495  0.4889  0.1699
52206SOL    HW163733   7.816   5.931   3.844 -0.8964  0.2311  0.2203
52206SOL    HW263734   7.737   6.038   3.917  2.4995  1.9211  1.6407
52207SOL     OW63735  10.839   1.209  10.538 -0.2742  0.1621 -0.1757
52207SOL    HW163736  10.752   1.187  10.573 -0.5177  1.4958  0.1273
52207SOL    HW263737  10.834   1.186  10.445 -0.9808  0.3080 -0.1822
52208SOL     OW63738   8.284   6.015   6.733 -0.6833 -0.1563  0.3579
52208SOL    HW163739   8.192   6.018   6.709 -1.0000  3.8481  1.3258
52208SOL    HW263740   8.285   6.028   6.828  0.8844 -0.1446  0.3766
52209SOL     OW63741  11.659   9.210   1.651  0.3131 -0.1177 -0.4880
52209SOL    HW163742  11.700   9.196   1.565 -0.3554  0.6108 -0.9333
52209SOL    HW263743  11.568   9.232   1.631  0.6360  2.1528  0.2850
52210SOL     OW63744   9.345   9.184   0.390 -0.2573  0.1008  0.3693
52210SOL    HW163745   9.326   9.206   0.299 -1.3065 -1.3125  0.2246
52210SOL    HW263746   9.261   9.193   0.435 -0.4189 -2.1100  0.5777
52211SOL     OW63747  10.835   3.996   5.097  0.0588 -0.0735  0.2388
52211SOL    HW163748  10.755   3.968   5.142 -1.1233 -1.4048 -2.4801
52211SOL    HW263749  10.892   3.920   5.100  0.5062  0.2636  0.5430
52212SOL     OW63750   0.698   2.815   0.170  0.0794 -0.5891 -0.6343
52212SOL    HW163751   0.742   2.742   0.127 -0.3549 -0.4712 -1.3009
52212SOL    HW263752   0.768   2.875   0.194  0.4974 -1.4698  0.4332
52213SOL     OW63753  11.662   6.911   8.728  0.4085 -0.4359 -0.0027
52213SOL    HW163754  11.659   7.006   8.742 -1.3976 -0.1495 -1.8898
52213SOL    HW263755  11.627   6.874   8.810 -0.3982  0.6288  0.1623
52214SOL     OW63756   6.234   5.588   4.110  0.4408  0.3508  0.0595
52214SOL    HW163757   6.255   5.605   4.202  0.4532 -0.3969  0.2028
52214SOL    HW263758   6.222   5.675   4.072  2.5922  0.8002  0.2464
52215SOL     OW63759   4.776   2.125   7.096  0.0429 -0.4041 -0.3041
52215SOL    HW163760   4.710   2.101   7.160  0.9290 -2.0149  0.0702
52215SOL    HW263761   4.825   2.196   7.138  0.9259 -1.7543  1.0996
52216SOL     OW63762   2.921  11.453  11.953  0.0389 -0.6487  0.1952
52216SOL    HW163763   2.844  11.400  11.930 -1.5503  1.1522  1.1515
52216SOL    HW263764   2.903  11.485  12.041  1.4131  0.6586  0.0369
52217SOL     OW63765  10.037   2.348   8.994 -0.5008 -0.5460 -0.4567
52217SOL    HW163766  10.089   2.345   9.074  0.1767  0.2130 -0.8528
52217SOL    HW263767  10.035   2.258   8.963  0.2478 -0.6441 -0.2214
52218SOL     OW63768   9.023   2.419   3.097 -0.1018 -0.3842  0.0764
52218SOL    HW163769   8.959   2.378   3.156 -0.7624 -0.5595 -0.7289
52218SOL    HW263770   9.051   2.498   3.142 -1.2298 -0.0741  0.2624
52219SOL     OW63771  10.290   8.892   5.512 -0.5876 -0.1255  0.1149
52219SOL    HW163772  10.330   8.903   5.599 -1.7830 -1.7273  0.9330
52219SOL    HW263773  10.322   8.966   5.461 -0.1085  1.0586  2.0240
52220SOL     OW63774   7.316  11.032   4.916  0.2318  0.1698  0.3040
52220SOL    HW163775   7.284  10.945   4.939 -0.6653  0.4535  0.1722
52220SOL    HW263776   7.256  11.062   4.847  1.5303  0.2225 -0.8476
52221SOL     OW63777  11.874   9.883   6.679 -0.0214  0.0852 -0.2147
52221SOL    HW163778  11.951   9.850   6.633  0.0434  0.0018 -0.0418
52221SOL    HW263779  11.817   9.807   6.688 -1.6540  0.7437 -3.3790
52222SOL     OW63780  10.495   9.341   6.348  0.3126 -0.4127  0.4587
52222SOL    HW163781  10.449   9.371   6.270 -0.9398 -1.3589  0.8065
52222SOL    HW263782  10.549   9.267   6.319  1.0916  0.2415  0.1969
52223SOL     OW63783  10.788   9.546   1.405  0.0721 -0.3033  0.7902
52223SOL    HW163784  10.808   9.637   1.383  0.2372 -0.6918 -0.7254
52223SOL    HW263785  10.782   9.501   1.321 -0.0396 -1.6950  1.5140
52224SOL     OW63786   1.684   8.447   2.371  0.2791  0.2696  0.1203
52224SOL    HW163787   1.762   8.503   2.368 -0.8485  1.9420  0.3063
52224SOL    HW263788   1.617   8.497   2.324 -1.5909  0.4084  2.7032
52225SOL     OW63789  12.439  12.763   4.410  0.3023 -0.2840 -0.0338
52225SOL    HW163790  12.496  12.691   4.438  0.8219 -0.4818 -1.5200
52225SOL    HW263791  12.392  12.789   4.490  1.1378 -1.3264  0.8263
52226SOL     OW63792  12.421   5.951   4.146  0.6443 -0.1271 -0.1641
52226SOL    HW163793  12.375   5.898   4.211  2.0916  0.0794  1.0741
52226SOL    HW263794  12.493   5.896   4.116  0.1662 -0.1071 -1.4195
52227SOL     OW63795  11.779   6.207   3.103  0.0768  0.3766  0.2663
52227SOL    HW163796  11.874   6.206   3.118 -0.1033 -0.4157  1.4276
52227SOL    HW263797  11.741   6.197   3.190 -1.1399  3.3949  0.1981
52228SOL     OW63798   8.636   3.552   8.407  0.2356  0.9097  0.3929
52228SOL    HW163799   8.601   3.543   8.495 -0.5984  1.2679  0.1070
52228SOL    HW263800   8.584   3.623   8.367  0.8606  1.0194 -0.2509
52229SOL     OW63801   3.099   8.762   3.882  0.3638 -0.3445 -0.3157
52229SOL    HW163802   3.021   8.803   3.919 -0.7325 -0.4078 -2.4212
52229SOL    HW263803   3.153   8.835   3.852  0.6876 -0.3349  0.2667
52230SOL     OW63804   6.658   1.528   2.533 -0.0222 -0.5304 -0.1819
52230SOL    HW163805   6.753   1.534   2.521  0.3470  0.4145  2.5648
52230SOL    HW263806   6.645   1.525   2.628 -2.8800  3.5926 -0.1518
52231SOL     OW63807   3.841   8.038   6.243 -0.6080 -0.3150 -0.2519
52231SOL    HW163808   3.866   8.040   6.151 -0.3545  0.4056 -0.1763
52231SOL    HW263809   3.777   8.109   6.252  0.2980  0.4364  0.3831
52232SOL     OW63810  11.708  11.920   3.215 -0.1100 -0.3710  0.0907
52232SOL    HW163811  11.734  11.893   3.302 -0.2250 -0.6875  0.0289
52232SOL    HW263812  11.783  11.969   3.180  0.6400 -1.7793 -0.3178
52233SOL     OW63813   5.065   7.678   5.180  0.2394 -0.0314  0.0684
52233SOL    HW163814   5.102   7.590   5.174 -1.0054 -0.5453 -0.4052
52233SOL    HW263815   5.016   7.690   5.099 -1.4977  0.1942  1.0888
52234SOL     OW63816   3.925   4.117   2.101 -0.2259  0.2195  0.1427
52234SOL    HW163817   3.858   4.084   2.041  0.5955 -1.9116  0.3211
52234SOL    HW263818   3.910   4.069   2.183  0.7243  0.6387  0.5813
52235SOL     OW63819   0.091   3.541   8.578 -0.5602  0.2653  0.0394
52235SOL    HW163820   0.021   3.534   8.643  0.3453 -1.0382  0.9093
52235SOL    HW263821   0.121   3.631   8.584 -2.1536  0.8643 -0.3685
52236SOL     OW63822   7.979   0.080   9.101 -0.4065  0.1931 -0.3711
52236SOL    HW163823   8.032   0.002   9.119 -0.8933 -0.5984 -2.1872
52236SOL    HW263824   7.954   0.072   9.009 -2.0885  1.5228 -0.0811
52237SOL     OW63825   2.813   3.269  10.565  0.3758 -0.1922  0.0470
52237SOL    HW163826   2.767   3.322  10.630  0.3631 -0.6929  0.4506
52237SOL    HW263827   2.884   3.228  10.613  0.7368 -0.0935 -0.3905
52238SOL     OW63828   9.548   1.358   4.577  0.0535  0.2841  0.5262
52238SOL    HW163829   9.496   1.291   4.621  2.6972 -1.2237  1.6271
52238SOL    HW263830   9.556   1.427   4.643  1.2623 -0.5065  1.2560
52239SOL     OW63831   2.007   6.726   5.793  0.2363 -0.2696  0.4748
52239SOL    HW163832   1.953   6.800   5.765  1.8749  0.6330 -0.4323
52239SOL    HW263833   2.046   6.693   5.712  0.9791 -0.9431  1.0882
52240SOL     OW63834   1.219   2.709   2.532 -0.5831 -0.5455  0.7512
52240SOL    HW163835   1.257   2.632   2.489  0.5613  0.5671 -0.3295
52240SOL    HW263836   1.162   2.673   2.599 -0.0520 -2.3386  0.3067
52241SOL     OW63837   9.092  12.884   9.911  0.2624 -0.1372 -0.1812
52241SOL    HW163838   9.025  12.821   9.937 -0.3532  0.6812  0.2484
52241SOL    HW263839   9.124  12.920   9.993 -0.0584  0.7875 -0.4522
52242SOL     OW63840   9.591   9.370  12.147  1.2040 -0.2527 -0.4910
52242SOL    HW163841   9.504   9.329  12.143  1.4344 -0.7909 -0.0973
52242SOL    HW263842   9.629   9.353  12.061  1.8959 -2.2444  0.1493
52243SOL     OW63843   1.985   2.662   8.470  0.2984  0.0581 -0.1349
52243SOL    HW163844   1.933   2.587   8.499 -1.1533  0.7439 -0.8522
52243SOL    HW263845   2.070   2.625   8.447  0.3803 -1.0028  1.6780
52244SOL     OW63846  11.866   2.763  12.406 -0.2305 -0.3215 -0.1963
52244SOL    HW163847  11.960   2.780  12.398 -0.1022 -0.8889  0.0330
52244SOL    HW263848  11.851   2.753  12.500  0.0470 -3.1622 -0.3576
52245SOL     OW63849   6.174   9.170   1.168 -0.1439  0.2356 -0.0456
52245SOL    HW163850   6.253   9.131   1.205  0.4090 -0.6436 -2.0559
52245SOL    HW263851   6.129   9.208   1.244  1.9762  0.4009  1.2129
52246SOL     OW63852   4.109   7.223  12.834 -0.0396  0.1658 -0.1629
52246SOL    HW163853   4.019   7.194  12.816  0.1069 -0.6987  0.4280
52246SOL    HW263854   4.100   7.291  12.900 -0.3002  0.5694 -0.6062
52247SOL     OW63855   2.908  11.578  11.476  0.4855  0.0252  0.3621
52247SOL    HW163856   2.851  11.556  11.550  0.6434  2.7813  1.3968
52247SOL    HW263857   2.885  11.668  11.454  2.9966  0.5098 -0.5406
52248SOL     OW63858   1.217  10.873   0.604 -0.1381 -0.2886 -0.3194
52248SOL    HW163859   1.287  10.822   0.646 -0.3801 -0.0808  0.3415
52248SOL    HW263860   1.175  10.811   0.544 -0.5260 -0.9189  0.5897
52249SOL     OW63861   9.282   8.832   9.681 -0.2640  0.3770 -0.8336
52249SOL    HW163862   9.316   8.778   9.753 -0.0287  1.1105 -0.3865
52249SOL    HW263863   9.239   8.905   9.724 -2.0193 -0.2721 -1.4075
52250SOL     OW63864   9.674   0.450   4.338  0.1489  0.0632  0.5834
52250SOL    HW163865   9.765   0.463   4.364 -0.2769  0.4865  1.9791
52250SOL    HW263866   9.677   0.381   4.272  1.5515  0.6706 -0.0198
52251SOL     OW63867   3.275  10.209   2.245  0.3177  0.7189 -0.6103
52251SOL    HW163868   3.318  10.271   2.304 -0.7388  1.4107 -0.5357
52251SOL    HW263869   3.291  10.123   2.284  0.3125  1.0975  0.2497
52252SOL     OW63870   4.285   9.231   9.841 -0.4582 -0.1644  0.6491
52252SOL    HW163871   4.280   9.209   9.748  2.8558  1.5822 -0.1032
52252SOL    HW263872   4.193   9.235   9.870 -1.6325 -0.2475 -2.6510
52253SOL     OW63873   8.422   8.205   1.652  0.0500  0.5812  0.2549
52253SOL    HW163874   8.368   8.268   1.605  0.2162  0.6557  0.1643
52253SOL    HW263875   8.471   8.257   1.715 -1.7693  0.2471  2.0450
52254SOL     OW63876   4.738   5.691   1.879  0.1429  0.4497  0.1757
52254SOL    HW163877   4.807   5.756   1.891  1.0692 -0.2953 -0.8385
52254SOL    HW263878   4.758   5.622   1.943 -0.4518  0.8370  0.7935
52255SOL     OW63879   2.635   9.835  11.041  0.0725  0.7146 -0.2096
52255SOL    HW163880   2.613   9.804  11.129  1.6973 -0.2134 -0.0931
52255SOL    HW263881   2.590   9.919  11.033 -1.1910  0.1955  0.9873
52256SOL     OW63882   3.234   9.261   3.908 -0.2923 -0.3192 -0.2693
52256SOL    HW163883   3.183   9.307   3.841 -0.4298 -0.1597 -0.0575
52256SOL    HW263884   3.318   9.307   3.911  1.0130 -2.3259 -2.6555
52257SOL     OW63885   1.617   8.207   2.476 -0.0989  0.3206 -0.8797
52257SOL    HW163886   1.521   8.200   2.476 -0.0428 -0.6352  0.0893
52257SOL    HW263887   1.634   8.300   2.457 -1.2643  0.9206  0.7594
52258SOL     OW63888   4.564   9.997   3.291 -0.2378 -0.1714 -0.1246
52258SOL    HW163889   4.517   9.988   3.374  1.4764 -1.5785  0.7602
52258SOL    HW263890   4.604  10.084   3.295 -1.9104  0.6497 -0.4724
52259SOL     OW63891   4.316   5.522   1.168  0.6091  0.2663  0.0005
52259SOL    HW163892   4.277   5.513   1.081 -0.5459  0.7363  0.4414
52259SOL    HW263893   4.369   5.601   1.162  0.0741  0.6226 -0.1260
52260SOL     OW63894  11.085   1.431   6.135 -0.0932 -0.0036 -0.3030
52260SOL    HW163895  10.991   1.438   6.151 -0.1223  0.3518 -0.6346
52260SOL    HW263896  11.123   1.505   6.183 -0.0557  0.3004 -0.7996
52261SOL     OW63897   6.506   3.683   5.525  0.0871 -0.0258  0.1295
52261SOL    HW163898   6.504   3.607   5.583 -1.8616  0.2912  0.5431
52261SOL    HW263899   6.597   3.712   5.528  0.0524  0.1872  3.3587
52262SOL     OW63900   1.833  12.800  12.811 -0.1077  0.0309 -0.0427
52262SOL    HW163901   1.862  12.726  12.865  1.8314  0.4033 -0.4951
52262SOL    HW263902   1.898  12.868  12.827  0.3150  0.2853 -2.4901
52263SOL     OW63903  10.561   3.009   9.838 -0.2518  0.5516  0.2342
52263SOL    HW163904  10.651   2.981   9.826  1.2361  3.3894  3.1272
52263SOL    HW263905  10.519   2.937   9.884  0.2965 -1.0078 -1.5742
52264SOL     OW63906   5.978   6.836   3.133  0.1295  0.1732 -0.5320
52264SOL    HW163907   6.035   6.864   3.062 -0.3472  0.5151 -0.7822
52264SOL    HW263908   5.905   6.791   3.090 -0.7269  1.3439 -0.3564
52265SOL     OW63909   0.423   0.303  10.299  0.2225  0.0044 -0.8370
52265SOL    HW163910   0.337   0.335  10.273 -0.8694 -0.9721  1.3202
52265SOL    HW263911   0.405   0.224  10.351  2.1631  1.2682  2.0227
52266SOL     OW63912   1.562  10.308   6.849 -0.1828  0.3537 -0.3534
52266SOL    HW163913   1.575  10.241   6.781  0.0231 -0.5684  0.5687
52266SOL    HW263914   1.623  10.378   6.825 -0.6908  0.3963 -1.5581
52267SOL     OW63915  12.210   0.527   2.878  0.1646 -0.1278 -0.1929
52267SOL    HW163916  12.257   0.469   2.817 -0.5571 -0.0393 -0.8522
52267SOL    HW263917  12.226   0.489   2.964 -0.1483 -1.2237 -0.5945
52268SOL     OW63918   9.854   6.897  10.977  0.2982  0.3413  0.5183
52268SOL    HW163919   9.799   6.967  10.942 -0.0210 -0.6303 -0.9863
52268SOL    HW263920   9.842   6.824  10.917  3.5175  0.1772 -0.1111
52269SOL     OW63921   6.840   2.778   5.130 -0.7524 -0.1735  0.3835
52269SOL    HW163922   6.840   2.700   5.075 -0.1254  0.5495 -0.6675
52269SOL    HW263923   6.874   2.748   5.214  0.1813 -0.8817 -0.2344
52270SOL     OW63924   8.156   3.204   4.891 -0.6754  0.1481 -0.0723
52270SOL    HW163925   8.146   3.252   4.809  1.0566  0.0936 -0.3542
52270SOL    HW263926   8.196   3.266   4.951 -1.5860  0.0709  0.6435
52271SOL     OW63927  11.913   0.204  12.858  0.2137 -0.1764  0.0893
52271SOL    HW163928  11.960   0.287  12.867  1.0061 -0.6789  0.7214
52271SOL    HW263929  11.946   0.150  12.929 -1.2802 -0.5896  0.5109
52272SOL     OW63930  10.900   3.777   1.588 -0.0098  0.3447 -0.0258
52272SOL    HW163931  10.804   3.786   1.591  0.0214  0.9316 -0.5049
52272SOL    HW263932  10.924   3.751   1.677 -0.6052  0.3131  0.1355
52273SOL     OW63933   9.621  12.351   0.286  0.3273  0.3358 -0.0982
52273SOL    HW163934   9.637  12.257   0.284 -0.2266  0.2518 -0.7870
52273SOL    HW263935   9.575  12.365   0.369 -1.0584 -0.2629 -0.7237
52274SOL     OW63936   6.808   9.352   1.163 -0.0913  0.3977  0.1392
52274SOL    HW163937   6.879   9.314   1.111 -0.2938 -0.7523  0.6858
52274SOL    HW263938   6.838   9.440   1.184  1.1105 -0.0269  0.2431
52275SOL     OW63939   9.335   1.381  11.467  0.0165 -0.4311  0.0678
52275SOL    HW163940   9.274   1.319  11.427 -2.1136  0.7422  1.3244
52275SOL    HW263941   9.318   1.374  11.561  0.9099  0.8837  0.3543
52276SOL     OW63942  11.563   6.184   8.747 -0.1413 -0.3198  0.0113
52276SOL    HW163943  11.617   6.139   8.682 -1.0555 -0.3886 -0.7180
52276SOL    HW263944  11.578   6.135   8.828  0.6606 -0.5094 -0.2434
52277SOL     OW63945   6.254   7.841   3.262  0.2764  0.0801  0.3848
52277SOL    HW163946   6.272   7.908   3.327 -0.7553 -0.2268  1.0005
52277SOL    HW263947   6.228   7.764   3.313 -0.3666 -0.2176 -0.3678
52278SOL     OW63948   0.788   0.546  11.448  0.3072 -0.0681 -0.5491
52278SOL    HW163949   0.737   0.484  11.500  3.4872  0.4666  3.8474
52278SOL    HW263950   0.735   0.625  11.446 -0.9436 -0.8733 -0.2663
52279SOL     OW63951   1.944   7.947   8.492 -0.0405  0.1176  0.3371
52279SOL    HW163952   2.034   7.978   8.490 -0.3401  1.0120 -0.0135
52279SOL    HW263953   1.908   7.969   8.406 -0.6380 -0.0701  0.5274
52280SOL     OW63954   9.805   9.061  11.562 -0.4501 -0.5312  0.4529
52280SOL    HW163955   9.866   9.010  11.615  1.7292  0.6295 -0.7704
52280SOL    HW263956   9.736   9.088  11.623  2.0058  0.9168  2.8411
52281SOL     OW63957  10.820   6.807   2.854  0.5723  0.2689  0.4644
52281SOL    HW163958  10.873   6.876   2.815 -0.0755  0.3897 -0.2271
52281SOL    HW263959  10.741   6.851   2.887  0.3350 -0.0797  0.3800
52282SOL     OW63960  11.293   3.189   2.004 -0.2643  0.7999  0.0065
52282SOL    HW163961  11.349   3.116   2.029 -1.0297  0.2701  0.2000
52282SOL    HW263962  11.248   3.159   1.925 -0.2636  1.2316 -0.1621
52283SOL     OW63963   0.488   6.047   0.482  0.1454 -0.1313  0.2891
52283SOL    HW163964   0.418   5.981   0.484 -0.4129  0.4641  1.1486
52283SOL    HW263965   0.442   6.131   0.479  0.8549  0.2352 -0.8390
52284SOL     OW63966   8.592  10.164   2.569  0.5897 -0.9209  0.4282
52284SOL    HW163967   8.499  10.186   2.564  0.4104 -1.7541 -0.0889
52284SOL    HW263968   8.627  10.222   2.637  0.4883  2.0607 -1.8520
52285SOL     OW63969   8.208   8.810  10.456  0.0062 -0.8610 -0.0169
52285SOL    HW163970   8.113   8.816  10.444 -0.1393 -1.6263  0.7057
52285SOL    HW263971   8.238   8.758  10.381  0.1901  1.2651 -1.5421
52286SOL     OW63972   7.814   6.249   6.242 -0.0885  0.5198 -0.6337
52286SOL    HW163973   7.721   6.236   6.256 -0.0328 -0.6292 -1.2142
52286SOL    HW263974   7.845   6.290   6.323 -1.1743  1.3558 -0.6307
52287SOL     OW63975   3.107   1.958   4.751 -0.2650 -0.8652 -0.4013
52287SOL    HW163976   3.168   2.030   4.763 -1.0653 -0.2246 -0.1098
52287SOL    HW263977   3.126   1.898   4.823  0.9295 -1.3430 -1.0856
52288SOL     OW63978   0.708  10.993  12.099 -0.1254  0.1030  0.6231
52288SOL    HW163979   0.622  10.952  12.086 -0.8306  1.8142 -0.3861
52288SOL    HW263980   0.719  10.994  12.195 -0.5632 -1.3977  0.7144
52289SOL     OW63981  10.864   5.316   9.014  0.3476  0.2759 -0.6664
52289SOL    HW163982  10.954   5.303   8.983  1.2776  0.4809  1.7058
52289SOL    HW263983  10.837   5.229   9.043 -0.3547  0.1648 -1.6028
52290SOL     OW63984   9.807   3.866   7.613 -0.1015  0.1056 -0.4293
52290SOL    HW163985   9.854   3.942   7.578  0.5864 -0.4830 -0.7930
52290SOL    HW263986   9.765   3.899   7.692  0.6651  0.7218 -0.2707
52291SOL     OW63987   8.881   6.050   2.022  0.0828  0.0962 -0.8632
52291SOL    HW163988   8.968   6.056   2.061  0.2043 -0.3030 -1.0706
52291SOL    HW263989   8.836   6.129   2.051  0.2709 -0.0488 -0.1590
52292SOL     OW63990   4.378   7.738   7.884 -0.2477 -0.1312  0.4639
52292SOL    HW163991   4.443   7.667   7.880  0.3942  0.5139 -1.4970
52292SOL    HW263992   4.297   7.694   7.911  0.0163 -1.7529 -1.1413
52293SOL     OW63993  11.966  11.269   8.736  0.0245  0.0750 -0.3003
52293SOL    HW163994  11.989  11.186   8.693 -1.4174 -0.4449 -0.1068
52293SOL    HW263995  11.872  11.278   8.723 -0.1702  0.7398  1.3228
52294SOL     OW63996  12.602   1.408   2.599  0.8197 -0.1304 -0.2142
52294SOL    HW163997  12.602   1.504   2.600 -0.2256 -0.1251  0.4566
52294SOL    HW263998  12.691   1.385   2.628  0.3761  0.6529  1.9874
52295SOL     OW63999   7.411   7.952   1.181 -0.2934 -0.3648  0.0681
52295SOL    HW164000   7.455   7.909   1.254  0.6948 -0.2675 -0.4466
52295SOL    HW264001   7.383   8.036   1.216 -0.0357 -0.4132  0.3992
52296SOL     OW64002   7.560   4.715   6.570  0.1508 -0.8620  0.3083
52296SOL    HW164003   7.490   4.671   6.520 -0.9878  1.1214  0.0606
52296SOL    HW264004   7.544   4.689   6.660  0.4494 -2.1660  0.0031
52297SOL     OW64005   5.552   3.002   3.752  0.2326 -0.1297  0.5611
52297SOL    HW164006   5.518   3.045   3.674 -2.2048  0.5216  1.8912
52297SOL    HW264007   5.632   3.050   3.772 -0.7982  1.8307  0.2522
52298SOL     OW64008  10.066  12.182   6.308 -0.6372 -0.5158  0.3592
52298SOL    HW164009  10.052  12.275   6.290 -0.8194 -0.5944  0.0900
52298SOL    HW264010   9.997  12.137   6.260 -0.3964 -0.8059  0.2783
52299SOL     OW64011  12.234   8.189   4.465 -0.0639 -0.1767 -0.6327
52299SOL    HW164012  12.309   8.146   4.506  0.1648 -1.0568 -1.9031
52299SOL    HW264013  12.241   8.281   4.493  1.2418 -0.3329 -0.3729
52300SOL     OW64014  12.471   9.770   8.025 -0.1921  0.6858  0.4295
52300SOL    HW164015  12.478   9.711   7.949 -2.9722 -0.0863  0.6396
52300SOL    HW264016  12.424   9.718   8.090 -2.2161  2.8863  0.8517
52301SOL     OW64017   3.230  11.887   4.152 -0.2850  0.2272 -0.4215
52301SOL    HW164018   3.322  11.866   4.168 -0.3987  0.9678  1.4080
52301SOL    HW264019   3.181  11.814   4.190 -0.4754 -0.1143 -1.2939
52302SOL     OW64020   4.381  11.749  12.175 -0.0646 -0.0278 -0.2249
52302SOL    HW164021   4.450  11.752  12.240  1.0263 -0.8770 -1.2893
52302SOL    HW264022   4.427  11.743  12.091 -1.4091 -1.0102 -0.9367
52303SOL     OW64023  10.622   0.674   5.527  0.1895 -0.2911 -0.4885
52303SOL    HW164024  10.645   0.716   5.610 -0.3407 -0.3612 -0.3039
52303SOL    HW264025  10.690   0.703   5.467  0.1111  0.4424 -0.2409
52304SOL     OW64026   2.841   2.005   4.470  0.0084 -0.1459 -1.0894
52304SOL    HW164027   2.749   2.008   4.444 -0.2579  0.6579 -0.1275
52304SOL    HW264028   2.841   2.030   4.562  0.9260 -2.6197 -0.3296
52305SOL     OW64029   1.478   1.054   6.341  0.3551 -0.2829 -0.4726
52305SOL    HW164030   1.462   1.037   6.248  0.7057 -0.5369 -0.4885
52305SOL    HW264031   1.573   1.041   6.352  0.4761  0.6828 -0.2750
52306SOL     OW64032   2.982   7.251   4.317  0.5413  0.1174  0.2171
52306SOL    HW164033   2.984   7.332   4.368  2.0539  0.8837 -0.9711
52306SOL    HW264034   3.004   7.278   4.228  2.1277 -1.7135 -0.0092
52307SOL     OW64035  10.864  10.383   6.350  0.8049  0.0640  0.2372
52307SOL    HW164036  10.829  10.308   6.397  1.8593  0.7093  2.1920
52307SOL    HW264037  10.913  10.345   6.277 -1.2317 -0.9591 -0.6743
52308SOL     OW64038   1.443   3.154   3.450 -0.0579  0.1569  0.2017
52308SOL    HW164039   1.437   3.242   3.413 -1.5183  0.8648  1.9863
52308SOL    HW264040   1.526   3.153   3.497  0.2303  0.3632 -0.2934
52309SOL     OW64041   4.681   1.599   1.417 -0.9032 -0.2388 -0.2121
52309SOL    HW164042   4.704   1.668   1.354  1.2542 -0.2937  0.4248
52309SOL    HW264043   4.658   1.647   1.497  0.9187 -0.2012  0.3326
52310SOL     OW64044   9.013  11.830  11.755  0.3462  0.4399 -0.0445
52310SOL    HW164045   9.075  11.758  11.763  0.4568  0.4856 -0.4407
52310SOL    HW264046   8.934  11.799  11.798  0.6049  0.3362  0.3638
52311SOL     OW64047  10.129   5.230   7.684  0.3843  0.4289 -0.3314
52311SOL    HW164048  10.120   5.259   7.775 -0.5367 -2.2528  0.5122
52311SOL    HW264049  10.209   5.179   7.682 -1.0038 -1.8956 -0.2501
52312SOL     OW64050  10.617  10.484   6.457 -0.4224 -0.0868 -0.1652
52312SOL    HW164051  10.558  10.419   6.495 -0.1606 -1.2001 -1.6116
52312SOL    HW264052  10.687  10.433   6.416  1.0807  1.1815  0.7005
52313SOL     OW64053   8.695  11.161   6.798 -0.2075  0.1639  0.2312
52313SOL    HW164054   8.613  11.115   6.779 -0.6213  1.7155 -2.1865
52313SOL    HW264055   8.668  11.243   6.839  0.1712  0.3293  0.1559
52314SOL     OW64056  12.925   1.758   6.860 -0.1529  0.0249 -0.5427
52314SOL    HW164057  12.849   1.743   6.916  0.4385 -0.3208  0.1829
52314SOL    HW264058  12.953   1.847   6.881 -0.3783  0.1690 -0.8435
52315SOL     OW64059   0.670   5.183   8.726  0.0365 -0.2704  0.0919
52315SOL    HW164060   0.634   5.098   8.700 -1.8735 -0.0646  1.7945
52315SOL    HW264061   0.595   5.233   8.758  1.0357  2.2539 -1.2036
52316SOL     OW64062   4.496  12.032   1.698 -0.1615 -0.4205 -0.2626
52316SOL    HW164063   4.501  12.052   1.792 -0.2102 -0.7187 -0.1942
52316SOL    HW264064   4.411  11.987   1.688 -0.4985  0.2814 -0.5772
52317SOL     OW64065   6.038   5.875   5.583 -0.0869  0.5011 -0.5934
52317SOL    HW164066   6.086   5.832   5.654 -1.3666 -1.1362 -0.6507
52317SOL    HW264067   6.106   5.905   5.523  0.9472  0.4118  0.4950
52318SOL     OW64068   3.032  11.672   5.539 -0.5001  0.4388 -0.0039
52318SOL    HW164069   3.035  11.767   5.544 -1.1722  0.5221 -0.9784
52318SOL    HW264070   2.955  11.652   5.487  0.0333 -0.6146 -0.4337
52319SOL     OW64071   5.280  10.428   3.547 -0.3699 -0.6662 -0.2687
52319SOL    HW164072   5.241  10.342   3.562 -0.0990 -0.8629 -0.6804
52319SOL    HW264073   5.363  10.410   3.504  2.5331 -0.5351  4.6199
52320SOL     OW64074   0.235   5.500   2.152 -0.1513 -0.0965  0.4737
52320SOL    HW164075   0.172   5.427   2.152 -0.1582 -0.1185 -1.1856
52320SOL    HW264076   0.320   5.458   2.138  0.1095  0.0572  1.4779
52321SOL     OW64077   5.465   8.405  12.366  0.9897  0.2788 -0.1398
52321SOL    HW164078   5.490   8.481  12.420  0.3782  0.3397  0.0608
52321SOL    HW264079   5.521   8.334  12.398  2.8051  1.0179 -1.4531
52322SOL     OW64080   3.933   5.378   2.139  0.4952  0.0937  0.7623
52322SOL    HW164081   3.955   5.304   2.082  2.2228  0.6001  0.7090
52322SOL    HW264082   3.867   5.343   2.199 -0.6306 -0.7294 -0.8821
52323SOL     OW64083   3.960   5.060   4.589  0.0611  0.4560  0.2310
52323SOL    HW164084   3.977   5.153   4.602 -0.7666  0.3555  2.2977
52323SOL    HW264085   4.042   5.025   4.552  0.1322  2.0891 -1.2991
52324SOL     OW64086  12.315  12.335   7.103 -0.1472 -0.1160 -0.7138
52324SOL    HW164087  12.340  12.423   7.133 -0.4445  0.4473 -2.0372
52324SOL    HW264088  12.379  12.314   7.035 -0.0262 -0.9775 -0.3461
52325SOL     OW64089   2.648   5.495   1.095  0.1342 -0.0449 -0.3430
52325SOL    HW164090   2.563   5.452   1.094 -0.2743  0.7636 -1.0244
52325SOL    HW264091   2.711   5.424   1.080 -0.4971 -0.4609 -1.0436
52326SOL     OW64092  10.422   7.400   0.945 -0.6314  0.2117 -0.2125
52326SOL    HW164093  10.403   7.455   0.869  0.3604  0.6385 -0.1597
52326SOL    HW264094  10.454   7.461   1.012 -0.0055 -0.3597  0.0177
52327SOL     OW64095   1.160   5.158   8.570 -0.3375  0.2930 -0.3606
52327SOL    HW164096   1.100   5.093   8.607  0.3684 -0.4622 -0.4962
52327SOL    HW264097   1.127   5.174   8.482  0.1140 -0.7457 -0.7362
52328SOL     OW64098   0.828  11.450   9.927 -0.4266 -0.3071  0.2221
52328SOL    HW164099   0.855  11.377   9.872  0.8229  1.5808 -1.8598
52328SOL    HW264100   0.784  11.510   9.866 -0.1653  1.2826  1.5494
52329SOL     OW64101   8.981   0.563   8.786  0.2506 -0.0553  0.0678
52329SOL    HW164102   8.900   0.575   8.737  0.9842 -1.3799 -1.5570
52329SOL    HW264103   9.020   0.484   8.749  1.8038 -0.0152  1.5044
52330SOL     OW64104   3.791   8.246   7.258 -0.2072 -1.0454  0.2826
52330SOL    HW164105   3.861   8.181   7.253  1.3342  0.4097  1.7250
52330SOL    HW264106   3.828   8.318   7.309 -2.0702  0.7018 -0.6723
52331SOL     OW64107   9.850   0.663  12.806  0.5237 -0.5604  0.1470
52331SOL    HW164108   9.760   0.659  12.839  0.1571 -2.6431 -0.9939
52331SOL    HW264109   9.865   0.578  12.766  2.8290 -0.0400 -0.2123
52332SOL     OW64110   7.221   2.963   3.494 -0.1072  0.0889  0.3324
52332SOL    HW164111   7.305   2.975   3.450 -0.5910 -1.0794 -0.9919
52332SOL    HW264112   7.240   2.908   3.569  0.1927 -0.9543 -0.4916
52333SOL     OW64113   5.800   5.290   3.767 -0.0718 -0.0312 -0.2283
52333SOL    HW164114   5.776   5.288   3.675  0.6964  0.5043 -0.4486
52333SOL    HW264115   5.887   5.251   3.770 -0.2337 -0.3756  0.3265
52334SOL     OW64116   5.085   1.807   0.100  0.5776 -0.0098  0.4952
52334SOL    HW164117   5.161   1.852   0.137  1.5399  0.6510 -2.0468
52334SOL    HW264118   5.108   1.715   0.103  1.7337  0.2111 -0.6434
52335SOL     OW64119   2.421   6.028  12.626 -0.1831  0.5548 -0.4513
52335SOL    HW164120   2.435   6.121  12.642  0.0684  0.6171 -1.0514
52335SOL    HW264121   2.355   6.003  12.692  2.5571  0.2482  2.4203
52336SOL     OW64122   2.331   0.523   2.074 -0.1153  0.0839  0.1673
52336SOL    HW164123   2.410   0.470   2.063 -0.7966 -0.7721 -0.7713
52336SOL    HW264124   2.259   0.460   2.077 -0.9022  0.9113 -0.5360
52337SOL     OW64125   9.618  12.624   2.110 -0.2671 -0.0393  0.1876
52337SOL    HW164126   9.709  12.625   2.141  0.5547 -3.0903 -1.7564
52337SOL    HW264127   9.587  12.536   2.131 -3.2487  1.2451  1.7607
52338SOL     OW64128  11.751   3.554   8.743  0.1427 -0.2720 -0.2461
52338SOL    HW164129  11.786   3.512   8.822 -2.2134  1.1888  1.7257
52338SOL    HW264130  11.665   3.515   8.731 -0.7055  1.5388 -0.3630
52339SOL     OW64131   6.715   4.511  11.091  0.4624 -0.3012 -0.5369
52339SOL    HW164132   6.713   4.508  11.187  0.9209  1.5235 -0.4339
52339SOL    HW264133   6.762   4.432  11.066  1.6703 -0.0613  0.8301
52340SOL     OW64134   3.128   7.917   1.116 -0.1641  0.4617 -0.2977
52340SOL    HW164135   3.113   8.011   1.112 -1.4404  0.2598 -0.8432
52340SOL    HW264136   3.205   7.907   1.172 -0.3649  1.7855  0.2461
52341SOL     OW64137   6.175  12.618  10.796 -0.4835 -0.3779  0.0026
52341SOL    HW164138   6.205  12.541  10.747  0.3404  0.0681 -0.2182
52341SOL    HW264139   6.197  12.692  10.739 -2.6716 -0.0475 -0.4988
52342SOL     OW64140   3.519   6.545   9.745 -0.6519  0.4469  0.1132
52342SOL    HW164141   3.614   6.557   9.736 -0.7299  1.2203  0.2567
52342SOL    HW264142   3.491   6.511   9.660 -0.1492 -0.4951  0.3049
52343SOL     OW64143  11.438  11.553   2.856 -0.3178 -0.2367  0.6374
52343SOL    HW164144  11.397  11.516   2.777 -0.0811 -1.4309  1.0543
52343SOL    HW264145  11.376  11.619   2.886 -1.5722 -1.4445  0.7982
52344SOL     OW64146   7.081   1.675   7.566  0.1135  0.3341  0.1600
52344SOL    HW164147   6.997   1.717   7.580 -0.0823  0.1784 -0.5094
52344SOL    HW264148   7.076   1.593   7.615 -0.0931  0.3626  0.1849
52345SOL     OW64149   3.000  11.528   2.378  0.4157  0.2675  0.0220
52345SOL    HW164150   2.970  11.524   2.287 -0.4842  1.1400  0.2624
52345SOL    HW264151   2.953  11.603   2.415 -0.0759 -0.7582  1.5250
52346SOL     OW64152   1.199   9.085   7.366  0.1568  0.4061  0.4330
52346SOL    HW164153   1.242   9.080   7.451  0.7726  2.0889  0.2606
52346SOL    HW264154   1.196   9.179   7.346 -0.6181  0.0958 -1.0799
52347SOL     OW64155  10.726  11.836   9.507 -0.1073  0.2945 -0.1798
52347SOL    HW164156  10.698  11.857   9.596  0.0693  3.2040 -0.7200
52347SOL    HW264157  10.821  11.842   9.510 -0.1142  0.6414 -0.6004
52348SOL     OW64158  12.154   4.134   1.261 -0.0821 -0.0512  0.3427
52348SOL    HW164159  12.070   4.095   1.240  0.3229 -1.5538  1.3154
52348SOL    HW264160  12.167   4.115   1.354  1.2617  0.2351  0.2442
52349SOL     OW64161  12.886   1.716   9.280 -0.2110  0.0344 -0.4037
52349SOL    HW164162  12.956   1.780   9.295 -0.7387  0.6191 -0.3951
52349SOL    HW264163  12.807   1.769   9.270 -0.4209 -0.5115 -1.9684
52350SOL     OW64164   0.311   7.372   5.493 -0.1204  0.2915  0.0231
52350SOL    HW164165   0.235   7.410   5.537 -0.4635  0.7285 -0.9262
52350SOL    HW264166   0.314   7.416   5.408  1.8860  1.1578  0.4718
52351SOL     OW64167   8.541   7.947  12.004 -0.0348 -0.1149  0.1461
52351SOL    HW164168   8.482   7.910  11.938  0.1240  0.2175 -0.1800
52351SOL    HW264169   8.596   8.009  11.956 -0.4509  0.7291  0.7276
52352SOL     OW64170   7.318  10.126   5.264  0.1472 -1.1334 -0.6049
52352SOL    HW164171   7.269  10.190   5.315  3.4961  1.0812  0.2156
52352SOL    HW264172   7.333  10.170   5.180 -0.2332 -2.2299 -1.2595
52353SOL     OW64173   3.987  12.719   8.750  0.1902  0.3273  0.2847
52353SOL    HW164174   3.907  12.673   8.728 -0.2109  0.6355  1.0492
52353SOL    HW264175   3.958  12.804   8.784  0.7248 -0.1837  2.1614
52354SOL     OW64176   0.565  11.129   7.470  0.2462  0.1371 -0.4778
52354SOL    HW164177   0.584  11.196   7.536  2.1617  0.9599 -1.7586
52354SOL    HW264178   0.651  11.095   7.445 -0.5729 -1.5700 -1.1358
52355SOL     OW64179   2.902  12.957   4.379  0.1779  0.5767 -0.3627
52355SOL    HW164180   2.939  12.974   4.465  1.9253 -0.2389 -0.8934
52355SOL    HW264181   2.850  12.877   4.390  1.2885 -0.1616 -0.2502
52356SOL     OW64182   1.880   9.673  10.517 -0.2002  0.4611  0.4420
52356SOL    HW164183   1.900   9.663  10.610 -0.8518 -0.1043  0.5230
52356SOL    HW264184   1.794   9.716  10.516 -0.1118  0.6330  0.0967
52357SOL     OW64185   3.162   0.309   4.475 -0.3950 -0.3744  0.0730
52357SOL    HW164186   3.194   0.221   4.453 -0.9158 -0.7491  0.7648
52357SOL    HW264187   3.076   0.294   4.515 -1.4438  0.5996 -1.6847
52358SOL     OW64188   3.722  11.084  10.676 -0.1538  0.2825  0.5025
52358SOL    HW164189   3.802  11.034  10.661 -0.8664 -0.9055  0.5364
52358SOL    HW264190   3.667  11.027  10.730 -1.0415  1.0533  0.4463
52359SOL     OW64191   5.616   5.089  10.083  1.1279 -0.1804  0.4734
52359SOL    HW164192   5.537   5.055  10.127  0.3938 -0.3864 -0.9427
52359SOL    HW264193   5.655   5.012  10.042  1.3298  0.1375  0.0599
52360SOL     OW64194   2.852   7.562  11.483 -0.4931  0.3412 -0.1843
52360SOL    HW164195   2.854   7.572  11.578  0.7389  0.9750 -0.2584
52360SOL    HW264196   2.814   7.644  11.451  0.3860  0.7164 -0.2953
52361SOL     OW64197   1.457   2.412   4.601  0.1043  0.1175  0.8212
52361SOL    HW164198   1.541   2.391   4.561  0.0305  0.6298  0.3826
52361SOL    HW264199   1.420   2.327   4.626  0.0334 -0.2608 -0.4565
52362SOL     OW64200   6.745   5.608   3.440 -0.2471 -0.8402 -0.0439
52362SOL    HW164201   6.746   5.555   3.519  0.7274 -0.2228  0.3825
52362SOL    HW264202   6.838   5.622   3.419 -0.4796 -1.5484 -1.6816
52363SOL     OW64203  10.880   1.336   1.573  0.1617 -0.1851 -0.1978
52363SOL    HW164204  10.924   1.331   1.658 -2.4578 -0.7587  1.2468
52363SOL    HW264205  10.794   1.297   1.589 -0.0950 -1.1832 -3.3810
52364SOL     OW64206   9.623  10.758   1.906  0.0159 -0.2364  0.4982
52364SOL    HW164207   9.685  10.826   1.931 -0.7832  0.0213  1.8642
52364SOL    HW264208   9.537  10.799   1.915 -0.4308 -1.0523  0.1027
52365SOL     OW64209   7.694   2.860   0.243  0.1859 -0.0847  0.1080
52365SOL    HW164210   7.731   2.820   0.164  0.8288 -0.5030  0.6130
52365SOL    HW264211   7.701   2.954   0.228 -0.2964 -0.1571 -0.6071
52366SOL     OW64212   3.619  11.664   5.924  0.1381 -0.0132 -0.0645
52366SOL    HW164213   3.681  11.677   5.996 -0.7487 -0.4312  0.8050
52366SOL    HW264214   3.665  11.606   5.863  0.8529  0.2266  0.2317
52367SOL     OW64215   9.265   9.388   2.699  0.2451  0.4252  0.1856
52367SOL    HW164216   9.274   9.466   2.754 -2.2164 -0.3080  1.8020
52367SOL    HW264217   9.178   9.397   2.659 -1.3351 -2.5819  2.5083
52368SOL     OW64218   2.130   7.909   3.527  0.6899 -0.2833  0.0587
52368SOL    HW164219   2.060   7.869   3.579  0.9067  2.0700  2.4243
52368SOL    HW264220   2.209   7.893   3.579  1.2020  0.7592 -0.3824
52369SOL     OW64221   7.682   2.518   9.606 -0.5182 -0.1272  0.2010
52369SOL    HW164222   7.643   2.600   9.576  0.9951 -0.3518 -2.7675
52369SOL    HW264223   7.657   2.453   9.539 -0.1691 -1.6759  1.5113
52370SOL     OW64224  10.266   8.959  12.510 -0.7117 -0.4092  0.0791
52370SOL    HW164225  10.260   9.050  12.479 -1.0909 -0.8533 -1.2064
52370SOL    HW264226  10.351   8.929  12.480 -0.7637 -0.6112  0.1344
52371SOL     OW64227   5.634   3.976   9.030  0.0884 -0.5603  0.8801
52371SOL    HW164228   5.550   3.972   9.077 -0.1651  2.4931  0.9034
52371SOL    HW264229   5.612   3.957   8.939 -0.7662  0.6929  0.8028
52372SOL     OW64230   9.603   9.095   4.433 -0.0472  0.4886 -0.0486
52372SOL    HW164231   9.579   9.004   4.420 -0.3964  0.5075  0.4377
52372SOL    HW264232   9.678   9.109   4.376  0.7762 -0.4464  0.7687
52373SOL     OW64233   2.484   8.268   0.505  0.2121 -0.2378 -0.4939
52373SOL    HW164234   2.428   8.193   0.527 -0.0491 -0.1566 -0.8624
52373SOL    HW264235   2.501   8.311   0.589 -0.0920 -0.3953 -0.3502
52374SOL     OW64236   0.960   2.730  12.502 -0.1957 -0.1581  0.2372
52374SOL    HW164237   0.940   2.642  12.531  1.6196 -0.1435  1.7534
52374SOL    HW264238   0.928   2.787  12.571 -2.7250  0.5945 -1.4055
52375SOL     OW64239   3.145   5.161   8.614  0.4720  0.3942  0.1134
52375SOL    HW164240   3.222   5.127   8.570  0.6240 -1.5877  1.7784
52375SOL    HW264241   3.095   5.083   8.640 -1.5282  1.5789  0.0874
52376SOL     OW64242  11.165   3.052  11.973  0.0203 -0.0599 -0.4620
52376SOL    HW164243  11.160   2.956  11.972  0.6875 -0.0938 -1.0434
52376SOL    HW264244  11.249   3.071  12.015  0.2181  0.2564 -0.9983
52377SOL     OW64245   1.650   7.558   7.693 -0.5209  0.1842 -0.3926
52377SOL    HW164246   1.664   7.533   7.784  2.8230 -0.2804 -0.9044
52377SOL    HW264247   1.655   7.653   7.693 -1.6546  0.2560  0.0217
52378SOL     OW64248  10.339   4.260   0.799 -0.0968 -0.1506 -0.3445
52378SOL    HW164249  10.395   4.231   0.726 -0.0379 -1.0365  0.0392
52378SOL    HW264250  10.263   4.202   0.795  0.4863 -1.0399  1.0505
52379SOL     OW64251  10.062   8.246   7.279 -0.3802 -0.6073  0.1375
52379SOL    HW164252  10.115   8.325   7.271 -2.2110  0.5753 -1.1936
52379SOL    HW264253  10.039   8.241   7.372  0.9399 -0.4141  0.4884
52380SOL     OW64254   2.623   0.720   6.957  0.0700  0.6260 -0.2658
52380SOL    HW164255   2.631   0.771   6.877  1.2874  1.8295  0.5771
52380SOL    HW264256   2.700   0.743   7.008 -0.9068  0.2472  1.4555
52381SOL     OW64257   5.658  10.222   1.111 -0.2786 -0.6045 -0.2302
52381SOL    HW164258   5.677  10.220   1.205  0.2710 -0.8894 -0.3443
52381SOL    HW264259   5.721  10.286   1.076  0.6348 -1.6837 -0.6382
52382SOL     OW64260   2.910   8.455  11.346  0.2552 -0.1666  0.0192
52382SOL    HW164261   2.870   8.449  11.259 -1.1404  0.0815  0.6276
52382SOL    HW264262   2.964   8.534  11.343  0.0962 -0.0804 -0.5674
52383SOL     OW64263   7.092   7.494  12.817  0.3280 -0.6089 -0.6054
52383SOL    HW164264   7.182   7.497  12.785  0.8471  0.0804  0.8503
52383SOL    HW264265   7.091   7.422  12.880 -0.1040 -0.5236 -0.5098
52384SOL     OW64266   1.233   5.845   1.057 -0.6088 -0.0908  0.3537
52384SOL    HW164267   1.245   5.794   1.137 -0.6168 -0.4264  0.1394
52384SOL    HW264268   1.287   5.924   1.071  0.6232 -0.8519  0.0659
52385SOL     OW64269   0.391   1.126   3.340  0.1782 -0.0344 -0.6056
52385SOL    HW164270   0.326   1.160   3.278 -1.0951 -0.3486  0.5006
52385SOL    HW264271   0.401   1.034   3.316  1.1948  0.3065 -1.5682
52386SOL     OW64272   9.236   7.062   0.534 -0.3193  0.5836 -0.4308
52386SOL    HW164273   9.147   7.060   0.568  0.2545  0.4106  1.1458
52386SOL    HW264274   9.290   7.092   0.608  0.7306  2.3916 -1.8296
52387SOL     OW64275   5.816   2.932   2.985 -0.2322 -0.1692 -0.3800
52387SOL    HW164276   5.877   3.005   2.976 -1.0161  0.5273 -0.1611
52387SOL    HW264277   5.763   2.954   3.062  1.7843 -2.6433  1.9051
52388SOL     OW64278   1.480   3.141   4.069  0.6154  0.1576 -0.3491
52388SOL    HW164279   1.459   3.229   4.102  0.7536 -0.2827  0.9970
52388SOL    HW264280   1.576   3.138   4.071  0.7804  0.9759 -3.2224
52389SOL     OW64281  11.772   8.514   6.329 -0.7919  0.2186  0.4608
52389SOL    HW164282  11.773   8.561   6.246 -0.0538 -0.8722 -0.1819
52389SOL    HW264283  11.713   8.440   6.314 -1.1984  0.4013  1.1354
52390SOL     OW64284   2.996  12.226   5.538  0.0522 -0.4443  0.1740
52390SOL    HW164285   2.943  12.299   5.504 -0.2907 -1.2944 -1.1849
52390SOL    HW264286   3.074  12.268   5.574 -0.1790  0.6084 -0.5090
52391SOL     OW64287  12.692  11.570   0.994 -0.3308 -0.1130 -0.3819
52391SOL    HW164288  12.664  11.501   0.934 -0.0702  0.1418 -0.7996
52391SOL    HW264289  12.647  11.648   0.963  1.3710  0.4588 -1.5034
52392SOL     OW64290   5.659   2.985   0.353 -0.4526 -0.1489  0.3116
52392SOL    HW164291   5.696   2.995   0.266 -1.5379 -2.1606 -0.4580
52392SOL    HW264292   5.576   3.033   0.350  0.5554  1.7138  1.0223
52393SOL     OW64293  12.302   1.104  12.879 -0.3601  0.1953  0.4674
52393SOL    HW164294  12.364   1.043  12.840  2.0206  1.5693  1.9073
52393SOL    HW264295  12.227   1.050  12.904  0.9579 -1.8216  0.2082
52394SOL     OW64296   9.968   6.087  12.406 -0.4587  0.0386 -0.6285
52394SOL    HW164297   9.950   6.060  12.496 -1.2308  0.7824 -0.5422
52394SOL    HW264298   9.909   6.161  12.391  0.1117  0.3263 -1.5375
52395SOL     OW64299  12.748   9.361   2.442 -0.2800 -0.5044 -0.0584
52395SOL    HW164300  12.791   9.435   2.398  0.6971 -0.3927  1.0519
52395SOL    HW264301  12.740   9.388   2.533 -1.3907 -1.1331  0.0458
52396SOL     OW64302  12.296  11.416   5.667  0.1139  0.1506  0.5317
52396SOL    HW164303  12.385  11.387   5.648  0.3483  1.0335  0.2562
52396SOL    HW264304  12.268  11.362   5.741  0.3545 -1.1259 -0.2769
52397SOL     OW64305   9.761  10.081  12.465 -0.5434  0.1326  0.1574
52397SOL    HW164306   9.729   9.991  12.463 -0.0433 -0.0511  0.1807
52397SOL    HW264307   9.721  10.123  12.388  1.4118 -0.8972 -1.5252
52398SOL     OW64308   6.855   8.063   3.489  0.2237 -0.1588  0.5615
52398SOL    HW164309   6.761   8.042   3.488 -0.2154  1.4102  2.3704
52398SOL    HW264310   6.882   8.057   3.398 -1.7542 -0.2086 -0.0766
52399SOL     OW64311  12.125   8.471   0.183  0.1648  0.1960  0.0952
52399SOL    HW164312  12.038   8.506   0.165  0.3917  1.0763  0.6342
52399SOL    HW264313  12.136   8.401   0.119 -0.3188  1.0806 -0.9989
52400SOL     OW64314   8.457   9.893  12.076  0.0213  0.3630  0.4838
52400SOL    HW164315   8.466   9.978  12.032 -0.3090  0.3390  0.3605
52400SOL    HW264316   8.411   9.913  12.157 -3.1535 -0.0761 -1.0356
52401SOL     OW64317   0.326   1.876  12.749 -0.5044 -0.4471  0.1601
52401SOL    HW164318   0.271   1.845  12.676 -0.2317  0.7507 -0.5923
52401SOL    HW264319   0.414   1.844  12.728 -0.5322 -0.5879  0.2602
52402SOL     OW64320   9.364   7.289   0.107  0.3574  0.2592 -0.3709
52402SOL    HW164321   9.334   7.209   0.065  1.1085  1.0056 -2.4535
52402SOL    HW264322   9.306   7.357   0.073  2.5411  1.2862 -2.3671
52403SOL     OW64323   6.882  10.022   9.436  0.1068 -0.5913 -0.5670
52403SOL    HW164324   6.922  10.097   9.479 -1.3038 -0.5285  0.7193
52403SOL    HW264325   6.887  10.043   9.342 -1.4159  1.7703 -0.2126
52404SOL     OW64326   1.377  11.064   5.032 -0.5899  0.3919 -0.1924
52404SOL    HW164327   1.368  11.044   4.938 -0.0485  0.9146 -0.3583
52404SOL    HW264328   1.456  11.018   5.059 -0.5065  0.5998 -0.0873
52405SOL     OW64329  12.614  12.231  11.352  0.0741  0.0941  0.1211
52405SOL    HW164330  12.666  12.201  11.277  1.2045  0.6990  0.6418
52405SOL    HW264331  12.646  12.179  11.426 -2.5190 -2.0927 -0.1047
52406SOL     OW64332  11.762  12.259   1.287 -0.4872  0.7682 -0.7797
52406SOL    HW164333  11.789  12.254   1.379 -0.2628 -0.8645 -0.9053
52406SOL    HW264334  11.697  12.329   1.285 -2.0044 -0.5033  1.0250
52407SOL     OW64335  10.900  11.049   9.844 -0.1176  0.0681 -0.8385
52407SOL    HW164336  10.812  11.021   9.867 -0.1260 -0.5836 -1.6327
52407SOL    HW264337  10.933  11.094   9.922 -1.0880  0.1717 -0.4860
52408SOL     OW64338   0.020   8.836  12.507 -0.1494  0.4179  0.1443
52408SOL    HW164339   0.087   8.889  12.463 -0.0631  1.1148  1.0907
52408SOL    HW264340   0.069   8.784  12.571 -0.3753  0.0776  0.0433
52409SOL     OW64341   3.037   4.405   0.033 -0.6229  0.0037 -0.3718
52409SOL    HW164342   3.109   4.446   0.081 -1.0497 -0.1324  0.3974
52409SOL    HW264343   3.055   4.425  -0.059 -1.2553  2.6814  0.0071
52410SOL     OW64344   0.660  10.113   1.504 -0.3267  0.4802 -0.1078
52410SOL    HW164345   0.754  10.134   1.497 -0.5729  1.1524 -2.2585
52410SOL    HW264346   0.657  10.018   1.511  0.5376  0.5016  0.7256
52411SOL     OW64347   0.554   4.743   8.468 -0.6909  0.6005 -0.7151
52411SOL    HW164348   0.489   4.793   8.418 -2.5197  0.0971  1.0449
52411SOL    HW264349   0.512   4.659   8.486  1.3398 -0.6493 -1.3983
52412SOL     OW64350   0.630   8.992   3.155  0.0199 -0.4705  0.1055
52412SOL    HW164351   0.676   9.000   3.238 -0.3311 -3.1266  0.6446
52412SOL    HW264352   0.537   8.997   3.178 -0.0836  1.6779 -0.5628
52413SOL     OW64353   4.266   2.788   7.793 -0.5700  0.2787  0.6854
52413SOL    HW164354   4.350   2.817   7.829  0.3608  0.2990 -1.3624
52413SOL    HW264355   4.268   2.816   7.701 -1.1980 -2.9702 -0.4482
52414SOL     OW64356   1.351   7.392   4.858  0.0167  0.3467 -0.3334
52414SOL    HW164357   1.269   7.382   4.809  0.1774 -0.9024 -0.3975
52414SOL    HW264358   1.403   7.454   4.807 -0.1748 -0.2465 -1.2724
52415SOL     OW64359  10.504  10.398   9.750 -0.0029  0.3539 -0.0177
52415SOL    HW164360  10.479  10.368   9.663  0.0144  3.6590 -1.3324
52415SOL    HW264361  10.579  10.344   9.775 -1.1253 -1.8718 -1.1716
52416SOL     OW64362  12.256  10.744   8.413  0.4594  0.1256 -0.2377
52416SOL    HW164363  12.164  10.737   8.385  0.1879 -0.2358  0.6994
52416SOL    HW264364  12.256  10.810   8.481  0.9062  0.1500 -0.2578
52417SOL     OW64365   6.704  10.754   1.702  0.3399  0.1360  0.0042
52417SOL    HW164366   6.649  10.715   1.634 -0.6254  1.6038 -0.1063
52417SOL    HW264367   6.664  10.725   1.784 -0.6362  1.1847 -0.0761
52418SOL     OW64368   0.057   6.119   1.169 -0.3249 -0.1031 -0.4009
52418SOL    HW164369   0.093   6.125   1.258  0.2931 -0.2559 -0.6407
52418SOL    HW264370  -0.038   6.118   1.183 -0.2322 -0.9698  0.3221
52419SOL     OW64371   5.283   8.853   6.473 -0.0564  0.0715  0.7439
52419SOL    HW164372   5.367   8.880   6.437 -0.5197 -1.0684 -1.3760
52419SOL    HW264373   5.284   8.758   6.470 -1.1405  0.0178  1.3599
52420SOL     OW64374   1.636   9.350   1.666 -0.7386  0.0480 -0.1503
52420SOL    HW164375   1.716   9.398   1.644 -1.0356  0.7026  0.1609
52420SOL    HW264376   1.586   9.348   1.585 -0.6314  0.0695 -0.2182
52421SOL     OW64377   3.486  10.674   7.534  0.1840  0.2256 -0.0889
52421SOL    HW164378   3.461  10.681   7.442  1.1504 -0.2199 -0.4058
52421SOL    HW264379   3.569  10.626   7.532 -1.2475 -2.5386  1.2054
52422SOL     OW64380   6.980   6.583   2.445  0.2207 -0.1547 -0.5373
52422SOL    HW164381   6.974   6.661   2.499  1.5515  0.4170 -1.1612
52422SOL    HW264382   6.890   6.556   2.430 -0.2093  0.5268  0.7270
52423SOL     OW64383   6.150   0.752  12.542 -0.5368 -0.3539 -0.3666
52423SOL    HW164384   6.057   0.733  12.523 -0.4134  0.8811 -2.4884
52423SOL    HW264385   6.193   0.667  12.532 -1.4274 -0.9652  0.7359
52424SOL     OW64386   4.024   0.340  11.637 -0.5861  0.5073 -0.3465
52424SOL    HW164387   4.108   0.362  11.677  0.1235 -0.4233 -1.2614
52424SOL    HW264388   4.026   0.387  11.553 -1.4839  1.3871  0.1064
52425SOL     OW64389   3.015   4.767  11.496  0.2047 -0.1961 -0.5777
52425SOL    HW164390   2.934   4.814  11.473 -0.5526 -1.3840 -0.3816
52425SOL    HW264391   3.063   4.828  11.552 -1.1620  0.0384  0.3856
52426SOL     OW64392   1.272  10.641   9.161 -0.8719  0.4596 -0.0895
52426SOL    HW164393   1.197  10.637   9.220  0.3670  1.0047  1.6448
52426SOL    HW264394   1.259  10.568   9.100 -1.5716 -1.0573  1.7474
52427SOL     OW64395   1.529   6.693   8.260 -0.3472 -0.1566  0.2751
52427SOL    HW164396   1.539   6.781   8.297  0.1304 -0.3900  0.7095
52427SOL    HW264397   1.438   6.690   8.233 -0.0693  0.9076 -0.8760
52428SOL     OW64398   1.152  10.578   1.545  0.2211  0.3095 -0.2123
52428SOL    HW164399   1.198  10.540   1.620  0.6448 -0.3725 -0.8072
52428SOL    HW264400   1.061  10.586   1.575 -0.0345 -1.8251 -0.2808
52429SOL     OW64401   1.652  11.075  12.504  0.4818  0.4038 -0.3224
52429SOL    HW164402   1.604  11.012  12.450 -2.1331  1.1383  0.9853
52429SOL    HW264403   1.724  11.103  12.448 -0.2283 -1.2225 -2.2122
52430SOL     OW64404  10.585   1.194   0.589 -0.7611  0.5218  0.2638
52430SOL    HW164405  10.648   1.127   0.565  0.7272  1.2804  1.8253
52430SOL    HW264406  10.544   1.161   0.669  0.2581  1.5891  1.2631
52431SOL     OW64407   8.211   6.574   5.063  0.5138 -0.7760 -0.0402
52431SOL    HW164408   8.128   6.577   5.015 -0.0461 -1.9407  0.8137
52431SOL    HW264409   8.266   6.513   5.012 -0.2569 -2.4067  1.0164
52432SOL     OW64410  10.165   0.781   4.378 -0.1025 -0.3141  0.3324
52432SOL    HW164411  10.122   0.834   4.445  0.0538  0.5084 -0.1985
52432SOL    HW264412  10.138   0.820   4.295 -0.1626 -1.2188 -0.0910
52433SOL     OW64413  12.748   8.559  10.827  0.3354  0.1704  0.1500
52433SOL    HW164414  12.675   8.499  10.807  0.4508  0.3416 -0.8412
52433SOL    HW264415  12.726   8.640  10.781  0.4480  0.7267  1.0468
52434SOL     OW64416   5.268   6.974   5.794  0.1610  0.0389 -0.0833
52434SOL    HW164417   5.309   6.898   5.753  0.4969 -0.7990  1.7457
52434SOL    HW264418   5.183   6.942   5.824  0.4816  0.2589  1.0908
52435SOL     OW64419   7.747  10.381   9.909 -0.6562 -0.1864 -0.0445
52435SOL    HW164420   7.742  10.314   9.977 -0.2073  0.4441  0.6143
52435SOL    HW264421   7.839  10.382   9.882 -0.7573 -0.1675 -0.3996
52436SOL     OW64422   2.577  10.744   5.818 -0.5796 -0.1115 -0.1570
52436SOL    HW164423   2.597  10.697   5.899 -1.0006 -0.1761 -0.0839
52436SOL    HW264424   2.573  10.676   5.751  1.3503  0.1232 -0.5498
52437SOL     OW64425   2.750   8.424   5.395  0.4491  0.1422 -0.0385
52437SOL    HW164426   2.836   8.393   5.423  0.6500  0.5939 -0.1398
52437SOL    HW264427   2.747   8.515   5.424 -0.2075 -0.0252  0.4301
52438SOL     OW64428   8.487  12.384  11.912  0.3805 -0.3342  0.1946
52438SOL    HW164429   8.403  12.349  11.943  0.7893 -1.1260  0.4245
52438SOL    HW264430   8.552  12.319  11.939  0.9396 -0.2810 -0.9816
52439SOL     OW64431   7.682  12.080   6.855 -0.6634  0.2508 -0.1584
52439SOL    HW164432   7.729  12.127   6.924 -1.0340  1.4794 -0.7158
52439SOL    HW264433   7.599  12.056   6.896  0.2802 -1.6727  0.7373
52440SOL     OW64434   2.461   3.573   8.377  0.2205 -0.4366  0.2165
52440SOL    HW164435   2.525   3.512   8.412  0.4472 -0.2435  0.1464
52440SOL    HW264436   2.492   3.590   8.288  0.8359  0.6959  0.6244
52441SOL     OW64437   0.486  12.239   6.306 -0.1305 -0.3166 -0.3063
52441SOL    HW164438   0.523  12.327   6.296  1.0815 -0.6188  1.0675
52441SOL    HW264439   0.422  12.248   6.376  0.1379 -0.5434 -0.0245
52442SOL     OW64440   4.977  12.534  12.479  0.2732  0.0579  0.2586
52442SOL    HW164441   4.938  12.619  12.502  3.7964  1.9984 -0.1876
52442SOL    HW264442   4.963  12.526  12.385 -3.1600 -1.7490  0.7787
52443SOL     OW64443   7.094   0.841   8.065 -0.0014 -0.0065 -0.3015
52443SOL    HW164444   7.066   0.897   8.137  1.0270  0.1921 -0.0292
52443SOL    HW264445   7.033   0.768   8.066 -0.1258  0.0954  0.6578
52444SOL     OW64446   1.775   4.555   6.984 -0.7652  0.3590 -0.0909
52444SOL    HW164447   1.774   4.651   6.985 -2.2137  0.3634 -0.5595
52444SOL    HW264448   1.809   4.533   6.897 -1.0252  0.4452 -0.2132
52445SOL     OW64449  10.310   4.335   8.562 -0.7621 -0.0466  0.2334
52445SOL    HW164450  10.244   4.266   8.572 -0.9705  0.2931  1.3496
52445SOL    HW264451  10.283   4.382   8.484 -1.4953 -0.3047  0.3188
52446SOL     OW64452   4.572   1.325   4.206 -0.4876  0.1001 -0.6196
52446SOL    HW164453   4.614   1.404   4.176 -0.7411 -0.0443 -1.3667
52446SOL    HW264454   4.614   1.254   4.158 -0.8420 -0.1411 -0.5855
52447SOL     OW64455   1.590   2.999   9.784 -0.3110 -0.0010 -0.0716
52447SOL    HW164456   1.661   2.945   9.818 -0.4138 -1.1615 -1.5996
52447SOL    HW264457   1.511   2.962   9.821 -0.3217 -0.4627 -0.5436
52448SOL     OW64458   8.126   2.933   4.529 -0.5315  0.0107 -0.1602
52448SOL    HW164459   8.128   2.839   4.547  0.9622 -0.3384 -1.8572
52448SOL    HW264460   8.203   2.967   4.574  0.1700  0.0293 -1.3488
52449SOL     OW64461   2.742   9.705   0.763 -0.0164 -0.6241 -0.0739
52449SOL    HW164462   2.686   9.723   0.838  0.5612 -0.2053  0.2626
52449SOL    HW264463   2.693   9.642   0.711 -1.0524  0.1816 -0.0890
52450SOL     OW64464   9.970   1.736   9.288 -0.2210 -0.3618 -0.3282
52450SOL    HW164465   9.919   1.668   9.245 -0.1363  0.1458 -1.2516
52450SOL    HW264466   9.906   1.782   9.343 -0.6696 -0.0524 -1.0848
52451SOL     OW64467   0.260   0.039   6.238  0.4061  0.0756 -0.1848
52451SOL    HW164468   0.262   0.105   6.308 -0.3909 -1.4295  1.3531
52451SOL    HW264469   0.234   0.087   6.160  0.9351  1.7605  0.6215
52452SOL     OW64470   0.172   8.363   9.663  0.3918 -0.0569 -0.2780
52452SOL    HW164471   0.202   8.419   9.734  0.6560 -1.1518  0.5121
52452SOL    HW264472   0.205   8.404   9.583  2.9111 -0.4839  0.4453
52453SOL     OW64473   1.037   4.089   1.208  0.0755  0.1352 -0.0974
52453SOL    HW164474   1.096   4.145   1.259  0.2448 -1.7138  1.8974
52453SOL    HW264475   0.955   4.089   1.256 -0.8247  0.7993 -1.5667
52454SOL     OW64476   1.563   0.220   7.970 -0.1145  0.2201 -0.2489
52454SOL    HW164477   1.506   0.268   8.030 -1.9356 -1.3969 -0.5703
52454SOL    HW264478   1.624   0.173   8.028  0.5387  1.4814  0.1256
52455SOL     OW64479  10.722   5.585   9.703 -0.2933  0.1153  0.5987
52455SOL    HW164480  10.802   5.547   9.739 -1.2104 -1.8574  0.6887
52455SOL    HW264481  10.704   5.661   9.758  1.0847  0.1436  1.0447
52456SOL     OW64482   0.452   9.245  12.331 -0.6994  0.0991 -0.3075
52456SOL    HW164483   0.459   9.160  12.374  1.0931  0.0058 -0.7355
52456SOL    HW264484   0.494   9.306  12.392  0.5044  0.2074 -1.2112
52457SOL     OW64485  10.540   4.667   6.623 -0.6002 -0.5093  0.5971
52457SOL    HW164486  10.464   4.643   6.676 -0.4812 -0.0558  0.9810
52457SOL    HW264487  10.575   4.583   6.593 -0.0931 -0.8662  2.0611
52458SOL     OW64488  12.916   4.174   5.719 -0.3772  0.3553  0.3475
52458SOL    HW164489  12.869   4.251   5.688 -1.1840 -0.4007 -0.3709
52458SOL    HW264490  12.931   4.122   5.640 -0.2277 -0.4180  0.8733
52459SOL     OW64491   1.598   1.711  12.745 -0.1483 -0.3869 -0.0700
52459SOL    HW164492   1.600   1.699  12.650  0.5585  0.4195 -0.1742
52459SOL    HW264493   1.675   1.766  12.763 -0.2535 -0.5726  0.9702
52460SOL     OW64494   7.336   2.579   8.743 -0.4154  0.4438  0.2611
52460SOL    HW164495   7.320   2.562   8.836  0.7900 -0.9094  0.2641
52460SOL    HW264496   7.426   2.610   8.739 -0.1239 -0.4555 -0.5282
52461SOL     OW64497  10.408   0.197   0.347  0.3810 -0.1357 -0.2003
52461SOL    HW164498  10.379   0.212   0.257  1.7087 -1.2589 -0.8613
52461SOL    HW264499  10.479   0.133   0.339 -0.2624 -1.1868  1.7504
52462SOL     OW64500   0.593   2.535   6.942 -0.2936  0.1159 -0.3190
52462SOL    HW164501   0.568   2.444   6.959 -0.0411  0.3461  1.3569
52462SOL    HW264502   0.643   2.561   7.019  2.1479  0.7860 -2.0188
52463SOL     OW64503  10.076   1.530   3.103 -0.4448 -0.0234  0.2336
52463SOL    HW164504  10.097   1.444   3.067  0.7140 -0.8108  2.5828
52463SOL    HW264505   9.981   1.527   3.117 -0.8803  0.1934 -2.2659
52464SOL     OW64506   7.922   7.485   1.293  0.0364  0.3322 -0.1409
52464SOL    HW164507   7.889   7.403   1.330 -0.7761  0.2703 -0.9516
52464SOL    HW264508   7.845   7.523   1.249  0.6161  1.0951 -0.5083
52465SOL     OW64509   1.419  11.932   0.875  0.2572 -0.4458 -0.7921
52465SOL    HW164510   1.397  12.019   0.908  0.7209 -0.9817  1.0654
52465SOL    HW264511   1.403  11.937   0.781  1.1877  1.9361 -0.8945
52466SOL     OW64512   0.324   0.725   5.789  0.0878 -0.3642 -0.3730
52466SOL    HW164513   0.283   0.711   5.704  3.1571 -1.4498 -1.7949
52466SOL    HW264514   0.306   0.645   5.838  1.1466 -1.1838 -1.2915
52467SOL     OW64515   1.965  10.303   6.727 -0.1895 -0.0133 -0.0979
52467SOL    HW164516   2.020  10.361   6.781 -0.4111  0.7839 -0.7052
52467SOL    HW264517   1.974  10.337   6.638 -2.0221  0.4461 -0.1508
52468SOL     OW64518   9.035  11.589   4.939 -0.1086  0.6108  1.0703
52468SOL    HW164519   9.073  11.631   5.016 -1.9001  1.6571  1.4424
52468SOL    HW264520   9.026  11.660   4.875  0.3238 -0.0201  0.2786
52469SOL     OW64521   6.047   3.381  10.249 -0.0463 -0.4505  0.2201
52469SOL    HW164522   6.061   3.341  10.163  0.0898  1.2905 -0.6136
52469SOL    HW264523   6.126   3.434  10.264 -0.3268 -0.2760  1.1477
52470SOL     OW64524   0.694   9.572  12.177 -0.0210  0.1861 -0.0765
52470SOL    HW164525   0.699   9.497  12.236 -0.5896 -0.8377 -1.2936
52470SOL    HW264526   0.612   9.560  12.129  0.8600  0.4578 -1.7346
52471SOL     OW64527   2.657   0.266   7.691 -0.3490 -0.5225 -0.0542
52471SOL    HW164528   2.576   0.279   7.742 -0.7507  0.0100 -0.8128
52471SOL    HW264529   2.692   0.184   7.724 -1.2318 -0.7933  0.2572
52472SOL     OW64530   6.773  11.521  12.373  0.0067 -0.0875 -0.5607
52472SOL    HW164531   6.798  11.575  12.448 -1.7075 -0.1763  0.1094
52472SOL    HW264532   6.706  11.572  12.328 -1.4253 -1.4540 -0.0904
52473SOL     OW64533  10.977   7.705   5.291  0.1393  0.2771  0.2368
52473SOL    HW164534  11.068   7.710   5.259  0.3888 -1.8049  0.4711
52473SOL    HW264535  10.959   7.611   5.297 -1.6486  0.6434  1.3354
52474SOL     OW64536   1.485   0.222  11.463 -0.0752  0.5667  0.1566
52474SOL    HW164537   1.540   0.276  11.406  0.5728 -1.0164 -0.7541
52474SOL    HW264538   1.402   0.271  11.469  1.3688  3.0659  1.6506
52475SOL     OW64539  11.578   8.096   4.244 -0.0994  0.1646  0.0102
52475SOL    HW164540  11.653   8.041   4.267 -1.5910 -2.0409 -0.0284
52475SOL    HW264541  11.598   8.181   4.281  2.3699 -0.3616  0.0665
52476SOL     OW64542  10.934   5.929   5.696  0.5736  0.1279  0.2799
52476SOL    HW164543  10.921   5.837   5.719 -0.1947 -0.2000 -1.3540
52476SOL    HW264544  10.847   5.960   5.671  1.0416  0.9546 -0.3749
52477SOL     OW64545   5.724   2.667   2.263 -0.1082  0.0059 -0.7918
52477SOL    HW164546   5.718   2.641   2.355  0.2935 -0.7981 -0.9780
52477SOL    HW264547   5.674   2.748   2.257 -0.3274 -0.0555  0.0878
52478SOL     OW64548  10.497   8.038   0.686  0.3232  0.4812  0.5218
52478SOL    HW164549  10.444   8.115   0.665 -1.4772 -1.2160 -1.7489
52478SOL    HW264550  10.457   8.002   0.765 -0.7531  0.2670 -0.1011
52479SOL     OW64551   6.928  11.055  12.294  0.2235  0.1274 -0.4486
52479SOL    HW164552   6.962  11.124  12.351  2.0750 -0.5365 -0.6953
52479SOL    HW264553   6.997  11.040  12.230 -1.5179  0.3314 -2.4513
52480SOL     OW64554   2.049   3.202  10.173 -0.2799  0.1501 -0.1056
52480SOL    HW164555   2.106   3.151  10.115  1.4710  1.4447  0.3772
52480SOL    HW264556   2.001   3.261  10.115 -0.0057  0.0782 -0.4075
52481SOL     OW64557   0.401   3.828   5.099  0.2041 -0.2386  0.1372
52481SOL    HW164558   0.488   3.868   5.103  0.3098 -0.0346 -2.6003
52481SOL    HW264559   0.382   3.819   5.006 -2.3184 -1.2042  0.6477
52482SOL     OW64560   1.025   6.898  11.811  0.2671  0.4257 -0.5173
52482SOL    HW164561   1.061   6.820  11.852 -1.3396 -1.1142 -1.8958
52482SOL    HW264562   1.091   6.923  11.746  1.4520  1.1364  0.8950
52483SOL     OW64563   8.603   5.245  12.956 -0.3361  0.3455 -0.1717
52483SOL    HW164564   8.661   5.309  12.996  0.2990 -0.3899  0.1073
52483SOL    HW264565   8.581   5.282  12.870  0.3523  0.7381 -0.1785
52484SOL     OW64566  11.022   7.767   5.590 -0.6506 -0.0360  0.0652
52484SOL    HW164567  11.001   7.847   5.639 -0.8573 -0.4387  0.6392
52484SOL    HW264568  10.995   7.786   5.501  2.3069  1.8023 -0.6038
52485SOL     OW64569  12.068  12.186   4.456 -0.3519 -0.2347  0.1017
52485SOL    HW164570  11.990  12.237   4.479 -0.5711  0.1953 -1.5058
52485SOL    HW264571  12.036  12.095   4.454 -0.7028 -0.1120 -0.0503
52486SOL     OW64572   2.727  12.210   8.375 -0.3884  0.0602  0.0209
52486SOL    HW164573   2.662  12.179   8.312  1.3414 -2.6646 -0.5766
52486SOL    HW264574   2.748  12.299   8.346  1.1852 -1.4307 -4.1636
52487SOL     OW64575  12.483  12.673   0.081 -0.1043 -0.0620 -0.1359
52487SOL    HW164576  12.511  12.611   0.149  1.2591  1.4795  0.7934
52487SOL    HW264577  12.564  12.697   0.035 -1.0048 -1.0952 -2.3917
52488SOL     OW64578   3.006   5.693   5.615 -0.0068 -0.1998  0.3358
52488SOL    HW164579   3.071   5.762   5.603  1.1539 -1.2015  0.6350
52488SOL    HW264580   3.006   5.646   5.532 -1.6544  0.8197 -0.2983
52489SOL     OW64581   3.428   5.041   0.669 -0.3942 -0.1432 -0.2762
52489SOL    HW164582   3.523   5.045   0.679 -0.4225 -0.5134  0.1851
52489SOL    HW264583   3.410   4.949   0.650 -0.6014  0.0496 -1.0483
52490SOL     OW64584   1.422   8.361   3.945 -0.3859  0.3995 -0.2791
52490SOL    HW164585   1.349   8.327   3.997  0.5984 -2.0151 -0.3680
52490SOL    HW264586   1.392   8.356   3.854  0.1312 -1.3675 -0.3812
52491SOL     OW64587   0.081   5.158   1.951 -0.1166  0.4685  0.5363
52491SOL    HW164588   0.106   5.122   1.866 -1.0655  1.0055  0.0125
52491SOL    HW264589   0.103   5.088   2.014  1.1159  0.2880 -0.0635
52492SOL     OW64590  12.436   2.263   3.141 -0.8422  0.0710  0.3820
52492SOL    HW164591  12.483   2.186   3.173 -0.9179  0.2269  0.8822
52492SOL    HW264592  12.344   2.240   3.151 -0.9135 -0.6445 -1.5797
52493SOL     OW64593  12.515   2.781   7.327 -0.1276 -0.7118 -0.3667
52493SOL    HW164594  12.585   2.781   7.261  0.5630  1.7252  0.2957
52493SOL    HW264595  12.550   2.829   7.401 -1.9723 -0.7926  0.6312
52494SOL     OW64596   8.382   0.393   9.437  0.0954 -0.3508 -0.1799
52494SOL    HW164597   8.461   0.437   9.469  0.0452  0.4387 -1.0786
52494SOL    HW264598   8.326   0.385   9.513  0.7107 -0.1528  0.3018
52495SOL     OW64599   5.965  11.646  12.301 -0.7709 -0.4361  0.1885
52495SOL    HW164600   6.048  11.694  12.301  0.7754 -2.9645 -0.1730
52495SOL    HW264601   5.952  11.618  12.211 -1.0473 -1.6415  0.5827
52496SOL     OW64602   5.290   8.968  11.968 -0.2137  0.3242  0.8857
52496SOL    HW164603   5.312   8.942  12.058 -0.7653 -0.2104  0.8749
52496SOL    HW264604   5.308   8.890  11.915 -0.2754  0.5078  0.5923
52497SOL     OW64605   4.938  12.296  12.632 -0.9379 -0.1345  0.3218
52497SOL    HW164606   4.965  12.373  12.581 -1.1733 -0.0281  0.3587
52497SOL    HW264607   4.945  12.325  12.723 -0.6219 -0.2909  0.3509
52498SOL     OW64608   0.586   0.714  11.460 -0.0500 -0.6133  0.1843
52498SOL    HW164609   0.580   0.809  11.459  0.5708 -0.5658  0.8492
52498SOL    HW264610   0.497   0.684  11.480 -0.7375 -0.2542 -1.9849
52499SOL     OW64611   0.066   3.190   8.215 -0.2292 -0.4348  0.1216
52499SOL    HW164612   0.038   3.281   8.225  1.7616  0.5816 -2.5071
52499SOL    HW264613   0.160   3.191   8.234  0.1086 -1.6313 -1.3042
52500SOL     OW64614   1.877   7.275  11.275 -0.0040 -0.3816 -0.5517
52500SOL    HW164615   1.804   7.330  11.303 -1.0203 -1.0432 -1.7958
52500SOL    HW264616   1.858   7.189  11.314 -0.6436 -0.9087 -1.9314
52501SOL     OW64617   4.699   5.290   4.501 -0.0167  0.5616 -0.1589
52501SOL    HW164618   4.736   5.268   4.587 -1.5746 -0.1503  0.3611
52501SOL    HW264619   4.658   5.375   4.515  0.0490  0.6168 -0.3067
52502SOL     OW64620   5.768  10.803   2.947  0.5262 -0.0828 -0.3728
52502SOL    HW164621   5.792  10.847   2.866  1.0105  1.0212  0.3596
52502SOL    HW264622   5.771  10.871   3.014  0.3411 -1.0208  0.6187
52503SOL     OW64623   4.636  11.403   1.318 -0.1490  0.2079 -0.1115
52503SOL    HW164624   4.564  11.367   1.266 -0.3318 -0.2596  0.4573
52503SOL    HW264625   4.715  11.378   1.269 -0.3641  0.9691 -0.8880
52504SOL     OW64626   1.603  12.786   2.167  0.2079 -0.1297  0.4344
52504SOL    HW164627   1.680  12.788   2.111 -0.1653 -0.4199 -0.1034
52504SOL    HW264628   1.636  12.762   2.253  0.9962  1.7761  0.7066
52505SOL     OW64629   8.324   9.285   7.361  0.1653 -0.0597 -0.2185
52505SOL    HW164630   8.361   9.312   7.276  0.7041 -0.0777  0.0062
52505SOL    HW264631   8.400   9.266   7.415 -0.2015 -1.7084 -0.2506
52506SOL     OW64632   6.047   9.462  10.165  0.2053  0.0018 -0.1566
52506SOL    HW164633   6.058   9.476  10.071  0.7018 -1.7996 -0.4078
52506SOL    HW264634   6.133   9.482  10.202  0.5882 -1.1739 -0.3680
52507SOL     OW64635  12.557  11.211   7.161 -0.4687 -0.1186 -0.0590
52507SOL    HW164636  12.647  11.195   7.131  0.8343  1.2373  2.7163
52507SOL    HW264637  12.546  11.154   7.237 -0.2414  2.7834  2.3196
52508SOL     OW64638   8.685   9.663  10.279  0.6858 -0.2147 -0.0276
52508SOL    HW164639   8.772   9.639  10.313  0.2570 -0.5606  0.8552
52508SOL    HW264640   8.624   9.635  10.348 -0.2634 -1.4853 -1.3279
52509SOL     OW64641  11.543   1.962   5.325  0.0937  0.2384  0.0815
52509SOL    HW164642  11.585   1.912   5.395  2.9241  0.9677 -0.9397
52509SOL    HW264643  11.455   1.926   5.319  0.9521 -2.3989  1.5322
52510SOL     OW64644   7.228   0.291   3.692  0.4100 -0.2895 -0.1412
52510SOL    HW164645   7.207   0.281   3.785 -1.7694  0.9995 -0.4087
52510SOL    HW264646   7.153   0.250   3.647  1.5637 -1.1454 -1.3602
52511SOL     OW64647  12.821   4.069   1.331 -0.3201  0.7348  0.1482
52511SOL    HW164648  12.733   4.067   1.294  0.3402  0.3105 -1.4974
52511SOL    HW264649  12.874   4.019   1.269  0.7348 -0.6857  2.0849
52512SOL     OW64650   7.139   5.300   4.133 -0.3000 -0.0232  0.4237
52512SOL    HW164651   7.048   5.289   4.162 -0.3980 -0.3465  0.0031
52512SOL    HW264652   7.140   5.386   4.091 -0.3525  0.0856  0.6410
52513SOL     OW64653   8.255   1.283   6.990 -0.2516 -0.2441 -0.1414
52513SOL    HW164654   8.325   1.316   6.933  0.2068 -0.0606  0.5132
52513SOL    HW264655   8.174   1.306   6.944  0.0305  1.8873  0.2924
52514SOL     OW64656   8.995  12.917   6.953  0.2825 -0.5862 -0.3346
52514SOL    HW164657   8.984  12.976   6.879 -0.5995  0.5887  0.6986
52514SOL    HW264658   8.927  12.851   6.942 -0.5898  0.2363  0.0147
52515SOL     OW64659   1.959   4.743   5.841 -0.1330  0.4012  0.4239
52515SOL    HW164660   1.934   4.669   5.786 -0.6073  0.1650  0.9515
52515SOL    HW264661   2.018   4.795   5.786  0.4679 -0.5323  0.1616
52516SOL     OW64662   9.881   8.793   9.445  0.3765  0.6859 -0.0221
52516SOL    HW164663   9.906   8.883   9.467  1.7047  0.5915 -1.0480
52516SOL    HW264664   9.944   8.738   9.490  0.6359  0.3441 -0.7836
52517SOL     OW64665   5.233   3.792  10.854 -0.1974 -0.1059 -0.1034
52517SOL    HW164666   5.180   3.850  10.909  1.7525  0.7603  0.9767
52517SOL    HW264667   5.312   3.842  10.836 -0.0927 -0.9766 -2.4689
52518SOL     OW64668  10.466   6.938   4.764  0.1187 -0.6297 -0.1848
52518SOL    HW164669  10.551   6.958   4.725  0.7673 -0.4644  1.2474
52518SOL    HW264670  10.429   6.871   4.707  1.5918 -1.3355 -0.3735
52519SOL     OW64671   0.307  12.510   5.887  0.2564  0.0093  0.5671
52519SOL    HW164672   0.288  12.599   5.915  0.1225  0.0394  0.3769
52519SOL    HW264673   0.251  12.454   5.941  0.2310  0.0477  0.5795
52520SOL     OW64674   9.448   4.247   3.039  0.3554  0.0415 -0.0899
52520SOL    HW164675   9.449   4.245   3.135  0.9946  0.4016 -0.0789
52520SOL    HW264676   9.436   4.156   3.013  0.8522 -0.1532  0.3352
52521SOL     OW64677  11.688   5.483   7.431  0.0648  0.4087 -0.0811
52521SOL    HW164678  11.705   5.424   7.504  0.6902 -1.0292 -1.3427
52521SOL    HW264679  11.608   5.449   7.391 -0.3591  1.2815 -0.0108
52522SOL     OW64680   9.470   2.333   2.287 -0.7274  0.1253  0.3850
52522SOL    HW164681   9.475   2.281   2.367  0.6942  0.9694  0.8823
52522SOL    HW264682   9.560   2.338   2.256 -0.9979  1.3096 -0.2911
52523SOL     OW64683   8.143   0.898   6.569 -0.8640 -0.5523  0.2326
52523SOL    HW164684   8.079   0.834   6.601  0.1771 -1.3367  0.8330
52523SOL    HW264685   8.214   0.844   6.534 -0.7315  0.2987 -0.8616
52524SOL     OW64686   3.252   5.771  12.462  0.2509 -0.1455 -0.4331
52524SOL    HW164687   3.310   5.707  12.502  1.0360  0.0514 -1.2232
52524SOL    HW264688   3.309   5.846  12.442 -0.2047 -0.0641 -1.4972
52525SOL     OW64689   8.317   3.933   4.522  0.2352 -0.9037  0.1195
52525SOL    HW164690   8.412   3.926   4.522  0.3397  0.3195 -0.4064
52525SOL    HW264691   8.298   4.005   4.463 -0.9290 -0.0517  1.4551
52526SOL     OW64692   9.722   9.247   2.687  0.4604 -0.4844  0.1337
52526SOL    HW164693   9.761   9.200   2.614 -2.2775 -3.8287  0.5567
52526SOL    HW264694   9.747   9.197   2.764 -2.2352 -1.2115  0.6533
52527SOL     OW64695   7.175  10.695  10.181 -0.3957 -0.0787  0.1350
52527SOL    HW164696   7.102  10.653  10.226 -0.3035 -1.4647 -0.9476
52527SOL    HW264697   7.149  10.787  10.172 -1.7620 -0.4451  0.2572
52528SOL     OW64698   7.864   3.719  11.331 -0.0659  0.2249  0.3715
52528SOL    HW164699   7.955   3.744  11.346  0.5168 -2.0405  1.0515
52528SOL    HW264700   7.834   3.775  11.260  2.0834  0.5438 -0.3339
52529SOL     OW64701   1.514   8.367   7.109 -0.2324  0.3862  0.0003
52529SOL    HW164702   1.497   8.280   7.146  0.3105  0.3195  0.0939
52529SOL    HW264703   1.607   8.367   7.088 -0.0659  1.2179  0.7008
52530SOL     OW64704  10.239   6.230  11.505 -0.1321  0.1690 -0.0477
52530SOL    HW164705  10.229   6.136  11.491  0.6595  0.4128 -2.6734
52530SOL    HW264706  10.240   6.239  11.600 -0.5399 -2.4214  0.2918
52531SOL     OW64707   9.223  12.591   4.666 -0.0177 -0.0279 -0.8014
52531SOL    HW164708   9.291  12.536   4.629  2.1359  1.7341  0.3111
52531SOL    HW264709   9.165  12.531   4.713  1.5113 -1.4494 -0.6689
52532SOL     OW64710   0.217  11.987   7.550  0.0531 -0.8375  0.1476
52532SOL    HW164711   0.305  11.968   7.517  0.3882  0.2210  0.4229
52532SOL    HW264712   0.187  11.903   7.587  0.9113 -1.2179 -0.0007
52533SOL     OW64713   2.762   6.014  12.815  0.6640 -0.3175  0.1432
52533SOL    HW164714   2.688   5.968  12.854  0.3208 -0.1101 -0.2522
52533SOL    HW264715   2.838   5.985  12.866  0.4125 -1.0925  0.0940
52534SOL     OW64716   2.980   3.708   1.795  0.5018  0.3553  0.9806
52534SOL    HW164717   2.976   3.788   1.743  1.2439  0.0565  0.4435
52534SOL    HW264718   3.061   3.665   1.767 -0.2785 -0.9851  0.6684
52535SOL     OW64719   8.377  12.397   7.367  0.4195 -0.1709  0.0062
52535SOL    HW164720   8.409  12.327   7.424  1.4132 -0.3578 -0.7558
52535SOL    HW264721   8.283  12.403   7.386  1.1384  1.8288  3.8891
52536SOL     OW64722   4.361   3.577   2.332 -0.5746  0.3836  0.0512
52536SOL    HW164723   4.325   3.525   2.260 -0.2288  1.3963 -0.8842
52536SOL    HW264724   4.343   3.525   2.410  1.8958 -2.3639 -0.9940
52537SOL     OW64725  12.488   7.946   4.838 -0.0965 -0.5214  0.2682
52537SOL    HW164726  12.398   7.972   4.860 -0.8259 -0.2999 -2.6029
52537SOL    HW264727  12.481   7.907   4.751  2.3831 -2.0545  0.6686
52538SOL     OW64728  12.261   4.634   6.396 -0.1730  0.3492 -0.2521
52538SOL    HW164729  12.337   4.675   6.436  0.7697  0.7976 -2.3722
52538SOL    HW264730  12.186   4.673   6.441  0.7467  3.0062 -0.8417
52539SOL     OW64731   8.268   3.410   3.617  0.7377 -0.3466 -0.4009
52539SOL    HW164732   8.343   3.463   3.643 -0.1076 -0.2054  2.0569
52539SOL    HW264733   8.219   3.466   3.557  1.0973  0.7459  0.2911
52540SOL     OW64734   6.182   5.270   1.098  0.6296 -0.8001 -0.0726
52540SOL    HW164735   6.242   5.306   1.033 -1.7522 -1.6675 -2.9789
52540SOL    HW264736   6.161   5.344   1.155  2.2398  0.1997 -0.7116
52541SOL     OW64737   8.151   2.245   4.321  0.5333  0.0980 -0.5522
52541SOL    HW164738   8.240   2.274   4.342 -0.0701  1.6839  0.0107
52541SOL    HW264739   8.137   2.273   4.231  0.8714 -0.8565 -0.9037
52542SOL     OW64740   8.381  11.604  11.993  0.0401  0.0237 -0.8697
52542SOL    HW164741   8.341  11.636  12.074  0.2981  1.2941 -1.2181
52542SOL    HW264742   8.415  11.518  12.015 -0.7163 -0.0420  0.1104
52543SOL     OW64743   0.052   8.776   5.856  0.4211  0.4519 -0.6560
52543SOL    HW164744   0.125   8.762   5.918  0.6655  1.3757 -0.7228
52543SOL    HW264745   0.074   8.720   5.781  0.7940  0.3178 -0.4535
52544SOL     OW64746   0.092   2.078   0.497  0.4399  0.6218  0.1437
52544SOL    HW164747   0.175   2.084   0.449  0.4398 -1.1477 -0.1344
52544SOL    HW264748   0.080   2.165   0.534  1.5197  1.4405 -1.3022
52545SOL     OW64749   6.112  11.625  11.773  0.6908 -0.3862 -0.0261
52545SOL    HW164750   6.192  11.674  11.794  0.6915  0.1320 -1.1746
52545SOL    HW264751   6.041  11.682  11.804  0.7096  0.1603 -0.9300
52546SOL     OW64752   5.202  10.555   5.448  0.0034  0.0419  0.4766
52546SOL    HW164753   5.183  10.463   5.467  0.5326 -0.3210 -0.6538
52546SOL    HW264754   5.151  10.604   5.512 -1.4731 -1.0094  0.1490
52547SOL     OW64755   4.343   8.745  10.888  0.5863  0.5308  0.4260
52547SOL    HW164756   4.338   8.799  10.967 -0.0273  0.3183  0.5356
52547SOL    HW264757   4.380   8.804  10.822  1.3271  0.6427  0.9221
52548SOL     OW64758   1.821   4.594   8.815  0.3763  0.0822 -0.1395
52548SOL    HW164759   1.896   4.644   8.783  0.1621 -0.0207 -0.8151
52548SOL    HW264760   1.853   4.550   8.894  1.3399 -0.7484 -0.9572
52549SOL     OW64761  11.050   5.286   0.018  0.2969  0.3675  0.5394
52549SOL    HW164762  11.073   5.373  -0.015 -0.5857 -0.2544 -1.8959
52549SOL    HW264763  11.119   5.229  -0.016  0.3528 -0.0431  1.3282
52550SOL     OW64764   9.809   7.945  11.559 -0.2465 -0.1875 -0.3253
52550SOL    HW164765   9.777   7.855  11.546  1.3262 -1.1611  1.8409
52550SOL    HW264766   9.744   7.985  11.618 -0.6437 -0.0823 -0.8276
52551SOL     OW64767   4.051   3.676  10.732  0.5884  0.2021  0.4501
52551SOL    HW164768   3.998   3.638  10.802  0.2317  0.6397  0.4198
52551SOL    HW264769   3.991   3.688  10.660  0.8434  0.2357  0.2420
52552SOL     OW64770  12.383  10.175  12.704 -0.0833  0.3137 -0.2536
52552SOL    HW164771  12.429  10.106  12.752 -0.4337  0.8474  0.8800
52552SOL    HW264772  12.301  10.134  12.676  0.1700 -0.0329 -0.4901
52553SOL     OW64773   8.663   4.236   7.215 -0.2704  0.1726 -0.1666
52553SOL    HW164774   8.677   4.148   7.250 -1.8148  0.1654  0.4802
52553SOL    HW264775   8.578   4.232   7.172 -0.5345  1.4358  0.1917
52554SOL     OW64776   5.141   1.061   7.580 -0.0802 -0.1622  0.3679
52554SOL    HW164777   5.208   1.034   7.643  0.2487  0.0313  0.1078
52554SOL    HW264778   5.100   0.980   7.551  0.7493 -0.3784 -0.2490
52555SOL     OW64779   1.839  12.590   0.016 -0.2215 -0.2597  0.4200
52555SOL    HW164780   1.762  12.571  -0.038 -0.8071 -1.7314  1.6989
52555SOL    HW264781   1.900  12.518  -0.002  0.0583 -0.1299  0.8195
52556SOL     OW64782  12.024   3.953   0.178  0.1997  0.4860 -0.5838
52556SOL    HW164783  12.077   4.000   0.113 -0.9362  2.3962 -0.1772
52556SOL    HW264784  12.063   3.975   0.262 -1.5042  2.3766 -0.2288
52557SOL     OW64785   3.381   2.757   4.015  0.2203 -0.0653  0.4769
52557SOL    HW164786   3.436   2.804   3.952 -2.5538  0.2603 -1.9229
52557SOL    HW264787   3.408   2.665   4.006 -1.1852 -0.2801 -2.5572
52558SOL     OW64788   1.165   2.434   5.736  0.2126 -0.4651 -0.1457
52558SOL    HW164789   1.115   2.498   5.787  0.6222  0.5630 -1.0039
52558SOL    HW264790   1.131   2.349   5.765 -0.5142  0.1339  0.8378
52559SOL     OW64791   4.828   3.652   1.357  0.4238 -0.0333 -0.3099
52559SOL    HW164792   4.767   3.589   1.396  1.2245  0.4742  1.8930
52559SOL    HW264793   4.890   3.672   1.427  0.4710  2.8949 -1.0812
52560SOL     OW64794   8.822   4.451   8.614 -0.1547  0.0615  0.4031
52560SOL    HW164795   8.728   4.444   8.627 -0.1602 -0.4357  0.1248
52560SOL    HW264796   8.839   4.545   8.611 -0.6260  0.1537  0.5652
52561SOL     OW64797   8.303   0.778   5.465 -0.4535 -0.2842 -0.0215
52561SOL    HW164798   8.365   0.734   5.408 -1.2535 -1.0779 -0.2871
52561SOL    HW264799   8.259   0.842   5.409  2.4335  2.7994  0.8541
52562SOL     OW64800   0.437  10.937   8.774 -0.0562 -0.9903  0.5524
52562SOL    HW164801   0.357  10.986   8.793 -0.8724 -1.9280 -0.3393
52562SOL    HW264802   0.434  10.862   8.832 -0.4288 -1.6360 -0.2782
52563SOL     OW64803   7.436  11.971   6.939 -0.1976  0.3929  0.3222
52563SOL    HW164804   7.343  11.946   6.940 -0.0290 -0.3164 -0.7175
52563SOL    HW264805   7.481  11.898   6.981  0.0082  0.1803 -0.2567
52564SOL     OW64806  10.632  10.103   2.085  0.2960 -0.6485  0.0689
52564SOL    HW164807  10.561  10.045   2.061 -2.0665  1.7981  0.6905
52564SOL    HW264808  10.648  10.086   2.178 -1.0414  0.2544  0.4942
52565SOL     OW64809  11.473  10.342   1.824 -0.2534 -0.4894 -0.2853
52565SOL    HW164810  11.515  10.258   1.807  1.7516  0.4534 -0.2881
52565SOL    HW264811  11.500  10.365   1.913 -0.2741  0.4095 -0.5010
52566SOL     OW64812  10.294   9.686   0.635 -0.0896 -0.2221 -0.0151
52566SOL    HW164813  10.217   9.703   0.689  0.8010 -0.7013  1.4514
52566SOL    HW264814  10.268   9.612   0.579 -1.0273  0.2798 -0.2600
52567SOL     OW64815   3.740   9.099  10.192 -0.3457  0.3519 -0.3758
52567SOL    HW164816   3.716   9.180  10.147 -1.4404  1.0509  1.3546
52567SOL    HW264817   3.825   9.117  10.231  0.6005 -0.2522 -2.0660
52568SOL     OW64818   2.362  11.205   4.469 -0.2160  0.2725 -0.0767
52568SOL    HW164819   2.435  11.225   4.410  0.1262 -0.3164  0.1302
52568SOL    HW264820   2.346  11.111   4.455 -1.0398  0.4261 -0.2275
52569SOL     OW64821   8.067  10.726   7.394 -0.1387  0.0451 -0.1323
52569SOL    HW164822   7.979  10.733   7.356 -0.5240 -0.2685  0.6745
52569SOL    HW264823   8.105  10.813   7.384 -0.1725 -0.0618 -1.3484
52570SOL     OW64824   2.862  12.658   4.101  0.0195  0.2716  0.1872
52570SOL    HW164825   2.803  12.593   4.140  1.6460 -1.4423 -0.0797
52570SOL    HW264826   2.927  12.676   4.169 -0.6575  1.9945  0.4109
52571SOL     OW64827   8.778   8.088   3.746  0.2509 -0.3141 -0.4670
52571SOL    HW164828   8.767   7.999   3.778 -0.1737  0.5453  2.0257
52571SOL    HW264829   8.870   8.109   3.762 -0.1295  0.3660  0.9864
52572SOL     OW64830   7.450   7.692   4.019 -0.3742 -0.1686  0.1759
52572SOL    HW164831   7.540   7.662   4.006  0.0062  0.1513  1.8300
52572SOL    HW264832   7.458   7.764   4.081 -1.8732 -0.9176  1.2899
52573SOL     OW64833  10.270   6.068   0.803 -0.3905  0.2044  0.1964
52573SOL    HW164834  10.208   6.115   0.858 -0.4622  0.1518  0.1615
52573SOL    HW264835  10.215   6.017   0.743 -0.3180 -0.1224  0.4042
52574SOL     OW64836   9.034   6.044   3.539  0.0237  0.0614  0.0952
52574SOL    HW164837   9.120   6.013   3.567  1.0714 -1.9751 -4.4173
52574SOL    HW264838   9.044   6.139   3.532  2.6584 -0.2293 -1.9122
52575SOL     OW64839   5.468   3.133   2.988  0.3349  0.2544 -0.0568
52575SOL    HW164840   5.464   3.077   3.066  0.9617  0.9327  0.4674
52575SOL    HW264841   5.413   3.087   2.924  0.3995 -0.6881  0.5353
52576SOL     OW64842   2.449  12.571   4.602  0.3761 -0.5719  0.0312
52576SOL    HW164843   2.373  12.515   4.621  0.5624 -0.6998  0.3950
52576SOL    HW264844   2.481  12.599   4.687  1.0921 -0.9963 -0.0921
52577SOL     OW64845  11.376   4.005   0.474  0.4888 -0.7272 -0.2404
52577SOL    HW164846  11.454   4.030   0.423  0.7568 -0.1544  0.4371
52577SOL    HW264847  11.313   3.975   0.408  0.4832  0.8817 -1.0089
52578SOL     OW64848   1.952   5.697   2.485 -0.0338  0.0554 -0.2446
52578SOL    HW164849   2.023   5.635   2.501 -0.3465 -0.1283  0.4508
52578SOL    HW264850   1.919   5.674   2.398  1.2284  0.6111 -0.9070
52579SOL     OW64851   3.889   6.571   3.627  0.8014  0.3431  0.5749
52579SOL    HW164852   3.964   6.610   3.672 -0.5012  3.0798  0.5654
52579SOL    HW264853   3.813   6.602   3.674 -0.4487 -2.9381  1.0091
52580SOL     OW64854   2.326   0.677  10.987 -0.0348 -0.2919 -0.0635
52580SOL    HW164855   2.238   0.712  10.998 -0.5606 -1.8871  1.1403
52580SOL    HW264856   2.348   0.697  10.896 -1.9198 -0.4600 -0.6002
52581SOL     OW64857   1.494   6.128  12.228 -0.2220 -0.5557 -0.6013
52581SOL    HW164858   1.569   6.082  12.267 -0.5352 -0.6635 -0.1159
52581SOL    HW264859   1.419   6.073  12.250 -0.5968  0.1561 -0.0730
52582SOL     OW64860   9.359   2.953   7.025 -0.4676 -0.0746  0.1776
52582SOL    HW164861   9.419   2.966   6.952 -0.5950 -0.9808 -0.1032
52582SOL    HW264862   9.273   2.975   6.990 -0.5792 -0.8793 -0.0628
52583SOL     OW64863   9.332   4.077   7.818 -0.4479  0.5477  0.1428
52583SOL    HW164864   9.275   4.140   7.775 -0.1309  0.7637  0.0320
52583SOL    HW264865   9.421   4.108   7.799 -0.1895 -1.2614 -1.9606
52584SOL     OW64866   5.291  10.813   9.094  0.2807  0.2894  0.2174
52584SOL    HW164867   5.386  10.807   9.105  0.3506  0.6683 -0.1431
52584SOL    HW264868   5.271  10.750   9.025  0.1788 -0.2689  0.7503
52585SOL     OW64869  12.683   2.925  10.478 -0.1509  0.1315  0.3560
52585SOL    HW164870  12.636   2.940  10.396 -0.9676  1.9851  1.1094
52585SOL    HW264871  12.755   2.989  10.476 -0.1616  0.1719  1.0517
52586SOL     OW64872  10.273   0.306  10.731 -0.0805 -0.2592  0.2040
52586SOL    HW164873  10.315   0.392  10.732  1.9255 -1.1801  0.5228
52586SOL    HW264874  10.213   0.307  10.806  0.4785  0.6105  0.6557
52587SOL     OW64875   3.573  12.156   0.628  0.3858  0.0133  0.4617
52587SOL    HW164876   3.571  12.079   0.572  1.7254 -0.6695  1.2954
52587SOL    HW264877   3.515  12.134   0.701 -0.8642  0.6517 -0.3133
52588SOL     OW64878  10.664   4.796   3.785 -0.2402 -0.6349 -0.2497
52588SOL    HW164879  10.644   4.710   3.749 -1.0442  0.0138 -1.4048
52588SOL    HW264880  10.582   4.825   3.825  0.3403 -0.8764  1.2091
52589SOL     OW64881   5.377   6.100   8.037 -0.1298 -0.4713 -0.0940
52589SOL    HW164882   5.288   6.067   8.031 -0.1338 -0.6698  0.9252
52589SOL    HW264883   5.428   6.024   8.066  0.0402  0.1330  1.2299
52590SOL     OW64884   7.753   9.785   2.184 -0.1802  0.5310  0.5155
52590SOL    HW164885   7.701   9.860   2.154  0.8239  0.5881 -1.2167
52590SOL    HW264886   7.799   9.755   2.105 -0.2717 -1.6842  1.2561
52591SOL     OW64887  11.021   7.032   9.853  0.1583  0.1931 -0.0615
52591SOL    HW164888  11.082   7.068   9.917 -0.2940  1.8698 -0.5346
52591SOL    HW264889  10.990   6.950   9.893  1.2012  0.3158  1.0548
52592SOL     OW64890   8.831   4.443   7.248  0.2870 -0.6957  0.4638
52592SOL    HW164891   8.790   4.509   7.304 -0.8454 -1.6406  0.7991
52592SOL    HW264892   8.765   4.374   7.241  0.8677 -1.1365 -1.0661
52593SOL     OW64893   1.237  10.100  10.104 -0.0947  0.0681 -0.6507
52593SOL    HW164894   1.163  10.059  10.149  0.4624 -1.2820 -0.9323
52593SOL    HW264895   1.301  10.117  10.173 -0.1982  0.1912 -0.5838
52594SOL     OW64896   3.917   9.000   9.760 -0.1251 -0.5478 -0.5713
52594SOL    HW164897   3.848   9.063   9.740  1.0114  2.4549  3.5686
52594SOL    HW264898   3.984   9.015   9.693 -0.1345  2.4368 -0.0490
52595SOL     OW64899   0.320   9.735  11.900  0.0082  0.4165  0.1484
52595SOL    HW164900   0.387   9.705  11.840 -0.2570  0.0537  0.0286
52595SOL    HW264901   0.323   9.830  11.895 -0.8831  0.3881 -1.4349
52596SOL     OW64902   0.926   3.113   1.226  0.1221 -0.1145 -0.0784
52596SOL    HW164903   0.938   3.026   1.264  0.5264 -0.5596 -1.1865
52596SOL    HW264904   0.831   3.124   1.222  0.0693 -0.4104  0.2664
52597SOL     OW64905  11.843   0.975   0.906 -0.3621  0.6947 -0.2486
52597SOL    HW164906  11.855   0.896   0.854 -1.1013  1.1993 -1.2075
52597SOL    HW264907  11.764   0.958   0.958 -0.1444  0.5511  0.0381
52598SOL     OW64908   2.830   3.550   7.064 -0.0161 -0.3746  0.1272
52598SOL    HW164909   2.843   3.640   7.032 -1.3374 -0.3956 -0.5451
52598SOL    HW264910   2.899   3.499   7.021 -1.2695 -0.2560 -2.2086
52599SOL     OW64911  11.489   0.937   5.785  0.0786  0.2927  0.3860
52599SOL    HW164912  11.463   0.876   5.716  0.5282  0.4226  0.0944
52599SOL    HW264913  11.564   0.984   5.748  0.1603  0.5457  0.8653
52600SOL     OW64914   9.232   4.596   7.168  0.6003  0.3453  0.4464
52600SOL    HW164915   9.184   4.576   7.247 -0.2459  0.2523 -0.0840
52600SOL    HW264916   9.185   4.550   7.098  0.8959  1.0159 -0.2138
52601SOL     OW64917   1.628  12.561   5.256  0.2476  0.0825  0.3339
52601SOL    HW164918   1.677  12.497   5.204  1.5328  0.1491  1.4050
52601SOL    HW264919   1.580  12.613   5.191  0.9780 -0.4979 -0.7050
52602SOL     OW64920  10.992   7.092   8.707  0.4810  0.3548 -0.8153
52602SOL    HW164921  11.037   7.015   8.674 -0.6995  0.1147 -1.9402
52602SOL    HW264922  11.032   7.108   8.792  1.0564 -1.2306 -0.7490
52603SOL     OW64923   3.514   1.234  12.335 -0.2751  0.0170 -0.1925
52603SOL    HW164924   3.591   1.260  12.385  0.4649 -1.5771 -0.4408
52603SOL    HW264925   3.530   1.269  12.247  1.3711 -2.3051 -0.8940
52604SOL     OW64926   4.447   8.602  11.248 -0.3879  0.2310 -0.1901
52604SOL    HW164927   4.537   8.611  11.278 -0.1959  0.3780 -0.7838
52604SOL    HW264928   4.447   8.523  11.194 -0.1302  1.2909 -1.8239
52605SOL     OW64929   7.819   4.056   7.339 -0.0511  0.2409  0.2136
52605SOL    HW164930   7.896   4.084   7.289 -0.2157  2.0704  0.9027
52605SOL    HW264931   7.820   4.111   7.417 -3.8452  2.8343 -1.2681
52606SOL     OW64932  10.341   1.767   1.995  0.6155  0.2801 -0.0308
52606SOL    HW164933  10.427   1.727   1.998  0.1437 -0.6711  1.5905
52606SOL    HW264934  10.341   1.816   1.912  2.1214 -0.9669 -0.8274
52607SOL     OW64935   1.168  10.035  12.934  0.4155 -0.5761  0.0552
52607SOL    HW164936   1.172   9.985  13.015  1.2891  0.5190  0.7214
52607SOL    HW264937   1.260  10.048  12.909  0.3549  2.3385  1.0017
52608SOL     OW64938   3.114   6.098   1.789 -0.2562  0.3245  0.1514
52608SOL    HW164939   3.049   6.068   1.725 -0.8533  2.2374 -0.2042
52608SOL    HW264940   3.117   6.193   1.777  2.1274  0.3777  0.6333
52609SOL     OW64941   4.519   9.301   1.129 -0.0747  0.0730  0.2151
52609SOL    HW164942   4.504   9.212   1.163  1.1416  0.1417  0.9870
52609SOL    HW264943   4.434   9.345   1.139 -0.1365 -0.3413  1.8941
52610SOL     OW64944  12.398   9.949  11.785 -0.2941 -0.1127 -0.1571
52610SOL    HW164945  12.330   9.902  11.738 -0.4233  1.6342 -1.8470
52610SOL    HW264946  12.353  10.024  11.824  0.5570  0.9288 -1.0904
52611SOL     OW64947  11.754   7.080  10.465  0.0566  0.2299 -0.0108
52611SOL    HW164948  11.682   7.140  10.445  0.6428  0.7973 -0.4302
52611SOL    HW264949  11.788   7.112  10.549 -0.2864 -0.1550  0.2845
52612SOL     OW64950   3.272   5.254   8.297  0.0181 -0.1937 -0.0414
52612SOL    HW164951   3.259   5.195   8.371  0.6883  1.1732  1.2426
52612SOL    HW264952   3.194   5.242   8.242 -0.8619 -0.7133  1.2737
52613SOL     OW64953  10.170  10.153   3.120  0.5786 -0.3687 -0.6587
52613SOL    HW164954  10.228  10.227   3.137 -1.2270  0.9066  0.2886
52613SOL    HW264955  10.169  10.104   3.201  0.5628 -0.5604 -0.7741
52614SOL     OW64956   5.642  11.632   3.066 -0.0727  0.5531  0.1673
52614SOL    HW164957   5.547  11.621   3.072 -0.0460  0.7626  1.0948
52614SOL    HW264958   5.677  11.580   3.138  0.5820 -0.1876 -0.6624
52615SOL     OW64959   8.623   1.433   9.361  0.0753  0.3119  0.6388
52615SOL    HW164960   8.661   1.385   9.435  0.7228  1.4767  1.0964
52615SOL    HW264961   8.661   1.521   9.368  0.6605  0.2667 -1.4596
52616SOL     OW64962   9.735   0.869   4.597  0.2251  0.9606  0.3780
52616SOL    HW164963   9.783   0.788   4.579  0.2979  1.3884 -1.5801
52616SOL    HW264964   9.645   0.840   4.612 -0.4892  0.6180 -3.5171
52617SOL     OW64965  11.775   9.032   7.513  0.0501 -0.2325 -0.1460
52617SOL    HW164966  11.788   9.071   7.600 -2.1077 -0.0639  0.1456
52617SOL    HW264967  11.699   8.975   7.523 -0.5540  0.1682 -2.0405
52618SOL     OW64968   1.993  10.410   4.348 -0.5442  0.2966  0.4368
52618SOL    HW164969   2.068  10.357   4.375 -0.0162  1.5871  1.6633
52618SOL    HW264970   2.032  10.484   4.302 -1.1256  0.5604  0.3599
52619SOL     OW64971  11.595  11.592  12.343  0.0600 -0.2819  0.0042
52619SOL    HW164972  11.670  11.566  12.396  1.2873 -1.4553 -2.1790
52619SOL    HW264973  11.568  11.511  12.299 -0.0910  0.8523 -2.1044
52620SOL     OW64974  12.380  10.101   2.364  0.2228  0.1596  0.2438
52620SOL    HW164975  12.334  10.186   2.364  0.2962  0.2008 -0.2437
52620SOL    HW264976  12.311  10.037   2.381  0.0889  0.2780  0.1513
52621SOL     OW64977  12.106  10.577  11.164 -0.2847  0.2161 -0.6900
52621SOL    HW164978  12.148  10.661  11.144  0.3095 -0.6240 -3.2741
52621SOL    HW264979  12.166  10.511  11.130 -0.1533 -1.4053  2.3230
52622SOL     OW64980   2.773   3.618   4.938 -0.5450 -0.1115  0.2858
52622SOL    HW164981   2.756   3.712   4.950 -2.2299 -0.5489  1.8402
52622SOL    HW264982   2.795   3.610   4.845  0.0173  1.8569  0.1940
52623SOL     OW64983  12.840   6.652   7.724  0.5235 -0.0674  0.0043
52623SOL    HW164984  12.754   6.656   7.682  0.3180  0.1853  0.4476
52623SOL    HW264985  12.847   6.733   7.774  1.9301  0.9657 -1.7334
52624SOL     OW64986   3.904   5.101   7.637 -0.3888  0.1607 -0.2986
52624SOL    HW164987   3.977   5.163   7.643 -0.3209 -0.0583  2.8247
52624SOL    HW264988   3.944   5.016   7.653 -1.0949 -0.1374 -0.0712
52625SOL     OW64989   4.653   0.225  11.890 -0.7125  0.0184  0.2448
52625SOL    HW164990   4.636   0.132  11.880 -0.0217 -0.0645 -0.2534
52625SOL    HW264991   4.663   0.258  11.801  0.8085  0.2105  0.4432
52626SOL     OW64992   4.085   6.525   9.233  0.1351 -0.2847  0.0429
52626SOL    HW164993   4.011   6.533   9.293 -1.2104  2.3797 -1.7581
52626SOL    HW264994   4.089   6.432   9.211  0.5375 -1.3439  3.9011
52627SOL     OW64995   7.184   7.819  10.678 -0.2975 -0.2265  0.1914
52627SOL    HW164996   7.134   7.776  10.608  0.5666 -2.8694  1.0906
52627SOL    HW264997   7.117   7.848  10.740 -0.8738 -2.6077  0.7823
52628SOL     OW64998   4.015   9.365   3.309  0.5142 -0.5169 -0.2500
52628SOL    HW164999   4.022   9.338   3.217 -1.4467 -0.5912 -0.4216
52628SOL    HW265000   4.024   9.460   3.307  1.9173 -0.6243 -0.3085
52629SOL     OW65001  11.143   9.529   7.081 -0.0998  0.3199  0.4150
52629SOL    HW165002  11.130   9.537   6.987  0.2631 -0.4335  0.2936
52629SOL    HW265003  11.173   9.616   7.108  0.2403  0.4152 -0.2379
52630SOL     OW65004  10.804   0.833   1.792  0.4657 -0.2642 -0.0655
52630SOL    HW165005  10.784   0.914   1.839 -0.6036  0.1097 -1.1246
52630SOL    HW265006  10.888   0.850   1.749  0.9283 -0.2322  0.8417
52631SOL     OW65007  11.540   1.297   5.999  0.2896 -0.0450 -0.0246
52631SOL    HW165008  11.622   1.338   6.029 -0.4199  0.7842  0.8389
52631SOL    HW265009  11.547   1.298   5.903  1.7334 -0.9207  0.0360
52632SOL     OW65010   1.852   1.567   3.485  0.2423  0.2879 -0.4233
52632SOL    HW165011   1.761   1.557   3.511  0.2638 -2.2220 -1.0853
52632SOL    HW265012   1.853   1.551   3.391  1.6297 -2.4456 -0.0527
52633SOL     OW65013   7.044   2.466   1.155 -0.3736 -0.9880 -0.0981
52633SOL    HW165014   6.981   2.538   1.153 -0.1367 -0.7762  0.1037
52633SOL    HW265015   6.990   2.387   1.164 -0.5729 -0.7561  0.8085
52634SOL     OW65016  10.067   7.762   3.183 -0.2157 -0.4217  0.4450
52634SOL    HW165017  10.073   7.853   3.153 -0.6929 -0.3536  0.5412
52634SOL    HW265018  10.057   7.711   3.102  3.0162 -0.7258  0.1098
52635SOL     OW65019   7.575   8.941  12.770 -0.6913 -0.1284  0.2663
52635SOL    HW165020   7.536   8.939  12.857 -0.6494  0.3114  0.2980
52635SOL    HW265021   7.633   8.865  12.767 -1.4209 -0.6915  0.2784
52636SOL     OW65022  12.609  11.884   2.006  0.4616 -0.0006  0.1974
52636SOL    HW165023  12.649  11.939   1.938 -2.2971  2.3595  0.3076
52636SOL    HW265024  12.682  11.862   2.064  2.3054  0.6499 -1.7429
52637SOL     OW65025   2.458   4.983   5.166  0.6887  0.6613 -0.4939
52637SOL    HW165026   2.394   5.054   5.162  0.9578  0.8989 -0.6763
52637SOL    HW265027   2.526   5.009   5.103 -0.2409 -0.7793 -2.1703
52638SOL     OW65028   1.363   3.618  12.728  0.0581 -0.2093 -0.2542
52638SOL    HW165029   1.372   3.621  12.632 -1.0927 -1.2275 -0.4209
52638SOL    HW265030   1.306   3.543  12.744  0.8108 -0.4718  1.2923
52639SOL     OW65031   4.252   5.935   2.015 -0.5979  0.4485  0.2221
52639SOL    HW165032   4.321   5.892   1.964 -0.4205  0.0353  0.8013
52639SOL    HW265033   4.298   5.973   2.090 -0.8125  1.3245 -0.0848
52640SOL     OW65034   5.838   4.729   7.760  0.1683 -0.6065 -0.2311
52640SOL    HW165035   5.881   4.803   7.803  2.4943 -0.9270 -1.7743
52640SOL    HW265036   5.757   4.715   7.809  2.0464 -0.2828  3.2819
52641SOL     OW65037   4.327   0.696  12.606  0.0281  0.0188 -0.1221
52641SOL    HW165038   4.270   0.772  12.611 -0.5060 -0.2433 -1.6949
52641SOL    HW265039   4.269   0.621  12.615  0.5454 -0.2391  1.3833
52642SOL     OW65040  10.918   3.127   6.217 -0.0456 -0.1174 -0.2825
52642SOL    HW165041  10.909   3.032   6.210 -0.2343 -0.1658  0.4871
52642SOL    HW265042  10.983   3.140   6.286 -2.1129  0.3100  1.7019
52643SOL     OW65043  12.802   0.568   2.663 -0.3243  0.0929 -0.3451
52643SOL    HW165044  12.733   0.505   2.640  0.0040  0.5000 -2.6651
52643SOL    HW265045  12.880   0.514   2.675 -0.6514 -0.1986  0.5513
52644SOL     OW65046   2.613   7.292   1.020 -0.1291 -0.0689 -0.2523
52644SOL    HW165047   2.583   7.366   1.074 -1.0043  0.7255 -1.7381
52644SOL    HW265048   2.704   7.279   1.046 -0.1429  1.1313  0.4907
52645SOL     OW65049   0.737   6.757   4.867  0.5671  0.0252  0.8465
52645SOL    HW165050   0.720   6.837   4.917  0.6838 -0.4186  1.6103
52645SOL    HW265051   0.771   6.695   4.931 -1.2836 -1.2571  0.6653
52646SOL     OW65052   0.577   8.852   4.511 -1.0020 -0.5154  0.6586
52646SOL    HW165053   0.494   8.821   4.475  0.5464 -1.3389 -2.5795
52646SOL    HW265054   0.575   8.947   4.499 -0.3450 -0.7730 -2.5166
52647SOL     OW65055   9.829   5.317   4.217 -0.1523  0.3528 -0.4381
52647SOL    HW165056   9.913   5.274   4.204  0.2548  0.6009  1.1585
52647SOL    HW265057   9.834   5.396   4.164  0.2290 -0.1175 -1.1167
52648SOL     OW65058   1.780   2.070   8.383  0.5151  0.0797 -0.2697
52648SOL    HW165059   1.692   2.091   8.413  0.3918  1.0881 -1.2359
52648SOL    HW265060   1.786   2.112   8.297  1.5399 -0.9482 -0.7242
52649SOL     OW65061  10.764   1.064   7.810  0.2126  0.2497 -0.0279
52649SOL    HW165062  10.713   1.043   7.888 -1.5651 -0.0623 -1.2251
52649SOL    HW265063  10.778   0.980   7.767 -0.3757  0.6188 -0.9571
52650SOL     OW65064   6.867   7.419   1.675  0.1762  0.8420  0.2975
52650SOL    HW165065   6.840   7.455   1.759 -0.8850 -0.0888  0.3790
52650SOL    HW265066   6.787   7.412   1.624 -0.0749 -2.9195  0.9065
52651SOL     OW65067   7.243   5.273  10.955 -0.4072 -0.2445 -0.1613
52651SOL    HW165068   7.175   5.253  10.891 -1.8646  2.7259  0.2703
52651SOL    HW265069   7.265   5.188  10.994 -1.6258 -1.7092 -2.4569
52652SOL     OW65070   4.226   3.252  10.027  0.0525  0.2339 -0.0825
52652SOL    HW165071   4.215   3.243  10.122  1.4436 -0.7508  0.0154
52652SOL    HW265072   4.208   3.165   9.992  0.6729  0.2988 -0.5896
52653SOL     OW65073   5.918  11.794   1.444 -0.5221 -0.5408 -0.2203
52653SOL    HW165074   5.895  11.701   1.438  0.1753 -1.0225  2.8116
52653SOL    HW265075   6.014  11.794   1.445 -0.4434  0.4813 -2.2282
52654SOL     OW65076  10.432   3.271   4.592  0.1707 -0.2190 -0.0878
52654SOL    HW165077  10.472   3.325   4.524  0.3910 -2.4620 -1.8442
52654SOL    HW265078  10.339   3.294   4.589  0.3163  0.3286 -0.5217
52655SOL     OW65079   6.298   5.311   4.325  0.3944 -0.5700 -0.8201
52655SOL    HW165080   6.305   5.334   4.417  2.2243 -1.4541 -0.7043
52655SOL    HW265081   6.300   5.395   4.278 -0.5314 -0.1210 -0.0817
52656SOL     OW65082   4.399   7.839   1.371  0.1581 -0.1335  0.4413
52656SOL    HW165083   4.434   7.768   1.424  0.7674 -0.3845 -0.2784
52656SOL    HW265084   4.305   7.819   1.362  0.6699 -2.1012 -1.5910
52657SOL     OW65085   9.315   8.313   0.288  0.2366 -0.0689  0.8972
52657SOL    HW165086   9.247   8.379   0.303 -0.0873  0.2544 -1.5594
52657SOL    HW265087   9.366   8.348   0.215  1.6196 -1.4050  1.1824
52658SOL     OW65088   9.320  10.748   1.897 -0.2604  0.4056 -0.2560
52658SOL    HW165089   9.326  10.744   1.992 -0.0270 -1.3984 -0.3142
52658SOL    HW265090   9.227  10.766   1.881 -0.3148  0.6642  0.3084
52659SOL     OW65091   1.640   9.613   9.888 -0.1474 -0.4481 -0.4902
52659SOL    HW165092   1.592   9.535   9.859  0.4697 -1.5429  1.3105
52659SOL    HW265093   1.597   9.685   9.842 -2.1990 -1.6008 -0.4961
52660SOL     OW65094   3.951  10.603   8.845 -0.0030 -0.6228  0.4889
52660SOL    HW165095   3.903  10.522   8.861  0.3088 -0.8031  0.5290
52660SOL    HW265096   3.913  10.667   8.905 -2.2207  0.0724 -1.5060
52661SOL     OW65097   7.385   9.448  11.969  0.1877 -0.3072 -0.2379
52661SOL    HW165098   7.456   9.510  11.956  0.1913 -0.3447 -0.4068
52661SOL    HW265099   7.397   9.415  12.058  0.2746 -0.1799 -0.2023
52662SOL     OW65100  10.578   9.823  10.892 -0.1597 -0.1349  0.4623
52662SOL    HW165101  10.580   9.906  10.845 -0.8578 -0.7364 -0.6879
52662SOL    HW265102  10.647   9.831  10.958  0.5965  0.8899 -0.4139
52663SOL     OW65103   4.445   9.217   8.778  0.2732  0.2389 -0.1072
52663SOL    HW165104   4.416   9.173   8.857  1.5641 -0.1618  0.1778
52663SOL    HW265105   4.437   9.151   8.709 -1.4035  0.7634 -0.4636
52664SOL     OW65106   0.097   8.927   5.074 -0.1711 -0.4194 -0.4106
52664SOL    HW165107   0.085   8.841   5.033 -0.2997 -0.3942 -0.4271
52664SOL    HW265108   0.008   8.956   5.095 -0.1032 -0.4387 -0.0983
52665SOL     OW65109   9.928   0.879  11.493  0.5997  0.3216  0.0159
52665SOL    HW165110   9.847   0.867  11.543  1.7915 -0.1287  1.9303
52665SOL    HW265111   9.959   0.966  11.518  2.1054 -0.5801  1.5168
52666SOL     OW65112   4.829   9.691   8.155 -0.3095 -0.4239 -0.2716
52666SOL    HW165113   4.752   9.747   8.170 -0.3311 -0.8707  1.5063
52666SOL    HW265114   4.861   9.671   8.243  2.3236  0.3718 -0.9760
52667SOL     OW65115  10.915   0.538   7.404 -0.5171 -0.0413  0.3556
52667SOL    HW165116  10.911   0.483   7.326  1.5420  0.0248  0.1499
52667SOL    HW265117  10.937   0.477   7.475 -1.1783  0.0829  0.6749
52668SOL     OW65118   0.337   2.336   1.048  0.2429  0.5061 -0.3467
52668SOL    HW165119   0.427   2.321   1.077  0.0663  0.7011  0.3048
52668SOL    HW265120   0.284   2.278   1.103 -0.2206  1.8139  0.6332
52669SOL     OW65121   9.467   9.310   2.539 -0.2591  0.3453  0.4595
52669SOL    HW165122   9.397   9.350   2.591 -0.8080 -1.9322  1.6057
52669SOL    HW265123   9.540   9.301   2.600  0.0812  0.2036  0.0342
52670SOL     OW65124   0.094  12.626   6.435 -0.0357 -0.1411 -0.0962
52670SOL    HW165125   0.143  12.707   6.449 -2.4849  1.4324  0.0014
52670SOL    HW265126   0.084  12.620   6.340 -1.8590  1.0330 -0.0253
52671SOL     OW65127  11.133   7.157   5.312  0.1338  0.8753 -0.3774
52671SOL    HW165128  11.142   7.235   5.257  0.0620  0.7826 -0.5221
52671SOL    HW265129  11.125   7.084   5.250  1.7379  0.5656 -0.2599
52672SOL     OW65130   0.463   6.240   6.514  0.3194  0.3850 -0.5117
52672SOL    HW165131   0.538   6.183   6.499  0.5383  0.8895 -1.4007
52672SOL    HW265132   0.413   6.237   6.432 -0.5197  0.2244 -0.0065
52673SOL     OW65133   2.160   3.042   3.813 -0.0643 -0.0685 -0.0777
52673SOL    HW165134   2.124   3.010   3.730  0.4563  0.4915 -0.5261
52673SOL    HW265135   2.240   2.990   3.825  0.4792  0.6548 -0.5199
52674SOL     OW65136   2.721   8.932   5.331  0.1558  0.3094 -0.2291
52674SOL    HW165137   2.742   9.022   5.357 -2.3407  0.8730  0.1501
52674SOL    HW265138   2.722   8.933   5.235 -0.1713  0.8398 -0.2293
52675SOL     OW65139  12.038  11.567   3.579 -0.2153  0.0507 -0.1535
52675SOL    HW165140  12.000  11.646   3.540  1.6781 -0.0310 -2.4328
52675SOL    HW265141  12.132  11.578   3.567  0.3268 -1.1090  2.4855
52676SOL     OW65142   8.621   9.182   5.267 -0.0610  0.5206  0.2729
52676SOL    HW165143   8.685   9.225   5.210 -1.4584  3.2113  0.5711
52676SOL    HW265144   8.538   9.225   5.248 -1.0191 -0.0305  2.7347
52677SOL     OW65145  11.868   0.705   4.466  0.3325 -0.5291 -0.0662
52677SOL    HW165146  11.850   0.619   4.503 -0.3439  0.1744  1.3217
52677SOL    HW265147  11.962   0.718   4.480  0.4282 -1.0085 -0.2303
52678SOL     OW65148   4.094  12.338  10.112 -0.3924  0.2155 -0.3308
52678SOL    HW165149   4.018  12.280  10.111 -0.4685  0.3197 -0.4646
52678SOL    HW265150   4.151  12.301  10.180 -0.5616  0.1394 -0.2312
52679SOL     OW65151  10.364   7.778  10.611 -0.2982 -0.4155  0.0634
52679SOL    HW165152  10.427   7.850  10.610  1.5535 -1.9702 -0.0448
52679SOL    HW265153  10.316   7.787  10.529  0.2926  0.3722 -0.2064
52680SOL     OW65154   3.415   8.920   2.404 -0.2573 -0.2135  0.2687
52680SOL    HW165155   3.345   8.860   2.429 -1.1786  1.3795  1.7198
52680SOL    HW265156   3.413   8.922   2.308 -0.3089 -2.2976  0.1714
52681SOL     OW65157   8.778   7.247  11.863 -0.1513 -0.1665 -0.2140
52681SOL    HW165158   8.848   7.270  11.803 -0.1662  0.3942 -0.0277
52681SOL    HW265159   8.822   7.217  11.942 -0.1265 -0.2994 -0.2789
52682SOL     OW65160   1.858   7.057  12.473  0.5016  0.1326 -0.3929
52682SOL    HW165161   1.765   7.077  12.471 -0.1507 -2.1007  1.9222
52682SOL    HW265162   1.869   6.986  12.410  0.3784 -0.3513  0.1176
52683SOL     OW65163   5.695   9.026  11.589  0.5563 -0.5139 -0.3971
52683SOL    HW165164   5.684   9.119  11.569  0.8193 -0.7292 -1.6503
52683SOL    HW265165   5.748   8.992  11.516 -0.3646 -1.8400 -0.4939
52684SOL     OW65166  12.724   4.605   6.588 -0.4659 -0.0142  0.7468
52684SOL    HW165167  12.790   4.602   6.519 -0.8449 -0.4830  0.3991
52684SOL    HW265168  12.744   4.531   6.645 -0.2095  0.3172  1.0873
52685SOL     OW65169  11.495   3.923   4.630 -0.1334 -0.0351 -0.0801
52685SOL    HW165170  11.511   3.860   4.559 -0.4691  0.5005 -0.6404
52685SOL    HW265171  11.546   4.000   4.607  1.5561 -0.6411  1.4198
52686SOL     OW65172   4.335   4.168   4.542  0.0783 -0.3519 -0.0343
52686SOL    HW165173   4.429   4.153   4.537  0.5081  1.6946  0.7908
52686SOL    HW265174   4.299   4.119   4.468  1.6309 -2.1182  0.3177
52687SOL     OW65175   5.017   6.203   9.092  0.3293 -0.2442 -0.1373
52687SOL    HW165176   5.034   6.110   9.077 -0.8788 -0.3400 -1.0231
52687SOL    HW265177   5.101   6.238   9.123  1.2474 -1.2921 -1.3512
52688SOL     OW65178   3.641  11.794   7.151  0.5593 -0.1302  0.2799
52688SOL    HW165179   3.630  11.875   7.102 -0.7447  1.4146  2.8901
52688SOL    HW265180   3.580  11.733   7.111 -1.1384  1.3551  0.4562
52689SOL     OW65181  10.079   2.152   5.509  0.4193 -0.1473 -0.6211
52689SOL    HW165182   9.991   2.142   5.547  1.7348 -1.3165  2.4505
52689SOL    HW265183  10.082   2.243   5.480 -2.1211 -0.3583 -1.8359
52690SOL     OW65184   1.681   6.275  12.947 -0.5947  0.1802  0.3741
52690SOL    HW165185   1.587   6.294  12.942 -0.8891 -1.0850  0.5931
52690SOL    HW265186   1.704   6.294  13.038 -0.5221  0.9583  0.1972
52691SOL     OW65187  11.547  10.786   9.458 -0.4234  0.1149 -0.0577
52691SOL    HW165188  11.516  10.834   9.535  0.4838  0.3145  0.2001
52691SOL    HW265189  11.600  10.849   9.410  0.1922 -0.4114 -0.0876
52692SOL     OW65190   1.233   6.895   3.863 -0.1786  0.0046 -0.5461
52692SOL    HW165191   1.227   6.800   3.872  0.2089  0.1189  1.1757
52692SOL    HW265192   1.144   6.926   3.881  0.0983  0.0729  0.7998
52693SOL     OW65193  10.304   8.222   7.116 -0.2209  0.2590  0.3785
52693SOL    HW165194  10.217   8.183   7.121 -0.1399 -0.2034 -1.2540
52693SOL    HW265195  10.346   8.199   7.199 -1.3555 -0.2348  0.8246
52694SOL     OW65196   6.835   5.534   1.174 -0.2435  0.1629  0.3786
52694SOL    HW165197   6.914   5.513   1.224  0.1433 -0.1389 -0.3427
52694SOL    HW265198   6.764   5.524   1.237  0.2945  0.5225  1.0659
52695SOL     OW65199   4.474   2.712   1.319  0.6456 -0.1459 -0.3116
52695SOL    HW165200   4.500   2.737   1.408  0.8309 -1.2844 -0.0188
52695SOL    HW265201   4.429   2.628   1.331 -1.5127  0.8423 -1.0290
52696SOL     OW65202   3.443   3.604   6.205 -0.1495  0.1736  0.6359
52696SOL    HW165203   3.437   3.644   6.291  0.8436 -2.1666  1.8993
52696SOL    HW265204   3.361   3.556   6.195  0.1370 -0.3520  0.7409
52697SOL     OW65205   7.211   3.023   4.958  0.3459  0.4055 -0.3177
52697SOL    HW165206   7.304   3.037   4.974  0.4914  0.7390 -1.4135
52697SOL    HW265207   7.185   3.095   4.901 -0.7718  0.7603  0.5832
52698SOL     OW65208   8.772   6.888   8.882 -0.6945  0.1913 -0.7737
52698SOL    HW165209   8.686   6.848   8.879 -0.0624 -1.6205  1.8313
52698SOL    HW265210   8.832   6.819   8.854  0.0831  0.6046 -0.1805
52699SOL     OW65211   8.166   6.120   4.614  0.4790  0.4094  0.2866
52699SOL    HW165212   8.119   6.058   4.671 -0.2934  0.9095  0.2076
52699SOL    HW265213   8.165   6.202   4.663  2.5065  0.1244  0.9114
52700SOL     OW65214   8.270  10.627  12.583  0.2074  0.1098 -0.2090
52700SOL    HW165215   8.343  10.685  12.602  2.0395 -1.9486 -0.5807
52700SOL    HW265216   8.252  10.582  12.666 -1.6369  1.5555  0.2536
52701SOL     OW65217   3.319   4.499   7.984 -0.1621 -0.4437  0.8538
52701SOL    HW165218   3.316   4.524   8.076  0.0381 -0.6505  0.9154
52701SOL    HW265219   3.398   4.446   7.975  0.1985  0.1608  0.4136
52702SOL     OW65220  10.201   4.637   0.323 -0.4593 -0.4835  0.2810
52702SOL    HW165221  10.198   4.542   0.330  2.0233 -0.6009  0.8780
52702SOL    HW265222  10.274   4.662   0.380  1.1507  1.4619 -2.4171
52703SOL     OW65223   5.010   6.946   9.653  0.2517 -0.3231 -0.1150
52703SOL    HW165224   5.035   7.005   9.581  0.3240 -0.7007 -0.4043
52703SOL    HW265225   4.936   6.989   9.695  1.4609  0.8986  0.8573
52704SOL     OW65226   1.299   7.125   8.032  0.2143 -0.5913  0.2841
52704SOL    HW165227   1.257   7.040   8.045  0.4181 -0.5454  1.4043
52704SOL    HW265228   1.389   7.104   8.007  0.4229 -0.7223  1.1170
52705SOL     OW65229   4.604  10.530   1.523 -0.6667 -0.3118  0.0614
52705SOL    HW165230   4.652  10.530   1.606  0.3319 -1.8609 -0.4656
52705SOL    HW265231   4.530  10.472   1.538 -1.3704  0.6175  0.3048
52706SOL     OW65232   1.514   3.298   5.193  0.0585 -0.5242  0.2166
52706SOL    HW165233   1.450   3.292   5.263  0.0583  1.7737  0.4792
52706SOL    HW265234   1.549   3.386   5.199  1.7489 -1.0268 -1.2421
52707SOL     OW65235   8.377   5.190   4.184 -0.5118 -0.5761 -0.0503
52707SOL    HW165236   8.302   5.147   4.143 -1.5420  2.5651 -1.7739
52707SOL    HW265237   8.340   5.266   4.228  1.2806 -0.9650  2.3757
52708SOL     OW65238   2.976   9.986  10.275  0.5911  0.5249  0.4482
52708SOL    HW165239   2.961   9.983  10.181  0.1699 -0.8537  0.5333
52708SOL    HW265240   2.971   9.895  10.303  1.2139  0.8611  1.7328
52709SOL     OW65241  12.600  10.841   7.733 -0.0451  0.4075 -0.5556
52709SOL    HW165242  12.512  10.838   7.770  0.1095  0.1236 -0.2074
52709SOL    HW265243  12.630  10.930   7.750 -0.3632  0.5838 -0.9082
52710SOL     OW65244   0.156   2.044   5.389  0.0290 -0.4287  0.2880
52710SOL    HW165245   0.225   2.034   5.323 -1.0384 -0.1970 -0.9038
52710SOL    HW265246   0.174   1.976   5.453 -0.3192 -2.3467 -1.5294
52711SOL     OW65247   0.904   6.694   3.823  0.7703 -0.1208 -0.2160
52711SOL    HW165248   0.950   6.703   3.739  0.9334 -1.5742 -0.3126
52711SOL    HW265249   0.971   6.658   3.882  0.0591 -1.2886 -0.0889
52712SOL     OW65250   2.450   4.573  10.780  0.2113  0.5080 -0.2189
52712SOL    HW165251   2.475   4.628  10.854 -0.5354  0.1014  0.3474
52712SOL    HW265252   2.397   4.630  10.724  1.6590  1.1360 -1.0173
52713SOL     OW65253   1.215   1.102  10.020 -0.0040  0.1276  0.1145
52713SOL    HW165254   1.294   1.101   9.964  0.7599 -1.8443  1.1469
52713SOL    HW265255   1.244   1.143  10.101 -0.7618  1.7486 -0.3958
52714SOL     OW65256   1.294   0.009   4.394 -0.2606  0.6384 -0.1745
52714SOL    HW165257   1.328  -0.048   4.325  0.6762  0.4499  0.4262
52714SOL    HW265258   1.293  -0.046   4.473 -2.7769  0.3681 -0.2973
52715SOL     OW65259  10.095   7.773   2.626 -0.2356 -0.3599 -0.2893
52715SOL    HW165260  10.068   7.766   2.535  1.7978 -0.8609 -0.8962
52715SOL    HW265261  10.140   7.857   2.632 -2.4765  0.8730  0.9170
52716SOL     OW65262   1.716   4.781   5.053 -0.2024  0.0866 -0.1599
52716SOL    HW165263   1.669   4.864   5.068 -0.4437 -0.1760  0.6310
52716SOL    HW265264   1.802   4.807   5.021  0.1818  0.7212  1.2809
52717SOL     OW65265   0.379   1.579  11.479 -0.7260 -0.2370 -0.1985
52717SOL    HW165266   0.467   1.615  11.479 -0.3097 -1.2354  0.0818
52717SOL    HW265267   0.338   1.617  11.558 -0.9295  1.0734 -0.8996
52718SOL     OW65268  11.902  12.279   3.428 -0.6572  0.1298 -0.2771
52718SOL    HW165269  11.860  12.317   3.350 -1.3851 -2.9846 -1.5582
52718SOL    HW265270  11.830  12.240   3.477 -0.0462  1.0471  1.4244
52719SOL     OW65271   9.141   2.479   0.609  0.1432  0.5277  0.3343
52719SOL    HW165272   9.139   2.478   0.705  4.4128  0.8765  0.5969
52719SOL    HW265273   9.150   2.572   0.587  0.9700  0.3094 -0.2747
52720SOL     OW65274   5.233   3.803   7.976  0.2519  0.1734  0.3742
52720SOL    HW165275   5.326   3.799   7.994  0.2191  0.5391  0.6385
52720SOL    HW265276   5.192   3.756   8.049  0.2075  0.3238  0.4461
52721SOL     OW65277   1.017   4.632  10.868 -0.0102  0.2055 -0.4713
52721SOL    HW165278   1.000   4.645  10.775  1.7023 -0.2216 -0.8813
52721SOL    HW265279   1.046   4.718  10.899  0.4007  0.1052 -0.5737
52722SOL     OW65280   8.320   8.275   1.026 -0.2494  0.5341  0.1308
52722SOL    HW165281   8.251   8.270   1.092 -0.4259  0.0858 -0.0844
52722SOL    HW265282   8.275   8.297   0.945 -0.2406 -0.4049 -0.1495
52723SOL     OW65283   0.423  10.064   3.528  0.2342 -0.1617 -0.2033
52723SOL    HW165284   0.349  10.007   3.504 -1.2633  1.3891  0.4860
52723SOL    HW265285   0.473  10.013   3.591  0.2847 -1.6039 -1.3631
52724SOL     OW65286  11.292   6.336   5.045 -0.0981  0.2792  0.8977
52724SOL    HW165287  11.238   6.409   5.076  0.5153  0.5038  1.4608
52724SOL    HW265288  11.381   6.372   5.042 -0.0995  0.2384 -1.0205
52725SOL     OW65289   3.770   1.665   6.960 -0.3134  0.2709 -0.0661
52725SOL    HW165290   3.766   1.596   6.894  0.3306 -0.3121  0.4925
52725SOL    HW265291   3.769   1.746   6.910  1.7188 -0.1643 -0.9080
52726SOL     OW65292   2.219  11.862  12.382  0.2986  0.2988  0.2575
52726SOL    HW165293   2.240  11.950  12.350  0.6329  0.0852 -0.1208
52726SOL    HW265294   2.132  11.871  12.421 -0.9473  0.2149 -2.3020
52727SOL     OW65295   1.124   2.400  12.758  0.1377  0.6084  0.1540
52727SOL    HW165296   1.182   2.403  12.682 -0.2572  0.1128 -0.1674
52727SOL    HW265297   1.094   2.310  12.762 -1.3475  1.0606 -0.2370
52728SOL     OW65298   5.210  10.012   5.993  0.3572 -0.1420 -0.3842
52728SOL    HW165299   5.133   9.966   5.960  1.1818 -1.0726 -1.0826
52728SOL    HW265300   5.217   9.983   6.084 -0.0094 -0.2038 -0.3739
52729SOL     OW65301  12.640   5.801   4.034  0.1150  0.2785 -1.0311
52729SOL    HW165302  12.639   5.729   3.971  0.3574 -0.2102 -0.4852
52729SOL    HW265303  12.675   5.762   4.114  0.1438  0.9796 -0.6982
52730SOL     OW65304   8.903   4.451   1.280 -0.6003  0.0803  0.4248
52730SOL    HW165305   8.828   4.403   1.315 -2.0702  1.3478 -0.8335
52730SOL    HW265306   8.879   4.471   1.190  1.6330 -0.1729 -0.3056
52731SOL     OW65307   9.516   2.031  12.961  0.0978 -0.0078  0.4076
52731SOL    HW165308   9.604   1.993  12.963 -0.6947 -2.0103 -0.2616
52731SOL    HW265309   9.520   2.098  12.893  0.1868 -2.7985 -2.5943
52732SOL     OW65310   1.565   1.340  10.436  0.1015  0.6414 -0.1398
52732SOL    HW165311   1.560   1.342  10.340 -0.9307  2.5571 -0.0900
52732SOL    HW265312   1.527   1.423  10.464 -1.9564 -0.8963  2.0481
52733SOL     OW65313   1.375   6.988   1.284 -0.0569  0.4932  0.3702
52733SOL    HW165314   1.321   7.060   1.253 -0.1489  0.5208  0.5913
52733SOL    HW265315   1.315   6.934   1.335 -0.3086 -0.4366 -0.8514
52734SOL     OW65316   8.843   0.167   6.449  0.5440  0.4940  0.0117
52734SOL    HW165317   8.770   0.185   6.390  0.3301  1.6369  0.6111
52734SOL    HW265318   8.829   0.225   6.524  0.9144 -0.7808  1.1098
52735SOL     OW65319   7.464   1.002   4.683  0.1573  0.2961  0.6899
52735SOL    HW165320   7.512   0.933   4.730  0.0122 -0.9424 -0.9014
52735SOL    HW265321   7.487   1.083   4.730  0.0481 -0.8394  2.8313
52736SOL     OW65322  10.374   1.929   0.496  0.4287 -0.5716 -0.1112
52736SOL    HW165323  10.388   1.855   0.556 -0.3342  0.9456  2.0737
52736SOL    HW265324  10.278   1.938   0.491  0.4924  1.3893  1.2203
52737SOL     OW65325  11.045   4.840   7.764  0.4882 -0.1848  0.2409
52737SOL    HW165326  11.122   4.823   7.819  0.4149  0.2822  0.4910
52737SOL    HW265327  10.971   4.809   7.817  0.5967 -1.8624 -0.5311
52738SOL     OW65328  11.744  10.780   0.328  0.0877 -0.0165  0.0978
52738SOL    HW165329  11.734  10.806   0.420  0.6622 -1.8492  0.7448
52738SOL    HW265330  11.665  10.811   0.285  0.0086  1.2699  1.1066
52739SOL     OW65331   7.207  12.163   9.245 -0.6478  0.7771  0.0305
52739SOL    HW165332   7.267  12.150   9.172 -1.0311 -0.7342 -0.0595
52739SOL    HW265333   7.164  12.246   9.227 -1.3573  0.0329 -1.9421
52740SOL     OW65334   2.425   5.313  12.918 -0.1051 -0.3637  0.1068
52740SOL    HW165335   2.333   5.339  12.920  0.0165  0.0278  1.7265
52740SOL    HW265336   2.433   5.263  12.837 -1.3469  0.9879 -0.9248
52741SOL     OW65337   7.061   5.054   6.629 -0.0368  0.8955  0.3615
52741SOL    HW165338   7.093   4.964   6.622 -0.1803  0.9088 -0.7046
52741SOL    HW265339   7.029   5.062   6.718 -0.4113 -0.2501  0.3409
52742SOL     OW65340   5.871   1.137   1.385  0.0120  0.3310  0.1052
52742SOL    HW165341   5.838   1.047   1.388 -1.5907  0.8586 -0.6715
52742SOL    HW265342   5.866   1.167   1.475 -0.5752  0.0205  0.1805
52743SOL     OW65343   5.135   8.424   1.710 -0.4696 -0.3485  0.0812
52743SOL    HW165344   5.062   8.452   1.654 -0.5946 -1.3235 -0.2723
52743SOL    HW265345   5.182   8.360   1.656 -0.2100 -0.8196  0.8578
52744SOL     OW65346  12.772   3.309   7.843 -0.2175 -0.4177  0.2379
52744SOL    HW165347  12.741   3.222   7.870 -1.7008  0.2604  0.8160
52744SOL    HW265348  12.798   3.351   7.925 -0.6030  0.0907  0.1045
52745SOL     OW65349   1.935   5.193   2.883  0.3607  0.3638 -0.7432
52745SOL    HW165350   1.851   5.178   2.926  0.6458 -0.6089 -0.5046
52745SOL    HW265351   1.965   5.106   2.858  1.1439  0.7345 -1.1190
52746SOL     OW65352   2.396   7.111   4.686  0.6689 -0.5830  0.0568
52746SOL    HW165353   2.476   7.067   4.712  0.1335 -0.4850  2.0549
52746SOL    HW265354   2.372   7.165   4.761 -2.1932 -1.9476  0.2831
52747SOL     OW65355   6.239  12.302   9.092  0.2093 -0.1945  0.0297
52747SOL    HW165356   6.211  12.238   9.157 -0.1156 -0.5309 -0.4376
52747SOL    HW265357   6.319  12.339   9.129  0.4886 -0.9756  0.2474
52748SOL     OW65358  11.783   0.083   1.910  0.0897  0.0060 -0.6204
52748SOL    HW165359  11.687   0.082   1.905  0.0705  0.1403 -0.3066
52748SOL    HW265360  11.811   0.128   1.831 -0.1444  0.7980 -0.2672
52749SOL     OW65361   2.993   9.198   7.228 -0.2127 -0.0133 -0.0102
52749SOL    HW165362   3.022   9.131   7.291  1.8994  1.4367  0.6516
52749SOL    HW265363   2.897   9.195   7.233 -0.1352 -1.2678  1.8256
52750SOL     OW65364  12.060  11.118   0.028 -0.1644 -0.5602 -0.5521
52750SOL    HW165365  12.127  11.087  -0.033 -0.2227 -0.4010 -0.6983
52750SOL    HW265366  12.021  11.038   0.063  1.6056 -0.7245  1.2274
52751SOL     OW65367   6.665  12.488   1.751  0.0561  0.2525 -1.1993
52751SOL    HW165368   6.757  12.517   1.755  0.2433 -0.4444  0.1600
52751SOL    HW265369   6.670  12.398   1.719  0.0923 -0.6119  1.0507
52752SOL     OW65370   1.755  12.513   1.147  0.1546 -0.1992 -0.4546
52752SOL    HW165371   1.698  12.586   1.121  0.4718 -0.3322 -1.5584
52752SOL    HW265372   1.717  12.482   1.230  0.1537  1.3543  0.1519
52753SOL     OW65373  10.118   6.446   9.566  0.0493  0.1141  0.2153
52753SOL    HW165374  10.151   6.426   9.479 -0.7706  0.1633 -0.1117
52753SOL    HW265375  10.108   6.361   9.608  0.4524  0.0914  0.2761
52754SOL     OW65376   6.998  10.567   8.713  0.1916 -0.0453  0.0659
52754SOL    HW165377   7.070  10.515   8.749 -0.5511 -0.2451  1.2898
52754SOL    HW265378   6.923  10.506   8.711 -0.9425  1.1584  2.3651
52755SOL     OW65379   8.692   4.124  12.078  0.0424  0.1133  0.0757
52755SOL    HW165380   8.731   4.211  12.069 -1.5177  0.8486  0.1345
52755SOL    HW265381   8.626   4.120  12.008 -1.0871 -0.3402  1.1384
52756SOL     OW65382   3.859   9.744  10.162 -0.1320 -0.0018 -0.3106
52756SOL    HW165383   3.782   9.793  10.133  0.8470  1.2008 -0.9773
52756SOL    HW265384   3.906   9.725  10.081  1.7167  1.8039  0.2431
52757SOL     OW65385   0.428   7.188  10.193  0.6362  0.0302 -0.2723
52757SOL    HW165386   0.431   7.143  10.109 -0.8062  0.0180 -0.3434
52757SOL    HW265387   0.377   7.130  10.250  1.9794 -0.1804  0.7669
52758SOL     OW65388   8.775   8.458  12.276 -0.0700 -0.2143 -0.4999
52758SOL    HW165389   8.845   8.494  12.331 -0.2690 -0.3715 -0.1359
52758SOL    HW265390   8.753   8.374  12.317 -0.1387 -0.3896 -0.8921
52759SOL     OW65391   4.936   6.511  12.074  0.0884  0.0956  0.5183
52759SOL    HW165392   5.023   6.524  12.036  0.0982 -0.2149  0.4300
52759SOL    HW265393   4.940   6.423  12.111 -0.1199  0.1658  0.7063
52760SOL     OW65394  10.533   6.887   2.954  0.5966  0.2382 -0.2315
52760SOL    HW165395  10.585   6.959   2.919  0.3470 -0.3306 -1.8490
52760SOL    HW265396  10.532   6.822   2.884  0.0877 -0.9792  0.8609
52761SOL     OW65397   1.060   1.073   5.588 -0.2609  0.2216  0.4994
52761SOL    HW165398   1.017   1.047   5.669 -0.3612 -1.4283 -0.0400
52761SOL    HW265399   1.148   1.100   5.615 -0.7178  0.9747  1.2885
52762SOL     OW65400   2.721   5.725   0.807  0.0118 -0.6466  0.4500
52762SOL    HW165401   2.813   5.730   0.833  0.6603  0.2463 -1.7607
52762SOL    HW265402   2.675   5.777   0.873  1.2783  0.0093  0.8601
52763SOL     OW65403  10.984   8.914   8.160  0.5191  0.8861 -0.0908
52763SOL    HW165404  11.028   8.904   8.075  0.6548  0.5106  0.0187
52763SOL    HW265405  10.894   8.936   8.138 -0.4364 -2.6744 -0.4843
52764SOL     OW65406  10.097  12.611   1.063 -0.1080  0.3239 -0.7064
52764SOL    HW165407  10.115  12.520   1.042  1.7213  0.8647 -1.6800
52764SOL    HW265408  10.028  12.637   1.003 -1.2757 -0.6205  0.1689
52765SOL     OW65409  10.601   2.925   8.219  0.0519 -0.4395  0.2307
52765SOL    HW165410  10.635   3.015   8.220 -1.1674  0.0560 -0.5658
52765SOL    HW265411  10.678   2.870   8.206  1.0403  0.3573  2.2313
52766SOL     OW65412   7.401   1.753   9.837  0.3154 -0.0828 -0.7028
52766SOL    HW165413   7.310   1.753   9.806 -0.2329  0.8588  0.8281
52766SOL    HW265414   7.438   1.833   9.800  0.3304 -0.1273 -0.7848
52767SOL     OW65415  11.605   7.449   2.595 -0.1719  0.1681  0.0337
52767SOL    HW165416  11.570   7.404   2.672  0.6706 -0.6688 -0.0468
52767SOL    HW265417  11.539   7.514   2.573 -1.3499 -0.8964  0.2850
52768SOL     OW65418  12.801   6.580   8.946  0.2434  0.2671 -1.1563
52768SOL    HW165419  12.725   6.569   8.888 -0.3157 -1.0074 -0.2278
52768SOL    HW265420  12.763   6.609   9.029  0.7922 -0.1766 -0.7466
52769SOL     OW65421   9.695   8.445   8.400  0.3350  0.4762 -0.1906
52769SOL    HW165422   9.723   8.529   8.437  0.5632 -0.2322  1.3090
52769SOL    HW265423   9.672   8.466   8.309  0.0127  2.2386  0.2517
52770SOL     OW65424  12.447  11.261  11.278 -0.3858 -0.0396  0.1803
52770SOL    HW165425  12.390  11.288  11.205 -0.0252 -1.4428 -0.6607
52770SOL    HW265426  12.515  11.328  11.281 -0.7432  0.3581 -0.3796
52771SOL     OW65427   0.129   3.655  12.806  0.3538  0.4087 -0.2318
52771SOL    HW165428   0.055   3.701  12.847 -0.6119 -1.5188  0.3073
52771SOL    HW265429   0.193   3.644  12.876 -0.0490 -0.3199  0.0353
52772SOL     OW65430   4.058   7.884   2.811  0.5385 -0.0512 -0.6746
52772SOL    HW165431   4.138   7.883   2.758  1.3922  0.2005  0.5612
52772SOL    HW265432   4.002   7.949   2.769  1.3283  0.3952 -1.0633
52773SOL     OW65433   2.851   9.166   5.415 -0.1591  0.1611  0.0862
52773SOL    HW165434   2.854   9.208   5.501 -0.3433 -0.5845  0.4679
52773SOL    HW265435   2.942   9.167   5.385  0.2365 -1.2654  1.1432
52774SOL     OW65436   0.418   8.018   5.800  0.8458  0.6420 -0.3947
52774SOL    HW165437   0.404   8.027   5.705  0.7931  1.0137 -0.3538
52774SOL    HW265438   0.360   8.083   5.839  0.3732  0.0328 -0.0702
52775SOL     OW65439  11.524   8.807   1.774  0.2397 -0.0302  0.0158
52775SOL    HW165440  11.574   8.827   1.853 -0.6515 -1.2754  0.9410
52775SOL    HW265441  11.433   8.826   1.798 -0.0537 -0.4669 -0.7022
52776SOL     OW65442  10.998   1.545  11.143 -0.3266 -0.5351  0.0932
52776SOL    HW165443  10.961   1.590  11.066 -2.3680 -1.3523  0.5435
52776SOL    HW265444  11.082   1.590  11.158 -1.1820  1.5395 -0.8877
52777SOL     OW65445   2.199   3.013   6.475  0.2592 -0.3029 -0.5131
52777SOL    HW165446   2.200   3.069   6.553  0.3721 -0.8816 -0.0909
52777SOL    HW265447   2.237   3.068   6.406  0.0347  0.2600 -0.1947
52778SOL     OW65448  12.716  12.101   4.126 -0.0195  0.7659  0.0992
52778SOL    HW165449  12.760  12.150   4.057  0.9333  0.0503  0.1633
52778SOL    HW265450  12.742  12.144   4.207 -1.6511  1.9975  0.0139
52779SOL     OW65451   0.772   0.103  10.653 -0.5532  0.4784 -0.3451
52779SOL    HW165452   0.759   0.198  10.661 -1.0606  0.5076 -1.3253
52779SOL    HW265453   0.867   0.092  10.648 -0.4211  0.8055  1.0710
52780SOL     OW65454   1.107   6.761  11.200 -0.5817 -0.2761 -0.1950
52780SOL    HW165455   1.068   6.804  11.276 -0.8331 -0.2610 -0.3309
52780SOL    HW265456   1.177   6.706  11.237  0.6263  1.2286 -0.1323
52781SOL     OW65457   7.504   3.749  10.549 -0.7811 -0.2576 -0.4763
52781SOL    HW165458   7.467   3.831  10.515 -0.5970  0.6967  1.4883
52781SOL    HW265459   7.427   3.696  10.570 -1.0194  0.5834  0.9129
52782SOL     OW65460   6.175   4.993  10.893  0.4674  0.0371  0.7467
52782SOL    HW165461   6.251   4.936  10.879  0.1475 -0.1507 -0.3878
52782SOL    HW265462   6.213   5.080  10.906  0.9020 -0.1539  0.8031
52783SOL     OW65463   0.588   4.564   5.892  0.3552  0.7762  0.2874
52783SOL    HW165464   0.645   4.525   5.958  0.8020 -0.9126 -1.0309
52783SOL    HW265465   0.500   4.560   5.930  0.5296 -0.6716  0.5968
52784SOL     OW65466   0.835   7.597   4.518  0.5437  0.1797 -0.0667
52784SOL    HW165467   0.781   7.541   4.463  0.6357 -1.5512  1.4924
52784SOL    HW265468   0.815   7.686   4.490 -0.7743 -0.5576 -1.5941
52785SOL     OW65469  10.901  11.016   8.239 -0.3344 -0.5329  0.3479
52785SOL    HW165470  10.902  10.999   8.145  1.1600  0.5932  0.1288
52785SOL    HW265471  10.933  10.934   8.278  2.2729  0.0605 -0.3782
52786SOL     OW65472  12.128  11.761  11.852  0.3778  0.2177 -0.3372
52786SOL    HW165473  12.120  11.837  11.795  0.2227 -0.4135 -1.1845
52786SOL    HW265474  12.063  11.776  11.920 -1.5308 -0.3400 -1.9176
52787SOL     OW65475   1.456  10.359  12.601  0.3068  0.0342 -0.4480
52787SOL    HW165476   1.371  10.314  12.606  0.7861 -0.9330 -0.7483
52787SOL    HW265477   1.472  10.368  12.507  0.8459 -0.3885 -0.3974
52788SOL     OW65478  10.725   7.619   1.924  0.0451 -0.2494  0.0489
52788SOL    HW165479  10.780   7.556   1.971  0.5556 -0.7662 -1.1959
52788SOL    HW265480  10.774   7.638   1.844 -0.1173  1.7032  0.3693
52789SOL     OW65481   7.911   9.808  12.905 -0.4055 -0.5339 -0.0051
52789SOL    HW165482   7.868   9.881  12.949 -2.0590  0.0591 -2.3623
52789SOL    HW265483   7.961   9.764  12.973  0.9153  2.9404  1.4625
52790SOL     OW65484  12.214   0.387   1.390 -0.7704 -0.1334  0.3587
52790SOL    HW165485  12.183   0.378   1.300  0.7111  2.0646 -0.4609
52790SOL    HW265486  12.200   0.480   1.410  0.8883 -0.1204  1.6189
52791SOL     OW65487   9.228   9.944   5.442 -0.2302  0.3330  0.1898
52791SOL    HW165488   9.289   9.887   5.487  0.2164 -0.2577 -1.1045
52791SOL    HW265489   9.258  10.033   5.461  2.1850  0.0638 -1.8374
52792SOL     OW65490   7.263  12.105   7.770 -0.6038  0.1805 -0.2385
52792SOL    HW165491   7.301  12.053   7.699 -1.5521 -0.0641 -0.5735
52792SOL    HW265492   7.205  12.045   7.816 -2.1282  1.0680 -0.9479
52793SOL     OW65493   1.512   1.937  11.609 -0.2979 -0.3841  0.2519
52793SOL    HW165494   1.479   1.854  11.644  1.3481 -0.4463  1.8429
52793SOL    HW265495   1.600   1.945  11.647  0.0541  1.5043 -0.8488
52794SOL     OW65496   0.296  10.844  10.728  0.1263  0.2834 -0.3270
52794SOL    HW165497   0.208  10.879  10.713 -0.1646 -0.2534  0.1189
52794SOL    HW265498   0.346  10.874  10.652 -0.2180  1.3181 -0.1718
52795SOL     OW65499   5.440   5.126   2.060  0.1299 -0.1974 -0.3521
52795SOL    HW165500   5.375   5.153   1.995 -0.4141  1.0312  0.6406
52795SOL    HW265501   5.388   5.090   2.132  0.7351 -1.7681 -0.6790
52796SOL     OW65502   1.825   8.374   4.459 -0.4917  0.1712  0.1541
52796SOL    HW165503   1.774   8.434   4.513 -1.5513  0.8053 -1.4455
52796SOL    HW265504   1.803   8.399   4.369 -1.0185 -2.6214 -0.5918
52797SOL     OW65505   9.271   7.533   8.042 -0.0355  1.0427 -0.0639
52797SOL    HW165506   9.290   7.586   8.119  0.1800 -1.1059  1.4550
52797SOL    HW265507   9.339   7.556   7.979  0.6485  1.8011  0.9367
52798SOL     OW65508  10.564   7.156   8.489 -0.3049 -0.2154  0.3072
52798SOL    HW165509  10.640   7.118   8.534 -0.7761 -1.3805  0.1537
52798SOL    HW265510  10.492   7.096   8.508 -0.8370  0.0304 -0.8306
52799SOL     OW65511   5.698   0.008   1.636 -0.1340 -0.4040  0.2836
52799SOL    HW165512   5.604  -0.006   1.645 -0.3715  1.3513  0.9378
52799SOL    HW265513   5.736  -0.032   1.715 -0.3125 -1.0728  0.0407
52800SOL     OW65514   3.933   8.219   1.485 -0.0294  0.2671 -0.0555
52800SOL    HW165515   3.939   8.314   1.483 -1.4575  0.3763 -2.0764
52800SOL    HW265516   3.933   8.196   1.578  1.3358  2.1315  0.4581
52801SOL     OW65517   6.564  11.720   5.576 -0.0487 -0.2475 -0.2774
52801SOL    HW165518   6.547  11.638   5.623  0.2727 -0.4120 -0.4412
52801SOL    HW265519   6.658  11.718   5.558  0.4206  1.2279  1.6952
52802SOL     OW65520   8.645   5.189   6.794  0.5751 -0.3577 -0.8905
52802SOL    HW165521   8.700   5.161   6.720  1.5086 -0.3220 -0.2318
52802SOL    HW265522   8.656   5.284   6.798  0.0056 -0.2805 -1.1055
52803SOL     OW65523   8.880  12.081  11.597 -0.2569  0.5522 -0.1896
52803SOL    HW165524   8.923  12.007  11.639 -1.9778 -0.5309 -0.2281
52803SOL    HW265525   8.947  12.119  11.540  0.4201 -1.5590 -0.8865
52804SOL     OW65526   2.934   2.456   6.950  0.1024  0.6362 -0.4892
52804SOL    HW165527   2.875   2.410   7.010 -0.1614 -0.4452 -1.5425
52804SOL    HW265528   3.018   2.412   6.960 -0.4280 -0.9180 -2.3390
52805SOL     OW65529   6.720   5.673   6.899  0.3184  0.3294  0.6051
52805SOL    HW165530   6.631   5.647   6.874  0.2957  0.5296  0.4835
52805SOL    HW265531   6.761   5.591   6.928  0.7679 -0.1414 -1.2802
52806SOL     OW65532  10.395   8.198   6.234 -0.4491 -0.4091  0.4768
52806SOL    HW165533  10.378   8.224   6.325 -0.3971 -0.1495  0.4151
52806SOL    HW265534  10.456   8.125   6.241 -1.0697 -0.9122  0.6724
52807SOL     OW65535   6.359   3.739   4.116  0.0707  0.0067 -0.1282
52807SOL    HW165536   6.340   3.670   4.053  2.9284 -0.2751 -0.8235
52807SOL    HW265537   6.310   3.815   4.083 -1.5910 -1.1418 -0.4221
52808SOL     OW65538   9.896   1.815   7.947 -0.2583 -0.0102  0.3621
52808SOL    HW165539   9.851   1.822   7.863 -0.5822  0.2592  0.5586
52808SOL    HW265540   9.924   1.723   7.951  2.8454  0.6857 -1.6042
52809SOL     OW65541   2.770  12.961   4.693  0.9755  0.1956  0.0170
52809SOL    HW165542   2.699  12.904   4.663 -0.2673  1.5335  0.2822
52809SOL    HW265543   2.769  12.951   4.788 -0.6399  2.1512  0.2583
52810SOL     OW65544  11.666   6.257  11.194  0.6693 -0.2613  0.2170
52810SOL    HW165545  11.721   6.191  11.235  0.1362 -1.1964 -0.5316
52810SOL    HW265546  11.588   6.209  11.165  0.7818  0.4592 -1.3743
52811SOL     OW65547   8.169  11.692   8.435  0.3946  0.2273 -0.6090
52811SOL    HW165548   8.260  11.697   8.465 -0.8985 -1.0536  4.7183
52811SOL    HW265549   8.164  11.611   8.385  2.1938  0.5685 -1.4263
52812SOL     OW65550   6.217   3.783   7.639 -0.1934  0.0659  0.6163
52812SOL    HW165551   6.160   3.717   7.598  0.4974 -0.5295  0.5931
52812SOL    HW265552   6.211   3.764   7.732  0.4305 -0.3929  0.5707
52813SOL     OW65553   2.634   9.458   5.861 -0.1005  0.2077  0.2430
52813SOL    HW165554   2.683   9.448   5.943 -0.0525  1.6449  0.4284
52813SOL    HW265555   2.681   9.527   5.814  0.1246 -0.9011 -1.2093
52814SOL     OW65556   8.945  11.075   6.035 -0.6070  0.8273  0.5392
52814SOL    HW165557   8.854  11.046   6.037 -0.5399  0.3598 -1.2006
52814SOL    HW265558   8.941  11.167   6.010 -0.5800  0.4649 -0.8732
52815SOL     OW65559  10.663   1.965   0.056 -0.5204 -0.2623  0.4182
52815SOL    HW165560  10.619   1.887   0.089  0.0094 -0.7625 -0.0433
52815SOL    HW265561  10.592   2.021   0.025 -0.8213 -1.7477 -1.8413
52816SOL     OW65562   0.102   7.035   5.546 -0.3955 -0.0865 -0.1086
52816SOL    HW165563   0.150   7.008   5.467  0.0687  1.5509 -0.4261
52816SOL    HW265564   0.141   6.983   5.616  1.2168  0.4836 -0.5216
52817SOL     OW65565   9.553  10.323   7.384  0.0566  0.0877 -0.2245
52817SOL    HW165566   9.566  10.299   7.293 -1.2001 -1.4067 -0.0576
52817SOL    HW265567   9.493  10.256   7.418 -0.8918  1.5977  1.2340
52818SOL     OW65568   2.497   1.248   6.413 -0.4403  0.1107  0.0986
52818SOL    HW165569   2.404   1.243   6.393 -0.5110 -0.1824  0.4890
52818SOL    HW265570   2.531   1.314   6.352 -0.6535 -0.7355 -0.9610
52819SOL     OW65571   5.615  12.448   6.368 -0.5428 -0.0307 -0.3290
52819SOL    HW165572   5.650  12.382   6.309 -0.5827 -1.4976  1.2075
52819SOL    HW265573   5.665  12.437   6.449 -1.3171  1.0870  0.3379
52820SOL     OW65574   6.005   5.401   6.800  0.3910 -0.0968 -0.4341
52820SOL    HW165575   5.960   5.474   6.842  0.9727  0.5542 -0.9140
52820SOL    HW265576   6.053   5.358   6.871  0.5062  0.3447 -0.2380
52821SOL     OW65577   2.952  12.177   2.563 -0.6639 -0.4917 -0.1301
52821SOL    HW165578   2.887  12.169   2.494  0.3984  0.2749 -1.2552
52821SOL    HW265579   2.952  12.091   2.606 -2.8754 -0.3051  0.3570
52822SOL     OW65580   9.156   5.980   6.963 -0.1881  0.4549  0.3882
52822SOL    HW165581   9.181   6.044   6.896  0.5583  0.0552  0.2713
52822SOL    HW265582   9.230   5.980   7.024  1.6197 -2.8770 -1.4868
52823SOL     OW65583   9.159   0.759  10.794 -0.0098 -0.1930 -0.1729
52823SOL    HW165584   9.121   0.846  10.786 -1.1585 -0.7458 -1.1046
52823SOL    HW265585   9.252   0.774  10.812 -0.2414  1.2126 -0.0740
52824SOL     OW65586  10.916   6.277   3.024 -0.2237 -0.3996  0.3078
52824SOL    HW165587  10.975   6.341   2.985 -1.0922  1.1132  1.3771
52824SOL    HW265588  10.902   6.211   2.956  2.3161 -0.5799 -0.1139
52825SOL     OW65589  11.886  11.189   1.069 -0.5655 -0.1481 -0.4086
52825SOL    HW165590  11.817  11.254   1.054 -0.5359 -0.5413 -2.5449
52825SOL    HW265591  11.847  11.124   1.128 -1.2988  0.6855  0.0389
52826SOL     OW65592  12.530   5.490   9.465  0.4823  0.2624 -0.0635
52826SOL    HW165593  12.441   5.510   9.435 -0.3525 -1.6224  1.0042
52826SOL    HW265594  12.559   5.570   9.508 -0.5619  1.0069 -0.6885
52827SOL     OW65595  11.289   9.909  10.531 -0.2930 -0.1141 -0.1447
52827SOL    HW165596  11.319   9.882  10.618 -0.0599  0.0915 -0.1599
52827SOL    HW265597  11.337   9.990  10.514  2.5985 -2.0387 -2.0615
52828SOL     OW65598   4.124   4.713   5.921 -0.2406  0.0432  0.0256
52828SOL    HW165599   4.106   4.665   5.840  0.0798 -0.1859  0.0888
52828SOL    HW265600   4.050   4.691   5.979  0.2693 -0.9769  0.3210
52829SOL     OW65601  12.597   2.675   3.047  0.1860 -0.4368 -0.3185
52829SOL    HW165602  12.599   2.580   3.060 -0.2823 -0.2531  1.2946
52829SOL    HW265603  12.573   2.710   3.132 -0.3969  1.1062 -1.0838
52830SOL     OW65604  10.593   3.606   9.511 -0.1415 -0.2902  0.2409
52830SOL    HW165605  10.684   3.632   9.527  0.7189  0.1511 -4.0228
52830SOL    HW265606  10.552   3.686   9.477 -1.1687 -1.2922 -0.9253
52831SOL     OW65607   5.422   0.367   1.487  0.3679 -0.6799  0.7434
52831SOL    HW165608   5.499   0.311   1.474 -0.6928 -1.6922 -1.9630
52831SOL    HW265609   5.349   0.307   1.497 -0.5509  0.1766 -0.4453
52832SOL     OW65610   7.259   5.771  12.138 -0.4879  0.0693  0.5406
52832SOL    HW165611   7.299   5.764  12.051 -0.5335  0.4526  0.4907
52832SOL    HW265612   7.322   5.727  12.195 -0.5344 -0.3292  0.2925
52833SOL     OW65613   3.633  11.423   8.905 -0.3001  0.3806  0.1749
52833SOL    HW165614   3.660  11.354   8.965  1.8290  1.6220  0.7537
52833SOL    HW265615   3.655  11.389   8.818  2.1795  0.8263  0.5473
52834SOL     OW65616   4.484   6.802   9.468  0.1037  0.4253 -0.4139
52834SOL    HW165617   4.418   6.743   9.431 -1.3239  1.7355 -0.0893
52834SOL    HW265618   4.524   6.752   9.539  0.0661 -0.6972 -1.1510
52835SOL     OW65619   4.268  12.421   1.174  0.3888  0.2758  0.0278
52835SOL    HW165620   4.256  12.514   1.156  0.7583  0.0649 -1.4201
52835SOL    HW265621   4.345  12.396   1.123 -0.9081 -1.2600 -1.3150
52836SOL     OW65622  11.529   5.433   6.825  0.7703 -0.1259 -0.6578
52836SOL    HW165623  11.521   5.358   6.884 -0.6336 -0.1689 -0.8556
52836SOL    HW265624  11.492   5.402   6.742  0.0405  0.8079 -0.6999
52837SOL     OW65625   9.660   9.208   5.193  0.3915 -0.1164  0.7028
52837SOL    HW165626   9.634   9.245   5.277 -0.1681  0.8079  0.1305
52837SOL    HW265627   9.721   9.272   5.156 -0.9626  0.5385 -0.5169
52838SOL     OW65628   6.453   1.166  10.360  0.2967  0.0713  0.5662
52838SOL    HW165629   6.369   1.123  10.371  1.3660 -2.2834  0.2235
52838SOL    HW265630   6.469   1.165  10.266  0.6569  0.6134  0.6134
52839SOL     OW65631   9.389  12.463   2.265  0.3165  0.1931  0.0818
52839SOL    HW165632   9.428  12.532   2.318  0.2757 -1.1401  1.9729
52839SOL    HW265633   9.301  12.452   2.300 -0.9313  1.3658 -2.3954
52840SOL     OW65634   1.942   6.246  11.282  0.2543  0.6905 -0.0622
52840SOL    HW165635   1.884   6.314  11.249 -0.7925  0.7802  1.8293
52840SOL    HW265636   1.892   6.202  11.350  1.4321 -1.0529 -0.2643
52841SOL     OW65637   6.646   4.046   6.865  0.1437  0.7903  0.5569
52841SOL    HW165638   6.670   3.959   6.833  0.5800  1.4177 -0.9122
52841SOL    HW265639   6.728   4.082   6.899 -0.0908  0.5374  1.3990
52842SOL     OW65640   0.115  11.629   1.901  0.3679 -0.1042  0.0974
52842SOL    HW165641   0.114  11.583   1.985  1.5537 -0.5627 -0.1247
52842SOL    HW265642   0.026  11.618   1.868  0.2394 -1.0464  0.6961
52843SOL     OW65643   1.379   8.971   6.940  0.4455  0.3893  0.4314
52843SOL    HW165644   1.460   9.011   6.970  0.1125 -0.2837  2.3490
52843SOL    HW265645   1.310   9.031   6.967  0.1722  0.1210  0.3418
52844SOL     OW65646   8.559   1.643   4.778 -0.0177 -0.9278  0.2694
52844SOL    HW165647   8.544   1.548   4.769  0.1614 -0.9148 -0.2429
52844SOL    HW265648   8.476   1.682   4.751  0.4886 -0.8931 -1.3278
52845SOL     OW65649   3.667   3.369   8.966 -0.0049  0.1574 -0.4072
52845SOL    HW165650   3.737   3.435   8.963 -0.0123  0.1999  0.2035
52845SOL    HW265651   3.708   3.292   9.004  0.1784 -0.4287 -1.7360
52846SOL     OW65652   6.997   8.930   9.207 -0.0390 -0.0362 -0.5467
52846SOL    HW165653   6.960   8.935   9.295 -0.2171 -0.7569 -0.5720
52846SOL    HW265654   6.942   8.866   9.162 -0.2675  0.7093 -1.3461
52847SOL     OW65655   9.526   2.795   6.302 -0.2459  0.6602  0.1329
52847SOL    HW165656   9.598   2.800   6.365  0.7056 -0.2776 -0.8438
52847SOL    HW265657   9.506   2.886   6.280  1.6721  0.9241 -0.7118
52848SOL     OW65658  11.070   5.987  10.330 -0.2316  0.0624  0.0376
52848SOL    HW165659  10.996   5.946  10.374  0.2560 -0.0529  0.7724
52848SOL    HW265660  11.124   6.021  10.401 -0.0023  0.8839 -0.5167
52849SOL     OW65661  10.070   4.032  11.949 -0.5088  0.2666 -0.3596
52849SOL    HW165662   9.979   4.051  11.975 -1.0674 -0.6124 -1.5944
52849SOL    HW265663  10.076   4.062  11.858 -0.2197 -1.6178 -0.9960
52850SOL     OW65664   2.323  11.691   9.176  0.1797 -0.2165 -0.0925
52850SOL    HW165665   2.248  11.666   9.230  0.0194 -1.0797 -0.6949
52850SOL    HW265666   2.292  11.682   9.086  0.7635  0.2040 -0.3459
52851SOL     OW65667   1.156   4.655   1.890 -0.2160  0.1429 -0.1704
52851SOL    HW165668   1.245   4.627   1.912  0.4980  2.0108 -0.4903
52851SOL    HW265669   1.113   4.576   1.858  1.8892 -0.4790 -1.6875
52852SOL     OW65670   3.903   7.457   4.541  0.2388  0.4418 -0.9137
52852SOL    HW165671   3.877   7.548   4.556  0.0352  0.5063 -1.6270
52852SOL    HW265672   3.964   7.462   4.467  0.3953  0.0176 -0.8157
52853SOL     OW65673   0.121   1.484   6.535  0.2038  0.2025 -0.0345
52853SOL    HW165674   0.063   1.441   6.598  1.1096  1.4203  1.7179
52853SOL    HW265675   0.204   1.436   6.542  0.2926  0.3069 -0.3543
52854SOL     OW65676   8.049   6.508   0.559  0.0180 -0.1092 -0.3816
52854SOL    HW165677   8.053   6.604   0.568 -0.6776 -0.1601  0.6126
52854SOL    HW265678   8.067   6.492   0.467 -2.5015  1.1661 -1.1726
52855SOL     OW65679  11.232   6.161   5.249  0.7009  0.3225  0.0998
52855SOL    HW165680  11.293   6.089   5.234 -1.4676 -1.2597 -1.7223
52855SOL    HW265681  11.256   6.226   5.183  1.2483  0.3468  0.3087
52856SOL     OW65682   1.352   3.736   1.430  0.3661 -0.3408  0.4502
52856SOL    HW165683   1.341   3.644   1.405 -1.8195 -0.0994  0.3109
52856SOL    HW265684   1.353   3.783   1.347  1.9358 -0.2326  0.4979
52857SOL     OW65685   3.754   1.476   3.910 -0.9911  0.1272  0.3386
52857SOL    HW165686   3.850   1.469   3.913 -1.0253 -0.6142 -0.0857
52857SOL    HW265687   3.733   1.535   3.982 -0.3305 -1.1382  1.6409
52858SOL     OW65688   8.826   1.357  11.884  0.5482  0.5683  0.1003
52858SOL    HW165689   8.791   1.380  11.970  0.0065  1.7313 -0.4208
52858SOL    HW265690   8.754   1.374  11.823  0.8198 -0.5606 -0.5541
52859SOL     OW65691   0.212   1.460   3.779 -0.3784  0.4132  0.5074
52859SOL    HW165692   0.260   1.412   3.847 -1.1296  2.3083  2.4719
52859SOL    HW265693   0.246   1.424   3.696  1.2415 -1.3243  1.8335
52860SOL     OW65694   0.872   2.644   6.434 -0.2694  0.2530  0.8692
52860SOL    HW165695   0.853   2.554   6.460 -0.6543 -0.4975 -1.6751
52860SOL    HW265696   0.803   2.665   6.370  0.5154  1.9028  0.5074
52861SOL     OW65697  10.013  12.957   1.517  0.2788 -0.3185  0.7743
52861SOL    HW165698  10.096  13.003   1.531 -0.1252  0.6009  0.2195
52861SOL    HW265699   9.985  12.984   1.430 -0.1951 -1.2828  0.6214
52862SOL     OW65700   1.521   4.658   6.415 -0.2033 -0.2827  0.7193
52862SOL    HW165701   1.606   4.672   6.373 -0.2665  2.3881  1.2765
52862SOL    HW265702   1.515   4.563   6.426  0.8752 -0.9503 -2.9790
52863SOL     OW65703   9.254   3.264   9.858 -0.6026 -0.7709 -0.1606
52863SOL    HW165704   9.206   3.248   9.940  0.1653  0.0450  0.4717
52863SOL    HW265705   9.346   3.258   9.883 -0.3583 -1.6771 -1.2287
52864SOL     OW65706   2.177  10.098   6.197 -0.3726  0.2668  0.0232
52864SOL    HW165707   2.097  10.109   6.249  0.0711  0.3350  0.6975
52864SOL    HW265708   2.237  10.051   6.254  0.6763  1.7131  0.1834
52865SOL     OW65709   2.353   0.871  12.264 -0.1170 -0.5078 -0.0602
52865SOL    HW165710   2.325   0.887  12.174  1.0488  0.2798 -0.3089
52865SOL    HW265711   2.311   0.939  12.316 -0.6110 -0.8258 -0.0422
52866SOL     OW65712   9.739   5.560   8.928 -0.3121 -0.2523 -0.0737
52866SOL    HW165713   9.758   5.527   9.016 -0.7238  0.5211  0.3102
52866SOL    HW265714   9.658   5.610   8.938  0.5214  1.2401 -0.5480
52867SOL     OW65715   7.073  10.937  10.219  0.2329 -0.4962  0.6394
52867SOL    HW165716   6.993  10.978  10.186  0.2971 -0.8963 -0.0242
52867SOL    HW265717   7.091  10.983  10.300  0.8173  1.4368 -0.5353
52868SOL     OW65718   4.339  10.370   2.919 -0.1281 -0.2301  0.1969
52868SOL    HW165719   4.321  10.276   2.929  0.6985 -0.5056 -0.7325
52868SOL    HW265720   4.297  10.411   2.995  0.0201 -1.4249  0.9501
52869SOL     OW65721  12.607   3.041   5.465 -0.0053 -0.3005 -0.2520
52869SOL    HW165722  12.622   2.992   5.384  0.0314  0.3180 -0.6243
52869SOL    HW265723  12.690   3.086   5.481 -0.1974  0.0330 -0.1867
52870SOL     OW65724  10.588   0.381   1.207 -0.0122  0.1917 -0.1409
52870SOL    HW165725  10.668   0.332   1.227  0.2314  0.5897 -0.1203
52870SOL    HW265726  10.519   0.335   1.254  0.0949 -0.5551 -0.7065
52871SOL     OW65727   9.319   5.644   9.590  0.6149  0.1773 -0.4768
52871SOL    HW165728   9.348   5.572   9.647 -4.1676 -1.2186  0.6663
52871SOL    HW265729   9.312   5.719   9.649  1.6680  0.5180 -0.7562
52872SOL     OW65730   2.068  11.203  12.731 -0.0249 -0.2319  0.2316
52872SOL    HW165731   1.974  11.209  12.718 -0.2581 -2.2974  0.5004
52872SOL    HW265732   2.105  11.276  12.682 -1.8047  1.2519  0.9903
52873SOL     OW65733   0.376  12.796   2.939 -0.5987 -0.2739  0.2127
52873SOL    HW165734   0.360  12.782   2.846 -0.6685 -0.8671  0.3129
52873SOL    HW265735   0.301  12.754   2.983  0.2014 -1.3375  0.6006
52874SOL     OW65736   2.984  10.113  12.152  0.5748  0.0570  0.2038
52874SOL    HW165737   3.018  10.024  12.141  2.0896  0.4588  1.2700
52874SOL    HW265738   3.032  10.148  12.227  0.6317  2.0692 -0.6996
52875SOL     OW65739   5.989  12.580   2.101  0.9308  0.1302 -0.0668
52875SOL    HW165740   6.002  12.660   2.152 -2.5776  0.3332  0.7507
52875SOL    HW265741   6.010  12.509   2.162 -1.3169  0.4162  1.1512
52876SOL     OW65742  10.969   7.295   6.857 -0.4645  0.0241 -0.1832
52876SOL    HW165743  11.028   7.360   6.819 -1.6222  1.5726  0.5337
52876SOL    HW265744  11.026   7.241   6.913  0.2590  1.6901  0.7666
52877SOL     OW65745  12.904   0.240   6.265 -0.0297  0.7096  0.4697
52877SOL    HW165746  12.813   0.263   6.282  0.2696  2.2594  0.1062
52877SOL    HW265747  12.903   0.201   6.178 -0.3067  0.9792  0.3508
52878SOL     OW65748   4.558  10.825   9.256 -0.3450 -1.0578  0.0211
52878SOL    HW165749   4.589  10.854   9.169  1.5655 -0.7135  0.7598
52878SOL    HW265750   4.592  10.736   9.265 -0.7557 -1.1856  0.3259
52879SOL     OW65751  11.414   9.443   6.138  0.1080  0.4549 -0.3049
52879SOL    HW165752  11.459   9.392   6.071  0.9227  0.6095  0.1083
52879SOL    HW265753  11.460   9.527   6.138  1.0876 -0.0207  1.4145
52880SOL     OW65754   1.832   9.280   7.903 -0.0723 -0.4293  0.0968
52880SOL    HW165755   1.781   9.263   7.982 -0.1891  1.1367  0.3807
52880SOL    HW265756   1.923   9.263   7.929 -0.2375 -1.2501  0.1644
52881SOL     OW65757   9.273   9.388   8.871 -0.0092  0.1452  0.3375
52881SOL    HW165758   9.271   9.301   8.831 -0.7430 -0.6225  1.9586
52881SOL    HW265759   9.261   9.449   8.798 -0.0024 -1.1362 -0.7517
52882SOL     OW65760  12.603   3.865   9.720 -0.4908  0.0596 -0.0936
52882SOL    HW165761  12.595   3.919   9.799 -1.6386  0.8461 -0.7088
52882SOL    HW265762  12.547   3.789   9.738 -0.4375  0.0458  0.0137
52883SOL     OW65763   1.472   4.176   3.981  0.6496  0.5106  0.1488
52883SOL    HW165764   1.517   4.095   3.957 -0.2049  0.2951 -0.8219
52883SOL    HW265765   1.534   4.223   4.036  0.9093 -1.1133  1.3300
52884SOL     OW65766   2.692   2.552   8.946 -0.4705 -0.3396  0.1315
52884SOL    HW165767   2.783   2.531   8.925 -0.2063  0.3115  0.6020
52884SOL    HW265768   2.685   2.533   9.040 -1.0641 -1.2275 -0.0870
52885SOL     OW65769  12.642   4.624  10.467 -0.2420 -0.1988 -0.0537
52885SOL    HW165770  12.667   4.714  10.445 -2.7007  0.7024  0.4845
52885SOL    HW265771  12.725   4.578  10.476  1.0804  1.3754 -2.7712
52886SOL     OW65772   5.806   8.704   7.431 -0.1542  0.4055  0.1152
52886SOL    HW165773   5.729   8.759   7.447 -0.6401 -0.3197  0.3028
52886SOL    HW265774   5.807   8.692   7.337  1.2102  2.5124 -0.2131
52887SOL     OW65775  12.815   5.674   3.586  0.0427 -0.2850  0.1725
52887SOL    HW165776  12.723   5.698   3.571 -0.0941 -0.5702  0.5285
52887SOL    HW265777  12.860   5.757   3.595 -0.5153 -0.1409  1.9186
52888SOL     OW65778   1.648   8.960   5.839  0.0221  0.2617  0.6282
52888SOL    HW165779   1.598   8.973   5.759 -0.1637 -1.2648  0.4698
52888SOL    HW265780   1.686   9.046   5.858  0.8302  0.4479 -1.5866
52889SOL     OW65781   0.355   2.943   5.788 -0.2803  0.1735  0.1910
52889SOL    HW165782   0.260   2.936   5.802  0.0160 -0.2144  2.4724
52889SOL    HW265783   0.377   3.030   5.823  0.1470  0.4984 -0.8532
52890SOL     OW65784   2.305  10.515   4.316 -0.3469  0.2466 -0.1150
52890SOL    HW165785   2.270  10.434   4.354  1.8203 -0.8865 -0.3683
52890SOL    HW265786   2.349  10.558   4.389  0.9839 -0.2809 -0.5797
52891SOL     OW65787   7.993   3.025   5.067  0.7842  0.2613 -0.0206
52891SOL    HW165788   8.047   3.092   5.023 -1.4540  2.4198  0.2795
52891SOL    HW265789   8.030   3.020   5.155  2.9906 -1.3843 -0.9345
52892SOL     OW65790   6.552   3.865   3.471  0.2053 -0.1406 -0.0841
52892SOL    HW165791   6.590   3.890   3.387  0.2913  0.6034  0.1737
52892SOL    HW265792   6.625   3.868   3.533 -0.0701  0.3816  0.2280
52893SOL     OW65793  11.612  12.566   0.390  0.4309  0.1287 -0.5765
52893SOL    HW165794  11.584  12.483   0.351 -1.8279  0.7150 -0.2903
52893SOL    HW265795  11.637  12.543   0.480 -1.8757 -0.0187  0.0804
52894SOL     OW65796   9.151  11.983   3.359  0.5434  0.2084  0.5022
52894SOL    HW165797   9.235  11.953   3.324  0.4584 -0.0238  0.4975
52894SOL    HW265798   9.141  11.934   3.441  0.0680 -0.2961  0.1447
52895SOL     OW65799   4.728   4.315   4.820 -0.5389  0.0444  0.2348
52895SOL    HW165800   4.772   4.264   4.751 -1.2935  0.2774 -0.4312
52895SOL    HW265801   4.682   4.250   4.872 -0.5102 -0.0723  0.1164
52896SOL     OW65802  12.344  11.253   0.087  0.2449 -0.4805 -0.1268
52896SOL    HW165803  12.324  11.178   0.032 -0.2853 -0.5432  0.1385
52896SOL    HW265804  12.421  11.293   0.047  0.2718 -0.9132 -0.5166
52897SOL     OW65805   1.214   6.286   1.063  0.0428  0.2384 -0.4679
52897SOL    HW165806   1.125   6.294   1.029 -0.3441 -0.0477  0.4299
52897SOL    HW265807   1.242   6.376   1.078 -0.6231  0.2985  0.5185
52898SOL     OW65808   8.690   1.629  11.429 -0.9236 -0.1738  0.1371
52898SOL    HW165809   8.595   1.633  11.437 -0.9165  0.1606  0.0678
52898SOL    HW265810   8.722   1.677  11.506 -0.8082 -0.4520  0.2639
52899SOL     OW65811  10.262   3.166   9.142 -0.7173 -0.2904  0.6332
52899SOL    HW165812  10.342   3.115   9.125 -1.0285 -0.5777  0.0320
52899SOL    HW265813  10.291   3.257   9.136 -0.5491 -0.3867 -0.1901
52900SOL     OW65814   9.516   4.135   0.126 -0.2779  0.8691  0.3408
52900SOL    HW165815   9.424   4.157   0.137  0.0410  2.3771  0.2528
52900SOL    HW265816   9.560   4.181   0.197  0.5134  1.0434 -0.2509
52901SOL     OW65817   7.069   0.483   1.518 -0.1301 -0.8112 -0.3140
52901SOL    HW165818   7.097   0.510   1.605 -0.4527 -0.6338 -0.2662
52901SOL    HW265819   7.028   0.397   1.532 -0.0650 -0.8422 -0.3115
52902SOL     OW65820  12.436   1.669   1.092 -0.8948 -0.4085 -0.0166
52902SOL    HW165821  12.429   1.604   1.021 -1.3356 -0.9776  0.5339
52902SOL    HW265822  12.357   1.722   1.084 -0.3664  0.3052 -0.6839
52903SOL     OW65823   9.495   8.649   7.122  0.4491  0.2553 -0.1344
52903SOL    HW165824   9.439   8.627   7.197 -1.4454  1.6611 -1.0565
52903SOL    HW265825   9.551   8.720   7.154 -0.0569  0.5568  0.0999
52904SOL     OW65826  12.343   3.958   2.972 -0.6670  0.6804  0.1955
52904SOL    HW165827  12.437   3.940   2.968 -1.1526 -3.2264  1.5340
52904SOL    HW265828  12.317   3.974   2.882  1.3639  2.7810 -0.0881
52905SOL     OW65829  11.807   3.668  11.496  0.1575  0.3906 -0.1137
52905SOL    HW165830  11.730   3.647  11.443  0.8971 -0.0750 -1.0390
52905SOL    HW265831  11.791   3.757  11.528 -0.5323  0.4875 -0.7086
52906SOL     OW65832  12.952   9.649   2.091 -0.1257 -0.5171 -0.5707
52906SOL    HW165833  12.873   9.619   2.135 -1.1382  1.0162 -1.2897
52906SOL    HW265834  12.935   9.634   1.997 -0.4012  1.6119 -0.8970
52907SOL     OW65835   8.404   8.802  10.990  0.1775  0.3479  0.2583
52907SOL    HW165836   8.485   8.819  11.038 -0.0127  1.4455  0.2289
52907SOL    HW265837   8.433   8.773  10.903  0.5259 -0.4455  0.6365
52908SOL     OW65838   8.860  10.988   7.592 -0.8669  0.6967 -0.1491
52908SOL    HW165839   8.916  10.917   7.563 -3.4646 -1.3055 -0.6898
52908SOL    HW265840   8.917  11.065   7.597  2.2593 -1.5255  1.1954
52909SOL     OW65841   4.324   3.851  12.041  0.9892 -0.1539 -0.0230
52909SOL    HW165842   4.362   3.924  12.090 -0.3424 -0.2940  1.3060
52909SOL    HW265843   4.306   3.886  11.954 -0.0595  1.2590  0.7327
52910SOL     OW65844   3.348   2.542   6.766  0.2687  0.8512 -0.1799
52910SOL    HW165845   3.271   2.521   6.713  0.0803 -0.9653  0.7289
52910SOL    HW265846   3.343   2.636   6.780 -0.8357  1.0317 -1.5702
52911SOL     OW65847  10.929   8.268   9.781 -0.6106  0.0932  0.0659
52911SOL    HW165848  10.889   8.338   9.729  0.0041  1.8431  1.8152
52911SOL    HW265849  11.003   8.310   9.825  0.6197 -2.0248  0.1738
52912SOL     OW65850   4.403   4.806   1.542 -0.0806 -0.0743 -0.3505
52912SOL    HW165851   4.316   4.779   1.515  0.0216 -1.3653  0.4942
52912SOL    HW265852   4.454   4.725   1.546  1.1886  0.6555 -0.8863
52913SOL     OW65853   6.920   7.298   7.011 -0.0984 -0.1384  0.1768
52913SOL    HW165854   7.008   7.269   7.033 -1.0442 -1.1385  3.0921
52913SOL    HW265855   6.896   7.358   7.082 -1.3701  1.0720 -1.1951
52914SOL     OW65856   0.378   9.385   8.387 -0.1316  0.2517 -0.2280
52914SOL    HW165857   0.304   9.338   8.347  0.1565  0.1332 -0.6247
52914SOL    HW265858   0.399   9.453   8.324 -1.8721  2.2811  1.2388
52915SOL     OW65859   8.895   8.832   1.820  0.0971  0.2309  0.1689
52915SOL    HW165860   8.946   8.810   1.742  2.7812  0.3665  1.7617
52915SOL    HW265861   8.865   8.922   1.806  0.2211  0.1194 -0.8372
52916SOL     OW65862   1.572   8.131   4.549  0.5871 -0.2331  0.4911
52916SOL    HW165863   1.505   8.172   4.603 -0.2417 -1.6589  0.5880
52916SOL    HW265864   1.531   8.121   4.463  0.9894 -0.3258  0.3059
52917SOL     OW65865   2.279   2.184   2.883  0.4296  0.4042  0.3261
52917SOL    HW165866   2.254   2.141   2.802 -4.8108  0.4933  1.5265
52917SOL    HW265867   2.297   2.274   2.858  1.8829 -0.2066 -0.9975
52918SOL     OW65868   2.054   2.493  12.737  0.2778  0.2233  0.3994
52918SOL    HW165869   2.105   2.574  12.736  1.9150 -0.7504 -0.6474
52918SOL    HW265870   1.963   2.522  12.732  0.6085  2.0607  2.7257
52919SOL     OW65871  10.767  12.177   4.209  0.0892 -0.1819  0.1481
52919SOL    HW165872  10.782  12.106   4.271 -0.6839  1.1122  1.9118
52919SOL    HW265873  10.679  12.161   4.175  0.6728 -1.1214 -0.9677
52920SOL     OW65874  10.693   8.236   4.010 -0.7669 -0.2861 -0.6359
52920SOL    HW165875  10.605   8.253   3.976 -1.8490  2.7483  3.0284
52920SOL    HW265876  10.739   8.319   4.000  0.5427 -0.8206  0.6000
52921SOL     OW65877  12.473  12.524  12.799 -0.0751  0.6664  0.4479
52921SOL    HW165878  12.443  12.435  12.780  0.7186  0.3134  0.7955
52921SOL    HW265879  12.406  12.559  12.858 -0.7425  0.5494 -0.2173
52922SOL     OW65880   5.013   1.914   4.046  0.1027  0.1455  0.1101
52922SOL    HW165881   4.954   1.874   4.109  1.0634 -0.0044  0.9414
52922SOL    HW265882   5.095   1.866   4.055  0.0783 -0.3210 -1.7413
52923SOL     OW65883   4.476  10.988   6.420  0.0915  0.0057  0.4409
52923SOL    HW165884   4.528  10.973   6.341  0.8361 -1.0752  1.1083
52923SOL    HW265885   4.526  11.052   6.469 -2.3258  3.9415 -1.6947
52924SOL     OW65886  12.036   8.595   1.645  0.0012  0.3164 -0.5230
52924SOL    HW165887  11.963   8.563   1.591 -1.5782  3.1054 -0.2557
52924SOL    HW265888  12.041   8.532   1.717 -3.7842  1.1167  0.6985
52925SOL     OW65889   2.266   2.897   4.937 -0.0704 -0.1161 -0.5019
52925SOL    HW165890   2.173   2.892   4.914 -0.2210 -0.3626  0.1416
52925SOL    HW265891   2.282   2.817   4.987  0.1897  0.5273  0.4537
52926SOL     OW65892  12.423   1.506   7.508 -0.1689  0.0054 -0.7305
52926SOL    HW165893  12.496   1.554   7.469  1.0495 -0.1531  1.2822
52926SOL    HW265894  12.439   1.415   7.486  1.0828 -0.2095  0.9199
52927SOL     OW65895   4.749   8.674  11.215  0.1379  0.5434 -0.5020
52927SOL    HW165896   4.726   8.759  11.176  0.1019  0.8342  0.1446
52927SOL    HW265897   4.797   8.697  11.295 -0.7546 -0.0297  0.2143
52928SOL     OW65898   9.947   7.129   1.791 -0.4100 -0.3198 -0.2997
52928SOL    HW165899   9.906   7.135   1.878 -0.8073 -0.8131 -0.4535
52928SOL    HW265900   9.887   7.076   1.739 -0.8722  1.1068 -1.2925
52929SOL     OW65901   1.230   2.500   1.713 -0.5621 -0.2071 -0.1478
52929SOL    HW165902   1.266   2.470   1.630  0.2549 -0.1517  0.1790
52929SOL    HW265903   1.272   2.444   1.779  1.0309  1.6434  0.4802
52930SOL     OW65904   8.995  10.400   0.638  0.2132  0.2417  0.1024
52930SOL    HW165905   9.071  10.356   0.601  0.7781 -0.1928  1.6866
52930SOL    HW265906   9.029  10.484   0.670 -0.4925  1.0999 -1.3168
52931SOL     OW65907   4.380   4.732   3.898  0.4870 -0.1050 -0.0686
52931SOL    HW165908   4.421   4.817   3.880  2.4942 -1.0259 -0.0898
52931SOL    HW265909   4.319   4.749   3.970 -0.8116  1.7622 -1.4899
52932SOL     OW65910   6.466   4.798   8.967  0.1378  0.1020  0.2329
52932SOL    HW165911   6.393   4.762   9.017 -0.3760  0.6157 -0.1430
52932SOL    HW265912   6.447   4.891   8.958  1.0133  0.3086  0.4239
52933SOL     OW65913  10.878   3.133   0.868  0.3045  0.6716 -0.3996
52933SOL    HW165914  10.946   3.108   0.805 -0.9019  0.5507 -1.6995
52933SOL    HW265915  10.846   3.217   0.836  0.6633  1.3272  0.9046
52934SOL     OW65916  10.557   5.855   1.271 -0.1158  0.3733 -0.0736
52934SOL    HW165917  10.571   5.941   1.231  1.3577  1.3294  2.2694
52934SOL    HW265918  10.626   5.800   1.233  0.2721  0.8300 -0.0510
52935SOL     OW65919   4.796   5.128   2.983 -0.8068 -0.1171 -0.0535
52935SOL    HW165920   4.811   5.041   2.945  1.2608 -0.0514  0.4728
52935SOL    HW265921   4.783   5.112   3.076  2.8706  0.2258  0.6881
52936SOL     OW65922   9.645   3.617   6.669  0.4655 -0.1341 -0.6478
52936SOL    HW165923   9.575   3.642   6.729  0.4227 -0.8824 -0.3885
52936SOL    HW265924   9.695   3.550   6.715  0.8728 -0.1881 -1.1553
52937SOL     OW65925  11.439  10.184   8.710  0.1556 -0.2380 -0.0202
52937SOL    HW165926  11.375  10.141   8.654  0.8817 -0.4860 -0.6848
52937SOL    HW265927  11.423  10.278   8.697  0.8050 -0.2806 -1.2522
52938SOL     OW65928  12.084   4.885   0.606 -0.2315  0.0886 -0.2176
52938SOL    HW165929  12.050   4.856   0.691  1.1986 -0.3902  0.2217
52938SOL    HW265930  12.134   4.964   0.625  0.2608 -0.1288 -0.5726
52939SOL     OW65931   6.971   8.896   4.810 -0.5984  0.0224  0.1171
52939SOL    HW165932   6.957   8.867   4.720  1.6156 -2.3252  0.4274
52939SOL    HW265933   7.005   8.819   4.856  1.6144  2.0083  2.1134
52940SOL     OW65934   5.386   1.830  10.833 -0.5387 -0.0584 -0.2723
52940SOL    HW165935   5.458   1.893  10.837 -1.4522  1.1137 -1.5694
52940SOL    HW265936   5.423   1.755  10.785  0.4672 -0.4370  1.0397
52941SOL     OW65937   9.534   0.093   1.485  0.2119 -0.1078  0.0236
52941SOL    HW165938   9.594   0.127   1.551 -1.0410 -2.0623  2.3587
52941SOL    HW265939   9.447   0.114   1.519 -0.4730 -0.8639 -1.1988
52942SOL     OW65940  10.060   9.268  10.579  0.6272 -0.4825 -0.3465
52942SOL    HW165941  10.028   9.186  10.617  0.4306  0.1592  0.8842
52942SOL    HW265942  10.128   9.240  10.518 -0.7185 -1.7017 -1.3702
52943SOL     OW65943   6.900  10.775   5.929  0.0642 -0.1627  0.7667
52943SOL    HW165944   6.995  10.758   5.923 -0.3761 -3.1871  0.3948
52943SOL    HW265945   6.875  10.742   6.015 -0.7509 -0.0257  0.5909
52944SOL     OW65946   0.022   9.215   3.859  1.4729  0.2099  0.6750
52944SOL    HW165947   0.047   9.307   3.851 -0.9538  0.8838  0.1120
52944SOL    HW265948  -0.034   9.212   3.937 -0.5913 -0.2368 -0.7504
52945SOL     OW65949  11.332   5.344   4.775  0.3605  0.5196 -0.1751
52945SOL    HW165950  11.363   5.429   4.807 -2.4239  1.1686  1.0660
52945SOL    HW265951  11.256   5.364   4.721 -0.6350 -1.1987  0.5084
52946SOL     OW65952   2.469  11.768   6.924 -0.0126  0.3859  0.0401
52946SOL    HW165953   2.557  11.785   6.891  0.2248 -0.6246  0.1163
52946SOL    HW265954   2.440  11.689   6.878 -1.1926  1.1417 -0.5629
52947SOL     OW65955   6.138  12.182   1.755  0.3513 -0.3182 -0.2456
52947SOL    HW165956   6.179  12.100   1.726  1.2929  0.3702 -0.9623
52947SOL    HW265957   6.105  12.222   1.674 -1.8917 -0.8827  0.3171
52948SOL     OW65958   4.482   5.264   7.680  0.6031 -0.0157  0.1958
52948SOL    HW165959   4.512   5.247   7.769 -1.6458  1.6370  1.3842
52948SOL    HW265960   4.441   5.182   7.652  2.5077 -0.9882  0.0790
52949SOL     OW65961   5.350   0.994  10.652 -0.2514  0.3452 -0.1250
52949SOL    HW165962   5.350   1.088  10.673  0.5528  0.4294 -0.4756
52949SOL    HW265963   5.434   0.979  10.609  0.1557 -0.7849  0.9967
52950SOL     OW65964  11.024   1.576   8.932  0.0621 -0.8905  0.1185
52950SOL    HW165965  10.955   1.529   8.886  0.6959 -0.1423 -1.7027
52950SOL    HW265966  10.980   1.622   9.003 -1.3026 -0.5716 -0.8958
52951SOL     OW65967   9.571  11.339   1.497  0.4926 -0.0310  0.3394
52951SOL    HW165968   9.613  11.255   1.481 -0.0373 -0.1108 -0.6759
52951SOL    HW265969   9.638  11.390   1.543  1.9628  0.0296 -1.7190
52952SOL     OW65970   8.134   3.749   9.011 -0.7828 -0.3261 -0.2037
52952SOL    HW165971   8.051   3.785   9.044 -1.2589 -0.2621 -1.4175
52952SOL    HW265972   8.109   3.666   8.972 -0.1571 -0.6053 -0.0093
52953SOL     OW65973   4.746   5.607   8.019 -0.0718  0.1091  0.4422
52953SOL    HW165974   4.809   5.613   8.091  0.0063 -0.2056  0.4016
52953SOL    HW265975   4.681   5.674   8.039  1.5798  2.2355 -0.8291
52954SOL     OW65976   2.782   7.802  11.429  0.6275 -0.3818 -0.0838
52954SOL    HW165977   2.705   7.801  11.486  0.9520 -2.9462  0.4436
52954SOL    HW265978   2.827   7.883  11.451 -1.8021  1.1233 -0.2887
52955SOL     OW65979  11.304   3.579   0.940 -0.0367 -0.5105  0.6107
52955SOL    HW165980  11.265   3.660   0.971  0.2779 -0.6399  1.3657
52955SOL    HW265981  11.398   3.599   0.933 -0.2120 -0.1892 -1.2187
52956SOL     OW65982   7.708   4.239   9.065  0.4199 -0.0164 -0.3957
52956SOL    HW165983   7.623   4.198   9.051 -0.2367  1.0880  0.2858
52956SOL    HW265984   7.769   4.165   9.074 -0.6263 -0.8387  0.1093
52957SOL     OW65985   3.327   5.034   3.733 -0.4125 -0.4071 -0.4416
52957SOL    HW165986   3.320   4.938   3.731  1.6089 -0.6394  0.9779
52957SOL    HW265987   3.326   5.059   3.641  0.7549 -1.9704 -0.9260
52958SOL     OW65988   8.798   9.918   4.204  0.4172 -0.5435  0.1906
52958SOL    HW165989   8.875   9.875   4.241  0.8299  0.6119  0.6844
52958SOL    HW265990   8.794  10.003   4.247 -1.4119 -0.7517  0.5331
52959SOL     OW65991   8.455  12.196   5.930 -0.1945 -0.1199 -0.5239
52959SOL    HW165992   8.475  12.245   5.850 -0.4029  1.7848  0.5346
52959SOL    HW265993   8.363  12.170   5.920  0.5843 -2.5843 -2.1942
52960SOL     OW65994   8.895   9.952   7.180  0.9531  0.3635  0.0078
52960SOL    HW165995   8.859  10.007   7.249 -0.4781  0.3978 -0.7251
52960SOL    HW265996   8.849   9.868   7.190 -0.3510  0.8203 -1.7640
52961SOL     OW65997   0.232   4.596   1.231  0.0176  0.2586 -0.1217
52961SOL    HW165998   0.210   4.589   1.138  0.8429  0.6923 -0.3522
52961SOL    HW265999   0.195   4.516   1.270 -0.4601  0.1445 -0.7859
52962SOL     OW66000   9.677   4.466   7.658  0.2477  0.3946 -0.0172
52962SOL    HW166001   9.734   4.514   7.718 -0.0097 -0.2616  0.7717
52962SOL    HW266002   9.633   4.534   7.607  0.1643  0.9867  0.8269
52963SOL     OW66003  11.102   9.622  10.476  0.1655  0.1884  0.3196
52963SOL    HW166004  11.128   9.565  10.548  1.8186  0.7634  0.2126
52963SOL    HW266005  11.184   9.657  10.442 -0.7670  3.5059  1.0915
52964SOL     OW66006   0.413   9.163   9.787 -0.3722 -0.1433 -0.1892
52964SOL    HW166007   0.485   9.190   9.844 -0.1459  1.6514 -1.2482
52964SOL    HW266008   0.334   9.191   9.833 -0.2244  0.6565 -0.4067
52965SOL     OW66009   2.307  11.703   4.076 -0.1506 -0.0368  0.3382
52965SOL    HW166010   2.353  11.785   4.095  2.1557 -1.1066 -0.3243
52965SOL    HW266011   2.239  11.729   4.013  0.8931  1.3049 -0.2929
52966SOL     OW66012   3.210  10.609   5.316 -0.4912  0.1663 -0.1909
52966SOL    HW166013   3.130  10.618   5.265 -0.3501 -1.5655 -0.7910
52966SOL    HW266014   3.239  10.519   5.300 -0.3341 -0.4117  2.7889
52967SOL     OW66015   9.439   5.522   1.491 -0.2847 -0.9678  0.0440
52967SOL    HW166016   9.441   5.599   1.434 -0.1482 -0.0890  1.1959
52967SOL    HW266017   9.345   5.505   1.504 -0.3135 -0.8007  0.0547
52968SOL     OW66018  10.662   6.581  10.395 -1.0896  0.4176 -0.0624
52968SOL    HW166019  10.663   6.509  10.332 -0.2596  0.9233 -0.6454
52968SOL    HW266020  10.574   6.579  10.432 -1.1362 -0.7800 -0.1961
52969SOL     OW66021   1.363  12.020  11.317  0.3172  0.1667 -0.5042
52969SOL    HW166022   1.346  11.927  11.302 -1.0343  0.3052  0.0176
52969SOL    HW266023   1.373  12.028  11.412  2.1849  0.3071 -0.6802
52970SOL     OW66024   5.256  10.288  10.117  0.5818  0.2161  1.1158
52970SOL    HW166025   5.254  10.242  10.201  1.2774  1.3460  1.7888
52970SOL    HW266026   5.165  10.308  10.098  0.0547 -2.7331  0.0019
52971SOL     OW66027   5.317  12.315   5.183  0.3027 -0.2004  0.5667
52971SOL    HW166028   5.249  12.367   5.140  0.8663  0.0064 -0.0948
52971SOL    HW266029   5.348  12.371   5.254  1.8472  0.9828 -0.9648
52972SOL     OW66030   5.818   2.907   3.857  0.0816  0.0072 -0.4723
52972SOL    HW166031   5.843   2.843   3.790 -0.4942 -0.8358  0.0963
52972SOL    HW266032   5.803   2.988   3.809  1.4454 -0.1078 -1.1313
52973SOL     OW66033   7.290  12.927   7.740  0.2423  0.1642 -0.4558
52973SOL    HW166034   7.338  13.003   7.774  0.2057  0.2410 -0.5777
52973SOL    HW266035   7.200  12.939   7.771 -0.0286  0.7573 -1.4184
52974SOL     OW66036  10.389   8.256   3.927  0.0241  0.6587 -0.1600
52974SOL    HW166037  10.300   8.291   3.922 -1.0138 -1.8839 -1.1288
52974SOL    HW266038  10.443   8.323   3.886 -1.1655  2.8978  1.6967
52975SOL     OW66039   5.653  10.139   9.036  0.5326 -0.0140  0.4236
52975SOL    HW166040   5.711  10.069   9.007 -0.1155 -0.7754  0.9366
52975SOL    HW266041   5.645  10.197   8.961  0.3519 -0.9657 -0.3059
52976SOL     OW66042   2.840   1.037   4.793 -0.5912  0.0038 -0.2608
52976SOL    HW166043   2.845   1.067   4.702 -1.4786 -1.2318 -0.7283
52976SOL    HW266044   2.931   1.017   4.816 -0.3404  0.4627 -0.8105
52977SOL     OW66045   0.655   0.759  11.173  0.0057  0.7717 -1.1426
52977SOL    HW166046   0.748   0.765  11.197  0.1052 -1.5238 -0.6711
52977SOL    HW266047   0.632   0.668  11.192 -1.6233  0.5127 -3.8470
52978SOL     OW66048   6.755   3.497   5.432 -0.0038 -0.3113  0.1577
52978SOL    HW166049   6.677   3.448   5.408 -0.8409  0.3207  1.4794
52978SOL    HW266050   6.798   3.443   5.499 -0.1576  0.0593  0.5640
52979SOL     OW66051   8.226   6.041   1.149 -0.0328  0.2151 -0.3814
52979SOL    HW166052   8.189   6.121   1.186 -0.0204  0.3502 -0.6645
52979SOL    HW266053   8.281   6.006   1.220  2.9848  2.4020 -1.4352
52980SOL     OW66054   9.243   5.014   4.999 -0.1298  0.3505 -0.4563
52980SOL    HW166055   9.176   4.981   5.058  1.3734 -2.3203 -0.0911
52980SOL    HW266056   9.287   5.083   5.049 -0.9601  0.3752  0.2616
52981SOL     OW66057   3.521   8.083   8.694 -0.8962  0.2842  0.1442
52981SOL    HW166058   3.540   8.061   8.785 -1.9138 -0.0302  0.3011
52981SOL    HW266059   3.603   8.119   8.660 -0.3352 -0.1343  1.0129
52982SOL     OW66060   5.264  12.207   3.608  0.2165 -0.1640 -0.2615
52982SOL    HW166061   5.348  12.192   3.565  0.4091 -0.1008  0.0898
52982SOL    HW266062   5.209  12.245   3.540  0.5716  0.0959 -0.4074
52983SOL     OW66063   6.405   5.130  12.604 -0.2154  0.3432 -0.4479
52983SOL    HW166064   6.366   5.188  12.669 -1.3799 -2.1285  1.1927
52983SOL    HW266065   6.330   5.087  12.562  0.5984 -1.5959 -0.0233
52984SOL     OW66066  12.452   8.196   1.048  0.6450 -0.2349 -0.1780
52984SOL    HW166067  12.536   8.241   1.054  0.8224 -0.6103  0.2500
52984SOL    HW266068  12.388   8.266   1.035  0.4595  0.6286  3.9368
52985SOL     OW66069   9.597   8.338   0.220 -0.2597 -0.1702  0.5336
52985SOL    HW166070   9.634   8.426   0.214 -1.8363  0.4715 -0.6055
52985SOL    HW266071   9.624   8.294   0.139 -0.8162 -0.1520  0.3290
52986SOL     OW66072  11.876   2.466   4.136 -0.4214 -0.4495 -0.7753
52986SOL    HW166073  11.823   2.546   4.143  1.4108  0.6627  1.8251
52986SOL    HW266074  11.818   2.396   4.167 -0.4036  0.7825  2.3661
52987SOL     OW66075   6.486   4.806   8.272  0.0243 -0.1788 -0.5366
52987SOL    HW166076   6.471   4.715   8.246  1.4482 -1.4195  2.4660
52987SOL    HW266077   6.401   4.834   8.307 -0.0234 -0.9382 -0.0121
52988SOL     OW66078   5.238   0.145   1.790 -0.0217 -0.2236  0.3344
52988SOL    HW166079   5.164   0.096   1.755 -1.7819  3.6589 -2.0472
52988SOL    HW266080   5.306   0.136   1.723 -0.9515  1.6931 -0.9711
52989SOL     OW66081   3.631   9.526   1.495 -0.2146 -0.5043  0.0103
52989SOL    HW166082   3.550   9.479   1.475 -0.4968 -0.5849  1.2459
52989SOL    HW266083   3.679   9.466   1.553  0.0470  0.1549  0.4781
52990SOL     OW66084   5.732   1.156   6.889  0.3003  0.1525 -0.1938
52990SOL    HW166085   5.816   1.117   6.914 -0.8271 -2.5616 -0.2370
52990SOL    HW266086   5.740   1.175   6.796  0.8820 -0.0574 -0.1874
52991SOL     OW66087   3.604  10.878   8.507 -0.1479  0.1977 -0.5941
52991SOL    HW166088   3.651  10.795   8.505  0.9642  0.8168 -0.7886
52991SOL    HW266089   3.512  10.853   8.514  0.2688 -1.0686  4.5644
52992SOL     OW66090   0.386   6.334   5.165 -0.4533  0.1912  0.1077
52992SOL    HW166091   0.319   6.269   5.187 -0.7041  0.4508  0.1016
52992SOL    HW266092   0.354   6.376   5.085  0.2484 -0.4530 -0.5448
52993SOL     OW66093  12.819  11.126   7.485 -0.1542 -0.0190  0.5566
52993SOL    HW166094  12.735  11.081   7.491  0.2779 -0.8701  0.3635
52993SOL    HW266095  12.883  11.056   7.476  0.3261  0.6792 -2.2610
52994SOL     OW66096   5.463   0.152   2.688  0.0925  0.2049  0.8268
52994SOL    HW166097   5.518   0.106   2.625  0.4257 -1.1221  2.0384
52994SOL    HW266098   5.373   0.132   2.660  0.2378 -0.4455  0.8077
52995SOL     OW66099   2.345   5.838  10.750  0.2200 -0.2761  0.3158
52995SOL    HW166100   2.354   5.875  10.838 -1.4975  1.3808 -0.1329
52995SOL    HW266101   2.324   5.913  10.695  1.9699 -1.1731 -1.6698
52996SOL     OW66102   1.639   1.257   3.091 -0.1536  0.6483  0.1242
52996SOL    HW166103   1.651   1.190   3.023 -1.4116 -1.1450  1.5880
52996SOL    HW266104   1.576   1.318   3.054  1.5926  1.5633 -1.5424
52997SOL     OW66105   5.618   5.372  12.369 -0.1917  0.2089  0.0135
52997SOL    HW166106   5.631   5.287  12.326  1.1452 -0.2598  1.2689
52997SOL    HW266107   5.703   5.414  12.368 -0.2057  0.3813  1.7165
52998SOL     OW66108   0.808  11.013   3.064 -0.1155 -0.9476 -0.1948
52998SOL    HW166109   0.732  10.980   3.015 -0.0877 -3.6547  1.3688
52998SOL    HW266110   0.884  10.987   3.010 -0.1648 -2.3938  0.3722
52999SOL     OW66111   6.035   5.763   8.487  0.0543 -0.2032 -0.3535
52999SOL    HW166112   6.078   5.792   8.407  0.8368  0.1226  0.1735
52999SOL    HW266113   6.106   5.749   8.549 -0.2914 -2.8794 -0.4469
53000SOL     OW66114   0.914  10.407   3.008 -0.2819  0.4980 -0.1257
53000SOL    HW166115   0.997  10.449   2.987  0.8544 -1.2224  0.6073
53000SOL    HW266116   0.921  10.386   3.102 -1.1807 -0.3926 -0.2398
53001SOL     OW66117  12.091  12.724   2.792  0.3074 -0.0633 -0.3192
53001SOL    HW166118  12.148  12.773   2.734  0.3482 -0.0975 -0.3078
53001SOL    HW266119  12.150  12.681   2.854  0.1686  3.2336  2.4135
53002SOL     OW66120   9.046  11.983   7.874  0.2878 -0.3392  0.0581
53002SOL    HW166121   8.977  11.951   7.932 -2.7758  3.2149 -1.2943
53002SOL    HW266122   9.052  11.917   7.805 -1.5157 -0.8728  0.3716
53003SOL     OW66123  10.691   2.051   3.632  0.4441  0.0058  0.6808
53003SOL    HW166124  10.606   2.035   3.591 -0.4148 -1.1256  2.7639
53003SOL    HW266125  10.671   2.094   3.715  1.9492  0.3230  0.9131
53004SOL     OW66126   7.448  11.428   8.680 -0.4487  0.1647 -0.3354
53004SOL    HW166127   7.460  11.357   8.617 -1.8859  0.0743 -0.5553
53004SOL    HW266128   7.360  11.414   8.715  0.2342  0.3368  1.5591
53005SOL     OW66129   2.780   3.732   3.429 -0.4226 -0.2394 -0.8889
53005SOL    HW166130   2.710   3.686   3.382  0.1426 -0.5722 -1.4136
53005SOL    HW266131   2.817   3.792   3.363 -0.4960  0.2535 -0.4906
53006SOL     OW66132  11.934   2.345   3.192 -0.3851  0.1867 -0.1764
53006SOL    HW166133  11.852   2.393   3.205  0.2032  1.0451  0.4575
53006SOL    HW266134  11.998   2.392   3.245  0.3893 -0.8377 -0.1674
53007SOL     OW66135   4.332  11.944   2.207 -0.2062 -0.6309  0.2346
53007SOL    HW166136   4.290  11.876   2.154 -0.2707 -1.0698  0.8504
53007SOL    HW266137   4.416  11.959   2.164 -1.2548  0.8371 -1.5154
53008SOL     OW66138  10.258   0.173   2.154 -0.2305 -0.3465  0.5654
53008SOL    HW166139  10.319   0.157   2.082 -2.0666 -0.7376 -1.0033
53008SOL    HW266140  10.254   0.090   2.202  1.0292 -0.0742  1.1725
53009SOL     OW66141   3.557   7.470  11.181  0.5719  0.7647  0.3368
53009SOL    HW166142   3.553   7.542  11.118  1.6088  0.5606  0.0054
53009SOL    HW266143   3.508   7.500  11.257 -1.0568  0.8625 -0.7062
53010SOL     OW66144   3.129   6.866  12.030  0.0764 -0.3158  0.2492
53010SOL    HW166145   3.082   6.942  12.063  0.9131  0.8368 -1.0803
53010SOL    HW266146   3.181   6.836  12.104 -1.9711 -1.0285  1.4579
53011SOL     OW66147   8.034  10.501   7.068  0.4263 -0.5615  0.3114
53011SOL    HW166148   8.006  10.450   6.992 -1.4651 -0.4540  0.8775
53011SOL    HW266149   7.980  10.580   7.065  1.6358  0.3061  0.7638
53012SOL     OW66150   5.239   7.959  10.986  0.2599  0.2927  0.8597
53012SOL    HW166151   5.202   8.032  11.036 -0.1605  0.2208  0.6569
53012SOL    HW266152   5.194   7.882  11.020  0.9486  0.0814  1.3135
53013SOL     OW66153   5.817   7.567   0.636  0.0686 -0.2816  0.3910
53013SOL    HW166154   5.855   7.509   0.570 -0.7496  0.1183 -0.4635
53013SOL    HW266155   5.892   7.607   0.680  0.6281 -0.3351 -0.4988
53014SOL     OW66156  10.907   0.778  10.607 -0.4138 -0.1662 -0.0307
53014SOL    HW166157  10.986   0.735  10.641 -0.6337 -3.2600 -2.9282
53014SOL    HW266158  10.836   0.743  10.661 -0.1179  0.5399  0.8457
53015SOL     OW66159   0.271   0.003  10.138 -0.4254  0.3503 -0.0567
53015SOL    HW166160   0.325  -0.002  10.059  0.4962  0.6450  0.5375
53015SOL    HW266161   0.228   0.088  10.132  0.5011  0.8641  0.2737
53016SOL     OW66162  12.680   4.740  10.063 -0.4882  0.0894 -0.5674
53016SOL    HW166163  12.706   4.658  10.020  1.5273  1.0569 -1.3350
53016SOL    HW266164  12.598   4.719  10.107  0.9449 -2.9170  0.9609
53017SOL     OW66165  11.270   7.891   5.539  0.1502  0.1934  0.2939
53017SOL    HW166166  11.236   7.945   5.468 -0.1410  1.7250  1.5398
53017SOL    HW266167  11.220   7.809   5.533 -1.2124  1.0200 -0.1327
53018SOL     OW66168  11.672   0.134   4.257 -0.2221 -0.1559 -0.4575
53018SOL    HW166169  11.760   0.098   4.256 -0.5819 -1.2589  1.5070
53018SOL    HW266170  11.677   0.213   4.204  2.0700  0.0981  0.0544
53019SOL     OW66171   3.136   0.100   8.462  0.3305  0.0777 -0.4394
53019SOL    HW166172   3.169   0.130   8.378  2.0766  0.0511  0.1996
53019SOL    HW266173   3.068   0.036   8.439  0.0014  0.8694 -1.8030
53020SOL     OW66174   7.888   8.342   8.551  0.1180 -0.7747  0.1743
53020SOL    HW166175   7.977   8.363   8.581 -0.3233  0.8708  0.4014
53020SOL    HW266176   7.887   8.366   8.459 -0.1502 -0.6172  0.2183
53021SOL     OW66177   8.538   3.503  12.692  0.1416  0.8270  0.0219
53021SOL    HW166178   8.625   3.544  12.690 -0.3146  1.8147 -0.5317
53021SOL    HW266179   8.555   3.411  12.710  1.2576  1.1278  0.6284
53022SOL     OW66180   8.459   9.389  12.605 -0.5628 -1.0306 -0.1209
53022SOL    HW166181   8.491   9.448  12.537  0.0033 -1.7488 -0.4925
53022SOL    HW266182   8.366   9.379  12.587 -0.8419  0.3859  0.4413
53023SOL     OW66183   0.321   8.620   9.598 -0.1990  0.2722 -0.7038
53023SOL    HW166184   0.279   8.597   9.515 -0.7749 -0.1501 -0.3018
53023SOL    HW266185   0.258   8.677   9.642 -0.8525 -1.2358  0.3805
53024SOL     OW66186   4.431   1.042   6.439  0.5587  0.1571  0.1838
53024SOL    HW166187   4.467   1.088   6.363  0.3412 -0.1501 -0.1049
53024SOL    HW266188   4.344   1.015   6.411  0.6283 -0.2983  0.4104
53025SOL     OW66189  12.433  10.003   7.859  0.5112 -0.3088 -0.4204
53025SOL    HW166190  12.467   9.935   7.917 -0.6886 -0.9968 -0.4924
53025SOL    HW266191  12.407  10.074   7.919 -0.1343 -0.7592 -0.1606
53026SOL     OW66192  10.891  12.092   8.383 -0.3364 -0.0149  0.4762
53026SOL    HW166193  10.970  12.145   8.393 -0.3017 -0.1810  1.1644
53026SOL    HW266194  10.821  12.155   8.370 -0.6680  0.4280  3.5402
53027SOL     OW66195   3.326   9.411  10.538 -0.4218 -0.8779  0.1940
53027SOL    HW166196   3.273   9.446  10.609 -0.3536  2.0953 -1.0897
53027SOL    HW266197   3.415   9.408  10.573 -0.2360  1.4266  0.0248
53028SOL     OW66198  12.539   5.169   9.349  0.4491 -0.6113  0.5363
53028SOL    HW166199  12.463   5.147   9.403  1.0872  0.3836  1.8897
53028SOL    HW266200  12.601   5.099   9.365  0.0602 -1.1246 -0.1312
53029SOL     OW66201   0.720   3.175   8.413  0.3662  0.2699  0.0826
53029SOL    HW166202   0.696   3.263   8.442 -0.7661 -0.4513  1.4542
53029SOL    HW266203   0.656   3.154   8.345  1.7889  1.1812 -1.6275
53030SOL     OW66204   9.460   8.681   1.743 -0.0843  0.3642  0.2609
53030SOL    HW166205   9.472   8.666   1.649 -1.0769  0.3070  0.1308
53030SOL    HW266206   9.383   8.738   1.748  0.3376  0.8826  1.0182
53031SOL     OW66207   0.855   5.955  11.644  0.1344 -0.1883  0.0591
53031SOL    HW166208   0.831   5.986  11.732 -0.3898 -0.2001 -0.0728
53031SOL    HW266209   0.771   5.947  11.598  0.4285  0.1125 -0.5445
53032SOL     OW66210  11.240   3.483   8.526  0.1312  0.2774 -1.1492
53032SOL    HW166211  11.319   3.490   8.473  0.0046 -1.3645 -1.6169
53032SOL    HW266212  11.269   3.439   8.606  0.5642  3.7191  0.8016
53033SOL     OW66213   7.903   2.102  10.245  0.0653 -0.0477 -0.1238
53033SOL    HW166214   7.939   2.098  10.334 -1.3155  2.0397  0.6113
53033SOL    HW266215   7.878   2.012  10.225  0.8585 -0.6428  1.4054
53034SOL     OW66216  10.951   8.839   8.877  0.6558 -0.2546  0.6149
53034SOL    HW166217  10.937   8.930   8.904  0.1446 -0.1914  0.1517
53034SOL    HW266218  10.993   8.846   8.791 -1.2207 -0.4222 -0.3761
53035SOL     OW66219   3.834   0.410   2.332 -0.3602 -0.0712  0.5894
53035SOL    HW166220   3.886   0.484   2.300  1.1978  0.1910  3.3871
53035SOL    HW266221   3.865   0.335   2.281 -0.6227  0.8494 -0.9903
53036SOL     OW66222   5.740   9.896   7.356  0.0169 -0.2013  0.2051
53036SOL    HW166223   5.794   9.873   7.280 -1.2918 -3.9861  0.2225
53036SOL    HW266224   5.652   9.866   7.333 -1.4271  2.5391  1.6028
53037SOL     OW66225   9.917  12.825  12.216 -0.4593  0.5438 -0.4552
53037SOL    HW166226   9.891  12.804  12.305  1.7427 -2.0576 -0.3043
53037SOL    HW266227   9.863  12.901  12.192 -1.9953  0.5417  2.5903
53038SOL     OW66228   2.166   6.000   1.697  0.3195 -0.3660 -0.5838
53038SOL    HW166229   2.198   6.086   1.723 -0.6300 -0.4484  1.0179
53038SOL    HW266230   2.236   5.963   1.643  1.7358  0.4952  0.6035
53039SOL     OW66231  12.276  10.041   5.630 -0.1338  0.2709  0.3420
53039SOL    HW166232  12.209  10.024   5.564 -0.6824  0.9111  0.7232
53039SOL    HW266233  12.264  10.133   5.653 -1.8094 -0.5579  3.3681
53040SOL     OW66234   7.745   0.775   0.694  0.0099 -0.4150  0.1544
53040SOL    HW166235   7.684   0.846   0.672 -1.1115 -0.6631  2.2569
53040SOL    HW266236   7.748   0.721   0.615 -1.8065  0.0979 -0.3165
53041SOL     OW66237  10.957  10.547   8.909  0.3678  0.1133  0.1607
53041SOL    HW166238  10.899  10.609   8.864  2.1888  0.2435 -2.2205
53041SOL    HW266239  10.905  10.515   8.983 -1.9892  1.6717 -0.6917
53042SOL     OW66240   6.034   8.461   4.240  0.3386 -0.5198  0.1399
53042SOL    HW166241   6.047   8.541   4.189 -0.8868 -0.7842 -0.6207
53042SOL    HW266242   6.066   8.391   4.183 -4.1351 -1.2287 -1.9171
53043SOL     OW66243   6.326   4.060  11.210 -0.0195  0.4135  0.2004
53043SOL    HW166244   6.284   4.123  11.270  0.4134 -0.6502  1.6765
53043SOL    HW266245   6.418   4.060  11.236 -0.1798 -1.5296  0.9127
53044SOL     OW66246   7.252   1.485  11.927 -0.2210  0.3378 -0.9245
53044SOL    HW166247   7.250   1.502  11.833 -0.9307 -1.9916 -1.4036
53044SOL    HW266248   7.159   1.479  11.952 -0.0333 -0.5515 -0.4050
53045SOL     OW66249   7.259  10.669   1.888 -0.3195 -0.0086 -0.6453
53045SOL    HW166250   7.343  10.709   1.908 -0.6623  1.3588 -1.7167
53045SOL    HW266251   7.262  10.582   1.928  1.2049  0.3915  0.1547
53046SOL     OW66252   4.116  12.217   5.575  0.2975  0.0020 -0.1176
53046SOL    HW166253   4.082  12.229   5.487 -1.6204 -2.3752  0.1834
53046SOL    HW266254   4.061  12.273   5.630 -0.5368 -0.8039 -0.1093
53047SOL     OW66255  10.174   6.773   2.954  0.4609 -0.4522  0.4001
53047SOL    HW166256  10.239   6.792   2.887 -0.0660  1.0819  0.2946
53047SOL    HW266257  10.110   6.716   2.911 -0.2535  1.0923 -0.6499
53048SOL     OW66258   8.005   2.728   8.668 -0.7126  0.1086  0.0724
53048SOL    HW166259   7.997   2.664   8.738 -0.7401 -0.2918 -0.2883
53048SOL    HW266260   7.973   2.682   8.590 -2.0197  0.9921  0.0560
53049SOL     OW66261   7.281   6.441   5.950 -0.0793 -0.4716  0.2389
53049SOL    HW166262   7.274   6.368   5.888 -1.3392 -0.2658  0.1235
53049SOL    HW266263   7.301   6.400   6.034  1.8372 -0.7467 -0.2875
53050SOL     OW66264   4.408   1.828   3.741  0.2276 -0.1531  0.4699
53050SOL    HW166265   4.380   1.796   3.656 -1.4482  1.1748  0.4857
53050SOL    HW266266   4.328   1.832   3.793  0.5906  2.4542  0.9567
53051SOL     OW66267  11.353   2.136   5.092 -0.5088  0.2150  1.0007
53051SOL    HW166268  11.425   2.176   5.042 -1.7049  0.6791 -0.4234
53051SOL    HW266269  11.283   2.123   5.027 -2.1246  0.7867  2.5502
53052SOL     OW66270   8.062   6.541   5.355 -0.8368  0.0773  0.5860
53052SOL    HW166271   8.097   6.545   5.266 -3.7582  0.0996 -0.6406
53052SOL    HW266272   8.053   6.448   5.374 -1.3935  0.0915  0.3789
53053SOL     OW66273   5.156   3.678   9.741  0.3599 -0.4260  0.1542
53053SOL    HW166274   5.154   3.774   9.738 -2.3377 -0.4467 -0.7204
53053SOL    HW266275   5.110   3.655   9.822 -0.0439 -1.0079 -0.2357
53054SOL     OW66276   4.107   3.655   3.279 -0.5080  0.2754  0.1954
53054SOL    HW166277   4.169   3.727   3.290  1.3825 -0.9162 -1.7906
53054SOL    HW266278   4.029   3.683   3.326  0.8518  2.7101  1.1892
53055SOL     OW66279   1.083   3.742   0.663 -0.2088  0.1750 -0.1158
53055SOL    HW166280   1.142   3.817   0.653 -0.1212  0.2450  0.8544
53055SOL    HW266281   1.128   3.685   0.725 -0.1693 -0.7965 -1.0116
53056SOL     OW66282   8.930   9.075   9.423 -0.3404 -0.2011 -0.0864
53056SOL    HW166283   8.899   9.160   9.455  1.2661  0.1628  0.5936
53056SOL    HW266284   8.876   9.057   9.347 -0.2628  1.7662 -0.6493
53057SOL     OW66285   0.120   9.752  11.703  0.1348 -0.2208 -0.3961
53057SOL    HW166286   0.193   9.768  11.644 -0.0897  1.9460 -0.1824
53057SOL    HW266287   0.150   9.786  11.787  0.2002 -2.6539  0.6507
53058SOL     OW66288   5.378  11.246   0.529 -0.3038  0.3449 -0.0449
53058SOL    HW166289   5.462  11.199   0.535  0.3014  1.1806 -1.4347
53058SOL    HW266290   5.343  11.244   0.618 -0.1551 -2.4222  0.0444
53059SOL     OW66291   1.152   8.409   0.555  0.2233 -0.1442  0.6613
53059SOL    HW166292   1.195   8.489   0.523 -1.6692 -0.2998 -2.7834
53059SOL    HW266293   1.066   8.439   0.585 -0.3692 -0.7591 -0.3389
53060SOL     OW66294   3.335   2.170   4.248 -0.1848  0.6980  0.3403
53060SOL    HW166295   3.284   2.098   4.285 -2.6861  1.6453 -1.0255
53060SOL    HW266296   3.286   2.249   4.272  1.1497  1.7654 -0.3066
53061SOL     OW66297   7.677   1.279  10.867  0.5757 -0.1307 -0.5803
53061SOL    HW166298   7.621   1.334  10.922 -0.1142  0.6321 -1.9862
53061SOL    HW266299   7.619   1.209  10.837 -0.2119  1.6115 -3.4463
53062SOL     OW66300   7.193  12.749   4.668  0.3255 -0.2424 -0.2096
53062SOL    HW166301   7.117  12.704   4.705  0.9883 -0.7442  0.5841
53062SOL    HW266302   7.168  12.842   4.671  0.3105 -0.2687  1.4572
53063SOL     OW66303   6.443  11.025  11.353  0.6487  0.3853  0.0656
53063SOL    HW166304   6.535  11.047  11.340  0.8397 -0.3216  0.1755
53063SOL    HW266305   6.396  11.077  11.288  1.3632 -1.2224 -1.8575
53064SOL     OW66306   8.704   9.896  12.543  0.8580 -0.2945  0.1307
53064SOL    HW166307   8.701   9.941  12.459 -0.1338  1.2762  0.9698
53064SOL    HW266308   8.768   9.944  12.595  3.7639 -3.0237 -0.5999
53065SOL     OW66309   3.589   2.624  11.627 -0.0276 -1.0967 -0.4398
53065SOL    HW166310   3.606   2.604  11.534  1.3330  1.4433 -0.8381
53065SOL    HW266311   3.674   2.612  11.669 -0.4458 -1.4152  0.3138
53066SOL     OW66312   7.192   5.890   9.947  0.2630  0.7020  0.3946
53066SOL    HW166313   7.224   5.894   9.857 -0.0181 -0.1222  0.2500
53066SOL    HW266314   7.103   5.924   9.943 -0.1785 -0.4348  0.1357
53067SOL     OW66315  10.034  12.284  10.465 -1.0624  0.3009 -0.4128
53067SOL    HW166316   9.955  12.335  10.448 -2.0363 -1.6344 -2.1164
53067SOL    HW266317  10.075  12.273  10.379 -0.1116 -0.5416  0.1224
53068SOL     OW66318   7.441  10.412   3.229  0.1810  0.3563  0.0743
53068SOL    HW166319   7.426  10.400   3.323 -1.9172  1.7819 -0.0171
53068SOL    HW266320   7.513  10.353   3.209 -1.4902 -2.5278  1.9058
53069SOL     OW66321   4.037  10.922   6.901 -0.1048 -0.0675 -0.6423
53069SOL    HW166322   4.132  10.919   6.896 -0.0442 -0.7183  0.4975
53069SOL    HW266323   4.009  10.833   6.883 -0.2673 -0.6814  2.1240
53070SOL     OW66324   0.775  11.771   1.560  0.5319 -0.2055  0.0818
53070SOL    HW166325   0.747  11.780   1.468  1.7311  2.9476 -0.1006
53070SOL    HW266326   0.865  11.739   1.554  0.7409  0.3726  0.1396
53071SOL     OW66327   0.817   0.398   1.141  1.1759 -0.2914  0.9008
53071SOL    HW166328   0.848   0.366   1.057  0.0415 -0.3448  0.4842
53071SOL    HW266329   0.768   0.325   1.178 -0.3990  0.5146  0.4916
53072SOL     OW66330   7.362   9.943   0.740  0.1538 -0.6103  0.0900
53072SOL    HW166331   7.353  10.015   0.677 -0.0651 -1.9848 -1.5143
53072SOL    HW266332   7.325   9.977   0.821 -0.9832  0.6967 -0.9405
53073SOL     OW66333  12.149   8.290   9.183 -0.0624 -0.5132 -0.5901
53073SOL    HW166334  12.157   8.337   9.100 -0.2972  1.3726  0.4037
53073SOL    HW266335  12.239   8.289   9.218  0.0487 -1.3641 -0.8723
53074SOL     OW66336   0.103   2.248   9.388  0.6374 -0.6395 -0.1740
53074SOL    HW166337   0.135   2.321   9.441 -1.9542  0.5221 -0.0804
53074SOL    HW266338   0.093   2.285   9.300  0.3954 -1.2246 -0.3975
53075SOL     OW66339   8.779   1.379   2.847  0.2898 -0.2527 -0.1233
53075SOL    HW166340   8.740   1.434   2.779 -1.4807 -1.5404 -0.2544
53075SOL    HW266341   8.708   1.366   2.910  1.4172 -0.3902  1.1505
53076SOL     OW66342   5.452   2.189   7.103  0.0916 -0.0796 -0.1200
53076SOL    HW166343   5.505   2.268   7.109  0.0282 -0.0373 -0.1089
53076SOL    HW266344   5.489   2.129   7.168 -0.4967  0.3150  0.5894
53077SOL     OW66345   9.342   2.337   8.863 -0.0862  0.1532 -0.4394
53077SOL    HW166346   9.374   2.358   8.775 -1.6096 -0.8966 -1.2925
53077SOL    HW266347   9.323   2.244   8.860 -0.1046  0.0908  1.0370
53078SOL     OW66348   2.290   7.067  11.038  0.5888 -0.3044 -0.8310
53078SOL    HW166349   2.202   7.090  11.067  0.4792 -1.7349  0.0577
53078SOL    HW266350   2.335   7.151  11.027 -0.2592  0.3776  0.7116
53079SOL     OW66351   3.894   2.043  10.777 -0.2224  0.4764 -0.2347
53079SOL    HW166352   3.948   2.009  10.705 -0.3957 -0.0549 -0.1162
53079SOL    HW266353   3.951   2.106  10.822  0.2620  0.0007 -0.1736
53080SOL     OW66354   3.299  12.493   3.307 -0.1193 -0.2352 -0.2602
53080SOL    HW166355   3.394  12.501   3.316 -0.1580  1.2117 -0.8745
53080SOL    HW266356   3.276  12.419   3.364  1.1279  0.6484  1.4963
53081SOL     OW66357   7.871  10.351   7.725  0.1224 -0.2000  0.0827
53081SOL    HW166358   7.953  10.305   7.704 -0.3732 -1.8305  1.4710
53081SOL    HW266359   7.826  10.358   7.640  0.7511 -1.2738 -0.3717
53082SOL     OW66360   8.607   6.061   4.813  0.0943 -0.1076 -0.2424
53082SOL    HW166361   8.701   6.073   4.825  0.2912 -1.8823  0.3717
53082SOL    HW266362   8.567   6.129   4.867  1.0233  0.3096 -0.0599
53083SOL     OW66363   3.487   9.064   8.924 -0.3212  0.5768 -0.0409
53083SOL    HW166364   3.551   9.119   8.968 -0.2427  0.6081 -0.1933
53083SOL    HW266365   3.435   9.125   8.871 -0.0264  0.4639 -0.4598
53084SOL     OW66366   8.135   6.459   2.402  0.4195 -0.2553  0.2115
53084SOL    HW166367   8.174   6.395   2.462  0.3104 -0.1994  0.3427
53084SOL    HW266368   8.184   6.447   2.320  2.7889  1.8212  1.1893
53085SOL     OW66369  10.898  10.437  12.807  0.4647  0.6464  0.3663
53085SOL    HW166370  10.819  10.400  12.847  0.6263 -0.4342 -0.2845
53085SOL    HW266371  10.937  10.364  12.758  1.6929  1.2492  0.4113
53086SOL     OW66372   8.836  10.716   0.392  0.0839  0.7982  0.2287
53086SOL    HW166373   8.812  10.792   0.339 -0.4115  0.9602  0.6845
53086SOL    HW266374   8.820  10.641   0.335  1.8177  1.0718 -0.7068
53087SOL     OW66375   8.329   6.029  12.339 -0.3477  0.0064 -0.0144
53087SOL    HW166376   8.415   6.064  12.319 -0.6358  0.9458  0.3523
53087SOL    HW266377   8.333   5.938  12.310  0.1537  0.5388 -1.6886
53088SOL     OW66378   2.659  11.865  11.808  0.2293  0.2089 -0.1478
53088SOL    HW166379   2.581  11.812  11.790  0.9324 -0.3616 -1.6776
53088SOL    HW266380   2.664  11.926  11.734  1.4171  0.0040 -0.2506
53089SOL     OW66381   5.947  10.603  11.879  0.2993 -0.3451  0.4641
53089SOL    HW166382   5.912  10.605  11.968 -1.4065 -0.9078 -0.1431
53089SOL    HW266383   6.008  10.530  11.878 -0.7078 -1.2202  0.8500
53090SOL     OW66384   1.317   9.006   7.620  0.7476 -0.3792 -0.2759
53090SOL    HW166385   1.363   8.925   7.639  2.0710  0.1035 -1.2487
53090SOL    HW266386   1.382   9.075   7.635 -0.0079  0.4246 -0.5486
53091SOL     OW66387   9.874   8.229  11.470 -0.4699 -0.3894 -0.3032
53091SOL    HW166388   9.882   8.134  11.480 -2.2807 -0.5900 -0.5444
53091SOL    HW266389   9.780   8.247  11.476 -0.2143  1.3295 -0.8115
53092SOL     OW66390   1.231   1.564   6.732 -0.2409  0.4118 -0.1260
53092SOL    HW166391   1.158   1.614   6.696 -0.4789 -0.0180 -0.2469
53092SOL    HW266392   1.195   1.476   6.747 -0.8581  1.1325  3.4356
53093SOL     OW66393  12.110   1.488   1.047 -0.0469 -0.1986 -0.0095
53093SOL    HW166394  12.031   1.450   1.007 -0.6716 -1.3227  2.1040
53093SOL    HW266395  12.095   1.479   1.141  1.8391  1.2474  0.4855
53094SOL     OW66396  11.628   8.722   8.257 -0.0079 -0.1475 -0.0138
53094SOL    HW166397  11.648   8.638   8.297  3.9415  0.8266  0.4632
53094SOL    HW266398  11.650   8.710   8.164  0.5402  0.3227  0.0508
53095SOL     OW66399   3.767   3.434  12.928 -0.1595  0.4928 -0.2660
53095SOL    HW166400   3.721   3.510  12.892  0.1733  1.1153  0.6001
53095SOL    HW266401   3.837   3.470  12.981  0.0440 -0.4194  0.1162
53096SOL     OW66402  12.510   3.981  12.950 -0.1605  0.0549  0.6882
53096SOL    HW166403  12.474   4.021  13.029 -0.4003 -0.4745  0.8563
53096SOL    HW266404  12.491   4.044  12.881 -1.1142 -0.0463  0.8366
53097SOL     OW66405   1.240  11.117   0.482  0.3310 -0.0589 -0.0062
53097SOL    HW166406   1.260  11.038   0.533 -0.6469  1.4963  3.0209
53097SOL    HW266407   1.277  11.189   0.533  0.3445  1.5598 -2.1590
53098SOL     OW66408   7.604   3.288   5.784  0.3770  0.0912 -0.2399
53098SOL    HW166409   7.634   3.315   5.870 -1.6811  0.3863  0.4292
53098SOL    HW266410   7.655   3.341   5.723  0.5090  1.2816  0.8606
53099SOL     OW66411   7.644  12.755   3.335  0.6047 -0.6708  0.3778
53099SOL    HW166412   7.563  12.749   3.386  0.7211  1.2885  0.8872
53099SOL    HW266413   7.641  12.843   3.296  1.6012 -1.2729 -1.1684
53100SOL     OW66414   3.166   4.434   3.637 -0.7436 -0.5385 -0.0491
53100SOL    HW166415   3.147   4.527   3.623 -2.0209 -0.9890 -1.6433
53100SOL    HW266416   3.079   4.392   3.636 -0.2926 -1.6504  1.7604
53101SOL     OW66417   5.735  11.058   4.672  0.8871 -0.4391 -0.4007
53101SOL    HW166418   5.699  11.052   4.584 -0.1575  1.9814 -0.2210
53101SOL    HW266419   5.829  11.045   4.661  0.6814 -0.8603 -1.7622
53102SOL     OW66420   8.554   9.369   7.160 -0.3835  0.0345 -0.2246
53102SOL    HW166421   8.620   9.302   7.181 -1.5874 -1.1375 -0.0377
53102SOL    HW266422   8.564   9.384   7.066 -0.1881 -0.5200 -0.2973
53103SOL     OW66423  11.888   9.866   2.699  0.2469 -0.5302 -0.3465
53103SOL    HW166424  11.809   9.813   2.707 -0.6187  0.6417 -0.9399
53103SOL    HW266425  11.881   9.930   2.769  1.0166 -0.8220  0.0145
53104SOL     OW66426   6.359   1.735  10.019  0.3288 -0.4016  0.0381
53104SOL    HW166427   6.285   1.674  10.022  0.3130 -0.3338  1.8162
53104SOL    HW266428   6.425   1.696  10.076  0.8429  0.5636  0.1290
53105SOL     OW66429   2.296  11.066  12.682  0.0936  0.0976  0.1826
53105SOL    HW166430   2.372  11.122  12.700  0.3269 -0.1253 -0.1017
53105SOL    HW266431   2.220  11.123  12.694  0.3729  1.2592 -2.7591
53106SOL     OW66432   4.306   8.347   6.891 -0.4971  0.2302 -0.5871
53106SOL    HW166433   4.246   8.318   6.822 -1.4877  0.8770 -0.0400
53106SOL    HW266434   4.289   8.287   6.964 -0.2898  0.2492 -0.5226
53107SOL     OW66435   1.052  10.677   1.265  0.1057  0.2711  0.1752
53107SOL    HW166436   1.002  10.734   1.324 -0.1955  1.0036 -0.7573
53107SOL    HW266437   1.106  10.624   1.322 -1.3886 -0.2090  1.2144
53108SOL     OW66438   9.352   8.274   4.141 -0.5441 -1.0567 -0.0395
53108SOL    HW166439   9.394   8.192   4.170  1.9035 -0.5544 -1.8228
53108SOL    HW266440   9.387   8.341   4.200 -1.1905 -1.0508  0.3370
53109SOL     OW66441  11.562   5.918   9.704 -0.3884  0.0817  0.5626
53109SOL    HW166442  11.618   5.841   9.714 -0.5516  0.0443  1.2065
53109SOL    HW266443  11.620   5.993   9.716 -0.0543  0.0932 -0.9111
53110SOL     OW66444  12.218   8.722   3.717  0.1438 -0.1167  0.1794
53110SOL    HW166445  12.144   8.703   3.661 -0.2857  2.7606 -0.4191
53110SOL    HW266446  12.295   8.698   3.665 -0.3143 -0.3210 -0.4108
53111SOL     OW66447   4.836   6.082   6.381 -0.1444  0.3936 -0.2367
53111SOL    HW166448   4.913   6.038   6.417 -0.5875  0.3158  0.6524
53111SOL    HW266449   4.777   6.092   6.456 -0.2047  2.2065 -0.4758
53112SOL     OW66450   9.766   7.401   2.843 -0.2939 -0.1820 -0.9279
53112SOL    HW166451   9.743   7.373   2.754 -0.5493  0.4936 -1.0783
53112SOL    HW266452   9.781   7.319   2.890  2.1471 -0.5512 -2.1798
53113SOL     OW66453  10.437   1.935   4.492 -0.1908  0.0507 -0.1929
53113SOL    HW166454  10.350   1.959   4.461  0.2362  2.0722  0.0443
53113SOL    HW266455  10.495   2.003   4.458  0.7688  0.6627  2.3947
53114SOL     OW66456  11.143   2.078  12.458  0.3049  0.5110  0.2843
53114SOL    HW166457  11.170   2.066  12.367 -2.1548  0.4505 -0.5193
53114SOL    HW266458  11.193   2.012  12.507 -0.2275 -1.2798 -1.4435
53115SOL     OW66459   1.631   2.541  10.553  0.4958 -0.0975  0.4656
53115SOL    HW166460   1.664   2.629  10.565  1.5781 -0.4177 -0.0662
53115SOL    HW266461   1.565   2.549  10.485  0.0697  0.4088  0.9294
53116SOL     OW66462  11.946  10.312   8.199 -0.2157  0.4601  0.1599
53116SOL    HW166463  11.996  10.341   8.123 -0.7378  0.6235 -0.1211
53116SOL    HW266464  12.000  10.244   8.239  0.5710  1.1198  0.2642
53117SOL     OW66465   1.066   0.492  11.343 -0.4458 -0.4162  0.2500
53117SOL    HW166466   0.973   0.495  11.368 -0.2825 -0.1122  0.8391
53117SOL    HW266467   1.086   0.399  11.334 -0.6626 -0.5026  0.6692
53118SOL     OW66468   8.816   6.347  12.738  0.3621  0.1831 -0.6266
53118SOL    HW166469   8.833   6.429  12.782 -0.0238 -0.2379  0.3308
53118SOL    HW266470   8.902   6.308  12.724  0.6099  1.0691 -1.7654
53119SOL     OW66471   2.077   3.956   7.721 -0.0903 -0.2146  0.1562
53119SOL    HW166472   2.060   4.022   7.788 -0.6998 -1.7697  1.6071
53119SOL    HW266473   2.000   3.957   7.665  0.0694  0.5364 -0.0638
53120SOL     OW66474   2.295   1.192  11.455 -0.2724 -0.8499 -0.7072
53120SOL    HW166475   2.310   1.148  11.371 -2.4107 -1.0763 -1.0117
53120SOL    HW266476   2.220   1.250  11.439  2.2270  2.8877 -0.2691
53121SOL     OW66477   4.837   0.172   3.176 -0.4388  0.0861  0.2553
53121SOL    HW166478   4.897   0.180   3.102  0.8729  0.5022  1.2993
53121SOL    HW266479   4.753   0.204   3.144 -0.7728 -2.6108 -1.9496
53122SOL     OW66480   0.255   7.941   6.204  0.2400  0.0723 -0.7039
53122SOL    HW166481   0.238   7.930   6.111 -0.3978 -2.0226 -0.3828
53122SOL    HW266482   0.183   7.995   6.236  0.5942  1.0072 -1.4377
53123SOL     OW66483   1.501   4.800   6.725 -0.0757  0.5484  0.1750
53123SOL    HW166484   1.474   4.713   6.755  1.1852 -0.0584 -0.4008
53123SOL    HW266485   1.540   4.784   6.639  0.9857  1.5560  0.4583
53124SOL     OW66486  11.354   4.708   4.538 -0.2549 -0.0738  0.4616
53124SOL    HW166487  11.291   4.692   4.467  0.2413 -0.8407  0.1723
53124SOL    HW266488  11.433   4.738   4.493 -0.0951 -0.0893  0.7295
53125SOL     OW66489   7.026   6.249   0.463 -0.1106  0.1743 -0.9913
53125SOL    HW166490   7.004   6.341   0.445 -2.1262 -0.5139 -2.4273
53125SOL    HW266491   7.009   6.238   0.556  1.5584  1.5585 -0.4496
53126SOL     OW66492   1.411   0.317  11.849  0.3569  0.5812  1.2396
53126SOL    HW166493   1.369   0.286  11.930 -1.9913  2.4255  0.8165
53126SOL    HW266494   1.399   0.411  11.850  1.1567  0.7600 -0.8250
53127SOL     OW66495   1.797   7.188   1.017 -0.6160 -0.5886 -0.2201
53127SOL    HW166496   1.798   7.148   1.104 -3.1393  0.3831  0.3523
53127SOL    HW266497   1.728   7.255   1.023 -2.5673 -2.0612 -3.6091
53128SOL     OW66498   9.822   5.208   0.644 -0.2701 -0.0644  0.0545
53128SOL    HW166499   9.771   5.258   0.708  0.1818  0.4257  0.0364
53128SOL    HW266500   9.827   5.265   0.567  1.2990  0.4052  0.4670
53129SOL     OW66501   8.723   1.720  12.517  0.5051 -0.2196  0.0924
53129SOL    HW166502   8.674   1.665  12.577 -1.0945  0.4313 -0.5498
53129SOL    HW266503   8.793   1.664  12.484  1.9919 -0.3357  3.1542
53130SOL     OW66504   1.981   9.095   2.527  0.3375 -0.0352 -0.0980
53130SOL    HW166505   1.945   9.006   2.531  2.8274 -1.1795 -1.0831
53130SOL    HW266506   1.981   9.116   2.433  0.0117  0.9249  0.1069
53131SOL     OW66507   9.868   3.634   8.943  0.3872 -0.1044 -0.1869
53131SOL    HW166508   9.911   3.639   8.858 -0.1727  2.1827 -0.4084
53131SOL    HW266509   9.776   3.653   8.926  0.0459 -0.7818  0.7903
53132SOL     OW66510   8.439   3.834  11.919 -0.7674  0.0498 -0.0826
53132SOL    HW166511   8.397   3.771  11.860 -2.1055  1.2928 -0.4984
53132SOL    HW266512   8.522   3.792  11.943 -0.4935 -0.7812 -2.2932
53133SOL     OW66513   0.587  10.436   0.260  0.2208  0.3002  0.3724
53133SOL    HW166514   0.594  10.341   0.251 -0.6866  0.2148  0.4371
53133SOL    HW266515   0.522  10.449   0.330 -1.7002  0.9617 -1.4411
53134SOL     OW66516   1.440  10.608   3.171 -0.5168 -0.4732 -0.4205
53134SOL    HW166517   1.452  10.522   3.132  0.9478  0.8505 -3.2070
53134SOL    HW266518   1.527  10.647   3.172 -1.2306  1.2289  0.1838
53135SOL     OW66519  12.221   8.075   5.182  0.1287 -0.1264  0.1222
53135SOL    HW166520  12.175   8.139   5.237  0.0111  0.3999 -0.5679
53135SOL    HW266521  12.285   8.035   5.240 -1.2490 -0.9470  1.1325
53136SOL     OW66522  12.066   0.988   8.816  0.2612 -0.2584 -0.0138
53136SOL    HW166523  12.015   1.068   8.808  1.2407  0.3048 -0.8479
53136SOL    HW266524  12.016   0.922   8.769 -0.4155 -0.0837  0.4442
53137SOL     OW66525  10.942   2.021   1.092  0.0811  0.2935 -0.4111
53137SOL    HW166526  10.927   2.098   1.147 -0.9290  0.7562 -1.3098
53137SOL    HW266527  11.036   2.008   1.093  0.2245  1.3259  0.0321
53138SOL     OW66528  12.801   5.135   9.006 -0.5716  0.0960  0.0721
53138SOL    HW166529  12.729   5.077   9.031  1.1022 -0.8571  3.3336
53138SOL    HW266530  12.838   5.163   9.090  1.5793  2.1906 -1.4717
53139SOL     OW66531   4.497   7.764   9.722 -1.0830 -0.2616 -0.8535
53139SOL    HW166532   4.591   7.771   9.742 -1.2254  0.2745 -0.3470
53139SOL    HW266533   4.464   7.853   9.729 -1.7998 -0.5682 -0.1501
53140SOL     OW66534   7.967   2.133   6.368  0.2077  0.1764 -0.1074
53140SOL    HW166535   7.914   2.113   6.446  0.6401 -0.3978  0.0406
53140SOL    HW266536   7.984   2.227   6.375  0.7792  0.0189  0.8380
53141SOL     OW66537   3.111  10.002   9.972  0.3061 -0.2755 -0.0453
53141SOL    HW166538   3.131  10.078  10.027  0.0460  0.6228 -1.1446
53141SOL    HW266539   3.023  10.020   9.938  1.1128  0.0676 -2.1078
53142SOL     OW66540   0.823  11.191   4.146 -0.0543  0.0060  0.7027
53142SOL    HW166541   0.832  11.135   4.069 -0.6425  0.1144  0.5507
53142SOL    HW266542   0.802  11.130   4.217 -1.7637  0.1079  0.3342
53143SOL     OW66543   9.403   4.381  11.752  0.2643 -0.0325 -0.4614
53143SOL    HW166544   9.347   4.452  11.783 -0.8946 -0.7901 -0.7706
53143SOL    HW266545   9.490   4.421  11.745 -0.3140  1.2966 -0.4349
53144SOL     OW66546   2.648   0.189  12.037 -0.0404 -0.4407  0.1320
53144SOL    HW166547   2.681   0.191  12.127  1.8779 -2.1504 -0.4651
53144SOL    HW266548   2.583   0.119  12.037  0.7975 -1.2362 -0.0405
53145SOL     OW66549   7.373   6.634   5.770  0.4015  0.0650  0.2954
53145SOL    HW166550   7.432   6.687   5.824  0.8649  0.4702 -0.5893
53145SOL    HW266551   7.362   6.552   5.819  0.0227  0.7988  1.4709
53146SOL     OW66552  11.833  10.132   1.588  0.0054  0.2089  0.3666
53146SOL    HW166553  11.781  10.170   1.518 -0.6827 -1.2451  0.0384
53146SOL    HW266554  11.776  10.135   1.665 -0.1947 -0.4650  0.2502
53147SOL     OW66555   0.713   4.101   4.848  0.2986 -0.1738  0.3483
53147SOL    HW166556   0.667   4.051   4.916  0.5154  1.6848  1.9387
53147SOL    HW266557   0.699   4.192   4.872 -0.4643  0.6211 -2.7043
53148SOL     OW66558   2.894   1.854   9.596 -1.4154  0.0505 -0.3242
53148SOL    HW166559   2.973   1.892   9.635 -1.4588  1.6730 -1.7308
53148SOL    HW266560   2.835   1.928   9.583 -2.4477 -0.8561 -0.9866
53149SOL     OW66561   2.647   4.820   7.295 -0.5016 -0.2560  0.0747
53149SOL    HW166562   2.595   4.742   7.273 -1.4204 -0.0967  1.5156
53149SOL    HW266563   2.581   4.887   7.316  0.1995 -0.2973  2.7926
53150SOL     OW66564   3.778   9.262   4.797 -0.3705 -0.0595  0.1468
53150SOL    HW166565   3.721   9.198   4.842  0.0967 -2.3871 -2.3552
53150SOL    HW266566   3.866   9.226   4.807 -0.0603  0.3511 -1.0598
53151SOL     OW66567   5.065  11.903   7.048 -0.2863  0.0567  0.3849
53151SOL    HW166568   5.144  11.849   7.044 -0.6437 -0.4586  0.3332
53151SOL    HW266569   5.098  11.991   7.068  0.4289  0.1486 -1.1175
53152SOL     OW66570   1.836   0.087   5.148  0.0173  0.8195  0.1074
53152SOL    HW166571   1.908   0.129   5.196 -0.5383  0.8079  0.9837
53152SOL    HW266572   1.793   0.032   5.214  1.6218 -2.3877 -1.3304
53153SOL     OW66573   7.604   9.861   9.737 -0.4903 -0.2105  0.5990
53153SOL    HW166574   7.575   9.952   9.737  0.0287 -0.0399  1.2908
53153SOL    HW266575   7.678   9.860   9.676 -1.6596 -0.5704 -0.8729
53154SOL     OW66576  12.132   7.618   6.055 -0.2567 -0.5061 -0.2426
53154SOL    HW166577  12.149   7.608   6.148 -1.6895 -0.3765  0.0629
53154SOL    HW266578  12.050   7.570   6.040 -0.0588 -0.5121 -1.4310
53155SOL     OW66579   2.412  10.355   3.454 -0.3765  0.7616 -0.1463
53155SOL    HW166580   2.504  10.380   3.463  0.3883 -2.3453  2.3783
53155SOL    HW266581   2.409  10.264   3.482 -4.3159  0.8429  0.2463
53156SOL     OW66582   6.724   4.471   9.035 -0.3073  0.0079  0.2714
53156SOL    HW166583   6.779   4.537   9.078  0.2884  0.1232 -0.6359
53156SOL    HW266584   6.695   4.513   8.954 -3.1890  0.5920  1.4860
53157SOL     OW66585   5.505  12.212   3.872  0.0547  0.1098  0.1104
53157SOL    HW166586   5.471  12.300   3.883 -0.4558 -0.0749  0.0608
53157SOL    HW266587   5.535  12.208   3.781  1.2135  0.6067  0.4556
53158SOL     OW66588  11.472   7.648  11.727  0.1368  0.0254  1.4056
53158SOL    HW166589  11.493   7.570  11.778  0.2301 -0.3208  0.8404
53158SOL    HW266590  11.520   7.719  11.771  1.1046 -0.4587  1.1491
53159SOL     OW66591   1.265   1.900  10.686  0.0044  0.0034  0.3131
53159SOL    HW166592   1.216   1.982  10.681 -0.0919 -0.0483  0.3878
53159SOL    HW266593   1.329   1.914  10.756 -2.2049 -1.1097  2.7403
53160SOL     OW66594  12.401  10.393   8.176 -0.0538  0.0968 -0.3607
53160SOL    HW166595  12.382  10.479   8.140 -2.8473 -1.2542 -2.5384
53160SOL    HW266596  12.496  10.386   8.174  0.1678  2.5690 -1.4868
53161SOL     OW66597   9.928  10.905  11.305 -0.2892  0.2988  0.0747
53161SOL    HW166598  10.004  10.846  11.299 -0.5317 -0.4111  2.6755
53161SOL    HW266599   9.963  10.986  11.342 -0.6238  0.3069  0.3826
53162SOL     OW66600   1.693   9.860   7.416  0.2949  0.1840 -0.1693
53162SOL    HW166601   1.606   9.819   7.411 -0.8113  1.8972  2.5028
53162SOL    HW266602   1.682   9.944   7.372  0.5964  0.3669  0.1024
53163SOL     OW66603  10.169  11.924   3.149  0.8523 -0.4904  0.2123
53163SOL    HW166604  10.124  11.861   3.205 -0.1202 -0.7704 -0.8413
53163SOL    HW266605  10.116  11.928   3.070 -0.1841  3.0815  0.9050
53164SOL     OW66606   6.695   7.831   0.649 -0.5616  0.4215 -1.1246
53164SOL    HW166607   6.732   7.745   0.627  0.0539  0.8457 -1.8280
53164SOL    HW266608   6.691   7.832   0.744  0.4940  0.0387 -1.0637
53165SOL     OW66609   5.107   7.409   5.237 -0.1265 -0.1152  0.1387
53165SOL    HW166610   5.154   7.330   5.264 -0.2745 -1.0024 -2.0280
53165SOL    HW266611   5.020   7.378   5.213  0.0702  0.5496 -1.5282
53166SOL     OW66612   6.339   7.806   4.044 -0.4180 -0.3842  0.5727
53166SOL    HW166613   6.417   7.861   4.034 -0.3692 -0.1724  1.9158
53166SOL    HW266614   6.362   7.723   4.002  1.1411 -0.8904  2.3251
53167SOL     OW66615   8.849  10.848  12.454 -0.5419  0.1234  0.0762
53167SOL    HW166616   8.787  10.918  12.430 -0.8140 -0.5521 -1.3066
53167SOL    HW266617   8.795  10.769  12.461 -0.0808 -0.1574  0.5562
53168SOL     OW66618  11.498  11.063   1.950  0.5154  0.4312 -0.6097
53168SOL    HW166619  11.520  11.050   2.042  1.7706 -0.2779 -0.9950
53168SOL    HW266620  11.531  10.985   1.906  0.7944  1.2007 -1.8061
53169SOL     OW66621   9.485   3.153  11.556  0.2285  0.0862 -0.2933
53169SOL    HW166622   9.449   3.235  11.521  2.5073  1.1077 -0.4000
53169SOL    HW266623   9.524   3.109  11.481 -1.2115 -1.2898 -0.2859
53170SOL     OW66624   7.352   6.421  11.786  0.1581  0.2788 -0.3659
53170SOL    HW166625   7.311   6.379  11.710  2.0840  1.4501 -2.1444
53170SOL    HW266626   7.355   6.514  11.764 -0.0958  0.7998  1.6085
53171SOL     OW66627   7.451   1.407  10.943  0.5956  0.9070 -0.4783
53171SOL    HW166628   7.381   1.350  10.910  0.7767  0.5173 -0.1895
53171SOL    HW266629   7.421   1.496  10.921  1.0915  0.6248 -2.4148
53172SOL     OW66630   4.114   6.257   1.511  0.7140  0.3163  0.5336
53172SOL    HW166631   4.091   6.349   1.523  0.8036  0.3744  0.2578
53172SOL    HW266632   4.032   6.214   1.488  0.6258  0.2843  0.9052
53173SOL     OW66633   0.331   5.903   0.761  0.1087  0.0710 -0.0535
53173SOL    HW166634   0.409   5.849   0.749  0.1565  0.4928 -2.0610
53173SOL    HW266635   0.315   5.941   0.674 -1.7463  0.7906  0.5565
53174SOL     OW66636   2.714   5.923   7.634 -0.5955 -0.1959 -0.6169
53174SOL    HW166637   2.642   5.965   7.587 -1.3832  0.2324  0.8838
53174SOL    HW266638   2.784   5.988   7.634 -0.3719 -0.4282 -1.6759
53175SOL     OW66639   2.495   0.508  10.105 -0.1915 -0.1035 -0.8256
53175SOL    HW166640   2.402   0.490  10.088  0.2286 -1.8707 -1.4747
53175SOL    HW266641   2.510   0.471  10.192 -0.4936  1.8544  0.1056
53176SOL     OW66642  12.375   3.501   5.736 -0.1415  0.9832 -0.1807
53176SOL    HW166643  12.308   3.529   5.673 -1.5850 -0.3960  0.6735
53176SOL    HW266644  12.339   3.523   5.821  0.3028 -0.1816  0.3221
53177SOL     OW66645  10.772   7.300   0.883  0.2155  0.3571  0.2455
53177SOL    HW166646  10.814   7.362   0.823 -0.8278  0.6812 -0.1638
53177SOL    HW266647  10.810   7.320   0.969  0.2251  1.2547  0.0358
53178SOL     OW66648   7.839  10.846   7.285  0.3608  0.0173 -0.0068
53178SOL    HW166649   7.746  10.847   7.265  0.3224 -0.5906  0.1503
53178SOL    HW266650   7.849  10.908   7.358  0.2527  0.9287 -0.7382
53179SOL     OW66651  11.260  10.939  11.380 -0.2715 -0.3360 -0.2414
53179SOL    HW166652  11.287  10.894  11.300 -1.5242 -1.1537 -0.2440
53179SOL    HW266653  11.180  10.985  11.356  0.0827  0.5298  0.2031
53180SOL     OW66654   1.444   6.037   6.244 -0.2327 -0.4452 -0.0126
53180SOL    HW166655   1.424   6.104   6.310 -1.5624 -0.1831 -0.6381
53180SOL    HW266656   1.479   5.963   6.294 -1.6676 -0.4385  1.0619
53181SOL     OW66657   7.290   8.915   8.772  0.4188 -0.0124  0.2322
53181SOL    HW166658   7.255   8.846   8.829 -1.0022  0.8559  0.4513
53181SOL    HW266659   7.324   8.981   8.832  1.4927 -0.3451  0.0198
53182SOL     OW66660   3.305   1.305   3.478 -0.9751 -0.1560  0.0963
53182SOL    HW166661   3.375   1.342   3.424 -0.7748  0.0921  0.5213
53182SOL    HW266662   3.289   1.218   3.440 -3.0043  1.1545 -2.3294
53183SOL     OW66663   1.677   6.403   4.481  0.7274 -0.4650  0.2653
53183SOL    HW166664   1.616   6.477   4.481 -0.3100 -1.2664  1.2351
53183SOL    HW266665   1.751   6.432   4.534 -0.2905 -0.5568  1.7985
53184SOL     OW66666   1.575  12.415   1.377  0.1172 -0.1201  0.4451
53184SOL    HW166667   1.661  12.430   1.416  0.1750 -0.3551  0.4134
53184SOL    HW266668   1.532  12.500   1.380  0.5785  0.1435 -0.0949
53185SOL     OW66669   1.210   3.628  10.354  0.0943  0.4312  0.1767
53185SOL    HW166670   1.182   3.606  10.443  0.2932 -0.8837 -0.0667
53185SOL    HW266671   1.300   3.659  10.365 -0.3064  1.4989  0.5681
53186SOL     OW66672   3.891  11.136   2.907  0.0534 -0.0120  0.1634
53186SOL    HW166673   3.821  11.115   2.969 -0.2786  3.1508  1.0298
53186SOL    HW266674   3.942  11.055   2.901 -2.8436 -2.0439  0.5188
53187SOL     OW66675  12.130  12.420  12.070  0.3845 -0.3004  0.5242
53187SOL    HW166676  12.077  12.484  12.023 -0.5507 -0.6083  1.1374
53187SOL    HW266677  12.126  12.341  12.016  1.1759 -0.0009 -0.0052
53188SOL     OW66678   8.356   7.591   6.980 -0.5085 -0.1427  0.2172
53188SOL    HW166679   8.342   7.655   6.910 -0.3257 -1.6899 -1.3105
53188SOL    HW266680   8.380   7.511   6.934 -0.5819 -1.2808  2.0719
53189SOL     OW66681  11.733   0.731   9.595  0.4165  0.0481  0.0190
53189SOL    HW166682  11.737   0.733   9.500  3.1353  0.0109  0.0486
53189SOL    HW266683  11.825   0.734   9.623 -0.2553 -0.8900  2.6207
53190SOL     OW66684   0.745   1.251  11.064  0.0093 -0.3717  0.1283
53190SOL    HW166685   0.657   1.237  11.100 -0.0028  0.8961  0.6353
53190SOL    HW266686   0.803   1.249  11.141 -0.0048  2.2592  0.2762
53191SOL     OW66687   7.524   0.322   4.043  0.0314 -1.1888 -0.3007
53191SOL    HW166688   7.452   0.268   4.011 -1.0530  0.0851 -0.0754
53191SOL    HW266689   7.572   0.347   3.964  1.4460 -3.6363 -0.3034
53192SOL     OW66690   3.648   6.311  10.818  0.2872  0.2187 -0.3848
53192SOL    HW166691   3.719   6.362  10.857  0.0791 -0.0487  0.3499
53192SOL    HW266692   3.592   6.377  10.777  0.1244  0.5739  0.3915
53193SOL     OW66693   7.231   8.607  11.173 -0.1157 -0.1605 -0.0675
53193SOL    HW166694   7.261   8.546  11.240  0.0154 -0.2847 -0.2379
53193SOL    HW266695   7.198   8.682  11.222 -0.3713 -0.4084  0.1483
53194SOL     OW66696   0.159   6.308   0.755  0.5158  0.4959  0.5983
53194SOL    HW166697   0.248   6.344   0.756  1.0680 -0.8189  1.4716
53194SOL    HW266698   0.165   6.228   0.807 -1.6163  1.3675  2.3493
53195SOL     OW66699   1.691  11.654   2.588  0.1765  0.6464 -0.0436
53195SOL    HW166700   1.709  11.685   2.677 -0.5534  1.1701 -0.0709
53195SOL    HW266701   1.708  11.729   2.532  0.1482  0.4619 -0.3006
53196SOL     OW66702  11.486   2.739  10.608  0.3903 -0.1858 -0.1761
53196SOL    HW166703  11.515   2.687  10.533  0.5814 -0.3884  0.0358
53196SOL    HW266704  11.464   2.824  10.572  1.5386  0.0750 -0.3024
53197SOL     OW66705   2.746   2.831   2.308 -0.1165  0.3464  0.3063
53197SOL    HW166706   2.812   2.795   2.368 -0.8020 -0.6106  0.5006
53197SOL    HW266707   2.757   2.926   2.316  2.0668  0.2396 -0.5904
53198SOL     OW66708  12.459   7.856   8.949  0.0101  0.1838  0.1024
53198SOL    HW166709  12.460   7.761   8.937 -0.4609  0.2292 -0.3384
53198SOL    HW266710  12.439   7.868   9.042 -1.1187 -0.1472 -0.0861
53199SOL     OW66711   6.500  12.387  10.277 -0.2549  0.1643  0.0492
53199SOL    HW166712   6.523  12.316  10.336 -0.5142  1.6469  2.0556
53199SOL    HW266713   6.585  12.423  10.249  0.0052  1.7207  2.5087
53200SOL     OW66714  11.767   0.818   2.579 -0.5447  0.3151  0.1272
53200SOL    HW166715  11.829   0.854   2.643  0.4473 -2.8327  1.1091
53200SOL    HW266716  11.823   0.774   2.514 -1.6587 -1.8154  0.5280
53201SOL     OW66717   9.125   0.034  10.424 -0.2769 -0.3847 -0.7420
53201SOL    HW166718   9.085   0.117  10.449  2.4876  1.1683 -1.1130
53201SOL    HW266719   9.122  -0.019  10.504 -1.5953  0.2297 -0.3582
53202SOL     OW66720  10.904   1.599  10.653  0.4320  0.3104  0.4344
53202SOL    HW166721  10.863   1.685  10.664  1.6508  0.9389  0.1367
53202SOL    HW266722  10.998   1.616  10.652  0.7055 -1.0507  0.5442
53203SOL     OW66723   1.787   8.415   3.184 -0.0868 -0.0038 -0.0395
53203SOL    HW166724   1.768   8.466   3.105  1.8902  1.7181  0.4746
53203SOL    HW266725   1.720   8.443   3.247 -0.0823  0.6572 -0.3161
53204SOL     OW66726  11.158   5.551   8.037  0.0865  0.1652  0.4306
53204SOL    HW166727  11.214   5.583   8.107  2.6142 -3.0170  0.0913
53204SOL    HW266728  11.126   5.466   8.069 -0.3250 -0.4398 -1.4611
53205SOL     OW66729  11.081   1.381   9.148  0.1413 -0.3327  0.8292
53205SOL    HW166730  11.109   1.472   9.138 -0.5346 -0.1958  0.0480
53205SOL    HW266731  11.158   1.330   9.126  0.3033  0.0512  0.4894
53206SOL     OW66732   5.010   9.668   1.787 -0.4772 -0.4069 -0.1221
53206SOL    HW166733   5.089   9.635   1.829  0.7069  0.3572 -1.6705
53206SOL    HW266734   4.991   9.750   1.832  0.0492 -0.2251 -0.2247
53207SOL     OW66735  11.970   9.939  12.263  0.2439 -0.0728  0.3631
53207SOL    HW166736  11.991   9.846  12.275 -0.3695 -0.1720  0.7393
53207SOL    HW266737  12.041   9.973  12.208  0.5367 -0.7362  0.3180
53208SOL     OW66738   3.690   0.085   4.444 -0.0012 -0.3686  0.0846
53208SOL    HW166739   3.738   0.026   4.502  0.1471 -0.3716 -0.0419
53208SOL    HW266740   3.708   0.173   4.479 -0.2402 -0.3976  0.2859
53209SOL     OW66741   0.778   1.510   2.228 -1.3382  0.1843  0.0412
53209SOL    HW166742   0.809   1.531   2.139 -3.2785  3.2150 -0.0773
53209SOL    HW266743   0.726   1.431   2.217  1.6655 -1.8621 -0.6848
53210SOL     OW66744  12.753   3.197   0.017  0.0190 -0.1193 -0.1896
53210SOL    HW166745  12.810   3.263  -0.023 -0.5069  0.6788  0.3397
53210SOL    HW266746  12.733   3.233   0.104 -2.2430  0.2276 -0.7963
53211SOL     OW66747   9.331   8.909   8.676 -0.8529 -0.4685  0.0549
53211SOL    HW166748   9.303   8.850   8.607 -0.5961 -0.2378 -0.2467
53211SOL    HW266749   9.415   8.944   8.646 -0.4116 -0.8712  0.7854
53212SOL     OW66750   5.289   4.241   0.779  0.0426  0.0512 -0.2621
53212SOL    HW166751   5.238   4.315   0.744  0.1460 -0.5803 -1.8289
53212SOL    HW266752   5.271   4.242   0.873 -0.4802  1.6668 -0.3523
53213SOL     OW66753   8.710  12.542  10.648 -0.5081 -0.0274 -0.0837
53213SOL    HW166754   8.759  12.502  10.576 -2.0212 -1.4175 -0.4057
53213SOL    HW266755   8.622  12.505  10.640 -0.9384  0.4351  1.9847
53214SOL     OW66756   7.033  12.658   4.149  0.1374  0.1041  0.3671
53214SOL    HW166757   7.087  12.684   4.223 -0.3889  1.7923  0.2064
53214SOL    HW266758   6.972  12.593   4.184  0.6529  0.0227  1.1256
53215SOL     OW66759   3.841   9.435   0.523 -0.0590  0.0962  0.2319
53215SOL    HW166760   3.919   9.384   0.505 -0.3376  0.5239 -2.8490
53215SOL    HW266761   3.871   9.507   0.578  2.0582  0.9080 -1.8101
53216SOL     OW66762   6.339   7.708   7.864 -0.2646 -0.0332 -0.0215
53216SOL    HW166763   6.320   7.772   7.796  0.0828 -0.7575 -0.8298
53216SOL    HW266764   6.422   7.737   7.903 -0.4406  0.3596  0.0593
53217SOL     OW66765   1.924   7.541  10.952  0.0837 -0.3839 -0.7305
53217SOL    HW166766   1.850   7.597  10.974  0.3666 -0.8290  1.6348
53217SOL    HW266767   1.977   7.593  10.892 -0.2099  1.4901  0.5398
53218SOL     OW66768   1.709   4.775  11.469  0.3183 -0.1720  0.0298
53218SOL    HW166769   1.656   4.695  11.469  1.7156 -1.2090 -2.0666
53218SOL    HW266770   1.783   4.754  11.526  1.2707 -0.8774 -1.4003
53219SOL     OW66771  12.428   0.036  12.139 -0.0620 -0.0841 -0.3925
53219SOL    HW166772  12.482   0.082  12.074 -1.7394  0.6481 -1.3343
53219SOL    HW266773  12.485  -0.033  12.173  1.2267  0.2042 -1.8447
53220SOL     OW66774   8.191  11.641   2.035 -0.1423 -0.2084 -0.1885
53220SOL    HW166775   8.128  11.570   2.024 -1.3670  0.7282  0.4664
53220SOL    HW266776   8.225  11.630   2.124 -1.5199  0.8922  0.5155
53221SOL     OW66777   7.001   3.524  11.120  0.2796  0.1218 -0.0705
53221SOL    HW166778   7.043   3.497  11.201  1.0148  1.6296  0.0765
53221SOL    HW266779   7.071   3.565  11.069 -0.1835 -0.7163 -1.4438
53222SOL     OW66780  10.081   8.924   5.851 -0.1623 -0.1773  0.5050
53222SOL    HW166781  10.097   8.875   5.931 -0.7154 -0.7087  0.3070
53222SOL    HW266782  10.154   8.984   5.844  0.5336 -0.9695  0.7699
53223SOL     OW66783   7.050   0.308   4.563 -0.0575 -0.5295 -0.1757
53223SOL    HW166784   6.971   0.285   4.514  0.7120  0.1713 -1.8344
53223SOL    HW266785   7.089   0.380   4.513  1.6822 -0.9137  0.5505
53224SOL     OW66786   7.463  11.968  12.246 -0.4935  0.6483 -0.1426
53224SOL    HW166787   7.381  11.998  12.286 -1.9335 -1.2178 -1.5692
53224SOL    HW266788   7.451  11.982  12.152  1.1163  0.9245 -0.3394
53225SOL     OW66789   6.620   6.142   6.415 -0.3145  0.2712  0.1177
53225SOL    HW166790   6.600   6.088   6.339  0.0626 -0.9137  0.8289
53225SOL    HW266791   6.535   6.160   6.456 -0.5530  1.2209 -0.7698
53226SOL     OW66792   1.762   1.488   5.236  0.1437  0.2037 -0.3367
53226SOL    HW166793   1.715   1.406   5.247  3.1039 -1.8022 -1.4537
53226SOL    HW266794   1.699   1.546   5.193 -1.6687 -1.8900 -0.6840
53227SOL     OW66795   2.132  11.079  12.962  0.4512  0.2445 -0.3821
53227SOL    HW166796   2.079  11.000  12.946 -2.3454  2.0204 -0.4847
53227SOL    HW266797   2.131  11.125  12.878  3.6139 -0.3581 -0.8719
53228SOL     OW66798   3.222   8.807   1.232  0.1521  0.0968 -0.1128
53228SOL    HW166799   3.260   8.812   1.145  1.5061  0.2775  0.4699
53228SOL    HW266800   3.212   8.713   1.249  1.0303  0.0272  0.0218
53229SOL     OW66801   1.776  10.290  11.241 -0.2215  0.0987  0.2847
53229SOL    HW166802   1.869  10.302  11.262 -0.2314 -1.0795  1.1417
53229SOL    HW266803   1.736  10.266  11.325 -1.2654  0.4237 -0.1148
53230SOL     OW66804   9.775  11.755  12.670  0.2565  0.2949 -0.3705
53230SOL    HW166805   9.841  11.725  12.733  0.3680 -1.4723 -1.2694
53230SOL    HW266806   9.693  11.751  12.718  0.5897  0.9640  0.2745
53231SOL     OW66807  10.498   8.896   9.473  0.3964  0.2837 -0.1042
53231SOL    HW166808  10.579   8.909   9.424  0.1294  2.5102 -0.0548
53231SOL    HW266809  10.430   8.933   9.416 -0.2972  0.3101  0.7210
53232SOL     OW66810   5.821   4.075   4.963 -0.1635  0.1321 -0.3102
53232SOL    HW166811   5.851   4.032   4.883  0.4533  0.3715 -0.2139
53232SOL    HW266812   5.748   4.130   4.935  0.7001  0.9966 -0.8921
53233SOL     OW66813   9.147   1.546   7.624  0.4285  0.1532  0.0911
53233SOL    HW166814   9.193   1.571   7.704  1.5892  1.6779 -0.9880
53233SOL    HW266815   9.214   1.507   7.568 -0.4401 -1.2217 -0.0281
53234SOL     OW66816  12.734   1.840   3.844 -0.5663  0.5149 -0.1161
53234SOL    HW166817  12.814   1.821   3.793 -1.6111  0.5184 -1.8376
53234SOL    HW266818  12.691   1.755   3.851  0.1329  0.2843  1.8568
53235SOL     OW66819   7.239   9.182  10.068  0.2737 -0.6895  0.2439
53235SOL    HW166820   7.200   9.191  10.155 -1.6802  1.5930 -0.7551
53235SOL    HW266821   7.318   9.235  10.072  0.6248 -1.2450  0.8402
53236SOL     OW66822   3.450   1.781   9.957  0.3752 -0.0926  0.2923
53236SOL    HW166823   3.378   1.813   9.903 -0.7003  1.7116  2.6451
53236SOL    HW266824   3.517   1.850   9.952  0.5868 -0.2677  0.6940
53237SOL     OW66825   8.590   4.840  11.690 -0.0970  0.1328  0.3801
53237SOL    HW166826   8.615   4.914  11.745  0.8125 -1.2158  1.8380
53237SOL    HW266827   8.664   4.779  11.695 -1.2890 -1.3995  0.1425
53238SOL     OW66828  11.343   3.733   6.552  0.9171 -0.4792  0.7724
53238SOL    HW166829  11.375   3.753   6.640 -1.1516  1.7669  1.1222
53238SOL    HW266830  11.419   3.749   6.495  2.0187 -1.0392  2.0274
53239SOL     OW66831   3.917   7.064   3.257  0.2237  0.4301  0.0817
53239SOL    HW166832   3.929   7.008   3.180 -0.9033 -0.1693  0.3095
53239SOL    HW266833   3.861   7.135   3.227 -1.4664 -0.5934  0.6508
53240SOL     OW66834  10.260   8.515  11.399  0.2323  0.3561 -0.2122
53240SOL    HW166835  10.234   8.589  11.453 -2.2169 -0.2654 -0.3985
53240SOL    HW266836  10.188   8.452  11.408  1.1590 -1.0293 -1.8230
53241SOL     OW66837   4.626  12.300  10.123  0.0616  0.6132 -0.0035
53241SOL    HW166838   4.645  12.292  10.217  0.0995 -0.3373 -0.0909
53241SOL    HW266839   4.594  12.390  10.114  2.1547  1.4964  0.5535
53242SOL     OW66840  11.962   2.375   6.805  0.4717  0.5548  0.4242
53242SOL    HW166841  11.876   2.412   6.825  0.2079 -0.7050  1.7549
53242SOL    HW266842  11.995   2.344   6.889  0.4664 -2.5990 -0.6030
53243SOL     OW66843   8.619   4.224  12.913 -0.0192 -0.7264 -0.3440
53243SOL    HW166844   8.651   4.306  12.950  2.2746 -0.6227 -2.2856
53243SOL    HW266845   8.601   4.245  12.821  1.5866 -2.5392 -1.1560
53244SOL     OW66846   9.123  10.321   4.527  0.2163 -0.1149  0.1318
53244SOL    HW166847   9.185  10.261   4.568  1.7633  1.5049  0.2774
53244SOL    HW266848   9.079  10.268   4.460  0.8880 -1.6102  0.8224
53245SOL     OW66849   1.169   1.446   0.444  0.3222 -0.1138 -0.0763
53245SOL    HW166850   1.158   1.490   0.360 -0.1976  0.7997  0.4596
53245SOL    HW266851   1.114   1.496   0.505 -1.8111 -2.5579  0.1934
53246SOL     OW66852  11.237   3.462   7.123 -0.8323 -0.3486  0.1175
53246SOL    HW166853  11.240   3.542   7.072 -0.6445 -0.2635  0.2593
53246SOL    HW266854  11.236   3.492   7.214  0.2978 -0.5113  0.2087
53247SOL     OW66855   2.643  12.331   7.376 -0.2352  0.2564 -0.0839
53247SOL    HW166856   2.667  12.354   7.466  3.1057 -1.3514 -0.3899
53247SOL    HW266857   2.669  12.239   7.367 -2.9043 -0.4183 -1.9937
53248SOL     OW66858   6.030   9.322   5.775  0.0449 -0.4036  0.1457
53248SOL    HW166859   6.082   9.289   5.703  0.9830  0.7011  0.2883
53248SOL    HW266860   5.941   9.289   5.758 -0.0404  0.8010 -2.1716
53249SOL     OW66861  11.937   8.811  11.674 -0.3343  0.3298 -0.4856
53249SOL    HW166862  11.984   8.891  11.651  0.8462 -0.0963  0.3375
53249SOL    HW266863  12.004   8.755  11.714 -1.3914 -0.6062  0.0190
53250SOL     OW66864   5.131  12.564   4.407  0.0122 -0.3380 -0.2107
53250SOL    HW166865   5.215  12.526   4.434  0.0054  0.4550  1.0018
53250SOL    HW266866   5.152  12.654   4.384 -0.6004  0.0650  0.7523
53251SOL     OW66867  11.172  11.362   4.726 -0.0334 -0.0041  0.3678
53251SOL    HW166868  11.086  11.401   4.712  0.0007  0.9561  2.4351
53251SOL    HW266869  11.173  11.337   4.818  1.2627 -1.7000 -0.0372
53252SOL     OW66870   3.508   6.273   8.688 -0.0432  0.1771  0.6379
53252SOL    HW166871   3.533   6.214   8.759  0.1660  0.0396  0.4536
53252SOL    HW266872   3.467   6.348   8.732  1.6357  0.9179  1.0564
53253SOL     OW66873   0.887   5.536   3.103 -0.1132  0.4023  0.2948
53253SOL    HW166874   0.930   5.598   3.044  1.4238 -0.9461 -0.0668
53253SOL    HW266875   0.919   5.560   3.190  0.6457  0.0119  0.1328
53254SOL     OW66876   0.536   3.343   8.027  0.2957  0.0192  0.0127
53254SOL    HW166877   0.476   3.403   7.983  1.2733  0.9369 -0.1223
53254SOL    HW266878   0.544   3.268   7.967  1.9319  1.4313 -1.6461
53255SOL     OW66879   4.063   5.127   4.882 -0.4844  0.1747  0.0605
53255SOL    HW166880   4.079   5.036   4.905  1.0193  0.3816 -0.0506
53255SOL    HW266881   3.985   5.125   4.826  0.7459 -1.2984 -1.6996
53256SOL     OW66882   0.081  12.764   4.778  0.5093  0.1328  0.0806
53256SOL    HW166883   0.049  12.747   4.689  0.9111 -0.5976  0.0629
53256SOL    HW266884   0.038  12.698   4.832  0.2873  0.5560  0.4300
53257SOL     OW66885   2.330   0.760   6.469  0.0251 -0.4014 -0.2615
53257SOL    HW166886   2.327   0.825   6.399 -0.5849  0.3437  0.4373
53257SOL    HW266887   2.389   0.691   6.436  0.2677  0.2509 -1.2194
53258SOL     OW66888   3.103   3.484   6.134 -0.3191  0.1289 -0.0773
53258SOL    HW166889   3.132   3.459   6.046 -0.3731  1.2428 -0.4270
53258SOL    HW266890   3.129   3.411   6.189  0.3290 -0.2890 -0.9092
53259SOL     OW66891   3.703   8.005   5.019 -0.0667  0.7250  0.1987
53259SOL    HW166892   3.686   8.079   4.961  1.1641  0.7331 -0.1644
53259SOL    HW266893   3.757   7.945   4.967 -0.8255 -0.3247  0.5742
53260SOL     OW66894  12.065   5.282   6.582 -0.2445  0.5432 -0.0042
53260SOL    HW166895  11.991   5.244   6.630  1.5377 -0.0267  2.4699
53260SOL    HW266896  12.087   5.361   6.631  1.3898  0.1746 -0.0873
53261SOL     OW66897  12.710   4.481  11.095 -0.0963  0.7718 -0.0554
53261SOL    HW166898  12.652   4.480  11.171 -0.5049  0.7504 -0.3660
53261SOL    HW266899  12.680   4.408  11.040 -0.8070  1.7317 -0.9788
53262SOL     OW66900   7.167   8.801   9.795 -0.7767  0.3670  0.7760
53262SOL    HW166901   7.206   8.714   9.784  0.3552  0.9418  0.0237
53262SOL    HW266902   7.241   8.859   9.808 -1.1725  1.7536 -2.3302
53263SOL     OW66903   4.761   1.741   5.625  0.3444  0.4446 -0.2518
53263SOL    HW166904   4.765   1.795   5.704 -2.2713 -0.8795  0.9330
53263SOL    HW266905   4.718   1.661   5.654 -2.3367  0.5908 -3.3227
53264SOL     OW66906  12.517   1.131   6.335  0.6421  0.6379 -0.3505
53264SOL    HW166907  12.529   1.218   6.297  0.4126  0.6830 -0.3224
53264SOL    HW266908  12.498   1.148   6.427 -0.5696  0.6183 -0.5892
53265SOL     OW66909   9.458   7.101   6.011 -0.0014  0.0176 -0.3516
53265SOL    HW166910   9.535   7.071   6.059 -0.7908 -0.5768  0.5899
53265SOL    HW266911   9.493   7.142   5.932  1.1971 -1.9525 -0.9167
53266SOL     OW66912  11.786   3.490   5.574 -0.0913  0.0924  0.2976
53266SOL    HW166913  11.727   3.414   5.577  0.6674 -0.5107  0.2873
53266SOL    HW266914  11.808   3.499   5.481  1.2309 -0.8075  0.4932
53267SOL     OW66915  12.579   5.066   2.800 -0.1649  0.0963 -0.1439
53267SOL    HW166916  12.486   5.090   2.792 -0.0669  0.6620  0.3145
53267SOL    HW266917  12.622   5.148   2.824  0.5208 -0.0758 -0.7765
53268SOL     OW66918   6.273   3.324   5.273  0.5766  0.0648 -0.9125
53268SOL    HW166919   6.199   3.383   5.287  1.4490  0.9592 -0.0248
53268SOL    HW266920   6.319   3.322   5.357  1.5836 -0.4603 -1.4621
53269SOL     OW66921  11.158   7.866  10.563  0.0008 -0.3835 -0.0642
53269SOL    HW166922  11.243   7.832  10.589 -0.3329 -1.1578  0.0585
53269SOL    HW266923  11.147   7.946  10.615  0.9379  0.0930 -0.5887
53270SOL     OW66924  10.707   9.148  12.290  0.1307  0.3204  0.2061
53270SOL    HW166925  10.775   9.212  12.267 -0.9161  0.9284 -1.2984
53270SOL    HW266926  10.636   9.201  12.326  0.2273 -0.2773  1.3451
53271SOL     OW66927   6.355   7.916   2.303  0.4479  0.3671  0.4078
53271SOL    HW166928   6.279   7.948   2.351  0.6960  1.5507  0.0403
53271SOL    HW266929   6.429   7.966   2.338  0.8637  0.1462 -0.1360
53272SOL     OW66930   6.966  10.456   6.485  0.4685  0.2880 -0.0372
53272SOL    HW166931   7.024  10.471   6.410  1.0099  0.4367  0.4017
53272SOL    HW266932   6.914  10.536   6.492 -0.4774 -0.2246 -1.0193
53273SOL     OW66933   2.633   8.391   5.776 -0.4530  0.2185 -0.0748
53273SOL    HW166934   2.603   8.436   5.854  1.3322  2.4870 -0.5870
53273SOL    HW266935   2.616   8.453   5.705 -0.6933 -1.1867 -1.2895
53274SOL     OW66936   2.544   0.346   7.128  0.3229 -0.0398  0.2360
53274SOL    HW166937   2.480   0.376   7.192 -0.0130  0.4782 -0.3328
53274SOL    HW266938   2.511   0.262   7.098  0.0215  0.1194  0.1143
53275SOL     OW66939   3.032   6.796   5.439 -0.1257  0.3121 -0.2333
53275SOL    HW166940   2.998   6.713   5.470  1.7829 -0.2340  0.5470
53275SOL    HW266941   3.024   6.791   5.343 -1.9637  0.1554 -0.0988
53276SOL     OW66942   0.167   9.293   9.008  0.0185 -0.6084  0.6165
53276SOL    HW166943   0.091   9.313   8.953 -0.0858 -0.8691  0.6676
53276SOL    HW266944   0.147   9.334   9.092 -0.1277 -0.7973  0.6740
53277SOL     OW66945   6.998   1.389   7.411  0.2175 -0.2120  0.2262
53277SOL    HW166946   6.911   1.427   7.416  0.7821  1.0616  1.1020
53277SOL    HW266947   7.025   1.379   7.503  2.2914  2.7035  0.0990
53278SOL     OW66948  12.000  12.271   8.028 -0.3044  0.3012 -0.6324
53278SOL    HW166949  12.028  12.362   8.038 -1.7601  0.8934 -1.6833
53278SOL    HW266950  11.964  12.248   8.113  0.3649  0.5924 -0.2599
53279SOL     OW66951  12.236  11.363   8.688 -0.0299  0.5356 -0.4171
53279SOL    HW166952  12.248  11.379   8.781 -0.4978  0.6939 -0.3843
53279SOL    HW266953  12.160  11.306   8.682 -0.9976  1.8007 -0.7790
53280SOL     OW66954   4.765   4.097   1.188  0.7154 -0.0183 -0.1914
53280SOL    HW166955   4.772   4.189   1.214 -2.1885  0.1476  0.4262
53280SOL    HW266956   4.717   4.100   1.105 -1.3424 -0.9572  0.8805
53281SOL     OW66957   8.054   0.217   3.921 -0.2089  0.4627  0.0602
53281SOL    HW166958   7.959   0.208   3.920 -0.2244  0.4662 -2.0745
53281SOL    HW266959   8.087   0.127   3.922 -0.2126  0.4610  0.4707
53282SOL     OW66960   4.203   4.918  10.980  0.0357  0.1820 -0.6509
53282SOL    HW166961   4.197   4.883  10.892  0.5365  1.5767 -1.2767
53282SOL    HW266962   4.235   4.845  11.033 -0.7942 -0.8256 -1.5038
53283SOL     OW66963   8.125   9.848  11.942  0.3017 -0.1787 -0.6693
53283SOL    HW166964   8.177   9.769  11.951 -0.6932 -0.9516 -1.3992
53283SOL    HW266965   8.120   9.864  11.848  0.8909  1.0499 -0.5208
53284SOL     OW66966   9.016  12.269  11.890  0.8287  0.3521 -0.2972
53284SOL    HW166967   9.007  12.260  11.985  1.9189 -0.4521 -0.2539
53284SOL    HW266968   9.062  12.190  11.862  0.3854  0.5050 -1.5248
53285SOL     OW66969   7.593   2.804  11.864  0.2798 -0.5677 -0.0574
53285SOL    HW166970   7.683   2.793  11.895  0.5559 -0.2172 -0.7190
53285SOL    HW266971   7.581   2.734  11.800 -0.5527 -1.7863  1.3796
53286SOL     OW66972   4.353   2.688   2.542  0.0240  0.0212  0.1374
53286SOL    HW166973   4.303   2.685   2.460  0.7668 -2.4061 -0.3088
53286SOL    HW266974   4.294   2.730   2.605 -1.1723  0.4706 -1.2474
53287SOL     OW66975   6.765   3.147  10.634  0.8257 -0.0799  0.4925
53287SOL    HW166976   6.825   3.120  10.564  1.7327 -0.1678  1.2942
53287SOL    HW266977   6.725   3.066  10.665  1.3320 -0.1823  0.8896
53288SOL     OW66978   1.860   6.694   0.688  0.6828  0.0814 -0.1084
53288SOL    HW166979   1.916   6.695   0.611  1.0028  2.2911  0.0991
53288SOL    HW266980   1.824   6.783   0.694 -1.0796 -0.6397  1.0503
53289SOL     OW66981   4.060   2.281   9.983  0.5356 -0.2918  0.1372
53289SOL    HW166982   4.152   2.300   9.968  0.7758 -0.9672  0.6993
53289SOL    HW266983   4.047   2.293  10.077  0.0838 -0.3274  0.0850
53290SOL     OW66984   9.279   7.727   5.800 -0.2761 -0.5761 -0.4594
53290SOL    HW166985   9.304   7.791   5.733 -0.8913  1.7253  1.3757
53290SOL    HW266986   9.194   7.693   5.770  0.0046 -0.4541 -1.4078
53291SOL     OW66987   3.122   3.394   9.276  0.0305  0.7685 -0.0769
53291SOL    HW166988   3.138   3.467   9.216 -0.6145  1.7467  0.9189
53291SOL    HW266989   3.196   3.335   9.261  0.5409  1.5956 -0.9309
53292SOL     OW66990   9.565  10.344   1.911  1.0753  0.1392 -0.1318
53292SOL    HW166991   9.588  10.260   1.871  1.1852 -0.1826  0.6018
53292SOL    HW266992   9.478  10.363   1.876  0.3215 -1.0993  0.9629
53293SOL     OW66993   7.004   9.413   0.049 -0.5109 -0.1219 -0.0118
53293SOL    HW166994   6.955   9.483   0.006 -1.4480 -0.7696 -0.0302
53293SOL    HW266995   6.938   9.347   0.072  0.1507 -0.4014  1.2102
53294SOL     OW66996   4.870   9.031   7.080  0.1397 -0.4245 -0.0982
53294SOL    HW166997   4.893   9.065   7.167  0.3809 -0.9938  0.0668
53294SOL    HW266998   4.860   9.109   7.026 -0.2771 -0.0505  0.5035
53295SOL     OW66999   9.181   8.142  11.386 -0.4466  0.1431  0.1640
53295SOL    HW167000   9.182   8.104  11.298  0.5610 -2.1002  1.0704
53295SOL    HW267001   9.128   8.082  11.438  1.7779 -0.5242  1.8126
53296SOL     OW67002   4.214   3.586   4.189 -0.2051 -0.1305 -0.0040
53296SOL    HW167003   4.252   3.669   4.219 -1.1673  0.9100 -1.5614
53296SOL    HW267004   4.129   3.581   4.233 -0.2656 -0.1760 -0.1273
53297SOL     OW67005   6.154   0.477   0.868 -0.0792  0.2803 -0.4368
53297SOL    HW167006   6.197   0.504   0.949 -0.9839 -1.0574  0.5421
53297SOL    HW267007   6.225   0.468   0.804  0.7317  0.7320  0.3790
53298SOL     OW67008  10.108   0.197  11.763 -0.4225 -0.1796  0.0255
53298SOL    HW167009  10.034   0.140  11.784  1.6302 -2.4059  1.8713
53298SOL    HW267010  10.146   0.158  11.684  0.8571 -1.3599  1.1679
53299SOL     OW67011  12.015  10.957  11.291 -0.0855  0.0782 -0.0784
53299SOL    HW167012  11.921  10.943  11.304  0.2377 -1.0455  1.2775
53299SOL    HW267013  12.046  10.991  11.375  1.0349 -1.4577  0.1732
53300SOL     OW67014   7.402  12.052   9.624 -0.2520  0.4316  0.9403
53300SOL    HW167015   7.408  12.014   9.536 -1.9148  1.2948  0.4197
53300SOL    HW267016   7.364  11.982   9.677  1.6043 -0.4171  1.2365
53301SOL     OW67017   6.491  12.157   3.676  0.3211 -0.5407 -0.3898
53301SOL    HW167018   6.466  12.065   3.670 -0.0762 -0.5248  0.7524
53301SOL    HW267019   6.491  12.188   3.586 -1.0651 -1.2606 -0.6622
53302SOL     OW67020   8.089   9.193   1.719  0.3574  0.5085 -0.3790
53302SOL    HW167021   8.164   9.150   1.678  0.1064 -1.5545  1.1634
53302SOL    HW267022   8.076   9.272   1.668  1.8869 -0.4405 -2.3771
53303SOL     OW67023  12.097   5.620  10.487 -0.4859  0.1240  0.7303
53303SOL    HW167024  12.189   5.618  10.463 -0.7083  1.2954 -0.3704
53303SOL    HW267025  12.087   5.552  10.554  1.0086 -0.5107  0.3379
53304SOL     OW67026  10.373   0.424   3.490 -0.2206 -0.3525 -0.4797
53304SOL    HW167027  10.398   0.332   3.488  2.1941  0.1886  0.7709
53304SOL    HW267028  10.395   0.457   3.403  2.1925 -0.2691  0.0949
53305SOL     OW67029   3.588   7.826   2.056 -0.1064  0.2747  0.4817
53305SOL    HW167030   3.510   7.880   2.061 -0.1533  0.1855  0.7314
53305SOL    HW267031   3.661   7.888   2.059 -0.1712  0.4364 -0.8070
53306SOL     OW67032   1.949   6.298   8.071 -0.1953 -0.8268 -0.1186
53306SOL    HW167033   1.968   6.335   7.985 -0.1002 -1.1724 -0.2496
53306SOL    HW267034   1.853   6.297   8.076 -0.2042 -0.9577 -0.2894
53307SOL     OW67035   7.649   1.213   0.261 -0.0203  0.1823  0.0008
53307SOL    HW167036   7.622   1.193   0.351 -1.5580 -0.2551 -0.5275
53307SOL    HW267037   7.579   1.177   0.207  1.2796 -0.2889 -1.4354
53308SOL     OW67038   0.863   6.294   4.333 -0.4476 -0.0457  0.0720
53308SOL    HW167039   0.876   6.288   4.239 -1.4426  0.5614 -0.1097
53308SOL    HW267040   0.952   6.300   4.369 -0.0789  0.0973 -0.8504
53309SOL     OW67041   1.397  12.440  11.898  0.3526 -0.2278 -0.0830
53309SOL    HW167042   1.464  12.503  11.873 -0.0926 -0.3698 -1.7712
53309SOL    HW267043   1.436  12.354  11.879  0.0144 -0.3449 -0.2716
53310SOL     OW67044   4.980   5.817   4.263 -0.0560  0.2490  0.4938
53310SOL    HW167045   5.049   5.754   4.242  0.5231  1.8114 -3.0839
53310SOL    HW267046   4.906   5.791   4.208 -0.9191  0.8995  1.3119
53311SOL     OW67047   2.089   0.360   1.393 -0.0660  0.3080  0.3721
53311SOL    HW167048   2.164   0.343   1.449 -0.9494  0.1695  1.5409
53311SOL    HW267049   2.112   0.440   1.345  0.3367  0.9364  1.5902
53312SOL     OW67050  12.801   4.372   7.286 -0.0426 -0.2590  0.1729
53312SOL    HW167051  12.837   4.299   7.337 -0.1629  0.2901  1.0648
53312SOL    HW267052  12.798   4.339   7.196 -1.9818 -2.1158  0.8069
53313SOL     OW67053  12.113  11.997   9.268 -0.2102  0.1310 -0.1747
53313SOL    HW167054  12.113  12.092   9.257 -1.5998  0.2396  0.5283
53313SOL    HW267055  12.140  11.963   9.183 -0.7890  1.1345 -0.7825
53314SOL     OW67056   9.060   6.489   0.378  0.4090  0.0332  0.0889
53314SOL    HW167057   9.130   6.431   0.407 -0.6219 -1.7564 -0.8596
53314SOL    HW267058   8.993   6.482   0.446  0.4359  0.4459  0.1631
53315SOL     OW67059   8.062   6.705   7.910 -0.0977  0.0111  0.6430
53315SOL    HW167060   8.094   6.688   7.821 -2.0027 -0.7189  0.0457
53315SOL    HW267061   8.002   6.633   7.928 -1.7395  1.5002  1.4920
53316SOL     OW67062   3.575   7.670   4.230 -0.6838  0.4389  0.6373
53316SOL    HW167063   3.625   7.588   4.225 -0.8364  0.2372  2.0155
53316SOL    HW267064   3.580   7.706   4.141  0.7160 -0.2692  0.3924
53317SOL     OW67065   3.373   3.389   4.367 -0.1393 -0.2005 -0.2764
53317SOL    HW167066   3.309   3.451   4.331 -0.9766 -0.6190  0.4753
53317SOL    HW267067   3.341   3.303   4.340 -0.9950 -0.5546  1.7393
53318SOL     OW67068  12.474   5.327   3.262  0.1017  0.4565 -0.0142
53318SOL    HW167069  12.423   5.324   3.343  1.7598 -1.3823  1.0498
53318SOL    HW267070  12.562   5.354   3.290  0.1274  2.1827 -1.6001
53319SOL     OW67071   7.096  10.720  11.746 -0.1045 -0.3658 -0.1338
53319SOL    HW167072   7.114  10.786  11.813 -0.5285 -0.7007  0.3201
53319SOL    HW267073   7.161  10.651  11.761 -1.7473 -1.6517  1.6087
53320SOL     OW67074   0.124  11.732   1.371  0.5311  0.1542 -0.4655
53320SOL    HW167075   0.070  11.687   1.436  0.3833  1.5497  0.4315
53320SOL    HW267076   0.205  11.753   1.418  0.1169  1.8834 -0.4342
53321SOL     OW67077   4.007   6.916  12.325 -0.1656 -0.0775  0.2418
53321SOL    HW167078   4.011   6.953  12.413  1.0486  0.3730  0.0136
53321SOL    HW267079   4.074   6.963  12.276 -1.4645  0.3577 -1.1895
53322SOL     OW67080   2.897   6.330   3.469 -0.4185  0.0077  0.5906
53322SOL    HW167081   2.907   6.338   3.564 -1.4709  2.2585  0.5723
53322SOL    HW267082   2.981   6.357   3.433 -0.4381  0.4492  0.8677
53323SOL     OW67083   4.980   2.163  10.915 -0.1319 -0.0573 -0.4027
53323SOL    HW167084   4.953   2.213  10.838  0.8289  3.2674  1.2229
53323SOL    HW267085   5.075   2.157  10.907  0.0877  1.1311  0.8686
53324SOL     OW67086   5.482   4.185   0.381  0.5837 -0.2330 -0.1017
53324SOL    HW167087   5.567   4.142   0.374  0.9328  0.7119 -2.6206
53324SOL    HW267088   5.444   4.178   0.294 -0.9672  1.2727  0.4025
53325SOL     OW67089   4.209   5.035   7.319 -0.0354  0.7637  0.2044
53325SOL    HW167090   4.116   5.017   7.324  0.1248 -0.6161 -0.9913
53325SOL    HW267091   4.236   5.050   7.409 -1.3789  1.0945  0.5700
53326SOL     OW67092  12.435   5.967   5.384 -0.2878  0.7280 -0.3560
53326SOL    HW167093  12.406   5.919   5.462  2.4665  0.1342  0.4319
53326SOL    HW267094  12.466   6.051   5.418  0.4921  0.6532 -0.8433
53327SOL     OW67095   4.727  12.209   8.021 -0.3675  0.0619  0.4225
53327SOL    HW167096   4.772  12.252   8.094  0.5943  0.2170 -0.2363
53327SOL    HW267097   4.664  12.274   7.991  0.9166  0.9677 -0.4149
53328SOL     OW67098   3.844   5.588  10.550 -0.0728  0.2889 -0.3033
53328SOL    HW167099   3.877   5.592  10.640  0.6430 -1.1870 -0.4680
53328SOL    HW267100   3.827   5.679  10.526 -0.0306  0.7181  1.2344
53329SOL     OW67101   6.433   6.637   6.015  0.1256  0.5526 -0.2358
53329SOL    HW167102   6.424   6.553   5.970 -0.0645 -0.1859  1.1299
53329SOL    HW267103   6.528   6.652   6.022  0.1739  0.0816  0.1557
53330SOL     OW67104   4.819   6.795   5.257  0.2201 -0.4921  0.3256
53330SOL    HW167105   4.882   6.784   5.187  0.2656  1.5330 -0.0098
53330SOL    HW267106   4.738   6.756   5.224  0.3595  0.0654 -0.6874
53331SOL     OW67107  10.824   9.630   1.915 -0.6660 -0.6387  0.4685
53331SOL    HW167108  10.896   9.597   1.861  0.2405  0.3692  1.0054
53331SOL    HW267109  10.811   9.720   1.884 -0.3603 -0.1589  1.6753
53332SOL     OW67110   7.522   5.115   4.446  0.2086  0.2363  1.1629
53332SOL    HW167111   7.610   5.077   4.437  0.5629  1.1680  0.5449
53332SOL    HW267112   7.517   5.181   4.377 -1.6949 -1.1250 -0.1155
53333SOL     OW67113   1.784   3.648   6.633  0.0174 -0.2959  0.6297
53333SOL    HW167114   1.755   3.702   6.707  1.0491 -1.8011  2.2101
53333SOL    HW267115   1.825   3.572   6.674  2.1035 -0.4229 -1.4925
53334SOL     OW67116   0.872   1.428   1.741 -0.3341 -0.0107  0.3815
53334SOL    HW167117   0.825   1.510   1.753  1.2727  1.0977 -0.5242
53334SOL    HW267118   0.937   1.426   1.810 -1.6980 -1.6014  1.7109
53335SOL     OW67119   4.442   6.289   3.812 -0.1743 -0.0255  0.0779
53335SOL    HW167120   4.424   6.301   3.906 -0.8957 -1.7484  0.2078
53335SOL    HW267121   4.530   6.250   3.810  0.9442  2.3069 -0.1700
53336SOL     OW67122  12.166   6.877  10.355  0.5100  0.2176 -0.7443
53336SOL    HW167123  12.258   6.898  10.370  0.7185 -0.4281 -1.0841
53336SOL    HW267124  12.146   6.915  10.270  0.2564  0.9687 -0.3622
53337SOL     OW67125   1.786   5.938   7.919  0.1743  0.4528 -0.0559
53337SOL    HW167126   1.800   5.917   8.011 -1.1145 -1.0643 -0.1626
53337SOL    HW267127   1.844   5.879   7.872 -0.3016  0.1260 -0.2433
53338SOL     OW67128  12.199   8.890  10.150  0.1070  0.1254 -0.1571
53338SOL    HW167129  12.190   8.911  10.057  0.2703  1.4545  0.1100
53338SOL    HW267130  12.233   8.801  10.151 -0.5041 -0.1432 -1.3558
53339SOL     OW67131   8.432  12.895   6.335 -0.7412  0.1329  0.2027
53339SOL    HW167132   8.430  12.973   6.389 -1.4382  0.4365 -0.2378
53339SOL    HW267133   8.419  12.823   6.396  0.7643  0.2672  0.7301
53340SOL     OW67134   5.274   0.114   4.397 -0.2320  0.2427  0.3325
53340SOL    HW167135   5.186   0.151   4.394 -0.2236  0.3516 -3.1107
53340SOL    HW267136   5.324   0.168   4.335  1.3037 -1.9935 -0.4840
53341SOL     OW67137  10.372   6.976  11.183  0.1604 -0.8489 -0.2148
53341SOL    HW167138  10.304   6.970  11.115  0.1536 -0.7033 -0.2190
53341SOL    HW267139  10.444   6.924  11.149  0.6272  0.2041 -0.8787
53342SOL     OW67140  11.796  12.166   9.287  0.0361 -0.1637  0.4686
53342SOL    HW167141  11.892  12.164   9.283  0.0690  0.2960  0.9908
53342SOL    HW267142  11.775  12.247   9.333 -0.5915 -0.4887  0.7724
53343SOL     OW67143  10.677   5.289   9.599  0.5284  0.7256 -0.1109
53343SOL    HW167144  10.741   5.250   9.540 -1.4386  0.4520 -2.1847
53343SOL    HW267145  10.647   5.217   9.653 -0.8813 -0.0862 -1.8741
53344SOL     OW67146  11.567   8.662   6.922  0.1990  0.1329  0.0885
53344SOL    HW167147  11.591   8.704   7.005 -0.4441 -0.6402  0.6767
53344SOL    HW267148  11.557   8.735   6.860 -0.9367  0.8682  1.0963
53345SOL     OW67149   8.696   1.936   5.893 -0.4848  0.2559  0.4965
53345SOL    HW167150   8.743   1.868   5.941  0.1777 -1.3929 -2.2800
53345SOL    HW267151   8.608   1.899   5.879 -1.5055  1.7465  2.3820
53346SOL     OW67152   5.538   2.541   2.764  0.1776  0.3311  0.6969
53346SOL    HW167153   5.615   2.496   2.800  0.1264  0.1357  0.5595
53346SOL    HW267154   5.519   2.609   2.829  0.0439 -0.0654  1.0814
53347SOL     OW67155   3.752  10.179   6.923  0.2313 -0.1889  0.5338
53347SOL    HW167156   3.706  10.117   6.979  0.4035 -1.5622 -0.7780
53347SOL    HW267157   3.689  10.201   6.854  0.8092 -0.4400 -0.0901
53348SOL     OW67158   9.125   6.650   9.852  0.2231  0.6864 -0.2249
53348SOL    HW167159   9.052   6.681   9.905  0.3873  0.0527  0.3845
53348SOL    HW267160   9.181   6.727   9.840  0.8836  0.5530  1.6900
53349SOL     OW67161  11.491   3.377   7.271 -0.9903  0.2209  0.3180
53349SOL    HW167162  11.513   3.300   7.324  0.6573  0.1929 -0.3502
53349SOL    HW267163  11.395   3.379   7.271 -1.0673 -1.4735  0.8532
53350SOL     OW67164   6.937   4.034  11.188 -0.0490  1.1627  0.1214
53350SOL    HW167165   6.945   4.124  11.156  0.3548  0.3999 -2.0943
53350SOL    HW267166   6.995   3.983  11.130 -2.4249 -0.9392 -0.5682
53351SOL     OW67167   4.602  10.005  12.349  0.1693  0.1820 -0.5323
53351SOL    HW167168   4.692  10.035  12.337  0.5093 -0.9073 -0.8712
53351SOL    HW267169   4.573  10.046  12.430  1.2455 -0.0673 -0.0135
53352SOL     OW67170   2.413   5.307   3.165 -0.2720  0.4546 -0.0360
53352SOL    HW167171   2.462   5.264   3.094 -2.1537 -0.2367 -0.9836
53352SOL    HW267172   2.321   5.300   3.138 -1.1171 -0.3360  2.7520
53353SOL     OW67173   3.278   8.416   2.454 -0.1040 -0.4404 -1.1507
53353SOL    HW167174   3.329   8.339   2.478 -1.7172 -1.3249 -0.3255
53353SOL    HW267175   3.251   8.453   2.539  1.0671  1.3690 -1.5140
53354SOL     OW67176   4.856   2.406  11.898 -0.4022  0.2749  0.0544
53354SOL    HW167177   4.951   2.408  11.894 -0.3032 -2.4625 -1.4158
53354SOL    HW267178   4.832   2.483  11.951  2.6633  0.1814  1.8095
53355SOL     OW67179  12.377  10.850   0.427  0.7570  0.1159 -0.4976
53355SOL    HW167180  12.372  10.754   0.419 -1.1298  0.1111  0.0827
53355SOL    HW267181  12.318  10.882   0.359  0.4809  0.8010  0.0547
53356SOL     OW67182   3.990   8.793   3.885 -0.4265  0.3751  0.3916
53356SOL    HW167183   3.910   8.756   3.923  0.2668 -1.4366  0.1800
53356SOL    HW267184   4.054   8.792   3.956  0.7189 -2.5338 -0.5471
53357SOL     OW67185   8.190   6.719   4.381 -0.7309  0.0007 -0.4009
53357SOL    HW167186   8.161   6.633   4.352  0.6006 -0.0715 -1.5797
53357SOL    HW267187   8.286   6.714   4.380 -0.6184  1.6855 -1.1463
53358SOL     OW67188   5.143   0.462   3.701  0.1863 -0.5265 -0.0460
53358SOL    HW167189   5.085   0.437   3.630  0.1175 -0.2447 -0.0898
53358SOL    HW267190   5.118   0.552   3.722  1.7343  0.2249 -1.2193
53359SOL     OW67191   6.926   6.628  11.497  0.5420  0.4909 -0.1734
53359SOL    HW167192   6.898   6.541  11.472 -1.2687  0.8039  0.6561
53359SOL    HW267193   6.902   6.683  11.422  0.7871  0.4556 -0.2821
53360SOL     OW67194  12.100   8.504  12.500  0.3229 -0.0447  0.1929
53360SOL    HW167195  12.082   8.515  12.594  0.2082 -1.2182  0.3167
53360SOL    HW267196  12.173   8.564  12.483  0.8773 -0.4097  1.2103
53361SOL     OW67197   7.516   4.238  12.609  0.5669 -0.3094  0.6070
53361SOL    HW167198   7.562   4.211  12.530 -2.5152 -1.9397 -0.8373
53361SOL    HW267199   7.480   4.324  12.588 -0.9191 -1.0841 -0.1589
53362SOL     OW67200   1.038  11.711   7.242  0.0135  0.1532  0.2051
53362SOL    HW167201   0.954  11.677   7.214 -0.4733  1.4962 -0.0403
53362SOL    HW267202   1.069  11.647   7.307 -1.3822 -0.1481  0.6177
53363SOL     OW67203   5.718   9.684   2.516  0.5108 -0.1895  0.8048
53363SOL    HW167204   5.734   9.761   2.570 -1.2960  0.5633  0.3569
53363SOL    HW267205   5.704   9.719   2.428  2.7574 -1.3345 -0.0832
53364SOL     OW67206   7.855   9.411   6.385 -0.3410 -0.4379  0.3859
53364SOL    HW167207   7.936   9.377   6.423 -0.6045 -0.5349  0.8596
53364SOL    HW267208   7.883   9.457   6.306 -0.0571 -2.4866 -0.7735
53365SOL     OW67209   1.345   8.696   5.915  0.1726  0.4131  0.1599
53365SOL    HW167210   1.366   8.759   5.846  0.3910 -0.2848 -0.4227
53365SOL    HW267211   1.384   8.734   5.994  0.1568  1.0892 -0.1483
53366SOL     OW67212  11.614   2.658  12.232 -0.3129 -0.4542 -0.1436
53366SOL    HW167213  11.649   2.667  12.320  0.1132 -1.2564 -0.2182
53366SOL    HW267214  11.589   2.566  12.225 -0.3370 -0.4025 -0.8603
53367SOL     OW67215   3.906   5.776   1.344  0.0035  0.4883 -0.1963
53367SOL    HW167216   3.924   5.722   1.268 -2.0804  0.8609 -1.0247
53367SOL    HW267217   3.831   5.734   1.386 -0.0347  1.3147  0.6004
53368SOL     OW67218   6.039  11.062   2.696  0.8402 -0.1858 -0.1469
53368SOL    HW167219   6.067  11.021   2.778 -1.0643 -1.2528  0.0239
53368SOL    HW267220   6.112  11.120   2.672  2.0240 -0.8892  1.5576
53369SOL     OW67221   7.566   0.934   8.760  0.2261  0.0286 -0.1642
53369SOL    HW167222   7.614   0.886   8.828 -2.0649 -1.5513  0.4786
53369SOL    HW267223   7.515   0.999   8.809 -1.1039 -0.8254 -0.3646
53370SOL     OW67224  10.052   6.674   9.687  0.2349  0.1908  0.1333
53370SOL    HW167225   9.965   6.701   9.658 -0.6093 -1.5523  0.8818
53370SOL    HW267226  10.068   6.592   9.641  1.3336  0.3031  0.2962
53371SOL     OW67227  11.483   3.178   6.198  0.3632 -0.3498 -0.1383
53371SOL    HW167228  11.465   3.112   6.264  0.5239  1.9012  2.3183
53371SOL    HW267229  11.399   3.190   6.153  0.2557 -1.9303 -0.4256
53372SOL     OW67230   4.891   1.470   7.403  0.5248 -0.1867 -0.1310
53372SOL    HW167231   4.842   1.388   7.403 -0.3883  0.3347  0.3801
53372SOL    HW267232   4.859   1.516   7.325  1.5228 -0.5790 -0.7910
53373SOL     OW67233   8.943   3.197   9.622 -0.4868  0.1872  0.1039
53373SOL    HW167234   8.984   3.279   9.647 -0.4662  0.3812 -0.5428
53373SOL    HW267235   8.981   3.176   9.536 -2.3274  0.8252 -0.9265
53374SOL     OW67236   1.809  11.386   3.443 -0.3469 -0.3500  0.6063
53374SOL    HW167237   1.752  11.342   3.506 -1.1891  0.6815  0.6048
53374SOL    HW267238   1.860  11.316   3.404 -1.8686 -1.3718  0.3566
53375SOL     OW67239   8.237   2.593   2.534  0.1345  0.1263  0.2058
53375SOL    HW167240   8.327   2.592   2.566  0.5017  0.3133 -0.7789
53375SOL    HW267241   8.241   2.549   2.449 -0.7866 -0.2785  0.3619
53376SOL     OW67242  10.430   9.141   8.821  0.8905  0.3563  0.3278
53376SOL    HW167243  10.486   9.106   8.891  1.0364  0.5684  0.3172
53376SOL    HW267244  10.483   9.210   8.780  0.9366  0.0089 -0.2074
53377SOL     OW67245   1.739   3.880   5.787  0.6276 -0.6707  0.1611
53377SOL    HW167246   1.787   3.891   5.705 -0.8246 -0.8450 -0.7381
53377SOL    HW267247   1.795   3.922   5.853  0.4287  2.3345 -1.3921
53378SOL     OW67248  10.481   5.914   1.707 -0.0287 -0.6760 -0.0984
53378SOL    HW167249  10.484   5.849   1.638  1.9147 -1.1256  0.3435
53378SOL    HW267250  10.431   5.873   1.777  0.2591 -1.2651 -0.2348
53379SOL     OW67251   1.808   9.218   4.525 -0.3510 -0.0855 -0.3949
53379SOL    HW167252   1.740   9.248   4.586 -0.5408  2.7806 -1.8675
53379SOL    HW267253   1.793   9.124   4.517 -0.0710 -0.7379  4.1747
53380SOL     OW67254   2.777   3.073   1.537  0.1304  0.6027  0.2857
53380SOL    HW167255   2.764   3.068   1.443  0.0424  1.3486  0.2523
53380SOL    HW267256   2.745   3.160   1.561  0.3399  0.4950  0.9701
53381SOL     OW67257   3.604   3.317   1.898  0.2025  0.3007  0.0420
53381SOL    HW167258   3.635   3.278   1.815 -2.3778 -2.9462  0.4043
53381SOL    HW267259   3.654   3.271   1.965 -0.0098  0.5681  0.3824
53382SOL     OW67260   7.931   0.821  10.684  0.3167 -0.7413 -0.0986
53382SOL    HW167261   7.968   0.894  10.734 -0.8309 -1.3357  1.7328
53382SOL    HW267262   8.006   0.783  10.639  1.4849 -0.2860  1.3470
53383SOL     OW67263  11.322   3.274   5.434 -0.4795 -0.3458  0.2532
53383SOL    HW167264  11.276   3.196   5.465  0.3667 -1.8138 -1.9356
53383SOL    HW267265  11.337   3.258   5.341 -0.3685  2.5150 -0.3188
53384SOL     OW67266  12.602   4.064   7.942 -0.3684 -0.3796 -0.6609
53384SOL    HW167267  12.595   3.991   7.880 -1.4077 -0.4222 -0.5000
53384SOL    HW267268  12.531   4.050   8.005 -1.8373  1.8306 -1.7208
53385SOL     OW67269  11.250  11.324   5.658 -0.6028  0.1065 -0.2394
53385SOL    HW167270  11.161  11.346   5.683 -0.6123  0.4003 -0.5443
53385SOL    HW267271  11.266  11.372   5.577  0.5604  1.7777  0.9142
53386SOL     OW67272   5.413   5.194   1.565  0.4407  0.7433  0.1033
53386SOL    HW167273   5.323   5.227   1.565  0.7168  1.5496  0.7872
53386SOL    HW267274   5.435   5.184   1.473 -0.9571 -1.2660 -0.0738
53387SOL     OW67275   6.267  11.147   0.077 -0.4161 -0.3441 -0.5424
53387SOL    HW167276   6.328  11.074   0.086  0.1784  0.2194  0.1622
53387SOL    HW267277   6.210  11.139   0.153 -1.2898 -0.9113 -1.2381
53388SOL     OW67278   0.002   3.620   3.714 -0.0212  0.1959  0.4139
53388SOL    HW167279   0.025   3.528   3.697  0.2332  0.4608 -0.7272
53388SOL    HW267280  -0.093   3.620   3.723  0.0132 -0.2351  0.8678
53389SOL     OW67281   8.110   9.026   4.622 -0.3168  0.6630 -0.0170
53389SOL    HW167282   8.197   9.011   4.659  0.4763  1.7622 -1.3840
53389SOL    HW267283   8.066   8.941   4.632 -0.4640  1.0157  4.0514
53390SOL     OW67284   9.345   9.346   9.716 -0.2051 -0.5967  0.0260
53390SOL    HW167285   9.421   9.323   9.663  0.7014  3.0647 -0.6007
53390SOL    HW267286   9.382   9.368   9.802 -0.2592  2.0360 -0.5236
53391SOL     OW67287   6.637   3.605   2.916 -0.1547  0.1596 -0.0436
53391SOL    HW167288   6.648   3.639   3.005 -0.8227  2.7383 -0.8571
53391SOL    HW267289   6.548   3.572   2.913  0.5066 -1.8469  0.7636
53392SOL     OW67290   6.798  11.055   8.923 -0.0412 -0.6609  0.3558
53392SOL    HW167291   6.852  11.023   8.995  1.8484  0.7342 -0.3487
53392SOL    HW267292   6.825  11.003   8.847  0.1572 -0.1111  0.0443
53393SOL     OW67293   1.176   7.628   3.739  0.2318  0.2888 -0.3666
53393SOL    HW167294   1.184   7.607   3.646 -0.0920 -1.1009 -0.1063
53393SOL    HW267295   1.114   7.700   3.742 -0.5235 -0.3066 -1.1751
53394SOL     OW67296  10.267   6.632  10.245 -0.7400 -0.2598 -0.7063
53394SOL    HW167297  10.244   6.552  10.292 -0.1331  0.8067  1.5317
53394SOL    HW267298  10.201   6.695  10.272 -1.0042  0.1376 -2.1736
53395SOL     OW67299  11.401   3.744   7.416 -0.0394 -0.1016 -0.5829
53395SOL    HW167300  11.334   3.676   7.410  0.0368 -0.1480 -0.9885
53395SOL    HW267301  11.354   3.826   7.407  0.1830 -0.1770 -3.6216
53396SOL     OW67302   8.806  12.189   4.736 -0.2991  0.2776  0.4190
53396SOL    HW167303   8.853  12.201   4.819  1.1151 -0.1833 -0.2722
53396SOL    HW267304   8.861  12.128   4.687 -0.5321  1.3929 -1.2946
53397SOL     OW67305   9.868  11.035   4.651  0.2064 -0.2533  0.5788
53397SOL    HW167306   9.909  11.005   4.570 -0.1258  1.7593 -0.3680
53397SOL    HW267307   9.942  11.062   4.706  0.3538  3.1607 -1.0412
53398SOL     OW67308   4.417   7.607  12.210  0.2060 -0.1859 -0.5128
53398SOL    HW167309   4.355   7.599  12.283  0.6576  0.7180 -0.0109
53398SOL    HW267310   4.371   7.569  12.135  0.4014 -2.7735  0.5919
53399SOL     OW67311   7.261   4.024   1.285  0.4002  0.3532  0.5887
53399SOL    HW167312   7.227   4.068   1.363  0.2817  1.2715  0.0289
53399SOL    HW267313   7.247   4.086   1.214  1.8427  0.1205  0.0765
53400SOL     OW67314  10.067   0.060  11.235  0.2980  0.5247  0.8692
53400SOL    HW167315  10.019  -0.016  11.269 -1.1987  0.5613 -0.9996
53400SOL    HW267316  10.041   0.065  11.143  2.7061  1.5232  0.1704
53401SOL     OW67317   1.458   6.832  11.602 -0.2184  0.2827 -0.4181
53401SOL    HW167318   1.363   6.826  11.587 -0.4055  3.0774 -0.9284
53401SOL    HW267319   1.495   6.761  11.550 -1.9785 -0.4698 -0.7239
53402SOL     OW67320   0.105   3.678   1.236 -0.0737 -0.0900 -0.8002
53402SOL    HW167321   0.150   3.697   1.318  3.4515 -0.9056 -2.3418
53402SOL    HW267322   0.065   3.761   1.211  1.4113  1.0232  0.2991
53403SOL     OW67323   1.883   3.947   7.528  0.0769  0.2154  0.0591
53403SOL    HW167324   1.803   3.991   7.496  0.6199  2.0950  1.1187
53403SOL    HW267325   1.880   3.860   7.488 -1.6689  0.8043 -1.2330
53404SOL     OW67326   2.536  11.105   8.949  0.5082 -0.2179 -0.4193
53404SOL    HW167327   2.598  11.146   8.887 -0.1671  0.4975 -0.6354
53404SOL    HW267328   2.524  11.172   9.017 -0.2200 -0.2538 -0.5116
53405SOL     OW67329   8.428  12.756  12.493  0.7183  0.0710 -0.2787
53405SOL    HW167330   8.440  12.728  12.584  2.1950 -0.7907 -0.7138
53405SOL    HW267331   8.352  12.705  12.463  0.9463 -0.5298  0.1288
53406SOL     OW67332   8.995   5.619   8.748  0.2603 -0.2737 -0.3841
53406SOL    HW167333   9.033   5.551   8.804 -0.7394 -0.5081  0.0427
53406SOL    HW267334   9.059   5.631   8.678  1.1643 -0.5535  0.3736
53407SOL     OW67335   7.777   6.705  10.019 -0.5754  0.0239  0.4238
53407SOL    HW167336   7.723   6.651   9.962  0.3499 -0.0357 -0.4118
53407SOL    HW267337   7.836   6.642  10.062 -0.6982  0.1664  0.8006
53408SOL     OW67338   7.801  11.580  11.819  0.2187 -0.1790 -0.4344
53408SOL    HW167339   7.860  11.656  11.818  0.3380 -0.2721 -0.9864
53408SOL    HW267340   7.788  11.561  11.912  1.7968 -0.7112 -0.2893
53409SOL     OW67341   6.384   0.082  12.557  0.0226 -0.1361 -0.2020
53409SOL    HW167342   6.431   0.111  12.635  0.2827 -2.4639  0.5678
53409SOL    HW267343   6.398   0.153  12.494  0.6317  1.3569  1.5104
53410SOL     OW67344  12.205  12.582  10.824  0.2091  0.3326  0.1926
53410SOL    HW167345  12.288  12.592  10.777  0.3902  1.9694  0.8185
53410SOL    HW267346  12.172  12.497  10.795  2.9035 -1.1660  1.1516
53411SOL     OW67347   9.923   6.682   5.216  0.0936 -0.3158  0.4554
53411SOL    HW167348   9.844   6.705   5.166  1.3983  0.9844 -1.1403
53411SOL    HW267349   9.890   6.646   5.298 -2.1950  2.2921  0.8469
53412SOL     OW67350  11.407  11.023   3.599  0.0810 -0.1110 -0.2821
53412SOL    HW167351  11.433  11.039   3.690 -1.8107 -0.5170  0.3709
53412SOL    HW267352  11.395  11.110   3.561  1.8250  0.0817 -0.4780
53413SOL     OW67353  11.646   0.911   5.512  0.8698 -0.8633  0.4040
53413SOL    HW167354  11.680   0.971   5.578  1.5221 -0.6247 -0.1346
53413SOL    HW267355  11.710   0.916   5.441  0.5814 -1.6943  0.0782
53414SOL     OW67356  11.036   4.090   8.203 -0.4801  0.0367  0.3434
53414SOL    HW167357  10.999   4.071   8.116 -0.2769  1.9411 -0.1979
53414SOL    HW267358  11.072   4.178   8.195 -0.8943  0.4548  2.5172
53415SOL     OW67359   6.193   4.125   6.764 -0.2554  0.0625  0.6461
53415SOL    HW167360   6.232   4.213   6.763 -1.4821  0.7455 -3.2094
53415SOL    HW267361   6.266   4.066   6.781  0.8014  1.7085  2.1940
53416SOL     OW67362   8.957   5.113   1.957  0.1531 -0.1420  0.1252
53416SOL    HW167363   8.881   5.079   2.004  0.5263  1.0290  1.6717
53416SOL    HW267364   8.944   5.085   1.867 -1.7156 -0.6187  0.4983
53417SOL     OW67365  12.541   0.272   0.083 -0.1126 -0.6197 -0.1835
53417SOL    HW167366  12.593   0.237   0.010  0.3672 -0.9828  0.3247
53417SOL    HW267367  12.559   0.213   0.156 -2.1179 -1.4083 -0.2765
53418SOL     OW67368   7.954   4.717  12.217 -0.5182 -0.2440 -0.5475
53418SOL    HW167369   8.042   4.743  12.191  0.0786 -1.5052  0.1515
53418SOL    HW267370   7.898   4.787  12.183  0.7677  0.7347 -0.7304
53419SOL     OW67371   5.804  12.728  11.224 -0.0237  0.2828 -0.0677
53419SOL    HW167372   5.868  12.771  11.280 -0.9746  0.4755  0.9088
53419SOL    HW267373   5.753  12.673  11.284  0.7554 -1.7629 -1.1745
53420SOL     OW67374   8.319   0.120   8.112 -0.1575  0.1138 -0.4517
53420SOL    HW167375   8.321   0.070   8.031  0.1901  0.1590 -0.4727
53420SOL    HW267376   8.368   0.200   8.092 -2.9715  1.7623 -1.2641
53421SOL     OW67377   8.431  12.795   5.409  0.0109  0.1206 -0.0887
53421SOL    HW167378   8.391  12.727   5.463  0.1602  0.5913  0.6340
53421SOL    HW267379   8.519  12.806   5.444 -0.2522  1.1932  0.2975
53422SOL     OW67380   0.066   6.556   8.589  0.4258 -0.2488  0.2589
53422SOL    HW167381   0.126   6.485   8.568 -0.4693 -0.6265 -1.1768
53422SOL    HW267382   0.100   6.632   8.540  1.1971  0.2573  1.5318
53423SOL     OW67383   6.266   7.645   1.119 -0.0085 -0.4934  0.2503
53423SOL    HW167384   6.264   7.588   1.196  1.0031  0.3704  0.9430
53423SOL    HW267385   6.187   7.622   1.070 -0.0962 -1.8354  0.9770
53424SOL     OW67386  12.801   9.850  12.940 -0.3995  0.3313  0.2980
53424SOL    HW167387  12.762   9.936  12.959  0.9786  1.2468 -0.8187
53424SOL    HW267388  12.890   9.870  12.913 -0.4132 -1.3735 -1.1386
53425SOL     OW67389   7.419  11.246   6.515 -0.5359 -0.2473 -0.1735
53425SOL    HW167390   7.370  11.198   6.582 -0.2905  0.0858  0.2496
53425SOL    HW267391   7.361  11.318   6.491 -0.4391 -0.1088  0.0057
53426SOL     OW67392   5.277   1.825  12.685  0.2342  0.0595 -0.5732
53426SOL    HW167393   5.203   1.803  12.741  1.6400 -1.2118  0.8961
53426SOL    HW267394   5.315   1.903  12.727 -0.2995  0.7669 -1.3777
53427SOL     OW67395   9.982   5.686   2.605 -0.4799  0.2226 -0.3659
53427SOL    HW167396  10.076   5.699   2.616 -0.2968 -0.2766 -1.3032
53427SOL    HW267397   9.957   5.630   2.679 -0.1513  0.7570  0.1693
53428SOL     OW67398   2.002   3.231   5.377  0.1361  0.6223 -0.7025
53428SOL    HW167399   1.995   3.146   5.420 -0.5912  0.2891 -1.4551
53428SOL    HW267400   1.928   3.281   5.413  0.2851  0.7746 -0.6100
53429SOL     OW67401   3.434   2.635   8.053 -0.1826  0.4494 -0.1024
53429SOL    HW167402   3.497   2.685   8.001  0.6347  0.1524  0.5786
53429SOL    HW267403   3.417   2.557   8.000  1.5757 -0.4474  0.5441
53430SOL     OW67404   8.136   2.989   9.164 -0.1867 -0.1489  0.6025
53430SOL    HW167405   8.188   3.015   9.240  2.1742 -0.4689 -0.8247
53430SOL    HW267406   8.121   3.071   9.116  1.2430 -0.3698 -0.2809
53431SOL     OW67407   1.220   0.149   3.950 -0.2428  0.1036  0.3921
53431SOL    HW167408   1.169   0.068   3.950  1.4124 -0.9966  0.9406
53431SOL    HW267409   1.165   0.213   3.994 -1.3180 -0.9068  0.5448
53432SOL     OW67410  10.631   6.745  12.033  0.1233 -0.0920 -0.5071
53432SOL    HW167411  10.600   6.776  11.948 -0.1853 -0.8164 -0.6629
53432SOL    HW267412  10.664   6.824  12.077 -0.4321  0.4142 -0.9872
53433SOL     OW67413   4.827  12.382   6.342 -0.0300  0.0922 -0.0158
53433SOL    HW167414   4.891  12.451   6.325 -1.8398  1.4751 -1.7879
53433SOL    HW267415   4.792  12.360   6.255 -2.5141  0.0200  0.9082
53434SOL     OW67416   7.650   1.469   5.504  0.1541  0.0010  0.6488
53434SOL    HW167417   7.559   1.440   5.498  0.4731 -0.9125  0.1150
53434SOL    HW267418   7.648   1.560   5.474 -0.3865 -0.4381 -0.7332
53435SOL     OW67419   0.779  10.639   7.374 -0.0775  0.0447 -0.4363
53435SOL    HW167420   0.750  10.566   7.320  1.8961 -0.2592 -1.1921
53435SOL    HW267421   0.701  10.692   7.389 -2.0867 -3.2729  1.9506
53436SOL     OW67422   6.417   0.333   4.511 -0.2697  0.1094  0.0265
53436SOL    HW167423   6.512   0.349   4.515 -0.5845  2.2332  0.5617
53436SOL    HW267424   6.386   0.389   4.440 -1.3625  1.0161  1.1761
53437SOL     OW67425   8.983   5.342   6.672 -0.0177 -0.3331 -0.0632
53437SOL    HW167426   8.924   5.277   6.635 -0.9722  0.3740  0.1823
53437SOL    HW267427   9.057   5.291   6.706 -1.4087 -1.4638  1.4474
53438SOL     OW67428   2.016  11.962   8.840 -0.5594 -0.3108 -0.2952
53438SOL    HW167429   2.031  12.055   8.853  0.4071 -0.5602  0.5523
53438SOL    HW267430   2.064  11.920   8.912  0.0307 -1.5205 -1.3457
53439SOL     OW67431  10.453   9.877   9.311 -0.2041 -0.3174 -0.3639
53439SOL    HW167432  10.465   9.972   9.306  1.2373 -0.5184 -1.2163
53439SOL    HW267433  10.360   9.864   9.291 -0.4284  0.9023 -0.2296
53440SOL     OW67434   9.162  11.694   9.705  0.2341  0.0126 -0.5049
53440SOL    HW167435   9.075  11.660   9.683  0.1402 -0.2613  0.2601
53440SOL    HW267436   9.179  11.760   9.639 -0.2260 -0.4801 -1.1315
53441SOL     OW67437   8.930   7.717   4.255  0.2046  0.4463 -0.2152
53441SOL    HW167438   8.971   7.634   4.279  0.5770  0.5934 -0.3365
53441SOL    HW267439   8.959   7.779   4.322 -0.1255  0.4646 -0.0874
53442SOL     OW67440   5.475   7.053  12.311 -0.3261 -0.0989  0.2069
53442SOL    HW167441   5.478   7.031  12.218 -3.7082 -3.2598  0.6182
53442SOL    HW267442   5.437   6.976  12.352  0.2284  1.5204  4.1582
53443SOL     OW67443  11.455   4.428   0.821  0.0993 -0.5713  0.1752
53443SOL    HW167444  11.383   4.480   0.858  0.5085  0.6255 -0.6435
53443SOL    HW267445  11.435   4.338   0.846 -0.1159  0.0558  2.5038
53444SOL     OW67446  10.021   7.865   8.520  0.4719 -0.5833  0.0556
53444SOL    HW167447   9.974   7.847   8.602  0.9390  1.7998  0.9285
53444SOL    HW267448  10.108   7.827   8.533  0.5896 -0.1017  0.7563
53445SOL     OW67449   5.418   4.996   4.769 -0.2171 -0.2971  0.4727
53445SOL    HW167450   5.408   5.070   4.830 -2.3469 -0.5612  0.5061
53445SOL    HW267451   5.456   5.034   4.690 -0.1891  0.6099  0.9151
53446SOL     OW67452  11.441  10.090  11.137  0.2395  0.2605 -0.1134
53446SOL    HW167453  11.402  10.124  11.218 -0.2375  0.4725 -0.4243
53446SOL    HW267454  11.500  10.160  11.108 -1.2107  1.1341 -1.0867
53447SOL     OW67455   7.431   0.771   9.161 -0.2010  0.4615  0.3003
53447SOL    HW167456   7.525   0.753   9.171 -0.4818 -0.6040  1.2168
53447SOL    HW267457   7.426   0.866   9.156  1.0172  0.4967 -0.7969
53448SOL     OW67458   2.110  11.368   0.706  0.4174  0.4472 -0.2710
53448SOL    HW167459   2.017  11.352   0.688  0.6557 -0.3421 -0.8518
53448SOL    HW267460   2.133  11.441   0.648  0.1408  0.7336 -0.0300
53449SOL     OW67461   6.018  12.625   6.753  0.1971 -0.1761  0.3531
53449SOL    HW167462   6.035  12.594   6.841  4.1839  1.0966  0.2138
53449SOL    HW267463   6.088  12.588   6.700 -2.2045 -1.1110 -2.4696
53450SOL     OW67464   0.068   1.044  12.177  0.4826 -0.1785  0.1503
53450SOL    HW167465   0.161   1.024  12.169  0.4094 -0.0849 -1.2554
53450SOL    HW267466   0.059   1.131  12.137 -0.1561 -0.0312  0.5969
53451SOL     OW67467   0.629   7.773   9.337  0.2009 -0.5324 -0.2040
53451SOL    HW167468   0.666   7.761   9.425 -1.9705 -3.7703  0.4342
53451SOL    HW267469   0.662   7.700   9.286 -0.0070  0.2982 -1.5861
53452SOL     OW67470   9.545   2.743  12.550  0.8581  0.0549  0.4172
53452SOL    HW167471   9.610   2.813  12.554  2.5010 -1.2732 -1.1909
53452SOL    HW267472   9.500   2.758  12.466 -0.1007  0.2472  0.9506
53453SOL     OW67473   5.596  10.257   8.546  0.4813  0.0479  0.1004
53453SOL    HW167474   5.531  10.186   8.551  1.0514 -0.4331  0.9808
53453SOL    HW267475   5.586  10.292   8.458  0.8520 -1.7728 -0.7155
53454SOL     OW67476   9.192   1.318   8.903 -0.2142  0.1894  0.3483
53454SOL    HW167477   9.143   1.326   8.822 -1.2605  2.0767  1.1021
53454SOL    HW267478   9.189   1.405   8.942  0.5521 -0.5733  2.2542
53455SOL     OW67479  11.575   2.641   4.203 -0.3201 -0.4609 -0.0153
53455SOL    HW167480  11.534   2.726   4.219 -1.6327 -1.0322 -0.2375
53455SOL    HW267481  11.602   2.644   4.111  2.1875  0.7207  0.6451
53456SOL     OW67482   3.894   4.838   6.741  0.4119  0.3661  0.4152
53456SOL    HW167483   3.805   4.836   6.776  0.0727 -0.7229 -0.4606
53456SOL    HW267484   3.938   4.765   6.786  0.5468  0.2297  0.0646
53457SOL     OW67485   9.629   8.545   0.860 -0.2385 -0.0351  0.5211
53457SOL    HW167486   9.687   8.478   0.825 -0.1222  0.2825  0.0948
53457SOL    HW267487   9.572   8.568   0.786 -0.0319  0.5952  0.5534
53458SOL     OW67488   1.791   0.759   6.533 -0.0413 -0.0544 -0.5750
53458SOL    HW167489   1.878   0.728   6.559 -0.0472 -0.0601 -0.5620
53458SOL    HW267490   1.730   0.699   6.577 -0.1406  1.5267  1.6289
53459SOL     OW67491   6.161   2.176   4.546 -0.0209 -0.0182 -0.3427
53459SOL    HW167492   6.067   2.181   4.565  0.0106  0.1498 -0.2218
53459SOL    HW267493   6.186   2.087   4.569  0.1563  0.3820  1.1000
53460SOL     OW67494   6.607   4.372   6.527 -0.3908  0.1431 -0.3734
53460SOL    HW167495   6.540   4.437   6.505 -0.7269 -0.1503 -0.2295
53460SOL    HW267496   6.559   4.301   6.569 -0.0813 -0.3865 -0.9054
53461SOL     OW67497   1.938   4.194   9.785  0.5631  0.6883 -0.3525
53461SOL    HW167498   1.859   4.143   9.803  1.1569 -0.4582 -0.8986
53461SOL    HW267499   1.947   4.252   9.861 -0.6162  0.6204 -0.1375
53462SOL     OW67500  11.742   1.735   5.499 -0.3596 -0.4399 -0.4580
53462SOL    HW167501  11.655   1.737   5.537 -0.3010 -2.4606 -0.1085
53462SOL    HW267502  11.742   1.659   5.441  1.3440 -0.8457  0.0042
53463SOL     OW67503   1.813  10.801  11.348 -0.3013  0.3358  0.0575
53463SOL    HW167504   1.886  10.745  11.374  2.1928  3.0868 -0.4626
53463SOL    HW267505   1.760  10.745  11.290  1.5382 -1.6961  0.1829
53464SOL     OW67506   9.058   7.649   0.182  0.1018  0.4219  0.1148
53464SOL    HW167507   9.085   7.603   0.262  5.5310 -0.6664 -1.8750
53464SOL    HW267508   9.093   7.737   0.192 -1.0238  0.9221 -0.2591
53465SOL     OW67509   2.332  12.648   3.636 -0.0342 -0.0910 -0.3467
53465SOL    HW167510   2.291  12.657   3.722 -1.7311  1.2590 -1.2465
53465SOL    HW267511   2.405  12.587   3.651 -1.8750 -1.9972  1.4890
53466SOL     OW67512  12.878   3.321   3.271  0.7242 -0.1616  0.5132
53466SOL    HW167513  12.916   3.236   3.247 -0.4190  0.1215 -2.8263
53466SOL    HW267514  12.943   3.361   3.329  1.4850 -3.0855  1.8773
53467SOL     OW67515  12.554   8.595  10.610  0.4109  0.1034  0.4937
53467SOL    HW167516  12.495   8.649  10.556 -1.8683 -0.1654  2.5174
53467SOL    HW267517  12.565   8.515  10.559 -1.3367  0.0105  0.1752
53468SOL     OW67518   1.189   0.606   8.220  0.1725 -0.1000  0.1416
53468SOL    HW167519   1.130   0.599   8.295  0.5612  1.0741  0.5851
53468SOL    HW267520   1.138   0.574   8.146 -1.7456  2.5379  0.1687
53469SOL     OW67521   9.964   3.738  12.723 -0.6539  0.0358  0.0992
53469SOL    HW167522   9.956   3.732  12.628 -2.6768  0.5751  0.1922
53469SOL    HW267523   9.874   3.735  12.755 -0.1290  1.5112  1.9037
53470SOL     OW67524   7.420   3.176   6.894  0.2742  0.3091  0.0701
53470SOL    HW167525   7.451   3.128   6.970  0.7192 -0.1162 -0.3752
53470SOL    HW267526   7.394   3.262   6.928 -1.5224 -0.5645  1.0467
53471SOL     OW67527   8.541   8.144  12.349 -1.0276 -0.6180 -0.4389
53471SOL    HW167528   8.517   8.065  12.399  1.2480 -0.8961  0.2949
53471SOL    HW267529   8.574   8.205  12.415  1.1785 -0.6414 -1.4463
53472SOL     OW67530   5.712   7.928  10.914  0.3164  0.3969 -0.0671
53472SOL    HW167531   5.717   7.963  11.003 -0.5201  0.7494 -0.1482
53472SOL    HW267532   5.626   7.886  10.910 -0.1761  1.4417 -1.0700
53473SOL     OW67533   9.842  10.891   1.684  0.2005 -0.1358  0.1417
53473SOL    HW167534   9.802  10.816   1.640 -1.3324  0.0435  1.1789
53473SOL    HW267535   9.929  10.860   1.709 -0.6980 -1.8992  1.2995
53474SOL     OW67536   4.859   3.809   1.976  0.2694 -0.1831  0.1014
53474SOL    HW167537   4.900   3.732   1.936 -0.7010 -1.2994  1.1681
53474SOL    HW267538   4.842   3.868   1.903  0.7756 -1.1080 -0.7858
53475SOL     OW67539   4.666   8.515  12.375  0.4824 -0.2350  0.3442
53475SOL    HW167540   4.582   8.486  12.410 -0.6731  0.3797 -1.7617
53475SOL    HW267541   4.701   8.440  12.328 -0.8316  0.5771 -2.1056
53476SOL     OW67542   5.355  11.887  11.763  0.1073 -0.4333 -0.6423
53476SOL    HW167543   5.410  11.955  11.725 -0.6745 -0.1346 -1.2714
53476SOL    HW267544   5.416  11.828  11.807  0.7824  0.8319  0.1925
53477SOL     OW67545   1.896   7.436   9.732 -0.0963  0.3687  0.2963
53477SOL    HW167546   1.916   7.523   9.767 -1.1802  0.7978 -0.1218
53477SOL    HW267547   1.875   7.451   9.640 -0.6619 -0.2823  0.3099
53478SOL     OW67548  11.816  11.228  10.442 -0.5415  0.5602  0.2237
53478SOL    HW167549  11.818  11.324  10.439 -0.6330  0.5612 -2.2045
53478SOL    HW267550  11.784  11.202  10.355  2.6156 -1.7273 -0.4513
53479SOL     OW67551   6.265   6.061   3.573  0.0415 -0.2733  0.4265
53479SOL    HW167552   6.312   6.052   3.656  1.3280 -1.2355 -0.3704
53479SOL    HW267553   6.302   5.992   3.517 -0.5520  0.5777 -1.0632
53480SOL     OW67554   0.893   3.005   5.728 -0.1714  0.1249 -0.6930
53480SOL    HW167555   0.849   3.081   5.766 -0.0121 -0.1628  0.0829
53480SOL    HW267556   0.912   3.031   5.638  1.2661  1.5998 -0.0043
53481SOL     OW67557  10.199   8.926   9.561 -0.0856 -0.0565 -0.1115
53481SOL    HW167558  10.123   8.978   9.534 -0.3426 -1.1321 -1.5956
53481SOL    HW267559  10.275   8.981   9.539 -0.3723  0.0777 -0.7775
53482SOL     OW67560   6.557   5.093   3.531 -0.5512  0.0545 -0.2778
53482SOL    HW167561   6.540   5.056   3.618  0.2247 -1.0192 -0.5625
53482SOL    HW267562   6.473   5.127   3.503 -1.6182 -2.5535 -0.4683
53483SOL     OW67563  12.461  12.887   8.216  0.6329  0.1380  0.0063
53483SOL    HW167564  12.449  12.938   8.296  0.3394 -2.3962  1.6841
53483SOL    HW267565  12.372  12.870   8.185  0.5014 -2.1700  1.4318
53484SOL     OW67566   6.014   9.844   4.731 -0.0672  0.6978 -0.3562
53484SOL    HW167567   6.031   9.754   4.703  1.3366  0.9537 -0.3820
53484SOL    HW267568   6.057   9.898   4.665 -1.5539  1.4408 -0.7761
53485SOL     OW67569   6.783   8.138   2.007 -0.3540  0.2340  1.0186
53485SOL    HW167570   6.708   8.133   2.067  0.5059 -0.9724  2.0476
53485SOL    HW267571   6.821   8.050   2.008  0.4382  0.5198 -0.3500
53486SOL     OW67572   8.453   4.461   1.916 -0.3935 -0.1945 -0.0166
53486SOL    HW167573   8.421   4.474   1.827 -0.6998  2.5545  0.4215
53486SOL    HW267574   8.375   4.441   1.967 -0.3342 -0.9062 -0.1908
53487SOL     OW67575   7.904   8.372   2.776 -0.0023 -0.2809 -0.1367
53487SOL    HW167576   7.968   8.441   2.796 -0.9111  1.0683 -1.5985
53487SOL    HW267577   7.939   8.328   2.699 -0.2702 -0.2846 -0.2586
53488SOL     OW67578   6.482   6.115   8.941  0.6374  0.0338  0.2117
53488SOL    HW167579   6.451   6.045   8.999 -0.1020  1.8186  2.1194
53488SOL    HW267580   6.443   6.095   8.856 -0.3242 -1.3503  0.9387
53489SOL     OW67581   0.388   3.002   6.701  0.5499 -0.5928 -0.2085
53489SOL    HW167582   0.404   3.012   6.795 -0.2561  2.0092 -0.2664
53489SOL    HW267583   0.327   2.928   6.695 -0.9579  0.4073  1.5716
53490SOL     OW67584   9.377   7.461   3.710  0.4808  0.2472  0.0896
53490SOL    HW167585   9.284   7.474   3.697  0.4514 -0.9293 -1.1906
53490SOL    HW267586   9.414   7.459   3.621  1.6661  0.3706  0.5555
53491SOL     OW67587   3.099   4.998   7.800 -0.0100 -0.5134  0.2574
53491SOL    HW167588   3.036   5.058   7.761 -1.9770 -1.9084  1.1241
53491SOL    HW267589   3.183   5.023   7.762 -0.9941  1.7081 -0.6116
53492SOL     OW67590   4.578  10.023   2.243 -0.1590  0.2625 -0.2791
53492SOL    HW167591   4.674  10.018   2.240 -0.0957  1.5169 -1.2211
53492SOL    HW267592   4.558  10.040   2.334  0.6960  2.4615 -0.4520
53493SOL     OW67593   7.927   8.847   9.945  0.1539 -0.0014 -0.5278
53493SOL    HW167594   7.851   8.800   9.979  0.4552 -1.6670 -1.9886
53493SOL    HW267595   8.000   8.787   9.959  1.0562  1.1612 -0.0523
53494SOL     OW67596   2.530   9.321   0.465 -0.7418 -0.1105 -0.1437
53494SOL    HW167597   2.545   9.396   0.407 -0.0422  0.8782  1.2504
53494SOL    HW267598   2.520   9.360   0.552  0.7234 -1.6879  0.7834
53495SOL     OW67599  10.091  11.104   5.526 -0.7271 -0.1215 -0.0734
53495SOL    HW167600  10.068  11.084   5.616  0.6943 -1.5702  0.0172
53495SOL    HW267601  10.066  11.026   5.476 -2.4387  1.0465 -1.1573
53496SOL     OW67602   1.866  12.135   1.801 -0.2222  1.0474 -0.0692
53496SOL    HW167603   1.778  12.163   1.825 -0.9827  0.3650 -1.8695
53496SOL    HW267604   1.857  12.041   1.785  1.2067  0.6570  1.2725
53497SOL     OW67605   4.397   1.517   6.918 -0.4650  0.0796  0.7733
53497SOL    HW167606   4.419   1.580   6.849 -1.5668 -0.4996 -0.1409
53497SOL    HW267607   4.477   1.467   6.932 -0.3846 -0.1674 -0.5022
53498SOL     OW67608   0.047   3.340   9.168 -0.4075 -0.4332  0.5258
53498SOL    HW167609   0.116   3.318   9.232 -1.1818 -1.3105  1.0940
53498SOL    HW267610   0.074   3.295   9.088  0.4422  0.4678  0.2858
53499SOL     OW67611   6.805   2.303  11.048 -0.3282  0.3528  0.1263
53499SOL    HW167612   6.777   2.228  10.996 -1.6338  1.3133 -0.6081
53499SOL    HW267613   6.886   2.274  11.090 -0.2127 -1.0721 -1.0068
53500SOL     OW67614   2.110   0.276   4.225  0.1685  0.8510  0.5498
53500SOL    HW167615   2.102   0.293   4.131  0.5827  0.5171  0.4524
53500SOL    HW267616   2.198   0.304   4.248  0.1513  0.7116  0.7931
53501SOL     OW67617  10.018   4.761   1.198  0.5507 -0.8294  0.4359
53501SOL    HW167618  10.047   4.729   1.283  0.0713  0.4403  1.1065
53501SOL    HW267619   9.930   4.795   1.214  0.2588 -1.0143 -0.6832
53502SOL     OW67620   8.591   5.531   5.761 -0.4728 -0.2541  0.0939
53502SOL    HW167621   8.532   5.606   5.749 -0.8331 -0.8888 -2.9184
53502SOL    HW267622   8.540   5.468   5.811 -0.4680  1.1334  1.9396
53503SOL     OW67623   8.456   9.360   2.770  0.3846 -0.7252  0.5770
53503SOL    HW167624   8.501   9.442   2.753 -2.7359  0.5414 -2.9298
53503SOL    HW267625   8.510   9.316   2.836  4.2589  2.3765 -0.1580
53504SOL     OW67626   7.518   5.434   3.449  0.2816  0.2133  0.1377
53504SOL    HW167627   7.525   5.401   3.539  1.4354 -0.4271 -0.1597
53504SOL    HW267628   7.602   5.478   3.434  0.1620  0.1611 -0.6755
53505SOL     OW67629   1.439  12.272  10.943 -0.3179  0.0915 -0.5376
53505SOL    HW167630   1.498  12.234  11.008  1.2514  0.5934 -1.5966
53505SOL    HW267631   1.366  12.211  10.938  1.1344 -1.7138 -0.7001
53506SOL     OW67632   1.585   8.323   7.527  0.2697 -0.3942  0.2556
53506SOL    HW167633   1.558   8.414   7.540 -0.7066 -0.3653 -1.6819
53506SOL    HW267634   1.678   8.323   7.548  1.1768  1.8776 -3.0313
53507SOL     OW67635   6.250   4.735   9.105  1.1531 -0.2030  0.1175
53507SOL    HW167636   6.226   4.701   9.191  1.6723 -0.1113  0.3047
53507SOL    HW267637   6.168   4.763   9.065  1.1991  2.7874  1.8541
53508SOL     OW67638   4.282   9.181   6.547 -0.1679  0.0451 -0.0628
53508SOL    HW167639   4.320   9.266   6.569  0.7301  0.2378 -2.1425
53508SOL    HW267640   4.319   9.160   6.461 -2.3374 -1.2572 -0.7452
53509SOL     OW67641  12.595   1.896  11.705 -0.2287  0.2786 -0.0247
53509SOL    HW167642  12.566   1.955  11.636  0.4834  0.2289 -0.3802
53509SOL    HW267643  12.568   1.938  11.786 -0.8433  0.4643 -0.3171
53510SOL     OW67644   0.347  11.886   0.528  0.5987  0.0944 -0.4551
53510SOL    HW167645   0.368  11.824   0.458 -0.2246 -0.8300  0.0999
53510SOL    HW267646   0.256  11.867   0.551  0.5250  1.0920  0.1644
53511SOL     OW67647   3.164  10.127   2.822 -0.0919  0.2141 -0.1863
53511SOL    HW167648   3.250  10.151   2.857  1.1057 -2.5976 -0.8531
53511SOL    HW267649   3.112  10.207   2.828  1.9991  1.5570  1.9277
53512SOL     OW67650   9.459   1.205  12.632 -0.3772 -0.2901 -0.3321
53512SOL    HW167651   9.447   1.259  12.554  1.7092 -1.6301 -1.6936
53512SOL    HW267652   9.457   1.115  12.599  1.8126 -0.8703  0.8800
53513SOL     OW67653   4.341   3.653  12.247 -0.1752 -0.2223 -0.1221
53513SOL    HW167654   4.329   3.566  12.284 -1.4210 -0.2555 -0.5656
53513SOL    HW267655   4.419   3.688  12.291  0.4743 -1.6352 -0.1077
53514SOL     OW67656   9.131   6.516   5.273 -0.1538  0.2561 -0.8920
53514SOL    HW167657   9.194   6.476   5.333  0.3605  3.2965  0.8037
53514SOL    HW267658   9.053   6.532   5.327  0.1335  2.5991 -1.0822
53515SOL     OW67659   8.447   9.476   0.682 -0.0647 -0.0993  0.2049
53515SOL    HW167660   8.523   9.452   0.735  1.4941 -0.5848 -2.1118
53515SOL    HW267661   8.432   9.569   0.702  0.7632 -0.1560  1.1405
53516SOL     OW67662   5.523   6.247   3.071 -0.0083  0.8002  0.4170
53516SOL    HW167663   5.609   6.234   3.110 -0.0715  1.4234  0.7721
53516SOL    HW267664   5.531   6.330   3.022 -0.1875  0.4825 -0.1642
53517SOL     OW67665  11.784   5.516   0.951 -0.3768  0.4733  0.5461
53517SOL    HW167666  11.806   5.605   0.979 -0.7930  0.0839  2.2031
53517SOL    HW267667  11.688   5.515   0.947 -0.3374  0.9441 -2.4856
53518SOL     OW67668   5.505   5.404  10.068  0.1015  0.1037  0.5850
53518SOL    HW167669   5.468   5.386   9.982  0.4419 -0.7363  0.6066
53518SOL    HW267670   5.580   5.346  10.075  1.3728  1.6803  0.6005
53519SOL     OW67671   2.126   3.943   8.327  0.3783  0.4570  0.1811
53519SOL    HW167672   2.096   3.853   8.316  1.7698 -0.1492  1.0406
53519SOL    HW267673   2.215   3.943   8.290 -0.4161  2.0724 -1.9331
53520SOL     OW67674   6.235  11.681   3.017  0.2405 -0.4911  0.1931
53520SOL    HW167675   6.180  11.612   2.981  0.3000 -0.3868 -0.0968
53520SOL    HW267676   6.182  11.721   3.087 -0.4865  0.3452 -0.8126
53521SOL     OW67677   5.627  11.382  11.526 -0.1004  0.4608 -0.2212
53521SOL    HW167678   5.608  11.296  11.563  2.6482 -0.1926 -0.0975
53521SOL    HW267679   5.720  11.396  11.544  0.5551  1.6680 -3.8120
53522SOL     OW67680  12.056   0.985   0.735 -0.2115 -0.0880  0.3071
53522SOL    HW167681  11.974   0.982   0.785  0.1080 -3.5862  0.8577
53522SOL    HW267682  12.037   0.935   0.655  1.0183  0.2171 -0.2020
53523SOL     OW67683   6.906  10.641   7.292  0.1335  0.3175 -0.3590
53523SOL    HW167684   6.824  10.619   7.337  0.2085  0.8982  0.0806
53523SOL    HW267685   6.917  10.572   7.227 -0.1311 -0.3904  0.3197
53524SOL     OW67686  11.410   8.346   3.748 -0.1931  0.1726 -0.3320
53524SOL    HW167687  11.481   8.311   3.695 -0.1321  0.2241 -0.2835
53524SOL    HW267688  11.390   8.431   3.708 -0.1816  0.1881 -0.3030
53525SOL     OW67689  11.309   3.222   5.161 -0.3010 -0.0744  0.6670
53525SOL    HW167690  11.370   3.190   5.095 -0.0096  1.5977  0.0582
53525SOL    HW267691  11.244   3.272   5.111 -0.6452  0.3925  1.5540
53526SOL     OW67692   7.743   0.527   6.949 -0.4694  0.3201 -0.1413
53526SOL    HW167693   7.657   0.561   6.926 -2.0274 -2.8613  0.3639
53526SOL    HW267694   7.764   0.466   6.878  0.7080  0.0375  0.4288
53527SOL     OW67695   4.326   9.982  12.337 -0.1457  0.1165  0.1064
53527SOL    HW167696   4.276  10.059  12.310 -0.7115 -0.6517 -1.1938
53527SOL    HW267697   4.416  10.001  12.312 -0.2017  0.5418  0.2277
53528SOL     OW67698  11.972   7.037  12.152 -0.2604  0.3314 -0.4591
53528SOL    HW167699  11.926   6.977  12.093  0.2588 -0.3205 -0.2121
53528SOL    HW267700  12.064   7.008  12.149 -0.3946 -0.4813  1.5700
53529SOL     OW67701   4.850  12.343   7.326  0.1433 -0.4987 -0.2493
53529SOL    HW167702   4.846  12.259   7.280 -0.8859 -0.4864 -0.2097
53529SOL    HW267703   4.928  12.337   7.380  0.1881 -1.3555 -0.3951
53530SOL     OW67704   5.657  11.607  12.718 -0.0945 -0.4193  0.2260
53530SOL    HW167705   5.564  11.615  12.740 -0.0557 -1.7894  0.9923
53530SOL    HW267706   5.670  11.670  12.647 -0.9978  1.6818  1.8258
53531SOL     OW67707  11.138   2.751   2.450 -0.2378 -0.4622  0.0960
53531SOL    HW167708  11.062   2.727   2.504 -0.8624 -0.2969 -0.6914
53531SOL    HW267709  11.156   2.842   2.476 -0.4235 -0.4414  0.1615
53532SOL     OW67710   4.519   3.409   4.080 -0.0054  0.2205 -0.1592
53532SOL    HW167711   4.447   3.400   4.017  0.8486 -0.4491 -1.0808
53532SOL    HW267712   4.567   3.326   4.072  0.5967  0.4755  0.7752
53533SOL     OW67713   9.285  11.064  10.477 -0.1139  0.7123 -0.1677
53533SOL    HW167714   9.250  11.148  10.508 -0.0227  0.4060  0.8113
53533SOL    HW267715   9.290  11.011  10.556 -0.8370 -0.4614 -0.8850
53534SOL     OW67716   1.130   2.814  11.449 -0.2627  0.4135 -0.7726
53534SOL    HW167717   1.066   2.745  11.428 -1.3927  0.4054  2.1520
53534SOL    HW267718   1.215   2.772  11.439 -0.8629 -0.8062 -0.9492
53535SOL     OW67719   9.173   7.247   6.958 -0.1457  0.4356  0.8703
53535SOL    HW167720   9.078   7.250   6.947  0.0841  2.7887 -1.2856
53535SOL    HW267721   9.196   7.154   6.947 -1.9319  0.2011 -1.3763
53536SOL     OW67722   2.852  11.040  11.393 -0.1335  0.0406  0.5503
53536SOL    HW167723   2.819  11.073  11.477 -1.5765  0.6793 -0.2387
53536SOL    HW267724   2.827  10.948  11.392  0.5494 -0.1566  1.1354
53537SOL     OW67725   7.099   7.600   3.788  0.4064 -0.2949  0.7689
53537SOL    HW167726   7.074   7.592   3.881  0.5874  1.0943  0.9668
53537SOL    HW267727   7.181   7.551   3.781 -0.0771 -1.1832  1.1248
53538SOL     OW67728   0.632   3.208   5.445  0.3446 -0.1796  0.3395
53538SOL    HW167729   0.587   3.125   5.454 -0.2595  0.2290  1.3325
53538SOL    HW267730   0.594   3.264   5.514  0.8396  0.8611 -0.1978
53539SOL     OW67731  10.045   7.039   1.044 -0.0517 -0.0258  0.1803
53539SOL    HW167732  10.044   7.134   1.036 -0.2889  0.0427  0.9478
53539SOL    HW267733  10.123   7.011   0.996  1.9127  0.8324  2.6835
53540SOL     OW67734   0.579  10.469   4.377  0.0719 -0.7493  0.0301
53540SOL    HW167735   0.570  10.388   4.427  0.8057  0.1837  1.7495
53540SOL    HW267736   0.531  10.534   4.428  1.9851  0.5236  0.2821
53541SOL     OW67737  11.733   0.010   5.879 -0.7641 -0.2573  0.3223
53541SOL    HW167738  11.708  -0.081   5.896 -1.4734 -0.0898  0.1854
53541SOL    HW267739  11.706   0.058   5.958 -1.3663  0.0171 -0.0519
53542SOL     OW67740   3.517  12.793   0.338  0.0686  0.0139  0.4676
53542SOL    HW167741   3.436  12.806   0.289  0.8350 -0.2150 -0.8978
53542SOL    HW267742   3.561  12.878   0.333  0.3529 -0.1388  0.3615
53543SOL     OW67743   6.949   0.211  12.365 -0.8767 -0.2874 -0.1420
53543SOL    HW167744   6.861   0.177  12.380 -1.4319  0.8278 -0.7596
53543SOL    HW267745   7.002   0.172  12.434 -1.8568 -0.9521  0.2514
53544SOL     OW67746   1.834  12.587   4.568 -0.0604 -0.1977  0.1603
53544SOL    HW167747   1.927  12.599   4.588  0.7251 -2.8790 -1.3824
53544SOL    HW267748   1.794  12.567   4.652  1.1010 -0.6692  0.6319
53545SOL     OW67749   3.035   5.681   3.170  0.1170  0.1660 -0.1116
53545SOL    HW167750   3.049   5.755   3.111  0.0129  0.8951  0.7513
53545SOL    HW267751   3.049   5.717   3.258 -0.2046 -0.7733  0.3429
53546SOL     OW67752   6.456   1.207   9.227  0.4455  0.2467  0.4278
53546SOL    HW167753   6.520   1.197   9.298  1.7315 -0.6374 -0.7833
53546SOL    HW267754   6.438   1.118   9.198 -0.7734  0.5366  0.2375
53547SOL     OW67755   6.941  11.635   4.312 -0.0904 -0.3069  0.6002
53547SOL    HW167756   6.963  11.586   4.392 -0.5870  0.4993  1.2438
53547SOL    HW267757   7.017  11.690   4.296 -0.7727  1.0352  1.7101
53548SOL     OW67758  10.090   5.043   3.973 -0.5241 -0.4873 -0.0509
53548SOL    HW167759  10.092   5.139   3.972  2.2295 -0.4165  1.6249
53548SOL    HW267760  10.097   5.020   4.066  0.2983 -2.3128 -0.5162
53549SOL     OW67761   6.311  12.845   1.839 -0.9454  0.1828  0.2250
53549SOL    HW167762   6.365  12.768   1.861 -1.3633 -0.1730  0.0122
53549SOL    HW267763   6.276  12.874   1.923 -2.9547 -1.4800  0.0515
53550SOL     OW67764  11.185   3.609   4.954 -0.4116  0.0484 -0.3059
53550SOL    HW167765  11.177   3.629   5.047 -1.9110  0.1911 -0.4378
53550SOL    HW267766  11.238   3.680   4.918 -1.2736  0.9422  0.1501
53551SOL     OW67767   8.233   7.948   0.146 -0.1843 -0.6141 -0.5523
53551SOL    HW167768   8.283   8.011   0.094  0.5774  2.1102  3.0783
53551SOL    HW267769   8.148   7.990   0.160  0.1385 -0.5746  1.5221
53552SOL     OW67770   6.753   0.967   9.230 -0.1801  0.0916 -0.1763
53552SOL    HW167771   6.790   1.028   9.294 -1.4236  1.1077 -0.3789
53552SOL    HW267772   6.741   1.020   9.151 -1.4056 -0.3671 -0.3177
53553SOL     OW67773   6.929   3.276   0.835  0.0676  0.3572  0.4162
53553SOL    HW167774   7.018   3.252   0.859 -0.4987 -2.0250  0.3867
53553SOL    HW267775   6.916   3.235   0.750 -0.8636  1.2198  0.1297
53554SOL     OW67776  10.554  11.333   7.147  0.4237  0.0583  0.4110
53554SOL    HW167777  10.547  11.319   7.242 -0.9328 -0.1264  0.3109
53554SOL    HW267778  10.472  11.376   7.123  0.5708 -0.2642 -0.7402
53555SOL     OW67779  11.104  12.007  11.919  0.6173 -0.4481  0.4882
53555SOL    HW167780  11.195  12.037  11.921  1.3037 -2.3081  3.7718
53555SOL    HW267781  11.108  11.919  11.882 -0.0296 -0.2049 -0.1963
53556SOL     OW67782   2.703   3.059   6.964 -0.5078 -0.5582  0.0468
53556SOL    HW167783   2.748   3.071   6.881 -0.8843 -0.2412 -0.1132
53556SOL    HW267784   2.692   3.148   6.999 -0.3316 -0.6881  0.4493
53557SOL     OW67785  10.813   2.200   6.831 -0.0869  0.1140 -0.6166
53557SOL    HW167786  10.847   2.170   6.915 -1.8445  0.0909  0.1195
53557SOL    HW267787  10.732   2.151   6.819 -1.6791  2.5505 -0.6408
53558SOL     OW67788   0.283   4.578   9.198  0.0440  0.0462 -0.1714
53558SOL    HW167789   0.202   4.528   9.189 -0.9714  1.5366  0.3735
53558SOL    HW267790   0.332   4.531   9.265 -1.0511 -0.0202  0.6133
53559SOL     OW67791   1.793   1.849   9.273  0.1713  0.0770  0.1639
53559SOL    HW167792   1.881   1.867   9.305 -1.3475  2.5182  3.5738
53559SOL    HW267793   1.772   1.762   9.307  0.4597  0.4575  1.3279
53560SOL     OW67794   7.808  10.645  10.372  0.6604 -0.0223 -0.1461
53560SOL    HW167795   7.871  10.651  10.444  2.1169 -0.8494 -1.2852
53560SOL    HW267796   7.807  10.732  10.333 -0.5118  0.5738  1.1219
53561SOL     OW67797   8.503   0.049   9.183 -0.6613  0.4731 -0.0895
53561SOL    HW167798   8.520   0.143   9.188 -1.9059  0.6946  0.5762
53561SOL    HW267799   8.410   0.040   9.206 -0.4683 -0.9542  0.2907
53562SOL     OW67800   5.070   2.554   5.880  0.2706  0.0562  0.0270
53562SOL    HW167801   5.082   2.558   5.785  0.7295 -0.5110  0.0581
53562SOL    HW267802   5.087   2.463   5.903 -1.1016 -0.1079  0.4875
53563SOL     OW67803   0.511   3.986   9.948 -0.0949 -0.7756  0.0440
53563SOL    HW167804   0.527   3.901   9.990 -0.9039 -0.9788 -0.0474
53563SOL    HW267805   0.495   4.046  10.020 -0.0033 -0.8072  0.0906
53564SOL     OW67806   8.929  12.015   1.422  0.1460 -0.1944 -0.2139
53564SOL    HW167807   8.892  12.084   1.367 -0.1686 -0.3107 -0.1514
53564SOL    HW267808   8.909  12.043   1.512 -1.0313 -0.9357 -0.2185
53565SOL     OW67809   0.388   4.141   2.562 -0.5629  0.0252 -0.0962
53565SOL    HW167810   0.312   4.105   2.607 -0.6502  0.3599  0.0258
53565SOL    HW267811   0.462   4.120   2.619 -0.6991  0.6402  0.3260
53566SOL     OW67812  11.648  10.664   2.391  0.0006  0.2664  0.2304
53566SOL    HW167813  11.623  10.748   2.429 -1.6004 -0.2653  0.4315
53566SOL    HW267814  11.684  10.615   2.465 -1.5861 -0.1751  0.7459
53567SOL     OW67815   5.035   7.067   5.292  0.3938  0.0944 -0.1175
53567SOL    HW167816   4.959   7.044   5.346  0.0485 -0.8416 -0.9594
53567SOL    HW267817   5.103   7.005   5.319  0.5499  0.3062 -0.0285
53568SOL     OW67818   2.398   2.400   5.236  0.1304  0.0924 -0.3736
53568SOL    HW167819   2.414   2.325   5.178  1.4816  1.6316 -2.0877
53568SOL    HW267820   2.483   2.443   5.243 -0.4775  1.1267  1.1335
53569SOL     OW67821  11.914   0.479  12.850 -0.3047 -0.8205  0.3670
53569SOL    HW167822  11.910   0.559  12.798  0.7248 -0.8940  0.1499
53569SOL    HW267823  11.879   0.504  12.936  1.4242  0.2892  0.7956
53570SOL     OW67824   9.334   2.716   6.467  0.5457 -0.3373 -0.0521
53570SOL    HW167825   9.291   2.797   6.496 -0.4840 -1.0649  0.5067
53570SOL    HW267826   9.399   2.745   6.403 -0.1030  0.8909 -0.1850
53571SOL     OW67827   8.713   4.510   1.549  0.4239  0.5236 -0.1034
53571SOL    HW167828   8.700   4.443   1.482 -1.5865  0.5286  0.2201
53571SOL    HW267829   8.676   4.472   1.628  1.3756  1.1283  0.6576
53572SOL     OW67830   3.364  11.783  10.590 -0.5438  0.1462 -0.0088
53572SOL    HW167831   3.346  11.860  10.644  0.2525  1.5935 -1.6855
53572SOL    HW267832   3.322  11.711  10.636 -3.6197  1.9857  0.3602
53573SOL     OW67833  10.347  10.394   8.563 -0.4641 -0.1179 -0.2484
53573SOL    HW167834  10.396  10.406   8.645 -1.0708  1.8373 -0.1153
53573SOL    HW267835  10.261  10.431   8.581 -0.6318  0.2798 -1.7314
53574SOL     OW67836   6.465   7.381   6.111 -0.0859  0.0788 -0.0256
53574SOL    HW167837   6.513   7.399   6.192  0.0660 -2.2296  0.4540
53574SOL    HW267838   6.532   7.372   6.044 -0.1390  0.7363 -0.1798
53575SOL     OW67839   0.800   0.237   6.134  0.2815  0.0638 -0.7178
53575SOL    HW167840   0.820   0.323   6.096 -1.8577  0.6978 -0.5117
53575SOL    HW267841   0.839   0.241   6.222  0.1313  0.8655 -0.6799
53576SOL     OW67842   0.463  11.541   1.995 -0.3315 -0.0210 -0.1711
53576SOL    HW167843   0.433  11.627   2.026 -0.2816  0.4457 -1.3577
53576SOL    HW267844   0.525  11.512   2.061 -0.0852  1.0209  0.0762
53577SOL     OW67845   4.256   0.760   9.276  0.2816 -0.1612  0.3326
53577SOL    HW167846   4.332   0.775   9.220 -0.0290  0.0968 -0.0293
53577SOL    HW267847   4.266   0.670   9.308 -0.8030 -1.2694 -2.1589
53578SOL     OW67848   1.655  12.478   0.558  0.2627 -0.9355  0.1942
53578SOL    HW167849   1.608  12.533   0.496  1.8286  1.2461  0.8380
53578SOL    HW267850   1.637  12.516   0.644  0.0329 -2.4859  0.8807
53579SOL     OW67851  10.310   7.867  11.065 -0.3739 -0.3761 -0.2089
53579SOL    HW167852  10.324   7.802  10.997  2.4488 -1.2763  1.0727
53579SOL    HW267853  10.324   7.820  11.147  0.9632  1.6219  0.7998
53580SOL     OW67854   4.573   1.880   0.989 -0.0454  1.0832  0.0588
53580SOL    HW167855   4.641   1.814   1.000  0.2345  1.3540 -0.0553
53580SOL    HW267856   4.497   1.843   1.034  0.4177  1.1506  0.9329
53581SOL     OW67857   3.381   0.914   9.504 -0.7132 -0.1200 -0.0030
53581SOL    HW167858   3.298   0.960   9.516 -0.7172 -0.3453  0.8899
53581SOL    HW267859   3.398   0.872   9.589  0.4232  0.1218 -0.0921
53582SOL     OW67860  11.140   3.481   9.046  0.3956 -0.0684  0.9673
53582SOL    HW167861  11.143   3.493   9.140 -0.4351  1.7130  0.8112
53582SOL    HW267862  11.103   3.393   9.034  1.3390 -0.6809  2.2647
53583SOL     OW67863   0.988   8.083  12.887  0.7645 -0.4832  0.2452
53583SOL    HW167864   1.072   8.125  12.870 -0.3592  1.0817 -2.1899
53583SOL    HW267865   0.931   8.155  12.914 -0.5451 -0.8499 -1.3475
53584SOL     OW67866   2.163   4.105   4.346 -0.3863  0.1826  0.1112
53584SOL    HW167867   2.183   4.192   4.312 -1.8966  0.4570 -0.1640
53584SOL    HW267868   2.230   4.088   4.412 -1.3725  2.5522  1.8521
53585SOL     OW67869  12.584   4.214  10.094  0.0570 -0.3680  0.3682
53585SOL    HW167870  12.615   4.213  10.185 -2.7002  0.0373  1.4286
53585SOL    HW267871  12.503   4.265  10.098 -0.3682 -0.7254 -2.2677
53586SOL     OW67872   7.743   6.064   0.700  0.1684  0.0439  0.1597
53586SOL    HW167873   7.798   6.036   0.773  2.5442  0.3512 -1.4245
53586SOL    HW267874   7.726   6.156   0.717 -0.1614 -0.1387  0.8399
53587SOL     OW67875   6.681  10.299   1.190 -0.0693  0.1836 -0.0752
53587SOL    HW167876   6.677  10.322   1.283 -0.1597 -0.4476  0.0846
53587SOL    HW267877   6.603  10.339   1.151  0.2227  0.8576  0.0220
53588SOL     OW67878   2.568   2.360  10.001  0.0769  0.4172  0.4265
53588SOL    HW167879   2.505   2.376  10.072 -2.3054  1.2985 -1.6993
53588SOL    HW267880   2.606   2.275  10.022 -0.4812  0.6500  2.7344
53589SOL     OW67881  12.183  10.604  10.073  0.1026 -0.1460 -0.1248
53589SOL    HW167882  12.197  10.671  10.007  1.8401 -0.7127 -0.3811
53589SOL    HW267883  12.112  10.638  10.128  0.1903  1.3644 -0.9134
53590SOL     OW67884  12.020   1.449   5.054  0.5186 -0.0229  0.1578
53590SOL    HW167885  12.060   1.465   5.140 -0.9404  0.0010  0.8711
53590SOL    HW267886  11.956   1.379   5.071  0.2044 -0.0072 -0.9117
53591SOL     OW67887  10.760   3.871   8.632 -0.2145 -0.0029 -0.0927
53591SOL    HW167888  10.679   3.921   8.634 -0.5553 -0.4677 -1.5028
53591SOL    HW267889  10.808   3.905   8.556  1.0917  0.5031  0.9020
53592SOL     OW67890   8.682   7.523  12.666  0.4735  0.4007 -0.5448
53592SOL    HW167891   8.713   7.569  12.588 -0.2867  3.4130  0.7568
53592SOL    HW267892   8.756   7.468  12.692  2.0893  2.0249 -1.4528
53593SOL     OW67893  11.462   9.889   0.040  0.2815 -0.3933  0.0983
53593SOL    HW167894  11.478   9.915   0.130 -0.2138  1.2886 -0.2705
53593SOL    HW267895  11.495   9.962  -0.013 -0.0210 -1.0583 -1.0490
53594SOL     OW67896   9.592   8.585  11.183 -0.0699  0.0899  1.1029
53594SOL    HW167897   9.586   8.641  11.261  0.7574  1.7423  0.0576
53594SOL    HW267898   9.575   8.645  11.110 -0.7907 -1.4091 -0.0008
53595SOL     OW67899  11.628   6.295   4.756 -0.5876  0.3092 -0.2711
53595SOL    HW167900  11.698   6.270   4.816 -1.0999 -0.1936  0.1416
53595SOL    HW267901  11.655   6.259   4.672 -0.0184  0.7339 -0.2765
53596SOL     OW67902   1.735   1.456   2.039  0.7496  0.1900 -0.0447
53596SOL    HW167903   1.711   1.382   1.984 -0.1782  0.0588  0.5170
53596SOL    HW267904   1.664   1.462   2.103  0.3172  2.1498 -0.6515
53597SOL     OW67905   8.781   7.758  11.494  0.4839  0.1061 -0.7347
53597SOL    HW167906   8.735   7.837  11.523 -0.8658 -0.5779 -0.9193
53597SOL    HW267907   8.844   7.739  11.564  1.2456  1.6498 -0.9613
53598SOL     OW67908   6.043   1.300   6.515 -0.7846  0.0191 -0.1959
53598SOL    HW167909   6.072   1.391   6.516 -0.0589 -0.1958 -0.5991
53598SOL    HW267910   5.972   1.298   6.451  1.0048 -0.1943 -2.2733
53599SOL     OW67911   2.263   5.821   3.141  0.0664  0.0009 -0.1118
53599SOL    HW167912   2.257   5.915   3.155  2.2045 -0.1693  3.0626
53599SOL    HW267913   2.353   5.799   3.166 -0.8148 -3.0604  0.8675
53600SOL     OW67914   0.479   1.177   1.571  0.0734  0.4454 -0.0201
53600SOL    HW167915   0.556   1.233   1.561  0.2272  0.3315  0.4710
53600SOL    HW267916   0.436   1.209   1.650 -0.5757  0.7281 -0.4816
53601SOL     OW67917   2.714   8.556   3.723 -0.4342  0.3004 -0.1881
53601SOL    HW167918   2.690   8.649   3.730  1.2034  0.6650  1.1281
53601SOL    HW267919   2.741   8.546   3.631 -2.1108  0.7005 -0.7692
53602SOL     OW67920   4.711   1.289   0.883  0.3692 -0.4164  0.2293
53602SOL    HW167921   4.796   1.310   0.843 -0.5578  0.0326 -1.6112
53602SOL    HW267922   4.653   1.359   0.854 -1.0426 -1.6074  0.0551
53603SOL     OW67923   0.092   5.308   6.698 -0.7223 -0.0138 -0.0827
53603SOL    HW167924   0.129   5.246   6.761 -1.5213 -0.0460  0.3730
53603SOL    HW267925   0.124   5.393   6.727 -1.3830  0.0148  0.6081
53604SOL     OW67926   4.233   4.422  10.289  0.6071  0.5073  0.0369
53604SOL    HW167927   4.231   4.454  10.198  1.2428 -0.4466 -0.3334
53604SOL    HW267928   4.250   4.500  10.341 -0.5705  1.2117 -0.5823
53605SOL     OW67929   0.845   0.766  10.768 -0.7469  0.6174  0.5138
53605SOL    HW167930   0.887   0.714  10.699  1.1666  3.4734 -0.6813
53605SOL    HW267931   0.892   0.743  10.848 -0.2085  0.1998  0.0843
53606SOL     OW67932   3.637  11.853  12.144  0.4279  0.2232 -0.1390
53606SOL    HW167933   3.680  11.903  12.213 -0.6313  0.7802  0.1281
53606SOL    HW267934   3.563  11.907  12.117  1.1944  0.3473 -2.1898
53607SOL     OW67935   0.967   6.660   3.316  0.1527 -0.4073  0.3312
53607SOL    HW167936   0.883   6.619   3.298 -0.6348  0.1020  2.5276
53607SOL    HW267937   1.032   6.592   3.298 -0.7310 -0.9577 -0.9171
53608SOL     OW67938   5.865   0.560   3.949  0.2344  0.0172 -0.3065
53608SOL    HW167939   5.843   0.490   3.888 -0.1325 -1.7734  1.7585
53608SOL    HW267940   5.816   0.636   3.918 -0.7590 -1.1247 -1.6144
53609SOL     OW67941   2.466   9.695  12.776 -0.0142  0.0959  0.0503
53609SOL    HW167942   2.372   9.685  12.765  0.0139 -0.9711  0.6218
53609SOL    HW267943   2.476   9.730  12.865  0.1396 -0.0446  0.0884
53610SOL     OW67944   4.244   3.465  12.938 -0.4092 -0.2770 -0.1889
53610SOL    HW167945   4.251   3.380  12.896  0.2308  0.1419 -0.9556
53610SOL    HW267946   4.225   3.526  12.866  1.0080  0.4995  0.0495
53611SOL     OW67947  10.839   9.855   9.094 -0.1915 -0.5474  0.6817
53611SOL    HW167948  10.805   9.872   9.181  0.2515 -0.0671  0.7648
53611SOL    HW267949  10.765   9.816   9.046 -0.1655 -1.6954  1.5370
53612SOL     OW67950   4.503   9.082   1.271  0.5254  0.5460  0.2692
53612SOL    HW167951   4.571   9.067   1.337  0.4638 -1.3092 -0.0591
53612SOL    HW267952   4.424   9.099   1.322  0.0098 -2.8578  0.8189
53613SOL     OW67953   2.607   6.708   1.644  0.0235  0.6289  0.5542
53613SOL    HW167954   2.649   6.785   1.681  0.0886 -0.5106  3.1030
53613SOL    HW267955   2.678   6.644   1.634 -0.2440  0.4445 -0.2255
53614SOL     OW67956  10.535   4.762   5.742  0.0221 -0.0638 -0.0475
53614SOL    HW167957  10.573   4.849   5.732 -0.9018  0.4522  0.7007
53614SOL    HW267958  10.600   4.703   5.706  1.4206  0.8000  0.9699
53615SOL     OW67959  11.557   2.403   3.893  0.1554  0.1759 -0.5130
53615SOL    HW167960  11.576   2.468   3.826  1.1771  0.9028  0.4305
53615SOL    HW267961  11.643   2.372   3.921 -0.1627  0.8722  1.3697
53616SOL     OW67962   7.808  11.786  12.406 -0.0652 -0.4807  0.4762
53616SOL    HW167963   7.735  11.740  12.364 -0.1106 -0.3021  0.3601
53616SOL    HW267964   7.768  11.863  12.447  0.3851  0.9910 -1.6666
53617SOL     OW67965   7.932   2.078   7.218  0.0746  0.2345 -0.1136
53617SOL    HW167966   7.914   2.126   7.299  0.1409  0.7416 -0.3970
53617SOL    HW267967   8.007   2.023   7.239 -0.2946 -0.0972  0.3560
53618SOL     OW67968   5.533  11.215   1.208  0.3690  0.5117 -0.1274
53618SOL    HW167969   5.597  11.199   1.138  1.0544 -2.0509  0.9347
53618SOL    HW267970   5.527  11.310   1.214  1.2965  0.8235 -2.7292
53619SOL     OW67971   7.173   8.215  11.537 -0.4402  0.1258  0.1020
53619SOL    HW167972   7.210   8.144  11.590  0.3931  0.3497 -0.1573
53619SOL    HW267973   7.173   8.291  11.595  0.4856  0.3740 -0.1983
53620SOL     OW67974   0.763  12.166  10.655 -0.1068 -0.5717  0.3888
53620SOL    HW167975   0.717  12.096  10.608  1.2367 -1.2775  0.0829
53620SOL    HW267976   0.744  12.149  10.747  0.8690 -1.8483  0.3748
53621SOL     OW67977   0.784  10.656   6.509  0.5457  0.3172  0.2102
53621SOL    HW167978   0.696  10.691   6.497  0.8453  0.5963 -1.4393
53621SOL    HW267979   0.841  10.732   6.498  0.9972  0.3012  2.0620
53622SOL     OW67980   5.725  12.372   1.192  0.3158 -0.0987  0.0533
53622SOL    HW167981   5.668  12.421   1.252 -0.8100 -2.8725  1.3922
53622SOL    HW267982   5.812  12.409   1.207 -0.1814  0.3136  2.3353
53623SOL     OW67983   8.551  12.904   2.157 -0.7254  0.2360  0.3334
53623SOL    HW167984   8.604  12.907   2.237 -1.6192  0.9345  0.9079
53623SOL    HW267985   8.604  12.853   2.096 -0.6480 -1.5725  1.8240
53624SOL     OW67986   8.176   9.703   9.494 -0.3991 -0.0715 -0.2611
53624SOL    HW167987   8.245   9.766   9.471 -1.1705  0.9178  0.0790
53624SOL    HW267988   8.156   9.722   9.585 -0.1757 -1.2759  0.0526
53625SOL     OW67989  11.273   3.231  12.857  0.2349 -0.6362 -0.1858
53625SOL    HW167990  11.334   3.174  12.809  0.6974 -0.2885 -0.0178
53625SOL    HW267991  11.192   3.225  12.807  0.4712 -0.9233 -0.5505
53626SOL     OW67992  12.285   8.282   8.798  0.1822 -0.0860 -0.2843
53626SOL    HW167993  12.353   8.324   8.851 -1.4352  0.2638  1.6452
53626SOL    HW267994  12.262   8.203   8.846 -0.7365 -0.2330 -0.9318
53627SOL     OW67995   1.934   8.480   0.650  0.3803 -0.2793  0.2785
53627SOL    HW167996   1.904   8.461   0.738  0.9787  0.5176  0.6677
53627SOL    HW267997   2.014   8.531   0.662 -0.0099  0.6051 -0.7167
53628SOL     OW67998   4.196  10.446   8.562 -0.0635  0.4183  0.1664
53628SOL    HW167999   4.122  10.385   8.563 -1.8426  2.4472  0.2106
53628SOL    HW268000   4.246  10.422   8.484 -1.3551 -0.3898 -0.4468
53629SOL     OW68001   6.695  11.229   9.793 -0.3244  0.3967  0.1497
53629SOL    HW168002   6.680  11.135   9.788 -0.1044  0.3764 -0.1981
53629SOL    HW268003   6.693  11.249   9.886 -0.8334  0.1246  0.2011
53630SOL     OW68004   5.435   8.366   4.275 -0.0724  0.1575 -0.1536
53630SOL    HW168005   5.389   8.388   4.194  1.1467  0.5193 -0.7882
53630SOL    HW268006   5.528   8.373   4.251  0.3078  1.0545  1.4937
53631SOL     OW68007  10.294   5.459   5.942 -0.0315  0.1729 -0.0996
53631SOL    HW168008  10.362   5.406   5.902  0.5257 -1.2808  2.5252
53631SOL    HW268009  10.212   5.413   5.921  0.0568  0.3806 -0.9363
53632SOL     OW68010   6.544   4.984   9.515  0.0905  0.7036 -0.3948
53632SOL    HW168011   6.501   4.918   9.570  1.7007  0.5649  0.7682
53632SOL    HW268012   6.534   4.952   9.425  1.3861 -1.5031  0.1847
53633SOL     OW68013  10.185   5.668   0.777  0.1613 -0.0742 -0.3960
53633SOL    HW168014  10.270   5.624   0.774 -0.6131 -1.9261  1.8847
53633SOL    HW268015  10.181   5.709   0.863 -2.4338 -2.8677  1.0355
53634SOL     OW68016   6.603  12.138   5.099  0.1382  0.0403 -0.0463
53634SOL    HW168017   6.526  12.105   5.146 -0.6545  2.0575  0.2210
53634SOL    HW268018   6.644  12.061   5.061 -1.4363 -1.2149  0.6866
53635SOL     OW68019   4.742  10.108  10.765  0.4932  0.3442 -0.8025
53635SOL    HW168020   4.681  10.174  10.732 -1.1139  0.2306  1.7365
53635SOL    HW268021   4.827  10.152  10.766 -0.2080  1.7430 -0.9452
53636SOL     OW68022   6.309   3.939   8.221 -0.1345  0.1610  0.7031
53636SOL    HW168023   6.218   3.908   8.216 -0.8379  1.7523  2.4550
53636SOL    HW268024   6.358   3.863   8.253 -0.7356 -0.8298 -0.6188
53637SOL     OW68025   4.664   4.923   4.110  0.0469  0.2931  0.1194
53637SOL    HW168026   4.715   4.854   4.068  0.9775  0.5829  0.7494
53637SOL    HW268027   4.642   4.888   4.196 -2.9169 -0.8072 -0.9385
53638SOL     OW68028   4.132  11.634   9.506 -0.2750 -0.4660 -0.1226
53638SOL    HW168029   4.050  11.629   9.456 -1.3328 -1.4059  1.6055
53638SOL    HW268030   4.171  11.547   9.495  0.0105 -0.3361 -0.1363
53639SOL     OW68031   7.663  10.029   6.519  0.0680  0.1651 -0.3986
53639SOL    HW168032   7.630  10.044   6.430 -0.9826  0.7277  0.0637
53639SOL    HW268033   7.744  10.080   6.524  0.0184  0.3068 -0.9676
53640SOL     OW68034  11.025   4.271   2.148 -0.0337 -0.0169  0.1479
53640SOL    HW168035  11.086   4.302   2.215  1.7872 -1.9188 -0.5026
53640SOL    HW268036  10.995   4.187   2.181  0.5651 -0.7820 -1.1946
53641SOL     OW68037   5.493  10.475  12.190 -0.1893 -0.2516 -0.0586
53641SOL    HW168038   5.403  10.491  12.162 -0.7933 -1.0089  1.3203
53641SOL    HW268039   5.490  10.387  12.229  0.0868  1.3211  3.9433
53642SOL     OW68040  12.115  12.775   2.059  0.0573  0.5284  0.6107
53642SOL    HW168041  12.030  12.789   2.018 -0.1526  1.9271  1.4506
53642SOL    HW268042  12.095  12.729   2.140  0.3412 -1.0241 -0.1604
53643SOL     OW68043  11.716   8.270   1.225 -0.4499 -0.5572  0.8247
53643SOL    HW168044  11.706   8.324   1.304 -0.9185  1.3857 -0.5101
53643SOL    HW268045  11.808   8.279   1.202 -0.5064 -0.3956  0.6584
53644SOL     OW68046   6.929  10.825   2.786 -0.0707  0.4327 -0.1342
53644SOL    HW168047   6.938  10.910   2.829 -1.5413 -0.0894  1.3490
53644SOL    HW268048   7.016  10.786   2.790  0.3642  1.4162  0.2092
53645SOL     OW68049   5.538  12.326   4.691 -0.3229  0.2133 -0.3354
53645SOL    HW168050   5.619  12.278   4.704  0.0955  0.8097 -0.6778
53645SOL    HW268051   5.556  12.414   4.723 -0.7187  0.4475 -0.7340
53646SOL     OW68052  10.053  11.318   1.941  0.1976 -0.5149  0.0818
53646SOL    HW168053  10.081  11.231   1.968 -0.8694 -1.2260 -0.9840
53646SOL    HW268054  10.041  11.312   1.847  1.4427  1.1948 -0.2329
53647SOL     OW68055   9.843   4.736   8.315  0.6565 -0.2045  0.1799
53647SOL    HW168056   9.856   4.732   8.410 -0.4025 -0.0154  0.3511
53647SOL    HW268057   9.901   4.669   8.280  0.4376 -0.8720  1.0421
53648SOL     OW68058   0.924   2.626   3.247  0.0603  0.1029  0.0594
53648SOL    HW168059   0.988   2.575   3.297  2.0225 -0.0535 -2.4113
53648SOL    HW268060   0.960   2.714   3.244 -0.3421  0.2537 -0.5420
53649SOL     OW68061  10.280   6.122   8.913 -0.6995 -0.2738 -0.4484
53649SOL    HW168062  10.357   6.084   8.871 -0.2494 -2.2435  1.9687
53649SOL    HW268063  10.215   6.051   8.914 -2.0474  0.8809 -1.0685
53650SOL     OW68064   3.265  10.859  12.521 -0.5404  0.3269  0.3055
53650SOL    HW168065   3.333  10.924  12.506 -0.3935  0.6707  2.2396
53650SOL    HW268066   3.274  10.836  12.614 -2.9838  0.3038  0.5900
53651SOL     OW68067   2.495   6.350   3.576  0.1184  0.2675 -0.2669
53651SOL    HW168068   2.569   6.409   3.566  0.1233  0.0894 -1.4545
53651SOL    HW268069   2.435   6.375   3.506 -0.0971 -0.8129 -0.4855
53652SOL     OW68070   0.692  10.575   5.078 -0.1702  0.3773 -0.6180
53652SOL    HW168071   0.710  10.511   5.147 -2.0922  1.2720  0.7992
53652SOL    HW268072   0.753  10.646   5.094 -0.0895  0.2392 -0.2998
53653SOL     OW68073   9.198   7.904   5.298 -0.2212 -0.0591  0.0305
53653SOL    HW168074   9.188   7.892   5.204  1.6131  1.0701 -0.3590
53653SOL    HW268075   9.148   7.983   5.318 -0.8320 -0.4490  0.0697
53654SOL     OW68076   7.333   3.758   0.032  0.7524 -0.0330  0.2457
53654SOL    HW168077   7.408   3.800  -0.009 -1.4450  2.5376 -1.4766
53654SOL    HW268078   7.329   3.795   0.120  1.0885  0.3232  0.1136
53655SOL     OW68079  12.400  12.133   9.981  0.0842  0.0902 -0.1300
53655SOL    HW168080  12.334  12.166   9.920  0.2927 -0.5390 -0.7025
53655SOL    HW268081  12.461  12.207   9.991 -0.2375  0.3782 -0.2671
53656SOL     OW68082   8.558  11.255   1.422 -0.4691 -0.5600  0.0490
53656SOL    HW168083   8.630  11.311   1.394 -0.0191 -0.8055  0.6817
53656SOL    HW268084   8.520  11.221   1.341  0.0341 -0.3057 -0.2941
53657SOL     OW68085   0.472   9.045   3.365 -0.2216  0.0432 -0.3829
53657SOL    HW168086   0.493   9.138   3.372 -0.3780  0.4110 -3.5848
53657SOL    HW268087   0.396   9.034   3.422 -0.7328  2.0644 -0.5854
53658SOL     OW68088   8.379   3.911   0.587 -0.0478  0.7356 -0.2966
53658SOL    HW168089   8.331   3.868   0.658  0.6005 -2.0272 -1.4378
53658SOL    HW268090   8.324   3.899   0.510  0.9093  0.5493 -0.9596
53659SOL     OW68091   5.755  11.805  12.904 -0.4002 -0.1628  0.3765
53659SOL    HW168092   5.685  11.756  12.860 -1.0774  1.3507 -0.2809
53659SOL    HW268093   5.789  11.864  12.837  0.4123  0.2680  1.1454
53660SOL     OW68094   4.893   3.009   1.434  0.4106 -0.3385  0.4376
53660SOL    HW168095   4.981   3.013   1.472  0.4641 -2.4099  0.6261
53660SOL    HW268096   4.907   3.015   1.339  0.7676 -0.7853  0.4618
53661SOL     OW68097   5.821   8.630   5.406 -0.0997  0.2347 -0.2641
53661SOL    HW168098   5.726   8.630   5.408 -0.0979 -0.3974 -0.0217
53661SOL    HW268099   5.846   8.542   5.433  0.5790  0.9335  1.6060
53662SOL     OW68100   2.610   4.276   6.016  0.7487  0.0887  0.3051
53662SOL    HW168101   2.690   4.242   6.054  0.6391 -2.9825 -1.9183
53662SOL    HW268102   2.612   4.248   5.925 -2.3769  0.7852 -0.0944
53663SOL     OW68103  12.005   1.879   5.260 -0.1929  0.0048  0.7254
53663SOL    HW168104  11.946   1.803   5.254  1.0627 -1.0378  1.2233
53663SOL    HW268105  12.046   1.869   5.346  1.0388  0.4686  0.1960
53664SOL     OW68106   6.559   7.877   8.466  0.2393  0.3347 -0.0122
53664SOL    HW168107   6.543   7.972   8.464  0.2057  0.3401  0.3727
53664SOL    HW268108   6.589   7.860   8.555  3.6006  0.4986 -1.0039
53665SOL     OW68109  10.485   6.777   9.759 -0.1450  0.8112 -0.3328
53665SOL    HW168110  10.395   6.807   9.771 -0.5105 -0.8860  1.8677
53665SOL    HW268111  10.536   6.825   9.825  0.2149  0.5009 -0.3790
53666SOL     OW68112   3.993   9.788   7.933 -0.0814  0.1045  0.4023
53666SOL    HW168113   3.964   9.866   7.980  0.9171  0.2553  0.7947
53666SOL    HW268114   3.964   9.715   7.987 -0.7295  0.2037  0.2001
53667SOL     OW68115   2.407   3.020  11.004  0.5160 -0.0649  0.1365
53667SOL    HW168116   2.485   3.002  11.055  0.7187  0.3739 -0.0061
53667SOL    HW268117   2.433   3.091  10.945  0.3517 -0.6846 -0.7119
53668SOL     OW68118   9.024   7.277   4.666  0.3410 -0.2997 -0.6425
53668SOL    HW168119   9.114   7.260   4.638  0.1609 -0.0514 -1.3885
53668SOL    HW268120   9.029   7.280   4.762  1.3039  0.7271 -0.7094
53669SOL     OW68121   0.819   5.675   6.253  0.0267  0.7040  0.1694
53669SOL    HW168122   0.873   5.730   6.196  1.7612 -0.1631  0.8794
53669SOL    HW268123   0.792   5.602   6.197 -1.0339  1.4876 -0.3740
53670SOL     OW68124   7.278  12.886   3.319  0.4105 -0.3963  0.5109
53670SOL    HW168125   7.248  12.802   3.283 -0.2693  0.3814 -0.8157
53670SOL    HW268126   7.198  12.937   3.328  0.9283  0.4407  0.4092
53671SOL     OW68127   6.913  11.540  11.534 -0.3892 -0.1327 -0.4018
53671SOL    HW168128   6.948  11.604  11.473  1.2852 -1.2029 -0.6301
53671SOL    HW268129   6.827  11.517  11.498 -1.0854  2.0123 -0.2331
53672SOL     OW68130   1.522  11.124   3.306  0.6056 -0.3922 -0.3192
53672SOL    HW168131   1.471  11.050   3.341 -0.0720 -0.6607 -1.8151
53672SOL    HW268132   1.487  11.138   3.218  1.2531  1.2280 -0.3525
53673SOL     OW68133   1.260   0.314   6.342 -0.3448 -0.3510 -0.1402
53673SOL    HW168134   1.273   0.379   6.411 -0.2618 -1.7072  1.1715
53673SOL    HW268135   1.298   0.354   6.264 -0.2254  1.1250  0.6345
53674SOL     OW68136  11.760   1.539   3.881  0.0980 -0.4672 -0.9195
53674SOL    HW168137  11.743   1.456   3.925 -2.3710  0.3200 -0.2570
53674SOL    HW268138  11.761   1.604   3.952 -0.6140  0.4018 -1.6824
53675SOL     OW68139  10.794  12.395  12.657  0.2219 -0.0016 -0.3503
53675SOL    HW168140  10.776  12.368  12.567 -0.0233 -2.3587  0.3579
53675SOL    HW268141  10.718  12.449  12.681 -0.6713 -0.9708 -0.9251
53676SOL     OW68142  10.854   2.698   4.947  0.0922 -0.1907 -0.8281
53676SOL    HW168143  10.917   2.705   4.875  0.3738  0.7498 -0.5131
53676SOL    HW268144  10.867   2.779   4.997  0.6173 -1.2746  0.8489
53677SOL     OW68145  12.551   1.539   9.771  0.3536 -0.1819  0.1087
53677SOL    HW168146  12.476   1.591   9.743  0.0807 -1.1085 -0.9562
53677SOL    HW268147  12.513   1.461   9.811  0.7030 -1.2350 -1.5275
53678SOL     OW68148  10.862  12.550   4.942 -0.1302 -0.2093 -0.0179
53678SOL    HW168149  10.847  12.458   4.920 -0.2723 -0.0874 -0.4403
53678SOL    HW268150  10.937  12.576   4.887  0.6103 -0.3701  0.8975
53679SOL     OW68151   4.008   0.934   1.569 -0.5849  0.3504 -0.0632
53679SOL    HW168152   4.074   0.910   1.503 -0.2246  1.0368  0.0429
53679SOL    HW268153   3.974   1.018   1.539  0.7677  1.5089  1.4848
53680SOL     OW68154   4.248   0.440  12.340 -0.2961  0.5882  0.4694
53680SOL    HW168155   4.220   0.471  12.426 -2.7759 -1.7044  0.6091
53680SOL    HW268156   4.176   0.461  12.281 -0.3115 -1.2179 -0.2212
53681SOL     OW68157   1.629  12.584   7.000  0.3779 -0.3703 -0.2833
53681SOL    HW168158   1.665  12.543   7.079  0.3674 -0.3026 -0.2430
53681SOL    HW268159   1.563  12.522   6.969 -0.2816  0.0248  0.2851
53682SOL     OW68160   4.317   3.060   4.486  0.7466 -0.1528  0.6888
53682SOL    HW168161   4.294   2.980   4.437  1.6998 -0.4319  0.6759
53682SOL    HW268162   4.330   3.126   4.419  1.0535 -0.2736  0.6297
53683SOL     OW68163   5.404   2.958   6.557  0.2208 -0.1038 -0.4340
53683SOL    HW168164   5.442   2.871   6.570  0.9207  0.3830  0.9323
53683SOL    HW268165   5.314   2.950   6.590  0.1587 -0.4021 -0.6713
53684SOL     OW68166   9.752   2.721   2.504 -0.1021 -0.1571  0.1598
53684SOL    HW168167   9.813   2.665   2.456  0.3729  0.1507  0.4020
53684SOL    HW268168   9.686   2.745   2.439  0.7816  0.6245 -0.4721
53685SOL     OW68169   0.846   3.827   4.440  0.2240  0.5731 -0.4264
53685SOL    HW168170   0.768   3.831   4.496  0.3941  0.5354 -0.1810
53685SOL    HW268171   0.847   3.737   4.407  1.1521  0.0059  1.0324
53686SOL     OW68172   9.291  10.968  10.758  0.0808 -0.0275  0.1316
53686SOL    HW168173   9.307  10.874  10.763  0.8253  0.0694 -0.3266
53686SOL    HW268174   9.240  10.989  10.836  0.0170 -0.7886  0.2927
53687SOL     OW68175   4.109   0.662   7.714 -0.2142  0.8718  0.1305
53687SOL    HW168176   4.101   0.749   7.753 -0.3242  0.5719  0.7943
53687SOL    HW268177   4.155   0.610   7.781 -1.2644  0.0921  0.2630
53688SOL     OW68178   3.357   9.620   0.286 -0.2731 -0.2337 -0.1426
53688SOL    HW168179   3.394   9.690   0.231  1.2461 -0.9840 -0.1265
53688SOL    HW268180   3.411   9.543   0.266  0.2697 -0.5659  2.3169
53689SOL     OW68181   7.393   4.958   8.215  0.3925  0.0899 -0.9579
53689SOL    HW168182   7.312   5.008   8.206  0.4566  0.3179 -0.3447
53689SOL    HW268183   7.371   4.870   8.184 -0.8068 -0.5514  1.4125
53690SOL     OW68184  12.034  12.382   5.352 -0.0464  0.0411 -0.1056
53690SOL    HW168185  11.951  12.337   5.337 -0.0197 -1.0480  2.5413
53690SOL    HW268186  12.098  12.312   5.364  0.7456  0.8301  0.4376
53691SOL     OW68187   9.237   8.624  11.451  0.4347 -0.3452  0.0647
53691SOL    HW168188   9.158   8.668  11.482  0.7904 -0.3424  0.9926
53691SOL    HW268189   9.295   8.696  11.423  0.1771 -0.3407 -0.4745
53692SOL     OW68190   3.333  10.986   2.203 -0.1476 -0.1161  0.7883
53692SOL    HW168191   3.413  11.023   2.240 -0.0411  0.1956  0.2653
53692SOL    HW268192   3.267  10.999   2.271 -1.0190  4.3556 -0.5711
53693SOL     OW68193   4.740   8.597   4.784  0.6853 -0.7457  0.0262
53693SOL    HW168194   4.830   8.579   4.811  0.6026 -1.4882 -0.1618
53693SOL    HW268195   4.709   8.514   4.748  0.3893 -0.1095 -1.2220
53694SOL     OW68196   0.429   8.707   2.225 -0.0423  0.7140 -0.2667
53694SOL    HW168197   0.431   8.765   2.149 -0.3717  2.5057  1.0421
53694SOL    HW268198   0.521   8.691   2.245  0.0673  1.7074  0.0374
53695SOL     OW68199   1.689   2.394   1.717 -0.1644  0.8097  0.8413
53695SOL    HW168200   1.724   2.384   1.806  0.7073  2.1422  0.6766
53695SOL    HW268201   1.612   2.336   1.715  0.6963 -0.4426  1.9520
53696SOL     OW68202  12.016   8.977   4.074 -0.2655 -0.1359 -0.3950
53696SOL    HW168203  12.071   8.911   4.033 -1.0619  0.0673 -1.8677
53696SOL    HW268204  12.045   8.980   4.165 -0.2665 -2.5489 -0.2560
53697SOL     OW68205   3.797  12.116   7.611  0.0881 -0.2074  0.2820
53697SOL    HW168206   3.773  12.074   7.528  0.4674 -1.6012  0.8527
53697SOL    HW268207   3.831  12.202   7.585 -1.7787  0.2534 -0.8302
53698SOL     OW68208   8.695  11.279   5.767 -0.0454 -0.4317  0.1332
53698SOL    HW168209   8.642  11.211   5.727  1.6488 -1.3035 -0.7715
53698SOL    HW268210   8.785  11.253   5.748  0.7964  0.2414  2.7482
53699SOL     OW68211  12.102   0.513   5.969  0.5834 -0.3297  0.0947
53699SOL    HW168212  12.129   0.422   5.969 -0.1692 -0.7169 -3.3540
53699SOL    HW268213  12.152   0.553   5.898 -0.6122  1.3824  0.1392
53700SOL     OW68214  10.851   2.313  12.477  0.1408 -0.4905  0.3681
53700SOL    HW168215  10.782   2.303  12.412 -0.3498  0.0872  0.7891
53700SOL    HW268216  10.813   2.370  12.544  1.2112  0.2747  0.3431
53701SOL     OW68217   3.661  12.121   4.477 -0.7039 -1.0187  0.6297
53701SOL    HW168218   3.657  12.169   4.395 -2.1043  1.3393  1.9606
53701SOL    HW268219   3.660  12.029   4.452 -0.1158 -0.3856 -1.9755
53702SOL     OW68220   2.413   4.778   0.485 -0.5373 -0.2659 -0.0554
53702SOL    HW168221   2.381   4.765   0.396  0.2760 -0.9430 -0.2585
53702SOL    HW268222   2.352   4.729   0.540 -0.3797 -0.8055 -0.3562
53703SOL     OW68223   3.790   7.281  10.674 -0.3174 -0.2229  0.3272
53703SOL    HW168224   3.885   7.294  10.667 -0.3548 -0.5213 -1.3315
53703SOL    HW268225   3.752   7.356  10.629 -0.9663  0.8198  2.4949
53704SOL     OW68226   6.681   8.196   1.151 -0.5392 -0.2691  0.3827
53704SOL    HW168227   6.709   8.136   1.221  0.7577  0.3177  0.4039
53704SOL    HW268228   6.652   8.275   1.197  0.2663  0.0980  0.2866
53705SOL     OW68229   6.748   8.046   0.141  0.0845 -0.5656 -0.6038
53705SOL    HW168230   6.834   8.005   0.130  0.7160  0.2440  1.0685
53705SOL    HW268231   6.730   8.041   0.235 -0.8626  0.9310 -0.6764
53706SOL     OW68232   1.077   0.136  10.082 -0.1268  0.4909  0.3152
53706SOL    HW168233   1.009   0.073  10.108 -0.3280  0.5309 -0.0927
53706SOL    HW268234   1.029   0.217  10.066  0.0682  0.6165  0.3703
53707SOL     OW68235   7.930   2.088   9.646 -0.0865  0.4167 -0.0003
53707SOL    HW168236   8.018   2.068   9.614  0.5385  3.1991 -0.2467
53707SOL    HW268237   7.935   2.074   9.740  0.6545  0.6253 -0.0048
53708SOL     OW68238   5.506   6.840   1.099  0.1214 -0.1096  0.1951
53708SOL    HW168239   5.467   6.808   1.180  0.2062 -1.6012 -0.3317
53708SOL    HW268240   5.453   6.917   1.076 -0.7019 -0.4282  0.9926
53709SOL     OW68241  11.254   4.766  10.141 -0.0995 -0.9310  0.2242
53709SOL    HW168242  11.272   4.789  10.232 -1.3855 -1.0935  0.5486
53709SOL    HW268243  11.259   4.670  10.139 -1.2092 -1.0143  0.4218
53710SOL     OW68244   7.984   7.639  10.880  0.0001  0.0694  0.2184
53710SOL    HW168245   8.046   7.596  10.939  0.6236  2.3596  1.3748
53710SOL    HW268246   8.038   7.696  10.825 -0.8393  0.0191 -0.6978
53711SOL     OW68247   5.281   6.611   2.910  0.5767 -0.0016 -0.2472
53711SOL    HW168248   5.203   6.666   2.898  1.2034  1.4378  1.7618
53711SOL    HW268249   5.249   6.533   2.955  0.2515  0.5475  0.5002
53712SOL     OW68250   0.395   7.440   0.191  0.1167  0.4246 -0.1530
53712SOL    HW168251   0.380   7.455   0.285  1.1193 -0.8246  0.2353
53712SOL    HW268252   0.396   7.345   0.182 -0.8398  0.5335 -1.6031
53713SOL     OW68253   8.724  10.419   6.224 -0.7437 -0.1410 -0.1418
53713SOL    HW168254   8.692  10.412   6.134 -1.1081  2.4971 -0.2928
53713SOL    HW268255   8.814  10.386   6.220 -1.1625 -1.2466 -1.1606
53714SOL     OW68256   7.742   5.989   5.240 -0.6640 -0.7735 -0.5623
53714SOL    HW168257   7.720   5.956   5.153 -2.3761  1.0885 -0.9168
53714SOL    HW268258   7.772   5.912   5.289  2.1186 -1.5956 -3.2590
53715SOL     OW68259   7.715   8.467  11.436 -0.3300  0.2117  0.1659
53715SOL    HW168260   7.721   8.502  11.347 -1.2463  0.4879  0.1949
53715SOL    HW268261   7.735   8.374  11.427 -0.6206  0.1972 -0.3685
53716SOL     OW68262  11.514  10.883  12.674  0.5777 -0.8122 -0.4412
53716SOL    HW168263  11.575  10.844  12.737  1.1402  0.3233 -0.2537
53716SOL    HW268264  11.498  10.971  12.709 -1.4740 -1.2105 -0.2814
53717SOL     OW68265  11.074   2.970   9.749  0.2772 -0.1377  0.0326
53717SOL    HW168266  11.100   3.061   9.763  1.6554 -0.7292  1.6440
53717SOL    HW268267  10.984   2.967   9.781  0.0567  0.7500 -0.4586
53718SOL     OW68268  11.991  12.788   4.825 -0.1925 -0.3996  0.1678
53718SOL    HW168269  12.051  12.728   4.780  0.8983 -0.5016  1.7073
53718SOL    HW268270  11.944  12.732   4.887  0.0424  0.1308  0.8356
53719SOL     OW68271   9.190   2.387  10.291  0.6696 -0.1124  0.0940
53719SOL    HW168272   9.185   2.433  10.375 -1.0914  2.9565 -1.5311
53719SOL    HW268273   9.112   2.332  10.289  0.6237 -0.0600  0.3681
53720SOL     OW68274   9.941   3.511   2.921  0.6013  0.0648  0.7871
53720SOL    HW168275   9.894   3.533   3.002 -0.0386 -0.8012  0.6675
53720SOL    HW268276  10.005   3.581   2.911 -1.1990  1.7756  0.5136
53721SOL     OW68277   6.933   0.562   5.939  0.3548  0.2472 -0.4473
53721SOL    HW168278   6.914   0.470   5.961 -0.3888  0.5585  0.2370
53721SOL    HW268279   6.885   0.613   6.003 -0.8004  1.1813 -1.9850
53722SOL     OW68280   4.900   5.363   1.644  0.5706 -0.4546  0.3008
53722SOL    HW168281   4.808   5.343   1.660 -0.2329  1.7153 -1.1840
53722SOL    HW268282   4.941   5.357   1.731 -1.4922  0.9459  1.4686
53723SOL     OW68283   6.676   8.229  11.601  0.1404 -0.4305  0.4006
53723SOL    HW168284   6.703   8.198  11.687  0.9264  0.0395  0.3310
53723SOL    HW268285   6.742   8.294  11.576 -0.3101 -0.2463 -0.3690
53724SOL     OW68286   4.522   6.837   5.914  0.2388 -0.3926 -0.2367
53724SOL    HW168287   4.563   6.923   5.920  0.3094 -0.4006 -0.5882
53724SOL    HW268288   4.498   6.815   6.004 -0.6338  0.4146 -0.2496
53725SOL     OW68289   2.650   5.315   4.006 -0.0701  0.3856 -0.2847
53725SOL    HW168290   2.651   5.237   4.061 -0.0384  0.8731  0.4162
53725SOL    HW268291   2.650   5.388   4.068 -1.5508  0.9543 -0.8976
53726SOL     OW68292   6.915   9.966   5.708  0.4012  0.0144  0.1998
53726SOL    HW168293   6.944  10.042   5.759 -1.2347  2.3206 -2.0287
53726SOL    HW268294   6.909   9.999   5.618 -1.6089 -2.4179 -0.6752
53727SOL     OW68295   3.463   5.174   3.933  0.1016 -0.1384  0.1325
53727SOL    HW168296   3.427   5.112   3.870  1.3683 -1.5157  0.7230
53727SOL    HW268297   3.399   5.246   3.934 -2.8343 -2.5455  1.3666
53728SOL     OW68298   8.241  12.108  11.738 -0.6315  0.4724  0.5484
53728SOL    HW168299   8.157  12.113  11.693 -0.8257  1.1367  0.9847
53728SOL    HW268300   8.286  12.035  11.695 -0.1568  2.0724 -1.8320
53729SOL     OW68301   2.083   1.014   1.252 -0.3527  0.3852 -0.4538
53729SOL    HW168302   2.076   1.109   1.267  0.2713  0.6302 -1.5865
53729SOL    HW268303   2.176   1.000   1.233 -0.4959 -0.4066 -0.5871
53730SOL     OW68304  12.193  12.833   8.125  0.2310  0.8751 -0.1391
53730SOL    HW168305  12.120  12.890   8.100  0.1693  0.6957 -0.3686
53730SOL    HW268306  12.155  12.745   8.127  0.5624  0.7140 -0.7668
53731SOL     OW68307   3.517   4.730   8.889  0.7956  0.0295  0.0047
53731SOL    HW168308   3.572   4.805   8.914 -0.8723  0.5976  2.2121
53731SOL    HW268309   3.553   4.656   8.938 -0.2025  0.3600  1.2924
53732SOL     OW68310  12.963   0.579   8.829 -0.5715 -0.2601  0.5703
53732SOL    HW168311  13.015   0.659   8.838  0.4573 -0.9374  0.7342
53732SOL    HW268312  12.984   0.528   8.908  0.7380 -1.8069 -0.7246
53733SOL     OW68313   2.066  11.479   7.117  0.3506  0.1275 -0.2513
53733SOL    HW168314   2.106  11.546   7.060  0.9775 -1.8599 -2.2848
53733SOL    HW268315   1.973  11.504   7.121  0.7235  1.6141 -0.1809
53734SOL     OW68316   8.977   8.026   6.099 -0.1261  0.8733 -0.1736
53734SOL    HW168317   9.021   8.083   6.036 -0.5429  1.2370 -0.1366
53734SOL    HW268318   8.998   8.062   6.185  1.6050 -0.4259  0.0020
53735SOL     OW68319   8.423   6.646   7.851  0.6962  0.0026 -0.1933
53735SOL    HW168320   8.473   6.719   7.813 -0.5467  0.8212 -0.3139
53735SOL    HW268321   8.471   6.568   7.823  0.8007  0.6594 -2.0485
53736SOL     OW68322   7.138   6.384   0.908  0.1823 -0.6168 -0.2274
53736SOL    HW168323   7.075   6.357   0.841 -1.8122 -0.3048  1.4293
53736SOL    HW268324   7.192   6.307   0.923 -1.7454 -1.9130  0.3897
53737SOL     OW68325  12.488  12.031   7.727 -0.7061 -0.3494  0.2459
53737SOL    HW168326  12.554  11.965   7.750 -0.9339  0.1976  2.8293
53737SOL    HW268327  12.537  12.113   7.721 -0.8204 -0.3110 -0.1630
53738SOL     OW68328   1.809   7.667   7.200  1.0333 -0.1645 -0.5799
53738SOL    HW168329   1.898   7.669   7.166  0.9276  1.0886 -0.8413
53738SOL    HW268330   1.757   7.714   7.134  0.6435  1.3898  0.7643
53739SOL     OW68331   8.571   0.523   2.935 -0.6350  0.1650  0.2829
53739SOL    HW168332   8.656   0.480   2.938  0.3931  2.1518  1.6264
53739SOL    HW268333   8.569   0.566   2.850 -0.0531  0.5599  0.4641
53740SOL     OW68334   2.289   1.015   5.377  0.6304 -0.0348 -0.2033
53740SOL    HW168335   2.211   1.048   5.423  0.2208 -0.4927 -0.5550
53740SOL    HW268336   2.311   1.084   5.315  0.6437  0.1969  0.0579
53741SOL     OW68337   6.546   3.003   9.093  0.2895  0.5132 -0.4518
53741SOL    HW168338   6.451   3.014   9.102  0.0238 -1.3906 -0.5246
53741SOL    HW268339   6.576   2.990   9.183  0.7396  2.5002 -0.2550
53742SOL     OW68340  11.896   4.190   3.545 -0.2619  0.0569  0.6430
53742SOL    HW168341  11.873   4.129   3.616 -3.2214 -0.4112 -0.5980
53742SOL    HW268342  11.877   4.142   3.465 -3.3460  2.6762 -0.4086
53743SOL     OW68343   1.592   1.098   1.255  0.2514  1.1112  0.0023
53743SOL    HW168344   1.589   1.190   1.283  1.2007  1.2540 -0.3205
53743SOL    HW268345   1.684   1.083   1.235  0.0579  0.1514 -0.1801
53744SOL     OW68346  12.337   5.451   0.722 -0.0649 -0.2474  0.2822
53744SOL    HW168347  12.360   5.427   0.633 -0.8700  0.4267 -0.1198
53744SOL    HW268348  12.407   5.508   0.751 -0.5550  0.7719 -0.4787
53745SOL     OW68349   2.545   5.291   3.399  0.1082 -0.6615  0.0716
53745SOL    HW168350   2.495   5.301   3.318  0.1741 -0.0869  0.0975
53745SOL    HW268351   2.501   5.347   3.462  0.3128 -0.7705  0.3130
53746SOL     OW68352   1.481   7.295   9.427  0.6570  0.7529  0.4722
53746SOL    HW168353   1.534   7.216   9.414 -1.3927 -0.5372 -0.7186
53746SOL    HW268354   1.497   7.347   9.348 -0.9734 -0.4092 -0.7052
53747SOL     OW68355  10.844   9.132   3.579  0.1841  0.1956 -0.0336
53747SOL    HW168356  10.805   9.131   3.666  1.6034  2.0079  0.6990
53747SOL    HW268357  10.908   9.061   3.580 -0.0656 -0.0250  0.2801
53748SOL     OW68358   8.196   3.848   4.771  0.6312  0.7021 -0.1296
53748SOL    HW168359   8.219   3.884   4.685 -1.2962  1.6993 -0.2665
53748SOL    HW268360   8.164   3.923   4.821  0.8267 -0.0419  1.1614
53749SOL     OW68361   0.900   4.502   3.062 -0.4933  0.0330 -0.6188
53749SOL    HW168362   0.980   4.479   3.110  0.1991  0.4502 -1.5446
53749SOL    HW268363   0.892   4.434   2.995 -0.3989  0.5157 -1.1207
53750SOL     OW68364   0.419  11.858   0.959 -0.0502 -0.4738 -0.0551
53750SOL    HW168365   0.329  11.860   0.927 -0.1380  0.3841  0.2195
53750SOL    HW268366   0.413  11.817   1.046 -0.1690 -0.4850 -0.0687
53751SOL     OW68367   7.531   2.058   7.795  0.2783 -0.7603  0.0699
53751SOL    HW168368   7.618   2.024   7.817  1.3179  1.0944 -0.8914
53751SOL    HW268369   7.491   1.989   7.741  1.2833 -1.5061  0.2551
53752SOL     OW68370  12.247   2.656   7.456  0.3172  0.0324 -0.5970
53752SOL    HW168371  12.318   2.711   7.423  0.2965 -0.4729 -1.5046
53752SOL    HW268372  12.231   2.593   7.386 -1.8741  0.8857 -0.9367
53753SOL     OW68373   1.519   3.143   4.791 -0.1307 -0.2246 -0.3107
53753SOL    HW168374   1.603   3.180   4.818 -1.1296 -0.1387  3.1691
53753SOL    HW268375   1.454   3.202   4.829 -1.8196 -0.8890 -2.0085
53754SOL     OW68376   9.828   6.584   3.034 -0.6918 -0.2320  0.7674
53754SOL    HW168377   9.805   6.675   3.015 -1.0514 -0.3845  0.4739
53754SOL    HW268378   9.849   6.584   3.128  0.4721  0.3911  0.5216
53755SOL     OW68379   6.968  12.261   7.448  0.0962 -0.6145  0.5270
53755SOL    HW168380   7.009  12.309   7.520  2.0301 -0.4833 -0.5879
53755SOL    HW268381   6.950  12.328   7.383 -0.1136 -0.9543  0.2363
53756SOL     OW68382   6.524   6.897   1.809 -0.2747 -0.7486  0.2640
53756SOL    HW168383   6.444   6.909   1.757 -0.2131  0.0644  0.3337
53756SOL    HW268384   6.493   6.888   1.899 -0.2730  0.2972  0.3890
53757SOL     OW68385   5.626  10.150   9.328 -0.2883 -0.1624  0.0309
53757SOL    HW168386   5.673  10.090   9.386 -0.6961 -1.5823 -1.0302
53757SOL    HW268387   5.677  10.149   9.247 -0.2679  1.0051  0.0150
53758SOL     OW68388   4.469   1.592  12.543 -0.1331 -0.1972  0.1352
53758SOL    HW168389   4.528   1.572  12.470 -0.9418  1.1702 -0.9465
53758SOL    HW268390   4.507   1.670  12.584  0.3704 -1.0168  1.2582
53759SOL     OW68391   5.082   3.789   7.549  0.1855 -0.2236  0.2021
53759SOL    HW168392   5.089   3.847   7.625  0.5150  0.4250 -0.3135
53759SOL    HW268393   5.150   3.820   7.489 -0.1421 -0.6596 -0.3987
53760SOL     OW68394  10.667   7.848   7.225 -0.0535 -0.8835  0.0223
53760SOL    HW168395  10.592   7.880   7.174  0.0733 -0.6395 -0.0121
53760SOL    HW268396  10.664   7.753   7.215  0.8740 -0.7845 -1.7532
53761SOL     OW68397  11.934   8.236   8.610  0.3661 -0.3849 -0.6234
53761SOL    HW168398  11.941   8.284   8.528 -1.6272 -0.3701 -0.8249
53761SOL    HW268399  11.933   8.144   8.584 -1.9205 -0.3646 -0.8469
53762SOL     OW68400  10.131   9.457   9.096  0.4762  0.1828 -0.3679
53762SOL    HW168401  10.148   9.383   9.038 -0.7436 -0.2890 -0.1488
53762SOL    HW268402  10.059   9.505   9.053  0.5758  0.6713  0.0005
53763SOL     OW68403   4.070   3.065  10.791  0.3183 -0.5069 -0.2913
53763SOL    HW168404   4.152   3.088  10.834  0.0297 -0.3278  0.1767
53763SOL    HW268405   4.019   3.021  10.859 -1.0449  1.7726  0.3025
53764SOL     OW68406   1.740  12.436   4.781  0.1682  0.1169  0.3789
53764SOL    HW168407   1.815  12.379   4.761  0.0582 -0.2687  1.0046
53764SOL    HW268408   1.668  12.400   4.730  0.6480  1.1414 -1.0630
53765SOL     OW68409   7.709  11.395   6.666  0.3394 -0.1440  0.2387
53765SOL    HW168410   7.655  11.392   6.745  0.8356 -1.1888  0.5538
53765SOL    HW268411   7.682  11.476   6.622 -0.6436 -0.0495  0.9716
53766SOL     OW68412   5.931  12.069   2.467  0.0597  0.1909 -0.7193
53766SOL    HW168413   5.846  12.100   2.434  0.6909  1.0630 -1.6004
53766SOL    HW268414   5.955  11.998   2.407  0.1442  0.2206 -0.7206
53767SOL     OW68415   3.060   7.734   2.608  0.0352 -0.2180 -0.0882
53767SOL    HW168416   3.151   7.709   2.596  0.0066 -0.8561  0.9159
53767SOL    HW268417   3.021   7.662   2.659 -0.4096  1.1561  1.6363
53768SOL     OW68418  12.945   8.810   8.406 -0.5646 -0.2642 -0.1695
53768SOL    HW168419  12.949   8.883   8.343 -1.4168  0.8796  1.0381
53768SOL    HW268420  12.856   8.776   8.396 -0.5840 -0.3091  0.1608
53769SOL     OW68421   3.507   7.847   4.012  0.3970 -0.2433  0.0604
53769SOL    HW168422   3.442   7.904   4.052 -1.0400  0.8236 -3.3774
53769SOL    HW268423   3.459   7.803   3.941  3.0563 -0.5946 -1.6520
53770SOL     OW68424  10.920  12.870   4.778 -0.3608 -0.5199 -0.2168
53770SOL    HW168425  10.961  12.927   4.844  1.4169  1.0480 -2.4941
53770SOL    HW268426  10.844  12.920   4.749 -0.6538 -0.8201  0.0280
53771SOL     OW68427   9.049   9.918   2.669 -0.4384  0.8877  0.6110
53771SOL    HW168428   9.084   9.995   2.624  0.1367  0.6763  0.6869
53771SOL    HW268429   9.018   9.951   2.753  1.2718  0.7870  1.3159
53772SOL     OW68430   9.292   3.877   2.622 -0.1035  0.6605 -0.0547
53772SOL    HW168431   9.320   3.917   2.704 -0.7531  1.8887 -0.4075
53772SOL    HW268432   9.254   3.793   2.648 -1.1704  1.4383  1.0378
53773SOL     OW68433   3.683  10.247  12.805 -0.1445 -0.6016 -0.4985
53773SOL    HW168434   3.756  10.197  12.769  1.3254 -0.9939  2.6870
53773SOL    HW268435   3.637  10.185  12.861  0.0219  0.8366  1.3139
53774SOL     OW68436   8.265   3.695   4.375  0.4468  0.3602 -0.3335
53774SOL    HW168437   8.356   3.678   4.350  0.6428  0.1314  0.4888
53774SOL    HW268438   8.260   3.790   4.386  0.3375  0.4709 -1.2762
53775SOL     OW68439   8.362   9.510   6.291 -0.0438  0.0162  0.2555
53775SOL    HW168440   8.376   9.444   6.223  2.0093  0.4555  0.2109
53775SOL    HW268441   8.445   9.556   6.298 -1.4169  2.7332  0.1997
53776SOL     OW68442   8.263  12.277  11.422 -0.1678  0.1664  0.3070
53776SOL    HW168443   8.269  12.204  11.483  0.2847 -0.4925 -0.4949
53776SOL    HW268444   8.354  12.304  11.408 -0.2235  0.0142 -0.4056
53777SOL     OW68445  11.063   1.688   9.312  0.2863 -0.0392  0.1253
53777SOL    HW168446  10.989   1.679   9.253  0.3129 -0.7929  0.1987
53777SOL    HW268447  11.043   1.629   9.385  2.0078 -2.0234 -0.9211
53778SOL     OW68448   8.020   6.297   2.775  0.4916  0.0651 -0.1386
53778SOL    HW168449   8.005   6.210   2.739  0.8537  0.3460 -0.9980
53778SOL    HW268450   8.115   6.301   2.789  0.6452  0.7271 -1.2326
53779SOL     OW68451  11.324   5.825   7.007  0.0736 -0.7360  0.4420
53779SOL    HW168452  11.323   5.743   7.056 -0.7749 -0.3499  1.1002
53779SOL    HW268453  11.385   5.881   7.054  1.2142 -1.2177 -0.4251
53780SOL     OW68454   2.010   1.696   0.427  0.1083 -0.4605  0.4019
53780SOL    HW168455   1.927   1.691   0.380  0.1460 -0.3109  0.3163
53780SOL    HW268456   2.063   1.626   0.389 -0.1899 -0.9548  0.8876
53781SOL     OW68457   8.425   4.570   5.359  0.4622 -1.0257  0.5401
53781SOL    HW168458   8.377   4.650   5.380 -0.1300 -0.8300 -1.3863
53781SOL    HW268459   8.358   4.502   5.359  0.5754 -1.1407  0.0740
53782SOL     OW68460  11.687   9.431   8.189 -0.7391 -0.3064  0.0979
53782SOL    HW168461  11.748   9.503   8.173  1.2109 -1.9704 -0.4440
53782SOL    HW268462  11.708   9.401   8.278 -0.1560 -1.4299 -0.4088
53783SOL     OW68463  11.146   5.240   1.124  0.0178 -0.0548  0.0700
53783SOL    HW168464  11.161   5.303   1.054  0.7113 -1.3449 -0.9822
53783SOL    HW268465  11.220   5.253   1.184 -0.1466  0.5001  0.1606
53784SOL     OW68466   5.253   8.410   8.143 -0.2736 -0.1793  0.4872
53784SOL    HW168467   5.260   8.475   8.213 -0.8512  1.2036 -0.6976
53784SOL    HW268468   5.340   8.370   8.139 -0.3621 -0.6476  2.2958
53785SOL     OW68469   2.733   2.036   5.546 -0.0801 -0.0477  0.5307
53785SOL    HW168470   2.751   1.945   5.523  0.7211  0.4258 -0.8783
53785SOL    HW268471   2.819   2.076   5.554 -0.3660  1.2109 -1.7017
53786SOL     OW68472   9.044   8.799  12.078 -0.5232 -0.1829 -0.8368
53786SOL    HW168473   8.961   8.767  12.115 -1.3597  0.4047 -2.1579
53786SOL    HW268474   9.105   8.797  12.152 -1.8936  0.0253  0.3504
53787SOL     OW68475   1.603   3.677   7.534 -0.2142  0.2460 -0.4212
53787SOL    HW168476   1.538   3.694   7.465 -0.8599 -0.8805 -0.1176
53787SOL    HW268477   1.652   3.601   7.502  0.8195  0.9362 -0.5332
53788SOL     OW68478   8.068   2.967  11.952 -0.3847  0.2409 -0.6258
53788SOL    HW168479   8.079   2.938  11.862 -0.4533  0.1699 -0.6117
53788SOL    HW268480   7.974   2.957  11.969 -0.1573 -1.1447 -0.0699
53789SOL     OW68481   8.191   7.651   6.011  0.0661 -0.0876 -0.9672
53789SOL    HW168482   8.194   7.726   5.953  0.1293  0.0051 -0.8434
53789SOL    HW268483   8.251   7.672   6.083  0.2681 -0.3556 -1.0517
53790SOL     OW68484   8.468   4.184   3.451 -0.7154  1.0118 -0.4295
53790SOL    HW168485   8.467   4.228   3.536 -1.4766  1.2826 -0.5688
53790SOL    HW268486   8.393   4.221   3.404 -0.0863  1.1357 -1.3603
53791SOL     OW68487   1.272  12.807  10.494 -0.1763 -0.0370 -0.0804
53791SOL    HW168488   1.246  12.733  10.549 -1.1515 -1.0080 -1.7400
53791SOL    HW268489   1.194  12.827  10.443  0.2888  1.7160 -0.1665
53792SOL     OW68490  10.184  12.953  10.027 -0.5946  0.7416  0.3639
53792SOL    HW168491  10.255  12.965   9.964  0.9864 -0.2391  1.8647
53792SOL    HW268492  10.167  13.040  10.062 -0.6128  1.0832 -0.4720
53793SOL     OW68493   6.405   9.042   3.324 -0.0069 -0.1790 -0.5204
53793SOL    HW168494   6.429   8.978   3.257 -0.8882  0.6379 -1.6520
53793SOL    HW268495   6.319   9.013   3.356 -0.3307  0.3228 -0.9157
53794SOL     OW68496   9.914  11.705   8.557 -0.0111 -0.3737  0.6142
53794SOL    HW168497   9.996  11.692   8.605  0.5501  1.7691  0.3420
53794SOL    HW268498   9.881  11.616   8.541  2.5350 -1.3414  0.2386
53795SOL     OW68499   1.815   2.630  11.028 -0.2169  0.1336 -0.2821
53795SOL    HW168500   1.759   2.573  11.081  0.0641 -1.6776 -1.8314
53795SOL    HW268501   1.834   2.579  10.949  2.1637  1.3980 -0.6083
53796SOL     OW68502  11.100   0.928   1.353  0.1791 -0.1370 -0.2168
53796SOL    HW168503  11.014   0.939   1.313  0.1876 -2.5448 -1.0167
53796SOL    HW268504  11.161   0.957   1.285  0.0644  0.8575  0.0803
53797SOL     OW68505  10.224  10.974  11.941 -0.1076 -0.4707 -0.2900
53797SOL    HW168506  10.229  10.941  12.031  3.4284  0.4350 -0.0023
53797SOL    HW268507  10.254  10.901  11.887 -1.4895 -0.7544 -0.7243
53798SOL     OW68508  11.649   6.416   5.411 -0.6209 -0.5992  0.0463
53798SOL    HW168509  11.623   6.360   5.338 -0.3673 -2.5293  1.3775
53798SOL    HW268510  11.566   6.439   5.454 -0.5730 -2.4795  1.2430
53799SOL     OW68511   6.614   7.437   6.323 -0.7391  0.4429 -0.7387
53799SOL    HW168512   6.697   7.402   6.356 -0.2263 -0.6859 -3.0415
53799SOL    HW268513   6.566   7.462   6.402  1.0681 -0.5231  0.7507
53800SOL     OW68514   1.855   5.077   2.351 -0.3286  0.2045  0.7198
53800SOL    HW168515   1.829   5.105   2.438 -1.8267 -0.3955  0.5032
53800SOL    HW268516   1.910   5.000   2.366  0.5632  0.9199  1.1700
53801SOL     OW68517   3.123   3.988   6.526 -0.3513  0.3283  0.5883
53801SOL    HW168518   3.122   3.909   6.580  1.1011  0.8550  1.4372
53801SOL    HW268519   3.030   4.007   6.509 -0.7193 -2.3339 -0.8593
53802SOL     OW68520  10.480   3.741   8.709 -0.2829  0.3590  0.0115
53802SOL    HW168521  10.562   3.693   8.713 -1.2405 -1.7237 -2.2766
53802SOL    HW268522  10.421   3.694   8.768 -0.0883  1.3393  1.0087
53803SOL     OW68523   3.034   2.341   8.429 -0.2171  0.4953 -0.1680
53803SOL    HW168524   2.983   2.366   8.506 -0.5344  0.8425 -0.4895
53803SOL    HW268525   2.969   2.327   8.360 -0.0836 -1.4092  0.0384
53804SOL     OW68526   8.732   2.051   0.263  0.3953 -0.2886  0.2751
53804SOL    HW168527   8.690   2.091   0.187 -1.3369  0.0082  1.3368
53804SOL    HW268528   8.825   2.058   0.245  0.0786  1.5216 -0.9564
53805SOL     OW68529   7.789   7.122   1.348  0.3972 -0.2444 -0.0415
53805SOL    HW168530   7.725   7.164   1.406  1.4417  0.9841  0.2524
53805SOL    HW268531   7.840   7.065   1.407  0.2382 -0.4460 -0.0967
53806SOL     OW68532  11.914   8.902   1.479 -0.6744 -0.5936  0.1147
53806SOL    HW168533  11.929   8.824   1.532  0.6827  0.2550  1.0589
53806SOL    HW268534  11.982   8.899   1.411  0.1156  0.2897  0.8278
53807SOL     OW68535   8.689   2.917   5.609  0.0927 -0.2391  0.4421
53807SOL    HW168536   8.638   2.904   5.529 -1.1860 -0.7892  1.3063
53807SOL    HW268537   8.685   3.011   5.625  0.6753 -0.0751 -0.3300
53808SOL     OW68538   4.945   4.484   3.154  0.1231 -0.1481 -0.4062
53808SOL    HW168539   4.991   4.440   3.225  1.4175  0.3251 -0.9125
53808SOL    HW268540   5.003   4.556   3.129 -1.1356  0.7768 -0.7579
53809SOL     OW68541   6.912   2.540   5.389 -0.1394  0.1031 -0.1869
53809SOL    HW168542   6.942   2.624   5.421  1.2499 -0.0025 -1.1358
53809SOL    HW268543   6.937   2.539   5.297 -1.5871 -0.7027 -0.6119
53810SOL     OW68544   0.970   4.706   8.686  0.3887 -0.6347 -0.2662
53810SOL    HW168545   1.048   4.652   8.696  0.7737 -0.0544 -0.0458
53810SOL    HW268546   0.924   4.696   8.769  0.5147 -0.5473 -0.1845
53811SOL     OW68547  12.166   6.226   5.598  0.1689  0.1069  0.1154
53811SOL    HW168548  12.132   6.314   5.578  0.9218  0.3344 -0.1951
53811SOL    HW268549  12.244   6.218   5.544  0.7428 -0.3152  0.9827
53812SOL     OW68550   5.170  12.747   6.170 -0.0767  0.1216 -0.2515
53812SOL    HW168551   5.114  12.814   6.209 -0.2699 -0.3810  0.3419
53812SOL    HW268552   5.234  12.797   6.118  0.8404  0.8798  1.5384
53813SOL     OW68553  10.768  12.319   3.606  0.1562  0.4351 -0.0616
53813SOL    HW168554  10.837  12.291   3.546  0.4006  1.2976 -0.2003
53813SOL    HW268555  10.687  12.302   3.559  0.1391 -2.1244  0.7352
53814SOL     OW68556  11.339   5.249   3.991  0.4545  0.2351 -0.6053
53814SOL    HW168557  11.371   5.309   3.923 -1.3167  2.1252  0.1076
53814SOL    HW268558  11.370   5.287   4.073 -0.6564  0.1917 -0.1409
53815SOL     OW68559  11.483   9.172   5.572  1.0921 -0.1978  0.2414
53815SOL    HW168560  11.530   9.109   5.628  0.7444 -0.9545 -0.2935
53815SOL    HW268561  11.502   9.257   5.610  0.2817 -0.7399  1.9444
53816SOL     OW68562   2.737   3.328   0.389 -0.1890 -0.3822  0.0926
53816SOL    HW168563   2.828   3.356   0.392  0.4090 -0.7180 -5.0783
53816SOL    HW268564   2.738   3.240   0.424  2.1060 -1.2946 -1.9581
53817SOL     OW68565   9.286   3.237   5.723  0.1650  0.1798  0.1831
53817SOL    HW168566   9.317   3.161   5.674  1.1935  0.6869  0.0180
53817SOL    HW268567   9.206   3.207   5.766 -1.1458 -0.1009 -2.2803
53818SOL     OW68568  12.854  11.002  11.667 -0.2779  0.9493 -0.2266
53818SOL    HW168569  12.842  11.022  11.760  1.1242  3.6706 -0.5228
53818SOL    HW268570  12.939  11.041  11.645  1.2693 -2.8275 -1.8621
53819SOL     OW68571   9.033   4.069  12.367 -0.2831  0.7443  0.3092
53819SOL    HW168572   9.110   4.126  12.373  0.0250  0.2972  0.6626
53819SOL    HW268573   9.024   4.052  12.273  0.8868 -0.3210  0.3703
53820SOL     OW68574  12.000  12.690   8.553 -0.3410  0.0616  0.0227
53820SOL    HW168575  11.942  12.763   8.577 -4.3009 -2.5423 -0.8286
53820SOL    HW268576  11.993  12.629   8.626  0.2091 -0.9729 -0.7709
53821SOL     OW68577   3.660  12.515   6.792  0.2298 -0.2009 -0.6358
53821SOL    HW168578   3.644  12.566   6.871  1.3644 -0.2090 -0.3845
53821SOL    HW268579   3.655  12.578   6.720 -2.1191 -0.4117 -0.7351
53822SOL     OW68580   5.855   5.738   6.571  0.6000  0.5561  0.3114
53822SOL    HW168581   5.945   5.704   6.572  1.0700  1.7806  1.4434
53822SOL    HW268582   5.862   5.826   6.607 -0.8308  1.2918 -1.1090
53823SOL     OW68583  11.234   9.079  11.333  0.1462  0.4609 -0.2735
53823SOL    HW168584  11.286   9.115  11.261  1.9021 -2.1334 -0.4636
53823SOL    HW268585  11.197   8.998  11.297 -0.9483  0.3495  1.0342
53824SOL     OW68586   4.183   5.465  11.995 -0.0576  0.1033 -0.1963
53824SOL    HW168587   4.277   5.450  11.985  0.2695  1.2643  0.8960
53824SOL    HW268588   4.158   5.411  12.069  0.6372  2.7783  2.1740
53825SOL     OW68589   9.689   4.329   0.598  0.3431 -0.0841 -0.7363
53825SOL    HW168590   9.715   4.412   0.558  0.2706  0.3359  0.0787
53825SOL    HW268591   9.688   4.346   0.692  0.9715 -1.1822 -0.5016
53826SOL     OW68592  11.515  11.236   0.892  0.1133 -0.1139 -0.2075
53826SOL    HW168593  11.497  11.199   0.979  0.1278  0.0657 -0.1283
53826SOL    HW268594  11.596  11.286   0.904  1.2954 -1.7739 -0.7911
53827SOL     OW68595   9.647  12.231   3.550 -0.3977  0.0945 -0.2820
53827SOL    HW168596   9.672  12.142   3.525 -0.5854  0.3965 -1.6335
53827SOL    HW268597   9.607  12.268   3.471 -2.2438  0.6863  0.8586
53828SOL     OW68598   5.088  12.119   7.836 -0.2955  0.2913 -0.0664
53828SOL    HW168599   5.132  12.046   7.793  2.4047  1.2318  0.9276
53828SOL    HW268600   5.155  12.186   7.846 -2.0665  1.9946  1.2282
53829SOL     OW68601  12.937  12.064  12.609  0.0609 -0.0418  0.3768
53829SOL    HW168602  12.930  12.123  12.684  0.6497  0.5340 -0.0054
53829SOL    HW268603  12.948  12.122  12.534 -1.4970 -0.5844 -0.2923
53830SOL     OW68604   1.297   0.388   5.089 -0.2394 -0.5877  0.3466
53830SOL    HW168605   1.385   0.374   5.055 -0.7776 -1.0598 -0.9028
53830SOL    HW268606   1.243   0.321   5.046 -1.1614 -0.5024  1.3140
53831SOL     OW68607  10.054  11.323  11.572  0.4179  0.2224  0.0484
53831SOL    HW168608  10.115  11.390  11.603  0.9132  0.1821 -0.8245
53831SOL    HW268609   9.967  11.361  11.587  0.6028 -0.0135  1.9745
53832SOL     OW68610   1.861  11.697   4.256 -0.1626  0.5888 -0.0268
53832SOL    HW168611   1.781  11.646   4.268 -1.4581  2.2330 -1.0574
53832SOL    HW268612   1.851  11.735   4.168  2.2807 -0.0088 -0.6205
53833SOL     OW68613   5.051  12.336   3.804 -0.0258 -0.3610  0.4228
53833SOL    HW168614   5.036  12.320   3.711 -0.3102 -0.7174  0.5277
53833SOL    HW268615   5.096  12.258   3.835  0.6684  0.0444  0.4441
53834SOL     OW68616   9.743   5.299   5.060  0.0978  0.3366 -0.3123
53834SOL    HW168617   9.649   5.301   5.079  0.1301 -0.2090 -0.0884
53834SOL    HW268618   9.761   5.385   5.021 -0.5568  0.3142 -0.6798
53835SOL     OW68619   3.324  11.094  10.762 -0.1664 -0.5934 -0.0185
53835SOL    HW168620   3.344  11.165  10.822 -2.5994 -1.0665  1.4951
53835SOL    HW268621   3.376  11.020  10.794  1.8522  0.2561 -1.1923
53836SOL     OW68622   6.713  10.027   1.368  0.2660 -0.4371  0.5026
53836SOL    HW168623   6.714  10.122   1.362  2.1534 -0.2449  2.5430
53836SOL    HW268624   6.626  10.001   1.340  0.6513  1.6061 -3.1453
53837SOL     OW68625   7.514   5.910   8.513  0.1856 -0.1383  0.2737
53837SOL    HW168626   7.592   5.875   8.470  0.5196  0.1624  0.6283
53837SOL    HW268627   7.529   5.894   8.606 -1.4065 -2.5809  0.1984
53838SOL     OW68628  12.457   9.984   7.564 -0.1926 -0.6316  0.3511
53838SOL    HW168629  12.365   9.961   7.556 -0.3500 -0.6640  1.8813
53838SOL    HW268630  12.465  10.020   7.653  1.3897 -1.2881  0.5111
53839SOL     OW68631  11.380  11.118   9.567  0.2912  0.2568  0.3212
53839SOL    HW168632  11.470  11.127   9.537  0.4548 -0.8637  0.4220
53839SOL    HW268633  11.343  11.049   9.511 -0.4269  0.5302  0.4445
53840SOL     OW68634  12.619   2.193   7.333  0.0433 -0.0904 -0.1620
53840SOL    HW168635  12.710   2.174   7.310  0.4705  0.6793  0.8304
53840SOL    HW268636  12.622   2.222   7.424 -0.8872  2.1383 -0.7777
53841SOL     OW68637   3.841   2.883  11.336 -0.0355 -0.0146  0.1783
53841SOL    HW168638   3.853   2.851  11.426 -3.6580 -0.4273  0.6770
53841SOL    HW268639   3.777   2.823  11.298  0.2043  1.1142 -2.1741
53842SOL     OW68640   1.204   2.030   8.545 -0.0683 -0.0662 -0.1360
53842SOL    HW168641   1.203   1.946   8.500  1.2521 -0.7989  1.1528
53842SOL    HW268642   1.147   2.086   8.491  0.5699 -1.1960 -2.0829
53843SOL     OW68643   2.406   2.668   2.390  0.4979 -0.3700 -0.1147
53843SOL    HW168644   2.479   2.708   2.342  0.7297  1.2515  1.4861
53843SOL    HW268645   2.424   2.574   2.387  0.5121 -0.3531 -3.1048
53844SOL     OW68646  10.606  11.586  10.226 -0.1667 -0.2496 -0.0010
53844SOL    HW168647  10.588  11.630  10.142 -0.0550 -0.6028 -0.2141
53844SOL    HW268648  10.678  11.526  10.206 -1.2076 -1.5074 -0.0476
53845SOL     OW68649  12.439   4.374   2.462  0.2760  0.0032 -0.3580
53845SOL    HW168650  12.371   4.312   2.435  0.7794 -0.1642 -1.2714
53845SOL    HW268651  12.427   4.381   2.557  0.5827 -1.9839 -0.1161
53846SOL     OW68652   9.245   8.043   1.350  0.3669 -0.2236 -0.4648
53846SOL    HW168653   9.302   7.970   1.325  0.2982 -1.2272  1.9983
53846SOL    HW268654   9.191   8.008   1.421 -1.5472  1.4724 -1.0113
53847SOL     OW68655   1.279   3.617   6.084 -0.0241 -0.2198 -0.3452
53847SOL    HW168656   1.319   3.656   6.162 -1.2463  1.5758 -0.5841
53847SOL    HW268657   1.344   3.552   6.055  1.0807  0.0552  1.3328
53848SOL     OW68658   5.986   1.456   5.969 -0.2593  0.0902  0.0272
53848SOL    HW168659   5.995   1.541   6.014 -0.6871 -0.2807  0.8253
53848SOL    HW268660   5.904   1.420   6.002  0.7859 -1.4261  1.0179
53849SOL     OW68661  10.117  11.053   9.649  0.0749  0.3504 -0.5439
53849SOL    HW168662  10.186  11.006   9.696  1.6036  0.7762 -2.2333
53849SOL    HW268663  10.053  10.986   9.626  0.7727 -0.3760 -0.4096
53850SOL     OW68664   8.111   4.474   9.063 -0.6657 -0.0471 -0.6021
53850SOL    HW168665   8.128   4.389   9.104  1.6058  0.3873 -0.4975
53850SOL    HW268666   8.196   4.501   9.028 -1.2686  2.2819 -0.4406
53851SOL     OW68667  12.140   0.515   5.555  0.3854 -0.5846  0.0311
53851SOL    HW168668  12.206   0.571   5.596  1.1183 -1.0565 -0.4564
53851SOL    HW268669  12.127   0.444   5.619  0.2259 -0.4054  0.1991
53852SOL     OW68670  12.002   7.940   4.758 -0.2146  0.1129 -0.6000
53852SOL    HW168671  11.956   7.998   4.819 -0.7554  0.3354 -1.2077
53852SOL    HW268672  11.981   7.852   4.790  0.3528  0.2372  0.1373
53853SOL     OW68673   4.203   9.666   9.836 -0.0290 -0.0506  0.6203
53853SOL    HW168674   4.273   9.674   9.901  0.1098 -2.7675  0.8860
53853SOL    HW268675   4.246   9.635   9.757 -0.3552  2.2881 -0.5716
53854SOL     OW68676   0.863   9.724   2.448  0.0847  0.1475 -0.0012
53854SOL    HW168677   0.897   9.671   2.375  2.6820  1.4795  0.1055
53854SOL    HW268678   0.829   9.803   2.407  0.3773  0.3425  0.1264
53855SOL     OW68679   4.200   4.593   5.426 -0.2017 -0.0623  0.1095
53855SOL    HW168680   4.221   4.505   5.397  0.5748 -0.1178  0.7777
53855SOL    HW268681   4.245   4.651   5.364  1.3422 -0.1763  1.0653
53856SOL     OW68682   3.206   4.615  12.518  0.3513  0.4974  0.0427
53856SOL    HW168683   3.292   4.612  12.561  0.3314  4.0224  0.6615
53856SOL    HW268684   3.149   4.657  12.582 -0.9487  1.3172 -1.5748
53857SOL     OW68685   3.297   6.484   6.033 -0.2977 -0.1552 -0.3578
53857SOL    HW168686   3.225   6.485   5.970  0.0853 -0.0363 -0.8023
53857SOL    HW268687   3.376   6.492   5.979 -0.0112  1.2254  0.2120
53858SOL     OW68688   0.288  10.951   4.422 -0.2411  0.5754  0.4931
53858SOL    HW168689   0.366  10.934   4.370 -1.4061 -1.7339 -0.6471
53858SOL    HW268690   0.318  10.949   4.513  0.8985 -1.2196  0.1276
53859SOL     OW68691  12.219   4.204  10.347 -0.1458 -0.0363 -0.1017
53859SOL    HW168692  12.296   4.147  10.342  0.3246  0.6644 -1.0970
53859SOL    HW268693  12.184   4.188  10.435 -0.1261 -1.9560 -0.3913
53860SOL     OW68694   2.814   3.243   1.069  0.0717  0.0493  0.5138
53860SOL    HW168695   2.891   3.252   1.011 -0.6072 -0.6243 -0.5277
53860SOL    HW268696   2.742   3.225   1.009 -0.8491  0.3493  1.5144
53861SOL     OW68697   8.293   1.509  10.398 -0.3094 -0.7953  0.3155
53861SOL    HW168698   8.332   1.450  10.333 -0.1467  0.6432 -0.9400
53861SOL    HW268699   8.199   1.497  10.388 -0.3783  0.8385 -1.6540
53862SOL     OW68700   6.013   8.082   3.729 -0.8132  0.2257 -0.4440
53862SOL    HW168701   5.996   8.036   3.647 -1.5590 -1.0931  0.4218
53862SOL    HW268702   5.945   8.051   3.789 -1.6260  2.8059  0.0705
53863SOL     OW68703   5.733   4.366   6.472 -0.0878  0.3187 -0.3372
53863SOL    HW168704   5.807   4.367   6.412 -1.0985  0.8979 -1.6121
53863SOL    HW268705   5.664   4.414   6.427 -1.0646  0.3069  1.0646
53864SOL     OW68706   8.952   3.059   5.599  0.1294  0.2520  0.0255
53864SOL    HW168707   8.948   2.969   5.566 -0.3565  0.1388  0.3733
53864SOL    HW268708   8.905   3.110   5.532  0.5455  0.2774 -0.2530
53865SOL     OW68709  10.329   7.965   3.528 -0.0355  0.0321 -0.1323
53865SOL    HW168710  10.331   7.871   3.510 -2.8337  0.4026 -3.6747
53865SOL    HW268711  10.418   7.995   3.511  0.5018 -1.7442 -0.6254
53866SOL     OW68712  10.044   4.929   9.267  0.3750 -0.4078 -0.6862
53866SOL    HW168713   9.990   4.914   9.189 -0.8597  0.3426 -0.0178
53866SOL    HW268714  10.011   5.012   9.303 -0.6246 -1.7890  1.8474
53867SOL     OW68715   3.788  11.872   9.748  0.1477  0.2928  0.0384
53867SOL    HW168716   3.880  11.867   9.725 -0.0184 -1.1904 -0.4057
53867SOL    HW268717   3.747  11.800   9.700 -1.2039  0.7996  0.3856
53868SOL     OW68718   2.441   9.861   9.359 -0.0367  0.4062  0.1864
53868SOL    HW168719   2.475   9.774   9.338  1.4617  1.3593 -1.6833
53868SOL    HW268720   2.512   9.905   9.405 -0.7488  0.6756  1.0465
53869SOL     OW68721   1.828   0.358   5.433  0.1845  0.0372  0.4914
53869SOL    HW168722   1.838   0.448   5.463  1.0471 -0.2395  1.0529
53869SOL    HW268723   1.840   0.364   5.338  1.2514  0.3881  0.6297
53870SOL     OW68724  12.624   6.144  12.505  0.0438  0.3676 -0.5704
53870SOL    HW168725  12.575   6.213  12.549 -0.6524 -1.3741  1.6069
53870SOL    HW268726  12.667   6.188  12.431 -0.0248  3.1846  0.9136
53871SOL     OW68727   2.756   5.286   1.789 -0.3378  0.1528 -0.0407
53871SOL    HW168728   2.841   5.313   1.756 -0.0093 -0.4036  0.3413
53871SOL    HW268729   2.704   5.268   1.710  0.5195 -1.4241 -0.2836
53872SOL     OW68730   6.128   2.942  12.904 -0.7560 -0.2857 -0.0078
53872SOL    HW168731   6.103   3.034  12.899  1.2529  0.2480 -1.7491
53872SOL    HW268732   6.074   2.899  12.839 -0.3277  0.0540 -0.6032
53873SOL     OW68733   2.833   5.581   9.659  0.1607  0.0295 -0.3303
53873SOL    HW168734   2.851   5.488   9.675 -1.8015  0.0230  2.7493
53873SOL    HW268735   2.903   5.627   9.706  0.0800  0.0768 -0.2558
53874SOL     OW68736   9.843   0.663   7.763 -0.0815 -0.1340  0.1114
53874SOL    HW168737   9.920   0.637   7.813  0.7462  0.5957 -0.7250
53874SOL    HW268738   9.858   0.628   7.675 -0.0855  1.0418 -0.3888
53875SOL     OW68739   8.941   1.996  12.937 -0.3159  0.1545 -0.3029
53875SOL    HW168740   8.896   1.935  12.879  1.7358 -0.3528 -1.4825
53875SOL    HW268741   9.026   2.011  12.895 -0.0022  2.3619  0.9225
53876SOL     OW68742   8.584  12.227  12.381 -0.1961  0.1053 -0.1181
53876SOL    HW168743   8.572  12.137  12.350  1.6092  0.1936 -1.1876
53876SOL    HW268744   8.678  12.243  12.374 -0.1594  1.3260  2.2398
53877SOL     OW68745  11.843   0.234   2.486 -0.0910  0.2057 -0.1968
53877SOL    HW168746  11.875   0.145   2.469 -0.6357  0.2690 -1.7342
53877SOL    HW268747  11.864   0.249   2.578 -0.8875 -1.8790  0.3950
53878SOL     OW68748   7.330  11.322   4.825  0.3721  0.4456  0.1596
53878SOL    HW168749   7.324  11.358   4.737 -0.6455 -0.5924 -0.2138
53878SOL    HW268750   7.257  11.260   4.831  1.1950 -0.4542  1.2749
53879SOL     OW68751   6.998   1.251   9.252  0.1170  0.4652  0.0983
53879SOL    HW168752   7.074   1.301   9.219  0.6712  0.3548  1.1588
53879SOL    HW268753   6.923   1.290   9.208  0.8101  0.3665 -1.2351
53880SOL     OW68754   0.377   7.273   1.430 -0.3055 -0.1444 -0.2580
53880SOL    HW168755   0.469   7.272   1.457 -0.5148 -1.4523  0.4393
53880SOL    HW268756   0.343   7.355   1.466  0.9698  1.2277 -1.9517
53881SOL     OW68757   8.653  10.247  11.548 -0.2374  0.0289 -0.8847
53881SOL    HW168758   8.705  10.174  11.513  0.2547  0.1508 -0.4228
53881SOL    HW268759   8.697  10.325  11.515  0.5827  0.1631  0.4438
53882SOL     OW68760   8.687   4.942   0.418 -0.2317 -0.2740  0.1040
53882SOL    HW168761   8.644   5.023   0.391 -0.0108 -0.7575 -1.8231
53882SOL    HW268762   8.777   4.951   0.386 -0.3397 -1.4663 -0.5847
53883SOL     OW68763  10.568   4.193   7.752  0.3041  0.6514  0.5777
53883SOL    HW168764  10.527   4.279   7.755  1.8485  1.4378  0.4557
53883SOL    HW268765  10.626   4.196   7.676  0.4669 -0.4508  0.6367
53884SOL     OW68766  10.693   4.661  11.014  0.0298 -0.2380  0.0125
53884SOL    HW168767  10.701   4.587  10.954 -1.5108 -2.1297  1.9729
53884SOL    HW268768  10.753   4.641  11.086 -0.1118  0.6282  0.3915
53885SOL     OW68769  11.139  11.821   6.014  0.0083  0.0589  0.2846
53885SOL    HW168770  11.132  11.762   6.089 -1.8973 -0.6214 -0.3617
53885SOL    HW268771  11.068  11.884   6.026  0.3050  0.5511 -0.4435
53886SOL     OW68772   0.633   2.980  11.476  0.4878  0.1232  0.0135
53886SOL    HW168773   0.575   3.036  11.528  0.4078 -0.8552  1.0266
53886SOL    HW268774   0.574   2.918  11.433  0.7170 -0.4860  0.5605
53887SOL     OW68775  11.250   8.421   7.326  0.2173 -0.1122  0.4235
53887SOL    HW168776  11.282   8.469   7.250  1.2808 -0.7873  0.4134
53887SOL    HW268777  11.288   8.466   7.401 -0.0116 -0.0444  0.4997
53888SOL     OW68778   7.413   4.531   7.906 -0.2153  0.0733  0.2799
53888SOL    HW168779   7.362   4.478   7.845  0.6864  0.5244 -0.9142
53888SOL    HW268780   7.437   4.471   7.976  0.1489 -0.9093 -0.6582
53889SOL     OW68781   9.941   7.173  10.258  0.6162 -0.3840  0.2580
53889SOL    HW168782   9.922   7.266  10.273 -0.1703 -0.8626  2.8181
53889SOL    HW268783   9.883   7.147  10.187  0.4742  0.9626 -0.1413
53890SOL     OW68784   8.956  12.910   7.599  0.1121 -0.5748  0.8014
53890SOL    HW168785   8.908  12.976   7.648  0.1779  0.5095 -0.5427
53890SOL    HW268786   9.039  12.901   7.646 -0.1815 -0.2103  1.3956
53891SOL     OW68787   9.550   9.614   8.006 -0.3962 -0.2559 -0.0661
53891SOL    HW168788   9.467   9.599   7.961  0.5100 -1.8666 -1.3271
53891SOL    HW268789   9.534   9.587   8.097 -1.1516 -0.9274 -0.3898
53892SOL     OW68790   0.649   5.452   5.278  0.0906  0.0259 -0.5278
53892SOL    HW168791   0.600   5.502   5.213 -0.6283 -0.3155 -0.2578
53892SOL    HW268792   0.589   5.442   5.352 -0.6608 -3.1611 -1.4181
53893SOL     OW68793  12.741   9.242  11.616 -0.1290  0.3572  0.0439
53893SOL    HW168794  12.825   9.199  11.631 -0.0342  0.3740 -0.4205
53893SOL    HW268795  12.749   9.327  11.661 -0.7266 -0.5283  1.9126
53894SOL     OW68796   1.876  10.945   1.707  0.1323 -0.1062 -0.6045
53894SOL    HW168797   1.924  11.016   1.751 -0.6595 -1.2367  2.3389
53894SOL    HW268798   1.944  10.894   1.663  1.8223 -1.3885  3.0282
53895SOL     OW68799   9.453   3.578  10.369 -0.2900 -0.3308  0.0390
53895SOL    HW168800   9.364   3.613  10.369 -1.1962 -2.4815 -0.3462
53895SOL    HW268801   9.474   3.564  10.461  0.0911  1.1284  0.2021
53896SOL     OW68802   7.919   3.790   4.723  0.1484 -0.1573 -0.3149
53896SOL    HW168803   8.008   3.794   4.690  0.0594  0.1113 -0.5238
53896SOL    HW268804   7.864   3.811   4.647 -0.0633  0.3023 -0.0344
53897SOL     OW68805   8.407   7.457  12.588  0.5798 -0.4530  0.0014
53897SOL    HW168806   8.414   7.363  12.604  1.1982 -0.2760  0.8496
53897SOL    HW268807   8.492   7.492  12.614  0.2254  0.3920  0.0680
53898SOL     OW68808   8.839   0.107  10.705 -0.2995  0.1331 -0.4730
53898SOL    HW168809   8.816   0.016  10.685 -0.6966  0.2350 -0.4812
53898SOL    HW268810   8.888   0.136  10.627 -1.3364  0.3428 -1.0621
53899SOL     OW68811  10.370   1.520   9.567  0.1122 -0.3056  0.0880
53899SOL    HW168812  10.292   1.488   9.523  1.2946  0.1460 -2.5237
53899SOL    HW268813  10.347   1.609   9.593  0.2907  0.5872 -2.4756
53900SOL     OW68814   9.853  12.526   3.337  0.3465  0.3395  0.1364
53900SOL    HW168815   9.786  12.486   3.281  0.8548  0.9706 -0.9375
53900SOL    HW268816   9.929  12.469   3.328  0.5515  0.6519 -0.1208
53901SOL     OW68817  10.787   9.704   7.886  0.3070 -0.2322 -0.0996
53901SOL    HW168818  10.722   9.699   7.816  1.4148  2.5977 -1.4567
53901SOL    HW268819  10.870   9.686   7.843  0.8859  0.4886  0.6869
53902SOL     OW68820  12.149   6.568   6.785 -0.2609  0.1604 -0.3850
53902SOL    HW168821  12.219   6.504   6.777 -0.6913 -0.3876  0.1784
53902SOL    HW268822  12.194   6.653   6.786  0.3360 -0.1433 -0.7376
53903SOL     OW68823   6.482   5.635  10.596  0.1250  0.3110 -0.0610
53903SOL    HW168824   6.482   5.546  10.630  1.2971 -0.7248 -2.4885
53903SOL    HW268825   6.399   5.643  10.549  1.3796 -0.8172 -2.6837
53904SOL     OW68826  11.328   1.523  11.000 -0.4670  0.3399  0.1683
53904SOL    HW168827  11.307   1.605  11.044  0.8567  1.1697 -0.6539
53904SOL    HW268828  11.353   1.463  11.070 -1.6034  0.5679  0.7946
53905SOL     OW68829   2.149   3.833   4.283 -0.4274  0.3525 -0.6032
53905SOL    HW168830   2.104   3.788   4.355 -0.2835 -0.0046 -0.7360
53905SOL    HW268831   2.161   3.923   4.315 -1.9010  0.6660 -0.8622
53906SOL     OW68832  12.706   1.800   0.416 -0.0175  0.0664 -0.0631
53906SOL    HW168833  12.677   1.818   0.506 -2.3074 -1.5823 -0.4060
53906SOL    HW268834  12.759   1.721   0.424  0.5602  0.4427 -0.0766
53907SOL     OW68835  11.118   5.248   0.628 -0.2649  0.3831 -0.1913
53907SOL    HW168836  11.109   5.196   0.548 -0.9007  0.0038  0.1184
53907SOL    HW268837  11.213   5.251   0.643 -0.2347 -2.2852  0.7858
53908SOL     OW68838   0.313  12.112   2.624 -0.3171  0.2114  0.5499
53908SOL    HW168839   0.372  12.048   2.665 -0.0371 -0.0174 -0.1947
53908SOL    HW268840   0.227  12.071   2.628 -0.5505  0.7926  2.1669
53909SOL     OW68841  11.324   5.176  10.350  0.0028  0.7065  0.2034
53909SOL    HW168842  11.252   5.234  10.326 -0.3791  0.5143  0.8385
53909SOL    HW268843  11.366   5.218  10.425 -0.2068  0.2275  0.5976
53910SOL     OW68844  12.303   8.374   3.771  0.0423 -0.4356 -0.4820
53910SOL    HW168845  12.302   8.289   3.814  1.4602 -0.4106 -0.3689
53910SOL    HW268846  12.216   8.411   3.789 -0.7117 -1.9593 -0.7885
53911SOL     OW68847   7.417   5.921   6.803  0.3879  0.1556 -0.4259
53911SOL    HW168848   7.464   5.887   6.727  2.9685  0.1591  1.0496
53911SOL    HW268849   7.402   5.844   6.858  2.1214  0.6417  0.8138
53912SOL     OW68850   2.821  12.436   3.842  0.3271 -0.4514 -0.3337
53912SOL    HW168851   2.758  12.381   3.889  1.9310 -1.6720  0.4888
53912SOL    HW268852   2.797  12.526   3.866 -1.3130 -0.8487 -0.3551
53913SOL     OW68853   6.640   1.383   8.426  0.1314  0.3618  0.1700
53913SOL    HW168854   6.666   1.367   8.336  1.6672 -1.0504  0.8117
53913SOL    HW268855   6.713   1.431   8.464 -0.4618  0.8652  0.7073
53914SOL     OW68856   0.813   9.098   1.018 -0.3932  0.3370  0.3807
53914SOL    HW168857   0.804   9.132   1.107  0.0528 -0.3421  0.6954
53914SOL    HW268858   0.797   9.004   1.026 -0.8486  0.3440 -0.3463
53915SOL     OW68859   8.215  11.007  12.802 -0.1131 -0.4523  0.3978
53915SOL    HW168860   8.191  10.929  12.852  0.7602 -1.0306 -0.0681
53915SOL    HW268861   8.138  11.025  12.748 -0.9242 -0.0541  1.6288
53916SOL     OW68862   6.716   9.009   3.015 -0.1280 -0.1058  0.1636
53916SOL    HW168863   6.718   9.101   2.990 -0.5532 -0.2032 -0.2556
53916SOL    HW268864   6.702   8.962   2.932  2.5619 -0.7369 -0.0258
53917SOL     OW68865   8.017   3.673   5.136  0.4798  0.1005  0.5228
53917SOL    HW168866   7.994   3.742   5.073  0.8751  1.8175  2.1470
53917SOL    HW268867   8.087   3.712   5.190  1.3900 -1.9414  0.9290
53918SOL     OW68868  10.098   5.628   7.937  0.1946  0.2186 -0.2834
53918SOL    HW168869  10.006   5.622   7.912 -0.3212  0.5802  1.4001
53918SOL    HW268870  10.115   5.722   7.943  1.2221  0.2212 -2.3235
53919SOL     OW68871   9.029  10.505   4.930  0.1424 -0.2760 -0.2921
53919SOL    HW168872   9.014  10.577   4.869 -0.9262  0.0594  0.3539
53919SOL    HW268873   8.952  10.449   4.921  0.9363 -1.3501 -0.7594
53920SOL     OW68874   2.723   0.018   7.759 -0.2759 -0.5858  0.1809
53920SOL    HW168875   2.810  -0.005   7.725 -0.5757 -0.2431 -0.8597
53920SOL    HW268876   2.728  -0.001   7.853  1.1284  0.0288  0.2519
53921SOL     OW68877   0.789   7.134   9.505 -0.2153 -0.2885 -0.5077
53921SOL    HW168878   0.823   7.085   9.581  0.0742 -0.3856 -0.6989
53921SOL    HW268879   0.728   7.197   9.543  0.9697  0.6093 -0.0424
53922SOL     OW68880   0.494   9.098   4.956 -0.1179 -0.2327 -0.4543
53922SOL    HW168881   0.571   9.089   5.011 -0.1096  0.5906 -0.3103
53922SOL    HW268882   0.526   9.080   4.867  0.4147  0.8222 -0.4919
53923SOL     OW68883   1.076   1.377   7.764  0.2228 -0.0408  0.0846
53923SOL    HW168884   0.993   1.377   7.812  0.2227  3.1463  0.2836
53923SOL    HW268885   1.051   1.387   7.672  0.1950  4.5150  0.3531
53924SOL     OW68886  12.380   1.878   4.519 -0.4214 -0.5636 -0.5702
53924SOL    HW168887  12.324   1.901   4.594 -0.5529  0.5000 -0.9811
53924SOL    HW268888  12.321   1.832   4.459 -1.0622  1.0825 -1.2767
53925SOL     OW68889   4.887   3.792   4.013  0.1581  0.0559  0.2204
53925SOL    HW168890   4.810   3.833   3.974  1.0725  0.8821 -0.8247
53925SOL    HW268891   4.853   3.720   4.065 -1.3383  0.6681  0.1397
53926SOL     OW68892   8.194   7.853   5.802 -0.2848  0.3481 -0.4558
53926SOL    HW168893   8.171   7.928   5.747  2.7522  2.5797  0.9895
53926SOL    HW268894   8.276   7.820   5.764 -1.2991 -1.9944 -0.7453
53927SOL     OW68895   2.171   5.313   1.167  0.4136 -0.0281  0.1884
53927SOL    HW168896   2.159   5.280   1.256  0.6252 -0.7901 -0.0536
53927SOL    HW268897   2.133   5.244   1.111  1.2030 -0.0388 -0.3495
53928SOL     OW68898   5.922   6.906   6.941  0.0220  0.4954  0.2942
53928SOL    HW168899   5.909   6.815   6.968 -1.0458  0.2812 -0.8611
53928SOL    HW268900   5.961   6.948   7.018  0.8656 -1.0058  0.7285
53929SOL     OW68901   5.021  12.867  10.171  0.7294  0.2524 -0.0765
53929SOL    HW168902   5.035  12.869  10.266  1.4287  0.2206 -0.1781
53929SOL    HW268903   4.942  12.920  10.158  1.2306  1.1448  0.4195
53930SOL     OW68904   9.212   2.557   6.166 -0.2657 -0.1725 -0.2496
53930SOL    HW168905   9.155   2.502   6.112  2.3288  0.5781 -4.1974
53930SOL    HW268906   9.166   2.565   6.250 -4.2752 -2.1623 -1.9902
53931SOL     OW68907   7.071   6.431   6.982  0.8619  0.6077 -0.1637
53931SOL    HW168908   7.127   6.422   6.905  1.6030  1.2140  0.2915
53931SOL    HW268909   7.132   6.430   7.056  0.0371 -2.1507  0.6055
53932SOL     OW68910   2.029   5.530   1.114  0.5709  0.1914  0.0011
53932SOL    HW168911   2.045   5.527   1.020 -0.1662 -1.5835 -0.1206
53932SOL    HW268912   2.075   5.453   1.149 -0.2081  0.1085  0.8951
53933SOL     OW68913   5.623   1.693   3.304 -0.3095 -0.0660  0.6374
53933SOL    HW168914   5.692   1.758   3.312  0.2425 -0.7316  1.4488
53933SOL    HW268915   5.669   1.609   3.300 -0.9692 -0.3961 -1.1653
53934SOL     OW68916  12.150   3.635   6.227  0.2620 -0.9055 -0.2599
53934SOL    HW168917  12.214   3.584   6.278  1.4081  1.8304  1.2514
53934SOL    HW268918  12.076   3.645   6.287  1.5578  2.2075  1.0215
53935SOL     OW68919   7.590   6.712   4.213  0.6486 -0.5410 -0.0041
53935SOL    HW168920   7.519   6.775   4.223  1.0957 -0.3412  2.6815
53935SOL    HW268921   7.601   6.702   4.118 -0.3385  2.3519 -0.5139
53936SOL     OW68922   5.420   8.742   0.476 -0.4462  0.0352  0.0491
53936SOL    HW168923   5.515   8.745   0.465 -0.3627 -1.3632  0.2709
53936SOL    HW268924   5.404   8.664   0.529 -1.6204  1.0399  1.2576
53937SOL     OW68925  11.758   8.412  11.270 -0.3631 -0.4340  0.0294
53937SOL    HW168926  11.669   8.447  11.256 -0.7233 -0.0627  2.7546
53937SOL    HW268927  11.814   8.470  11.218 -1.7438 -1.3743 -2.6991
53938SOL     OW68928   4.932   4.879   5.441  0.0893  0.1044 -0.1861
53938SOL    HW168929   4.973   4.922   5.516  0.0192 -0.1124 -0.0234
53938SOL    HW268930   4.886   4.804   5.479 -1.5285  1.0539 -0.1953
53939SOL     OW68931   3.985   1.630   9.638 -0.3893  0.8191 -0.4881
53939SOL    HW168932   3.917   1.594   9.696 -0.7146  0.6869 -0.9489
53939SOL    HW268933   4.012   1.711   9.681  2.0660 -1.0380  1.8645
53940SOL     OW68934   2.171   8.371   3.041 -0.1768  0.1872  0.1647
53940SOL    HW168935   2.194   8.444   3.099  0.3498  0.1040  0.0675
53940SOL    HW268936   2.132   8.413   2.964 -1.1741  0.2801  0.7057
53941SOL     OW68937   3.790   2.755   0.222  0.6063 -0.2095  0.9110
53941SOL    HW168938   3.868   2.782   0.173  0.5138  1.0995  1.4686
53941SOL    HW268939   3.806   2.663   0.242  0.5783 -0.8795 -1.7010
53942SOL     OW68940   2.510   9.086   8.292  0.0751 -0.3413 -0.3514
53942SOL    HW168941   2.562   9.158   8.329 -0.7123  0.1940 -0.2456
53942SOL    HW268942   2.467   9.125   8.216 -1.1842 -0.3781  0.3154
53943SOL     OW68943   3.320  11.059   3.120  0.0896  0.5090 -1.0909
53943SOL    HW168944   3.292  10.970   3.143 -0.2034  0.9149  0.2565
53943SOL    HW268945   3.409  11.049   3.088  0.3993 -0.1796 -0.0659
53944SOL     OW68946   2.922   0.951  11.626  0.1789  0.5532  0.6622
53944SOL    HW168947   2.904   0.890  11.555 -1.5184 -0.9360  2.2676
53944SOL    HW268948   2.874   1.031  11.602 -0.6333 -0.0432  0.2718
53945SOL     OW68949  12.150  12.332   3.259 -0.0783 -0.9138 -0.8930
53945SOL    HW168950  12.198  12.409   3.289  1.2116 -1.4348 -1.5475
53945SOL    HW268951  12.069  12.332   3.311 -0.3438  1.1467 -1.2369
53946SOL     OW68952   0.116   3.032   4.159 -0.2203  0.0063  0.4643
53946SOL    HW168953   0.056   3.105   4.171 -0.4275 -0.0145 -0.4022
53946SOL    HW268954   0.201   3.065   4.188 -0.4117  0.4218  0.5571
53947SOL     OW68955  11.952   9.692   3.754  0.1884  0.1792 -0.4042
53947SOL    HW168956  11.987   9.742   3.680 -0.5678  1.1806 -0.0997
53947SOL    HW268957  11.880   9.745   3.788 -1.6161 -1.7696 -0.9522
53948SOL     OW68958  10.863   9.672   4.345 -0.7534  0.6425  0.5787
53948SOL    HW168959  10.905   9.591   4.315  0.8798  1.0643  1.6038
53948SOL    HW268960  10.788   9.643   4.397 -0.3175 -0.2140  0.7443
53949SOL     OW68961   0.103   0.055   3.493  0.0288  0.1955 -0.6626
53949SOL    HW168962   0.062   0.051   3.407 -3.1330 -1.7668  0.7640
53949SOL    HW268963   0.086  -0.031   3.532  0.4153  1.3484  2.3015
53950SOL     OW68964   5.896   4.892   5.600  0.1818  0.1008  0.7706
53950SOL    HW168965   5.906   4.859   5.510 -0.5957  0.2901  0.6028
53950SOL    HW268966   5.816   4.850   5.631 -0.8343  1.7864  0.5515
53951SOL     OW68967   8.111   8.268  12.718 -0.2897 -1.1683 -0.2985
53951SOL    HW168968   8.130   8.355  12.752 -0.2190 -0.8416 -1.1582
53951SOL    HW268969   8.150   8.267  12.630 -0.8213 -1.8545 -0.5383
53952SOL     OW68970   5.704   3.284   4.058 -0.6649  0.2819  0.3266
53952SOL    HW168971   5.759   3.343   4.006 -1.4698 -0.8561 -1.9951
53952SOL    HW268972   5.614   3.313   4.040 -1.0853 -1.5441 -0.9064
53953SOL     OW68973   8.450   8.636   8.345  0.0387  0.6935 -0.1914
53953SOL    HW168974   8.545   8.648   8.338  0.0516  0.3028 -0.7244
53953SOL    HW268975   8.440   8.571   8.415  0.2515 -0.3424 -1.0878
53954SOL     OW68976  10.953   8.547   7.847  0.3467  0.5197  0.1266
53954SOL    HW168977  11.040   8.587   7.838 -0.0650  1.0743 -1.8787
53954SOL    HW268978  10.967   8.454   7.829  0.2987  0.8875 -2.0762
53955SOL     OW68979   2.884   6.353   9.993  1.2948  0.3194  0.3366
53955SOL    HW168980   2.908   6.288  10.060  1.7426 -1.1358 -1.1732
53955SOL    HW268981   2.795   6.378  10.016  0.2877 -2.4447 -0.1834
53956SOL     OW68982  10.464   0.823  11.984 -0.5014 -0.1983 -0.5593
53956SOL    HW168983  10.468   0.755  11.918  1.7086  0.6283 -1.3594
53956SOL    HW268984  10.516   0.895  11.949 -0.8237  1.0146  1.2573
53957SOL     OW68985   0.980   4.167   7.524 -0.0149 -0.2222  0.4669
53957SOL    HW168986   0.977   4.174   7.620 -1.0226  1.5225  0.3556
53957SOL    HW268987   1.058   4.115   7.506  0.6736  0.1271  2.2169
53958SOL     OW68988  10.646   6.455   3.873  0.0116  0.2076 -1.1687
53958SOL    HW168989  10.596   6.500   3.804 -0.4102  0.7469 -0.5139
53958SOL    HW268990  10.671   6.372   3.832 -2.6788 -0.7624 -1.0925
53959SOL     OW68991   5.241   4.754   9.030  0.4542  0.0493 -0.0356
53959SOL    HW168992   5.308   4.775   9.095 -0.4722  0.1030  0.9335
53959SOL    HW268993   5.277   4.786   8.947  1.7708 -0.2534  0.3950
53960SOL     OW68994   9.461   5.465   9.975  0.3138 -0.2085 -0.1058
53960SOL    HW168995   9.548   5.475   9.936  0.1822 -0.6288 -0.5218
53960SOL    HW268996   9.417   5.548   9.958  0.2552 -0.3883 -0.8733
53961SOL     OW68997  12.620   9.130   2.464 -0.5763 -0.2966  0.8174
53961SOL    HW168998  12.647   9.093   2.548  2.3899 -0.8452 -0.2521
53961SOL    HW268999  12.667   9.214   2.458 -0.9351 -0.1487 -0.1572
53962SOL     OW69000   6.071  10.878   2.219  0.4981  0.5841 -0.1536
53962SOL    HW169001   6.043  10.957   2.265  1.0305  1.0772 -0.6512
53962SOL    HW269002   6.163  10.894   2.198  0.5759 -0.1180 -0.3735
53963SOL     OW69003   2.842   4.345   7.836  0.5506  0.0838 -0.1049
53963SOL    HW169004   2.777   4.349   7.907  0.0766 -0.0544 -0.5304
53963SOL    HW269005   2.909   4.407   7.863  0.0835  0.4780  0.1874
53964SOL     OW69006   4.573   9.242   6.994  0.1458 -0.0125  0.8464
53964SOL    HW169007   4.515   9.254   7.070 -0.9636  0.1973 -0.0071
53964SOL    HW269008   4.659   9.270   7.025 -0.6334  1.7738  1.5208
53965SOL     OW69009   5.272  12.453   7.303 -0.4036 -0.0954  0.0455
53965SOL    HW169010   5.342  12.518   7.296  1.5422 -2.1107 -0.4945
53965SOL    HW269011   5.192  12.505   7.318  0.7631  2.4661 -1.8374
53966SOL     OW69012   3.082   9.756   1.040  0.2061 -0.3077 -0.6209
53966SOL    HW169013   3.029   9.677   1.024  0.2158 -0.2411 -0.9793
53966SOL    HW269014   3.047   9.821   0.979 -0.6974  0.3799  0.5921
53967SOL     OW69015   0.111  12.498   4.357 -0.0936  0.0455  0.3311
53967SOL    HW169016   0.136  12.543   4.438  1.6967  0.0411 -0.1741
53967SOL    HW269017   0.026  12.535   4.335 -0.1561  0.7898  1.6648
53968SOL     OW69018  12.521   6.282   2.986  0.5072  0.5918 -0.1827
53968SOL    HW169019  12.523   6.375   2.966  0.8947  0.4286 -0.9502
53968SOL    HW269020  12.584   6.272   3.058  1.6487  0.7031 -1.1375
53969SOL     OW69021   4.964   7.593   4.634 -0.0786  0.3053  0.0239
53969SOL    HW169022   5.012   7.511   4.627  0.0809  0.4604 -0.9248
53969SOL    HW269023   4.875   7.572   4.603 -0.2713  0.3053  0.5691
53970SOL     OW69024   4.175   6.255   1.856  0.3130 -0.1532 -0.3677
53970SOL    HW169025   4.102   6.241   1.916  1.7798 -1.4765  1.2051
53970SOL    HW269026   4.150   6.206   1.777 -1.6537  1.6545 -0.9727
53971SOL     OW69027   7.102   2.183  12.404 -0.5503  0.7568  0.0893
53971SOL    HW169028   7.007   2.196  12.407 -0.8428 -0.3464 -2.0372
53971SOL    HW269029   7.116   2.095  12.439 -0.3964  0.6867 -0.1391
53972SOL     OW69030   6.824   3.876   7.729  0.2693  0.7336  0.3144
53972SOL    HW169031   6.769   3.801   7.752 -0.1035  0.5998 -0.8948
53972SOL    HW269032   6.892   3.840   7.672  1.5555  0.9279  1.6703
53973SOL     OW69033   5.229   6.973   3.194 -0.4580  0.8749  0.1342
53973SOL    HW169034   5.323   6.956   3.186 -0.3357  1.5085  0.2235
53973SOL    HW269035   5.191   6.887   3.213  0.4483  1.0713  3.2999
53974SOL     OW69036   8.714  12.848  12.422  0.2046 -0.2653  0.2358
53974SOL    HW169037   8.620  12.833  12.414  0.1814 -1.1647  1.7907
53974SOL    HW269038   8.754  12.783  12.364 -0.1058 -1.9606  1.7920
53975SOL     OW69039   1.820  10.297   9.808  0.7611 -0.1316 -0.6307
53975SOL    HW169040   1.775  10.379   9.789  0.1917  0.6938  3.3594
53975SOL    HW269041   1.900  10.323   9.854  0.3798 -1.7326  1.0861
53976SOL     OW69042   8.036  11.371  12.254  0.5932 -0.0158 -0.2859
53976SOL    HW169043   8.020  11.465  12.252 -1.2835 -0.2930 -1.2379
53976SOL    HW269044   8.040  11.346  12.162 -1.4313 -1.1852 -0.1135
53977SOL     OW69045  10.322   5.417   0.871 -0.4000 -0.1287 -0.1249
53977SOL    HW169046  10.272   5.349   0.915 -3.7366  0.7948 -2.1464
53977SOL    HW269047  10.347   5.478   0.942  0.0009 -1.8333  1.2638
53978SOL     OW69048   1.479  10.328   4.868  0.1134  0.4625 -0.2409
53978SOL    HW169049   1.407  10.269   4.891 -1.1446  1.8189 -0.5857
53978SOL    HW269050   1.485  10.389   4.942  0.7235  0.5370 -0.3478
53979SOL     OW69051   5.420  10.774   2.368 -0.0450 -0.1538  0.8854
53979SOL    HW169052   5.348  10.779   2.304  0.6069 -2.8536 -0.1671
53979SOL    HW269053   5.376  10.775   2.453 -1.0438  1.6786  0.4213
53980SOL     OW69054   4.465   3.717   8.642  0.0495  0.5131 -0.0723
53980SOL    HW169055   4.426   3.734   8.556  0.3880 -2.1114 -0.8260
53980SOL    HW269056   4.551   3.760   8.638 -0.4288  1.4583 -0.5489
53981SOL     OW69057   4.013   1.755  11.209  0.3990 -0.5198 -0.0600
53981SOL    HW169058   3.970   1.814  11.270 -1.2048 -0.4755 -1.1681
53981SOL    HW269059   3.953   1.680  11.202  0.4035 -0.4002 -1.7429
53982SOL     OW69060   6.387  12.456   9.251  0.0456 -0.4214  0.2971
53982SOL    HW169061   6.308  12.498   9.284 -0.3206 -0.1760 -0.8490
53982SOL    HW269062   6.445  12.450   9.327 -0.1196  1.6311  0.6403
53983SOL     OW69063   4.036   1.325   7.207 -0.2456  0.2160  0.3013
53983SOL    HW169064   3.995   1.324   7.121  0.2865 -1.3707  0.0299
53983SOL    HW269065   3.980   1.271   7.262  0.9236 -1.2361  0.1516
53984SOL     OW69066   6.605  11.665   1.886  0.1730  0.8509  0.1417
53984SOL    HW169067   6.599  11.681   1.980 -0.7847  0.8098  0.0930
53984SOL    HW269068   6.699  11.651   1.870  0.2477 -0.0383  1.2304
53985SOL     OW69069  10.241  11.487  10.794  0.0816 -0.6370  0.1058
53985SOL    HW169070  10.195  11.490  10.710 -0.8587  1.1383  0.6215
53985SOL    HW269071  10.230  11.397  10.824 -0.5716 -0.9933 -1.1312
53986SOL     OW69072  11.489   9.682   5.847  0.2462  0.6869  0.4259
53986SOL    HW169073  11.572   9.719   5.875 -0.1773  0.7002  1.7486
53986SOL    HW269074  11.428   9.756   5.846 -0.1556  0.3904  1.2389
53987SOL     OW69075   4.458   3.612   3.578  0.3371 -0.3721  0.1007
53987SOL    HW169076   4.509   3.680   3.534  0.0571  2.0725  3.1419
53987SOL    HW269077   4.376   3.656   3.603 -0.9912 -2.6325  0.0044
53988SOL     OW69078   8.419   9.197   3.303 -0.5273 -0.1081  0.3295
53988SOL    HW169079   8.397   9.156   3.219 -0.7618  1.7734 -0.6009
53988SOL    HW269080   8.427   9.125   3.364  0.5918 -1.6517 -1.5237
53989SOL     OW69081   4.709   3.455   1.532  0.0620  0.1326  0.4018
53989SOL    HW169082   4.636   3.492   1.582 -0.0725  0.0930  0.2352
53989SOL    HW269083   4.727   3.372   1.574 -0.5212 -0.2298 -0.0529
53990SOL     OW69084   3.728   4.458   7.080  0.1849 -0.3695  0.1267
53990SOL    HW169085   3.643   4.418   7.101  0.0822  0.2610  0.9683
53990SOL    HW269086   3.734   4.534   7.138  1.3363 -0.4126  0.0960
53991SOL     OW69087   8.572   0.585   2.035  0.3465  0.1477  0.3424
53991SOL    HW169088   8.600   0.606   1.946 -0.4800 -1.3160 -0.3207
53991SOL    HW269089   8.532   0.665   2.068  0.5848  0.6879 -0.6460
53992SOL     OW69090  11.601   9.505   3.599 -0.4936  0.3603  0.4917
53992SOL    HW169091  11.602   9.598   3.577 -0.7630  0.0436 -0.9309
53992SOL    HW269092  11.589   9.460   3.516  1.7238 -1.0746  0.8539
53993SOL     OW69093   4.160   4.085   3.440 -0.5331 -0.8261 -0.3475
53993SOL    HW169094   4.124   4.076   3.528 -0.0318  0.0740 -0.0342
53993SOL    HW269095   4.097   4.142   3.394  0.6639  1.1631  0.3509
53994SOL     OW69096   7.328  12.397  10.910  0.4287 -0.5152 -0.4412
53994SOL    HW169097   7.400  12.428  10.856  0.1592  0.8977 -0.0235
53994SOL    HW269098   7.357  12.414  11.000  0.2008 -1.3531 -0.1988
53995SOL     OW69099   4.065   7.543   8.361  0.5551 -0.3777  0.1621
53995SOL    HW169100   4.111   7.468   8.324  0.4611 -0.3745  0.0405
53995SOL    HW269101   4.009   7.505   8.429 -0.0397 -0.5082 -0.3926
53996SOL     OW69102   1.386   9.145   4.809  0.1952 -0.1458 -0.4079
53996SOL    HW169103   1.427   9.075   4.859  0.7001  0.1602 -0.3800
53996SOL    HW269104   1.329   9.100   4.746 -0.9195 -0.5114  0.8322
53997SOL     OW69105   8.698   1.136   0.079 -0.3541 -0.1139  0.0424
53997SOL    HW169106   8.620   1.095   0.041 -1.0761  0.3128  1.0127
53997SOL    HW269107   8.749   1.063   0.113 -0.9325 -0.3359  0.4698
53998SOL     OW69108   8.088   7.321   8.401  0.1516 -0.2486 -0.1197
53998SOL    HW169109   8.092   7.291   8.492  0.2118  0.2243  0.0402
53998SOL    HW269110   8.166   7.376   8.391  0.3981 -0.6804 -0.6004
53999SOL     OW69111   3.968   6.223   5.139 -0.1618  0.1519  0.5720
53999SOL    HW169112   3.892   6.192   5.090  0.6302  0.4573 -0.9045
53999SOL    HW269113   3.997   6.147   5.190 -2.3825  0.4644  2.4635
54000SOL     OW69114   7.391   1.787   8.809 -0.4895  0.1885 -0.2120
54000SOL    HW169115   7.449   1.835   8.868  1.5719  1.4660 -3.0072
54000SOL    HW269116   7.439   1.705   8.792 -0.9927 -0.1013 -0.2440
54001SOL     OW69117   1.367  12.596   0.997  0.1518  0.0582  0.1477
54001SOL    HW169118   1.390  12.578   0.906  0.2496  1.2378 -0.0758
54001SOL    HW269119   1.443  12.643   1.032 -0.0080 -0.1177  0.7531
54002SOL     OW69120   9.985   7.934   9.081  0.0614  0.1886  0.1355
54002SOL    HW169121   9.987   7.838   9.087 -1.4848  0.0894 -0.6333
54002SOL    HW269122  10.072   7.957   9.049 -0.2600 -1.1709 -1.9742
54003SOL     OW69123   1.382  11.809   5.520  0.1659  0.1956  0.7386
54003SOL    HW169124   1.357  11.735   5.465 -0.1131  0.6597  0.2286
54003SOL    HW269125   1.402  11.770   5.605 -0.2249 -0.4337  0.5493
54004SOL     OW69126  10.772   3.288   9.557  0.0371 -0.6728  0.4348
54004SOL    HW169127  10.814   3.206   9.535 -0.4871 -0.8902  0.2219
54004SOL    HW269128  10.679   3.266   9.568  0.1489 -0.4599  2.1861
54005SOL     OW69129   9.325   7.441   6.852 -0.3090 -0.4366 -0.2734
54005SOL    HW169130   9.269   7.377   6.896 -1.4730  0.1855 -0.8213
54005SOL    HW269131   9.274   7.521   6.850  0.3826  0.0011 -1.2884
54006SOL     OW69132   4.054   3.639  10.056  0.1659 -0.9640 -0.1530
54006SOL    HW169133   4.006   3.567  10.016  0.4971 -1.3798  0.1800
54006SOL    HW269134   4.117   3.596  10.114 -0.2152 -0.3888  0.7139
54007SOL     OW69135   5.709   7.159   5.907 -0.0438  0.3776  0.2655
54007SOL    HW169136   5.617   7.187   5.904  0.0159  0.8936  1.9695
54007SOL    HW269137   5.704   7.063   5.902 -0.6673  0.4104  0.0949
54008SOL     OW69138   1.662   3.582   0.812 -0.1328  0.1080 -0.0089
54008SOL    HW169139   1.585   3.594   0.757  0.4524  0.7915 -0.6942
54008SOL    HW269140   1.717   3.658   0.794  1.1679 -0.8692 -0.2876
54009SOL     OW69141   9.951   0.515   4.346  0.0798 -0.0498 -0.4063
54009SOL    HW169142   9.986   0.494   4.433  0.7196  1.9347 -0.1449
54009SOL    HW269143  10.023   0.498   4.286  0.4551  0.9323 -0.2463
54010SOL     OW69144   3.912  10.036   2.073 -0.0061  0.5837 -0.1692
54010SOL    HW169145   3.849   9.965   2.060  0.9029 -0.0785 -1.0708
54010SOL    HW269146   3.905  10.057   2.166 -0.0899 -0.8719  0.1772
54011SOL     OW69147   4.443   5.459  11.963 -0.6752  0.3321  0.0208
54011SOL    HW169148   4.469   5.411  12.042 -1.0455  0.5778  0.3011
54011SOL    HW269149   4.490   5.417  11.892 -0.8275 -0.3055  0.2909
54012SOL     OW69150  12.439   2.741   1.370 -0.4347 -0.1034 -0.8233
54012SOL    HW169151  12.359   2.701   1.336 -0.8509 -0.5547  0.6322
54012SOL    HW269152  12.433   2.731   1.465 -0.2834  2.9176 -0.4072
54013SOL     OW69153   3.855   2.034   9.647  0.1534 -0.3333  0.0220
54013SOL    HW169154   3.863   2.119   9.689 -0.0391 -0.2249 -0.1591
54013SOL    HW269155   3.842   1.973   9.719 -1.6559  0.0352  0.0430
54014SOL     OW69156   5.107   7.769  11.149 -0.0701  0.0648 -0.0870
54014SOL    HW169157   5.149   7.780  11.234  1.2967 -0.3212 -0.6897
54014SOL    HW269158   5.072   7.680  11.151  0.3548 -0.1068 -0.0771
54015SOL     OW69159  12.031  10.454  10.439  0.1710  0.8950  0.2988
54015SOL    HW169160  11.969  10.462  10.511 -0.2775 -0.1215  0.0452
54015SOL    HW269161  12.117  10.466  10.479 -0.0796  0.4122  0.9985
54016SOL     OW69162   3.672   7.038   6.009 -0.0378 -0.3580  0.3707
54016SOL    HW169163   3.730   7.079   6.073  0.3142 -0.3416  0.0414
54016SOL    HW269164   3.676   7.096   5.932  0.4775 -1.0206 -0.1063
54017SOL     OW69165   7.619   2.895   8.611 -0.3537  0.1303  0.5459
54017SOL    HW169166   7.647   2.804   8.610 -2.9382 -0.7927 -1.8261
54017SOL    HW269167   7.688   2.942   8.564  0.4924 -0.7439  0.8725
54018SOL     OW69168  11.953   9.733   8.477 -0.1473  0.3695 -0.1030
54018SOL    HW169169  11.980   9.754   8.566  1.2407  1.0060 -0.6436
54018SOL    HW269170  12.006   9.656   8.453  1.3513  1.6667 -1.1982
54019SOL     OW69171   3.269  10.167   0.126 -0.4004 -0.1605  0.1093
54019SOL    HW169172   3.356  10.149   0.088 -0.8140 -2.7285  0.1989
54019SOL    HW269173   3.221  10.210   0.055  0.8509  1.1903  0.0159
54020SOL     OW69174  11.386   0.384   2.507  0.0435 -0.3735 -0.1216
54020SOL    HW169175  11.479   0.382   2.482  0.0602  0.3773 -0.1297
54020SOL    HW269176  11.355   0.470   2.478 -0.9899 -1.1160 -1.3197
54021SOL     OW69177   6.080   4.330   0.086 -0.1636  0.2935 -0.2674
54021SOL    HW169178   6.170   4.345   0.056 -0.0672 -0.2458 -0.2656
54021SOL    HW269179   6.052   4.414   0.122  0.3008  0.4956 -0.3708
54022SOL     OW69180   5.444   7.135   5.237  0.3216 -0.4476 -0.1154
54022SOL    HW169181   5.472   7.225   5.252 -1.4683 -0.0428  1.1769
54022SOL    HW269182   5.511   7.081   5.278  0.7381  0.3432  0.2527
54023SOL     OW69183  11.399   4.249   2.706 -0.1805 -0.1210 -0.3117
54023SOL    HW169184  11.332   4.181   2.712 -0.0064 -0.2965 -0.3506
54023SOL    HW269185  11.369   4.318   2.765 -1.4176  0.6903 -1.7936
54024SOL     OW69186   7.383   9.341  10.845  0.8006 -0.1151 -0.5567
54024SOL    HW169187   7.323   9.391  10.901  0.3605 -1.2797  0.0543
54024SOL    HW269188   7.428   9.407  10.793  0.2764  0.9129  0.2536
54025SOL     OW69189  10.734   0.654   8.508 -0.5214  0.4256  0.4919
54025SOL    HW169190  10.741   0.587   8.577 -0.1641  0.1971  0.2341
54025SOL    HW269191  10.735   0.604   8.426  0.0939  0.7693  0.2825
54026SOL     OW69192   6.202   9.669   0.563  0.0204  0.0639  0.7007
54026SOL    HW169193   6.290   9.645   0.534 -0.2455  1.2164 -1.2705
54026SOL    HW269194   6.189   9.757   0.528 -2.7050 -0.8904 -0.9935
54027SOL     OW69195   0.072   2.066   0.097  0.3652  0.1615  0.0929
54027SOL    HW169196   0.011   2.036   0.165 -0.4551  0.3171 -0.5670
54027SOL    HW269197   0.079   2.161   0.112  0.1252  0.2080 -0.0802
54028SOL     OW69198   8.786   0.392   1.804 -0.4269  0.4400  0.6021
54028SOL    HW169199   8.748   0.468   1.759 -1.7605  0.3196  1.4655
54028SOL    HW269200   8.753   0.317   1.757  2.0569  0.3290 -1.1698
54029SOL     OW69201   2.293  12.243   8.573  0.5982 -1.0051  0.4586
54029SOL    HW169202   2.244  12.261   8.492  2.7399 -0.9767 -0.8925
54029SOL    HW269203   2.292  12.325   8.621  2.2202  0.0467 -1.1963
54030SOL     OW69204  10.997   5.777   7.753  0.0745 -0.4602  0.0169
54030SOL    HW169205  10.987   5.682   7.741 -0.1394 -0.3466 -0.7331
54030SOL    HW269206  10.995   5.813   7.665  1.2514  0.1532  0.2252
54031SOL     OW69207   8.033   1.714   3.410  0.4310  0.4556  0.0307
54031SOL    HW169208   7.988   1.676   3.485  1.1053  0.8046  0.6248
54031SOL    HW269209   8.116   1.666   3.405 -0.8384 -1.7405 -2.3954
54032SOL     OW69210   7.209   3.741   1.604 -0.4817 -0.0139 -0.2977
54032SOL    HW169211   7.242   3.655   1.627  0.4987  0.6453  0.8820
54032SOL    HW269212   7.239   3.756   1.515  2.1491  0.3704  0.5687
54033SOL     OW69213   1.599   6.161  10.622 -0.0117 -0.0591 -0.3296
54033SOL    HW169214   1.581   6.248  10.656  3.4829  0.3081  0.9614
54033SOL    HW269215   1.592   6.170  10.527 -2.7567  0.7483 -0.1300
54034SOL     OW69216   3.545   4.091   5.222  0.3763 -0.4398 -0.0435
54034SOL    HW169217   3.499   4.092   5.138  1.5888 -1.5309 -0.7594
54034SOL    HW269218   3.550   3.998   5.245  0.2122 -0.1650  1.1771
54035SOL     OW69219   0.761  12.099   7.273 -0.0170  0.8402 -0.0548
54035SOL    HW169220   0.810  12.028   7.316  0.1192  0.2182 -1.1692
54035SOL    HW269221   0.678  12.104   7.320 -0.3757 -0.6614 -0.4672
54036SOL     OW69222   3.844  12.451   4.706 -0.1351 -0.0680 -0.0974
54036SOL    HW169223   3.905  12.512   4.747 -1.9799  0.6201  1.8331
54036SOL    HW269224   3.898  12.378   4.678  2.0029  1.9177 -1.4947
54037SOL     OW69225  11.531   8.749  12.324  0.0149 -0.6392  0.6853
54037SOL    HW169226  11.453   8.751  12.270 -0.7097  0.4699  1.7190
54037SOL    HW269227  11.568   8.662  12.310 -0.0724 -0.3556 -1.6418
54038SOL     OW69228   2.688  11.127   3.582 -0.3255 -0.2492 -0.0743
54038SOL    HW169229   2.635  11.048   3.592 -0.5290 -0.2065 -0.7520
54038SOL    HW269230   2.741  11.111   3.504  0.0990  0.0294  0.1497
54039SOL     OW69231  11.400   4.404  11.125 -0.5641 -0.6246 -0.3762
54039SOL    HW169232  11.443   4.450  11.197 -0.7313  1.5920 -1.6109
54039SOL    HW269233  11.470   4.389  11.061 -1.0067  0.1597 -1.0469
54040SOL     OW69234   0.946  12.829   6.999 -0.2388  0.7969 -0.3003
54040SOL    HW169235   0.852  12.836   6.987 -0.2983  2.0005  0.7179
54040SOL    HW269236   0.963  12.870   7.084  0.9176 -1.5480  0.6940
54041SOL     OW69237   8.692  12.566   7.724 -0.3871  0.1096  0.2071
54041SOL    HW169238   8.747  12.542   7.650  0.0905  1.2660  0.1699
54041SOL    HW269239   8.744  12.545   7.802 -1.1664 -1.7848  0.2804
54042SOL     OW69240  10.306   2.832   2.918  0.2110 -0.3426  0.0737
54042SOL    HW169241  10.376   2.828   2.982  0.2219 -0.0082  0.0812
54042SOL    HW269242  10.277   2.741   2.909  0.3777 -0.4262  0.3629
54043SOL     OW69243   2.914  12.560  10.848  0.3219 -0.1124  0.0671
54043SOL    HW169244   2.875  12.478  10.819 -0.1763 -0.0894  0.6547
54043SOL    HW269245   2.840  12.621  10.854  0.5035  0.0353  0.8374
54044SOL     OW69246  11.821   8.880  10.766 -0.0953 -0.8566 -0.5473
54044SOL    HW169247  11.892   8.829  10.803 -1.1633 -0.8490  1.6418
54044SOL    HW269248  11.831   8.968  10.803 -1.1355 -0.8122 -0.3287
54045SOL     OW69249   6.412  10.753  10.708 -0.3725 -0.0643  0.2268
54045SOL    HW169250   6.454  10.802  10.637 -0.2740 -0.5137 -0.0345
54045SOL    HW269251   6.324  10.791  10.715  0.0731  0.8887  0.7849
54046SOL     OW69252   4.439   3.427   7.448 -0.1014  0.6630 -0.3651
54046SOL    HW169253   4.430   3.493   7.379 -0.3874  0.2231 -0.7549
54046SOL    HW269254   4.413   3.473   7.528 -0.7497  0.8914 -0.7009
54047SOL     OW69255   6.207  12.209   6.877  0.1291  0.0584 -0.1854
54047SOL    HW169256   6.195  12.201   6.972 -0.1167  0.1535 -0.2063
54047SOL    HW269257   6.226  12.120   6.848  0.5907  0.0965  0.0042
54048SOL     OW69258   4.633  11.286   3.801  0.1519 -0.6842 -0.7854
54048SOL    HW169259   4.717  11.266   3.760  0.0450 -0.3277 -1.1924
54048SOL    HW269260   4.617  11.213   3.861  1.2491 -0.2249  0.0939
54049SOL     OW69261  12.290   2.057   7.994  0.2502  0.2145  0.3295
54049SOL    HW169262  12.346   2.131   8.016  0.9413  1.3602 -4.2105
54049SOL    HW269263  12.202   2.093   7.987 -0.0676 -0.2635  1.5255
54050SOL     OW69264   0.579   6.497   8.489 -0.2572  1.2210 -0.2404
54050SOL    HW169265   0.642   6.552   8.535 -1.2197  2.5309 -0.4281
54050SOL    HW269266   0.596   6.512   8.396 -0.6473  1.3464 -0.2943
54051SOL     OW69267   6.133  10.761   9.166  0.3491  0.0655  0.0830
54051SOL    HW169268   6.130  10.686   9.107  0.0963  0.5890 -0.5840
54051SOL    HW269269   6.122  10.724   9.254  0.2762 -0.6752 -0.2373
54052SOL     OW69270   0.664   8.314   3.955  0.1546  0.2750  0.0773
54052SOL    HW169271   0.619   8.271   3.882 -0.0124  0.1361  0.2569
54052SOL    HW269272   0.752   8.276   3.955 -0.0751 -0.2862  0.4047
54053SOL     OW69273  10.240   8.474   5.479 -0.6787 -0.3740 -0.3063
54053SOL    HW169274  10.218   8.545   5.538 -2.3424 -0.2686 -0.9750
54053SOL    HW269275  10.283   8.516   5.405 -0.3081 -0.2635 -0.0296
54054SOL     OW69276   9.755   7.704   9.028 -0.0332  0.1990  0.8480
54054SOL    HW169277   9.745   7.706   8.932  2.6054  1.6481  0.5173
54054SOL    HW269278   9.763   7.611   9.048 -2.5230 -0.2792 -0.0439
54055SOL     OW69279   5.665   6.065   0.203 -0.4581  0.3131 -0.5238
54055SOL    HW169280   5.728   6.014   0.152  0.7609  0.1162  1.0972
54055SOL    HW269281   5.718   6.135   0.241 -1.2127  0.1127  0.9218
54056SOL     OW69282  11.784   9.254   8.762 -0.0399 -0.1272 -0.1171
54056SOL    HW169283  11.799   9.159   8.763  0.9051 -0.0095 -1.2034
54056SOL    HW269284  11.869   9.291   8.783 -0.5347  0.4941  0.8557
54057SOL     OW69285   1.406   3.441   4.513  0.5824  0.9291 -0.3132
54057SOL    HW169286   1.331   3.383   4.504 -0.3881  2.1878 -0.6294
54057SOL    HW269287   1.482   3.383   4.514 -0.4180 -0.4194  0.5491
54058SOL     OW69288   7.365   3.355   2.929 -0.2413  0.2842 -0.3289
54058SOL    HW169289   7.439   3.403   2.966 -0.6308  0.2839  0.4691
54058SOL    HW269290   7.348   3.285   2.992 -1.3818  0.7214 -0.1414
54059SOL     OW69291   7.670  12.515  10.261  0.1188 -0.1253  0.1347
54059SOL    HW169292   7.754  12.533  10.219  0.0524  2.9351  1.0717
54059SOL    HW269293   7.605  12.531  10.192  0.2247 -2.2733 -0.5257
54060SOL     OW69294   2.379   2.564   5.866 -0.3309 -1.0727  0.0886
54060SOL    HW169295   2.328   2.504   5.813  1.3206 -2.2626 -0.2544
54060SOL    HW269296   2.374   2.528   5.955 -1.9869  0.1585  0.5399
54061SOL     OW69297   8.231   1.880   1.380 -0.1718 -0.3077 -0.1622
54061SOL    HW169298   8.216   1.944   1.450 -3.5452  0.1400 -1.0990
54061SOL    HW269299   8.254   1.933   1.304  2.0761 -0.6926  0.1807
54062SOL     OW69300   5.429   2.669   3.296 -0.2145 -0.4718 -0.0661
54062SOL    HW169301   5.458   2.698   3.382 -0.0985 -0.1123 -0.2242
54062SOL    HW269302   5.385   2.586   3.312  1.2264 -1.2303  0.1379
54063SOL     OW69303   5.963  12.234   6.719 -0.0420 -0.8907 -0.7275
54063SOL    HW169304   5.951  12.191   6.804 -2.0152  3.6073  1.5880
54063SOL    HW269305   6.053  12.265   6.719 -0.0143 -0.9766 -0.3148
54064SOL     OW69306   6.519   1.791  11.226 -0.2855 -0.2468 -0.0453
54064SOL    HW169307   6.504   1.886  11.224 -1.6132 -0.4489 -0.9131
54064SOL    HW269308   6.604   1.780  11.184 -0.4588  0.5080 -0.6188
54065SOL     OW69309   2.780   0.494  12.177  0.3210  0.0434 -0.1309
54065SOL    HW169310   2.776   0.574  12.228 -1.5918 -1.2018  1.8243
54065SOL    HW269311   2.705   0.499  12.118  0.0003 -0.4604  0.2338
54066SOL     OW69312   7.505   7.069   0.443  0.1067  0.1495 -0.2699
54066SOL    HW169313   7.583   7.040   0.395 -1.0472 -0.5103 -1.8660
54066SOL    HW269314   7.474   7.145   0.394  0.2658  1.0082  0.9223
54067SOL     OW69315  12.686   3.087   8.766 -0.6329 -0.1049 -0.0476
54067SOL    HW169316  12.658   2.995   8.760 -2.3362  0.4030 -0.3703
54067SOL    HW269317  12.730   3.104   8.682  1.5410 -1.1460  0.7898
54068SOL     OW69318   6.242   8.448   1.824 -0.3635 -0.7356 -0.2244
54068SOL    HW169319   6.217   8.473   1.735 -0.5957  4.1419  0.9283
54068SOL    HW269320   6.163   8.406   1.860 -0.5096 -2.1020 -1.9789
54069SOL     OW69321  11.741   3.830   4.406 -0.6962  0.8243 -0.7796
54069SOL    HW169322  11.717   3.821   4.314 -1.7546  0.6266 -0.4927
54069SOL    HW269323  11.751   3.741   4.438 -1.1949  0.8753 -0.4807
54070SOL     OW69324   8.861   4.699  10.308 -0.0731 -0.0638 -0.4096
54070SOL    HW169325   8.845   4.719  10.400  0.2661  0.0693 -0.3762
54070SOL    HW269326   8.806   4.760  10.260  0.4987  0.5454 -0.3038
54071SOL     OW69327   6.907   8.682   1.788 -0.1576  0.0244  0.3152
54071SOL    HW169328   6.955   8.731   1.856 -1.1647  2.2931 -0.4979
54071SOL    HW269329   6.815   8.692   1.813 -0.4926  0.2611 -0.9567
54072SOL     OW69330   3.645   4.077  10.829  0.1452 -0.3847 -0.2670
54072SOL    HW169331   3.728   4.091  10.783  0.6312  0.9697  0.9197
54072SOL    HW269332   3.618   4.165  10.856 -0.7307 -0.9910  0.9278
54073SOL     OW69333   8.945   9.945  10.080 -0.9112  0.5594  0.0461
54073SOL    HW169334   8.853   9.940  10.105 -0.3906  0.2319  2.0233
54073SOL    HW269335   8.972   9.853  10.069 -0.7269  0.6378 -0.1705
54074SOL     OW69336  10.854  10.912   8.982 -0.4350 -0.0925  0.1604
54074SOL    HW169337  10.860  11.008   8.979 -0.2418 -0.0968  0.3478
54074SOL    HW269338  10.825  10.892   9.071 -0.0367 -0.2251  0.2640
54075SOL     OW69339  11.531   7.621  10.023  0.2922  0.0329  0.1812
54075SOL    HW169340  11.444   7.626  10.062  0.1358 -0.6383 -0.0673
54075SOL    HW269341  11.534   7.535   9.982  0.6833  0.4706 -0.7389
54076SOL     OW69342  12.862   6.117  10.984 -0.3132 -0.0634 -0.2295
54076SOL    HW169343  12.811   6.060  10.926  0.3838 -0.2402 -0.6716
54076SOL    HW269344  12.948   6.077  10.989 -0.6525 -0.6570  1.8057
54077SOL     OW69345   9.362   5.530   3.399 -0.4855 -0.8432  0.0521
54077SOL    HW169346   9.295   5.519   3.467  0.8062 -0.3282  1.4578
54077SOL    HW269347   9.412   5.448   3.402 -0.6083 -0.9420 -0.5045
54078SOL     OW69348   8.972   6.009   9.300  0.0464  0.1595 -0.5632
54078SOL    HW169349   8.949   6.099   9.277 -0.0064  0.4003  0.3725
54078SOL    HW269350   9.044   5.986   9.241  1.4880  1.5594  0.5843
54079SOL     OW69351  10.203   3.259   3.087  0.3879  1.0166  0.2150
54079SOL    HW169352  10.189   3.354   3.083  0.0735  0.9332 -0.8288
54079SOL    HW269353  10.116   3.221   3.079  0.6074  0.6193 -0.3253
54080SOL     OW69354   0.707   3.156  12.911  0.6290 -0.7711 -0.2833
54080SOL    HW169355   0.664   3.134  12.828  0.5892 -0.1394 -0.4365
54080SOL    HW269356   0.761   3.079  12.932  0.4363 -1.0382 -0.7581
54081SOL     OW69357   0.530   7.489   8.408 -0.3998  0.1277  0.4764
54081SOL    HW169358   0.604   7.493   8.347 -0.1654 -0.5234  0.7092
54081SOL    HW269359   0.457   7.457   8.354 -0.1750 -0.5174  0.5407
54082SOL     OW69360   8.034   8.147   0.223  0.3125  0.3276 -0.4083
54082SOL    HW169361   8.016   8.079   0.288  0.8721  1.1656  0.6587
54082SOL    HW269362   8.113   8.191   0.255  0.6724  0.6926 -1.7273
54083SOL     OW69363   5.991  10.825   9.744  0.1835  0.2817  0.1096
54083SOL    HW169364   5.969  10.739   9.709  0.5012  0.1913  0.1314
54083SOL    HW269365   5.955  10.825   9.833  2.0400 -0.6473  0.9338
54084SOL     OW69366   5.572   7.932   8.075  0.7648 -0.3219  0.2000
54084SOL    HW169367   5.656   7.965   8.041  0.0648  1.3904  0.0434
54084SOL    HW269368   5.560   7.979   8.158 -0.2654 -0.1758 -0.0205
54085SOL     OW69369  12.644  12.314   2.782 -0.4306 -0.0718  0.4980
54085SOL    HW169370  12.552  12.315   2.757 -0.7708 -1.0919  1.5984
54085SOL    HW269371  12.684  12.384   2.731 -1.5214 -0.5533 -1.0832
54086SOL     OW69372   8.750   0.027  11.596 -0.2061  0.4789 -0.5586
54086SOL    HW169373   8.727  -0.003  11.684  1.5558  0.4137 -0.0807
54086SOL    HW269374   8.686   0.095  11.576 -0.0237  1.2279  1.2258
54087SOL     OW69375   7.050  12.731   6.731 -0.3709 -0.0762 -0.4331
54087SOL    HW169376   7.142  12.711   6.748 -0.4550 -0.7612 -0.7282
54087SOL    HW269377   7.044  12.738   6.636 -0.6482 -0.1605 -0.4226
54088SOL     OW69378   1.342   9.692  11.959 -0.6828 -0.5205  0.1398
54088SOL    HW169379   1.432   9.660  11.953 -0.5980 -0.7126  1.8295
54088SOL    HW269380   1.334   9.756  11.889  0.6380 -0.7986 -0.2956
54089SOL     OW69381   3.258   9.117   0.404 -0.0020 -0.0958 -0.0005
54089SOL    HW169382   3.297   9.059   0.470  2.2047  0.2916 -0.8824
54089SOL    HW269383   3.284   9.205   0.432  0.8397  0.0800 -1.2574
54090SOL     OW69384   6.059   2.008   0.631  0.0545 -0.1744  0.4895
54090SOL    HW169385   5.999   1.990   0.704  1.1833 -1.2305  1.1788
54090SOL    HW269386   6.118   1.933   0.629 -0.4326 -0.5593 -2.0320
54091SOL     OW69387   8.218   8.720   0.747  0.7239  0.1633  0.1930
54091SOL    HW169388   8.181   8.632   0.757  1.9687 -0.1811  2.6692
54091SOL    HW269389   8.143   8.778   0.741 -0.2387 -0.7771  2.1688
54092SOL     OW69390  10.368   3.706   4.942 -0.3303  0.1380  0.4898
54092SOL    HW169391  10.417   3.754   4.876 -0.1003 -1.8690 -0.8934
54092SOL    HW269392  10.284   3.752   4.949  0.6774  1.9986  0.8911
54093SOL     OW69393   0.176   3.337   2.261 -0.0182  0.2927 -0.8984
54093SOL    HW169394   0.145   3.250   2.284 -0.6921  0.7968  0.2058
54093SOL    HW269395   0.267   3.339   2.291 -0.4332  0.4328  0.4179
54094SOL     OW69396   1.514  10.056  11.668 -0.5667 -0.6852  0.2266
54094SOL    HW169397   1.595  10.080  11.713  0.3821 -1.4148 -1.0106
54094SOL    HW269398   1.447  10.114  11.706  0.6417  0.3320  0.8843
54095SOL     OW69399   5.221   9.020  10.883 -0.0314 -0.6991  0.2880
54095SOL    HW169400   5.260   9.066  10.808  1.4276 -0.7008  1.0153
54095SOL    HW269401   5.294   8.973  10.923 -0.5439  0.1553  2.3529
54096SOL     OW69402   3.331   8.346  10.094  0.3501  0.2027 -0.8174
54096SOL    HW169403   3.251   8.303  10.063 -0.5090  2.2775 -1.7194
54096SOL    HW269404   3.369   8.385  10.015  0.3858  2.0975  0.0696
54097SOL     OW69405   4.517   5.725  11.964  0.1525  0.4614  0.4936
54097SOL    HW169406   4.569   5.724  11.883 -0.6331 -0.6167 -0.0198
54097SOL    HW269407   4.478   5.638  11.968 -2.1985  1.4484  0.4949
54098SOL     OW69408  10.790   8.926   2.811 -0.5364  0.3807 -0.1124
54098SOL    HW169409  10.714   8.975   2.779  0.0598  0.1986 -1.8974
54098SOL    HW269410  10.765   8.898   2.899 -2.1717  1.0831 -0.3222
54099SOL     OW69411   0.769   4.193   9.630 -0.2727 -0.1282  0.5295
54099SOL    HW169412   0.684   4.219   9.666 -1.3836 -1.9377 -0.5859
54099SOL    HW269413   0.834   4.226   9.692 -1.6878  2.4457  0.7612
54100SOL     OW69414  12.037   0.495   7.386  0.2100  0.5997  0.1379
54100SOL    HW169415  12.089   0.418   7.409 -0.4520 -0.1532 -0.8343
54100SOL    HW269416  12.093   0.544   7.325 -0.0017  0.0543 -0.5021
54101SOL     OW69417   6.450   5.950  10.742 -0.2056  0.6710 -0.7414
54101SOL    HW169418   6.452   6.018  10.809 -0.6130  0.8168 -0.8690
54101SOL    HW269419   6.507   5.881  10.775  0.9166  1.4407 -1.0085
54102SOL     OW69420   3.136   2.465   1.700  0.0462  0.4717  0.1573
54102SOL    HW169421   3.065   2.516   1.661  1.1649  0.3043 -2.2373
54102SOL    HW269422   3.211   2.524   1.699  0.1325  0.4656  2.1823
54103SOL     OW69423   0.080   5.218   3.477  0.0919 -0.1195 -0.6271
54103SOL    HW169424  -0.003   5.216   3.524 -0.5265  2.8536 -1.4208
54103SOL    HW269425   0.147   5.220   3.545 -0.6387  0.7133  0.0770
54104SOL     OW69426   8.564   9.144  10.733 -0.1130 -0.4326  0.1007
54104SOL    HW169427   8.579   9.132  10.826  1.1086 -0.8255 -0.1290
54104SOL    HW269428   8.636   9.097  10.690 -0.4816 -0.0155 -1.0270
54105SOL     OW69429   8.367  12.502   3.955  0.3794 -0.4607  0.3511
54105SOL    HW169430   8.360  12.409   3.973  0.2026 -0.5951 -0.3637
54105SOL    HW269431   8.460  12.518   3.941  0.1416 -1.3169 -3.2947
54106SOL     OW69432  11.673   0.187   8.117 -0.6904 -0.5823 -0.0031
54106SOL    HW169433  11.700   0.095   8.119  0.0267 -0.3775  1.0573
54106SOL    HW269434  11.597   0.191   8.175  1.2287  0.0047  2.6583
54107SOL     OW69435   2.132   0.776   2.074 -0.0331  0.5178  0.0736
54107SOL    HW169436   2.073   0.804   2.004 -1.6660 -0.8907  0.8276
54107SOL    HW269437   2.186   0.708   2.033  0.1080  0.8177 -0.2424
54108SOL     OW69438  12.847  12.103   3.837  0.2915  0.8460 -0.2103
54108SOL    HW169439  12.939  12.131   3.833  0.3976  0.4727 -0.4759
54108SOL    HW269440  12.849  12.012   3.810  0.2180 -0.0702  2.5763
54109SOL     OW69441   0.875   3.040   1.815  0.4468 -0.1130 -0.1462
54109SOL    HW169442   0.843   3.126   1.842  2.3929  0.4100  0.6782
54109SOL    HW269443   0.848   2.981   1.886 -0.0981 -0.0055 -0.2623
54110SOL     OW69444   5.082   2.052   2.356  0.0759 -0.2159 -0.0337
54110SOL    HW169445   5.001   2.025   2.313 -0.5792  0.7214  0.5737
54110SOL    HW269446   5.106   1.977   2.411 -0.1393 -0.6635 -0.5413
54111SOL     OW69447   2.447   2.481   4.305 -0.0715  0.4000  0.6543
54111SOL    HW169448   2.533   2.438   4.305 -0.5915 -0.6927 -0.4381
54111SOL    HW269449   2.468   2.573   4.289  0.8879  0.1010  0.0449
54112SOL     OW69450  10.152   5.614   5.703 -0.3758 -0.0826 -0.2992
54112SOL    HW169451  10.244   5.589   5.701  0.0284  1.2814  0.2698
54112SOL    HW269452  10.139   5.650   5.791 -0.7843  2.1200 -1.2057
54113SOL     OW69453  12.376   4.771  11.069  0.4636  0.0715 -0.5719
54113SOL    HW169454  12.461   4.813  11.060  0.6107 -0.3066 -0.9724
54113SOL    HW269455  12.359   4.731  10.984 -0.1562  0.2168 -0.5238
54114SOL     OW69456   3.170   3.289  10.510  0.0098 -0.2752 -0.0854
54114SOL    HW169457   3.225   3.337  10.572  0.1331 -0.0545 -0.3603
54114SOL    HW269458   3.090   3.341  10.504  0.4229  0.2949 -0.9208
54115SOL     OW69459  12.341   8.763   7.517  0.2752 -0.0184  0.0149
54115SOL    HW169460  12.392   8.710   7.455 -0.9324  1.1408 -2.0966
54115SOL    HW269461  12.398   8.838   7.536 -0.8948  2.0292 -3.4639
54116SOL     OW69462   6.591   1.037  11.220  0.2168 -0.2644 -0.2512
54116SOL    HW169463   6.626   0.985  11.148 -2.6654 -3.2290  0.2886
54116SOL    HW269464   6.641   1.008  11.296  1.0742  0.5003 -0.5052
54117SOL     OW69465  10.585   7.324  11.342 -0.3469  0.1172  0.3634
54117SOL    HW169466  10.638   7.384  11.289  0.3145 -0.2110  0.6306
54117SOL    HW269467  10.640   7.307  11.419 -0.3924 -1.0705  0.1393
54118SOL     OW69468   2.713   2.897   1.057  0.5393 -0.3327 -0.1088
54118SOL    HW169469   2.775   2.936   1.118 -0.0706  1.0835 -0.3681
54118SOL    HW269470   2.763   2.827   1.015  0.9456 -1.4511  2.0630
54119SOL     OW69471   1.968   9.374   5.708 -0.9126  0.7251 -0.1167
54119SOL    HW169472   1.916   9.299   5.680  0.1555  1.0065 -3.2451
54119SOL    HW269473   1.911   9.450   5.694 -1.2727  0.6778  1.0409
54120SOL     OW69474   9.253   9.024   3.163  0.3110 -0.1550  0.1625
54120SOL    HW169475   9.273   9.110   3.123 -1.2123  0.5634  0.8784
54120SOL    HW269476   9.206   9.046   3.243  0.5251 -1.6769  0.7223
54121SOL     OW69477   2.541  12.832  10.033  0.0749 -0.1426 -0.3492
54121SOL    HW169478   2.496  12.877  10.104  0.2858  1.0675 -0.9516
54121SOL    HW269479   2.471  12.796   9.980 -0.1012 -0.5328  0.1417
54122SOL     OW69480  11.439   2.839   3.340 -0.2852  0.8360  0.5116
54122SOL    HW169481  11.410   2.885   3.419 -0.3417  0.9568  0.4215
54122SOL    HW269482  11.435   2.746   3.363 -1.3576  0.8154  0.2985
54123SOL     OW69483  10.896   2.440  11.534 -0.1142 -0.2458  0.0041
54123SOL    HW169484  10.815   2.490  11.524  1.1863  1.7911 -1.1858
54123SOL    HW269485  10.873   2.370  11.594 -2.8827 -0.0631 -0.6713
54124SOL     OW69486   3.158   1.409  10.725  0.1508  0.6281  0.1912
54124SOL    HW169487   3.103   1.448  10.657  2.0731  0.3173 -1.6639
54124SOL    HW269488   3.130   1.452  10.806 -1.7592  1.5368 -0.8674
54125SOL     OW69489   0.936   5.149   8.799  0.3689  0.2236 -0.4863
54125SOL    HW169490   0.920   5.152   8.894  0.1928  0.5294 -0.5251
54125SOL    HW269491   0.851   5.169   8.760 -0.0783 -1.9138 -0.7344
54126SOL     OW69492   2.066   2.222   5.457  0.3552  0.0520  0.4373
54126SOL    HW169493   2.099   2.178   5.380  1.3715  0.0981  0.8401
54126SOL    HW269494   2.077   2.315   5.438 -0.7549  0.1264  0.0506
54127SOL     OW69495   5.322   1.967  11.501 -0.3462 -0.1381 -0.4010
54127SOL    HW169496   5.251   1.945  11.561 -0.0303  0.9284  0.4141
54127SOL    HW269497   5.361   1.883  11.476 -1.9562 -0.7522 -0.9794
54128SOL     OW69498   4.359   2.432   3.164  0.4119 -0.6586  0.2118
54128SOL    HW169499   4.331   2.494   3.231  0.4278 -1.4553  0.9634
54128SOL    HW269500   4.317   2.350   3.188 -0.8727 -0.6227 -1.6285
54129SOL     OW69501  11.198   6.472   1.072  0.3657  0.7985  0.1734
54129SOL    HW169502  11.164   6.544   1.019 -0.1150 -0.6717 -1.6183
54129SOL    HW269503  11.250   6.419   1.011  0.3045 -0.6427  1.3021
54130SOL     OW69504   6.338   8.439   4.839  0.2819  0.5698 -0.3590
54130SOL    HW169505   6.391   8.380   4.785 -1.8200 -1.1127 -0.7204
54130SOL    HW269506   6.282   8.381   4.890 -0.3325  2.2422  0.9657
54131SOL     OW69507   8.838   5.273   4.052  0.2010  0.2601 -0.4482
54131SOL    HW169508   8.748   5.249   4.028  0.3327  0.6894 -1.3981
54131SOL    HW269509   8.885   5.189   4.055 -0.7765 -0.3340  2.7174
54132SOL     OW69510   8.214   2.850   0.163 -0.2742  0.3421  0.9286
54132SOL    HW169511   8.212   2.787   0.235  0.0015 -1.2082 -0.3598
54132SOL    HW269512   8.305   2.879   0.158 -0.3896  0.8165  1.4856
54133SOL     OW69513   0.891  12.247   4.737 -0.0111  0.3801 -0.2540
54133SOL    HW169514   0.952  12.174   4.730 -1.0471 -0.5054 -0.3621
54133SOL    HW269515   0.808  12.206   4.763 -0.5854  1.5308 -0.2168
54134SOL     OW69516  11.897   6.852   8.087  0.8404  0.4926  0.1322
54134SOL    HW169517  11.857   6.939   8.078  0.0998  0.2961  1.2951
54134SOL    HW269518  11.834   6.793   8.046  0.1042  0.2425  1.5308
54135SOL     OW69519   6.860   5.232   6.516  0.5174  0.0294 -0.6446
54135SOL    HW169520   6.845   5.267   6.604  0.6082  0.5087 -0.8141
54135SOL    HW269521   6.924   5.163   6.529 -0.4080 -0.7572 -0.1729
54136SOL     OW69522   9.821   6.973   2.503 -0.2857 -0.2160  0.4821
54136SOL    HW169523   9.755   6.930   2.557 -0.3369 -1.0523 -0.2099
54136SOL    HW269524   9.893   6.910   2.498  0.7402  0.8278  1.5195
54137SOL     OW69525  12.165   5.381  12.890 -0.4092 -0.3381 -0.3072
54137SOL    HW169526  12.137   5.346  12.805  0.6139 -2.8622  0.3180
54137SOL    HW269527  12.107   5.339  12.954 -0.4266  0.6543  0.3460
54138SOL     OW69528  11.124   7.494   4.327  0.0402 -0.0325 -0.1452
54138SOL    HW169529  11.085   7.574   4.292  0.4242  0.0062 -0.4987
54138SOL    HW269530  11.137   7.513   4.420  1.4574  0.8846 -0.4860
54139SOL     OW69531   1.328   6.196  10.325  0.4470  0.3133 -0.2591
54139SOL    HW169532   1.239   6.205  10.359  0.0938 -2.4603 -0.2135
54139SOL    HW269533   1.364   6.284  10.329 -2.4244  1.6281 -0.7097
54140SOL     OW69534   1.733   4.166  12.281 -0.2486  0.2058 -0.3923
54140SOL    HW169535   1.822   4.146  12.253 -0.3961 -1.0200 -0.0690
54140SOL    HW269536   1.735   4.157  12.377 -0.7653 -0.0310 -0.4013
54141SOL     OW69537  12.929  12.566  12.817 -0.4271  0.2142  0.0829
54141SOL    HW169538  13.025  12.572  12.817 -0.4449  1.0565 -1.2636
54141SOL    HW269539  12.911  12.473  12.801  0.1272 -0.2138  1.7772
54142SOL     OW69540   0.067  12.711   2.330  0.0508 -0.4380  0.0645
54142SOL    HW169541   0.032  12.693   2.418 -0.8010  0.3149 -0.0989
54142SOL    HW269542  -0.004  12.758   2.286  0.7776 -0.0898 -0.7580
54143SOL     OW69543  11.086  11.430   0.466 -0.0438  0.0177  0.1633
54143SOL    HW169544  11.039  11.476   0.536  1.6179  0.5312  1.0012
54143SOL    HW269545  11.108  11.499   0.404 -3.2532 -0.6927 -2.0522
54144SOL     OW69546   6.345  12.306   5.447 -0.3615 -0.1351  0.1007
54144SOL    HW169547   6.344  12.340   5.358 -1.3314  0.1256  0.2045
54144SOL    HW269548   6.256  12.320   5.479  0.1063  0.2309  1.2800
54145SOL     OW69549   0.527   9.102   1.145  0.2080 -0.0346  0.7132
54145SOL    HW169550   0.605   9.131   1.193  1.3297 -0.0347 -1.0143
54145SOL    HW269551   0.562   9.051   1.072 -1.4527 -0.4148  0.1547
54146SOL     OW69552   1.117  12.453   6.901 -0.2332 -0.5681 -0.2836
54146SOL    HW169553   1.028  12.419   6.890 -0.5902 -0.0405  0.7487
54146SOL    HW269554   1.112  12.543   6.869 -0.2427 -0.3454  0.3188
54147SOL     OW69555   6.773  12.609  11.295  0.2562 -0.0918 -0.3887
54147SOL    HW169556   6.756  12.620  11.389 -2.0109  0.2915 -0.7862
54147SOL    HW269557   6.796  12.696  11.263 -0.5048  0.0889 -0.4526
54148SOL     OW69558   0.218   1.634  12.618 -0.2882 -0.2551 -0.2563
54148SOL    HW169559   0.140   1.592  12.653 -0.4811 -0.6093 -1.1020
54148SOL    HW269560   0.277   1.562  12.598  1.2510  0.0639  2.5676
54149SOL     OW69561  11.403   9.071   7.536 -0.0674 -0.0281  0.1091
54149SOL    HW169562  11.443   9.107   7.457 -0.8186 -0.1354 -0.3275
54149SOL    HW269563  11.437   9.125   7.607 -1.1697  1.5670 -0.5298
54150SOL     OW69564   0.277   6.637  12.921  0.2059 -0.1306 -0.2034
54150SOL    HW169565   0.242   6.638  13.010  0.6533  1.9392 -0.0026
54150SOL    HW269566   0.199   6.640  12.865 -0.0902 -1.7361  0.0677
54151SOL     OW69567   9.285   4.401  10.012  0.4830  0.3018  0.2965
54151SOL    HW169568   9.330   4.384  10.095  0.6728  1.2921  0.4121
54151SOL    HW269569   9.319   4.486   9.983 -0.6853  0.6756 -0.0391
54152SOL     OW69570   8.501   9.871   7.034  0.4338 -0.3933 -0.3225
54152SOL    HW169571   8.543   9.802   6.982 -2.2721 -2.3517 -0.1739
54152SOL    HW269572   8.431   9.825   7.081 -1.6030  2.4679 -0.3036
54153SOL     OW69573  10.797   0.060   7.715  0.6002 -0.0312 -0.3229
54153SOL    HW169574  10.729   0.044   7.649  0.3148 -1.4079  0.2892
54153SOL    HW269575  10.757   0.124   7.775  0.8522  1.2144 -1.4226
54154SOL     OW69576  12.554   6.543   3.571  0.4080  0.5399 -0.1268
54154SOL    HW169577  12.468   6.580   3.590  0.4511 -0.3316  2.1653
54154SOL    HW269578  12.549   6.452   3.602  1.4528 -0.2771 -2.1430
54155SOL     OW69579   4.936   0.650   8.533  0.1003 -0.1734 -0.1095
54155SOL    HW169580   4.863   0.695   8.577  0.1329  1.3432 -1.5063
54155SOL    HW269581   5.013   0.701   8.557  0.5606 -1.1246  0.4685
54156SOL     OW69582   0.761   6.495   8.963  0.1591  0.1750 -0.0672
54156SOL    HW169583   0.747   6.407   8.926 -2.6807  1.3321 -2.0821
54156SOL    HW269584   0.675   6.523   8.994  1.5432  1.2343  3.2134
54157SOL     OW69585  12.055   0.256   0.866 -0.0745 -0.5088  0.1278
54157SOL    HW169586  12.057   0.204   0.785 -0.1229  0.4885 -0.5245
54157SOL    HW269587  11.973   0.306   0.860  1.2342  1.6547 -0.5478
54158SOL     OW69588   7.883  11.464   8.192 -0.0228 -0.1717 -0.4213
54158SOL    HW169589   7.868  11.374   8.162  0.8751 -0.3089 -0.4761
54158SOL    HW269590   7.872  11.517   8.114  2.1380 -0.5115 -1.0218
54159SOL     OW69591   5.095   2.008   1.981 -0.1417 -0.2428 -0.1373
54159SOL    HW169592   5.066   2.081   1.926 -1.6342 -1.1338 -0.6019
54159SOL    HW269593   5.175   2.039   2.022 -1.6853  2.4291  1.1498
54160SOL     OW69594   5.385   5.853   0.967 -0.5248  0.0024  0.8820
54160SOL    HW169595   5.474   5.819   0.954 -0.4930 -0.5052  2.2591
54160SOL    HW269596   5.399   5.942   1.000 -0.5967  0.9818 -1.5196
54161SOL     OW69597   5.050  12.624   1.490 -0.1988 -0.1967 -0.5241
54161SOL    HW169598   5.010  12.664   1.413 -0.4018 -0.1472 -0.3937
54161SOL    HW269599   5.014  12.535   1.492  0.1224 -0.3315 -0.7186
54162SOL     OW69600  12.801   1.999  10.719  0.6367  0.6461  0.0037
54162SOL    HW169601  12.752   1.922  10.691  0.6834  0.9558 -0.9443
54162SOL    HW269602  12.890   1.967  10.733  0.4789  0.3669  0.3991
54163SOL     OW69603   6.584   3.193   3.663 -0.2627  0.5983  0.0702
54163SOL    HW169604   6.614   3.118   3.714 -0.9153 -0.3061 -0.8549
54163SOL    HW269605   6.511   3.160   3.612  1.9036  0.7532 -3.4093
54164SOL     OW69606   3.523  10.675   6.163  0.4060 -0.5531 -0.0398
54164SOL    HW169607   3.586  10.699   6.096 -1.3498  0.3831 -1.4524
54164SOL    HW269608   3.486  10.758   6.192 -1.8813 -1.1521 -1.0361
54165SOL     OW69609   2.463   3.789   8.565 -0.3169  0.0073 -0.4820
54165SOL    HW169610   2.471   3.715   8.505  0.6807  0.3312 -0.7677
54165SOL    HW269611   2.520   3.856   8.528  0.0214  0.3477  0.6073
54166SOL     OW69612  10.679   2.914  12.603 -0.9638 -0.0800  0.7865
54166SOL    HW169613  10.618   2.971  12.649 -1.4844  0.7152 -0.7947
54166SOL    HW269614  10.641   2.904  12.515 -0.9616 -3.0073  1.0358
54167SOL     OW69615   9.309  12.633   9.784 -0.2805  0.4255 -0.0494
54167SOL    HW169616   9.338  12.723   9.771 -0.5746  0.8658  1.9163
54167SOL    HW269617   9.363  12.601   9.857 -0.1661 -1.0226 -0.7212
54168SOL     OW69618  12.025   3.157   1.656  0.4475 -0.3084 -0.4957
54168SOL    HW169619  12.086   3.217   1.698  0.7393 -1.0355  0.1534
54168SOL    HW269620  11.982   3.209   1.589  0.8784  0.5498 -0.1205
54169SOL     OW69621   5.597   1.484   9.087 -0.2146  0.1845 -0.5311
54169SOL    HW169622   5.627   1.482   8.996  0.5598  0.9177 -0.3069
54169SOL    HW269623   5.633   1.403   9.126 -2.0869 -1.0863 -1.3066
54170SOL     OW69624   3.613   0.598   9.602  0.4367 -0.6365  0.0963
54170SOL    HW169625   3.536   0.587   9.657  0.6910  2.1492  1.1958
54170SOL    HW269626   3.614   0.692   9.581  3.2132 -0.6774 -0.3462
54171SOL     OW69627   3.322   8.394   9.377 -0.0424  0.2359 -0.1380
54171SOL    HW169628   3.230   8.400   9.352  0.3624 -0.2700 -1.8732
54171SOL    HW269629   3.333   8.302   9.404  0.0684  0.1819 -0.3727
54172SOL     OW69630  11.767  11.829   5.372 -0.1523 -0.3601 -0.3308
54172SOL    HW169631  11.773  11.794   5.461 -0.9263  1.5852  0.5344
54172SOL    HW269632  11.674  11.819   5.349  0.4126 -2.9197 -1.8692
54173SOL     OW69633   9.741   3.681  10.631 -0.2130  0.4056 -0.0150
54173SOL    HW169634   9.801   3.731  10.575  1.5019  1.4211  2.5289
54173SOL    HW269635   9.770   3.591  10.622  0.5934  0.6696 -0.1569
54174SOL     OW69636   7.454  12.740   0.196  0.7773 -0.0748 -0.3591
54174SOL    HW169637   7.495  12.685   0.129  0.9185 -0.3825 -0.0199
54174SOL    HW269638   7.522  12.755   0.261  0.4648 -0.2864  0.0233
54175SOL     OW69639   0.114   0.781   8.984 -0.1287  1.2895  0.1683
54175SOL    HW169640   0.149   0.822   9.062  2.8447  0.3231 -0.5158
54175SOL    HW269641   0.139   0.839   8.912 -0.4728  0.8387 -0.3297
54176SOL     OW69642   7.674  11.157  11.386  0.1095 -0.5200  0.4718
54176SOL    HW169643   7.599  11.101  11.362 -1.0775  1.1176  0.1852
54176SOL    HW269644   7.738  11.141  11.317 -0.9004 -0.2821 -0.5545
54177SOL     OW69645   6.461   7.405  11.759  0.0223  0.1192  0.2615
54177SOL    HW169646   6.443   7.312  11.745  0.9482 -0.0479  0.0992
54177SOL    HW269647   6.556   7.409  11.770  0.0013  1.0636  0.1454
54178SOL     OW69648   4.987   4.139   0.845 -0.0479  0.1236  0.0483
54178SOL    HW169649   5.067   4.092   0.870  0.4762  0.6329 -0.6450
54178SOL    HW269650   4.927   4.070   0.814  0.4394 -0.1676 -0.2564
54179SOL     OW69651   7.075   9.319  11.210  0.1929 -0.0493  0.0081
54179SOL    HW169652   7.003   9.379  11.227 -1.4267 -1.4743 -1.4518
54179SOL    HW269653   7.150   9.357  11.256 -1.4181  1.5895  1.4001
54180SOL     OW69654   5.522   8.858   7.979  0.2221  0.0040  0.5752
54180SOL    HW169655   5.445   8.803   7.969 -1.0135  1.8239 -0.4049
54180SOL    HW269656   5.553   8.873   7.889  2.4332 -1.5830  0.9889
54181SOL     OW69657  11.578  11.971   2.751  0.0373 -0.0245 -0.5885
54181SOL    HW169658  11.550  12.063   2.750 -0.1320 -0.0787 -1.3016
54181SOL    HW269659  11.523  11.930   2.817  0.5807  0.5253  0.2271
54182SOL     OW69660  11.880   2.769   6.542 -0.6724 -0.7306  0.0450
54182SOL    HW169661  11.972   2.743   6.544 -0.9572 -1.9392 -1.0279
54182SOL    HW269662  11.857   2.769   6.449 -1.8513 -0.8104  0.3173
54183SOL     OW69663  11.398   2.209   7.712  0.1418 -0.4350 -0.2930
54183SOL    HW169664  11.339   2.194   7.786  1.3561 -0.4514  0.7002
54183SOL    HW269665  11.435   2.123   7.693  1.0543 -0.1518  0.1543
54184SOL     OW69666   5.572  11.246   4.807  0.2099  0.2986 -0.5936
54184SOL    HW169667   5.635  11.195   4.756 -0.2164 -0.8338 -0.0349
54184SOL    HW269668   5.502  11.184   4.827 -0.0432  0.9444  0.6147
54185SOL     OW69669   3.081  10.689   3.255 -0.2708  0.4827  1.1936
54185SOL    HW169670   3.060  10.751   3.324 -1.5404  1.9361 -0.4143
54185SOL    HW269671   3.010  10.697   3.192  0.8539 -0.7365 -0.3367
54186SOL     OW69672   3.050   9.580   9.642 -0.7048 -0.0766 -0.2436
54186SOL    HW169673   3.046   9.667   9.602 -2.1380  0.0041  0.0216
54186SOL    HW269674   3.111   9.531   9.587 -1.4861  0.4782 -1.6507
54187SOL     OW69675   1.087  11.252   9.885  0.1844  0.1213  0.5890
54187SOL    HW169676   1.020  11.187   9.908 -0.2649 -0.0104 -0.9665
54187SOL    HW269677   1.142  11.207   9.820 -0.9473  1.6932 -1.5500
54188SOL     OW69678   5.164   8.776   0.080  0.1913 -0.3848  0.2035
54188SOL    HW169679   5.168   8.689   0.120  0.8474 -0.5304 -0.1624
54188SOL    HW269680   5.195   8.836   0.148  0.3279 -0.5116  0.2533
54189SOL     OW69681   2.677   3.213   2.480  1.2133 -0.2769  0.2137
54189SOL    HW169682   2.733   3.270   2.532  2.0740 -0.4861 -0.4639
54189SOL    HW269683   2.713   3.219   2.391  0.2759 -0.5622 -0.1948
54190SOL     OW69684   2.802   1.940   3.679 -0.3159  0.3930  0.4251
54190SOL    HW169685   2.752   1.956   3.599 -1.7393 -0.9589  0.9907
54190SOL    HW269686   2.745   1.972   3.749  0.3200  0.2935  0.9948
54191SOL     OW69687   1.435   5.638  12.229  0.7169 -0.2959 -0.6578
54191SOL    HW169688   1.359   5.670  12.277  0.5500 -1.2033 -0.2988
54191SOL    HW269689   1.496   5.712  12.228  0.9502 -0.3942  1.4312
54192SOL     OW69690   7.342  12.795   1.601  0.5502 -0.0370 -0.2202
54192SOL    HW169691   7.394  12.844   1.537 -0.3373  0.5286 -0.5264
54192SOL    HW269692   7.376  12.824   1.686 -0.1037  1.3058 -0.3868
54193SOL     OW69693   7.857   2.098   6.598  0.0580  0.1749 -0.5935
54193SOL    HW169694   7.943   2.096   6.641 -0.5724 -1.2873  0.6972
54193SOL    HW269695   7.804   2.157   6.652 -0.9605 -2.2548  1.2280
54194SOL     OW69696   8.388   7.517   5.360  0.3658 -0.2053 -0.0822
54194SOL    HW169697   8.336   7.507   5.281 -1.3130  1.2698  0.7645
54194SOL    HW269698   8.479   7.515   5.330 -0.1776 -1.7369 -1.7439
54195SOL     OW69699   3.136   2.553   7.246 -0.2100  0.3631 -0.5165
54195SOL    HW169700   3.096   2.635   7.274 -0.1211  0.4439 -0.6226
54195SOL    HW269701   3.071   2.513   7.187 -0.3077  0.2950 -0.3618
54196SOL     OW69702   2.442   4.661  12.953 -0.3162  0.1174  0.4782
54196SOL    HW169703   2.475   4.572  12.967  0.4381  0.2435 -0.4097
54196SOL    HW269704   2.436   4.698  13.041 -0.2709 -0.6788  0.8278
54197SOL     OW69705   4.078   2.232   5.409  0.0081 -0.0780  0.6476
54197SOL    HW169706   3.989   2.214   5.438 -0.2205 -0.9718 -0.5441
54197SOL    HW269707   4.080   2.202   5.318  1.7990 -1.0033  0.9558
54198SOL     OW69708   1.636   3.017   5.105  0.0888 -0.6959  0.0050
54198SOL    HW169709   1.670   3.088   5.051 -0.2157 -0.1491  0.5155
54198SOL    HW269710   1.714   2.974   5.140  0.3180  1.0230  1.7859
54199SOL     OW69711   0.596   1.279  10.360 -0.5592  0.0642 -0.6736
54199SOL    HW169712   0.620   1.188  10.377 -0.3345  0.0857 -0.8797
54199SOL    HW269713   0.536   1.301  10.432 -0.2589 -0.1026 -0.3693
54200SOL     OW69714   0.284   9.135   0.711 -0.2647  0.3805  0.1751
54200SOL    HW169715   0.343   9.209   0.724 -0.7729  0.9361 -0.5763
54200SOL    HW269716   0.196   9.173   0.719 -0.5328 -0.0975 -0.4596
54201SOL     OW69717   4.468   4.673   8.368 -0.2052  0.4834  0.1759
54201SOL    HW169718   4.516   4.593   8.347 -1.5007 -0.6932  1.4436
54201SOL    HW269719   4.451   4.714   8.283 -0.2302 -1.0290 -0.5881
54202SOL     OW69720  11.487  10.761   3.251 -0.3838  0.3458  0.3906
54202SOL    HW169721  11.464  10.731   3.339 -0.0591  2.0208  1.0893
54202SOL    HW269722  11.459  10.852   3.249  0.6254  0.6511 -0.8643
54203SOL     OW69723   7.334   5.896   6.263  0.0521  0.8289  0.1627
54203SOL    HW169724   7.403   5.912   6.198  1.4476  2.0119  1.8454
54203SOL    HW269725   7.345   5.803   6.286  1.1927  1.0146  0.4674
54204SOL     OW69726  10.418  11.308   1.147 -0.1034  0.9057  0.0189
54204SOL    HW169727  10.458  11.377   1.201  0.2421  0.6234  0.1297
54204SOL    HW269728  10.483  11.290   1.079  0.1808  0.1062  0.4820
54205SOL     OW69729   2.969   2.243   5.381 -0.3202 -0.0507  0.2832
54205SOL    HW169730   3.047   2.292   5.408  0.0586 -1.0068  0.9506
54205SOL    HW269731   2.906   2.311   5.357 -0.1483  0.8266  2.1381
54206SOL     OW69732   5.412   0.593  11.477 -0.0445 -0.0916  0.5775
54206SOL    HW169733   5.458   0.676  11.474  1.0355 -0.4829  3.2350
54206SOL    HW269734   5.463   0.535  11.420  0.1004  0.6441 -0.0517
54207SOL     OW69735   7.523   6.236   4.281 -0.2994 -0.2933 -0.2307
54207SOL    HW169736   7.507   6.324   4.315 -0.4788 -0.8647  1.2460
54207SOL    HW269737   7.467   6.180   4.335  1.3130 -1.5328  0.2049
54208SOL     OW69738   0.937  11.786  10.559  0.1909 -0.2106 -0.1255
54208SOL    HW169739   1.024  11.785  10.520  0.1223  1.3929 -0.3593
54208SOL    HW269740   0.953  11.774  10.653  0.5052 -1.7355 -0.3371
54209SOL     OW69741   4.096   3.220   3.383 -0.0138 -0.2279 -0.1139
54209SOL    HW169742   4.005   3.236   3.409  0.0719 -0.9629  0.6919
54209SOL    HW269743   4.096   3.227   3.288 -0.8356  0.1398 -0.0939
54210SOL     OW69744  11.190   1.750   2.241 -0.4780  0.2206 -1.3799
54210SOL    HW169745  11.194   1.768   2.335 -3.0953 -0.4083 -1.0830
54210SOL    HW269746  11.252   1.678   2.228 -1.5882 -1.1069  0.2929
54211SOL     OW69747   7.709   7.503   0.176  0.6088 -0.7002 -0.4010
54211SOL    HW169748   7.787   7.449   0.190  1.2021  0.0406 -0.7253
54211SOL    HW269749   7.658   7.455   0.111  0.9169 -1.0779 -0.3701
54212SOL     OW69750  10.657   4.641   5.076  0.6002  0.2348  0.0837
54212SOL    HW169751  10.746   4.672   5.062  0.9430  0.2868  2.0847
54212SOL    HW269752  10.605   4.720   5.090  0.5988  0.1431  0.6481
54213SOL     OW69753   5.522   9.838   9.570 -0.1003  0.2685  0.2723
54213SOL    HW169754   5.541   9.931   9.580 -1.1463  0.5700 -0.3849
54213SOL    HW269755   5.435   9.835   9.531  0.1102 -0.9831 -0.1571
54214SOL     OW69756   8.111  10.597   6.107  0.2867 -0.6287  0.2783
54214SOL    HW169757   8.096  10.513   6.063  1.0025 -0.3891 -0.4570
54214SOL    HW269758   8.194  10.629   6.070 -1.5905  2.0367 -2.1606
54215SOL     OW69759   7.817   9.602   3.552  0.0051  0.3997  0.6950
54215SOL    HW169760   7.841   9.536   3.487 -2.6859 -0.1999  0.1869
54215SOL    HW269761   7.900   9.633   3.587  1.4223 -1.6490 -0.6553
54216SOL     OW69762   6.034  10.635   2.387 -0.7512  0.0990  0.8080
54216SOL    HW169763   5.956  10.674   2.425 -1.2841  0.1604 -0.3115
54216SOL    HW269764   6.057  10.694   2.315  0.1592 -0.0867  0.9323
54217SOL     OW69765   4.456   4.899   8.974 -0.0439 -0.4044  0.4279
54217SOL    HW169766   4.434   4.911   9.066  0.5995 -1.9827  0.8151
54217SOL    HW269767   4.378   4.858   8.936  0.3364 -1.3698  0.6741
54218SOL     OW69768  10.002   9.377  11.875  0.3379  0.3063  0.1224
54218SOL    HW169769   9.934   9.387  11.809 -0.7348  1.2056  1.3055
54218SOL    HW269770  10.057   9.305  11.843  0.9669  1.9031 -2.6276
54219SOL     OW69771   2.166   1.545   2.829 -0.4474  0.2144  0.3878
54219SOL    HW169772   2.133   1.624   2.873  1.2679  0.8212  0.6552
54219SOL    HW269773   2.218   1.500   2.896  0.0729 -0.1966 -0.2784
54220SOL     OW69774   8.631   0.873   0.741 -0.4336  0.6162  0.1227
54220SOL    HW169775   8.686   0.930   0.688 -0.7454  0.7990 -0.0063
54220SOL    HW269776   8.593   0.930   0.807  0.1401  0.3447  0.6991
54221SOL     OW69777   9.476  10.848  10.556  1.1840  0.6050 -0.7971
54221SOL    HW169778   9.456  10.917  10.619  1.6319  1.6171 -1.7269
54221SOL    HW269779   9.473  10.767  10.607 -1.2482  1.0786 -0.0551
54222SOL     OW69780  11.398   6.409  12.783 -0.2202 -0.0798  0.3908
54222SOL    HW169781  11.411   6.494  12.741  1.3040  0.2099  1.3595
54222SOL    HW269782  11.305   6.392  12.775 -0.3252  0.9956 -1.1048
54223SOL     OW69783   7.964   4.592  11.224  0.0170  0.1293 -0.0416
54223SOL    HW169784   7.973   4.583  11.129  0.4236  0.7474 -0.0718
54223SOL    HW269785   8.051   4.620  11.253 -0.7155  2.3081  0.2078
54224SOL     OW69786   7.708   8.313   6.049 -0.3467 -0.2552  0.2470
54224SOL    HW169787   7.726   8.239   5.992  0.1491 -0.3184  0.4804
54224SOL    HW269788   7.621   8.296   6.084 -1.0893  0.2934 -1.2737
54225SOL     OW69789  12.966   7.631   6.369 -0.2848 -0.1100 -0.4302
54225SOL    HW169790  12.913   7.659   6.443 -0.4952  0.6402 -0.8563
54225SOL    HW269791  12.933   7.544   6.347 -1.9324  0.6729 -1.2122
54226SOL     OW69792   9.087   2.491   6.393 -0.2012  0.2915 -0.3214
54226SOL    HW169793   9.066   2.501   6.486 -1.0239  2.1636 -0.6580
54226SOL    HW269794   9.018   2.434   6.359  0.2809 -0.6599  0.2501
54227SOL     OW69795   0.896   2.513  12.631  0.1874 -0.4232 -0.1486
54227SOL    HW169796   0.858   2.457  12.563 -1.1560  0.6310 -0.2939
54227SOL    HW269797   0.970   2.462  12.664 -0.9077 -2.2476 -0.3452
54228SOL     OW69798  11.337  12.335  11.615  0.0089 -0.4803 -0.2278
54228SOL    HW169799  11.366  12.410  11.667  1.4168 -0.3476 -1.1461
54228SOL    HW269800  11.403  12.326  11.546 -1.2633 -1.2631 -1.4087
54229SOL     OW69801  10.085   1.719   5.807  0.6355  0.2675  0.1397
54229SOL    HW169802  10.152   1.780   5.836 -0.0779  1.8812 -1.4215
54229SOL    HW269803  10.090   1.721   5.711 -0.2972 -1.1311  0.0324
54230SOL     OW69804   9.296   1.733  10.553 -0.0301 -0.3246  0.8952
54230SOL    HW169805   9.241   1.670  10.506 -1.0916  0.2028  1.3918
54230SOL    HW269806   9.356   1.766  10.487 -3.3252  2.5464 -0.9890
54231SOL     OW69807   1.430   9.331   5.367  0.0324 -0.1630  0.1062
54231SOL    HW169808   1.340   9.325   5.399  0.4543  0.3289  1.4383
54231SOL    HW269809   1.422   9.333   5.271 -1.4045  0.5329  0.2266
54232SOL     OW69810  12.408   2.646   1.614  0.2079  0.7905 -0.6581
54232SOL    HW169811  12.358   2.565   1.615  0.0388  0.8937 -0.7399
54232SOL    HW269812  12.496   2.619   1.588  0.0434  0.6946 -1.1220
54233SOL     OW69813   9.811   5.611  11.417 -0.2007 -0.2851  0.5992
54233SOL    HW169814   9.897   5.637  11.385  0.3904 -1.4864  1.1581
54233SOL    HW269815   9.766   5.693  11.436  1.9493  0.4138  3.2633
54234SOL     OW69816   1.672   3.170   5.850 -0.3527  0.5086 -0.1619
54234SOL    HW169817   1.595   3.123   5.882  0.7866 -1.2206  0.1756
54234SOL    HW269818   1.690   3.130   5.765  0.7689  0.1218  0.2357
54235SOL     OW69819   1.877   2.793   6.520 -0.2757  0.1343  0.2283
54235SOL    HW169820   1.820   2.763   6.450 -0.6668  1.7447 -0.1928
54235SOL    HW269821   1.932   2.718   6.541 -0.0276 -0.3360 -1.9264
54236SOL     OW69822   7.114  10.973  11.522 -0.3158 -0.0783  0.9219
54236SOL    HW169823   7.129  11.064  11.544  0.0368 -0.5969  3.0054
54236SOL    HW269824   7.130  10.925  11.603  1.0462 -2.1679 -0.4721
54237SOL     OW69825   3.147   6.692   7.858  0.0409  0.0294 -0.6689
54237SOL    HW169826   3.186   6.605   7.853 -1.1887 -0.5547 -0.5837
54237SOL    HW269827   3.117   6.700   7.949 -0.9693  0.0157 -0.9828
54238SOL     OW69828   3.766   8.955  11.845  0.2602 -0.7850 -0.3151
54238SOL    HW169829   3.761   9.033  11.789  0.4462 -1.1198 -0.8017
54238SOL    HW269830   3.674   8.930  11.860  0.1875 -0.2557  0.1552
54239SOL     OW69831   5.017  10.075   8.708  0.1770 -0.2522  0.3957
54239SOL    HW169832   4.986  10.009   8.646 -0.6395 -0.2320  0.7724
54239SOL    HW269833   5.041  10.024   8.786  0.9509 -0.2503  0.1696
54240SOL     OW69834  12.085   9.299  10.409 -0.1825  0.5746 -0.2779
54240SOL    HW169835  12.138   9.278  10.332 -1.1264  2.2266 -1.4385
54240SOL    HW269836  12.137   9.363  10.457 -0.7050  1.4929 -0.9238
54241SOL     OW69837  12.696   6.134   3.467  0.3442  0.5990 -0.0682
54241SOL    HW169838  12.661   6.069   3.528  0.6310  0.0510 -0.4796
54241SOL    HW269839  12.755   6.188   3.519 -0.7470  1.2589  0.5370
54242SOL     OW69840   4.447  10.703  12.330  0.2111 -0.1964 -0.0825
54242SOL    HW169841   4.400  10.623  12.353 -0.4643  0.3239  0.4196
54242SOL    HW269842   4.409  10.770  12.388  1.0114  0.4088 -0.2417
54243SOL     OW69843   8.027   8.133   7.265 -0.0086  0.4786  0.5366
54243SOL    HW169844   8.102   8.074   7.277 -1.4390 -1.2177  1.6710
54243SOL    HW269845   8.010   8.132   7.171  0.0487 -0.9041  0.5215
54244SOL     OW69846   0.738   9.652   2.937 -0.6978 -0.2320  0.3005
54244SOL    HW169847   0.784   9.735   2.923  0.7477 -1.0234  0.2478
54244SOL    HW269848   0.747   9.604   2.855 -2.0737 -0.2189  0.1125
54245SOL     OW69849   5.120   9.861  10.271  0.0351  0.0213  0.0657
54245SOL    HW169850   5.081   9.838  10.186 -0.3449 -0.0123  0.2487
54245SOL    HW269851   5.155   9.778  10.304 -0.2503 -0.0610  0.1654
54246SOL     OW69852   0.597  11.099   9.624  0.0132  0.1763 -0.3985
54246SOL    HW169853   0.661  11.037   9.658 -0.0227  0.8130  0.9020
54246SOL    HW269854   0.643  11.145   9.554  0.3321 -0.7042 -0.7719
54247SOL     OW69855  10.730   0.378  11.577 -0.2369  0.1443  0.4249
54247SOL    HW169856  10.668   0.422  11.519  0.9131 -1.4008 -2.2171
54247SOL    HW269857  10.676   0.337  11.644 -1.9677  0.0421 -0.9520
54248SOL     OW69858   9.542  10.166  11.364 -0.0998  0.2193  0.1879
54248SOL    HW169859   9.610  10.100  11.349  0.5658  0.8773  0.1936
54248SOL    HW269860   9.533  10.211  11.280  1.3188  1.7962  0.8025
54249SOL     OW69861  10.172   1.609   8.273 -0.2630 -0.4443 -0.3452
54249SOL    HW169862  10.213   1.542   8.327  0.6496  0.1225 -0.3079
54249SOL    HW269863  10.119   1.660   8.334  0.6303  0.0890  0.0002
54250SOL     OW69864   1.461   9.781  11.638  0.4428  0.4367  0.1195
54250SOL    HW169865   1.535   9.774  11.698  0.4415 -0.7326 -0.0024
54250SOL    HW269866   1.449   9.876  11.626  2.0055  0.6575  0.0444
54251SOL     OW69867   5.616   5.353   7.374 -0.2662  0.3463 -0.3403
54251SOL    HW169868   5.626   5.258   7.383 -1.1110  0.2970  0.1410
54251SOL    HW269869   5.698   5.381   7.333 -0.5505 -0.7497 -1.7164
54252SOL     OW69870   9.255   2.621   1.041  0.3966 -0.2582  0.2171
54252SOL    HW169871   9.210   2.658   1.117 -0.3949 -0.1630 -0.2958
54252SOL    HW269872   9.342   2.660   1.044  0.0476  0.5062  0.5125
54253SOL     OW69873   6.553  12.492   5.523  0.1069 -0.2948 -0.3460
54253SOL    HW169874   6.495  12.566   5.507 -0.8926 -0.9420  0.1818
54253SOL    HW269875   6.500  12.415   5.506  1.2678 -0.9130 -1.3330
54254SOL     OW69876   7.883  12.599  11.271  0.4135 -0.0682  0.2540
54254SOL    HW169877   7.804  12.613  11.218  1.5328 -2.1791 -2.2087
54254SOL    HW269878   7.854  12.543  11.343 -0.6342  0.5449  0.3333
54255SOL     OW69879   8.219  10.421   5.357 -0.2255  0.1862 -0.6084
54255SOL    HW169880   8.229  10.446   5.265  0.7965  0.9476 -0.3079
54255SOL    HW269881   8.199  10.327   5.354  1.4918 -0.2011 -1.5677
54256SOL     OW69882   7.079  12.778   0.830 -0.3547 -0.5372  0.3887
54256SOL    HW169883   7.057  12.786   0.923 -1.1674 -1.3524  0.2764
54256SOL    HW269884   7.099  12.685   0.819  0.4853 -0.3058 -0.0999
54257SOL     OW69885   2.199  12.127  11.329 -0.1509 -0.3625 -0.2904
54257SOL    HW169886   2.173  12.170  11.411  2.3010 -0.4936  0.6512
54257SOL    HW269887   2.179  12.035  11.342 -0.3043 -0.2963 -0.0649
54258SOL     OW69888   0.545   4.849   3.269 -0.6939 -0.2958  0.4297
54258SOL    HW169889   0.508   4.822   3.353 -0.2581  0.6595  0.9481
54258SOL    HW269890   0.625   4.797   3.260 -0.7064 -0.3521  0.6437
54259SOL     OW69891   2.859   5.236  11.412  0.5301  0.0935  0.1936
54259SOL    HW169892   2.853   5.207  11.502 -0.1127  2.8764  1.1565
54259SOL    HW269893   2.769   5.238  11.380  0.8073 -1.5193 -0.7837
54260SOL     OW69894   0.804   6.453   0.414  0.3208 -0.1255 -0.3916
54260SOL    HW169895   0.859   6.400   0.471  0.0695  0.8036  0.7654
54260SOL    HW269896   0.838   6.439   0.326  1.5681 -0.5724  0.1515
54261SOL     OW69897   8.343  11.736   1.293  0.0424  0.2734 -0.2090
54261SOL    HW169898   8.267  11.680   1.278  1.5283 -1.1039 -3.7127
54261SOL    HW269899   8.416  11.675   1.308  1.1588  1.3131 -1.1194
54262SOL     OW69900   4.612   3.905   7.829 -0.3914 -0.5421  0.1810
54262SOL    HW169901   4.672   3.970   7.793 -0.8641 -0.0585  0.2631
54262SOL    HW269902   4.611   3.835   7.764  0.4418 -0.6637  0.2918
54263SOL     OW69903   8.376   0.387   2.296  0.2064 -0.3721 -0.3698
54263SOL    HW169904   8.371   0.370   2.201  1.2366 -0.3917 -0.4330
54263SOL    HW269905   8.359   0.301   2.336 -1.2183 -0.1704 -0.4928
54264SOL     OW69906   3.950   2.634   7.562 -0.5501  0.5602 -0.3783
54264SOL    HW169907   3.913   2.720   7.541 -1.7968  0.2520  0.4178
54264SOL    HW269908   4.028   2.653   7.614 -0.0150  1.2192 -1.3893
54265SOL     OW69909   4.399   0.616   6.884 -0.0765 -0.1564  0.9962
54265SOL    HW169910   4.319   0.664   6.904  0.6990  1.8792 -0.4743
54265SOL    HW269911   4.413   0.630   6.790  1.3814 -1.4591  0.9732
54266SOL     OW69912  11.160  10.884   3.645 -0.5510  0.2112 -0.0255
54266SOL    HW169913  11.242  10.932   3.653 -1.1735  1.2115  0.6207
54266SOL    HW269914  11.161  10.849   3.556  1.8388 -2.2254  0.8520
54267SOL     OW69915   9.883   7.224   3.934 -0.1907 -0.2866  0.0043
54267SOL    HW169916   9.960   7.274   3.963 -0.7392  1.1626 -0.9341
54267SOL    HW269917   9.917   7.163   3.868  0.3278 -0.4606  0.4258
54268SOL     OW69918   3.923   3.374   5.350 -0.2893 -0.2282  0.1839
54268SOL    HW169919   3.891   3.461   5.375  0.8722 -0.0517  1.1960
54268SOL    HW269920   3.886   3.358   5.263  0.2980  1.7314 -0.4679
54269SOL     OW69921   6.562   3.401  12.107 -0.0602  0.9357  0.3724
54269SOL    HW169922   6.602   3.480  12.142  1.0454 -0.2559  1.9465
54269SOL    HW269923   6.562   3.339  12.180 -0.9481 -0.5112 -0.7812
54270SOL     OW69924   8.482   9.933   0.961 -0.1138  0.6914 -0.1807
54270SOL    HW169925   8.461   9.895   0.876  0.3164  0.8069 -0.3407
54270SOL    HW269926   8.405   9.915   1.015  1.0010 -2.6493  0.5155
54271SOL     OW69927   8.836  10.430  11.107 -0.2951 -0.2275 -0.1088
54271SOL    HW169928   8.859  10.523  11.114  2.0903 -0.5066 -2.4384
54271SOL    HW269929   8.873  10.390  11.185  0.8767  0.4550 -0.2897
54272SOL     OW69930   7.569   9.559   2.178  0.3730  0.1572 -0.4584
54272SOL    HW169931   7.508   9.628   2.152  0.1306 -0.8818 -2.8783
54272SOL    HW269932   7.644   9.606   2.215 -0.1427  1.6739 -1.2474
54273SOL     OW69933   0.550   4.396   8.817 -0.5185  0.3495 -0.5699
54273SOL    HW169934   0.465   4.427   8.785 -0.7033 -0.2903 -0.7038
54273SOL    HW269935   0.587   4.348   8.743 -0.8732 -1.0067  0.1137
54274SOL     OW69936   6.289   6.430  12.947 -0.4888 -0.2444  0.1643
54274SOL    HW169937   6.364   6.372  12.962 -1.8172 -1.4160  3.0867
54274SOL    HW269938   6.301   6.462  12.858  2.7458 -1.4206  0.0435
54275SOL     OW69939   2.770   1.629   6.709  0.1929 -0.0839  0.1660
54275SOL    HW169940   2.860   1.601   6.693 -0.1285  0.5780 -3.9102
54275SOL    HW269941   2.768   1.720   6.680 -1.4834  0.4409  1.7258
54276SOL     OW69942   7.601   3.808  12.573  0.1748  0.2025 -0.1518
54276SOL    HW169943   7.548   3.742  12.618  0.8005  0.8805  1.6677
54276SOL    HW269944   7.550   3.830  12.495 -1.8324  0.2371  1.0966
54277SOL     OW69945   8.787  10.611   3.524  0.4216  0.3028  0.2493
54277SOL    HW169946   8.788  10.615   3.619  2.1059  1.7050  0.2321
54277SOL    HW269947   8.875  10.578   3.501  0.2547  0.5656 -0.8245
54278SOL     OW69948   1.724   1.914  12.484  0.2641  0.2221  0.2605
54278SOL    HW169949   1.631   1.895  12.470 -0.2662  0.5799  2.7571
54278SOL    HW269950   1.736   2.003  12.451 -0.2278  0.0960 -0.2703
54279SOL     OW69951   6.314   1.652   6.762  0.2195  0.0140 -0.0963
54279SOL    HW169952   6.353   1.565   6.751  0.0169 -0.0621 -0.2199
54279SOL    HW269953   6.257   1.643   6.839 -1.5703 -0.6031 -1.4296
54280SOL     OW69954   3.903  11.119   9.278 -0.3395  0.0137 -0.0908
54280SOL    HW169955   3.828  11.139   9.221 -2.2108 -0.8802  1.8924
54280SOL    HW269956   3.972  11.179   9.249 -1.4904  0.2433 -2.6103
54281SOL     OW69957   4.057   0.792  11.349 -0.1392 -0.6406  0.0781
54281SOL    HW169958   4.047   0.887  11.339  1.6608 -0.4619 -0.5001
54281SOL    HW269959   4.105   0.782  11.431  1.6076 -0.8618 -0.9234
54282SOL     OW69960   9.524   0.448   7.928 -0.4710 -0.4791 -0.2516
54282SOL    HW169961   9.504   0.473   8.018 -1.2560  0.8929 -0.7755
54282SOL    HW269962   9.485   0.361   7.917  1.4683 -1.6271  1.3391
54283SOL     OW69963   3.663   5.629  11.527 -0.2520 -0.0286  0.8050
54283SOL    HW169964   3.682   5.590  11.442  0.0638  1.9648 -0.0833
54283SOL    HW269965   3.573   5.601  11.547 -0.5478 -0.0242 -0.4686
54284SOL     OW69966   7.161   7.180   7.044 -0.0522  0.4750  0.1783
54284SOL    HW169967   7.179   7.105   7.101 -0.7631 -0.0355 -0.2470
54284SOL    HW269968   7.232   7.180   6.981  0.1561  0.3885  0.4118
54285SOL     OW69969   9.591   2.302   6.165  0.0589  0.0172 -0.0310
54285SOL    HW169970   9.581   2.397   6.157 -0.1295 -0.0271 -0.3528
54285SOL    HW269971   9.526   2.266   6.105 -0.0675 -0.3209  0.3027
54286SOL     OW69972  10.042   2.496   0.701 -0.3089  0.6150 -0.3794
54286SOL    HW169973   9.994   2.423   0.662  1.5347  0.1073 -1.8374
54286SOL    HW269974  10.086   2.457   0.777  1.1517 -0.0124 -1.4943
54287SOL     OW69975   3.886   5.869  12.459 -0.4776 -0.6715 -0.5070
54287SOL    HW169976   3.930   5.829  12.534  0.1174  1.3209  0.2914
54287SOL    HW269977   3.819   5.806  12.434  0.8390 -2.4347  0.1955
54288SOL     OW69978  11.443   1.270   9.814  0.7315  0.0759  0.4657
54288SOL    HW169979  11.455   1.288   9.907 -0.6799 -0.3714  0.7697
54288SOL    HW269980  11.519   1.217   9.789  1.6755  1.1028  1.0859
54289SOL     OW69981   0.140   5.121   5.572  0.0760  0.4176 -0.1564
54289SOL    HW169982   0.099   5.200   5.536  2.0951  0.4993 -2.5421
54289SOL    HW269983   0.171   5.073   5.495  0.1430 -2.0472  1.3044
54290SOL     OW69984   6.129   8.254  12.326  0.1328 -0.8315 -0.2714
54290SOL    HW169985   6.205   8.305  12.298  0.1680 -1.8796 -2.2426
54290SOL    HW269986   6.165   8.188  12.386  0.6072 -0.6485 -0.3530
54291SOL     OW69987   1.646   0.543   7.428  0.1726  0.3639  0.6639
54291SOL    HW169988   1.658   0.609   7.360  2.3148 -0.0453  0.5740
54291SOL    HW269989   1.734   0.524   7.459 -0.2341 -3.0001  0.1903
54292SOL     OW69990  12.597   7.055   4.525 -0.3250 -1.1743 -0.3535
54292SOL    HW169991  12.631   6.971   4.554  0.1868 -0.6008  0.7512
54292SOL    HW269992  12.674   7.110   4.514 -0.7483 -0.3281  0.6891
54293SOL     OW69993   1.910   4.096   6.516 -0.0618 -0.4201  0.5377
54293SOL    HW169994   1.952   4.136   6.440 -0.4133 -0.9693  0.0498
54293SOL    HW269995   1.914   4.002   6.499 -1.5663 -0.4853  0.4329
54294SOL     OW69996   7.582   8.343  12.303  0.3140  0.1316  0.4380
54294SOL    HW169997   7.592   8.258  12.346  1.0232  0.2238  0.4569
54294SOL    HW269998   7.661   8.353  12.251 -1.1207 -0.6110 -2.0567
54295SOL     OW69999  12.135  11.750  10.667 -0.4976  0.1040 -0.4476
54295SOL    HW170000  12.054  11.794  10.693 -0.1084 -0.1807  1.4185
54295SOL    HW270001  12.158  11.696  10.743  0.2371 -1.5797 -1.8033
54296SOL     OW70002   3.668  11.645   0.491 -0.3088  0.0602 -0.3865
54296SOL    HW170003   3.587  11.613   0.450  0.3723  0.4251 -2.0827
54296SOL    HW270004   3.738  11.611   0.436  0.6654  0.5058  0.5433
54297SOL     OW70005   2.310   5.042   3.526  0.2379 -0.3430 -0.3428
54297SOL    HW170006   2.267   5.115   3.570 -1.0416 -1.1348 -0.2282
54297SOL    HW270007   2.404   5.064   3.529 -0.0603  0.9257  0.3260
54298SOL     OW70008   4.130   9.545   8.280 -0.3856 -0.1616  0.1485
54298SOL    HW170009   4.085   9.490   8.216 -2.0894  1.2120  0.1058
54298SOL    HW270010   4.097   9.515   8.365 -1.7998  1.0978  0.1004
54299SOL     OW70011   1.033   3.967   9.266  0.6389  0.1925  0.1051
54299SOL    HW170012   1.060   4.033   9.330  0.9406  0.7687 -0.6024
54299SOL    HW270013   1.026   4.015   9.183  1.1054 -0.7158 -0.4722
54300SOL     OW70014  12.931  11.490   9.428  0.2751 -0.0255  0.6507
54300SOL    HW170015  12.900  11.575   9.459  0.1177 -0.4417  1.6633
54300SOL    HW270016  12.881  11.474   9.348  1.2796  1.4492 -0.3266
54301SOL     OW70017   3.200   5.906   7.210  0.2356  0.1781 -0.2736
54301SOL    HW170018   3.192   5.836   7.144 -1.4636  1.3651 -1.4084
54301SOL    HW270019   3.110   5.937   7.222  0.7503  1.0802  1.4388
54302SOL     OW70020   0.651  11.889   4.203  0.3468 -0.3032 -0.0639
54302SOL    HW170021   0.629  11.796   4.199  0.8345 -0.3689 -2.3029
54302SOL    HW270022   0.590  11.931   4.142  1.0268  0.6472 -0.1095
54303SOL     OW70023  12.716   3.980   6.796  0.2867  0.2524  0.3101
54303SOL    HW170024  12.759   3.897   6.815 -1.2899 -0.5523  0.5477
54303SOL    HW270025  12.785   4.046   6.806  1.3747 -0.9364  0.9315
54304SOL     OW70026   6.419   4.611  10.220  0.5428  0.0204 -0.2277
54304SOL    HW170027   6.479   4.682  10.194 -0.1068  1.0575  0.9877
54304SOL    HW270028   6.418   4.614  10.316 -0.3514 -0.9159 -0.1915
54305SOL     OW70029   8.687   0.641   6.631 -0.1988  0.7828 -0.1023
54305SOL    HW170030   8.643   0.686   6.703  0.7861  3.5807 -1.1176
54305SOL    HW270031   8.651   0.680   6.552  1.0051  0.0620 -1.0418
54306SOL     OW70032   1.059   7.837  10.431 -0.1561  0.1335  0.0653
54306SOL    HW170033   1.129   7.772  10.426 -0.2734 -0.1465  1.5391
54306SOL    HW270034   1.051   7.871  10.342  0.1542 -1.6172 -0.6816
54307SOL     OW70035   2.240   7.693   9.275  0.0333  0.6601 -0.2038
54307SOL    HW170036   2.229   7.608   9.233 -0.2429  0.2117  0.7488
54307SOL    HW270037   2.332   7.715   9.262  0.5471 -0.6315  1.0894
54308SOL     OW70038  12.358   1.282   8.040  0.1649 -0.0903  0.3788
54308SOL    HW170039  12.411   1.269   7.961  0.3028 -0.2294  0.4919
54308SOL    HW270040  12.361   1.376   8.056 -2.0369  0.3260 -1.2751
54309SOL     OW70041   1.337  10.104   1.920  0.6644 -0.4631 -0.5896
54309SOL    HW170042   1.284  10.137   1.993  0.3151 -1.1087 -0.5356
54309SOL    HW270043   1.419  10.152   1.926  0.8193 -0.8266  0.5192
54310SOL     OW70044   8.412   5.141   0.148 -0.0632  0.2010  0.1876
54310SOL    HW170045   8.355   5.202   0.196 -1.5847 -0.0482 -1.2195
54310SOL    HW270046   8.467   5.197   0.094 -1.3215  0.3739 -0.9539
54311SOL     OW70047   7.581   7.509   7.781 -0.0219  0.1187  0.0354
54311SOL    HW170048   7.675   7.522   7.778  0.1732 -0.4243  2.0822
54311SOL    HW270049   7.557   7.483   7.692  1.8211 -0.1708 -0.4134
54312SOL     OW70050   0.309   3.240   6.994  0.1299 -0.0681  0.4486
54312SOL    HW170051   0.352   3.155   6.989 -1.1253 -0.7018 -0.0136
54312SOL    HW270052   0.330   3.283   6.911 -1.1547 -0.9041 -0.3401
54313SOL     OW70053   5.578   3.675   7.862 -0.1796 -0.9039  0.0569
54313SOL    HW170054   5.496   3.691   7.816 -0.8062  0.9051  1.6739
54313SOL    HW270055   5.591   3.753   7.916  1.5628 -2.0324  1.3741
54314SOL     OW70056  11.269   0.751  12.142  0.0418  0.5051  0.3521
54314SOL    HW170057  11.200   0.816  12.146 -0.1401  0.2981  0.6684
54314SOL    HW270058  11.344   0.793  12.184  0.6720  1.3868 -1.5436
54315SOL     OW70059   1.441   5.077  10.462  0.1637  0.5857 -0.3162
54315SOL    HW170060   1.432   4.983  10.478 -1.4683  0.3650 -2.0983
54315SOL    HW270061   1.371   5.117  10.514 -1.0578  0.4855 -1.8299
54316SOL     OW70062   3.745   9.668  12.587  0.1569 -0.4521 -0.2304
54316SOL    HW170063   3.697   9.730  12.533 -0.9483  0.1281  1.3300
54316SOL    HW270064   3.818   9.638  12.532  0.5257  1.9439 -1.1579
54317SOL     OW70065   3.213   0.290   7.915  0.4817 -0.5158 -0.6088
54317SOL    HW170066   3.216   0.234   7.993  2.2745 -1.2637 -1.1694
54317SOL    HW270067   3.151   0.246   7.857  1.7928 -1.9341 -1.0025
54318SOL     OW70068   2.501   1.799   0.449  0.1099 -0.2159  0.3573
54318SOL    HW170069   2.504   1.854   0.371 -2.0461 -0.4504  0.0692
54318SOL    HW270070   2.413   1.809   0.483  1.3369  0.9295  3.5969
54319SOL     OW70071   9.906   9.243   3.334  0.5259 -0.1675  0.5689
54319SOL    HW170072   9.858   9.164   3.309  2.1540 -0.7306 -1.0127
54319SOL    HW270073   9.977   9.249   3.270  1.2816  1.8101  1.5116
54320SOL     OW70074   6.797   4.369   1.625  0.0562 -0.5352  0.5175
54320SOL    HW170075   6.868   4.326   1.672  2.6959  0.7910 -1.9409
54320SOL    HW270076   6.777   4.447   1.678  1.0866 -0.4562  0.8106
54321SOL     OW70077   5.753   6.069   3.177 -0.1528  0.6078 -0.2669
54321SOL    HW170078   5.685   6.008   3.146 -0.2417  0.8006 -0.4548
54321SOL    HW270079   5.754   6.059   3.272 -1.7528  1.9717 -0.0674
54322SOL     OW70080  12.111   1.092   0.350 -0.2141  0.4019 -0.1886
54322SOL    HW170081  12.067   1.024   0.401  0.2336  0.0297 -0.2885
54322SOL    HW270082  12.168   1.136   0.413 -1.7167  1.8088  0.2719
54323SOL     OW70083  12.554  10.509   0.752 -0.6991 -0.6618  0.3402
54323SOL    HW170084  12.618  10.437   0.751 -1.3080 -1.2045  0.1587
54323SOL    HW270085  12.486  10.481   0.691  0.3045  1.2275 -1.7916
54324SOL     OW70086  10.890  10.214   7.354  0.3501  0.2321  0.7846
54324SOL    HW170087  10.924  10.191   7.441 -1.0785 -1.2649  0.9893
54324SOL    HW270088  10.890  10.310   7.354  2.6008  0.2987  1.5011
54325SOL     OW70089   7.435   7.464   7.537 -0.0516  0.0724 -0.0174
54325SOL    HW170090   7.377   7.483   7.463 -0.2980 -0.3991  0.0458
54325SOL    HW270091   7.500   7.403   7.502 -0.7728 -0.9597  0.3942
54326SOL     OW70092   3.864   8.803   0.861  0.2794  0.0525 -1.0127
54326SOL    HW170093   3.915   8.837   0.935  0.2748 -0.2820 -0.8559
54326SOL    HW270094   3.786   8.765   0.902  0.8245 -1.1825 -1.0840
54327SOL     OW70095  12.961   3.701  10.190 -0.2531  0.6112 -0.5787
54327SOL    HW170096  12.936   3.686  10.098 -2.1257  0.6494 -0.1173
54327SOL    HW270097  12.994   3.616  10.219 -2.0707 -0.1483 -0.6040
54328SOL     OW70098   4.146  12.293   1.421 -0.2587  0.1328  0.2723
54328SOL    HW170099   4.194  12.328   1.346 -0.5122  0.2046  0.1433
54328SOL    HW270100   4.054  12.307   1.400 -0.3583 -0.4333  0.3054
54329SOL     OW70101   6.886   1.354   5.675  0.6624 -0.4488  0.1918
54329SOL    HW170102   6.896   1.262   5.654  1.5344 -0.4897  0.7183
54329SOL    HW270103   6.852   1.394   5.595  0.4710 -1.1890 -0.1012
54330SOL     OW70104  12.631   7.449   4.501 -0.5959  0.0202  0.0787
54330SOL    HW170105  12.542   7.424   4.479 -0.3303 -0.0358 -1.0019
54330SOL    HW270106  12.652   7.520   4.440  0.3571 -0.4754 -0.1994
54331SOL     OW70107   7.198   8.048  10.476  0.1328 -0.2024  0.2098
54331SOL    HW170108   7.250   8.003  10.543  1.2157 -0.8809 -1.0644
54331SOL    HW270109   7.172   8.131  10.518  1.6373 -0.1565  1.1203
54332SOL     OW70110  11.329   6.629   7.351  0.0295 -0.0876 -0.0292
54332SOL    HW170111  11.280   6.705   7.322  2.0321  1.2810 -0.0363
54332SOL    HW270112  11.383   6.605   7.276  0.7662 -0.3466  0.5658
54333SOL     OW70113   0.648  10.426  12.611  0.3525 -0.3618  0.2872
54333SOL    HW170114   0.609  10.503  12.653  0.2199  0.0398 -0.5601
54333SOL    HW270115   0.741  10.448  12.604  0.2455 -0.0796 -0.3539
54334SOL     OW70116  12.039   8.037   7.858 -0.1461  0.0678  0.0565
54334SOL    HW170117  12.049   7.983   7.779 -0.0112 -0.9105  0.7209
54334SOL    HW270118  11.968   8.097   7.837 -0.6490 -0.7124 -0.5248
54335SOL     OW70119  12.422   9.747  12.548  0.0189 -0.2726 -0.3425
54335SOL    HW170120  12.493   9.749  12.613 -0.7183  0.6091  0.4560
54335SOL    HW270121  12.378   9.664  12.564 -0.3857  0.1074  0.5448
54336SOL     OW70122   0.626   8.150  12.760 -0.4961 -0.2509  0.0110
54336SOL    HW170123   0.683   8.170  12.835 -0.1739 -1.8728  0.2296
54336SOL    HW270124   0.550   8.206  12.773 -0.1696 -0.0467  1.2202
54337SOL     OW70125   3.680   9.922   3.222  0.1285 -0.0312  0.4676
54337SOL    HW170126   3.643   9.863   3.288 -1.3808  2.5582  2.1011
54337SOL    HW270127   3.614   9.927   3.153 -0.4844  0.8762  1.0881
54338SOL     OW70128   6.619   9.888   3.943  0.3112  0.3828 -0.4852
54338SOL    HW170129   6.581   9.862   4.027  1.0954  0.4596 -0.0938
54338SOL    HW270130   6.706   9.849   3.944 -0.0663 -0.5541 -1.7554
54339SOL     OW70131   4.836  11.008   6.766 -0.2859  0.2507  0.0454
54339SOL    HW170132   4.888  10.948   6.819  0.3229  1.7313  1.1801
54339SOL    HW270133   4.897  11.077   6.741 -1.3842  1.3287  0.2697
54340SOL     OW70134  10.640   3.406   7.029  0.0098  0.5190  0.0516
54340SOL    HW170135  10.735   3.404   7.022  0.1207 -0.6344  1.4991
54340SOL    HW270136  10.612   3.319   6.999 -0.5828  0.7676 -0.1371
54341SOL     OW70137  11.951  11.386   4.951  0.1798  0.0514  0.4139
54341SOL    HW170138  12.029  11.423   4.910  0.2078  1.3574  1.5964
54341SOL    HW270139  11.879  11.439   4.918 -0.2604 -1.2410 -0.7864
54342SOL     OW70140   6.295   9.595  12.559  0.1674 -0.1774  0.4007
54342SOL    HW170141   6.287   9.508  12.599 -0.5487  0.1088  0.9081
54342SOL    HW270142   6.315   9.578  12.467 -0.3306 -0.8847  0.4177
54343SOL     OW70143   5.532   5.619   3.626  0.7812 -0.0600 -0.7090
54343SOL    HW170144   5.456   5.615   3.568  1.5167 -2.9809 -1.6450
54343SOL    HW270145   5.607   5.602   3.568  1.8975  0.2469  0.5926
54344SOL     OW70146   8.962   0.056   1.571 -0.7586 -0.0512  0.0979
54344SOL    HW170147   9.014   0.001   1.512  0.0500  1.1004 -0.3064
54344SOL    HW270148   8.884   0.077   1.521 -1.9891 -2.2791  0.9234
54345SOL     OW70149   6.772   3.475   8.175  0.5185 -0.0415 -0.8509
54345SOL    HW170150   6.784   3.568   8.194 -0.4986  0.3022 -1.7494
54345SOL    HW270151   6.835   3.456   8.105  0.9675 -0.1211 -0.4278
54346SOL     OW70152  12.154   3.040   9.723 -0.0951  0.0331 -0.1125
54346SOL    HW170153  12.199   3.123   9.740  1.0154 -0.6153  0.2562
54346SOL    HW270154  12.062   3.058   9.737 -0.3122  2.0515 -3.2188
54347SOL     OW70155  10.772   8.943   9.347  0.1052 -0.0408 -0.0713
54347SOL    HW170156  10.820   9.024   9.332  1.5938 -0.9481 -0.3886
54347SOL    HW270157  10.823   8.896   9.412 -1.8823  0.1744  1.7384
54348SOL     OW70158   0.293   8.178   7.972 -0.3247  0.3503 -0.6144
54348SOL    HW170159   0.229   8.248   7.987 -1.9932 -1.2448  0.0503
54348SOL    HW270160   0.268   8.139   7.889 -0.0834 -0.1689 -0.4470
54349SOL     OW70161   0.426   3.667  11.369  0.8158 -0.5112  0.0981
54349SOL    HW170162   0.450   3.590  11.317  1.9733  1.4472 -2.5132
54349SOL    HW270163   0.510   3.706  11.395  0.4078  1.5856 -1.4641
54350SOL     OW70164   6.534   5.050  12.226  0.0442  0.0611  0.4558
54350SOL    HW170165   6.493   5.120  12.176  0.7334  1.2819  1.5342
54350SOL    HW270166   6.625   5.051  12.198 -0.0355 -0.7316  0.1437
54351SOL     OW70167   9.244   8.328   2.538 -0.0262  0.3318 -0.6411
54351SOL    HW170168   9.158   8.306   2.573 -0.1021 -0.6923 -1.4161
54351SOL    HW270169   9.283   8.386   2.604 -0.4960 -0.8181  0.6828
54352SOL     OW70170  12.271   6.023   5.901 -0.0815 -0.0509 -0.3186
54352SOL    HW170171  12.297   6.115   5.906 -1.2829  0.2848  0.4355
54352SOL    HW270172  12.319   5.987   5.827 -0.4453  1.4802 -1.3430
54353SOL     OW70173   9.222  11.010  12.077  0.2940  0.4396 -0.3103
54353SOL    HW170174   9.288  10.948  12.109 -0.8746 -0.5381  0.2823
54353SOL    HW270175   9.229  11.084  12.137  0.8606  0.3434 -0.2513
54354SOL     OW70176  10.602   9.393   5.510  0.5934  0.0789  0.0559
54354SOL    HW170177  10.638   9.481   5.509  4.2029 -1.2156  0.1116
54354SOL    HW270178  10.610   9.362   5.420  1.8588 -1.0053  0.5020
54355SOL     OW70179   2.696   1.360   5.004 -0.0359 -0.2678 -0.2247
54355SOL    HW170180   2.652   1.433   4.962 -1.3219 -1.2840 -0.7266
54355SOL    HW270181   2.767   1.336   4.944  0.8407  0.9836  0.2839
54356SOL     OW70182   0.818   4.496   8.277  0.1883  0.3167 -0.0872
54356SOL    HW170183   0.822   4.583   8.237  2.2755  0.4297  0.2383
54356SOL    HW270184   0.765   4.508   8.356 -0.3588  1.0498 -0.5472
54357SOL     OW70185   8.316   9.785   7.788 -0.1845  0.0313 -0.1030
54357SOL    HW170186   8.283   9.871   7.813  0.9126  0.3032  0.4502
54357SOL    HW270187   8.311   9.733   7.868  0.4316 -0.0060 -0.0804
54358SOL     OW70188   8.031  10.436  12.955 -0.3046 -0.1656 -0.0508
54358SOL    HW170189   7.943  10.408  12.981 -0.7531 -0.2255 -1.5236
54358SOL    HW270190   8.090  10.382  13.006 -1.0566  1.0642  2.2981
54359SOL     OW70191  12.848   5.553   7.941  0.6450  0.7179 -0.0436
54359SOL    HW170192  12.839   5.630   7.885 -0.8096  0.0101 -0.8435
54359SOL    HW270193  12.890   5.487   7.884  0.6323  0.5000  0.1973
54360SOL     OW70194   0.845   2.240   3.186  0.1254  0.4469 -0.1537
54360SOL    HW170195   0.791   2.222   3.263 -0.0110  1.7573  0.0770
54360SOL    HW270196   0.930   2.267   3.222  0.4575 -0.1085 -0.4952
54361SOL     OW70197   9.908   6.577   3.656 -0.2794 -0.3171  0.2811
54361SOL    HW170198   9.839   6.518   3.626 -1.0908 -0.1166  1.6392
54361SOL    HW270199   9.975   6.520   3.692 -0.9589 -0.4652  1.3764
54362SOL     OW70200  11.481  12.373   8.909 -0.2018  0.1206  0.4469
54362SOL    HW170201  11.486  12.449   8.967 -1.2877 -0.3877  1.2201
54362SOL    HW270202  11.519  12.301   8.960  1.8973  0.3360 -0.6967
54363SOL     OW70203   6.400  10.447   8.819 -0.6935 -0.3147 -0.5479
54363SOL    HW170204   6.407  10.444   8.723 -2.0705  1.3644 -0.7414
54363SOL    HW270205   6.371  10.536   8.838  0.0306 -0.4701  1.4897
54364SOL     OW70206   0.739   7.138   0.230  0.6646  0.0701 -0.2571
54364SOL    HW170207   0.784   7.125   0.146 -0.0050 -0.9159 -0.4750
54364SOL    HW270208   0.809   7.152   0.293  1.1758  1.1839 -1.0223
54365SOL     OW70209   0.560  10.148   9.106  0.3534 -1.2331  0.2192
54365SOL    HW170210   0.536  10.124   9.196  1.3497  1.9097  1.4298
54365SOL    HW270211   0.648  10.112   9.094  0.9703 -0.1311  1.2253
54366SOL     OW70212   1.246  10.428   5.103  0.1203 -0.1918 -0.0619
54366SOL    HW170213   1.239  10.470   5.188  0.0402  1.4323 -0.8339
54366SOL    HW270214   1.298  10.489   5.050  1.0658 -1.6607 -0.8851
54367SOL     OW70215  10.995   0.823   5.511  0.0285  0.1024  0.1006
54367SOL    HW170216  10.966   0.839   5.421  0.6903  1.0727  0.0361
54367SOL    HW270217  11.027   0.908   5.541  1.5065 -0.5851  0.6142
54368SOL     OW70218   9.274   1.238   1.819 -0.1230  0.2426  0.0227
54368SOL    HW170219   9.368   1.235   1.804 -0.0257  1.5495  0.2943
54368SOL    HW270220   9.265   1.261   1.912 -0.6971  0.5330 -0.1009
54369SOL     OW70221  11.748   6.743   7.891 -0.5461 -0.4138  0.1395
54369SOL    HW170222  11.676   6.692   7.930 -1.7249 -0.0611 -1.4669
54369SOL    HW270223  11.746   6.720   7.798  1.6351 -0.5950  0.0792
54370SOL     OW70224  11.027   1.170  11.824 -0.2939  0.0447  0.3241
54370SOL    HW170225  11.035   1.095  11.765  0.6087 -1.2798  2.0203
54370SOL    HW270226  10.956   1.222  11.787 -1.5833 -2.0992 -0.4532
54371SOL     OW70227   1.915   4.451   4.754 -0.4627  0.3256 -0.4122
54371SOL    HW170228   1.977   4.393   4.710  0.6454 -2.5822  4.3105
54371SOL    HW270229   1.829   4.413   4.737 -0.1107 -0.4524 -0.4813
54372SOL     OW70230   1.188   3.458   3.090  0.2645 -0.4616 -0.4934
54372SOL    HW170231   1.244   3.387   3.121 -0.5074 -1.0926 -0.5103
54372SOL    HW270232   1.202   3.461   2.996  0.2815 -0.6067 -0.4949
54373SOL     OW70233   8.503   2.335   2.733  0.0445 -0.0372 -0.3655
54373SOL    HW170234   8.476   2.354   2.823 -0.1173  0.4773 -0.5177
54373SOL    HW270235   8.474   2.246   2.717 -0.5313  0.1072 -0.1353
54374SOL     OW70236   9.746   1.245   8.960  0.4578 -0.1021  0.1813
54374SOL    HW170237   9.777   1.179   8.898 -0.4108  0.1740 -0.5720
54374SOL    HW270238   9.665   1.208   8.995 -0.4548  0.8706 -0.8258
54375SOL     OW70239   3.378  11.603   5.287  0.1727 -0.1934 -0.4985
54375SOL    HW170240   3.318  11.672   5.260  0.2095  0.3027  0.6401
54375SOL    HW270241   3.433  11.643   5.354 -0.8827 -1.7679  1.4086
54376SOL     OW70242   8.259   6.781   6.009 -0.4885 -0.3642 -0.5324
54376SOL    HW170243   8.172   6.768   5.970 -1.0563  0.2279  0.4967
54376SOL    HW270244   8.282   6.695   6.045 -1.1908 -0.2475  0.2291
54377SOL     OW70245   7.701   0.871   2.896  0.3860 -0.1038 -0.5548
54377SOL    HW170246   7.795   0.886   2.899  0.8077 -1.9706 -2.3404
54377SOL    HW270247   7.680   0.832   2.981  0.7124  2.4797  0.8139
54378SOL     OW70248   3.512   8.586   9.414  0.1920 -0.5229 -0.0033
54378SOL    HW170249   3.569   8.571   9.489  1.4855 -0.6817 -0.9855
54378SOL    HW270250   3.463   8.504   9.405 -1.0409 -0.0087  1.4947
54379SOL     OW70251   6.237  11.786   4.121  0.8203 -0.0183 -0.1858
54379SOL    HW170252   6.285  11.769   4.202  1.8699  0.2195 -0.7344
54379SOL    HW270253   6.175  11.856   4.144  0.9778 -0.0851  0.4545
54380SOL     OW70254   9.100   1.824  10.718 -0.5736  0.4444  0.0623
54380SOL    HW170255   9.183   1.800  10.676 -0.4467 -0.9675  1.0724
54380SOL    HW270256   9.125   1.859  10.803 -0.9172  2.0767 -0.4679
54381SOL     OW70257  12.217   8.040   0.168 -0.2459  0.4030 -0.1131
54381SOL    HW170258  12.299   8.044   0.118 -0.1697  1.6141  0.0780
54381SOL    HW270259  12.238   8.082   0.251 -0.8779  0.0809  0.2134
54382SOL     OW70260   7.946   9.242   4.678  0.3122  0.8964 -0.1869
54382SOL    HW170261   8.023   9.270   4.727 -1.8010  1.3741  3.1978
54382SOL    HW270262   7.974   9.163   4.632  2.7476  0.9396  1.0784
54383SOL     OW70263   1.777   5.928   0.427 -0.5435  0.0462 -0.7173
54383SOL    HW170264   1.733   5.889   0.351  1.3705  1.8382 -2.8840
54383SOL    HW270265   1.738   5.883   0.502 -4.2018 -0.2401 -2.5313
54384SOL     OW70266   5.436   8.087   9.123  0.3395  0.1655  0.5240
54384SOL    HW170267   5.407   8.094   9.214 -2.1084  1.5652 -0.2738
54384SOL    HW270268   5.443   7.992   9.107  1.5244 -0.0889  2.3279
54385SOL     OW70269   7.659   1.384  11.542  0.2905  0.2069  0.1691
54385SOL    HW170270   7.580   1.419  11.501  1.0812  1.2954 -0.5038
54385SOL    HW270271   7.721   1.376  11.469  0.9585 -0.1419  0.7701
54386SOL     OW70272   2.894  11.122  11.905  0.0476  0.0441 -0.5445
54386SOL    HW170273   2.986  11.132  11.931 -0.4990  1.9261  0.8642
54386SOL    HW270274   2.855  11.071  11.976 -0.3871  0.8744 -0.1765
54387SOL     OW70275   0.552   6.128   3.224  0.3383 -0.1654 -0.6809
54387SOL    HW170276   0.467   6.152   3.186  0.7937  1.9285 -0.4803
54387SOL    HW270277   0.612   6.128   3.150  0.4150 -0.3641 -0.6190
54388SOL     OW70278   6.905   4.474   4.474  0.2517  0.3510 -0.0611
54388SOL    HW170279   6.990   4.431   4.462  0.3348  0.1904  0.9367
54388SOL    HW270280   6.926   4.560   4.510 -0.0263 -0.0784  1.1761
54389SOL     OW70281  10.345   2.072   6.085  0.3518  0.3095  0.1054
54389SOL    HW170282  10.380   2.159   6.062 -0.0496  0.2976 -0.5727
54389SOL    HW270283  10.302   2.086   6.169 -0.5137  0.9928 -0.4307
54390SOL     OW70284  11.332   1.796   1.828  0.0173 -0.0771  0.0601
54390SOL    HW170285  11.355   1.877   1.874 -0.0835  0.3869 -0.6945
54390SOL    HW270286  11.310   1.735   1.898 -0.2512  0.6515  0.6326
54391SOL     OW70287   6.959   6.615  10.481 -0.3534  0.6635  0.0547
54391SOL    HW170288   7.006   6.628  10.564 -0.8401  1.6202  0.1912
54391SOL    HW270289   7.020   6.566  10.427  0.4695  1.1203  0.5420
54392SOL     OW70290   4.773  10.593  10.633 -0.3222 -0.8343 -0.4996
54392SOL    HW170291   4.745  10.585  10.724  0.3335 -0.7900 -0.2924
54392SOL    HW270292   4.865  10.617  10.638 -1.0416  2.4497 -1.1328
54393SOL     OW70293   7.665  12.358   6.234 -0.1859 -0.2496 -0.2343
54393SOL    HW170294   7.600  12.420   6.202 -1.1468 -1.6667 -1.1890
54393SOL    HW270295   7.655  12.361   6.330  0.1485  1.3921 -0.2317
54394SOL     OW70296   5.725   0.668   5.955 -0.2384  0.5558  0.3891
54394SOL    HW170297   5.813   0.638   5.976  0.3027  1.4913 -0.4858
54394SOL    HW270298   5.719   0.755   5.994 -0.4157  0.9064 -0.4080
54395SOL     OW70299   0.430   3.297   2.387 -0.4942  0.2508 -0.2253
54395SOL    HW170300   0.424   3.320   2.480  0.2322 -2.3007  0.5160
54395SOL    HW270301   0.517   3.258   2.377  0.6512  3.0036 -2.6662
54396SOL     OW70302   6.670   3.867  11.026 -0.0370 -0.3472 -0.1263
54396SOL    HW170303   6.727   3.831  11.094 -0.5360 -1.1385 -0.1121
54396SOL    HW270304   6.730   3.905  10.962  0.4687  3.6881  2.3885
54397SOL     OW70305   6.424   8.390   7.101  0.0668 -0.2142  0.0297
54397SOL    HW170306   6.401   8.301   7.130  0.5645 -0.5875 -0.6725
54397SOL    HW270307   6.507   8.408   7.145 -0.0010 -0.1233  0.1189
54398SOL     OW70308   4.758  12.473   2.566  0.1521 -0.2067  0.6359
54398SOL    HW170309   4.765  12.568   2.554 -1.4160 -0.2610 -1.2245
54398SOL    HW270310   4.762  12.461   2.661  3.8134  1.3298  0.8180
54399SOL     OW70311  12.281  11.005   8.584  0.4552 -0.0900  0.2712
54399SOL    HW170312  12.329  11.076   8.542 -0.6655  0.1991 -0.5772
54399SOL    HW270313  12.296  11.018   8.678  1.7339  0.1791  0.0522
54400SOL     OW70314   2.358  10.930   2.863 -0.0868  0.1713 -0.0831
54400SOL    HW170315   2.405  11.007   2.894 -0.9523  0.6949 -0.0176
54400SOL    HW270316   2.298  10.908   2.934 -1.0691  0.5062 -0.7829
54401SOL     OW70317   9.251   4.940   2.609 -0.2558 -0.3792 -0.7511
54401SOL    HW170318   9.271   4.976   2.695 -0.4531 -0.3223 -0.7289
54401SOL    HW270319   9.329   4.958   2.557  0.1273 -0.9874 -0.4072
54402SOL     OW70320   4.009   5.166   1.996 -0.3471  1.0412 -0.4428
54402SOL    HW170321   4.077   5.161   1.929 -0.6025 -0.2870 -0.6184
54402SOL    HW270322   4.039   5.108   2.065 -1.0559  0.8414 -0.2947
54403SOL     OW70323   5.085  10.593   2.502 -0.4066  0.1627  0.4074
54403SOL    HW170324   4.995  10.626   2.511 -0.4987 -0.3507  1.6196
54403SOL    HW270325   5.140  10.667   2.526 -0.3084  1.5269 -3.3739
54404SOL     OW70326   1.995  11.636  11.447 -0.1363  0.2844  0.0424
54404SOL    HW170327   2.063  11.702  11.434  1.0720 -1.1348 -1.1136
54404SOL    HW270328   1.928  11.681  11.499  1.5524  1.8009  1.0330
54405SOL     OW70329   8.001   0.212  12.305 -0.1868 -0.0134 -0.3493
54405SOL    HW170330   8.057   0.156  12.251  1.1331  2.1767 -1.4384
54405SOL    HW270331   8.053   0.230  12.383  0.4996  1.5823 -1.1160
54406SOL     OW70332  12.441   2.708   0.832 -0.1999 -0.2092  0.5822
54406SOL    HW170333  12.483   2.775   0.778 -0.3026 -0.7423 -0.1661
54406SOL    HW270334  12.400   2.648   0.770 -1.2486 -0.2397  1.2743
54407SOL     OW70335   6.754  12.943   8.269 -0.1151  0.6347 -0.6397
54407SOL    HW170336   6.787  13.016   8.321  0.6106  0.7567 -1.2551
54407SOL    HW270337   6.705  12.985   8.198 -1.4297  0.4625  0.1292
54408SOL     OW70338   2.195   2.511   1.820 -0.0340  0.6639  0.1195
54408SOL    HW170339   2.213   2.479   1.732  1.0564  2.7905 -0.4935
54408SOL    HW270340   2.276   2.553   1.847 -0.8232  1.3060  1.5732
54409SOL     OW70341   1.571  11.797  10.391 -0.0406 -0.5138  0.0670
54409SOL    HW170342   1.605  11.760  10.473  0.8418  0.0177 -0.0407
54409SOL    HW270343   1.490  11.842  10.416  0.8765  0.7455  0.9167
54410SOL     OW70344   9.638   5.073   9.244 -0.7739 -0.0926 -0.1781
54410SOL    HW170345   9.586   5.010   9.194 -3.0228  2.1823 -0.8968
54410SOL    HW270346   9.590   5.084   9.326  0.4606 -0.4302  0.6303
54411SOL     OW70347  12.191   1.322   7.169  0.3247 -0.5914  0.4551
54411SOL    HW170348  12.220   1.343   7.080 -0.1331  0.1349  0.4700
54411SOL    HW270349  12.207   1.402   7.219  1.1935 -1.2085  1.1926
54412SOL     OW70350   5.901   6.129   2.795  0.4576 -0.2925  0.3198
54412SOL    HW170351   5.968   6.162   2.855  0.8182 -0.0430 -0.2242
54412SOL    HW270352   5.835   6.198   2.792  0.3882 -0.3491  0.5023
54413SOL     OW70353   1.381   3.921   9.965 -0.0474  0.1320  0.7878
54413SOL    HW170354   1.408   3.899  10.054 -0.3728  0.8264  1.0640
54413SOL    HW270355   1.298   3.876   9.953  0.3301 -0.5310  0.5762
54414SOL     OW70356   0.804   7.967  10.284  0.5096  0.3585 -0.4705
54414SOL    HW170357   0.856   7.982  10.205 -0.1621  0.2021 -0.9591
54414SOL    HW270358   0.771   7.878  10.275  1.4756 -0.1376  0.6333
54415SOL     OW70359  10.285   1.669   2.877  0.4084  0.0796  0.0611
54415SOL    HW170360  10.262   1.636   2.790  2.6837 -0.1632 -0.5136
54415SOL    HW270361  10.286   1.764   2.868 -1.1779  0.1461  0.3556
54416SOL     OW70362   4.612   9.616   8.340 -0.0611  0.6121 -0.2267
54416SOL    HW170363   4.686   9.556   8.331 -0.0367  0.7647 -1.1421
54416SOL    HW270364   4.538   9.570   8.300 -0.9382 -0.2694  2.1707
54417SOL     OW70365  10.506   0.728   7.948  0.4222  0.6491  0.5584
54417SOL    HW170366  10.451   0.801   7.917 -0.0424  0.3784  0.7260
54417SOL    HW270367  10.513   0.743   8.042 -0.1659  0.1559  0.6839
54418SOL     OW70368   6.006   7.515   5.606 -0.5139  0.1646 -0.0772
54418SOL    HW170369   6.065   7.587   5.586  0.4159 -0.2940  0.8585
54418SOL    HW270370   6.014   7.456   5.531  2.4599 -1.2512  1.1625
54419SOL     OW70371  12.777   8.334   4.118 -0.0999  0.3400 -0.7739
54419SOL    HW170372  12.786   8.241   4.136 -1.2127 -0.0647 -2.2167
54419SOL    HW270373  12.854   8.374   4.161 -2.1439 -0.5044  4.4446
54420SOL     OW70374   1.499  12.249  10.125 -0.0850 -0.4999 -0.1564
54420SOL    HW170375   1.582  12.238  10.171 -0.1698 -0.1249  0.0972
54420SOL    HW270376   1.505  12.337  10.087 -0.4965 -0.3341  0.1506
54421SOL     OW70377  10.939   1.168   2.457 -0.4761  0.2459  0.5244
54421SOL    HW170378  11.024   1.141   2.423 -1.8290 -2.1240 -1.2575
54421SOL    HW270379  10.941   1.145   2.550  0.4285 -0.8433  0.2531
54422SOL     OW70380  12.732   6.085   1.443 -0.6187  0.1949 -0.7641
54422SOL    HW170381  12.674   6.067   1.517 -0.2690 -0.2308 -0.5857
54422SOL    HW270382  12.782   6.004   1.431 -0.6601  0.2674 -1.4594
54423SOL     OW70383   6.489   6.767  10.546 -0.1275 -0.1901 -0.2372
54423SOL    HW170384   6.575   6.728  10.558 -0.3083 -0.6287 -0.3454
54423SOL    HW270385   6.462   6.795  10.633  0.6815  1.1529 -0.3890
54424SOL     OW70386   7.278   7.090   7.826 -0.6769  0.4098 -0.1000
54424SOL    HW170387   7.279   7.065   7.734 -0.8339  1.4250 -0.3883
54424SOL    HW270388   7.339   7.028   7.868  1.6974  1.7309 -1.3782
54425SOL     OW70389   9.755  12.104   8.181  0.0958 -0.0233 -0.0256
54425SOL    HW170390   9.784  12.016   8.208 -0.5078 -0.2623 -0.1328
54425SOL    HW270391   9.796  12.163   8.245  1.1739 -0.3016 -0.4464
54426SOL     OW70392   1.579   1.409   1.384  0.0738 -0.5807 -0.0658
54426SOL    HW170393   1.629   1.401   1.465  1.6451 -0.1390 -0.9653
54426SOL    HW270394   1.519   1.482   1.399  1.8808  0.9547 -0.0411
54427SOL     OW70395   7.191   0.779  10.036 -0.0190 -0.9805  0.2093
54427SOL    HW170396   7.275   0.779   9.991  0.3673  0.1498  0.8910
54427SOL    HW270397   7.213   0.768  10.128 -0.5316  0.3168  0.5044
54428SOL     OW70398   6.842   7.072   5.403 -0.3114  0.2944 -0.5357
54428SOL    HW170399   6.827   7.010   5.331  0.7316 -1.2302  0.4881
54428SOL    HW270400   6.923   7.118   5.378 -0.0738 -0.0719 -0.4480
54429SOL     OW70401   6.924   7.588   0.172 -0.7467 -0.4606 -0.1840
54429SOL    HW170402   6.846   7.632   0.207 -0.6710  0.9196 -1.6290
54429SOL    HW270403   6.919   7.499   0.208 -2.1780  0.0389  0.9597
54430SOL     OW70404   5.107  11.870  12.332 -0.1050  0.5227 -0.6021
54430SOL    HW170405   5.160  11.796  12.363 -2.1413 -0.9939 -0.5013
54430SOL    HW270406   5.170  11.941  12.318  2.0837 -1.4550 -1.4759
54431SOL     OW70407   9.131   6.165   1.809 -0.1628 -0.1496  0.3349
54431SOL    HW170408   9.223   6.156   1.833  0.3584  0.6486 -1.1839
54431SOL    HW270409   9.084   6.105   1.866  1.0457  0.9838  2.6322
54432SOL     OW70410   0.260   5.399  12.276  0.4110 -0.0431 -0.4234
54432SOL    HW170411   0.188   5.384  12.337 -0.3077  0.5451 -1.1126
54432SOL    HW270412   0.226   5.371  12.192  0.8982  0.4807 -0.8002
54433SOL     OW70413  11.083   9.946   0.792 -0.1103 -0.1118 -0.6255
54433SOL    HW170414  11.161  10.001   0.798  0.2722 -0.4404 -2.1797
54433SOL    HW270415  11.114   9.863   0.755 -1.0538 -0.5754 -0.4324
54434SOL     OW70416   7.212   2.308   1.000  0.4305  0.5124  0.0121
54434SOL    HW170417   7.157   2.344   1.070  0.4007  2.8447 -1.1112
54434SOL    HW270418   7.207   2.373   0.930  1.6415 -1.0369 -1.6010
54435SOL     OW70419   7.677   6.818   4.961  0.1367  0.0568  0.3839
54435SOL    HW170420   7.673   6.905   4.920 -0.3110 -0.9183 -1.7774
54435SOL    HW270421   7.763   6.785   4.936 -0.6447 -1.0662 -0.9666
54436SOL     OW70422   9.070   1.164  11.036  0.7198 -0.4504 -0.6356
54436SOL    HW170423   8.995   1.222  11.040  1.0735 -0.0651  2.3486
54436SOL    HW270424   9.041   1.091  10.980 -0.9163  0.8799 -1.6268
54437SOL     OW70425   0.799   4.580   1.808  0.0476 -0.4926 -0.1208
54437SOL    HW170426   0.735   4.509   1.816 -0.2958 -0.3751 -1.6271
54437SOL    HW270427   0.824   4.600   1.899 -1.9540 -0.6190  0.5012
54438SOL     OW70428   4.338  11.636   8.209 -0.7470 -0.4771  0.3105
54438SOL    HW170429   4.426  11.604   8.188 -0.2839  1.7840 -1.7971
54438SOL    HW270430   4.284  11.557   8.214  1.0902 -1.8287 -0.0529
54439SOL     OW70431   3.707   0.641  11.384 -0.2356  0.2368 -0.2203
54439SOL    HW170432   3.616   0.657  11.412 -0.0679  2.3878 -0.7485
54439SOL    HW270433   3.761   0.678  11.454  0.2554 -0.9731  0.0577
54440SOL     OW70434   9.404   9.845   1.012  0.3339  0.2580  0.4303
54440SOL    HW170435   9.308   9.839   1.006  0.4020 -0.0832 -0.5852
54440SOL    HW270436   9.421   9.939   1.021 -0.1046  0.2943  0.9654
54441SOL     OW70437   6.727   7.809   0.930 -0.3598 -0.2908  0.2023
54441SOL    HW170438   6.775   7.838   1.008 -0.5208 -1.2418  0.6676
54441SOL    HW270439   6.723   7.713   0.939  0.1086 -0.4671 -1.2498
54442SOL     OW70440   2.835   8.383   3.932  0.7706 -0.6774  0.5657
54442SOL    HW170441   2.861   8.436   4.007  0.8237 -1.3260  1.0196
54442SOL    HW270442   2.791   8.444   3.873 -1.4180 -0.5539  2.1923
54443SOL     OW70443  12.262  10.675   7.628 -0.4009 -0.4366 -0.1683
54443SOL    HW170444  12.240  10.722   7.547  1.3480  1.0143  0.1452
54443SOL    HW270445  12.253  10.740   7.697  1.9254 -0.5242  0.2985
54444SOL     OW70446   9.184   5.000   8.157  0.3824 -0.1694  0.0071
54444SOL    HW170447   9.246   4.944   8.109  2.0508  0.6307  1.1338
54444SOL    HW270448   9.171   4.955   8.240  0.0885  0.0712  0.0927
54445SOL     OW70449   9.239   3.481  10.656  0.3637  0.2409 -0.4910
54445SOL    HW170450   9.261   3.405  10.603  0.1414  2.2420 -3.7334
54445SOL    HW270451   9.323   3.517  10.683  0.5209 -0.2261 -0.3451
54446SOL     OW70452   9.944  10.487   0.668 -0.1795  0.6058 -0.0896
54446SOL    HW170453   9.988  10.409   0.703 -0.1683 -0.3660 -2.1109
54446SOL    HW270454  10.006  10.558   0.682 -0.6976  0.6165  2.9769
54447SOL     OW70455   6.221   1.102  11.600  0.0869  0.4875  0.3244
54447SOL    HW170456   6.315   1.098  11.616  0.4782 -1.3126 -1.8051
54447SOL    HW270457   6.207   1.187  11.559  1.3319 -0.2027 -1.7192
54448SOL     OW70458   2.949   6.954  10.852  0.2287 -0.3221 -0.2964
54448SOL    HW170459   2.914   7.033  10.892  2.0504  0.2281  0.3307
54448SOL    HW270460   2.973   6.981  10.763  0.6283 -0.2161 -0.1603
54449SOL     OW70461   2.870  10.397  11.291 -0.5154  0.7409 -0.3789
54449SOL    HW170462   2.895  10.316  11.246 -1.1165  1.4750 -2.1385
54449SOL    HW270463   2.830  10.450  11.223  0.5440  2.8497  0.5597
54450SOL     OW70464  10.083   9.202   0.686 -0.4993  0.1767 -0.6272
54450SOL    HW170465  10.035   9.123   0.660 -1.0779  0.3584 -0.1351
54450SOL    HW270466  10.046   9.271   0.630 -0.3952  0.2030 -0.6626
54451SOL     OW70467   9.503  10.352   8.276 -0.0219 -0.1770  0.0541
54451SOL    HW170468   9.437  10.379   8.212  1.9764  2.7082 -0.9354
54451SOL    HW270469   9.568  10.303   8.225 -0.6192 -1.8335  0.7896
54452SOL     OW70470   3.956   5.206   8.202 -0.9562 -0.0106 -0.1774
54452SOL    HW170471   4.035   5.198   8.256 -1.0522 -1.1084 -0.1707
54452SOL    HW270472   3.973   5.150   8.127 -0.9672  1.2495 -1.1439
54453SOL     OW70473   3.925   9.297   2.996 -0.8240 -0.5087  0.1382
54453SOL    HW170474   3.924   9.270   2.904  0.8891  0.7813 -0.3171
54453SOL    HW270475   3.988   9.238   3.037  0.6971  0.7883 -0.2220
54454SOL     OW70476  11.178   9.977  11.241  0.4950 -0.4048  0.1017
54454SOL    HW170477  11.203   9.906  11.300 -1.7445 -1.4461 -0.0829
54454SOL    HW270478  11.224  10.054  11.273  0.7606 -1.3485  2.0818
54455SOL     OW70479  11.666  12.376  12.334 -0.3365  0.1140 -0.7554
54455SOL    HW170480  11.740  12.407  12.282 -1.1063  1.0451 -1.3065
54455SOL    HW270481  11.705  12.356  12.420  0.3904  1.5165 -0.7295
54456SOL     OW70482   1.631   1.911   5.061  0.0104 -0.1588 -0.0987
54456SOL    HW170483   1.658   1.909   4.969  2.4968  1.7849  0.4905
54456SOL    HW270484   1.602   1.821   5.079 -0.5143 -0.6122 -2.7291
54457SOL     OW70485   7.219   6.513   4.896 -0.2502 -0.4372  0.4282
54457SOL    HW170486   7.226   6.431   4.849 -1.2100 -0.8409  0.9400
54457SOL    HW270487   7.305   6.554   4.888  0.6363 -2.0412  1.1636
54458SOL     OW70488   3.963   7.545  10.814  0.0311 -0.0605  0.3477
54458SOL    HW170489   3.940   7.638  10.817  1.6321  0.3516  1.0642
54458SOL    HW270490   3.940   7.512  10.901 -0.7965 -0.4104  0.0012
54459SOL     OW70491  12.765  10.448   9.459 -0.0339 -0.8743  0.1837
54459SOL    HW170492  12.695  10.446   9.525 -0.2929 -0.4481 -0.0727
54459SOL    HW270493  12.837  10.492   9.503 -0.3556 -0.1971  0.0510
54460SOL     OW70494   8.588   9.544   2.420  0.3008 -0.1039 -0.1277
54460SOL    HW170495   8.556   9.630   2.448  0.4514 -0.2404  0.4567
54460SOL    HW270496   8.509   9.496   2.395  0.1484 -0.0639  0.2809
54461SOL     OW70497   9.490   9.695   7.733 -0.4919 -0.1999 -0.0584
54461SOL    HW170498   9.492   9.773   7.788  0.4964 -0.5191  0.3795
54461SOL    HW270499   9.558   9.638   7.769 -1.7601 -1.6424  0.1846
54462SOL     OW70500  10.597   2.673   1.086 -0.0191 -0.1465  0.0489
54462SOL    HW170501  10.625   2.765   1.082 -0.0247 -0.1676 -0.4529
54462SOL    HW270502  10.677   2.625   1.110  0.3854 -0.1981 -1.3156
54463SOL     OW70503  10.336   2.792   7.161 -0.1417  0.5167 -0.0075
54463SOL    HW170504  10.432   2.783   7.162 -0.1883 -0.0861 -0.5757
54463SOL    HW270505  10.304   2.708   7.193 -0.4686  1.2218  1.5809
54464SOL     OW70506  11.268  11.388   6.814  0.2633  0.0890 -0.1572
54464SOL    HW170507  11.224  11.440   6.748 -1.3294 -0.3715  0.4997
54464SOL    HW270508  11.359  11.384   6.785 -0.0894  1.1654 -1.4909
54465SOL     OW70509  11.527   6.639   0.893  0.4728  0.3929 -1.0179
54465SOL    HW170510  11.603   6.613   0.841  1.5597  2.0149 -0.3415
54465SOL    HW270511  11.564   6.662   0.979 -0.6201  2.2619 -1.0073
54466SOL     OW70512   8.318  10.145   6.177 -0.1283  0.0510  0.3947
54466SOL    HW170513   8.410  10.173   6.176  0.6327 -2.2060  1.0678
54466SOL    HW270514   8.283  10.175   6.094  1.3404  0.5805 -0.0675
54467SOL     OW70515  11.225   4.178   0.631  0.0562  0.0817  0.2637
54467SOL    HW170516  11.236   4.271   0.612 -0.9587  0.3097  0.7383
54467SOL    HW270517  11.284   4.134   0.569 -1.7712  0.8661 -2.2278
54468SOL     OW70518   7.056   9.409   5.919 -0.0825 -0.1584  0.5302
54468SOL    HW170519   7.135   9.408   5.972  0.1439 -0.0495  0.1960
54468SOL    HW270520   7.087   9.407   5.828 -0.3582  2.4360  0.3059
54469SOL     OW70521   6.221   0.884   5.557  0.4708 -0.5134  0.4895
54469SOL    HW170522   6.310   0.873   5.591  1.6502  0.0106 -2.1768
54469SOL    HW270523   6.196   0.796   5.529  0.9891 -0.3228 -0.6071
54470SOL     OW70524   0.900   5.352  11.279  0.4624 -0.0814  0.3183
54470SOL    HW170525   0.923   5.427  11.334  1.1070 -0.3919  0.4768
54470SOL    HW270526   0.894   5.388  11.191  1.0688  0.1025  0.3505
54471SOL     OW70527  10.787   7.103   6.454 -0.7569 -0.0055  0.1452
54471SOL    HW170528  10.880   7.079   6.448 -0.8616 -0.0049 -2.0930
54471SOL    HW270529  10.782   7.158   6.532  1.2151  0.3577  0.0641
54472SOL     OW70530   0.761  12.899   9.789  0.4002 -0.3718 -0.8371
54472SOL    HW170531   0.716  12.816   9.775 -0.2357 -0.1011 -0.4234
54472SOL    HW270532   0.730  12.930   9.874 -0.4063  0.9350 -1.5741
54473SOL     OW70533   2.295   0.973   3.343 -0.1210 -0.2795 -0.7233
54473SOL    HW170534   2.246   0.906   3.391 -0.3717  1.8296  2.2728
54473SOL    HW270535   2.227   1.027   3.302 -0.3149  1.0519  1.1861
54474SOL     OW70536   5.354   9.361   0.372 -0.2845  0.3845 -0.2304
54474SOL    HW170537   5.357   9.436   0.313 -1.5898 -0.5866 -1.6088
54474SOL    HW270538   5.446   9.337   0.387  0.0869  0.3584 -2.2958
54475SOL     OW70539   6.278  11.358   9.681  0.1799 -0.2282 -0.1980
54475SOL    HW170540   6.201  11.386   9.730  0.0857  2.4158 -1.6819
54475SOL    HW270541   6.349  11.363   9.745 -0.3795  0.4749  0.3947
54476SOL     OW70542  12.325  11.822  11.354  0.0989 -0.4810 -0.6473
54476SOL    HW170543  12.347  11.866  11.436  0.3689  1.5370 -1.7317
54476SOL    HW270544  12.409  11.799  11.315 -0.0134 -1.0340 -0.5703
54477SOL     OW70545   4.636   9.568  11.988  0.1942 -0.5175 -0.0245
54477SOL    HW170546   4.675   9.519  11.916 -0.0574 -1.4401  0.4467
54477SOL    HW270547   4.696   9.640  12.004  0.6449 -0.7463 -0.6448
54478SOL     OW70548   4.678   9.429   4.587  0.3880  0.7237 -0.1950
54478SOL    HW170549   4.688   9.362   4.655  0.0955  0.1112 -0.7469
54478SOL    HW270550   4.731   9.398   4.514 -0.9193  0.3158 -1.0126
54479SOL     OW70551   1.370  10.324   2.962  0.9086  0.1422  0.6218
54479SOL    HW170552   1.399  10.247   3.011  2.5524  0.4413  0.1750
54479SOL    HW270553   1.451  10.371   2.942  0.2354  0.3934 -1.7449
54480SOL     OW70554  10.982   0.875   8.102 -0.6636  0.3435 -0.4811
54480SOL    HW170555  10.990   0.947   8.041  0.4085  0.8226  0.1821
54480SOL    HW270556  11.068   0.871   8.146 -0.2025 -2.1667 -1.4246
54481SOL     OW70557   5.070   7.565  12.703 -0.6748  0.5809  0.0220
54481SOL    HW170558   5.106   7.648  12.673  0.3412  0.8780  1.9532
54481SOL    HW270559   5.143   7.522  12.748 -1.3540 -1.0974 -0.4032
54482SOL     OW70560   3.949   8.763  12.192 -0.5356  0.0437 -0.2789
54482SOL    HW170561   3.884   8.717  12.245 -0.6282  2.4197  1.8285
54482SOL    HW270562   3.913   8.761  12.103 -2.9825  0.3548  0.6316
54483SOL     OW70563  10.098   3.872   0.330 -0.7083 -0.0863 -0.3324
54483SOL    HW170564  10.182   3.833   0.306 -1.0574 -0.3322 -1.1958
54483SOL    HW270565  10.034   3.832   0.270 -1.1783  1.3272 -0.8379
54484SOL     OW70566   7.735   7.698  11.529  0.2397  0.1033 -0.7944
54484SOL    HW170567   7.698   7.726  11.613  0.0791 -2.5032  0.0780
54484SOL    HW270568   7.804   7.762  11.511 -2.2069  3.0342 -0.7113
54485SOL     OW70569   4.374   7.394  10.798  0.0273  0.1508 -0.0530
54485SOL    HW170570   4.365   7.302  10.774  0.9265  0.0637 -0.1010
54485SOL    HW270571   4.468   7.411  10.791 -0.1986  1.2340 -0.6191
54486SOL     OW70572  10.417   9.852   6.600  0.2401 -0.2524 -0.0052
54486SOL    HW170573  10.377   9.765   6.600  1.5421 -0.9013  1.2746
54486SOL    HW270574  10.383   9.894   6.679 -1.0557  0.7761 -1.0579
54487SOL     OW70575   9.751   1.913   0.050  0.6906  0.0124  0.0790
54487SOL    HW170576   9.839   1.895   0.018  0.1132 -1.4870 -0.7520
54487SOL    HW270577   9.712   1.827   0.063 -1.6062  0.5928 -2.2346
54488SOL     OW70578   7.613   8.212   1.943 -0.3214 -0.4102 -0.5517
54488SOL    HW170579   7.626   8.232   2.036  2.0353 -0.4080 -0.8147
54488SOL    HW270580   7.525   8.245   1.923 -0.4666  0.5392  1.4208
54489SOL     OW70581   8.296   8.238   8.327 -0.2101 -0.3573  0.4186
54489SOL    HW170582   8.387   8.225   8.354 -0.0353 -0.6391 -0.2703
54489SOL    HW270583   8.295   8.327   8.290  0.2707 -1.0734 -1.4118
54490SOL     OW70584   5.621  11.741   8.119  0.5407 -0.0906  0.2665
54490SOL    HW170585   5.706  11.703   8.097  0.1333 -1.3030  0.6758
54490SOL    HW270586   5.591  11.689   8.194  0.7736  2.2838  2.1367
54491SOL     OW70587   2.470   3.935   6.199 -0.7252  0.1175 -0.4362
54491SOL    HW170588   2.454   3.934   6.105 -0.4230 -1.2177 -0.4986
54491SOL    HW270589   2.565   3.930   6.207 -0.7904 -0.8450 -0.0819
54492SOL     OW70590   7.686   9.723   8.508 -0.2261 -0.2870  0.2300
54492SOL    HW170591   7.734   9.803   8.525 -2.6372  1.2739  0.2162
54492SOL    HW270592   7.619   9.720   8.576 -1.4000 -1.2423 -0.9065
54493SOL     OW70593   8.987  11.498  10.254  0.0039 -0.5917  0.0854
54493SOL    HW170594   9.060  11.439  10.233 -1.3318 -2.0045 -0.8275
54493SOL    HW270595   8.909  11.443  10.247 -1.5217  1.6590 -2.6302
54494SOL     OW70596  11.733   3.983   3.956 -0.0449  0.2595 -0.0228
54494SOL    HW170597  11.735   4.022   4.043  0.7744 -0.7333  0.4256
54494SOL    HW270598  11.643   3.996   3.926 -0.7172 -0.5424  1.5256
54495SOL     OW70599   7.986   6.961   0.730 -0.2947 -0.3784  0.7113
54495SOL    HW170600   8.015   7.047   0.701 -0.8880 -0.5849 -0.5658
54495SOL    HW270601   7.891   6.968   0.735 -0.2886 -0.7087  1.4995
54496SOL     OW70602   2.486   3.503  10.638 -0.2829 -0.0519 -0.1107
54496SOL    HW170603   2.476   3.538  10.727 -0.1932  0.0806 -0.1520
54496SOL    HW270604   2.402   3.520  10.596 -0.7517 -1.2057  0.3220
54497SOL     OW70605   4.585   1.794   9.662  0.2826  0.2405  0.1430
54497SOL    HW170606   4.512   1.761   9.713 -0.5434 -0.9889 -1.7117
54497SOL    HW270607   4.662   1.754   9.701 -0.4871 -2.1173 -0.5613
54498SOL     OW70608   3.358   0.562   0.463 -0.6702 -0.5410  0.0394
54498SOL    HW170609   3.286   0.548   0.402 -0.0373  1.8919 -1.3670
54498SOL    HW270610   3.433   0.517   0.423 -0.2908  0.9321 -0.9854
54499SOL     OW70611   0.406   4.981   3.753  0.1618 -0.3773  0.5744
54499SOL    HW170612   0.483   4.970   3.809  1.0888  0.1886 -0.5395
54499SOL    HW270613   0.376   4.892   3.735  0.3505 -0.5926  1.2799
54500SOL     OW70614   2.069   5.255   4.008  0.1832 -0.4794 -0.3181
54500SOL    HW170615   2.160   5.228   3.994  0.3844 -0.0393  0.1294
54500SOL    HW270616   2.041   5.205   4.085  0.8026  1.1278  0.9947
54501SOL     OW70617   0.743   5.300   3.556 -0.3199 -0.3830 -0.2137
54501SOL    HW170618   0.694   5.243   3.497 -0.8869  2.4041 -2.6560
54501SOL    HW270619   0.676   5.346   3.606 -0.0735  0.7948 -0.9398
54502SOL     OW70620   9.167  10.936   8.901 -0.1617 -0.1018 -0.1419
54502SOL    HW170621   9.143  10.852   8.863 -0.4925 -0.1464  0.1584
54502SOL    HW270622   9.211  10.983   8.830  0.7400 -0.8270 -0.0853
54503SOL     OW70623   8.379   8.083   6.909  0.2904 -0.3980 -0.5727
54503SOL    HW170624   8.299   8.109   6.865  0.3357  1.3361  0.3004
54503SOL    HW270625   8.353   8.067   7.000  0.4309 -2.6915 -0.8830
54504SOL     OW70626   1.878  12.707   3.158  0.5739  0.4459 -0.3713
54504SOL    HW170627   1.830  12.754   3.227  2.3209 -0.6813  1.7435
54504SOL    HW270628   1.943  12.770   3.128  2.3444 -0.1647  1.8520
54505SOL     OW70629   9.669   0.536   0.536  0.2551 -0.4613 -0.1077
54505SOL    HW170630   9.660   0.627   0.563 -1.4729 -0.1489 -1.5923
54505SOL    HW270631   9.580   0.500   0.542  0.3102 -1.1624 -2.4226
54506SOL     OW70632   6.787   6.933   2.074 -0.7093 -0.1523  0.2044
54506SOL    HW170633   6.754   6.948   2.163 -0.4152 -1.0263  0.4650
54506SOL    HW270634   6.729   6.868   2.037  0.0942 -0.9466  0.3076
54507SOL     OW70635  11.023   1.882   6.529  0.3300  0.1821  0.0199
54507SOL    HW170636  10.968   1.851   6.602  1.5340 -0.8996  0.5195
54507SOL    HW270637  11.045   1.972   6.552 -0.9148  0.4952  0.0021
54508SOL     OW70638   7.733  11.396   7.324  0.0885  0.3275 -0.3960
54508SOL    HW170639   7.699  11.338   7.393 -1.2058  0.7301 -0.6684
54508SOL    HW270640   7.740  11.340   7.247 -1.4049  0.5495 -0.7265
54509SOL     OW70641  11.694   0.401   3.588  0.1839 -0.0025  0.1182
54509SOL    HW170642  11.653   0.484   3.614 -0.0358 -0.3145  0.7886
54509SOL    HW270643  11.756   0.382   3.658  1.2535  0.2990 -0.7370
54510SOL     OW70644   0.048  11.888   1.608  0.0856 -0.3662 -0.1950
54510SOL    HW170645   0.110  11.854   1.674  1.5283 -0.0262 -1.3330
54510SOL    HW270646   0.012  11.809   1.568  0.9020 -0.5935 -0.5188
54511SOL     OW70647   7.412  11.549   3.640 -0.1152  0.1773 -0.2980
54511SOL    HW170648   7.317  11.554   3.628  0.0599  0.1255 -2.0634
54511SOL    HW270649   7.443  11.496   3.566  1.1702 -0.8918  0.9570
54512SOL     OW70650  10.526   6.306   3.512 -0.3121 -0.0568  0.3143
54512SOL    HW170651  10.550   6.387   3.558 -0.9074  0.9056 -1.0036
54512SOL    HW270652  10.528   6.330   3.420  0.1855 -1.7559 -0.1450
54513SOL     OW70653  12.667  12.895   2.330 -0.2370  0.2843  0.0875
54513SOL    HW170654  12.740  12.908   2.269 -0.1878 -2.0522 -0.4587
54513SOL    HW270655  12.600  12.957   2.300  0.8608  1.2300 -0.5053
54514SOL     OW70656  12.836   6.501   5.433 -0.0339 -0.3447 -0.3253
54514SOL    HW170657  12.901   6.564   5.400 -0.0599  0.2548  0.7122
54514SOL    HW270658  12.843   6.426   5.374  1.2088 -0.0579 -0.5732
54515SOL     OW70659   9.757   0.475   8.396 -0.0419 -0.4246  0.0976
54515SOL    HW170660   9.679   0.480   8.451 -0.1822 -3.1523  0.2845
54515SOL    HW270661   9.729   0.430   8.317  0.6158  1.6982 -1.4324
54516SOL     OW70662   4.227  12.372  10.866  0.1044 -0.9041  0.3240
54516SOL    HW170663   4.270  12.392  10.782  1.4951 -0.1006  1.1880
54516SOL    HW270664   4.252  12.282  10.884 -0.6217 -1.2499 -0.3626
54517SOL     OW70665   4.293   0.008   8.037 -0.5136  0.1261  0.0681
54517SOL    HW170666   4.319  -0.075   8.078  1.4579  0.5863 -0.1422
54517SOL    HW270667   4.375   0.046   8.006 -1.3319  2.2961  0.3747
54518SOL     OW70668   2.320   9.959  10.270 -0.3845 -0.2651  0.1135
54518SOL    HW170669   2.330  10.027  10.337 -0.3424  1.1276 -1.2322
54518SOL    HW270670   2.251   9.902  10.304  0.7765 -0.5695  2.0730
54519SOL     OW70671   4.071   6.053   2.887 -0.1493 -0.0609 -0.0577
54519SOL    HW170672   4.085   5.981   2.949  2.0452 -0.2529 -0.7209
54519SOL    HW270673   4.135   6.039   2.818 -2.4376  0.2199 -2.3887
54520SOL     OW70674   5.729  11.778   9.523 -0.1822  0.3722  0.6125
54520SOL    HW170675   5.751  11.751   9.612  0.4503 -0.3053  0.2612
54520SOL    HW270676   5.739  11.699   9.470 -0.1087  0.8668 -0.1351
54521SOL     OW70677   3.119   2.045   1.400  0.1925  0.3550 -0.7576
54521SOL    HW170678   3.097   2.138   1.411 -0.4023  0.2654 -1.1070
54521SOL    HW270679   3.214   2.042   1.402  0.2397  0.5392  2.6126
54522SOL     OW70680   8.009   4.631  11.628  0.2418 -0.4171 -0.2486
54522SOL    HW170681   7.974   4.690  11.561  1.0180 -0.3928 -0.6441
54522SOL    HW270682   8.095   4.666  11.648 -0.2964  0.0615  1.3856
54523SOL     OW70683   4.126   8.285   5.409 -0.4309 -0.3048 -0.1138
54523SOL    HW170684   4.064   8.332   5.465  1.1633  0.5022  1.0604
54523SOL    HW270685   4.147   8.205   5.458 -0.3371 -0.4518 -0.3892
54524SOL     OW70686   6.612   4.191  12.653 -0.1520  0.0862  0.2244
54524SOL    HW170687   6.573   4.135  12.586 -0.2140 -0.2164  0.5075
54524SOL    HW270688   6.656   4.260  12.605  3.0608 -2.1524 -0.3264
54525SOL     OW70689  11.050   5.904   3.494  0.1287  0.0918 -0.3958
54525SOL    HW170690  11.122   5.918   3.556 -0.3022 -0.1264  0.1624
54525SOL    HW270691  11.020   5.815   3.513  0.1622 -0.0708 -1.1002
54526SOL     OW70692   3.342   7.833   4.391 -0.5244 -0.0594  0.0845
54526SOL    HW170693   3.429   7.856   4.425 -0.6220  1.4190 -0.5691
54526SOL    HW270694   3.286   7.829   4.468  0.3479 -2.2719  0.6525
54527SOL     OW70695  12.051   9.499   1.742 -0.7878  0.1495  0.0078
54527SOL    HW170696  12.021   9.438   1.809 -1.8116 -2.0226 -2.2861
54527SOL    HW270697  11.980   9.562   1.733 -1.3811 -0.5511 -0.2281
54528SOL     OW70698  11.671   0.653  11.645 -0.1922 -0.5643 -0.0120
54528SOL    HW170699  11.708   0.566  11.661  0.1672 -0.4072  0.0129
54528SOL    HW270700  11.691   0.672  11.554  0.3937 -0.1927  0.1859
54529SOL     OW70701   0.310   4.921   2.699 -0.2494  0.6192  0.1154
54529SOL    HW170702   0.306   4.841   2.647  0.4920  0.9236 -0.4216
54529SOL    HW270703   0.394   4.961   2.676 -1.0386  2.0686 -0.4039
54530SOL     OW70704   2.479   3.109  12.902  0.3443  0.8167 -0.0706
54530SOL    HW170705   2.430   3.128  12.822  1.7823 -1.3002 -1.5744
54530SOL    HW270706   2.547   3.047  12.874  1.7344  1.0236  2.5575
54531SOL     OW70707   3.097   2.303   7.691 -0.1266  0.0826 -0.1151
54531SOL    HW170708   3.085   2.248   7.614 -1.2385 -0.5480  0.4677
54531SOL    HW270709   3.014   2.295   7.739 -0.0354  1.7063  0.3546
54532SOL     OW70710   5.557   7.687  12.326  0.2303 -0.2156  0.6246
54532SOL    HW170711   5.518   7.605  12.355  0.3388 -0.3625  0.3599
54532SOL    HW270712   5.644   7.688  12.366  0.2231 -0.2213  0.6405
54533SOL     OW70713  12.408   2.678  12.469  0.8346  0.4644  0.1473
54533SOL    HW170714  12.366   2.731  12.401  0.6272 -0.7452 -0.6956
54533SOL    HW270715  12.344   2.610  12.489  2.0852 -1.0067 -0.6794
54534SOL     OW70716   0.321   7.517   9.085 -0.1764 -0.5075 -0.1014
54534SOL    HW170717   0.387   7.524   9.016 -0.7532 -2.1622 -0.8676
54534SOL    HW270718   0.295   7.425   9.084 -0.4844 -0.5099  2.0761
54535SOL     OW70719  11.883   7.191   5.347 -0.2143  0.1203 -0.0579
54535SOL    HW170720  11.921   7.278   5.341 -1.9995  0.9522  0.1674
54535SOL    HW270721  11.837   7.179   5.264  1.0219 -1.1418 -0.6088
54536SOL     OW70722   5.323   3.297   4.361 -0.0951  0.3630 -0.7404
54536SOL    HW170723   5.262   3.324   4.293 -2.9303  1.0943  1.8812
54536SOL    HW270724   5.338   3.375   4.413  0.8973 -0.4799  0.2923
54537SOL     OW70725   9.448   1.499   9.094 -0.3297  0.1768 -0.4048
54537SOL    HW170726   9.358   1.492   9.125  0.3785  0.4268  1.9557
54537SOL    HW270727   9.500   1.501   9.174  2.0021 -2.4376 -1.6588
54538SOL     OW70728   5.523   6.492   5.493 -0.1863  0.4097  1.1089
54538SOL    HW170729   5.517   6.579   5.455 -1.2284  0.4298  1.2780
54538SOL    HW270730   5.603   6.494   5.546  0.3096  0.9491  0.3703
54539SOL     OW70731  10.665   6.842  12.687  0.1810 -0.1785  0.3320
54539SOL    HW170732  10.634   6.904  12.621  0.2884  0.4415  0.8534
54539SOL    HW270733  10.745   6.882  12.721 -0.0472 -0.3199  1.0645
54540SOL     OW70734   7.953   4.817   2.572 -0.5504 -0.3035 -0.2969
54540SOL    HW170735   7.908   4.733   2.574 -3.0798  0.9431  0.8431
54540SOL    HW270736   7.928   4.860   2.654  1.3573  1.2372 -0.4355
54541SOL     OW70737  11.159   9.969   6.852 -0.0292 -0.0809 -0.4098
54541SOL    HW170738  11.178  10.035   6.918  0.0109 -0.9929  0.5136
54541SOL    HW270739  11.139  10.019   6.773 -0.1356  1.0287  0.3022
54542SOL     OW70740   2.612  12.106   3.733  0.3373  0.0975 -0.3254
54542SOL    HW170741   2.517  12.100   3.720  0.4157  0.6866 -1.2380
54542SOL    HW270742   2.645  12.020   3.707  0.3370  0.7924 -2.8516
54543SOL     OW70743   0.772   7.122  11.675  0.5884 -0.7166  0.0920
54543SOL    HW170744   0.814   7.108  11.760  1.5724 -0.3101 -0.3106
54543SOL    HW270745   0.772   7.217  11.664 -1.2356 -0.6333  0.4481
54544SOL     OW70746  12.582   9.613   7.280  0.0020 -0.3912  0.3282
54544SOL    HW170747  12.569   9.659   7.197 -1.3448 -1.5496 -0.1386
54544SOL    HW270748  12.676   9.596   7.283  0.5542  2.1664  0.4489
54545SOL     OW70749   6.153   8.950   3.320  0.1255  0.2466 -0.2949
54545SOL    HW170750   6.136   8.897   3.242 -2.2046  0.7838 -0.2061
54545SOL    HW270751   6.152   9.040   3.289 -1.4702  0.5079  0.4021
54546SOL     OW70752   8.160   5.141  10.711  0.6506  0.3986  0.3709
54546SOL    HW170753   8.141   5.184  10.628  1.7096  1.3903  0.6087
54546SOL    HW270754   8.148   5.048  10.693 -1.3218  0.7259 -0.2672
54547SOL     OW70755  11.795   3.645   3.319  0.6025 -0.2647  0.0159
54547SOL    HW170756  11.746   3.592   3.381  1.0090 -0.5143  0.1299
54547SOL    HW270757  11.826   3.582   3.253  0.8491 -0.1288  0.0001
54548SOL     OW70758  10.863   2.219  10.715 -0.1996 -0.2744  0.1356
54548SOL    HW170759  10.876   2.301  10.668 -1.5020 -0.4678 -0.6345
54548SOL    HW270760  10.846   2.244  10.805  0.9627  0.1940  0.2350
54549SOL     OW70761   0.603   1.235   3.743  0.0597  0.5389  0.0857
54549SOL    HW170762   0.558   1.168   3.691 -2.0155  1.4612  0.6074
54549SOL    HW270763   0.595   1.205   3.833  0.3748  0.7908  0.1987
54550SOL     OW70764   8.167  11.767   0.704  0.3491 -0.4701 -0.0116
54550SOL    HW170765   8.186  11.673   0.708 -2.7571 -1.1930  2.8027
54550SOL    HW270766   8.160  11.794   0.796 -0.0168  2.2826 -0.7413
54551SOL     OW70767   0.704   4.842   1.351  0.0397 -0.6428  0.6313
54551SOL    HW170768   0.636   4.875   1.409  0.2788 -0.5154  0.8409
54551SOL    HW270769   0.685   4.749   1.342 -1.5563 -0.2062 -1.2014
54552SOL     OW70770   9.890   4.228   3.546 -0.0343  0.3417 -0.5416
54552SOL    HW170771   9.841   4.296   3.592  0.7268  1.6950 -1.6323
54552SOL    HW270772   9.862   4.146   3.586 -0.9648  1.2963  0.8431
54553SOL     OW70773   0.599   9.855  10.964  0.7716  0.2000  0.5715
54553SOL    HW170774   0.536   9.925  10.946  2.1141  1.0257 -1.1930
54553SOL    HW270775   0.684   9.899  10.967  1.5558 -1.2403  0.2397
54554SOL     OW70776   8.944  12.486   9.008 -0.2257 -0.1955  0.3425
54554SOL    HW170777   8.928  12.409   9.062  1.3438 -0.1786  0.8843
54554SOL    HW270778   8.927  12.457   8.919 -1.2472 -0.6849  0.6769
54555SOL     OW70779  11.705   7.972   2.746  0.2305 -0.4299 -0.0238
54555SOL    HW170780  11.770   7.903   2.758 -0.0223 -0.4285  1.6626
54555SOL    HW270781  11.669   7.957   2.659  2.8526 -0.0959 -1.2565
54556SOL     OW70782  10.123  10.231   1.057 -0.2087 -0.0605  0.2809
54556SOL    HW170783  10.118  10.136   1.057 -0.5548 -0.0654  2.2010
54556SOL    HW270784  10.033  10.260   1.043 -0.1230 -0.0041 -0.1741
54557SOL     OW70785  11.286   9.079   3.161  0.8112 -0.1176 -0.0209
54557SOL    HW170786  11.341   9.098   3.085  1.8467 -0.5546  0.6079
54557SOL    HW270787  11.306   8.989   3.184 -0.0739 -0.2397  0.3054
54558SOL     OW70788   0.206   4.190  12.420  0.5471 -0.1615  0.3874
54558SOL    HW170789   0.196   4.106  12.374  1.8263 -0.0078 -0.2389
54558SOL    HW270790   0.300   4.209  12.413  0.3268  1.1591  0.8286
54559SOL     OW70791   2.105  11.909   4.815  0.2602  0.3792  1.2719
54559SOL    HW170792   2.146  11.834   4.858  0.5339  0.6069  1.4126
54559SOL    HW270793   2.011  11.889   4.816  0.4497 -0.7723 -0.2329
54560SOL     OW70794   4.989   8.188   2.816 -0.3887  0.1184 -0.2243
54560SOL    HW170795   4.963   8.096   2.825 -0.3133  0.0574 -0.6405
54560SOL    HW270796   5.065   8.186   2.757 -0.2209  0.4230 -0.0240
54561SOL     OW70797  10.028   7.893   8.106  0.2225  0.3362 -0.3065
54561SOL    HW170798   9.985   7.939   8.034 -0.6047 -0.6228 -0.4479
54561SOL    HW270799  10.033   7.802   8.076  1.4409  0.2419  0.1337
54562SOL     OW70800   8.409   9.238  12.070 -0.0905  0.3554  0.0891
54562SOL    HW170801   8.394   9.308  12.133 -1.2309  2.6603 -2.5472
54562SOL    HW270802   8.327   9.188  12.070 -0.3202  0.7300 -0.0227
54563SOL     OW70803   6.940  12.501   1.155  0.0650  0.0945 -0.4077
54563SOL    HW170804   6.933  12.592   1.125  0.5918  0.0495 -0.6755
54563SOL    HW270805   6.894  12.450   1.088  1.4447 -0.0308 -1.3042
54564SOL     OW70806  12.499   5.578   5.194 -0.1833  0.2173  0.8568
54564SOL    HW170807  12.432   5.642   5.170 -0.4657  0.3498  1.9404
54564SOL    HW270808  12.559   5.577   5.120 -1.3633  0.1223 -0.1267
54565SOL     OW70809   2.103   3.938  10.995  0.1666  0.7726 -0.2699
54565SOL    HW170810   2.070   3.895  11.074  1.0194 -1.1499 -0.9087
54565SOL    HW270811   2.109   4.030  11.019 -2.8032  0.7951  0.8080
54566SOL     OW70812   3.229   7.495  11.156  0.6146  0.4126  0.0852
54566SOL    HW170813   3.217   7.401  11.166  1.5202  0.2686 -0.0973
54566SOL    HW270814   3.261   7.506  11.066  2.3405  0.6898  0.6795
54567SOL     OW70815  10.015   8.827  12.507  0.1323 -0.0723 -0.1253
54567SOL    HW170816   9.979   8.911  12.534 -1.0423 -0.2914 -0.9393
54567SOL    HW270817  10.107   8.845  12.487  0.1430  0.7918  0.6752
54568SOL     OW70818   6.797   4.146   8.517 -0.7768 -0.1163 -0.9262
54568SOL    HW170819   6.800   4.228   8.469  0.0656 -0.2751 -1.1662
54568SOL    HW270820   6.739   4.163   8.591 -0.3635  0.7931 -0.7972
54569SOL     OW70821   4.483   0.322   4.403  0.6143 -0.3473 -0.7989
54569SOL    HW170822   4.556   0.282   4.452  1.5918  0.5746 -1.4590
54569SOL    HW270823   4.526   0.375   4.336 -0.6858  0.2305 -1.1932
54570SOL     OW70824   7.175  10.949  10.567 -0.4319  0.1300  0.4978
54570SOL    HW170825   7.245  10.904  10.519  0.4943  2.6522 -0.7427
54570SOL    HW270826   7.216  10.977  10.649  0.0332  1.4638 -0.1573
54571SOL     OW70827   8.920   5.205   0.718  0.2098 -0.7119  0.1842
54571SOL    HW170828   8.903   5.251   0.636  0.3464 -1.1386 -0.0834
54571SOL    HW270829   9.000   5.155   0.702  0.3259 -0.6735  0.6288
54572SOL     OW70830   9.751   6.353   9.403 -0.1691  0.0674  0.2193
54572SOL    HW170831   9.746   6.384   9.313  0.1936  0.1020  0.2087
54572SOL    HW270832   9.836   6.309   9.409 -0.2636 -0.0833  0.4981
54573SOL     OW70833  11.981  12.368  12.907 -0.0828  0.3759 -0.8125
54573SOL    HW170834  12.069  12.401  12.926 -0.9800  1.2813  2.3772
54573SOL    HW270835  11.996  12.293  12.849  2.9086 -0.1925  0.4857
54574SOL     OW70836   0.439   9.533  12.743 -0.1620  0.1418 -0.5664
54574SOL    HW170837   0.394   9.585  12.677  1.9675  1.1794 -1.3116
54574SOL    HW270838   0.407   9.567  12.827 -0.5981  0.9713 -1.0619
54575SOL     OW70839  10.284   5.893   6.091  0.1795  0.2025  0.2076
54575SOL    HW170840  10.300   5.934   6.006  0.6996  0.0812  0.2459
54575SOL    HW270841  10.368   5.853   6.114 -0.3175 -0.8863  0.1701
54576SOL     OW70842   6.548   5.205   5.793 -0.3228  0.2392 -0.3864
54576SOL    HW170843   6.597   5.270   5.843  2.2283  0.4754 -2.8885
54576SOL    HW270844   6.541   5.243   5.705 -2.9004 -0.9165 -0.7705
54577SOL     OW70845  12.168   7.672   9.524 -0.3071  0.3602  0.0221
54577SOL    HW170846  12.126   7.593   9.559 -0.0707 -0.7696 -2.0702
54577SOL    HW270847  12.113   7.744   9.555 -1.1444 -0.6995  1.1084
54578SOL     OW70848  12.095   1.995   1.912  0.6066 -0.1796 -0.0446
54578SOL    HW170849  12.163   1.928   1.917  0.2467 -0.4637  1.8732
54578SOL    HW270850  12.121   2.061   1.976  0.2089  0.8162 -0.8824
54579SOL     OW70851   9.283  10.178   3.255 -1.1669  0.1460 -0.2694
54579SOL    HW170852   9.293  10.086   3.231 -0.2248 -0.3612  1.7784
54579SOL    HW270853   9.354  10.222   3.209 -0.9519 -0.3478 -0.4180
54580SOL     OW70854   8.925   5.010   3.934 -0.7558 -0.0598 -0.2829
54580SOL    HW170855   8.905   4.944   3.868 -0.8705  1.8656 -2.2928
54580SOL    HW270856   8.996   5.061   3.896  0.4651 -0.0018  1.9346
54581SOL     OW70857   7.337   9.940   4.028  0.3994 -0.3035 -0.1005
54581SOL    HW170858   7.274   9.957   4.098 -0.3653  0.5425 -0.9540
54581SOL    HW270859   7.308   9.857   3.990  0.8125 -0.7594  0.5779
54582SOL     OW70860  10.406   1.375   1.413  0.0383  0.5391 -0.1946
54582SOL    HW170861  10.450   1.421   1.485  1.8140  1.6430 -1.9086
54582SOL    HW270862  10.453   1.291   1.406  0.9619  1.1084 -1.0743
54583SOL     OW70863  11.600  11.869  12.314 -0.1032 -0.4849  0.3665
54583SOL    HW170864  11.689  11.903  12.312 -0.0563 -0.5986 -2.1640
54583SOL    HW270865  11.607  11.782  12.276 -1.6967  0.7886 -3.2833
54584SOL     OW70866  12.482  11.935   6.229 -0.1341  0.1097 -0.3840
54584SOL    HW170867  12.494  12.030   6.227 -0.3230  0.1223 -1.8898
54584SOL    HW270868  12.560  11.900   6.186 -0.3831 -0.3841 -0.4414
54585SOL     OW70869   3.115   3.070   0.792 -0.3930 -0.2660  0.0635
54585SOL    HW170870   3.157   3.062   0.706 -2.2281 -1.1172 -0.7954
54585SOL    HW270871   3.095   2.980   0.817 -0.3213  0.0155  1.1652
54586SOL     OW70872   5.548   5.983   5.881  0.2000 -0.0895  0.3245
54586SOL    HW170873   5.546   6.073   5.916  1.1391 -0.6652  1.9896
54586SOL    HW270874   5.612   5.987   5.810  1.5728  0.2363  1.5207
54587SOL     OW70875  11.747  12.931   4.765  0.2479 -0.1235 -0.1761
54587SOL    HW170876  11.704  12.866   4.709 -0.4345 -1.0766  1.3919
54587SOL    HW270877  11.840  12.911   4.758  0.0021 -1.8149  0.8709
54588SOL     OW70878  12.459   0.054   2.212 -0.5274  0.3926 -0.5755
54588SOL    HW170879  12.519   0.086   2.143  1.2532 -0.6963  0.3922
54588SOL    HW270880  12.423   0.134   2.250  1.1861  1.1653 -0.4750
54589SOL     OW70881   8.143   9.198   4.392  0.6374  0.4172 -0.6710
54589SOL    HW170882   8.212   9.264   4.385  0.0872  1.2153  0.9285
54589SOL    HW270883   8.159   9.156   4.476 -1.1192  0.9741 -0.0279
54590SOL     OW70884   2.541   2.151   0.396 -0.3224  0.1233 -0.4261
54590SOL    HW170885   2.539   2.071   0.344 -0.6390 -1.0285  1.2630
54590SOL    HW270886   2.449   2.180   0.400 -0.2488  0.4170 -0.7905
54591SOL     OW70887  10.481  10.490   0.576  0.6344 -0.6045  0.5594
54591SOL    HW170888  10.429  10.544   0.516  2.1347 -0.7546 -0.9827
54591SOL    HW270889  10.539  10.552   0.620  0.8213 -0.6923  0.4401
54592SOL     OW70890   7.130   5.888   3.483 -0.0785 -0.6299  0.5581
54592SOL    HW170891   7.122   5.830   3.559  1.1882 -1.3052  0.1916
54592SOL    HW270892   7.222   5.882   3.458 -0.0608  1.0777  0.1319
54593SOL     OW70893  10.103  10.961   8.527 -0.2920  0.4474 -0.8356
54593SOL    HW170894  10.176  10.913   8.489 -0.1659  0.8051 -1.0488
54593SOL    HW270895  10.038  10.965   8.456 -1.2111 -1.2708 -0.1745
54594SOL     OW70896   2.523   0.780   4.672  0.5346 -0.5450  0.6612
54594SOL    HW170897   2.477   0.715   4.725  2.3760 -0.7629  2.1149
54594SOL    HW270898   2.554   0.845   4.736  1.3919  0.0812 -0.3617
54595SOL     OW70899  12.838   5.289   4.967  0.2929 -0.3546 -0.3470
54595SOL    HW170900  12.862   5.345   5.041  0.0755 -1.2221  0.4083
54595SOL    HW270901  12.896   5.213   4.975  0.2568 -0.4668 -1.0662
54596SOL     OW70902   6.787   3.375   3.717  0.0738  0.0633  0.2491
54596SOL    HW170903   6.860   3.326   3.679 -0.1554  0.1221 -0.2807
54596SOL    HW270904   6.709   3.323   3.694  0.0153 -0.4910  1.5976
54597SOL     OW70905   8.743   6.982  11.235  0.3713 -0.5662  0.6005
54597SOL    HW170906   8.829   6.976  11.194  0.7442  1.4349  0.9842
54597SOL    HW270907   8.760   6.992  11.328 -0.2576 -0.2128  0.6903
54598SOL     OW70908   4.262   1.416  12.537  0.2135 -0.1472  0.3736
54598SOL    HW170909   4.302   1.501  12.519  1.9607 -0.2293  3.1795
54598SOL    HW270910   4.183   1.436  12.588 -0.3430 -0.1804 -0.4573
54599SOL     OW70911   6.179   6.286   8.059 -0.3582 -0.3340  0.9528
54599SOL    HW170912   6.138   6.211   8.102 -0.3246 -0.3644  0.9315
54599SOL    HW270913   6.271   6.261   8.048 -0.5118 -0.6137  0.2296
54600SOL     OW70914   8.893   2.563   2.214 -0.0354  0.2417  0.2590
54600SOL    HW170915   8.830   2.636   2.212 -0.8676 -0.3741  2.2432
54600SOL    HW270916   8.853   2.496   2.160 -0.8697  0.0490  1.0916
54601SOL     OW70917   9.540   5.239   7.336 -0.6537  0.5636 -0.3166
54601SOL    HW170918   9.471   5.184   7.374 -0.1673  0.6909  0.7827
54601SOL    HW270919   9.616   5.182   7.330 -0.2795  0.9676  0.3996
54602SOL     OW70920   7.780   6.217   7.967  0.2504 -0.3331 -0.1120
54602SOL    HW170921   7.763   6.171   7.885  0.9520  0.4199 -0.6960
54602SOL    HW270922   7.706   6.194   8.024 -1.2882  0.6899 -1.6185
54603SOL     OW70923   4.128   6.170  12.587  0.0418 -0.0025 -0.0098
54603SOL    HW170924   4.142   6.257  12.625 -0.5594 -0.1299  0.5425
54603SOL    HW270925   4.202   6.118  12.618  1.4594  0.7600 -1.9028
54604SOL     OW70926   6.772   5.359   1.923 -0.3865 -0.2577  0.0277
54604SOL    HW170927   6.812   5.413   1.991  0.7816 -1.0382  0.0092
54604SOL    HW270928   6.720   5.294   1.971 -1.4789  0.6260  0.0635
54605SOL     OW70929   9.240   4.068   8.368  0.6704 -0.2613  0.0781
54605SOL    HW170930   9.233   4.087   8.274  2.6722 -0.6594 -0.2125
54605SOL    HW270931   9.291   4.141   8.403  0.4838 -0.4405  0.7323
54606SOL     OW70932   9.694   1.118   0.958  0.1820  0.4980 -0.3410
54606SOL    HW170933   9.611   1.143   0.999 -1.3124 -2.5464 -1.1784
54606SOL    HW270934   9.746   1.083   1.031 -0.6589 -0.6748 -0.2663
54607SOL     OW70935  11.833   4.199   3.186  0.3900  0.1666  0.6665
54607SOL    HW170936  11.761   4.140   3.207 -1.1544  0.5766 -2.7956
54607SOL    HW270937  11.805   4.284   3.220 -1.6301  0.6525 -1.9331
54608SOL     OW70938   5.302   5.741   8.382 -0.4613  0.3018  0.1831
54608SOL    HW170939   5.391   5.749   8.347  0.4218  0.2292  2.2959
54608SOL    HW270940   5.262   5.672   8.329  0.2002  1.3116 -1.7577
54609SOL     OW70941  11.815   2.813   3.433  0.1815 -0.6934  0.0992
54609SOL    HW170942  11.749   2.858   3.380  0.5694  0.1299  0.3172
54609SOL    HW270943  11.818   2.862   3.515 -1.2629 -2.6258  1.3966
54610SOL     OW70944  10.672   2.779  10.850  0.4630 -0.1184 -0.7802
54610SOL    HW170945  10.732   2.777  10.776 -0.5568 -1.2848 -1.6276
54610SOL    HW270946  10.651   2.687  10.866  0.5354  0.1200  0.8758
54611SOL     OW70947   0.440  10.571   2.349 -0.3828  0.3529  0.5251
54611SOL    HW170948   0.505  10.510   2.384  0.9341  0.9583 -0.7316
54611SOL    HW270949   0.391  10.600   2.425 -0.4707 -1.5734  1.2766
54612SOL     OW70950   0.411   4.401   1.394  0.0658  0.1612  0.3228
54612SOL    HW170951   0.398   4.348   1.315 -0.4319  0.0827  0.4522
54612SOL    HW270952   0.368   4.485   1.373 -0.2487  0.0673  0.5862
54613SOL     OW70953   1.920  12.572  10.146  0.1688 -0.0726  0.3411
54613SOL    HW170954   1.971  12.565  10.226 -0.3834  0.5150  0.7455
54613SOL    HW270955   1.980  12.613  10.083  0.9061 -1.3593  0.1650
54614SOL     OW70956   5.440   3.544   0.432  0.1849 -0.1531  0.0196
54614SOL    HW170957   5.454   3.609   0.364 -0.0277 -0.5509 -0.4134
54614SOL    HW270958   5.473   3.585   0.512  1.6850 -0.1940 -0.5449
54615SOL     OW70959   2.607  11.785   2.609 -0.2964  0.5521 -0.3907
54615SOL    HW170960   2.584  11.873   2.579 -0.4704  0.5578 -0.2401
54615SOL    HW270961   2.528  11.733   2.597  0.0143  0.2322 -1.1559
54616SOL     OW70962   9.998   5.783   7.545  0.1793  0.3073 -0.0408
54616SOL    HW170963   9.920   5.782   7.489  0.4710  1.0926 -0.4731
54616SOL    HW270964  10.016   5.690   7.563 -0.3783  0.0851 -0.6055
54617SOL     OW70965   9.984   7.098   4.969  0.0288  0.4825  0.1889
54617SOL    HW170966   9.892   7.082   4.949  0.7593 -1.5206 -1.9570
54617SOL    HW270967  10.004   7.038   5.041 -0.2925  0.8566  0.5976
54618SOL     OW70968   5.699   7.429   8.639 -0.1121  0.3827  0.0591
54618SOL    HW170969   5.678   7.361   8.575 -4.1128  0.1620  1.3123
54618SOL    HW270970   5.690   7.511   8.590  0.8410  0.1272 -0.5557
54619SOL     OW70971   0.188   8.584   5.616 -0.1492  0.4090 -0.1654
54619SOL    HW170972   0.222   8.506   5.574  0.5859  0.0127  1.1284
54619SOL    HW270973   0.244   8.655   5.585 -1.2781  0.5810 -1.9275
54620SOL     OW70974   0.692  12.853   2.308 -0.2329 -0.1273 -0.2254
54620SOL    HW170975   0.680  12.759   2.302 -0.4708 -0.2203  1.3737
54620SOL    HW270976   0.727  12.878   2.223 -3.7268 -1.0783 -2.1357
54621SOL     OW70977   1.251  12.884   7.271  0.3700 -0.5448 -0.4010
54621SOL    HW170978   1.275  12.880   7.364 -0.4317 -0.9252 -0.1915
54621SOL    HW270979   1.253  12.793   7.242 -1.3029 -0.6781 -0.2146
54622SOL     OW70980   2.241   1.111   9.465 -0.1156  0.0861 -0.3987
54622SOL    HW170981   2.256   1.104   9.560 -0.3730  0.5448 -0.3191
54622SOL    HW270982   2.148   1.089   9.454  1.0506 -6.2974 -1.2914
54623SOL     OW70983   1.046   8.905   7.226 -0.0331  0.0723  0.2328
54623SOL    HW170984   1.077   8.981   7.275 -1.6998  1.2728 -0.4788
54623SOL    HW270985   1.125   8.859   7.200  0.9859  0.9502  1.6119
54624SOL     OW70986   8.028   8.234   3.721  0.7379  0.9669 -0.2386
54624SOL    HW170987   7.953   8.293   3.729  0.3732  0.4383  0.2797
54624SOL    HW270988   8.026   8.181   3.801  1.2363  0.4498 -0.5601
54625SOL     OW70989   7.498   9.508   4.502  0.4894 -0.5220  0.5024
54625SOL    HW170990   7.564   9.447   4.535  0.4086  0.1334  1.9713
54625SOL    HW270991   7.548   9.582   4.469  0.5198  0.0568  1.7852
54626SOL     OW70992   0.428   3.620   7.657 -0.0236 -0.1136  0.4676
54626SOL    HW170993   0.479   3.697   7.682 -1.2138  0.7337  0.4214
54626SOL    HW270994   0.479   3.578   7.588  0.6348  0.6624  0.4719
54627SOL     OW70995   5.643   6.963   5.377  0.4094 -0.3764  0.0194
54627SOL    HW170996   5.605   6.881   5.347 -0.9656  0.2416  0.0178
54627SOL    HW270997   5.657   6.950   5.471 -0.3772 -0.4076  0.1376
54628SOL     OW70998   7.588   6.293   5.984  0.0786  0.5363 -0.0201
54628SOL    HW170999   7.566   6.243   6.062  0.0958  2.0786  1.0100
54628SOL    HW271000   7.584   6.230   5.913  1.6096 -1.2803  1.4121
54629SOL     OW71001   8.192  10.132   5.324  0.8610  0.5847 -0.2951
54629SOL    HW171002   8.151  10.113   5.239  0.4678 -1.8613  0.3417
54629SOL    HW271003   8.200  10.046   5.366 -0.7239  1.8353  2.9488
54630SOL     OW71004  12.590   7.152  11.265  0.2074 -0.1985 -0.1034
54630SOL    HW171005  12.571   7.241  11.234 -0.4800 -0.2785  0.0692
54630SOL    HW271006  12.609   7.102  11.185 -3.4768 -0.8960 -0.7781
54631SOL     OW71007   6.360   1.549   0.807  0.1909 -0.0173  0.8322
54631SOL    HW171008   6.329   1.476   0.753  1.8387 -0.3737  0.3026
54631SOL    HW271009   6.339   1.627   0.756  2.8761 -0.4028 -1.0657
54632SOL     OW71010   8.715   7.790   1.361  0.4213  0.4112 -0.1548
54632SOL    HW171011   8.754   7.830   1.283  3.4528  0.9893  1.5021
54632SOL    HW271012   8.670   7.862   1.405  0.0416  0.4218 -0.5455
54633SOL     OW71013   8.322   7.541   8.999  0.1625 -0.3398  0.2372
54633SOL    HW171014   8.329   7.613   8.936 -0.7519 -0.9400 -0.5736
54633SOL    HW271015   8.364   7.467   8.955  0.1448 -0.5805  0.6232
54634SOL     OW71016   9.853   0.188   9.772 -0.7319 -0.1716 -0.4165
54634SOL    HW171017   9.948   0.194   9.759 -0.5617  0.3947  0.9038
54634SOL    HW271018   9.816   0.200   9.685  0.4416 -1.5793 -1.1479
54635SOL     OW71019   4.292  11.645   3.080 -0.3496  0.4714  0.6160
54635SOL    HW171020   4.205  11.619   3.051 -0.2538  1.4873 -0.6524
54635SOL    HW271021   4.345  11.566   3.069 -0.3636  0.7259 -1.8963
54636SOL     OW71022   4.711   1.007   3.783  0.2936 -0.1610 -1.0089
54636SOL    HW171023   4.693   0.915   3.801  0.2876  0.0384  0.1135
54636SOL    HW271024   4.794   1.007   3.735  1.7580 -0.6436  1.3479
54637SOL     OW71025  11.564   2.380  12.222  0.0161  0.0280  0.4379
54637SOL    HW171026  11.503   2.327  12.274  0.3724 -0.4778  0.3479
54637SOL    HW271027  11.611   2.316  12.168  0.5426  0.4290  0.4181
54638SOL     OW71028  10.839   4.925   4.260  0.3479 -0.2995  0.0095
54638SOL    HW171029  10.843   4.855   4.325 -0.0348 -0.1587  0.1892
54638SOL    HW271030  10.815   4.881   4.178 -1.1929 -0.2271  0.3860
54639SOL     OW71031   2.502   6.582  12.780 -0.6287  0.0812  0.3242
54639SOL    HW171032   2.527   6.578  12.872 -1.9397  0.6251  0.7202
54639SOL    HW271033   2.413   6.617  12.780 -0.2814  1.0863 -1.2055
54640SOL     OW71034  10.006   9.498   2.336 -1.0770  0.0549  0.4301
54640SOL    HW171035  10.015   9.592   2.352  0.8259  0.3797 -1.9382
54640SOL    HW271036   9.912   9.484   2.327 -1.4219  1.6426  1.1577
54641SOL     OW71037   1.475   2.221   6.612 -0.6598 -0.0059  0.5820
54641SOL    HW171038   1.541   2.280   6.649 -1.2860  1.0866  0.0142
54641SOL    HW271039   1.468   2.150   6.675  2.1827 -0.9839 -0.0688
54642SOL     OW71040  12.235   8.392   7.923 -0.0596 -0.0723 -0.9424
54642SOL    HW171041  12.195   8.453   7.861  0.5203  0.5918 -0.6767
54642SOL    HW271042  12.274   8.448   7.990 -1.6988 -0.7701  0.7085
54643SOL     OW71043   7.188   4.019   7.544 -0.1605  0.0133 -0.0959
54643SOL    HW171044   7.145   4.103   7.532  0.3482  0.7178  2.4918
54643SOL    HW271045   7.250   4.013   7.471  1.5445  3.0692  0.9533
54644SOL     OW71046  12.327   3.209  12.188 -0.0243  0.1738  0.3000
54644SOL    HW171047  12.385   3.215  12.112  0.4616 -2.3622  0.4062
54644SOL    HW271048  12.267   3.283  12.177  0.8287  0.6322 -1.8650
54645SOL     OW71049   7.913   9.837   5.051 -0.4985  0.4290  0.1344
54645SOL    HW171050   7.985   9.775   5.060 -0.4636  0.5166  0.5038
54645SOL    HW271051   7.890   9.860   5.142 -0.5495  0.9057  0.0042
54646SOL     OW71052   1.866   4.672   3.748 -0.0799  0.6983 -0.6698
54646SOL    HW171053   1.877   4.660   3.842 -0.6168 -0.0420 -0.6931
54646SOL    HW271054   1.912   4.598   3.709  0.8036  1.4231 -1.0261
54647SOL     OW71055   6.306   6.591   8.792 -0.1355  1.1362 -0.1830
54647SOL    HW171056   6.401   6.605   8.792  0.0274  0.1315 -0.8577
54647SOL    HW271057   6.295   6.503   8.757 -1.1377 -0.2710  3.2506
54648SOL     OW71058   9.759  11.664   2.020  0.2917 -0.1021  0.0239
54648SOL    HW171059   9.826  11.733   2.027 -0.4425  0.8101 -1.4998
54648SOL    HW271060   9.684  11.708   1.980 -1.5897 -0.8858  2.5106
54649SOL     OW71061   0.098   3.289   8.553  0.1181  0.1847 -0.4727
54649SOL    HW171062   0.104   3.384   8.554  0.5300  0.1638 -0.3538
54649SOL    HW271063   0.188   3.260   8.569 -0.4234 -0.2205  2.3818
54650SOL     OW71064   2.781  12.033   1.154  0.1526  0.4327 -0.0982
54650SOL    HW171065   2.717  12.042   1.083  0.5094  0.5580 -0.4102
54650SOL    HW271066   2.859  12.076   1.120  0.7240 -0.6101 -0.1269
54651SOL     OW71067   5.417   1.196   5.726  0.1207  0.6193  0.4089
54651SOL    HW171068   5.397   1.269   5.784  1.9881  1.0692  0.5526
54651SOL    HW271069   5.446   1.126   5.784  0.2879  0.4666  0.1434
54652SOL     OW71070   4.597  10.704   4.475  0.2164 -0.0839 -0.4951
54652SOL    HW171071   4.679  10.665   4.443  1.2504  1.1290  0.5550
54652SOL    HW271072   4.599  10.688   4.570 -1.6995 -1.6537 -0.6572
54653SOL     OW71073   8.035  12.003   5.245 -0.1070  0.7345  0.3431
54653SOL    HW171074   8.082  12.020   5.163 -2.1191  0.6320 -0.8906
54653SOL    HW271075   7.954  11.961   5.218 -0.1337 -0.7842  2.5405
54654SOL     OW71076  12.939  12.859  10.768 -0.0598  0.3148 -0.3898
54654SOL    HW171077  12.857  12.855  10.817  0.8831 -1.2002  1.2258
54654SOL    HW271078  12.925  12.926  10.702 -3.1270 -0.9356 -1.2002
54655SOL     OW71079   9.719  10.186  10.790  0.1601 -0.7716  0.1134
54655SOL    HW171080   9.772  10.111  10.764  1.3310  0.6725 -1.9930
54655SOL    HW271081   9.643  10.148  10.833  0.6405 -3.1739 -0.9814
54656SOL     OW71082  12.216   7.699  11.799 -0.0429  0.6609 -0.3578
54656SOL    HW171083  12.184   7.740  11.879 -0.5983 -0.5021  0.0476
54656SOL    HW271084  12.142   7.705  11.738 -0.1534  0.2215 -0.2725
54657SOL     OW71085  12.737   7.155   8.372 -0.0935 -0.1336  0.2291
54657SOL    HW171086  12.644   7.180   8.378  0.4139  1.8187  0.9676
54657SOL    HW271087  12.758   7.161   8.279 -0.3538  0.9735  0.2254
54658SOL     OW71088  11.666   3.028   0.664 -0.0750 -0.1633 -0.6270
54658SOL    HW171089  11.627   2.973   0.597  0.3982 -0.9865 -0.2361
54658SOL    HW271090  11.592   3.077   0.701 -0.4019 -0.0415 -1.4203
54659SOL     OW71091   7.394   0.738   5.598  0.0642  0.1192  0.5164
54659SOL    HW171092   7.323   0.778   5.647 -2.5553 -1.6339 -1.5502
54659SOL    HW271093   7.372   0.644   5.595  0.5692 -0.0266 -2.9696
54660SOL     OW71094   3.955   7.165   1.893 -0.7150 -0.3513 -0.3671
54660SOL    HW171095   3.931   7.080   1.856 -0.8001 -1.5235  2.2163
54660SOL    HW271096   3.883   7.224   1.868 -1.4491 -1.4170 -0.8288
54661SOL     OW71097   1.236  12.383   1.729 -0.5072 -0.2000  0.1560
54661SOL    HW171098   1.151  12.340   1.727  0.1187 -1.8004  3.0702
54661SOL    HW271099   1.286  12.342   1.658 -2.1655  1.0562 -1.8708
54662SOL     OW71100  11.630   5.499   5.115  0.1662  0.0548 -0.2390
54662SOL    HW171101  11.700   5.543   5.164  0.3584  0.5314 -0.9210
54662SOL    HW271102  11.665   5.491   5.026 -0.9246  0.9692 -0.7783
54663SOL     OW71103   9.025   1.229   0.619  0.4481 -0.1122 -0.1004
54663SOL    HW171104   9.027   1.237   0.714  2.0976  0.3639 -0.1442
54663SOL    HW271105   9.117   1.234   0.593 -0.0311  0.4805 -1.7771
54664SOL     OW71106   1.829   0.266   7.660 -0.1819 -0.0526 -0.6953
54664SOL    HW171107   1.827   0.219   7.576 -0.9451 -0.1783 -0.6092
54664SOL    HW271108   1.737   0.282   7.681 -0.0308 -0.6547  0.4792
54665SOL     OW71109   8.003   8.637   2.849 -0.5329 -0.5286 -0.4031
54665SOL    HW171110   7.928   8.698   2.849 -1.1504 -1.2654 -1.1882
54665SOL    HW271111   8.060   8.670   2.780  0.3660  0.5975  0.8330
54666SOL     OW71112   8.062   9.714   4.743 -0.1646  0.1897 -0.3778
54666SOL    HW171113   8.059   9.735   4.836 -0.6773  0.0497 -0.3592
54666SOL    HW271114   7.972   9.727   4.712 -0.1912 -0.6011 -0.6668
54667SOL     OW71115  10.978   2.966  10.854 -0.7577  0.1265  0.5283
54667SOL    HW171116  10.886   2.978  10.830 -0.6110 -1.3896 -0.9362
54667SOL    HW271117  11.027   3.006  10.782 -0.3062 -2.1923 -0.5170
54668SOL     OW71118   4.261   4.257   6.625  0.2225  0.2139 -0.1804
54668SOL    HW171119   4.247   4.235   6.533 -1.7908 -1.7688  0.5090
54668SOL    HW271120   4.176   4.291   6.655  0.6968  0.3419  1.0764
54669SOL     OW71121  10.518  12.356   8.528  0.3529  0.2235 -0.6354
54669SOL    HW171122  10.460  12.330   8.457 -0.0585 -0.2405 -0.1382
54669SOL    HW271123  10.466  12.416   8.581  0.1775 -0.4950  0.0275
54670SOL     OW71124  12.170  11.219   2.944 -0.3815  0.1093 -0.0281
54670SOL    HW171125  12.179  11.157   2.872 -0.0033 -0.1346  0.2247
54670SOL    HW271126  12.160  11.304   2.902  1.5418  0.2015 -0.3754
54671SOL     OW71127   8.107   5.533   5.459 -0.8594  0.0611 -0.3472
54671SOL    HW171128   8.169   5.602   5.434 -0.7276 -0.4090 -1.3649
54671SOL    HW271129   8.149   5.487   5.532 -0.4771  0.3908 -0.3586
54672SOL     OW71130  10.057   3.812   5.572 -0.3472 -0.5374  0.1411
54672SOL    HW171131   9.976   3.773   5.605 -0.7795  1.6878  1.9234
54672SOL    HW271132  10.069   3.891   5.623  1.9009  0.3027 -1.4942
54673SOL     OW71133   5.789   5.996  11.226  0.1829 -0.0044 -0.3573
54673SOL    HW171134   5.854   6.035  11.167  1.4938  1.9476  2.1614
54673SOL    HW271135   5.800   5.902  11.216  1.7251  0.2854 -1.7465
54674SOL     OW71136   5.094   5.275   0.996  0.0937  0.4998 -0.1937
54674SOL    HW171137   5.042   5.195   0.998  0.5406  0.2180  0.3339
54674SOL    HW271138   5.039   5.338   0.949 -1.8527  0.9744  2.4745
54675SOL     OW71139  12.183   9.396   8.988  0.4515 -0.1019 -0.3453
54675SOL    HW171140  12.170   9.328   9.054 -0.0537  0.4242  0.1072
54675SOL    HW271141  12.222   9.469   9.036 -2.1124  1.1891 -0.0602
54676SOL     OW71142   6.327   5.324   3.530  0.3748 -0.5250  0.2892
54676SOL    HW171143   6.334   5.397   3.468  3.2284  0.2241  1.3705
54676SOL    HW271144   6.248   5.278   3.502  0.5033  0.8212 -2.7429
54677SOL     OW71145   3.218   5.396   6.213 -0.1461 -0.0603 -0.2998
54677SOL    HW171146   3.134   5.430   6.244  0.0987 -0.4657  0.8671
54677SOL    HW271147   3.282   5.460   6.243  0.0939 -0.4544  0.0488
54678SOL     OW71148   3.338  10.034   6.630 -0.0511 -0.7147  0.1348
54678SOL    HW171149   3.243  10.042   6.629  0.1011  2.3912  0.6252
54678SOL    HW271150   3.366  10.087   6.705  2.0902 -1.4382 -0.0742
54679SOL     OW71151   0.507   0.078   0.984 -0.2076 -0.0112  0.3346
54679SOL    HW171152   0.452   0.151   1.012 -2.3214 -0.9500 -1.1387
54679SOL    HW271153   0.473   0.053   0.898  0.6513 -2.5168  0.6368
54680SOL     OW71154   9.255   5.420  12.927  0.1909  0.6653  0.5416
54680SOL    HW171155   9.326   5.361  12.900  0.0210  0.9234 -0.5313
54680SOL    HW271156   9.298   5.503  12.944  0.0917  0.9868 -0.6939
54681SOL     OW71157  10.871  11.873  10.753  0.1673 -0.2163  0.1230
54681SOL    HW171158  10.930  11.914  10.816 -0.9648 -0.6127  1.4842
54681SOL    HW271159  10.903  11.783  10.744  0.2237 -0.2113  0.2775
54682SOL     OW71160   0.490   7.996   2.910 -0.1163  0.5944 -0.3863
54682SOL    HW171161   0.501   8.005   2.816 -0.3397  0.3298 -0.4396
54682SOL    HW271162   0.572   7.957   2.940 -0.6338 -0.7921 -0.6958
54683SOL     OW71163   9.478   1.285  11.002 -0.2846  0.1928  0.0538
54683SOL    HW171164   9.544   1.328  10.948  0.6320 -1.6211 -0.3600
54683SOL    HW271165   9.402   1.343  11.000 -0.3432  0.1520 -3.2776
54684SOL     OW71166  12.950   0.609   3.295  0.2366 -0.0100 -0.3442
54684SOL    HW171167  12.880   0.649   3.347 -0.4556  0.2583 -1.4486
54684SOL    HW271168  12.914   0.523   3.269  0.6289 -0.2004 -0.2615
54685SOL     OW71169   0.803   7.314   4.716 -0.2267 -0.1726 -0.2014
54685SOL    HW171170   0.804   7.246   4.649 -0.1237 -0.0982 -0.2763
54685SOL    HW271171   0.842   7.390   4.673 -0.2323 -0.1018 -0.0810
54686SOL     OW71172   6.200   0.558   2.407  0.0539  0.2964 -0.5077
54686SOL    HW171173   6.187   0.463   2.401 -2.1134  0.4949  0.2757
54686SOL    HW271174   6.252   0.570   2.487  0.6510 -0.2225 -0.8025
54687SOL     OW71175   0.304   8.880   6.006  0.4839  0.0135  0.3149
54687SOL    HW171176   0.382   8.921   6.044  0.4462 -0.0766  0.4958
54687SOL    HW271177   0.335   8.795   5.975  0.4948  0.0490  0.2305
54688SOL     OW71178   0.628  11.428   2.656 -0.4989 -0.5543  0.8767
54688SOL    HW171179   0.711  11.461   2.692  0.1829 -1.0846 -0.1488
54688SOL    HW271180   0.645  11.335   2.638 -0.8059 -0.3358 -0.7277
54689SOL     OW71181   7.732   0.807   1.572 -0.0509 -0.1624  0.3089
54689SOL    HW171182   7.824   0.831   1.561 -0.5700  1.6796 -0.4180
54689SOL    HW271183   7.715   0.819   1.665  0.4183 -0.3981  0.4269
54690SOL     OW71184   3.638  10.610  11.848  0.0109 -0.2700  0.2118
54690SOL    HW171185   3.689  10.691  11.851 -1.1654  0.5715 -1.2105
54690SOL    HW271186   3.558  10.634  11.801 -0.8069 -2.0297  0.6384
54691SOL     OW71187   4.828   5.467   2.558 -0.2563 -0.0670 -0.0418
54691SOL    HW171188   4.803   5.514   2.637  2.8929  0.2034  0.9373
54691SOL    HW271189   4.811   5.375   2.577  1.9197 -0.1868  1.6836
54692SOL     OW71190   1.376   1.260   9.546  0.1726  0.3266 -0.3870
54692SOL    HW171191   1.447   1.221   9.496 -0.4531 -0.7645 -0.4513
54692SOL    HW271192   1.316   1.295   9.479  0.1689  0.3839 -0.3539
54693SOL     OW71193   7.168   6.944   3.189 -0.2073 -0.3098 -0.2674
54693SOL    HW171194   7.224   7.021   3.199 -2.2143  1.0970  1.0153
54693SOL    HW271195   7.218   6.872   3.228  1.7770  0.2656 -1.6407
54694SOL     OW71196   1.756   7.174   1.839 -0.3486  0.1198 -0.3302
54694SOL    HW171197   1.695   7.242   1.812 -0.4954  0.9407  1.8584
54694SOL    HW271198   1.843   7.212   1.825 -0.3937  0.0571 -0.7855
54695SOL     OW71199   0.528   8.351   9.569 -0.4293  0.2216  0.2517
54695SOL    HW171200   0.468   8.362   9.642 -2.2473 -0.8695 -1.0051
54695SOL    HW271201   0.502   8.268   9.528  1.4499  0.0909 -0.7950
54696SOL     OW71202  12.230  12.906   1.426 -0.4410 -0.0121  0.1000
54696SOL    HW171203  12.194  12.923   1.339 -1.1563  0.6748  0.5102
54696SOL    HW271204  12.195  12.977   1.480  3.3637  2.1114  0.0993
54697SOL     OW71205   0.925   1.984   8.689  0.5765  0.3329  0.5485
54697SOL    HW171206   1.005   2.036   8.695  0.7714  0.0704  0.2920
54697SOL    HW271207   0.907   1.978   8.595  0.7720 -0.3753  0.5465
54698SOL     OW71208  12.018   3.052  11.479 -0.9153  0.5527  0.5569
54698SOL    HW171209  12.005   3.050  11.384  1.9514  2.0210  0.0527
54698SOL    HW271210  11.945   3.000  11.513 -2.2080  0.2059 -2.3935
54699SOL     OW71211   6.262   6.057   5.550  0.3796 -0.2225 -0.4036
54699SOL    HW171212   6.322   6.056   5.475  0.0827 -0.5334 -0.6367
54699SOL    HW271213   6.298   5.993   5.611  0.3251 -0.3559 -0.5116
54700SOL     OW71214   2.843   0.272   4.532 -0.1122 -0.2268 -0.0096
54700SOL    HW171215   2.859   0.343   4.593  0.0661 -0.5069  0.2753
54700SOL    HW271216   2.840   0.193   4.586 -1.4832 -0.3142 -0.1758
54701SOL     OW71217  11.545   6.808  11.477 -0.0428 -0.0039  0.1231
54701SOL    HW171218  11.619   6.800  11.417 -0.0025 -1.7478  0.3563
54701SOL    HW271219  11.585   6.817  11.564 -0.0213 -2.7222  0.4694
54702SOL     OW71220  11.960   4.233   8.885  0.6154  0.4557  0.0083
54702SOL    HW171221  12.007   4.291   8.826  1.5230 -0.0839  0.1747
54702SOL    HW271222  12.028   4.178   8.924 -0.1395 -0.2394  0.3854
54703SOL     OW71223   0.078  12.428   8.700 -0.5924 -0.3397 -0.1817
54703SOL    HW171224   0.018  12.391   8.765  0.0357 -3.0744 -0.9998
54703SOL    HW271225   0.074  12.367   8.626  0.4741  1.3861 -1.7405
54704SOL     OW71226  12.783   7.788   9.631  0.1722  0.9439  0.0324
54704SOL    HW171227  12.719   7.786   9.702  0.6185  1.6092  0.4567
54704SOL    HW271228  12.776   7.701   9.591 -0.8884  0.9558  0.1597
54705SOL     OW71229  12.271   8.187   3.545 -0.1479 -0.3269 -0.3853
54705SOL    HW171230  12.254   8.227   3.460 -1.2545  0.8357  0.3519
54705SOL    HW271231  12.341   8.241   3.583  0.9776 -1.3841 -0.8973
54706SOL     OW71232  12.322   9.560   1.676  0.7783  0.4543 -0.4476
54706SOL    HW171233  12.353   9.505   1.603  1.8449  1.4881 -0.8069
54706SOL    HW271234  12.236   9.523   1.698  1.7774 -1.8920 -0.1067
54707SOL     OW71235   0.216   1.539   4.900  0.0699  0.6967  0.0109
54707SOL    HW171236   0.133   1.498   4.925  2.3806 -4.5382  0.3516
54707SOL    HW271237   0.256   1.565   4.983  0.2597 -0.0777  0.1629
54708SOL     OW71238   0.844   8.558   8.012  0.1264  0.0277 -0.3381
54708SOL    HW171239   0.799   8.476   7.996 -0.4059  0.5273 -1.4672
54708SOL    HW271240   0.833   8.573   8.106  0.1350 -1.1222 -0.1432
54709SOL     OW71241   0.027   1.964   3.275  0.5741 -0.8997 -0.3053
54709SOL    HW171242   0.040   2.052   3.239 -1.5542 -0.1032  0.6759
54709SOL    HW271243  -0.048   1.930   3.227  1.3276 -2.1774 -0.6110
54710SOL     OW71244   1.442   2.718  11.142  0.3206 -0.5404 -0.0499
54710SOL    HW171245   1.528   2.677  11.150  0.9649  0.6060 -0.7401
54710SOL    HW271246   1.427   2.757  11.228  2.3614  2.6316 -0.9412
54711SOL     OW71247   2.220   6.349   3.255 -0.1671  0.1848  0.2089
54711SOL    HW171248   2.136   6.384   3.225  0.2309  0.3806 -0.7272
54711SOL    HW271249   2.219   6.360   3.350 -0.0852  2.7448 -0.0213
54712SOL     OW71250   5.843   8.587   6.467  0.2124  0.4886 -0.1633
54712SOL    HW171251   5.936   8.607   6.460  0.4784  0.2851  2.1405
54712SOL    HW271252   5.836   8.494   6.444  0.8331  0.0953  1.1725
54713SOL     OW71253   9.790  10.722   7.665  0.4622 -0.6332  0.4778
54713SOL    HW171254   9.744  10.660   7.720 -0.8336 -0.8181 -0.7578
54713SOL    HW271255   9.864  10.673   7.630  0.6559 -0.8337  1.1465
54714SOL     OW71256   6.368  12.482   2.522 -0.7543  0.1289 -0.0322
54714SOL    HW171257   6.305  12.554   2.522 -0.5670  0.3384  1.8725
54714SOL    HW271258   6.314  12.403   2.522 -0.9614  0.1907 -2.5054
54715SOL     OW71259   4.503   5.413  12.540  0.1824 -0.5483  0.2335
54715SOL    HW171260   4.462   5.440  12.622  0.5950 -1.4602  0.7560
54715SOL    HW271261   4.569   5.349  12.566  1.9940  0.9076 -0.5835
54716SOL     OW71262   2.160   2.700   5.301  0.4439  0.1499  0.7109
54716SOL    HW171263   2.197   2.752   5.372 -0.5615  0.4784  1.0089
54716SOL    HW271264   2.070   2.732   5.292  0.8790  0.9355 -1.4783
54717SOL     OW71265   7.486   1.619   0.854  0.5381 -0.3555  0.6541
54717SOL    HW171266   7.509   1.651   0.767  0.5042  0.7388  1.0290
54717SOL    HW271267   7.530   1.679   0.914  0.7192 -1.2048  1.4050
54718SOL     OW71268   4.612  10.839   4.950  0.1665 -0.2342 -0.0012
54718SOL    HW171269   4.635  10.751   4.918  2.5171  0.2073  0.3232
54718SOL    HW271270   4.647  10.899   4.884 -0.3672  0.5081  0.3750
54719SOL     OW71271   6.833   1.150   7.751  0.3497  0.3564 -0.7799
54719SOL    HW171272   6.892   1.204   7.803  1.0878 -0.6312 -0.5594
54719SOL    HW271273   6.875   1.064   7.749 -0.4475 -0.0287 -1.7044
54720SOL     OW71274  11.498   4.507   0.148  0.1927  0.2777  0.1662
54720SOL    HW171275  11.490   4.602   0.156 -0.4024  0.2671 -0.2506
54720SOL    HW271276  11.584   4.493   0.108  0.7860  0.5801  1.2972
54721SOL     OW71277   3.987   2.964   1.813 -0.5070 -0.4322  0.2770
54721SOL    HW171278   4.079   2.975   1.789  0.1376 -0.5409  2.4834
54721SOL    HW271279   3.975   2.870   1.822 -1.0128 -0.4591 -0.5283
54722SOL     OW71280   9.190   2.684   3.437  0.5562  0.0612 -0.2469
54722SOL    HW171281   9.140   2.690   3.355  0.2319 -0.9691 -0.1399
54722SOL    HW271282   9.128   2.710   3.505  0.3266 -0.6572 -0.1730
54723SOL     OW71283   3.136   7.598   3.346 -0.8158 -0.0396  0.1233
54723SOL    HW171284   3.192   7.668   3.314 -1.4520 -0.9921 -3.5219
54723SOL    HW271285   3.195   7.523   3.356 -0.3977  0.5310  2.6535
54724SOL     OW71286   3.727   9.829   2.134  0.4132  0.2244  0.0843
54724SOL    HW171287   3.717   9.737   2.110  0.1895  0.7007 -1.7598
54724SOL    HW271288   3.642   9.869   2.113  0.3072  0.7569  1.4296
54725SOL     OW71289   9.789   1.168  10.352 -0.5750 -0.1446 -0.6528
54725SOL    HW171290   9.769   1.213  10.270  0.4501  1.6891  0.0439
54725SOL    HW271291   9.723   1.202  10.414 -0.2491 -0.1571 -0.2962
54726SOL     OW71292   3.885   7.452   9.804 -0.3911  0.1032  0.4573
54726SOL    HW171293   3.952   7.417   9.863 -0.0368  1.1596  0.7163
54726SOL    HW271294   3.934   7.501   9.738 -0.7412 -1.5105 -1.0903
54727SOL     OW71295   6.244   8.222   7.399  0.0897  0.5730  0.2166
54727SOL    HW171296   6.264   8.316   7.391  2.7033  0.0684 -0.1578
54727SOL    HW271297   6.282   8.197   7.483 -1.4714  0.0105  0.7840
54728SOL     OW71298   1.326   2.308   0.708 -0.4585  0.0521 -0.2048
54728SOL    HW171299   1.421   2.306   0.694 -0.1327  2.2466  1.0336
54728SOL    HW271300   1.290   2.344   0.627 -0.2432 -0.7390 -0.6605
54729SOL     OW71301   2.113   8.073   9.859  0.1776  0.3719  0.2961
54729SOL    HW171302   2.076   8.161   9.860 -3.4406 -0.9722  0.7742
54729SOL    HW271303   2.090   8.036   9.944 -1.6985 -2.1551 -1.1733
54730SOL     OW71304   1.492  11.318   4.028 -0.8892 -0.3895 -0.0411
54730SOL    HW171305   1.580  11.337   4.061 -0.9570  1.7347 -0.8885
54730SOL    HW271306   1.442  11.293   4.106  0.2919 -1.0497  0.5429
54731SOL     OW71307   2.706   6.174   1.424 -0.0781 -0.0594 -0.5617
54731SOL    HW171308   2.721   6.081   1.442 -2.0951 -0.3954 -0.3763
54731SOL    HW271309   2.612   6.181   1.411 -0.4154  2.4119  2.1501
54732SOL     OW71310   6.262  12.594   3.311 -0.6400 -0.2150 -0.0586
54732SOL    HW171311   6.343  12.586   3.362  0.1423 -0.1187 -1.2222
54732SOL    HW271312   6.206  12.523   3.343 -0.5772  0.4336  1.5800
54733SOL     OW71313   3.011   6.352   0.848 -0.1036  0.2715 -0.3447
54733SOL    HW171314   2.983   6.326   0.760 -1.2788 -0.3871  0.2015
54733SOL    HW271315   3.070   6.282   0.875  0.3887  0.5576 -0.6623
54734SOL     OW71316   2.106   4.197   0.427 -0.1249 -0.3548  0.3213
54734SOL    HW171317   2.025   4.192   0.377  1.2729  3.3295 -2.8134
54734SOL    HW271318   2.174   4.176   0.364  1.5532 -1.9489  2.4999
54735SOL     OW71319   8.099   3.506   7.067  0.5933 -0.4050 -0.6344
54735SOL    HW171320   8.149   3.425   7.081  2.0248  0.4680 -0.5673
54735SOL    HW271321   8.011   3.485   7.099  1.2161 -1.6002  0.3861
54736SOL     OW71322   7.258  12.558   4.462  0.1825  0.0444  0.2823
54736SOL    HW171323   7.286  12.467   4.473  2.3258  0.6294  0.0719
54736SOL    HW271324   7.302  12.605   4.532 -0.3441  1.0318 -0.0369
54737SOL     OW71325   2.056   9.777  12.409  0.2272 -0.3080 -0.1170
54737SOL    HW171326   2.116   9.822  12.468  0.5988 -0.0490 -0.6802
54737SOL    HW271327   2.070   9.684  12.428 -0.2465 -0.2068  0.7615
54738SOL     OW71328   8.076   9.765   3.289  0.1175  0.4124 -0.1295
54738SOL    HW171329   8.096   9.744   3.380  1.9811  3.0008  0.1466
54738SOL    HW271330   8.096   9.684   3.241  1.1029 -0.3628  1.4894
54739SOL     OW71331   0.890   0.607   2.741  0.0577  0.1117  0.5251
54739SOL    HW171332   0.805   0.598   2.783  0.4348 -0.7157  1.1632
54739SOL    HW271333   0.882   0.557   2.659  0.3824 -1.3293  1.3311
54740SOL     OW71334  12.919   7.317   1.202 -0.4451 -0.3104 -0.0358
54740SOL    HW171335  12.911   7.402   1.244 -1.0692 -0.9491  1.2071
54740SOL    HW271336  12.919   7.254   1.275 -1.1303 -1.4438 -0.9699
54741SOL     OW71337   0.392   8.054   4.551  0.4275  0.2485 -0.3020
54741SOL    HW171338   0.299   8.041   4.537  0.3248  0.5039  0.1158
54741SOL    HW271339   0.404   8.045   4.646  0.8549  0.0464 -0.3690
54742SOL     OW71340   9.452   3.957   1.993 -0.3600  0.0811  0.0402
54742SOL    HW171341   9.479   3.998   1.911 -0.4749 -0.3031 -0.1918
54742SOL    HW271342   9.476   4.021   2.060 -1.0380  0.7694 -0.3577
54743SOL     OW71343   7.235   7.533   7.705  0.3743  0.0548  0.2710
54743SOL    HW171344   7.205   7.450   7.742  0.6079  0.6264  1.8110
54743SOL    HW271345   7.318   7.512   7.663 -0.5450 -0.8814 -1.1576
54744SOL     OW71346   9.256   3.620   1.803 -0.1602 -0.0658 -0.5758
54744SOL    HW171347   9.166   3.594   1.787  0.7273 -3.7351 -0.4155
54744SOL    HW271348   9.270   3.603   1.896  0.8017  0.1033 -0.6767
54745SOL     OW71349  11.913   8.151   0.086 -0.9535  0.1173 -0.3223
54745SOL    HW171350  11.868   8.102   0.017  0.7683 -1.7240 -0.2156
54745SOL    HW271351  11.885   8.108   0.167 -0.1856 -0.0793 -0.1569
54746SOL     OW71352   2.589  12.049   4.963  0.0400 -0.5189  0.1532
54746SOL    HW171353   2.612  12.024   5.053  0.0680  0.1005  0.3257
54746SOL    HW271354   2.590  11.967   4.914  0.3031 -0.8246  0.6603
54747SOL     OW71355  12.019  12.805   5.511  0.9730  0.1623 -0.1076
54747SOL    HW171356  12.033  12.769   5.424  1.7064  1.6648 -0.6523
54747SOL    HW271357  11.976  12.889   5.495  1.6723  0.7392  0.9270
54748SOL     OW71358   9.761   3.609  10.095  0.3773 -0.0996  0.0259
54748SOL    HW171359   9.775   3.647  10.008 -0.4938 -0.4838 -0.2936
54748SOL    HW271360   9.670   3.631  10.116  0.7731  0.5747  1.1390
54749SOL     OW71361   3.849   3.164   3.060  0.2583  0.1442  0.0064
54749SOL    HW171362   3.854   3.103   3.134 -0.6677  0.2418  0.1717
54749SOL    HW271363   3.939   3.172   3.028  0.6040 -0.2129  0.8702
54750SOL     OW71364   8.236   0.084   5.635  0.7419  0.3308  0.6245
54750SOL    HW171365   8.253   0.021   5.706 -0.4386  0.5555  1.1453
54750SOL    HW271366   8.140   0.091   5.633  0.7292 -0.0291 -1.3359
54751SOL     OW71367   3.838   6.100   1.416 -0.5915 -0.2309 -0.0061
54751SOL    HW171368   3.787   6.149   1.481 -2.1171 -0.8604 -0.7018
54751SOL    HW271369   3.786   6.022   1.398  1.0387 -1.3293 -0.1272
54752SOL     OW71370   4.006   4.572   6.911 -0.8314 -0.1296  0.1802
54752SOL    HW171371   3.981   4.493   6.863  0.8270 -0.0215 -0.9735
54752SOL    HW271372   4.102   4.568   6.915 -0.7319  1.6529  0.3690
54753SOL     OW71373   0.449   2.750   2.338  0.3931  0.4424 -0.2313
54753SOL    HW171374   0.514   2.692   2.378 -0.4979 -0.6751 -0.3578
54753SOL    HW271375   0.418   2.805   2.410 -0.1806 -0.5913  0.3146
54754SOL     OW71376   0.756   5.159   0.044  0.0243 -0.0077  0.2857
54754SOL    HW171377   0.693   5.193   0.108 -0.2857  0.6496 -0.3566
54754SOL    HW271378   0.836   5.210   0.059 -0.0731  0.2004  0.0975
54755SOL     OW71379   4.127   4.430   9.515  0.5952 -0.0831 -0.6945
54755SOL    HW171380   4.070   4.459   9.444  1.3832  0.2742 -1.1910
54755SOL    HW271381   4.098   4.480   9.591  0.1605 -0.0103 -0.9069
54756SOL     OW71382   1.734   7.447   3.342 -0.0980  0.0875 -0.1657
54756SOL    HW171383   1.752   7.510   3.411  0.3085  1.1051 -1.1601
54756SOL    HW271384   1.658   7.483   3.296 -0.8392 -0.9694  0.2036
54757SOL     OW71385   5.647   4.720   9.648 -0.0711 -0.2260  0.3645
54757SOL    HW171386   5.705   4.657   9.689 -0.7860 -2.1106 -1.3431
54757SOL    HW271387   5.677   4.725   9.557 -1.7622 -0.3156 -0.2423
54758SOL     OW71388   2.187   6.491   7.241 -0.6104  0.3822 -0.5170
54758SOL    HW171389   2.214   6.403   7.214  0.9903  0.6137  0.2026
54758SOL    HW271390   2.217   6.498   7.331 -1.1737  1.5080 -0.3988
54759SOL     OW71391  11.968   2.026   8.429  0.0894  0.0635  0.2778
54759SOL    HW171392  11.888   2.079   8.429  0.2370  0.3254  1.7445
54759SOL    HW271393  11.959   1.969   8.505  0.9933 -0.4091  0.0467
54760SOL     OW71394  12.903   3.238   7.596  0.2157  0.0975 -0.0094
54760SOL    HW171395  12.977   3.299   7.601  0.6743 -0.4716  0.3231
54760SOL    HW271396  12.854   3.252   7.676  0.8128 -0.5709  0.4887
54761SOL     OW71397   1.804   6.101  11.471 -0.2521  0.3901  0.1352
54761SOL    HW171398   1.811   6.103  11.567 -0.4377  3.1363  0.1691
54761SOL    HW271399   1.730   6.042  11.454  0.4745 -1.0297  1.5724
54762SOL     OW71400   3.538  11.170   1.703 -0.2392  0.5107  0.2603
54762SOL    HW171401   3.490  11.221   1.637  0.5683 -0.7000 -1.3524
54762SOL    HW271402   3.470  11.136   1.761 -0.8309  3.0547  1.2047
54763SOL     OW71403   6.592   1.475   7.826 -0.3056  0.3553 -0.2367
54763SOL    HW171404   6.573   1.382   7.812  0.6209  0.1795 -0.4030
54763SOL    HW271405   6.563   1.518   7.745  3.2618 -0.3952 -2.1098
54764SOL     OW71406   9.104   8.142   8.298 -0.3375  0.0830 -0.5113
54764SOL    HW171407   9.141   8.074   8.241  2.8158 -0.1865  1.5775
54764SOL    HW271408   9.175   8.206   8.308 -2.2496  2.3051 -0.1946
54765SOL     OW71409   1.126   6.684  11.941  0.4762  0.0411 -0.1716
54765SOL    HW171410   1.125   6.624  12.015  0.3375  1.2752  0.8733
54765SOL    HW271411   1.218   6.690  11.916  0.7097  0.6297  0.7845
54766SOL     OW71412   9.129   7.176   8.327  0.1563 -0.1052  0.6396
54766SOL    HW171413   9.184   7.250   8.355  0.3465 -0.0086  0.0138
54766SOL    HW271414   9.078   7.210   8.254 -0.0146 -0.4887  0.5805
54767SOL     OW71415  12.483   4.576  12.257 -0.2719 -0.0911  0.7005
54767SOL    HW171416  12.476   4.669  12.238 -0.1146  0.0300  1.2183
54767SOL    HW271417  12.577   4.560  12.267 -0.1927 -0.5455 -0.5261
54768SOL     OW71418   2.068  12.536  10.956 -0.1764  0.3665 -0.4589
54768SOL    HW171419   2.012  12.554  11.032  1.2249 -0.8836  0.9353
54768SOL    HW271420   2.105  12.621  10.932 -1.0220  0.8543 -0.0734
54769SOL     OW71421   9.961   2.571   1.563 -0.0056  0.3492  0.1289
54769SOL    HW171422   9.893   2.526   1.613 -0.4368  0.2071 -0.5729
54769SOL    HW271423   9.984   2.647   1.617 -0.3811  0.1317  0.5970
54770SOL     OW71424   5.617   9.850   8.108 -0.6308 -0.0744 -0.2833
54770SOL    HW171425   5.538   9.905   8.112 -1.1829 -0.9420  2.1878
54770SOL    HW271426   5.674   9.895   8.046 -2.1697  1.7987 -0.4280
54771SOL     OW71427   9.900  11.336  10.690 -0.6803  0.6615 -0.6142
54771SOL    HW171428   9.886  11.423  10.727  2.4580  0.7466  0.6541
54771SOL    HW271429   9.927  11.352  10.600 -0.6837  0.9541 -0.5650
54772SOL     OW71430   3.636   9.494   0.087 -0.6856  0.5946 -0.3730
54772SOL    HW171431   3.713   9.484   0.031  0.9236  0.2385  1.7700
54772SOL    HW271432   3.626   9.589   0.098 -0.2745  0.6350 -0.3299
54773SOL     OW71433   6.478   1.988   5.484  0.5205 -0.2031  0.2557
54773SOL    HW171434   6.423   1.911   5.479 -2.6697  1.7372  2.2050
54773SOL    HW271435   6.439   2.050   5.422  3.5830 -0.2929 -2.0269
54774SOL     OW71436   3.766   3.629   7.125 -0.1693  0.1766  0.1632
54774SOL    HW171437   3.706   3.690   7.081 -0.4039  0.1592  0.4578
54774SOL    HW271438   3.710   3.579   7.185 -0.0900 -0.7312 -0.4881
54775SOL     OW71439   7.216   2.591   0.260 -0.2193  0.5905  0.1405
54775SOL    HW171440   7.307   2.618   0.244  0.7237 -2.2496  0.1284
54775SOL    HW271441   7.165   2.637   0.194  1.4845  0.9120 -1.0095
54776SOL     OW71442   4.827   4.371   0.910 -0.0514  0.3474  0.3657
54776SOL    HW171443   4.885   4.447   0.922  0.3596 -0.0785  1.1816
54776SOL    HW271444   4.878   4.309   0.859 -0.6557  0.8974 -0.9439
54777SOL     OW71445   8.599   0.350   8.324 -0.1217 -0.3329 -0.0089
54777SOL    HW171446   8.615   0.256   8.332 -0.8871 -0.4532  0.2414
54777SOL    HW271447   8.542   0.358   8.248  0.9673  0.0641 -0.8050
54778SOL     OW71448   5.359   6.175  12.377  0.0035  0.5287  0.0372
54778SOL    HW171449   5.348   6.268  12.360  1.3419  0.8318  0.7004
54778SOL    HW271450   5.270   6.139  12.372 -0.4139  1.6466 -1.2094
54779SOL     OW71451  10.395  12.629   3.524  0.3011  0.0319 -0.4000
54779SOL    HW171452  10.458  12.595   3.587  0.4266  0.0872 -0.4939
54779SOL    HW271453  10.432  12.606   3.438  0.1713  0.0244 -0.4545
54780SOL     OW71454   3.013   9.579   8.542  0.5505 -0.4469 -0.1721
54780SOL    HW171455   2.940   9.599   8.484  1.9090 -2.5363 -2.8671
54780SOL    HW271456   3.074   9.652   8.530  0.2712 -0.2490 -0.3984
54781SOL     OW71457   9.982   0.243  10.810  0.1870  0.3526  0.2999
54781SOL    HW171458   9.949   0.324  10.849  0.7231  0.1037  1.3064
54781SOL    HW271459   9.944   0.241  10.723 -0.5979  1.2135  0.6106
54782SOL     OW71460   1.622  11.561   3.775 -0.6873  0.7069  0.8712
54782SOL    HW171461   1.669  11.571   3.692 -0.7987  1.1936  0.8638
54782SOL    HW271462   1.577  11.476   3.767  1.7095 -0.7189  1.6461
54783SOL     OW71463   0.224   7.913  10.576  0.2721 -0.2731  0.0331
54783SOL    HW171464   0.185   7.998  10.553  1.5845  0.5506  0.7716
54783SOL    HW271465   0.148   7.855  10.588 -0.6552  0.8405 -0.2505
54784SOL     OW71466   4.232   0.554  10.029  0.7708  0.7670 -0.1576
54784SOL    HW171467   4.222   0.642   9.994 -1.0539  0.5172 -0.3580
54784SOL    HW271468   4.146   0.533  10.066  0.4019 -1.8140 -2.1895
54785SOL     OW71469   8.124   0.399   7.719 -0.1245  0.1943 -0.5482
54785SOL    HW171470   8.060   0.333   7.691  0.2367 -1.4625  2.1424
54785SOL    HW271471   8.209   0.362   7.695 -0.0079  0.8757 -1.2235
54786SOL     OW71472   4.146   8.580   2.107 -0.1660  0.0697 -0.1918
54786SOL    HW171473   4.166   8.658   2.056  0.0545  1.4484  1.9005
54786SOL    HW271474   4.231   8.537   2.118  0.0256  0.5467  0.2246
54787SOL     OW71475   3.112   9.123   1.809  0.5247 -0.0953  0.9263
54787SOL    HW171476   3.104   9.146   1.717  1.2968 -1.0015  0.6171
54787SOL    HW271477   3.036   9.067   1.827  0.2573  0.2554  0.9109
54788SOL     OW71478   5.123   9.795   4.192 -0.1920 -0.1781  0.2162
54788SOL    HW171479   5.110   9.890   4.197 -0.7518  0.0075 -2.8029
54788SOL    HW271480   5.213   9.785   4.161 -0.1257 -0.6349  0.5513
54789SOL     OW71481   8.987   0.388   5.728  0.0714  0.2003  0.0636
54789SOL    HW171482   9.057   0.335   5.766 -0.9599 -0.9431  0.4126
54789SOL    HW271483   9.004   0.386   5.634  0.4529 -0.1448  0.1367
54790SOL     OW71484  12.919   9.457  12.269 -0.0379  0.4065  0.0731
54790SOL    HW171485  12.966   9.502  12.199 -0.4487 -0.0824 -0.5371
54790SOL    HW271486  12.839   9.424  12.227 -0.3893  0.2654  0.8194
54791SOL     OW71487   5.180   8.377   5.775 -0.1240 -0.0715  0.1601
54791SOL    HW171488   5.254   8.437   5.774 -0.2919  0.1635  0.8438
54791SOL    HW271489   5.201   8.314   5.844 -1.3021  0.9860  1.5498
54792SOL     OW71490   9.380   0.474   4.818  0.2958 -0.4463 -0.3202
54792SOL    HW171491   9.388   0.381   4.799 -2.0780 -0.6733 -0.5528
54792SOL    HW271492   9.415   0.484   4.907 -0.1817 -1.7235  0.0242
54793SOL     OW71493   4.257   5.191   5.064  0.1336  0.2644  0.4556
54793SOL    HW171494   4.225   5.143   4.988  0.4286 -0.8480  1.0142
54793SOL    HW271495   4.217   5.278   5.056 -1.6018 -0.5240  0.1868
54794SOL     OW71496   6.141   8.349   4.490  0.5976 -0.2807 -0.1904
54794SOL    HW171497   6.101   8.265   4.513 -1.0300  0.6155  0.3943
54794SOL    HW271498   6.107   8.368   4.402 -2.3341  1.5801  1.1840
54795SOL     OW71499   4.322   5.703  12.865  0.2884  0.0204  0.4367
54795SOL    HW171500   4.228   5.705  12.846 -0.0330  0.1163  1.9131
54795SOL    HW271501   4.344   5.792  12.892 -0.2987 -0.8990  4.7121
54796SOL     OW71502  11.842  11.781   2.975  0.2215 -0.2966 -0.2471
54796SOL    HW171503  11.792  11.787   2.893 -1.9311  0.7733  1.0605
54796SOL    HW271504  11.840  11.870   3.010  2.1559 -0.4766  0.4315
54797SOL     OW71505  10.182   2.405  10.366 -0.3145 -0.3938 -0.1581
54797SOL    HW171506  10.271   2.408  10.401 -0.6946 -1.0327  0.9243
54797SOL    HW271507  10.153   2.315  10.383 -1.2885 -0.0939 -0.1752
54798SOL     OW71508   4.502   5.054   6.286  0.1368  0.1066  0.0799
54798SOL    HW171509   4.417   5.021   6.316  0.1376 -1.6158 -1.5799
54798SOL    HW271510   4.544   5.088   6.365 -1.7733  0.2853  1.0742
54799SOL     OW71511   9.209   6.623   2.555 -0.3570 -0.0960  0.0534
54799SOL    HW171512   9.124   6.667   2.565  0.3473  1.1032  1.0177
54799SOL    HW271513   9.208   6.554   2.622 -0.7636 -0.4171 -0.2777
54800SOL     OW71514  11.922   2.509   5.399  0.5501  0.1075 -0.6639
54800SOL    HW171515  12.016   2.527   5.396  0.7038 -0.4993  0.1439
54800SOL    HW271516  11.915   2.416   5.377  0.0098  0.4655 -2.0996
54801SOL     OW71517   7.896   3.666   0.689 -0.1754 -0.1238 -0.1966
54801SOL    HW171518   7.822   3.672   0.749  0.7965  1.9931  0.9205
54801SOL    HW271519   7.956   3.603   0.730 -0.9240 -1.1659 -0.6599
54802SOL     OW71520   7.777   3.162  12.327  0.6954  0.0287  0.0141
54802SOL    HW171521   7.736   3.079  12.350 -0.1798  0.4023 -0.1930
54802SOL    HW271522   7.865   3.157  12.366 -0.0463 -0.1690  1.7592
54803SOL     OW71523   3.490   9.308   0.461 -0.5771 -0.3922 -0.4794
54803SOL    HW171524   3.540   9.226   0.458 -1.9655 -1.3825  1.3648
54803SOL    HW271525   3.498   9.338   0.552 -3.2088 -0.5694 -0.0989
54804SOL     OW71526   6.886   0.861   3.336  0.7260  0.1090 -0.2217
54804SOL    HW171527   6.885   0.769   3.312 -2.0875 -0.1309  0.4327
54804SOL    HW271528   6.967   0.895   3.300  2.1264 -2.7295 -0.0017
54805SOL     OW71529   1.749  12.859   3.376 -0.4994  0.8942  0.3341
54805SOL    HW171530   1.657  12.866   3.350 -0.8346 -0.2303  1.1260
54805SOL    HW271531   1.773  12.947   3.404 -1.8246  0.8904  1.6208
54806SOL     OW71532   9.397   2.745   0.732  0.4784  0.3892 -0.3313
54806SOL    HW171533   9.428   2.781   0.648  0.4075  0.6692 -0.2384
54806SOL    HW271534   9.423   2.810   0.797  4.4239 -1.6899  0.4982
54807SOL     OW71535   9.496   3.928  11.757  0.8271  0.1719 -0.0682
54807SOL    HW171536   9.587   3.903  11.740 -0.0497 -2.2530 -1.8272
54807SOL    HW271537   9.445   3.871  11.700 -1.8546  1.0906  1.2508
54808SOL     OW71538  10.110   5.999  10.384  0.0726  0.0313 -0.0074
54808SOL    HW171539  10.132   5.907  10.375 -1.1675 -0.3921  0.9633
54808SOL    HW271540  10.066   6.021  10.301 -0.6049 -0.5627  0.1835
54809SOL     OW71541   1.553  10.194   0.791  0.1657 -0.1657  0.0307
54809SOL    HW171542   1.587  10.283   0.784  1.5206 -0.7228 -0.8134
54809SOL    HW271543   1.528  10.170   0.702  2.8641 -1.7289 -0.4537
54810SOL     OW71544   7.756   0.211   4.690 -0.6773  0.1875  0.1317
54810SOL    HW171545   7.720   0.291   4.652  1.1907  0.5702 -0.9736
54810SOL    HW271546   7.839   0.238   4.729  0.3318 -1.3018 -0.8595
54811SOL     OW71547  11.756   8.115   0.982 -0.1226  0.1591 -0.0630
54811SOL    HW171548  11.730   8.173   0.910 -0.5880 -1.0953 -0.9356
54811SOL    HW271549  11.761   8.173   1.058  0.8046  1.6012 -1.1609
54812SOL     OW71550   3.176  11.693  12.882  0.1338 -0.1509  0.2203
54812SOL    HW171551   3.108  11.691  12.949 -0.1728  0.0794 -0.0811
54812SOL    HW271552   3.225  11.612  12.896 -0.9219 -0.9062 -0.2880
54813SOL     OW71553   6.499  12.521   3.984 -0.0590 -0.2770 -0.4202
54813SOL    HW171554   6.589  12.553   3.981  0.1052 -0.6060  0.6260
54813SOL    HW271555   6.445  12.600   3.978  0.2385 -0.1866 -2.7071
54814SOL     OW71556  11.048   7.083   9.185  0.0269 -0.2404 -0.0842
54814SOL    HW171557  11.031   6.989   9.186  1.1293 -0.5392  2.9457
54814SOL    HW271558  10.969   7.122   9.222  0.6169 -0.3001  1.2972
54815SOL     OW71559   4.707  12.912  11.140  0.2678  0.1756  0.7777
54815SOL    HW171560   4.748  12.944  11.060 -1.6781  0.5988 -0.1010
54815SOL    HW271561   4.710  12.988  11.199 -0.4386  0.6314  0.2400
54816SOL     OW71562   3.416  10.641   5.091  0.0427 -0.7021 -0.3805
54816SOL    HW171563   3.400  10.721   5.041  0.6508 -0.0365  0.4578
54816SOL    HW271564   3.394  10.665   5.181 -1.4135 -1.9862 -0.3599
54817SOL     OW71565   0.896   1.698   7.079 -0.3015 -0.2728 -0.4088
54817SOL    HW171566   0.904   1.728   6.988 -0.2216 -0.0997 -0.3454
54817SOL    HW271567   0.970   1.738   7.124  0.7892 -1.9224 -0.6710
54818SOL     OW71568   1.496   8.297   5.076  0.3836  0.1814 -0.6632
54818SOL    HW171569   1.542   8.364   5.026  1.9821 -0.0918  0.3610
54818SOL    HW271570   1.558   8.224   5.080 -0.0634 -0.1415  0.9120
54819SOL     OW71571   4.776   8.532   9.159 -0.2428 -0.2393 -0.2262
54819SOL    HW171572   4.759   8.445   9.197  0.1383 -2.1796 -4.0248
54819SOL    HW271573   4.695   8.556   9.115  0.3569  0.2176 -1.1147
54820SOL     OW71574   6.299  12.665   2.188 -0.0500  0.7977 -0.1175
54820SOL    HW171575   6.361  12.661   2.116 -1.9316  2.3442 -1.9676
54820SOL    HW271576   6.225  12.612   2.159 -0.6483  1.0433  0.9012
54821SOL     OW71577  12.005   5.343   9.089 -0.4240  0.0414 -0.1624
54821SOL    HW171578  11.942   5.330   9.019 -0.0824 -1.6174 -0.2124
54821SOL    HW271579  12.038   5.255   9.109  0.8850  0.6931  0.7734
54822SOL     OW71580   4.768   9.774   9.126 -0.2072  0.0226 -0.3344
54822SOL    HW171581   4.754   9.683   9.155 -1.4792  0.1734 -0.4323
54822SOL    HW271582   4.686   9.798   9.084  0.5508  0.8292 -1.3795
54823SOL     OW71583   9.005   8.273   5.995 -0.3272 -0.3721 -0.4928
54823SOL    HW171584   9.040   8.290   6.082 -2.1711  1.2348 -0.0011
54823SOL    HW271585   9.074   8.304   5.936  1.2079 -2.0396  0.2916
54824SOL     OW71586  11.422   2.786   6.709  0.2888 -0.1058  0.2173
54824SOL    HW171587  11.367   2.711   6.730  0.2857 -0.3153 -0.5073
54824SOL    HW271588  11.506   2.748   6.685  0.4822  0.1633  0.4539
54825SOL     OW71589  10.411   6.033   6.521  0.1784 -0.5563  0.3272
54825SOL    HW171590  10.318   6.026   6.542  0.1953 -2.5929 -0.0697
54825SOL    HW271591  10.439   5.943   6.506  2.0643  0.0815 -0.2662
54826SOL     OW71592   7.121   7.500   5.643  0.0372 -0.2614  0.1568
54826SOL    HW171593   7.213   7.475   5.655  0.0587 -0.6863 -0.7567
54826SOL    HW271594   7.083   7.428   5.593 -0.9800 -0.4158  1.1312
54827SOL     OW71595   6.930   4.621   9.087  0.4425  0.3802  0.1452
54827SOL    HW171596   6.969   4.663   9.010 -0.4537  1.3397  0.1871
54827SOL    HW271597   6.953   4.679   9.160  0.4309  0.0140  0.4447
54828SOL     OW71598   4.756   1.616   0.616 -0.2206 -0.0194  0.5331
54828SOL    HW171599   4.802   1.672   0.679 -2.9094  2.1843  0.7346
54828SOL    HW271600   4.778   1.652   0.530 -0.1162 -0.1431  0.5079
54829SOL     OW71601   1.923   4.323   4.113 -0.4907 -0.1146 -0.5591
54829SOL    HW171602   1.927   4.231   4.140 -0.7124 -0.1530 -0.6542
54829SOL    HW271603   1.944   4.321   4.019 -0.2290 -0.0385 -0.5022
54830SOL     OW71604   2.927   8.765  10.969  0.0170 -0.0614  0.2471
54830SOL    HW171605   2.922   8.807  11.055  0.6294  3.1396 -1.1345
54830SOL    HW271606   2.836   8.764  10.938 -0.0493 -0.1221  0.4393
54831SOL     OW71607   5.266  12.808  11.792  0.4614  0.7309  0.2768
54831SOL    HW171608   5.349  12.774  11.824  0.8249  0.1232 -1.2110
54831SOL    HW271609   5.268  12.902  11.814  0.8117  0.4236  1.6675
54832SOL     OW71610   2.323   0.161  10.061  0.0291  0.1923 -0.1010
54832SOL    HW171611   2.298   0.118   9.979 -1.4280 -0.8880  0.8623
54832SOL    HW271612   2.318   0.254  10.042  0.3638 -0.0390 -1.4129
54833SOL     OW71613   5.799   3.715   1.817  0.2983 -0.8388  0.0082
54833SOL    HW171614   5.802   3.744   1.908 -1.2207 -2.9775  0.8431
54833SOL    HW271615   5.705   3.713   1.796  0.5571 -1.5984 -1.1697
54834SOL     OW71616   1.393   1.576  10.911  0.0422 -0.3535 -0.1309
54834SOL    HW171617   1.467   1.609  10.861 -0.7078  0.5386 -0.6669
54834SOL    HW271618   1.355   1.653  10.952 -0.0795 -0.9186  0.8577
54835SOL     OW71619   0.009   9.045   2.480 -0.4511  0.0845 -0.3666
54835SOL    HW171620   0.003   9.069   2.572  1.1071  1.0861 -0.4916
54835SOL    HW271621   0.044   8.956   2.480  1.6292  0.8380  0.0371
54836SOL     OW71622   4.297   1.462   5.500  0.2713 -0.4364 -0.0448
54836SOL    HW171623   4.353   1.400   5.453  2.2830  1.0908  0.2060
54836SOL    HW271624   4.272   1.416   5.580  1.9174 -0.8640  0.2491
54837SOL     OW71625   9.441   8.440   2.207 -0.4451  0.6179  0.7331
54837SOL    HW171626   9.472   8.474   2.123  0.2551 -0.5170  0.4987
54837SOL    HW271627   9.375   8.375   2.184  0.1761 -0.1321  1.0093
54838SOL     OW71628   5.501  12.844   6.382  0.6772 -0.0058  0.2539
54838SOL    HW171629   5.467  12.805   6.301  1.4218  0.7254 -0.4378
54838SOL    HW271630   5.596  12.830   6.377  0.6839 -0.4061  1.2634
54839SOL     OW71631   8.154  11.931   3.759 -0.0115  0.3615 -0.2382
54839SOL    HW171632   8.087  11.887   3.707 -0.0499 -1.0443  0.9232
54839SOL    HW271633   8.237  11.906   3.718 -0.0425 -0.7062  0.3070
54840SOL     OW71634   8.076   2.360   8.709 -0.2028  0.0249 -0.0260
54840SOL    HW171635   8.020   2.323   8.642  0.8720 -3.4337  0.8038
54840SOL    HW271636   8.151   2.397   8.661 -1.2802  1.1941 -0.8761
54841SOL     OW71637   7.035  11.438   6.895  0.5773  0.3042  0.1982
54841SOL    HW171638   7.090  11.375   6.940 -0.2715 -0.2606  0.4816
54841SOL    HW271639   6.948  11.427   6.935  0.3889  1.5834  0.1880
54842SOL     OW71640   7.209   2.933   1.836 -0.0731 -0.0307 -0.5965
54842SOL    HW171641   7.155   3.011   1.822  2.2039  2.0660  1.3346
54842SOL    HW271642   7.220   2.895   1.749 -2.9780  0.5342 -1.3171
54843SOL     OW71643   0.586   2.430  12.586 -0.0179  0.0503  0.5298
54843SOL    HW171644   0.533   2.363  12.629  0.8952  0.3767  2.2697
54843SOL    HW271645   0.524   2.501  12.569 -0.6026 -0.4698  0.4370
54844SOL     OW71646   8.531   6.325  12.116 -0.3734  0.2727  0.5178
54844SOL    HW171647   8.622   6.300  12.098 -0.0731 -0.0052  2.2463
54844SOL    HW271648   8.508   6.276  12.195 -2.6896 -1.1427 -0.9387
54845SOL     OW71649  10.163   1.766  10.857 -0.5748  0.0931 -0.0766
54845SOL    HW171650  10.195   1.855  10.871 -0.1592  0.0020 -0.4134
54845SOL    HW271651  10.097   1.752  10.926  0.5289  0.0778  1.0145
54846SOL     OW71652   4.770   9.032   4.350  0.0332  0.1308  0.0490
54846SOL    HW171653   4.752   9.122   4.322  1.9582  0.8466  0.9391
54846SOL    HW271654   4.815   8.992   4.276  2.2994  1.0409  0.8499
54847SOL     OW71655   1.374   7.673   8.069  0.2803 -0.0280 -0.2166
54847SOL    HW171656   1.349   7.718   8.150 -0.6888 -0.5840 -0.1892
54847SOL    HW271657   1.390   7.743   8.006 -1.8929  0.3987 -0.3738
54848SOL     OW71658   0.283   7.286   3.556 -0.0255  0.0051  0.4782
54848SOL    HW171659   0.212   7.313   3.614 -0.8913 -1.2126  0.0281
54848SOL    HW271660   0.353   7.257   3.615 -0.0538  0.7998  0.9176
54849SOL     OW71661   6.897   4.983   7.134  0.3440  0.5053 -0.2086
54849SOL    HW171662   6.835   5.009   7.202 -0.6165  0.0850 -0.9026
54849SOL    HW271663   6.937   4.902   7.168  0.0372  0.4207 -0.0423
54850SOL     OW71664   8.127  12.094   4.991  0.4795 -0.1219  0.2020
54850SOL    HW171665   8.076  12.174   5.000 -1.1256 -0.6426 -2.7655
54850SOL    HW271666   8.216  12.124   4.970  0.7218  0.8016  2.3323
54851SOL     OW71667   4.154   1.149   4.905 -0.3208  0.0187  0.2018
54851SOL    HW171668   4.123   1.145   4.996 -1.8424 -2.7140 -0.3215
54851SOL    HW271669   4.206   1.069   4.895 -0.2238  0.2630 -1.3409
54852SOL     OW71670   4.249   8.971  12.925 -0.0616 -0.6688 -0.1527
54852SOL    HW171671   4.270   9.063  12.940 -2.7044 -0.0226  0.2484
54852SOL    HW271672   4.317   8.939  12.866  0.5282  1.7503 -0.8826
54853SOL     OW71673   0.861   8.610   3.723  0.2036 -0.4171 -0.1282
54853SOL    HW171674   0.846   8.702   3.700 -0.6139 -0.8015 -1.2256
54853SOL    HW271675   0.793   8.590   3.788 -1.2188 -0.8764 -1.6777
54854SOL     OW71676  10.842   9.891   8.565 -0.2399  0.4090 -0.3787
54854SOL    HW171677  10.761   9.868   8.610 -1.6279  2.9025 -1.4084
54854SOL    HW271678  10.905   9.910   8.635 -1.1418  0.3391  0.4591
54855SOL     OW71679   4.969   0.779  10.584 -0.2342 -0.7682  0.8620
54855SOL    HW171680   5.046   0.801  10.636 -0.4247 -0.1517  0.8876
54855SOL    HW271681   4.978   0.685  10.567  2.0668 -0.2157 -1.6122
54856SOL     OW71682   9.572   0.957   8.873 -0.2715  0.0904 -0.2258
54856SOL    HW171683   9.485   0.995   8.883 -0.0817  0.9773 -1.6400
54856SOL    HW271684   9.589   0.914   8.957 -0.9407  2.2174  1.0881
54857SOL     OW71685   7.595   1.932   7.388 -0.1430 -0.1001  0.6010
54857SOL    HW171686   7.515   1.897   7.427 -0.2830  0.3320  0.7095
54857SOL    HW271687   7.565   1.977   7.309  0.3065 -2.3895 -0.9741
54858SOL     OW71688  10.325   8.501  12.381 -0.4193  0.0395  0.2822
54858SOL    HW171689  10.303   8.561  12.309 -1.5668 -1.4910 -0.7274
54858SOL    HW271690  10.241   8.477  12.419  0.1517  0.4732  1.8692
54859SOL     OW71691   6.582   8.864   8.694 -0.0914 -0.5138 -0.5165
54859SOL    HW171692   6.643   8.847   8.765 -1.3368 -0.6078  0.5611
54859SOL    HW271693   6.638   8.871   8.616  1.4322  0.7700  0.6164
54860SOL     OW71694   8.743   4.111  11.034  0.3525  0.2307 -0.0850
54860SOL    HW171695   8.829   4.079  11.007  0.0070 -1.4919  0.7302
54860SOL    HW271696   8.681   4.046  11.000 -0.6207  1.3472 -0.5044
54861SOL     OW71697   8.863   4.243  10.540  0.1642 -0.1341 -0.5198
54861SOL    HW171698   8.769   4.244  10.560 -0.3050  1.4750 -2.4682
54861SOL    HW271699   8.900   4.309  10.598  0.3535 -1.5816  1.0894
54862SOL     OW71700  12.017   8.245  12.432 -0.2672 -0.0309  0.4130
54862SOL    HW171701  12.017   8.335  12.464 -3.6859 -0.1830  1.1955
54862SOL    HW271702  12.053   8.194  12.504  0.2628  0.5163  0.5484
54863SOL     OW71703   6.657   5.193   9.361  0.8282 -0.2581 -0.1564
54863SOL    HW171704   6.630   5.108   9.395  0.0987 -0.8231 -2.0333
54863SOL    HW271705   6.749   5.180   9.335  0.4281 -0.7969 -1.3593
54864SOL     OW71706   6.494  12.191   2.068  0.0618  0.0285 -0.5010
54864SOL    HW171707   6.422  12.143   2.108  0.0468  0.2094 -0.3118
54864SOL    HW271708   6.537  12.236   2.141  0.9385 -0.8235 -0.4694
54865SOL     OW71709   9.876   6.170   3.082 -0.1220  0.0770 -0.1759
54865SOL    HW171710   9.791   6.201   3.051 -0.0495 -0.7295 -1.2203
54865SOL    HW271711   9.886   6.210   3.168 -0.0216  3.0109 -1.4201
54866SOL     OW71712   6.648   9.273   8.954 -0.5013 -0.1260 -0.3937
54866SOL    HW171713   6.687   9.323   8.882 -2.0344  0.4017 -0.8899
54866SOL    HW271714   6.709   9.286   9.027 -0.6727  2.2793 -0.5734
54867SOL     OW71715  12.474   9.426  10.081 -0.1716 -0.6027 -0.4950
54867SOL    HW171716  12.434   9.444   9.996  0.0737 -0.9420 -0.6814
54867SOL    HW271717  12.562   9.396  10.061 -0.1654 -0.8374 -0.1268
54868SOL     OW71718  12.671   1.502   4.530 -0.3933  0.5634  0.1905
54868SOL    HW171719  12.576   1.497   4.513 -0.1126  1.0786 -1.8057
54868SOL    HW271720  12.706   1.548   4.454  1.6462 -0.7971  0.2436
54869SOL     OW71721   7.285   4.254   4.362 -0.6052  0.0649 -0.5850
54869SOL    HW171722   7.230   4.274   4.438 -1.7754 -1.7654 -0.8650
54869SOL    HW271723   7.341   4.182   4.391 -0.0644  0.3037 -1.0255
54870SOL     OW71724   2.092   8.118   0.622 -0.4270  0.0759 -0.6156
54870SOL    HW171725   2.113   8.207   0.594 -0.5767 -0.0071 -1.0136
54870SOL    HW271726   2.177   8.075   0.631 -0.2499  0.7402  1.3047
54871SOL     OW71727   2.243  10.532   9.697 -0.4347  0.0466 -0.4004
54871SOL    HW171728   2.307  10.490   9.755  1.5091  0.1068 -2.3399
54871SOL    HW271729   2.297  10.586   9.639 -2.0188 -1.2747 -3.3147
54872SOL     OW71730   7.082   5.954   0.445 -0.0909 -0.0699 -0.2477
54872SOL    HW171731   7.086   6.028   0.385 -0.0984 -0.0729 -0.2521
54872SOL    HW271732   7.057   5.879   0.390  2.7719 -0.7019 -0.8491
54873SOL     OW71733   0.411  12.230   7.951 -0.2803  0.1395 -0.0886
54873SOL    HW171734   0.470  12.223   8.026 -0.0228 -0.2439 -0.3234
54873SOL    HW271735   0.393  12.324   7.944  1.6178  0.4817 -1.0076
54874SOL     OW71736   5.073   1.499   5.347 -0.3943  0.3001 -0.7078
54874SOL    HW171737   5.110   1.534   5.428  0.0412  1.8575 -1.5446
54874SOL    HW271738   5.135   1.431   5.319  0.1047  0.6271 -0.3952
54875SOL     OW71739   0.260  12.935   1.309 -0.4173 -0.2091  0.2549
54875SOL    HW171740   0.260  12.845   1.339  0.2379  0.0442  1.0463
54875SOL    HW271741   0.176  12.970   1.339 -1.3933 -0.9833 -1.4552
54876SOL     OW71742   1.038   1.370   6.822 -0.4025  0.0791 -0.1657
54876SOL    HW171743   1.016   1.294   6.769  0.4920 -1.0651  1.0484
54876SOL    HW271744   1.033   1.340   6.912 -2.4556  2.1389  0.5115
54877SOL     OW71745   7.497   6.053   5.132  0.4882 -0.3685 -0.1999
54877SOL    HW171746   7.560   6.107   5.085 -0.8966  0.1484 -1.5667
54877SOL    HW271747   7.515   6.068   5.224  0.7167  1.7434 -0.5538
54878SOL     OW71748   2.538  12.490  12.335  0.2993  0.6794  0.3686
54878SOL    HW171749   2.557  12.487  12.241 -0.9992 -1.8606  0.0781
54878SOL    HW271750   2.444  12.506  12.339 -0.0524 -1.2217  1.0769
54879SOL     OW71751   6.103   2.606   9.819 -0.3599 -0.3561 -0.4818
54879SOL    HW171752   6.067   2.644   9.739 -1.8362 -0.8905 -0.1098
54879SOL    HW271753   6.036   2.622   9.886  1.6310  1.8215  1.1798
54880SOL     OW71754  11.232   5.250   2.360  0.5165  0.0683  0.2546
54880SOL    HW171755  11.164   5.227   2.424  1.4973 -0.7797  1.0362
54880SOL    HW271756  11.305   5.192   2.381  0.5048 -1.0637 -2.3507
54881SOL     OW71757   6.216   6.674   5.477  0.6358  0.8377 -0.5587
54881SOL    HW171758   6.237   6.584   5.453  2.6872  1.1567 -0.0835
54881SOL    HW271759   6.131   6.690   5.435 -0.7594 -1.9180  0.9099
54882SOL     OW71760   9.735   8.047   3.777 -0.7421  0.3762 -0.6082
54882SOL    HW171761   9.822   8.009   3.789 -0.9188  0.2350  0.3038
54882SOL    HW271762   9.674   7.975   3.793 -1.0557  0.8107  0.2868
54883SOL     OW71763  11.540  11.979  12.905  0.5642  0.3958  0.1532
54883SOL    HW171764  11.472  12.046  12.912 -0.5744 -0.2585 -3.0522
54883SOL    HW271765  11.511  11.909  12.963 -1.5768  0.1500 -1.1057
54884SOL     OW71766  10.354   8.771  11.946 -0.5249 -0.1184  0.6274
54884SOL    HW171767  10.350   8.855  11.992  1.8968  0.1004  0.5560
54884SOL    HW271768  10.380   8.709  12.014  1.2640 -0.1163  0.0080
54885SOL     OW71769   4.059   0.066   3.477 -0.0835 -0.0760 -0.6461
54885SOL    HW171770   3.971   0.090   3.446 -0.0364 -0.9967 -1.5592
54885SOL    HW271771   4.057  -0.030   3.481  0.4583 -0.0435  0.6505
54886SOL     OW71772   1.365   9.812   6.109  0.2134  0.3786 -0.1171
54886SOL    HW171773   1.386   9.795   6.017 -0.2321  0.4159 -0.2273
54886SOL    HW271774   1.295   9.877   6.106  0.4597  0.6653  0.2585
54887SOL     OW71775   9.087  12.839   4.971  0.2417  0.5905  0.0098
54887SOL    HW171776   9.034  12.802   4.901  0.3676  0.5952 -0.0874
54887SOL    HW271777   9.061  12.789   5.049  0.5603  0.1518 -0.1591
54888SOL     OW71778   6.377   1.967   6.713 -0.0659 -0.4935 -0.6685
54888SOL    HW171779   6.379   2.051   6.668 -0.4572 -0.2155 -0.1808
54888SOL    HW271780   6.298   1.970   6.766  0.7734 -0.4793  0.6421
54889SOL     OW71781   1.286   5.838  10.403  0.0435  0.3446 -0.0802
54889SOL    HW171782   1.264   5.814  10.493  0.3237 -1.5057 -0.4463
54889SOL    HW271783   1.348   5.910  10.410  0.7763 -0.3874  1.2480
54890SOL     OW71784   4.168   1.953   5.567  0.1794 -0.5023 -0.4993
54890SOL    HW171785   4.207   2.039   5.552 -1.0368 -0.2150 -2.3153
54890SOL    HW271786   4.121   1.961   5.649  0.7379  0.3122 -0.2519
54891SOL     OW71787   1.628  11.951   8.554 -0.7898  0.6415  0.1751
54891SOL    HW171788   1.706  11.906   8.587  0.0519  0.1185 -2.3129
54891SOL    HW271789   1.637  12.041   8.585  0.6472  0.5141  0.2096
54892SOL     OW71790   9.854  11.861   7.336 -0.1565  0.7184 -0.0022
54892SOL    HW171791   9.900  11.944   7.323  1.3641  0.2875  2.0830
54892SOL    HW271792   9.922  11.794   7.328 -0.8144 -0.1082  1.0773
54893SOL     OW71793   2.708   9.749   7.826 -0.5526  0.8185 -0.2234
54893SOL    HW171794   2.783   9.693   7.809 -1.8546 -0.9082 -0.5960
54893SOL    HW271795   2.745   9.836   7.837  1.7352 -0.3119  1.9892
54894SOL     OW71796   5.878  12.199   3.633  0.1473 -0.2176 -0.0556
54894SOL    HW171797   5.787  12.195   3.605  0.2807 -2.1481 -0.3083
54894SOL    HW271798   5.873  12.206   3.729 -0.2378  1.3300 -0.1515
54895SOL     OW71799   2.929   1.264   8.325 -0.2199  0.3906  0.7092
54895SOL    HW171800   2.861   1.204   8.294 -2.4954  2.1438  2.0225
54895SOL    HW271801   2.956   1.229   8.410 -1.6679  1.2628  1.5530
54896SOL     OW71802   6.984   9.238   8.380  0.0175 -0.0962 -0.1132
54896SOL    HW171803   7.039   9.293   8.436  0.8099 -1.4318  0.4865
54896SOL    HW271804   7.046   9.180   8.335 -0.7393 -0.0968 -1.1893
54897SOL     OW71805  11.998   8.380   8.389  0.1880 -0.1886 -0.0042
54897SOL    HW171806  12.056   8.449   8.422  0.2425 -0.5389  0.6396
54897SOL    HW271807  12.001   8.390   8.294  0.4779  0.4673  0.0696
54898SOL     OW71808   2.877   8.375   2.221 -0.2255 -0.4601 -0.3128
54898SOL    HW171809   2.898   8.462   2.188 -0.3819 -0.0037  0.7288
54898SOL    HW271810   2.782   8.367   2.211 -0.3886 -0.0077  0.6789
54899SOL     OW71811  10.082  11.229   6.082  0.7011 -0.4346  0.0784
54899SOL    HW171812  10.034  11.199   6.005  0.2757 -0.6958  0.4322
54899SOL    HW271813  10.171  11.198   6.070  0.7298 -0.1322 -0.4913
54900SOL     OW71814  11.420   6.976   9.701  0.4212 -0.5387  0.6494
54900SOL    HW171815  11.512   6.984   9.673  0.2936 -1.4318 -0.0678
54900SOL    HW271816  11.409   6.884   9.721 -0.9759 -1.0028 -1.7755
54901SOL     OW71817   1.259   2.687   1.050  0.1989  0.9081  0.3869
54901SOL    HW171818   1.178   2.678   1.101  1.0586  0.5766  1.7773
54901SOL    HW271819   1.259   2.612   0.991  0.1937  0.0424  1.4556
54902SOL     OW71820   0.997  11.701   5.660  0.1714  0.3296 -0.0317
54902SOL    HW171821   1.073  11.643   5.660  2.2212  2.8302  0.4014
54902SOL    HW271822   1.014  11.763   5.589 -0.8848  1.6235  0.7957
54903SOL     OW71823   8.116  12.624  11.829  0.4778  0.3441  0.0204
54903SOL    HW171824   8.184  12.596  11.768 -0.5681  0.8149 -1.4081
54903SOL    HW271825   8.146  12.709  11.860  1.6296 -0.4435  1.1782
54904SOL     OW71826   7.592   9.618   6.951  0.7565  0.1386  0.1827
54904SOL    HW171827   7.587   9.662   6.866  1.8052  1.7403  0.8932
54904SOL    HW271828   7.666   9.558   6.942 -1.0234 -2.0190 -0.9748
54905SOL     OW71829   8.770   6.880   4.123  0.0790 -0.2889 -0.3361
54905SOL    HW171830   8.797   6.964   4.086  1.5040 -0.2596  0.6996
54905SOL    HW271831   8.674   6.886   4.128  0.0595  0.7350 -1.5001
54906SOL     OW71832   9.074   2.671  12.132  0.3422  0.2858 -0.3996
54906SOL    HW171833   9.064   2.627  12.216 -1.0232 -0.2082 -0.7899
54906SOL    HW271834   9.108   2.758  12.153 -0.9367  0.5256  0.7490
54907SOL     OW71835   1.479   0.071   0.868  0.1621  0.3498  0.2131
54907SOL    HW171836   1.434   0.155   0.855  0.3765  0.2221 -1.6568
54907SOL    HW271837   1.420   0.006   0.830  1.5544  0.1100 -1.7172
54908SOL     OW71838   8.115   6.761   0.616  0.8675 -0.3243  0.1992
54908SOL    HW171839   8.196   6.795   0.578  0.3138 -0.4489 -1.1574
54908SOL    HW271840   8.066   6.839   0.640 -0.6237  0.0447 -3.3837
54909SOL     OW71841   8.070   5.169   4.394 -0.4869 -0.0172 -0.1828
54909SOL    HW171842   8.010   5.224   4.444  0.9083  0.2652  1.2594
54909SOL    HW271843   8.018   5.138   4.319 -2.3391  0.3818  0.8798
54910SOL     OW71844  12.755  12.184   2.999  0.4302  0.1496  0.3256
54910SOL    HW171845  12.711  12.203   2.916  0.7939 -0.4665 -0.0156
54910SOL    HW271846  12.739  12.261   3.053  1.0276  1.0053 -0.6754
54911SOL     OW71847   5.981   3.407  12.354 -0.6792 -0.2231 -0.2247
54911SOL    HW171848   5.951   3.461  12.281  0.1582  1.4577  0.6043
54911SOL    HW271849   6.076   3.424  12.358 -0.6640 -0.5129  1.0418
54912SOL     OW71850   6.878  10.398  12.924  0.1406 -0.1458 -0.7023
54912SOL    HW171851   6.943  10.465  12.904 -0.9122  1.9208  2.0933
54912SOL    HW271852   6.885  10.386  13.019 -3.5776  0.3902 -0.2009
54913SOL     OW71853   4.253   2.530   4.675  0.6335  0.0430 -0.1125
54913SOL    HW171854   4.334   2.552   4.629  0.6072 -0.3352 -0.3467
54913SOL    HW271855   4.202   2.480   4.611 -0.1584  1.0199 -0.2584
54914SOL     OW71856   5.376  12.387   4.452  0.0792 -0.0732 -0.3377
54914SOL    HW171857   5.402  12.341   4.532  0.0402 -1.8095 -1.2862
54914SOL    HW271858   5.459  12.410   4.411  0.0983 -0.0115 -0.2656
54915SOL     OW71859   5.996   1.489   3.013 -0.5292 -0.5140 -0.1949
54915SOL    HW171860   5.938   1.424   3.053 -0.8938 -0.2147 -0.2262
54915SOL    HW271861   5.954   1.510   2.930 -0.3926 -0.2697 -0.2029
54916SOL     OW71862  12.168  10.767   9.841  0.0167  0.3696 -0.6986
54916SOL    HW171863  12.162  10.849   9.791  1.6809  0.6711 -0.4489
54916SOL    HW271864  12.187  10.701   9.775  2.1881  0.7632 -0.5166
54917SOL     OW71865   4.368   3.461   0.374 -0.7722  0.1532 -0.2708
54917SOL    HW171866   4.462   3.447   0.356 -0.7456 -0.7260  0.4986
54917SOL    HW271867   4.334   3.373   0.393 -1.2219  0.7533  1.9489
54918SOL     OW71868   9.419   9.817   0.016  0.0533  0.1383 -0.0292
54918SOL    HW171869   9.458   9.898  -0.018  0.0668  0.4666  0.7341
54918SOL    HW271870   9.457   9.808   0.104 -0.1977 -0.5256  0.0122
54919SOL     OW71871   5.762   4.009   1.592  0.1370  0.6691  0.1862
54919SOL    HW171872   5.719   4.045   1.514  0.6054  0.7963 -0.0127
54919SOL    HW271873   5.813   3.935   1.559 -2.1598 -1.3486  0.8078
54920SOL     OW71874   8.078  12.203  10.174 -0.3054 -0.3858  0.1552
54920SOL    HW171875   8.089  12.261  10.249 -0.4245 -0.1578 -0.0000
54920SOL    HW271876   8.146  12.230  10.112 -0.5545 -0.2008 -0.0448
54921SOL     OW71877   6.978   7.554   8.636 -1.0547  0.5101  0.7473
54921SOL    HW171878   6.982   7.599   8.721  1.6525  0.1769  0.8902
54921SOL    HW271879   7.036   7.604   8.580  0.1952 -1.4036  0.2326
54922SOL     OW71880   7.242  11.782   3.155 -0.4352  0.2594 -0.1604
54922SOL    HW171881   7.258  11.704   3.208  0.0822  0.8228  0.5371
54922SOL    HW271882   7.226  11.851   3.219  0.3192  0.9771 -0.7376
54923SOL     OW71883   9.423   6.324   2.012  0.9918  0.2500 -0.2641
54923SOL    HW171884   9.397   6.232   2.000 -0.3779  0.4710  0.8051
54923SOL    HW271885   9.435   6.357   1.923  0.8199 -0.7706 -0.6857
54924SOL     OW71886  10.245   6.665   3.203  0.1467 -0.0859 -0.3396
54924SOL    HW171887  10.211   6.712   3.127  0.2677 -1.1337 -1.0607
54924SOL    HW271888  10.337   6.691   3.207 -0.0073  0.4407 -0.1861
54925SOL     OW71889  11.479   9.941   0.362 -0.6818 -0.5952  0.1398
54925SOL    HW171890  11.434   9.883   0.424 -0.6614 -2.2401 -1.3141
54925SOL    HW271891  11.412  10.004   0.335 -1.5345 -1.6805 -0.3529
54926SOL     OW71892   5.688   7.032   7.968 -0.0516  0.3941 -0.1843
54926SOL    HW171893   5.742   6.991   7.901 -1.1341 -0.2244 -0.6963
54926SOL    HW271894   5.634   6.961   8.003 -0.1092  0.8791  0.7494
54927SOL     OW71895   5.965   9.417  12.769 -0.0354 -0.2900  0.1753
54927SOL    HW171896   5.873   9.390  12.774  0.1159 -0.6855  0.9672
54927SOL    HW271897   5.999   9.372  12.692 -0.7082  0.5259 -0.6299
54928SOL     OW71898   8.983   3.582   4.284  0.0758  0.6462  0.4061
54928SOL    HW171899   8.971   3.625   4.369  3.6950 -1.0683  1.9970
54928SOL    HW271900   9.051   3.633   4.241 -0.4859  0.4495 -0.7487
54929SOL     OW71901  10.851   5.253  11.257  0.0935 -0.5277 -0.1773
54929SOL    HW171902  10.900   5.277  11.336 -1.2465 -0.6318  0.7155
54929SOL    HW271903  10.779   5.198  11.289  0.4523 -1.9432 -1.6692
54930SOL     OW71904  11.264   6.629  10.690 -0.2297 -0.2158 -0.0044
54930SOL    HW171905  11.322   6.705  10.691 -1.0187  0.4669 -1.8641
54930SOL    HW271906  11.212   6.638  10.770  0.6464  0.4281  0.5045
54931SOL     OW71907   6.487   2.728   2.944 -0.3424  0.0818  0.0377
54931SOL    HW171908   6.557   2.736   2.878 -2.2816 -0.8227 -2.2595
54931SOL    HW271909   6.502   2.643   2.984  1.0417  0.7696  1.0840
54932SOL     OW71910   5.284  12.059   1.093 -0.5076  0.1039  0.1094
54932SOL    HW171911   5.192  12.039   1.079 -1.5125  1.8313  3.2663
54932SOL    HW271912   5.299  12.141   1.045 -0.1209 -0.9026 -1.5903
54933SOL     OW71913   3.908   0.181   2.227  0.0426 -0.3316  0.3364
54933SOL    HW171914   3.898   0.087   2.241  2.4907 -0.7881 -0.5373
54933SOL    HW271915   4.003   0.195   2.224 -0.2655  2.0892 -0.0867
54934SOL     OW71916  11.670   2.165  12.092  0.7582  0.6887  0.1755
54934SOL    HW171917  11.690   2.080  12.130 -1.4626 -0.0049 -0.0935
54934SOL    HW271918  11.678   2.152  11.998 -0.3081  0.5495  0.0938
54935SOL     OW71919   4.400   3.625   5.392 -0.1739  0.2685  0.5301
54935SOL    HW171920   4.453   3.697   5.427 -1.1824  0.1718  2.3816
54935SOL    HW271921   4.448   3.546   5.415 -0.6146  0.2268  1.3475
54936SOL     OW71922  12.521   8.318   9.542 -0.1086 -0.1716  0.2329
54936SOL    HW171923  12.515   8.223   9.546 -0.7943 -0.2326 -1.5212
54936SOL    HW271924  12.502   8.340   9.451  0.4073  1.6248  0.5171
54937SOL     OW71925   0.091   7.078   8.172  0.1131  0.5930  0.2668
54937SOL    HW171926   0.088   7.011   8.104 -0.2164  0.4788  0.3930
54937SOL    HW271927   0.135   7.035   8.246 -0.5507  0.3515  0.5260
54938SOL     OW71928   5.724   2.253  12.779 -0.4409 -0.2101  0.2329
54938SOL    HW171929   5.672   2.247  12.859  0.7393  0.9245  1.1245
54938SOL    HW271930   5.736   2.162  12.751  0.9096 -0.8271  2.5562
54939SOL     OW71931   6.474   6.959   5.423 -0.2625 -0.3254  0.1971
54939SOL    HW171932   6.380   6.948   5.406 -0.5683  2.5227 -0.4614
54939SOL    HW271933   6.517   6.930   5.343 -0.8382  1.1836 -0.6950
54940SOL     OW71934   2.030   5.440   3.809 -0.0042  0.3038 -0.0571
54940SOL    HW171935   2.040   5.376   3.879  0.6188  0.9630  0.4634
54940SOL    HW271936   1.936   5.455   3.804 -0.2728 -1.4402 -0.9154
54941SOL     OW71937  11.075   0.557   1.831  0.0608 -0.2799 -0.4097
54941SOL    HW171938  11.052   0.533   1.921 -1.4862 -1.6499 -1.1060
54941SOL    HW271939  11.019   0.501   1.777 -2.1634  3.3450 -2.2543
54942SOL     OW71940   1.587   2.280   0.684 -0.1894 -0.7083 -0.0918
54942SOL    HW171941   1.649   2.263   0.755  0.7519  0.6690 -0.5483
54942SOL    HW271942   1.611   2.218   0.615  1.3379  0.4513 -0.6401
54943SOL     OW71943  11.246   4.017   7.864 -0.3388  0.1111 -0.0984
54943SOL    HW171944  11.252   3.991   7.773 -0.0309  1.8695 -0.6271
54943SOL    HW271945  11.276   4.108   7.865 -0.6504  0.2383  1.6996
54944SOL     OW71946   3.149  10.707   2.516 -0.2503 -0.4569 -0.8463
54944SOL    HW171947   3.196  10.787   2.539 -0.6818  0.2553 -2.2474
54944SOL    HW271948   3.092  10.734   2.443 -0.3328 -2.0677 -1.4178
54945SOL     OW71949   0.768   9.695   7.543 -0.4817  0.0202  0.3005
54945SOL    HW171950   0.747   9.602   7.532 -0.4432  0.0586 -0.1060
54945SOL    HW271951   0.688   9.741   7.520  0.5103  0.2803 -3.3438
54946SOL     OW71952   2.574   9.579   0.606 -0.0825  0.4848  0.1929
54946SOL    HW171953   2.581   9.608   0.515  0.1406 -0.5595 -0.1276
54946SOL    HW271954   2.480   9.586   0.626 -0.0101  1.6394  0.2100
54947SOL     OW71955   7.959   6.056   7.743  0.2226  0.5901  0.2689
54947SOL    HW171956   7.907   5.993   7.693  1.2632 -0.3828  0.3634
54947SOL    HW271957   7.970   6.130   7.684 -1.3753  0.9052  0.3061
54948SOL     OW71958   1.388  11.530   8.143  0.7852 -0.3420 -0.3434
54948SOL    HW171959   1.367  11.464   8.077  2.3113 -0.2030 -1.0087
54948SOL    HW271960   1.472  11.566   8.114  1.4359 -0.2011  1.6353
54949SOL     OW71961   5.474   9.987   3.963  0.0262  0.2519 -0.1652
54949SOL    HW171962   5.555   9.974   3.913  0.7076  0.7179  0.7849
54949SOL    HW271963   5.495  10.057   4.025 -0.7168 -0.4660  0.9259
54950SOL     OW71964   0.432   3.418   4.681  0.2383  0.8172 -0.7586
54950SOL    HW171965   0.428   3.382   4.770 -2.2584  1.0077 -0.7418
54950SOL    HW271966   0.526   3.422   4.662  0.8262  0.2131  1.6260
54951SOL     OW71967   4.105   2.426   5.130 -0.3650  0.1055  0.2742
54951SOL    HW171968   4.132   2.434   5.221 -1.5684 -1.8062  0.8599
54951SOL    HW271969   4.187   2.413   5.082  0.3180  1.5668  0.9939
54952SOL     OW71970   5.870   5.825   5.952  0.1493  0.0150  0.0684
54952SOL    HW171971   5.901   5.873   6.029 -0.1314 -0.3059  0.3788
54952SOL    HW271972   5.878   5.733   5.975 -1.4167 -0.0848  0.3102
54953SOL     OW71973   9.757   8.263   9.432 -0.0050 -0.4153 -0.8076
54953SOL    HW171974   9.842   8.247   9.391  0.2225 -0.2920 -0.3967
54953SOL    HW271975   9.751   8.358   9.438  0.9979 -0.4282  1.5032
54954SOL     OW71976   2.575   2.672  12.590  0.4569 -0.1147  0.3108
54954SOL    HW171977   2.625   2.662  12.509 -0.1035 -1.2540  0.0935
54954SOL    HW271978   2.610   2.605  12.648  0.0308 -0.1004  0.5878
54955SOL     OW71979  10.808  11.179   3.104  0.3103  0.4537 -0.3046
54955SOL    HW171980  10.729  11.223   3.075 -0.2466 -0.3978 -0.1015
54955SOL    HW271981  10.826  11.215   3.191 -1.4537 -1.3213  0.8751
54956SOL     OW71982   3.689  12.218  12.828 -0.2110  0.2087 -0.4509
54956SOL    HW171983   3.609  12.179  12.864  0.1728 -0.2207 -0.0616
54956SOL    HW271984   3.744  12.237  12.905  1.6935 -3.0181 -0.8537
54957SOL     OW71985   5.868   4.699   2.624 -0.3018  0.0687  0.6767
54957SOL    HW171986   5.933   4.647   2.671  0.2397  1.5951  1.6743
54957SOL    HW271987   5.894   4.790   2.639  0.1269  0.6850 -2.8567
54958SOL     OW71988  10.798   3.123   3.483  0.2322 -0.6312  0.2949
54958SOL    HW171989  10.808   3.113   3.577  1.1372 -0.6639  0.2029
54958SOL    HW271990  10.802   3.034   3.448  1.8641 -0.5006  0.0633
54959SOL     OW71991   6.803   2.503  10.789  0.0178  0.6532 -0.0681
54959SOL    HW171992   6.868   2.563  10.825  0.2664  0.6694 -0.5452
54959SOL    HW271993   6.821   2.419  10.832 -1.4175  1.2822  1.9298
54960SOL     OW71994   0.345  11.364  11.199  0.2120 -0.3566  0.5796
54960SOL    HW171995   0.274  11.413  11.158 -3.1796 -0.4165  5.5595
54960SOL    HW271996   0.415  11.427  11.210  0.4384  0.2026 -2.8132
54961SOL     OW71997   9.135  10.361   9.624  0.5682  0.2181 -0.1152
54961SOL    HW171998   9.230  10.367   9.614  0.5596  0.2449 -0.1782
54961SOL    HW271999   9.100  10.401   9.544  0.5149 -1.4654 -0.9756
54962SOL     OW72000   1.663  11.483   7.695  0.5222  0.0972 -0.0153
54962SOL    HW172001   1.655  11.391   7.720  1.8627 -0.1006 -0.2462
54962SOL    HW272002   1.661  11.531   7.778 -3.0906  0.1630 -0.0103
54963SOL     OW72003   9.508  10.669   5.024 -0.2819 -0.3508 -0.1262
54963SOL    HW172004   9.422  10.627   5.031 -0.0987 -0.9557 -1.3215
54963SOL    HW272005   9.526  10.702   5.112 -1.1671 -1.3408  0.4392
54964SOL     OW72006   8.277   6.849   2.010 -0.3076  0.5378 -0.4703
54964SOL    HW172007   8.348   6.909   2.034 -1.1239  0.5703  2.1598
54964SOL    HW272008   8.249   6.879   1.924  2.2325  1.0963 -1.1770
54965SOL     OW72009   8.614   5.578   1.716  0.1544 -0.4145  0.1757
54965SOL    HW172010   8.670   5.603   1.790 -0.9821 -0.4992  1.0948
54965SOL    HW272011   8.596   5.485   1.730  0.9940 -0.7702 -0.9543
54966SOL     OW72012   9.064   2.641   5.178 -0.3706  0.4388  0.1155
54966SOL    HW172013   9.139   2.683   5.221 -0.4955  1.3795 -0.5589
54966SOL    HW272014   8.987   2.678   5.221 -0.5384  2.2753 -1.6235
54967SOL     OW72015  10.908  12.020   6.114 -0.0215 -0.1014 -0.2851
54967SOL    HW172016  10.887  12.113   6.107 -4.0546 -0.9344 -2.3102
54967SOL    HW272017  10.894  11.999   6.207 -0.5587  1.0442 -0.0918
54968SOL     OW72018  11.799   6.875   6.269  0.6536  0.1299  0.0598
54968SOL    HW172019  11.762   6.852   6.355  1.4905 -0.7915  0.1815
54968SOL    HW272020  11.722   6.881   6.212  0.3156 -3.0947 -0.0075
54969SOL     OW72021   9.597  10.143   1.680 -0.2184 -0.0235 -0.5314
54969SOL    HW172022   9.562  10.148   1.591 -1.8069 -0.4622  0.0196
54969SOL    HW272023   9.627  10.053   1.689  1.1190  0.3468 -0.9960
54970SOL     OW72024   9.552   2.392  12.956 -0.1589  0.2293  0.1562
54970SOL    HW172025   9.550   2.395  13.052  0.3654  1.3766  0.1443
54970SOL    HW272026   9.543   2.483  12.929  2.0020  0.2180 -0.8185
54971SOL     OW72027  12.545   2.145  10.263 -0.0272  0.3446  0.0728
54971SOL    HW172028  12.575   2.191  10.184 -1.4674  1.3615  0.0847
54971SOL    HW272029  12.615   2.159  10.327 -0.0993  1.8945 -0.1654
54972SOL     OW72030   4.167  11.621   5.742 -0.5399  0.0729  0.3002
54972SOL    HW172031   4.076  11.591   5.748 -0.9437  0.7735 -1.5852
54972SOL    HW272032   4.214  11.546   5.705 -0.2283 -0.4731  1.7689
54973SOL     OW72033  10.976   0.636   0.729  0.2020 -0.5039 -0.0558
54973SOL    HW172034  10.997   0.569   0.665 -0.4130  1.9243 -3.0305
54973SOL    HW272035  11.047   0.700   0.721 -2.2250  2.2359 -2.0615
54974SOL     OW72036   2.536   7.132   3.915 -0.1338 -0.1379 -0.1484
54974SOL    HW172037   2.587   7.091   3.985 -0.7547  0.0320  0.4052
54974SOL    HW272038   2.537   7.225   3.936 -0.6053 -0.1253 -0.1757
54975SOL     OW72039   4.783   5.720   1.229 -0.2177  0.5913  0.9645
54975SOL    HW172040   4.856   5.773   1.261  0.8618 -0.6609  0.6839
54975SOL    HW272041   4.763   5.662   1.303  0.1359 -0.1195  0.5189
54976SOL     OW72042   4.738  11.772   6.674  0.1558  0.0725  0.4489
54976SOL    HW172043   4.796  11.710   6.629 -0.5181 -0.1469 -0.1287
54976SOL    HW272044   4.693  11.720   6.740  0.6480  0.2571  0.9436
54977SOL     OW72045   6.228   0.235   5.429  0.0464  0.4663  0.6099
54977SOL    HW172046   6.264   0.290   5.359 -0.9763 -0.3846 -0.6180
54977SOL    HW272047   6.303   0.221   5.488  1.2392  0.3033 -0.8711
54978SOL     OW72048   9.373  12.035   7.552 -0.4286 -0.1915 -0.0992
54978SOL    HW172049   9.307  11.966   7.558 -0.8367  0.1168 -0.8253
54978SOL    HW272050   9.455  11.989   7.535 -0.5453 -0.5513  0.3166
54979SOL     OW72051   6.773   1.809   0.917 -0.5090 -0.2270  0.1339
54979SOL    HW172052   6.838   1.799   0.847 -0.2316 -2.5332  0.6208
54979SOL    HW272053   6.824   1.832   0.994 -0.5446  0.1537  0.0444
54980SOL     OW72054   8.987  11.755   0.352 -0.3492 -0.2695 -0.7110
54980SOL    HW172055   9.072  11.714   0.364 -0.4649 -0.7163 -1.3737
54980SOL    HW272056   8.924  11.686   0.371 -0.5588 -0.0310 -0.5316
54981SOL     OW72057  12.188   1.856   5.853 -0.0124 -0.2514  0.5001
54981SOL    HW172058  12.281   1.868   5.836  0.0408  1.2020  1.6477
54981SOL    HW272059  12.180   1.860   5.948 -1.0196 -2.3961  0.5752
54982SOL     OW72060   1.783  12.484   8.410 -0.5416  0.1170  0.1820
54982SOL    HW172061   1.843  12.440   8.470 -0.3190  0.1076 -0.0480
54982SOL    HW272062   1.697  12.473   8.451 -0.7642 -2.1082 -0.7207
54983SOL     OW72063   1.874   4.747   1.484  0.3762  0.2685 -0.3893
54983SOL    HW172064   1.827   4.821   1.523  0.1414  0.4527 -1.0155
54983SOL    HW272065   1.962   4.752   1.521 -0.5438 -1.1799  2.3241
54984SOL     OW72066   8.653   2.384   9.295 -0.6260  0.4528 -0.7033
54984SOL    HW172067   8.559   2.379   9.274 -1.0987 -0.2480  1.3338
54984SOL    HW272068   8.681   2.468   9.260 -2.0804  0.7869 -1.1368
54985SOL     OW72069   8.454   0.932   3.580 -0.0870 -0.1111 -0.2214
54985SOL    HW172070   8.534   0.886   3.554  1.6928  2.7254 -0.1938
54985SOL    HW272071   8.417   0.879   3.650  1.7549 -1.5449 -0.2743
54986SOL     OW72072   1.413  10.612   8.801 -0.0578 -0.3227  0.1964
54986SOL    HW172073   1.484  10.593   8.861 -1.3350 -0.2156  1.8106
54986SOL    HW272074   1.373  10.526   8.784  0.2554 -0.3431 -0.4526
54987SOL     OW72075  12.308  12.844   7.171  0.9599  0.4590  0.0577
54987SOL    HW172076  12.340  12.854   7.260 -1.2883  0.6152  0.9295
54987SOL    HW272077  12.271  12.930   7.150  1.0797  0.2909 -0.8630
54988SOL     OW72078   0.284  10.545   5.009 -0.1772  0.1140  0.3164
54988SOL    HW172079   0.342  10.482   4.967  0.9245  1.8636 -0.9271
54988SOL    HW272080   0.218  10.565   4.943  1.0509  2.2267 -0.3475
54989SOL     OW72081   2.347   7.485   2.176 -0.2479 -0.0687  0.1754
54989SOL    HW172082   2.253   7.505   2.181 -0.0535  0.5569  1.9956
54989SOL    HW272083   2.354   7.396   2.211 -0.1811 -0.2471 -0.2795
54990SOL     OW72084   2.876   4.484  12.108 -0.0028 -0.3281  0.1681
54990SOL    HW172085   2.873   4.448  12.019 -0.1845  0.3217 -0.0979
54990SOL    HW272086   2.928   4.564  12.100  0.4563 -0.5593  0.7617
54991SOL     OW72087   1.771   2.810   1.169  0.1196 -0.0584 -0.1063
54991SOL    HW172088   1.761   2.899   1.134  1.1711 -0.6825 -2.1616
54991SOL    HW272089   1.682   2.776   1.171 -0.1674  0.6220 -0.5194
54992SOL     OW72090   9.856   8.306   3.780 -0.3697 -0.1907 -0.3295
54992SOL    HW172091   9.849   8.213   3.756  2.6756 -0.7922  0.6767
54992SOL    HW272092   9.797   8.351   3.720 -1.9281 -2.7563 -0.8582
54993SOL     OW72093   2.829   2.499   4.316  0.6258 -0.0402  0.1433
54993SOL    HW172094   2.760   2.441   4.349  1.4835 -0.4538  1.2769
54993SOL    HW272095   2.862   2.544   4.394  1.6825  0.1010 -0.3652
54994SOL     OW72096  10.089  11.541   0.491 -0.0900  0.1832 -0.0719
54994SOL    HW172097  10.027  11.483   0.446  0.3171 -1.2243  1.0789
54994SOL    HW272098  10.171  11.492   0.492 -0.0916  0.1176  2.1446
54995SOL     OW72099   8.911   1.189   4.301  0.2827 -0.2786 -0.4467
54995SOL    HW172100   8.907   1.152   4.213 -3.7808 -1.0056 -0.1282
54995SOL    HW272101   8.953   1.120   4.353 -0.9626 -1.6184 -1.1326
54996SOL     OW72102  12.938   0.565  10.774  0.0014 -0.5481  0.0842
54996SOL    HW172103  12.916   0.567  10.867 -0.5448  2.6679  0.0009
54996SOL    HW272104  12.999   0.492  10.765 -1.1461 -1.9564  2.6308
54997SOL     OW72105   7.197   4.301   0.372 -0.4351  1.3171 -0.4659
54997SOL    HW172106   7.124   4.273   0.427  0.5924 -0.2261  0.1954
54997SOL    HW272107   7.275   4.270   0.418  0.6230  2.4404 -1.4162
54998SOL     OW72108   0.166  11.626   3.764  0.2502  0.4067  0.0136
54998SOL    HW172109   0.201  11.713   3.785 -0.6383  0.7878 -0.0409
54998SOL    HW272110   0.081  11.644   3.724  0.2449 -0.4764 -0.3868
54999SOL     OW72111   0.002  12.217   2.506  0.4880  0.4377  0.3284
54999SOL    HW172112   0.087  12.249   2.478  0.7998  0.0387  0.7876
54999SOL    HW272113  -0.025  12.276   2.576 -0.1340  1.2326 -0.5573
55000SOL     OW72114   8.970   0.709  10.087  0.3470  0.2622  0.3621
55000SOL    HW172115   8.955   0.752  10.172  0.3414  0.3837  0.3002
55000SOL    HW272116   9.017   0.629  10.109 -0.0286  0.0801  0.5234
55001SOL     OW72117  11.818  12.107  10.077  0.2741 -0.4504 -0.2373
55001SOL    HW172118  11.788  12.142   9.993  3.1764  2.5406 -0.2183
55001SOL    HW272119  11.749  12.131  10.139  0.5511  2.3014 -0.8810
55002SOL     OW72120   6.487  10.715   1.070 -0.1177  0.2166 -0.0455
55002SOL    HW172121   6.405  10.666   1.075 -0.1369  0.2529  0.0036
55002SOL    HW272122   6.526  10.706   1.157 -0.1475  0.3329 -0.0202
55003SOL     OW72123   3.237   9.628   3.116  0.6702 -0.2551 -0.3382
55003SOL    HW172124   3.193   9.590   3.040  0.5000  0.6536 -0.7079
55003SOL    HW272125   3.284   9.704   3.081 -0.1245  0.6916  0.5924
55004SOL     OW72126   1.338   5.388   7.375  0.9023  0.2349  0.1386
55004SOL    HW172127   1.287   5.467   7.391 -0.3561 -0.8090  1.6199
55004SOL    HW272128   1.281   5.333   7.321  0.7581 -0.6081  1.1186
55005SOL     OW72129   2.742  11.797   9.393  0.2678  0.2659  0.2087
55005SOL    HW172130   2.818  11.759   9.348  0.0673  1.7077 -1.4402
55005SOL    HW272131   2.667  11.762   9.346 -0.0951 -0.4414  1.2663
55006SOL     OW72132  12.921   4.143   8.391  0.3645 -0.0343  0.1973
55006SOL    HW172133  12.893   4.132   8.300 -0.1795  0.4397  0.3015
55006SOL    HW272134  12.858   4.092   8.442  1.1765 -1.0068  0.2510
55007SOL     OW72135   1.480  11.668  11.833 -0.5836 -0.1435  0.4356
55007SOL    HW172136   1.457  11.755  11.865 -0.7934  0.0042 -0.1016
55007SOL    HW272137   1.433  11.608  11.891 -0.3918  0.0955  0.8450
55008SOL     OW72138  12.302   1.563  12.828 -0.0628 -0.1955 -0.3815
55008SOL    HW172139  12.319   1.499  12.896 -0.0582  3.2616  3.2620
55008SOL    HW272140  12.389   1.597  12.804 -0.2335  0.9438  0.5118
55009SOL     OW72141  10.375   4.139   6.718 -0.4665  0.4437 -0.2011
55009SOL    HW172142  10.288   4.124   6.681 -0.1236 -1.0321 -0.4728
55009SOL    HW272143  10.435   4.095   6.657  0.3137 -0.0469  0.8909
55010SOL     OW72144   6.457   4.029  12.816 -0.1142  0.0394  0.3415
55010SOL    HW172145   6.446   4.087  12.892  4.6121  0.5911  0.9003
55010SOL    HW272146   6.507   4.081  12.753 -0.6489 -1.6566 -1.5784
55011SOL     OW72147   1.454   2.065   5.182 -0.1149  0.0136 -0.1542
55011SOL    HW172148   1.448   2.016   5.264  0.1477  0.4841  0.1530
55011SOL    HW272149   1.503   2.008   5.123  0.8846  0.2348  0.4527
55012SOL     OW72150   2.032   3.727   9.795  0.0135 -0.3482  0.2264
55012SOL    HW172151   1.978   3.652   9.821 -0.7142 -0.9998 -2.7738
55012SOL    HW272152   2.050   3.712   9.703  2.0646  1.9123  0.1695
55013SOL     OW72153   0.299   1.080   5.023  0.2461  0.0080 -0.4119
55013SOL    HW172154   0.287   1.151   4.959  0.3080 -0.1966 -0.6529
55013SOL    HW272155   0.350   1.121   5.094  0.2647  0.2115 -0.5392
55014SOL     OW72156   3.353  12.731   8.425  0.1241  0.7382 -0.1808
55014SOL    HW172157   3.441  12.703   8.451 -0.1726  0.2872  0.3438
55014SOL    HW272158   3.295  12.697   8.493 -0.4487  1.1386 -0.4575
55015SOL     OW72159   9.435   5.128   2.081  0.3311 -0.5609  0.8908
55015SOL    HW172160   9.528   5.128   2.103  0.4360 -0.1890  0.4676
55015SOL    HW272161   9.397   5.060   2.137  1.4981 -3.5211 -1.5525
55016SOL     OW72162   6.829   1.851   5.441 -0.3207 -0.0044 -0.2065
55016SOL    HW172163   6.874   1.790   5.382 -2.1345 -2.2092  0.5455
55016SOL    HW272164   6.736   1.839   5.421 -0.8074  1.3124  1.1282
55017SOL     OW72165   5.264   8.838   2.955 -0.1687 -0.0324 -0.2088
55017SOL    HW172166   5.250   8.910   3.016  1.3016 -0.4796  0.7087
55017SOL    HW272167   5.216   8.863   2.876 -0.9883  1.1918  0.6443
55018SOL     OW72168   8.240  12.176   8.210  0.0173 -0.2332 -0.0687
55018SOL    HW172169   8.261  12.269   8.197 -1.0690 -0.2400 -2.3250
55018SOL    HW272170   8.171  12.176   8.276 -0.9057  0.7089 -0.9910
55019SOL     OW72171   4.042   4.794   9.017 -0.6404 -0.5309 -0.0830
55019SOL    HW172172   4.102   4.762   8.949  0.2233 -2.0498  1.3359
55019SOL    HW272173   4.040   4.889   9.003  1.4175 -0.5221 -0.7440
55020SOL     OW72174   8.057   1.037   4.695  0.7501 -0.3292  0.0980
55020SOL    HW172175   8.067   0.943   4.711 -2.3917 -0.3079  3.8014
55020SOL    HW272176   8.132   1.077   4.739  1.5443 -1.0046 -0.6032
55021SOL     OW72177  10.444  11.693   4.821  0.4029  0.2237 -0.4340
55021SOL    HW172178  10.538  11.679   4.811  0.8881  0.0890  3.1985
55021SOL    HW272179  10.436  11.782   4.854 -0.8067  0.3666 -1.0498
55022SOL     OW72180  10.617   3.621   1.796 -0.2771  0.4166 -0.0456
55022SOL    HW172181  10.594   3.692   1.736 -2.0584  0.1692  0.2988
55022SOL    HW272182  10.533   3.589   1.830  0.3971 -2.3361 -0.7231
55023SOL     OW72183   2.601   9.027   8.026  0.3808 -0.0426  0.2958
55023SOL    HW172184   2.562   9.022   7.939  0.3539 -1.2629  0.3580
55023SOL    HW272185   2.609   9.121   8.043 -0.0867  0.2191 -0.8021
55024SOL     OW72186   5.399  11.493   0.396 -0.1605  0.3851 -0.7336
55024SOL    HW172187   5.398  11.415   0.452 -0.6972  2.1247  1.8502
55024SOL    HW272188   5.486  11.531   0.410 -0.3403  0.8922 -0.9896
55025SOL     OW72189   9.592   3.014   8.696 -0.3136 -0.2942 -0.3761
55025SOL    HW172190   9.651   3.037   8.624  0.0828  1.8992  0.5575
55025SOL    HW272191   9.505   3.009   8.656  0.1177 -0.6936 -1.2739
55026SOL     OW72192   9.714  12.295   0.737  0.3284  0.1614  0.0668
55026SOL    HW172193   9.795  12.261   0.698  0.5140  1.9307 -1.2058
55026SOL    HW272194   9.695  12.235   0.809  2.5464 -0.5434  0.1360
55027SOL     OW72195   5.803   9.609  10.122  0.4595 -0.3114 -0.2895
55027SOL    HW172196   5.896   9.585  10.120  0.2128 -1.2453 -1.9716
55027SOL    HW272197   5.787   9.632  10.214  2.0067 -1.5190  0.3334
55028SOL     OW72198   8.672   2.213   7.109  0.2109 -0.0503 -0.4096
55028SOL    HW172199   8.652   2.133   7.060  0.2363  0.9627 -2.1536
55028SOL    HW272200   8.587   2.253   7.126  0.1178 -0.8806  1.3284
55029SOL     OW72201  12.623   3.089   3.765  0.0832  0.1268 -0.2237
55029SOL    HW172202  12.553   3.091   3.831 -1.0247 -0.5798 -1.3251
55029SOL    HW272203  12.686   3.154   3.795 -0.9884  0.7013  0.8887
55030SOL     OW72204   0.270   0.120   4.600 -0.3578 -0.3636  0.0212
55030SOL    HW172205   0.285   0.028   4.576 -0.0819 -0.1065 -0.8404
55030SOL    HW272206   0.182   0.121   4.639 -0.6466 -0.8826 -0.5993
55031SOL     OW72207  10.895  12.559   9.594 -0.4205  0.1244  0.1985
55031SOL    HW172208  10.901  12.578   9.500 -0.5378  0.8490  0.3366
55031SOL    HW272209  10.919  12.641   9.637  0.8793 -0.5513  0.8222
55032SOL     OW72210  12.460   3.976   4.562 -0.0559 -0.1435  0.0064
55032SOL    HW172211  12.371   3.946   4.581  0.3014 -0.9366  0.4896
55032SOL    HW272212  12.505   3.898   4.529  0.2369  0.4452 -1.0552
55033SOL     OW72213   5.534   2.540  10.670 -0.0234  0.6297  0.1662
55033SOL    HW172214   5.577   2.612  10.716  0.0975  1.9269 -1.8677
55033SOL    HW272215   5.605   2.499  10.620 -0.5906  0.8630 -0.8416
55034SOL     OW72216   3.769   5.199  11.384 -1.2909  0.0352  0.2131
55034SOL    HW172217   3.790   5.199  11.477  0.7916  3.1168 -0.0795
55034SOL    HW272218   3.831   5.138  11.345  0.0731  1.1072  0.5881
55035SOL     OW72219  12.552  11.681   5.907 -0.0239  0.0221  0.2774
55035SOL    HW172220  12.533  11.589   5.926 -0.7039  0.4180  1.6950
55035SOL    HW272221  12.475  11.712   5.859  0.3270 -0.2118 -0.4415
55036SOL     OW72222  10.071   3.427   2.672  0.1163 -0.3104 -0.6453
55036SOL    HW172223  10.030   3.366   2.611  0.9244 -1.3445 -0.1874
55036SOL    HW272224   9.998   3.459   2.726 -0.3783 -0.5464 -1.1705
55037SOL     OW72225  11.809   9.344   7.351  0.1138  0.2192 -0.3713
55037SOL    HW172226  11.875   9.350   7.420  0.2491  0.6868 -0.5381
55037SOL    HW272227  11.766   9.429   7.351 -0.1579  0.0857 -0.5965
55038SOL     OW72228   3.289   4.771   0.089  0.0799 -0.4907  0.3635
55038SOL    HW172229   3.253   4.837   0.148 -0.3609 -0.3110 -0.1014
55038SOL    HW272230   3.380   4.799   0.074  0.3948 -0.8847  1.4458
55039SOL     OW72231  10.599   0.486   0.460  0.7833 -0.2141  0.6198
55039SOL    HW172232  10.575   0.507   0.370  1.2626  1.5329  0.8431
55039SOL    HW272233  10.612   0.392   0.461 -0.1718 -0.3882 -0.9024
55040SOL     OW72234  11.187   9.662   3.961 -0.4526  0.2360  0.2486
55040SOL    HW172235  11.174   9.749   3.922 -2.5725 -0.4326 -0.7071
55040SOL    HW272236  11.164   9.674   4.053 -0.5566  0.7377  0.1609
55041SOL     OW72237  10.872   2.396   6.554  0.0092 -0.1393 -0.2873
55041SOL    HW172238  10.919   2.422   6.475 -0.1727 -0.4075 -0.4854
55041SOL    HW272239  10.802   2.339   6.523  0.9911 -1.6824  0.2057
55042SOL     OW72240   9.229   7.065  10.074  0.6328  0.1656  0.4803
55042SOL    HW172241   9.255   6.984  10.030  0.1702  0.2944 -0.0435
55042SOL    HW272242   9.266   7.058  10.162  0.3433 -0.7446  0.5353
55043SOL     OW72243   5.586   8.532   3.699 -0.0668 -0.3421  0.7101
55043SOL    HW172244   5.638   8.582   3.636 -0.4915  0.3145  0.8701
55043SOL    HW272245   5.639   8.455   3.718  0.4950 -0.0707  0.2802
55044SOL     OW72246   7.549   4.446   5.454 -0.4681  0.1405  0.3168
55044SOL    HW172247   7.472   4.445   5.511 -1.7100 -1.5460 -1.2686
55044SOL    HW272248   7.601   4.520   5.485 -0.6382 -1.1411  4.1438
55045SOL     OW72249   2.604  11.550   1.521  0.3501  0.1574  0.3968
55045SOL    HW172250   2.530  11.515   1.571 -0.1568 -0.3879 -0.7031
55045SOL    HW272251   2.652  11.604   1.584 -1.8131  1.7785  0.7783
55046SOL     OW72252   1.614  10.766   6.189  0.1511 -0.5652 -0.4851
55046SOL    HW172253   1.601  10.854   6.226 -0.2533 -0.3708 -1.0716
55046SOL    HW272254   1.526  10.733   6.175  0.2730 -0.2754 -2.0915
55047SOL     OW72255   5.797   0.567   8.427 -0.3897 -0.3141 -0.7817
55047SOL    HW172256   5.892   0.574   8.416 -0.2879  0.8249  0.4983
55047SOL    HW272257   5.781   0.474   8.438  0.8521 -0.3908  0.9000
55048SOL     OW72258   2.167   6.395   1.328  0.3353 -0.0683  0.0637
55048SOL    HW172259   2.111   6.320   1.350  1.1592 -1.4521 -2.1821
55048SOL    HW272260   2.256   6.359   1.326  0.6792  0.7510 -1.7267
55049SOL     OW72261   9.522   2.076   4.676  0.2054  0.0104 -0.0555
55049SOL    HW172262   9.462   2.149   4.692  0.1697  0.2329 -1.1298
55049SOL    HW272263   9.472   2.015   4.622  0.9142  0.1886 -0.9452
55050SOL     OW72264   1.275   2.664   0.669  0.3120 -0.1762  0.2986
55050SOL    HW172265   1.276   2.738   0.730  1.4720  0.0832 -0.0114
55050SOL    HW272266   1.353   2.613   0.691  0.4785 -0.3493 -0.6325
55051SOL     OW72267  12.607   2.205   0.636  0.8953 -0.2798  0.3315
55051SOL    HW172268  12.621   2.271   0.568 -0.3897  0.5243  0.8005
55051SOL    HW272269  12.527   2.160   0.609  0.9649 -0.6626  0.7582
55052SOL     OW72270   9.313  11.555  11.448 -0.2586  0.0169 -0.4960
55052SOL    HW172271   9.390  11.500  11.435  1.1429  2.0063 -1.1649
55052SOL    HW272272   9.239  11.500  11.422  1.0698 -1.4166 -1.4164
55053SOL     OW72273   3.636   3.944   0.040  0.2788  0.7964  0.4524
55053SOL    HW172274   3.583   3.983  -0.030  0.1949  0.0608  0.1006
55053SOL    HW272275   3.642   3.852   0.017  1.9079  0.9032  0.3804
55054SOL     OW72276  12.008  10.691   5.644  0.3030  0.9816 -0.7375
55054SOL    HW172277  12.014  10.781   5.674 -0.3404  0.3673  1.3720
55054SOL    HW272278  12.065  10.641   5.702  0.1455 -0.0791 -1.4489
55055SOL     OW72279   3.293   6.860   2.833 -0.3496  0.4564  0.1838
55055SOL    HW172280   3.278   6.930   2.769 -0.2348  0.2945 -0.0205
55055SOL    HW272281   3.298   6.905   2.917  0.6768  0.7954 -0.0525
55056SOL     OW72282   3.083   9.044   8.195 -0.1355  0.1210 -0.0318
55056SOL    HW172283   3.028   9.049   8.117 -1.7233  1.3182  1.1106
55056SOL    HW272284   3.130   8.961   8.185 -0.2749  0.2357 -2.2393
55057SOL     OW72285   5.347  11.626   3.574 -0.3550 -0.0558 -0.4004
55057SOL    HW172286   5.428  11.594   3.534  0.7303  0.5915  1.1828
55057SOL    HW272287   5.360  11.720   3.584 -1.2363  0.0293  0.0343
55058SOL     OW72288  12.665   1.008   2.824 -0.3364 -0.6583  0.6103
55058SOL    HW172289  12.720   1.067   2.875  0.1820 -0.7545  0.1633
55058SOL    HW272290  12.575   1.030   2.852 -0.3029  1.5752 -0.7969
55059SOL     OW72291   8.867   8.493   7.529 -0.5211  0.0956  0.3172
55059SOL    HW172292   8.843   8.537   7.610 -1.5814 -0.2271  0.1974
55059SOL    HW272293   8.786   8.489   7.479  0.0659  0.0751 -0.6601
55060SOL     OW72294   5.639   5.407  10.897 -0.1539 -0.0044  0.0940
55060SOL    HW172295   5.553   5.367  10.903  0.0605 -0.3442  1.1072
55060SOL    HW272296   5.622   5.500  10.878 -0.7537 -0.0083  0.6045
55061SOL     OW72297   2.925   1.506  10.208  0.1675  0.2461 -0.1862
55061SOL    HW172298   2.897   1.588  10.249  1.5571  1.1126 -0.9026
55061SOL    HW272299   3.009   1.527  10.168  0.7244 -1.6392 -0.0841
55062SOL     OW72300   8.870   8.310   5.734  0.0409 -0.2482 -0.2960
55062SOL    HW172301   8.881   8.287   5.827 -0.8237  0.4111 -0.0200
55062SOL    HW272302   8.917   8.393   5.725 -2.2704  1.2024  0.2627
55063SOL     OW72303   0.115  12.112   1.952  0.4424  0.0836  0.3677
55063SOL    HW172304   0.208  12.135   1.961  0.2875  0.9221 -0.0840
55063SOL    HW272305   0.089  12.084   2.040  0.3472  2.8731  1.3207
55064SOL     OW72306   5.671   5.163   5.448 -0.4428 -0.9033 -0.2593
55064SOL    HW172307   5.746   5.179   5.391  0.2341  0.7155  1.0119
55064SOL    HW272308   5.619   5.098   5.401  1.6394 -1.9463 -1.2697
55065SOL     OW72309  11.265  12.322   0.115  0.0444  0.0325 -0.1050
55065SOL    HW172310  11.175  12.293   0.128 -0.2915  0.0907 -1.9879
55065SOL    HW272311  11.296  12.346   0.202 -2.2803  1.5013  0.3768
55066SOL     OW72312   0.807  10.569   9.778  0.2962  0.6122 -0.2343
55066SOL    HW172313   0.868  10.586   9.850  0.6187 -2.8887  0.5174
55066SOL    HW272314   0.721  10.589   9.814  0.5759  0.3125  0.6361
55067SOL     OW72315   3.865   4.070  10.680  0.2632  0.2299 -0.0316
55067SOL    HW172316   3.896   3.980  10.668 -0.8574 -0.5827  2.4318
55067SOL    HW272317   3.937   4.125  10.650  0.5157 -1.4027 -2.7854
55068SOL     OW72318  12.749   8.183  10.218  0.1601 -0.4706 -0.0003
55068SOL    HW172319  12.834   8.226  10.224 -1.1916  2.5659 -0.7384
55068SOL    HW272320  12.718   8.178  10.308 -0.2093  1.4256  0.0078
55069SOL     OW72321  11.724   0.646  10.709  0.2597 -0.2054  0.1854
55069SOL    HW172322  11.797   0.670  10.767 -0.3560  0.8464  0.5512
55069SOL    HW272323  11.648   0.646  10.767 -0.1984 -0.2138 -0.4161
55070SOL     OW72324   3.210   2.737   1.551  0.5124  0.2999  0.8452
55070SOL    HW172325   3.264   2.816   1.543  0.2751  0.6588  2.4362
55070SOL    HW272326   3.139   2.762   1.611  1.4573 -1.5935  2.9126
55071SOL     OW72327   8.438   4.847   7.316  0.6151 -0.6686 -0.2998
55071SOL    HW172328   8.483   4.931   7.319  2.3332 -1.5748  1.2167
55071SOL    HW272329   8.459   4.811   7.230 -2.1117  1.3795 -1.9860
55072SOL     OW72330   3.697   1.676   8.248 -0.5538  0.4731  0.3067
55072SOL    HW172331   3.767   1.683   8.312 -1.3611  0.8628  1.1787
55072SOL    HW272332   3.732   1.619   8.180 -0.5920 -2.3298  2.4116
55073SOL     OW72333  11.066   7.861   3.479  0.3173  0.4725  0.1870
55073SOL    HW172334  11.121   7.844   3.403 -0.6931 -0.5692 -0.3544
55073SOL    HW272335  11.043   7.774   3.512 -0.1627  0.8986  1.0126
55074SOL     OW72336   8.998   8.329   0.387  0.3790 -0.2377  0.1039
55074SOL    HW172337   9.028   8.394   0.450  1.5498 -1.4161  0.8085
55074SOL    HW272338   8.903   8.325   0.401  0.4983  0.1888  1.1391
55075SOL     OW72339  11.761  12.685  11.112  0.4219 -0.3065 -0.7234
55075SOL    HW172340  11.826  12.639  11.058 -0.1742 -0.8148 -1.0196
55075SOL    HW272341  11.770  12.777  11.088  0.7904 -0.4173 -1.0192
55076SOL     OW72342   8.580   4.741   3.870 -0.1082  0.5868 -0.3824
55076SOL    HW172343   8.610   4.653   3.888 -0.4125  0.6063  0.2356
55076SOL    HW272344   8.634   4.797   3.926  0.0114  0.7854 -0.6937
55077SOL     OW72345   2.853  10.861   5.006 -0.0297 -0.3995 -0.2148
55077SOL    HW172346   2.785  10.794   5.013 -0.0690 -0.3770 -0.3943
55077SOL    HW272347   2.852  10.904   5.092 -0.1924 -0.4478 -0.1924
55078SOL     OW72348   3.806   1.696   9.130 -0.2067 -0.2314  0.3368
55078SOL    HW172349   3.871   1.710   9.061 -0.8855 -0.5068 -0.3729
55078SOL    HW272350   3.854   1.653   9.200  0.8338  1.3643  0.6378
55079SOL     OW72351  11.358   1.080  10.068 -0.2209 -0.1534 -0.5422
55079SOL    HW172352  11.290   1.067  10.001  1.5303  2.3328 -3.0147
55079SOL    HW272353  11.406   0.997  10.069 -1.5301 -0.9565 -0.8296
55080SOL     OW72354   0.073  11.350   0.201  0.2716 -0.3003  0.3648
55080SOL    HW172355   0.083  11.308   0.115 -0.5160 -1.6058  0.8864
55080SOL    HW272356   0.027  11.433   0.182 -0.8508 -1.0648 -0.3765
55081SOL     OW72357   4.024   6.872  11.989  0.4154  0.3624  0.4827
55081SOL    HW172358   4.108   6.829  11.975 -0.7161 -2.9237  2.4698
55081SOL    HW272359   3.969   6.841  11.917  0.2292  0.3978  0.6075
55082SOL     OW72360   0.191   6.329   1.725 -0.5488  0.1651  0.3044
55082SOL    HW172361   0.206   6.401   1.786  0.5103  1.0842 -0.9976
55082SOL    HW272362   0.114   6.356   1.674  0.6175  1.0272 -1.0625
55083SOL     OW72363   0.491   5.321   7.112 -0.1932  0.1465  0.2684
55083SOL    HW172364   0.532   5.318   7.026  0.1408  0.5492  0.4047
55083SOL    HW272365   0.500   5.413   7.139 -0.1298 -0.0137  0.8041
55084SOL     OW72366  10.879   9.523  12.418  0.5019  0.1925 -0.2734
55084SOL    HW172367  10.790   9.530  12.383  0.4123 -2.6002 -0.8478
55084SOL    HW272368  10.931   9.582  12.363 -0.7218  0.5895 -1.0401
55085SOL     OW72369   7.524   4.252   5.941 -0.0917  0.3264 -0.8578
55085SOL    HW172370   7.608   4.297   5.948  0.6671 -1.0003 -1.0232
55085SOL    HW272371   7.527   4.187   6.011 -0.8169 -0.0013 -1.1248
55086SOL     OW72372   3.553   7.563   3.798  0.0815 -0.7179  0.0342
55086SOL    HW172373   3.465   7.555   3.834  0.0311  0.9188  0.3597
55086SOL    HW272374   3.545   7.535   3.707 -1.4539  2.0582 -0.7858
55087SOL     OW72375   6.270   2.918   6.688 -0.4522  0.3422 -0.4398
55087SOL    HW172376   6.351   2.922   6.739 -0.6825 -0.5336  0.0174
55087SOL    HW272377   6.216   2.853   6.734 -1.5764  1.1903 -0.5014
55088SOL     OW72378   3.824   0.186  12.815 -0.1859 -0.4614  0.4730
55088SOL    HW172379   3.765   0.184  12.740  3.0355 -0.0027 -2.3373
55088SOL    HW272380   3.860   0.275  12.814  0.5464 -0.7173  2.0852
55089SOL     OW72381   9.458   1.673   4.969 -0.3154 -0.1906 -0.2845
55089SOL    HW172382   9.457   1.579   4.990  1.9725  0.1679  2.0026
55089SOL    HW272383   9.544   1.688   4.931 -0.5037  1.0653 -0.2437
55090SOL     OW72384  10.505   3.005  12.766 -0.0883 -0.5331  0.0155
55090SOL    HW172385  10.476   2.944  12.835 -1.1674 -0.0780 -0.0035
55090SOL    HW272386  10.461   3.088  12.788  1.3197  0.2390  0.0153
55091SOL     OW72387   0.744   7.129   2.193 -0.1507 -0.1822 -0.2749
55091SOL    HW172388   0.706   7.077   2.264 -1.1947  0.3155 -0.4379
55091SOL    HW272389   0.697   7.213   2.197 -0.1975 -0.1230 -1.5129
55092SOL     OW72390   4.104   8.395   0.202  0.2993 -0.2182 -0.0926
55092SOL    HW172391   4.161   8.447   0.145 -0.9375  1.4080  0.0839
55092SOL    HW272392   4.134   8.414   0.290 -0.2553  0.3387 -0.0194
55093SOL     OW72393   1.685   7.136   6.681  0.0636  0.5491 -0.0360
55093SOL    HW172394   1.620   7.065   6.674 -0.4726  1.0363 -0.0505
55093SOL    HW272395   1.711   7.153   6.591  1.2860 -0.6181  0.0733
55094SOL     OW72396   2.810  10.654   8.084  0.1104 -0.0182  0.3381
55094SOL    HW172397   2.780  10.671   8.174 -0.2192  0.9119  0.0675
55094SOL    HW272398   2.902  10.628   8.094  0.6522  1.8816  0.8480
55095SOL     OW72399   8.141   3.434   3.904 -0.0813 -0.0170 -0.1784
55095SOL    HW172400   8.203   3.418   3.975 -0.0169  2.3890  0.3983
55095SOL    HW272401   8.173   3.514   3.862 -0.8664 -0.6599 -2.1046
55096SOL     OW72402   9.751   3.589   7.953  0.3078 -0.4726 -0.0417
55096SOL    HW172403   9.767   3.588   7.859  0.6011 -3.1490 -0.0373
55096SOL    HW272404   9.674   3.646   7.964 -0.5285 -1.1474 -2.0520
55097SOL     OW72405  11.381  10.681   9.239 -0.2034 -0.4393  0.2025
55097SOL    HW172406  11.438  10.604   9.241 -0.1885 -0.4788 -1.0554
55097SOL    HW272407  11.422  10.742   9.301  1.3551 -0.3903 -0.8185
55098SOL     OW72408  11.639   3.285   2.842  0.4763 -0.5869  0.0341
55098SOL    HW172409  11.622   3.322   2.755 -1.8394 -0.2534  0.5609
55098SOL    HW272410  11.606   3.195   2.836  0.4036 -0.5939  0.5273
55099SOL     OW72411  11.252  10.912   9.418  0.3542 -0.3408  0.4402
55099SOL    HW172412  11.196  10.842   9.453  1.3362 -1.7164 -0.6134
55099SOL    HW272413  11.210  10.937   9.335  0.7216 -0.6627  0.1492
55100SOL     OW72414   4.399   6.282   9.301  0.1666 -0.6435 -0.0318
55100SOL    HW172415   4.403   6.187   9.288 -0.6683 -0.7550  0.4886
55100SOL    HW272416   4.411   6.318   9.213 -2.9804 -1.3407 -0.8711
55101SOL     OW72417   1.041   4.686   5.067  0.1820 -0.5515 -0.4378
55101SOL    HW172418   0.974   4.738   5.024 -0.6158  0.1426  1.5119
55101SOL    HW272419   1.001   4.659   5.150  1.5872 -1.8801 -0.1276
55102SOL     OW72420   6.236   7.212   8.175  0.7662 -0.7330 -1.1296
55102SOL    HW172421   6.240   7.157   8.254  3.4813 -0.1852 -0.7714
55102SOL    HW272422   6.172   7.280   8.197  1.6542 -0.4350  0.7734
55103SOL     OW72423   2.348   5.874   1.542  0.3115 -0.1238 -0.3776
55103SOL    HW172424   2.432   5.850   1.580 -0.0019 -0.3785  0.1594
55103SOL    HW272425   2.368   5.896   1.451  1.2168  1.3235  0.1244
55104SOL     OW72426   2.583   0.791   8.184 -0.4261  0.9300  0.4563
55104SOL    HW172427   2.598   0.697   8.178 -0.8278  0.9095 -0.3690
55104SOL    HW272428   2.556   0.806   8.274  0.3800  0.3695  0.8031
55105SOL     OW72429  10.674   5.388   4.002  0.1764  0.4179  0.2937
55105SOL    HW172430  10.707   5.325   4.067 -0.4384  0.9657  1.1581
55105SOL    HW272431  10.674   5.472   4.048 -0.3002  0.8061 -0.4081
55106SOL     OW72432   9.451   7.309   2.257  0.0458  0.1596  0.1914
55106SOL    HW172433   9.497   7.392   2.266  0.9293 -0.2006 -0.6750
55106SOL    HW272434   9.361   7.332   2.236  0.6582  0.9451 -1.8194
55107SOL     OW72435  10.362   4.822   1.317  0.3070 -0.2910  0.3333
55107SOL    HW172436  10.441   4.822   1.372  0.5624 -1.4969  0.0045
55107SOL    HW272437  10.311   4.747   1.349  0.0928 -0.5290 -0.5534
55108SOL     OW72438   1.244   0.430  12.446 -0.2050  0.0896  0.2938
55108SOL    HW172439   1.320   0.454  12.499 -0.2592 -0.1979  0.5038
55108SOL    HW272440   1.214   0.512  12.409 -0.4656  0.3734  1.1041
55109SOL     OW72441   1.647   4.285   3.111 -0.4612  0.5313 -0.4288
55109SOL    HW172442   1.604   4.252   3.032  0.4502  0.9502 -1.1221
55109SOL    HW272443   1.577   4.292   3.176 -1.0905 -0.5401 -0.9627
55110SOL     OW72444   1.007   7.466   8.021 -0.2691  0.4917 -0.3813
55110SOL    HW172445   1.090   7.438   8.059 -0.6487 -0.3956 -0.1788
55110SOL    HW272446   1.002   7.420   7.938 -0.8872 -0.0421 -0.0599
55111SOL     OW72447   6.704   7.650   4.787 -0.4363 -0.1004 -0.3101
55111SOL    HW172448   6.689   7.557   4.803  0.8521 -0.2877 -0.0640
55111SOL    HW272449   6.722   7.655   4.693 -1.5293  0.0673 -0.5274
55112SOL     OW72450  12.552  11.664   0.200 -0.4095  0.2386 -0.0776
55112SOL    HW172451  12.573  11.673   0.293  3.4988  0.6247 -0.8229
55112SOL    HW272452  12.564  11.752   0.164 -4.0437  0.6305 -0.7673
55113SOL     OW72453  10.041   2.916  12.120  0.7741 -0.3451 -0.2433
55113SOL    HW172454   9.989   2.897  12.198  1.5263 -0.6053  0.2088
55113SOL    HW272455  10.119   2.961  12.153  0.4167  0.8842 -1.0038
55114SOL     OW72456  10.279   1.867   5.064 -0.1755 -0.7102 -0.3374
55114SOL    HW172457  10.226   1.946   5.078  0.8681 -0.0757  0.1193
55114SOL    HW272458  10.302   1.871   4.971  2.0961  1.0044  0.2059
55115SOL     OW72459   9.585   7.138  11.690 -0.3190 -0.3745 -0.4331
55115SOL    HW172460   9.618   7.053  11.720 -1.6971 -0.5514  0.6803
55115SOL    HW272461   9.612   7.199  11.759 -0.3491 -0.1142 -0.6515
55116SOL     OW72462   6.093  12.445   5.522 -0.2788  0.6656  0.4294
55116SOL    HW172463   6.004  12.423   5.493 -1.3806  2.7531  1.9546
55116SOL    HW272464   6.111  12.530   5.482  1.9904 -0.6604 -1.6291
55117SOL     OW72465   0.374   1.953  12.098  0.2081 -0.2804 -0.1630
55117SOL    HW172466   0.382   2.034  12.048 -0.6550 -1.6419 -2.6829
55117SOL    HW272467   0.304   1.904  12.054  0.5782 -2.3336  1.3628
55118SOL     OW72468   6.976  12.452  12.638  0.3950 -0.2462  0.5602
55118SOL    HW172469   7.055  12.463  12.691  0.0981  0.4632  0.8631
55118SOL    HW272470   6.904  12.472  12.698 -0.0061 -0.6507  0.2203
55119SOL     OW72471   5.520   9.869  12.667 -0.7700  0.0774  0.0778
55119SOL    HW172472   5.440   9.911  12.635 -0.9329 -0.9215 -0.8550
55119SOL    HW272473   5.590   9.909  12.615 -0.7520  0.3389  0.3017
55120SOL     OW72474  10.116   6.446  12.851 -0.3798  0.0662  0.1733
55120SOL    HW172475  10.098   6.537  12.870 -1.7942 -0.2529  0.4924
55120SOL    HW272476  10.085   6.398  12.928  3.2233 -0.5100  1.4604
55121SOL     OW72477  10.193  11.945   3.964 -0.2691 -0.4747 -0.0672
55121SOL    HW172478  10.196  12.010   4.033 -2.0610  0.4081 -0.7716
55121SOL    HW272479  10.179  11.995   3.883 -0.9872 -1.6568 -0.7152
55122SOL     OW72480   2.196  11.332  10.874  0.2622 -0.0100  0.3098
55122SOL    HW172481   2.274  11.372  10.913  0.2436  0.5420 -0.2010
55122SOL    HW272482   2.134  11.324  10.947 -0.0369  1.6801  0.2936
55123SOL     OW72483  12.806  11.112   1.522  0.6933 -0.0492  0.7604
55123SOL    HW172484  12.727  11.083   1.567 -0.5551 -2.0343 -2.3612
55123SOL    HW272485  12.774  11.168   1.451  1.7094 -2.4387 -1.7955
55124SOL     OW72486   8.626  11.371   6.953  0.0987 -0.4130 -0.6102
55124SOL    HW172487   8.718  11.391   6.934  0.5913 -0.5402  1.3885
55124SOL    HW272488   8.585  11.457   6.962  0.4295 -0.3252  0.1701
55125SOL     OW72489   6.872   1.168  11.290 -0.3280 -0.3412 -0.0665
55125SOL    HW172490   6.802   1.160  11.355  1.4696  1.8482  2.3553
55125SOL    HW272491   6.849   1.245  11.239 -0.2784 -0.3129 -0.0460
55126SOL     OW72492   6.822   6.917   0.528  0.1053  0.4827 -0.5322
55126SOL    HW172493   6.738   6.887   0.495  0.3374 -2.8009  1.4510
55126SOL    HW272494   6.886   6.861   0.485  0.7797 -0.6060  1.7700
55127SOL     OW72495  11.453   1.396   8.307  0.1067  0.2727 -0.4973
55127SOL    HW172496  11.521   1.338   8.338  1.4452  1.8422 -0.3367
55127SOL    HW272497  11.372   1.346   8.314  1.1911 -1.5175 -0.3638
55128SOL     OW72498  11.438   5.003   5.872 -0.1568 -0.0970 -0.3698
55128SOL    HW172499  11.465   5.093   5.853 -2.3875  0.7233 -0.0641
55128SOL    HW272500  11.470   4.987   5.961  0.3295  0.3806 -0.4553
55129SOL     OW72501   9.874   8.488   4.917  0.0564  0.2250 -0.2165
55129SOL    HW172502   9.964   8.457   4.928  0.5561  1.5095 -0.4959
55129SOL    HW272503   9.883   8.570   4.869 -1.2865  0.2942 -0.3771
55130SOL     OW72504   5.854   4.321   1.115  0.3502  0.0627  0.4398
55130SOL    HW172505   5.874   4.240   1.163 -1.6618 -0.7803 -0.0574
55130SOL    HW272506   5.934   4.339   1.065  1.0063 -1.3371  0.9206
55131SOL     OW72507  12.824   6.532   4.502 -0.4370  0.3020  0.3912
55131SOL    HW172508  12.772   6.454   4.482  1.8013 -1.3720  0.6996
55131SOL    HW272509  12.828   6.534   4.598 -0.6322  0.9504  0.3949
55132SOL     OW72510   6.452   7.032   6.955  0.5780 -0.2870 -0.1797
55132SOL    HW172511   6.543   7.057   6.941  1.0257 -0.3797  2.2242
55132SOL    HW272512   6.457   6.953   7.009 -0.9098  0.3994  1.0259
55133SOL     OW72513  10.593   7.961  10.236 -0.0601 -0.6611 -0.6467
55133SOL    HW172514  10.607   8.050  10.204 -2.0758  0.1095  0.4416
55133SOL    HW272515  10.522   7.926  10.182 -0.1163 -1.1482 -0.2673
55134SOL     OW72516   3.932  11.328   2.420  0.4122 -0.4390  0.1769
55134SOL    HW172517   3.932  11.318   2.515 -0.2607 -0.8959  0.1335
55134SOL    HW272518   4.024  11.318   2.395  0.5198 -0.8461  0.7251
55135SOL     OW72519   8.340  12.454  10.911  0.3389 -0.0606 -0.4661
55135SOL    HW172520   8.305  12.397  10.979  0.7528  2.2175  1.7791
55135SOL    HW272521   8.432  12.429  10.904  0.0258 -1.1202 -1.1431
55136SOL     OW72522   2.565  11.999  12.580  0.6558 -0.2255 -0.2966
55136SOL    HW172523   2.487  11.983  12.633  1.2090 -0.5136  0.4495
55136SOL    HW272524   2.542  12.074  12.525  0.3882  0.7029  1.0262
55137SOL     OW72525   3.335  12.329   0.730  0.0063 -0.1461  0.0428
55137SOL    HW172526   3.317  12.315   0.823  1.2282 -0.8221  0.1886
55137SOL    HW272527   3.309  12.420   0.715  0.4909  0.2121  1.2301
55138SOL     OW72528   8.670   1.255   4.954  0.1615 -0.3700 -0.7347
55138SOL    HW172529   8.633   1.243   4.867 -1.1452  1.2078 -0.4636
55138SOL    HW272530   8.682   1.350   4.962 -1.7646 -0.1946  1.5027
55139SOL     OW72531   9.808   3.259   6.502 -0.3503 -0.1384 -0.5273
55139SOL    HW172532   9.855   3.282   6.583 -0.6113 -0.9216 -0.1439
55139SOL    HW272533   9.776   3.343   6.469  0.7849  0.3414 -0.4716
55140SOL     OW72534   4.230   5.410  12.475 -0.4768 -0.6157  0.0028
55140SOL    HW172535   4.184   5.367  12.548 -1.9079 -1.0496 -1.1132
55140SOL    HW272536   4.317   5.431  12.511 -1.2077 -0.6120  1.8921
55141SOL     OW72537   2.366   3.164   2.003  0.5789 -0.3698 -0.6990
55141SOL    HW172538   2.307   3.239   2.009  2.2464  1.0302 -1.1320
55141SOL    HW272539   2.449   3.196   2.037  1.6507 -1.6773 -1.9943
55142SOL     OW72540  10.499   3.439   7.500  0.4442 -0.3050  0.6425
55142SOL    HW172541  10.411   3.405   7.509 -0.1322  0.5705 -1.2036
55142SOL    HW272542  10.500   3.519   7.553 -0.2054  0.2045 -0.0861
55143SOL     OW72543   1.691  12.174   6.761  0.1830  0.2975  0.3925
55143SOL    HW172544   1.733  12.199   6.843  0.8651  0.3408  0.0363
55143SOL    HW272545   1.709  12.246   6.701 -0.1121  0.1590  0.1339
55144SOL     OW72546  10.862   2.443   4.742 -0.4997  0.1341 -0.2761
55144SOL    HW172547  10.947   2.484   4.754 -0.7184  0.3469  0.6099
55144SOL    HW272548  10.877   2.350   4.757 -0.5160  0.2357  0.3969
55145SOL     OW72549   8.285   8.948   2.337  0.2307 -0.3838 -0.0722
55145SOL    HW172550   8.243   8.877   2.386 -1.2731  0.3982 -0.2008
55145SOL    HW272551   8.234   9.026   2.357  1.4414  0.5601 -0.4852
55146SOL     OW72552   2.042   3.503   4.783  0.1389  0.1508  0.0128
55146SOL    HW172553   1.967   3.558   4.805 -1.2447 -1.2008 -1.0816
55146SOL    HW272554   2.051   3.513   4.688  0.6686 -0.5003 -0.0088
55147SOL     OW72555   7.321   3.769   1.345  0.3509 -0.4117  0.2850
55147SOL    HW172556   7.287   3.846   1.299 -0.1648 -0.4784  0.5458
55147SOL    HW272557   7.413   3.765   1.321  0.2521 -0.0256 -0.1630
55148SOL     OW72558  10.651   9.141   5.095 -0.3301  0.3903 -0.4078
55148SOL    HW172559  10.746   9.128   5.096 -0.3051  0.5645 -0.4134
55148SOL    HW272560  10.625   9.132   5.187 -0.2972  0.4182 -0.3955
55149SOL     OW72561  12.631   2.891  11.643 -0.2552 -0.0826  0.2997
55149SOL    HW172562  12.660   2.847  11.723 -0.7730  0.3013  0.7060
55149SOL    HW272563  12.538   2.869  11.635 -1.0211  2.4112  1.5390
55150SOL     OW72564   1.215   9.972   8.460  0.0836 -0.0104  0.3372
55150SOL    HW172565   1.184  10.016   8.381 -1.7416  0.7872  1.4162
55150SOL    HW272566   1.185   9.882   8.450  2.6222 -0.7837 -1.2451
55151SOL     OW72567  12.866  11.825   4.296 -0.5784 -0.2119 -0.3943
55151SOL    HW172568  12.938  11.835   4.358 -1.8292 -0.7699  1.2205
55151SOL    HW272569  12.855  11.912   4.257  1.5330 -0.3306 -1.3831
55152SOL     OW72570   6.332   2.613   7.606  0.2310  0.3411 -0.1280
55152SOL    HW172571   6.377   2.544   7.558  2.3295  2.2887 -1.1378
55152SOL    HW272572   6.396   2.644   7.670 -0.8258  1.0785  0.6211
55153SOL     OW72573   1.789   5.664   4.398 -0.1619  0.2101 -0.0679
55153SOL    HW172574   1.745   5.729   4.343  1.6969  1.8465  0.2724
55153SOL    HW272575   1.784   5.699   4.486 -0.9122 -1.1642  0.4691
55154SOL     OW72576   1.482   9.090   7.874  0.1666 -0.1998 -0.0154
55154SOL    HW172577   1.436   9.007   7.882 -0.4199  0.0043 -1.1040
55154SOL    HW272578   1.559   9.070   7.821 -0.0981 -0.0060 -0.4758
55155SOL     OW72579   7.844  10.050   7.561 -0.2484  0.0499  0.5039
55155SOL    HW172580   7.841   9.985   7.490 -1.5556 -1.1456  1.6123
55155SOL    HW272581   7.765  10.034   7.612  1.3865 -0.1675  3.1640
55156SOL     OW72582  11.061   7.976   5.178 -0.1109  0.6642 -0.3443
55156SOL    HW172583  11.069   8.037   5.105  1.5474 -0.1396 -0.9024
55156SOL    HW272584  11.146   7.931   5.180  0.0011  0.8509  2.2596
55157SOL     OW72585  12.212   3.390   7.676 -0.6395  0.5038  0.2773
55157SOL    HW172586  12.223   3.295   7.684  1.2099  0.4450 -1.8880
55157SOL    HW272587  12.158   3.401   7.598 -2.5189  1.2393  1.6347
55158SOL     OW72588   0.605   8.363  11.690  0.6045  0.0855  0.1280
55158SOL    HW172589   0.523   8.337  11.647  0.7504 -0.2658  0.0592
55158SOL    HW272590   0.601   8.321  11.776 -1.2133  3.3817  1.8616
55159SOL     OW72591   5.689   4.037   5.624 -0.3642 -0.0128  0.2350
55159SOL    HW172592   5.738   4.082   5.556  2.2902  0.0654  2.0214
55159SOL    HW272593   5.685   3.946   5.595 -0.5118  0.2681 -0.6474
55160SOL     OW72594   5.133   1.540   8.181  0.0504 -0.4600  0.1673
55160SOL    HW172595   5.144   1.632   8.206  2.2833 -0.8190  0.7084
55160SOL    HW272596   5.084   1.501   8.253 -0.8248  0.2628 -0.0169
55161SOL     OW72597   8.303   5.986   9.876 -0.0512 -0.1066 -0.4695
55161SOL    HW172598   8.242   6.003   9.948  0.4365  1.4138 -0.3637
55161SOL    HW272599   8.257   5.925   9.819 -1.3508  0.3920  0.0112
55162SOL     OW72600   8.957  12.866   6.449  0.5969  0.2698  0.2736
55162SOL    HW172601   8.932  12.958   6.449  2.6717  0.8942 -0.3126
55162SOL    HW272602   8.885  12.821   6.404 -1.1769  1.3248  1.8969
55163SOL     OW72603   1.222   6.042   4.213 -0.1796 -0.0102 -0.5155
55163SOL    HW172604   1.307   6.054   4.255 -0.8702  0.8963  0.6852
55163SOL    HW272605   1.162   6.097   4.264 -1.2554  0.3207 -2.0809
55164SOL     OW72606   9.758   0.196   9.487  0.7429  0.0534  0.2781
55164SOL    HW172607   9.694   0.164   9.422 -0.1034 -1.8348  1.9279
55164SOL    HW272608   9.843   0.180   9.446  0.2731  2.0807 -1.7266
55165SOL     OW72609  12.067   9.694   6.639 -0.2463  0.1198  0.2613
55165SOL    HW172610  12.105   9.685   6.551 -0.4278  0.6330  0.1296
55165SOL    HW272611  12.086   9.610   6.681 -0.3719 -0.2259 -0.3523
55166SOL     OW72612   7.478   5.523   4.918 -0.4549  0.1893  0.0268
55166SOL    HW172613   7.493   5.593   4.982 -1.2194  0.6032 -0.2334
55166SOL    HW272614   7.404   5.473   4.953 -0.6926  0.2443 -0.3918
55167SOL     OW72615   7.809  10.111   9.987 -0.2162 -0.3598  0.7146
55167SOL    HW172616   7.766  10.026   9.995  1.2368 -1.1087  0.9488
55167SOL    HW272617   7.827  10.137  10.077  0.3489 -0.3422  0.5985
55168SOL     OW72618   3.353   0.329   8.274  0.8339  0.4714  0.1677
55168SOL    HW172619   3.441   0.343   8.239  0.2559 -0.3129 -1.6957
55168SOL    HW272620   3.332   0.412   8.318  0.9143  2.3198 -2.9889
55169SOL     OW72621   0.095   7.878   4.165 -0.4600 -0.2850 -0.2753
55169SOL    HW172622   0.123   7.868   4.074 -0.5157 -1.1615 -0.2100
55169SOL    HW272623   0.164   7.930   4.206 -0.3920  0.0433 -0.7962
55170SOL     OW72624   1.182   0.017   7.884 -0.0091 -0.5768 -0.3864
55170SOL    HW172625   1.101  -0.026   7.857 -1.1420  1.7351 -0.8632
55170SOL    HW272626   1.163   0.050   7.972 -0.1034  1.1570 -1.0291
55171SOL     OW72627   8.711   9.002   2.059 -0.4618 -0.1239  0.4851
55171SOL    HW172628   8.765   9.073   2.094  1.3019 -1.9539  1.7134
55171SOL    HW272629   8.729   9.003   1.965  0.7638  0.0897  0.7032
55172SOL     OW72630   5.050   4.600   0.824 -0.1613  0.1765 -0.0299
55172SOL    HW172631   5.098   4.552   0.757  2.2132  3.9335 -1.3244
55172SOL    HW272632   5.117   4.650   0.871 -2.1422  0.3722  2.8472
55173SOL     OW72633   6.466   6.502   7.954 -0.3902  0.0365 -0.4562
55173SOL    HW172634   6.561   6.492   7.968 -0.5871  0.8818  2.0244
55173SOL    HW272635   6.456   6.593   7.926 -0.5327  0.4498  0.8299
55174SOL     OW72636   1.186   3.529   8.028 -0.0614 -0.6545  0.1099
55174SOL    HW172637   1.094   3.546   8.047  0.4730  0.5042  1.8371
55174SOL    HW272638   1.189   3.436   8.005 -1.3148 -1.3963  2.6277
55175SOL     OW72639  11.574   4.695   7.945 -0.1096  0.7718  0.4941
55175SOL    HW172640  11.662   4.707   7.909 -0.6040 -1.4201 -1.6752
55175SOL    HW272641  11.555   4.779   7.988  2.3297  1.9296 -0.4623
55176SOL     OW72642   4.230   6.329   8.491  0.2632 -0.0233  0.1398
55176SOL    HW172643   4.159   6.385   8.460  0.4887  0.0261 -0.2897
55176SOL    HW272644   4.204   6.305   8.580  0.5086  1.3524  0.6084
55177SOL     OW72645  12.942   7.619   4.174  0.2078  0.1715 -0.5244
55177SOL    HW172646  13.024   7.587   4.212  1.2001  3.1358  0.1181
55177SOL    HW272647  12.963   7.708   4.144 -2.5425  0.6767 -1.2023
55178SOL     OW72648   3.845   3.700   9.654 -0.2287  0.5166  0.4813
55178SOL    HW172649   3.796   3.697   9.735 -0.4794  1.4608  0.3682
55178SOL    HW272650   3.816   3.621   9.606 -0.9122  0.5522  0.8225
55179SOL     OW72651  11.489   1.665  10.404  0.0240  0.1147  0.2069
55179SOL    HW172652  11.564   1.684  10.348 -0.8209  0.1463 -0.9517
55179SOL    HW272653  11.516   1.588  10.454  1.1735  0.6943  0.5053
55180SOL     OW72654   6.624   4.945   3.012 -0.2754  0.1806 -0.1502
55180SOL    HW172655   6.592   4.902   2.932 -0.8259  1.0111 -0.3895
55180SOL    HW272656   6.620   5.038   2.992 -0.9800  0.4283  1.0478
55181SOL     OW72657   6.895   9.421   9.495 -0.2120 -0.2503  0.0575
55181SOL    HW172658   6.824   9.484   9.489  0.0866  0.2259  1.1783
55181SOL    HW272659   6.961   9.465   9.548  0.4068 -1.1453  0.0509
55182SOL     OW72660   0.853   5.571  11.453  0.0664 -0.5518  0.1779
55182SOL    HW172661   0.813   5.525  11.526  0.4476 -1.0680  0.0690
55182SOL    HW272662   0.911   5.636  11.494 -0.1249 -0.4777  0.3309
55183SOL     OW72663   2.124   3.535   5.427 -0.4988 -0.0290  0.3511
55183SOL    HW172664   2.108   3.535   5.333  0.7055 -0.7103  0.1264
55183SOL    HW272665   2.095   3.448   5.457 -0.4396  0.0135  0.5363
55184SOL     OW72666   5.395  11.641   3.946  1.0375 -0.5564  0.1912
55184SOL    HW172667   5.462  11.707   3.932  1.1756 -0.8746 -0.7167
55184SOL    HW272668   5.443  11.559   3.955  0.8175 -0.6705  0.3495
55185SOL     OW72669   6.567   2.738   7.116 -0.0397 -0.2644  0.0626
55185SOL    HW172670   6.568   2.668   7.051 -0.2651  0.3400 -0.5931
55185SOL    HW272671   6.655   2.736   7.153  0.0794 -0.6352 -0.2278
55186SOL     OW72672  10.931   8.680  11.379  0.7303 -0.2344  0.4632
55186SOL    HW172673  10.873   8.637  11.442 -0.8415  1.3758  0.1823
55186SOL    HW272674  10.889   8.665  11.294  0.6385  1.0456  0.2692
55187SOL     OW72675   4.368   3.887   9.376  0.2819 -0.0243  0.5808
55187SOL    HW172676   4.327   3.809   9.412  0.1864  1.0811  3.0173
55187SOL    HW272677   4.295   3.941   9.344 -0.0236  0.7272  2.4251
55188SOL     OW72678   7.880   7.419  12.311 -0.2174 -0.4143 -0.3495
55188SOL    HW172679   7.845   7.388  12.394  0.2776  0.8104  0.3516
55188SOL    HW272680   7.906   7.510  12.328  0.0691 -0.1911 -1.7906
55189SOL     OW72681  11.852   0.493   7.915  0.1459  0.3106  0.1496
55189SOL    HW172682  11.762   0.499   7.880 -0.0728 -0.9402  0.4442
55189SOL    HW272683  11.907   0.490   7.837 -0.0307  1.4240 -0.0322
55190SOL     OW72684   2.438   0.724   0.147  0.1660 -0.1029 -0.6440
55190SOL    HW172685   2.381   0.749   0.074  0.7815 -0.3784 -1.2361
55190SOL    HW272686   2.423   0.792   0.213 -0.8311 -0.1670 -0.7835
55191SOL     OW72687   3.179   5.182   7.482 -0.2706  0.3870  0.3926
55191SOL    HW172688   3.236   5.165   7.557  2.6069  0.9821 -1.4727
55191SOL    HW272689   3.142   5.097   7.459  1.0193 -0.3121  0.8307
55192SOL     OW72690   7.214   1.009   9.479  0.0004 -0.3999 -0.5725
55192SOL    HW172691   7.239   1.068   9.550  2.3357 -0.8948 -0.9311
55192SOL    HW272692   7.209   0.922   9.520  0.7814 -0.5983 -0.8919
55193SOL     OW72693   7.472  10.460   9.400  0.0240 -0.3924  0.0244
55193SOL    HW172694   7.420  10.411   9.464 -0.5173  1.0321  0.7470
55193SOL    HW272695   7.533  10.511   9.454  1.3686 -1.1477 -0.7596
55194SOL     OW72696   9.620   5.589   1.076  0.0470 -0.3854  0.3779
55194SOL    HW172697   9.606   5.506   1.122  2.0041 -1.5515 -0.9556
55194SOL    HW272698   9.709   5.614   1.100 -0.0652  0.6575 -0.2648
55195SOL     OW72699  12.507   4.194   0.396 -0.1839  0.1908 -0.3864
55195SOL    HW172700  12.532   4.273   0.348  1.4510 -0.6700 -0.9963
55195SOL    HW272701  12.461   4.140   0.332 -3.1166  1.3990  0.5150
55196SOL     OW72702   9.798   8.193   3.074  0.5966 -0.1858  0.3211
55196SOL    HW172703   9.772   8.102   3.063 -0.8347  0.1261  0.9213
55196SOL    HW272704   9.781   8.234   2.989  0.8496 -0.3846  0.1756
55197SOL     OW72705  11.309   3.070   7.794  0.1589  0.4903 -0.0600
55197SOL    HW172706  11.376   3.048   7.729 -1.0270  1.6767 -1.7616
55197SOL    HW272707  11.229   3.028   7.761 -0.5278  1.3596  0.4448
55198SOL     OW72708   2.805   3.270  12.773 -0.8458  0.0723 -0.3166
55198SOL    HW172709   2.850   3.355  12.771 -1.2998  0.3310  0.1316
55198SOL    HW272710   2.765   3.267  12.860 -0.7349 -0.6568 -0.2887
55199SOL     OW72711   5.161   0.047   2.711  0.1929  0.0233  0.8259
55199SOL    HW172712   5.093   0.041   2.778  1.7810 -1.7219  2.3963
55199SOL    HW272713   5.185  -0.044   2.693  1.7515  0.5678 -0.0371
55200SOL     OW72714  10.511   7.284   7.860  0.2852 -0.0283  0.2826
55200SOL    HW172715  10.501   7.296   7.766  0.6701  1.2216  0.3775
55200SOL    HW272716  10.451   7.213   7.882  0.1949 -0.3338 -0.9029
55201SOL     OW72717   4.422   9.488   9.614  0.2959  0.5093  0.6242
55201SOL    HW172718   4.491   9.482   9.680 -1.2123 -1.0024  2.1886
55201SOL    HW272719   4.450   9.558   9.555  3.4116 -0.4477  0.8347
55202SOL     OW72720   5.196   3.133  12.176  0.4967  0.3308  0.2851
55202SOL    HW172721   5.227   3.212  12.219 -1.3922  1.9734 -1.1632
55202SOL    HW272722   5.121   3.104  12.228  1.5870 -0.9633  1.1990
55203SOL     OW72723   7.344   3.758   2.626 -0.5386  0.6355  0.1992
55203SOL    HW172724   7.390   3.841   2.609  1.0674 -0.4804 -1.1842
55203SOL    HW272725   7.303   3.735   2.543 -1.1316  0.1093  0.6226
55204SOL     OW72726   6.550   0.703  12.185 -0.0471  0.1453  0.4945
55204SOL    HW172727   6.627   0.761  12.186 -1.2817  1.8642  0.1676
55204SOL    HW272728   6.586   0.616  12.167  1.7137  1.1227 -1.1211
55205SOL     OW72729   2.090   0.096   8.134 -0.2525  0.0960  0.1981
55205SOL    HW172730   2.051   0.178   8.105  0.0905  0.1755 -0.0367
55205SOL    HW272731   2.150   0.071   8.064  0.1490 -0.0107  0.5751
55206SOL     OW72732   4.881   3.744   4.656 -0.0847 -0.5023 -0.4723
55206SOL    HW172733   4.818   3.815   4.641  1.6233  1.1496 -0.1997
55206SOL    HW272734   4.837   3.686   4.718 -2.0857 -0.4852 -1.7542
55207SOL     OW72735  10.015   9.179   6.249 -0.8150  0.1802 -0.2320
55207SOL    HW172736  10.082   9.142   6.190 -1.0888  2.2802 -1.9839
55207SOL    HW272737   9.935   9.132   6.226 -0.8889  0.8774 -1.5113
55208SOL     OW72738   4.410   6.606   3.471  0.3510  0.9454  0.0999
55208SOL    HW172739   4.399   6.532   3.411 -0.2816 -0.1860  1.5432
55208SOL    HW272740   4.333   6.662   3.455  1.1840  1.7160 -1.4899
55209SOL     OW72741  12.047   0.749   0.939  0.0722 -0.0204 -0.1872
55209SOL    HW172742  12.120   0.811   0.937 -0.7167  0.9388 -0.0802
55209SOL    HW272743  12.062   0.692   0.863  0.8526  0.2466 -0.2410
55210SOL     OW72744   8.309   1.225   1.322  0.0568 -0.4542  0.0387
55210SOL    HW172745   8.311   1.137   1.360  0.6641 -0.5456 -0.1842
55210SOL    HW272746   8.221   1.236   1.288 -0.0408 -0.9477  0.1336
55211SOL     OW72747   0.505   3.414   6.116 -0.2446 -0.4638 -0.2820
55211SOL    HW172748   0.520   3.462   6.198  0.1952 -1.0158 -0.0270
55211SOL    HW272749   0.472   3.479   6.055 -2.2559 -0.3768  0.8330
55212SOL     OW72750   0.940   8.565   4.729  0.1744 -0.4640 -0.2244
55212SOL    HW172751   0.982   8.563   4.815 -1.1953  3.2650  0.7375
55212SOL    HW272752   0.846   8.567   4.747 -0.2169 -1.3843 -1.9269
55213SOL     OW72753   3.460   3.278   4.646  0.1195 -0.0123  0.0760
55213SOL    HW172754   3.472   3.187   4.670 -1.5158  0.2939  2.3573
55213SOL    HW272755   3.449   3.277   4.551 -0.1037 -2.2264  0.0934
55214SOL     OW72756  12.448   2.101  11.590 -0.4158  0.1891  0.2003
55214SOL    HW172757  12.380   2.057  11.539 -1.0778  1.9056 -0.4692
55214SOL    HW272758  12.401   2.167  11.640  0.5337  0.0875  1.2604
55215SOL     OW72759  12.061  11.867  12.800 -0.3532 -0.3990 -0.4783
55215SOL    HW172760  11.990  11.925  12.830  0.6743  0.7940 -0.2797
55215SOL    HW272761  12.020  11.813  12.732 -2.1604 -1.6519  1.4728
55216SOL     OW72762  11.410   0.651   4.847 -0.3732  0.5059 -0.0054
55216SOL    HW172763  11.402   0.558   4.827 -0.3222  0.3938  0.4697
55216SOL    HW272764  11.323   0.676   4.879 -0.0035  0.2730  1.2333
55217SOL     OW72765   1.615   5.653   7.058 -0.3358  1.1674 -0.1545
55217SOL    HW172766   1.670   5.609   7.123 -0.3914 -0.1133 -0.9458
55217SOL    HW272767   1.673   5.668   6.983 -0.9971 -0.1397 -0.9735
55218SOL     OW72768   5.591  10.814   5.122 -0.3437 -0.0271 -0.0470
55218SOL    HW172769   5.497  10.801   5.108 -0.2928  0.0628 -0.4863
55218SOL    HW272770   5.597  10.854   5.209 -0.5312 -2.8562  1.4164
55219SOL     OW72771   9.313   4.227   0.729  0.2266 -0.1413  0.2632
55219SOL    HW172772   9.369   4.304   0.745 -0.0853  0.3404 -0.7997
55219SOL    HW272773   9.242   4.235   0.792 -0.2457  0.9185 -0.3751
55220SOL     OW72774   0.852  11.926  12.484 -0.0365  0.9067 -0.5017
55220SOL    HW172775   0.920  11.977  12.528 -1.2338  3.5894 -1.5477
55220SOL    HW272776   0.890  11.903  12.400  0.4832  0.0869 -0.0537
55221SOL     OW72777  12.861  12.338   8.893 -0.3134  1.1952 -0.0425
55221SOL    HW172778  12.820  12.268   8.843  2.0843  1.3443 -2.4462
55221SOL    HW272779  12.933  12.296   8.940  0.3313  1.8114 -0.4603
55222SOL     OW72780   1.521   4.159   2.881 -0.0577  0.2735  0.3093
55222SOL    HW172781   1.548   4.123   2.797  0.4810 -1.3827  1.1440
55222SOL    HW272782   1.444   4.212   2.861 -0.2871 -0.5494 -1.1486
55223SOL     OW72783   2.189   9.946  12.606  0.0839  0.1339  0.3800
55223SOL    HW172784   2.157   9.952  12.696 -1.2290 -0.9627  0.0160
55223SOL    HW272785   2.196  10.037  12.577 -0.0696  0.4741  1.3749
55224SOL     OW72786   9.669  10.613  12.001 -0.4445  1.4047  0.2237
55224SOL    HW172787   9.746  10.643  12.049 -0.2154  2.3620 -0.7092
55224SOL    HW272788   9.685  10.520  11.987 -0.7051  0.9820  2.3064
55225SOL     OW72789   5.717   5.231   5.729 -0.1085  0.0400 -0.5773
55225SOL    HW172790   5.715   5.327   5.729  1.0609  0.0860 -0.7123
55225SOL    HW272791   5.691   5.206   5.641  2.3924  0.3838 -1.5161
55226SOL     OW72792   8.672   5.728   4.902 -0.0088 -0.0028 -0.2196
55226SOL    HW172793   8.578   5.710   4.903  0.3219 -2.0896  1.9247
55226SOL    HW272794   8.679   5.817   4.867 -2.5954 -0.5154 -2.3830
55227SOL     OW72795   3.466   5.207  12.592  0.5499 -0.3039  0.2567
55227SOL    HW172796   3.422   5.151  12.656 -1.1978  1.9405  1.1931
55227SOL    HW272797   3.433   5.178  12.507 -1.3941  0.1197  0.8190
55228SOL     OW72798   1.709   7.450   9.942  0.5279 -0.5090  0.0023
55228SOL    HW172799   1.636   7.392   9.921 -1.4606  2.2282 -1.2219
55228SOL    HW272800   1.747   7.474   9.857  1.2782  0.0152  0.4698
55229SOL     OW72801  11.787   2.010   2.812  0.3242  0.3712  0.0019
55229SOL    HW172802  11.711   2.007   2.753  0.2015  2.0347  0.0456
55229SOL    HW272803  11.758   1.962   2.890  0.3242 -1.4565 -1.0679
55230SOL     OW72804   4.353  12.441  10.642  0.2342  0.2996  0.6020
55230SOL    HW172805   4.280  12.486  10.601 -0.4869 -0.1444  1.3805
55230SOL    HW272806   4.396  12.507  10.696 -0.5170  0.1839  1.3456
55231SOL     OW72807   8.784   7.851   4.484  0.5900 -0.1600 -0.3373
55231SOL    HW172808   8.723   7.793   4.437 -0.8749  1.8015 -1.0133
55231SOL    HW272809   8.773   7.936   4.441  1.5826  0.9679  1.5350
55232SOL     OW72810   2.364   5.591   3.358 -0.1959  0.7485 -0.0664
55232SOL    HW172811   2.311   5.590   3.278  1.3391  1.7992 -1.1723
55232SOL    HW272812   2.301   5.580   3.429 -1.5831 -0.6156 -1.4148
55233SOL     OW72813   5.548   1.230  11.013 -0.0212 -0.9176  0.4542
55233SOL    HW172814   5.584   1.317  10.996  2.1702 -1.6314  1.0938
55233SOL    HW272815   5.533   1.228  11.108 -2.7392 -0.3389  0.1100
55234SOL     OW72816  12.493   7.941  12.152 -0.0700  0.4084  0.2622
55234SOL    HW172817  12.422   7.991  12.111 -1.0831 -0.4126  0.9849
55234SOL    HW272818  12.519   7.995  12.227  0.3325  0.8835 -0.2085
55235SOL     OW72819   9.670  12.249   5.863  0.0383 -0.2331  0.1262
55235SOL    HW172820   9.588  12.255   5.911  0.5434 -0.8602  1.1021
55235SOL    HW272821   9.725  12.319   5.898 -0.1816  0.4117 -0.7714
55236SOL     OW72822  12.474   0.139   6.751 -0.4626  0.8664  0.2425
55236SOL    HW172823  12.455   0.045   6.754 -0.8724  0.9626  0.6852
55236SOL    HW272824  12.560   0.148   6.793 -0.9328  0.8206  1.2427
55237SOL     OW72825   8.374   9.515   9.486  0.5844  0.8033 -0.2191
55237SOL    HW172826   8.451   9.529   9.430 -0.2316 -0.2442 -1.6761
55237SOL    HW272827   8.310   9.579   9.456 -0.2755 -0.5297 -1.3448
55238SOL     OW72828   5.498   4.400  12.431  0.1048  0.1585 -0.0617
55238SOL    HW172829   5.457   4.463  12.372  1.7215  1.1797 -0.1623
55238SOL    HW272830   5.513   4.322  12.377 -3.2336 -0.9987  0.4233
55239SOL     OW72831   2.005   3.754   8.127  0.0128 -0.0162 -0.4858
55239SOL    HW172832   2.072   3.760   8.059  0.0478  0.9560 -0.3806
55239SOL    HW272833   1.965   3.668   8.114 -0.0088  0.1741 -1.7498
55240SOL     OW72834   4.816  11.612   2.260 -0.2362 -0.3205  0.3662
55240SOL    HW172835   4.781  11.599   2.348 -1.0446 -0.2096  0.0698
55240SOL    HW272836   4.910  11.599   2.270 -0.3171 -0.3305  1.2423
55241SOL     OW72837   6.627   9.291   7.732 -0.2850  0.1211 -0.0070
55241SOL    HW172838   6.563   9.230   7.695 -0.9554  0.6668  0.2411
55241SOL    HW272839   6.589   9.318   7.816 -0.0742  1.0052 -0.1922
55242SOL     OW72840   4.407   4.323   4.778  0.1461 -0.0784 -0.5511
55242SOL    HW172841   4.374   4.252   4.724  2.1450 -1.4530 -0.0837
55242SOL    HW272842   4.414   4.397   4.718 -2.2084 -0.1235 -0.9893
55243SOL     OW72843   4.149   3.137  10.264 -0.0166  0.3136  0.1624
55243SOL    HW172844   4.161   3.145  10.358 -1.3908  0.1538  0.3811
55243SOL    HW272845   4.054   3.139  10.252  0.1014 -0.4071 -1.1455
55244SOL     OW72846   1.396   4.213  10.230  0.4980 -0.0632  0.0403
55244SOL    HW172847   1.403   4.124  10.266 -0.0674  0.2651  1.0044
55244SOL    HW272848   1.396   4.270  10.307 -3.7940  0.5136 -0.1535
55245SOL     OW72849   3.085   5.564   8.514 -0.4235  0.3095  0.1805
55245SOL    HW172850   3.028   5.488   8.503  0.4373 -0.5574  1.4325
55245SOL    HW272851   3.062   5.600   8.599  0.4239  0.3581  0.3948
55246SOL     OW72852   3.098   3.714  11.985  0.1560  0.1667  0.0388
55246SOL    HW172853   3.075   3.768  12.061  0.3241  1.2542 -0.6646
55246SOL    HW272854   3.026   3.727  11.923  0.3643 -0.1626 -0.2807
55247SOL     OW72855  12.908   2.105   3.890  0.2778  0.3599  0.0512
55247SOL    HW172856  12.994   2.117   3.849  0.4130  1.6264  0.6358
55247SOL    HW272857  12.903   2.176   3.954 -1.0542  0.0660  0.2936
55248SOL     OW72858   2.652  11.700  12.783  0.6899 -0.0249 -0.5132
55248SOL    HW172859   2.689  11.761  12.720 -2.2942  0.6324 -1.8304
55248SOL    HW272860   2.610  11.633  12.729  0.8572 -1.2938  0.8694
55249SOL     OW72861   9.324  10.869  11.417 -0.6167  0.0331 -0.1796
55249SOL    HW172862   9.283  10.842  11.334 -0.9367 -2.4922  0.6973
55249SOL    HW272863   9.362  10.788  11.451 -0.2029  1.0854  1.9912
55250SOL     OW72864   5.357   4.772   3.772  0.6340  0.3727  0.0543
55250SOL    HW172865   5.338   4.688   3.813 -1.7088 -0.2731 -2.1069
55250SOL    HW272866   5.279   4.825   3.788  0.9213  1.1411 -0.9457
55251SOL     OW72867  10.745   9.471   1.145 -0.6580 -0.4361  0.4321
55251SOL    HW172868  10.823   9.509   1.104 -0.2836  0.6278  2.0154
55251SOL    HW272869  10.672   9.518   1.106 -0.5409 -1.4426 -1.0666
55252SOL     OW72870   4.957   9.806  12.358 -0.3531 -0.1731 -0.6996
55252SOL    HW172871   4.935   9.867  12.288 -0.7810 -0.2243 -0.6097
55252SOL    HW272872   5.049   9.824  12.377 -0.3559  0.1398 -0.9746
55253SOL     OW72873   2.178   4.637   5.040  0.3464 -0.7819  0.0740
55253SOL    HW172874   2.186   4.703   4.971 -0.1633 -0.4348  0.3354
55253SOL    HW272875   2.213   4.557   5.002  0.3009 -0.5318 -0.4959
55254SOL     OW72876   2.461  11.827  11.553 -0.2547  0.2464  0.3016
55254SOL    HW172877   2.370  11.848  11.571 -1.3097 -1.0972 -2.8219
55254SOL    HW272878   2.461  11.734  11.530  2.1062 -0.0621  1.2104
55255SOL     OW72879   7.216   0.533   9.814  0.1761 -0.7362  0.3750
55255SOL    HW172880   7.156   0.503   9.746 -0.8855 -1.6146  1.6368
55255SOL    HW272881   7.194   0.479   9.891  1.6572 -0.1257  1.2775
55256SOL     OW72882   0.940   0.274   9.320  0.2000 -0.7664  0.5429
55256SOL    HW172883   0.878   0.289   9.249 -0.3219 -1.9050  0.7383
55256SOL    HW272884   0.966   0.183   9.311 -0.8704 -1.3441  2.5645
55257SOL     OW72885   8.784  12.696  11.195 -0.3091 -0.3256  0.6273
55257SOL    HW172886   8.769  12.691  11.290  1.2287 -0.2668  0.8902
55257SOL    HW272887   8.815  12.609  11.171  2.5483  0.5423  0.8210
55258SOL     OW72888   8.341   5.504  12.122  0.0851 -0.0505 -0.1250
55258SOL    HW172889   8.356   5.470  12.034 -0.5580  0.6638 -0.5185
55258SOL    HW272890   8.253   5.476  12.144 -0.9153  2.2110 -0.9046
55259SOL     OW72891  10.492   4.489   4.034  0.1922 -0.0804  0.3261
55259SOL    HW172892  10.420   4.432   4.009  0.6180  0.0549 -1.2668
55259SOL    HW272893  10.549   4.434   4.088 -0.5942 -0.4568  0.7904
55260SOL     OW72894   2.001   2.862  12.833 -0.4827  0.0977  0.1107
55260SOL    HW172895   2.046   2.944  12.853  0.7410 -0.6760  0.6452
55260SOL    HW272896   2.028   2.802  12.903 -2.4304 -0.3939  0.5195
55261SOL     OW72897   0.279  12.690  10.237  0.5277  0.6017  0.5897
55261SOL    HW172898   0.231  12.766  10.204 -0.6953 -0.0607  0.7713
55261SOL    HW272899   0.371  12.712  10.225  0.1662  1.4979 -0.7206
55262SOL     OW72900   6.156   7.699   3.769  0.8162 -0.2509 -0.4132
55262SOL    HW172901   6.226   7.651   3.813  1.6780  0.7974 -0.6194
55262SOL    HW272902   6.197   7.738   3.692  0.5224  2.0301  0.5080
55263SOL     OW72903  11.424  12.937   9.806 -0.7427 -0.4135  0.2896
55263SOL    HW172904  11.376  13.017   9.827  0.1343  0.1237  0.3415
55263SOL    HW272905  11.499  12.938   9.867 -0.6306 -1.1835  0.1729
55264SOL     OW72906  11.948   4.101   7.215  0.0725  0.4778 -0.1912
55264SOL    HW172907  11.887   4.137   7.150 -1.0664  1.8408  1.5419
55264SOL    HW272908  11.999   4.176   7.244  0.7603 -0.1712  0.2989
55265SOL     OW72909   2.575   7.590  10.894 -0.7589  0.2722  0.2044
55265SOL    HW172910   2.482   7.574  10.878 -0.5726 -0.9402  0.2938
55265SOL    HW272911   2.620   7.514  10.858  0.1667  0.5940  0.6378
55266SOL     OW72912   0.889   0.261   0.131  0.5446 -0.2083 -0.1355
55266SOL    HW172913   0.887   0.270   0.036 -1.2781  1.3187 -0.0073
55266SOL    HW272914   0.959   0.321   0.159  1.6267 -1.2485 -0.5213
55267SOL     OW72915   8.039   6.104   5.146  0.4943 -0.0631  0.2825
55267SOL    HW172916   8.032   6.147   5.060  2.2179 -0.4311 -0.0664
55267SOL    HW272917   7.976   6.151   5.201 -0.2569  0.5258 -1.0369
55268SOL     OW72918   5.492  10.774  12.183 -0.0355 -0.0311 -0.1292
55268SOL    HW172919   5.510  10.681  12.169  0.9295  0.4142 -2.3986
55268SOL    HW272920   5.413  10.791  12.132 -0.0270  0.4421  0.0116
55269SOL     OW72921   5.016   6.637   1.942  0.2675  0.4034 -0.2149
55269SOL    HW172922   4.980   6.704   2.000 -0.3303 -0.7445  0.7711
55269SOL    HW272923   5.007   6.555   1.990  0.7338 -0.4418 -1.5010
55270SOL     OW72924  11.267   0.029   0.103 -0.3753 -0.4322 -0.0131
55270SOL    HW172925  11.182   0.039   0.145 -0.4374  2.1871 -0.6442
55270SOL    HW272926  11.248   0.030   0.009  0.3213 -0.2933 -0.1581
55271SOL     OW72927   0.673   5.953   4.525 -0.0773  0.3318 -0.3845
55271SOL    HW172928   0.708   5.878   4.475 -1.4059 -0.2798 -0.4242
55271SOL    HW272929   0.652   6.018   4.459  2.3113  1.3363 -0.2716
55272SOL     OW72930   9.922   1.797  11.343  0.0160 -0.2773 -0.4052
55272SOL    HW172931   9.865   1.726  11.370 -0.7918  0.5232  0.0614
55272SOL    HW272932   9.999   1.790  11.400 -1.0347  0.5261  1.1891
55273SOL     OW72933   0.084   9.021   4.710 -0.4898  0.0769 -0.1651
55273SOL    HW172934   0.012   9.044   4.768 -0.5609 -0.2486 -0.1221
55273SOL    HW272935   0.144   9.095   4.715 -0.2428 -0.1658  0.7241
55274SOL     OW72936   8.986  10.183   4.328  0.1492 -0.1201  0.3207
55274SOL    HW172937   9.061  10.151   4.277 -0.1297 -1.0324  0.4526
55274SOL    HW272938   8.972  10.272   4.298 -1.3719 -1.2789 -2.8638
55275SOL     OW72939   0.455   4.899   6.380 -1.0519 -0.2350 -0.2385
55275SOL    HW172940   0.496   4.861   6.457 -1.6319  0.0643  0.2219
55275SOL    HW272941   0.393   4.832   6.350 -0.5622 -0.5024 -0.6680
55276SOL     OW72942   2.154   0.979   1.751 -0.0392  0.2383  1.1771
55276SOL    HW172943   2.212   0.966   1.676  0.4740  1.0496  1.4182
55276SOL    HW272944   2.098   1.053   1.725 -1.0513 -0.5950  0.9058
55277SOL     OW72945   9.861   3.961   3.645 -0.0394 -0.5091  0.2498
55277SOL    HW172946   9.832   3.966   3.736  1.7352  1.4712  0.7986
55277SOL    HW272947   9.955   3.942   3.650  0.6233  1.9851 -0.9825
55278SOL     OW72948   9.350   1.584  12.738  0.2441 -0.2597  0.0565
55278SOL    HW172949   9.442   1.581  12.711  0.3362 -0.3745  0.3710
55278SOL    HW272950   9.302   1.544  12.666  0.0170  3.0056 -1.8406
55279SOL     OW72951   9.886   6.318   6.729  0.1100 -0.6887 -0.1976
55279SOL    HW172952   9.953   6.370   6.685 -0.1130 -0.7815 -0.6471
55279SOL    HW272953   9.843   6.268   6.659 -1.1242  0.1365 -0.0621
55280SOL     OW72954   5.424   2.087   1.896 -0.3176 -0.9466 -0.2832
55280SOL    HW172955   5.397   2.057   1.810  1.8029 -0.6188 -1.1123
55280SOL    HW272956   5.519   2.076   1.897  0.1911  2.3942  0.6429
55281SOL     OW72957  10.335   5.914   8.645 -0.5139  0.3370  0.7445
55281SOL    HW172958  10.389   5.958   8.710  3.0222 -0.8271 -1.1385
55281SOL    HW272959  10.338   5.821   8.669 -1.7573  0.2241  0.5735
55282SOL     OW72960   7.748   1.593   4.750  0.0728 -0.1800 -0.3814
55282SOL    HW172961   7.666   1.570   4.793  0.0862  1.2432  0.4798
55282SOL    HW272962   7.810   1.526   4.777 -0.2324  0.0192  0.8574
55283SOL     OW72963   6.248  10.729  12.340 -0.1183 -0.0632  0.0939
55283SOL    HW172964   6.260  10.819  12.371  1.4953 -0.1818 -0.0667
55283SOL    HW272965   6.196  10.687  12.409  0.2493  0.6509  0.8322
55284SOL     OW72966   9.799   5.537   2.480  0.0873  0.7494 -0.1063
55284SOL    HW172967   9.847   5.555   2.399 -1.0339  0.7356 -0.7885
55284SOL    HW272968   9.842   5.591   2.546 -1.0312  3.3920 -1.3743
55285SOL     OW72969  12.746  11.332   7.963 -0.2582  0.4430  0.0648
55285SOL    HW172970  12.695  11.405   7.927 -1.4511  0.0760  0.9622
55285SOL    HW272971  12.830  11.371   7.989 -0.5696  1.3203 -0.2302
55286SOL     OW72972  12.618   8.049  11.809  0.1219 -0.1932  0.3827
55286SOL    HW172973  12.602   8.062  11.715  1.9006  0.5668  0.1334
55286SOL    HW272974  12.590   7.959  11.826 -0.3392 -0.3107 -0.8536
55287SOL     OW72975   5.468   6.880   8.015  0.7468  0.1067  0.0736
55287SOL    HW172976   5.409   6.869   7.941 -1.1680 -0.0436  1.5300
55287SOL    HW272977   5.446   6.808   8.074  3.2993 -0.6986  0.1508
55288SOL     OW72978   7.510   8.969  11.948  0.6842 -0.3229  0.1973
55288SOL    HW172979   7.592   8.929  11.918  1.9347  0.7911  1.9511
55288SOL    HW272980   7.489   9.033  11.880  1.2671 -0.5917 -0.2493
55289SOL     OW72981  10.832   9.425   3.241  0.3605 -0.1584  0.3940
55289SOL    HW172982  10.879   9.504   3.265 -0.2142  0.4619 -0.4505
55289SOL    HW272983  10.808   9.384   3.324  1.1319  0.2564  0.8324
55290SOL     OW72984  12.426   5.449   0.460  0.4023 -0.5406  0.3760
55290SOL    HW172985  12.371   5.402   0.397 -1.7007  0.9591  0.9966
55290SOL    HW272986  12.466   5.520   0.409  2.0073 -1.7138 -0.1078
55291SOL     OW72987   3.731   1.939   0.464 -0.4248  0.2524 -0.0333
55291SOL    HW172988   3.666   1.868   0.459  0.3059 -0.4190 -0.4169
55291SOL    HW272989   3.795   1.908   0.527 -0.6197  1.0489  0.5719
55292SOL     OW72990   3.864   4.767   7.087 -0.0503  0.2865  0.1112
55292SOL    HW172991   3.931   4.699   7.089  0.0153  0.3579  0.3286
55292SOL    HW272992   3.808   4.744   7.012  1.1622  1.1257 -1.1025
55293SOL     OW72993  12.490  12.247   9.289  0.3527  0.2536  0.2220
55293SOL    HW172994  12.566  12.190   9.301  0.2932  0.5018  2.1487
55293SOL    HW272995  12.488  12.265   9.195  0.8639 -2.2175 -0.3415
55294SOL     OW72996   0.464   2.251  10.423  0.1401  0.1372 -0.1382
55294SOL    HW172997   0.494   2.313  10.489 -1.4489  0.7861  0.0128
55294SOL    HW272998   0.534   2.249  10.358  1.0176  0.6966  0.7656
55295SOL     OW72999   5.269   1.118   8.279  0.2058  0.0875 -1.2888
55295SOL    HW173000   5.322   1.140   8.355 -0.4353 -2.3253 -0.0388
55295SOL    HW273001   5.324   1.142   8.204  1.2245  1.6799 -0.0975
55296SOL     OW73002  12.016   4.459   4.448 -0.1637 -0.4243 -0.5484
55296SOL    HW173003  12.051   4.482   4.362 -0.0111  1.4242 -0.0392
55296SOL    HW273004  11.956   4.530   4.470  0.8443 -0.1091  1.4444
55297SOL     OW73005   9.833   4.645   5.236  0.6669  0.0534 -0.1386
55297SOL    HW173006   9.904   4.638   5.172  0.9963  0.5894  0.1656
55297SOL    HW273007   9.861   4.713   5.297  0.2110 -0.2260  0.3965
55298SOL     OW73008   5.592   4.548   3.077 -0.4547 -0.4210  0.1886
55298SOL    HW173009   5.543   4.558   2.995 -1.2007 -0.3549  0.6385
55298SOL    HW273010   5.681   4.576   3.055 -1.2028  2.0428 -0.0007
55299SOL     OW73011   1.286   8.106   8.003  0.1576 -0.2704  0.4277
55299SOL    HW173012   1.248   8.122   7.916  0.5272 -0.0560  0.3025
55299SOL    HW273013   1.333   8.187   8.024  0.5609 -0.5349  0.5679
55300SOL     OW73014   1.637   5.894   9.535 -0.1528 -0.4303 -0.1857
55300SOL    HW173015   1.702   5.842   9.584 -0.4232  0.1337  0.7914
55300SOL    HW273016   1.553   5.861   9.564 -0.3309 -1.0808 -1.3726
55301SOL     OW73017  10.678   2.858   7.602 -0.4233  0.2977 -0.0660
55301SOL    HW173018  10.651   2.786   7.659  0.0458 -0.6588 -1.0319
55301SOL    HW273019  10.629   2.934   7.635  0.4409 -0.0102  2.1366
55302SOL     OW73020   7.632   8.706   5.227 -0.3123 -0.1675  0.2791
55302SOL    HW173021   7.648   8.613   5.212  0.8736  0.1339 -0.5121
55302SOL    HW273022   7.630   8.744   5.139  1.2695  0.8418  0.6344
55303SOL     OW73023   8.146   8.721  11.756  0.2221 -0.1426 -0.1769
55303SOL    HW173024   8.069   8.749  11.706  0.4338 -0.2039 -0.5396
55303SOL    HW273025   8.132   8.628  11.772 -1.0941  0.3731  2.1171
55304SOL     OW73026  10.748  11.125   6.367  0.0631  0.2939  0.7320
55304SOL    HW173027  10.715  11.190   6.429  0.3505 -0.1543  1.3630
55304SOL    HW273028  10.723  11.041   6.405 -0.6322  0.0318 -0.2556
55305SOL     OW73029   2.114  10.281   5.847 -0.2206 -0.1020 -0.0553
55305SOL    HW173030   2.194  10.247   5.887 -0.3097  0.2796  0.4434
55305SOL    HW273031   2.124  10.376   5.848 -1.8203  0.1102  2.4507
55306SOL     OW73032   6.935  10.970   6.471  0.7738  0.2388 -0.1197
55306SOL    HW173033   6.997  11.023   6.420  0.1731  0.7880 -0.2974
55306SOL    HW273034   6.895  11.033   6.532 -0.1174  0.0491 -0.4904
55307SOL     OW73035  10.875   4.864  11.294  0.3222  0.1271 -0.1908
55307SOL    HW173036  10.879   4.769  11.279 -2.2476 -0.1252  0.2557
55307SOL    HW273037  10.915   4.902  11.215 -2.4340 -1.3134 -2.4742
55308SOL     OW73038   1.334   2.965  12.492 -0.0825 -0.5822  0.2359
55308SOL    HW173039   1.299   2.895  12.437  0.0438 -0.1182 -0.4540
55308SOL    HW273040   1.258   3.019  12.514  0.1588  0.5272 -1.4100
55309SOL     OW73041   2.563   3.135  10.038 -0.0770 -0.3737 -0.4564
55309SOL    HW173042   2.516   3.053  10.026 -0.3426 -0.3609  0.4136
55309SOL    HW273043   2.588   3.135  10.131  0.5045  0.2180 -0.6029
55310SOL     OW73044  11.306   0.005  11.005  0.0868 -0.0629  0.1746
55310SOL    HW173045  11.291   0.069  11.075  0.0448 -0.7926  0.8480
55310SOL    HW273046  11.340  -0.072  11.050  0.1967 -0.5000 -0.6352
55311SOL     OW73047  11.335   6.419   9.341  0.2424 -0.3930  0.1444
55311SOL    HW173048  11.304   6.480   9.274  0.2544  0.2522  0.7184
55311SOL    HW273049  11.278   6.435   9.416  0.2980 -1.0403  0.3320
55312SOL     OW73050   9.277   6.234   6.260  0.2577  0.0037 -0.1851
55312SOL    HW173051   9.204   6.172   6.266  1.1750 -1.2634 -1.5219
55312SOL    HW273052   9.255   6.289   6.185 -0.0733  0.7133  0.4058
55313SOL     OW73053   0.178   8.780   2.148 -0.4186  0.1522 -0.6154
55313SOL    HW173054   0.254   8.816   2.103  0.5631 -1.1066 -0.0478
55313SOL    HW273055   0.111   8.773   2.080  0.1501  0.7713 -1.2562
55314SOL     OW73056   5.454  11.349   8.713 -0.3168  0.4134  0.0092
55314SOL    HW173057   5.511  11.414   8.755 -1.4181  2.8594 -1.9994
55314SOL    HW273058   5.515  11.292   8.665  0.5922  1.2846  0.0921
55315SOL     OW73059  11.932   8.840   9.938  0.0930  0.0376 -0.2605
55315SOL    HW173060  11.999   8.798   9.884  0.0450  0.2230 -0.4663
55315SOL    HW273061  11.973   8.921   9.968  0.2063 -0.1789  0.1845
55316SOL     OW73062  12.816   9.707   1.458 -0.2579  0.9001  0.3441
55316SOL    HW173063  12.723   9.687   1.471  0.4275 -3.3901  0.1692
55316SOL    HW273064  12.860   9.667   1.533  1.6060  0.4804 -0.9070
55317SOL     OW73065   3.087  10.754   0.731  0.0059 -0.0853 -0.2467
55317SOL    HW173066   3.140  10.689   0.778  0.3690  0.4312  0.0646
55317SOL    HW273067   3.072  10.824   0.794 -1.3837 -0.3876 -0.2036
55318SOL     OW73068   5.683   0.505   6.224  0.2536  0.3828 -0.1381
55318SOL    HW173069   5.699   0.453   6.145  0.7366 -1.8696  1.3503
55318SOL    HW273070   5.620   0.572   6.196 -0.7433 -1.2602 -2.0865
55319SOL     OW73071   2.203   7.419   7.928  0.2638  0.0626  0.2191
55319SOL    HW173072   2.132   7.369   7.889 -0.0515  0.7224 -0.0721
55319SOL    HW273073   2.276   7.357   7.933 -0.0515 -0.3644 -0.3205
55320SOL     OW73074  12.054   9.486  10.024  0.2374  0.0031 -0.7874
55320SOL    HW173075  11.966   9.457  10.049  0.9255  1.0040  3.6760
55320SOL    HW273076  12.051   9.581  10.027  1.5859  0.0557  0.2778
55321SOL     OW73077   7.016  11.048   2.929  0.7593 -0.3573  0.5288
55321SOL    HW173078   7.099  11.050   2.882  0.9193 -0.7912  0.7894
55321SOL    HW273079   6.999  11.139   2.953  0.8114 -0.1707 -0.1304
55322SOL     OW73080   3.608   7.946  11.817 -0.4616 -0.0881 -0.0551
55322SOL    HW173081   3.642   7.936  11.728 -0.7608 -0.6059 -0.1150
55322SOL    HW273082   3.549   7.872  11.829 -0.5881  0.0952  0.5019
55323SOL     OW73083  11.922  10.749   0.634  0.2655 -0.2228  0.9722
55323SOL    HW173084  11.827  10.738   0.643 -0.3345  2.4696 -0.8265
55323SOL    HW273085  11.956  10.659   0.631 -1.7055 -1.3623  5.1123
55324SOL     OW73086   8.788  11.494   5.044  0.2428  0.2559 -0.0976
55324SOL    HW173087   8.843  11.451   5.110  2.6969  2.0913 -0.8140
55324SOL    HW273088   8.849  11.525   4.978 -1.5024  3.4070 -0.4139
55325SOL     OW73089   7.661   0.328   5.898  0.4872  0.4105 -0.0949
55325SOL    HW173090   7.648   0.281   5.816 -0.7813 -0.9357  0.8256
55325SOL    HW273091   7.739   0.289   5.937 -0.5427 -0.9806  0.6507
55326SOL     OW73092   0.776  10.704   6.187 -0.4705  0.1662  0.3262
55326SOL    HW173093   0.736  10.787   6.161  0.9762  0.7049 -0.2511
55326SOL    HW273094   0.857  10.729   6.230 -0.3366 -0.9393  0.7462
55327SOL     OW73095   0.794   7.055  12.674 -0.7750  0.2247  0.5749
55327SOL    HW173096   0.876   7.068  12.627 -1.2414  0.7670 -0.0998
55327SOL    HW273097   0.820   7.050  12.766  0.0919 -0.3608  0.3131
55328SOL     OW73098   4.675   9.368   2.769  0.3308 -1.2465 -0.2262
55328SOL    HW173099   4.747   9.370   2.705 -0.2513  0.3546 -0.8932
55328SOL    HW273100   4.598   9.393   2.718 -0.2345 -0.4182  0.9958
55329SOL     OW73101   8.208  10.449   7.802 -0.1972 -0.0962  0.0743
55329SOL    HW173102   8.304  10.451   7.806 -0.2210  1.9784  0.3769
55329SOL    HW273103   8.189  10.390   7.729  1.2872 -0.8449  0.2496
55330SOL     OW73104   2.105   0.132   3.043  0.0661 -0.0647  0.0759
55330SOL    HW173105   2.192   0.162   3.017  0.5944 -0.9661  0.7632
55330SOL    HW273106   2.047   0.205   3.019  1.3923  1.9318  2.4030
55331SOL     OW73107   6.618   5.445   9.521 -0.5280 -0.2521  0.3266
55331SOL    HW173108   6.614   5.373   9.459 -0.1863 -2.0267  2.2424
55331SOL    HW273109   6.708   5.476   9.518 -0.2571 -1.0010  0.6358
55332SOL     OW73110   7.208   6.582  11.527  0.2209  0.0445 -0.0805
55332SOL    HW173111   7.117   6.581  11.556  0.4585 -2.0407  0.7814
55332SOL    HW273112   7.257   6.614  11.603  0.1597  2.3534 -0.9378
55333SOL     OW73113   2.316   1.993  10.532 -0.1132  0.2705 -0.2014
55333SOL    HW173114   2.240   2.023  10.483 -0.3041 -0.2202 -0.2168
55333SOL    HW273115   2.390   2.039  10.492 -0.3642  0.5031 -0.3993
55334SOL     OW73116   2.964   0.689   8.921  0.0095 -0.1387  0.0330
55334SOL    HW173117   2.949   0.608   8.969 -1.2128  0.1428  0.1533
55334SOL    HW273118   3.059   0.698   8.918  0.1943 -1.9468 -0.6064
55335SOL     OW73119  10.481   0.173  11.459 -0.2571 -0.2899  0.6698
55335SOL    HW173120  10.532   0.116  11.401 -1.2403 -1.1280  0.6057
55335SOL    HW273121  10.464   0.119  11.536  0.1596  0.4708  1.3073
55336SOL     OW73122   0.227   8.467   9.930 -0.1309  0.0734  0.0978
55336SOL    HW173123   0.320   8.456   9.948 -0.0295  1.1595  0.3186
55336SOL    HW273124   0.188   8.383   9.952  1.1845 -1.4895 -2.8567
55337SOL     OW73125   8.403   3.239  10.008  0.2996 -0.1773 -0.0895
55337SOL    HW173126   8.311   3.263   9.996  0.2377 -1.3369 -2.6339
55337SOL    HW273127   8.425   3.190   9.929  2.6186 -1.4877  1.2701
55338SOL     OW73128   1.559   2.930   8.368 -0.0922  0.4240  0.4573
55338SOL    HW173129   1.611   2.853   8.391  0.5476  1.1579  1.5784
55338SOL    HW273130   1.487   2.896   8.315  1.3154 -0.6756 -0.8233
55339SOL     OW73131   8.698   1.581  11.099 -0.3353 -0.2529 -0.1262
55339SOL    HW173132   8.751   1.629  11.035  0.0788  0.5012  0.7510
55339SOL    HW273133   8.705   1.633  11.179 -1.8501 -0.5162  0.2015
55340SOL     OW73134   2.056   5.434  12.750  0.3642  0.0828 -0.4581
55340SOL    HW173135   2.075   5.398  12.664  2.0184  1.1657 -0.5975
55340SOL    HW273136   2.012   5.518  12.732  1.0760  0.5023 -0.2716
55341SOL     OW73137   2.015  11.852  10.117  0.0894  0.6241  0.3693
55341SOL    HW173138   2.060  11.793  10.056  0.0016  0.3486  0.5692
55341SOL    HW273139   2.069  11.930  10.119  0.5575  0.2980  0.5980
55342SOL     OW73140   2.790   5.362   3.102 -0.0437  0.6822 -0.3382
55342SOL    HW173141   2.793   5.316   3.185  0.6481  0.8131 -0.2840
55342SOL    HW273142   2.735   5.307   3.046 -0.3119  0.4725  0.1252
55343SOL     OW73143   4.919   8.309   1.228  0.5400 -0.0469  0.0140
55343SOL    HW173144   4.827   8.321   1.251  0.7691  1.8736  0.0686
55343SOL    HW273145   4.954   8.397   1.220  2.3531 -0.7316 -0.1824
55344SOL     OW73146   0.251   9.453  11.695  0.6395 -0.0331 -0.2938
55344SOL    HW173147   0.273   9.538  11.734 -1.9672  0.7527 -0.3313
55344SOL    HW273148   0.210   9.475  11.611  2.0964 -1.4960 -1.4640
55345SOL     OW73149   6.464   8.109   1.003  0.1971  0.6027 -0.3354
55345SOL    HW173150   6.541   8.160   1.029  0.1832  1.5028 -1.9464
55345SOL    HW273151   6.476   8.024   1.046  1.5315  1.1012  0.3275
55346SOL     OW73152  11.499   4.591   8.417 -0.0759  0.4876  0.0979
55346SOL    HW173153  11.422   4.636   8.453 -0.2992  0.2336 -0.0542
55346SOL    HW273154  11.485   4.593   8.322 -1.4132 -2.1507  0.1473
55347SOL     OW73155   0.819   0.137   5.016 -0.2231 -0.2584  0.0381
55347SOL    HW173156   0.896   0.165   4.966 -1.1665  0.3556 -1.1453
55347SOL    HW273157   0.852   0.115   5.103  1.1136  1.0802 -0.1039
55348SOL     OW73158   3.786  11.449  11.498 -0.6941  0.2134 -0.4985
55348SOL    HW173159   3.733  11.385  11.450 -1.0605 -0.3196  0.5594
55348SOL    HW273160   3.773  11.425  11.590  0.4751  0.8025 -0.1626
55349SOL     OW73161   7.200   7.095   0.667 -0.1343 -0.4023 -0.5920
55349SOL    HW173162   7.215   7.016   0.615  1.9925  0.2805 -1.1239
55349SOL    HW273163   7.225   7.166   0.608 -0.7016  0.5976  0.3430
55350SOL     OW73164   8.343   0.871   6.297  0.0786  0.2482  0.4075
55350SOL    HW173165   8.281   0.854   6.226  1.3110 -0.6653 -0.4944
55350SOL    HW273166   8.336   0.965   6.312 -1.5314  0.1713  0.3752
55351SOL     OW73167   0.869   1.623   1.996  0.3842  0.1407 -0.0861
55351SOL    HW173168   0.934   1.690   2.016 -0.0806  0.3411  0.8089
55351SOL    HW273169   0.826   1.654   1.917  1.8272 -0.3434 -1.1116
55352SOL     OW73170   5.604   9.919   9.938  0.5650 -0.2313 -0.7277
55352SOL    HW173171   5.573   9.861   9.869 -1.0581  0.7234 -0.8539
55352SOL    HW273172   5.526   9.942   9.988  1.4918  0.1942  0.6055
55353SOL     OW73173   6.338   6.375  11.375  0.2086  0.3539  0.1007
55353SOL    HW173174   6.304   6.297  11.331  0.9353 -1.8394  3.0375
55353SOL    HW273175   6.270   6.397  11.440  0.5123  1.4823  0.0554
55354SOL     OW73176   2.798   3.090   3.772  0.5296  0.4242  0.3748
55354SOL    HW173177   2.803   3.144   3.694 -0.7882  1.3244  0.8718
55354SOL    HW273178   2.750   3.012   3.745 -1.4512  1.4972  0.6357
55355SOL     OW73179   6.295  12.517  12.110 -0.3017  0.6935  0.0984
55355SOL    HW173180   6.221  12.475  12.152 -0.3659  0.8728  0.1654
55355SOL    HW273181   6.317  12.460  12.036 -2.2504  1.9946 -1.6101
55356SOL     OW73182  10.269   4.157   4.623  0.1973 -0.4227  0.2791
55356SOL    HW173183  10.339   4.092   4.621 -0.0137 -0.6969  1.5600
55356SOL    HW273184  10.188   4.107   4.614  0.0737 -0.2490  0.4144
55357SOL     OW73185   5.196   0.528   2.622  0.2338  0.2654 -0.3439
55357SOL    HW173186   5.160   0.445   2.593  0.7139 -0.4950  1.1022
55357SOL    HW273187   5.155   0.544   2.707  1.3912  0.6382  0.1744
55358SOL     OW73188   9.343   5.506  11.904 -0.2794  0.0416  0.0864
55358SOL    HW173189   9.323   5.547  11.988  0.9499 -0.9085  0.8710
55358SOL    HW273190   9.430   5.540  11.881  0.1879 -1.1196  0.1126
55359SOL     OW73191   6.357   8.605   9.871 -0.0512  0.5844 -0.2568
55359SOL    HW173192   6.308   8.628   9.950 -1.8908 -1.1044 -0.8363
55359SOL    HW273193   6.449   8.612   9.898 -0.6035  0.4229  1.9158
55360SOL     OW73194  12.177   1.276   7.731  0.3048 -0.1534 -0.6255
55360SOL    HW173195  12.271   1.289   7.740  0.2558  1.2431 -1.8139
55360SOL    HW273196  12.154   1.220   7.805  1.7861  0.9345  0.7409
55361SOL     OW73197   6.089  10.574   8.372  0.2007  0.3027  0.3158
55361SOL    HW173198   6.094  10.526   8.289  1.9830  0.6751  0.1738
55361SOL    HW273199   6.021  10.640   8.356  0.4949  0.3514 -0.8500
55362SOL     OW73200   5.232  12.908   8.356  0.6443 -0.3594  0.0091
55362SOL    HW173201   5.283  12.955   8.290 -2.2131 -0.4990 -2.5528
55362SOL    HW273202   5.192  12.978   8.408  2.3241 -0.2349  1.2153
55363SOL     OW73203   0.946  12.292   4.167 -0.7782  0.1795 -0.8004
55363SOL    HW173204   1.002  12.227   4.126 -1.7901 -1.1657 -0.1350
55363SOL    HW273205   1.004  12.344   4.223  0.0163 -0.2568 -1.2168
55364SOL     OW73206   9.182   0.722   6.572 -0.2655 -0.5387 -0.1364
55364SOL    HW173207   9.232   0.740   6.492 -0.5447 -0.9639 -0.4107
55364SOL    HW273208   9.095   0.757   6.554  0.1390  0.9402  0.6539
55365SOL     OW73209   4.085   2.854   0.739 -0.5110  0.6253 -0.4025
55365SOL    HW173210   4.032   2.917   0.789 -0.3695 -0.2252  0.8398
55365SOL    HW273211   4.170   2.853   0.783 -0.3279 -0.0139 -0.7563
55366SOL     OW73212   0.003   9.475   0.025 -0.2984 -0.2069 -0.0010
55366SOL    HW173213   0.003   9.390   0.068  0.7531 -0.4417 -0.4424
55366SOL    HW273214   0.051   9.532   0.085 -0.3752 -0.0951 -0.0462
55367SOL     OW73215  12.339  10.717   8.156 -0.1541  0.1582 -0.2249
55367SOL    HW173216  12.379  10.802   8.140  0.7520 -0.0059  1.0883
55367SOL    HW273217  12.309  10.721   8.247  0.8482 -1.2840  0.2006
55368SOL     OW73218   8.499   7.048  12.348 -0.1322 -0.2493 -0.7035
55368SOL    HW173219   8.438   7.101  12.399  0.9452  2.3783 -1.9951
55368SOL    HW273220   8.548   6.998  12.414  0.4441  2.1679  0.8517
55369SOL     OW73221   6.252   2.312  12.859  0.5568 -0.2004 -0.1281
55369SOL    HW173222   6.266   2.228  12.817 -2.2284 -0.9375  0.2070
55369SOL    HW273223   6.223   2.291  12.947  0.8572  1.1472  0.3179
55370SOL     OW73224  12.405   0.827   3.866 -0.3425 -0.4932 -0.5067
55370SOL    HW173225  12.485   0.833   3.918 -0.3446  1.4170 -0.6326
55370SOL    HW273226  12.434   0.799   3.780  0.0994 -0.5443 -0.3421
55371SOL     OW73227  12.055   7.661   8.731 -0.5893  0.2774 -0.1009
55371SOL    HW173228  12.109   7.726   8.687 -1.2614  0.0759 -1.2666
55371SOL    HW273229  12.112   7.623   8.798  1.0841 -0.6563 -1.9594
55372SOL     OW73230  11.930  12.867   9.199 -0.2222 -0.0241  0.7119
55372SOL    HW173231  11.947  12.960   9.215 -0.4938  0.0284  0.6855
55372SOL    HW273232  11.898  12.833   9.283 -1.1633  0.1414  0.4301
55373SOL     OW73233   8.984   1.689   4.616 -0.1866 -0.2451  0.4261
55373SOL    HW173234   8.918   1.736   4.667 -1.8183 -0.9258 -0.9501
55373SOL    HW273235   8.951   1.691   4.526  0.8997 -1.9318 -0.0545
55374SOL     OW73236   3.320  10.879  10.524  0.0515 -0.0621 -0.7172
55374SOL    HW173237   3.388  10.946  10.522 -1.2804  1.3603 -0.3617
55374SOL    HW273238   3.337  10.831  10.606 -1.9296  3.2214  1.9059
55375SOL     OW73239   4.058   9.852  11.591  0.1571 -0.5155  0.2618
55375SOL    HW173240   4.109   9.817  11.664 -2.0577 -1.5890  1.3707
55375SOL    HW273241   3.981   9.795  11.585 -0.5539  0.5663 -1.8332
55376SOL     OW73242   3.810   6.535  10.923  0.2379  0.1733  0.1450
55376SOL    HW173243   3.875   6.492  10.978  1.4922 -1.3510 -2.3713
55376SOL    HW273244   3.819   6.628  10.944  1.5011 -0.2379  1.6101
55377SOL     OW73245   2.224   5.329   4.392  0.1335  0.2815  0.5564
55377SOL    HW173246   2.159   5.397   4.373 -0.3551 -0.4153 -0.3151
55377SOL    HW273247   2.175   5.247   4.386  0.4986 -0.1305  2.5244
55378SOL     OW73248  12.894   0.774   6.678  0.7548 -0.5793  0.0521
55378SOL    HW173249  12.942   0.702   6.638  0.4444 -0.5568 -0.3708
55378SOL    HW273250  12.936   0.853   6.644  1.6873 -0.5426  1.2279
55379SOL     OW73251   4.872  10.943  10.765  0.3659  0.1164 -0.2941
55379SOL    HW173252   4.842  11.002  10.834 -0.3801 -0.5515 -0.0329
55379SOL    HW273253   4.792  10.906  10.728  0.8262 -2.0817  0.7447
55380SOL     OW73254  10.208   8.740  10.218  0.5463 -0.6401  0.0076
55380SOL    HW173255  10.120   8.728  10.182  0.5144  0.7022 -0.4260
55380SOL    HW273256  10.202   8.709  10.308 -0.3984 -0.4916  0.0032
55381SOL     OW73257   8.617   6.811  12.474  0.3644 -0.2604  0.4363
55381SOL    HW173258   8.650   6.791  12.561 -0.7917 -0.9477  0.7440
55381SOL    HW273259   8.596   6.725  12.436  3.1262 -0.2135 -1.5062
55382SOL     OW73260   8.518   9.781  12.927  0.9781  0.6159 -0.5213
55382SOL    HW173261   8.499   9.707  12.984  0.1408  0.1750 -1.3286
55382SOL    HW273262   8.578   9.746  12.861 -0.0459  0.4145 -1.3730
55383SOL     OW73263   0.436  10.871   1.748  0.2501  0.5921  0.1238
55383SOL    HW173264   0.449  10.940   1.683 -0.7736  1.3568  0.6932
55383SOL    HW273265   0.511  10.880   1.808  0.1087  1.2554  0.2150
55384SOL     OW73266  12.529   1.621   3.898  0.5309  0.1790 -0.3190
55384SOL    HW173267  12.480   1.650   3.975 -0.1014 -0.9993 -0.2435
55384SOL    HW273268  12.461   1.592   3.836  1.0935 -0.9551 -0.4378
55385SOL     OW73269   9.539   2.061   1.704  0.0612 -0.3980 -0.2122
55385SOL    HW173270   9.529   2.019   1.619  2.1044 -0.6266 -0.3818
55385SOL    HW273271   9.634   2.068   1.717 -0.2125  1.3197  1.2276
55386SOL     OW73272   1.933  10.092  12.317 -0.2378  0.6532  0.0945
55386SOL    HW173273   1.933  10.157  12.247 -1.1686 -1.9195 -2.4405
55386SOL    HW273274   1.941  10.144  12.397  2.0777  3.6934 -1.8801
55387SOL     OW73275   3.054   7.342   3.199 -0.1065 -0.3328 -0.0697
55387SOL    HW173276   3.102   7.375   3.275 -0.9766 -1.1851  0.8679
55387SOL    HW273277   2.962   7.352   3.222 -0.3825 -1.1161 -0.7851
55388SOL     OW73278   5.290   3.071   4.524 -0.2523  0.3358 -0.2893
55388SOL    HW173279   5.309   3.149   4.472  1.0034  0.2936  0.0757
55388SOL    HW273280   5.240   3.105   4.599 -0.9308  0.5797 -0.8442
55389SOL     OW73281   1.335   5.281   9.703 -0.1341 -0.2133  0.3834
55389SOL    HW173282   1.413   5.282   9.758  1.2203 -0.3731 -1.4507
55389SOL    HW273283   1.286   5.204   9.732  2.0618 -2.1048 -0.5694
55390SOL     OW73284   1.151  10.284   5.871  0.1494 -0.0385  0.6256
55390SOL    HW173285   1.159  10.189   5.859 -0.4603 -0.2343  1.6733
55390SOL    HW273286   1.200  10.321   5.798 -0.0988 -1.1582 -0.1364
55391SOL     OW73287  10.247   8.615   5.905  0.7088  0.8179  0.1163
55391SOL    HW173288  10.224   8.576   5.820  1.4225  1.5972 -0.4538
55391SOL    HW273289  10.162   8.639   5.943  0.3982  0.9022 -0.5989
55392SOL     OW73290   4.672   6.981   4.883  0.0251  0.2253  0.4953
55392SOL    HW173291   4.693   7.052   4.944  0.0084 -0.2909  1.1061
55392SOL    HW273292   4.753   6.968   4.833  0.6557 -0.6123  1.6870
55393SOL     OW73293   7.827   5.056   1.439 -0.1665  0.5079 -0.1788
55393SOL    HW173294   7.864   5.140   1.466  3.3022 -0.1467 -2.2670
55393SOL    HW273295   7.772   5.077   1.364 -2.4620  1.2510  1.6126
55394SOL     OW73296   7.866   9.523   8.360 -0.0126  0.2154  0.6550
55394SOL    HW173297   7.906   9.585   8.299 -2.5103  0.1805 -1.1688
55394SOL    HW273298   7.789   9.568   8.394 -0.9762 -1.2693  0.5461
55395SOL     OW73299   9.313   2.003   0.376 -0.1566 -0.1453 -0.1998
55395SOL    HW173300   9.316   2.074   0.312 -3.9819  0.8415  0.4744
55395SOL    HW273301   9.328   2.047   0.461 -0.0063 -0.5994  0.0106
55396SOL     OW73302  10.537   0.093   4.881 -0.0606  0.4202 -0.0877
55396SOL    HW173303  10.616   0.095   4.934 -0.3660  0.7855  0.3606
55396SOL    HW273304  10.560   0.039   4.805  0.5278  0.2993  0.1746
55397SOL     OW73305   5.668   0.222   5.105 -0.2096  0.4328 -0.1709
55397SOL    HW173306   5.692   0.131   5.117  0.2058  0.3414 -1.5198
55397SOL    HW273307   5.572   0.223   5.110 -0.2093 -0.0539 -0.0881
55398SOL     OW73308  11.648   6.452  10.505 -0.7543  0.1366  0.6141
55398SOL    HW173309  11.711   6.518  10.477 -1.3542  0.8062  0.8199
55398SOL    HW273310  11.630   6.474  10.597 -0.3344 -0.8132  0.9327
55399SOL     OW73311   2.503  10.909   0.517 -0.5746 -0.0183 -0.4246
55399SOL    HW173312   2.561  10.898   0.441 -1.9843 -0.3528 -1.4996
55399SOL    HW273313   2.438  10.840   0.508 -1.4041  0.6045  0.5091
55400SOL     OW73314   8.257   0.560   7.922  0.1222 -0.3440 -0.5908
55400SOL    HW173315   8.297   0.593   7.841  1.9329 -2.3376 -0.5924
55400SOL    HW273316   8.196   0.492   7.892  1.2450 -1.5148 -0.3049
55401SOL     OW73317   1.773   2.306   1.968  0.2480  0.2030 -0.1995
55401SOL    HW173318   1.786   2.215   1.941  0.5536  0.4408 -0.8823
55401SOL    HW273319   1.856   2.331   2.007 -0.2483 -0.1915  1.1445
55402SOL     OW73320  10.985  10.221   8.693  0.4636 -0.2696 -0.2151
55402SOL    HW173321  10.925  10.295   8.698  1.1894  0.3521 -0.5329
55402SOL    HW273322  10.998  10.207   8.599 -0.4152 -1.4277 -0.1891
55403SOL     OW73323   3.421   9.269   9.989  0.4053 -0.5400  0.0683
55403SOL    HW173324   3.487   9.332  10.017  1.4561 -0.9453 -1.3835
55403SOL    HW273325   3.339   9.304  10.024  1.1533  0.8667  0.5027
55404SOL     OW73326   6.560   2.075   3.654 -0.1591 -0.2344  0.2294
55404SOL    HW173327   6.513   2.088   3.736  0.1891  1.7218  0.1572
55404SOL    HW273328   6.520   1.996   3.617 -2.8863  0.8748  0.5264
55405SOL     OW73329  12.276   3.857  11.096 -0.0616 -0.7143  0.3312
55405SOL    HW173330  12.293   3.856  11.190 -1.1188  0.3040  0.5621
55405SOL    HW273331  12.204   3.795  11.084 -2.0332  1.3627  0.7042
55406SOL     OW73332  10.796  10.467   1.255 -0.2090 -0.4776  0.1859
55406SOL    HW173333  10.891  10.477   1.268 -0.0751 -0.9533 -0.4070
55406SOL    HW273334  10.770  10.402   1.321 -0.6964  1.9077  2.5062
55407SOL     OW73335   5.478  10.090   4.477  0.1469 -0.1154  0.2696
55407SOL    HW173336   5.457  10.002   4.509  0.3307 -0.3430 -0.2233
55407SOL    HW273337   5.553  10.117   4.530  0.6796 -0.6378 -0.1906
55408SOL     OW73338   7.136   4.216   3.967  0.4435  0.0661  0.0522
55408SOL    HW173339   7.178   4.193   4.050 -0.5462  1.7803  1.1024
55408SOL    HW273340   7.187   4.291   3.935  0.2376  0.0220 -0.3810
55409SOL     OW73341   1.698   1.846   9.858  0.3095  0.7323 -0.2959
55409SOL    HW173342   1.638   1.848   9.933  0.1915  1.7226 -0.4047
55409SOL    HW273343   1.709   1.937   9.834 -0.3723  0.3778 -2.0611
55410SOL     OW73344   9.078  12.632   6.048  0.4621  0.1752  0.2848
55410SOL    HW173345   9.002  12.669   6.002  0.6546  0.1087 -0.0904
55410SOL    HW273346   9.113  12.706   6.098 -0.5490 -0.0739  1.4127
55411SOL     OW73347   2.260   6.188   6.590 -0.3497 -0.4985  0.1429
55411SOL    HW173348   2.285   6.175   6.499 -1.9029  0.5809 -0.4822
55411SOL    HW273349   2.311   6.123   6.639  2.1589  0.3354 -1.2099
55412SOL     OW73350  11.571   8.870   7.534 -0.2673 -0.1623  0.3233
55412SOL    HW173351  11.565   8.820   7.615  0.9652  2.0293  1.8880
55412SOL    HW273352  11.506   8.940   7.544 -1.8284 -1.2158 -1.7234
55413SOL     OW73353   9.081   0.012  11.488 -0.3065 -0.1953 -0.2352
55413SOL    HW173354   9.037   0.002  11.404 -2.8930  0.0355  1.0086
55413SOL    HW273355   9.045   0.093  11.525  0.2932 -0.6153  1.3722
55414SOL     OW73356   4.191   6.460   9.537 -0.1190  0.3632 -0.0583
55414SOL    HW173357   4.161   6.551   9.527  0.5571  0.6323  0.2730
55414SOL    HW273358   4.135   6.410   9.478 -0.8837  0.9134  0.1801
55415SOL     OW73359   8.092   5.240  12.375  0.0072  0.0615  0.0670
55415SOL    HW173360   8.140   5.190  12.308 -0.8473  0.1437 -0.6371
55415SOL    HW273361   8.106   5.192  12.456 -0.4695 -1.1196 -0.5274
55416SOL     OW73362   6.052   3.159   7.185  0.0718  0.0094 -0.4038
55416SOL    HW173363   5.980   3.111   7.226  1.0464 -1.6233 -0.4829
55416SOL    HW273364   6.025   3.250   7.187 -1.6898 -0.4846  0.1724
55417SOL     OW73365   8.459   5.354  11.918 -0.6689 -0.2219 -0.4029
55417SOL    HW173366   8.529   5.381  11.858 -1.1438 -1.3749 -1.5273
55417SOL    HW273367   8.503   5.295  11.979 -0.2887  0.5417  0.0757
55418SOL     OW73368   4.557  11.294  11.034 -0.1208 -0.1802  0.3155
55418SOL    HW173369   4.558  11.385  11.005 -0.6988 -0.3709 -0.3395
55418SOL    HW273370   4.493  11.292  11.105 -0.6329 -0.2092 -0.1439
55419SOL     OW73371   8.448   3.043   4.123 -0.2694  0.1321  0.6417
55419SOL    HW173372   8.473   3.128   4.161  0.7189  0.1601 -0.0369
55419SOL    HW273373   8.361   3.059   4.085 -0.4120  0.6327  1.1591
55420SOL     OW73374   0.881   0.979   2.518 -0.4379  0.1454  0.2538
55420SOL    HW173375   0.786   0.979   2.532 -0.3225 -0.0442  1.1365
55420SOL    HW273376   0.892   0.988   2.424 -1.3583 -0.9728  0.0194
55421SOL     OW73377   7.841   6.496   1.550  0.3630 -0.0843 -0.0442
55421SOL    HW173378   7.876   6.559   1.487  1.5154 -0.9938 -0.3569
55421SOL    HW273379   7.910   6.487   1.615 -0.8719  0.9434  1.4642
55422SOL     OW73380   4.811   3.219   8.482 -0.2955  0.3478  0.0674
55422SOL    HW173381   4.873   3.284   8.516  1.3819  0.2230 -2.5054
55422SOL    HW273382   4.846   3.135   8.513  0.0292  0.3766 -0.2157
55423SOL     OW73383   3.041   1.350   3.311 -0.3397  0.0333 -0.6306
55423SOL    HW173384   3.098   1.393   3.375 -0.7489  0.0037 -0.2402
55423SOL    HW273385   2.972   1.310   3.364 -2.8797  3.1743 -1.2494
55424SOL     OW73386   6.347  12.326  11.917  0.8903 -0.0693 -0.2814
55424SOL    HW173387   6.365  12.310  11.824 -0.1394  0.3045 -0.5645
55424SOL    HW273388   6.358  12.241  11.958  1.1043 -0.2947 -0.7878
55425SOL     OW73389   0.001   5.920  12.787 -0.2233  0.0534 -0.0115
55425SOL    HW173390   0.045   5.989  12.737 -0.8718 -0.1061 -0.8265
55425SOL    HW273391   0.064   5.896  12.855  1.3226 -0.7333 -1.6124
55426SOL     OW73392   9.725   5.059  10.789  0.5992  0.3108  0.0323
55426SOL    HW173393   9.732   5.042  10.883 -0.4126  0.8444  0.2246
55426SOL    HW273394   9.646   5.113  10.781 -0.9144 -1.9609 -1.4090
55427SOL     OW73395   4.154  11.112   1.183  0.0015 -0.1048 -0.5801
55427SOL    HW173396   4.150  11.138   1.091  1.6658  1.3216 -0.2923
55427SOL    HW273397   4.148  11.194   1.232 -1.2207 -0.8710  0.6306
55428SOL     OW73398   0.094   5.134   6.082  0.1267 -0.1036  0.1405
55428SOL    HW173399   0.068   5.222   6.110  1.9451  0.8467 -0.9558
55428SOL    HW273400   0.139   5.097   6.157 -1.3392 -0.4463  0.8817
55429SOL     OW73401  10.307   4.180  10.732  0.2862 -0.0291  0.1953
55429SOL    HW173402  10.249   4.193  10.657  0.2141 -0.2771  0.2086
55429SOL    HW273403  10.290   4.256  10.788  2.0413  1.4343 -1.1237
55430SOL     OW73404   2.515  12.280   0.624 -0.4521  0.7783  0.3773
55430SOL    HW173405   2.461  12.358   0.628  0.1326  1.1636  1.0879
55430SOL    HW273406   2.569  12.284   0.703  0.1055  0.0411  0.0495
55431SOL     OW73407  10.055   1.153   4.005  0.5111  0.1052 -0.0447
55431SOL    HW173408   9.991   1.135   3.937  1.1069 -1.4784 -0.2503
55431SOL    HW273409  10.055   1.248   4.015 -0.3734  0.2787 -1.4684
55432SOL     OW73410   3.465   6.998   3.433  0.0019  0.0560 -0.0548
55432SOL    HW173411   3.418   6.992   3.517  0.5125  0.6329  0.2736
55432SOL    HW273412   3.523   6.922   3.433  0.6804  0.5665  0.5398
55433SOL     OW73413   0.158  11.744   6.898 -0.0912  0.0771 -0.0480
55433SOL    HW173414   0.180  11.715   6.809 -0.6714  0.9029 -0.4829
55433SOL    HW273415   0.159  11.840   6.892  1.3648  0.1939  1.2230
55434SOL     OW73416  12.659   0.205  10.510 -0.0573 -0.6134  0.2520
55434SOL    HW173417  12.698   0.273  10.455  0.3931 -0.8260  0.3009
55434SOL    HW273418  12.734   0.153  10.540 -0.0193  0.8129  2.9135
55435SOL     OW73419   8.709  10.461   0.571  0.4870  0.1197 -0.3321
55435SOL    HW173420   8.776  10.396   0.551 -0.0043 -1.0519  1.5852
55435SOL    HW273421   8.755  10.528   0.621  0.4661 -0.1151  0.0053
55436SOL     OW73422   2.848   0.552  10.647  0.2648 -0.2965 -0.2786
55436SOL    HW173423   2.939   0.533  10.624  0.3612 -0.9033  0.5693
55436SOL    HW273424   2.796   0.504  10.582  0.5322 -1.8718  0.6171
55437SOL     OW73425  12.415  12.590   0.399 -0.2929 -0.4864 -0.2307
55437SOL    HW173426  12.434  12.596   0.493  0.4968  0.0358 -0.4097
55437SOL    HW273427  12.494  12.551   0.361 -0.6788 -0.8624 -0.6564
55438SOL     OW73428  11.423   6.424   0.383 -0.0210  0.1473 -0.2317
55438SOL    HW173429  11.367   6.374   0.442  1.0811 -1.8947 -0.8205
55438SOL    HW273430  11.404   6.516   0.404 -1.8528 -0.4827  1.1611
55439SOL     OW73431   5.445   5.082   4.494 -0.0410 -0.1390  0.0782
55439SOL    HW173432   5.393   5.020   4.443  0.2232  2.0205 -3.0778
55439SOL    HW273433   5.386   5.156   4.510  0.6283  0.2561  0.8361
55440SOL     OW73434   7.018   2.042   3.026  0.5860 -0.3070 -0.6900
55440SOL    HW173435   6.952   2.112   3.023  0.5406 -0.2758  0.5167
55440SOL    HW273436   7.049   2.043   3.116  2.0687 -0.4961 -1.1786
55441SOL     OW73437   1.980   3.611  10.677 -0.2374 -0.3795 -0.2613
55441SOL    HW173438   2.045   3.550  10.642  2.3762  2.3653 -0.5436
55441SOL    HW273439   1.956   3.574  10.762  1.2848 -1.7741 -0.3890
55442SOL     OW73440   1.887   6.510   4.636  0.1422 -0.1159  0.2129
55442SOL    HW173441   1.909   6.598   4.668  0.2709  0.1015 -0.4478
55442SOL    HW273442   1.939   6.451   4.691  3.3332  0.4267 -1.9493
55443SOL     OW73443   7.289   3.746   8.750 -0.0307  0.2850  0.1916
55443SOL    HW173444   7.237   3.716   8.675 -0.3675  2.0905 -0.3535
55443SOL    HW273445   7.360   3.797   8.711  2.3855 -2.3215  0.9118
55444SOL     OW73446   5.205   2.945   3.808  0.1201 -0.1503 -0.1743
55444SOL    HW173447   5.156   2.869   3.839  1.3969 -1.1132 -0.4078
55444SOL    HW273448   5.226   2.995   3.887 -1.1081  0.2285 -0.0629
55445SOL     OW73449   4.098   8.157   2.471 -0.0190 -0.0869 -0.2906
55445SOL    HW173450   4.150   8.180   2.549  0.6898  0.0074 -0.7807
55445SOL    HW273451   4.085   8.241   2.426  1.8185 -0.4681 -1.6242
55446SOL     OW73452   2.030  10.357   1.190  0.4944  0.1225  0.3246
55446SOL    HW173453   2.012  10.267   1.216  2.0878 -0.4166 -0.3410
55446SOL    HW273454   1.943  10.395   1.173 -0.2129 -1.1631  0.9621
55447SOL     OW73455   1.340   1.732   2.625  0.2401  0.2127  0.2414
55447SOL    HW173456   1.405   1.710   2.692  2.0121  1.5203 -0.9771
55447SOL    HW273457   1.294   1.808   2.660 -1.4109 -1.2799  1.5372
55448SOL     OW73458   0.161   8.696   6.235  0.8870 -0.2081 -0.0379
55448SOL    HW173459   0.135   8.781   6.199  0.1388 -0.3078  0.2579
55448SOL    HW273460   0.114   8.632   6.181 -0.8497 -0.3453  1.5267
55449SOL     OW73461   1.555   7.007  11.796  0.2773 -0.0642 -0.2923
55449SOL    HW173462   1.523   6.947  11.729  1.2249  0.5686 -1.3367
55449SOL    HW273463   1.588   6.950  11.865  0.2286 -0.7443 -0.8149
55450SOL     OW73464   2.087   4.410   5.380 -0.0447  0.4642 -0.4598
55450SOL    HW173465   2.102   4.344   5.312  1.2232  0.8767 -0.6024
55450SOL    HW273466   1.992   4.425   5.378 -0.5351 -2.0158  0.2165
55451SOL     OW73467  10.223   5.550   3.384  0.0370 -0.6400  0.5530
55451SOL    HW173468  10.299   5.597   3.421  0.1658 -0.8669  0.5757
55451SOL    HW273469  10.216   5.584   3.294  0.6830 -1.2317  0.2708
55452SOL     OW73470   0.641   8.505   0.573  0.0246  0.3278 -0.7506
55452SOL    HW173471   0.562   8.500   0.519 -0.2539 -0.5039 -0.2811
55452SOL    HW273472   0.609   8.510   0.662  0.4932 -1.0300 -0.4766
55453SOL     OW73473  10.440   7.907   8.388 -0.1766  0.2397  0.1354
55453SOL    HW173474  10.431   7.850   8.312  0.0133 -0.2273  0.4631
55453SOL    HW273475  10.482   7.987   8.354 -0.2241  0.0874 -0.2738
55454SOL     OW73476  11.007   6.117  10.794  0.2763 -0.5395 -0.3755
55454SOL    HW173477  11.010   6.089  10.886 -2.8210 -3.1406 -0.9021
55454SOL    HW273478  10.969   6.205  10.797  3.0457  0.7493  0.8856
55455SOL     OW73479   3.587   9.927   1.857  0.3327 -0.6510 -0.0710
55455SOL    HW173480   3.608   9.980   1.934  0.9627 -0.4071 -0.4028
55455SOL    HW273481   3.493   9.939   1.844 -0.1005 -1.9544  1.5942
55456SOL     OW73482  10.562   5.828  12.114  0.6291 -0.0096  1.0465
55456SOL    HW173483  10.517   5.757  12.160  0.6980 -0.7661 -0.0209
55456SOL    HW273484  10.571   5.796  12.024  1.1999  1.1099  0.6943
55457SOL     OW73485   1.130   6.807   1.151  0.3052 -0.6466  0.2514
55457SOL    HW173486   1.035   6.812   1.143  0.3509  0.2651  0.1702
55457SOL    HW273487   1.144   6.789   1.244  0.0413 -1.6567  0.1102
55458SOL     OW73488   8.340  11.427  11.203 -0.1766  0.3153 -0.4766
55458SOL    HW173489   8.314  11.357  11.142  0.8918  0.3673 -1.0127
55458SOL    HW273490   8.258  11.474  11.221 -0.7815 -0.6214 -0.6807
55459SOL     OW73491   7.510   2.786   1.750 -0.4891 -0.1692 -0.1153
55459SOL    HW173492   7.418   2.794   1.776 -0.2635  0.9451  0.3993
55459SOL    HW273493   7.510   2.716   1.686 -1.3125 -1.9849  1.7589
55460SOL     OW73494   5.599   1.626  11.155  0.0836 -0.4725 -0.0189
55460SOL    HW173495   5.624   1.593  11.069 -2.5449  0.4007 -1.2237
55460SOL    HW273496   5.641   1.566  11.217  1.5719 -1.4800 -1.8893
55461SOL     OW73497   0.311   8.662   6.729  0.0306  0.0788 -0.0253
55461SOL    HW173498   0.249   8.664   6.656 -0.1526 -1.0030  0.0885
55461SOL    HW273499   0.376   8.729   6.707 -0.8711  0.8514 -0.4076
55462SOL     OW73500   2.920  10.594   8.623  0.4026 -0.8006  0.4051
55462SOL    HW173501   2.879  10.629   8.544  0.3513 -0.7106  0.4711
55462SOL    HW273502   3.012  10.583   8.599  0.3102 -1.1446  0.2112
55463SOL     OW73503   8.291   1.395  10.919  0.2923  0.5351 -0.1042
55463SOL    HW173504   8.364   1.401  10.981  0.7425 -1.0339 -0.4536
55463SOL    HW273505   8.330   1.409  10.833  0.4552 -1.6111 -0.4226
55464SOL     OW73506  12.918   2.245  11.734 -0.1894  0.6263  0.6380
55464SOL    HW173507  12.823   2.239  11.738 -0.0812 -0.9605  1.3931
55464SOL    HW273508  12.941   2.311  11.800 -0.6754 -0.2237  1.6753
55465SOL     OW73509   1.023   0.826   9.571 -0.3824  0.2333  0.0611
55465SOL    HW173510   0.960   0.876   9.519  0.7924 -1.7580 -3.6406
55465SOL    HW273511   1.107   0.869   9.552  0.1295 -0.7879 -0.0129
55466SOL     OW73512   8.881   5.984   4.223  0.5591 -0.7350  0.0248
55466SOL    HW173513   8.798   6.012   4.185  0.7456 -0.8111 -0.4403
55466SOL    HW273514   8.927   6.066   4.243  0.1814 -0.6864  0.7136
55467SOL     OW73515   0.269   2.198  10.790  0.2801  0.0190 -0.3221
55467SOL    HW173516   0.242   2.275  10.740  0.3257  0.9140  0.9967
55467SOL    HW273517   0.290   2.231  10.877  0.9595 -1.3888  0.0837
55468SOL     OW73518   7.089   3.857   4.553 -0.7499 -0.5110 -0.0572
55468SOL    HW173519   7.136   3.902   4.623 -2.2261  0.2103  0.5111
55468SOL    HW273520   7.108   3.764   4.568  0.7787 -0.2315 -0.0860
55469SOL     OW73521   8.618   3.798  11.153 -0.8182 -0.7215 -0.1029
55469SOL    HW173522   8.609   3.851  11.074  0.4662  0.0836  0.2455
55469SOL    HW273523   8.586   3.854  11.223  1.5748  0.1213  0.4195
55470SOL     OW73524   7.809   4.416  11.351 -0.4636 -0.1258 -0.7039
55470SOL    HW173525   7.750   4.474  11.399 -0.9144  0.1842 -1.6019
55470SOL    HW273526   7.855   4.475  11.290 -0.7282 -0.6637 -1.4369
55471SOL     OW73527   7.322  12.697   9.161  0.1019  0.1213  0.3938
55471SOL    HW173528   7.372  12.622   9.192 -0.8759 -0.5587  0.4052
55471SOL    HW273529   7.252  12.658   9.107 -1.1096  0.9239  1.3171
55472SOL     OW73530   4.900   4.480   8.459 -0.0615 -0.6729  0.8150
55472SOL    HW173531   4.923   4.472   8.367 -1.3515  1.3062  0.2515
55472SOL    HW273532   4.864   4.395   8.483  0.5863 -1.3099 -0.3918
55473SOL     OW73533  12.882  10.307  10.900 -0.3929 -0.4283 -0.1994
55473SOL    HW173534  12.918  10.344  10.981 -0.0352  1.2479 -1.0614
55473SOL    HW273535  12.934  10.228  10.884  1.1340  0.4941  0.0058
55474SOL     OW73536   9.918   5.920   3.852 -0.3048 -0.1968  0.0194
55474SOL    HW173537   9.864   5.994   3.881 -0.3583 -0.5632  0.8943
55474SOL    HW273538   9.872   5.886   3.775 -0.5761  0.3435 -0.0627
55475SOL     OW73539   8.637  10.653   4.751  0.2919  0.2934 -0.3028
55475SOL    HW173540   8.634  10.557   4.757  3.1858  0.1341 -0.2882
55475SOL    HW273541   8.573  10.675   4.684 -0.2440 -1.6632 -0.4880
55476SOL     OW73542   6.670   0.788   6.378 -0.2929  0.3913  0.8379
55476SOL    HW173543   6.649   0.880   6.397 -0.2067  0.4366  0.7115
55476SOL    HW273544   6.644   0.741   6.457 -1.0318  0.4268  0.6245
55477SOL     OW73545  10.546   0.269   3.162  0.0157  0.1124  0.3383
55477SOL    HW173546  10.605   0.343   3.174 -0.8070  0.6809  1.0242
55477SOL    HW273547  10.515   0.249   3.251 -0.6977 -0.2708  0.0116
55478SOL     OW73548  11.829   7.253   5.714  0.1109  0.3446  0.0283
55478SOL    HW173549  11.770   7.178   5.698  1.3579 -0.2577 -2.1121
55478SOL    HW273550  11.783   7.328   5.676 -0.2204  0.2869  0.3076
55479SOL     OW73551  10.560   5.054   3.463 -0.2218 -0.1033 -0.5046
55479SOL    HW173552  10.548   5.112   3.388  1.2726 -0.4622 -1.0308
55479SOL    HW273553  10.480   5.002   3.465 -1.6827  1.9952  0.0481
55480SOL     OW73554   3.645   2.681  11.322  0.1352 -0.0616  0.2911
55480SOL    HW173555   3.643   2.587  11.308 -1.2200 -0.0404  0.1720
55480SOL    HW273556   3.556   2.710  11.302  1.0723  1.5788 -1.9022
55481SOL     OW73557   5.303   0.541  10.569 -0.0267 -0.1000 -0.9743
55481SOL    HW173558   5.343   0.461  10.534 -0.2336 -0.4558 -0.4018
55481SOL    HW273559   5.212   0.537  10.542  0.1137  0.2857 -1.5316
55482SOL     OW73560   4.142   9.284  10.293 -0.0787 -0.0851 -0.4456
55482SOL    HW173561   4.069   9.259  10.350 -0.4438 -1.3651 -1.4274
55482SOL    HW273562   4.152   9.378  10.307 -1.5509  0.0110  0.1296
55483SOL     OW73563  10.881   2.499  10.263  0.0203  0.0321 -0.6011
55483SOL    HW173564  10.953   2.522  10.322 -0.4738  1.5443 -0.5314
55483SOL    HW273565  10.899   2.409  10.236 -0.6831 -1.4260  3.2255
55484SOL     OW73566  12.707   7.919   4.971  0.5970 -0.7456 -0.6019
55484SOL    HW173567  12.619   7.921   4.934 -0.4875 -1.7185  1.6627
55484SOL    HW273568  12.757   7.862   4.913  0.1236  0.7925 -2.6009
55485SOL     OW73569   1.487   9.601   7.479  0.4009  0.5412  0.1702
55485SOL    HW173570   1.433   9.546   7.536  1.4615  1.7259  2.4116
55485SOL    HW273571   1.425   9.667   7.445 -0.6496 -1.2892 -1.7157
55486SOL     OW73572   1.053   3.693  12.267 -0.3015  0.2052 -0.0234
55486SOL    HW173573   1.028   3.653  12.350  0.4619  0.1490  0.1873
55486SOL    HW273574   1.013   3.637  12.201  0.9923 -1.1319  0.2565
55487SOL     OW73575  12.914   9.941   7.042 -0.2102  0.7720 -0.3127
55487SOL    HW173576  12.868  10.008   6.991 -0.7722  1.3358  0.8877
55487SOL    HW273577  12.994   9.984   7.070 -0.8122  1.1489  0.8950
55488SOL     OW73578  12.759   6.269  11.567  0.1374 -0.1249  0.2142
55488SOL    HW173579  12.682   6.292  11.619 -0.7549  5.2790 -2.7340
55488SOL    HW273580  12.723   6.241  11.483  1.3708  0.2646 -0.4679
55489SOL     OW73581   0.151   8.031  11.153 -0.8003 -0.6227 -0.4726
55489SOL    HW173582   0.132   7.941  11.126 -0.5176 -0.4653 -1.2440
55489SOL    HW273583   0.078   8.083  11.117 -0.2494 -0.3640 -1.2538
55490SOL     OW73584   8.637   6.420   9.487 -0.6803  0.0682  0.0065
55490SOL    HW173585   8.568   6.450   9.546 -0.2381  0.7733  0.1840
55490SOL    HW273586   8.608   6.334   9.457 -0.7548 -0.4800  1.5255
55491SOL     OW73587   4.465   0.733   4.211  0.0552 -0.1057 -0.4422
55491SOL    HW173588   4.445   0.768   4.124  1.7190 -0.0128 -0.8192
55491SOL    HW273589   4.536   0.788   4.244 -0.1500 -0.5176  0.7344
55492SOL     OW73590   7.642   6.223   1.951  0.3457  0.2874 -0.1263
55492SOL    HW173591   7.691   6.171   2.016  0.1075  0.5718  0.2863
55492SOL    HW273592   7.550   6.203   1.968  0.3039 -0.1022 -0.7801
55493SOL     OW73593   8.905   6.885  12.865 -0.5061  0.2287  0.3087
55493SOL    HW173594   8.857   6.887  12.781 -0.3745  1.6098  0.2488
55493SOL    HW273595   8.996   6.872  12.840 -0.6121 -0.6194  0.3250
55494SOL     OW73596   9.151  11.062   4.531  0.0583  0.4296  0.1407
55494SOL    HW173597   9.189  11.150   4.532  1.0065  0.0531 -0.7304
55494SOL    HW273598   9.222  11.006   4.498 -0.6579 -0.5954  0.3022
55495SOL     OW73599   7.722   6.496   0.448  0.8269 -0.0590 -0.6436
55495SOL    HW173600   7.654   6.552   0.485  0.4144 -0.5687 -0.6206
55495SOL    HW273601   7.803   6.546   0.460  0.4384  0.6346 -0.8502
55496SOL     OW73602   6.801  11.535   8.072  0.2909  0.1706 -0.4972
55496SOL    HW173603   6.749  11.459   8.098  0.2573 -0.0094 -1.0776
55496SOL    HW273604   6.774  11.604   8.132  1.4942 -0.6968  1.1027
55497SOL     OW73605   5.829  12.840  10.198  0.5939 -0.2147  0.1337
55497SOL    HW173606   5.742  12.864  10.167  0.1498 -2.6441 -0.6661
55497SOL    HW273607   5.814  12.784  10.274  1.4060 -1.3014 -0.4767
55498SOL     OW73608   7.262   6.280  11.577  0.3523 -0.0244 -0.5284
55498SOL    HW173609   7.315   6.233  11.513 -1.0915  0.0581 -1.8544
55498SOL    HW273610   7.179   6.232  11.580 -0.1909  0.9061  0.0693
55499SOL     OW73611  10.890   2.125   0.238  0.0254  0.0400 -0.1065
55499SOL    HW173612  10.843   2.113   0.156 -3.2970 -0.4153  1.6903
55499SOL    HW273613  10.938   2.207   0.226  1.8065 -1.2873 -3.3194
55500SOL     OW73614   8.440   0.813   1.170 -0.1354  0.0757  0.6568
55500SOL    HW173615   8.476   0.901   1.159 -0.3246  0.3669  2.2159
55500SOL    HW273616   8.516   0.756   1.160  0.0016  0.3889 -0.2932
55501SOL     OW73617   5.700   1.615   4.410 -0.1224 -0.3980  0.4076
55501SOL    HW173618   5.795   1.631   4.407 -0.0828 -0.8268 -1.0743
55501SOL    HW273619   5.692   1.520   4.412 -0.5163 -0.4907 -2.0871
55502SOL     OW73620   4.326   9.530   0.774  0.1406 -0.3694 -0.3132
55502SOL    HW173621   4.384   9.605   0.759  0.4258 -0.7205 -1.0053
55502SOL    HW273622   4.345   9.504   0.864 -0.3540  0.7133  0.1280
55503SOL     OW73623   0.875  12.888   0.859 -0.0123 -0.0763 -0.1617
55503SOL    HW173624   0.808  12.957   0.856 -0.4276 -0.4105  1.0116
55503SOL    HW273625   0.953  12.929   0.823 -0.2023  1.0708  0.6967
55504SOL     OW73626   0.418   2.721  11.725 -0.5272  0.0775  0.6647
55504SOL    HW173627   0.400   2.719  11.819  0.6214  0.9771  0.9213
55504SOL    HW273628   0.339   2.759  11.686 -1.0444 -0.3826  1.2397
55505SOL     OW73629  10.632   2.776   0.327  0.8477  0.3009 -0.4886
55505SOL    HW173630  10.705   2.768   0.266  0.0984 -0.6068 -1.3000
55505SOL    HW273631  10.647   2.707   0.391  1.0565  0.5604 -0.2526
55506SOL     OW73632   4.347  10.382   6.241 -0.1241  0.1128 -0.3504
55506SOL    HW173633   4.265  10.339   6.217 -0.6638 -0.6532  2.4633
55506SOL    HW273634   4.319  10.466   6.279  0.3480 -0.2790  0.8887
55507SOL     OW73635   0.590   0.090   5.925 -0.1733  0.1290  0.8792
55507SOL    HW173636   0.595   0.176   5.885  0.5870  0.3098  1.3520
55507SOL    HW273637   0.600   0.106   6.019  1.3237 -0.5926  0.8676
55508SOL     OW73638   4.407   3.556   8.123 -0.6383  0.3114 -0.2837
55508SOL    HW173639   4.343   3.540   8.192 -0.2029  0.8239  0.2522
55508SOL    HW273640   4.433   3.648   8.135  2.0907 -0.5461  1.1389
55509SOL     OW73641  10.093   4.790  12.601 -0.5919  0.5806  0.1938
55509SOL    HW173642  10.042   4.775  12.680 -1.1471  1.3681 -0.0019
55509SOL    HW273643  10.173   4.739  12.615 -1.1906 -0.2570  0.7285
55510SOL     OW73644   6.053   8.584   0.979 -0.6302  0.0405 -0.0373
55510SOL    HW173645   6.022   8.547   0.897  0.6365 -0.0606 -0.4866
55510SOL    HW273646   6.036   8.678   0.971 -0.8655 -0.0183 -0.2448
55511SOL     OW73647   5.379  12.065  12.030  0.1458  0.0385  0.2742
55511SOL    HW173648   5.408  11.975  12.011  1.6467  0.7846 -1.1964
55511SOL    HW273649   5.303  12.078  11.974  0.9229  0.1961 -0.7831
55512SOL     OW73650   2.487   9.281   7.193  0.3831  0.1556  0.4357
55512SOL    HW173651   2.511   9.373   7.196  1.3951 -0.1109  0.8333
55512SOL    HW273652   2.571   9.234   7.192  0.0175 -0.6963 -2.6993
55513SOL     OW73653   1.165  11.123  12.129 -0.4065  0.5949 -0.1036
55513SOL    HW173654   1.186  11.118  12.036  3.2800 -0.9850  0.6565
55513SOL    HW273655   1.096  11.057  12.141 -0.8205  0.7007 -1.6368
55514SOL     OW73656   9.395   2.254   5.038  0.6066  0.4424 -0.4168
55514SOL    HW173657   9.318   2.199   5.020  0.8769 -0.0687 -0.0647
55514SOL    HW273658   9.387   2.276   5.131  1.5399 -0.7046 -0.0268
55515SOL     OW73659   1.668   7.286   0.481 -0.6967  0.2058  0.3014
55515SOL    HW173660   1.589   7.334   0.458 -0.7981  1.0511  2.2503
55515SOL    HW273661   1.721   7.348   0.531  1.5951 -0.0884 -1.5656
55516SOL     OW73662   3.775   8.245   8.034 -0.3763 -0.0435  0.1700
55516SOL    HW173663   3.738   8.165   8.072 -2.5877  1.0561  0.5311
55516SOL    HW273664   3.850   8.215   7.982 -0.4732 -2.1947  1.1569
55517SOL     OW73665   9.298  12.165   3.847  0.3426  0.3464  0.1415
55517SOL    HW173666   9.254  12.206   3.922  1.2881 -0.6754  1.3187
55517SOL    HW273667   9.377  12.216   3.834 -0.3125  1.1299 -0.8369
55518SOL     OW73668   8.129   4.770   1.002  0.6099  0.3508 -0.7620
55518SOL    HW173669   8.187   4.835   0.963 -0.6052  1.1852 -1.2217
55518SOL    HW273670   8.105   4.806   1.087  1.0077 -0.1542 -0.4241
55519SOL     OW73671   8.280  10.898  11.447 -0.4492  1.0158  0.8650
55519SOL    HW173672   8.283  10.847  11.366 -1.8206 -0.1837  1.5389
55519SOL    HW273673   8.370  10.929  11.459  0.2320 -0.5085 -0.0314
55520SOL     OW73674  12.344  11.878   8.410  0.2862  0.6802 -0.1024
55520SOL    HW173675  12.260  11.883   8.456  0.4761  0.2827  0.3087
55520SOL    HW273676  12.410  11.888   8.479  0.6336 -2.4363  0.2019
55521SOL     OW73677   1.325   6.442  12.085 -0.5041  0.0150 -0.3136
55521SOL    HW173678   1.409   6.410  12.051  0.5942  1.2996  1.0057
55521SOL    HW273679   1.350   6.506  12.152 -2.5629 -0.1645  0.6970
55522SOL     OW73680  11.379  11.674   9.356  0.6160 -0.3929  0.6250
55522SOL    HW173681  11.432  11.705   9.430  0.9305  0.6154  0.0025
55522SOL    HW273682  11.337  11.753   9.323  0.0206 -0.9326  0.0883
55523SOL     OW73683  11.532  11.873   4.829  0.4282  0.0454 -0.2676
55523SOL    HW173684  11.594  11.877   4.756  0.1417  2.4041 -0.4813
55523SOL    HW273685  11.585  11.857   4.906  0.8243 -1.7418 -0.8853
55524SOL     OW73686   7.953  10.078   4.294 -0.4926 -0.3149 -0.2671
55524SOL    HW173687   7.966   9.993   4.336 -0.6877  0.3795  1.2716
55524SOL    HW273688   7.861  10.077   4.267 -0.1246 -1.1321 -1.6003
55525SOL     OW73689   2.220   0.436   8.325 -0.5519  0.3123  0.1089
55525SOL    HW173690   2.256   0.448   8.413 -0.5506  3.2609 -0.1998
55525SOL    HW273691   2.130   0.468   8.331 -0.7316  0.0172 -0.8421
55526SOL     OW73692   7.827   3.861   2.156 -0.3345 -0.0202  0.4392
55526SOL    HW173693   7.733   3.871   2.140  0.1052  2.9928 -1.0379
55526SOL    HW273694   7.864   3.847   2.069  0.8023  1.5590  0.6369
55527SOL     OW73695  11.192  11.456   9.827  0.6782 -0.0037  0.4388
55527SOL    HW173696  11.229  11.370   9.804 -0.8618  0.0998 -3.0980
55527SOL    HW273697  11.266  11.516   9.821  1.6198 -0.9130  2.1930
55528SOL     OW73698   7.219   4.945   7.050 -0.7999 -0.4892  0.6758
55528SOL    HW173699   7.285   5.014   7.048 -1.8947  0.5809 -0.7289
55528SOL    HW273700   7.191   4.941   7.142 -0.4291  0.6612  0.8538
55529SOL     OW73701   9.545  12.184  11.761 -0.0300  0.4067  0.6487
55529SOL    HW173702   9.549  12.179  11.666 -2.1713 -1.6237  0.5942
55529SOL    HW273703   9.606  12.117  11.791  2.2703  2.4499  0.8456
55530SOL     OW73704  11.841   2.535  11.988  0.1546 -0.3284  0.0603
55530SOL    HW173705  11.915   2.476  11.970 -1.1039 -1.5772 -1.3632
55530SOL    HW273706  11.827   2.527  12.083  0.7003 -1.5164  0.0676
55531SOL     OW73707  10.150   7.630   4.768  0.0570 -0.2261 -0.2719
55531SOL    HW173708  10.199   7.560   4.724  2.3870 -0.2287  2.0599
55531SOL    HW273709  10.191   7.711   4.737 -0.4570 -0.0552 -0.5165
55532SOL     OW73710   5.730   8.500   4.519  0.1231  0.3597 -0.7177
55532SOL    HW173711   5.702   8.420   4.564 -0.2989  0.5078 -0.7048
55532SOL    HW273712   5.649   8.552   4.512  0.6165  1.3134  0.3403
55533SOL     OW73713  10.774   1.535   7.138 -0.1540  0.4395 -0.0161
55533SOL    HW173714  10.781   1.623   7.101  0.7831  0.3473 -0.0793
55533SOL    HW273715  10.697   1.539   7.194 -0.4504  1.1403 -0.4492
55534SOL     OW73716   1.249   2.823   0.422 -0.0020  0.5555  0.1867
55534SOL    HW173717   1.328   2.875   0.438  0.3908 -0.0089  0.1109
55534SOL    HW273718   1.219   2.797   0.509  0.1691  0.3731  0.1920
55535SOL     OW73719   8.491   1.413  11.106  0.0851  0.3122  0.1931
55535SOL    HW173720   8.566   1.472  11.101 -0.2045  0.6482 -0.3644
55535SOL    HW273721   8.527   1.326  11.092  0.4482  0.4042  0.5249
55536SOL     OW73722   8.855  10.362   9.305  0.3692 -0.1704 -0.3505
55536SOL    HW173723   8.823  10.417   9.233 -0.2409  0.7314  0.5836
55536SOL    HW273724   8.781  10.305   9.326  0.1767  0.2849  0.2382
55537SOL     OW73725  12.025   1.959  11.276  0.0657  0.1685 -0.2816
55537SOL    HW173726  12.018   2.055  11.277 -0.9422  0.1103 -0.5415
55537SOL    HW273727  12.051   1.938  11.186 -0.5007  0.1614 -0.4489
55538SOL     OW73728  11.345   1.980   5.699 -0.6911  0.0205 -0.2234
55538SOL    HW173729  11.313   2.032   5.625  1.3879  0.8391 -0.6237
55538SOL    HW273730  11.386   2.044   5.757  0.0667 -0.9343  0.3267
55539SOL     OW73731   9.134   9.141   4.439  0.3010  0.1829 -0.6733
55539SOL    HW173732   9.106   9.215   4.494  0.9865  0.5911 -0.8505
55539SOL    HW273733   9.147   9.179   4.352 -0.1356 -0.3249 -0.9660
55540SOL     OW73734   2.641   6.314   5.488  0.2572  0.3602  0.7635
55540SOL    HW173735   2.653   6.303   5.393 -1.0917  0.5266  0.5512
55540SOL    HW273736   2.631   6.225   5.521 -0.4774  0.3599  0.5590
55541SOL     OW73737   7.042   9.785   6.584  0.0348 -0.6356 -0.0900
55541SOL    HW173738   7.121   9.754   6.628 -0.0378 -0.4180  0.1941
55541SOL    HW273739   7.061   9.876   6.562  0.1427 -0.7953 -0.6786
55542SOL     OW73740  10.778  10.876   0.155  0.1490  0.4432  0.4160
55542SOL    HW173741  10.744  10.791   0.184  0.2222  0.3308  0.1696
55542SOL    HW273742  10.707  10.913   0.103  0.1438  0.5013  0.4651
55543SOL     OW73743   7.508   1.317   3.608  0.2736 -0.3339  0.0299
55543SOL    HW173744   7.553   1.261   3.672  2.0961 -0.1831 -1.0596
55543SOL    HW273745   7.422   1.276   3.597  0.6286 -1.4507  1.1495
55544SOL     OW73746   4.549   4.156  12.682 -0.5208 -0.3982  0.0131
55544SOL    HW173747   4.567   4.249  12.700 -0.5526 -0.6520  1.4876
55544SOL    HW273748   4.470   4.137  12.732 -0.6026 -1.1997 -0.4024
55545SOL     OW73749   6.415   8.834   1.011  0.1438  0.2025  0.0199
55545SOL    HW173750   6.495   8.833   0.958 -0.0700  1.7111 -0.3599
55545SOL    HW273751   6.389   8.926   1.015 -0.4733 -0.0107  1.8182
55546SOL     OW73752   7.248  12.827  11.553 -0.0379 -0.0304 -0.0674
55546SOL    HW173753   7.309  12.895  11.580 -0.4682  0.9468 -1.4547
55546SOL    HW273754   7.165  12.872  11.541 -0.9093 -1.2293  1.2049
55547SOL     OW73755   5.389   1.236   2.728  0.5599  0.3104  0.1685
55547SOL    HW173756   5.335   1.247   2.807 -0.6483 -0.4913 -0.5117
55547SOL    HW273757   5.326   1.235   2.656  1.6234  0.7773 -0.8033
55548SOL     OW73758   2.781  11.326   6.518  0.4310 -0.3864  0.0266
55548SOL    HW173759   2.792  11.242   6.563 -0.5067 -0.2903  0.4646
55548SOL    HW273760   2.785  11.305   6.425 -2.5279 -1.4155  0.0064
55549SOL     OW73761   4.940  11.987  12.144  0.2498 -0.3525  0.0925
55549SOL    HW173762   5.013  12.019  12.091 -0.0830  1.3962  0.5899
55549SOL    HW273763   4.982  11.943  12.218  0.8456  0.6663  0.3916
55550SOL     OW73764   2.050  12.180   7.446  0.7447  0.1517  0.2694
55550SOL    HW173765   2.011  12.206   7.362 -0.7517  0.8465  1.1494
55550SOL    HW273766   2.144  12.192   7.433  0.4513  1.4336 -0.9200
55551SOL     OW73767   6.217  11.919   3.568  0.5071 -0.4103 -0.3117
55551SOL    HW173768   6.170  11.841   3.595 -0.6130  0.5811  0.7667
55551SOL    HW273769   6.292  11.924   3.628  1.0781 -1.1030 -0.9520
55552SOL     OW73770   0.302   4.612   7.369 -0.3796  0.1899  0.3655
55552SOL    HW173771   0.313   4.619   7.464 -0.3573 -1.8707  0.5641
55552SOL    HW273772   0.307   4.518   7.352 -0.3684  0.5290 -1.6904
55553SOL     OW73773  12.788   6.879   6.154  0.2253 -0.1977 -0.2203
55553SOL    HW173774  12.835   6.804   6.116  1.1170  0.9927 -1.6063
55553SOL    HW273775  12.851   6.951   6.150 -0.9425  0.8801  0.0822
55554SOL     OW73776   2.529   1.213   3.649  0.1170 -0.1152 -0.8987
55554SOL    HW173777   2.528   1.134   3.595 -0.4403 -0.1887 -0.7824
55554SOL    HW273778   2.440   1.221   3.682 -0.3027  1.5005 -2.2784
55555SOL     OW73779   5.970   1.054  12.739  0.3530  0.3627 -0.0763
55555SOL    HW173780   6.007   1.102  12.814  1.4169 -0.0557 -0.3195
55555SOL    HW273781   6.046   1.015  12.696 -0.4019 -0.6935 -0.4740
55556SOL     OW73782   5.753   2.483  10.531  0.2717  0.1824 -0.1012
55556SOL    HW173783   5.816   2.555  10.534  1.1288 -0.4586 -1.4891
55556SOL    HW273784   5.709   2.493  10.447  0.8808 -1.2680 -0.6255
55557SOL     OW73785  11.960   2.093   3.693 -0.4098 -0.6990 -1.0592
55557SOL    HW173786  12.006   2.022   3.737 -0.5472 -1.0827 -1.5193
55557SOL    HW273787  11.870   2.087   3.725 -0.2273 -0.1932 -0.4525
55558SOL     OW73788   0.656   6.974   4.999 -0.2162 -0.2232 -0.0200
55558SOL    HW173789   0.612   7.039   5.054 -0.1248 -0.1185 -0.0709
55558SOL    HW273790   0.742   7.012   4.980 -1.0414  0.7580 -2.0503
55559SOL     OW73791   9.044   8.648   7.392  0.0519 -0.7496 -0.1215
55559SOL    HW173792   8.986   8.722   7.378  0.8373 -0.1239 -0.1549
55559SOL    HW273793   8.991   8.585   7.441  0.4240  1.3482  3.2881
55560SOL     OW73794   5.403  12.253  11.737  0.4099  0.0431 -0.9061
55560SOL    HW173795   5.335  12.287  11.795  1.4088  1.5356 -0.5728
55560SOL    HW273796   5.484  12.294  11.768  1.3232 -0.9661 -1.8884
55561SOL     OW73797   7.313   3.492   7.222 -0.1437 -0.2238  0.1842
55561SOL    HW173798   7.305   3.461   7.312 -2.6138 -1.0591 -0.2365
55561SOL    HW273799   7.319   3.412   7.170  1.2119  0.2504 -0.4118
55562SOL     OW73800   8.819   8.564  11.243 -0.7140  0.0218 -0.0490
55562SOL    HW173801   8.836   8.529  11.331  0.9208  0.4005 -0.1807
55562SOL    HW273802   8.836   8.490  11.184 -0.2454  0.1903 -0.1318
55563SOL     OW73803  11.014  11.297  11.759 -0.6064 -0.5088  0.0423
55563SOL    HW173804  11.016  11.273  11.667  0.8259 -0.0073 -0.0944
55563SOL    HW273805  11.092  11.256  11.796  0.2955  1.4123  0.4239
55564SOL     OW73806  11.665   9.447   6.510  0.0769 -0.5195 -0.3721
55564SOL    HW173807  11.686   9.444   6.417 -1.2986 -1.6141 -0.6772
55564SOL    HW273808  11.580   9.490   6.514  1.1856  1.7252  0.6240
55565SOL     OW73809   9.330   7.052  12.915  0.3860  0.6469 -0.0618
55565SOL    HW173810   9.305   7.028  12.825 -0.0135  0.0414  0.2023
55565SOL    HW273811   9.426   7.051  12.913  0.3831  0.3734 -0.4194
55566SOL     OW73812   5.381  12.579   7.037  0.4689 -0.2589  0.1100
55566SOL    HW173813   5.303  12.553   6.988 -0.1138  1.9719 -0.2282
55566SOL    HW273814   5.454  12.542   6.987 -0.2291  0.0904 -1.2219
55567SOL     OW73815   7.749  12.763   2.360  1.0055  0.2127 -0.0149
55567SOL    HW173816   7.720  12.697   2.423 -0.0488  1.3381  0.7016
55567SOL    HW273817   7.819  12.810   2.404 -1.0889  2.3607  1.2185
55568SOL     OW73818   2.395  10.760  10.417 -0.1908 -0.0710  0.2640
55568SOL    HW173819   2.369  10.676  10.379 -1.7716  0.2331  0.5913
55568SOL    HW273820   2.358  10.758  10.506  0.9237  0.4317  0.7550
55569SOL     OW73821   7.788   1.846   4.906 -0.3411  0.6249  0.7346
55569SOL    HW173822   7.761   1.785   4.837 -0.5733  3.2011 -1.6190
55569SOL    HW273823   7.877   1.819   4.927 -0.3658 -0.4224 -0.3549
55570SOL     OW73824   4.464   4.302   5.951 -0.3765 -0.4059  0.6314
55570SOL    HW173825   4.440   4.283   6.041 -2.9833 -2.2035 -0.3337
55570SOL    HW273826   4.426   4.388   5.933 -0.7997 -0.5355  0.9154
55571SOL     OW73827   9.006   2.767   4.063 -0.1404  0.3170 -0.4346
55571SOL    HW173828   8.918   2.766   4.024 -0.3444 -0.9182 -0.0042
55571SOL    HW273829   8.991   2.792   4.154  0.1406  1.5575 -0.7171
55572SOL     OW73830   8.232  11.252   9.709  0.8954  0.3456  0.0455
55572SOL    HW173831   8.168  11.214   9.770  1.3525  0.9153  0.9003
55572SOL    HW273832   8.180  11.278   9.633  0.7050 -3.2113 -1.2414
55573SOL     OW73833   2.259   2.501   0.413 -0.7510  0.3537  0.1181
55573SOL    HW173834   2.221   2.562   0.476  1.3287  0.8755  0.9404
55573SOL    HW273835   2.340   2.543   0.383  0.3465 -1.6005  0.1228
55574SOL     OW73836   4.172  11.636  12.653 -0.5721  0.2585 -0.5276
55574SOL    HW173837   4.204  11.601  12.569  2.2042 -0.2149  0.6022
55574SOL    HW273838   4.177  11.562  12.713 -3.3393  0.3722 -0.0436
55575SOL     OW73839   4.254   4.762   3.234  0.6843  0.2519  0.4533
55575SOL    HW173840   4.335   4.741   3.280  1.7020  0.0784 -1.3252
55575SOL    HW273841   4.267   4.851   3.202 -0.0603  0.4161  0.5665
55576SOL     OW73842   6.831   9.448   4.903  0.5270  0.1771  0.1733
55576SOL    HW173843   6.897   9.505   4.940  1.7680 -0.8378 -0.4077
55576SOL    HW273844   6.878   9.367   4.882 -0.6142 -0.1029 -1.4662
55577SOL     OW73845   7.254   6.346   6.801 -0.2550 -0.6643 -0.7585
55577SOL    HW173846   7.309   6.306   6.869  1.3430  3.1127  0.4248
55577SOL    HW273847   7.304   6.333   6.720  0.4884 -0.5957 -0.3208
55578SOL     OW73848   5.268  10.148  10.801 -0.0062  0.1788  0.1371
55578SOL    HW173849   5.260  10.058  10.768 -0.0471  0.6148 -1.1145
55578SOL    HW273850   5.192  10.160  10.857 -0.3538 -0.3590 -0.2071
55579SOL     OW73851   5.291   3.765  11.805 -0.0494  0.4489 -0.0481
55579SOL    HW173852   5.332   3.678  11.811 -0.3143  0.3721  0.9151
55579SOL    HW273853   5.197   3.747  11.805 -0.1007  0.7146 -0.3387
55580SOL     OW73854   6.568   8.210   4.457  0.3079 -0.8788 -0.1318
55580SOL    HW173855   6.639   8.146   4.468  0.2501 -1.1100 -1.0875
55580SOL    HW273856   6.511   8.173   4.390  0.2708  0.1674 -0.7023
55581SOL     OW73857   1.766   3.246   4.933 -0.2708  0.6767 -0.4117
55581SOL    HW173858   1.842   3.206   4.892  0.6946  0.9486  1.0475
55581SOL    HW273859   1.798   3.329   4.969 -0.8513  0.1448  1.4803
55582SOL     OW73860  11.258   1.970   1.394 -0.6836  0.3771 -0.0406
55582SOL    HW173861  11.336   2.003   1.439 -0.7485  1.1262 -0.4642
55582SOL    HW273862  11.248   1.880   1.427 -0.4960  0.7601  1.1097
55583SOL     OW73863  12.723   5.948   5.995  0.4299 -0.7285 -0.0312
55583SOL    HW173864  12.765   5.938   5.909  1.2441  0.8474  0.1467
55583SOL    HW273865  12.790   5.921   6.057  0.6536  0.3053  0.1908
55584SOL     OW73866   9.365   2.296   4.716 -0.3441  0.1643 -0.3984
55584SOL    HW173867   9.369   2.352   4.638  0.9685 -1.2495 -1.4074
55584SOL    HW273868   9.325   2.352   4.783  1.1734  2.4381 -1.2412
55585SOL     OW73869   8.038  11.755   5.701 -0.6364  0.4589 -0.1368
55585SOL    HW173870   8.028  11.817   5.629 -0.2309 -0.5624 -1.0954
55585SOL    HW273871   8.131  11.759   5.723 -0.8959  1.3742  0.9224
55586SOL     OW73872   8.659  11.530   6.291 -0.0134 -0.2981  0.1252
55586SOL    HW173873   8.754  11.536   6.298  0.0701  0.7074 -1.4417
55586SOL    HW273874   8.634  11.602   6.234 -1.3481 -2.5644 -2.3959
55587SOL     OW73875   8.212   5.846   5.869  0.2008  0.3251  0.0639
55587SOL    HW173876   8.230   5.767   5.818  2.5138  1.6466 -1.3143
55587SOL    HW273877   8.275   5.843   5.941  0.1872  0.8298  0.0983
55588SOL     OW73878   5.266   6.263   6.572 -0.4048 -0.4059  0.1819
55588SOL    HW173879   5.215   6.342   6.587  1.2137  0.5003  1.1351
55588SOL    HW273880   5.303   6.242   6.657  0.9438 -0.9351 -0.5111
55589SOL     OW73881   6.825   3.771  11.287 -0.0731 -1.2599  0.0489
55589SOL    HW173882   6.866   3.841  11.236  0.4878 -1.7996 -0.2556
55589SOL    HW273883   6.745   3.810  11.322 -0.0136 -0.6139 -0.5236
55590SOL     OW73884   9.578  10.868   3.898 -0.5001  0.3579 -0.2394
55590SOL    HW173885   9.558  10.804   3.831  2.5527 -0.8386 -0.1771
55590SOL    HW273886   9.613  10.817   3.971  1.3645  1.9493  0.0939
55591SOL     OW73887   7.600   2.915   7.886  0.2759  0.0723 -0.4176
55591SOL    HW173888   7.552   2.837   7.857 -0.2970  0.6907 -1.2001
55591SOL    HW273889   7.650   2.886   7.962 -1.7171 -0.5004  0.7599
55592SOL     OW73890   5.435  10.017   5.136  0.1028 -0.1455 -0.4674
55592SOL    HW173891   5.513  10.024   5.080  0.5571  0.1791  0.1999
55592SOL    HW273892   5.371  10.075   5.094  0.6886  0.6782 -0.2492
55593SOL     OW73893   0.858   3.073   4.657 -0.1025  0.2761  0.1806
55593SOL    HW173894   0.897   3.121   4.584  1.5043 -0.5382  0.4490
55593SOL    HW273895   0.832   2.989   4.619  0.0598  0.1350  0.3783
55594SOL     OW73896   0.996   5.228   2.258  0.0186 -0.3031 -0.1528
55594SOL    HW173897   0.961   5.312   2.290 -0.5445  0.7113 -3.0858
55594SOL    HW273898   1.072   5.253   2.205  2.5646 -2.1036  2.3524
55595SOL     OW73899  12.649   7.445   5.526 -0.3622  0.0219 -0.8090
55595SOL    HW173900  12.605   7.370   5.487 -0.1688 -0.4619 -0.1169
55595SOL    HW273901  12.579   7.505   5.550 -0.6851 -0.7824  0.3709
55596SOL     OW73902   3.075   0.666   3.883 -0.2584 -0.1266  0.6610
55596SOL    HW173903   3.062   0.683   3.790  0.5706 -1.2122  0.3288
55596SOL    HW273904   3.108   0.749   3.919 -1.1586  0.4810  0.1334
55597SOL     OW73905   6.223   2.576  12.040 -0.5250  0.3585  0.3604
55597SOL    HW173906   6.296   2.586  11.978 -1.4754  0.2204 -0.8251
55597SOL    HW273907   6.230   2.486  12.071 -1.8758 -0.6763 -2.0460
55598SOL     OW73908   4.957   8.089   5.030 -0.5346 -0.1401 -0.2108
55598SOL    HW173909   5.045   8.056   5.046  0.0551  0.8995 -1.1303
55598SOL    HW273910   4.971   8.174   4.989 -1.9801  0.3997  0.3589
55599SOL     OW73911   1.369   7.183   4.463 -0.0593 -0.1843  0.1590
55599SOL    HW173912   1.286   7.204   4.420 -0.9637  0.2634  2.0006
55599SOL    HW273913   1.375   7.246   4.535 -0.2394 -2.7975  2.6498
55600SOL     OW73914   0.736  10.233   6.378 -0.2304  0.3391  0.2034
55600SOL    HW173915   0.743  10.138   6.374 -0.2424  0.1929  2.3794
55600SOL    HW273916   0.737  10.262   6.287  0.9080 -1.6565 -0.4568
55601SOL     OW73917   3.300   3.243   6.641 -0.1459 -0.1294  0.0960
55601SOL    HW173918   3.256   3.233   6.725 -0.4982  1.9693  0.2082
55601SOL    HW273919   3.327   3.154   6.617 -1.6083 -1.0175  1.5596
55602SOL     OW73920   5.869   7.574   6.399  0.2900  0.1717  0.4258
55602SOL    HW173921   5.894   7.651   6.451  2.2098  0.3623 -0.6956
55602SOL    HW273922   5.823   7.611   6.323 -0.2508  0.0820  0.7072
55603SOL     OW73923   8.469   2.107   0.663 -0.0045 -0.2904  0.6122
55603SOL    HW173924   8.540   2.107   0.599  0.5049 -0.5215  1.1640
55603SOL    HW273925   8.405   2.169   0.628 -1.0783 -2.4136 -1.5415
55604SOL     OW73926  11.370  12.879   6.860  0.4082 -0.0495  0.6080
55604SOL    HW173927  11.334  12.930   6.787 -0.4073 -0.2922  0.8329
55604SOL    HW273928  11.307  12.807   6.872 -0.8472  1.3721  3.1813
55605SOL     OW73929   3.917   5.190  12.552  0.0610 -0.0118 -0.2534
55605SOL    HW173930   3.849   5.181  12.618  1.3881 -1.7177  0.9937
55605SOL    HW273931   3.977   5.255  12.588 -0.4612  0.9065 -0.9859
55606SOL     OW73932   3.401   7.036   6.009 -0.1011  0.5783 -0.0570
55606SOL    HW173933   3.493   7.061   6.011 -0.4707  1.9779  0.4775
55606SOL    HW273934   3.400   6.946   6.041  0.9732  0.8824  0.8801
55607SOL     OW73935   6.434  12.860   7.733  0.0430  0.2568  0.9831
55607SOL    HW173936   6.483  12.888   7.810  1.7840  0.6449 -0.2105
55607SOL    HW273937   6.489  12.793   7.692 -1.1223 -0.3640  0.3758
55608SOL     OW73938   7.914   0.366   9.382  0.2044 -0.5772 -0.3513
55608SOL    HW173939   7.872   0.315   9.313  0.6261  1.1667 -1.9603
55608SOL    HW273940   7.895   0.317   9.462 -1.2507 -2.0724 -1.5354
55609SOL     OW73941  11.413   3.518  12.313  0.1449 -0.4149 -0.4330
55609SOL    HW173942  11.341   3.456  12.327  1.0041 -1.6147 -1.1454
55609SOL    HW273943  11.484   3.485  12.367  0.1210  0.9141  0.4711
55610SOL     OW73944   9.605   6.216   2.672 -0.2091 -0.0150 -1.1410
55610SOL    HW173945   9.511   6.237   2.674 -0.1833  0.0572  0.2921
55610SOL    HW273946   9.639   6.267   2.599 -1.0924  0.8168 -0.9920
55611SOL     OW73947   9.936   5.544   2.004 -0.1311  0.7542  0.0837
55611SOL    HW173948   9.901   5.588   1.926 -0.9202 -0.0583 -0.0411
55611SOL    HW273949   9.952   5.455   1.975 -1.8196  0.0385  1.2076
55612SOL     OW73950   6.958  11.529   2.597  0.4484  0.3379 -0.4760
55612SOL    HW173951   6.892  11.594   2.622  1.2722  0.3758  1.8446
55612SOL    HW273952   7.035  11.581   2.575  0.8314  0.2220  0.5162
55613SOL     OW73953   7.736   3.054   4.952 -0.1370  0.4508 -0.2049
55613SOL    HW173954   7.801   3.014   5.009  0.0417  0.7598 -0.1871
55613SOL    HW273955   7.725   3.143   4.986 -1.9129 -0.1417  0.9001
55614SOL     OW73956  12.133   2.253   9.421  0.2706 -0.5569  0.7725
55614SOL    HW173957  12.131   2.347   9.403  2.0821 -0.6812 -0.2871
55614SOL    HW273958  12.219   2.237   9.460 -0.2246 -1.7039  1.4606
55615SOL     OW73959   3.403   1.786   1.742  0.3004  0.2898  0.0302
55615SOL    HW173960   3.330   1.842   1.771 -0.9468 -0.3928 -1.6680
55615SOL    HW273961   3.377   1.698   1.767  0.1211 -0.0662 -1.3683
55616SOL     OW73962   6.248   0.143   6.214  0.0341 -0.2464  0.5850
55616SOL    HW173963   6.325   0.178   6.260 -0.4993  0.0525  1.2685
55616SOL    HW273964   6.191   0.111   6.284 -0.6408 -0.1098  0.1045
55617SOL     OW73965  10.113   8.608   7.668 -0.0993 -0.2105 -0.1938
55617SOL    HW173966  10.024   8.631   7.640 -0.6734  0.0685  1.6881
55617SOL    HW273967  10.112   8.512   7.673 -0.2137 -0.2212 -0.4071
55618SOL     OW73968   2.849  10.527   5.506 -0.3781 -0.3593  0.2057
55618SOL    HW173969   2.844  10.436   5.475 -1.2991 -0.7260  1.3291
55618SOL    HW273970   2.762  10.544   5.544 -0.9377  1.7118 -1.8068
55619SOL     OW73971   3.035  10.949   0.560 -0.0882 -0.7673  0.9341
55619SOL    HW173972   3.056  10.893   0.635  0.4794  1.1520  2.2782
55619SOL    HW273973   2.942  10.972   0.572 -0.7246 -2.4320 -0.3689
55620SOL     OW73974   9.901   8.618   3.663 -0.0672  0.0548  0.4120
55620SOL    HW173975   9.952   8.613   3.582 -1.2495  3.2575 -0.7083
55620SOL    HW273976   9.818   8.576   3.641  0.2396 -0.6355  0.5554
55621SOL     OW73977   0.618   7.340   9.594  0.2704 -0.4559  0.4849
55621SOL    HW173978   0.548   7.370   9.651 -1.0113 -0.8175 -0.8140
55621SOL    HW273979   0.689   7.402   9.607 -1.1575  1.3129  0.1596
55622SOL     OW73980  12.432   5.751  11.100  0.1183 -0.5519  0.3680
55622SOL    HW173981  12.463   5.832  11.139 -0.8473  0.0710 -0.1285
55622SOL    HW273982  12.507   5.718  11.050 -0.1940  1.3736 -1.5300
55623SOL     OW73983   3.179   1.694   7.441 -0.4165 -0.5515  0.0250
55623SOL    HW173984   3.140   1.755   7.379  0.4754 -1.3090 -1.3428
55623SOL    HW273985   3.200   1.748   7.518 -0.8092  0.5838 -0.6384
55624SOL     OW73986   0.557   2.619   5.119  0.1339 -0.0672  0.1099
55624SOL    HW173987   0.573   2.702   5.164  2.6433 -0.6648  0.4651
55624SOL    HW273988   0.526   2.644   5.032  1.4911  1.2850 -0.0113
55625SOL     OW73989   4.811   0.720   0.442  0.5134 -0.5893  0.4321
55625SOL    HW173990   4.773   0.786   0.500  0.2787 -0.9308  0.6656
55625SOL    HW273991   4.884   0.684   0.491 -1.2410 -2.7607  1.6589
55626SOL     OW73992   9.448   3.668   6.877 -0.0589  0.4389  0.0854
55626SOL    HW173993   9.382   3.723   6.834 -0.1776 -0.4793 -0.9408
55626SOL    HW273994   9.410   3.580   6.876  1.9720 -0.5376 -2.4204
55627SOL     OW73995  10.237   4.511   7.200 -0.0976  0.3889 -0.4777
55627SOL    HW173996  10.304   4.460   7.155  0.4869  0.9352 -0.2445
55627SOL    HW273997  10.207   4.455   7.271 -1.2981 -0.6383 -1.7318
55628SOL     OW73998   5.003   7.887  12.391  0.1285  0.3441  0.0610
55628SOL    HW173999   5.052   7.839  12.458  0.6375  1.8075  0.7867
55628SOL    HW274000   5.036   7.854  12.308  0.0696 -0.9260  0.5259
55629SOL     OW74001   9.017   3.357   3.243  0.0563 -0.3434 -0.2244
55629SOL    HW174002   9.110   3.368   3.266  0.7273 -0.8031 -2.4150
55629SOL    HW274003   8.972   3.423   3.295  1.8762  1.1724 -0.4234
55630SOL     OW74004  12.169  12.612   3.960  0.7220 -0.0574 -0.1455
55630SOL    HW174005  12.141  12.537   3.907 -0.3228  0.3080 -0.1428
55630SOL    HW274006  12.104  12.680   3.941  0.1032 -0.0271  1.8604
55631SOL     OW74007  10.213   0.367   5.736 -0.4507  0.4264  0.1616
55631SOL    HW174008  10.126   0.378   5.774 -0.6172 -0.3997  0.0416
55631SOL    HW274009  10.197   0.340   5.646 -0.0565  1.3956 -0.2165
55632SOL     OW74010   6.932   3.159  10.346  0.0883  0.4970  0.0672
55632SOL    HW174011   7.003   3.219  10.323 -1.5813  1.7292 -2.3364
55632SOL    HW274012   6.975   3.073  10.350  2.1121  1.4818  1.2056
55633SOL     OW74013   7.883  10.755   3.410  0.1782 -0.0267  0.3383
55633SOL    HW174014   7.880  10.757   3.506  4.6328 -1.1136  0.7192
55633SOL    HW274015   7.965  10.799   3.388  0.4742 -1.8512 -2.7833
55634SOL     OW74016  12.293   7.696   2.718 -0.5361  0.0265 -0.2495
55634SOL    HW174017  12.306   7.733   2.805  0.2897 -0.1937 -0.2630
55634SOL    HW274018  12.329   7.607   2.724 -1.0178 -0.1978 -0.6512
55635SOL     OW74019   5.008  12.208  10.562 -0.1924  0.0101 -0.0985
55635SOL    HW174020   4.967  12.271  10.620  0.1625 -1.0234  1.3376
55635SOL    HW274021   5.052  12.261  10.495  0.0124  1.2673  1.0001
55636SOL     OW74022   5.760   3.583   9.183 -0.3930 -0.1679 -0.2280
55636SOL    HW174023   5.703   3.523   9.134  0.1194 -1.2937  0.4984
55636SOL    HW274024   5.849   3.559   9.157 -0.1985  0.6925 -0.3799
55637SOL     OW74025  11.939   3.575   9.479  0.0921  0.0881  0.2583
55637SOL    HW174026  12.023   3.606   9.446 -0.1897  0.5643 -0.0173
55637SOL    HW274027  11.879   3.584   9.404 -0.0367 -0.9406  0.2258
55638SOL     OW74028   3.192   1.291   1.594 -0.0659  0.4343 -0.1411
55638SOL    HW174029   3.208   1.198   1.577  0.6687  0.3637  0.8288
55638SOL    HW274030   3.212   1.334   1.511 -1.7813 -0.3828 -1.0497
55639SOL     OW74031   3.021   2.172   9.735 -0.2470  0.8500  0.0070
55639SOL    HW174032   3.047   2.137   9.650 -0.4397 -0.2105  0.3713
55639SOL    HW274033   3.027   2.267   9.724  0.7788  0.7145 -0.8545
55640SOL     OW74034   8.667   2.435   5.451 -0.0268 -0.7698  0.0976
55640SOL    HW174035   8.629   2.434   5.538 -0.8625  1.3422 -0.2035
55640SOL    HW274036   8.751   2.390   5.461 -0.4593 -1.2570  1.8003
55641SOL     OW74037   7.870   9.845  10.965  0.0089 -0.2360  0.0751
55641SOL    HW174038   7.939   9.909  10.984 -2.0968  2.2783 -0.1484
55641SOL    HW274039   7.829   9.828  11.050 -0.7438  0.3872 -0.1447
55642SOL     OW74040   0.655   9.033   5.619  0.2744 -0.5203  0.4340
55642SOL    HW174041   0.569   8.992   5.626 -0.2979  0.4279 -0.7503
55642SOL    HW274042   0.666   9.081   5.701 -0.3066 -0.6730  0.6039
55643SOL     OW74043   9.175   5.377  11.727  0.1107  0.7282 -0.1453
55643SOL    HW174044   9.151   5.437  11.656  0.5087  1.0193 -0.0394
55643SOL    HW274045   9.250   5.419  11.769  0.4137  0.1396 -0.0868
55644SOL     OW74046  12.832   2.042   9.779  0.6353  0.5868 -0.7166
55644SOL    HW174047  12.769   1.975   9.754  1.0587  0.5851 -1.8374
55644SOL    HW274048  12.917   2.003   9.760  0.9828  0.7290  0.4374
55645SOL     OW74049   3.531   7.654  10.965 -0.5383  0.2389 -0.0992
55645SOL    HW174050   3.512   7.588  10.897  0.3803 -0.7727  0.5977
55645SOL    HW274051   3.582   7.721  10.920 -2.6947  1.2849 -1.1752
55646SOL     OW74052   3.135   7.596  10.363 -0.1841 -0.0234  0.5279
55646SOL    HW174053   3.134   7.627  10.272  1.2194 -1.1901  0.0721
55646SOL    HW274054   3.081   7.517  10.361  1.2540 -1.0277  0.2962
55647SOL     OW74055   8.693   2.890   4.234  0.2937 -0.0210  0.3996
55647SOL    HW174056   8.732   2.961   4.183  1.1111 -0.2177  0.7305
55647SOL    HW274057   8.600   2.911   4.237  0.5630  1.2152  0.7826
55648SOL     OW74058  11.705  11.100  12.917  0.6698  0.5674 -0.5292
55648SOL    HW174059  11.708  11.015  12.873 -1.4738  1.0539 -1.7700
55648SOL    HW274060  11.795  11.130  12.916  1.9760 -2.6196  2.0385
55649SOL     OW74061   1.571   7.488   1.496 -0.1083 -0.1403 -0.3870
55649SOL    HW174062   1.666   7.499   1.490 -0.4032  2.6313 -1.3828
55649SOL    HW274063   1.556   7.457   1.586  1.6194  1.7950  0.6594
55650SOL     OW74064   5.503   7.684   1.276  0.1521  0.5048  0.6801
55650SOL    HW174065   5.532   7.610   1.222 -0.8692  1.3016 -1.0408
55650SOL    HW274066   5.408   7.677   1.276 -0.0294  2.3575 -0.3742
55651SOL     OW74067   4.824   2.100   2.539  0.0279  0.5368 -0.8788
55651SOL    HW174068   4.800   2.059   2.456 -0.1280  0.7601 -0.9443
55651SOL    HW274069   4.749   2.154   2.562  0.1188  0.5669 -0.6514
55652SOL     OW74070   1.466   3.171   8.836 -0.5814  0.2039 -0.3236
55652SOL    HW174071   1.447   3.081   8.860  1.2846  0.1687  1.1916
55652SOL    HW274072   1.553   3.169   8.798 -0.5778  1.3589 -0.4281
55653SOL     OW74073   1.726  11.866   4.486  0.7312 -0.0109 -0.2223
55653SOL    HW174074   1.793  11.837   4.425 -0.5653 -1.5180 -0.9784
55653SOL    HW274075   1.675  11.788   4.506 -2.3397  1.4698 -1.6289
55654SOL     OW74076   1.913   9.187   1.379 -0.3470 -0.2538  0.6219
55654SOL    HW174077   1.915   9.123   1.450  0.0110  0.3969  1.2115
55654SOL    HW274078   2.003   9.192   1.348 -0.6682 -1.2565 -0.5621
55655SOL     OW74079   4.418   6.246   7.749  0.2877 -0.3063 -0.2330
55655SOL    HW174080   4.456   6.186   7.685 -0.6759 -0.8994 -0.2828
55655SOL    HW274081   4.460   6.222   7.832  0.1459 -0.8532 -0.3108
55656SOL     OW74082   7.693  10.628   7.446 -0.2134 -0.2364 -0.1353
55656SOL    HW174083   7.608  10.618   7.489 -0.0843  0.0892  0.2032
55656SOL    HW274084   7.729  10.540   7.442 -0.3621 -0.3097  0.1501
55657SOL     OW74085  12.715   7.057  11.001 -0.2590  0.3143  0.0516
55657SOL    HW174086  12.664   7.133  10.972 -0.8719 -0.1927 -0.2090
55657SOL    HW274087  12.695   6.988  10.938  0.6630  0.0620  0.0123
55658SOL     OW74088   5.250   4.359   8.493 -0.1782 -0.2621 -0.0372
55658SOL    HW174089   5.209   4.408   8.564 -0.2641  0.9906 -0.9166
55658SOL    HW274090   5.344   4.361   8.514  0.0362  1.8302 -0.9104
55659SOL     OW74091  10.121   1.690  10.012  0.4191  0.0235 -0.1468
55659SOL    HW174092  10.032   1.664  10.035  0.7650 -1.5598 -0.4795
55659SOL    HW274093  10.136   1.650   9.926  0.5615  2.4432 -1.3376
55660SOL     OW74094  10.919   5.499   8.494  0.5139  0.2517  0.0124
55660SOL    HW174095  10.824   5.513   8.491  0.4470 -0.2824 -0.4756
55660SOL    HW274096  10.953   5.576   8.540 -0.2519 -0.0482  1.1249
55661SOL     OW74097   5.201   3.421   2.343  0.1548 -0.2316 -0.7391
55661SOL    HW174098   5.156   3.455   2.420  2.0382  1.7416 -0.4254
55661SOL    HW274099   5.288   3.398   2.374  0.8278  0.2506 -2.1854
55662SOL     OW74100   6.082   7.209   5.383  0.9179  0.1918  0.8146
55662SOL    HW174101   6.093   7.285   5.325 -1.4029 -0.0532 -0.0372
55662SOL    HW274102   5.988   7.192   5.383  1.0477 -0.9324  3.2853
55663SOL     OW74103   1.648   3.338   9.280  0.3498 -0.4631  0.3563
55663SOL    HW174104   1.625   3.256   9.323  0.9493 -1.2654 -0.8039
55663SOL    HW274105   1.578   3.352   9.216  0.7299 -0.5624 -0.0862
55664SOL     OW74106  11.346  11.292  12.205  0.6575 -0.6014 -0.3568
55664SOL    HW174107  11.281  11.302  12.135  0.0783 -2.4160 -0.1264
55664SOL    HW274108  11.386  11.207  12.187  2.2123  0.0013  0.1508
55665SOL     OW74109   4.388   1.783   9.206 -0.0642 -0.0632  0.2762
55665SOL    HW174110   4.398   1.689   9.221 -1.1855 -0.2087  0.2171
55665SOL    HW274111   4.303   1.805   9.246  0.1429  0.9048  0.2123
55666SOL     OW74112   7.247  11.701   8.494  0.1457  0.0457  0.1318
55666SOL    HW174113   7.306  11.776   8.482  0.6533 -0.3053  0.3976
55666SOL    HW274114   7.266  11.669   8.582 -1.7474  1.0458  0.9571
55667SOL     OW74115  10.926   0.568   9.434  0.2435  0.2019 -0.0227
55667SOL    HW174116  11.008   0.531   9.465 -0.5589 -0.4340  1.4377
55667SOL    HW274117  10.888   0.610   9.511 -0.9540  0.2093 -0.5965
55668SOL     OW74118   4.562   7.509   2.728 -0.5472  0.1548  0.0067
55668SOL    HW174119   4.529   7.432   2.681  2.1362 -0.0518 -1.7559
55668SOL    HW274120   4.566   7.482   2.819 -0.0152 -1.6871 -0.5291
55669SOL     OW74121  11.997   8.334  11.701 -0.3723 -0.4372  0.3283
55669SOL    HW174122  11.976   8.286  11.780 -1.1744 -0.3908  0.1582
55669SOL    HW274123  11.929   8.308  11.638  1.7486 -2.5279 -1.2400
55670SOL     OW74124  11.201   2.403   2.560 -0.2205 -0.3541  0.5140
55670SOL    HW174125  11.243   2.446   2.486  0.8608 -2.0615  0.0956
55670SOL    HW274126  11.117   2.372   2.526 -1.1627  1.6065  0.9070
55671SOL     OW74127   4.419   1.819   2.750  0.1016  0.0804 -0.2932
55671SOL    HW174128   4.495   1.807   2.692  0.5749 -1.8650  0.6339
55671SOL    HW274129   4.452   1.875   2.820  1.0073 -1.4372  0.5549
55672SOL     OW74130   1.213   0.311   7.277  0.3848 -0.1704 -0.4683
55672SOL    HW174131   1.193   0.404   7.292 -0.6678 -0.4064 -0.3365
55672SOL    HW274132   1.222   0.275   7.366 -0.1028 -0.3740 -0.4987
55673SOL     OW74133   2.214   7.099   0.588  0.7928  0.1704  0.0095
55673SOL    HW174134   2.174   7.047   0.658  1.7389  0.9556  1.1640
55673SOL    HW274135   2.277   7.040   0.547 -0.6694 -0.7074 -1.0689
55674SOL     OW74136  10.375   5.276  11.227  0.3535  0.2988  0.1168
55674SOL    HW174137  10.417   5.246  11.308  1.6203  0.1842 -0.5654
55674SOL    HW274138  10.324   5.353  11.254  1.6746  0.9591  0.8375
55675SOL     OW74139   0.934  11.367  10.175  0.5514  0.4766  0.2053
55675SOL    HW174140   0.891  11.391  10.093  1.2626  0.5942 -0.1464
55675SOL    HW274141   1.027  11.380  10.157  0.9283 -1.8451  0.2411
55676SOL     OW74142   1.352   2.137   0.980  0.2989 -0.0909 -0.1225
55676SOL    HW174143   1.322   2.155   0.891  1.8863 -1.7263 -1.0508
55676SOL    HW274144   1.279   2.089   1.020  0.8055 -2.3468 -1.7079
55677SOL     OW74145   6.200   8.117   5.537 -0.5838 -0.2586 -0.4662
55677SOL    HW174146   6.240   8.044   5.584 -3.4344 -2.1875 -0.7640
55677SOL    HW274147   6.260   8.135   5.465  1.2325 -0.8324  0.8236
55678SOL     OW74148   8.271   8.535  11.992  0.0368 -0.3425  0.1311
55678SOL    HW174149   8.197   8.475  11.997 -0.3320  0.1543  0.6571
55678SOL    HW274150   8.328   8.508  12.064 -0.7076  0.7052  1.1246
55679SOL     OW74151  12.955   9.985   1.442 -0.3164  0.0875  0.2665
55679SOL    HW174152  12.965   9.898   1.404 -2.4900 -0.2200  0.2585
55679SOL    HW274153  12.936   9.969   1.535  1.9366  0.7079  0.8970
55680SOL     OW74154   5.727   0.586  10.491  0.1339  0.3504  0.0583
55680SOL    HW174155   5.750   0.518  10.554  1.1793 -0.0366 -0.7182
55680SOL    HW274156   5.734   0.668  10.541 -1.4583 -0.0957  1.0849
55681SOL     OW74157   6.930   9.966   4.608 -0.2159 -0.1167  0.6205
55681SOL    HW174158   6.984   9.902   4.654 -0.7403 -0.4811  0.7387
55681SOL    HW274159   6.914  10.035   4.673  1.0457  0.5697  0.2444
55682SOL     OW74160   0.727   5.301   2.131  0.1741  0.2696  0.7067
55682SOL    HW174161   0.785   5.313   2.056 -0.0626  2.5510  0.8085
55682SOL    HW274162   0.758   5.365   2.195 -1.9587  1.0660  1.0293
55683SOL     OW74163   0.342   1.471  10.944 -0.3516  0.4553  0.3729
55683SOL    HW174164   0.353   1.378  10.964 -0.6539  0.0769 -1.0445
55683SOL    HW274165   0.329   1.513  11.028  0.2367 -0.7317  1.0766
55684SOL     OW74166   8.689   6.620   7.566 -0.3326 -0.1426 -0.2781
55684SOL    HW174167   8.630   6.547   7.583  1.4034 -1.0656  2.4077
55684SOL    HW274168   8.777   6.583   7.575  0.6395  1.7523 -1.3951
55685SOL     OW74169   0.471   1.798   2.710  0.5900  0.3925  0.2356
55685SOL    HW174170   0.505   1.874   2.663  0.9140  0.3448  0.3911
55685SOL    HW274171   0.377   1.815   2.720  0.0732 -0.4836 -2.1882
55686SOL     OW74172   3.257  10.996   3.399 -0.1431  0.7902 -0.0349
55686SOL    HW174173   3.299  10.943   3.467 -0.5845 -1.0112 -1.0849
55686SOL    HW274174   3.330  11.034   3.349  0.2152 -0.0094 -0.1298
55687SOL     OW74175   5.542   3.597   0.715  0.2005  0.0699 -0.8461
55687SOL    HW174176   5.515   3.688   0.724 -0.2784  0.1850 -2.8618
55687SOL    HW274177   5.637   3.599   0.731  0.2360  0.9677 -1.0839
55688SOL     OW74178  12.496  12.664  10.119 -0.0729 -1.3221  0.3184
55688SOL    HW174179  12.498  12.589  10.060  0.8506 -1.1999  0.1815
55688SOL    HW274180  12.576  12.713  10.099 -1.3301  0.4856 -0.5961
55689SOL     OW74181  11.358   4.861   0.449  0.2061 -0.4704 -0.0253
55689SOL    HW174182  11.318   4.929   0.395  1.3315 -0.6689 -1.1565
55689SOL    HW274183  11.286   4.825   0.501 -0.9913 -0.5160 -1.6544
55690SOL     OW74184   3.380   9.062   6.561  0.0220 -0.1515 -0.1356
55690SOL    HW174185   3.419   8.994   6.617  0.5586 -1.0994 -1.5892
55690SOL    HW274186   3.295   9.026   6.535  0.5574 -0.5844 -1.3911
55691SOL     OW74187   0.357   9.530   0.032  0.1950  0.1984 -0.1469
55691SOL    HW174188   0.443   9.544   0.071 -0.1202  0.9401  0.3191
55691SOL    HW274189   0.301   9.595   0.075 -0.5778 -0.2188 -0.5003
55692SOL     OW74190   9.174   8.584  12.777  0.3195  0.3867 -0.6725
55692SOL    HW174191   9.259   8.547  12.801 -0.0267  0.4971  0.7681
55692SOL    HW274192   9.189   8.678  12.773 -0.2867  0.6910  2.2236
55693SOL     OW74193   6.432   5.310   7.091 -0.0550 -0.1053 -0.0371
55693SOL    HW174194   6.444   5.326   6.998 -1.4224  2.8330  0.1798
55693SOL    HW274195   6.478   5.227   7.107  1.6143  0.1097 -2.9531
55694SOL     OW74196  10.345   0.059   2.535  0.2852  0.7610 -0.0798
55694SOL    HW174197  10.354   0.099   2.622  2.1503  0.6136 -0.1648
55694SOL    HW274198  10.251   0.044   2.525  0.0234  0.8928  1.8561
55695SOL     OW74199   5.666   2.392   0.671 -0.2256  0.0837  0.3212
55695SOL    HW174200   5.671   2.408   0.765 -0.5932  2.4483 -0.0008
55695SOL    HW274201   5.757   2.394   0.641 -0.2178  1.7374  0.3394
55696SOL     OW74202   6.434   8.133   8.491 -0.0953 -1.0778  0.3028
55696SOL    HW174203   6.441   8.129   8.395  0.1358 -2.1108  0.3438
55696SOL    HW274204   6.349   8.175   8.506  0.0021 -0.6236 -0.3498
55697SOL     OW74205   0.044   2.904  10.825  0.0484 -0.1977 -0.1176
55697SOL    HW174206  -0.009   2.839  10.871 -1.5485  0.6070 -0.7638
55697SOL    HW274207   0.079   2.856  10.749 -1.1028 -0.3132 -0.5832
55698SOL     OW74208   8.176   8.273   5.367  0.4698 -0.0725 -0.3820
55698SOL    HW174209   8.170   8.366   5.345  0.2546 -0.4523 -2.0833
55698SOL    HW274210   8.269   8.259   5.385  0.4607  0.5207  0.1562
55699SOL     OW74211  12.341   8.298  11.885 -0.4426 -0.4208 -0.4408
55699SOL    HW174212  12.258   8.330  11.920 -1.1442 -1.5280 -1.0278
55699SOL    HW274213  12.345   8.207  11.913  1.2195 -0.0396  0.6858
55700SOL     OW74214   9.179   2.134   2.463  0.2528  0.2583  0.2997
55700SOL    HW174215   9.270   2.156   2.482  0.4786  1.0131 -1.4378
55700SOL    HW274216   9.130   2.169   2.537  1.2368  1.1053  0.5787
55701SOL     OW74217   6.599   4.538   0.407  0.2859 -0.6765  0.3118
55701SOL    HW174218   6.542   4.464   0.428 -0.5455 -0.1952 -0.1860
55701SOL    HW274219   6.609   4.534   0.312  0.5621 -0.3762  0.3249
55702SOL     OW74220   4.477   1.519   0.965  0.5277  0.5039  0.1855
55702SOL    HW174221   4.392   1.564   0.962 -0.6581 -1.5005  0.9734
55702SOL    HW274222   4.494   1.495   0.874  0.6786  1.6385 -0.0966
55703SOL     OW74223   8.439   8.961  12.231  0.3229 -0.1756 -0.4849
55703SOL    HW174224   8.449   9.034  12.293 -2.1201  0.3315 -0.5961
55703SOL    HW274225   8.503   8.897  12.260  0.3734  0.7097  1.5964
55704SOL     OW74226   9.079   3.923  11.894 -0.1234  0.8542  0.0998
55704SOL    HW174227   9.148   3.857  11.891  0.0214  1.0258 -0.4994
55704SOL    HW274228   9.071   3.954  11.803 -0.5426  1.2928  0.2808
55705SOL     OW74229   8.285   2.171  12.218  0.4893  0.1402  0.0964
55705SOL    HW174230   8.251   2.124  12.295 -1.8823 -0.3397 -1.1615
55705SOL    HW274231   8.324   2.103  12.164 -0.2710  0.0576 -0.3550
55706SOL     OW74232   1.340   4.163  10.732  0.6565  0.1600  0.2295
55706SOL    HW174233   1.254   4.121  10.736 -0.0080  1.3196 -1.0848
55706SOL    HW274234   1.332   4.239  10.789 -0.0535  1.6399 -1.7137
55707SOL     OW74235   2.749   7.681   1.277 -0.0838  0.1597 -0.1374
55707SOL    HW174236   2.707   7.605   1.236 -1.8155  2.7459 -3.7572
55707SOL    HW274237   2.832   7.691   1.231 -0.6359  1.3278 -0.9447
55708SOL     OW74238  12.744   7.770   6.836  0.1972 -0.3197 -0.8917
55708SOL    HW174239  12.744   7.865   6.839  0.8522 -0.3181 -0.8222
55708SOL    HW274240  12.772   7.749   6.747 -0.4191 -0.4458 -1.0573
55709SOL     OW74241  10.942   0.326   8.466 -0.1713 -0.5913 -0.1223
55709SOL    HW174242  11.016   0.273   8.494 -0.5731 -0.8205  0.5302
55709SOL    HW274243  10.923   0.383   8.541 -0.6631 -0.5523 -0.2727
55710SOL     OW74244  11.921   5.888   2.469 -0.1156 -0.2816  0.3066
55710SOL    HW174245  11.979   5.843   2.530 -0.4607 -2.2920 -0.7560
55710SOL    HW274246  11.869   5.948   2.524  2.3864  1.0530  1.3683
55711SOL     OW74247   4.719   8.336   4.947  0.0432  0.4408 -0.0738
55711SOL    HW174248   4.653   8.293   5.001 -0.8779  0.7726 -0.9150
55711SOL    HW274249   4.761   8.399   5.007  0.4954 -0.6423  0.8024
55712SOL     OW74250   4.911   1.792   4.285 -0.5467  0.2146 -0.2206
55712SOL    HW174251   4.868   1.875   4.304  1.6709  1.2231  0.7615
55712SOL    HW274252   4.927   1.754   4.372 -1.9486 -1.5280 -0.6632
55713SOL     OW74253  10.491   3.341   6.689  0.0919 -0.1314 -0.2698
55713SOL    HW174254  10.399   3.345   6.664  0.3678 -0.8715 -1.4745
55713SOL    HW274255  10.534   3.404   6.631  0.4920 -0.6103 -0.5035
55714SOL     OW74256   7.348   9.066   0.995 -0.0675 -0.1581 -0.8923
55714SOL    HW174257   7.310   9.135   1.050  0.0183 -0.6570 -0.1935
55714SOL    HW274258   7.431   9.046   1.036 -0.7690 -1.7519 -0.1756
55715SOL     OW74259   9.730   3.517   6.426 -0.3113  0.1672  0.3940
55715SOL    HW174260   9.792   3.573   6.380  0.8595 -1.5911 -0.3072
55715SOL    HW274261   9.710   3.563   6.507  0.4707  1.6225 -0.2040
55716SOL     OW74262   9.950  10.026  10.904 -0.0732 -0.2191  0.3809
55716SOL    HW174263   9.938   9.942  10.860  0.0010 -1.0565  1.8694
55716SOL    HW274264  10.027  10.013  10.960  0.0162  0.8824  0.5348
55717SOL     OW74265  12.958   0.133   4.681  0.1181  0.4804 -0.1427
55717SOL    HW174266  12.896   0.126   4.754 -0.7606  0.3126 -0.8801
55717SOL    HW274267  12.912   0.188   4.617  0.2764 -0.5612 -1.1626
55718SOL     OW74268   1.811   1.283   5.618  0.8439  0.3661  0.4922
55718SOL    HW174269   1.830   1.356   5.560  0.0524 -0.3266 -0.6827
55718SOL    HW274270   1.721   1.297   5.647  0.0768 -0.9431 -1.0622
55719SOL     OW74271   3.718   4.100   7.790  0.2764 -0.2761 -0.6087
55719SOL    HW174272   3.798   4.133   7.830  0.4962 -0.5313 -0.8353
55719SOL    HW274273   3.739   4.093   7.697 -0.4029  0.8291 -0.8617
55720SOL     OW74274   0.473   0.350   7.092 -0.0749 -0.4934 -0.1307
55720SOL    HW174275   0.495   0.437   7.123  1.0279 -0.9419  0.3844
55720SOL    HW274276   0.510   0.290   7.157  0.3804 -1.3844 -1.1644
55721SOL     OW74277   0.098   0.744   1.076 -0.2365 -0.4026  0.2557
55721SOL    HW174278   0.016   0.704   1.050  0.4010 -0.5261 -1.6860
55721SOL    HW274279   0.076   0.835   1.094 -0.5900 -0.1160 -1.5318
55722SOL     OW74280   3.347   6.734  10.598 -0.4802  0.2358 -0.1932
55722SOL    HW174281   3.272   6.685  10.564  0.1542  0.0336 -1.3648
55722SOL    HW274282   3.405   6.743  10.523  0.4321  0.8517  0.5666
55723SOL     OW74283   5.150   2.885   0.145 -0.8842  0.1463  0.4424
55723SOL    HW174284   5.206   2.838   0.208  1.9131  0.3649 -1.6749
55723SOL    HW274285   5.098   2.816   0.104  2.2296 -1.1644 -1.6986
55724SOL     OW74286   9.830   8.711  11.233 -0.9705  0.4176  0.2848
55724SOL    HW174287   9.757   8.672  11.185 -0.4352  0.2041 -0.3725
55724SOL    HW274288   9.881   8.637  11.264 -0.3700  0.5642 -0.3146
55725SOL     OW74289   0.255  12.872   6.473 -1.0476 -0.4772  0.2954
55725SOL    HW174290   0.208  12.907   6.397 -1.2352 -1.0898  0.1215
55725SOL    HW274291   0.338  12.920   6.475 -0.8988 -0.6899 -0.5001
55726SOL     OW74292   2.656   1.769   9.430  0.0801 -0.3469 -1.0960
55726SOL    HW174293   2.721   1.699   9.436  0.7116  0.2118 -1.1889
55726SOL    HW274294   2.638   1.792   9.521 -2.8645 -3.0240 -0.8478
55727SOL     OW74295   4.539   3.858  10.060  0.1608 -0.0399  0.3521
55727SOL    HW174296   4.493   3.942  10.066  1.0995  0.5790 -0.6380
55727SOL    HW274297   4.506   3.807  10.133  0.7026  1.7552  1.9357
55728SOL     OW74298  10.243   1.395   3.814 -0.0177 -0.3694 -0.2034
55728SOL    HW174299  10.187   1.416   3.889  0.2008  2.2027 -0.6678
55728SOL    HW274300  10.182   1.361   3.748 -1.0916  2.0842 -0.5884
55729SOL     OW74301   0.993   4.939   7.269 -0.0823 -0.2651  0.0269
55729SOL    HW174302   0.903   4.932   7.238 -0.3756 -2.6808  1.2437
55729SOL    HW274303   1.045   4.945   7.189 -1.2341  0.2491 -0.7150
55730SOL     OW74304   2.005  12.271   1.171 -0.0091 -0.7165  0.1949
55730SOL    HW174305   1.958  12.317   1.102 -1.4635 -1.7697  0.4298
55730SOL    HW274306   2.013  12.181   1.140  1.1530 -0.7453  0.5248
55731SOL     OW74307   5.191   9.868   1.291 -0.7754  0.0299  0.4700
55731SOL    HW174308   5.102   9.836   1.274 -0.5722 -0.4097  0.2276
55731SOL    HW274309   5.198   9.948   1.238 -1.8767  1.4951  2.3818
55732SOL     OW74310   3.377  10.696   8.478  0.0811  0.0890 -0.3476
55732SOL    HW174311   3.294  10.697   8.430 -0.9329 -0.4594  1.3545
55732SOL    HW274312   3.376  10.615   8.528  2.4334 -0.7923 -1.5351
55733SOL     OW74313   3.373   4.186   1.186  0.5955 -0.0147 -0.6999
55733SOL    HW174314   3.458   4.194   1.142  1.4316 -1.0238  0.6353
55733SOL    HW274315   3.317   4.142   1.123  1.4887 -0.5903 -1.1186
55734SOL     OW74316   4.341   4.825  11.335  0.0318 -0.0443  0.3300
55734SOL    HW174317   4.376   4.752  11.284  2.3863  0.3984  1.1652
55734SOL    HW274318   4.332   4.789  11.424  3.3253  1.0996  1.2838
55735SOL     OW74319   4.955   6.336   1.093  0.1801 -0.0203 -0.4843
55735SOL    HW174320   5.001   6.350   1.010  1.2656 -0.6061 -0.0084
55735SOL    HW274321   4.947   6.241   1.100 -1.8273  0.0712 -0.9061
55736SOL     OW74322   5.717  10.427   9.639  0.0747 -0.3488  0.2762
55736SOL    HW174323   5.677  10.408   9.554  0.1777  0.0608  0.1328
55736SOL    HW274324   5.745  10.342   9.672  0.5422 -0.4546 -0.3614
55737SOL     OW74325   8.180   7.521  11.044 -0.0953 -0.0494  0.4839
55737SOL    HW174326   8.256   7.575  11.021 -1.5651  0.6376 -3.7996
55737SOL    HW274327   8.195   7.438  11.000 -1.5616 -0.0291 -0.1360
55738SOL     OW74328   2.503   3.864  12.110  0.3961 -0.3003 -0.4283
55738SOL    HW174329   2.563   3.795  12.084 -1.7666 -3.0765  1.3162
55738SOL    HW274330   2.425   3.850  12.056 -0.8261 -0.5776  1.3057
55739SOL     OW74331   7.070  12.412   9.256  0.2046  0.3367 -0.0216
55739SOL    HW174332   7.063  12.481   9.191 -1.2029  1.9234  1.6829
55739SOL    HW274333   7.062  12.457   9.340 -1.4960 -1.9423  1.1664
55740SOL     OW74334   4.104   0.115   2.716  0.2117  0.4268  0.2145
55740SOL    HW174335   4.019   0.113   2.759 -0.8171 -1.7907 -1.6960
55740SOL    HW274336   4.093   0.178   2.644  0.0044 -0.1921 -0.3060
55741SOL     OW74337   7.886   5.993   0.897  0.0605  0.5434 -0.7609
55741SOL    HW174338   7.978   5.999   0.869  0.2321  0.5993 -0.2057
55741SOL    HW274339   7.886   5.920   0.959  0.7179  3.3453  2.9028
55742SOL     OW74340   6.853   7.987   5.710 -0.1476  0.6106 -0.2785
55742SOL    HW174341   6.791   7.992   5.637  0.3602 -1.0325 -0.8662
55742SOL    HW274342   6.806   8.025   5.784 -1.7549 -0.3079 -0.7728
55743SOL     OW74343   0.832   3.093   6.495 -0.1071  0.6044  0.2316
55743SOL    HW174344   0.916   3.138   6.480  0.9175 -1.0823  0.5805
55743SOL    HW274345   0.782   3.153   6.550  2.1677  0.3899  2.7473
55744SOL     OW74346   4.999   4.141  10.533 -0.2156 -0.6448  0.0531
55744SOL    HW174347   4.909   4.169  10.517 -0.3855 -1.4269 -0.4125
55744SOL    HW274348   4.992   4.077  10.605 -0.0162 -0.6288  0.0876
55745SOL     OW74349  10.355   7.541   7.709  0.2147  0.3975  0.3169
55745SOL    HW174350  10.444   7.509   7.694 -0.1218 -0.4671  0.0490
55745SOL    HW274351  10.359   7.586   7.793  1.6322  3.2718 -1.1604
55746SOL     OW74352   6.378   2.183   6.150  0.4306  0.1653  0.4016
55746SOL    HW174353   6.471   2.205   6.150  0.2837  0.8437  1.4013
55746SOL    HW274354   6.333   2.267   6.139 -0.0762 -0.0817  0.5438
55747SOL     OW74355  11.220   2.184   7.903 -0.0678 -0.1166 -1.1348
55747SOL    HW174356  11.155   2.251   7.882 -0.1122 -0.4597 -2.1755
55747SOL    HW274357  11.168   2.110   7.935 -0.0778  0.0687 -0.7163
55748SOL     OW74358   7.645  12.879   6.954 -0.1910  0.1316  0.4033
55748SOL    HW174359   7.719  12.908   6.900  0.1794  1.1391  1.4212
55748SOL    HW274360   7.587  12.834   6.892  1.1882 -0.5665 -0.4436
55749SOL     OW74361  12.023  11.789   9.033  1.0175  0.1596  0.1165
55749SOL    HW174362  11.984  11.877   9.030  0.0047 -0.1949  1.6451
55749SOL    HW274363  11.993  11.747   8.953  0.1325  0.6875  0.1551
55750SOL     OW74364   6.059   0.649  10.865  0.0754 -0.6076  0.3922
55750SOL    HW174365   6.098   0.579  10.917  2.2477  0.9466  1.0305
55750SOL    HW274366   5.965   0.640  10.878  0.3477 -2.8545  1.1113
55751SOL     OW74367   0.256  10.284   2.196 -0.4293  0.1174  0.2769
55751SOL    HW174368   0.262  10.375   2.166 -1.1384  0.5043  1.2376
55751SOL    HW274369   0.341  10.266   2.236  0.8388 -0.6823 -2.5779
55752SOL     OW74370  11.278   9.536   1.838  0.3603  0.0388  0.4738
55752SOL    HW174371  11.311   9.561   1.752 -0.2547 -1.2488 -0.1595
55752SOL    HW274372  11.355   9.537   1.894  1.1972 -1.3057 -0.6036
55753SOL     OW74373   1.160   5.338   5.612 -0.6408 -0.3045 -0.2652
55753SOL    HW174374   1.195   5.339   5.701 -0.5774 -1.1939 -0.2726
55753SOL    HW274375   1.102   5.415   5.609  0.1468  0.3330  0.2021
55754SOL     OW74376  11.193   0.234   2.676 -0.6108 -0.3926 -0.3844
55754SOL    HW174377  11.151   0.315   2.703 -0.2381 -0.9938  2.3075
55754SOL    HW274378  11.264   0.261   2.618 -0.4138  1.2296  0.5671
55755SOL     OW74379   0.517   6.753  12.797 -0.4212 -0.0708  0.4683
55755SOL    HW174380   0.432   6.720  12.825 -0.1796 -2.1284 -1.0023
55755SOL    HW274381   0.534   6.709  12.713  1.8046  0.7699  0.3998
55756SOL     OW74382   1.593   6.940   9.776  0.0368 -0.1466 -0.0363
55756SOL    HW174383   1.567   6.854   9.741  1.2686 -1.1759  1.4614
55756SOL    HW274384   1.684   6.950   9.751  0.5058 -0.2352  1.5153
55757SOL     OW74385   0.836   8.359   0.316 -0.1627  0.4651 -0.2942
55757SOL    HW174386   0.756   8.406   0.340 -0.0085  0.2032  0.7897
55757SOL    HW274387   0.834   8.355   0.220 -1.8957 -0.2873 -0.2701
55758SOL     OW74388   1.609   5.890   2.397  0.5695  1.0146  0.3491
55758SOL    HW174389   1.599   5.797   2.416  0.6872  1.0265  0.4701
55758SOL    HW274390   1.632   5.893   2.305  0.4282  0.9315  0.3107
55759SOL     OW74391   8.665   4.700   4.250 -0.3903 -0.1078  0.3334
55759SOL    HW174392   8.675   4.744   4.335 -1.5353  1.3332 -0.2395
55759SOL    HW274393   8.686   4.767   4.185 -1.1314 -0.7098 -0.5564
55760SOL     OW74394   6.974   5.822   6.334  0.0323 -0.5760 -0.2313
55760SOL    HW174395   6.965   5.902   6.282  0.2194 -1.4952 -1.7559
55760SOL    HW274396   7.067   5.799   6.327  0.2130 -0.3171  1.1628
55761SOL     OW74397   2.604  11.148   1.757  0.0870  0.3753  0.6126
55761SOL    HW174398   2.592  11.082   1.690  0.8517  0.1799  0.6634
55761SOL    HW274399   2.517  11.185   1.771 -0.2833 -0.4101  0.3726
55762SOL     OW74400   5.824   3.299   0.802  0.2396  0.1902  0.1177
55762SOL    HW174401   5.836   3.321   0.895  1.1688 -1.9193  0.5620
55762SOL    HW274402   5.913   3.283   0.770 -0.2125 -1.1410 -0.5566
55763SOL     OW74403   2.807   3.082   7.375 -0.5633 -0.2000 -0.3992
55763SOL    HW174404   2.878   3.097   7.312 -0.4861 -3.1067 -1.1497
55763SOL    HW274405   2.797   3.165   7.420  1.6786  1.0126 -1.9485
55764SOL     OW74406   3.191  12.933   0.796 -0.2732  0.0424  0.1325
55764SOL    HW174407   3.240  12.886   0.729  0.6914 -0.8609  1.4189
55764SOL    HW274408   3.122  12.979   0.748 -0.0392 -1.1177 -1.3841
55765SOL     OW74409   2.263   6.484   2.546 -0.0635  0.2892  0.3918
55765SOL    HW174410   2.186   6.431   2.525  0.7494 -0.7686  0.0295
55765SOL    HW274411   2.317   6.428   2.600  2.3910 -0.5971 -2.6814
55766SOL     OW74412   0.298  10.527  12.507 -0.3637  0.4084  0.0074
55766SOL    HW174413   0.313  10.622  12.508  0.7151  0.2742  2.1303
55766SOL    HW274414   0.330  10.499  12.422 -0.7682  1.9450 -0.6881
55767SOL     OW74415  10.791   6.458   8.315  0.6613  0.0981 -0.5470
55767SOL    HW174416  10.814   6.501   8.233  0.1658  0.7960 -0.3250
55767SOL    HW274417  10.854   6.490   8.378  1.3274 -0.7859 -0.7365
55768SOL     OW74418   9.986  11.871  11.044  0.1494 -0.1300  0.1551
55768SOL    HW174419  10.002  11.778  11.024  0.5039  0.0033 -0.1958
55768SOL    HW274420  10.023  11.918  10.970 -2.9504  0.1722 -1.3567
55769SOL     OW74421  11.951   3.717   6.385 -0.0970 -0.9643  0.3619
55769SOL    HW174422  11.873   3.687   6.432 -1.8732 -0.0857 -1.8014
55769SOL    HW274423  11.964   3.807   6.416 -0.0792 -1.0264  0.5392
55770SOL     OW74424   2.524   3.461   6.781 -0.0065  0.0879  0.0504
55770SOL    HW174425   2.596   3.478   6.720  0.1917  0.5979  0.4153
55770SOL    HW274426   2.462   3.408   6.732 -0.2526  1.1955 -0.8860
55771SOL     OW74427   1.811   7.664   8.157  0.7473 -0.0487 -0.1137
55771SOL    HW174428   1.814   7.741   8.214  1.6889 -1.2893  1.6073
55771SOL    HW274429   1.901   7.655   8.125  1.0466 -1.3687  1.0425
55772SOL     OW74430   2.635   9.984   2.111 -0.0207 -0.2161  0.3139
55772SOL    HW174431   2.605   9.950   2.195 -0.4369  0.0123  0.2629
55772SOL    HW274432   2.730   9.982   2.116  0.0143  2.1304  1.7680
55773SOL     OW74433   7.190  11.368   0.097 -0.1924  0.0431 -0.3293
55773SOL    HW174434   7.225  11.285   0.130  2.0901  0.9897 -0.2022
55773SOL    HW274435   7.201  11.429   0.170  2.5865  1.5452 -1.8428
55774SOL     OW74436  12.422   3.444  10.535 -0.2622  0.1065  0.4303
55774SOL    HW174437  12.328   3.429  10.528 -0.6724  1.8540  1.4407
55774SOL    HW274438  12.453   3.449  10.444 -1.4419  1.0323  0.0559
55775SOL     OW74439   6.054   0.884  11.964  0.3687  0.1366  0.5114
55775SOL    HW174440   6.096   0.895  12.049 -0.6983  0.2062  1.0436
55775SOL    HW274441   6.025   0.793  11.963  0.6950  0.0331  0.0684
55776SOL     OW74442  11.158   4.712   4.328 -0.1201  1.1717  0.2059
55776SOL    HW174443  11.089   4.737   4.390 -0.8250 -0.1060 -0.0250
55776SOL    HW274444  11.112   4.660   4.261  1.0994  0.0958  0.1657
55777SOL     OW74445   2.405   6.133   6.355  0.4612  0.4921  0.4510
55777SOL    HW174446   2.483   6.172   6.316  0.2226  0.6176  0.0861
55777SOL    HW274447   2.427   6.041   6.370  0.3455  0.2888 -0.5751
55778SOL     OW74448   9.213  12.551   5.104  0.2043 -0.2128 -0.5474
55778SOL    HW174449   9.309  12.562   5.101  0.5749 -2.0454  1.6004
55778SOL    HW274450   9.191  12.571   5.195 -1.7951  2.0319 -1.4369
55779SOL     OW74451  12.222  11.867   6.497  0.3504  0.4571  0.0885
55779SOL    HW174452  12.157  11.807   6.533 -1.2937  1.9554 -0.2364
55779SOL    HW274453  12.306  11.831   6.525 -0.6303 -1.2667  0.9687
55780SOL     OW74454   8.152   4.362   9.424 -0.9818  0.5078  0.6577
55780SOL    HW174455   8.064   4.333   9.399 -1.5730 -0.2235  3.2632
55780SOL    HW274456   8.204   4.282   9.423 -1.0519  0.4322  1.7379
55781SOL     OW74457   7.279   5.838  12.530  0.5883  0.1972  0.2228
55781SOL    HW174458   7.296   5.830  12.624  0.0169 -0.5089  0.2729
55781SOL    HW274459   7.184   5.844  12.523  0.5625 -0.6823 -0.3698
55782SOL     OW74460   2.510   0.227   9.712  0.4369  0.0011 -0.0128
55782SOL    HW174461   2.427   0.225   9.664  0.1446  0.4993  0.4741
55782SOL    HW274462   2.543   0.316   9.700  0.4683  0.0655  0.5363
55783SOL     OW74463   5.085   3.107   9.474  0.4190 -0.4923  0.3415
55783SOL    HW174464   5.034   3.127   9.552  0.1763  0.8373 -0.1303
55783SOL    HW274465   5.115   3.017   9.487 -1.3776 -1.0403  0.9830
55784SOL     OW74466  12.129  10.249   4.173  0.0930  0.2121 -0.5513
55784SOL    HW174467  12.178  10.239   4.092  3.3994 -0.8464  1.4061
55784SOL    HW274468  12.093  10.162   4.190  2.5941 -0.6152  0.9022
55785SOL     OW74469   4.707   9.794   9.637 -0.3639 -0.0258 -0.2095
55785SOL    HW174470   4.634   9.778   9.577  0.0437  0.0611 -0.7397
55785SOL    HW274471   4.770   9.844   9.585  1.0272 -1.9494 -0.4823
55786SOL     OW74472   4.724   6.059  12.783  0.5510 -0.1373 -0.1544
55786SOL    HW174473   4.689   6.055  12.872 -0.1280 -1.1647 -0.4524
55786SOL    HW274474   4.818   6.049  12.793  0.2594 -4.8935  0.2557
55787SOL     OW74475  10.691  12.244   8.283  0.2347 -0.0777  0.0639
55787SOL    HW174476  10.666  12.304   8.353  0.7125  0.8608 -0.5404
55787SOL    HW274477  10.609  12.200   8.259 -0.5025  1.5201 -0.5508
55788SOL     OW74478   8.052   4.098   5.980 -0.6675 -0.5231  0.3233
55788SOL    HW174479   7.978   4.102   6.039 -1.0204 -1.0489 -0.0719
55788SOL    HW274480   8.023   4.042   5.908 -0.5052  0.6616 -0.7095
55789SOL     OW74481   1.042   7.340   0.922 -0.0624 -0.5781  0.3683
55789SOL    HW174482   1.009   7.402   0.987 -1.6073 -1.0922  0.1057
55789SOL    HW274483   1.025   7.254   0.960 -0.1964 -0.8684 -0.3367
55790SOL     OW74484  10.472   4.819   4.757  0.0309  1.0983 -0.6754
55790SOL    HW174485  10.546   4.765   4.732  0.4607  0.7663  1.1430
55790SOL    HW274486  10.511   4.903   4.782  0.3903 -0.0396  3.4613
55791SOL     OW74487   9.262   6.213   3.151  0.2328 -0.2489  0.0814
55791SOL    HW174488   9.191   6.236   3.091  1.0549  0.2614 -0.7272
55791SOL    HW274489   9.225   6.226   3.238 -0.3991  0.8435 -0.3296
55792SOL     OW74490  12.293   6.433   0.822  0.3510 -0.2687 -0.3872
55792SOL    HW174491  12.236   6.387   0.761 -2.3345  0.7555  1.1856
55792SOL    HW274492  12.307   6.372   0.894  0.3855 -0.1599 -0.3006
55793SOL     OW74493   8.804   3.214   2.060 -0.2105  0.6593  0.8212
55793SOL    HW174494   8.898   3.203   2.069 -0.3260 -0.0271  1.2237
55793SOL    HW274495   8.767   3.127   2.078 -0.9473  1.0193  1.0892
55794SOL     OW74496  11.233   5.232   8.721  0.2416 -0.0157  0.0282
55794SOL    HW174497  11.306   5.262   8.775  0.2266  0.6094 -0.3001
55794SOL    HW274498  11.162   5.294   8.739 -0.4347 -0.9760  0.8337
55795SOL     OW74499   9.261   2.997   6.618 -0.1827 -0.0232 -0.2006
55795SOL    HW174500   9.173   2.991   6.655 -0.7298  2.1343 -0.9846
55795SOL    HW274501   9.319   2.999   6.694 -1.0235  0.9852  0.4444
55796SOL     OW74502  11.246   5.551   3.559  0.1567  0.2464 -0.3841
55796SOL    HW174503  11.177   5.588   3.504 -0.2751 -1.6686 -1.2027
55796SOL    HW274504  11.328   5.576   3.515 -0.0386  1.3631 -0.1517
55797SOL     OW74505   7.135  10.008   2.528  0.3237 -1.2231 -0.4511
55797SOL    HW174506   7.177  10.020   2.442  1.6060  0.7207  0.3664
55797SOL    HW274507   7.182   9.935   2.567  1.6745 -0.3321 -0.3405
55798SOL     OW74508   7.261   4.441   6.967  0.1447  0.1498  0.2422
55798SOL    HW174509   7.202   4.475   7.035 -0.6067  1.9979 -1.2383
55798SOL    HW274510   7.273   4.514   6.907  2.2104 -0.8844 -0.7011
55799SOL     OW74511   5.681  11.266   8.976 -0.3131  0.0181 -0.4918
55799SOL    HW174512   5.764  11.291   8.935  0.2963  1.0889  1.2710
55799SOL    HW274513   5.627  11.345   8.973  0.1094  0.4536  1.5055
55800SOL     OW74514   1.926   9.593   2.579 -0.2022  0.2292  0.6084
55800SOL    HW174515   1.833   9.614   2.565 -0.0799  0.9420  0.8208
55800SOL    HW274516   1.926   9.499   2.597 -0.9399  0.3061  1.0740
55801SOL     OW74517   6.280   7.869   0.092  0.6380 -0.1193 -0.1038
55801SOL    HW174518   6.236   7.947   0.127 -0.9018 -1.2464  0.5775
55801SOL    HW274519   6.223   7.839   0.021  0.3336 -1.5446  0.7107
55802SOL     OW74520   3.742  11.953  11.639 -0.1937  0.2567  0.7931
55802SOL    HW174521   3.656  11.994  11.630 -0.0615  0.2551 -0.9538
55802SOL    HW274522   3.734  11.871  11.591  0.6358  0.0162  1.0524
55803SOL     OW74523  10.634   0.249   1.513 -0.1478  0.2401 -0.1493
55803SOL    HW174524  10.545   0.241   1.477 -0.0031 -1.8130 -0.1643
55803SOL    HW274525  10.691   0.242   1.437  0.0483  1.4700 -0.1278
55804SOL     OW74526   4.841   8.342  10.293 -0.8059 -0.1843 -0.3156
55804SOL    HW174527   4.865   8.432  10.269 -0.5638  1.0193  3.7225
55804SOL    HW274528   4.759   8.351  10.341  1.0539 -1.3831  3.5123
55805SOL     OW74529   6.146   9.929   6.663 -0.0419  0.4890  0.3073
55805SOL    HW174530   6.064   9.977   6.679 -0.8077 -0.3561 -0.9053
55805SOL    HW274531   6.168   9.891   6.748 -1.5964 -0.2971  0.3958
55806SOL     OW74532  11.273   3.645   0.678 -0.0987  0.0427  0.0611
55806SOL    HW174533  11.284   3.595   0.597 -2.4330 -0.7831  0.1772
55806SOL    HW274534  11.267   3.580   0.747 -2.5205  0.4190  0.2955
55807SOL     OW74535  10.446   4.919   7.867  0.3740  0.3836  0.1979
55807SOL    HW174536  10.425   4.894   7.957 -1.6318 -0.3506 -0.4375
55807SOL    HW274537  10.440   5.014   7.867  1.6397  0.4930  1.1054
55808SOL     OW74538  12.508  11.377   9.228 -0.0315 -0.1286  0.1161
55808SOL    HW174539  12.497  11.318   9.154  0.3453  0.0613 -0.0926
55808SOL    HW274540  12.603  11.381   9.242 -0.0908 -0.0529  0.5182
55809SOL     OW74541   8.909   7.983   3.418 -0.0301 -0.2626 -0.4342
55809SOL    HW174542   8.832   7.982   3.361 -1.7451 -1.2255  1.7405
55809SOL    HW274543   8.909   8.070   3.456  1.3413  0.5130 -2.1098
55810SOL     OW74544   0.949   4.191   8.881  0.0719  0.1026  0.5354
55810SOL    HW174545   1.002   4.261   8.843  0.4012 -0.4968 -0.1484
55810SOL    HW274546   0.915   4.227   8.963 -0.8491  1.5138 -0.4397
55811SOL     OW74547   8.252   0.784   8.863 -0.3462 -0.3975  0.2047
55811SOL    HW174548   8.277   0.855   8.921 -0.1494 -0.0125 -0.3382
55811SOL    HW274549   8.290   0.705   8.902 -1.2588 -0.3353  1.2513
55812SOL     OW74550  10.362   7.107   8.795  0.1370  0.3163 -0.3334
55812SOL    HW174551  10.284   7.068   8.755 -0.7582 -0.6296  2.1388
55812SOL    HW274552  10.416   7.032   8.820  1.7090  0.9518 -1.6349
55813SOL     OW74553   5.613   6.892   0.042  0.1392 -0.1306  0.4997
55813SOL    HW174554   5.538   6.860  -0.008  0.3747  0.1843 -0.0691
55813SOL    HW274555   5.605   6.987   0.040  0.1623 -0.1102  1.0551
55814SOL     OW74556  11.077  11.898   7.800  0.3014  0.7054  0.1514
55814SOL    HW174557  11.025  11.900   7.881  1.0157  0.7296  0.6166
55814SOL    HW274558  11.036  11.830   7.747  1.0750 -0.7901  1.3891
55815SOL     OW74559   2.241  10.124  11.688 -0.2882  0.1646  0.5081
55815SOL    HW174560   2.315  10.063  11.692  0.7624  1.4017  0.6096
55815SOL    HW274561   2.246  10.172  11.770 -2.3686 -0.9807  1.3789
55816SOL     OW74562   4.855  11.477  12.951  0.6191  0.4822  0.3402
55816SOL    HW174563   4.789  11.545  12.963  0.1270 -0.1457  1.2785
55816SOL    HW274564   4.819  11.400  12.995  0.7143 -0.6968 -1.5220
55817SOL     OW74565  10.291   8.373   0.228 -0.4143 -0.0949 -0.2813
55817SOL    HW174566  10.253   8.458   0.250  3.9968  1.7207  1.3791
55817SOL    HW274567  10.335   8.387   0.144 -1.7243 -1.6185 -1.2990
55818SOL     OW74568  11.126  11.778  11.802  0.8069 -0.0048  0.1904
55818SOL    HW174569  11.066  11.705  11.787 -1.3104  1.8529 -0.7575
55818SOL    HW274570  11.212  11.736  11.813  0.3248 -2.4576 -3.7287
55819SOL     OW74571   3.284   8.425   4.740  0.6844  0.1424  0.3263
55819SOL    HW174572   3.293   8.504   4.687  0.3498 -0.7963 -1.1881
55819SOL    HW274573   3.306   8.353   4.680 -0.7956 -1.0362  1.1250
55820SOL     OW74574   4.007   4.321   3.368 -0.6623  0.3674 -0.4313
55820SOL    HW174575   4.050   4.366   3.441 -0.2770  1.7807 -1.4859
55820SOL    HW274576   3.924   4.368   3.357 -1.1614 -0.4539 -0.3114
55821SOL     OW74577   4.412  11.083   0.217  0.4970  0.4355  0.5444
55821SOL    HW174578   4.498  11.073   0.256  1.4369 -0.6270 -1.6471
55821SOL    HW274579   4.429  11.105   0.125 -1.4903 -1.5741 -0.4086
55822SOL     OW74580   3.115   8.473   1.128  0.0217 -0.1287  0.6488
55822SOL    HW174581   3.153   8.512   1.207 -0.1979  0.6224  0.3989
55822SOL    HW274582   3.190   8.450   1.074  0.1657  1.7274 -0.0244
55823SOL     OW74583   8.225   7.954   8.840 -0.1131 -0.5019 -0.5565
55823SOL    HW174584   8.278   7.878   8.864 -0.2246 -0.0689  1.2532
55823SOL    HW274585   8.136   7.919   8.832 -0.4590 -0.3626  1.9127
55824SOL     OW74586   9.002  12.059   4.577  0.2089 -0.2375  0.4626
55824SOL    HW174587   9.015  11.981   4.630  1.7571  0.0412  0.5545
55824SOL    HW274588   9.091  12.090   4.559 -0.3576  1.0368 -0.2591
55825SOL     OW74589   3.671   7.028  10.547  0.6565  0.5701  0.4826
55825SOL    HW174590   3.687   7.122  10.557 -0.6977  0.6942  1.6652
55825SOL    HW274591   3.590   7.023  10.496 -0.1165  0.0854  1.7262
55826SOL     OW74592   1.573   1.836  10.093  0.1037 -0.1911  0.3595
55826SOL    HW174593   1.577   1.873  10.181  0.4839 -1.2261  0.7969
55826SOL    HW274594   1.491   1.786  10.093  1.2422 -2.1800  0.9838
55827SOL     OW74595   3.091   5.646   8.780 -0.0573  0.3747  0.3774
55827SOL    HW174596   3.161   5.696   8.822  0.7964  0.0254 -0.5731
55827SOL    HW274597   3.125   5.557   8.774 -0.3126  0.3234 -0.6526
55828SOL     OW74598   8.681  12.710   8.536 -0.1740 -0.0848 -0.6361
55828SOL    HW174599   8.646  12.799   8.523  1.1596  0.7284  1.0151
55828SOL    HW274600   8.613  12.665   8.586 -0.6734  0.1330 -1.1066
55829SOL     OW74601   5.529   6.489   4.881  0.0525 -0.5606 -0.1515
55829SOL    HW174602   5.615   6.447   4.884  0.8340  1.0389  0.8572
55829SOL    HW274603   5.468   6.416   4.870  1.4792 -1.7844 -0.3232
55830SOL     OW74604   4.105   0.128   6.559 -0.3474 -0.1650  0.1619
55830SOL    HW174605   4.034   0.188   6.537 -0.9095 -0.6724  0.5925
55830SOL    HW274606   4.124   0.082   6.477  1.7447  2.2493 -0.8829
55831SOL     OW74607   2.643   0.254  12.742  0.2008 -0.1667  0.0779
55831SOL    HW174608   2.670   0.344  12.760  1.2889 -0.9629  2.9091
55831SOL    HW274609   2.722   0.211  12.709  0.1623 -0.5050  0.4166
55832SOL     OW74610   5.913   0.713   4.369 -0.1348 -0.8397  0.1159
55832SOL    HW174611   5.828   0.670   4.353 -0.0521 -0.7943 -0.4770
55832SOL    HW274612   5.941   0.743   4.282  1.5764 -2.8875 -0.1229
55833SOL     OW74613  10.765   4.255   6.209 -0.1568  0.2289  0.5195
55833SOL    HW174614  10.847   4.205   6.213  0.9130  1.6214 -1.7061
55833SOL    HW274615  10.762   4.288   6.119 -1.5536  2.8466  1.4182
55834SOL     OW74616   2.422   9.326   6.109 -0.9077 -0.3412 -0.1206
55834SOL    HW174617   2.497   9.276   6.078 -0.5086  0.5130 -0.5766
55834SOL    HW274618   2.456   9.379   6.180 -0.8715  0.6243 -0.8307
55835SOL     OW74619   9.843   6.302  10.819  0.5032  0.4683 -0.7133
55835SOL    HW174620   9.823   6.212  10.796  2.9584 -0.4497  0.3725
55835SOL    HW274621   9.809   6.313  10.908  2.1191 -0.1786  0.0303
55836SOL     OW74622   3.594   3.589   7.551 -0.0485  0.3701  0.0880
55836SOL    HW174623   3.622   3.675   7.582  0.8104  0.2536 -0.3505
55836SOL    HW274624   3.648   3.527   7.600  0.6005  0.1478 -0.8841
55837SOL     OW74625   0.899   6.683   1.205  0.0478 -0.4598  0.1792
55837SOL    HW174626   0.891   6.599   1.159  0.7446 -1.3614  1.6012
55837SOL    HW274627   0.854   6.669   1.288  2.1863 -0.2728  1.4578
55838SOL     OW74628   6.399  11.209  10.009 -0.1354  0.5353  0.2581
55838SOL    HW174629   6.486  11.187   9.975 -0.2924  0.3503 -0.0303
55838SOL    HW274630   6.343  11.139   9.976 -0.4034  0.6837  0.4026
55839SOL     OW74631   6.476   2.786   1.749 -0.1703 -0.1977  0.7445
55839SOL    HW174632   6.526   2.805   1.828 -0.3831 -0.5003  0.9545
55839SOL    HW274633   6.460   2.871   1.709 -0.4005 -0.0055  1.2348
55840SOL     OW74634   0.653   3.736   5.895  0.0124 -0.1417  0.7209
55840SOL    HW174635   0.669   3.827   5.920 -0.4170 -0.2431  1.4048
55840SOL    HW274636   0.687   3.685   5.969  0.6042 -0.5592  0.1712
55841SOL     OW74637   1.280   2.402  10.456 -0.3438 -0.5590 -0.3113
55841SOL    HW174638   1.266   2.491  10.425 -0.5045 -0.7251 -0.7190
55841SOL    HW274639   1.259   2.405  10.550  0.9964  0.1524 -0.0059
55842SOL     OW74640   8.582   0.209   5.011 -0.2851  0.5953 -0.5185
55842SOL    HW174641   8.577   0.122   5.052  1.9904  0.4549 -0.4181
55842SOL    HW274642   8.493   0.225   4.978 -1.7186 -0.1637  2.6232
55843SOL     OW74643  10.497  10.417  12.734  0.3368 -0.0201 -0.4843
55843SOL    HW174644  10.553  10.384  12.804  1.5311 -0.1119 -1.4653
55843SOL    HW274645  10.476  10.507  12.761  1.6666  0.3176 -0.4988
55844SOL     OW74646  10.240   9.846   4.409  0.9010  0.1008 -0.0891
55844SOL    HW174647  10.275   9.868   4.495  0.8658  0.6297 -0.2065
55844SOL    HW274648  10.303   9.785   4.372  1.1784  0.2707  0.1035
55845SOL     OW74649   1.854  11.788   5.330  0.0368 -0.1628 -0.2832
55845SOL    HW174650   1.790  11.762   5.396  0.5554 -0.7328  0.0164
55845SOL    HW274651   1.807  11.847   5.271 -0.9637 -1.1464 -0.4940
55846SOL     OW74652  12.781   3.699  11.934  0.3889 -0.1036  0.0514
55846SOL    HW174653  12.866   3.683  11.976  1.1154 -0.3710 -1.4626
55846SOL    HW274654  12.802   3.719  11.843 -1.0963  1.1934 -0.0550
55847SOL     OW74655   9.765   0.121   7.508 -0.2463 -0.0495  1.1877
55847SOL    HW174656   9.851   0.100   7.472  0.3651  1.3842  1.7144
55847SOL    HW274657   9.780   0.198   7.563 -1.4328 -1.1684  3.2210
55848SOL     OW74658   2.395   2.297   9.801 -0.1590  0.4543  0.1603
55848SOL    HW174659   2.466   2.318   9.862 -1.0068 -0.8797  1.7148
55848SOL    HW274660   2.409   2.204   9.780 -1.4071  0.1764  0.4806
55849SOL     OW74661  10.261   3.014   4.830 -0.5489 -0.0653 -0.2640
55849SOL    HW174662  10.179   3.055   4.858  0.7482  1.2551  1.9214
55849SOL    HW274663  10.296   3.074   4.764 -0.0299  0.9466  0.8728
55850SOL     OW74664   8.601   1.297   2.385 -0.1061  0.5919  0.6393
55850SOL    HW174665   8.562   1.321   2.301 -0.2811 -0.8412  0.2937
55850SOL    HW274666   8.632   1.207   2.372  2.4908  1.3481  1.1977
55851SOL     OW74667   3.027   4.842   0.511 -0.2689 -0.4485 -0.7206
55851SOL    HW174668   3.120   4.821   0.524 -0.5774 -1.1280  0.6390
55851SOL    HW274669   2.986   4.817   0.594 -1.3184  1.9916 -0.4343
55852SOL     OW74670   3.287   2.311  10.675  0.3345  0.4605  0.1857
55852SOL    HW174671   3.283   2.302  10.770 -0.4510  0.4860  0.1585
55852SOL    HW274672   3.304   2.222  10.643 -0.0259  0.3395  0.3207
55853SOL     OW74673   6.387  12.266  12.691 -0.5732  0.5369  0.1442
55853SOL    HW174674   6.368  12.216  12.612 -1.1217  1.0736 -0.0749
55853SOL    HW274675   6.482  12.275  12.692 -0.2234 -2.3360  1.3337
55854SOL     OW74676   3.550   0.743   5.793 -0.4636 -0.1855 -0.3499
55854SOL    HW174677   3.484   0.727   5.726 -2.1149  2.6806  0.4292
55854SOL    HW274678   3.534   0.833   5.822  3.2661  0.3978  0.5150
55855SOL     OW74679  10.102  11.744  12.405  0.0220 -0.3503 -0.0996
55855SOL    HW174680  10.102  11.797  12.485  1.8230  2.0538 -1.5415
55855SOL    HW274681  10.073  11.805  12.336 -4.7215 -3.1346 -1.0096
55856SOL     OW74682   5.015   4.363   2.391  0.1560  0.4465  0.0012
55856SOL    HW174683   5.083   4.301   2.420 -0.8121 -0.7919 -0.2693
55856SOL    HW274684   5.057   4.414   2.322  2.1511  2.6802  2.6209
55857SOL     OW74685   3.567  11.328   0.100 -0.3877 -0.4129  0.3015
55857SOL    HW174686   3.657  11.317   0.129  0.1040 -0.5929 -1.1737
55857SOL    HW274687   3.557  11.265   0.028 -1.7282 -0.4671  0.4924
55858SOL     OW74688  11.545   0.335   6.302 -0.1460  0.1389  0.5543
55858SOL    HW174689  11.468   0.391   6.307 -0.1647  0.0316  1.9799
55858SOL    HW274690  11.523   0.259   6.357  0.2061 -0.8634 -0.6437
55859SOL     OW74691   0.229  12.389   3.031 -0.6118  0.0808  0.3525
55859SOL    HW174692   0.175  12.310   3.029 -0.9024  0.2854 -0.4565
55859SOL    HW274693   0.268  12.394   2.944  1.4714 -0.5494  1.2109
55860SOL     OW74694  12.020   0.382   4.748  0.1888  0.0254 -0.1142
55860SOL    HW174695  11.929   0.354   4.746  0.4720 -0.9087 -0.6192
55860SOL    HW274696  12.039   0.398   4.840 -0.4035 -0.0424  0.0225
55861SOL     OW74697   7.506   8.031   6.269 -0.4202  0.2799 -0.1640
55861SOL    HW174698   7.484   8.110   6.221  1.9897  1.0377 -0.1489
55861SOL    HW274699   7.452   8.035   6.348 -2.4427  0.3829 -1.4887
55862SOL     OW74700   0.978   0.101   0.345  0.0581 -0.0921  0.3285
55862SOL    HW174701   0.939   0.155   0.276 -0.4302 -0.2705  0.4586
55862SOL    HW274702   0.926   0.120   0.423  0.9242  0.4810  0.7711
55863SOL     OW74703   8.137  11.402   7.650 -0.1827 -0.3884  0.0198
55863SOL    HW174704   8.141  11.457   7.728  1.3140 -1.0044  0.4229
55863SOL    HW274705   8.074  11.445   7.592 -1.7283 -0.2082  1.7752
55864SOL     OW74706   8.027   1.671   0.503  0.0453  0.1990  0.2956
55864SOL    HW174707   8.050   1.700   0.415  1.4227 -2.9046 -0.4739
55864SOL    HW274708   8.057   1.742   0.560  2.3302  0.7753 -1.4958
55865SOL     OW74709  10.200   5.045   9.941 -0.3043  0.0776  0.4682
55865SOL    HW174710  10.229   5.119   9.888 -0.9830 -0.2835 -0.4535
55865SOL    HW274711  10.258   5.044  10.017  0.1942  1.0861  0.1087
55866SOL     OW74712   2.328   6.350  11.101 -0.4614  0.0642  0.3951
55866SOL    HW174713   2.252   6.292  11.103 -1.3719  1.0873 -1.5738
55866SOL    HW274714   2.298   6.427  11.052  2.0578  0.2165 -1.0711
55867SOL     OW74715   0.705   9.607  10.138 -0.0172 -0.2650 -0.4617
55867SOL    HW174716   0.748   9.668  10.077 -0.0074  2.0454  1.7041
55867SOL    HW274717   0.777   9.564  10.183  0.0683  1.2244  0.8928
55868SOL     OW74718   0.047   1.094   9.398  0.0328 -0.3961  0.4047
55868SOL    HW174719   0.098   1.163   9.441  1.2552 -1.5668  0.9402
55868SOL    HW274720  -0.001   1.052   9.469  2.1070 -2.3813  0.7825
55869SOL     OW74721  12.424  12.874   0.309  0.0246  0.2147  0.4743
55869SOL    HW174722  12.416  12.840   0.220  2.0621  1.6547 -0.3530
55869SOL    HW274723  12.421  12.797   0.365  1.2354 -1.0253 -1.0626
55870SOL     OW74724   2.594   2.506   1.166  0.2913 -0.3559  0.1850
55870SOL    HW174725   2.499   2.509   1.156  0.1515 -0.4833  1.3284
55870SOL    HW274726   2.621   2.429   1.115 -0.1470 -0.0382 -0.5444
55871SOL     OW74727   9.666   6.252   4.481 -0.8296  0.1963 -0.1134
55871SOL    HW174728   9.623   6.326   4.522  0.6779  0.6965  0.6546
55871SOL    HW274729   9.640   6.176   4.533  1.5092  0.8856  2.2924
55872SOL     OW74730   4.825   5.583   2.309  0.3700 -0.8027 -0.4987
55872SOL    HW174731   4.912   5.548   2.290  1.0536  0.3284  0.4293
55872SOL    HW274732   4.807   5.556   2.399  0.2613 -0.0653 -0.2910
55873SOL     OW74733   9.507  10.121  12.583  0.2969  0.5094 -0.1318
55873SOL    HW174734   9.592  10.087  12.555  0.4801 -0.2984  1.2727
55873SOL    HW274735   9.449  10.045  12.582  0.1767  0.5688  1.0860
55874SOL     OW74736   4.970   7.398   3.964 -0.0501 -0.5464 -0.7420
55874SOL    HW174737   5.053   7.367   4.002  0.6573  0.1090 -1.6849
55874SOL    HW274738   4.902   7.360   4.019  0.9148  0.9093  1.5867
55875SOL     OW74739   9.723   7.338   3.470  0.1233  0.0337  0.4380
55875SOL    HW174740   9.813   7.361   3.449  0.1954 -1.9658 -1.8606
55875SOL    HW274741   9.727   7.248   3.501 -1.0244  0.1028  0.8331
55876SOL     OW74742  10.165   6.012   5.481  0.1860 -0.3100 -0.0314
55876SOL    HW174743  10.159   5.917   5.475  1.1874 -0.4300  0.6986
55876SOL    HW274744  10.254   6.033   5.453 -0.1247  0.4531 -0.4988
55877SOL     OW74745   8.456   8.384   6.486  1.2003  0.0939  0.6023
55877SOL    HW174746   8.364   8.375   6.463  1.0918  1.1750  0.5425
55877SOL    HW274747   8.481   8.470   6.451  2.4921 -0.5927 -0.2459
55878SOL     OW74748   4.344   0.044   1.729  0.4855 -0.0671 -0.3499
55878SOL    HW174749   4.326  -0.008   1.651 -0.6246  0.0655 -0.1937
55878SOL    HW274750   4.351   0.134   1.696  1.0033 -0.1330 -0.4267
55879SOL     OW74751   3.555  10.597   4.665  0.2778  0.3889 -0.1321
55879SOL    HW174752   3.649  10.611   4.658  0.1730  0.5297 -1.7860
55879SOL    HW274753   3.519  10.684   4.681  0.4419  0.2690  0.9679
55880SOL     OW74754   4.166  10.472   1.203  0.4411  0.2505  0.2391
55880SOL    HW174755   4.212  10.510   1.128  2.0965 -1.3425  0.3586
55880SOL    HW274756   4.235  10.425   1.251 -1.3937 -3.0911 -0.0812
55881SOL     OW74757   0.519  11.848   8.355  0.3622 -0.3415 -0.5569
55881SOL    HW174758   0.558  11.871   8.440 -0.3687 -0.0158 -0.3005
55881SOL    HW274759   0.432  11.815   8.377  0.0153  0.1192 -1.2091
55882SOL     OW74760   4.495  11.505   9.404 -0.1584 -0.1001 -0.7125
55882SOL    HW174761   4.552  11.432   9.378 -1.1273 -1.1518 -0.0281
55882SOL    HW274762   4.414  11.462   9.433 -0.7187  1.2566 -0.1945
55883SOL     OW74763   9.643  12.180   2.844 -0.3027 -0.8506  0.0909
55883SOL    HW174764   9.711  12.150   2.784 -2.0424 -0.8122 -2.0177
55883SOL    HW274765   9.611  12.262   2.806 -3.8956 -2.5874 -1.1111
55884SOL     OW74766   4.744   2.003  11.569 -0.2391  0.1173  0.0733
55884SOL    HW174767   4.704   2.052  11.497 -0.4089 -0.2844 -0.1074
55884SOL    HW274768   4.800   2.067  11.613  1.7212 -0.2061 -1.8305
55885SOL     OW74769  11.203   6.068   7.565  0.2017 -0.1909  0.2795
55885SOL    HW174770  11.243   6.053   7.651  0.2970  0.4358  0.3445
55885SOL    HW274771  11.276   6.094   7.509 -0.0770  0.8147  0.3617
55886SOL     OW74772  12.949   9.679   7.098 -0.1404  0.6580 -0.6010
55886SOL    HW174773  13.029   9.663   7.047  1.1831  1.4356  1.1133
55886SOL    HW274774  12.920   9.765   7.069 -0.1237  0.5484 -0.9469
55887SOL     OW74775   7.490   2.453   4.977  0.7208  0.3989 -0.3780
55887SOL    HW174776   7.563   2.430   4.919  1.0346 -1.4221  0.6961
55887SOL    HW274777   7.532   2.487   5.056  0.5170 -1.8855  0.7764
55888SOL     OW74778   8.357   3.060   1.709  0.1218 -0.0237  0.4029
55888SOL    HW174779   8.406   3.033   1.632 -0.6004  0.5030 -0.2534
55888SOL    HW274780   8.423   3.092   1.770  0.7408 -0.9018  0.2045
55889SOL     OW74781  12.744   7.771   1.141 -0.0219 -0.2462 -0.0923
55889SOL    HW174782  12.758   7.801   1.051 -0.0046 -2.8960 -1.0805
55889SOL    HW274783  12.650   7.756   1.147 -0.0057 -0.2072  0.2723
55890SOL     OW74784   8.916  12.931   9.262  0.2589 -0.2932 -0.1733
55890SOL    HW174785   8.851  12.875   9.305 -1.2571  1.6362  0.1925
55890SOL    HW274786   8.874  12.958   9.181  0.3735  1.3849  0.3016
55891SOL     OW74787   8.363  12.613   7.995  0.3125  0.2834 -0.3457
55891SOL    HW174788   8.381  12.590   7.904 -0.5480  0.2824 -0.5220
55891SOL    HW274789   8.269  12.630   7.998  0.0666 -1.0738  0.8247
55892SOL     OW74790  11.024   2.730   2.203 -0.2259  0.0801 -0.0314
55892SOL    HW174791  10.998   2.638   2.201 -0.1443  0.0654 -1.6025
55892SOL    HW274792  11.040   2.748   2.296 -1.9318 -0.9986  0.5227
55893SOL     OW74793   1.935   8.329  10.950  0.0889 -0.3073  0.3261
55893SOL    HW174794   2.003   8.302  10.889 -0.8886 -0.7937 -0.5809
55893SOL    HW274795   1.915   8.251  11.000  1.8407  0.4076  2.2917
55894SOL     OW74796  11.331   5.280  10.818  0.2186 -0.2218 -0.1978
55894SOL    HW174797  11.271   5.240  10.881 -2.3016  2.0722 -0.9489
55894SOL    HW274798  11.380   5.344  10.869 -0.0286 -0.1209 -0.0848
55895SOL     OW74799   0.865   7.790   9.576  0.0067 -0.3701  0.8855
55895SOL    HW174800   0.930   7.855   9.551 -0.1759  0.3015  2.0986
55895SOL    HW274801   0.812   7.833   9.642 -1.2257 -1.1580  0.4511
55896SOL     OW74802   3.809  11.027   8.616  0.5756 -0.0627 -0.9063
55896SOL    HW174803   3.731  10.984   8.582 -0.0057  0.9543 -0.9024
55896SOL    HW274804   3.882  10.979   8.577  0.0183 -2.3085  0.6538
55897SOL     OW74805   5.155   9.196   3.766  0.9279  0.4774 -0.4752
55897SOL    HW174806   5.205   9.168   3.843  0.3287  2.3465  0.6608
55897SOL    HW274807   5.131   9.287   3.785 -1.9603  0.0200 -1.4495
55898SOL     OW74808   1.509   5.443  10.096 -0.4138  0.2452  0.6299
55898SOL    HW174809   1.418   5.415  10.106 -0.2376 -0.9276 -0.7372
55898SOL    HW274810   1.555   5.404  10.170 -0.7974 -0.2258  0.6245
55899SOL     OW74811   6.686   3.100   8.057 -0.0383 -0.2750  0.0857
55899SOL    HW174812   6.737   3.160   8.003  1.0520 -0.9669  0.3127
55899SOL    HW274813   6.745   3.027   8.073 -0.8437 -0.7400  1.0126
55900SOL     OW74814   6.661   1.464   2.141  0.2488  0.8158 -0.3704
55900SOL    HW174815   6.567   1.449   2.154  0.1860  2.6273  1.8725
55900SOL    HW274816   6.666   1.551   2.102  0.9914  1.4425  1.0341
55901SOL     OW74817   3.244  10.239   0.895 -0.1111 -0.6753 -0.3178
55901SOL    HW174818   3.210  10.182   0.964  0.6317 -0.8379 -0.0831
55901SOL    HW274819   3.287  10.179   0.834  1.2119 -0.3190  0.2421
55902SOL     OW74820   6.312   4.334  10.373  0.1216  0.2474 -0.3844
55902SOL    HW174821   6.218   4.349  10.364 -0.6912 -3.3485  0.4640
55902SOL    HW274822   6.325   4.318  10.466  0.9229 -2.3065 -0.8603
55903SOL     OW74823   2.740   7.213  10.397 -0.0144  0.5853 -0.3352
55903SOL    HW174824   2.787   7.135  10.426 -1.0805  0.2449  0.5609
55903SOL    HW274825   2.698   7.187  10.315  2.1415  1.2176 -1.7359
55904SOL     OW74826   4.636  11.670  11.102 -0.0362  0.2445 -0.1513
55904SOL    HW174827   4.555  11.699  11.144 -0.0687 -0.3071  0.1740
55904SOL    HW274828   4.688  11.633  11.174 -1.6681 -4.3697 -1.0287
55905SOL     OW74829   7.916  12.204   4.155 -0.1373  0.7784 -0.5551
55905SOL    HW174830   7.992  12.261   4.159  0.2639  0.2244  0.1864
55905SOL    HW274831   7.898  12.182   4.247 -0.1952 -0.3652 -0.8149
55906SOL     OW74832  10.730   5.465   9.356  0.1687 -0.7123 -0.5814
55906SOL    HW174833  10.696   5.492   9.271 -0.6899  1.4142  0.3617
55906SOL    HW274834  10.825   5.463   9.345  0.0816 -0.1878 -1.5134
55907SOL     OW74835   8.823   9.472   7.354  0.0382 -0.2898 -0.3145
55907SOL    HW174836   8.907   9.468   7.310  0.0184  1.9461 -0.6502
55907SOL    HW274837   8.781   9.388   7.333  0.6975 -0.0071 -3.1783
55908SOL     OW74838   5.923   7.463   4.955  0.6483 -0.3913  0.2225
55908SOL    HW174839   5.973   7.530   4.908  1.6799  0.4954  2.4116
55908SOL    HW274840   5.855   7.512   5.001  1.1759 -0.8585  1.5547
55909SOL     OW74841   5.513   3.338   2.303  0.4515  0.0528  0.1253
55909SOL    HW174842   5.463   3.274   2.253  1.0876 -0.3011 -0.0651
55909SOL    HW274843   5.541   3.291   2.381  1.0246  0.0635 -0.0735
55910SOL     OW74844   0.964   3.494   9.403  0.2293 -0.0310 -0.3172
55910SOL    HW174845   0.895   3.534   9.456 -0.2160 -1.3944  0.1733
55910SOL    HW274846   0.976   3.554   9.329 -0.4250  0.9707  0.3701
55911SOL     OW74847   3.993   0.056  11.262  0.5418  0.0892  0.2450
55911SOL    HW174848   3.897   0.052  11.260  0.5669 -0.6438  0.1205
55911SOL    HW274849   4.015   0.139  11.220  0.0186 -0.7146 -1.7472
55912SOL     OW74850   5.173   6.741   2.320 -0.1905 -0.3020  0.6915
55912SOL    HW174851   5.166   6.671   2.255 -0.7197  0.6985 -0.3450
55912SOL    HW274852   5.252   6.789   2.297  0.0097 -0.3589  1.2285
55913SOL     OW74853   9.105   5.135   5.757  0.0115 -0.3184 -0.6062
55913SOL    HW174854   9.190   5.093   5.743  1.5990  2.6286 -0.8451
55913SOL    HW274855   9.075   5.158   5.669 -1.8143 -2.5320 -0.6429
55914SOL     OW74856  10.844   1.651   9.137 -0.3161  0.1435  0.2290
55914SOL    HW174857  10.781   1.691   9.197 -0.9108  1.0584 -0.9741
55914SOL    HW274858  10.796   1.582   9.093 -0.2504  0.2950 -0.0863
55915SOL     OW74859   4.532   3.747   4.165  0.6533  0.4144  0.7062
55915SOL    HW174860   4.474   3.687   4.117  1.2754  1.0479 -0.9173
55915SOL    HW274861   4.620   3.720   4.139  0.9879  1.1382  1.0744
55916SOL     OW74862   3.842  10.447  12.951  0.5418 -0.4887 -0.1493
55916SOL    HW174863   3.789  10.414  13.024 -0.2065  0.1867 -0.3727
55916SOL    HW274864   3.833  10.380  12.883  2.2229 -1.7253  0.7605
55917SOL     OW74865   3.670  10.886  11.348 -0.6962  0.0849 -0.7076
55917SOL    HW174866   3.690  10.819  11.413 -1.2517 -0.5228 -1.1636
55917SOL    HW274867   3.738  10.876  11.281 -0.6654  0.1087 -0.6798
55918SOL     OW74868   1.350  12.031   7.664 -0.5697  0.2867  0.1390
55918SOL    HW174869   1.317  11.956   7.614  0.3319 -0.7833  1.0888
55918SOL    HW274870   1.359  12.100   7.599 -0.6189 -0.6867 -0.9476
55919SOL     OW74871   2.744  11.059  10.144 -0.2563  0.6076 -0.0993
55919SOL    HW174872   2.671  11.010  10.183 -0.8003  0.6396 -1.0560
55919SOL    HW274873   2.727  11.150  10.169 -2.9994  1.3479 -3.7715
55920SOL     OW74874  11.378   4.883   4.785 -0.3375  0.1645 -0.2524
55920SOL    HW174875  11.342   4.831   4.856 -0.3411  0.5283  0.0160
55920SOL    HW274876  11.323   4.862   4.709 -1.5461  1.2039  0.3084
55921SOL     OW74877   7.557   4.078   3.976 -0.2491 -0.5117 -0.0363
55921SOL    HW174878   7.507   4.076   3.894  0.7777 -2.8258 -0.7191
55921SOL    HW274879   7.566   4.171   3.997 -5.6594  0.1441  0.7893
55922SOL     OW74880  11.029   5.387   8.764  0.0504  0.2513  0.0030
55922SOL    HW174881  10.991   5.425   8.685 -0.1036  0.1489  0.0273
55922SOL    HW274882  11.033   5.459   8.826 -1.4750 -0.0637  0.4961
55923SOL     OW74883   0.412   9.850  10.274 -0.4129 -0.1422 -0.4430
55923SOL    HW174884   0.439   9.875  10.185 -1.1754  0.8284 -0.4164
55923SOL    HW274885   0.336   9.904  10.292 -0.2765 -0.3393  0.8063
55924SOL     OW74886   7.360   5.637   3.920  0.1020 -0.3554 -0.5731
55924SOL    HW174887   7.292   5.613   3.983  1.3562  0.0973  1.0228
55924SOL    HW274888   7.390   5.723   3.949  0.8101 -0.1899 -1.7311
55925SOL     OW74889  10.272   2.591   8.103  0.0643  0.7141 -0.4304
55925SOL    HW174890  10.248   2.574   8.194 -2.7553  2.5532 -0.7290
55925SOL    HW274891  10.285   2.686   8.099  0.8573  0.5791 -1.8152
55926SOL     OW74892   2.669   3.145   4.983  0.6911  0.0728 -0.3321
55926SOL    HW174893   2.579   3.134   4.951  0.9080 -0.1631 -0.8796
55926SOL    HW274894   2.694   3.058   5.013  0.7016  0.1615 -0.0854
55927SOL     OW74895   4.144   0.790   0.458 -0.0595  0.3521 -0.0877
55927SOL    HW174896   4.179   0.788   0.369  2.7621  1.6692  0.8683
55927SOL    HW274897   4.087   0.867   0.459  0.6190  0.8737 -0.5356
55928SOL     OW74898  12.431   7.355  11.556  0.0979 -0.0789 -0.3133
55928SOL    HW174899  12.462   7.445  11.542 -0.9714  0.0999 -1.7719
55928SOL    HW274900  12.512   7.304  11.566  0.8572  0.6451 -2.2277
55929SOL     OW74901   6.632   4.325   9.759  0.1503 -0.3760 -0.0224
55929SOL    HW174902   6.723   4.326   9.789  1.0267  0.3540 -2.4425
55929SOL    HW274903   6.638   4.307   9.665 -2.1717  0.4086 -0.3893
55930SOL     OW74904   1.710  11.255   2.245 -0.2462 -0.2939  0.4449
55930SOL    HW174905   1.662  11.294   2.172 -2.1813 -2.3184  0.5566
55930SOL    HW274906   1.738  11.170   2.213 -0.2731 -0.8112  1.7493
55931SOL     OW74907   5.601   4.603   3.789  0.1944 -0.0938  0.2717
55931SOL    HW174908   5.692   4.615   3.816  0.2838  0.0471 -0.0823
55931SOL    HW274909   5.552   4.667   3.840  0.4840  0.8168 -0.5586
55932SOL     OW74910   5.224   4.571   3.881  0.0930 -0.4247 -0.3478
55932SOL    HW174911   5.155   4.505   3.875 -1.5771  0.9760  1.7941
55932SOL    HW274912   5.255   4.565   3.971  0.1814  1.3866 -0.2216
55933SOL     OW74913   9.290   8.267  12.588  0.4641  0.0568  0.3550
55933SOL    HW174914   9.351   8.225  12.527  0.1949 -0.0146  0.1318
55933SOL    HW274915   9.311   8.229  12.673  1.9213  1.3214  0.5919
55934SOL     OW74916   2.300   9.699   1.719 -0.1870  0.0872  0.1524
55934SOL    HW174917   2.300   9.795   1.715  0.0785  0.0998  0.4115
55934SOL    HW274918   2.366   9.678   1.785  1.3740 -0.3720 -1.5197
55935SOL     OW74919   4.022   0.541   5.539 -0.0466 -0.0186  0.3739
55935SOL    HW174920   3.954   0.515   5.601  0.6981 -0.1218  1.1506
55935SOL    HW274921   4.095   0.482   5.556  1.0421  1.4489  1.0037
55936SOL     OW74922   1.083   3.999  10.755 -0.0171 -0.4648  0.1425
55936SOL    HW174923   1.116   3.909  10.754 -1.3631 -1.0413  1.6618
55936SOL    HW274924   0.994   3.991  10.720  0.1209  0.4146 -0.4238
55937SOL     OW74925  11.466  12.708  10.357 -0.0338  0.3267  0.1596
55937SOL    HW174926  11.428  12.731  10.442  0.4602  0.1999  0.4158
55937SOL    HW274927  11.410  12.753  10.293 -0.3145  0.5501  0.5571
55938SOL     OW74928  11.213  11.709   1.530  0.1993 -0.8344  0.2778
55938SOL    HW174929  11.136  11.675   1.485  0.8403 -1.5317 -0.3197
55938SOL    HW274930  11.190  11.706   1.623 -0.8939  0.0028  0.0649
55939SOL     OW74931   3.665  10.919   1.923  0.7226 -0.4010  0.4658
55939SOL    HW174932   3.673  10.859   1.997  2.0172 -0.2220  0.4918
55939SOL    HW274933   3.623  10.997   1.961 -0.8414 -1.1904  0.4593
55940SOL     OW74934   0.654   2.824  12.076  0.1002  0.6064 -0.1964
55940SOL    HW174935   0.681   2.885  12.007 -0.5016  1.7529  0.5379
55940SOL    HW274936   0.592   2.875  12.129  0.8237 -0.1324  1.4008
55941SOL     OW74937  12.343   4.975   7.700 -0.4865 -0.2410 -0.4347
55941SOL    HW174938  12.375   5.061   7.672 -0.1935  0.3257  1.4796
55941SOL    HW274939  12.325   4.929   7.618  1.6987  0.7380 -1.5706
55942SOL     OW74940   0.910   1.388   2.462 -0.0476 -0.0550 -0.8713
55942SOL    HW174941   0.884   1.461   2.405 -0.2861  0.7544  0.2512
55942SOL    HW274942   0.828   1.358   2.501  0.3530  0.8699  0.7573
55943SOL     OW74943   8.714   3.640   2.088 -0.0437  1.0747 -0.3186
55943SOL    HW174944   8.677   3.658   2.002 -0.2498 -0.2345 -0.5256
55943SOL    HW274945   8.668   3.699   2.148 -0.3504  1.5398 -1.0079
55944SOL     OW74946  10.196  10.650   7.868 -0.2180  0.7741 -0.6962
55944SOL    HW174947  10.162  10.698   7.944  1.1806  1.6005 -0.5491
55944SOL    HW274948  10.124  10.653   7.804 -1.3894  0.1221  0.5456
55945SOL     OW74949  12.657  11.593   8.081 -0.5020  0.1653  0.0200
55945SOL    HW174950  12.604  11.518   8.106 -0.1166  0.2693  1.2211
55945SOL    HW274951  12.594  11.664   8.068 -0.8467 -0.2872 -0.9075
55946SOL     OW74952   9.232  12.327  10.580 -0.3642 -0.0425 -0.1906
55946SOL    HW174953   9.172  12.257  10.554 -1.2754  1.0148 -1.0559
55946SOL    HW274954   9.319  12.288  10.573 -0.9168 -1.5024  0.7169
55947SOL     OW74955   6.483  11.877   5.942 -0.0280 -0.0810 -0.3727
55947SOL    HW174956   6.550  11.945   5.939 -0.4863  0.4169  0.5376
55947SOL    HW274957   6.412  11.911   5.886 -1.4701  1.5540  2.2382
55948SOL     OW74958  10.379  12.661   3.255  0.0404 -0.3643  0.0803
55948SOL    HW174959  10.382  12.756   3.254  1.6142 -0.3896  0.5973
55948SOL    HW274960  10.293  12.640   3.292 -0.7872  0.8211 -1.0828
55949SOL     OW74961  11.779  10.949   2.942 -0.1068 -0.1067 -0.3786
55949SOL    HW174962  11.803  10.985   2.857 -1.4158 -1.6444 -1.4722
55949SOL    HW274963  11.830  10.868   2.949  0.6066  0.4175  0.6901
55950SOL     OW74964   1.964   8.868   5.732  0.0922  0.5781 -0.1497
55950SOL    HW174965   1.983   8.784   5.690 -0.2736  0.3758  0.0800
55950SOL    HW274966   1.876   8.857   5.769  0.9828  0.2382  1.9573
55951SOL     OW74967   6.541   7.615   2.133  0.7660 -0.1263  0.0355
55951SOL    HW174968   6.614   7.677   2.135  1.6172 -1.1139  0.0616
55951SOL    HW274969   6.579   7.532   2.104 -0.3293 -0.6850  0.1189
55952SOL     OW74970   4.325  10.008   1.667 -0.1941 -0.2909  0.1617
55952SOL    HW174971   4.337   9.915   1.649 -0.4663 -0.4694  0.8584
55952SOL    HW274972   4.244  10.012   1.718  0.2122  0.2473  0.7835
55953SOL     OW74973  10.934  11.427   9.881  0.4999 -0.4431 -0.5372
55953SOL    HW174974  11.026  11.444   9.861  0.1916  1.9231 -0.2738
55953SOL    HW274975  10.896  11.402   9.797  1.4371 -1.8845 -0.5616
55954SOL     OW74976   6.777   0.616  11.391  0.2974  0.2907  0.3792
55954SOL    HW174977   6.847   0.679  11.375  0.8290 -0.3323  0.2308
55954SOL    HW274978   6.705   0.669  11.425  0.9750  0.8877  0.9164
55955SOL     OW74979   2.260   3.477   6.984 -0.2698  0.1610 -0.3742
55955SOL    HW174980   2.296   3.415   7.048  0.2831  0.2389 -0.5991
55955SOL    HW274981   2.336   3.529   6.957 -0.9032  1.6776  0.6157
55956SOL     OW74982   2.968   5.991   3.964 -0.1732  0.1513  0.0387
55956SOL    HW174983   2.882   6.031   3.952  0.2676  0.6168 -2.0813
55956SOL    HW274984   2.976   5.977   4.058 -1.7795  1.8640  0.4770
55957SOL     OW74985  12.342   8.432   1.672  0.4927  0.0085  0.1468
55957SOL    HW174986  12.343   8.470   1.759  0.6006  0.5883 -0.0994
55957SOL    HW274987  12.407   8.483   1.623 -0.3125  0.3827 -0.5520
55958SOL     OW74988   4.060   6.551   1.467  0.6618 -0.2170  0.7768
55958SOL    HW174989   4.146   6.562   1.507  0.8412  0.2885  0.2563
55958SOL    HW274990   4.018   6.636   1.475  0.6416 -0.1534  0.0287
55959SOL     OW74991   9.871   4.123   7.509  0.2062 -0.1511  0.0744
55959SOL    HW174992   9.801   4.177   7.472 -0.2025 -1.5982 -1.4194
55959SOL    HW274993   9.940   4.124   7.442  0.1500 -1.4819 -0.0357
55960SOL     OW74994  11.373  10.171  12.679  0.3952  0.0314 -0.3021
55960SOL    HW174995  11.337  10.082  12.675 -0.4353  0.3979 -1.9828
55960SOL    HW274996  11.307  10.225  12.635  1.4097  1.3075 -0.3080
55961SOL     OW74997  11.433  10.296  12.035 -0.1898 -0.7222  0.4600
55961SOL    HW174998  11.339  10.314  12.035  0.2961  2.1870  0.4640
55961SOL    HW274999  11.464  10.328  11.950  1.0632 -0.0117  1.1552
55962SOL     OW75000   8.284   7.006   8.385 -0.7994 -0.7191  0.0881
55962SOL    HW175001   8.261   7.002   8.478 -3.1609 -3.0153 -0.4730
55962SOL    HW275002   8.373   6.971   8.381  0.0443  1.0731  1.6010
55963SOL     OW75003   9.880   5.934   3.373  0.2013  0.1005  0.2165
55963SOL    HW175004   9.862   6.027   3.358 -0.0248 -0.1025 -0.8672
55963SOL    HW275005   9.976   5.927   3.364  0.1002  0.0268 -1.0604
55964SOL     OW75006   6.407   5.277   8.627  0.1882 -0.0246 -0.2068
55964SOL    HW175007   6.427   5.222   8.551  0.6547  1.0494 -0.8928
55964SOL    HW275008   6.482   5.264   8.686 -0.4844 -1.3656  0.4023
55965SOL     OW75009  11.069  12.617   6.026  0.2079 -0.5059 -0.2417
55965SOL    HW175010  11.162  12.618   6.049  0.2588  0.4339 -0.4525
55965SOL    HW275011  11.041  12.708   6.033 -0.9954 -0.9246  0.9643
55966SOL     OW75012   6.090   6.182   9.914  0.3167  0.0909 -0.3606
55966SOL    HW175013   6.086   6.263   9.966 -0.0307  1.3299 -2.2262
55966SOL    HW275014   6.061   6.208   9.827  0.8990 -1.9197 -1.2071
55967SOL     OW75015   1.447   7.337  10.985  0.3477 -0.7097  0.2029
55967SOL    HW175016   1.362   7.373  10.958  0.2947 -1.0448 -0.0776
55967SOL    HW275017   1.439   7.243  10.971  0.9978 -0.6725 -0.4708
55968SOL     OW75018   8.009   8.795   7.215 -0.1174 -1.0864  0.5515
55968SOL    HW175019   8.057   8.877   7.229  0.0701 -1.0182 -0.4035
55968SOL    HW275020   8.066   8.744   7.158 -0.5021 -1.6403  0.6568
55969SOL     OW75021   9.627  11.928   4.104 -0.0904  0.0766 -0.2034
55969SOL    HW175022   9.652  11.921   4.196 -1.1017  2.5500  0.3418
55969SOL    HW275023   9.709  11.939   4.057  0.3711 -0.2591  0.5128
55970SOL     OW75024  12.181   7.838   1.697 -0.2716  0.6214  0.2295
55970SOL    HW175025  12.190   7.758   1.748  1.5789  0.3924 -0.3811
55970SOL    HW275026  12.134   7.811   1.618 -0.8195  0.4375  0.6079
55971SOL     OW75027  12.602  12.280   7.720 -0.6176 -0.0529  0.1843
55971SOL    HW175028  12.539  12.303   7.788  0.3468 -0.7169  1.3549
55971SOL    HW275029  12.669  12.348   7.725 -1.4252  0.8941 -1.3467
55972SOL     OW75030   1.450   8.909  11.183 -0.2980  0.0262 -0.2591
55972SOL    HW175031   1.365   8.891  11.141 -0.8277 -3.0547  1.7934
55972SOL    HW275032   1.513   8.908  11.111 -1.5351 -1.7803 -1.3977
55973SOL     OW75033   9.203   8.198   5.329  0.1183 -0.1030 -0.4747
55973SOL    HW175034   9.222   8.197   5.236  1.1701 -1.1270 -0.2658
55973SOL    HW275035   9.284   8.227   5.371 -0.6495  1.3563  0.0818
55974SOL     OW75036   5.244  12.494   1.322  0.2711  0.1195 -0.6481
55974SOL    HW175037   5.197  12.566   1.363  2.6856  0.9414  0.9263
55974SOL    HW275038   5.225  12.418   1.377  2.3212  0.9058  1.2960
55975SOL     OW75039   4.392   2.557  12.393 -0.1029 -0.3680 -0.2320
55975SOL    HW175040   4.334   2.608  12.449  0.2547 -1.0191  0.7438
55975SOL    HW275041   4.334   2.493  12.352 -0.5452  0.7401 -1.4232
55976SOL     OW75042  11.044   4.451   8.744 -0.1477  0.2411  0.2122
55976SOL    HW175043  11.110   4.494   8.690 -0.7742 -1.2732 -1.8878
55976SOL    HW275044  10.974   4.516   8.754 -0.3826  0.3025 -1.5472
55977SOL     OW75045   1.865   2.997   2.861  0.3731  0.3539  0.3850
55977SOL    HW175046   1.799   2.958   2.918 -2.3893 -0.1310 -2.8472
55977SOL    HW275047   1.861   3.091   2.881 -0.4473  0.1955  1.0206
55978SOL     OW75048   9.217   1.929   7.172  0.3028 -0.4381  0.9324
55978SOL    HW175049   9.130   1.964   7.192 -0.0126  0.1983 -1.3487
55978SOL    HW275050   9.276   1.982   7.226 -0.6837 -0.8076  2.4295
55979SOL     OW75051   7.794   8.198  11.365  0.0209 -0.7968  0.8286
55979SOL    HW175052   7.888   8.177  11.374 -0.1391 -1.2754  1.5196
55979SOL    HW275053   7.753   8.113  11.347 -0.2384 -0.5320  0.1755
55980SOL     OW75054  11.164   7.507   3.633 -0.0509  0.4500 -0.2281
55980SOL    HW175055  11.082   7.547   3.601 -0.2919  0.5612  0.5062
55980SOL    HW275056  11.231   7.573   3.617 -0.0716  0.2962 -0.9804
55981SOL     OW75057   1.680  11.399   3.198  0.7769  0.6201 -0.2665
55981SOL    HW175058   1.731  11.399   3.279  0.9264  1.7494 -0.3430
55981SOL    HW275059   1.592  11.375   3.224  1.4868 -2.4770 -0.2686
55982SOL     OW75060   9.153   5.381  12.066  0.8373  0.5863  0.3310
55982SOL    HW175061   9.222   5.393  12.001 -1.8496 -0.7163 -3.0686
55982SOL    HW275062   9.137   5.468  12.102  2.6817  1.2801 -0.4569
55983SOL     OW75063   4.111  11.182  12.157 -0.0760 -0.2625 -0.5436
55983SOL    HW175064   4.022  11.193  12.124  1.2905  0.6182 -4.4530
55983SOL    HW275065   4.128  11.261  12.208 -0.9011  0.5405 -1.4836
55984SOL     OW75066   7.874   7.480   0.761 -0.2332 -0.0296 -0.0001
55984SOL    HW175067   7.926   7.556   0.788 -3.2603  2.0054  0.6341
55984SOL    HW275068   7.860   7.494   0.667 -0.8129  0.2558  0.1223
55985SOL     OW75069   5.631   6.991  12.037  0.0841 -0.3016  0.4070
55985SOL    HW175070   5.583   6.908  12.042 -0.9101  0.3221  2.6226
55985SOL    HW275071   5.713   6.974  12.083  1.0518 -0.7202 -1.3822
55986SOL     OW75072  11.309   3.160   3.377  0.2356  0.5962  0.4038
55986SOL    HW175073  11.329   3.227   3.443  0.8705 -0.8097  1.7105
55986SOL    HW275074  11.360   3.185   3.301  2.8467  0.0426  1.8599
55987SOL     OW75075   4.129  11.572   0.603 -0.8567  0.2549 -0.2626
55987SOL    HW175076   4.088  11.646   0.560 -1.6358  0.3165  0.5526
55987SOL    HW275077   4.083  11.564   0.687 -0.9686 -1.2942 -0.4284
55988SOL     OW75078  11.375  10.328   4.696 -0.4584  0.0144 -0.3355
55988SOL    HW175079  11.420  10.251   4.730  1.1095  0.3655 -1.4928
55988SOL    HW275080  11.391  10.396   4.762  1.3675  0.3149 -1.0227
55989SOL     OW75081   6.683  12.284   6.016 -0.9091  0.0715 -0.3698
55989SOL    HW175082   6.619  12.276   5.946 -1.2221 -0.6346 -0.0240
55989SOL    HW275083   6.720  12.195   6.024 -0.7358  0.1933  0.2164
55990SOL     OW75084   0.598   9.821   2.078 -0.0981 -0.4841  0.3202
55990SOL    HW175085   0.561   9.867   2.003 -0.6456  1.7123  1.8563
55990SOL    HW275086   0.528   9.822   2.144  0.9564 -0.8111  1.4812
55991SOL     OW75087  10.041   4.797  10.869 -0.0315 -0.0357  0.1965
55991SOL    HW175088   9.949   4.818  10.882 -0.1016 -1.1888  1.9233
55991SOL    HW275089  10.087   4.880  10.879 -0.9074  0.7155 -1.5531
55992SOL     OW75090   5.842   5.154   8.999 -0.3319 -0.3184  0.5701
55992SOL    HW175091   5.820   5.136   8.908  0.8708 -0.4959  0.2963
55992SOL    HW275092   5.802   5.083   9.049  0.2729 -1.0593  0.0139
55993SOL     OW75093  10.374   7.548   5.009  0.4241  0.5336  0.3957
55993SOL    HW175094  10.433   7.573   4.938  1.0426 -0.1788  0.6296
55993SOL    HW275095  10.287   7.571   4.979  0.4964 -1.1379 -1.2596
55994SOL     OW75096   0.797   8.779   0.031  0.3481 -0.2112  0.0966
55994SOL    HW175097   0.885   8.755   0.004 -0.6850 -2.0333 -2.0268
55994SOL    HW275098   0.788   8.871   0.007  0.5376 -0.9345 -3.2677
55995SOL     OW75099   9.430   0.396  12.545 -0.5423 -0.0742 -0.0882
55995SOL    HW175100   9.366   0.434  12.484 -1.0240  0.5564  0.7884
55995SOL    HW275101   9.511   0.444  12.526 -0.5657 -0.2074 -0.5488
55996SOL     OW75102  12.750   8.350   9.930 -0.1060  0.2246  0.7121
55996SOL    HW175103  12.663   8.313   9.918 -0.9983  2.0360  1.2790
55996SOL    HW275104  12.792   8.292   9.994  0.6343 -2.9377 -2.3514
55997SOL     OW75105  11.661   4.331   8.760  0.8084  0.3892  0.3011
55997SOL    HW175106  11.739   4.283   8.789 -0.0476  0.4921  3.0443
55997SOL    HW275107  11.634   4.381   8.837  0.4624  3.7467 -1.8170
55998SOL     OW75108  10.190   6.370   0.694  0.1523  0.1213 -0.3124
55998SOL    HW175109  10.176   6.323   0.611 -2.3629 -2.3383  1.2983
55998SOL    HW275110  10.147   6.454   0.681 -1.5389 -0.8066 -1.1022
55999SOL     OW75111   2.232   9.022   5.743 -0.1700  0.3392  0.0232
55999SOL    HW175112   2.302   8.960   5.723 -0.6713 -0.8424  1.6747
55999SOL    HW275113   2.152   8.978   5.712 -0.6919 -0.5504  2.3986
56000SOL     OW75114   9.335   2.224   7.678  0.2134  0.2448  0.0159
56000SOL    HW175115   9.257   2.275   7.658 -0.3272 -0.8521 -0.7522
56000SOL    HW275116   9.400   2.252   7.613 -0.1858 -0.2581 -0.6109
56001SOL     OW75117   1.954   9.278   2.070 -0.0501  0.0194 -0.4726
56001SOL    HW175118   2.000   9.354   2.105 -1.1512  0.1072  0.8998
56001SOL    HW275119   1.982   9.272   1.979 -1.9509  3.6795 -1.4895
56002SOL     OW75120   2.123   3.570   0.409  0.1920  0.0578  0.2971
56002SOL    HW175121   2.100   3.514   0.336 -0.4070  1.1734 -0.3974
56002SOL    HW275122   2.211   3.542   0.434 -0.0467 -1.0898 -0.1049
56003SOL     OW75123   3.695   5.319   9.017 -0.0816 -0.3213  0.0650
56003SOL    HW175124   3.610   5.283   8.989  1.6288 -2.8798 -2.4412
56003SOL    HW275125   3.722   5.375   8.944  0.7314 -0.1981  0.4574
56004SOL     OW75126   7.446   1.529   2.330  0.0501 -0.3019  0.1092
56004SOL    HW175127   7.516   1.514   2.267  0.5544 -0.6784  0.7412
56004SOL    HW275128   7.368   1.496   2.287  0.2019  0.3927 -0.7246
56005SOL     OW75129   7.455  12.220   3.960  0.0901  0.2011 -0.2373
56005SOL    HW175130   7.473  12.157   3.890  0.5203  0.3971 -0.3086
56005SOL    HW275131   7.533  12.215   4.016 -1.0737 -1.4049  1.3339
56006SOL     OW75132   5.568  12.108  11.547  0.1758  0.1896 -0.1832
56006SOL    HW175133   5.551  12.158  11.467  2.5076  0.9509 -0.2647
56006SOL    HW275134   5.502  12.141  11.609  0.0585  1.5618 -0.9856
56007SOL     OW75135   7.617  12.069   8.846  0.7373 -0.1995  0.3184
56007SOL    HW175136   7.657  12.115   8.772 -0.6760 -0.7194 -0.8169
56007SOL    HW275137   7.560  12.004   8.806  0.9170 -1.3794  1.8915
56008SOL     OW75138   2.470   8.465   4.858 -0.0642 -0.2255 -0.0004
56008SOL    HW175139   2.562   8.462   4.832 -0.2744 -1.4226 -0.7148
56008SOL    HW275140   2.449   8.374   4.879 -1.1910 -0.0357 -0.2593
56009SOL     OW75141   7.515   6.923   6.166 -0.3038 -0.1214 -0.0585
56009SOL    HW175142   7.448   6.972   6.119 -0.1718  0.7030  0.5813
56009SOL    HW275143   7.479   6.912   6.254  0.1527 -0.1738  0.1257
56010SOL     OW75144   5.428   6.624   1.811  0.1785  0.0009 -0.3422
56010SOL    HW175145   5.497   6.559   1.799  0.6105  0.4959 -0.5848
56010SOL    HW275146   5.348   6.573   1.817  0.2994 -0.4661 -2.2356
56011SOL     OW75147   8.567   7.742   9.481 -0.7732 -0.3311 -0.5500
56011SOL    HW175148   8.479   7.714   9.455 -0.6077 -0.8418 -0.5712
56011SOL    HW275149   8.570   7.725   9.575 -1.1361  0.8823 -0.3006
56012SOL     OW75150   1.130   3.424  12.763 -0.6116 -0.2211  0.0668
56012SOL    HW175151   1.153   3.442  12.671 -2.4639 -1.0683 -0.6225
56012SOL    HW275152   1.115   3.330  12.766  0.0778 -0.3025  1.4288
56013SOL     OW75153  11.091   5.671  12.250  0.2749 -0.2301  0.7231
56013SOL    HW175154  11.047   5.673  12.165 -1.0352  0.4307  1.3827
56013SOL    HW275155  11.094   5.578  12.272  0.8786 -0.4353 -0.1476
56014SOL     OW75156   8.995   6.053  11.193  0.1211 -0.7036 -0.6234
56014SOL    HW175157   9.050   6.130  11.207  1.4589 -1.0197 -3.4398
56014SOL    HW275158   9.046   5.980  11.228  0.5951 -0.7364 -1.3568
56015SOL     OW75159   8.829   2.819  12.676  0.3909  0.2701  0.0175
56015SOL    HW175160   8.920   2.792  12.664  0.0424 -1.0166  0.1085
56015SOL    HW275161   8.821   2.838  12.770  0.3183 -0.6452  0.2068
56016SOL     OW75162   2.826   6.344   0.223 -0.0308  0.4410  0.1161
56016SOL    HW175163   2.807   6.409   0.155  0.2600  0.7311  0.3135
56016SOL    HW275164   2.863   6.270   0.174  1.5568  1.2044  0.0935
56017SOL     OW75165  10.511   9.550   0.341 -0.6533 -0.2071 -0.0855
56017SOL    HW175166  10.516   9.643   0.361 -1.4455  0.1277 -1.3286
56017SOL    HW275167  10.587   9.532   0.286 -0.0757 -0.4824  0.7801
56018SOL     OW75168   7.260   6.856  10.549  0.0223  0.3345 -0.0817
56018SOL    HW175169   7.342   6.905  10.558 -0.5706  1.3348 -0.0745
56018SOL    HW275170   7.220   6.888  10.469 -0.2483 -0.3466 -0.2341
56019SOL     OW75171   7.058   5.472   4.648 -0.2719 -0.1428 -0.5004
56019SOL    HW175172   7.131   5.410   4.640  0.9776  1.2756 -0.6934
56019SOL    HW275173   7.040   5.476   4.742 -0.0354 -0.4273 -0.4409
56020SOL     OW75174   9.561   4.676   1.047 -0.0808 -0.1375  0.6818
56020SOL    HW175175   9.611   4.708   1.122 -2.2699  2.9834  1.0656
56020SOL    HW275176   9.626   4.639   0.988  2.2806  1.1984  2.2755
56021SOL     OW75177   7.275   1.816  11.362  0.2702  0.1849 -0.3313
56021SOL    HW175178   7.351   1.807  11.419 -0.6327 -0.4351  0.8245
56021SOL    HW275179   7.282   1.745  11.299 -0.3965 -1.1652  1.0598
56022SOL     OW75180   3.919   1.883   7.104 -0.6127  0.0024  0.3996
56022SOL    HW175181   3.992   1.905   7.161 -0.1116  0.2603 -0.3306
56022SOL    HW275182   3.889   1.967   7.070 -0.1285 -0.2352 -0.6546
56023SOL     OW75183   3.656  12.833   5.829  0.4492  0.3723 -0.9293
56023SOL    HW175184   3.573  12.804   5.791  0.4897 -0.5946 -0.2974
56023SOL    HW275185   3.684  12.905   5.772 -1.3991  1.5126 -0.4526
56024SOL     OW75186   4.748   6.207  11.374  0.3727  0.0853 -0.1991
56024SOL    HW175187   4.744   6.123  11.328  1.2167 -0.1565  0.1482
56024SOL    HW275188   4.825   6.200  11.430  1.2229  1.5633 -1.1091
56025SOL     OW75189  10.329  12.617  11.366 -0.4822 -0.0727  0.8354
56025SOL    HW175190  10.412  12.640  11.408  0.2599  2.1516 -1.5595
56025SOL    HW275191  10.263  12.667  11.415 -0.8361 -3.1157  3.8158
56026SOL     OW75192   0.314   3.295   9.666  0.9963  0.0990 -0.0567
56026SOL    HW175193   0.366   3.220   9.695  0.8137  0.2386  0.6440
56026SOL    HW275194   0.356   3.371   9.706 -0.8905  0.0503  2.2580
56027SOL     OW75195   5.894   4.621  10.657 -0.2043 -0.8089 -0.5196
56027SOL    HW175196   5.972   4.650  10.609  1.0040 -1.8302  0.7449
56027SOL    HW275197   5.858   4.551  10.603  0.2737 -0.9251 -0.6978
56028SOL     OW75198  11.784   9.452   9.482  0.1572  0.4479 -0.3731
56028SOL    HW175199  11.817   9.410   9.403 -0.4471  0.6924 -0.7633
56028SOL    HW275200  11.745   9.534   9.451 -1.6557 -0.2519 -0.0800
56029SOL     OW75201   8.407   2.343   7.070 -0.0376  0.1453 -0.4714
56029SOL    HW175202   8.379   2.433   7.082  0.0907 -0.0081  1.4019
56029SOL    HW275203   8.332   2.290   7.098  0.9522 -0.2708  1.6310
56030SOL     OW75204   9.589   1.413   6.387 -0.4331 -0.0061 -0.0347
56030SOL    HW175205   9.649   1.418   6.312  0.3498  0.2227  0.5994
56030SOL    HW275206   9.585   1.320   6.408  0.0545  0.0197  0.1929
56031SOL     OW75207  11.313   1.385   6.923  0.1172 -0.2842 -0.1663
56031SOL    HW175208  11.280   1.465   6.964  0.3754 -0.3657  0.2044
56031SOL    HW275209  11.330   1.410   6.832  0.6257  0.2045  0.0584
56032SOL     OW75210   9.191  10.125   4.174  0.1081 -0.0664 -0.2341
56032SOL    HW175211   9.230  10.037   4.182 -0.5192 -0.5474 -2.0352
56032SOL    HW275212   9.209  10.151   4.084 -1.5355  0.7535 -0.3667
56033SOL     OW75213   7.257   0.109   3.103  0.0238  0.3448 -0.4298
56033SOL    HW175214   7.263   0.038   3.168 -2.9955 -0.9710 -1.3676
56033SOL    HW275215   7.346   0.120   3.071  0.8376 -2.1594  0.6741
56034SOL     OW75216  10.441   6.544   1.011 -0.4700  0.0118  0.5890
56034SOL    HW175217  10.445   6.601   0.934  0.7444 -1.0170 -0.1665
56034SOL    HW275218  10.478   6.596   1.082 -3.4017  1.6794  1.0175
56035SOL     OW75219   8.071   1.775   4.181 -0.0301  0.2624 -0.9456
56035SOL    HW175220   7.991   1.740   4.218 -0.6197  1.9384 -0.5531
56035SOL    HW275221   8.140   1.714   4.210 -0.7428  0.3908  1.1860
56036SOL     OW75222   7.507   5.798  11.606  0.0319  0.1510 -0.0724
56036SOL    HW175223   7.567   5.740  11.558 -1.5633 -1.4530 -0.2385
56036SOL    HW275224   7.543   5.801  11.694 -0.6267 -2.4417  0.3860
56037SOL     OW75225   4.933   7.087   4.397 -0.0909  0.2396 -0.0769
56037SOL    HW175226   4.989   7.070   4.473  0.7765 -0.5140 -0.8574
56037SOL    HW275227   4.844   7.070   4.429  0.3376 -1.0289  0.5239
56038SOL     OW75228   0.020   0.320   7.902  0.1238 -0.2367  0.1100
56038SOL    HW175229   0.105   0.341   7.864  0.7974 -1.3475  0.9490
56038SOL    HW275230   0.010   0.226   7.887 -1.0607 -0.0726 -0.1740
56039SOL     OW75231  10.080   5.544  12.871 -0.0767  0.8080  0.0807
56039SOL    HW175232  10.037   5.487  12.934  0.5933 -0.1518 -0.2971
56039SOL    HW275233  10.141   5.596  12.923 -0.4491  0.9470  0.3850
56040SOL     OW75234   6.322   1.442  10.991 -0.2128  0.0234 -0.0979
56040SOL    HW175235   6.366   1.485  10.917 -1.1493  1.1153 -0.0510
56040SOL    HW275236   6.327   1.507  11.061 -0.9291 -0.2806  0.2325
56041SOL     OW75237   8.979   7.225   7.228  0.4890 -0.0103  0.0505
56041SOL    HW175238   8.970   7.270   7.144  1.1952 -0.1470 -0.1045
56041SOL    HW275239   8.890   7.222   7.263  0.4464  1.7399  0.1835
56042SOL     OW75240   0.082   7.630   0.342  0.2269  0.9959 -0.3970
56042SOL    HW175241   0.016   7.634   0.411  0.5741  0.7758 -0.0496
56042SOL    HW275242   0.122   7.544   0.351 -0.1868  0.6930 -1.3061
56043SOL     OW75243  10.315   0.486   9.708  0.1513 -0.0484 -0.0407
56043SOL    HW175244  10.335   0.514   9.619  0.3291 -1.7842 -0.5965
56043SOL    HW275245  10.231   0.528   9.729  1.3043  2.3884 -0.0279
56044SOL     OW75246   4.973   2.434   2.501  0.5051 -0.0721 -0.2174
56044SOL    HW175247   5.024   2.354   2.515 -1.4116 -1.4373 -0.6487
56044SOL    HW275248   4.909   2.411   2.434 -0.0051  1.8871 -0.4760
56045SOL     OW75249   5.208   2.858   9.178 -0.0846 -0.1778  1.0838
56045SOL    HW175250   5.148   2.900   9.241 -0.0701  0.0611  0.9384
56045SOL    HW275251   5.150   2.809   9.119 -0.3433  1.8742 -0.4576
56046SOL     OW75252   3.663  12.517   5.122 -0.3024 -0.2485 -0.4644
56046SOL    HW175253   3.753  12.550   5.128 -0.3663 -0.1663  0.1518
56046SOL    HW275254   3.665  12.454   5.050  0.4432 -0.8464  0.0546
56047SOL     OW75255   1.320  10.311   8.841  0.0715  0.1092  0.1867
56047SOL    HW175256   1.360  10.283   8.923 -1.1854 -0.3784  0.6580
56047SOL    HW275257   1.320  10.233   8.786 -1.5384 -0.3310  0.7409
56048SOL     OW75258  10.400   1.493   3.064 -0.4436 -0.2324  0.1696
56048SOL    HW175259  10.365   1.568   3.016  0.4798  0.3467  0.3698
56048SOL    HW275260  10.328   1.465   3.121 -1.5897 -0.9889 -1.5625
56049SOL     OW75261   0.427   8.124   6.374 -0.0760  0.2455  0.6490
56049SOL    HW175262   0.428   8.215   6.406  1.0748  0.7284 -0.6488
56049SOL    HW275263   0.350   8.119   6.318  0.1612  0.5890  0.2896
56050SOL     OW75264   8.561   0.077   2.834 -0.2480 -0.1072 -0.3134
56050SOL    HW175265   8.492   0.103   2.895 -1.3276 -1.1928 -1.0277
56050SOL    HW275266   8.574   0.153   2.777  0.7031  0.8859  1.1465
56051SOL     OW75267   8.069   7.296   2.325  0.7912 -0.4164  0.5134
56051SOL    HW175268   8.126   7.367   2.296 -0.1208  0.1928  0.1461
56051SOL    HW275269   8.064   7.237   2.250  0.0814  0.0991  0.1372
56052SOL     OW75270   8.036  10.376   5.642 -0.3427 -0.0989 -0.3442
56052SOL    HW175271   7.971  10.317   5.603  0.3550 -2.0426  1.2632
56052SOL    HW275272   8.112  10.370   5.584 -0.9397  0.7848 -1.2488
56053SOL     OW75273   0.112  12.698   8.505  0.6993  0.0298 -0.2789
56053SOL    HW175274   0.021  12.729   8.513  0.6290 -0.0733 -0.6935
56053SOL    HW275275   0.111  12.641   8.429  1.1466  0.1321 -0.3598
56054SOL     OW75276  11.198  10.421  11.932 -0.3552  0.0289 -0.2408
56054SOL    HW175277  11.222  10.439  11.841 -0.6268 -0.6144 -0.4488
56054SOL    HW275278  11.133  10.488  11.953  0.7199  1.0412 -0.0563
56055SOL     OW75279  12.024   3.755   3.784 -0.0666 -0.0393 -0.1900
56055SOL    HW175280  11.963   3.686   3.810 -1.6443  1.6664  0.8944
56055SOL    HW275281  12.043   3.737   3.692  0.7763 -2.7353  0.4121
56056SOL     OW75282  10.521  11.898  12.677 -0.8194  0.3645  0.2361
56056SOL    HW175283  10.428  11.887  12.655 -0.8868  1.2206  0.0375
56056SOL    HW275284  10.523  11.895  12.773 -1.1989  1.2983  0.2855
56057SOL     OW75285  10.366   2.693  12.328 -0.2629 -0.1181 -0.1744
56057SOL    HW175286  10.344   2.645  12.249  1.3830 -1.1846 -0.0228
56057SOL    HW275287  10.326   2.779  12.315 -2.2039 -1.0915 -0.9952
56058SOL     OW75288   9.741   1.286   4.421  0.0371  0.2229  0.0559
56058SOL    HW175289   9.683   1.321   4.489 -1.2371  0.0586 -0.9188
56058SOL    HW275290   9.705   1.200   4.400 -1.0106  1.1873 -2.4240
56059SOL     OW75291   2.577  10.667   8.647  0.1470  0.3169 -0.0036
56059SOL    HW175292   2.593  10.689   8.555 -1.8945  1.6573 -0.0996
56059SOL    HW275293   2.632  10.729   8.696  2.0292 -1.0687 -0.2619
56060SOL     OW75294   2.897  12.200   0.611 -0.0833 -0.5494 -0.3104
56060SOL    HW175295   2.844  12.173   0.537 -0.9058  0.3514 -0.0730
56060SOL    HW275296   2.985  12.166   0.592  0.1655  1.1159 -2.5365
56061SOL     OW75297   1.923   7.662   1.998 -0.3090 -0.1563 -0.5264
56061SOL    HW175298   1.990   7.712   2.044 -0.3027  0.4139 -1.1323
56061SOL    HW275299   1.935   7.686   1.906 -0.3204 -1.2657 -0.8225
56062SOL     OW75300   0.477   6.049   3.853 -0.0513 -0.2373 -0.4472
56062SOL    HW175301   0.490   6.143   3.866 -0.9172  0.0666 -1.5993
56062SOL    HW275302   0.534   6.028   3.779  1.7057 -1.0752  1.0592
56063SOL     OW75303  12.161   7.646   0.993 -0.0091  0.1407  0.3092
56063SOL    HW175304  12.103   7.577   0.962 -1.5841  1.7473 -0.5052
56063SOL    HW275305  12.229   7.652   0.927 -1.4445  1.2276 -1.1388
56064SOL     OW75306   4.119   2.827   5.240  0.2966 -0.2261  0.0284
56064SOL    HW175307   4.182   2.883   5.285  1.1843 -0.5761 -0.7370
56064SOL    HW275308   4.100   2.757   5.302  1.6402 -0.8036 -0.1695
56065SOL     OW75309   4.550  10.230   7.634 -0.0209  0.2734  0.2003
56065SOL    HW175310   4.525  10.216   7.543  1.1320  1.2375 -0.2967
56065SOL    HW275311   4.644  10.249   7.631 -0.2393  1.7951  1.4090
56066SOL     OW75312  12.145   4.396   2.450 -0.9682  0.1517  0.2335
56066SOL    HW175313  12.148   4.380   2.356 -1.1431  1.4490 -0.0216
56066SOL    HW275314  12.052   4.398   2.471 -0.9122 -1.2673  0.6613
56067SOL     OW75315   6.571   2.062  11.170  0.2324 -0.1373  0.0893
56067SOL    HW175316   6.507   2.057  11.099 -0.3972  0.3227  0.6187
56067SOL    HW275317   6.655   2.042  11.128  0.1298  1.7683 -1.1386
56068SOL     OW75318   8.467   4.111   5.706  0.0259 -0.1540 -0.0078
56068SOL    HW175319   8.541   4.089   5.651  0.1020  0.2063 -0.0497
56068SOL    HW275320   8.506   4.145   5.787 -0.0831  1.6255 -0.6678
56069SOL     OW75321   1.028   8.926   3.724 -0.4297 -0.5247  0.0090
56069SOL    HW175322   1.072   8.920   3.639  0.1259 -1.3597  0.3413
56069SOL    HW275323   1.067   8.855   3.776 -0.8897 -0.1387  0.9005
56070SOL     OW75324   3.224   4.370   6.755 -0.5598  0.0729 -0.2914
56070SOL    HW175325   3.205   4.427   6.829 -3.1686 -1.4644  0.3113
56070SOL    HW275326   3.230   4.430   6.680  0.0397  1.4247  0.8006
56071SOL     OW75327  12.881  12.267   6.113  0.2280  0.6012 -0.5748
56071SOL    HW175328  12.834  12.229   6.039  0.5174 -0.9921  0.0268
56071SOL    HW275329  12.956  12.310   6.074  0.2463 -0.0097 -1.2372
56072SOL     OW75330   5.223   6.000   6.201  0.2396 -0.3610  0.1114
56072SOL    HW175331   5.215   6.023   6.108 -0.2322 -2.3066 -0.3843
56072SOL    HW275332   5.248   6.082   6.244  0.3247  0.6264 -1.7009
56073SOL     OW75333   6.075   7.943   1.856 -0.0726 -0.1974 -0.1028
56073SOL    HW175334   6.015   7.979   1.791 -0.1178  1.6002  0.8854
56073SOL    HW275335   6.159   7.985   1.838  0.1144 -0.2995  0.4966
56074SOL     OW75336   8.388   4.113  10.790  0.0079 -0.1008 -0.3995
56074SOL    HW175337   8.318   4.052  10.769  0.0115 -0.3309  0.2385
56074SOL    HW275338   8.343   4.193  10.818  0.0039  0.1374 -1.0704
56075SOL     OW75339  12.562   3.467  11.065  0.2696  0.1939  0.1964
56075SOL    HW175340  12.561   3.485  10.971  0.9108 -1.5726 -0.1983
56075SOL    HW275341  12.472   3.483  11.094  0.0499  0.6789 -0.7280
56076SOL     OW75342   6.671   5.038  12.687  0.2809  0.3911 -0.1635
56076SOL    HW175343   6.709   4.995  12.610  2.1922 -0.1907  1.0216
56076SOL    HW275344   6.604   5.096  12.651  0.8070 -0.1725 -2.2277
56077SOL     OW75345   7.296  12.612   0.370  0.3537  0.5465  0.1446
56077SOL    HW175346   7.335  12.654   0.293 -0.9887 -0.1776 -0.9938
56077SOL    HW275347   7.207  12.648   0.373  0.6785  1.2806  1.9664
56078SOL     OW75348  11.604  10.114   3.867  0.8018 -0.2072  0.0819
56078SOL    HW175349  11.580  10.133   3.776  3.4030  1.0522 -0.4465
56078SOL    HW275350  11.585  10.196   3.914  0.5499 -0.4752  0.4590
56079SOL     OW75351   8.197   4.073  11.273 -1.0328 -0.4831 -0.0477
56079SOL    HW175352   8.144   4.030  11.340  1.1215 -2.0363  0.7535
56079SOL    HW275353   8.205   4.008  11.203  1.7760 -1.2901  0.9261
56080SOL     OW75354   2.551   6.414   4.578  0.5860  0.0352 -0.3522
56080SOL    HW175355   2.611   6.415   4.653 -0.2101 -0.0661  0.2954
56080SOL    HW275356   2.557   6.503   4.543  0.0012  0.4717  0.6188
56081SOL     OW75357   4.906   4.487  10.419  0.6347 -0.0787 -0.4001
56081SOL    HW175358   4.814   4.500  10.441 -0.0751 -0.0971 -3.0267
56081SOL    HW275359   4.936   4.572  10.387  0.8311 -0.6129 -1.7199
56082SOL     OW75360   4.037   3.735   1.941 -0.6748  0.0005 -0.2358
56082SOL    HW175361   4.091   3.808   1.911 -0.4366 -0.4392 -0.8915
56082SOL    HW275362   4.071   3.659   1.894  0.3920 -0.9252  1.8973
56083SOL     OW75363  12.824   9.615  12.458  0.1948 -0.5186  0.0443
56083SOL    HW175364  12.737   9.579  12.440  1.4060 -2.5389 -2.4522
56083SOL    HW275365  12.880   9.578  12.389  2.6972  2.0828  0.5004
56084SOL     OW75366   6.668   1.912   5.183 -0.2698  0.0427 -0.2415
56084SOL    HW175367   6.612   1.955   5.247 -1.1189  0.0443 -0.9656
56084SOL    HW275368   6.628   1.933   5.098  1.8630  1.5861 -0.9401
56085SOL     OW75369   2.122   2.780   9.040  0.7971  0.0265  0.2230
56085SOL    HW175370   2.124   2.712   9.106  1.3358  0.8227  1.0622
56085SOL    HW275371   2.116   2.862   9.089  2.0005  0.6913 -0.6445
56086SOL     OW75372   4.003   4.636   0.892  0.1604 -0.0935  0.1119
56086SOL    HW175373   4.056   4.716   0.890  2.2336 -1.3521  1.1201
56086SOL    HW275374   4.058   4.570   0.850 -1.9283 -0.8124 -1.6608
56087SOL     OW75375   7.830   5.703   9.360  0.1348 -0.2293 -0.1365
56087SOL    HW175376   7.894   5.632   9.348 -1.8655 -1.8046 -2.5440
56087SOL    HW275377   7.850   5.765   9.290  1.5140  1.3947  1.6199
56088SOL     OW75378   8.926   6.137   8.059  0.0921  0.0145 -0.1205
56088SOL    HW175379   8.928   6.219   8.109  1.6914 -0.3955  0.5390
56088SOL    HW275380   8.846   6.144   8.006 -0.3864  1.5085  0.7233
56089SOL     OW75381   4.151   0.616   4.963  0.0082  0.7110  0.1000
56089SOL    HW175382   4.056   0.613   4.958 -0.1229  0.6357  2.0712
56089SOL    HW275383   4.180   0.614   4.871 -1.8867  1.4508 -0.5621
56090SOL     OW75384  12.510   8.596  12.768  0.5389 -0.3988 -0.3602
56090SOL    HW175385  12.474   8.527  12.713  2.0787 -0.4342 -1.4009
56090SOL    HW275386  12.578   8.637  12.714  0.8072  0.8236  0.8381
56091SOL     OW75387   2.835   4.866   4.411 -0.1836  0.0965 -0.0595
56091SOL    HW175388   2.835   4.807   4.487  1.6720 -0.0215 -0.0912
56091SOL    HW275389   2.844   4.807   4.336 -1.5315  0.2481 -0.3657
56092SOL     OW75390  11.848   4.785   9.565 -0.0209  0.4296 -0.3534
56092SOL    HW175391  11.805   4.868   9.586 -1.4868  0.1883 -2.1785
56092SOL    HW275392  11.838   4.732   9.644 -0.5094  1.4015  0.2544
56093SOL     OW75393   3.532   0.729   6.350 -0.2325  0.1611  0.1327
56093SOL    HW175394   3.567   0.723   6.261 -1.3620  0.7632 -0.3644
56093SOL    HW275395   3.481   0.649   6.361 -0.8741  0.5340 -0.1112
56094SOL     OW75396   2.802   9.833   9.065 -0.1294 -0.3674  0.4824
56094SOL    HW175397   2.813   9.756   9.120 -1.1236  0.3822  1.7812
56094SOL    HW275398   2.721   9.818   9.016 -0.7670  0.1805  1.3421
56095SOL     OW75399   7.878   9.807   5.361 -0.9308 -0.3716 -0.2937
56095SOL    HW175400   7.792   9.826   5.397  0.0224  3.4703  0.3936
56095SOL    HW275401   7.917   9.744   5.423 -1.9976  0.4922  1.3152
56096SOL     OW75402   5.946   5.214   9.531 -0.3186 -0.0286  0.1515
56096SOL    HW175403   5.943   5.118   9.529  0.6831 -0.0846 -1.9386
56096SOL    HW275404   6.009   5.236   9.462 -1.6019  2.1788 -0.3816
56097SOL     OW75405  12.726   8.925   6.732  0.3331 -0.4107  0.1016
56097SOL    HW175406  12.739   8.838   6.770  0.5512 -0.8086 -0.8572
56097SOL    HW275407  12.654   8.913   6.670  0.2521  0.1353  0.0935
56098SOL     OW75408  11.875   6.166   7.682  0.0063 -0.2356  0.0632
56098SOL    HW175409  11.848   6.081   7.647 -2.4457  0.1097  0.9666
56098SOL    HW275410  11.961   6.150   7.721  0.4144 -1.8384 -1.3804
56099SOL     OW75411   0.567   9.329  11.051 -0.6799 -0.4568  0.1165
56099SOL    HW175412   0.606   9.370  11.128 -1.2179  0.5958 -0.1524
56099SOL    HW275413   0.628   9.348  10.980  1.0750 -3.4642  0.6317
56100SOL     OW75414   3.561   4.600   7.779  0.2274 -0.0369  0.2006
56100SOL    HW175415   3.534   4.509   7.793 -2.0488  0.1766 -1.8852
56100SOL    HW275416   3.653   4.602   7.803  0.6404 -3.1654 -0.6458
56101SOL     OW75417  11.077   3.833   4.254 -0.0020  0.1998  0.5137
56101SOL    HW175418  11.098   3.921   4.287 -0.4354 -0.2024  1.9257
56101SOL    HW275419  10.987   3.817   4.284 -0.3473 -0.2998 -0.7008
56102SOL     OW75420   2.868   8.659   7.918 -0.2724 -0.7150  0.7189
56102SOL    HW175421   2.783   8.682   7.956 -0.3949 -0.9769  0.6056
56102SOL    HW275422   2.926   8.731   7.944 -0.6758 -0.2206  0.2628
56103SOL     OW75423   9.856   1.108   3.817  0.1688  0.2180 -0.1306
56103SOL    HW175424   9.832   1.050   3.745  1.5944  1.7194 -1.9227
56103SOL    HW275425   9.803   1.187   3.802 -1.1680 -0.2304  1.8205
56104SOL     OW75426   5.427   7.833   4.425  0.6375  0.1274  0.6710
56104SOL    HW175427   5.370   7.870   4.357  1.5183 -0.5073 -0.4544
56104SOL    HW275428   5.372   7.768   4.469  0.5695 -0.7961 -0.6914
56105SOL     OW75429   5.832   3.052   7.297  0.2267  0.0496  0.0990
56105SOL    HW175430   5.747   3.053   7.253  1.1835  1.4739 -1.8838
56105SOL    HW275431   5.818   3.100   7.378 -1.0544 -0.5877  0.2820
56106SOL     OW75432   8.510   8.633   1.066 -0.5042 -0.2341  0.6173
56106SOL    HW175433   8.581   8.571   1.046 -0.0724  0.3713  0.2314
56106SOL    HW275434   8.441   8.579   1.104  0.3718 -0.7597  1.5123
56107SOL     OW75435   9.275   3.277   3.286  0.1496 -0.7486  0.4452
56107SOL    HW175436   9.340   3.263   3.217 -0.0775  0.1001  0.0532
56107SOL    HW275437   9.323   3.319   3.357 -0.1534  0.7648 -0.2186
56108SOL     OW75438   7.036   3.390   7.696  0.4303 -0.1388 -0.4249
56108SOL    HW175439   6.977   3.359   7.628 -2.6314 -0.9618  2.3646
56108SOL    HW275440   7.078   3.311   7.730  0.6148  0.0463 -0.2175
56109SOL     OW75441   4.107   5.104  10.710 -0.6709 -0.1326  0.2420
56109SOL    HW175442   4.047   5.094  10.637  1.1549  1.7032 -1.6442
56109SOL    HW275443   4.058   5.153  10.775 -1.9302 -0.7294 -0.2284
56110SOL     OW75444  10.009   8.847  11.645 -0.3263  0.5034 -0.0848
56110SOL    HW175445   9.972   8.764  11.612 -0.2306  0.8844 -1.1917
56110SOL    HW275446  10.061   8.880  11.572 -1.9275  2.5218 -0.4120
56111SOL     OW75447   5.217  10.529  12.466  0.6746  0.1439  0.6466
56111SOL    HW175448   5.211  10.438  12.496  1.8989 -0.2251 -0.1355
56111SOL    HW275449   5.127  10.559  12.462  0.2802 -0.8432  1.4821
56112SOL     OW75450  10.016   7.253   4.452 -0.6050  0.3056 -0.7150
56112SOL    HW175451   9.998   7.270   4.545 -0.4844 -0.5250 -0.5350
56112SOL    HW275452   9.977   7.167   4.436  0.7427 -0.2688 -1.0364
56113SOL     OW75453   1.133   4.747   7.423  0.6375 -0.3904  0.0639
56113SOL    HW175454   1.076   4.800   7.367 -0.3460 -0.9093  0.5558
56113SOL    HW275455   1.077   4.719   7.495  1.2560 -1.7290  0.0590
56114SOL     OW75456   1.682  11.454   8.726 -0.5435  0.4997  0.0254
56114SOL    HW175457   1.768  11.467   8.687 -2.0173  1.2623 -3.2921
56114SOL    HW275458   1.658  11.541   8.760 -0.0206  0.2775  0.9866
56115SOL     OW75459  11.337   4.148   5.193 -0.6115  0.2677 -0.4711
56115SOL    HW175460  11.315   4.154   5.099 -1.3537 -0.1615 -0.3305
56115SOL    HW275461  11.287   4.073   5.225  0.4149 -0.2044  0.0650
56116SOL     OW75462  10.037   2.839   3.481 -0.3258 -0.6007  0.7987
56116SOL    HW175463  10.073   2.913   3.432 -3.2795  0.7328  0.3799
56116SOL    HW275464  10.016   2.774   3.414 -3.1485  0.6966  0.2422
56117SOL     OW75465   1.977   1.757   2.706  0.0216 -0.3300 -0.7046
56117SOL    HW175466   1.912   1.804   2.758  1.1905 -0.5275  1.0145
56117SOL    HW275467   2.057   1.762   2.758  0.9763 -1.5125 -1.9896
56118SOL     OW75468  10.916   9.308   6.728  0.6039  0.0167 -0.5471
56118SOL    HW175469  10.999   9.356   6.726  0.0687  0.9713 -0.2648
56118SOL    HW275470  10.856   9.362   6.676 -0.0587 -0.2577 -0.0761
56119SOL     OW75471   0.103   8.178   4.805 -0.4642 -0.4384  0.5316
56119SOL    HW175472   0.083   8.137   4.721  3.7021 -0.4033 -0.6779
56119SOL    HW275473   0.075   8.269   4.794 -0.1740 -0.4858 -0.7886
56120SOL     OW75474   5.159  11.691   8.196  0.3250  0.2742 -0.1555
56120SOL    HW175475   5.227  11.676   8.130  1.6198  0.0637  1.1717
56120SOL    HW275476   5.202  11.743   8.263 -0.7552 -0.1031  0.8650
56121SOL     OW75477   1.080   2.529   2.659 -0.1794  0.4720  0.5069
56121SOL    HW175478   0.989   2.531   2.629 -0.3225 -0.3206  0.8391
56121SOL    HW275479   1.095   2.437   2.681  0.5152  0.7014  1.0206
56122SOL     OW75480   4.009   4.852  12.023  0.2849  0.2342  0.0751
56122SOL    HW175481   4.056   4.776  11.991  0.3019 -0.0804  0.8320
56122SOL    HW275482   3.981   4.828  12.112 -3.6704 -0.6960 -1.1829
56123SOL     OW75483   7.245   9.633  11.002 -0.4048  0.9687 -0.2139
56123SOL    HW175484   7.274   9.565  11.063 -1.5935  0.3224 -0.3328
56123SOL    HW275485   7.322   9.687  10.987 -0.0757  1.1386  1.8517
56124SOL     OW75486   2.910  12.347   5.875  0.2917 -0.0090 -0.6804
56124SOL    HW175487   2.984  12.376   5.928  0.2698 -2.2172  0.6589
56124SOL    HW275488   2.949  12.313   5.795  0.3101  3.5992 -2.3950
56125SOL     OW75489   0.195   9.631   0.459 -0.0551  0.3111  0.1537
56125SOL    HW175490   0.264   9.564   0.464 -0.0401  0.3878  1.1719
56125SOL    HW275491   0.241   9.713   0.476 -0.0095  0.6496 -1.4457
56126SOL     OW75492  11.778   0.532   3.868  0.2320 -0.2040  0.0191
56126SOL    HW175493  11.689   0.530   3.903 -0.3817  2.6471 -1.1366
56126SOL    HW275494  11.824   0.463   3.917 -3.0616 -3.3272 -0.8736
56127SOL     OW75495   5.765  12.800   2.853  0.0698 -0.0164 -0.1192
56127SOL    HW175496   5.829  12.811   2.783  1.3997 -1.7301  0.7320
56127SOL    HW275497   5.819  12.786   2.932 -1.3671 -0.1707  0.8699
56128SOL     OW75498   5.117   4.653   3.039  0.0011  0.2048 -0.8885
56128SOL    HW175499   5.199   4.639   3.086 -0.8815  1.7011  1.2146
56128SOL    HW275500   5.143   4.656   2.947  2.3896  1.1146 -0.2554
56129SOL     OW75501   4.048   9.680   5.860  0.0778  0.3803  0.4506
56129SOL    HW175502   4.020   9.590   5.846  1.9825 -0.2315  0.4121
56129SOL    HW275503   3.967   9.727   5.881 -0.9559 -1.2993  0.3623
56130SOL     OW75504   5.581   0.758  11.787  0.1395  0.3191  0.1281
56130SOL    HW175505   5.556   0.670  11.814 -1.3802  0.0955 -1.7515
56130SOL    HW275506   5.675   0.752  11.770 -0.1304 -1.3225 -1.0996
56131SOL     OW75507  11.196   2.770   9.916 -0.3070  0.1360 -0.1662
56131SOL    HW175508  11.158   2.847   9.873 -0.5689  0.2395  0.2423
56131SOL    HW275509  11.238   2.722   9.845  0.1269  0.8117 -0.3818
56132SOL     OW75510  10.412   7.916   9.995 -0.2006  0.0820 -0.3615
56132SOL    HW175511  10.388   7.967   9.918  1.8841 -0.0490 -1.1721
56132SOL    HW275512  10.346   7.846   9.998 -1.0319  0.7834 -1.2945
56133SOL     OW75513   1.806   1.378   2.796  0.0649  0.3261 -0.0111
56133SOL    HW175514   1.825   1.456   2.848  2.0322 -0.2685  0.2669
56133SOL    HW275515   1.878   1.374   2.732 -0.0586 -1.1730 -0.1000
56134SOL     OW75516   4.735   9.179   0.129  0.5812  0.3507 -0.4977
56134SOL    HW175517   4.819   9.141   0.153  0.6012  0.3122 -0.6307
56134SOL    HW275518   4.756   9.256   0.077  0.5305  0.1989 -0.7438
56135SOL     OW75519  10.681   1.265  10.954  0.2906 -0.0633  0.0229
56135SOL    HW175520  10.628   1.314  11.017 -0.4706 -2.1916  1.1723
56135SOL    HW275521  10.760   1.241  11.003 -0.1281 -1.4052  0.0757
56136SOL     OW75522   3.451   5.647  12.628 -0.0943  0.4810 -0.6521
56136SOL    HW175523   3.538   5.655  12.668  0.5231 -0.4287 -1.7614
56136SOL    HW275524   3.450   5.560  12.588 -1.5156  0.4863 -0.6978
56137SOL     OW75525  12.549   6.747   2.730  0.0837  0.4990 -0.2482
56137SOL    HW175526  12.633   6.791   2.745 -0.4073  1.0636  0.9823
56137SOL    HW275527  12.504   6.804   2.667  0.8130 -0.0967 -1.3504
56138SOL     OW75528  10.578   6.701  12.934 -0.5048 -0.0889  0.1623
56138SOL    HW175529  10.602   6.711  12.842 -1.3178  0.6355  0.0148
56138SOL    HW275530  10.493   6.744  12.942  0.3371  1.4518  1.6086
56139SOL     OW75531   9.373  10.223   7.842  0.9540  0.1997 -0.6988
56139SOL    HW175532   9.335  10.221   7.930  1.4472 -0.1972 -0.4859
56139SOL    HW275533   9.438  10.293   7.846  2.2662 -0.9682 -0.1691
56140SOL     OW75534  11.540   4.783   5.263  0.1472  0.3932 -0.3719
56140SOL    HW175535  11.549   4.836   5.343  1.1692 -0.3771  0.0541
56140SOL    HW275536  11.541   4.847   5.192  0.3345  1.0235  0.1802
56141SOL     OW75537   6.302   8.548  11.566 -0.6551  0.4841  0.0110
56141SOL    HW175538   6.332   8.563  11.476 -0.5537  1.4348  0.1909
56141SOL    HW275539   6.215   8.588  11.569 -0.0804  1.7475  0.7097
56142SOL     OW75540   2.796   0.519   5.547  0.3208  0.1364  1.0424
56142SOL    HW175541   2.785   0.425   5.530 -1.9031  0.3665  0.9210
56142SOL    HW275542   2.728   0.539   5.611 -0.7789  2.1297 -0.6674
56143SOL     OW75543   2.921   1.950  10.872  0.3693 -0.0656  0.0841
56143SOL    HW175544   2.983   2.015  10.838  2.6043 -1.6960  0.8174
56143SOL    HW275545   2.916   1.883  10.803  0.5285 -0.6292  0.6146
56144SOL     OW75546   8.922   7.067   2.506 -0.5679 -0.9685 -0.1326
56144SOL    HW175547   8.921   7.133   2.576 -0.6754  2.8806 -3.3808
56144SOL    HW275548   9.015   7.049   2.492 -0.5653 -2.1233  1.2383
56145SOL     OW75549   5.261  10.239   4.404 -0.4347  0.0965  0.5113
56145SOL    HW175550   5.311  10.280   4.334  1.5881  0.8093  2.2468
56145SOL    HW275551   5.317  10.168   4.436 -1.4116 -0.3756  1.2490
56146SOL     OW75552   8.388   4.129   6.405  0.0739 -0.4084  0.0874
56146SOL    HW175553   8.293   4.118   6.401  0.0881 -1.8176  2.0185
56146SOL    HW275554   8.407   4.142   6.498  1.7682  0.0869 -0.2860
56147SOL     OW75555   9.552   4.432   1.283 -0.8075 -0.3848 -0.0776
56147SOL    HW175556   9.500   4.363   1.241  2.0749 -2.4927 -0.4455
56147SOL    HW275557   9.549   4.505   1.221 -1.7915 -1.0950 -0.9026
56148SOL     OW75558  11.277   3.582   0.088  0.0347 -0.1418  0.3802
56148SOL    HW175559  11.263   3.676   0.080  1.0222  0.0022  0.2608
56148SOL    HW275560  11.196   3.549   0.126  0.5819  1.0877  2.7634
56149SOL     OW75561  11.544   0.217   6.708 -0.2859 -0.0718 -0.0400
56149SOL    HW175562  11.563   0.146   6.769 -1.0708  0.6551  1.1066
56149SOL    HW275563  11.484   0.274   6.756 -1.4635  0.1952 -1.7426
56150SOL     OW75564   7.005  10.424   5.762  0.4657  0.0454  0.0844
56150SOL    HW175565   6.948  10.466   5.827 -0.2943  1.7871 -1.5961
56150SOL    HW275566   7.075  10.487   5.747  1.2656 -0.8371  0.0201
56151SOL     OW75567  12.061   0.361   5.001  0.2141 -0.2491  0.1577
56151SOL    HW175568  12.123   0.420   5.043  0.7429 -0.8486  0.2418
56151SOL    HW275569  11.977   0.378   5.045  0.8227 -1.1239  1.7686
56152SOL     OW75570   0.922  10.484   5.683  0.2634  0.3578  0.1417
56152SOL    HW175571   0.837  10.443   5.698  0.5985 -0.9386 -1.1707
56152SOL    HW275572   0.973  10.464   5.761 -0.9335  2.0791  1.4248
56153SOL     OW75573   8.962   1.407   7.771 -0.3807  0.7346 -0.0263
56153SOL    HW175574   9.038   1.449   7.729 -1.2756  1.3354 -1.1133
56153SOL    HW275575   8.898   1.399   7.701 -1.1522 -0.2281  0.7602
56154SOL     OW75576   4.053   9.810   8.357 -0.1985  0.2976 -0.6460
56154SOL    HW175577   4.114   9.879   8.331  1.0060 -1.1083 -1.7256
56154SOL    HW275578   4.102   9.729   8.345 -2.9902 -1.1560 -3.9771
56155SOL     OW75579   8.299   0.499   3.006 -0.2808 -0.0846  0.3313
56155SOL    HW175580   8.306   0.526   3.098 -0.7664  0.9890  0.0625
56155SOL    HW275581   8.389   0.506   2.972 -0.3440  0.8754  0.3551
56156SOL     OW75582  12.861   9.871   8.388 -0.3601 -0.1010  0.2762
56156SOL    HW175583  12.779   9.902   8.350  0.1801  0.6668 -0.2851
56156SOL    HW275584  12.835   9.830   8.470 -1.2375  0.7192  0.4239
56157SOL     OW75585  10.974   7.484  11.536 -0.2320 -0.5410 -0.1499
56157SOL    HW175586  10.963   7.397  11.574 -0.3449 -0.3407  0.2816
56157SOL    HW275587  11.069   7.495  11.528 -0.1629 -0.1793  1.0355
56158SOL     OW75588   0.238   2.683  12.911 -0.3003  0.0666  0.5669
56158SOL    HW175589   0.259   2.590  12.921  1.9000  0.4886  0.2247
56158SOL    HW275590   0.159   2.683  12.857  2.0377 -1.6190 -3.2812
56159SOL     OW75591  12.947  12.948   3.756  0.0067 -0.1661  0.2343
56159SOL    HW175592  12.902  12.905   3.829 -0.5347  2.1424  1.3380
56159SOL    HW275593  13.030  12.978   3.793  0.5102 -0.5081 -0.5925
56160SOL     OW75594   9.783   6.410  12.893 -0.3203 -0.2941 -0.1391
56160SOL    HW175595   9.714   6.388  12.955  0.5635  1.2061  1.4982
56160SOL    HW275596   9.858   6.359  12.922  0.4766  1.3809  0.9643
56161SOL     OW75597   3.780   2.273  10.520  0.6127  0.1836 -0.5230
56161SOL    HW175598   3.869   2.280  10.553  0.8520 -0.8785 -0.9157
56161SOL    HW275599   3.725   2.275  10.598  0.7641  3.3198 -0.3771
56162SOL     OW75600   7.212   7.915   9.773 -0.1631  0.4501 -0.2664
56162SOL    HW175601   7.289   7.886   9.822 -0.4872  0.3837  0.2056
56162SOL    HW275602   7.167   7.834   9.748 -0.1282  0.4918 -0.4673
56163SOL     OW75603  11.256   9.491   7.758 -0.0823  0.6338  0.2023
56163SOL    HW175604  11.318   9.457   7.693 -0.1617  0.3832  0.2591
56163SOL    HW275605  11.202   9.416   7.782 -0.8259  0.9929 -0.3106
56164SOL     OW75606   0.047  12.801   5.509 -0.5715  0.2607  0.0988
56164SOL    HW175607   0.114  12.739   5.478  1.0405  1.6712  0.6097
56164SOL    HW275608   0.097  12.868   5.556 -2.3157  1.6791  0.0016
56165SOL     OW75609   8.760  11.692   4.668 -0.2852 -0.0699 -0.2501
56165SOL    HW175610   8.833  11.752   4.682 -0.6396  0.7882 -1.8469
56165SOL    HW275611   8.794  11.607   4.696  0.5962  0.6545  1.0253
56166SOL     OW75612   0.864   7.843   9.920 -0.0503 -0.0584 -0.1082
56166SOL    HW175613   0.877   7.920   9.974  1.0757  0.5966 -1.2584
56166SOL    HW275614   0.935   7.784   9.944  0.8110  0.4823 -1.2567
56167SOL     OW75615   3.149   3.947  11.865  0.1604  0.1536  0.2600
56167SOL    HW175616   3.179   3.943  11.775 -1.5401 -1.2914 -0.3089
56167SOL    HW275617   3.177   3.863  11.903 -0.3177  0.1736  0.6686
56168SOL     OW75618   1.004   3.733   6.056 -0.1516  0.0108 -0.0374
56168SOL    HW175619   0.995   3.766   5.967  0.0922  0.8841  0.2443
56168SOL    HW275620   1.098   3.716   6.067 -0.0107  0.9452  0.3799
56169SOL     OW75621  11.457   9.953   7.045  0.4440 -0.0481 -0.7361
56169SOL    HW175622  11.386   9.951   6.981  0.4387  0.6189 -0.7579
56169SOL    HW275623  11.480   9.861   7.058  1.0860 -0.1645 -2.4254
56170SOL     OW75624   7.778   3.213   4.185 -0.4177  0.1539 -0.0195
56170SOL    HW175625   7.821   3.268   4.250 -1.4442  0.2222  0.6187
56170SOL    HW275626   7.727   3.150   4.236 -3.4732  1.9273 -0.6635
56171SOL     OW75627   7.212   2.083   5.751  0.4498  0.0863 -0.2400
56171SOL    HW175628   7.127   2.081   5.794  0.7282 -1.2283  0.2975
56171SOL    HW275629   7.194   2.054   5.661  0.3917 -0.7962  0.0392
56172SOL     OW75630   6.162   0.204   9.112 -0.1183 -0.2429 -0.0328
56172SOL    HW175631   6.119   0.278   9.155 -0.8459  0.3412 -1.7057
56172SOL    HW275632   6.235   0.182   9.170 -0.1381  1.5102  0.6994
56173SOL     OW75633   9.415   3.831   4.697  0.2531 -0.4120 -0.1603
56173SOL    HW175634   9.483   3.774   4.661 -0.0916 -0.2232 -1.1366
56173SOL    HW275635   9.454   3.866   4.778  1.6892  0.4124 -1.1518
56174SOL     OW75636   0.091   1.463   6.266 -0.1215 -0.2830 -0.9884
56174SOL    HW175637   0.014   1.431   6.219 -1.1339  1.2853 -0.4887
56174SOL    HW275638   0.056   1.499   6.348  1.1354  0.5343 -0.7852
56175SOL     OW75639   0.380   1.415   8.461 -0.2409 -0.0920  0.0519
56175SOL    HW175640   0.440   1.479   8.422 -2.5104  1.3423 -1.3543
56175SOL    HW275641   0.351   1.455   8.543  1.0732 -1.0370  1.0142
56176SOL     OW75642   2.198   5.473   0.020 -0.1835 -0.6127  0.4238
56176SOL    HW175643   2.203   5.411   0.094  1.5057 -1.4641 -0.3539
56176SOL    HW275644   2.147   5.426  -0.046  1.8552 -1.6311 -0.5132
56177SOL     OW75645   4.046   7.437   1.938  0.1804  0.2097  0.1533
56177SOL    HW175646   4.049   7.386   1.857  0.6390  1.3468 -0.5699
56177SOL    HW275647   4.030   7.372   2.006  0.3828 -0.8527 -0.7731
56178SOL     OW75648   5.121   9.656  10.504  0.1039  0.0269 -0.1232
56178SOL    HW175649   5.143   9.584  10.443 -1.4847 -0.8521  0.2701
56178SOL    HW275650   5.130   9.617  10.591  0.7746  0.8042  0.1695
56179SOL     OW75651   1.936   2.651   0.303 -0.5074  0.1202 -0.2215
56179SOL    HW175652   1.872   2.632   0.235 -0.2391 -0.4501 -0.3185
56179SOL    HW275653   1.901   2.609   0.382  0.0796 -0.7967 -0.4335
56180SOL     OW75654   1.872   5.447   4.125 -0.1139 -0.7483 -0.3461
56180SOL    HW175655   1.916   5.364   4.104 -0.1844 -0.8820  0.0265
56180SOL    HW275656   1.851   5.440   4.218 -0.2737 -0.3813 -0.3534
56181SOL     OW75657   1.080   3.243   5.576 -0.2345  0.6710 -0.0748
56181SOL    HW175658   1.159   3.190   5.579 -0.2486  0.6370 -0.2632
56181SOL    HW275659   1.010   3.180   5.559 -0.4021  0.6005  0.8072
56182SOL     OW75660   9.601   7.756   6.095  0.3758  0.3040 -0.0744
56182SOL    HW175661   9.526   7.814   6.101  0.2839  0.1532  0.2560
56182SOL    HW275662   9.569   7.679   6.049  0.4916  0.5038 -0.4920
56183SOL     OW75663   1.874   8.405   4.749 -0.1693  0.0330  0.6249
56183SOL    HW175664   1.802   8.456   4.711  2.6308  3.0337 -1.2724
56183SOL    HW275665   1.864   8.317   4.712 -0.9159  1.3157 -2.5098
56184SOL     OW75666   6.491   2.362   3.313 -0.0468  0.1047  0.0596
56184SOL    HW175667   6.530   2.278   3.333  0.2443  0.5634  1.5149
56184SOL    HW275668   6.405   2.360   3.356 -1.0859 -0.3333 -1.8906
56185SOL     OW75669   1.377   3.456   3.347 -0.0256  0.3137 -0.2421
56185SOL    HW175670   1.352   3.527   3.405 -0.1767 -0.2440  0.3837
56185SOL    HW275671   1.438   3.496   3.285  0.2866  0.8722  0.4183
56186SOL     OW75672   7.476   1.952   1.161  0.5444  0.1126 -0.1476
56186SOL    HW175673   7.525   1.893   1.104 -2.2134 -2.3362 -0.2492
56186SOL    HW275674   7.393   1.967   1.114 -1.6520 -1.6190  2.8039
56187SOL     OW75675   7.247   0.266   8.768 -0.1794 -0.0526  0.1519
56187SOL    HW175676   7.195   0.241   8.845 -0.5026 -1.0835 -0.3761
56187SOL    HW275677   7.214   0.352   8.743 -0.6087 -0.0501  0.6978
56188SOL     OW75678   4.070   4.781  10.500  0.5081  0.3117 -0.3487
56188SOL    HW175679   4.131   4.748  10.566  0.3374 -0.3828 -0.5322
56188SOL    HW275680   4.125   4.831  10.439  1.1699 -1.6148 -1.4007
56189SOL     OW75681  10.616   2.733   2.306 -0.2425 -0.0685  0.5787
56189SOL    HW175682  10.578   2.664   2.252 -1.8803  0.9703  0.3216
56189SOL    HW275683  10.703   2.700   2.330 -0.5514 -1.7262 -0.4133
56190SOL     OW75684   4.130   4.898   0.015  0.1504  0.4716 -0.6944
56190SOL    HW175685   4.186   4.853   0.078  1.9624  1.9574 -1.1606
56190SOL    HW275686   4.156   4.864  -0.070  0.0572  0.8720 -0.8879
56191SOL     OW75687   5.634   4.479  10.214 -0.0357 -0.1056  0.3367
56191SOL    HW175688   5.607   4.443  10.129  0.2397  2.6790 -1.0223
56191SOL    HW275689   5.726   4.454  10.222 -0.1220 -0.5833 -0.0614
56192SOL     OW75690  11.285   2.974   6.909 -0.0844  0.4166 -1.1213
56192SOL    HW175691  11.373   2.940   6.889  0.5953 -0.1432  2.1156
56192SOL    HW275692  11.302   3.055   6.958 -1.3166  0.0412 -0.0182
56193SOL     OW75693   3.893   3.192   0.852 -0.0967  0.5051  0.3885
56193SOL    HW175694   3.909   3.142   0.772 -0.1749  1.3186 -0.1463
56193SOL    HW275695   3.973   3.243   0.864 -0.5796  1.3282  0.1232
56194SOL     OW75696   4.523  11.009  10.798  1.2200  0.5244 -0.1179
56194SOL    HW175697   4.587  11.080  10.787  3.3102 -0.9851  1.3849
56194SOL    HW275698   4.538  10.952  10.723  2.3747 -0.3158  0.7211
56195SOL     OW75699   8.288   6.907   8.658  0.0052  0.0031 -0.3230
56195SOL    HW175700   8.344   6.884   8.732  0.0678  0.5339 -0.2044
56195SOL    HW275701   8.210   6.851   8.669  0.4140 -0.5875 -0.3748
56196SOL     OW75702  11.756   1.818   1.982 -0.3801 -0.4183 -0.2163
56196SOL    HW175703  11.796   1.883   1.924  1.2324 -1.6330 -0.5581
56196SOL    HW275704  11.831   1.772   2.022 -1.4451 -1.8067  0.2765
56197SOL     OW75705  11.626   5.006   3.255  0.6104 -0.4519  0.2150
56197SOL    HW175706  11.703   4.954   3.232  1.8254  0.7836  1.3099
56197SOL    HW275707  11.570   4.946   3.303  0.7393 -1.4566 -0.8626
56198SOL     OW75708   4.041   4.884   7.699 -0.0425  0.1812 -0.4235
56198SOL    HW175709   4.122   4.898   7.748 -1.0499  1.5418  0.8992
56198SOL    HW275710   3.983   4.839   7.760 -0.7263  0.3655 -0.9279
56199SOL     OW75711   0.358  11.675   2.893  0.0061 -0.0051  0.1057
56199SOL    HW175712   0.405  11.597   2.925 -0.4338  0.1196  1.1153
56199SOL    HW275713   0.286  11.685   2.955 -0.9310  0.2288 -1.0005
56200SOL     OW75714   5.550   6.497   3.335  0.4695  0.0459 -0.1931
56200SOL    HW175715   5.577   6.412   3.370 -1.3782 -0.4529  0.1268
56200SOL    HW275716   5.569   6.559   3.406 -0.0457 -0.4176  0.3555
56201SOL     OW75717   5.609  11.111   3.352  0.0584 -0.1162 -0.5431
56201SOL    HW175718   5.528  11.072   3.385  1.4953 -1.6801  1.3706
56201SOL    HW275719   5.595  11.205   3.360 -0.6119 -0.3742  2.3805
56202SOL     OW75720   5.944   1.019   4.895 -0.0534  0.0596  0.7353
56202SOL    HW175721   5.897   0.974   4.825 -0.1835 -1.1344  1.5606
56202SOL    HW275722   6.003   0.952   4.931  0.3251  0.7772  1.4832
56203SOL     OW75723   6.449  12.954   9.499  0.4237  0.0793 -0.0019
56203SOL    HW175724   6.451  12.858   9.506 -0.2130 -0.0322 -1.1306
56203SOL    HW275725   6.541  12.980   9.498  0.6974 -0.7502 -2.1559
56204SOL     OW75726  10.592   7.359   7.601  0.0156 -0.7199  0.0258
56204SOL    HW175727  10.574   7.276   7.557 -0.3519 -2.8348  3.7926
56204SOL    HW275728  10.676   7.344   7.645  0.5157  1.3782 -0.1326
56205SOL     OW75729   9.362   4.499   3.166  0.0774 -0.3949 -0.1169
56205SOL    HW175730   9.421   4.571   3.142 -0.6680  0.5830  0.9092
56205SOL    HW275731   9.369   4.438   3.092  1.2032  0.4139 -0.7234
56206SOL     OW75732  11.843   3.191   0.488  0.1505  0.0174 -0.3432
56206SOL    HW175733  11.771   3.152   0.537  1.1994 -1.6269 -0.0186
56206SOL    HW275734  11.815   3.186   0.396 -1.8157  3.1015 -0.0488
56207SOL     OW75735   2.679   0.791   1.497  0.3085  0.4502  0.2055
56207SOL    HW175736   2.662   0.875   1.454  1.2052  0.2400 -0.5778
56207SOL    HW275737   2.592   0.759   1.520 -0.1750  0.7729 -1.0755
56208SOL     OW75738   8.684   0.610  10.035  0.3610  0.7084  0.4288
56208SOL    HW175739   8.769   0.640  10.068  0.0686  0.3479  1.5730
56208SOL    HW275740   8.635   0.690  10.018  0.2933  0.9209  1.5317
56209SOL     OW75741   7.279   2.311   2.261 -0.2073 -0.0215 -0.2391
56209SOL    HW175742   7.191   2.275   2.270 -0.6792  0.9303 -0.8437
56209SOL    HW275743   7.318   2.303   2.348 -0.7833 -0.7212 -0.0418
56210SOL     OW75744   4.930  10.337   8.969 -0.0512 -0.1631 -0.4180
56210SOL    HW175745   4.881  10.284   8.906 -0.4205 -2.3686  1.6231
56210SOL    HW275746   5.017  10.296   8.973  0.9501  1.7015 -1.5280
56211SOL     OW75747   3.974   0.053   7.350  0.4872 -0.4669  0.5453
56211SOL    HW175748   3.941   0.105   7.423  0.4143 -2.6918  2.2057
56211SOL    HW275749   4.069   0.060   7.356  0.5520 -1.8392  1.8874
56212SOL     OW75750   6.756   4.202   0.934 -0.0561  0.4408 -0.2307
56212SOL    HW175751   6.836   4.202   0.986 -0.7353  1.8028  0.8916
56212SOL    HW275752   6.770   4.133   0.869  1.4858 -0.2275  0.7331
56213SOL     OW75753   1.350  10.139  10.354 -0.8172 -0.4655  0.1896
56213SOL    HW175754   1.271  10.162  10.402 -1.3810 -1.6405 -0.1313
56213SOL    HW275755   1.383  10.061  10.398 -0.7102 -0.8945 -0.6265
56214SOL     OW75756   9.071   2.536   8.279 -0.3899 -0.4832  0.1803
56214SOL    HW175757   9.032   2.588   8.209 -0.2598 -0.1470  0.3581
56214SOL    HW275758   9.046   2.580   8.360 -1.7501 -1.6683  0.4431
56215SOL     OW75759   7.741  12.197   7.093 -0.4146 -0.6216 -0.3934
56215SOL    HW175760   7.775  12.138   7.161 -2.1204 -3.1271 -1.5782
56215SOL    HW275761   7.673  12.247   7.138  0.8293  0.2830  0.5532
56216SOL     OW75762  12.314   6.537   2.978 -0.3035 -0.6565 -0.8644
56216SOL    HW175763  12.346   6.601   3.041  1.7082 -2.0374 -0.4200
56216SOL    HW275764  12.297   6.589   2.899  1.1021  0.4759 -0.4664
56217SOL     OW75765   6.508  11.182   3.397 -0.0732 -0.5347  0.3353
56217SOL    HW175766   6.423  11.226   3.391  0.7989  1.0808 -0.5669
56217SOL    HW275767   6.486  11.094   3.430 -1.9644  0.2015  1.1982
56218SOL     OW75768   3.198  12.683  10.648  0.1182  0.4326 -0.8751
56218SOL    HW175769   3.238  12.688  10.561 -0.4679  0.7181 -1.1330
56218SOL    HW275770   3.136  12.756  10.650  0.2607  0.5318 -0.1472
56219SOL     OW75771   1.083   1.128   0.060  0.2135  1.1663  0.2079
56219SOL    HW175772   1.127   1.207   0.090  0.9272  1.0253 -0.4558
56219SOL    HW275773   1.151   1.077   0.017 -0.7503  1.3505 -1.6342
56220SOL     OW75774   1.224   8.240  11.162  0.1474  0.2527  0.3115
56220SOL    HW175775   1.168   8.253  11.238  0.6835 -1.1808  0.9849
56220SOL    HW275776   1.238   8.145  11.158 -1.4664  0.0281 -2.7428
56221SOL     OW75777  11.822   3.292  10.536 -0.4259 -0.1971  0.1082
56221SOL    HW175778  11.856   3.244  10.461 -0.6606 -1.5635  0.8434
56221SOL    HW275779  11.882   3.270  10.608 -0.5149  0.6530  0.4572
56222SOL     OW75780  11.857   6.643  12.866 -0.8125  0.4073 -0.1232
56222SOL    HW175781  11.814   6.637  12.780 -2.0029 -1.8353  0.5300
56222SOL    HW275782  11.792   6.686  12.922 -1.0622 -0.3836  0.2061
56223SOL     OW75783   3.655   0.062   0.271 -0.0908  0.1434 -0.0790
56223SOL    HW175784   3.746   0.043   0.291  0.0241  0.6865 -0.0537
56223SOL    HW275785   3.630   0.131   0.333 -1.3680 -1.8799  1.8000
56224SOL     OW75786  10.506   6.475   4.680 -0.0706 -1.1341  0.4770
56224SOL    HW175787  10.446   6.477   4.606 -0.0606  1.2225  0.4740
56224SOL    HW275788  10.455   6.507   4.754  1.1273  0.9711  0.4577
56225SOL     OW75789   2.314   7.097  10.665 -0.3638 -0.5693  0.2053
56225SOL    HW175790   2.328   7.148  10.744  0.1717  1.3706 -1.0575
56225SOL    HW275791   2.294   7.163  10.598  1.6430 -1.8934 -1.8205
56226SOL     OW75792  11.903   1.589   4.804  0.1898 -0.1073  0.1388
56226SOL    HW175793  11.856   1.533   4.866 -0.3729  1.4420  1.1547
56226SOL    HW275794  11.983   1.541   4.785 -0.9075 -1.9377 -0.1631
56227SOL     OW75795   6.393  12.069   5.231  0.0655 -0.5005 -0.1154
56227SOL    HW175796   6.324  12.084   5.296  1.2121 -1.0449  1.2776
56227SOL    HW275797   6.464  12.029   5.280  0.8459 -1.2920 -1.7969
56228SOL     OW75798   1.328  12.733   4.048 -0.4376  0.6351 -0.2200
56228SOL    HW175799   1.248  12.779   4.021  0.2741  1.3595 -1.1680
56228SOL    HW275800   1.384  12.735   3.970  0.1205 -0.7446  0.1162
56229SOL     OW75801   8.249   3.482   5.340 -0.4023  0.0677  0.1917
56229SOL    HW175802   8.343   3.469   5.354  0.0187 -0.4507 -2.4834
56229SOL    HW275803   8.226   3.554   5.398  1.2160 -0.9678  2.2471
56230SOL     OW75804   5.081   3.829   7.054  0.2316  0.3809 -0.2123
56230SOL    HW175805   5.099   3.735   7.053  2.0161  0.6774 -0.2750
56230SOL    HW275806   5.045   3.847   6.967 -2.5280 -0.6021  0.6406
56231SOL     OW75807   8.493   2.325   4.746  0.3787  0.5495  0.1688
56231SOL    HW175808   8.403   2.296   4.761  0.4555  0.2462  0.0545
56231SOL    HW275809   8.516   2.288   4.661  0.6594  0.5152  0.2604
56232SOL     OW75810   6.324   3.686   7.373 -0.4457 -0.1709 -0.1362
56232SOL    HW175811   6.349   3.740   7.449  0.7581  2.8823 -2.4697
56232SOL    HW275812   6.230   3.699   7.366 -0.3897  0.4922  0.1722
56233SOL     OW75813   5.258   7.818   9.242  0.5169 -0.1228  0.3743
56233SOL    HW175814   5.188   7.755   9.229  0.9026 -0.3229 -0.8223
56233SOL    HW275815   5.330   7.785   9.188  0.4505  1.7696 -0.9650
56234SOL     OW75816   9.055  10.803  10.690  0.3880  0.3636  0.1401
56234SOL    HW175817   9.116  10.763  10.629 -0.3264 -1.2881  0.4557
56234SOL    HW275818   8.997  10.855  10.635 -1.0619 -2.1233 -0.8283
56235SOL     OW75819  11.305  12.248   1.751 -0.4364 -0.2466  0.3790
56235SOL    HW175820  11.295  12.329   1.800 -1.0052 -0.1509  0.1077
56235SOL    HW275821  11.285  12.271   1.660  1.4748 -0.2268 -0.0835
56236SOL     OW75822   4.779   8.490   7.126 -0.0625 -0.2901 -0.1217
56236SOL    HW175823   4.707   8.526   7.176 -0.2650  1.4789 -1.5819
56236SOL    HW275824   4.743   8.412   7.083 -0.3062 -0.9287  1.1906
56237SOL     OW75825   9.171   3.912   5.131  0.0870  0.2754  0.2982
56237SOL    HW175826   9.193   4.004   5.142  1.0638 -0.0703  1.4430
56237SOL    HW275827   9.081   3.904   5.164  0.0490  0.7841  0.3197
56238SOL     OW75828   5.860   7.384  12.771  0.2811 -0.4725 -0.0570
56238SOL    HW175829   5.956   7.376  12.773  0.1811 -1.7217  1.2892
56238SOL    HW275830   5.831   7.311  12.716  0.0290 -1.4905  1.3586
56239SOL     OW75831  12.611   6.268   4.780  0.3727 -0.2689  0.1431
56239SOL    HW175832  12.533   6.320   4.761  0.7883  0.4815  0.4064
56239SOL    HW275833  12.649   6.310   4.858  0.9851 -0.6774  0.0739
56240SOL     OW75834   0.741   2.057   3.852 -0.0083 -0.6249 -0.0949
56240SOL    HW175835   0.689   1.980   3.829 -3.1532  0.3746  2.8034
56240SOL    HW275836   0.678   2.129   3.852  2.2787  1.5196 -0.2389
56241SOL     OW75837  11.481   9.417  11.246  0.0771 -0.0325 -0.6381
56241SOL    HW175838  11.567   9.375  11.251 -0.6858 -1.7699 -1.1995
56241SOL    HW275839  11.432   9.381  11.319 -0.0373  1.3751  0.0121
56242SOL     OW75840  12.491   6.238  11.927  0.3462 -0.2500 -0.1360
56242SOL    HW175841  12.529   6.258  11.842  3.7856  1.2070  1.5657
56242SOL    HW275842  12.469   6.324  11.964  0.0699 -0.7722  0.9540
56243SOL     OW75843   7.780   2.719   8.302  0.2674  0.0775 -0.3718
56243SOL    HW175844   7.831   2.697   8.380 -0.9848  1.4704  0.8764
56243SOL    HW275845   7.725   2.642   8.287  0.3790 -0.1181  0.2092
56244SOL     OW75846   4.281   5.605   0.310 -0.0583  0.1462 -0.6759
56244SOL    HW175847   4.213   5.664   0.277  0.0096 -0.0563 -1.1997
56244SOL    HW275848   4.253   5.518   0.280  2.1320  0.3947 -3.9221
56245SOL     OW75849   3.462   3.692   6.491 -0.1981  0.1619  0.5063
56245SOL    HW175850   3.389   3.665   6.546  0.1817  1.2395  1.6022
56245SOL    HW275851   3.456   3.787   6.489  0.6320  0.2099 -0.1682
56246SOL     OW75852   2.845   5.847  10.941  0.3114  0.2173 -0.7397
56246SOL    HW175853   2.878   5.767  10.902  0.4748 -1.0247  1.7301
56246SOL    HW275854   2.923   5.896  10.966  0.3022 -0.5344  0.8830
56247SOL     OW75855   6.307   4.055   9.069  0.0482 -0.2835  0.4952
56247SOL    HW175856   6.274   4.130   9.119 -0.8839  0.5777 -1.3222
56247SOL    HW275857   6.235   3.992   9.071  0.3499 -0.6213  0.9525
56248SOL     OW75858   9.010   2.804   4.338  0.5182 -0.2152 -0.5973
56248SOL    HW175859   9.029   2.896   4.355  0.7936 -0.3017 -0.4302
56248SOL    HW275860   8.941   2.782   4.400  0.5995 -0.1780 -0.4932
56249SOL     OW75861   1.730  10.285  12.964 -0.0430 -0.3798 -0.2977
56249SOL    HW175862   1.799  10.347  12.940 -0.3793  0.6545  1.2708
56249SOL    HW275863   1.774  10.200  12.966  0.0660 -0.6052 -4.1986
56250SOL     OW75864  11.796   6.526   8.980 -0.0238  0.2891 -0.3378
56250SOL    HW175865  11.717   6.491   8.940  0.4925 -1.7804  0.3658
56250SOL    HW275866  11.770   6.613   9.011 -1.7771 -0.0106 -0.8620
56251SOL     OW75867   6.092   6.431   4.799 -0.4099 -0.0730  0.4178
56251SOL    HW175868   6.118   6.464   4.713 -0.2870  1.1048  0.8828
56251SOL    HW275869   6.169   6.445   4.854 -0.3549 -1.1743  0.6461
56252SOL     OW75870   0.734  11.939  10.071 -0.0148 -0.0579 -0.2007
56252SOL    HW175871   0.800  11.875  10.096  0.4069 -0.0940 -1.3602
56252SOL    HW275872   0.781  12.022  10.066 -0.0355 -0.0800 -1.0052
56253SOL     OW75873   2.596   6.072   2.762 -0.2986 -0.0629 -0.3503
56253SOL    HW175874   2.603   6.032   2.849  0.6510  0.9923  0.0786
56253SOL    HW275875   2.564   6.001   2.706  2.3922 -1.8134  0.1407
56254SOL     OW75876  11.731  12.026  12.061  0.3466  0.2357  0.2904
56254SOL    HW175877  11.731  12.063  12.149 -0.4881 -0.0904  0.4352
56254SOL    HW275878  11.640  11.999  12.046  0.7975 -1.1269 -0.0748
56255SOL     OW75879   9.132   9.904   2.117 -0.5801 -0.0778 -0.2492
56255SOL    HW175880   9.227   9.898   2.127 -0.6126  0.0887  0.2164
56255SOL    HW275881   9.098   9.868   2.199 -0.8487  2.9429  1.0995
56256SOL     OW75882  11.447   0.124   1.316 -0.6656 -0.0854  0.3510
56256SOL    HW175883  11.474   0.041   1.277 -2.2065 -0.4296 -0.0591
56256SOL    HW275884  11.515   0.186   1.292  0.3219 -1.1425  0.3530
56257SOL     OW75885   2.041   2.478  10.403  0.4000 -0.6428  0.2933
56257SOL    HW175886   2.033   2.538  10.477 -1.9745 -0.1808 -0.2335
56257SOL    HW275887   2.109   2.516  10.348 -2.3746  2.9730 -1.0954
56258SOL     OW75888  11.614   7.281   0.657  0.5201  0.1428  0.6129
56258SOL    HW175889  11.520   7.289   0.643  0.3174  0.4301  2.0179
56258SOL    HW275890  11.644   7.370   0.671  0.6279 -0.1110  2.2363
56259SOL     OW75891   9.423  11.565   5.264  0.1905 -1.0766  0.1682
56259SOL    HW175892   9.372  11.485   5.270  1.0069 -1.6347 -0.0824
56259SOL    HW275893   9.480  11.551   5.188  0.8741 -0.5772  0.5728
56260SOL     OW75894   7.019   1.914   4.016  0.2872  0.1685  0.7898
56260SOL    HW175895   7.019   1.819   4.017 -0.6652  0.1514  0.4024
56260SOL    HW275896   6.936   1.938   3.974 -0.7749  1.2001  3.2610
56261SOL     OW75897   8.970  11.786  11.098 -0.5032  0.1864 -0.1151
56261SOL    HW175898   9.053  11.824  11.127 -0.5336  0.3576 -0.2479
56261SOL    HW275899   8.987  11.692  11.090 -0.5165  0.1268  0.5363
56262SOL     OW75900   8.003   9.401  11.764  0.9324  0.1594  0.1789
56262SOL    HW175901   8.024   9.311  11.788  2.2719  0.3798 -0.1138
56262SOL    HW275902   7.945   9.431  11.834  2.0556 -0.3056  1.3483
56263SOL     OW75903   0.397   4.210   6.844 -0.6294 -0.2129 -0.0957
56263SOL    HW175904   0.426   4.252   6.925 -2.8163 -1.6356  1.5586
56263SOL    HW275905   0.324   4.264   6.814  0.7212  0.8032 -1.6701
56264SOL     OW75906   2.077   1.017   8.800 -0.4187  0.3314  0.3080
56264SOL    HW175907   2.110   1.082   8.738 -0.4282  1.9082  1.8674
56264SOL    HW275908   2.155   0.977   8.838 -0.4061 -1.1685 -1.1549
56265SOL     OW75909  12.801   5.438   9.290  0.1623 -0.4023 -0.3979
56265SOL    HW175910  12.826   5.506   9.352  0.5773 -0.8389 -0.0845
56265SOL    HW275911  12.717   5.406   9.323  0.6807 -1.0676  0.3081
56266SOL     OW75912   7.573   7.829   9.367 -0.0674  0.8390 -0.5261
56266SOL    HW175913   7.536   7.754   9.414 -0.6296  1.3242 -0.1805
56266SOL    HW275914   7.565   7.902   9.428 -0.5369  1.4191 -1.2703
56267SOL     OW75915   4.163  10.135   0.704  0.1504 -0.1498  0.3709
56267SOL    HW175916   4.093  10.109   0.644  0.4361 -0.3369  0.1134
56267SOL    HW275917   4.130  10.111   0.791 -0.9797  1.6754  0.4878
56268SOL     OW75918   5.935   4.749  10.285 -0.5843  0.3915  0.1432
56268SOL    HW175919   6.027   4.737  10.260  0.0026 -1.0988  2.6290
56268SOL    HW275920   5.931   4.839  10.318 -0.2831  0.7922 -0.8687
56269SOL     OW75921  10.931   4.272   0.024  0.0819  0.3567  0.9943
56269SOL    HW175922  10.869   4.345   0.018 -0.3793 -0.0422  0.8439
56269SOL    HW275923  10.985   4.292   0.100  1.1732  1.7821 -0.1083
56270SOL     OW75924  11.559   0.644   3.679 -0.3467  0.5794  0.2355
56270SOL    HW175925  11.628   0.688   3.728 -0.2168  0.7771 -0.1231
56270SOL    HW275926  11.512   0.714   3.634 -1.3821  0.5439  1.2209
56271SOL     OW75927   9.395  12.613   2.902  0.4935  0.5326 -0.1357
56271SOL    HW175928   9.353  12.698   2.888 -0.0400  0.0754 -1.4970
56271SOL    HW275929   9.434  12.619   2.989 -3.0891  0.7427  1.6695
56272SOL     OW75930  12.663   6.851   8.668  0.1420  0.3143  0.2194
56272SOL    HW175931  12.690   6.920   8.608 -0.2239 -0.0068 -0.3112
56272SOL    HW275932  12.677   6.889   8.755  1.0226  0.6449 -0.0546
56273SOL     OW75933  10.488  10.673   9.756  0.0915 -0.3920  0.2598
56273SOL    HW175934  10.470  10.699   9.847 -3.1819 -0.3135 -0.3105
56273SOL    HW275935  10.510  10.580   9.763  1.3898 -0.0490  1.2385
56274SOL     OW75936   3.112   6.602   0.936 -0.7259 -0.2437  0.0016
56274SOL    HW175937   3.205   6.604   0.958 -0.8471  0.0483  0.4948
56274SOL    HW275938   3.103   6.529   0.874 -0.0791  0.0722 -0.4725
56275SOL     OW75939   7.054   2.850   3.153 -0.2151  0.3005 -0.0014
56275SOL    HW175940   7.080   2.920   3.093 -0.1987  0.6272  0.3819
56275SOL    HW275941   7.050   2.893   3.239 -1.1824  0.0717  0.0853
56276SOL     OW75942   9.568  11.761  11.366  0.4306 -0.0508 -0.4910
56276SOL    HW175943   9.652  11.721  11.389  0.1058  0.4250  1.8515
56276SOL    HW275944   9.542  11.719  11.284  0.0571 -4.7948  1.7225
56277SOL     OW75945  12.847   8.695   8.641 -0.2165  0.2121 -0.2868
56277SOL    HW175946  12.886   8.734   8.562 -0.5022 -0.1276 -0.6038
56277SOL    HW275947  12.807   8.769   8.687  0.3091  0.4759 -0.2500
56278SOL     OW75948   6.908   4.377   9.761 -0.1903  0.2240 -0.1065
56278SOL    HW175949   6.938   4.394   9.671 -0.5131  0.5726 -0.1528
56278SOL    HW275950   6.984   4.397   9.816  0.2533 -0.7261 -0.3470
56279SOL     OW75951   4.018   0.733   0.024  0.4036  0.0619  0.0363
56279SOL    HW175952   4.052   0.692   0.103 -0.0832 -0.1431  0.1471
56279SOL    HW275953   4.063   0.817   0.018  2.3804 -0.9888 -0.8698
56280SOL     OW75954   9.201  12.569   5.789  0.1793 -0.0802  0.1939
56280SOL    HW175955   9.277  12.622   5.766  1.6796 -2.7272 -1.3718
56280SOL    HW275956   9.181  12.594   5.879  0.8252  2.9902 -0.4113
56281SOL     OW75957   0.037  10.079  11.280 -0.0749 -0.3455 -0.1641
56281SOL    HW175958  -0.013  10.018  11.334 -1.1197  0.4699 -0.1625
56281SOL    HW275959  -0.012  10.085  11.198  0.1877  0.2286 -0.2874
56282SOL     OW75960  12.465   4.153   5.570 -0.3090 -0.3264 -1.1361
56282SOL    HW175961  12.548   4.139   5.616 -0.1332  0.4316 -1.2078
56282SOL    HW275962  12.473   4.242   5.534 -2.0072  0.6058  0.6434
56283SOL     OW75963  12.313   7.122  10.559 -0.2917 -0.4892  0.2349
56283SOL    HW175964  12.349   7.056  10.618  2.1516 -1.4197 -2.0302
56283SOL    HW275965  12.309   7.202  10.611  1.0818 -1.4094  1.8616
56284SOL     OW75966  12.035   5.866   5.769  0.5112  0.0499 -0.5359
56284SOL    HW175967  12.010   5.946   5.815  0.5297 -0.4366  0.3545
56284SOL    HW275968  11.953   5.819   5.755  0.5403  0.0539 -0.7177
56285SOL     OW75969   7.859   3.472   9.334  0.7610  0.3255  0.7076
56285SOL    HW175970   7.908   3.392   9.356  0.7357  0.2969  0.6587
56285SOL    HW275971   7.863   3.524   9.414 -0.9768 -0.6136  1.4860
56286SOL     OW75972   7.152   6.303   8.862  0.3564  0.3455  0.1687
56286SOL    HW175973   7.128   6.248   8.787  0.7443 -0.3564  0.5517
56286SOL    HW275974   7.240   6.274   8.886  0.6903  1.3375  0.2033
56287SOL     OW75975   1.640   5.507   5.571  0.1036 -0.4537  0.3654
56287SOL    HW175976   1.546   5.524   5.563  0.1488  0.1073  0.9769
56287SOL    HW275977   1.664   5.468   5.487  0.1553  3.3337 -1.6079
56288SOL     OW75978   8.910  10.739   0.653  0.0108 -0.0050  0.5807
56288SOL    HW175979   8.995  10.694   0.651 -0.0927 -0.3313  2.3003
56288SOL    HW275980   8.875  10.727   0.564  1.3889 -0.5620  0.0806
56289SOL     OW75981  10.514  10.753  12.637 -0.0742  0.0321 -0.3631
56289SOL    HW175982  10.580  10.755  12.568 -0.9321  0.1969 -1.1841
56289SOL    HW275983  10.430  10.757  12.592 -0.7436 -2.2083  0.5437
56290SOL     OW75984   7.050  11.130   0.680  0.4168  0.1319  0.4278
56290SOL    HW175985   6.965  11.170   0.696 -0.1430 -0.6852 -0.4451
56290SOL    HW275986   7.096  11.193   0.624 -0.7882 -0.7538 -1.6737
56291SOL     OW75987   5.407   4.583   7.814 -0.2763  0.6478  0.2638
56291SOL    HW175988   5.313   4.568   7.800 -0.3883  1.2235  0.3657
56291SOL    HW275989   5.447   4.498   7.799 -0.6693  0.6642 -1.0365
56292SOL     OW75990  12.878   6.066   6.978  0.2899  0.1431  0.7414
56292SOL    HW175991  12.798   6.115   6.992  1.2288  1.6833  0.9599
56292SOL    HW275992  12.908   6.044   7.067  0.1121 -0.4535  0.6597
56293SOL     OW75993   3.441   1.737   2.142  0.0133  0.6242 -0.1369
56293SOL    HW175994   3.465   1.754   2.233 -0.6077 -0.7316  0.3152
56293SOL    HW275995   3.425   1.823   2.105  2.0670  1.3506  0.5033
56294SOL     OW75996   1.490   4.370  10.492  0.2991 -0.1412  0.2183
56294SOL    HW175997   1.475   4.276  10.507 -0.7136  0.0481  0.5354
56294SOL    HW275998   1.572   4.388  10.537  0.3599 -0.8255  0.4055
56295SOL     OW75999   3.234   8.617   9.574 -0.4170 -0.5676  0.4854
56295SOL    HW176000   3.284   8.589   9.498 -2.2830 -1.3664 -0.5094
56295SOL    HW276001   3.253   8.551   9.641  1.4728  0.3075  0.8686
56296SOL     OW76002   6.788   3.524   1.639  0.1065  0.2222  0.1103
56296SOL    HW176003   6.796   3.436   1.603  1.3224 -0.5416  2.0930
56296SOL    HW276004   6.761   3.511   1.730 -0.5642  1.9595  0.2061
56297SOL     OW76005   6.131   3.955  11.948  0.2896 -0.6454 -0.0747
56297SOL    HW176006   6.169   4.041  11.928 -0.3347 -0.1063  0.9361
56297SOL    HW276007   6.206   3.895  11.946  0.5229 -0.3675 -2.2084
56298SOL     OW76008   5.944   2.540   4.693 -0.0804 -0.0139  0.1002
56298SOL    HW176009   5.960   2.446   4.703 -2.6950 -0.4688  0.7635
56298SOL    HW276010   5.879   2.546   4.623 -0.1213  1.2844  0.2290
56299SOL     OW76011   4.685  10.846  10.998 -0.1884 -0.4357 -0.6074
56299SOL    HW176012   4.606  10.838  11.050 -0.1259 -2.5549 -0.7163
56299SOL    HW276013   4.704  10.939  10.995 -1.3536 -0.0874  1.3868
56300SOL     OW76014   9.278   8.507   4.390 -0.4401 -0.3317 -0.0440
56300SOL    HW176015   9.239   8.578   4.441 -2.3579 -0.4433 -1.2749
56300SOL    HW276016   9.205   8.468   4.342  1.1153 -0.6851 -2.3173
56301SOL     OW76017   2.636  10.213   8.048 -0.1096 -0.6197  0.0292
56301SOL    HW176018   2.591  10.294   8.022  0.1160  0.3351  2.3760
56301SOL    HW276019   2.723  10.243   8.077  0.3807 -1.8626 -0.1185
56302SOL     OW76020   9.497   0.850   1.240 -0.9890  0.5183 -0.5606
56302SOL    HW176021   9.488   0.781   1.174  0.3174  0.1304 -0.3631
56302SOL    HW276022   9.446   0.819   1.315 -1.9690  0.6723 -1.1535
56303SOL     OW76023   1.779  12.035   6.442 -0.2106 -0.2097  0.4127
56303SOL    HW176024   1.755  11.977   6.369  1.7690 -0.2309 -0.3045
56303SOL    HW276025   1.788  12.121   6.402  2.5512 -0.5146  0.1776
56304SOL     OW76026   9.106   0.210  10.774  0.7740 -0.2753 -0.6995
56304SOL    HW176027   9.013   0.194  10.794  0.8261 -0.8342 -0.8758
56304SOL    HW276028   9.114   0.305  10.773 -0.0351 -0.2028 -1.7652
56305SOL     OW76029   1.224   6.553  12.369  0.1493 -0.1879  0.7958
56305SOL    HW176030   1.235   6.486  12.437  0.9695  1.1980  2.0906
56305SOL    HW276031   1.313   6.579  12.346 -0.0473 -1.6388 -1.9290
56306SOL     OW76032  10.151  11.525   8.095  0.5977  0.1833 -0.3146
56306SOL    HW176033  10.095  11.584   8.045 -1.5224 -1.2356  0.2224
56306SOL    HW276034  10.106  11.440   8.091  1.7722 -0.6158  1.6640
56307SOL     OW76035   4.502   3.350   9.896 -0.5638 -0.2704 -0.3959
56307SOL    HW176036   4.507   3.421   9.832  0.5318  0.4027  0.3934
56307SOL    HW276037   4.420   3.305   9.876 -0.9342  0.7882 -1.3639
56308SOL     OW76038   2.152  12.184  12.706 -0.0125 -1.1992 -0.0300
56308SOL    HW176039   2.116  12.158  12.621  2.8901 -1.8577 -1.1623
56308SOL    HW276040   2.182  12.274  12.693  0.2859 -1.2395  0.3464
56309SOL     OW76041   3.212   5.859  11.860 -0.3087 -0.2678  0.2928
56309SOL    HW176042   3.219   5.770  11.895 -0.1893 -1.5885 -2.7928
56309SOL    HW276043   3.301   5.883  11.837 -0.6423 -0.6267 -1.5843
56310SOL     OW76044  11.281   7.552   7.897 -0.1403  0.8370  0.4106
56310SOL    HW176045  11.352   7.615   7.910 -1.4740  2.7276 -0.8966
56310SOL    HW276046  11.295   7.519   7.808 -0.9878  1.3845  0.0660
56311SOL     OW76047   5.982   0.231   7.910 -0.4859  0.2994 -0.3210
56311SOL    HW176048   5.933   0.290   7.967 -1.5732 -0.0023 -0.9320
56311SOL    HW276049   5.954   0.143   7.935  1.5103 -0.0561  0.9512
56312SOL     OW76050   1.739   9.251   2.761  0.1785  0.5384  0.1197
56312SOL    HW176051   1.783   9.314   2.818  1.8358  0.7747 -1.3652
56312SOL    HW276052   1.746   9.289   2.673 -1.4125 -0.3136 -0.4099
56313SOL     OW76053  10.716   6.464  11.979 -0.2385  0.0990 -0.3599
56313SOL    HW176054  10.731   6.464  11.885 -0.2319 -0.8974 -0.3690
56313SOL    HW276055  10.750   6.379  12.009 -1.6145 -0.2509  0.3010
56314SOL     OW76056   7.899   4.314   4.794  0.3379  0.8816  0.0581
56314SOL    HW176057   7.894   4.294   4.887  2.8525  1.3378  0.3479
56314SOL    HW276058   7.980   4.364   4.784 -0.7007  2.3156 -2.1356
56315SOL     OW76059   9.496   3.941   7.254  0.1533  0.0591  0.2649
56315SOL    HW176060   9.552   3.907   7.184  0.5560  0.4958  0.3715
56315SOL    HW276061   9.488   3.867   7.315 -1.1008 -0.6918 -0.7543
56316SOL     OW76062  11.248  11.472   8.059  0.8216  0.2162 -0.9214
56316SOL    HW176063  11.183  11.414   8.097  1.7710 -0.2257  0.1051
56316SOL    HW276064  11.209  11.559   8.063 -0.2943 -0.2256 -1.7349
56317SOL     OW76065   1.148   6.172   4.467  0.3677  0.1779  0.1244
56317SOL    HW176066   1.180   6.085   4.490  0.8602  0.5525  0.9242
56317SOL    HW276067   1.181   6.228   4.537  1.1659  1.2357 -1.0618
56318SOL     OW76068   1.175   3.695  10.728  0.2583 -0.3311  0.0936
56318SOL    HW176069   1.094   3.698  10.780 -0.2831  2.2079 -0.7383
56318SOL    HW276070   1.172   3.610  10.685 -2.4775 -0.0019 -0.5708
56319SOL     OW76071   7.581   0.792   7.815  0.3524  0.6874  0.1070
56319SOL    HW176072   7.577   0.858   7.883 -1.5966  2.5369 -1.6245
56319SOL    HW276073   7.503   0.738   7.830 -0.9417  2.0294 -1.4125
56320SOL     OW76074  11.721   0.341   1.525  0.2916  0.3676 -0.1535
56320SOL    HW176075  11.693   0.330   1.616 -2.1764 -0.3531 -0.9183
56320SOL    HW276076  11.645   0.380   1.481  1.7174  1.4669 -1.7523
56321SOL     OW76077   7.239   4.410   6.076  0.0408  0.6177 -0.4057
56321SOL    HW176078   7.273   4.425   6.164 -0.2167 -0.0550 -0.1812
56321SOL    HW276079   7.146   4.392   6.089  0.4165 -1.7495 -0.5387
56322SOL     OW76080  10.588  12.233  10.101  0.0782 -0.1572 -0.3989
56322SOL    HW176081  10.650  12.299  10.067  1.4418  0.1960  2.5023
56322SOL    HW276082  10.642  12.176  10.156 -1.9796 -0.5233  1.3440
56323SOL     OW76083   9.106   7.928   7.755 -0.2124  0.3760 -0.0088
56323SOL    HW176084   9.190   7.965   7.782  0.5937 -2.0416  1.0997
56323SOL    HW276085   9.040   7.981   7.799  0.8071  1.1687  0.5907
56324SOL     OW76086  11.702   9.122  12.232 -0.3071 -0.0530  0.1814
56324SOL    HW176087  11.691   9.049  12.293  1.7638 -0.3313  0.2642
56324SOL    HW276088  11.735   9.193  12.286  1.6854 -0.3444 -0.5834
56325SOL     OW76089  12.618   7.570   6.116 -0.0281 -0.6320 -0.2862
56325SOL    HW176090  12.615   7.475   6.125 -1.1122 -0.7575 -1.5166
56325SOL    HW276091  12.531   7.600   6.144  0.2638 -0.0229 -0.0133
56326SOL     OW76092   6.570   2.408   2.428 -0.2004  0.0042 -0.1715
56326SOL    HW176093   6.518   2.460   2.490  0.1655 -0.8695  0.8777
56326SOL    HW276094   6.563   2.318   2.459  2.3998 -0.0891  0.3476
56327SOL     OW76095   5.440   3.886   5.242  0.3233  0.3773 -0.2394
56327SOL    HW176096   5.478   3.816   5.190 -0.7938  0.8493 -1.7844
56327SOL    HW276097   5.429   3.848   5.330  1.9335 -0.5565 -0.4011
56328SOL     OW76098   4.942   0.043  11.851 -0.0949 -0.0417  0.2522
56328SOL    HW176099   4.940  -0.031  11.790 -0.9504 -0.5301  0.8507
56328SOL    HW276100   4.860   0.089  11.835  0.8937  1.4294 -0.8607
56329SOL     OW76101   5.305   0.877  12.420  0.2270 -0.1574 -0.3850
56329SOL    HW176102   5.222   0.919  12.396 -0.1947 -0.7929 -0.0747
56329SOL    HW276103   5.312   0.892  12.515 -0.1671 -1.1902 -0.1872
56330SOL     OW76104   9.426   5.953   6.211 -0.0721 -0.2996  0.2741
56330SOL    HW176105   9.376   6.023   6.170 -0.7813 -1.6168 -1.1929
56330SOL    HW276106   9.490   5.926   6.145 -1.1396 -2.3692  0.0015
56331SOL     OW76107   0.729   4.791   4.433  0.3396  0.3222  0.2903
56331SOL    HW176108   0.770   4.748   4.508 -1.5442  0.1516  1.2922
56331SOL    HW276109   0.670   4.856   4.472  0.7141  1.5706 -1.1169
56332SOL     OW76110   4.048   6.899   5.281 -0.5293  0.1067  0.2770
56332SOL    HW176111   4.108   6.830   5.309 -1.7237 -2.0199 -2.0967
56332SOL    HW276112   4.102   6.958   5.229  0.4943  1.0992  2.3111
56333SOL     OW76113   8.900   4.514   9.543 -0.5385 -0.0922  0.3759
56333SOL    HW176114   8.976   4.512   9.601 -0.4372  0.2894  0.2615
56333SOL    HW276115   8.846   4.441   9.572  0.7748 -1.5986 -0.7657
56334SOL     OW76116   5.934   6.350   1.317  0.1164 -0.5265  0.3618
56334SOL    HW176117   6.007   6.412   1.329 -0.4564  0.3632 -0.6058
56334SOL    HW276118   5.973   6.275   1.273  0.7623 -0.7387  1.2716
56335SOL     OW76119   2.986   1.691   9.410 -0.0292 -0.9189  0.3067
56335SOL    HW176120   2.934   1.746   9.468 -0.5367 -1.5995  0.5232
56335SOL    HW276121   3.059   1.662   9.465  0.3063 -0.3675  0.1547
56336SOL     OW76122   6.218   2.219   8.509 -0.1199  0.2774 -0.2054
56336SOL    HW176123   6.234   2.191   8.419  0.3551  1.7195 -0.5935
56336SOL    HW276124   6.276   2.165   8.562 -1.2178 -1.3729 -0.6309
56337SOL     OW76125   0.587   6.665   0.227  0.2508  0.3128  0.7493
56337SOL    HW176126   0.627   6.740   0.271  0.8754  0.2082  0.3720
56337SOL    HW276127   0.624   6.667   0.138 -0.5183  0.1633  0.4158
56338SOL     OW76128   4.316   6.623   1.571 -0.1831  0.1941  0.1520
56338SOL    HW176129   4.352   6.561   1.634  1.5350  0.2689 -0.6871
56338SOL    HW276130   4.304   6.704   1.621 -0.8509 -0.3263  0.8545
56339SOL     OW76131   1.031   9.026   7.621  0.0815 -0.4328  0.3644
56339SOL    HW176132   1.123   9.015   7.646  0.1726  0.8630  0.6578
56339SOL    HW276133   1.030   9.005   7.527  0.4381 -1.6187  0.6089
56340SOL     OW76134   7.044   6.734   3.890 -0.1031 -0.0338 -0.1859
56340SOL    HW176135   7.126   6.690   3.913 -0.5757 -0.7178  0.2079
56340SOL    HW276136   7.018   6.780   3.970 -0.7051 -0.7682  0.0450
56341SOL     OW76137  11.879   8.819   5.138 -0.1676 -0.1352  0.2340
56341SOL    HW176138  11.789   8.788   5.148 -0.4555  0.6989  0.2323
56341SOL    HW276139  11.876   8.911   5.162  0.9552 -0.4164  1.6019
56342SOL     OW76140   5.992   6.163   1.714  0.4394 -0.0320 -0.1852
56342SOL    HW176141   5.901   6.147   1.691  0.8831  0.8895 -3.0056
56342SOL    HW276142   6.042   6.128   1.641  2.1041  2.4959 -0.4003
56343SOL     OW76143   8.236   1.187  10.350 -0.1654  0.2551 -0.3898
56343SOL    HW176144   8.299   1.124  10.386  0.8223  0.5138 -1.6123
56343SOL    HW276145   8.230   1.165  10.257 -2.2038 -0.0074 -0.2292
56344SOL     OW76146   3.198   3.295   8.294  0.3324  0.4428  0.5355
56344SOL    HW176147   3.259   3.326   8.360  0.0638  0.5770  0.7209
56344SOL    HW276148   3.243   3.310   8.211  1.5741 -1.7040  0.7636
56345SOL     OW76149   7.215  12.592   3.942  0.5536  0.4208  0.1434
56345SOL    HW176150   7.144  12.628   3.994 -0.8006  1.2904 -2.1344
56345SOL    HW276151   7.199  12.497   3.943 -0.7806  0.6057 -0.4199
56346SOL     OW76152   0.346   1.583   6.250  0.2023  0.2701 -0.5544
56346SOL    HW176153   0.381   1.535   6.175  0.4701 -0.5521  0.0743
56346SOL    HW276154   0.265   1.536   6.273  1.4275 -1.1098  1.2290
56347SOL     OW76155   0.702   9.672   7.210  0.1846  0.1819  0.6488
56347SOL    HW176156   0.751   9.748   7.179  0.2942 -0.4804 -0.8909
56347SOL    HW276157   0.624   9.670   7.153  0.9084 -1.6747 -0.3569
56348SOL     OW76158   6.871   1.799   8.426  0.5590 -0.0871 -0.8007
56348SOL    HW176159   6.948   1.798   8.369 -0.6243  1.0588 -2.5032
56348SOL    HW276160   6.858   1.891   8.447 -0.8113 -0.1657 -1.2269
56349SOL     OW76161   7.177   6.315  12.472  0.2535 -0.3842  0.0163
56349SOL    HW176162   7.090   6.350  12.492 -0.2832 -1.3597 -0.5499
56349SOL    HW276163   7.215   6.378  12.410  0.3536  0.5567  1.0021
56350SOL     OW76164   3.542  12.187   3.079  0.0401 -0.0143  0.0865
56350SOL    HW176165   3.457  12.229   3.090 -0.4093 -1.1685  1.3241
56350SOL    HW276166   3.522  12.095   3.064  1.0577 -0.1306 -0.7556
56351SOL     OW76167   1.331   1.846   3.475  0.4224 -0.1834  0.5669
56351SOL    HW176168   1.326   1.910   3.546  1.9479 -0.2476  0.7660
56351SOL    HW276169   1.338   1.762   3.520  0.1177 -0.3411  0.3223
56352SOL     OW76170   2.863   5.352   2.751 -0.4213  0.4370 -0.4473
56352SOL    HW176171   2.847   5.325   2.841  2.3840  0.1567  0.0560
56352SOL    HW276172   2.812   5.291   2.698  1.4748 -2.5007  0.8580
56353SOL     OW76173   3.593  11.359  12.010 -0.5392 -0.3542  0.0900
56353SOL    HW176174   3.658  11.430  12.010  0.7610 -1.5071 -0.7100
56353SOL    HW276175   3.519  11.395  11.961  0.1935  0.3736 -0.5126
56354SOL     OW76176   3.259   5.069  11.216 -0.1314  0.1797 -0.4653
56354SOL    HW176177   3.231   5.087  11.126 -3.1517 -2.1051 -0.1467
56354SOL    HW276178   3.218   5.138  11.268  1.3181  1.2875 -0.7119
56355SOL     OW76179   7.933  10.225   5.331  0.5821  0.2567  0.2966
56355SOL    HW176180   8.024  10.197   5.334  0.3215 -1.1014 -1.8713
56355SOL    HW276181   7.933  10.300   5.271  0.2287 -0.0716 -0.1231
56356SOL     OW76182   0.619   3.164  12.642  0.0769 -0.4550  0.3871
56356SOL    HW176183   0.628   3.119  12.558  2.0230 -0.8281  0.7359
56356SOL    HW276184   0.531   3.142  12.672 -0.9359  0.3037 -1.8756
56357SOL     OW76185  10.163  12.359   1.372 -0.4372 -0.4147 -0.2725
56357SOL    HW176186  10.134  12.293   1.310 -0.4444 -1.5348  0.8708
56357SOL    HW276187  10.085  12.409   1.393 -0.9990 -1.6375  0.6912
56358SOL     OW76188   8.064   6.503   1.155 -0.2285 -0.5635 -0.0507
56358SOL    HW176189   8.136   6.442   1.173  1.0323  0.9050  0.0608
56358SOL    HW276190   8.103   6.590   1.161 -1.5657  0.2577 -1.9244
56359SOL     OW76191   4.355   3.640   9.518 -0.2289 -0.5815  0.2327
56359SOL    HW176192   4.270   3.622   9.478 -0.1742 -1.9082  0.6592
56359SOL    HW276193   4.415   3.581   9.473  0.9307  1.8055 -1.5604
56360SOL     OW76194   3.509   1.568   9.400  0.5576  0.3938  0.6072
56360SOL    HW176195   3.592   1.561   9.352 -0.5364  0.6414 -1.4462
56360SOL    HW276196   3.451   1.507   9.355 -0.5825  0.7649  1.5495
56361SOL     OW76197   0.527   4.166  10.133 -0.3990  0.8669 -0.4872
56361SOL    HW176198   0.587   4.193  10.202 -1.3646  0.2318  0.6264
56361SOL    HW276199   0.443   4.203  10.158 -0.5866  1.3747 -1.8035
56362SOL     OW76200   0.380   0.043   0.251 -0.1604  0.3537 -0.4104
56362SOL    HW176201   0.362   0.058   0.159  1.2587  0.4325 -0.7003
56362SOL    HW276202   0.443   0.112   0.274  0.7731 -0.6647  0.1742
56363SOL     OW76203  10.191   8.306   8.265 -0.3664  0.4237 -0.3121
56363SOL    HW176204  10.212   8.214   8.255 -0.2199  0.1485  1.9993
56363SOL    HW276205  10.108   8.307   8.312 -1.2671  1.5138 -1.8099
56364SOL     OW76206   5.631   1.522   7.364  0.8673 -0.0884 -0.3680
56364SOL    HW176207   5.684   1.547   7.440  1.7095 -1.2390 -0.5571
56364SOL    HW276208   5.541   1.543   7.390  1.2418  0.3545  0.6023
56365SOL     OW76209   8.066  10.729  11.649 -0.2386  0.5524  0.3127
56365SOL    HW176210   8.046  10.794  11.716  1.6999  0.3393  1.1582
56365SOL    HW276211   8.005  10.657  11.665 -0.7991  1.1468  0.8743
56366SOL     OW76212   2.939  10.701   6.762 -0.1754  0.6513  0.1026
56366SOL    HW176213   2.940  10.723   6.669 -1.5294  1.6138  0.2880
56366SOL    HW276214   2.897  10.615   6.766 -1.2395  1.1424 -0.1036
56367SOL     OW76215   2.284   7.377  10.519 -0.3381  0.7250 -0.2405
56367SOL    HW176216   2.226   7.372  10.443 -0.7293 -1.2239  0.1540
56367SOL    HW276217   2.230   7.353  10.593  0.8099 -0.5773  0.2124
56368SOL     OW76218   2.507   3.332   2.770 -0.1029 -0.2651  0.8608
56368SOL    HW176219   2.470   3.295   2.690 -0.2140  0.6348  0.4948
56368SOL    HW276220   2.558   3.260   2.808 -1.3060 -1.1910  0.7999
56369SOL     OW76221   2.197   4.644   4.487  0.2400  0.0058  0.2150
56369SOL    HW176222   2.136   4.686   4.547  0.2250  0.2600  0.0204
56369SOL    HW276223   2.150   4.567   4.455 -1.2685  1.8585 -2.4141
56370SOL     OW76224  10.843   0.267   7.136 -0.0630  0.1174  0.3088
56370SOL    HW176225  10.856   0.222   7.053 -2.0520 -0.4989  0.2894
56370SOL    HW276226  10.878   0.207   7.202  0.4063  0.0698  0.0180
56371SOL     OW76227   3.811   1.409   9.358 -0.3452  0.3510  0.7302
56371SOL    HW176228   3.845   1.430   9.445  0.1901 -0.6862  0.7951
56371SOL    HW276229   3.738   1.349   9.375  0.1166 -0.2991  0.4550
56372SOL     OW76230  12.895   2.717  11.390 -0.1447  0.0573 -0.3685
56372SOL    HW176231  12.806   2.719  11.356  0.2510 -0.7565 -1.5503
56372SOL    HW276232  12.888   2.677  11.477 -0.9163 -0.1324 -0.5168
56373SOL     OW76233   1.229   5.906   4.553  0.7881 -0.4900  0.5373
56373SOL    HW176234   1.278   5.836   4.510 -1.7555 -2.2747  0.3282
56373SOL    HW276235   1.139   5.876   4.552 -0.0969  1.7915  2.5273
56374SOL     OW76236   7.932  12.255  10.523  0.4801 -0.4567 -0.2127
56374SOL    HW176237   7.998  12.299  10.576  1.3107  0.1879 -1.7286
56374SOL    HW276238   7.930  12.165  10.556  0.7133  0.0018  1.1083
56375SOL     OW76239   8.524  10.106   7.208 -0.4024  0.1021 -0.3329
56375SOL    HW176240   8.550  10.034   7.150 -1.7615 -0.4415 -0.2977
56375SOL    HW276241   8.488  10.173   7.150 -1.0252 -0.1068 -0.1934
56376SOL     OW76242   2.900   6.904  12.942  0.1551 -0.1333 -0.4495
56376SOL    HW176243   2.979   6.930  12.894  0.6166 -1.1360 -0.2439
56376SOL    HW276244   2.857   6.840  12.885  0.1294 -0.5049 -0.0167
56377SOL     OW76245   6.509   8.458   5.203  0.0724  0.0035  0.0719
56377SOL    HW176246   6.444   8.485   5.137  1.1888  0.6782 -0.7928
56377SOL    HW276247   6.565   8.396   5.157  0.9106  0.5400  0.3492
56378SOL     OW76248   6.041   5.968   3.788 -0.3237  0.0787  0.3175
56378SOL    HW176249   6.072   5.965   3.697 -2.1958 -1.0767 -0.3478
56378SOL    HW276250   6.112   5.928   3.838  0.5642  0.3328 -0.6858
56379SOL     OW76251   6.017  11.490   7.040  0.0333  0.0885 -0.2502
56379SOL    HW176252   5.966  11.440   7.104  0.8189 -0.5330 -0.0919
56379SOL    HW276253   6.032  11.428   6.968  1.4383 -0.0954  0.1691
56380SOL     OW76254   7.429   1.208  11.696  0.5292 -0.1937 -0.1456
56380SOL    HW176255   7.503   1.254  11.657  0.9301 -0.6500  0.0655
56380SOL    HW276256   7.403   1.145  11.629  2.2015 -2.0519  0.8539
56381SOL     OW76257   4.467  11.704   1.822  0.0370 -0.0996 -0.1939
56381SOL    HW176258   4.535  11.736   1.764 -1.7688  2.4630 -1.0722
56381SOL    HW276259   4.514  11.676   1.901  2.1565  0.6308 -1.1241
56382SOL     OW76260   7.476   2.743   5.996 -0.1534  0.0937 -0.4055
56382SOL    HW176261   7.480   2.813   5.931  1.3643  1.0064  0.6041
56382SOL    HW276262   7.395   2.760   6.045 -0.7238  0.0521 -1.3066
56383SOL     OW76263  11.106   0.586  10.614  0.0723  0.4006  0.0224
56383SOL    HW176264  11.191   0.629  10.619  0.9552 -1.3047  0.1720
56383SOL    HW276265  11.098   0.559  10.523 -1.1834  2.1774 -0.4527
56384SOL     OW76266   2.121  10.246   3.414 -0.1775  0.8681  0.1092
56384SOL    HW176267   2.098  10.338   3.401 -1.6624  0.9627  2.7374
56384SOL    HW276268   2.157  10.242   3.502  0.1888 -1.0441 -0.0767
56385SOL     OW76269   9.096   2.737   4.912  0.3865  0.1571  0.1927
56385SOL    HW176270   9.065   2.721   5.001  0.7610  1.3250  0.5449
56385SOL    HW276271   9.147   2.658   4.890  0.9656  0.2003  1.3261
56386SOL     OW76272  11.952   9.215   3.911 -0.4654 -0.5608 -0.1024
56386SOL    HW176273  11.880   9.165   3.872 -0.8940 -0.1968  0.2261
56386SOL    HW276274  11.988   9.157   3.978  1.2452 -1.8257 -1.9781
56387SOL     OW76275   5.706   3.664   1.060 -0.0804  0.1132  0.1630
56387SOL    HW176276   5.761   3.670   0.981 -0.9248 -0.1850 -0.4617
56387SOL    HW276277   5.629   3.614   1.032 -0.8048  0.7576  0.9493
56388SOL     OW76278   1.994   3.876   3.085 -0.0589 -0.5158 -0.1263
56388SOL    HW176279   2.026   3.949   3.137  1.1724 -1.0594 -0.0933
56388SOL    HW276280   2.036   3.886   2.999 -0.9832 -0.4025 -0.5773
56389SOL     OW76281   3.362  12.606  10.387 -0.2559  0.3629 -0.3994
56389SOL    HW176282   3.319  12.534  10.341  1.8987 -0.5490 -1.1262
56389SOL    HW276283   3.336  12.684  10.338 -1.2892 -0.1010 -0.6214
56390SOL     OW76284   1.332   1.400   0.695 -0.4515  0.1587  0.1576
56390SOL    HW176285   1.341   1.452   0.616 -1.1690  0.4400  0.2599
56390SOL    HW276286   1.353   1.460   0.767  3.1164 -0.7921  0.0957
56391SOL     OW76287   5.693   1.611   9.824  0.1481  0.6383 -0.0793
56391SOL    HW176288   5.655   1.665   9.754 -1.0098  0.6218  0.5072
56391SOL    HW276289   5.689   1.522   9.790 -0.0212  0.6753 -0.1587
56392SOL     OW76290   8.694  11.797   8.304  0.3502 -0.4135  0.0540
56392SOL    HW176291   8.606  11.768   8.283  0.3571 -0.0020 -0.5495
56392SOL    HW276292   8.682  11.880   8.350  0.4127 -0.4660  0.1669
56393SOL     OW76293   2.778   7.673  10.441 -0.1645  0.8009 -0.1089
56393SOL    HW176294   2.850   7.732  10.461  1.2589 -1.0708  0.5956
56393SOL    HW276295   2.806   7.588  10.474 -1.7135 -0.5144 -1.8961
56394SOL     OW76296  11.761   4.426   2.922 -0.1809 -0.0617  0.0017
56394SOL    HW176297  11.839   4.440   2.975  0.0067 -0.3794 -0.1909
56394SOL    HW276298  11.761   4.333   2.902 -0.4176 -0.0015 -0.2979
56395SOL     OW76299   0.123   1.781  11.033  0.3302 -0.1391  0.0621
56395SOL    HW176300   0.042   1.732  11.019 -0.4125  1.4294 -1.3198
56395SOL    HW276301   0.179   1.719  11.081 -1.2345 -1.6630  0.0436
56396SOL     OW76302   1.416   4.782  12.216 -0.5650  0.0034  0.1451
56396SOL    HW176303   1.391   4.791  12.309  0.9861  1.1574  0.4904
56396SOL    HW276304   1.349   4.832  12.169 -1.4655 -0.7316  0.6090
56397SOL     OW76305  11.923   7.049   3.126  0.6189  0.0110  0.3314
56397SOL    HW176306  11.988   7.032   3.058 -0.2697 -0.3915 -0.4277
56397SOL    HW276307  11.972   7.041   3.208  1.9604  1.6042 -0.2548
56398SOL     OW76308   9.625   3.411   4.727  0.7948  0.4893  0.2094
56398SOL    HW176309   9.680   3.424   4.804  2.0826  1.7287 -0.8521
56398SOL    HW276310   9.687   3.383   4.659  0.0158  1.3638 -0.8801
56399SOL     OW76311  10.159  12.334   2.031  0.4207 -0.3128 -0.4824
56399SOL    HW176312  10.084  12.394   2.029  0.5969 -0.1060 -0.9263
56399SOL    HW276313  10.162  12.304   2.122  0.5707  0.6713 -0.1403
56400SOL     OW76314   1.525   4.754   1.628 -0.1647 -0.7015 -0.9617
56400SOL    HW176315   1.535   4.792   1.715 -2.1146  0.2811 -1.1051
56400SOL    HW276316   1.605   4.779   1.582  0.4490 -0.3712  0.2419
56401SOL     OW76317   1.458   3.813   7.754  0.4038 -0.0420 -0.1105
56401SOL    HW176318   1.512   3.781   7.682  0.1283 -1.1348  0.1543
56401SOL    HW276319   1.395   3.743   7.770  0.4633  0.1813  1.1923
56402SOL     OW76320  10.768  10.131  10.546 -0.4214  0.2825  0.2900
56402SOL    HW176321  10.722  10.063  10.497 -0.4873  0.8226 -0.4171
56402SOL    HW276322  10.851  10.091  10.571  0.7332  0.7431 -2.4405
56403SOL     OW76323   7.800  11.196   8.412  0.0138  0.1499  0.2155
56403SOL    HW176324   7.853  11.117   8.419 -0.7236 -0.4433 -0.6652
56403SOL    HW276325   7.811  11.225   8.321 -0.8403  0.2481  0.1348
56404SOL     OW76326   0.935  12.557   7.563 -0.4204  0.4882 -0.0447
56404SOL    HW176327   0.968  12.528   7.478  1.9736  0.8095  0.6887
56404SOL    HW276328   0.958  12.485   7.622  0.5995  1.4620  0.7998
56405SOL     OW76329   0.307  10.182   4.981 -0.0888  0.1319 -0.3191
56405SOL    HW176330   0.221  10.184   5.023  0.5337 -1.5981  1.1707
56405SOL    HW276331   0.369  10.199   5.052  0.8716 -0.0199 -1.0991
56406SOL     OW76332   7.968   1.335   1.603  0.5430  0.5966  0.2188
56406SOL    HW176333   8.062   1.329   1.618  0.6326  1.1003 -0.1135
56406SOL    HW276334   7.929   1.272   1.664  1.0914  0.4140  0.3800
56407SOL     OW76335   0.316   7.544   1.523  0.0339 -0.2134 -0.3863
56407SOL    HW176336   0.390   7.514   1.577 -1.0096 -1.3058  0.4849
56407SOL    HW276337   0.300   7.634   1.552 -0.8375 -0.9375  1.5706
56408SOL     OW76338   3.094  10.029  10.520  0.6785 -0.2589 -0.1489
56408SOL    HW176339   3.035  10.043  10.594  2.0321  1.2783  0.7063
56408SOL    HW276340   3.040  10.044  10.443 -0.1065  1.0370  0.6073
56409SOL     OW76341   3.933   3.576   1.637  0.1082 -0.4841 -0.2423
56409SOL    HW176342   3.973   3.628   1.568  1.0318 -1.6428 -0.6206
56409SOL    HW276343   4.007   3.541   1.686 -0.5258  0.8457  1.7834
56410SOL     OW76344   3.699   5.102   6.681  0.0271  0.2483  0.2104
56410SOL    HW176345   3.675   5.102   6.774 -0.6236 -0.5557  0.0465
56410SOL    HW276346   3.647   5.032   6.642 -0.6777  1.3955 -1.0151
56411SOL     OW76347   9.615   1.991   1.188  0.8243  0.1820 -0.5111
56411SOL    HW176348   9.658   1.917   1.231  1.0136  1.0387  0.7976
56411SOL    HW276349   9.658   2.068   1.223  0.4935  0.9402 -1.7173
56412SOL     OW76350   5.816   0.372   0.446  0.4694  0.3653 -0.0685
56412SOL    HW176351   5.828   0.415   0.361  3.3300 -2.8728 -1.5678
56412SOL    HW276352   5.860   0.430   0.508 -0.3202  2.0623 -1.0330
56413SOL     OW76353  10.035   0.292   1.258  0.0225 -0.1134  0.6943
56413SOL    HW176354  10.064   0.347   1.186  3.8937 -1.2724  1.1520
56413SOL    HW276355  10.029   0.351   1.333  1.0062  0.2335  0.5025
56414SOL     OW76356   8.086   4.799   4.132 -0.2280  0.0299 -0.1406
56414SOL    HW176357   8.115   4.733   4.068 -0.8778 -0.7054  0.3003
56414SOL    HW276358   8.046   4.748   4.202  0.6312  0.8167  0.9458
56415SOL     OW76359   1.071   1.828   1.849 -0.9549 -0.2429 -0.5202
56415SOL    HW176360   1.020   1.876   1.915  1.9652 -1.2672  2.7617
56415SOL    HW276361   1.124   1.895   1.806 -2.1231  0.2864 -1.2206
56416SOL     OW76362   9.107   7.216  12.207 -0.0419 -0.5726  0.2656
56416SOL    HW176363   9.088   7.304  12.239 -0.7927 -1.0765  1.2502
56416SOL    HW276364   9.200   7.219  12.184 -0.2848  0.7510 -0.6617
56417SOL     OW76365   5.699   0.546   2.871  0.4953 -0.0680 -0.1089
56417SOL    HW176366   5.744   0.621   2.832  1.1445  1.3108  2.9761
56417SOL    HW276367   5.769   0.483   2.890  0.3870 -0.1615 -0.0165
56418SOL     OW76368   0.703   5.763   6.498  0.4516 -0.0825  0.6406
56418SOL    HW176369   0.711   5.859   6.498  1.3227 -0.1348 -0.0980
56418SOL    HW276370   0.724   5.738   6.408 -0.8506 -0.9006  0.5549
56419SOL     OW76371  12.081  10.867   3.996 -0.3596  0.4591 -0.0888
56419SOL    HW176372  12.156  10.900   3.947 -0.5416  1.6636  0.4082
56419SOL    HW276373  12.041  10.945   4.034 -2.3986 -0.0295 -1.0724
56420SOL     OW76374   9.412   6.455  12.676 -0.3465  0.0329 -0.8808
56420SOL    HW176375   9.480   6.391  12.657  0.2865  0.5894 -0.5223
56420SOL    HW276376   9.456   6.540  12.673 -0.0859  0.2180  3.1010
56421SOL     OW76377   6.582   6.600   8.306 -0.1669 -0.1488 -0.3605
56421SOL    HW176378   6.649   6.613   8.373  1.7629  0.2230 -2.2617
56421SOL    HW276379   6.603   6.515   8.267 -1.6766 -0.6800 -0.1061
56422SOL     OW76380   8.312   4.036   2.292  0.7232 -0.1532 -0.2591
56422SOL    HW176381   8.263   4.053   2.372 -0.2408 -2.7845 -0.1815
56422SOL    HW276382   8.404   4.034   2.321  0.3494 -1.8048  1.0108
56423SOL     OW76383   0.533   7.489  10.919 -0.2095 -0.6897 -0.1396
56423SOL    HW176384   0.628   7.484  10.927 -0.0747 -0.5816 -1.3744
56423SOL    HW276385   0.500   7.476  11.008  1.0125  1.1429  0.6352
56424SOL     OW76386   0.736  10.481   2.830 -0.1118 -0.3375 -0.5020
56424SOL    HW176387   0.709  10.390   2.816 -1.3084  0.0583 -0.8325
56424SOL    HW276388   0.808  10.475   2.893  0.9595 -1.6417 -1.7629
56425SOL     OW76389   2.234  12.195   7.974  0.1299 -0.4695 -0.7098
56425SOL    HW176390   2.294  12.127   7.945  0.0452 -0.2476 -1.4276
56425SOL    HW276391   2.172  12.205   7.902 -0.2953 -0.1418 -0.3062
56426SOL     OW76392  10.918   3.737   5.106  0.7280 -0.0834  0.2451
56426SOL    HW176393  10.849   3.686   5.147  0.4582  0.5945  0.6521
56426SOL    HW276394  10.999   3.695   5.134  0.4860 -1.0581 -0.4714
56427SOL     OW76395   7.530   1.328   3.983 -0.3515 -0.0703  0.6541
56427SOL    HW176396   7.572   1.354   3.901 -2.5440 -0.6045 -0.7272
56427SOL    HW276397   7.460   1.392   3.996  0.2807  0.3281  2.4484
56428SOL     OW76398   5.768   2.572  12.418 -0.2678  0.1461 -0.2840
56428SOL    HW176399   5.853   2.598  12.383 -0.8289  2.1785 -0.2722
56428SOL    HW276400   5.709   2.642  12.392 -1.7245 -0.6776  0.6489
56429SOL     OW76401  12.658   3.963   2.582 -0.3733 -0.7978 -0.6925
56429SOL    HW176402  12.704   3.922   2.508  0.6918 -1.9344  0.5399
56429SOL    HW276403  12.664   3.898   2.652 -0.1018  0.8166  0.8472
56430SOL     OW76404   0.516  10.312   7.837  0.4114 -0.4844  0.5216
56430SOL    HW176405   0.604  10.318   7.800  0.5913  2.7256  1.2404
56430SOL    HW276406   0.481  10.400   7.831 -2.3386 -1.4213  1.3832
56431SOL     OW76407  12.831   8.983   3.735 -0.5108  0.0121  0.5546
56431SOL    HW176408  12.921   8.976   3.768 -0.0920  0.3766 -0.4951
56431SOL    HW276409  12.777   8.968   3.813  0.4473  0.9276  1.4292
56432SOL     OW76410   1.913   5.125  11.297  0.4507  0.7310 -0.5183
56432SOL    HW176411   1.957   5.079  11.225  0.7446  0.7348 -0.3407
56432SOL    HW276412   1.924   5.218  11.277  1.1779  0.7405 -0.0787
56433SOL     OW76413   1.073   4.643  10.370 -0.1378  0.1780  0.4464
56433SOL    HW176414   1.092   4.551  10.352 -1.3682  0.0879 -0.5536
56433SOL    HW276415   1.033   4.675  10.289 -1.8536  0.9745  1.5455
56434SOL     OW76416   2.358   7.891   5.592 -0.0275  0.7499  0.6861
56434SOL    HW176417   2.450   7.907   5.568 -0.2738  2.2227  0.6254
56434SOL    HW276418   2.310   7.898   5.510 -0.1842 -0.1567  0.6973
56435SOL     OW76419   5.590   4.261  11.481  0.3282  0.3195  0.1065
56435SOL    HW176420   5.553   4.227  11.562  0.4414 -1.0965 -0.4091
56435SOL    HW276421   5.683   4.241  11.487  0.1730 -0.7725 -0.8178
56436SOL     OW76422   6.857   6.831   5.814 -0.0115  0.0309 -0.0217
56436SOL    HW176423   6.795   6.863   5.748 -1.5249 -1.5438  0.5734
56436SOL    HW276424   6.912   6.768   5.767 -1.2920 -1.3265  0.2377
56437SOL     OW76425   0.868   4.088   0.420 -0.1725 -0.3206 -0.5886
56437SOL    HW176426   0.870   4.096   0.515 -2.0032  2.7421 -0.6665
56437SOL    HW276427   0.877   3.994   0.404 -1.4632 -1.1637  2.6923
56438SOL     OW76428   8.308  10.582   8.815 -0.0131  0.1627 -0.0003
56438SOL    HW176429   8.306  10.670   8.852  1.7823  1.0436 -1.7927
56438SOL    HW276430   8.330  10.595   8.723 -0.3014 -2.1454 -0.4594
56439SOL     OW76431   9.507   2.108   6.599 -0.5325 -0.4883  0.4199
56439SOL    HW176432   9.476   2.021   6.574 -0.2238 -0.4643 -0.0691
56439SOL    HW276433   9.427   2.157   6.618 -0.7134 -0.8451  0.6035
56440SOL     OW76434   1.019   7.831  10.821 -0.3629 -0.2672 -0.1341
56440SOL    HW176435   0.998   7.881  10.742  0.4911 -0.0315 -0.2267
56440SOL    HW276436   1.054   7.748  10.788  0.3564 -0.0176 -0.0233
56441SOL     OW76437  11.851   1.967   4.877  0.1916  0.1691  0.2469
56441SOL    HW176438  11.918   1.901   4.893 -1.2705 -1.8320 -1.2588
56441SOL    HW276439  11.808   1.979   4.962  1.1631 -0.0108  0.7723
56442SOL     OW76440  11.696   8.319   6.008 -0.3204 -0.1156 -0.5160
56442SOL    HW176441  11.787   8.308   6.036 -0.3401  3.7114  1.6182
56442SOL    HW276442  11.696   8.292   5.916  2.5890 -1.5967 -0.1992
56443SOL     OW76443   0.422   0.228  12.651 -0.4431 -0.3521 -0.2991
56443SOL    HW176444   0.492   0.175  12.612 -1.0824  0.1083 -2.1974
56443SOL    HW276445   0.459   0.263  12.732  1.9799  0.8789 -1.8329
56444SOL     OW76446  12.904  12.542  11.056 -0.1493  0.0439  0.4431
56444SOL    HW176447  12.976  12.594  11.020 -0.3140 -0.5404 -0.7798
56444SOL    HW276448  12.891  12.577  11.144  1.7133  0.0704  0.7371
56445SOL     OW76449  11.541   5.231   7.918  0.0422 -0.0659 -0.1236
56445SOL    HW176450  11.595   5.258   7.992 -0.9934 -0.6818  0.8909
56445SOL    HW276451  11.461   5.196   7.958 -1.7017  1.9791 -1.5806
56446SOL     OW76452   6.894   4.415   8.720  0.1184  0.5025 -0.0986
56446SOL    HW176453   6.890   4.345   8.785  1.7926  1.3260  0.9562
56446SOL    HW276454   6.832   4.481   8.752 -0.5877  0.0339 -0.4701
56447SOL     OW76455  12.318   3.739   8.415  0.1487 -0.0957  0.2748
56447SOL    HW176456  12.227   3.766   8.404 -0.4969 -0.4970  3.6249
56447SOL    HW276457  12.363   3.818   8.447  0.2834 -0.6474  1.4763
56448SOL     OW76458   1.688  11.982  12.729  0.1378  0.2750  0.0913
56448SOL    HW176459   1.642  12.042  12.789 -0.8883 -0.5679  0.1814
56448SOL    HW276460   1.774  11.970  12.769  0.1131  1.1547  0.4321
56449SOL     OW76461   3.007   2.106   5.088  0.1780 -0.0630  0.1926
56449SOL    HW176462   3.052   2.146   5.162 -0.3935 -0.9053  1.0083
56449SOL    HW276463   3.055   2.024   5.072 -0.7911 -0.7781  0.8220
56450SOL     OW76464   8.246   9.107   5.047  0.3923 -0.4605  0.4089
56450SOL    HW176465   8.257   9.056   5.127 -0.4899  0.8412  1.4095
56450SOL    HW276466   8.331   9.103   5.004  1.3107 -0.0718  2.0981
56451SOL     OW76467   9.469   3.945  12.273  0.3355  0.0898  0.3742
56451SOL    HW176468   9.478   4.001  12.196 -2.2842 -0.2835 -0.3044
56451SOL    HW276469   9.474   4.005  12.347  0.0181  0.8851 -0.2292
56452SOL     OW76470   8.869  11.425   0.320  0.0242  0.0744  0.0789
56452SOL    HW176471   8.926  11.436   0.396  3.2584  1.9301 -2.3608
56452SOL    HW276472   8.901  11.345   0.278 -1.7636 -0.9625  0.6036
56453SOL     OW76473   7.002  11.294   4.306 -0.0602 -0.3362 -0.2719
56453SOL    HW176474   6.938  11.321   4.371 -1.5905 -1.2020 -1.3382
56453SOL    HW276475   7.015  11.200   4.322  0.7115 -0.2355 -0.2694
56454SOL     OW76476  10.615   8.808   4.844 -0.1886  0.1427 -0.2635
56454SOL    HW176477  10.562   8.747   4.793 -0.3929  0.8674 -0.9287
56454SOL    HW276478  10.627   8.884   4.787 -0.1380  0.8353  0.6413
56455SOL     OW76479   2.254   5.130   6.381 -0.3044  0.4946  0.2448
56455SOL    HW176480   2.223   5.058   6.327  1.3386 -1.5000  1.8140
56455SOL    HW276481   2.340   5.152   6.345 -0.5772  1.3948  0.0936
56456SOL     OW76482  10.634   5.638  10.433 -0.2852 -0.4173 -0.0322
56456SOL    HW176483  10.659   5.729  10.445 -2.7249  0.1687  1.2726
56456SOL    HW276484  10.576   5.619  10.508  0.4573 -3.1585 -0.0391
56457SOL     OW76485   2.248   1.867   6.770  0.1500 -0.1444 -0.1409
56457SOL    HW176486   2.328   1.915   6.748  0.6391 -0.5779  0.6478
56457SOL    HW276487   2.227   1.817   6.691  0.6617 -0.0302 -0.3504
56458SOL     OW76488   3.468   5.170   2.892  0.3714  0.0448 -0.1702
56458SOL    HW176489   3.443   5.084   2.858 -0.7821  0.6815 -1.0095
56458SOL    HW276490   3.551   5.189   2.848  0.5977 -0.5957 -0.0362
56459SOL     OW76491  10.652   9.762   5.884 -0.0343 -0.0527 -0.1756
56459SOL    HW176492  10.651   9.805   5.798 -1.4184  0.4541  0.0655
56459SOL    HW276493  10.683   9.673   5.865  3.1012  1.0135 -0.6499
56460SOL     OW76494  12.537   1.049   5.927 -0.0287  0.2360  0.3173
56460SOL    HW176495  12.623   1.011   5.941  0.9631  1.0924 -2.7095
56460SOL    HW276496  12.544   1.138   5.961 -0.2675 -0.1727  1.4833
56461SOL     OW76497   6.303  11.107   7.184 -0.2974  0.4345 -0.5637
56461SOL    HW176498   6.220  11.126   7.139 -0.4399 -0.3274 -0.6302
56461SOL    HW276499   6.295  11.015   7.210  1.7367 -0.5803 -3.1645
56462SOL     OW76500   6.193   2.478   6.658 -0.5762 -0.2344  0.1160
56462SOL    HW176501   6.142   2.428   6.722  1.1842 -1.4355  0.6457
56462SOL    HW276502   6.190   2.568   6.689 -0.0777 -0.7358  1.6987
56463SOL     OW76503   6.550   1.190   0.168  0.0620  0.5861  0.0757
56463SOL    HW176504   6.485   1.121   0.183 -0.3073  0.6181 -1.2330
56463SOL    HW276505   6.572   1.221   0.256  1.0110 -1.8676  0.7978
56464SOL     OW76506   3.743  12.684   5.423 -0.1899  0.0513 -0.2859
56464SOL    HW176507   3.801  12.669   5.349  0.4193  2.0422 -0.2667
56464SOL    HW276508   3.696  12.764   5.401 -1.5828 -0.4944  0.5411
56465SOL     OW76509  12.313   8.999  10.531 -0.2849 -0.2278 -0.0338
56465SOL    HW176510  12.355   9.037  10.453 -0.6975 -2.8537 -1.6667
56465SOL    HW276511  12.321   8.905  10.519 -2.3356 -0.7602  2.0439
56466SOL     OW76512  11.859   4.858  11.972 -0.6104  0.4483 -0.0905
56466SOL    HW176513  11.917   4.910  12.028 -1.3096  0.1332  0.9690
56466SOL    HW276514  11.915   4.827  11.901  0.7817 -0.6703  1.4169
56467SOL     OW76515   7.743  11.921   4.257 -0.7022 -0.2170  0.4100
56467SOL    HW176516   7.662  11.971   4.268 -0.4382 -0.0591  1.7696
56467SOL    HW276517   7.810  11.972   4.302 -0.4305 -1.7643  1.8589
56468SOL     OW76518   5.555   2.597   4.462 -0.2898 -0.2120  1.0065
56468SOL    HW176519   5.500   2.550   4.524 -2.3774  1.9381  0.9358
56468SOL    HW276520   5.518   2.686   4.461  0.5487  0.1995 -2.2482
56469SOL     OW76521  10.845   6.723   6.518 -0.4437  0.0791 -0.2263
56469SOL    HW176522  10.910   6.654   6.506 -0.4941  0.2383 -1.5031
56469SOL    HW276523  10.813   6.741   6.430 -1.2729  0.9219  0.2388
56470SOL     OW76524  12.412  12.589   9.019 -0.3180  0.2193 -0.1174
56470SOL    HW176525  12.388  12.585   9.111  0.6277  0.3831  0.1398
56470SOL    HW276526  12.465  12.511   9.004  0.9140  1.0322 -0.1110
56471SOL     OW76527   7.971   7.792   0.939 -0.2085  0.6111 -0.1075
56471SOL    HW176528   7.928   7.815   1.022 -1.6706 -0.3542 -0.5573
56471SOL    HW276529   8.018   7.711   0.958 -1.9210 -0.5468 -0.5966
56472SOL     OW76530  11.185   8.590   2.261  1.0717  0.2951  0.4525
56472SOL    HW176531  11.272   8.607   2.297  1.2975 -1.6782  0.9493
56472SOL    HW276532  11.185   8.497   2.239 -0.6018  0.4547 -0.4459
56473SOL     OW76533   7.966   0.931   8.007 -0.4189 -0.4484  0.2883
56473SOL    HW176534   7.913   0.925   8.087 -0.1557 -1.2431  0.4174
56473SOL    HW276535   8.056   0.934   8.038 -0.3726  2.2570  0.1276
56474SOL     OW76536  12.896   3.289   2.531  0.2678 -0.5925 -0.4223
56474SOL    HW176537  12.802   3.289   2.513  0.3271  0.6728 -0.8468
56474SOL    HW276538  12.909   3.365   2.588  1.0489 -0.6842 -0.4713
56475SOL     OW76539  11.978   5.431  10.194 -0.2330 -0.3928 -0.1566
56475SOL    HW176540  12.008   5.341  10.194 -0.8661 -0.6375 -1.5520
56475SOL    HW276541  12.054   5.482  10.166  0.1104 -0.4908  0.5859
56476SOL     OW76542  11.943  10.875   8.087  0.1197 -0.3129 -0.0090
56476SOL    HW176543  11.872  10.935   8.063  0.0505 -0.4190 -0.0702
56476SOL    HW276544  12.020  10.912   8.045  0.2385  0.1915  0.6336
56477SOL     OW76545   2.384   0.190   7.771 -0.2559 -0.2305  1.0348
56477SOL    HW176546   2.375   0.124   7.840  0.0385 -0.0868  1.2146
56477SOL    HW276547   2.418   0.142   7.696 -0.8580 -0.4426  0.8981
56478SOL     OW76548   3.600  10.514   2.304  0.6325 -0.2139 -0.3146
56478SOL    HW176549   3.581  10.554   2.219  0.0463 -0.5811 -0.3617
56478SOL    HW276550   3.678  10.561   2.335  0.2129  0.6756 -0.5540
56479SOL     OW76551   7.988   9.834  10.209 -0.1018 -0.0888  0.0203
56479SOL    HW176552   8.031   9.916  10.233 -0.3296  0.0990 -0.2094
56479SOL    HW276553   7.914   9.860  10.155 -0.8993 -0.3739  0.9595
56480SOL     OW76554  10.575   3.774   8.048 -0.2728  0.0179  0.2712
56480SOL    HW176555  10.544   3.716   8.117 -1.6414  0.5641  0.1336
56480SOL    HW276556  10.531   3.857   8.063  0.3756  0.5307 -0.5243
56481SOL     OW76557   4.822   7.136   8.013 -0.6393 -0.0096 -0.7241
56481SOL    HW176558   4.846   7.046   7.991 -0.8986  0.1438 -1.6585
56481SOL    HW276559   4.842   7.186   7.934 -0.5547  0.7465 -0.2322
56482SOL     OW76560   9.302   7.055  10.331 -0.0043 -0.5516  0.7572
56482SOL    HW176561   9.299   7.142  10.371 -0.6980  0.3695 -1.1829
56482SOL    HW276562   9.395   7.030  10.334  0.3668  0.7120  0.4290
56483SOL     OW76563  10.489  11.307   1.883  0.1595 -0.2672 -0.4369
56483SOL    HW176564  10.509  11.377   1.946  1.0531 -0.9302  0.0365
56483SOL    HW276565  10.446  11.240   1.935 -1.0508  0.0762 -0.9695
56484SOL     OW76566   2.316   4.071   0.915 -0.7612  0.0118  0.2776
56484SOL    HW176567   2.318   4.005   0.846  1.5845 -0.2563  0.5013
56484SOL    HW276568   2.296   4.021   0.994 -0.7488 -0.1464  0.1834
56485SOL     OW76569  10.300   2.060   6.363  0.7257  0.2110  0.7327
56485SOL    HW176570  10.307   2.136   6.419  1.8909  0.7416 -0.0916
56485SOL    HW276571  10.379   2.008   6.382  1.2483  0.5083 -0.5341
56486SOL     OW76572   2.238   5.641   0.410 -0.3923  0.3417 -0.0503
56486SOL    HW176573   2.263   5.572   0.472  0.7257  0.3369 -0.4721
56486SOL    HW276574   2.162   5.683   0.450  1.4420  1.6360  2.3207
56487SOL     OW76575   2.119   4.521   9.444  0.2131  0.0086 -0.5420
56487SOL    HW176576   2.116   4.514   9.349 -0.8677  0.8860 -0.5918
56487SOL    HW276577   2.057   4.455   9.476 -1.4185  1.4760 -0.5726
56488SOL     OW76578  10.484   5.879   0.970 -0.1154 -0.3445  0.7946
56488SOL    HW176579  10.414   5.938   0.943 -0.9305  0.8559  4.8730
56488SOL    HW276580  10.544   5.934   1.020  2.3141 -1.9217 -0.1775
56489SOL     OW76581  10.081   1.792   7.656  0.2353 -0.3306  0.5748
56489SOL    HW176582   9.993   1.821   7.681  0.7588  1.7545  0.1805
56489SOL    HW276583  10.072   1.766   7.564 -0.2006 -1.3348  0.8811
56490SOL     OW76584   6.804   8.091   8.339 -0.3908 -0.3009 -0.3917
56490SOL    HW176585   6.886   8.141   8.338 -0.2614 -0.5045 -0.1720
56490SOL    HW276586   6.829   8.005   8.374 -0.7449 -0.2829 -0.0870
56491SOL     OW76587   9.211   6.622   4.558  0.1713  0.0996 -0.1280
56491SOL    HW176588   9.289   6.665   4.591  0.2763  0.9610 -1.4533
56491SOL    HW276589   9.217   6.628   4.463 -1.4890  0.1585 -0.2665
56492SOL     OW76590   4.055   7.888   9.233  0.2444  0.0913  0.0062
56492SOL    HW176591   4.125   7.944   9.266  0.4021  0.0794 -0.3077
56492SOL    HW276592   4.001   7.947   9.179 -0.5337  0.3309  1.0110
56493SOL     OW76593   4.259   5.262   6.420 -0.7023  0.2760  0.1437
56493SOL    HW176594   4.203   5.306   6.484 -0.2306  0.0430  0.7273
56493SOL    HW276595   4.198   5.212   6.364 -1.1604  0.9172  0.0593
56494SOL     OW76596   1.968   2.532   3.406  0.3780 -0.7945 -0.0764
56494SOL    HW176597   2.045   2.538   3.350  0.9649 -2.2234  0.5109
56494SOL    HW276598   2.002   2.550   3.494  0.1255 -1.7029  0.2223
56495SOL     OW76599   4.826   9.228   9.044  0.0690 -0.0632 -0.3945
56495SOL    HW176600   4.788   9.287   8.978 -4.4537 -0.7592  1.2034
56495SOL    HW276601   4.798   9.141   9.017  2.5592 -0.9843 -0.1738
56496SOL     OW76602   5.786   0.882   3.095 -0.5357 -0.6004 -0.5966
56496SOL    HW176603   5.791   0.861   3.188 -1.1827  1.6872  0.0112
56496SOL    HW276604   5.876   0.875   3.064  0.1230  1.0979  0.8171
56497SOL     OW76605   6.755  11.897  12.932 -0.4391 -0.1828  0.6072
56497SOL    HW176606   6.671  11.942  12.944 -0.4044 -0.4790  2.1908
56497SOL    HW276607   6.806  11.921  13.009  1.4999  1.1077 -0.9793
56498SOL     OW76608   2.259   9.811  11.840 -0.2851  0.4226  0.3531
56498SOL    HW176609   2.311   9.877  11.795 -1.0329  1.2179  0.6235
56498SOL    HW276610   2.319   9.737  11.854 -0.0186  0.1339 -1.9351
56499SOL     OW76611  12.804   5.328   1.046 -0.1221  0.1448 -0.3081
56499SOL    HW176612  12.899   5.338   1.042 -0.3111  2.1143 -3.3307
56499SOL    HW276613  12.791   5.237   1.071  2.4896  0.1005  1.3492
56500SOL     OW76614  12.059  12.340   8.594 -0.4934  0.3297 -0.7386
56500SOL    HW176615  12.014  12.263   8.629  1.7927 -0.5577  0.4238
56500SOL    HW276616  12.021  12.413   8.643 -0.8461 -0.3573  0.0473
56501SOL     OW76617   5.920   9.937   1.655  0.1409 -0.1674  0.2127
56501SOL    HW176618   5.974   9.952   1.733 -2.5841  0.0011  2.2378
56501SOL    HW276619   5.856   9.871   1.683 -1.4016  0.4586 -1.6229
56502SOL     OW76620  10.475   5.598   6.582  0.0826 -0.6051  0.0509
56502SOL    HW176621  10.429   5.537   6.641  2.0860 -1.2039  1.0718
56502SOL    HW276622  10.567   5.589   6.606  0.8030  0.2491 -2.2053
56503SOL     OW76623   8.195   5.215  12.870  0.2058  0.2474  0.2520
56503SOL    HW176624   8.280   5.232  12.910  0.4297  0.3529 -0.2623
56503SOL    HW276625   8.132   5.234  12.939  0.4452  2.8324 -0.1225
56504SOL     OW76626   4.850  12.050   8.626 -0.0423  0.3805 -0.4914
56504SOL    HW176627   4.890  11.964   8.635 -0.4165  0.0105 -2.1042
56504SOL    HW276628   4.764  12.041   8.666  0.7314  0.6576  1.3229
56505SOL     OW76629   5.784   3.274   1.829 -1.0893 -0.3881 -0.4551
56505SOL    HW176630   5.732   3.195   1.841 -0.4564 -0.5729  1.2879
56505SOL    HW276631   5.725   3.336   1.785 -2.7975 -0.5873  1.4485
56506SOL     OW76632   7.461   1.576   6.775 -0.3251  0.0552  0.4437
56506SOL    HW176633   7.371   1.554   6.796 -0.8094 -0.2349 -1.6652
56506SOL    HW276634   7.500   1.492   6.748  0.0884  0.4400 -0.1934
56507SOL     OW76635   4.532  11.767  11.956  0.4811  0.1154  0.1372
56507SOL    HW176636   4.522  11.843  11.900  1.0452  0.6699  0.7651
56507SOL    HW276637   4.582  11.799  12.031  1.1487 -0.9852  0.1871
56508SOL     OW76638   1.289   3.745   2.467  0.2298  0.3173 -0.2448
56508SOL    HW176639   1.259   3.656   2.483 -0.2732  0.2896 -1.2754
56508SOL    HW276640   1.374   3.750   2.511  0.4392 -0.7881 -0.4984
56509SOL     OW76641  10.932   7.374   5.978  0.2609  0.1396 -0.3163
56509SOL    HW176642  10.868   7.439   5.949  0.2622 -0.0358 -0.7185
56509SOL    HW276643  10.977   7.347   5.898  2.3099  1.7968  0.2029
56510SOL     OW76644   8.846   9.292  11.136 -0.9639 -0.7670  0.2082
56510SOL    HW176645   8.870   9.201  11.149 -2.3696 -1.1877  0.0800
56510SOL    HW276646   8.828   9.325  11.225 -2.3175 -1.1952  0.1208
56511SOL     OW76647   7.972   5.003   8.727  0.5396  0.1356  0.5128
56511SOL    HW176648   8.002   4.940   8.792 -1.2886 -0.3942  0.8750
56511SOL    HW276649   7.966   5.086   8.774  2.7657  0.6085  0.0793
56512SOL     OW76650   1.126   5.604   0.958  0.0561  1.0400  0.4395
56512SOL    HW176651   1.188   5.656   0.908  1.2273  0.3232  1.1031
56512SOL    HW276652   1.174   5.578   1.037 -0.1428 -1.7591 -0.2376
56513SOL     OW76653   6.209   7.832   1.522  0.1561  0.0503  0.4715
56513SOL    HW176654   6.127   7.851   1.567  1.0204  2.1986  1.2879
56513SOL    HW276655   6.232   7.914   1.477  0.5364 -1.3031 -1.9970
56514SOL     OW76656   3.087   3.112   6.251 -0.4704 -0.0274 -0.2340
56514SOL    HW176657   3.124   3.059   6.181  0.9643  0.6267 -0.0070
56514SOL    HW276658   3.159   3.169   6.279 -0.4615 -1.3465  2.8629
56515SOL     OW76659  12.038   2.845   9.916 -0.1467  0.0632  0.4135
56515SOL    HW176660  11.962   2.848   9.858  0.5393  0.2098 -0.5082
56515SOL    HW276661  12.113   2.844   9.857  0.6916  2.7286  1.2901
56516SOL     OW76662  10.070   7.303  11.008  0.1392 -0.3147  0.4546
56516SOL    HW176663  10.029   7.231  11.056  0.7249 -1.1403 -0.2512
56516SOL    HW276664  10.150   7.322  11.057  0.6332 -1.0214 -0.0426
56517SOL     OW76665   1.246   0.804   1.768  0.2654 -0.2809 -0.4142
56517SOL    HW176666   1.206   0.747   1.703  0.1492 -0.2974 -0.3275
56517SOL    HW276667   1.226   0.763   1.852 -0.8088  0.4850 -0.2679
56518SOL     OW76668   6.303   5.512   3.369 -0.1862 -0.1401 -0.0469
56518SOL    HW176669   6.376   5.543   3.314 -1.8824  1.9361 -1.3081
56518SOL    HW276670   6.230   5.501   3.307 -1.4048 -0.5490  1.4119
56519SOL     OW76671   5.462   0.152   5.410 -0.0712 -0.3038 -0.1336
56519SOL    HW176672   5.535   0.108   5.454 -0.1224  1.4601  1.8775
56519SOL    HW276673   5.495   0.172   5.323  2.1750  1.0196  0.9145
56520SOL     OW76674  11.349   4.902  11.714  0.3710  0.0490 -0.0150
56520SOL    HW176675  11.382   4.954  11.788  1.6187 -0.5132 -0.1514
56520SOL    HW276676  11.408   4.924  11.642 -0.2357 -0.1559 -0.5785
56521SOL     OW76677  12.794   5.627   4.234  0.3536 -0.0485  0.3663
56521SOL    HW176678  12.823   5.707   4.277  0.2624  0.1685  0.0279
56521SOL    HW276679  12.856   5.615   4.162 -0.1177  0.1634 -0.0796
56522SOL     OW76680   9.806   1.165   6.040 -0.2121 -0.5193 -0.0054
56522SOL    HW176681   9.874   1.186   6.104  1.8095 -3.2222 -1.1123
56522SOL    HW276682   9.725   1.199   6.080  1.3067  0.2392  2.7066
56523SOL     OW76683   7.330   4.884   4.650  0.2583  0.2407 -0.9716
56523SOL    HW176684   7.379   4.964   4.668  1.0567  0.3335 -3.2716
56523SOL    HW276685   7.239   4.906   4.671  0.4409  1.8012 -1.6886
56524SOL     OW76686   0.429   7.752  12.660 -0.1802 -0.4924 -0.1633
56524SOL    HW176687   0.418   7.820  12.725 -1.8999 -1.6430  0.8108
56524SOL    HW276688   0.432   7.671  12.710  0.5586 -1.2578 -1.3836
56525SOL     OW76689   8.298   8.797   8.533 -0.1818 -0.4976  0.2487
56525SOL    HW176690   8.343   8.764   8.455 -0.5752  2.7081 -1.4730
56525SOL    HW276691   8.365   8.849   8.578 -0.7729  0.1009  0.4417
56526SOL     OW76692   4.908  12.594  10.532  0.9222  0.1510  0.0745
56526SOL    HW176693   4.888  12.511  10.574  1.3497  0.1149  0.2122
56526SOL    HW276694   4.868  12.660  10.589 -0.7726 -0.0228 -0.8435
56527SOL     OW76695   9.235   6.078   5.816  0.1528 -0.6180 -0.4411
56527SOL    HW176696   9.190   6.049   5.737 -0.8675 -1.0443  0.2745
56527SOL    HW276697   9.282   6.001   5.848  0.2050 -0.5646 -0.3875
56528SOL     OW76698   5.949   9.037   2.575  0.5835 -0.2498  0.1644
56528SOL    HW176699   5.947   9.115   2.520  0.1017  0.5076  1.2224
56528SOL    HW276700   5.932   9.070   2.663 -0.2759 -1.6388  0.5366
56529SOL     OW76701   7.316   0.198   2.775  0.1059  0.6509 -0.3488
56529SOL    HW176702   7.400   0.220   2.817  0.7476 -0.4723 -1.0041
56529SOL    HW276703   7.338   0.130   2.712 -1.5829 -0.9835  0.7100
56530SOL     OW76704  10.059   1.449   3.371 -0.0564 -0.6182 -0.4091
56530SOL    HW176705   9.966   1.433   3.359 -0.1317  0.0867 -0.7442
56530SOL    HW276706  10.089   1.486   3.289  0.9115 -2.5119 -0.9777
56531SOL     OW76707   7.165   1.423   3.648  0.0528 -0.0408 -0.2785
56531SOL    HW176708   7.074   1.392   3.655  0.6147 -2.1273 -1.4300
56531SOL    HW276709   7.167   1.473   3.567 -0.0670 -0.0142 -0.2658
56532SOL     OW76710   9.007  10.298  12.380 -0.5099  0.1464 -0.0388
56532SOL    HW176711   8.992  10.204  12.373 -3.1256  0.4825 -0.1375
56532SOL    HW276712   8.931  10.338  12.338 -0.5513  2.2882  1.8309
56533SOL     OW76713   4.426   2.473   8.717 -0.1182  0.1760  0.5940
56533SOL    HW176714   4.471   2.443   8.639  1.6021 -0.5520  1.7974
56533SOL    HW276715   4.484   2.540   8.754 -1.5227  1.4516  0.5813
56534SOL     OW76716   4.214  12.874   9.172  0.3238  0.0016  0.1446
56534SOL    HW176717   4.208  12.887   9.077  0.7427 -0.6428  0.0286
56534SOL    HW276718   4.199  12.961   9.209 -0.1298  0.2026 -0.5018
56535SOL     OW76719   0.567  10.157  11.183  0.4903 -0.3364 -0.1364
56535SOL    HW176720   0.580  10.091  11.252  0.2910 -1.6962 -1.3617
56535SOL    HW276721   0.656  10.178  11.154  0.5596  0.0364  0.3211
56536SOL     OW76722   7.549   2.426  12.660  0.7299 -0.0083 -0.3649
56536SOL    HW176723   7.614   2.388  12.719  0.6549 -0.5819 -0.6338
56536SOL    HW276724   7.586   2.510  12.634 -0.0958  1.1268  1.9462
56537SOL     OW76725   5.130  11.765   9.041 -0.0816 -0.1495  0.0825
56537SOL    HW176726   5.195  11.811   8.988  0.9000 -0.5281  0.9280
56537SOL    HW276727   5.143  11.672   9.019 -0.4127 -0.2176  0.1723
56538SOL     OW76728   7.273   3.242   2.459 -0.1904  0.0398  0.6715
56538SOL    HW176729   7.349   3.300   2.462 -0.0053 -0.2040  0.7218
56538SOL    HW276730   7.307   3.159   2.425 -0.2068 -0.4142  1.7311
56539SOL     OW76731   8.561   5.386   3.342  0.1726  0.5081  0.1144
56539SOL    HW176732   8.533   5.365   3.431  0.4686 -1.3423 -0.1796
56539SOL    HW276733   8.480   5.390   3.292  0.0330  1.1698  0.3835
56540SOL     OW76734   7.922   6.742   5.491 -0.5733 -0.4156  0.3150
56540SOL    HW176735   7.837   6.699   5.482 -0.0842 -1.7024  1.4755
56540SOL    HW276736   7.984   6.681   5.452  0.0031 -0.2487  0.9579
56541SOL     OW76737   2.355   4.861   2.121  0.0090 -0.4293  0.4391
56541SOL    HW176738   2.295   4.935   2.117  1.1275  0.4660 -0.8211
56541SOL    HW276739   2.342   4.815   2.038 -0.2592 -1.3325  0.9639
56542SOL     OW76740   7.368   4.864  10.822 -0.3203  0.4306  0.8435
56542SOL    HW176741   7.431   4.921  10.779 -0.7123  0.6240  0.5155
56542SOL    HW276742   7.375   4.886  10.915 -1.1966  1.7664  0.6184
56543SOL     OW76743   9.541   1.161   3.938 -0.4695 -0.0938  0.1091
56543SOL    HW176744   9.452   1.163   3.904 -0.4816 -1.3496  0.0148
56543SOL    HW276745   9.590   1.220   3.880 -1.3293  1.0461  0.5051
56544SOL     OW76746  12.119   8.548   7.717 -0.2420  0.0477  0.4880
56544SOL    HW176747  12.096   8.562   7.625  1.1285  0.8890  0.2375
56544SOL    HW276748  12.137   8.636   7.750  1.6924 -0.4698  0.8820
56545SOL     OW76749   2.252   1.532   1.431 -0.1677  0.2337 -0.8067
56545SOL    HW176750   2.300   1.462   1.387  1.8235  0.3588  1.0262
56545SOL    HW276751   2.312   1.606   1.431 -0.1967  0.3336  1.7637
56546SOL     OW76752   4.476   0.677   7.171  0.3393  0.1743  0.4329
56546SOL    HW176753   4.562   0.671   7.213  0.6835  0.1004 -0.2636
56546SOL    HW276754   4.454   0.586   7.148 -0.2768  0.1025  1.2949
56547SOL     OW76755   0.218   2.894   9.515  0.7132  0.1297 -0.3739
56547SOL    HW176756   0.196   2.801   9.520 -0.3325  0.2719 -1.7963
56547SOL    HW276757   0.227   2.922   9.606 -6.2649  0.3027  0.7729
56548SOL     OW76758  12.678   0.113   3.897 -0.4892  0.4094 -0.3866
56548SOL    HW176759  12.640   0.033   3.932 -1.0446  0.1670 -1.4997
56548SOL    HW276760  12.653   0.113   3.805 -1.4447  2.4024 -0.1906
56549SOL     OW76761   6.732  11.557   0.421  0.4296  0.0718 -0.6832
56549SOL    HW176762   6.752  11.608   0.343  1.4282 -0.1950 -0.6143
56549SOL    HW276763   6.659  11.501   0.395 -0.3107  1.1343 -0.9212
56550SOL     OW76764   4.127   3.979   5.457  0.5021  0.1100  0.3253
56550SOL    HW176765   4.072   4.052   5.483  1.7945  0.9445  0.7972
56550SOL    HW276766   4.109   3.967   5.364  1.5715  2.2011 -0.1925
56551SOL     OW76767   0.618   3.061  10.718  0.0664  0.4012  0.4777
56551SOL    HW176768   0.705   3.023  10.725  0.4841  1.0163 -1.0260
56551SOL    HW276769   0.561   2.987  10.699  0.1967 -0.0384  1.6820
56552SOL     OW76770   1.212   7.642   9.748  0.0211 -0.1188 -0.3394
56552SOL    HW176771   1.177   7.704   9.684 -1.2554 -1.2116 -0.7759
56552SOL    HW276772   1.146   7.572   9.751  1.2297 -1.2733  0.3838
56553SOL     OW76773   0.754  12.918   2.742 -0.4325 -0.5401 -0.3688
56553SOL    HW176774   0.761  12.825   2.720  0.0521 -0.2847 -1.3591
56553SOL    HW276775   0.774  12.963   2.660  1.1073  0.4743  0.5310
56554SOL     OW76776   9.011   0.153  12.285  0.3212 -0.5799  0.0215
56554SOL    HW176777   8.999   0.092  12.213  2.0500  2.3386 -3.0262
56554SOL    HW276778   9.106   0.170  12.286 -0.2461  4.0174 -1.3433
56555SOL     OW76779   1.159   5.481   6.579  0.0833  0.2146  0.0340
56555SOL    HW176780   1.078   5.482   6.529 -0.1937  0.9259  0.4772
56555SOL    HW276781   1.151   5.407   6.639  0.7300 -1.1037 -1.4466
56556SOL     OW76782   9.173   7.330   1.033 -0.6043  0.7765 -0.0919
56556SOL    HW176783   9.169   7.290   1.120 -0.5816  1.9057  0.4425
56556SOL    HW276784   9.109   7.281   0.982  0.2855 -0.7596  0.1730
56557SOL     OW76785   7.880   7.118   8.296  0.0027 -0.5076  0.4100
56557SOL    HW176786   7.934   7.193   8.319 -0.6286 -0.4021  1.6973
56557SOL    HW276787   7.930   7.042   8.327 -1.4257 -0.2963  3.6721
56558SOL     OW76788  12.379   4.153   3.160 -0.0508  0.5034 -0.2768
56558SOL    HW176789  12.380   4.079   3.099 -0.6562 -0.5718  0.9375
56558SOL    HW276790  12.310   4.210   3.127 -0.1919  0.0657 -0.7565
56559SOL     OW76791  11.768   8.018   6.428  0.0197  0.2007 -0.4383
56559SOL    HW176792  11.694   8.074   6.453 -0.4936 -0.4160 -0.5507
56559SOL    HW276793  11.784   8.041   6.336  1.0827  1.5492  0.0476
56560SOL     OW76794   3.643   6.277  10.401 -0.2398  0.3592  0.0828
56560SOL    HW176795   3.702   6.346  10.430  0.5907 -0.4010  0.2273
56560SOL    HW276796   3.637   6.216  10.474  0.2848 -0.5276 -0.5817
56561SOL     OW76797   2.191   3.333   9.742  0.2889  0.1832  0.2226
56561SOL    HW176798   2.190   3.393   9.817  0.2701  0.3480  0.0892
56561SOL    HW276799   2.126   3.266   9.765 -0.0231  0.4641  0.1657
56562SOL     OW76800   0.119   9.252   7.777 -0.2009  0.2580 -0.4625
56562SOL    HW176801   0.132   9.332   7.727  0.5602  0.8124  0.6040
56562SOL    HW276802   0.037   9.266   7.824  0.7055  1.0592  0.9164
56563SOL     OW76803  12.316  12.577   3.244 -0.1856  0.2005  0.2487
56563SOL    HW176804  12.390  12.530   3.282 -0.2728 -0.4619 -0.3768
56563SOL    HW276805  12.261  12.600   3.319 -0.3579 -1.0969  0.5502
56564SOL     OW76806   5.662   5.023  11.050  0.0460 -0.3280 -0.5589
56564SOL    HW176807   5.622   4.983  11.127  0.6225  1.0550  0.5133
56564SOL    HW276808   5.592   5.024  10.984 -1.8083  1.9593  1.2277
56565SOL     OW76809   3.166  12.000   1.004 -0.2113 -0.0984  0.4801
56565SOL    HW176810   3.227  11.980   0.933 -0.7305  1.5745 -0.4833
56565SOL    HW276811   3.221  12.001   1.082  0.8984  0.7334 -0.2809
56566SOL     OW76812   3.927   4.973   0.461 -0.2683  0.1192 -0.2768
56566SOL    HW176813   3.917   5.043   0.526 -0.8784 -1.4828  1.4228
56566SOL    HW276814   3.893   4.895   0.503  1.2227 -1.4472 -1.7750
56567SOL     OW76815   6.468  10.079   4.079 -0.2069  0.3932 -0.3486
56567SOL    HW176816   6.488  10.042   3.993  0.0342 -0.3000  0.0020
56567SOL    HW276817   6.546  10.128   4.103  0.7254 -1.4269  0.5431
56568SOL     OW76818   8.532   9.314   8.242 -0.1813  0.1514 -0.3480
56568SOL    HW176819   8.564   9.232   8.280 -0.2907  1.5714  3.1276
56568SOL    HW276820   8.588   9.382   8.280 -3.3731  2.1547  1.1571
56569SOL     OW76821   6.083   8.597   8.888 -0.7560 -0.0833  0.6367
56569SOL    HW176822   6.120   8.673   8.932 -0.0838  0.2494 -0.4785
56569SOL    HW276823   6.017   8.633   8.829  0.3958 -0.2237 -0.7818
56570SOL     OW76824   1.759   7.993   2.012  0.0239  0.5867 -0.5076
56570SOL    HW176825   1.700   7.923   2.043  0.1743  0.2475 -0.9737
56570SOL    HW276826   1.727   8.072   2.055 -1.3414  0.5735 -1.4158
56571SOL     OW76827   9.709   6.690   4.373  0.0531  0.2027 -0.3373
56571SOL    HW176828   9.650   6.729   4.309  1.0473  0.1237 -1.3227
56571SOL    HW276829   9.720   6.599   4.345 -0.4773 -0.1958  0.6695
56572SOL     OW76830   1.598   6.075   8.449  0.0265 -0.2126  0.4586
56572SOL    HW176831   1.540   6.142   8.486  0.4501  0.1612  0.4546
56572SOL    HW276832   1.615   6.104   8.360  0.7134  0.0074  0.6573
56573SOL     OW76833  10.572   5.880   6.186  0.1725  0.0875 -0.9082
56573SOL    HW176834  10.532   5.794   6.199  1.8662 -0.9126 -1.9099
56573SOL    HW276835  10.601   5.907   6.273  1.4193 -1.3202 -0.8445
56574SOL     OW76836   5.928  12.557  12.280  0.1479  0.3300  0.1206
56574SOL    HW176837   6.002  12.616  12.292 -0.6627  1.0251  2.1282
56574SOL    HW276838   5.853  12.604  12.317 -1.4661 -0.1440 -2.2369
56575SOL     OW76839  12.308  10.987  12.459  0.0301  0.0430  0.2423
56575SOL    HW176840  12.232  11.042  12.476 -2.5168 -2.3033 -2.3542
56575SOL    HW276841  12.308  10.924  12.531 -0.2978  0.2523  0.4311
56576SOL     OW76842   0.814   7.520   9.617  0.3126 -0.2250 -0.5964
56576SOL    HW176843   0.848   7.609   9.607  0.1135 -0.1537 -0.6317
56576SOL    HW276844   0.886   7.472   9.658  0.7149 -0.2456 -1.3039
56577SOL     OW76845  11.925   4.086   1.131 -0.3418  0.3963  0.2655
56577SOL    HW176846  11.871   4.036   1.193 -0.3769  0.9444  0.6898
56577SOL    HW276847  11.862   4.141   1.084 -0.1258  1.3727  1.0798
56578SOL     OW76848  11.264  11.216  12.880 -0.0545 -0.1672 -0.2870
56578SOL    HW176849  11.233  11.258  12.960 -0.1016  0.1844 -0.4888
56578SOL    HW276850  11.209  11.253  12.811  1.0478  0.7224 -0.7036
56579SOL     OW76851   8.187   5.783   2.578  0.4277  0.1068 -0.1676
56579SOL    HW176852   8.167   5.717   2.645  1.2080  1.2027  1.1829
56579SOL    HW276853   8.103   5.826   2.561  0.5447  1.0265  1.4613
56580SOL     OW76854   5.837  11.869   4.068  0.6310  0.2063  0.0121
56580SOL    HW176855   5.826  11.947   4.122  0.2009  0.1743 -0.0240
56580SOL    HW276856   5.893  11.897   3.996 -0.3465  0.7561 -0.5518
56581SOL     OW76857  12.773   3.343  12.317  0.3640  0.0656 -0.1270
56581SOL    HW176858  12.691   3.319  12.360 -1.9187  1.3838 -3.3279
56581SOL    HW276859  12.763   3.435  12.296  2.7605  0.2986 -0.5267
56582SOL     OW76860  10.519  11.439   4.679  0.5379 -0.4346  0.5682
56582SOL    HW176861  10.612  11.458   4.665 -0.0017  0.4497 -2.9321
56582SOL    HW276862  10.498  11.373   4.612 -1.5159  0.0660  0.6508
56583SOL     OW76863   8.740   0.828   2.652  0.2876 -0.0723 -0.0337
56583SOL    HW176864   8.657   0.780   2.660  0.5137 -0.4606  0.0215
56583SOL    HW276865   8.804   0.761   2.629  1.2487 -0.3853  3.1229
56584SOL     OW76866  10.458   2.465   2.574 -0.2995 -0.0897  0.3586
56584SOL    HW176867  10.371   2.466   2.613 -0.6353 -0.1374 -0.3761
56584SOL    HW276868  10.454   2.396   2.507  0.4989 -0.5463  0.7652
56585SOL     OW76869   6.932  12.248  11.090  0.3535  1.0343  0.1217
56585SOL    HW176870   6.900  12.190  11.021 -0.1362  0.8446  0.5039
56585SOL    HW276871   6.913  12.336  11.058 -1.7069  0.9108  0.8606
56586SOL     OW76872  12.405  11.617   4.500 -0.0476  0.4036 -0.0590
56586SOL    HW176873  12.452  11.700   4.490  1.1083 -0.1951  0.1901
56586SOL    HW276874  12.472  11.550   4.486 -0.5791 -0.4939  1.4528
56587SOL     OW76875   3.502   7.076  12.698  1.0229  0.2383 -0.4816
56587SOL    HW176876   3.534   7.142  12.636 -0.2134  1.3539  0.0373
56587SOL    HW276877   3.436   7.027  12.649  1.8180 -0.5355 -0.8116
56588SOL     OW76878  12.034  11.315   1.372 -0.3173  0.1391  0.3260
56588SOL    HW176879  11.955  11.262   1.377  0.4389 -1.2104 -1.1587
56588SOL    HW276880  12.011  11.396   1.417 -1.9386 -0.9135  1.5184
56589SOL     OW76881  11.979  12.315   8.966 -0.6091  0.6918  0.1301
56589SOL    HW176882  12.062  12.360   8.954  0.4815 -1.1583  0.3359
56589SOL    HW276883  11.919  12.358   8.905  1.0543  0.7328 -1.5695
56590SOL     OW76884   2.760   8.122  10.014 -0.2749  0.3256  0.2289
56590SOL    HW176885   2.714   8.138   9.931  0.1172 -0.4237 -0.1402
56590SOL    HW276886   2.698   8.070  10.066 -0.8337  1.4542  0.7279
56591SOL     OW76887  12.319   1.371   8.545  0.4269 -0.3154  0.2778
56591SOL    HW176888  12.370   1.376   8.464 -1.0219  0.4217 -0.6316
56591SOL    HW276889  12.323   1.460   8.580  0.4612 -0.4604  0.6383
56592SOL     OW76890   4.400   5.559   5.084  0.0351 -0.4011  0.5122
56592SOL    HW176891   4.459   5.545   5.010  0.2534 -0.4610  0.6983
56592SOL    HW276892   4.321   5.510   5.061  0.4745 -1.2538  0.7645
56593SOL     OW76893  11.671   2.494   2.552  0.4934 -0.3129  0.1087
56593SOL    HW176894  11.636   2.477   2.639  0.2629 -1.0826 -0.1307
56593SOL    HW276895  11.754   2.539   2.568 -0.6466  1.7374  0.6856
56594SOL     OW76896   8.029   6.641   3.162  0.2504 -0.1395  0.7273
56594SOL    HW176897   7.993   6.583   3.229 -0.0696  0.0015  0.6826
56594SOL    HW276898   7.999   6.604   3.079 -1.8758  1.3007  0.7639
56595SOL     OW76899  11.276  11.365   9.195  0.1066 -0.1738 -0.5012
56595SOL    HW176900  11.282  11.378   9.289 -2.3944  1.3728 -0.4616
56595SOL    HW276901  11.229  11.282   9.185 -0.0128 -0.1259 -0.3554
56596SOL     OW76902   8.653   9.835   6.531  0.6594 -0.9715 -0.0717
56596SOL    HW176903   8.665   9.880   6.615 -0.2012 -2.4234  0.8779
56596SOL    HW276904   8.567   9.863   6.501  2.0641  1.7489 -1.9543
56597SOL     OW76905   9.879   5.767  10.723 -0.1784 -0.2203  0.0923
56597SOL    HW176906   9.883   5.752  10.629 -1.2318 -0.9574  0.1511
56597SOL    HW276907   9.904   5.683  10.762  1.6794  0.4711  0.5099
56598SOL     OW76908   1.155  10.046   4.728  0.4255 -0.4751 -0.1407
56598SOL    HW176909   1.071  10.082   4.758  0.2648 -0.3825 -0.6927
56598SOL    HW276910   1.155  10.061   4.633 -0.0948 -2.8505 -0.5720
56599SOL     OW76911   0.357   2.945   3.163 -0.3711  0.2738  0.4182
56599SOL    HW176912   0.353   2.874   3.098  3.0391 -1.7022  2.0575
56599SOL    HW276913   0.430   3.000   3.133  0.8567 -0.3292  2.1214
56600SOL     OW76914   2.906   8.057   5.636  0.1684 -0.3890 -0.2178
56600SOL    HW176915   2.939   8.122   5.574  1.7051 -1.1047 -0.2005
56600SOL    HW276916   2.963   7.981   5.623  0.0848 -0.8038  1.5603
56601SOL     OW76917  10.700  10.627   4.585 -0.4072  0.5929  0.6714
56601SOL    HW176918  10.779  10.591   4.626 -0.4526 -1.9920 -1.2903
56601SOL    HW276919  10.629  10.571   4.616 -0.5657 -0.8599 -2.0160
56602SOL     OW76920   8.255  11.149   5.676 -0.1324  0.0262  0.0092
56602SOL    HW176921   8.210  11.143   5.592 -0.4741  0.9612  0.1178
56602SOL    HW276922   8.313  11.224   5.667  2.0692 -1.6205 -0.4134
56603SOL     OW76923   8.116   8.300   2.547 -0.4764  0.3804  0.0997
56603SOL    HW176924   8.143   8.213   2.518  1.5397  1.6262 -2.0733
56603SOL    HW276925   8.191   8.334   2.595 -1.6762  0.5809  1.9660
56604SOL     OW76926  11.605  11.081  11.238  0.3870  0.6175 -0.0021
56604SOL    HW176927  11.655  11.003  11.218  0.1815  0.4073  0.2960
56604SOL    HW276928  11.559  11.102  11.156 -0.9387 -0.5959  0.4002
56605SOL     OW76929   6.043   4.305   0.920 -0.4127 -0.1895 -0.0845
56605SOL    HW176930   6.136   4.286   0.909 -0.3005  0.3627 -0.1231
56605SOL    HW276931   6.000   4.251   0.855 -0.3900 -2.7712  1.9092
56606SOL     OW76932   9.818   6.166   0.955 -0.0145 -0.3325  0.5211
56606SOL    HW176933   9.807   6.077   0.989 -1.4595 -0.0587  0.8714
56606SOL    HW276934   9.911   6.174   0.937  0.4525 -1.2934  2.2652
56607SOL     OW76935  10.922   5.021   4.982  0.1020  0.4305 -0.3466
56607SOL    HW176936  10.992   5.057   4.929 -0.2056  0.0514 -1.0266
56607SOL    HW276937  10.956   4.937   5.012 -0.0903  0.2066 -0.7494
56608SOL     OW76938   1.719   6.294   1.232 -0.1399 -0.1491 -0.3695
56608SOL    HW176939   1.675   6.350   1.169 -1.4439 -1.1813 -0.4359
56608SOL    HW276940   1.771   6.353   1.286  0.1501  0.8614 -1.7233
56609SOL     OW76941   5.259  12.278   7.083  0.1347  0.1364 -0.1368
56609SOL    HW176942   5.277  12.330   7.161 -1.2286 -0.2598  0.4607
56609SOL    HW276943   5.334  12.218   7.076  1.2559  1.4894 -0.3017
56610SOL     OW76944   0.032   8.372   8.332  0.1212  0.5079 -0.7462
56610SOL    HW176945  -0.061   8.397   8.324 -1.1743 -3.2417  0.5565
56610SOL    HW276946   0.056   8.400   8.420 -1.2311 -2.1549  0.5998
56611SOL     OW76947   8.107  12.310   9.536 -0.1644 -0.1803  0.1790
56611SOL    HW176948   8.044  12.243   9.509  0.9987 -0.1552 -2.9973
56611SOL    HW276949   8.058  12.392   9.532  0.2352  0.0457 -3.7963
56612SOL     OW76950   5.192   5.954   0.297  0.5358 -0.5253  0.4120
56612SOL    HW176951   5.282   5.967   0.325  0.7000  2.8474 -1.1340
56612SOL    HW276952   5.146   6.033   0.325 -1.5165 -1.3321 -0.4238
56613SOL     OW76953   2.909   3.468   3.749 -0.4231 -0.5879  0.4329
56613SOL    HW176954   2.872   3.406   3.812  0.4400 -2.6261 -0.9465
56613SOL    HW276955   3.003   3.467   3.768 -0.3664  0.1028  0.2011
56614SOL     OW76956   3.854   3.778   3.434  0.2026  0.4867 -0.7760
56614SOL    HW176957   3.780   3.720   3.450  0.1282  1.0323  1.0249
56614SOL    HW276958   3.817   3.867   3.442  1.2511  0.7868  1.5896
56615SOL     OW76959   0.384   0.008   0.726  0.3964 -0.0441  0.4728
56615SOL    HW176960   0.379   0.092   0.680  0.9194 -1.5380 -2.5747
56615SOL    HW276961   0.300  -0.034   0.711  0.4130 -0.3985  1.2986
56616SOL     OW76962  11.882   7.185   0.694 -0.0096 -0.1957 -0.1999
56616SOL    HW176963  11.788   7.186   0.676 -0.0662  0.0324  0.0961
56616SOL    HW276964  11.891   7.228   0.780  0.4065  0.1758 -0.4207
56617SOL     OW76965   9.556   1.531   3.080  0.0898 -0.2569 -0.2695
56617SOL    HW176966   9.468   1.542   3.118 -0.2980 -0.3464 -1.1146
56617SOL    HW276967   9.566   1.606   3.022  1.1376  0.4897  0.8412
56618SOL     OW76968   0.573  11.191   8.066  0.2950 -0.0630 -0.0488
56618SOL    HW176969   0.578  11.270   8.119 -0.2108 -0.4392  0.5657
56618SOL    HW276970   0.598  11.120   8.125 -0.8666 -0.5665 -0.1271
56619SOL     OW76971   7.152   5.115   1.320 -0.1987 -0.1248  0.0958
56619SOL    HW176972   7.131   5.044   1.381  1.7284 -0.4816  0.4124
56619SOL    HW276973   7.146   5.076   1.233 -0.4378 -0.3036  0.1916
56620SOL     OW76974  11.271   0.178  11.742 -0.0950 -0.4278  0.2665
56620SOL    HW176975  11.304   0.088  11.737 -2.2399 -1.2730  0.1723
56620SOL    HW276976  11.295   0.208  11.829  1.3832 -0.7679 -0.0110
56621SOL     OW76977   9.266   5.535   1.913 -0.6936 -0.5876 -0.9831
56621SOL    HW176978   9.354   5.506   1.890 -0.7330  0.8146 -3.1895
56621SOL    HW276979   9.236   5.472   1.979  2.8672  0.3029  1.8326
56622SOL     OW76980  11.962  12.394   6.776  0.1428 -0.2932  0.5399
56622SOL    HW176981  11.951  12.365   6.686 -1.1695 -0.8554  0.8560
56622SOL    HW276982  12.036  12.343   6.809  1.1468  0.5082 -0.4508
56623SOL     OW76983   4.925  12.391  11.641  0.2716  0.2149  0.6633
56623SOL    HW176984   5.016  12.395  11.669 -0.0306 -0.9069  1.9102
56623SOL    HW276985   4.896  12.482  11.642  1.3789  0.5898  0.2165
56624SOL     OW76986   2.769   6.589   6.486 -0.7144  0.0213 -0.1146
56624SOL    HW176987   2.763   6.494   6.495  0.5583 -0.0968 -0.4174
56624SOL    HW276988   2.862   6.609   6.495 -0.7073  1.0397 -1.9955
56625SOL     OW76989   3.717  11.399  10.748  0.1983  0.2329 -0.5935
56625SOL    HW176990   3.713  11.303  10.742 -0.8762  0.1014  1.3248
56625SOL    HW276991   3.799  11.422  10.705  0.6751 -1.5756 -0.7592
56626SOL     OW76992   2.164   4.862   7.066  0.2588 -0.3087 -0.2475
56626SOL    HW176993   2.147   4.847   6.973  0.0359  0.8622 -0.4031
56626SOL    HW276994   2.129   4.949   7.083  1.6819  0.1206  0.5945
56627SOL     OW76995   8.328   7.379  10.586  0.5158 -0.1618 -0.7061
56627SOL    HW176996   8.342   7.323  10.509  0.2010  0.0031 -0.8844
56627SOL    HW276997   8.239   7.358  10.614  0.0313  0.9337 -1.3420
56628SOL     OW76998  12.232   1.837  12.865  0.3378  0.3713 -0.3021
56628SOL    HW176999  12.239   1.742  12.879  1.2561  0.5020  0.1728
56628SOL    HW277000  12.255   1.848  12.772  0.1468  0.1247 -0.3823
56629SOL     OW77001  12.837   4.924   4.290  0.2819 -0.1244 -0.3281
56629SOL    HW177002  12.848   4.884   4.376  1.8213  0.1401 -0.3750
56629SOL    HW277003  12.766   4.875   4.249  1.0982 -1.8018  0.2014
56630SOL     OW77004  11.722   5.750  10.354  0.3263 -0.0692  0.1139
56630SOL    HW177005  11.659   5.742  10.282  0.8093  1.9750 -0.5968
56630SOL    HW277006  11.686   5.818  10.411  1.0595 -0.0810  0.6088
56631SOL     OW77007   6.378   2.065   1.789  0.3293  0.5533 -0.2235
56631SOL    HW177008   6.285   2.057   1.771 -0.2950 -0.2806  2.8033
56631SOL    HW277009   6.418   1.989   1.745 -0.1441  1.5728 -2.5670
56632SOL     OW77010  11.540   4.974  11.538  0.3393  0.1713  0.3233
56632SOL    HW177011  11.560   4.932  11.454  1.6883  1.6233 -0.1440
56632SOL    HW277012  11.610   4.945  11.597  0.5611  0.7473  0.3509
56633SOL     OW77013  12.399  11.442   7.652 -0.0860  0.4737 -0.5034
56633SOL    HW177014  12.354  11.471   7.573  0.1435  2.4852  0.0433
56633SOL    HW277015  12.341  11.467   7.724 -0.1794 -1.0971  0.0098
56634SOL     OW77016  10.228  11.721   7.154 -0.5663  0.2041  0.7313
56634SOL    HW177017  10.158  11.662   7.181  0.6880 -1.2147  1.0232
56634SOL    HW277018  10.184  11.789   7.104 -2.3046  0.0938  2.0373
56635SOL     OW77019  11.433   8.009   1.154 -0.0128  0.8316 -0.0620
56635SOL    HW177020  11.362   7.946   1.167  1.6325 -1.3846 -1.0671
56635SOL    HW277021  11.420   8.042   1.065 -0.1090  0.8681 -0.0341
56636SOL     OW77022   7.034   1.108   6.606  0.4649 -0.3514  0.4634
56636SOL    HW177023   7.071   1.185   6.563  0.9438 -0.8087  0.0484
56636SOL    HW277024   7.030   1.042   6.537 -3.5881  0.4050 -0.3095
56637SOL     OW77025   9.902  12.541   0.766  0.3592  0.2561  0.1259
56637SOL    HW177026   9.899  12.619   0.710  0.3297  0.2160  0.0712
56637SOL    HW277027   9.823  12.492   0.743  0.2946  0.2889  0.2742
56638SOL     OW77028   9.140  12.589   7.752 -0.2557 -0.2624  0.3984
56638SOL    HW177029   9.116  12.557   7.839 -1.7398  2.1997  0.9987
56638SOL    HW277030   9.057  12.613   7.712  0.5042 -0.3028 -1.2850
56639SOL     OW77031   1.522   9.354   5.630  0.2888  0.6136 -0.1442
56639SOL    HW177032   1.503   9.290   5.561  0.1302 -0.3345  0.7325
56639SOL    HW277033   1.441   9.357   5.681  0.5276  1.0072  0.2152
56640SOL     OW77034  10.621  12.675   9.345  0.3151 -0.0891 -0.6269
56640SOL    HW177035  10.627  12.771   9.337  1.0491 -0.1574 -1.0058
56640SOL    HW277036  10.712  12.646   9.338  0.3472 -0.6688  1.3805
56641SOL     OW77037  11.457  12.938  11.598  0.0285 -0.1105 -0.9603
56641SOL    HW177038  11.484  13.022  11.561 -1.0643  0.0324 -1.4662
56641SOL    HW277039  11.429  12.887  11.522  0.5533 -0.8937 -0.6391
56642SOL     OW77040   8.747   0.219   1.349  0.2942 -0.0562  0.1544
56642SOL    HW177041   8.680   0.227   1.282  0.6270 -0.2547 -0.2014
56642SOL    HW277042   8.829   0.212   1.301  0.5978  0.4409  0.5915
56643SOL     OW77043   6.598   0.064   2.769 -0.0559 -0.4977 -0.0181
56643SOL    HW177044   6.519   0.011   2.767  1.1953 -2.5382  1.1821
56643SOL    HW277045   6.589   0.119   2.847 -0.9567  0.4641 -0.7689
56644SOL     OW77046   7.393   1.603   1.999  0.5416 -0.1031  0.4076
56644SOL    HW177047   7.343   1.655   1.935  2.3284  0.0991 -0.9022
56644SOL    HW277048   7.327   1.549   2.042 -1.0016  1.2153 -0.1628
56645SOL     OW77049   5.134   1.298   9.300  0.0441 -0.1095 -0.3701
56645SOL    HW177050   5.112   1.352   9.377 -1.2271 -0.6949 -0.2865
56645SOL    HW277051   5.196   1.351   9.250 -1.7020  1.7897 -0.6793
56646SOL     OW77052  12.419  12.147   1.392 -0.5584  0.1110 -0.2488
56646SOL    HW177053  12.340  12.103   1.361 -0.1997  0.0865 -1.1476
56646SOL    HW277054  12.428  12.118   1.483 -2.2112  1.0193  0.2557
56647SOL     OW77055   8.627   0.791   1.476 -0.1682  0.2059  0.2299
56647SOL    HW177056   8.686   0.831   1.540  1.2979 -0.8389 -0.4144
56647SOL    HW277057   8.565   0.741   1.529  0.7168 -0.2338  0.8872
56648SOL     OW77058   7.186   7.221  11.423  0.4697 -0.1451 -0.1080
56648SOL    HW177059   7.145   7.194  11.505  0.9733  1.6622  0.8049
56648SOL    HW277060   7.250   7.288  11.449  0.5113  0.6224 -1.9988
56649SOL     OW77061   2.321   8.330   9.760  0.3436  0.0598  0.3141
56649SOL    HW177062   2.225   8.340   9.758  0.2246 -0.7083 -2.6070
56649SOL    HW277063   2.338   8.286   9.843 -1.7758  0.6435  1.1430
56650SOL     OW77064   1.043   0.177   1.395  0.3030 -0.1634  0.4389
56650SOL    HW177065   1.082   0.119   1.330  0.1181  1.6518 -1.3657
56650SOL    HW277066   0.967   0.129   1.427 -0.3064 -0.6316 -1.5829
56651SOL     OW77067   4.136  11.988   7.999 -0.2957 -0.7750  0.0503
56651SOL    HW177068   4.067  12.045   8.034 -0.4512 -1.1774  0.4133
56651SOL    HW277069   4.127  11.994   7.904 -1.4816 -1.6024  0.0960
56652SOL     OW77070   2.158   9.039   3.789  0.2109 -0.0407  0.3887
56652SOL    HW177071   2.135   9.055   3.880 -0.6492  0.8365  0.0309
56652SOL    HW277072   2.077   9.012   3.747  0.4231  0.3387 -0.2869
56653SOL     OW77073  11.845   2.059  10.500 -0.1272  0.5968 -0.3901
56653SOL    HW177074  11.764   2.105  10.478 -0.0347  0.6095 -0.7174
56653SOL    HW277075  11.899   2.124  10.543 -0.1530  0.6833 -0.4886
56654SOL     OW77076  11.934   4.882   4.000  0.1712  0.3393  0.1120
56654SOL    HW177077  12.016   4.923   3.972 -0.8728  3.0351  0.6810
56654SOL    HW277078  11.881   4.955   4.031 -1.7135 -1.5665  1.6165
56655SOL     OW77079   6.022   4.025   5.530 -0.0907 -0.2487 -0.0098
56655SOL    HW177080   5.995   4.087   5.461  0.1086  0.5275  0.5904
56655SOL    HW277081   6.117   4.022   5.522 -0.1110 -0.5783 -0.1200
56656SOL     OW77082   9.279   1.397   6.475 -0.0340 -0.3979  0.1601
56656SOL    HW177083   9.338   1.373   6.404 -0.0651 -0.9331  0.3168
56656SOL    HW277084   9.333   1.451   6.533  0.1420 -0.4230  0.0211
56657SOL     OW77085   0.529   3.582   1.377 -0.3586 -0.3437  0.7399
56657SOL    HW177086   0.618   3.549   1.373  0.4162  1.7031 -0.9874
56657SOL    HW277087   0.535   3.665   1.424 -1.3517 -0.1885  0.6314
56658SOL     OW77088   6.223   8.769   8.489  0.1277  0.0145 -0.1589
56658SOL    HW177089   6.224   8.677   8.513  1.2292 -0.7446 -2.7790
56658SOL    HW277090   6.131   8.790   8.476  0.0294 -1.7270 -2.8581
56659SOL     OW77091   6.358  12.052   3.386 -0.0651 -0.0999 -0.9018
56659SOL    HW177092   6.310  11.985   3.433  3.8732 -2.9374 -0.4036
56659SOL    HW277093   6.360  12.022   3.295 -0.2924  0.6727 -1.1721
56660SOL     OW77094  10.088   2.972   0.127  0.7041 -0.1462 -0.5848
56660SOL    HW177095  10.057   2.912   0.195 -0.0010  0.6563 -0.1807
56660SOL    HW277096  10.172   3.003   0.160  0.0192  0.8201  0.3118
56661SOL     OW77097   9.192   3.564  11.256 -0.2660 -0.3926  0.0139
56661SOL    HW177098   9.139   3.587  11.180  0.1068 -2.8470 -1.0777
56661SOL    HW277099   9.282   3.564  11.222  0.1697  0.8246  1.0950
56662SOL     OW77100  10.491  11.932   6.695  0.2474  0.3649 -0.1187
56662SOL    HW177101  10.543  11.862   6.735  0.6517  0.8060  0.1519
56662SOL    HW277102  10.432  11.960   6.765  0.7842  0.9715  0.1058
56663SOL     OW77103   0.592   9.636  10.394  1.2076  0.1296 -0.0897
56663SOL    HW177104   0.651   9.612  10.322 -0.6993 -2.2408 -0.9749
56663SOL    HW277105   0.542   9.711  10.360 -0.8043 -1.9468 -2.0092
56664SOL     OW77106  11.340   4.944   9.117 -0.1454  0.9824  0.4130
56664SOL    HW177107  11.425   4.927   9.076  1.5018  2.0137  3.0919
56664SOL    HW277108  11.348   5.033   9.151 -1.7516  0.5791  1.9785
56665SOL     OW77109  12.645   0.338   2.588  0.4495  0.2816 -0.3972
56665SOL    HW177110  12.588   0.260   2.592  1.0500 -0.2693 -1.9440
56665SOL    HW277111  12.733   0.303   2.574  0.6022  1.2452 -2.1300
56666SOL     OW77112   0.946   3.737   7.889  0.0189  0.2546 -0.4005
56666SOL    HW177113   1.002   3.706   7.961  0.1333 -1.4979 -1.1756
56666SOL    HW277114   0.922   3.657   7.842 -3.1289  0.9221 -0.1473
56667SOL     OW77115  12.523  11.591   6.552 -0.0946  0.4273 -0.4226
56667SOL    HW177116  12.537  11.619   6.462 -0.7398 -0.6674 -0.8751
56667SOL    HW277117  12.608  11.605   6.595  0.5886 -0.2402 -1.5129
56668SOL     OW77118   9.403  12.223   2.583 -0.3077 -0.0578 -0.4875
56668SOL    HW177119   9.383  12.316   2.569 -0.4889  0.3324  1.9221
56668SOL    HW277120   9.454  12.198   2.506  0.3386  2.2249 -0.8872
56669SOL     OW77121  12.079   3.078   8.866  0.1265  0.0147  0.2501
56669SOL    HW177122  12.080   3.032   8.949 -0.4464  0.6267  0.6066
56669SOL    HW277123  12.169   3.110   8.855  0.4329 -0.8603  0.1752
56670SOL     OW77124   1.833   5.529  12.083  0.1088  0.0104  0.3770
56670SOL    HW177125   1.802   5.461  12.143  1.7116  1.1032  2.5895
56670SOL    HW277126   1.816   5.611  12.129  0.1923  1.0044 -1.2856
56671SOL     OW77127   3.492  11.918   2.607 -0.1023  0.3256 -0.1847
56671SOL    HW177128   3.552  11.843   2.604 -2.0353 -1.3247  0.3526
56671SOL    HW277129   3.419  11.893   2.551 -1.5917  1.0507  1.3220
56672SOL     OW77130   4.080  12.458   1.663  0.0747 -0.4628 -0.2216
56672SOL    HW177131   3.984  12.452   1.661 -0.1244  0.8870  2.0039
56672SOL    HW277132   4.108  12.416   1.582 -2.4674  0.4282 -1.7044
56673SOL     OW77133   8.756   3.566   3.764  0.1803  0.1467 -0.1779
56673SOL    HW177134   8.814   3.554   3.688  0.2637  1.4260 -0.3330
56673SOL    HW277135   8.813   3.552   3.839  1.2299  3.2153 -0.2807
56674SOL     OW77136   2.978   4.974   8.687 -0.7627 -0.3890  0.2055
56674SOL    HW177137   2.963   4.982   8.781 -1.7450 -0.7343  0.0958
56674SOL    HW277138   2.912   4.910   8.658 -0.6496 -0.0859 -0.7543
56675SOL     OW77139   1.913  10.066   3.336  0.0907 -0.0866 -0.5462
56675SOL    HW177140   1.981  10.131   3.316  0.8751 -0.7153  0.0213
56675SOL    HW277141   1.900  10.020   3.253  1.0791 -0.6129 -0.4222
56676SOL     OW77142  12.621   5.081   5.331 -0.0051 -0.3388  0.1893
56676SOL    HW177143  12.610   5.067   5.237  1.9036 -0.8474  0.0023
56676SOL    HW277144  12.650   5.172   5.339  3.1057 -1.1964 -0.0955
56677SOL     OW77145  12.102   3.372   5.326  0.2199 -0.1203 -0.0858
56677SOL    HW177146  12.025   3.422   5.302 -0.5728 -1.4912 -0.5292
56677SOL    HW277147  12.068   3.289   5.358  1.5135 -1.3359 -1.6673
56678SOL     OW77148   6.467   7.600   4.290  0.4527  0.1473 -0.6061
56678SOL    HW177149   6.557   7.620   4.265  0.8689 -0.7788  0.0975
56678SOL    HW277150   6.417   7.678   4.265  1.2777  0.2912 -1.8943
56679SOL     OW77151   3.945  11.701   8.826  0.4568  0.4219  0.2347
56679SOL    HW177152   3.926  11.626   8.771 -0.1731 -0.5274  1.6764
56679SOL    HW277153   3.896  11.774   8.787  0.7609  0.0044 -0.9467
56680SOL     OW77154   5.038   1.795   8.633 -0.0907  0.0560  0.0572
56680SOL    HW177155   4.974   1.730   8.663  0.2393  0.9607  3.0473
56680SOL    HW277156   5.120   1.746   8.627 -0.1721 -0.1610  0.6685
56681SOL     OW77157  12.048   7.992   5.566  1.0485  0.0775  0.9457
56681SOL    HW177158  12.063   8.064   5.504 -2.0788  1.4984  1.6624
56681SOL    HW277159  12.135   7.971   5.600  2.2240  2.7002 -0.1994
56682SOL     OW77160   9.884   4.014  10.024 -0.3612  0.1204  0.1184
56682SOL    HW177161   9.870   4.095  10.072 -0.2144  1.2354 -1.6628
56682SOL    HW277162   9.796   3.984  10.000 -0.4984 -0.8881  1.7002
56683SOL     OW77163   8.002  12.714   5.146 -0.5885  0.8357 -0.5553
56683SOL    HW177164   7.944  12.661   5.092  0.0351  1.7291 -2.1697
56683SOL    HW277165   8.024  12.790   5.091 -0.4061  2.1058  1.1866
56684SOL     OW77166  10.404   1.928   2.856 -0.3506 -0.4697 -0.0391
56684SOL    HW177167  10.409   2.009   2.805 -0.8351  2.1374  3.5876
56684SOL    HW277168  10.489   1.922   2.900 -1.2845 -0.2068  1.9186
56685SOL     OW77169   2.653  11.420   8.491  0.3565 -0.0503  0.3738
56685SOL    HW177170   2.665  11.482   8.562 -1.5313  0.1170  0.6118
56685SOL    HW277171   2.651  11.473   8.412  3.2944 -0.3134  0.0219
56686SOL     OW77172   5.086   7.927   3.627  0.2194 -0.3628 -0.1784
56686SOL    HW177173   5.094   7.846   3.677  0.8893 -0.6879 -0.7995
56686SOL    HW277174   5.002   7.918   3.581 -1.0091  0.4660  1.7748
56687SOL     OW77175  12.139   2.239   8.458 -0.1622  0.5783  0.2602
56687SOL    HW177176  12.085   2.174   8.412  0.0201  0.2575  0.4898
56687SOL    HW277177  12.100   2.245   8.545 -0.9033  1.6708 -0.1432
56688SOL     OW77178   1.573   5.573   2.928 -0.2438 -0.0781 -0.3494
56688SOL    HW177179   1.622   5.570   3.010 -0.7419 -3.0504 -0.0376
56688SOL    HW277180   1.492   5.620   2.950 -1.7091 -3.2027  1.8318
56689SOL     OW77181  11.189   4.928   0.850 -0.4723  0.0793 -0.5522
56689SOL    HW177182  11.194   4.936   0.946 -0.6611 -1.5896 -0.3792
56689SOL    HW277183  11.260   4.984   0.818  0.9528 -0.9515  0.6717
56690SOL     OW77184   7.647  12.494   5.872  0.3153  0.3649 -0.0804
56690SOL    HW177185   7.728  12.444   5.860 -1.7404 -3.0307 -1.2484
56690SOL    HW277186   7.627  12.486   5.965 -0.3018 -1.7239 -0.3450
56691SOL     OW77187   0.144  11.556  11.097  0.1440 -1.0079 -0.4402
56691SOL    HW177188   0.079  11.537  11.163 -1.5136 -0.0911 -1.7252
56691SOL    HW277189   0.100  11.615  11.035  1.6736 -1.5951 -2.2125
56692SOL     OW77190   1.946  11.672  11.004  0.5448  0.5681 -0.0172
56692SOL    HW177191   1.899  11.673  11.087  1.0192 -0.5507  0.2782
56692SOL    HW277192   1.889  11.623  10.945  2.6669 -3.8618  1.2334
56693SOL     OW77193   8.649   4.311   4.976 -0.3942 -0.4338  0.1220
56693SOL    HW177194   8.732   4.266   4.993 -0.8285 -1.1453  0.4258
56693SOL    HW277195   8.598   4.298   5.056 -0.8161 -0.0441 -0.0804
56694SOL     OW77196  10.628   0.749   6.686 -0.3816  0.0602  0.0640
56694SOL    HW177197  10.674   0.789   6.612  0.9828 -0.1134  0.7928
56694SOL    HW277198  10.671   0.665   6.698 -1.8205 -0.7279 -0.0941
56695SOL     OW77199  12.828  10.357   6.988 -0.9172  0.1136  0.0218
56695SOL    HW177200  12.834  10.447   7.021 -0.8103 -0.0380  0.4272
56695SOL    HW277201  12.918  10.324   6.990 -0.9555  0.0005 -0.1253
56696SOL     OW77202  12.928   5.983   2.028  0.2670  0.4621  0.4412
56696SOL    HW177203  12.945   5.926   1.953  2.4811  0.8251  0.6029
56696SOL    HW277204  12.890   5.925   2.094  1.9494 -0.7758  0.3976
56697SOL     OW77205  10.387   8.476  10.103 -0.1729  0.4044  0.4204
56697SOL    HW177206  10.307   8.473  10.050  0.0870 -0.2666  0.0571
56697SOL    HW277207  10.356   8.479  10.194 -0.6438  2.6136  0.2385
56698SOL     OW77208   6.671   5.716   2.951 -0.8190 -0.5203 -0.3244
56698SOL    HW177209   6.649   5.775   3.023  0.2867  0.1932 -0.5412
56698SOL    HW277210   6.626   5.753   2.875  0.1095  0.2441 -0.5210
56699SOL     OW77211   4.105   0.607   6.970 -0.0372  0.5677 -0.3956
56699SOL    HW177212   4.118   0.521   6.931  0.3285 -0.3904  1.6938
56699SOL    HW277213   4.035   0.647   6.919 -0.3664 -1.0564 -1.2679
56700SOL     OW77214   3.295   4.480   6.508  0.4179 -0.3918  0.0502
56700SOL    HW177215   3.390   4.472   6.504  0.2411 -2.2410 -1.5307
56700SOL    HW277216   3.269   4.506   6.419 -0.4432  2.5036  1.0117
56701SOL     OW77217   5.459   9.578  11.552  0.3228  0.0873 -0.2841
56701SOL    HW177218   5.416   9.587  11.637 -0.9688 -1.1057 -0.7762
56701SOL    HW277219   5.514   9.500  11.561 -1.1222 -1.0603 -1.0288
56702SOL     OW77220   0.446   1.069   9.704 -0.1091  0.2323  0.4685
56702SOL    HW177221   0.470   1.098   9.616 -0.1537 -0.5274  0.1939
56702SOL    HW277222   0.357   1.100   9.716  0.2378  1.1783  0.6280
56703SOL     OW77223   4.762  11.143  10.965 -0.1372 -0.1100 -0.2185
56703SOL    HW177224   4.696  11.201  11.004  2.8467  1.2259  3.3617
56703SOL    HW277225   4.812  11.201  10.907 -0.8153 -0.6888 -1.4401
56704SOL     OW77226   9.764  10.649   8.515  0.0469 -0.2457 -0.3104
56704SOL    HW177227   9.767  10.662   8.420 -0.9250  0.5577 -0.2618
56704SOL    HW277228   9.700  10.579   8.527  1.8632 -1.9873 -0.3337
56705SOL     OW77229   8.091   9.058   7.203 -0.3600  0.4693 -0.0381
56705SOL    HW177230   8.045   9.038   7.122 -0.7152  1.4793 -0.1015
56705SOL    HW277231   8.155   9.125   7.179 -0.2423  0.5383  0.4499
56706SOL     OW77232   7.271   9.568   8.114  0.2730  0.5090 -0.0532
56706SOL    HW177233   7.340   9.611   8.064 -0.3777  1.9086  0.2038
56706SOL    HW277234   7.257   9.624   8.190 -2.5930  1.4757 -1.1634
56707SOL     OW77235   3.808  12.616   2.471  0.7017  0.1648 -0.1091
56707SOL    HW177236   3.714  12.622   2.488  0.5185  1.2763 -1.4085
56707SOL    HW277237   3.815  12.574   2.386  1.4178 -0.3372  0.1805
56708SOL     OW77238   9.954   9.586  12.086  0.3967  0.2701 -0.0973
56708SOL    HW177239   9.910   9.537  12.155 -0.2863 -0.2260 -0.8572
56708SOL    HW277240   9.981   9.519  12.022 -0.0406  0.8186 -0.8718
56709SOL     OW77241   2.192   2.647  11.632  0.7061 -0.1358  0.4338
56709SOL    HW177242   2.285   2.634  11.650  0.5751 -0.3259  1.0015
56709SOL    HW277243   2.153   2.562  11.653  0.4011 -0.0453  0.2267
56710SOL     OW77244   2.354  11.352   5.157 -0.3152 -0.3118 -0.0316
56710SOL    HW177245   2.361  11.259   5.181  0.2638 -0.1772  0.3382
56710SOL    HW277246   2.359  11.352   5.061  0.7851 -0.5853  0.0098
56711SOL     OW77247   0.743   3.794  11.007 -0.1777 -1.1203  0.2008
56711SOL    HW177248   0.745   3.780  11.102 -1.1775  0.9652  0.6006
56711SOL    HW277249   0.834   3.784  10.979  0.8396  1.6346  2.0328
56712SOL     OW77250   6.160   8.337   3.046  0.0028 -0.3813  0.5485
56712SOL    HW177251   6.084   8.280   3.060 -0.9414  0.5304 -0.6186
56712SOL    HW277252   6.174   8.379   3.130 -1.7381  0.5265  0.4223
56713SOL     OW77253  11.000   1.109   7.934  0.5037 -0.1045  0.3432
56713SOL    HW177254  10.926   1.120   7.875 -0.0448  0.7097  1.1639
56713SOL    HW277255  11.011   1.194   7.976  1.2139 -0.5145  1.0322
56714SOL     OW77256   4.918   3.045   5.634 -0.2022 -0.2025  0.0729
56714SOL    HW177257   4.983   3.114   5.653  0.0545 -0.6729  0.9706
56714SOL    HW277258   4.963   2.987   5.572 -1.2206  1.6117 -2.5089
56715SOL     OW77259   1.528   0.025   9.643  0.2358  0.2537  0.5686
56715SOL    HW177260   1.446  -0.020   9.662  0.1347 -0.1752 -0.7637
56715SOL    HW277261   1.524   0.106   9.693 -1.1892  0.4226  0.2094
56716SOL     OW77262  11.146   0.672   0.032  0.5411  0.1699  0.6375
56716SOL    HW177263  11.182   0.727   0.102  0.8250  1.3345 -0.3771
56716SOL    HW277264  11.066   0.717   0.005 -0.0482 -0.7495  0.7927
56717SOL     OW77265   8.636  12.484   6.015  0.4598  0.0834  0.4436
56717SOL    HW177266   8.566  12.420   5.998 -0.8309  1.2771  1.0886
56717SOL    HW277267   8.641  12.489   6.110  1.3437  0.1338  0.4042
56718SOL     OW77268  12.184   2.082   1.615 -0.0149 -0.1371  0.4426
56718SOL    HW177269  12.166   2.009   1.557 -0.2992 -0.9979  1.5913
56718SOL    HW277270  12.271   2.112   1.589 -0.3866 -0.1106 -0.8189
56719SOL     OW77271  11.536  11.085   7.319 -0.4480 -0.2712 -0.0180
56719SOL    HW177272  11.492  11.117   7.241  0.1410  2.1874  0.5736
56719SOL    HW277273  11.624  11.061   7.289 -0.5405 -0.2860 -0.2771
56720SOL     OW77274   9.527   4.971   8.720 -0.2787  0.5078  0.2877
56720SOL    HW177275   9.588   5.027   8.767 -0.6842  1.4069 -0.2254
56720SOL    HW277276   9.559   4.971   8.630  0.0360 -0.5525  0.3894
56721SOL     OW77277   8.819   2.625  10.829  0.9231 -0.3158 -0.5112
56721SOL    HW177278   8.772   2.542  10.837  1.3575 -0.3890  2.0381
56721SOL    HW277279   8.802   2.654  10.739 -0.4773 -2.4039 -0.9796
56722SOL     OW77280  11.458   0.214   3.918  0.1462 -0.6147 -0.4583
56722SOL    HW177281  11.445   0.170   4.003  0.4520 -0.2402 -0.2139
56722SOL    HW277282  11.419   0.300   3.930  0.5102 -0.4322 -0.5788
56723SOL     OW77283   9.997  11.183   5.804 -0.3156  0.6835  0.2337
56723SOL    HW177284  10.055  11.244   5.759 -0.1056 -0.2535 -0.8375
56723SOL    HW277285   9.909  11.208   5.776 -0.2887  0.9616  0.3972
56724SOL     OW77286   7.895  11.297   2.628  0.3471  0.7246  0.3726
56724SOL    HW177287   7.913  11.376   2.680  1.4653 -0.0393  1.1910
56724SOL    HW277288   7.902  11.225   2.690  1.7594 -0.2170 -0.8196
56725SOL     OW77289  11.313  10.970   6.162 -0.3482  0.7839  0.5480
56725SOL    HW177290  11.290  10.995   6.251  0.4750  1.2070  0.6507
56725SOL    HW277291  11.403  10.939   6.169  0.5040  2.8580 -0.4813
56726SOL     OW77292   5.117   0.443   2.889  0.1476 -0.3333 -0.3903
56726SOL    HW177293   5.029   0.423   2.855 -0.6043 -0.5365  1.5417
56726SOL    HW277294   5.148   0.360   2.925  0.3987  0.1066  0.4486
56727SOL     OW77295   9.205   0.572   0.219  0.2004 -0.0269 -0.1224
56727SOL    HW177296   9.249   0.643   0.266  0.5537  0.7097 -1.5137
56727SOL    HW277297   9.113   0.598   0.216  0.3853  0.5570 -0.9273
56728SOL     OW77298   6.429  10.272  12.874 -0.1985  0.2843  0.1631
56728SOL    HW177299   6.410  10.227  12.957 -2.4816 -0.1875 -0.5327
56728SOL    HW277300   6.400  10.362  12.889  0.5485  0.5123  0.2593
56729SOL     OW77301   8.931   6.342   5.745  0.2254  0.1881  0.1199
56729SOL    HW177302   8.940   6.360   5.839 -0.2462 -2.6665  0.8233
56729SOL    HW277303   9.014   6.368   5.707  0.6945  0.7445  1.4554
56730SOL     OW77304   7.194   2.256   6.089  0.4470 -0.1446 -0.3866
56730SOL    HW177305   7.252   2.325   6.057  1.0345 -1.5777 -2.7311
56730SOL    HW277306   7.109   2.276   6.049  0.1554  0.1934  0.3989
56731SOL     OW77307   9.090   1.428   2.872  0.0776 -0.2368  0.3090
56731SOL    HW177308   9.099   1.369   2.947 -0.7306 -1.0099 -0.1875
56731SOL    HW277309   9.024   1.491   2.899 -0.3558 -0.6326  0.1786
56732SOL     OW77310   4.362   4.306   3.694 -0.2646 -0.3690  0.6291
56732SOL    HW177311   4.396   4.269   3.613 -0.2227  1.4479 -0.2192
56732SOL    HW277312   4.267   4.299   3.686 -0.2612 -0.1427  0.4061
56733SOL     OW77313   2.061   2.897   1.682  0.4508 -0.5865 -0.5735
56733SOL    HW177314   2.146   2.938   1.665  0.1137  1.2914  1.7344
56733SOL    HW277315   2.072   2.853   1.766  0.1159 -3.5373 -1.9389
56734SOL     OW77316   9.039   5.608  12.518 -0.0029 -0.5338 -0.0521
56734SOL    HW177317   9.021   5.598  12.425 -1.3938  1.1196 -0.0082
56734SOL    HW277318   8.979   5.676  12.547  2.4385  1.1624  1.4235
56735SOL     OW77319   2.787   5.367  12.756 -0.2945  0.1700 -0.1921
56735SOL    HW177320   2.746   5.285  12.728 -0.5123  1.1338 -2.9956
56735SOL    HW277321   2.724   5.435  12.733  0.0479  1.2108  1.7183
56736SOL     OW77322  11.499  11.127  10.458 -0.0182 -0.1107  0.2442
56736SOL    HW177323  11.550  11.065  10.406  1.2166  0.3861  0.8267
56736SOL    HW277324  11.493  11.087  10.545 -2.3708 -1.1007 -0.2867
56737SOL     OW77325   5.112   0.146   4.734 -0.6045  0.5357 -0.8082
56737SOL    HW177326   5.059   0.163   4.811 -0.1090  0.0811 -0.3593
56737SOL    HW277327   5.051   0.106   4.672 -0.4311 -1.7235  0.3792
56738SOL     OW77328   7.836  12.820  10.415 -0.0091 -0.4664  0.0028
56738SOL    HW177329   7.753  12.861  10.388 -0.7783 -0.5281  2.0638
56738SOL    HW277330   7.881  12.889  10.463 -0.4073 -1.3855  1.7723
56739SOL     OW77331   6.946   5.520   2.134  0.3520 -0.7555  0.0632
56739SOL    HW177332   6.888   5.573   2.187  0.9079  0.2935 -0.3440
56739SOL    HW277333   6.990   5.463   2.196  1.1604  0.6053  0.7882
56740SOL     OW77334  11.762  11.473   0.666  0.6583 -0.1509 -0.2768
56740SOL    HW177335  11.674  11.454   0.635 -0.4156  2.5812  0.8184
56740SOL    HW277336  11.816  11.470   0.587 -0.7137 -0.2451 -1.2508
56741SOL     OW77337   8.920   3.330   6.563 -0.0877 -0.2414 -0.2574
56741SOL    HW177338   8.930   3.314   6.469 -0.4363 -0.5028 -0.2519
56741SOL    HW277339   8.923   3.426   6.572 -1.0051 -0.1616 -0.6525
56742SOL     OW77340   5.869   6.866   8.172 -0.6671 -0.1144 -0.2496
56742SOL    HW177341   5.913   6.945   8.143 -1.2395 -0.0632 -1.0222
56742SOL    HW277342   5.916   6.795   8.128 -0.0804 -0.2157  0.5349
56743SOL     OW77343   0.575   5.783   1.389 -0.2427  0.0176 -0.2104
56743SOL    HW177344   0.600   5.721   1.457  0.4756  1.8773  1.3155
56743SOL    HW277345   0.482   5.802   1.406 -0.0801  0.4333  0.2183
56744SOL     OW77346   8.919  10.994   2.110  0.5569  0.0200 -0.2028
56744SOL    HW177347   8.931  11.040   2.028  2.2512  0.7349  0.4007
56744SOL    HW277348   8.898  11.063   2.174  0.2022 -0.4099  0.1547
56745SOL     OW77349  11.291   2.976   6.575  0.3263 -0.7176  0.3743
56745SOL    HW177350  11.254   3.042   6.633  1.4062 -0.1057  0.3851
56745SOL    HW277351  11.347   2.922   6.632 -0.5916 -1.6961  0.3808
56746SOL     OW77352   3.643   4.555   8.614 -0.2272  0.1182  0.1173
56746SOL    HW177353   3.605   4.471   8.591  0.8121  0.4296 -3.2422
56746SOL    HW277354   3.571   4.618   8.607 -0.4599 -0.1447  0.1593
56747SOL     OW77355  10.619   1.218   0.200  0.6740  0.0637 -0.1419
56747SOL    HW177356  10.656   1.214   0.112 -0.4958  1.1312 -0.7231
56747SOL    HW277357  10.594   1.309   0.211 -1.9374 -0.5952  0.0881
56748SOL     OW77358  10.676  11.247   5.272  0.2570 -0.1775  0.7952
56748SOL    HW177359  10.688  11.226   5.180  0.4514 -1.8396  1.1587
56748SOL    HW277360  10.734  11.322   5.288  1.8469 -1.1968  0.0363
56749SOL     OW77361   5.474  11.847  10.131 -0.4889  0.4269  0.0743
56749SOL    HW177362   5.565  11.832  10.102 -0.2962 -1.7238  1.5952
56749SOL    HW277363   5.481  11.859  10.226 -1.8176 -0.1310  0.2585
56750SOL     OW77364  10.594   1.916   5.043 -0.7995 -0.1594  0.1116
56750SOL    HW177365  10.529   1.858   5.084 -2.4019  1.1368 -0.4593
56750SOL    HW277366  10.583   1.901   4.949 -0.2789  0.0956  0.0077
56751SOL     OW77367   2.640   2.693   9.962 -0.1913  0.1776  0.1380
56751SOL    HW177368   2.598   2.739  10.035  1.8158 -0.2885  1.6530
56751SOL    HW277369   2.657   2.762   9.898  2.1438  1.5658  2.0721
56752SOL     OW77370   8.721   8.202   1.301 -0.5277  0.3740 -0.2968
56752SOL    HW177371   8.752   8.182   1.390  0.3372  0.6348 -0.5340
56752SOL    HW277372   8.783   8.267   1.268 -0.8859  0.3308 -1.0664
56753SOL     OW77373   1.864   0.373   1.198 -0.2467  0.3378 -0.0823
56753SOL    HW177374   1.903   0.435   1.137 -1.3764  1.9970  0.8010
56753SOL    HW277375   1.930   0.362   1.267  0.0676  0.3344 -0.3822
56754SOL     OW77376   3.536   4.846   1.101 -0.0696 -0.3669 -0.0082
56754SOL    HW177377   3.494   4.774   1.148 -1.5408 -1.4569 -2.7004
56754SOL    HW277378   3.469   4.874   1.038  0.6292  3.1126  0.6067
56755SOL     OW77379   6.077   1.693   5.312 -0.5487  0.0469 -0.2706
56755SOL    HW177380   6.063   1.688   5.406 -2.4042  0.0060 -0.5094
56755SOL    HW277381   6.155   1.747   5.302  0.1842 -0.6600  1.3025
56756SOL     OW77382   5.335  12.399   0.769 -0.0205 -0.1044  0.5694
56756SOL    HW177383   5.409  12.429   0.715  1.2948  0.1601  2.4048
56756SOL    HW277384   5.259  12.446   0.734  0.8301  0.3088 -0.8125
56757SOL     OW77385   1.363   6.287  10.989  0.1730 -0.6448  0.3416
56757SOL    HW177386   1.284   6.340  10.981  1.0913  0.5915 -1.2804
56757SOL    HW277387   1.365   6.260  11.081 -1.7216 -0.1147  0.5904
56758SOL     OW77388   7.470  12.850   4.275 -0.2677  0.1604 -0.1299
56758SOL    HW177389   7.506  12.939   4.273  0.1216  0.0375  0.8941
56758SOL    HW277390   7.538  12.796   4.236  0.2565  0.0699  0.8869
56759SOL     OW77391   6.562  10.647   3.740  0.4998  0.3181  0.0975
56759SOL    HW177392   6.597  10.560   3.723 -0.0401  0.1986 -0.4326
56759SOL    HW277393   6.543  10.682   3.653  1.4221  1.2650  0.2542
56760SOL     OW77394  11.427  12.394   3.034  0.2765 -0.1327  0.2032
56760SOL    HW177395  11.338  12.429   3.021  0.2231 -0.6848 -1.1255
56760SOL    HW277396  11.426  12.358   3.123 -0.4598  0.9264  0.6372
56761SOL     OW77397  12.447   3.232  11.940  0.2360 -0.3794  0.0404
56761SOL    HW177398  12.429   3.138  11.931 -1.9248 -0.2042  1.7728
56761SOL    HW277399  12.368   3.275  11.908  0.9124  0.8382 -0.0375
56762SOL     OW77400   0.092   2.733  10.589 -0.3186  0.0093  0.1573
56762SOL    HW177401   0.174   2.688  10.570 -0.3246 -0.3325  0.9070
56762SOL    HW277402   0.036   2.667  10.630 -0.6096  0.4903  0.5564
56763SOL     OW77403  11.232   7.448   5.457  0.2859  0.5960  0.3468
56763SOL    HW177404  11.214   7.416   5.368  0.3034 -1.2427  0.9684
56763SOL    HW277405  11.321   7.483   5.453  1.2519 -1.7134  0.1711
56764SOL     OW77406   6.466   4.952   5.679  0.1064 -0.4350 -0.1090
56764SOL    HW177407   6.496   5.033   5.721 -2.8307  0.6205  0.2176
56764SOL    HW277408   6.403   4.915   5.740 -0.6847 -1.4708 -1.4921
56765SOL     OW77409  12.062   0.679   4.215  0.4796  0.5360  0.0404
56765SOL    HW177410  11.997   0.734   4.260  0.1997  0.5510 -0.3779
56765SOL    HW277411  12.089   0.731   4.139  0.7132  0.3743  0.0105
56766SOL     OW77412  12.383   7.069   0.677  0.1823 -0.2310 -0.5251
56766SOL    HW177413  12.384   7.095   0.585  2.3960 -1.2344 -0.8592
56766SOL    HW277414  12.397   6.974   0.675 -0.6370 -0.4118  0.8484
56767SOL     OW77415   5.534  12.924  11.357 -0.4073  0.1150  0.0803
56767SOL    HW177416   5.606  12.901  11.299 -1.4054 -1.8007 -0.4948
56767SOL    HW277417   5.576  12.961  11.435  1.0710  0.6324 -0.9199
56768SOL     OW77418  11.785   7.893   2.402 -0.3207 -0.2017 -0.2240
56768SOL    HW177419  11.706   7.931   2.440 -0.1697  0.9610 -1.0013
56768SOL    HW277420  11.855   7.953   2.430 -0.1994  0.6572 -2.2421
56769SOL     OW77421   2.779   6.747   4.298  0.8117 -0.2146 -0.0073
56769SOL    HW177422   2.749   6.723   4.211  1.5361 -1.5398  0.0814
56769SOL    HW277423   2.783   6.842   4.297 -0.7025 -0.1264 -0.8965
56770SOL     OW77424   2.303   9.849   3.790  0.0385  0.0215  0.2869
56770SOL    HW177425   2.245   9.849   3.714  0.0084 -0.1573  0.3092
56770SOL    HW277426   2.250   9.883   3.862  0.0525  0.1453  0.2379
56771SOL     OW77427  11.968   5.811  12.769 -0.6926  0.2067 -0.1335
56771SOL    HW177428  11.984   5.736  12.825 -0.3434  1.0274  0.8984
56771SOL    HW277429  12.024   5.880  12.805 -0.8589  0.9041 -1.1722
56772SOL     OW77430  11.145   1.711  11.360 -0.0536 -0.1887 -0.3192
56772SOL    HW177431  11.084   1.782  11.345  1.1568  0.5215 -2.3461
56772SOL    HW277432  11.172   1.721  11.451 -1.7500  0.4021  0.1494
56773SOL     OW77433  12.449   7.739   6.904  0.4268  0.2407  0.0302
56773SOL    HW177434  12.539   7.754   6.878 -0.0833  0.8118 -1.5372
56773SOL    HW277435  12.398   7.804   6.855 -0.7793  0.3634  1.3628
56774SOL     OW77436  12.789  10.339   4.927  0.3434  0.7065 -0.4838
56774SOL    HW177437  12.793  10.434   4.929 -0.2116  0.7206  0.4855
56774SOL    HW277438  12.711  10.317   4.977  0.6233 -0.2697 -0.4534
56775SOL     OW77439   7.448   4.904   4.283  0.8224  0.4433  0.4936
56775SOL    HW177440   7.444   4.995   4.254  0.3950  0.7826  1.5474
56775SOL    HW277441   7.406   4.905   4.369 -0.7754 -1.0551 -0.2064
56776SOL     OW77442   0.730   0.151   8.273  0.3491  0.2869 -1.1889
56776SOL    HW177443   0.822   0.163   8.299  0.0002 -1.9041  1.5008
56776SOL    HW277444   0.695   0.090   8.337 -3.7647  3.0074 -0.4660
56777SOL     OW77445   9.845   8.665   2.532  0.4106 -0.3163  0.2486
56777SOL    HW177446   9.929   8.710   2.539 -0.1554  0.6300  1.1448
56777SOL    HW277447   9.785   8.715   2.588 -0.1447 -2.4418  1.7005
56778SOL     OW77448   0.742   1.813   9.877 -0.0710  0.5804 -0.1780
56778SOL    HW177449   0.811   1.765   9.830  1.7657  2.0341  0.8648
56778SOL    HW277450   0.783   1.897   9.899 -1.6213  0.8530  1.9720
56779SOL     OW77451  12.458   8.461   3.567  0.3836 -0.5921  0.4654
56779SOL    HW177452  12.394   8.442   3.635 -0.5220 -0.9753 -0.4735
56779SOL    HW277453  12.455   8.556   3.557  0.7062 -0.5076  1.1311
56780SOL     OW77454   2.906   9.357   1.813  0.0959 -0.4200  0.2725
56780SOL    HW177455   2.881   9.265   1.812 -0.3266 -0.3706  1.9648
56780SOL    HW277456   2.907   9.380   1.906 -0.0164  1.3411 -0.1238
56781SOL     OW77457   5.382   9.648  12.886 -0.1454 -0.0420  0.5217
56781SOL    HW177458   5.462   9.696  12.906  0.1167 -0.0775 -0.4025
56781SOL    HW277459   5.363   9.669  12.795 -0.1721 -1.4659  0.1650
56782SOL     OW77460   2.295  12.333   9.453  0.1261  0.1464  0.2781
56782SOL    HW177461   2.217  12.364   9.405 -0.2062  0.6583  1.1271
56782SOL    HW277462   2.355  12.304   9.384 -1.1974 -1.2055 -0.3641
56783SOL     OW77463  10.481   8.934   6.301 -0.2498  0.9455  0.2070
56783SOL    HW177464  10.447   8.844   6.306  1.4464  0.3257  1.7937
56783SOL    HW277465  10.575   8.924   6.313 -0.1768  3.0685  1.8404
56784SOL     OW77466  11.696   1.727   6.852 -0.3170  0.5582 -0.0246
56784SOL    HW177467  11.650   1.745   6.770 -1.6941  0.5495  0.7216
56784SOL    HW277468  11.781   1.693   6.824 -0.6213  0.8696 -1.4417
56785SOL     OW77469   9.173  10.186  12.681  0.2639 -0.3665 -0.5840
56785SOL    HW177470   9.126  10.176  12.764  2.0807  0.3807  0.5833
56785SOL    HW277471   9.206  10.275  12.682  0.9082 -0.5654 -1.8112
56786SOL     OW77472   8.233   4.308  12.519 -0.2197  0.0283 -0.3950
56786SOL    HW177473   8.292   4.233  12.527 -0.5100 -0.3022 -1.2466
56786SOL    HW277474   8.289   4.384  12.538  0.4335 -0.2954 -0.9580
56787SOL     OW77475   8.795   7.150   5.183 -0.6767  0.4277  0.7794
56787SOL    HW177476   8.799   7.056   5.163  2.0289  0.1720  2.0836
56787SOL    HW277477   8.772   7.191   5.101  1.9129 -1.1398 -0.8755
56788SOL     OW77478   0.380   1.801   8.538  0.2226 -0.3461  0.4258
56788SOL    HW177479   0.296   1.813   8.493  0.2738 -0.7377  0.2253
56788SOL    HW277480   0.357   1.802   8.631  0.1160  0.4508  0.3949
56789SOL     OW77481   7.052  10.360   3.945  0.2763 -0.3250  0.4483
56789SOL    HW177482   7.005  10.321   3.871  0.0457 -1.2900  1.0959
56789SOL    HW277483   7.008  10.445   3.958  0.9012  0.2648 -1.0721
56790SOL     OW77484   2.895  11.713   3.695 -0.1741  0.2676  0.1349
56790SOL    HW177485   2.901  11.808   3.696 -1.4082  0.4329 -1.7823
56790SOL    HW277486   2.958  11.685   3.629  0.1982 -0.2446  0.7003
56791SOL     OW77487  10.920   2.256  12.806  0.5803 -0.1593  0.1219
56791SOL    HW177488  10.923   2.184  12.743 -0.9093  0.1610 -0.3497
56791SOL    HW277489  10.839   2.303  12.785  0.2678  0.2200  1.9800
56792SOL     OW77490  10.672   9.206   2.118  0.0197 -0.5513 -0.2462
56792SOL    HW177491  10.608   9.276   2.108 -0.9933 -1.5241 -0.8328
56792SOL    HW277492  10.748   9.236   2.067 -0.7075 -0.2366 -1.1922
56793SOL     OW77493   7.732   8.231   9.159 -0.3308  0.3635 -0.2038
56793SOL    HW177494   7.652   8.237   9.212 -1.0209 -1.4766 -0.9691
56793SOL    HW277495   7.796   8.189   9.217 -0.8222 -0.8484 -0.5147
56794SOL     OW77496   6.189   4.690  12.907 -0.6378  0.4242  0.7111
56794SOL    HW177497   6.125   4.682  12.978 -0.5804 -0.3038  0.6872
56794SOL    HW277498   6.150   4.752  12.846 -0.4282  1.5197  1.6569
56795SOL     OW77499   7.281   7.599  12.027  0.1684 -0.5974 -0.6265
56795SOL    HW177500   7.343   7.671  12.043 -0.4155 -0.2538  0.1560
56795SOL    HW277501   7.327   7.521  12.057 -0.2997 -0.1651  1.3461
56796SOL     OW77502   9.716   8.681   7.699  0.2717  0.0746 -0.1546
56796SOL    HW177503   9.732   8.586   7.703  0.1316  0.0880  1.0872
56796SOL    HW277504   9.631   8.689   7.655  0.8529 -0.2914 -1.4002
56797SOL     OW77505   8.281   3.485  12.543 -0.1336 -0.2662 -0.5589
56797SOL    HW177506   8.261   3.551  12.476  0.2860  0.2342 -0.1982
56797SOL    HW277507   8.374   3.496  12.560  0.2882 -1.9527 -1.5468
56798SOL     OW77508   7.229   6.992   7.551 -0.1149 -0.1535  0.5391
56798SOL    HW177509   7.286   7.044   7.495  0.0404 -1.2150 -0.3237
56798SOL    HW277510   7.261   6.902   7.541 -1.3599 -0.6412  0.7536
56799SOL     OW77511   1.627  11.113  11.699  0.1768 -0.2059 -0.5489
56799SOL    HW177512   1.695  11.082  11.760  0.7089  4.1368  1.4305
56799SOL    HW277513   1.654  11.078  11.614  4.8010  0.9213  0.1780
56800SOL     OW77514  12.215   9.067   7.836  0.2784  0.0028  0.3886
56800SOL    HW177515  12.183   9.152   7.807  0.6908  0.2908  0.7547
56800SOL    HW277516  12.311   9.074   7.830  0.4079  0.2437  2.2209
56801SOL     OW77517   6.351   8.201   3.915 -0.2724  0.3019 -0.0421
56801SOL    HW177518   6.344   8.113   3.878  0.3458  0.6701 -1.0577
56801SOL    HW277519   6.445   8.220   3.914 -0.4118  1.0134  0.0952
56802SOL     OW77520   2.071   9.812   5.589  0.1967 -0.2411 -0.0268
56802SOL    HW177521   1.988   9.834   5.546  0.1704 -1.5191 -0.6834
56802SOL    HW277522   2.106   9.896   5.618 -0.7906  0.4373 -0.7275
56803SOL     OW77523   9.086   3.459   9.026 -0.1930  0.0599 -0.0402
56803SOL    HW177524   9.058   3.428   8.939 -1.4312  0.0861  0.3255
56803SOL    HW277525   9.055   3.549   9.030  0.0251  0.1189  0.3636
56804SOL     OW77526   2.535   5.705   6.085 -0.2833 -0.2612 -0.2491
56804SOL    HW177527   2.601   5.774   6.092  0.0777 -0.2706 -2.6828
56804SOL    HW277528   2.537   5.661   6.170  1.3453  1.0593  0.4580
56805SOL     OW77529   0.353   4.803   2.985 -0.2656 -0.2580 -0.1095
56805SOL    HW177530   0.300   4.794   3.064  0.6397 -0.0780  0.5370
56805SOL    HW277531   0.292   4.833   2.918 -1.0602 -0.4885  0.5057
56806SOL     OW77532   8.223   4.761   5.963 -0.4554  0.0000 -0.4280
56806SOL    HW177533   8.226   4.755   6.059 -0.6411 -0.3044 -0.4391
56806SOL    HW277534   8.161   4.692   5.937 -0.3402  0.0262 -0.7721
56807SOL     OW77535   5.787   8.250   4.666  0.2964  0.4767  0.2013
56807SOL    HW177536   5.734   8.170   4.666 -0.6262  1.0793  0.1074
56807SOL    HW277537   5.864   8.227   4.612  0.1052 -0.3759  0.2721
56808SOL     OW77538   2.553  12.761   3.905 -0.4756 -0.3926 -0.8115
56808SOL    HW177539   2.503  12.748   3.986 -0.7321 -1.8370 -1.1653
56808SOL    HW277540   2.495  12.728   3.836 -1.2074  2.8427 -1.9402
56809SOL     OW77541   5.322   5.201   8.274  0.2170  0.5936 -0.1366
56809SOL    HW177542   5.254   5.147   8.234 -0.2807 -0.0867  1.5237
56809SOL    HW277543   5.354   5.257   8.203 -0.9375 -0.2071 -1.3290
56810SOL     OW77544   2.669   5.153  12.683 -0.1188  0.0254 -0.5052
56810SOL    HW177545   2.697   5.122  12.597 -1.2656 -3.2212  0.1098
56810SOL    HW277546   2.574   5.162  12.674 -0.0807  1.0702  0.0634
56811SOL     OW77547   0.240   5.524   7.003 -0.6042  0.4728  0.5395
56811SOL    HW177548   0.295   5.451   7.031 -1.5507 -0.0795  0.9988
56811SOL    HW277549   0.154   5.504   7.038 -0.9869  1.5846  0.2662
56812SOL     OW77550   8.281  12.276   6.581  0.1997 -0.1617  0.1220
56812SOL    HW177551   8.334  12.321   6.515 -1.3694  0.6976 -0.5877
56812SOL    HW277552   8.274  12.186   6.549 -0.9038  0.3460 -1.1335
56813SOL     OW77553   4.053   6.465  11.493  0.3320 -0.1216  0.2204
56813SOL    HW177554   4.063   6.439  11.401  0.0330  1.0969 -0.1813
56813SOL    HW277555   3.973   6.421  11.521 -0.6260  0.9607 -0.6948
56814SOL     OW77556  12.727   7.471   4.049 -0.4236 -0.1866 -0.1790
56814SOL    HW177557  12.794   7.530   4.083 -0.9793  0.9517 -0.9811
56814SOL    HW277558  12.719   7.495   3.956 -2.1170 -0.0866 -0.0341
56815SOL     OW77559   8.885   0.906   7.888  0.1880  0.2368  0.0521
56815SOL    HW177560   8.948   0.939   7.825  0.1543  0.9634  0.3854
56815SOL    HW277561   8.934   0.844   7.942  0.2626 -0.2419 -0.5621
56816SOL     OW77562   3.032   6.533   9.857 -0.3342 -0.1086 -0.9483
56816SOL    HW177563   3.103   6.500   9.802  1.1215  0.8286  0.3196
56816SOL    HW277564   3.001   6.456   9.905  2.7883  0.0919  1.7223
56817SOL     OW77565   4.324   2.994  12.451  0.1049 -0.5054 -0.0856
56817SOL    HW177566   4.249   3.053  12.450 -1.0521 -1.9031  0.4014
56817SOL    HW277567   4.361   3.001  12.363 -2.7139 -2.2972 -1.5937
56818SOL     OW77568   1.174   9.516   0.841  0.0465  0.7486  0.0216
56818SOL    HW177569   1.166   9.474   0.927 -0.8743 -2.2291 -1.3954
56818SOL    HW277570   1.266   9.539   0.834  0.7210 -1.4759  0.7724
56819SOL     OW77571   8.670  12.538   1.948 -0.1172  0.0179  0.0209
56819SOL    HW177572   8.698  12.516   1.859 -0.2207 -0.1391  0.0265
56819SOL    HW277573   8.750  12.530   2.001  0.3733  1.9142 -0.3614
56820SOL     OW77574   7.540   3.539   6.310  0.0419  0.1209 -0.5619
56820SOL    HW177575   7.627   3.542   6.349  0.0804  0.2712 -0.6549
56820SOL    HW277576   7.480   3.533   6.384  0.0104  2.1352 -0.3437
56821SOL     OW77577   3.884  10.783   6.560 -0.0223  0.2199 -0.1157
56821SOL    HW177578   3.813  10.815   6.615 -0.2526  0.6011 -0.6299
56821SOL    HW277579   3.841  10.744   6.484  0.2068 -2.0541  0.8352
56822SOL     OW77580   1.812  12.604   2.352 -0.6014  0.2456 -0.3456
56822SOL    HW177581   1.814  12.564   2.265 -2.2377 -2.6287  0.7621
56822SOL    HW277582   1.895  12.580   2.392 -0.6687 -0.2072 -0.4661
56823SOL     OW77583  10.809   1.785  11.480 -0.3616  0.0245 -0.4547
56823SOL    HW177584  10.733   1.840  11.498  0.2976  0.7026  0.3727
56823SOL    HW277585  10.884   1.844  11.490  0.2924 -0.7031 -0.9234
56824SOL     OW77586   2.789   4.538   6.088  0.5053  0.1704  0.7586
56824SOL    HW177587   2.817   4.577   6.005  0.6617  4.5760  2.5659
56824SOL    HW277588   2.710   4.489   6.067 -1.4601  3.9096 -1.6638
56825SOL     OW77589   4.705  12.644   6.399  0.2218  0.3123 -0.7185
56825SOL    HW177590   4.635  12.585   6.428 -0.9319  2.0205  0.1119
56825SOL    HW277591   4.694  12.649   6.304  0.2232 -0.6352 -0.7794
56826SOL     OW77592   1.774  11.113   3.071  0.4012  0.3965 -0.6931
56826SOL    HW177593   1.692  11.156   3.046  0.1496 -0.6195 -1.6888
56826SOL    HW277594   1.776  11.120   3.167 -0.1969  1.5814 -0.7539
56827SOL     OW77595   8.716   5.106  11.325 -0.0538 -0.8439 -0.5106
56827SOL    HW177596   8.771   5.051  11.381 -1.0361  0.2440  1.6301
56827SOL    HW277597   8.629   5.103  11.366 -0.6632  0.5542 -1.6161
56828SOL     OW77598   0.165   6.009   2.790  0.2262  0.1802  0.2291
56828SOL    HW177599   0.206   6.077   2.843 -0.7947 -0.4359  1.8638
56828SOL    HW277600   0.106   5.963   2.850 -1.0685 -0.4822 -1.4565
56829SOL     OW77601   9.409   7.544  11.449  0.2989  0.0724 -0.3932
56829SOL    HW177602   9.470   7.470  11.443 -0.3366 -0.5745  0.7680
56829SOL    HW277603   9.457   7.617  11.411  1.5427 -0.5770 -0.1391
56830SOL     OW77604   9.241   1.195   0.986 -0.5333 -0.1902  0.7299
56830SOL    HW177605   9.321   1.248   0.988 -0.1176 -0.7657 -0.0925
56830SOL    HW277606   9.271   1.105   0.997 -1.2379 -0.2797  2.1123
56831SOL     OW77607   0.881   5.405  12.195  0.6060  0.0739  0.1044
56831SOL    HW177608   0.817   5.463  12.237  1.0376 -0.6712  1.8890
56831SOL    HW277609   0.909   5.452  12.117 -0.1767  1.5824  0.6992
56832SOL     OW77610   3.610   6.522   4.750  0.1957  0.2392  0.1419
56832SOL    HW177611   3.538   6.459   4.759  0.1777  0.2538  0.1018
56832SOL    HW277612   3.665   6.506   4.827 -0.4038  0.9377  0.7315
56833SOL     OW77613   3.385   2.483   5.044 -0.1811  0.0743  0.4285
56833SOL    HW177614   3.481   2.490   5.042 -0.2867  2.1161  0.5581
56833SOL    HW277615   3.360   2.530   5.123 -1.3847  1.5038 -0.7393
56834SOL     OW77616  10.715   1.826   1.129  0.1126  0.2915  0.3927
56834SOL    HW177617  10.660   1.904   1.132  1.2099  1.1837 -1.2785
56834SOL    HW277618  10.804   1.860   1.120  0.6219 -1.1598 -0.3269
56835SOL     OW77619   3.476   4.035   4.652  0.2467 -0.7925  0.4591
56835SOL    HW177620   3.381   4.020   4.651  0.2136 -0.9772 -2.6462
56835SOL    HW277621   3.514   3.948   4.662  0.0499 -0.9563 -0.1537
56836SOL     OW77622   9.638   9.203  10.500  0.3093  0.1135  0.0770
56836SOL    HW177623   9.609   9.127  10.450  1.2825 -0.5097  0.4253
56836SOL    HW277624   9.710   9.240  10.449 -0.4581  1.0884 -0.3222
56837SOL     OW77625  12.382   2.654  11.032  0.7494  0.8289 -0.2598
56837SOL    HW177626  12.351   2.709  10.961  0.2470 -2.1672 -2.5734
56837SOL    HW277627  12.453   2.602  10.993 -1.9111 -3.5680 -0.0016
56838SOL     OW77628   3.348   0.564   2.758 -0.0252  0.2451 -0.1363
56838SOL    HW177629   3.282   0.518   2.809 -0.8280 -1.1686 -2.3018
56838SOL    HW277630   3.299   0.630   2.709  0.2401 -0.3428 -1.2238
56839SOL     OW77631   2.832   7.566   9.776  0.2691 -0.5612  0.3094
56839SOL    HW177632   2.835   7.588   9.683 -0.0564 -2.2303 -0.1259
56839SOL    HW277633   2.740   7.546   9.793  0.4936 -1.2451  0.7508
56840SOL     OW77634   7.113   1.352   4.289  0.2329  0.2700 -0.2351
56840SOL    HW177635   7.070   1.392   4.213 -0.8107 -0.9838 -0.3439
56840SOL    HW277636   7.134   1.426   4.345 -2.6667  0.9865  0.0975
56841SOL     OW77637   1.748   8.564   6.057 -0.4467  0.3559 -0.2356
56841SOL    HW177638   1.816   8.522   6.005 -0.3476  2.3148 -1.8348
56841SOL    HW277639   1.672   8.568   5.999 -1.2565  0.0884  0.7780
56842SOL     OW77640   5.697  11.347  12.696  0.5044  0.3685 -0.5039
56842SOL    HW177641   5.631  11.315  12.635  0.8476  0.4120 -0.9013
56842SOL    HW277642   5.671  11.438  12.714 -0.1087  0.0716  0.1283
56843SOL     OW77643   3.164   2.235   6.035 -0.1628  0.4783 -0.3890
56843SOL    HW177644   3.201   2.238   6.123 -0.3505 -0.5369 -0.2622
56843SOL    HW277645   3.206   2.307   5.989  1.3945 -0.1456 -0.0123
56844SOL     OW77646  11.337   7.604  10.598  0.4673  0.1186  0.0649
56844SOL    HW177647  11.333   7.587  10.692 -0.0671  2.5262  0.5519
56844SOL    HW277648  11.309   7.522  10.558  0.8128 -1.0116  1.9822
56845SOL     OW77649   2.695   6.948   1.462  0.1737 -0.4057 -0.4803
56845SOL    HW177650   2.644   6.980   1.387 -0.7195  1.7340  0.9581
56845SOL    HW277651   2.630   6.912   1.522  0.6615 -0.1766  0.1948
56846SOL     OW77652   4.088   0.478   2.125 -0.3883 -0.6455 -0.2266
56846SOL    HW177653   4.131   0.452   2.044 -1.3431 -0.1695 -0.9038
56846SOL    HW277654   4.012   0.529   2.097  0.4441  1.4005  0.9914
56847SOL     OW77655   2.252   1.575   5.912  0.1540 -0.5852 -0.0366
56847SOL    HW177656   2.235   1.505   5.849  1.1954  0.1082 -1.1291
56847SOL    HW277657   2.234   1.656   5.864 -2.3803 -0.0713  1.6154
56848SOL     OW77658   9.256   3.690   4.983  0.0154 -0.2922  0.3218
56848SOL    HW177659   9.216   3.767   5.024 -1.6340 -1.1468  0.4319
56848SOL    HW277660   9.347   3.714   4.970 -0.1184  1.1236  1.6988
56849SOL     OW77661  12.508   5.541   2.852 -0.2227 -0.3752 -0.0646
56849SOL    HW177662  12.578   5.569   2.792 -0.4647 -0.1162 -0.2288
56849SOL    HW277663  12.447   5.493   2.796 -0.6278  0.1676 -0.0952
56850SOL     OW77664   2.323   3.269   8.348  0.0308  0.6725  0.0160
56850SOL    HW177665   2.411   3.297   8.373 -0.4367  0.2420  2.3727
56850SOL    HW277666   2.265   3.309   8.413 -1.2790 -0.7662 -0.2017
56851SOL     OW77667   1.089   9.041   1.057 -0.5523  0.4041  0.3809
56851SOL    HW177668   1.073   8.952   1.027  0.6721  0.3476 -0.1739
56851SOL    HW277669   1.015   9.092   1.024 -0.2721 -0.0515 -1.0097
56852SOL     OW77670  12.884  11.865  11.816  0.6404 -0.0132  1.0685
56852SOL    HW177671  12.865  11.772  11.813  0.1298  0.1009  0.6369
56852SOL    HW277672  12.980  11.870  11.814  0.6552 -0.5021  0.1449
56853SOL     OW77673   5.268  11.928   3.379  0.1018  0.1219 -0.5275
56853SOL    HW177674   5.275  11.873   3.301 -0.3850 -2.7027  1.3049
56853SOL    HW277675   5.189  11.898   3.423  0.8597  0.9855  1.5593
56854SOL     OW77676   6.114   3.244   4.894 -0.0225 -0.1601 -0.1782
56854SOL    HW177677   6.138   3.241   4.802  1.0127 -1.9057  0.1173
56854SOL    HW277678   6.062   3.166   4.909  1.5594 -1.0329  1.1402
56855SOL     OW77679  12.123   1.462   4.407  0.5830  0.1996 -0.3169
56855SOL    HW177680  12.028   1.467   4.418  0.6619 -0.0443  0.5174
56855SOL    HW277681  12.136   1.479   4.314 -0.2571  0.5011 -0.3974
56856SOL     OW77682   9.454   9.800   9.312  0.0362  0.5720  0.0125
56856SOL    HW177683   9.455   9.896   9.307 -1.5389  0.5805 -0.6608
56856SOL    HW277684   9.465   9.772   9.221  0.1538  0.1055  0.1681
56857SOL     OW77685   9.101   4.723   6.459  0.6853 -0.4171  0.2029
56857SOL    HW177686   9.098   4.799   6.402 -1.1275  0.6280  1.5521
56857SOL    HW277687   9.116   4.759   6.547 -2.5601 -1.2460  1.2397
56858SOL     OW77688   0.157   5.998   4.168 -0.3330 -0.3001 -0.1227
56858SOL    HW177689   0.204   6.055   4.230 -1.9966  1.8241 -0.6714
56858SOL    HW277690   0.198   6.016   4.084 -0.4533 -0.3865 -0.1983
56859SOL     OW77691   9.660   9.807  11.641 -0.3150  0.2274  0.0831
56859SOL    HW177692   9.718   9.763  11.579  1.0539 -0.1349  1.5524
56859SOL    HW277693   9.637   9.740  11.705 -0.5567  0.9146  0.7400
56860SOL     OW77694   5.797   4.908   3.161  0.2939  0.0034  0.0442
56860SOL    HW177695   5.776   4.949   3.245 -0.4130  0.7003 -0.4516
56860SOL    HW277696   5.812   4.816   3.182 -0.3833  0.0641  0.8685
56861SOL     OW77697   0.378   9.251   8.862  0.6817 -0.2027 -0.1358
56861SOL    HW177698   0.310   9.261   8.929  1.3195 -0.8401  0.6357
56861SOL    HW277699   0.348   9.304   8.789 -1.1459 -1.2765 -0.2231
56862SOL     OW77700   4.020  11.866   2.142 -0.3742  0.3598  0.2190
56862SOL    HW177701   4.040  11.869   2.235  0.0622 -1.2890  0.2097
56862SOL    HW277702   4.100  11.835   2.100 -0.7392  0.5289 -0.6475
56863SOL     OW77703   8.035   2.972  11.383 -0.3810  0.0827  0.3531
56863SOL    HW177704   7.999   2.962  11.295  1.6324 -1.5798 -0.3810
56863SOL    HW277705   8.115   3.023  11.370 -0.1952  0.0308  1.2514
56864SOL     OW77706   1.073  11.981   0.321 -0.2471 -0.3406  0.2491
56864SOL    HW177707   0.981  11.961   0.307 -0.2800 -0.3686  0.5061
56864SOL    HW277708   1.075  12.075   0.336 -0.1112 -0.1635 -0.8004
56865SOL     OW77709   1.041  11.746   0.089  0.4488 -0.1835 -0.4873
56865SOL    HW177710   0.955  11.783   0.068  0.6196  0.5808  0.1272
56865SOL    HW277711   1.095  11.822   0.110  1.0323 -0.7263  0.0083
56866SOL     OW77712  11.776  12.737  11.451  0.3777  0.3285  0.0367
56866SOL    HW177713  11.736  12.795  11.386 -1.9222 -0.2473  0.8403
56866SOL    HW277714  11.854  12.784  11.480 -0.4290  2.1916 -0.6388
56867SOL     OW77715   2.918  11.166   7.446  0.1960  0.0235 -0.0191
56867SOL    HW177716   2.898  11.075   7.424 -0.5556  0.0151  0.6386
56867SOL    HW277717   2.993  11.160   7.505  0.1523 -0.1715  0.0196
56868SOL     OW77718   8.694  11.635   3.969  0.4661  0.4586  0.6807
56868SOL    HW177719   8.676  11.613   4.060 -1.5992  0.3470  0.2982
56868SOL    HW277720   8.716  11.552   3.928  2.6326  0.6774  1.2802
56869SOL     OW77721   0.057   0.936   1.936 -0.3274 -0.0849  0.0059
56869SOL    HW177722   0.096   0.855   1.969  0.4198  0.1486 -0.2772
56869SOL    HW277723   0.079   1.002   2.002  2.6300  0.7507 -1.6493
56870SOL     OW77724   9.799  10.737   0.333  0.0309 -0.4230  0.4311
56870SOL    HW177725   9.870  10.777   0.284 -0.7575  0.4733  0.0011
56870SOL    HW277726   9.762  10.808   0.385 -0.4050 -0.9322  0.8307
56871SOL     OW77727   4.873  10.199   8.408  0.6201  0.1836 -0.0727
56871SOL    HW177728   4.945  10.137   8.398  2.4274  1.9500  1.2370
56871SOL    HW277729   4.823  10.192   8.327  0.5319 -3.1702  0.1684
56872SOL     OW77730   9.245   4.790  12.832  0.7165 -0.0873 -0.4677
56872SOL    HW177731   9.299   4.859  12.871 -1.0666  1.2953 -0.3141
56872SOL    HW277732   9.158   4.829  12.825  0.3022 -1.2918 -3.2063
56873SOL     OW77733  10.382  11.306   2.748  0.1156  0.4398  0.9719
56873SOL    HW177734  10.301  11.256   2.744 -0.5098  1.4938 -1.2696
56873SOL    HW277735  10.355  11.394   2.772  0.7231  0.5909  1.1208
56874SOL     OW77736  11.292   0.055  12.752  0.2755  0.1899  0.0051
56874SOL    HW177737  11.355   0.126  12.763 -0.8940  1.2196  0.2422
56874SOL    HW277738  11.344  -0.018  12.718  1.2924  1.5485 -1.5078
56875SOL     OW77739  11.894   2.907   4.827  0.0025 -0.0572 -0.5904
56875SOL    HW177740  11.827   2.974   4.819  0.2391  0.1991 -0.4646
56875SOL    HW277741  11.854   2.838   4.880 -0.5783 -0.4657 -1.5408
56876SOL     OW77742   5.673  11.007   3.727  0.1091  0.2229 -0.0080
56876SOL    HW177743   5.591  11.036   3.687  0.0963 -0.3236 -0.3876
56876SOL    HW277744   5.730  10.985   3.653 -0.7466 -3.1787  0.1797
56877SOL     OW77745   1.762   2.146   9.755  0.4115  0.0836 -0.4837
56877SOL    HW177746   1.813   2.114   9.829 -0.3421  0.0550  0.0299
56877SOL    HW277747   1.795   2.234   9.739 -0.2745  0.5647  0.6891
56878SOL     OW77748  10.154   9.219  10.238  0.2470  0.3066 -0.1819
56878SOL    HW177749  10.236   9.211  10.189  0.5398  0.1549  0.3253
56878SOL    HW277750  10.163   9.155  10.309 -0.8087 -0.5607 -0.7983
56879SOL     OW77751  10.505   8.354   1.212  0.7007 -0.2294  0.0879
56879SOL    HW177752  10.568   8.364   1.141 -1.4610  0.8073 -1.7860
56879SOL    HW277753  10.505   8.439   1.256  0.3627 -0.1285 -0.1122
56880SOL     OW77754   6.582   5.663   0.855  0.1256 -0.1256  0.5753
56880SOL    HW177755   6.636   5.713   0.793 -1.2655  0.3571 -0.2997
56880SOL    HW277756   6.563   5.724   0.926  0.6836 -0.2836  0.8634
56881SOL     OW77757   0.360   4.231  11.968  0.3738 -0.1081  0.5797
56881SOL    HW177758   0.278   4.200  12.007  1.5711 -0.8748  2.6224
56881SOL    HW277759   0.361   4.325  11.987 -0.9973  0.3493 -1.3685
56882SOL     OW77760   3.069  12.166  12.543  0.3150 -0.0320  0.0197
56882SOL    HW177761   2.989  12.207  12.577  0.7954 -0.0510  1.2250
56882SOL    HW277762   3.137  12.193  12.604  0.8892 -1.5484  0.0781
56883SOL     OW77763   3.822   8.739  11.336  0.3714  0.6648  0.7177
56883SOL    HW177764   3.779   8.800  11.395  0.1646  0.8994  0.3339
56883SOL    HW277765   3.913   8.768  11.332  0.2368  1.0552  0.4081
56884SOL     OW77766   7.323   2.952   7.440  0.0980  0.3997  0.7629
56884SOL    HW177767   7.267   2.880   7.467  0.6003 -0.7750 -1.1497
56884SOL    HW277768   7.263   3.018   7.405 -0.2175 -0.2728 -0.0068
56885SOL     OW77769   5.787   3.038   4.098 -0.3041  0.7477 -0.2463
56885SOL    HW177770   5.791   3.003   4.009  2.0836 -0.2140  0.1442
56885SOL    HW277771   5.786   3.133   4.087 -0.4785  0.6279 -1.3138
56886SOL     OW77772   8.430  12.088   9.486 -0.8681 -0.1615 -0.0677
56886SOL    HW177773   8.516  12.127   9.505 -0.2994 -0.7437 -1.3006
56886SOL    HW277774   8.375  12.114   9.560 -0.1527  1.8078 -0.1595
56887SOL     OW77775   7.521  12.413   0.348 -0.1437 -0.6058  0.3661
56887SOL    HW177776   7.490  12.428   0.259 -1.9289  0.3813  1.1028
56887SOL    HW277777   7.483  12.484   0.399  1.8863 -0.4028  1.7163
56888SOL     OW77778   5.473  10.425  10.015  0.1711  0.1970  0.1115
56888SOL    HW177779   5.395  10.399  10.063 -0.6032 -1.0652 -1.7253
56888SOL    HW277780   5.535  10.452  10.082 -1.3521 -0.1169  1.6989
56889SOL     OW77781   5.188   9.748   8.013  0.3524  0.3848  0.3362
56889SOL    HW177782   5.172   9.684   8.083  0.4939 -0.0906 -0.0530
56889SOL    HW277783   5.238   9.698   7.948 -0.9910  0.4085 -0.7449
56890SOL     OW77784  10.002   6.274  12.652 -0.2563 -0.3236 -0.0569
56890SOL    HW177785   9.953   6.204  12.695 -2.0827 -0.2835 -1.8929
56890SOL    HW277786  10.048   6.319  12.723 -0.9037 -1.9408  1.4472
56891SOL     OW77787   8.427   7.156   1.360  0.2753 -0.0558  0.3062
56891SOL    HW177788   8.496   7.199   1.410  0.0343  0.6945  0.0141
56891SOL    HW277789   8.470   7.130   1.278 -0.3771  2.9162 -1.0968
56892SOL     OW77790   8.598   2.588   6.834 -0.0828 -0.1845  0.0337
56892SOL    HW177791   8.684   2.554   6.859 -0.9568 -4.0339 -1.5074
56892SOL    HW277792   8.565   2.628   6.915  2.2566 -0.5180  1.2651
56893SOL     OW77793  11.243  10.478   1.888  0.0664  0.7011  0.4646
56893SOL    HW177794  11.176  10.413   1.908  0.5430  0.3050  0.7991
56893SOL    HW277795  11.308  10.431   1.836 -0.0915  1.1779 -0.1818
56894SOL     OW77796  11.501   7.885   9.334  0.4000 -0.0031  0.0853
56894SOL    HW177797  11.515   7.897   9.240  0.6290 -0.3707  0.0731
56894SOL    HW277798  11.521   7.793   9.350 -2.7496 -0.7973 -0.0506
56895SOL     OW77799   6.678  10.148  11.340 -0.5357  0.0844  0.0185
56895SOL    HW177800   6.668  10.171  11.247  0.0056 -0.4312 -0.1753
56895SOL    HW277801   6.768  10.173  11.361  0.0821 -1.8117 -0.2078
56896SOL     OW77802   0.119   3.086   9.351 -0.1934 -0.6815 -0.4699
56896SOL    HW177803   0.033   3.075   9.312 -0.2449 -1.7160 -0.0960
56896SOL    HW277804   0.138   3.001   9.392  1.1059 -0.5531 -0.7652
56897SOL     OW77805   2.751   2.329   2.625  0.4519  0.3489  0.1431
56897SOL    HW177806   2.684   2.279   2.670 -0.5747 -0.2027 -1.8774
56897SOL    HW277807   2.794   2.380   2.694  0.5306 -2.1307  2.0541
56898SOL     OW77808   3.699   5.231   9.577 -0.1317  0.3198 -0.0760
56898SOL    HW177809   3.780   5.181   9.589 -0.9706 -0.7257  1.5656
56898SOL    HW277810   3.654   5.186   9.505 -0.9609 -1.5396  1.4858
56899SOL     OW77811   0.530   1.861   4.485  0.0920 -0.2031 -1.0806
56899SOL    HW177812   0.492   1.776   4.504 -1.4686  0.6440 -0.2575
56899SOL    HW277813   0.589   1.845   4.411 -1.0587 -1.7601 -1.7058
56900SOL     OW77814  12.078   5.075   0.926  0.3580  0.3657 -0.2390
56900SOL    HW177815  12.025   5.146   0.963  1.7041  0.8875  0.7677
56900SOL    HW277816  12.027   4.996   0.944 -0.1628  0.8588  0.5540
56901SOL     OW77817   0.287  12.689  11.486 -0.3988 -0.0462 -0.0568
56901SOL    HW177818   0.262  12.705  11.395  0.1612  0.1447 -0.1801
56901SOL    HW277819   0.209  12.711  11.537 -0.0152  2.0756 -0.2919
56902SOL     OW77820   6.235   4.185   2.437 -0.0594  0.1435  0.0365
56902SOL    HW177821   6.292   4.256   2.466 -1.4596  2.6100 -2.6407
56902SOL    HW277822   6.295   4.118   2.403  1.2892  1.2743  0.1151
56903SOL     OW77823   9.755   6.487   1.748  0.1756 -0.6518 -0.1831
56903SOL    HW177824   9.763   6.447   1.835 -0.9533  1.7069  1.1032
56903SOL    HW277825   9.664   6.474   1.723  0.2238 -0.3712 -0.5153
56904SOL     OW77826   8.215  11.434   2.478  0.2594 -0.0815 -0.4856
56904SOL    HW177827   8.150  11.433   2.407 -0.9899  0.3949  0.5932
56904SOL    HW277828   8.289  11.482   2.442 -0.9050  1.4140 -1.0428
56905SOL     OW77829   5.784   3.605   8.862 -0.3385  0.4192  0.2271
56905SOL    HW177830   5.832   3.524   8.878 -0.0178  0.7909  1.1614
56905SOL    HW277831   5.822   3.639   8.781  1.4086  0.9974  1.2349
56906SOL     OW77832  10.019   1.799   2.911 -0.7065 -0.2169  0.9784
56906SOL    HW177833  10.082   1.870   2.923  1.1665 -0.7115 -3.8774
56906SOL    HW277834  10.064   1.722   2.945  1.2076 -0.4320 -1.7377
56907SOL     OW77835   8.106   4.040   0.684  0.0155  0.6940  1.0207
56907SOL    HW177836   8.079   4.073   0.770  0.6267 -0.1781  1.5619
56907SOL    HW277837   8.055   4.092   0.622 -2.4240 -0.4154  1.9695
56908SOL     OW77838  10.406  11.654   2.788  0.1822  0.0813  0.0290
56908SOL    HW177839  10.486  11.643   2.738 -0.1600 -0.0432 -0.4934
56908SOL    HW277840  10.336  11.623   2.731 -0.2266  0.0275  0.5415
56909SOL     OW77841   9.725   8.460  12.445  0.3777 -0.3805  0.4440
56909SOL    HW177842   9.759   8.537  12.490  0.6565  0.6280 -1.3532
56909SOL    HW277843   9.739   8.479  12.352 -1.4660 -1.6909 -0.1684
56910SOL     OW77844   0.310   0.384  11.113  0.5261 -0.6730  0.1556
56910SOL    HW177845   0.332   0.423  11.028  1.2368  0.3193  0.7651
56910SOL    HW277846   0.223   0.417  11.133  0.9306  0.2527  0.4472
56911SOL     OW77847   3.767   4.070   7.499 -0.2152 -0.2593  0.5386
56911SOL    HW177848   3.672   4.066   7.511 -0.2751 -1.2201 -0.1173
56911SOL    HW277849   3.783   4.159   7.468 -1.3473 -1.0253 -2.6499
56912SOL     OW77850   4.829   6.800   6.590 -0.0980 -0.1776  0.7484
56912SOL    HW177851   4.804   6.710   6.570 -0.3851 -0.5471  2.5866
56912SOL    HW277852   4.924   6.796   6.604  0.2723  0.2688 -1.3300
56913SOL     OW77853  11.419  12.759   5.901 -0.0330  0.1317  0.2567
56913SOL    HW177854  11.479  12.832   5.884  0.1834  0.5183  2.3794
56913SOL    HW277855  11.338  12.801   5.928 -1.7015 -0.3539 -3.3689
56914SOL     OW77856   4.194   2.267  11.948  0.3492  0.3097  0.1429
56914SOL    HW177857   4.122   2.283  12.009 -0.6358 -0.3573 -0.7965
56914SOL    HW277858   4.225   2.180  11.971 -0.5335 -0.2658 -0.7686
56915SOL     OW77859   3.364   2.888   7.712 -0.8207 -0.3078 -0.1530
56915SOL    HW177860   3.447   2.879   7.667 -1.7325 -2.4497 -1.5489
56915SOL    HW277861   3.382   2.950   7.783  2.4260 -1.9978  0.7218
56916SOL     OW77862   6.694   1.027   6.636  0.7310  0.5048 -0.4912
56916SOL    HW177863   6.645   0.989   6.710  0.1911  1.7965 -0.1673
56916SOL    HW277864   6.778   0.980   6.638  0.9835  0.9201  1.3577
56917SOL     OW77865   9.332   2.505   4.528  0.3398 -0.2222  0.1801
56917SOL    HW177866   9.420   2.496   4.490  0.4971  2.0201 -0.1699
56917SOL    HW277867   9.288   2.568   4.471 -0.5567  0.7394  1.8537
56918SOL     OW77868   6.441   2.178  10.025 -0.6560 -0.0257  0.0672
56918SOL    HW177869   6.479   2.096   9.994 -0.2758  0.1882 -0.0308
56918SOL    HW277870   6.360   2.151  10.068  1.5136 -0.9741  4.0177
56919SOL     OW77871   5.431  10.073   8.320 -0.0536 -0.2128  0.3351
56919SOL    HW177872   5.461  10.010   8.385 -0.4571 -1.9271 -1.0557
56919SOL    HW277873   5.404  10.019   8.246  1.7395  1.6737 -1.8428
56920SOL     OW77874  11.445  11.416   1.203  1.2858  0.2357  0.1317
56920SOL    HW177875  11.483  11.467   1.130  0.5783  0.1327 -0.3109
56920SOL    HW277876  11.415  11.483   1.265 -0.9148  0.4401 -1.0805
56921SOL     OW77877   2.888   0.301   7.483  0.3050  0.0050 -0.0279
56921SOL    HW177878   2.826   0.328   7.552 -0.0058  0.3465 -0.4323
56921SOL    HW277879   2.974   0.329   7.516  0.0082  1.4497 -0.3844
56922SOL     OW77880   6.983  10.524   7.730 -0.6616  0.4901 -0.3705
56922SOL    HW177881   6.922  10.518   7.656 -1.2401  0.0461  0.1335
56922SOL    HW277882   6.948  10.463   7.795 -0.4161  1.1936  0.4497
56923SOL     OW77883   3.129   6.255   9.544 -0.1062 -0.1868  0.1243
56923SOL    HW177884   3.084   6.216   9.469 -0.1865 -1.8458  0.9857
56923SOL    HW277885   3.155   6.180   9.598  0.2107  0.9439  1.6103
56924SOL     OW77886   1.264   6.621   8.217  0.4653 -0.3164  0.1939
56924SOL    HW177887   1.245   6.637   8.309 -1.1486 -1.6376  0.1417
56924SOL    HW277888   1.229   6.698   8.172 -1.7433 -1.1108  0.4432
56925SOL     OW77889  11.907   9.502  10.985 -0.1059 -0.6891 -0.1864
56925SOL    HW177890  11.977   9.477  10.924 -0.7022  0.5133 -1.4074
56925SOL    HW277891  11.944   9.482  11.071  0.9544 -1.9701 -0.8845
56926SOL     OW77892   7.494  11.982   4.888  0.8397 -0.1200 -0.2798
56926SOL    HW177893   7.587  12.002   4.876  0.7266 -0.1096 -1.1480
56926SOL    HW277894   7.448  12.060   4.856  0.4920 -0.6383 -1.0554
56927SOL     OW77895  10.099  11.398  11.069 -0.0820  0.4602  0.2612
56927SOL    HW177896  10.140  11.339  11.006 -1.6213 -0.1983 -0.1778
56927SOL    HW277897  10.104  11.351  11.152  0.2514  0.4818  0.2536
56928SOL     OW77898   3.356  10.905  12.765  0.2687 -0.5210 -0.7310
56928SOL    HW177899   3.448  10.918  12.787  0.0242 -0.5451  0.3489
56928SOL    HW277900   3.328  10.990  12.730  0.3298 -0.0436  0.3328
56929SOL     OW77901  10.585   9.306   6.812  0.5391  0.0520 -0.0504
56929SOL    HW177902  10.613   9.240   6.749 -1.0094 -0.5850 -0.1179
56929SOL    HW277903  10.591   9.263   6.897 -1.3473 -0.5450 -0.1740
56930SOL     OW77904  12.350   3.071   5.584  0.0380  0.5943 -0.6391
56930SOL    HW177905  12.428   3.039   5.540 -0.1062 -1.6841  0.5973
56930SOL    HW277906  12.277   3.032   5.536 -0.1816 -0.2301  0.3219
56931SOL     OW77907   0.453   2.073   4.341  0.4077 -0.5497  0.3628
56931SOL    HW177908   0.546   2.088   4.324  0.1021  0.4347 -0.5256
56931SOL    HW277909   0.450   1.988   4.385  1.7587 -0.4155  0.7559
56932SOL     OW77910   4.901   2.905  12.768 -0.5437  0.4845 -0.5389
56932SOL    HW177911   4.837   2.894  12.698  0.8685  0.8647 -1.9572
56932SOL    HW277912   4.950   2.983  12.744  2.0278 -1.1088 -0.8526
56933SOL     OW77913   1.596   2.151   1.116  0.0476  0.2948  0.2999
56933SOL    HW177914   1.611   2.245   1.126 -0.2511  0.4697 -0.7724
56933SOL    HW277915   1.506   2.143   1.085 -0.3938 -0.4399  1.6879
56934SOL     OW77916   5.661   3.703   9.879 -0.5858  0.3289 -0.0030
56934SOL    HW177917   5.717   3.702   9.802  1.3548  4.0965  1.1442
56934SOL    HW277918   5.573   3.718   9.844 -0.2323 -0.9073 -1.5610
56935SOL     OW77919  12.157   7.334   3.298 -0.3198  0.6550  0.8959
56935SOL    HW177920  12.065   7.359   3.293  0.4828  4.2634  1.8394
56935SOL    HW277921  12.193   7.388   3.368  2.7710  0.1920 -0.1934
56936SOL     OW77922   6.582   9.084  12.203  0.1784  0.2937 -0.5430
56936SOL    HW177923   6.604   9.167  12.245  1.6894  0.7751 -2.1321
56936SOL    HW277924   6.601   9.018  12.269  2.2881  1.0224 -0.3461
56937SOL     OW77925   1.984   5.839   5.902 -0.5894  0.0583  0.1831
56937SOL    HW177926   1.977   5.751   5.865 -0.1225  0.1092 -0.0408
56937SOL    HW277927   2.078   5.857   5.904 -0.4596 -0.5549  2.8822
56938SOL     OW77928  12.263  12.156   8.552 -0.4605 -0.3656  0.1171
56938SOL    HW177929  12.232  12.156   8.461  2.2454  0.1595 -0.9101
56938SOL    HW277930  12.207  12.220   8.596 -0.6482  0.7907 -1.6709
56939SOL     OW77931  11.135   5.359   9.678  0.2790 -0.1499  0.0141
56939SOL    HW177932  11.212   5.313   9.712  1.3512  1.2878 -0.3251
56939SOL    HW277933  11.154   5.451   9.695 -1.3600  0.2455 -0.1619
56940SOL     OW77934   0.065   0.555   0.367  0.0227  0.1704 -0.4068
56940SOL    HW177935   0.118   0.589   0.295  1.3716 -1.4138 -0.2344
56940SOL    HW277936   0.062   0.626   0.431 -1.7525  1.8507 -2.2281
56941SOL     OW77937   5.019   4.668   0.107 -0.2771 -0.0193  0.6252
56941SOL    HW177938   5.098   4.650   0.157  0.3974 -1.0229 -0.7689
56941SOL    HW277939   5.032   4.756   0.071 -0.0018 -0.0076  0.7571
56942SOL     OW77940   4.065  10.596   4.076  0.4968 -0.4853 -0.4531
56942SOL    HW177941   4.030  10.538   4.143  0.1368 -0.2394 -0.4229
56942SOL    HW277942   4.158  10.574   4.071  0.3799 -1.0044 -0.3874
56943SOL     OW77943  11.529   8.520  10.471  0.5455 -0.5644  0.2805
56943SOL    HW177944  11.438   8.541  10.449  0.2352 -0.8091  1.2816
56943SOL    HW277945  11.581   8.569  10.408 -0.2873 -0.6067 -0.4567
56944SOL     OW77946   8.987   7.666   2.261 -0.3692  0.1911  0.3862
56944SOL    HW177947   9.016   7.708   2.180 -1.4689 -1.4298 -0.9398
56944SOL    HW277948   9.062   7.613   2.288 -0.1292  0.4280  0.1940
56945SOL     OW77949   5.563  11.259   9.303  0.2664 -0.0490 -0.1956
56945SOL    HW177950   5.617  11.184   9.277 -1.1959 -0.7679 -1.3094
56945SOL    HW277951   5.530  11.235   9.390  0.8027 -0.1226 -0.0072
56946SOL     OW77952  12.749   9.282   7.046 -0.0351  0.0545 -0.5416
56946SOL    HW177953  12.684   9.236   6.994 -0.9039  1.2598 -0.5553
56946SOL    HW277954  12.791   9.213   7.099 -1.5541 -0.6951 -0.2673
56947SOL     OW77955  10.072   7.205   9.296  0.7284 -0.0585 -0.0800
56947SOL    HW177956   9.979   7.225   9.302  0.8279  0.1385  0.9473
56947SOL    HW277957  10.086   7.183   9.204 -0.7374 -2.0501  0.1091
56948SOL     OW77958   8.062   6.649  12.400 -0.8116 -0.2690 -0.1301
56948SOL    HW177959   8.059   6.737  12.362  0.0100 -0.6548 -1.1037
56948SOL    HW277960   7.972   6.634  12.430 -0.7834  1.2443  0.8787
56949SOL     OW77961   3.992  12.378   5.799  0.5302 -0.4931 -0.0522
56949SOL    HW177962   4.011  12.330   5.880  0.0398 -1.2514 -0.3767
56949SOL    HW277963   3.898  12.364   5.785 -0.0653  2.0438  0.8066
56950SOL     OW77964  10.990   5.574   6.865 -0.5175 -0.7296  0.5093
56950SOL    HW177965  11.052   5.502   6.873 -1.1365 -1.6161 -1.7513
56950SOL    HW277966  11.029   5.632   6.799 -1.4049 -0.5594  0.1152
56951SOL     OW77967   1.318  11.113   3.585 -0.3421 -0.0060 -0.1467
56951SOL    HW177968   1.285  11.201   3.567 -1.8663 -0.2786  1.0981
56951SOL    HW277969   1.380  11.125   3.657  0.7290  0.2339 -1.0823
56952SOL     OW77970   3.151   3.338   0.494 -0.1705  0.2846 -0.2740
56952SOL    HW177971   3.124   3.270   0.432  0.0771  0.9089 -1.0967
56952SOL    HW277972   3.238   3.311   0.523 -0.9997 -0.9321  1.1939
56953SOL     OW77973   6.457   9.637   7.277  0.0032 -0.1681  0.1152
56953SOL    HW177974   6.517   9.615   7.348  1.1323 -2.4179 -1.4126
56953SOL    HW277975   6.432   9.727   7.294  2.9365  0.5092  1.4735
56954SOL     OW77976   6.327   2.455   6.186 -0.0792  0.1014 -0.0516
56954SOL    HW177977   6.346   2.502   6.105 -1.0773  1.8784  0.6897
56954SOL    HW277978   6.245   2.494   6.217  1.0044  0.4892  2.5425
56955SOL     OW77979   5.875   3.866  12.680 -0.1214  0.8291  0.0706
56955SOL    HW177980   5.958   3.911  12.664  0.2359 -0.2474 -1.3424
56955SOL    HW277981   5.900   3.784  12.722 -0.3210 -0.0667 -1.4934
56956SOL     OW77982   7.403   4.556   8.649  0.0567  0.5723  0.0284
56956SOL    HW177983   7.486   4.509   8.656  0.8139  1.7694 -0.5124
56956SOL    HW277984   7.351   4.525   8.724  0.4144 -1.2597 -0.4360
56957SOL     OW77985  12.022   1.100   1.319  0.0793 -0.2171 -0.4991
56957SOL    HW177986  11.933   1.076   1.348  0.6073 -2.1575 -0.3392
56957SOL    HW277987  12.014   1.190   1.290 -1.2764  0.7010  2.3694
56958SOL     OW77988   3.178  12.923   6.132  0.4354 -0.0438  0.3984
56958SOL    HW177989   3.270  12.905   6.149  0.2434  0.3938  2.0440
56958SOL    HW277990   3.163  13.009   6.169 -0.2610  0.6544 -1.3875
56959SOL     OW77991   6.015   4.339  11.518 -0.3144 -0.0582 -0.2613
56959SOL    HW177992   6.013   4.399  11.592  1.0551  2.5118 -2.1795
56959SOL    HW277993   6.062   4.262  11.552 -0.7701  0.5160  1.8435
56960SOL     OW77994   5.358   3.892  12.764  0.9539 -0.4915 -1.0000
56960SOL    HW177995   5.332   3.912  12.674  0.6910 -2.0979 -1.3136
56960SOL    HW277996   5.285   3.921  12.817 -0.0378 -1.8435 -1.5666
56961SOL     OW77997   5.857   1.778   0.506 -0.4076 -0.2704 -0.1970
56961SOL    HW177998   5.852   1.817   0.593 -0.8038 -2.2556  0.7237
56961SOL    HW277999   5.932   1.719   0.510 -0.2140 -0.1301 -1.3332
56962SOL     OW78000  10.193   9.587   9.854  0.0901 -0.4875  0.1005
56962SOL    HW178001  10.282   9.621   9.862  1.1324 -3.3003  1.4757
56962SOL    HW278002  10.151   9.610   9.936  0.7282 -2.2009  0.9421
56963SOL     OW78003   2.724   9.876   0.524  0.3863  0.3994 -0.6440
56963SOL    HW178004   2.746   9.819   0.597  2.1000  1.1783 -0.5101
56963SOL    HW278005   2.750   9.963   0.553 -0.1059  0.9110 -1.6932
56964SOL     OW78006   6.253   3.764   5.653 -0.5926 -0.0171 -0.3499
56964SOL    HW178007   6.333   3.760   5.601 -0.0830 -1.1853  0.4810
56964SOL    HW278008   6.255   3.851   5.693 -0.9006  0.8383 -2.0670
56965SOL     OW78009   4.073   4.481   3.582 -0.0577  0.1862 -0.7145
56965SOL    HW178010   4.145   4.541   3.599 -0.3162  0.0967  0.8857
56965SOL    HW278011   4.009   4.500   3.651 -0.1094 -1.9683 -0.1074
56966SOL     OW78012  10.253   5.174   2.524  0.7610 -0.4887  0.2386
56966SOL    HW178013  10.179   5.132   2.480 -0.4936  0.4463  1.3959
56966SOL    HW278014  10.235   5.268   2.518  2.4981 -0.1691 -0.5420
56967SOL     OW78015   3.631   3.723  12.200 -0.2122  0.9236 -0.5915
56967SOL    HW178016   3.661   3.736  12.110  0.2411  0.8478 -0.4534
56967SOL    HW278017   3.544   3.763  12.202  0.2454  1.9652 -0.7586
56968SOL     OW78018   9.177   3.466  12.127  0.0402 -0.0098 -0.7421
56968SOL    HW178019   9.211   3.469  12.037  0.6706  2.6482 -0.4970
56968SOL    HW278020   9.250   3.434  12.179  0.3063  0.2666 -0.9408
56969SOL     OW78021   3.120  11.319  12.939 -0.6618 -0.1259 -0.4248
56969SOL    HW178022   3.028  11.332  12.916 -0.4471 -2.0551 -2.7529
56969SOL    HW278023   3.167  11.323  12.855  1.4111  0.8484  0.6964
56970SOL     OW78024   8.550  11.829   1.491  0.2020 -0.0726  0.3482
56970SOL    HW178025   8.466  11.866   1.517  1.1344  1.0173  1.9140
56970SOL    HW278026   8.607  11.841   1.566  2.8371  2.5364 -1.8364
56971SOL     OW78027   3.455   6.766   4.453  0.2523  0.1623 -0.3218
56971SOL    HW178028   3.540   6.722   4.461 -0.1465 -0.7605 -1.0786
56971SOL    HW278029   3.418   6.733   4.371 -1.3080 -0.2685  0.5210
56972SOL     OW78030   2.712   3.972  12.702  0.0973 -0.4566 -0.9016
56972SOL    HW178031   2.644   3.925  12.654 -2.0511  0.4364  1.0884
56972SOL    HW278032   2.704   4.063  12.672  0.2158 -0.2900 -0.4294
56973SOL     OW78033   5.293   8.453   2.512 -0.0282  0.4485 -0.4081
56973SOL    HW178034   5.285   8.540   2.549  0.6980  0.6597 -0.7284
56973SOL    HW278035   5.297   8.394   2.588 -2.7970  0.4336 -0.1744
56974SOL     OW78036   6.109   0.141  12.136  0.2807 -0.4722  0.1423
56974SOL    HW178037   6.061   0.218  12.167 -1.0021 -0.3146 -2.0556
56974SOL    HW278038   6.200   0.171  12.129  0.2266  0.1126  1.5126
56975SOL     OW78039   7.089   3.569   1.838  0.1436 -0.5268 -0.4798
56975SOL    HW178040   7.070   3.554   1.746 -0.7466 -2.5281 -0.0360
56975SOL    HW278041   7.071   3.485   1.880 -1.8725  0.9651  1.9091
56976SOL     OW78042   5.986   2.892   8.024 -0.1964  0.1103 -0.3601
56976SOL    HW178043   5.980   2.980   7.987 -0.6063 -0.8026 -2.6462
56976SOL    HW278044   6.061   2.895   8.083  0.2776  1.7839 -1.0148
56977SOL     OW78045   6.546  12.885   2.094  0.0511 -0.0012  0.0807
56977SOL    HW178046   6.594  12.804   2.109  0.6598  0.4046  0.3705
56977SOL    HW278047   6.608  12.942   2.048 -0.1469  0.5270  0.4520
56978SOL     OW78048   6.262   3.268   2.762  0.4408  0.4778 -0.1243
56978SOL    HW178049   6.260   3.250   2.668 -1.9171  0.8493 -0.1806
56978SOL    HW278050   6.171   3.278   2.788  1.0093  0.2505  2.2566
56979SOL     OW78051   0.045  12.146   6.339 -0.4453 -0.9311 -0.1582
56979SOL    HW178052   0.008  12.192   6.264 -0.8883 -1.3977 -0.2254
56979SOL    HW278053   0.127  12.109   6.305 -0.1396 -0.3023 -0.1339
56980SOL     OW78054   4.924   1.216   6.340 -0.0915 -0.0976  0.1111
56980SOL    HW178055   4.852   1.278   6.330 -1.0010 -0.8889  1.3554
56980SOL    HW278056   4.968   1.244   6.421 -0.9188 -1.4054  1.0612
56981SOL     OW78057   2.730   7.771   4.768 -0.1727 -0.1032 -0.3265
56981SOL    HW178058   2.680   7.691   4.747 -1.4153  0.8911 -1.3339
56981SOL    HW278059   2.725   7.778   4.863 -0.7988 -0.7704 -0.3001
56982SOL     OW78060   8.747   8.876  10.963  0.1505 -0.3095  0.0981
56982SOL    HW178061   8.694   8.955  10.951 -3.0166 -2.2848 -0.2852
56982SOL    HW278062   8.700   8.826  11.030  3.0286 -1.1585  1.6160
56983SOL     OW78063   7.860   1.649   8.950  0.2342  0.2352 -0.3137
56983SOL    HW178064   7.807   1.705   9.007  1.2734 -1.3053  2.3124
56983SOL    HW278065   7.942   1.697   8.939  0.9374 -0.4590  1.5283
56984SOL     OW78066   7.599   5.829   7.274 -0.1078  0.0712 -0.1482
56984SOL    HW178067   7.537   5.886   7.228 -1.6798 -1.4105  0.0039
56984SOL    HW278068   7.626   5.765   7.207  0.9720  0.4768 -0.1083
56985SOL     OW78069  10.296   2.339   3.095  0.2569 -0.1343 -0.6061
56985SOL    HW178070  10.222   2.278   3.093 -0.2298  0.3717  0.7476
56985SOL    HW278071  10.371   2.288   3.065 -0.2581 -1.2415 -0.0448
56986SOL     OW78072   9.263   1.062   5.857 -0.2888 -0.1808  0.1778
56986SOL    HW178073   9.228   1.082   5.944  1.4666  0.1066  0.8456
56986SOL    HW278074   9.349   1.025   5.874  0.9425  1.7339 -1.4952
56987SOL     OW78075   9.461   6.167   9.007 -0.1998  0.5239 -0.9490
56987SOL    HW178076   9.426   6.086   8.969 -1.6960  0.5010  0.3805
56987SOL    HW278077   9.389   6.229   8.999 -0.3890  0.6597  1.3517
56988SOL     OW78078   5.988   4.567   4.699  0.0857 -0.1219 -1.1206
56988SOL    HW178079   5.995   4.487   4.751  2.1729  0.2471 -0.7360
56988SOL    HW278080   5.909   4.610   4.732  0.4301 -0.7054  0.6112
56989SOL     OW78081   0.346   7.917   0.176  0.0051 -0.2267  0.4379
56989SOL    HW178082   0.419   7.957   0.223  0.6333 -0.3938 -0.3637
56989SOL    HW278083   0.322   7.841   0.229  1.4317 -1.0576 -0.0540
56990SOL     OW78084   8.588   6.181   2.695  0.1500 -0.2568 -0.0058
56990SOL    HW178085   8.664   6.214   2.647  0.0292  1.1216  0.6925
56990SOL    HW278086   8.568   6.251   2.758 -1.8257 -0.4926 -0.3302
56991SOL     OW78087   2.072   6.216   5.947 -0.2526  0.3276 -0.0081
56991SOL    HW178088   2.115   6.137   5.917 -0.5994  1.1997 -3.1693
56991SOL    HW278089   2.137   6.285   5.935 -1.0512  1.0024 -0.6267
56992SOL     OW78090  12.672   6.898   5.008  0.0921 -0.9070 -0.6014
56992SOL    HW178091  12.583   6.862   5.015  0.4874 -1.7825  0.2045
56992SOL    HW278092  12.671   6.976   5.063  0.2325 -1.7964  0.7058
56993SOL     OW78093   7.584  11.613   3.868 -0.2560  0.6162 -0.1855
56993SOL    HW178094   7.500  11.626   3.912  0.5225  1.3670  1.1542
56993SOL    HW278095   7.561  11.595   3.777 -1.8819  0.2724  0.2535
56994SOL     OW78096  10.662   0.265   3.937  0.9169  0.4540  0.3245
56994SOL    HW178097  10.593   0.254   4.003  1.0025 -0.6240  0.2628
56994SOL    HW278098  10.670   0.359   3.925 -0.3130  0.6040  0.5862
56995SOL     OW78099   1.027   4.326  12.727 -0.3228 -0.4179 -0.4718
56995SOL    HW178100   1.048   4.349  12.818  0.4780 -2.0408 -0.2017
56995SOL    HW278101   1.021   4.410  12.682 -0.2634  0.4055  0.9806
56996SOL     OW78102  10.626  10.767   9.517 -0.3898 -0.0398 -0.5873
56996SOL    HW178103  10.617  10.862   9.519  2.7171  0.3422 -0.0466
56996SOL    HW278104  10.576  10.737   9.592  0.3408  1.4111  0.5345
56997SOL     OW78105  12.346   3.990   8.028  0.1420  0.5278  0.2314
56997SOL    HW178106  12.321   4.077   8.057  0.2849  0.3001  1.0705
56997SOL    HW278107  12.263   3.945   8.010  0.0617  0.7349  0.0837
56998SOL     OW78108   6.241   3.586   8.671 -0.1005 -0.2513 -0.0826
56998SOL    HW178109   6.208   3.674   8.653  0.8216  0.3143  0.8466
56998SOL    HW278110   6.316   3.577   8.612 -0.1150 -0.3546 -0.0831
56999SOL     OW78111   0.909  10.785   0.818 -0.0152 -0.4505  0.1952
56999SOL    HW178112   0.926  10.727   0.892  0.6535 -2.1965 -1.2329
56999SOL    HW278113   0.983  10.847   0.819 -0.1390 -0.3080  1.1042
57000SOL     OW78114   9.733   5.106   3.077  0.0031  0.3189 -0.3885
57000SOL    HW178115   9.666   5.045   3.108  0.7726 -0.1250  0.4358
57000SOL    HW278116   9.784   5.128   3.155  2.2311 -1.1102 -1.3531
57001SOL     OW78117   5.127   1.909  10.762 -0.3197 -0.1751 -0.5101
57001SOL    HW178118   5.208   1.864  10.783 -0.8427 -0.4265  1.0505
57001SOL    HW278119   5.149   1.965  10.687  0.7233 -1.8294 -1.4920
57002SOL     OW78120   6.020   3.281   2.205  0.4406 -0.0392  0.2674
57002SOL    HW178121   6.058   3.356   2.251  1.4921 -0.2420 -0.2261
57002SOL    HW278122   5.994   3.221   2.275  0.2759  0.4622  0.6442
57003SOL     OW78123   9.893   6.105   1.539  0.1606  0.1972 -0.0840
57003SOL    HW178124   9.954   6.157   1.487  0.5170  0.1711  0.3012
57003SOL    HW278125   9.841   6.057   1.475 -0.6676  1.5633 -0.4985
57004SOL     OW78126   6.535   5.862   4.725  0.4286 -0.1978 -0.2597
57004SOL    HW178127   6.604   5.832   4.784  2.4219  1.3326 -1.6790
57004SOL    HW278128   6.466   5.796   4.733  1.8030 -1.4967  1.6365
57005SOL     OW78129   2.433   4.998   4.489  0.2091 -0.0593  0.5177
57005SOL    HW178130   2.493   5.059   4.447  0.9897 -0.2196  1.3679
57005SOL    HW278131   2.380   4.963   4.417  0.8242  0.4234 -0.1844
57006SOL     OW78132   9.766   1.990   8.088  0.0678  0.0915 -0.4851
57006SOL    HW178133   9.792   1.907   8.049 -2.5751 -1.3920  0.6456
57006SOL    HW278134   9.820   2.056   8.044  0.4731 -1.9438 -3.2363
57007SOL     OW78135   4.516   5.282   7.410  0.0224 -0.5657  0.4779
57007SOL    HW178136   4.483   5.261   7.498  1.1063 -1.7579  0.6272
57007SOL    HW278137   4.439   5.313   7.363 -1.1927 -2.5242  1.0363
57008SOL     OW78138  12.006   6.961   7.765 -0.4614  0.3761 -0.5978
57008SOL    HW178139  12.091   6.983   7.802 -0.9340  3.4123 -1.0994
57008SOL    HW278140  11.943   6.999   7.826 -1.4531 -0.6582 -0.9342
57009SOL     OW78141   7.250   0.336   8.225  0.3288  0.0215 -0.1880
57009SOL    HW178142   7.194   0.260   8.211 -1.1807  0.8283  1.0752
57009SOL    HW278143   7.205   0.408   8.180  0.7427  0.5416  0.2098
57010SOL     OW78144   7.546  11.938   0.292 -0.0476 -0.3859  0.4242
57010SOL    HW178145   7.501  11.910   0.372 -2.6021  0.7220 -0.5282
57010SOL    HW278146   7.604  12.009   0.320  1.2479 -1.8581  1.6828
57011SOL     OW78147   8.286   1.213   9.409 -0.2194  0.7229  0.3138
57011SOL    HW178148   8.318   1.211   9.499 -0.0202 -0.6338  0.2331
57011SOL    HW278149   8.231   1.135   9.401  0.5087  0.3220 -1.0026
57012SOL     OW78150   8.044   0.468   6.636  0.3565 -0.0044  0.3171
57012SOL    HW178151   8.099   0.460   6.714 -2.0053  0.5301  2.1292
57012SOL    HW278152   7.965   0.420   6.657 -0.9171  1.3292 -1.1816
57013SOL     OW78153   3.567   6.332   0.946 -0.2749  0.0632  0.0870
57013SOL    HW178154   3.583   6.403   0.884  0.5588  1.5783  1.9464
57013SOL    HW278155   3.650   6.322   0.992 -1.1404 -0.3639  1.6145
57014SOL     OW78156   2.497   4.367  12.472 -0.4461  0.4124 -0.3345
57014SOL    HW178157   2.542   4.412  12.400  0.5281 -2.2315 -1.5293
57014SOL    HW278158   2.412   4.344  12.436  0.0281 -0.8812 -0.6742
57015SOL     OW78159  10.840   4.829   9.201 -0.4319  0.3885  0.1818
57015SOL    HW178160  10.935   4.823   9.208 -0.5515 -0.6806  1.1213
57015SOL    HW278161  10.820   4.802   9.111  0.1262  0.4294  0.0422
57016SOL     OW78162   9.913   9.507   7.097 -0.3837  0.2978 -0.1358
57016SOL    HW178163   9.890   9.545   7.012 -1.4508  0.4683  0.2071
57016SOL    HW278164   9.877   9.569   7.161 -0.7433 -0.4777  0.4316
57017SOL     OW78165  12.610   7.795   1.598 -0.4484 -0.2165  0.4463
57017SOL    HW178166  12.646   7.784   1.686 -1.2597  2.0497  1.1398
57017SOL    HW278167  12.670   7.747   1.541  0.5836 -1.0121  2.1375
57018SOL     OW78168   9.776   5.591   4.918  0.3427  1.1167  0.1715
57018SOL    HW178169   9.851   5.623   4.869  0.7642  2.8930  1.8401
57018SOL    HW278170   9.723   5.544   4.854  1.9493  1.3940 -1.4365
57019SOL     OW78171   5.648   7.376   9.739 -0.3586 -0.2810 -0.2245
57019SOL    HW178172   5.684   7.342   9.657 -2.6955 -0.7256 -1.1580
57019SOL    HW278173   5.648   7.471   9.728  1.4073 -0.1993  0.2369
57020SOL     OW78174   2.762   7.818  12.077  0.2254  0.4517 -0.1065
57020SOL    HW178175   2.774   7.779  12.164 -0.3760  5.3127  2.5034
57020SOL    HW278176   2.845   7.862  12.059 -0.2147  0.8587 -1.1873
57021SOL     OW78177   4.866   8.656   8.105  0.0955 -0.5735  0.1898
57021SOL    HW178178   4.914   8.723   8.057  2.0246  0.5110  3.2870
57021SOL    HW278179   4.924   8.580   8.103  1.9168  0.5323  3.3755
57022SOL     OW78180   9.311  10.534   8.973 -0.2233  0.1250 -0.0877
57022SOL    HW178181   9.343  10.603   9.031 -0.4065 -0.6969  1.0367
57022SOL    HW278182   9.217  10.532   8.987 -0.2483 -0.2075 -0.2740
57023SOL     OW78183   3.243   4.569   8.489  0.3476  0.7701 -0.1026
57023SOL    HW178184   3.284   4.543   8.571  0.7826  1.6586 -0.0273
57023SOL    HW278185   3.151   4.586   8.512 -0.3831 -2.1421 -0.4495
57024SOL     OW78186   5.778   4.340   7.779 -0.3071 -0.2017  0.4846
57024SOL    HW178187   5.804   4.376   7.694  0.2457 -1.3432  0.1459
57024SOL    HW278188   5.690   4.305   7.765 -0.1810 -0.4711  0.3381
57025SOL     OW78189   1.878   2.176   3.754 -0.1283 -0.1283  0.1541
57025SOL    HW178190   1.970   2.165   3.780  0.0921 -0.0089 -0.5445
57025SOL    HW278191   1.829   2.121   3.815  0.6205 -2.2489 -1.0688
57026SOL     OW78192   6.970   3.566   7.936  0.5522 -0.0952  0.4811
57026SOL    HW178193   6.884   3.602   7.913  0.7021  0.7793  1.2279
57026SOL    HW278194   7.006   3.536   7.853  1.4268  3.7056 -0.7305
57027SOL     OW78195  11.795   1.337  12.825  0.3060 -0.5355  0.0367
57027SOL    HW178196  11.728   1.380  12.771 -0.6301 -0.3349  1.3001
57027SOL    HW278197  11.816   1.401  12.892  1.1449 -0.9336  0.1599
57028SOL     OW78198   9.530   2.125   5.840  0.5294  0.1682  0.2865
57028SOL    HW178199   9.569   2.198   5.793  0.6520 -0.3340 -0.4151
57028SOL    HW278200   9.446   2.158   5.873  1.0343  0.9154  0.8444
57029SOL     OW78201  12.366   8.376   2.501  0.4109  0.6053  0.3671
57029SOL    HW178202  12.387   8.350   2.411  0.3473  0.2258  0.4575
57029SOL    HW278203  12.302   8.446   2.491 -0.9679 -0.6350  0.1228
57030SOL     OW78204   4.933  10.612  12.504 -0.2249  0.5383  0.0986
57030SOL    HW178205   4.863  10.676  12.496  0.5443  1.7287  2.0577
57030SOL    HW278206   4.965  10.623  12.594  1.2658 -1.2321 -0.1483
57031SOL     OW78207   5.707  12.525   8.074  0.0296  0.4951  0.3846
57031SOL    HW178208   5.710  12.441   8.120  0.3479  0.1446 -0.2522
57031SOL    HW278209   5.621  12.526   8.031  0.0748  0.4439  0.2940
57032SOL     OW78210   0.045   1.576   9.701  0.4031  0.2450 -0.3080
57032SOL    HW178211  -0.038   1.530   9.689  0.1799  0.4413  0.4406
57032SOL    HW278212   0.031   1.661   9.660  0.8856 -0.3887 -1.8792
57033SOL     OW78213   7.132   9.615  12.271  0.1143  0.3287 -0.2145
57033SOL    HW178214   7.043   9.581  12.270  1.4607 -3.7323 -1.6797
57033SOL    HW278215   7.162   9.599  12.360 -0.2435  0.6137 -0.0400
57034SOL     OW78216   1.902   0.864   8.952  0.1609 -0.8336  0.2252
57034SOL    HW178217   1.942   0.923   8.888 -0.9876  0.0336  0.2585
57034SOL    HW278218   1.892   0.917   9.031  0.6853 -1.6088  0.8242
57035SOL     OW78219   2.737   3.903   2.980  0.7648 -0.0210 -0.0600
57035SOL    HW178220   2.645   3.909   3.004  0.7231  1.3563 -0.5025
57035SOL    HW278221   2.737   3.857   2.895  0.6207 -1.3395  0.6308
57036SOL     OW78222  11.253   8.032  11.894 -0.0248 -0.0328  0.1803
57036SOL    HW178223  11.343   8.035  11.928 -0.8396  0.9979  2.4435
57036SOL    HW278224  11.215   7.953  11.932 -0.0476 -0.5597 -0.9112
57037SOL     OW78225   3.162   7.716   9.179  0.0127  0.0310 -0.1403
57037SOL    HW178226   3.201   7.737   9.264 -0.6827  0.6678  0.0360
57037SOL    HW278227   3.236   7.708   9.119  0.6345 -1.9047  0.8087
57038SOL     OW78228  10.572  12.927   8.825  0.4467  0.6241 -0.5187
57038SOL    HW178229  10.568  12.884   8.911  0.3730  0.5931 -0.5376
57038SOL    HW278230  10.557  12.856   8.762 -0.5962  0.8297 -0.5181
57039SOL     OW78231   6.980   3.816  12.224  0.3906  0.1729 -0.1413
57039SOL    HW178232   7.014   3.735  12.260  2.3873  1.5491  1.2898
57039SOL    HW278233   6.922   3.851  12.292  0.0314  0.2574 -0.4849
57040SOL     OW78234   7.696   8.781   1.339  0.1118 -0.2540 -0.0805
57040SOL    HW178235   7.618   8.742   1.379 -0.0916  0.2624  0.0281
57040SOL    HW278236   7.688   8.758   1.246  0.3523 -1.0640  0.0854
57041SOL     OW78237   0.465  10.392   9.585 -0.0484  0.0234 -0.1640
57041SOL    HW178238   0.446  10.312   9.634  0.1428 -0.7273 -1.2587
57041SOL    HW278239   0.472  10.460   9.651 -1.7445 -0.5724  0.6744
57042SOL     OW78240   0.196   1.286   4.879 -0.1278 -0.0876 -0.1234
57042SOL    HW178241   0.244   1.367   4.867  0.8165 -0.7279 -0.7868
57042SOL    HW278242   0.168   1.261   4.791 -0.6366 -0.3518  0.1061
57043SOL     OW78243   3.866   5.089   0.912  0.0694 -0.3113  0.3566
57043SOL    HW178244   3.926   5.069   0.840  2.0427  2.0103  1.2304
57043SOL    HW278245   3.884   5.021   0.977  1.2374 -0.1089  0.2748
57044SOL     OW78246   9.080   2.374   7.501 -0.0336  0.7398  0.1588
57044SOL    HW178247   9.018   2.398   7.432 -0.6850  0.4278  0.6233
57044SOL    HW278248   9.025   2.337   7.570  0.7206  0.0687  0.4053
57045SOL     OW78249   3.045   0.047   6.980  0.2964 -0.0302 -0.1040
57045SOL    HW178250   2.962   0.046   7.028  0.0355 -0.5904 -0.5584
57045SOL    HW278251   3.112   0.051   7.048 -0.0614 -1.0333  0.3234
57046SOL     OW78252   6.989   2.365   2.744  0.2513  0.1942  0.0356
57046SOL    HW178253   6.998   2.391   2.836  0.7825 -0.6924  0.2447
57046SOL    HW278254   6.901   2.328   2.738 -0.4208  1.7450 -0.2093
57047SOL     OW78255   3.841   3.212  10.642 -0.0753  0.4158 -0.4077
57047SOL    HW178256   3.926   3.180  10.674 -0.5627  0.7581  1.3573
57047SOL    HW278257   3.791   3.133  10.623  0.3321  0.2037 -0.6098
57048SOL     OW78258   0.135  11.396   1.762 -0.3233  0.4710  0.5769
57048SOL    HW178259   0.053  11.406   1.812 -2.3202  2.8075 -2.7790
57048SOL    HW278260   0.181  11.479   1.775  0.8675 -0.2760  1.2697
57049SOL     OW78261   7.715   7.719   3.981  0.1112 -0.3531  0.3066
57049SOL    HW178262   7.796   7.669   3.984  0.3998 -0.1246 -1.7246
57049SOL    HW278263   7.733   7.798   4.032  1.0120 -0.5267  0.2622
57050SOL     OW78264   4.525   4.423   5.421  0.0187  0.2657 -0.1383
57050SOL    HW178265   4.514   4.367   5.497  0.0549 -1.5489 -1.4164
57050SOL    HW278266   4.443   4.413   5.371 -0.4893  2.3233  0.1760
57051SOL     OW78267   2.691   5.942   6.107  0.6663  0.3315 -0.5120
57051SOL    HW178268   2.695   6.037   6.114 -1.4419  0.5337 -1.2217
57051SOL    HW278269   2.776   5.916   6.072  1.2263  1.9562 -0.4100
57052SOL     OW78270  10.964   0.079   2.171 -0.7404 -0.3593 -0.5388
57052SOL    HW178271  11.020   0.145   2.213 -0.3979 -1.0791  0.1548
57052SOL    HW278272  10.898   0.130   2.125  0.2976  0.5066 -1.1237
57053SOL     OW78273   9.112   5.875   3.867 -0.8802  0.0391  0.6869
57053SOL    HW178274   9.103   5.814   3.941  1.5417 -0.1210  0.9374
57053SOL    HW278275   9.028   5.870   3.821 -1.6312 -1.5895  2.1193
57054SOL     OW78276   2.126   1.164  10.415  0.4379 -0.5363  0.8598
57054SOL    HW178277   2.153   1.152  10.506 -0.4697 -0.9553  1.0887
57054SOL    HW278278   2.040   1.206  10.422  1.5797  2.1345  0.1403
57055SOL     OW78279   1.143   1.850  12.343  0.7206 -0.1257  0.0704
57055SOL    HW178280   1.192   1.792  12.401  1.1702  1.3082  1.1842
57055SOL    HW278281   1.074   1.886  12.399  0.6295  0.6313 -0.5169
57056SOL     OW78282   5.135   0.013   7.412 -0.0115  0.0253  0.9004
57056SOL    HW178283   5.206   0.074   7.432  0.2146  0.1424 -0.1854
57056SOL    HW278284   5.060   0.069   7.391  0.1474 -0.0555  0.0759
57057SOL     OW78285  12.627   4.874   5.512  0.3119  0.2947  0.6414
57057SOL    HW178286  12.630   4.940   5.443  0.9029 -0.6135 -0.2391
57057SOL    HW278287  12.639   4.791   5.465  1.1232 -0.3088  1.8778
57058SOL     OW78288  10.034   6.945   7.568 -0.4539 -0.5104  0.9667
57058SOL    HW178289  10.080   6.877   7.518  0.3239  0.6429  0.0748
57058SOL    HW278290  10.071   6.940   7.656  2.0965  0.9558  0.0660
57059SOL     OW78291   2.124   1.497  10.246 -0.1929 -0.2514  0.2818
57059SOL    HW178292   2.162   1.455  10.324  0.0843  0.9170  0.7998
57059SOL    HW278293   2.160   1.586  10.247 -0.1007 -0.2502 -1.2602
57060SOL     OW78294  12.219   5.145   4.834 -0.1533 -0.2290  0.4321
57060SOL    HW178295  12.214   5.187   4.920  0.7690  0.2379  0.2658
57060SOL    HW278296  12.130   5.112   4.819 -0.2595 -0.5592  1.6776
57061SOL     OW78297   9.399   7.978  11.030  0.1630  0.0646  0.5824
57061SOL    HW178298   9.387   7.922  11.107 -1.3710  1.2648  1.2542
57061SOL    HW278299   9.486   7.955  10.997 -0.6926 -3.3443  0.3145
57062SOL     OW78300   5.961   6.860   3.637 -0.5308 -0.7806  0.3443
57062SOL    HW178301   6.032   6.836   3.696  1.1388 -2.9141 -2.3029
57062SOL    HW278302   5.985   6.947   3.605 -1.0487  0.0531  2.1596
57063SOL     OW78303   7.106   5.224   9.388  0.3345  0.8282  0.2308
57063SOL    HW178304   7.139   5.212   9.298  0.6865  0.2938  0.4190
57063SOL    HW278305   7.185   5.217   9.443 -0.0773 -0.4570  0.6928
57064SOL     OW78306  10.028   1.490  11.435  0.5551 -0.6153  0.1626
57064SOL    HW178307  10.060   1.471  11.347  0.3725 -1.1761  0.2150
57064SOL    HW278308   9.938   1.519  11.423  0.8496  0.2918  0.0776
57065SOL     OW78309   1.649  11.868  12.229  0.1266  0.3206 -0.0458
57065SOL    HW178310   1.648  11.777  12.260 -1.6851 -0.0932 -1.2099
57065SOL    HW278311   1.610  11.864  12.142  0.7277  2.1260 -0.4346
57066SOL     OW78312   8.114   1.138   0.462 -0.5958 -0.2363 -0.5214
57066SOL    HW178313   8.046   1.195   0.425 -0.9324 -0.4530 -0.2424
57066SOL    HW278314   8.196   1.179   0.436 -0.8290  0.9494  0.5502
57067SOL     OW78315   8.388  12.620   4.369 -0.5444 -0.4193  0.1391
57067SOL    HW178316   8.420  12.672   4.296  0.7456 -0.8194  0.3970
57067SOL    HW278317   8.440  12.540   4.366 -0.1544 -0.2576  1.7478
57068SOL     OW78318   0.583  10.363   2.476  0.5651 -0.3719  0.3342
57068SOL    HW178319   0.666  10.350   2.524  0.4514  0.4697  0.7826
57068SOL    HW278320   0.566  10.278   2.436  1.1297 -0.8552  1.0622
57069SOL     OW78321   9.409   5.031   9.994 -0.4305 -0.1925 -0.2765
57069SOL    HW178322   9.477   4.985   9.944  1.7150  0.6460  1.6852
57069SOL    HW278323   9.406   4.985  10.078  0.5385  2.0633  1.0915
57070SOL     OW78324   4.821   0.949   6.444  0.4485  0.5349 -0.1201
57070SOL    HW178325   4.868   1.017   6.396  0.7561  0.6021  0.2754
57070SOL    HW278326   4.888   0.887   6.470  0.3434  0.6884  0.5400
57071SOL     OW78327   9.274   6.153   6.791  0.0398  0.2318  0.1602
57071SOL    HW178328   9.301   6.245   6.782 -0.2758  0.2337 -0.8954
57071SOL    HW278329   9.318   6.108   6.719 -0.8539 -0.1980 -0.1292
57072SOL     OW78330   6.905   1.029   0.449  0.0270  0.0560 -0.4179
57072SOL    HW178331   6.885   0.935   0.449  2.4644 -0.6554  3.1969
57072SOL    HW278332   6.911   1.052   0.356 -1.2359 -3.1757 -1.4425
57073SOL     OW78333   6.756   4.751   3.752  0.8549 -0.0514  0.3861
57073SOL    HW178334   6.823   4.713   3.808 -0.0626  0.6687  2.0346
57073SOL    HW278335   6.705   4.808   3.810 -0.7246  0.0048 -0.9781
57074SOL     OW78336   7.811   7.512  11.213 -0.9838  0.4629 -0.3232
57074SOL    HW178337   7.843   7.446  11.275 -1.2258  0.1495 -0.5277
57074SOL    HW278338   7.860   7.591  11.236  1.3277 -0.4220 -1.7823
57075SOL     OW78339   4.928   2.179   0.589 -0.3353 -0.0249 -0.0734
57075SOL    HW178340   4.872   2.238   0.540  0.6608 -0.3211 -1.6297
57075SOL    HW278341   5.016   2.191   0.551  0.3755 -0.6486  1.2914
57076SOL     OW78342  10.783   5.014   7.531  0.0424  0.3458  0.3446
57076SOL    HW178343  10.739   4.930   7.548 -0.6909  0.4100 -1.1164
57076SOL    HW278344  10.807   5.010   7.439  1.1071  1.2646  0.5595
57077SOL     OW78345   9.380   7.219  12.219  0.4161  0.0126 -0.1907
57077SOL    HW178346   9.367   7.183  12.307  0.5546  1.1139  0.2988
57077SOL    HW278347   9.457   7.275  12.228 -0.3876  1.2163 -0.6715
57078SOL     OW78348  10.555   1.984   9.177 -0.3124  0.6712 -0.5826
57078SOL    HW178349  10.499   2.017   9.107  0.5816  0.1187 -1.5892
57078SOL    HW278350  10.543   2.046   9.249 -2.7964  0.1565 -0.4676
57079SOL     OW78351   5.884   0.839  12.213  0.4966 -0.6999  0.4661
57079SOL    HW178352   5.850   0.791  12.138 -1.9767  1.7006 -0.1444
57079SOL    HW278353   5.813   0.836  12.278 -0.6119  3.3413 -0.2800
57080SOL     OW78354  10.556   4.481  10.564  0.2749 -0.0850  0.3695
57080SOL    HW178355  10.549   4.568  10.524  0.4634  0.0328  0.5894
57080SOL    HW278356  10.583   4.423  10.492  2.2950  0.4235  0.6444
57081SOL     OW78357  10.703   2.303   8.848  0.4022  0.5873  0.1450
57081SOL    HW178358  10.665   2.313   8.761 -0.5361 -0.0035  0.4667
57081SOL    HW278359  10.798   2.309   8.834  0.2395  1.0884 -0.8230
57082SOL     OW78360   6.026   2.713   9.602  0.3400  0.2767  0.5141
57082SOL    HW178361   5.945   2.696   9.554 -1.0578  0.9654  2.5035
57082SOL    HW278362   6.015   2.802   9.636  1.2310 -0.2022  2.1318
57083SOL     OW78363  11.117   7.038   1.774 -0.6675  0.3456 -0.4463
57083SOL    HW178364  11.060   7.101   1.819  0.4679  1.3190 -0.3184
57083SOL    HW278365  11.061   6.999   1.707 -2.1553 -0.4805  1.1760
57084SOL     OW78366   8.139   9.448  10.413  0.0748  0.5343 -0.1482
57084SOL    HW178367   8.209   9.514  10.409  0.8760 -0.3412 -1.1068
57084SOL    HW278368   8.069   9.491  10.462  0.0670  2.6014 -1.8335
57085SOL     OW78369  12.385   3.105   3.246  0.4904 -0.1953 -0.5683
57085SOL    HW178370  12.304   3.054   3.244  1.3060 -1.5684 -0.0850
57085SOL    HW278371  12.418   3.094   3.335  2.1290 -1.1827 -1.2617
57086SOL     OW78372  10.635  10.392   5.254 -0.4462 -0.2674 -0.1576
57086SOL    HW178373  10.652  10.342   5.175 -2.0535  0.9218 -1.3181
57086SOL    HW278374  10.717  10.440   5.270 -0.1584 -0.3869 -1.2058
57087SOL     OW78375   9.800   1.322   3.645  0.5443 -0.3152 -0.2633
57087SOL    HW178376   9.735   1.379   3.687  0.5532 -0.8225  0.4585
57087SOL    HW278377   9.749   1.270   3.582  0.3208 -0.3992 -0.0151
57088SOL     OW78378   2.524   9.409   1.737 -0.3333  0.0202  0.6661
57088SOL    HW178379   2.531   9.499   1.769  1.7583 -0.2127  0.9774
57088SOL    HW278380   2.573   9.409   1.655 -0.2987 -0.8535  0.6808
57089SOL     OW78381   7.464   8.656   6.481 -0.0829  0.2302  0.3728
57089SOL    HW178382   7.419   8.737   6.504  0.1415  0.0493  1.5416
57089SOL    HW278383   7.523   8.679   6.410  0.0520  1.1156  0.7646
57090SOL     OW78384   9.420   4.360   9.753  0.2260  0.2064  0.1833
57090SOL    HW178385   9.414   4.428   9.820 -0.1727 -1.1946  1.6425
57090SOL    HW278386   9.513   4.338   9.749  0.1043 -0.5408  1.1825
57091SOL     OW78387   0.825  10.210  11.500 -0.2709 -0.4790 -0.6466
57091SOL    HW178388   0.882  10.239  11.429  0.2004  1.5862  0.4977
57091SOL    HW278389   0.785  10.290  11.534  0.2582 -1.2426  2.0272
57092SOL     OW78390   6.589  10.162   5.614 -0.5172 -1.0558  0.1010
57092SOL    HW178391   6.608  10.248   5.652 -1.1781 -1.1578  0.7063
57092SOL    HW278392   6.647  10.155   5.538  0.6202 -0.7002  0.9047
57093SOL     OW78393   3.752   7.173   4.960 -0.3570  0.4889  0.3405
57093SOL    HW178394   3.686   7.126   4.908 -0.9085  1.4867  0.1144
57093SOL    HW278395   3.777   7.247   4.906  1.4098 -0.1754  0.1803
57094SOL     OW78396   5.587   2.119   6.416 -0.0397 -0.1714 -0.0008
57094SOL    HW178397   5.533   2.055   6.370 -0.3012 -0.4782  0.7183
57094SOL    HW278398   5.594   2.085   6.506 -1.4973  1.5523  0.8429
57095SOL     OW78399   9.664   5.224   9.690  0.2531  0.5635 -0.3116
57095SOL    HW178400   9.650   5.144   9.741  0.0207  1.0287  0.3676
57095SOL    HW278401   9.643   5.295   9.750  0.7151  1.1499 -0.8230
57096SOL     OW78402   5.430   5.229  12.807  0.0946  0.1225 -0.1087
57096SOL    HW178403   5.484   5.163  12.765  0.0583  0.7280 -1.1594
57096SOL    HW278404   5.433   5.304  12.746  0.4734  1.2274  1.2302
57097SOL     OW78405   6.768   0.817   9.528 -0.0584 -0.2439 -0.6719
57097SOL    HW178406   6.833   0.831   9.597 -0.9840  0.3729  0.1040
57097SOL    HW278407   6.698   0.768   9.572 -0.3274 -0.4911 -1.3679
57098SOL     OW78408  10.427   6.132   3.701  0.5212 -0.1178  0.0152
57098SOL    HW178409  10.333   6.117   3.687  0.4501 -0.7550  1.0252
57098SOL    HW278410  10.444   6.217   3.662 -0.7020  0.4661  0.6685
57099SOL     OW78411   1.700   6.392   4.202 -0.1023  0.2626 -0.2829
57099SOL    HW178412   1.688   6.398   4.297 -1.0308  0.4288 -0.3976
57099SOL    HW278413   1.767   6.324   4.190 -1.4145 -1.2177  0.4347
57100SOL     OW78414   4.302   3.809  12.826 -0.2042  0.5176 -0.3911
57100SOL    HW178415   4.378   3.751  12.816  1.3039  2.4818 -0.8193
57100SOL    HW278416   4.241   3.779  12.759  0.8055 -0.1663 -1.0471
57101SOL     OW78417   0.793   8.651   7.041  0.7545 -0.5225 -0.5014
57101SOL    HW178418   0.804   8.557   7.028 -0.6232 -0.6603 -0.7966
57101SOL    HW278419   0.699   8.667   7.031  0.7242  0.6487  1.1186
57102SOL     OW78420   9.115   0.958   5.226  0.7479  0.0934 -0.4681
57102SOL    HW178421   9.102   1.041   5.180  0.5813 -0.8199 -2.1813
57102SOL    HW278422   9.055   0.961   5.300  0.9646  1.6128 -0.3362
57103SOL     OW78423   7.339   6.096   3.959  0.0360 -0.2314 -0.0770
57103SOL    HW178424   7.362   6.031   4.026  1.8132  0.3266 -0.0810
57103SOL    HW278425   7.245   6.110   3.970  0.2621 -0.1055  2.3888
57104SOL     OW78426   6.016   4.252   3.330  0.0000  0.8133 -0.1005
57104SOL    HW178427   6.087   4.234   3.267  2.4617  1.0643  2.4140
57104SOL    HW278428   5.974   4.331   3.297  2.2518  1.8484 -0.6568
57105SOL     OW78429   9.805   2.705   4.065 -0.0378  0.0249  0.3782
57105SOL    HW178430   9.769   2.672   3.983 -0.9857  0.6998  0.5140
57105SOL    HW278431   9.838   2.627   4.110  0.0864 -0.4038 -0.4333
57106SOL     OW78432   0.430   2.064   9.427 -0.2051  0.2067 -0.1312
57106SOL    HW178433   0.510   2.095   9.384  1.4875 -1.6377  1.4747
57106SOL    HW278434   0.431   2.108   9.512  0.7155 -1.8969  1.0284
57107SOL     OW78435  12.396   2.427   0.335 -0.0841 -0.2591  0.4523
57107SOL    HW178436  12.378   2.446   0.243 -0.1248  0.4916  0.6131
57107SOL    HW278437  12.355   2.342   0.350  0.2708 -0.5831 -0.3283
57108SOL     OW78438   0.261   9.006   1.702  0.5094 -0.4571 -0.0584
57108SOL    HW178439   0.177   8.996   1.746 -2.0896  1.7885 -3.9228
57108SOL    HW278440   0.311   9.065   1.758 -1.6788  0.4765  1.0138
57109SOL     OW78441   8.721   7.176   6.751 -0.1110 -0.1398 -0.4346
57109SOL    HW178442   8.703   7.104   6.811 -0.1990  0.6087  0.4651
57109SOL    HW278443   8.666   7.158   6.675 -0.0411 -1.0775 -0.2694
57110SOL     OW78444  11.146   6.226   6.276 -0.4027 -0.4150 -0.5717
57110SOL    HW178445  11.171   6.142   6.314  2.2889 -0.6478 -2.5583
57110SOL    HW278446  11.059   6.210   6.239 -1.1005 -1.4757  1.3695
57111SOL     OW78447   8.652   9.475  11.693  0.6516 -0.1912 -0.2124
57111SOL    HW178448   8.593   9.415  11.739  0.3438 -0.1204 -0.5088
57111SOL    HW278449   8.695   9.525  11.762 -0.4490  0.5236 -0.0209
57112SOL     OW78450   8.132  11.906   2.055  0.8843 -0.1266  0.3692
57112SOL    HW178451   8.101  11.920   1.965  2.1749  0.8667  0.0456
57112SOL    HW278452   8.157  11.813   2.057  1.7804  0.0617 -0.6419
57113SOL     OW78453   4.743   6.014  11.068 -0.1830  0.3855  0.2367
57113SOL    HW178454   4.773   5.982  11.154 -1.3931  0.8214  0.8440
57113SOL    HW278455   4.664   5.964  11.051 -0.0076  0.3845 -0.5928
57114SOL     OW78456  11.114   7.617   2.209  0.4915 -0.0698  0.2658
57114SOL    HW178457  11.110   7.612   2.113  1.5062  0.1817  0.2032
57114SOL    HW278458  11.024   7.598   2.237  0.0006  0.6184 -0.7603
57115SOL     OW78459   6.560  11.146  12.364  0.0839  0.0048  0.4058
57115SOL    HW178460   6.569  11.052  12.357  1.7830  0.2000 -0.3716
57115SOL    HW278461   6.586  11.180  12.278 -0.0406  1.1981  0.8148
57116SOL     OW78462   8.433   8.632  11.755 -0.1171  0.2188 -0.1500
57116SOL    HW178463   8.353   8.613  11.805 -0.3562 -0.8435 -0.8924
57116SOL    HW278464   8.484   8.688  11.812  0.0036 -1.6254  1.6670
57117SOL     OW78465   4.932  12.271   5.868 -0.0250  0.7406 -0.0637
57117SOL    HW178466   4.926  12.231   5.781 -1.0380 -0.6040  0.5926
57117SOL    HW278467   4.958  12.361   5.851  2.5920 -0.1698 -1.6197
57118SOL     OW78468   7.870  10.644  11.929 -0.1525 -0.2211 -0.1628
57118SOL    HW178469   7.797  10.664  11.988  1.0510  1.7782  0.7412
57118SOL    HW278470   7.908  10.564  11.965 -0.8853 -0.3459  0.3646
57119SOL     OW78471   5.525  12.619   5.173 -0.0599 -0.3596  0.1950
57119SOL    HW178472   5.515  12.637   5.080  0.5324 -1.6902 -0.1610
57119SOL    HW278473   5.611  12.577   5.180  0.5331  1.0197  1.5600
57120SOL     OW78474  10.916  10.747   1.390 -0.3833 -0.0630  0.1340
57120SOL    HW178475  10.916  10.837   1.421 -0.7515 -0.0335  0.0523
57120SOL    HW278476  10.837  10.740   1.336  0.0454 -0.2232 -0.4799
57121SOL     OW78477   6.817   5.649   0.505  0.3156  0.0512 -0.4552
57121SOL    HW178478   6.808   5.601   0.422  1.1290 -1.5652  0.3391
57121SOL    HW278479   6.727   5.666   0.532 -0.0507 -1.6283 -0.4718
57122SOL     OW78480   4.524   3.377  11.952 -0.0259  0.2917  0.6748
57122SOL    HW178481   4.612   3.408  11.972  1.0797 -2.0649 -0.2156
57122SOL    HW278482   4.487   3.352  12.037  0.1894  1.1391  1.0306
57123SOL     OW78483  11.032   8.276   0.795 -0.3436 -0.5339  0.6445
57123SOL    HW178484  10.979   8.198   0.809 -0.6940 -0.0612  2.0984
57123SOL    HW278485  11.069   8.296   0.881 -0.4691  1.0482  0.3620
57124SOL     OW78486  12.465   2.597   1.098 -0.0851  0.3915 -0.3669
57124SOL    HW178487  12.388   2.613   1.153  0.6476  0.9974  0.5239
57124SOL    HW278488  12.443   2.637   1.014  0.0395  2.5007  0.5211
57125SOL     OW78489  12.615   3.536  12.178  0.2736 -0.6412 -0.4037
57125SOL    HW178490  12.554   3.607  12.161 -0.2717 -0.9273  0.3177
57125SOL    HW278491  12.627   3.493  12.093 -1.4438 -1.3042 -0.3362
57126SOL     OW78492  11.975   5.041   5.187  0.1382 -0.0343 -0.5533
57126SOL    HW178493  11.901   5.059   5.130  0.1375  1.2936 -0.1462
57126SOL    HW278494  12.041   5.002   5.128 -1.3954 -2.8021 -0.6329
57127SOL     OW78495   3.970   0.426  12.966  0.7604 -0.1161  0.4724
57127SOL    HW178496   4.043   0.455  13.020 -0.3943  0.3625  1.8499
57127SOL    HW278497   3.958   0.497  12.903  0.3775  0.6578  1.3894
57128SOL     OW78498  11.168   6.215   8.140 -0.6450  0.1234 -0.7880
57128SOL    HW178499  11.222   6.275   8.088  0.5848  1.2064  1.5762
57128SOL    HW278500  11.089   6.265   8.160  0.6089  1.3091  1.6357
57129SOL     OW78501   0.507   9.012   6.157  0.2068 -0.0475  0.2018
57129SOL    HW178502   0.495   9.105   6.177  0.3390 -0.1395  0.7320
57129SOL    HW278503   0.602   9.000   6.159  0.1631 -0.3478  0.9011
57130SOL     OW78504   7.152   9.920   1.167  0.1173 -0.5303 -0.6131
57130SOL    HW178505   7.164   9.927   1.262  0.6167 -0.5996 -0.6654
57130SOL    HW278506   7.059   9.937   1.153  0.0359 -0.5393 -0.1089
57131SOL     OW78507  11.131   1.789   7.757 -0.3282  0.0578  0.1460
57131SOL    HW178508  11.131   1.697   7.733  1.1537 -0.4602  1.9161
57131SOL    HW278509  11.185   1.831   7.690 -1.1165 -0.3061 -0.7407
57132SOL     OW78510   6.912   3.467   6.012  0.3592 -0.2677  0.4001
57132SOL    HW178511   6.944   3.455   6.102 -1.8303 -0.3554  1.2289
57132SOL    HW278512   6.824   3.430   6.013 -0.7864  2.2065 -1.0432
57133SOL     OW78513   5.525  10.545   9.189 -0.0462 -1.0091  0.2350
57133SOL    HW178514   5.601  10.490   9.165  0.9373 -0.4688  1.9401
57133SOL    HW278515   5.558  10.635   9.182 -1.1272 -0.6664 -0.8154
57134SOL     OW78516   9.329   4.577  12.664  0.5978  0.0303  0.2569
57134SOL    HW178517   9.314   4.631  12.741  1.6701 -0.0708  0.5556
57134SOL    HW278518   9.292   4.628  12.592  0.2333  0.4627  0.7418
57135SOL     OW78519  10.136   8.322   7.648 -0.3497  0.1338 -0.7455
57135SOL    HW178520  10.215   8.294   7.601  0.0248  0.9162 -0.5986
57135SOL    HW278521  10.079   8.245   7.646  0.4134 -0.4460 -0.8569
57136SOL     OW78522  11.617   8.439   8.733  0.4022 -0.2584 -0.3719
57136SOL    HW178523  11.644   8.371   8.794  2.2216  0.3943 -0.3860
57136SOL    HW278524  11.522   8.447   8.746  0.7124 -0.0730  2.4638
57137SOL     OW78525   8.554  12.471   1.478  0.2107  0.2750 -0.0796
57137SOL    HW178526   8.485  12.407   1.464 -0.3005  0.0536  2.8428
57137SOL    HW278527   8.619  12.452   1.410 -1.7402 -0.6806 -1.7598
57138SOL     OW78528  10.769  11.636  10.922  0.4149 -0.7208 -0.1129
57138SOL    HW178529  10.678  11.657  10.905  0.1141 -0.0776  1.9917
57138SOL    HW278530  10.803  11.605  10.838 -1.2775  0.6210 -1.3608
57139SOL     OW78531   5.407   2.386   9.906  0.2995 -0.0863  0.4236
57139SOL    HW178532   5.430   2.446   9.977 -0.4283 -1.3662  1.8008
57139SOL    HW278533   5.315   2.406   9.886  0.1176 -0.5884  0.7400
57140SOL     OW78534  10.864   6.531   0.729 -0.0251 -0.7219 -0.1791
57140SOL    HW178535  10.955   6.560   0.733 -0.0575 -0.6569  0.1775
57140SOL    HW278536  10.820   6.583   0.797 -0.4736 -0.2261 -0.8382
57141SOL     OW78537  12.730   0.382   7.733 -0.4617 -0.0753  0.0863
57141SOL    HW178538  12.825   0.372   7.726 -0.2057  2.2277 -0.5289
57141SOL    HW278539  12.715   0.409   7.823 -0.6563 -1.2672  0.4292
57142SOL     OW78540   6.768   1.187   4.269 -0.1003  0.2280 -0.7173
57142SOL    HW178541   6.744   1.261   4.213 -1.0396  0.2551 -0.2934
57142SOL    HW278542   6.689   1.169   4.320  0.2590 -0.7807 -0.4939
57143SOL     OW78543   8.318  11.209   5.266  0.4081 -0.0975  0.1284
57143SOL    HW178544   8.403  11.210   5.312  0.7538  0.2198 -0.5005
57143SOL    HW278545   8.287  11.299   5.272 -0.2741 -0.3877  1.0545
57144SOL     OW78546   5.666   2.695   8.635  0.3383 -0.1026  0.2997
57144SOL    HW178547   5.576   2.726   8.621  0.2294 -0.9597 -1.1082
57144SOL    HW278548   5.658   2.600   8.637  1.1093 -0.1673  1.1477
57145SOL     OW78549   9.425   0.771   5.841 -0.3120  0.0020 -0.1361
57145SOL    HW178550   9.470   0.855   5.829  0.0607 -0.3077 -0.9698
57145SOL    HW278551   9.474   0.709   5.786 -0.5565 -0.7722  0.4950
57146SOL     OW78552   5.061   3.220  11.152 -0.1307  0.4752 -0.3572
57146SOL    HW178553   5.139   3.169  11.130 -1.0546 -0.5552 -1.4446
57146SOL    HW278554   5.047   3.276  11.076 -0.2436  0.9359 -0.0026
57147SOL     OW78555   1.406   9.925   5.417 -0.2411 -0.3254  0.3862
57147SOL    HW178556   1.339   9.880   5.365  0.9073 -2.0625  0.3620
57147SOL    HW278557   1.393  10.018   5.395 -1.2960 -0.7908 -1.2040
57148SOL     OW78558   5.382   7.267   9.321  0.2744  0.0546 -0.2814
57148SOL    HW178559   5.402   7.211   9.246  0.0038 -1.7694  0.9449
57148SOL    HW278560   5.286   7.276   9.318  0.3146  0.4546 -0.4595
57149SOL     OW78561   3.090   8.351   5.723 -0.2909  0.2423 -0.2752
57149SOL    HW178562   3.038   8.386   5.650 -1.5124  0.8030  0.8083
57149SOL    HW278563   3.048   8.388   5.801  0.8143 -0.5562  0.7268
57150SOL     OW78564  11.344   8.977   9.081  0.5497 -0.1794  0.1246
57150SOL    HW178565  11.389   8.947   9.002  1.6540 -0.9244  1.0050
57150SOL    HW278566  11.405   9.040   9.120 -1.3887  2.7803 -1.2793
57151SOL     OW78567   1.300  10.954  12.332  0.3610  0.0203 -0.8468
57151SOL    HW178568   1.258  11.017  12.390  0.7086  0.3894 -0.9861
57151SOL    HW278569   1.238  10.882  12.324  0.3039 -0.0319 -0.0226
57152SOL     OW78570   9.860   6.661   0.366  0.1920 -0.0020 -0.2577
57152SOL    HW178571   9.850   6.635   0.458 -3.8026 -2.2297 -1.0739
57152SOL    HW278572   9.922   6.599   0.329  3.0707  1.8691  1.0992
57153SOL     OW78573  11.364   4.918  10.864  0.0154  0.6563  0.3013
57153SOL    HW178574  11.291   4.977  10.884 -0.2058  0.4184  0.2117
57153SOL    HW278575  11.352   4.895  10.772  0.8740  1.5305 -0.0433
57154SOL     OW78576   0.267   3.416   5.328 -0.2002  0.2668  0.2924
57154SOL    HW178577   0.198   3.444   5.267 -0.6108 -2.2139 -0.5158
57154SOL    HW278578   0.225   3.348   5.381  1.2363 -0.2747  0.7735
57155SOL     OW78579   3.657   4.861   7.962 -0.3995 -0.1575 -0.5837
57155SOL    HW178580   3.652   4.948   7.922 -0.5307  0.0179 -0.1949
57155SOL    HW278581   3.710   4.809   7.901 -0.7399  0.0539 -1.0688
57156SOL     OW78582  11.198  11.792   0.629 -0.0714  0.2569 -0.3082
57156SOL    HW178583  11.137  11.721   0.646  0.3313  0.2435  1.2611
57156SOL    HW278584  11.177  11.858   0.695  0.4992  0.9813 -0.8317
57157SOL     OW78585   8.585   8.049   0.030  0.2057  0.1802 -0.2137
57157SOL    HW178586   8.616   8.048   0.121  0.7500 -0.6937 -0.4017
57157SOL    HW278587   8.659   8.084  -0.020 -0.2055  0.9675 -0.2942
57158SOL     OW78588   6.723   7.510   5.499  0.8814  0.4331  0.1921
57158SOL    HW178589   6.657   7.577   5.480 -0.1632 -0.7100 -0.3261
57158SOL    HW278590   6.718   7.449   5.426  1.5403 -0.4365  0.8438
57159SOL     OW78591  10.122   8.445   2.003 -0.2305 -0.8325  0.1281
57159SOL    HW178592  10.188   8.444   2.073 -0.4422 -2.1418  0.3290
57159SOL    HW278593  10.124   8.535   1.971  0.6817 -0.4924  1.0511
57160SOL     OW78594  10.676   6.582   9.948  0.4367  0.3079 -0.2797
57160SOL    HW178595  10.621   6.620  10.017  1.4137 -1.3512  1.5174
57160SOL    HW278596  10.621   6.586   9.870 -1.2990  0.9882  0.8914
57161SOL     OW78597  10.865   4.902   7.001  0.4097 -0.3961 -0.3041
57161SOL    HW178598  10.909   4.829   7.046 -1.1855 -0.8072  0.6713
57161SOL    HW278599  10.773   4.877   7.001 -0.0505  1.2408 -0.7193
57162SOL     OW78600  11.543   8.247  10.987  0.5967  0.2543  0.6277
57162SOL    HW178601  11.465   8.266  11.039 -0.0095 -0.2501 -0.0689
57162SOL    HW278602  11.589   8.331  10.980 -0.1849  0.6859  0.5635
57163SOL     OW78603   2.572   9.310   4.034  0.2435 -0.1711 -0.4128
57163SOL    HW178604   2.485   9.328   4.069  0.0901 -0.8868 -0.4170
57163SOL    HW278605   2.585   9.376   3.966 -0.8289 -0.8486 -1.3173
57164SOL     OW78606   4.814   5.851   5.559  0.6585 -0.4028  0.2019
57164SOL    HW178607   4.728   5.834   5.521 -0.1955 -0.2611  1.9410
57164SOL    HW278608   4.867   5.881   5.486 -0.4570 -1.5159 -1.1257
57165SOL     OW78609   7.875   5.460   5.615  0.5611 -0.2450  0.0583
57165SOL    HW178610   7.927   5.517   5.559  1.2367 -2.0799 -1.2764
57165SOL    HW278611   7.810   5.421   5.556 -0.5442 -0.1170  1.1402
57166SOL     OW78612   2.531  10.813  11.866 -0.1838 -0.2419  0.0051
57166SOL    HW178613   2.599  10.808  11.933 -0.7497 -0.0397  0.6055
57166SOL    HW278614   2.449  10.817  11.915 -0.6478 -0.6836 -0.7118
57167SOL     OW78615   1.418   6.951   9.181  0.1437 -1.0801  0.1353
57167SOL    HW178616   1.381   6.886   9.240 -1.4852  0.6464  1.1265
57167SOL    HW278617   1.485   6.996   9.233  0.3751 -1.1291 -0.1197
57168SOL     OW78618  11.216  11.837   1.075 -0.3006  0.7077 -0.6059
57168SOL    HW178619  11.219  11.741   1.072 -0.6046  0.6366  0.9103
57168SOL    HW278620  11.303  11.865   1.045  0.1652 -0.0807 -0.0291
57169SOL     OW78621   7.399   2.731   2.535  0.6700  0.3509  0.4872
57169SOL    HW178622   7.456   2.710   2.461  2.0694  2.2067  0.9661
57169SOL    HW278623   7.320   2.768   2.496  2.1846  3.1874 -0.1495
57170SOL     OW78624   7.390   4.875   9.392 -0.3472 -0.0585  0.1424
57170SOL    HW178625   7.390   4.922   9.309 -0.3335 -0.5205 -0.1215
57170SOL    HW278626   7.298   4.869   9.417 -0.5398 -1.6112 -0.8151
57171SOL     OW78627   6.651   4.839   3.988 -0.2446  0.0387 -0.3027
57171SOL    HW178628   6.677   4.885   4.068 -1.6643 -0.4648  0.4807
57171SOL    HW278629   6.586   4.775   4.017 -2.8300  1.6251 -2.1553
57172SOL     OW78630   3.374   0.703   5.584  0.0342 -0.5007 -0.0899
57172SOL    HW178631   3.402   0.621   5.543 -2.5190 -1.7498  0.4433
57172SOL    HW278632   3.398   0.771   5.521  1.8850 -1.6654 -0.7111
57173SOL     OW78633   7.838   2.201  11.638  0.1859  0.1404 -0.2924
57173SOL    HW178634   7.773   2.189  11.707 -1.2011  0.3988 -1.5105
57173SOL    HW278635   7.921   2.205  11.684 -0.5372 -1.2918  1.2247
57174SOL     OW78636   9.864   6.448  11.920 -0.5618  0.0803  0.0054
57174SOL    HW178637   9.768   6.450  11.923 -0.6298 -0.8055 -0.9551
57174SOL    HW278638   9.886   6.355  11.926  0.2864  0.3105  0.8352
57175SOL     OW78639  12.345  11.648   0.454  0.8052  0.0050  0.4594
57175SOL    HW178640  12.411  11.585   0.483  1.5630  0.4361 -0.2910
57175SOL    HW278641  12.330  11.627   0.362 -0.3827 -0.3224  0.7152
57176SOL     OW78642   9.432   7.646   1.492 -0.2721 -0.1758  0.1646
57176SOL    HW178643   9.386   7.580   1.545  2.0711 -1.6209  0.5264
57176SOL    HW278644   9.503   7.677   1.547 -0.9854  2.3427 -0.2154
57177SOL     OW78645   1.170   4.011   7.371  0.9448 -0.0432 -0.4053
57177SOL    HW178646   1.153   3.917   7.369 -0.7428  0.1632  1.2868
57177SOL    HW278647   1.125   4.045   7.294  2.2648 -0.6793 -1.4960
57178SOL     OW78648   6.916   7.832   4.877 -0.2935  0.0159  0.6516
57178SOL    HW178649   6.843   7.771   4.871  1.5827 -2.4979  1.7093
57178SOL    HW278650   6.984   7.794   4.821  0.4575  1.9706  0.1392
57179SOL     OW78651   5.667   5.251   1.587 -0.0582  0.6965 -0.1344
57179SOL    HW178652   5.675   5.244   1.682  0.5702 -0.4973 -0.2588
57179SOL    HW278653   5.577   5.223   1.569  0.6176 -1.6595 -0.0928
57180SOL     OW78654   5.076   7.561   1.159 -0.4336 -0.2416 -0.2129
57180SOL    HW178655   5.137   7.618   1.207  1.3938 -1.9870 -0.3650
57180SOL    HW278656   5.040   7.503   1.226  1.6474 -2.2675 -0.7450
57181SOL     OW78657   5.758   1.292   5.548 -0.2573  0.0160 -0.1132
57181SOL    HW178658   5.763   1.282   5.643  0.9656  0.3426 -0.1254
57181SOL    HW278659   5.783   1.206   5.513  0.4726  0.2352 -0.1416
57182SOL     OW78660   7.548   4.641   4.225  0.6534 -0.3646 -0.2736
57182SOL    HW178661   7.562   4.660   4.132 -2.2557 -0.0835 -0.7605
57182SOL    HW278662   7.490   4.710   4.256 -0.1721 -1.6258  1.1729
57183SOL     OW78663   8.411   3.341  11.585 -0.1348  0.3485  0.3077
57183SOL    HW178664   8.368   3.270  11.633 -0.2055  0.2165  0.0477
57183SOL    HW278665   8.440   3.301  11.503 -2.2986  1.1670 -0.9388
57184SOL     OW78666   4.396   3.472   1.635  0.0556 -0.3539 -0.1982
57184SOL    HW178667   4.413   3.566   1.623  2.0153 -0.7114 -0.6636
57184SOL    HW278668   4.333   3.450   1.566 -0.5860  0.6414  0.0495
57185SOL     OW78669   0.829   4.041  10.650  0.1629  0.4523  0.1486
57185SOL    HW178670   0.846   4.131  10.678 -0.7969  0.5875  0.3226
57185SOL    HW278671   0.755   4.012  10.703  1.1723 -0.8528  0.9078
57186SOL     OW78672  11.190   0.295  12.534  0.2886 -0.3341  0.8557
57186SOL    HW178673  11.283   0.320  12.535  0.9156 -2.4402 -0.0250
57186SOL    HW278674  11.160   0.316  12.446 -0.4046  1.2872  1.4348
57187SOL     OW78675   5.313   7.444  10.445 -0.1843 -0.2928  0.6922
57187SOL    HW178676   5.304   7.536  10.420 -0.6016 -0.3974  0.4517
57187SOL    HW278677   5.251   7.397  10.389  1.0369 -0.8981 -0.1943
57188SOL     OW78678  11.046   2.432   1.044 -0.6764 -0.1330  0.5604
57188SOL    HW178679  11.140   2.431   1.024 -0.3691 -1.6264  1.8904
57188SOL    HW278680  11.004   2.415   0.960  0.2817 -0.2159  0.0742
57189SOL     OW78681   8.892  12.485  10.863  0.1962 -0.3582 -0.6044
57189SOL    HW178682   8.920  12.394  10.851  0.2920 -0.0993 -2.6441
57189SOL    HW278683   8.849  12.508  10.781  1.3297  1.8637 -0.6517
57190SOL     OW78684   7.878   0.457   8.115 -0.1243  0.3747  0.0913
57190SOL    HW178685   7.861   0.502   8.033 -1.1541  1.0322  0.6419
57190SOL    HW278686   7.791   0.436   8.149  0.3149 -2.2332 -0.2292
57191SOL     OW78687  10.223   1.730   9.336 -0.6368 -0.5484  0.4964
57191SOL    HW178688  10.259   1.716   9.249 -0.3126  0.3353  0.4722
57191SOL    HW278689  10.130   1.751   9.321 -0.7199 -0.9826  0.4101
57192SOL     OW78690   1.860   7.148   8.846  0.4698 -0.9807 -0.1440
57192SOL    HW178691   1.810   7.110   8.774  0.4421  1.2698 -1.4231
57192SOL    HW278692   1.952   7.131   8.824  0.5852  1.2743 -1.8287
57193SOL     OW78693   9.864   0.322   1.674  0.0017  0.2883  0.2391
57193SOL    HW178694   9.774   0.331   1.703 -0.4397 -2.9108  0.2378
57193SOL    HW278695   9.905   0.265   1.739  0.7034 -2.0025 -2.0117
57194SOL     OW78696   6.617   5.739   1.483  0.0825 -0.2597  0.1054
57194SOL    HW178697   6.547   5.681   1.455 -0.6526  0.5102  0.3114
57194SOL    HW278698   6.640   5.788   1.403  0.3365 -0.4448  0.0604
57195SOL     OW78699   3.329   2.927  10.889 -0.6592  0.0047  0.2206
57195SOL    HW178700   3.312   2.900  10.979 -1.7808  2.7085  0.8841
57195SOL    HW278701   3.256   2.891  10.838 -0.9845 -0.0216  0.7043
57196SOL     OW78702  10.827   8.493   0.884 -0.0799  0.1764  0.7600
57196SOL    HW178703  10.851   8.428   0.950 -1.8599 -1.8190 -0.4400
57196SOL    HW278704  10.812   8.573   0.934 -0.5855 -1.0523  2.6952
57197SOL     OW78705   3.314   4.971  10.612  0.4367 -0.0555  0.5430
57197SOL    HW178706   3.250   4.968  10.541 -0.4872  0.5543  1.3159
57197SOL    HW278707   3.347   4.881  10.618  0.9383  0.0020 -0.9944
57198SOL     OW78708   3.062   6.236   7.707  0.2998  0.1310  0.2405
57198SOL    HW178709   3.019   6.225   7.622  0.7814  1.4706 -0.2134
57198SOL    HW278710   2.998   6.283   7.760  1.0452  1.9287 -0.3651
57199SOL     OW78711   1.779   2.318  12.937  0.1706  0.1103 -0.6966
57199SOL    HW178712   1.733   2.305  12.854  1.2870 -1.1032 -1.1536
57199SOL    HW278713   1.719   2.282  13.003 -0.4769  0.5672 -1.0242
57200SOL     OW78714   7.755   7.664  10.442  0.6843  0.3479  0.2387
57200SOL    HW178715   7.794   7.639  10.526 -0.0109 -0.3252  0.3687
57200SOL    HW278716   7.662   7.642  10.451  0.3637  1.4174 -0.2642
57201SOL     OW78717   0.428  11.250  10.124 -0.2499 -0.6995  0.1336
57201SOL    HW178718   0.344  11.205  10.111 -0.8876 -0.3528  2.5283
57201SOL    HW278719   0.408  11.343  10.112 -0.4226 -0.5485  1.4294
57202SOL     OW78720  11.624   4.866   8.162  0.1198 -0.2883 -0.3093
57202SOL    HW178721  11.630   4.929   8.234  0.5092 -0.9969  0.3003
57202SOL    HW278722  11.712   4.864   8.124  0.3915 -1.1794  0.3192
57203SOL     OW78723   9.500   8.972   0.235 -0.0815 -0.1208 -0.4956
57203SOL    HW178724   9.583   8.958   0.280 -1.3674 -0.8141  1.8475
57203SOL    HW278725   9.469   9.057   0.268 -1.0919 -0.6757  0.0517
57204SOL     OW78726  10.910   6.145   3.474 -0.2018  0.4512 -0.2994
57204SOL    HW178727  10.952   6.060   3.461 -0.3361  0.1729  0.9679
57204SOL    HW278728  10.823   6.135   3.436 -1.4648 -1.1219  2.6903
57205SOL     OW78729   8.851   6.567  12.139 -0.0073  0.3358 -0.2966
57205SOL    HW178730   8.788   6.553  12.209 -0.2646  0.6404 -0.4643
57205SOL    HW278731   8.800   6.554  12.058  0.2347  0.2014 -0.4296
57206SOL     OW78732  10.954   7.900   6.431 -0.2156  0.0220 -0.0614
57206SOL    HW178733  11.048   7.892   6.444  0.2472  1.8235 -1.8646
57206SOL    HW278734  10.944   7.950   6.350 -2.7188  0.5975  0.4854
57207SOL     OW78735   8.684   8.094   9.851  0.5047 -0.1003  0.3428
57207SOL    HW178736   8.648   8.007   9.867 -0.3071  0.0794 -0.4126
57207SOL    HW278737   8.628   8.153   9.903  0.5939  0.0428  0.2784
57208SOL     OW78738  11.140   9.735   4.249 -0.3303  0.5672 -0.4833
57208SOL    HW178739  11.049   9.721   4.222 -0.0799  0.1670 -1.1397
57208SOL    HW278740  11.140   9.717   4.343 -1.1115  1.4629 -0.2947
57209SOL     OW78741   0.467   2.752   8.639 -0.0968 -0.0807  0.1948
57209SOL    HW178742   0.449   2.797   8.556 -0.0518  0.0023  0.2300
57209SOL    HW278743   0.559   2.728   8.633  0.5220  1.8100  1.1086
57210SOL     OW78744  10.596   0.774   7.594  0.0395  0.0006 -0.3651
57210SOL    HW178745  10.527   0.828   7.558 -1.2426 -0.3455  1.4389
57210SOL    HW278746  10.663   0.771   7.525 -0.4813  2.6163 -1.0851
57211SOL     OW78747  12.748   7.791   4.517 -0.7492 -0.4188  0.0452
57211SOL    HW178748  12.656   7.819   4.520 -1.5191 -2.7983  0.6584
57211SOL    HW278749  12.752   7.730   4.444  0.6845  0.6058 -0.7748
57212SOL     OW78750   4.630  12.261  12.782 -0.0885  0.0553 -0.2742
57212SOL    HW178751   4.590  12.333  12.830 -1.4738 -0.7830 -0.1125
57212SOL    HW278752   4.714  12.295  12.753 -1.1816  2.1113 -1.2032
57213SOL     OW78753  11.980  12.845   8.923  0.2484  0.3358 -0.4398
57213SOL    HW178754  11.895  12.870   8.887 -0.1665 -0.1088  0.1861
57213SOL    HW278755  11.966  12.844   9.018  0.5828 -0.9709 -0.3725
57214SOL     OW78756   4.905   4.463  11.692  0.0596 -0.0760  0.2251
57214SOL    HW178757   4.848   4.404  11.741  0.3011 -0.9176 -0.4687
57214SOL    HW278758   4.993   4.445  11.725  0.3526 -1.3580 -1.1420
57215SOL     OW78759  11.589  11.894   8.356 -0.3905 -0.5442 -0.4070
57215SOL    HW178760  11.623  11.947   8.284  1.4015 -1.1797 -0.0762
57215SOL    HW278761  11.494  11.902   8.349 -0.2036  2.0137 -0.8785
57216SOL     OW78762  12.790   2.808   5.042 -0.5208  0.0015  0.3221
57216SOL    HW178763  12.876   2.785   5.076 -0.0958 -0.3695 -0.9418
57216SOL    HW278764  12.770   2.739   4.979 -0.8187  1.1586 -0.9116
57217SOL     OW78765   0.209   1.185   6.307 -0.0125 -0.5371  0.2597
57217SOL    HW178766   0.168   1.237   6.238 -1.2134 -0.6453  0.8715
57217SOL    HW278767   0.265   1.248   6.353  1.9709 -0.7774 -1.6616
57218SOL     OW78768   4.157   1.661  11.486 -0.5416 -0.0228  0.1654
57218SOL    HW178769   4.117   1.577  11.506 -1.1659 -0.4124 -2.3431
57218SOL    HW278770   4.208   1.645  11.406  0.8582  1.5611  0.6725
57219SOL     OW78771   5.737   1.558   0.773  0.5525 -0.8872 -0.3731
57219SOL    HW178772   5.672   1.577   0.706  1.8208  1.4900 -1.0212
57219SOL    HW278773   5.698   1.592   0.854  0.3727 -0.8666 -0.4669
57220SOL     OW78774   5.977   5.716   7.571  0.0547  0.1514 -0.3140
57220SOL    HW178775   6.061   5.729   7.528  0.0335 -2.2885 -1.2136
57220SOL    HW278776   5.995   5.732   7.663  1.5559 -0.4434 -0.4719
57221SOL     OW78777   5.015   6.074   4.326  0.0958 -0.6450 -0.2636
57221SOL    HW178778   4.966   6.118   4.257  0.2698 -0.3135 -0.1764
57221SOL    HW278779   5.019   5.983   4.298  0.0912 -0.5277 -0.6469
57222SOL     OW78780   7.635   9.180   9.463  0.2490  0.1219 -0.0966
57222SOL    HW178781   7.715   9.202   9.416 -0.0480  0.3057 -0.5165
57222SOL    HW278782   7.610   9.094   9.429 -1.9322  1.7429 -2.9632
57223SOL     OW78783  11.892   7.413   7.118  0.0522 -0.3208 -0.0007
57223SOL    HW178784  11.826   7.348   7.094 -0.7854 -0.4783  2.5115
57223SOL    HW278785  11.938   7.375   7.193  1.7980  0.5938 -0.5390
57224SOL     OW78786   7.915   0.241   6.347  0.3486  0.3515 -0.1335
57224SOL    HW178787   7.954   0.292   6.276  0.0154  0.7633 -0.0308
57224SOL    HW278788   7.983   0.237   6.414  0.2439  1.0168  0.0220
57225SOL     OW78789   5.797   7.977   3.861 -1.0405 -0.1187 -0.2533
57225SOL    HW178790   5.708   7.978   3.828 -1.6157  0.3722  1.2059
57225SOL    HW278791   5.788   7.951   3.953  0.6713 -3.6100 -0.9304
57226SOL     OW78792   8.769   7.316  11.290 -0.3712 -0.0878  0.3547
57226SOL    HW178793   8.770   7.364  11.373  0.6013 -1.1728  1.0046
57226SOL    HW278794   8.689   7.263  11.294 -0.2369 -0.2672  0.6765
57227SOL     OW78795   9.959   0.039   1.234  0.3855 -0.0830 -0.5275
57227SOL    HW178796   9.882   0.056   1.179  0.2045  1.2675  0.1173
57227SOL    HW278797  10.003   0.123   1.240  0.8716 -0.4094  0.6865
57228SOL     OW78798   3.461   6.648   1.772  0.2929  0.2793 -0.5791
57228SOL    HW178799   3.521   6.628   1.845  1.7373 -0.8382 -2.0034
57228SOL    HW278800   3.519   6.677   1.701 -0.4721 -3.3165 -2.9195
57229SOL     OW78801   6.633  10.605   2.739  0.4799  0.0956 -0.3086
57229SOL    HW178802   6.563  10.554   2.697 -0.9571  1.6235  0.1296
57229SOL    HW278803   6.677  10.542   2.796 -1.2229 -0.6956  0.1984
57230SOL     OW78804   3.380   9.133   0.962  0.3122  0.4195  0.2517
57230SOL    HW178805   3.459   9.102   0.918  0.7320 -2.3168  2.6226
57230SOL    HW278806   3.311   9.074   0.933 -0.3608  1.2898  0.0378
57231SOL     OW78807   5.765   0.682   4.765 -0.2556 -0.0772 -0.0589
57231SOL    HW178808   5.762   0.673   4.860  1.8095  1.2115  0.1828
57231SOL    HW278809   5.812   0.604   4.735  0.0395  0.0494  0.0769
57232SOL     OW78810   2.976   3.678   2.890  0.0683  0.1451 -0.2047
57232SOL    HW178811   2.951   3.712   2.975 -0.0656 -1.3767  0.3996
57232SOL    HW278812   2.893   3.668   2.843  0.1361  0.9214 -0.4942
57233SOL     OW78813   2.685  12.384   4.519 -0.1348 -0.0180 -0.0139
57233SOL    HW178814   2.777  12.377   4.543  0.2110  1.9171 -0.5736
57233SOL    HW278815   2.637  12.366   4.600  0.6890 -1.5297  0.1683
57234SOL     OW78816   0.009   7.950   5.207  0.0349 -0.3125  0.1758
57234SOL    HW178817  -0.062   7.895   5.173 -0.2337  0.8984 -1.3234
57234SOL    HW278818   0.029   7.913   5.293 -1.9271 -1.1077  0.3402
57235SOL     OW78819   4.043   5.977   3.930  0.0419 -0.4520  0.0817
57235SOL    HW178820   4.044   6.024   3.847  1.5767  0.8682  0.7906
57235SOL    HW278821   4.012   5.889   3.907 -0.3042  0.0949 -1.7387
57236SOL     OW78822   3.376   2.196   9.510  0.1414  0.4336 -0.7113
57236SOL    HW178823   3.427   2.118   9.531 -0.9257 -0.0789  0.1025
57236SOL    HW278824   3.339   2.179   9.423  0.9778  0.6203 -1.1101
57237SOL     OW78825  10.549   7.316   3.805 -0.7314 -0.0758 -0.2643
57237SOL    HW178826  10.461   7.278   3.803 -1.5357  1.7177 -0.6539
57237SOL    HW278827  10.552   7.375   3.730  0.2454  1.0852  0.6420
57238SOL     OW78828   8.817   6.361  11.713  0.2903 -0.3665 -0.1960
57238SOL    HW178829   8.727   6.373  11.682 -0.7878 -1.4636  2.2476
57238SOL    HW278830   8.814   6.390  11.804  2.2274 -1.1632  0.1524
57239SOL     OW78831   6.310  11.747   6.451 -0.5157  0.0145  0.0386
57239SOL    HW178832   6.268  11.811   6.394  0.8982 -1.2679 -2.6454
57239SOL    HW278833   6.393  11.789   6.477 -0.8417  0.3172  0.6253
57240SOL     OW78834  12.067   9.139  11.052  0.6581 -0.3071  0.0377
57240SOL    HW178835  12.113   9.220  11.029  1.9814 -1.6506 -2.5130
57240SOL    HW278836  12.006   9.125  10.980  1.0271 -1.9528  0.0077
57241SOL     OW78837   9.145   8.101  11.112 -0.2348 -0.4654 -0.4799
57241SOL    HW178838   9.224   8.155  11.102 -0.6251  0.3996  0.9512
57241SOL    HW278839   9.169   8.018  11.072  1.8508 -0.6394  0.9824
57242SOL     OW78840   6.822   9.576   0.918 -0.0158  0.3699 -0.1256
57242SOL    HW178841   6.768   9.513   0.965  1.3756 -1.0949 -0.4180
57242SOL    HW278842   6.763   9.613   0.852 -0.1739 -2.9105 -2.0295
57243SOL     OW78843   6.639   3.759   4.797  0.4433 -0.1253 -0.2264
57243SOL    HW178844   6.698   3.730   4.867  2.1680  3.4849  0.0312
57243SOL    HW278845   6.565   3.698   4.802  1.3021 -1.1459  3.5456
57244SOL     OW78846   9.949   7.324   1.572  0.3641  0.2307  0.1157
57244SOL    HW178847   9.928   7.253   1.633  0.2760 -1.3394 -1.6216
57244SOL    HW278848   9.906   7.401   1.608  0.9871 -0.4305  2.4179
57245SOL     OW78849  11.109   4.448   5.797 -0.4498 -0.0208  0.1688
57245SOL    HW178850  11.198   4.480   5.780 -0.4617 -0.3137 -0.4917
57245SOL    HW278851  11.114   4.354   5.776 -0.5413 -0.3569  1.5755
57246SOL     OW78852   6.197   3.872   0.973  0.3331 -0.0833  0.9247
57246SOL    HW178853   6.105   3.888   0.952 -0.0751 -0.7865  2.0714
57246SOL    HW278854   6.233   3.832   0.893 -0.2634  0.4741  0.3611
57247SOL     OW78855   7.222   5.564   5.240 -0.5558 -0.0912  0.2724
57247SOL    HW178856   7.268   5.645   5.221 -0.5656 -0.3353 -0.8447
57247SOL    HW278857   7.283   5.513   5.293  0.9133 -0.8434 -2.0416
57248SOL     OW78858   1.046   1.146   3.985  0.1605  0.3079 -0.0284
57248SOL    HW178859   1.077   1.059   4.012  0.8132  0.6569  0.3622
57248SOL    HW278860   1.022   1.189   4.067 -0.5383  0.3568 -0.2580
57249SOL     OW78861   4.384   7.414   9.550 -0.5548  0.3967  0.5800
57249SOL    HW178862   4.471   7.434   9.584 -0.0483 -0.4649 -0.1902
57249SOL    HW278863   4.324   7.454   9.614  0.3709 -0.8465  2.3153
57250SOL     OW78864   0.015  12.600   3.753 -0.4330 -0.1080 -0.6625
57250SOL    HW178865  -0.035  12.662   3.807  0.0319 -0.1304 -0.2015
57250SOL    HW278866   0.098  12.590   3.799 -0.4235 -0.9166 -0.8482
57251SOL     OW78867   8.775   6.867   5.194  0.9389  0.3788  0.1911
57251SOL    HW178868   8.803   6.869   5.286  1.5442  1.3765 -0.0082
57251SOL    HW278869   8.836   6.807   5.152 -0.5230 -1.6420  0.7910
57252SOL     OW78870  11.492  10.898   0.219  0.1602  0.0181 -0.6628
57252SOL    HW178871  11.403  10.875   0.193 -0.3085  2.1299 -1.0818
57252SOL    HW278872  11.484  10.984   0.259  1.7876 -0.4882  0.9203
57253SOL     OW78873  10.546  10.692  12.334  0.0552 -0.6523 -0.0603
57253SOL    HW178874  10.475  10.692  12.270 -0.9017  0.0668  0.9482
57253SOL    HW278875  10.531  10.614  12.387 -0.5208 -0.0366  0.7021
57254SOL     OW78876  12.611   6.823   3.165 -0.3345  0.3603  0.0671
57254SOL    HW178877  12.530   6.773   3.178  1.5220 -2.1905  3.6704
57254SOL    HW278878  12.667   6.764   3.114 -0.6807  2.2068 -2.6341
57255SOL     OW78879   5.804   6.803   6.721 -0.0152  0.2717 -0.0238
57255SOL    HW178880   5.868   6.843   6.780 -0.3810 -0.7150  1.0849
57255SOL    HW278881   5.852   6.733   6.678 -0.5278 -1.0752  1.4942
57256SOL     OW78882  11.526   3.589  11.479 -0.1351 -0.0937 -0.1140
57256SOL    HW178883  11.484   3.667  11.443 -2.7506 -0.8459  1.1219
57256SOL    HW278884  11.480   3.572  11.561  0.7983 -2.5667 -0.0133
57257SOL     OW78885   7.126  10.343   2.308 -0.4392  0.3331 -0.2232
57257SOL    HW178886   7.183  10.323   2.382 -2.0241 -1.7032  0.5570
57257SOL    HW278887   7.111  10.437   2.314  1.1944  0.5660  0.7377
57258SOL     OW78888  10.507  12.026   8.612  0.8211 -0.6806  0.1162
57258SOL    HW178889  10.461  12.102   8.646  0.8892 -0.3275 -0.5701
57258SOL    HW278890  10.517  11.968   8.688  0.3243 -0.2330  0.5298
57259SOL     OW78891   1.815   5.711   6.853 -0.3416 -0.3938  0.0879
57259SOL    HW178892   1.823   5.621   6.822  0.7922 -1.0428  2.0864
57259SOL    HW278893   1.904   5.734   6.883 -0.5976  1.4062 -0.4173
57260SOL     OW78894   7.620   3.358   6.738  0.3498 -0.1696 -0.0227
57260SOL    HW178895   7.537   3.319   6.767  0.4239  0.0992  0.5658
57260SOL    HW278896   7.655   3.295   6.675 -1.4420  0.8222 -2.1489
57261SOL     OW78897   8.406   9.482   3.042  0.1358 -0.0662 -0.0426
57261SOL    HW178898   8.408   9.553   2.978 -0.6206  0.9203  1.0048
57261SOL    HW278899   8.447   9.408   2.996 -0.5430  0.5485 -1.7321
57262SOL     OW78900  12.184   3.973   7.071  0.2315 -0.0368 -0.2253
57262SOL    HW178901  12.095   3.961   7.106  0.3249 -0.2460 -0.0573
57262SOL    HW278902  12.232   4.014   7.143  0.1753  0.4207 -0.4469
57263SOL     OW78903   7.774   6.564   1.129  0.0749 -0.7027 -0.4840
57263SOL    HW178904   7.682   6.591   1.123 -0.6883 -2.5864  1.5938
57263SOL    HW278905   7.815   6.602   1.051 -2.3747  0.4571 -1.3042
57264SOL     OW78906  11.337   7.419   4.531 -0.1902 -0.0523 -0.1063
57264SOL    HW178907  11.402   7.462   4.475 -0.9855  3.4913  1.3547
57264SOL    HW278908  11.290   7.492   4.572 -2.9150 -2.4460  1.4043
57265SOL     OW78909   3.810   1.016   9.289  0.0783 -0.5536 -0.5075
57265SOL    HW178910   3.881   0.953   9.285 -0.3006 -1.0530  0.4442
57265SOL    HW278911   3.832   1.073   9.362 -0.8042 -1.1120  0.2203
57266SOL     OW78912   2.771  10.925   1.674  0.1767 -0.3833 -0.3151
57266SOL    HW178913   2.838  10.968   1.726 -0.0330  2.8524 -2.4315
57266SOL    HW278914   2.812  10.911   1.588 -0.7905 -1.6123 -0.6127
57267SOL     OW78915  10.084  11.613   4.321  0.1886  0.4474  0.1857
57267SOL    HW178916  10.003  11.646   4.281  0.8392 -0.1561 -1.7357
57267SOL    HW278917  10.062  11.523   4.347  0.7138 -0.3906 -2.0584
57268SOL     OW78918   9.661   5.912  11.740  0.0186 -0.4933 -0.0674
57268SOL    HW178919   9.669   6.003  11.711  0.3477 -0.6679 -0.5595
57268SOL    HW278920   9.624   5.866  11.664 -0.5775 -0.6893  0.3352
57269SOL     OW78921   2.175  12.609   4.433 -0.0443  0.4820 -0.5781
57269SOL    HW178922   2.221  12.673   4.488 -0.6307  1.1413 -0.8379
57269SOL    HW278923   2.095  12.654   4.406 -1.6484 -1.1730  1.1158
57270SOL     OW78924   1.495   4.407   9.706  0.0977  0.0954  0.4388
57270SOL    HW178925   1.468   4.318   9.728  0.4759 -0.0234  0.4264
57270SOL    HW278926   1.465   4.459   9.780  0.3511 -0.1263  0.6997
57271SOL     OW78927   3.846   5.501   7.698  0.1519 -0.1423 -0.0959
57271SOL    HW178928   3.802   5.467   7.621 -1.1385  0.5159  0.3152
57271SOL    HW278929   3.939   5.506   7.674 -0.1292 -0.6565 -1.3206
57272SOL     OW78930   7.669   3.950   4.352  0.5323 -0.1537  0.2535
57272SOL    HW178931   7.748   3.950   4.406  0.2349  0.3445  0.6991
57272SOL    HW278932   7.640   3.859   4.352 -1.4317  0.2797  3.9074
57273SOL     OW78933   0.474  12.182   7.271  0.0391  0.1310 -0.6287
57273SOL    HW178934   0.405  12.171   7.205  0.6059  0.3810 -1.2704
57273SOL    HW278935   0.512  12.268   7.252  2.0141 -0.9091 -1.7025
57274SOL     OW78936   0.375   3.264   3.168  0.2385  0.0606  0.1190
57274SOL    HW178937   0.391   3.298   3.080 -1.4434 -0.6446 -0.4908
57274SOL    HW278938   0.311   3.195   3.156  0.1604 -0.2108  1.8840
57275SOL     OW78939   8.707  11.382   2.782  0.6010  0.2217  0.6799
57275SOL    HW178940   8.766  11.394   2.707  1.5217 -1.3360  1.0888
57275SOL    HW278941   8.748  11.312   2.833 -1.4524 -0.7083  1.1543
57276SOL     OW78942   0.817   9.481   3.258 -0.2439  0.0132 -0.2466
57276SOL    HW178943   0.852   9.394   3.237  1.5727  0.1367  1.8766
57276SOL    HW278944   0.723   9.468   3.267 -0.0040 -1.7377  0.0050
57277SOL     OW78945  12.512   8.770  11.372  0.2280  0.0485  0.1045
57277SOL    HW178946  12.530   8.713  11.297 -0.2174  0.3093 -0.2012
57277SOL    HW278947  12.594   8.769  11.422 -0.0532 -1.5972  0.6081
57278SOL     OW78948   4.946   4.953   2.685  0.2164  0.3227  0.0994
57278SOL    HW178949   4.956   4.924   2.776  0.0817 -0.1889 -0.0425
57278SOL    HW278950   4.965   4.875   2.633 -1.2936  0.1593 -0.2647
57279SOL     OW78951   2.624  12.403   8.090 -0.0948  0.3720 -0.1452
57279SOL    HW178952   2.530  12.410   8.108 -0.1043 -0.7102  0.3322
57279SOL    HW278953   2.666  12.435   8.170 -0.0360  1.1669 -0.4812
57280SOL     OW78954   8.912   7.496   3.075 -0.5883 -0.1641 -0.1189
57280SOL    HW178955   8.968   7.429   3.115 -1.2034 -0.2939  0.5493
57280SOL    HW278956   8.963   7.577   3.080 -0.9571  0.0113  1.7363
57281SOL     OW78957   7.789   1.095  12.829 -0.5517 -0.0761  0.0327
57281SOL    HW178958   7.833   1.139  12.757  0.5230 -3.0909 -1.3517
57281SOL    HW278959   7.859   1.075  12.892 -0.5208 -1.7722 -0.4916
57282SOL     OW78960   0.009  12.375   1.520 -0.1580 -0.0696 -0.2321
57282SOL    HW178961   0.015  12.280   1.509 -1.0947 -0.1771  0.0377
57282SOL    HW278962  -0.015  12.387   1.612  0.0445  0.4301 -0.2425
57283SOL     OW78963   5.961   9.043   7.150  0.5589  0.0719  0.5141
57283SOL    HW178964   5.976   8.957   7.110 -0.5673  0.4103 -0.6872
57283SOL    HW278965   5.994   9.034   7.240 -1.1950 -2.1931  1.0155
57284SOL     OW78966   5.156   3.367  10.549  0.5292  0.0356  0.0998
57284SOL    HW178967   5.066   3.392  10.572  1.2192  2.6759  0.3137
57284SOL    HW278968   5.159   3.375  10.453  0.5820  0.1280  0.1092
57285SOL     OW78969  11.475   4.234   2.038  0.5122  0.0071  0.0484
57285SOL    HW178970  11.522   4.304   1.994  1.5350 -0.9166 -0.3671
57285SOL    HW278971  11.392   4.227   1.990  1.1441 -0.2371 -1.0469
57286SOL     OW78972   2.739   8.740   6.758 -0.1401 -0.0188 -0.1359
57286SOL    HW178973   2.651   8.703   6.766 -0.5674  0.5817 -1.7334
57286SOL    HW278974   2.733   8.826   6.799 -0.0345 -0.3396  0.5729
57287SOL     OW78975   9.405  11.808   5.389 -0.3053 -0.1024 -0.6639
57287SOL    HW178976   9.461  11.856   5.328  0.0653 -0.2207 -0.4168
57287SOL    HW278977   9.409  11.717   5.358  0.7085 -0.3505  0.1350
57288SOL     OW78978   2.555   0.544   2.796  0.9230 -0.0720  0.0404
57288SOL    HW178979   2.510   0.466   2.827 -0.6798  0.6661 -0.2863
57288SOL    HW278980   2.488   0.591   2.746  2.1576  0.9725 -0.6841
57289SOL     OW78981  11.104   3.304   2.923  0.3082 -0.0743  0.7683
57289SOL    HW178982  11.182   3.358   2.935  1.6486 -1.8696  0.5489
57289SOL    HW278983  11.108   3.239   2.992 -1.5544  0.3604  1.3518
57290SOL     OW78984  10.388   5.676  12.257  0.7833  0.3656 -0.1155
57290SOL    HW178985  10.426   5.634  12.335  3.2963  3.4251  0.5335
57290SOL    HW278986  10.304   5.710  12.288  1.8093  1.6790  1.3958
57291SOL     OW78987  12.709   1.675   5.179 -0.5099  0.1834  0.1109
57291SOL    HW178988  12.738   1.625   5.103 -1.4694 -0.5172  0.1835
57291SOL    HW278989  12.731   1.620   5.254  3.5220  2.2619  0.7311
57292SOL     OW78990   8.769   9.646   0.478  0.6888  0.1383  0.2979
57292SOL    HW178991   8.702   9.705   0.512  0.8122  0.9069 -0.7453
57292SOL    HW278992   8.725   9.598   0.407  1.3691  1.0831 -0.8057
57293SOL     OW78993   0.663   9.585   6.509 -0.4396  0.1802  0.1296
57293SOL    HW178994   0.740   9.605   6.455  0.6407 -0.5936  1.3215
57293SOL    HW278995   0.589   9.597   6.451  0.7142 -1.6238 -1.8465
57294SOL     OW78996   9.963   7.674   3.810  0.0273 -0.6438 -0.1070
57294SOL    HW178997  10.054   7.646   3.808  0.1337 -0.2679 -0.5666
57294SOL    HW278998   9.915   7.604   3.766  0.0108 -1.1172  0.6370
57295SOL     OW78999  10.270   4.140   3.653 -0.2587 -0.1418  0.3812
57295SOL    HW179000  10.349   4.143   3.707 -0.2907  0.5064  0.3929
57295SOL    HW279001  10.292   4.191   3.575 -0.7778  0.3384  0.5421
57296SOL     OW79002   3.428   7.402   2.666 -0.2499 -0.1366  0.5608
57296SOL    HW179003   3.480   7.441   2.736 -1.8340  1.2550  1.0018
57296SOL    HW279004   3.492   7.353   2.614  1.1513 -0.2023  2.2544
57297SOL     OW79005  11.959  10.091   3.627 -0.1207  0.4779  0.1441
57297SOL    HW179006  11.894  10.139   3.577  1.1380  1.9573 -0.1555
57297SOL    HW279007  12.006  10.158   3.677  1.3418 -0.4775  0.1361
57298SOL     OW79008  11.381  11.636   3.805  0.1694 -0.2825 -0.0268
57298SOL    HW179009  11.398  11.700   3.874 -0.2667  0.3014 -0.4514
57298SOL    HW279010  11.406  11.552   3.843  1.7408  0.2470  0.1778
57299SOL     OW79011   0.193   4.996   1.781  0.3328  0.4719  0.2752
57299SOL    HW179012   0.198   4.901   1.780  2.9246  0.5068  1.2257
57299SOL    HW279013   0.228   5.023   1.696  0.4871  0.5624  0.3646
57300SOL     OW79014   6.025   7.618  11.711 -0.3127  0.5584  0.3146
57300SOL    HW179015   6.038   7.677  11.785  0.3077  0.1723  0.5182
57300SOL    HW279016   5.983   7.541  11.749  0.8164 -0.0125  0.4343
57301SOL     OW79017  12.507   2.334  11.410  0.2246  0.1446 -0.2016
57301SOL    HW179018  12.568   2.380  11.468  0.1385  0.6297 -0.4932
57301SOL    HW279019  12.516   2.242  11.435  0.4276  0.3117  0.3579
57302SOL     OW79020   2.607  11.758   0.155  0.4828  0.0533 -0.2424
57302SOL    HW179021   2.545  11.733   0.086  0.8295 -1.3373 -0.0592
57302SOL    HW279022   2.551  11.784   0.229  0.1148 -0.2923 -0.3967
57303SOL     OW79023   0.758   7.105   2.724  0.3224 -0.0533  0.4177
57303SOL    HW179024   0.755   7.047   2.649 -1.7340  0.1211  0.3066
57303SOL    HW279025   0.672   7.096   2.766 -0.2048  2.9937  0.2732
57304SOL     OW79026   3.934   2.089  11.903  0.3574  0.2206 -0.3480
57304SOL    HW179027   3.923   2.092  11.998 -0.4700  0.1625 -0.4353
57304SOL    HW279028   4.026   2.066  11.890  1.1541  2.6219  0.4255
57305SOL     OW79029  10.772   3.214   4.281  0.5498  0.7918  0.2429
57305SOL    HW179030  10.771   3.310   4.286 -0.8896  0.7377  2.0606
57305SOL    HW279031  10.844   3.187   4.337 -0.1489  0.7883  1.1565
57306SOL     OW79032  10.055   9.322   3.126  0.0343 -0.0402 -0.4590
57306SOL    HW179033  10.127   9.365   3.171  0.9449 -0.6927 -1.2440
57306SOL    HW279034  10.005   9.393   3.086 -0.1016  0.4567  0.5711
57307SOL     OW79035  10.140  11.144  10.028  0.2896  0.1969  0.3080
57307SOL    HW179036  10.113  11.064  10.074 -0.1486  1.6308  2.7362
57307SOL    HW279037  10.225  11.166  10.066 -1.2769  2.8977  2.6593
57308SOL     OW79038   0.106   2.041   8.670 -0.5284  0.7085  0.1499
57308SOL    HW179039   0.084   1.969   8.611  0.3801 -0.0282  0.6896
57308SOL    HW279040   0.061   2.019   8.752  1.6041 -0.5080  1.0748
57309SOL     OW79041   5.381  11.592  12.499  0.1171  0.1522  0.2237
57309SOL    HW179042   5.402  11.676  12.540  0.4759  0.7306 -1.0928
57309SOL    HW279043   5.403  11.604  12.407 -0.5744 -1.1384 -0.1368
57310SOL     OW79044   6.973   9.896  11.355  0.1627  0.0281 -0.1200
57310SOL    HW179045   6.965   9.982  11.313 -0.0050  0.4404  0.7220
57310SOL    HW279046   7.017   9.915  11.438  0.9417 -0.8343 -0.3243
57311SOL     OW79047  11.841   5.651   5.247  0.5380 -0.2904 -0.2104
57311SOL    HW179048  11.825   5.616   5.334  1.9380  1.3395  0.7744
57311SOL    HW279049  11.921   5.608   5.218  0.9342  0.3048 -0.0142
57312SOL     OW79050  10.985  12.375   8.067 -0.5607 -0.3767  0.4821
57312SOL    HW179051  10.906  12.421   8.096  0.2013  1.0836  0.3652
57312SOL    HW279052  11.019  12.333   8.146  0.5542  2.1405  1.4544
57313SOL     OW79053  12.454   2.034  10.676  0.6170 -0.0333  0.8305
57313SOL    HW179054  12.435   1.945  10.648  0.4749 -0.2943  1.7164
57313SOL    HW279055  12.451   2.030  10.772 -0.7347  1.2010  0.8725
57314SOL     OW79056  12.600   4.828   5.778  0.3813  0.0631 -0.0471
57314SOL    HW179057  12.622   4.855   5.689 -0.5770 -0.1668 -0.3658
57314SOL    HW279058  12.561   4.906   5.818 -0.1888 -0.1410 -0.1914
57315SOL     OW79059   8.488   1.666   4.249 -0.4050  0.0841  0.4302
57315SOL    HW179060   8.576   1.638   4.224  0.1235  0.6712  1.6014
57315SOL    HW279061   8.501   1.737   4.311 -1.7291  1.4494 -0.7635
57316SOL     OW79062  11.104  12.021  10.484  0.2709 -0.3603 -0.6254
57316SOL    HW179063  11.032  11.984  10.535  0.3888 -0.1038 -0.2619
57316SOL    HW279064  11.063  12.090  10.432  0.1855 -0.4813 -0.7197
57317SOL     OW79065   0.514   0.441  12.850 -0.0846 -0.2996 -0.0504
57317SOL    HW179066   0.432   0.482  12.822 -1.5414 -0.3272  3.6354
57317SOL    HW279067   0.559   0.510  12.899  1.6207 -0.6273 -1.0901
57318SOL     OW79068   1.141  10.023   3.837  0.1598  0.3791  0.5851
57318SOL    HW179069   1.129   9.984   3.923  0.6951  0.7241  0.8194
57318SOL    HW279070   1.178  10.109   3.854  0.6736  0.2863 -0.0034
57319SOL     OW79071  12.428   1.467   4.913 -0.2632 -0.2894  0.2449
57319SOL    HW179072  12.403   1.380   4.943  0.3398 -0.4780  0.2054
57319SOL    HW279073  12.351   1.522   4.931 -2.1192 -1.5200 -3.0415
57320SOL     OW79074   9.367   5.508  11.015 -0.0190 -0.1931  0.1731
57320SOL    HW179075   9.427   5.479  10.946  0.2375 -0.6445  0.5748
57320SOL    HW279076   9.297   5.553  10.969  1.0650  1.1459 -0.2496
57321SOL     OW79077  10.619   9.332   0.833  0.1456 -0.3005 -0.3306
57321SOL    HW179078  10.638   9.375   0.750 -0.2158  1.1537  0.3022
57321SOL    HW279079  10.548   9.270   0.813  0.6896 -0.6274 -1.2669
57322SOL     OW79080   4.786   4.867  12.151 -0.4901 -0.3570  0.1077
57322SOL    HW179081   4.860   4.868  12.212  1.1339  1.0755 -1.7759
57322SOL    HW279082   4.766   4.960  12.136 -3.4699 -0.6731  1.3904
57323SOL     OW79083   4.701  10.293   2.084 -0.2463  0.3099  0.8359
57323SOL    HW179084   4.669  10.230   2.148  0.2639 -0.6689  0.1503
57323SOL    HW279085   4.627  10.309   2.026 -0.2054 -0.1602  0.6430
57324SOL     OW79086  12.564   1.287  11.864 -0.3284  0.1437  0.3262
57324SOL    HW179087  12.559   1.312  11.956 -1.1899  1.9887 -0.1735
57324SOL    HW279088  12.607   1.361  11.822 -1.5691  0.1281 -1.0272
57325SOL     OW79089   1.726   9.693   1.284  0.2594 -0.2839 -0.1600
57325SOL    HW179090   1.778   9.706   1.364  0.2318  0.7612 -0.2957
57325SOL    HW279091   1.636   9.685   1.315 -0.3156  3.8322 -0.2130
57326SOL     OW79092   6.603   3.202   0.593 -0.2770 -0.0294  0.2499
57326SOL    HW179093   6.691   3.167   0.576 -0.1212  1.0747 -1.4397
57326SOL    HW279094   6.561   3.203   0.507 -1.5470  0.5449  0.8579
57327SOL     OW79095  10.234   8.267   1.118  0.0864 -0.0394 -0.4005
57327SOL    HW179096  10.327   8.275   1.139 -0.0106 -0.5405  0.2750
57327SOL    HW279097  10.189   8.316   1.188 -0.2389 -1.6910  0.6128
57328SOL     OW79098   0.053   2.143  11.212 -0.1164 -0.1155  0.0374
57328SOL    HW179099  -0.014   2.106  11.269  0.8347 -0.1031  1.1937
57328SOL    HW279100   0.009   2.154  11.128 -1.6777  0.2506  0.8677
57329SOL     OW79101   1.533   5.927  10.730 -0.2595  0.0454 -0.1511
57329SOL    HW179102   1.440   5.907  10.715  0.0228 -0.0967 -1.9105
57329SOL    HW279103   1.548   6.009  10.683  0.7532 -0.5135 -0.8319
57330SOL     OW79104   8.187   8.070   6.181 -0.1756  0.3580 -0.5389
57330SOL    HW179105   8.243   8.136   6.221  1.0018 -0.7576 -0.2831
57330SOL    HW279106   8.105   8.116   6.162 -0.0869  1.4195  1.3981
57331SOL     OW79107   5.356  11.385   3.765 -0.0552 -0.3493 -0.2736
57331SOL    HW179108   5.399  11.457   3.718  0.3332 -1.6045 -1.9389
57331SOL    HW279109   5.263  11.408   3.763  0.0530  0.0801 -0.8645
57332SOL     OW79110   7.163  12.228   4.228 -0.0522  0.3278  0.2550
57332SOL    HW179111   7.196  12.241   4.317 -1.5856 -1.0979  1.0831
57332SOL    HW279112   7.071  12.253   4.233 -0.3137 -0.3623 -0.7890
57333SOL     OW79113   7.264   1.215   4.592 -0.3836  0.4505 -0.4113
57333SOL    HW179114   7.251   1.298   4.638 -0.3034  0.1263  0.2001
57333SOL    HW279115   7.359   1.210   4.580 -0.3203  0.0989  0.2106
57334SOL     OW79116   2.521  10.764   4.025  0.4493  0.5738  0.0352
57334SOL    HW179117   2.435  10.805   4.017 -1.1110 -2.4879 -0.1603
57334SOL    HW279118   2.555  10.795   4.109 -2.6694 -1.1341  2.1142
57335SOL     OW79119   8.150   1.339   4.582 -0.7038  0.1083  0.2096
57335SOL    HW179120   8.205   1.347   4.661 -1.6976 -0.7755  1.0138
57335SOL    HW279121   8.064   1.312   4.615 -0.8712 -1.2823 -1.2779
57336SOL     OW79122   3.629   2.328  10.733  0.1404 -0.8238  0.0349
57336SOL    HW179123   3.570   2.282  10.793 -0.3904 -1.1792 -0.7403
57336SOL    HW279124   3.690   2.375  10.790 -1.3275  0.1436  0.8645
57337SOL     OW79125   6.399   5.293   4.058 -0.4182  0.2569  0.2213
57337SOL    HW179126   6.352   5.264   4.136  1.3681 -0.3799  1.1030
57337SOL    HW279127   6.331   5.331   4.002 -2.2860 -2.1753  0.6531
57338SOL     OW79128   1.193   9.130   7.028 -0.8746 -0.2950 -0.1396
57338SOL    HW179129   1.109   9.109   6.987 -1.0874 -0.9056  0.6045
57338SOL    HW279130   1.172   9.142   7.121 -0.1022 -0.7039  0.0927
57339SOL     OW79131   3.100   5.845   7.763  0.0604  0.4226  0.0324
57339SOL    HW179132   3.087   5.940   7.766 -0.8220  0.3563 -1.1777
57339SOL    HW279133   3.182   5.833   7.716 -0.0177  0.5709 -0.1404
57340SOL     OW79134  12.031  11.511   6.989  0.3361  0.4823  0.5835
57340SOL    HW179135  12.040  11.557   7.072  1.4916  0.1710  0.6472
57340SOL    HW279136  12.119  11.482   6.968 -0.3531 -1.8794  0.6327
57341SOL     OW79137   8.346   7.141   2.520 -0.1620 -0.7710  0.4518
57341SOL    HW179138   8.285   7.081   2.476  0.5045 -1.8676  0.9591
57341SOL    HW279139   8.386   7.087   2.589  2.0498 -0.3861 -0.4425
57342SOL     OW79140   8.672   9.671   1.444  0.2016 -0.1501 -0.1346
57342SOL    HW179141   8.623   9.589   1.452  2.0106 -1.3424 -0.7434
57342SOL    HW279142   8.670   9.691   1.350 -0.3503  0.5971  0.0291
57343SOL     OW79143   9.274  11.236   8.588 -0.7768  0.1015  0.2242
57343SOL    HW179144   9.262  11.307   8.651 -0.8644  0.1794  0.1187
57343SOL    HW279145   9.332  11.272   8.521  0.2084 -0.3232  0.8143
57344SOL     OW79146   1.622   8.829   9.652 -0.3366  0.6273 -0.2375
57344SOL    HW179147   1.663   8.794   9.573 -0.0531  1.0725 -0.2915
57344SOL    HW279148   1.550   8.769   9.671  0.2639 -0.0965 -0.2143
57345SOL     OW79149   2.223   2.279  12.255 -0.5572  0.1873  0.6660
57345SOL    HW179150   2.148   2.299  12.311 -2.0283  0.5054 -1.3159
57345SOL    HW279151   2.208   2.190  12.225  1.3929 -0.8481  2.4257
57346SOL     OW79152   0.994   0.581  11.648  0.2706 -0.6364  0.2861
57346SOL    HW179153   0.961   0.491  11.659  1.1158 -0.9411  0.4367
57346SOL    HW279154   0.928   0.624  11.595 -1.2175 -0.7276  1.9583
57347SOL     OW79155   7.410   3.217   8.927 -0.4916 -0.0646 -0.3361
57347SOL    HW179156   7.384   3.125   8.924  0.6135 -0.5740  2.3076
57347SOL    HW279157   7.334   3.265   8.896 -2.2473 -1.7723  1.0713
57348SOL     OW79158   4.308  11.536   4.301  0.3122  0.1309  0.0790
57348SOL    HW179159   4.364  11.594   4.353  2.0857 -1.0075 -0.4671
57348SOL    HW279160   4.286  11.588   4.223  1.2890  0.3288 -0.0742
57349SOL     OW79161   5.987   7.570   8.520 -0.3995 -0.0032 -0.3218
57349SOL    HW179162   6.076   7.585   8.550 -0.5593  0.1402  0.0839
57349SOL    HW279163   5.996   7.506   8.449 -0.1859 -2.0074  1.3925
57350SOL     OW79164   4.202   7.340  12.614 -0.1853 -0.0895 -0.3823
57350SOL    HW179165   4.129   7.366  12.557 -0.8720 -4.0152 -1.5718
57350SOL    HW279166   4.161   7.308  12.694  0.7175  3.6839  1.8725
57351SOL     OW79167   6.695   2.879   2.764  0.4128  0.5513  0.4549
57351SOL    HW179168   6.699   2.877   2.668 -1.4357 -0.3485  0.3464
57351SOL    HW279169   6.732   2.964   2.788  2.1487  0.2447 -0.9479
57352SOL     OW79170   8.742   5.024   2.096  0.2901  0.4306 -0.7281
57352SOL    HW179171   8.650   5.027   2.124  0.4967  1.3364 -0.0979
57352SOL    HW279172   8.771   4.935   2.118 -0.2346  0.3678 -0.2719
57353SOL     OW79173   9.256   0.625   2.051 -0.4190  0.3413  0.7011
57353SOL    HW179174   9.251   0.704   2.104  0.0282  0.6385  0.3096
57353SOL    HW279175   9.175   0.577   2.071 -1.9702  2.1032 -0.9740
57354SOL     OW79176  11.334   7.016  11.689 -0.3434 -1.0256  0.6496
57354SOL    HW179177  11.330   7.005  11.594 -0.2949  1.4662  0.3013
57354SOL    HW279178  11.304   6.932  11.724 -1.4084 -1.6345 -1.5553
57355SOL     OW79179   9.151  12.732  12.652 -0.5718  0.0003 -0.3585
57355SOL    HW179180   9.212  12.752  12.723 -0.2384  1.2368 -0.9848
57355SOL    HW279181   9.142  12.636  12.655 -1.4763  0.0970  2.0841
57356SOL     OW79182   2.368   5.479   2.107  0.2193 -0.3154 -0.0870
57356SOL    HW179183   2.280   5.468   2.144  0.1147 -0.4897 -0.3832
57356SOL    HW279184   2.412   5.396   2.125  0.6952  0.1579  1.0300
57357SOL     OW79185  10.016  12.319   4.196 -0.3009 -0.6561  0.3849
57357SOL    HW179186  10.054  12.374   4.265 -1.7884 -0.6576  1.2320
57357SOL    HW279187   9.932  12.360   4.175  0.4778 -0.1292 -2.1140
57358SOL     OW79188  12.182   1.809   3.078 -0.4226 -0.0413  0.0880
57358SOL    HW179189  12.138   1.812   3.163 -0.0825 -2.0942  0.3948
57358SOL    HW279190  12.222   1.895   3.068 -0.1011  0.1026  2.2062
57359SOL     OW79191   3.374  12.389   4.608  0.4991 -0.2766 -0.2022
57359SOL    HW179192   3.456  12.348   4.583  1.4647  1.6674 -0.4122
57359SOL    HW279193   3.400  12.464   4.663 -1.1776 -0.1092  0.4323
57360SOL     OW79194   7.972   8.800   2.583  0.5499  1.0139 -0.0137
57360SOL    HW179195   8.011   8.867   2.638  3.8446 -0.3891 -0.3997
57360SOL    HW279196   7.973   8.838   2.495  0.8592  1.0768  0.0152
57361SOL     OW79197   6.706  12.884   8.596  0.2223 -0.1634 -0.1037
57361SOL    HW179198   6.623  12.913   8.634 -0.3108 -1.1297 -0.4955
57361SOL    HW279199   6.685  12.800   8.555  0.9096  0.5287 -1.9688
57362SOL     OW79200  11.797   4.208   6.139 -0.4800 -0.4866 -0.8177
57362SOL    HW179201  11.767   4.224   6.228  1.7701  1.0221 -0.2388
57362SOL    HW279202  11.738   4.260   6.084 -0.8442 -0.0708 -0.0475
57363SOL     OW79203   8.954   1.665  12.888 -0.3883 -0.1157 -0.2354
57363SOL    HW179204   8.912   1.590  12.846  0.1987 -0.1021 -0.8708
57363SOL    HW279205   8.898   1.686  12.962 -1.1505 -0.4899 -0.6986
57364SOL     OW79206  10.837   9.376   4.462 -0.5372 -0.3913  0.2304
57364SOL    HW179207  10.900   9.305   4.455  0.0552  0.1807 -0.5074
57364SOL    HW279208  10.833   9.398   4.555  0.9169  0.0553  0.2016
57365SOL     OW79209  11.562   3.672   0.979 -0.1543  0.2361 -0.4110
57365SOL    HW179210  11.549   3.636   1.066 -3.0992  2.5777  0.2895
57365SOL    HW279211  11.607   3.755   0.995  1.4088 -0.3801 -1.4126
57366SOL     OW79212  11.017   6.441   7.875 -0.0658 -0.3261  0.0940
57366SOL    HW179213  11.040   6.356   7.836 -0.2974 -0.2737 -0.1627
57366SOL    HW279214  10.921   6.443   7.872 -0.0234  0.5580 -1.2184
57367SOL     OW79215  12.492   0.758   5.877  0.4596 -0.5419 -0.3119
57367SOL    HW179216  12.522   0.806   5.800  1.6662 -1.5314 -0.4912
57367SOL    HW279217  12.459   0.825   5.937 -1.9815  0.1515 -2.2712
57368SOL     OW79218  10.248   2.840   1.494 -0.1036 -0.8383 -0.3874
57368SOL    HW179219  10.226   2.829   1.586  0.5594  1.5343  0.1069
57368SOL    HW279220  10.172   2.884   1.455  1.2620  2.1952  0.0879
57369SOL     OW79221   4.556   5.627   0.390  0.0058  0.2975 -0.3450
57369SOL    HW179222   4.465   5.602   0.381  0.1225 -0.6022  0.7228
57369SOL    HW279223   4.560   5.672   0.475  0.2965  1.6683 -1.0497
57370SOL     OW79224   2.600   9.348   8.430  0.1795 -0.0257  0.1811
57370SOL    HW179225   2.673   9.370   8.373 -0.2790  1.6876  0.1828
57370SOL    HW279226   2.637   9.348   8.519  0.3265  0.0888  0.1190
57371SOL     OW79227   4.414   5.359   8.514 -0.0513 -0.0367 -0.5578
57371SOL    HW179228   4.460   5.281   8.547  0.3095 -0.2474 -1.5074
57371SOL    HW279229   4.329   5.326   8.485  1.0818 -0.6979 -3.5384
57372SOL     OW79230   8.914   0.629   2.179 -0.3495 -0.0546  0.9639
57372SOL    HW179231   8.970   0.661   2.250 -1.7156  1.8379  1.2777
57372SOL    HW279232   8.932   0.688   2.106 -1.2968  0.0670  0.8117
57373SOL     OW79233  11.903   4.388   0.869  0.1462 -0.3774 -0.1466
57373SOL    HW179234  11.982   4.441   0.869 -0.1693  0.0970 -0.4026
57373SOL    HW279235  11.835   4.446   0.904 -1.1368  0.8409 -4.1002
57374SOL     OW79236   8.102  11.194   2.846 -0.5668 -0.3907 -1.2409
57374SOL    HW179237   8.163  11.212   2.775 -1.9216  0.9075 -2.1398
57374SOL    HW279238   8.130  11.252   2.917 -1.1392  0.7280 -1.9005
57375SOL     OW79239   6.586   9.989   4.411  0.1026  0.2086 -0.3278
57375SOL    HW179240   6.594  10.031   4.326  1.2619 -0.6697 -0.6753
57375SOL    HW279241   6.670   9.945   4.424 -0.3714 -0.3771  0.8896
57376SOL     OW79242   1.241   3.921   2.250 -0.0808  0.0086 -0.2497
57376SOL    HW179243   1.241   3.873   2.167  0.4187 -0.8144  0.2208
57376SOL    HW279244   1.258   3.855   2.316  2.6783  1.0970  0.2585
57377SOL     OW79245   3.057   1.501   7.334  0.0845 -0.3372  0.1724
57377SOL    HW179246   2.993   1.473   7.399 -1.1041 -1.0139 -1.2431
57377SOL    HW279247   3.106   1.572   7.378 -0.7599 -0.6727  1.7237
57378SOL     OW79248   3.819   4.128  11.460  0.0869  0.3332  0.8373
57378SOL    HW179249   3.760   4.187  11.414  0.9760 -0.7024 -1.8377
57378SOL    HW279250   3.906   4.166  11.448  0.6439 -1.2670 -0.7063
57379SOL     OW79251   3.169   2.296   7.327 -0.4566  0.4719 -0.1366
57379SOL    HW179252   3.240   2.300   7.391  0.1583  0.4108 -0.7992
57379SOL    HW279253   3.159   2.386   7.297  0.8325  0.1714 -1.6101
57380SOL     OW79254   6.004   8.534   0.379  0.1410  0.4262 -0.3684
57380SOL    HW179255   6.004   8.630   0.379 -0.0982  0.4616 -2.0085
57380SOL    HW279256   6.038   8.509   0.465  1.5781  1.9814 -0.4407
57381SOL     OW79257   1.225   5.833   5.159  0.1660 -0.1794 -0.2757
57381SOL    HW179258   1.189   5.780   5.230  0.2837  0.6861  0.4545
57381SOL    HW279259   1.318   5.840   5.179  0.1060  0.5242 -0.2012
57382SOL     OW79260   0.812   2.181   1.996 -0.0309 -0.3781 -0.2259
57382SOL    HW179261   0.752   2.255   2.000 -1.2308 -1.3361  0.1336
57382SOL    HW279262   0.894   2.218   1.965 -0.1363  1.3707  1.4141
57383SOL     OW79263   2.751   2.917   0.019 -0.0384 -0.6462 -0.2522
57383SOL    HW179264   2.753   2.830   0.058 -0.7385 -0.6827 -0.2983
57383SOL    HW279265   2.836   2.955   0.043 -0.7127 -0.3897  1.9124
57384SOL     OW79266   2.462   1.360  10.813 -0.2336  0.0027 -0.0535
57384SOL    HW179267   2.488   1.366  10.721 -0.7987  0.4133 -0.1935
57384SOL    HW279268   2.528   1.303  10.853  0.6262  0.6663 -0.4847
57385SOL     OW79269   6.336   0.155   8.450 -0.4882  0.7757  0.3260
57385SOL    HW179270   6.247   0.181   8.474 -0.4499  1.2511 -0.0352
57385SOL    HW279271   6.392   0.211   8.503 -0.4031  0.2022  0.8430
57386SOL     OW79272   6.602   4.964  10.788  0.0949 -0.3384  0.1730
57386SOL    HW179273   6.682   5.014  10.807 -0.1992 -0.2797  1.2778
57386SOL    HW279274   6.603   4.954  10.693  2.0699 -1.3965  0.2482
57387SOL     OW79275   2.638   2.258   4.177  0.7108  0.2366 -0.0035
57387SOL    HW179276   2.725   2.220   4.187  0.6100 -0.5836 -1.8785
57387SOL    HW279277   2.578   2.193   4.213  0.7813  0.2191  0.0816
57388SOL     OW79278   8.014   3.517   8.865  0.4639  0.0115 -0.1696
57388SOL    HW179279   7.951   3.510   8.937  0.0262  0.0888 -0.5437
57388SOL    HW279280   8.060   3.433   8.866 -0.5829 -0.5892 -0.7608
57389SOL     OW79281  12.178   2.221   1.323 -0.0422  0.5842 -0.1865
57389SOL    HW179282  12.191   2.302   1.371  0.4128  0.3127  0.1553
57389SOL    HW279283  12.244   2.223   1.253  0.0556  0.4486 -0.0980
57390SOL     OW79284   7.996   1.198  11.797 -0.3316  0.0896  0.0904
57390SOL    HW179285   8.077   1.248  11.798  0.3870 -1.0046 -1.0729
57390SOL    HW279286   8.023   1.107  11.784 -1.6440 -0.5478  1.3747
57391SOL     OW79287   2.623   1.828   0.688 -0.4391 -0.7796 -0.4497
57391SOL    HW179288   2.578   1.782   0.617  0.1754  0.0482 -1.4042
57391SOL    HW279289   2.556   1.842   0.754 -1.2409 -0.8126 -1.2432
57392SOL     OW79290   7.986  11.921  11.257  0.0868  0.2874  0.0223
57392SOL    HW179291   8.030  11.992  11.210 -0.1658 -0.7474 -1.8541
57392SOL    HW279292   7.917  11.964  11.307  0.4829  1.4420 -0.3957
57393SOL     OW79293   7.087   9.293   1.078 -0.7577 -0.2194  0.2303
57393SOL    HW179294   7.133   9.285   1.161 -0.8679 -0.1455  0.2982
57393SOL    HW279295   7.025   9.220   1.077  0.8250 -1.6543 -0.8038
57394SOL     OW79296   7.846  12.183  12.733 -0.1999 -0.5720  0.6654
57394SOL    HW179297   7.832  12.263  12.683  0.6082 -0.6888  0.2386
57394SOL    HW279298   7.916  12.206  12.795  1.6836 -1.5637 -0.9827
57395SOL     OW79299  10.757  11.326   6.975 -0.1647 -0.0405  0.1754
57395SOL    HW179300  10.805  11.247   6.996 -0.4709 -0.2956 -0.0615
57395SOL    HW279301  10.680  11.324   7.032 -0.7080 -0.4522 -0.5531
57396SOL     OW79302   6.255  12.460  11.181 -0.0965  0.6461  0.3091
57396SOL    HW179303   6.345  12.490  11.193  0.0842  0.5513 -0.7293
57396SOL    HW279304   6.259  12.366  11.201 -0.1588  0.8085  1.1340
57397SOL     OW79305   7.398   4.107   9.071  0.1578 -0.1440 -0.0770
57397SOL    HW179306   7.413   4.197   9.097  0.9637 -0.7389  1.6251
57397SOL    HW279307   7.306   4.105   9.045  0.4386  1.4132 -1.3491
57398SOL     OW79308   3.096   4.841   1.717 -0.2559 -0.3460 -0.1971
57398SOL    HW179309   3.174   4.884   1.751 -0.5203 -0.1702  0.1975
57398SOL    HW279310   3.052   4.908   1.666  0.1335 -0.6061 -0.8816
57399SOL     OW79311  12.930   5.379   7.117  0.0716  0.4611 -0.1532
57399SOL    HW179312  12.959   5.308   7.174 -1.2566  0.1113  0.1384
57399SOL    HW279313  12.858   5.341   7.066  0.3739  1.1502 -1.1414
57400SOL     OW79314   2.074   2.145   1.605 -0.0205  0.2108 -0.3008
57400SOL    HW179315   2.094   2.237   1.593  1.0888  0.3523  2.0934
57400SOL    HW279316   1.980   2.138   1.587 -0.3750  2.0453  0.6696
57401SOL     OW79317   0.206   2.278   3.842  0.6138  0.4519  0.1670
57401SOL    HW179318   0.187   2.283   3.748  1.0401  1.8311  0.1350
57401SOL    HW279319   0.182   2.364   3.876 -1.9975 -0.8204  1.8327
57402SOL     OW79320   3.040   5.196   3.051 -0.1820 -0.1442 -0.3425
57402SOL    HW179321   2.951   5.177   3.081 -0.3980 -0.5741 -1.2016
57402SOL    HW279322   3.062   5.280   3.089 -0.0969 -1.0504  1.7224
57403SOL     OW79323  10.522   4.159   8.535 -0.1491 -0.0304 -0.1181
57403SOL    HW179324  10.445   4.214   8.520 -0.5099 -0.1446  1.1976
57403SOL    HW279325  10.577   4.212   8.593  0.1201 -0.5135  0.0675
57404SOL     OW79326   3.227   7.362  10.911  0.1284 -0.3902  0.4026
57404SOL    HW179327   3.134   7.345  10.899 -0.4573  1.0562  2.4634
57404SOL    HW279328   3.270   7.280  10.887 -1.5467 -0.7503 -1.6562
57405SOL     OW79329   5.105   5.862   3.747  0.2409  0.3252 -0.9050
57405SOL    HW179330   5.054   5.885   3.669 -0.1753  0.0704 -0.7107
57405SOL    HW279331   5.133   5.772   3.732  1.3043  0.7193 -1.3630
57406SOL     OW79332  12.629   0.964   2.051 -0.0572  0.1283 -0.4343
57406SOL    HW179333  12.677   0.940   1.972 -0.3646 -1.9859 -0.0451
57406SOL    HW279334  12.687   1.024   2.097  0.7632  0.2253 -1.5571
57407SOL     OW79335   9.310   5.865   9.744 -0.0426 -0.4256 -0.6886
57407SOL    HW179336   9.329   5.949   9.786  1.1891  0.4394 -2.8016
57407SOL    HW279337   9.216   5.866   9.728 -0.6335 -0.9363  2.1866
57408SOL     OW79338   8.456   6.334   6.028 -0.0390  0.3240  0.5255
57408SOL    HW179339   8.461   6.288   5.944 -0.0323  1.2143  0.0176
57408SOL    HW279340   8.475   6.267   6.093  0.4599 -0.2836 -0.2169
57409SOL     OW79341   7.566   6.252  11.411 -0.1755  0.3323 -0.1517
57409SOL    HW179342   7.535   6.343  11.413  0.1526  0.4259  0.6709
57409SOL    HW279343   7.618   6.242  11.490 -0.8905 -0.8240  0.1961
57410SOL     OW79344   8.510   0.078   9.710  0.0873  0.0224 -0.4811
57410SOL    HW179345   8.472   0.156   9.751 -1.6574 -1.0124 -0.0056
57410SOL    HW279346   8.454   0.063   9.633  0.2115 -0.9167 -0.3963
57411SOL     OW79347  10.702   3.522  11.940  0.0569  0.1294 -0.2447
57411SOL    HW179348  10.659   3.602  11.970 -2.2900 -1.0807 -0.1762
57411SOL    HW279349  10.669   3.510  11.851  0.5968 -0.6409 -0.3494
57412SOL     OW79350   7.163   3.162  11.524  0.0775 -0.0574  0.1052
57412SOL    HW179351   7.138   3.248  11.559 -0.7175  0.6406 -2.0118
57412SOL    HW279352   7.084   3.130  11.480  0.9386 -0.9557 -0.8346
57413SOL     OW79353  11.871   9.268   4.323 -0.1887 -0.5764 -0.1489
57413SOL    HW179354  11.825   9.301   4.246  1.0356  0.4353 -0.4825
57413SOL    HW279355  11.857   9.173   4.321 -0.1437 -0.5672 -1.6447
57414SOL     OW79356  12.876  10.884   9.883 -0.1725 -0.1437 -0.3318
57414SOL    HW179357  12.882  10.967   9.835  1.3285 -0.4034 -0.6417
57414SOL    HW279358  12.828  10.906   9.963 -0.6183  0.8148 -0.8504
57415SOL     OW79359   2.402   9.582  11.815 -0.0779  0.3458 -0.2299
57415SOL    HW179360   2.436   9.495  11.833  0.1456  0.5663  0.4383
57415SOL    HW279361   2.441   9.606  11.730 -0.2377 -0.2476 -0.4733
57416SOL     OW79362   9.842   7.498   4.628  0.2824  0.1122 -0.2435
57416SOL    HW179363   9.888   7.581   4.641  0.5885  0.0883 -1.0973
57416SOL    HW279364   9.838   7.487   4.533 -2.0958  0.4584 -0.2574
57417SOL     OW79365  12.351   3.183   4.360  0.0080 -0.3298 -0.0747
57417SOL    HW179366  12.308   3.102   4.330  1.8333 -1.6799  0.7781
57417SOL    HW279367  12.295   3.253   4.326 -1.1830 -1.9089 -1.5938
57418SOL     OW79368  11.577  12.280  10.680 -0.4757 -0.2220  0.1728
57418SOL    HW179369  11.625  12.329  10.613 -2.3038  2.2654  0.5580
57418SOL    HW279370  11.505  12.239  10.633  0.1439 -1.2976  0.1220
57419SOL     OW79371   6.053  11.271   7.394  0.4938  0.1109 -0.1823
57419SOL    HW179372   6.016  11.319   7.319  0.8393  1.0385  0.2232
57419SOL    HW279373   6.069  11.183   7.360 -1.4777 -0.1492 -0.5502
57420SOL     OW79374   4.562   0.764   1.914  0.0130 -0.3579 -0.1941
57420SOL    HW179375   4.611   0.818   1.975  0.8483  0.1791 -1.3096
57420SOL    HW279376   4.471   0.774   1.941  0.3045  0.4023  0.5448
57421SOL     OW79377  12.045   9.692   1.014 -0.0876 -0.4856  0.1295
57421SOL    HW179378  12.117   9.640   1.049  0.3632  0.4356  0.6026
57421SOL    HW279379  12.086   9.776   0.989 -1.2107  0.5927  1.7033
57422SOL     OW79380  11.354   6.391   6.546  0.1235 -0.6863  0.5649
57422SOL    HW179381  11.402   6.402   6.463 -1.9604  0.6101 -0.5658
57422SOL    HW279382  11.343   6.296   6.555  1.3433 -0.9065 -0.0549
57423SOL     OW79383   8.344   0.020   1.245  0.2406  0.6549  0.1180
57423SOL    HW179384   8.316   0.106   1.213 -1.5466  0.4944  1.1651
57423SOL    HW279385   8.419  -0.003   1.189 -0.0163  2.3331 -0.9742
57424SOL     OW79386  10.401   3.776   7.300  0.7522 -0.6121 -0.1528
57424SOL    HW179387  10.306   3.762   7.298  0.6916 -0.2286  0.0134
57424SOL    HW279388  10.438   3.688   7.290  0.3813 -0.7518 -0.3301
57425SOL     OW79389   0.995  10.875   4.287 -0.4684  0.0391 -0.1954
57425SOL    HW179390   0.979  10.783   4.269 -0.8230 -0.1940  1.1902
57425SOL    HW279391   0.907  10.912   4.298 -0.2958  0.2902  0.3781
57426SOL     OW79392   4.063   1.240  11.839  0.2758 -0.1208 -0.6964
57426SOL    HW179393   4.022   1.155  11.856 -0.3268  0.2634 -0.1992
57426SOL    HW279394   4.129   1.249  11.907 -1.9885  1.3190  1.4646
57427SOL     OW79395   1.421   2.667   6.298  0.4287 -0.3109  0.3608
57427SOL    HW179396   1.407   2.620   6.380  0.4215 -0.5140  0.2455
57427SOL    HW279397   1.419   2.598   6.231 -0.4744 -0.0297  0.0987
57428SOL     OW79398   0.490   1.503   8.186  0.1948  0.1051 -0.0612
57428SOL    HW179399   0.404   1.544   8.197  0.2196 -0.1388  1.1276
57428SOL    HW279400   0.544   1.544   8.253  0.9956  0.1985 -0.7527
57429SOL     OW79401   4.248   3.915   3.244 -0.2698 -0.3654 -0.1819
57429SOL    HW179402   4.340   3.942   3.253 -0.5271  0.6163 -0.3655
57429SOL    HW279403   4.201   3.974   3.303 -0.9731  0.2423 -1.3359
57430SOL     OW79404   2.853   1.952   1.420 -0.1628  0.0059 -0.0953
57430SOL    HW179405   2.928   1.989   1.374 -0.7042 -0.9588 -1.8964
57430SOL    HW279406   2.885   1.871   1.458 -0.0116  0.1856  0.1614
57431SOL     OW79407   9.448   5.375   4.504  0.0727  0.5880 -0.5847
57431SOL    HW179408   9.405   5.459   4.487  1.5769  1.6463  0.5226
57431SOL    HW279409   9.382   5.324   4.551 -0.9757  1.0075 -1.5433
57432SOL     OW79410   1.116   7.311   1.969 -0.5030 -0.2876  0.5045
57432SOL    HW179411   1.066   7.240   2.010 -0.9116 -1.3876 -1.6951
57432SOL    HW279412   1.049   7.368   1.930 -0.1229 -0.1112  0.1008
57433SOL     OW79413  10.685   5.700   6.957  0.0577  0.2435  0.3449
57433SOL    HW179414  10.682   5.766   7.027  1.5445  0.2854  0.3875
57433SOL    HW279415  10.760   5.646   6.978  0.2662 -0.0209 -0.9888
57434SOL     OW79416   6.014   4.905   7.908 -0.1789  0.1403  0.1004
57434SOL    HW179417   5.978   4.986   7.873  1.2741  0.5395 -0.5375
57434SOL    HW279418   6.106   4.925   7.924 -0.0483 -1.0655  0.9598
57435SOL     OW79419   7.074   3.435   2.129  0.3877  0.1619 -0.0454
57435SOL    HW179420   7.073   3.421   2.224  3.2548 -2.5394 -0.2782
57435SOL    HW279421   7.071   3.530   2.119 -0.9279  0.5120  2.6576
57436SOL     OW79422  10.528   8.030  11.192  0.1867 -0.2927  0.0998
57436SOL    HW179423  10.591   7.987  11.135  0.0304 -1.0274  0.4779
57436SOL    HW279424  10.445   8.025  11.144  0.2966  0.1767 -0.1459
57437SOL     OW79425  10.297   8.168  10.623 -0.1276  0.4840 -0.1326
57437SOL    HW179426  10.311   8.137  10.712  0.2511  1.2266  0.0680
57437SOL    HW279427  10.345   8.105  10.568 -1.5414 -0.8189  0.0483
57438SOL     OW79428   4.432   1.767   8.100  0.2836  0.4892  0.1820
57438SOL    HW179429   4.526   1.786   8.098  0.1077  1.3779 -0.7928
57438SOL    HW279430   4.411   1.758   8.193  1.5814 -1.1264  0.3763
57439SOL     OW79431   5.245   7.149  10.998  0.0790 -0.3460  0.3909
57439SOL    HW179432   5.157   7.187  10.996  0.5961  1.1447  2.5412
57439SOL    HW279433   5.296   7.210  11.052  2.8321 -0.3625 -1.9665
57440SOL     OW79434  12.854   7.718   9.933  0.5255 -0.0908 -0.4488
57440SOL    HW179435  12.894   7.683  10.012 -0.4192  1.0786  0.6060
57440SOL    HW279436  12.921   7.709   9.865  1.9551  0.3277  0.8598
57441SOL     OW79437   8.076   0.954  11.478  0.2837 -0.2666 -0.1835
57441SOL    HW179438   8.074   0.912  11.392 -0.2338  1.2499 -0.9512
57441SOL    HW279439   8.086   1.047  11.459 -1.3280  0.2769  1.3341
57442SOL     OW79440   9.067  10.319  11.281 -0.6520  0.1842 -0.2505
57442SOL    HW179441   9.088  10.238  11.236  1.5433  0.6036 -0.0718
57442SOL    HW279442   9.046  10.292  11.371  1.8238 -0.0957  0.3035
57443SOL     OW79443  12.883  12.634  10.458  0.1373  0.0244 -0.1543
57443SOL    HW179444  12.881  12.728  10.441  0.9054 -0.2791 -2.2563
57443SOL    HW279445  12.798  12.602  10.428  0.4721 -0.1331 -0.9871
57444SOL     OW79446  11.889   3.464  10.804  0.5314  0.5237 -0.0123
57444SOL    HW179447  11.854   3.392  10.857 -1.4578 -0.1493 -2.0332
57444SOL    HW279448  11.969   3.429  10.765 -1.1523 -1.2805 -2.1202
57445SOL     OW79449  10.195   9.862   9.776  0.0853  0.3220  0.5946
57445SOL    HW179450  10.259   9.796   9.748  0.3436  0.7391  0.1968
57445SOL    HW279451  10.128   9.812   9.823  0.2013 -0.2438  0.1669
57446SOL     OW79452   4.588   6.990   2.153  0.0522  0.8649  0.3808
57446SOL    HW179453   4.635   6.980   2.071  0.5118  0.3992  0.6964
57446SOL    HW279454   4.556   7.080   2.152 -0.4662  0.6774 -0.5814
57447SOL     OW79455   2.599   7.054   8.637  0.7005  0.0159 -0.5478
57447SOL    HW179456   2.584   7.141   8.600  1.4282  0.2995 -0.1891
57447SOL    HW279457   2.624   7.000   8.563  0.9321  0.2801 -0.6626
57448SOL     OW79458   9.999   6.059  10.136  0.0030  0.4123  0.1399
57448SOL    HW179459  10.071   6.000  10.112  0.2050  0.5193  0.4692
57448SOL    HW279460   9.998   6.125  10.067 -1.6317 -1.1641 -1.4407
57449SOL     OW79461  10.569   8.317   1.978 -0.1687  0.2839  0.4945
57449SOL    HW179462  10.579   8.360   1.893 -2.2415 -1.1860 -0.5776
57449SOL    HW279463  10.557   8.389   2.040 -0.0725  1.3546 -0.7009
57450SOL     OW79464   5.677   3.406   8.058  0.0756  0.3359  0.0181
57450SOL    HW179465   5.718   3.483   8.018  0.7805  1.2452  2.3116
57450SOL    HW279466   5.726   3.393   8.140 -2.2004 -0.4654  1.3392
57451SOL     OW79467   9.184   0.794   2.276  0.2223 -0.0546  0.3284
57451SOL    HW179468   9.132   0.837   2.208 -0.3382 -0.6580  0.3613
57451SOL    HW279469   9.190   0.858   2.347  0.9602  0.6456 -0.3489
57452SOL     OW79470   0.634  10.242   6.795  0.1166 -0.0385  0.2061
57452SOL    HW179471   0.539  10.237   6.785  0.1607 -0.5864  0.0600
57452SOL    HW279472   0.654  10.336   6.788 -0.4702  0.1401  0.7714
57453SOL     OW79473   1.781   4.568   0.600 -0.7224  0.2861  0.0611
57453SOL    HW179474   1.711   4.564   0.534 -0.2661 -0.2052 -0.4034
57453SOL    HW279475   1.734   4.565   0.683 -1.3056  0.8196 -0.2357
57454SOL     OW79476  12.819   6.076   0.467  0.3133  0.2142  0.6692
57454SOL    HW179477  12.909   6.044   0.478  0.8207 -0.4224 -3.6448
57454SOL    HW279478  12.821   6.125   0.385 -3.4171 -0.3353  0.0849
57455SOL     OW79479  12.056   9.295   5.372 -0.2688  0.2156 -0.2449
57455SOL    HW179480  12.110   9.362   5.415 -1.6930  0.6634  0.8960
57455SOL    HW279481  12.044   9.328   5.283  0.1354  0.8287 -0.0808
57456SOL     OW79482   3.908  12.412   3.104 -0.0287 -0.4435  0.0981
57456SOL    HW179483   3.909  12.322   3.070 -0.6824 -0.2407 -0.4765
57456SOL    HW279484   3.829  12.416   3.158  1.2544 -0.9103  2.1119
57457SOL     OW79485  12.699   7.559   9.406 -0.1005  0.3118  0.2188
57457SOL    HW179486  12.644   7.540   9.482 -0.0594  0.3866  0.2676
57457SOL    HW279487  12.644   7.538   9.330 -0.9192  2.2312  0.2135
57458SOL     OW79488   2.401  11.497   5.514  0.0288  0.4754 -0.2159
57458SOL    HW179489   2.321  11.447   5.531 -1.1616  0.4044 -4.7826
57458SOL    HW279490   2.373  11.588   5.517  0.1707  0.5206 -0.2871
57459SOL     OW79491   7.766  10.839   8.986 -0.1336 -0.4703  0.1340
57459SOL    HW179492   7.850  10.852   8.942 -0.4321  2.7305  0.2814
57459SOL    HW279493   7.705  10.817   8.915  0.3305 -0.2798 -0.3276
57460SOL     OW79494   6.715   2.017   9.904  0.2157  0.0305 -0.1099
57460SOL    HW179495   6.790   2.072   9.880 -0.4569  1.7611  1.5427
57460SOL    HW279496   6.730   1.993   9.995 -0.6224 -0.6752 -0.1433
57461SOL     OW79497   3.829  11.439   4.943 -0.5857 -0.0071  0.6296
57461SOL    HW179498   3.821  11.464   5.035  0.9481  1.2498  0.4576
57461SOL    HW279499   3.885  11.506   4.904 -0.0212 -1.2977 -0.9019
57462SOL     OW79500  11.802   0.313  10.042 -0.4121  0.6970  0.4780
57462SOL    HW179501  11.867   0.259  10.086  1.3592  2.4353  0.1308
57462SOL    HW279502  11.756   0.359  10.112  1.9348  2.9435  0.6683
57463SOL     OW79503   1.460   9.875   7.648  0.5873  0.1364  0.2562
57463SOL    HW179504   1.369   9.872   7.677  0.8434  0.5331  1.1572
57463SOL    HW279505   1.491   9.785   7.661  0.5856  0.2178  0.8857
57464SOL     OW79506  10.726   9.176   3.825  0.1982 -0.0724 -0.6107
57464SOL    HW179507  10.639   9.136   3.829  1.1909 -2.2710  0.6750
57464SOL    HW279508  10.709   9.270   3.837 -2.1058 -0.1851 -2.2748
57465SOL     OW79509   8.541  11.268   9.755 -0.4260 -0.2589  0.2067
57465SOL    HW179510   8.617  11.210   9.762  0.8632  1.1875 -1.1115
57465SOL    HW279511   8.476  11.216   9.708 -0.0339 -1.2851  0.7517
57466SOL     OW79512   7.366  11.737   7.119  0.7048 -0.2004  0.0877
57466SOL    HW179513   7.317  11.657   7.100  0.5542 -0.1569  0.2892
57466SOL    HW279514   7.299  11.799   7.147  0.7425  0.1823 -0.6435
57467SOL     OW79515  11.952  11.128   4.494 -0.3371 -0.2959 -0.4083
57467SOL    HW179516  12.006  11.051   4.478  0.1267  0.2496 -1.5358
57467SOL    HW279517  12.007  11.186   4.546  0.2134  0.2808 -1.5986
57468SOL     OW79518   5.317   1.468   9.177  0.1354 -0.3041  0.0012
57468SOL    HW179519   5.297   1.538   9.239  0.6807  0.2921 -0.4807
57468SOL    HW279520   5.409   1.481   9.156  0.5994 -1.9616  0.8841
57469SOL     OW79521   3.849  10.666   5.348 -0.9112  0.3542 -0.4120
57469SOL    HW179522   3.920  10.682   5.410 -0.4673 -1.3999 -0.3964
57469SOL    HW279523   3.888  10.682   5.262 -0.5554 -0.3315 -0.3873
57470SOL     OW79524  10.002   7.663   7.724  0.0009  0.8082  0.2884
57470SOL    HW179525   9.951   7.586   7.699  1.2061  0.0797 -0.0288
57470SOL    HW279526  10.024   7.706   7.641  0.1319  0.9597  0.3997
57471SOL     OW79527   3.877   6.062   9.131  0.6912 -0.0073  0.6780
57471SOL    HW179528   3.936   5.995   9.097  0.9840  0.2335  0.7170
57471SOL    HW279529   3.849   6.028   9.217  0.4802 -0.2925  0.4996
57472SOL     OW79530   4.158   8.703  10.669 -0.5786  0.5070 -0.3142
57472SOL    HW179531   4.188   8.673  10.755 -0.4874  1.0673 -0.1499
57472SOL    HW279532   4.212   8.654  10.606 -0.4934  0.2606 -0.0498
57473SOL     OW79533   3.422   8.654   1.524 -0.6694  1.0315  0.3040
57473SOL    HW179534   3.514   8.631   1.536 -0.7108  0.6774 -0.0563
57473SOL    HW279535   3.423   8.733   1.470 -0.6207  0.0703 -1.1477
57474SOL     OW79536   3.730  12.051   5.925  0.1084 -0.0206 -0.3963
57474SOL    HW179537   3.779  12.079   5.847  2.1030  1.1325  1.1918
57474SOL    HW279538   3.772  11.970   5.952 -1.1061 -0.8583 -0.9335
57475SOL     OW79539   2.004   2.356  11.059 -0.2474 -0.4062  0.5607
57475SOL    HW179540   1.960   2.413  10.996 -0.5563  0.5921  1.6303
57475SOL    HW279541   1.995   2.402  11.143  0.4632 -1.5129  1.2728
57476SOL     OW79542  11.961   3.746  11.194  0.6747 -0.6438  0.1966
57476SOL    HW179543  11.913   3.670  11.161 -0.2143  0.7448 -1.8870
57476SOL    HW279544  12.021   3.709  11.260 -1.6911 -2.7523  1.3658
57477SOL     OW79545  11.925   2.896   0.018  0.2647  0.0208  0.2597
57477SOL    HW179546  12.019   2.878   0.020  0.5011  1.2297  1.6109
57477SOL    HW279547  11.905   2.910  -0.075  1.2457 -1.0037 -0.1288
57478SOL     OW79548   0.060   8.407   4.228 -0.0913  0.4621 -0.2243
57478SOL    HW179549   0.091   8.431   4.315  1.6203 -0.3409 -0.5854
57478SOL    HW279550   0.121   8.340   4.197 -0.9391  0.3773 -1.8518
57479SOL     OW79551   1.389   0.122   1.178 -0.1039  0.3503 -0.5259
57479SOL    HW179552   1.331   0.094   1.107  2.2034 -2.2148 -1.5801
57479SOL    HW279553   1.453   0.180   1.136  0.8695 -0.6363 -0.4510
57480SOL     OW79554   4.736   4.402   0.257 -0.0896  0.2502 -0.0025
57480SOL    HW179555   4.669   4.449   0.208 -0.8946 -0.7688  0.1025
57480SOL    HW279556   4.794   4.366   0.190  0.1486  0.8087 -0.1054
57481SOL     OW79557   9.977  11.501   2.683  0.4400 -0.6539  0.0187
57481SOL    HW179558   9.957  11.550   2.763  0.8725 -1.0268  0.3605
57481SOL    HW279559   9.899  11.449   2.666 -0.3132  0.6752 -0.7534
57482SOL     OW79560   5.672   1.462  10.897  0.3837  0.1748  0.7726
57482SOL    HW179561   5.654   1.455  10.803  0.8820  1.0432  0.5953
57482SOL    HW279562   5.768   1.456  10.904  0.4415  1.1850  1.0946
57483SOL     OW79563  10.561   5.771   4.398 -0.5750  0.1030 -0.0877
57483SOL    HW179564  10.590   5.827   4.470 -0.4695  1.6594 -1.2719
57483SOL    HW279565  10.552   5.684   4.437  0.9106  0.5762  1.4353
57484SOL     OW79566   6.132   3.820   6.932  0.0748  0.3650 -0.3634
57484SOL    HW179567   6.164   3.909   6.914  0.8606  0.2658  0.4080
57484SOL    HW279568   6.206   3.764   6.909 -0.2383 -0.0420 -0.3708
57485SOL     OW79569   2.240   8.138   3.116  0.2079 -0.0442  0.1824
57485SOL    HW179570   2.322   8.169   3.154  0.3942 -1.0835  0.6568
57485SOL    HW279571   2.192   8.218   3.095  0.5045  0.5771  1.7119
57486SOL     OW79572  12.509   0.559   1.005 -0.1253  0.3539  0.4847
57486SOL    HW179573  12.570   0.489   1.031 -0.9905  0.0759  1.8579
57486SOL    HW279574  12.438   0.513   0.960  0.2344  0.5825 -0.3342
57487SOL     OW79575   6.259  10.490   7.175  0.5992  0.2888  0.0580
57487SOL    HW179576   6.283  10.467   7.086  0.0632 -0.5928  0.1236
57487SOL    HW279577   6.289  10.416   7.228 -0.3863  0.1179  0.4053
57488SOL     OW79578   9.701   2.135   3.963 -0.1740 -0.1553  0.6951
57488SOL    HW179579   9.730   2.223   3.985 -0.1363  0.2294 -0.7654
57488SOL    HW279580   9.616   2.147   3.922 -0.7856 -0.9406  1.6982
57489SOL     OW79581   1.240  12.244   7.490 -0.1108  0.5901  0.3399
57489SOL    HW179582   1.174  12.242   7.421  0.3271  0.0511 -0.0717
57489SOL    HW279583   1.189  12.254   7.571 -0.7257 -0.0609  0.0502
57490SOL     OW79584   5.408   8.811  12.638 -0.1062  0.2012  0.1089
57490SOL    HW179585   5.342   8.766  12.690  0.4453 -1.6155 -0.6837
57490SOL    HW279586   5.365   8.892  12.609 -1.1764  0.1423  1.4697
57491SOL     OW79587   5.280  11.754   5.118 -1.0996  0.5193 -0.1967
57491SOL    HW179588   5.354  11.728   5.172  0.0588  2.3761 -0.8029
57491SOL    HW279589   5.302  11.723   5.030 -2.1974 -1.0109  0.0215
57492SOL     OW79590  12.469   9.381   7.424  0.7709  0.0611 -0.4767
57492SOL    HW179591  12.505   9.460   7.383 -1.1634 -0.0679 -2.5839
57492SOL    HW279592  12.472   9.400   7.518  1.7362  2.0024 -0.8359
57493SOL     OW79593  11.936   1.227   3.760 -0.3116 -0.5424 -0.2578
57493SOL    HW179594  11.928   1.284   3.837  2.0228 -0.8561  0.2787
57493SOL    HW279595  11.874   1.156   3.777  0.7606 -1.0757  1.7933
57494SOL     OW79596   7.323  11.414   7.872 -0.0820  0.6392 -0.2626
57494SOL    HW179597   7.343  11.416   7.965  2.2677  3.6492 -0.6794
57494SOL    HW279598   7.295  11.503   7.851 -1.3149 -0.1443 -2.3461
57495SOL     OW79599   1.804   3.687  11.384 -0.8270 -0.2924 -0.4514
57495SOL    HW179600   1.865   3.688  11.310 -0.6463  0.8103 -0.2952
57495SOL    HW279601   1.717   3.686  11.342 -0.7615 -2.3294 -0.6787
57496SOL     OW79602   0.186  11.692   0.878 -0.3074 -0.2192  0.6497
57496SOL    HW179603   0.095  11.690   0.848 -0.1702 -0.1982  0.2349
57496SOL    HW279604   0.222  11.608   0.852 -0.0837 -0.0567  0.4324
57497SOL     OW79605  10.045  10.054   4.871  0.1656 -0.3238 -0.2879
57497SOL    HW179606  10.123  10.105   4.893 -0.0413 -0.0662 -0.1481
57497SOL    HW279607   9.998  10.107   4.807 -0.1120 -0.2812 -0.0508
57498SOL     OW79608   1.691   3.067   0.720  0.0623  0.4539 -0.3099
57498SOL    HW179609   1.704   2.999   0.655 -3.0207 -1.0176  0.4101
57498SOL    HW279610   1.637   3.132   0.676 -2.1404 -0.6058  0.6703
57499SOL     OW79611  12.333   3.718   3.582  0.0207  0.4006  0.0841
57499SOL    HW179612  12.315   3.625   3.596 -0.3737  0.6231  1.1486
57499SOL    HW279613  12.260   3.748   3.527  0.1339  0.1007 -0.2422
57500SOL     OW79614  12.911  10.667   1.514 -0.5189  0.5872  0.1379
57500SOL    HW179615  12.935  10.759   1.500 -2.1294  0.9646 -0.4571
57500SOL    HW279616  12.838  10.671   1.577 -1.1490 -0.2103 -0.5195
57501SOL     OW79617  10.641   0.585   3.460 -0.3571  0.2236  0.2512
57501SOL    HW179618  10.667   0.555   3.373 -0.5312 -0.6916  0.4996
57501SOL    HW279619  10.572   0.524   3.487  0.5225 -0.2586  1.5124
57502SOL     OW79620   5.460   2.908   9.993  0.4912  0.4407  0.1418
57502SOL    HW179621   5.512   2.864   9.926  1.5380 -0.6804  1.6253
57502SOL    HW279622   5.370   2.895   9.966  0.8512 -1.0705 -0.4181
57503SOL     OW79623   3.026   6.926   6.870 -0.0354  0.0915 -0.0012
57503SOL    HW179624   3.085   6.852   6.856  0.1305  0.2861 -0.3599
57503SOL    HW279625   2.970   6.900   6.943  0.0146 -0.3904 -0.1351
57504SOL     OW79626   1.451   0.094   5.873  0.0936 -0.7804 -0.3635
57504SOL    HW179627   1.478   0.030   5.806 -0.1765 -0.7829 -0.4723
57504SOL    HW279628   1.420   0.169   5.822 -0.4283 -0.9150 -0.2413
57505SOL     OW79629   0.049   3.115  11.905  0.4099  0.3694 -0.2058
57505SOL    HW179630   0.017   3.204  11.918  0.4142  0.2174  0.9519
57505SOL    HW279631   0.089   3.091  11.989 -2.3994 -1.8665  0.6386
57506SOL     OW79632   3.906   8.372   5.576 -0.0519  0.4008 -0.4146
57506SOL    HW179633   3.822   8.407   5.545 -1.6142 -1.7447  1.1079
57506SOL    HW279634   3.902   8.382   5.671  0.6253 -1.3239 -0.1742
57507SOL     OW79635   2.481   1.332   2.746 -0.1068  0.0429  0.3467
57507SOL    HW179636   2.426   1.271   2.697  0.2713 -0.9895  1.1651
57507SOL    HW279637   2.439   1.341   2.831 -1.0879  2.3038 -0.2995
57508SOL     OW79638   4.614  11.302   0.363  0.1981  0.3063  0.4863
57508SOL    HW179639   4.695  11.278   0.408  0.3806  0.7277  0.3924
57508SOL    HW279640   4.579  11.374   0.416  0.4767  0.8883 -0.1009
57509SOL     OW79641  10.684   1.599   5.310 -0.4364 -0.3203  0.4996
57509SOL    HW179642  10.756   1.646   5.268 -1.0680 -0.2070 -0.4716
57509SOL    HW279643  10.728   1.533   5.364  0.4215  0.4214  0.7479
57510SOL     OW79644  10.557   2.479   8.206 -0.3431 -0.6156 -0.0747
57510SOL    HW179645  10.476   2.469   8.156  0.0046 -0.3941 -0.6939
57510SOL    HW279646  10.622   2.505   8.141 -0.0819  0.6052  0.6326
57511SOL     OW79647   8.311   2.901   5.250  0.1240  0.0733  0.4318
57511SOL    HW179648   8.249   2.953   5.301  0.0425 -1.1331  1.6083
57511SOL    HW279649   8.292   2.923   5.159 -1.1892  0.6495  0.8291
57512SOL     OW79650   8.039   8.503  10.258  0.2733  0.1101  0.4986
57512SOL    HW179651   8.071   8.537  10.174 -2.6313 -2.4409 -1.9002
57512SOL    HW279652   7.962   8.556  10.278 -0.5780 -0.9357  0.0842
57513SOL     OW79653   8.612   2.817   3.351 -0.1295  0.1790 -0.8537
57513SOL    HW179654   8.588   2.853   3.437  0.6374 -1.3684  0.0601
57513SOL    HW279655   8.538   2.762   3.326  0.4372 -0.8889 -0.2484
57514SOL     OW79656   1.381   2.475   0.492 -0.6089 -0.2263 -0.2133
57514SOL    HW179657   1.459   2.444   0.539  0.0690 -1.2601 -1.8978
57514SOL    HW279658   1.377   2.568   0.511  0.0698 -0.4648  1.2388
57515SOL     OW79659   3.427   2.315  12.335 -1.0032  0.1814 -0.9424
57515SOL    HW179660   3.386   2.300  12.250 -1.2044 -0.2471 -0.7739
57515SOL    HW279661   3.493   2.381  12.318 -1.1227  0.1881 -1.4089
57516SOL     OW79662   0.728   6.773  12.073  0.2076  0.5092  0.0105
57516SOL    HW179663   0.679   6.850  12.045 -0.4065  0.2753  0.3969
57516SOL    HW279664   0.668   6.728  12.134 -0.0812 -1.0982 -1.3828
57517SOL     OW79665   0.669  12.729  10.397 -0.3296 -0.0643  0.4064
57517SOL    HW179666   0.640  12.662  10.458 -1.9899  1.5476  1.4940
57517SOL    HW279667   0.613  12.718  10.320 -3.4466  2.3684  2.0881
57518SOL     OW79668   4.511   1.056  11.583  0.3057  0.2402 -0.0558
57518SOL    HW179669   4.561   0.989  11.535  0.4133  0.8292 -0.7887
57518SOL    HW279670   4.425   1.015  11.597 -0.0599  0.3761 -1.6098
57519SOL     OW79671   5.827   7.981  12.862  0.2986 -0.0964 -0.4801
57519SOL    HW179672   5.883   8.011  12.933 -0.3274  0.3135 -0.1463
57519SOL    HW279673   5.796   7.895  12.890 -1.0869  0.6648  0.4271
57520SOL     OW79674   9.158   5.685   9.365  0.3524  0.3633  0.9882
57520SOL    HW179675   9.220   5.670   9.436  1.6115  0.9332  0.0659
57520SOL    HW279676   9.193   5.762   9.319 -1.2746  0.9527  0.6677
57521SOL     OW79677   8.602   2.250   5.008  0.0981 -0.4911 -0.4295
57521SOL    HW179678   8.574   2.288   4.924 -0.2100 -1.6272 -0.8621
57521SOL    HW279679   8.575   2.314   5.074  2.2981  1.4859 -1.3292
57522SOL     OW79680   2.947  11.195   5.975 -0.1795 -0.0219 -0.1106
57522SOL    HW179681   2.997  11.205   6.056 -0.4836  1.1841 -0.0583
57522SOL    HW279682   2.999  11.243   5.910  0.9784 -2.4009 -1.0675
57523SOL     OW79683  12.078  10.934   2.489 -0.1575  0.6877 -0.1659
57523SOL    HW179684  12.140  11.007   2.492  0.1822  0.3911  0.2383
57523SOL    HW279685  12.079  10.905   2.398 -0.2599  1.1538 -0.3191
57524SOL     OW79686  10.705   1.295   6.979  0.6600 -0.1042 -0.1156
57524SOL    HW179687  10.724   1.382   7.014  1.4875 -0.4100  0.2026
57524SOL    HW279688  10.711   1.305   6.884  4.6871 -0.6353 -0.0647
57525SOL     OW79689   6.911   1.502   2.633 -0.0680 -0.0324 -0.4160
57525SOL    HW179690   6.859   1.488   2.713 -0.1806 -1.3581 -0.6858
57525SOL    HW279691   6.955   1.418   2.619  0.7226  0.5007 -1.2125
57526SOL     OW79692  11.716   5.545   1.451 -0.0677 -0.1982  0.2392
57526SOL    HW179693  11.730   5.452   1.469 -1.5976 -0.1275  2.2202
57526SOL    HW279694  11.681   5.580   1.533  1.7743  2.4628  0.0157
57527SOL     OW79695   6.951  10.194  11.513 -0.0277 -0.2029  0.3389
57527SOL    HW179696   6.926  10.181  11.605  1.8775 -0.7295  0.8302
57527SOL    HW279697   7.032  10.244  11.517 -0.7329  1.1354 -1.1449
57528SOL     OW79698   8.364   3.690  10.509 -0.0254 -0.2822 -0.0134
57528SOL    HW179699   8.303   3.726  10.445 -0.0416 -1.3198 -0.5991
57528SOL    HW279700   8.451   3.708  10.472 -0.0199 -0.2349  0.0235
57529SOL     OW79701  10.733  10.810  11.634  0.3899 -0.6152 -0.3322
57529SOL    HW179702  10.684  10.730  11.654  0.0782 -0.2755  0.3143
57529SOL    HW279703  10.750  10.849  11.720 -0.5461  0.6403 -0.6804
57530SOL     OW79704   2.990  12.843   5.706 -0.0217 -0.5024 -0.1651
57530SOL    HW179705   3.067  12.884   5.746 -1.3933  0.3492  1.7869
57530SOL    HW279706   2.950  12.792   5.777 -1.5439 -0.4789 -0.9541
57531SOL     OW79707   6.756   1.670   4.927  0.3699  0.8134 -0.6515
57531SOL    HW179708   6.684   1.698   4.870 -0.4889 -1.4945 -0.7802
57531SOL    HW279709   6.831   1.720   4.895 -0.0832 -0.2925 -3.8333
57532SOL     OW79710   3.532   9.065   9.393 -0.2207 -0.5322  0.3462
57532SOL    HW179711   3.494   9.137   9.343  0.4587 -0.9995 -0.8805
57532SOL    HW279712   3.622   9.092   9.411  0.1438 -1.2093 -0.4234
57533SOL     OW79713   8.076   5.474   2.518  0.5291  0.1234  0.0244
57533SOL    HW179714   8.114   5.436   2.597  0.8492 -2.1661 -1.1471
57533SOL    HW279715   7.990   5.507   2.546  1.2440  0.7449  1.5976
57534SOL     OW79716  10.691  10.251   5.518 -0.2253 -0.3221  0.3906
57534SOL    HW179717  10.675  10.306   5.442 -1.4484  0.2448  1.0263
57534SOL    HW279718  10.779  10.216   5.505 -0.8706 -1.2567 -1.8925
57535SOL     OW79719  11.268   4.337   0.130 -0.0819 -0.2245 -0.2907
57535SOL    HW179720  11.281   4.367   0.040 -0.3631 -1.7230 -0.8567
57535SOL    HW279721  11.350   4.359   0.175 -0.2368  1.2668 -0.6712
57536SOL     OW79722   3.350   2.807   6.879  0.1292  0.5275  0.2680
57536SOL    HW179723   3.273   2.864   6.882 -0.1598  0.1671 -0.2390
57536SOL    HW279724   3.332   2.740   6.945 -1.8900 -1.9110 -2.4874
57537SOL     OW79725  11.980  10.607   4.610  0.1135  0.5307 -0.1932
57537SOL    HW179726  11.910  10.669   4.629 -0.2824 -0.0910  0.4323
57537SOL    HW279727  11.970  10.539   4.676  0.6540 -0.1074 -0.7579
57538SOL     OW79728   2.570   9.843   5.262 -0.6929  0.0517  0.3154
57538SOL    HW179729   2.622   9.836   5.342  0.0870  0.8959 -0.0969
57538SOL    HW279730   2.491   9.891   5.288 -0.1178  0.9418  0.4400
57539SOL     OW79731   4.865   8.977   2.096  0.1354 -0.8870  0.1562
57539SOL    HW179732   4.888   9.016   2.012  0.1091  0.1851  0.6246
57539SOL    HW279733   4.813   8.900   2.074  1.6818 -1.7010 -0.8407
57540SOL     OW79734   9.840   8.698   7.295 -0.5081  0.4042 -0.3196
57540SOL    HW179735   9.778   8.743   7.237  0.6449  0.8727 -1.2340
57540SOL    HW279736   9.885   8.635   7.239 -0.8999 -0.7051  0.5766
57541SOL     OW79737   8.727   7.248   7.291 -0.0840  0.0490 -0.0988
57541SOL    HW179738   8.646   7.198   7.281 -0.4722  0.9842 -2.0981
57541SOL    HW279739   8.739   7.257   7.386 -0.6832 -2.6698  0.3203
57542SOL     OW79740   6.875   1.137   4.835 -0.6829 -0.3907  0.0155
57542SOL    HW179741   6.964   1.107   4.853 -0.2231 -0.1191 -1.6006
57542SOL    HW279742   6.868   1.221   4.881  0.9995  1.0917 -2.1825
57543SOL     OW79743   8.896  10.102  12.657  0.0016 -0.0835 -0.0780
57543SOL    HW179744   8.982  10.128  12.623 -0.8739 -0.8335 -3.1146
57543SOL    HW279745   8.834  10.155  12.607 -1.4696 -2.6676 -1.1400
57544SOL     OW79746   4.517   4.606   3.646 -0.2515 -0.3953 -0.3398
57544SOL    HW179747   4.464   4.678   3.610 -0.5763 -0.1809  0.5368
57544SOL    HW279748   4.477   4.527   3.611 -0.5202 -0.1890 -0.5061
57545SOL     OW79749  10.009   5.648  11.245  0.2295 -0.1536 -0.2098
57545SOL    HW179750  10.030   5.740  11.262 -2.2517  0.6849 -1.2620
57545SOL    HW279751  10.003   5.642  11.149 -1.2622 -0.9810 -0.0958
57546SOL     OW79752  12.958   5.557  12.005 -0.2667 -0.1318 -0.5163
57546SOL    HW179753  13.012   5.636  12.001 -1.2238  0.5058 -1.4850
57546SOL    HW279754  12.958   5.532  12.097  1.0319  0.2920 -0.3749
57547SOL     OW79755   2.537   6.106   3.634  0.2611 -0.1219  0.2351
57547SOL    HW179756   2.614   6.085   3.582 -0.4288 -1.7892 -0.1767
57547SOL    HW279757   2.527   6.201   3.626  1.4911 -0.0641 -0.7868
57548SOL     OW79758  11.993   8.770   6.396 -0.2713 -0.5924 -0.4439
57548SOL    HW179759  11.996   8.751   6.303 -1.7616  0.0512 -0.6529
57548SOL    HW279760  11.910   8.817   6.409  0.7512  0.9742  0.8846
57549SOL     OW79761   0.519  10.615   5.807  0.1293 -0.5703  0.0488
57549SOL    HW179762   0.471  10.609   5.889  1.2593 -1.3591  0.6718
57549SOL    HW279763   0.536  10.708   5.796 -1.1023 -0.3182  0.0474
57550SOL     OW79764   3.808  12.876   1.022  0.0873 -0.1543 -0.5968
57550SOL    HW179765   3.763  12.863   0.939  0.0450 -0.9120 -0.4578
57550SOL    HW279766   3.738  12.891   1.086  0.0390 -1.0552 -0.4314
57551SOL     OW79767   6.135  12.913   3.131 -0.2263 -0.1455  0.3587
57551SOL    HW179768   6.116  13.007   3.135 -2.8276 -0.3450 -3.0325
57551SOL    HW279769   6.049  12.871   3.132  0.7906 -2.3717 -0.2982
57552SOL     OW79770   4.808   5.874   8.334 -0.0386 -0.5395  0.0142
57552SOL    HW179771   4.899   5.900   8.320 -0.2584  0.1353 -0.2258
57552SOL    HW279772   4.799   5.867   8.429 -0.0388  0.5671  0.1089
57553SOL     OW79773   3.603   3.257   5.432  0.6142  0.3688  0.1246
57553SOL    HW179774   3.536   3.322   5.414 -1.0593 -1.5352 -0.9978
57553SOL    HW279775   3.658   3.257   5.354 -0.9260 -1.2309 -1.0586
57554SOL     OW79776   5.525   8.805   0.903  0.4118  0.0292 -0.1177
57554SOL    HW179777   5.538   8.867   0.975  2.4680  0.0333 -0.4450
57554SOL    HW279778   5.435   8.821   0.874  0.0964  1.1638  1.3788
57555SOL     OW79779   4.553   4.078   1.370  0.1020  0.1246 -0.1612
57555SOL    HW179780   4.627   4.100   1.314  1.5561 -1.7606  0.8943
57555SOL    HW279781   4.535   3.986   1.350 -0.1310 -0.2412  1.5445
57556SOL     OW79782   8.374   7.593  11.638  0.2168 -0.0173 -0.1455
57556SOL    HW179783   8.306   7.570  11.702  1.1190 -0.8336  0.5412
57556SOL    HW279784   8.336   7.569  11.554 -1.4432  2.0963 -0.1097
57557SOL     OW79785   8.778   8.242   7.221 -0.0218  0.8151  0.1917
57557SOL    HW179786   8.781   8.333   7.192 -1.3654  0.4134 -1.3445
57557SOL    HW279787   8.693   8.232   7.264 -0.0267  0.2121  0.0582
57558SOL     OW79788   6.935   4.384   9.216 -0.4591 -0.9211 -0.5914
57558SOL    HW179789   7.001   4.322   9.187 -0.7448 -1.5941  0.1425
57558SOL    HW279790   6.949   4.462   9.163  0.9639 -1.0227 -0.4003
57559SOL     OW79791   5.402   8.360   4.791 -0.0996  0.1667  0.0524
57559SOL    HW179792   5.463   8.294   4.823 -1.2011 -0.1592  1.5627
57559SOL    HW279793   5.450   8.443   4.797  0.9897 -0.3638 -1.0373
57560SOL     OW79794  12.447   6.049   4.638  0.0928  0.4418  0.1785
57560SOL    HW179795  12.364   6.080   4.601  0.2235 -0.0293 -0.5173
57560SOL    HW279796  12.493   6.130   4.663 -0.2791  0.7398 -0.0763
57561SOL     OW79797   0.829   2.020   4.987 -0.1536  0.1495 -0.2399
57561SOL    HW179798   0.781   2.102   4.973 -0.1897  0.2980  0.6837
57561SOL    HW279799   0.762   1.952   4.977 -0.1633  0.2336 -0.8192
57562SOL     OW79800   3.300   3.249   0.877 -0.0143  0.1243 -0.1930
57562SOL    HW179801   3.226   3.193   0.900  0.7835 -0.2849  1.4275
57562SOL    HW279802   3.336   3.210   0.797  0.1737 -1.3273  0.5868
57563SOL     OW79803   3.933   7.308   4.783 -0.2154  0.0838 -0.2992
57563SOL    HW179804   3.904   7.388   4.738 -1.0656  0.1216  0.2994
57563SOL    HW279805   3.922   7.239   4.719 -2.0767  0.0272  0.0380
57564SOL     OW79806   1.221  11.682  10.002 -0.8061  0.0148 -0.0672
57564SOL    HW179807   1.194  11.745   9.935 -1.6633  0.8068  0.9878
57564SOL    HW279808   1.305  11.716  10.034 -0.1466 -0.6270 -1.0221
57565SOL     OW79809   6.794   7.587   4.534  0.4783 -0.2374  0.1434
57565SOL    HW179810   6.870   7.622   4.488  0.7240  0.5285  1.0939
57565SOL    HW279811   6.799   7.493   4.522  2.2796 -0.3233  1.2193
57566SOL     OW79812   4.890  12.613   9.361 -0.2725 -0.1814 -0.6044
57566SOL    HW179813   4.982  12.631   9.343 -0.4784  1.0486 -0.5566
57566SOL    HW279814   4.862  12.687   9.416 -1.7295  0.4147 -2.0652
57567SOL     OW79815   0.841   8.876   8.132 -0.0146 -0.5451  0.4446
57567SOL    HW179816   0.862   8.832   8.049  0.1485 -1.2025  0.8227
57567SOL    HW279817   0.766   8.931   8.112  0.0017 -0.7263 -0.1354
57568SOL     OW79818  10.051   6.622   1.295  0.1911  0.4204  0.2481
57568SOL    HW179819   9.993   6.678   1.243  0.4371  0.7046  0.2765
57568SOL    HW279820  10.101   6.684   1.349  1.4768  0.2779 -0.7242
57569SOL     OW79821  10.380   9.308   7.209 -0.3463 -0.2308  0.1021
57569SOL    HW179822  10.289   9.314   7.179 -0.0108  0.8428 -0.7684
57569SOL    HW279823  10.422   9.248   7.148 -0.2819 -0.0977  0.0150
57570SOL     OW79824   0.461   2.895   8.384  0.2140 -0.1767 -0.3354
57570SOL    HW179825   0.549   2.914   8.353  0.0688 -0.9044 -1.2456
57570SOL    HW279826   0.436   2.814   8.339 -0.7800 -0.1796  0.1790
57571SOL     OW79827  10.200   6.249  12.451  0.1194  0.1708 -0.0610
57571SOL    HW179828  10.142   6.210  12.516 -0.1221  2.0756  0.9606
57571SOL    HW279829  10.144   6.265  12.375  0.1241 -1.0100 -0.3257
57572SOL     OW79830  12.346   4.472  11.265 -0.3134  0.7705 -0.1443
57572SOL    HW179831  12.251   4.478  11.251 -0.6762 -0.6887  1.2937
57572SOL    HW279832  12.367   4.380  11.249  0.8781  1.0930 -0.5026
57573SOL     OW79833   5.305   0.822   8.189 -0.0554 -0.1318 -0.1904
57573SOL    HW179834   5.216   0.822   8.156 -0.3271  0.5370  0.5124
57573SOL    HW279835   5.317   0.909   8.228  0.6757 -0.4410  0.3094
57574SOL     OW79836   8.512   4.769   1.762 -0.1573  0.1908 -0.3496
57574SOL    HW179837   8.486   4.780   1.853  2.3266  1.1916  0.3393
57574SOL    HW279838   8.492   4.677   1.742 -0.1318 -0.2298  1.4282
57575SOL     OW79839  12.952   5.596   2.072  0.9499  0.6053  0.2856
57575SOL    HW179840  13.023   5.550   2.117  1.7145  1.1851 -0.2819
57575SOL    HW279841  12.988   5.615   1.985 -0.2672  0.0411 -0.3681
57576SOL     OW79842   1.392  10.261  11.777 -0.2142 -0.4012 -0.1945
57576SOL    HW179843   1.485  10.265  11.796 -0.1485  0.0113 -0.5828
57576SOL    HW279844   1.361  10.351  11.786  0.3148  0.4196 -4.2602
57577SOL     OW79845   6.078  10.749   3.709  0.0400 -0.1213  0.2796
57577SOL    HW179846   6.141  10.709   3.769 -0.7871 -1.1162  0.5027
57577SOL    HW279847   6.089  10.843   3.722  1.3980 -0.2728  0.3873
57578SOL     OW79848   5.625  10.688   7.169  0.4373 -0.6120 -0.6746
57578SOL    HW179849   5.615  10.596   7.195 -1.5669 -0.2294  0.0489
57578SOL    HW279850   5.537  10.716   7.145  1.0077  1.1485 -0.8540
57579SOL     OW79851   7.447   4.808   1.390  0.0481 -0.0589  0.3012
57579SOL    HW179852   7.500   4.824   1.468  1.1944 -0.1602 -0.4274
57579SOL    HW279853   7.451   4.713   1.378  0.1849 -0.0053 -0.0831
57580SOL     OW79854   2.475   8.756  11.304  0.0600 -0.2141  0.5779
57580SOL    HW179855   2.488   8.761  11.209 -2.2818  0.1458  0.2292
57580SOL    HW279856   2.531   8.826  11.339  1.4607 -0.7666 -0.4344
57581SOL     OW79857   5.775   5.253   6.304  0.6163 -0.1142  0.6853
57581SOL    HW179858   5.708   5.270   6.371 -1.9043 -2.4913 -1.0297
57581SOL    HW279859   5.844   5.205   6.350  0.0303  0.2963  2.0326
57582SOL     OW79860   6.376   2.155   4.267 -0.3237  0.4056  0.0695
57582SOL    HW179861   6.438   2.228   4.267  0.1384  0.1111  2.7758
57582SOL    HW279862   6.429   2.077   4.251 -0.3842  0.3895 -0.0563
57583SOL     OW79863   0.724   0.047  11.535 -0.3265 -0.1346  0.2314
57583SOL    HW179864   0.812   0.040  11.497  1.5585 -0.9776  4.1657
57583SOL    HW279865   0.686  -0.040  11.526  2.1987 -1.9531  4.2875
57584SOL     OW79866   4.802   4.015   3.422  0.0984 -0.0620  0.8113
57584SOL    HW179867   4.822   4.008   3.515  1.9244 -1.0937  0.3863
57584SOL    HW279868   4.884   3.993   3.378 -1.3650 -2.1824 -1.0734
57585SOL     OW79869   2.372   6.071   5.316 -0.2995 -0.1279 -0.2130
57585SOL    HW179870   2.392   6.164   5.302 -2.8771  0.8225  1.6490
57585SOL    HW279871   2.432   6.045   5.386  0.2716  0.1716 -0.5765
57586SOL     OW79872   2.146   2.324   8.947 -0.3837 -0.1753  0.4913
57586SOL    HW179873   2.083   2.289   8.884  2.2011 -0.3460 -2.2246
57586SOL    HW279874   2.136   2.419   8.941 -0.3264 -0.1992 -0.0254
57587SOL     OW79875   8.184   4.299   2.405 -0.3820  0.2021  0.6256
57587SOL    HW179876   8.120   4.369   2.391  0.3991  0.9480  0.6504
57587SOL    HW279877   8.144   4.242   2.470 -1.3789  0.1725 -0.0002
57588SOL     OW79878   6.416  11.610   1.488  0.1795 -0.1904 -0.1970
57588SOL    HW179879   6.461  11.543   1.539  2.8720  0.4139 -1.5366
57588SOL    HW279880   6.435  11.588   1.397  0.0937  1.6474 -0.7133
57589SOL     OW79881   9.170   2.854  12.472 -0.7298  0.6140  0.3413
57589SOL    HW179882   9.083   2.830  12.439 -0.7102 -0.9623  1.3195
57589SOL    HW279883   9.171   2.822  12.562  0.6091  1.2970  0.6013
57590SOL     OW79884  10.725  11.590   7.223 -0.2756 -0.0684  0.0066
57590SOL    HW179885  10.767  11.674   7.203 -1.9313  0.8434  0.1733
57590SOL    HW279886  10.634  11.613   7.241 -0.6063 -1.8383  0.7507
57591SOL     OW79887   1.705  12.028   1.491  0.7280 -0.5161 -0.5798
57591SOL    HW179888   1.633  12.060   1.546 -0.0692 -2.5052 -0.3749
57591SOL    HW279889   1.698  11.932   1.495  4.1873 -0.8608  0.4995
57592SOL     OW79890  11.409  11.127   3.858  0.2624  0.0681  0.0949
57592SOL    HW179891  11.473  11.151   3.925  0.4173  0.4126 -0.1757
57592SOL    HW279892  11.339  11.192   3.867 -0.1242 -0.3956  0.4897
57593SOL     OW79893   1.554   1.346   4.583  0.0303 -0.2090 -0.6682
57593SOL    HW179894   1.516   1.300   4.509  0.1642 -1.7269  0.1741
57593SOL    HW279895   1.482   1.358   4.644  0.2609 -0.4228 -0.3508
57594SOL     OW79896   6.086   4.579   3.521 -0.2794 -0.4249  0.4712
57594SOL    HW179897   6.152   4.510   3.512 -0.0142 -0.1160 -0.0350
57594SOL    HW279898   6.104   4.638   3.448  0.7380  1.2470  2.0047
57595SOL     OW79899   6.484   9.583   8.408 -0.4513  0.3822  0.5633
57595SOL    HW179900   6.480   9.605   8.314 -0.4732 -0.7516  0.2867
57595SOL    HW279901   6.495   9.667   8.451  1.7887  0.7617 -0.5931
57596SOL     OW79902  10.369   0.946   2.668 -0.5276 -0.0962  0.1877
57596SOL    HW179903  10.431   0.873   2.671 -1.2245 -0.6858  0.5970
57596SOL    HW279904  10.416   1.020   2.707  0.9176  0.2622 -2.0472
57597SOL     OW79905   6.937   8.063   4.986  0.1862 -0.5230 -0.3629
57597SOL    HW179906   6.923   7.971   4.961  0.1406 -0.5892 -0.0978
57597SOL    HW279907   7.031   8.076   4.976  0.6284 -1.3558  2.0877
57598SOL     OW79908   0.226   8.075   3.338 -0.3832 -0.0183 -0.1328
57598SOL    HW179909   0.186   8.160   3.356 -1.3159 -0.5062  0.1456
57598SOL    HW279910   0.201   8.055   3.247 -0.3124 -0.0757 -0.1403
57599SOL     OW79911   8.143  12.423   7.714  0.5890  0.4373 -0.2523
57599SOL    HW179912   8.208  12.468   7.659  0.1729  0.2700 -0.8965
57599SOL    HW279913   8.195  12.376   7.779  1.0343  2.4386  0.9437
57600SOL     OW79914   0.850  10.706  10.760 -0.2150  0.2364  0.0581
57600SOL    HW179915   0.758  10.731  10.775 -0.4613 -0.8421  0.4494
57600SOL    HW279916   0.893  10.723  10.844  0.4826  2.8167 -0.7188
57601SOL     OW79917   5.410  11.082   0.205  0.4647 -0.1579 -0.4028
57601SOL    HW179918   5.388  11.079   0.112 -1.4097 -3.1986  0.0065
57601SOL    HW279919   5.469  11.008   0.217  2.1869  1.2992  0.5854
57602SOL     OW79920   8.832   2.999   8.394  0.0662 -0.2200 -0.3140
57602SOL    HW179921   8.740   2.999   8.421  0.0966 -0.4389 -0.2077
57602SOL    HW279922   8.834   3.049   8.313  0.3350  2.6523  1.3454
57603SOL     OW79923  10.821  11.877  11.654  0.2167  0.3406  0.7524
57603SOL    HW179924  10.904  11.922  11.640  0.2634 -0.1048 -0.4369
57603SOL    HW279925  10.778  11.878  11.569 -1.2695  1.0798  1.4667
57604SOL     OW79926   7.379   7.946   3.285 -0.2319 -0.2682  0.6509
57604SOL    HW179927   7.389   8.034   3.320  1.2336 -0.2649  0.2837
57604SOL    HW279928   7.347   7.894   3.359 -2.0248  0.7213  0.6276
57605SOL     OW79929   0.204  11.394   6.789 -0.0769  0.5662  0.0870
57605SOL    HW179930   0.190  11.320   6.731 -1.6639  0.2944  0.7528
57605SOL    HW279931   0.126  11.396   6.844 -0.8055  3.6056 -0.8691
57606SOL     OW79932  12.690   7.346   6.513  0.1867 -0.0679 -0.7780
57606SOL    HW179933  12.596   7.342   6.526  0.4185  0.9821  2.1344
57606SOL    HW279934  12.702   7.359   6.419 -2.5173 -0.6047 -1.2539
57607SOL     OW79935   9.625   7.679   9.973  0.3517 -0.1981  0.0668
57607SOL    HW179936   9.628   7.774   9.973 -1.1588 -0.0892 -2.0412
57607SOL    HW279937   9.534   7.658   9.996  0.8950 -1.1999  1.4611
57608SOL     OW79938   1.686   6.902   7.627 -0.1626 -0.4515 -0.2701
57608SOL    HW179939   1.600   6.877   7.592  0.1613 -1.4249 -0.4223
57608SOL    HW279940   1.735   6.820   7.628  0.0073 -0.3641  2.0535
57609SOL     OW79941   6.623   5.533  10.929 -0.3398  0.3151  0.1088
57609SOL    HW179942   6.561   5.465  10.903  2.2092 -2.1748  0.0119
57609SOL    HW279943   6.626   5.528  11.024  2.1307 -2.1218  0.0268
57610SOL     OW79944   4.865  12.509   4.373  0.2412  0.1131 -0.2477
57610SOL    HW179945   4.827  12.583   4.326  2.1486  2.3781  1.5219
57610SOL    HW279946   4.958  12.531   4.382  1.1096 -2.9323 -0.3289
57611SOL     OW79947   6.452   6.545   7.040  0.4114 -0.6756 -0.3889
57611SOL    HW179948   6.416   6.508   6.960 -2.5159 -0.2642  0.6288
57611SOL    HW279949   6.518   6.608   7.010 -0.7893 -0.3379 -2.4814
57612SOL     OW79950   1.612  10.956   1.167 -0.0216  0.2962  0.1531
57612SOL    HW179951   1.689  10.938   1.222 -1.4321 -0.8208  1.8849
57612SOL    HW279952   1.560  11.018   1.218  0.4800  2.4732 -1.7928
57613SOL     OW79953   1.111  10.801  11.841 -0.0123  0.7564 -1.2811
57613SOL    HW179954   1.070  10.857  11.907  2.1069  0.7631  0.1478
57613SOL    HW279955   1.063  10.719  11.844 -0.3810  1.0009 -0.2073
57614SOL     OW79956   0.357   9.994   1.308 -0.4074  0.0011  0.0957
57614SOL    HW179957   0.433  10.013   1.253  1.1409 -0.5346  1.9436
57614SOL    HW279958   0.330  10.080   1.341  0.6997  0.0060  1.0336
57615SOL     OW79959   0.729   3.286   7.815 -0.2758  0.0849  0.1522
57615SOL    HW179960   0.701   3.205   7.772  0.3357 -0.4976  0.7959
57615SOL    HW279961   0.825   3.279   7.818  0.1743  2.5915 -3.1438
57616SOL     OW79962   5.503   5.880   8.751  0.0488 -0.2323  0.1371
57616SOL    HW179963   5.420   5.927   8.753  0.3351  0.4532 -1.9036
57616SOL    HW279964   5.564   5.938   8.797  0.3729  1.4750 -2.2364
57617SOL     OW79965   4.972   9.424   1.141  0.0946  0.2213  0.3664
57617SOL    HW179966   4.914   9.375   1.082  0.5684 -0.5795  0.5442
57617SOL    HW279967   4.921   9.500   1.167 -1.7162 -1.4418  2.0913
57618SOL     OW79968  12.018   0.368   3.678 -0.0511 -0.3641  0.4494
57618SOL    HW179969  12.056   0.316   3.607  1.0906  1.0112 -0.0149
57618SOL    HW279970  12.078   0.355   3.752  0.5462  0.6378  0.1719
57619SOL     OW79971   3.410   5.159   9.664  0.3421  0.3952 -0.4053
57619SOL    HW179972   3.455   5.157   9.579  1.5835 -0.9315  0.2437
57619SOL    HW279973   3.367   5.245   9.665  0.0716  0.3539 -2.4729
57620SOL     OW79974   4.525   9.325  12.749 -0.3372  0.0218 -0.3234
57620SOL    HW179975   4.498   9.318  12.840  0.2722  0.2195 -0.1180
57620SOL    HW279976   4.509   9.416  12.726  0.7418  0.3101  0.0051
57621SOL     OW79977   4.520   6.687   4.028  0.8000 -0.0780  0.4373
57621SOL    HW179978   4.553   6.618   3.971  0.1451  0.5946 -0.7941
57621SOL    HW279979   4.592   6.751   4.032  1.0989 -0.4350  0.9264
57622SOL     OW79980   5.841   1.128   2.737  0.0616  0.0702 -0.0855
57622SOL    HW179981   5.772   1.194   2.746 -0.3491 -0.4496  0.7821
57622SOL    HW279982   5.904   1.150   2.805 -0.9163 -1.3828  1.3732
57623SOL     OW79983   0.657   2.220   6.710 -0.2349 -0.1289  0.0007
57623SOL    HW179984   0.567   2.220   6.677  0.1561 -1.6882 -1.1770
57623SOL    HW279985   0.696   2.298   6.673 -0.4510 -0.6891 -1.4499
57624SOL     OW79986   2.145   2.398   3.923 -0.1865 -0.2287  0.0971
57624SOL    HW179987   2.161   2.326   3.862  1.7266  0.1141  0.1411
57624SOL    HW279988   2.151   2.356   4.010 -1.8783 -0.5165  0.1084
57625SOL     OW79989   0.442  11.606  11.886  0.5006  0.4485 -0.8137
57625SOL    HW179990   0.475  11.696  11.889  0.2178  0.6518 -2.6391
57625SOL    HW279991   0.516  11.553  11.914  1.2645  1.1396 -1.4617
57626SOL     OW79992   2.442   8.766   7.816  0.0364 -0.3572 -0.0650
57626SOL    HW179993   2.471   8.691   7.765 -1.2471 -2.4208  2.0236
57626SOL    HW279994   2.346   8.767   7.806 -0.1954 -0.4562  1.7201
57627SOL     OW79995   9.416   0.855   7.995 -0.6820 -0.1912  0.2615
57627SOL    HW179996   9.408   0.794   7.922  0.7541 -1.3398  0.9881
57627SOL    HW279997   9.433   0.940   7.955 -2.1642 -0.3574 -0.7681
57628SOL     OW79998   5.128   9.062  11.135 -0.0031 -0.2346 -0.0173
57628SOL    HW179999   5.117   8.967  11.142  0.8713 -0.2865  0.8014
57628SOL    HW280000   5.178   9.074  11.054  0.7170 -0.5474  0.3732
57629SOL     OW80001   3.011   9.560   1.674 -0.0847  0.5399 -0.0521
57629SOL    HW180002   2.980   9.489   1.730  0.7222 -1.3360 -1.8473
57629SOL    HW280003   2.934   9.615   1.659 -1.3771 -1.3118 -0.5440
57630SOL     OW80004   2.789   2.519   4.816 -0.3256  0.1965 -0.3851
57630SOL    HW180005   2.707   2.476   4.790  1.3887 -2.9615 -1.1207
57630SOL    HW280006   2.849   2.446   4.834  2.8005  2.3223 -1.4733
57631SOL     OW80007   5.701  11.092   2.468 -0.2266 -0.2839  0.2009
57631SOL    HW180008   5.658  11.141   2.398  1.1229 -0.3887 -0.7394
57631SOL    HW280009   5.667  11.130   2.548 -0.5790  0.9634 -0.5126
57632SOL     OW80010  10.415   8.186  12.922  0.0101 -0.0477  0.3412
57632SOL    HW180011  10.458   8.244  12.859  1.0697 -1.6399 -0.4554
57632SOL    HW280012  10.483   8.166  12.987 -0.1443 -0.9193  0.2441
57633SOL     OW80013   2.528   9.637   1.908 -0.1799  0.8679 -0.5886
57633SOL    HW180014   2.588   9.699   1.948 -1.0506  0.8307  0.8794
57633SOL    HW280015   2.468   9.613   1.979 -0.4782 -0.8883 -1.3724
57634SOL     OW80016  10.504   7.289   6.848  0.2655 -0.1918 -0.0973
57634SOL    HW180017  10.445   7.335   6.788 -0.2611 -0.1286  0.4526
57634SOL    HW280018  10.459   7.292   6.932  0.8099 -0.6257  0.2167
57635SOL     OW80019   1.674   1.857  11.977  0.0671 -0.0312 -0.3337
57635SOL    HW180020   1.667   1.808  12.059  0.9589 -0.8827 -0.7520
57635SOL    HW280021   1.605   1.924  11.983 -1.2428 -1.3814  0.2100
57636SOL     OW80022   6.496  12.063   7.583 -0.1310  0.0206 -0.4353
57636SOL    HW180023   6.533  12.051   7.670 -0.6134 -0.5187 -0.3024
57636SOL    HW280024   6.469  11.976   7.555  1.7823 -0.1402 -1.9426
57637SOL     OW80025   8.599   5.736   4.424 -0.2732 -0.3955  0.1807
57637SOL    HW180026   8.549   5.816   4.437  0.3119  0.1616 -0.9037
57637SOL    HW280027   8.533   5.668   4.414 -0.7807 -0.2590  2.0740
57638SOL     OW80028   5.783  12.401   1.725 -0.0044 -0.4012  0.4386
57638SOL    HW180029   5.733  12.378   1.646  0.9944 -1.0067 -0.0368
57638SOL    HW280030   5.717  12.436   1.785 -0.7998 -0.0114 -0.6251
57639SOL     OW80031   8.220   9.993   9.950  0.4005  0.2058 -0.2402
57639SOL    HW180032   8.169  10.020  10.026  0.9844  1.6690 -0.3494
57639SOL    HW280033   8.292   9.941   9.987 -0.3656 -0.7132  0.0196
57640SOL     OW80034  11.005   7.611   2.997  0.8969 -0.1166  0.3838
57640SOL    HW180035  10.925   7.659   3.021  0.6910 -1.3253  2.3054
57640SOL    HW280036  10.973   7.538   2.943  0.7852 -0.1813  0.5362
57641SOL     OW80037   2.794  10.787   8.811  0.1214 -0.6271 -0.2989
57641SOL    HW180038   2.863  10.722   8.795  0.9102  0.1332 -0.0854
57641SOL    HW280039   2.827  10.867   8.771 -0.7666 -0.3083 -0.4123
57642SOL     OW80040   9.105   3.850   9.915  0.4374  0.4229  0.1194
57642SOL    HW180041   9.169   3.922   9.917  1.8375 -0.7889  0.5589
57642SOL    HW280042   9.140   3.785   9.975 -0.9189 -0.5464 -0.0984
57643SOL     OW80043   8.245   7.761   0.339 -0.0009 -0.9030  0.1463
57643SOL    HW180044   8.332   7.742   0.375  0.6570  0.8869 -0.3913
57643SOL    HW280045   8.262   7.811   0.259 -1.5382 -0.6105 -0.0383
57644SOL     OW80046  10.319   4.941   3.497  0.2419 -0.0570 -0.4434
57644SOL    HW180047  10.300   4.853   3.466  2.6710 -1.4994  1.7888
57644SOL    HW280048  10.267   4.950   3.577  1.8589 -0.4991  0.7002
57645SOL     OW80049   0.572  10.936   4.924  0.7702 -0.3749 -0.0563
57645SOL    HW180050   0.517  10.996   4.974  1.2854 -0.4188  0.5775
57645SOL    HW280051   0.599  10.870   4.988  1.3598 -0.4857 -0.4171
57646SOL     OW80052   6.474   5.798  12.650  0.1447 -0.0986  0.3364
57646SOL    HW180053   6.552   5.813  12.703 -0.9166  0.3861  1.8174
57646SOL    HW280054   6.503   5.815  12.560  1.3323  1.7111  0.9990
57647SOL     OW80055   8.725   7.005   9.127 -0.4862 -0.0849  0.4803
57647SOL    HW180056   8.756   6.940   9.189 -1.4307 -0.9744  0.0553
57647SOL    HW280057   8.763   6.978   9.043  0.7033  1.0508  0.6287
57648SOL     OW80058   3.356   5.135   1.127 -0.1081 -0.8231  0.3352
57648SOL    HW180059   3.447   5.159   1.141 -0.1349  0.2187 -1.0337
57648SOL    HW280060   3.330   5.089   1.207  1.2649 -0.1062  1.2222
57649SOL     OW80061   8.266  10.355   0.470 -0.0876 -0.1100 -0.0406
57649SOL    HW180062   8.277  10.429   0.530  0.6444  0.8806 -1.3451
57649SOL    HW280063   8.350  10.348   0.424 -0.8737 -0.3261 -1.5136
57650SOL     OW80064   7.654  10.918  12.363  0.7045 -0.0255  0.2410
57650SOL    HW180065   7.749  10.912  12.363  0.9207  2.3410  0.0242
57650SOL    HW280066   7.631  10.935  12.454  0.7266  1.6151 -0.0338
57651SOL     OW80067   8.565   2.603  12.940  0.4664 -0.0962  0.1445
57651SOL    HW180068   8.618   2.555  12.877 -0.0808 -0.4935 -0.0257
57651SOL    HW280069   8.494   2.641  12.887 -0.8710 -1.7081  0.7206
57652SOL     OW80070  11.469   1.715   2.672  0.5040 -0.1464 -0.0127
57652SOL    HW180071  11.459   1.655   2.745 -0.3585  0.3275  0.2723
57652SOL    HW280072  11.525   1.785   2.705  1.0351 -0.4940 -0.1649
57653SOL     OW80073   0.638   4.474   8.496  0.5050 -0.2828 -0.2532
57653SOL    HW180074   0.687   4.392   8.496  0.6130 -0.2263 -1.0544
57653SOL    HW280075   0.663   4.516   8.578  1.5462 -0.4105 -0.4845
57654SOL     OW80076   2.042   8.609   5.590  0.2585 -0.1472 -0.1896
57654SOL    HW180077   2.034   8.524   5.548  0.7756 -0.3273  0.0674
57654SOL    HW280078   2.136   8.628   5.588  0.2554 -0.0260  0.6297
57655SOL     OW80079  11.993  10.910   7.687 -0.1585 -0.3724 -0.2218
57655SOL    HW180080  11.939  10.940   7.613  0.7264 -0.2899 -0.8451
57655SOL    HW280081  12.079  10.946   7.670  0.0892 -0.4502  0.8073
57656SOL     OW80082   0.172   7.279  10.525  0.1779  0.2432 -0.3857
57656SOL    HW180083   0.249   7.312  10.478  1.5171  0.1428  1.6072
57656SOL    HW280084   0.183   7.184  10.526  0.6960  0.2874  0.8784
57657SOL     OW80085  12.377   9.630   3.218  0.2182 -0.4623  0.2372
57657SOL    HW180086  12.357   9.654   3.128  0.0118  0.0148  0.4048
57657SOL    HW280087  12.470   9.607   3.217  0.4357  0.3675  0.0655
57658SOL     OW80088   5.982  11.058   6.565  0.1661 -0.0531 -0.1071
57658SOL    HW180089   5.920  11.032   6.497 -0.0537 -2.0888  0.8259
57658SOL    HW280090   6.067  11.058   6.520 -0.2620  1.1133 -0.9706
57659SOL     OW80091   5.796   3.715   4.404 -0.0589  0.3859  0.0863
57659SOL    HW180092   5.815   3.761   4.322  1.5849  0.1893  0.3339
57659SOL    HW280093   5.817   3.624   4.386 -0.7622  0.1516  0.4114
57660SOL     OW80094   0.175  10.122   7.043  0.5980  0.1055  0.1313
57660SOL    HW180095   0.112  10.148   7.111 -0.9699 -0.8111 -0.8787
57660SOL    HW280096   0.217  10.203   7.016  1.0558  0.5325  1.9652
57661SOL     OW80097   6.961   4.263  10.079  0.4797 -0.8943  0.0475
57661SOL    HW180098   7.037   4.309  10.113  0.7889 -1.7859  0.6079
57661SOL    HW280099   6.890   4.287  10.139 -0.4871  2.3005 -2.1212
57662SOL     OW80100   6.558   8.057   9.069  0.1497  0.0207 -0.2306
57662SOL    HW180101   6.503   8.099   9.003  1.4293 -0.2585 -1.5275
57662SOL    HW280102   6.610   8.129   9.106  2.3789 -0.2757 -2.4880
57663SOL     OW80103   5.233  11.120  12.498  0.5582 -0.4031  0.3348
57663SOL    HW180104   5.221  11.168  12.416  0.8515 -0.8962 -0.0045
57663SOL    HW280105   5.158  11.060  12.503 -0.2578  0.6510  1.1729
57664SOL     OW80106   7.865   4.334   8.535 -0.0246  0.0489  0.4533
57664SOL    HW180107   7.942   4.279   8.545 -0.1903 -0.2611  0.0640
57664SOL    HW280108   7.801   4.278   8.491 -1.3619 -0.5030  2.9510
57665SOL     OW80109   5.291   6.913  11.260  0.6065 -0.7759  0.1836
57665SOL    HW180110   5.372   6.901  11.211 -0.6775 -2.3273 -1.7159
57665SOL    HW280111   5.222   6.903  11.194 -1.1764 -1.2463  2.0380
57666SOL     OW80112  11.658   1.663   1.279 -0.0389 -0.4960 -0.2321
57666SOL    HW180113  11.602   1.670   1.357 -0.6221  2.1417 -0.7991
57666SOL    HW280114  11.596   1.664   1.206  0.6470 -0.0639 -0.8110
57667SOL     OW80115   8.068  12.454  12.139  0.0056  0.0695 -0.2807
57667SOL    HW180116   8.076  12.467  12.045 -0.6677 -0.3537 -0.4044
57667SOL    HW280117   8.123  12.378  12.158  1.9033  1.4551  0.0382
57668SOL     OW80118   4.199   6.772   5.934 -0.0265  0.8561 -0.4151
57668SOL    HW180119   4.291   6.795   5.950 -0.1205  0.8668  0.1464
57668SOL    HW280120   4.197   6.744   5.843  0.6929  0.1150 -0.2233
57669SOL     OW80121   6.283   8.534  10.138 -0.0767 -0.1193 -0.7505
57669SOL    HW180122   6.257   8.526  10.230 -0.0792  0.7184 -0.6710
57669SOL    HW280123   6.325   8.451  10.117  0.8390  0.0654  0.2974
57670SOL     OW80124   4.908   8.867  10.878 -0.4111  0.5186 -0.4653
57670SOL    HW180125   4.832   8.925  10.892 -1.2022 -0.4815 -0.4778
57670SOL    HW280126   4.963   8.882  10.954 -1.7663 -0.4432  0.7586
57671SOL     OW80127   0.751   3.968  10.403 -0.6593 -0.1415  0.1167
57671SOL    HW180128   0.796   3.972  10.488  3.1497 -3.0785 -1.4739
57671SOL    HW280129   0.771   4.052  10.362  3.4187 -1.0760 -0.2841
57672SOL     OW80130   4.529  12.561   4.590 -0.0789  0.1561  0.2093
57672SOL    HW180131   4.583  12.634   4.619 -0.2228 -0.1963  1.4266
57672SOL    HW280132   4.584  12.484   4.603 -0.8742 -0.2225  1.6008
57673SOL     OW80133  10.894   5.866   0.343 -0.1422  0.1705 -0.8886
57673SOL    HW180134  10.907   5.875   0.438  0.8964 -0.2807 -0.9760
57673SOL    HW280135  10.950   5.934   0.305  0.5890 -0.5967 -1.2152
57674SOL     OW80136   0.127   8.202   2.215 -0.2817 -0.1386  1.1025
57674SOL    HW180137   0.082   8.120   2.234  1.4280 -1.3134  0.2798
57674SOL    HW280138   0.199   8.206   2.278  0.7503 -0.2085 -0.0329
57675SOL     OW80139   7.102   3.338   9.653 -0.5410  0.0559 -0.1290
57675SOL    HW180140   7.023   3.379   9.689 -1.0213 -1.9875  1.3068
57675SOL    HW280141   7.070   3.284   9.581 -0.6553 -1.4741  1.0137
57676SOL     OW80142   5.308   2.200  10.875 -0.5534 -0.4743 -0.1303
57676SOL    HW180143   5.336   2.167  10.789  0.7528  2.0626 -0.7734
57676SOL    HW280144   5.375   2.168  10.936 -0.6294 -0.9753 -0.3008
57677SOL     OW80145   8.138   5.155   7.270 -0.5182  0.5981 -0.4995
57677SOL    HW180146   8.119   5.118   7.184  0.2313 -0.6329 -0.1539
57677SOL    HW280147   8.173   5.082   7.321  0.3310  1.6258  0.4374
57678SOL     OW80148   6.354   5.157   0.414 -0.4519 -0.9329 -0.4254
57678SOL    HW180149   6.407   5.176   0.491  1.8818 -1.3914 -1.8329
57678SOL    HW280150   6.323   5.068   0.427 -1.5490 -0.4154  0.7385
57679SOL     OW80151  10.592   2.224   4.975  1.3451  0.4975 -0.1497
57679SOL    HW180152  10.628   2.253   5.059  1.1039 -0.6851  0.3757
57679SOL    HW280153  10.610   2.131   4.972 -1.7334 -0.2376  0.2133
57680SOL     OW80154   9.951   9.062   9.523  0.2000 -0.3355 -0.2469
57680SOL    HW180155   9.959   9.107   9.607 -0.4667 -0.2227 -0.2398
57680SOL    HW280156   9.937   9.133   9.460  0.8673 -0.4038 -0.4857
57681SOL     OW80157   3.242   8.436  10.361 -0.5948  0.1915  0.2817
57681SOL    HW180158   3.260   8.400  10.274 -0.1454 -0.3589  0.6010
57681SOL    HW280159   3.328   8.445  10.402 -0.2152  4.6571 -0.9183
57682SOL     OW80160  11.949   5.354   4.947  0.1830 -0.0084 -0.4079
57682SOL    HW180161  11.987   5.383   5.030  0.2299 -1.5300  0.1282
57682SOL    HW280162  11.891   5.426   4.922 -0.2084  0.2928  1.2035
57683SOL     OW80163   9.448  10.682   2.201  0.6900  0.0568  0.0435
57683SOL    HW180164   9.429  10.607   2.145  1.9399 -0.4812  0.2895
57683SOL    HW280165   9.367  10.699   2.248  0.0294 -0.3538 -0.9254
57684SOL     OW80166   7.207   4.542  12.354 -0.2557 -0.1314  0.2750
57684SOL    HW180167   7.291   4.539  12.309  0.1707  2.7692  0.7422
57684SOL    HW280168   7.230   4.542  12.447 -0.8979 -1.1655  0.4489
57685SOL     OW80169   1.845   9.430   1.529  0.0571 -0.0211 -0.1993
57685SOL    HW180170   1.818   9.513   1.490  0.0527  0.0496 -0.0460
57685SOL    HW280171   1.850   9.370   1.455  1.8485  0.5702 -0.6116
57686SOL     OW80172   0.441   6.253   4.518  0.1089 -0.2699  0.7049
57686SOL    HW180173   0.514   6.264   4.578  1.2485  0.2255 -0.7216
57686SOL    HW280174   0.378   6.320   4.543  2.0428  2.2569 -0.7314
57687SOL     OW80175   6.957  11.215  11.755 -0.7271  0.2480  0.0666
57687SOL    HW180176   6.994  11.251  11.836 -0.5039  0.3693 -0.0908
57687SOL    HW280177   7.021  11.236  11.687 -0.4374 -0.7178  0.0255
57688SOL     OW80178   3.168   1.086   0.271 -0.0325 -0.1438  1.0396
57688SOL    HW180179   3.222   1.023   0.318  0.6442  0.8390  1.6217
57688SOL    HW280180   3.217   1.106   0.191 -1.1127 -1.7017 -0.0639
57689SOL     OW80181  12.327   8.617   5.118 -0.2129 -0.8645  0.0701
57689SOL    HW180182  12.291   8.582   5.037 -0.3555 -0.5403 -0.0036
57689SOL    HW280183  12.411   8.571   5.128 -0.2380 -0.9743 -0.2088
57690SOL     OW80184   8.136   5.396  11.635 -0.1843  0.5646  0.1097
57690SOL    HW180185   8.127   5.431  11.547  1.6027  0.8851  0.0347
57690SOL    HW280186   8.105   5.305  11.628 -1.5484  1.0534 -0.4605
57691SOL     OW80187  11.013   9.888   6.309  0.4620 -0.2119 -0.8885
57691SOL    HW180188  10.973   9.865   6.226  2.5609 -2.2953 -1.4281
57691SOL    HW280189  10.963   9.839   6.375  0.1053 -0.2122 -1.1588
57692SOL     OW80190   5.342   1.888   2.421 -0.3435  0.5598  1.0091
57692SOL    HW180191   5.399   1.963   2.441  0.0435  0.1186  1.5957
57692SOL    HW280192   5.354   1.873   2.327 -2.1759  2.6652  0.3517
57693SOL     OW80193   6.873  12.053   0.582 -0.5831  0.2871 -0.1491
57693SOL    HW180194   6.968  12.061   0.573 -0.7114  0.8045 -1.2378
57693SOL    HW280195   6.860  11.992   0.655  0.5668  1.8974  1.5061
57694SOL     OW80196   8.123   3.136   6.630 -0.3189  0.2081  0.1661
57694SOL    HW180197   8.092   3.065   6.575  0.5851  0.0564 -0.1681
57694SOL    HW280198   8.188   3.095   6.687 -1.5769  0.2555  1.7021
57695SOL     OW80199   4.925   8.340   5.729  0.3379 -0.2792 -0.4764
57695SOL    HW180200   4.890   8.426   5.751 -1.1969 -0.8477 -0.6196
57695SOL    HW280201   5.020   8.351   5.734  0.1619  1.3881 -0.4043
57696SOL     OW80202   4.541   6.049   7.587  0.0249 -0.5715 -0.2003
57696SOL    HW180203   4.450   6.021   7.578  0.3323 -1.7923  0.2113
57696SOL    HW280204   4.590   5.967   7.595  1.1330  0.0756 -0.1510
57697SOL     OW80205   7.090   9.275  12.369 -0.3538 -0.6463 -0.5387
57697SOL    HW180206   7.085   9.364  12.403  1.2757 -0.7880  0.1760
57697SOL    HW280207   7.022   9.227  12.416 -2.5817  0.5907 -2.3244
57698SOL     OW80208   2.467   8.713   4.972  0.3888  0.1319 -0.1014
57698SOL    HW180209   2.446   8.744   5.060  0.1043 -0.7057  0.1329
57698SOL    HW280210   2.439   8.621   4.971 -1.3842  0.6263 -1.6625
57699SOL     OW80211  11.568  11.379   1.591 -0.3769  0.0130 -0.1507
57699SOL    HW180212  11.550  11.309   1.529  2.9245 -1.4784  0.3777
57699SOL    HW280213  11.538  11.345   1.675  0.8259 -0.6485  0.0328
57700SOL     OW80214  12.574   7.744  10.209  0.5755 -0.6368 -0.1075
57700SOL    HW180215  12.502   7.807  10.212 -2.0682 -3.3403 -1.8721
57700SOL    HW280216  12.636   7.781  10.147 -0.1359  0.9526  0.0902
57701SOL     OW80217   8.193   6.856   7.663 -0.5580  0.6964 -0.5231
57701SOL    HW180218   8.106   6.896   7.668 -0.0561  1.8359 -0.6461
57701SOL    HW280219   8.180   6.779   7.607 -1.7255  0.1504  0.4677
57702SOL     OW80220  12.127   4.367   2.151 -0.5297  0.1309 -0.1113
57702SOL    HW180221  12.148   4.455   2.120  2.5271 -0.2323  0.5533
57702SOL    HW280222  12.213   4.324   2.160 -1.8205 -2.4642  0.9191
57703SOL     OW80223   5.036   9.317   4.148 -0.6837 -0.1440  0.3015
57703SOL    HW180224   5.082   9.386   4.197 -0.4566  0.4284 -0.6889
57703SOL    HW280225   5.105   9.270   4.103 -1.0449  0.7247 -1.2057
57704SOL     OW80226  10.819   4.423   5.155 -0.2907 -0.1277  0.0969
57704SOL    HW180227  10.757   4.495   5.148  1.1868  1.1248 -0.7469
57704SOL    HW280228  10.778   4.351   5.106 -1.9383 -0.0335  1.2402
57705SOL     OW80229   9.123   9.523   4.983  0.0406 -0.0303 -0.3329
57705SOL    HW180230   9.201   9.557   5.028 -0.6487 -0.9646  1.6628
57705SOL    HW280231   9.157   9.456   4.924  0.7862 -0.3054  0.3883
57706SOL     OW80232  12.325   8.780  11.073 -0.0193  0.0116  0.2718
57706SOL    HW180233  12.375   8.736  11.004  0.2380 -1.7408  1.4915
57706SOL    HW280234  12.357   8.741  11.154 -0.5483  1.7667  1.3842
57707SOL     OW80235   8.409  12.969  10.070  0.1086  0.5778 -0.1397
57707SOL    HW180236   8.374  12.906  10.007  0.7243 -0.3916  0.4764
57707SOL    HW280237   8.488  12.928  10.105 -1.5839 -0.1584  3.2572
57708SOL     OW80238   4.021   4.155   1.664  0.4225 -0.1215  0.2381
57708SOL    HW180239   4.013   4.107   1.581  0.0956 -1.3074  0.9247
57708SOL    HW280240   3.983   4.095   1.729 -0.5073  1.3019  1.0592
57709SOL     OW80241  11.530  10.626   7.217  0.0506 -0.0359  0.8710
57709SOL    HW180242  11.489  10.703   7.177  0.2194 -0.1846  0.3988
57709SOL    HW280243  11.525  10.641   7.311 -1.1916 -0.1080  0.8258
57710SOL     OW80244   4.730   0.388   1.101 -0.1717  0.1192  0.4104
57710SOL    HW180245   4.673   0.352   1.169 -0.7145  0.3927  0.1079
57710SOL    HW280246   4.687   0.468   1.073  0.1318  0.0960 -0.1411
57711SOL     OW80247   0.056   5.502  10.622  0.1548  0.1591 -0.1796
57711SOL    HW180248   0.015   5.425  10.584 -0.7219  0.6038 -0.1599
57711SOL    HW280249   0.065   5.482  10.715 -0.5504  0.2685 -0.0794
57712SOL     OW80250   9.980   2.327   3.899 -0.3420  0.2474 -0.1568
57712SOL    HW180251   9.889   2.305   3.919  0.1317 -0.4180  1.4126
57712SOL    HW280252  10.021   2.243   3.876  0.0966  0.3900  0.0875
57713SOL     OW80253   9.985   7.595  11.684 -0.3385 -0.3283 -0.5229
57713SOL    HW180254  10.022   7.508  11.698  0.1264 -0.1818 -0.8165
57713SOL    HW280255   9.995   7.639  11.768 -2.8011 -1.3432  0.4081
57714SOL     OW80256   0.096   3.061   6.662 -0.6818 -0.0171 -0.0763
57714SOL    HW180257   0.177   3.109   6.649 -0.8785  0.2676 -0.2699
57714SOL    HW280258   0.074   3.075   6.754  0.5925 -1.8467  0.5845
57715SOL     OW80259  12.083   8.716  10.568 -0.6243  0.6472  0.1731
57715SOL    HW180260  12.031   8.644  10.603 -1.8852  1.7269  0.6289
57715SOL    HW280261  12.088   8.779  10.641 -1.2585  1.8807 -0.8045
57716SOL     OW80262  10.192   1.955   3.043  0.1794 -0.6684 -0.3220
57716SOL    HW180263  10.249   1.926   3.114  1.3706  1.6028 -0.2500
57716SOL    HW280264  10.252   1.984   2.975 -0.7586  2.6861  0.1101
57717SOL     OW80265   5.898   2.032   5.792 -0.1349  0.0275  0.2496
57717SOL    HW180266   5.874   2.101   5.854  0.3317 -0.2679  0.7714
57717SOL    HW280267   5.837   2.043   5.720  0.9882  2.0647 -0.4797
57718SOL     OW80268   4.294   8.088   8.282 -0.0676 -0.0560 -0.0581
57718SOL    HW180269   4.379   8.052   8.306  0.2419  1.3850  1.1088
57718SOL    HW280270   4.236   8.062   8.353  0.0059  1.1290  0.4542
57719SOL     OW80271   3.044   3.394   6.975 -0.0083 -0.4549  0.2981
57719SOL    HW180272   3.087   3.309   6.964 -1.6916 -1.1198 -1.6391
57719SOL    HW280273   2.999   3.410   6.892 -1.8817  1.1241  1.5190
57720SOL     OW80274   1.554   9.318  11.618  0.0142 -0.5901 -0.3561
57720SOL    HW180275   1.607   9.350  11.692  0.3366 -1.5557 -0.1447
57720SOL    HW280276   1.512   9.396  11.583  2.8270  0.5344 -1.5554
57721SOL     OW80277   7.586   6.736  10.452  0.1386 -0.5925 -0.5510
57721SOL    HW180278   7.626   6.701  10.533  3.3089 -0.5919 -1.9718
57721SOL    HW280279   7.543   6.817  10.479  1.6448 -0.2779  1.0691
57722SOL     OW80280   1.166  10.946   1.203  0.3270  0.0864 -0.0139
57722SOL    HW180281   1.107  11.015   1.175 -0.5881 -0.9051 -0.6327
57722SOL    HW280282   1.109  10.871   1.222  1.2126 -0.2784  1.4018
57723SOL     OW80283   4.992   6.081   8.723  0.5685 -0.0242 -0.7220
57723SOL    HW180284   4.905   6.080   8.763  0.4345  0.6805 -0.9894
57723SOL    HW280285   5.042   6.016   8.773 -0.2671 -0.8494 -0.9213
57724SOL     OW80286   1.398   9.711   0.160 -0.3942  0.1476  0.0137
57724SOL    HW180287   1.320   9.751   0.197 -0.3982  0.1278  0.0269
57724SOL    HW280288   1.425   9.645   0.225  0.9121  1.6661  1.0842
57725SOL     OW80289  10.858  11.379   6.737  0.5537 -0.0825  0.1049
57725SOL    HW180290  10.819  11.354   6.821 -1.0817 -1.1934 -0.9382
57725SOL    HW280291  10.860  11.298   6.686  0.1358  0.8375 -1.4491
57726SOL     OW80292   8.408   6.480   9.630 -0.4311 -0.3862  0.1029
57726SOL    HW180293   8.388   6.403   9.684 -1.2298 -0.3311 -0.0987
57726SOL    HW280294   8.333   6.488   9.571  0.5060 -0.5584 -1.1698
57727SOL     OW80295   1.689   9.340   2.321  0.1492  0.2604  0.8960
57727SOL    HW180296   1.656   9.372   2.237  2.0661  0.3526  0.1338
57727SOL    HW280297   1.646   9.255   2.332  1.2497 -0.6244 -1.1261
57728SOL     OW80298   8.092   6.521   7.050 -0.0776  0.4500 -0.1206
57728SOL    HW180299   8.171   6.466   7.053 -0.2469  0.2353  0.6176
57728SOL    HW280300   8.020   6.459   7.056 -0.3035  0.6474 -0.8034
57729SOL     OW80301   1.128  10.093   4.467  0.4816 -0.2901 -0.4996
57729SOL    HW180302   1.211  10.093   4.420 -1.2530  0.8022 -3.9689
57729SOL    HW280303   1.061  10.090   4.398 -2.4050 -0.8627  2.0609
57730SOL     OW80304   3.580   0.315   2.353  0.1363 -0.1056 -0.3087
57730SOL    HW180305   3.566   0.244   2.291  0.0535  0.1440 -0.5829
57730SOL    HW280306   3.664   0.353   2.328  1.4519 -1.7181  1.4532
57731SOL     OW80307  10.825   1.767   5.866 -0.7261 -0.0692  0.3346
57731SOL    HW180308  10.851   1.859   5.860 -0.3965 -0.1230  0.9025
57731SOL    HW280309  10.731   1.770   5.881 -1.0030  0.1363 -1.2136
57732SOL     OW80310   3.899   5.908  11.908  0.1074  0.4411 -0.2555
57732SOL    HW180311   3.891   5.927  12.002 -0.1594  1.6378 -0.4996
57732SOL    HW280312   3.962   5.836  11.903  1.3247  1.3976  0.7554
57733SOL     OW80313  11.969   0.025  11.299 -0.2900 -0.3951  0.2340
57733SOL    HW180314  11.971   0.098  11.361  0.3723 -0.3044  0.1195
57733SOL    HW280315  11.981  -0.052  11.353 -2.1093 -0.5434  0.4935
57734SOL     OW80316   5.484   2.154  12.598  0.4820 -0.3196  0.0225
57734SOL    HW180317   5.557   2.156  12.659  1.0295  1.7806 -0.6340
57734SOL    HW280318   5.512   2.093  12.529  1.2267 -0.2193  0.2311
57735SOL     OW80319   3.497  10.836   2.741 -0.2268  0.6218  0.2782
57735SOL    HW180320   3.474  10.929   2.737 -0.8613  0.4724  0.3164
57735SOL    HW280321   3.490  10.805   2.650 -2.3353  0.0870  0.5723
57736SOL     OW80322   5.101   6.061   1.503 -0.0538 -0.2649 -0.3919
57736SOL    HW180323   5.164   6.005   1.457  0.1606  0.4881 -1.0334
57736SOL    HW280324   5.145   6.145   1.511 -0.5536 -0.0488  0.1610
57737SOL     OW80325  10.571   8.404   6.389 -0.0230 -0.5264 -0.1825
57737SOL    HW180326  10.630   8.335   6.358 -0.0201 -0.5658 -0.0863
57737SOL    HW280327  10.502   8.358   6.437  0.6461 -0.3681  0.9583
57738SOL     OW80328  12.712   1.213   9.461  0.4458  0.0068  0.0835
57738SOL    HW180329  12.735   1.246   9.374  2.2115  3.1986  1.6041
57738SOL    HW280330  12.626   1.250   9.479  0.5234  0.1745  0.1064
57739SOL     OW80331   2.836  11.629   3.046  0.3663 -0.5300 -0.5012
57739SOL    HW180332   2.889  11.675   2.982  0.1817  0.7884  0.2502
57739SOL    HW280333   2.760  11.599   2.997  0.9882 -0.9580 -1.2238
57740SOL     OW80334   7.612   9.230  12.094 -0.4393  0.0937  0.6859
57740SOL    HW180335   7.544   9.216  12.160  0.4785 -0.1735  1.6095
57740SOL    HW280336   7.590   9.168  12.024 -1.8128  0.8592  0.3944
57741SOL     OW80337  12.215  11.540  11.726  0.6816 -0.5439  0.0186
57741SOL    HW180338  12.185  11.570  11.640 -0.5217 -0.1561  0.5575
57741SOL    HW280339  12.170  11.596  11.788  0.9352 -1.3311  0.9374
57742SOL     OW80340   7.802   1.394   5.735 -0.1628  0.5589  0.7987
57742SOL    HW180341   7.774   1.455   5.667  0.2044 -0.6541 -0.4980
57742SOL    HW280342   7.893   1.419   5.754  0.3492 -0.2223 -0.5105
57743SOL     OW80343  11.526   7.625   0.401 -0.2503 -0.3926 -0.3047
57743SOL    HW180344  11.517   7.541   0.356  0.8535 -0.1638 -1.0035
57743SOL    HW280345  11.449   7.631   0.458  0.6284 -2.7794  1.2876
57744SOL     OW80346   7.633   6.949   8.875  0.0313 -0.1384  0.0335
57744SOL    HW180347   7.653   6.856   8.860 -2.5328 -0.5775 -1.3014
57744SOL    HW280348   7.612   6.954   8.968 -1.5677 -1.3551 -0.2121
57745SOL     OW80349   0.172   9.311   8.197 -0.4755 -0.2201 -0.6444
57745SOL    HW180350   0.159   9.334   8.105 -2.5574 -0.5787 -0.4866
57745SOL    HW280351   0.148   9.219   8.202 -0.4486 -0.1861  0.2827
57746SOL     OW80352  11.951   4.787   0.823 -0.0566 -0.3224 -0.5613
57746SOL    HW180353  11.988   4.700   0.810  1.6316  0.3378 -0.4676
57746SOL    HW280354  11.958   4.802   0.917 -1.7565 -0.6446 -0.3465
57747SOL     OW80355   9.367   3.514   7.908 -0.3067 -0.4149  0.1060
57747SOL    HW180356   9.340   3.494   7.998  2.6948 -0.7976  1.0341
57747SOL    HW280357   9.404   3.602   7.913  0.7170 -0.7960 -0.5526
57748SOL     OW80358  10.856   6.669   3.099 -0.2311  0.2321 -0.5570
57748SOL    HW180359  10.943   6.630   3.101  0.1871  1.1636  0.6653
57748SOL    HW280360  10.857   6.728   3.023  1.1321  2.2148  0.9255
57749SOL     OW80361  12.774   0.927   1.827 -0.2639 -0.5521  0.3849
57749SOL    HW180362  12.747   0.849   1.780 -0.8522 -0.2072  0.1363
57749SOL    HW280363  12.869   0.918   1.837 -0.1155 -0.6002 -0.9196
57750SOL     OW80364   3.274   1.317  11.562 -0.0094 -0.6639  0.1276
57750SOL    HW180365   3.350   1.342  11.509  0.1623  0.0090  0.6784
57750SOL    HW280366   3.202   1.310  11.499  0.0492  0.7613 -0.1297
57751SOL     OW80367   0.100   6.254  10.231  0.1442  0.0276  0.0333
57751SOL    HW180368   0.084   6.269  10.324  0.4517  1.0209 -0.0542
57751SOL    HW280369   0.135   6.166  10.226  1.6609  0.5225  1.0568
57752SOL     OW80370   2.814   0.646   1.835  0.9160 -0.1287 -0.0927
57752SOL    HW180371   2.810   0.740   1.815 -1.9447 -0.1839 -0.2194
57752SOL    HW280372   2.825   0.604   1.750  2.7368  0.0426  0.0121
57753SOL     OW80373   2.902   2.852  12.557 -0.0598  0.2878  0.5162
57753SOL    HW180374   2.922   2.935  12.600  1.1001 -0.3432  1.2428
57753SOL    HW280375   2.884   2.791  12.628 -3.0682  0.3635 -0.0472
57754SOL     OW80376   7.951  11.977   2.952 -0.2668  0.1837  0.0613
57754SOL    HW180377   7.976  12.069   2.968 -0.3577  0.3361 -0.6693
57754SOL    HW280378   7.878  11.983   2.890 -0.0004 -0.4099 -0.3032
57755SOL     OW80379   3.174   7.437   8.313  0.2197 -0.0237  0.0752
57755SOL    HW180380   3.135   7.524   8.319 -0.5629 -0.4499  1.9428
57755SOL    HW280381   3.266   7.453   8.294  0.7587  1.4301  3.2239
57756SOL     OW80382   8.512   7.577  10.496 -0.3034 -0.3979  0.3697
57756SOL    HW180383   8.444   7.523  10.536  0.4134 -0.6953  1.1993
57756SOL    HW280384   8.546   7.523  10.425 -1.4448  0.0565 -0.5696
57757SOL     OW80385  10.021   8.540   6.194  0.1921 -0.4595  0.2940
57757SOL    HW180386   9.958   8.541   6.121  1.9753 -0.0868 -1.3305
57757SOL    HW280387  10.057   8.451   6.192  0.4398 -0.3643  0.5674
57758SOL     OW80388   2.246   9.343   2.330  0.2444 -0.0059  0.4206
57758SOL    HW180389   2.279   9.426   2.363  2.0450 -0.2418 -0.6441
57758SOL    HW280390   2.286   9.277   2.386 -0.0774 -0.2094  0.4109
57759SOL     OW80391   5.903   9.866  11.270 -0.0251  0.5506 -0.5431
57759SOL    HW180392   5.838   9.808  11.309  1.0586 -2.1924 -2.4198
57759SOL    HW280393   5.961   9.890  11.343  0.8566 -2.8241  0.0472
57760SOL     OW80394   7.680  12.216   7.516  0.1851  0.2778 -0.1359
57760SOL    HW180395   7.774  12.226   7.534  0.3813 -0.0620 -0.9477
57760SOL    HW280396   7.668  12.123   7.501 -0.3931  0.2391  0.5200
57761SOL     OW80397   9.092   0.497   9.784  0.8715  0.0662  0.5441
57761SOL    HW180398   9.051   0.474   9.868 -1.0301 -1.3412 -0.6807
57761SOL    HW280399   9.069   0.588   9.770 -1.6013 -0.5516  0.1214
57762SOL     OW80400  10.993   5.058   6.382  0.3228  0.5953  0.0100
57762SOL    HW180401  11.072   5.107   6.408 -0.2192  2.4715 -1.6217
57762SOL    HW280402  11.027   4.985   6.330  1.0546  0.7122  0.3115
57763SOL     OW80403   8.901  12.944   5.532 -0.1453 -0.8894 -0.2565
57763SOL    HW180404   8.877  13.037   5.530 -0.3181 -0.9102 -2.5770
57763SOL    HW280405   8.980  12.941   5.586 -0.3448  0.5525  0.1552
57764SOL     OW80406   0.153  11.524   3.181  0.0221 -0.6832 -0.2251
57764SOL    HW180407   0.222  11.475   3.227 -2.0710 -1.6905  2.0594
57764SOL    HW280408   0.094  11.456   3.148 -2.1447  0.1226  1.6954
57765SOL     OW80409   2.096   5.118   7.171 -0.4009 -0.2825  0.6442
57765SOL    HW180410   2.004   5.142   7.174 -0.5629 -0.9365  3.5947
57765SOL    HW280411   2.143   5.202   7.173 -0.9589  0.0242  1.3637
57766SOL     OW80412  11.790  10.673   4.936  0.5376 -0.3476 -0.8255
57766SOL    HW180413  11.773  10.623   5.016 -0.2374  1.2876  0.0916
57766SOL    HW280414  11.794  10.764   4.965  0.0750  0.3124 -2.6756
57767SOL     OW80415   8.119   3.255   9.933 -0.2398 -0.4423 -0.7493
57767SOL    HW180416   8.038   3.291   9.898  0.1009  0.1856 -0.8951
57767SOL    HW280417   8.116   3.162   9.908 -0.3479 -0.1636 -1.8077
57768SOL     OW80418   5.803  10.203  10.278  0.1212 -0.1864 -0.3382
57768SOL    HW180419   5.883  10.152  10.266  0.5439  0.4123 -0.0811
57768SOL    HW280420   5.733  10.143  10.250  0.3177 -1.9159  2.4252
57769SOL     OW80421   7.827   7.628   7.366 -0.0203 -0.0735 -0.0604
57769SOL    HW180422   7.879   7.552   7.341 -0.2118  0.2203 -1.4478
57769SOL    HW280423   7.746   7.619   7.317 -1.6635 -0.8802  2.5778
57770SOL     OW80424   3.056   6.878   4.565 -0.0017 -0.3568 -0.0514
57770SOL    HW180425   3.145   6.895   4.595  0.4896 -2.2141 -0.2708
57770SOL    HW280426   3.039   6.788   4.593 -2.8431  0.7741  2.3407
57771SOL     OW80427   0.654   1.351   5.555  0.1200 -0.0484  0.3492
57771SOL    HW180428   0.704   1.358   5.474  0.6934 -0.5220  0.6522
57771SOL    HW280429   0.596   1.428   5.555  0.1252 -0.0390 -0.4920
57772SOL     OW80430  11.116   4.400   3.274  0.3873 -0.3125 -0.1440
57772SOL    HW180431  11.023   4.408   3.296  0.1763 -0.2405 -1.0037
57772SOL    HW280432  11.123   4.441   3.188  1.0455 -1.1033 -0.4790
57773SOL     OW80433  11.613   5.894   3.505 -0.0079 -0.2499 -0.2486
57773SOL    HW180434  11.555   5.825   3.537  0.0205 -1.5534 -2.8105
57773SOL    HW280435  11.697   5.850   3.491  1.7108  1.5274  3.0836
57774SOL     OW80436   9.865   8.284   5.139  0.3803  0.0069 -0.2155
57774SOL    HW180437   9.857   8.311   5.048  0.0392 -1.1209 -0.5432
57774SOL    HW280438   9.807   8.208   5.147  1.0340 -0.4206  0.7194
57775SOL     OW80439   0.157   9.488   4.650 -0.6920 -0.0298  0.3173
57775SOL    HW180440   0.231   9.497   4.590  0.6251  0.9363  1.9877
57775SOL    HW280441   0.091   9.549   4.616  0.6678  1.7571  0.6843
57776SOL     OW80442   6.808   2.788  12.855 -0.1132 -0.0320  0.1906
57776SOL    HW180443   6.783   2.757  12.768  1.9792 -1.0698 -0.1200
57776SOL    HW280444   6.779   2.719  12.915  0.3155 -0.3531  0.0394
57777SOL     OW80445  11.026   4.554   5.466  0.1443  0.0625 -0.0518
57777SOL    HW180446  11.088   4.627   5.462 -0.1044  0.2617 -0.3308
57777SOL    HW280447  11.069   4.484   5.417  0.6323 -0.1739  0.6966
57778SOL     OW80448   2.590   6.012   3.052  0.2933  0.1369 -0.1316
57778SOL    HW180449   2.609   5.921   3.029  2.1268  0.5435 -0.4260
57778SOL    HW280450   2.520   6.007   3.116  0.2829 -1.4755 -0.2330
57779SOL     OW80451   9.188   0.865   1.853  0.3696  0.4150  0.2259
57779SOL    HW180452   9.275   0.844   1.820 -0.2759 -1.8303 -0.2133
57779SOL    HW280453   9.196   0.858   1.949  1.0247  1.9070  0.3147
57780SOL     OW80454  12.267   9.778   2.176  0.0508  0.5036 -0.6430
57780SOL    HW180455  12.266   9.857   2.122  2.4071  1.0507  0.0179
57780SOL    HW280456  12.309   9.712   2.121  0.0166  0.3067 -0.4328
57781SOL     OW80457   4.624   8.928   0.574 -0.3438  0.4770 -0.4180
57781SOL    HW180458   4.717   8.908   0.583  0.1242  2.2730 -0.8473
57781SOL    HW280459   4.592   8.933   0.664  0.2452  0.9706 -0.2282
57782SOL     OW80460   2.405   3.850   0.666 -0.7996  0.3576 -0.0658
57782SOL    HW180461   2.328   3.898   0.637 -1.1417 -0.0015  0.2372
57782SOL    HW280462   2.374   3.795   0.737  0.3853  2.6343  2.3857
57783SOL     OW80463   0.719   4.782   0.827  0.9371 -0.4524 -0.0264
57783SOL    HW180464   0.664   4.809   0.901  1.0234 -1.5945  0.4682
57783SOL    HW280465   0.683   4.830   0.752  1.0106  0.9112  0.7891
57784SOL     OW80466   9.678  11.180   5.836 -0.1529 -0.4725 -0.3030
57784SOL    HW180467   9.595  11.160   5.878 -0.6225  0.3844 -0.7953
57784SOL    HW280468   9.727  11.231   5.901 -1.5614  2.3835 -1.2821
57785SOL     OW80469   6.819   1.854   5.728 -0.2113 -0.4803  0.1447
57785SOL    HW180470   6.825   1.846   5.633 -1.2309 -2.3818  0.1943
57785SOL    HW280471   6.828   1.765   5.761 -2.9414 -0.3575  1.5851
57786SOL     OW80472   4.272   0.419   5.904  0.2348  0.2209  0.0740
57786SOL    HW180473   4.216   0.495   5.918 -1.6120 -0.6653 -1.9035
57786SOL    HW280474   4.328   0.444   5.830 -0.2987 -0.2672 -0.5061
57787SOL     OW80475   4.987   2.248   1.921 -0.0801 -0.0711  0.6086
57787SOL    HW180476   4.915   2.306   1.897  0.5248 -0.3641 -2.4199
57787SOL    HW280477   5.007   2.269   2.012 -1.9085  2.2386  0.5622
57788SOL     OW80478  11.129   0.928   5.096  0.3398 -0.1699  0.2257
57788SOL    HW180479  11.119   0.970   5.010 -0.5758  0.2782  0.5298
57788SOL    HW280480  11.151   0.837   5.076  0.4402  0.0001 -0.4809
57789SOL     OW80481   7.005   6.935   4.082  0.0071 -0.0947  0.2811
57789SOL    HW180482   7.049   6.998   4.139 -0.4683  0.0778  0.4624
57789SOL    HW280483   6.948   6.988   4.027 -0.2544 -0.3457  0.3046
57790SOL     OW80484   8.425   0.960   5.651 -0.2696 -0.4359 -0.4472
57790SOL    HW180485   8.512   0.922   5.654 -0.3834 -0.7167  2.4862
57790SOL    HW280486   8.371   0.893   5.608  0.2020 -2.1821  1.5076
57791SOL     OW80487  12.565  10.130   9.977 -0.5589  0.5444 -0.5097
57791SOL    HW180488  12.574  10.037   9.997  1.0653  1.3480  3.2327
57791SOL    HW280489  12.470  10.146   9.978 -0.8297 -0.9277 -0.6305
57792SOL     OW80490  11.996  12.768   9.945 -0.2907 -0.2401 -0.5515
57792SOL    HW180491  12.083  12.738   9.973 -0.6858 -0.0175  1.0225
57792SOL    HW280492  11.936  12.704   9.984 -1.0504  1.6705  1.5943
57793SOL     OW80493  11.888  11.429   2.145 -0.1413 -0.3880 -0.2038
57793SOL    HW180494  11.967  11.374   2.146  0.4997  0.4850 -1.2471
57793SOL    HW280495  11.920  11.517   2.163 -0.8803 -0.0187 -0.6502
57794SOL     OW80496  12.671   1.285  10.751  0.4010  0.0842  0.2940
57794SOL    HW180497  12.589   1.287  10.701  0.0500  1.4167  0.8795
57794SOL    HW280498  12.712   1.203  10.725 -0.9886 -0.4910 -0.2169
57795SOL     OW80499   1.472   7.517   3.231  0.1125 -0.0754  0.2178
57795SOL    HW180500   1.472   7.421   3.225  1.0382 -0.2184  1.8698
57795SOL    HW280501   1.425   7.546   3.153 -0.6624 -1.8934 -0.0421
57796SOL     OW80502  11.425  12.491   1.528  0.3442  0.6276  0.0193
57796SOL    HW180503  11.411  12.547   1.605 -0.6625  1.3768 -0.6821
57796SOL    HW280504  11.479  12.419   1.561 -2.5621 -0.7599  2.2177
57797SOL     OW80505  12.052   8.068   2.710 -0.0289  0.5180  0.0725
57797SOL    HW180506  11.997   8.103   2.640  0.5741 -2.0931 -1.8966
57797SOL    HW280507  12.133   8.118   2.705  0.6037 -0.5974 -2.2712
57798SOL     OW80508  10.366   0.569  10.517 -0.1874 -0.4226  0.2129
57798SOL    HW180509  10.290   0.520  10.487 -0.5009 -1.1165  2.0338
57798SOL    HW280510  10.363   0.564  10.612 -0.2979  3.2360  0.5711
57799SOL     OW80511   2.756   3.726   2.756  0.4081  0.2323  0.3424
57799SOL    HW180512   2.680   3.682   2.718  0.0221 -0.4101  1.7917
57799SOL    HW280513   2.783   3.789   2.689 -0.0280 -1.0629 -1.1178
57800SOL     OW80514   4.863   2.827   0.305  0.0262 -0.1604 -0.1738
57800SOL    HW180515   4.901   2.741   0.285 -1.2322 -0.3844 -1.7938
57800SOL    HW280516   4.818   2.853   0.225 -0.3567  1.6414  0.5669
57801SOL     OW80517   5.020   0.511  10.489 -0.0150  0.0849 -0.1047
57801SOL    HW180518   5.027   0.468  10.403  1.0123 -1.5644  0.7530
57801SOL    HW280519   4.932   0.491  10.519 -0.2301  0.2970 -0.5837
57802SOL     OW80520   1.062  12.115   6.894 -0.5066 -0.1338 -0.4738
57802SOL    HW180521   1.001  12.048   6.927 -1.0974  0.8775  0.5973
57802SOL    HW280522   1.006  12.177   6.848 -0.1082  0.1840 -0.5321
57803SOL     OW80523   3.122   5.760   3.833 -0.7404 -0.2766 -0.8222
57803SOL    HW180524   3.135   5.760   3.928 -1.3594 -1.9302 -0.6953
57803SOL    HW280525   3.050   5.698   3.819 -0.9946  0.3185 -2.3366
57804SOL     OW80526   7.029   6.879  10.684  0.0081 -0.2426 -0.6147
57804SOL    HW180527   7.035   6.965  10.725 -0.4780 -1.0414  1.2493
57804SOL    HW280528   7.117   6.861  10.652  0.2492  0.7021 -0.5139
57805SOL     OW80529  11.081  10.867  11.600  0.5123 -0.1476 -0.4360
57805SOL    HW180530  11.002  10.903  11.560  0.6734  0.3772 -0.2981
57805SOL    HW280531  11.153  10.908  11.552  0.7288  1.3630  1.0755
57806SOL     OW80532  12.245  11.209   7.953  0.3897 -0.0499  0.2144
57806SOL    HW180533  12.277  11.294   7.983  1.7372 -0.3023 -0.4290
57806SOL    HW280534  12.153  11.224   7.933  0.3960  1.0405  0.9071
57807SOL     OW80535   5.282   0.756   5.968 -0.1303  0.4378 -0.1859
57807SOL    HW180536   5.306   0.838   6.012 -1.8972  0.2901  1.1631
57807SOL    HW280537   5.257   0.782   5.880 -0.1165  1.2755  0.0486
57808SOL     OW80538   5.851   6.117   5.528 -0.2174 -0.1828  0.0228
57808SOL    HW180539   5.860   6.031   5.568  3.3351  0.1899  0.3460
57808SOL    HW280540   5.922   6.122   5.464 -1.7899  1.6680 -1.7050
57809SOL     OW80541   7.126   0.495   5.724 -0.1710 -0.4885  0.2501
57809SOL    HW180542   7.164   0.549   5.793  1.6856 -1.4420  0.0283
57809SOL    HW280543   7.035   0.524   5.718  0.9068  3.2679 -0.5249
57810SOL     OW80544   4.822   8.867   8.296  0.2863 -0.4223  0.3023
57810SOL    HW180545   4.860   8.794   8.246  3.1619 -0.4840  2.2858
57810SOL    HW280546   4.751   8.827   8.346 -0.5051 -1.0397 -1.2498
57811SOL     OW80547   3.073   1.027   3.985  0.4929 -0.6646  0.0009
57811SOL    HW180548   3.047   1.035   4.076  1.0406  1.6958  0.0319
57811SOL    HW280549   3.168   1.031   3.986  0.5302 -1.1517 -0.6472
57812SOL     OW80550   6.798   5.440   7.037 -0.5242  0.3380  0.0835
57812SOL    HW180551   6.885   5.453   7.074  0.0871 -0.4919 -0.9701
57812SOL    HW280552   6.739   5.446   7.111  0.4981  0.3149  0.9252
57813SOL     OW80553   9.640   5.841  10.887 -0.0793 -0.3025 -0.3912
57813SOL    HW180554   9.628   5.932  10.862 -0.2902  0.1123  1.1160
57813SOL    HW280555   9.688   5.801  10.814  0.4337  1.1194 -0.8483
57814SOL     OW80556   4.083  11.368  11.332 -0.1089  0.6523  0.0787
57814SOL    HW180557   4.167  11.328  11.311 -1.8595 -2.7117 -1.3408
57814SOL    HW280558   4.059  11.330  11.417 -0.7315  0.6136 -0.1076
57815SOL     OW80559   5.705   9.486   1.890 -0.4873  0.4169  0.4220
57815SOL    HW180560   5.720   9.410   1.945  1.2586  0.1266 -0.3883
57815SOL    HW280561   5.635   9.535   1.934 -0.1964 -0.5742  2.0467
57816SOL     OW80562   1.219  12.132   3.240 -0.5867  0.1573 -0.5258
57816SOL    HW180563   1.197  12.199   3.305  1.3385 -0.4018  0.8033
57816SOL    HW280564   1.138  12.083   3.227 -1.4523  1.3647  0.1479
57817SOL     OW80565  12.654   3.398   3.419  0.2510  0.0025 -0.0349
57817SOL    HW180566  12.735   3.363   3.382  0.3919 -1.0197  1.1760
57817SOL    HW280567  12.593   3.325   3.416 -0.0035  0.1575  0.8620
57818SOL     OW80568   8.894   2.464   0.300  0.0027 -0.0477  0.2391
57818SOL    HW180569   8.968   2.443   0.243  0.4502 -0.7568  1.0469
57818SOL    HW280570   8.896   2.560   0.307 -1.4710  0.3052 -2.7306
57819SOL     OW80571   7.008   5.749   9.194  0.0324 -0.1234 -0.2144
57819SOL    HW180572   7.048   5.797   9.122  0.2945 -0.5403 -0.3466
57819SOL    HW280573   6.915   5.747   9.173  0.3429 -2.1314 -1.6727
57820SOL     OW80574   9.101   3.348  12.478  0.1739  0.2652 -0.0642
57820SOL    HW180575   9.175   3.382  12.427  0.7262  0.0750  0.5888
57820SOL    HW280576   9.108   3.393  12.562  0.2483 -0.6206  0.4146
57821SOL     OW80577   9.874  12.754   7.306  0.1561  0.0335  0.3816
57821SOL    HW180578   9.846  12.674   7.351 -0.0672  0.3630  0.8393
57821SOL    HW280579   9.940  12.792   7.364 -1.3691  1.3671  1.3267
57822SOL     OW80580   9.214   9.166   6.975 -0.1423 -0.6357  0.2103
57822SOL    HW180581   9.306   9.170   7.003 -0.3992  0.7664  0.9439
57822SOL    HW280582   9.209   9.088   6.920  1.6578 -0.3401 -0.4304
57823SOL     OW80583   6.255  11.948   0.065  0.3246  0.3062  0.2494
57823SOL    HW180584   6.316  11.993   0.123 -0.6726  0.5954  1.1199
57823SOL    HW280585   6.178  12.006   0.062 -1.3836 -1.6510  2.1294
57824SOL     OW80586   4.845   8.090   2.020 -0.7176 -0.0454 -0.6610
57824SOL    HW180587   4.823   8.012   2.071 -1.3938  0.4490 -0.1706
57824SOL    HW280588   4.928   8.120   2.056 -0.1794 -0.8378 -1.2159
57825SOL     OW80589   2.518  11.530   6.405 -0.2764  0.6447  0.5974
57825SOL    HW180590   2.493  11.566   6.490 -1.4738 -0.7537  0.8909
57825SOL    HW280591   2.613  11.538   6.402  0.0863 -1.3026  3.1093
57826SOL     OW80592   4.486   8.330   0.764 -0.5234  0.0066  0.3677
57826SOL    HW180593   4.426   8.286   0.705 -0.2911  0.4629 -0.2133
57826SOL    HW280594   4.550   8.372   0.707  0.2872 -0.3756  0.9728
57827SOL     OW80595   0.265   6.821   3.086  0.4428  0.4085 -0.3521
57827SOL    HW180596   0.306   6.780   3.162 -0.9536  0.5131  0.4921
57827SOL    HW280597   0.184   6.859   3.120 -0.5322 -0.0857 -2.0245
57828SOL     OW80598   0.085   5.953   8.864 -0.4124  0.1372 -0.6413
57828SOL    HW180599   0.174   5.923   8.884 -0.7263 -0.3615  0.0705
57828SOL    HW280600   0.076   6.034   8.913 -1.3914 -1.3927  1.9166
57829SOL     OW80601   2.381   6.659   1.150  0.2142  0.1993 -0.3613
57829SOL    HW180602   2.342   6.630   1.232 -0.3600  1.2634 -0.2496
57829SOL    HW280603   2.475   6.651   1.164  0.3158  3.3182  1.5739
57830SOL     OW80604   5.407   8.627  11.977 -0.2355  0.2110  0.3228
57830SOL    HW180605   5.478   8.659  11.921  0.4987 -0.9844  0.5178
57830SOL    HW280606   5.451   8.570  12.041 -1.2643  0.1797  1.0376
57831SOL     OW80607   8.711  12.829   1.660 -0.3697  0.6303  0.2653
57831SOL    HW180608   8.764  12.766   1.611 -1.0801  0.0518  0.2327
57831SOL    HW280609   8.649  12.864   1.595 -1.2006 -0.0100  0.7055
57832SOL     OW80610   4.279  10.076   0.337 -0.1305 -0.0963 -0.1443
57832SOL    HW180611   4.324  10.079   0.422 -0.6979  0.7625  0.1402
57832SOL    HW280612   4.341  10.032   0.279  0.7295  0.2893  0.4511
57833SOL     OW80613   3.986   2.332   9.224  0.2045  0.0130 -0.3269
57833SOL    HW180614   4.011   2.241   9.208 -0.6638 -0.5396  1.2142
57833SOL    HW280615   3.892   2.327   9.244  0.4889  1.0080  1.4032
57834SOL     OW80616   6.293  11.158   7.840 -0.1818 -0.0058  0.2798
57834SOL    HW180617   6.360  11.094   7.859 -0.1709 -0.1825 -0.3463
57834SOL    HW280618   6.333  11.218   7.776 -0.3433  0.3558  0.5121
57835SOL     OW80619   7.047   2.894   5.952 -0.0443 -0.1447 -0.3076
57835SOL    HW180620   7.092   2.928   6.029 -0.2444 -0.2101 -0.1604
57835SOL    HW280621   7.088   2.939   5.878 -0.1264  0.2198 -0.1318
57836SOL     OW80622   6.081   5.055   8.610 -0.3502 -0.4995 -0.3016
57836SOL    HW180623   6.136   4.999   8.555  1.6955 -0.9792  2.0087
57836SOL    HW280624   6.086   5.142   8.569  1.7060 -0.6719 -0.5161
57837SOL     OW80625  12.254   2.541   8.565 -0.0076  0.3021  0.3035
57837SOL    HW180626  12.296   2.532   8.650 -0.2565  1.1598  0.5214
57837SOL    HW280627  12.275   2.630   8.537 -0.5366  0.2739 -0.2060
57838SOL     OW80628   0.946  11.888  12.221  0.4480  0.2206 -0.2116
57838SOL    HW180629   0.902  11.810  12.188 -0.0971 -0.1128  1.2608
57838SOL    HW280630   0.907  11.960  12.171  0.9159 -0.4100 -1.5433
57839SOL     OW80631   8.281   1.165   7.234 -0.1943 -0.0072 -0.4162
57839SOL    HW180632   8.260   1.205   7.150  0.9731  1.1529 -0.1960
57839SOL    HW280633   8.232   1.083   7.235  0.0557 -0.2131 -2.3694
57840SOL     OW80634  10.372  11.065   3.008  0.9724 -0.0548 -0.3277
57840SOL    HW180635  10.326  11.146   3.031  2.0477  0.4360  0.1195
57840SOL    HW280636  10.405  11.032   3.091  0.3278 -1.1028 -0.4759
57841SOL     OW80637   5.027  10.966  11.586  0.1687  0.3693  0.0862
57841SOL    HW180638   5.049  10.877  11.558 -1.2115  0.2930 -0.8586
57841SOL    HW280639   5.111  11.007  11.604  0.8370 -1.0821  0.4206
57842SOL     OW80640   1.220   8.447   7.176 -0.1041 -0.1427 -0.7506
57842SOL    HW180641   1.257   8.439   7.088  0.6241  0.6572 -0.5327
57842SOL    HW280642   1.293   8.426   7.234  0.1787  1.9071 -0.3001
57843SOL     OW80643  11.585   5.067   4.430 -0.2973  0.5126 -0.1801
57843SOL    HW180644  11.578   4.994   4.369 -1.7046  1.4505 -1.2029
57843SOL    HW280645  11.600   5.026   4.516 -0.1249 -0.9053 -0.8671
57844SOL     OW80646   3.422  11.667   2.185  0.1473 -0.3046  0.1885
57844SOL    HW180647   3.494  11.682   2.123  0.5195 -0.2750  0.6205
57844SOL    HW280648   3.344  11.665   2.131  0.4206  0.1730 -0.2319
57845SOL     OW80649   4.991   1.650   6.212 -0.3467 -0.0481 -0.2366
57845SOL    HW180650   5.026   1.655   6.301  1.4752  0.1276 -0.9172
57845SOL    HW280651   4.921   1.715   6.210 -0.4107 -0.0540  1.0544
57846SOL     OW80652  10.913   9.064  11.286  0.2361  0.2854  0.2655
57846SOL    HW180653  10.953   9.052  11.200  0.0574  0.4275  0.1627
57846SOL    HW280654  10.982   9.041  11.348  0.1331 -0.5506  0.0800
57847SOL     OW80655   4.054   9.071   7.733 -0.4749 -0.1975 -0.3107
57847SOL    HW180656   4.102   9.082   7.816 -0.4943 -0.6294 -0.2391
57847SOL    HW280657   4.113   9.106   7.667  1.0448 -2.9161 -0.5393
57848SOL     OW80658   6.739   2.546   8.110 -0.0326  0.9368 -0.2378
57848SOL    HW180659   6.774   2.512   8.192 -0.2409 -0.5761 -0.7453
57848SOL    HW280660   6.644   2.544   8.121 -0.1370 -0.9019 -1.0858
57849SOL     OW80661   0.811   2.937   2.064 -0.5290  0.5818 -0.3292
57849SOL    HW180662   0.750   3.001   2.099  1.4519  2.2259  0.2587
57849SOL    HW280663   0.770   2.852   2.084 -1.8125  1.5641  1.5456
57850SOL     OW80664  12.267  10.117   2.937  0.2448 -0.4222 -0.1831
57850SOL    HW180665  12.202  10.186   2.948 -0.2257 -0.8476 -0.2762
57850SOL    HW280666  12.341  10.160   2.894  0.0175  0.0544 -0.1011
57851SOL     OW80667   4.752   6.168   0.700  0.2700 -0.6294 -0.1111
57851SOL    HW180668   4.820   6.109   0.666  1.0539 -0.0984  0.5246
57851SOL    HW280669   4.691   6.110   0.745  0.7162 -1.0330 -0.0142
57852SOL     OW80670   8.542   3.496   0.127  0.3277 -0.2180 -0.1219
57852SOL    HW180671   8.458   3.502   0.082  0.8287 -0.8171 -1.1914
57852SOL    HW280672   8.565   3.586   0.148 -0.0339  0.0568 -0.8832
57853SOL     OW80673   4.689  12.278   6.557  0.2134  0.1681 -0.1341
57853SOL    HW180674   4.728  12.312   6.477 -1.0304  1.1978 -0.3317
57853SOL    HW280675   4.761  12.235   6.603  1.6916  2.3565 -0.2714
57854SOL     OW80676   2.315   8.234   7.345 -0.5934 -0.3096  0.4269
57854SOL    HW180677   2.320   8.309   7.286 -1.9160  0.8470  1.6963
57854SOL    HW280678   2.305   8.159   7.287  0.8869  0.4452 -0.8934
57855SOL     OW80679   7.276  10.733   4.950 -0.0458 -0.7087 -0.0216
57855SOL    HW180680   7.328  10.709   4.874  1.3573  1.8540  0.0293
57855SOL    HW280681   7.327  10.704   5.025 -1.7647 -3.9028  0.0902
57856SOL     OW80682  11.253   7.372   6.554  0.4487 -0.0543 -0.3014
57856SOL    HW180683  11.256   7.448   6.496  0.3434  0.5015  0.4059
57856SOL    HW280684  11.344   7.353   6.574  0.4268  1.0630  1.0037
57857SOL     OW80685   0.095   6.310   2.057 -0.2100  0.4760 -0.4896
57857SOL    HW180686   0.095   6.321   2.152  0.1511 -1.3150 -0.2488
57857SOL    HW280687   0.003   6.303   2.034 -0.2675  0.2492 -0.1939
57858SOL     OW80688   7.297   9.786   9.493  0.7371  0.4709  0.4878
57858SOL    HW180689   7.310   9.734   9.572 -0.2670 -2.0435 -0.8805
57858SOL    HW280690   7.376   9.772   9.442  0.1410 -0.4236 -0.2254
57859SOL     OW80691   1.450   8.583   2.652  0.4060 -0.2768  0.0609
57859SOL    HW180692   1.456   8.606   2.744  1.4484 -0.0608 -0.0520
57859SOL    HW280693   1.502   8.650   2.607  1.4096 -1.4113 -0.5069
57860SOL     OW80694   6.731   8.883   0.302 -0.1383 -0.0398  0.0248
57860SOL    HW180695   6.711   8.965   0.258 -0.5847 -1.1560 -1.9708
57860SOL    HW280696   6.657   8.826   0.282  1.7726 -2.0760 -1.7927
57861SOL     OW80697   5.604   1.589   2.626 -0.4701 -0.2270  0.8809
57861SOL    HW180698   5.585   1.682   2.613  0.6980  0.1733  1.8866
57861SOL    HW280699   5.526   1.544   2.593  0.0372  0.9250 -2.2260
57862SOL     OW80700   2.290   6.622   1.551  0.0785  0.1257 -0.4719
57862SOL    HW180701   2.289   6.554   1.618 -2.8538  0.1019 -0.4284
57862SOL    HW280702   2.261   6.702   1.596  0.3240  0.6530 -1.2197
57863SOL     OW80703   7.799  12.543   3.292 -0.0089 -0.2865  0.4968
57863SOL    HW180704   7.846  12.566   3.212  0.0989  0.0892  0.6640
57863SOL    HW280705   7.742  12.618   3.309 -1.2150 -1.0388 -0.0998
57864SOL     OW80706   6.974   7.386  11.228  0.0453 -0.3424  0.3800
57864SOL    HW180707   7.034   7.346  11.290 -1.5377 -2.7492  0.4842
57864SOL    HW280708   7.001   7.352  11.143  1.3275  1.8435 -0.1734
57865SOL     OW80709   4.685   5.023   6.982 -0.0102  0.3163 -0.2350
57865SOL    HW180710   4.677   5.093   6.917 -1.3551  0.6783  0.3058
57865SOL    HW280711   4.691   5.068   7.066  0.8853 -0.1794 -0.0193
57866SOL     OW80712  10.064   5.915  11.246  0.1466 -0.3697  0.0020
57866SOL    HW180713  10.109   5.999  11.242 -0.1037 -0.2051  0.5836
57866SOL    HW280714   9.978   5.932  11.207  0.3656 -0.5498 -0.5860
57867SOL     OW80715   8.614   5.042   5.764  0.4890 -0.1284  0.0217
57867SOL    HW180716   8.577   4.960   5.798 -0.3464  0.4739  0.6090
57867SOL    HW280717   8.700   5.048   5.806  0.2137 -0.2971  0.6187
57868SOL     OW80718   5.449   1.207   1.019 -0.1474  0.0202 -0.7308
57868SOL    HW180719   5.417   1.295   1.038 -1.9101 -1.0612  1.9497
57868SOL    HW280720   5.494   1.180   1.099 -0.6548 -1.9063 -1.0295
57869SOL     OW80721   7.961   6.714   6.921  0.1313 -0.2547  0.0115
57869SOL    HW180722   8.012   6.648   6.969  0.2694 -2.6312 -3.0753
57869SOL    HW280723   8.014   6.733   6.843 -0.0605  3.4371  0.5848
57870SOL     OW80724   0.291   1.430  12.866  0.3408 -0.1488  0.2064
57870SOL    HW180725   0.333   1.428  12.779  2.0745 -0.0166  0.9996
57870SOL    HW280726   0.293   1.339  12.896  0.0596 -0.1349  0.2746
57871SOL     OW80727   7.441  10.544   2.158 -0.3278 -0.4910 -0.4398
57871SOL    HW180728   7.388  10.491   2.098 -0.0673  0.1636 -1.2822
57871SOL    HW280729   7.400  10.533   2.243 -1.5470 -0.3504 -0.9869
57872SOL     OW80730   7.850  12.775   7.147  0.7597 -0.0594 -0.4592
57872SOL    HW180731   7.829  12.860   7.186  0.9609  0.6015 -1.7122
57872SOL    HW280732   7.778  12.759   7.086  1.2010 -0.3301 -0.9191
57873SOL     OW80733   5.339   3.397   5.417 -0.8841  0.1428 -0.5211
57873SOL    HW180734   5.275   3.325   5.413 -0.5043 -0.2406  0.0627
57873SOL    HW280735   5.401   3.370   5.485 -1.1311  1.3501  0.2224
57874SOL     OW80736   0.583  10.728   0.488  0.4345  0.6972  0.1925
57874SOL    HW180737   0.532  10.809   0.488 -1.0747 -0.2010  0.9462
57874SOL    HW280738   0.674  10.756   0.477 -0.1535  2.3968 -0.6692
57875SOL     OW80739   5.247   5.988   5.833 -0.4671 -0.2508 -0.1107
57875SOL    HW180740   5.327   5.950   5.870 -0.4603 -0.3233 -0.1984
57875SOL    HW280741   5.218   6.051   5.899 -0.6492 -0.6305  0.1801
57876SOL     OW80742   4.871   5.396   8.880 -0.0572 -0.9872 -0.0741
57876SOL    HW180743   4.929   5.324   8.856 -0.4277 -0.7032 -1.9928
57876SOL    HW280744   4.857   5.385   8.974  2.0053 -1.8386  0.1981
57877SOL     OW80745   6.486   5.092   7.767  0.1039  0.0545  0.3706
57877SOL    HW180746   6.507   5.032   7.839 -0.5312  0.6446  1.0609
57877SOL    HW280747   6.444   5.166   7.809 -2.1020 -0.4566 -0.7940
57878SOL     OW80748  11.493   0.108   6.462 -0.2286 -0.2730 -0.3882
57878SOL    HW180749  11.580   0.072   6.450 -0.2114 -0.1933 -0.5026
57878SOL    HW280750  11.498   0.158   6.544  0.1674  0.7341 -1.0039
57879SOL     OW80751   0.332   8.882   4.209  0.1040 -0.2401  0.0815
57879SOL    HW180752   0.416   8.928   4.204  0.2852 -0.6139 -0.3910
57879SOL    HW280753   0.286   8.923   4.282 -0.3390  1.6850 -1.2122
57880SOL     OW80754   1.517   4.580   7.987 -0.4080 -0.0154  0.3320
57880SOL    HW180755   1.431   4.622   7.977 -0.2723  0.0698 -0.6546
57880SOL    HW280756   1.558   4.626   8.060 -1.2542 -0.1503  0.9006
57881SOL     OW80757   3.950   4.699  10.943 -0.0825 -0.0183 -0.2813
57881SOL    HW180758   4.005   4.629  10.909 -1.0037 -0.6897 -0.4324
57881SOL    HW280759   3.903   4.733  10.867 -0.3163  0.1540 -0.0628
57882SOL     OW80760   1.898   1.672   6.656  0.0282  0.6147 -0.2005
57882SOL    HW180761   1.917   1.751   6.604 -2.6141  1.0371 -0.6953
57882SOL    HW280762   1.912   1.600   6.595  1.0307  0.7886 -0.1930
57883SOL     OW80763   2.335  10.233   6.012  0.1565  0.0465  0.3998
57883SOL    HW180764   2.285  10.195   6.085 -0.0752  0.7991  0.6448
57883SOL    HW280765   2.426  10.211   6.031  0.1355  0.5472  1.1207
57884SOL     OW80766   7.895   8.419   2.455 -0.3241  0.0568 -0.2473
57884SOL    HW180767   7.972   8.365   2.472  0.0964  0.3181 -1.2570
57884SOL    HW280768   7.916   8.467   2.375 -1.0054  1.1376  0.2015
57885SOL     OW80769  11.571   4.385   9.064 -0.3413  0.7586 -0.2826
57885SOL    HW180770  11.512   4.460   9.073  0.7522  1.5985  0.0802
57885SOL    HW280771  11.595   4.362   9.154  0.6716  1.0870 -0.4497
57886SOL     OW80772   6.366   9.631   2.964  0.2237  0.5208 -0.8143
57886SOL    HW180773   6.434   9.566   2.952  0.7459  0.9695 -0.3302
57886SOL    HW280774   6.288   9.581   2.990  1.3674  0.2850  2.6290
57887SOL     OW80775   2.954  12.865   8.951 -0.1457  0.3863 -0.3855
57887SOL    HW180776   2.932  12.782   8.994  2.3010  0.3793  0.9855
57887SOL    HW280777   2.901  12.864   8.871  0.1298 -2.7603 -0.6837
57888SOL     OW80778   4.188  10.198  11.035  0.1394  0.1532  0.2613
57888SOL    HW180779   4.151  10.117  10.999 -0.5755  1.0049 -1.0205
57888SOL    HW280780   4.277  10.175  11.060  0.0076 -0.9824 -0.2468
57889SOL     OW80781   5.142  12.078   8.871 -0.5072 -0.1291 -0.3409
57889SOL    HW180782   5.220  12.033   8.840  0.7032  1.4871  0.2328
57889SOL    HW280783   5.108  12.123   8.794  0.1113  0.5295 -0.2343
57890SOL     OW80784   8.663  11.782  10.033  0.1975 -0.2795 -0.4676
57890SOL    HW180785   8.655  11.839   9.956 -1.0425 -1.8141 -1.5449
57890SOL    HW280786   8.756  11.757  10.035  0.1712 -0.5668 -1.7587
57891SOL     OW80787   1.115   6.763   0.146  0.2617  0.6613  0.8543
57891SOL    HW180788   1.140   6.836   0.090  0.8527  0.7254  1.1866
57891SOL    HW280789   1.148   6.686   0.100  0.0087  0.6385  0.7091
57892SOL     OW80790   0.912  11.591   4.004 -0.2980  0.4554  0.8178
57892SOL    HW180791   0.975  11.637   3.948 -1.9306  0.7291 -0.9255
57892SOL    HW280792   0.888  11.513   3.953  0.4121 -0.9557  2.5428
57893SOL     OW80793  10.625   2.368  10.079 -0.1126 -0.1813  0.5826
57893SOL    HW180794  10.630   2.277  10.050  0.3013  0.0771 -0.1745
57893SOL    HW280795  10.715   2.392  10.102 -0.0107  0.3895 -0.3520
57894SOL     OW80796   3.684   6.712   1.593 -0.1599 -0.5156 -0.2513
57894SOL    HW180797   3.767   6.741   1.555  0.4709 -1.8278  0.0652
57894SOL    HW280798   3.618   6.769   1.553  1.0607  1.9701  1.0120
57895SOL     OW80799  10.702   8.797   9.137 -0.4557  0.1644 -0.1926
57895SOL    HW180800  10.742   8.711   9.149  1.6569  1.1296  0.1011
57895SOL    HW280801  10.729   8.848   9.214 -0.3694  1.5470 -1.0944
57896SOL     OW80802   7.107   5.759   1.199 -0.3495 -0.6869 -0.4002
57896SOL    HW180803   7.105   5.667   1.227 -0.9650 -0.8191 -0.8407
57896SOL    HW280804   7.184   5.795   1.241 -1.8103 -0.5779  2.4083
57897SOL     OW80805   5.918   1.322   0.841 -0.3564 -0.1040 -0.3314
57897SOL    HW180806   5.875   1.287   0.920 -0.2677 -0.1254 -0.2927
57897SOL    HW280807   5.876   1.407   0.827  0.0887  0.1957  0.1228
57898SOL     OW80808  10.012   5.813   6.536  0.2914  0.6627 -0.3258
57898SOL    HW180809   9.979   5.769   6.614 -1.2490  2.3092  0.0244
57898SOL    HW280810   9.947   5.796   6.469  0.7347  0.6867 -0.7683
57899SOL     OW80811   3.026   1.480   1.843 -0.3471 -0.2901  0.1733
57899SOL    HW180812   3.009   1.414   1.775 -0.6120  0.6110 -0.6526
57899SOL    HW280813   2.997   1.562   1.804  2.8984  0.8612 -0.1139
57900SOL     OW80814  11.265   5.572   8.476 -0.0466 -0.1611  0.0141
57900SOL    HW180815  11.178   5.535   8.461  0.4635 -0.8537 -1.4050
57900SOL    HW280816  11.268   5.649   8.418 -0.0782  0.4988  0.8613
57901SOL     OW80817  11.520  12.062   1.990 -0.0151 -0.6089  0.0030
57901SOL    HW180818  11.533  12.143   1.941 -1.0931 -0.3298  0.1637
57901SOL    HW280819  11.546  12.083   2.080 -0.5137 -0.3701  0.0937
57902SOL     OW80820  11.531  11.029   1.155 -0.2084 -0.3455 -0.2491
57902SOL    HW180821  11.525  10.967   1.082  0.5586 -1.8241  0.8868
57902SOL    HW280822  11.617  11.011   1.194  0.7099  2.4734 -0.7446
57903SOL     OW80823   5.606   6.658   4.627  0.3645 -0.4030 -0.2916
57903SOL    HW180824   5.587   6.598   4.700  0.0667  0.7969  0.6575
57903SOL    HW280825   5.660   6.726   4.666 -1.2556  1.2058 -0.7467
57904SOL     OW80826  12.570   9.850   7.101 -0.6063 -0.1423 -0.8798
57904SOL    HW180827  12.649   9.900   7.082 -0.7399  0.0687 -0.8860
57904SOL    HW280828  12.523   9.902   7.165  1.1440 -2.1477  2.2696
57905SOL     OW80829  10.265   2.572   3.560  0.4682 -0.0240 -0.2433
57905SOL    HW180830  10.293   2.621   3.482 -1.3422  0.1867 -0.8221
57905SOL    HW280831  10.333   2.506   3.573  0.8423 -0.0286 -1.9826
57906SOL     OW80832   8.210   4.527   2.953  0.2744  0.9352  0.6166
57906SOL    HW180833   8.228   4.433   2.950 -2.3191  0.3372  1.2408
57906SOL    HW280834   8.258   4.563   2.879 -1.2156 -1.4194 -1.6736
57907SOL     OW80835   3.495   8.716   5.923  0.4188 -1.2850  0.5103
57907SOL    HW180836   3.535   8.650   5.979  1.0867 -1.5639 -0.2750
57907SOL    HW280837   3.563   8.739   5.859  0.4424  0.6287  1.1377
57908SOL     OW80838   6.791  10.180   5.106  0.4595 -0.1013 -0.3672
57908SOL    HW180839   6.876  10.169   5.065  1.2404 -0.2830  1.2365
57908SOL    HW280840   6.740  10.104   5.077  1.3014 -0.7212 -0.2518
57909SOL     OW80841  11.408   1.574   5.867  0.7587  0.2369 -0.3874
57909SOL    HW180842  11.365   1.489   5.855 -0.3551  0.7038  0.1418
57909SOL    HW280843  11.351   1.636   5.822  0.2906  1.0207  1.1998
57910SOL     OW80844   0.621   4.582   1.370  0.2978  0.2277  0.4803
57910SOL    HW180845   0.563   4.515   1.404  0.6798 -0.6428 -0.5101
57910SOL    HW280846   0.708   4.542   1.373  0.6132  0.8910  0.4145
57911SOL     OW80847   8.058   2.944   7.392  0.1160 -0.2431  0.4597
57911SOL    HW180848   8.024   2.920   7.306 -0.9224 -2.2613  1.3726
57911SOL    HW280849   8.060   3.040   7.391  0.7173 -0.2211 -1.9969
57912SOL     OW80850   4.526   0.366  12.819 -0.5519  0.2681 -0.2703
57912SOL    HW180851   4.498   0.395  12.906 -2.5577 -0.5821 -0.5703
57912SOL    HW280852   4.504   0.273  12.817  1.8542 -0.3456 -0.8162
57913SOL     OW80853   9.826   2.940   1.599  0.1710  0.8654 -0.6521
57913SOL    HW180854   9.908   2.965   1.557 -0.2119  1.0852 -1.2807
57913SOL    HW280855   9.784   2.882   1.536 -0.7490  1.7808 -0.9056
57914SOL     OW80856   4.687   8.149   0.014 -0.2900 -0.6337 -0.4778
57914SOL    HW180857   4.701   8.164   0.108 -0.0204 -1.1744 -0.4285
57914SOL    HW280858   4.768   8.108  -0.016  0.1201  0.6957 -1.2184
57915SOL     OW80859   0.047  12.008   5.499 -0.3030  0.0625 -0.0707
57915SOL    HW180860  -0.008  11.933   5.519 -1.4528  0.5819 -1.1327
57915SOL    HW280861  -0.014  12.082   5.494  0.5824  0.7800 -0.6085
57916SOL     OW80862  10.390  12.382   4.978  0.2983 -0.2844  0.3934
57916SOL    HW180863  10.484  12.364   4.979  0.3874  0.1670  0.9725
57916SOL    HW280864  10.383  12.473   5.006 -0.3329 -0.4260  0.7127
57917SOL     OW80865   6.005   0.942   7.815  0.9366 -0.1258 -0.1422
57917SOL    HW180866   5.958   0.884   7.873 -0.4657  0.4643 -0.6394
57917SOL    HW280867   5.937   0.989   7.767  2.0031 -0.8883 -2.5841
57918SOL     OW80868   2.081  10.416   2.093  0.2758 -0.6058 -0.1660
57918SOL    HW180869   2.009  10.479   2.101  0.7255 -0.0850 -0.1830
57918SOL    HW280870   2.038  10.330   2.097 -0.0093 -0.5576  4.9270
57919SOL     OW80871   6.924   6.776  12.306 -0.2849  0.4429  0.3756
57919SOL    HW180872   7.009   6.733  12.294 -0.6433 -0.0736 -0.3869
57919SOL    HW280873   6.919   6.794  12.400  2.1723  3.6243  0.0662
57920SOL     OW80874   6.789   5.500   3.959 -0.5170  0.0305 -0.5962
57920SOL    HW180875   6.753   5.588   3.966 -0.7261 -0.1313  0.7402
57920SOL    HW280876   6.744   5.450   4.028  1.5146 -0.4266  0.4848
57921SOL     OW80877   5.491   0.085   3.107 -0.3752 -0.1443 -0.2632
57921SOL    HW180878   5.568   0.031   3.122 -1.2187 -0.8536  1.9400
57921SOL    HW280879   5.519   0.150   3.043  1.6075 -1.2481 -0.5888
57922SOL     OW80880  10.482  12.591   0.297  0.2488  0.5317  0.7984
57922SOL    HW180881  10.527  12.611   0.379 -1.1709  0.0045  1.7541
57922SOL    HW280882  10.401  12.643   0.301  0.7900  1.6018 -0.9491
57923SOL     OW80883   0.510   1.678   6.436 -0.1393  0.5951  0.0581
57923SOL    HW180884   0.477   1.623   6.364  0.9797  1.6618 -1.3328
57923SOL    HW280885   0.452   1.658   6.510 -0.4210 -1.6393 -0.6891
57924SOL     OW80886   0.403   6.637   3.923  0.0757  0.3307  0.4222
57924SOL    HW180887   0.486   6.626   3.876 -0.4602 -0.4382 -0.3525
57924SOL    HW280888   0.383   6.550   3.958 -1.5046 -0.0256 -1.2599
57925SOL     OW80889   8.464   9.291  11.820  0.0202 -0.2853  0.1205
57925SOL    HW180890   8.428   9.217  11.772 -1.0911  0.6719 -0.5763
57925SOL    HW280891   8.443   9.273  11.912 -0.2535 -0.8278 -0.0450
57926SOL     OW80892  12.483   7.182   9.879 -0.8080  0.1060  0.9115
57926SOL    HW180893  12.409   7.126   9.905 -2.2456  1.0332 -0.9497
57926SOL    HW280894  12.443   7.252   9.828  1.3761  0.5972 -0.2410
57927SOL     OW80895  12.221  12.497   1.956  0.4004  0.4394 -0.1464
57927SOL    HW180896  12.178  12.459   2.033 -0.4427  0.7282 -0.4642
57927SOL    HW280897  12.282  12.561   1.993  0.5246  0.0679  0.3116
57928SOL     OW80898  10.389   0.191   5.854  0.1729  0.1725  0.1142
57928SOL    HW180899  10.402   0.231   5.940  2.5659  2.1728 -1.0519
57928SOL    HW280900  10.357   0.263   5.799 -0.0156 -0.7311 -1.0054
57929SOL     OW80901   0.941   4.990  12.256 -0.2958 -0.4753 -0.1840
57929SOL    HW180902   1.022   4.952  12.220  0.5118  1.6342 -0.7444
57929SOL    HW280903   0.874   4.967  12.192  0.2597 -0.5611 -0.7477
57930SOL     OW80904   6.874   8.320   5.179 -0.1193  0.7401 -0.3212
57930SOL    HW180905   6.955   8.354   5.141 -0.1437  1.3974  0.1855
57930SOL    HW280906   6.847   8.249   5.120  1.1710  0.0631 -0.1326
57931SOL     OW80907   4.498   8.878   1.977 -0.3203 -0.1826 -0.0269
57931SOL    HW180908   4.579   8.915   1.942 -0.8170 -0.5331 -1.6249
57931SOL    HW280909   4.493   8.912   2.067  0.2998  1.9110 -0.7324
57932SOL     OW80910  12.053   4.176  12.960  0.3399  0.2335  0.4055
57932SOL    HW180911  12.103   4.219  13.030 -1.9319  0.5868  1.8918
57932SOL    HW280912  12.034   4.247  12.898 -1.0805  0.8573  1.4991
57933SOL     OW80913  10.233   4.120   1.803  0.2711 -0.0993 -0.4303
57933SOL    HW180914  10.299   4.084   1.744  0.2290 -0.1690 -0.4343
57933SOL    HW280915  10.283   4.157   1.876  0.2776 -0.8606 -0.0415
57934SOL     OW80916   0.006   8.181  12.386  0.6279  0.7941 -0.4286
57934SOL    HW180917  -0.049   8.119  12.433  0.6993  0.7695 -0.3776
57934SOL    HW280918  -0.001   8.155  12.294 -0.0943  1.2833 -0.5217
57935SOL     OW80919  10.519   9.627   1.008 -0.1070 -0.2516  0.5532
57935SOL    HW180920  10.570   9.701   1.041  1.2732 -0.6095 -0.6685
57935SOL    HW280921  10.501   9.650   0.917 -0.7787 -0.8601  0.5289
57936SOL     OW80922   8.889  12.050   3.459  0.0184 -0.2894  0.7800
57936SOL    HW180923   8.960  12.067   3.520 -0.4611  0.2014  1.2255
57936SOL    HW280924   8.931  12.019   3.379  0.8456  1.2587  0.5752
57937SOL     OW80925  10.831  12.037   8.779 -0.1799  0.1672  0.4320
57937SOL    HW180926  10.828  12.022   8.874 -1.3129  1.1958  0.5934
57937SOL    HW280927  10.770  12.110   8.765 -0.4204 -0.3057 -1.1609
57938SOL     OW80928   5.944   4.339   8.769 -0.3675  0.7283  0.1205
57938SOL    HW180929   5.900   4.423   8.778  0.6033  1.4994 -1.7536
57938SOL    HW280930   6.036   4.358   8.784 -0.2661 -0.2519  0.8440
57939SOL     OW80931  12.773   4.906   7.626 -0.2375  0.2004  0.5930
57939SOL    HW180932  12.785   4.836   7.690  1.7101 -0.7287 -0.6830
57939SOL    HW280933  12.862   4.928   7.598 -0.9890  1.0893 -1.2437
57940SOL     OW80934  12.585   5.644   4.948 -1.1543  0.0082  0.4051
57940SOL    HW180935  12.516   5.691   4.900  0.7048  0.7584 -1.6936
57940SOL    HW280936  12.599   5.564   4.897 -0.4621 -0.1208  0.7924
57941SOL     OW80937   6.844   0.147  10.066  0.1930  0.3512 -0.5480
57941SOL    HW180938   6.762   0.132  10.114 -0.3920 -0.5186 -1.7842
57941SOL    HW280939   6.884   0.060  10.057  0.4402  0.5378 -1.3680
57942SOL     OW80940   9.332   7.754  12.338  0.4776  0.2318  0.2166
57942SOL    HW180941   9.385   7.692  12.288 -0.5859 -0.6215  0.1240
57942SOL    HW280942   9.268   7.787  12.275  1.3605  1.8778  0.1078
57943SOL     OW80943   3.094  12.347   1.281  0.1273  0.5445 -0.2321
57943SOL    HW180944   3.069  12.257   1.259 -0.1619  0.6244 -0.2374
57943SOL    HW280945   3.014  12.385   1.319  0.5991  0.4125  0.9389
57944SOL     OW80946   6.464   6.222   4.512 -0.2075  0.1637  0.6989
57944SOL    HW180947   6.495   6.179   4.591  1.0813 -2.4632 -1.1036
57944SOL    HW280948   6.543   6.259   4.471 -1.1414  3.7217  1.7070
57945SOL     OW80949   0.655   3.538   5.510  0.2031  0.2526 -0.4623
57945SOL    HW180950   0.638   3.504   5.421 -0.6344 -0.0986 -0.1809
57945SOL    HW280951   0.577   3.589   5.531 -0.4795 -1.2401  0.8047
57946SOL     OW80952   3.594   8.958   1.857 -0.4122  0.2064  0.4596
57946SOL    HW180953   3.572   9.051   1.861 -1.3585  0.0628 -0.6835
57946SOL    HW280954   3.687   8.956   1.836 -0.5803  0.9072 -0.3965
57947SOL     OW80955   6.987  12.712   5.131  0.3186  0.2756 -0.2678
57947SOL    HW180956   7.072  12.735   5.093  0.9464 -1.2524  0.1494
57947SOL    HW280957   7.005  12.637   5.187 -1.3137 -0.0821 -0.1669
57948SOL     OW80958   3.804   9.355   3.787 -0.3610  0.0083  0.1732
57948SOL    HW180959   3.813   9.393   3.700 -0.6318 -0.4904 -0.0807
57948SOL    HW280960   3.808   9.429   3.847  0.5158  0.2805 -0.2197
57949SOL     OW80961   0.365   8.977   7.518  0.0433 -0.0433 -0.5830
57949SOL    HW180962   0.397   8.892   7.487 -1.5476 -1.6384  1.7754
57949SOL    HW280963   0.413   8.992   7.599 -0.1085  1.0650 -0.6884
57950SOL     OW80964   4.325   4.220  11.324  0.2130  0.1430  0.1817
57950SOL    HW180965   4.408   4.174  11.338 -0.3027 -0.8000  0.2049
57950SOL    HW280966   4.351   4.309  11.301  1.2061  0.1471  1.2293
57951SOL     OW80967   1.709   9.960   9.019 -0.2262 -0.4392 -0.0420
57951SOL    HW180968   1.786   9.992   8.972  0.0036  3.1696  2.3328
57951SOL    HW280969   1.744   9.905   9.089 -0.2393 -2.1712 -1.3307
57952SOL     OW80970   0.189   6.920   5.317  0.1284  0.1920  0.6535
57952SOL    HW180971   0.126   6.928   5.245  0.2298 -0.0188  0.5400
57952SOL    HW280972   0.272   6.950   5.281  0.9650 -2.9229 -0.3690
57953SOL     OW80973   2.398   1.142   1.541 -0.4467  0.3439 -0.0171
57953SOL    HW180974   2.402   1.223   1.591  0.8313  0.4653 -0.3004
57953SOL    HW280975   2.441   1.077   1.596  0.8120  0.4374 -0.8524
57954SOL     OW80976  10.676   1.218   1.701  0.2273 -0.3310 -0.9005
57954SOL    HW180977  10.728   1.170   1.765  2.6516 -2.3643 -4.0720
57954SOL    HW280978  10.601   1.162   1.684  1.2128 -1.3915 -1.9936
57955SOL     OW80979   9.052  11.754   2.809  0.7713 -0.3898  0.3913
57955SOL    HW180980   9.047  11.693   2.735 -1.9175  0.9104 -0.6230
57955SOL    HW280981   9.054  11.840   2.769  0.3564  0.3173  1.8315
57956SOL     OW80982  12.864   2.131   6.666  0.4111  0.5697  0.3723
57956SOL    HW180983  12.942   2.187   6.673  1.2424 -0.5000 -0.0630
57956SOL    HW280984  12.861   2.107   6.573  1.1559 -1.6003  0.8668
57957SOL     OW80985  10.518   4.880   1.011 -0.2595  0.4777 -0.3856
57957SOL    HW180986  10.551   4.917   1.093  0.0435  1.2663 -0.8544
57957SOL    HW280987  10.570   4.922   0.942 -1.0159  0.4039 -1.0271
57958SOL     OW80988   1.975   1.343  12.792 -0.1037 -0.0157 -0.0224
57958SOL    HW180989   1.974   1.347  12.697  0.8084  2.3553  0.0166
57958SOL    HW280990   1.998   1.431  12.820  0.5716 -0.8706  2.3837
57959SOL     OW80991   5.312   2.117   2.199 -0.7842 -0.3916 -0.6594
57959SOL    HW180992   5.239   2.097   2.258  0.2493 -0.5755  0.6158
57959SOL    HW280993   5.352   2.032   2.181 -0.3581 -0.2046 -0.6168
57960SOL     OW80994   9.210   2.365   1.318  0.1086  0.0891 -0.4798
57960SOL    HW180995   9.151   2.365   1.243 -0.2557 -0.2438 -0.1974
57960SOL    HW280996   9.228   2.272   1.335 -0.7404  0.0974  0.5571
57961SOL     OW80997   8.063   2.730   5.055  0.3842  0.1070  0.1376
57961SOL    HW180998   8.008   2.805   5.032 -0.8893 -1.4830 -2.5477
57961SOL    HW280999   8.153   2.764   5.053 -0.2435  1.9289  0.9008
57962SOL     OW81000   1.347   0.440   2.382 -0.1280  0.2573 -0.0451
57962SOL    HW181001   1.345   0.527   2.421 -0.1579  0.7524 -1.1030
57962SOL    HW281002   1.438   0.412   2.388 -0.1341  0.3179  0.3728
57963SOL     OW81003   4.549   6.671   7.772  0.4049  0.1166  0.0205
57963SOL    HW181004   4.516   6.715   7.693 -1.6925 -0.4772  0.4906
57963SOL    HW281005   4.499   6.710   7.844 -0.1956 -1.6822  0.6438
57964SOL     OW81006   7.889  12.688   0.951  0.0718  0.1796 -0.1296
57964SOL    HW181007   7.844  12.628   1.011  0.5991 -0.2682 -0.1673
57964SOL    HW281008   7.888  12.643   0.867  2.7144 -1.0272  0.3680
57965SOL     OW81009  12.384   9.199   2.808  0.6935  0.1094 -0.3471
57965SOL    HW181010  12.311   9.175   2.865 -0.2445  0.5644 -1.3318
57965SOL    HW281011  12.403   9.119   2.759  0.8329  0.0054 -0.1266
57966SOL     OW81012   8.244   9.836   1.121  0.4276 -0.1428 -0.3467
57966SOL    HW181013   8.238   9.890   1.200  2.0552 -0.6170  0.1500
57966SOL    HW281014   8.154   9.825   1.092 -0.0057  2.9114 -0.5211
57967SOL     OW81015  11.032   7.925   4.734 -0.4330  0.2958 -0.3244
57967SOL    HW181016  11.002   7.870   4.806  1.5341 -1.5490 -0.8201
57967SOL    HW281017  11.118   7.891   4.712 -0.8357  0.9833 -3.3664
57968SOL     OW81018   3.628   7.324   9.174  0.5991  0.1830  0.4820
57968SOL    HW181019   3.607   7.365   9.089 -0.4049 -0.2722  0.5037
57968SOL    HW281020   3.544   7.293   9.207  1.3760 -2.6099  0.1093
57969SOL     OW81021   8.607   9.843   0.567  0.0474 -0.0280  0.3413
57969SOL    HW181022   8.526   9.812   0.607  0.3329 -0.0375  0.9321
57969SOL    HW281023   8.608   9.937   0.584  1.0433 -0.3007  1.9975
57970SOL     OW81024  10.507  10.908   3.922 -0.3234 -0.5484 -0.4090
57970SOL    HW181025  10.480  10.847   3.853 -0.4841 -0.7795 -0.1437
57970SOL    HW281026  10.584  10.952   3.886 -0.8915 -0.0801 -1.0660
57971SOL     OW81027   9.184   3.506  12.711 -0.2376  0.0164  0.3251
57971SOL    HW181028   9.227   3.489  12.795  0.3404 -0.1821 -0.0100
57971SOL    HW281029   9.236   3.575  12.670  0.0823 -0.5935 -0.3139
57972SOL     OW81030  10.891   4.339  10.448  0.2554 -0.0864 -0.2593
57972SOL    HW181031  10.877   4.311  10.538  1.8650 -2.0480 -0.5538
57972SOL    HW281032  10.941   4.421  10.455 -0.2451  0.1590  0.5976
57973SOL     OW81033   9.548   8.198   2.147  0.5680 -0.1104 -0.2594
57973SOL    HW181034   9.517   8.274   2.196  0.9253  0.2446 -0.5691
57973SOL    HW281035   9.633   8.178   2.184 -0.2247 -1.4232  0.9558
57974SOL     OW81036  10.952  10.868   6.212  0.0435  0.2145 -0.3119
57974SOL    HW181037  11.028  10.844   6.159 -0.2292 -0.3607 -0.4553
57974SOL    HW281038  10.883  10.885   6.148 -1.2495 -3.6556 -0.1773
57975SOL     OW81039  10.498   6.846   7.180 -0.2464  0.4133  0.2498
57975SOL    HW181040  10.434   6.913   7.207 -1.2281  0.1396 -1.2605
57975SOL    HW281041  10.519   6.868   7.090  1.6560  0.3412  0.6446
57976SOL     OW81042  12.552   5.803   2.124  0.1861  0.1133  0.0169
57976SOL    HW181043  12.613   5.756   2.181 -0.7360 -1.2379 -0.0659
57976SOL    HW281044  12.528   5.739   2.057 -1.4348  0.5609  0.1364
57977SOL     OW81045   9.620  11.788  10.357  0.1496  0.0041 -0.2918
57977SOL    HW181046   9.638  11.878  10.382 -0.1943 -0.3998  1.6188
57977SOL    HW281047   9.706  11.751  10.337  0.3519  0.6162 -0.5631
57978SOL     OW81048  10.350  11.458   9.631 -0.0620 -0.3594  0.5163
57978SOL    HW181049  10.323  11.419   9.548 -1.5404 -0.7372  1.1535
57978SOL    HW281050  10.433  11.500   9.610  0.4692 -1.8966 -0.7419
57979SOL     OW81051   6.337   7.890   2.605 -0.1620 -0.2898  0.0791
57979SOL    HW181052   6.246   7.863   2.609 -0.4003  0.3657 -0.7215
57979SOL    HW281053   6.337   7.982   2.630  0.6232 -0.8805  2.5848
57980SOL     OW81054   1.012   0.456   9.869  0.1401 -0.1712 -0.1873
57980SOL    HW181055   0.953   0.388   9.899 -1.9255  0.8557 -1.6780
57980SOL    HW281056   0.961   0.537   9.874  2.2066  1.1839  0.6848
57981SOL     OW81057   5.876   2.721   0.070 -0.4283 -0.2012  0.2680
57981SOL    HW181058   5.804   2.714   0.132  0.9605 -0.2977  1.9645
57981SOL    HW281059   5.954   2.731   0.125  0.8796 -0.2944 -1.4751
57982SOL     OW81060   5.877   1.475  11.467 -0.4736 -0.0913 -0.0068
57982SOL    HW181061   5.891   1.403  11.528  0.4987 -0.1178 -0.2300
57982SOL    HW281062   5.932   1.453  11.391 -1.3629  0.1253 -0.7280
57983SOL     OW81063   9.834  10.539   2.229 -0.1487 -0.4141 -0.6955
57983SOL    HW181064   9.795  10.536   2.142  1.3147  1.2443 -1.4866
57983SOL    HW281065   9.928  10.524   2.213  0.1965  0.2816  0.5331
57984SOL     OW81066   3.857  12.294   0.077 -0.2747  0.2327  0.5931
57984SOL    HW181067   3.831  12.358   0.143  1.3890  3.2572 -1.4537
57984SOL    HW281068   3.952  12.297   0.077 -0.2129 -0.5592 -1.1190
57985SOL     OW81069  12.608   5.213  12.076  0.0765  0.0437  0.3030
57985SOL    HW181070  12.590   5.183  12.165  0.7451 -0.6363  0.2210
57985SOL    HW281071  12.564   5.297  12.070  0.6840  0.4841  1.5484
57986SOL     OW81072   1.058  10.807   9.349 -0.2715  0.2105 -0.1464
57986SOL    HW181073   0.978  10.814   9.297 -0.7731  0.0137  0.5882
57986SOL    HW281074   1.037  10.851   9.432  0.0547 -0.6990  0.4328
57987SOL     OW81075   5.960   3.295  12.046  0.7885  0.0941  0.1301
57987SOL    HW181076   5.967   3.248  12.130 -1.4521  1.8995  1.4461
57987SOL    HW281077   5.903   3.241  11.993  1.5805 -0.6802  0.0532
57988SOL     OW81078   4.623   1.728   5.395  0.6741  0.0642  0.1217
57988SOL    HW181079   4.669   1.741   5.478  0.7769  0.0556  0.0661
57988SOL    HW281080   4.533   1.755   5.413  1.3693  3.3347 -0.6344
57989SOL     OW81081   4.740   0.643   7.251  0.3679 -0.1652  0.5837
57989SOL    HW181082   4.763   0.555   7.281  0.7183 -0.6557 -1.0255
57989SOL    HW281083   4.823   0.691   7.249  0.2333  0.0971  1.0923
57990SOL     OW81084   4.623   4.958   4.761  0.5294  0.3728  0.7417
57990SOL    HW181085   4.587   4.902   4.830  0.0295  0.1710  0.3188
57990SOL    HW281086   4.589   4.921   4.680  0.6090  0.9860  0.4242
57991SOL     OW81087   8.731   9.067   3.407  0.5734 -0.1400  0.1005
57991SOL    HW181088   8.678   9.131   3.455 -2.6906 -1.8203 -0.9806
57991SOL    HW281089   8.739   8.993   3.467  1.1085 -0.1799 -0.0168
57992SOL     OW81090   8.074  10.109  10.163  0.3206  0.4723  0.4333
57992SOL    HW181091   8.001  10.169  10.174  0.1430  0.4182 -0.4039
57992SOL    HW281092   8.148  10.154  10.205  0.5910  2.0585 -1.5710
57993SOL     OW81093   3.751  11.324   1.756 -0.3425 -0.1681  0.1601
57993SOL    HW181094   3.805  11.295   1.830 -0.8259 -0.5374  0.3730
57993SOL    HW281095   3.684  11.257   1.748 -0.4438  0.0072 -0.4558
57994SOL     OW81096  11.372  10.365   0.336 -0.4443 -0.4564 -0.3093
57994SOL    HW181097  11.340  10.321   0.257 -0.0766  1.9205 -1.8879
57994SOL    HW281098  11.329  10.451   0.335  1.8969  0.8080  0.3758
57995SOL     OW81099   8.111   6.176   9.634  0.4471  0.2334 -0.2142
57995SOL    HW181100   8.093   6.262   9.598 -0.8461  1.3435  2.7499
57995SOL    HW281101   8.067   6.115   9.575  0.7425  1.6264 -1.9530
57996SOL     OW81102   1.079   2.081   5.509 -0.3984 -0.0942 -0.1837
57996SOL    HW181103   1.098   1.996   5.549 -1.9847 -0.1173  0.5972
57996SOL    HW281104   1.007   2.064   5.449  3.2895 -0.5564 -5.1507
57997SOL     OW81105   6.491   1.513  11.760 -0.2229  0.2374 -0.3640
57997SOL    HW181106   6.420   1.531  11.822  0.4399 -0.2512  0.5591
57997SOL    HW281107   6.446   1.488  11.679 -1.1123 -0.3297  0.2808
57998SOL     OW81108   5.783   4.600   7.138 -0.3758  0.4294  0.1026
57998SOL    HW181109   5.776   4.541   7.063 -4.2308  0.4045  0.2948
57998SOL    HW281110   5.756   4.546   7.213 -0.6461  1.5530  0.8294
57999SOL     OW81111   5.258   4.785   1.676  0.1991 -0.7763 -0.4485
57999SOL    HW181112   5.297   4.699   1.695 -0.7061 -0.9954  0.4628
57999SOL    HW281113   5.333   4.843   1.665  0.8060 -1.4487  0.0633
58000SOL     OW81114  12.952   9.094   2.784  0.1160 -0.2360  0.3003
58000SOL    HW181115  12.961   9.181   2.745 -1.5124  0.2476  0.9137
58000SOL    HW281116  13.033   9.081   2.834  1.7542 -0.4025 -2.2331
58001SOL     OW81117  10.148   0.545   1.889 -0.3509 -0.4309  0.1449
58001SOL    HW181118  10.196   0.543   1.972 -0.9457 -2.5760  0.4914
58001SOL    HW281119  10.056   0.551   1.914 -0.5663 -1.5418 -0.3073
58002SOL     OW81120   0.860   6.748   9.899 -0.3712 -0.1754 -0.3752
58002SOL    HW181121   0.950   6.765   9.926 -0.5745 -0.4417  0.4880
58002SOL    HW281122   0.811   6.824   9.930 -0.6920 -0.7204  0.4776
58003SOL     OW81123   1.577  10.319  11.004  0.4145 -0.5096  0.3058
58003SOL    HW181124   1.633  10.371  10.947 -1.1269 -0.5229 -1.3437
58003SOL    HW281125   1.632  10.294  11.078  1.5500  2.4378  0.5821
58004SOL     OW81126   6.984  10.541   4.741  0.0607  0.4598 -0.3706
58004SOL    HW181127   6.893  10.549   4.712 -0.1610 -1.2234 -0.2546
58004SOL    HW281128   7.033  10.526   4.660  0.3365  1.9277 -0.4956
58005SOL     OW81129   8.249   4.404   4.601  0.1032  0.2143 -0.0697
58005SOL    HW181130   8.240   4.455   4.520  0.9450  1.3674  0.5281
58005SOL    HW281131   8.338   4.371   4.599  1.0228  2.3848  1.5239
58006SOL     OW81132   0.916   0.124   3.741 -0.1899  0.0374 -0.4084
58006SOL    HW181133   0.897   0.058   3.674 -0.2422 -0.2418 -0.1231
58006SOL    HW281134   0.840   0.121   3.800  0.2420 -0.3374  0.1482
58007SOL     OW81135   2.942   7.890  10.410 -1.0810 -0.7399 -0.5430
58007SOL    HW181136   3.035   7.887  10.432 -0.7503  1.4355 -1.3594
58007SOL    HW281137   2.941   7.884  10.314 -1.4905  1.9687 -0.7872
58008SOL     OW81138   8.017   8.750   8.182  0.0333  0.0441  0.2244
58008SOL    HW181139   8.097   8.745   8.129  0.0935  1.3146  0.1599
58008SOL    HW281140   7.955   8.691   8.139  0.8645 -0.8141  0.1671
58009SOL     OW81141   0.319   0.939   3.705  0.7490  0.1170 -0.3452
58009SOL    HW181142   0.397   0.979   3.668 -0.2703 -0.1567 -3.0610
58009SOL    HW281143   0.338   0.845   3.706  0.9628  0.1582  0.4116
58010SOL     OW81144  12.106   7.493  10.980  0.0911  0.1704 -0.2994
58010SOL    HW181145  12.080   7.490  11.072  0.8488 -1.5300 -0.0899
58010SOL    HW281146  12.072   7.412  10.942  0.2243  0.6050 -1.4053
58011SOL     OW81147   7.482  12.798   4.628 -0.7870  0.0540  0.1625
58011SOL    HW181148   7.401  12.835   4.663 -0.6344  0.1076  0.4624
58011SOL    HW281149   7.496  12.843   4.545 -1.3351 -0.3190 -0.1340
58012SOL     OW81150  12.631   4.333   3.140 -0.2492 -0.6435  0.6597
58012SOL    HW181151  12.619   4.297   3.052 -2.0031  0.7055  0.3026
58012SOL    HW281152  12.722   4.362   3.142 -0.3017 -0.3119 -0.8598
58013SOL     OW81153   4.940   6.063   1.052  0.5893  0.3085  0.3556
58013SOL    HW181154   4.994   6.014   0.990 -0.9763 -0.4492 -0.4613
58013SOL    HW281155   4.937   6.009   1.131  0.6957  0.1674  0.2606
58014SOL     OW81156   6.959  10.652  11.176 -0.0904 -0.9108  0.1509
58014SOL    HW181157   6.945  10.735  11.221 -0.5162 -0.4455 -0.8123
58014SOL    HW281158   7.028  10.670  11.113 -0.5380 -1.1493 -0.4119
58015SOL     OW81159   4.509   8.596   9.120 -0.2211  0.3961  0.0985
58015SOL    HW181160   4.459   8.608   9.039 -0.5619  0.1147  0.2671
58015SOL    HW281161   4.478   8.666   9.178 -0.0100  0.5692  0.0050
58016SOL     OW81162   1.802   4.814  10.838  1.0319  0.1338  0.6674
58016SOL    HW181163   1.725   4.825  10.783  1.0087 -0.8508  0.4805
58016SOL    HW281164   1.769   4.819  10.927  0.4370 -1.9762  0.6148
58017SOL     OW81165   3.076   8.848   1.468 -0.3237  0.2267  0.5573
58017SOL    HW181166   2.987   8.881   1.456 -0.6954 -0.6528  0.8486
58017SOL    HW281167   3.118   8.861   1.383 -0.3837  1.6478  0.7283
58018SOL     OW81168   9.272   0.190   0.584 -0.2501 -0.4063  0.1249
58018SOL    HW181169   9.250   0.099   0.561 -0.3047 -0.3919  0.1205
58018SOL    HW281170   9.204   0.216   0.646  0.4290 -0.7528  1.0273
58019SOL     OW81171   9.086  12.333   1.286  0.0205 -0.2909  0.4086
58019SOL    HW181172   9.126  12.291   1.362 -1.1280 -0.5567  0.9006
58019SOL    HW281173   9.105  12.274   1.213  1.7195  0.3136  0.3285
58020SOL     OW81174   8.558   5.978  11.949 -0.0907  0.6002  0.0999
58020SOL    HW181175   8.540   6.013  11.861  0.5554 -0.3961 -0.4526
58020SOL    HW281176   8.624   6.037  11.985  1.3977 -0.2837 -1.0383
58021SOL     OW81177   4.543   0.211   6.900 -0.5934 -0.8604  0.0742
58021SOL    HW181178   4.477   0.276   6.924  0.6266 -0.0357  1.3602
58021SOL    HW281179   4.586   0.248   6.823  1.2796  0.8279  1.8164
58022SOL     OW81180   6.759   6.038   4.103  0.4773  0.1107  0.7840
58022SOL    HW181181   6.849   6.028   4.133  0.6441  1.0404  0.6069
58022SOL    HW281182   6.728   6.118   4.145  0.3911  0.8977 -0.7180
58023SOL     OW81183   0.870   2.227   6.895 -0.4719  0.3412 -0.1939
58023SOL    HW181184   0.943   2.241   6.835  1.1288 -1.3105  1.2803
58023SOL    HW281185   0.796   2.206   6.837  0.7832 -0.2789 -1.6415
58024SOL     OW81186   7.681   1.802   0.342 -0.3801  0.2021 -0.2223
58024SOL    HW181187   7.757   1.849   0.308 -1.4040  1.9924 -0.1307
58024SOL    HW281188   7.660   1.737   0.274  1.8378 -1.0928  0.2426
58025SOL     OW81189   6.353   5.619   3.042  0.2461 -0.2294 -0.4457
58025SOL    HW181190   6.390   5.598   2.956  0.6163  0.8674 -0.5593
58025SOL    HW281191   6.422   5.596   3.104  1.8838  3.2964 -0.7455
58026SOL     OW81192   1.223  11.465   6.889 -0.3555 -0.1318  0.4403
58026SOL    HW181193   1.131  11.470   6.865  0.1799 -0.0346 -1.8249
58026SOL    HW281194   1.226  11.499   6.979 -2.1352  3.0168 -0.5111
58027SOL     OW81195   5.503   3.138  10.112  0.1135  0.6003 -0.3837
58027SOL    HW181196   5.482   3.053  10.074 -0.5534  0.5897 -0.0103
58027SOL    HW281197   5.550   3.118  10.193 -0.7466  0.5581  0.1174
58028SOL     OW81198   8.734   2.666  12.321 -0.2084  0.2822 -0.5930
58028SOL    HW181199   8.685   2.585  12.304  0.1363 -0.3937  1.3177
58028SOL    HW281200   8.667   2.729  12.348 -0.2417 -0.2147  0.5904
58029SOL     OW81201   6.637   4.047   0.135 -0.3342 -0.6539  0.5839
58029SOL    HW181202   6.671   4.052   0.045  0.2597 -1.7386  0.7266
58029SOL    HW281203   6.549   4.083   0.129 -0.3432 -0.8032 -0.4645
58030SOL     OW81204   6.249   4.987   0.056  0.9391  0.0857  0.1105
58030SOL    HW181205   6.306   4.920   0.016  1.5958  0.3260  0.6294
58030SOL    HW281206   6.309   5.052   0.090  0.4098 -0.1868  1.6480
58031SOL     OW81207   3.061   6.653   6.529 -0.1313 -0.0585  0.2059
58031SOL    HW181208   3.112   6.704   6.466  2.7766 -0.7750  1.8041
58031SOL    HW281209   3.086   6.687   6.615 -3.9610  0.8718  1.1612
58032SOL     OW81210   0.696  11.714  11.721 -0.0125 -0.7280 -0.2747
58032SOL    HW181211   0.728  11.687  11.808  0.2803  0.2206 -0.0765
58032SOL    HW281212   0.771  11.701  11.663  0.8561  1.5930  0.2089
58033SOL     OW81213  11.471   5.380   8.468 -0.8148 -0.3444  0.0489
58033SOL    HW181214  11.494   5.388   8.376 -2.2327 -0.1694 -0.3184
58033SOL    HW281215  11.398   5.441   8.479  0.6719  1.2492  1.8016
58034SOL     OW81216   2.990   4.836   0.792  0.0185 -0.2020 -0.1169
58034SOL    HW181217   3.048   4.770   0.829 -0.1623  0.5928  1.7278
58034SOL    HW281218   2.902   4.801   0.807 -0.2189  1.3564  3.0806
58035SOL     OW81219  12.791   6.316  11.897 -0.1942 -0.1747  0.0786
58035SOL    HW181220  12.850   6.295  11.970 -1.2667 -1.1439  0.7092
58035SOL    HW281221  12.785   6.234  11.847  1.6563  0.8388 -2.0001
58036SOL     OW81222   4.226  11.384   9.450  0.7184 -0.0711 -0.3246
58036SOL    HW181223   4.243  11.302   9.496  0.8502 -0.6014 -1.2816
58036SOL    HW281224   4.173  11.358   9.374  1.8652  0.5351 -1.3591
58037SOL     OW81225   3.884   4.988   5.877 -0.2536 -0.2748  0.1947
58037SOL    HW181226   3.887   4.919   5.943  1.0888 -0.0943  0.3481
58037SOL    HW281227   3.930   5.062   5.916 -1.9091  0.8353  0.1364
58038SOL     OW81228   3.536  11.100   2.315  0.2069  0.0425 -0.6231
58038SOL    HW181229   3.592  11.176   2.300  0.1730  0.5232  1.3866
58038SOL    HW281230   3.557  11.072   2.404 -0.9596 -1.3041 -0.7399
58039SOL     OW81231   6.563   8.792   9.704 -0.1928 -0.0799 -0.5754
58039SOL    HW181232   6.491   8.816   9.763  0.8794  0.8662  0.4030
58039SOL    HW281233   6.642   8.820   9.750  1.0208 -3.0481 -0.5977
58040SOL     OW81234  11.513  12.893  12.123 -0.5104 -0.0237 -0.4406
58040SOL    HW181235  11.520  12.961  12.056 -0.5093  0.2847 -0.1290
58040SOL    HW281236  11.594  12.843  12.116 -0.8797 -0.5397 -1.2560
58041SOL     OW81237  12.004   7.170   0.456 -0.2953 -0.0612 -0.4332
58041SOL    HW181238  11.965   7.237   0.400 -1.0309 -0.7553 -0.7732
58041SOL    HW281239  11.956   7.176   0.538  1.2958  1.4783  0.4506
58042SOL     OW81240  10.078   8.861   4.204  0.3667 -0.4318 -0.9019
58042SOL    HW181241  10.114   8.901   4.283 -1.8121  3.5769 -1.6403
58042SOL    HW281242  10.094   8.926   4.135 -2.0970 -1.5149 -2.6602
58043SOL     OW81243   9.851  11.860   6.753 -0.2770  0.2874  0.1180
58043SOL    HW181244   9.761  11.830   6.739 -0.4864  0.2129  1.4914
58043SOL    HW281245   9.842  11.945   6.794  0.2550 -0.2222  1.3278
58044SOL     OW81246  10.808   6.854   4.802  0.0779 -0.4751 -0.7643
58044SOL    HW181247  10.760   6.780   4.838 -1.5215 -0.2631 -2.3052
58044SOL    HW281248  10.867   6.816   4.738  0.0685 -0.5239 -0.7441
58045SOL     OW81249   0.763   9.541  11.507  0.0227 -0.0963  0.2116
58045SOL    HW181250   0.791   9.631  11.522  0.2110 -0.1079 -0.0481
58045SOL    HW281251   0.819   9.488  11.564 -0.2710 -0.0293  0.5640
58046SOL     OW81252   1.461   6.770   8.982 -0.2248  0.0122 -0.5309
58046SOL    HW181253   1.374   6.753   8.946 -0.0199 -2.7720  0.0608
58046SOL    HW281254   1.447   6.842   9.045 -1.5897  1.2402 -2.1350
58047SOL     OW81255   5.673  10.032   0.133 -0.1510  0.1046  0.3650
58047SOL    HW181256   5.622  10.111   0.152 -0.1220  0.7082 -1.7172
58047SOL    HW281257   5.607   9.963   0.124 -0.5780  0.6591 -1.2316
58048SOL     OW81258   7.142   9.557   8.827  0.1480  0.6354 -0.8245
58048SOL    HW181259   7.166   9.469   8.798 -2.8167 -0.9980  1.1133
58048SOL    HW281260   7.220   9.589   8.872  2.1966  0.1945 -3.7669
58049SOL     OW81261   9.731   3.170   7.802  0.1828 -0.3089  0.3029
58049SOL    HW181262   9.772   3.209   7.880  2.0601  1.6810 -1.5170
58049SOL    HW281263   9.642   3.205   7.801  0.8558  1.5319  0.4178
58050SOL     OW81264   7.710  12.728   8.401 -0.3115 -0.3912  0.0329
58050SOL    HW181265   7.694  12.816   8.435  3.5291  0.4613  0.1637
58050SOL    HW281266   7.702  12.671   8.477 -2.3543 -0.1643  0.0432
58051SOL     OW81267   5.822  12.283  10.404 -0.3665  0.0916  0.1450
58051SOL    HW181268   5.778  12.199  10.397 -0.3901 -0.1813  2.6597
58051SOL    HW281269   5.915  12.262  10.392 -0.4212 -0.1802  0.1934
58052SOL     OW81270   5.940   9.448   3.362  0.2936  0.0515 -0.3580
58052SOL    HW181271   5.859   9.452   3.413  0.8272  0.0626  0.5132
58052SOL    HW281272   5.986   9.528   3.385 -0.1233  0.8138 -2.0443
58053SOL     OW81273  12.694   7.597  11.355 -0.2729 -0.0877 -0.6265
58053SOL    HW181274  12.770   7.631  11.400 -0.1012 -0.6182 -0.5072
58053SOL    HW281275  12.623   7.602  11.419 -0.1210 -0.4641 -0.4263
58054SOL     OW81276  11.838   9.488   6.887 -0.0237 -0.2358  0.3809
58054SOL    HW181277  11.784   9.552   6.841  1.1146  0.6372  0.2472
58054SOL    HW281278  11.820   9.405   6.842  0.3763  0.4395 -1.0613
58055SOL     OW81279   7.452  12.153   2.487 -0.1537  0.5620  0.2639
58055SOL    HW181280   7.388  12.213   2.524 -1.5307  0.3998 -1.6615
58055SOL    HW281281   7.430  12.068   2.524 -0.6645  0.6119  0.0781
58056SOL     OW81282   4.730   0.961  12.249 -0.0230  0.0172  0.3821
58056SOL    HW181283   4.724   1.034  12.186  2.1406 -0.8801 -0.9741
58056SOL    HW281284   4.762   1.001  12.329  0.9760  0.6266 -0.2982
58057SOL     OW81285   6.572   2.637   7.764 -0.0835 -0.2909 -0.4582
58057SOL    HW181286   6.648   2.671   7.812  0.3851 -0.9066 -0.7569
58057SOL    HW281287   6.598   2.549   7.736 -1.2932 -0.9327  0.3384
58058SOL     OW81288  12.335   0.387   0.878  0.0734  0.1231 -0.6332
58058SOL    HW181289  12.242   0.372   0.868 -0.0162  0.3129 -0.1378
58058SOL    HW281290  12.375   0.300   0.877 -0.2471 -0.0438  0.4597
58059SOL     OW81291   7.742  12.911   3.104  0.4311 -0.4509 -0.1396
58059SOL    HW181292   7.817  12.904   3.163  1.6263 -0.4784 -1.6023
58059SOL    HW281293   7.735  12.824   3.064  1.2022  0.2181 -1.8254
58060SOL     OW81294   3.092   0.872   5.616 -0.5062  0.2188  0.2684
58060SOL    HW181295   3.114   0.964   5.623  0.4966  0.0105  0.0120
58060SOL    HW281296   3.174   0.829   5.593 -0.9545 -0.7399  0.3886
58061SOL     OW81297  11.435   8.013   5.688 -0.1615  0.7986 -0.0557
58061SOL    HW181298  11.430   7.961   5.768 -2.3423  1.3272  0.2155
58061SOL    HW281299  11.374   7.971   5.628  0.0620  1.4965 -0.7893
58062SOL     OW81300  12.201   2.443   9.768 -0.4206 -0.4715  0.7112
58062SOL    HW181301  12.126   2.450   9.827 -1.5157  0.3933 -0.7138
58062SOL    HW281302  12.226   2.534   9.751  0.2518 -0.7257  0.3193
58063SOL     OW81303  12.583   5.562  10.976  0.4143 -0.3601 -0.2703
58063SOL    HW181304  12.529   5.513  11.039  0.4674 -0.1650 -0.0705
58063SOL    HW281305  12.671   5.558  11.013  0.2236  0.9043  0.3846
58064SOL     OW81306   8.884   4.461   4.744 -0.4761 -0.0405  0.0020
58064SOL    HW181307   8.907   4.439   4.834 -1.1025  0.1713  0.2158
58064SOL    HW281308   8.826   4.537   4.752 -1.5325 -0.7790 -0.5105
58065SOL     OW81309   4.337   4.775   9.696  0.0011  0.3180 -0.2052
58065SOL    HW181310   4.415   4.807   9.651 -0.6038  0.4966 -1.1748
58065SOL    HW281311   4.264   4.806   9.641 -0.8057  1.0230  1.2018
58066SOL     OW81312  10.245   9.226  12.419  0.8074 -0.7155  0.4042
58066SOL    HW181313  10.299   9.269  12.352 -0.6365  1.3848  0.4851
58066SOL    HW281314  10.260   9.278  12.498  0.0843 -1.2288  0.8880
58067SOL     OW81315   2.896  10.621  12.911  0.3408 -0.3944  0.0551
58067SOL    HW181316   2.975  10.659  12.873 -0.0910  0.3290 -0.1323
58067SOL    HW281317   2.928  10.554  12.971  1.0933 -0.1405 -0.0565
58068SOL     OW81318   1.844   8.462   5.180 -0.8687  0.3451 -0.3145
58068SOL    HW181319   1.791   8.474   5.102 -1.1365  1.0816 -0.0301
58068SOL    HW281320   1.921   8.517   5.166 -0.8245  0.3280 -0.1454
58069SOL     OW81321   6.747   2.250   4.449  0.0655  0.0382  0.8936
58069SOL    HW181322   6.808   2.234   4.376  0.3951  1.1999  0.9027
58069SOL    HW281323   6.683   2.311   4.413 -0.6972 -0.6262  1.1049
58070SOL     OW81324   6.743   6.032   0.016  0.2435 -0.1669 -0.0962
58070SOL    HW181325   6.683   6.075   0.077 -0.0462  0.5046 -0.8246
58070SOL    HW281326   6.809   6.099  -0.003  0.0126 -0.1708 -0.9485
58071SOL     OW81327  11.119   2.874   7.464  0.3242 -0.6393 -0.6302
58071SOL    HW181328  11.073   2.905   7.542 -1.7098  1.3932 -2.5146
58071SOL    HW281329  11.164   2.795   7.493 -1.3802 -0.6708  2.2774
58072SOL     OW81330   7.160   4.645   4.368  0.0638 -0.0741  0.4348
58072SOL    HW181331   7.127   4.678   4.452  1.6398  2.4042  0.1823
58072SOL    HW281332   7.219   4.573   4.392  1.8892  1.7386  1.6952
58073SOL     OW81333   8.915   4.657   6.110  0.0999 -0.2278  0.3405
58073SOL    HW181334   9.002   4.694   6.097 -0.9062  3.0124  1.7229
58073SOL    HW281335   8.879   4.648   6.022  0.8038  1.3097 -0.1489
58074SOL     OW81336   1.594   9.058   4.321  0.2507 -0.2149  0.0014
58074SOL    HW181337   1.605   9.153   4.313  0.2119 -0.2892 -1.0653
58074SOL    HW281338   1.678   9.027   4.354 -0.1673  0.3200  1.6629
58075SOL     OW81339  11.176   7.769  10.114 -0.4610  0.3799 -0.2392
58075SOL    HW181340  11.152   7.706  10.183  0.1083 -0.5693 -0.8800
58075SOL    HW281341  11.200   7.714  10.039  3.1530  1.1903  0.1332
58076SOL     OW81342   8.750  11.940  10.997  0.8930  0.2157 -0.1887
58076SOL    HW181343   8.816  11.907  11.058  0.5224  2.0333  1.2707
58076SOL    HW281344   8.720  12.022  11.036 -1.6025 -0.1144 -1.2433
58077SOL     OW81345   1.330   7.861   2.812  0.5983 -0.1680 -0.5924
58077SOL    HW181346   1.334   7.955   2.799  0.4448 -0.2440 -1.1807
58077SOL    HW281347   1.395   7.844   2.881  0.5534  0.3750 -0.4139
58078SOL     OW81348   0.528   8.309   3.545 -0.0161  0.4615  0.1193
58078SOL    HW181349   0.447   8.300   3.594  0.2688 -0.4661  0.4438
58078SOL    HW281350   0.501   8.339   3.458 -0.9095 -1.5047 -0.3430
58079SOL     OW81351   0.401   9.387  10.525 -0.7605  0.7483 -0.0605
58079SOL    HW181352   0.393   9.295  10.549 -0.5125  0.2233 -1.8572
58079SOL    HW281353   0.494   9.400  10.509 -1.0518  0.6970 -1.9976
58080SOL     OW81354   3.416  12.169   2.573  0.0459 -0.2621 -0.1740
58080SOL    HW181355   3.329  12.173   2.612  0.4934 -0.1472  0.8605
58080SOL    HW281356   3.441  12.077   2.580  0.4826 -0.0910  0.6483
58081SOL     OW81357   2.546   3.222   0.874 -0.0893 -0.2724 -0.2135
58081SOL    HW181358   2.567   3.312   0.851  0.6733 -0.2195  0.6223
58081SOL    HW281359   2.451   3.217   0.869 -0.1562  0.6598  0.0226
58082SOL     OW81360   1.065  12.432   2.903 -0.1263 -0.1086  0.2477
58082SOL    HW181361   1.073  12.392   2.989  2.3015 -0.2894  0.0049
58082SOL    HW281362   1.074  12.359   2.841 -2.3559 -0.0589 -0.2193
58083SOL     OW81363  11.432   0.387   2.847 -0.2682  0.4823 -0.4540
58083SOL    HW181364  11.506   0.439   2.877  0.9641 -1.0388 -0.6976
58083SOL    HW281365  11.420   0.413   2.756  1.7651 -1.0750 -1.2661
58084SOL     OW81366   9.031  11.145   3.891 -0.6547  0.4031 -0.1622
58084SOL    HW181367   9.056  11.178   3.804  0.7472  0.4094  0.2119
58084SOL    HW281368   9.043  11.219   3.949  2.8598 -0.6490  0.7470
58085SOL     OW81369   6.565  10.999   0.406 -0.2541 -0.0632  0.3557
58085SOL    HW181370   6.606  11.086   0.405 -0.6122  0.1051 -0.1554
58085SOL    HW281371   6.594  10.960   0.488  0.0681  0.4673  0.5006
58086SOL     OW81372   3.343   2.638   5.255  0.5948 -0.2656  0.2353
58086SOL    HW181373   3.279   2.658   5.324 -0.0575  0.5995 -0.5879
58086SOL    HW281374   3.426   2.632   5.301  0.0181 -0.7815  1.2494
58087SOL     OW81375   2.865   4.465   3.612 -0.6204  0.5846  0.4242
58087SOL    HW181376   2.828   4.377   3.602  1.0962  0.0389 -1.8234
58087SOL    HW281377   2.839   4.511   3.532  1.2147  1.0491  0.0614
58088SOL     OW81378   9.781   2.576   5.016 -0.0467  0.3958 -0.0199
58088SOL    HW181379   9.825   2.565   4.932  1.9763  2.2121  0.7130
58088SOL    HW281380   9.754   2.488   5.041  0.8945 -0.4200 -1.7251
58089SOL     OW81381   5.682  12.248   2.713 -0.0207 -0.7823  0.6704
58089SOL    HW181382   5.749  12.257   2.780  0.3585  0.3093  0.1745
58089SOL    HW281383   5.654  12.338   2.696  2.6964 -0.4413 -3.4570
58090SOL     OW81384   8.943  12.492   5.038  0.0149  0.0856 -0.1184
58090SOL    HW181385   8.914  12.538   5.116  0.2230 -1.7365  1.0764
58090SOL    HW281386   9.037  12.510   5.033 -0.0913  0.6182 -0.2485
58091SOL     OW81387   7.124   1.652  10.999  0.5227 -0.6856 -0.1203
58091SOL    HW181388   7.040   1.647  10.955  1.1216  1.1103 -1.6130
58091SOL    HW281389   7.144   1.562  11.024 -0.4431 -1.6066 -2.4398
58092SOL     OW81390   4.961  12.090   0.110 -0.3729 -0.0895 -0.5929
58092SOL    HW181391   4.957  12.022   0.177  0.2168  1.3639  0.9860
58092SOL    HW281392   4.873  12.089   0.071 -1.7920  0.9511  2.2596
58093SOL     OW81393   3.014   0.511   3.647 -0.6557  0.0781 -0.1516
58093SOL    HW181394   3.087   0.499   3.586  2.5255  2.7684  2.7545
58093SOL    HW281395   3.005   0.426   3.691  1.4429 -0.0650  0.0826
58094SOL     OW81396   1.939  12.058   2.399 -0.1862 -0.5678  0.4276
58094SOL    HW181397   1.876  12.099   2.340 -0.4391 -1.6560 -0.0803
58094SOL    HW281398   1.971  12.130   2.453  0.8377  0.6868 -1.7087
58095SOL     OW81399  11.828   9.260   7.082  0.2767 -0.0318  0.2205
58095SOL    HW181400  11.827   9.322   7.156 -0.7845 -0.8851  0.9482
58095SOL    HW281401  11.868   9.310   7.010  1.7865  0.6718  1.4747
58096SOL     OW81402   4.187   4.050   9.294 -0.6748 -0.0406  0.0669
58096SOL    HW181403   4.115   4.043   9.231 -0.9749 -0.3745  0.4409
58096SOL    HW281404   4.149   4.096   9.368 -0.7633 -1.0107  0.6374
58097SOL     OW81405   6.365   9.555   5.470 -0.4509  0.0090 -0.2946
58097SOL    HW181406   6.385   9.492   5.400  1.5166 -1.1897  1.2335
58097SOL    HW281407   6.425   9.628   5.455  0.9805 -0.8737  0.8522
58098SOL     OW81408   5.405   7.779   0.003  1.0167 -0.0957 -0.3439
58098SOL    HW181409   5.442   7.834  -0.066  0.3201 -1.1591 -1.6041
58098SOL    HW281410   5.331   7.735  -0.038 -1.5454  1.6840  1.9576
58099SOL     OW81411   6.984   0.485   9.057 -0.3551 -1.1073 -0.3263
58099SOL    HW181412   6.978   0.543   8.980 -1.8129 -2.1061 -1.0180
58099SOL    HW281413   6.930   0.529   9.123  2.0218  0.4738  0.6892
58100SOL     OW81414   7.550   1.578   8.788 -0.1615 -0.4014  0.7615
58100SOL    HW181415   7.498   1.547   8.862  1.2654  0.3768  2.1542
58100SOL    HW281416   7.626   1.520   8.785 -0.5277 -0.8319 -0.5247
58101SOL     OW81417  11.163   6.093   5.655 -0.1338  0.2490  0.1015
58101SOL    HW181418  11.085   6.037   5.654 -0.6379  0.9176  0.7591
58101SOL    HW281419  11.132   6.177   5.620  0.2803  0.5285  0.3940
58102SOL     OW81420   9.452   0.844   7.277 -0.1931 -0.2530 -0.1619
58102SOL    HW181421   9.472   0.895   7.355 -0.3358 -0.3397 -0.0671
58102SOL    HW281422   9.362   0.869   7.255  0.4523  1.1388 -1.3538
58103SOL     OW81423  11.723  10.837   3.586 -0.7425 -0.5382 -0.3469
58103SOL    HW181424  11.764  10.863   3.503  0.4247 -2.6269 -0.4976
58103SOL    HW281425  11.634  10.812   3.561 -0.3996 -1.1534 -0.9866
58104SOL     OW81426   0.729   8.910   3.685  0.2399  0.0019 -0.3943
58104SOL    HW181427   0.647   8.890   3.730 -0.4001 -0.4903 -1.7228
58104SOL    HW281428   0.780   8.961   3.749 -0.7291 -0.4282  0.7630
58105SOL     OW81429   9.589   9.896  10.438 -0.7626  0.1227  0.1907
58105SOL    HW181430   9.533   9.824  10.466 -0.8057  0.5714  1.2759
58105SOL    HW281431   9.576   9.901  10.343 -0.7735 -1.2794  0.0939
58106SOL     OW81432   5.511   9.397   9.054 -0.3563 -1.1610 -0.3155
58106SOL    HW181433   5.563   9.320   9.028  0.3032 -0.4515 -1.1975
58106SOL    HW281434   5.420   9.369   9.044 -0.1229 -1.5091 -1.6995
58107SOL     OW81435   1.706  12.450  10.995  0.2595  0.0868 -0.0381
58107SOL    HW181436   1.704  12.545  10.983  0.4694  0.3742  1.8129
58107SOL    HW281437   1.616  12.428  11.020  0.3392 -0.1193  0.0645
58108SOL     OW81438   0.519   8.637  10.589 -0.0085  0.0787  0.0936
58108SOL    HW181439   0.477   8.634  10.676  0.2176  0.6750  0.2287
58108SOL    HW281440   0.521   8.545  10.561 -0.4803 -0.0744  0.5275
58109SOL     OW81441   4.975   7.494  10.895  0.1820 -0.0736 -0.1311
58109SOL    HW181442   5.038   7.496  10.823  0.4227 -0.2559  0.0714
58109SOL    HW281443   4.952   7.586  10.909  2.0599  0.2386  1.2373
58110SOL     OW81444  11.265   1.247   2.139 -0.2096 -0.8248 -0.4495
58110SOL    HW181445  11.311   1.325   2.106 -0.5092 -0.9185 -1.0981
58110SOL    HW281446  11.326   1.209   2.202  0.4021 -0.6646 -0.9323
58111SOL     OW81447   9.365  12.050   1.356 -0.1366  0.1283  0.0721
58111SOL    HW181448   9.290  12.094   1.395 -0.3855 -0.2970  0.0789
58111SOL    HW281449   9.338  11.958   1.347  0.9690 -0.4067  1.6562
58112SOL     OW81450   6.840   9.605   5.370 -0.5633 -0.1986  0.0961
58112SOL    HW181451   6.920   9.554   5.386  0.5350  0.6839 -2.1062
58112SOL    HW281452   6.783   9.545   5.321 -0.9205 -0.5513  0.9279
58113SOL     OW81453   1.486  11.397   9.807 -0.4613 -0.1461 -0.0701
58113SOL    HW181454   1.472  11.344   9.885 -0.0881  1.3763  1.0503
58113SOL    HW281455   1.402  11.393   9.760 -2.4623  2.8564  2.8701
58114SOL     OW81456   9.623   8.573  12.081  0.1029 -0.3760  0.3402
58114SOL    HW181457   9.680   8.514  12.129  0.4501 -0.5530 -0.2734
58114SOL    HW281458   9.678   8.649  12.062 -0.1505 -0.1349  0.5692
58115SOL     OW81459   4.091   0.236  10.901  0.0173  0.0056  0.0257
58115SOL    HW181460   4.041   0.314  10.921 -1.0708 -0.3350 -1.1916
58115SOL    HW281461   4.067   0.215  10.810  0.5809 -1.5088  0.1965
58116SOL     OW81462  11.985   2.322   7.339 -0.4212 -0.3397  0.1019
58116SOL    HW181463  12.077   2.336   7.319 -1.1560  1.7682 -2.2717
58116SOL    HW281464  11.957   2.402   7.384 -1.2169 -0.7624  0.3904
58117SOL     OW81465  10.092   8.995   2.842  0.2232  0.0752 -0.4477
58117SOL    HW181466  10.049   8.992   2.757  1.4245  0.1946 -1.0854
58117SOL    HW281467  10.160   8.928   2.837  0.1638 -0.0690  0.4998
58118SOL     OW81468  11.410   9.044   9.605 -0.0245  1.0645  0.0780
58118SOL    HW181469  11.408   8.960   9.559  0.0518  0.4621  1.1503
58118SOL    HW281470  11.444   9.106   9.540 -2.1082  0.7267 -1.4203
58119SOL     OW81471   6.507  10.357   2.031 -0.3124  0.3644 -0.4263
58119SOL    HW181472   6.462  10.276   2.007 -0.8648  0.4668  0.2205
58119SOL    HW281473   6.439  10.412   2.070 -0.4669  2.0326 -2.7778
58120SOL     OW81474   5.847  12.687   4.746  0.6219 -0.7446  0.1488
58120SOL    HW181475   5.901  12.750   4.699  0.4127  0.8286  1.8751
58120SOL    HW281476   5.899  12.662   4.822 -0.4314 -0.4032  1.0122
58121SOL     OW81477   0.879   7.359  10.514  0.3745 -0.0765  0.8074
58121SOL    HW181478   0.902   7.352  10.606  0.4573  1.8823  0.9836
58121SOL    HW281479   0.819   7.434  10.510 -0.4918 -0.8162 -0.5830
58122SOL     OW81480   6.151   6.470  11.550  0.0117  0.8084  0.3108
58122SOL    HW181481   6.086   6.536  11.524 -1.6636 -0.8401  0.0574
58122SOL    HW281482   6.117   6.434  11.632 -0.1092 -0.9221 -0.4407
58123SOL     OW81483   8.156   7.509   5.801  0.1589  0.3199  0.2304
58123SOL    HW181484   8.177   7.563   5.877  0.9217  0.6866 -0.2327
58123SOL    HW281485   8.213   7.542   5.731 -0.9586  0.4142 -0.6766
58124SOL     OW81486   2.212   7.427   4.427  0.3750 -0.2765 -0.1777
58124SOL    HW181487   2.172   7.513   4.437  2.9390  0.9284  0.7117
58124SOL    HW281488   2.183   7.396   4.341 -0.2727  1.6808 -0.7117
58125SOL     OW81489   7.356  12.124   0.955  0.1994 -0.3211  0.2379
58125SOL    HW181490   7.261  12.110   0.960  0.2289 -0.1433  3.3575
58125SOL    HW281491   7.394  12.043   0.991  1.0885  0.5787  1.3972
58126SOL     OW81492   0.134   3.251   1.347 -0.2380  0.3781  0.3627
58126SOL    HW181493   0.062   3.287   1.295 -0.2017  0.6763  0.5161
58126SOL    HW281494   0.199   3.321   1.350  0.3339 -0.1147 -0.2953
58127SOL     OW81495   2.599   7.994   2.032 -0.1544 -0.3026 -0.7319
58127SOL    HW181496   2.651   7.955   1.962  0.1163 -0.7535 -0.2899
58127SOL    HW281497   2.624   7.945   2.110 -1.6383 -0.9090 -0.5911
58128SOL     OW81498   1.662   1.456   5.943 -0.3267  0.4958  0.5248
58128SOL    HW181499   1.617   1.415   5.869  1.9786  0.1590 -0.7976
58128SOL    HW281500   1.673   1.385   6.006  0.6089 -0.0978 -0.2751
58129SOL     OW81501  11.127  12.175   2.611 -0.0670  0.0305 -0.1566
58129SOL    HW181502  11.212  12.190   2.569  0.6071  0.5941  1.3467
58129SOL    HW281503  11.071  12.143   2.540  0.9805  1.0590 -1.5042
58130SOL     OW81504   7.717   2.562  12.388  0.2551 -0.0464  0.2595
58130SOL    HW181505   7.644   2.585  12.331 -0.1033  0.1502  0.7832
58130SOL    HW281506   7.725   2.637  12.447 -0.8264 -1.1322  1.8946
58131SOL     OW81507   6.936   1.310   4.616  0.4829  0.3507  0.1814
58131SOL    HW181508   7.007   1.270   4.566 -0.4328  0.3895 -1.1848
58131SOL    HW281509   6.921   1.249   4.688  3.0529  1.1972  1.5797
58132SOL     OW81510   3.754  10.422   6.241 -0.0032  0.0888  0.8594
58132SOL    HW181511   3.683  10.455   6.184 -1.1012 -0.0820  2.0733
58132SOL    HW281512   3.786  10.344   6.197  0.4674  1.0008 -0.4680
58133SOL     OW81513  11.530  10.376   3.721  0.2255  0.0234  0.3517
58133SOL    HW181514  11.576  10.432   3.784 -0.4856  1.5839 -0.4554
58133SOL    HW281515  11.437  10.394   3.736  0.0473  1.3185 -1.8387
58134SOL     OW81516   6.025   3.797   5.354 -0.2569  0.6989 -0.1314
58134SOL    HW181517   6.012   3.787   5.448  1.6013  1.4408  0.2590
58134SOL    HW281518   5.957   3.857   5.326 -2.7545 -1.8399  0.1105
58135SOL     OW81519  12.846   2.732  10.935 -0.6169 -0.7717  0.3247
58135SOL    HW181520  12.798   2.677  10.873  0.9164  1.4687 -3.1430
58135SOL    HW281521  12.779   2.767  10.993 -2.4744 -1.4990 -1.2804
58136SOL     OW81522  11.304   6.096   2.680  0.1852  0.2868 -0.0144
58136SOL    HW181523  11.311   6.069   2.589  1.4569 -1.0113  0.4390
58136SOL    HW281524  11.235   6.040   2.716 -0.0287  0.5152 -0.0646
58137SOL     OW81525  11.526  12.566   2.079  0.0359  1.0408 -0.2379
58137SOL    HW181526  11.608  12.518   2.088 -0.3654  0.4738  0.4299
58137SOL    HW281527  11.507  12.564   1.985  0.6703  1.0007 -0.3712
58138SOL     OW81528   8.759   2.644   9.250 -0.0286 -0.4021  0.1047
58138SOL    HW181529   8.770   2.721   9.305  1.9892 -0.3444 -0.2885
58138SOL    HW281530   8.705   2.674   9.177 -2.0956 -0.2884  1.6025
58139SOL     OW81531   5.359   5.653   0.663  0.3457 -0.1935  0.2974
58139SOL    HW181532   5.346   5.566   0.625  0.3208  0.1438 -0.4915
58139SOL    HW281533   5.333   5.643   0.755  1.3147 -1.2665  0.4761
58140SOL     OW81534   5.861   3.526   1.443  0.1727  0.3414  0.0503
58140SOL    HW181535   5.898   3.613   1.460 -1.7284  1.2967 -0.3032
58140SOL    HW281536   5.771   3.532   1.476  0.0585 -1.5741  0.1924
58141SOL     OW81537   4.869   2.720   7.937 -0.4242 -0.2735 -0.1554
58141SOL    HW181538   4.836   2.644   7.984  1.1075  0.5498  2.4729
58141SOL    HW281539   4.808   2.790   7.957 -0.0184 -0.0270  0.2370
58142SOL     OW81540  11.204   6.958  10.467  0.5527  0.6619  0.0806
58142SOL    HW181541  11.193   7.029  10.403  1.0805 -0.3152 -1.1428
58142SOL    HW281542  11.120   6.913  10.469  0.9206 -0.1068 -0.9503
58143SOL     OW81543   1.063   9.092  10.547 -0.0907  0.7171 -0.0858
58143SOL    HW181544   0.995   9.160  10.550 -0.5970  0.3264 -1.7738
58143SOL    HW281545   1.144   9.140  10.563 -0.6841  1.2607  1.5367
58144SOL     OW81546   7.525   8.465  12.560 -0.5418  0.5469  0.5208
58144SOL    HW181547   7.537   8.436  12.469 -1.0688 -2.4270  1.2837
58144SOL    HW281548   7.490   8.554  12.553  1.5340  1.2904 -2.1054
58145SOL     OW81549   7.826   4.600  11.828  0.0306 -0.6203 -0.7978
58145SOL    HW181550   7.894   4.619  11.764  1.0571  2.8018  1.0574
58145SOL    HW281551   7.757   4.664  11.809  0.0700  0.0159  1.0368
58146SOL     OW81552  11.556   6.787   2.233  0.2051  0.4168 -0.8720
58146SOL    HW181553  11.575   6.878   2.208 -0.4317  0.7364 -0.2204
58146SOL    HW281554  11.629   6.762   2.289  0.8372  0.2196 -1.7537
58147SOL     OW81555   9.875   7.515  11.339  0.0172  0.0086  0.1551
58147SOL    HW181556   9.907   7.443  11.392 -0.0747 -0.7002 -0.7210
58147SOL    HW281557   9.840   7.473  11.260  1.0736  1.0731 -0.9301
58148SOL     OW81558  12.326   1.054   9.413  0.6642 -0.1130 -0.0052
58148SOL    HW181559  12.276   1.002   9.476  0.0515 -0.3075 -0.6388
58148SOL    HW281560  12.360   0.991   9.350 -0.3578  0.2632 -0.9682
58149SOL     OW81561   0.931   2.408   7.107 -0.4838 -0.3881  0.1054
58149SOL    HW181562   0.906   2.362   7.026  0.8275 -3.8876  1.4862
58149SOL    HW281563   0.863   2.384   7.170 -0.3554  0.5381  0.6134
58150SOL     OW81564   6.094   0.682   3.714 -0.3061 -0.2501  0.0272
58150SOL    HW181565   6.054   0.720   3.791  0.0676 -0.0458  0.1237
58150SOL    HW281566   6.021   0.657   3.658 -0.5675 -0.0437  0.2768
58151SOL     OW81567   9.763  10.420   4.718  0.0362 -0.4132 -0.8181
58151SOL    HW181568   9.803  10.505   4.735  0.4321 -0.4050 -1.7536
58151SOL    HW281569   9.687  10.440   4.663 -0.0742 -0.6319 -0.7451
58152SOL     OW81570   6.509   2.484   0.510 -0.1713 -0.2194  0.2868
58152SOL    HW181571   6.509   2.579   0.522  0.4710  0.0294 -1.3973
58152SOL    HW281572   6.543   2.449   0.592  0.4707  1.0675  0.5875
58153SOL     OW81573  12.146   6.949   3.992 -0.0233 -0.0600  0.4925
58153SOL    HW181574  12.063   6.915   3.959 -0.5551 -0.3711  2.0881
58153SOL    HW281575  12.126   7.038   4.021  0.2470 -0.0684  0.7096
58154SOL     OW81576   7.550   9.741   3.398 -0.1104 -0.1463  0.0142
58154SOL    HW181577   7.589   9.815   3.352 -1.0156  1.0365  1.0768
58154SOL    HW281578   7.499   9.695   3.332 -0.2736  0.7130 -0.4666
58155SOL     OW81579   8.389   5.092   9.684  0.1458  0.1418 -0.1457
58155SOL    HW181580   8.310   5.131   9.647  0.3493  0.7983  0.0999
58155SOL    HW281581   8.460   5.124   9.628  0.4736  1.2751  0.8992
58156SOL     OW81582   2.643   0.961  11.968 -0.5653 -0.0792 -0.0460
58156SOL    HW181583   2.709   1.004  12.023 -1.1446  0.3847  0.2983
58156SOL    HW281584   2.618   0.883  12.017  2.1038 -2.1487 -1.6575
58157SOL     OW81585   4.842   4.697  11.296 -0.3412 -0.7391  0.0435
58157SOL    HW181586   4.794   4.762  11.245  0.6918 -0.6593 -0.8491
58157SOL    HW281587   4.799   4.697  11.382 -1.6261 -0.3399 -0.5862
58158SOL     OW81588   1.609   9.456  12.738  0.1899 -0.1489  0.2884
58158SOL    HW181589   1.673   9.460  12.808  0.9887  0.5512 -0.4677
58158SOL    HW281590   1.572   9.368  12.744  0.2668 -0.1121  1.5478
58159SOL     OW81591   1.013   8.560   8.864  0.0339 -0.1839 -0.0264
58159SOL    HW181592   0.921   8.562   8.839 -0.2353  2.2600  0.8982
58159SOL    HW281593   1.017   8.499   8.937 -0.6260 -1.1207 -0.7524
58160SOL     OW81594  12.020   2.238  12.317  0.6360  0.2437  0.2803
58160SOL    HW181595  11.969   2.314  12.345  0.2768  0.6739 -1.4337
58160SOL    HW281596  12.065   2.267  12.238  1.2774 -1.0251  0.1507
58161SOL     OW81597   0.055   6.742   4.925 -0.1639  0.1608  0.5660
58161SOL    HW181598   0.047   6.793   5.005 -1.2616 -0.0296  0.5935
58161SOL    HW281599   0.132   6.777   4.881  0.3300  0.4022  1.6018
58162SOL     OW81600   3.012   0.266   3.202 -0.2762  0.6305  0.0013
58162SOL    HW181601   3.057   0.230   3.126 -2.3913 -1.3372 -0.4156
58162SOL    HW281602   2.952   0.197   3.230 -1.1695  2.1360  2.0990
58163SOL     OW81603   8.320   9.614   0.151 -0.2921  0.0944 -0.3469
58163SOL    HW181604   8.282   9.693   0.189 -0.0202  0.1631 -0.2114
58163SOL    HW281605   8.346   9.561   0.226 -1.8420 -0.8062 -0.4211
58164SOL     OW81606  12.560   9.769   5.295 -0.1119 -0.8189 -0.1380
58164SOL    HW181607  12.504   9.830   5.246  2.9535  0.3734 -2.4697
58164SOL    HW281608  12.579   9.699   5.232  1.7430 -0.6536  0.1800
58165SOL     OW81609   8.700  11.403   5.451 -0.7641  0.0992 -0.0345
58165SOL    HW181610   8.638  11.331   5.467 -0.5777 -0.7175 -2.5492
58165SOL    HW281611   8.645  11.477   5.425 -0.8551  0.4038  0.9860
58166SOL     OW81612   6.895   6.259   2.015 -0.4914  0.2487  0.2227
58166SOL    HW181613   6.821   6.256   1.954 -1.0172 -0.0994  0.8602
58166SOL    HW281614   6.917   6.352   2.020 -1.2453  0.4257  0.4446
58167SOL     OW81615  10.785   1.625   7.903 -0.7119  0.1695 -0.4002
58167SOL    HW181616  10.691   1.605   7.898 -0.7905  0.7976 -2.1029
58167SOL    HW281617  10.798   1.692   7.836  0.8312  0.6165  0.3188
58168SOL     OW81618   0.672   1.872   7.188 -0.8564 -0.2246 -0.1664
58168SOL    HW181619   0.620   1.795   7.209 -1.3780  0.4079  0.9162
58168SOL    HW281620   0.756   1.837   7.158 -0.1496 -1.2149  2.7270
58169SOL     OW81621  12.655   5.375  11.652 -0.3588  0.0018 -0.3354
58169SOL    HW181622  12.622   5.412  11.734  1.2668 -0.0276  0.3697
58169SOL    HW281623  12.708   5.300  11.679 -0.5596 -0.5797 -1.4906
58170SOL     OW81624  12.010   7.228   9.501  0.3297 -0.0602  0.6505
58170SOL    HW181625  12.013   7.145   9.549 -1.6639 -0.6407 -0.1037
58170SOL    HW281626  11.998   7.201   9.409 -0.3035  1.0496  0.3917
58171SOL     OW81627   5.028   0.668   7.289 -0.0127 -0.1075  0.6805
58171SOL    HW181628   5.025   0.679   7.194  1.1942 -1.3242  0.4789
58171SOL    HW281629   5.121   0.662   7.310 -0.2906 -0.7932  1.8121
58172SOL     OW81630   1.296   0.924   0.285 -0.2145 -0.5634 -0.3021
58172SOL    HW181631   1.222   0.905   0.228  0.0645 -0.1172 -0.8147
58172SOL    HW281632   1.264   0.993   0.344  0.1085  0.3559 -1.1857
58173SOL     OW81633   4.924   1.706   8.021 -0.4416  0.0019 -0.2488
58173SOL    HW181634   4.984   1.640   7.986  0.1411  0.4279 -0.0703
58173SOL    HW281635   4.939   1.702   8.116 -1.4696 -0.6274 -0.1003
58174SOL     OW81636  11.952   4.310   7.481  0.0131  0.3216 -0.0241
58174SOL    HW181637  11.974   4.222   7.511 -1.3228  0.0607  0.2289
58174SOL    HW281638  12.036   4.357   7.482  0.8341 -1.0653 -0.6451
58175SOL     OW81639  12.048   5.073   7.725 -0.0227 -0.1370  0.6230
58175SOL    HW181640  12.046   5.024   7.643 -1.1889 -1.0596  1.1670
58175SOL    HW281641  12.071   5.008   7.791  0.0307  0.4049  1.1460
58176SOL     OW81642   7.580   7.144   1.027 -0.2254  0.4161 -0.3451
58176SOL    HW181643   7.534   7.223   1.055 -1.8154 -0.3011 -0.8171
58176SOL    HW281644   7.519   7.101   0.967 -0.0236 -1.8817  0.9839
58177SOL     OW81645   3.367  11.147   7.861 -0.3524  0.0134  0.8751
58177SOL    HW181646   3.382  11.241   7.872  2.7006  0.0384 -1.8809
58177SOL    HW281647   3.298  11.142   7.794 -0.1329  0.3171  0.6219
58178SOL     OW81648  11.285   6.636   9.964  0.0103  1.1418  0.6127
58178SOL    HW181649  11.299   6.591   9.880 -0.2572  2.6984 -0.3047
58178SOL    HW281650  11.275   6.565  10.028  2.2149 -0.1182 -0.3037
58179SOL     OW81651  12.564  12.851  10.943  0.4571  0.2576  0.0764
58179SOL    HW181652  12.551  12.808  10.858  1.8094 -0.4258  0.2027
58179SOL    HW281653  12.486  12.827  10.993  0.5697 -0.9741 -0.3067
58180SOL     OW81654  11.923   6.559  11.834 -0.3052 -0.1164  0.3501
58180SOL    HW181655  11.921   6.473  11.793 -2.6692 -0.3503  0.8441
58180SOL    HW281656  11.917   6.621  11.761 -1.6741 -0.4641  0.1462
58181SOL     OW81657   5.306   1.131   0.785 -0.3760  0.0773 -0.2507
58181SOL    HW181658   5.231   1.080   0.816 -1.2412  1.6414  0.3347
58181SOL    HW281659   5.359   1.144   0.863 -1.0593  1.5288 -0.0011
58182SOL     OW81660  12.241   9.057   4.983  0.8219 -0.2706 -0.5575
58182SOL    HW181661  12.264   8.974   5.025 -1.1231 -0.2774  0.6316
58182SOL    HW281662  12.167   9.035   4.927 -1.3737  0.9797  1.6256
58183SOL     OW81663   9.331  10.388   0.134 -0.6608 -0.0517 -0.7506
58183SOL    HW181664   9.384  10.408   0.057 -0.4980  0.7050 -0.4416
58183SOL    HW281665   9.393  10.389   0.207 -0.8682 -0.4777 -0.5622
58184SOL     OW81666  11.779   9.785   5.908 -0.3056  0.2605 -0.1178
58184SOL    HW181667  11.789   9.876   5.879  0.6593 -0.1391 -1.0777
58184SOL    HW281668  11.787   9.733   5.828  1.1389 -0.8012  0.6794
58185SOL     OW81669  10.701   3.425   5.478 -0.2813 -0.2647 -0.2795
58185SOL    HW181670  10.731   3.513   5.501 -1.0318 -0.0351 -0.1639
58185SOL    HW281671  10.607   3.434   5.463 -0.3249 -0.9990 -0.5076
58186SOL     OW81672  10.403   6.071   3.367  0.1347 -0.1609 -0.6943
58186SOL    HW181673  10.347   6.138   3.327 -0.4463 -0.5672 -0.5817
58186SOL    HW281674  10.404   6.094   3.460  1.1536  0.5472 -0.8651
58187SOL     OW81675  10.803   5.482  10.074 -0.1673  0.6404 -0.8031
58187SOL    HW181676  10.807   5.419  10.002 -0.3277  0.6671 -0.8345
58187SOL    HW281677  10.718   5.524  10.064  0.5105  1.8855 -1.6377
58188SOL     OW81678   1.989   0.850   1.461 -0.6371 -0.0611 -0.2746
58188SOL    HW181679   1.978   0.901   1.381 -1.3540  1.4964  0.7772
58188SOL    HW281680   1.931   0.892   1.525 -1.1775 -2.1394  0.6823
58189SOL     OW81681   6.229   6.125   4.418  0.2406  0.1335 -0.2315
58189SOL    HW181682   6.196   6.200   4.369  0.5439 -0.1875 -0.9287
58189SOL    HW281683   6.310   6.157   4.458  0.0091  0.3846  0.0444
58190SOL     OW81684  11.016   9.479   1.792  0.3505 -0.3766  0.2458
58190SOL    HW181685  11.096   9.488   1.843 -0.4893  0.9515  1.3809
58190SOL    HW281686  11.044   9.493   1.701  1.2387  1.2110  0.7281
58191SOL     OW81687   1.923   5.625  11.582 -0.3050 -0.6081  0.7066
58191SOL    HW181688   1.988   5.616  11.651  0.3570  1.2642  0.3914
58191SOL    HW281689   1.955   5.568  11.512  1.7492  1.1369  0.0863
58192SOL     OW81690   4.715   6.479   7.687 -0.1245 -0.0216 -0.0982
58192SOL    HW181691   4.712   6.508   7.596 -1.5763  1.9032  0.5026
58192SOL    HW281692   4.666   6.545   7.735  1.7034 -0.2694  2.3105
58193SOL     OW81693   5.539   9.092   1.040  0.2350  0.0558  0.2988
58193SOL    HW181694   5.574   9.052   1.120 -0.7537  0.5159  0.9693
58193SOL    HW281695   5.561   9.185   1.047 -0.0112  0.1288  0.1093
58194SOL     OW81696   9.283   1.652   6.696 -0.3057  0.1232 -0.0694
58194SOL    HW181697   9.233   1.683   6.620  0.3222  0.4683 -0.3573
58194SOL    HW281698   9.220   1.649   6.767 -0.8727 -0.0670 -0.5746
58195SOL     OW81699   4.029   4.870   5.679 -0.4692  0.3223 -0.3244
58195SOL    HW181700   3.988   4.906   5.758  0.8543  0.2596  0.4152
58195SOL    HW281701   4.063   4.785   5.706  0.3973  0.4926 -0.8176
58196SOL     OW81702   6.687   5.489   6.230 -0.1610 -0.0617  0.2807
58196SOL    HW181703   6.623   5.447   6.288  1.4848 -0.4049  1.9442
58196SOL    HW281704   6.712   5.569   6.276 -0.9553  1.1968 -1.3876
58197SOL     OW81705   2.331   5.116   6.649  0.2428  0.0625 -0.1775
58197SOL    HW181706   2.303   5.197   6.692 -1.3352 -0.9457  0.7778
58197SOL    HW281707   2.303   5.127   6.558  0.8333  0.9347 -0.2693
58198SOL     OW81708  11.970  10.730   9.575 -0.1687 -0.2194  0.6526
58198SOL    HW181709  11.959  10.823   9.557  0.3881 -0.3818 -0.6140
58198SOL    HW281710  11.931  10.686   9.500 -1.5401 -1.0793  1.7950
58199SOL     OW81711  10.828  11.465   8.636 -0.3206  0.1144  0.2562
58199SOL    HW181712  10.872  11.497   8.558  2.7571  0.3076  1.9327
58199SOL    HW281713  10.766  11.535   8.659  0.7817  1.3623 -0.4266
58200SOL     OW81714   3.265   8.996   3.842 -0.0911 -0.3988 -0.2704
58200SOL    HW181715   3.337   8.960   3.893  0.9712 -1.5734 -2.4586
58200SOL    HW281716   3.267   9.090   3.860  0.6485 -0.6719  1.2584
58201SOL     OW81717   8.891   4.767   7.380 -0.2748 -0.1753  0.3632
58201SOL    HW181718   8.876   4.857   7.409  0.2236 -0.6007  2.0513
58201SOL    HW281719   8.813   4.720   7.409 -0.1574 -0.4613  0.2175
58202SOL     OW81720  11.148   7.514   6.136 -0.2273  0.5253  0.6147
58202SOL    HW181721  11.207   7.536   6.208  0.0109  1.2158  0.2126
58202SOL    HW281722  11.205   7.473   6.070 -0.2243  1.0304  0.3005
58203SOL     OW81723   0.103   9.199  10.254 -0.3935  1.0146  0.0613
58203SOL    HW181724   0.134   9.188  10.344  0.4905 -0.1916 -0.3687
58203SOL    HW281725   0.090   9.293  10.245 -0.1267  1.1940  1.3331
58204SOL     OW81726   0.540   6.978   1.599  0.5152 -0.3035  0.4006
58204SOL    HW181727   0.455   6.992   1.642  0.0589  0.7707 -0.7678
58204SOL    HW281728   0.598   6.948   1.669  0.7351  4.4970  2.6725
58205SOL     OW81729  10.979  10.036   9.970 -0.4998 -0.5182 -0.0155
58205SOL    HW181730  10.889  10.066   9.983 -0.3492 -0.0142 -0.1034
58205SOL    HW281731  10.986  10.020   9.876 -0.2543  0.2683 -0.1401
58206SOL     OW81732   7.998   1.784   7.114  0.0610 -0.0070  0.5445
58206SOL    HW181733   8.066   1.791   7.047 -2.5092  0.5677 -2.1886
58206SOL    HW281734   8.028   1.841   7.185  2.4734  0.0736 -0.4557
58207SOL     OW81735   4.515   4.026   4.216  0.0031  0.2410  0.0158
58207SOL    HW181736   4.431   4.069   4.231  0.3833  1.1174 -0.2891
58207SOL    HW281737   4.492   3.937   4.189 -0.7827  0.0593  1.2158
58208SOL     OW81738   7.608   2.519   8.280 -0.5270  0.3293 -0.1670
58208SOL    HW181739   7.569   2.496   8.196 -2.7878 -1.6675  1.2881
58208SOL    HW281740   7.593   2.442   8.335  1.3557  1.3519  1.9245
58209SOL     OW81741  12.115   8.061   6.490 -0.5312  0.2961  0.7553
58209SOL    HW181742  12.075   7.977   6.467  0.6254 -0.3750  1.1052
58209SOL    HW281743  12.064   8.093   6.565 -1.6123  0.4134 -0.0119
58210SOL     OW81744   5.576   4.659  12.583  0.1438  0.1676  0.2433
58210SOL    HW181745   5.543   4.571  12.566  0.9080 -0.0424 -0.1648
58210SOL    HW281746   5.502   4.704  12.625 -0.2123 -0.7003  0.5800
58211SOL     OW81747  11.597   5.662   1.233  0.3933 -0.0238 -0.3210
58211SOL    HW181748  11.539   5.705   1.295  2.1983  1.4803  0.4271
58211SOL    HW281749  11.637   5.591   1.284 -0.4481 -0.8077 -0.7224
58212SOL     OW81750   8.861  10.061  11.442 -0.0214 -0.5792  0.5671
58212SOL    HW181751   8.925   9.991  11.457 -0.4877 -1.0744  0.2659
58212SOL    HW281752   8.902  10.139  11.479  0.8299 -0.8603  0.2458
58213SOL     OW81753   8.065   2.610   8.916  0.1769 -0.0047 -0.1497
58213SOL    HW181754   8.111   2.668   8.976  1.8169  0.0227 -1.3760
58213SOL    HW281755   8.090   2.522   8.944  0.1487 -0.0239 -0.1852
58214SOL     OW81756   8.336   0.757   9.400  0.3986  0.9813  0.1652
58214SOL    HW181757   8.335   0.672   9.443  1.5265  0.3262 -1.0256
58214SOL    HW281758   8.427   0.787   9.407  0.2681  1.5480 -0.4187
58215SOL     OW81759   9.986   7.243   7.925 -0.2583  0.0772  0.0488
58215SOL    HW181760   9.996   7.283   7.838 -1.6394  0.6407  0.1237
58215SOL    HW281761   9.994   7.149   7.909 -0.8598  0.1512 -0.7564
58216SOL     OW81762   5.513   1.683   8.038 -0.2755 -0.6370  1.1267
58216SOL    HW181763   5.438   1.625   8.028 -0.7971  0.3959 -2.6160
58216SOL    HW281764   5.476   1.771   8.028  1.1240  0.0311  1.6569
58217SOL     OW81765   9.606   3.854   0.079 -0.0774  0.0303 -0.2114
58217SOL    HW181766   9.634   3.850  -0.013  0.2372 -0.7414 -0.0871
58217SOL    HW281767   9.601   3.948   0.098 -1.0336  0.2156 -1.2807
58218SOL     OW81768   2.466   1.586   8.950  0.1250 -0.2816  0.4585
58218SOL    HW181769   2.375   1.559   8.965 -0.4732  0.4443 -1.4830
58218SOL    HW281770   2.518   1.512   8.978 -1.0717 -0.7748  1.4764
58219SOL     OW81771   9.665   3.527   9.488  0.0803  0.0531  0.3061
58219SOL    HW181772   9.662   3.580   9.408  2.3714  1.0886  0.8259
58219SOL    HW281773   9.667   3.591   9.559  2.3789 -0.6938  0.9824
58220SOL     OW81774  12.551   0.551   4.942 -0.4169  0.4006  0.1620
58220SOL    HW181775  12.504   0.469   4.958 -1.7672  1.0847 -0.1102
58220SOL    HW281776  12.540   0.567   4.849  0.7146  0.3923  0.0174
58221SOL     OW81777   6.568   5.855   4.435  0.1188 -0.2797 -0.5163
58221SOL    HW181778   6.519   5.880   4.514 -0.4379  1.0040 -1.2349
58221SOL    HW281779   6.638   5.921   4.429  0.3824 -0.5887 -0.8993
58222SOL     OW81780  10.162   7.975   1.787 -0.4467  0.1716  0.6265
58222SOL    HW181781  10.233   8.008   1.842 -0.0820 -0.4418  0.5406
58222SOL    HW281782  10.193   7.986   1.698 -1.1369  1.3822  0.5166
58223SOL     OW81783   5.498   2.605   8.898 -0.0067 -0.1644 -0.4677
58223SOL    HW181784   5.569   2.647   8.848 -0.1417  0.5888 -0.0297
58223SOL    HW281785   5.422   2.661   8.884 -0.1784 -0.2354  0.1503
58224SOL     OW81786  12.478   1.643   5.516  0.7211  0.0234 -0.3052
58224SOL    HW181787  12.507   1.654   5.606  1.1776 -3.3315  0.1169
58224SOL    HW281788  12.553   1.602   5.472  0.1929  0.7826 -1.9861
58225SOL     OW81789   1.151   6.456  11.007  0.6617 -0.6793  0.1193
58225SOL    HW181790   1.152   6.540  10.961  4.3601 -0.8344 -0.3964
58225SOL    HW281791   1.110   6.475  11.091  0.7143  1.4776 -0.2800
58226SOL     OW81792   9.927   8.247   6.933  0.0721  0.4522  0.2236
58226SOL    HW181793  10.018   8.262   6.905 -0.6800  1.6290 -1.7053
58226SOL    HW281794   9.926   8.155   6.960  1.3012 -0.2966 -2.0340
58227SOL     OW81795   6.882   9.530   7.358 -0.1378  0.5347  0.0482
58227SOL    HW181796   6.925   9.554   7.275  2.1749 -0.0553  0.9951
58227SOL    HW281797   6.910   9.597   7.420  0.4552 -0.5510  0.9967
58228SOL     OW81798  11.557   2.416   9.877  0.0905 -0.1992  0.1358
58228SOL    HW181799  11.519   2.397   9.791 -1.2668 -1.7036  1.0019
58228SOL    HW281800  11.556   2.332   9.922 -1.0111  0.8907  2.2775
58229SOL     OW81801   2.913   1.489   2.114  0.5728 -0.4553  0.2324
58229SOL    HW181802   2.998   1.484   2.158  0.6913 -1.4942 -0.0931
58229SOL    HW281803   2.934   1.485   2.020  0.4150  2.8036 -0.0726
58230SOL     OW81804   9.182  10.087  11.156 -0.0912 -0.9079 -0.1277
58230SOL    HW181805   9.257  10.077  11.098 -0.6333 -2.2365 -0.6327
58230SOL    HW281806   9.109  10.045  11.110 -0.5975 -1.8078  1.3867
58231SOL     OW81807   4.190  10.840   0.646 -0.0454 -0.3374 -0.0720
58231SOL    HW181808   4.135  10.914   0.670  0.0347 -0.0445 -0.7677
58231SOL    HW281809   4.191  10.840   0.550  2.5180  0.7229 -0.1233
58232SOL     OW81810   5.533   4.432   5.951 -0.0363 -0.0363 -0.2693
58232SOL    HW181811   5.597   4.410   6.018  1.9338  2.1031 -1.2890
58232SOL    HW281812   5.461   4.471   5.999  1.7068  2.2735  0.6793
58233SOL     OW81813   8.000   6.229   3.076  0.0622  0.0191 -0.0600
58233SOL    HW181814   7.944   6.165   3.119 -0.4012  0.5294  0.1209
58233SOL    HW281815   7.961   6.240   2.989 -1.4838  1.9676  0.7847
58234SOL     OW81816   9.364   4.379   3.808  0.3603 -0.8826 -0.8150
58234SOL    HW181817   9.309   4.309   3.772 -1.0374  0.4499 -1.4085
58234SOL    HW281818   9.304   4.431   3.861  1.2786  0.1105 -0.7290
58235SOL     OW81819  12.244   1.534   3.020 -0.7056 -0.7693  0.4221
58235SOL    HW181820  12.292   1.540   2.937 -1.5776 -0.6334 -0.0819
58235SOL    HW281821  12.197   1.617   3.027  0.2413 -0.3094  1.6162
58236SOL     OW81822   9.293   6.868   5.649  0.2685 -0.1759  0.5661
58236SOL    HW181823   9.300   6.867   5.744 -0.4612  1.4358  0.6660
58236SOL    HW281824   9.384   6.874   5.619  0.4949 -0.5303  1.1618
58237SOL     OW81825   1.378   3.321   4.953  0.0115  0.2538 -0.0920
58237SOL    HW181826   1.418   3.308   5.039  0.8328 -0.0623 -0.5063
58237SOL    HW281827   1.418   3.402   4.920 -0.6908  0.6549  0.0413
58238SOL     OW81828  10.602  12.603   8.373 -0.2550 -0.0834  0.0002
58238SOL    HW181829  10.630  12.693   8.384  1.3002 -0.7070  1.7401
58238SOL    HW281830  10.618  12.562   8.458  0.6333 -2.3779 -1.1571
58239SOL     OW81831  10.658  10.099   1.210 -0.3573 -0.4335  0.0927
58239SOL    HW181832  10.678  10.178   1.260 -0.6063 -0.7812  0.7568
58239SOL    HW281833  10.567  10.111   1.182 -0.3602 -0.4375  0.1010
58240SOL     OW81834  10.245   1.655   5.193 -0.3228  0.1917  0.1912
58240SOL    HW181835  10.254   1.733   5.138  0.9735 -1.4193 -2.0745
58240SOL    HW281836  10.164   1.613   5.162 -0.2396 -0.0913  0.3564
58241SOL     OW81837   1.913   3.365  12.230 -0.0505 -0.0389  0.4374
58241SOL    HW181838   1.993   3.417  12.234 -0.5063  0.6218  1.3529
58241SOL    HW281839   1.934   3.284  12.277  0.4435 -0.3930 -0.3788
58242SOL     OW81840   1.171  11.251  12.697  0.2505  0.0222 -0.1478
58242SOL    HW181841   1.260  11.225  12.719 -0.1403 -0.7200  0.6069
58242SOL    HW281842   1.159  11.336  12.741  0.7740  0.4124 -0.7437
58243SOL     OW81843  12.133   1.294   3.046 -0.1599 -0.0626  1.1260
58243SOL    HW181844  12.189   1.218   3.035  2.3724  1.5363  2.2404
58243SOL    HW281845  12.188   1.369   3.024 -1.7893  1.6329  2.4550
58244SOL     OW81846   1.870   8.650  10.264 -0.4526  0.1870  0.0809
58244SOL    HW181847   1.812   8.580  10.294  1.9285 -0.8071  2.8267
58244SOL    HW281848   1.872   8.712  10.336 -0.3905  1.7724 -1.2158
58245SOL     OW81849   3.542   5.420   5.933  0.0228  0.2817  0.2178
58245SOL    HW181850   3.568   5.328   5.928 -0.0814  0.1477  1.8280
58245SOL    HW281851   3.447   5.418   5.917 -0.1794 -0.0307  1.3973
58246SOL     OW81852   4.266   8.656   0.988 -0.3204 -0.1769 -0.0413
58246SOL    HW181853   4.342   8.701   1.024 -0.3830  0.5177 -0.7534
58246SOL    HW281854   4.287   8.563   0.996  0.3438 -0.0005  0.3109
58247SOL     OW81855   8.578   2.131   2.438 -0.0636 -0.2200 -0.0841
58247SOL    HW181856   8.569   2.200   2.373 -1.2484  0.2453  0.5358
58247SOL    HW281857   8.672   2.116   2.445  0.0760 -0.7089 -2.3114
58248SOL     OW81858   5.189   0.750   4.041  0.0313  0.0807 -0.1595
58248SOL    HW181859   5.196   0.668   4.090  1.6854  0.8813  1.0594
58248SOL    HW281860   5.119   0.799   4.084  0.5397  0.2048  0.5376
58249SOL     OW81861   3.935  11.919   3.718 -0.0851  0.5362  0.4109
58249SOL    HW181862   3.840  11.910   3.728 -0.1155 -0.5433 -0.5972
58249SOL    HW281863   3.964  11.962   3.798 -1.5810  2.0456  0.2001
58250SOL     OW81864   1.422   4.758   8.710  0.6816  0.2978  0.4410
58250SOL    HW181865   1.425   4.714   8.795 -0.3918 -0.9112 -0.1046
58250SOL    HW281866   1.377   4.841   8.727 -1.2917 -0.7625  0.7630
58251SOL     OW81867   9.664   7.100   1.640 -0.1158  0.5671  0.0152
58251SOL    HW181868   9.586   7.127   1.689 -1.0788  1.2384 -1.7852
58251SOL    HW281869   9.655   7.005   1.633  0.4179  0.3634  1.7016
58252SOL     OW81870  10.757   2.869  11.117 -0.3274  0.2331 -0.0421
58252SOL    HW181871  10.849   2.852  11.096 -0.1981 -0.5299  1.0584
58252SOL    HW281872  10.712   2.864  11.033  0.8982  2.6918 -0.9433
58253SOL     OW81873   4.990  11.952   7.295 -0.1926  0.0343 -0.1271
58253SOL    HW181874   5.005  12.038   7.257  0.4104  0.2132  0.4934
58253SOL    HW281875   5.026  11.891   7.231 -1.8994  0.1358 -1.2403
58254SOL     OW81876   3.572  12.595   1.082  0.0520  0.3103 -0.0679
58254SOL    HW181877   3.545  12.645   1.160 -0.0823  1.8529 -1.0645
58254SOL    HW281878   3.527  12.638   1.009 -1.0421 -2.0405 -0.8709
58255SOL     OW81879   8.516  11.524   0.793  0.0171  0.1201  0.9510
58255SOL    HW181880   8.558  11.487   0.871  2.0212  0.3953  0.0517
58255SOL    HW281881   8.432  11.478   0.788  1.0167 -1.9651  1.7072
58256SOL     OW81882   8.662   0.975   8.300  0.1712 -0.1209 -0.3503
58256SOL    HW181883   8.655   1.065   8.333 -0.7267 -0.1849 -0.3215
58256SOL    HW281884   8.577   0.936   8.321  0.6433 -1.0539 -0.1442
58257SOL     OW81885   8.231  11.505   1.145  0.0015 -0.1865  0.3792
58257SOL    HW181886   8.253  11.559   1.068 -0.2929 -1.4134 -0.5983
58257SOL    HW281887   8.259  11.417   1.121  0.2115 -0.5448  1.8405
58258SOL     OW81888  11.141   7.481  12.933  0.1798 -0.0519 -0.4428
58258SOL    HW181889  11.145   7.390  12.905 -1.6923  0.2764 -1.9636
58258SOL    HW281890  11.131   7.531  12.852  0.6161  1.4685  0.3987
58259SOL     OW81891   8.080   3.214  11.584  0.5114  0.2559  0.1460
58259SOL    HW181892   8.114   3.191  11.498 -0.4539  1.5137 -0.6028
58259SOL    HW281893   8.129   3.159  11.645 -0.5868 -2.6162 -1.3659
58260SOL     OW81894   0.316   5.792   6.370 -0.3475 -0.2918  0.5968
58260SOL    HW181895   0.314   5.809   6.464  0.3445  1.6087  0.3301
58260SOL    HW281896   0.332   5.698   6.362 -1.7941 -0.7228  2.3483
58261SOL     OW81897   7.378   6.342   5.606  0.3366 -0.7291 -0.0781
58261SOL    HW181898   7.312   6.274   5.595  2.2588 -2.7457  0.3206
58261SOL    HW281899   7.332   6.423   5.584 -1.5299 -2.3094 -2.5192
58262SOL     OW81900   2.616   7.459   9.246  0.6895  0.0895  0.3991
58262SOL    HW181901   2.688   7.398   9.229 -0.7324 -1.1848 -1.3709
58262SOL    HW281902   2.552   7.406   9.293  0.1162  0.6851  0.2865
58263SOL     OW81903   3.792  12.092   1.289 -0.2797 -0.3061 -0.3784
58263SOL    HW181904   3.736  12.149   1.236 -0.2441 -0.4044 -0.5234
58263SOL    HW281905   3.840  12.151   1.346 -1.0792 -0.2700  0.2752
58264SOL     OW81906   3.095   5.567   4.343 -0.0993 -0.0064  0.0034
58264SOL    HW181907   3.010   5.553   4.384 -0.0082 -1.2011 -0.1870
58264SOL    HW281908   3.137   5.481   4.345  0.7411  0.3756 -0.7148
58265SOL     OW81909   7.029  10.821   0.917  0.2977  0.4464 -0.0021
58265SOL    HW181910   7.122  10.798   0.918  0.4962  1.2213  0.5327
58265SOL    HW281911   7.001  10.809   1.007  0.5385  2.6918  0.4244
58266SOL     OW81912   2.856   8.710  10.407 -0.3095 -0.4071 -0.5424
58266SOL    HW181913   2.769   8.689  10.441  0.0197 -0.4981  0.2454
58266SOL    HW281914   2.884   8.786  10.457  0.2546 -0.6470 -0.4907
58267SOL     OW81915   7.025   3.342   5.149 -0.6580  0.2682  0.0781
58267SOL    HW181916   7.061   3.362   5.235 -0.2644  1.2578 -0.3003
58267SOL    HW281917   7.090   3.375   5.087 -0.6569 -0.9606 -0.6136
58268SOL     OW81918   7.111   6.533   6.639 -0.5587  0.0900 -0.0927
58268SOL    HW181919   7.095   6.497   6.552  1.3912  0.2823 -0.5957
58268SOL    HW281920   7.131   6.457   6.693  0.6438  0.1197 -0.4474
58269SOL     OW81921   6.832   2.494   4.602  0.9930  0.4006 -0.8628
58269SOL    HW181922   6.875   2.528   4.524 -0.4943 -0.3325 -2.0428
58269SOL    HW281923   6.883   2.417   4.626  0.9234  0.0972 -1.6666
58270SOL     OW81924   5.978  12.556   2.907  0.0049  0.8880  0.3827
58270SOL    HW181925   5.945  12.610   2.979 -0.4092  1.7086 -0.4106
58270SOL    HW281926   5.928  12.474   2.915  1.8936 -0.1578  2.6833
58271SOL     OW81927  12.662   4.607   0.125 -0.8281  0.0655  0.1408
58271SOL    HW181928  12.753   4.629   0.144 -1.0175  2.5683 -1.3201
58271SOL    HW281929  12.615   4.626   0.206 -0.2650  0.3655  0.4049
58272SOL     OW81930  10.813   4.384   7.883  0.1524  0.4044 -0.2634
58272SOL    HW181931  10.870   4.461   7.874 -0.5104  0.8054 -1.2380
58272SOL    HW281932  10.736   4.406   7.832 -0.1702 -0.8097 -0.3255
58273SOL     OW81933   8.047   0.421   4.092  0.1112 -0.7269 -0.0035
58273SOL    HW181934   8.135   0.424   4.130  0.2557  0.3240 -0.4082
58273SOL    HW281935   8.045   0.339   4.042  0.9143 -0.6803 -0.1175
58274SOL     OW81936   8.524   9.979   1.381  0.3821 -0.4855 -0.5233
58274SOL    HW181937   8.552   9.898   1.338  2.0626 -1.0006  1.4185
58274SOL    HW281938   8.552   9.969   1.472 -1.4450  1.3263  0.3013
58275SOL     OW81939   3.751   2.712   5.181 -0.3348 -0.2673  0.5129
58275SOL    HW181940   3.745   2.642   5.247 -2.7573  0.0163  0.6951
58275SOL    HW281941   3.696   2.782   5.216 -0.4515  0.4801 -1.0982
58276SOL     OW81942   8.303   7.328   1.839 -0.1315  0.3456 -0.4385
58276SOL    HW181943   8.317   7.422   1.834 -0.3606  0.3792 -0.4698
58276SOL    HW281944   8.208   7.317   1.830 -0.4082  0.2831  1.9256
58277SOL     OW81945   8.698   0.909  10.514  0.2321 -0.4311 -0.6726
58277SOL    HW181946   8.603   0.915  10.520  0.0827  0.5052 -2.9279
58277SOL    HW281947   8.731   0.976  10.573 -0.5506  0.0354 -0.7592
58278SOL     OW81948  12.047   9.073   3.227 -0.6595 -0.0504 -0.0848
58278SOL    HW181949  12.128   9.098   3.272 -0.9392  0.1603  0.3140
58278SOL    HW281950  11.986   9.143   3.250 -1.2017 -0.6494  0.3142
58279SOL     OW81951   2.168  11.290   2.956 -0.0320  0.7791 -0.5502
58279SOL    HW181952   2.180  11.339   2.875  1.9496  2.3657  0.6122
58279SOL    HW281953   2.126  11.352   3.016 -2.0810 -0.5747 -0.4698
58280SOL     OW81954  11.756   7.090   6.784 -0.8167 -0.2583  0.6815
58280SOL    HW181955  11.701   7.011   6.783  0.3806 -1.1038  0.3936
58280SOL    HW281956  11.821   7.075   6.717 -1.0453  1.3535  0.0516
58281SOL     OW81957   1.463  11.891   1.675  0.0850 -0.4556 -0.3324
58281SOL    HW181958   1.539  11.850   1.715  0.4639  0.2715 -0.2910
58281SOL    HW281959   1.439  11.962   1.735  0.2592  0.2277 -1.0501
58282SOL     OW81960   6.001   3.421  11.083 -0.0715 -0.2105  0.2578
58282SOL    HW181961   6.093   3.420  11.112 -0.2842 -3.2415  1.2571
58282SOL    HW281962   6.006   3.435  10.988  1.6702 -2.4995 -0.0860
58283SOL     OW81963   8.265   2.010   9.070 -0.4630 -0.8509  0.3652
58283SOL    HW181964   8.217   2.001   9.153  0.7591 -0.9366  1.0895
58283SOL    HW281965   8.197   2.023   9.004 -1.3958  1.4349  1.6494
58284SOL     OW81966   3.165  11.640  10.154  0.5508 -0.1582  0.4705
58284SOL    HW181967   3.080  11.639  10.110  0.2744  0.7055  0.9482
58284SOL    HW281968   3.147  11.679  10.240  0.6570 -3.6883  2.2792
58285SOL     OW81969   5.693   4.981   4.948  0.2928  0.1688  0.1115
58285SOL    HW181970   5.652   4.941   5.025 -0.3900  0.9326  0.1502
58285SOL    HW281971   5.620   5.020   4.900  0.6704 -0.5408 -1.0835
58286SOL     OW81972  10.648   0.106   5.797  0.1779 -0.0200  0.3803
58286SOL    HW181973  10.559   0.134   5.819  0.4881  1.5038 -0.1671
58286SOL    HW281974  10.639   0.056   5.716 -0.3911 -1.5804  1.3632
58287SOL     OW81975  10.053   5.365  11.312 -0.0456 -0.2123 -0.1652
58287SOL    HW181976  10.132   5.419  11.321  0.8123 -1.6330  1.6095
58287SOL    HW281977   9.981   5.428  11.314  1.0086  1.1748 -2.3425
58288SOL     OW81978   6.406   2.035   8.892  0.4193  0.2974 -0.3175
58288SOL    HW181979   6.442   1.977   8.824  1.6062  0.6990 -0.0571
58288SOL    HW281980   6.483   2.080   8.928  0.0707 -1.1368  2.4941
58289SOL     OW81981   3.030   0.952   7.495  0.0307 -0.1794  0.5378
58289SOL    HW181982   2.935   0.958   7.504 -0.2573  0.6500 -2.1248
58289SOL    HW281983   3.053   1.022   7.433  2.2754 -0.7937  0.5778
58290SOL     OW81984   9.816   9.902   2.601  0.5601 -0.0911  0.2597
58290SOL    HW181985   9.868   9.970   2.644  0.6503  1.0622 -1.5444
58290SOL    HW281986   9.780   9.946   2.524 -4.7749 -0.1179  2.2660
58291SOL     OW81987   6.175   4.494  10.775  0.3599  0.1908  0.2447
58291SOL    HW181988   6.182   4.536  10.861 -0.2694  0.2757  0.2638
58291SOL    HW281989   6.115   4.421  10.789 -0.1690  0.5277 -0.2315
58292SOL     OW81990   5.586   7.844   2.253 -0.4505 -0.2612  1.0338
58292SOL    HW181991   5.582   7.777   2.321  0.7771 -2.2030 -0.6821
58292SOL    HW281992   5.677   7.873   2.253 -0.9305  1.3363  1.6356
58293SOL     OW81993   6.281   5.446   6.265 -0.4877  0.4662  0.0441
58293SOL    HW181994   6.236   5.442   6.349 -2.0981  0.8184 -0.7640
58293SOL    HW281995   6.272   5.359   6.228 -1.7371  0.8930 -0.7089
58294SOL     OW81996   0.181   1.632   2.189 -0.2601  0.0390  0.3785
58294SOL    HW181997   0.266   1.657   2.152  0.5501 -2.1260  0.6112
58294SOL    HW281998   0.200   1.606   2.279 -1.2428 -0.0619  0.5722
58295SOL     OW81999   1.938  12.414   2.067  0.2938 -0.1468 -0.5198
58295SOL    HW182000   1.994  12.366   2.128  0.4267  0.8230  0.1622
58295SOL    HW282001   1.929  12.357   1.991  0.0419 -1.4339  0.4557
58296SOL     OW82002   8.923   0.242  10.452  0.1328 -0.1329 -0.2764
58296SOL    HW182003   8.945   0.331  10.424  0.9367 -0.7025 -1.5736
58296SOL    HW282004   8.883   0.202  10.375 -1.4608 -0.5047  0.7097
58297SOL     OW82005   9.610   7.796   9.246 -0.0750 -0.2958 -0.1866
58297SOL    HW182006   9.551   7.723   9.265 -0.2563  0.1508  1.0359
58297SOL    HW282007   9.669   7.763   9.178  0.5273 -1.9276  1.0985
58298SOL     OW82008   5.047   4.267   7.138 -0.5168  0.2011 -0.1344
58298SOL    HW182009   4.982   4.213   7.091  0.1057  0.3117 -1.1384
58298SOL    HW282010   5.010   4.355   7.137 -0.0452  0.3997 -1.3188
58299SOL     OW82011   1.567  12.382   4.564  0.2030  0.5144  0.7007
58299SOL    HW182012   1.496  12.336   4.609  1.4300 -0.2798  1.9141
58299SOL    HW282013   1.562  12.352   4.474 -0.8933  0.3490  0.8048
58300SOL     OW82014   1.877   3.177   7.487 -0.0501 -0.7401  0.1900
58300SOL    HW182015   1.918   3.193   7.402 -0.0702  0.5311  0.4007
58300SOL    HW282016   1.943   3.130   7.537  1.4135  1.7114  0.6999
58301SOL     OW82017   1.661   3.952   3.927  0.2492 -0.3679  0.2958
58301SOL    HW182018   1.667   3.873   3.874  3.5954  0.8559 -1.4945
58301SOL    HW282019   1.708   3.931   4.008  1.1016 -0.2719 -0.1628
58302SOL     OW82020   7.121   9.550   9.657 -0.1259 -0.1461  0.3949
58302SOL    HW182021   7.174   9.535   9.578 -0.5859 -0.4578  0.1417
58302SOL    HW282022   7.157   9.490   9.722  0.4467  0.3187  0.5219
58303SOL     OW82023  10.964   4.684   9.822  0.1706 -0.1370  0.2186
58303SOL    HW182024  10.960   4.731   9.739  1.3319  1.1815  0.8741
58303SOL    HW282025  10.899   4.614   9.813 -0.7265  0.8333 -1.2559
58304SOL     OW82026   6.885   7.998   4.340 -0.1084 -0.1070 -0.0106
58304SOL    HW182027   6.825   7.924   4.330 -3.2982  2.3770 -0.9340
58304SOL    HW282028   6.899   8.031   4.252 -1.6082  2.3387  0.5507
58305SOL     OW82029   2.334  10.381   5.598 -0.1585 -0.5491 -0.4746
58305SOL    HW182030   2.370  10.463   5.564  0.4298 -0.6034  0.0078
58305SOL    HW282031   2.250  10.406   5.637  0.1566 -0.1202 -0.0628
58306SOL     OW82032   7.542   7.736  12.527 -0.5360  0.2697 -0.0772
58306SOL    HW182033   7.448   7.720  12.519 -0.6103  0.2753  0.6817
58306SOL    HW282034   7.576   7.725  12.438 -0.7239 -3.0841  0.1429
58307SOL     OW82035   6.695   0.375   2.725 -0.5394  0.3556  0.3515
58307SOL    HW182036   6.767   0.437   2.710  0.6364 -1.1776 -0.7338
58307SOL    HW282037   6.735   0.304   2.775  0.0470 -2.6368 -3.8127
58308SOL     OW82038   7.777   4.140  11.773  0.3210  0.6900 -0.4290
58308SOL    HW182039   7.832   4.212  11.741  0.4963  0.8740  0.2693
58308SOL    HW282040   7.746   4.170  11.858  1.0334 -0.3798  0.2280
58309SOL     OW82041   5.189  10.027   2.829  0.7330  0.6522  0.4405
58309SOL    HW182042   5.261  10.078   2.793  0.2426  1.2439  0.2676
58309SOL    HW282043   5.224   9.986   2.908  1.0285  1.5880  0.8018
58310SOL     OW82044   2.639   1.965  11.121 -0.1362 -0.4498 -0.5372
58310SOL    HW182045   2.689   2.044  11.142  0.1834 -0.6803 -0.4122
58310SOL    HW282046   2.705   1.895  11.119 -0.1734 -0.4814 -2.1060
58311SOL     OW82047   3.041   3.156   9.003  0.2044  0.1066  0.3442
58311SOL    HW182048   3.097   3.078   9.008 -2.0611 -1.5894  1.3970
58311SOL    HW282049   3.028   3.181   9.095 -1.4085 -0.0994  0.1987
58312SOL     OW82050   2.089  11.409   3.802 -0.2399 -0.3781 -0.6120
58312SOL    HW182051   2.158  11.418   3.736  1.1327 -0.7719  0.7107
58312SOL    HW282052   2.054  11.321   3.788 -0.4349 -0.2141 -1.2232
58313SOL     OW82053   6.083   2.860   3.109 -0.1516 -0.5772 -0.7287
58313SOL    HW182054   6.013   2.897   3.055  0.2078  1.8250  0.3209
58313SOL    HW282055   6.043   2.847   3.195  0.5091  0.2258 -0.2868
58314SOL     OW82056   9.717  12.461   5.432  0.0698  0.1221 -0.5427
58314SOL    HW182057   9.737  12.518   5.358 -0.0281 -1.1499 -1.5828
58314SOL    HW282058   9.762  12.378   5.412 -1.4547 -0.8576 -0.1037
58315SOL     OW82059   7.165   5.768   3.729  0.0157  0.2955  0.1610
58315SOL    HW182060   7.236   5.718   3.769 -0.3577 -0.9661 -0.7014
58315SOL    HW282061   7.085   5.733   3.769 -0.2242  0.6482  0.0050
58316SOL     OW82062  12.224   0.126   7.168 -0.5761  0.3931 -0.0125
58316SOL    HW182063  12.172   0.165   7.238 -1.9079  0.0869 -0.7986
58316SOL    HW282064  12.167   0.128   7.091  1.5962  2.7527 -1.7301
58317SOL     OW82065  10.072   2.816   7.330 -0.0606 -0.1032  0.0500
58317SOL    HW182066  10.065   2.910   7.313 -2.2254 -0.6458 -2.8415
58317SOL    HW282067  10.162   2.793   7.306 -0.2144  0.8635 -1.5069
58318SOL     OW82068   7.297  12.209   6.949 -0.1424 -0.0275 -0.1295
58318SOL    HW182069   7.310  12.280   6.886 -0.8158  0.3675  0.1582
58318SOL    HW282070   7.356  12.140   6.921 -1.1679 -0.2643 -1.8240
58319SOL     OW82071  12.358   8.779   0.750  0.2569 -0.0733 -0.1773
58319SOL    HW182072  12.378   8.818   0.835 -0.1999 -1.0170  0.3842
58319SOL    HW282073  12.264   8.759   0.754  0.4499 -1.1250 -0.4738
58320SOL     OW82074   5.604  11.521   5.335 -0.1799  0.6204 -0.1200
58320SOL    HW182075   5.603  11.615   5.316 -2.3556  0.8408  0.7839
58320SOL    HW282076   5.522  11.489   5.298  0.6644 -1.0199 -0.6640
58321SOL     OW82077  11.731   9.607   2.053  0.5778 -0.4829  0.2058
58321SOL    HW182078  11.647   9.651   2.044  0.6649  0.0077  1.5881
58321SOL    HW282079  11.751   9.576   1.964  0.0567  1.3931 -0.6193
58322SOL     OW82080   2.181  12.936   6.162 -0.3850 -0.0131 -0.2515
58322SOL    HW182081   2.135  13.019   6.151 -0.4477 -0.0429 -0.2134
58322SOL    HW282082   2.115  12.870   6.147  0.1365 -0.0890 -2.4621
58323SOL     OW82083   5.049   5.427   3.094  0.0804 -0.0202 -0.4795
58323SOL    HW182084   5.143   5.440   3.108 -0.4092  4.0727  0.4990
58323SOL    HW282085   5.042   5.393   3.005  2.4689 -0.6349 -0.5040
58324SOL     OW82086  12.156   0.744   3.274 -0.4775  0.3481  0.0325
58324SOL    HW182087  12.127   0.694   3.197 -1.2553  1.0404 -0.1310
58324SOL    HW282088  12.104   0.824   3.272  1.1736  1.4667 -0.0543
58325SOL     OW82089   2.642   3.326   8.200 -0.3460 -0.1513 -0.3143
58325SOL    HW182090   2.715   3.354   8.145  1.3059 -2.4390  0.5489
58325SOL    HW282091   2.640   3.231   8.190 -2.0434 -0.3159  1.1249
58326SOL     OW82092   7.589   2.592   6.883 -0.3066 -0.3750 -0.3627
58326SOL    HW182093   7.505   2.550   6.865 -0.5680  0.3124 -0.7935
58326SOL    HW282094   7.566   2.683   6.905  0.2166 -0.5353  0.9209
58327SOL     OW82095   3.981  12.204   6.449 -0.0704 -0.0577  0.2038
58327SOL    HW182096   3.971  12.246   6.535  0.4941 -0.6833  0.5896
58327SOL    HW282097   3.905  12.233   6.399 -1.2030 -0.8397  1.4045
58328SOL     OW82098   1.687   8.390   0.462  0.1782  0.7572  0.0869
58328SOL    HW182099   1.649   8.322   0.516  3.3328 -0.0776  1.4542
58328SOL    HW282100   1.669   8.472   0.509 -2.0629  0.7576 -0.6581
58329SOL     OW82101  12.669   5.962   9.761  0.0355  0.2422  0.2166
58329SOL    HW182102  12.628   5.885   9.801  0.3854 -0.6811 -1.1385
58329SOL    HW282103  12.602   6.029   9.765 -0.9210 -0.6626 -0.1687
58330SOL     OW82104   2.445   3.800   7.926  0.2504 -0.3326 -0.0148
58330SOL    HW182105   2.487   3.808   7.841  1.5625  2.0594  0.7478
58330SOL    HW282106   2.505   3.744   7.977  0.4323 -0.2477 -0.1334
58331SOL     OW82107   5.049   7.696   7.276 -0.4181  0.1015 -0.2366
58331SOL    HW182108   5.125   7.673   7.223 -1.4540 -0.8516 -1.3717
58331SOL    HW282109   5.057   7.642   7.354  0.6344  0.8241  0.1712
58332SOL     OW82110   8.449   5.309   3.604  0.6563 -0.1954  0.2602
58332SOL    HW182111   8.517   5.317   3.670  1.4140  0.6630 -0.6063
58332SOL    HW282112   8.389   5.243   3.640  3.3079 -3.0064 -0.1116
58333SOL     OW82113   3.620   6.081   4.332  0.0823 -0.0793 -0.8666
58333SOL    HW182114   3.623   6.111   4.241  1.0692  1.7735 -0.2807
58333SOL    HW282115   3.699   6.117   4.371  0.4046 -2.0448  0.4018
58334SOL     OW82116   4.155   6.010   8.462  0.9316  0.1689 -0.0700
58334SOL    HW182117   4.247   6.010   8.488  1.3311  0.8750 -1.3564
58334SOL    HW282118   4.154   5.962   8.379 -0.1210 -1.1355  0.6666
58335SOL     OW82119   7.607   6.401   6.994  0.6302  0.2006 -0.1684
58335SOL    HW182120   7.576   6.322   6.951 -1.2458 -0.1304  1.6376
58335SOL    HW282121   7.691   6.376   7.033  0.8906 -0.3584 -1.0657
58336SOL     OW82122   2.820   2.180  11.071  0.4963  0.8117 -0.2581
58336SOL    HW182123   2.911   2.209  11.061  0.6737  0.0867 -0.8972
58336SOL    HW282124   2.794   2.211  11.158  1.6108  0.3988  0.2479
58337SOL     OW82125   6.762   0.527  12.387  0.6312 -0.9687 -0.1771
58337SOL    HW182126   6.681   0.524  12.338  0.1256 -0.4902  0.6059
58337SOL    HW282127   6.737   0.508  12.477  1.1868  0.3729  0.2906
58338SOL     OW82128  11.226   6.454   7.554  0.0290 -0.1529  0.4274
58338SOL    HW182129  11.216   6.389   7.484 -2.3042  1.2014 -0.6540
58338SOL    HW282130  11.283   6.521   7.517  0.7253 -0.5678  0.7418
58339SOL     OW82131  10.378   0.640   4.965  0.3147 -0.1450 -0.5759
58339SOL    HW182132  10.295   0.677   4.936  0.8238 -0.2966 -2.3447
58339SOL    HW282133  10.443   0.706   4.941  0.5476  1.2795  3.2835
58340SOL     OW82134   2.206  10.102   2.480  0.4550  0.2706 -0.0195
58340SOL    HW182135   2.132  10.117   2.540  0.0455 -1.3894 -0.0575
58340SOL    HW282136   2.262  10.179   2.491 -0.8787  1.1897  0.6059
58341SOL     OW82137   0.242   6.585  12.210  0.0605 -0.4052 -0.7117
58341SOL    HW182138   0.169   6.605  12.151  0.7125  2.2046 -0.7834
58341SOL    HW282139   0.244   6.660  12.270  2.1703 -0.8130 -0.2180
58342SOL     OW82140   7.922  11.033  12.403  0.2696  0.1311 -0.1432
58342SOL    HW182141   8.007  11.018  12.362  0.1935  0.6449 -0.4927
58342SOL    HW282142   7.940  11.032  12.497  0.6911  0.4383 -0.2195
58343SOL     OW82143   7.963   0.372   8.366 -0.0293 -0.0673  0.3173
58343SOL    HW182144   8.051   0.408   8.366  1.0573 -2.5402  0.4752
58343SOL    HW282145   7.923   0.404   8.285  1.1479  0.6897  0.0143
58344SOL     OW82146   4.979   1.188  10.215  0.1194  0.6119 -0.5848
58344SOL    HW182147   4.993   1.113  10.273  0.2005  0.5473 -0.6877
58344SOL    HW282148   4.976   1.150  10.127  1.8441  0.9279 -0.7965
58345SOL     OW82149   5.390   3.669   5.441 -0.6481 -0.0166 -0.0595
58345SOL    HW182150   5.358   3.668   5.531 -5.3018  0.0506 -1.4635
58345SOL    HW282151   5.381   3.579   5.410  0.8771 -0.0364 -0.5401
58346SOL     OW82152   5.971   9.997   2.411  0.5383  0.0980 -0.2567
58346SOL    HW182153   5.894  10.018   2.463  0.6733  0.6719 -0.2842
58346SOL    HW282154   6.032   9.956   2.472 -0.1235 -1.1691 -0.4178
58347SOL     OW82155   7.250   3.693   9.698  0.2424  0.4107  0.2525
58347SOL    HW182156   7.341   3.669   9.683  0.0775 -0.1038  0.0595
58347SOL    HW282157   7.199   3.631   9.645 -0.2887 -0.3661  1.6090
58348SOL     OW82158   6.474   3.051  11.011  0.1005 -0.1136 -0.4040
58348SOL    HW182159   6.461   2.956  11.001 -0.5630 -0.7192  4.0303
58348SOL    HW282160   6.387   3.088  10.993 -0.1066 -0.5664 -0.3663
58349SOL     OW82161  11.519   3.528   4.818 -0.7180 -0.4477  0.3630
58349SOL    HW182162  11.602   3.577   4.818 -1.1762  0.3489  0.4245
58349SOL    HW282163  11.455   3.591   4.851 -1.5289 -0.7300 -0.6414
58350SOL     OW82164   0.792   6.751   4.095  0.3312 -0.3090 -0.1755
58350SOL    HW182165   0.837   6.707   4.022 -0.6025 -2.3604  0.4050
58350SOL    HW282166   0.704   6.768   4.062  0.5348  0.7347 -0.2175
58351SOL     OW82167  11.558  11.338  10.843  0.7619 -0.1477 -0.3791
58351SOL    HW182168  11.569  11.313  10.751 -1.9643  0.7325 -1.0370
58351SOL    HW282169  11.590  11.428  10.848 -0.2742  0.2623 -0.8169
58352SOL     OW82170   1.522   1.477  12.515 -0.2126  0.0332  0.0310
58352SOL    HW182171   1.499   1.498  12.424  0.1653 -0.1138 -0.1023
58352SOL    HW282172   1.600   1.422  12.507 -1.6276 -2.1079  0.3281
58353SOL     OW82173   0.501   5.689   0.696  0.0831 -0.1237 -0.4120
58353SOL    HW182174   0.564   5.624   0.728  1.2219  1.0131 -0.2353
58353SOL    HW282175   0.482   5.663   0.606  1.6481  0.0851 -0.8357
58354SOL     OW82176  12.623   2.070   4.042  0.7034 -0.2939  0.0896
58354SOL    HW182177  12.595   2.146   4.092  0.8514 -0.1473 -0.0516
58354SOL    HW282178  12.628   1.999   4.107 -0.5570 -0.4708  0.0257
58355SOL     OW82179  10.406  11.192   3.593 -0.4838  0.0201 -0.5117
58355SOL    HW182180  10.382  11.252   3.664  0.2304 -0.1268 -0.1366
58355SOL    HW282181  10.436  11.250   3.523  0.4297  0.1059 -0.0656
58356SOL     OW82182   4.339   7.017   3.952 -0.3016 -0.0167 -0.1467
58356SOL    HW182183   4.352   7.011   4.046  0.0097 -1.0091 -0.2359
58356SOL    HW282184   4.424   6.992   3.914  0.0290  1.8172 -0.6898
58357SOL     OW82185   5.424  11.503   8.054 -0.6094  0.6506 -0.3078
58357SOL    HW182186   5.500  11.514   7.997 -0.0041 -0.9206  0.1217
58357SOL    HW282187   5.351  11.537   8.003 -0.1237 -0.8496 -2.1549
58358SOL     OW82188   9.355  12.801   6.049 -0.0875  0.0663  0.4688
58358SOL    HW182189   9.337  12.775   6.139 -0.2822 -0.2587  0.3348
58358SOL    HW282190   9.411  12.731   6.014 -1.6189 -0.8222 -0.2787
58359SOL     OW82191   9.768   7.852   0.874  0.1337 -0.0447  0.5463
58359SOL    HW182192   9.748   7.921   0.937  0.4511  0.0975  0.4960
58359SOL    HW282193   9.824   7.791   0.921  1.7900  0.9269 -0.0577
58360SOL     OW82194  12.800   0.263  10.025  0.3245  0.1538  0.6865
58360SOL    HW182195  12.761   0.324   9.962 -0.3739 -1.1046 -0.1654
58360SOL    HW282196  12.891   0.292  10.033  0.5968  0.0622 -1.3518
58361SOL     OW82197  11.371   5.926   6.120 -0.6744 -0.2389 -0.0246
58361SOL    HW182198  11.353   5.995   6.056 -0.5408  0.2009  0.4064
58361SOL    HW282199  11.465   5.911   6.112 -0.0497  1.9645  2.1615
58362SOL     OW82200  12.613   5.300  10.194 -0.1615 -0.7244  0.9917
58362SOL    HW182201  12.639   5.316  10.285 -0.3332 -1.0006  1.0874
58362SOL    HW282202  12.606   5.205  10.187 -0.7514 -0.6715  0.8532
58363SOL     OW82203   9.607   9.421   8.829 -0.2597  0.7777  0.6044
58363SOL    HW182204   9.541   9.382   8.772  1.3569 -1.9426  0.4119
58363SOL    HW282205   9.582   9.394   8.918  0.7923 -0.7715  0.4814
58364SOL     OW82206   5.759   3.810   9.338 -0.1158  0.1145  0.1379
58364SOL    HW182207   5.687   3.783   9.394 -1.0188 -0.2372 -1.1620
58364SOL    HW282208   5.787   3.731   9.293  0.1962  0.5049 -0.3725
58365SOL     OW82209   9.904   4.299  10.791  0.4787  0.2632 -0.0194
58365SOL    HW182210   9.905   4.300  10.887 -0.7522 -0.0117  0.0180
58365SOL    HW282211   9.821   4.341  10.768 -0.0715 -1.2290 -0.9135
58366SOL     OW82212   1.890   8.962   3.142  0.4858 -0.5049  0.5437
58366SOL    HW182213   1.899   9.030   3.209  0.0084 -0.1910  0.2975
58366SOL    HW282214   1.819   8.907   3.173 -0.6175  0.3880 -0.3130
58367SOL     OW82215  10.742   6.333   1.275 -0.6086 -0.7126 -0.3018
58367SOL    HW182216  10.714   6.389   1.203 -0.0657  0.0490  0.0682
58367SOL    HW282217  10.835   6.354   1.287 -0.9121 -0.1016  1.2480
58368SOL     OW82218   7.442   9.970   2.047 -0.3443 -0.3077  0.0980
58368SOL    HW182219   7.359   9.924   2.062 -0.5113 -0.1744 -0.3960
58368SOL    HW282220   7.493   9.909   1.994 -0.4815 -0.0162 -0.3741
58369SOL     OW82221   1.104   3.153   6.436 -0.5525  0.0863  0.0890
58369SOL    HW182222   1.171   3.092   6.466 -0.5147 -0.2032 -0.5698
58369SOL    HW282223   1.122   3.165   6.342 -1.0450  0.4872  0.0385
58370SOL     OW82224   7.167   6.114   8.637 -0.2388  0.1893  0.0986
58370SOL    HW182225   7.168   6.086   8.545  0.4898 -0.9606  0.4301
58370SOL    HW282226   7.260   6.117   8.661 -0.4098 -3.0299  1.7669
58371SOL     OW82227   8.915   8.023   2.004 -0.5526  0.7505 -0.0531
58371SOL    HW182228   8.919   7.973   1.923  0.1727  1.9134 -0.7706
58371SOL    HW282229   8.847   8.089   1.988 -1.8335 -0.2264  1.0469
58372SOL     OW82230   6.415   1.960   2.498 -0.3227  0.1734 -0.0670
58372SOL    HW182231   6.429   1.890   2.434  0.0859  0.3653 -0.1936
58372SOL    HW282232   6.490   2.018   2.487 -0.0093 -0.0337  0.9189
58373SOL     OW82233   9.691   6.184   7.154  0.0948  0.7465 -0.4470
58373SOL    HW182234   9.718   6.102   7.195 -1.3714  0.4152 -0.1184
58373SOL    HW282235   9.757   6.199   7.086  0.6554 -0.4301 -0.1865
58374SOL     OW82236  10.483   0.915   1.906 -0.8774 -0.2381 -0.4116
58374SOL    HW182237  10.445   0.893   1.822 -0.5349  0.8223 -0.8628
58374SOL    HW282238  10.501   0.831   1.948 -2.1313 -0.7629 -0.8938
58375SOL     OW82239   2.944   3.922   9.007 -0.6289 -0.0729  0.5833
58375SOL    HW182240   2.870   3.879   8.964 -2.0193  2.4523  0.2756
58375SOL    HW282241   2.947   3.881   9.094 -0.8461 -1.8334 -0.1775
58376SOL     OW82242   7.000   5.791  11.455  0.4909 -0.0752  0.2604
58376SOL    HW182243   7.080   5.758  11.495  1.3021  1.0886 -0.3488
58376SOL    HW282244   7.023   5.877  11.421 -0.7138 -0.1627 -0.9071
58377SOL     OW82245   7.194  11.668   2.519  0.4291  0.0601 -0.3484
58377SOL    HW182246   7.288  11.653   2.523  0.3349 -1.4619 -2.0283
58377SOL    HW282247   7.176  11.732   2.587  2.8161  1.1626 -0.6702
58378SOL     OW82248   3.162   4.923   7.419  0.1487  0.3510 -0.3508
58378SOL    HW182249   3.067   4.912   7.426  0.1631  0.8407  0.9057
58378SOL    HW282250   3.198   4.836   7.435 -0.0709  0.2156 -0.5780
58379SOL     OW82251   1.940   9.945   5.012  0.2424  0.0375 -0.2817
58379SOL    HW182252   1.875   9.902   4.956  0.7014 -2.2146  0.8075
58379SOL    HW282253   2.024   9.926   4.970  0.4184  0.2201 -0.0110
58380SOL     OW82254   7.190  11.882   0.870  0.3165  0.2131 -0.6133
58380SOL    HW182255   7.133  11.958   0.877 -0.1161 -0.0926 -0.8022
58380SOL    HW282256   7.169  11.844   0.785  1.9030  0.9840 -1.3993
58381SOL     OW82257   2.236   5.197   8.629  0.0112 -0.2050 -0.0674
58381SOL    HW182258   2.315   5.183   8.680  1.2018  1.9999 -1.1413
58381SOL    HW282259   2.257   5.162   8.542 -0.3808 -0.1055 -0.2048
58382SOL     OW82260   7.893   0.561   6.378 -0.2303 -0.2373  0.0139
58382SOL    HW182261   7.981   0.526   6.392 -0.1842 -0.2364 -0.2710
58382SOL    HW282262   7.872   0.537   6.288 -1.1921 -1.7067  0.5888
58383SOL     OW82263   9.219   3.572   2.844  0.7966 -0.4973  0.0603
58383SOL    HW182264   9.141   3.524   2.870 -1.1602  1.9074 -0.9731
58383SOL    HW282265   9.227   3.555   2.750  0.8668  0.0813 -0.0463
58384SOL     OW82266   1.673  12.902   5.321  0.1837 -0.1568  0.2198
58384SOL    HW182267   1.674  12.813   5.357  0.9951 -0.4223 -0.4126
58384SOL    HW282268   1.593  12.941   5.355 -0.6432 -1.4216 -0.1815
58385SOL     OW82269   5.592   3.574   1.463  0.3126 -0.2800 -0.1642
58385SOL    HW182270   5.560   3.623   1.387 -0.7953  0.5800  0.8040
58385SOL    HW282271   5.514   3.531   1.498  0.5364  0.3383  1.1759
58386SOL     OW82272   5.936   6.639   0.332  0.5913 -0.3581  0.4316
58386SOL    HW182273   5.912   6.546   0.326 -0.6393 -0.0060 -0.7444
58386SOL    HW282274   5.860   6.685   0.296  0.6270  1.1890  2.1865
58387SOL     OW82275   6.688   0.145  12.450  0.3168  0.0263 -0.9291
58387SOL    HW182276   6.655   0.061  12.480  1.3298 -0.5891 -1.4918
58387SOL    HW282277   6.683   0.202  12.527  0.0526 -0.6708 -0.4243
58388SOL     OW82278   3.164  10.507   6.484 -0.0167  0.4192 -0.0757
58388SOL    HW182279   3.157  10.412   6.472 -2.3758  0.6645 -1.1593
58388SOL    HW282280   3.184  10.541   6.397  0.7003  0.9324  0.2860
58389SOL     OW82281   6.944  12.851  10.031  0.5367 -0.2634  0.5112
58389SOL    HW182282   6.964  12.799  10.108  0.7425  1.4981  1.6889
58389SOL    HW282283   6.872  12.803   9.988  1.5454 -2.1536  0.8312
58390SOL     OW82284  12.291   0.146   9.466 -0.2797 -0.2686 -0.7347
58390SOL    HW182285  12.348   0.091   9.413  0.5366  0.0762 -0.2238
58390SOL    HW282286  12.337   0.156   9.549  0.8184  3.1562 -1.5797
58391SOL     OW82287   9.985   7.324  11.496 -0.1444  0.2623  0.1119
58391SOL    HW182288  10.081   7.332  11.497 -0.2380  1.8717 -0.4285
58391SOL    HW282289   9.961   7.321  11.588  0.5454 -2.9838  0.3167
58392SOL     OW82290   9.236   7.862   0.320  0.2755 -0.1901 -0.1898
58392SOL    HW182291   9.320   7.877   0.276 -0.2078  0.2037 -0.9929
58392SOL    HW282292   9.198   7.949   0.330  0.8317 -0.1164  2.0058
58393SOL     OW82293  10.055  11.605   6.386  0.3321 -0.1754  0.1464
58393SOL    HW182294  10.071  11.511   6.393  1.9500 -0.1259 -2.0077
58393SOL    HW282295   9.959  11.613   6.380  0.2262 -1.7715 -0.6169
58394SOL     OW82296  11.304   3.984   7.418 -0.0289 -0.3335  0.2360
58394SOL    HW182297  11.247   4.061   7.425  1.3491  1.0748 -2.2644
58394SOL    HW282298  11.392   4.019   7.434  1.0509 -0.5118 -4.0969
58395SOL     OW82299   7.310   0.415   4.893 -0.3213  0.7608  0.1119
58395SOL    HW182300   7.239   0.459   4.846 -1.0193 -0.6280 -0.1946
58395SOL    HW282301   7.266   0.370   4.965  0.7600  3.1025  2.3743
58396SOL     OW82302   9.660  12.744  10.354 -0.8360 -0.2567  0.6149
58396SOL    HW182303   9.739  12.797  10.371 -1.9130  0.7417  2.9688
58396SOL    HW282304   9.672  12.713  10.265  1.8195  0.5683  0.5710
58397SOL     OW82305   2.756   4.972   3.180  0.2028  0.0563 -0.2700
58397SOL    HW182306   2.737   5.002   3.091 -0.2203  1.8108  0.3781
58397SOL    HW282307   2.746   5.050   3.234 -2.1151 -1.4564  1.7068
58398SOL     OW82308   0.510   4.272   9.724 -0.9606  0.4694  0.2851
58398SOL    HW182309   0.429   4.249   9.677 -0.6317  0.0947 -0.1028
58398SOL    HW282310   0.480   4.297   9.812 -1.5528  0.8466 -0.0126
58399SOL     OW82311   2.709   9.188   5.126  0.2121  0.0984 -0.0051
58399SOL    HW182312   2.772   9.141   5.072 -0.6747 -0.0135 -0.9644
58399SOL    HW282313   2.747   9.275   5.137  0.8266 -0.1634 -0.0593
58400SOL     OW82314   6.398  10.949   8.063  0.1843 -1.0538 -0.3502
58400SOL    HW182315   6.491  10.958   8.043  0.2012 -0.6249 -0.0763
58400SOL    HW282316   6.395  10.878   8.127  0.2213 -1.7647 -1.1196
58401SOL     OW82317   9.189   2.750   8.018 -0.5890 -0.2208  0.6329
58401SOL    HW182318   9.259   2.710   8.070 -0.1213 -0.1997  0.0384
58401SOL    HW282319   9.123   2.776   8.082  1.0636  2.1117  1.5361
58402SOL     OW82320  12.814   4.104   0.931 -0.1393  0.2122 -0.0646
58402SOL    HW182321  12.773   4.021   0.956 -1.2375  0.9779  0.8194
58402SOL    HW282322  12.743   4.156   0.894  0.7086  0.4783 -1.3591
58403SOL     OW82323   8.651   2.813   4.605  0.7357 -0.2771  0.5593
58403SOL    HW182324   8.697   2.776   4.680  1.3468  0.7869  0.7326
58403SOL    HW282325   8.684   2.902   4.598  2.0441 -0.8444 -2.0478
58404SOL     OW82326   3.933   5.080  11.866  0.0635 -0.1686  0.4222
58404SOL    HW182327   3.862   5.033  11.824 -0.8883  0.8795  0.7917
58404SOL    HW282328   3.973   5.017  11.926  0.3102 -1.1516 -0.7623
58405SOL     OW82329   2.183  12.172   1.978  0.0306  0.1390 -0.3351
58405SOL    HW182330   2.252  12.138   1.922  1.2416  1.0855  0.5350
58405SOL    HW282331   2.224  12.242   2.028 -1.0158 -0.5624  1.6379
58406SOL     OW82332  12.826   9.299   8.980 -0.2174  0.1889  0.6290
58406SOL    HW182333  12.817   9.393   8.995 -1.8769  0.6249 -2.3718
58406SOL    HW282334  12.736   9.267   8.977  0.2819 -1.2184  0.0185
58407SOL     OW82335   0.164   0.626  10.054  0.2418 -0.2046  0.4456
58407SOL    HW182336   0.191   0.701  10.001  0.0616  0.9438  1.9441
58407SOL    HW282337   0.173   0.655  10.144  0.7620 -2.2047  1.0883
58408SOL     OW82338   4.558   2.253  11.791  0.4423  0.4880  0.2616
58408SOL    HW182339   4.653   2.249  11.778  0.2870  0.8557 -1.1208
58408SOL    HW282340   4.536   2.344  11.774 -0.1920  0.3587  0.3827
58409SOL     OW82341  12.880   3.859   8.771  0.7052 -0.3314 -0.0841
58409SOL    HW182342  12.953   3.824   8.720  1.0848 -0.4242  0.5106
58409SOL    HW282343  12.868   3.797   8.843  1.7510  0.9905  1.2996
58410SOL     OW82344   4.122   4.955   4.386  0.4119  0.4157 -0.5636
58410SOL    HW182345   4.167   5.036   4.362  0.2127  0.6541 -0.1621
58410SOL    HW282346   4.029   4.979   4.386  0.3964  0.4191  0.3469
58411SOL     OW82347   6.820  12.920  11.772 -0.0339 -0.2423 -0.1149
58411SOL    HW182348   6.768  12.888  11.846  1.0408  1.1783  1.3027
58411SOL    HW282349   6.780  13.004  11.749  0.6493  0.0959 -0.0753
58412SOL     OW82350  10.233   5.158   3.032  0.2285  0.2708  0.2403
58412SOL    HW182351  10.149   5.195   3.008  0.6054  2.2979  1.7618
58412SOL    HW282352  10.298   5.216   2.991  0.8779 -0.2125  0.5578
58413SOL     OW82353  12.566   8.425   3.953 -0.1386 -0.3484  0.6021
58413SOL    HW182354  12.631   8.376   4.003 -0.5764  0.5266  2.1040
58413SOL    HW282355  12.513   8.358   3.910  1.3164 -1.0858 -0.1004
58414SOL     OW82356   2.759   8.786   1.154 -0.1409 -0.3123 -0.0728
58414SOL    HW182357   2.814   8.723   1.106  0.5705  0.2443 -0.0030
58414SOL    HW282358   2.678   8.739   1.171 -0.3772 -0.5660 -1.7486
58415SOL     OW82359   6.877   6.705  10.216  0.1806 -0.5303 -0.0491
58415SOL    HW182360   6.901   6.665  10.299 -0.5769  1.1377  1.0459
58415SOL    HW282361   6.926   6.787  10.214 -0.6488 -0.0304 -0.7159
58416SOL     OW82362  11.782  11.427  11.339 -0.9444 -0.5172  0.3228
58416SOL    HW182363  11.817  11.460  11.256 -1.6196 -0.2352  0.1414
58416SOL    HW282364  11.715  11.491  11.364 -1.9416 -1.4908  0.2230
58417SOL     OW82365   6.767   5.390   3.115 -0.1248  0.2197  0.1818
58417SOL    HW182366   6.847   5.350   3.080 -0.8957 -0.7728 -0.5117
58417SOL    HW282367   6.760   5.355   3.204  0.6337  0.9661  0.5517
58418SOL     OW82368   0.407   7.623   1.016 -0.3868 -0.1100 -0.0666
58418SOL    HW182369   0.483   7.680   1.004 -0.2933 -0.2680 -0.2312
58418SOL    HW282370   0.443   7.543   1.055 -0.3157 -0.5872 -1.1002
58419SOL     OW82371   8.314   5.239  11.196  0.3843 -0.2690  0.3339
58419SOL    HW182372   8.326   5.230  11.102  0.2158  0.8351  0.1982
58419SOL    HW282373   8.383   5.300  11.224 -1.0676  1.3544  0.5157
58420SOL     OW82374  10.416   8.394   4.729  0.0005  0.2875  0.1175
58420SOL    HW182375  10.506   8.374   4.703 -0.5433 -0.2972 -1.4184
58420SOL    HW282376  10.362   8.331   4.681 -1.2145  0.3822  1.3061
58421SOL     OW82377  12.067   8.059   2.190 -0.1109  0.1176  0.3207
58421SOL    HW182378  12.066   8.041   2.283 -2.4990 -0.5295  0.2379
58421SOL    HW282379  11.986   8.109   2.174  0.0902 -0.0394 -1.4330
58422SOL     OW82380   3.346   2.726   2.009  0.3719  0.0588  0.1726
58422SOL    HW182381   3.402   2.802   2.025 -0.3511  0.9677 -1.4007
58422SOL    HW282382   3.367   2.666   2.081  0.9822  1.7036  1.4415
58423SOL     OW82383   9.655   7.345  12.258 -0.4115 -0.7489  0.1476
58423SOL    HW182384   9.665   7.258  12.218 -0.0676 -1.1043  0.9858
58423SOL    HW282385   9.694   7.336  12.344 -2.3917 -0.4091  1.1395
58424SOL     OW82386   6.001   3.125   2.965 -0.2332  0.5794 -0.0838
58424SOL    HW182387   6.006   3.153   2.873  0.5001  1.0343  0.0798
58424SOL    HW282388   6.031   3.202   3.014 -1.0902  0.5067  0.5693
58425SOL     OW82389   0.334   3.755  10.343  0.0295 -0.5441 -0.6221
58425SOL    HW182390   0.276   3.829  10.326  0.8921  0.1137 -0.7808
58425SOL    HW282391   0.276   3.680  10.354 -1.0856  0.6615  2.6888
58426SOL     OW82392   5.570  10.088   0.889  0.0742 -0.4320  1.0215
58426SOL    HW182393   5.567  10.003   0.934 -1.0926 -0.9594  0.0271
58426SOL    HW282394   5.596  10.150   0.956  1.0419 -1.5802  1.7619
58427SOL     OW82395   7.267   8.082  11.811  0.0696  0.3384 -0.0614
58427SOL    HW182396   7.330   8.010  11.800 -1.1834 -0.5883 -1.5112
58427SOL    HW282397   7.217   8.058  11.889  0.5011  0.2965  0.2049
58428SOL     OW82398   0.043  10.196   9.473  0.3088 -0.6989  0.2250
58428SOL    HW182399   0.067  10.106   9.454  0.2562 -0.5140 -0.8073
58428SOL    HW282400  -0.050  10.193   9.492  0.0248 -0.7180 -1.0532
58429SOL     OW82401   9.550   1.818   9.881 -0.4635 -0.7034  0.4934
58429SOL    HW182402   9.509   1.903   9.895  0.1071 -0.5226  1.1506
58429SOL    HW282403   9.578   1.790   9.969 -0.3162 -1.3962  0.2335
58430SOL     OW82404  10.388   3.367   2.239 -0.0418  0.3682  0.3568
58430SOL    HW182405  10.303   3.411   2.231  0.7160  1.7301 -0.7150
58430SOL    HW282406  10.452   3.437   2.224  1.2734 -0.6470  1.0725
58431SOL     OW82407  11.009  10.822   4.737  0.0126 -0.2099 -0.4517
58431SOL    HW182408  11.034  10.911   4.711 -1.4461  0.0756 -0.9883
58431SOL    HW282409  10.915  10.828   4.754  0.5800 -0.6660  3.8051
58432SOL     OW82410   4.218  11.371   1.280  0.2851  0.0162  0.0505
58432SOL    HW182411   4.289  11.436   1.275  0.6729 -0.4279 -0.3024
58432SOL    HW282412   4.141  11.416   1.246  0.9999 -0.3219 -2.1520
58433SOL     OW82413   5.332   5.216   1.081 -0.0917 -0.3987  1.1584
58433SOL    HW182414   5.242   5.244   1.063  0.0311  0.4577  1.7932
58433SOL    HW282415   5.341   5.132   1.036 -0.8590  0.0340  0.1599
58434SOL     OW82416   8.703  11.454   2.412  0.1572  0.0438  0.0218
58434SOL    HW182417   8.784  11.438   2.461  0.2156  0.8885  0.2202
58434SOL    HW282418   8.639  11.395   2.452  0.4967 -0.1198  0.3319
58435SOL     OW82419   8.003   3.219   4.022 -0.1672  0.0739  0.1725
58435SOL    HW182420   8.001   3.301   3.971 -0.6763  0.2385  0.4498
58435SOL    HW282421   7.916   3.214   4.061 -0.3377 -0.8983 -0.3051
58436SOL     OW82422   2.295  12.434   6.376  0.6773 -0.7799 -0.6882
58436SOL    HW182423   2.271  12.527   6.375  0.6884 -0.7777 -0.7389
58436SOL    HW282424   2.236  12.395   6.441  1.5744 -0.4967  0.3265
58437SOL     OW82425   5.511  10.861   9.523  0.0504 -0.3235  0.5536
58437SOL    HW182426   5.596  10.840   9.485  0.3040  0.6782  0.5275
58437SOL    HW282427   5.471  10.777   9.541  1.4285 -0.8364  1.3922
58438SOL     OW82428   5.241   3.909   7.366 -0.1092 -0.3666  0.2038
58438SOL    HW182429   5.232   3.909   7.271 -0.6796  1.7625  0.2093
58438SOL    HW282430   5.335   3.911   7.381 -0.0262  0.6920 -0.3668
58439SOL     OW82431   8.910   4.626   8.278 -0.2554 -0.1825 -0.1888
58439SOL    HW182432   8.815   4.614   8.283 -0.3079  0.1105 -0.4545
58439SOL    HW282433   8.930   4.691   8.344 -0.3030  0.1050 -0.4570
58440SOL     OW82434   6.372   4.962   7.290  0.3862 -0.0748  0.3997
58440SOL    HW182435   6.400   5.028   7.354  0.4671 -0.4369  0.7457
58440SOL    HW282436   6.449   4.947   7.236 -0.2624  1.7378 -1.1305
58441SOL     OW82437   2.493   5.668  11.724 -0.1150 -0.1962  0.4066
58441SOL    HW182438   2.521   5.682  11.815  2.4036  2.7766 -0.6608
58441SOL    HW282439   2.516   5.577  11.706  0.2568 -0.5584  2.4356
58442SOL     OW82440   9.263   8.222   2.247  0.3311  0.0863 -0.0676
58442SOL    HW182441   9.208   8.240   2.323 -0.0903 -0.3447 -0.2653
58442SOL    HW282442   9.309   8.141   2.270 -1.4478 -1.3093 -1.1278
58443SOL     OW82443  12.472   8.850  12.907  0.1632 -0.2675  0.2252
58443SOL    HW182444  12.417   8.830  12.982  0.5991 -2.3365  0.0630
58443SOL    HW282445  12.452   8.781  12.843 -2.0093  2.7228 -2.6793
58444SOL     OW82446   7.659  11.342   5.465  0.0165 -0.6771 -0.0792
58444SOL    HW182447   7.627  11.400   5.396  0.4949 -0.0817  0.1872
58444SOL    HW282448   7.630  11.255   5.439 -1.9322 -0.1655  0.1915
58445SOL     OW82449   7.356   9.192   9.397 -0.6626  0.3427  0.3664
58445SOL    HW182450   7.442   9.196   9.439 -1.0983  0.5698  1.2630
58445SOL    HW282451   7.346   9.101   9.371 -0.1623  0.3071  0.2971
58446SOL     OW82452   6.735   6.689   5.436  0.6314  0.0702  0.2464
58446SOL    HW182453   6.667   6.743   5.476  0.6907  2.5557 -2.6068
58446SOL    HW282454   6.806   6.689   5.501 -0.2820  1.4838  1.3279
58447SOL     OW82455   2.794   2.522   6.512 -0.1087  0.4315  0.5974
58447SOL    HW182456   2.790   2.503   6.418 -0.0759  0.7264  0.5366
58447SOL    HW282457   2.784   2.616   6.518 -1.9325  0.2389  1.0157
58448SOL     OW82458   8.535   1.745   0.014  0.7634 -0.1686  0.3304
58448SOL    HW182459   8.618   1.717   0.052  1.3274  0.8192 -0.1438
58448SOL    HW282460   8.527   1.837   0.036 -0.4276 -0.3421  0.7307
58449SOL     OW82461  10.694   5.755   3.878 -0.3884  0.3730 -0.6670
58449SOL    HW182462  10.636   5.794   3.814 -0.9233  1.6587  0.5389
58449SOL    HW282463  10.640   5.691   3.924 -0.3251  0.2496 -0.7642
58450SOL     OW82464   4.653   7.098   5.917 -0.1004 -0.4094  0.5209
58450SOL    HW182465   4.740   7.059   5.932  0.0406 -0.2990  0.0175
58450SOL    HW282466   4.652   7.176   5.972 -0.8847 -1.7823  2.5780
58451SOL     OW82467   7.598  10.450   8.880  0.1025 -0.4492 -0.1385
58451SOL    HW182468   7.683  10.412   8.901  0.0049 -0.4303  0.3002
58451SOL    HW282469   7.618  10.539   8.852  0.2756 -0.6224 -0.5791
58452SOL     OW82470   1.250   6.398   8.083  0.6743  0.3592 -0.4472
58452SOL    HW182471   1.272   6.482   8.125 -1.1035  0.0977  1.1576
58452SOL    HW282472   1.273   6.332   8.148  2.5916 -0.5113 -1.9163
58453SOL     OW82473   1.452  10.493   4.147  0.4093 -0.2701 -0.8667
58453SOL    HW182474   1.482  10.418   4.095  0.1664 -0.4152 -0.8002
58453SOL    HW282475   1.533  10.529   4.185  0.5077 -0.6300 -0.7275
58454SOL     OW82476  12.377   0.864   9.198 -0.2715  0.0852  0.6248
58454SOL    HW182477  12.292   0.854   9.155  0.5708 -1.6020 -0.7702
58454SOL    HW282478  12.439   0.873   9.126  0.7845  1.1141  1.6181
58455SOL     OW82479   4.453   2.976  10.644  0.4753 -0.2993  0.2226
58455SOL    HW182480   4.406   2.997  10.725 -0.5262 -0.6167 -0.2671
58455SOL    HW282481   4.545   2.991  10.666  0.1097  0.9965  0.9900
58456SOL     OW82482   9.112  12.122  10.380 -0.3932 -0.1061 -0.2224
58456SOL    HW182483   9.087  12.041  10.423  1.7636 -0.7280 -0.0315
58456SOL    HW282484   9.042  12.184  10.402 -1.5290 -1.6055  0.5062
58457SOL     OW82485   3.291   6.834   5.222  0.5495 -0.3182  0.0453
58457SOL    HW182486   3.211   6.812   5.174  0.1056  2.5443 -0.7101
58457SOL    HW282487   3.280   6.925   5.247  2.4227 -0.6249  2.4103
58458SOL     OW82488   0.892   6.297   5.027 -0.0688  0.0145  0.4036
58458SOL    HW182489   0.942   6.291   4.946  0.4603 -0.4877  0.7605
58458SOL    HW282490   0.938   6.239   5.088 -0.8665 -0.1565  0.8542
58459SOL     OW82491   9.457   9.293   5.805  0.6756 -1.2764 -0.4497
58459SOL    HW182492   9.381   9.280   5.861  1.1370 -0.2563  0.4623
58459SOL    HW282493   9.516   9.221   5.828  1.0983 -0.5601  0.8413
58460SOL     OW82494   9.944   4.821   3.068 -0.1202  0.0913  0.0006
58460SOL    HW182495   9.884   4.759   3.026 -0.3196 -0.1041  0.5704
58460SOL    HW282496   9.952   4.893   3.005  1.0904 -1.0655 -1.2103
58461SOL     OW82497   8.948   2.508   1.813 -0.2455 -0.4552 -0.1521
58461SOL    HW182498   9.009   2.438   1.789 -1.1048 -1.8355  1.4457
58461SOL    HW282499   8.907   2.533   1.730 -1.5080 -3.4333 -0.5568
58462SOL     OW82500   2.322   0.936   3.712 -0.1247 -0.0423  0.2313
58462SOL    HW182501   2.230   0.956   3.695 -0.1158  0.1558  0.4106
58462SOL    HW282502   2.346   0.993   3.785  0.8135  1.6876 -1.3323
58463SOL     OW82503   4.919   2.594   9.959 -0.1810 -0.2185 -0.1401
58463SOL    HW182504   4.933   2.573  10.052  0.9083  0.4732 -0.1217
58463SOL    HW282505   4.957   2.520   9.912  1.4923  0.5193 -0.0401
58464SOL     OW82506   9.459  11.051   0.699  0.1426 -0.1274  0.3714
58464SOL    HW182507   9.391  11.046   0.632 -0.0153  0.4022  0.4903
58464SOL    HW282508   9.445  11.135   0.742  1.8873  0.7703 -0.7037
58465SOL     OW82509   0.440   1.784  12.424  0.0499 -0.0318 -0.3470
58465SOL    HW182510   0.356   1.738  12.418 -0.1387  0.4255 -1.4006
58465SOL    HW282511   0.477   1.755  12.507  0.1432 -2.4157 -1.1445
58466SOL     OW82512   3.816   4.802   1.789  0.1814 -0.0561  0.3765
58466SOL    HW182513   3.824   4.709   1.814 -1.3165  0.2599  2.2849
58466SOL    HW282514   3.806   4.848   1.873 -2.3877  1.4661 -0.6510
58467SOL     OW82515  11.769  11.096   8.134 -0.3623  0.2548 -0.3464
58467SOL    HW182516  11.752  11.169   8.075 -2.1464 -0.7277 -1.1494
58467SOL    HW282517  11.731  11.123   8.217  3.0877  2.0874  0.8351
58468SOL     OW82518   0.496  12.592   5.659 -0.0773 -0.3758 -0.3116
58468SOL    HW182519   0.519  12.678   5.695 -1.2397 -0.6032  1.0481
58468SOL    HW282520   0.551  12.530   5.706 -1.3731 -0.6435  0.9156
58469SOL     OW82521   3.320  11.371   4.608 -0.0394  0.6842  0.3114
58469SOL    HW182522   3.340  11.302   4.544  1.2603  2.6598 -1.5432
58469SOL    HW282523   3.403  11.385   4.654 -0.9506 -0.7057  2.5874
58470SOL     OW82524   5.216  12.564   2.840  0.0866  0.5648  0.2264
58470SOL    HW182525   5.292  12.536   2.891  0.4262 -0.3364 -0.7517
58470SOL    HW282526   5.159  12.487   2.838  0.2329  0.4731 -1.0318
58471SOL     OW82527   3.603   8.184   6.229 -0.2987  0.3373 -0.1677
58471SOL    HW182528   3.615   8.225   6.143 -1.4350 -1.0066 -1.0010
58471SOL    HW282529   3.514   8.150   6.227 -0.2039 -0.0714  1.4140
58472SOL     OW82530  11.125  12.856   4.212 -0.1193  0.3667 -0.2110
58472SOL    HW182531  11.113  12.872   4.118 -0.7145 -0.4579 -0.2873
58472SOL    HW282532  11.037  12.867   4.249 -0.1567 -0.6494  0.0352
58473SOL     OW82533  11.974   0.717   6.759 -0.0861 -0.0590 -0.1584
58473SOL    HW182534  12.021   0.670   6.690 -0.7819  0.8078 -1.2562
58473SOL    HW282535  11.937   0.648   6.814 -1.4970 -0.8533 -2.0042
58474SOL     OW82536   7.347   7.043   4.798  0.2384 -0.0034  0.0489
58474SOL    HW182537   7.288   7.008   4.865 -0.0200  0.0261 -0.1597
58474SOL    HW282538   7.433   7.042   4.839  0.1422 -0.3425  0.2466
58475SOL     OW82539   0.550   3.770   0.439  0.0749  0.2641 -0.4576
58475SOL    HW182540   0.530   3.840   0.501 -2.2612 -0.8475  0.1606
58475SOL    HW282541   0.505   3.693   0.475  1.8875 -1.3845 -1.5270
58476SOL     OW82542   5.844   9.929   3.435  0.0096  0.2699 -0.7164
58476SOL    HW182543   5.890   9.850   3.406  0.0496 -0.0843  0.2855
58476SOL    HW282544   5.751   9.908   3.425 -0.0506 -0.6938  1.4819
58477SOL     OW82545  12.313   3.070   7.663  0.3059  0.1447  0.4428
58477SOL    HW182546  12.365   3.072   7.582 -2.7784  0.7940 -1.7210
58477SOL    HW282547  12.279   2.980   7.666  0.1787  0.2064  0.8533
58478SOL     OW82548   8.726   1.322   1.063  0.0132  0.5993  0.0800
58478SOL    HW182549   8.820   1.338   1.060  0.1776 -0.4732 -1.0159
58478SOL    HW282550   8.713   1.279   1.148  0.8530 -1.1175 -0.6115
58479SOL     OW82551   7.173   2.686   5.769  0.7303 -0.3037  0.5337
58479SOL    HW182552   7.192   2.704   5.677 -0.7226 -1.2092  0.0159
58479SOL    HW282553   7.140   2.769   5.804 -3.5353 -1.0279 -1.1565
58480SOL     OW82554   5.093   1.331   3.268 -0.3460 -0.7018  0.1128
58480SOL    HW182555   5.069   1.405   3.213 -1.9489 -0.5534  0.9509
58480SOL    HW282556   5.182   1.308   3.240  0.4992  1.9734  0.3012
58481SOL     OW82557  12.003  12.534   8.779 -0.8283 -0.3895 -0.0332
58481SOL    HW182558  11.926  12.511   8.831 -0.8279 -0.7294 -0.1865
58481SOL    HW282559  12.032  12.618   8.816 -1.8519  0.2483 -0.6142
58482SOL     OW82560   6.302   6.700   5.171 -0.5183 -0.4869 -0.0271
58482SOL    HW182561   6.360   6.640   5.218  0.8271 -0.8089 -1.9972
58482SOL    HW282562   6.334   6.787   5.193  0.7651 -0.6610 -1.0968
58483SOL     OW82563   4.208  11.465  10.750 -0.7909 -0.4758 -0.3222
58483SOL    HW182564   4.209  11.560  10.744  1.0014 -0.5051 -0.9672
58483SOL    HW282565   4.212  11.447  10.844 -0.2384  0.0902 -0.2307
58484SOL     OW82566  10.516   8.479   3.866 -0.1907  0.1211 -0.0333
58484SOL    HW182567  10.459   8.542   3.910 -1.3885  0.7352 -2.3008
58484SOL    HW282568  10.604   8.500   3.898 -0.8421  1.4268  1.0066
58485SOL     OW82569   3.400   2.268   6.529  0.4590 -0.2833 -0.6222
58485SOL    HW182570   3.489   2.297   6.512  0.3820  0.0271 -0.4953
58485SOL    HW282571   3.353   2.347   6.555  0.5637 -0.7309  1.0368
58486SOL     OW82572  11.964   4.294  11.885 -0.3281  0.2359  0.2854
58486SOL    HW182573  11.952   4.368  11.827  0.7683  0.1340 -0.0885
58486SOL    HW282574  12.036   4.244  11.847  0.3044  0.0738  1.6143
58487SOL     OW82575  10.104   3.694   3.326 -0.2914 -0.3154 -0.3500
58487SOL    HW182576  10.043   3.632   3.366 -0.5371 -0.3441 -0.7623
58487SOL    HW282577  10.155   3.728   3.399 -1.2821  0.2424  0.0977
58488SOL     OW82578   0.065   7.915   0.317  0.1743  0.0368  0.6596
58488SOL    HW182579   0.041   7.936   0.408 -1.7981  1.6788 -0.1472
58488SOL    HW282580   0.054   7.821   0.311  1.0806 -0.2165  2.3120
58489SOL     OW82581   7.919   8.713   3.926 -0.2563  0.3513 -0.0328
58489SOL    HW182582   7.941   8.788   3.981 -0.9200 -0.5574  1.5415
58489SOL    HW282583   7.870   8.654   3.984 -0.2705 -1.0319 -1.3803
58490SOL     OW82584   5.097   7.861  10.097 -0.0640  0.2267  0.0200
58490SOL    HW182585   5.067   7.770  10.088 -1.2030  0.5968 -0.0492
58490SOL    HW282586   5.017   7.911  10.113  0.8331  0.8696  2.9141
58491SOL     OW82587   0.945   4.909   9.097 -0.0216 -0.1722  0.0025
58491SOL    HW182588   0.946   4.991   9.145  0.5884 -0.4755  0.5256
58491SOL    HW282589   0.917   4.843   9.161  2.1743 -0.8115  0.3930
58492SOL     OW82590  12.076   4.225   8.395  0.3337 -0.2590 -0.0953
58492SOL    HW182591  12.038   4.218   8.482  0.5986  0.4511  0.0801
58492SOL    HW282592  12.006   4.263   8.341  0.7325  0.9552  0.2063
58493SOL     OW82593   2.897  11.636   4.188 -0.1563  0.4116 -0.0341
58493SOL    HW182594   2.818  11.608   4.235  1.0053 -0.7352  1.2847
58493SOL    HW282595   2.870  11.718   4.145 -1.4286  1.2559  2.2034
58494SOL     OW82596   6.764   3.905   7.122 -0.3882  0.3282 -0.0194
58494SOL    HW182597   6.748   3.810   7.122 -0.6177  0.3339  1.5000
58494SOL    HW282598   6.678   3.944   7.137  0.0089  0.6352  1.7773
58495SOL     OW82599   0.516   7.537   8.897  0.5092  0.3337  0.0761
58495SOL    HW182600   0.532   7.630   8.881  1.3695  0.1497 -0.1600
58495SOL    HW282601   0.602   7.496   8.889  0.1638 -0.4609  0.3531
58496SOL     OW82602   1.794   7.106   5.037 -0.7130  0.1676 -0.1442
58496SOL    HW182603   1.710   7.129   4.997 -0.4833  1.4136  0.0455
58496SOL    HW282604   1.782   7.127   5.130 -0.6136 -0.9044  0.1229
58497SOL     OW82605  10.276   2.276   8.592 -0.4478 -0.3706 -0.1596
58497SOL    HW182606  10.264   2.191   8.550 -1.0896 -1.0671  1.3524
58497SOL    HW282607  10.370   2.292   8.588 -0.4207 -0.7135 -1.2337
58498SOL     OW82608  11.615   4.641  10.030  0.1816  0.1330 -0.6527
58498SOL    HW182609  11.658   4.660  10.113 -0.4253  0.9135 -0.5088
58498SOL    HW282610  11.558   4.716  10.014 -0.7019 -0.6138 -1.1245
58499SOL     OW82611   8.005   0.080   3.615 -0.3967 -0.1032 -0.5224
58499SOL    HW182612   8.019  -0.013   3.634 -1.6334  0.0066  1.1861
58499SOL    HW282613   8.092   0.119   3.614  0.1212 -1.2305 -1.0999
58500SOL     OW82614   5.876  12.261   2.905 -0.6823 -0.4107  0.3498
58500SOL    HW182615   5.862  12.261   3.000 -0.6813  0.4447  0.3630
58500SOL    HW282616   5.921  12.179   2.887  1.3369  0.3977  1.4090
58501SOL     OW82617   9.307   2.244   3.106 -0.2222 -0.2604  0.4028
58501SOL    HW182618   9.298   2.328   3.060  1.8827  0.5142  1.2770
58501SOL    HW282619   9.330   2.269   3.196 -0.7480 -1.7837  0.9779
58502SOL     OW82620   5.364   7.297   7.866  0.2719 -0.4685 -0.2559
58502SOL    HW182621   5.427   7.250   7.811 -1.7072 -1.9300 -1.4530
58502SOL    HW282622   5.401   7.385   7.877  1.9176 -0.9048 -1.8922
58503SOL     OW82623  11.369   3.918   8.563  0.6522 -0.3847  0.0573
58503SOL    HW182624  11.446   3.861   8.559  0.7114 -0.3035  0.0326
58503SOL    HW282625  11.347   3.935   8.472 -0.0925 -1.3365  0.0451
58504SOL     OW82626   8.457   3.436   3.389 -0.1577  0.0882 -0.4086
58504SOL    HW182627   8.520   3.386   3.336 -1.2159 -1.0119 -0.6989
58504SOL    HW282628   8.448   3.385   3.469  0.4265  1.0421  0.2835
58505SOL     OW82629   8.956  11.247   5.739  0.4631  0.0801  0.1042
58505SOL    HW182630   8.979  11.172   5.683  0.5339  0.7822 -0.8404
58505SOL    HW282631   9.017  11.242   5.812 -2.1273 -3.1910  2.3733
58506SOL     OW82632  10.420   1.337   2.219  0.0692 -0.4437  0.4096
58506SOL    HW182633  10.418   1.307   2.128  1.5798 -0.4265  0.3414
58506SOL    HW282634  10.417   1.256   2.270  0.7327 -0.5423  0.3007
58507SOL     OW82635   2.180   8.050   8.473 -0.7525 -0.1584  0.0874
58507SOL    HW182636   2.200   8.143   8.485  0.9683 -0.3816 -0.7544
58507SOL    HW282637   2.175   8.039   8.378 -0.3648 -1.0391  0.1568
58508SOL     OW82638   6.580  10.928   4.762  0.5289  0.2869 -0.4552
58508SOL    HW182639   6.639  10.954   4.691 -0.4496 -0.3333 -1.5283
58508SOL    HW282640   6.502  10.897   4.718 -0.4058  0.5812  0.9347
58509SOL     OW82641   1.202   1.406   9.338  0.0965 -0.4073 -0.3918
58509SOL    HW182642   1.274   1.445   9.288 -0.5381  2.5481  0.8074
58509SOL    HW282643   1.135   1.389   9.272 -0.2223  2.1922 -0.8468
58510SOL     OW82644  10.531   5.698   9.519 -0.5738 -0.3484  0.2108
58510SOL    HW182645  10.470   5.701   9.445 -0.9525 -0.1458  0.5312
58510SOL    HW282646  10.512   5.777   9.570  0.4821  0.1382 -0.0965
58511SOL     OW82647  10.991   0.226   5.907  0.5650  0.2269 -0.5113
58511SOL    HW182648  10.992   0.270   5.822  1.6423  1.1759 -0.0300
58511SOL    HW282649  10.980   0.133   5.886 -1.4436  0.6441 -1.5675
58512SOL     OW82650   0.938   9.519   4.626  0.0911 -0.2892  0.0871
58512SOL    HW182651   0.863   9.509   4.683  0.1355 -0.3848  0.1291
58512SOL    HW282652   0.902   9.515   4.537 -0.0899  0.7014  0.1032
58513SOL     OW82653   1.707   1.268  12.486 -0.2894  0.0872 -0.6530
58513SOL    HW182654   1.632   1.253  12.428 -2.0677  0.6577  1.3999
58513SOL    HW282655   1.727   1.181  12.522 -1.1510  0.2115  0.1530
58514SOL     OW82656   7.464  12.277   5.930 -0.0766 -0.7995 -0.6657
58514SOL    HW182657   7.503  12.352   5.887 -0.2904 -0.3950 -0.1641
58514SOL    HW282658   7.404  12.240   5.866 -2.4671  1.3951  0.1411
58515SOL     OW82659   6.797   2.727   3.820 -0.2163  0.7166  0.0541
58515SOL    HW182660   6.719   2.700   3.867 -0.2617  1.6134  0.5088
58515SOL    HW282661   6.813   2.656   3.757  1.1499 -1.6934  2.8804
58516SOL     OW82662   2.552   9.163   8.800 -0.0992 -0.0280  0.0663
58516SOL    HW182663   2.525   9.146   8.890 -1.7366 -0.4324 -0.4793
58516SOL    HW282664   2.514   9.091   8.750  0.1473  0.6127 -1.0694
58517SOL     OW82665   2.620   2.946   2.623  0.1626 -0.1527  0.4102
58517SOL    HW182666   2.611   2.969   2.715  1.5407  1.2796  0.2286
58517SOL    HW282667   2.664   3.021   2.584 -0.1461 -0.8544 -1.3689
58518SOL     OW82668   9.719   2.865   2.137  0.1775  0.4037  0.1046
58518SOL    HW182669   9.644   2.911   2.175  0.8834  0.5926  1.2960
58518SOL    HW282670   9.790   2.880   2.198  1.4317  0.9151 -1.4037
58519SOL     OW82671   3.957   6.968   4.981 -0.2994 -0.3347 -0.4928
58519SOL    HW182672   3.878   7.022   4.991 -1.5624 -1.9675 -1.2058
58519SOL    HW282673   4.026   7.019   5.024 -2.0143  0.5114  1.4334
58520SOL     OW82674   3.141  12.205   4.666 -0.2418  0.7251 -0.1382
58520SOL    HW182675   3.108  12.286   4.629  0.2181  0.9390 -0.0900
58520SOL    HW282676   3.236  12.209   4.654 -0.1341  0.5586  0.5694
58521SOL     OW82677  11.780  11.704   5.598  0.3749  0.2310 -0.1941
58521SOL    HW182678  11.730  11.630   5.632  0.8488  0.7015  1.6193
58521SOL    HW282679  11.807  11.753   5.675  1.2860  1.5283 -1.2754
58522SOL     OW82680   4.578   6.198   7.004 -0.0802 -0.0775 -0.2960
58522SOL    HW182681   4.540   6.281   7.033  1.1343  0.4583 -0.1759
58522SOL    HW282682   4.611   6.216   6.916 -0.4296 -0.6403 -0.5482
58523SOL     OW82683   8.160   2.146  10.627 -0.6375  0.3639  0.0287
58523SOL    HW182684   8.112   2.213  10.578 -1.7087 -1.1347 -1.0322
58523SOL    HW282685   8.115   2.064  10.607  0.9192 -0.7632  0.9264
58524SOL     OW82686   1.792  12.319   0.289  0.1804  0.2111 -0.0762
58524SOL    HW182687   1.815  12.230   0.313 -0.2321  0.1334  0.0430
58524SOL    HW282688   1.791  12.367   0.372 -0.5791  0.0954 -0.0075
58525SOL     OW82689  10.739   0.561   4.459 -0.1567 -0.1990 -0.6793
58525SOL    HW182690  10.665   0.537   4.404 -0.1143  0.3069 -0.9697
58525SOL    HW282691  10.751   0.655   4.443  0.9458 -0.4050 -1.1262
58526SOL     OW82692  12.569  12.065  10.725  0.0015  0.3485  0.0279
58526SOL    HW182693  12.604  12.154  10.726 -1.0082  0.7530  1.0967
58526SOL    HW282694  12.503  12.065  10.656 -0.2837  0.5501  0.2978
58527SOL     OW82695   5.642   1.784   7.159 -0.0548 -0.1999  0.2060
58527SOL    HW182696   5.630   1.765   7.066  1.1904 -0.6240  0.1074
58527SOL    HW282697   5.569   1.740   7.202 -0.9329  0.4206 -0.5942
58528SOL     OW82698   6.295  11.261   0.362  0.0849 -0.1486 -0.4078
58528SOL    HW182699   6.221  11.311   0.328 -2.1500 -1.2198  2.4611
58528SOL    HW282700   6.278  11.171   0.335  0.2886 -0.4157  0.3224
58529SOL     OW82701  12.014  11.785   1.205 -0.3681  0.1186 -0.2635
58529SOL    HW182702  12.052  11.707   1.164 -2.6150 -2.2659  1.7857
58529SOL    HW282703  11.958  11.823   1.137  2.6929  1.6498 -2.1523
58530SOL     OW82704   2.674   8.834   5.657 -0.2640 -0.0438  0.5932
58530SOL    HW182705   2.717   8.897   5.716 -0.5517 -0.2883  1.0699
58530SOL    HW282706   2.631   8.889   5.592 -2.0934  0.3772  2.0670
58531SOL     OW82707   1.543  11.224   2.972 -0.0014  0.1975  0.0024
58531SOL    HW182708   1.460  11.185   2.999 -0.0348  1.2736  1.5867
58531SOL    HW282709   1.517  11.296   2.914 -0.0326 -0.8869 -1.3647
58532SOL     OW82710   7.702   8.724   1.093 -0.2051  0.3911  0.1959
58532SOL    HW182711   7.757   8.745   1.018 -0.9125 -0.7682 -0.6698
58532SOL    HW282712   7.663   8.639   1.072  0.5565 -0.5797  2.4436
58533SOL     OW82713  10.701   2.375   0.706 -0.3309  0.0619  0.3310
58533SOL    HW182714  10.691   2.435   0.632 -0.0291 -0.8736 -0.4909
58533SOL    HW282715  10.616   2.331   0.713 -0.5226  0.5070  0.8732
58534SOL     OW82716   8.010  10.353   7.300  0.6823  0.3652  0.4852
58534SOL    HW182717   8.013  10.412   7.224  0.6676 -0.8184 -0.4775
58534SOL    HW282718   8.034  10.268   7.264  0.7628 -0.2062  1.8527
58535SOL     OW82719   0.229  11.633   8.178 -0.7005 -0.4925  0.2013
58535SOL    HW182720   0.140  11.623   8.143 -0.1230 -0.2067 -1.4503
58535SOL    HW282721   0.267  11.545   8.172 -0.4142 -0.3303 -0.4658
58536SOL     OW82722   3.261   0.997   6.239  0.1313 -0.5139 -0.1594
58536SOL    HW182723   3.208   0.971   6.315 -0.4612  2.6116  0.6679
58536SOL    HW282724   3.347   1.015   6.276 -0.3257  1.6454  0.0244
58537SOL     OW82725   7.352   8.819   1.955  0.0808 -0.4178  0.4386
58537SOL    HW182726   7.445   8.820   1.975  0.4823 -0.1332 -1.3035
58537SOL    HW282727   7.324   8.909   1.966  0.3000 -0.2608 -0.2806
58538SOL     OW82728  12.617   4.104   1.165  0.3822  0.5975  0.5176
58538SOL    HW182729  12.667   4.159   1.105  2.0194 -2.0437 -0.7384
58538SOL    HW282730  12.527   4.133   1.154  0.9217  1.7427 -1.5367
58539SOL     OW82731  11.297   0.685   8.076 -0.3746  0.6178  0.5505
58539SOL    HW182732  11.381   0.665   8.118 -0.9022 -0.9006  0.9401
58539SOL    HW282733  11.304   0.777   8.050  0.3691  1.3597  3.0901
58540SOL     OW82734   0.156  12.966   0.401 -0.6220  0.4058 -0.0938
58540SOL    HW182735   0.155  13.060   0.419  1.0677  0.5551 -0.6012
58540SOL    HW282736   0.240  12.951   0.357 -1.2964 -1.1807 -0.9217
58541SOL     OW82737  12.937   1.925   2.891  0.6682 -0.7337  0.1063
58541SOL    HW182738  12.894   1.867   2.955 -0.2936  1.3248  1.4297
58541SOL    HW282739  12.884   1.915   2.812 -0.2714 -0.7321  0.7096
58542SOL     OW82740   9.095   2.605   6.869  0.3942  0.0829  0.0213
58542SOL    HW182741   9.115   2.556   6.948 -0.1399 -1.4228 -0.7335
58542SOL    HW282742   9.163   2.579   6.807  1.2568  1.8179  0.1592
58543SOL     OW82743   8.293  10.246   9.759  0.1428  0.7044  0.1372
58543SOL    HW182744   8.348  10.231   9.682 -0.9552  2.2230 -1.0145
58543SOL    HW282745   8.299  10.164   9.809 -0.3173 -0.9614 -2.3353
58544SOL     OW82746   3.034  12.188  11.259 -0.6466  0.1067 -0.0626
58544SOL    HW182747   3.120  12.209  11.223 -0.3941 -0.3440  0.2746
58544SOL    HW282748   3.005  12.269  11.301  0.3086 -0.1849  1.2100
58545SOL     OW82749   9.939  11.464   9.689  0.1685 -0.3465 -0.2869
58545SOL    HW182750   9.932  11.401   9.760  1.0792  1.6599  1.6903
58545SOL    HW282751   9.859  11.516   9.694 -0.2348 -0.8309 -1.4208
58546SOL     OW82752   7.032   6.918   4.390  0.4509  0.4956  0.8068
58546SOL    HW182753   6.947   6.876   4.379  0.9378 -0.2597 -0.3440
58546SOL    HW282754   7.027   6.998   4.337  0.7447 -0.0056  0.0104
58547SOL     OW82755   7.792  10.276  12.082 -0.0463  0.1435 -0.4986
58547SOL    HW182756   7.840  10.237  12.156 -0.0568  0.6964 -0.1873
58547SOL    HW282757   7.839  10.358  12.065 -1.7457  1.4710  0.8130
58548SOL     OW82758  10.224   2.797  10.513  0.6013  0.6691  0.1154
58548SOL    HW182759  10.249   2.836  10.429  0.9442 -1.1631 -0.6804
58548SOL    HW282760  10.164   2.861  10.551  1.1161  1.9560 -1.1047
58549SOL     OW82761   9.516   8.806   8.298 -0.0032  0.1410 -0.4893
58549SOL    HW182762   9.587   8.772   8.243  0.4264 -1.8174  1.1494
58549SOL    HW282763   9.436   8.771   8.259  0.0390  0.9829 -1.3732
58550SOL     OW82764  12.130   2.876   5.484  0.2311 -0.3903  0.6387
58550SOL    HW182765  12.048   2.925   5.482  0.5698  0.1751  0.5695
58550SOL    HW282766  12.146   2.852   5.393  2.0017  2.6401  0.0228
58551SOL     OW82767   9.963   8.584   7.046 -0.5966  0.1864 -0.0861
58551SOL    HW182768  10.052   8.605   7.019 -0.6880  1.1417  0.3029
58551SOL    HW282769   9.915   8.575   6.963 -0.1242 -0.4531 -0.2978
58552SOL     OW82770   6.428  12.861   5.621  0.4973  0.5383 -0.1093
58552SOL    HW182771   6.425  12.811   5.703 -0.0398  0.7247 -0.0146
58552SOL    HW282772   6.378  12.808   5.558  2.2786 -0.4297 -0.7881
58553SOL     OW82773   6.325   1.763  10.899  0.5138 -0.1630 -0.3123
58553SOL    HW182774   6.266   1.768  10.825 -1.6479  0.0209  1.3174
58553SOL    HW282775   6.402   1.716  10.866 -0.8730 -1.1604 -2.3213
58554SOL     OW82776   2.669   1.607   2.092  0.5970 -0.4052 -0.8280
58554SOL    HW182777   2.640   1.679   2.148  0.0209 -0.8187 -0.5736
58554SOL    HW282778   2.763   1.600   2.108  0.4401 -0.5118  0.0924
58555SOL     OW82779  12.462  12.218   8.288 -0.1338 -0.1017 -0.0178
58555SOL    HW182780  12.463  12.241   8.381  0.7857 -0.2279  0.0193
58555SOL    HW282781  12.375  12.183   8.273 -0.0297 -0.8742  1.0136
58556SOL     OW82782   7.972   1.793  12.691  0.2877 -0.2553 -0.1439
58556SOL    HW182783   8.014   1.829  12.769  1.3891 -2.9770  0.6406
58556SOL    HW282784   7.928   1.868  12.651  1.7688  1.7475  1.7100
58557SOL     OW82785  10.230   4.249   7.924  0.4356 -0.4731  0.2870
58557SOL    HW182786  10.293   4.289   7.864  0.4258  1.4992  1.5085
58557SOL    HW282787  10.159   4.218   7.868 -0.3823  2.7932 -0.6828
58558SOL     OW82788   7.676  10.238   3.290 -0.0498  0.2411 -0.1166
58558SOL    HW182789   7.701  10.267   3.378 -2.2267 -0.1472  0.7057
58558SOL    HW282790   7.654  10.145   3.301  0.1534  0.0523 -1.1860
58559SOL     OW82791   9.476  12.184   4.111  0.4684  0.3711 -0.3900
58559SOL    HW182792   9.548  12.227   4.064  1.0218 -0.9940 -0.8691
58559SOL    HW282793   9.506  12.093   4.121 -1.4964 -0.4343 -1.2621
58560SOL     OW82794   0.752   3.605   8.624 -0.8776 -0.5152 -0.0273
58560SOL    HW182795   0.805   3.675   8.585 -2.2459  0.0881 -0.8847
58560SOL    HW282796   0.816   3.547   8.666  0.2659  1.4502  1.0792
58561SOL     OW82797   5.112   4.132  11.817 -0.2721 -0.2382 -0.9211
58561SOL    HW182798   5.139   4.052  11.863  0.0491  0.5225  0.2451
58561SOL    HW282799   5.077   4.100  11.734  0.9934 -1.5084 -1.0135
58562SOL     OW82800   1.708   3.178   8.717  0.0232  0.1093  0.0714
58562SOL    HW182801   1.703   3.185   8.622 -1.2023  2.4646  0.2337
58562SOL    HW282802   1.802   3.174   8.736  0.2691 -1.5585 -1.2325
58563SOL     OW82803   0.704   2.219   2.791 -0.6812 -0.2206 -0.2284
58563SOL    HW182804   0.642   2.234   2.862 -1.4506 -1.5860 -0.5885
58563SOL    HW282805   0.786   2.200   2.835 -0.8506  0.1536  0.2666
58564SOL     OW82806   5.125   0.484   2.279  0.0934  0.5539 -0.0213
58564SOL    HW182807   5.183   0.431   2.335  0.6228  1.9490  0.7975
58564SOL    HW282808   5.136   0.447   2.192  1.6209  0.2748  0.2597
58565SOL     OW82809   6.506   5.095   1.631  0.1573  0.6489  0.8158
58565SOL    HW182810   6.432   5.116   1.689  0.9943  0.3150  2.0524
58565SOL    HW282811   6.523   5.002   1.647 -0.6590  0.1050 -1.2560
58566SOL     OW82812   0.538   1.561   0.055 -0.3845  0.2775  0.2803
58566SOL    HW182813   0.472   1.566  -0.014 -0.8588  1.0422  0.7805
58566SOL    HW282814   0.575   1.473   0.046 -0.4434  0.3497 -0.9327
58567SOL     OW82815   4.196  10.473   5.594 -0.3311  0.4403 -0.2393
58567SOL    HW182816   4.289  10.473   5.570  0.4129  1.9091  2.2053
58567SOL    HW282817   4.151  10.444   5.516  2.2895 -2.1924 -0.9732
58568SOL     OW82818   5.513   3.273   3.701 -0.2070  0.2000 -0.0105
58568SOL    HW182819   5.429   3.307   3.669  0.1578  0.4262 -0.7309
58568SOL    HW282820   5.518   3.306   3.791 -0.8081  0.3337 -0.0184
58569SOL     OW82821  11.741   6.956   3.498 -0.4143 -0.5004 -0.3521
58569SOL    HW182822  11.768   7.024   3.559 -0.4827  0.2391 -1.1349
58569SOL    HW282823  11.724   6.880   3.554 -0.8556  0.2659  0.5855
58570SOL     OW82824   8.369   9.869   9.217 -0.2013  0.2562  0.9511
58570SOL    HW182825   8.461   9.851   9.237  0.1614  1.3023  0.3037
58570SOL    HW282826   8.364   9.863   9.121 -0.5769  1.2134  0.9032
58571SOL     OW82827   1.804   0.144   3.465  0.1758 -0.4498 -0.0604
58571SOL    HW182828   1.709   0.152   3.465 -0.1864 -3.3732 -1.8838
58571SOL    HW282829   1.834   0.219   3.415 -1.1148  0.5828  0.6363
58572SOL     OW82830  11.069  10.063   1.722 -0.4798  0.2506 -0.3397
58572SOL    HW182831  11.080  10.114   1.802 -0.8646  3.0225 -1.9267
58572SOL    HW282832  11.136  10.096   1.662 -0.9560 -0.8963 -1.5748
58573SOL     OW82833   0.190   6.572  11.754  0.1601 -0.2993 -0.0006
58573SOL    HW182834   0.273   6.523  11.757  0.2793 -0.1020 -0.0665
58573SOL    HW282835   0.150   6.547  11.671 -0.8024 -1.9475  0.9050
58574SOL     OW82836  11.542   6.556  12.568 -0.3259  0.5912  0.0235
58574SOL    HW182837  11.634   6.568  12.546 -0.8616  1.4214 -1.9073
58574SOL    HW282838  11.507   6.499  12.500 -1.4437  1.0186  0.2012
58575SOL     OW82839   8.997   6.710   6.234 -0.4803 -0.1684  0.0433
58575SOL    HW182840   9.043   6.737   6.314 -0.3824 -0.9519  0.2557
58575SOL    HW282841   9.068   6.687   6.173 -0.5785 -0.4334  0.0330
58576SOL     OW82842   4.225   0.656   4.462 -0.3236 -0.2325  0.1226
58576SOL    HW182843   4.166   0.726   4.434 -0.1549  0.2986  1.0574
58576SOL    HW282844   4.307   0.675   4.416  0.1781  1.0536  1.4594
58577SOL     OW82845   3.096   8.695  12.084  0.2691  0.1866  0.3246
58577SOL    HW182846   3.173   8.718  12.137  1.3075 -0.7591 -0.7134
58577SOL    HW282847   3.122   8.715  11.994 -0.6838 -0.2139 -0.0459
58578SOL     OW82848  12.483   5.641   3.587 -0.1307 -0.2737 -0.0804
58578SOL    HW182849  12.426   5.695   3.531 -1.8944  1.2803  2.9424
58578SOL    HW282850  12.494   5.559   3.539 -3.6566 -0.0355 -1.5723
58579SOL     OW82851  12.411   7.992   5.378  0.0468 -0.5440  0.3794
58579SOL    HW182852  12.471   8.063   5.357 -0.1148 -0.1845  1.0879
58579SOL    HW282853  12.467   7.917   5.396  0.1707 -1.0345 -1.8572
58580SOL     OW82854   1.657  10.057   6.315  0.6128 -0.5198 -0.1203
58580SOL    HW182855   1.586  10.010   6.272  0.6792 -1.4085  0.6957
58580SOL    HW282856   1.629  10.148   6.315  0.4798 -0.5268 -1.7400
58581SOL     OW82857  12.239   5.497   7.624 -0.0769 -0.1932 -0.0125
58581SOL    HW182858  12.205   5.433   7.687 -0.4481  0.4717  0.4786
58581SOL    HW282859  12.172   5.565   7.621  0.4181  0.2847 -0.3602
58582SOL     OW82860  10.135   9.764   6.512 -0.3595 -0.4840  0.3774
58582SOL    HW182861  10.160   9.681   6.552 -0.5545 -1.0623 -0.6628
58582SOL    HW282862  10.218   9.808   6.495 -0.1165 -1.4261 -1.0315
58583SOL     OW82863   8.431   1.017   1.498 -0.0177 -0.8004  0.1320
58583SOL    HW182864   8.496   1.057   1.556 -1.0061 -1.7403  1.9710
58583SOL    HW282865   8.462   0.927   1.487 -1.1741 -1.3912  1.3902
58584SOL     OW82866   9.788   9.038   0.638 -0.0787 -0.4311  0.1165
58584SOL    HW182867   9.834   9.016   0.720  0.1824 -1.6954 -0.3474
58584SOL    HW282868   9.695   9.024   0.659  0.0005 -0.9334  0.1530
58585SOL     OW82869  10.038   2.132   5.834 -0.3242  0.5956 -0.3443
58585SOL    HW182870  10.081   2.081   5.902  0.0328  0.6250 -0.5471
58585SOL    HW282871   9.980   2.070   5.790  0.0512  0.3825 -0.5394
58586SOL     OW82872   8.003   9.005   5.713 -0.3981  0.0263 -0.1564
58586SOL    HW182873   7.999   8.994   5.618 -2.7218 -2.8205  0.1202
58586SOL    HW282874   7.915   9.032   5.738  0.5132  2.0273  1.1435
58587SOL     OW82875   3.377   3.043  12.375 -0.3677  0.1668 -0.0469
58587SOL    HW182876   3.298   2.990  12.366  0.4565 -1.1137  0.0337
58587SOL    HW282877   3.434   2.992  12.433  0.5581  1.0255 -0.1733
58588SOL     OW82878   7.525   9.616   7.948 -0.0561  0.3151 -0.0741
58588SOL    HW182879   7.452   9.610   7.886 -1.7433  1.5412  1.6625
58588SOL    HW282880   7.590   9.671   7.904 -1.3716  1.4713 -0.6582
58589SOL     OW82881  12.376   2.104   4.903 -0.6681 -0.0100  0.3275
58589SOL    HW182882  12.407   2.017   4.876 -1.1580 -0.6598  1.7288
58589SOL    HW282883  12.407   2.113   4.993 -3.7927 -0.3732  1.5713
58590SOL     OW82884  10.048  12.339  12.359  0.1031 -0.2137 -0.0295
58590SOL    HW182885  10.057  12.268  12.295 -1.4302  0.4139 -0.9923
58590SOL    HW282886  10.048  12.295  12.444 -0.0602 -1.2828 -0.5648
58591SOL     OW82887   0.142   6.960   3.666 -0.1092  0.1036  0.4033
58591SOL    HW182888   0.064   6.949   3.720 -1.3994  0.9543 -1.1831
58591SOL    HW282889   0.148   6.878   3.616 -0.5103  0.3714 -0.0938
58592SOL     OW82890   7.988   8.548   0.404  0.3788 -0.3604  0.1454
58592SOL    HW182891   7.968   8.597   0.484 -1.9070 -3.0488  1.4113
58592SOL    HW282892   8.062   8.492   0.427  0.6653 -0.0916 -0.1150
58593SOL     OW82893   4.103  11.474   8.505  0.3007  0.1882  0.1764
58593SOL    HW182894   4.104  11.407   8.573 -2.9708  0.3086  0.4907
58593SOL    HW282895   4.126  11.427   8.425 -0.8009 -1.0870  0.5757
58594SOL     OW82896   5.017   4.543  10.970  0.1044 -0.2774 -0.5714
58594SOL    HW182897   5.033   4.576  10.882 -1.0805  1.1234 -0.3008
58594SOL    HW282898   5.092   4.572  11.021 -0.6641  1.6388 -0.4537
58595SOL     OW82899   3.420   0.741   0.154  0.5702  0.1302  0.1353
58595SOL    HW182900   3.416   0.688   0.233  1.5275 -0.9529 -0.4891
58595SOL    HW282901   3.395   0.829   0.181 -0.4374 -0.5082  1.3439
58596SOL     OW82902   4.791   3.622  12.385 -0.4364  0.0229 -0.3300
58596SOL    HW182903   4.862   3.611  12.448  3.0487  2.1255 -3.5109
58596SOL    HW282904   4.786   3.537  12.341  0.6988  0.0685 -0.5810
58597SOL     OW82905   1.010   2.776   5.496  0.3229 -0.8270 -0.2172
58597SOL    HW182906   1.072   2.709   5.525  1.0827  0.9942  2.8966
58597SOL    HW282907   0.933   2.761   5.551  0.8642  1.3229  1.2199
58598SOL     OW82908   1.993   4.368   6.060  0.0920 -0.4984  0.4544
58598SOL    HW182909   2.070   4.420   6.038 -0.3783 -0.2378 -0.6456
58598SOL    HW282910   1.942   4.365   5.979 -0.4628 -1.6859  0.8226
58599SOL     OW82911   1.428  11.907   4.307 -0.2505  0.6708  0.8251
58599SOL    HW182912   1.356  11.844   4.300 -0.2811  0.6847  1.0030
58599SOL    HW282913   1.387  11.992   4.289 -0.3872  0.7396  1.4203
58600SOL     OW82914  10.969   2.626   2.652  0.0583 -0.2729  0.0779
58600SOL    HW182915  10.957   2.672   2.735 -0.5258 -0.5017  0.1292
58600SOL    HW282916  10.910   2.551   2.658  0.2506 -0.4668 -0.4137
58601SOL     OW82917  12.682   8.656  12.546 -0.8765  0.3141  0.5511
58601SOL    HW182918  12.704   8.574  12.501 -2.5008 -0.9642  1.9598
58601SOL    HW282919  12.767   8.695  12.567  0.0128 -1.8152  1.2373
58602SOL     OW82920   9.624   5.827   1.522 -0.1317  0.4530 -0.2189
58602SOL    HW182921   9.545   5.790   1.484 -1.3222  2.0099  0.6073
58602SOL    HW282922   9.603   5.919   1.537  0.5171  0.1766  3.3324
58603SOL     OW82923   1.351   7.904   1.244  0.4074  0.1636 -0.0001
58603SOL    HW182924   1.411   7.929   1.173  0.3691  1.6726  0.4580
58603SOL    HW282925   1.364   7.972   1.311 -1.6520  0.4205  0.1955
58604SOL     OW82926   3.048   9.587   3.309 -0.1978 -0.3117 -0.4829
58604SOL    HW182927   3.128   9.573   3.258  0.0869  2.2558 -0.8487
58604SOL    HW282928   3.078   9.631   3.388 -1.0047 -1.6342  0.6033
58605SOL     OW82929   1.155   4.176   6.442 -0.3610 -0.1862  0.0975
58605SOL    HW182930   1.073   4.174   6.394 -1.0084  0.5088  1.1343
58605SOL    HW282931   1.153   4.096   6.495 -0.0337 -0.5213 -0.3813
58606SOL     OW82932  10.398  11.612   2.028 -0.2896  0.0507 -0.5647
58606SOL    HW182933  10.394  11.694   2.078 -1.2598 -1.0970  1.3858
58606SOL    HW282934  10.480  11.572   2.054 -0.0204  0.1939 -1.1829
58607SOL     OW82935   0.200   6.008   3.516 -0.3565 -0.2149 -0.2627
58607SOL    HW182936   0.272   5.961   3.474  1.6188  1.3117  1.2305
58607SOL    HW282937   0.183   6.082   3.458  0.6187  0.4704  0.2940
58608SOL     OW82938   8.414   7.562  12.065  0.5657  0.5408  0.0080
58608SOL    HW182939   8.437   7.627  12.131  2.9099 -1.7785  1.7340
58608SOL    HW282940   8.428   7.606  11.981  1.1428  2.4935  1.0712
58609SOL     OW82941  10.260   5.263  11.977 -0.1821  0.0937 -0.2191
58609SOL    HW182942  10.296   5.251  12.065 -1.0052 -0.8884  0.0068
58609SOL    HW282943  10.224   5.351  11.977 -0.6531 -0.0904  0.6160
58610SOL     OW82944  12.900  10.857   9.436  0.3118 -0.2728 -0.1176
58610SOL    HW182945  12.955  10.915   9.489 -0.8217  1.3021 -0.6130
58610SOL    HW282946  12.943  10.771   9.443  2.0032  0.5870  0.6769
58611SOL     OW82947   2.073   4.942   0.245 -0.4778  0.3112 -0.1748
58611SOL    HW182948   2.054   5.036   0.256 -0.4374  0.2107  0.7854
58611SOL    HW282949   2.032   4.920   0.161  0.4336  1.4300 -0.9419
58612SOL     OW82950   0.836   9.427   7.657 -0.2129  0.5849  0.5478
58612SOL    HW182951   0.887   9.501   7.624  0.5366 -0.2990 -0.3418
58612SOL    HW282952   0.875   9.408   7.743 -0.1339  0.9535  0.5957
58613SOL     OW82953   5.296   6.710   5.992 -0.4189  0.1400  0.2675
58613SOL    HW182954   5.369   6.697   5.932 -0.7030 -0.2280  0.0038
58613SOL    HW282955   5.222   6.666   5.951 -1.1572  1.7363 -0.1636
58614SOL     OW82956   3.696   8.064   3.671 -0.2357 -0.4499 -0.2114
58614SOL    HW182957   3.602   8.047   3.665 -0.6603  1.7479 -0.7787
58614SOL    HW282958   3.715   8.068   3.765 -0.4961 -1.7457 -0.0836
58615SOL     OW82959   7.055   3.938   4.281  0.1412  0.1455 -0.2022
58615SOL    HW182960   7.062   3.910   4.372 -0.6610 -1.5487 -0.6063
58615SOL    HW282961   6.966   3.974   4.274  0.1337  0.0948 -0.3606
58616SOL     OW82962   9.992   9.701   8.016  0.4436 -0.3077  0.5040
58616SOL    HW182963   9.923   9.729   8.076  0.7411 -1.4108  1.3951
58616SOL    HW282964  10.063   9.764   8.030 -0.5056  1.1148 -0.7532
58617SOL     OW82965   7.086   6.208   8.050  0.4649  0.4533 -0.3455
58617SOL    HW182966   7.157   6.254   8.006  0.7550  0.4983  0.1545
58617SOL    HW282967   7.101   6.115   8.032  0.6913  0.4587 -0.1853
58618SOL     OW82968   3.502  11.082  10.528 -0.1373 -0.5083 -0.0807
58618SOL    HW182969   3.450  11.087  10.608  0.9791 -0.5561  0.6675
58618SOL    HW282970   3.590  11.107  10.555  1.0228 -3.6615 -0.5483
58619SOL     OW82971   8.083  11.977   7.622  0.4124  0.1502 -0.0402
58619SOL    HW182972   8.081  11.887   7.587 -0.9113 -0.4961  1.5873
58619SOL    HW282973   8.145  11.973   7.695  0.1033  0.4866  0.2432
58620SOL     OW82974   7.249   9.757   2.946 -0.0923 -0.0187 -0.1172
58620SOL    HW182975   7.287   9.711   3.020  1.5066 -0.3563 -1.0991
58620SOL    HW282976   7.226   9.688   2.884  0.2582  0.3540 -0.6727
58621SOL     OW82977   5.493   8.941   5.314  0.1835  0.3093  0.6423
58621SOL    HW182978   5.510   8.862   5.366  4.8359  1.2763  1.0425
58621SOL    HW282979   5.520   8.917   5.225 -1.4293  0.5912  0.0481
58622SOL     OW82980  10.801   1.855  10.394 -0.0182  0.0750  0.3071
58622SOL    HW182981  10.728   1.864  10.455 -1.1662 -2.3060 -0.5969
58622SOL    HW282982  10.874   1.826  10.448 -0.1116  1.0299  0.9834
58623SOL     OW82983   7.519   2.189   9.063  0.0421 -0.7226 -0.0662
58623SOL    HW182984   7.533   2.273   9.107 -2.7412 -1.3104  2.2649
58623SOL    HW282985   7.424   2.185   9.049  0.2503 -2.9300 -1.2669
58624SOL     OW82986  12.058   4.228   2.693  0.1419  0.2919 -0.2899
58624SOL    HW182987  12.024   4.209   2.780 -0.9572 -1.3505 -1.0259
58624SOL    HW282988  12.038   4.150   2.642  1.5427  0.8752 -1.8039
58625SOL     OW82989   1.455   0.630   8.256  0.1004  0.1861  0.3668
58625SOL    HW182990   1.361   0.610   8.254  0.3175 -0.9173  0.6662
58625SOL    HW282991   1.462   0.705   8.315 -0.3373 -1.3359  2.4746
58626SOL     OW82992   7.309   2.480   1.332  0.3223  0.0231 -0.4897
58626SOL    HW182993   7.325   2.392   1.298  0.8411  0.3957 -1.2230
58626SOL    HW282994   7.216   2.496   1.316  0.6549  0.3877 -2.2336
58627SOL     OW82995   3.708   5.357   7.514  0.4144  0.4113  0.1540
58627SOL    HW182996   3.633   5.335   7.458  1.1052  0.2133 -0.7287
58627SOL    HW282997   3.715   5.283   7.575 -0.4480  0.7060  0.6114
58628SOL     OW82998   9.862   2.506   0.938  0.6331 -0.3597  0.6201
58628SOL    HW182999   9.784   2.498   0.993 -0.1667 -1.1389 -0.5661
58628SOL    HW283000   9.831   2.551   0.859  1.5118 -0.2054  0.3536
58629SOL     OW83001   8.055  12.556   3.632  0.2897  0.0379 -0.4310
58629SOL    HW183002   8.092  12.525   3.549 -1.9300  0.0277 -1.5028
58629SOL    HW283003   7.985  12.616   3.605 -1.0294 -0.5995  1.4186
58630SOL     OW83004  10.841   5.497  10.643 -0.2265  0.0164 -0.3491
58630SOL    HW183005  10.835   5.469  10.551  0.7375 -1.0634 -0.1103
58630SOL    HW283006  10.911   5.443  10.680 -0.1945  0.8555  0.8778
58631SOL     OW83007   7.639   8.249   3.194 -0.2622  0.3450  0.6009
58631SOL    HW183008   7.642   8.269   3.288  0.6579  2.8514  0.1041
58631SOL    HW283009   7.715   8.192   3.179  0.1210  0.6755  1.2369
58632SOL     OW83010  12.473   1.290  10.575  0.1109  0.1848  0.2571
58632SOL    HW183011  12.378   1.277  10.584  0.3129  0.3673  3.8171
58632SOL    HW283012  12.500   1.220  10.515 -2.1409 -0.3280 -0.2956
58633SOL     OW83013   3.911   7.948   2.404 -0.2752  0.4692  0.6693
58633SOL    HW183014   3.962   8.029   2.406  1.1665 -0.3442 -0.6717
58633SOL    HW283015   3.820   7.977   2.393  0.0978  1.9074  1.1503
58634SOL     OW83016   4.032   3.294   1.617 -0.3323 -0.1994 -0.1957
58634SOL    HW183017   4.080   3.370   1.583 -2.2682  1.0685 -0.2436
58634SOL    HW283018   4.094   3.252   1.678  0.3398  2.2311  0.9237
58635SOL     OW83019  12.425   1.183   1.644  0.0051  0.2945 -0.2825
58635SOL    HW183020  12.499   1.144   1.692  0.9300  2.1834 -0.0814
58635SOL    HW283021  12.465   1.223   1.567 -0.9797  0.4181 -0.7376
58636SOL     OW83022  11.895   0.805   3.838 -0.2660 -0.1096 -0.2840
58636SOL    HW183023  11.959   0.750   3.793 -0.4706 -0.0887 -0.6011
58636SOL    HW283024  11.872   0.756   3.917 -0.1418 -0.2925 -0.3623
58637SOL     OW83025   4.767  12.331   4.198  0.5155  0.0060 -0.3392
58637SOL    HW183026   4.833  12.359   4.136  2.0019 -0.8569  0.7894
58637SOL    HW283027   4.760  12.404   4.260 -1.6635  1.2862 -1.9373
58638SOL     OW83028   1.419  11.102   8.367  0.2625 -0.0550  0.3367
58638SOL    HW183029   1.426  11.183   8.416 -0.3693  1.3950 -1.8057
58638SOL    HW283030   1.504  11.091   8.324 -0.1106  0.2646 -0.5008
58639SOL     OW83031   2.469   4.396   4.853  0.4584 -0.0168  0.6760
58639SOL    HW183032   2.374   4.403   4.846  0.3700 -1.9675 -1.0244
58639SOL    HW283033   2.485   4.363   4.941 -0.3762  0.9048  1.1911
58640SOL     OW83034   8.221   7.139   9.607 -0.0671  0.0334  0.1259
58640SOL    HW183035   8.251   7.103   9.524 -0.1319  2.0744 -0.8291
58640SOL    HW283036   8.145   7.085   9.630 -0.1054 -0.5050 -1.1701
58641SOL     OW83037   7.763   0.552   1.180  0.0781 -0.5980  0.2130
58641SOL    HW183038   7.848   0.551   1.137  0.1592 -0.1611  0.3580
58641SOL    HW283039   7.699   0.558   1.109  0.2325  0.7574  0.1661
58642SOL     OW83040   7.647   9.673   3.934  0.2796 -0.2682  0.4677
58642SOL    HW183041   7.572   9.684   3.876  1.6676 -1.1448 -1.5949
58642SOL    HW283042   7.698   9.753   3.923  0.8646 -0.7014 -0.0405
58643SOL     OW83043   6.152  10.724   3.427  0.1849  0.0826  0.1908
58643SOL    HW183044   6.133  10.762   3.513 -0.4227  1.3769 -0.4855
58643SOL    HW283045   6.206  10.648   3.446 -0.5303 -0.0785  1.7697
58644SOL     OW83046   2.447   9.985   4.075 -0.1165 -0.3074  0.4347
58644SOL    HW183047   2.429  10.026   3.990 -0.2174  1.2629  1.1706
58644SOL    HW283048   2.362   9.984   4.119 -0.0498 -1.0408  0.5627
58645SOL     OW83049  11.561   5.051  12.811  0.1353  0.1910 -0.3809
58645SOL    HW183050  11.594   5.029  12.724  0.0346  0.4772 -0.4935
58645SOL    HW283051  11.504   4.979  12.835 -0.1803  0.3209 -0.7367
58646SOL     OW83052   5.824   1.863   5.988 -0.5556  0.4469 -0.3962
58646SOL    HW183053   5.752   1.809   5.954 -2.4065  2.1175  0.6160
58646SOL    HW283054   5.846   1.922   5.915  0.3869 -0.5755 -0.9722
58647SOL     OW83055   3.235  12.393   0.046 -0.2152  0.6609 -0.4387
58647SOL    HW183056   3.214  12.487   0.044  1.5372  1.1081  0.0497
58647SOL    HW283057   3.219  12.368   0.137  0.8553  0.9110 -0.1609
58648SOL     OW83058   0.634   4.876   0.382  0.1000  0.2767  0.6007
58648SOL    HW183059   0.709   4.918   0.339  0.0258 -1.1858 -1.0709
58648SOL    HW283060   0.665   4.788   0.401 -0.8003  0.0594  1.0715
58649SOL     OW83061   0.149   7.264   4.035 -0.3841 -0.6265  0.0845
58649SOL    HW183062   0.221   7.286   3.976  0.5751 -1.3670  0.9487
58649SOL    HW283063   0.187   7.272   4.122 -1.4577 -0.7033  0.5712
58650SOL     OW83064   9.846   1.626   5.874 -0.1410 -0.5564  0.4692
58650SOL    HW183065   9.930   1.671   5.878  0.6621 -1.9438 -0.0439
58650SOL    HW283066   9.848   1.580   5.790 -1.8889  0.2503 -0.0746
58651SOL     OW83067   7.503   5.165   0.899 -0.1302  0.4875 -0.6998
58651SOL    HW183068   7.472   5.233   0.840 -1.7372  0.4757  0.0438
58651SOL    HW283069   7.479   5.197   0.986  0.2814 -0.4294 -0.2352
58652SOL     OW83070   0.693  12.357  11.025 -0.3833 -0.3857 -0.4569
58652SOL    HW183071   0.689  12.274  10.977 -1.2194  0.4213 -1.8608
58652SOL    HW283072   0.615  12.357  11.080 -1.4098  0.2421 -1.8526
58653SOL     OW83073   3.899   2.629   1.841  0.0723 -0.0310 -0.1389
58653SOL    HW183074   3.818   2.675   1.860 -0.1379 -0.0831 -0.8740
58653SOL    HW283075   3.873   2.538   1.826  0.3875 -0.2367  0.5370
58654SOL     OW83076   9.046   8.558   4.831 -0.2121 -0.5365  0.3595
58654SOL    HW183077   9.126   8.564   4.778  0.5263  2.1755  1.6127
58654SOL    HW283078   9.023   8.465   4.828  1.6037 -1.0248 -1.9988
58655SOL     OW83079  11.333   9.336   3.613  0.2047 -0.8331 -0.5522
58655SOL    HW183080  11.326   9.241   3.620 -0.7939 -0.7211  0.2038
58655SOL    HW283081  11.399   9.360   3.678 -0.7362 -0.8724  0.4435
58656SOL     OW83082   4.624   5.747   9.530 -0.0904 -0.4222  0.7948
58656SOL    HW183083   4.592   5.702   9.452  0.2332 -1.3979  1.2132
58656SOL    HW283084   4.624   5.680   9.598  1.2076 -0.0124  1.2241
58657SOL     OW83085   8.011   6.216   3.931  0.5148  0.7744  0.2176
58657SOL    HW183086   7.962   6.142   3.895  2.5969 -0.0173 -1.1486
58657SOL    HW283087   8.000   6.207   4.026 -3.3662  1.7099  0.0378
58658SOL     OW83088  10.334  10.151   7.822 -0.2477 -0.3381  0.3074
58658SOL    HW183089  10.314  10.140   7.915 -0.9707 -0.2793  0.1648
58658SOL    HW283090  10.282  10.083   7.778  0.5789 -0.7854 -0.0062
58659SOL     OW83091  12.631   0.288   5.171 -0.1443 -0.0032  0.2331
58659SOL    HW183092  12.715   0.289   5.126 -1.2547  0.8416 -1.9258
58659SOL    HW283093  12.618   0.196   5.195  0.6958 -0.3958 -0.7754
58660SOL     OW83094   7.986   4.181   2.593  0.0740 -0.4829 -0.5007
58660SOL    HW183095   7.917   4.187   2.527  0.2230 -0.4588 -0.6586
58660SOL    HW283096   7.941   4.166   2.675 -0.2039  0.8131 -0.3935
58661SOL     OW83097   9.067   9.582   7.280 -0.0446 -0.0364 -0.2749
58661SOL    HW183098   9.083   9.673   7.303 -1.8800  0.2959 -0.1633
58661SOL    HW283099   9.103   9.532   7.354 -0.7301  0.7114  0.5837
58662SOL     OW83100  10.959   3.265   7.634 -0.3853 -0.3354  0.7017
58662SOL    HW183101  10.882   3.259   7.578  0.4271 -1.4400 -0.3412
58662SOL    HW283102  10.930   3.231   7.718 -1.4505  0.7490  0.8101
58663SOL     OW83103   3.412   1.022  10.027  0.1605  0.5887  0.1610
58663SOL    HW183104   3.429   1.115  10.036 -3.1005  1.4064 -1.0362
58663SOL    HW283105   3.327   1.008  10.070  1.0069 -2.0835  1.2351
58664SOL     OW83106   4.033  12.141  11.176 -0.2690  0.1469 -0.4253
58664SOL    HW183107   4.022  12.079  11.248  1.4913 -0.5913 -0.7287
58664SOL    HW283108   4.013  12.227  11.214  1.1369 -0.1651  1.1186
58665SOL     OW83109  12.219   9.242   8.767  0.1002 -0.0375 -0.3915
58665SOL    HW183110  12.207   9.293   8.847  0.3269  1.0696 -1.0369
58665SOL    HW283111  12.176   9.293   8.699 -0.4709 -1.1836 -0.9115
58666SOL     OW83112   4.071   2.748  11.221 -0.6144 -0.1100  0.8706
58666SOL    HW183113   4.127   2.739  11.298  0.9751  2.2052  0.1093
58666SOL    HW283114   4.003   2.810  11.249 -0.9848 -0.5098  0.8664
58667SOL     OW83115   1.940  10.081  10.073 -0.4025  0.3294  0.0465
58667SOL    HW183116   1.893  10.080   9.989 -0.1557  1.1109 -0.1067
58667SOL    HW283117   1.900  10.010  10.123 -1.0378  0.3101 -0.4681
58668SOL     OW83118  11.186  11.491   6.405  0.2814 -0.0416 -0.3820
58668SOL    HW183119  11.164  11.410   6.359  0.4027  0.0731 -0.6455
58668SOL    HW283120  11.138  11.486   6.487  0.6633 -0.6012 -0.1870
58669SOL     OW83121   2.102  12.442   3.862 -0.0722  0.2409  0.1123
58669SOL    HW183122   2.010  12.469   3.869  0.1917  1.7614 -1.6190
58669SOL    HW283123   2.101  12.373   3.795  0.1441  0.7864 -0.4531
58670SOL     OW83124   3.305   4.178   3.062  0.4358 -0.3124  0.1437
58670SOL    HW183125   3.308   4.160   3.156 -1.2252 -0.4349  0.2023
58670SOL    HW283126   3.303   4.092   3.021 -1.8563 -0.3203  0.1674
58671SOL     OW83127   7.963  11.665   8.614  0.5102 -0.0395  0.4296
58671SOL    HW183128   8.048  11.664   8.570  0.0270 -2.0112 -0.5790
58671SOL    HW283129   7.900  11.670   8.542 -0.2789  2.8283  1.2157
58672SOL     OW83130   5.681   3.722   3.908 -0.3622  0.2326  0.2158
58672SOL    HW183131   5.679   3.723   3.812  3.1055  0.1660  0.0237
58672SOL    HW283132   5.710   3.634   3.931  0.1378  0.6501  1.2623
58673SOL     OW83133   9.334   9.273   3.004 -0.7589 -0.1470  0.1413
58673SOL    HW183134   9.269   9.342   3.011 -0.2654  0.5384 -1.4879
58673SOL    HW283135   9.336   9.251   2.911  0.6696 -0.7803  0.2877
58674SOL     OW83136   0.471  12.234   0.348 -0.4102 -0.1020 -0.3430
58674SOL    HW183137   0.466  12.184   0.430 -0.6708  0.1243 -0.2208
58674SOL    HW283138   0.561  12.221   0.318 -0.3154 -0.1918 -0.0234
58675SOL     OW83139  11.127   0.029   8.260 -0.2320  0.6175  0.0441
58675SOL    HW183140  11.044   0.069   8.235 -0.1413 -0.3170 -1.9868
58675SOL    HW283141  11.191   0.063   8.197  0.4610 -0.3347  0.2015
58676SOL     OW83142   9.293  11.121  11.337  0.2263  0.6524 -1.0684
58676SOL    HW183143   9.308  11.029  11.357  1.5663  1.2552  0.9072
58676SOL    HW283144   9.289  11.165  11.422  1.0596  2.6312 -1.9765
58677SOL     OW83145   4.140   1.202   3.072 -0.2716  0.4534 -0.6259
58677SOL    HW183146   4.212   1.166   3.020 -0.5588  0.4701 -1.0430
58677SOL    HW283147   4.080   1.237   3.007  0.6197  2.9228 -0.2116
58678SOL     OW83148   3.573   9.595   3.184  0.2567  0.0703  0.1020
58678SOL    HW183149   3.631   9.519   3.181 -0.1711 -0.2452 -2.8055
58678SOL    HW283150   3.565   9.624   3.093 -3.1919  0.8342  0.4971
58679SOL     OW83151   7.127   0.087   8.181  0.6256  0.3433  0.1765
58679SOL    HW183152   7.074   0.066   8.259  0.2505 -0.0485 -0.1759
58679SOL    HW283153   7.077   0.049   8.108  0.4493  1.5881 -0.3781
58680SOL     OW83154   4.663  12.720  12.859 -0.1115  0.2481 -0.0432
58680SOL    HW183155   4.634  12.752  12.774  1.6215 -1.3541 -1.3130
58680SOL    HW283156   4.756  12.742  12.862  0.5374 -2.2638  0.1476
58681SOL     OW83157   8.160   3.398   2.337  0.3288  0.2053  0.1175
58681SOL    HW183158   8.096   3.378   2.406  1.0066  1.3868  1.1390
58681SOL    HW283159   8.245   3.382   2.379  0.7327 -0.1959 -0.8365
58682SOL     OW83160  10.401   4.090   5.763  0.5151 -0.2106 -0.8514
58682SOL    HW183161  10.412   4.049   5.848  0.3161 -0.1531 -0.7961
58682SOL    HW283162  10.473   4.057   5.710  0.6222 -0.2690 -0.6694
58683SOL     OW83163   2.736   1.922   1.828 -0.0507 -0.3029 -0.0827
58683SOL    HW183164   2.655   1.972   1.844 -0.0440  0.0229 -0.9489
58683SOL    HW283165   2.795   1.947   1.899 -0.8281 -0.8122  0.7584
58684SOL     OW83166   6.049   2.507   7.607 -0.1104 -0.5397 -0.0178
58684SOL    HW183167   6.065   2.463   7.524 -0.4724 -1.1281  0.2168
58684SOL    HW283168   6.132   2.551   7.628  0.2025 -0.9735 -0.3385
58685SOL     OW83169   2.425   6.339   5.251  0.7250 -0.1260 -0.6236
58685SOL    HW183170   2.407   6.429   5.276  1.7477 -0.5306  1.9155
58685SOL    HW283171   2.464   6.345   5.164  0.2116  1.8168 -0.7512
58686SOL     OW83172   7.197   8.329   9.610 -1.0726  0.5430  0.1267
58686SOL    HW183173   7.235   8.391   9.548 -2.3984  1.5340  0.2395
58686SOL    HW283174   7.218   8.243   9.575 -2.0384  1.0682 -1.8788
58687SOL     OW83175   0.982   5.470   8.965  0.3791 -0.0234 -1.1669
58687SOL    HW183176   1.050   5.447   8.901  1.5383 -0.0931  0.0298
58687SOL    HW283177   0.982   5.565   8.967 -0.8169  0.0218 -2.4301
58688SOL     OW83178  10.630   6.062  11.731 -0.4451 -0.5919  0.4405
58688SOL    HW183179  10.647   6.142  11.682  1.4946 -1.1334  0.1349
58688SOL    HW283180  10.585   6.091  11.811 -0.7828  0.6508 -0.1841
58689SOL     OW83181  10.045   9.924   6.033  0.3719 -0.4762  0.0938
58689SOL    HW183182  10.134   9.922   5.996 -0.3399  1.3581 -1.8898
58689SOL    HW283183  10.054   9.975   6.114  1.3097 -1.4315  0.6282
58690SOL     OW83184   3.600   4.922   1.619 -0.3909  0.3436 -0.1662
58690SOL    HW183185   3.617   4.869   1.697  0.1028  1.9871  0.8767
58690SOL    HW283186   3.563   4.860   1.556  0.7633 -1.3849  0.7668
58691SOL     OW83187   4.419   4.184  10.321 -0.0062  0.6739 -0.3128
58691SOL    HW183188   4.351   4.121  10.298  0.0462  0.6546 -0.4162
58691SOL    HW283189   4.374   4.269  10.324 -0.6346  0.3277  2.3778
58692SOL     OW83190   4.189  10.240  10.165 -0.0859 -0.4920 -0.0568
58692SOL    HW183191   4.238  10.170  10.208  0.7789 -0.3657 -0.7912
58692SOL    HW283192   4.242  10.318  10.179 -2.0137  0.4942  2.4872
58693SOL     OW83193   8.542   5.064   0.780  0.2178 -0.5121  0.1647
58693SOL    HW183194   8.500   5.077   0.695  0.8022 -0.9794 -0.2064
58693SOL    HW283195   8.635   5.052   0.759  0.3059 -1.0327  0.8323
58694SOL     OW83196   5.763   3.234   7.490 -0.6555 -0.3134 -0.1158
58694SOL    HW183197   5.705   3.190   7.551 -0.0674 -0.4258  0.3729
58694SOL    HW283198   5.816   3.292   7.544  0.3251 -0.9000 -0.4152
58695SOL     OW83199   9.304   2.972   1.796  0.6624 -0.5466  0.5709
58695SOL    HW183200   9.312   3.067   1.798  0.2457 -0.4801 -0.4348
58695SOL    HW283201   9.215   2.956   1.764  0.7395 -1.2727  0.7064
58696SOL     OW83202   4.421   1.127   0.484 -0.3521 -0.3600 -0.2735
58696SOL    HW183203   4.353   1.125   0.551 -0.2868  0.1466 -0.1862
58696SOL    HW283204   4.419   1.217   0.451  0.9476 -0.0490  0.4330
58697SOL     OW83205   7.771   4.954   1.821  0.3765 -0.8054  0.0773
58697SOL    HW183206   7.828   5.031   1.824  0.3456 -0.8175  1.4035
58697SOL    HW283207   7.801   4.899   1.894 -0.5908 -1.3508  0.0752
58698SOL     OW83208  12.745  12.349   8.107 -0.7032  0.4659  0.4851
58698SOL    HW183209  12.776  12.302   8.030 -0.8835 -2.0129  1.8318
58698SOL    HW283210  12.811  12.333   8.174 -2.3944 -0.7540  1.9623
58699SOL     OW83211  10.141  10.579   7.188 -0.5094 -0.0630 -0.3502
58699SOL    HW183212  10.082  10.654   7.192  1.1856  1.2975  0.8137
58699SOL    HW283213  10.228  10.617   7.194  0.4255 -2.1054 -0.2308
58700SOL     OW83214  11.189   8.094  11.532 -0.1119  0.1126  0.2418
58700SOL    HW183215  11.099   8.115  11.556  0.0665  0.9576  0.2210
58700SOL    HW283216  11.195   7.999  11.538 -0.2794  0.1907  2.8325
58701SOL     OW83217   4.251   0.562   2.746 -0.5088 -0.0713  0.0376
58701SOL    HW183218   4.285   0.494   2.687  2.4998  0.7683  0.6531
58701SOL    HW283219   4.246   0.519   2.831  1.5013  0.4377  0.4501
58702SOL     OW83220   2.021   1.176   4.913  0.3664  0.0021 -0.1543
58702SOL    HW183221   1.963   1.199   4.841 -0.8150 -0.3774  0.6580
58702SOL    HW283222   2.034   1.258   4.960  1.4787  0.3436 -1.0003
58703SOL     OW83223   9.858  12.179   9.695 -0.0669 -0.0711  0.2917
58703SOL    HW183224   9.806  12.186   9.615 -1.5742 -0.5624  1.2029
58703SOL    HW283225   9.795  12.182   9.766  1.3729  2.3861  1.6161
58704SOL     OW83226  10.917   6.156   9.663  0.4393  0.7077 -0.0667
58704SOL    HW183227  11.001   6.113   9.649 -0.1455 -0.8596  0.9433
58704SOL    HW283228  10.900   6.144   9.757 -1.9011 -1.0049 -0.6164
58705SOL     OW83229  12.624  10.813   9.548  0.5120  0.4993  0.3247
58705SOL    HW183230  12.583  10.900   9.552  1.4352  0.9729 -0.3976
58705SOL    HW283231  12.717  10.831   9.537  0.7690 -0.5885  0.6566
58706SOL     OW83232   3.736   5.314   7.901  0.3131  0.1954  0.5969
58706SOL    HW183233   3.796   5.368   7.850  1.6344 -0.4385  1.4569
58706SOL    HW283234   3.715   5.367   7.978  0.5815 -0.0097  0.8077
58707SOL     OW83235   5.420   2.500   2.308  0.0653  0.2017 -0.6432
58707SOL    HW183236   5.463   2.496   2.394 -2.4061 -0.6496  0.6841
58707SOL    HW283237   5.409   2.593   2.291 -2.3098  0.4611  1.6556
58708SOL     OW83238  11.191   8.648  11.773  0.3567 -0.7056 -0.7738
58708SOL    HW183239  11.279   8.614  11.759  2.1686  2.8724  0.5856
58708SOL    HW283240  11.185   8.723  11.713 -1.4031 -0.3133 -0.1607
58709SOL     OW83241   6.360   6.210   5.043  0.2265  0.0068  0.0412
58709SOL    HW183242   6.309   6.290   5.025 -1.2113 -0.0417  3.1336
58709SOL    HW283243   6.320   6.144   4.987 -0.7186  0.7846 -0.2502
58710SOL     OW83244   2.001   1.101  10.045 -0.0204  0.4711  0.4895
58710SOL    HW183245   1.952   1.102  10.127 -1.6565 -2.3698 -0.3169
58710SOL    HW283246   2.074   1.042  10.062  1.1240  1.8790  0.6072
58711SOL     OW83247   8.495  12.161   6.202 -0.4110  0.3636  0.5026
58711SOL    HW183248   8.406  12.140   6.231 -0.3535 -1.5353 -0.5236
58711SOL    HW283249   8.491  12.154   6.107  0.4352  2.0326  0.3140
58712SOL     OW83250  10.376  11.669   8.127 -0.4624  0.2527 -0.1366
58712SOL    HW183251  10.420  11.653   8.211 -0.9610 -0.0065  0.0783
58712SOL    HW283252  10.292  11.624   8.135 -0.6658  0.5387 -0.6371
58713SOL     OW83253   2.540   1.880   4.103 -0.0823  0.0526 -0.1213
58713SOL    HW183254   2.536   1.924   4.188 -0.2181 -0.3363  0.0753
58713SOL    HW283255   2.451   1.849   4.087  0.4048 -1.8632  0.6601
58714SOL     OW83256  11.987   2.257   2.699  0.2977 -0.1244 -0.1394
58714SOL    HW183257  11.905   2.256   2.748  0.9420 -1.2259  1.0046
58714SOL    HW283258  11.981   2.182   2.639  1.1824 -1.4171  1.3019
58715SOL     OW83259   8.484  12.375   8.783  0.4491 -0.0909  0.2557
58715SOL    HW183260   8.485  12.456   8.732  1.6729 -0.3701 -0.2140
58715SOL    HW283261   8.393  12.346   8.783  0.2872  0.3866 -1.0395
58716SOL     OW83262   1.309   4.033   7.901  0.6713  0.3828  0.2955
58716SOL    HW183263   1.326   3.939   7.901  0.1633  0.2882  0.5692
58716SOL    HW283264   1.288   4.053   7.810  0.6018  0.1996  0.2712
58717SOL     OW83265  12.647   2.534   0.628 -0.4838  0.7857 -0.0707
58717SOL    HW183266  12.564   2.582   0.623  0.0475  1.7322 -0.0817
58717SOL    HW283267  12.658   2.496   0.542 -1.2049  0.1267  0.1139
58718SOL     OW83268  12.094   3.192  12.753  0.2021  0.0646 -0.0124
58718SOL    HW183269  12.013   3.167  12.797  0.3458  0.9805  0.8032
58718SOL    HW283270  12.097   3.287  12.758  0.8136  0.1139 -0.9755
58719SOL     OW83271   6.596   2.818   6.076 -0.2844  0.8373 -0.1080
58719SOL    HW183272   6.592   2.857   6.163 -1.2316 -1.7430  1.1130
58719SOL    HW283273   6.505   2.803   6.052  0.0210 -0.7661 -0.3833
58720SOL     OW83274   2.368   2.263   0.708  0.1756  0.5491  0.6582
58720SOL    HW183275   2.297   2.210   0.672  0.6909 -0.2060  0.7310
58720SOL    HW283276   2.356   2.349   0.667  1.4218 -0.5542 -2.3091
58721SOL     OW83277   8.850   1.971   4.155  0.2066  0.1558  0.3431
58721SOL    HW183278   8.769   1.969   4.103  1.4115 -2.3843 -1.6855
58721SOL    HW283279   8.834   1.908   4.225  0.4062 -0.3835 -0.0864
58722SOL     OW83280   6.839   6.043   2.992 -0.2236 -0.5555  0.2855
58722SOL    HW183281   6.868   6.079   3.076 -1.9319  1.0360  0.2800
58722SOL    HW283282   6.794   5.962   3.015  0.3066 -0.7150  0.7755
58723SOL     OW83283  11.928  11.585  12.087 -0.1798 -0.0494  0.0921
58723SOL    HW183284  11.846  11.571  12.039  1.2938 -0.5097 -2.4749
58723SOL    HW283285  11.945  11.678  12.080  0.1667 -0.1543 -0.5805
58724SOL     OW83286  11.710   5.721   6.100  0.1021  0.1416  0.1192
58724SOL    HW183287  11.705   5.685   6.012 -0.4880  0.5491 -0.0204
58724SOL    HW283288  11.687   5.814   6.090 -2.1713 -0.2521  0.9827
58725SOL     OW83289   9.711   2.664   0.659  0.4969  0.0711 -0.7081
58725SOL    HW183290   9.732   2.588   0.606  0.8374  0.9798 -1.9179
58725SOL    HW283291   9.636   2.704   0.615 -0.7469 -0.4443  0.8385
58726SOL     OW83292   0.255   9.079  10.057  0.1662  0.4397 -0.6494
58726SOL    HW183293   0.200   9.115  10.127 -0.2702 -1.3707  0.0050
58726SOL    HW283294   0.343   9.074  10.096 -0.2793 -1.5706  0.2254
58727SOL     OW83295   3.570   8.995   4.918 -0.1663  0.1598 -0.4060
58727SOL    HW183296   3.502   9.021   4.855 -0.7402  1.5255  0.7209
58727SOL    HW283297   3.537   9.025   5.002  1.4056 -0.0443  0.3132
58728SOL     OW83298  10.798  11.144   2.520  0.2287  0.4496  0.1986
58728SOL    HW183299  10.705  11.163   2.527 -0.3106 -1.7746 -0.0763
58728SOL    HW283300  10.834  11.171   2.605 -0.6778  1.2511  0.3413
58729SOL     OW83301   7.469  10.861   1.984 -0.1829  0.2612  0.1865
58729SOL    HW183302   7.464  10.956   1.991  0.1715  0.3819 -0.9802
58729SOL    HW283303   7.431  10.829   2.066 -0.8899  1.3896  0.3248
58730SOL     OW83304  12.006   1.326  10.756  0.9016 -0.1219  0.0642
58730SOL    HW183305  11.917   1.360  10.758  0.1656 -1.6858 -2.4003
58730SOL    HW283306  12.001   1.241  10.799  2.0139  1.1694  3.0210
58731SOL     OW83307  12.017   4.103  10.199 -0.6761  0.1560 -0.0252
58731SOL    HW183308  11.938   4.145  10.234 -0.8011 -1.2369  1.4421
58731SOL    HW283309  12.088   4.133  10.257 -0.5007 -0.3576  0.0305
58732SOL     OW83310   2.262   7.846   3.814 -0.5814  0.4643 -0.0224
58732SOL    HW183311   2.178   7.890   3.810  0.5090  2.6035 -1.4011
58732SOL    HW283312   2.321   7.910   3.853  0.8647 -0.0912 -1.1858
58733SOL     OW83313  11.077   0.982  11.370 -0.3084  0.4192 -0.0692
58733SOL    HW183314  11.126   1.064  11.361  1.3863 -0.6212 -0.9474
58733SOL    HW283315  11.119   0.938  11.444 -1.7077  0.6501  0.8842
58734SOL     OW83316   0.692   5.197   3.973  0.6991 -0.5162 -0.4536
58734SOL    HW183317   0.661   5.111   4.002  3.3913 -1.8714 -1.2539
58734SOL    HW283318   0.649   5.210   3.888 -0.5521 -0.5430  0.1602
58735SOL     OW83319   1.738   7.715   9.773 -0.0192 -0.2035  0.2505
58735SOL    HW183320   1.690   7.651   9.720 -0.4316 -0.0045  0.3780
58735SOL    HW283321   1.683   7.794   9.770 -1.2410 -0.8555  2.8323
58736SOL     OW83322   6.467   8.617   3.723  0.3619  0.6272 -0.1943
58736SOL    HW183323   6.413   8.694   3.741 -1.1181 -0.3136 -0.4447
58736SOL    HW283324   6.488   8.624   3.629  2.0758  1.8148  0.2259
58737SOL     OW83325   8.132   2.320   4.701  0.2313 -0.0388 -0.2574
58737SOL    HW183326   8.080   2.311   4.620  0.4486 -0.6187 -0.3383
58737SOL    HW283327   8.094   2.396   4.745  0.4580  0.6174 -1.1630
58738SOL     OW83328   2.438   6.149  10.071 -0.2783 -0.0531  0.1122
58738SOL    HW183329   2.477   6.068  10.039  0.9962  0.7871 -0.5405
58738SOL    HW283330   2.350   6.151  10.032  0.2958 -0.3169 -1.2479
58739SOL     OW83331   5.417   2.186   9.156  0.8287  0.0305 -0.4785
58739SOL    HW183332   5.511   2.193   9.170  0.4833  2.8802  1.2526
58739SOL    HW283333   5.396   2.261   9.100 -0.5941  0.2582  0.3298
58740SOL     OW83334  12.926   5.279  10.500 -0.2715 -0.5382 -0.2316
58740SOL    HW183335  12.965   5.200  10.537 -2.0393 -1.2059  0.3078
58740SOL    HW283336  12.838   5.252  10.473 -0.8598  1.1999 -0.2032
58741SOL     OW83337   3.049   2.564  11.802  0.1553  0.3006  0.6321
58741SOL    HW183338   3.021   2.638  11.857 -1.5914  2.3125 -2.6897
58741SOL    HW283339   3.126   2.597  11.755 -0.5847  0.0289 -0.8237
58742SOL     OW83340   1.853  10.174   0.334 -0.0973 -0.0664 -0.3593
58742SOL    HW183341   1.798  10.114   0.384 -0.2871 -1.2076 -1.8505
58742SOL    HW283342   1.800  10.253   0.323 -0.3786 -0.1324  0.4938
58743SOL     OW83343   6.099   8.473   9.152  0.3092  0.5875  0.0770
58743SOL    HW183344   6.007   8.448   9.149  0.3234  0.5989 -0.9434
58743SOL    HW283345   6.117   8.509   9.064  1.7581 -1.1564 -0.3948
58744SOL     OW83346   7.312   0.275   6.243 -0.6801  0.1940 -0.1396
58744SOL    HW183347   7.321   0.285   6.338 -0.6249  0.5436 -0.1804
58744SOL    HW283348   7.383   0.329   6.207 -0.5715 -0.1067 -0.3737
58745SOL     OW83349  11.174   4.559   8.077  0.4650 -0.5021 -0.6984
58745SOL    HW183350  11.218   4.474   8.075  0.7500 -0.3685 -0.2632
58745SOL    HW283351  11.244   4.623   8.083  0.2380 -0.2581 -0.6024
58746SOL     OW83352   9.373   5.312   4.240 -0.3313 -0.6606 -0.0686
58746SOL    HW183353   9.327   5.232   4.264 -0.4535 -0.2430  1.1725
58746SOL    HW283354   9.417   5.339   4.321 -1.7075  1.4656  0.0438
58747SOL     OW83355   2.454   4.608   4.457  0.2641 -0.0732 -0.3840
58747SOL    HW183356   2.361   4.629   4.460  0.6842  1.8492  0.3139
58747SOL    HW283357   2.464   4.534   4.517 -0.7552 -0.1131 -0.2458
58748SOL     OW83358   7.076  11.662   4.670  0.0613  0.4088 -0.3677
58748SOL    HW183359   7.121  11.681   4.752 -1.1105 -1.4101  0.7528
58748SOL    HW283360   7.047  11.748   4.638 -0.2552  1.0701  1.5693
58749SOL     OW83361   0.009   9.478   0.906  0.3120 -0.8264  0.4440
58749SOL    HW183362  -0.067   9.535   0.896 -1.3538 -2.9802 -0.0637
58749SOL    HW283363  -0.019   9.413   0.971  1.6156 -1.8395  0.0294
58750SOL     OW83364  10.552  12.614   4.884  0.5757 -0.2547 -0.1758
58750SOL    HW183365  10.521  12.692   4.929  1.1684 -1.0301  1.6589
58750SOL    HW283366  10.642  12.603   4.913  0.2825 -2.0060  0.1684
58751SOL     OW83367   8.691   8.676   1.887  0.0408  0.2607 -0.4363
58751SOL    HW183368   8.781   8.705   1.874  0.1637 -0.1090 -0.4339
58751SOL    HW283369   8.682   8.667   1.982 -0.0000  0.3078 -0.4360
58752SOL     OW83370   7.480   5.666   9.089  0.2220 -0.2924  0.6268
58752SOL    HW183371   7.395   5.635   9.058 -1.2060  2.8711  1.0775
58752SOL    HW283372   7.479   5.649   9.184 -0.6809  1.2618  0.9234
58753SOL     OW83373  11.851   6.965   5.646 -0.1536 -0.3040  0.3305
58753SOL    HW183374  11.916   7.006   5.589  1.5623  0.1064  2.4554
58753SOL    HW283375  11.902   6.914   5.708 -1.8473  0.0629  2.1276
58754SOL     OW83376   6.347  12.681   5.405 -0.2000  0.4635 -0.3246
58754SOL    HW183377   6.362  12.614   5.338 -0.4543  1.3393 -1.2847
58754SOL    HW283378   6.252  12.688   5.410 -0.1725  0.7494 -0.2184
58755SOL     OW83379   0.771   3.842   0.957 -0.0601 -0.0709  0.1644
58755SOL    HW183380   0.855   3.813   0.992  0.3119  0.2179 -0.4607
58755SOL    HW283381   0.705   3.796   1.009  0.4893 -2.6479 -1.2600
58756SOL     OW83382   6.742   1.541   8.879  0.1520  0.2242  0.1249
58756SOL    HW183383   6.696   1.569   8.958 -0.2382  0.0821 -0.0481
58756SOL    HW283384   6.812   1.484   8.911 -0.6469 -0.6781  0.3035
58757SOL     OW83385   4.209   5.377   3.999  0.5003 -0.1329 -0.3917
58757SOL    HW183386   4.303   5.393   4.011  0.4943 -0.9954  0.9768
58757SOL    HW283387   4.194   5.292   4.040 -0.9271  0.0761 -0.4478
58758SOL     OW83388   4.602   7.880   4.846 -0.1175  0.3752 -0.4412
58758SOL    HW183389   4.594   7.800   4.794  0.1303  0.4698 -0.6293
58758SOL    HW283390   4.564   7.858   4.931  0.7753 -0.2237 -0.1868
58759SOL     OW83391   5.576   9.577  11.963  0.5142  0.3794  0.2929
58759SOL    HW183392   5.573   9.568  12.058  2.0508  2.4532  0.6003
58759SOL    HW283393   5.665   9.553  11.939  0.0693 -0.3678 -0.6862
58760SOL     OW83394   9.581  10.336   6.138  0.3463  0.5198 -0.3186
58760SOL    HW183395   9.531  10.256   6.156  3.1068 -1.3926 -0.5474
58760SOL    HW283396   9.548  10.365   6.053 -0.0972 -0.9081 -0.6692
58761SOL     OW83397   9.761   6.812  12.640  0.1033  0.0946 -0.1908
58761SOL    HW183398   9.811   6.879  12.685  0.1129  0.6408 -0.9968
58761SOL    HW283399   9.762   6.737  12.700  1.7178  0.1539 -0.0961
58762SOL     OW83400  12.531   8.979   1.410  0.0926  0.3920 -0.1128
58762SOL    HW183401  12.525   9.024   1.326 -2.5256 -0.0539 -0.2489
58762SOL    HW283402  12.464   9.021   1.464 -0.1799 -1.1692  0.8046
58763SOL     OW83403   2.821   5.970   9.025  0.1080 -0.4366  0.0904
58763SOL    HW183404   2.781   6.030   9.087 -0.1364  0.9090 -1.3067
58763SOL    HW283405   2.915   5.982   9.036  0.1532 -1.9293  1.7816
58764SOL     OW83406   4.949   4.109   6.116 -0.2382 -0.3702  0.5597
58764SOL    HW183407   4.935   4.169   6.190 -0.7640 -0.3117  0.4103
58764SOL    HW283408   4.898   4.146   6.045  1.8143  0.7058 -0.4670
58765SOL     OW83409   3.771   3.327   5.133 -0.6080 -0.0978  0.2507
58765SOL    HW183410   3.773   3.234   5.156  1.0190  0.0309  0.7638
58765SOL    HW283411   3.752   3.329   5.040 -1.1286 -0.9152  0.3307
58766SOL     OW83412   0.268   2.803   9.827  0.2393 -0.4805  0.0491
58766SOL    HW183413   0.314   2.739   9.773  0.0549 -0.1645 -0.4893
58766SOL    HW283414   0.186   2.760   9.851 -0.2913 -0.1178 -1.0652
58767SOL     OW83415   6.945  12.859   9.336  0.3552  0.4099 -0.0679
58767SOL    HW183416   7.040  12.861   9.336  0.3818 -0.1328 -1.1505
58767SOL    HW283417   6.919  12.951   9.348  0.9629  0.2914  2.5677
58768SOL     OW83418  12.800  11.773   8.766 -0.3191 -0.1052  0.2189
58768SOL    HW183419  12.737  11.820   8.820 -0.6736 -0.3917  0.0630
58768SOL    HW283420  12.882  11.820   8.777 -0.9273  1.3119 -0.9065
58769SOL     OW83421   9.139  12.800   6.248 -0.3857 -0.1986  0.2800
58769SOL    HW183422   9.089  12.840   6.319  0.5236 -0.2954  0.9849
58769SOL    HW283423   9.166  12.715   6.282 -0.5538 -0.5519 -0.4533
58770SOL     OW83424   5.818  11.711   0.368  0.0685 -0.5136  0.5006
58770SOL    HW183425   5.758  11.755   0.309 -0.0923  0.0800  1.0972
58770SOL    HW283426   5.763  11.653   0.420  0.4126 -2.3999 -1.0906
58771SOL     OW83427   5.950   5.885   0.914  0.1167  0.0472  0.2990
58771SOL    HW183428   5.925   5.976   0.901 -0.3380  0.1182  1.5140
58771SOL    HW283429   5.956   5.849   0.825 -0.0949  1.1450 -0.1828
58772SOL     OW83430   5.808   0.879   4.560 -0.0040 -0.7874 -0.2246
58772SOL    HW183431   5.851   0.840   4.484 -2.2555 -2.8230 -0.5778
58772SOL    HW283432   5.795   0.806   4.620 -1.7398 -0.0203  0.4102
58773SOL     OW83433   1.083   1.404   4.670  0.7719  0.0965  0.2055
58773SOL    HW183434   1.124   1.318   4.668  3.7704  1.2909  2.4826
58773SOL    HW283435   1.046   1.411   4.758 -1.3428  0.4037 -0.6550
58774SOL     OW83436   8.592   3.404   5.709  0.1927 -0.0658 -0.2352
58774SOL    HW183437   8.601   3.417   5.804 -0.9962 -0.2958 -0.0767
58774SOL    HW283438   8.599   3.492   5.672 -0.0922  0.1201  0.1410
58775SOL     OW83439  11.296   8.718  12.159  0.5484  0.1811 -0.6234
58775SOL    HW183440  11.240   8.645  12.134 -0.3749  1.3376 -2.1309
58775SOL    HW283441  11.240   8.795  12.150  1.5091  1.1132  0.8657
58776SOL     OW83442  12.230   0.466  10.788  0.6538 -0.0559  0.5620
58776SOL    HW183443  12.253   0.553  10.756 -0.4134  0.5178  1.3013
58776SOL    HW283444  12.307   0.437  10.837  0.9924  0.4854  0.3586
58777SOL     OW83445   8.080   7.065   4.182  0.2646  0.2799 -0.1009
58777SOL    HW183446   8.041   6.993   4.232  1.3595  0.1514  0.5955
58777SOL    HW283447   8.086   7.031   4.092  0.4950 -0.3930  0.1593
58778SOL     OW83448  10.677   9.760   4.048  0.2039 -0.1290 -0.1315
58778SOL    HW183449  10.600   9.711   4.018 -0.7474  1.4806 -0.3881
58778SOL    HW283450  10.693   9.728   4.137  0.0028 -1.3350 -0.5052
58779SOL     OW83451  11.502   8.773   7.769  0.2321  0.2783  0.3154
58779SOL    HW183452  11.560   8.733   7.835 -1.2158  0.4783  1.7870
58779SOL    HW283453  11.421   8.721   7.775  0.2136  0.0370 -1.6473
58780SOL     OW83454   6.917   0.822   5.136  1.0294 -0.4615  0.4742
58780SOL    HW183455   6.868   0.821   5.218 -0.5362  0.1313 -0.4208
58780SOL    HW283456   7.003   0.856   5.161  0.3500  0.4389  1.7474
58781SOL     OW83457   5.351   2.170   1.015  0.1373  0.1388 -0.0019
58781SOL    HW183458   5.363   2.253   1.060  0.4748 -0.0829  0.3277
58781SOL    HW283459   5.306   2.192   0.934  1.6738  0.8513 -0.7010
58782SOL     OW83460   5.578   1.172   1.270  0.5994 -0.4462 -0.0998
58782SOL    HW183461   5.586   1.085   1.308 -2.0916 -0.8548 -0.2729
58782SOL    HW283462   5.509   1.214   1.320 -0.2780  0.4550 -1.9657
58783SOL     OW83463  10.940  12.164  11.742 -0.2629 -0.1239 -0.5184
58783SOL    HW183464  11.001  12.162  11.669  0.3602 -0.8341  0.0099
58783SOL    HW283465  10.980  12.109  11.809 -0.0125  1.8155  1.0124
58784SOL     OW83466  12.197   8.280  10.131 -0.0817 -0.0882 -0.1882
58784SOL    HW183467  12.162   8.307  10.215 -0.5487 -1.7073  0.1766
58784SOL    HW283468  12.292   8.270  10.146  0.0279  0.8569 -0.2146
58785SOL     OW83469   0.067  12.151   4.542 -0.4373 -0.0557  0.4845
58785SOL    HW183470  -0.007  12.202   4.574 -0.2063  1.7774 -1.6481
58785SOL    HW283471   0.144  12.201   4.569 -0.2270  1.2905 -2.2768
58786SOL     OW83472   5.793   6.223   6.331 -0.2687 -0.7682 -0.0830
58786SOL    HW183473   5.796   6.133   6.300 -2.8844 -0.6755 -0.8464
58786SOL    HW283474   5.706   6.232   6.370  0.1484  1.2784  0.4989
58787SOL     OW83475   1.743   7.327   4.723 -0.6569 -0.0957 -0.2972
58787SOL    HW183476   1.692   7.386   4.668  1.5321  2.0894 -0.1076
58787SOL    HW283477   1.710   7.341   4.812 -1.7845 -1.0418 -0.5299
58788SOL     OW83478   4.261  10.819   4.779 -0.1117 -0.6918 -0.4656
58788SOL    HW183479   4.319  10.803   4.854 -1.2885  0.2534  0.7007
58788SOL    HW283480   4.194  10.752   4.786 -1.0421  0.2663  0.2326
58789SOL     OW83481   3.706   5.164   4.818  0.2087  0.5704  0.2113
58789SOL    HW183482   3.709   5.248   4.771 -0.3204 -0.4502 -1.7444
58789SOL    HW283483   3.723   5.098   4.751 -1.3387 -1.0137  1.2824
58790SOL     OW83484   5.656   4.653   5.013 -0.0919  0.0954 -0.3259
58790SOL    HW183485   5.584   4.666   4.952  0.3229  1.0531 -0.6352
58790SOL    HW283486   5.634   4.709   5.088  0.6023  0.8616 -0.6752
58791SOL     OW83487   7.512   3.939   9.798 -0.0049  0.0308 -0.2283
58791SOL    HW183488   7.537   4.031   9.797 -0.7910  0.2732  0.6418
58791SOL    HW283489   7.417   3.940   9.783  0.2895 -0.7894 -2.3869
58792SOL     OW83490   4.445   6.706   1.155  0.2849  0.4016  0.2754
58792SOL    HW183491   4.497   6.717   1.235 -0.9579  0.2717  1.1495
58792SOL    HW283492   4.412   6.617   1.160  0.0656  0.4476 -0.3058
58793SOL     OW83493   8.854   3.588   1.352  0.1858 -0.4402  0.6890
58793SOL    HW183494   8.817   3.546   1.275 -0.4469  0.5207  0.4509
58793SOL    HW283495   8.865   3.518   1.415 -1.9768 -0.7834  0.7362
58794SOL     OW83496  11.563   6.064   5.741 -0.6620  0.0130 -0.1492
58794SOL    HW183497  11.582   6.157   5.728  1.0289 -0.3692 -0.6429
58794SOL    HW283498  11.487   6.063   5.799 -0.2454  1.7008  0.4824
58795SOL     OW83499   1.992  10.957  11.562  0.0083  0.1411 -0.3638
58795SOL    HW183500   1.925  10.945  11.494  1.2501 -4.2126 -1.1319
58795SOL    HW283501   2.067  10.991  11.514  0.7105 -2.4216 -1.2568
58796SOL     OW83502  10.610   5.875   4.662 -0.1595  0.4314 -0.1459
58796SOL    HW183503  10.612   5.968   4.685 -0.2689 -0.0673  2.1025
58796SOL    HW283504  10.639   5.830   4.742  1.6376 -1.3994 -1.7290
58797SOL     OW83505   7.747  12.890  10.698  0.1356  0.4211  0.5245
58797SOL    HW183506   7.728  12.799  10.675 -0.8401  0.6264  0.4682
58797SOL    HW283507   7.807  12.884  10.773  2.0800 -0.2558 -1.0007
58798SOL     OW83508   4.995  11.198  11.455  0.3622 -0.0829 -0.1558
58798SOL    HW183509   4.960  11.160  11.374  2.0386 -1.1896 -0.4030
58798SOL    HW283510   4.994  11.126  11.518 -1.1517  0.8265  0.9303
58799SOL     OW83511   1.164   4.172   2.513  0.2632  0.2473 -0.2410
58799SOL    HW183512   1.159   4.192   2.420 -1.3083 -0.0822 -0.2527
58799SOL    HW283513   1.086   4.119   2.531  0.2984  0.6657  1.3406
58800SOL     OW83514   4.642   1.155  11.248  0.4230 -0.4481  0.0200
58800SOL    HW183515   4.564   1.100  11.250 -0.0642  0.2542  1.7239
58800SOL    HW283516   4.613   1.236  11.207  0.1066 -0.0057  1.0887
58801SOL     OW83517   5.069   3.944  12.872  0.1066  0.7365  0.0596
58801SOL    HW183518   4.999   3.952  12.807  0.2205 -0.3249 -0.2183
58801SOL    HW283519   5.024   3.937  12.956 -0.4581 -3.5069 -0.3438
58802SOL     OW83520   5.501   2.687  12.448  0.0367  0.0555  0.0045
58802SOL    HW183521   5.457   2.666  12.366  0.0788  0.8024 -0.2202
58802SOL    HW283522   5.430   2.714  12.507 -0.1761 -1.8451  0.7035
58803SOL     OW83523   4.540   5.663  11.412 -0.1887  0.0100  0.2966
58803SOL    HW183524   4.545   5.587  11.355  0.7219 -0.9203  1.5628
58803SOL    HW283525   4.488   5.634  11.486  0.5889  0.4457  1.0272
58804SOL     OW83526   2.913   1.940   5.821  0.1402 -0.0903  0.2362
58804SOL    HW183527   2.928   1.959   5.728  0.7600 -2.4879 -0.2378
58804SOL    HW283528   2.922   2.024   5.865  0.3997  1.0152 -1.8129
58805SOL     OW83529   6.345   0.050  10.433  0.4392  0.3576  0.2165
58805SOL    HW183530   6.307   0.136  10.417  0.8723  0.8726  1.8286
58805SOL    HW283531   6.306  -0.006  10.365 -2.1205  1.1591  0.9105
58806SOL     OW83532   3.051   3.044   7.199  0.0829  0.1156  0.1325
58806SOL    HW183533   3.118   2.984   7.232  0.7279  0.3151 -0.7969
58806SOL    HW283534   2.989   2.987   7.152 -1.3745 -0.3121  2.4021
58807SOL     OW83535   3.759   2.406   8.676  0.3327  0.2862 -0.6320
58807SOL    HW183536   3.725   2.483   8.721  0.0060  0.6969 -1.5749
58807SOL    HW283537   3.832   2.376   8.732  0.5061  1.3073 -0.2947
58808SOL     OW83538  10.765   0.159   2.007  0.5838 -0.2020  0.0111
58808SOL    HW183539  10.702   0.187   1.940 -0.9963 -0.7684  1.2021
58808SOL    HW283540  10.713   0.106   2.068  1.4411  1.9322  2.8358
58809SOL     OW83541   9.626   8.402   5.010  0.0666 -0.5339 -0.2621
58809SOL    HW183542   9.597   8.446   5.090  0.5392  0.4881 -0.6402
58809SOL    HW283543   9.714   8.437   4.993  0.0531 -0.8847 -1.1225
58810SOL     OW83544   3.600   8.331   5.116  0.1965 -0.0170 -0.3050
58810SOL    HW183545   3.531   8.350   5.179 -0.1519 -0.8238 -0.4233
58810SOL    HW283546   3.568   8.369   5.034  0.5497  0.8412 -0.0587
58811SOL     OW83547   2.998  12.252   3.720  0.2351  0.1251 -0.0114
58811SOL    HW183548   2.927  12.306   3.753 -0.7028 -1.1234  0.0776
58811SOL    HW283549   3.068  12.260   3.785 -0.4393  0.0976  0.7310
58812SOL     OW83550  11.352   0.048   2.079  0.1823  0.3662  0.4588
58812SOL    HW183551  11.326   0.139   2.096  0.6996  0.7649 -0.7672
58812SOL    HW283552  11.417   0.055   2.008 -0.3614 -1.0231 -0.1979
58813SOL     OW83553   5.211   6.303   6.279 -0.3598  0.4534  1.0748
58813SOL    HW183554   5.247   6.392   6.275  3.4581 -0.8718  1.8467
58813SOL    HW283555   5.190   6.289   6.371  0.5203  0.1119  1.2396
58814SOL     OW83556   5.182   6.498   2.181 -0.1460  0.2594 -0.2869
58814SOL    HW183557   5.226   6.430   2.232  2.0530  1.1128 -0.9560
58814SOL    HW283558   5.141   6.450   2.108 -1.7465 -0.7311  1.2010
58815SOL     OW83559   4.932   9.353   8.193  0.2004 -0.6960 -0.0772
58815SOL    HW183560   5.003   9.403   8.232 -0.7725  1.3000 -0.7641
58815SOL    HW283561   4.957   9.343   8.101  0.2901 -1.3428  0.0082
58816SOL     OW83562  11.405   8.449  10.210  0.2107  0.1636  0.3223
58816SOL    HW183563  11.473   8.504  10.249 -0.1608  0.5907  0.3772
58816SOL    HW283564  11.376   8.497  10.132 -0.4538  0.2844  0.6355
58817SOL     OW83565  12.003   8.770   7.114  0.1722  0.3569 -0.0530
58817SOL    HW183566  11.929   8.830   7.115  0.2611  0.5229 -1.6048
58817SOL    HW283567  12.013   8.745   7.022  1.8704  0.1129  0.1649
58818SOL     OW83568   0.622   8.050   7.359 -0.4686 -0.3724 -0.0894
58818SOL    HW183569   0.642   8.141   7.339  1.0440 -1.0065 -1.6933
58818SOL    HW283570   0.624   8.045   7.455 -0.6917  1.2851  0.0215
58819SOL     OW83571   6.644   2.609  11.432  0.1017  0.0312 -0.1287
58819SOL    HW183572   6.600   2.529  11.401  0.2280 -0.2492  0.4076
58819SOL    HW283573   6.647   2.600  11.527 -1.9284  1.7166  0.1812
58820SOL     OW83574   7.009   6.069  12.475  0.2195  0.4075  0.2971
58820SOL    HW183575   7.025   6.028  12.390  1.1550  1.9316 -0.3045
58820SOL    HW283576   7.082   6.130  12.486 -0.8387  1.5328  1.3662
58821SOL     OW83577   0.155   5.323  12.003 -0.1953  0.3590  0.3701
58821SOL    HW183578   0.122   5.413  11.994 -2.8152 -0.6677 -1.7258
58821SOL    HW283579   0.218   5.313  11.932 -2.5495 -0.3814 -1.7784
58822SOL     OW83580   0.667   0.036   5.328 -0.1913  0.7907  0.3926
58822SOL    HW183581   0.648   0.048   5.421 -2.2880  3.0429 -0.1950
58822SOL    HW283582   0.630  -0.049   5.306 -0.2805  0.5356  1.4830
58823SOL     OW83583  10.570   2.928   4.441 -0.4904 -0.7917  0.0633
58823SOL    HW183584  10.663   2.906   4.440 -0.5477 -1.0433 -0.7229
58823SOL    HW283585  10.540   2.909   4.352 -0.6667  2.0011 -0.5732
58824SOL     OW83586   1.101   1.573  11.613  0.3473 -0.0715 -0.0689
58824SOL    HW183587   1.026   1.545  11.666 -0.2376  1.9333  0.2635
58824SOL    HW283588   1.177   1.539  11.659 -0.2712 -0.4470  0.7057
58825SOL     OW83589  10.018   2.538   6.037 -0.7021 -0.3099  0.3684
58825SOL    HW183590   9.952   2.481   6.076  0.5894 -1.0016  1.6198
58825SOL    HW283591  10.018   2.616   6.092 -0.1472 -0.5185  0.6718
58826SOL     OW83592   5.139   9.264   1.300 -0.3401 -0.2095 -0.1342
58826SOL    HW183593   5.076   9.326   1.263 -0.3128  1.5650  2.4811
58826SOL    HW283594   5.177   9.219   1.225 -2.9007  0.4482 -1.9452
58827SOL     OW83595   7.809   7.347   4.041 -0.2508 -0.0077  0.1812
58827SOL    HW183596   7.797   7.282   3.972  1.2953 -0.8240  0.6255
58827SOL    HW283597   7.765   7.309   4.118  1.1912 -0.8722  0.6123
58828SOL     OW83598   5.081   7.117   2.582 -0.1009 -0.1311  0.0740
58828SOL    HW183599   4.994   7.077   2.577 -0.0360 -0.3572  0.5839
58828SOL    HW283600   5.068   7.208   2.556 -0.9538  0.4762  2.3676
58829SOL     OW83601   8.435   0.912  11.050  0.7221  0.0564 -0.1340
58829SOL    HW183602   8.529   0.908  11.067  0.7245 -1.3793 -0.3758
58829SOL    HW283603   8.418   1.004  11.032  2.1481  0.2762 -0.4832
58830SOL     OW83604   6.093   3.793   6.623 -0.1096 -0.2949  0.1663
58830SOL    HW183605   6.161   3.767   6.685  0.1536 -0.0320 -0.0103
58830SOL    HW283606   6.089   3.721   6.560 -0.2565 -0.4823  0.3881
58831SOL     OW83607   2.956  12.143   7.208 -0.7395  0.1502 -0.2942
58831SOL    HW183608   2.918  12.124   7.122  0.2702 -0.0807 -0.7033
58831SOL    HW283609   2.885  12.126   7.270 -0.8564 -1.8890 -0.9013
58832SOL     OW83610   5.104  11.068   8.588 -0.1011 -0.1482 -0.1764
58832SOL    HW183611   5.157  10.989   8.582 -0.3757 -0.2245 -2.1935
58832SOL    HW283612   5.095  11.098   8.497 -1.6572  1.0817  0.3442
58833SOL     OW83613  10.559   6.246   1.979  0.4569 -0.0460  0.3266
58833SOL    HW183614  10.569   6.191   2.057 -0.5917 -0.7708 -0.0316
58833SOL    HW283615  10.545   6.334   2.014 -2.9339 -0.7725  1.1294
58834SOL     OW83616   6.459   5.310   6.821  0.2354 -0.3728  0.2841
58834SOL    HW183617   6.432   5.243   6.759 -0.3321  0.7510 -0.7261
58834SOL    HW283618   6.554   5.315   6.812  0.0816  0.4691 -1.2716
58835SOL     OW83619  12.406   9.998   0.383 -0.7793  0.3313 -0.2004
58835SOL    HW183620  12.332  10.039   0.338  0.4358  0.6424 -2.0340
58835SOL    HW283621  12.410   9.909   0.347  0.3324  0.6453 -0.9279
58836SOL     OW83622   4.144   4.000   6.706  0.0809  0.2121 -0.1225
58836SOL    HW183623   4.095   3.953   6.639 -0.0495 -0.0523  0.1542
58836SOL    HW283624   4.141   4.092   6.679  2.3702 -0.1733 -1.9639
58837SOL     OW83625   9.275   9.733  11.066  0.8466 -0.5040 -0.3494
58837SOL    HW183626   9.296   9.798  10.999 -0.2191 -0.0175 -0.2322
58837SOL    HW283627   9.360   9.699  11.095  1.4459  1.1270 -0.1231
58838SOL     OW83628   5.385   7.115   5.566  0.5968 -0.3010  0.1661
58838SOL    HW183629   5.351   7.094   5.653  2.4266 -1.1194  0.7431
58838SOL    HW283630   5.472   7.153   5.583  0.3433  1.0180 -1.2436
58839SOL     OW83631  12.588  10.862   6.422  0.5186 -0.3707  0.0296
58839SOL    HW183632  12.637  10.913   6.358 -1.1614  1.8646  0.4131
58839SOL    HW283633  12.620  10.892   6.507 -0.5821  0.1746  0.2653
58840SOL     OW83634   6.207  10.418   2.443  0.1165  0.3345 -0.4835
58840SOL    HW183635   6.261  10.464   2.508  1.1414 -1.3115 -0.0863
58840SOL    HW283636   6.139  10.481   2.419  0.0039  1.1925  1.8067
58841SOL     OW83637   9.477  11.598  11.693  0.0077  0.4300  0.7970
58841SOL    HW183638   9.524  11.681  11.687  1.0051  0.0855  2.8345
58841SOL    HW283639   9.429  11.591  11.610  1.4592  2.0682 -0.2548
58842SOL     OW83640   2.496  12.724   6.619  0.3154 -0.2651 -0.1238
58842SOL    HW183641   2.461  12.665   6.686 -0.4707  1.8777  1.4527
58842SOL    HW283642   2.420  12.772   6.587  1.0212  0.4170 -0.8288
58843SOL     OW83643  12.015  12.261   6.508 -0.1443 -0.5778  0.4981
58843SOL    HW183644  11.940  12.226   6.460  0.6641 -3.4381  1.1581
58843SOL    HW283645  12.091  12.227   6.461  0.8794  2.4532 -0.3036
58844SOL     OW83646   7.128  10.291   9.549  0.2555  0.3309  0.1015
58844SOL    HW183647   7.144  10.264   9.459 -3.0102 -1.6361 -0.0750
58844SOL    HW283648   7.206  10.341   9.574  0.6341  2.4014 -4.2938
58845SOL     OW83649   1.190   7.297  12.644  0.0588  0.1362  0.3676
58845SOL    HW183650   1.156   7.224  12.593 -0.6873  0.5977  0.1902
58845SOL    HW283651   1.276   7.267  12.674 -0.0765 -0.6649 -0.0109
58846SOL     OW83652  10.011   0.837   3.233  0.4987  0.4115  0.4056
58846SOL    HW183653  10.009   0.836   3.137 -0.5265  1.9972  0.3734
58846SOL    HW283654  10.050   0.753   3.257 -0.0218 -0.3936 -1.3805
58847SOL     OW83655   6.954   3.996   9.677  0.4059 -0.2004  0.6018
58847SOL    HW183656   6.946   4.081   9.633 -1.0705 -0.9183 -0.6021
58847SOL    HW283657   6.912   4.009   9.762 -4.2845 -0.8414 -1.3278
58848SOL     OW83658   8.463   8.172   2.548  0.7192 -0.8927  0.3887
58848SOL    HW183659   8.433   8.232   2.616  0.6104 -1.6446  1.0243
58848SOL    HW283660   8.558   8.165   2.562  0.9176  0.0344 -0.4314
58849SOL     OW83661   4.323   2.956   7.252 -0.2212  0.4315 -0.1243
58849SOL    HW183662   4.370   3.037   7.233  0.9881 -0.5720 -1.7133
58849SOL    HW283663   4.351   2.896   7.183 -1.9216 -1.0134  0.3735
58850SOL     OW83664  12.043   3.384  11.676 -0.0716  0.5938  0.6941
58850SOL    HW183665  11.989   3.369  11.598 -0.3076  1.5412  0.6605
58850SOL    HW283666  12.062   3.478  11.674  1.9270  0.2264  0.4996
58851SOL     OW83667   3.415  12.340   1.325  0.5792  0.1433  0.3369
58851SOL    HW183668   3.325  12.367   1.347  0.0517 -0.7319 -0.6815
58851SOL    HW283669   3.418  12.343   1.230  1.0148 -1.7126  0.2602
58852SOL     OW83670  12.938   1.173   6.450  0.2032 -0.2293 -0.2517
58852SOL    HW183671  13.029   1.171   6.421  0.8525  2.4683  1.2834
58852SOL    HW283672  12.892   1.119   6.386  2.8288 -1.6207 -1.1191
58853SOL     OW83673   5.371   0.874   0.394 -0.4181 -0.1664  0.2325
58853SOL    HW183674   5.331   0.853   0.479  1.1638  1.1411  1.3684
58853SOL    HW283675   5.362   0.794   0.343 -1.7104 -0.8883  1.5200
58854SOL     OW83676   9.844   6.870   7.247  0.3877 -0.7584  0.0626
58854SOL    HW183677   9.927   6.918   7.251  0.6648 -1.1588 -0.7460
58854SOL    HW283678   9.779   6.936   7.225  0.5354 -0.5038  0.3670
58855SOL     OW83679   0.218   2.508   3.225 -0.1906 -0.0770  0.8455
58855SOL    HW183680   0.194   2.415   3.222  0.5765 -0.3846  2.6818
58855SOL    HW283681   0.168   2.543   3.299  0.2041  0.7588  0.7260
58856SOL     OW83682   3.477   1.060  10.507  0.5648 -0.1913 -0.2689
58856SOL    HW183683   3.468   0.994  10.576  0.9062  0.6919  0.6416
58856SOL    HW283684   3.536   1.021  10.443  1.3587 -0.4876  0.6292
58857SOL     OW83685   9.928   0.866   2.435  0.1099 -0.2598  0.1304
58857SOL    HW183686   9.872   0.856   2.512 -1.0117  0.0648 -0.6234
58857SOL    HW283687   9.981   0.943   2.455 -0.4576  0.0671  0.4106
58858SOL     OW83688   5.351   1.463   4.183  0.4814  0.1098 -0.5852
58858SOL    HW183689   5.339   1.422   4.269  0.6101  0.5109 -0.3705
58858SOL    HW283690   5.388   1.550   4.203 -1.6850  1.1541 -0.8927
58859SOL     OW83691   4.321   6.785  11.209  0.1260 -0.1114  0.4161
58859SOL    HW183692   4.405   6.825  11.186  0.1777 -0.9020 -0.8703
58859SOL    HW283693   4.334   6.691  11.197 -0.9714 -0.2398  0.0798
58860SOL     OW83694  12.298  10.403   6.089 -0.0570  0.2030  0.5097
58860SOL    HW183695  12.318  10.331   6.150  0.1806 -1.3782 -1.3553
58860SOL    HW283696  12.384  10.440   6.068  0.0130 -0.2507 -0.0216
58861SOL     OW83697   8.427  10.655   9.630 -0.1890  0.3330  0.0439
58861SOL    HW183698   8.475  10.577   9.605 -1.8099 -0.5318 -0.5100
58861SOL    HW283699   8.491  10.710   9.675  0.4018 -2.4928  3.0063
58862SOL     OW83700   5.054  12.318   2.851  0.3813  0.6053  0.2380
58862SOL    HW183701   5.111  12.261   2.904 -1.4233  0.0398  1.6779
58862SOL    HW283702   5.036  12.267   2.772  1.6186  0.6812 -0.1183
58863SOL     OW83703   5.126   8.454   4.758  0.0081  0.3370  0.0293
58863SOL    HW183704   5.072   8.394   4.810  0.0978 -1.0836 -1.4386
58863SOL    HW283705   5.216   8.426   4.775  0.0350 -0.2078 -0.9173
58864SOL     OW83706  11.177   2.616   2.877  0.1729  0.0049 -0.1581
58864SOL    HW183707  11.151   2.530   2.845  0.2965  0.0313 -0.3359
58864SOL    HW283708  11.260   2.601   2.922 -1.3860 -0.5420  2.7535
58865SOL     OW83709   1.546  11.025   0.660 -0.2064  0.5932 -0.3270
58865SOL    HW183710   1.520  11.112   0.689 -0.6481 -0.0207  1.1823
58865SOL    HW283711   1.604  10.993   0.729  0.5749 -0.0270 -1.2369
58866SOL     OW83712   9.634   4.556   7.017  0.6283 -0.2166 -0.6358
58866SOL    HW183713   9.608   4.503   6.941  1.3411 -0.2842 -0.8375
58866SOL    HW283714   9.691   4.624   6.980  1.8192 -0.8636 -0.0324
58867SOL     OW83715   3.880   6.183   4.765 -0.4982 -0.2384 -0.3602
58867SOL    HW183716   3.862   6.185   4.671  0.4836  0.8832 -0.5410
58867SOL    HW283717   3.835   6.104   4.796  0.4643 -1.4973 -2.0346
58868SOL     OW83718   5.694  12.247   5.248  0.1475 -0.2980  0.2388
58868SOL    HW183719   5.772  12.196   5.271  0.9402  0.5530 -0.4894
58868SOL    HW283720   5.716  12.337   5.273 -1.4979 -0.3629  2.1307
58869SOL     OW83721  10.792   1.122   5.557  0.1936  0.1929 -0.1962
58869SOL    HW183722  10.800   1.109   5.652 -0.4029  3.0674  0.3452
58869SOL    HW283723  10.705   1.089   5.536  1.0568 -2.2889 -0.1947
58870SOL     OW83724  12.439   0.132   1.084 -0.1870 -0.2954 -0.0334
58870SOL    HW183725  12.485   0.188   1.147 -1.8457  0.1430  0.8425
58870SOL    HW283726  12.487   0.049   1.087  1.2446  0.4891 -0.0533
58871SOL     OW83727   6.547  11.520   8.469  0.4556 -0.1495  0.6051
58871SOL    HW183728   6.608  11.470   8.523  1.7295  0.2710 -0.3934
58871SOL    HW283729   6.575  11.504   8.379  0.2554  1.4898  0.2095
58872SOL     OW83730  10.541   0.944   5.972  0.2630  0.0577  0.2203
58872SOL    HW183731  10.489   0.867   5.948 -0.5698  0.6058  0.2443
58872SOL    HW283732  10.602   0.912   6.039  1.3863 -1.0686 -1.2740
58873SOL     OW83733   0.396   6.871  12.267 -0.0615  0.3670 -0.0728
58873SOL    HW183734   0.464   6.880  12.334 -0.8952  1.0723  0.7030
58873SOL    HW283735   0.343   6.950  12.276 -0.8381 -0.0525 -0.8365
58874SOL     OW83736   8.884   2.392   8.052 -0.4491 -0.1618  0.3292
58874SOL    HW183737   8.794   2.382   8.082  0.0713  0.7784  2.2989
58874SOL    HW283738   8.906   2.484   8.069  0.9499 -0.4220  0.0693
58875SOL     OW83739   3.014   4.331   1.826 -0.1194 -0.1152  0.5236
58875SOL    HW183740   2.984   4.288   1.906 -0.4881  0.5790  0.7672
58875SOL    HW283741   3.077   4.397   1.856 -0.5043  0.3689  0.2802
58876SOL     OW83742   4.902   3.384   4.214 -0.0088 -0.3965  0.2870
58876SOL    HW183743   4.892   3.381   4.309  0.6704  0.0467  0.3781
58876SOL    HW283744   4.846   3.313   4.182 -1.5646  0.4901  0.8980
58877SOL     OW83745   1.016   2.880   7.597  1.0107 -0.4678  0.2119
58877SOL    HW183746   1.105   2.893   7.567  0.0916 -0.6290 -2.9517
58877SOL    HW283747   1.017   2.795   7.641  2.4738 -0.2943  0.5338
58878SOL     OW83748   7.860   3.969  11.555  0.0241  0.5434  0.2905
58878SOL    HW183749   7.832   4.019  11.633 -0.8599  2.4799 -1.1606
58878SOL    HW283750   7.865   4.035  11.486  2.7745 -0.7604 -0.8789
58879SOL     OW83751   3.385   4.048   9.240 -0.2708 -0.4916  0.0930
58879SOL    HW183752   3.446   4.044   9.313 -0.0872  1.0000  0.0386
58879SOL    HW283753   3.379   3.957   9.209  0.0108 -1.0612  1.6361
58880SOL     OW83754   7.220  10.267   1.149 -0.1719  0.7706  0.2266
58880SOL    HW183755   7.127  10.264   1.127 -0.4335 -0.6215  1.3764
58880SOL    HW283756   7.229  10.345   1.203 -1.0317  0.0199  1.5037
58881SOL     OW83757   3.853   7.555   5.918  0.4152  0.4280  0.0802
58881SOL    HW183758   3.884   7.643   5.897  0.3642  0.3893 -0.1638
58881SOL    HW283759   3.782   7.539   5.856  0.5657  0.1331 -0.0171
58882SOL     OW83760   8.165   1.592   7.771 -0.1888 -0.0520 -0.1933
58882SOL    HW183761   8.259   1.607   7.766 -0.1216 -0.0758  0.7946
58882SOL    HW283762   8.143   1.609   7.863 -1.3818  1.3244 -0.6842
58883SOL     OW83763   1.606   0.352   2.453  0.1489  0.3580  0.7637
58883SOL    HW183764   1.559   0.283   2.499 -0.6418  0.3592 -0.0200
58883SOL    HW283765   1.651   0.307   2.382 -0.6166  0.6610  0.0625
58884SOL     OW83766  11.615   9.913   7.427 -0.3459  0.3948 -0.1976
58884SOL    HW183767  11.595   9.830   7.470  1.0078  0.5705  0.8643
58884SOL    HW283768  11.533   9.962   7.431 -0.5383  0.0277  1.4003
58885SOL     OW83769   8.029   2.467   8.041  0.2239  0.0777 -0.4480
58885SOL    HW183770   8.099   2.458   7.976  0.8505 -0.4696  0.2796
58885SOL    HW283771   8.002   2.559   8.035  0.7508  0.2007 -1.0045
58886SOL     OW83772  12.069   8.009  12.698  0.3236  0.3982 -0.2799
58886SOL    HW183773  12.060   7.920  12.730 -1.7025  0.0028 -1.7457
58886SOL    HW283774  12.161   8.016  12.673  0.9232 -0.6698  1.4651
58887SOL     OW83775   7.371   6.600  10.034  0.1587 -0.9409 -0.0023
58887SOL    HW183776   7.453   6.621   9.989 -0.3867 -0.2185 -0.6704
58887SOL    HW283777   7.399   6.576  10.123  1.0408 -0.0518 -0.0235
58888SOL     OW83778   4.411  12.355   0.903  0.3558  0.0451  0.1626
58888SOL    HW183779   4.490  12.301   0.918  0.8207  0.2498 -1.3691
58888SOL    HW283780   4.445  12.441   0.879 -0.3864  1.1119  2.5682
58889SOL     OW83781  10.915   2.242   5.854  0.4857 -0.2083 -0.6475
58889SOL    HW183782  10.954   2.175   5.798  1.7819  0.4052 -0.5202
58889SOL    HW283783  10.834   2.266   5.809  0.0341 -1.7774 -0.7286
58890SOL     OW83784  10.432   3.720   6.306  0.7800 -0.0101  0.6734
58890SOL    HW183785  10.395   3.633   6.296  0.7166  0.1935 -1.2097
58890SOL    HW283786  10.360   3.780   6.285  2.0612  0.3907 -3.5675
58891SOL     OW83787   8.131  11.240  11.738  0.1630  0.1850  0.3532
58891SOL    HW183788   8.104  11.300  11.808  0.6682  0.6601  0.1430
58891SOL    HW283789   8.171  11.296  11.672  1.7180 -0.4960  0.6743
58892SOL     OW83790  11.792  11.147  11.420 -0.2446  0.0017 -0.1724
58892SOL    HW183791  11.723  11.109  11.366  0.7009 -1.2136 -0.5833
58892SOL    HW283792  11.800  11.237  11.390 -1.0986 -0.0778 -0.6607
58893SOL     OW83793  12.109   6.780   8.493  0.4623  0.0740 -0.1160
58893SOL    HW183794  12.138   6.867   8.519  0.0530  0.4711 -0.9333
58893SOL    HW283795  12.117   6.780   8.398  1.5270 -1.1823 -0.0492
58894SOL     OW83796   3.366   5.407   4.478 -0.0361 -0.0014 -0.6174
58894SOL    HW183797   3.293   5.362   4.437  1.1126 -0.2509 -2.5029
58894SOL    HW283798   3.424   5.338   4.508 -0.1904  0.2093  0.2141
58895SOL     OW83799   1.880  11.009  11.793 -0.0550 -0.3422  0.4679
58895SOL    HW183800   1.921  11.018  11.707  1.1154 -0.9997  0.9300
58895SOL    HW283801   1.937  11.059  11.852 -0.7754 -0.0034  0.8918
58896SOL     OW83802  10.763  12.212   2.041  0.4338  0.4112  0.0365
58896SOL    HW183803  10.834  12.276   2.051  0.1346  0.9606 -1.2410
58896SOL    HW283804  10.807  12.132   2.011  0.4296  0.9994 -1.5833
58897SOL     OW83805   9.671   8.881   7.150 -0.1803 -0.2945  0.1143
58897SOL    HW183806   9.677   8.934   7.070  1.4562  0.4634  0.6973
58897SOL    HW283807   9.636   8.940   7.216 -1.9924 -1.0542 -0.1005
58898SOL     OW83808  11.590   6.303   8.131 -0.0404 -0.3685 -0.2734
58898SOL    HW183809  11.576   6.252   8.052  0.0378 -0.1330 -0.4389
58898SOL    HW283810  11.685   6.298   8.146  0.0377  0.1528 -0.5765
58899SOL     OW83811   1.064   4.109  12.349  0.6564  0.1616 -0.2878
58899SOL    HW183812   0.981   4.067  12.370  0.5734  0.5522  0.1722
58899SOL    HW283813   1.111   4.113  12.432  0.9036  0.4522 -0.4390
58900SOL     OW83814   0.943   2.157  12.811  0.2598 -0.3816 -0.1368
58900SOL    HW183815   0.874   2.203  12.858 -0.2998 -1.3874  0.0563
58900SOL    HW283816   0.937   2.067  12.841  0.0479 -1.0133 -1.9345
58901SOL     OW83817   1.964   2.239  11.471  0.1462 -0.1948 -0.1590
58901SOL    HW183818   2.017   2.163  11.446  0.2922 -0.6908  1.5216
58901SOL    HW283819   1.877   2.202  11.490  0.1395  0.0957  0.3975
58902SOL     OW83820   3.085   1.822   1.914  0.1003  0.2160  0.1102
58902SOL    HW183821   3.134   1.818   1.997 -0.9374  0.2834  0.7498
58902SOL    HW283822   3.104   1.908   1.879  2.8059 -0.7829 -1.1898
58903SOL     OW83823  11.865   9.709   4.401 -0.1940 -0.2447 -0.5702
58903SOL    HW183824  11.808   9.756   4.341 -0.6866 -1.7328 -1.3093
58903SOL    HW283825  11.805   9.670   4.465  0.1147 -0.7648 -0.5998
58904SOL     OW83826   4.929  10.560   6.010 -0.2848 -0.1260 -0.8766
58904SOL    HW183827   4.883  10.485   5.972 -2.2831  0.0291  1.0091
58904SOL    HW283828   4.954  10.531   6.098  0.6618  0.8055 -0.8065
58905SOL     OW83829   1.119  11.749   5.270  0.0238  0.0662 -0.7682
58905SOL    HW183830   1.122  11.666   5.222  1.0778  0.3577 -1.2481
58905SOL    HW283831   1.059  11.803   5.220  1.1655  0.3898 -1.8550
58906SOL     OW83832   8.141   8.572   1.407 -0.1044  0.1130  0.1245
58906SOL    HW183833   8.160   8.661   1.377  0.6128  0.4559  1.5175
58906SOL    HW283834   8.195   8.561   1.485  1.1490 -2.1731 -0.9617
58907SOL     OW83835   7.341  11.129   1.628  0.3348 -0.2925  0.0891
58907SOL    HW183836   7.345  11.117   1.533  3.9869 -0.9448  0.1796
58907SOL    HW283837   7.388  11.054   1.664  0.7578  0.9223  2.2752
58908SOL     OW83838   3.990   9.499  10.098 -0.0557 -1.0929  0.5320
58908SOL    HW183839   3.987   9.556  10.020 -0.8741 -1.0682  0.5784
58908SOL    HW283840   4.045   9.548  10.160  0.9921 -1.3201 -0.1822
58909SOL     OW83841   2.458  10.269   0.948 -0.2483  0.6656  0.3139
58909SOL    HW183842   2.384  10.209   0.951  0.3984 -0.1456  0.8873
58909SOL    HW283843   2.514  10.234   0.879 -1.6404  2.8520 -2.0682
58910SOL     OW83844   3.683   2.908   1.178 -0.3483 -0.4492 -0.3856
58910SOL    HW183845   3.599   2.919   1.222  0.9874  3.2960  1.6877
58910SOL    HW283846   3.665   2.927   1.086 -1.6153  1.6294  0.2368
58911SOL     OW83847   5.469  11.880   4.680 -0.0730  0.0581  0.1469
58911SOL    HW183848   5.562  11.897   4.667 -0.4175  2.2179  0.2412
58911SOL    HW283849   5.425  11.961   4.654 -2.0231 -1.1841 -0.7172
58912SOL     OW83850   0.847  12.814   8.471 -0.1824 -0.5957  0.4647
58912SOL    HW183851   0.767  12.866   8.480  0.3019  0.1909  0.2873
58912SOL    HW283852   0.917  12.873   8.499  0.3711 -1.1881  0.3483
58913SOL     OW83853   6.890   9.891  10.781 -0.0343 -0.2787  0.1786
58913SOL    HW183854   6.901   9.954  10.710  1.1094 -0.5356  0.1138
58913SOL    HW283855   6.893   9.945  10.860 -0.8334 -0.0510  0.0624
58914SOL     OW83856   1.204   7.214   7.669  0.3373 -0.1317  0.3220
58914SOL    HW183857   1.168   7.243   7.585 -1.3264  2.4778  1.8001
58914SOL    HW283858   1.283   7.265   7.681  1.4048 -1.5719 -0.2342
58915SOL     OW83859  10.694   9.421  11.525  0.5227  0.1015 -0.4309
58915SOL    HW183860  10.602   9.446  11.520  0.3487 -0.6689 -1.4351
58915SOL    HW283861  10.742   9.498  11.493  0.3068  0.7793  0.7806
58916SOL     OW83862   6.734   0.264   1.945 -0.3107 -0.6227  0.1851
58916SOL    HW183863   6.748   0.249   2.039  0.5762  2.3194  0.6323
58916SOL    HW283864   6.745   0.359   1.935 -0.9071 -0.8000 -2.8308
58917SOL     OW83865   0.406  11.826   5.176  0.1026  0.7352 -0.3390
58917SOL    HW183866   0.478  11.880   5.209  1.0863 -0.0419 -1.1664
58917SOL    HW283867   0.345  11.819   5.250  0.9937  1.1924  0.4532
58918SOL     OW83868   1.709   9.831   4.872  0.6363 -0.2850  0.0470
58918SOL    HW183869   1.647   9.890   4.914 -0.8444 -0.8515 -1.2281
58918SOL    HW283870   1.714   9.755   4.930  1.4858  0.4787  1.0031
58919SOL     OW83871   7.587   4.394   4.466 -0.3813  0.0595 -0.1841
58919SOL    HW183872   7.633   4.477   4.465  0.8143 -0.5828 -0.6583
58919SOL    HW283873   7.526   4.401   4.539  0.7031  0.8160  0.6836
58920SOL     OW83874   2.901   8.143   8.116  0.2513  0.2070  0.1791
58920SOL    HW183875   2.870   8.232   8.104  0.3547  0.2133 -0.0417
58920SOL    HW283876   2.930   8.115   8.029 -0.1061 -0.1648  0.1754
58921SOL     OW83877   7.904   7.456   9.184  0.2740 -0.0480  0.2990
58921SOL    HW183878   7.829   7.516   9.186 -1.5605 -2.2455  1.2198
58921SOL    HW283879   7.883   7.389   9.249  1.1570 -2.9079 -2.1534
58922SOL     OW83880   5.904   3.171   6.533  0.7244 -0.0021 -0.4418
58922SOL    HW183881   5.899   3.172   6.438  0.1938 -0.3188 -0.4254
58922SOL    HW283882   5.985   3.125   6.553  0.4572 -0.6253 -0.7431
58923SOL     OW83883   3.256   1.052   1.186  0.2554  0.1261  0.6045
58923SOL    HW183884   3.247   0.982   1.121  2.0037  1.1108 -0.7898
58923SOL    HW283885   3.229   1.012   1.269 -0.6920 -1.5874 -0.4754
58924SOL     OW83886   4.334   1.585   6.143  0.0750 -0.4436 -0.0365
58924SOL    HW183887   4.287   1.663   6.172 -1.3880 -1.3867  0.2288
58924SOL    HW283888   4.295   1.513   6.193  3.1948 -1.0855  1.7369
58925SOL     OW83889   4.048  11.561   2.987 -0.7420 -0.7701 -0.0771
58925SOL    HW183890   3.963  11.527   3.014  0.1016 -2.5017  0.4989
58925SOL    HW283891   4.055  11.537   2.894 -0.8712 -0.5886 -0.1368
58926SOL     OW83892   5.986  12.889   4.389  0.2393 -0.0434  0.4143
58926SOL    HW183893   6.013  12.966   4.340  1.3253 -0.6159  0.0926
58926SOL    HW283894   5.913  12.920   4.443  0.3901  1.1005 -0.0066
58927SOL     OW83895   9.410   2.106   5.406  0.4256  0.2959  0.4742
58927SOL    HW183896   9.473   2.034   5.412 -0.7271 -0.7753  0.0677
58927SOL    HW283897   9.325   2.064   5.399 -0.1565  1.6530 -1.9037
58928SOL     OW83898   7.757   2.729   6.276  0.4281 -0.0761 -0.1977
58928SOL    HW183899   7.767   2.706   6.184  0.6464  0.3934 -0.2960
58928SOL    HW283900   7.662   2.725   6.292  0.3127  0.6193 -0.6568
58929SOL     OW83901   0.615   0.244   8.754 -0.2417  0.0923  0.3810
58929SOL    HW183902   0.629   0.339   8.750  0.6271 -0.0099  0.7310
58929SOL    HW283903   0.690   0.207   8.707 -1.6772 -0.3867 -1.6681
58930SOL     OW83904   0.337  11.547  12.488  0.2028 -0.3090 -0.1352
58930SOL    HW183905   0.389  11.539  12.408 -0.7461 -0.0851 -0.8023
58930SOL    HW283906   0.392  11.596  12.548  1.3100 -1.3026 -0.3028
58931SOL     OW83907   9.281   8.879  11.319 -0.4133 -0.2626  0.5516
58931SOL    HW183908   9.320   8.916  11.239 -2.1833 -0.9474 -0.7050
58931SOL    HW283909   9.215   8.944  11.344 -0.5439 -0.5230  0.8770
58932SOL     OW83910   9.004   0.917  12.576 -0.4384 -0.0147  0.2064
58932SOL    HW183911   8.946   0.846  12.604 -1.4171  1.2615  1.5584
58932SOL    HW283912   9.002   0.913  12.480 -1.6372 -0.8981  0.2491
58933SOL     OW83913   2.135   1.466   8.819  0.0303  0.0278  0.2160
58933SOL    HW183914   2.086   1.516   8.884  0.0625 -2.1026  2.0019
58933SOL    HW283915   2.194   1.411   8.870  1.2959 -0.5286 -1.7176
58934SOL     OW83916   7.325   7.312  12.721 -0.0083 -0.2087  0.3477
58934SOL    HW183917   7.417   7.289  12.705  0.8059  1.6371  1.9543
58934SOL    HW283918   7.276   7.266  12.653  2.2900  0.2399 -1.7249
58935SOL     OW83919   8.400   2.463   8.737 -0.0673  0.3343  0.6574
58935SOL    HW183920   8.358   2.431   8.657 -0.6906  1.5814  0.4470
58935SOL    HW283921   8.493   2.447   8.724 -0.0718  1.2672 -0.7079
58936SOL     OW83922   9.718   5.424   4.464  0.3454 -0.4804  0.6410
58936SOL    HW183923   9.624   5.408   4.474  0.0939  0.6443  0.1469
58936SOL    HW283924   9.738   5.394   4.375 -0.3672  2.7476 -0.7565
58937SOL     OW83925   9.168   9.573   9.669  0.5780 -0.1027  0.0015
58937SOL    HW183926   9.236   9.640   9.678  0.7861 -0.2359 -0.5278
58937SOL    HW283927   9.213   9.491   9.692  1.8340 -0.8419 -4.2244
58938SOL     OW83928   8.993  11.313   8.532 -0.0901  0.3067  0.2237
58938SOL    HW183929   9.070  11.255   8.532  1.4289  2.1259 -1.9686
58938SOL    HW283930   9.025  11.395   8.569 -1.0838  0.9429 -0.2957
58939SOL     OW83931   4.384   6.636   9.834 -0.0641  0.1244 -0.2466
58939SOL    HW183932   4.361   6.600   9.748 -1.1550 -0.4736  0.2731
58939SOL    HW283933   4.471   6.672   9.822  0.6755 -1.7895 -1.0712
58940SOL     OW83934   3.313  11.599  10.787 -0.2238  0.3474  0.0619
58940SOL    HW183935   3.307  11.515  10.832  1.2446 -0.0851 -0.4972
58940SOL    HW283936   3.353  11.658  10.850 -0.2506  0.3439  0.0823
58941SOL     OW83937   2.751   3.787   8.871 -0.8032  0.2170  0.2711
58941SOL    HW183938   2.744   3.712   8.930  1.0144  1.4181  2.1621
58941SOL    HW283939   2.660   3.810   8.850 -1.4085 -1.8554  0.4699
58942SOL     OW83940   0.955  12.333   2.422  0.0778  0.3314 -0.5079
58942SOL    HW183941   0.912  12.372   2.346 -1.2481  1.6395  0.8354
58942SOL    HW283942   1.021  12.397   2.448  0.5652 -0.1355 -0.5833
58943SOL     OW83943   7.441   9.999   4.738  0.1401  0.0440 -0.2213
58943SOL    HW183944   7.510   9.984   4.803  0.1560 -2.0032 -0.6337
58943SOL    HW283945   7.359   9.993   4.787  0.1894 -0.2388 -0.1724
58944SOL     OW83946   1.712   3.125   9.557  0.1737 -0.1058  0.2650
58944SOL    HW183947   1.781   3.061   9.570 -0.2245 -0.7033 -0.4973
58944SOL    HW283948   1.641   3.096   9.613 -0.9951 -1.8584 -1.9810
58945SOL     OW83949  10.022  11.679  12.066  0.5930  0.1188 -0.3017
58945SOL    HW183950  10.115  11.657  12.058  0.9300  0.8922  1.1511
58945SOL    HW283951   9.988  11.619  12.132  0.3662  0.6812  0.1018
58946SOL     OW83952   3.228   7.937   3.548 -0.3685 -0.1743 -0.4152
58946SOL    HW183953   3.221   7.963   3.639 -1.1189 -0.8931 -0.2629
58946SOL    HW283954   3.206   8.016   3.498 -0.4069  0.0914  0.0217
58947SOL     OW83955   1.367   5.128   5.521  0.2190  0.4149  0.1360
58947SOL    HW183956   1.453   5.140   5.560 -0.1185  0.9986  0.7238
58947SOL    HW283957   1.308   5.180   5.576 -0.9956 -2.1879  1.5120
58948SOL     OW83958   7.142   7.164  10.430  0.0737  0.2691 -0.6188
58948SOL    HW183959   7.153   7.084  10.380  2.6844 -0.3259  0.6993
58948SOL    HW283960   7.176   7.233  10.373  2.7987 -0.3677  0.0695
58949SOL     OW83961   8.530   4.985   6.592 -0.0135 -0.2022  0.4963
58949SOL    HW183962   8.544   4.966   6.684 -1.9848 -1.0330  0.6865
58949SOL    HW283963   8.438   5.012   6.587  0.3355  0.8304 -1.0838
58950SOL     OW83964   5.603   2.400   0.945 -0.0959 -0.1136 -0.3574
58950SOL    HW183965   5.527   2.452   0.972  0.3022  1.1760 -1.5869
58950SOL    HW283966   5.663   2.405   1.020 -1.0513 -0.8665  0.4930
58951SOL     OW83967   8.937   5.938  11.663  0.0757 -0.1360  0.1832
58951SOL    HW183968   8.892   5.946  11.747  0.9688 -0.1987  0.6717
58951SOL    HW283969   9.012   5.998  11.669 -0.0198  0.0900 -0.6831
58952SOL     OW83970  11.105   0.545  11.063 -0.1740 -1.1187  0.0282
58952SOL    HW183971  11.162   0.611  11.103  0.3782 -1.1157 -0.7478
58952SOL    HW283972  11.103   0.473  11.126  1.5388 -1.5654 -0.3862
58953SOL     OW83973   5.307   1.457   1.174  0.3766 -0.3541  1.3029
58953SOL    HW183974   5.241   1.391   1.153  0.7803 -0.8117  1.4555
58953SOL    HW283975   5.266   1.512   1.241 -1.2473  1.6317 -1.1733
58954SOL     OW83976  10.532  10.718   3.680  0.5698 -0.2877  0.3151
58954SOL    HW183977  10.557  10.638   3.725  2.6764 -1.5134 -2.6994
58954SOL    HW283978  10.462  10.691   3.620  0.7063  0.3340 -0.1370
58955SOL     OW83979   4.064   6.670  12.894  0.0873 -0.2066  0.2953
58955SOL    HW183980   3.991   6.730  12.880 -0.6008 -0.9709  0.5562
58955SOL    HW283981   4.086   6.680  12.987  1.2159  1.0031 -0.0648
58956SOL     OW83982   4.943   7.243  12.550  0.0007 -0.2507  0.6192
58956SOL    HW183983   4.920   7.178  12.483  1.8598  2.1849 -2.7365
58956SOL    HW283984   4.870   7.305  12.548  0.0015 -0.2390  0.9785
58957SOL     OW83985   1.856  11.210   1.485  0.2073 -0.0596  0.2753
58957SOL    HW183986   1.944  11.249   1.490 -0.3076  1.0452  1.0838
58957SOL    HW283987   1.809  11.268   1.425 -0.2992  0.0083  0.7404
58958SOL     OW83988   5.733  11.713  12.469 -0.1020 -0.3059  0.2688
58958SOL    HW183989   5.673  11.659  12.416 -0.7686 -0.0795  0.7742
58958SOL    HW283990   5.812  11.719  12.416 -0.1240 -1.5238  0.0570
58959SOL     OW83991   6.176   5.573  10.927 -0.2721  0.2135 -0.1804
58959SOL    HW183992   6.176   5.641  10.860  2.9860 -0.7258 -1.2931
58959SOL    HW283993   6.109   5.511  10.897 -0.5539  1.0036 -1.2480
58960SOL     OW83994  10.711   5.015   8.033 -0.3096 -0.2086 -0.4098
58960SOL    HW183995  10.628   4.967   8.042 -0.9295  1.1073  1.3437
58960SOL    HW283996  10.708   5.050   7.944 -2.2614  0.8872  0.0280
58961SOL     OW83997   3.780   2.087   7.710  0.0862  0.4180 -0.1306
58961SOL    HW183998   3.815   2.126   7.790  0.0789  0.7311 -0.2801
58961SOL    HW283999   3.690   2.120   7.704 -0.0821 -0.0067 -0.0001
58962SOL     OW84000   3.276   6.296  11.672  0.4330  0.3624  0.0897
58962SOL    HW184001   3.362   6.255  11.664 -0.1951 -0.9102 -0.5538
58962SOL    HW284002   3.218   6.223  11.695 -0.4376  1.2357  0.7326
58963SOL     OW84003   2.598   3.216   7.870 -0.6540 -0.1053 -0.0079
58963SOL    HW184004   2.634   3.188   7.954 -2.2528  2.3237  1.6327
58963SOL    HW284005   2.505   3.229   7.887 -1.0015  0.5660 -2.1287
58964SOL     OW84006   8.345   2.480   4.248 -0.3205  0.1808 -0.3807
58964SOL    HW184007   8.278   2.548   4.247 -1.6352 -1.0582  0.3045
58964SOL    HW284008   8.342   2.441   4.161 -0.8562 -0.1985 -0.1975
58965SOL     OW84009   4.131   6.061   0.717 -0.0423 -0.4024 -0.5293
58965SOL    HW184010   4.126   5.996   0.788  1.0801 -0.7046 -0.7086
58965SOL    HW284011   4.202   6.029   0.661  0.3546  0.8435 -0.7568
58966SOL     OW84012  11.701   1.206   2.824 -0.8027  0.0762  0.6042
58966SOL    HW184013  11.686   1.121   2.865 -1.0123  0.7543  1.9911
58966SOL    HW284014  11.620   1.255   2.836 -0.6953  0.4742 -0.1917
58967SOL     OW84015   5.145   9.344   4.731  0.1160 -0.4005  0.5836
58967SOL    HW184016   5.238   9.352   4.751  0.5004  0.5991 -1.2908
58967SOL    HW284017   5.143   9.301   4.646 -1.1082 -0.0809  0.4307
58968SOL     OW84018  12.251   8.303   6.034  0.4602 -0.1554  0.3433
58968SOL    HW184019  12.253   8.228   5.974  0.6655 -1.1573  1.5723
58968SOL    HW284020  12.244   8.264   6.121 -0.8015  1.2887  0.9348
58969SOL     OW84021   4.154   4.494   6.477  0.2025 -0.7340 -0.2259
58969SOL    HW184022   4.124   4.405   6.462 -1.1454 -0.2272 -0.6344
58969SOL    HW284023   4.231   4.502   6.420 -0.5588 -1.1673 -1.3555
58970SOL     OW84024   2.439   8.121  10.439 -0.2371 -0.1566 -0.0109
58970SOL    HW184025   2.485   8.053  10.488  0.4991  0.0965 -0.3419
58970SOL    HW284026   2.482   8.123  10.354 -0.9607 -0.0144 -0.3789
58971SOL     OW84027   2.324   9.680  11.470  0.2707 -0.6731  0.1397
58971SOL    HW184028   2.387   9.700  11.400 -0.0255 -0.1850  0.0101
58971SOL    HW284029   2.239   9.692  11.429  0.0370 -2.8937 -0.1549
58972SOL     OW84030   1.497   9.517   0.325 -0.6400 -0.1534  0.9178
58972SOL    HW184031   1.420   9.476   0.288  0.7386  0.0809 -2.5500
58972SOL    HW284032   1.569   9.458   0.304  0.6020  1.3279  0.8352
58973SOL     OW84033  11.714  10.523  10.633 -0.1481 -0.1081 -0.0211
58973SOL    HW184034  11.721  10.443  10.580  0.7105 -0.2566  0.3025
58973SOL    HW284035  11.640  10.506  10.692  1.0331 -1.3544  1.1677
58974SOL     OW84036  10.208  11.268   5.078  0.0765  0.1341  0.1284
58974SOL    HW184037  10.201  11.306   4.991 -1.6371  1.0161  0.6040
58974SOL    HW284038  10.225  11.342   5.136  0.3025 -0.3166  0.6540
58975SOL     OW84039  10.947  12.647   2.440  0.1824 -0.0500 -0.2831
58975SOL    HW184040  10.922  12.739   2.430 -0.5701 -0.2953 -0.8006
58975SOL    HW284041  10.866  12.604   2.470  0.7520 -0.4095  0.7933
58976SOL     OW84042  10.610  11.144   3.352 -0.3210 -0.5638  0.3271
58976SOL    HW184043  10.523  11.131   3.313  0.0746 -1.3327 -0.3321
58976SOL    HW284044  10.598  11.127   3.445 -0.9088 -0.5374  0.2580
58977SOL     OW84045  12.572   6.500   8.805  0.0039 -0.3025 -0.3723
58977SOL    HW184046  12.621   6.418   8.804 -1.4037 -1.1787 -0.1333
58977SOL    HW284047  12.490   6.478   8.848 -0.4488  1.2198 -0.4060
58978SOL     OW84048  10.984   7.939   7.360  0.1494 -0.4190  0.0869
58978SOL    HW184049  10.916   7.876   7.336  0.4199 -0.9539  0.6699
58978SOL    HW284050  10.959   7.967   7.448  0.7749 -0.7561  0.3750
58979SOL     OW84051   1.213   4.845  11.899  0.5050 -0.2342  0.1180
58979SOL    HW184052   1.288   4.817  11.847  1.3217 -0.1582  1.2154
58979SOL    HW284053   1.149   4.876  11.835  1.6187  0.1982 -0.8108
58980SOL     OW84054   2.571  12.625   8.637 -0.4882 -0.0989 -0.4054
58980SOL    HW184055   2.590  12.651   8.547  0.2935  1.0889  0.0839
58980SOL    HW284056   2.486  12.665   8.656  0.5795  1.9579  0.2498
58981SOL     OW84057   7.416   7.966   2.314 -0.0295 -0.5234  0.0760
58981SOL    HW184058   7.348   7.954   2.380  1.1418 -0.4568  1.3497
58981SOL    HW284059   7.477   8.027   2.355  0.6084 -0.2868 -1.1894
58982SOL     OW84060   8.943   7.907   7.220  0.2979  0.4718  0.4688
58982SOL    HW184061   8.963   7.962   7.144 -1.1447  0.0820 -0.2212
58982SOL    HW284062   8.917   7.968   7.289 -2.8446  0.6748 -0.7614
58983SOL     OW84063   4.651   7.811   9.981 -0.4255  0.1863  0.5249
58983SOL    HW184064   4.578   7.868   9.955 -1.2923 -0.3731  1.6393
58983SOL    HW284065   4.726   7.870   9.990  0.0178  0.4451 -3.2288
58984SOL     OW84066   9.428  10.081   2.194  0.7112  0.1589 -0.5177
58984SOL    HW184067   9.425  10.113   2.104  0.2250 -0.1346 -0.6059
58984SOL    HW284068   9.430   9.986   2.186  0.2064  0.1202 -0.2078
58985SOL     OW84069   0.660   5.205   6.628  0.6187 -0.6703 -0.9907
58985SOL    HW184070   0.587   5.145   6.617  1.0146 -1.3974  0.1334
58985SOL    HW284071   0.717   5.188   6.553 -0.9763  0.8860 -2.6468
58986SOL     OW84072   4.764  12.835   5.459  0.0099 -0.1061  0.0257
58986SOL    HW184073   4.851  12.866   5.483  0.0368 -0.7923  0.8766
58986SOL    HW284074   4.713  12.841   5.540 -0.9840  1.0958 -0.6740
58987SOL     OW84075   9.609   3.901   6.164 -0.5067 -0.2251  0.2823
58987SOL    HW184076   9.591   3.975   6.222 -1.6739  0.7995 -1.2818
58987SOL    HW284077   9.689   3.925   6.118 -1.2021  0.4055 -0.6546
58988SOL     OW84078   2.646  10.594   6.388 -0.2494  0.4656  0.2804
58988SOL    HW184079   2.715  10.650   6.354  0.5836 -1.2939 -1.1075
58988SOL    HW284080   2.570  10.651   6.398  1.8910  3.0611  4.1626
58989SOL     OW84081   3.444   7.668  12.451  0.0863 -0.0339 -0.1995
58989SOL    HW184082   3.515   7.714  12.407  1.8960 -2.9888 -0.5936
58989SOL    HW284083   3.422   7.596  12.393 -0.9632 -1.1171  1.4471
58990SOL     OW84084   8.442  12.078   2.239  0.4170 -0.0575  0.4276
58990SOL    HW184085   8.395  12.161   2.237  0.1320 -0.1939  1.0994
58990SOL    HW284086   8.413  12.031   2.161 -1.8798 -0.8406  1.6664
58991SOL     OW84087   4.177   1.707   0.935  0.3770 -0.7012  0.3188
58991SOL    HW184088   4.147   1.759   0.861 -2.0522 -2.0284  0.2703
58991SOL    HW284089   4.145   1.618   0.916 -0.3967 -1.0670  2.9744
58992SOL     OW84090   2.766  12.052  10.357 -0.0105  0.1877  0.6855
58992SOL    HW184091   2.836  12.101  10.314  0.4012 -1.0139 -0.0760
58992SOL    HW284092   2.747  11.980  10.297  0.1304 -1.1714  2.1953
58993SOL     OW84093   4.832   5.344  10.882  0.5689 -0.0058  0.6288
58993SOL    HW184094   4.819   5.413  10.818 -0.2475 -1.2136 -0.5729
58993SOL    HW284095   4.755   5.347  10.938  0.6130  0.1547  0.6809
58994SOL     OW84096  11.362   0.577   8.548  0.0322  0.1750  0.4362
58994SOL    HW184097  11.378   0.503   8.606 -0.2657  0.9946  1.6018
58994SOL    HW284098  11.328   0.538   8.467  0.1915 -0.9666  0.9045
58995SOL     OW84099   9.032   4.925   4.719 -0.7850 -1.0568 -0.2631
58995SOL    HW184100   8.974   4.873   4.775  0.5883 -2.4690 -0.0693
58995SOL    HW284101   8.989   4.926   4.634 -2.9179  1.1327  0.7311
58996SOL     OW84102   2.450  12.724  11.234  0.8436  0.0005 -0.0087
58996SOL    HW184103   2.509  12.667  11.186  0.2760  0.5483 -1.4052
58996SOL    HW284104   2.507  12.782  11.285  1.4958 -0.0101 -0.7136
58997SOL     OW84105   9.276   9.811   1.774  0.1755 -0.1477 -0.0999
58997SOL    HW184106   9.202   9.784   1.828  0.2214  1.8280  1.0323
58997SOL    HW284107   9.238   9.830   1.688 -0.4186 -0.3460  0.1170
58998SOL     OW84108  12.119   4.351   6.028  0.6041 -0.2779  0.2284
58998SOL    HW184109  12.196   4.300   6.053 -0.3316 -1.6143  0.4915
58998SOL    HW284110  12.086   4.386   6.110 -0.0655 -1.1880  0.3645
58999SOL     OW84111   3.956   9.210   2.699  0.0305  0.1777 -0.3696
58999SOL    HW184112   3.947   9.304   2.686  0.1913  0.0962 -1.1699
58999SOL    HW284113   3.901   9.171   2.631 -2.2852 -0.3309  1.6565
59000SOL     OW84114   1.589   2.429   1.246 -0.8864  0.3045  0.2728
59000SOL    HW184115   1.632   2.464   1.324  0.2016  0.5946 -0.4182
59000SOL    HW284116   1.517   2.376   1.279  0.8890 -1.4437  1.5931
59001SOL     OW84117   1.592   8.216   8.411 -0.1955  0.2552 -0.1600
59001SOL    HW184118   1.541   8.295   8.392 -0.8960 -0.1323  0.0826
59001SOL    HW284119   1.577   8.199   8.503 -0.8289 -0.7101 -0.4361
59002SOL     OW84120  12.039   0.716  10.534  0.4768 -0.8588  0.4359
59002SOL    HW184121  12.014   0.682  10.449 -0.1061  0.7893 -0.0852
59002SOL    HW284122  11.976   0.677  10.595  0.3425 -1.3578 -0.0204
59003SOL     OW84123   6.162   4.604   8.501  0.5467 -0.4065 -0.4018
59003SOL    HW184124   6.082   4.643   8.465  0.8605 -0.0912 -0.7739
59003SOL    HW284125   6.153   4.510   8.484 -2.1714 -1.2693  4.1590
59004SOL     OW84126   2.829   2.434   6.234  0.0974 -0.0497 -0.2044
59004SOL    HW184127   2.921   2.448   6.210  0.1558  1.5841  0.8724
59004SOL    HW284128   2.788   2.403   6.154  1.0102  1.8959 -1.4953
59005SOL     OW84129   5.594   2.785  10.847 -0.3315 -0.0824 -0.7008
59005SOL    HW184130   5.529   2.856  10.845 -0.2992  0.0786  1.3294
59005SOL    HW284131   5.556   2.720  10.906  1.2861 -0.0147  0.4869
59006SOL     OW84132   4.249  10.038   4.758 -0.2291  0.1562  0.1258
59006SOL    HW184133   4.227   9.946   4.773  0.3311  0.2621  1.7484
59006SOL    HW284134   4.340  10.046   4.785  0.1605  0.9009 -1.3416
59007SOL     OW84135   2.631   3.616   3.007 -0.5059 -0.8925 -0.4611
59007SOL    HW184136   2.648   3.648   2.918  0.4177 -1.4796 -0.5140
59007SOL    HW284137   2.698   3.549   3.022  0.6472  0.5676  1.4061
59008SOL     OW84138   0.730   4.660   0.533  0.1248 -0.1514 -0.0530
59008SOL    HW184139   0.761   4.675   0.622 -0.7538 -2.6355  0.7582
59008SOL    HW284140   0.697   4.570   0.534 -1.4471  0.3050 -2.4499
59009SOL     OW84141   1.375   6.081  10.059  0.1087  0.1459  0.3097
59009SOL    HW184142   1.331   6.143  10.118 -0.1172  1.1305 -0.8636
59009SOL    HW284143   1.327   5.999  10.071 -0.0833  0.3871  1.3109
59010SOL     OW84144   0.871   3.274   5.837 -0.0301  0.2927  0.0262
59010SOL    HW184145   0.925   3.304   5.910 -0.8608  2.2234 -0.0961
59010SOL    HW284146   0.817   3.350   5.813 -1.0056 -0.7995 -1.4852
59011SOL     OW84147   4.579   2.353   1.720  0.4074 -0.1375 -0.4705
59011SOL    HW184148   4.594   2.419   1.653  2.8923 -0.1281 -0.0088
59011SOL    HW284149   4.547   2.276   1.671  0.3338  0.4654 -1.3969
59012SOL     OW84150   5.525   2.153   5.862  0.4466  0.2059  0.1068
59012SOL    HW184151   5.510   2.244   5.888 -0.3272  0.6423 -1.7370
59012SOL    HW284152   5.613   2.153   5.824  0.4744  0.1596  0.1700
59013SOL     OW84153   7.619   4.350   4.060  0.5824  0.0667  0.1243
59013SOL    HW184154   7.662   4.384   3.982  1.7622  0.3146  0.8562
59013SOL    HW284155   7.690   4.326   4.119 -0.2757  0.1091  1.2255
59014SOL     OW84156   2.675  10.309  12.264 -0.3785 -0.0296  0.0431
59014SOL    HW184157   2.771  10.314  12.264 -0.4024  0.7124  1.0008
59014SOL    HW284158   2.647  10.399  12.246 -0.8981 -0.0056  0.9608
59015SOL     OW84159   1.188   2.825   3.868  0.3211 -0.1392 -0.3635
59015SOL    HW184160   1.181   2.792   3.778 -2.0413 -3.4057  0.8277
59015SOL    HW284161   1.267   2.783   3.903 -0.8232 -1.9811  0.1269
59016SOL     OW84162   4.232   7.834  10.013  0.5979 -0.3139 -0.1034
59016SOL    HW184163   4.298   7.900  10.033 -0.0345  1.1118 -2.4448
59016SOL    HW284164   4.278   7.769   9.959  0.3589  0.1273 -0.8463
59017SOL     OW84165   3.515   7.908  12.535  0.4662  0.1720  0.1658
59017SOL    HW184166   3.457   7.833  12.550  1.3782 -0.6861 -0.4167
59017SOL    HW284167   3.598   7.882  12.575  1.0217  0.5370 -0.7269
59018SOL     OW84168   3.427  11.087   0.911 -0.1523 -0.1210  0.7764
59018SOL    HW184169   3.385  11.173   0.919 -0.8729 -0.3759 -0.1247
59018SOL    HW284170   3.482  11.094   0.833 -2.2504 -1.2537 -0.9162
59019SOL     OW84171   9.007  12.371   0.066  0.6152  0.0907 -0.0898
59019SOL    HW184172   8.960  12.430   0.007 -0.3352  0.0335  0.5919
59019SOL    HW284173   9.081  12.423   0.099  0.3286  0.5861 -0.2264
59020SOL     OW84174   7.598  11.861   2.088 -0.1287 -0.0152  0.6055
59020SOL    HW184175   7.523  11.837   2.034 -0.6614  1.3506  0.6961
59020SOL    HW284176   7.671  11.811   2.052 -0.4562  0.8597 -1.4060
59021SOL     OW84177  10.142   0.186   9.711 -0.4430  0.8004 -0.3318
59021SOL    HW184178  10.178   0.178   9.623  0.8218  1.3736  0.1038
59021SOL    HW284179  10.216   0.166   9.769 -0.8692  1.8123  0.6034
59022SOL     OW84180   0.359   1.437  12.537  0.3841 -0.0831  0.5757
59022SOL    HW184181   0.319   1.355  12.507 -0.1322  0.0282  0.9361
59022SOL    HW284182   0.443   1.410  12.573  0.0635 -0.5170  1.0264
59023SOL     OW84183   9.076  12.107   9.962 -0.0321 -0.0822  0.5559
59023SOL    HW184184   9.159  12.153   9.970 -0.9099  1.3883  2.1086
59023SOL    HW284185   9.065  12.062  10.046  0.4733 -2.6795 -0.6804
59024SOL     OW84186   3.219   4.139  12.132 -0.0900 -0.2662  0.1441
59024SOL    HW184187   3.307   4.165  12.102 -0.2796  1.4542  0.9669
59024SOL    HW284188   3.159   4.192  12.079 -0.5211  0.4429  1.3057
59025SOL     OW84189   9.831   2.465   3.281  0.1461 -0.0390 -0.1837
59025SOL    HW184190   9.784   2.444   3.362  1.4108 -3.5582 -0.2106
59025SOL    HW284191   9.905   2.518   3.309  1.5168 -2.5687  1.3585
59026SOL     OW84192   0.981   1.244  12.042  0.7709  0.2834 -0.4127
59026SOL    HW184193   0.999   1.310  12.109 -0.2443 -1.2672  1.4905
59026SOL    HW284194   1.016   1.163  12.078 -0.5894 -0.7666 -1.3586
59027SOL     OW84195   0.593   4.809   9.484 -0.9722 -0.8819 -0.4021
59027SOL    HW184196   0.592   4.718   9.515 -1.5486 -0.8864 -0.4240
59027SOL    HW284197   0.546   4.807   9.401  0.0044 -0.7541 -0.9716
59028SOL     OW84198  12.550   3.730   4.503 -0.2436  0.1699  0.1665
59028SOL    HW184199  12.532   3.706   4.594  2.9882  0.5007  1.0037
59028SOL    HW284200  12.499   3.668   4.452  0.2893 -2.1543  2.2374
59029SOL     OW84201   2.472   9.263   4.917  0.3244 -0.3323 -0.1527
59029SOL    HW184202   2.552   9.310   4.942  0.8609 -1.8519  1.1141
59029SOL    HW284203   2.402   9.327   4.930  1.0598  0.2146  1.2959
59030SOL     OW84204   8.040   9.675   0.126 -0.5904 -0.2460  0.3558
59030SOL    HW184205   7.999   9.603   0.079 -0.3261  0.1719 -0.5306
59030SOL    HW284206   8.025   9.655   0.219 -2.6067 -0.2182  0.0694
59031SOL     OW84207   7.157   0.417   7.261  0.3702  0.7087  0.1250
59031SOL    HW184208   7.116   0.404   7.347  1.2890 -1.0292  0.3480
59031SOL    HW284209   7.238   0.464   7.280  0.9767 -0.3914  0.3421
59032SOL     OW84210   4.425   4.645   7.753  0.1797  0.0002 -0.5883
59032SOL    HW184211   4.377   4.708   7.807 -0.4083  0.0326 -1.1279
59032SOL    HW284212   4.514   4.646   7.787 -0.1957 -0.0396  0.4246
59033SOL     OW84213   2.654  10.136  10.438  0.1583 -0.1389  0.0470
59033SOL    HW184214   2.732  10.178  10.401 -0.6459 -0.0329 -1.6199
59033SOL    HW284215   2.651  10.166  10.529  2.8695 -1.3141  0.6468
59034SOL     OW84216   5.377   2.979   9.451 -0.4013 -0.0456 -0.5749
59034SOL    HW184217   5.378   3.018   9.364 -0.5109  1.1552 -0.0564
59034SOL    HW284218   5.461   3.003   9.490 -1.8070  2.7800  1.0271
59035SOL     OW84219   2.673   1.934   7.066 -0.3171 -0.1119 -0.4400
59035SOL    HW184220   2.696   1.984   6.987 -0.9577  0.5415 -0.2293
59035SOL    HW284221   2.589   1.972   7.094 -0.0571 -0.2913  0.6016
59036SOL     OW84222  11.015   6.641   7.240  0.0471 -0.4835 -0.5161
59036SOL    HW184223  11.068   6.720   7.247  0.0873 -0.4887 -0.7359
59036SOL    HW284224  10.991   6.620   7.330  2.4983 -1.9161 -0.1057
59037SOL     OW84225   8.643   4.550  11.782  0.0900 -0.6312  1.0822
59037SOL    HW184226   8.677   4.601  11.856 -1.6176  2.3331 -0.0137
59037SOL    HW284227   8.682   4.590  11.705  0.2014 -2.3227  0.2075
59038SOL     OW84228  10.517  11.305  11.884 -0.1176  0.2633 -0.3169
59038SOL    HW184229  10.432  11.280  11.849 -0.8431  2.5982 -0.4143
59038SOL    HW284230  10.580  11.286  11.814 -1.1376  2.1109 -1.8305
59039SOL     OW84231   1.114   3.147  12.524 -0.0766  0.3657  0.0102
59039SOL    HW184232   1.039   3.148  12.465 -0.1009  0.4757  0.0420
59039SOL    HW284233   1.076   3.147  12.612 -0.0420 -0.1659  0.0267
59040SOL     OW84234   4.577   8.273   3.653 -0.4399 -0.0539 -0.0955
59040SOL    HW184235   4.554   8.323   3.731  0.6586 -0.2082  0.3507
59040SOL    HW284236   4.606   8.188   3.686 -0.9009 -0.4709 -0.7451
59041SOL     OW84237   7.478   2.284   0.945 -0.0307 -0.1715  0.2614
59041SOL    HW184238   7.386   2.295   0.969 -0.0732  0.4457 -0.1623
59041SOL    HW284239   7.476   2.245   0.858  0.0970  0.4771 -0.0395
59042SOL     OW84240   2.338   2.981   5.754 -0.0576  0.9439  0.4729
59042SOL    HW184241   2.414   3.031   5.724 -0.8722  1.4648 -0.7971
59042SOL    HW284242   2.321   3.013   5.843  1.8904 -0.0086  1.2539
59043SOL     OW84243   3.529  10.034   0.373 -0.1947  0.0847  0.0121
59043SOL    HW184244   3.453   9.985   0.406  0.1960 -1.5478 -1.4007
59043SOL    HW284245   3.558   9.984   0.297  2.2651  0.7334  0.4675
59044SOL     OW84246   3.670  11.770  10.223  0.0508 -0.2346 -0.4423
59044SOL    HW184247   3.636  11.826  10.153 -1.2018 -1.9506 -1.3057
59044SOL    HW284248   3.755  11.741  10.190  0.7603  1.1854  0.0615
59045SOL     OW84249  11.629  10.296  11.040  0.2457  0.2131  0.0317
59045SOL    HW184250  11.708  10.292  11.094 -0.7119 -0.1786  1.4724
59045SOL    HW284251  11.639  10.375  10.987  1.5139  0.2610  0.3152
59046SOL     OW84252  11.206  10.172   0.556 -0.6175  0.0542 -0.6954
59046SOL    HW184253  11.242  10.113   0.621 -1.1971 -0.7525 -1.0940
59046SOL    HW284254  11.190  10.254   0.604  1.7250  0.4648 -0.5233
59047SOL     OW84255   0.070   4.668   4.643 -0.4135 -0.5665  0.3593
59047SOL    HW184256   0.129   4.730   4.686  0.1301  0.7288 -2.0588
59047SOL    HW284257  -0.004   4.721   4.614 -0.0226 -1.0111 -1.6150
59048SOL     OW84258  11.865   5.855   4.889  0.3018  0.2386  0.6504
59048SOL    HW184259  11.793   5.813   4.841  0.5296  0.6631 -0.0924
59048SOL    HW284260  11.918   5.783   4.920 -0.3977 -0.0791  1.1350
59049SOL     OW84261   8.372   2.456  10.325  0.8066  0.3847 -0.0996
59049SOL    HW184262   8.307   2.386  10.317 -0.1394  1.4241 -2.5230
59049SOL    HW284263   8.371   2.480  10.418  0.6773 -2.3001  0.6622
59050SOL     OW84264  11.430   8.544   5.966  0.2412  0.0781 -0.1495
59050SOL    HW184265  11.375   8.611   5.926  1.0401  2.2375  2.1220
59050SOL    HW284266  11.375   8.466   5.967 -1.7775  1.4213 -0.3937
59051SOL     OW84267   1.123   5.391   0.647  0.7639 -0.1342 -0.0990
59051SOL    HW184268   1.188   5.460   0.655  0.4252  0.0601  1.1931
59051SOL    HW284269   1.126   5.345   0.731 -1.9276  0.9394  0.6760
59052SOL     OW84270   6.650   5.326   1.638 -0.0884  0.2779  0.4169
59052SOL    HW184271   6.664   5.324   1.733 -1.7797  3.0628  0.8504
59052SOL    HW284272   6.596   5.249   1.620  1.3683 -1.0419  1.4326
59053SOL     OW84273   8.799   9.406  11.417  0.1556 -0.2631  0.0608
59053SOL    HW184274   8.719   9.412  11.366 -0.2859 -4.7379 -0.1487
59053SOL    HW284275   8.771   9.381  11.505  1.1369 -3.2238 -0.3244
59054SOL     OW84276   4.592  10.253   3.061  0.5523  0.0633 -0.7164
59054SOL    HW184277   4.600  10.345   3.037 -0.3033  0.4233  0.2925
59054SOL    HW284278   4.502  10.244   3.094  0.8548 -0.9565 -0.1077
59055SOL     OW84279   2.670   8.801   7.150  0.0021 -0.2561 -0.1025
59055SOL    HW184280   2.716   8.819   7.068 -0.8645 -1.0683 -0.8093
59055SOL    HW284281   2.717   8.727   7.189  0.3441  0.0539  0.0746
59056SOL     OW84282   6.961   8.459   2.421 -0.3197 -0.1514 -0.5537
59056SOL    HW184283   6.882   8.454   2.476 -0.5582 -0.3112 -0.9038
59056SOL    HW284284   7.021   8.515   2.469 -0.2365 -0.8873  0.2290
59057SOL     OW84285   3.858  10.948   5.487 -0.3860  0.3947  0.1512
59057SOL    HW184286   3.950  10.929   5.470 -0.3058  1.0953 -0.2430
59057SOL    HW284287   3.849  10.938   5.582  0.2266  0.8393  0.2643
59058SOL     OW84288   7.840   5.422   0.309  0.6995  0.2431  0.3482
59058SOL    HW184289   7.829   5.346   0.368 -2.7575 -0.7575 -1.3066
59058SOL    HW284290   7.791   5.492   0.352 -2.8937 -0.8257 -1.6184
59059SOL     OW84291   0.200   9.795   5.092 -0.3974 -0.1961  0.3462
59059SOL    HW184292   0.183   9.753   5.007  1.1835 -1.3235  0.5371
59059SOL    HW284293   0.114   9.801   5.134 -0.8097 -2.5051 -0.0540
59060SOL     OW84294  11.301  12.492   1.883  0.1441  0.0685 -0.1434
59060SOL    HW184295  11.206  12.491   1.894 -0.1275 -0.8242 -2.2249
59060SOL    HW284296  11.322  12.585   1.874 -0.5249  0.2658  0.2064
59061SOL     OW84297  11.527   3.025   9.307  0.1530  0.3313 -0.1431
59061SOL    HW184298  11.496   3.107   9.268 -1.9589 -0.3548 -0.0210
59061SOL    HW284299  11.462   3.004   9.374  0.6322 -1.4692 -0.1940
59062SOL     OW84300  12.619   4.306  12.255 -0.1190 -0.4025  0.2396
59062SOL    HW184301  12.558   4.347  12.317  0.4452  0.1773  0.4211
59062SOL    HW284302  12.589   4.215  12.249 -1.0257 -0.1198  0.2933
59063SOL     OW84303   1.719   0.027   1.119  0.6110 -0.3314 -0.3406
59063SOL    HW184304   1.697   0.116   1.093  2.4437 -0.4441 -2.6241
59063SOL    HW284305   1.727   0.031   1.214 -0.9547  1.5137 -0.2297
59064SOL     OW84306  11.613   3.329  11.430 -0.4759  0.0668 -0.5036
59064SOL    HW184307  11.595   3.301  11.340 -2.0228  0.5195 -0.3714
59064SOL    HW284308  11.561   3.409  11.440 -3.6808 -2.0857  2.0124
59065SOL     OW84309   8.253   1.035   2.079 -0.2625 -0.4190  0.4848
59065SOL    HW184310   8.302   1.050   2.160  1.1062 -1.2709 -0.1532
59065SOL    HW284311   8.163   1.062   2.100 -0.0784 -1.1715  2.4671
59066SOL     OW84312  11.907  10.419  12.331 -0.0197 -0.3057 -0.2588
59066SOL    HW184313  11.925  10.496  12.386 -1.0545 -0.8699  0.9090
59066SOL    HW284314  11.829  10.443  12.282 -2.5771 -1.8011  2.7180
59067SOL     OW84315   0.359   7.987   2.457 -0.2986  0.1760 -0.0036
59067SOL    HW184316   0.292   8.011   2.522 -0.7591 -0.6837 -0.1451
59067SOL    HW284317   0.315   7.925   2.399  0.4919 -0.0517 -0.3748
59068SOL     OW84318   7.270   5.399   5.581 -0.1180  0.2526  0.0989
59068SOL    HW184319   7.326   5.367   5.652 -1.2124  0.0959  0.9237
59068SOL    HW284320   7.227   5.321   5.547  1.8946  0.0115 -2.1650
59069SOL     OW84321  12.740   8.510   6.192  0.1578 -0.1215 -0.0045
59069SOL    HW184322  12.696   8.461   6.123  0.6142 -0.2436 -0.2114
59069SOL    HW284323  12.670   8.557   6.237 -0.2351 -0.6813 -0.0337
59070SOL     OW84324  12.129   1.865   9.603 -0.3462  0.4810 -0.3668
59070SOL    HW184325  12.176   1.942   9.636  0.0006  0.2777 -0.3769
59070SOL    HW284326  12.165   1.852   9.515  0.1827 -0.1674 -0.0640
59071SOL     OW84327   3.195   0.025   4.847 -0.1936  0.0262  0.4198
59071SOL    HW184328   3.217  -0.063   4.877 -0.4634 -0.0874  0.2975
59071SOL    HW284329   3.176   0.074   4.927 -1.8306 -0.5285  0.4117
59072SOL     OW84330   1.480   8.160   4.285  0.1524 -0.1646 -0.3850
59072SOL    HW184331   1.395   8.203   4.280 -0.0524 -0.4715  0.3655
59072SOL    HW284332   1.527   8.190   4.207 -0.8649 -0.4666 -1.1320
59073SOL     OW84333   8.458   7.649   2.789 -0.5223 -0.5026  0.3074
59073SOL    HW184334   8.458   7.744   2.776 -2.4046 -0.2498  1.6855
59073SOL    HW284335   8.483   7.613   2.704  0.6188  1.2256 -0.1348
59074SOL     OW84336   6.975   5.338   9.598  0.1489  0.2476 -0.5504
59074SOL    HW184337   6.990   5.272   9.530 -0.4987 -2.7800  2.0264
59074SOL    HW284338   7.062   5.356   9.634  0.4509  1.6234 -1.8662
59075SOL     OW84339   6.561   9.874   3.468 -0.2563 -0.0979  0.2329
59075SOL    HW184340   6.559   9.798   3.410 -1.1923 -0.3829  0.6102
59075SOL    HW284341   6.477   9.870   3.514  0.0943  0.6248  0.9495
59076SOL     OW84342   2.958   5.537   3.812 -1.0542 -0.4508  0.3005
59076SOL    HW184343   2.964   5.443   3.799 -2.4099 -0.4793 -0.2995
59076SOL    HW284344   2.910   5.547   3.895  0.0643 -0.2679  0.9501
59077SOL     OW84345   2.005   5.149   9.931  0.0263  0.1691  0.1071
59077SOL    HW184346   2.018   5.056   9.912 -2.9687  0.0297 -2.1424
59077SOL    HW284347   1.976   5.152  10.022  1.6391 -0.8705  0.6896
59078SOL     OW84348   8.620   4.836   8.075  0.1550  0.0673  0.3952
59078SOL    HW184349   8.578   4.838   8.161 -1.7415  0.1071 -0.4796
59078SOL    HW284350   8.615   4.926   8.044 -1.5435 -0.3765 -0.7824
59079SOL     OW84351  11.313  10.462   1.585  0.1994  0.0247 -0.0445
59079SOL    HW184352  11.388  10.500   1.631  0.1994 -0.5677  0.4647
59079SOL    HW284353  11.244  10.527   1.593  0.5109  0.3615 -0.0778
59080SOL     OW84354   0.252   0.530   3.909  0.7424  0.0353  0.1689
59080SOL    HW184355   0.188   0.483   3.962 -0.1203  0.8434 -0.1250
59080SOL    HW284356   0.204   0.554   3.829  1.6632 -0.0909 -0.4413
59081SOL     OW84357   5.260  11.114   2.021 -0.0467  0.0760 -0.4438
59081SOL    HW184358   5.266  11.045   1.955 -1.0769 -1.5111  1.0344
59081SOL    HW284359   5.166  11.119   2.041  0.0537  1.6688 -0.2305
59082SOL     OW84360  10.148   0.950   3.007  0.4045  0.3537 -0.2583
59082SOL    HW184361  10.158   0.997   3.090  2.6209  1.1304 -0.8911
59082SOL    HW284362  10.203   0.998   2.946 -0.3265 -0.8503 -1.9260
59083SOL     OW84363   0.684   7.537  11.442  0.1929  0.1649 -0.6444
59083SOL    HW184364   0.677   7.603  11.373  0.5979 -0.2644 -1.1016
59083SOL    HW284365   0.594   7.523  11.472  0.2902  2.5416  1.0049
59084SOL     OW84366   0.885   2.111  10.436 -0.4069  0.2931 -0.5186
59084SOL    HW184367   0.892   2.030  10.386 -1.4480  0.5939 -1.2106
59084SOL    HW284368   0.973   2.128  10.469  0.0881 -0.4681 -1.4065
59085SOL     OW84369  11.837  11.557   5.194  0.1217  0.3183  0.2247
59085SOL    HW184370  11.889  11.607   5.258  1.8059  0.5444 -1.2230
59085SOL    HW284371  11.849  11.466   5.220  1.3564  0.3600 -0.1036
59086SOL     OW84372   2.741   8.817   4.945 -0.2569  0.0907  0.2035
59086SOL    HW184373   2.678   8.746   4.958 -1.6155  1.0818 -0.6090
59086SOL    HW284374   2.785   8.827   5.029 -1.3194 -0.5295  0.8506
59087SOL     OW84375   1.565   2.414   8.512  0.0339 -0.2845  0.8328
59087SOL    HW184376   1.521   2.335   8.544 -0.2396 -0.8067 -0.7591
59087SOL    HW284377   1.503   2.485   8.530 -0.7138 -0.7640  0.1895
59088SOL     OW84378  12.390   5.942   8.438  0.3207  0.4363 -0.1724
59088SOL    HW184379  12.465   6.002   8.445 -0.3193  1.2801 -0.4538
59088SOL    HW284380  12.401   5.901   8.353 -0.1601  1.4290 -0.7286
59089SOL     OW84381   8.427   8.752   2.720 -0.2805  0.0956  0.1875
59089SOL    HW184382   8.376   8.720   2.645 -1.5453  0.6720  0.7748
59089SOL    HW284383   8.511   8.778   2.682 -0.7881  0.0920 -0.9838
59090SOL     OW84384   0.915   5.286  11.624 -0.5338  0.5035 -0.2492
59090SOL    HW184385   0.959   5.239  11.553 -0.4372 -0.1421  0.2232
59090SOL    HW284386   0.882   5.216  11.682 -0.6741  1.0123  0.2935
59091SOL     OW84387   1.132   8.833   0.296  0.0101 -0.3958 -0.4615
59091SOL    HW184388   1.153   8.769   0.228 -0.4815 -0.4299 -0.5847
59091SOL    HW284389   1.089   8.782   0.364 -1.5711 -0.0093 -1.1247
59092SOL     OW84390   1.266   7.725   2.079  0.0560  0.3077  0.0329
59092SOL    HW184391   1.255   7.750   2.171 -0.2568  0.7839 -0.1321
59092SOL    HW284392   1.188   7.760   2.035 -0.0397 -0.3451 -0.3294
59093SOL     OW84393   4.714   2.780   9.090  0.4321 -0.2629 -0.3832
59093SOL    HW184394   4.644   2.720   9.117  1.2047 -0.7809  0.5431
59093SOL    HW284395   4.668   2.858   9.059 -0.5655 -0.6702  0.0120
59094SOL     OW84396   0.678   5.082   9.450  0.6806 -0.2934 -0.6120
59094SOL    HW184397   0.644   4.994   9.465 -1.1774  0.1812 -1.7670
59094SOL    HW284398   0.684   5.089   9.355  2.9059  0.1115 -0.4960
59095SOL     OW84399   9.563   2.286   7.507  0.3862  0.4663  0.1076
59095SOL    HW184400   9.608   2.250   7.431 -0.8699  2.7806 -1.8604
59095SOL    HW284401   9.609   2.367   7.527  0.6044 -0.0248  1.7926
59096SOL     OW84402  11.248   1.801  12.428 -0.1387  0.2484 -0.5957
59096SOL    HW184403  11.203   1.799  12.512 -0.3927 -0.5322 -0.7398
59096SOL    HW284404  11.340   1.814  12.451 -0.0259 -1.2594 -0.1020
59097SOL     OW84405   0.880   2.265   0.342  0.0228 -0.4095  0.4594
59097SOL    HW184406   0.920   2.236   0.423 -0.0116 -0.3812  0.4867
59097SOL    HW284407   0.954   2.285   0.284  0.0513 -1.7907 -0.0127
59098SOL     OW84408   9.137  11.863   1.400  0.1778 -0.3543  0.0797
59098SOL    HW184409   9.067  11.925   1.418  1.2950  1.1355 -0.5043
59098SOL    HW284410   9.135  11.802   1.475  0.3928  1.6357  1.7825
59099SOL     OW84411   5.595  10.789   9.059 -0.2768  0.7622 -0.1738
59099SOL    HW184412   5.637  10.731   8.997  0.5479  0.9137  0.2337
59099SOL    HW284413   5.643  10.872   9.053 -0.0851  0.7380  0.7478
59100SOL     OW84414  10.674   9.761  12.804 -0.6122 -0.8634  0.6061
59100SOL    HW184415  10.586   9.795  12.816 -0.0049  0.7318  0.7179
59100SOL    HW284416  10.713   9.816  12.737  0.8825 -0.3834  1.8098
59101SOL     OW84417  10.242  10.495   1.522  0.7183 -0.0505  0.5818
59101SOL    HW184418  10.305  10.458   1.585  1.8537  1.4274  0.3638
59101SOL    HW284419  10.202  10.418   1.480 -0.1849 -1.0917  3.1621
59102SOL     OW84420   6.602   5.516   7.294  0.2675 -0.1975  0.1897
59102SOL    HW184421   6.677   5.487   7.346  0.6651  0.3679 -0.0544
59102SOL    HW284422   6.529   5.463   7.325  1.0057 -1.6003 -0.3904
59103SOL     OW84423   1.390   3.927  12.918 -0.2378  0.0386 -0.1859
59103SOL    HW184424   1.453   3.973  12.862  0.1808  1.0985  1.0837
59103SOL    HW284425   1.400   3.835  12.895  1.6798  0.1947 -0.1386
59104SOL     OW84426   1.280   0.627   0.651  0.1901 -0.4495  0.3881
59104SOL    HW184427   1.330   0.655   0.574 -1.5677 -0.4436 -0.8094
59104SOL    HW284428   1.309   0.538   0.668  0.3014 -0.6012 -0.5535
59105SOL     OW84429   2.086   3.011   7.169  0.2054 -0.3902  0.1250
59105SOL    HW184430   2.030   2.959   7.111  1.2580 -1.3771 -0.0367
59105SOL    HW284431   2.149   2.948   7.204 -0.2353  0.2198  2.1638
59106SOL     OW84432   0.119   5.096   2.523 -0.5037 -0.0380  0.4309
59106SOL    HW184433   0.207   5.101   2.487  0.1440  0.5928  2.0134
59106SOL    HW284434   0.061   5.105   2.447  0.7336 -2.5380 -0.9372
59107SOL     OW84435   3.331   2.937  11.150 -0.1826  0.5597 -0.3163
59107SOL    HW184436   3.342   2.866  11.214  0.3940  0.9663  0.0480
59107SOL    HW284437   3.243   2.972  11.168  0.3094  1.2620  0.8925
59108SOL     OW84438  10.379  11.879  10.498 -0.0241  0.4176 -0.8161
59108SOL    HW184439  10.342  11.942  10.436 -2.3239 -0.6306 -0.6070
59108SOL    HW284440  10.335  11.899  10.581 -0.2218 -0.9548 -0.5748
59109SOL     OW84441   2.622   2.081   9.929  0.1584  0.3617  0.1144
59109SOL    HW184442   2.681   2.074  10.004 -0.2989 -1.2245  0.3622
59109SOL    HW284443   2.550   2.023   9.950 -0.7813  1.1338 -0.8540
59110SOL     OW84444  12.847  12.955   8.928  0.7255 -0.4440  0.3035
59110SOL    HW184445  12.876  13.002   8.850 -0.2447 -0.4457 -0.0650
59110SOL    HW284446  12.826  12.867   8.897 -0.4963 -0.1992  0.3837
59111SOL     OW84447   7.539   5.947   9.397 -0.3160  0.0477  0.3910
59111SOL    HW184448   7.598   5.872   9.387 -0.2747  0.2776 -1.6598
59111SOL    HW284449   7.568   5.991   9.477  0.8510 -1.0923  0.6152
59112SOL     OW84450   6.341   1.188   2.507  0.4340  0.0546 -0.2082
59112SOL    HW184451   6.281   1.261   2.519  2.8508  2.6277 -2.3781
59112SOL    HW284452   6.407   1.200   2.576  0.6054 -0.3540 -0.2987
59113SOL     OW84453  12.280   5.147  12.327  0.0087  0.3383 -0.0374
59113SOL    HW184454  12.259   5.053  12.329 -0.0141  0.1641 -3.2910
59113SOL    HW284455  12.366   5.151  12.286  1.0109  1.6990  2.0535
59114SOL     OW84456   3.631   8.475   2.475 -0.2970 -0.4792 -0.0779
59114SOL    HW184457   3.703   8.514   2.425  0.2814 -1.1126  0.2405
59114SOL    HW284458   3.609   8.540   2.541 -0.1020 -0.2289 -0.2589
59115SOL     OW84459   3.373   9.420   1.515  0.2040 -0.2110  0.9271
59115SOL    HW184460   3.417   9.341   1.546  0.1764 -0.3655  0.5836
59115SOL    HW284461   3.283   9.392   1.497  0.3129 -0.2184  0.3650
59116SOL     OW84462   2.356   5.364   8.933  0.3216  0.0046  0.0552
59116SOL    HW184463   2.376   5.444   8.884 -0.8326  0.0085 -0.4262
59116SOL    HW284464   2.380   5.293   8.873 -0.9952  0.0091 -0.5041
59117SOL     OW84465  10.611  10.530   9.089 -0.5402  0.3859  0.1321
59117SOL    HW184466  10.688  10.477   9.067 -0.8983  0.4070 -1.2969
59117SOL    HW284467  10.543  10.498   9.030 -1.0723  1.6985 -0.0043
59118SOL     OW84468   2.143   1.803   7.008 -0.2160 -0.1667 -1.0708
59118SOL    HW184469   2.213   1.795   7.073 -0.8285  0.7948 -0.2712
59118SOL    HW284470   2.187   1.832   6.928 -0.0097  3.5236  0.2120
59119SOL     OW84471   4.287  11.350   4.061  0.6834  0.6729 -0.1153
59119SOL    HW184472   4.202  11.322   4.097  1.4019 -0.2139  0.9358
59119SOL    HW284473   4.332  11.390   4.135  0.1614  3.7274 -1.2781
59120SOL     OW84474  11.833   5.903   7.544 -0.6033  0.2524 -0.4889
59120SOL    HW184475  11.781   5.829   7.577  0.5145 -1.0087 -1.4922
59120SOL    HW284476  11.785   5.933   7.467 -0.9586  0.4593 -0.1899
59121SOL     OW84477   5.967  12.787   2.645 -0.1455  0.4904 -0.6788
59121SOL    HW184478   5.971  12.704   2.598  1.3631  1.2901 -2.0506
59121SOL    HW284479   6.057  12.819   2.646 -0.2356  0.8715  2.2001
59122SOL     OW84480   8.503   8.897   8.680  0.4300 -0.3939  0.3075
59122SOL    HW184481   8.496   8.986   8.714  0.6479 -0.1795 -0.2037
59122SOL    HW284482   8.561   8.852   8.742  2.1277  0.4241 -0.6077
59123SOL     OW84483   4.438   6.248   2.604  0.1165 -0.1909 -0.4320
59123SOL    HW184484   4.385   6.183   2.650  1.1085 -0.8994 -0.2355
59123SOL    HW284485   4.375   6.307   2.564 -0.9154  2.1188  4.0059
59124SOL     OW84486   7.343   3.202   4.194  0.1446  0.5501  0.2167
59124SOL    HW184487   7.422   3.202   4.140  0.7379  0.0714  1.0662
59124SOL    HW284488   7.370   3.162   4.276 -1.1191 -0.1301  0.3233
59125SOL     OW84489  10.017  12.707   4.194  0.1400  0.2653 -0.2586
59125SOL    HW184490  10.096  12.757   4.213 -1.2728  1.7230  2.3613
59125SOL    HW284491   9.950  12.773   4.178 -1.1730 -0.8244  0.4828
59126SOL     OW84492   9.886   1.528   7.042  0.4624  0.4184  0.6837
59126SOL    HW184493   9.846   1.555   7.124 -0.0760 -0.5405  0.7512
59126SOL    HW284494   9.851   1.590   6.977  0.5611  0.9122  1.0942
59127SOL     OW84495   8.023  12.823   8.686 -0.7643 -0.2157 -0.0031
59127SOL    HW184496   7.997  12.894   8.744 -3.8610 -0.2620 -1.1842
59127SOL    HW284497   7.992  12.744   8.729 -1.3978 -0.4119 -0.7927
59128SOL     OW84498   8.462   9.411   5.189  0.1011  0.5281  0.0093
59128SOL    HW184499   8.463   9.477   5.259 -2.0571  0.3269  0.3203
59128SOL    HW284500   8.429   9.459   5.112 -2.5324 -0.2933  0.5038
59129SOL     OW84501   6.202   0.924   1.237  0.0176  0.3426  0.2854
59129SOL    HW184502   6.292   0.951   1.251  0.5690 -1.7399  1.2261
59129SOL    HW284503   6.189   0.931   1.143  0.5483  2.3551  0.3251
59130SOL     OW84504   6.259   4.970   4.075  0.6350 -0.2257 -0.4356
59130SOL    HW184505   6.185   4.925   4.115 -1.4424  2.7198 -0.6824
59130SOL    HW284506   6.320   4.986   4.147 -0.4025  0.0192  0.3971
59131SOL     OW84507   5.125   3.471   4.635  0.5075 -0.0788  0.4053
59131SOL    HW184508   5.130   3.531   4.709  0.6304  0.0847  0.2655
59131SOL    HW284509   5.215   3.468   4.600  0.2886  0.4518 -0.2165
59132SOL     OW84510   3.011   4.179   6.801  0.0235 -0.2322 -0.3119
59132SOL    HW184511   3.095   4.223   6.786  0.0718  0.0196  0.6767
59132SOL    HW284512   3.032   4.107   6.861 -0.3446 -0.6165 -0.6360
59133SOL     OW84513   5.865   0.965   6.443 -0.2120  0.7219 -0.2281
59133SOL    HW184514   5.843   0.921   6.525 -0.6766  0.6997 -0.3608
59133SOL    HW284515   5.783   1.005   6.415 -0.0967  0.5892 -0.7662
59134SOL     OW84516   8.858  10.568   2.421  0.4002  0.1477 -0.2116
59134SOL    HW184517   8.816  10.554   2.337 -0.9489 -2.9004  0.8341
59134SOL    HW284518   8.852  10.663   2.436 -0.4668  0.5873 -2.9016
59135SOL     OW84519  11.090   6.944   5.112  0.3615 -0.1027  0.5461
59135SOL    HW184520  11.126   6.937   5.023  0.0841 -2.9440  0.5504
59135SOL    HW284521  11.039   6.864   5.123 -0.7846  0.8558  2.7977
59136SOL     OW84522  10.936   8.065   4.456 -0.3686  0.0548 -0.2554
59136SOL    HW184523  10.899   7.986   4.495 -0.4118  0.4699  0.5748
59136SOL    HW284524  10.866   8.100   4.400 -0.0437 -0.9483 -1.3227
59137SOL     OW84525  11.641   8.322   9.562  0.0168 -0.0333 -0.6216
59137SOL    HW184526  11.576   8.302   9.495  0.8849 -1.7881 -1.0021
59137SOL    HW284527  11.719   8.347   9.513  0.0618  0.6495 -0.2090
59138SOL     OW84528   0.693   6.273  10.880  0.1768  0.0473 -0.1676
59138SOL    HW184529   0.655   6.186  10.870 -2.3959  0.8433  1.6439
59138SOL    HW284530   0.767   6.261  10.939 -1.2218 -0.7447  1.5262
59139SOL     OW84531   3.284  10.090   4.834 -0.4950 -0.5861  0.3839
59139SOL    HW184532   3.304   9.997   4.830  1.0842 -0.2761  0.5896
59139SOL    HW284533   3.257  10.113   4.745 -2.2424 -1.4885  0.6306
59140SOL     OW84534   3.153  11.774   0.719  0.5121  0.0537 -0.2928
59140SOL    HW184535   3.225  11.810   0.771  0.0389  0.7241 -0.0892
59140SOL    HW284536   3.150  11.681   0.742  0.9247  0.1505  0.1510
59141SOL     OW84537   5.386  11.319   9.106  0.0154  0.3690  0.5962
59141SOL    HW184538   5.424  11.295   9.191  0.3355 -0.9808  0.1000
59141SOL    HW284539   5.386  11.237   9.056 -1.9340  0.7115 -0.0453
59142SOL     OW84540   0.982   3.444   8.377 -0.4326 -0.5336  0.3634
59142SOL    HW184541   0.975   3.397   8.460  1.2596 -0.9339  0.3059
59142SOL    HW284542   0.891   3.461   8.351 -1.0344 -2.1824  1.2738
59143SOL     OW84543   4.778   6.606   2.357 -0.5255  0.5612  0.4518
59143SOL    HW184544   4.750   6.589   2.267  0.0595  1.6194  0.0565
59143SOL    HW284545   4.826   6.689   2.352 -0.2762  0.5068  1.6981
59144SOL     OW84546  11.910  12.599   2.635  0.0344 -0.2769  0.5088
59144SOL    HW184547  11.968  12.639   2.699  1.2422 -3.8499  1.8684
59144SOL    HW284548  11.952  12.618   2.551  0.9575  0.5791  1.1284
59145SOL     OW84549   2.069   0.056   5.691 -0.5226  0.0313 -0.2988
59145SOL    HW184550   2.100   0.146   5.700 -1.5543  0.4242 -0.5148
59145SOL    HW284551   2.037   0.050   5.601 -1.0133 -0.3636 -0.1037
59146SOL     OW84552  12.050  11.515   5.669  0.2754  0.2014 -0.4884
59146SOL    HW184553  12.025  11.536   5.759  0.8530  2.5389 -0.8137
59146SOL    HW284554  12.142  11.491   5.675 -0.0222 -0.9551 -0.3082
59147SOL     OW84555  11.838   9.115  11.701 -0.0467 -0.6100  0.0899
59147SOL    HW184556  11.805   9.125  11.790 -1.2540  0.7920 -0.4839
59147SOL    HW284557  11.890   9.194  11.685 -0.5863 -0.4095 -0.7474
59148SOL     OW84558   7.690   6.271  10.173 -0.1396  0.0520  0.1768
59148SOL    HW184559   7.613   6.218  10.194  0.3356 -0.8303 -0.2524
59148SOL    HW284560   7.673   6.305  10.085 -0.4630  0.6735  0.4686
59149SOL     OW84561   8.896   8.321   2.313 -0.2839  0.2349 -0.4338
59149SOL    HW184562   8.969   8.279   2.358 -0.1897 -0.0885 -0.8764
59149SOL    HW284563   8.910   8.415   2.326  0.4384  0.1930 -0.8583
59150SOL     OW84564   7.503  11.223   4.566  0.0898  0.5611  1.0700
59150SOL    HW184565   7.465  11.310   4.570  0.2547  0.6829  0.2037
59150SOL    HW284566   7.454  11.171   4.630  0.7433  1.5624  2.4277
59151SOL     OW84567   4.243   3.235   7.415  0.4804  0.4504  0.6650
59151SOL    HW184568   4.327   3.275   7.439  1.0557 -0.7436  0.7567
59151SOL    HW284569   4.255   3.210   7.323 -0.3667  1.6899  0.2007
59152SOL     OW84570   0.481  10.490   1.276  0.4111  0.2173 -0.1265
59152SOL    HW184571   0.426  10.565   1.251  0.5272  0.3983  0.1582
59152SOL    HW284572   0.421  10.429   1.318  0.7913  1.3740  2.2296
59153SOL     OW84573   3.444   8.793   9.715 -0.2680 -0.5140 -0.6525
59153SOL    HW184574   3.443   8.730   9.786 -0.1631  0.2003 -0.0084
59153SOL    HW284575   3.365   8.773   9.664 -1.1096 -0.1411  0.4591
59154SOL     OW84576  10.098   8.326  11.564 -0.0935 -0.3880  0.5387
59154SOL    HW184577  10.182   8.280  11.557  1.1409  1.8932 -1.3444
59154SOL    HW284578  10.034   8.265  11.526  0.2988 -2.8065  3.3932
59155SOL     OW84579   7.101   0.457   2.588  0.3273 -0.0761 -0.4514
59155SOL    HW184580   7.110   0.443   2.682 -1.7300  0.6627 -0.1086
59155SOL    HW284581   7.118   0.550   2.575 -2.7161  0.6152 -0.2443
59156SOL     OW84582   1.891   8.784   1.701  0.2276 -0.4584  0.1732
59156SOL    HW184583   1.814   8.754   1.653  0.0684 -0.6806  0.5647
59156SOL    HW284584   1.913   8.711   1.758 -0.0714  0.1022  1.0227
59157SOL     OW84585   1.766   5.492   7.791  0.1202 -0.0118  0.2862
59157SOL    HW184586   1.794   5.437   7.718 -0.5571 -1.7832  1.3078
59157SOL    HW284587   1.671   5.486   7.791 -0.2746  3.6721 -1.4114
59158SOL     OW84588   3.700   4.363   4.545 -0.2765 -0.4691  0.2109
59158SOL    HW184589   3.640   4.306   4.497 -0.2329 -1.5003  1.3259
59158SOL    HW284590   3.666   4.364   4.635  0.0516  0.8197  0.3388
59159SOL     OW84591   7.967  10.088   9.746  0.2090 -0.1324  0.1339
59159SOL    HW184592   8.048  10.090   9.797 -0.0021  1.2469  0.4529
59159SOL    HW284593   7.897  10.096   9.811 -0.1168  0.1686 -0.2423
59160SOL     OW84594   6.129   9.967  10.892 -0.1195  0.2607  1.0200
59160SOL    HW184595   6.157  10.016  10.815  2.2031 -0.1136  1.5675
59160SOL    HW284596   6.209   9.934  10.930 -1.4363 -2.1114  1.9461
59161SOL     OW84597   3.283   1.848   7.668 -0.1127 -0.1711  0.4024
59161SOL    HW184598   3.339   1.796   7.726  0.6376  0.3865  0.2016
59161SOL    HW284599   3.344   1.907   7.623 -0.7786 -0.0683 -0.3856
59162SOL     OW84600   7.597   5.858   5.687 -0.0894 -0.0680  0.1486
59162SOL    HW184601   7.678   5.890   5.647 -0.5172  2.1413  0.9408
59162SOL    HW284602   7.548   5.819   5.614  1.6967 -1.5994 -0.3218
59163SOL     OW84603   2.411  12.640  10.440  0.2339  0.2557  0.1042
59163SOL    HW184604   2.452  12.564  10.399 -0.5965 -0.1861  0.0806
59163SOL    HW284605   2.432  12.630  10.533  1.4694  0.8577 -0.0792
59164SOL     OW84606   1.284   1.994   9.414  0.2981 -0.0305  0.7251
59164SOL    HW184607   1.253   2.048   9.488  1.3917  2.2551 -0.3721
59164SOL    HW284608   1.207   1.984   9.358  0.2430  1.1289  0.5613
59165SOL     OW84609  10.396   4.878   5.509 -0.4281  0.0852 -0.2832
59165SOL    HW184610  10.444   4.811   5.460 -0.5577 -0.0330 -0.2499
59165SOL    HW284611  10.446   4.958   5.496 -1.5000  0.4860 -2.2128
59166SOL     OW84612   5.534   2.791   5.050  0.4176 -0.1320  0.4621
59166SOL    HW184613   5.533   2.738   5.130  1.1661 -0.2872  0.3813
59166SOL    HW284614   5.616   2.840   5.055  1.1574 -1.1719 -0.8541
59167SOL     OW84615   9.356   5.860  10.530 -0.0891  0.0165 -0.3660
59167SOL    HW184616   9.266   5.874  10.562  0.2727 -0.3763  0.8968
59167SOL    HW284617   9.385   5.947  10.503 -0.3445  0.4378  0.6469
59168SOL     OW84618   6.194  10.922   1.933 -0.4007 -0.1445 -0.0544
59168SOL    HW184619   6.118  10.935   1.876 -0.3985  1.8812  0.3172
59168SOL    HW284620   6.269  10.951   1.881  0.1080 -1.7704 -0.2806
59169SOL     OW84621   8.605  12.591   3.813 -0.7222  0.0039  0.3649
59169SOL    HW184622   8.686  12.541   3.804 -2.1608 -2.2930 -0.7907
59169SOL    HW284623   8.566  12.591   3.726 -1.5807  1.8456  0.6848
59170SOL     OW84624   1.201   4.313   5.024 -0.4696  0.4795  0.1775
59170SOL    HW184625   1.261   4.289   4.954  0.2844 -1.3741  1.3751
59170SOL    HW284626   1.123   4.345   4.979 -0.2917 -1.3087 -1.5310
59171SOL     OW84627   4.823   5.159   0.722  0.2015 -0.2727 -0.6569
59171SOL    HW184628   4.873   5.240   0.726 -0.6878  0.3206 -1.2016
59171SOL    HW284629   4.769   5.167   0.644 -1.6844 -0.3001  0.5658
59172SOL     OW84630   5.047   6.662   1.003 -0.2084 -0.4417  0.0964
59172SOL    HW184631   4.961   6.666   1.043 -0.1285  0.5946  0.1746
59172SOL    HW284632   5.051   6.575   0.963 -0.9270 -0.8498  0.8917
59173SOL     OW84633   2.886   1.747   0.719  0.0015  0.1366 -0.0254
59173SOL    HW184634   2.904   1.672   0.663  1.1147  0.2139  0.2015
59173SOL    HW284635   2.795   1.771   0.700 -0.6734 -1.8286  0.5582
59174SOL     OW84636   3.988   2.250   3.531 -0.2648 -0.6486 -0.2368
59174SOL    HW184637   3.947   2.230   3.616 -0.9011 -1.1277 -0.6514
59174SOL    HW284638   3.917   2.284   3.477  0.6108  2.1324  0.1820
59175SOL     OW84639  12.795   0.340   0.343  0.1594  0.5830  0.4436
59175SOL    HW184640  12.744   0.260   0.347  1.1327 -0.1024 -0.3751
59175SOL    HW284641  12.883   0.312   0.320  0.2987  1.9507 -0.9356
59176SOL     OW84642  11.498   8.020  11.976 -0.5309 -0.2933 -0.3109
59176SOL    HW184643  11.534   7.985  11.895 -0.8394  0.4168 -0.7593
59176SOL    HW284644  11.530   8.110  11.981 -1.4020  0.0267 -0.2078
59177SOL     OW84645   3.443   1.451  11.406 -0.4796 -0.2408  0.4775
59177SOL    HW184646   3.533   1.478  11.423  0.1502  0.5985 -3.3105
59177SOL    HW284647   3.397   1.531  11.383 -0.7580 -1.1844 -2.7219
59178SOL     OW84648   8.614   5.260   6.042 -0.2556  0.1127 -0.0338
59178SOL    HW184649   8.650   5.212   6.117  0.2761  0.0163 -0.3474
59178SOL    HW284650   8.636   5.206   5.966 -1.3012 -0.0827 -0.2112
59179SOL     OW84651   6.276   2.965  10.073  0.0203 -0.2548 -0.2081
59179SOL    HW184652   6.283   2.872  10.049 -0.4474 -0.7210  1.3680
59179SOL    HW284653   6.270   2.965  10.168 -0.1781  1.3983 -0.1933
59180SOL     OW84654  12.613   7.556  10.680 -0.0090  0.4782 -0.6017
59180SOL    HW184655  12.546   7.616  10.715 -1.1709 -2.3666  2.5716
59180SOL    HW284656  12.690   7.573  10.734  0.0842  0.0611 -0.6048
59181SOL     OW84657   9.623   6.020   9.766  0.1533 -1.1389  0.4852
59181SOL    HW184658   9.571   5.950   9.806 -0.5915 -0.2918  1.0415
59181SOL    HW284659   9.645   6.078   9.839 -2.5656  1.3019 -0.4137
59182SOL     OW84660   8.155   0.036  10.187  0.2694 -0.4101 -0.0630
59182SOL    HW184661   8.245   0.020  10.160  0.7349 -0.4412  1.4787
59182SOL    HW284662   8.103  -0.025  10.133  1.0528  0.1634 -1.5383
59183SOL     OW84663   8.729   0.712   4.823  0.0101  0.1276  0.2657
59183SOL    HW184664   8.634   0.701   4.832 -0.0757  0.4587 -0.2368
59183SOL    HW284665   8.760   0.627   4.790 -0.4223  0.7354 -1.8223
59184SOL     OW84666   3.782   5.497  12.697 -0.4959 -0.1362  0.6333
59184SOL    HW184667   3.777   5.402  12.689 -0.6255 -0.1307  0.6416
59184SOL    HW284668   3.826   5.526  12.617  1.0223 -0.3322  1.3715
59185SOL     OW84669   9.748   2.064   6.713 -0.0878 -0.3054 -0.5979
59185SOL    HW184670   9.662   2.051   6.674 -0.3846 -0.6375  0.1417
59185SOL    HW284671   9.763   2.159   6.707 -0.5194 -0.2402 -0.6959
59186SOL     OW84672   9.936   0.665   0.449  0.3380 -0.2717 -0.0848
59186SOL    HW184673   9.879   0.740   0.435 -0.5697 -0.7426  0.9645
59186SOL    HW284674   9.929   0.647   0.542 -1.0291 -2.8798 -0.6092
59187SOL     OW84675   5.685  10.197   3.977  0.5739 -0.2360 -0.0688
59187SOL    HW184676   5.649  10.269   3.925 -0.2405 -0.8464 -0.3752
59187SOL    HW284677   5.758  10.165   3.924  1.6243  1.0124  0.5598
59188SOL     OW84678  11.121   7.623   4.601  0.2824 -0.7438 -0.2317
59188SOL    HW184679  11.044   7.606   4.654 -0.1952 -0.3355 -0.7850
59188SOL    HW284680  11.178   7.676   4.657 -0.5709  0.3850 -0.4082
59189SOL     OW84681   8.482  10.939   8.514  0.0163 -0.6271 -0.2469
59189SOL    HW184682   8.554  10.984   8.557  0.2915 -1.1813 -0.1216
59189SOL    HW284683   8.417  11.008   8.499 -0.0121 -0.3859  0.8892
59190SOL     OW84684   3.911   5.468   1.338 -0.2847 -0.2713 -0.3266
59190SOL    HW184685   3.927   5.380   1.372  0.2201 -0.6140 -1.4016
59190SOL    HW284686   3.979   5.522   1.379  1.4036 -1.0052 -1.9905
59191SOL     OW84687  11.212  12.125   4.543  0.8587  0.4768  0.4858
59191SOL    HW184688  11.211  12.179   4.622  0.5498  1.8609 -0.4212
59191SOL    HW284689  11.242  12.184   4.474 -3.1718  0.7337 -1.3307
59192SOL     OW84690   7.261   3.898  10.273 -0.5605 -0.1692 -0.6070
59192SOL    HW184691   7.184   3.857  10.313 -0.5496  0.3123 -0.0678
59192SOL    HW284692   7.283   3.842  10.199 -1.2002 -0.5239 -0.5362
59193SOL     OW84693  10.937  10.733   3.727  0.3108 -0.2292 -0.1910
59193SOL    HW184694  11.015  10.775   3.692  0.4732 -0.4198 -0.0580
59193SOL    HW284695  10.887  10.706   3.649  1.3599 -1.9506 -0.3123
59194SOL     OW84696  12.358   3.960   2.679 -0.1403 -0.0701  0.2806
59194SOL    HW184697  12.446   3.961   2.642  1.2381  1.1239  3.2500
59194SOL    HW284698  12.334   3.867   2.680  0.4684 -0.2914 -1.8167
59195SOL     OW84699  11.872   9.233   4.636 -0.5613  0.0177 -0.2982
59195SOL    HW184700  11.785   9.258   4.605 -0.3291  0.3976 -0.6575
59195SOL    HW284701  11.932   9.290   4.588 -0.0300 -1.0606 -0.9641
59196SOL     OW84702   5.877   1.696   9.402  0.4824 -0.3087 -0.1799
59196SOL    HW184703   5.869   1.783   9.365  1.1862  0.1775  0.7646
59196SOL    HW284704   5.788   1.662   9.403 -0.1730  1.2993  1.5256
59197SOL     OW84705   2.199  12.540   1.677  0.3534 -0.4693  0.2927
59197SOL    HW184706   2.183  12.523   1.584 -1.9710  0.4104  0.4575
59197SOL    HW284707   2.131  12.490   1.723  0.0419  0.8652  1.3573
59198SOL     OW84708   1.780   8.285   5.797 -0.3839  0.4186  0.8263
59198SOL    HW184709   1.840   8.226   5.751 -1.0744 -0.6967  1.3199
59198SOL    HW284710   1.838   8.348   5.841  0.4870 -1.0884  1.9292
59199SOL     OW84711   3.057   4.071  10.796 -0.3421 -0.2736 -0.2048
59199SOL    HW184712   3.117   4.078  10.871 -1.1396  0.3917  0.3937
59199SOL    HW284713   3.074   3.984  10.760  2.1078  0.4682 -1.0517
59200SOL     OW84714   6.184  10.948   6.099 -0.0423 -0.3626 -0.4260
59200SOL    HW184715   6.098  10.980   6.074 -0.0922  0.8058  1.0916
59200SOL    HW284716   6.245  11.013   6.063  0.0575 -0.0821  0.2424
59201SOL     OW84717   4.391   9.456   8.259 -0.6300  0.4339 -0.3994
59201SOL    HW184718   4.376   9.380   8.204 -0.0572 -1.0216  1.3387
59201SOL    HW284719   4.304   9.483   8.287 -0.7902 -0.1316 -0.3442
59202SOL     OW84720   7.929   1.464   4.907  0.1763 -0.1343 -0.0480
59202SOL    HW184721   7.967   1.533   4.960 -0.0703  0.6718 -0.9066
59202SOL    HW284722   7.945   1.384   4.958  0.3324  0.5520  1.0233
59203SOL     OW84723  12.246   2.068  10.456 -0.8298  0.0842 -0.4958
59203SOL    HW184724  12.336   2.077  10.424 -1.2758  2.0398 -1.3186
59203SOL    HW284725  12.246   1.986  10.505  1.7089  0.6161  0.5490
59204SOL     OW84726   5.478   5.047   6.610  0.5241 -0.0609 -0.2720
59204SOL    HW184727   5.567   5.032   6.642  0.2925  1.8300  1.4199
59204SOL    HW284728   5.434   4.962   6.621  1.5145 -0.4404  0.9513
59205SOL     OW84729   2.914  12.566   6.740  0.6655 -0.5464 -0.0276
59205SOL    HW184730   2.961  12.632   6.791  0.0644  0.3512 -0.6069
59205SOL    HW284731   2.854  12.617   6.685 -0.5032 -1.6149  0.2156
59206SOL     OW84732   4.270   1.630   6.536 -0.4035 -0.1775  0.1150
59206SOL    HW184733   4.293   1.677   6.456 -0.4107  0.0624  0.2530
59206SOL    HW284734   4.176   1.614   6.527 -0.6368  0.8182  0.5671
59207SOL     OW84735   9.747   2.340  10.275 -0.0511  0.2625  0.1863
59207SOL    HW184736   9.803   2.418  10.277 -1.2802  1.1733  0.5574
59207SOL    HW284737   9.790   2.281  10.214  0.2907  1.7265 -1.0492
59208SOL     OW84738   7.582   4.863   7.724 -0.6408  0.0794 -0.3572
59208SOL    HW184739   7.538   4.899   7.647 -1.1626 -0.8036 -0.4890
59208SOL    HW284740   7.529   4.787   7.748  0.5132 -0.7004 -0.1882
59209SOL     OW84741  10.684   4.608   1.642 -0.0245  0.1347 -0.3709
59209SOL    HW184742  10.686   4.683   1.703  1.2609 -1.3469  1.5565
59209SOL    HW284743  10.667   4.532   1.699 -0.6346 -1.1345 -2.1709
59210SOL     OW84744   4.706  12.676   1.854 -0.4650 -0.7409 -0.3237
59210SOL    HW184745   4.687  12.721   1.772  0.4485  0.2234 -0.0294
59210SOL    HW284746   4.802  12.671   1.857 -0.4481 -0.0634  1.0244
59211SOL     OW84747   9.957  11.202   8.178 -0.2708 -0.2063 -0.7619
59211SOL    HW184748   9.998  11.206   8.264 -2.1669 -3.4333  0.4664
59211SOL    HW284749   9.998  11.127   8.135 -0.3710  0.4794 -2.1419
59212SOL     OW84750  11.698   9.030   4.335 -0.1849  0.1826 -0.0112
59212SOL    HW184751  11.654   8.954   4.298 -1.5830  0.6423  0.6505
59212SOL    HW284752  11.741   8.997   4.414 -0.4799 -0.0003  0.0746
59213SOL     OW84753   5.141  12.025   4.274 -0.4928 -0.0550  0.4895
59213SOL    HW184754   5.203  11.963   4.235  1.3642  0.7289  2.0075
59213SOL    HW284755   5.171  12.111   4.243 -0.7724  0.3411  1.2946
59214SOL     OW84756   6.193   7.809   9.240  0.1144 -0.0743  0.1665
59214SOL    HW184757   6.288   7.797   9.245  0.1746  0.2394 -0.1846
59214SOL    HW284758   6.177   7.892   9.287 -0.2638 -1.2894  2.3188
59215SOL     OW84759   9.446  12.679   9.022 -0.2391  0.6028  0.0934
59215SOL    HW184760   9.374  12.740   9.039  0.3187  1.0073  1.1023
59215SOL    HW284761   9.408  12.592   9.037 -0.3595  0.8463  1.2866
59216SOL     OW84762   8.110   4.729   7.567 -0.6340 -0.3072 -0.4975
59216SOL    HW184763   8.154   4.692   7.644  0.1227  2.4011  0.4746
59216SOL    HW284764   8.017   4.713   7.584 -0.3455 -2.0030 -0.3119
59217SOL     OW84765  12.352   1.703   9.687 -0.6066  0.5465  0.8144
59217SOL    HW184766  12.403   1.695   9.606 -1.0377  1.0505  0.4785
59217SOL    HW284767  12.274   1.752   9.660 -0.9688  0.3212  1.4479
59218SOL     OW84768   1.114   9.848   2.566  0.3324 -0.0743  0.1868
59218SOL    HW184769   1.041   9.794   2.538  1.3688 -1.5845  0.2578
59218SOL    HW284770   1.186   9.823   2.508  0.5011  2.3206 -0.7720
59219SOL     OW84771   7.619   1.916   6.240  0.1607 -0.0050 -0.0225
59219SOL    HW184772   7.531   1.879   6.240 -0.0959  0.5637  1.2517
59219SOL    HW284773   7.630   1.953   6.327  0.4575  2.7612 -1.1243
59220SOL     OW84774   3.589   9.987   1.401  0.1357 -0.7128 -0.0433
59220SOL    HW184775   3.516  10.029   1.447  0.0257 -1.0178  0.0632
59220SOL    HW284776   3.562   9.985   1.309 -0.2058 -1.2641  0.0634
59221SOL     OW84777   6.553   9.941   3.092 -0.6195 -0.3932  0.1276
59221SOL    HW184778   6.560   9.926   3.186 -1.0778  0.1756  0.2603
59221SOL    HW284779   6.509   9.862   3.059  0.0592 -0.8470  0.3002
59222SOL     OW84780   0.001   5.787   0.738  0.3689  0.1065 -0.3134
59222SOL    HW184781   0.007   5.766   0.831  2.3219  0.5643 -0.2946
59222SOL    HW284782   0.003   5.882   0.734 -1.5361  0.1676 -0.7655
59223SOL     OW84783   6.022   0.252   7.637  0.8868  0.0743 -0.5797
59223SOL    HW184784   6.012   0.302   7.718 -0.5182  2.2680 -2.0261
59223SOL    HW284785   5.985   0.166   7.658 -2.4356  1.5397  0.2987
59224SOL     OW84786   0.899   2.326  12.307  0.3479  0.1278 -0.4479
59224SOL    HW184787   0.862   2.275  12.379 -0.8016  0.2543 -0.9296
59224SOL    HW284788   0.843   2.403  12.301  0.5746  0.2325 -1.3230
59225SOL     OW84789   5.462   3.831   2.423  0.1152 -0.1872 -0.4102
59225SOL    HW184790   5.430   3.809   2.511  0.8289  0.0127 -0.0905
59225SOL    HW284791   5.407   3.905   2.396 -0.7088 -0.8281 -0.5137
59226SOL     OW84792   5.965   2.962  10.201 -0.2372  0.0843 -0.0568
59226SOL    HW184793   6.024   2.975  10.275  0.2062 -0.6586 -0.2707
59226SOL    HW284794   5.995   3.023  10.134 -1.2742  1.5170  0.7140
59227SOL     OW84795   2.640   0.407  11.298 -0.0758  0.3835  0.1024
59227SOL    HW184796   2.603   0.479  11.248  0.1749  0.9505  0.7014
59227SOL    HW284797   2.578   0.335  11.288 -0.3914  0.7231 -0.4082
59228SOL     OW84798   5.549   3.951   4.029 -0.6077  0.3225  0.3864
59228SOL    HW184799   5.466   3.958   3.982 -1.4870  1.1608  1.9898
59228SOL    HW284800   5.604   3.896   3.973 -0.8489  2.9219 -2.6301
59229SOL     OW84801   3.063   9.627  12.417  0.2057 -0.3081  0.0999
59229SOL    HW184802   2.997   9.613  12.485  0.0980 -0.7918 -0.1017
59229SOL    HW284803   3.072   9.722  12.411  0.5042 -0.2697  1.0696
59230SOL     OW84804   6.201  11.462   1.861 -0.4360 -0.1668  0.0208
59230SOL    HW184805   6.134  11.431   1.800  1.1497 -1.4740 -1.1367
59230SOL    HW284806   6.237  11.382   1.899  2.0727  0.2943 -1.1835
59231SOL     OW84807   5.348   6.770   5.612 -0.4766  0.6089 -0.6381
59231SOL    HW184808   5.317   6.683   5.585 -1.4749  0.5705  0.5553
59231SOL    HW284809   5.300   6.830   5.555 -2.0020  0.4936  0.4639
59232SOL     OW84810  11.703   8.846   1.988  0.2232 -0.9034 -0.1489
59232SOL    HW184811  11.749   8.777   1.939 -1.7653 -2.3734 -0.0741
59232SOL    HW284812  11.704   8.815   2.078 -1.1763 -1.1476 -0.2002
59233SOL     OW84813   8.127   9.331   0.305  0.0565  0.2457  0.2332
59233SOL    HW184814   8.219   9.350   0.284  0.0025  0.7199  0.4219
59233SOL    HW284815   8.119   9.349   0.399  0.2084 -1.5393  0.6284
59234SOL     OW84816   7.438   1.618   2.601 -0.0754 -0.8738  0.0025
59234SOL    HW184817   7.444   1.589   2.510 -0.9590 -0.0483 -0.3319
59234SOL    HW284818   7.513   1.576   2.645  1.2235 -0.1262 -1.4206
59235SOL     OW84819  12.912  11.883   6.386 -0.4446 -0.0683  0.0459
59235SOL    HW184820  12.836  11.891   6.444 -0.0642 -0.2521  0.5775
59235SOL    HW284821  12.937  11.974   6.367 -1.2343 -0.0027 -0.7215
59236SOL     OW84822  12.545   4.850   6.282 -0.3589  0.0392 -0.0017
59236SOL    HW184823  12.629   4.896   6.287 -0.1723  0.0006 -1.9398
59236SOL    HW284824  12.482   4.919   6.259 -0.3855 -0.3263 -1.1066
59237SOL     OW84825   3.447   0.849   8.737  0.4891 -0.4469 -0.2494
59237SOL    HW184826   3.457   0.835   8.643 -3.9196 -0.0435 -0.9912
59237SOL    HW284827   3.463   0.942   8.750  0.1238 -0.3103 -0.7797
59238SOL     OW84828   1.460   5.672   2.173  0.5132 -0.4194 -0.2802
59238SOL    HW184829   1.479   5.592   2.222  0.6334 -0.3488 -0.2104
59238SOL    HW284830   1.381   5.707   2.213  0.0402 -0.8902 -0.7833
59239SOL     OW84831  10.315  11.766   3.597  0.3846 -0.2377  0.8607
59239SOL    HW184832  10.363  11.715   3.662 -0.3769 -1.0686  0.7940
59239SOL    HW284833  10.315  11.711   3.518  1.4760  0.8438  0.0798
59240SOL     OW84834   4.108   4.085   1.396  0.1363 -0.8689  0.6450
59240SOL    HW184835   4.168   4.047   1.332  0.1955  0.8849 -0.4126
59240SOL    HW284836   4.025   4.095   1.348 -0.2597 -0.8976  1.3060
59241SOL     OW84837   6.963   9.716   7.911  0.0886  0.2394 -0.0377
59241SOL    HW184838   7.011   9.644   7.953  0.9094 -0.9928 -2.8476
59241SOL    HW284839   6.872   9.688   7.913  0.2253 -0.1988  0.1591
59242SOL     OW84840   7.363   6.286   6.169 -0.0194 -0.1370 -0.0871
59242SOL    HW184841   7.427   6.216   6.184 -1.0360 -0.3648  5.4338
59242SOL    HW284842   7.409   6.366   6.194 -0.5312  0.3752 -0.7724
59243SOL     OW84843   2.557   0.300   0.546 -0.1297 -0.3747 -0.0484
59243SOL    HW184844   2.470   0.335   0.564 -1.0535 -0.9763 -2.7650
59243SOL    HW284845   2.617   0.370   0.572 -1.5465  0.8254  0.1141
59244SOL     OW84846   4.468  11.226   2.705 -0.2695  0.2074  0.0499
59244SOL    HW184847   4.526  11.240   2.780  1.6587 -0.0782 -1.3210
59244SOL    HW284848   4.381  11.249   2.738  0.5327  0.2869  2.2995
59245SOL     OW84849   5.671   9.790  11.526  0.6537  0.6450 -0.1956
59245SOL    HW184850   5.586   9.746  11.538  0.6249  0.6506 -0.3756
59245SOL    HW284851   5.729   9.745  11.588  0.2441  1.4187  0.7820
59246SOL     OW84852  12.514   5.157  12.838 -0.2891  0.3710 -0.0819
59246SOL    HW184853  12.589   5.117  12.882 -0.9136 -0.6707  0.0708
59246SOL    HW284854  12.466   5.202  12.908 -0.2491  0.3405 -0.0353
59247SOL     OW84855  12.561   4.754   8.890 -0.1327  0.3628  0.6022
59247SOL    HW184856  12.618   4.703   8.832 -0.7744  0.6730 -0.3296
59247SOL    HW284857  12.473   4.742   8.854 -0.4937  0.8829  1.2857
59248SOL     OW84858   2.179   7.612   2.653 -0.4407 -0.3017 -1.1505
59248SOL    HW184859   2.193   7.704   2.673  0.1834 -0.4086 -1.0750
59248SOL    HW284860   2.145   7.612   2.563  2.4886 -0.1331 -2.3860
59249SOL     OW84861   6.270   0.358   4.755  0.0674  0.2234 -0.1694
59249SOL    HW184862   6.319   0.327   4.679 -0.7502 -1.5809 -0.0243
59249SOL    HW284863   6.312   0.441   4.779  0.2616  0.9028 -2.6310
59250SOL     OW84864   5.691   1.212   9.948 -0.1222  0.1059 -0.1981
59250SOL    HW184865   5.751   1.157   9.897 -0.9198 -0.6128 -0.3732
59250SOL    HW284866   5.704   1.183  10.038 -0.3159 -0.1484 -0.2528
59251SOL     OW84867   9.432   6.316   0.596 -0.0907  0.1061 -0.1491
59251SOL    HW184868   9.495   6.325   0.668  0.7158  1.4263 -0.9744
59251SOL    HW284869   9.469   6.248   0.540  0.9789  1.2903 -0.9476
59252SOL     OW84870   1.517  12.836  10.710 -0.7196  0.6808  0.6441
59252SOL    HW184871   1.455  12.812  10.779 -0.5457 -0.4117  0.4401
59252SOL    HW284872   1.486  12.788  10.633  0.0645  0.5458  0.4019
59253SOL     OW84873   2.022  12.896  12.082  0.4278  0.3479 -0.3995
59253SOL    HW184874   1.932  12.918  12.061 -0.4428 -2.4369  0.0558
59253SOL    HW284875   2.048  12.960  12.149 -0.9259  1.6152 -1.0456
59254SOL     OW84876  11.854   8.838   0.815 -0.4458 -0.0238 -0.1361
59254SOL    HW184877  11.804   8.828   0.896  1.0370 -1.7636  0.6446
59254SOL    HW284878  11.792   8.816   0.746 -1.2502 -0.3366  0.6643
59255SOL     OW84879   2.663   4.438  12.268 -0.2699 -0.4560 -0.9524
59255SOL    HW184880   2.722   4.450  12.194  0.8393 -2.2371 -0.4037
59255SOL    HW284881   2.712   4.469  12.344  0.6543 -3.3296 -0.2686
59256SOL     OW84882   0.384   5.951  11.730 -0.3782  0.2679  0.3289
59256SOL    HW184883   0.384   6.009  11.806 -0.9221  0.5020  0.1539
59256SOL    HW284884   0.355   6.006  11.657 -0.1750 -0.0362  0.0177
59257SOL     OW84885   9.131   0.391  12.612  0.1239  0.7555 -0.6336
59257SOL    HW184886   9.099   0.434  12.532  0.5188 -1.1322 -1.8694
59257SOL    HW284887   9.217   0.357  12.589 -0.6620 -1.7265 -0.1408
59258SOL     OW84888   4.105   0.047   1.951  0.6119 -0.4504  0.5559
59258SOL    HW184889   4.133  -0.037   1.989  0.1860 -0.6182  0.5071
59258SOL    HW284890   4.184   0.083   1.911  0.9935 -0.4208  1.3331
59259SOL     OW84891   7.982   2.568   3.987  0.1163  0.6273 -0.3962
59259SOL    HW184892   7.912   2.564   3.922  1.1696  0.7959 -1.5760
59259SOL    HW284893   7.942   2.609   4.064 -1.0821  0.6684 -1.0287
59260SOL     OW84894   9.796   2.123   3.694 -0.0727 -0.0597 -0.0131
59260SOL    HW184895   9.843   2.105   3.613  1.0513 -0.8294  0.7845
59260SOL    HW284896   9.860   2.108   3.763 -0.0285  3.5827  0.9480
59261SOL     OW84897   8.561  11.164   4.872 -0.0096  0.8174 -0.1129
59261SOL    HW184898   8.533  11.170   4.780  1.4380 -0.9160 -0.7109
59261SOL    HW284899   8.654  11.183   4.870 -0.1455  1.7302  1.1764
59262SOL     OW84900   4.722   2.634   7.308  0.2020 -0.0359 -0.2107
59262SOL    HW184901   4.645   2.581   7.287 -0.8500  1.2984  0.1699
59262SOL    HW284902   4.725   2.636   7.404  0.9995 -0.4600 -0.2156
59263SOL     OW84903  12.325   6.880   6.277 -0.7493  0.1602 -0.2794
59263SOL    HW184904  12.291   6.966   6.301 -0.2685  0.0814  0.7347
59263SOL    HW284905  12.391   6.898   6.210 -2.1696  0.3759 -1.6971
59264SOL     OW84906   2.002   6.583  10.532  0.1015  0.3617  0.0604
59264SOL    HW184907   1.970   6.635  10.459  1.1132 -1.3670 -1.7108
59264SOL    HW284908   1.923   6.554  10.578 -0.5431  1.5649 -0.2661
59265SOL     OW84909  10.377   7.744   2.088 -0.6693  0.4406 -0.4329
59265SOL    HW184910  10.321   7.790   2.026 -2.5066 -0.8953  0.1550
59265SOL    HW284911  10.370   7.794   2.169 -0.6171  0.5372 -0.4872
59266SOL     OW84912   8.742   5.772  10.195  0.3365  0.2893 -0.7766
59266SOL    HW184913   8.721   5.702  10.133 -1.2063  0.1323 -0.1336
59266SOL    HW284914   8.837   5.770  10.203  0.5614  0.1792 -2.9630
59267SOL     OW84915   4.821   9.147  11.837 -0.2953 -0.5445 -0.0119
59267SOL    HW184916   4.801   9.117  11.748  3.2600 -0.0715 -1.1178
59267SOL    HW284917   4.886   9.085  11.870  0.7385  1.0256  1.0293
59268SOL     OW84918  11.491   0.117   1.865 -0.0502 -0.0608  0.0981
59268SOL    HW184919  11.436   0.092   1.791  1.4594 -0.3670 -0.9564
59268SOL    HW284920  11.534   0.199   1.837 -0.6944  0.7160  1.2955
59269SOL     OW84921   6.734   3.531  11.140  0.4440  0.0677 -0.2699
59269SOL    HW184922   6.724   3.566  11.051  2.7327  4.0771  0.7626
59269SOL    HW284923   6.826   3.548  11.162 -0.0867 -0.5257  2.9334
59270SOL     OW84924   4.230   7.092   5.760 -0.2011 -0.2420  0.4196
59270SOL    HW184925   4.207   7.183   5.778 -1.6032 -0.0814 -1.7908
59270SOL    HW284926   4.162   7.041   5.805 -1.2086 -0.0269 -0.8043
59271SOL     OW84927   7.787  12.592  10.711  0.1570 -0.0118  0.6872
59271SOL    HW184928   7.826  12.552  10.789 -0.1855  0.7477  1.2609
59271SOL    HW284929   7.862  12.608  10.653  0.3929 -0.7472  0.7770
59272SOL     OW84930  10.952  11.313   4.179 -0.1764 -0.2261  0.1033
59272SOL    HW184931  10.926  11.377   4.245  0.9851 -1.2606  1.6272
59272SOL    HW284932  10.996  11.364   4.111 -0.5633  0.7534  0.5762
59273SOL     OW84933   7.844  11.044  10.066  0.5721 -0.4075  0.0730
59273SOL    HW184934   7.892  10.981  10.011  0.0224  0.5704 -1.5872
59273SOL    HW284935   7.907  11.115  10.081  0.4963 -0.3599  0.1665
59274SOL     OW84936   9.729  10.899   5.735  0.3588  0.4162 -0.8617
59274SOL    HW184937   9.665  10.836   5.770  0.2854 -0.4497 -2.4742
59274SOL    HW284938   9.687  10.984   5.746  0.6699  0.3215  1.8340
59275SOL     OW84939   4.941  12.761   4.975 -0.2514 -0.5688 -0.5409
59275SOL    HW184940   4.910  12.682   5.020  0.7403 -2.1045 -2.3744
59275SOL    HW284941   4.905  12.833   5.025 -1.9714 -2.1931  0.7098
59276SOL     OW84942   0.851   7.731   3.441 -0.4454 -0.1550 -0.2057
59276SOL    HW184943   0.783   7.744   3.508  1.6836  1.7363  1.7737
59276SOL    HW284944   0.843   7.807   3.384 -0.3976 -0.2531 -0.3415
59277SOL     OW84945   9.887   3.364  12.964 -0.0687  0.1146 -0.2874
59277SOL    HW184946   9.817   3.301  12.946  1.0507 -0.9323 -1.1827
59277SOL    HW284947   9.898   3.361  13.059  0.3052 -1.4988 -0.3348
59278SOL     OW84948   3.578   1.298   6.349 -0.0122 -0.5892 -0.0058
59278SOL    HW184949   3.653   1.307   6.290  0.0096  0.7678  0.1998
59278SOL    HW284950   3.532   1.220   6.318  1.2777 -1.2358 -0.3588
59279SOL     OW84951   7.176   0.365   6.757  0.3179 -0.0126  0.5432
59279SOL    HW184952   7.100   0.417   6.784  0.4346  0.0583  0.7388
59279SOL    HW284953   7.208   0.326   6.838  0.8599  0.4557  0.5620
59280SOL     OW84954  10.232   4.234  12.215 -0.3924  0.9251 -0.4325
59280SOL    HW184955  10.294   4.193  12.155 -0.9931 -1.0008  0.1526
59280SOL    HW284956  10.266   4.213  12.302 -1.9983 -0.5318 -0.0923
59281SOL     OW84957   2.931   3.745   0.799  0.1080 -0.3806 -0.0356
59281SOL    HW184958   3.018   3.743   0.840  0.9853 -0.7138 -1.8275
59281SOL    HW284959   2.914   3.654   0.776 -0.4209 -0.2108 -0.3257
59282SOL     OW84960   7.886   1.353   3.563  0.3076  0.1311 -0.1825
59282SOL    HW184961   7.978   1.330   3.574  0.6075  1.2851 -0.1562
59282SOL    HW284962   7.881   1.446   3.586 -0.7787  0.2026 -0.6224
59283SOL     OW84963   7.739   7.014   7.227 -0.2139  0.5994  0.3142
59283SOL    HW184964   7.827   6.977   7.219 -0.2054  0.7937 -0.7287
59283SOL    HW284965   7.680   6.939   7.223 -0.1937  0.6431 -1.6909
59284SOL     OW84966   4.636   2.681  12.399 -0.0078  0.2473 -0.0990
59284SOL    HW184967   4.690   2.611  12.436  0.1630  0.7693  0.6684
59284SOL    HW284968   4.546   2.655  12.417  0.0815  0.8620  1.4504
59285SOL     OW84969   5.769  10.706   2.175 -0.2062  0.2130 -0.5673
59285SOL    HW184970   5.681  10.673   2.192 -0.7165  1.8801  0.2544
59285SOL    HW284971   5.827  10.643   2.219 -1.0539 -0.2001 -0.0160
59286SOL     OW84972   0.743  11.669  12.940  0.5631 -0.2945  0.4037
59286SOL    HW184973   0.720  11.615  13.016  0.8235  0.1820  0.8301
59286SOL    HW284974   0.753  11.757  12.976  0.8761 -0.1000 -0.1545
59287SOL     OW84975  11.130  11.700   4.310  0.1792 -0.1950 -0.3380
59287SOL    HW184976  11.183  11.742   4.378 -0.1616  0.1524 -0.2778
59287SOL    HW284977  11.091  11.773   4.262 -2.9493 -0.3245  1.7170
59288SOL     OW84978   1.996   1.495   9.160  0.5502 -0.4071 -0.3576
59288SOL    HW184979   2.061   1.424   9.163  0.3687 -0.6374 -1.3418
59288SOL    HW284980   2.044   1.570   9.126  0.7234 -0.0649  0.6158
59289SOL     OW84981   2.574   8.622   3.397 -0.1231 -0.0521 -0.1200
59289SOL    HW184982   2.651   8.577   3.432  1.4446  0.1435 -3.0136
59289SOL    HW284983   2.574   8.708   3.438  0.7177 -0.3531  0.5191
59290SOL     OW84984   2.523   8.685   5.430 -0.1539  0.4487  0.2167
59290SOL    HW184985   2.505   8.762   5.377 -1.1728 -0.8336 -1.4014
59290SOL    HW284986   2.605   8.704   5.475 -0.9295  2.8837  0.7150
59291SOL     OW84987   2.123  12.515   6.035  0.1105  0.5990  0.1096
59291SOL    HW184988   2.085  12.446   5.980 -1.1440 -0.6639  2.3910
59291SOL    HW284989   2.216  12.515   6.013  0.2191 -2.1048  0.2416
59292SOL     OW84990  10.737   9.626  10.720  0.1626 -0.7754  0.4489
59292SOL    HW184991  10.814   9.673  10.687  0.9185 -0.8296  2.0513
59292SOL    HW284992  10.696   9.686  10.782  0.7971 -1.9494  2.0674
59293SOL     OW84993  10.415   8.478  10.732 -0.1427  0.3024 -0.4781
59293SOL    HW184994  10.413   8.451  10.640 -0.8349 -0.1112 -0.3442
59293SOL    HW284995  10.492   8.434  10.768 -0.4179 -0.3044 -0.6251
59294SOL     OW84996  12.180   0.322   5.739  0.3532  0.0644 -0.3239
59294SOL    HW184997  12.097   0.280   5.759 -0.5651  1.7909 -0.3078
59294SOL    HW284998  12.246   0.261   5.771 -0.9409 -0.5452  1.3612
59295SOL     OW84999  12.136  10.141   7.736  0.2078 -0.2684  0.3575
59295SOL    HW185000  12.208  10.198   7.762  0.0868 -0.0911  0.3046
59295SOL    HW285001  12.079  10.197   7.682 -0.0422 -0.3661  0.5177
59296SOL     OW85002  10.615   3.022   8.524 -0.0854  0.2370 -0.1743
59296SOL    HW185003  10.703   3.059   8.531  0.4421 -0.4233 -2.3608
59296SOL    HW285004  10.628   2.940   8.475 -1.7463 -0.6375  0.7570
59297SOL     OW85005   8.904   9.954   1.891 -0.1953  0.0122 -0.1112
59297SOL    HW185006   8.955   9.998   1.823 -0.7018  0.6288 -0.0925
59297SOL    HW285007   8.966   9.943   1.964 -0.3979  1.9176  0.4064
59298SOL     OW85008   1.934   4.078   0.207  0.5726  0.4650 -0.2977
59298SOL    HW185009   2.013   4.031   0.179  1.5038  1.4910  0.5118
59298SOL    HW285010   1.884   4.091   0.127  1.3883  0.1006 -0.8817
59299SOL     OW85011   0.901  11.623  12.251 -0.1246  0.3019  0.2622
59299SOL    HW185012   0.905  11.562  12.325 -1.4574  0.1831  0.2637
59299SOL    HW285013   0.844  11.580  12.187 -0.3288  1.1310 -0.1338
59300SOL     OW85014  12.698  11.055   2.680  0.0338  0.2047 -0.3283
59300SOL    HW185015  12.694  10.986   2.613  0.7055 -0.1612 -0.0040
59300SOL    HW285016  12.731  11.011   2.758  0.8590  0.9776 -0.2260
59301SOL     OW85017   5.291  11.112  11.636  0.4225 -0.0254  0.4941
59301SOL    HW185018   5.250  11.170  11.701  0.4366  0.0662  0.4218
59301SOL    HW285019   5.344  11.051  11.688  0.4830  0.0870  0.5650
59302SOL     OW85020   3.260   5.717   1.935 -0.3679 -0.0237  0.5593
59302SOL    HW185021   3.338   5.666   1.957  0.9109  1.8959  0.6741
59302SOL    HW285022   3.270   5.799   1.983 -3.1609 -0.2193  1.6872
59303SOL     OW85023   9.908   7.416  12.754 -0.1785  0.4769 -0.5429
59303SOL    HW185024   9.861   7.450  12.830 -1.9874  0.7378 -1.7389
59303SOL    HW285025  10.000   7.422  12.779 -0.7189  0.5887  1.6094
59304SOL     OW85026  12.401   0.916  11.516  0.2342 -0.7166 -0.5366
59304SOL    HW185027  12.374   0.962  11.436  1.1554 -0.7826 -0.8941
59304SOL    HW285028  12.319   0.881  11.551 -0.3528  0.3367 -0.7934
59305SOL     OW85029   6.587   3.213   0.071 -0.4010  0.0628 -0.6384
59305SOL    HW185030   6.579   3.118   0.081 -0.7640  0.1270 -0.2349
59305SOL    HW285031   6.504   3.240   0.031 -1.8425  0.6015  2.4274
59306SOL     OW85032   8.537  12.255  12.653 -0.2246  0.1096  0.1644
59306SOL    HW185033   8.476  12.322  12.684 -0.6006  0.6202 -1.5717
59306SOL    HW285034   8.535  12.263  12.558  2.8886  0.4378  0.0253
59307SOL     OW85035   4.283   2.986   6.909  0.0318 -0.0177 -0.4223
59307SOL    HW185036   4.296   3.065   6.857 -0.9232 -1.3148 -2.8021
59307SOL    HW285037   4.191   2.963   6.896 -0.3569 -0.2871  2.1521
59308SOL     OW85038   0.749  11.670   2.231 -0.3901 -0.0762 -0.1404
59308SOL    HW185039   0.773  11.758   2.260 -0.0840  0.5224 -2.0970
59308SOL    HW285040   0.817  11.614   2.267 -0.9453  0.3552  1.6915
59309SOL     OW85041   9.214   9.118   8.780 -0.3842  0.4427  0.0887
59309SOL    HW185042   9.243   9.031   8.752 -2.1434 -0.6761  1.5042
59309SOL    HW285043   9.167   9.153   8.704  1.7362  0.9249 -1.0761
59310SOL     OW85044   1.363  11.311  12.154  0.3531 -0.9570  0.0687
59310SOL    HW185045   1.285  11.257  12.164  1.2619 -1.9693  2.8127
59310SOL    HW285046   1.434  11.248  12.144  0.9497 -0.0713 -1.6581
59311SOL     OW85047   3.814   8.066   7.696  0.5236 -0.2907  0.1744
59311SOL    HW185048   3.779   7.980   7.719  1.9727 -1.1259 -0.6266
59311SOL    HW285049   3.881   8.082   7.762 -0.9152  1.0631  1.3850
59312SOL     OW85050   9.381   2.407   6.359  0.1472 -0.3354 -0.7524
59312SOL    HW185051   9.346   2.468   6.295  2.1162 -1.0497 -2.6219
59312SOL    HW285052   9.320   2.411   6.433 -2.0254  0.7687 -2.5208
59313SOL     OW85053   3.621   6.791  12.655 -0.4371 -0.1613 -0.4915
59313SOL    HW185054   3.559   6.732  12.698 -0.5939  0.7264  0.5658
59313SOL    HW285055   3.598   6.878  12.688  1.5263  0.1668  0.1562
59314SOL     OW85056   1.645  10.231   4.170  0.4304  0.3824  0.0602
59314SOL    HW185057   1.700  10.239   4.091  0.6593  0.3045  0.2110
59314SOL    HW285058   1.609  10.143   4.165  0.8955  0.1729  0.3317
59315SOL     OW85059  12.802   5.769  11.073 -0.4958  0.8618 -0.0811
59315SOL    HW185060  12.854   5.797  10.999 -0.9379  2.0776  0.0509
59315SOL    HW285061  12.863   5.721  11.129  0.1444  1.0734 -0.5896
59316SOL     OW85062   3.729   8.686   1.620  0.3448  0.2751  0.2723
59316SOL    HW185063   3.782   8.757   1.656 -0.3001  0.5801  0.6217
59316SOL    HW285064   3.780   8.607   1.640  0.7963  0.5829  0.3703
59317SOL     OW85065   3.426   8.859   6.764 -0.3514 -0.3354 -0.1890
59317SOL    HW185066   3.367   8.828   6.832  1.1439 -1.7158  0.5448
59317SOL    HW285067   3.448   8.780   6.714  1.0917  0.0661 -0.2320
59318SOL     OW85068   2.886  10.404   6.651 -0.3581 -0.3078  0.3393
59318SOL    HW185069   2.852  10.371   6.568 -0.8275  1.2752 -0.1466
59318SOL    HW285070   2.977  10.374   6.654 -0.4487 -0.6975 -0.5614
59319SOL     OW85071   4.296  12.202   9.403  0.3058  0.2466  0.2642
59319SOL    HW185072   4.300  12.117   9.448  0.4825  0.2634  0.2807
59319SOL    HW285073   4.356  12.193   9.329  1.4902  0.8611  1.1272
59320SOL     OW85074   2.512   5.901   2.532  0.3069 -0.2298  0.2273
59320SOL    HW185075   2.521   5.826   2.591 -0.5078  0.7564  1.6911
59320SOL    HW285076   2.434   5.882   2.480  1.6020 -1.5716 -1.3097
59321SOL     OW85077   5.916  12.931  12.028 -0.2212 -0.3936  0.2159
59321SOL    HW185078   5.994  12.985  12.036 -0.8180  0.5301 -0.0570
59321SOL    HW285079   5.934  12.873  11.955  0.7067 -1.0679  0.9483
59322SOL     OW85080  11.600   3.617   8.147 -0.4504  0.0484 -0.1186
59322SOL    HW185081  11.505   3.619   8.160 -0.4859 -1.3187 -0.0465
59322SOL    HW285082  11.621   3.525   8.132  0.8172  0.3804 -0.5652
59323SOL     OW85083  12.413   0.064   5.012  0.5438  0.2118 -0.0266
59323SOL    HW185084  12.475   0.045   5.082 -0.1467  0.8448  0.7853
59323SOL    HW285085  12.331   0.023   5.042 -0.3690  2.3995  0.6750
59324SOL     OW85086   7.525  10.380   5.444  0.0322 -0.0589  0.4221
59324SOL    HW185087   7.537  10.368   5.539 -0.6098 -0.2955  0.4744
59324SOL    HW285088   7.562  10.301   5.405  1.3757  0.5518  0.3903
59325SOL     OW85089  12.167   0.783   8.545 -0.1524  0.3025  0.6101
59325SOL    HW185090  12.073   0.783   8.564 -0.3111  0.7784 -0.1416
59325SOL    HW285091  12.174   0.741   8.459  0.4809 -1.1296  1.3264
59326SOL     OW85092   7.957   4.407  12.763 -0.4397  0.2929  0.1236
59326SOL    HW185093   7.893   4.344  12.793 -0.7533  0.9264  0.8079
59326SOL    HW285094   7.930   4.490  12.802  0.3480  0.7231 -0.2130
59327SOL     OW85095   3.894   7.756  12.345  0.1871  0.5153 -0.0660
59327SOL    HW185096   3.801   7.750  12.321  0.0449 -0.9532  0.7492
59327SOL    HW285097   3.906   7.847  12.369 -0.9581  0.8118 -0.5187
59328SOL     OW85098   3.630   1.985   8.341 -0.4473 -0.4354 -0.1063
59328SOL    HW185099   3.586   2.036   8.409  0.4714 -0.3667  0.4498
59328SOL    HW285100   3.694   2.045   8.304 -0.8675 -0.5074 -0.9695
59329SOL     OW85101   3.042   8.091   9.771 -0.2360  0.7041  0.2733
59329SOL    HW185102   3.042   8.084   9.676  1.2801  1.3358  0.2033
59329SOL    HW285103   2.995   8.013   9.801 -1.2338  0.7998 -0.9966
59330SOL     OW85104   5.563   3.897   9.532  0.4452  0.4390  0.0948
59330SOL    HW185105   5.530   3.834   9.595 -0.2111 -1.4968 -2.0408
59330SOL    HW285106   5.508   3.974   9.543 -1.8671 -1.0661 -0.2804
59331SOL     OW85107  10.223   6.713   6.259 -0.2060  0.1512 -0.3612
59331SOL    HW185108  10.155   6.742   6.198 -0.7810 -0.0371  0.1783
59331SOL    HW285109  10.289   6.782   6.257 -1.0428  0.9829  0.0982
59332SOL     OW85110   9.027   1.151   7.478 -0.0823  0.3119  0.0146
59332SOL    HW185111   9.121   1.158   7.460 -0.2281  0.8216 -0.5745
59332SOL    HW285112   8.985   1.162   7.392 -0.7642  2.0298  0.5290
59333SOL     OW85113  12.153   3.559   3.377  0.4617  0.8013  0.7562
59333SOL    HW185114  12.239   3.558   3.335  1.3617  1.3015  2.5176
59333SOL    HW285115  12.120   3.470   3.366  1.5498  0.3853  0.7451
59334SOL     OW85116   4.632   4.251  11.416  0.7738 -0.2093  0.4307
59334SOL    HW185117   4.708   4.194  11.425  0.0500 -1.1814  0.4312
59334SOL    HW285118   4.662   4.322  11.359  1.3188 -1.2313 -0.5679
59335SOL     OW85119   1.862  12.465   9.581  0.5386 -0.4222  0.7948
59335SOL    HW185120   1.914  12.494   9.506  1.4434 -0.9277  1.2011
59335SOL    HW285121   1.785  12.423   9.542 -0.7394  2.2648  0.1932
59336SOL     OW85122  10.867   1.920   2.150  0.0217  0.2178 -0.2742
59336SOL    HW185123  10.948   1.913   2.101  0.0844  0.2573 -0.1785
59336SOL    HW285124  10.810   1.974   2.095  0.7101  1.7574  0.4655
59337SOL     OW85125  11.031  10.697  10.853  0.5376 -0.3734  0.2625
59337SOL    HW185126  11.112  10.746  10.840 -0.4529  0.8263 -1.9905
59337SOL    HW285127  10.964  10.764  10.865 -0.2467 -1.3332  1.6043
59338SOL     OW85128   7.612   4.465  12.911 -0.1248  0.2647 -0.4629
59338SOL    HW185129   7.520   4.447  12.891  0.3853 -0.7472 -2.1436
59338SOL    HW285130   7.634   4.539  12.855  0.5998 -0.8300 -1.6932
59339SOL     OW85131   4.682   0.408   8.601 -0.6131 -0.3315 -0.0886
59339SOL    HW185132   4.617   0.412   8.531 -1.6276  0.5081  0.8736
59339SOL    HW285133   4.664   0.485   8.655  1.9214  0.5816 -0.4138
59340SOL     OW85134   8.847   2.450   7.363  0.7148  0.1338  0.0574
59340SOL    HW185135   8.809   2.363   7.353  0.4586 -0.0102  1.9643
59340SOL    HW285136   8.779   2.500   7.409  1.3551  0.9676  0.1148
59341SOL     OW85137   6.091   3.024   9.282 -0.4045 -0.2641  0.1215
59341SOL    HW185138   6.068   3.106   9.326 -0.2146  0.3384 -0.8778
59341SOL    HW285139   6.124   2.968   9.353  2.2008  1.5072  0.4739
59342SOL     OW85140   4.812  10.789   0.281 -0.1175 -0.1863  0.1915
59342SOL    HW185141   4.777  10.818   0.365  0.5851  0.7325  0.1864
59342SOL    HW285142   4.892  10.742   0.303  0.2963  0.4283  0.0179
59343SOL     OW85143   7.983   3.558   6.838 -0.0238 -0.3143 -0.1838
59343SOL    HW185144   7.995   3.472   6.799 -2.3212 -1.5822  1.6243
59343SOL    HW285145   8.040   3.557   6.915  0.0068 -0.1825 -0.2045
59344SOL     OW85146   9.747  10.771   3.216  0.1759  0.9131  0.4895
59344SOL    HW185147   9.705  10.834   3.157  0.0462 -0.9831 -1.5693
59344SOL    HW285148   9.674  10.733   3.265  0.0711  1.2267  0.5791
59345SOL     OW85149   0.738   1.594   3.920 -0.1096  0.2476  0.0059
59345SOL    HW185150   0.679   1.560   3.853 -1.4433  0.4724  1.0339
59345SOL    HW285151   0.694   1.576   4.003  1.4395  0.1106  0.8357
59346SOL     OW85152  12.799   6.556  11.715  0.5427 -0.2813 -0.5651
59346SOL    HW185153  12.853   6.512  11.649  0.8938 -0.8073  0.0533
59346SOL    HW285154  12.788   6.490  11.784  1.1865  0.6248  0.4426
59347SOL     OW85155   2.357  10.931   1.951  0.3349 -0.2110  0.3575
59347SOL    HW185156   2.322  10.853   1.994  0.3787  0.3017  1.3523
59347SOL    HW285157   2.452  10.915   1.946  0.4291  0.0411  1.1504
59348SOL     OW85158   8.233  11.298   1.356 -0.1860 -0.4744  0.0517
59348SOL    HW185159   8.247  11.251   1.273 -1.1603 -0.4320 -0.1493
59348SOL    HW285160   8.190  11.380   1.330  0.7964  0.1951  0.4783
59349SOL     OW85161   1.405   3.491   2.723  0.3172 -0.1755  0.8119
59349SOL    HW185162   1.317   3.470   2.754 -1.0018  2.2841 -0.8596
59349SOL    HW285163   1.436   3.412   2.680 -0.9799 -1.1635  1.6372
59350SOL     OW85164   7.691   5.983   9.867 -0.0904 -0.2178  0.4321
59350SOL    HW185165   7.627   6.030   9.814  0.3136 -0.1868 -0.0411
59350SOL    HW285166   7.744   5.935   9.803  1.0075  0.5672  0.7277
59351SOL     OW85167   5.102   9.841   0.350 -0.0343 -0.3061  0.9998
59351SOL    HW185168   5.159   9.918   0.354 -2.9953  2.1451 -0.4115
59351SOL    HW285169   5.035   9.857   0.416  0.5042 -2.8754  2.2854
59352SOL     OW85170   4.032   3.799  12.002  0.6646  0.2732 -0.2023
59352SOL    HW185171   4.037   3.834  11.913  2.6135  2.0179  0.4949
59352SOL    HW285172   3.976   3.862  12.048  0.1909 -0.2630 -0.0458
59353SOL     OW85173   5.684   0.794   2.566  0.1026  0.4764 -0.3211
59353SOL    HW185174   5.623   0.729   2.602  0.3538  0.8690  0.8804
59353SOL    HW285175   5.632   0.873   2.556 -0.2298  0.0969 -1.8868
59354SOL     OW85176  10.936  11.723   3.332  0.4433 -0.3992 -0.1598
59354SOL    HW185177  10.955  11.725   3.238 -0.6098 -1.5445 -0.4236
59354SOL    HW285178  10.872  11.652   3.342  0.4937 -0.2570  1.4162
59355SOL     OW85179   0.094  10.062   2.330 -0.7018  0.0945 -0.2999
59355SOL    HW185180   0.011  10.097   2.365  0.9948  1.4828  2.7491
59355SOL    HW285181   0.137  10.138   2.291 -0.4748 -0.4401 -1.1150
59356SOL     OW85182   1.870   3.645  12.827 -0.0916 -0.5952 -0.3675
59356SOL    HW185183   1.923   3.565  12.825 -0.0721 -0.6274  0.7363
59356SOL    HW285184   1.878   3.681  12.739  1.8171 -0.5879 -0.2493
59357SOL     OW85185  12.461   7.660  12.221  0.1243 -0.0359  0.2547
59357SOL    HW185186  12.434   7.665  12.313 -2.6982  0.4889 -0.4998
59357SOL    HW285187  12.454   7.750  12.189 -0.1952 -0.4079 -0.7649
59358SOL     OW85188   6.105   4.584   2.681 -0.3759 -0.1551 -0.4202
59358SOL    HW185189   6.170   4.546   2.740  0.4448 -0.5989 -1.5621
59358SOL    HW285190   6.129   4.549   2.594 -0.9149  1.2767 -1.1723
59359SOL     OW85191   8.566   8.951   6.722 -0.4078 -0.1042  0.6163
59359SOL    HW185192   8.623   8.895   6.775  0.8161 -2.6022 -2.8997
59359SOL    HW285193   8.622   9.023   6.694 -0.8191  0.7625  1.9429
59360SOL     OW85194   2.357   2.677   5.099 -0.6287  0.0958 -0.3382
59360SOL    HW185195   2.295   2.695   5.169 -0.6951  0.5661 -0.5163
59360SOL    HW285196   2.310   2.617   5.040 -0.4997 -0.4607  0.1177
59361SOL     OW85197   7.946  12.044   3.552 -0.2887  0.3371  0.0300
59361SOL    HW185198   7.968  11.953   3.573 -0.2929  0.7473  1.9839
59361SOL    HW285199   8.031  12.088   3.542 -0.2100  0.6975  1.9334
59362SOL     OW85200  11.090  11.995   6.649  0.6088  0.0649  0.3581
59362SOL    HW185201  11.021  11.942   6.608 -1.6898  2.1058  1.3152
59362SOL    HW285202  11.149  11.931   6.688 -1.0611 -1.8218 -0.0107
59363SOL     OW85203   6.220   9.011   0.747  0.0429  0.3258  0.3103
59363SOL    HW185204   6.267   9.027   0.665 -0.0627 -1.2986 -0.1099
59363SOL    HW285205   6.155   9.081   0.752  0.0834  0.4785 -0.9693
59364SOL     OW85206   1.727   9.944   9.921  0.1806  0.2061  0.4935
59364SOL    HW185207   1.668   9.919   9.850  2.2114  1.6141 -1.8207
59364SOL    HW285208   1.672   9.995   9.981 -1.6651 -1.3098  0.1693
59365SOL     OW85209  10.539   8.238   9.445  0.4207 -0.1674 -0.0434
59365SOL    HW185210  10.506   8.309   9.389 -1.0770 -0.2742  0.6461
59365SOL    HW285211  10.633   8.253   9.450  0.1519  1.7831  0.0794
59366SOL     OW85212  12.156   3.676   6.599 -0.1680 -0.2341  0.0190
59366SOL    HW185213  12.171   3.612   6.530 -1.2494  0.0131 -0.4732
59366SOL    HW285214  12.061   3.676   6.611  0.0462 -1.1993  2.4129
59367SOL     OW85215   7.786   6.152  10.736  0.3070 -0.3855 -0.3727
59367SOL    HW185216   7.814   6.234  10.695  1.0294  0.1081  1.0353
59367SOL    HW285217   7.810   6.162  10.828 -0.2876 -1.8821 -0.0279
59368SOL     OW85218   4.094   6.532  11.765  0.2835 -0.4634 -0.2315
59368SOL    HW185219   4.068   6.624  11.767  3.2847  0.5157 -0.7670
59368SOL    HW285220   4.034   6.491  11.704 -2.8948  0.4266  2.0293
59369SOL     OW85221  10.912   5.910   8.273 -0.7937 -0.5630 -0.1606
59369SOL    HW185222  10.876   5.865   8.349  1.7608 -0.1958  1.3605
59369SOL    HW285223  10.997   5.869   8.258 -0.3815  0.7039 -1.5840
59370SOL     OW85224   8.316   2.661   3.220  0.5213  0.0426 -0.8984
59370SOL    HW185225   8.268   2.630   3.142 -2.2072  1.3046  0.1432
59370SOL    HW285226   8.341   2.751   3.199  0.2887  0.1909 -0.5563
59371SOL     OW85227   5.911   4.538  10.015  0.4877 -0.1274  0.0071
59371SOL    HW185228   5.971   4.465  10.005  1.5694  0.6455  0.6599
59371SOL    HW285229   5.951   4.594  10.082 -0.5668  0.7984 -0.0976
59372SOL     OW85230  12.312   4.840   6.737 -0.0861 -0.0673 -0.1166
59372SOL    HW185231  12.267   4.889   6.668 -0.5199 -0.1248  0.1229
59372SOL    HW285232  12.378   4.788   6.691 -0.2580  0.0246 -0.4681
59373SOL     OW85233   7.612   7.959  10.468  0.3645  0.0200  0.0381
59373SOL    HW185234   7.705   7.964  10.444  0.3003  2.1818  0.0337
59373SOL    HW285235   7.594   7.865  10.475  1.7391 -0.5801 -3.0091
59374SOL     OW85236  12.408  12.422  10.367  0.3087  0.4319  0.0397
59374SOL    HW185237  12.452  12.436  10.283  0.8128  0.5596  0.3227
59374SOL    HW285238  12.405  12.327  10.377 -2.3288  0.2429 -1.4668
59375SOL     OW85239   2.245   7.438   9.181  0.4237  0.0324 -0.0703
59375SOL    HW185240   2.278   7.441   9.091  1.9979  0.0425  0.4626
59375SOL    HW285241   2.153   7.415   9.172  0.0290  1.9247 -1.7843
59376SOL     OW85242  10.166   7.214   9.007 -0.0976 -0.3135  0.3367
59376SOL    HW185243  10.194   7.154   8.938  0.3309 -0.8379  0.9490
59376SOL    HW285244  10.235   7.281   9.009 -1.4415  1.2232 -1.5224
59377SOL     OW85245   0.196   1.832   9.039 -0.3995 -0.3655  0.1583
59377SOL    HW185246   0.183   1.742   9.069  1.2955 -0.6071  0.2664
59377SOL    HW285247   0.256   1.870   9.103  2.5622 -0.5937 -2.2378
59378SOL     OW85248   7.478   0.331   3.603 -0.0789  0.2369 -0.2812
59378SOL    HW185249   7.484   0.248   3.554 -1.5515  1.4229 -2.6650
59378SOL    HW285250   7.389   0.330   3.639 -0.2305  0.9050 -0.6291
59379SOL     OW85251  11.999   3.578   8.134 -0.0685 -0.1485  0.4987
59379SOL    HW185252  12.085   3.545   8.108 -0.1217  0.3044 -0.2921
59379SOL    HW285253  11.953   3.592   8.051  0.0515  2.1534  0.7724
59380SOL     OW85254   3.139   9.998   5.288  0.3829  0.1005 -0.5099
59380SOL    HW185255   3.047  10.023   5.282  0.3246  0.0606  0.1464
59380SOL    HW285256   3.175  10.052   5.358 -0.0022 -2.2864  1.7086
59381SOL     OW85257  10.283   4.853   7.443  0.2119  0.6100 -0.0867
59381SOL    HW185258  10.342   4.865   7.518  0.5858  0.4143 -0.3499
59381SOL    HW285259  10.323   4.783   7.392 -1.1352 -0.7564  0.6291
59382SOL     OW85260   7.975   9.530   6.871  0.4232 -0.6286 -0.0144
59382SOL    HW185261   7.929   9.521   6.954  0.9828  0.5922  0.4475
59382SOL    HW285262   8.030   9.607   6.882 -0.0484  0.0085 -1.7822
59383SOL     OW85263   8.445   6.184   0.971 -0.2346 -0.1354 -0.3091
59383SOL    HW185264   8.371   6.188   0.911 -0.2294  0.6374 -0.2760
59383SOL    HW285265   8.467   6.091   0.976 -2.1044 -0.5926  0.7636
59384SOL     OW85266  11.845   8.520   3.349  0.0675 -0.0359  0.3716
59384SOL    HW185267  11.849   8.436   3.395  2.3651  0.1262  0.5792
59384SOL    HW285268  11.846   8.496   3.256  0.5564 -0.2797  0.4318
59385SOL     OW85269   6.530  12.130   6.732 -0.0165  0.6653  0.0624
59385SOL    HW185270   6.447  12.128   6.685 -0.0719 -0.2132  0.1915
59385SOL    HW285271   6.547  12.039   6.756 -0.2934  1.1357  2.2604
59386SOL     OW85272   4.417   4.481   3.910  0.4260 -0.6134  0.0873
59386SOL    HW185273   4.405   4.576   3.903 -2.0530 -0.7114  1.6926
59386SOL    HW285274   4.412   4.449   3.820 -1.2007  0.5873 -0.3004
59387SOL     OW85275  11.682   9.730   5.498  0.4971  0.2056  0.0324
59387SOL    HW185276  11.637   9.814   5.505 -0.6189 -0.5264  4.2171
59387SOL    HW285277  11.614   9.668   5.471 -0.1395 -0.1958  2.3629
59388SOL     OW85278   7.444   8.641   7.716  0.1917  0.0613 -0.2198
59388SOL    HW185279   7.528   8.628   7.761 -0.4548 -0.2480  0.9327
59388SOL    HW285280   7.459   8.608   7.628  0.7729 -1.6181  0.4789
59389SOL     OW85281  11.458   9.542   0.955 -0.1544 -0.1448  0.2421
59389SOL    HW185282  11.540   9.492   0.942 -0.0425 -0.0056  0.4076
59389SOL    HW285283  11.475   9.626   0.914  0.3327  0.4331  1.5620
59390SOL     OW85284  11.799   5.087   2.722 -0.1372 -0.5024  0.7074
59390SOL    HW185285  11.782   5.100   2.628  0.1638  3.1678  1.0003
59390SOL    HW285286  11.714   5.101   2.764  0.0160 -0.6204  1.0628
59391SOL     OW85287   8.736   7.697  11.230 -0.2588  0.3990  0.3669
59391SOL    HW185288   8.764   7.747  11.307 -1.8212  0.8462  0.6891
59391SOL    HW285289   8.710   7.612  11.265  0.4187  0.0771  0.1087
59392SOL     OW85290  10.873   0.667  12.195 -0.1824  0.2737  0.1108
59392SOL    HW185291  10.941   0.616  12.151 -0.2783 -1.0410  1.3918
59392SOL    HW285292  10.916   0.748  12.221  0.5124  0.0406 -0.2951
59393SOL     OW85293  10.882   0.480   7.934  0.7386 -0.0659 -0.0956
59393SOL    HW185294  10.918   0.566   7.918  1.2506  0.1864  2.1255
59393SOL    HW285295  10.794   0.496   7.969  1.9951 -0.1391  3.5619
59394SOL     OW85296   0.491   5.444   8.057  0.3047 -0.0856  0.3302
59394SOL    HW185297   0.437   5.454   7.979  1.2606 -1.0848 -0.4994
59394SOL    HW285298   0.430   5.421   8.126 -0.4576 -0.0496 -0.3213
59395SOL     OW85299   5.088   6.785   4.453  0.0602 -0.1032  0.6303
59395SOL    HW185300   5.085   6.755   4.363 -2.3462  0.0228  0.5864
59395SOL    HW285301   5.113   6.877   4.447  1.0615 -0.4000  0.2037
59396SOL     OW85302   7.198   8.395   2.688 -0.3418 -0.3900  0.3807
59396SOL    HW185303   7.169   8.475   2.645  0.9011 -0.2230 -0.1942
59396SOL    HW285304   7.225   8.422   2.775  0.6265 -0.0593 -0.0084
59397SOL     OW85305   3.720  11.903   9.439 -0.3999  0.2353  0.2282
59397SOL    HW185306   3.659  11.831   9.450 -0.2894 -0.0679 -1.0477
59397SOL    HW285307   3.673  11.979   9.474 -1.9736  0.2229 -1.7039
59398SOL     OW85308   9.290  12.762   2.604 -0.3273  0.1165 -0.0506
59398SOL    HW185309   9.355  12.827   2.631 -1.4882  0.7688  1.3510
59398SOL    HW285310   9.223  12.766   2.673 -1.5431 -0.9575 -1.1236
59399SOL     OW85311   3.510   3.651   5.910  0.6103  0.0816 -0.1469
59399SOL    HW185312   3.582   3.705   5.943 -1.5049  2.2761  1.1981
59399SOL    HW285313   3.478   3.604   5.987 -1.2329  1.4177 -0.0530
59400SOL     OW85314   7.608   7.441   1.353  0.7009  0.3289  0.7275
59400SOL    HW185315   7.514   7.422   1.353  0.5970  0.8465  0.6874
59400SOL    HW285316   7.622   7.496   1.276  0.9065  0.9068  1.1739
59401SOL     OW85317  12.849   2.674  11.754  0.0181 -0.2224 -0.5999
59401SOL    HW185318  12.781   2.689  11.819 -0.2803 -1.2760 -0.6486
59401SOL    HW285319  12.904   2.752  11.758 -1.4352  0.8590 -0.8701
59402SOL     OW85320  12.824   4.325   3.800 -0.3563 -0.4540  0.8675
59402SOL    HW185321  12.901   4.381   3.812 -0.9410  0.4597  0.5125
59402SOL    HW285322  12.752   4.376   3.836 -1.2880  0.0621 -1.5337
59403SOL     OW85323   7.810   1.522   2.816  0.1514 -0.6688  0.4994
59403SOL    HW185324   7.790   1.497   2.726  0.4017  3.1911 -0.7982
59403SOL    HW285325   7.904   1.510   2.824  0.0990 -1.2200  0.3402
59404SOL     OW85326  12.314  12.408   6.651  0.2281 -0.1941 -0.6509
59404SOL    HW185327  12.292  12.326   6.695  0.9274  0.4290  0.9611
59404SOL    HW285328  12.409  12.405   6.640 -0.0439 -0.9605 -3.5520
59405SOL     OW85329  10.586   6.020   0.647 -0.0785  0.4265  0.2077
59405SOL    HW185330  10.619   6.091   0.593  0.4664  2.4682  3.0084
59405SOL    HW285331  10.512   6.058   0.694  0.5294 -0.6484  2.1423
59406SOL     OW85332   1.879   1.947   7.057  0.5809  0.5164  0.5204
59406SOL    HW185333   1.884   2.042   7.047  0.1759  0.4519 -0.4845
59406SOL    HW285334   1.968   1.920   7.076  0.7968  1.0587  0.3130
59407SOL     OW85335   6.493   3.539   4.874 -0.0374 -0.6460 -0.4915
59407SOL    HW185336   6.565   3.541   4.938  0.3859 -1.4806 -0.9214
59407SOL    HW285337   6.419   3.504   4.923 -0.1102  0.0311 -0.0970
59408SOL     OW85338   6.783  11.973  10.857  0.3752 -0.3557  0.2947
59408SOL    HW185339   6.878  11.966  10.852  0.3469 -0.2993 -0.5142
59408SOL    HW285340   6.752  11.927  10.778 -0.2533 -0.1835  0.4390
59409SOL     OW85341   2.289   5.350   2.774 -0.0591  0.1328 -0.3293
59409SOL    HW185342   2.339   5.278   2.736  1.7862  1.3718 -0.4397
59409SOL    HW285343   2.253   5.315   2.855 -1.7762 -1.7552 -1.8369
59410SOL     OW85344   0.988   4.358   8.464 -0.3076 -0.0210 -0.0496
59410SOL    HW185345   0.949   4.403   8.389  0.8396 -0.1459 -0.7500
59410SOL    HW285346   0.958   4.407   8.540 -0.8225  0.6150 -0.6537
59411SOL     OW85347  12.031   1.515   9.445  0.0467  0.5035 -0.6213
59411SOL    HW185348  12.017   1.589   9.386  0.6246  0.8136 -0.3755
59411SOL    HW285349  12.066   1.446   9.389  0.4241  0.7376 -0.6735
59412SOL     OW85350  12.124   1.899   0.129  0.2110  0.4014 -0.1929
59412SOL    HW185351  12.161   1.879   0.043  0.3879 -2.2034  0.3965
59412SOL    HW285352  12.081   1.818   0.156  1.3397  0.6628  2.7679
59413SOL     OW85353  10.926   2.851   4.048 -0.2391 -0.6824  0.3376
59413SOL    HW185354  11.017   2.838   4.019 -0.2834  1.3538 -0.9441
59413SOL    HW285355  10.873   2.811   3.980 -0.2948  1.1143 -0.7424
59414SOL     OW85356   1.025   7.437   9.796 -0.1702 -0.0305  0.2177
59414SOL    HW185357   1.078   7.366   9.760  1.6670  1.4465 -0.1152
59414SOL    HW285358   1.013   7.414   9.888 -0.0524 -1.0221 -0.0061
59415SOL     OW85359   7.542  12.206  11.195  0.4629 -0.2736  0.6594
59415SOL    HW185360   7.578  12.285  11.155  1.2723 -1.3654 -0.8857
59415SOL    HW285361   7.609  12.177  11.256  0.3509  0.0090  0.9150
59416SOL     OW85362   5.569   8.506  12.148  0.7010  0.5487  0.3033
59416SOL    HW185363   5.661   8.527  12.167  0.5664  0.5553  0.9495
59416SOL    HW285364   5.535   8.469  12.229  0.2070  0.2698 -0.0240
59417SOL     OW85365   7.344   5.630   0.074 -0.1060 -0.3122  0.0697
59417SOL    HW185366   7.411   5.650   0.139  0.5733 -0.8334 -0.4639
59417SOL    HW285367   7.285   5.569   0.119 -0.0682 -0.0759  0.4464
59418SOL     OW85368  11.923   0.662   2.408  0.3808 -0.0983 -0.1547
59418SOL    HW185369  11.919   0.673   2.313 -2.3650 -2.7170 -0.4953
59418SOL    HW285370  12.005   0.614   2.423  0.1788 -0.8953 -1.4209
59419SOL     OW85371   7.858   0.892   0.285 -0.0122  0.4348  0.3774
59419SOL    HW185372   7.826   0.848   0.206 -2.2541  1.0930  0.8531
59419SOL    HW285373   7.874   0.982   0.258  1.8563  0.0708  0.0882
59420SOL     OW85374   4.515   7.022   4.669 -0.0397  0.1411  0.4365
59420SOL    HW185375   4.542   6.947   4.615 -0.0278  0.0324  0.5926
59420SOL    HW285376   4.572   7.018   4.745  0.6618  0.9121 -0.0328
59421SOL     OW85377   2.129   5.543   3.231  0.2242  0.4313  0.1535
59421SOL    HW185378   2.067   5.479   3.267  0.1183  0.2844 -0.2838
59421SOL    HW285379   2.076   5.621   3.214 -0.0797 -0.0394 -1.2078
59422SOL     OW85380   6.008   7.738   4.098  0.2769  0.7706  0.1372
59422SOL    HW185381   6.075   7.719   4.163  1.3178  1.3585 -0.7398
59422SOL    HW285382   6.035   7.688   4.020 -0.3636  0.9276 -0.1915
59423SOL     OW85383   1.866  10.614   3.782  0.6520 -0.0089  0.9786
59423SOL    HW185384   1.810  10.685   3.751  0.6646 -1.3965 -2.7358
59423SOL    HW285385   1.805  10.545   3.808  0.4281 -1.2878 -2.4846
59424SOL     OW85386  10.231   3.412   6.886 -0.0134  0.0572 -0.0325
59424SOL    HW185387  10.255   3.324   6.916 -1.3336 -0.3684 -0.1369
59424SOL    HW285388  10.154   3.398   6.831 -2.3517  1.5169  2.5868
59425SOL     OW85389  12.473  12.087   1.670  0.3202  0.4661 -0.3225
59425SOL    HW185390  12.490  12.152   1.737  1.8812 -0.8794  0.6589
59425SOL    HW285391  12.559  12.055   1.645 -0.4011 -1.4294 -0.5436
59426SOL     OW85392   0.193  10.349   5.747  0.2584  0.2679  0.0789
59426SOL    HW185393   0.161  10.280   5.689  0.6797 -2.0443  2.4028
59426SOL    HW285394   0.242  10.408   5.690  0.9497 -2.0406 -1.8796
59427SOL     OW85395   4.090   0.645   8.267 -0.6129  0.0975 -0.2566
59427SOL    HW185396   3.997   0.645   8.245 -0.9944  1.6673  1.1697
59427SOL    HW285397   4.095   0.594   8.348 -0.1906 -0.1064 -0.4066
59428SOL     OW85398   8.011  10.471  10.172  0.0987  0.6296  0.1217
59428SOL    HW185399   8.080  10.449  10.109  2.1149  1.0631  2.0484
59428SOL    HW285400   7.990  10.562  10.152 -1.4727 -0.0881 -1.7905
59429SOL     OW85401   2.600   7.333   1.900 -0.3382  0.5398 -0.2530
59429SOL    HW185402   2.688   7.320   1.864  0.6779 -1.2007  2.4691
59429SOL    HW285403   2.614   7.379   1.983 -1.5476 -2.1565  1.6163
59430SOL     OW85404   0.595  11.455   5.184  0.0501 -0.1493  0.0189
59430SOL    HW185405   0.555  11.433   5.268  1.3727  0.7300  0.9110
59430SOL    HW285406   0.535  11.519   5.144  0.7722  1.5830  1.5850
59431SOL     OW85407  12.387   3.678   4.735  0.1120  0.7802 -0.3606
59431SOL    HW185408  12.332   3.639   4.667  0.5577  0.3603 -0.4883
59431SOL    HW285409  12.355   3.640   4.816  1.2762 -0.7854 -0.5776
59432SOL     OW85410  12.377   6.578   1.367  0.1569  0.9301 -0.3496
59432SOL    HW185411  12.336   6.552   1.449 -0.1331  0.1161 -0.7387
59432SOL    HW285412  12.354   6.670   1.356 -2.7659  0.1725 -1.2499
59433SOL     OW85413   0.450   0.542   9.436 -0.2736  0.1383 -0.1338
59433SOL    HW185414   0.356   0.537   9.416 -0.0504 -1.2330 -0.9465
59433SOL    HW285415   0.455   0.519   9.529 -0.7823  0.6760  0.0310
59434SOL     OW85416   7.924   5.038  12.569  0.0540 -0.2455 -0.0494
59434SOL    HW185417   7.950   5.125  12.602 -3.1924  1.2044 -0.8768
59434SOL    HW285418   8.004   5.001  12.534  1.8384  1.8619  1.5146
59435SOL     OW85419   8.237   0.170   8.578  0.1577 -0.0492 -0.0657
59435SOL    HW185420   8.195   0.169   8.664  0.9999 -0.7267  0.3572
59435SOL    HW285421   8.299   0.243   8.583  0.9053 -0.6865  0.2730
59436SOL     OW85422   6.253   6.235  12.590 -0.1066 -0.7040 -0.3652
59436SOL    HW185423   6.348   6.224  12.589  0.3381  2.1597 -0.0922
59436SOL    HW285424   6.241   6.330  12.593 -2.9590 -1.0048  1.2101
59437SOL     OW85425   7.901  11.301   7.121  0.0914 -0.4527 -0.0060
59437SOL    HW185426   7.872  11.217   7.086 -1.9602  0.6203 -1.0932
59437SOL    HW285427   7.875  11.365   7.055  0.7240  1.1396  1.2140
59438SOL     OW85428   2.269  12.440   8.824  0.1541 -0.1911  0.5948
59438SOL    HW185429   2.179  12.439   8.855  0.7790 -1.0434  2.5640
59438SOL    HW285430   2.309  12.515   8.868 -0.1917  1.9205 -2.3951
59439SOL     OW85431   5.725   4.384   8.336  0.0959  0.2827  1.0097
59439SOL    HW185432   5.789   4.359   8.402  1.3126 -0.9528 -0.5686
59439SOL    HW285433   5.641   4.377   8.380  0.9225  0.3605  2.6628
59440SOL     OW85434   3.039   3.987   2.152 -0.3723 -0.0901  0.1007
59440SOL    HW185435   2.956   3.964   2.110  1.3805 -1.1286 -3.1913
59440SOL    HW285436   3.075   4.057   2.097  1.6537 -0.8617  0.3633
59441SOL     OW85437   6.536   4.949  10.519 -0.2543  0.3593  0.2197
59441SOL    HW185438   6.518   4.859  10.493  0.3652  1.2532 -4.2180
59441SOL    HW285439   6.450   4.991  10.525 -0.5904 -0.5358  3.0043
59442SOL     OW85440   7.843  10.880   9.274 -0.3123 -0.2596  0.2238
59442SOL    HW185441   7.793  10.848   9.198  2.2526 -2.4490 -0.7268
59442SOL    HW285442   7.823  10.973   9.278 -2.5300 -0.5629 -1.5368
59443SOL     OW85443   5.589  10.640   1.542 -0.3526 -0.1601 -0.1584
59443SOL    HW185444   5.591  10.666   1.450  0.8266  1.6924  0.3346
59443SOL    HW285445   5.499  10.657   1.570  0.0173  2.3014 -0.2319
59444SOL     OW85446   4.078   3.542   5.860  0.2546 -0.0294  0.1108
59444SOL    HW185447   4.144   3.479   5.891  1.0454  1.7459  2.3171
59444SOL    HW285448   4.006   3.534   5.922 -2.8540 -3.3787 -3.3446
59445SOL     OW85449   0.551  10.333   8.918  0.0368  0.1627 -0.2262
59445SOL    HW185450   0.476  10.323   8.860 -1.3792  0.4387  1.4686
59445SOL    HW285451   0.544  10.260   8.980  1.4872 -0.1182 -0.3603
59446SOL     OW85452   6.299   6.086  11.937  0.0393  0.3917  0.7236
59446SOL    HW185453   6.371   6.147  11.954 -0.1124  0.8526 -0.2214
59446SOL    HW285454   6.322   6.007  11.987  0.2696  1.1874  1.9008
59447SOL     OW85455   1.939   4.512   6.761  0.7907 -0.2966 -0.0797
59447SOL    HW185456   2.026   4.496   6.798  0.9032  1.0928  0.3027
59447SOL    HW285457   1.951   4.584   6.700 -0.3564  1.0257  1.1806
59448SOL     OW85458   3.424   2.904   1.244  0.1174 -0.3941 -0.2502
59448SOL    HW185459   3.372   2.932   1.320  0.4640 -2.4888  0.8223
59448SOL    HW285460   3.360   2.879   1.179 -0.2165 -0.8659  0.2510
59449SOL     OW85461   6.643   5.275   2.195 -0.0289  0.9337  0.0718
59449SOL    HW185462   6.611   5.203   2.142  2.1414  1.7217 -2.5147
59449SOL    HW285463   6.648   5.238   2.284 -1.7708 -1.1055 -0.5824
59450SOL     OW85464   7.242   3.477   3.214 -0.2662 -0.0604  0.1274
59450SOL    HW185465   7.324   3.501   3.173 -0.7543 -0.9485 -1.4364
59450SOL    HW285466   7.229   3.385   3.192 -1.1075 -0.2760  1.3618
59451SOL     OW85467   1.264   1.512   1.206  0.0294  0.2220 -0.2036
59451SOL    HW185468   1.289   1.604   1.199 -1.5811  0.6024 -1.9724
59451SOL    HW285469   1.298   1.484   1.291  2.1438  1.9163 -0.4111
59452SOL     OW85470   0.433  10.612   9.339  0.4539 -0.1293  0.1347
59452SOL    HW185471   0.450  10.695   9.384  3.8204 -0.5881 -0.0213
59452SOL    HW285472   0.429  10.547   9.409  1.9025 -0.3291  0.0633
59453SOL     OW85473  11.589  10.301  12.464 -0.0491 -0.3482 -0.1175
59453SOL    HW185474  11.556  10.278  12.551 -1.9032 -2.2314 -1.2136
59453SOL    HW285475  11.650  10.230  12.442  0.1336 -0.0802 -0.5001
59454SOL     OW85476   6.455   3.181   9.460 -0.2008  0.2479  0.2880
59454SOL    HW185477   6.498   3.099   9.436 -0.5744 -0.0148  0.5044
59454SOL    HW285478   6.525   3.246   9.459  0.1429 -0.1186  0.3489
59455SOL     OW85479   9.944   5.867  11.616  0.3570 -0.0256  0.4058
59455SOL    HW185480   9.891   5.871  11.695 -0.0760 -0.2350  0.1274
59455SOL    HW285481   9.881   5.856  11.545  0.8494 -2.4163  0.2375
59456SOL     OW85482   9.176  10.613   0.655  0.0849 -0.1735  0.5386
59456SOL    HW185483   9.236  10.614   0.729  0.3426  0.4854  0.3329
59456SOL    HW285484   9.232  10.622   0.578 -0.2512  0.1139  0.3237
59457SOL     OW85485  12.615   8.558   1.205  0.1363 -0.2539 -0.6745
59457SOL    HW185486  12.699   8.593   1.174 -0.5667 -0.4025 -2.9289
59457SOL    HW285487  12.572   8.526   1.126 -0.0504 -4.6540  0.9493
59458SOL     OW85488   9.787  11.203   3.228 -0.1709  0.7870 -0.4549
59458SOL    HW185489   9.831  11.193   3.312 -0.4892  1.5273 -0.1897
59458SOL    HW285490   9.720  11.270   3.244  0.0949  1.3074 -1.4200
59459SOL     OW85491   4.381   9.634  10.449  0.0020  0.6253  0.0029
59459SOL    HW185492   4.458   9.677  10.486 -0.7153 -0.0596  2.4296
59459SOL    HW285493   4.417   9.581  10.378  1.9247 -0.2733  1.5396
59460SOL     OW85494   9.247  11.000   4.202 -0.1385 -0.0925 -0.0245
59460SOL    HW185495   9.320  10.939   4.192 -1.4013 -1.4990 -1.1381
59460SOL    HW285496   9.289  11.085   4.217  1.6784 -1.1193  1.0775
59461SOL     OW85497   0.661   5.364   4.800 -0.5522 -0.0770 -0.3742
59461SOL    HW185498   0.614   5.447   4.806  0.2620  0.3568  0.0915
59461SOL    HW285499   0.738   5.384   4.747 -0.0691 -0.4021  0.2023
59462SOL     OW85500  11.679   9.012   2.451  0.4413 -0.1100  0.0842
59462SOL    HW185501  11.634   9.082   2.404  0.3515  0.2321  0.6629
59462SOL    HW285502  11.770   9.041   2.457 -0.0861  1.2928  2.6726
59463SOL     OW85503   2.069  11.264  10.438 -0.1553 -0.1542  0.6487
59463SOL    HW185504   1.975  11.252  10.429  0.0886 -1.7850 -0.0618
59463SOL    HW285505   2.079  11.318  10.516 -1.6954  0.8001  0.2339
59464SOL     OW85506  10.687   4.464  10.799 -0.4282 -0.5263 -0.1099
59464SOL    HW185507  10.771   4.422  10.780 -0.8453 -1.0576 -0.8034
59464SOL    HW285508  10.641   4.466  10.715 -0.5800  0.9822 -0.0245
59465SOL     OW85509   1.444   5.202   6.540  0.0707  0.3963 -0.5974
59465SOL    HW185510   1.528   5.209   6.586  0.1333  0.5627 -0.7385
59465SOL    HW285511   1.457   5.134   6.475  0.0449  0.3053 -0.5078
59466SOL     OW85512   2.694   1.613   7.476 -0.2359  0.8538  0.0928
59466SOL    HW185513   2.611   1.638   7.436  0.4846  1.9842 -0.7734
59466SOL    HW285514   2.757   1.616   7.404  0.4318 -0.7930  0.5506
59467SOL     OW85515   2.344  11.459   4.176  0.2775 -0.2998 -0.4748
59467SOL    HW185516   2.335  11.549   4.146  4.8404  0.7309  0.5319
59467SOL    HW285517   2.309  11.406   4.104 -1.8996  2.1504 -1.3723
59468SOL     OW85518   8.150   6.312   6.729 -0.6831  0.2315 -0.4942
59468SOL    HW185519   8.121   6.286   6.816  2.1481 -1.4194  0.0747
59468SOL    HW285520   8.083   6.276   6.670 -1.7567 -0.1268  0.8911
59469SOL     OW85521   2.824   5.153  12.382  0.4649 -0.6283  0.1510
59469SOL    HW185522   2.882   5.197  12.443  1.4377  0.6592 -1.6114
59469SOL    HW285523   2.810   5.066  12.420  0.1961  0.4427  2.6612
59470SOL     OW85524   2.485   0.884   7.716 -0.3081  0.8144 -0.2280
59470SOL    HW185525   2.479   0.789   7.702  1.7741  0.8709 -2.2980
59470SOL    HW285526   2.539   0.893   7.795 -2.1986  0.3459  1.1809
59471SOL     OW85527   4.040   3.095  11.751  0.8532  0.3296  0.1445
59471SOL    HW185528   4.113   3.036  11.731  1.3255  0.9917 -0.1314
59471SOL    HW285529   3.976   3.076  11.683  1.2138  0.4833 -0.2436
59472SOL     OW85530   5.074   9.909   8.933  0.2800 -0.3803 -0.2414
59472SOL    HW185531   5.030   9.938   9.013 -0.9207 -1.2877 -0.5348
59472SOL    HW285532   5.162   9.884   8.961  0.1823  0.2169  0.6215
59473SOL     OW85533  11.649   7.238   1.751 -0.6195 -0.4625  0.1121
59473SOL    HW185534  11.742   7.247   1.775 -0.8904 -0.2618  1.1100
59473SOL    HW285535  11.623   7.153   1.786 -1.1226  0.0085  0.9225
59474SOL     OW85536   5.364   8.558   6.508  0.2622  0.0877 -0.5891
59474SOL    HW185537   5.346   8.550   6.602 -1.6316 -0.7964 -0.9730
59474SOL    HW285538   5.440   8.615   6.503 -0.3904  1.2415  1.4422
59475SOL     OW85539  12.771  12.641   2.840  0.3020 -0.1849 -0.4395
59475SOL    HW185540  12.829  12.705   2.881  1.2655 -2.1754  1.5391
59475SOL    HW285541  12.699  12.693   2.803  1.5594  2.0693  0.1091
59476SOL     OW85542   4.108   4.259   3.096  0.4076 -0.2407 -0.1895
59476SOL    HW185543   4.066   4.260   3.182  1.7085 -1.6463  0.5178
59476SOL    HW285544   4.139   4.348   3.083  0.2112 -0.0135  0.8284
59477SOL     OW85545   9.259  12.306   3.012  0.4663 -0.0249 -0.0515
59477SOL    HW185546   9.218  12.341   2.933  2.8118  0.1165 -1.3041
59477SOL    HW285547   9.318  12.238   2.980  0.4929 -0.9011  1.7515
59478SOL     OW85548   0.743  10.617   9.431  0.4011  0.3665  0.2219
59478SOL    HW185549   0.734  10.638   9.338 -0.8981  1.1844  0.5144
59478SOL    HW285550   0.705  10.530   9.440  0.0356  0.5105  0.0792
59479SOL     OW85551  10.109  10.278  12.719 -1.0262  0.0161  0.0562
59479SOL    HW185552  10.038  10.257  12.659 -1.2999 -0.2271  0.4603
59479SOL    HW285553  10.096  10.371  12.741 -0.1230  0.4919 -1.3193
59480SOL     OW85554   6.703  11.237   4.754  0.4885 -0.1069  0.1387
59480SOL    HW185555   6.675  11.310   4.699 -1.4768  0.2092  1.4390
59480SOL    HW285556   6.631  11.174   4.748  0.8508 -0.6489  1.2675
59481SOL     OW85557   4.690   2.742   6.067 -0.4930 -0.3734  0.1060
59481SOL    HW185558   4.699   2.660   6.114 -0.9061 -0.6918 -0.3660
59481SOL    HW285559   4.752   2.801   6.110 -1.0538 -0.5704  1.2244
59482SOL     OW85560   2.129   5.094   5.449 -0.3914 -0.1939  0.1318
59482SOL    HW185561   2.163   5.006   5.467  1.2901  0.7647  2.0505
59482SOL    HW285562   2.034   5.081   5.440 -0.2068 -2.1796  0.5253
59483SOL     OW85563   6.724   3.169   2.937 -0.3385  0.6378 -0.0176
59483SOL    HW185564   6.754   3.244   2.887  2.4985 -0.3872 -0.0423
59483SOL    HW285565   6.629   3.177   2.939 -0.1424  4.3931  0.3215
59484SOL     OW85566   7.222   5.708  11.219 -0.4325 -0.4441  0.5245
59484SOL    HW185567   7.316   5.693  11.223 -0.0823  1.4944  0.5003
59484SOL    HW285568   7.193   5.703  11.311 -0.4222 -1.5912  0.4769
59485SOL     OW85569   4.229   2.869   7.516 -0.3067 -0.4806  0.1280
59485SOL    HW185570   4.134   2.870   7.528 -0.2590 -2.3192  1.0134
59485SOL    HW285571   4.244   2.916   7.434 -2.1709 -1.9342 -1.1143
59486SOL     OW85572   2.568   2.448   4.669  0.3421  0.1661 -0.1378
59486SOL    HW185573   2.601   2.400   4.593 -1.1276 -0.7202 -0.2593
59486SOL    HW285574   2.546   2.535   4.635  0.7723  0.1572 -0.4502
59487SOL     OW85575   4.935   2.698   9.581 -0.8291 -0.4956 -0.0398
59487SOL    HW185576   5.021   2.728   9.609 -1.5907  0.6947  1.1828
59487SOL    HW285577   4.877   2.771   9.600 -2.3097 -1.6905  0.2668
59488SOL     OW85578  11.053   0.399  11.742 -0.0730 -0.0070  0.1588
59488SOL    HW185579  11.082   0.319  11.786  1.2113 -0.1636 -0.8781
59488SOL    HW285580  11.027   0.370  11.654 -0.3929  0.5886  0.0519
59489SOL     OW85581   9.921  10.738  12.267  0.0871 -0.2861 -0.8891
59489SOL    HW185582   9.857  10.807  12.250 -0.0666 -0.3281 -0.4883
59489SOL    HW285583   9.916  10.723  12.362  1.8165  0.8244 -0.5723
59490SOL     OW85584   4.604   4.127   9.895 -0.0089 -0.0159 -0.4085
59490SOL    HW185585   4.696   4.140   9.918  0.0787 -1.6706  0.3116
59490SOL    HW285586   4.558   4.127   9.979 -0.5526 -0.0195 -0.6993
59491SOL     OW85587   8.851  12.256  12.336 -0.5243 -0.2094 -0.3447
59491SOL    HW185588   8.892  12.200  12.401 -1.9611 -1.2108 -0.2495
59491SOL    HW285589   8.842  12.341  12.379  2.3254  0.3808 -0.7329
59492SOL     OW85590   6.096  11.659   2.325  0.3562 -0.1161  0.3976
59492SOL    HW185591   6.052  11.574   2.326 -0.8242  0.4635 -0.1097
59492SOL    HW285592   6.180  11.642   2.282 -0.7613 -0.6404 -1.7310
59493SOL     OW85593   7.163   6.275   1.714 -0.1179  0.3610 -0.4390
59493SOL    HW185594   7.201   6.361   1.729 -3.4664  2.1717 -1.3576
59493SOL    HW285595   7.189   6.253   1.624  0.8041  0.3376 -0.1755
59494SOL     OW85596   9.495   7.147   9.715  0.2254  1.0822 -0.0326
59494SOL    HW185597   9.540   7.229   9.734 -0.1188  0.7097  2.8822
59494SOL    HW285598   9.405   7.161   9.745 -0.5318  0.4378 -1.8666
59495SOL     OW85599  11.581   7.959   9.045  0.1719  0.2226 -0.3724
59495SOL    HW185600  11.530   7.928   8.970 -2.9900 -0.7429  1.9815
59495SOL    HW285601  11.669   7.926   9.028 -1.3965 -4.0907 -1.5314
59496SOL     OW85602  11.405   5.793   3.884  0.4687 -0.0635 -0.0568
59496SOL    HW185603  11.392   5.762   3.974 -0.3892 -0.5071 -0.3238
59496SOL    HW285604  11.379   5.886   3.887  0.3706 -0.0972  0.1411
59497SOL     OW85605   6.584   5.429   3.615  0.0635 -0.2707 -0.5238
59497SOL    HW185606   6.506   5.392   3.572 -0.8675 -0.1446  0.9809
59497SOL    HW285607   6.632   5.352   3.646  0.1376 -0.3283 -0.7814
59498SOL     OW85608   8.218  12.796   9.949 -0.0911  0.2069  0.3107
59498SOL    HW185609   8.159  12.822   9.878 -1.5624  0.6618  1.6382
59498SOL    HW285610   8.184  12.712   9.979  2.3123 -1.5047 -1.3957
59499SOL     OW85611   9.456   3.344   8.805 -0.1907  0.7605  0.0815
59499SOL    HW185612   9.434   3.305   8.721  0.0860 -0.2740  0.4707
59499SOL    HW285613   9.551   3.331   8.813 -0.3365  0.0739  0.9093
59500SOL     OW85614   4.503   0.301  10.047 -0.2483  0.3314  0.3950
59500SOL    HW185615   4.452   0.325   9.969  1.3344  1.8193 -0.2540
59500SOL    HW285616   4.558   0.228  10.019  0.1831  0.7423  0.1569
59501SOL     OW85617   9.492   3.015   6.770  0.0153  0.2250  0.2907
59501SOL    HW185618   9.539   3.098   6.769  0.4888 -0.0009  1.6366
59501SOL    HW285619   9.547   2.956   6.718  0.3883  0.3849  0.5037
59502SOL     OW85620   3.601   7.275   4.098  0.5502  0.2449 -0.0628
59502SOL    HW185621   3.638   7.207   4.042  0.5946 -1.3172  1.7549
59502SOL    HW285622   3.576   7.229   4.178 -0.8430  2.1287  0.6545
59503SOL     OW85623   4.297   4.379   6.977 -0.1059 -0.0647  0.4891
59503SOL    HW185624   4.276   4.440   6.906  0.1971 -0.7600 -0.2105
59503SOL    HW285625   4.366   4.423   7.027 -0.6120  0.6098  0.6145
59504SOL     OW85626   8.146  12.558   4.541 -0.4014  0.5338 -0.0057
59504SOL    HW185627   8.159  12.650   4.517  0.7410  0.5297  0.4926
59504SOL    HW285628   8.194  12.549   4.624  0.8161 -0.8661 -0.8203
59505SOL     OW85629   1.071   3.670   4.776 -0.3620  0.0736  0.0418
59505SOL    HW185630   1.077   3.706   4.688  2.2381  1.2804  0.6285
59505SOL    HW285631   0.997   3.715   4.816  0.2414  1.6908 -0.6089
59506SOL     OW85632   6.715   9.916   6.839 -0.0435  0.1133  0.1513
59506SOL    HW185633   6.655   9.890   6.909  1.3129 -0.1073  1.2879
59506SOL    HW285634   6.715  10.011   6.840  0.6561  0.1195  1.1084
59507SOL     OW85635   6.329   4.971   4.725  0.0893  0.7212 -0.3262
59507SOL    HW185636   6.254   4.995   4.670 -1.0905  2.5697  1.8946
59507SOL    HW285637   6.313   4.879   4.749 -2.5503  1.5264  1.4842
59508SOL     OW85638  11.678   9.755   3.022  0.1896  0.1773  0.1038
59508SOL    HW185639  11.692   9.839   3.066 -1.0418  0.4804 -0.0324
59508SOL    HW285640  11.602   9.771   2.966 -0.0084 -1.0125  0.0226
59509SOL     OW85641   8.726   5.200  12.501 -0.6574  0.2373 -0.3479
59509SOL    HW185642   8.793   5.218  12.566 -1.1632 -1.8356  0.8480
59509SOL    HW285643   8.739   5.108  12.478  0.7769  1.3096 -4.7767
59510SOL     OW85644   6.952   4.786   2.952 -0.6326 -0.1137 -0.1531
59510SOL    HW185645   6.923   4.760   2.865  0.4808 -1.3666 -0.1919
59510SOL    HW285646   6.875   4.775   3.007 -1.7614  2.0787 -1.1871
59511SOL     OW85647  11.698   8.388  12.692 -0.1235  0.6718  0.1410
59511SOL    HW185648  11.672   8.326  12.623  0.5204  1.4039 -0.7889
59511SOL    HW285649  11.773   8.347  12.734 -0.9692 -0.1169  0.9024
59512SOL     OW85650   5.022   2.961   8.169  0.3588 -0.5735 -0.5342
59512SOL    HW185651   4.940   2.964   8.218 -0.4177  0.7173 -1.8519
59512SOL    HW285652   5.062   2.879   8.197 -0.8034 -0.6664  1.0282
59513SOL     OW85653   9.882   8.996   4.966 -0.9450  0.3686  0.0397
59513SOL    HW185654   9.837   9.061   4.913  1.5635  2.1049 -0.1335
59513SOL    HW285655   9.925   9.047   5.035 -1.5619 -1.4980  1.9193
59514SOL     OW85656   7.243   0.851   0.890  0.5959  0.2499 -0.2221
59514SOL    HW185657   7.180   0.805   0.835 -1.4382 -1.2575  3.0660
59514SOL    HW285658   7.313   0.786   0.905  0.1114 -0.1061  0.5670
59515SOL     OW85659   4.381  10.285   7.842  0.6220 -0.1663 -0.1252
59515SOL    HW185660   4.455  10.269   7.783  0.4035 -0.4183 -0.3338
59515SOL    HW285661   4.418  10.278   7.930  1.7371  3.5345 -0.1338
59516SOL     OW85662   8.922   3.473   7.740  0.0497 -0.0450 -0.1900
59516SOL    HW185663   8.873   3.554   7.729 -0.6741 -0.1989  1.6831
59516SOL    HW285664   9.007   3.500   7.775  0.9263  0.1001 -2.2346
59517SOL     OW85665  10.607   0.134   8.462 -0.0784 -0.1201 -0.2137
59517SOL    HW185666  10.627   0.194   8.534  0.2751 -0.2084 -0.2387
59517SOL    HW285667  10.522   0.097   8.485 -1.0895  1.5706 -0.9679
59518SOL     OW85668   4.179   4.663  11.909 -0.6736  0.0445 -0.9233
59518SOL    HW185669   4.172   4.617  11.826  0.2241 -2.0339  0.0884
59518SOL    HW285670   4.241   4.734  11.893  1.5083 -1.8726 -1.4637
59519SOL     OW85671   4.057   5.828   9.116 -0.5570 -0.0280 -0.8214
59519SOL    HW185672   3.985   5.801   9.059 -0.6165 -0.1134 -0.7066
59519SOL    HW285673   4.084   5.747   9.161 -1.3693  0.2689  0.2394
59520SOL     OW85674   7.946   1.605   9.528  0.0882  0.3941  0.0470
59520SOL    HW185675   7.990   1.522   9.546 -1.4960 -0.3731  0.4905
59520SOL    HW285676   7.998   1.644   9.457  1.5888 -0.3639  0.6798
59521SOL     OW85677   5.380  11.952   8.076  0.0902  0.1383 -0.5186
59521SOL    HW185678   5.291  11.975   8.103  0.0294 -2.0445  1.3572
59521SOL    HW285679   5.424  11.926   8.156  1.5874 -1.4624 -1.7878
59522SOL     OW85680  10.805   6.590   8.833  0.3323 -0.6301  0.9833
59522SOL    HW185681  10.841   6.502   8.826  0.9162 -0.3314 -0.0638
59522SOL    HW285682  10.795   6.605   8.927 -2.1617 -2.7166  1.1558
59523SOL     OW85683   3.104   5.978   0.562  0.4607 -0.4344  0.1906
59523SOL    HW185684   3.030   5.967   0.502  0.4717 -2.2348  0.4566
59523SOL    HW285685   3.162   5.905   0.543  0.5571 -0.9646  2.2621
59524SOL     OW85686   1.617   2.131   0.130  0.2960  0.4573  0.0456
59524SOL    HW185687   1.684   2.062   0.128 -0.5957 -0.4385 -2.0013
59524SOL    HW285688   1.535   2.084   0.113 -0.1404  2.1480 -3.2814
59525SOL     OW85689   6.937   6.817   2.617  0.1989  0.5088  0.3440
59525SOL    HW185690   6.939   6.904   2.577  2.0136  0.6611  0.6474
59525SOL    HW285691   6.851   6.811   2.659 -0.8145  1.2645 -1.5147
59526SOL     OW85692   1.958  11.508  12.577 -0.1332 -0.4569  0.5097
59526SOL    HW185693   1.884  11.471  12.625 -2.2099  0.5551 -1.7328
59526SOL    HW285694   1.954  11.602  12.596  0.7582 -0.4172  0.5469
59527SOL     OW85695  10.380   7.706  12.924 -0.1542  0.0156 -0.2010
59527SOL    HW185696  10.416   7.745  13.003 -1.4614  0.3179  0.2714
59527SOL    HW285697  10.285   7.717  12.932 -0.3191  0.1903 -1.8666
59528SOL     OW85698   2.127   6.880  10.678  0.0362  0.0690  0.1076
59528SOL    HW185699   2.170   6.797  10.698 -0.5552 -0.3150 -0.2108
59528SOL    HW285700   2.199   6.939  10.654  0.4725 -0.2971  0.4885
59529SOL     OW85701   4.822   5.138   9.558  0.4833 -0.2005 -0.6828
59529SOL    HW185702   4.735   5.164   9.587  1.1522  1.5273 -0.0844
59529SOL    HW285703   4.839   5.191   9.480  1.2267 -0.0831 -0.4501
59530SOL     OW85704   6.110   9.257   3.268  0.5377  0.2266 -0.3381
59530SOL    HW185705   6.072   9.221   3.188  0.6250  0.0498 -0.3022
59530SOL    HW285706   6.045   9.318   3.301  0.2345 -0.1581 -0.2153
59531SOL     OW85707   5.235   4.473   9.252  0.2894  0.0897  0.1177
59531SOL    HW185708   5.296   4.539   9.285  1.5097 -0.1629 -1.5002
59531SOL    HW285709   5.242   4.401   9.314  0.9707  0.4203  0.4421
59532SOL     OW85710   8.272   3.844   3.468 -0.2107 -0.0112  0.6467
59532SOL    HW185711   8.351   3.825   3.519 -0.7119  0.3922  1.5911
59532SOL    HW285712   8.304   3.857   3.379  0.7454 -0.2385  0.9437
59533SOL     OW85713  11.811   7.233   4.253 -0.4423 -0.2048  0.0564
59533SOL    HW185714  11.719   7.255   4.266  0.0324  2.4499 -0.4270
59533SOL    HW285715  11.837   7.189   4.334 -2.1934 -1.3374  0.0526
59534SOL     OW85716   1.760   5.318   6.053 -0.2299 -0.9240  0.1123
59534SOL    HW185717   1.757   5.389   5.989  1.1962 -1.0938 -0.1704
59534SOL    HW285718   1.693   5.341   6.118 -1.1169 -0.3263 -0.9838
59535SOL     OW85719  10.973   1.617   4.062 -0.5794  0.7284  0.2672
59535SOL    HW185720  11.007   1.697   4.101  0.5393  0.0946  0.6217
59535SOL    HW285721  10.942   1.565   4.136  2.4424 -0.9041  0.5388
59536SOL     OW85722  10.645   9.897  10.414  0.5524 -0.0027 -0.0059
59536SOL    HW185723  10.709   9.834  10.381  1.0124  0.6629 -0.4047
59536SOL    HW285724  10.579   9.843  10.458  1.5699 -0.6885  0.7278
59537SOL     OW85725   5.948   3.027   1.677  0.1962 -0.7036  0.0254
59537SOL    HW185726   5.877   2.985   1.724  1.3858 -2.1814  0.6125
59537SOL    HW285727   5.907   3.063   1.598 -1.5139  0.2443  1.2975
59538SOL     OW85728   0.305   4.442   5.559  0.3166 -0.4512  0.2083
59538SOL    HW185729   0.301   4.423   5.465 -0.0850  0.3883  0.0500
59538SOL    HW285730   0.294   4.537   5.565  2.0382 -0.2628  1.0052
59539SOL     OW85731   0.094  11.765   9.087  0.6732  0.8910  0.3279
59539SOL    HW185732   0.123  11.696   9.147  1.4070 -0.4494 -1.4827
59539SOL    HW285733   0.173  11.815   9.069  0.2641  1.8589  1.1586
59540SOL     OW85734  10.644  12.061   2.258  0.0442  0.0358  0.3517
59540SOL    HW185735  10.557  12.055   2.218 -0.8425  0.4813  2.1188
59540SOL    HW285736  10.689  12.129   2.208 -0.5397 -0.3326 -0.7055
59541SOL     OW85737  10.773   6.909   5.419  0.3010 -0.5056 -0.0713
59541SOL    HW185738  10.863   6.880   5.433  0.3393 -0.4321 -0.1645
59541SOL    HW285739  10.738   6.849   5.353  0.8061  0.4909 -1.2794
59542SOL     OW85740   2.925   2.208   1.653 -0.0354  0.0264  0.5268
59542SOL    HW185741   2.831   2.209   1.639 -0.1110 -1.1538  0.8810
59542SOL    HW285742   2.963   2.233   1.569 -0.6601  1.3617  0.6084
59543SOL     OW85743   8.563   9.647   6.031  0.1833 -0.4776  0.2317
59543SOL    HW185744   8.591   9.558   6.053 -0.3630 -1.4151 -2.4837
59543SOL    HW285745   8.525   9.639   5.943  0.0003  2.4263 -0.0440
59544SOL     OW85746   8.755   6.457   3.765  0.0085 -0.1359 -0.3022
59544SOL    HW185747   8.758   6.515   3.841  0.3571  1.2370 -1.3253
59544SOL    HW285748   8.686   6.493   3.710  1.3613  0.3865 -1.7509
59545SOL     OW85749   5.972   5.641   3.308 -0.1981  0.6991 -0.1084
59545SOL    HW185750   6.047   5.696   3.284  0.3616 -0.3730 -0.8787
59545SOL    HW285751   5.930   5.620   3.225  0.1316 -0.7570  0.0588
59546SOL     OW85752   5.751   1.687   1.426  0.5202 -0.2604 -0.9755
59546SOL    HW185753   5.664   1.649   1.440  0.3338  0.4990  0.0645
59546SOL    HW285754   5.739   1.744   1.349 -0.4736  1.4043  0.3310
59547SOL     OW85755   2.671  11.569  10.336  0.3394 -0.3288  0.2059
59547SOL    HW185756   2.662  11.584  10.430 -0.1056 -0.1926  0.1455
59547SOL    HW285757   2.618  11.491  10.319 -3.1528  1.9642 -0.5828
59548SOL     OW85758  11.828   1.077   8.209 -0.5348  0.6775  0.7095
59548SOL    HW185759  11.886   1.033   8.271 -0.2643 -0.9700 -0.6493
59548SOL    HW285760  11.886   1.134   8.159 -0.2552 -0.1006  0.1265
59549SOL     OW85761   0.627   1.826   6.202 -1.0584 -0.5824  0.2493
59549SOL    HW185762   0.600   1.786   6.285 -0.4265 -2.5547 -0.4343
59549SOL    HW285763   0.715   1.858   6.219 -1.0560 -0.6753  0.4179
59550SOL     OW85764   7.055   4.462   7.420  0.0261 -0.6365 -0.0632
59550SOL    HW185765   7.081   4.392   7.360 -0.6329 -1.5434  0.6877
59550SOL    HW285766   7.036   4.418   7.502  1.0379  0.5976  0.8855
59551SOL     OW85767   5.494   8.946   6.047 -0.5845  0.5281  0.2333
59551SOL    HW185768   5.431   8.878   6.025 -1.5301  1.4049  0.1678
59551SOL    HW285769   5.510   8.934   6.141 -1.1548  0.5468  0.3367
59552SOL     OW85770   0.609   0.143   9.367  0.0166  0.6745  0.5079
59552SOL    HW185771   0.592   0.215   9.428  0.6268  0.7833  0.5550
59552SOL    HW285772   0.700   0.119   9.383 -0.2426 -0.2644  0.6520
59553SOL     OW85773   3.975   9.835   2.562 -0.0922 -0.0552  0.7401
59553SOL    HW185774   4.043   9.856   2.499 -0.1278  0.1961  0.7862
59553SOL    HW285775   3.911   9.784   2.513 -0.2639  0.3906  0.5025
59554SOL     OW85776   9.822   9.439   4.761 -0.1489  0.0421 -0.5581
59554SOL    HW185777   9.861   9.408   4.679  4.3713 -1.0048  1.6808
59554SOL    HW285778   9.822   9.534   4.753  0.0952 -0.0415 -1.7900
59555SOL     OW85779   4.671   4.826  10.472 -0.0334  0.4225 -0.3812
59555SOL    HW185780   4.661   4.899  10.411 -2.5300 -0.0149 -0.5810
59555SOL    HW285781   4.747   4.850  10.526  1.7335  1.2303 -3.0268
59556SOL     OW85782  11.780  11.424   9.874 -0.2745  0.0378  0.3158
59556SOL    HW185783  11.773  11.476   9.954 -0.3439  1.8468 -0.8124
59556SOL    HW285784  11.871  11.395   9.872 -0.5622 -1.0463  1.6234
59557SOL     OW85785   4.244  12.005   1.869 -0.1875 -0.1056 -0.2134
59557SOL    HW185786   4.239  11.925   1.920  0.0408 -0.4546 -0.7326
59557SOL    HW285787   4.315  12.055   1.910 -0.2402 -0.2264  0.0272
59558SOL     OW85788   0.580   4.589   9.651 -0.2023  0.1979  0.5897
59558SOL    HW185789   0.584   4.494   9.650 -1.8534  0.0674  1.8016
59558SOL    HW285790   0.490   4.609   9.675 -0.4031  2.1104 -1.4126
59559SOL     OW85791  12.218   0.022   6.871 -0.0319  0.0076  0.0092
59559SOL    HW185792  12.129   0.007   6.903  0.2349  2.0276  1.9631
59559SOL    HW285793  12.232   0.116   6.881  2.9945 -0.4790  1.6896
59560SOL     OW85794   3.391   9.918   9.514  0.4886  0.4906  0.0832
59560SOL    HW185795   3.389   9.901   9.420 -0.1134 -1.6668  0.4372
59560SOL    HW285796   3.374  10.012   9.522 -2.5459  0.2196 -1.8697
59561SOL     OW85797   7.091   2.354   7.152 -0.1752 -0.0161  0.3708
59561SOL    HW185798   7.016   2.316   7.197 -0.4542 -0.6288 -0.5790
59561SOL    HW285799   7.069   2.348   7.059  1.0349 -0.2045  0.0730
59562SOL     OW85800   3.018   9.734   5.340 -0.3052 -0.1307  0.4458
59562SOL    HW185801   2.962   9.762   5.412 -0.8331  0.2376 -0.0969
59562SOL    HW285802   3.062   9.814   5.311 -1.9143  0.2029 -1.1940
59563SOL     OW85803  10.742   0.143   3.004 -0.0698 -0.5011 -0.4133
59563SOL    HW185804  10.659   0.171   3.042 -1.0743 -1.1708 -1.9779
59563SOL    HW285805  10.784   0.091   3.072  0.7812  2.7227  1.7175
59564SOL     OW85806  11.258   6.252   2.190  0.8764 -0.0959 -0.0212
59564SOL    HW185807  11.285   6.165   2.161  0.2840 -1.1717  2.3650
59564SOL    HW285808  11.325   6.278   2.253 -1.3665 -1.0918  3.0069
59565SOL     OW85809  10.504  11.281   7.405  0.2833  0.0852 -0.1985
59565SOL    HW185810  10.448  11.235   7.468 -0.8738 -0.6908 -1.7236
59565SOL    HW285811  10.521  11.366   7.446 -0.5117 -0.3611  1.1174
59566SOL     OW85812   3.697   8.324   2.859 -0.0475  0.0853 -0.5992
59566SOL    HW185813   3.735   8.354   2.942 -0.2002 -0.8161 -0.1907
59566SOL    HW285814   3.739   8.380   2.793  0.1369  0.7661  0.0653
59567SOL     OW85815   7.762   4.909   4.535  0.1848 -0.2633  0.7088
59567SOL    HW185816   7.740   4.873   4.621 -0.2403  0.5304  0.9457
59567SOL    HW285817   7.818   4.984   4.554 -0.9247  0.6822  0.3933
59568SOL     OW85818  12.819   8.763  10.129 -0.3101  0.2709 -0.4940
59568SOL    HW185819  12.875   8.686  10.143 -1.6306 -1.0665 -2.1311
59568SOL    HW285820  12.766   8.768  10.208 -0.7027 -0.9760 -0.6538
59569SOL     OW85821   7.499   6.615   2.160  0.0250  0.0917  0.2647
59569SOL    HW185822   7.459   6.670   2.227  0.6624  0.5594  0.2649
59569SOL    HW285823   7.520   6.533   2.206 -2.6448 -0.9545 -0.1566
59570SOL     OW85824  11.752   3.557   5.977 -0.1504 -0.2533  0.1043
59570SOL    HW185825  11.829   3.611   5.994 -0.6906  0.3693  0.6709
59570SOL    HW285826  11.694   3.613   5.926 -0.2543 -0.6907 -0.2585
59571SOL     OW85827   7.631  12.171  12.020  0.0308  0.9823  0.1548
59571SOL    HW185828   7.654  12.109  11.951  0.7360 -0.0542  1.2709
59571SOL    HW285829   7.536  12.181  12.013 -0.4927 -2.1174  1.4128
59572SOL     OW85830   4.723   0.496   9.987  0.8258  0.1469  0.5666
59572SOL    HW185831   4.684   0.423   9.940 -0.4470 -0.2156  2.1160
59572SOL    HW285832   4.650   0.554  10.007  1.8277  2.0131 -0.7931
59573SOL     OW85833   0.823   0.768   7.670 -0.0766  0.6965  0.1398
59573SOL    HW185834   0.838   0.676   7.694  2.7929  0.4153 -2.1309
59573SOL    HW285835   0.796   0.810   7.751 -0.6701 -1.9858  1.4447
59574SOL     OW85836   2.392   1.738  10.317 -0.3335  0.6851 -0.3893
59574SOL    HW185837   2.379   1.693  10.401  1.9416 -0.3632 -0.5196
59574SOL    HW285838   2.435   1.820  10.340 -0.4680  0.7801 -0.4754
59575SOL     OW85839   2.706  11.758   4.957 -0.1593  0.4089  0.2299
59575SOL    HW185840   2.791  11.721   4.978 -0.6137 -0.9237 -0.1506
59575SOL    HW285841   2.661  11.767   5.041  0.2729  0.9173  0.4086
59576SOL     OW85842  10.685  11.589   4.467  0.1806  0.3048 -0.3944
59576SOL    HW185843  10.661  11.590   4.559  2.3494 -0.4671  0.2420
59576SOL    HW285844  10.607  11.622   4.421 -1.2301 -0.0671  1.6095
59577SOL     OW85845   9.813   0.199   5.350 -0.7955 -0.0456 -0.0240
59577SOL    HW185846   9.761   0.260   5.402 -0.8480 -0.6238  0.6295
59577SOL    HW285847   9.808   0.117   5.399 -2.1364 -1.0547 -1.7364
59578SOL     OW85848   8.273   4.300   9.947 -0.2055  0.2260  0.6707
59578SOL    HW185849   8.223   4.381   9.952  1.4435  1.2495  1.5030
59578SOL    HW285850   8.359   4.322   9.982  0.3764 -1.8410  0.7117
59579SOL     OW85851  10.214   4.369   0.053  0.2914  0.1535 -0.3125
59579SOL    HW185852  10.289   4.310   0.057  1.0563  1.1521  0.5925
59579SOL    HW285853  10.161   4.344   0.129  1.1790  1.3180  0.7341
59580SOL     OW85854   4.870   7.822   1.316 -0.2647 -0.3718 -0.3737
59580SOL    HW185855   4.896   7.876   1.390 -0.0937 -1.0678  0.0814
59580SOL    HW285856   4.855   7.885   1.245  1.2885  0.1839 -0.2586
59581SOL     OW85857   0.725   6.926  10.306  0.1916  0.5684 -0.3236
59581SOL    HW185858   0.711   6.859  10.373  1.4796 -0.4740 -1.0530
59581SOL    HW285859   0.725   7.008  10.355 -1.0164  0.0365  0.6471
59582SOL     OW85860   0.945   1.736   9.099  0.8882 -0.1418 -0.2192
59582SOL    HW185861   0.986   1.650   9.092 -0.5590 -0.7085 -3.1124
59582SOL    HW285862   0.874   1.724   9.162  1.1866 -0.8239 -0.0051
59583SOL     OW85863   0.266   1.709   4.717  0.2031 -0.0003  0.2642
59583SOL    HW185864   0.311   1.671   4.641  0.6082  0.1329  0.4362
59583SOL    HW285865   0.257   1.636   4.778  0.5155  0.0617  0.3818
59584SOL     OW85866   2.890   8.105   0.489  0.1107 -0.1655  0.0720
59584SOL    HW185867   2.814   8.119   0.433 -0.4388 -0.9568  0.6091
59584SOL    HW285868   2.857   8.117   0.578  0.5878 -0.6290  0.3159
59585SOL     OW85869   3.878   2.955   5.336  0.2263 -0.0541 -0.1525
59585SOL    HW185870   3.957   2.917   5.296  1.9005  2.4673  0.4593
59585SOL    HW285871   3.849   2.889   5.399  1.2135 -1.5053 -1.1454
59586SOL     OW85872   7.115   4.116  12.860 -0.6833  0.0075  0.4396
59586SOL    HW185873   7.207   4.108  12.835 -0.9522 -2.1071 -0.0628
59586SOL    HW285874   7.112   4.080  12.949 -1.1560 -0.7152  0.1342
59587SOL     OW85875  10.459  10.960  11.116 -0.0383  0.7058 -0.3760
59587SOL    HW185876  10.427  10.876  11.084 -2.2284  0.6728  1.6098
59587SOL    HW285877  10.503  10.999  11.041  0.0146 -1.6898 -1.6919
59588SOL     OW85878   9.087   6.893   9.461 -0.2790  0.2080 -0.1599
59588SOL    HW185879   9.074   6.866   9.370  0.8347 -2.9533  0.5171
59588SOL    HW285880   9.109   6.813   9.508 -0.0651  1.8428  2.7984
59589SOL     OW85881   0.951   9.909  11.749  0.2269  0.2631 -0.6709
59589SOL    HW185882   0.987   9.981  11.800  0.3481  0.3569 -0.8888
59589SOL    HW285883   0.858   9.929  11.741 -0.1556 -0.6037  0.9589
59590SOL     OW85884  10.423   3.221   8.124  0.2638  0.0883 -0.1809
59590SOL    HW185885  10.383   3.184   8.202  0.2735 -1.6192 -0.9530
59590SOL    HW285886  10.477   3.293   8.157 -2.0928  1.4150  1.0539
59591SOL     OW85887   9.092   3.420   9.676 -0.0988  0.5138  0.0877
59591SOL    HW185888   9.075   3.512   9.655  2.2032  0.9196 -0.2508
59591SOL    HW285889   9.130   3.422   9.764 -3.6238 -0.5728  1.8230
59592SOL     OW85890   0.792   1.335   5.315 -0.2484 -0.5511  0.2452
59592SOL    HW185891   0.788   1.425   5.282 -4.1878 -0.0561  1.5808
59592SOL    HW285892   0.751   1.282   5.246  0.8947 -1.1693  0.0164
59593SOL     OW85893   9.638  12.966   3.950 -0.3174  0.4363  0.2760
59593SOL    HW185894   9.631  13.044   3.895 -1.9207 -0.2023 -0.5027
59593SOL    HW285895   9.625  12.893   3.889 -1.7343 -0.3183  1.3966
59594SOL     OW85896   7.378   0.664   3.682  0.1851 -0.1427 -0.3617
59594SOL    HW185897   7.324   0.631   3.753 -0.4504  1.5737  0.0164
59594SOL    HW285898   7.409   0.749   3.713  0.5666  0.2760 -1.7983
59595SOL     OW85899   8.270   8.885  11.233  0.1379 -0.1841 -0.0048
59595SOL    HW185900   8.365   8.896  11.245 -0.0633  0.7733  0.8032
59595SOL    HW285901   8.262   8.806  11.179  1.3242 -1.5874  1.7471
59596SOL     OW85902   6.234   7.370   3.200  0.0694 -0.1456 -0.0419
59596SOL    HW185903   6.270   7.431   3.264  1.3309 -0.8420 -0.0588
59596SOL    HW285904   6.252   7.284   3.237 -0.2771 -0.5345 -0.7675
59597SOL     OW85905   9.404   0.067   0.114  0.2453  0.2935 -0.5411
59597SOL    HW185906   9.313   0.044   0.135 -0.0309  1.1343 -0.7726
59597SOL    HW285907   9.399   0.158   0.084  1.8543  2.4899  4.7414
59598SOL     OW85908   1.489   5.556  11.964  0.1511 -0.3005 -0.0350
59598SOL    HW185909   1.583   5.575  11.958  0.3517 -0.9688  0.7161
59598SOL    HW285910   1.461   5.600  12.044  0.2803 -1.7452  0.8525
59599SOL     OW85911   4.998   1.692  11.055 -0.8517 -0.0086  0.2572
59599SOL    HW185912   4.945   1.727  11.127  0.2115 -1.2592  1.7166
59599SOL    HW285913   5.014   1.601  11.080  1.0520  0.0294 -0.6733
59600SOL     OW85914   9.692  10.711  10.904 -0.2842 -0.0620  0.2444
59600SOL    HW185915   9.741  10.677  10.829 -0.8627  0.2575 -0.2789
59600SOL    HW285916   9.760  10.743  10.964  0.1684 -0.0783 -0.2519
59601SOL     OW85917  12.138   8.085   4.036 -0.1071 -0.0437  0.1267
59601SOL    HW185918  12.223   8.070   3.994  0.3747  0.5735  0.8584
59601SOL    HW285919  12.152   8.161   4.092 -0.3506 -1.5957  2.4378
59602SOL     OW85920  10.845   2.849   3.468 -0.3728  0.1981 -0.3827
59602SOL    HW185921  10.849   2.775   3.408 -0.7194 -1.2437  1.2690
59602SOL    HW285922  10.925   2.843   3.520 -1.1648 -0.0746  0.8783
59603SOL     OW85923   0.431   7.641  10.020 -0.0933 -0.2765 -0.3452
59603SOL    HW185924   0.344   7.660  10.056  0.2671  1.8503 -0.5073
59603SOL    HW285925   0.469   7.579  10.082 -1.8694 -1.6110 -0.5085
59604SOL     OW85926   1.955   4.926  10.611 -0.3036  0.0885  0.1866
59604SOL    HW185927   2.002   4.861  10.560 -0.6636 -0.5494  0.6508
59604SOL    HW285928   1.890   4.875  10.661 -2.4938  1.0564 -1.5000
59605SOL     OW85929   1.536   8.672  10.986  0.2145  0.2782 -0.1120
59605SOL    HW185930   1.564   8.748  10.935 -1.0709  1.1906  0.4946
59605SOL    HW285931   1.455   8.643  10.943 -0.7603  0.9146  1.2418
59606SOL     OW85932   0.266   8.141   0.371 -0.6434  0.1643 -0.3852
59606SOL    HW185933   0.220   8.223   0.389 -1.1555 -0.1699 -0.1572
59606SOL    HW285934   0.271   8.097   0.456 -0.7054 -0.2105 -0.5749
59607SOL     OW85935  11.797  12.117   7.079  0.0359 -0.5282 -0.0875
59607SOL    HW185936  11.758  12.180   7.019  0.3196  0.2366  0.5121
59607SOL    HW285937  11.862  12.071   7.026  0.7588  0.6057 -0.2162
59608SOL     OW85938   2.504   8.794   2.706  0.1625 -0.1587  0.0220
59608SOL    HW185939   2.429   8.853   2.700  0.1134 -0.2831 -0.7098
59608SOL    HW285940   2.465   8.706   2.708  0.0059 -0.2195  4.5492
59609SOL     OW85941   9.158   2.558   4.035  0.6268  0.9322 -0.0572
59609SOL    HW185942   9.241   2.606   4.040  0.0972  1.7760  0.7546
59609SOL    HW285943   9.090   2.625   4.041 -0.1297  0.2158 -0.3430
59610SOL     OW85944   8.358   8.752  11.493 -0.1671 -0.3104  0.0375
59610SOL    HW185945   8.301   8.693  11.444 -0.5384  0.6462 -0.7061
59610SOL    HW285946   8.388   8.700  11.568 -1.9620 -0.8353  0.4214
59611SOL     OW85947  11.610  10.892   5.583 -0.6117  0.0320 -0.1331
59611SOL    HW185948  11.623  10.829   5.513 -0.3466 -0.3121  0.2208
59611SOL    HW285949  11.571  10.968   5.540 -2.3258 -0.9153 -0.3229
59612SOL     OW85950   3.003   0.640   2.316 -0.2562 -0.0306  0.1279
59612SOL    HW185951   2.948   0.713   2.288  0.8656  0.4687 -0.8599
59612SOL    HW285952   3.043   0.608   2.235 -1.0381 -2.0308  0.4793
59613SOL     OW85953   1.347  12.885   0.212  0.5439 -0.5192 -0.5596
59613SOL    HW185954   1.402  12.896   0.135  1.4501 -0.3421  0.0887
59613SOL    HW285955   1.396  12.823   0.267  0.6047  0.4419  0.4918
59614SOL     OW85956   9.814   1.014   8.773  0.1760  0.1722 -0.3355
59614SOL    HW185957   9.838   0.944   8.713 -0.1694  0.4140 -0.7609
59614SOL    HW285958   9.724   0.994   8.798  0.4125 -0.0819  0.3259
59615SOL     OW85959   6.546   6.059  10.322 -0.2458 -0.2208 -0.2420
59615SOL    HW185960   6.534   6.008  10.242  3.2868  0.5808 -1.4717
59615SOL    HW285961   6.552   6.150  10.292 -0.6627  0.2990  1.1756
59616SOL     OW85962   5.866  11.601   3.888  0.1183 -0.3116 -0.0485
59616SOL    HW185963   5.906  11.614   3.974 -0.0962 -2.8541  0.5119
59616SOL    HW285964   5.924  11.539   3.844  0.2715  1.0063 -1.8314
59617SOL     OW85965   4.070   4.185   4.675  0.5001  0.3221  0.1660
59617SOL    HW185966   4.010   4.166   4.603 -0.4990 -0.5400  1.1849
59617SOL    HW285967   4.153   4.147   4.648 -0.8060 -3.7353  1.0912
59618SOL     OW85968   0.154   1.559   9.173 -0.5615 -0.6605  0.0696
59618SOL    HW185969   0.110   1.481   9.138 -0.2134 -0.9774  0.3244
59618SOL    HW285970   0.103   1.582   9.251 -1.4358  0.1425 -0.7096
59619SOL     OW85971   7.745  11.735   5.710  0.8515 -0.0604  0.0518
59619SOL    HW185972   7.840  11.746   5.722  0.4941  2.8841  0.8605
59619SOL    HW285973   7.712  11.714   5.798  0.4919  1.5665  0.3282
59620SOL     OW85974   8.866   0.421   7.314 -0.3922  0.2379 -0.4970
59620SOL    HW185975   8.804   0.475   7.363 -1.6540 -2.4052  1.0589
59620SOL    HW285976   8.811   0.355   7.271  1.2312 -2.7377  1.6096
59621SOL     OW85977   6.469   3.533   9.283  0.5430 -0.2240 -0.4009
59621SOL    HW185978   6.528   3.589   9.232  2.1659 -1.6944 -0.2477
59621SOL    HW285979   6.527   3.488   9.345 -0.5460 -2.5768 -0.9841
59622SOL     OW85980   6.000   2.338   2.733 -0.3172  0.4495 -0.5904
59622SOL    HW185981   6.064   2.337   2.662  1.3557 -2.1639  0.7900
59622SOL    HW285982   5.969   2.247   2.739 -1.4070  0.8848  1.1424
59623SOL     OW85983   9.302   3.917  11.369  0.2198 -0.3399 -0.0521
59623SOL    HW185984   9.218   3.955  11.342  0.5537 -0.7358 -1.7781
59623SOL    HW285985   9.291   3.897  11.462 -1.6253 -0.4854 -0.2674
59624SOL     OW85986   9.683   7.330   1.951 -0.0307 -0.4679 -0.3704
59624SOL    HW185987   9.633   7.376   2.019  0.2554 -1.4002  0.4934
59624SOL    HW285988   9.655   7.371   1.869 -0.3615  0.7102  0.2959
59625SOL     OW85989   5.163  12.611   4.106 -0.2473  0.5884 -0.6071
59625SOL    HW185990   5.248  12.572   4.086 -0.7313 -0.4511 -0.6596
59625SOL    HW285991   5.169  12.636   4.198  0.4966  1.5372 -0.8974
59626SOL     OW85992  11.739   4.171   5.714  0.1652 -0.0869  0.8227
59626SOL    HW185993  11.650   4.180   5.748  0.9792  0.7354  2.9502
59626SOL    HW285994  11.752   4.248   5.659 -0.8271 -0.8812 -0.5826
59627SOL     OW85995  11.601  10.998   6.079 -0.2644  0.4142 -0.6413
59627SOL    HW185996  11.625  11.085   6.046 -1.4654  0.6028 -1.0631
59627SOL    HW285997  11.601  10.942   6.001 -2.2210  0.6632 -0.8616
59628SOL     OW85998  11.866  12.582   3.637  0.4938  0.2004  0.4003
59628SOL    HW185999  11.849  12.512   3.573 -1.8866  0.2628  0.8479
59628SOL    HW286000  11.798  12.647   3.619 -0.1874  0.2659  2.8766
59629SOL     OW86001   7.649   3.223   3.381 -0.0795 -0.2767 -0.0215
59629SOL    HW186002   7.636   3.317   3.365 -1.0740 -0.6957 -1.8795
59629SOL    HW286003   7.682   3.219   3.471 -2.8301  1.6814  1.2346
59630SOL     OW86004   6.984  11.190   8.779 -0.2810 -0.5533 -0.1974
59630SOL    HW186005   6.905  11.147   8.811 -0.9527  0.2800 -0.7079
59630SOL    HW286006   6.989  11.165   8.687 -1.0649  0.9925 -0.6844
59631SOL     OW86007   7.424  11.208   5.160 -0.2144 -0.2474  0.3089
59631SOL    HW186008   7.388  11.128   5.123 -0.1231 -0.0703 -0.1750
59631SOL    HW286009   7.438  11.188   5.253 -3.4429  0.3109  1.0407
59632SOL     OW86010   8.640   3.935   5.521  0.0377 -1.2057 -0.6763
59632SOL    HW186011   8.627   3.847   5.557  1.0466 -1.2614 -0.4257
59632SOL    HW286012   8.699   3.922   5.447 -0.9228 -0.9098 -1.5226
59633SOL     OW86013   9.755   7.997   6.649 -0.1220 -0.0013  0.3023
59633SOL    HW186014   9.714   7.955   6.573  0.4379 -0.0722  0.0337
59633SOL    HW286015   9.824   8.052   6.612  0.9371 -0.9385  0.8236
59634SOL     OW86016   0.838  12.220   6.391 -0.0185  0.3667  0.0370
59634SOL    HW186017   0.817  12.276   6.316 -1.5743  1.1944  1.0222
59634SOL    HW286018   0.756  12.175   6.411  1.1500 -2.2054 -0.6110
59635SOL     OW86019  10.152   9.198   6.709 -0.0233 -0.0083 -0.1964
59635SOL    HW186020  10.221   9.264   6.698  0.2288 -0.2705 -0.2181
59635SOL    HW286021  10.197   9.124   6.750 -0.3918 -0.0161  0.1921
59636SOL     OW86022   3.937   2.895   4.427  0.5313  0.0106  0.6231
59636SOL    HW186023   3.944   2.976   4.377 -1.8246  0.5647  1.0922
59636SOL    HW286024   3.983   2.913   4.509  0.3396  0.7493  0.5739
59637SOL     OW86025   6.680   8.012   6.873 -0.1708  0.3491 -0.5938
59637SOL    HW186026   6.762   8.010   6.823  0.1490  0.3521 -0.0767
59637SOL    HW286027   6.653   7.920   6.878  1.1480  0.0288  1.4044
59638SOL     OW86028   4.697   1.863   8.706  0.1266 -0.1366  0.2834
59638SOL    HW186029   4.643   1.813   8.645  1.0633  1.7328 -2.2763
59638SOL    HW286030   4.635   1.923   8.749 -0.3160 -0.3281 -0.0808
59639SOL     OW86031   8.588  10.601   5.661 -0.4352 -0.3934  0.0232
59639SOL    HW186032   8.515  10.587   5.721 -0.9461  2.2877  0.1726
59639SOL    HW286033   8.548  10.639   5.583  0.6854  0.1005 -0.3295
59640SOL     OW86034   9.592  11.591   8.108  0.1786 -0.0578  0.4573
59640SOL    HW186035   9.610  11.637   8.027  0.1646 -1.3237 -0.2890
59640SOL    HW286036   9.632  11.505   8.097 -0.0176 -0.3331  1.7008
59641SOL     OW86037   6.946   0.657   7.264  0.1137  0.4327  0.6169
59641SOL    HW186038   7.008   0.591   7.234  1.4412  1.2751  1.4423
59641SOL    HW286039   6.863   0.630   7.224  1.2078 -0.0286 -1.5495
59642SOL     OW86040   2.797   0.907   1.818 -0.0682  0.0564 -0.1841
59642SOL    HW186041   2.835   0.984   1.858  1.8487 -0.8914 -0.0765
59642SOL    HW286042   2.808   0.922   1.724  0.6827 -0.2359 -0.1532
59643SOL     OW86043   8.526  12.223   3.571 -0.6465  0.3043 -0.8449
59643SOL    HW186044   8.462  12.201   3.639  1.3295 -0.0474  1.0244
59643SOL    HW286045   8.575  12.142   3.557 -0.5440  0.5821 -2.1634
59644SOL     OW86046   9.569  10.074   1.379 -0.3906  0.3082 -0.5696
59644SOL    HW186047   9.630  10.000   1.383 -0.3659  0.3712  0.7107
59644SOL    HW286048   9.483  10.033   1.387 -0.4733  0.3010 -1.4126
59645SOL     OW86049  11.051   6.894   5.417  0.3412  0.2802 -0.0400
59645SOL    HW186050  11.137   6.893   5.375  0.9222 -2.4744  1.0025
59645SOL    HW286051  11.065   6.941   5.499  0.1617  2.0743 -0.9712
59646SOL     OW86052   6.590   4.770  11.047  0.3743  0.0251  0.3271
59646SOL    HW186053   6.637   4.687  11.052  1.3146  0.6011  3.7999
59646SOL    HW286054   6.617   4.808  10.963  1.9849 -1.9866 -0.1500
59647SOL     OW86055   7.670   3.988   5.890 -0.3475  0.4064 -0.6989
59647SOL    HW186056   7.757   4.022   5.872 -0.2479  0.7558  0.3630
59647SOL    HW286057   7.685   3.899   5.924 -0.4686  0.1309 -1.3475
59648SOL     OW86058   3.582   2.878  10.056 -0.4610  0.4352  0.0380
59648SOL    HW186059   3.492   2.847  10.043  0.0189 -0.1868 -2.1688
59648SOL    HW286060   3.637   2.807  10.022  0.9476  0.3661  2.2664
59649SOL     OW86061   2.191  12.168   4.826  0.1221  0.0928 -0.1784
59649SOL    HW186062   2.203  12.076   4.803  1.3696  0.7399 -2.4035
59649SOL    HW286063   2.223  12.174   4.916  3.1402 -1.1240 -1.0309
59650SOL     OW86064   1.848  12.301   6.397  0.1815 -0.2520 -0.0483
59650SOL    HW186065   1.902  12.365   6.351  0.9743  0.1879  1.4080
59650SOL    HW286066   1.855  12.327   6.489  0.6539 -2.5084  0.6188
59651SOL     OW86067   6.953   1.015  12.866 -0.7877 -0.4691  0.0102
59651SOL    HW186068   7.003   1.089  12.832 -1.3723  0.0868  0.3382
59651SOL    HW286069   6.865   1.050  12.879 -1.2174 -1.3702 -0.3570
59652SOL     OW86070   7.926   0.323   8.653  0.7471  0.6277  0.2683
59652SOL    HW186071   7.928   0.327   8.558 -1.8920  0.9454  0.1499
59652SOL    HW286072   7.951   0.411   8.681 -0.1243  1.0429 -0.2163
59653SOL     OW86073  10.782   3.616   2.208 -0.4658 -0.0356  0.2589
59653SOL    HW186074  10.691   3.599   2.183 -0.6252  1.4506 -0.2431
59653SOL    HW286075  10.776   3.652   2.297 -0.4539  0.8037 -0.0695
59654SOL     OW86076   2.943  10.698   2.796 -0.2937  0.0924 -0.2206
59654SOL    HW186077   2.892  10.743   2.729  0.4650 -1.1809 -1.7169
59654SOL    HW286078   3.031  10.736   2.788  0.1054 -0.9173 -0.8270
59655SOL     OW86079   9.529   4.132   3.793  0.1633  0.1466 -0.7276
59655SOL    HW186080   9.537   4.215   3.840 -1.0842 -1.0289  1.7143
59655SOL    HW286081   9.606   4.081   3.821 -0.4793 -0.4838 -0.0786
59656SOL     OW86082   0.208   6.859   0.582 -0.4592 -0.6346  0.2854
59656SOL    HW186083   0.291   6.907   0.575  1.1821 -3.4620 -2.6823
59656SOL    HW286084   0.222   6.797   0.654 -0.0515 -0.9903 -0.0977
59657SOL     OW86085   0.178   1.139   9.754 -0.7219  0.1797 -0.3733
59657SOL    HW186086   0.083   1.126   9.757 -0.8681  1.2106 -0.1923
59657SOL    HW286087   0.190   1.234   9.758  0.3225  0.0611 -0.2890
59658SOL     OW86088   6.644   4.800   0.764 -0.2141 -0.0986  0.5072
59658SOL    HW186089   6.566   4.762   0.724 -0.7093  2.1572 -0.8530
59658SOL    HW286090   6.658   4.882   0.717  3.0599 -0.4318  0.6279
59659SOL     OW86091   1.864  12.906   7.977  0.3876  0.4029  0.7193
59659SOL    HW186092   1.930  12.837   7.975  1.3710  1.3228  0.1552
59659SOL    HW286093   1.907  12.981   7.935 -0.7536  1.2594  1.0378
59660SOL     OW86094   8.849  10.647   9.984  0.0030  0.8408  0.0835
59660SOL    HW186095   8.897  10.608  10.057  1.2419  2.4994  0.2140
59660SOL    HW286096   8.901  10.625   9.906 -0.2334  0.7739 -0.0580
59661SOL     OW86097   7.249  10.720   4.545  0.5218  0.4180  0.4573
59661SOL    HW186098   7.309  10.779   4.499 -0.9003  1.3600 -0.2602
59661SOL    HW286099   7.269  10.634   4.508  1.4576  0.6967  0.2692
59662SOL     OW86100   7.689   6.748   0.780 -0.1463 -0.2845  0.1777
59662SOL    HW186101   7.756   6.697   0.826  0.2825  0.4030  0.3221
59662SOL    HW286102   7.726   6.836   0.773 -0.1082 -0.3999 -1.6404
59663SOL     OW86103   9.465   9.607   6.384  0.0056  0.0357 -0.0238
59663SOL    HW186104   9.550   9.593   6.342 -0.0201  0.7419 -0.3121
59663SOL    HW286105   9.465   9.699   6.410  1.5484 -1.0784  4.8874
59664SOL     OW86106  12.574   4.583   9.602  0.1075  0.0233 -0.0234
59664SOL    HW186107  12.601   4.492   9.599  0.1162  0.0069  0.4939
59664SOL    HW286108  12.618   4.624   9.528  1.6269  0.0181  0.8207
59665SOL     OW86109  12.489   9.656   4.795 -0.4675  0.0326 -0.2431
59665SOL    HW186110  12.507   9.569   4.831 -0.2994  0.3745  0.5201
59665SOL    HW286111  12.471   9.641   4.702 -0.4307 -0.8142 -0.1159
59666SOL     OW86112   5.522   6.821   6.799 -0.2123  0.1549 -0.2260
59666SOL    HW186113   5.613   6.850   6.797  0.7967 -2.6293  0.4468
59666SOL    HW286114   5.508   6.790   6.889 -2.0156  0.9864 -0.1720
59667SOL     OW86115   5.364  12.429   3.064  0.4562  0.6809 -0.1204
59667SOL    HW186116   5.289  12.400   3.117  1.5821 -1.5094  0.3766
59667SOL    HW286117   5.421  12.473   3.126 -0.2094  2.0057 -0.4231
59668SOL     OW86118   7.364   6.808   5.557 -0.1697 -0.5682  0.3232
59668SOL    HW186119   7.393   6.723   5.590 -0.5644 -1.5857 -1.7354
59668SOL    HW286120   7.276   6.819   5.593  0.4512 -0.2888  1.8090
59669SOL     OW86121   5.054   0.510   8.753 -0.0498 -0.1426  0.2530
59669SOL    HW186122   5.143   0.544   8.742 -0.6663  1.3459 -0.4556
59669SOL    HW286123   5.004   0.553   8.684 -1.6365  0.2485  1.5963
59670SOL     OW86124   2.942  11.127   8.207  0.3852  0.4642 -0.0789
59670SOL    HW186125   2.998  11.064   8.251  0.1508  0.0399 -0.3799
59670SOL    HW286126   2.896  11.172   8.278  1.4401  1.1454  0.1905
59671SOL     OW86127   2.154   9.954   5.946  0.3427  0.3305 -0.0223
59671SOL    HW186128   2.128  10.008   6.022  3.2096  0.0872  1.2647
59671SOL    HW286129   2.108   9.871   5.959 -1.7370  1.3443 -0.3876
59672SOL     OW86130   4.103  12.773   9.833 -0.1429 -0.0520  0.5009
59672SOL    HW186131   4.126  12.699   9.889  0.6396 -0.4711 -0.3413
59672SOL    HW286132   4.142  12.849   9.878 -1.3181 -0.0630  1.5896
59673SOL     OW86133   7.115  10.395   6.717 -0.1184  0.3423  0.0745
59673SOL    HW186134   7.203  10.397   6.678 -0.2830 -0.6264 -0.3985
59673SOL    HW286135   7.056  10.413   6.643 -0.3500  0.1524  0.2104
59674SOL     OW86136   5.278   6.654  10.227  0.0441  0.2362 -0.8273
59674SOL    HW186137   5.191   6.675  10.263  0.8248  1.4007  0.4641
59674SOL    HW286138   5.295   6.725  10.165  0.9199  1.2114  0.4691
59675SOL     OW86139   2.196   9.857   4.961 -0.5398 -0.2923  0.6702
59675SOL    HW186140   2.271   9.874   5.017  0.1649  0.8671 -0.5759
59675SOL    HW286141   2.230   9.865   4.871 -2.1322  0.2619  0.0769
59676SOL     OW86142   3.389   1.269   9.675 -0.1893  0.0884 -0.2918
59676SOL    HW186143   3.326   1.327   9.717 -0.3073  0.0708 -0.4429
59676SOL    HW286144   3.465   1.270   9.734 -0.0582  0.6591 -0.4654
59677SOL     OW86145   8.303   5.961   7.316 -0.4026 -0.6260 -0.0276
59677SOL    HW186146   8.249   6.024   7.267 -2.8768 -0.9412  2.0689
59677SOL    HW286147   8.326   5.894   7.251 -0.0384  1.0152 -1.6688
59678SOL     OW86148   0.054   8.111   5.967 -0.0036  0.3316 -0.1132
59678SOL    HW186149   0.000   8.114   6.047 -0.0524  1.9507 -0.1868
59678SOL    HW286150  -0.003   8.145   5.898  0.9556  1.6563 -0.2775
59679SOL     OW86151   5.881   3.474   5.444 -0.2084  0.2558 -0.4461
59679SOL    HW186152   5.969   3.436   5.452 -0.2189  0.1028 -0.9979
59679SOL    HW286153   5.887   3.558   5.490  0.1826  0.1684 -0.3350
59680SOL     OW86154   0.197   6.934   2.464  0.0019  0.0585 -0.1625
59680SOL    HW186155   0.177   6.970   2.377 -0.4269  1.0020  0.3208
59680SOL    HW286156   0.238   7.006   2.511 -1.2241  0.0474  0.9595
59681SOL     OW86157   8.566   4.474   2.687 -0.2904  0.0929 -0.1871
59681SOL    HW186158   8.478   4.511   2.695 -0.4863 -0.3008 -0.4879
59681SOL    HW286159   8.566   4.430   2.602  0.0121 -0.4010  0.0625
59682SOL     OW86160   4.129   4.398   6.135  0.0080 -0.1995 -0.3284
59682SOL    HW186161   4.215   4.433   6.157 -0.8354  1.1594  1.0211
59682SOL    HW286162   4.124   4.314   6.180 -0.2402  0.8295  1.6974
59683SOL     OW86163  10.374   5.567   2.957  0.5186 -0.7849  0.5147
59683SOL    HW186164  10.350   5.512   2.882 -2.1690 -0.1382  0.7979
59683SOL    HW286165  10.450   5.617   2.926  0.2825 -1.4664 -1.3068
59684SOL     OW86166   7.978   2.433  10.226 -0.3817  0.1628  0.0812
59684SOL    HW186167   7.961   2.361  10.286 -0.9372  1.0920  1.0829
59684SOL    HW286168   7.892   2.473  10.210  0.1037  1.6314  0.9090
59685SOL     OW86169   4.000  11.705  11.721  0.4186 -1.0215 -0.1931
59685SOL    HW186170   3.923  11.731  11.770  0.0364 -1.0880 -0.7506
59685SOL    HW286171   4.024  11.619  11.757  0.8550 -0.5381  0.6870
59686SOL     OW86172   9.892   6.297   5.198  0.4935  0.4644  0.1086
59686SOL    HW186173   9.881   6.291   5.103  1.0382 -1.1761  0.1033
59686SOL    HW286174   9.813   6.257   5.234  0.6697  0.3061  0.3243
59687SOL     OW86175   6.436   9.068   7.722 -0.0280  0.2451 -0.9979
59687SOL    HW186176   6.386   9.055   7.803  0.7822  0.6247 -0.4278
59687SOL    HW286177   6.393   9.012   7.658  0.6515 -1.7967  0.2486
59688SOL     OW86178   9.498   1.760   4.350 -0.2761 -0.5937 -0.4469
59688SOL    HW186179   9.475   1.848   4.379  0.2022 -0.7026  0.3045
59688SOL    HW286180   9.548   1.723   4.423  0.7011 -1.0081 -1.2991
59689SOL     OW86181   3.145   7.233   8.475 -0.1649 -0.0512  0.1934
59689SOL    HW186182   3.192   7.253   8.555  2.5362 -0.9722 -1.0452
59689SOL    HW286183   3.142   7.316   8.427 -1.2282  0.3583  0.9518
59690SOL     OW86184   2.650  11.010   5.805 -0.5835  0.2600 -0.6064
59690SOL    HW186185   2.602  10.932   5.833 -0.9993  0.2175 -1.4133
59690SOL    HW286186   2.721  10.976   5.750  0.4015  0.3230  0.5712
59691SOL     OW86187   6.245   9.117   4.821  0.7099  0.0325 -0.4285
59691SOL    HW186188   6.289   9.201   4.807 -0.5404  0.9837  1.0154
59691SOL    HW286189   6.207   9.095   4.736 -1.2400  2.3484 -0.2895
59692SOL     OW86190  12.759   6.753   5.538 -0.5135  0.2416 -0.3280
59692SOL    HW186191  12.836   6.802   5.567 -0.6598 -0.1640  0.7731
59692SOL    HW286192  12.795   6.669   5.507 -0.5848 -0.3596  1.1513
59693SOL     OW86193   3.909   3.384   1.895  0.0986 -0.1758  0.0052
59693SOL    HW186194   3.979   3.380   1.830  0.6934 -0.8290  0.6639
59693SOL    HW286195   3.895   3.293   1.921 -0.5488  0.0118  0.3545
59694SOL     OW86196   5.209   3.864   4.258 -0.9505  0.2543  0.6152
59694SOL    HW186197   5.179   3.797   4.319 -0.2660  1.0816  1.8963
59694SOL    HW286198   5.299   3.882   4.283 -1.5562  2.7327  1.3242
59695SOL     OW86199   7.528   5.655  10.220  0.3578  0.2227 -0.5253
59695SOL    HW186200   7.608   5.651  10.273  0.0376  0.9307  0.0316
59695SOL    HW286201   7.547   5.722  10.154  1.2429 -1.5602 -2.1830
59696SOL     OW86202   2.786  12.018   3.401  0.4960 -0.1322 -0.0445
59696SOL    HW186203   2.780  12.016   3.306  0.1644  3.3245 -0.2219
59696SOL    HW286204   2.695  12.019   3.431  0.5332  1.1475  0.1063
59697SOL     OW86205   6.108   5.215   9.085  0.0587 -0.3365 -0.2091
59697SOL    HW186206   6.015   5.200   9.069 -0.4800 -1.2928  3.0536
59697SOL    HW286207   6.142   5.128   9.106  1.3030  0.2550  0.2950
59698SOL     OW86208   7.353  12.550   2.729  0.0216  0.4144 -0.1143
59698SOL    HW186209   7.331  12.638   2.697 -2.1619 -0.2968 -0.7512
59698SOL    HW286210   7.310  12.545   2.815 -0.8999 -0.4375 -0.6153
59699SOL     OW86211  10.308   1.106   4.080 -0.6182 -0.2886 -0.2695
59699SOL    HW186212  10.351   1.188   4.102 -0.5482 -0.2137 -0.6796
59699SOL    HW286213  10.225   1.131   4.039 -0.9622 -0.4315  0.3239
59700SOL     OW86214  10.912   8.774  11.939 -0.6306 -0.2167  0.6618
59700SOL    HW186215  10.927   8.683  11.914  0.3357 -0.2013  1.1478
59700SOL    HW286216  10.896   8.820  11.856 -1.2009 -0.8283  0.4204
59701SOL     OW86217   2.790  11.186   0.392 -0.5335 -0.8317  0.2524
59701SOL    HW186218   2.709  11.229   0.420  0.7417  0.7985  1.6256
59701SOL    HW286219   2.857  11.254   0.399  1.0690 -2.2900 -0.3035
59702SOL     OW86220  10.261   9.946  12.095  0.1882 -0.1689 -0.6580
59702SOL    HW186221  10.329   9.953  12.028 -0.5071  1.3018 -1.2509
59702SOL    HW286222  10.195   9.887  12.056  0.8465 -1.1638 -0.3010
59703SOL     OW86223   6.282   0.519   1.087  0.2590 -0.1361 -0.2773
59703SOL    HW186224   6.252   0.511   1.178  0.0599 -1.2924 -0.4331
59703SOL    HW286225   6.362   0.467   1.083  1.0508  1.0611 -0.4355
59704SOL     OW86226  11.985   9.773   8.768 -0.1226  0.2513 -0.1074
59704SOL    HW186227  12.074   9.805   8.753  0.0017  1.0626  2.0382
59704SOL    HW286228  11.996   9.680   8.785  0.1795  0.1351 -0.9001
59705SOL     OW86229   0.684   7.962  10.764 -0.0342 -0.7324  0.1811
59705SOL    HW186230   0.740   7.919  10.700  0.3937 -0.3983  0.3223
59705SOL    HW286231   0.618   7.897  10.787 -2.8302  0.3588 -3.6822
59706SOL     OW86232   1.314   1.599   0.931  0.4273 -0.0464 -0.2522
59706SOL    HW186233   1.407   1.625   0.931  0.7891 -1.2535 -0.8759
59706SOL    HW286234   1.276   1.645   1.005  1.1120  1.8717 -1.0235
59707SOL     OW86235   0.248  10.922   9.053 -0.0879  0.4516 -0.1321
59707SOL    HW186236   0.220  10.967   8.974 -0.1022 -1.5686 -1.3375
59707SOL    HW286237   0.205  10.969   9.124 -1.4978  1.2306 -1.4490
59708SOL     OW86238   7.336   9.391   6.420 -0.1039 -0.5821 -0.2836
59708SOL    HW186239   7.242   9.378   6.409 -0.2593  0.2654  0.0215
59708SOL    HW286240   7.344   9.470   6.473  0.7994 -0.1232 -1.0685
59709SOL     OW86241  10.450   3.265  11.149 -0.1899 -0.0921  0.6179
59709SOL    HW186242  10.520   3.330  11.152 -0.2372  0.0336 -0.4148
59709SOL    HW286243  10.428   3.248  11.241 -0.4197  1.6178  0.9027
59710SOL     OW86244   8.968  11.900  10.566  0.7067 -0.0815  0.0561
59710SOL    HW186245   9.014  11.918  10.648  0.4121 -1.6723  0.6193
59710SOL    HW286246   8.876  11.918  10.586  0.9035  1.8834 -0.6875
59711SOL     OW86247  11.825   4.844   6.272  0.2935 -0.0512 -0.7159
59711SOL    HW186248  11.908   4.891   6.280  0.1743 -0.1138  1.7058
59711SOL    HW286249  11.830   4.776   6.339 -1.4796 -0.4342 -0.9341
59712SOL     OW86250   5.781   6.397   1.963 -0.4442  0.0146  0.6568
59712SOL    HW186251   5.836   6.320   1.953  0.6844  0.9214 -0.4335
59712SOL    HW286252   5.707   6.367   2.016 -0.9378 -2.2680 -1.1689
59713SOL     OW86253   4.381  12.649   5.308  0.3972  0.3181 -0.1091
59713SOL    HW186254   4.406  12.728   5.260 -1.8287 -0.6149 -3.1614
59713SOL    HW286255   4.453  12.588   5.295  0.6591  0.7444 -0.6901
59714SOL     OW86256  12.706   6.275   2.746  0.1721  0.1608 -0.2296
59714SOL    HW186257  12.781   6.249   2.800 -0.3126  2.0960  1.5163
59714SOL    HW286258  12.659   6.338   2.800 -1.2004  1.0990 -2.3867
59715SOL     OW86259   4.045   2.294   2.026 -0.1049  0.0974  0.2513
59715SOL    HW186260   3.968   2.295   1.969  0.2931  0.2249 -0.2816
59715SOL    HW286261   4.010   2.272   2.112 -0.3392 -3.6381 -0.6247
59716SOL     OW86262   8.899   5.384  12.359  0.3155  0.0629 -0.1345
59716SOL    HW186263   8.805   5.374  12.374  0.0453 -0.9235 -2.1345
59716SOL    HW286264   8.939   5.366  12.444 -1.0875 -3.9396 -0.1219
59717SOL     OW86265   9.664   8.055   7.445 -0.4179 -0.6702 -0.0557
59717SOL    HW186266   9.618   8.131   7.480  1.0625 -0.4564  1.5674
59717SOL    HW286267   9.660   8.066   7.350 -3.0084 -0.3002  0.0265
59718SOL     OW86268   7.897   7.415   4.458 -0.6671 -0.8011 -0.0832
59718SOL    HW186269   7.944   7.495   4.482 -0.0933 -1.4134  0.9563
59718SOL    HW286270   7.926   7.395   4.369  1.4765 -1.4152  0.6950
59719SOL     OW86271  12.780   1.782  12.746 -0.1348  0.0333 -0.2424
59719SOL    HW186272  12.823   1.835  12.678  0.2272 -0.5173 -0.4552
59719SOL    HW286273  12.822   1.810  12.828  1.4648 -1.2693 -0.5657
59720SOL     OW86274   1.176   2.901   6.730  0.1936  0.0819 -0.4568
59720SOL    HW186275   1.117   2.880   6.658 -0.0862  1.3215 -0.6170
59720SOL    HW286276   1.121   2.943   6.796  0.4509 -1.0349  0.4916
59721SOL     OW86277   4.065   6.976   4.027  0.2857 -0.0962 -0.0947
59721SOL    HW186278   4.030   7.047   3.975  0.9679 -0.3485 -0.9234
59721SOL    HW286279   3.996   6.910   4.029 -0.3561  0.5829  0.6963
59722SOL     OW86280   1.182   2.548   2.230  0.5946  0.2602  0.1998
59722SOL    HW186281   1.160   2.537   2.138  1.8435 -2.2351  0.1025
59722SOL    HW286282   1.224   2.634   2.236 -2.7035  2.1065 -0.8043
59723SOL     OW86283   5.220   2.739  10.903  0.3662  0.1353  0.6358
59723SOL    HW186284   5.128   2.744  10.878  0.6959 -1.4218 -1.1029
59723SOL    HW286285   5.224   2.665  10.964  0.3908  0.5200  1.1025
59724SOL     OW86286   0.691   0.455   1.477  0.4599 -0.5968 -0.4006
59724SOL    HW186287   0.729   0.540   1.456 -0.7465 -0.1929 -1.0756
59724SOL    HW286288   0.697   0.406   1.395  0.1843 -0.7771 -0.3145
59725SOL     OW86289  12.616   2.419   9.653 -0.1864 -0.1783  0.5451
59725SOL    HW186290  12.693   2.375   9.690  0.0929  0.0512  0.2399
59725SOL    HW286291  12.617   2.506   9.693  0.0511  0.0299  0.0909
59726SOL     OW86292   7.639   0.225   2.715 -0.2259  0.1737  0.3197
59726SOL    HW186293   7.582   0.282   2.662  1.7081  0.5630 -1.4878
59726SOL    HW286294   7.615   0.136   2.688 -0.9150  0.2691  0.6005
59727SOL     OW86295   2.217   7.260   5.406 -0.4585  0.5925  0.2008
59727SOL    HW186296   2.245   7.352   5.404 -0.4372  0.6083 -2.1317
59727SOL    HW286297   2.153   7.253   5.335 -2.5320 -0.6446  2.0619
59728SOL     OW86298   8.095   6.835   9.250  0.0831  0.3226  0.6108
59728SOL    HW186299   8.092   6.930   9.245  2.0478  0.3576 -1.9125
59728SOL    HW286300   8.163   6.817   9.314  2.1555  0.7823 -1.3230
59729SOL     OW86301   6.798   3.330  11.673  0.4716  0.0965  0.0868
59729SOL    HW186302   6.796   3.237  11.651 -0.9390 -0.1426  1.0825
59729SOL    HW286303   6.803   3.332  11.769  2.2282  1.0727  0.0053
59730SOL     OW86304   9.409   0.710   1.481  0.1728  0.4249 -0.7018
59730SOL    HW186305   9.388   0.731   1.572 -1.5273 -2.9173 -0.1853
59730SOL    HW286306   9.500   0.680   1.484  0.2256  0.6251 -0.1486
59731SOL     OW86307  12.295  12.856  12.956 -0.5729 -0.1246  0.3089
59731SOL    HW186308  12.316  12.901  12.873  1.1638  2.5289  2.0296
59731SOL    HW286309  12.376  12.812  12.980 -0.8377 -0.2594  0.9534
59732SOL     OW86310  12.191   8.120   6.241 -0.1690  0.0789  0.3706
59732SOL    HW186311  12.280   8.097   6.212 -0.1542  1.6665 -0.9733
59732SOL    HW286312  12.188   8.094   6.333  1.6765 -0.0438  0.4257
59733SOL     OW86313   1.251  11.712   7.536 -0.6914  0.1466 -0.0215
59733SOL    HW186314   1.223  11.657   7.464 -0.1577  0.4876 -0.5011
59733SOL    HW286315   1.280  11.651   7.604  0.2945 -0.1679 -0.7109
59734SOL     OW86316   2.413   6.867   2.766  0.1255 -0.0433  0.1206
59734SOL    HW186317   2.458   6.948   2.789 -0.9099  0.3949  0.6659
59734SOL    HW286318   2.320   6.892   2.761 -0.1544 -1.1001 -0.1325
59735SOL     OW86319   5.264  10.288   6.067 -0.0743  0.4365  0.5136
59735SOL    HW186320   5.199  10.340   6.018  0.2623  1.6651  1.3368
59735SOL    HW286321   5.222  10.203   6.077 -1.5452  1.1646  0.9347
59736SOL     OW86322   8.261   2.867   2.338  0.3794 -0.0404  0.3049
59736SOL    HW186323   8.195   2.869   2.407  0.5563 -0.9862  0.5238
59736SOL    HW286324   8.330   2.811   2.373  0.1585 -1.1278 -0.9075
59737SOL     OW86325   0.210   6.918   1.151  0.2331 -0.2872  0.4961
59737SOL    HW186326   0.229   6.835   1.194 -1.0905 -0.3156  1.0636
59737SOL    HW286327   0.245   6.908   1.062  3.2744 -0.1351  1.5411
59738SOL     OW86328  11.145  12.827   9.302  0.1906  0.0955  0.0456
59738SOL    HW186329  11.149  12.875   9.385 -1.1982  1.7364 -0.7615
59738SOL    HW286330  11.074  12.765   9.314  0.9099 -0.6529  0.5343
59739SOL     OW86331   7.879   6.273  12.771  0.4982 -0.1523  0.4446
59739SOL    HW186332   7.882   6.283  12.676  1.2077 -0.8141  0.3862
59739SOL    HW286333   7.970   6.262  12.797  0.2080 -1.4945  1.0161
59740SOL     OW86334   1.838   1.865  12.721  0.1705 -0.0774 -0.7253
59740SOL    HW186335   1.831   1.939  12.781 -2.7043  1.0077 -2.2131
59740SOL    HW286336   1.798   1.896  12.639 -1.0438 -3.2042 -1.4707
59741SOL     OW86337   8.820   6.207   0.303 -0.3686 -0.3090 -0.0073
59741SOL    HW186338   8.860   6.197   0.216  0.0115 -0.5706  0.1975
59741SOL    HW286339   8.787   6.297   0.303 -1.4311 -0.6667 -0.8674
59742SOL     OW86340   4.828   0.979   8.844  0.3073 -0.4061 -0.2149
59742SOL    HW186341   4.896   1.042   8.821  0.4033 -0.3062  0.3461
59742SOL    HW286342   4.776   1.023   8.911  1.3148 -1.5275  1.3477
59743SOL     OW86343   2.383   9.827   5.521  0.1267  0.3205 -0.4740
59743SOL    HW186344   2.347   9.739   5.509 -0.4472  0.4222  0.4089
59743SOL    HW286345   2.325   9.884   5.471 -0.6152  0.4092  0.4565
59744SOL     OW86346   0.003   4.651   2.481  0.5388 -0.4141  0.1303
59744SOL    HW186347  -0.028   4.703   2.406  1.1886  1.0576  0.8346
59744SOL    HW286348   0.014   4.563   2.446 -0.3688 -0.0450 -1.1840
59745SOL     OW86349   6.888  10.632   6.211  0.1143 -0.1364 -0.6443
59745SOL    HW186350   6.983  10.637   6.216  0.0121  0.9987  0.7355
59745SOL    HW286351   6.857  10.686   6.283 -1.5907 -0.1572 -1.3093
59746SOL     OW86352  11.400   4.657   9.094 -0.6204 -0.2445  0.0219
59746SOL    HW186353  11.461   4.723   9.127 -1.2131 -0.1517  0.9832
59746SOL    HW286354  11.363   4.696   9.014 -0.0958  0.0789 -0.0640
59747SOL     OW86355  11.900   7.888   0.694 -0.0228  0.2595  0.1435
59747SOL    HW186356  11.952   7.808   0.684 -0.2632 -0.1154  1.5912
59747SOL    HW286357  11.913   7.936   0.612 -0.9655 -1.8942 -1.3550
59748SOL     OW86358  10.974   0.897  11.915 -0.2524  0.6672  0.7725
59748SOL    HW186359  10.947   0.981  11.879 -0.2067 -0.3155 -1.7669
59748SOL    HW286360  10.920   0.833  11.869  0.1657 -0.7426  2.1677
59749SOL     OW86361   8.162   5.085   1.935 -0.3626 -0.3243  0.3530
59749SOL    HW186362   8.251   5.118   1.925 -0.3226 -0.4136  0.4165
59749SOL    HW286363   8.117   5.112   1.855  0.2305 -1.9216 -0.5618
59750SOL     OW86364  10.261   1.783   9.641  0.1411  0.5056  0.9890
59750SOL    HW186365  10.210   1.844   9.695 -1.8156  0.7797 -0.9718
59750SOL    HW286366  10.234   1.804   9.551  4.7776  1.5490 -0.4068
59751SOL     OW86367   9.469   7.195   3.770  0.0640  1.0140 -0.3044
59751SOL    HW186368   9.469   7.168   3.679 -1.9276  0.0118 -0.0621
59751SOL    HW286369   9.435   7.284   3.769 -0.3640  0.8472 -0.4987
59752SOL     OW86370   2.456   2.140   7.573 -0.0735 -0.4915  0.2049
59752SOL    HW186371   2.469   2.104   7.661 -0.3357  0.9140  0.8480
59752SOL    HW286372   2.497   2.227   7.577 -2.1957  0.5915 -0.3077
59753SOL     OW86373   1.005   7.637  12.843  0.3334  0.4710  0.2984
59753SOL    HW186374   1.012   7.671  12.754  2.3794  0.0289  0.2256
59753SOL    HW286375   1.092   7.600  12.860 -0.5184 -0.8825  1.9005
59754SOL     OW86376   5.228   8.603   8.354  0.0128  0.2843 -0.3684
59754SOL    HW186377   5.176   8.679   8.382  1.5232  1.5120 -0.7171
59754SOL    HW286378   5.312   8.615   8.399 -0.3524 -2.3366  1.2168
59755SOL     OW86379   9.255   9.689   6.002 -0.4655 -0.1315  0.0806
59755SOL    HW186380   9.284   9.776   6.030  1.4833 -1.4899  2.6679
59755SOL    HW286381   9.324   9.630   6.032 -0.8219 -2.4611 -3.1917
59756SOL     OW86382  10.719  11.115   9.665  0.4523  0.0810 -0.1875
59756SOL    HW186383  10.712  11.210   9.658 -4.8580 -0.0059 -0.0881
59756SOL    HW286384  10.775  11.100   9.740 -0.9904  3.3137  1.7338
59757SOL     OW86385   2.684  11.605   2.776 -0.0163  0.0215 -0.4494
59757SOL    HW186386   2.671  11.686   2.726 -0.7864  0.8358  1.0037
59757SOL    HW286387   2.644  11.537   2.722  0.7882  0.5414 -1.7792
59758SOL     OW86388   6.128  11.447   1.421  0.6099 -0.1663 -0.1756
59758SOL    HW186389   6.129  11.375   1.358 -0.1148 -2.0414  1.7982
59758SOL    HW286390   6.063  11.509   1.387 -0.3268 -1.4936 -0.9023
59759SOL     OW86391  12.523   0.354  12.121 -0.1116  0.0045 -0.3063
59759SOL    HW186392  12.534   0.278  12.064  0.7274 -0.5172  0.5137
59759SOL    HW286393  12.454   0.406  12.079 -1.2166 -1.5530 -0.5124
59760SOL     OW86394   7.658  12.197  11.618 -0.3628 -0.6627  0.0647
59760SOL    HW186395   7.706  12.151  11.687 -1.5495  0.2326  1.5493
59760SOL    HW286396   7.566  12.184  11.640 -0.7514  0.9157 -0.4652
59761SOL     OW86397   5.458   2.456   4.662  0.2864  0.1790 -0.8740
59761SOL    HW186398   5.530   2.421   4.715  0.8142 -0.4879 -2.0034
59761SOL    HW286399   5.417   2.522   4.719  0.5902 -0.7625  0.5030
59762SOL     OW86400  11.011   6.230  11.376  0.1701 -0.5067 -0.4829
59762SOL    HW186401  11.009   6.320  11.408  1.6587 -0.3574 -0.7208
59762SOL    HW286402  11.050   6.237  11.289  3.8744 -1.6806  0.8937
59763SOL     OW86403   9.938   1.789   1.807 -0.1635  0.0769  0.2017
59763SOL    HW186404   9.942   1.763   1.899  1.1222  0.4709  0.2803
59763SOL    HW286405  10.024   1.767   1.772 -0.5687  0.1238 -0.8667
59764SOL     OW86406  10.538  11.267   3.846 -0.0927  0.4321 -0.1959
59764SOL    HW186407  10.576  11.314   3.921  2.1986  0.8867 -1.5336
59764SOL    HW286408  10.598  11.194   3.831 -2.3120 -1.6426  0.3513
59765SOL     OW86409   4.824   9.914   3.578 -0.0601  0.0303  0.3282
59765SOL    HW186410   4.742   9.873   3.605 -0.7777  0.0328 -1.7084
59765SOL    HW286411   4.854   9.862   3.503  1.6399  0.2440  0.8092
59766SOL     OW86412  11.489   5.572   4.692  0.0568 -0.0699  0.6445
59766SOL    HW186413  11.496   5.501   4.629  0.2906  0.0337  0.5535
59766SOL    HW286414  11.400   5.606   4.679  0.4004  0.5306 -0.2585
59767SOL     OW86415   4.530   2.879  12.222 -0.7175 -0.3540 -0.3531
59767SOL    HW186416   4.593   2.821  12.264  0.4223  0.9948 -0.1438
59767SOL    HW286417   4.583   2.940  12.171 -1.7831  1.4190  0.5808
59768SOL     OW86418   0.094  12.877  11.251 -0.1413  0.5550  0.2023
59768SOL    HW186419   0.035  12.802  11.244 -0.5664  0.9768 -0.9603
59768SOL    HW286420   0.103  12.909  11.161  0.4680  1.5719  0.6040
59769SOL     OW86421   0.994   7.370   7.780  0.1633 -0.0251 -0.1360
59769SOL    HW186422   1.060   7.302   7.768 -0.2187 -0.3664 -0.3242
59769SOL    HW286423   0.973   7.399   7.691 -0.9343 -0.8833 -0.1814
59770SOL     OW86424  12.581   7.803   5.437 -0.1841  0.5064  0.5026
59770SOL    HW186425  12.629   7.797   5.354 -1.8480 -2.3279 -0.4034
59770SOL    HW286426  12.648   7.793   5.504  1.0330  1.4816 -0.5184
59771SOL     OW86427  11.894  11.123   3.378  0.5628  0.1976 -0.6961
59771SOL    HW186428  11.856  11.167   3.302  1.5328 -0.4875 -1.5916
59771SOL    HW286429  11.834  11.145   3.450 -0.9002  0.0992 -1.8250
59772SOL     OW86430   7.393   0.528   7.378  0.0253  0.2119 -0.5036
59772SOL    HW186431   7.352   0.607   7.342 -2.1409 -0.3771  0.5046
59772SOL    HW286432   7.396   0.544   7.472 -1.4447 -1.2701 -0.1503
59773SOL     OW86433  11.084   5.687  10.237  0.6077 -0.1435  0.0249
59773SOL    HW186434  11.137   5.759  10.202 -0.6345  0.7035 -0.1783
59773SOL    HW286435  10.995   5.707  10.207  0.1449 -1.4444  0.4959
59774SOL     OW86436   5.283   0.396  10.316 -0.5759  0.1571 -0.0873
59774SOL    HW186437   5.281   0.339  10.240  0.3363  0.4592 -0.3458
59774SOL    HW286438   5.375   0.417  10.329 -0.4431 -1.4923  2.3180
59775SOL     OW86439   9.094   0.660   3.211 -0.0862  0.0755  0.6183
59775SOL    HW186440   9.108   0.634   3.302  0.1710 -0.3658  0.4562
59775SOL    HW286441   9.004   0.634   3.192 -0.0677 -0.0369  0.6809
59776SOL     OW86442   2.539   2.534   6.929  0.3750  0.4892  0.2851
59776SOL    HW186443   2.513   2.445   6.906  2.1756 -0.3603  1.3042
59776SOL    HW286444   2.620   2.549   6.881 -0.7186  2.2386 -1.1391
59777SOL     OW86445   2.379   2.112   4.654 -0.0205 -0.4103 -0.3014
59777SOL    HW186446   2.340   2.190   4.616  1.1362  0.2931 -0.1116
59777SOL    HW286447   2.419   2.067   4.579 -0.9648 -0.9951 -0.4580
59778SOL     OW86448  11.907   6.189   2.238  0.1395 -0.0660 -0.0115
59778SOL    HW186449  11.921   6.110   2.186  1.6344 -0.1143  0.4099
59778SOL    HW286450  11.937   6.165   2.326 -0.6696  0.5601  0.4436
59779SOL     OW86451   1.298   4.124   3.373  0.5106  0.0614 -1.2915
59779SOL    HW186452   1.292   4.150   3.465  1.4629 -0.7654 -0.9841
59779SOL    HW286453   1.346   4.195   3.331  0.8831 -0.0011 -0.9678
59780SOL     OW86454  10.384  10.217   6.252 -0.7847  0.2546 -0.0341
59780SOL    HW186455  10.379  10.296   6.199 -0.9536  0.0904 -0.2650
59780SOL    HW286456  10.295  10.206   6.287 -1.6095 -1.4770 -2.4044
59781SOL     OW86457   6.928   1.916  10.475  0.4313 -0.2972  0.0319
59781SOL    HW186458   6.976   1.894  10.554  0.6552  1.7960  0.5490
59781SOL    HW286459   6.979   1.986  10.435  0.2596 -1.2209 -1.9378
59782SOL     OW86460  10.099   5.120  11.442  0.7211 -0.3040 -0.2363
59782SOL    HW186461  10.067   5.201  11.403 -0.8439  0.1366  1.8179
59782SOL    HW286462  10.147   5.148  11.520 -0.3118 -1.3613  0.8113
59783SOL     OW86463  10.910   9.578   8.402  0.3138 -0.2593 -0.3441
59783SOL    HW186464  10.879   9.665   8.376 -0.8259 -0.6812 -0.4598
59783SOL    HW286465  11.003   9.590   8.420 -0.0907  1.2757  0.9615
59784SOL     OW86466   1.697   6.844   5.250 -0.2798  0.2213  0.0382
59784SOL    HW186467   1.651   6.881   5.175  1.4928  1.8873 -0.3294
59784SOL    HW286468   1.632   6.841   5.320 -1.2463  1.3539 -0.7829
59785SOL     OW86469   5.233  11.991   0.707 -0.2493  0.2614 -0.2193
59785SOL    HW186470   5.170  12.035   0.763  0.3787  0.1968  0.5509
59785SOL    HW286471   5.308  12.051   0.703  0.4486 -0.5368  0.5054
59786SOL     OW86472   4.360   2.684   3.815 -0.3344 -0.3607 -0.3503
59786SOL    HW186473   4.384   2.624   3.744  0.9992  0.6580 -0.8021
59786SOL    HW286474   4.428   2.672   3.880 -0.1339  0.5475 -0.3828
59787SOL     OW86475   3.478   4.287   6.221  0.1567  0.3108 -0.2144
59787SOL    HW186476   3.394   4.246   6.239  0.0495 -0.2815 -1.9256
59787SOL    HW286477   3.456   4.370   6.178  0.4304  0.3794 -0.2267
59788SOL     OW86478  10.195   4.272  11.898  0.0292 -0.0166 -0.2133
59788SOL    HW186479  10.248   4.297  11.974 -0.3724  1.5686 -0.4099
59788SOL    HW286480  10.138   4.203  11.931  0.7176 -0.2133  0.5953
59789SOL     OW86481   8.952   1.210   3.039  0.1180 -0.0777 -0.0712
59789SOL    HW186482   8.918   1.143   3.098  2.8228 -0.3374  1.3560
59789SOL    HW286483   8.964   1.287   3.095  1.5036  0.0708 -0.5219
59790SOL     OW86484   8.017  12.892   3.202  0.1679  0.5690  0.4737
59790SOL    HW186485   8.025  12.861   3.292 -2.5441  1.6152  1.1539
59790SOL    HW286486   8.072  12.971   3.198  4.0057 -1.8646 -0.2133
59791SOL     OW86487   4.371  11.375   3.028 -0.0909 -0.0058  0.1422
59791SOL    HW186488   4.443  11.388   2.967  0.9597  1.1025  1.5469
59791SOL    HW286489   4.333  11.291   3.003  1.3505 -0.3641 -0.9709
59792SOL     OW86490   4.067   8.249   8.228 -0.4253  0.5873  0.2770
59792SOL    HW186491   4.082   8.204   8.311 -1.2806 -1.6446 -0.6925
59792SOL    HW286492   4.133   8.213   8.169 -0.7599  1.0444 -0.3892
59793SOL     OW86493   8.979   2.169   5.223 -0.2995  0.4867  0.0466
59793SOL    HW186494   9.034   2.243   5.199 -1.4591  1.1884 -0.5201
59793SOL    HW286495   8.975   2.115   5.144 -1.1405  0.9085 -0.2117
59794SOL     OW86496  11.205   9.482  12.022 -0.3012 -0.3699  0.5260
59794SOL    HW186497  11.256   9.407  12.051  0.2876 -0.7733 -1.3850
59794SOL    HW286498  11.165   9.453  11.939 -2.4427  0.4475  1.2093
59795SOL     OW86499   7.426   0.170   2.052  0.3455  0.0669  0.1034
59795SOL    HW186500   7.374   0.102   2.008  1.1392 -0.0990 -0.5982
59795SOL    HW286501   7.387   0.252   2.023 -0.6969 -0.0648  1.0474
59796SOL     OW86502   8.109   2.983   7.930  0.7902  0.3025 -0.4388
59796SOL    HW186503   8.082   2.964   7.840 -1.6279  2.3756 -0.2673
59796SOL    HW286504   8.139   3.074   7.928  0.1499  0.5732  0.9229
59797SOL     OW86505  10.137   3.750   7.233  0.1730 -0.4953  0.1070
59797SOL    HW186506  10.130   3.719   7.143  1.0919  0.9195 -0.4720
59797SOL    HW286507  10.072   3.819   7.241  1.0421  0.3393  0.0952
59798SOL     OW86508   3.078   1.294  11.373 -0.2215  0.1900  0.6592
59798SOL    HW186509   3.052   1.384  11.392 -0.8703  0.5674 -1.7343
59798SOL    HW286510   2.999   1.242  11.389  0.0232  0.0765  1.5851
59799SOL     OW86511   3.638  11.312   6.954 -0.4341  0.0858 -0.1797
59799SOL    HW186512   3.617  11.279   7.041  0.5470 -0.9352 -0.3001
59799SOL    HW286513   3.714  11.260   6.926 -0.5155  0.6241 -1.5047
59800SOL     OW86514   5.127   3.695   8.199  0.4006 -0.1390 -0.4809
59800SOL    HW186515   5.128   3.607   8.237 -0.5685 -0.3894 -1.0273
59800SOL    HW286516   5.093   3.751   8.268  0.3183 -0.3065 -0.3869
59801SOL     OW86517   2.026   0.056   1.804 -0.3492  0.0696 -0.4876
59801SOL    HW186518   2.094   0.078   1.740  0.1824  0.2441  0.1306
59801SOL    HW286519   2.017  -0.040   1.797  0.8285 -0.1110  0.2695
59802SOL     OW86520   4.453   4.387   0.748 -0.7845 -0.0720  0.1281
59802SOL    HW186521   4.469   4.446   0.675 -0.5034 -0.6659 -0.2987
59802SOL    HW286522   4.502   4.307   0.726  0.4817  0.2381  1.6266
59803SOL     OW86523   2.315   9.656   7.662 -0.1115  0.2566 -0.1590
59803SOL    HW186524   2.359   9.642   7.745  0.0892 -0.5051 -0.3868
59803SOL    HW286525   2.386   9.662   7.598 -0.3205 -0.6281 -0.4811
59804SOL     OW86526   6.037   4.938   9.693 -0.2450  0.1592  0.0424
59804SOL    HW186527   5.997   4.876   9.631 -0.5583  2.1628 -1.8701
59804SOL    HW286528   5.966   4.960   9.753  0.1591 -2.0922  1.4737
59805SOL     OW86529  10.692   2.530  12.605 -0.3221  0.4795  0.1781
59805SOL    HW186530  10.754   2.585  12.556 -1.0336  1.3589  0.2388
59805SOL    HW286531  10.611   2.534  12.554 -0.8290  0.7309  0.9865
59806SOL     OW86532  12.703  10.094   0.047  0.0251  0.6633  0.4090
59806SOL    HW186533  12.636  10.069  -0.017 -0.3087  0.2743  0.9089
59806SOL    HW286534  12.655  10.137   0.117  0.1859 -0.3226  1.1484
59807SOL     OW86535   6.773   6.000   6.636 -0.0876  0.5396 -0.1335
59807SOL    HW186536   6.733   5.914   6.622 -0.5494  0.5446  1.0645
59807SOL    HW286537   6.748   6.051   6.560  0.6243 -0.5394 -1.1225
59808SOL     OW86538   0.671   9.063  10.536  0.0915  0.5685 -0.7484
59808SOL    HW186539   0.580   9.077  10.562 -0.5422 -3.0590 -0.4470
59808SOL    HW286540   0.668   9.053  10.440  0.2516  0.8685 -0.7864
59809SOL     OW86541   3.770   8.700  12.413  0.4658  0.2272 -0.3596
59809SOL    HW186542   3.802   8.663  12.496  0.1302  0.6322 -0.0463
59809SOL    HW286543   3.768   8.795  12.428  2.3766  0.5020 -1.5123
59810SOL     OW86544   6.685   4.207   2.682 -0.5389 -0.0429  0.1977
59810SOL    HW186545   6.644   4.121   2.691 -1.4591  0.3544 -0.0989
59810SOL    HW286546   6.615   4.270   2.702 -0.3056  0.6687 -1.1092
59811SOL     OW86547   2.356  10.303   2.563  0.5152 -0.8501  0.4786
59811SOL    HW186548   2.352  10.270   2.653 -0.5032  0.3390  0.8890
59811SOL    HW286549   2.341  10.397   2.571  2.8400 -0.3276 -0.7248
59812SOL     OW86550   2.725   4.090   0.140  0.2120  0.3124  0.4744
59812SOL    HW186551   2.659   4.113   0.206 -0.7394 -0.0578 -0.3116
59812SOL    HW286552   2.803   4.140   0.165  0.1078 -0.3681  2.2734
59813SOL     OW86553   9.753   2.922   4.254  0.2871  0.5518 -0.1760
59813SOL    HW186554   9.797   2.898   4.335  1.1775  0.2206 -0.7372
59813SOL    HW286555   9.776   2.852   4.193 -0.9889  0.3972 -0.5184
59814SOL     OW86556   1.629   7.193   8.003  0.4370 -0.3064  0.2758
59814SOL    HW186557   1.682   7.127   8.048 -1.3382 -3.1605 -1.5353
59814SOL    HW286558   1.676   7.210   7.921  0.5824  0.2318  0.4690
59815SOL     OW86559   6.373   4.818   3.617 -0.5963  0.1230  0.2247
59815SOL    HW186560   6.371   4.848   3.527 -1.2466 -0.4180  0.0486
59815SOL    HW286561   6.301   4.864   3.660 -0.3025  0.3649  0.4697
59816SOL     OW86562   9.986   8.430   0.039 -0.4015  0.4292 -0.3239
59816SOL    HW186563  10.076   8.449   0.013 -0.2544  0.0043 -0.1458
59816SOL    HW286564   9.942   8.405  -0.043 -0.0350 -0.5511 -0.2318
59817SOL     OW86565  11.661  12.164   4.223  0.2228 -0.4604  0.1391
59817SOL    HW186566  11.747  12.137   4.193  0.0270  0.2762 -1.1430
59817SOL    HW286567  11.662  12.260   4.215 -1.9508 -0.5861 -3.5418
59818SOL     OW86568   4.662  10.849   0.510 -0.0915  0.0036  0.0679
59818SOL    HW186569   4.597  10.846   0.580  0.0071 -1.0257  0.1200
59818SOL    HW286570   4.746  10.834   0.554  0.3287  2.1789  0.1382
59819SOL     OW86571   3.000  12.218  10.449 -0.4802  0.0386 -0.4408
59819SOL    HW186572   3.005  12.275  10.525 -0.1057 -1.0863  0.3949
59819SOL    HW286573   3.052  12.142  10.472  0.8382  0.2682 -2.3669
59820SOL     OW86574   5.023   3.314   0.953 -0.0937  0.5271  0.2629
59820SOL    HW186575   5.100   3.258   0.945 -0.0877  0.5584  0.0976
59820SOL    HW286576   4.953   3.266   0.908 -0.2651  0.3230  0.7420
59821SOL     OW86577  10.497  12.172  12.828 -0.1930 -0.1305  0.5108
59821SOL    HW186578  10.504  12.266  12.808 -1.6900  0.3671  2.1588
59821SOL    HW286579  10.469  12.132  12.746  0.9264  0.7753 -0.3435
59822SOL     OW86580  10.129   0.901  10.862 -0.8174 -0.8489  0.3163
59822SOL    HW186581  10.039   0.902  10.829 -0.9071 -0.6667  0.5640
59822SOL    HW286582  10.172   0.973  10.816 -0.7415 -1.0630  0.0474
59823SOL     OW86583   4.509   3.597   9.737  0.3771 -0.5143 -0.1399
59823SOL    HW186584   4.483   3.627   9.650  1.0483  1.2818  0.2148
59823SOL    HW286585   4.450   3.644   9.796 -0.1982 -1.8620  0.3802
59824SOL     OW86586   6.456  10.875   8.572  0.0178  0.0876 -0.1013
59824SOL    HW186587   6.394  10.814   8.611  0.1296 -0.1822 -0.3432
59824SOL    HW286588   6.517  10.897   8.644 -1.1375  1.4183  0.5240
59825SOL     OW86589   6.460   6.867   2.091 -0.1680  0.2910  0.0517
59825SOL    HW186590   6.477   6.811   2.167  0.7330  2.1939  1.3166
59825SOL    HW286591   6.405   6.937   2.124 -1.6447 -0.0136 -1.6150
59826SOL     OW86592   4.996   5.256   1.281  0.0933 -0.4191 -0.0101
59826SOL    HW186593   4.989   5.275   1.188 -1.4244  1.3226  0.3956
59826SOL    HW286594   4.917   5.205   1.302  0.5041 -0.9425  0.3071
59827SOL     OW86595   9.982   7.478   2.505 -0.7419  0.2816 -0.3120
59827SOL    HW186596   9.974   7.430   2.423 -0.8821 -0.1832 -0.0302
59827SOL    HW286597   9.969   7.569   2.481 -3.4543 -0.0578 -0.4319
59828SOL     OW86598   7.217  12.768   4.311 -0.0893 -0.0287  0.1312
59828SOL    HW186599   7.224  12.674   4.326 -0.9326 -0.0821  0.2530
59828SOL    HW286600   7.307  12.798   4.306  0.2390 -0.5151  2.1557
59829SOL     OW86601   8.320   0.845   0.880 -0.1155  0.4470 -0.2413
59829SOL    HW186602   8.353   0.842   0.969 -0.5612  0.3705 -0.0764
59829SOL    HW286603   8.230   0.878   0.888  0.4011  2.0711 -0.8184
59830SOL     OW86604  10.312   9.013   9.280 -0.0611 -0.1946  0.0281
59830SOL    HW186605  10.321   9.104   9.306 -0.9558 -0.4891  1.5022
59830SOL    HW286606  10.247   9.014   9.210 -1.1732  0.1904  1.0280
59831SOL     OW86607   9.358   1.468   1.606  0.4852 -0.3510  0.4340
59831SOL    HW186608   9.414   1.414   1.550  1.6352  0.9990  0.2399
59831SOL    HW286609   9.296   1.406   1.645  0.2007 -1.4616 -1.6432
59832SOL     OW86610   5.249  12.820   5.087 -0.1215 -0.1600 -0.0410
59832SOL    HW186611   5.284  12.798   5.173 -0.3516  1.7461  0.5963
59832SOL    HW286612   5.182  12.886   5.105 -1.4898 -1.0665 -1.5473
59833SOL     OW86613  11.945   8.621   4.233 -0.1282 -0.0383 -0.5050
59833SOL    HW186614  11.992   8.593   4.155  1.6567 -0.6596  0.7328
59833SOL    HW286615  11.972   8.559   4.301  1.0775  2.4347  1.4414
59834SOL     OW86616  10.181   6.965   4.444  0.5758  0.1752  0.2425
59834SOL    HW186617  10.181   6.955   4.539  2.7010 -1.2576  0.1569
59834SOL    HW286618  10.135   6.888   4.411  0.2109  0.4612  0.0584
59835SOL     OW86619   1.642   3.938   5.236 -0.1320 -0.2192  0.3202
59835SOL    HW186620   1.556   3.927   5.277  0.2685  0.2035  1.2978
59835SOL    HW286621   1.686   4.004   5.289  0.5891 -0.0023 -0.5192
59836SOL     OW86622  12.791   6.215   1.987  0.1703  0.1854 -0.0804
59836SOL    HW186623  12.843   6.136   2.002 -0.5744 -0.7694 -2.1386
59836SOL    HW286624  12.724   6.213   2.057  0.5400 -0.6588  0.2619
59837SOL     OW86625   1.864  12.276  12.558 -0.0900 -0.1708 -0.5051
59837SOL    HW186626   1.882  12.348  12.619 -1.4871  0.4669 -0.8123
59837SOL    HW286627   1.882  12.197  12.608 -1.3395  0.3350  0.7963
59838SOL     OW86628  12.301  10.001  10.709 -0.4831 -0.0865  0.0921
59838SOL    HW186629  12.343  10.021  10.793 -2.3379  1.7008  0.6918
59838SOL    HW286630  12.291   9.906  10.709  1.0819 -0.2815  1.1096
59839SOL     OW86631   5.705  12.413   5.904  0.1238 -0.2099 -0.0688
59839SOL    HW186632   5.760  12.335   5.900  0.4247 -0.0405  0.5808
59839SOL    HW286633   5.623  12.386   5.862  0.1134 -0.9729  0.4095
59840SOL     OW86634   2.579   8.875  10.488  0.4360 -0.1104 -0.8901
59840SOL    HW186635   2.517   8.879  10.416 -0.9945  0.5143  0.3277
59840SOL    HW286636   2.623   8.960  10.486  0.1927  0.0167 -0.8557
59841SOL     OW86637   5.514   3.753   1.854  0.2840  0.6266 -0.0017
59841SOL    HW186638   5.430   3.776   1.814 -0.8901 -1.4277  1.0842
59841SOL    HW286639   5.501   3.770   1.947  0.1851 -1.8334  0.5051
59842SOL     OW86640  12.269   2.591  11.987 -0.3340 -0.7006  0.1984
59842SOL    HW186641  12.235   2.547  11.909  0.7835 -1.5526  0.1540
59842SOL    HW286642  12.363   2.571  11.986 -0.2215 -0.3393  1.5094
59843SOL     OW86643  11.648   1.494   2.549  0.0483 -0.7487  0.3484
59843SOL    HW186644  11.710   1.543   2.602  1.1040  0.3626 -1.7710
59843SOL    HW286645  11.575   1.554   2.534  0.0470 -0.8225  0.0448
59844SOL     OW86646  11.617   6.419  12.961  0.5517  0.4513  0.2046
59844SOL    HW186647  11.652   6.333  12.981  2.0757  0.8569 -0.5783
59844SOL    HW286648  11.556   6.404  12.888  1.4565  0.1244 -0.5058
59845SOL     OW86649   7.440   9.333   9.671 -0.2129  0.0682 -0.2260
59845SOL    HW186650   7.513   9.309   9.728 -1.8113  0.9626  2.3947
59845SOL    HW286651   7.472   9.318   9.583  2.2659 -1.9181  0.8891
59846SOL     OW86652   0.293  11.771   6.180 -0.4439  0.2146  0.1353
59846SOL    HW186653   0.326  11.706   6.242 -1.1265  0.3596  0.6557
59846SOL    HW286654   0.352  11.765   6.105  1.7429  1.5367  1.6480
59847SOL     OW86655  11.860   8.863  11.308  0.0755  0.3795  0.0507
59847SOL    HW186656  11.831   8.917  11.382 -2.6578  1.2936 -1.5110
59847SOL    HW286657  11.920   8.920  11.259 -0.1179  0.7297  0.2163
59848SOL     OW86658   5.505   3.508   2.099  0.3996 -1.0656 -0.1000
59848SOL    HW186659   5.600   3.508   2.098  0.4527  1.4083  0.2011
59848SOL    HW286660   5.481   3.466   2.182  1.2393 -0.7464  0.3044
59849SOL     OW86661  11.262  11.927   9.393  0.0109  0.2959  0.0517
59849SOL    HW186662  11.234  11.981   9.320  0.6147 -1.2186 -1.3606
59849SOL    HW286663  11.337  11.974   9.431  0.0019  0.8544 -0.6170
59850SOL     OW86664   6.671   6.084   9.249 -0.3234 -0.2441  0.2394
59850SOL    HW186665   6.583   6.101   9.284  0.0159  1.4553  0.3555
59850SOL    HW286666   6.682   5.989   9.256 -2.3559 -0.5628 -0.2792
59851SOL     OW86667   9.677   8.701   6.538  0.2144  0.2221  0.3428
59851SOL    HW186668   9.661   8.743   6.622 -2.1218  0.0079  0.0728
59851SOL    HW286669   9.719   8.768   6.484  0.5864  0.7506  1.2764
59852SOL     OW86670  12.753   1.477   4.971  0.2877  0.4137 -0.2419
59852SOL    HW186671  12.677   1.426   4.997  1.1847 -0.6716  0.3456
59852SOL    HW286672  12.746   1.485   4.876 -0.0992 -0.4191 -0.2857
59853SOL     OW86673   1.538   3.498  11.801  0.2415 -0.3062 -0.3261
59853SOL    HW186674   1.596   3.423  11.793  0.6867  0.1677 -2.1134
59853SOL    HW286675   1.593   3.574  11.781 -0.9938  0.1222 -2.4621
59854SOL     OW86676   3.698   3.441   9.595  0.2867  0.4974 -0.1012
59854SOL    HW186677   3.745   3.365   9.629  1.4013  0.7661 -0.9875
59854SOL    HW286678   3.606   3.415   9.595  0.7097 -1.0918 -0.9863
59855SOL     OW86679  11.673   5.804   1.013 -0.4539 -0.0386  0.2532
59855SOL    HW186680  11.642   5.746   1.082  0.4252 -0.7510  0.0591
59855SOL    HW286681  11.697   5.885   1.059 -2.1785  0.4050  0.4562
59856SOL     OW86682   9.679   4.954   0.680  0.0595 -0.2876 -0.3552
59856SOL    HW186683   9.742   5.014   0.640  0.4820  1.6690  2.8564
59856SOL    HW286684   9.600   5.008   0.694  0.8332  0.1412  3.6389
59857SOL     OW86685   2.108   3.114   6.712 -0.1962 -0.0895  0.3039
59857SOL    HW186686   2.093   3.024   6.740  0.2618 -0.3391 -0.2260
59857SOL    HW286687   2.023   3.142   6.676 -1.2988  0.8076  3.3407
59858SOL     OW86688   0.296  10.763   3.238  0.5534  0.2956  0.0297
59858SOL    HW186689   0.319  10.837   3.181  0.5140 -0.8092 -1.4976
59858SOL    HW286690   0.372  10.752   3.295  1.0091  0.8288 -0.4583
59859SOL     OW86691   1.039   3.367   7.664  0.1299  0.7383 -0.6824
59859SOL    HW186692   0.967   3.426   7.687  0.8124  1.3941 -0.1541
59859SOL    HW286693   1.073   3.336   7.748  1.4130  1.6337 -0.8276
59860SOL     OW86694   6.208   4.656   7.965 -0.3712 -0.1741  0.0913
59860SOL    HW186695   6.201   4.730   7.905 -2.1503  1.3757  2.0436
59860SOL    HW286696   6.131   4.602   7.946 -0.0822 -0.5473 -0.0523
59861SOL     OW86697   5.720   5.488   5.814  0.0811  0.3784 -0.2163
59861SOL    HW186698   5.649   5.549   5.835 -0.2356 -0.0361 -0.0725
59861SOL    HW286699   5.753   5.460   5.899 -0.5242 -0.5171 -0.2660
59862SOL     OW86700  11.755  10.906   4.107 -0.1504 -0.1200 -0.6834
59862SOL    HW186701  11.660  10.906   4.111 -0.1217 -0.7452  0.7671
59862SOL    HW286702  11.776  10.926   4.016 -1.6984 -2.0662 -1.5408
59863SOL     OW86703   3.343   5.318   7.818 -0.3377  0.2992  0.1664
59863SOL    HW186704   3.254   5.343   7.844 -1.2069 -2.5958  0.3241
59863SOL    HW286705   3.390   5.310   7.901 -0.4423  0.1285  0.2105
59864SOL     OW86706   3.554   5.493   5.392  0.1891  0.0525  0.7716
59864SOL    HW186707   3.474   5.543   5.374 -0.0529 -0.6418 -0.2040
59864SOL    HW286708   3.620   5.560   5.410 -0.1917  0.7362 -0.2269
59865SOL     OW86709   5.766   3.052   8.645  0.6201  0.1990  0.1716
59865SOL    HW186710   5.805   3.005   8.572  0.7772 -2.4240  1.7875
59865SOL    HW286711   5.830   3.044   8.716  0.4798  2.6373  0.6450
59866SOL     OW86712   3.664   0.667   2.319  0.0446 -0.2053 -0.5959
59866SOL    HW186713   3.631   0.614   2.391  1.0486 -0.0136  0.0247
59866SOL    HW286714   3.588   0.683   2.263 -0.7572 -0.3036  0.4562
59867SOL     OW86715  11.341   5.701   2.888  0.0732  0.0432  0.9877
59867SOL    HW186716  11.392   5.662   2.959  1.7293 -0.0732 -0.1963
59867SOL    HW286717  11.403   5.760   2.844 -0.1323 -1.6253 -1.7705
59868SOL     OW86718   6.408   6.206   7.955 -0.0247  0.5403  0.1457
59868SOL    HW186719   6.426   6.299   7.970 -0.5921  0.5453  0.8294
59868SOL    HW286720   6.492   6.171   7.925  0.0274  1.4026 -0.8003
59869SOL     OW86721   0.432   1.566   0.296  0.0108  0.4011  0.0209
59869SOL    HW186722   0.443   1.548   0.203 -1.6862 -0.8141  0.0086
59869SOL    HW286723   0.504   1.520   0.339 -0.1954 -0.4732 -0.5605
59870SOL     OW86724   9.031   0.106   8.780  0.7922 -0.1411  0.3156
59870SOL    HW186725   8.937   0.122   8.767  1.0466  0.2303 -1.2457
59870SOL    HW286726   9.040   0.096   8.875 -0.4630  2.2092  0.7587
59871SOL     OW86727   0.744   8.630  11.376 -0.2759  0.5877 -0.2579
59871SOL    HW186728   0.778   8.544  11.349  0.4686  0.2799  1.5205
59871SOL    HW286729   0.649   8.621  11.372 -0.3222 -1.2820  2.4813
59872SOL     OW86730   5.606   4.314   2.835 -0.1720  0.0532 -0.7768
59872SOL    HW186731   5.649   4.286   2.755  0.7072 -0.2190 -0.2236
59872SOL    HW286732   5.668   4.290   2.905 -0.4149  1.3040 -0.1138
59873SOL     OW86733  11.815  12.188   9.764 -0.1612  0.2489  0.1772
59873SOL    HW186734  11.849  12.277   9.774  2.5161 -0.7253  0.3448
59873SOL    HW286735  11.859  12.153   9.687 -2.3909 -0.4675 -0.8547
59874SOL     OW86736  10.888   8.388   0.049  0.5043 -0.1145  0.6980
59874SOL    HW186737  10.833   8.346  -0.017  0.7749 -0.0172  0.4079
59874SOL    HW286738  10.860   8.480   0.049  0.8378 -0.0127  0.3717
59875SOL     OW86739  12.549  11.057   5.466  0.5843 -0.4219 -0.1713
59875SOL    HW186740  12.542  11.108   5.546  2.4704 -0.5711  0.1465
59875SOL    HW286741  12.459  11.045   5.436 -0.2023 -0.7561  2.1654
59876SOL     OW86742   0.606   7.644  12.016 -0.5054 -0.1346 -0.6057
59876SOL    HW186743   0.569   7.673  11.933  0.8885  0.6386 -0.9925
59876SOL    HW286744   0.693   7.683  12.018  0.3335 -1.9419  0.2234
59877SOL     OW86745   1.587   4.266   0.009 -0.3790 -0.5330 -0.1490
59877SOL    HW186746   1.679   4.251  -0.012 -0.7311 -1.8631 -0.8316
59877SOL    HW286747   1.570   4.211   0.085 -0.4372  0.2878  0.4500
59878SOL     OW86748   2.960   7.611   7.007 -0.5024 -0.2525  0.0536
59878SOL    HW186749   2.941   7.627   6.914 -0.7427 -2.4814 -0.3476
59878SOL    HW286750   2.954   7.516   7.016  0.6507 -0.1844  2.1249
59879SOL     OW86751   4.622   8.681   3.170 -0.4018  0.0213 -0.1327
59879SOL    HW186752   4.639   8.691   3.264  1.8495  0.4652 -0.5280
59879SOL    HW286753   4.570   8.757   3.146  1.5609  1.5642  0.2435
59880SOL     OW86754   9.545   6.258  12.311  0.2577 -0.7783  0.4343
59880SOL    HW186755   9.462   6.306  12.304  1.0346  0.5386  0.0276
59880SOL    HW286756   9.524   6.184  12.369 -0.9188  0.1719  1.2951
59881SOL     OW86757   8.017   0.543   1.073  0.9636 -0.0949 -0.3548
59881SOL    HW186758   8.048   0.542   0.982  1.3046 -0.7122 -0.2344
59881SOL    HW286759   8.091   0.577   1.123  0.0337  2.4084 -0.5566
59882SOL     OW86760  12.020   2.646   3.503 -0.6093 -0.3951 -0.3337
59882SOL    HW186761  11.969   2.718   3.465 -1.1574 -0.0066  1.0710
59882SOL    HW286762  12.058   2.601   3.428 -0.0078  1.5386 -1.2334
59883SOL     OW86763  12.748   6.237  12.885 -0.1447 -0.1822  0.0828
59883SOL    HW186764  12.791   6.322  12.900 -1.8201  0.5078  1.2319
59883SOL    HW286765  12.801   6.175  12.935  1.6132 -0.0276 -1.4619
59884SOL     OW86766  12.087   6.001   1.852 -0.6044 -0.8124 -0.5225
59884SOL    HW186767  12.102   6.013   1.946  0.3164  0.1860 -0.7832
59884SOL    HW286768  12.170   5.968   1.819 -1.0127 -1.4193 -0.9504
59885SOL     OW86769  11.523   9.214   1.211  0.2133  0.1781 -0.5780
59885SOL    HW186770  11.438   9.259   1.205 -0.3893 -0.9164 -0.5945
59885SOL    HW286771  11.547   9.197   1.120 -0.0584 -0.4162 -0.5430
59886SOL     OW86772   7.695   0.115   2.102  0.6891  0.0267 -0.1769
59886SOL    HW186773   7.599   0.110   2.096  0.7725 -0.2834 -2.0166
59886SOL    HW286774   7.724   0.027   2.077  1.4607  0.1871  0.1464
59887SOL     OW86775   1.348   1.612  11.441 -0.1991 -0.1017 -0.4308
59887SOL    HW186776   1.433   1.628  11.482 -0.6802 -0.0919  0.5864
59887SOL    HW286777   1.286   1.667  11.490 -1.3463 -2.5662  1.0587
59888SOL     OW86778   7.181   5.732   9.540 -0.8362  0.5436  0.6532
59888SOL    HW186779   7.180   5.652   9.488  1.5430 -1.3654  3.2418
59888SOL    HW286780   7.089   5.757   9.549 -1.5472 -1.2273 -1.1698
59889SOL     OW86781   6.984  12.535   2.214 -0.0029 -0.1249  0.2842
59889SOL    HW186782   7.020  12.453   2.182 -1.6680 -0.4089 -0.9994
59889SOL    HW286783   6.896  12.539   2.176 -1.0911  0.8414  2.6862
59890SOL     OW86784   8.991   6.812   0.418  0.0624 -0.3101  0.4063
59890SOL    HW186785   8.942   6.730   0.428 -0.2471 -0.1126  0.5418
59890SOL    HW286786   9.080   6.791   0.445  0.0053 -0.6250  0.3497
59891SOL     OW86787  11.330   9.267   4.230  0.0303 -0.3995 -0.1053
59891SOL    HW186788  11.264   9.283   4.297  1.3937  3.4350  0.5209
59891SOL    HW286789  11.327   9.172   4.217 -2.7282 -0.8887  2.7891
59892SOL     OW86790   9.482   9.191   7.118 -0.2973 -0.0589  0.0266
59892SOL    HW186791   9.484   9.285   7.136  1.8538 -0.1509  0.4812
59892SOL    HW286792   9.510   9.150   7.200 -2.9773 -1.2595  0.4505
59893SOL     OW86793   8.931   8.102   5.210  0.2713  0.2913 -0.1135
59893SOL    HW186794   9.012   8.059   5.182  0.0598 -0.9155  1.0322
59893SOL    HW286795   8.947   8.195   5.195  1.8548  0.0686  0.0395
59894SOL     OW86796   7.818   2.258   3.219 -0.3045 -0.1860  0.4234
59894SOL    HW186797   7.807   2.169   3.253 -0.2174 -0.4477 -0.2157
59894SOL    HW286798   7.907   2.259   3.185  0.1821  0.5779  1.6631
59895SOL     OW86799   2.676   6.520   0.585  0.4375  0.1026 -0.1592
59895SOL    HW186800   2.732   6.445   0.565 -0.9187 -0.9047 -0.3450
59895SOL    HW286801   2.587   6.485   0.579 -0.2402  1.8268 -0.5970
59896SOL     OW86802   7.845   0.742   9.713 -0.4280  0.2927  0.4023
59896SOL    HW186803   7.783   0.741   9.640  1.0643  0.1373 -0.9281
59896SOL    HW286804   7.868   0.834   9.724 -0.5124  0.2962  0.5495
59897SOL     OW86805   8.126   6.263  10.104 -0.5849 -0.2197  0.3850
59897SOL    HW186806   8.077   6.219  10.174  0.7361 -0.5199  1.1611
59897SOL    HW286807   8.093   6.223  10.023 -1.7517 -0.2607  0.8567
59898SOL     OW86808  12.947   0.245   7.553  0.0261  0.1323  0.2059
59898SOL    HW186809  12.868   0.193   7.566  1.3945 -1.6934  1.8846
59898SOL    HW286810  13.015   0.198   7.602  1.4452  3.3865  1.6670
59899SOL     OW86811  12.934  12.827   7.280 -0.1656  0.3132  0.2581
59899SOL    HW186812  12.902  12.799   7.366 -1.4410  1.4840  0.1982
59899SOL    HW286813  12.938  12.922   7.286  0.9657  0.3356 -0.5798
59900SOL     OW86814  11.510   1.776   5.635 -0.1534 -0.0455  0.6431
59900SOL    HW186815  11.459   1.846   5.674 -0.0336 -0.6856  2.0339
59900SOL    HW286816  11.458   1.697   5.651  0.3569 -0.4477  0.3441
59901SOL     OW86817   8.627   9.244   4.537  0.4615 -0.3581 -0.1124
59901SOL    HW186818   8.686   9.293   4.479 -1.1422 -0.1242 -1.6392
59901SOL    HW286819   8.675   9.164   4.559  1.7636  0.3195 -0.3887
59902SOL     OW86820   5.782   2.079   5.196  0.1098  0.3671  0.0336
59902SOL    HW186821   5.872   2.048   5.208 -0.1406  0.1940  1.6999
59902SOL    HW286822   5.730   2.021   5.250 -0.7647  1.7014  0.6719
59903SOL     OW86823   5.094   8.469   0.593 -0.0319 -0.0177  0.4696
59903SOL    HW186824   5.184   8.461   0.627  0.4951 -1.4789 -1.1215
59903SOL    HW286825   5.055   8.384   0.609 -0.8089  0.2968  0.2684
59904SOL     OW86826  10.622   9.403   0.546 -0.2305  0.0930  0.4238
59904SOL    HW186827  10.666   9.473   0.593  0.8578  0.2527 -0.7820
59904SOL    HW286828  10.566   9.448   0.483  0.8403 -0.0970 -0.6895
59905SOL     OW86829   6.085  10.274   4.901  0.0052  0.2702  0.7800
59905SOL    HW186830   6.033  10.281   4.822  0.3976  0.4270  0.5331
59905SOL    HW286831   6.113  10.183   4.904  0.6984  0.4591  0.2802
59906SOL     OW86832   8.202   2.430  11.702  0.1616 -0.6189 -0.0066
59906SOL    HW186833   8.121   2.458  11.661  0.9045  0.8070 -0.5701
59906SOL    HW286834   8.195   2.461  11.793  0.6775  0.8590 -0.4420
59907SOL     OW86835   0.563   3.721   0.116  0.0752 -0.1433 -0.8255
59907SOL    HW186836   0.589   3.791   0.056 -0.9979 -0.4121 -1.6377
59907SOL    HW286837   0.480   3.688   0.080 -1.0794  0.2804  1.3066
59908SOL     OW86838   0.945   9.120  11.718 -0.0126  0.4413  0.0724
59908SOL    HW186839   0.890   9.044  11.736  1.0062  0.1211  2.1425
59908SOL    HW286840   0.966   9.114  11.625 -0.2521 -1.6037  0.1228
59909SOL     OW86841   7.826   9.976   0.850 -0.1438  0.4573 -0.6939
59909SOL    HW186842   7.751   9.930   0.812 -0.5625 -0.4520  1.1186
59909SOL    HW286843   7.901   9.921   0.827 -0.6317 -1.2106  1.4027
59910SOL     OW86844   3.545   0.066   6.821  0.3369 -0.2801  0.4464
59910SOL    HW186845   3.639   0.052   6.835  0.4352 -1.4243 -1.0479
59910SOL    HW286846   3.535   0.062   6.726 -1.3868 -1.2158  0.6351
59911SOL     OW86847  12.084   4.897   2.139  0.1676  0.0581  0.2355
59911SOL    HW186848  12.090   4.820   2.082 -0.7925  1.0051 -1.1726
59911SOL    HW286849  12.020   4.872   2.206  0.4192 -0.6209  0.2356
59912SOL     OW86850  11.715   8.651   6.089 -0.0401 -0.6203  0.0562
59912SOL    HW186851  11.632   8.692   6.117  0.4252 -0.0268  0.5976
59912SOL    HW286852  11.689   8.587   6.023 -0.8484  0.1673 -0.4074
59913SOL     OW86853  10.544   3.113   5.932 -0.2401  0.2715  0.1573
59913SOL    HW186854  10.505   3.035   5.893  2.6073 -1.1021 -0.1754
59913SOL    HW286855  10.578   3.163   5.857  0.8587  0.1296  0.5425
59914SOL     OW86856   5.542  12.717   8.321 -0.0122 -0.3129  0.4621
59914SOL    HW186857   5.461  12.689   8.278  0.4327  0.1967 -0.7802
59914SOL    HW286858   5.588  12.635   8.341 -1.1364 -0.6426  1.8696
59915SOL     OW86859   4.857   2.382   0.405  0.1845 -0.2315  0.3039
59915SOL    HW186860   4.880   2.440   0.332  1.5105 -1.4619 -0.3041
59915SOL    HW286861   4.822   2.441   0.472 -0.6528  0.9865 -1.1354
59916SOL     OW86862   6.006   6.526   2.063  0.4798 -0.2958 -0.1257
59916SOL    HW186863   6.056   6.493   1.989  0.0053 -0.2591 -0.4657
59916SOL    HW286864   5.915   6.509   2.041  0.2543  0.7393 -0.0728
59917SOL     OW86865   3.560   3.814   3.274  0.1927  0.0565 -0.1426
59917SOL    HW186866   3.606   3.871   3.213  0.4516 -1.0381 -1.0159
59917SOL    HW286867   3.629   3.761   3.315 -0.0247  0.4567  0.7659
59918SOL     OW86868   1.662   7.813   2.637 -0.0526 -0.4066 -0.0464
59918SOL    HW186869   1.665   7.907   2.652  4.3561 -0.2813 -0.3231
59918SOL    HW286870   1.656   7.774   2.724 -0.0577  0.1771  0.2159
59919SOL     OW86871   0.970   6.087  10.714  0.2017  0.3565 -0.1424
59919SOL    HW186872   0.941   6.004  10.749  2.6005  0.0351  1.3607
59919SOL    HW286873   0.985   6.142  10.791 -0.0493  1.7110 -1.0237
59920SOL     OW86874   6.298   0.179   3.841 -0.9297 -0.5535 -0.0196
59920SOL    HW186875   6.365   0.124   3.801 -0.8465 -0.0590 -0.5819
59920SOL    HW286876   6.253   0.219   3.766 -0.0207  1.3040  0.3695
59921SOL     OW86877   2.119  10.906   5.986 -0.4479 -0.4294  0.1998
59921SOL    HW186878   2.133  10.999   5.970  0.0935  0.0628  3.0696
59921SOL    HW286879   2.105  10.869   5.898 -0.4190  2.2621 -1.0534
59922SOL     OW86880  11.211   6.860   6.580 -0.7000  0.3800  0.1167
59922SOL    HW186881  11.177   6.776   6.549  1.6091  0.0444 -1.8636
59922SOL    HW286882  11.224   6.848   6.674 -1.9260 -0.8965  0.1550
59923SOL     OW86883   1.882  12.967   3.759  0.4043  0.1175  0.3026
59923SOL    HW186884   1.942  12.925   3.822  1.4609  2.4729  0.9725
59923SOL    HW286885   1.939  12.997   3.688 -0.2904  0.4882 -0.1029
59924SOL     OW86886   7.906  12.936   6.390 -0.0672  0.4123  0.4237
59924SOL    HW186887   7.999  12.954   6.392 -0.0806  0.4245  1.1541
59924SOL    HW286888   7.865  13.019   6.366 -0.0102  0.9298  1.9903
59925SOL     OW86889   6.950   3.446   7.394 -0.6229  0.0289 -1.0203
59925SOL    HW186890   6.976   3.371   7.342  1.2003  0.0414 -0.2057
59925SOL    HW286891   6.854   3.444   7.394 -0.9383 -5.0325  2.7192
59926SOL     OW86892   4.933   2.548  12.337  0.5952  0.3554  0.0867
59926SOL    HW186893   5.014   2.513  12.372  1.2046  2.1655  0.6002
59926SOL    HW286894   4.864   2.498  12.380  1.4056  0.4588  1.5594
59927SOL     OW86895  11.146  11.058  11.818 -0.1260 -0.6479 -0.7068
59927SOL    HW186896  11.238  11.047  11.842 -0.7588 -1.4773  1.6046
59927SOL    HW286897  11.131  10.991  11.752  0.4962 -1.7665  0.2459
59928SOL     OW86898   3.256   5.033   6.879 -0.3075 -0.1308  0.3961
59928SOL    HW186899   3.191   4.988   6.825  1.2952 -0.9631 -0.9175
59928SOL    HW286900   3.209   5.054   6.960 -2.1766 -0.7601 -0.4623
59929SOL     OW86901   7.360   2.441  11.526  0.4353  0.0186  0.2496
59929SOL    HW186902   7.389   2.368  11.471 -4.4674 -2.5901  0.4689
59929SOL    HW286903   7.366   2.518  11.470  1.8212 -1.3310 -1.5719
59930SOL     OW86904   7.779   8.483   6.290 -0.2449 -0.3820 -0.5848
59930SOL    HW186905   7.751   8.557   6.342  0.0387 -1.2649  0.8755
59930SOL    HW286906   7.776   8.408   6.350 -1.0268 -1.6711 -2.1230
59931SOL     OW86907  10.996   6.925   9.439  0.0296 -0.0019 -0.2603
59931SOL    HW186908  11.011   6.889   9.352 -0.0825  1.3470 -0.8616
59931SOL    HW286909  11.061   6.994   9.447 -0.7812  0.7167  0.2257
59932SOL     OW86910   9.874   5.885   1.063  0.0926 -0.7179 -0.0347
59932SOL    HW186911   9.868   5.804   1.113 -1.8531 -0.1822  0.6883
59932SOL    HW286912   9.930   5.943   1.115  0.1692 -1.0398  0.2384
59933SOL     OW86913   7.911   4.932   6.198 -0.1008  0.4668 -0.0370
59933SOL    HW186914   7.822   4.962   6.215  0.8012  2.8698  1.0986
59933SOL    HW286915   7.930   4.962   6.109 -0.0327  1.1310  0.1925
59934SOL     OW86916  12.433   4.267   7.872 -0.7360 -0.3739 -0.2903
59934SOL    HW186917  12.401   4.217   7.797  0.1513 -1.0474 -0.2342
59934SOL    HW286918  12.505   4.214   7.908 -0.0066  0.7719 -0.0136
59935SOL     OW86919   4.817  12.775   7.390 -0.2102  0.1376 -0.0200
59935SOL    HW186920   4.888  12.746   7.448  1.4577 -0.7223 -2.3208
59935SOL    HW286921   4.750  12.708   7.399  0.5933 -0.6982 -0.0622
59936SOL     OW86922   9.968   5.636   3.098  0.4089 -0.0385 -0.5986
59936SOL    HW186923  10.054   5.622   3.059 -1.0788 -0.8052 -3.9779
59936SOL    HW286924   9.952   5.730   3.090  0.4169 -0.0858 -1.1928
59937SOL     OW86925   4.576  11.897   2.114 -0.0510 -0.3404 -0.5064
59937SOL    HW186926   4.608  11.966   2.173  0.2946 -0.6421 -0.3361
59937SOL    HW286927   4.654  11.848   2.090 -0.2959 -0.6810 -0.6181
59938SOL     OW86928   8.929   0.720   3.632 -0.0249  0.3505  0.5045
59938SOL    HW186929   8.949   0.811   3.651  0.1469  0.1608  1.2611
59938SOL    HW286930   8.906   0.682   3.717 -0.3839 -0.2383  0.1528
59939SOL     OW86931  11.466   8.227   9.107 -0.2194 -0.3970  0.3273
59939SOL    HW186932  11.379   8.218   9.069 -0.3830  3.3831 -0.6308
59939SOL    HW286933  11.512   8.147   9.081 -3.1745 -2.2447  0.3876
59940SOL     OW86934   3.919   5.310  10.576  0.2406 -0.0636 -0.2423
59940SOL    HW186935   3.879   5.319  10.663 -0.4897  2.3565 -0.7670
59940SOL    HW286936   3.934   5.400  10.547  2.1856 -0.8503 -1.8822
59941SOL     OW86937  12.864   5.083   3.324  0.0012  0.1983 -0.0943
59941SOL    HW186938  12.943   5.132   3.347 -0.1308  0.6018 -0.4880
59941SOL    HW286939  12.803   5.101   3.396 -0.1500  0.8517 -0.3799
59942SOL     OW86940   0.383  12.782   2.665  0.5993 -0.2784  0.1084
59942SOL    HW186941   0.293  12.767   2.634  1.1829 -2.0547 -0.8682
59942SOL    HW286942   0.413  12.856   2.613 -0.5665  0.9224  1.0799
59943SOL     OW86943   0.802   8.701   6.287  1.0922  0.0422  0.6320
59943SOL    HW186944   0.765   8.789   6.279  1.0550 -0.0797 -0.6807
59943SOL    HW286945   0.883   8.714   6.336  0.4150  0.6114  1.6446
59944SOL     OW86946  11.730   1.245   9.697 -0.1123  0.1824  0.2929
59944SOL    HW186947  11.786   1.294   9.757 -0.1524 -0.0098  0.4849
59944SOL    HW286948  11.753   1.153   9.711 -0.1450  0.1333  0.0394
59945SOL     OW86949   9.367   8.644   3.946  0.1356 -0.5169  0.2143
59945SOL    HW186950   9.406   8.666   3.862 -1.5715 -1.3658 -0.8712
59945SOL    HW286951   9.360   8.727   3.993 -0.9672  0.3697 -1.4358
59946SOL     OW86952   5.533   5.857   1.273 -0.0367 -0.3219 -0.0472
59946SOL    HW186953   5.589   5.788   1.239  0.0008 -0.6209  0.6106
59946SOL    HW286954   5.562   5.869   1.363 -1.3957 -0.8684  0.4886
59947SOL     OW86955   9.479   9.321   4.412 -0.1966 -0.4585 -0.0392
59947SOL    HW186956   9.519   9.236   4.393  1.8606  0.4876 -0.2420
59947SOL    HW286957   9.416   9.333   4.341  0.0544 -1.4668 -0.4655
59948SOL     OW86958   3.245   3.252   7.830 -0.1191  0.2018 -0.3260
59948SOL    HW186959   3.275   3.343   7.821 -0.0135  0.5008  2.4010
59948SOL    HW286960   3.157   3.252   7.792  0.1103  1.2696 -0.9147
59949SOL     OW86961   3.231   2.786   8.188 -0.2134  0.0933  0.0611
59949SOL    HW186962   3.292   2.859   8.192  0.2428 -0.3443  1.9662
59949SOL    HW286963   3.275   2.721   8.134 -1.0701  1.5508 -2.5669
59950SOL     OW86964  10.398   3.826   8.478 -0.3608 -0.2521 -0.1275
59950SOL    HW186965  10.368   3.916   8.487 -1.8169 -0.7143 -0.1178
59950SOL    HW286966  10.443   3.807   8.560 -1.9155 -0.1936  0.7703
59951SOL     OW86967   4.090  12.119   4.072  0.3490 -0.1678  0.4865
59951SOL    HW186968   4.024  12.139   4.006 -1.1718 -1.3409  1.5647
59951SOL    HW286969   4.170  12.102   4.022 -0.9731 -1.9882 -1.1646
59952SOL     OW86970   6.590   1.830  11.622  0.4787  0.0737  0.2484
59952SOL    HW186971   6.512   1.835  11.677  0.8057  0.5536  0.6805
59952SOL    HW286972   6.663   1.832  11.684  0.8408 -0.0403 -0.1683
59953SOL     OW86973   5.550   6.511   8.349  0.0017 -0.0181  0.0179
59953SOL    HW186974   5.579   6.421   8.334  3.1307  0.9367 -0.4161
59953SOL    HW286975   5.626   6.554   8.388 -1.5875  2.3439  0.7134
59954SOL     OW86976   2.471   5.590   4.885  0.4717 -0.2645 -0.0261
59954SOL    HW186977   2.444   5.513   4.836 -0.3323 -0.0728  0.0934
59954SOL    HW286978   2.395   5.648   4.883  0.7104  0.0969  0.7360
59955SOL     OW86979   1.579   1.189   9.393 -0.4974  0.4884 -0.2266
59955SOL    HW186980   1.636   1.251   9.347 -0.0623  1.3976  1.4567
59955SOL    HW286981   1.584   1.109   9.341  1.4304  0.8846 -0.7468
59956SOL     OW86982   1.142  11.641   8.277  0.2929  0.1100 -0.3585
59956SOL    HW186983   1.211  11.596   8.229 -0.4281  0.5913 -1.8919
59956SOL    HW286984   1.071  11.577   8.284  0.3840  0.0499  0.0515
59957SOL     OW86985   0.940   5.216   9.053 -0.4714 -0.1030  0.4265
59957SOL    HW186986   0.959   5.304   9.020 -0.0663 -0.4477 -0.2859
59957SOL    HW286987   1.016   5.195   9.108  0.0514 -0.5023 -0.4304
59958SOL     OW86988   0.913  10.254  12.746 -0.4712 -0.6315 -0.3337
59958SOL    HW186989   0.967  10.204  12.684  0.4564 -0.1805  0.0966
59958SOL    HW286990   0.975  10.294  12.806 -1.2546  0.3799 -0.1665
59959SOL     OW86991   1.645  10.043   7.245 -0.2653 -0.1416  0.4266
59959SOL    HW186992   1.564  10.013   7.203  0.7756  0.0337 -1.8868
59959SOL    HW286993   1.673  10.117   7.192  1.6851 -0.5366  0.8302
59960SOL     OW86994   4.787   6.682   7.067 -0.0481 -0.4054 -0.2292
59960SOL    HW186995   4.770   6.745   7.137 -0.2675  1.1468 -1.6199
59960SOL    HW286996   4.866   6.715   7.023  0.6490 -1.8781 -0.1563
59961SOL     OW86997   1.784   7.192   9.195  0.1350 -0.6263  0.0980
59961SOL    HW186998   1.734   7.143   9.260 -0.9961  0.4488  0.0825
59961SOL    HW286999   1.718   7.242   9.147  1.0113 -0.8354 -1.4041
59962SOL     OW87000   7.393  11.110   7.475 -0.4336 -0.4064 -0.2462
59962SOL    HW187001   7.333  11.125   7.548 -0.1581 -0.7660  0.0535
59962SOL    HW287002   7.338  11.120   7.397 -0.4461  1.3319 -0.0563
59963SOL     OW87003  10.724   4.213   8.093 -0.0205 -0.2297  0.0885
59963SOL    HW187004  10.787   4.172   8.034 -2.2591 -1.9157 -1.2865
59963SOL    HW287005  10.773   4.285   8.134  2.4188 -0.7265 -1.7105
59964SOL     OW87006  10.167   7.991   6.306 -0.1475 -0.0742  0.0497
59964SOL    HW187007  10.229   7.974   6.377  1.0654 -0.6974 -1.1153
59964SOL    HW287008  10.153   7.906   6.265  1.3412  0.6573 -2.1612
59965SOL     OW87009   0.223  10.390   6.574 -0.1089  0.7996  0.5369
59965SOL    HW187010   0.152  10.454   6.562  0.3616  1.2897  0.3230
59965SOL    HW287011   0.224  10.341   6.492 -0.2908  0.6989  0.5942
59966SOL     OW87012   2.877   4.074   4.455 -0.3861  0.0283 -0.5414
59966SOL    HW187013   2.820   4.011   4.498 -1.3011  1.7592  0.9517
59966SOL    HW287014   2.938   4.021   4.405 -0.6769 -2.0523  1.1501
59967SOL     OW87015   5.567  11.516   8.891 -0.0523  0.2900 -0.8519
59967SOL    HW187016   5.582  11.572   8.968 -0.4031 -3.3660  2.1582
59967SOL    HW287017   5.640  11.538   8.832  0.1832  3.3346  0.3484
59968SOL     OW87018   0.278   2.967   3.546  0.0337  0.2344  0.8952
59968SOL    HW187019   0.366   2.928   3.545  0.0607  0.2917  1.0941
59968SOL    HW287020   0.288   3.047   3.597  0.1810  0.9675 -0.2431
59969SOL     OW87021   4.117  10.314   6.097 -0.3800 -0.1083 -0.4285
59969SOL    HW187022   4.102  10.398   6.053 -3.0144  0.6545  1.6160
59969SOL    HW287023   4.036  10.265   6.082  0.6241 -1.8102 -0.5283
59970SOL     OW87024   5.243   1.036   4.386  0.5435 -0.0877  0.0046
59970SOL    HW187025   5.313   1.069   4.442 -0.6289  0.7511  1.0269
59970SOL    HW287026   5.235   1.103   4.317  0.4126  0.0585  0.1633
59971SOL     OW87027   0.366   8.906   0.562  0.3685  1.0306 -0.4472
59971SOL    HW187028   0.360   8.976   0.627  0.5739  1.9268 -1.3678
59971SOL    HW287029   0.285   8.913   0.512  0.0668  0.1406 -0.1082
59972SOL     OW87030   2.704   6.914   9.692 -0.0433 -0.0768 -0.3952
59972SOL    HW187031   2.749   6.983   9.739 -0.8190 -0.2072  0.5563
59972SOL    HW287032   2.748   6.833   9.720 -0.2270 -0.1169 -0.2222
59973SOL     OW87033   7.888   8.443   4.341 -0.2579  0.0902 -0.2596
59973SOL    HW187034   7.837   8.363   4.357 -1.4832  1.1242  1.2713
59973SOL    HW287035   7.970   8.428   4.388  0.7427 -1.3681 -2.3019
59974SOL     OW87036   7.044  11.233  12.489  0.3198  0.3594 -0.4851
59974SOL    HW187037   7.025  11.306  12.548  0.2506 -1.0261  1.2727
59974SOL    HW287038   7.139  11.222  12.494  0.1963 -0.4993  0.3358
59975SOL     OW87039   0.552   1.499   3.733 -0.3295  0.3262  0.1912
59975SOL    HW187040   0.557   1.403   3.739 -1.5441  0.3251  2.0821
59975SOL    HW287041   0.603   1.521   3.655  2.3018 -1.6432  1.1950
59976SOL     OW87042  10.728  11.137  12.171 -0.1192  0.5238  0.1457
59976SOL    HW187043  10.759  11.217  12.129  1.9757 -0.8679 -1.1369
59976SOL    HW287044  10.666  11.099  12.109  0.9251 -0.1719 -0.4908
59977SOL     OW87045  12.710   7.167   8.872  0.3213 -0.4593  0.5651
59977SOL    HW187046  12.640   7.214   8.827  0.4440  0.6908  1.5314
59977SOL    HW287047  12.666   7.092   8.913 -0.3508  0.2377  1.1441
59978SOL     OW87048  12.086   9.156   8.163 -0.1462 -0.0417 -0.3187
59978SOL    HW187049  12.002   9.119   8.138 -0.1731 -1.5753  1.7819
59978SOL    HW287050  12.074   9.251   8.154 -0.8708 -0.3346 -3.4660
59979SOL     OW87051   1.976   9.020   8.729  0.1187  0.1782  0.0012
59979SOL    HW187052   1.976   8.965   8.651 -1.5417  1.9118 -1.3208
59979SOL    HW287053   2.069   9.035   8.747  0.5531 -0.2830 -1.6339
59980SOL     OW87054  11.276   1.890   4.546  0.1770  0.4929 -0.2229
59980SOL    HW187055  11.297   1.903   4.454  0.1176  1.7241 -0.0792
59980SOL    HW287056  11.252   1.798   4.553 -2.5562  0.9527 -1.9888
59981SOL     OW87057  11.493   0.348   8.693  0.4897  0.0320 -0.6023
59981SOL    HW187058  11.502   0.287   8.620  1.4706 -3.4216  2.1241
59981SOL    HW287059  11.578   0.346   8.736  0.0401  2.2060  0.5027
59982SOL     OW87060   3.932   7.222   0.316  1.0013 -0.2695 -0.3982
59982SOL    HW187061   3.963   7.255   0.231  0.1751 -0.2370 -0.7039
59982SOL    HW287062   3.994   7.153   0.339  0.7607 -0.8626 -1.4519
59983SOL     OW87063   9.636   5.919  10.561 -0.8831 -0.2689  0.3460
59983SOL    HW187064   9.692   5.853  10.520 -0.4629 -1.2286  2.3269
59983SOL    HW287065   9.547   5.883  10.554 -1.3106  1.0707 -2.4428
59984SOL     OW87066   5.895  12.313  12.242  0.2514  0.1331 -0.4706
59984SOL    HW187067   5.812  12.328  12.196 -0.1052  2.7628  0.8859
59984SOL    HW287068   5.913  12.395  12.288  2.6761 -0.9983  0.7917
59985SOL     OW87069   7.013   1.246   2.649  0.0389  0.1081  0.3168
59985SOL    HW187070   6.976   1.165   2.683 -1.0707  0.4942  0.0489
59985SOL    HW287071   7.098   1.254   2.694 -0.6919 -0.1932  1.8152
59986SOL     OW87072   0.813   6.673  11.063 -0.0796  0.1400 -1.0430
59986SOL    HW187073   0.812   6.707  11.152 -2.5380 -3.2610  0.4420
59986SOL    HW287074   0.736   6.712  11.021 -0.7057 -0.6191 -0.6155
59987SOL     OW87075   7.267  10.560  12.180  0.0041 -0.5419  0.1224
59987SOL    HW187076   7.260  10.511  12.098 -0.0854 -1.3803  0.6175
59987SOL    HW287077   7.323  10.506  12.236 -0.4483 -0.2918  0.8331
59988SOL     OW87078   7.280   9.388   4.134  0.1443 -0.4970  0.0081
59988SOL    HW187079   7.231   9.467   4.111 -1.3719 -1.0989  1.0812
59988SOL    HW287080   7.368   9.405   4.101 -0.2757  1.4285 -0.2373
59989SOL     OW87081   0.180   5.168   0.902 -0.5042  0.0897  0.6746
59989SOL    HW187082   0.220   5.101   0.956 -0.1426 -0.2267  0.0319
59989SOL    HW287083   0.171   5.244   0.960  0.4677 -0.0326  1.0141
59990SOL     OW87084   2.784  11.118   1.321 -0.1403 -0.1204  0.6908
59990SOL    HW187085   2.792  11.212   1.307  1.3983 -0.5552 -2.4645
59990SOL    HW287086   2.690  11.100   1.316 -0.5963  1.3258  2.7942
59991SOL     OW87087   9.405  11.711   1.919 -0.2836 -0.0231 -0.0073
59991SOL    HW187088   9.385  11.675   2.005  0.7919  0.6712  0.5531
59991SOL    HW287089   9.453  11.642   1.874 -0.5536 -0.2649  0.0711
59992SOL     OW87090  11.296   4.682  12.015  0.3706 -0.0501 -0.0762
59992SOL    HW187091  11.272   4.773  11.996  0.2545 -0.1955 -0.6485
59992SOL    HW287092  11.226   4.650  12.071 -0.5415 -0.3134 -1.3102
59993SOL     OW87093   7.605  10.354   3.813  0.2044  0.4482  0.3376
59993SOL    HW187094   7.650  10.338   3.895  0.9861 -2.5069 -0.5703
59993SOL    HW287095   7.541  10.283   3.806 -2.2782  2.5604 -0.0674
59994SOL     OW87096   0.992   2.943   8.820 -0.3771  0.1317 -0.7241
59994SOL    HW187097   0.936   2.972   8.747  0.6821  0.0025 -1.6100
59994SOL    HW287098   1.016   3.023   8.865 -0.1112  0.3333 -1.2139
59995SOL     OW87099   0.080  12.486   2.185  0.2110  0.1673 -0.1568
59995SOL    HW187100  -0.009  12.453   2.201 -1.0709  2.6472 -1.5393
59995SOL    HW287101   0.093  12.553   2.252  0.1866  1.1708 -1.1071
59996SOL     OW87102   4.844   2.783  11.881 -0.5248  0.0954 -0.0829
59996SOL    HW187103   4.888   2.778  11.966 -0.1819 -0.7474 -0.2901
59996SOL    HW287104   4.893   2.721  11.826 -2.3882 -1.4219 -0.1371
59997SOL     OW87105   3.399  11.785  10.947 -0.2829  0.1644 -0.2452
59997SOL    HW187106   3.427  11.828  11.029  2.2389 -1.2007 -0.2739
59997SOL    HW287107   3.348  11.851  10.902 -0.5353  1.4684  1.8024
59998SOL     OW87108   6.574  10.325  12.410 -0.2846 -0.2233  0.8115
59998SOL    HW187109   6.552  10.233  12.427  2.1007 -1.4020 -1.6873
59998SOL    HW287110   6.667  10.332  12.435  0.1995  0.8479 -1.1093
59999SOL     OW87111  12.292  11.541   3.465 -1.0148 -0.0618 -0.2998
59999SOL    HW187112  12.359  11.590   3.419  1.0794 -1.9435  0.5461
59999SOL    HW287113  12.239  11.502   3.395  2.5149 -3.4709 -1.4734
60000SOL     OW87114   2.829   0.275   8.909 -0.2446  0.2317 -0.0764
60000SOL    HW187115   2.858   0.238   8.826  1.2400  0.3020  0.3924
60000SOL    HW287116   2.733   0.270   8.905 -0.2257  0.6401 -1.9657
60001SOL     OW87117  10.925  11.708   0.068 -0.2190  0.2517 -0.2377
60001SOL    HW187118  10.989  11.668   0.009  1.8585  4.6426 -1.3678
60001SOL    HW287119  10.909  11.795   0.031 -1.4538  1.9856  3.8302
60002SOL     OW87120   3.413   3.501   1.986  0.6522 -0.0429 -0.2630
60002SOL    HW187121   3.462   3.427   1.951  0.1555 -1.2586  1.4311
60002SOL    HW287122   3.479   3.569   2.001  1.2213 -0.3548 -1.2616
60003SOL     OW87123   5.116   8.834   8.959  0.3225  0.4785  0.4773
60003SOL    HW187124   5.202   8.876   8.965  0.4048  0.1994  1.4833
60003SOL    HW287125   5.059   8.901   8.922  0.5346  1.3774  1.6894
60004SOL     OW87126   3.102   1.688   6.463 -0.1528  0.3772  0.0561
60004SOL    HW187127   3.185   1.678   6.415 -0.6702 -0.1502 -0.7596
60004SOL    HW287128   3.078   1.599   6.487  0.3903  0.6758  1.8555
60005SOL     OW87129   7.855  10.135   2.116 -0.4060  0.0967 -0.4094
60005SOL    HW187130   7.879  10.227   2.107 -0.1855  0.1411  0.4916
60005SOL    HW287131   7.817  10.111   2.032  0.2512  0.7993 -0.9201
60006SOL     OW87132   9.187   5.821   1.929 -0.4356 -0.2856  0.2112
60006SOL    HW187133   9.232   5.737   1.916  0.3075 -0.2956  2.3564
60006SOL    HW287134   9.131   5.806   2.005 -0.5433  1.0667  0.4201
60007SOL     OW87135   7.393   2.497   4.503  0.3395 -0.2990  0.2539
60007SOL    HW187136   7.339   2.570   4.470 -0.5290 -1.0257  0.0123
60007SOL    HW287137   7.436   2.462   4.424  0.7149 -0.0814  0.3615
60008SOL     OW87138   1.140   4.308   0.162  0.2020 -0.2885 -0.0192
60008SOL    HW187139   1.128   4.364   0.085  0.5781 -1.2912 -0.8376
60008SOL    HW287140   1.142   4.219   0.126  0.4155 -0.7698  1.1539
60009SOL     OW87141   4.139  10.592   3.767 -0.0762  0.5870  0.1835
60009SOL    HW187142   4.194  10.670   3.775  0.2134  0.6122 -1.6357
60009SOL    HW287143   4.051  10.622   3.791  0.4780  0.7921  2.1290
60010SOL     OW87144  10.832   9.555  12.863  0.2880 -0.1945  0.3565
60010SOL    HW187145  10.774   9.623  12.830  1.5012  0.8209  0.2171
60010SOL    HW287146  10.786   9.473  12.846 -0.9815  0.5517  0.0501
60011SOL     OW87147   3.667   1.571   1.114  0.0264  0.2736 -0.3835
60011SOL    HW187148   3.602   1.588   1.045 -1.8135  0.2609  1.2575
60011SOL    HW287149   3.680   1.477   1.111  0.8545  0.4004 -1.4439
60012SOL     OW87150   8.733   0.437   1.507  0.1289  0.2016  0.6786
60012SOL    HW187151   8.716   0.365   1.446 -1.1294  1.8037 -1.0229
60012SOL    HW287152   8.664   0.429   1.573  0.2218 -0.3611  0.7103
60013SOL     OW87153   8.005  10.551   6.363  0.6060  0.4850 -0.0709
60013SOL    HW187154   8.019  10.578   6.273 -0.3626 -0.5947 -0.5705
60013SOL    HW287155   8.076  10.489   6.381  1.0410  1.0135  0.0626
60014SOL     OW87156   6.574   3.769  11.998  0.1507 -0.3294 -0.5285
60014SOL    HW187157   6.509   3.743  11.932  1.0870 -0.6448 -1.3541
60014SOL    HW287158   6.604   3.855  11.969 -2.4353  1.5484  1.8198
60015SOL     OW87159   6.678   8.191   3.248  0.0511 -0.5285  0.2753
60015SOL    HW187160   6.723   8.166   3.167 -1.5380 -0.4406 -0.6865
60015SOL    HW287161   6.720   8.272   3.276  0.7911 -0.7012 -0.3123
60016SOL     OW87162   9.959   9.375   1.248 -0.2214  0.0383  0.1321
60016SOL    HW187163   9.922   9.459   1.222 -0.1889  0.4398  1.3329
60016SOL    HW287164   9.962   9.324   1.167 -2.3040  0.3933 -0.2111
60017SOL     OW87165  10.262   8.686   9.193  0.2742 -0.0321 -0.3861
60017SOL    HW187166  10.227   8.729   9.115  1.0090  0.4496 -0.4569
60017SOL    HW287167  10.280   8.758   9.254 -0.1379 -0.3886  0.1739
60018SOL     OW87168  11.700  12.960  11.288 -0.1262  0.0005 -0.5393
60018SOL    HW187169  11.795  12.969  11.282 -0.2667  1.1150 -1.3048
60018SOL    HW287170  11.666  13.049  11.285 -1.2195 -0.3940 -0.6181
60019SOL     OW87171   3.193  10.699  11.826  0.1792  0.1450  0.7673
60019SOL    HW187172   3.105  10.736  11.817  0.3551  0.5187  0.5155
60019SOL    HW287173   3.180  10.616  11.870 -0.2815  0.2936  0.9199
60020SOL     OW87174   2.140   1.404  10.863 -0.5184  1.0219  0.3793
60020SOL    HW187175   2.230   1.402  10.897 -0.3738  0.9764 -0.0001
60020SOL    HW287176   2.149   1.442  10.775 -0.7393  0.1528 -0.0311
60021SOL     OW87177   0.402   0.057   4.873 -0.1877 -0.4127 -0.6134
60021SOL    HW187178   0.439   0.145   4.868 -0.0680 -0.4715 -0.7399
60021SOL    HW287179   0.392   0.030   4.782  2.0307 -1.4965 -0.5957
60022SOL     OW87180   5.691   4.458   5.740 -0.1101 -0.6097 -0.3629
60022SOL    HW187181   5.634   4.462   5.817  0.0791  3.1694 -0.2781
60022SOL    HW287182   5.777   4.436   5.776 -0.0760  0.8562  0.5333
60023SOL     OW87183   5.822   1.761   6.598  0.1040 -0.3563 -0.4935
60023SOL    HW187184   5.869   1.839   6.569  1.4889 -0.7878  0.4923
60023SOL    HW287185   5.889   1.694   6.606 -0.7403 -1.1019  0.5850
60024SOL     OW87186   4.457   7.096  11.026 -0.1362 -0.1936 -0.0174
60024SOL    HW187187   4.484   7.185  11.045  0.2114 -0.4359  0.6380
60024SOL    HW287188   4.399   7.104  10.950  0.8952  0.4531 -0.7671
60025SOL     OW87189   2.663   3.425  12.273 -0.3008 -0.1528  0.1610
60025SOL    HW187190   2.614   3.349  12.245 -0.3865 -0.3223  0.7537
60025SOL    HW287191   2.603   3.474  12.329 -1.0395  1.5355 -1.9472
60026SOL     OW87192   3.018   2.073   7.500  0.2965  0.1536 -0.0051
60026SOL    HW187193   2.972   1.997   7.535  0.3342  1.0853  2.2393
60026SOL    HW287194   3.083   2.037   7.440  0.2104 -1.5718  0.8882
60027SOL     OW87195   7.139   5.526   1.956  0.7118 -0.1159 -0.3703
60027SOL    HW187196   7.100   5.511   2.042  2.2242 -0.4721  0.2895
60027SOL    HW287197   7.069   5.564   1.903 -0.8147 -1.7361  0.4219
60028SOL     OW87198   1.773   3.045   1.061 -0.0813  0.0754 -0.1216
60028SOL    HW187199   1.729   3.059   0.977 -1.2276 -0.3674  0.3825
60028SOL    HW287200   1.798   3.132   1.090 -0.2849  0.2981 -0.6057
60029SOL     OW87201   0.789  10.906   2.693  0.2863 -0.5050  0.2324
60029SOL    HW187202   0.796  10.864   2.779  1.8987 -1.2116 -0.2117
60029SOL    HW287203   0.745  10.842   2.638 -0.4286 -0.1901  0.4226
60030SOL     OW87204  12.094   4.288   6.922 -0.3171 -0.0715  0.3865
60030SOL    HW187205  12.162   4.228   6.890  0.2458 -0.9856  3.0151
60030SOL    HW287206  12.143   4.361   6.960 -0.9690  1.1588 -1.0158
60031SOL     OW87207   9.194   2.303   7.184 -0.1673  0.3021 -0.2501
60031SOL    HW187208   9.110   2.263   7.163  0.3268 -1.0242  0.1614
60031SOL    HW287209   9.245   2.297   7.103 -0.1237  0.1818 -0.2137
60032SOL     OW87210   4.550   7.723  10.264 -0.4061  0.0466  0.1384
60032SOL    HW187211   4.501   7.790  10.312  1.1703  1.9596 -0.7635
60032SOL    HW287212   4.572   7.765  10.181 -0.5903 -2.1480 -1.0827
60033SOL     OW87213  11.722  12.207   6.017  0.0926  0.2413  0.2431
60033SOL    HW187214  11.715  12.198   5.922  0.2340 -1.4204  0.3591
60033SOL    HW287215  11.675  12.288   6.037 -0.3329  0.3773 -1.1842
60034SOL     OW87216   6.857   2.949   6.498 -0.5074 -0.2499 -0.3269
60034SOL    HW187217   6.772   2.947   6.454  0.5093 -0.4081 -2.4546
60034SOL    HW287218   6.901   3.025   6.458  0.3965 -0.2519  0.6421
60035SOL     OW87219   9.544   6.761   4.112  0.1339 -0.3233  0.3599
60035SOL    HW187220   9.474   6.744   4.175  0.4942  1.1191  1.1916
60035SOL    HW287221   9.517   6.842   4.068  1.0536 -0.0078  0.3689
60036SOL     OW87222   7.310   2.256   4.632  0.4189  0.7040 -0.1006
60036SOL    HW187223   7.332   2.338   4.588  1.2561 -0.2625 -1.5473
60036SOL    HW287224   7.263   2.205   4.565  0.5208 -0.2649  0.5464
60037SOL     OW87225  12.111  11.555  12.855  0.4690 -0.3375 -0.3584
60037SOL    HW187226  12.067  11.631  12.816 -0.1693 -0.6706 -0.3035
60037SOL    HW287227  12.097  11.484  12.792 -1.8203 -1.2603  1.0557
60038SOL     OW87228   8.593   3.950   6.415  0.4972  0.0920 -0.4576
60038SOL    HW187229   8.528   3.880   6.408  0.8014 -0.1825 -0.6053
60038SOL    HW287230   8.542   4.030   6.426  0.1584 -0.2924  0.9270
60039SOL     OW87231  12.048   6.730   8.754  0.3841 -0.2279  0.4071
60039SOL    HW187232  12.022   6.810   8.802  1.8849  0.1140  0.6823
60039SOL    HW287233  12.078   6.762   8.669  0.7957 -0.5266  0.4413
60040SOL     OW87234  10.907   7.419   7.963  0.2084 -0.4791  0.3776
60040SOL    HW187235  10.899   7.475   8.041  1.1059  1.2866 -0.7403
60040SOL    HW287236  10.952   7.340   7.995  0.5347  0.1960  1.6647
60041SOL     OW87237   1.846   8.889  10.138  0.2988  0.0864  0.2692
60041SOL    HW187238   1.849   8.849  10.051 -3.2287  0.2387 -0.0778
60041SOL    HW287239   1.846   8.814  10.198  0.3546 -0.1243  0.0091
60042SOL     OW87240   8.959   9.347   6.924 -0.3805  0.0929 -0.0797
60042SOL    HW187241   9.044   9.313   6.954 -0.1965  0.5640 -0.0639
60042SOL    HW287242   8.897   9.319   6.991  0.2262  2.2653  1.5016
60043SOL     OW87243   0.576  12.307  10.506 -0.1957  0.4119 -0.6687
60043SOL    HW187244   0.650  12.273  10.556 -0.6738  0.4292  0.0503
60043SOL    HW287245   0.509  12.239  10.513 -0.9470  1.2198  0.2903
60044SOL     OW87246   4.098   7.804   0.771  0.2859  0.3174 -0.7023
60044SOL    HW187247   4.149   7.885   0.773  0.7838  0.0164 -1.0472
60044SOL    HW287248   4.085   7.781   0.863 -0.4896  1.1751 -0.5835
60045SOL     OW87249   2.725  12.322   3.463  0.1269 -0.0494 -0.1322
60045SOL    HW187250   2.722  12.231   3.492  0.2509 -0.4688 -1.3716
60045SOL    HW287251   2.782  12.321   3.386 -0.1097  1.0207 -0.3398
60046SOL     OW87252  11.046   5.974   8.557  0.1360  0.0960 -0.5615
60046SOL    HW187253  11.001   6.030   8.495 -0.5174  0.1747 -0.0299
60046SOL    HW287254  11.091   6.034   8.616 -0.9782  0.1079  0.3184
60047SOL     OW87255   8.686  11.678   5.942 -0.6440 -0.0240 -0.3826
60047SOL    HW187256   8.690  11.773   5.953  0.8214  0.1517 -2.0555
60047SOL    HW287257   8.644  11.665   5.857 -0.6224 -0.8683 -0.2722
60048SOL     OW87258   2.354   7.573   3.797 -0.1972  0.2839 -0.2386
60048SOL    HW187259   2.308   7.542   3.874 -1.7841  1.1381 -0.7992
60048SOL    HW287260   2.327   7.664   3.787 -0.7697 -0.0423 -2.2825
60049SOL     OW87261   5.704   1.879  11.112  0.3165  0.6768  0.2564
60049SOL    HW187262   5.747   1.864  11.028 -1.1721  1.6595 -0.7082
60049SOL    HW287263   5.646   1.804  11.123  1.1140  0.1172  0.8529
60050SOL     OW87264   0.093   2.870   5.754  0.2398 -0.1469 -0.0330
60050SOL    HW187265   0.036   2.873   5.677 -0.8157  1.3543  0.7344
60050SOL    HW287266   0.046   2.813   5.816  0.8660 -0.9900 -0.3174
60051SOL     OW87267   5.938  10.424   0.341 -0.1519  0.1805 -0.3541
60051SOL    HW187268   5.979  10.338   0.331 -0.5991 -0.1449  0.4576
60051SOL    HW287269   5.980  10.479   0.275  0.1298 -0.6631 -0.8921
60052SOL     OW87270  10.012  10.744   9.875 -0.6821  0.1143  0.0330
60052SOL    HW187271   9.922  10.743   9.842 -0.1235 -1.1456 -1.5959
60052SOL    HW287272  10.056  10.673   9.828  1.1557  0.6407  0.8445
60053SOL     OW87273   2.564   6.696  12.522 -0.1469 -0.1594  0.2687
60053SOL    HW187274   2.533   6.661  12.606 -2.0203 -1.6783 -0.9889
60053SOL    HW287275   2.638   6.640  12.499  0.0001 -0.1113  0.6089
60054SOL     OW87276   1.688   4.132   8.764 -0.1031 -0.2703 -0.3817
60054SOL    HW187277   1.599   4.167   8.756  0.0889  0.4126  0.3237
60054SOL    HW287278   1.685   4.076   8.841  0.1128 -0.1245 -0.2663
60055SOL     OW87279   1.706  12.006  11.670  0.4032 -0.1378  0.5632
60055SOL    HW187280   1.701  11.926  11.722  1.0004 -0.2680  0.4363
60055SOL    HW287281   1.676  12.075  11.729  1.2853 -0.2498  1.1634
60056SOL     OW87282   3.252   5.381   2.792 -0.0105  0.6172 -0.1759
60056SOL    HW187283   3.210   5.401   2.875 -0.0276  0.0625 -0.0496
60056SOL    HW287284   3.318   5.315   2.814 -0.4153  0.0311 -0.6976
60057SOL     OW87285   8.399  11.218   9.393 -0.7432 -0.3069 -0.4988
60057SOL    HW187286   8.388  11.209   9.487  0.2703 -0.6791 -0.4019
60057SOL    HW287287   8.400  11.312   9.377 -0.0376 -0.2262 -0.0118
60058SOL     OW87288   7.220  10.584   1.053  0.1954  0.2761  0.0412
60058SOL    HW187289   7.128  10.605   1.068  0.0638  0.2609 -0.7144
60058SOL    HW287290   7.227  10.571   0.958  0.2228 -3.1636  0.3692
60059SOL     OW87291   3.663   2.969   1.574 -0.4700  0.7787 -0.5040
60059SOL    HW187292   3.702   2.889   1.538  2.0306  1.1353  1.2013
60059SOL    HW287293   3.608   2.939   1.646 -0.9337  0.4905 -0.9718
60060SOL     OW87294   9.839   8.098   4.710  0.2017  0.2101 -0.3539
60060SOL    HW187295   9.861   8.164   4.644 -0.3202  0.3475 -0.3924
60060SOL    HW287296   9.899   8.115   4.782  0.5686  0.2571 -0.6650
60061SOL     OW87297   6.972  10.715   8.159 -0.0238 -0.4951  1.0672
60061SOL    HW187298   7.028  10.784   8.195 -1.2257  0.8874  0.4085
60061SOL    HW287299   6.995  10.637   8.208  2.3626  0.0373  0.9322
60062SOL     OW87300   4.031   1.345  10.108  0.2869 -0.0773  0.0521
60062SOL    HW187301   4.035   1.301  10.023 -2.0576  1.2413 -0.8382
60062SOL    HW287302   4.086   1.422  10.097 -0.3347  0.3086 -0.4564
60063SOL     OW87303   7.913   4.389   1.812  0.8176  0.2362 -0.2007
60063SOL    HW187304   7.843   4.332   1.780 -0.0887 -0.4509  2.6758
60063SOL    HW287305   7.919   4.458   1.747 -2.2258  0.0577 -0.8350
60064SOL     OW87306   7.068   1.152   4.036  0.4799 -0.1445 -0.1458
60064SOL    HW187307   6.979   1.116   4.041  1.0315 -1.7553 -1.1491
60064SOL    HW287308   7.056   1.243   4.009 -0.8590 -0.3604 -0.3374
60065SOL     OW87309   8.167   4.818   9.612 -0.1047  0.0550  0.5963
60065SOL    HW187310   8.214   4.813   9.695  1.0303 -0.6767 -0.0582
60065SOL    HW287311   8.161   4.727   9.582  2.5288  0.4620 -1.6839
60066SOL     OW87312  12.072   8.941   6.755 -0.0769  0.1226  0.6019
60066SOL    HW187313  12.035   8.854   6.766 -0.1596 -0.2564 -2.0862
60066SOL    HW287314  12.162   8.933   6.786 -0.7818 -0.1914  2.7471
60067SOL     OW87315   8.816  10.294   7.939  0.6888 -0.1552  0.1804
60067SOL    HW187316   8.742  10.271   7.883 -2.4653  1.1912  3.3906
60067SOL    HW287317   8.843  10.381   7.909  0.1411 -0.1274 -0.2468
60068SOL     OW87318   7.653   4.686   5.582 -0.0053 -0.0196 -0.5559
60068SOL    HW187319   7.566   4.722   5.592  0.1359 -0.0034  0.7965
60068SOL    HW287320   7.702   4.717   5.658  1.0196 -0.4837 -0.9888
60069SOL     OW87321   4.161   2.289   8.007  0.3036 -0.4499 -0.4117
60069SOL    HW187322   4.251   2.317   7.992  0.3457 -0.6775 -0.5845
60069SOL    HW287323   4.160   2.197   7.982  0.7992 -1.3764  2.5729
60070SOL     OW87324   5.599  11.101   0.497 -0.1068  0.2522  0.1229
60070SOL    HW187325   5.683  11.080   0.456 -0.5904  1.8738 -1.8617
60070SOL    HW287326   5.534  11.088   0.427 -0.8544  4.2186 -0.1626
60071SOL     OW87327  10.482   6.599   8.954 -0.6699  0.5069 -0.3383
60071SOL    HW187328  10.557   6.643   8.992 -1.3167  1.2290  0.1346
60071SOL    HW287329  10.488   6.509   8.986  1.4055 -0.1552 -2.4037
60072SOL     OW87330  10.608   3.027   0.387  0.0697  0.0576  0.2709
60072SOL    HW187331  10.596   2.943   0.343  3.5756 -0.5805  0.1876
60072SOL    HW287332  10.601   3.007   0.480  0.3197 -0.2377  0.2286
60073SOL     OW87333   9.427   5.207   3.238 -0.3190  0.0988  0.2983
60073SOL    HW187334   9.349   5.178   3.284 -0.8984  0.3674 -0.4937
60073SOL    HW287335   9.479   5.252   3.305 -0.9472  0.1209  0.7808
60074SOL     OW87336   7.412   7.441   7.255 -0.6793  0.0163 -0.1182
60074SOL    HW187337   7.331   7.451   7.206  0.0584 -0.7151 -1.5497
60074SOL    HW287338   7.451   7.359   7.222  1.2841  1.0109 -0.4359
60075SOL     OW87339  10.769   2.832   2.858  0.0464 -0.5442  0.0033
60075SOL    HW187340  10.766   2.823   2.953 -1.0708  0.0909  0.0487
60075SOL    HW287341  10.699   2.774   2.826 -1.0311  0.8427 -0.2673
60076SOL     OW87342   9.021   4.366  11.805  0.1138  0.0191  0.1908
60076SOL    HW187343   8.929   4.344  11.818  0.1467  0.1078  0.5849
60076SOL    HW287344   9.030   4.455  11.840  0.3249  0.0504  0.0619
60077SOL     OW87345   4.289   4.877   7.094 -0.2095  0.7867  0.7532
60077SOL    HW187346   4.375   4.843   7.119 -0.6174 -0.3809  0.6371
60077SOL    HW287347   4.266   4.939   7.164  1.7217  2.9510 -0.3889
60078SOL     OW87348  10.658   2.522  11.487 -0.2328  0.2400 -0.0699
60078SOL    HW187349  10.579   2.531  11.540 -0.5105 -2.0608 -0.0305
60078SOL    HW287350  10.632   2.468  11.413  0.9408  0.7582 -0.8855
60079SOL     OW87351   1.252  11.457   3.925 -0.3017 -0.1457 -0.0765
60079SOL    HW187352   1.228  11.380   3.873 -0.8306 -0.0689  0.0547
60079SOL    HW287353   1.332  11.430   3.970 -0.4069 -0.5729 -0.1405
60080SOL     OW87354   9.672   7.304   6.464 -0.4039 -0.5879  0.2188
60080SOL    HW187355   9.607   7.302   6.534 -0.7477 -0.1287 -0.0833
60080SOL    HW287356   9.647   7.378   6.409  0.6141 -0.1523  0.3190
60081SOL     OW87357   6.471   0.451   2.577 -0.1323  0.2581  0.3119
60081SOL    HW187358   6.480   0.545   2.562  0.4583 -0.0196 -1.3340
60081SOL    HW287359   6.554   0.424   2.615  0.9705 -0.0606 -2.1327
60082SOL     OW87360   2.785   7.089   4.125  0.1698 -0.2494 -0.2057
60082SOL    HW187361   2.807   7.090   4.218  2.3525  1.1824 -0.6604
60082SOL    HW287362   2.842   7.022   4.088 -0.3949 -0.5240 -0.5783
60083SOL     OW87363  10.485  10.193   1.514 -0.7157  0.0982  0.3891
60083SOL    HW187364  10.402  10.202   1.467 -1.6606 -1.0634  1.7501
60083SOL    HW287365  10.492  10.273   1.566 -1.9744 -0.5827  1.6937
60084SOL     OW87366   6.662   5.381  11.320 -0.4714  0.1304 -0.0846
60084SOL    HW187367   6.715   5.320  11.372  0.9725  0.4071 -1.1775
60084SOL    HW287368   6.585   5.330  11.295  0.0400 -0.8103  0.1846
60085SOL     OW87369   3.426   8.989   9.981  0.0098  0.0103  0.9928
60085SOL    HW187370   3.449   8.986   9.888 -0.2720 -0.5875  0.9368
60085SOL    HW287371   3.441   9.080  10.007  0.9927 -0.0237  0.5925
60086SOL     OW87372   6.389  10.065   5.013  0.2064 -0.3226  0.2539
60086SOL    HW187373   6.406   9.995   5.076 -0.2626 -1.7065 -1.0664
60086SOL    HW287374   6.328  10.025   4.950  0.7332  0.9427 -1.1154
60087SOL     OW87375  11.840   8.178   7.753  0.1405  0.5638 -0.1981
60087SOL    HW187376  11.853   8.272   7.741  0.2089  0.6279  0.3729
60087SOL    HW287377  11.745   8.168   7.759  0.1129  0.5518 -0.5830
60088SOL     OW87378   8.137  12.525   2.164  0.0112  0.0709 -0.3110
60088SOL    HW187379   8.213  12.583   2.166  1.0575 -1.2537 -0.1948
60088SOL    HW287380   8.074  12.571   2.109 -0.0038  2.2344  1.3716
60089SOL     OW87381   8.237   0.247   8.856 -0.3480 -0.2536  0.0536
60089SOL    HW187382   8.193   0.331   8.864 -2.4758 -1.3960  1.2728
60089SOL    HW287383   8.330   0.268   8.859 -0.8005  2.0755 -0.2707
60090SOL     OW87384   9.386   9.877  11.668 -0.2190  0.4002  0.3609
60090SOL    HW187385   9.375   9.971  11.654 -1.7908  0.2678  0.5419
60090SOL    HW287386   9.481   9.863  11.665 -0.0381  1.7364 -1.1986
60091SOL     OW87387   6.091  10.348   7.718  0.2077 -0.2188 -0.0020
60091SOL    HW187388   6.140  10.273   7.753  1.0153  0.3095  0.0144
60091SOL    HW287389   6.072  10.323   7.628  0.1871 -0.5782  0.0976
60092SOL     OW87390   4.412   8.332   0.328 -0.0116  0.2921  0.0766
60092SOL    HW187391   4.399   8.406   0.268  2.7143  1.0582  0.2963
60092SOL    HW287392   4.406   8.255   0.272 -0.0017  0.8646 -0.7373
60093SOL     OW87393  11.602   4.623  11.231  0.0288  0.0589  0.0950
60093SOL    HW187394  11.692   4.645  11.206  0.9231 -1.7747  1.5164
60093SOL    HW287395  11.566   4.706  11.263  0.9028  1.0112 -1.2618
60094SOL     OW87396   0.932  11.967   3.839 -0.1200  0.1811 -0.0830
60094SOL    HW187397   0.930  11.942   3.931  0.3601 -0.1047 -0.1495
60094SOL    HW287398   0.915  11.886   3.792 -0.0791  0.2731 -0.2559
60095SOL     OW87399   8.477   1.261   7.542 -0.8725  0.2919 -0.4991
60095SOL    HW187400   8.512   1.225   7.461 -2.1725 -1.2970 -0.4129
60095SOL    HW287401   8.399   1.309   7.516 -0.0015  1.7892 -0.4295
60096SOL     OW87402   9.073   0.305   0.759  0.3257  0.3229 -0.3185
60096SOL    HW187403   9.138   0.360   0.803  0.4582 -0.1220  0.0449
60096SOL    HW287404   9.014   0.276   0.829  1.0932 -1.1643 -0.2643
60097SOL     OW87405  12.761   3.755   2.716 -0.2828 -0.5443  0.4908
60097SOL    HW187406  12.776   3.699   2.792 -0.6994 -2.3423 -0.6790
60097SOL    HW287407  12.813   3.714   2.646  1.2871  1.8842  0.1135
60098SOL     OW87408  12.908   5.086  10.241  0.2578  0.3989  0.1903
60098SOL    HW187409  12.971   5.040  10.296  0.2219  0.6753  0.4696
60098SOL    HW287410  12.956   5.161  10.206  0.3224  0.1408 -0.2803
60099SOL     OW87411  12.741   2.482   1.499 -0.2638  0.8027 -0.1155
60099SOL    HW187412  12.808   2.417   1.476 -0.9882  0.6172 -1.8463
60099SOL    HW287413  12.764   2.509   1.587  1.6812  0.2235 -0.3933
60100SOL     OW87414   9.264   4.609   8.991  0.0838  0.2987  0.4091
60100SOL    HW187415   9.346   4.646   8.957  1.0451 -1.3142  0.8725
60100SOL    HW287416   9.292   4.547   9.058 -1.5057 -0.7363  0.1642
60101SOL     OW87417   3.593  10.696  12.674 -0.4267  0.0441 -0.1501
60101SOL    HW187418   3.577  10.650  12.591  0.3600 -0.5565  0.0282
60101SOL    HW287419   3.583  10.789  12.652 -3.3346 -0.1796 -0.2530
60102SOL     OW87420   3.618   9.061   0.465  0.4732 -0.2590  0.5812
60102SOL    HW187421   3.590   9.018   0.384  2.1180 -0.0644 -0.1256
60102SOL    HW287422   3.564   9.022   0.533 -0.5318 -0.8597 -0.5250
60103SOL     OW87423   0.196   8.002   2.690  0.2601  0.4714 -0.4899
60103SOL    HW187424   0.203   7.921   2.739  0.4818  1.0930  0.5245
60103SOL    HW287425   0.101   8.019   2.687  0.0212 -0.8311 -2.4418
60104SOL     OW87426   9.181  11.839   6.329  0.3989 -0.1333 -0.5525
60104SOL    HW187427   9.213  11.856   6.241  2.3359  1.9508  0.4502
60104SOL    HW287428   9.219  11.754   6.352 -0.4580 -0.8987 -1.7964
60105SOL     OW87429  11.359   4.736   7.779 -0.0925  0.2539 -0.2664
60105SOL    HW187430  11.341   4.673   7.710 -0.6036  1.4193 -1.2315
60105SOL    HW287431  11.437   4.701   7.823 -0.5572 -1.2027 -0.5428
60106SOL     OW87432   0.269   8.345   6.196 -0.0739 -0.5252  0.0691
60106SOL    HW187433   0.198   8.401   6.164  0.3948  0.1450  0.1761
60106SOL    HW287434   0.258   8.343   6.290 -0.8717 -1.6995 -0.0352
60107SOL     OW87435  11.485   4.419  12.365 -0.2386 -0.4590 -0.2145
60107SOL    HW187436  11.572   4.383  12.383 -0.5130 -0.7423  0.5839
60107SOL    HW287437  11.495   4.464  12.281  0.2808 -1.8293 -0.9222
60108SOL     OW87438   5.906   4.936   5.173 -0.0032 -0.5338 -0.2419
60108SOL    HW187439   5.858   4.915   5.094 -2.3701  2.2106  0.2984
60108SOL    HW287440   5.882   4.867   5.235 -0.7649 -0.9118 -0.9378
60109SOL     OW87441  11.298   8.281   7.783 -0.1090  0.8612 -0.6367
60109SOL    HW187442  11.274   8.373   7.786 -0.8002  0.6798 -0.3401
60109SOL    HW287443  11.215   8.234   7.791  0.3203  0.2119  0.3099
60110SOL     OW87444   1.054   3.733   4.163 -0.2996  0.6133 -0.4292
60110SOL    HW187445   0.993   3.801   4.133 -1.4383  0.1748  0.8119
60110SOL    HW287446   1.003   3.680   4.224  1.5601  0.7647  1.3795
60111SOL     OW87447   7.233   6.385   4.476 -0.0689 -0.3003 -0.0052
60111SOL    HW187448   7.198   6.363   4.562 -1.6317  1.3843 -0.1443
60111SOL    HW287449   7.315   6.430   4.493 -0.1633 -0.3520  0.5870
60112SOL     OW87450  10.425   3.929  12.549 -0.9415  0.3220 -0.3753
60112SOL    HW187451  10.502   3.954  12.600 -0.9913  0.2992 -0.2899
60112SOL    HW287452  10.371   3.877  12.609 -0.8253 -0.0196 -0.5594
60113SOL     OW87453   1.018   5.727   9.014  0.0763 -0.1478  0.5173
60113SOL    HW187454   0.970   5.807   9.035  1.3777  0.1449  2.6857
60113SOL    HW287455   1.101   5.758   8.978 -0.4685 -0.6050 -1.1928
60114SOL     OW87456   7.105   3.327  12.758  0.4441  0.2150  0.0114
60114SOL    HW187457   7.149   3.333  12.842  1.0790 -0.2672 -0.2708
60114SOL    HW287458   7.017   3.361  12.773  0.1028 -1.1122  1.2040
60115SOL     OW87459   3.973  10.918  10.648  0.1195  0.4079  0.0696
60115SOL    HW187460   4.050  10.908  10.592  0.1352 -0.1138  0.1810
60115SOL    HW287461   4.005  10.963  10.726 -0.0922  2.0599 -0.7481
60116SOL     OW87462  11.795   1.495   1.734  0.3265 -0.2101 -0.0933
60116SOL    HW187463  11.876   1.547   1.741 -1.0044  1.7862  2.0514
60116SOL    HW287464  11.729   1.557   1.703 -1.0657 -0.8994  1.3471
60117SOL     OW87465   8.457   4.303  12.157  0.6285  0.2075 -0.0525
60117SOL    HW187466   8.406   4.367  12.107  0.9338 -0.2248 -0.9416
60117SOL    HW287467   8.450   4.222  12.105  1.4692 -0.0867  0.2855
60118SOL     OW87468   0.968   0.346  10.934 -0.3500 -0.7933  0.2809
60118SOL    HW187469   1.045   0.384  10.976 -0.7037 -0.8035  0.9505
60118SOL    HW287470   0.893   0.384  10.981 -0.7209 -1.9347  0.6488
60119SOL     OW87471   7.231   6.568   1.696 -0.2959 -0.3803  0.0697
60119SOL    HW187472   7.229   6.587   1.602  0.4135 -0.3960  0.0451
60119SOL    HW287473   7.296   6.629   1.731  1.1436 -1.9050  0.1791
60120SOL     OW87474   4.440   2.065   1.222 -0.1081 -0.8239 -0.4377
60120SOL    HW187475   4.370   2.080   1.285  0.3176 -2.0040  0.3539
60120SOL    HW287476   4.420   1.980   1.183  0.0980 -0.4990 -1.2890
60121SOL     OW87477   3.356   3.267   1.152 -0.5834  0.6934 -0.1964
60121SOL    HW187478   3.348   3.268   1.057 -0.7487  0.1608 -0.1895
60121SOL    HW287479   3.444   3.302   1.169 -0.4033  0.4119 -0.5594
60122SOL     OW87480   8.949   4.210   1.770 -0.2217 -0.2780 -0.0314
60122SOL    HW187481   8.956   4.213   1.675 -0.8865  0.5634 -0.0723
60122SOL    HW287482   8.855   4.198   1.786 -0.1612 -0.0394  0.5124
60123SOL     OW87483   9.256  10.410   3.653 -0.3610 -0.1351  0.1748
60123SOL    HW187484   9.288  10.335   3.604 -1.5086 -0.4000 -0.2125
60123SOL    HW287485   9.333  10.446   3.698 -0.0477 -2.5314  1.7138
60124SOL     OW87486   5.292   0.305   0.765  0.2768  0.1229  0.8574
60124SOL    HW187487   5.347   0.325   0.690  0.3186 -0.5323  0.7080
60124SOL    HW287488   5.240   0.384   0.779 -1.3773 -0.5222 -1.2719
60125SOL     OW87489   2.333   4.374   8.617 -0.0673 -0.3087  0.1655
60125SOL    HW187490   2.323   4.303   8.553 -0.2394 -0.2982  0.1807
60125SOL    HW287491   2.252   4.423   8.611  0.6944  0.8637 -1.0260
60126SOL     OW87492   3.704   7.747   0.068  0.1466  0.4324  0.5547
60126SOL    HW187493   3.681   7.839   0.069  2.6399  1.1456 -0.1799
60126SOL    HW287494   3.695   7.718   0.159 -1.7887  1.0329  0.5907
60127SOL     OW87495   8.610   8.348  10.408 -0.1655  0.1303  0.8879
60127SOL    HW187496   8.589   8.267  10.456 -0.5131 -0.4520 -0.2065
60127SOL    HW287497   8.533   8.363  10.352  0.6754  0.1804 -0.2827
60128SOL     OW87498   0.474   4.883  11.054  0.1714 -0.1731  0.0215
60128SOL    HW187499   0.472   4.932  11.136 -0.9068  1.0810 -0.7154
60128SOL    HW287500   0.543   4.924  11.003  0.6353 -0.7543  0.1702
60129SOL     OW87501   3.884   2.476  11.249  0.1936 -0.0624  0.2664
60129SOL    HW187502   3.960   2.533  11.239  0.1458 -0.0257  0.1243
60129SOL    HW287503   3.840   2.509  11.328  0.4884 -0.2686  0.5184
60130SOL     OW87504  11.215   8.898   6.057 -0.4352  0.0832  0.7361
60130SOL    HW187505  11.191   8.970   5.999 -0.6921  0.5983  1.4636
60130SOL    HW287506  11.307   8.879   6.036 -0.6942 -0.1313 -0.2326
60131SOL     OW87507   5.329  10.397  11.156 -0.4023 -0.1635 -0.6761
60131SOL    HW187508   5.362  10.401  11.066 -0.6082 -1.8685 -0.8622
60131SOL    HW287509   5.246  10.445  11.153 -0.2039  0.1566 -1.2872
60132SOL     OW87510   9.561   3.452   1.776  0.2959  0.0286  0.4090
60132SOL    HW187511   9.649   3.481   1.752 -0.7198  3.3777  0.1971
60132SOL    HW287512   9.530   3.518   1.838 -2.0360 -1.1296  0.5850
60133SOL     OW87513   6.546  10.331  10.099 -0.1068  0.1078 -0.5197
60133SOL    HW187514   6.496  10.413  10.094 -0.3115  0.1493  1.3738
60133SOL    HW287515   6.577  10.328  10.190  1.7607 -0.8531 -1.1432
60134SOL     OW87516  10.090   7.307   6.951 -0.6598  0.1760  0.2629
60134SOL    HW187517  10.100   7.364   6.875 -1.0519  0.5933  0.5189
60134SOL    HW287518  10.051   7.227   6.916 -1.9442  0.8152  0.1935
60135SOL     OW87519   7.875   7.598   2.493 -0.3949  0.0061 -0.1605
60135SOL    HW187520   7.970   7.588   2.479 -0.4795 -4.9552  0.8805
60135SOL    HW287521   7.836   7.577   2.409 -0.6268  1.1171 -0.3414
60136SOL     OW87522   4.187   5.257   9.761 -0.1202 -0.5220 -0.0092
60136SOL    HW187523   4.235   5.201   9.822 -0.9004  0.1371  1.2569
60136SOL    HW287524   4.251   5.279   9.693  0.8926 -0.9733  0.7666
60137SOL     OW87525   4.986   0.056   9.016  0.5934 -0.5753 -0.1677
60137SOL    HW187526   5.016   0.116   8.947  0.3210  0.5279  0.6352
60137SOL    HW287527   4.902   0.023   8.983  0.9101 -0.7972 -0.7738
60138SOL     OW87528  12.783   8.011   6.165 -0.0658 -0.4453 -0.0424
60138SOL    HW187529  12.766   8.005   6.259  2.1088 -2.2270  0.3276
60138SOL    HW287530  12.813   7.924   6.140 -0.2713  0.0710 -2.3403
60139SOL     OW87531  10.103   3.586  10.575  0.4336  0.1432 -0.1811
60139SOL    HW187532  10.020   3.542  10.560  0.7527 -0.0253 -1.6046
60139SOL    HW287533  10.169   3.528  10.536  1.3763 -0.2878  1.9289
60140SOL     OW87534  10.767   6.199   3.771 -0.4065 -0.2345  0.3616
60140SOL    HW187535  10.808   6.115   3.792 -0.2782 -0.0942  0.6754
60140SOL    HW287536  10.760   6.199   3.675 -4.0168 -2.3592  0.4340
60141SOL     OW87537   5.667   1.937   0.035  0.8036  0.3610 -0.3252
60141SOL    HW187538   5.648   1.855  -0.012 -0.0261  0.0742  0.4718
60141SOL    HW287539   5.762   1.938   0.042  0.7779 -1.4613  1.1945
60142SOL     OW87540  12.107  12.435   1.320  0.0750  0.6894 -0.2913
60142SOL    HW187541  12.145  12.488   1.251 -0.5166  1.0396 -0.3525
60142SOL    HW287542  12.069  12.498   1.381 -2.9834  0.3776 -1.6698
60143SOL     OW87543  11.138   7.857  12.526  0.3529  0.0086  0.0709
60143SOL    HW187544  11.198   7.922  12.489 -0.4017  0.7754  0.1648
60143SOL    HW287545  11.063   7.857  12.466 -0.3733  0.4173  0.9607
60144SOL     OW87546   3.088   0.434  12.423 -0.0628  0.5740  0.0640
60144SOL    HW187547   3.128   0.521  12.420 -2.6264  1.8853  0.8269
60144SOL    HW287548   3.137   0.388  12.492  0.9560  1.6171  0.0673
60145SOL     OW87549   4.443   9.803  10.787  0.3891  0.0508 -0.1526
60145SOL    HW187550   4.395   9.727  10.819  0.0081  0.4405  0.2114
60145SOL    HW287551   4.485   9.772  10.706  0.4651 -0.6203  0.1373
60146SOL     OW87552   2.854   0.535   7.286 -0.1780  0.2012  0.9954
60146SOL    HW187553   2.853   0.477   7.363 -0.6881 -0.0851  0.7809
60146SOL    HW287554   2.803   0.611   7.313 -2.1158 -0.7814  0.2973
60147SOL     OW87555   1.268   0.470   8.687  0.1500  0.4426 -0.1714
60147SOL    HW187556   1.343   0.493   8.742 -0.1062 -0.2068  0.4708
60147SOL    HW287557   1.242   0.552   8.646 -0.0315  1.0940  1.1654
60148SOL     OW87558  11.364   4.308  12.606 -0.4899  0.2336 -0.2544
60148SOL    HW187559  11.398   4.337  12.522 -0.6248 -0.7196 -0.6539
60148SOL    HW287560  11.379   4.213  12.607 -1.1493  0.1205  0.4850
60149SOL     OW87561  11.318   6.856   5.445  0.3399 -0.1904  1.0648
60149SOL    HW187562  11.391   6.909   5.414  0.2785  0.2777  1.6860
60149SOL    HW287563  11.331   6.770   5.405 -0.5252  0.7385 -1.4396
60150SOL     OW87564  10.347  10.770   7.202  0.2510  0.1391  0.2687
60150SOL    HW187565  10.332  10.843   7.141 -0.2387 -0.0501  0.1623
60150SOL    HW287566  10.428  10.729   7.171  0.4686  0.5668  0.2619
60151SOL     OW87567  12.927   7.691   3.030 -0.6010  0.0492 -0.3626
60151SOL    HW187568  13.000   7.634   3.004  0.2269 -0.3168  2.4858
60151SOL    HW287569  12.852   7.633   3.035 -0.6523  0.0186 -1.2356
60152SOL     OW87570   8.495   3.794   3.611 -0.3660 -0.0440 -0.0961
60152SOL    HW187571   8.475   3.703   3.632 -3.8374  0.3354 -1.0819
60152SOL    HW287572   8.505   3.836   3.697  0.7941 -1.2129  0.3739
60153SOL     OW87573  11.169   2.370  11.693 -0.2075  0.3477  0.6300
60153SOL    HW187574  11.108   2.408  11.756  0.9702  0.4605  1.7463
60153SOL    HW287575  11.113   2.332  11.625 -1.4758  2.2956  0.5018
60154SOL     OW87576   5.540   1.820  10.199  0.4442 -0.2610 -0.4832
60154SOL    HW187577   5.548   1.914  10.216 -0.5842 -0.5270  1.8938
60154SOL    HW287578   5.504   1.815  10.111  0.4609  1.5647 -0.6439
60155SOL     OW87579   1.890  10.498   4.606 -0.2220  0.4805  0.8098
60155SOL    HW187580   1.926  10.494   4.517 -0.6902 -0.7833  0.6571
60155SOL    HW287581   1.959  10.537   4.658 -0.5238  2.7994 -0.3873
60156SOL     OW87582   6.329  12.221  11.678  0.8211 -0.4981  0.6169
60156SOL    HW187583   6.366  12.134  11.661  1.3817  0.1370 -1.8678
60156SOL    HW287584   6.383  12.280  11.625 -1.8827  0.8514 -0.8439
60157SOL     OW87585  10.553  11.052   8.676 -0.1449  0.2950  0.3189
60157SOL    HW187586  10.512  11.096   8.751  0.7065 -0.6658  1.3889
60157SOL    HW287587  10.635  11.099   8.663 -1.3781  2.1099 -1.7150
60158SOL     OW87588   2.579   7.826   9.725  0.2672 -0.2857  0.2526
60158SOL    HW187589   2.559   7.741   9.765  1.1059  0.2191  1.8567
60158SOL    HW287590   2.519   7.833   9.651  0.6719 -2.5812 -0.3577
60159SOL     OW87591   3.408   8.278   8.288  0.3688 -0.6026  0.1421
60159SOL    HW187592   3.384   8.282   8.381  0.1009 -0.0202  0.0496
60159SOL    HW287593   3.423   8.369   8.263 -1.3399 -0.5440 -0.8494
60160SOL     OW87594   3.616  12.318   3.618  0.0734  0.6357  0.3881
60160SOL    HW187595   3.704  12.356   3.614  1.1594 -1.6281  1.3034
60160SOL    HW287596   3.617  12.247   3.554 -1.0476  0.4557  0.5419
60161SOL     OW87597   9.701   2.535  12.629 -0.0954  0.0411  0.8318
60161SOL    HW187598   9.634   2.599  12.608  0.7726  0.2754 -1.4347
60161SOL    HW287599   9.778   2.587  12.652 -0.0516 -0.2259  1.3225
60162SOL     OW87600   4.845   1.888   4.808  0.5906  0.3080 -0.1005
60162SOL    HW187601   4.809   1.940   4.881 -1.1153  0.3867 -0.9477
60162SOL    HW287602   4.871   1.806   4.848  0.9238  0.8436  0.8222
60163SOL     OW87603   1.820  10.711   7.895  0.2304 -0.3254  0.4541
60163SOL    HW187604   1.734  10.684   7.926 -0.5935  0.4351 -1.0753
60163SOL    HW287605   1.847  10.779   7.956 -0.4703 -0.2263  0.6652
60164SOL     OW87606   9.657   4.237   9.731 -0.1844 -0.4099  0.2890
60164SOL    HW187607   9.649   4.169   9.664 -0.0776  0.4685 -0.6460
60164SOL    HW287608   9.705   4.307   9.687 -1.1478  0.6676  0.9144
60165SOL     OW87609   1.051   4.519   0.009  0.1463  0.1961  0.5387
60165SOL    HW187610   1.046   4.578   0.085 -0.0475 -1.5070  1.9235
60165SOL    HW287611   0.998   4.561  -0.058  0.2043  1.6945  1.3815
60166SOL     OW87612   5.414   2.145   7.765  0.0337 -0.0068 -0.0868
60166SOL    HW187613   5.400   2.098   7.847 -0.3678  0.7522  0.2890
60166SOL    HW287614   5.509   2.147   7.754  0.0502 -1.1859 -0.2834
60167SOL     OW87615   5.200   8.559   5.479  0.0449 -0.4346 -0.5726
60167SOL    HW187616   5.273   8.620   5.467  0.1726 -0.7368 -1.3953
60167SOL    HW287617   5.239   8.472   5.470  0.6313 -0.9631  4.2495
60168SOL     OW87618  10.548   5.401   1.498 -0.6162 -0.0553 -0.4478
60168SOL    HW187619  10.496   5.350   1.560  0.5349 -2.0356 -1.0158
60168SOL    HW287620  10.502   5.391   1.415  0.0794 -0.9638 -0.7422
60169SOL     OW87621   7.444   6.505  11.407  0.0468 -0.2790 -0.2782
60169SOL    HW187622   7.359   6.517  11.448  0.3571  3.4732 -0.3827
60169SOL    HW287623   7.424   6.492  11.314 -0.4263 -1.8302  0.0146
60170SOL     OW87624   3.500   1.612   0.886  0.1753  0.0571 -0.3476
60170SOL    HW187625   3.471   1.563   0.810 -3.8312  0.0790  0.9570
60170SOL    HW287626   3.519   1.699   0.853  1.1548 -0.6123 -1.6640
60171SOL     OW87627   0.898  12.937   7.904 -0.2102  0.1051 -0.1402
60171SOL    HW187628   0.887  13.023   7.864  0.1035 -0.1598 -0.8105
60171SOL    HW287629   0.819  12.924   7.956 -0.6560  0.4263 -0.7283
60172SOL     OW87630   0.761   5.824  12.861  0.1334 -0.2630 -0.1184
60172SOL    HW187631   0.851   5.841  12.890  0.1281 -0.0113 -0.2504
60172SOL    HW287632   0.768   5.818  12.765 -0.0714  0.2457 -0.1672
60173SOL     OW87633   5.780   0.774   5.433  0.0396  0.3974 -0.1416
60173SOL    HW187634   5.790   0.733   5.519  0.0917  0.9253  0.1062
60173SOL    HW287635   5.694   0.745   5.403  0.8373 -1.4610 -0.8279
60174SOL     OW87636  10.379   4.390   5.779  0.3798  0.2527 -0.0082
60174SOL    HW187637  10.392   4.295   5.771  0.8812  0.3885 -0.8600
60174SOL    HW287638  10.373   4.421   5.688 -2.1193  0.7225  0.2409
60175SOL     OW87639   5.344   4.462   1.682 -0.4145  0.0451  0.2344
60175SOL    HW187640   5.371   4.487   1.593 -0.7022  0.0229  0.1385
60175SOL    HW287641   5.414   4.494   1.738  0.6814 -1.5422 -0.1660
60176SOL     OW87642   7.069   9.677  10.765  0.5661  0.0279 -0.2373
60176SOL    HW187643   7.015   9.754  10.751  0.9013  0.1413 -0.9461
60176SOL    HW287644   7.095   9.683  10.857 -1.9128 -0.8950  0.6044
60177SOL     OW87645   9.653   3.416   2.327  0.0375  0.1068 -0.4590
60177SOL    HW187646   9.607   3.400   2.409  1.6104 -0.8916  0.2813
60177SOL    HW287647   9.661   3.330   2.286  0.7098  0.3409 -0.8421
60178SOL     OW87648   0.395   2.183   5.011 -0.0347 -0.4841  0.2526
60178SOL    HW187649   0.474   2.221   4.974  1.2158 -1.3110  1.9018
60178SOL    HW287650   0.382   2.102   4.962 -0.7150  0.3486 -0.9750
60179SOL     OW87651   1.230  11.737   7.021 -0.2115  0.6112  0.2753
60179SOL    HW187652   1.176  11.735   6.941  1.2122 -1.2709 -0.7236
60179SOL    HW287653   1.169  11.718   7.092 -0.8398 -2.2068 -0.8895
60180SOL     OW87654   3.458   2.421   6.202 -0.1144 -0.5080  0.0614
60180SOL    HW187655   3.471   2.508   6.240  1.5313 -2.9715  6.3407
60180SOL    HW287656   3.372   2.393   6.233  0.0453 -1.7164 -0.5195
60181SOL     OW87657   9.821   6.390   9.756 -0.0001  0.3983  0.0832
60181SOL    HW187658   9.883   6.320   9.735  0.8701  1.1257  0.1601
60181SOL    HW287659   9.842   6.460   9.694 -0.9352  0.5653 -0.0701
60182SOL     OW87660   2.975   1.653   6.089 -0.3010  0.2040 -0.1190
60182SOL    HW187661   2.998   1.740   6.124 -0.1431 -0.0487  0.4156
60182SOL    HW287662   2.928   1.610   6.160 -0.7351 -0.0050 -0.5270
60183SOL     OW87663   9.061   3.227   7.556  0.1835 -0.5133  0.2822
60183SOL    HW187664   9.149   3.263   7.563  0.9777 -1.6986 -2.4803
60183SOL    HW287665   9.070   3.134   7.577 -0.4026 -0.6722 -0.1342
60184SOL     OW87666  11.722  10.313  12.140  0.2242 -0.1341 -0.1102
60184SOL    HW187667  11.778  10.250  12.187  0.7499 -0.8597 -1.6623
60184SOL    HW287668  11.663  10.259  12.088 -0.3239  0.6684 -0.3455
60185SOL     OW87669  10.779   3.350  10.636 -0.3336  0.4038  0.1554
60185SOL    HW187670  10.799   3.361  10.543 -1.2475  1.9116  0.1014
60185SOL    HW287671  10.817   3.266  10.659 -0.1512 -0.0333 -1.6055
60186SOL     OW87672   5.024   5.588   6.187  0.5225 -0.0154  0.2844
60186SOL    HW187673   5.051   5.636   6.109  1.6972 -1.3294 -0.1462
60186SOL    HW287674   4.976   5.652   6.239  0.0631  0.9975 -1.3175
60187SOL     OW87675  12.010   7.138   9.778 -0.3277  0.0694 -0.1433
60187SOL    HW187676  11.959   7.057   9.780 -0.6443  0.2273 -1.2202
60187SOL    HW287677  11.945   7.207   9.763  0.0445  0.4296 -0.1172
60188SOL     OW87678   0.385  12.625   0.446  0.1978 -0.6430 -0.0796
60188SOL    HW187679   0.338  12.578   0.376  0.1430  0.7552 -1.0224
60188SOL    HW287680   0.475  12.630   0.415  0.1522  0.0716 -0.1076
60189SOL     OW87681  11.121   8.367   3.780 -0.3179 -0.3622 -0.4894
60189SOL    HW187682  11.086   8.325   3.701 -0.8265 -0.9871  0.0598
60189SOL    HW287683  11.214   8.348   3.778 -0.1510  0.4808 -1.4571
60190SOL     OW87684   9.854   0.653   1.865 -0.2661 -0.6676  0.1450
60190SOL    HW187685   9.839   0.558   1.866 -0.4327 -0.6522 -0.6617
60190SOL    HW287686   9.767   0.691   1.879 -0.4337 -0.6217 -0.9713
60191SOL     OW87687   9.489   0.844   2.563  0.7708  0.1199 -0.3528
60191SOL    HW187688   9.507   0.844   2.657 -1.4386  2.9808  0.2242
60191SOL    HW287689   9.504   0.935   2.536 -2.2234  0.2961 -1.8703
60192SOL     OW87690   3.550   2.772   9.690  0.2762  0.6413 -0.1567
60192SOL    HW187691   3.614   2.752   9.758 -0.0449  1.6428  0.4637
60192SOL    HW287692   3.590   2.740   9.609  1.3482  0.8425  0.2816
60193SOL     OW87693  11.262   1.379   8.845  0.1365 -0.1138 -0.1888
60193SOL    HW187694  11.197   1.433   8.889 -0.0532  0.3419 -1.0049
60193SOL    HW287695  11.325   1.355   8.913  0.8685  2.0833 -0.0390
60194SOL     OW87696   1.553   2.234   2.127 -0.5867 -0.0007 -0.5856
60194SOL    HW187697   1.634   2.257   2.082 -0.7248  1.5889 -0.1163
60194SOL    HW287698   1.520   2.318   2.160 -1.9753 -0.7320 -0.0296
60195SOL     OW87699   0.884  12.224   2.035 -0.0376 -0.1371 -0.2898
60195SOL    HW187700   0.845  12.138   2.055 -0.0046 -0.2890 -0.8674
60195SOL    HW287701   0.976  12.205   2.019  0.3073  0.2372  1.1585
60196SOL     OW87702   8.614  11.821  12.929  0.6730  0.2185 -0.6651
60196SOL    HW187703   8.583  11.824  12.839 -0.4665 -3.6557 -0.6002
60196SOL    HW287704   8.534  11.817  12.982  1.3201  0.4592  0.3566
60197SOL     OW87705   5.012  12.781   7.597 -0.3026  0.4850 -0.0669
60197SOL    HW187706   5.017  12.858   7.540  0.7094  0.8835  0.5395
60197SOL    HW287707   5.097  12.739   7.590 -0.5028 -0.0181  0.3974
60198SOL     OW87708   2.756   5.883   9.697 -0.2805  0.0026 -0.4318
60198SOL    HW187709   2.787   5.871   9.608  2.7389  0.5543  0.4400
60198SOL    HW287710   2.811   5.953   9.732  0.7139 -2.1912  2.7806
60199SOL     OW87711   8.886   6.381   8.161 -0.2614 -0.0515 -0.1706
60199SOL    HW187712   8.974   6.419   8.165 -0.3151  0.0889  3.4009
60199SOL    HW287713   8.844   6.410   8.242 -3.1529 -1.2423 -1.1076
60200SOL     OW87714   9.011   5.994  12.931 -0.1418 -0.0643 -0.0679
60200SOL    HW187715   8.987   6.078  12.972  2.8309  0.4851  0.7620
60200SOL    HW287716   8.962   5.993  12.849 -0.2254  2.5276 -0.1307
60201SOL     OW87717  10.496   8.677   7.523  0.0710  0.1390  0.1411
60201SOL    HW187718  10.563   8.619   7.561  0.0734 -0.8049 -1.2289
60201SOL    HW287719  10.424   8.619   7.500 -0.6898  0.9622  0.3795
60202SOL     OW87720   9.857   4.533   5.950  0.2193  0.2162 -0.0632
60202SOL    HW187721   9.807   4.452   5.956  0.8746 -0.2231 -0.3859
60202SOL    HW287722   9.825   4.575   5.870  0.4047 -0.0984 -0.3070
60203SOL     OW87723   5.308   4.170   3.225  0.7372 -0.1465 -0.1703
60203SOL    HW187724   5.363   4.164   3.303 -1.0806  0.3234  1.2239
60203SOL    HW287725   5.228   4.123   3.248  0.9753 -1.9424 -2.6054
60204SOL     OW87726   9.608  10.570  11.279 -0.5402 -0.0465 -0.2416
60204SOL    HW187727   9.622  10.662  11.303 -0.4162 -0.8276  3.1900
60204SOL    HW287728   9.517  10.566  11.252 -0.7004  0.9870  0.0971
60205SOL     OW87729   8.505   5.278  12.709 -0.2239  0.3385 -0.3617
60205SOL    HW187730   8.466   5.356  12.669 -2.4332 -0.8457 -0.7306
60205SOL    HW287731   8.551   5.235  12.637 -0.6273  0.3636 -0.6416
60206SOL     OW87732   1.486   5.501   4.888  0.0502  0.3571  0.0674
60206SOL    HW187733   1.510   5.536   4.973  0.5619  2.2288 -0.7934
60206SOL    HW287734   1.390   5.503   4.887  0.0022 -0.6553  0.9497
60207SOL     OW87735   1.191   6.060  11.837  0.4478 -0.3391 -0.0682
60207SOL    HW187736   1.124   6.015  11.887  0.7330  1.3342  1.9308
60207SOL    HW287737   1.218   5.996  11.771 -1.1638 -2.0114  0.8013
60208SOL     OW87738   2.424   8.020   2.888 -0.5074  0.1601  0.2937
60208SOL    HW187739   2.394   8.099   2.933  1.6716  0.9594  0.4932
60208SOL    HW287740   2.435   7.955   2.958 -1.1854  0.0528  0.3006
60209SOL     OW87741   8.912   2.338   2.423  0.1588  0.0749 -0.3035
60209SOL    HW187742   8.935   2.261   2.371  0.4875  0.6177 -0.9840
60209SOL    HW287743   8.900   2.408   2.358 -1.0452  0.3888  0.2275
60210SOL     OW87744   8.293   2.196  11.241 -0.2892  0.4235 -0.1886
60210SOL    HW187745   8.221   2.259  11.250 -0.4474  0.1305  0.7328
60210SOL    HW287746   8.372   2.249  11.245 -0.3360  0.4346  2.7875
60211SOL     OW87747  10.107   7.971   9.757  0.0023 -0.2859 -0.2111
60211SOL    HW187748  10.040   7.908   9.784  0.0008 -0.4285 -0.5461
60211SOL    HW287749  10.057   8.051   9.738  0.0525 -0.0410  0.6533
60212SOL     OW87750   7.061   4.001   0.127 -0.0919  0.2808 -0.1259
60212SOL    HW187751   7.023   3.923   0.088 -0.2364  1.6278 -2.9217
60212SOL    HW287752   6.992   4.036   0.184 -0.6936 -0.6256 -0.2935
60213SOL     OW87753  12.287   2.374   6.545  0.0578  0.4011  0.6085
60213SOL    HW187754  12.365   2.410   6.589  0.0123  2.5160 -0.9184
60213SOL    HW287755  12.309   2.282   6.530  2.3032  0.9382  0.1986
60214SOL     OW87756   5.465   4.723   8.389  0.1017 -0.2268  0.0703
60214SOL    HW187757   5.460   4.635   8.351  0.3105 -0.0812 -0.3033
60214SOL    HW287758   5.392   4.771   8.349  0.3666 -0.0520 -0.2173
60215SOL     OW87759   0.589  10.028  10.514  0.4177 -0.2499 -0.0352
60215SOL    HW187760   0.526  10.013  10.445 -0.8176 -0.6090  1.1362
60215SOL    HW287761   0.554  10.102  10.564  1.0436 -0.2940  0.4967
60216SOL     OW87762   9.465   9.328  10.996  0.4822  0.4987  0.6041
60216SOL    HW187763   9.413   9.297  10.921  0.7380  0.0018  0.6242
60216SOL    HW287764   9.413   9.302  11.073  0.5001  0.4871  0.6122
60217SOL     OW87765  10.382   9.885   6.290 -0.0625  0.1961  0.0267
60217SOL    HW187766  10.288   9.900   6.285 -0.3139 -1.1387  0.2617
60217SOL    HW287767  10.419   9.968   6.318 -1.3254  0.3359  1.3823
60218SOL     OW87768   6.503   4.553   9.306 -0.0176 -0.1790  0.2328
60218SOL    HW187769   6.445   4.558   9.382  0.4964 -2.0588  0.8117
60218SOL    HW287770   6.585   4.518   9.341  1.3070  1.8218 -0.6777
60219SOL     OW87771   2.970   2.694   6.245 -0.3158 -0.2731  0.1656
60219SOL    HW187772   2.880   2.673   6.220 -0.0831 -0.9588 -0.1069
60219SOL    HW287773   3.023   2.667   6.171  0.2173 -0.7800  0.7225
60220SOL     OW87774   4.185   0.212   2.238  0.0934 -0.3250  0.0768
60220SOL    HW187775   4.248   0.151   2.200  0.8736  1.0693 -0.9405
60220SOL    HW287776   4.199   0.294   2.191 -1.2471  0.5254  1.0844
60221SOL     OW87777  11.691   1.762   0.926  0.2344  0.0471  0.7445
60221SOL    HW187778  11.722   1.709   0.853 -0.6878  1.3084 -0.5931
60221SOL    HW287779  11.596   1.764   0.917  0.0787  0.0533  2.1107
60222SOL     OW87780   3.398   4.023   2.362  0.1897  0.1673  0.6195
60222SOL    HW187781   3.415   3.957   2.430  1.6668  1.2749  1.3865
60222SOL    HW287782   3.433   4.104   2.399  0.1204  1.0038 -1.0717
60223SOL     OW87783   6.288   9.430   6.440  0.5296  0.0094  0.3051
60223SOL    HW187784   6.234   9.488   6.495  0.1988 -1.2256  1.3367
60223SOL    HW287785   6.261   9.342   6.465  0.8307 -0.6012 -1.4313
60224SOL     OW87786   7.863   3.677   9.506  0.3071  0.1788 -0.0933
60224SOL    HW187787   7.910   3.744   9.555 -1.3026 -0.9304  3.2319
60224SOL    HW287788   7.779   3.717   9.484 -0.5429 -0.5620  1.6466
60225SOL     OW87789   3.042   4.653   7.256 -0.3195  0.1075  0.0324
60225SOL    HW187790   3.112   4.711   7.227 -1.4244  1.5673  0.2149
60225SOL    HW287791   3.059   4.640   7.350 -0.0437  0.0623 -0.0213
60226SOL     OW87792   8.238   7.983   5.381 -0.1201  0.3936  0.5163
60226SOL    HW187793   8.260   7.914   5.443  0.1367 -0.0252 -0.0287
60226SOL    HW287794   8.155   8.019   5.412 -1.5698 -1.8429 -0.5703
60227SOL     OW87795   1.371   7.050   4.182 -0.5260  0.0065 -0.3337
60227SOL    HW187796   1.434   7.118   4.159  1.6043 -2.6265 -3.0896
60227SOL    HW287797   1.416   6.995   4.245 -1.1333 -0.4356 -0.2755
60228SOL     OW87798   3.839   0.812   8.325 -0.0820 -0.0493  0.1490
60228SOL    HW187799   3.873   0.891   8.369  1.1531 -0.3863 -0.1480
60228SOL    HW287800   3.805   0.844   8.242  2.3362 -0.0428 -0.9214
60229SOL     OW87801   0.359   7.926   3.513  0.0383  0.1359  0.1611
60229SOL    HW187802   0.358   7.983   3.590 -0.6430 -0.1887  0.3996
60229SOL    HW287803   0.319   7.979   3.444 -0.4198  0.0145  0.3330
60230SOL     OW87804   8.635  11.711   0.411  0.4092  0.1806  0.1395
60230SOL    HW187805   8.671  11.796   0.385  0.4331  0.2170  0.2895
60230SOL    HW287806   8.643  11.710   0.507  0.9108 -0.2134  0.1012
60231SOL     OW87807   9.408   5.852   7.707  0.6042 -0.2252 -0.3885
60231SOL    HW187808   9.337   5.896   7.660  0.1822  0.4920  0.8710
60231SOL    HW287809   9.366   5.783   7.757  0.6049  0.7988  1.1071
60232SOL     OW87810   2.146   0.736   7.880 -0.4047 -0.6129  0.1520
60232SOL    HW187811   2.162   0.829   7.866 -0.0188 -0.7309 -0.2021
60232SOL    HW287812   2.173   0.720   7.971  0.1107 -0.5117  0.0145
60233SOL     OW87813   8.245   6.285  10.460 -0.0443 -0.0399  0.0689
60233SOL    HW187814   8.192   6.217  10.418  1.3704 -1.7412  0.9305
60233SOL    HW287815   8.200   6.302  10.543  0.0783 -0.6101  0.2598
60234SOL     OW87816   9.009   1.277  10.728 -0.3864 -0.1722  0.6185
60234SOL    HW187817   9.089   1.279  10.677  0.8408 -0.3359  2.4598
60234SOL    HW287818   9.021   1.345  10.795 -0.4677 -2.1535  2.7590
60235SOL     OW87819  11.090  11.724  12.106  0.0543  0.0045  0.0668
60235SOL    HW187820  11.078  11.803  12.054 -0.8354 -0.5062 -0.5255
60235SOL    HW287821  11.130  11.755  12.187  1.9633  0.7509 -1.0928
60236SOL     OW87822   6.684   3.818   6.253 -0.3243  0.0201 -0.1432
60236SOL    HW187823   6.729   3.878   6.313  0.3715 -1.0338  0.4249
60236SOL    HW287824   6.730   3.829   6.170 -1.5050  1.7323 -0.6189
60237SOL     OW87825  12.769  10.389   0.828 -0.1023  0.4597  0.2663
60237SOL    HW187826  12.864  10.381   0.822 -0.3041 -1.0066 -1.8636
60237SOL    HW287827  12.747  10.347   0.912  0.9996 -0.6841  0.0119
60238SOL     OW87828  10.537  11.358   0.031  0.0385 -0.4269 -0.2723
60238SOL    HW187829  10.445  11.383   0.019  0.1922  0.8424  1.1014
60238SOL    HW287830  10.585  11.440   0.030  0.9146 -0.8967  1.1769
60239SOL     OW87831  11.302   0.447   6.352 -0.1105  0.1224  0.2939
60239SOL    HW187832  11.251   0.525   6.378 -0.3386  0.2206 -0.4239
60239SOL    HW287833  11.236   0.384   6.324  0.1805  0.7745 -2.0849
60240SOL     OW87834   1.601   9.723   1.696  0.1071  0.2371 -0.0173
60240SOL    HW187835   1.562   9.687   1.616 -1.0796 -1.4767  1.2657
60240SOL    HW287836   1.528   9.730   1.757  0.7995  2.5136  0.6345
60241SOL     OW87837   4.226   3.085   0.637 -0.1886  0.1522 -0.1408
60241SOL    HW187838   4.280   3.008   0.655 -0.8514 -0.2230  0.2654
60241SOL    HW287839   4.253   3.112   0.549 -0.4741 -0.9990 -0.6021
60242SOL     OW87840   5.743   8.311   3.765  0.1829 -0.4110 -0.1441
60242SOL    HW187841   5.793   8.310   3.847 -0.7427 -0.3207  0.4327
60242SOL    HW287842   5.665   8.259   3.783 -1.2686  1.6486 -0.1496
60243SOL     OW87843   6.458  11.980   8.212 -0.3907  0.0223 -0.0490
60243SOL    HW187844   6.548  11.950   8.199 -0.7992 -1.2134 -0.1668
60243SOL    HW287845   6.424  11.995   8.124 -0.2382  0.7493  0.0028
60244SOL     OW87846   8.988   8.188   6.402  0.3237  0.5179  0.2623
60244SOL    HW187847   9.020   8.113   6.452 -0.2818  0.8710  1.2172
60244SOL    HW287848   9.063   8.216   6.348  0.5802 -0.6874 -0.0200
60245SOL     OW87849   2.536   8.383  10.580 -0.0510 -0.5768 -0.1754
60245SOL    HW187850   2.468   8.330  10.539 -1.9009 -0.4198  2.4476
60245SOL    HW287851   2.505   8.398  10.669  2.5260  1.1875  0.5552
60246SOL     OW87852  11.572   5.477   0.056  0.0638 -0.2345  0.1788
60246SOL    HW187853  11.541   5.388   0.038 -0.1762  0.1682 -1.6545
60246SOL    HW287854  11.529   5.531  -0.010  1.3710  1.0179  0.2892
60247SOL     OW87855   9.922   8.272   2.722 -0.3207 -0.1303  0.7288
60247SOL    HW187856   9.891   8.298   2.808  1.4946 -0.9547  1.6744
60247SOL    HW287857   9.977   8.345   2.694 -0.6791  0.0094  0.3743
60248SOL     OW87858   9.343  10.428   4.046  0.1758 -0.3910 -0.1977
60248SOL    HW187859   9.292  10.349   4.029  2.0443 -1.2996 -1.8457
60248SOL    HW287860   9.357  10.427   4.141 -0.3902 -1.6612 -0.1094
60249SOL     OW87861   3.442   9.534  12.344  0.6072 -0.2649  0.3860
60249SOL    HW187862   3.504   9.485  12.399  0.6074 -0.3963  0.2701
60249SOL    HW287863   3.386   9.580  12.406 -0.3574 -1.5858  0.5391
60250SOL     OW87864   8.098  12.848   2.894 -0.0064  0.4078  0.4156
60250SOL    HW187865   8.068  12.820   2.980  0.2123 -0.2106  0.2994
60250SOL    HW287866   8.142  12.771   2.858 -0.4297  0.5349 -0.4032
60251SOL     OW87867  10.363   8.662   3.102 -0.4199 -0.0794 -0.1956
60251SOL    HW187868  10.279   8.616   3.103 -1.2674  1.3827  1.5491
60251SOL    HW287869  10.341   8.753   3.123  1.7100  0.0922  1.6569
60252SOL     OW87870   1.868   3.786   1.437 -0.2767 -0.7239  0.0366
60252SOL    HW187871   1.805   3.736   1.489  0.6037 -1.5901  0.2773
60252SOL    HW287872   1.864   3.746   1.350  0.1769 -0.9903  0.1383
60253SOL     OW87873   3.354   2.622  10.446  0.5553  0.0612 -0.1814
60253SOL    HW187874   3.422   2.573  10.492 -0.5530 -0.8513  0.5483
60253SOL    HW287875   3.371   2.606  10.353 -0.3713 -2.6141  0.0415
60254SOL     OW87876  12.323   1.333  12.276 -0.1097  0.3454  0.2809
60254SOL    HW187877  12.322   1.420  12.316 -0.1284 -0.6771  2.6459
60254SOL    HW287878  12.401   1.290  12.312 -0.2744 -0.7453 -0.5857
60255SOL     OW87879   6.310  11.640   8.390 -0.6153  0.3746  0.6921
60255SOL    HW187880   6.377  11.586   8.433 -1.6902 -1.1814  0.5154
60255SOL    HW287881   6.291  11.593   8.309 -0.6416  1.7721 -0.1399
60256SOL     OW87882  11.899   4.002  11.278 -0.0180 -0.0174  0.0744
60256SOL    HW187883  11.914   3.909  11.264 -1.5274 -0.3076  0.1595
60256SOL    HW287884  11.969   4.045  11.230  0.8744 -1.1948  0.2810
60257SOL     OW87885   3.317   3.373   7.535 -0.8030 -0.1473 -0.1525
60257SOL    HW187886   3.275   3.288   7.546 -1.4847  0.2883  0.7744
60257SOL    HW287887   3.290   3.423   7.611  1.3243  0.2155  0.4359
60258SOL     OW87888   4.910  10.649   8.131 -0.1499  0.2702 -0.1967
60258SOL    HW187889   4.885  10.584   8.197  0.3993 -1.1041 -1.2705
60258SOL    HW287890   4.902  10.733   8.175 -2.1572 -0.4222  0.8714
60259SOL     OW87891   1.162   8.010   5.235  0.3018 -0.4774  0.2772
60259SOL    HW187892   1.098   8.079   5.216  0.6522  0.2035  1.4490
60259SOL    HW287893   1.189   7.978   5.149 -1.5116 -0.7207 -0.2622
60260SOL     OW87894   5.760   6.658  10.273  0.8121 -0.0388 -0.2570
60260SOL    HW187895   5.838   6.603  10.266  1.6828  1.3606 -3.1229
60260SOL    HW287896   5.787   6.732  10.328  0.7912 -0.6111  0.5375
60261SOL     OW87897   3.749   6.024   8.669  0.0660  0.5356 -0.4503
60261SOL    HW187898   3.715   6.039   8.581 -1.2091 -0.2218 -0.1011
60261SOL    HW287899   3.801   5.944   8.661 -0.9393 -0.1486 -0.3064
60262SOL     OW87900   3.197   2.914   4.124  1.2440 -0.2307 -0.2388
60262SOL    HW187901   3.251   2.858   4.069  1.0804 -0.7514  0.1298
60262SOL    HW287902   3.107   2.887   4.105  1.2008 -0.6424  0.5263
60263SOL     OW87903   1.105   2.587   1.960  0.6022  0.2563 -0.3218
60263SOL    HW187904   1.185   2.597   1.908  0.1054  0.0966 -1.1350
60263SOL    HW287905   1.046   2.654   1.926  0.4681  0.5430  0.4457
60264SOL     OW87906   6.761  12.803   7.319  0.1900  0.0600  0.3031
60264SOL    HW187907   6.790  12.788   7.229 -0.0260  0.4648  0.1625
60264SOL    HW287908   6.816  12.745   7.372 -0.9988 -1.6843 -0.2530
60265SOL     OW87909   4.913   1.608   5.148 -0.3072 -0.5028  0.3778
60265SOL    HW187910   4.958   1.571   5.225  0.4004 -1.6688 -0.5583
60265SOL    HW287911   4.830   1.561   5.144 -0.6314  0.0354  0.8145
60266SOL     OW87912   7.889   5.624   7.633 -0.2564 -0.3230  0.0950
60266SOL    HW187913   7.843   5.556   7.583 -1.4914  0.2817  0.3534
60266SOL    HW287914   7.884   5.701   7.577  2.0292 -0.6541 -0.6420
60267SOL     OW87915  10.967   9.965   8.796  0.3300  0.0621 -0.1469
60267SOL    HW187916  10.980  10.060   8.786 -1.2272  0.4138  0.8181
60267SOL    HW287917  10.909   9.957   8.871  1.6260 -1.7661  0.7349
60268SOL     OW87918  10.366  12.044   9.845  0.2056 -0.1443  0.3630
60268SOL    HW187919  10.274  12.062   9.822 -0.2077 -2.0903  0.3403
60268SOL    HW287920  10.391  11.971   9.789  0.4689 -2.3503  3.1461
60269SOL     OW87921  12.415   1.163   0.903 -0.1111 -0.5505  0.5466
60269SOL    HW187922  12.374   1.104   0.966  1.0618  0.0983  1.9645
60269SOL    HW287923  12.491   1.114   0.871 -1.5903 -1.5505 -1.7014
60270SOL     OW87924   6.622   2.984   6.348 -0.3373  0.1137 -0.5365
60270SOL    HW187925   6.698   3.002   6.291  0.4886 -2.0162 -0.2004
60270SOL    HW287926   6.568   3.062   6.341  1.7142  1.5694 -1.0833
60271SOL     OW87927  10.343   9.518   4.747 -0.6005 -0.1039  0.1020
60271SOL    HW187928  10.331   9.462   4.824  0.2930 -2.1347 -1.1290
60271SOL    HW287929  10.411   9.473   4.696  0.2515  2.2137 -0.9296
60272SOL     OW87930   0.971   0.221   8.327  0.3679 -0.2734  0.6481
60272SOL    HW187931   1.033   0.152   8.350  1.7042  0.1229 -1.4757
60272SOL    HW287932   1.026   0.298   8.311 -0.6451  0.0852 -1.3566
60273SOL     OW87933   5.739   4.680   9.369 -0.0396 -0.0449 -0.3781
60273SOL    HW187934   5.720   4.745   9.301 -0.3295 -1.2840 -1.5282
60273SOL    HW287935   5.747   4.597   9.321 -2.8377 -1.4550  1.3563
60274SOL     OW87936   5.261   6.750  10.963 -0.1934  1.4743  0.5123
60274SOL    HW187937   5.326   6.739  10.894 -2.4198  1.8903 -1.8052
60274SOL    HW287938   5.290   6.691  11.033  1.8584  0.5743 -0.9957
60275SOL     OW87939   8.361  10.857   0.923  0.3058 -0.2172 -0.1449
60275SOL    HW187940   8.452  10.840   0.899  0.7505  1.7131  0.0404
60275SOL    HW287941   8.311  10.794   0.871  1.7136 -1.0587 -0.5393
60276SOL     OW87942   8.222   6.767  12.815 -0.6192  0.6328  0.3697
60276SOL    HW187943   8.167   6.837  12.779 -0.2053 -0.2631 -2.2462
60276SOL    HW287944   8.310   6.806  12.820 -0.5439  0.5694 -0.3171
60277SOL     OW87945   1.794   6.616   3.097 -0.0155  0.1814  0.1836
60277SOL    HW187946   1.743   6.544   3.060  1.9427 -0.1541 -2.1192
60277SOL    HW287947   1.728   6.682   3.119 -1.6350 -1.1983 -0.2774
60278SOL     OW87948   0.350   7.981   5.549 -0.0860  0.0114  0.1763
60278SOL    HW187949   0.369   7.897   5.509 -0.4483 -0.1767  0.3940
60278SOL    HW287950   0.376   8.046   5.483 -2.2891 -0.3254 -1.0952
60279SOL     OW87951   7.026   2.551   0.741 -0.4591 -0.2957  0.5187
60279SOL    HW187952   7.081   2.608   0.794 -0.4210 -0.1150  0.2850
60279SOL    HW287953   6.995   2.607   0.670  0.6940 -0.8983 -0.5031
60280SOL     OW87954  12.487  10.362   3.346 -0.1028 -0.3569 -0.4665
60280SOL    HW187955  12.462  10.289   3.289  0.5685  0.2270 -1.5301
60280SOL    HW287956  12.513  10.319   3.428 -0.3227 -1.2703 -0.8569
60281SOL     OW87957   6.612   0.763   0.742 -0.1577  0.7430 -0.1715
60281SOL    HW187958   6.705   0.748   0.724 -0.3367 -2.1665  0.8060
60281SOL    HW287959   6.606   0.772   0.837 -0.8342  1.4083 -0.2663
60282SOL     OW87960  12.200   3.783   4.501  0.0105 -0.1619  0.2582
60282SOL    HW187961  12.173   3.875   4.499 -0.7823 -0.3735  0.8751
60282SOL    HW287962  12.244   3.770   4.417 -0.3873  0.6272 -0.0887
60283SOL     OW87963  11.033  10.916   6.512  0.1094 -0.2816 -0.4413
60283SOL    HW187964  11.012  10.853   6.443  0.1967  0.4770 -1.1802
60283SOL    HW287965  11.126  10.935   6.500  0.4482 -1.0983  0.7036
60284SOL     OW87966   0.481  10.425   3.748  0.1873 -0.2909 -0.7227
60284SOL    HW187967   0.533  10.362   3.797  0.6864 -0.0110 -0.8798
60284SOL    HW287968   0.390  10.396   3.758  0.0606  0.7009  1.8334
60285SOL     OW87969  10.111  10.456   2.842  0.2656 -0.0773  0.5873
60285SOL    HW187970  10.185  10.503   2.804 -0.9433  1.6381  0.2616
60285SOL    HW287971  10.054  10.438   2.768 -0.6166  0.4918  1.1145
60286SOL     OW87972   9.413   2.479   7.884  0.4619  0.1327  0.0042
60286SOL    HW187973   9.329   2.444   7.856  0.7125 -1.1502  0.7982
60286SOL    HW287974   9.437   2.540   7.814 -0.5673 -0.3626 -0.8192
60287SOL     OW87975   8.744   7.646   6.452 -0.3334  0.1625 -0.0321
60287SOL    HW187976   8.746   7.552   6.433 -1.2072 -0.1037  1.1486
60287SOL    HW287977   8.780   7.687   6.373  4.9139 -1.3840  1.1382
60288SOL     OW87978  12.162   9.855   1.807 -0.4930 -0.0736 -0.0162
60288SOL    HW187979  12.178   9.783   1.746 -1.7920 -0.4750  0.0805
60288SOL    HW287980  12.117   9.921   1.755 -0.2200  0.2426  0.1438
60289SOL     OW87981  12.592   0.343   3.559  0.0576  0.0341 -0.3119
60289SOL    HW187982  12.508   0.299   3.574 -1.1880  2.0639 -0.9706
60289SOL    HW287983  12.656   0.272   3.557 -1.4853 -1.4952  1.2043
60290SOL     OW87984   1.708   8.600   8.606 -0.7204  0.8194 -0.0416
60290SOL    HW187985   1.671   8.605   8.518  0.2318  1.8054 -0.4053
60290SOL    HW287986   1.792   8.555   8.594 -0.9015  0.3277  0.4795
60291SOL     OW87987   9.343   0.788   9.586 -0.3618 -0.1642 -0.3493
60291SOL    HW187988   9.304   0.758   9.504  2.2881  0.2810 -1.8974
60291SOL    HW287989   9.361   0.708   9.635 -1.0235 -0.4984 -0.6437
60292SOL     OW87990  11.597  10.063  10.094 -0.4309  0.1721  0.3975
60292SOL    HW187991  11.509  10.025  10.087 -0.1319 -0.8463  1.8453
60292SOL    HW287992  11.585  10.154  10.066 -1.5861 -0.3695 -1.0747
60293SOL     OW87993   5.408   5.122   6.340 -0.0866  0.4676  0.1773
60293SOL    HW187994   5.417   5.217   6.352 -0.3520  0.3372  1.5043
60293SOL    HW287995   5.411   5.086   6.428  1.5611 -0.9101 -0.3791
60294SOL     OW87996   4.688   3.117   9.756  0.1204  0.2418  0.1462
60294SOL    HW187997   4.657   3.151   9.840 -1.6049 -0.1277 -0.2926
60294SOL    HW287998   4.782   3.132   9.757  0.1635  0.0912  2.2037
60295SOL     OW87999   6.423   4.133   3.333  0.3171  0.2627 -0.4789
60295SOL    HW188000   6.489   4.069   3.308 -0.1008  0.4098 -2.0286
60295SOL    HW288001   6.343   4.081   3.345  0.7215  0.0418  1.6788
60296SOL     OW88002   6.946   4.484  12.371  0.4162 -0.1385  0.1634
60296SOL    HW188003   6.933   4.567  12.417  1.5312  1.2185 -1.8176
60296SOL    HW288004   7.040   4.483  12.350  0.1315 -1.1618 -1.1989
60297SOL     OW88005   1.715   2.060   7.870  0.0246  0.1725 -0.1625
60297SOL    HW188006   1.631   2.051   7.914  0.8874  0.5160  1.6855
60297SOL    HW288007   1.700   2.125   7.802 -1.1986  0.2090  0.1205
60298SOL     OW88008   1.431   4.110   6.091 -0.4943 -0.3765 -0.0271
60298SOL    HW188009   1.452   4.133   6.182  0.1282 -0.6750 -0.0918
60298SOL    HW288010   1.475   4.027   6.076  0.0944  0.0665 -0.8603
60299SOL     OW88011  12.161   7.828   2.525  0.0823 -0.1782 -0.3366
60299SOL    HW188012  12.192   7.763   2.589 -3.3051 -0.6297  1.0492
60299SOL    HW288013  12.113   7.892   2.577 -1.1635  0.5196 -2.2269
60300SOL     OW88014   3.817   2.143   9.379  0.4107 -0.0898  0.0996
60300SOL    HW188015   3.767   2.082   9.325 -2.1468  0.4437  1.6677
60300SOL    HW288016   3.823   2.101   9.465 -3.2506  2.4511  1.8629
60301SOL     OW88017   3.157   1.195   6.084 -0.4296  0.1234 -0.1671
60301SOL    HW188018   3.072   1.164   6.053 -0.6105  1.3506 -0.9553
60301SOL    HW288019   3.198   1.118   6.121 -1.8834 -0.5007  0.2225
60302SOL     OW88020   0.725   0.535   5.256  0.6263  0.4208 -0.1335
60302SOL    HW188021   0.741   0.580   5.340  1.9450 -1.5910  0.7630
60302SOL    HW288022   0.811   0.528   5.216  0.6132 -2.0204  0.1678
60303SOL     OW88023   3.814   8.289  12.727  0.2810 -0.3192  0.1831
60303SOL    HW188024   3.878   8.231  12.769  1.5403  0.3070 -0.8134
60303SOL    HW288025   3.818   8.266  12.634 -1.5585 -0.8213  0.1832
60304SOL     OW88026   4.336   3.014   9.289 -0.0419  0.1973  0.1183
60304SOL    HW188027   4.266   3.062   9.333  0.7122  1.7585 -0.3083
60304SOL    HW288028   4.409   3.076   9.286  1.5273 -1.5284  0.9429
60305SOL     OW88029   9.613   7.102   2.841 -0.2842  0.3803  0.2430
60305SOL    HW188030   9.538   7.056   2.805 -0.1969 -0.3158  0.9212
60305SOL    HW288031   9.611   7.082   2.935 -0.2178  1.7188  0.5574
60306SOL     OW88032   9.210  11.674   4.514  0.2467 -0.0430 -0.1591
60306SOL    HW188033   9.157  11.716   4.581 -1.5793 -2.2480 -0.1161
60306SOL    HW288034   9.185  11.582   4.517  2.7087 -0.8474 -1.4853
60307SOL     OW88035   2.641  12.748   4.499  0.6661  0.4895 -0.0236
60307SOL    HW188036   2.556  12.703   4.496  0.4558  0.8851 -2.8672
60307SOL    HW288037   2.703  12.680   4.526 -0.2106 -0.4629 -0.3421
60308SOL     OW88038   5.706  12.297   8.246  0.2693 -0.2733 -0.3530
60308SOL    HW188039   5.646  12.231   8.280  1.2499 -0.6894  0.6534
60308SOL    HW288040   5.715  12.360   8.318  1.9394 -0.8576  0.0081
60309SOL     OW88041   3.702   5.728  10.863  0.5246 -0.1148 -0.1353
60309SOL    HW188042   3.750   5.794  10.812  2.0536 -1.7635 -0.9375
60309SOL    HW288043   3.770   5.670  10.897 -0.7524 -1.1463  0.7522
60310SOL     OW88044   5.870  12.190   5.962  0.1396 -0.5934 -0.0923
60310SOL    HW188045   5.958  12.191   5.997  0.1009 -4.1036  0.4851
60310SOL    HW288046   5.831  12.110   5.997 -2.3615 -0.5509 -2.4284
60311SOL     OW88047   3.673   1.304   1.121  0.4620 -0.3655 -0.8883
60311SOL    HW188048   3.762   1.269   1.130  0.5515  0.0731 -0.0067
60311SOL    HW288049   3.620   1.248   1.178  0.5853  0.8147  0.4362
60312SOL     OW88050   8.150   3.020  12.709 -0.2740  0.3333  0.0041
60312SOL    HW188051   8.192   3.098  12.673  1.0839  0.0775  0.9766
60312SOL    HW288052   8.129   3.043  12.799 -3.0674  0.7470 -0.6517
60313SOL     OW88053  12.565   4.245   6.573  0.9384 -0.4754 -0.1127
60313SOL    HW188054  12.622   4.296   6.631 -1.0776 -1.0691  2.5861
60313SOL    HW288055  12.482   4.292   6.573  0.3557 -1.4427 -1.1553
60314SOL     OW88056   3.213  11.342   9.591  0.6393  0.6013  0.1915
60314SOL    HW188057   3.221  11.246   9.592 -1.5814  0.3122 -1.4073
60314SOL    HW288058   3.230  11.369   9.681 -0.1900 -1.4759  1.0291
60315SOL     OW88059  10.842  12.375  11.011  0.4126 -0.5552  0.1062
60315SOL    HW188060  10.808  12.286  11.025 -1.1376 -0.1430 -0.8330
60315SOL    HW288061  10.863  12.378  10.918  0.4829  0.0546  0.1407
60316SOL     OW88062   7.586   4.065  10.735 -0.2401 -0.1196 -0.4659
60316SOL    HW188063   7.595   4.085  10.641 -0.9151  1.9878 -0.1375
60316SOL    HW288064   7.676   4.055  10.766  0.0462  0.3700 -1.1066
60317SOL     OW88065   4.627   4.352   4.032  0.2876 -0.5066  0.4070
60317SOL    HW188066   4.589   4.265   4.020 -0.7263  0.1712 -1.7178
60317SOL    HW288067   4.560   4.413   4.000  1.4695  0.9901  0.6423
60318SOL     OW88068   5.769   1.041   0.785 -0.4294 -0.6251  0.6062
60318SOL    HW188069   5.692   1.069   0.735  0.5926 -0.9903 -1.2471
60318SOL    HW288070   5.789   0.953   0.752  0.9585 -0.4136  0.8239
60319SOL     OW88071   2.905   2.990   2.970 -0.3295  0.0586 -0.3639
60319SOL    HW188072   2.875   2.948   3.052 -0.7499 -2.5080 -1.7144
60319SOL    HW288073   2.991   3.025   2.991 -0.6479 -0.0510  1.3118
60320SOL     OW88074   6.200   1.135   5.871  0.3050  0.0448  0.8009
60320SOL    HW188075   6.220   1.228   5.875 -1.8495  0.5799  0.3869
60320SOL    HW288076   6.285   1.092   5.873  1.5458  2.1116 -1.8091
60321SOL     OW88077  10.047   7.619   8.899  0.0443 -0.4802  0.3290
60321SOL    HW188078  10.131   7.580   8.874 -0.0894 -0.3801 -0.3038
60321SOL    HW288079  10.049   7.620   8.995  1.1940  0.4409  0.3184
60322SOL     OW88080   0.642   4.837   3.787 -0.0698 -0.0934  0.3152
60322SOL    HW188081   0.640   4.746   3.757 -0.3307  0.5092 -1.5739
60322SOL    HW288082   0.676   4.831   3.877 -1.4680 -2.1874  0.7965
60323SOL     OW88083  12.673   2.668  10.198 -0.3821  0.0180  0.0711
60323SOL    HW188084  12.694   2.759  10.178 -1.1905  0.7285  2.1760
60323SOL    HW288085  12.705   2.618  10.122  0.5419  1.9766 -0.8876
60324SOL     OW88086  12.083   0.919   3.590 -0.7343 -0.3253  0.0484
60324SOL    HW188087  12.113   0.968   3.666  0.5087 -0.0705 -0.5872
60324SOL    HW288088  12.102   0.827   3.611 -0.0320 -0.2214 -0.0933
60325SOL     OW88089   5.898  11.813   5.507  0.2109  0.0274 -0.6815
60325SOL    HW188090   5.969  11.780   5.562  0.7259  1.3119 -0.5465
60325SOL    HW288091   5.935  11.815   5.419 -0.8594 -2.7865 -1.3226
60326SOL     OW88092   1.621   7.204   3.844 -0.1555  0.2016 -0.0055
60326SOL    HW188093   1.582   7.281   3.803  0.7736  1.1679  0.8685
60326SOL    HW288094   1.648   7.234   3.931  0.2808 -1.0997  0.3356
60327SOL     OW88095   6.210   0.843   7.661 -0.2279  0.4515  0.3098
60327SOL    HW188096   6.287   0.900   7.667 -0.5833  1.3778 -2.4245
60327SOL    HW288097   6.148   0.880   7.724  1.0612  0.5086  1.5789
60328SOL     OW88098   7.241   9.109   1.269 -0.5014  0.2433  0.1243
60328SOL    HW188099   7.154   9.075   1.290  0.0824 -0.4402  1.5661
60328SOL    HW288100   7.300   9.034   1.280  0.5826  1.2531  1.6539
60329SOL     OW88101   0.155   3.477  10.530 -0.3137 -0.2590 -0.7046
60329SOL    HW188102   0.199   3.542  10.584  1.8700 -0.0721 -2.5380
60329SOL    HW288103   0.187   3.393  10.564 -2.8331 -0.4917  1.4090
60330SOL     OW88104   2.766   0.227   0.816  0.7056  0.1151  0.3631
60330SOL    HW188105   2.673   0.232   0.839  0.3597 -0.8321 -0.7247
60330SOL    HW288106   2.811   0.220   0.900 -0.2831 -0.4041  0.8699
60331SOL     OW88107   7.240   6.136   3.014 -0.1890  0.6035 -0.1164
60331SOL    HW188108   7.322   6.120   2.966  0.4386  0.9632  0.8039
60331SOL    HW288109   7.210   6.221   2.983  0.4515  1.0404  0.4289
60332SOL     OW88110   5.161   6.801  11.525 -0.2310  0.3125 -0.4334
60332SOL    HW188111   5.250   6.834  11.514 -0.1898  0.5322  0.4437
60332SOL    HW288112   5.165   6.750  11.607 -0.4884 -1.1863 -1.3205
60333SOL     OW88113   4.300   7.138   3.569  0.3096 -0.7181  0.1696
60333SOL    HW188114   4.247   7.067   3.605  0.4099 -0.8200  0.1199
60333SOL    HW288115   4.275   7.143   3.477 -0.3036 -0.1292  0.3589
60334SOL     OW88116   9.696   6.207  11.403  0.2180  0.1779 -0.0914
60334SOL    HW188117   9.686   6.296  11.437 -0.0086 -0.0701  0.5055
60334SOL    HW288118   9.700   6.152  11.482 -3.6481 -0.8036 -0.3738
60335SOL     OW88119   3.652  11.180  11.406  0.1375  0.1506 -0.0453
60335SOL    HW188120   3.658  11.085  11.416  1.4935  0.3403  1.4675
60335SOL    HW288121   3.561  11.196  11.383 -0.3883 -1.4496  0.7456
60336SOL     OW88122   8.724   1.215   6.470 -0.5213 -0.0941  0.1849
60336SOL    HW188123   8.641   1.181   6.505  0.6890 -2.1275  1.2359
60336SOL    HW288124   8.788   1.198   6.539  1.1657 -0.3708 -1.3640
60337SOL     OW88125   7.647   1.136  11.381  0.4342 -0.5373 -0.2607
60337SOL    HW188126   7.712   1.107  11.317 -1.5374 -0.6571 -2.3574
60337SOL    HW288127   7.603   1.209  11.338 -2.0767 -1.6616  0.2146
60338SOL     OW88128   7.392   6.998   1.982  0.0350 -0.0047  0.2901
60338SOL    HW188129   7.327   6.956   2.038  0.9666 -2.5954 -0.4608
60338SOL    HW288130   7.476   6.975   2.020  0.6573  2.9752  1.0068
60339SOL     OW88131   7.974   1.976   6.146 -0.4287 -0.4260 -0.0317
60339SOL    HW188132   7.961   1.998   6.238  0.7143 -0.7645  0.2247
60339SOL    HW288133   7.958   2.058   6.099 -0.4501 -0.1168  0.5115
60340SOL     OW88134   8.421   2.695   7.877  0.4380  0.1259 -0.4846
60340SOL    HW188135   8.385   2.753   7.945  0.2412 -1.2030  0.5915
60340SOL    HW288136   8.401   2.739   7.795 -0.3458  1.2263  0.2667
60341SOL     OW88137  11.392   4.179   0.945  0.2053 -0.1001  0.0049
60341SOL    HW188138  11.317   4.134   0.985  1.6952 -1.1503  1.7556
60341SOL    HW288139  11.426   4.116   0.881 -0.6732  0.5898 -1.1855
60342SOL     OW88140   3.788   0.235  11.591  0.1249  0.7668  0.4788
60342SOL    HW188141   3.880   0.253  11.608  0.3111 -0.5015  0.8824
60342SOL    HW288142   3.765   0.294  11.519  2.2089 -1.3308 -2.0809
60343SOL     OW88143   4.237   8.984   6.731 -0.0758 -0.3318 -0.3489
60343SOL    HW188144   4.303   9.033   6.682  1.3908 -1.5644  0.3078
60343SOL    HW288145   4.194   9.049   6.786 -0.2409  0.6918 -1.6469
60344SOL     OW88146  11.754   9.693   1.308 -0.1064 -0.0235 -0.1463
60344SOL    HW188147  11.753   9.783   1.275 -0.8121  0.0791  0.1213
60344SOL    HW288148  11.768   9.639   1.231 -0.0584  0.2976 -0.3655
60345SOL     OW88149   2.267   7.991   9.004 -0.6856 -0.1015  0.1091
60345SOL    HW188150   2.338   7.973   8.942 -0.8154 -0.9400  0.1879
60345SOL    HW288151   2.237   8.079   8.982  1.5127  0.9914  1.1834
60346SOL     OW88152   5.486   7.053   8.634 -0.2676  0.5844 -0.2668
60346SOL    HW188153   5.480   7.092   8.546 -0.2046  0.5926 -0.2675
60346SOL    HW288154   5.444   7.117   8.691 -1.7131 -0.1076 -0.4940
60347SOL     OW88155  10.863  12.573   3.099  0.2375 -0.7026  0.0381
60347SOL    HW188156  10.814  12.491   3.104  1.1506 -1.2970 -0.6119
60347SOL    HW288157  10.825  12.619   3.024 -0.6040 -0.2935  0.6953
60348SOL     OW88158   6.515   8.421   4.200  0.4032 -0.0518 -0.2368
60348SOL    HW188159   6.474   8.337   4.180  0.4577 -0.2363  0.3947
60348SOL    HW288160   6.483   8.442   4.288 -0.7595  1.2856 -0.9391
60349SOL     OW88161  10.959   8.991   4.704  0.2350 -0.2091  0.1844
60349SOL    HW188162  11.018   8.930   4.659  0.5567 -1.9562  2.7659
60349SOL    HW288163  10.871   8.959   4.681  0.2858  0.6337 -1.3425
60350SOL     OW88164  11.390   1.173  12.493  0.1087 -0.1598  0.5701
60350SOL    HW188165  11.346   1.227  12.427  0.4962  0.6067  0.9303
60350SOL    HW288166  11.472   1.218  12.511  1.1045 -1.6063 -0.1282
60351SOL     OW88167   4.370   0.718   5.348 -0.1084 -0.4416 -0.8428
60351SOL    HW188168   4.403   0.629   5.336  1.3591  0.4658 -5.2641
60351SOL    HW288169   4.326   0.738   5.266 -1.3336  2.5969  0.4318
60352SOL     OW88170   1.605   0.949   0.326 -0.0050 -0.4137  0.0149
60352SOL    HW188171   1.548   0.892   0.378 -0.4300 -1.5727 -1.6583
60352SOL    HW288172   1.559   1.033   0.323  0.5536  0.0509  2.3679
60353SOL     OW88173  10.998   3.100   2.094 -0.1497 -0.4237  0.1972
60353SOL    HW188174  11.057   3.175   2.091  1.3652 -1.5817 -0.2565
60353SOL    HW288175  10.921   3.132   2.140  0.2718  1.5225 -0.3587
60354SOL     OW88176   3.551   3.931  10.582  0.4638 -0.3813  0.1801
60354SOL    HW188177   3.573   3.851  10.631 -1.0074 -1.2680 -0.5543
60354SOL    HW288178   3.564   4.002  10.645 -0.1848 -1.3848  1.4838
60355SOL     OW88179   9.054  10.789   2.582  0.2795 -0.0557  0.3534
60355SOL    HW188180   9.115  10.863   2.588 -0.0793  0.1293  2.2338
60355SOL    HW288181   9.109  10.712   2.595  0.4197 -0.0201 -0.0257
60356SOL     OW88182  11.709  11.103   6.783 -0.8695  0.1736  0.0731
60356SOL    HW188183  11.779  11.100   6.719 -0.1154 -0.0695  0.8866
60356SOL    HW288184  11.715  11.018   6.828 -1.5170  0.2562  0.3224
60357SOL     OW88185   7.823  11.743   1.969  0.4859  0.0722 -0.0385
60357SOL    HW188186   7.794  11.658   1.937  1.0434  0.0484 -0.5126
60357SOL    HW288187   7.897  11.766   1.912  0.1330  1.0200 -0.1350
60358SOL     OW88188  10.790   4.146   2.654  0.0005 -0.2940  0.3748
60358SOL    HW188189  10.843   4.223   2.633  3.4684 -2.6174 -0.2012
60358SOL    HW288190  10.801   4.134   2.748  0.8318 -0.9402  0.2098
60359SOL     OW88191  12.050   2.926   3.051 -0.0509 -0.1171 -0.4272
60359SOL    HW188192  12.143   2.923   3.025  0.2478 -1.1320  0.6881
60359SOL    HW288193  12.003   2.908   2.969  0.8661 -3.0350 -0.4332
60360SOL     OW88194   4.001   3.357  12.281 -0.6189  0.4406 -0.1785
60360SOL    HW188195   4.038   3.320  12.361  0.4235  3.6394  0.9978
60360SOL    HW288196   4.063   3.333  12.213  0.1426  0.2314  0.5678
60361SOL     OW88197   7.441  10.417   7.782  0.0566  0.4392 -0.1198
60361SOL    HW188198   7.462  10.451   7.695  2.1880 -0.1328  0.1180
60361SOL    HW288199   7.479  10.480   7.843  1.6205 -0.8843  0.3342
60362SOL     OW88200  11.002   2.584   7.451 -1.0783  0.3500 -0.0139
60362SOL    HW188201  10.935   2.516   7.444 -0.8895  0.0022  1.4215
60362SOL    HW288202  11.082   2.543   7.417 -1.2507  0.2937 -0.3620
60363SOL     OW88203  11.633   8.644  12.644  0.3032 -0.1276  0.7976
60363SOL    HW188204  11.659   8.554  12.666 -1.9868 -1.0644 -0.0684
60363SOL    HW288205  11.700   8.674  12.582  1.0439 -1.2521  1.0298
60364SOL     OW88206  10.740   9.146  11.535  0.5244  0.0915 -0.0854
60364SOL    HW188207  10.819   9.129  11.483  1.2691  0.7966  0.7780
60364SOL    HW288208  10.737   9.242  11.542 -0.2259  0.0504  0.1835
60365SOL     OW88209   4.793   2.886   3.344 -0.0157  0.2229 -0.4693
60365SOL    HW188210   4.777   2.933   3.262 -1.1654  1.2588  0.3109
60365SOL    HW288211   4.706   2.860   3.375  0.4475 -0.6963  0.1220
60366SOL     OW88212   0.217   1.024   8.847  0.3773  0.3820  0.9322
60366SOL    HW188213   0.258   1.109   8.862 -2.6491  2.2861 -0.5873
60366SOL    HW288214   0.225   1.010   8.752  2.1941 -1.8968  1.3308
60367SOL     OW88215   6.603   6.611   3.734 -0.2636 -0.1059 -0.3609
60367SOL    HW188216   6.630   6.622   3.643 -1.0121 -0.4805 -0.6375
60367SOL    HW288217   6.593   6.517   3.745 -1.1342  0.0017 -0.1836
60368SOL     OW88218   8.617   1.894   0.778 -0.0836 -0.5279  0.6002
60368SOL    HW188219   8.671   1.822   0.810  1.7896  0.6552  0.2380
60368SOL    HW288220   8.652   1.914   0.691 -1.6724 -0.2542 -0.0173
60369SOL     OW88221   5.215   1.074   7.037 -0.0796 -0.0923  0.0082
60369SOL    HW188222   5.253   1.105   7.119 -0.5854 -0.6899  0.4866
60369SOL    HW288223   5.165   0.996   7.062 -2.0140  0.9144 -0.4875
60370SOL     OW88224   5.922   8.465  11.365 -0.3968  0.4648  0.3300
60370SOL    HW188225   5.828   8.472  11.348 -0.6764 -1.7850  0.7487
60370SOL    HW288226   5.928   8.434  11.455  0.6867 -0.9146 -0.1883
60371SOL     OW88227   4.916   0.118   9.596 -0.7816  0.0544 -1.4066
60371SOL    HW188228   4.820   0.109   9.592 -0.8136  0.2864 -1.1640
60371SOL    HW288229   4.931   0.212   9.604 -0.6316 -0.1105  0.9724
60372SOL     OW88230   8.743  11.144   0.860 -0.1601  0.7643 -0.0886
60372SOL    HW188231   8.752  11.131   0.766 -1.4394 -3.0990  0.1424
60372SOL    HW288232   8.832  11.163   0.891  0.3766  1.4912 -1.9820
60373SOL     OW88233   7.323   3.052   0.616 -0.1103  0.3068  0.2404
60373SOL    HW188234   7.250   3.085   0.564 -0.7700  1.9286  2.0560
60373SOL    HW288235   7.398   3.104   0.588 -0.4457  1.1244  0.8344
60374SOL     OW88236  12.784   5.308   3.119  0.4399  0.1260  0.3126
60374SOL    HW188237  12.779   5.213   3.134  0.6773  0.1568  0.5934
60374SOL    HW288238  12.854   5.338   3.177  1.1731  0.3026 -0.6340
60375SOL     OW88239   3.371   0.057   1.840 -0.0531  0.2621 -0.9355
60375SOL    HW188240   3.450   0.007   1.817 -1.1760 -2.8548  1.3063
60375SOL    HW288241   3.310   0.039   1.768 -0.3333 -1.5200 -0.3125
60376SOL     OW88242   0.955  10.040   1.548 -0.3289  0.2539  0.2028
60376SOL    HW188243   1.044  10.057   1.517 -0.2836  0.7688  0.5985
60376SOL    HW288244   0.917   9.984   1.481  0.0758  0.5859 -0.3160
60377SOL     OW88245   7.128   8.434   0.850 -0.5125  0.1499  0.0213
60377SOL    HW188246   7.049   8.482   0.875 -2.4164 -2.8637  0.3594
60377SOL    HW288247   7.159   8.477   0.770 -4.3108 -0.2542 -1.8976
60378SOL     OW88248   6.470  11.114   0.829  0.2191 -0.3878  0.8932
60378SOL    HW188249   6.384  11.150   0.853 -0.4560 -0.6221 -1.0033
60378SOL    HW288250   6.507  11.085   0.912 -0.6468  1.5710  2.0421
60379SOL     OW88251   2.004  10.674   3.189  0.0281 -0.2386 -0.0450
60379SOL    HW188252   2.076  10.672   3.125 -1.0010 -1.6557 -1.2346
60379SOL    HW288253   1.945  10.741   3.155  0.2754  0.1771  0.3435
60380SOL     OW88254   8.941   3.830   0.700 -0.1739 -0.4848 -0.6360
60380SOL    HW188255   8.847   3.837   0.683 -0.2320 -1.0517 -0.5850
60380SOL    HW288256   8.981   3.898   0.645 -0.8161  1.7885  1.5548
60381SOL     OW88257   7.042   5.401   3.468 -0.3365  0.0178  0.4886
60381SOL    HW188258   7.007   5.476   3.420  0.9095 -0.4994 -1.3016
60381SOL    HW288259   6.977   5.331   3.454  0.3752 -0.3588 -1.1646
60382SOL     OW88260   1.846   0.397   3.383  0.5183 -0.1698 -0.5331
60382SOL    HW188261   1.883   0.465   3.438 -2.2501 -0.1034  1.4680
60382SOL    HW288262   1.849   0.433   3.294  0.2639  2.0728  0.3136
60383SOL     OW88263  10.711  11.404   4.015 -0.4604 -0.0677  0.1793
60383SOL    HW188264  10.716  11.499   4.029  1.2282 -0.1121  0.0965
60383SOL    HW288265  10.787  11.384   3.959 -0.3108 -1.5824  0.8686
60384SOL     OW88266   3.040   2.842  11.284  0.4315  0.2029  0.0404
60384SOL    HW188267   2.959   2.870  11.328  1.0778  0.3435  1.1649
60384SOL    HW288268   3.102   2.825  11.355  0.7094 -2.1488 -0.6711
60385SOL     OW88269   2.905   4.611  11.713 -0.0016 -0.0049  0.0012
60385SOL    HW188270   2.860   4.536  11.675 -1.0137  0.9889 -0.8139
60385SOL    HW288271   2.923   4.668  11.639  0.0861  0.8999  0.7063
60386SOL     OW88272   2.019   1.560  12.186  0.7668  0.1541 -0.7002
60386SOL    HW188273   2.020   1.599  12.099  0.9104  0.8064 -0.4150
60386SOL    HW288274   2.027   1.635  12.246  1.9894 -0.3724 -0.1577
60387SOL     OW88275   7.298   5.090   7.834 -0.1874  0.1925 -0.2280
60387SOL    HW188276   7.257   5.008   7.862 -0.3061 -0.3578 -1.8908
60387SOL    HW288277   7.225   5.149   7.817 -0.0882  0.9400  1.6523
60388SOL     OW88278   0.188   9.669   6.928  0.2482  0.1980  0.4202
60388SOL    HW188279   0.184   9.753   6.882 -2.7820 -0.2131 -0.3422
60388SOL    HW288280   0.202   9.605   6.858 -1.8417 -0.2117  0.2929
60389SOL     OW88281   8.136   5.687   8.782 -0.4204  0.2641  0.5969
60389SOL    HW188282   8.207   5.624   8.776 -0.9304 -0.8518  4.0457
60389SOL    HW288283   8.174   5.769   8.751  0.6912 -1.2826 -2.6286
60390SOL     OW88284  10.320  10.668   4.031  0.2957 -0.4759  0.5491
60390SOL    HW188285  10.264  10.663   3.954 -0.3308  1.8438  0.7759
60390SOL    HW288286  10.399  10.712   4.000  0.1201  0.2913  1.1819
60391SOL     OW88287  11.327   5.175   7.448 -0.3667  0.1697 -0.1079
60391SOL    HW188288  11.376   5.219   7.379 -0.1153 -0.7177 -0.5171
60391SOL    HW288289  11.359   5.085   7.446 -0.3906  0.1149  1.1469
60392SOL     OW88290  11.919  10.515  12.812 -0.0778  0.3243  0.3812
60392SOL    HW188291  11.996  10.572  12.812  0.7827 -0.6650 -2.7437
60392SOL    HW288292  11.944  10.441  12.757 -2.5586 -1.1049  1.0453
60393SOL     OW88293   2.474   0.114   6.431  0.0786  0.6813 -0.2068
60393SOL    HW188294   2.445   0.113   6.340  1.2132 -0.3657 -0.5747
60393SOL    HW288295   2.561   0.152   6.428  0.4448 -0.0937  0.3319
60394SOL     OW88296   4.565  12.566   3.168  0.0622  0.0559  0.4961
60394SOL    HW188297   4.549  12.532   3.080 -0.2737  0.5732  0.3508
60394SOL    HW288298   4.545  12.660   3.161  0.7274  0.2329  0.9511
60395SOL     OW88299   3.689   4.263   3.248 -0.7771  0.4099 -0.2673
60395SOL    HW188300   3.634   4.293   3.321 -2.3842 -1.1430 -0.7636
60395SOL    HW288301   3.731   4.343   3.215 -1.4593  1.4072  1.1734
60396SOL     OW88302  10.380   4.563   4.814 -0.1418  0.4934 -0.1689
60396SOL    HW188303  10.421   4.643   4.781  0.3999 -0.0953 -0.9444
60396SOL    HW288304  10.453   4.510   4.846 -0.5712  0.6661  1.1856
60397SOL     OW88305   6.635   4.562   2.456 -0.5392 -0.2017  0.0994
60397SOL    HW188306   6.650   4.630   2.391 -1.4451  1.8394  1.9131
60397SOL    HW288307   6.721   4.524   2.472  0.0729  0.8721 -0.5586
60398SOL     OW88308   7.106   3.428   1.569  0.1646  0.4592  0.0467
60398SOL    HW188309   7.016   3.408   1.547 -0.4273  3.5444 -0.7828
60398SOL    HW288310   7.144   3.343   1.594 -1.5846 -1.7989 -4.0526
60399SOL     OW88311   1.268   0.875  10.212  0.0429  0.5116  0.1505
60399SOL    HW188312   1.205   0.914  10.151 -1.2266 -0.3649  0.8406
60399SOL    HW288313   1.316   0.950  10.247 -0.9177  1.2697 -0.0844
60400SOL     OW88314   6.109   2.022   5.245 -0.2851 -0.4841  0.1037
60400SOL    HW188315   6.130   2.049   5.334 -0.4865 -1.6022  0.4937
60400SOL    HW288316   6.194   2.006   5.204 -0.2326 -1.6200  0.6244
60401SOL     OW88317   1.364   7.765   5.529  0.0137 -0.3310  0.2663
60401SOL    HW188318   1.456   7.767   5.554 -0.2963 -0.4912  1.4622
60401SOL    HW288319   1.346   7.672   5.512  0.1895 -0.2384 -0.4786
60402SOL     OW88320  12.883   0.336   3.062 -0.1320 -0.3672 -0.2597
60402SOL    HW188321  12.878   0.249   3.023 -1.1226  0.0280 -1.0768
60402SOL    HW288322  12.840   0.326   3.147  1.6357 -1.1307  0.5868
60403SOL     OW88323  10.784   3.517   6.701 -0.3596 -0.4016  0.3257
60403SOL    HW188324  10.717   3.483   6.760 -2.0220  0.1857 -1.1558
60403SOL    HW288325  10.843   3.442   6.687  0.8733 -0.2385  3.6433
60404SOL     OW88326   3.796   0.486   5.683 -0.3961  0.4029  0.0978
60404SOL    HW188327   3.730   0.435   5.730  0.0709 -2.2975 -1.8989
60404SOL    HW288328   3.745   0.554   5.638 -1.2608  0.8504  1.6964
60405SOL     OW88329   2.886   5.392   0.032  0.0602  0.2031 -0.7443
60405SOL    HW188330   2.855   5.391  -0.059 -1.4666 -1.9854 -0.2733
60405SOL    HW288331   2.941   5.314   0.039  1.3333  1.1159 -0.1061
60406SOL     OW88332   9.122   8.588   7.800  0.4587  0.9178  0.2996
60406SOL    HW188333   9.166   8.642   7.733 -0.3166  1.5516  0.2959
60406SOL    HW288334   9.161   8.501   7.789 -0.8962  0.5260 -2.2131
60407SOL     OW88335  10.552   1.392   9.752  0.3393  0.4813 -0.5171
60407SOL    HW188336  10.579   1.473   9.796  2.4099  0.2441 -1.2191
60407SOL    HW288337  10.486   1.420   9.689  3.0114  2.2425 -2.7787
60408SOL     OW88338   4.964   4.292  12.496  0.2830  0.2750  0.1035
60408SOL    HW188339   4.917   4.373  12.514  0.7521  0.5188  0.2375
60408SOL    HW288340   4.972   4.248  12.581 -2.6327 -1.4060 -0.3439
60409SOL     OW88341   3.761   5.924   6.883  0.2166 -0.1644 -0.1572
60409SOL    HW188342   3.667   5.944   6.883  0.5291  1.4797  0.3413
60409SOL    HW288343   3.799   5.985   6.820  0.7282 -2.2497 -1.9779
60410SOL     OW88344   9.176   9.665   2.243  0.0008  0.0898  0.5486
60410SOL    HW188345   9.167   9.669   2.338 -0.9657  2.0353  0.4236
60410SOL    HW288346   9.270   9.671   2.228  0.0527  4.3853  1.3593
60411SOL     OW88347   7.093   6.061  10.365 -0.3047 -0.3488  0.3746
60411SOL    HW188348   7.139   6.132  10.410  0.4921  0.0727 -1.0476
60411SOL    HW288349   7.153   5.987  10.370  0.9995  0.4233 -2.1814
60412SOL     OW88350   6.266   5.345   5.223 -0.1130  0.6069 -0.4520
60412SOL    HW188351   6.230   5.266   5.182  0.5569 -0.0612  0.2012
60412SOL    HW288352   6.249   5.333   5.316 -0.3497  1.4349 -0.3781
60413SOL     OW88353  11.555  10.883   7.026  0.2480  0.1880 -0.6759
60413SOL    HW188354  11.498  10.955   7.052  0.7802  0.8025 -1.1764
60413SOL    HW288355  11.517  10.851   6.944 -0.7008 -0.9296  0.1578
60414SOL     OW88356   8.695   5.880   8.305  0.3711 -0.1921 -0.2003
60414SOL    HW188357   8.775   5.837   8.335  0.7816  0.7950  0.1378
60414SOL    HW288358   8.703   5.882   8.209  0.2513 -1.0239 -0.2412
60415SOL     OW88359   6.695  11.811  10.659 -0.1414 -0.2500 -0.6981
60415SOL    HW188360   6.754  11.789  10.587 -1.1793 -0.4899 -1.4929
60415SOL    HW288361   6.610  11.774  10.634 -0.7449  0.4461  0.2225
60416SOL     OW88362   8.443  11.663   8.496  0.4096 -0.1756  0.2633
60416SOL    HW188363   8.465  11.571   8.511  2.1276 -0.1142 -1.4136
60416SOL    HW288364   8.483  11.710   8.570  3.2953 -0.4350 -0.9854
60417SOL     OW88365  10.545  12.771   5.867 -0.2660  0.0296 -0.0071
60417SOL    HW188366  10.483  12.719   5.918 -0.6977 -0.7908 -1.3140
60417SOL    HW288367  10.494  12.845   5.835 -0.3596 -0.2088 -0.4089
60418SOL     OW88368   3.253   3.778   6.929  0.1199 -0.3572  0.2983
60418SOL    HW188369   3.262   3.873   6.940 -0.1282 -0.4097  1.0076
60418SOL    HW288370   3.209   3.767   6.845  0.1729  0.1573  0.2007
60419SOL     OW88371   1.628   0.314   8.740 -0.1171 -0.0385 -0.1272
60419SOL    HW188372   1.580   0.395   8.760  1.6026  1.0508 -0.2606
60419SOL    HW288373   1.713   0.343   8.707  1.3985 -1.8690  1.8582
60420SOL     OW88374   2.915   2.967   3.993  0.3149 -0.1885  0.1675
60420SOL    HW188375   2.867   2.975   3.910 -0.3430  0.3604  0.5862
60420SOL    HW288376   2.936   3.058   4.016 -0.9660 -0.1760  1.4251
60421SOL     OW88377   0.478   0.265  11.967 -0.3226  0.0916  0.1867
60421SOL    HW188378   0.538   0.339  11.964 -1.2639  0.8546 -2.3002
60421SOL    HW288379   0.534   0.188  11.955  0.3646  0.6329 -0.1442
60422SOL     OW88380   7.686  12.274   9.397 -0.2067 -0.2182 -0.1474
60422SOL    HW188381   7.668  12.310   9.310  0.8860 -1.1025 -0.7652
60422SOL    HW288382   7.622  12.317   9.454 -0.0578  1.3893 -1.1302
60423SOL     OW88383   0.950   9.543   0.465 -0.5404  0.3975 -0.2672
60423SOL    HW188384   0.890   9.482   0.508  1.3438 -0.5390  1.1414
60423SOL    HW288385   0.898   9.623   0.454 -3.3365 -1.5230 -2.8124
60424SOL     OW88386   7.146   3.231   4.805 -0.3026 -0.0215  0.3885
60424SOL    HW188387   7.079   3.300   4.801 -0.1649  0.1079  0.3258
60424SOL    HW288388   7.171   3.217   4.714  0.3081  0.4677  0.4775
60425SOL     OW88389   8.392   8.693   0.101  0.5490 -0.7210  0.2709
60425SOL    HW188390   8.478   8.692   0.142  0.3591  0.1147  0.6863
60425SOL    HW288391   8.350   8.613   0.133  1.1402 -1.1167  0.0948
60426SOL     OW88392  12.621   5.290   9.840 -0.4127  0.2258  0.2763
60426SOL    HW188393  12.691   5.265   9.780  0.1418 -1.0526  1.4230
60426SOL    HW288394  12.656   5.274   9.927 -0.6820  3.3335  1.0918
60427SOL     OW88395   4.153  12.935   6.230 -0.3287 -0.2867  0.4812
60427SOL    HW188396   4.178  12.852   6.189 -0.6678 -0.4232  0.5472
60427SOL    HW288397   4.105  12.982   6.161 -1.4520 -0.7792  0.8954
60428SOL     OW88398   8.573   5.452   7.892  0.1849  0.5659  0.1462
60428SOL    HW188399   8.661   5.421   7.910  1.0858  1.9645 -1.5783
60428SOL    HW288400   8.533   5.461   7.979  1.3283 -1.0873  0.9032
60429SOL     OW88401   4.669   4.686   9.123  0.5551  0.1551 -0.1013
60429SOL    HW188402   4.723   4.728   9.190 -0.4121  0.6045  0.4056
60429SOL    HW288403   4.579   4.710   9.144 -0.0341 -1.9227  0.0553
60430SOL     OW88404   2.471   1.441   8.409  0.1771  0.0343 -0.4905
60430SOL    HW188405   2.399   1.472   8.464  0.1936 -1.2846  0.3014
60430SOL    HW288406   2.550   1.478   8.450  0.1371 -0.4238  0.0043
60431SOL     OW88407   6.425   4.246   6.281 -0.4005  0.0198  0.2384
60431SOL    HW188408   6.391   4.179   6.340  1.4796 -0.6986  0.5737
60431SOL    HW288409   6.478   4.303   6.337  0.0683  0.2932 -0.4665
60432SOL     OW88410   7.006   1.524  12.048 -0.0890 -0.4952 -0.4698
60432SOL    HW188411   6.963   1.595  12.096  1.3094 -0.6653  1.1477
60432SOL    HW288412   6.947   1.505  11.976 -1.2697  1.2389 -0.0422
60433SOL     OW88413  12.776   2.574   1.770  0.1199 -0.1613  0.2046
60433SOL    HW188414  12.823   2.504   1.816  0.1466  0.3498  0.9745
60433SOL    HW288415  12.834   2.649   1.775  0.0339 -0.0380 -0.5066
60434SOL     OW88416   2.963  11.668  10.370 -0.3066 -0.5190  0.0088
60434SOL    HW188417   2.912  11.688  10.291  1.0308  0.9138 -0.5438
60434SOL    HW288418   2.955  11.746  10.424  2.4596  0.4430 -0.7813
60435SOL     OW88419   8.947   8.573  10.290  0.0045  0.0072  0.3525
60435SOL    HW188420   8.958   8.486  10.328 -0.2054  0.3702  1.2542
60435SOL    HW288421   8.864   8.568  10.243 -1.1674  0.3675  2.2875
60436SOL     OW88422   9.397   7.640   9.463 -0.1921 -0.0215 -0.2785
60436SOL    HW188423   9.324   7.579   9.475 -1.3712  1.3436 -0.1971
60436SOL    HW288424   9.466   7.587   9.422 -0.7244 -1.6720  0.8395
60437SOL     OW88425  11.247  12.077  11.291 -0.3323 -0.2757 -0.2853
60437SOL    HW188426  11.339  12.078  11.263  0.0458  0.6389  0.9129
60437SOL    HW288427  11.215  12.165  11.272 -0.1582  0.2715  1.7322
60438SOL     OW88428   9.127   3.839   3.891 -0.5375  0.2781  0.1524
60438SOL    HW188429   9.103   3.753   3.926  0.7838 -0.6715 -1.1146
60438SOL    HW288430   9.087   3.902   3.951 -1.3781 -1.2180  1.2308
60439SOL     OW88431   6.593   9.990  11.545  0.3794 -0.1378  0.1186
60439SOL    HW188432   6.629  10.051  11.480  2.2433 -0.6464  0.6041
60439SOL    HW288433   6.556  10.046  11.613 -0.8774  0.4026 -0.9700
60440SOL     OW88434   5.812   8.349   1.753 -0.3904  0.1689 -0.1137
60440SOL    HW188435   5.721   8.382   1.756 -0.0773  1.0713 -0.1076
60440SOL    HW288436   5.820   8.310   1.666 -1.4776 -2.0366  0.7062
60441SOL     OW88437  12.529  12.570   1.560 -0.3218  0.2461  0.2905
60441SOL    HW188438  12.593  12.530   1.501  0.4394  0.9326  0.6256
60441SOL    HW288439  12.463  12.502   1.574  0.5867 -0.6580  0.3201
60442SOL     OW88440   9.564   7.567   2.111  0.4216  0.1719 -0.2372
60442SOL    HW188441   9.615   7.645   2.133  1.8278 -0.5307 -0.8691
60442SOL    HW288442   9.482   7.601   2.077  1.0287  1.3967 -0.5377
60443SOL     OW88443   7.292   1.879   3.568 -0.0190  0.0020  0.3220
60443SOL    HW188444   7.315   1.971   3.582  0.0528  0.1705 -0.7995
60443SOL    HW288445   7.362   1.845   3.511 -0.6744 -0.4184 -0.2518
60444SOL     OW88446  10.958   7.684   9.331  0.3703  0.0906 -0.7412
60444SOL    HW188447  10.995   7.639   9.256 -1.3632 -0.2976 -1.4067
60444SOL    HW288448  10.994   7.773   9.327  0.5172 -0.0123 -1.8714
60445SOL     OW88449   0.081   7.015   6.046 -0.3447  0.0092 -1.0843
60445SOL    HW188450   0.173   6.987   6.043 -0.8093 -1.5565 -1.7526
60445SOL    HW288451   0.084   7.104   6.082  1.3691 -0.2638 -0.4642
60446SOL     OW88452  11.667  12.353   8.267  0.1544 -0.1260 -0.3879
60446SOL    HW188453  11.660  12.427   8.206 -0.6931 -0.0643 -0.2276
60446SOL    HW288454  11.586  12.304   8.254  0.7725 -1.1211 -0.5980
60447SOL     OW88455  12.819  10.879   0.251 -0.3896  0.1884  0.3120
60447SOL    HW188456  12.887  10.899   0.187 -0.4728 -1.2260 -0.2539
60447SOL    HW288457  12.737  10.890   0.204 -0.4556 -0.7074  0.1896
60448SOL     OW88458   3.870   9.115   5.091  0.4096 -0.1454  0.4559
60448SOL    HW188459   3.872   9.140   5.183  0.3860  0.5979  0.2614
60448SOL    HW288460   3.802   9.170   5.053  0.2590 -0.6137  0.0394
60449SOL     OW88461  11.011   5.798   9.567  0.2776  0.8078 -0.3057
60449SOL    HW188462  11.093   5.751   9.579  0.4157  0.9796 -0.5537
60449SOL    HW288463  10.943   5.734   9.586  0.4468  1.3112  2.4615
60450SOL     OW88464   0.699   9.764  11.709  0.4279  0.2252 -0.1700
60450SOL    HW188465   0.790   9.741  11.730 -0.0889 -1.9102 -0.0367
60450SOL    HW288466   0.684   9.847  11.755  1.1360 -1.3085  3.1143
60451SOL     OW88467   0.604   2.878   5.251  0.4703 -0.1351  0.0670
60451SOL    HW188468   0.542   2.920   5.310 -0.4998  0.6907 -1.4608
60451SOL    HW288469   0.690   2.904   5.284 -0.0791  1.7894  0.1003
60452SOL     OW88470   4.989   6.499   7.207 -0.2232 -0.9346 -0.3015
60452SOL    HW188471   5.055   6.443   7.166  0.4473 -0.7379  0.4704
60452SOL    HW288472   4.908   6.449   7.203  0.4309 -2.1540  0.7226
60453SOL     OW88473  11.840   4.682   4.186 -0.1710  0.2492  0.3996
60453SOL    HW188474  11.866   4.744   4.118  0.4649  2.1824  2.3051
60453SOL    HW288475  11.911   4.617   4.187  0.4885  0.9544  0.1022
60454SOL     OW88476   4.653   4.908  12.752  0.4934 -0.7649  0.0094
60454SOL    HW188477   4.685   4.998  12.747  0.1909 -0.7090 -1.2216
60454SOL    HW288478   4.683   4.877  12.838 -1.2087  1.2031  1.4456
60455SOL     OW88479   1.812   1.853   1.319 -0.4394 -0.1121 -0.3826
60455SOL    HW188480   1.859   1.769   1.329 -0.9458 -0.3782 -0.1895
60455SOL    HW288481   1.876   1.911   1.277 -0.3179 -0.8051 -1.1838
60456SOL     OW88482   4.915  12.022   8.007 -0.2846 -0.4021 -0.2173
60456SOL    HW188483   4.975  12.043   7.935 -0.4803 -0.2424 -0.3332
60456SOL    HW288484   4.841  12.081   7.995 -0.7964 -1.0829 -0.4910
60457SOL     OW88485   4.230   1.238   1.489  0.4501 -0.2585 -0.2501
60457SOL    HW188486   4.141   1.269   1.476 -0.6532 -2.7324  0.7422
60457SOL    HW288487   4.237   1.223   1.584  2.3438  0.9551 -0.1429
60458SOL     OW88488   9.026   2.091   5.834  0.5734  0.2328  0.1750
60458SOL    HW188489   8.970   2.134   5.899 -0.0878  0.4798 -0.5404
60458SOL    HW288490   9.048   2.161   5.772 -0.0862 -0.3255 -0.7155
60459SOL     OW88491  12.816  11.144  11.328 -0.3956  0.6039  0.1118
60459SOL    HW188492  12.741  11.112  11.278 -1.1340  3.3584 -0.7517
60459SOL    HW288493  12.892  11.119  11.277 -0.9820  0.8902 -0.9347
60460SOL     OW88494   1.934  11.151   9.300 -0.4804 -0.7141  0.1671
60460SOL    HW188495   1.983  11.221   9.344 -1.9999 -0.3669  1.4237
60460SOL    HW288496   1.956  11.161   9.207 -0.1129  1.0122  0.3978
60461SOL     OW88497   9.799   5.820   3.620 -0.0613  0.3656  0.2438
60461SOL    HW188498   9.708   5.796   3.604 -0.1117  0.1348  0.8209
60461SOL    HW288499   9.829   5.861   3.539  0.1747 -2.0808 -0.9812
60462SOL     OW88500   6.879   9.503  11.872  0.4851 -0.0916  0.0480
60462SOL    HW188501   6.873   9.468  11.961 -0.2986 -0.1912 -0.0372
60462SOL    HW288502   6.957   9.559  11.873  1.1826 -1.0369  0.4605
60463SOL     OW88503   4.833   7.004   2.519  0.6923 -0.6908 -0.2876
60463SOL    HW188504   4.865   6.936   2.459  1.5799 -0.2402 -0.3344
60463SOL    HW288505   4.770   7.053   2.466 -0.2617 -1.7004 -0.1341
60464SOL     OW88506  11.327  12.538  11.230  0.5908  0.6568  0.0351
60464SOL    HW188507  11.240  12.550  11.267  0.1763 -0.4130 -0.5243
60464SOL    HW288508  11.359  12.456  11.268  0.9146  0.5007 -0.5534
60465SOL     OW88509   2.930  10.188  12.638 -0.2731 -0.0725  0.4939
60465SOL    HW188510   2.864  10.256  12.622 -1.4588 -1.4947 -1.0441
60465SOL    HW288511   2.961  10.164  12.551 -2.7430 -4.1222  0.4969
60466SOL     OW88512   1.058  10.452   2.598 -0.4826 -0.3131  0.1102
60466SOL    HW188513   1.097  10.464   2.511  0.0538 -0.6051  0.3020
60466SOL    HW288514   1.072  10.536   2.641  0.8008 -0.6992  0.4988
60467SOL     OW88515   8.550   9.351   9.659 -0.4176  0.6374 -0.0922
60467SOL    HW188516   8.516   9.433   9.696 -0.6713  0.6413 -0.3346
60467SOL    HW288517   8.539   9.360   9.565 -1.7674 -0.2573 -0.0354
60468SOL     OW88518   1.350   8.371   7.409 -0.3470  0.3367 -0.2177
60468SOL    HW188519   1.287   8.392   7.477 -0.3238  0.4330 -0.2245
60468SOL    HW288520   1.428   8.341   7.456 -0.3538  0.3407 -0.2038
60469SOL     OW88521   0.848   3.087   8.158 -0.2370 -0.2712  0.0499
60469SOL    HW188522   0.924   3.128   8.117 -1.0144  1.3179  0.1123
60469SOL    HW288523   0.819   3.150   8.224 -2.6153 -0.0043 -1.1372
60470SOL     OW88524  11.177  11.881   6.377 -0.2451 -0.0085  0.0962
60470SOL    HW188525  11.217  11.945   6.317 -0.0572 -1.0890 -0.9654
60470SOL    HW288526  11.246  11.862   6.440 -0.0026  0.1941 -0.1031
60471SOL     OW88527   3.315   5.160  10.017 -0.1572  0.0366  0.5339
60471SOL    HW188528   3.327   5.178  10.110 -0.9264  2.2435  0.2657
60471SOL    HW288529   3.231   5.115  10.011 -0.2080  0.0842  0.8945
60472SOL     OW88530   5.615   1.345   4.329 -0.2506  0.0758  0.3277
60472SOL    HW188531   5.580   1.338   4.240  0.3884 -0.7518  0.1340
60472SOL    HW288532   5.705   1.316   4.322 -0.4090 -0.7283  1.3815
60473SOL     OW88533   0.188   3.166   4.484 -0.0248 -0.7702 -0.5844
60473SOL    HW188534   0.186   3.254   4.447  0.6885 -0.6390 -0.3179
60473SOL    HW288535   0.123   3.118   4.433 -2.2690  0.5285  0.8730
60474SOL     OW88536   7.685   9.641   4.332  0.1713 -0.6464 -0.4989
60474SOL    HW188537   7.642   9.721   4.363  0.2461 -0.9263  0.3265
60474SOL    HW288538   7.765   9.673   4.290 -0.5318 -0.1690 -1.5482
60475SOL     OW88539   2.631   2.778   6.769 -0.1006 -0.1004  0.4883
60475SOL    HW188540   2.548   2.762   6.724 -0.0974  3.6152 -1.2599
60475SOL    HW288541   2.611   2.847   6.832  1.4701  0.1858  0.7212
60476SOL     OW88542  11.675   8.231   8.889  0.0992 -0.0333 -0.2750
60476SOL    HW188543  11.730   8.154   8.876  0.2470 -0.2901  1.5734
60476SOL    HW288544  11.725   8.286   8.950 -1.0539  0.3991  0.3128
60477SOL     OW88545   6.670   6.234   5.261 -0.2002 -0.8107  0.2154
60477SOL    HW188546   6.720   6.212   5.340 -0.0751 -3.0933 -0.4472
60477SOL    HW288547   6.727   6.211   5.188 -0.7263  0.2825 -0.5787
60478SOL     OW88548   8.391  11.793  11.152  0.1692 -0.6411  0.0382
60478SOL    HW188549   8.351  11.716  11.113  0.7341 -0.3992 -1.0673
60478SOL    HW288550   8.480  11.795  11.115  0.0303  0.7434 -0.2662
60479SOL     OW88551   1.484   2.165   1.577  0.0368 -0.1274 -0.0195
60479SOL    HW188552   1.479   2.145   1.670 -0.0908  1.7743  0.4312
60479SOL    HW288553   1.425   2.240   1.565  0.5024  0.0443 -1.5074
60480SOL     OW88554   6.927   4.206  11.501 -0.0702 -0.0105 -0.0517
60480SOL    HW188555   6.977   4.288  11.499  1.5602 -0.9702 -0.1257
60480SOL    HW288556   6.993   4.138  11.514 -1.4655 -1.2623  0.8247
60481SOL     OW88557   2.734   4.953  12.896 -0.2500  0.0141 -0.3789
60481SOL    HW188558   2.671   5.015  12.932  0.5892  0.1588  0.9119
60481SOL    HW288559   2.690   4.915  12.820 -1.4977  0.8191 -0.0854
60482SOL     OW88560  12.167   2.796   1.631  0.3922 -0.5513  0.1591
60482SOL    HW188561  12.195   2.868   1.688 -0.3446 -0.4719  0.4383
60482SOL    HW288562  12.245   2.743   1.617  0.2602 -1.4612  2.5461
60483SOL     OW88563   6.860  10.492  10.891  0.9079 -0.2060  0.5952
60483SOL    HW188564   6.838  10.518  10.981 -1.5921 -2.0839  0.6343
60483SOL    HW288565   6.848  10.572  10.840 -1.4366  0.0440  1.4283
60484SOL     OW88566   3.001   5.602  10.183  0.4711  0.0787  0.3585
60484SOL    HW188567   3.066   5.542  10.146  0.5837 -0.7380  1.7843
60484SOL    HW288568   2.917   5.557  10.172  0.4545  0.0247  0.6783
60485SOL     OW88569   0.298  11.144   0.656  0.5229 -0.0870 -0.1412
60485SOL    HW188570   0.341  11.130   0.740  2.1488 -0.4407 -0.9993
60485SOL    HW288571   0.214  11.099   0.665 -0.0650  1.2301  1.8252
60486SOL     OW88572   2.935   2.821   4.379  0.1548 -0.2944 -0.4727
60486SOL    HW188573   2.947   2.736   4.421 -0.0326 -0.4339 -0.6976
60486SOL    HW288574   2.861   2.860   4.425 -0.5013 -0.7447 -1.1333
60487SOL     OW88575  10.899  10.130   0.825  0.6860  0.1217  0.1375
60487SOL    HW188576  10.960  10.058   0.810  0.1136  0.0445 -2.0550
60487SOL    HW288577  10.818  10.087   0.851  0.5785  0.0233 -0.3600
60488SOL     OW88578   3.413  10.161   3.811  0.8121 -0.1182 -0.0419
60488SOL    HW188579   3.479  10.095   3.832  2.0692  1.1644  0.1567
60488SOL    HW288580   3.447  10.205   3.733 -0.3417 -0.1316 -0.5733
60489SOL     OW88581   5.975   4.262  11.153 -0.0471  0.1633 -0.0338
60489SOL    HW188582   6.062   4.274  11.190  0.4001 -1.1276 -0.6146
60489SOL    HW288583   5.929   4.207  11.216 -0.6610  1.2908  0.5460
60490SOL     OW88584   0.077   8.139   0.975 -0.6033 -0.9714 -0.1363
60490SOL    HW188585   0.072   8.173   0.886 -1.0805  0.6047  0.4626
60490SOL    HW288586   0.109   8.049   0.965  1.0614 -0.2628 -1.7714
60491SOL     OW88587   2.079   5.777   7.554  0.1146 -0.0699  0.1487
60491SOL    HW188588   2.040   5.864   7.546  0.3374 -0.0552 -0.9175
60491SOL    HW288589   2.161   5.791   7.602  1.7041  0.8152 -2.6347
60492SOL     OW88590  10.856   3.955   8.384 -0.3506 -0.2017  0.1774
60492SOL    HW188591  10.939   3.982   8.346 -0.5363  0.0327 -0.0650
60492SOL    HW288592  10.799   4.031   8.374 -0.5596 -0.3216  0.4465
60493SOL     OW88593  12.139   8.795   4.776 -0.1975 -0.3729  0.0180
60493SOL    HW188594  12.074   8.726   4.788  0.8769 -1.6494 -1.1274
60493SOL    HW288595  12.088   8.875   4.768 -1.5111 -1.0819  0.9395
60494SOL     OW88596   2.338  12.090   0.525  0.9265  0.0454  0.4125
60494SOL    HW188597   2.402  12.156   0.551  0.6093  0.6508 -0.2969
60494SOL    HW288598   2.262  12.141   0.494  0.6605 -0.6474 -0.1099
60495SOL     OW88599   2.827   3.957   3.247 -0.1745  0.5125 -0.0575
60495SOL    HW188600   2.774   3.929   3.172  0.8638  0.9542 -0.9658
60495SOL    HW288601   2.863   4.041   3.221  0.7690  0.3385  0.6600
60496SOL     OW88602  12.271  11.080  12.828  0.4364  0.2876  0.1673
60496SOL    HW188603  12.235  11.111  12.745 -0.7722 -0.8757  0.2182
60496SOL    HW288604  12.328  11.007  12.804  1.7231  1.2470  0.2097
60497SOL     OW88605  10.835   5.229   4.179 -0.5568  0.2946 -0.6172
60497SOL    HW188606  10.874   5.283   4.248  1.7235 -2.2289  0.2607
60497SOL    HW288607  10.822   5.144   4.220 -1.7710 -0.5212 -2.5594
60498SOL     OW88608  11.528  10.876   9.890  0.7742  0.9702  0.2668
60498SOL    HW188609  11.591  10.889   9.819  2.0476 -0.4618  1.0718
60498SOL    HW288610  11.580  10.839   9.962 -0.8894  0.2372  1.1485
60499SOL     OW88611   5.642   2.876   6.935  0.1889 -0.2318 -0.1512
60499SOL    HW188612   5.629   2.959   6.889 -0.2601 -0.2119  0.0066
60499SOL    HW288613   5.611   2.892   7.024  1.0138 -0.2873  0.1478
60500SOL     OW88614   7.292   5.753   0.452  0.2162 -0.2387  0.1520
60500SOL    HW188615   7.236   5.828   0.475  0.3586  0.0551 -0.4379
60500SOL    HW288616   7.245   5.709   0.381  0.4450 -0.3428  0.0652
60501SOL     OW88617  12.855   0.013  10.151 -0.5406  0.0272 -0.2935
60501SOL    HW188618  12.831   0.086  10.093 -0.7332 -0.8050 -1.2983
60501SOL    HW288619  12.774  -0.007  10.198 -0.5284  0.3648 -0.1290
60502SOL     OW88620   6.491   6.931   4.016 -0.5669  0.5341 -0.0575
60502SOL    HW188621   6.461   7.017   3.987 -2.8908 -0.2440 -0.1018
60502SOL    HW288622   6.491   6.937   4.112 -1.8648  0.2478 -0.0264
60503SOL     OW88623   0.323   3.453   3.944  0.3119  0.0387  0.0016
60503SOL    HW188624   0.290   3.508   4.016 -1.1473 -2.7194  1.6039
60503SOL    HW288625   0.418   3.453   3.956  0.1467  0.1116  1.6123
60504SOL     OW88626   8.918   7.188   9.264  0.4350 -1.2674 -0.0174
60504SOL    HW188627   8.848   7.237   9.222 -0.0357 -0.1919  1.8828
60504SOL    HW288628   8.879   7.155   9.345  2.5093  0.9857  2.0874
60505SOL     OW88629   7.276   1.014  10.401  0.1228 -0.5291 -0.1689
60505SOL    HW188630   7.364   0.980  10.412  0.9168  1.4456  0.0863
60505SOL    HW288631   7.234   1.004  10.486  0.6681 -0.0342  0.1624
60506SOL     OW88632   0.599  11.209   8.462  0.3529 -0.2900  0.2740
60506SOL    HW188633   0.680  11.187   8.416 -0.4151 -0.0968 -1.2116
60506SOL    HW288634   0.545  11.253   8.397 -0.9734 -0.4354  1.2338
60507SOL     OW88635   5.963   8.102   4.166  0.3364 -0.2920 -0.5565
60507SOL    HW188636   6.044   8.053   4.178  1.5231  1.3798 -1.2581
60507SOL    HW288637   5.901   8.038   4.130  0.9485 -1.8855  1.0859
60508SOL     OW88638   4.107   0.661   4.084 -0.2766 -0.0344  0.0327
60508SOL    HW188639   4.197   0.675   4.111 -0.9520 -0.7513  3.1024
60508SOL    HW288640   4.110   0.580   4.033  0.8254 -0.0734  0.1361
60509SOL     OW88641  11.948  10.676   7.811 -0.2083  0.2535  0.3713
60509SOL    HW188642  12.002  10.664   7.890 -2.1736  0.8578  1.8682
60509SOL    HW288643  11.981  10.756   7.771  1.1375 -0.3253  0.2695
60510SOL     OW88644  10.392  12.720   0.885 -0.6804  0.2816 -0.1087
60510SOL    HW188645  10.319  12.660   0.874 -0.9823  0.6085  0.0749
60510SOL    HW288646  10.459  12.669   0.931 -0.7461 -0.0534 -0.3908
60511SOL     OW88647  12.412   7.056   0.391  0.6085  0.0962 -0.2157
60511SOL    HW188648  12.486   7.108   0.425  0.4361  0.3993 -0.2964
60511SOL    HW288649  12.432   7.045   0.298 -0.6132  2.2831 -0.8296
60512SOL     OW88650  10.804   6.280   7.153 -0.1762  0.0830  0.0666
60512SOL    HW188651  10.789   6.269   7.247  2.3513 -0.2465  0.5186
60512SOL    HW288652  10.839   6.368   7.144 -0.7042  0.2314 -0.6328
60513SOL     OW88653   3.247   0.536   8.443 -0.7757 -0.4412  0.2025
60513SOL    HW188654   3.167   0.491   8.415 -0.7583 -0.4389  0.1500
60513SOL    HW288655   3.220   0.585   8.520 -0.5579 -1.3400  0.8713
60514SOL     OW88656   0.692   7.138   6.026  0.3762  0.1138 -0.2152
60514SOL    HW188657   0.773   7.091   6.006  0.8260  1.4728 -1.8424
60514SOL    HW288658   0.715   7.231   6.017 -1.1053  0.5669  0.3472
60515SOL     OW88659   6.561   0.643   5.410 -0.4692  0.1245  0.7440
60515SOL    HW188660   6.519   0.729   5.403 -1.0174 -0.1418  0.7171
60515SOL    HW288661   6.532   0.609   5.494 -1.4695 -0.6623  0.1003
60516SOL     OW88662   4.779   4.541   9.918  0.0566  0.0571 -0.1640
60516SOL    HW188663   4.739   4.536   9.831 -0.2964  3.4561 -0.3631
60516SOL    HW288664   4.705   4.545   9.978  0.1232  1.9518 -0.1496
60517SOL     OW88665   9.459   4.530   5.963  0.2031  0.8737  0.0601
60517SOL    HW188666   9.478   4.495   6.050 -0.6483  0.0569 -0.0634
60517SOL    HW288667   9.456   4.453   5.907 -1.1619  1.1871 -0.3260
60518SOL     OW88668   5.291   9.612  12.159  0.3738  0.3407  0.2572
60518SOL    HW188669   5.235   9.546  12.199 -1.0763 -0.6247 -3.0048
60518SOL    HW288670   5.380   9.583  12.177 -0.2088 -2.6811 -1.1055
60519SOL     OW88671   7.453   1.356   3.250  0.6498  0.0796 -0.1034
60519SOL    HW188672   7.494   1.376   3.166  0.6651 -1.2671 -0.4434
60519SOL    HW288673   7.489   1.270   3.275 -2.6107 -1.7184 -0.9459
60520SOL     OW88674  11.244   9.015  11.909 -0.5189 -0.1197  0.5042
60520SOL    HW188675  11.199   8.966  11.978 -0.6882  1.7991  1.8320
60520SOL    HW288676  11.284   9.089  11.954  2.2705 -0.6222 -0.9514
60521SOL     OW88677   8.654   7.447   0.428  1.1179 -0.1641 -0.0798
60521SOL    HW188678   8.658   7.420   0.519 -1.0469  0.2745  0.2040
60521SOL    HW288679   8.604   7.529   0.429  2.7993  0.9683 -1.4701
60522SOL     OW88680  10.681  11.249  11.666 -0.2781 -0.5214 -0.4052
60522SOL    HW188681  10.618  11.184  11.635  0.2867 -1.7804  0.9110
60522SOL    HW288682  10.750  11.197  11.708  0.6185  0.9025 -0.0278
60523SOL     OW88683  11.506   0.829   7.670 -0.1262  0.1519  0.0848
60523SOL    HW188684  11.523   0.739   7.642 -0.2890 -0.2120  1.1046
60523SOL    HW288685  11.423   0.852   7.627  0.8719  0.5160 -1.7134
60524SOL     OW88686   0.677   9.035   4.740 -0.1247 -0.7666  0.3289
60524SOL    HW188687   0.693   8.950   4.699 -0.1504 -0.0229 -1.2984
60524SOL    HW288688   0.720   9.098   4.682 -0.5978  0.3889  1.1903
60525SOL     OW88689   5.273   4.494   4.464  0.7501 -0.1222  0.1464
60525SOL    HW188690   5.314   4.487   4.377  1.9361  1.1247  0.5688
60525SOL    HW288691   5.214   4.569   4.456  1.1315  0.2198  0.5091
60526SOL     OW88692   3.158  11.326   3.552  0.2738 -0.1075  0.4040
60526SOL    HW188693   3.230  11.318   3.615  0.1277 -2.6551  0.3736
60526SOL    HW288694   3.082  11.291   3.598 -0.3622  0.1484 -0.4251
60527SOL     OW88695  10.795   4.767   6.643  0.1186  0.3017 -0.0990
60527SOL    HW188696  10.703   4.742   6.636  0.0054  0.4295  0.7457
60527SOL    HW288697  10.794   4.863   6.644  0.4766  0.3968 -2.4471
60528SOL     OW88698   9.470   5.096   8.342 -0.7355 -0.1348  0.3166
60528SOL    HW188699   9.406   5.031   8.370 -1.2798 -0.3010 -1.2366
60528SOL    HW288700   9.418   5.169   8.310 -0.1433 -0.0480 -0.4670
60529SOL     OW88701  10.826  12.079  11.057  0.0372  0.5604  0.5765
60529SOL    HW188702  10.738  12.053  11.085  0.4220 -0.0017  1.2826
60529SOL    HW288703  10.878  12.077  11.137  0.8937  0.0675  0.0125
60530SOL     OW88704  10.245  10.869   0.358  0.3294 -0.6713 -0.2747
60530SOL    HW188705  10.269  10.879   0.266 -1.1245 -0.0960 -0.6091
60530SOL    HW288706  10.162  10.916   0.367 -0.1286 -1.6626  1.0669
60531SOL     OW88707   1.944   0.503   5.802  0.2337  0.6552 -0.0853
60531SOL    HW188708   2.007   0.488   5.873 -0.2871 -0.4320  0.1745
60531SOL    HW288709   1.862   0.524   5.847 -0.6064 -1.9588 -0.2392
60532SOL     OW88710  12.741   3.812   3.202  0.0160  0.0711 -0.1355
60532SOL    HW188711  12.649   3.786   3.204  0.0920 -0.1846  0.1739
60532SOL    HW288712  12.742   3.894   3.153 -0.7156  1.5150  2.1323
60533SOL     OW88713  10.239   1.060   9.332 -0.4841  0.0145  0.0474
60533SOL    HW188714  10.275   0.973   9.314 -1.8418 -0.6945  0.6095
60533SOL    HW288715  10.284   1.088   9.412  0.0585 -0.1117 -0.2126
60534SOL     OW88716  10.996   1.316  11.300 -0.6690  0.0913 -0.0386
60534SOL    HW188717  10.975   1.249  11.234 -0.0431 -1.3148  1.1139
60534SOL    HW288718  11.010   1.396  11.250  0.1852 -1.0101 -1.6709
60535SOL     OW88719   0.049   5.594   5.994  0.6406 -0.3422 -0.0572
60535SOL    HW188720   0.086   5.581   5.907 -1.0047  1.0388 -1.0247
60535SOL    HW288721   0.003   5.512   6.013  0.5805 -0.4709 -0.7309
60536SOL     OW88722   2.482  10.607   3.022  0.3462 -0.2919  0.2549
60536SOL    HW188723   2.551  10.630   2.959 -0.1150 -1.4569 -0.7342
60536SOL    HW288724   2.517  10.531   3.069  1.6886  1.9447  3.1877
60537SOL     OW88725  11.402   6.030  12.870  0.3302 -0.1496 -0.1042
60537SOL    HW188726  11.476   5.969  12.881  1.3087  0.7881 -1.2094
60537SOL    HW288727  11.427   6.084  12.795  0.1933  2.5771  1.6732
60538SOL     OW88728  10.358   6.576   6.997 -0.0764  0.7243  0.3561
60538SOL    HW188729  10.453   6.583   6.987  0.1023  0.4409  1.6241
60538SOL    HW288730  10.347   6.520   7.073 -1.2912 -1.1060 -1.0851
60539SOL     OW88731   1.797  10.529  12.443  0.1472 -0.1851  0.0748
60539SOL    HW188732   1.889  10.527  12.470 -0.1711  0.2181  1.2740
60539SOL    HW288733   1.786  10.451  12.390  0.6939 -1.3743  1.6400
60540SOL     OW88734   8.964   3.806  10.525 -0.3522  0.0684 -0.1309
60540SOL    HW188735   8.999   3.844  10.606 -0.7455 -1.5773  0.8329
60540SOL    HW288736   9.000   3.718  10.522 -1.0285 -0.1876 -1.3231
60541SOL     OW88737   7.957   1.244  12.639  0.1314  0.3150 -0.1239
60541SOL    HW188738   8.037   1.203  12.605  1.2100  2.0767  0.1734
60541SOL    HW288739   7.909   1.271  12.561 -0.4760 -1.2236 -0.3175
60542SOL     OW88740   9.496  12.879  12.118  0.4018  0.5893  0.1274
60542SOL    HW188741   9.552  12.953  12.141  1.5723 -0.6110  1.3681
60542SOL    HW288742   9.557  12.813  12.085 -0.4600 -0.2469  0.1859
60543SOL     OW88743   6.135  12.795   6.226  0.1621  0.4085  0.1813
60543SOL    HW188744   6.130  12.844   6.144 -0.9019 -0.1868 -0.1301
60543SOL    HW288745   6.096  12.854   6.291 -1.7269 -0.2403 -0.3170
60544SOL     OW88746   4.078   8.177  10.290  0.1931 -0.1877  0.2078
60544SOL    HW188747   4.029   8.113  10.239  1.1215 -0.4381 -0.3899
60544SOL    HW288748   4.138   8.217  10.228  1.1517 -0.2987  1.0389
60545SOL     OW88749   8.930   9.509  12.219  0.6353  0.0353 -0.3972
60545SOL    HW188750   8.860   9.575  12.223  0.5589 -0.0452 -0.4074
60545SOL    HW288751   9.005   9.557  12.184  1.2052  0.6728  1.5766
60546SOL     OW88752  11.774   7.179   1.227 -0.0030 -0.1813 -0.0789
60546SOL    HW188753  11.707   7.184   1.296 -0.0919  0.3625 -0.1986
60546SOL    HW288754  11.778   7.268   1.192  1.4252  0.0173  0.5299
60547SOL     OW88755   8.099   8.925   6.352 -0.0194  0.4095  0.2683
60547SOL    HW188756   8.129   8.835   6.340 -2.1287 -0.3763  0.3729
60547SOL    HW288757   8.143   8.955   6.431 -0.1652 -0.9655  0.9019
60548SOL     OW88758   5.876   1.557   6.861  0.2570 -0.0360 -0.2378
60548SOL    HW188759   5.919   1.474   6.841  0.1406 -0.6355  1.8257
60548SOL    HW288760   5.794   1.532   6.902  0.2585  1.0932  0.4833
60549SOL     OW88761  12.362  10.691   9.465  0.6818 -0.2388  0.7708
60549SOL    HW188762  12.358  10.770   9.411  1.2998 -1.6015 -1.3558
60549SOL    HW288763  12.441  10.704   9.519  1.1023  0.3561  0.0460
60550SOL     OW88764   6.912   3.546  11.441  0.7309  0.2356  0.5971
60550SOL    HW188765   6.861   3.606  11.387 -0.0858 -1.6005 -0.8173
60550SOL    HW288766   7.004   3.569  11.424  0.4383  2.0500  1.3310
60551SOL     OW88767  11.542   5.806   1.474  0.3556  0.1879 -0.2137
60551SOL    HW188768  11.598   5.878   1.504 -1.2804  0.9991  1.0982
60551SOL    HW288769  11.550   5.739   1.543  1.2952 -0.6082 -1.0634
60552SOL     OW88770   8.066  11.831   7.216  0.5873 -0.0614 -0.0840
60552SOL    HW188771   8.090  11.744   7.183  1.0545 -0.0853  0.3157
60552SOL    HW288772   8.120  11.892   7.166  0.0584  0.0328 -0.5646
60553SOL     OW88773  11.886   5.734   9.221 -0.3682  0.1111  0.1592
60553SOL    HW188774  11.913   5.764   9.134  0.0735 -0.1939  0.1872
60553SOL    HW288775  11.898   5.811   9.277 -1.2388  0.4875 -0.1624
60554SOL     OW88776  12.465  11.609  11.100  0.2178  0.1345 -0.2753
60554SOL    HW188777  12.408  11.532  11.088  1.6521 -0.8000 -1.3717
60554SOL    HW288778  12.473  11.646  11.012 -0.4385  1.5797  0.2344
60555SOL     OW88779   4.224  11.704   7.969 -0.0002 -0.6065  0.4160
60555SOL    HW188780   4.229  11.800   7.972  0.4136 -0.6471  1.6411
60555SOL    HW288781   4.297  11.675   8.023  1.0544 -1.6669 -1.4579
60556SOL     OW88782   2.718   2.519   5.765  0.2564  0.0783  0.2764
60556SOL    HW188783   2.638   2.522   5.712  0.4485 -2.4641 -0.3238
60556SOL    HW288784   2.789   2.535   5.703  0.2967  1.3161  0.6178
60557SOL     OW88785   2.458  12.209  11.325 -0.3135 -0.6072 -0.2747
60557SOL    HW188786   2.378  12.158  11.328  0.0779 -1.2578 -0.6487
60557SOL    HW288787   2.516  12.161  11.266 -0.3912  0.9488 -1.7044
60558SOL     OW88788   3.358   0.524   8.824  0.0727 -0.1953  0.4187
60558SOL    HW188789   3.340   0.469   8.900  1.1416  0.0557  0.8645
60558SOL    HW288790   3.330   0.611   8.850 -0.3660 -0.2647  0.1983
60559SOL     OW88791   6.555   5.666   9.683 -0.1985 -0.3679  0.6967
60559SOL    HW188792   6.560   5.598   9.616  2.7126 -0.7596  1.2060
60559SOL    HW288793   6.552   5.748   9.634 -0.1515 -0.7260  0.0920
60560SOL     OW88794  11.889   7.873  12.552 -0.2440  0.4391  0.0092
60560SOL    HW188795  11.943   7.947  12.580  1.1867 -0.8437  0.8302
60560SOL    HW288796  11.894   7.811  12.625 -2.1344 -0.1172 -0.2732
60561SOL     OW88797   0.101   2.673   6.681  0.0394  0.2496 -0.2013
60561SOL    HW188798   0.182   2.691   6.728  0.3215 -1.2307 -0.0642
60561SOL    HW288799   0.033   2.677   6.748  0.0594  0.9735 -0.2187
60562SOL     OW88800   6.860  12.959   5.738  0.4603  0.2364 -0.1371
60562SOL    HW188801   6.826  12.872   5.717 -1.2409  0.8813 -0.1749
60562SOL    HW288802   6.904  12.947   5.822 -0.7623 -0.4344  0.4368
60563SOL     OW88803  10.970   8.284   6.449  0.2107  0.2780 -0.2241
60563SOL    HW188804  10.912   8.224   6.403  0.1437  0.0907  0.1045
60563SOL    HW288805  10.981   8.245   6.536 -0.1456  0.9377  0.1258
60564SOL     OW88806   5.021   5.490   5.497  0.6910 -0.0846 -0.9935
60564SOL    HW188807   5.013   5.430   5.571  1.1767  0.3685 -0.5635
60564SOL    HW288808   5.042   5.574   5.537 -0.3217  0.4620 -1.5623
60565SOL     OW88809   4.172   0.428   3.918  0.0886  0.5126 -0.3878
60565SOL    HW188810   4.191   0.454   3.828 -0.1251  1.6865 -0.1117
60565SOL    HW288811   4.231   0.355   3.935  1.5507  1.5353 -0.8458
60566SOL     OW88812   5.380   9.924   1.960 -0.0708  0.6141  0.1892
60566SOL    HW188813   5.328  10.001   1.986 -2.2550 -0.4828 -0.6583
60566SOL    HW288814   5.343   9.897   1.876  1.9019 -0.2829 -0.4401
60567SOL     OW88815   6.871   5.635   2.711 -0.2947  0.5892 -0.1253
60567SOL    HW188816   6.930   5.563   2.730 -1.0563 -0.1385 -0.4479
60567SOL    HW288817   6.842   5.665   2.798 -2.2871 -1.4882  0.0444
60568SOL     OW88818   6.077  11.759   3.232 -0.6561 -0.2342  0.0655
60568SOL    HW188819   5.994  11.750   3.280 -2.0518 -2.6414 -2.4902
60568SOL    HW288820   6.080  11.851   3.206 -3.1904 -0.2972 -0.7242
60569SOL     OW88821   4.114   3.911   7.103  0.7580  0.1329 -0.0262
60569SOL    HW188822   4.121   4.003   7.079  0.3397  0.3941  0.7904
60569SOL    HW288823   4.135   3.909   7.197 -0.5118 -0.3953  0.2781
60570SOL     OW88824   8.973   8.620   9.868  0.1532  0.1219 -0.0300
60570SOL    HW188825   9.018   8.536   9.878 -2.5095 -1.4565 -0.3332
60570SOL    HW288826   9.005   8.654   9.784  2.6673  0.4209  0.9563
60571SOL     OW88827   6.305   6.062  10.003 -0.0904  0.5739 -0.3132
60571SOL    HW188828   6.234   6.107   9.958  1.8885  1.8773 -2.3508
60571SOL    HW288829   6.347   6.009   9.934  0.3645 -0.9204  1.0490
60572SOL     OW88830   3.201   1.968   0.827 -0.3941  0.5216  0.6865
60572SOL    HW188831   3.256   2.042   0.851  0.9362 -0.5732  1.1008
60572SOL    HW288832   3.261   1.894   0.818 -1.5952 -0.3746 -0.4020
60573SOL     OW88833   6.994   8.651  11.928  0.3653  0.3988 -0.2967
60573SOL    HW188834   6.958   8.679  11.843 -0.1615  0.3597 -0.0895
60573SOL    HW288835   7.089   8.657  11.917  0.3664 -1.1066 -1.4205
60574SOL     OW88836   8.950   2.102  10.299 -0.1510  0.2976  0.6672
60574SOL    HW188837   8.867   2.102  10.252  0.5870 -0.0641 -0.7099
60574SOL    HW288838   8.935   2.047  10.376 -1.1217  0.0379  0.3012
60575SOL     OW88839   2.228   8.308   3.427 -0.0184  0.9447 -0.2067
60575SOL    HW188840   2.254   8.401   3.427  0.9590  0.6893 -1.0976
60575SOL    HW288841   2.292   8.266   3.369 -0.5465 -0.2642  0.0805
60576SOL     OW88842   6.715   2.876   1.431 -0.0657 -0.3776  0.0959
60576SOL    HW188843   6.627   2.880   1.466  0.1405 -2.5656  1.0206
60576SOL    HW288844   6.703   2.878   1.336 -0.9545  1.0022  0.2118
60577SOL     OW88845   3.775   9.390   9.232 -0.0267  0.3264 -0.0071
60577SOL    HW188846   3.806   9.475   9.200  0.0476  0.4180  0.3114
60577SOL    HW288847   3.850   9.354   9.280 -1.1712  1.6216  2.9066
60578SOL     OW88848   1.463  11.296   9.427  0.4355  0.4213  0.2355
60578SOL    HW188849   1.464  11.212   9.381 -1.0807  0.1393  0.6665
60578SOL    HW288850   1.396  11.285   9.495 -0.2803  2.2160 -0.1360
60579SOL     OW88851   8.036   7.827  12.567 -0.6804 -0.5574  0.0359
60579SOL    HW188852   7.958   7.836  12.620 -1.3083 -0.2736 -0.9080
60579SOL    HW288853   8.010   7.770  12.495 -0.3421  0.3864 -0.8632
60580SOL     OW88854  12.370   8.266   2.001 -0.0578  0.3144 -0.1853
60580SOL    HW188855  12.341   8.350   1.965  0.3049  0.0971 -1.0059
60580SOL    HW288856  12.464   8.263   1.981  0.7715  1.2773  2.9060
60581SOL     OW88857  10.950   3.823   6.434  0.3954  0.2578 -0.4011
60581SOL    HW188858  10.951   3.793   6.525  0.0874  1.0278 -0.1322
60581SOL    HW288859  10.858   3.817   6.408  0.5715 -0.5195 -0.8594
60582SOL     OW88860  12.321   4.819   3.605 -0.0710 -0.0035  0.2256
60582SOL    HW188861  12.307   4.732   3.644 -0.2929 -0.0936 -0.0595
60582SOL    HW288862  12.239   4.866   3.619 -0.8732 -0.6966 -1.8663
60583SOL     OW88863  10.077   7.680   9.192 -0.5252  0.3604  0.0459
60583SOL    HW188864  10.043   7.672   9.281  0.6327 -2.8460  0.3394
60583SOL    HW288865  10.167   7.650   9.198 -0.0322  1.2253 -2.0439
60584SOL     OW88866   3.880   5.454   4.491  0.3452  0.3886 -0.2877
60584SOL    HW188867   3.825   5.505   4.433 -0.4584  1.0002  0.9672
60584SOL    HW288868   3.966   5.496   4.487  0.4886  0.0156 -1.5149
60585SOL     OW88869   8.038   3.144   1.829  0.0762 -0.0834 -0.0805
60585SOL    HW188870   8.105   3.171   1.891  1.0917 -1.8451 -0.3223
60585SOL    HW288871   7.956   3.171   1.868  0.9092  2.3484  0.1148
60586SOL     OW88872   7.174  11.325   6.073  0.4215  0.0121  0.1106
60586SOL    HW188873   7.175  11.268   6.150  2.4617 -0.6537 -0.3472
60586SOL    HW288874   7.125  11.402   6.101 -0.6060 -1.0659  1.4126
60587SOL     OW88875   2.868  11.518   6.168 -0.1565  0.7106  0.5464
60587SOL    HW188876   2.882  11.613   6.161  1.2434  0.4823 -0.3508
60587SOL    HW288877   2.902  11.484   6.085 -0.0115 -0.6379  1.1436
60588SOL     OW88878  10.558   7.278   9.211  0.4169  0.0653  0.3133
60588SOL    HW188879  10.519   7.304   9.127 -1.5020 -1.8917  0.4990
60588SOL    HW288880  10.485   7.244   9.262  1.6753  0.4669  2.5229
60589SOL     OW88881  10.925   4.425   8.151  0.0538  0.3814 -0.0825
60589SOL    HW188882  10.918   4.383   8.065  1.4876  0.0730 -0.0775
60589SOL    HW288883  10.996   4.489   8.141  1.9547 -1.3374  1.4624
60590SOL     OW88884  10.447  11.016   9.697 -0.6077  0.4016  0.2812
60590SOL    HW188885  10.387  10.964   9.751  1.3616 -0.7493  1.4881
60590SOL    HW288886  10.525  11.027   9.752  1.4778 -0.7457 -2.2466
60591SOL     OW88887   4.984   7.384   2.539 -0.2240  0.4437  0.3443
60591SOL    HW188888   4.890   7.371   2.524 -0.1330 -0.9642  0.8814
60591SOL    HW288889   4.988   7.427   2.624 -0.3905  0.6380  0.2556
60592SOL     OW88890   2.451  10.547   9.289 -0.4675  0.3466  0.2834
60592SOL    HW188891   2.544  10.567   9.300 -0.6859  0.1903  2.9265
60592SOL    HW288892   2.450  10.452   9.273 -0.0417  0.7965 -3.1068
60593SOL     OW88893   7.398  12.277   5.390 -0.6373  0.5543 -0.6218
60593SOL    HW188894   7.379  12.265   5.297 -0.3787 -2.2703 -0.4094
60593SOL    HW288895   7.312  12.284   5.431 -0.7714  1.1881 -1.0032
60594SOL     OW88896   6.943   1.937  12.367 -0.5272  0.6484 -0.2945
60594SOL    HW188897   6.914   1.936  12.276 -0.2707 -1.6683 -0.4159
60594SOL    HW288898   7.001   1.861  12.375  1.9587  2.5061  1.0724
60595SOL     OW88899   3.604   7.856  10.768  0.2750  0.6154 -0.1594
60595SOL    HW188900   3.593   7.947  10.740  1.5595  0.4706 -1.2587
60595SOL    HW288901   3.571   7.805  10.694 -0.7995  0.1622  0.6109
60596SOL     OW88902  12.511  12.139   4.679  0.1476  0.0474  0.0729
60596SOL    HW188903  12.584  12.090   4.640 -0.2824 -0.8319  0.3465
60596SOL    HW288904  12.459  12.167   4.604 -1.8040 -3.3713 -0.0870
60597SOL     OW88905  10.078   3.202   5.973 -0.0258  1.1247  0.1140
60597SOL    HW188906  10.104   3.162   5.890 -2.0368 -0.5285  0.2063
60597SOL    HW288907  10.075   3.129   6.035 -1.6255  1.7592  0.8519
60598SOL     OW88908   2.760   1.445   9.451 -0.2425  0.0814  0.0976
60598SOL    HW188909   2.757   1.431   9.357 -1.8054  0.7443  0.0248
60598SOL    HW288910   2.669   1.454   9.478  0.1704 -0.0397  1.6726
60599SOL     OW88911   8.350   4.759  12.343  0.1293 -0.2335 -0.2629
60599SOL    HW188912   8.431   4.767  12.294 -0.1220 -1.8794 -1.0020
60599SOL    HW288913   8.368   4.694  12.411  0.8168  2.7528  2.7017
60600SOL     OW88914   0.152   7.448  12.524 -0.4233  0.2267 -0.0503
60600SOL    HW188915   0.185   7.384  12.587  2.6905  0.9045 -0.7745
60600SOL    HW288916   0.166   7.533  12.568 -0.3309  0.5876 -0.7668
60601SOL     OW88917  10.811   0.789   5.730  0.2092  0.3396 -0.2214
60601SOL    HW188918  10.832   0.708   5.776 -0.2460 -0.1535 -0.8526
60601SOL    HW288919  10.881   0.800   5.666 -0.2783 -0.1386 -0.8547
60602SOL     OW88920  10.517   7.789   0.188  0.5223 -0.2879  0.1632
60602SOL    HW188921  10.474   7.734   0.253 -1.5861  0.2868 -0.6684
60602SOL    HW288922  10.502   7.879   0.218 -0.1104 -0.0281 -0.8798
60603SOL     OW88923   1.253  12.319   3.564 -0.2233  0.1107  0.1306
60603SOL    HW188924   1.174  12.339   3.513 -0.9767 -0.4810  1.0315
60603SOL    HW288925   1.226  12.249   3.623  0.4263  1.2274  1.8117
60604SOL     OW88926   0.582   8.115   8.873 -0.4127 -0.9873 -0.2668
60604SOL    HW188927   0.677   8.107   8.870 -0.1989  0.6770  0.6671
60604SOL    HW288928   0.557   8.080   8.958  0.1666  4.0534  2.3352
60605SOL     OW88929   3.697   9.344   3.126 -0.6635 -0.0270  0.1886
60605SOL    HW188930   3.775   9.335   3.072 -0.4553 -0.1011  0.4957
60605SOL    HW288931   3.636   9.280   3.092 -0.8295  0.4761 -0.4678
60606SOL     OW88932   4.742  10.890   3.250  0.2080 -1.0029  0.7384
60606SOL    HW188933   4.712  10.924   3.335  1.6163 -2.0808  1.7082
60606SOL    HW288934   4.762  10.798   3.266  1.0974 -1.0754 -0.6196
60607SOL     OW88935   5.460   9.366   8.440  0.5079  0.5331 -0.1809
60607SOL    HW188936   5.374   9.324   8.438 -0.0401  1.6204 -0.3771
60607SOL    HW288937   5.511   9.319   8.374 -0.2246  0.4368 -0.7014
60608SOL     OW88938   9.172   5.822   6.699 -0.4724 -0.5972  0.2262
60608SOL    HW188939   9.147   5.738   6.735  0.8539 -0.9099  0.4461
60608SOL    HW288940   9.184   5.879   6.775 -0.9911 -0.3077  0.0974
60609SOL     OW88941  10.376   9.345   6.635  0.3636 -0.6749  0.1684
60609SOL    HW188942  10.423   9.314   6.557 -0.0629 -3.6528  0.9653
60609SOL    HW288943  10.437   9.330   6.707  0.0685  0.3139  0.6339
60610SOL     OW88944   4.044   5.165   6.003 -0.6373 -0.2098  0.1893
60610SOL    HW188945   4.112   5.103   5.977  0.2425  0.9898 -0.5125
60610SOL    HW288946   4.078   5.251   5.975 -1.0233  0.8197  2.6536
60611SOL     OW88947   9.661   1.503   5.056 -0.1604  0.2070  0.4976
60611SOL    HW188948   9.600   1.444   5.101 -1.3242  1.5367  0.7262
60611SOL    HW288949   9.690   1.452   4.980  0.1585 -1.2599  1.5623
60612SOL     OW88950   2.228  10.730  10.642  0.1939 -0.4594  0.0431
60612SOL    HW188951   2.145  10.682  10.640  0.7128 -1.3728 -1.4659
60612SOL    HW288952   2.290  10.670  10.685  0.3814 -0.3459 -0.0652
60613SOL     OW88953   3.988   3.921   9.624 -0.1903 -0.1733 -0.4111
60613SOL    HW188954   4.075   3.933   9.662 -0.7125 -0.2358  0.8445
60613SOL    HW288955   3.968   3.828   9.637 -0.1678 -0.3212 -1.3366
60614SOL     OW88956   8.167   4.147   9.742  0.2815 -0.1414  0.5420
60614SOL    HW188957   8.156   4.066   9.791  0.3399  0.3424  1.3937
60614SOL    HW288958   8.200   4.210   9.807  1.4159  0.2472 -0.3743
60615SOL     OW88959   4.438   7.699   5.840  0.5308  0.0367 -0.5005
60615SOL    HW188960   4.478   7.783   5.817 -0.0158  0.3746 -0.2367
60615SOL    HW288961   4.487   7.635   5.789  0.4135  0.6006 -1.3458
60616SOL     OW88962   1.993   8.681   4.734  0.2746  0.0523 -0.1096
60616SOL    HW188963   1.953   8.594   4.743 -0.7163  0.3284 -1.5270
60616SOL    HW288964   2.084   8.667   4.759 -0.5793 -0.5980  3.2545
60617SOL     OW88965   4.858  12.810  12.475  0.6390  0.2656  0.1434
60617SOL    HW188966   4.775  12.765  12.463  0.5948  0.7381 -1.5638
60617SOL    HW288967   4.861  12.831  12.569 -2.2524  2.3433 -0.1300
60618SOL     OW88968   8.562   3.395   2.116 -0.2241 -0.1789  0.5068
60618SOL    HW188969   8.491   3.440   2.162  0.9858  2.0641  0.2837
60618SOL    HW288970   8.637   3.454   2.122  0.7509 -1.0206 -1.9745
60619SOL     OW88971   6.202   1.776   0.728  0.5944 -0.3422  0.2362
60619SOL    HW188972   6.137   1.713   0.759  0.4763  0.0371  0.7779
60619SOL    HW288973   6.225   1.826   0.806 -0.5837  1.4342 -0.4836
60620SOL     OW88974   9.335   9.478   9.403  0.1305 -0.0249  0.1253
60620SOL    HW188975   9.306   9.523   9.323  1.2887 -0.9232 -0.8410
60620SOL    HW288976   9.271   9.503   9.469 -1.0469  0.4984 -1.1626
60621SOL     OW88977   1.961   3.026   5.611  0.0486  0.3284  0.6043
60621SOL    HW188978   1.866   3.030   5.616 -0.0629  0.0590 -0.8884
60621SOL    HW288979   1.991   3.100   5.664 -1.1098  2.7061 -1.8059
60622SOL     OW88980   8.537   2.928   6.636  0.5158  0.2035 -1.1235
60622SOL    HW188981   8.522   2.966   6.549 -0.7721  1.3120 -0.4498
60622SOL    HW288982   8.456   2.945   6.684  1.3100 -0.1207  0.3960
60623SOL     OW88983  11.103   0.679   6.405  0.1502  0.1591 -0.3530
60623SOL    HW188984  11.049   0.643   6.335  1.2379 -2.0949 -0.1104
60623SOL    HW288985  11.061   0.651   6.486  0.3192  0.5357 -0.1327
60624SOL     OW88986  10.402  10.117   1.139 -0.1930 -0.1667  0.1283
60624SOL    HW188987  10.330  10.068   1.178 -0.0509 -0.0770  0.5012
60624SOL    HW288988  10.360  10.193   1.098 -0.4319 -0.6901 -0.6057
60625SOL     OW88989   4.192   2.831   2.131 -0.1310  0.5531 -0.0664
60625SOL    HW188990   4.098   2.841   2.113 -0.4233 -0.2037  0.9531
60625SOL    HW288991   4.220   2.919   2.157 -0.6340  0.7152 -0.0508
60626SOL     OW88992   3.385   7.204   9.245 -0.2160  0.6780 -0.1549
60626SOL    HW188993   3.398   7.117   9.282  1.1748  0.6307 -0.7060
60626SOL    HW288994   3.313   7.194   9.184 -0.9254  0.2143  0.7385
60627SOL     OW88995   4.994   5.126   7.988 -0.4016 -0.1454 -0.0329
60627SOL    HW188996   4.927   5.078   7.940 -0.4112  0.3278 -0.5059
60627SOL    HW288997   4.960   5.132   8.077  0.2846 -2.3168  0.4299
60628SOL     OW88998   8.456   7.926   2.801 -0.2382  0.0706  0.0790
60628SOL    HW188999   8.502   8.001   2.839  0.0164 -0.3281  0.5736
60628SOL    HW289000   8.407   7.963   2.728  1.0327  0.4726 -0.6014
60629SOL     OW89001   7.747  11.521   4.791 -0.8798 -0.6733 -0.0872
60629SOL    HW189002   7.819  11.459   4.792  0.6817  1.0512 -0.1721
60629SOL    HW289003   7.727  11.532   4.698 -0.0653  0.1284 -0.1774
60630SOL     OW89004  11.773   0.187   2.190 -0.8527 -0.0215  0.0896
60630SOL    HW189005  11.739   0.103   2.221 -1.2860  0.6655  1.6106
60630SOL    HW289006  11.801   0.170   2.100  1.1420 -2.3498  1.0463
60631SOL     OW89007   0.077   9.700   6.325 -0.4676 -0.4902 -0.3339
60631SOL    HW189008   0.134   9.700   6.403 -1.7433  1.1952  0.6729
60631SOL    HW289009   0.027   9.619   6.332  1.1193 -1.5537 -0.7529
60632SOL     OW89010  11.714  12.863   8.425 -0.9626 -0.2733 -0.1240
60632SOL    HW189011  11.737  12.773   8.401  1.0822 -0.1614  1.1760
60632SOL    HW289012  11.721  12.865   8.520  0.6612  1.6320 -0.2195
60633SOL     OW89013  12.874  10.647  12.589  0.4522  0.5185 -0.6060
60633SOL    HW189014  12.835  10.577  12.537 -1.3154  1.0269 -0.0697
60633SOL    HW289015  12.925  10.602  12.656 -0.2255 -0.2674 -0.5976
60634SOL     OW89016   9.226   7.441   2.175  1.4824 -0.4413 -0.3003
60634SOL    HW189017   9.156   7.438   2.110 -1.3525 -1.6507  2.5578
60634SOL    HW289018   9.260   7.530   2.169 -1.8739  0.9932 -0.4045
60635SOL     OW89019   9.243   3.066  12.136 -0.0052 -0.1339 -0.1374
60635SOL    HW189020   9.213   3.116  12.061 -1.5783 -1.4089 -0.4018
60635SOL    HW289021   9.309   3.006  12.101  0.5295  0.4634 -0.1616
60636SOL     OW89022   6.314   6.701   2.487  0.4193  0.1271 -0.0592
60636SOL    HW189023   6.224   6.686   2.459  1.0169 -0.9182 -1.6031
60636SOL    HW289024   6.308   6.769   2.553 -1.5590 -0.3985  0.3617
60637SOL     OW89025  12.829   8.100   1.396 -0.3427 -0.5633 -0.1251
60637SOL    HW189026  12.820   8.187   1.358 -0.5967 -0.6692 -0.3090
60637SOL    HW289027  12.741   8.077   1.425 -0.0876 -0.3532  0.8270
60638SOL     OW89028   9.717   3.134   8.456  0.4478 -0.6477  0.1061
60638SOL    HW189029   9.686   3.065   8.397 -2.2463 -0.2729  0.9479
60638SOL    HW289030   9.731   3.209   8.400  3.7218 -1.8165 -0.8780
60639SOL     OW89031   3.963  10.365   4.700  0.4507  0.5706 -0.0001
60639SOL    HW189032   4.020  10.332   4.631 -2.3984  0.8130 -2.6659
60639SOL    HW289033   3.897  10.296   4.711 -1.6291  2.3788 -0.6898
60640SOL     OW89034   6.975  12.001   8.694 -0.2660 -0.3253 -0.2293
60640SOL    HW189035   6.932  12.086   8.687  0.5020  0.0423 -0.6720
60640SOL    HW289036   7.065  12.022   8.720 -0.0132 -0.9882 -0.5454
60641SOL     OW89037   0.103   0.838   2.905  0.2133 -0.3164 -0.3709
60641SOL    HW189038   0.139   0.880   2.983 -1.7789  0.9929 -0.0815
60641SOL    HW289039   0.074   0.752   2.935 -0.7971  0.2808  0.4505
60642SOL     OW89040  12.267   0.169  11.556 -0.2280 -0.2454 -0.1704
60642SOL    HW189041  12.329   0.239  11.580  1.8384 -1.6363 -1.1001
60642SOL    HW289042  12.298   0.139  11.470 -2.5977 -0.6599 -0.9536
60643SOL     OW89043   4.553   4.811   2.547 -0.1502 -0.0344 -0.2386
60643SOL    HW189044   4.614   4.835   2.478 -1.1104 -1.1603 -1.5367
60643SOL    HW289045   4.506   4.892   2.567  2.8611  1.3562  2.1033
60644SOL     OW89046   6.200   5.196   9.952 -0.5929  0.2594  0.3930
60644SOL    HW189047   6.259   5.246  10.008  0.2022  1.9530 -1.8137
60644SOL    HW289048   6.257   5.157   9.886 -1.6389 -0.4394 -0.1183
60645SOL     OW89049   7.414   0.572   8.178 -0.1769  0.0359  0.0628
60645SOL    HW189050   7.346   0.520   8.221  0.6031 -0.2696  0.9761
60645SOL    HW289051   7.493   0.554   8.229  0.6477  0.1852 -1.1187
60646SOL     OW89052   5.834  12.696  12.596  0.4577  0.4097  0.3829
60646SOL    HW189053   5.925  12.697  12.626 -0.0156  0.6481  1.9082
60646SOL    HW289054   5.799  12.781  12.624 -0.4021  0.0596  0.4018
60647SOL     OW89055   9.324   4.688   1.645 -0.3291 -0.4723 -0.0646
60647SOL    HW189056   9.403   4.646   1.611 -0.8834 -0.3558 -1.5792
60647SOL    HW289057   9.276   4.617   1.686 -0.0827 -0.8274 -0.3799
60648SOL     OW89058   7.110   8.864   3.705  0.1003 -0.0095 -0.0447
60648SOL    HW189059   7.132   8.910   3.624 -1.7822  0.4345 -0.3585
60648SOL    HW289060   7.067   8.931   3.760 -0.1450 -0.7048  0.6308
60649SOL     OW89061   2.754   5.699  10.580 -0.1835  0.2853  0.0430
60649SOL    HW189062   2.666   5.675  10.610 -0.5931  0.8483 -0.6861
60649SOL    HW289063   2.806   5.701  10.661 -1.0482  0.8309  0.6165
60650SOL     OW89064   5.981   0.941   0.162 -0.2461 -0.8902  0.5325
60650SOL    HW189065   6.034   1.005   0.209 -0.2743 -1.3252  1.1661
60650SOL    HW289066   6.042   0.872   0.138 -0.1312 -0.4458 -0.5169
60651SOL     OW89067   2.113   0.535   0.329  0.0461  0.5435  0.5564
60651SOL    HW189068   2.100   0.451   0.373  0.6873  0.9258  1.5214
60651SOL    HW289069   2.025   0.561   0.302 -0.2191 -0.2185  0.6561
60652SOL     OW89070  11.988  10.788   0.052  0.7569 -0.2246  0.5502
60652SOL    HW189071  11.967  10.733   0.127 -0.0895 -1.0760 -0.2915
60652SOL    HW289072  12.041  10.732  -0.005  0.7689  0.1712  0.1658
60653SOL     OW89073   1.570  10.323   4.518  0.0984 -0.6576 -0.6100
60653SOL    HW189074   1.576  10.246   4.575 -0.3052 -0.6324 -0.5318
60653SOL    HW289075   1.476  10.336   4.505  0.1323  0.1899 -0.1127
60654SOL     OW89076   1.727  11.790  11.796  0.0142  0.4182  0.0115
60654SOL    HW189077   1.750  11.737  11.719  0.4081  1.1590 -0.3936
60654SOL    HW289078   1.635  11.771  11.812  0.2592 -0.7501  0.1697
60655SOL     OW89079   2.922   6.634   4.021  0.0918  0.4244  0.2196
60655SOL    HW189080   2.996   6.643   3.961 -0.1452  0.0054 -0.1415
60655SOL    HW289081   2.917   6.541   4.040 -0.6754  0.3750 -0.1867
60656SOL     OW89082  11.341   9.798  11.078  0.0466 -0.1521  0.2703
60656SOL    HW189083  11.315   9.884  11.112  0.7454  0.0571  0.2932
60656SOL    HW289084  11.285   9.736  11.125 -0.7246  0.3147 -0.0194
60657SOL     OW89085   3.038   5.585  12.503 -0.1178  0.0485  0.5921
60657SOL    HW189086   3.044   5.679  12.520 -0.7843  0.1057  0.5317
60657SOL    HW289087   3.047   5.544  12.589  2.1331  0.0543  0.4191
60658SOL     OW89088   7.211   9.239   5.291  0.3077  0.1049 -0.1394
60658SOL    HW189089   7.214   9.204   5.202  1.5576 -0.3690  0.0696
60658SOL    HW289090   7.209   9.162   5.347 -0.0393  0.3977  0.2503
60659SOL     OW89091   5.223   1.999   5.554 -0.4670 -0.2034  0.5431
60659SOL    HW189092   5.157   1.930   5.555  1.6016 -2.3313  0.0825
60659SOL    HW289093   5.269   1.989   5.637 -0.4460  0.9619  0.6795
60660SOL     OW89094   3.215   6.035   6.089  0.2583  0.1020 -0.3803
60660SOL    HW189095   3.185   6.078   6.169  0.6014 -1.9621  0.9623
60660SOL    HW289096   3.306   6.064   6.078 -0.7454  2.9761 -1.9926
60661SOL     OW89097   5.517   0.498   5.073 -0.1891 -0.3124 -0.0080
60661SOL    HW189098   5.428   0.466   5.088  0.2286 -0.9317  1.2863
60661SOL    HW289099   5.545   0.455   4.992 -1.4612  0.7761 -1.0576
60662SOL     OW89100  11.842   6.060   0.612  0.3471 -0.5544  0.4806
60662SOL    HW189101  11.928   6.033   0.579  1.6747  2.2385  1.4012
60662SOL    HW289102  11.850   6.054   0.707  0.3497  1.7855  0.6825
60663SOL     OW89103   1.137   4.056   0.016 -0.0382 -0.6006 -0.0474
60663SOL    HW189104   1.065   3.997  -0.006  0.4123 -1.3897  0.5619
60663SOL    HW289105   1.215   4.015  -0.021  0.1835 -0.0085 -0.2608
60664SOL     OW89106  12.490   3.305   3.116 -0.0716  0.2881 -0.2673
60664SOL    HW189107  12.465   3.233   3.174  0.6121  0.2445 -0.0126
60664SOL    HW289108  12.423   3.306   3.047 -0.7674  0.1967  0.3979
60665SOL     OW89109   6.186   2.931  10.767 -0.4120  0.2492 -0.5585
60665SOL    HW189110   6.220   2.859  10.715  0.6986 -0.0879  0.5967
60665SOL    HW289111   6.092   2.913  10.774 -0.0513 -1.4915  0.3118
60666SOL     OW89112   8.961   8.824   0.980  0.0320 -0.0530  0.0970
60666SOL    HW189113   8.970   8.746   0.925  0.8768 -0.7800  1.2271
60666SOL    HW289114   8.891   8.874   0.939  1.5015  0.1068 -2.4297
60667SOL     OW89115   4.805  10.786   6.089 -0.3154 -0.2690 -0.2799
60667SOL    HW189116   4.722  10.776   6.042 -1.2013 -0.7134  1.2816
60667SOL    HW289117   4.863  10.720   6.051 -0.7563 -0.1328 -1.2135
60668SOL     OW89118   7.605  11.020   9.688 -0.4291  0.1675 -0.0407
60668SOL    HW189119   7.617  11.115   9.687  0.1364  0.3566  4.0533
60668SOL    HW289120   7.694  10.985   9.679 -0.5729  0.0478 -1.0087
60669SOL     OW89121   6.485   0.098   1.470 -0.1432  0.5322 -0.4008
60669SOL    HW189122   6.524   0.186   1.467  1.7668 -0.1360  1.8658
60669SOL    HW289123   6.545   0.043   1.419 -0.6290  0.3051 -0.7327
60670SOL     OW89124   9.897  10.625  10.696 -0.5231  0.1136 -0.2133
60670SOL    HW189125   9.925  10.535  10.679  1.4979  0.6925 -0.1895
60670SOL    HW289126   9.971  10.679  10.670 -1.6870  1.7974 -0.2034
60671SOL     OW89127   2.113   8.441   4.435  0.0572  0.1591  0.0125
60671SOL    HW189128   2.163   8.384   4.377 -1.0179  0.3839 -1.1879
60671SOL    HW289129   2.043   8.386   4.468  0.1814  0.2537  0.4316
60672SOL     OW89130   3.879  11.265   7.164 -0.1387  0.0108 -0.1158
60672SOL    HW189131   3.914  11.313   7.239  1.0838  0.3185 -0.8637
60672SOL    HW289132   3.785  11.258   7.182  0.0886  0.3491  1.2817
60673SOL     OW89133   2.508   9.439   9.438  0.1029  0.4081 -0.2042
60673SOL    HW189134   2.507   9.531   9.410 -1.8904  1.1062  1.8737
60673SOL    HW289135   2.524   9.443   9.532 -0.6669 -1.3447  0.0318
60674SOL     OW89136   0.080  12.623   6.164  0.0369 -0.2852  0.0713
60674SOL    HW189137   0.016  12.574   6.112 -1.0962  0.7188  0.4633
60674SOL    HW289138   0.102  12.699   6.110 -0.9351  0.6162  0.8840
60675SOL     OW89139   6.890   6.840  12.601 -0.0443 -0.6223  0.0981
60675SOL    HW189140   6.856   6.912  12.654 -0.2393 -0.9350  0.3981
60675SOL    HW289141   6.814   6.786  12.581 -0.4576  0.7387 -2.5361
60676SOL     OW89142   7.400  11.953   1.660 -0.4384  0.1357  0.5171
60676SOL    HW189143   7.383  11.879   1.602  1.7999 -0.1541  0.1419
60676SOL    HW289144   7.328  11.952   1.723 -1.7442 -0.8790 -0.9200
60677SOL     OW89145   8.734  11.352  12.304 -0.5271 -0.4791 -0.1585
60677SOL    HW189146   8.781  11.322  12.227 -1.5244  1.0934 -1.4360
60677SOL    HW289147   8.652  11.389  12.270 -0.4658  1.3569  1.5157
60678SOL     OW89148   6.452   4.107   8.066 -0.0730 -0.0702  0.1339
60678SOL    HW189149   6.407   4.033   8.108 -0.2303 -0.6899 -1.0767
60678SOL    HW289150   6.442   4.090   7.972 -0.2219  1.5682 -0.1683
60679SOL     OW89151   2.461   2.367   4.909 -0.2335  0.5226 -0.0261
60679SOL    HW189152   2.488   2.406   4.826  1.2584  0.7876  0.5533
60679SOL    HW289153   2.411   2.436   4.952 -0.6497  0.5345 -0.5235
60680SOL     OW89154   1.692  12.114   9.701 -0.2397 -0.8608 -0.4665
60680SOL    HW189155   1.657  12.201   9.721  1.3541 -0.1354 -0.6518
60680SOL    HW289156   1.717  12.079   9.787  0.1605 -0.6456 -0.4893
60681SOL     OW89157   9.893  12.650   4.497  0.0230  0.2520  0.0582
60681SOL    HW189158   9.799  12.637   4.511 -0.0640 -1.5329 -1.6449
60681SOL    HW289159   9.902  12.657   4.402  1.6077  0.3704  0.1959
60682SOL     OW89160   9.944   2.496   8.758  0.0327  0.0226 -0.2954
60682SOL    HW189161   9.919   2.581   8.794  1.6002 -0.0950  1.1458
60682SOL    HW289162   9.922   2.433   8.827 -0.1717 -0.6408 -0.9507
60683SOL     OW89163   2.310   8.606   8.046  0.0773  0.1097  0.6796
60683SOL    HW189164   2.259   8.545   8.099 -0.3946  1.0143  1.3048
60683SOL    HW289165   2.345   8.553   7.975  0.7725 -1.1664  1.9178
60684SOL     OW89166   5.822  11.633   5.834  0.2413  0.2969 -0.0608
60684SOL    HW189167   5.854  11.723   5.845 -1.4497  0.8888  0.3729
60684SOL    HW289168   5.897  11.578   5.857  1.4914  1.5701 -0.8595
60685SOL     OW89169   6.102   8.867   6.711 -0.0598 -0.0333 -0.6619
60685SOL    HW189170   6.129   8.890   6.622  0.6799  0.6090 -0.2866
60685SOL    HW289171   6.015   8.905   6.721 -0.7513 -1.2918 -1.5635
60686SOL     OW89172  12.834   5.930   2.603  0.4289  0.3172  0.1018
60686SOL    HW189173  12.796   6.013   2.630 -1.1927 -0.6232  0.8327
60686SOL    HW289174  12.875   5.896   2.683  1.4909  0.6026 -0.3055
60687SOL     OW89175   7.285   1.517  10.634 -0.2218  0.2202  0.4884
60687SOL    HW189176   7.217   1.470  10.682  0.7178 -1.1886  0.5007
60687SOL    HW289177   7.255   1.515  10.543 -0.2236 -0.3567  0.4977
60688SOL     OW89178  12.066   0.003   7.478 -0.8340 -0.4819  0.4342
60688SOL    HW189179  12.054  -0.062   7.409 -0.5868  1.1573 -1.2293
60688SOL    HW289180  11.995  -0.015   7.540 -0.9750 -2.0884 -0.1439
60689SOL     OW89181   3.328   4.108   0.737  0.1434 -0.1568 -0.0255
60689SOL    HW189182   3.359   4.198   0.747 -0.9009  0.0198  2.0714
60689SOL    HW289183   3.407   4.057   0.718  0.7035  1.2083 -1.5266
60690SOL     OW89184   6.383   0.021   4.379 -0.0674  0.3014  0.0515
60690SOL    HW189185   6.419   0.077   4.310  2.3258 -1.4550 -0.2609
60690SOL    HW289186   6.343  -0.051   4.331  1.9341 -1.1209  0.3889
60691SOL     OW89187   8.093   7.571   6.753 -0.7703 -0.1698  0.1398
60691SOL    HW189188   8.086   7.623   6.673  0.7684 -0.5314 -0.2648
60691SOL    HW289189   8.107   7.635   6.823  0.0034  0.0379 -0.1973
60692SOL     OW89190   2.083   6.212  11.067 -0.3606  0.5030 -0.5216
60692SOL    HW189191   2.047   6.202  11.155 -0.5066  0.0363 -0.6317
60692SOL    HW289192   2.048   6.138  11.018  0.4364  0.2525 -0.7331
60693SOL     OW89193   7.180   6.477   5.445 -0.0722  0.4183 -0.3845
60693SOL    HW189194   7.234   6.536   5.393 -0.4336 -0.9099 -2.3885
60693SOL    HW289195   7.188   6.392   5.400  0.5490 -1.1448  2.4393
60694SOL     OW89196   9.182   9.271  11.009  0.0657  0.2780 -1.1616
60694SOL    HW189197   9.218   9.196  10.962  0.3900  0.7574 -1.6872
60694SOL    HW289198   9.107   9.298  10.956 -1.9400 -1.4773  0.5491
60695SOL     OW89199   7.524   6.131   2.287  0.0221 -0.0347  0.2202
60695SOL    HW189200   7.505   6.058   2.346 -0.8700 -0.4052 -0.5007
60695SOL    HW289201   7.537   6.090   2.201 -1.2882  0.6799 -0.3603
60696SOL     OW89202   0.133   1.336   7.910 -0.0533  0.1611  0.2660
60696SOL    HW189203   0.110   1.357   8.001  0.8070  0.9497  0.3134
60696SOL    HW289204   0.139   1.422   7.867  2.2920 -0.0234  0.1429
60697SOL     OW89205   4.840   8.023   4.786  0.3584 -0.4995 -0.3231
60697SOL    HW189206   4.751   7.989   4.791  0.5760 -0.9391  1.1434
60697SOL    HW289207   4.865   8.038   4.877  1.6377 -0.0024 -0.7340
60698SOL     OW89208   8.152   5.319  10.250 -0.1955 -0.2820  0.5230
60698SOL    HW189209   8.123   5.236  10.212 -0.0985 -0.4933  0.9018
60698SOL    HW289210   8.193   5.294  10.333 -1.0537  0.2315  1.1213
60699SOL     OW89211   1.571   5.042   9.905  0.3148 -0.5332 -0.0055
60699SOL    HW189212   1.546   5.133   9.890  0.8560 -0.0535  1.7362
60699SOL    HW289213   1.612   5.014   9.824 -0.9871  0.3549 -1.0178
60700SOL     OW89214   9.902   7.515   9.543 -0.1171 -0.6310  0.0185
60700SOL    HW189215   9.892   7.598   9.497  0.2190 -1.4537 -1.5972
60700SOL    HW289216   9.836   7.518   9.612 -0.9022  0.4877 -0.7405
60701SOL     OW89217   3.679   4.618   6.177 -0.0643  0.4819  0.3227
60701SOL    HW189218   3.715   4.579   6.256  0.1613  2.0680  1.0545
60701SOL    HW289219   3.595   4.574   6.164  0.6113 -0.9061  0.5163
60702SOL     OW89220   1.863   5.739   3.687 -0.5007  0.2311  0.6241
60702SOL    HW189221   1.785   5.792   3.676 -0.1842  0.6083  0.1931
60702SOL    HW289222   1.854   5.670   3.622  0.0729  0.9279 -0.2058
60703SOL     OW89223  12.586   1.290   5.134  0.2825 -0.0878  0.4236
60703SOL    HW189224  12.509   1.237   5.113 -0.0559  0.2973  0.6762
60703SOL    HW289225  12.649   1.228   5.169  0.7748 -0.7195 -1.4900
60704SOL     OW89226   1.968   0.193   9.562 -0.3376 -0.3744  0.1511
60704SOL    HW189227   1.903   0.237   9.506  0.1566 -0.1851 -0.2773
60704SOL    HW289228   1.950   0.226   9.650 -1.1967 -0.7575  0.1302
60705SOL     OW89229   0.789  10.922   9.081  0.6099 -0.0432 -0.4482
60705SOL    HW189230   0.758  10.938   8.992 -0.7634 -1.6981 -0.3263
60705SOL    HW289231   0.735  10.979   9.135 -0.5282 -1.0569 -0.4696
60706SOL     OW89232   7.116   6.951   5.583 -0.9554  0.3275  0.3784
60706SOL    HW189233   7.069   6.994   5.655  0.3439  1.1526  0.7627
60706SOL    HW289234   7.167   7.020   5.542  0.8980 -0.7287  0.7660
60707SOL     OW89235  11.184  12.665   0.854 -0.0053 -0.2199  0.2565
60707SOL    HW189236  11.248  12.595   0.871 -1.6918 -1.3812  2.4171
60707SOL    HW289237  11.106  12.619   0.826  0.0685  1.1972 -2.5889
60708SOL     OW89238   7.955  10.879   3.666 -0.0511  0.4626 -0.1842
60708SOL    HW189239   7.995  10.870   3.752 -1.7902 -5.1769  0.4251
60708SOL    HW289240   7.861  10.888   3.683 -0.1845  2.9926 -1.6364
60709SOL     OW89241  10.550   6.579   7.230  0.2306  0.3076 -0.0768
60709SOL    HW189242  10.637   6.591   7.190  0.8979  0.4130  1.3536
60709SOL    HW289243  10.520   6.667   7.250  0.6798  0.1897  1.2154
60710SOL     OW89244   1.326   0.585  10.199  0.1057  0.3989  0.9966
60710SOL    HW189245   1.289   0.674  10.200 -0.6052  0.1981  4.1699
60710SOL    HW289246   1.416   0.596  10.230  0.4641  0.1198  0.0896
60711SOL     OW89247   0.101   3.042  10.160  0.0151  0.8204 -0.0468
60711SOL    HW189248   0.139   3.105  10.221  1.1475  0.9017 -0.8114
60711SOL    HW289249   0.035   2.995  10.212  2.5533 -0.7736  2.0098
60712SOL     OW89250   8.579   7.929   2.216  0.4322 -0.0328 -0.1154
60712SOL    HW189251   8.605   7.844   2.182  0.5975 -0.5397  1.2284
60712SOL    HW289252   8.527   7.910   2.294  0.1499  1.0881 -0.0017
60713SOL     OW89253  10.262   0.213   4.548 -0.3881  0.1530 -0.5457
60713SOL    HW189254  10.241   0.297   4.588  0.2366  0.9101 -1.7396
60713SOL    HW289255  10.297   0.235   4.461 -0.7982 -1.3595 -1.1458
60714SOL     OW89256   4.796   3.554   8.105 -0.5387  0.1966 -0.1777
60714SOL    HW189257   4.868   3.617   8.107  0.5489 -1.0078 -0.1133
60714SOL    HW289258   4.772   3.549   8.012 -1.4642  1.5608 -0.0548
60715SOL     OW89259   7.408  12.170  11.674  0.0035  0.0591  0.1129
60715SOL    HW189260   7.325  12.143  11.714  0.0737 -0.6119 -0.1811
60715SOL    HW289261   7.406  12.266  11.676  0.5245  0.0785  2.7800
60716SOL     OW89262   8.348   2.130   4.020  0.1577  0.1175 -0.5797
60716SOL    HW189263   8.286   2.192   4.056 -1.7576 -1.9493 -0.0636
60716SOL    HW289264   8.384   2.085   4.096  0.4259 -0.3620 -0.9836
60717SOL     OW89265   1.462   0.905   8.404 -0.1632 -0.1763  0.2778
60717SOL    HW189266   1.518   0.967   8.355 -0.8237  0.4815  0.3413
60717SOL    HW289267   1.387   0.957   8.431 -0.6602 -0.9817  0.4707
60718SOL     OW89268  11.500   9.525   1.296  0.3302 -0.1280  0.3165
60718SOL    HW189269  11.521   9.550   1.205 -0.2846  0.2817  0.2816
60718SOL    HW289270  11.584   9.501   1.334  0.4013 -1.8063 -0.8102
60719SOL     OW89271   8.446   4.753   0.998 -0.1364  0.0468 -0.0406
60719SOL    HW189272   8.536   4.779   1.021  0.6545 -1.5159 -1.2193
60719SOL    HW289273   8.404   4.835   0.972  1.0836  0.7356  0.0776
60720SOL     OW89274  11.523   9.096   8.653 -0.0660  0.2508  0.3938
60720SOL    HW189275  11.572   9.018   8.678 -1.9917 -0.7382  1.2696
60720SOL    HW289276  11.572   9.168   8.693  0.8606 -0.6533  0.9318
60721SOL     OW89277   2.160   8.702   3.858  0.7122  0.0668 -0.3833
60721SOL    HW189278   2.169   8.709   3.953 -4.1559  0.8839  0.2522
60721SOL    HW289279   2.175   8.791   3.825  0.4659  0.1889 -0.1586
60722SOL     OW89280   3.905   4.981   9.489  0.5823 -0.7311  0.4594
60722SOL    HW189281   3.928   5.043   9.419 -0.1663  2.2335  2.6664
60722SOL    HW289282   3.845   4.919   9.447  0.1933  0.9014 -1.5479
60723SOL     OW89283   9.632   0.773   1.976  0.5563 -0.1054 -0.8036
60723SOL    HW189284   9.567   0.714   2.015 -1.1985  1.4130 -1.2709
60723SOL    HW289285   9.692   0.793   2.048  0.2795 -1.2129 -0.2397
60724SOL     OW89286   4.679   1.779   7.875  0.3254  0.1602 -0.6382
60724SOL    HW189287   4.753   1.745   7.926 -0.3711  0.9305  0.9615
60724SOL    HW289288   4.613   1.711   7.880 -0.0409  0.5647  0.2057
60725SOL     OW89289   6.265  12.365   4.041  0.6653 -0.2154  0.6715
60725SOL    HW189290   6.355  12.398   4.036  0.7254 -0.3211  1.0780
60725SOL    HW289291   6.220  12.409   3.969  1.1329 -0.4505  0.2293
60726SOL     OW89292   4.737   7.045   1.666 -0.1541  0.2039 -0.4674
60726SOL    HW189293   4.750   6.960   1.625  0.5588 -0.4070  0.9455
60726SOL    HW289294   4.642   7.051   1.679 -0.2067 -0.4055 -0.5278
60727SOL     OW89295   1.017   3.887   3.624 -0.3523 -0.0089 -0.1784
60727SOL    HW189296   1.046   3.879   3.533  2.0761 -0.6161  0.6009
60727SOL    HW289297   0.978   3.802   3.644 -1.2142  0.2422 -0.7156
60728SOL     OW89298   7.555   0.564   4.880 -0.2258 -0.0645 -0.1026
60728SOL    HW189299   7.599   0.534   4.801 -0.5579  0.9639 -0.7023
60728SOL    HW289300   7.477   0.510   4.887  2.0595 -3.4508  2.1764
60729SOL     OW89301   4.053   1.452   8.471  0.4272 -0.2743  0.0509
60729SOL    HW189302   3.990   1.393   8.430  0.6043  1.5316 -3.1984
60729SOL    HW289303   4.136   1.404   8.468  0.1958 -0.6398 -0.7022
60730SOL     OW89304   1.398   5.838   0.462  0.3217 -0.0788 -0.4732
60730SOL    HW189305   1.323   5.788   0.496  0.6937 -0.0210  0.4701
60730SOL    HW289306   1.369   5.929   0.466  0.0708 -0.1244 -1.0953
60731SOL     OW89307  12.499  10.237   2.798  0.6110  0.1160  0.6308
60731SOL    HW189308  12.506  10.152   2.754 -0.8593 -0.7105  1.8861
60731SOL    HW289309  12.485  10.299   2.727 -2.6266 -1.3004 -0.1590
60732SOL     OW89310   8.824   6.265   4.511  0.2336 -0.6842 -0.0990
60732SOL    HW189311   8.731   6.285   4.520  0.4722 -0.0397  1.0414
60732SOL    HW289312   8.845   6.214   4.589  1.0113 -0.1505  0.0508
60733SOL     OW89313  10.944   4.237   6.662  0.3283 -0.3334  0.0021
60733SOL    HW189314  11.008   4.216   6.593 -0.9389 -0.0124 -1.3234
60733SOL    HW289315  10.915   4.151   6.694  1.5498 -0.4836  0.7727
60734SOL     OW89316   9.874   9.619   2.797  0.2307  0.2977 -0.2239
60734SOL    HW189317   9.962   9.602   2.763  0.0809  0.0868 -0.5119
60734SOL    HW289318   9.840   9.690   2.743 -0.0661 -0.1403 -0.6153
60735SOL     OW89319   8.761   2.130  11.031  0.1941 -0.0212 -0.4775
60735SOL    HW189320   8.822   2.109  11.101  1.0158 -3.6901 -2.0500
60735SOL    HW289321   8.675   2.131  11.074  0.9228  1.1822  1.0569
60736SOL     OW89322   3.730   8.616  10.395  0.1408  0.6728  0.1452
60736SOL    HW189323   3.741   8.697  10.346  0.2496  1.0537  0.7840
60736SOL    HW289324   3.777   8.631  10.477  0.0490  0.0127  0.3258
60737SOL     OW89325   3.807   4.495   8.071  0.2960  0.4425 -0.5859
60737SOL    HW189326   3.836   4.545   7.994  0.2312  1.0323 -0.2304
60737SOL    HW289327   3.888   4.455   8.105  0.6190  1.5785  0.0395
60738SOL     OW89328  11.534   3.287   0.354  0.3813  0.2505  0.8676
60738SOL    HW189329  11.466   3.273   0.288  0.3277  1.0263  0.7403
60738SOL    HW289330  11.602   3.338   0.308  1.5710 -1.4334  0.6818
60739SOL     OW89331   1.828  10.385   0.850  0.0582 -0.1097  0.1499
60739SOL    HW189332   1.797  10.468   0.887 -0.3555 -0.1838 -0.0252
60739SOL    HW289333   1.807  10.391   0.757 -1.4028 -1.0529  0.3963
60740SOL     OW89334   3.322   6.595   2.272  0.4520  0.5878  0.1800
60740SOL    HW189335   3.276   6.525   2.226 -0.0368  0.9167  0.1611
60740SOL    HW289336   3.390   6.550   2.322  0.1105  0.0974  0.2113
60741SOL     OW89337   8.740   9.072  11.677  0.3358 -0.1266  0.0507
60741SOL    HW189338   8.691   9.067  11.760  1.3762 -1.3111  0.6289
60741SOL    HW289339   8.708   8.998  11.626  0.6842 -0.2141 -0.0430
60742SOL     OW89340   6.157   9.542   6.216  0.0481 -0.0267  0.3037
60742SOL    HW189341   6.122   9.461   6.179  0.9491 -0.2395 -0.1055
60742SOL    HW289342   6.211   9.514   6.289  0.0556  0.2357  0.4011
60743SOL     OW89343   0.867   9.902   4.807  0.0082 -0.4300 -0.7104
60743SOL    HW189344   0.819   9.890   4.889  0.3793 -0.5107 -0.4992
60743SOL    HW289345   0.903   9.991   4.813  1.2168 -0.9372 -0.1419
60744SOL     OW89346  11.046   4.264   1.577 -0.2233 -0.1628 -1.1367
60744SOL    HW189347  11.029   4.257   1.483 -0.1239 -0.5938 -1.1244
60744SOL    HW289348  11.132   4.306   1.582 -0.0429 -0.5111 -1.2498
60745SOL     OW89349   6.171  11.889   9.940 -0.3332  0.7797  0.1472
60745SOL    HW189350   6.167  11.793   9.938  0.4808  0.6556  2.1467
60745SOL    HW289351   6.218  11.913   9.861 -1.0725 -0.4276 -0.6836
60746SOL     OW89352   3.158   0.368  12.916 -0.2666  0.0566  0.6355
60746SOL    HW189353   3.083   0.428  12.918 -1.1667 -0.9535 -0.7049
60746SOL    HW289354   3.134   0.299  12.978 -0.9506 -0.7709 -0.4954
60747SOL     OW89355   9.303   4.940   4.746  0.4692  0.3699  0.3870
60747SOL    HW189356   9.209   4.929   4.732  0.5943  0.4891 -0.6930
60747SOL    HW289357   9.312   4.960   4.839 -0.7512  2.0655  0.1946
60748SOL     OW89358   8.083  10.971   6.069  0.2832 -0.2877 -0.7677
60748SOL    HW189359   8.093  11.056   6.026  1.9463  1.0684  2.0210
60748SOL    HW289360   8.169  10.953   6.106 -0.5530 -2.2451  0.3798
60749SOL     OW89361  11.202  12.822  10.803 -0.4977  0.2223  0.2879
60749SOL    HW189362  11.240  12.872  10.875  1.4115 -1.2180  0.3578
60749SOL    HW289363  11.120  12.786  10.839 -2.9652  4.5642 -0.3209
60750SOL     OW89364   3.887  10.064  11.649  0.1848 -0.1564  0.3907
60750SOL    HW189365   3.957  10.003  11.626  1.2771  0.5286  1.7765
60750SOL    HW289366   3.925  10.151  11.637  0.0231  0.2312  2.3701
60751SOL     OW89367   5.387   1.776   6.158 -0.0365  0.6386 -0.1050
60751SOL    HW189368   5.388   1.821   6.242 -0.3598  0.5986 -0.0795
60751SOL    HW289369   5.313   1.814   6.111  0.5965  1.2043 -0.6715
60752SOL     OW89370   0.215   5.967   3.890 -0.3040 -0.1711 -0.2308
60752SOL    HW189371   0.213   5.879   3.853 -0.8630 -1.1744  2.0209
60752SOL    HW289372   0.305   5.997   3.877 -0.2680 -0.7880 -1.5848
60753SOL     OW89373   9.745   7.543  10.647 -0.4605  0.0989 -0.1937
60753SOL    HW189374   9.735   7.632  10.612  2.2907  1.2978  1.6877
60753SOL    HW289375   9.832   7.515  10.619  0.6413 -0.0429  2.9287
60754SOL     OW89376  10.511  12.325   6.497  0.1292  0.4129 -0.6086
60754SOL    HW189377  10.424  12.333   6.536  1.1020 -0.9224  2.0751
60754SOL    HW289378  10.496  12.284   6.412 -1.8333  0.0010 -0.1028
60755SOL     OW89379  10.049   0.543   6.669  0.2541 -0.1988 -0.3058
60755SOL    HW189380   9.969   0.553   6.720  0.5024  2.0121 -0.2799
60755SOL    HW289381  10.094   0.469   6.710 -0.1987  0.6261  1.7939
60756SOL     OW89382  11.436   8.702   4.555 -0.3114 -0.2101 -0.1201
60756SOL    HW189383  11.416   8.647   4.631 -2.6193 -0.9729 -1.1930
60756SOL    HW289384  11.511   8.658   4.515 -0.0899 -0.7266  0.8120
60757SOL     OW89385  12.741   4.663   7.072 -0.2080  0.0771 -0.3273
60757SOL    HW189386  12.825   4.622   7.050 -0.0189  0.0228  0.4666
60757SOL    HW289387  12.715   4.708   6.991  1.5595  1.7654 -0.0397
60758SOL     OW89388   0.931   9.082   0.482 -0.0573 -0.4065  0.9069
60758SOL    HW189389   0.955   9.001   0.527 -2.2460 -2.3364 -1.0961
60758SOL    HW289390   0.848   9.108   0.522 -1.6664 -1.7586 -1.2631
60759SOL     OW89391   1.263   1.188   7.650 -0.4819 -0.2481  0.0147
60759SOL    HW189392   1.222   1.103   7.666 -0.2097 -0.4235 -0.2258
60759SOL    HW289393   1.225   1.245   7.717 -0.8147 -0.5091  0.0500
60760SOL     OW89394   3.984  11.205   4.928 -0.0734 -0.2931  0.1154
60760SOL    HW189395   3.933  11.285   4.943  0.8180  0.2310  0.4957
60760SOL    HW289396   4.075  11.236   4.926  0.2715 -1.2910  0.1586
60761SOL     OW89397   1.324   1.412  12.711 -0.5059 -0.2752  0.1030
60761SOL    HW189398   1.292   1.330  12.674 -0.4150 -0.2819  0.0385
60761SOL    HW289399   1.391   1.442  12.649 -1.3387  0.4334 -0.4808
60762SOL     OW89400   8.877  10.301   3.652  0.4005 -0.3695 -0.4812
60762SOL    HW189401   8.926  10.376   3.687  2.1911 -0.8706 -1.7646
60762SOL    HW289402   8.932  10.267   3.582 -1.5841 -1.3219 -1.6773
60763SOL     OW89403  11.386   0.313   3.510 -0.0230 -0.0589 -0.3699
60763SOL    HW189404  11.420   0.389   3.464  3.7568 -0.2361  1.6993
60763SOL    HW289405  11.412   0.238   3.456  1.0558 -0.0652  0.1162
60764SOL     OW89406  10.914   3.850   3.972  0.1874  0.0985 -0.4575
60764SOL    HW189407  10.947   3.763   3.948 -0.0622  0.0968 -0.8085
60764SOL    HW289408  10.976   3.881   4.038  0.5903 -0.1210 -0.7201
60765SOL     OW89409  10.063   4.690   6.799  0.2842  0.0949 -0.6221
60765SOL    HW189410   9.984   4.678   6.747 -1.7792  0.7657  2.0916
60765SOL    HW289411  10.103   4.769   6.764 -0.6170  0.1382 -1.6190
60766SOL     OW89412   7.236   9.770   7.456  0.1715 -0.4974  0.1641
60766SOL    HW189413   7.240   9.865   7.459  1.1644 -0.4550 -1.4255
60766SOL    HW289414   7.211   9.750   7.365  0.7570 -1.7500  0.2583
60767SOL     OW89415   3.875   2.856   7.811 -0.0750 -0.1113 -0.1246
60767SOL    HW189416   3.882   2.761   7.812  1.5429 -0.0208 -0.9888
60767SOL    HW289417   3.865   2.879   7.719 -0.8958  0.5553  0.1109
60768SOL     OW89418   9.471  11.920   9.041 -0.5432  0.3942  0.0036
60768SOL    HW189419   9.556  11.881   9.020 -0.4181  0.8289 -0.2991
60768SOL    HW289420   9.448  11.972   8.964 -1.7545 -0.8399 -0.5183
60769SOL     OW89421  12.346   1.431  10.989 -0.0533 -0.0971  0.1560
60769SOL    HW189422  12.315   1.459  10.902 -0.6429  0.0554  0.4086
60769SOL    HW289423  12.313   1.342  10.998 -0.1131 -0.0634  0.2754
60770SOL     OW89424   0.526   3.735   6.811  0.2197 -0.3603 -0.0886
60770SOL    HW189425   0.471   3.814   6.809 -0.1084 -0.5570  0.7573
60770SOL    HW289426   0.473   3.670   6.856  0.1795 -1.3266 -1.4748
60771SOL     OW89427   0.690   0.929   3.338  0.1908  0.3993 -0.3813
60771SOL    HW189428   0.739   0.849   3.358 -1.9876 -1.4955 -2.0963
60771SOL    HW289429   0.704   0.942   3.244  1.0439  2.5055 -0.0220
60772SOL     OW89430   7.874   8.075   1.486 -0.6052 -0.2574  0.1419
60772SOL    HW189431   7.816   8.105   1.417 -1.8776 -1.9220  0.4342
60772SOL    HW289432   7.962   8.087   1.450 -0.9295  3.6365  0.2321
60773SOL     OW89433   6.244   6.990   9.531  0.0560 -0.0905  0.1699
60773SOL    HW189434   6.181   6.926   9.497 -0.8443  1.1332 -0.5783
60773SOL    HW289435   6.231   7.067   9.475  1.5824  0.5112  0.6096
60774SOL     OW89436   6.006   2.995  10.472  0.3525  0.7703  0.1512
60774SOL    HW189437   5.933   3.056  10.462  0.5574  0.8633 -0.8827
60774SOL    HW289438   6.024   2.995  10.566 -0.8476  0.8951  0.4044
60775SOL     OW89439   9.118   5.008   0.903  0.3787 -0.0961  0.0204
60775SOL    HW189440   9.150   5.080   0.849 -0.0566  0.2124  0.1659
60775SOL    HW289441   9.194   4.981   0.955  0.3733  0.7435  0.4857
60776SOL     OW89442   9.479   1.764   2.311  0.0030  0.0084  1.1381
60776SOL    HW189443   9.522   1.772   2.397  0.4859 -2.9560  1.2792
60776SOL    HW289444   9.483   1.671   2.291 -2.6461  0.1967 -0.8304
60777SOL     OW89445  10.792  12.535   3.782  0.0488  0.2853  0.1105
60777SOL    HW189446  10.811  12.450   3.743 -2.3909  0.4949 -1.7619
60777SOL    HW289447  10.842  12.598   3.730 -0.1293  0.2087 -0.1545
60778SOL     OW89448   0.332   3.668   4.709 -0.5558 -0.4107 -0.2638
60778SOL    HW189449   0.280   3.669   4.628  0.3086 -1.2889 -0.8516
60778SOL    HW289450   0.370   3.581   4.712  0.3734  0.0006  0.4825
60779SOL     OW89451   1.029  12.668   4.732  0.1198 -0.4098 -0.4133
60779SOL    HW189452   0.987  12.753   4.719  1.0477  0.1131 -0.0992
60779SOL    HW289453   0.957  12.608   4.752 -0.3377  0.7989  1.8430
60780SOL     OW89454   9.085   3.342   6.110  0.1809 -0.0277  0.3684
60780SOL    HW189455   9.174   3.373   6.095  0.6918 -1.3707  0.5211
60780SOL    HW289456   9.035   3.421   6.130  0.8186  1.0720 -2.0368
60781SOL     OW89457   6.569  10.337  10.408 -0.3653 -0.8437 -0.1634
60781SOL    HW189458   6.591  10.287  10.486 -1.4303  1.7467  1.9801
60781SOL    HW289459   6.480  10.311  10.387 -0.3809 -0.9289  0.0075
60782SOL     OW89460   8.921   3.766  12.496 -0.2295  0.7557  0.5660
60782SOL    HW189461   9.012   3.742  12.476  0.0201 -0.0413  2.4565
60782SOL    HW289462   8.914   3.857  12.468  1.8938  1.5958  2.4330
60783SOL     OW89463   8.102   4.544   9.613  0.4572  0.3664  0.6344
60783SOL    HW189464   8.013   4.517   9.635  0.7715 -0.8759  0.4246
60783SOL    HW289465   8.128   4.486   9.542  1.9501 -0.2484  1.6451
60784SOL     OW89466  11.069   8.558   3.484  0.4134  0.0538  0.6422
60784SOL    HW189467  11.059   8.602   3.568 -0.9872 -1.2390  1.2212
60784SOL    HW289468  10.991   8.584   3.434  0.2848 -0.6331  0.4698
60785SOL     OW89469   4.599   5.137   2.790 -0.0826  0.2300  0.0787
60785SOL    HW189470   4.658   5.142   2.865  0.3579  0.5340 -0.2742
60785SOL    HW289471   4.551   5.055   2.801  1.2890 -0.6549 -0.2570
60786SOL     OW89472   9.482   0.649   8.961  0.7893 -0.6747 -0.1175
60786SOL    HW189473   9.406   0.697   8.928  1.3401  0.4874  0.2361
60786SOL    HW289474   9.556   0.689   8.916  1.2505 -1.3054  0.0799
60787SOL     OW89475  11.296   1.881   5.211  0.1128  0.7655 -0.4251
60787SOL    HW189476  11.324   1.963   5.169 -0.1261  0.6312 -0.8509
60787SOL    HW289477  11.236   1.841   5.148 -0.3156  0.5980  0.0858
60788SOL     OW89478   6.711  11.490   7.523 -0.2071 -0.2718 -0.1323
60788SOL    HW189479   6.747  11.489   7.612  0.2122 -0.8913 -0.2995
60788SOL    HW289480   6.784  11.462   7.467  0.4547  2.9525 -1.0634
60789SOL     OW89481   5.023   6.645   4.697 -0.0285  0.3157  0.6484
60789SOL    HW189482   5.056   6.585   4.765 -0.7328 -0.7263  0.0926
60789SOL    HW289483   5.102   6.681   4.657  0.4105  1.2494  2.2512
60790SOL     OW89484   0.348   9.003   1.362 -0.6952  0.0870 -0.0837
60790SOL    HW189485   0.415   9.025   1.297 -0.3742  0.0714  0.2342
60790SOL    HW289486   0.389   9.024   1.446  0.3918 -3.4505  0.4215
60791SOL     OW89487  11.586   6.229  12.719 -0.0091  0.0764  0.1582
60791SOL    HW189488  11.504   6.271  12.745 -0.1970 -0.4124  0.3641
60791SOL    HW289489  11.650   6.260  12.784 -0.3799 -0.7957  0.9663
60792SOL     OW89490   1.626   1.761   5.964 -0.1353  0.5480 -0.7210
60792SOL    HW189491   1.611   1.667   5.955  1.0400  0.3534 -0.8175
60792SOL    HW289492   1.552   1.802   5.919 -2.5423 -0.2548  2.2091
60793SOL     OW89493   8.102   1.873   3.098  0.7095 -0.0656 -0.5198
60793SOL    HW189494   8.011   1.865   3.128  0.0023  0.2587 -2.4527
60793SOL    HW289495   8.132   1.783   3.089  1.2364 -0.2002  1.8222
60794SOL     OW89496   3.073   8.575   0.677 -0.7020 -0.1935 -0.5711
60794SOL    HW189497   2.993   8.625   0.693 -0.0503  0.2639  1.5811
60794SOL    HW289498   3.107   8.610   0.595 -1.9268  0.6567 -0.7392
60795SOL     OW89499   2.278  12.121   5.125 -0.6702 -0.5772 -0.0060
60795SOL    HW189500   2.188  12.122   5.157 -0.7225 -0.7445 -0.1505
60795SOL    HW289501   2.305  12.030   5.131 -0.8426 -0.6896 -0.8890
60796SOL     OW89502   1.771   9.440   7.566 -0.5701 -0.5652  0.2245
60796SOL    HW189503   1.702   9.502   7.544  1.0409  0.8754 -1.0409
60796SOL    HW289504   1.799   9.464   7.654  0.5067  1.0632 -0.5012
60797SOL     OW89505   9.423   9.279   8.566  0.2893  0.0325 -0.2830
60797SOL    HW189506   9.493   9.233   8.521  0.6506  0.3717 -0.0693
60797SOL    HW289507   9.396   9.348   8.504  0.7014  0.4196 -0.0405
60798SOL     OW89508   4.219  12.719   6.060  0.5234 -0.6871  0.2680
60798SOL    HW189509   4.246  12.678   6.141 -0.1721 -1.2319  0.2344
60798SOL    HW289510   4.279  12.685   5.994  1.0211 -0.3261  0.5302
60799SOL     OW89511  11.489  11.753   5.868  0.6170  0.0215 -0.1536
60799SOL    HW189512  11.454  11.753   5.958  0.3519  0.2741 -0.2543
60799SOL    HW289513  11.424  11.703   5.818  0.2689  0.7036 -0.3905
60800SOL     OW89514   0.288   5.789   4.853 -0.2097  0.0780  0.2364
60800SOL    HW189515   0.257   5.707   4.813  1.4250 -0.6936  0.4803
60800SOL    HW289516   0.302   5.848   4.780  0.7157 -0.6111 -0.1526
60801SOL     OW89517   7.745   5.394   7.561 -0.0664  0.3392 -0.0843
60801SOL    HW189518   7.674   5.344   7.601  0.0738  0.1326 -0.0884
60801SOL    HW289519   7.822   5.336   7.568  0.2281  0.7761  0.4065
60802SOL     OW89520   3.411  11.417   7.358 -0.0049 -0.4018 -0.3336
60802SOL    HW189521   3.345  11.483   7.333  0.2952  0.5887  1.3233
60802SOL    HW289522   3.376  11.379   7.439 -0.9555 -3.4981 -2.0314
60803SOL     OW89523   3.117   4.302   4.888  0.1406  0.0075  0.1552
60803SOL    HW189524   3.153   4.324   4.803 -1.2875  0.8378 -0.2693
60803SOL    HW289525   3.092   4.209   4.881  0.4740 -0.0584 -0.1544
60804SOL     OW89526   9.130   7.910   8.172  0.4027 -0.3239  0.0392
60804SOL    HW189527   9.041   7.877   8.159  0.2066 -0.0956  0.7400
60804SOL    HW289528   9.141   7.977   8.105  0.0844 -0.4168 -0.1107
60805SOL     OW89529  12.468   7.790  11.783 -0.8552  0.4404 -0.1954
60805SOL    HW189530  12.500   7.779  11.872 -0.5173  1.1830 -0.2207
60805SOL    HW289531  12.377   7.759  11.787 -0.4457 -0.8014  0.0822
60806SOL     OW89532   1.625   6.110   7.389 -0.8842  0.1059 -0.1752
60806SOL    HW189533   1.718   6.091   7.401 -1.0045 -0.3547  0.0181
60806SOL    HW289534   1.579   6.038   7.433 -1.3313 -0.1723 -1.0811
60807SOL     OW89535   0.040  11.334   5.851  0.0595 -0.3877 -0.3281
60807SOL    HW189536  -0.042  11.287   5.835  0.5638 -1.9742  1.3910
60807SOL    HW289537   0.013  11.415   5.895 -0.5919 -0.8759  0.1885
60808SOL     OW89538   4.094   6.262   9.148 -0.1335  0.0966  0.1443
60808SOL    HW189539   4.083   6.202   9.074  0.1703  0.0053  0.1732
60808SOL    HW289540   4.128   6.206   9.218  0.7943  0.4307 -0.0263
60809SOL     OW89541   2.370   8.034  11.503  0.4016  0.4424  0.0575
60809SOL    HW189542   2.405   8.044  11.592  0.8440  0.0973 -0.0756
60809SOL    HW289543   2.409   7.953  11.470 -1.1930 -0.4280  0.2074
60810SOL     OW89544   8.780  10.719   3.815  0.1815  0.7026 -0.2164
60810SOL    HW189545   8.842  10.670   3.869  0.3781  0.4216 -0.6823
60810SOL    HW289546   8.824  10.802   3.798  0.4829  0.4609 -0.6362
60811SOL     OW89547   3.642   3.064   0.644 -0.3666  0.0590  0.8420
60811SOL    HW189548   3.737   3.065   0.632 -0.0931  1.0933  2.6987
60811SOL    HW289549   3.607   3.077   0.556  1.2487  1.5766  0.3562
60812SOL     OW89550   6.213  10.615   5.394 -0.1164 -0.4752 -0.4600
60812SOL    HW189551   6.138  10.562   5.366  0.9665 -0.9465 -2.6305
60812SOL    HW289552   6.217  10.686   5.330  0.3445  0.4608  0.5870
60813SOL     OW89553   6.417   1.573   7.325 -0.1337  0.0014 -0.0970
60813SOL    HW189554   6.446   1.598   7.237  0.7705  0.3207  0.2811
60813SOL    HW289555   6.473   1.499   7.349  3.8527  3.3846  2.4579
60814SOL     OW89556   4.717   9.202   4.779  0.2160 -0.0024 -0.2539
60814SOL    HW189557   4.714   9.128   4.717 -1.7140  1.6831 -2.3307
60814SOL    HW289558   4.767   9.168   4.854  2.1469 -2.3846 -2.4130
60815SOL     OW89559   3.098   2.706  10.221 -0.7621 -0.0834 -0.2499
60815SOL    HW189560   3.077   2.632  10.278  0.5599 -0.0404  0.3061
60815SOL    HW289561   3.016   2.723  10.174 -1.4480 -1.0688  0.5448
60816SOL     OW89562   8.991   9.341   1.791 -0.3448 -0.1712  0.2454
60816SOL    HW189563   8.936   9.377   1.861 -0.8511 -1.5494  0.5960
60816SOL    HW289564   9.081   9.357   1.820 -0.5199  1.3215  0.0823
60817SOL     OW89565  10.206   5.594   2.036 -0.4557 -0.3650  0.3877
60817SOL    HW189566  10.219   5.531   2.107  1.4774  0.4744  0.8367
60817SOL    HW289567  10.112   5.594   2.022 -0.7564 -1.5396  2.0345
60818SOL     OW89568  11.388   9.775   0.547 -0.1445  0.1354  0.5504
60818SOL    HW189569  11.395   9.699   0.489 -1.9699 -0.0669  0.5359
60818SOL    HW289570  11.420   9.744   0.632 -0.9819 -0.7123  0.5749
60819SOL     OW89571   8.861   5.617   5.687  0.1307 -0.0430  0.0555
60819SOL    HW189572   8.851   5.599   5.593  1.1451 -0.6077  0.0440
60819SOL    HW289573   8.778   5.589   5.725  0.0254 -0.6077 -0.5611
60820SOL     OW89574  10.812   5.555  11.780  0.7042  0.2135 -0.3601
60820SOL    HW189575  10.773   5.477  11.741 -1.7959  0.4283  1.4487
60820SOL    HW289576  10.778   5.628  11.728 -2.3550  0.4741  1.7539
60821SOL     OW89577   6.899   0.614  12.081  0.3275  0.3035 -0.4966
60821SOL    HW189578   6.965   0.566  12.031 -2.0434 -2.3527 -1.3059
60821SOL    HW289579   6.883   0.693  12.029  0.4965 -0.6700 -2.1135
60822SOL     OW89580   9.418   0.614   5.082  0.1920  0.1916  0.3822
60822SOL    HW189581   9.362   0.593   5.157  0.6071 -2.5032  0.0299
60822SOL    HW289582   9.359   0.657   5.020 -0.5172  1.0348  1.5914
60823SOL     OW89583   3.618  11.638  10.893  0.2359  0.6012  0.8499
60823SOL    HW189584   3.554  11.704  10.919 -0.7444  0.1449 -0.2616
60823SOL    HW289585   3.621  11.645  10.797 -0.6215 -1.5814  0.6121
60824SOL     OW89586   6.327   1.313   8.207  0.1036  0.0641  0.0132
60824SOL    HW189587   6.350   1.238   8.262 -0.6503 -0.1038  0.1148
60824SOL    HW289588   6.345   1.283   8.118  0.4653  0.0106  0.1051
60825SOL     OW89589   7.150   0.772   8.385 -0.3366  0.0811 -0.3917
60825SOL    HW189590   7.239   0.760   8.418 -0.8419 -0.4887  0.8266
60825SOL    HW289591   7.119   0.851   8.429 -0.9394 -0.5559  0.3443
60826SOL     OW89592   1.009   0.441   0.306 -0.1713  0.3735  0.4459
60826SOL    HW189593   1.076   0.486   0.254  0.6016 -1.7894 -0.5424
60826SOL    HW289594   1.057   0.399   0.377 -0.6157 -0.3438  0.3298
60827SOL     OW89595  10.527  11.905   7.707  0.1546  0.5516  0.0388
60827SOL    HW189596  10.583  11.982   7.714 -0.2249  1.0381 -1.7511
60827SOL    HW289597  10.569  11.852   7.639  0.7307 -1.1424  1.6436
60828SOL     OW89598   0.487  10.096   8.246  0.3268  0.4285 -0.9643
60828SOL    HW189599   0.490  10.181   8.203  0.0961  0.6454 -0.5579
60828SOL    HW289600   0.396  10.066   8.233  0.2271  0.5411 -0.5470
60829SOL     OW89601   1.353  10.607  11.497 -0.1827 -0.0032 -0.1889
60829SOL    HW189602   1.439  10.566  11.508 -0.2823  0.0234  0.8274
60829SOL    HW289603   1.307  10.587  11.579 -2.0559 -2.1037 -1.6326
60830SOL     OW89604   8.899   6.282   2.879 -0.1077 -0.3490 -0.2886
60830SOL    HW189605   8.852   6.334   2.944 -2.7953 -2.1475 -0.6476
60830SOL    HW289606   8.919   6.200   2.923  0.0118 -0.7577 -1.0796
60831SOL     OW89607   3.439   9.029  10.749  0.1624  0.9287 -0.2234
60831SOL    HW189608   3.459   9.084  10.825 -0.1134 -0.0922  0.6129
60831SOL    HW289609   3.379   9.082  10.696 -2.4867  0.4304  2.0272
60832SOL     OW89610  10.590   8.189   8.496  0.3835  0.7200  0.4356
60832SOL    HW189611  10.532   8.255   8.457 -0.5320  0.6502  1.6329
60832SOL    HW289612  10.624   8.141   8.421 -0.3072  1.4323 -0.3614
60833SOL     OW89613  11.203   5.867   0.085 -0.1298  0.3253  0.1849
60833SOL    HW189614  11.249   5.944   0.050 -0.2052  0.3470  0.1325
60833SOL    HW289615  11.264   5.829   0.148 -0.3089  0.7494  0.6272
60834SOL     OW89616   9.956   0.095   1.913 -0.8143  0.3583  0.1165
60834SOL    HW189617  10.046   0.063   1.909 -0.5290  0.5727  3.0518
60834SOL    HW289618   9.905   0.028   1.867  0.6888 -0.3369 -0.6085
60835SOL     OW89619  11.154   3.273   5.745  0.5199 -0.1704 -0.0744
60835SOL    HW189620  11.159   3.251   5.652  0.1628  0.4854 -0.2509
60835SOL    HW289621  11.245   3.274   5.774  0.6038 -0.8805 -0.2904
60836SOL     OW89622   9.750   7.105  10.856 -0.8313  0.5476  0.2764
60836SOL    HW189623   9.810   7.121  10.783 -2.1331 -1.2151 -1.2846
60836SOL    HW289624   9.712   7.190  10.875 -0.8501  0.9912 -1.5152
60837SOL     OW89625   7.925   4.659   5.975  0.4981  0.1436  0.4680
60837SOL    HW189626   7.839   4.631   6.006 -0.3496  1.0550 -0.9764
60837SOL    HW289627   7.977   4.578   5.974 -0.3643 -0.4406  1.2089
60838SOL     OW89628   6.793   1.904   3.501 -0.1381 -0.2410 -0.3999
60838SOL    HW189629   6.886   1.880   3.501 -0.0558  0.0727 -0.2652
60838SOL    HW289630   6.763   1.882   3.413 -0.1312 -1.0906 -0.1936
60839SOL     OW89631   5.861   8.666   8.704  0.1435 -0.2013 -0.3239
60839SOL    HW189632   5.843   8.583   8.659 -0.3241 -0.6913  0.7270
60839SOL    HW289633   5.785   8.720   8.686  0.3097 -0.1151 -0.7613
60840SOL     OW89634  12.056   1.322  12.216 -0.1353  0.0114 -0.0909
60840SOL    HW189635  12.149   1.326  12.195  0.1483 -0.5093  0.9618
60840SOL    HW289636  12.018   1.399  12.175  1.3567  2.1509  2.2427
60841SOL     OW89637   9.213  12.119  10.920  0.5706 -0.3980 -0.0242
60841SOL    HW189638   9.250  12.207  10.932 -1.9352  1.0843 -2.1510
60841SOL    HW289639   9.290  12.062  10.912  2.2919  1.2676  2.8447
60842SOL     OW89640   2.816   0.843   5.638  0.0227 -0.3974 -0.0683
60842SOL    HW189641   2.907   0.858   5.611  0.1626  0.1039  0.6533
60842SOL    HW289642   2.764   0.873   5.564  0.4145  0.4329 -0.0145
60843SOL     OW89643  10.720   9.985   6.904  0.6162 -0.1067  0.8177
60843SOL    HW189644  10.741  10.059   6.961 -2.8543  1.0773  0.8401
60843SOL    HW289645  10.666   9.928   6.959 -1.4109  0.2310 -0.6946
60844SOL     OW89646   0.093  10.890   7.000  0.8007  0.3543  0.1917
60844SOL    HW189647   0.081  10.963   7.061 -1.6789 -1.5800  2.1953
60844SOL    HW289648   0.178  10.854   7.022  1.6294  1.9648 -0.1757
60845SOL     OW89649   6.634   4.824   3.493  0.1393 -0.3753  0.2209
60845SOL    HW189650   6.631   4.919   3.500 -0.5102 -0.3648 -0.1498
60845SOL    HW289651   6.654   4.794   3.582 -1.6494  0.0199  0.7814
60846SOL     OW89652   5.046   4.228  12.776 -0.0152  0.0541  0.1281
60846SOL    HW189653   5.136   4.239  12.746  0.2621 -0.7401  0.6281
60846SOL    HW289654   5.044   4.139  12.813 -1.1230 -0.1341 -0.3275
60847SOL     OW89655   4.695   6.196   3.825  0.6052  0.3054 -0.4686
60847SOL    HW189656   4.749   6.274   3.841 -1.0103  1.2291  0.7477
60847SOL    HW289657   4.753   6.137   3.777  2.6621  1.2920  0.6499
60848SOL     OW89658   2.387   1.793   7.731  0.2900 -0.2008  0.4394
60848SOL    HW189659   2.461   1.837   7.689  0.4071 -0.9889 -0.2149
60848SOL    HW289660   2.312   1.819   7.678  0.2411 -0.1455  0.5372
60849SOL     OW89661   9.226   8.373   6.963  0.2685 -0.6541 -0.1385
60849SOL    HW189662   9.315   8.367   6.928 -0.4789 -1.4753 -2.0429
60849SOL    HW289663   9.226   8.451   7.017  2.0753 -0.5016 -0.3196
60850SOL     OW89664  10.440   6.221   6.317 -0.4436  0.5156  0.1087
60850SOL    HW189665  10.407   6.176   6.395 -1.6424 -0.4636 -0.9203
60850SOL    HW289666  10.371   6.283   6.293 -0.1541  0.7035 -0.2576
60851SOL     OW89667   0.604   6.521   2.491  0.1882 -0.0815 -0.7183
60851SOL    HW189668   0.696   6.493   2.492  0.8967  2.0504  0.3916
60851SOL    HW289669   0.572   6.500   2.579  0.6200  2.0285  0.0024
60852SOL     OW89670   7.164   8.220  12.630  0.4550  0.4083  0.2540
60852SOL    HW189671   7.236   8.176  12.585  0.4292  2.2054 -1.6697
60852SOL    HW289672   7.205   8.292  12.678  0.3017 -0.6332  2.0389
60853SOL     OW89673   9.493   3.290   3.112 -0.3156 -0.1726  0.1531
60853SOL    HW189674   9.457   3.365   3.064 -0.3007  0.5599  1.2475
60853SOL    HW289675   9.544   3.243   3.047 -2.5973 -0.8425 -1.2870
60854SOL     OW89676   1.437   8.775   0.062 -0.1599 -0.1726 -0.0278
60854SOL    HW189677   1.366   8.756   0.124 -0.0781 -0.7913 -0.1104
60854SOL    HW289678   1.500   8.825   0.113 -0.7515  0.5683 -0.0106
60855SOL     OW89679   7.620  11.989  11.818  0.0708  0.1492  0.0534
60855SOL    HW189680   7.674  11.926  11.771  1.0578  1.5292 -0.7438
60855SOL    HW289681   7.538  11.993  11.768 -1.1382 -2.4151  1.6208
60856SOL     OW89682   9.244   7.295  12.509  0.1865  0.1875 -0.0115
60856SOL    HW189683   9.232   7.315  12.602  0.2686 -0.4161  0.1306
60856SOL    HW289684   9.232   7.379  12.465 -2.5562  0.0189  0.2664
60857SOL     OW89685   9.677   2.731   7.115  0.2526  0.3287  0.0734
60857SOL    HW189686   9.684   2.710   7.208  1.2924 -0.0378 -0.0778
60857SOL    HW289687   9.720   2.816   7.107  1.2418 -0.2000 -0.2666
60858SOL     OW89688  12.451   0.316   6.133 -0.4325  0.3257 -0.2952
60858SOL    HW189689  12.458   0.411   6.145  1.6834  0.3982 -1.6350
60858SOL    HW289690  12.362   0.303   6.099 -0.6434  1.8678 -0.4024
60859SOL     OW89691  11.725   0.289  10.902  0.1104 -0.0467 -0.2454
60859SOL    HW189692  11.819   0.301  10.888  0.4414 -2.0422 -0.0425
60859SOL    HW289693  11.686   0.297  10.815  0.3123  1.6245 -0.2262
60860SOL     OW89694   1.887   3.482   4.343  0.8221 -0.4027 -0.3020
60860SOL    HW189695   1.815   3.455   4.285  1.6587 -0.8999 -1.1419
60860SOL    HW289696   1.959   3.424   4.320  0.3994 -2.5812  3.2020
60861SOL     OW89697   6.679   3.203   1.915  0.2393 -0.1741  0.4375
60861SOL    HW189698   6.597   3.237   1.878 -0.3607 -0.6001  1.3257
60861SOL    HW289699   6.662   3.200   2.010  1.8196  1.1377  0.7979
60862SOL     OW89700   5.610   1.176   2.107 -0.5343 -0.5023 -0.2401
60862SOL    HW189701   5.622   1.201   2.199  1.8783  3.2902 -1.3600
60862SOL    HW289702   5.529   1.218   2.081  0.1642  0.7422 -0.4669
60863SOL     OW89703  12.149  11.856   3.312  0.9629 -0.0979  0.0552
60863SOL    HW189704  12.199  11.924   3.357  3.4577 -2.0054  0.4019
60863SOL    HW289705  12.062  11.860   3.352  2.5506 -0.6088  4.0621
60864SOL     OW89706   8.729   0.224   3.590 -0.1317  0.2791  0.2717
60864SOL    HW189707   8.791   0.183   3.650  0.1439 -0.2310 -0.3461
60864SOL    HW289708   8.673   0.278   3.646 -0.6992 -1.1641  1.1471
60865SOL     OW89709   5.201  11.692   2.600 -0.0278  0.0598 -0.2509
60865SOL    HW189710   5.274  11.641   2.565 -0.4928  0.3966 -1.8347
60865SOL    HW289711   5.226  11.783   2.583 -0.7916  0.1759 -0.8154
60866SOL     OW89712  10.598   4.788  12.675  0.0577  0.2733  0.0083
60866SOL    HW189713  10.672   4.734  12.648  0.3244 -0.6949  2.4388
60866SOL    HW289714  10.638   4.863  12.720 -0.3922  0.0621  0.7830
60867SOL     OW89715  11.899   4.513   8.955 -0.3526  0.0432  0.1003
60867SOL    HW189716  11.938   4.452   9.018  0.9027 -0.9527 -1.5562
60867SOL    HW289717  11.956   4.507   8.878 -2.7773 -0.1048 -1.8001
60868SOL     OW89718   8.639   3.187   5.555  0.0087  0.1471 -0.1711
60868SOL    HW189719   8.642   3.269   5.602  1.7451  0.9339 -1.5357
60868SOL    HW289720   8.545   3.168   5.545 -0.4132  1.7480  0.5041
60869SOL     OW89721  11.916   3.654   6.686 -0.0797  0.1609  0.1935
60869SOL    HW189722  11.885   3.707   6.759 -0.2532  1.4149 -0.7450
60869SOL    HW289723  11.836   3.625   6.642  0.0224  0.6671 -0.3436
60870SOL     OW89724   5.801   9.274  10.475  0.2401 -0.1942 -0.2691
60870SOL    HW189725   5.793   9.369  10.467  1.3535 -0.1066 -0.4050
60870SOL    HW289726   5.822   9.244  10.386  1.7082 -0.3700  0.1285
60871SOL     OW89727   1.393   1.826   5.821 -0.4201 -0.3615  0.6404
60871SOL    HW189728   1.298   1.838   5.817 -0.5738 -0.8064  2.1578
60871SOL    HW289729   1.429   1.899   5.771 -1.5570 -0.1428  0.1133
60872SOL     OW89730   8.515   6.168   5.556 -0.0452  0.1867 -0.2586
60872SOL    HW189731   8.550   6.202   5.638  0.9810  0.2793 -0.7133
60872SOL    HW289732   8.448   6.231   5.530 -1.3819 -0.5906  1.2004
60873SOL     OW89733  10.805  10.321  11.914 -0.7341 -0.3373 -0.2603
60873SOL    HW189734  10.878  10.365  11.957  0.1137 -1.2228 -0.7595
60873SOL    HW289735  10.728  10.345  11.967 -0.2664  1.4901 -0.3685
60874SOL     OW89736  12.967   5.650   3.131 -0.8613  0.0808 -0.3770
60874SOL    HW189737  12.886   5.696   3.106 -0.0501  0.6648 -2.1191
60874SOL    HW289738  12.939   5.559   3.143 -2.1487  0.6453  1.2235
60875SOL     OW89739   9.858   8.650   9.960 -1.0085  0.0180  0.1381
60875SOL    HW189740   9.887   8.737   9.931 -1.8888  0.5144  0.7123
60875SOL    HW289741   9.899   8.639  10.046 -1.3838  0.1237  0.3315
60876SOL     OW89742  10.562   2.150   0.824  0.0096  0.2780  0.0561
60876SOL    HW189743  10.642   2.101   0.808 -0.4222 -0.6683  0.7152
60876SOL    HW289744  10.533   2.123   0.911 -0.6140  1.1930  0.1584
60877SOL     OW89745   5.505  10.725   3.963  0.1306 -0.8292 -0.3032
60877SOL    HW189746   5.441  10.780   4.010  1.5047  0.6239 -0.0478
60877SOL    HW289747   5.452  10.667   3.909 -1.4166  2.1319 -2.1594
60878SOL     OW89748  10.966   0.834  11.006  0.0534  0.1333 -0.0710
60878SOL    HW189749  10.887   0.857  10.957  0.7412 -0.6301 -1.5736
60878SOL    HW289750  11.028   0.904  10.987  0.4236 -0.3189 -0.5655
60879SOL     OW89751   0.718   1.020   4.012 -0.5105 -0.0547 -0.3302
60879SOL    HW189752   0.658   0.969   4.067  1.8491 -0.6895  1.8745
60879SOL    HW289753   0.750   0.958   3.946 -1.7650  0.1252 -1.1283
60880SOL     OW89754   3.996   9.823   5.360 -0.2422 -0.3352 -0.0825
60880SOL    HW189755   4.051   9.753   5.325 -0.5655  0.1224 -1.5960
60880SOL    HW289756   4.049   9.902   5.350 -0.0580 -0.2809  1.1845
60881SOL     OW89757   8.702  11.753   9.095  0.0191  0.1993 -0.1917
60881SOL    HW189758   8.725  11.831   9.145 -0.5502  0.2325  0.0339
60881SOL    HW289759   8.771  11.745   9.029  0.6401  0.2955  0.4342
60882SOL     OW89760   2.983   2.255   3.912 -1.0465  0.0263 -0.5233
60882SOL    HW189761   2.979   2.320   3.982 -2.6510  0.7787 -1.2516
60882SOL    HW289762   2.891   2.239   3.889 -0.5931 -0.9129 -1.7945
60883SOL     OW89763  11.078   6.099   9.159 -0.3604 -0.3089 -0.5379
60883SOL    HW189764  11.027   6.026   9.194 -0.5579  1.0735  2.4149
60883SOL    HW289765  11.159   6.097   9.210 -0.5228  1.6902 -0.1450
60884SOL     OW89766  11.665   7.916   8.448 -0.1597 -0.9136 -0.6476
60884SOL    HW189767  11.649   7.970   8.526  0.0694 -1.7106 -0.0259
60884SOL    HW289768  11.758   7.896   8.452 -0.3798 -1.9544 -0.4550
60885SOL     OW89769  11.391   0.311  12.211  0.2555 -0.0590  0.2383
60885SOL    HW189770  11.296   0.311  12.226  0.0031  1.5641 -1.0796
60885SOL    HW289771  11.429   0.294  12.298 -1.2104  1.6519  1.2926
60886SOL     OW89772   6.706   8.482   7.746 -0.2294 -0.3293 -0.2248
60886SOL    HW189773   6.780   8.542   7.753  1.5988 -2.4307 -0.3746
60886SOL    HW289774   6.738   8.411   7.690 -2.0629 -1.7436  0.4106
60887SOL     OW89775   4.252   7.137   8.513  0.0728  0.0735  0.2520
60887SOL    HW189776   4.202   7.073   8.463 -0.7101  0.5092  0.4638
60887SOL    HW289777   4.343   7.113   8.498 -0.2110 -1.6047  0.9895
60888SOL     OW89778   0.918  11.062   3.312 -0.1457 -0.1385 -0.4107
60888SOL    HW189779   0.887  11.041   3.224 -0.3273  0.9121 -0.6062
60888SOL    HW289780   0.844  11.103   3.355 -0.3241 -1.3955  0.5344
60889SOL     OW89781   5.944  11.652   4.462  0.3578 -0.1886  0.4643
60889SOL    HW189782   5.913  11.639   4.373 -0.2442 -1.5257  0.8523
60889SOL    HW289783   6.038  11.637   4.457  0.9317  2.9673 -0.5352
60890SOL     OW89784   5.774   8.699   5.762 -0.0766 -0.5586  0.1226
60890SOL    HW189785   5.766   8.607   5.736  0.7277 -0.6262  0.0658
60890SOL    HW289786   5.788   8.696   5.856  1.0675 -0.5841 -0.0271
60891SOL     OW89787  10.416   6.886   5.967  0.2572  0.0207 -0.7537
60891SOL    HW189788  10.462   6.966   5.942 -0.0387  0.2146 -0.6796
60891SOL    HW289789  10.428   6.881   6.062  0.6090 -0.2327 -0.8100
60892SOL     OW89790  10.684   9.799  11.301  0.0248 -0.3711 -0.0773
60892SOL    HW189791  10.762   9.831  11.346  0.5974 -0.6467 -0.8534
60892SOL    HW289792  10.658   9.722  11.351 -0.8896  0.7734  1.3211
60893SOL     OW89793   6.507   1.340   3.695  0.2933  0.3432  0.1748
60893SOL    HW189794   6.429   1.312   3.743  0.5413 -1.6296 -0.4524
60893SOL    HW289795   6.559   1.260   3.686  2.4231  1.6215  0.6046
60894SOL     OW89796   1.609   3.163   6.595  0.2248 -0.0037 -0.1526
60894SOL    HW189797   1.564   3.135   6.515  0.5017 -2.1949  0.4081
60894SOL    HW289798   1.543   3.213   6.643 -0.1912  0.6571 -1.3640
60895SOL     OW89799   2.626   5.309   2.561  0.9311 -0.1177  0.3672
60895SOL    HW189800   2.586   5.279   2.643 -1.5801  0.5212 -0.5317
60895SOL    HW289801   2.564   5.374   2.527  2.2430  0.1271 -1.7021
60896SOL     OW89802  11.675   6.458   0.500 -0.1484 -0.7168  0.4264
60896SOL    HW189803  11.662   6.391   0.567 -2.6473 -2.5935 -1.7365
60896SOL    HW289804  11.590   6.465   0.456  1.9147 -1.7196 -4.3665
60897SOL     OW89805   5.097   3.722  12.008 -0.2372 -0.1016  0.5734
60897SOL    HW189806   5.128   3.646  12.058  0.4105 -0.5984 -0.5650
60897SOL    HW289807   5.140   3.797  12.050  2.2923 -0.7263 -0.6856
60898SOL     OW89808   0.406   6.340  10.103  0.1350  0.2146  0.2662
60898SOL    HW189809   0.439   6.429  10.091  0.7686  0.0931  1.0146
60898SOL    HW289810   0.391   6.333  10.197  3.2705 -1.5401  0.7490
60899SOL     OW89811   5.025   1.794   5.573  0.0584  0.1076 -0.4229
60899SOL    HW189812   5.052   1.755   5.656  0.9296 -1.3280 -1.3397
60899SOL    HW289813   4.931   1.779   5.569 -0.4284  2.1976  1.2878
60900SOL     OW89814   5.054   0.042  11.317 -0.2084  0.0489 -0.0659
60900SOL    HW189815   5.124  -0.014  11.283 -1.1431 -1.5785  0.5461
60900SOL    HW289816   5.037   0.105  11.247  1.1308 -0.1773 -0.6382
60901SOL     OW89817   0.536   4.281   5.490 -0.0835 -0.3711 -0.1499
60901SOL    HW189818   0.517   4.290   5.397 -0.5575 -0.0217 -0.0225
60901SOL    HW289819   0.622   4.240   5.493 -0.6877 -1.7187 -0.7367
60902SOL     OW89820   9.414  10.128   1.042 -0.2204  0.3811  0.4241
60902SOL    HW189821   9.453  10.199   1.094  1.3682  0.5094 -0.8607
60902SOL    HW289822   9.379  10.171   0.965 -0.2635 -0.0971  0.1737
60903SOL     OW89823   8.549  12.825   3.331 -0.2949 -0.3838 -0.2574
60903SOL    HW189824   8.580  12.735   3.344 -0.2043 -0.3285 -0.0768
60903SOL    HW289825   8.581  12.850   3.245  1.2013  0.0855  0.3979
60904SOL     OW89826   1.350   5.728   3.019  0.0674  0.1107 -0.2345
60904SOL    HW189827   1.390   5.801   3.066 -0.1044 -0.7098  1.2336
60904SOL    HW289828   1.339   5.660   3.085 -1.6183 -0.5280 -1.1218
60905SOL     OW89829   5.355   4.082   0.114 -0.2994  0.2186  0.1639
60905SOL    HW189830   5.333   3.993   0.141  0.7718 -0.2420 -0.4231
60905SOL    HW289831   5.406   4.071   0.034 -0.3035  1.3766 -0.0222
60906SOL     OW89832   9.602   9.962  10.176 -0.3239 -0.0804 -0.0537
60906SOL    HW189833   9.679  10.007  10.210 -0.5730 -0.5379  1.1698
60906SOL    HW289834   9.557  10.029  10.124  0.7025  0.2855 -0.4968
60907SOL     OW89835  10.819   4.475   9.678  0.3644  0.2473  0.2689
60907SOL    HW189836  10.816   4.395   9.731  0.4615 -0.0790 -0.2106
60907SOL    HW289837  10.850   4.446   9.592  0.9984  0.8995  0.2664
60908SOL     OW89838   9.664   2.967   6.529 -0.1848 -0.4277  0.4986
60908SOL    HW189839   9.709   3.047   6.500 -1.6726  0.5881  0.8779
60908SOL    HW289840   9.735   2.905   6.547  1.0221  0.8348  0.2947
60909SOL     OW89841   2.986  12.650   9.880  0.4752  0.3173  0.0524
60909SOL    HW189842   2.987  12.682   9.970  0.1904  2.3728 -0.6252
60909SOL    HW289843   2.904  12.683   9.844  0.4535 -0.7251 -0.8982
60910SOL     OW89844   1.077   9.541   8.659 -0.1605 -0.1655 -0.1751
60910SOL    HW189845   1.098   9.618   8.711  0.1015 -0.7170  0.5426
60910SOL    HW289846   1.161   9.496   8.647 -0.3700 -0.5332 -0.2744
60911SOL     OW89847   0.380   0.463  10.860  0.3323  0.1908 -0.6338
60911SOL    HW189848   0.408   0.535  10.804 -0.8631  1.2359  0.0650
60911SOL    HW289849   0.284   0.462  10.852  0.0937  0.5370  1.5589
60912SOL     OW89850   5.759   4.074   6.996 -0.0122  0.4176 -0.8066
60912SOL    HW189851   5.838   4.127   6.983  0.6030 -0.6376 -1.5014
60912SOL    HW289852   5.775   3.994   6.946 -2.2271  0.8626 -2.3980
60913SOL     OW89853  12.564   2.876   6.316  0.5431 -0.1200  0.1315
60913SOL    HW189854  12.522   2.903   6.398  0.1732  1.3565 -0.5117
60913SOL    HW289855  12.498   2.821   6.273 -0.8699  2.2046 -0.8872
60914SOL     OW89856   5.761   2.938  11.358 -0.3707 -0.5040  0.2939
60914SOL    HW189857   5.776   3.025  11.393  0.6767 -0.3376 -0.5245
60914SOL    HW289858   5.680   2.909  11.400 -0.1558  0.4198  1.4027
60915SOL     OW89859   8.966   4.226   7.400  0.0049  0.2103 -0.6719
60915SOL    HW189860   9.006   4.249   7.316 -1.1210  0.3694 -1.1949
60915SOL    HW289861   8.982   4.132   7.410 -0.7949 -0.0489 -1.6233
60916SOL     OW89862  12.041   1.756   7.522  0.0102 -0.2235  0.0942
60916SOL    HW189863  12.081   1.671   7.539 -0.3520 -0.3327  0.4053
60916SOL    HW289864  11.977   1.740   7.453 -0.0818 -0.2127  0.1757
60917SOL     OW89865   5.228  12.602   1.794 -0.0518  0.1363  0.2223
60917SOL    HW189866   5.256  12.539   1.728 -0.2695  0.8388 -0.5625
60917SOL    HW289867   5.302  12.609   1.854  1.2336  1.4176 -1.4098
60918SOL     OW89868   2.487   1.762   1.218  0.1269 -0.2836 -0.6403
60918SOL    HW189869   2.427   1.782   1.289  1.5683  0.7786  0.3243
60918SOL    HW289870   2.472   1.669   1.200 -0.4337 -0.5120  0.8769
60919SOL     OW89871   5.587   6.712   5.322  0.4091 -0.0479  0.4042
60919SOL    HW189872   5.522   6.675   5.263  1.4569 -2.1434  0.4973
60919SOL    HW289873   5.668   6.665   5.302  2.3882  3.4189 -0.7438
60920SOL     OW89874   4.645   4.272   2.098  0.8705  0.2532  0.3371
60920SOL    HW189875   4.555   4.255   2.126  0.2759 -0.0056 -1.5726
60920SOL    HW289876   4.652   4.367   2.097 -0.0420  0.3488 -1.2777
60921SOL     OW89877  12.042   9.076  11.911  0.6073  0.2219  1.0136
60921SOL    HW189878  11.994   9.153  11.882  0.7979 -0.0784 -0.1416
60921SOL    HW289879  12.007   9.004  11.858  1.0579 -0.3302  1.4414
60922SOL     OW89880   8.451   2.713   1.384  0.3509 -0.0491  0.7704
60922SOL    HW189881   8.451   2.625   1.348  1.2321  0.2774 -0.0848
60922SOL    HW289882   8.359   2.734   1.397 -0.1131  0.0595 -2.0192
60923SOL     OW89883  12.036  12.364   4.051 -0.3658  0.4101  0.6208
60923SOL    HW189884  12.129  12.345   4.041 -0.7713 -1.4347  0.0836
60923SOL    HW289885  11.998  12.284   4.086 -1.4946  1.7435  2.6479
60924SOL     OW89886  12.282   8.888   3.935  0.1567  0.6796 -0.2144
60924SOL    HW189887  12.280   8.810   3.990 -0.2792  0.7470 -0.1283
60924SOL    HW289888  12.288   8.854   3.845  2.7832  0.5899 -0.0746
60925SOL     OW89889  12.023   5.684   3.068 -0.2816  0.2617  0.1244
60925SOL    HW189890  12.107   5.719   3.040  0.5134 -1.7679 -0.1826
60925SOL    HW289891  11.964   5.759   3.068  1.4040  1.6284 -0.1345
60926SOL     OW89892   4.282   9.243   0.885  0.1782 -0.1136 -0.3263
60926SOL    HW189893   4.355   9.247   0.824  0.1639 -1.2391 -0.4356
60926SOL    HW289894   4.205   9.224   0.831 -0.3447  1.7608 -0.3044
60927SOL     OW89895  12.076   8.564  11.453 -0.3673  0.2740 -0.6564
60927SOL    HW189896  12.120   8.649  11.446  1.4552 -0.5713  0.1297
60927SOL    HW289897  12.060   8.552  11.547  1.3631 -1.1672 -0.4905
60928SOL     OW89898   3.863  11.173   5.872 -0.4943  0.6275  0.5148
60928SOL    HW189899   3.906  11.130   5.946 -0.2940  0.5251  0.3384
60928SOL    HW289900   3.927  11.168   5.801 -1.9326 -2.4373 -0.7558
60929SOL     OW89901   9.377   5.806   2.209  0.6466 -0.2692  0.3015
60929SOL    HW189902   9.418   5.780   2.126  1.2854 -0.6547  0.7232
60929SOL    HW289903   9.308   5.741   2.223 -0.7737  0.9075 -0.8673
60930SOL     OW89904   1.175   1.862   7.265 -0.4067 -0.4022 -0.5986
60930SOL    HW189905   1.255   1.912   7.279 -0.2490  0.3421 -3.4923
60930SOL    HW289906   1.132   1.861   7.351  2.3471 -0.2951  0.8927
60931SOL     OW89907   8.291   1.168   4.808  0.3805  0.5204  1.0269
60931SOL    HW189908   8.299   1.211   4.893 -1.6760 -0.7426  1.9279
60931SOL    HW289909   8.358   1.099   4.809  0.6069  0.7434  1.4502
60932SOL     OW89910   4.584  10.612   4.123  0.3510 -0.4103 -0.2554
60932SOL    HW189911   4.658  10.669   4.144  0.0968 -0.4961  0.9495
60932SOL    HW289912   4.621  10.524   4.122  0.4093 -0.3844 -0.4014
60933SOL     OW89913  11.121  11.049   4.650 -0.2250 -0.2453 -0.3346
60933SOL    HW189914  11.196  11.069   4.593  0.6810  0.7008  1.1353
60933SOL    HW289915  11.065  11.127   4.643  1.3106  1.2083  2.2333
60934SOL     OW89916   3.552  11.903  11.162  0.5209  0.4946 -0.4253
60934SOL    HW189917   3.635  11.859  11.177  0.2357 -0.4493 -1.4319
60934SOL    HW289918   3.575  11.995  11.150  1.3369  0.3470 -0.0456
60935SOL     OW89919  10.640   5.633   7.611 -0.1347  0.5641 -0.1365
60935SOL    HW189920  10.731   5.630   7.639 -0.5123 -3.8479  1.4297
60935SOL    HW289921  10.597   5.689   7.675  0.9184 -0.2953  1.3755
60936SOL     OW89922   4.972   0.402   9.916  0.4845 -0.2114 -0.1150
60936SOL    HW189923   5.053   0.453   9.917  0.2904  0.3759 -3.5686
60936SOL    HW289924   4.904   0.465   9.938  0.6708  0.0228 -0.1982
60937SOL     OW89925   3.188  12.899  11.760 -0.1840  0.5605  0.0047
60937SOL    HW189926   3.262  12.932  11.811  1.3288 -0.6558 -1.2933
60937SOL    HW289927   3.206  12.926  11.670  0.5766 -2.6429 -0.9554
60938SOL     OW89928   9.112   8.829  10.979 -0.5571 -0.0731 -0.0715
60938SOL    HW189929   9.033   8.826  10.925 -0.8933 -2.2749  0.4686
60938SOL    HW289930   9.084   8.799  11.065  0.5734  0.5897  0.5517
60939SOL     OW89931   2.348   7.998   7.180 -0.1876  0.3845 -0.0980
60939SOL    HW189932   2.365   8.014   7.087 -0.2473  0.5797 -0.0757
60939SOL    HW289933   2.434   8.006   7.222 -0.0165 -0.5484 -0.2498
60940SOL     OW89934  11.589   3.307   5.563  0.0784 -0.1808 -0.4726
60940SOL    HW189935  11.564   3.277   5.650 -0.3057  1.5373  0.0577
60940SOL    HW289936  11.505   3.330   5.521  0.4137  2.5099  0.1130
60941SOL     OW89937   5.895   3.885   9.931 -0.1449  0.2756 -0.6528
60941SOL    HW189938   5.894   3.981   9.933 -3.1474  0.4311 -3.0907
60941SOL    HW289939   5.803   3.860   9.936  0.5804 -2.5457  0.1624
60942SOL     OW89940   9.082  11.623   5.388 -0.0975  0.0929  0.0807
60942SOL    HW189941   9.126  11.635   5.472 -0.0668  0.8544 -0.0335
60942SOL    HW289942   9.023  11.549   5.402  0.1893 -0.0351  0.6504
60943SOL     OW89943  11.626   1.208   5.388 -0.0140 -0.4581  0.5265
60943SOL    HW189944  11.588   1.241   5.306 -1.3261 -0.8728  0.9524
60943SOL    HW289945  11.558   1.219   5.453 -0.1399 -2.9422  0.9306
60944SOL     OW89946   6.753   3.372   5.053 -0.7936 -0.9370  0.1095
60944SOL    HW189947   6.826   3.341   5.106  0.0251 -0.3413 -0.6371
60944SOL    HW289948   6.689   3.300   5.056  0.7328 -2.4335 -0.9846
60945SOL     OW89949   5.812   9.788   0.493  0.4171 -0.5043 -0.5232
60945SOL    HW189950   5.848   9.823   0.574 -1.7050  1.3410 -0.2758
60945SOL    HW289951   5.878   9.807   0.427  2.5232 -2.7242  0.8193
60946SOL     OW89952   9.072   6.968  11.457  0.6183 -0.3363 -0.3176
60946SOL    HW189953   9.111   6.979  11.544 -0.2429 -0.6942  0.1189
60946SOL    HW289954   9.109   6.887  11.424  0.2167 -0.6996  0.1159
60947SOL     OW89955  11.678   7.135   2.144 -0.1227 -0.0049  0.0495
60947SOL    HW189956  11.663   7.213   2.197 -0.3938  0.2067 -0.3333
60947SOL    HW289957  11.773   7.128   2.138 -0.0879 -0.0284  0.5542
60948SOL     OW89958   0.831  11.615   6.111  0.0778  0.3097  0.0238
60948SOL    HW189959   0.844  11.673   6.186 -0.1077  1.8470 -1.0685
60948SOL    HW289960   0.836  11.674   6.035  0.5742 -1.2364 -1.1848
60949SOL     OW89961   7.897   6.948   5.991 -0.5485 -0.5663  0.0614
60949SOL    HW189962   7.880   6.928   6.083 -2.5479  1.0783  0.1318
60949SOL    HW289963   7.916   6.864   5.951 -1.5885 -1.5799  1.5973
60950SOL     OW89964   8.525   5.720   1.376  0.2891 -0.0692 -0.2881
60950SOL    HW189965   8.595   5.720   1.441  0.2686  1.5711 -0.2356
60950SOL    HW289966   8.543   5.643   1.322  1.0659 -0.7055  0.8325
60951SOL     OW89967  10.185   7.602   9.666  0.1630 -0.1180 -0.0194
60951SOL    HW189968  10.101   7.592   9.621  0.3377  0.1104 -0.3987
60951SOL    HW289969  10.236   7.526   9.638  1.1753  1.2738 -2.2110
60952SOL     OW89970  10.322   6.041   0.028 -0.1181 -0.2108 -0.2984
60952SOL    HW189971  10.326   5.950  -0.001 -0.7503 -0.3761  0.0925
60952SOL    HW289972  10.230   6.055   0.051  0.3913 -0.2787  2.1145
60953SOL     OW89973   8.086   0.943   7.450 -0.1075  0.5164 -0.0318
60953SOL    HW189974   8.074   0.958   7.543 -0.3823 -1.3513  0.2717
60953SOL    HW289975   7.998   0.950   7.413 -0.1175  0.4853 -0.0153
60954SOL     OW89976   3.814   8.884   9.327  0.1028 -0.1280  0.1217
60954SOL    HW189977   3.801   8.838   9.410  0.5288  0.6020  0.6055
60954SOL    HW289978   3.743   8.853   9.271  0.2935 -1.2596  0.4757
60955SOL     OW89979   1.521   9.933   0.907  0.6892  0.1944  0.0136
60955SOL    HW189980   1.477   9.947   0.990 -1.0247  0.8823 -0.9572
60955SOL    HW289981   1.514  10.017   0.861  0.2257 -0.5775 -1.4153
60956SOL     OW89982   7.154   4.365   5.003 -0.2420 -0.1676 -0.1930
60956SOL    HW189983   7.065   4.342   5.031  0.5813 -0.9441  1.9508
60956SOL    HW289984   7.208   4.291   5.032  1.6905  1.9705  2.0571
60957SOL     OW89985   3.893   5.320   6.926  0.1995  0.3872  0.5258
60957SOL    HW189986   3.875   5.365   6.843 -0.9211 -0.1678  0.4521
60957SOL    HW289987   3.986   5.335   6.941  0.1086  1.7108 -0.0973
60958SOL     OW89988   0.181   5.581  10.898  0.1916 -0.4206 -0.1254
60958SOL    HW189989   0.231   5.567  10.979  1.2500  1.3898 -0.4120
60958SOL    HW289990   0.106   5.521  10.906  0.4884 -0.6099  1.9803
60959SOL     OW89991  10.245  12.962   5.989 -0.4983  0.4451  0.0801
60959SOL    HW189992  10.316  13.002   5.939 -0.6127 -0.1133 -0.5521
60959SOL    HW289993  10.223  13.026   6.056  0.2471  0.8444 -0.0505
60960SOL     OW89994   1.240   9.266   8.846 -0.1679  0.0995 -0.5692
60960SOL    HW189995   1.197   9.185   8.873  2.9638 -1.6766 -0.4549
60960SOL    HW289996   1.274   9.303   8.927 -0.8728  1.1577 -0.7317
60961SOL     OW89997   2.178   3.340  11.071  0.0541 -0.5605  0.3062
60961SOL    HW189998   2.240   3.276  11.105  3.1288  3.2943  2.8641
60961SOL    HW289999   2.128   3.369  11.147 -1.8692 -0.4494 -0.9333
60962SOL     OW90000   2.706   6.768  10.530 -0.2155  0.4458  0.9301
60962SOL    HW190001   2.779   6.827  10.514  1.1569 -1.0186  1.5310
60962SOL    HW290002   2.629   6.818  10.503  0.9990  1.9647  0.0737
60963SOL     OW90003  10.355  10.840   3.253  0.0873 -0.2923  0.5216
60963SOL    HW190004  10.267  10.822   3.286 -0.2329 -0.4188 -0.3939
60963SOL    HW290005  10.350  10.822   3.159  0.9535  0.2032  0.3748
60964SOL     OW90006   0.562   1.682   8.739  0.3909 -0.5458  0.4750
60964SOL    HW190007   0.599   1.632   8.811 -0.0397 -1.0879  0.3303
60964SOL    HW290008   0.510   1.750   8.781 -0.6132 -1.4219  0.6990
60965SOL     OW90009  11.062   0.794  12.538  0.0183  0.0714  0.3498
60965SOL    HW190010  11.140   0.846  12.519 -0.6521  0.9766  0.0342
60965SOL    HW290011  10.991   0.840  12.494 -0.6375 -0.9652  0.3001
60966SOL     OW90012  10.723   6.478  12.925  0.1735 -0.7146 -0.1480
60966SOL    HW190013  10.665   6.552  12.939 -0.9804 -1.3546 -1.2854
60966SOL    HW290014  10.665   6.407  12.895  1.6197 -1.1374 -2.1486
60967SOL     OW90015  12.625   9.422   1.105  0.3263 -0.0850  0.3657
60967SOL    HW190016  12.561   9.475   1.058 -0.8932 -1.7479  0.0787
60967SOL    HW290017  12.710   9.454   1.074 -0.4091 -0.5125 -2.3526
60968SOL     OW90018   2.904   7.210   5.502 -0.3065  0.3010 -0.1445
60968SOL    HW190019   2.971   7.147   5.474  1.0462  0.3045  2.7535
60968SOL    HW290020   2.829   7.191   5.445  0.6709 -2.6653 -0.6443
60969SOL     OW90021   6.824   9.234  11.015  0.5874  0.2160 -0.4742
60969SOL    HW190022   6.845   9.279  10.933 -0.8780  2.2496  0.1914
60969SOL    HW290023   6.896   9.257  11.074  0.8321  0.0727 -0.7173
60970SOL     OW90024   7.656   9.018   6.831 -0.6885  0.0368  0.3900
60970SOL    HW190025   7.634   8.928   6.856  0.9861 -0.2835  0.8424
60970SOL    HW290026   7.703   9.009   6.748  0.5947  0.3352  1.0489
60971SOL     OW90027  10.898   8.595   1.791 -0.0290 -0.2265 -0.7248
60971SOL    HW190028  10.947   8.670   1.756  0.3713 -1.0611 -2.0241
60971SOL    HW290029  10.891   8.535   1.717 -0.6263 -1.3340  0.2091
60972SOL     OW90030   2.267   2.547  11.289  0.4454 -0.4456 -0.0430
60972SOL    HW190031   2.320   2.566  11.367  1.7489  0.4973 -1.1197
60972SOL    HW290032   2.288   2.456  11.268  2.1883  0.0931 -0.8103
60973SOL     OW90033   3.478   1.801   5.781  0.4439  0.3233  0.3102
60973SOL    HW190034   3.427   1.833   5.707 -0.2980  0.0333  0.6878
60973SOL    HW290035   3.441   1.845   5.857 -0.3118 -1.0898  0.7833
60974SOL     OW90036   9.650   2.736   8.063  1.0125  0.4929 -0.1417
60974SOL    HW190037   9.731   2.693   8.036  0.2919 -0.8038 -0.3192
60974SOL    HW290038   9.615   2.774   7.982  0.8048 -0.0565 -0.3147
60975SOL     OW90039  12.881   0.798   7.190 -0.7632 -0.6323 -0.2892
60975SOL    HW190040  12.862   0.816   7.098  1.3296 -0.1365 -0.6647
60975SOL    HW290041  12.926   0.713   7.189 -2.2903 -1.5063  0.5090
60976SOL     OW90042   0.140   4.372   4.980  0.6826  0.7151 -0.1817
60976SOL    HW190043   0.078   4.356   4.908  2.2773 -0.5022 -1.3467
60976SOL    HW290044   0.153   4.286   5.020 -0.1810  1.3719  1.6457
60977SOL     OW90045   6.751  11.877   8.794 -0.4480  0.4259  0.5542
60977SOL    HW190046   6.684  11.837   8.737 -0.1739  0.0270  0.5023
60977SOL    HW290047   6.826  11.890   8.736  0.9359 -2.7891  1.4187
60978SOL     OW90048   6.514   9.073  10.858 -0.4358 -0.2784 -0.0827
60978SOL    HW190049   6.523   8.987  10.899  0.6406 -0.0503  0.1882
60978SOL    HW290050   6.524   9.136  10.930  0.0249  0.0972 -0.4661
60979SOL     OW90051   6.512   8.183   7.884 -0.4384 -0.0601  0.1089
60979SOL    HW190052   6.578   8.144   7.941  0.4346 -0.8492 -1.3608
60979SOL    HW290053   6.470   8.107   7.842 -1.3022  0.4841 -0.0363
60980SOL     OW90054  12.709   7.950   9.857 -0.5675 -0.0576 -0.0606
60980SOL    HW190055  12.614   7.945   9.870 -0.3801 -1.5033  1.0467
60980SOL    HW290056  12.742   7.867   9.892  1.0202 -0.0086 -1.3193
60981SOL     OW90057   0.225   5.542  10.357 -0.5137  0.0149  0.6069
60981SOL    HW190058   0.138   5.518  10.325 -0.1297  0.5453 -0.9247
60981SOL    HW290059   0.239   5.486  10.433 -0.5805 -2.9907 -1.4148
60982SOL     OW90060   5.947   2.787   1.081  0.0869 -0.8242 -0.1972
60982SOL    HW190061   5.908   2.793   1.167  2.1856 -2.0955  0.9489
60982SOL    HW290062   6.041   2.802   1.096  0.3696  0.0259 -2.4304
60983SOL     OW90063   0.842   4.393   8.716  0.2251 -0.0007  0.1232
60983SOL    HW190064   0.815   4.407   8.807 -0.3139 -0.2293  0.0043
60983SOL    HW290065   0.824   4.300   8.700  1.5077 -0.2723  0.1746
60984SOL     OW90066   6.524   2.925   4.229 -0.7974  0.4552 -0.3180
60984SOL    HW190067   6.576   2.906   4.306 -0.5780 -1.6071 -0.9043
60984SOL    HW290068   6.587   2.927   4.157 -1.2984 -0.4035 -0.8016
60985SOL     OW90069  11.846  11.572  11.106  0.3981 -0.4205 -0.2338
60985SOL    HW190070  11.808  11.643  11.157 -2.4735 -1.3048 -0.9890
60985SOL    HW290071  11.900  11.617  11.040 -0.7123  1.0421 -0.1925
60986SOL     OW90072  11.490   2.563   8.465  0.0448 -0.0474 -0.9945
60986SOL    HW190073  11.419   2.509   8.499  0.5440 -1.0123 -1.4709
60986SOL    HW290074  11.569   2.529   8.506  0.4264 -0.0107 -1.6847
60987SOL     OW90075  12.028   5.169   1.266  0.0248  0.5730  0.7319
60987SOL    HW190076  12.018   5.258   1.233  0.9670  1.1286  1.8610
60987SOL    HW290077  12.118   5.165   1.298 -0.4119 -0.3390  1.9528
60988SOL     OW90078  12.631  10.578   3.803 -0.1305 -0.6630  0.5920
60988SOL    HW190079  12.689  10.507   3.830 -0.0421 -0.8947 -0.1959
60988SOL    HW290080  12.689  10.645   3.768 -0.2219 -0.2307  1.2427
60989SOL     OW90081   5.667   4.296   6.185  0.5221  0.0551  0.0889
60989SOL    HW190082   5.613   4.255   6.252  0.9489 -0.5644  0.0709
60989SOL    HW290083   5.757   4.287   6.218  0.8052 -0.8940 -0.8747
60990SOL     OW90084   6.650   0.430  10.712 -0.1209  0.3669  0.1636
60990SOL    HW190085   6.702   0.502  10.678  1.7239 -0.6431  0.6892
60990SOL    HW290086   6.697   0.402  10.791 -0.8841 -1.2541  0.0930
60991SOL     OW90087   8.236  10.259   2.068 -0.6059 -0.0034 -0.1571
60991SOL    HW190088   8.233  10.243   2.162 -1.5866  2.6675  0.3677
60991SOL    HW290089   8.146  10.244   2.038 -0.3941 -0.4148 -0.6067
60992SOL     OW90090  12.200   6.850   6.779  0.8280  0.2907 -0.2192
60992SOL    HW190091  12.197   6.933   6.826  1.0619  1.9429 -2.8885
60992SOL    HW290092  12.117   6.846   6.731  0.7708 -1.1078 -0.0537
60993SOL     OW90093   2.464   6.323  11.355  0.0534  0.1283 -0.0784
60993SOL    HW190094   2.476   6.229  11.365  3.0503  0.5087  1.2116
60993SOL    HW290095   2.404   6.333  11.281 -0.4505 -2.7609 -0.1595
60994SOL     OW90096  12.935   4.965   1.257  0.6346 -0.2640  0.1352
60994SOL    HW190097  13.016   4.931   1.295  0.3081 -1.2834 -0.0605
60994SOL    HW290098  12.878   4.888   1.248 -1.3826  0.7759  2.7192
60995SOL     OW90099  11.788  10.512   6.944 -0.2338  0.2602 -0.3904
60995SOL    HW190100  11.827  10.568   6.877 -1.0863  0.2587 -0.9104
60995SOL    HW290101  11.823  10.425   6.927 -0.3018  0.2954 -0.7217
60996SOL     OW90102   4.591  12.245   0.651 -0.2392 -0.2748 -0.5487
60996SOL    HW190103   4.614  12.300   0.575  1.1960  1.1081  0.7936
60996SOL    HW290104   4.496  12.253   0.658 -0.2510  0.6750 -1.4072
60997SOL     OW90105  11.657   0.223   0.130 -0.5176  0.7909  0.0030
60997SOL    HW190106  11.715   0.149   0.112 -0.0525  0.7824  1.4143
60997SOL    HW290107  11.702   0.299   0.091 -0.5017  0.4943 -0.5644
60998SOL     OW90108   4.448  11.996   3.546  0.0311 -0.2172 -0.2159
60998SOL    HW190109   4.458  11.910   3.504 -0.7732 -1.5099  2.0169
60998SOL    HW290110   4.354  12.014   3.541 -0.1831 -0.6959  1.4388
60999SOL     OW90111   9.038   4.677   1.128 -0.5070  1.0325 -0.0156
60999SOL    HW190112   8.979   4.640   1.062 -0.7198  1.7101 -0.2112
60999SOL    HW290113   9.108   4.719   1.077  0.5176 -0.3344  0.2182
61000SOL     OW90114  12.701   6.793   1.370 -0.5584 -0.5891  0.5048
61000SOL    HW190115  12.741   6.722   1.320  0.6727  0.7537 -0.5125
61000SOL    HW290116  12.693   6.865   1.307  1.2782  1.2764  2.2279
61001SOL     OW90117   6.947  11.482  10.319  0.1848 -0.6173 -0.4422
61001SOL    HW190118   6.999  11.480  10.399 -0.1890 -1.3751 -0.2036
61001SOL    HW290119   7.011  11.469  10.249  0.7004  1.3874 -0.4016
61002SOL     OW90120   4.327   5.531   3.281 -0.2645  0.4423 -0.0593
61002SOL    HW190121   4.359   5.584   3.354  2.0052 -0.6301 -0.1972
61002SOL    HW290122   4.380   5.558   3.206 -1.6420  0.5697 -1.0375
61003SOL     OW90123   0.261   7.463   7.943 -0.1274 -0.2184  0.2437
61003SOL    HW190124   0.321   7.443   7.871 -1.3195 -1.3616 -0.4679
61003SOL    HW290125   0.178   7.426   7.916 -1.8533  3.3068  0.1433
61004SOL     OW90126   9.443   4.385   4.461  0.6787 -0.4113  0.4578
61004SOL    HW190127   9.462   4.459   4.518 -0.5319  2.4000 -2.4398
61004SOL    HW290128   9.349   4.370   4.472  0.4844 -0.0101 -0.5333
61005SOL     OW90129   2.342   0.875   8.865  0.3198  0.3137  0.0230
61005SOL    HW190130   2.345   0.804   8.929 -0.7695  0.5004  0.3074
61005SOL    HW290131   2.307   0.834   8.785 -3.0264  0.9891  0.9631
61006SOL     OW90132   8.395   9.369   8.556  0.0768 -0.1864 -0.2871
61006SOL    HW190133   8.306   9.403   8.550  0.9402  2.0966 -1.2901
61006SOL    HW290134   8.415   9.338   8.467  0.7101  0.5453 -0.4127
61007SOL     OW90135   1.869   1.260   0.973  0.1736  0.3746 -0.4256
61007SOL    HW190136   1.847   1.173   1.006  1.7434  0.5242  1.1812
61007SOL    HW290137   1.805   1.318   1.014  0.5293  0.2357  0.3409
61008SOL     OW90138   2.492   7.799  11.949 -0.2043  0.1507 -0.2349
61008SOL    HW190139   2.566   7.794  12.009  0.4013 -0.4842 -1.0267
61008SOL    HW290140   2.506   7.879  11.899  0.5031 -0.4888 -1.0859
61009SOL     OW90141  10.576   3.222   0.209 -0.2178 -0.8511 -0.0053
61009SOL    HW190142  10.556   3.172   0.288  0.7218 -2.0645 -0.4895
61009SOL    HW290143  10.653   3.177   0.172  1.1540  1.3909 -0.0831
61010SOL     OW90144   5.139   1.192   2.209 -0.5604  0.0338 -0.3654
61010SOL    HW190145   5.212   1.167   2.265 -0.4861  0.9775 -0.0307
61010SOL    HW290146   5.169   1.172   2.121  0.5283  1.3703 -0.3305
61011SOL     OW90147   4.889   6.924   4.746 -0.2347 -0.3784  0.4487
61011SOL    HW190148   4.967   6.871   4.762 -0.3264 -0.7420 -0.2903
61011SOL    HW290149   4.922   7.006   4.709 -0.1049  0.0537  1.4634
61012SOL     OW90150   3.481   9.525   5.903 -0.5989 -0.1552 -0.2012
61012SOL    HW190151   3.459   9.606   5.951 -0.2262 -0.0743 -0.1638
61012SOL    HW290152   3.570   9.504   5.931 -0.3032 -0.0006 -1.0048
61013SOL     OW90153   5.506   0.605   4.178  0.4186 -0.9928 -0.3648
61013SOL    HW190154   5.578   0.564   4.226  0.0850 -1.5124 -0.2973
61013SOL    HW290155   5.439   0.622   4.244  2.0806  3.5722  0.5150
61014SOL     OW90156  12.691  10.662   5.403  0.1898 -0.6302  0.5609
61014SOL    HW190157  12.769  10.714   5.382 -0.0466 -0.6585 -0.4394
61014SOL    HW290158  12.656  10.703   5.483 -0.4715  1.3155 -0.6584
61015SOL     OW90159   0.067  10.401   9.007 -0.5142  0.1261  0.0322
61015SOL    HW190160   0.033  10.325   9.054 -1.0938  0.8385  0.7893
61015SOL    HW290161   0.141  10.431   9.061 -0.1275 -0.0340 -0.3956
61016SOL     OW90162  11.813   0.414  11.687 -0.1042 -0.0581  0.0796
61016SOL    HW190163  11.883   0.452  11.740 -0.1140  1.0007 -0.6176
61016SOL    HW290164  11.796   0.329  11.726  0.8238  0.1258  0.9250
61017SOL     OW90165   4.300  11.967   0.858 -0.4030  0.5489 -0.2050
61017SOL    HW190166   4.254  11.912   0.922 -1.5874  0.0530 -1.4214
61017SOL    HW290167   4.254  12.051   0.861 -1.3606  0.0936 -1.3315
61018SOL     OW90168   2.580   9.302   2.688  0.2667  0.3703  0.6737
61018SOL    HW190169   2.640   9.373   2.668  0.5526  0.5244  1.9779
61018SOL    HW290170   2.632   9.240   2.738  0.5013 -1.6380 -1.8413
61019SOL     OW90171   9.732   4.091   0.831  0.4931 -0.4688 -0.4958
61019SOL    HW190172   9.664   4.066   0.769 -0.3920 -1.5308  0.8576
61019SOL    HW290173   9.701   4.174   0.868  0.4315 -0.4460 -0.5992
61020SOL     OW90174  11.376   9.832  10.011 -0.0678  0.2929  0.5020
61020SOL    HW190175  11.385   9.856  10.103 -0.2713 -0.6208  0.7729
61020SOL    HW290176  11.429   9.753  10.001 -0.3175  0.1916 -0.0808
61021SOL     OW90177   5.648   6.652   7.958  0.3966  0.1400 -0.2761
61021SOL    HW190178   5.584   6.686   8.019  0.3534 -3.2299  1.8340
61021SOL    HW290179   5.709   6.602   8.013  1.1529 -1.9608 -2.8148
61022SOL     OW90180   8.014   1.809   2.800 -0.6700  0.0703 -0.3731
61022SOL    HW190181   8.078   1.854   2.745 -0.1317  0.8393  0.8313
61022SOL    HW290182   8.066   1.754   2.858 -1.3090 -1.8669 -1.5627
61023SOL     OW90183   2.083   8.849   8.278  0.1528  0.7392  0.0017
61023SOL    HW190184   2.052   8.858   8.188 -0.5712  1.4100  0.3022
61023SOL    HW290185   2.178   8.843   8.270  0.3704  3.5537 -0.6839
61024SOL     OW90186   3.859   2.254   9.786  0.6013  0.2625 -0.2923
61024SOL    HW190187   3.783   2.258   9.844  1.2257  1.0096  0.5035
61024SOL    HW290188   3.932   2.285   9.840  1.7966 -1.9142 -0.5097
61025SOL     OW90189   5.818   6.598   9.792 -0.5253  0.6534  0.1099
61025SOL    HW190190   5.796   6.691   9.786 -0.8910  0.8670  3.2628
61025SOL    HW290191   5.861   6.578   9.708 -0.5546  3.5935 -0.7084
61026SOL     OW90192   7.568   3.991  10.242 -0.2678  0.3719 -0.1082
61026SOL    HW190193   7.650   3.949  10.269 -0.0564  0.8097 -0.0645
61026SOL    HW290194   7.509   3.918  10.222 -0.0333  0.0492  0.3538
61027SOL     OW90195  12.736  10.161   1.636 -0.4389  0.2115 -0.1062
61027SOL    HW190196  12.769  10.226   1.698 -0.7458 -0.8795  1.2436
61027SOL    HW290197  12.772  10.078   1.666  2.2275 -0.0350 -3.3924
61028SOL     OW90198   7.424  10.621  12.503 -0.5008  0.0838  0.0791
61028SOL    HW190199   7.384  10.536  12.484  0.8346 -0.5757  0.0818
61028SOL    HW290200   7.447  10.616  12.596 -2.3290  1.3069  0.6697
61029SOL     OW90201   8.530   9.522   7.697 -0.0792 -0.1565 -0.1851
61029SOL    HW190202   8.614   9.519   7.743 -0.0532  0.6549 -0.1689
61029SOL    HW290203   8.470   9.560   7.761 -0.5798 -1.1660 -0.0310
61030SOL     OW90204   8.786  10.069  11.171 -0.6965 -0.1218  0.0824
61030SOL    HW190205   8.799  10.057  11.265 -1.7914  0.0194  0.2615
61030SOL    HW290206   8.710  10.016  11.150  0.2352 -1.1101 -0.9742
61031SOL     OW90207   7.084  11.660   2.930 -0.7949 -0.5733 -0.3143
61031SOL    HW190208   7.036  11.727   2.882  0.0251  0.5964  0.4369
61031SOL    HW290209   7.114  11.705   3.009  0.6183 -1.5408 -0.2644
61032SOL     OW90210   0.793   1.893   7.900 -0.0034 -0.0675 -0.1012
61032SOL    HW190211   0.832   1.816   7.939 -1.3574 -0.5152  0.4321
61032SOL    HW290212   0.701   1.890   7.927 -0.1099  1.6880 -0.1234
61033SOL     OW90213  11.474   0.479  11.555 -0.4217 -0.4146 -0.1694
61033SOL    HW190214  11.428   0.534  11.492  2.0044 -0.6794 -2.3362
61033SOL    HW290215  11.525   0.540  11.609 -1.2952 -0.2850  0.5211
61034SOL     OW90216   0.515   8.504   6.103 -0.0190 -0.1097  0.3762
61034SOL    HW190217   0.429   8.524   6.065  0.0863  1.1584  0.7557
61034SOL    HW290218   0.494   8.462   6.187 -0.3465  1.9971  1.4230
61035SOL     OW90219   7.928   4.815  11.430  0.2606 -0.4826 -0.0144
61035SOL    HW190220   7.878   4.859  11.362  1.1813 -0.3229 -0.6001
61035SOL    HW290221   8.016   4.852  11.423  0.2373 -0.0158  1.6587
61036SOL     OW90222  10.175   2.860   3.731 -0.1133 -0.3800  0.0378
61036SOL    HW190223  10.094   2.827   3.692  1.0625 -0.6544 -2.3923
61036SOL    HW290224  10.233   2.784   3.735  0.6437  0.1751 -0.0599
61037SOL     OW90225   8.627   7.333   1.490 -0.1714  0.3782 -0.1528
61037SOL    HW190226   8.591   7.421   1.497 -1.9532 -0.1653 -1.4438
61037SOL    HW290227   8.647   7.308   1.580 -2.3379  1.0826  0.5985
61038SOL     OW90228   7.527   7.245   6.089 -0.7371  0.1827  0.9012
61038SOL    HW190229   7.613   7.287   6.081 -1.1708  0.8487 -0.4825
61038SOL    HW290230   7.548   7.153   6.110  0.3546  0.1143 -0.3476
61039SOL     OW90231   9.908   2.616  10.281 -0.5356  0.3122 -0.3110
61039SOL    HW190232   9.818   2.636  10.256 -0.4614  0.1236 -0.7486
61039SOL    HW290233   9.958   2.629  10.200 -0.1610  0.4819 -0.0494
61040SOL     OW90234   8.492  12.763   4.158 -0.3169 -0.4482  0.7069
61040SOL    HW190235   8.575  12.728   4.126 -1.1743 -3.2043  1.2422
61040SOL    HW290236   8.440  12.777   4.079 -0.9436 -3.2618  0.5041
61041SOL     OW90237   6.312   7.590   1.506 -0.1643  0.1846  0.0440
61041SOL    HW190238   6.266   7.548   1.579 -0.7005  0.4819 -0.1206
61041SOL    HW290239   6.294   7.683   1.516  0.3307  0.2962 -0.0765
61042SOL     OW90240  12.890   0.588   8.203  0.2835 -0.0534 -0.3123
61042SOL    HW190241  12.958   0.524   8.220  0.2207 -0.9379 -2.9632
61042SOL    HW290242  12.811   0.550   8.241  0.7305 -0.3572  0.3186
61043SOL     OW90243  10.025  12.908  10.648 -0.2802  0.1067  0.5068
61043SOL    HW190244   9.952  12.968  10.633 -0.4368  0.9432  3.7365
61043SOL    HW290245  10.102  12.958  10.620 -0.7499 -0.2616 -1.6356
61044SOL     OW90246  12.918  11.819  10.169 -0.1440 -0.2419  0.0226
61044SOL    HW190247  12.942  11.755  10.236  0.9065 -1.0355 -1.0536
61044SOL    HW290248  12.847  11.778  10.120 -0.8959  0.3271  0.6080
61045SOL     OW90249  12.727   4.940  12.951  0.3900  0.2060  0.4929
61045SOL    HW190250  12.684   4.936  13.036 -0.0396 -2.0711  0.2221
61045SOL    HW290251  12.820   4.931  12.972  0.2478 -0.9096  0.7199
61046SOL     OW90252   3.837   3.785  10.573  1.0456  0.1437 -0.2180
61046SOL    HW190253   3.808   3.790  10.482  0.6783 -3.0645 -0.3900
61046SOL    HW290254   3.762   3.750  10.620  1.7299  0.3539  1.0764
61047SOL     OW90255   9.901   8.051   6.387  1.4949  0.0478 -0.0090
61047SOL    HW190256   9.845   7.995   6.333 -0.2908 -1.0166  2.7295
61047SOL    HW290257   9.982   8.059   6.337  0.2068 -1.2800 -2.5445
61048SOL     OW90258   7.274  10.000   0.151  0.4851 -0.0050  0.4962
61048SOL    HW190259   7.208  10.020   0.217  0.6407 -0.5446  0.8277
61048SOL    HW290260   7.225   9.995   0.069  0.4199  1.5141  0.4253
61049SOL     OW90261   7.822   6.342   7.389  0.4189 -0.0517  0.1907
61049SOL    HW190262   7.790   6.255   7.414  0.3995 -0.2753 -0.5944
61049SOL    HW290263   7.837   6.336   7.295 -1.1125  1.2633 -0.1818
61050SOL     OW90264   6.708   3.671   7.413  0.3714  0.0871 -0.2174
61050SOL    HW190265   6.687   3.747   7.358 -0.5448  0.0330  0.0435
61050SOL    HW290266   6.715   3.598   7.352 -1.0806 -0.0584 -0.2429
61051SOL     OW90267   5.428   1.610  12.646 -0.2666  0.3788 -0.6154
61051SOL    HW190268   5.369   1.685  12.657  0.4742  0.7341  1.6902
61051SOL    HW290269   5.386   1.555  12.580 -1.3326  2.3415 -1.6515
61052SOL     OW90270  11.368   3.810   4.870  0.2241  0.0470 -0.5127
61052SOL    HW190271  11.400   3.860   4.945 -0.2168 -0.9550  0.3654
61052SOL    HW290272  11.396   3.861   4.793 -2.1670  2.9403  0.3190
61053SOL     OW90273   8.005   4.520   2.340  0.0050  0.1557  0.1435
61053SOL    HW190274   7.977   4.472   2.262 -0.9990  0.5236  0.2573
61053SOL    HW290275   7.924   4.537   2.388  0.7168 -1.1840  1.9342
61054SOL     OW90276   4.920   7.139   7.596 -0.4834 -0.2983  0.0278
61054SOL    HW190277   4.947   7.181   7.678 -0.5035 -0.2683  0.0189
61054SOL    HW290278   4.984   7.169   7.532  0.3458 -1.3767  0.3119
61055SOL     OW90279   7.718   2.532  10.169  0.7672  0.3586  0.0390
61055SOL    HW190280   7.735   2.576  10.252  1.2975 -0.3206  0.3010
61055SOL    HW290281   7.741   2.597  10.102  0.9976  0.6758  0.4251
61056SOL     OW90282   6.719   8.408  10.721  0.5234 -0.1599  0.5158
61056SOL    HW190283   6.773   8.462  10.664 -0.4202  0.3282  0.0549
61056SOL    HW290284   6.676   8.345  10.663  1.9748 -1.7593  1.1093
61057SOL     OW90285   0.826   3.604  12.083 -0.2309 -0.0570 -0.8023
61057SOL    HW190286   0.792   3.529  12.035 -2.3011  0.2974  0.0150
61057SOL    HW290287   0.785   3.598  12.169  3.0848 -0.4757  0.9204
61058SOL     OW90288   5.886   4.960  10.491 -0.3375 -0.5550 -0.6617
61058SOL    HW190289   5.896   4.951  10.585  1.0910 -0.2203 -0.7503
61058SOL    HW290290   5.801   5.002  10.479  0.4781  1.5814  0.6111
61059SOL     OW90291  10.773   4.096   5.429  0.0381  0.7286 -0.5428
61059SOL    HW190292  10.703   4.160   5.417  0.3336  0.8647 -1.6145
61059SOL    HW290293  10.849   4.135   5.387  0.8028  0.6247  0.6921
61060SOL     OW90294   1.138   1.842   8.953  0.4236  0.1239 -0.2427
61060SOL    HW190295   1.065   1.788   8.984  0.6262  0.7255  1.3322
61060SOL    HW290296   1.128   1.925   8.999  0.8925  0.9814 -1.6332
61061SOL     OW90297   4.566   4.788   3.259 -0.3358 -0.1505  0.0577
61061SOL    HW190298   4.644   4.737   3.239 -0.7784 -1.0006  0.4536
61061SOL    HW290299   4.544   4.832   3.176 -0.9841 -2.0431 -0.8453
61062SOL     OW90300   8.700   9.034   9.899 -0.0883  0.5464  0.2807
61062SOL    HW190301   8.630   9.092   9.871 -0.8336  0.5155  1.9942
61062SOL    HW290302   8.748   9.014   9.818 -0.6898  2.3387 -0.5830
61063SOL     OW90303  11.804  10.356   0.168 -0.2021  0.4045 -0.1745
61063SOL    HW190304  11.806  10.306   0.086 -1.7783 -0.7993  0.4455
61063SOL    HW290305  11.730  10.416   0.158 -0.0785  0.6119  0.1429
61064SOL     OW90306  11.152   4.311  12.281 -0.2636  0.6630 -0.3816
61064SOL    HW190307  11.169   4.254  12.206 -1.5041 -0.9907  0.5289
61064SOL    HW290308  11.085   4.265  12.332 -0.3551  2.3218  1.1087
61065SOL     OW90309   1.000   3.661  10.929 -0.4218  0.0419 -0.0587
61065SOL    HW190310   0.953   3.586  10.893  1.9304 -0.1202 -3.2099
61065SOL    HW290311   1.056   3.624  10.997  0.1529 -0.9486 -1.0543
61066SOL     OW90312   6.098   9.857  12.020 -0.4984  0.3519 -0.0133
61066SOL    HW190313   6.020   9.892  11.977  0.3173  1.7556 -0.4561
61066SOL    HW290314   6.162   9.928  12.013  1.1182 -1.0786 -0.4964
61067SOL     OW90315  12.443   8.649   9.162 -0.4454 -0.0015  0.2646
61067SOL    HW190316  12.490   8.696   9.231 -1.0611  2.2745 -0.7425
61067SOL    HW290317  12.445   8.557   9.188  1.8876  0.4054  1.7810
61068SOL     OW90318   7.033   4.498   8.499  0.7199  0.2943  0.0916
61068SOL    HW190319   7.006   4.484   8.590 -0.6738  2.1723  0.0338
61068SOL    HW290320   7.002   4.420   8.453 -0.3084  0.1943  0.9095
61069SOL     OW90321   1.544   7.009  11.417  0.1327  0.1802 -0.1211
61069SOL    HW190322   1.526   6.965  11.334  0.2978 -0.5523  0.2314
61069SOL    HW290323   1.514   6.948  11.484 -1.2092  1.3071  0.3507
61070SOL     OW90324   7.201   5.411   0.584  0.2963  0.4617  0.6789
61070SOL    HW190325   7.152   5.332   0.607 -0.8532  0.7543 -0.6028
61070SOL    HW290326   7.140   5.483   0.600  1.3180  1.1133  1.8032
61071SOL     OW90327   3.953   7.694   5.604  0.3695  0.3081 -0.3098
61071SOL    HW190328   3.973   7.606   5.571 -1.1939  0.1172 -0.8217
61071SOL    HW290329   3.949   7.748   5.525  0.6830  0.7132 -0.0497
61072SOL     OW90330   4.938  11.933   9.174  0.2035 -0.1673  0.2652
61072SOL    HW190331   4.952  11.895   9.261 -0.4222  1.3682  1.0786
61072SOL    HW290332   4.998  11.886   9.117  0.8736 -0.9768  1.5977
61073SOL     OW90333   9.518   5.977   4.276  0.0136  0.7966 -0.4067
61073SOL    HW190334   9.502   6.027   4.356  1.9358  0.2472  0.3858
61073SOL    HW290335   9.432   5.971   4.234 -1.1954  0.5913  1.8976
61074SOL     OW90336   1.632  10.888   5.873  0.0052 -0.2909  0.0742
61074SOL    HW190337   1.691  10.963   5.883  0.4524 -0.8548  2.1760
61074SOL    HW290338   1.688  10.812   5.888 -1.0687 -0.8757  1.3461
61075SOL     OW90339   8.846   8.569   7.783  0.2254  0.0191  0.5950
61075SOL    HW190340   8.942   8.577   7.782  0.2657  0.1387 -2.1391
61075SOL    HW290341   8.815   8.656   7.809  0.8723  0.5100 -0.2257
61076SOL     OW90342   8.607   1.717   8.540  0.0816  0.5044 -0.1084
61076SOL    HW190343   8.652   1.728   8.624 -0.5876 -2.5261  0.7833
61076SOL    HW290344   8.678   1.706   8.476  0.6954 -1.6866  0.8574
61077SOL     OW90345   9.371   1.561  10.770 -0.0275 -0.7965 -0.4730
61077SOL    HW190346   9.359   1.617  10.694 -0.8544 -0.6037 -0.2151
61077SOL    HW290347   9.331   1.478  10.745  1.1560 -1.2674 -0.8408
61078SOL     OW90348   2.527   2.081   8.734 -0.5339 -0.7784  0.0171
61078SOL    HW190349   2.491   2.011   8.789 -0.4465  0.8189  2.2511
61078SOL    HW290350   2.513   2.161   8.785 -0.7493  0.8946 -2.4844
61079SOL     OW90351   8.498   3.028   1.459 -0.7540  0.2725  0.1133
61079SOL    HW190352   8.541   2.945   1.482 -0.8473  0.4189  0.8231
61079SOL    HW290353   8.565   3.095   1.471 -0.8308  0.3626  0.0473
61080SOL     OW90354   7.950  10.846   2.618 -0.1913  0.6134 -0.1994
61080SOL    HW190355   7.990  10.907   2.680  1.5436  0.0213 -0.6908
61080SOL    HW290356   8.005  10.769   2.620 -0.0616  0.5680 -2.4542
61081SOL     OW90357   7.726   9.854  12.698 -0.5379 -0.6587 -0.1933
61081SOL    HW190358   7.663   9.838  12.768 -0.0768  2.0881  0.9883
61081SOL    HW290359   7.811   9.843  12.739 -0.1768 -2.8751 -1.4022
61082SOL     OW90360  11.815   2.511  10.940 -0.5597 -0.3730  0.1847
61082SOL    HW190361  11.751   2.581  10.926 -0.1458  0.0368  0.3127
61082SOL    HW290362  11.872   2.515  10.863 -0.8614 -0.9310 -0.0747
61083SOL     OW90363   3.311   1.099   0.034  0.1459  1.0734 -0.1805
61083SOL    HW190364   3.405   1.088   0.041  0.1709  0.3253 -1.4401
61083SOL    HW290365   3.293   1.097  -0.060 -1.0537  1.8862  0.0053
61084SOL     OW90366   8.060   3.692   5.871  0.5244 -0.9848  0.5786
61084SOL    HW190367   8.078   3.633   5.944 -0.3596 -1.7179  0.2308
61084SOL    HW290368   8.109   3.654   5.797  1.1368 -0.4412  0.6931
61085SOL     OW90369   3.942   7.747   8.239  0.5277  0.5521  0.2058
61085SOL    HW190370   3.974   7.666   8.277  1.0192  0.4528 -0.4077
61085SOL    HW290371   3.860   7.765   8.286 -1.2788 -1.9324 -1.6693
61086SOL     OW90372   6.492  12.967  11.225 -0.1068 -0.2823  0.0207
61086SOL    HW190373   6.490  13.063  11.222 -1.5458 -0.0908  3.0859
61086SOL    HW290374   6.399  12.942  11.221  0.0018 -1.2753  2.2922
61087SOL     OW90375   5.832   4.844  11.134 -0.6539  0.0596 -0.1876
61087SOL    HW190376   5.874   4.797  11.061  1.0397 -0.6693  1.1891
61087SOL    HW290377   5.797   4.923  11.094 -0.2107 -0.5528 -1.8923
61088SOL     OW90378  11.553   3.384   0.593 -0.4781 -0.3706  0.0823
61088SOL    HW190379  11.540   3.345   0.506  1.5001  0.2974 -0.5579
61088SOL    HW290380  11.531   3.476   0.581  2.5796  0.3705 -0.5412
61089SOL     OW90381   8.292  11.263  12.873  0.1283  0.8458  0.0148
61089SOL    HW190382   8.202  11.288  12.894 -0.3443 -1.5216  1.1176
61089SOL    HW290383   8.286  11.174  12.840  2.0880  0.5556  0.2826
61090SOL     OW90384   0.241   1.398   9.802 -0.2642 -0.3252  0.2563
61090SOL    HW190385   0.187   1.460   9.752  0.7949 -0.6413 -1.3531
61090SOL    HW290386   0.331   1.415   9.773  0.1050 -2.3173  0.0738
61091SOL     OW90387  10.012   3.056   4.936 -0.2827  0.2632 -0.4360
61091SOL    HW190388  10.030   3.142   4.975 -1.2930  0.2166  0.1769
61091SOL    HW290389   9.983   3.002   5.010  0.4013 -0.6359 -0.8032
61092SOL     OW90390   1.894   9.384  12.689  0.3839  0.3913 -0.7599
61092SOL    HW190391   1.941   9.302  12.703  2.0433  1.3500 -0.3175
61092SOL    HW290392   1.865   9.410  12.777 -0.3712  0.1451 -0.9361
61093SOL     OW90393   5.901   6.651   7.031 -0.3859 -0.4079  0.4668
61093SOL    HW190394   5.820   6.627   6.985  0.3602 -1.0990 -0.5022
61093SOL    HW290395   5.909   6.585   7.100 -0.6809 -0.2969  0.6095
61094SOL     OW90396   9.425   9.986   6.731 -0.2347 -0.2914  0.2152
61094SOL    HW190397   9.495   9.922   6.722 -1.0215 -1.0824 -0.4517
61094SOL    HW290398   9.469  10.068   6.754  0.9041 -0.7509 -0.3045
61095SOL     OW90399   9.956   3.310   1.274  0.3912 -0.0705 -0.0052
61095SOL    HW190400  10.007   3.270   1.344 -0.9939 -0.9967  0.5183
61095SOL    HW290401   9.982   3.402   1.274  2.0493 -0.5122  0.2104
61096SOL     OW90402  10.674   0.489   3.213 -0.2542  0.3759  0.2377
61096SOL    HW190403  10.611   0.547   3.170  0.3624  0.9061  0.0433
61096SOL    HW290404  10.759   0.519   3.182  0.0373 -1.5137 -0.9755
61097SOL     OW90405   0.236  12.796  10.556 -0.1130 -0.3227 -0.0070
61097SOL    HW190406   0.293  12.868  10.531 -0.6508  0.4738  1.0174
61097SOL    HW290407   0.150  12.820  10.524 -0.0644 -1.1288 -0.7954
61098SOL     OW90408   4.680   7.782   7.257  0.0882  0.1333 -0.1031
61098SOL    HW190409   4.707   7.699   7.297  0.6971  0.1224 -0.5175
61098SOL    HW290410   4.587   7.771   7.237 -0.1945  0.0868  1.1684
61099SOL     OW90411   1.047   3.083   6.012 -0.3685  0.4863 -0.4893
61099SOL    HW190412   0.957   3.060   5.990 -1.0001  0.1799  2.1584
61099SOL    HW290413   1.091   2.999   6.023 -0.3541  0.5989  0.3852
61100SOL     OW90414   0.013  12.048   7.791 -0.3969 -0.1099 -0.1006
61100SOL    HW190415  -0.007  11.956   7.778 -0.9011 -0.0854  0.4706
61100SOL    HW290416  -0.062  12.082   7.841 -0.6025  0.7857 -0.9860
61101SOL     OW90417  12.802   1.846   3.484  0.1696 -0.2676  0.1812
61101SOL    HW190418  12.769   1.923   3.530 -1.9781  0.7347 -2.7257
61101SOL    HW290419  12.882   1.877   3.441 -0.3637  0.2134 -0.4912
61102SOL     OW90420   3.772  12.832   3.467 -0.2380 -0.1541  0.3022
61102SOL    HW190421   3.791  12.921   3.435 -0.4688 -0.2780 -0.1901
61102SOL    HW290422   3.857  12.789   3.470 -0.3419 -0.5453 -1.3965
61103SOL     OW90423   5.755   3.304   4.945  0.2701  0.1110 -0.2519
61103SOL    HW190424   5.767   3.388   4.989 -3.4952 -0.2134  1.7885
61103SOL    HW290425   5.706   3.324   4.865 -0.3683 -0.0661  0.0851
61104SOL     OW90426  12.635  11.143   8.139  0.4523 -0.4141  0.2248
61104SOL    HW190427  12.691  11.106   8.207  2.2190 -1.4648 -1.7139
61104SOL    HW290428  12.690  11.209   8.095  0.4495 -1.8068 -2.0290
61105SOL     OW90429   2.714  12.286   5.494  0.0580 -0.5342 -0.0428
61105SOL    HW190430   2.721  12.347   5.420 -0.9103 -0.6202 -0.2165
61105SOL    HW290431   2.642  12.320   5.546 -0.5555 -1.5791 -0.1919
61106SOL     OW90432  12.429   3.156  11.592 -0.2558 -0.4828 -0.1009
61106SOL    HW190433  12.457   3.239  11.630 -0.9292 -0.2345 -0.1425
61106SOL    HW290434  12.510   3.117  11.557 -0.0081  0.3336 -0.4504
61107SOL     OW90435   8.292   3.019   4.708  0.8130  0.4231  0.0545
61107SOL    HW190436   8.376   3.025   4.753  0.4554  2.1943  0.5895
61107SOL    HW290437   8.232   3.070   4.763 -0.2681  0.4189 -1.0761
61108SOL     OW90438  10.033   1.249   9.238  0.3086  0.1201 -0.2992
61108SOL    HW190439  10.097   1.179   9.249 -0.2474 -0.4962 -0.9594
61108SOL    HW290440   9.948   1.205   9.239  0.0196  0.5546 -2.4337
61109SOL     OW90441   9.532   3.699   4.955 -1.1034  0.0877 -0.1636
61109SOL    HW190442   9.623   3.715   4.980 -1.7580  2.5628  1.0070
61109SOL    HW290443   9.528   3.606   4.934  1.9186  0.1099 -1.3012
61110SOL     OW90444  10.578   5.684  10.162 -0.0475 -0.0802  0.9606
61110SOL    HW190445  10.486   5.710  10.168 -0.4091 -0.7462 -0.9008
61110SOL    HW290446  10.607   5.677  10.253 -1.5451  1.0819  1.5820
61111SOL     OW90447   7.993   0.101  12.734 -0.8993  0.7167  0.0183
61111SOL    HW190448   8.023   0.075  12.646 -0.2902  2.2716 -0.2544
61111SOL    HW290449   8.002   0.021  12.786  0.4136  0.2204 -0.9000
61112SOL     OW90450   1.044   2.505   8.199 -0.0393 -0.3310  0.7636
61112SOL    HW190451   0.981   2.435   8.179  0.6534 -0.4979 -1.0754
61112SOL    HW290452   0.999   2.562   8.261 -1.3453 -1.3688  0.8035
61113SOL     OW90453   6.421  12.237   6.377 -0.0175  0.1224 -0.6881
61113SOL    HW190454   6.509  12.276   6.380 -0.1425  0.3925 -0.4784
61113SOL    HW290455   6.427  12.159   6.432  0.0383  0.2534 -0.5049
61114SOL     OW90456   0.592  11.353   7.656 -0.5338 -0.2915 -0.4576
61114SOL    HW190457   0.658  11.359   7.725 -1.0875 -0.7025  0.1189
61114SOL    HW290458   0.512  11.390   7.695 -0.3898  1.2097 -1.5074
61115SOL     OW90459   8.935   4.063   1.304  0.9843  0.9366  0.3144
61115SOL    HW190460   8.866   3.997   1.315  0.9572  0.9549  0.2605
61115SOL    HW290461   8.980   4.037   1.224  1.2137  0.7691  0.4961
61116SOL     OW90462  12.178  11.573   4.207  0.4302 -0.4249 -0.5642
61116SOL    HW190463  12.147  11.602   4.121 -2.1226  1.3401  0.8227
61116SOL    HW290464  12.209  11.652   4.250  1.0075 -1.1561  0.4057
61117SOL     OW90465   0.078   1.139  10.902 -0.2549 -0.0298  0.1023
61117SOL    HW190466   0.164   1.153  10.940  0.2434 -1.6796 -0.3274
61117SOL    HW290467   0.053   1.051  10.931 -0.9133 -0.3631 -1.3599
61118SOL     OW90468   1.905   0.204   8.655  0.1706  0.0056  0.1622
61118SOL    HW190469   1.840   0.201   8.584 -1.0904 -1.7197  1.3028
61118SOL    HW290470   1.937   0.114   8.662  1.5446  0.5095  0.6816
61119SOL     OW90471   4.946   6.272   5.218  1.0029  0.1934  0.3698
61119SOL    HW190472   4.966   6.265   5.124  0.2851  0.0490  0.2227
61119SOL    HW290473   5.016   6.221   5.261  1.4189  0.3840 -0.0717
61120SOL     OW90474   7.663   4.430  10.106  0.0539 -0.1669 -0.0823
61120SOL    HW190475   7.729   4.474  10.054  0.5933  0.9801  1.4934
61120SOL    HW290476   7.665   4.339  10.076  0.7275  0.3218 -1.6109
61121SOL     OW90477   3.283   0.557  10.002  0.1900 -0.3897  0.1343
61121SOL    HW190478   3.348   0.620  10.032 -0.6399  1.0448 -0.9436
61121SOL    HW290479   3.199   0.603  10.012 -0.4092 -1.2212 -0.9243
61122SOL     OW90480  10.980   5.299   5.118 -0.3506  0.1197 -0.0551
61122SOL    HW190481  10.987   5.204   5.109 -0.7440  0.2028 -1.5264
61122SOL    HW290482  11.066   5.327   5.148 -0.8483 -0.8893  2.6197
61123SOL     OW90483   8.141  12.770   0.486  0.0455 -0.3737  0.3408
61123SOL    HW190484   8.217  12.799   0.436 -0.7806  0.6414 -0.3643
61123SOL    HW290485   8.150  12.813   0.571  0.3191 -0.3603  0.3066
61124SOL     OW90486  12.727   0.185  12.890 -0.0387 -0.6659  1.0042
61124SOL    HW190487  12.749   0.227  12.807 -2.3099 -0.6241  0.3598
61124SOL    HW290488  12.796   0.121  12.904  2.5245  1.9147  1.0773
61125SOL     OW90489   7.879   6.373   1.946  0.2652 -0.4385  0.0921
61125SOL    HW190490   7.786   6.366   1.927  0.5207  1.2856 -2.2708
61125SOL    HW290491   7.884   6.397   2.038 -1.5534 -1.6350  0.5317
61126SOL     OW90492   6.627  12.225   7.117 -0.7981 -0.2283 -0.0185
61126SOL    HW190493   6.666  12.229   7.030  0.9914 -2.1429  0.6049
61126SOL    HW290494   6.692  12.266   7.174 -1.5373  0.1820  0.5385
61127SOL     OW90495  10.015   2.129   6.144  0.5605  0.6126 -0.0580
61127SOL    HW190496   9.960   2.062   6.103 -1.1289  1.7887  0.1976
61127SOL    HW290497  10.046   2.087   6.225  0.1197 -0.1201 -0.2509
61128SOL     OW90498   6.996   0.477   5.037 -0.7834 -0.3898 -0.7025
61128SOL    HW190499   7.031   0.559   5.004 -2.0947  0.8601  0.8368
61128SOL    HW290500   7.008   0.482   5.132 -1.6849 -1.5862 -0.4970
61129SOL     OW90501   8.293   5.446   8.748 -0.2275  0.1753  0.3837
61129SOL    HW190502   8.355   5.416   8.681 -0.5097 -1.3682  0.7757
61129SOL    HW290503   8.207   5.433   8.708 -0.3533  1.3942  0.2117
61130SOL     OW90504  12.332   1.992   0.260 -0.4521 -0.1048 -0.1331
61130SOL    HW190505  12.393   1.921   0.236 -1.3385 -1.2882  0.9768
61130SOL    HW290506  12.246   1.958   0.237 -0.9147  0.4844  0.6787
61131SOL     OW90507  11.701   2.003   0.661 -0.4529  0.2382 -0.2746
61131SOL    HW190508  11.720   1.910   0.677 -0.7083  0.3312  0.6415
61131SOL    HW290509  11.657   2.032   0.741  0.4707  1.3814 -0.1588
61132SOL     OW90510   5.128   7.057   1.192 -0.1555 -0.1404  0.3044
61132SOL    HW190511   5.039   7.024   1.207  0.6896 -1.2268  3.7567
61132SOL    HW290512   5.153   7.021   1.107 -3.1980  0.7648 -1.1026
61133SOL     OW90513  12.286   1.229   2.808  0.6881 -0.2799  0.2643
61133SOL    HW190514  12.236   1.154   2.776  1.1937 -0.8782  0.8342
61133SOL    HW290515  12.242   1.305   2.771  0.3020 -0.8679 -0.5204
61134SOL     OW90516   9.169   2.968   7.667 -0.7378 -0.5370  0.0321
61134SOL    HW190517   9.117   2.937   7.592  0.4381 -0.3820 -0.8903
61134SOL    HW290518   9.259   2.946   7.643 -0.1663  1.0224  0.6415
61135SOL     OW90519   6.083   8.666   7.526  0.1408  0.0318 -0.1530
61135SOL    HW190520   6.135   8.632   7.453  1.7790 -0.8402  1.3176
61135SOL    HW290521   6.001   8.695   7.487  1.3402  0.5176 -2.4556
61136SOL     OW90522   6.659   3.806   9.112  0.3409 -0.8018 -0.2987
61136SOL    HW190523   6.735   3.804   9.054 -0.6479 -0.5778 -1.6625
61136SOL    HW290524   6.584   3.795   9.053 -0.7292 -0.2090  0.9030
61137SOL     OW90525   7.782   8.784   2.892 -0.1924  0.4307  0.2056
61137SOL    HW190526   7.779   8.877   2.866 -1.8012  0.5848  0.8417
61137SOL    HW290527   7.760   8.784   2.985  2.0619 -0.4281  0.7935
61138SOL     OW90528   8.434   4.125   4.105  0.5442  0.3714  0.2153
61138SOL    HW190529   8.359   4.103   4.160 -0.6547  3.3205 -0.0546
61138SOL    HW290530   8.436   4.056   4.038 -0.6282 -0.8845  1.4101
61139SOL     OW90531  12.435   8.368  11.248  0.0048 -0.9060 -0.4340
61139SOL    HW190532  12.407   8.277  11.245  1.2110 -1.3340  0.4419
61139SOL    HW290533  12.412   8.397  11.336  0.0780 -0.5256 -0.5388
61140SOL     OW90534  12.759   5.629  12.967 -0.4820  0.7896  0.2196
61140SOL    HW190535  12.744   5.566  12.896 -0.8446  1.4594 -0.3102
61140SOL    HW290536  12.675   5.674  12.977  0.4765  3.1384 -1.3579
61141SOL     OW90537  12.244   2.708   3.220  0.6122  0.0895 -0.1873
61141SOL    HW190538  12.211   2.792   3.252 -1.0140 -0.8484  0.7635
61141SOL    HW290539  12.231   2.712   3.125  2.2331  1.5621 -0.3991
61142SOL     OW90540   4.260   7.739   9.555 -0.1663  0.2044  0.2971
61142SOL    HW190541   4.281   7.767   9.466 -0.0313  1.1343  0.6101
61142SOL    HW290542   4.339   7.757   9.605 -0.1763 -0.4902  0.5752
61143SOL     OW90543   8.196   1.261   3.587 -0.3927  0.5281  0.2105
61143SOL    HW190544   8.235   1.211   3.516  1.4972  1.2965  0.6139
61143SOL    HW290545   8.271   1.307   3.627 -1.7909  2.3816  0.8463
61144SOL     OW90546   9.337   2.173  11.685  0.3901 -0.2547  0.2989
61144SOL    HW190547   9.408   2.117  11.716 -0.1904 -1.2567 -0.1545
61144SOL    HW290548   9.363   2.261  11.712  1.0009 -0.8022  1.6002
61145SOL     OW90549   9.830   9.861  12.223 -0.3384 -0.3923  0.2561
61145SOL    HW190550   9.759   9.920  12.246 -1.7574 -1.2024 -1.7320
61145SOL    HW290551   9.815   9.841  12.130  1.4231 -2.0459  0.2649
61146SOL     OW90552  12.205   4.808   8.448  0.1885  0.7285  0.1135
61146SOL    HW190553  12.240   4.723   8.421  1.8481  1.2436  0.5522
61146SOL    HW290554  12.278   4.852   8.492 -0.6620  2.3441  0.0035
61147SOL     OW90555   2.840   9.544   7.677  0.4729  0.2386  0.5502
61147SOL    HW190556   2.821   9.484   7.749 -0.3393  1.8288  1.7310
61147SOL    HW290557   2.914   9.504   7.631  0.0394 -1.5786  1.3458
61148SOL     OW90558   1.309  11.672   0.723  0.1949  0.4287  0.1459
61148SOL    HW190559   1.386  11.668   0.665  1.3068  1.5191  1.4775
61148SOL    HW290560   1.271  11.758   0.707  0.5114  0.7413  1.0047
61149SOL     OW90561   8.155   1.930   4.746  0.1387 -0.2828  0.5226
61149SOL    HW190562   8.144   1.992   4.674  1.1855 -0.4910  0.1544
61149SOL    HW290563   8.089   1.863   4.731  0.5374 -0.4801 -0.4300
61150SOL     OW90564  12.485  11.981   4.897  0.1923 -0.0553  0.2141
61150SOL    HW190565  12.464  12.022   4.813 -0.5413 -0.2317  0.3117
61150SOL    HW290566  12.548  12.042   4.937  2.7502 -1.2888 -1.6306
61151SOL     OW90567  10.250   5.397   2.809 -0.6291 -0.1415 -0.2658
61151SOL    HW190568  10.252   5.402   2.713  2.2284 -2.4498 -0.4557
61151SOL    HW290569  10.171   5.347   2.828 -0.7507 -0.4493 -1.4897
61152SOL     OW90570  12.823   6.577   1.260 -0.8200 -0.5431 -0.3655
61152SOL    HW190571  12.847   6.587   1.168 -1.6100 -0.9628 -0.6315
61152SOL    HW290572  12.768   6.498   1.262 -2.7433  0.7275  0.0711
61153SOL     OW90573   6.012   6.843   0.716 -0.5331  0.9090  0.2361
61153SOL    HW190574   6.062   6.805   0.644 -1.8244 -1.2347  0.4026
61153SOL    HW290575   6.077   6.893   0.766  0.4215  2.2640 -2.2325
61154SOL     OW90576  10.081   4.509   7.960  0.3041 -0.3505 -0.3444
61154SOL    HW190577  10.116   4.557   7.885  0.1141 -0.7139 -0.6718
61154SOL    HW290578  10.136   4.430   7.966  0.1738 -0.4351 -0.2459
61155SOL     OW90579   0.667   4.430   6.107 -0.1969 -0.0316  0.1308
61155SOL    HW190580   0.680   4.475   6.191 -0.4439  1.4036 -0.5770
61155SOL    HW290581   0.734   4.362   6.106  1.4737  1.5478  0.4032
61156SOL     OW90582   1.752   4.624   7.627  0.1120  0.3389 -0.0905
61156SOL    HW190583   1.753   4.630   7.532 -0.3094  1.1944 -0.0545
61156SOL    HW290584   1.689   4.555   7.647  0.1167  0.2362 -0.4271
61157SOL     OW90585   1.439   2.576  11.938 -0.1555  0.2826  0.2644
61157SOL    HW190586   1.421   2.650  11.881  1.9860  2.1540  1.8461
61157SOL    HW290587   1.443   2.500  11.880  0.4087  1.8426 -1.8138
61158SOL     OW90588   4.028   4.261  11.360  0.2811 -0.6784 -0.5077
61158SOL    HW190589   4.122   4.243  11.367  0.8528  1.7244 -1.2048
61158SOL    HW290590   4.021   4.326  11.290 -1.8048 -0.0528  0.2177
61159SOL     OW90591   5.294   9.175   3.287  0.0086 -0.3489 -0.3123
61159SOL    HW190592   5.241   9.099   3.267  0.3907 -0.3796 -1.2160
61159SOL    HW290593   5.306   9.171   3.382  0.9041 -2.0032 -0.4513
61160SOL     OW90594   9.442   5.796   1.085 -0.5253 -0.6937 -0.2944
61160SOL    HW190595   9.505   5.724   1.085 -1.1567 -1.3506 -2.7664
61160SOL    HW290596   9.486   5.867   1.038 -1.1039 -0.6827 -0.8379
61161SOL     OW90597   8.658   3.670   3.090  0.3243 -0.2847  0.5325
61161SOL    HW190598   8.720   3.731   3.129 -0.2594  0.8747 -0.2865
61161SOL    HW290599   8.589   3.661   3.156  0.7703 -0.6504  0.9567
61162SOL     OW90600   3.020   2.869   8.671  0.6579 -0.3248 -0.2596
61162SOL    HW190601   3.037   2.960   8.698 -0.1287  0.0036 -0.8379
61162SOL    HW290602   3.081   2.817   8.724  0.0301  0.3944  1.2320
61163SOL     OW90603  11.616   6.916  10.806  0.0044 -0.5808 -0.0774
61163SOL    HW190604  11.580   6.922  10.718  2.3986 -0.4567 -1.1107
61163SOL    HW290605  11.649   6.827  10.813  0.0299 -0.5232  0.6363
61164SOL     OW90606   4.258   4.273   9.966 -0.4488 -0.1270 -0.0243
61164SOL    HW190607   4.225   4.363   9.970  0.4088  0.2714 -1.4253
61164SOL    HW290608   4.267   4.254   9.873 -0.5322 -1.6490  0.2501
61165SOL     OW90609   7.743   7.552   2.252 -0.6452  0.7749  0.2454
61165SOL    HW190610   7.806   7.581   2.186 -0.6790  0.1408 -0.0718
61165SOL    HW290611   7.658   7.555   2.207 -0.5582 -0.5263 -0.0363
61166SOL     OW90612   4.925   8.879   0.385 -0.0182  0.8176  0.5658
61166SOL    HW190613   4.963   8.942   0.323 -1.6284  1.1837 -0.0846
61166SOL    HW290614   4.999   8.853   0.441  1.3753  0.8238 -1.1980
61167SOL     OW90615   6.195  12.902   1.410  0.2579  0.3287 -0.2436
61167SOL    HW190616   6.254  12.829   1.392 -2.4980 -1.7454 -1.5607
61167SOL    HW290617   6.156  12.881   1.495  0.5398  1.1054  0.0884
61168SOL     OW90618   6.493   7.448  10.972 -0.0482 -0.1615  0.2267
61168SOL    HW190619   6.497   7.412  11.061 -0.2779 -0.0166  0.2967
61168SOL    HW290620   6.444   7.530  10.982  1.4120  0.7599  0.2640
61169SOL     OW90621   7.714   6.684   8.538  0.0101  0.5171  0.5314
61169SOL    HW190622   7.715   6.664   8.632  0.1260  0.7153  0.5745
61169SOL    HW290623   7.697   6.778   8.535  1.4447  0.7982  0.4053
61170SOL     OW90624   6.278   3.713   6.146 -0.3399  0.0429  0.1116
61170SOL    HW190625   6.220   3.674   6.080 -0.4680 -1.0061  0.8177
61170SOL    HW290626   6.241   3.800   6.162 -0.5818  0.1290 -0.8386
61171SOL     OW90627   3.357   1.216   3.100 -0.3916  0.3509 -0.3521
61171SOL    HW190628   3.324   1.127   3.113  1.2345 -0.1663  0.4639
61171SOL    HW290629   3.424   1.208   3.032 -0.5418  1.0409 -0.5970
61172SOL     OW90630   6.096   1.975  11.103  0.1483 -0.4444 -0.2342
61172SOL    HW190631   6.139   1.891  11.089  0.3527 -0.2318 -0.9156
61172SOL    HW290632   6.040   1.987  11.026 -0.7639 -0.4913  0.4001
61173SOL     OW90633   9.968   5.316  11.812 -0.1237  0.0342 -0.0994
61173SOL    HW190634   9.940   5.342  11.900 -1.9712  0.4753 -0.7573
61173SOL    HW290635   9.927   5.381  11.755  0.5614 -0.5887 -1.3242
61174SOL     OW90636   3.323   5.369   7.388 -0.0425  0.1480 -0.9240
61174SOL    HW190637   3.395   5.308   7.372  0.7003  0.6702  0.2586
61174SOL    HW290638   3.251   5.314   7.418  0.8195 -0.1287  0.7503
61175SOL     OW90639   7.764   6.934   6.245  0.1617  0.5088  0.2408
61175SOL    HW190640   7.779   6.937   6.340 -1.2033 -0.7898  0.5490
61175SOL    HW290641   7.668   6.929   6.237  0.2352  1.1242 -1.2386
61176SOL     OW90642   7.724   2.137   9.477  0.3212  0.1994 -0.0456
61176SOL    HW190643   7.801   2.137   9.534 -0.0848  0.5623  0.5176
61176SOL    HW290644   7.719   2.226   9.443  1.8339 -0.5616 -2.4445
61177SOL     OW90645   5.922   7.938   8.440 -0.3271  0.2076  0.0901
61177SOL    HW190646   5.842   7.886   8.436 -0.1353 -0.1736  0.8971
61177SOL    HW290647   5.908   8.009   8.378 -2.1088  1.2268  1.5433
61178SOL     OW90648   3.927   5.714   5.599 -0.0866 -0.1927 -0.0580
61178SOL    HW190649   3.992   5.678   5.659  0.1589 -1.3487 -0.9680
61178SOL    HW290650   3.973   5.785   5.553 -0.3522  0.8618  1.2464
61179SOL     OW90651   6.600   1.449  10.948  0.0714 -0.2464 -0.0486
61179SOL    HW190652   6.619   1.378  10.886 -0.6597 -2.1728  1.7958
61179SOL    HW290653   6.662   1.436  11.020  0.0188  1.1064  0.2659
61180SOL     OW90654   7.071   5.861   4.942 -0.2326 -0.2747 -0.0022
61180SOL    HW190655   7.142   5.912   4.980 -0.7350  0.0433  0.5469
61180SOL    HW290656   6.992   5.910   4.966 -0.8756 -2.1604  2.0201
61181SOL     OW90657   2.441  11.451   4.905  0.4597  0.0483 -0.1559
61181SOL    HW190658   2.517  11.467   4.849 -0.2962 -0.5300 -1.3905
61181SOL    HW290659   2.457  11.505   4.982  1.6482  0.7034 -0.8211
61182SOL     OW90660   5.370   1.700   5.449  0.3352 -0.0508 -0.2936
61182SOL    HW190661   5.349   1.789   5.476 -0.8602  0.0922 -1.5959
61182SOL    HW290662   5.461   1.705   5.420  0.6682  0.4517  0.7798
61183SOL     OW90663   5.912   3.866  12.141 -0.9025 -0.1236  0.5147
61183SOL    HW190664   5.981   3.881  12.077 -1.2761 -3.0065 -0.7091
61183SOL    HW290665   5.958   3.847  12.223 -0.3573  0.9941  0.4766
61184SOL     OW90666   2.539   1.922   4.935  0.3670  0.0878 -0.2825
61184SOL    HW190667   2.556   2.010   4.902 -0.6479  0.3234 -0.2116
61184SOL    HW290668   2.584   1.863   4.874  1.7545  0.6671  0.1322
61185SOL     OW90669   1.345   0.123   1.913 -0.2677 -0.2418  0.3795
61185SOL    HW190670   1.441   0.117   1.907 -0.3616 -1.1617 -0.6845
61185SOL    HW290671   1.329   0.176   1.991  1.1248  0.8474 -0.0101
61186SOL     OW90672   3.057   3.863   4.389 -0.1374  0.7142  0.1805
61186SOL    HW190673   2.973   3.839   4.351 -0.4834 -0.5309  1.6511
61186SOL    HW290674   3.119   3.858   4.316 -0.8646 -1.0603 -0.3545
61187SOL     OW90675   7.113   6.567   1.114 -0.2606  0.2754 -0.0002
61187SOL    HW190676   7.105   6.649   1.066  1.0306  0.4560  0.0741
61187SOL    HW290677   7.126   6.500   1.047 -0.4959  0.2439 -0.0147
61188SOL     OW90678   4.579   6.594   6.895  0.0660  0.0055 -0.3629
61188SOL    HW190679   4.634   6.615   6.970  1.9998  2.8971 -2.3944
61188SOL    HW290680   4.616   6.513   6.860 -0.5232 -1.0735  1.3952
61189SOL     OW90681   7.439   3.487   2.415  0.1976  0.3824  0.7083
61189SOL    HW190682   7.476   3.509   2.501  3.1794  2.2054 -0.8871
61189SOL    HW290683   7.369   3.550   2.402 -0.4579 -0.0742  1.8572
61190SOL     OW90684   4.501   2.741  10.247 -0.0871 -0.0127  0.0763
61190SOL    HW190685   4.440   2.810  10.271 -1.4963 -1.3014  0.3781
61190SOL    HW290686   4.580   2.787  10.219 -0.9045  1.6924  0.4451
61191SOL     OW90687   5.887   6.175   2.488 -0.0306 -0.1412 -0.0350
61191SOL    HW190688   5.947   6.179   2.563 -0.5688 -0.7828  0.4384
61191SOL    HW290689   5.881   6.266   2.457  0.8850 -0.0067  0.1399
61192SOL     OW90690   3.171   7.278  12.719 -0.7179  0.0946  0.6164
61192SOL    HW190691   3.167   7.352  12.658  1.6085 -2.0064 -2.3565
61192SOL    HW290692   3.242   7.301  12.779 -1.4875  1.1987  1.1317
61193SOL     OW90693   7.475   5.169  11.996 -0.3648  0.0086 -0.1626
61193SOL    HW190694   7.423   5.120  12.059  0.8054 -0.6670  0.3053
61193SOL    HW290695   7.556   5.192  12.043 -0.1909  0.9782 -0.8843
61194SOL     OW90696   2.019   1.389   5.139  0.1672 -0.6304 -0.7207
61194SOL    HW190697   1.927   1.378   5.164  0.3525 -0.8412 -0.1172
61194SOL    HW290698   2.039   1.480   5.160  0.1076 -0.5911 -0.8306
61195SOL     OW90699   6.630   6.472   5.578  0.2063  1.0809 -0.1831
61195SOL    HW190700   6.656   6.542   5.518  1.5414  1.5413  0.8567
61195SOL    HW290701   6.699   6.406   5.568 -0.9950 -0.0923 -1.0914
61196SOL     OW90702   9.818  10.812   9.123  0.0800 -0.0553 -0.3332
61196SOL    HW190703   9.757  10.741   9.103  0.5212 -0.5151 -0.0835
61196SOL    HW290704   9.796  10.881   9.061  1.7204 -1.6012 -2.8392
61197SOL     OW90705   0.049   5.853   6.414  0.0386 -0.0485 -0.0888
61197SOL    HW190706   0.029   5.846   6.320  0.1253  0.3968 -0.1403
61197SOL    HW290707   0.145   5.863   6.417  0.0409 -0.1073  0.0517
61198SOL     OW90708  12.041   6.165  10.322  0.2059 -0.0679  0.3750
61198SOL    HW190709  11.966   6.208  10.364 -0.3769 -0.7458  0.0598
61198SOL    HW290710  12.009   6.077  10.302  0.0574  0.5409 -2.4817
61199SOL     OW90711   8.892   8.062  11.241  0.1218  0.0806 -0.3926
61199SOL    HW190712   8.981   8.070  11.206  0.9248  3.0562  1.8854
61199SOL    HW290713   8.889   7.974  11.279  1.4145 -0.7374 -2.0574
61200SOL     OW90714   2.897   7.816  10.855  0.2333  0.0151 -0.0519
61200SOL    HW190715   2.851   7.776  10.928 -0.4665  0.8876 -0.0002
61200SOL    HW290716   2.949   7.745  10.817  1.3857 -0.2327  1.8745
61201SOL     OW90717   7.678   6.226   0.365 -0.4535  0.5362  0.3219
61201SOL    HW190718   7.698   6.313   0.401 -0.3655  0.5692  0.1957
61201SOL    HW290719   7.716   6.228   0.277 -1.2463  0.6926 -0.0226
61202SOL     OW90720   5.611  10.358   5.840  0.2727  0.0067 -0.1704
61202SOL    HW190721   5.663  10.284   5.808  0.9819  0.3429  0.1958
61202SOL    HW290722   5.533  10.358   5.784 -0.8062 -2.3192  1.1731
61203SOL     OW90723  10.139   5.672   4.103 -0.2647 -0.0506  0.7246
61203SOL    HW190724  10.196   5.630   4.167 -0.3673  0.3386  1.0782
61203SOL    HW290725  10.065   5.613   4.093 -1.3068  0.8344  2.5698
61204SOL     OW90726   3.742   6.055  11.705  0.1597  0.2115 -0.0848
61204SOL    HW190727   3.777   5.997  11.772 -1.1081 -0.0634  0.3655
61204SOL    HW290728   3.743   6.003  11.625 -0.7818 -0.3785  0.2750
61205SOL     OW90729   7.975  12.915   2.146 -0.4134  0.4593  0.5730
61205SOL    HW190730   7.969  12.882   2.236 -1.6103 -3.7726 -0.8302
61205SOL    HW290731   8.065  12.894   2.119 -0.5800  0.1496  0.2579
61206SOL     OW90732   7.185   5.043  11.163 -0.0333 -0.6019 -0.2886
61206SOL    HW190733   7.165   4.963  11.213 -0.7261  0.2111  0.7735
61206SOL    HW290734   7.197   5.110  11.230  0.4528  0.2109 -1.1765
61207SOL     OW90735  10.753   4.770   2.802  0.2210 -0.0945 -0.3140
61207SOL    HW190736  10.842   4.805   2.803  0.5430 -0.8782  0.7009
61207SOL    HW290737  10.732   4.754   2.895 -0.4716 -1.1424 -0.6248
61208SOL     OW90738  10.488   1.747  12.825 -0.0200  0.2700  0.2615
61208SOL    HW190739  10.449   1.833  12.842 -0.9628 -0.2324  0.7421
61208SOL    HW290740  10.420   1.699  12.777  0.4310 -0.2700  0.1450
61209SOL     OW90741   4.756   4.949   1.465  0.2497 -0.6447 -0.3288
61209SOL    HW190742   4.675   4.976   1.508  0.4062  0.3767 -0.6477
61209SOL    HW290743   4.751   4.989   1.378  0.0286 -2.5051 -1.2105
61210SOL     OW90744   3.458  12.546   0.320  0.1943  0.0321  0.1590
61210SOL    HW190745   3.488  12.637   0.317  1.3544 -0.2710  1.7158
61210SOL    HW290746   3.532  12.496   0.354  0.0949 -1.7760 -2.0272
61211SOL     OW90747   9.369   7.462   8.983  0.1429  0.1787  0.0023
61211SOL    HW190748   9.459   7.448   9.012  0.0821  0.0290  0.1206
61211SOL    HW290749   9.354   7.556   8.995 -0.3017 -0.0665  1.6985
61212SOL     OW90750   0.370   7.243   9.868  0.1853  0.1600  0.5881
61212SOL    HW190751   0.290   7.283   9.900  0.6022  1.0897  0.5110
61212SOL    HW290752   0.428   7.317   9.850  0.2204 -0.3345 -1.6442
61213SOL     OW90753   9.943   1.247   0.255 -0.0919  0.1250 -0.6821
61213SOL    HW190754  10.005   1.204   0.314 -0.0099  0.6209 -0.4002
61213SOL    HW290755   9.877   1.284   0.313 -2.8005 -3.5057 -1.0841
61214SOL     OW90756   2.109   2.093   6.427  0.5465  0.2977  0.1179
61214SOL    HW190757   2.060   2.164   6.386  0.5206  1.3083  1.8328
61214SOL    HW290758   2.044   2.045   6.478  0.5276 -1.1195 -1.1489
61215SOL     OW90759  12.963   8.796   1.963  0.7487 -0.3577  0.1539
61215SOL    HW190760  12.942   8.858   1.893 -0.1170  0.9272  1.5015
61215SOL    HW290761  12.886   8.797   2.020  0.8466 -2.4642  0.3899
61216SOL     OW90762   6.689   0.334   6.259  0.4850 -0.0655  0.3868
61216SOL    HW190763   6.616   0.387   6.227  0.2980 -1.1413 -1.0650
61216SOL    HW290764   6.651   0.249   6.277  1.3801 -0.6574 -0.4223
61217SOL     OW90765   6.747   5.545   8.790  0.3688  0.6524 -0.2773
61217SOL    HW190766   6.805   5.505   8.855  0.2518  0.2044 -0.4508
61217SOL    HW290767   6.677   5.586   8.842 -0.9453 -1.5702 -0.1750
61218SOL     OW90768   6.159   7.989  10.064 -0.1374  0.9877 -0.5955
61218SOL    HW190769   6.110   7.925  10.013 -1.2215  0.3342  1.1932
61218SOL    HW290770   6.106   8.069  10.061 -0.7269  0.6435  0.3257
61219SOL     OW90771   0.799   8.915   2.004  0.0208  0.3554  0.1869
61219SOL    HW190772   0.893   8.911   2.024  0.4833  0.1428 -1.7657
61219SOL    HW290773   0.767   8.828   2.028  0.8647 -0.4248 -1.3658
61220SOL     OW90774  12.823  11.688  10.430  0.1072 -0.2008 -0.6961
61220SOL    HW190775  12.751  11.748  10.408  0.3342  0.7613  1.0155
61220SOL    HW290776  12.782  11.617  10.479  0.3763  0.7487  0.9740
61221SOL     OW90777   9.952   4.322  12.660 -0.5278 -0.0426 -0.1885
61221SOL    HW190778  10.021   4.284  12.605  1.1160  0.7847  1.2072
61221SOL    HW290779   9.968   4.416  12.657 -2.8231  0.3780 -1.3441
61222SOL     OW90780  11.206   6.688  12.933  0.3825  0.0359 -0.0557
61222SOL    HW190781  11.210   6.688  13.029 -0.4966  0.7454 -0.0085
61222SOL    HW290782  11.287   6.733  12.906  1.6091 -1.8631  0.2689
61223SOL     OW90783   8.121  10.310   6.054 -0.2749  0.4080  0.1123
61223SOL    HW190784   8.045  10.271   6.098 -0.2943 -0.3831 -0.6037
61223SOL    HW290785   8.116  10.277   5.965  1.9173 -1.1112  0.4899
61224SOL     OW90786   0.531   8.740   9.482  0.1040  0.3321 -0.2658
61224SOL    HW190787   0.467   8.687   9.530  0.9241 -1.7129 -1.2804
61224SOL    HW290788   0.570   8.796   9.548  2.2344 -3.3583  1.9555
61225SOL     OW90789  10.432  10.546   1.978  0.4583  0.2564  0.1536
61225SOL    HW190790  10.513  10.565   2.025 -0.4489  0.3080  1.7764
61225SOL    HW290791  10.369  10.611   2.011 -1.2368 -2.0436  1.8102
61226SOL     OW90792   9.133   1.198   0.223 -0.3798 -0.7041  0.8925
61226SOL    HW190793   9.071   1.222   0.154 -1.6638 -0.5031  2.0685
61226SOL    HW290794   9.175   1.281   0.247 -1.4672 -0.3751  1.7677
61227SOL     OW90795   4.962   5.140   0.157  0.3009  0.3680  0.4886
61227SOL    HW190796   4.926   5.171   0.240 -0.4575  1.7663 -0.3269
61227SOL    HW290797   5.033   5.202   0.138 -1.6683  2.1674 -1.4976
61228SOL     OW90798   3.102   5.597  10.445  0.1065 -0.3736  0.1626
61228SOL    HW190799   3.084   5.505  10.468 -2.3920  0.4791  2.0849
61228SOL    HW290800   3.078   5.604  10.353  2.0729 -1.9972 -0.5453
61229SOL     OW90801   9.226   0.867   8.214 -0.1639  0.1040  0.4011
61229SOL    HW190802   9.294   0.872   8.147  0.7783 -1.0363  1.2471
61229SOL    HW290803   9.272   0.841   8.294 -1.5165 -0.1931  1.1095
61230SOL     OW90804   6.815  10.966  11.562  0.5748 -0.4292 -0.4270
61230SOL    HW190805   6.782  10.887  11.520  1.0007 -1.0251  0.3355
61230SOL    HW290806   6.903  10.978  11.527 -0.0035  0.5503 -1.6396
61231SOL     OW90807   3.111  10.576  10.008 -0.1466 -0.0403  0.2080
61231SOL    HW190808   3.146  10.647   9.954 -1.1099  0.5059  0.2741
61231SOL    HW290809   3.025  10.607  10.036 -0.8620 -1.4941 -0.2776
61232SOL     OW90810   9.564  11.158   1.162 -0.1965  0.2834 -0.1111
61232SOL    HW190811   9.475  11.128   1.178 -0.3480  0.1092 -1.1989
61232SOL    HW290812   9.610  11.144   1.245 -0.9667 -0.3827  0.2140
61233SOL     OW90813   7.164  12.253   5.880  0.3471 -0.6397 -0.1457
61233SOL    HW190814   7.151  12.328   5.822 -0.2038  0.4821  1.3717
61233SOL    HW290815   7.212  12.190   5.827 -1.5112 -0.3308 -2.3731
61234SOL     OW90816   6.719   4.975   8.558  0.1295  0.1524 -0.4104
61234SOL    HW190817   6.638   4.991   8.608 -0.0587  1.0444 -0.9737
61234SOL    HW290818   6.778   5.044   8.587  0.4758 -0.1239 -0.4615
61235SOL     OW90819  10.343   1.901   4.787 -0.2620 -0.1675 -0.5895
61235SOL    HW190820  10.435   1.881   4.766 -0.1788  0.6945 -1.0961
61235SOL    HW290821  10.310   1.946   4.709 -0.4234  1.6935  0.5059
61236SOL     OW90822   9.772   0.505   9.675  0.0743  0.4080 -0.0485
61236SOL    HW190823   9.734   0.510   9.763  1.7941 -1.2663  0.8819
61236SOL    HW290824   9.857   0.548   9.684  0.1730  0.4219 -0.9716
61237SOL     OW90825   2.992   4.025   2.948 -0.0102 -0.0103 -0.1226
61237SOL    HW190826   2.966   4.062   2.864  1.7503  1.4881 -0.0611
61237SOL    HW290827   2.912   3.984   2.982 -0.7114 -0.8202 -2.5693
61238SOL     OW90828   4.740   2.945   7.813 -0.2909  0.6041  0.2992
61238SOL    HW190829   4.799   2.983   7.748 -1.0214  1.2173 -0.0137
61238SOL    HW290830   4.732   3.012   7.880  1.0451 -0.2981  1.4354
61239SOL     OW90831   3.686   1.627   3.702 -0.4352  0.1907 -0.7724
61239SOL    HW190832   3.703   1.579   3.783  0.1830  0.8818 -0.4713
61239SOL    HW290833   3.708   1.566   3.632  0.7963  0.1625 -0.3941
61240SOL     OW90834  10.254   0.843   7.636  0.3895 -0.1092 -0.1450
61240SOL    HW190835  10.312   0.897   7.689 -0.4843  1.0135 -0.3046
61240SOL    HW290836  10.278   0.753   7.660  0.9270  0.3458  1.1566
61241SOL     OW90837   3.915   9.193   8.373  0.4303  0.6319  0.1985
61241SOL    HW190838   3.922   9.098   8.370  0.1502  0.6124  0.1697
61241SOL    HW290839   3.825   9.210   8.401 -0.1948  0.8891 -1.7990
61242SOL     OW90840   3.980   6.090   2.606 -0.0051 -0.6138  0.6403
61242SOL    HW190841   3.982   6.175   2.562  2.5760 -0.3085  1.1882
61242SOL    HW290842   3.962   6.110   2.698 -2.1146 -0.9689  0.3625
61243SOL     OW90843   5.649   1.889   2.594  0.0759  0.2764  0.4492
61243SOL    HW190844   5.647   1.933   2.679 -1.5225  1.0922  0.0261
61243SOL    HW290845   5.628   1.958   2.531 -0.2302 -0.6315 -0.4697
61244SOL     OW90846   2.792  12.888   7.210 -0.2829 -0.0873  0.2179
61244SOL    HW190847   2.844  12.955   7.255 -0.1990  0.9846 -1.3894
61244SOL    HW290848   2.701  12.913   7.226 -0.2518  0.3867 -0.3380
61245SOL     OW90849   2.631  10.347  11.051  0.3905 -0.1793  0.1840
61245SOL    HW190850   2.560  10.396  11.011  0.3775  2.0510  2.6628
61245SOL    HW290851   2.591  10.265  11.080 -0.5720  0.0499 -0.4573
61246SOL     OW90852   8.856  11.949   8.974 -0.0695 -0.0902 -0.6107
61246SOL    HW190853   8.804  12.013   8.925 -1.2364 -2.0962 -2.1616
61246SOL    HW290854   8.880  11.994   9.054 -1.7670  1.9244 -1.1444
61247SOL     OW90855   5.317   4.262   2.803 -0.1074  0.2638 -0.6164
61247SOL    HW190856   5.262   4.287   2.877 -0.0102 -2.0003  0.3227
61247SOL    HW290857   5.405   4.291   2.827 -0.0953 -0.3686  0.1619
61248SOL     OW90858   7.685   5.363  10.312 -0.4054 -0.0709  0.6265
61248SOL    HW190859   7.651   5.352  10.223 -3.0973  2.8320  1.1067
61248SOL    HW290860   7.703   5.274  10.342 -3.2071 -1.5321 -1.4693
61249SOL     OW90861   5.058   5.943   2.939 -0.2259 -0.3559  0.5191
61249SOL    HW190862   4.987   6.002   2.966  0.2878  0.3022  0.4362
61249SOL    HW290863   5.131   6.001   2.919  0.6676 -1.0838  1.5796
61250SOL     OW90864   7.676   7.434   4.631 -0.0778  0.5489  0.1011
61250SOL    HW190865   7.720   7.402   4.710  1.5239  0.5907 -0.7106
61250SOL    HW290866   7.740   7.418   4.561 -1.7175 -0.1328 -1.3042
61251SOL     OW90867   7.055   6.054   6.557  0.3518  0.2779  0.4378
61251SOL    HW190868   6.992   6.074   6.627  0.1174  0.1842  0.2569
61251SOL    HW290869   7.019   5.976   6.514  0.8526 -0.0730  0.6481
61252SOL     OW90870  10.267  11.265   4.784 -0.0395 -0.2629 -0.2213
61252SOL    HW190871  10.328  11.337   4.797 -0.0201  0.0759 -1.9268
61252SOL    HW290872  10.270  11.247   4.690 -1.9529 -0.7817 -0.2362
61253SOL     OW90873   1.594   2.707  10.044 -0.3000 -0.0464 -0.2537
61253SOL    HW190874   1.601   2.781  10.103 -1.2180  1.2179 -1.6735
61253SOL    HW290875   1.678   2.704   9.998  0.5313 -1.2201  1.2574
61254SOL     OW90876   5.483   0.322   5.745 -0.3757  0.6241  0.1904
61254SOL    HW190877   5.443   0.374   5.675 -2.3614  2.2560  2.3720
61254SOL    HW290878   5.577   0.337   5.736 -0.5151  0.3120 -2.4074
61255SOL     OW90879   1.741   0.939   0.089 -0.1387 -0.4466  0.1721
61255SOL    HW190880   1.711   1.021   0.050 -1.3518 -0.5724  0.8076
61255SOL    HW290881   1.696   0.934   0.173  1.7410 -0.6270  1.2222
61256SOL     OW90882   3.442   8.238   1.545  0.2620  0.0244 -0.2723
61256SOL    HW190883   3.359   8.282   1.561  1.1699  1.3684  1.1231
61256SOL    HW290884   3.436   8.157   1.595 -0.9696 -0.9435 -1.8910
61257SOL     OW90885  12.050  11.708   7.239  0.2953  0.1747 -0.5943
61257SOL    HW190886  12.000  11.659   7.305 -1.3093  0.4233 -1.5706
61257SOL    HW290887  12.137  11.670   7.242 -0.1319 -0.7836  0.6793
61258SOL     OW90888  12.509   8.146   6.531 -0.5305 -0.3097 -0.0985
61258SOL    HW190889  12.420   8.176   6.550 -0.5143  0.3903 -1.0235
61258SOL    HW290890  12.564   8.195   6.592 -0.6818  0.1459 -0.3192
61259SOL     OW90891   1.776  10.242   1.168 -0.4740  0.1985  0.1723
61259SOL    HW190892   1.746  10.213   1.254 -0.4529 -1.6948 -0.4153
61259SOL    HW290893   1.697  10.275   1.125 -0.1942  2.7987  1.4756
61260SOL     OW90894   8.619   4.769  11.280  0.1944  0.0937 -0.2198
61260SOL    HW190895   8.601   4.848  11.229 -1.2450 -0.0392  0.0434
61260SOL    HW290896   8.661   4.709  11.219  2.1085  1.3295 -0.2183
61261SOL     OW90897  10.536   6.129  11.995 -0.1852  0.3790  0.2082
61261SOL    HW190898  10.475   6.140  12.068 -1.1350 -0.0599 -0.4932
61261SOL    HW290899  10.618   6.101  12.036 -0.0500  2.2287  1.2871
61262SOL     OW90900   3.585  11.643   6.288  0.3126 -0.3837 -0.1649
61262SOL    HW190901   3.643  11.633   6.212  1.5381 -0.2017  0.7145
61262SOL    HW290902   3.641  11.679   6.356 -0.5099 -1.4980  1.1442
61263SOL     OW90903  12.237   4.507   2.880 -0.4137 -0.0875  0.3368
61263SOL    HW190904  12.241   4.545   2.793 -0.8872 -1.2627 -0.2104
61263SOL    HW290905  12.250   4.581   2.939 -0.6164  0.7986 -0.7114
61264SOL     OW90906  10.856   3.194   6.762  0.0950  0.2355  0.0074
61264SOL    HW190907  10.846   3.137   6.686  0.6364  2.2022 -1.6471
61264SOL    HW290908  10.784   3.170   6.820 -0.5979 -1.0485 -1.3208
61265SOL     OW90909  10.717   0.251   2.575 -0.1743 -0.5458  0.1096
61265SOL    HW190910  10.670   0.259   2.492 -1.3019 -4.0469  0.2312
61265SOL    HW290911  10.663   0.297   2.638  0.2629  1.4308 -0.8875
61266SOL     OW90912   5.755  11.437   4.219  0.4169 -0.2465  0.1467
61266SOL    HW190913   5.714  11.478   4.295 -1.5274  0.4113 -1.1797
61266SOL    HW290914   5.753  11.343   4.239  1.3754  0.0018  1.5462
61267SOL     OW90915   3.498   1.321   7.437  0.3045 -0.1947 -0.0801
61267SOL    HW190916   3.515   1.402   7.485 -1.6222 -0.4102  1.0574
61267SOL    HW290917   3.470   1.349   7.350  2.8077  0.2216 -0.8451
61268SOL     OW90918   8.703  11.712   9.400  0.3020  0.3233  0.3936
61268SOL    HW190919   8.728  11.780   9.463  2.8767  0.1844 -0.3658
61268SOL    HW290920   8.723  11.750   9.315 -1.1242 -0.2910 -0.2486
61269SOL     OW90921  10.806   0.269   0.695 -0.2529  0.1471 -0.5560
61269SOL    HW190922  10.867   0.198   0.717  0.6104  0.4372 -1.9162
61269SOL    HW290923  10.746   0.230   0.631  0.0683  0.5493 -1.1156
61270SOL     OW90924   9.425  12.038   9.296 -0.5545 -0.2126  0.1231
61270SOL    HW190925   9.332  12.038   9.273 -0.4745  2.3788 -0.4786
61270SOL    HW290926   9.470  12.020   9.213 -0.4691  0.5787 -0.0015
61271SOL     OW90927   8.422   5.402  11.587  0.6368  0.1432  0.3978
61271SOL    HW190928   8.427   5.483  11.638 -1.6515 -0.7918  2.2304
61271SOL    HW290929   8.345   5.357  11.620  0.4796 -1.7128 -2.2290
61272SOL     OW90930   3.361   0.763   4.613 -0.3585 -0.0999  0.0222
61272SOL    HW190931   3.315   0.690   4.652 -0.8067  0.6711  0.9697
61272SOL    HW290932   3.292   0.818   4.576  0.0767 -1.3902 -3.0383
61273SOL     OW90933   7.239  12.236   7.367 -0.0303 -0.5483  0.4761
61273SOL    HW190934   7.150  12.225   7.401 -0.4988  0.1558 -0.4894
61273SOL    HW290935   7.273  12.311   7.415 -1.0866  1.1544 -1.2813
61274SOL     OW90936   6.336  10.370   3.821 -0.0183 -0.0638 -0.2722
61274SOL    HW190937   6.378  10.412   3.896 -1.9789  0.6571  0.4794
61274SOL    HW290938   6.369  10.281   3.821  0.2050 -0.0025  1.3168
61275SOL     OW90939   1.818   3.613  11.824 -0.0700 -0.4035 -0.2797
61275SOL    HW190940   1.899   3.580  11.863 -0.2037  0.5692  0.9034
61275SOL    HW290941   1.750   3.596  11.890 -0.4818  0.4300 -0.4635
61276SOL     OW90942   9.312  10.200   6.942  0.0238  0.3917 -0.3325
61276SOL    HW190943   9.260  10.121   6.932 -1.3910  1.0207  1.4081
61276SOL    HW290944   9.374  10.198   6.870 -0.7052 -1.7256 -0.9634
61277SOL     OW90945   8.738   9.593   3.205 -0.1442 -0.7997 -0.2499
61277SOL    HW190946   8.711   9.662   3.144  1.0862  0.6839  0.7888
61277SOL    HW290947   8.657   9.551   3.232 -0.8871 -0.0849 -1.3021
61278SOL     OW90948   6.185   7.714   5.540 -0.1040  0.5098 -0.1659
61278SOL    HW190949   6.244   7.778   5.581  0.3667 -0.3731  0.5568
61278SOL    HW290950   6.172   7.748   5.451 -0.4053  1.9667  0.3995
61279SOL     OW90951   8.293   5.609   1.443 -0.4359 -0.3618  0.4825
61279SOL    HW190952   8.255   5.528   1.410 -1.4504  0.2516  0.1011
61279SOL    HW290953   8.377   5.616   1.398  0.2103 -1.7658  1.3826
61280SOL     OW90954   2.425   8.877   5.274 -0.4339 -0.1828 -0.2794
61280SOL    HW190955   2.454   8.968   5.282 -0.5300 -0.2178  0.4888
61280SOL    HW290956   2.336   8.884   5.237 -0.5984  0.0571  0.1540
61281SOL     OW90957  12.048   8.335  10.809 -0.4037  0.6318 -0.4091
61281SOL    HW190958  12.073   8.244  10.791  1.5800  1.4074 -1.8802
61281SOL    HW290959  11.985   8.328  10.880 -1.6333 -2.0187 -1.6124
61282SOL     OW90960   8.634   2.420  10.205 -0.2688 -0.2154 -0.5238
61282SOL    HW190961   8.682   2.493  10.164 -0.5832 -0.3718 -1.1906
61282SOL    HW290962   8.561   2.462  10.251  0.6917  0.0573  0.8108
61283SOL     OW90963   7.197   6.712  12.847 -0.2237  0.4116  0.2277
61283SOL    HW190964   7.244   6.750  12.921  0.3472  0.7312 -0.2891
61283SOL    HW290965   7.176   6.623  12.875 -3.6701  1.7299  2.4075
61284SOL     OW90966   7.060   1.316  10.441  0.7537  0.4573 -0.2674
61284SOL    HW190967   7.122   1.378  10.402  2.3898 -1.0884 -0.2331
61284SOL    HW290968   7.085   1.311  10.533 -1.0431  1.6432  0.3482
61285SOL     OW90969   0.798   7.150  12.942 -0.3966  0.0063 -0.0206
61285SOL    HW190970   0.755   7.235  12.950 -2.8597 -1.1005 -0.6122
61285SOL    HW290971   0.727   7.086  12.949  1.5730 -2.1571  2.5712
61286SOL     OW90972   6.586   6.963  10.370 -0.2929  0.2615  0.4303
61286SOL    HW190973   6.568   6.900  10.440 -1.0936 -0.4986 -0.4319
61286SOL    HW290974   6.681   6.958  10.358 -0.2833 -0.4284  0.7056
61287SOL     OW90975   2.673   6.378  10.389  0.8122  0.0327  0.0808
61287SOL    HW190976   2.660   6.367  10.295  3.4017 -0.7262 -0.2743
61287SOL    HW290977   2.768   6.370  10.401  0.9514  3.0081  2.3758
61288SOL     OW90978   9.057   3.918   6.564  0.2556 -0.2252 -0.2558
61288SOL    HW190979   9.082   3.899   6.473  0.9245 -0.0370 -0.1157
61288SOL    HW290980   8.976   3.869   6.577  0.8131 -1.2492 -0.5677
61289SOL     OW90981   6.756   2.220   5.699 -0.0816 -0.2722  0.0750
61289SOL    HW190982   6.724   2.295   5.749  0.5382  0.1211 -0.1037
61289SOL    HW290983   6.696   2.149   5.720  0.7931 -0.4347  2.2565
61290SOL     OW90984   3.854  11.954   3.322 -0.8180 -0.6977 -0.0714
61290SOL    HW190985   3.946  11.957   3.296  0.2323 -2.5668  2.8893
61290SOL    HW290986   3.820  11.876   3.280 -0.2325 -1.5487  1.0002
61291SOL     OW90987  10.336   4.770   8.771  0.0021 -0.3781 -0.0906
61291SOL    HW190988  10.432   4.769   8.765 -0.0436 -0.4803 -0.8559
61291SOL    HW290989  10.308   4.832   8.703 -0.4418  0.3511  0.7267
61292SOL     OW90990   1.448   6.537   3.780  0.1140 -0.1444 -0.6484
61292SOL    HW190991   1.497   6.599   3.725 -0.0240  1.3478  0.8234
61292SOL    HW290992   1.495   6.538   3.864 -1.1410 -0.3826  0.0830
61293SOL     OW90993  10.842   8.392   4.376  0.2110 -0.5123  0.2215
61293SOL    HW190994  10.855   8.345   4.293 -0.4806 -1.1875  0.4859
61293SOL    HW290995  10.851   8.324   4.443 -0.3839 -0.1924  0.6311
61294SOL     OW90996  11.325   5.406   1.627  0.1269  0.0406 -0.2717
61294SOL    HW190997  11.289   5.331   1.674  1.1694 -0.2919  0.0199
61294SOL    HW290998  11.262   5.423   1.558 -0.5390 -0.5859  0.1679
61295SOL     OW90999  12.043  12.265   0.660 -0.1775 -0.3566  0.0494
61295SOL    HW191000  12.104  12.230   0.595  0.8045 -1.6169  1.5505
61295SOL    HW291001  12.010  12.187   0.705 -2.7175  0.3126 -0.4929
61296SOL     OW91002  12.902  12.497   9.278 -0.7452  0.1221 -0.4127
61296SOL    HW191003  12.856  12.484   9.195  0.1380  0.2090 -0.9320
61296SOL    HW291004  12.857  12.439   9.340 -1.3595 -0.0079 -0.9682
61297SOL     OW91005  11.035   8.061   9.989  0.6442 -0.0789  0.3994
61297SOL    HW191006  11.076   8.038   9.905  0.8664 -1.3737  0.8368
61297SOL    HW291007  11.017   7.976  10.030 -2.7212  0.3996  0.1526
61298SOL     OW91008  11.801  10.559   1.881 -0.4001 -0.4585 -0.2019
61298SOL    HW191009  11.726  10.536   1.937 -0.4677  0.0429 -0.0785
61298SOL    HW291010  11.762  10.579   1.796 -0.2371 -1.8767 -0.6436
61299SOL     OW91011   6.280  12.360  10.767  0.3655  0.3112  1.0257
61299SOL    HW191012   6.271  12.292  10.834 -1.4258 -1.5451 -0.9286
61299SOL    HW291013   6.368  12.347  10.731 -0.0766 -1.2504  0.4470
61300SOL     OW91014   4.066   3.650   2.561 -0.1826 -0.0380  0.0502
61300SOL    HW191015   4.084   3.652   2.467  0.4010  0.6578  0.1744
61300SOL    HW291016   3.980   3.610   2.568 -0.0748 -0.4216 -0.7604
61301SOL     OW91017   7.588   4.578   4.886  0.3874 -0.1997 -0.2674
61301SOL    HW191018   7.603   4.484   4.879 -1.4906 -0.6049  0.7604
61301SOL    HW291019   7.558   4.603   4.798 -3.1742 -1.4140  0.4489
61302SOL     OW91020   1.193   5.896   1.497  0.5692 -0.3204  0.1695
61302SOL    HW191021   1.110   5.879   1.453  0.8492  0.0063 -0.4992
61302SOL    HW291022   1.176   5.877   1.589 -0.7114  1.3341  0.3192
61303SOL     OW91023   7.431   9.786   4.250  0.1950 -0.1222  0.5091
61303SOL    HW191024   7.442   9.839   4.172  0.9105 -0.6378  0.2518
61303SOL    HW291025   7.369   9.717   4.224  1.2416 -0.9193  0.0623
61304SOL     OW91026   4.134  12.353   0.131  0.4469 -0.0419  0.4020
61304SOL    HW191027   4.196  12.305   0.186 -0.2639  0.4425  1.6510
61304SOL    HW291028   4.139  12.443   0.161 -3.6844 -0.5636  3.3795
61305SOL     OW91029  11.104  12.630   4.848  0.4448 -0.5169  0.7354
61305SOL    HW191030  11.124  12.724   4.843 -1.8826  0.0171  0.5176
61305SOL    HW291031  11.182  12.592   4.888  2.0393  1.2795 -0.4862
61306SOL     OW91032  12.968   9.967   8.831  0.2335 -0.4567 -0.4891
61306SOL    HW191033  12.879   9.965   8.867  0.2742  1.9452 -0.1166
61306SOL    HW291034  13.024   9.988   8.905  0.8913 -0.1712 -1.0499
61307SOL     OW91035   4.240   4.082   0.534  0.7521  0.1962 -0.0149
61307SOL    HW191036   4.297   4.089   0.458  1.1900  0.2577  0.3106
61307SOL    HW291037   4.188   4.003   0.520  0.2947  0.6209 -0.7315
61308SOL     OW91038   1.435   0.614   5.213 -0.5209  0.1135  0.0864
61308SOL    HW191039   1.396   0.530   5.188  1.6289 -0.3152 -2.1442
61308SOL    HW291040   1.422   0.670   5.137  0.0040  1.1208  0.7174
61309SOL     OW91041   3.160   5.943   9.976  0.1236  0.0502  0.3510
61309SOL    HW191042   3.187   5.975   9.890  0.1431 -1.2244 -0.1442
61309SOL    HW291043   3.219   5.870   9.994 -1.6283 -1.5133  0.1419
61310SOL     OW91044   3.857   5.565   4.889 -0.3414  0.1645  0.2459
61310SOL    HW191045   3.807   5.563   4.970 -0.6429 -0.2844  0.0547
61310SOL    HW291046   3.797   5.530   4.823 -0.7510  2.2397 -0.5383
61311SOL     OW91047  11.482   1.962  10.199  0.1155  0.7348  0.0545
61311SOL    HW191048  11.490   1.964  10.104 -0.2660  1.0118  0.0242
61311SOL    HW291049  11.567   1.930  10.230  0.7315  1.9437 -0.3130
61312SOL     OW91050   2.031   0.989  10.785  0.1894  0.0059 -0.5645
61312SOL    HW191051   2.119   1.016  10.810  0.1297 -1.5933  1.8069
61312SOL    HW291052   1.982   1.071  10.776  1.4391  0.8565  0.0664
61313SOL     OW91053   7.152   1.966   8.553  0.4635 -0.0804 -0.0957
61313SOL    HW191054   7.093   2.012   8.613  0.4626 -0.7599  0.4385
61313SOL    HW291055   7.154   2.021   8.475 -2.9169 -1.2613 -1.1881
61314SOL     OW91056   4.966   4.566   9.288  0.3901 -0.2775  0.1980
61314SOL    HW191057   5.061   4.550   9.286  0.3067 -0.7560 -0.9405
61314SOL    HW291058   4.939   4.538   9.375  0.7937 -3.3082 -0.5313
61315SOL     OW91059   9.623   0.292   9.930 -0.3020  1.0753 -0.5135
61315SOL    HW191060   9.690   0.266   9.867 -1.3262  1.2132 -1.7067
61315SOL    HW291061   9.620   0.387   9.924 -0.0230  1.1370  0.1784
61316SOL     OW91062   9.278   4.471   3.420  0.2096 -0.3655 -0.2340
61316SOL    HW191063   9.320   4.489   3.336  2.3743  0.5782  0.9563
61316SOL    HW291064   9.212   4.404   3.401 -0.8025  1.2673 -3.0013
61317SOL     OW91065  12.399   8.630  12.206  0.2499  0.0007  0.4352
61317SOL    HW191066  12.453   8.552  12.215 -1.3667 -1.0730  1.4436
61317SOL    HW291067  12.379   8.657  12.296 -2.9744 -1.2400  0.2459
61318SOL     OW91068   7.983   9.600   2.890 -0.3201 -0.0292  0.2254
61318SOL    HW191069   8.030   9.579   2.970 -0.4507  1.0684  0.6029
61318SOL    HW291070   7.897   9.558   2.900 -0.8464  1.2129  1.2911
61319SOL     OW91071   2.621   2.488   9.232  0.2293  0.0479 -0.0564
61319SOL    HW191072   2.630   2.565   9.287 -0.1588  1.1772 -1.4899
61319SOL    HW291073   2.629   2.414   9.292 -1.5283  1.1978  1.7283
61320SOL     OW91074   7.052   9.093   3.087 -0.4236 -0.0100  0.1091
61320SOL    HW191075   6.961   9.064   3.096 -0.5712  0.2204 -0.5742
61320SOL    HW291076   7.099   9.045   3.155 -1.0525 -0.1513  0.4522
61321SOL     OW91077   1.396   5.025   0.710  0.2662 -0.0511  0.0588
61321SOL    HW191078   1.321   4.966   0.718 -0.9835  1.4980  0.0930
61321SOL    HW291079   1.442   4.995   0.631  0.8869 -2.3666  1.2085
61322SOL     OW91080   8.919   2.889   7.809 -0.8088 -0.2294 -0.0199
61322SOL    HW191081   9.008   2.912   7.836 -1.3095  0.1173  1.4578
61322SOL    HW291082   8.928   2.805   7.764  0.2539 -0.2231  0.1570
61323SOL     OW91083   1.483   4.571   1.194 -0.4925  0.5915 -0.4568
61323SOL    HW191084   1.577   4.558   1.197 -0.7043 -1.1379  0.0541
61323SOL    HW291085   1.455   4.567   1.286 -0.9955  1.8752 -0.5279
61324SOL     OW91086   2.046  11.302   0.210 -0.4461  0.1358  0.2501
61324SOL    HW191087   2.042  11.246   0.132 -0.9953  1.3985 -0.6665
61324SOL    HW291088   1.987  11.375   0.190 -0.5474  0.5225  1.8378
61325SOL     OW91089   1.282   3.588   7.766  0.0020 -0.2052  0.4469
61325SOL    HW191090   1.309   3.498   7.745 -0.3986 -0.1770 -0.1962
61325SOL    HW291091   1.250   3.582   7.856 -1.4838 -1.0429 -0.1003
61326SOL     OW91092   3.800  12.265   6.251 -0.5703  0.2277 -0.3459
61326SOL    HW191093   3.707  12.241   6.257 -0.5371  0.0976 -0.3385
61326SOL    HW291094   3.803  12.329   6.180 -0.6745  0.2741 -0.3090
61327SOL     OW91095   9.568   4.612   1.517  0.2082  0.2534 -0.1256
61327SOL    HW191096   9.634   4.596   1.584 -0.3497  0.0700  0.3991
61327SOL    HW291097   9.573   4.536   1.459 -1.6025 -1.3798  1.6683
61328SOL     OW91098   5.554   0.963   5.492  0.9205  0.8415  0.5518
61328SOL    HW191099   5.557   0.907   5.570  1.7176 -2.2283 -1.5234
61328SOL    HW291100   5.646   0.983   5.473  0.7174  1.7616  0.4530
61329SOL     OW91101   4.341  11.385   6.922 -0.4804  0.1397  0.8140
61329SOL    HW191102   4.258  11.344   6.945 -0.6450  0.6421  1.1201
61329SOL    HW291103   4.320  11.445   6.850 -0.5806  0.9951  1.5329
61330SOL     OW91104   6.874  12.104   1.165  0.3069 -0.0977 -0.0920
61330SOL    HW191105   6.811  12.158   1.118 -0.8573  0.5595  2.0645
61330SOL    HW291106   6.848  12.014   1.146 -0.5461  0.1613 -0.1881
61331SOL     OW91107   8.133   2.072   2.913 -0.0710  0.1683  0.0130
61331SOL    HW191108   8.222   2.106   2.924  0.4830 -1.4095  0.6961
61331SOL    HW291109   8.121   2.012   2.987 -1.0302 -1.0194 -1.0696
61332SOL     OW91110   4.615   7.292   6.130 -0.5177 -0.1407 -0.3155
61332SOL    HW191111   4.538   7.334   6.169 -1.2962 -0.9820 -0.9098
61332SOL    HW291112   4.634   7.346   6.053  0.9091  1.4107  1.0532
61333SOL     OW91113  12.346   8.176   0.401 -0.1107 -0.0205  0.0723
61333SOL    HW191114  12.302   8.259   0.418 -0.3455 -0.2664  0.7001
61333SOL    HW291115  12.349   8.132   0.486  0.8351 -0.2601 -0.0646
61334SOL     OW91116   7.995  11.874   8.379  0.1708 -0.1923  0.0170
61334SOL    HW191117   8.076  11.824   8.388 -0.1305 -0.4329  1.9875
61334SOL    HW291118   7.934  11.814   8.337  0.9177 -0.1026 -1.2241
61335SOL     OW91119   2.833   2.992   5.207 -0.1948 -0.1819 -0.2445
61335SOL    HW191120   2.905   3.023   5.152 -0.5100 -0.0493 -0.5845
61335SOL    HW291121   2.778   3.069   5.221 -0.2757 -0.2841  0.0136
61336SOL     OW91122   6.787   1.158   8.513 -0.2370  0.4158 -0.3385
61336SOL    HW191123   6.735   1.181   8.436 -1.6670 -0.0857  0.4472
61336SOL    HW291124   6.723   1.149   8.583  1.0816  1.3169  1.0364
61337SOL     OW91125   0.367   5.080   2.399  0.7255 -0.0915 -0.0655
61337SOL    HW191126   0.437   5.145   2.402  0.3235  0.3102  1.1762
61337SOL    HW291127   0.410   4.999   2.371  1.4362  0.4488 -0.5593
61338SOL     OW91128   7.875   6.690   2.253 -0.5541  0.8271 -0.2461
61338SOL    HW191129   7.787   6.666   2.223 -0.5919  1.1520 -0.4019
61338SOL    HW291130   7.929   6.686   2.175 -0.5167  1.0335 -0.2317
61339SOL     OW91131  11.156   8.418   0.051 -0.1629  0.3367 -0.1965
61339SOL    HW191132  11.063   8.398   0.039 -0.5637  2.2201 -0.5301
61339SOL    HW291133  11.179   8.470  -0.026  0.7445  1.2555  0.6655
61340SOL     OW91134   6.132   2.790   1.653 -0.5891 -0.4547 -0.2145
61340SOL    HW191135   6.199   2.795   1.585 -0.8458 -1.5621 -0.5665
61340SOL    HW291136   6.093   2.878   1.655  0.3516 -0.0223 -0.5280
61341SOL     OW91137   1.005   8.265   7.228 -0.1464  0.1658 -0.1180
61341SOL    HW191138   1.043   8.350   7.206 -0.3458 -0.2396 -2.1881
61341SOL    HW291139   1.079   8.204   7.225 -0.3187 -0.0264 -0.4422
61342SOL     OW91140  12.732   1.382   4.170  0.0288  0.6870 -1.0479
61342SOL    HW191141  12.793   1.314   4.198  1.1205  1.2426 -2.0160
61342SOL    HW291142  12.722   1.437   4.247 -1.0918 -0.6862 -0.1542
61343SOL     OW91143   8.223   9.380   0.815 -0.3753  0.3152 -0.1384
61343SOL    HW191144   8.211   9.424   0.899  2.6750 -3.4643  2.6598
61343SOL    HW291145   8.307   9.413   0.782 -0.9177  0.8123 -1.0614
61344SOL     OW91146   9.843   9.424   4.494  0.1581  0.5995  0.1937
61344SOL    HW191147   9.750   9.442   4.506 -0.1086 -0.7133  0.1494
61344SOL    HW291148   9.861   9.453   4.404 -0.7161 -1.0759 -0.5606
61345SOL     OW91149   2.686   4.369   8.083  0.5659  0.3424  0.1394
61345SOL    HW191150   2.667   4.416   8.164 -1.5824 -1.5923  0.8768
61345SOL    HW291151   2.719   4.283   8.111  0.2833 -0.1751 -1.0252
61346SOL     OW91152  12.419   1.273   9.554  0.3696  0.4239 -0.0608
61346SOL    HW191153  12.392   1.337   9.488 -0.5553  0.7197  0.5685
61346SOL    HW291154  12.386   1.190   9.522 -0.0352  0.5596 -0.0046
61347SOL     OW91155   7.519   8.473  10.022 -0.2269  0.7568 -0.2240
61347SOL    HW191156   7.602   8.449  10.064 -0.0858 -1.6518 -1.6985
61347SOL    HW291157   7.461   8.494  10.095  0.7305 -0.8204  1.0799
61348SOL     OW91158  10.043  10.688   9.119  0.0077 -0.4921  0.7958
61348SOL    HW191159   9.966  10.743   9.131 -0.3125 -1.2073  2.2229
61348SOL    HW291160  10.099  10.738   9.059 -0.2982  1.3659  1.9717
61349SOL     OW91161   8.458   4.684   7.096  0.1170 -0.1154  0.0035
61349SOL    HW191162   8.416   4.618   7.040 -0.4213  0.4117 -0.2350
61349SOL    HW291163   8.551   4.679   7.074  0.0105 -0.4385 -0.3843
61350SOL     OW91164   4.965   4.463   8.193  0.5446  0.0010  0.1162
61350SOL    HW191165   5.037   4.400   8.204  0.5166 -0.3592 -1.5490
61350SOL    HW291166   4.995   4.522   8.125 -0.5318  0.1565 -0.2389
61351SOL     OW91167  10.837   1.066   3.462 -0.3896  0.4692 -0.1445
61351SOL    HW191168  10.834   0.990   3.404 -1.1383  0.4344 -0.0790
61351SOL    HW291169  10.754   1.111   3.446 -0.4660  0.6352  0.6643
61352SOL     OW91170   7.048   2.257  11.163  0.0520  0.2361 -0.1385
61352SOL    HW191171   7.082   2.297  11.243 -1.3743 -1.8301  1.6281
61352SOL    HW291172   7.120   2.263  11.100  1.6987  0.8005  1.7021
61353SOL     OW91173   8.961   8.535   6.144 -0.1677  0.1509  0.2948
61353SOL    HW191174   8.892   8.543   6.210  0.8865  2.3553  1.2477
61353SOL    HW291175   8.930   8.589   6.070 -0.3173 -0.4449 -0.0843
61354SOL     OW91176   6.839   6.821   7.018 -0.5736 -0.1109  0.2330
61354SOL    HW191177   6.918   6.802   6.967 -0.2083  1.4440  0.1794
61354SOL    HW291178   6.868   6.818   7.109 -0.2903  1.0721  0.1936
61355SOL     OW91179   1.248   1.332  10.851 -0.4658 -0.1016 -0.0598
61355SOL    HW191180   1.292   1.417  10.853 -1.3005  0.3265  1.8665
61355SOL    HW291181   1.308   1.275  10.802  1.6630  0.7585  1.4176
61356SOL     OW91182   3.201  10.248   7.491 -0.0080 -0.2152 -0.1162
61356SOL    HW191183   3.173  10.202   7.412 -0.7349 -0.5251  0.3113
61356SOL    HW291184   3.221  10.337   7.462 -1.2274 -0.0454 -0.4822
61357SOL     OW91185   7.682   3.186  12.904 -0.1415 -0.0931  0.5422
61357SOL    HW191186   7.623   3.191  12.828  0.1754 -1.4138  0.1728
61357SOL    HW291187   7.762   3.145  12.869  0.3820  0.2004  1.3784
61358SOL     OW91188   1.137   9.806   6.880 -0.4131  0.1355  0.2830
61358SOL    HW191189   1.121   9.881   6.938 -1.5194 -0.1902  0.4198
61358SOL    HW291190   1.197   9.750   6.930  0.9289  1.2189 -0.0830
61359SOL     OW91191  11.451   7.672   2.516  0.4261 -0.0036 -0.4677
61359SOL    HW191192  11.431   7.711   2.431 -1.3603  0.3422  0.0723
61359SOL    HW291193  11.400   7.723   2.579  0.4297 -1.2796  0.6249
61360SOL     OW91194   4.228   2.037   7.973  0.1742 -0.1924  0.3614
61360SOL    HW191195   4.314   2.003   7.950 -0.3880 -0.8100 -0.9567
61360SOL    HW291196   4.174   1.958   7.986  0.0935  0.1501  2.4938
61361SOL     OW91197   0.548  10.040   4.738  0.8246  0.3026  0.0607
61361SOL    HW191198   0.605  10.082   4.802  1.3736  0.4846 -0.5417
61361SOL    HW291199   0.459  10.056   4.771  1.0862  0.6341  0.6216
61362SOL     OW91200   6.030  12.873   2.272 -0.1305 -0.2831 -0.1206
61362SOL    HW191201   6.057  12.963   2.258  0.9810 -0.7217 -0.9720
61362SOL    HW291202   5.976  12.875   2.350  1.4464  0.8324  0.9939
61363SOL     OW91203   8.345  11.050  11.177 -0.3192  0.1356 -0.1316
61363SOL    HW191204   8.437  11.026  11.168  0.2111  2.4588 -1.9170
61363SOL    HW291205   8.344  11.114  11.249 -0.3853  0.7062 -0.6322
61364SOL     OW91206   1.446   3.720  10.677 -0.9171 -0.1024 -0.4467
61364SOL    HW191207   1.484   3.775  10.745  1.6590 -0.9935 -1.0721
61364SOL    HW291208   1.355   3.706  10.706 -0.9675  2.4332  0.9198
61365SOL     OW91209   9.312  11.829  10.515 -0.0398 -0.0951  0.2811
61365SOL    HW191210   9.236  11.797  10.563 -0.7257 -0.2482 -0.8656
61365SOL    HW291211   9.305  11.787  10.429 -0.0216  1.7945 -0.6917
61366SOL     OW91212   8.822   5.784   2.164 -0.1100  0.3817  0.5179
61366SOL    HW191213   8.833   5.858   2.104 -1.0618 -0.5136 -0.8156
61366SOL    HW291214   8.757   5.814   2.227 -0.5790  0.6463 -0.0852
61367SOL     OW91215   6.651   5.788  11.536 -0.8245 -0.1306  0.0021
61367SOL    HW191216   6.717   5.788  11.467  0.9320  0.1443  1.6003
61367SOL    HW291217   6.686   5.728  11.603 -2.2244 -0.0245  0.8802
61368SOL     OW91218   2.418  12.658   4.126  0.2487 -0.3712 -0.0909
61368SOL    HW191219   2.432  12.597   4.199  1.5597 -0.0458 -0.0436
61368SOL    HW291220   2.411  12.744   4.167 -1.7723 -0.4694 -0.1427
61369SOL     OW91221  12.924  12.277   8.295 -0.2774 -0.2592  0.3268
61369SOL    HW191222  12.994  12.325   8.338  0.9148 -1.0007 -0.7382
61369SOL    HW291223  12.968  12.219   8.233 -1.8300 -0.6992 -0.4275
61370SOL     OW91224   9.386  10.852   4.488  0.2495  0.1286 -0.3564
61370SOL    HW191225   9.434  10.851   4.406  0.8820  0.0757  0.0101
61370SOL    HW291226   9.417  10.932   4.533 -0.1470  0.2008 -0.2061
61371SOL     OW91227  10.276   6.070  10.044 -0.0631 -0.2146 -0.2570
61371SOL    HW191228  10.292   6.153  10.090 -2.8713  0.8592 -0.9805
61371SOL    HW291229  10.348   6.062   9.982  1.4870  0.4956  1.3812
61372SOL     OW91230   3.678   5.585  12.957  0.2385  0.1734 -0.3475
61372SOL    HW191231   3.641   5.497  12.964  1.0222 -0.2057 -0.7501
61372SOL    HW291232   3.708   5.591  12.866 -0.1280  0.9945 -0.4250
61373SOL     OW91233   6.405   4.132   3.608  0.0609  0.2157  0.8497
61373SOL    HW191234   6.427   4.151   3.517 -1.1402  1.8678  0.8493
61373SOL    HW291235   6.486   4.098   3.646  1.1860  1.4412 -0.3425
61374SOL     OW91236  12.662   2.256  12.016  0.1643  0.1997 -0.1241
61374SOL    HW191237  12.656   2.199  12.093 -0.5882 -1.2383 -1.2166
61374SOL    HW291238  12.751   2.292  12.020  0.6595 -1.0493  0.5722
61375SOL     OW91239   3.040   8.145   5.393 -0.3263 -0.2622  0.4065
61375SOL    HW191240   2.996   8.115   5.314 -0.9637  1.0495  0.2313
61375SOL    HW291241   3.133   8.134   5.375 -0.4385  0.6224 -0.7952
61376SOL     OW91242   7.524   5.789   4.480 -0.2132  0.5986  0.0037
61376SOL    HW191243   7.584   5.771   4.552 -0.2214  2.5713  0.5769
61376SOL    HW291244   7.474   5.709   4.468  1.5249 -0.6101  0.4841
61377SOL     OW91245   7.490   2.517  11.928  0.2137 -0.4311  0.1816
61377SOL    HW191246   7.477   2.597  11.876 -0.5745 -1.3155 -1.0530
61377SOL    HW291247   7.420   2.459  11.898  2.4482 -2.6397 -1.0356
61378SOL     OW91248  12.322   0.289  12.336 -0.0615  0.3234  0.2930
61378SOL    HW191249  12.280   0.215  12.292  2.2325 -1.6417  1.1441
61378SOL    HW291250  12.396   0.312  12.280 -0.0820  1.2269  0.6096
61379SOL     OW91251   1.240   5.579   4.919  0.2303  0.0197  0.1104
61379SOL    HW191252   1.211   5.669   4.904  1.9511  0.4845 -0.6674
61379SOL    HW291253   1.207   5.557   5.006 -0.0462  1.4720  0.3916
61380SOL     OW91254   7.848  11.704   3.865  0.3261  0.1306  0.1231
61380SOL    HW191255   7.767  11.669   3.902 -0.1657  1.1754  0.0636
61380SOL    HW291256   7.859  11.658   3.782 -0.3393  0.1513  0.0243
61381SOL     OW91257   9.544   6.800   6.304  0.3524  0.3247 -0.1962
61381SOL    HW191258   9.623   6.769   6.348 -1.6084 -0.1751  3.3306
61381SOL    HW291259   9.560   6.893   6.289  1.5054  0.2904  0.7067
61382SOL     OW91260   3.820  11.874   4.897  0.0379 -0.2943 -0.7036
61382SOL    HW191261   3.862  11.794   4.863  2.2190  1.0979 -1.4976
61382SOL    HW291262   3.884  11.943   4.882 -0.3825  1.0988  2.9665
61383SOL     OW91263   8.295   1.975   6.732 -0.3220  0.3784  0.4094
61383SOL    HW191264   8.245   1.894   6.737  1.2727 -0.7789 -1.4372
61383SOL    HW291265   8.352   1.973   6.809  0.5393 -0.8771 -0.2259
61384SOL     OW91266   8.402  11.711   2.676 -0.3488  0.5055 -0.6772
61384SOL    HW191267   8.313  11.698   2.709  0.4161 -0.2782  1.2398
61384SOL    HW291268   8.391  11.759   2.594 -2.5922 -0.5800 -1.0888
61385SOL     OW91269   8.480   6.056  12.791  0.2123  0.4096 -0.1899
61385SOL    HW191270   8.412   6.037  12.726 -0.4512  0.9567  0.3289
61385SOL    HW291271   8.537   5.980  12.789  1.4633  1.2794 -2.9569
61386SOL     OW91272   1.188   0.900  12.496 -0.4163 -0.5877 -0.0659
61386SOL    HW191273   1.098   0.870  12.486  0.1627 -3.1183  1.2375
61386SOL    HW291274   1.228   0.836  12.556  1.4885  2.0527  1.7603
61387SOL     OW91275  11.609   9.645  12.830 -0.1978  0.2325 -0.4330
61387SOL    HW191276  11.623   9.680  12.918  0.8223  1.2461 -0.9595
61387SOL    HW291277  11.684   9.677  12.780 -0.3777 -0.9398 -1.5012
61388SOL     OW91278   1.541   9.872   9.709  0.5108 -0.2667  0.1202
61388SOL    HW191279   1.494   9.932   9.651 -0.8019  1.7073  2.9916
61388SOL    HW291280   1.474   9.839   9.769  2.0478 -0.9809  1.5267
61389SOL     OW91281  12.342   6.765   7.061 -0.4419  1.1651 -0.7652
61389SOL    HW191282  12.380   6.677   7.062 -2.5626  0.1425 -2.3128
61389SOL    HW291283  12.381   6.808   6.986 -0.0178  1.2709 -0.4894
61390SOL     OW91284   0.041  10.621   6.576 -0.3609 -0.3664 -0.0245
61390SOL    HW191285  -0.030  10.566   6.608 -0.2423 -1.8830 -2.2303
61390SOL    HW291286   0.000  10.679   6.512  0.1026 -0.1250 -0.1068
61391SOL     OW91287   9.326   2.236   6.139 -0.4018 -0.1190 -0.0216
61391SOL    HW191288   9.381   2.279   6.204  0.7706 -1.3597 -0.1366
61391SOL    HW291289   9.249   2.206   6.187  0.2011 -0.5424  0.6921
61392SOL     OW91290   4.241   6.093   8.122 -0.6359  0.0431  0.6114
61392SOL    HW191291   4.277   6.127   8.040  1.5471  0.4109  1.6331
61392SOL    HW291292   4.212   6.004   8.101  0.7129 -0.1942 -0.3909
61393SOL     OW91293   0.123   3.046   0.042  0.3776 -0.1425  0.5379
61393SOL    HW191294   0.133   3.093   0.125  2.4091 -0.2074  0.3642
61393SOL    HW291295   0.132   3.113  -0.025  1.7276 -0.5227  0.3216
61394SOL     OW91296   6.708   6.055  12.314  0.5647 -0.1018  0.4732
61394SOL    HW191297   6.696   5.967  12.277  0.5280  1.0389 -2.5094
61394SOL    HW291298   6.796   6.053  12.352 -0.2321 -1.9850  2.4012
61395SOL     OW91299   6.930   9.318   3.731 -0.8532  0.0199 -0.5775
61395SOL    HW191300   7.022   9.340   3.721 -0.9451  0.4396 -0.5217
61395SOL    HW291301   6.897   9.379   3.797 -1.5488  0.9792 -1.7699
61396SOL     OW91302  11.798  12.844   0.500 -0.0954  0.4381  0.5631
61396SOL    HW191303  11.746  12.839   0.420  1.9163  0.7150 -0.8184
61396SOL    HW291304  11.765  12.772   0.554 -3.0313  1.5857  0.5211
61397SOL     OW91305  10.048   6.480   7.360 -0.0755  0.5657  0.3025
61397SOL    HW191306  10.009   6.460   7.274 -1.5972 -1.0344  1.2832
61397SOL    HW291307  10.115   6.413   7.372  1.4306  1.8873 -0.3578
61398SOL     OW91308   2.448   1.590  12.704  0.3619 -0.1499 -0.3741
61398SOL    HW191309   2.465   1.572  12.797 -0.1914  0.3836 -0.1618
61398SOL    HW291310   2.535   1.604  12.667  0.4899  1.8781  0.5596
61399SOL     OW91311  10.703  10.154   8.547 -0.3805  0.2119  0.1112
61399SOL    HW191312  10.766  10.086   8.570 -1.5124 -0.5278  1.1532
61399SOL    HW291313  10.620  10.121   8.580 -0.9439  2.1515  0.7443
61400SOL     OW91314  11.855   0.222  12.328  0.1597 -0.3433  0.7665
61400SOL    HW191315  11.949   0.216  12.342  0.2886  0.0879  0.1552
61400SOL    HW291316  11.824   0.284  12.394  0.3108 -0.4810  0.9637
61401SOL     OW91317   7.359   4.735   7.732  0.5150  0.0847  0.1439
61401SOL    HW191318   7.267   4.714   7.715  0.2369  1.0811  0.3424
61401SOL    HW291319   7.387   4.669   7.796 -0.6028  0.8417  1.4634
61402SOL     OW91320   2.010  10.290   5.300  0.2507 -0.0051 -0.6895
61402SOL    HW191321   1.990  10.197   5.288 -0.7151  0.0680  0.1951
61402SOL    HW291322   2.088  10.291   5.355  0.5111 -0.2909 -1.0498
61403SOL     OW91323   8.229  12.258   2.212  0.6992 -0.5486 -0.4547
61403SOL    HW191324   8.179  12.339   2.218 -0.1564 -0.9844 -1.3375
61403SOL    HW291325   8.165  12.189   2.232  1.4698 -0.9971  0.5160
61404SOL     OW91326   4.598   2.997   8.967 -0.2423 -0.0445 -0.0925
61404SOL    HW191327   4.513   2.981   8.926 -0.4962  1.6148 -0.2848
61404SOL    HW291328   4.579   3.060   9.036  0.7966  0.0963  0.0745
61405SOL     OW91329   3.418   0.535   3.223  0.0268  0.0989  0.5677
61405SOL    HW191330   3.327   0.516   3.197  0.1552  2.0840 -1.7428
61405SOL    HW291331   3.469   0.465   3.183 -0.2822  0.3742 -0.3500
61406SOL     OW91332   2.644   9.383   8.692 -0.7430 -0.5951 -0.1180
61406SOL    HW191333   2.670   9.431   8.770 -0.4900  0.9243 -1.0913
61406SOL    HW291334   2.606   9.302   8.725 -1.0386  0.1950  1.5841
61407SOL     OW91335  11.512   2.524   1.560  0.1285 -0.2393  0.1623
61407SOL    HW191336  11.585   2.584   1.579  0.3659 -0.4559 -0.0545
61407SOL    HW291337  11.458   2.572   1.498 -0.2143  0.1444  0.7534
61408SOL     OW91338   6.754   4.135  12.871  0.2043  0.2165  0.2165
61408SOL    HW191339   6.733   4.167  12.783 -0.5525  0.3116  0.4249
61408SOL    HW291340   6.844   4.104  12.864  0.1282  0.1483 -0.6161
61409SOL     OW91341   3.336   7.297   3.388 -0.1039  0.7653 -0.0002
61409SOL    HW191342   3.251   7.269   3.423  0.4212 -0.0240  0.6761
61409SOL    HW291343   3.394   7.223   3.404  0.8549  1.5035  0.0207
61410SOL     OW91344  10.977  10.885   7.286  1.0795 -0.4464 -0.1427
61410SOL    HW191345  11.032  10.957   7.316  0.4057  0.3875 -0.8223
61410SOL    HW291346  10.888  10.912   7.308  0.8945 -1.5713  0.5571
61411SOL     OW91347   5.459   8.085   8.280  0.2917  0.1711 -0.2585
61411SOL    HW191348   5.511   8.161   8.305 -0.1227  0.8497 -1.3711
61411SOL    HW291349   5.375   8.096   8.325  0.4881 -0.0230  0.1618
61412SOL     OW91350   8.787  10.972   8.970 -0.4248  0.3301 -0.3542
61412SOL    HW191351   8.838  11.047   8.941  0.1997 -0.4111 -1.2217
61412SOL    HW291352   8.697  10.995   8.950 -0.0081 -0.4795 -3.8953
61413SOL     OW91353   7.790   1.268  12.387  0.1367 -0.1141 -0.0102
61413SOL    HW191354   7.775   1.352  12.345  0.0132  0.1943  0.6443
61413SOL    HW291355   7.709   1.219  12.371 -0.4045  0.4614  0.9474
61414SOL     OW91356  10.797  12.496   0.558  0.1129  0.7973 -0.4548
61414SOL    HW191357  10.876  12.543   0.534  0.4824  0.8363  0.7868
61414SOL    HW291358  10.828  12.420   0.607 -0.5986  0.6930 -0.1506
61415SOL     OW91359   5.732  10.974   4.009 -0.5840  0.0482 -0.7576
61415SOL    HW191360   5.723  10.960   3.915  0.5248 -0.1747 -0.8484
61415SOL    HW291361   5.739  10.887   4.046  1.9842  0.1483 -0.8351
61416SOL     OW91362  10.718   7.448   7.054  0.0633  0.0499 -0.0540
61416SOL    HW191363  10.807   7.475   7.078  0.5272 -2.3721  1.3503
61416SOL    HW291364  10.726   7.355   7.033 -2.2511 -0.4322  0.8592
61417SOL     OW91365  10.134   0.002  12.288 -0.1973 -0.4891  0.0951
61417SOL    HW191366  10.131   0.001  12.383 -2.7101 -1.0652  0.0886
61417SOL    HW291367  10.062  -0.057  12.261 -0.1019  0.3013 -2.1381
61418SOL     OW91368  10.680   3.856   3.812  0.6274  0.1371  0.3584
61418SOL    HW191369  10.753   3.861   3.874  0.4523  0.2973  0.5541
61418SOL    HW291370  10.720   3.829   3.730  0.8504 -0.1741  0.5659
61419SOL     OW91371   7.446   9.629   9.656  0.1105  0.3479  0.4070
61419SOL    HW191372   7.529   9.675   9.673  1.0918 -1.3307  0.4299
61419SOL    HW291373   7.472   9.537   9.647 -1.6561 -0.0987 -0.4888
61420SOL     OW91374   9.074   0.143   9.060 -0.2477 -0.6717 -0.3776
61420SOL    HW191375   9.084   0.075   9.128 -1.0344  1.0535  1.5888
61420SOL    HW291376   9.148   0.202   9.075 -0.6711 -0.0421 -0.7565
61421SOL     OW91377   9.801   7.192   6.746 -0.8069 -0.6931 -0.0108
61421SOL    HW191378   9.889   7.157   6.760  0.4216  2.1062  0.0148
61421SOL    HW291379   9.807   7.239   6.662 -2.4882 -0.9791 -0.3352
61422SOL     OW91380  12.728   2.333   8.653  0.8120 -0.2881 -0.4769
61422SOL    HW191381  12.694   2.402   8.596  1.1455  0.8003  0.6065
61422SOL    HW291382  12.777   2.276   8.594  1.7273  1.1855 -1.2043
61423SOL     OW91383   9.321   5.585   4.868  0.0240 -0.1621  0.0954
61423SOL    HW191384   9.312   5.660   4.808 -1.7988 -1.2422 -1.0771
61423SOL    HW291385   9.338   5.624   4.953 -1.9791  1.6790 -0.2698
61424SOL     OW91386   3.505   1.353   3.305 -0.2813 -0.4191  0.3490
61424SOL    HW191387   3.595   1.324   3.288  0.0464  1.6022 -1.8951
61424SOL    HW291388   3.451   1.301   3.246 -0.7393 -2.0203  2.0812
61425SOL     OW91389   7.086  11.752  11.382 -0.5548  0.0170  0.2494
61425SOL    HW191390   7.143  11.710  11.318 -0.5380  0.8138 -0.2785
61425SOL    HW291391   7.140  11.819  11.423 -1.1955  1.0968 -0.5856
61426SOL     OW91392   9.858   2.352   6.140 -0.1137  0.7358 -0.1975
61426SOL    HW191393   9.767   2.323   6.151 -0.7563  1.5128 -2.6772
61426SOL    HW291394   9.909   2.272   6.136 -0.9399  0.2081 -0.3420
61427SOL     OW91395   1.475   8.773   3.685  0.3309 -0.0232  0.0617
61427SOL    HW191396   1.526   8.748   3.762 -0.2722 -0.6081  0.2822
61427SOL    HW291397   1.419   8.844   3.717  0.5131  0.1493 -0.0002
61428SOL     OW91398   8.027   0.871   8.762 -0.4197  0.6693  0.1477
61428SOL    HW191399   7.974   0.908   8.833 -0.6938  1.0179 -0.2333
61428SOL    HW291400   8.107   0.841   8.805 -0.4048  1.2569  0.5459
61429SOL     OW91401   0.916   8.584  12.671 -0.3217 -0.2707 -0.5518
61429SOL    HW191402   0.973   8.653  12.703 -0.1750 -0.7891  0.3711
61429SOL    HW291403   0.839   8.589  12.728 -0.6046 -0.4255 -0.9208
61430SOL     OW91404  10.897  11.955   6.381  0.0004 -0.5035 -0.4838
61430SOL    HW191405  10.863  11.892   6.444 -0.1016  1.6935  1.8003
61430SOL    HW291406  10.992  11.954   6.393  0.0423 -0.5865 -0.8089
61431SOL     OW91407  12.686  11.093   5.232 -0.2841 -0.2101  0.0646
61431SOL    HW191408  12.623  11.088   5.304 -1.4057 -0.0443 -0.8842
61431SOL    HW291409  12.721  11.182   5.238  2.4341 -1.2606  2.6444
61432SOL     OW91410   3.888  12.754   4.439 -0.3897 -0.1318  0.6332
61432SOL    HW191411   3.869  12.799   4.521  0.3741 -0.9655  1.2898
61432SOL    HW291412   3.980  12.774   4.421 -0.8562  0.9847 -0.6432
61433SOL     OW91413  10.567   3.256  10.417  0.1150 -0.6242  0.1587
61433SOL    HW191414  10.581   3.331  10.474  0.5435 -0.2999 -0.3638
61433SOL    HW291415  10.612   3.184  10.461  1.2218 -0.1761 -0.2022
61434SOL     OW91416   2.154   6.212  10.019  0.5998  0.5221  0.7536
61434SOL    HW191417   2.118   6.265  10.090  0.8658  1.3693  0.2735
61434SOL    HW291418   2.078   6.192   9.963  0.2309 -0.8927  1.7175
61435SOL     OW91419   1.803   2.087   1.556 -0.1994  0.0646 -0.2630
61435SOL    HW191420   1.797   2.002   1.512  1.5692  0.0642 -0.5826
61435SOL    HW291421   1.722   2.132   1.533  0.1695 -0.3707 -2.6037
61436SOL     OW91422   6.234   9.798   6.899 -0.9588  0.0498 -0.0425
61436SOL    HW191423   6.223   9.879   6.948 -1.9565 -0.6818  0.9818
61436SOL    HW291424   6.321   9.767   6.924 -0.5931  0.7639 -0.4003
61437SOL     OW91425  10.369   9.292   9.268  0.7094 -0.7540 -0.1541
61437SOL    HW191426  10.339   9.368   9.218 -0.7468 -1.7194 -0.8422
61437SOL    HW291427  10.321   9.296   9.350 -0.3919 -1.6093 -0.7301
61438SOL     OW91428   6.353   5.577   5.095  0.2976  0.1376  0.1100
61438SOL    HW191429   6.313   5.515   5.156  1.7259 -1.4969 -0.5402
61438SOL    HW291430   6.376   5.652   5.148 -1.1198 -0.0290  1.0044
61439SOL     OW91431   2.594  10.146   0.742 -0.6598  0.1679  0.3597
61439SOL    HW191432   2.582  10.079   0.675 -0.1423  1.2630 -0.8529
61439SOL    HW291433   2.668  10.114   0.794  2.1566  1.4949 -2.5053
61440SOL     OW91434   8.722  11.911  11.416  0.2833 -0.1483 -0.4626
61440SOL    HW191435   8.765  11.835  11.377 -0.8765 -1.2128  0.2579
61440SOL    HW291436   8.789  11.949  11.473  1.2092  0.0095 -1.6062
61441SOL     OW91437   1.665   1.932   4.519  0.1432  0.0965  0.3569
61441SOL    HW191438   1.593   1.943   4.458  1.5045  0.3490 -1.2598
61441SOL    HW291439   1.726   1.874   4.474  1.2802  0.4310  1.4127
61442SOL     OW91440   3.434  12.424  11.041  0.4818  0.0469 -0.1720
61442SOL    HW191441   3.463  12.450  11.128  2.1627 -0.1103 -0.6459
61442SOL    HW291442   3.383  12.499  11.009 -2.4934 -0.9034  1.8863
61443SOL     OW91443   9.220   4.165   1.851 -0.0605 -0.3377 -0.8089
61443SOL    HW191444   9.131   4.193   1.832  0.3360  1.3498 -0.3437
61443SOL    HW291445   9.220   4.147   1.945  0.2785  0.5179 -0.6333
61444SOL     OW91446   8.575   4.982   3.725 -0.3502 -0.1387 -0.4229
61444SOL    HW191447   8.491   4.979   3.771 -0.5690 -0.5665 -0.8333
61444SOL    HW291448   8.623   4.905   3.757  0.1200  0.4179  0.2339
61445SOL     OW91449   8.291  11.751   1.781 -0.4844  0.0339 -0.0701
61445SOL    HW191450   8.367  11.693   1.789 -0.7474 -0.4177 -0.7848
61445SOL    HW291451   8.228  11.718   1.843  0.4399  1.3096  1.6365
61446SOL     OW91452   8.694   5.611   9.775 -0.0619 -0.0137 -0.0329
61446SOL    HW191453   8.707   5.529   9.823 -0.6831 -0.0789  0.0366
61446SOL    HW291454   8.704   5.588   9.683 -0.9871 -0.3350 -0.0659
61447SOL     OW91455   6.179   7.081  10.803  0.0033  0.7962  0.2672
61447SOL    HW191456   6.254   7.105  10.859  0.4175 -0.1947  0.1617
61447SOL    HW291457   6.107   7.068  10.865  0.5952 -0.8372  0.6720
61448SOL     OW91458   9.266   2.266   5.852 -0.1424 -0.7320  0.6166
61448SOL    HW191459   9.226   2.248   5.937  0.3656  0.8073  1.2159
61448SOL    HW291460   9.273   2.361   5.848 -0.5526 -0.7353 -1.3584
61449SOL     OW91461   3.743   8.566   3.344  0.0120  0.2921  0.1268
61449SOL    HW191462   3.691   8.646   3.347  0.4946  0.6172 -0.0195
61449SOL    HW291463   3.818   8.584   3.400  0.6749  0.3498 -0.7517
61450SOL     OW91464   7.183   6.238   2.302  0.4597 -0.2679  0.6715
61450SOL    HW191465   7.172   6.146   2.325 -2.3169 -0.1726  0.0992
61450SOL    HW291466   7.210   6.237   2.210 -2.2442 -0.5809 -0.2011
61451SOL     OW91467   4.750   0.765   9.285 -0.2766  0.6491  0.0166
61451SOL    HW191468   4.797   0.688   9.319 -0.0869  1.3582  1.4085
61451SOL    HW291469   4.815   0.835   9.287 -0.8892  1.2172  0.2392
61452SOL     OW91470   9.969  11.194   7.686  0.4572  0.5684  0.2850
61452SOL    HW191471   9.941  11.111   7.725  1.0171 -0.4178 -1.2861
61452SOL    HW291472   9.901  11.256   7.711 -1.9769 -1.1993 -1.4526
61453SOL     OW91473  12.640  12.251   5.582 -0.7731 -0.5530 -0.2213
61453SOL    HW191474  12.573  12.319   5.584 -0.3569 -0.0511 -1.7844
61453SOL    HW291475  12.618  12.193   5.655 -0.3087  1.9988  2.0922
61454SOL     OW91476   0.937   5.876   0.402  0.6317  0.0219 -0.1417
61454SOL    HW191477   0.920   5.862   0.495  0.9463 -0.4444 -0.1472
61454SOL    HW291478   0.854   5.906   0.367  0.3407 -0.3960  0.1787
61455SOL     OW91479   6.704   1.087   8.970  0.2718 -0.1689 -0.0476
61455SOL    HW191480   6.686   1.002   8.930 -0.4280  0.2042 -0.5655
61455SOL    HW291481   6.630   1.142   8.942 -0.1307  0.1711  1.5980
61456SOL     OW91482  11.479  12.409   9.749 -0.6756 -0.0509 -0.2466
61456SOL    HW191483  11.428  12.352   9.807 -1.0473 -1.2610 -1.6836
61456SOL    HW291484  11.415  12.471   9.715 -0.5558  0.3536  0.2600
61457SOL     OW91485  12.044   4.471   6.255  0.5376 -0.0414  0.0296
61457SOL    HW191486  12.112   4.532   6.282  1.3496 -0.7489 -0.3735
61457SOL    HW291487  12.009   4.436   6.337 -1.6605  2.7055  0.4156
61458SOL     OW91488   5.316   7.066   5.006  0.2911 -0.4642  0.1076
61458SOL    HW191489   5.350   7.086   5.093 -0.1676  0.9018 -0.0097
61458SOL    HW291490   5.222   7.053   5.020  0.4686 -2.0286  0.0779
61459SOL     OW91491   7.547  11.557   8.430 -0.3294  0.0703 -0.4465
61459SOL    HW191492   7.526  11.475   8.475  1.2254 -0.5990 -0.8744
61459SOL    HW291493   7.538  11.537   8.337 -0.6124  0.5865 -0.5349
61460SOL     OW91494   9.648   5.478  11.244  0.3798 -0.6748  0.3125
61460SOL    HW191495   9.716   5.518  11.298 -0.3357  0.7692  0.1808
61460SOL    HW291496   9.632   5.393  11.285  0.8474 -0.1961  1.5259
61461SOL     OW91497   6.073   7.093   2.660  0.2319 -0.3559  0.2679
61461SOL    HW191498   6.041   7.096   2.750  1.3031  0.7435  0.6357
61461SOL    HW291499   6.141   7.160   2.657  1.6513 -1.7902 -0.7957
61462SOL     OW91500   0.252   0.467   7.826  0.4610  0.6276 -0.3050
61462SOL    HW191501   0.224   0.533   7.762  1.1848 -0.3151 -1.6413
61462SOL    HW291502   0.326   0.508   7.872 -1.0822  1.9513  1.1482
61463SOL     OW91503   4.067   5.832   6.421  0.1264  0.4507 -0.2214
61463SOL    HW191504   4.151   5.807   6.382  0.3321 -0.6816  0.8869
61463SOL    HW291505   4.089   5.904   6.480  0.4417 -0.2750  0.5596
61464SOL     OW91506   8.397   6.541   3.410  0.0872 -0.4989 -0.2301
61464SOL    HW191507   8.359   6.612   3.358 -0.5513 -0.9286 -0.3632
61464SOL    HW291508   8.492   6.554   3.403 -0.0244  0.5154 -0.0001
61465SOL     OW91509   1.800   5.279   7.195  0.0066  0.7510  0.2224
61465SOL    HW191510   1.804   5.291   7.290  0.6366 -0.3335  0.3485
61465SOL    HW291511   1.709   5.300   7.173 -0.8251 -1.2453  1.4352
61466SOL     OW91512   6.365   7.267   9.256  0.3784  0.0758 -0.5360
61466SOL    HW191513   6.423   7.301   9.325 -1.5361 -0.1622  1.2865
61466SOL    HW291514   6.423   7.216   9.199  2.4452  2.2661 -0.5141
61467SOL     OW91515  12.116   9.008   2.956  0.2780  0.0232 -0.6935
61467SOL    HW191516  12.118   8.990   3.050  0.4464  0.7792 -0.5407
61467SOL    HW291517  12.076   9.095   2.950 -0.6991 -0.4673 -1.3988
61468SOL     OW91518  11.780   6.951   2.401  0.2293 -0.0055 -0.1015
61468SOL    HW191519  11.823   6.992   2.326 -1.1500 -0.9464 -1.4828
61468SOL    HW291520  11.721   7.019   2.435 -0.7634 -0.2364 -1.2884
61469SOL     OW91521  11.848   3.707   7.209 -0.2901  0.7683  0.5867
61469SOL    HW191522  11.913   3.637   7.209  0.1020  1.1030  1.6653
61469SOL    HW291523  11.765   3.663   7.225 -0.4101  0.2992 -1.1523
61470SOL     OW91524  11.984   2.362   0.652 -0.1095 -0.0898 -0.5945
61470SOL    HW191525  11.971   2.420   0.577  1.4121  0.6950 -0.3006
61470SOL    HW291526  11.985   2.421   0.728  0.3587 -0.6278 -0.1760
61471SOL     OW91527   5.303   3.272   7.388 -0.0504 -0.3276  0.1340
61471SOL    HW191528   5.301   3.177   7.389 -0.4840 -0.3199  0.2257
61471SOL    HW291529   5.271   3.296   7.301  0.9031 -0.2775 -0.2143
61472SOL     OW91530  10.453  11.944   4.504  0.0382  0.4932 -0.4259
61472SOL    HW191531  10.505  11.883   4.452  1.8017  1.4868  0.0569
61472SOL    HW291532  10.517  12.010   4.534 -1.5722  1.9410 -0.0042
61473SOL     OW91533   3.967   0.248   8.115 -0.0377  0.2428  0.0194
61473SOL    HW191534   3.910   0.222   8.187 -0.2180  1.3040  0.2823
61473SOL    HW291535   3.907   0.275   8.046  0.1293 -0.9648 -0.6306
61474SOL     OW91536   5.901   1.263   4.451 -0.4789  0.7612  0.0782
61474SOL    HW191537   5.936   1.235   4.536  1.5272  1.0860 -0.5846
61474SOL    HW291538   5.977   1.263   4.393 -1.9337 -0.1504 -1.9272
61475SOL     OW91539   0.896   4.781  10.210 -0.2058 -0.5270 -0.2579
61475SOL    HW191540   0.839   4.704  10.208  0.2863 -0.8923 -0.3019
61475SOL    HW291541   0.923   4.793  10.119 -1.7600  0.8265 -0.5902
61476SOL     OW91542   2.602  12.736   1.677  0.3281  0.2225 -0.0666
61476SOL    HW191543   2.634  12.814   1.631 -0.3905 -0.0505 -1.0757
61476SOL    HW291544   2.679  12.680   1.686  1.3446  1.8664  2.5509
61477SOL     OW91545  10.869   7.332  11.194  0.7726 -0.1785 -0.1842
61477SOL    HW191546  10.925   7.302  11.265  0.4846 -1.1152 -0.3325
61477SOL    HW291547  10.799   7.266  11.190  0.6848 -0.0342 -1.1972
61478SOL     OW91548   1.028   1.000   5.856 -0.2457 -0.2464  0.8421
61478SOL    HW191549   1.005   1.060   5.927  0.0225  1.1861 -0.2402
61478SOL    HW291550   1.104   0.951   5.889 -0.9833 -0.6169  2.0543
61479SOL     OW91551   1.881  10.469  10.109 -0.2154 -0.3303 -0.6131
61479SOL    HW191552   1.935  10.486  10.032  0.7311 -3.4195 -0.7618
61479SOL    HW291553   1.922  10.519  10.179  1.9207 -1.3298 -1.0870
61480SOL     OW91554   4.921   6.041   3.867 -0.2949  0.5896  0.0692
61480SOL    HW191555   5.010   6.075   3.869  0.1034 -0.3085 -1.3083
61480SOL    HW291556   4.931   5.946   3.864 -1.2861  0.4917 -0.5406
61481SOL     OW91557   6.791   1.528   1.397 -0.4500  0.0529 -0.2954
61481SOL    HW191558   6.737   1.469   1.450 -0.4132 -0.0776 -0.4028
61481SOL    HW291559   6.867   1.476   1.373 -1.5431 -0.6907 -2.4608
61482SOL     OW91560   8.447   9.559   7.349 -0.6605 -0.1751  0.3612
61482SOL    HW191561   8.471   9.488   7.289 -2.6386 -0.5948  0.0006
61482SOL    HW291562   8.522   9.566   7.408  1.0239 -0.3153 -1.6052
61483SOL     OW91563  11.522   3.126   7.390  0.2683 -0.2289  0.3158
61483SOL    HW191564  11.554   3.056   7.333  0.2821 -0.1585  0.2373
61483SOL    HW291565  11.588   3.131   7.460  0.6062  0.1450 -0.0284
61484SOL     OW91566   2.838  10.366   0.977 -0.0690 -0.0014  0.0145
61484SOL    HW191567   2.782  10.440   1.002 -0.2051  0.8366 -2.4838
61484SOL    HW291568   2.926  10.393   1.000 -0.5275 -1.4851  4.3520
61485SOL     OW91569   2.844   3.715  10.852 -0.3277 -0.1920 -0.1598
61485SOL    HW191570   2.839   3.624  10.881  0.5509 -0.0930  0.3406
61485SOL    HW291571   2.755   3.736  10.823 -0.8207 -0.8392  0.8249
61486SOL     OW91572   1.964   3.132  11.327  0.0009 -0.0925 -0.4105
61486SOL    HW191573   1.901   3.203  11.336 -0.0122 -0.0657 -0.6989
61486SOL    HW291574   1.909   3.053  11.317 -0.0382 -0.5744  2.7319
61487SOL     OW91575  10.842   5.336   5.379  0.3360  0.0720 -0.0754
61487SOL    HW191576  10.865   5.306   5.291  0.2860  1.5380 -0.6136
61487SOL    HW291577  10.926   5.353   5.420  0.4018 -1.5444  0.5394
61488SOL     OW91578   6.544   4.845   9.897 -0.1875  0.0523 -0.4012
61488SOL    HW191579   6.553   4.749   9.901  0.6076  0.1581  0.7560
61488SOL    HW291580   6.623   4.878   9.940  0.4855  1.2717 -2.4389
61489SOL     OW91581   3.361  12.950   4.086 -0.3450  0.7630  0.2962
61489SOL    HW191582   3.276  12.923   4.121 -0.7486 -0.3270 -1.3899
61489SOL    HW291583   3.418  12.954   4.163 -0.8530 -2.7857  1.0745
61490SOL     OW91584   9.920  11.392   0.304 -0.0185 -0.5704 -0.5223
61490SOL    HW191585   9.835  11.435   0.311 -0.0855 -0.8331  0.5366
61490SOL    HW291586   9.908  11.325   0.237 -1.0197 -1.4059  0.4433
61491SOL     OW91587   9.248   9.865   9.812 -0.2047  0.4577 -0.1061
61491SOL    HW191588   9.222   9.957   9.807 -0.6629  0.3418  0.0970
61491SOL    HW291589   9.256   9.838   9.721 -0.9261  0.4621 -0.1734
61492SOL     OW91590   6.423   0.239   6.410  0.0971  0.2349  0.0636
61492SOL    HW191591   6.373   0.214   6.488  1.6408  0.5843  1.2030
61492SOL    HW291592   6.480   0.164   6.393 -1.9783 -0.9894 -2.3751
61493SOL     OW91593   7.025   7.026   1.987  0.4690 -0.1659  0.0422
61493SOL    HW191594   7.034   7.070   1.903  0.0436 -2.2281 -1.1383
61493SOL    HW291595   6.936   6.992   1.988  1.0146 -1.6385  0.5718
61494SOL     OW91596   1.448  11.071   6.576 -0.1351  0.2642  0.1199
61494SOL    HW191597   1.420  10.984   6.606  0.6401 -0.1461 -0.3375
61494SOL    HW291598   1.380  11.130   6.609 -2.5577 -0.8967 -2.4021
61495SOL     OW91599  12.566   1.064   7.720 -0.0530 -0.1147 -0.4504
61495SOL    HW191600  12.602   1.132   7.778 -0.6733 -0.3050  0.1666
61495SOL    HW291601  12.618   1.072   7.640  0.3814  0.5929 -0.1145
61496SOL     OW91602   8.610   3.766   9.250 -0.3027 -0.3312  0.0899
61496SOL    HW191603   8.522   3.732   9.236 -1.1822  2.0593 -0.5962
61496SOL    HW291604   8.618   3.839   9.189  1.8186  0.1058  0.8025
61497SOL     OW91605   9.901   0.532   3.274 -0.1675  0.1610  0.1160
61497SOL    HW191606   9.853   0.504   3.196  0.0000 -0.5609  0.2686
61497SOL    HW291607   9.861   0.483   3.346  1.0720 -0.7852  0.1878
61498SOL     OW91608  12.622   4.213   9.154 -0.2877  0.0284 -0.3663
61498SOL    HW191609  12.580   4.249   9.232 -1.0294  1.3622 -1.3540
61498SOL    HW291610  12.707   4.257   9.150  0.3333 -1.0368  0.3969
61499SOL     OW91611   0.469  11.314  12.680 -0.3992 -0.0416 -0.4764
61499SOL    HW191612   0.416  11.330  12.758 -0.6329 -1.2672 -0.3623
61499SOL    HW291613   0.525  11.392  12.673 -0.3574  0.0938  0.9264
61500SOL     OW91614   6.469   0.325   1.153  0.3767 -0.1173 -0.0387
61500SOL    HW191615   6.498   0.353   1.239 -1.8427  1.4019  0.2747
61500SOL    HW291616   6.431   0.238   1.167  1.7915 -0.7444  0.0977
61501SOL     OW91617   3.510  12.489   2.894 -0.1620  0.2081 -0.0995
61501SOL    HW191618   3.530  12.447   2.810  1.6394  0.3952  0.1966
61501SOL    HW291619   3.473  12.419   2.947 -0.6951 -0.0748 -0.8276
61502SOL     OW91620   0.730   5.817   6.982 -0.5851 -0.7719  0.1325
61502SOL    HW191621   0.674   5.741   6.965 -1.5677 -0.1856  0.5983
61502SOL    HW291622   0.668   5.890   6.991  0.2722 -0.0811  0.5912
61503SOL     OW91623   9.246   4.262  12.362 -0.3917  0.0807  0.0345
61503SOL    HW191624   9.228   4.330  12.298  1.2785  0.0585 -0.5067
61503SOL    HW291625   9.339   4.243  12.352 -0.7635 -2.1771  0.2754
61504SOL     OW91626  11.047   0.127  10.028 -0.2736 -0.0484 -0.5433
61504SOL    HW191627  11.082   0.038  10.036  4.1488  1.3913 -1.0116
61504SOL    HW291628  11.061   0.165  10.115  0.2402  0.8599 -1.0094
61505SOL     OW91629   8.926  12.751   6.728  0.3439  0.0280  0.2933
61505SOL    HW191630   8.917  12.812   6.655 -0.0043  0.5261  0.7505
61505SOL    HW291631   8.878  12.673   6.700  1.9242 -0.5790 -0.8590
61506SOL     OW91632   6.400   5.042   6.399  0.5255 -0.3405  0.3586
61506SOL    HW191633   6.398   5.105   6.471 -1.1460 -0.6760  0.6462
61506SOL    HW291634   6.444   4.965   6.436  0.8754 -0.0247  0.6042
61507SOL     OW91635   8.107   7.138   5.231 -0.3396 -0.1163 -0.3968
61507SOL    HW191636   8.156   7.188   5.297 -1.2051  0.8941 -0.4811
61507SOL    HW291637   8.015   7.159   5.249 -0.6613 -0.8687 -1.1089
61508SOL     OW91638   9.523   1.473  12.275  0.0067 -0.1287 -0.1703
61508SOL    HW191639   9.599   1.447  12.328  0.0756 -1.0672 -0.7091
61508SOL    HW291640   9.554   1.466  12.184 -0.3414  0.7316 -0.3642
61509SOL     OW91641   5.573   6.533   3.631  0.3804 -0.4723  0.3696
61509SOL    HW191642   5.498   6.529   3.690  0.3402  1.2937  0.4916
61509SOL    HW291643   5.631   6.598   3.672  0.8680 -0.0703 -0.9295
61510SOL     OW91644   4.708   9.598   2.569  0.6224  0.4704  0.0856
61510SOL    HW191645   4.706   9.593   2.664 -3.5499  2.1585  0.2799
61510SOL    HW291646   4.729   9.689   2.550  0.3681  0.3972 -0.5787
61511SOL     OW91647  10.911   6.388   1.840  0.0999  0.5064  1.0146
61511SOL    HW191648  10.842   6.449   1.867 -0.7247  0.4509 -0.8053
61511SOL    HW291649  10.970   6.441   1.788 -1.6702 -0.4950 -2.2815
61512SOL     OW91650  12.310  12.255   9.741 -0.2302 -0.3353  0.2311
61512SOL    HW191651  12.292  12.254   9.647 -0.3322 -0.1531  0.2491
61512SOL    HW291652  12.288  12.343   9.769 -0.1042 -0.3587  0.4093
61513SOL     OW91653  10.669  11.258   9.086 -0.5587 -0.0267  0.0144
61513SOL    HW191654  10.724  11.230   9.012 -1.4112  0.0179 -0.6481
61513SOL    HW291655  10.580  11.241   9.057 -0.9151  0.2070  0.9554
61514SOL     OW91656   0.093  11.079   7.233  0.0259 -0.6281  0.2990
61514SOL    HW191657   0.178  11.036   7.243  2.3460  3.0118 -1.6384
61514SOL    HW291658   0.098  11.156   7.288 -2.4586 -0.7515  0.8038
61515SOL     OW91659  11.728   3.937   7.326  0.1304  0.0446 -0.5729
61515SOL    HW191660  11.800   3.999   7.315  1.2766 -1.2171 -0.5472
61515SOL    HW291661  11.762   3.855   7.291 -0.2496 -1.2902  1.9271
61516SOL     OW91662  11.123   0.117   8.520  0.0796 -0.4602 -0.1453
61516SOL    HW191663  11.125   0.083   8.431 -1.6453 -1.6075  0.1948
61516SOL    HW291664  11.212   0.104   8.553  0.3913 -1.2753 -1.2519
61517SOL     OW91665   3.045   3.076   1.600 -0.1172 -0.3548  1.1199
61517SOL    HW191666   2.956   3.092   1.570  0.2469 -0.0921  0.1035
61517SOL    HW291667   3.054   3.128   1.680 -0.6026  0.3522  0.7317
61518SOL     OW91668  12.495   2.996   2.983 -0.1474  0.2413 -0.4802
61518SOL    HW191669  12.476   3.075   2.931 -0.1994  0.0910 -0.6921
61518SOL    HW291670  12.494   3.026   3.073  1.4264  0.8153 -0.6277
61519SOL     OW91671  12.163   1.483   7.531  0.0562 -0.2155  0.0003
61519SOL    HW191672  12.172   1.415   7.598  0.8698 -0.3476 -0.2362
61519SOL    HW291673  12.252   1.499   7.502 -0.3267 -0.4692 -1.3640
61520SOL     OW91674   9.508   4.873   9.129 -0.3832  0.1489  0.2230
61520SOL    HW191675   9.450   4.840   9.198  0.8353 -0.1204  1.1609
61520SOL    HW291676   9.573   4.803   9.118  0.3623  0.8773 -0.0595
61521SOL     OW91677   8.543   3.111  12.413  0.3787 -0.1994  0.2229
61521SOL    HW191678   8.529   3.151  12.327 -1.0476  1.2470  1.0615
61521SOL    HW291679   8.619   3.159  12.449  0.0913  0.1913  0.3191
61522SOL     OW91680   7.730   5.345   4.181 -0.3430  0.0229  0.3571
61522SOL    HW191681   7.725   5.356   4.086 -1.0472 -0.2064  0.3653
61522SOL    HW291682   7.665   5.406   4.216  0.5715  0.8100  0.7551
61523SOL     OW91683   9.014   1.494  11.320  0.3331 -0.1849 -0.0782
61523SOL    HW191684   8.938   1.519  11.373  0.5489  0.3627 -0.0174
61523SOL    HW291685   9.089   1.524  11.372  0.6047 -0.9509 -0.0171
61524SOL     OW91686   5.462  12.508   0.127  0.2924 -0.0274  0.9313
61524SOL    HW191687   5.557  12.516   0.133  0.4131  0.3812 -0.8425
61524SOL    HW291688   5.447  12.473   0.039 -1.1504 -1.3330  1.6441
61525SOL     OW91689   0.735   8.349   2.747  0.4197 -0.3263 -0.1019
61525SOL    HW191690   0.812   8.405   2.749 -0.6022  1.1437 -0.3820
61525SOL    HW291691   0.740   8.303   2.663  0.9509 -0.1998 -0.1376
61526SOL     OW91692  11.063   6.802   8.886  0.5088 -0.9295 -0.3671
61526SOL    HW191693  11.068   6.707   8.891  1.0505 -0.9510 -1.2068
61526SOL    HW291694  11.066   6.822   8.793 -1.9717 -0.2052 -0.3849
61527SOL     OW91695   7.926   8.997   1.835  0.2646 -0.3476 -0.4784
61527SOL    HW191696   7.980   8.964   1.907 -0.2742  2.2983  1.3403
61527SOL    HW291697   7.983   9.058   1.789 -0.7273  1.7351  0.8727
61528SOL     OW91698   7.805   9.448  11.969 -0.1808  0.1978  0.4608
61528SOL    HW191699   7.753   9.527  11.983 -1.4061 -0.5078  0.0154
61528SOL    HW291700   7.751   9.377  12.003 -0.1240 -0.7047 -1.2223
61529SOL     OW91701  11.579   7.353   2.311  0.2111  0.0204 -0.3708
61529SOL    HW191702  11.604   7.360   2.404 -0.6085  1.7480 -0.2347
61529SOL    HW291703  11.484   7.364   2.311 -0.1292 -2.3968 -1.2348
61530SOL     OW91704   6.060   2.700   4.938 -0.1471  0.5205  0.2461
61530SOL    HW191705   6.008   2.708   5.017 -0.6838 -0.2105 -0.0221
61530SOL    HW291706   6.006   2.648   4.879  0.6790  0.1784 -0.2228
61531SOL     OW91707   7.786   5.976   8.391  0.5288  0.5690  0.3232
61531SOL    HW191708   7.835   5.991   8.471  2.4382 -1.9064 -0.2349
61531SOL    HW291709   7.791   6.059   8.343  3.6872  0.6620  0.6165
61532SOL     OW91710   0.136   4.655   0.571 -0.0989  0.1837  0.2244
61532SOL    HW191711   0.075   4.709   0.522 -0.7743 -0.2307  0.5888
61532SOL    HW291712   0.094   4.569   0.576  0.4159 -0.0532  0.6659
61533SOL     OW91713   1.016   5.876  11.948 -0.1563  0.5930 -0.0569
61533SOL    HW191714   0.996   5.791  11.987  2.8247  0.2102  0.8413
61533SOL    HW291715   1.019   5.860  11.854 -2.9402  0.5482 -0.2370
61534SOL     OW91716   6.196   4.133  10.073 -0.2224  0.0217 -0.7471
61534SOL    HW191717   6.270   4.084  10.036 -0.4135 -0.6973 -0.2129
61534SOL    HW291718   6.184   4.095  10.160 -0.0843  1.3529 -0.1198
61535SOL     OW91719  12.731   8.722   2.398  0.9225 -0.5769 -0.1665
61535SOL    HW191720  12.761   8.733   2.488  0.2375 -1.2545  0.1581
61535SOL    HW291721  12.791   8.775   2.345  0.6207  0.7682  0.8005
61536SOL     OW91722   4.961   1.203  10.675 -0.2136  0.4359 -0.2195
61536SOL    HW191723   5.042   1.238  10.638  0.5050 -2.5942 -1.8477
61536SOL    HW291724   4.910   1.175  10.599 -1.4606 -0.4352  0.8874
61537SOL     OW91725   6.911   6.767   1.069  0.1275  0.0864 -0.0561
61537SOL    HW191726   6.857   6.739   1.142  1.4436 -1.3593  0.4148
61537SOL    HW291727   6.927   6.861   1.085 -2.8238  0.7844 -0.6720
61538SOL     OW91728   9.761   7.042   8.487  0.4240  1.0417 -0.1424
61538SOL    HW191729   9.738   7.107   8.553  1.1198  2.8365 -1.5655
61538SOL    HW291730   9.782   7.094   8.409 -0.2492 -0.9655 -1.7485
61539SOL     OW91731   4.121   5.451   7.053  0.4278 -0.1496  0.8090
61539SOL    HW191732   4.192   5.418   7.108  2.2916  1.6512 -0.3762
61539SOL    HW291733   4.095   5.533   7.094 -0.5388 -0.4832  0.8732
61540SOL     OW91734  10.373   2.584  10.683 -0.5487  0.3191 -0.0478
61540SOL    HW191735  10.286   2.571  10.720 -1.1495  2.9627 -0.3891
61540SOL    HW291736  10.362   2.652  10.617  1.6298  0.0773 -0.7570
61541SOL     OW91737   1.828  10.418   8.039  0.0842 -0.5639  0.3985
61541SOL    HW191738   1.863  10.478   8.105 -0.4351  1.4037 -1.0358
61541SOL    HW291739   1.906  10.373   8.005  0.7544  0.6932  0.1930
61542SOL     OW91740   4.414   9.919   8.363  0.1651 -0.3249  0.6930
61542SOL    HW191741   4.354   9.993   8.364  0.8936  0.3031  0.0466
61542SOL    HW291742   4.359   9.842   8.377 -0.8450  0.1868 -0.3263
61543SOL     OW91743   5.178   0.395   9.085  0.1100  0.8516 -0.5420
61543SOL    HW191744   5.112   0.422   9.021 -0.1146  0.5514 -0.4422
61543SOL    HW291745   5.261   0.424   9.048 -0.1987  2.6695  0.0806
61544SOL     OW91746  11.816   1.643   7.365 -0.3952  0.5132  0.2583
61544SOL    HW191747  11.828   1.551   7.339 -1.5362 -0.0278  1.5599
61544SOL    HW291748  11.814   1.691   7.282 -2.3272 -0.9568 -0.6112
61545SOL     OW91749   9.055   1.334   2.263  0.0421 -0.1533 -0.0921
61545SOL    HW191750   9.068   1.426   2.282  0.4089 -0.2583  0.1616
61545SOL    HW291751   9.122   1.288   2.314 -1.7584 -0.7705  1.8937
61546SOL     OW91752   8.974   8.688  11.546 -0.7117 -0.4232 -0.6681
61546SOL    HW191753   8.982   8.709  11.639  0.1215 -0.5786 -0.6928
61546SOL    HW291754   8.885   8.713  11.523 -0.4191  1.1200 -0.2046
61547SOL     OW91755  11.811   9.981  10.212  0.0877  0.4748 -0.5697
61547SOL    HW191756  11.737  10.031  10.178  1.3689  2.1636 -1.0522
61547SOL    HW291757  11.772   9.912  10.265 -1.8788 -0.0100 -2.5126
61548SOL     OW91758   3.942   9.292   1.068  0.0455  0.8427  0.0595
61548SOL    HW191759   3.855   9.253   1.061 -0.6013  2.4808 -2.5390
61548SOL    HW291760   4.002   9.223   1.040 -0.7710  0.6804 -1.3888
61549SOL     OW91761   4.148  10.565   0.269  0.4025  0.3891 -0.6040
61549SOL    HW191762   4.137  10.535   0.178 -1.5226 -1.7044  0.2490
61549SOL    HW291763   4.220  10.512   0.302 -0.3607 -0.4620 -0.2785
61550SOL     OW91764   7.555   7.798   0.938  0.4333  0.1666  0.1515
61550SOL    HW191765   7.494   7.844   0.996  0.7027  2.4402 -1.2542
61550SOL    HW291766   7.632   7.854   0.935  0.7459 -0.3148 -1.7566
61551SOL     OW91767   0.458   1.420   7.360  0.9179  0.2813 -0.7608
61551SOL    HW191768   0.463   1.328   7.334 -0.3910  0.2014 -0.7899
61551SOL    HW291769   0.405   1.420   7.440  2.1388  0.8728  0.0778
61552SOL     OW91770   0.835   1.394   7.580  0.3267  0.5027 -0.4990
61552SOL    HW191771   0.847   1.489   7.580 -0.5619  0.6205 -0.2099
61552SOL    HW291772   0.753   1.380   7.626  0.6135 -0.4358 -0.2598
61553SOL     OW91773   6.296   4.248   9.295 -0.7949 -0.5245  0.4676
61553SOL    HW191774   6.214   4.296   9.286 -0.2796  0.2865 -0.0251
61553SOL    HW291775   6.360   4.301   9.247  0.3993 -0.2476  2.2733
61554SOL     OW91776  12.861  12.122   0.179  0.4327  0.1200  0.3858
61554SOL    HW191777  12.855  12.162   0.093  0.8097  1.5438  0.9959
61554SOL    HW291778  12.953  12.099   0.189  0.0491 -1.9700 -0.3888
61555SOL     OW91779   6.746  12.653   3.987 -0.3697 -0.0744  0.3088
61555SOL    HW191780   6.719  12.740   3.959  1.8111  0.1359 -1.3705
61555SOL    HW291781   6.816  12.668   4.050 -0.4113 -0.6158  0.4907
61556SOL     OW91782  10.340   7.103   4.272  0.1719 -0.2575  0.3940
61556SOL    HW191783  10.289   7.132   4.197  0.1828 -1.7595 -0.2464
61556SOL    HW291784  10.286   7.035   4.312  1.7166 -2.1052 -0.4699
61557SOL     OW91785   7.392   7.706   9.056 -0.1698  0.1918  0.5907
61557SOL    HW191786   7.409   7.613   9.068  0.0969  0.2601  0.7593
61557SOL    HW291787   7.479   7.746   9.049 -0.2964  0.3155 -0.3699
61558SOL     OW91788   8.814   5.836  11.418  0.2384  0.1962  0.1938
61558SOL    HW191789   8.726   5.845  11.454 -0.3702 -0.4945 -1.0764
61558SOL    HW291790   8.871   5.875  11.485 -1.0655  1.1869  0.7743
61559SOL     OW91791   6.060   5.015  10.102  0.0246  0.0097 -0.1476
61559SOL    HW191792   6.081   5.062  10.183  1.3731  0.0877 -0.5166
61559SOL    HW291793   6.111   5.060  10.034 -1.2795  0.1046 -1.1014
61560SOL     OW91794   4.387   4.574   5.870 -0.7748  0.5415  0.5420
61560SOL    HW191795   4.310   4.610   5.914 -1.0566 -0.3489  0.8052
61560SOL    HW291796   4.388   4.616   5.784 -1.9725  0.0428  0.2589
61561SOL     OW91797   7.013   5.212   0.655 -0.0388  0.2389 -0.4917
61561SOL    HW191798   6.939   5.266   0.683  0.2180  0.2391  0.1897
61561SOL    HW291799   7.067   5.202   0.733 -0.4716 -1.6575 -0.4010
61562SOL     OW91800   8.228  10.734  10.307 -0.2701  0.6613 -0.3468
61562SOL    HW191801   8.278  10.660  10.341 -0.8917  0.3700 -0.0646
61562SOL    HW291802   8.210  10.711  10.216  0.8906  1.1823 -0.7345
61563SOL     OW91803   3.716   3.219  12.758  0.0482  0.0118  0.0651
61563SOL    HW191804   3.798   3.173  12.776  0.9909  1.5788  0.0292
61563SOL    HW291805   3.714   3.291  12.821 -0.6643  0.7385 -0.7441
61564SOL     OW91806  11.593   7.541   2.110  0.2523 -0.2409 -0.2222
61564SOL    HW191807  11.608   7.465   2.167 -0.8461 -1.2858 -1.2585
61564SOL    HW291808  11.537   7.507   2.040 -0.3413  1.5716 -0.6693
61565SOL     OW91809   0.335   5.059   0.263  0.2441 -0.0813 -0.2542
61565SOL    HW191810   0.266   5.109   0.220 -0.2086  0.5223  1.1241
61565SOL    HW291811   0.314   4.967   0.243  0.2569  0.1728 -1.5677
61566SOL     OW91812  11.299  10.189   1.611 -0.2309  0.0715  0.3834
61566SOL    HW191813  11.349  10.186   1.693  0.6552  0.6367 -0.1329
61566SOL    HW291814  11.278  10.281   1.599 -0.3591 -0.0128 -0.0354
61567SOL     OW91815  10.477   8.459   9.623  0.4429 -0.3169 -0.0459
61567SOL    HW191816  10.516   8.374   9.641  0.5398 -0.0294  1.2128
61567SOL    HW291817  10.385   8.449   9.647  0.4477 -0.0848  0.0815
61568SOL     OW91818   3.312   2.830  10.050 -0.0244  0.3854 -0.2449
61568SOL    HW191819   3.260   2.818   9.971  0.5733  1.6173 -0.8611
61568SOL    HW291820   3.252   2.812  10.122 -0.7834 -0.0358 -0.9722
61569SOL     OW91821   6.180   5.871   5.306  0.1589 -0.6200 -0.1030
61569SOL    HW191822   6.128   5.791   5.304  0.0389 -0.5403 -0.2992
61569SOL    HW291823   6.269   5.843   5.283  0.6650 -1.0792  2.2299
61570SOL     OW91824   1.154   1.587   1.644  0.1791  0.0071  0.8362
61570SOL    HW191825   1.144   1.493   1.628 -1.3070  0.2137  0.3387
61570SOL    HW291826   1.114   1.601   1.729 -0.4669  0.3217  0.4872
61571SOL     OW91827  10.190   5.977  11.610  0.1752  0.1466 -0.3016
61571SOL    HW191828  10.187   5.898  11.664 -1.6754  0.2843 -0.1178
61571SOL    HW291829  10.104   5.978  11.566 -0.6724  3.0374  1.1723
61572SOL     OW91830   2.619   5.073   7.909 -0.1595 -0.8069 -0.1263
61572SOL    HW191831   2.594   5.047   7.998 -0.9331  2.7918  0.8553
61572SOL    HW291832   2.544   5.047   7.855 -0.1754 -2.0004  0.4286
61573SOL     OW91833  10.468   1.646  11.972  0.2411  0.2180 -0.4292
61573SOL    HW191834  10.541   1.584  11.973 -0.7922 -1.1049  1.7176
61573SOL    HW291835  10.463   1.679  12.062  0.4424  3.1455 -1.3873
61574SOL     OW91836   2.223   9.289   5.805 -0.1834  0.1057 -0.3382
61574SOL    HW191837   2.136   9.317   5.774  0.0381  1.2802  0.0345
61574SOL    HW291838   2.223   9.194   5.795 -0.5828  0.2874 -2.7647
61575SOL     OW91839   6.194   8.337  10.712 -0.3148 -0.0824  0.1313
61575SOL    HW191840   6.170   8.372  10.626 -0.8082  0.2442  0.3968
61575SOL    HW291841   6.286   8.362  10.723 -0.8334  1.8049  0.6094
61576SOL     OW91842   4.009   9.881  11.025  0.0801  0.3828 -0.3632
61576SOL    HW191843   4.034   9.931  10.947  1.6770 -0.6426 -0.5708
61576SOL    HW291844   3.993   9.947  11.092 -0.1206  1.2424 -1.2334
61577SOL     OW91845   2.770   4.754   3.702  0.8484 -0.1567  0.3925
61577SOL    HW191846   2.696   4.696   3.685  1.5499 -0.8709 -0.2749
61577SOL    HW291847   2.784   4.747   3.797 -0.2296  0.3679  0.6075
61578SOL     OW91848  12.443   9.113  11.030 -0.1987  0.4667  0.3896
61578SOL    HW191849  12.397   9.196  11.023 -0.7531  0.1484  0.1860
61578SOL    HW291850  12.437   9.089  11.122 -3.0678 -1.0119 -0.0578
61579SOL     OW91851   9.389   6.548   3.803  0.6090  0.0487  0.5835
61579SOL    HW191852   9.399   6.474   3.863  0.5613  0.5669  1.2566
61579SOL    HW291853   9.478   6.580   3.789  1.0779 -2.1496 -2.4202
61580SOL     OW91854   1.135   9.096  11.247  0.1580 -0.2785  0.1635
61580SOL    HW191855   1.129   9.025  11.183 -1.4938 -1.0451  1.0942
61580SOL    HW291856   1.051   9.141  11.240  1.1717  1.5972 -0.3739
61581SOL     OW91857   8.888   1.521   8.632 -0.1802 -0.0777 -0.7374
61581SOL    HW191858   8.983   1.514   8.623  0.0115  0.0258  0.8559
61581SOL    HW291859   8.874   1.614   8.652 -0.3233 -0.5119  1.4719
61582SOL     OW91860   5.491  12.341  12.493  0.7757 -0.2245  0.1002
61582SOL    HW191861   5.477  12.249  12.471 -0.7435  0.1495 -0.6028
61582SOL    HW291862   5.405  12.381  12.485  1.1926  1.0362  1.5728
61583SOL     OW91863   4.111  11.038  10.836 -0.5094 -0.4812 -0.1802
61583SOL    HW191864   4.045  11.101  10.868 -0.4208  0.0314 -0.9770
61583SOL    HW291865   4.180  11.041  10.902  0.1656  1.3696 -0.8952
61584SOL     OW91866  11.919   4.925  10.116  1.0599  0.0788 -0.2264
61584SOL    HW191867  11.917   4.923  10.212  1.8981 -1.1434 -0.2061
61584SOL    HW291868  11.942   4.835  10.091 -1.5459 -0.2635 -1.6726
61585SOL     OW91869   4.954   1.121   3.392 -0.2893  0.2703  0.4092
61585SOL    HW191870   4.997   1.205   3.376  0.9193 -0.5523 -0.8347
61585SOL    HW291871   4.966   1.072   3.311  0.6615 -1.7916  1.7335
61586SOL     OW91872   5.144   6.119   5.326  0.2324 -0.1154 -0.2507
61586SOL    HW191873   5.138   6.059   5.401  0.7298 -0.3258 -0.3742
61586SOL    HW291874   5.229   6.099   5.286 -0.0064  0.0334 -0.8403
61587SOL     OW91875   8.807   7.916  10.239  0.0035 -0.3653  0.4034
61587SOL    HW191876   8.724   7.960  10.220 -0.4108 -0.7803  1.1955
61587SOL    HW291877   8.783   7.841  10.294  0.6705 -1.6962 -1.0446
61588SOL     OW91878   6.717   0.594   7.583 -0.2340  0.0314 -0.3692
61588SOL    HW191879   6.662   0.666   7.612 -0.5281 -0.1435 -0.4758
61588SOL    HW291880   6.655   0.533   7.542 -0.1036 -0.6645  0.4573
61589SOL     OW91881   4.889  10.364  10.543 -0.0798 -0.2022 -0.0069
61589SOL    HW191882   4.814  10.306  10.529 -0.6690  0.6094 -0.2665
61589SOL    HW291883   4.851  10.451  10.553  0.6281 -0.0998  2.3402
61590SOL     OW91884   9.617   8.065   3.388 -0.2429  0.0277  0.2143
61590SOL    HW191885   9.711   8.082   3.389 -0.1837 -0.2613 -0.2616
61590SOL    HW291886   9.586   8.101   3.471  0.0252  1.5485 -0.3182
61591SOL     OW91887   6.832  11.499   1.486 -0.2655  0.3848  0.6424
61591SOL    HW191888   6.864  11.504   1.576  3.3552  1.2745 -0.5137
61591SOL    HW291889   6.860  11.581   1.446 -2.2802  0.2553 -1.2067
61592SOL     OW91890   5.141  12.339  10.953  0.3915  0.2968 -0.0647
61592SOL    HW191891   5.129  12.262  11.008 -2.2470  0.9520  0.4182
61592SOL    HW291892   5.173  12.305  10.870 -0.5600 -1.2951  0.1952
61593SOL     OW91893   2.047  11.864   0.220 -0.7375  0.7625 -0.1369
61593SOL    HW191894   2.086  11.790   0.267 -0.0581  0.4441 -1.1635
61593SOL    HW291895   1.955  11.840   0.209 -1.1053  1.1806  1.6484
61594SOL     OW91896   3.309   1.722  12.127 -0.4746  0.1923  0.3734
61594SOL    HW191897   3.294   1.782  12.200 -0.8707 -0.0599  0.5046
61594SOL    HW291898   3.403   1.707  12.127 -0.4070  0.6073  0.5016
61595SOL     OW91899   4.540   0.706   8.019  0.3244  0.2737  0.5061
61595SOL    HW191900   4.520   0.731   7.928  0.5275 -1.5302 -0.0799
61595SOL    HW291901   4.520   0.784   8.070  1.9230  1.9499 -1.2761
61596SOL     OW91902   7.855  10.279   3.532 -0.4420 -0.2121 -0.2844
61596SOL    HW191903   7.821  10.204   3.581 -0.7328 -0.0836 -0.2891
61596SOL    HW291904   7.915  10.239   3.468 -0.2516 -0.3987  0.0114
61597SOL     OW91905  10.144  12.345   5.398  0.4985 -0.2050  0.8357
61597SOL    HW191906  10.218  12.317   5.344  0.6467  0.3268  0.7608
61597SOL    HW291907  10.096  12.407   5.343 -0.1013 -0.6801  0.8203
61598SOL     OW91908   2.452   6.264   0.886 -0.4395  0.5440  0.3692
61598SOL    HW191909   2.545   6.241   0.882 -0.6546 -0.1714 -2.3202
61598SOL    HW291910   2.407   6.181   0.901 -0.7774  0.3494 -1.5203
61599SOL     OW91911  12.584   2.669   9.785  0.5864 -0.4402  0.1568
61599SOL    HW191912  12.665   2.678   9.836 -0.2086 -0.9755  1.5734
61599SOL    HW291913  12.589   2.738   9.720  1.7277  0.1739  0.8585
61600SOL     OW91914   5.185   4.766  11.166  0.1364  0.4197  0.0532
61600SOL    HW191915   5.262   4.765  11.223  0.0120  0.0905  0.2141
61600SOL    HW291916   5.112   4.785  11.225  0.1004  0.8083 -0.1112
61601SOL     OW91917   1.616   4.890  11.052 -0.2378 -0.5369  0.3701
61601SOL    HW191918   1.548   4.824  11.070 -0.6839 -0.1177  0.2371
61601SOL    HW291919   1.623   4.940  11.133  0.2952 -0.9098  0.5638
61602SOL     OW91920  11.416  10.662   3.868 -0.3228  0.6653 -0.0352
61602SOL    HW191921  11.373  10.741   3.903  0.8458  1.3162 -0.0264
61602SOL    HW291922  11.344  10.608   3.836 -1.2268  1.2599  0.9320
61603SOL     OW91923   1.153   8.269  10.723  0.7400 -1.0676  0.3525
61603SOL    HW191924   1.103   8.306  10.796  0.9260 -0.8413  0.3665
61603SOL    HW291925   1.102   8.192  10.696 -1.0741  0.6059 -1.3564
61604SOL     OW91926   2.882   9.426   6.383 -0.8240 -0.2730 -0.0403
61604SOL    HW191927   2.913   9.394   6.468  0.3555  0.3604 -0.2035
61604SOL    HW291928   2.904   9.356   6.322 -0.7537 -0.3086  0.0254
61605SOL     OW91929   2.203  12.036   1.373  0.5345  0.3279 -0.2340
61605SOL    HW191930   2.135  12.047   1.440 -0.8890 -0.3074 -1.5299
61605SOL    HW291931   2.183  12.103   1.307  2.3378  1.4101  0.2550
61606SOL     OW91932   6.755  11.275  10.973 -0.0977 -0.3947 -0.3715
61606SOL    HW191933   6.795  11.248  10.891 -2.6313 -3.1245 -0.8915
61606SOL    HW291934   6.684  11.333  10.947 -0.4175 -0.6346 -0.0436
61607SOL     OW91935   7.307   5.778   5.734 -0.6849  0.5390 -0.1739
61607SOL    HW191936   7.331   5.790   5.642  0.2877 -0.0635 -0.0146
61607SOL    HW291937   7.330   5.861   5.776  3.1427 -0.5790  0.3480
61608SOL     OW91938   6.620   9.588   0.165  0.0690  0.3279  0.6834
61608SOL    HW191939   6.568   9.620   0.091 -1.0703  0.4211  1.5023
61608SOL    HW291940   6.675   9.519   0.127  0.4664  1.2526 -0.5086
61609SOL     OW91941   3.113   3.450  11.106  0.1746 -0.2482 -0.1990
61609SOL    HW191942   3.170   3.481  11.036  0.0404  0.2415 -0.0953
61609SOL    HW291943   3.025   3.474  11.077  0.0319 -0.8784 -0.2959
61610SOL     OW91944   7.399   3.181   6.364  0.1654  0.3502  0.2414
61610SOL    HW191945   7.427   3.152   6.277 -0.7986 -0.2009  0.0957
61610SOL    HW291946   7.472   3.161   6.421 -0.7300 -3.2652  0.3194
61611SOL     OW91947  11.943  11.999   3.122 -0.2910  0.1435  0.3003
61611SOL    HW191948  11.978  12.088   3.116 -0.5197  0.6007  3.7892
61611SOL    HW291949  11.996  11.957   3.190 -0.6065 -2.2108 -0.8347
61612SOL     OW91950   0.852   2.602  11.860 -0.0678  0.2789 -0.3287
61612SOL    HW191951   0.850   2.506  11.856 -0.1772  0.1930  1.2531
61612SOL    HW291952   0.796   2.630  11.787 -0.9368 -0.8885 -0.1372
61613SOL     OW91953   9.421   5.115   7.670 -0.3902 -0.1066 -0.0041
61613SOL    HW191954   9.410   5.092   7.578 -0.3453 -0.5481  0.0999
61613SOL    HW291955   9.485   5.052   7.703  0.6053  0.8684  0.0070
61614SOL     OW91956   0.438   7.966   1.781 -0.9597 -0.4044 -0.5860
61614SOL    HW191957   0.363   7.968   1.840  1.4113 -1.9704  2.7869
61614SOL    HW291958   0.503   8.023   1.823  0.6149 -0.9924 -2.1071
61615SOL     OW91959   7.194   5.255   2.661  0.3313 -0.3525  0.2092
61615SOL    HW191960   7.288   5.268   2.667  0.2495  0.5651 -0.3610
61615SOL    HW291961   7.158   5.303   2.736  0.3547 -1.1974  0.7675
61616SOL     OW91962   0.955  11.443   3.348 -0.1952 -0.1159 -0.0091
61616SOL    HW191963   0.876  11.389   3.346  1.2823 -2.4093 -0.1501
61616SOL    HW291964   0.978  11.455   3.255  0.0248 -0.0506  0.0532
61617SOL     OW91965  11.444   2.396   7.511 -0.7220  0.9673 -0.1343
61617SOL    HW191966  11.442   2.333   7.439  1.9812  0.0484  0.4997
61617SOL    HW291967  11.448   2.342   7.590  0.3430  1.9267  0.4881
61618SOL     OW91968   6.004   2.179   6.963 -0.1851  0.0928  0.4461
61618SOL    HW191969   5.916   2.143   6.963 -0.9428  1.7241  2.6996
61618SOL    HW291970   6.049   2.132   7.034  0.6613 -0.3825 -0.3662
61619SOL     OW91971   3.495   3.822   5.273  0.0345  0.5439 -0.0129
61619SOL    HW191972   3.438   3.798   5.345 -0.5275 -1.1653 -0.9737
61619SOL    HW291973   3.440   3.813   5.195  1.3373 -0.2353 -0.8803
61620SOL     OW91974   7.565   0.589  11.505  0.0272  0.1296 -0.7092
61620SOL    HW191975   7.623   0.533  11.557  0.5305 -0.6390 -2.0483
61620SOL    HW291976   7.593   0.678  11.526  0.0765 -0.1509  0.4734
61621SOL     OW91977   7.504   4.664   7.215 -0.1167 -0.3633 -0.0309
61621SOL    HW191978   7.519   4.591   7.156 -0.0699 -0.8640  0.5945
61621SOL    HW291979   7.591   4.704   7.226 -0.3262  0.4980 -1.2687
61622SOL     OW91980  11.417   7.706   4.225 -0.1468  0.1662 -0.1528
61622SOL    HW191981  11.429   7.757   4.145  0.6727  0.2512  0.0167
61622SOL    HW291982  11.410   7.772   4.294 -1.0010  0.0982 -0.1667
61623SOL     OW91983  12.470   6.005   7.547 -0.3136 -0.6378 -0.3299
61623SOL    HW191984  12.528   6.055   7.489  1.0948  1.0900  2.3631
61623SOL    HW291985  12.487   5.913   7.525  0.9362 -0.0808 -1.8922
61624SOL     OW91986   3.854   1.123   4.068 -0.0619  0.4906 -0.3148
61624SOL    HW191987   3.783   1.095   4.011 -0.5409  0.4999  0.2622
61624SOL    HW291988   3.900   1.042   4.090  0.4312  0.5498 -1.1099
61625SOL     OW91989   2.459   2.258   8.051  0.1379 -0.0496  0.1763
61625SOL    HW191990   2.531   2.285   8.107 -0.8113 -1.6929  2.3776
61625SOL    HW291991   2.381   2.297   8.091 -0.3108  1.0589 -1.6928
61626SOL     OW91992   4.715   3.179   1.565 -0.6907 -0.6084  0.7365
61626SOL    HW191993   4.630   3.137   1.558 -0.1654 -1.3652 -2.0860
61626SOL    HW291994   4.776   3.117   1.526  0.9490  0.5565  1.3360
61627SOL     OW91995   5.919   4.786   6.216 -0.4491  0.3328  0.2139
61627SOL    HW191996   6.003   4.799   6.172  1.3823 -1.2991  2.8914
61627SOL    HW291997   5.874   4.719   6.165  1.2138 -0.8851  0.2937
61628SOL     OW91998   1.127   7.679   3.181  0.2778 -0.4975  0.5266
61628SOL    HW191999   1.059   7.625   3.222 -0.8399 -0.1062 -0.7168
61628SOL    HW292000   1.149   7.744   3.248 -0.0687 -1.0685  1.2064
61629SOL     OW92001   1.389  12.233   2.294 -0.0995  0.3081  0.1104
61629SOL    HW192002   1.308  12.225   2.243 -0.4300  0.9594  0.5227
61629SOL    HW292003   1.456  12.193   2.238 -0.6053  0.2527 -0.4710
61630SOL     OW92004   0.984   2.230  11.594  0.0307  0.4989 -0.2168
61630SOL    HW192005   0.908   2.240  11.537  0.0907  0.3494 -0.3211
61630SOL    HW292006   1.034   2.158  11.556 -0.3863 -0.2001  0.5345
61631SOL     OW92007   3.560   8.682   3.674 -0.3516 -0.7563  0.1109
61631SOL    HW192008   3.545   8.700   3.582  1.1523  1.2892  0.2021
61631SOL    HW292009   3.607   8.759   3.707 -2.9894 -0.2430  3.1903
61632SOL     OW92010   8.195  10.246  10.554  0.2702  0.1093 -0.0918
61632SOL    HW192011   8.129  10.314  10.542 -0.3304 -0.2486  0.9962
61632SOL    HW292012   8.228  10.228  10.465 -0.8282  0.5627 -0.6123
61633SOL     OW92013  11.885   0.789   3.402 -0.3532  0.1925 -0.0459
61633SOL    HW192014  11.912   0.840   3.478 -0.9462  0.0820  0.2455
61633SOL    HW292015  11.958   0.731   3.384 -0.0469  0.5037  0.1886
61634SOL     OW92016   4.465   1.857   3.201 -0.1629  0.3987  0.4906
61634SOL    HW192017   4.546   1.900   3.228  0.0683  0.1874  0.1443
61634SOL    HW292018   4.402   1.876   3.271  0.3660  0.0441  1.0703
61635SOL     OW92019   1.822   2.422   9.851  0.1615  0.1770 -0.0554
61635SOL    HW192020   1.914   2.406   9.871 -0.0494 -3.9763 -1.5227
61635SOL    HW292021   1.778   2.420   9.936  1.3464  2.6502  0.7090
61636SOL     OW92022   7.691   0.640   9.159  0.3286 -0.1691 -0.3887
61636SOL    HW192023   7.703   0.561   9.106 -0.0306 -0.0002 -0.7238
61636SOL    HW292024   7.695   0.712   9.096 -1.9540 -0.0562 -0.4979
61637SOL     OW92025   9.246   1.186   3.453  0.2272  0.6185  0.0044
61637SOL    HW192026   9.340   1.166   3.458  0.0146 -0.0669  3.0849
61637SOL    HW292027   9.233   1.256   3.517 -1.5136  0.0610  0.2974
61638SOL     OW92028   3.355  11.058   4.648  0.3451  0.0306 -0.5467
61638SOL    HW192029   3.297  11.031   4.577  1.3537 -2.6532 -0.4643
61638SOL    HW292030   3.299  11.057   4.726  0.0488 -0.6873 -0.7548
61639SOL     OW92031   9.974  10.420   3.342 -0.4876 -0.2208 -0.3076
61639SOL    HW192032   9.973  10.400   3.249 -0.2607  0.2959 -0.4224
61639SOL    HW292033  10.029  10.352   3.381  0.4386  0.2763 -0.7210
61640SOL     OW92034   2.828   7.309  11.382  0.4228  0.0305  0.2957
61640SOL    HW192035   2.844   7.401  11.404 -1.5246  0.8762 -1.4636
61640SOL    HW292036   2.733   7.304  11.365  0.8232 -1.7321 -1.9946
61641SOL     OW92037   2.350   0.537  11.523 -0.4436 -0.0786 -0.2983
61641SOL    HW192038   2.313   0.533  11.435  0.4473 -1.5873 -0.6490
61641SOL    HW292039   2.276   0.563  11.578 -2.0440 -2.6204 -1.0254
61642SOL     OW92040   5.475   4.941   1.680 -0.3015  0.0100 -0.2679
61642SOL    HW192041   5.462   5.036   1.680  1.7247  0.3470 -0.6545
61642SOL    HW292042   5.509   4.922   1.768 -0.1380 -0.2490 -0.3860
61643SOL     OW92043   0.953   1.771   4.035 -0.1428 -0.0101  0.4193
61643SOL    HW192044   0.891   1.840   4.053 -0.1077  0.1850 -0.1838
61643SOL    HW292045   0.904   1.707   3.983  0.2334  0.2991 -0.3398
61644SOL     OW92046   9.315   4.738   2.397 -0.4925  0.3220 -0.1431
61644SOL    HW192047   9.281   4.718   2.485  0.6441  2.6093  0.8864
61644SOL    HW292048   9.408   4.752   2.410 -0.1147 -0.2723 -1.9314
61645SOL     OW92049   4.283   5.270   1.552 -0.2876 -0.2082  0.4151
61645SOL    HW192050   4.268   5.196   1.610  0.5238 -0.4987  0.2750
61645SOL    HW292051   4.310   5.230   1.469 -0.6602  0.2225  0.0833
61646SOL     OW92052   7.338   4.671   6.358 -0.1235  0.2766 -0.1360
61646SOL    HW192053   7.244   4.689   6.352  0.1625  1.4984 -1.3652
61646SOL    HW292054   7.372   4.694   6.272  1.4671  0.8026  0.6030
61647SOL     OW92055   8.468   6.528   2.027 -0.0824 -0.5003  0.3824
61647SOL    HW192056   8.509   6.453   1.983  0.5981  0.3958 -0.5411
61647SOL    HW292057   8.528   6.600   2.012 -1.2023  0.4643  0.4197
61648SOL     OW92058   3.567   4.223   1.807  0.4185 -0.5188  0.0775
61648SOL    HW192059   3.590   4.299   1.752  0.6390 -0.8751 -0.3344
61648SOL    HW292060   3.527   4.161   1.746  3.0183 -2.0246 -0.2867
61649SOL     OW92061   7.518   5.557   2.494  0.3875 -0.2986 -0.1644
61649SOL    HW192062   7.503   5.649   2.475 -0.5555 -0.8958 -2.6787
61649SOL    HW292063   7.548   5.519   2.411  1.0171 -2.2134  0.8665
61650SOL     OW92064   7.372   0.320   9.118  0.3829  0.6119  0.2213
61650SOL    HW192065   7.302   0.312   9.182 -1.7867 -2.1966 -2.2172
61650SOL    HW292066   7.342   0.388   9.057  0.8613  0.9375  0.3375
61651SOL     OW92067   1.091   4.064   5.843  0.3368  0.0748  0.4464
61651SOL    HW192068   1.121   3.974   5.858 -1.6748 -0.7152  0.0346
61651SOL    HW292069   1.156   4.101   5.783  0.5965 -1.4925 -0.3045
61652SOL     OW92070  10.285   2.520  11.427 -0.0752  0.2617  0.7890
61652SOL    HW192071  10.332   2.513  11.510  0.0821 -0.0343  0.6761
61652SOL    HW292072  10.205   2.468  11.440 -0.5238  1.0064  1.0807
61653SOL     OW92073   7.485   6.802   9.380 -0.1982 -0.5387  0.4067
61653SOL    HW192074   7.432   6.875   9.347  0.0729 -0.4602  0.1421
61653SOL    HW292075   7.502   6.825   9.472 -0.8208 -0.6833  0.5678
61654SOL     OW92076   4.868   0.968   4.515  0.3002 -0.2432 -0.3611
61654SOL    HW192077   4.879   1.062   4.524 -1.4936  0.1838 -1.8004
61654SOL    HW292078   4.947   0.930   4.551 -0.3489  1.6254  3.4964
61655SOL     OW92079   4.455   4.514   3.013  0.2405  0.1896 -0.1779
61655SOL    HW192080   4.530   4.508   3.072  1.0155  0.0909 -1.1508
61655SOL    HW292081   4.487   4.565   2.938 -0.3384 -0.7016 -1.0603
61656SOL     OW92082   1.171  12.435   6.367 -0.0720 -0.2524  0.5063
61656SOL    HW192083   1.108  12.386   6.420 -1.1094 -0.0202 -0.4962
61656SOL    HW292084   1.127  12.450   6.284  0.9081  0.8480  0.1614
61657SOL     OW92085   3.033   2.733   6.521  0.1236 -0.5583  0.0413
61657SOL    HW192086   3.038   2.730   6.425 -0.2387 -1.7620  0.0344
61657SOL    HW292087   2.944   2.761   6.540  0.7553  1.5633  0.0566
61658SOL     OW92088   0.489   7.440   4.130 -0.6091 -0.4705 -0.1038
61658SOL    HW192089   0.452   7.358   4.099 -0.3301 -0.9052  0.6840
61658SOL    HW292090   0.429   7.507   4.097 -1.4248 -1.0736  0.1278
61659SOL     OW92091   8.155   6.007   0.866 -0.7195 -0.6172 -0.0756
61659SOL    HW192092   8.208   6.071   0.817 -1.1072  0.6106  1.0301
61659SOL    HW292093   8.182   6.020   0.957 -2.4770 -0.3756  0.4452
61660SOL     OW92094   4.641   7.726  11.669  0.0230  0.1569 -0.0572
61660SOL    HW192095   4.696   7.647  11.676 -0.3773 -0.0815  0.5209
61660SOL    HW292096   4.670   7.782  11.741  0.8428  0.8864 -0.9470
61661SOL     OW92097   1.755   0.551   6.197  0.2374  0.2117  0.6662
61661SOL    HW192098   1.758   0.644   6.218  1.6113 -0.3331  3.3089
61661SOL    HW292099   1.717   0.509   6.274 -2.5787 -1.3151 -1.3409
61662SOL     OW92100   7.874  10.667  10.892 -0.3556  0.4748 -0.1357
61662SOL    HW192101   7.935  10.661  10.966 -0.8446  0.4274  0.2698
61662SOL    HW292102   7.869  10.578  10.857  1.9388  0.9787 -1.9322
61663SOL     OW92103   6.468   6.591  12.789 -0.5501  0.6511  0.1727
61663SOL    HW192104   6.539   6.553  12.841 -1.6577 -0.0811  1.2223
61663SOL    HW292105   6.468   6.684  12.812  1.0883  1.0004 -1.0941
61664SOL     OW92106   8.074   2.417  12.741 -0.5433  0.4327 -0.2740
61664SOL    HW192107   8.155   2.434  12.694 -0.3683 -1.9729 -1.0046
61664SOL    HW292108   8.019   2.370  12.678 -0.7628 -1.8626  1.5010
61665SOL     OW92109   6.085   3.408   0.208  0.1245  0.4266  0.1527
61665SOL    HW192110   6.065   3.335   0.149 -1.0125  2.1406 -1.7367
61665SOL    HW292111   6.140   3.370   0.276 -2.0743 -2.6493  0.4369
61666SOL     OW92112   7.722   5.693   4.243  0.1125  0.4561 -0.5020
61666SOL    HW192113   7.643   5.651   4.276 -0.3917  0.1053 -2.0721
61666SOL    HW292114   7.741   5.761   4.308  0.2640 -1.3536  1.4647
61667SOL     OW92115  12.116   6.800   5.531  0.5370  0.2011  0.2439
61667SOL    HW192116  12.070   6.768   5.608  1.0450 -1.2577 -0.0260
61667SOL    HW292117  12.087   6.890   5.522 -2.4352 -0.6697 -0.0291
61668SOL     OW92118   5.171   8.499   2.911 -0.4998 -0.0344  0.5466
61668SOL    HW192119   5.109   8.546   2.967 -2.8056 -0.4370 -1.4824
61668SOL    HW292120   5.217   8.567   2.862 -1.7710  0.2460 -0.3106
61669SOL     OW92121   4.702   5.363   0.558 -0.2875 -0.0490 -0.1239
61669SOL    HW192122   4.608   5.378   0.557 -0.3541 -0.3573  0.5481
61669SOL    HW292123   4.740   5.450   0.546 -0.6661  0.2540  0.7783
61670SOL     OW92124   7.431   3.138   4.492  0.1587 -0.4524  0.4167
61670SOL    HW192125   7.480   3.055   4.492 -0.2597 -0.7493 -1.8198
61670SOL    HW292126   7.486   3.198   4.543  0.5767 -1.9991  1.9103
61671SOL     OW92127   3.681   6.800   4.213  0.1558 -0.0865  0.0194
61671SOL    HW192128   3.700   6.706   4.212  1.4148  0.0988  1.7951
61671SOL    HW292129   3.586   6.805   4.218  0.1265 -1.3637  1.7656
61672SOL     OW92130   6.868   1.529   8.564 -0.2010 -0.4458  0.3241
61672SOL    HW192131   6.853   1.530   8.658  2.2070  1.6175  0.7865
61672SOL    HW292132   6.875   1.622   8.540 -0.7701 -0.9242 -1.8989
61673SOL     OW92133  12.846  12.751   3.934  0.2422 -0.2261 -0.1128
61673SOL    HW192134  12.751  12.758   3.929  0.2519 -0.1447 -0.1905
61673SOL    HW292135  12.863  12.714   4.021  0.1046 -0.9079 -0.3716
61674SOL     OW92136   7.117   5.097  10.117  0.0558  0.9254  0.0439
61674SOL    HW192137   7.074   5.049  10.046 -1.8678  1.0476  1.0754
61674SOL    HW292138   7.102   5.044  10.195  1.0664  1.4218  0.6001
61675SOL     OW92139   0.020   2.343   4.377 -0.2417 -0.0952  0.3829
61675SOL    HW192140  -0.057   2.396   4.395 -0.1833  0.7954 -1.6496
61675SOL    HW292141   0.094   2.400   4.401 -0.1860 -0.5322  1.2894
61676SOL     OW92142   4.777   4.971   5.172 -0.2198  0.0940 -0.1520
61676SOL    HW192143   4.850   4.953   5.232 -0.7043 -0.8309  0.1846
61676SOL    HW292144   4.754   4.885   5.136  0.0564  0.6170 -1.6778
61677SOL     OW92145   8.004   3.648  11.922 -0.0357 -0.5233  0.2092
61677SOL    HW192146   7.922   3.695  11.907 -0.4184 -1.1908  0.1790
61677SOL    HW292147   7.977   3.558  11.940  0.6593 -0.6323  0.7494
61678SOL     OW92148  12.802   3.575   6.503  0.3200  0.0449 -0.8829
61678SOL    HW192149  12.707   3.567   6.496 -0.4360  1.3481  4.0545
61678SOL    HW292150  12.821   3.663   6.471  0.1088 -0.6156 -2.9279
61679SOL     OW92151   0.846   7.900   9.123  1.0908  0.0687 -0.0043
61679SOL    HW192152   0.929   7.927   9.083  0.7156  0.4385 -0.5517
61679SOL    HW292153   0.833   7.962   9.194  0.6054  0.8945 -0.7904
61680SOL     OW92154   0.387  11.475   7.786 -0.1225  0.5803 -0.4041
61680SOL    HW192155   0.378  11.566   7.758  1.1854  0.4948 -1.1818
61680SOL    HW292156   0.304  11.434   7.761 -0.0804  1.1751 -1.6020
61681SOL     OW92157   2.683  12.122   1.955 -0.1068 -0.6002  0.1676
61681SOL    HW192158   2.688  12.158   1.866  3.1404  0.5060  0.6690
61681SOL    HW292159   2.641  12.192   2.006  1.2479  0.2666  0.1270
61682SOL     OW92160  10.395   2.708   3.365 -0.9326  0.3154 -0.3913
61682SOL    HW192161  10.449   2.721   3.287  0.1053 -1.7457 -0.1077
61682SOL    HW292162  10.449   2.741   3.437  0.4033 -2.3596 -0.0243
61683SOL     OW92163   9.407   2.198   3.562  0.1890 -0.0375 -0.2362
61683SOL    HW192164   9.316   2.169   3.560  0.0534  0.2435  1.1389
61683SOL    HW292165   9.444   2.163   3.481 -0.3453 -2.7826  0.5893
61684SOL     OW92166   1.353   9.652   8.287  0.3038  0.7598  0.2562
61684SOL    HW192167   1.287   9.679   8.351 -0.0556 -1.0435  0.6861
61684SOL    HW292168   1.354   9.557   8.292 -0.4352  0.4424 -3.0650
61685SOL     OW92169   7.812   4.229   4.553  0.9267 -0.4806 -0.2524
61685SOL    HW192170   7.750   4.287   4.507  2.8775  1.7352 -0.2617
61685SOL    HW292171   7.813   4.262   4.643  1.3418 -1.1463 -0.0068
61686SOL     OW92172   2.773  12.604   4.690  0.5330  0.7381  0.5328
61686SOL    HW192173   2.825  12.551   4.751  0.8473 -0.6665 -0.8772
61686SOL    HW292174   2.696  12.630   4.740 -0.6474 -2.7484  0.8226
61687SOL     OW92175  12.276   5.261  10.565  0.7424  0.3887  0.1202
61687SOL    HW192176  12.350   5.229  10.616 -0.1288 -0.2458  1.0328
61687SOL    HW292177  12.264   5.197  10.495  0.7494  0.2235  0.2703
61688SOL     OW92178  11.865   5.575   6.290 -0.4090 -0.1467 -0.0571
61688SOL    HW192179  11.827   5.600   6.206 -1.7801  0.6704  0.7722
61688SOL    HW292180  11.899   5.656   6.327  0.7829 -0.6061 -0.0718
61689SOL     OW92181   5.409  11.108   3.651  0.3967 -0.6305 -0.1591
61689SOL    HW192182   5.415  11.193   3.695  0.7657 -0.5041 -0.4421
61689SOL    HW292183   5.365  11.127   3.568  0.0573 -0.7976 -0.0171
61690SOL     OW92184   7.200   3.374  10.523  0.0794 -0.4227  0.6152
61690SOL    HW192185   7.143   3.366  10.447 -0.0325 -0.5053  0.7064
61690SOL    HW292186   7.152   3.331  10.594 -0.0607  0.1401  0.8691
61691SOL     OW92187   0.488  11.516   4.550  0.3182  0.5747 -0.6677
61691SOL    HW192188   0.499  11.513   4.645 -1.3295  0.8464 -0.4314
61691SOL    HW292189   0.486  11.424   4.522  1.7610  0.4999 -0.5965
61692SOL     OW92190   6.477   5.968  11.416  0.2321  0.6032 -0.4206
61692SOL    HW192191   6.540   5.899  11.437  3.1665  3.2343  0.1624
61692SOL    HW292192   6.424   5.977  11.495  0.4970 -0.2519 -0.1307
61693SOL     OW92193   5.801  11.160   4.217 -0.3083  0.5164 -0.1589
61693SOL    HW192194   5.765  11.112   4.142 -0.2941 -0.5434  0.5075
61693SOL    HW292195   5.763  11.118   4.294  0.8899  0.5998  0.5005
61694SOL     OW92196   4.413   8.769   9.955 -0.2235 -0.1777 -0.4598
61694SOL    HW192197   4.334   8.754   9.903 -0.9485 -0.5611  0.7208
61694SOL    HW292198   4.398   8.722  10.036  0.3370  1.4320  0.6341
61695SOL     OW92199   9.613   7.366  11.370 -0.0441 -0.6181  0.5041
61695SOL    HW192200   9.679   7.334  11.309  0.4594 -2.3407  1.8554
61695SOL    HW292201   9.607   7.297  11.437 -0.5502  1.1791  2.4056
61696SOL     OW92202  11.427   9.273   1.486  0.3036  0.0409 -0.3666
61696SOL    HW192203  11.491   9.284   1.416  0.1577  0.1248 -0.4873
61696SOL    HW292204  11.343   9.262   1.440  0.0575  1.0890 -0.1849
61697SOL     OW92205   9.856   3.306   9.660 -0.6710 -0.6011  0.8354
61697SOL    HW192206   9.936   3.357   9.673 -0.5262 -0.0683 -1.7505
61697SOL    HW292207   9.814   3.346   9.585 -1.7893 -2.8107  0.2082
61698SOL     OW92208   9.591   6.761  11.440  0.3923  0.4604  0.3333
61698SOL    HW192209   9.509   6.765  11.488  0.4792 -1.1511  0.6885
61698SOL    HW292210   9.608   6.851  11.413  0.6167  1.6114  3.7829
61699SOL     OW92211  12.927   8.454  12.427  0.2741  0.0137 -0.1422
61699SOL    HW192212  12.934   8.359  12.416  1.6263 -0.1341  1.6710
61699SOL    HW292213  13.003   8.490  12.380  2.3410 -0.1805  2.8141
61700SOL     OW92214   0.054   4.403   0.486  0.2004  0.2521 -0.1397
61700SOL    HW192215  -0.027   4.352   0.497  0.1513 -0.4658 -3.0123
61700SOL    HW292216   0.121   4.337   0.471  0.7851  0.9502 -0.6138
61701SOL     OW92217  11.274   7.611   2.860 -0.1469 -0.3457  0.7375
61701SOL    HW192218  11.316   7.689   2.824 -0.4910 -0.0111  1.0403
61701SOL    HW292219  11.185   7.641   2.882 -0.8417 -1.2543 -0.6930
61702SOL     OW92220   6.279  11.320   8.993  0.1234  0.0788  0.0037
61702SOL    HW192221   6.332  11.361   8.924  0.3252  0.3767  0.3289
61702SOL    HW292222   6.245  11.240   8.953 -1.2699  1.1379 -1.0720
61703SOL     OW92223   7.918   1.806   1.683 -0.5608 -1.0991  0.3831
61703SOL    HW192224   7.931   1.758   1.765 -1.1360 -0.6876  0.7256
61703SOL    HW292225   7.901   1.896   1.710  0.1365 -0.7728 -0.2390
61704SOL     OW92226   4.855   4.403   4.235  0.1568 -0.0312  0.0447
61704SOL    HW192227   4.804   4.333   4.194  0.8761 -1.2072  1.0450
61704SOL    HW292228   4.946   4.374   4.225  0.3590 -0.6549  2.8021
61705SOL     OW92229   5.131   2.299   6.023 -0.3118  0.5057 -0.2277
61705SOL    HW192230   5.186   2.221   6.016  2.0586  2.1316 -0.6779
61705SOL    HW292231   5.168   2.348   6.096 -0.9558  1.8260 -0.7592
61706SOL     OW92232   8.614  10.295  11.195 -0.4270 -0.1169 -0.4033
61706SOL    HW192233   8.685  10.328  11.141 -0.7767 -2.0448 -2.1720
61706SOL    HW292234   8.642  10.206  11.219 -2.2459 -0.9700 -1.2649
61707SOL     OW92235   6.588   9.976   0.603  0.2386  0.0202  0.3145
61707SOL    HW192236   6.590   9.985   0.508 -0.6859 -0.2993  0.2572
61707SOL    HW292237   6.676  10.001   0.631  0.6053 -0.1411 -0.6466
61708SOL     OW92238   9.464   4.635  10.811  0.1727 -0.1741  0.4019
61708SOL    HW192239   9.405   4.708  10.828  0.8945  0.5079  0.0227
61708SOL    HW292240   9.412   4.573  10.760 -0.4242  0.1095  0.6673
61709SOL     OW92241   0.369  10.307   6.764 -0.1096  1.1793 -0.3298
61709SOL    HW192242   0.302  10.329   6.700 -0.8501 -0.6424 -0.2422
61709SOL    HW292243   0.340  10.349   6.845 -1.7265 -0.3849 -0.0425
61710SOL     OW92244   2.863   6.284  11.578 -0.5729  0.1174  0.1046
61710SOL    HW192245   2.943   6.280  11.525 -1.7692  0.1833 -1.8044
61710SOL    HW292246   2.892   6.262  11.667  1.4123 -0.7104 -0.6813
61711SOL     OW92247  12.319   5.610   4.241 -0.1274 -0.0743 -0.6818
61711SOL    HW192248  12.250   5.608   4.174 -0.2078 -2.6001 -0.6033
61711SOL    HW292249  12.391   5.561   4.202 -0.0418 -1.2797  0.9313
61712SOL     OW92250   8.800   8.569   4.192  0.1717 -0.1727 -0.2367
61712SOL    HW192251   8.785   8.546   4.101 -0.6702  0.5079 -0.2901
61712SOL    HW292252   8.806   8.665   4.192  2.8202 -0.2802  0.0690
61713SOL     OW92253   5.611  11.104  12.899 -0.0435 -0.2828  0.1743
61713SOL    HW192254   5.680  11.157  12.859 -0.3278  0.0465  0.1134
61713SOL    HW292255   5.595  11.033  12.836 -1.1148  0.7311 -0.7515
61714SOL     OW92256   5.610   5.492   2.620 -0.4779  0.1771 -0.0347
61714SOL    HW192257   5.684   5.509   2.679  0.6014 -0.3867 -1.1727
61714SOL    HW292258   5.602   5.572   2.569  1.7056 -0.9104 -2.3224
61715SOL     OW92259   5.753   6.370   5.098 -0.3882 -0.3080 -0.7283
61715SOL    HW192260   5.771   6.464   5.100 -0.3316 -0.2916 -1.7078
61715SOL    HW292261   5.839   6.329   5.096 -0.3579 -0.4617  1.3922
61716SOL     OW92262  11.244   5.157   7.698 -0.3679 -0.2699  0.1319
61716SOL    HW192263  11.312   5.137   7.763  0.5253  1.1817 -0.3145
61716SOL    HW292264  11.291   5.165   7.615 -1.1443  0.2804 -0.2730
61717SOL     OW92265   2.359   4.767   1.215  0.2493  0.7535  0.1517
61717SOL    HW192266   2.361   4.694   1.154 -0.4502  1.5630 -0.8869
61717SOL    HW292267   2.333   4.842   1.162  1.2474  1.8311  1.1168
61718SOL     OW92268  11.993   2.156   0.107  0.0015 -0.7011  0.2303
61718SOL    HW192269  12.041   2.074   0.114  0.1652 -1.1136 -3.4529
61718SOL    HW292270  11.904   2.130   0.083 -0.8791  0.1866  2.2901
61719SOL     OW92271   8.928  12.661   2.077  0.2792  0.4908 -0.0481
61719SOL    HW192272   8.956  12.728   2.138  0.5492  1.4302 -1.1675
61719SOL    HW292273   8.949  12.696   1.990 -1.1718 -0.2695 -0.7601
61720SOL     OW92274   6.307  12.041   6.559 -0.6716  1.2339 -0.1184
61720SOL    HW192275   6.236  12.027   6.496 -0.4399  1.4088 -0.4254
61720SOL    HW292276   6.287  11.983   6.632 -0.3091  0.1149 -0.8846
61721SOL     OW92277  10.868   6.227  12.015 -0.0924 -0.4103 -0.3483
61721SOL    HW192278  10.853   6.143  11.971 -0.7249 -0.2095 -0.5252
61721SOL    HW292279  10.909   6.203  12.098 -1.0050 -0.9602 -0.0404
61722SOL     OW92280   8.952   5.989   0.346  0.2651 -0.2037 -0.5584
61722SOL    HW192281   8.890   6.062   0.344  0.7690  0.2166 -1.2186
61722SOL    HW292282   8.897   5.911   0.349 -0.2878  0.2060  1.3153
61723SOL     OW92283   3.395   2.117   1.515 -0.1439 -0.1849 -0.2647
61723SOL    HW192284   3.360   2.123   1.604 -0.6793 -0.2483 -0.4640
61723SOL    HW292285   3.432   2.204   1.497  0.3982 -0.3200  0.1919
61724SOL     OW92286   2.990   5.834  12.257 -0.7708  0.4649  0.3103
61724SOL    HW192287   2.923   5.825  12.325 -0.6069 -1.5887  0.2759
61724SOL    HW292288   3.042   5.754  12.264 -0.1324  0.6664 -1.5788
61725SOL     OW92289   0.123   7.150  11.511  0.2998  0.2215 -0.2329
61725SOL    HW192290   0.099   7.180  11.423 -1.1013  0.5867  0.2554
61725SOL    HW292291   0.086   7.062  11.517 -0.5523  0.6060  0.3557
61726SOL     OW92292   9.951   9.804   5.704 -0.1707  0.0645  0.4758
61726SOL    HW192293  10.016   9.795   5.633  0.9658  0.8803  1.3744
61726SOL    HW292294   9.873   9.836   5.660 -0.9089 -3.3561 -1.0691
61727SOL     OW92295   7.494   5.115   4.713 -0.3936 -0.0537 -0.3328
61727SOL    HW192296   7.579   5.139   4.751  0.3225 -2.3396 -0.3247
61727SOL    HW292297   7.507   5.124   4.618 -0.0749 -0.5408 -0.3397
61728SOL     OW92298   6.733   9.038   4.253 -0.6325 -0.1699  0.4118
61728SOL    HW192299   6.818   8.994   4.259  0.0145  0.8812 -0.5586
61728SOL    HW292300   6.721   9.055   4.160 -1.1075  1.1863  0.6902
61729SOL     OW92301   8.033  11.660   0.485 -0.1360  0.1001  0.1103
61729SOL    HW192302   8.032  11.702   0.571 -0.3857 -2.4862  1.4621
61729SOL    HW292303   8.125  11.644   0.467 -0.1945 -2.5232  1.6537
61730SOL     OW92304   6.935   7.246  11.626 -0.1592 -0.3297  0.4218
61730SOL    HW192305   6.905   7.229  11.537  0.6545 -1.3388  0.3287
61730SOL    HW292306   6.903   7.172  11.677  2.1100 -1.4710  0.3161
61731SOL     OW92307  11.725   4.804  12.894  0.5585 -0.5720 -0.0456
61731SOL    HW192308  11.667   4.869  12.934  0.1391 -0.4129 -0.8703
61731SOL    HW292309  11.809   4.815  12.938  0.0566 -0.5539  0.9174
61732SOL     OW92310   9.153   5.981   5.588  0.2029 -0.0110 -0.2176
61732SOL    HW192311   9.205   5.913   5.546  2.0988  0.9310  0.4782
61732SOL    HW292312   9.172   6.061   5.539  0.0741  0.5133  0.5580
61733SOL     OW92313  12.404   4.278  10.645 -0.2491 -0.1758  0.3065
61733SOL    HW192314  12.422   4.366  10.614  1.7243 -0.6655 -0.0789
61733SOL    HW292315  12.319   4.285  10.690 -0.7180  1.6214 -0.7605
61734SOL     OW92316   1.151   2.005   6.680 -0.5232 -0.0677 -0.5462
61734SOL    HW192317   1.216   1.935   6.674  0.5212  0.7343  0.7172
61734SOL    HW292318   1.193   2.072   6.734 -2.8285 -0.0150  1.3500
61735SOL     OW92319   5.374   1.077   5.271  0.0441 -0.4953  1.2057
61735SOL    HW192320   5.406   1.028   5.346 -0.7567 -1.0204  1.2197
61735SOL    HW292321   5.448   1.082   5.211  0.5129 -0.5836  1.7758
61736SOL     OW92322   6.738   1.754   9.813 -0.0427  0.0189 -0.0989
61736SOL    HW192323   6.645   1.736   9.798  0.2245  0.2007 -2.3466
61736SOL    HW292324   6.739   1.844   9.847 -0.7306 -0.4192  1.1448
61737SOL     OW92325  11.779  12.125  12.316 -0.1354  0.3784  0.0210
61737SOL    HW192326  11.735  12.210  12.313  1.1638  1.0534 -1.4545
61737SOL    HW292327  11.848  12.135  12.381 -0.2141  0.3420  0.1095
61738SOL     OW92328   9.883   5.668   9.347  0.3609 -0.7762  0.2444
61738SOL    HW192329   9.959   5.724   9.337 -0.8569  0.8948 -0.0791
61738SOL    HW292330   9.811   5.718   9.308 -0.2523 -3.9042 -3.2140
61739SOL     OW92331   8.767   5.521  11.563  0.0593  0.2327 -0.3889
61739SOL    HW192332   8.712   5.591  11.599 -2.3379 -1.2732 -0.8738
61739SOL    HW292333   8.751   5.525  11.469  2.4588  1.0334 -0.8283
61740SOL     OW92334   5.913   0.604  12.619 -0.4507 -0.1356 -0.6591
61740SOL    HW192335   5.905   0.512  12.643  0.2710 -0.3322 -1.1296
61740SOL    HW292336   5.947   0.647  12.697  2.0173 -0.7918 -1.2819
61741SOL     OW92337   9.601   1.119  12.205 -0.7819 -0.1457  0.5441
61741SOL    HW192338   9.694   1.141  12.199 -0.8561 -0.1764 -1.2630
61741SOL    HW292339   9.571   1.163  12.284  0.1924  2.1219 -0.2596
61742SOL     OW92340   7.297   5.831   5.248 -0.7915 -0.2840  0.2410
61742SOL    HW192341   7.212   5.872   5.266 -0.1004  1.4345 -0.1997
61742SOL    HW292342   7.332   5.880   5.174 -0.3920 -2.4852 -1.1207
61743SOL     OW92343  10.101   9.071   4.046 -0.0426  0.0101 -0.0009
61743SOL    HW192344  10.127   9.145   4.101 -0.6950  1.1730 -1.2184
61743SOL    HW292345  10.102   9.105   3.957 -2.5228 -0.7961 -0.4178
61744SOL     OW92346   6.267   1.537   8.937 -0.5376  0.1539 -0.0525
61744SOL    HW192347   6.233   1.528   9.026  0.2915 -2.7243  0.0442
61744SOL    HW292348   6.353   1.497   8.940  0.7587  2.5804 -1.5478
61745SOL     OW92349   4.650   7.021   6.197 -0.4437  0.0751 -0.0168
61745SOL    HW192350   4.648   7.022   6.293  0.4584  1.1599  0.0187
61745SOL    HW292351   4.642   7.113   6.172  0.3824 -0.0813 -0.9404
61746SOL     OW92352  12.923   6.150   0.230 -0.2454  0.0652 -0.6441
61746SOL    HW192353  12.928   6.230   0.178  2.3074  2.4605  2.8297
61746SOL    HW292354  13.012   6.116   0.230 -0.8297 -1.5563 -0.2410
61747SOL     OW92355  11.888  11.089   5.523 -0.4712  0.3354  0.6092
61747SOL    HW192356  11.801  11.126   5.508 -0.2675  0.9732  0.9782
61747SOL    HW292357  11.934  11.105   5.441 -0.9340 -0.6976  0.1303
61748SOL     OW92358   8.893   6.091   4.793 -0.2096  0.0431  0.3609
61748SOL    HW192359   8.944   6.082   4.873  0.4556  0.8961  0.0472
61748SOL    HW292360   8.915   6.014   4.740 -0.5617 -0.4601  0.9455
61749SOL     OW92361   3.486   7.241   7.014 -0.1222 -0.0608 -0.0348
61749SOL    HW192362   3.528   7.177   6.956  0.7181 -0.1101  0.6189
61749SOL    HW292363   3.442   7.302   6.954  1.4423  0.3815 -0.7776
61750SOL     OW92364   9.886   8.711  12.254 -0.3106 -0.4832 -0.2143
61750SOL    HW192365   9.856   8.802  12.258  0.3119 -0.2294  4.7682
61750SOL    HW292366   9.981   8.716  12.269  0.3404 -1.9596 -2.9945
61751SOL     OW92367   8.919   9.526   1.593  0.2078  0.2406 -0.0457
61751SOL    HW192368   8.944   9.470   1.666 -0.2635 -0.3155 -0.3050
61751SOL    HW292369   8.827   9.548   1.609  0.4775  1.2326  0.2340
61752SOL     OW92370   4.177   1.606   4.917  0.0255 -0.0534  0.4353
61752SOL    HW192371   4.208   1.688   4.878  1.0738  0.1637  1.6915
61752SOL    HW292372   4.246   1.543   4.899 -0.5906 -0.5810 -0.1553
61753SOL     OW92373  10.860  12.519   8.989  0.3458 -0.0903  0.2211
61753SOL    HW192374  10.886  12.540   9.079 -0.6998  0.8337  0.3350
61753SOL    HW292375  10.819  12.599   8.957  1.9767  0.0857 -1.6010
61754SOL     OW92376   7.446   8.756   5.438 -0.2812 -0.3955 -1.0484
61754SOL    HW192377   7.395   8.730   5.361  0.0103  1.9094 -2.1070
61754SOL    HW292378   7.536   8.761   5.407  0.3484 -2.3530  0.2708
61755SOL     OW92379   6.024   5.112   7.732  0.3004 -0.0075 -0.1814
61755SOL    HW192380   5.953   5.093   7.671  0.2440  0.7798 -0.3694
61755SOL    HW292381   6.011   5.204   7.757  1.6007  0.3399 -0.6957
61756SOL     OW92382   0.095   7.432   4.727 -0.1215 -0.5071  0.0787
61756SOL    HW192383   0.138   7.377   4.793 -1.7994 -0.3835  1.3428
61756SOL    HW292384   0.135   7.518   4.737  1.5413 -1.1127 -0.9635
61757SOL     OW92385  10.710   5.334   1.893 -0.0098 -0.4482  0.1648
61757SOL    HW192386  10.757   5.335   1.977  1.1226  1.0086 -0.4479
61757SOL    HW292387  10.619   5.320   1.918  0.1192  1.1516  1.7805
61758SOL     OW92388  10.553   7.028   0.503  0.3941  0.0849 -0.0953
61758SOL    HW192389  10.600   7.005   0.423 -0.8279  0.4830 -0.9678
61758SOL    HW292390  10.510   6.946   0.529 -1.9267  0.6703 -1.7897
61759SOL     OW92391  10.225   4.963   4.799  0.1765 -0.1151 -0.8645
61759SOL    HW192392  10.146   4.945   4.747  0.7213 -0.7770 -1.4885
61759SOL    HW292393  10.289   4.900   4.767  0.4890 -0.6690  0.7338
61760SOL     OW92394   8.147   2.168   6.610  0.7393 -0.1043  0.8659
61760SOL    HW192395   8.193   2.184   6.528 -0.9924 -1.4585 -0.4608
61760SOL    HW292396   8.199   2.100   6.653  1.3883  0.2509  0.6557
61761SOL     OW92397   0.718  12.419   7.842 -0.1878  0.1846 -0.2178
61761SOL    HW192398   0.693  12.333   7.807  2.3782 -1.1726  0.9690
61761SOL    HW292399   0.808  12.407   7.872  0.1668  3.2600  0.2573
61762SOL     OW92400   7.763   6.203   3.635 -0.0554 -0.3359  0.1721
61762SOL    HW192401   7.670   6.223   3.641 -0.5686 -2.1949 -1.0210
61762SOL    HW292402   7.779   6.140   3.705 -0.5933 -2.9127 -1.8836
61763SOL     OW92403   1.191  12.491   2.424  0.4983 -0.0692  0.0837
61763SOL    HW192404   1.145  12.575   2.432  2.2663  1.0179 -0.4522
61763SOL    HW292405   1.276  12.507   2.467  0.1465 -2.2307  1.7509
61764SOL     OW92406   4.515   2.552   0.809 -0.2159  0.4368  0.5670
61764SOL    HW192407   4.576   2.479   0.803 -1.5257 -0.8864  2.1677
61764SOL    HW292408   4.472   2.555   0.723  1.7188  1.1246 -0.4331
61765SOL     OW92409   5.157   6.927   0.927 -0.1323 -0.2509 -0.0751
61765SOL    HW192410   5.108   6.852   0.963 -0.1018 -0.3424 -0.2256
61765SOL    HW292411   5.186   6.898   0.841 -2.2486  0.8125 -1.2298
61766SOL     OW92412   3.354   4.544   3.235 -0.6569  0.4020  0.3003
61766SOL    HW192413   3.267   4.505   3.243 -0.1495 -0.9863 -0.6438
61766SOL    HW292414   3.396   4.496   3.163  0.5787  1.6347  0.1535
61767SOL     OW92415   8.984   1.096  11.509 -0.5283 -0.5071  0.0778
61767SOL    HW192416   8.954   1.171  11.561 -0.2309 -0.8168  0.7044
61767SOL    HW292417   9.059   1.061  11.558 -0.9796 -1.5226  0.0586
61768SOL     OW92418   9.716   2.985  12.552 -0.8934 -0.0571  0.8701
61768SOL    HW192419   9.740   3.074  12.581 -1.6219 -0.4181  2.7160
61768SOL    HW292420   9.797   2.936  12.556 -0.5564  0.4275  0.1913
61769SOL     OW92421   8.328   0.139   2.373  0.1452  0.2800  0.2775
61769SOL    HW192422   8.318   0.052   2.335  2.1533 -0.0243  0.3496
61769SOL    HW292423   8.261   0.143   2.442 -0.6233 -0.8062 -0.3745
61770SOL     OW92424   6.648   0.605   1.383  0.0242  0.6598 -0.4893
61770SOL    HW192425   6.741   0.616   1.366  0.0708  3.4375  0.8782
61770SOL    HW292426   6.607   0.682   1.342 -1.3587  0.6089  0.7087
61771SOL     OW92427  12.479   2.435   9.927 -0.0495 -0.3893 -0.0264
61771SOL    HW192428  12.512   2.502   9.867 -0.9930  0.4312  0.3467
61771SOL    HW292429  12.389   2.420   9.900  0.2420 -1.7709 -0.3101
61772SOL     OW92430   7.725  10.296   1.152  0.4081  0.5081 -0.5379
61772SOL    HW192431   7.708  10.390   1.156 -1.2769  0.2513 -0.7769
61772SOL    HW292432   7.717  10.274   1.059  0.6279  0.1102 -0.4652
61773SOL     OW92433   3.673  11.606   4.114 -0.1546  0.1619  0.4903
61773SOL    HW192434   3.651  11.561   4.196 -0.6814  0.9187  0.7719
61773SOL    HW292435   3.756  11.567   4.087 -1.3687 -2.1701 -0.1572
61774SOL     OW92436   2.962   7.303  12.884 -0.6223  0.2991  0.0217
61774SOL    HW192437   3.006   7.385  12.906 -0.2881  0.2390 -0.4148
61774SOL    HW292438   3.011   7.269  12.809 -0.8563 -0.2190  0.1008
61775SOL     OW92439   8.945   3.999   5.404 -0.5859  0.3063  0.0869
61775SOL    HW192440   8.908   4.018   5.490  0.3996 -0.5864  0.7270
61775SOL    HW292441   8.997   4.076   5.382 -2.0416  1.1769 -0.4075
61776SOL     OW92442   9.188  12.495   2.722  0.3080  0.5364 -0.2078
61776SOL    HW192443   9.251  12.526   2.787  0.5720 -0.9212  0.2635
61776SOL    HW292444   9.107  12.483   2.772  0.3824 -0.1253 -0.2310
61777SOL     OW92445   8.851   6.566   0.555  0.1381 -0.0550  0.0902
61777SOL    HW192446   8.758   6.559   0.575 -0.0402  0.7774 -0.3920
61777SOL    HW292447   8.890   6.605   0.633  0.0685 -0.3441  0.2681
61778SOL     OW92448  11.635   9.253   5.284 -0.7188 -0.0293  0.2063
61778SOL    HW192449  11.690   9.207   5.221  0.3279 -0.9347  1.7233
61778SOL    HW292450  11.567   9.190   5.309 -0.8966  0.1834  0.2674
61779SOL     OW92451  12.146   4.906   5.026  0.2284  0.7196 -0.1393
61779SOL    HW192452  12.181   4.909   4.937 -0.2125 -3.0112 -0.6095
61779SOL    HW292453  12.222   4.920   5.082  0.7474  1.7768 -1.0701
61780SOL     OW92454  11.188  12.616   1.438  0.0689 -0.1537 -0.8975
61780SOL    HW192455  11.275  12.589   1.468 -0.0500 -1.0719 -1.3473
61780SOL    HW292456  11.202  12.702   1.398  0.8387 -0.4441 -1.2756
61781SOL     OW92457  11.828  12.368   2.710 -0.1218 -0.1728 -0.6019
61781SOL    HW192458  11.870  12.451   2.689 -0.2045 -0.1217 -0.5629
61781SOL    HW292459  11.744  12.392   2.749  1.3840 -0.1043  2.9953
61782SOL     OW92460   8.102  12.944   6.676 -0.0501  0.2857 -0.2399
61782SOL    HW192461   8.191  12.956   6.707  0.5955 -0.5896 -1.6620
61782SOL    HW292462   8.108  12.948   6.581 -1.3441 -0.8562 -0.4119
61783SOL     OW92463   5.021   0.018   2.375 -0.3936  0.3437 -0.2201
61783SOL    HW192464   5.050  -0.072   2.388 -0.4305 -0.0126 -2.3529
61783SOL    HW292465   4.927   0.015   2.392 -0.8712 -0.6125 -2.6659
61784SOL     OW92466   2.731   4.365  11.855  0.4923  0.1918  0.1557
61784SOL    HW192467   2.766   4.338  11.770 -1.4828  0.8265 -0.9285
61784SOL    HW292468   2.717   4.283  11.902 -0.6511 -0.3610 -1.0941
61785SOL     OW92469   2.312   4.500  10.474 -0.3493 -0.0101  0.0248
61785SOL    HW192470   2.356   4.437  10.415 -2.0850  0.4903 -1.9230
61785SOL    HW292471   2.255   4.445  10.528 -1.9204 -0.2213 -1.7214
61786SOL     OW92472  10.011   6.602   2.814  0.1633  0.0695 -0.9235
61786SOL    HW192473  10.066   6.525   2.795 -0.8995 -0.4583 -1.9989
61786SOL    HW292474   9.947   6.570   2.878  0.9211  0.6125  0.1279
61787SOL     OW92475   9.936   5.327  12.959 -0.5076 -0.7413  0.2830
61787SOL    HW192476   9.939   5.263  13.029  1.8675 -0.2782  0.7093
61787SOL    HW292477   9.863   5.300  12.904 -1.2139 -2.2345  1.8772
61788SOL     OW92478   2.286   6.751   9.163  0.1122 -0.2592  0.4992
61788SOL    HW192479   2.284   6.745   9.259  1.4792  0.2001  0.5782
61788SOL    HW292480   2.371   6.717   9.138 -1.2672 -3.0545 -0.8236
61789SOL     OW92481   8.370  11.572   6.008  0.0671 -0.2792  0.3426
61789SOL    HW192482   8.446  11.627   5.991  1.0775 -1.1540  1.7762
61789SOL    HW292483   8.324  11.617   6.079 -1.0820  0.5244 -0.8759
61790SOL     OW92484   0.824   3.860   2.146 -0.3304  0.1615  0.6510
61790SOL    HW192485   0.739   3.856   2.190 -0.1974 -1.8355  0.8053
61790SOL    HW292486   0.887   3.836   2.213 -0.1851 -3.7341 -0.6046
61791SOL     OW92487  10.337   7.809   7.572 -0.3882  0.0113 -0.0384
61791SOL    HW192488  10.423   7.767   7.575  0.9328  2.4413 -1.0287
61791SOL    HW292489  10.284   7.751   7.517  0.8437 -1.1062 -0.0960
61792SOL     OW92490   2.100   6.262   2.902 -0.1876 -0.6541  0.2016
61792SOL    HW192491   2.094   6.279   2.808  2.8548 -1.2521 -0.1812
61792SOL    HW292492   2.140   6.176   2.909 -1.2276 -1.0428  2.0990
61793SOL     OW92493   0.861   9.972   3.349 -0.2757  0.1078 -0.0553
61793SOL    HW192494   0.823  10.021   3.422 -1.4250 -0.3235 -0.3332
61793SOL    HW292495   0.788   9.962   3.287  0.4420 -0.3108 -0.8545
61794SOL     OW92496   3.336   7.681   2.542 -0.6750  0.0715 -0.7217
61794SOL    HW192497   3.394   7.605   2.542 -0.7600  0.0013 -1.5693
61794SOL    HW292498   3.357   7.727   2.461  1.1305  2.2975  0.8455
61795SOL     OW92499   4.818   0.021   5.096  0.0854  0.3404  0.2562
61795SOL    HW192500   4.743  -0.036   5.112 -0.0297  0.6076  0.6596
61795SOL    HW292501   4.809   0.092   5.159 -0.3825  1.4204 -0.9826
61796SOL     OW92502  11.575   9.164  10.202  0.0216 -0.3061  0.4250
61796SOL    HW192503  11.633   9.198  10.134  0.3464 -1.7020 -0.0281
61796SOL    HW292504  11.577   9.231  10.271  0.6716  0.5443 -0.3849
61797SOL     OW92505  11.161   0.211   0.428  0.2623  0.1002  0.0825
61797SOL    HW192506  11.243   0.225   0.381 -0.3529 -0.8512 -1.3507
61797SOL    HW292507  11.127   0.299   0.443  1.2907  0.4828  0.2324
61798SOL     OW92508   0.465   1.548   9.692  0.3538 -0.0733  0.1677
61798SOL    HW192509   0.478   1.585   9.779 -0.9727  0.0808  0.3300
61798SOL    HW292510   0.536   1.585   9.639  0.6407  0.5481  0.9672
61799SOL     OW92511   5.542   2.248   2.840 -0.6240 -0.0435  0.3757
61799SOL    HW192512   5.629   2.288   2.850 -1.4255  1.8043  0.5045
61799SOL    HW292513   5.557   2.154   2.850  1.0891  0.3582  2.3614
61800SOL     OW92514   4.432   1.298   7.593  0.1011  0.1732  0.3341
61800SOL    HW192515   4.517   1.274   7.557 -0.7483 -1.6722 -0.5751
61800SOL    HW292516   4.368   1.261   7.532 -1.3683  1.6689  0.8889
61801SOL     OW92517   1.461  10.704   0.308  0.1127  0.6525 -0.1114
61801SOL    HW192518   1.374  10.695   0.346 -1.0761  1.9316 -2.3370
61801SOL    HW292519   1.499  10.616   0.316 -1.7545 -0.2007  0.0602
61802SOL     OW92520  12.728   8.924  11.061 -0.8473  0.4861  0.4801
61802SOL    HW192521  12.638   8.897  11.078  0.1020 -1.6736  2.5840
61802SOL    HW292522  12.755   8.971  11.140  0.3352 -0.2428  0.5340
61803SOL     OW92523   1.711   9.915   1.863  0.5545  0.1257 -0.0999
61803SOL    HW192524   1.698   9.998   1.817  1.8418  0.1121 -0.5323
61803SOL    HW292525   1.681   9.848   1.800 -1.5688  0.2771  0.6801
61804SOL     OW92526  11.298   9.229  12.488  0.0603  0.2118 -0.1562
61804SOL    HW192527  11.294   9.160  12.422  0.6128  1.1903 -1.2686
61804SOL    HW292528  11.353   9.297  12.448  0.5242  0.7836  1.3788
61805SOL     OW92529   0.644   0.274   8.053 -0.1279  0.2159  0.3748
61805SOL    HW192530   0.719   0.326   8.024  1.0432 -0.7222  1.5836
61805SOL    HW292531   0.669   0.242   8.140 -1.3239 -1.3359  0.1892
61806SOL     OW92532  10.256   3.774  12.356  0.1269 -0.4392  1.2862
61806SOL    HW192533  10.250   3.841  12.424 -0.3774  1.1188 -0.2245
61806SOL    HW292534  10.330   3.801  12.302 -1.3123  0.1064 -0.5228
61807SOL     OW92535   5.098   1.754   4.500 -0.2631 -0.1568  0.3401
61807SOL    HW192536   5.159   1.687   4.532 -0.2580 -0.6594 -0.6815
61807SOL    HW292537   5.075   1.804   4.578 -0.9314 -1.8770  1.2997
61808SOL     OW92538   5.688  11.274   1.487  0.5291 -0.1535  0.4723
61808SOL    HW192539   5.697  11.239   1.398  0.1349  0.8827  0.0113
61808SOL    HW292540   5.602  11.244   1.515  0.1443  0.5171  0.0352
61809SOL     OW92541   3.437   4.271   9.507  0.1151 -0.0837 -0.3006
61809SOL    HW192542   3.479   4.185   9.508  1.8236  0.6598  2.6580
61809SOL    HW292543   3.391   4.277   9.590  0.2485  1.9455 -0.3147
61810SOL     OW92544   9.467  12.035  10.876  0.2104  0.4053  0.5849
61810SOL    HW192545   9.486  11.952  10.918  0.3276 -0.2068 -0.6440
61810SOL    HW292546   9.525  12.038  10.800 -0.0013  1.4778  0.4441
61811SOL     OW92547  12.802   7.508   5.010 -0.3081  0.5047 -0.1972
61811SOL    HW192548  12.722   7.498   5.062  0.1314 -0.5610  0.3129
61811SOL    HW292549  12.771   7.524   4.921 -1.1657 -1.7626 -0.3856
61812SOL     OW92550   3.778   2.463   1.210 -0.2836 -0.3408  0.0046
61812SOL    HW192551   3.801   2.370   1.207 -0.7527 -0.4454 -0.5956
61812SOL    HW292552   3.859   2.508   1.185 -0.0083 -0.5779  0.4585
61813SOL     OW92553  10.205   8.682   3.589 -0.7449 -0.5760  0.3983
61813SOL    HW192554  10.149   8.605   3.575 -0.6958 -0.8141  1.4161
61813SOL    HW292555  10.292   8.654   3.561 -0.3639 -1.5000  2.3657
61814SOL     OW92556  12.197   5.745   4.592  0.3152 -0.2813 -0.0748
61814SOL    HW192557  12.161   5.675   4.647  2.1585 -0.6449  0.7737
61814SOL    HW292558  12.198   5.822   4.649  0.5648 -0.1938 -0.1971
61815SOL     OW92559  12.583   8.346   0.037  0.2662  0.3409  0.0624
61815SOL    HW192560  12.620   8.434   0.038  1.1206 -0.0030  0.9352
61815SOL    HW292561  12.580   8.320   0.129 -1.1805 -0.0661 -0.0769
61816SOL     OW92562   6.897  12.116   7.908 -0.3282  0.0601  0.2906
61816SOL    HW192563   6.920  12.186   7.969  0.9808  1.0214 -1.2380
61816SOL    HW292564   6.869  12.161   7.828  0.0052 -1.1495 -0.5365
61817SOL     OW92565   7.694   1.403   3.797  0.8729  0.1289  0.9051
61817SOL    HW192566   7.726   1.324   3.754  1.3740  1.4038 -1.2393
61817SOL    HW292567   7.764   1.429   3.856  1.6870  0.1806 -0.0678
61818SOL     OW92568   6.906   2.883   5.601  0.2297 -0.2762  0.2832
61818SOL    HW192569   6.811   2.876   5.604 -0.0006  0.6542 -2.5878
61818SOL    HW292570   6.926   2.963   5.650 -0.2039 -1.4359  2.5107
61819SOL     OW92571   0.101   6.257   3.368 -0.7329 -0.1225  0.0516
61819SOL    HW192572   0.157   6.309   3.427 -1.0244 -0.6102  0.7680
61819SOL    HW292573   0.098   6.308   3.287 -0.1623  0.4616  0.3891
61820SOL     OW92574   4.544  11.596   5.298  0.3214 -0.2517 -0.4490
61820SOL    HW192575   4.500  11.613   5.215 -0.6056  0.2487  0.1326
61820SOL    HW292576   4.628  11.642   5.290 -0.9519  2.3313 -0.0169
61821SOL     OW92577   9.673  10.062   2.380 -0.2540  0.1301 -0.4836
61821SOL    HW192578   9.742  10.113   2.339 -0.2740  0.9395  0.4662
61821SOL    HW292579   9.597  10.074   2.322 -1.1195  3.5703  1.0952
61822SOL     OW92580   3.449   7.141  10.422 -0.2149  0.2321  0.0624
61822SOL    HW192581   3.376   7.113  10.477  0.2636 -0.7788  0.1971
61822SOL    HW292582   3.407   7.183  10.346 -0.9576 -0.7310 -0.0726
61823SOL     OW92583   9.713  11.107   2.344 -0.0245 -0.2786 -0.1757
61823SOL    HW192584   9.801  11.092   2.376  0.3972  0.1517 -1.1043
61823SOL    HW292585   9.685  11.022   2.310  1.8245  0.4484 -4.1282
61824SOL     OW92586  12.067   9.234   7.442 -0.3576  0.5688 -0.0447
61824SOL    HW192587  12.099   9.206   7.356  0.8535 -0.6804  0.7627
61824SOL    HW292588  11.975   9.208   7.444 -0.4169  0.6791 -0.9835
61825SOL     OW92589  12.052   9.331  11.743 -0.0671 -0.1575  0.3400
61825SOL    HW192590  12.015   9.411  11.779 -1.7831 -0.6529 -0.2308
61825SOL    HW292591  12.135   9.320  11.790  0.1929  1.8973  0.4627
61826SOL     OW92592   4.779   4.070   5.713 -0.2463 -0.8751 -0.1592
61826SOL    HW192593   4.865   4.028   5.722 -0.5062 -1.3185  0.3011
61826SOL    HW292594   4.720   4.015   5.764 -0.3521  0.7877  1.5909
61827SOL     OW92595   7.009  11.227  10.076 -0.0130  0.2003  0.0307
61827SOL    HW192596   7.048  11.217  10.163 -0.6148 -0.1071  0.2690
61827SOL    HW292597   7.075  11.275  10.026 -0.1749  1.5091  1.0184
61828SOL     OW92598   0.948   7.571   4.760 -0.4878  0.4188  0.1089
61828SOL    HW192599   0.881   7.554   4.825 -0.0319  1.6837  0.9384
61828SOL    HW292600   0.901   7.611   4.686 -0.7488  0.6387  0.3951
61829SOL     OW92601   7.950   2.460   9.681 -0.2506 -0.1299  0.4378
61829SOL    HW192602   7.932   2.508   9.762 -0.1596  0.0393  0.3586
61829SOL    HW292603   7.864   2.448   9.641 -0.2392  0.2796  0.2836
61830SOL     OW92604  12.263   7.049   0.952 -0.0068 -0.0267  0.0629
61830SOL    HW192605  12.296   7.075   1.039  1.2104  0.7871 -0.5986
61830SOL    HW292606  12.332   6.992   0.917 -0.5097 -0.3800 -0.3556
61831SOL     OW92607  11.018  10.023  10.624 -0.2886  0.0604  0.1926
61831SOL    HW192608  11.085   9.997  10.561  0.3209 -1.0892  1.2760
61831SOL    HW292609  11.067  10.064  10.695 -0.7405 -0.6863  0.9430
61832SOL     OW92610  10.410  10.013   5.043 -0.0105 -0.4152 -0.4920
61832SOL    HW192611  10.391   9.994   4.951  0.0887 -2.2416 -0.1573
61832SOL    HW292612  10.482   9.955   5.065  0.7750  0.8588  0.4352
61833SOL     OW92613  11.335   3.869   5.770  0.3864  0.0613 -0.2311
61833SOL    HW192614  11.301   3.780   5.759  1.6033 -0.4546  0.0649
61833SOL    HW292615  11.302   3.917   5.694 -0.8351 -0.4535 -0.0460
61834SOL     OW92616  10.504   5.261   4.449  0.6185  0.7811 -0.1261
61834SOL    HW192617  10.546   5.177   4.468  0.2965  0.5064 -0.5923
61834SOL    HW292618  10.445   5.242   4.376 -0.4576  1.1131  0.6320
61835SOL     OW92619  10.060  10.979   6.579  0.2404 -0.3130 -0.3552
61835SOL    HW192620  10.156  10.981   6.579  0.3257 -1.1232  1.8505
61835SOL    HW292621  10.035  11.013   6.665 -1.4735 -0.0027 -0.9361
61836SOL     OW92622   4.226   4.545  10.022  0.5829 -0.5718  0.7179
61836SOL    HW192623   4.205   4.638  10.018  1.9612 -0.2421  0.5299
61836SOL    HW292624   4.321   4.542  10.009  0.3835 -2.1109 -0.6649
61837SOL     OW92625   7.811  11.354   9.443  0.4133  0.5191 -0.8717
61837SOL    HW192626   7.831  11.407   9.366  0.6585 -0.0180 -1.1823
61837SOL    HW292627   7.740  11.401   9.487  0.1688  0.7486 -1.5027
61838SOL     OW92628   9.368   3.515   9.803  0.2823 -0.6703  0.3474
61838SOL    HW192629   9.463   3.511   9.814  0.3295 -2.6875 -0.3725
61838SOL    HW292630   9.342   3.424   9.786 -1.9975 -0.4879  2.3015
61839SOL     OW92631   8.957  11.668   7.874  0.3483 -0.0838  0.0434
61839SOL    HW192632   8.872  11.706   7.895  0.0312 -0.4917 -0.4492
61839SOL    HW292633   8.973  11.605   7.944 -0.0855 -0.5001 -0.2218
61840SOL     OW92634   8.308   4.566   8.719  0.3230 -0.2436  0.6982
61840SOL    HW192635   8.339   4.564   8.810  2.1542  0.1475  0.1136
61840SOL    HW292636   8.375   4.519   8.670 -1.4102 -1.8388 -0.2803
61841SOL     OW92637   8.414   4.710   1.386 -0.7577  0.1846  0.6657
61841SOL    HW192638   8.369   4.774   1.441  0.4094  1.2445  0.4221
61841SOL    HW292639   8.507   4.732   1.395 -0.1021 -2.7288  2.1479
61842SOL     OW92640   8.871   4.505  12.775  0.0405  0.2657  0.0471
61842SOL    HW192641   8.801   4.440  12.782  0.4313 -0.0834  0.7660
61842SOL    HW292642   8.922   4.477  12.699 -0.8389  0.7680 -0.7480
61843SOL     OW92643   4.568   2.679   8.809 -0.0986  0.1460  0.0121
61843SOL    HW192644   4.590   2.667   8.902  0.2579  0.2368 -0.0594
61843SOL    HW292645   4.516   2.760   8.808  0.4848  0.5284  0.0491
61844SOL     OW92646   8.429  11.824   0.176 -0.1979  0.4600 -0.1844
61844SOL    HW192647   8.335  11.821   0.191 -0.2912 -0.0640 -0.8511
61844SOL    HW292648   8.466  11.849   0.261 -0.9457  0.8630  0.0293
61845SOL     OW92649   1.722   4.082  12.025 -0.0379 -0.1016 -0.0693
61845SOL    HW192650   1.648   4.034  11.987 -1.9699  1.7130  1.1995
61845SOL    HW292651   1.695   4.102  12.114  0.6011  3.3107 -0.4962
61846SOL     OW92652   7.155   4.631   9.323  0.0660 -0.5398  0.4588
61846SOL    HW192653   7.242   4.599   9.300 -0.6637 -2.1286 -0.2786
61846SOL    HW292654   7.137   4.591   9.408 -0.0982 -0.5173  0.4333
61847SOL     OW92655   3.018   8.781   4.858  0.0663  0.8845  0.3667
61847SOL    HW192656   2.924   8.783   4.876  0.1294 -0.6172  0.9626
61847SOL    HW292657   3.047   8.696   4.889  1.5729  1.1801 -0.1427
61848SOL     OW92658  10.321   7.777   5.168 -0.9668  0.2057 -0.6097
61848SOL    HW192659  10.401   7.803   5.213 -1.4489  2.6602 -0.9992
61848SOL    HW292660  10.336   7.687   5.141  1.9653  0.8275 -1.3296
61849SOL     OW92661   3.876   8.004   3.461  0.4073 -0.6093 -0.3831
61849SOL    HW192662   3.826   8.032   3.537  0.3165 -1.1358 -0.2410
61849SOL    HW292663   3.943   8.072   3.449 -0.0102 -0.1758 -0.2581
61850SOL     OW92664   9.635  10.493   2.819 -0.1640  0.2597 -0.4471
61850SOL    HW192665   9.674  10.564   2.769  0.0767  0.9786  0.7119
61850SOL    HW292666   9.656  10.513   2.910 -2.3818  0.1432  0.1629
61851SOL     OW92667  12.846   3.626   0.674  0.4167 -0.3695 -0.2793
61851SOL    HW192668  12.812   3.715   0.666 -1.8895 -1.2057 -0.5894
61851SOL    HW292669  12.869   3.618   0.766  1.0127  0.6517 -0.3193
61852SOL     OW92670   4.207   3.032  12.167  0.5297  0.0214  0.0264
61852SOL    HW192671   4.251   2.993  12.091 -0.2992 -2.9619  0.9430
61852SOL    HW292672   4.189   3.122  12.140  2.8587 -0.0451 -2.1682
61853SOL     OW92673   2.632   1.132   8.699  0.2618 -0.4131  0.3334
61853SOL    HW192674   2.699   1.179   8.747 -0.1614  1.7929 -1.0950
61853SOL    HW292675   2.678   1.059   8.657  1.7854  1.0169 -0.5644
61854SOL     OW92676   4.771   0.943   6.087 -0.1004  0.0892 -0.5407
61854SOL    HW192677   4.727   0.885   6.150  2.3182 -0.7194  0.5195
61854SOL    HW292678   4.736   0.916   6.002 -2.3347  0.1788  0.2684
61855SOL     OW92679   0.801   1.972   4.129  0.2209 -0.1038 -0.1646
61855SOL    HW192680   0.778   2.030   4.201 -1.2200 -0.9884  0.1296
61855SOL    HW292681   0.792   2.027   4.051  1.2679  0.7090  0.2624
61856SOL     OW92682   5.847   8.390   7.387  0.7028 -0.2287  0.2474
61856SOL    HW192683   5.926   8.357   7.429  0.2682 -1.8267 -0.1174
61856SOL    HW292684   5.778   8.375   7.452  0.4983 -0.0672  0.0656
61857SOL     OW92685   8.177   7.149   2.094  0.3594 -0.1230  0.2878
61857SOL    HW192686   8.124   7.072   2.072  0.5307  0.2202 -1.5193
61857SOL    HW292687   8.150   7.215   2.030  1.0780  0.9289  1.0407
61858SOL     OW92688   4.682   1.004   8.050 -0.0177 -0.1799 -0.7042
61858SOL    HW192689   4.609   1.041   8.100  0.0696 -0.3916 -0.4169
61858SOL    HW292690   4.663   1.026   7.959 -0.4853 -0.3063 -0.6391
61859SOL     OW92691   6.808   9.186   5.586 -0.2813  0.4625 -0.0415
61859SOL    HW192692   6.759   9.258   5.547 -4.0213 -2.8165 -2.1376
61859SOL    HW292693   6.889   9.183   5.536 -0.1086  2.9440 -0.0501
61860SOL     OW92694  12.269   7.046   7.927  0.2179 -0.4036  0.1250
61860SOL    HW192695  12.297   7.072   8.015 -1.2868 -0.7415  0.7356
61860SOL    HW292696  12.349   7.049   7.875  1.6203 -2.3650  1.9898
61861SOL     OW92697   9.596   6.646   7.920  0.2023  0.0501  0.0538
61861SOL    HW192698   9.502   6.665   7.925 -0.1467 -1.5901  0.0573
61861SOL    HW292699   9.616   6.655   7.826 -0.1122 -0.2525 -0.0468
61862SOL     OW92700   0.123  10.505   2.933 -0.1417  0.2779 -0.3593
61862SOL    HW192701   0.087  10.417   2.917 -0.7748  0.3971  0.3426
61862SOL    HW292702   0.217  10.490   2.944  0.1744  0.0346 -2.8379
61863SOL     OW92703   8.355  11.579   8.893  0.1989 -0.2413 -0.7527
61863SOL    HW192704   8.391  11.656   8.848 -1.8542  1.9989  1.1169
61863SOL    HW292705   8.414  11.566   8.968 -1.9983  2.8890  1.8194
61864SOL     OW92706   0.602   6.000   9.795  0.3114  0.0007  0.1545
61864SOL    HW192707   0.645   6.074   9.752 -2.4160  0.5387 -2.0177
61864SOL    HW292708   0.586   6.030   9.884  0.6214  1.4415 -0.2408
61865SOL     OW92709  11.159   6.861   2.557 -0.2003  0.6349 -0.0414
61865SOL    HW192710  11.118   6.803   2.621 -1.0659  0.9091 -0.3441
61865SOL    HW292711  11.253   6.850   2.573 -0.3541 -0.5667  0.1466
61866SOL     OW92712   2.168   2.922   2.257  0.4099 -0.2698  0.0119
61866SOL    HW192713   2.153   2.917   2.351  1.9458  0.0799  0.2980
61866SOL    HW292714   2.137   2.838   2.223  0.4119 -0.6462  0.9115
61867SOL     OW92715   6.083   6.243   3.479  0.2059 -0.3484  0.4304
61867SOL    HW192716   6.146   6.172   3.491  0.2496 -0.2697  0.6635
61867SOL    HW292717   6.134   6.323   3.492 -0.3879 -0.2925  2.9741
61868SOL     OW92718   5.347   3.316   0.555 -0.0153 -0.1913  0.2744
61868SOL    HW192719   5.411   3.286   0.619  0.7064 -0.8748 -0.7216
61868SOL    HW292720   5.386   3.396   0.518 -0.6002  0.4061  0.9337
61869SOL     OW92721  10.247   2.317   9.640 -0.4992 -0.1542  0.0197
61869SOL    HW192722  10.171   2.306   9.697 -0.4320 -0.8458 -0.0182
61869SOL    HW292723  10.250   2.237   9.587  0.0069  0.0521 -0.2743
61870SOL     OW92724   6.419   1.373   4.324 -0.6842 -0.1763  0.1698
61870SOL    HW192725   6.513   1.364   4.337 -0.4177  1.5354 -0.2727
61870SOL    HW292726   6.379   1.314   4.388  0.6832 -1.4212 -0.0895
61871SOL     OW92727   9.776   1.577  11.425 -0.2272  0.3518  0.0724
61871SOL    HW192728   9.706   1.570  11.490 -0.9929  0.1710 -0.7511
61871SOL    HW292729   9.733   1.556  11.341  0.5507  1.3625 -0.6068
61872SOL     OW92730   1.899   3.394   6.695  0.6911  0.2664  0.3692
61872SOL    HW192731   1.953   3.372   6.771  0.4083 -0.7438  0.2920
61872SOL    HW292732   1.875   3.309   6.657 -0.3908  0.7144  0.0102
61873SOL     OW92733   0.857   4.204  10.884  0.5759  0.6944  0.0141
61873SOL    HW192734   0.886   4.134  10.943 -0.5909  0.3902  0.2612
61873SOL    HW292735   0.932   4.221  10.828  0.5343 -1.5789 -0.8305
61874SOL     OW92736   2.156  11.866  12.947 -0.4683 -0.8637  0.4786
61874SOL    HW192737   2.108  11.882  13.029  1.9692 -0.2227  1.8695
61874SOL    HW292738   2.153  11.771  12.937 -1.3455 -0.9011  0.9294
61875SOL     OW92739   0.643   5.205   2.767  0.2451 -0.7677 -0.2013
61875SOL    HW192740   0.602   5.291   2.752 -1.6186 -1.3797  1.1171
61875SOL    HW292741   0.729   5.226   2.804  0.2216  0.5315 -0.8214
61876SOL     OW92742   2.212   4.624   7.211 -0.4096  0.4736 -0.1186
61876SOL    HW192743   2.220   4.705   7.160 -1.0596  0.0202 -0.9675
61876SOL    HW292744   2.166   4.563   7.153 -1.9385  0.1973  1.2858
61877SOL     OW92745   4.876  12.864   3.726 -0.0411  0.3318  0.2928
61877SOL    HW192746   4.944  12.928   3.704  0.0835  0.4290  0.9493
61877SOL    HW292747   4.925  12.787   3.756 -0.1680 -0.3069 -1.0630
61878SOL     OW92748  10.638   6.978   7.706  0.0445  0.0356 -0.0895
61878SOL    HW192749  10.543   6.976   7.710  0.0631  0.0847  0.4476
61878SOL    HW292750  10.658   7.026   7.625 -0.3848  0.6802  0.1801
61879SOL     OW92751   4.587   6.997   3.786 -0.9435  0.2141  0.1471
61879SOL    HW192752   4.544   6.940   3.722 -1.9645  0.3039  0.7234
61879SOL    HW292753   4.673   6.957   3.801 -0.6006  0.3134 -1.4134
61880SOL     OW92754   1.542   7.835  10.750  0.2866  0.3386 -0.5181
61880SOL    HW192755   1.492   7.902  10.797  0.9531  0.4069  0.1162
61880SOL    HW292756   1.476   7.776  10.714 -0.2737  0.8292 -0.3107
61881SOL     OW92757   8.571   0.273   4.198 -0.0510  0.3103 -0.2924
61881SOL    HW192758   8.530   0.259   4.113  0.0975  0.8697 -0.4641
61881SOL    HW292759   8.584   0.186   4.234 -0.4342  0.0877 -0.6939
61882SOL     OW92760  11.796   1.796   6.008  0.0457  0.4148 -0.5093
61882SOL    HW192761  11.759   1.711   5.986 -1.6892  1.0303 -0.1901
61882SOL    HW292762  11.732   1.859   5.975 -0.4465  1.4909  2.1759
61883SOL     OW92763   4.773   0.455   0.297 -0.8428 -0.2810 -0.2800
61883SOL    HW192764   4.835   0.389   0.266 -0.2832  0.1071 -0.0303
61883SOL    HW292765   4.823   0.537   0.295 -1.5023  0.1232 -0.5313
61884SOL     OW92766   6.356   4.748   4.909  0.2685 -0.2729  0.5614
61884SOL    HW192767   6.412   4.693   4.965 -0.4494 -0.3054  1.2626
61884SOL    HW292768   6.310   4.805   4.970  0.6104  0.7568 -0.1266
61885SOL     OW92769   6.862   0.555   0.830  0.4223  0.5173  0.4354
61885SOL    HW192770   6.824   0.524   0.912  0.9575  0.2018  0.5701
61885SOL    HW292771   6.892   0.644   0.850 -2.0118  1.5921 -0.2253
61886SOL     OW92772   1.766   1.328   1.582 -0.0810 -0.2542 -0.2706
61886SOL    HW192773   1.696   1.269   1.610  0.8528 -1.0720  0.4076
61886SOL    HW292774   1.844   1.273   1.577  0.3947  0.5026 -1.6718
61887SOL     OW92775   6.118  12.054   8.041 -0.1853  0.3911 -0.5501
61887SOL    HW192776   6.212  12.049   8.024 -0.1174  1.6958 -0.6649
61887SOL    HW292777   6.108  12.128   8.101 -0.8534 -1.5930  1.9962
61888SOL     OW92778  11.468   1.508   3.839  0.2675 -0.4137  1.4250
61888SOL    HW192779  11.563   1.516   3.835  0.4310 -2.6221 -1.5294
61888SOL    HW292780  11.437   1.537   3.753 -1.5342 -1.6320  1.6014
61889SOL     OW92781   2.286   0.424   5.001 -0.2006  0.8200 -0.2244
61889SOL    HW192782   2.323   0.469   4.925  1.5976  1.4447  0.9501
61889SOL    HW292783   2.316   0.475   5.076  0.7951 -1.5276  1.0944
61890SOL     OW92784   0.993   7.518   3.937  0.6064 -0.4230  0.3889
61890SOL    HW192785   0.913   7.558   3.970  1.2783  0.0448  1.4942
61890SOL    HW292786   1.043   7.590   3.899  1.1188 -0.4632  0.9695
61891SOL     OW92787   9.532  10.131   3.072  0.2898 -0.1660  0.4714
61891SOL    HW192788   9.555  10.220   3.101 -1.6958  0.2997  0.8074
61891SOL    HW292789   9.584  10.117   2.993  2.3045  0.3949  1.6306
61892SOL     OW92790   8.937   4.753   2.898  0.4036 -0.1083  0.4909
61892SOL    HW192791   8.913   4.667   2.865 -0.8305  0.2649  0.3836
61892SOL    HW292792   8.857   4.788   2.938  0.3963  1.6243 -0.8799
61893SOL     OW92793   2.980   1.588   4.044 -0.4644 -0.4470 -0.6173
61893SOL    HW192794   2.893   1.629   4.048 -0.3630 -0.1981 -0.9260
61893SOL    HW292795   3.025   1.635   3.975 -0.0520 -0.5245 -0.4026
61894SOL     OW92796   8.995   1.457   4.046  0.2208 -0.5321  0.4284
61894SOL    HW192797   9.084   1.444   4.079  0.3803 -0.0249  0.2064
61894SOL    HW292798   8.941   1.399   4.100  0.4005  0.6373  1.9218
61895SOL     OW92799   0.800   7.945   3.965  0.4532  0.3111  0.3372
61895SOL    HW192800   0.858   8.016   3.937 -0.8594  1.8706  1.3931
61895SOL    HW292801   0.748   7.983   4.037 -0.9158 -1.4389  0.3452
61896SOL     OW92802   6.279   0.102  10.832 -0.0528 -0.3931 -0.1877
61896SOL    HW192803   6.263   0.141  10.918  3.0259 -0.2718  0.4536
61896SOL    HW292804   6.270   0.008  10.847  1.7661 -0.4704  0.6693
61897SOL     OW92805   9.378   2.500   2.095  0.0432  0.6597 -0.1755
61897SOL    HW192806   9.437   2.461   2.030  1.2866  3.1145 -0.6612
61897SOL    HW292807   9.406   2.463   2.178  1.9745  1.3312 -0.4721
61898SOL     OW92808   0.802   8.591   5.552  0.3518 -0.2487 -0.2367
61898SOL    HW192809   0.814   8.561   5.642 -2.8313  0.8791  0.6922
61898SOL    HW292810   0.746   8.525   5.511 -0.2601  0.4998 -0.6213
61899SOL     OW92811  12.901   7.634  10.197 -0.0792 -0.0648  0.5756
61899SOL    HW192812  12.911   7.724  10.228  1.1765 -0.1293  0.3982
61899SOL    HW292813  12.840   7.594  10.259  0.2282  0.5887  1.3168
61900SOL     OW92814   0.648   4.966  12.487  0.3017  0.0335  0.9400
61900SOL    HW192815   0.710   4.983  12.416 -1.2271 -0.4893 -0.5938
61900SOL    HW292816   0.682   5.016  12.561  2.3035  0.0980  0.0457
61901SOL     OW92817  12.725   4.553   3.978  0.0661 -0.6208 -0.4554
61901SOL    HW192818  12.677   4.632   3.952  1.5345 -0.0686 -1.5943
61901SOL    HW292819  12.805   4.586   4.019  0.6587 -1.5300 -0.8718
61902SOL     OW92820   1.246   3.053   9.234  0.5653 -0.0685  0.4070
61902SOL    HW192821   1.318   3.004   9.272 -1.1602 -1.8551  1.5311
61902SOL    HW292822   1.197   2.989   9.183 -1.5667  0.4928  1.6269
61903SOL     OW92823  12.795   5.194  12.677  0.8476 -0.1883  0.2290
61903SOL    HW192824  12.839   5.177  12.760  0.8530 -1.2669  0.0278
61903SOL    HW292825  12.789   5.108  12.635  1.0515  0.3698 -0.9970
61904SOL     OW92826   8.684   0.978  10.805 -0.1045  0.6188 -0.1354
61904SOL    HW192827   8.605   0.927  10.787 -0.1894  0.8258 -0.3540
61904SOL    HW292828   8.748   0.913  10.835 -0.4513  0.4931  0.3376
61905SOL     OW92829   1.561   1.532   7.757  0.1816  0.3213  0.6085
61905SOL    HW192830   1.472   1.508   7.731  0.2019  0.8202  0.0564
61905SOL    HW292831   1.618   1.487   7.695  0.2456  1.2534 -0.0220
61906SOL     OW92832   8.345   6.017   5.409 -0.0447  0.7040 -0.0882
61906SOL    HW192833   8.407   6.087   5.428  0.0498  0.5725  0.0949
61906SOL    HW292834   8.277   6.027   5.476 -0.8886  1.6289 -1.0399
61907SOL     OW92835   7.355   9.766   2.328 -0.3411  0.4208 -0.1886
61907SOL    HW192836   7.333   9.853   2.296 -1.4424 -0.1478 -1.0602
61907SOL    HW292837   7.270   9.723   2.342  0.1593 -0.2209  1.0964
61908SOL     OW92838   6.473  11.797   7.531  0.1563 -0.1268 -0.3114
61908SOL    HW192839   6.450  11.739   7.604 -2.1167  1.7106  0.5677
61908SOL    HW292840   6.439  11.752   7.453 -0.2340 -0.6657  0.1570
61909SOL     OW92841  12.969   1.066   0.455  0.2750  0.1446  0.6614
61909SOL    HW192842  12.888   1.114   0.472  0.6869  0.4496  1.8345
61909SOL    HW292843  13.017   1.069   0.538  0.7969 -1.3582  0.4393
61910SOL     OW92844   8.491  11.204   2.094  0.1195 -0.5625 -0.0934
61910SOL    HW192845   8.540  11.143   2.039  0.3130  1.5388 -2.4450
61910SOL    HW292846   8.424  11.240   2.035  0.4201  1.9275  0.9672
61911SOL     OW92847   9.589  10.939  12.728  0.7770 -0.6586  0.0834
61911SOL    HW192848   9.528  10.905  12.794  1.2719 -1.2792  0.2435
61911SOL    HW292849   9.672  10.895  12.749  1.0079 -0.6471 -0.7803
61912SOL     OW92850  10.016   2.000  10.234  0.1208  0.5694 -0.1019
61912SOL    HW192851  10.088   1.949  10.271  0.5623  0.8704 -0.5325
61912SOL    HW292852   9.964   1.936  10.185  0.6538  0.5241 -0.6122
61913SOL     OW92853   1.466   1.540   5.436 -0.1516 -0.6309 -0.5246
61913SOL    HW192854   1.377   1.513   5.414 -0.1101 -2.5773  1.2885
61913SOL    HW292855   1.522   1.475   5.395  0.5819  1.1209 -2.4638
61914SOL     OW92856   1.132   5.538   6.226 -0.1884 -0.3274 -0.3023
61914SOL    HW192857   1.065   5.489   6.274  0.2198  1.8024  2.6636
61914SOL    HW292858   1.215   5.498   6.252 -0.0710 -0.4865 -0.9060
61915SOL     OW92859  10.203   5.485   6.476 -0.5957 -0.3441 -0.6892
61915SOL    HW192860  10.119   5.466   6.517  0.4705 -0.8541  1.3995
61915SOL    HW292861  10.267   5.474   6.546  1.0600  1.8228 -1.7260
61916SOL     OW92862   4.852  11.421   4.005  0.0415  0.1700 -0.1112
61916SOL    HW192863   4.928  11.479   4.007  1.0528 -1.1103 -0.2217
61916SOL    HW292864   4.857  11.379   3.919 -1.5860  1.0530 -0.6807
61917SOL     OW92865   4.828   0.321   4.006 -0.6184 -0.2731  0.2985
61917SOL    HW192866   4.903   0.378   3.990 -0.7174 -0.4682 -0.9428
61917SOL    HW292867   4.775   0.328   3.926 -1.9538 -0.1041  1.1511
61918SOL     OW92868   3.357   7.775   1.813 -0.2866 -0.0549  0.3654
61918SOL    HW192869   3.294   7.720   1.768  0.5884 -1.1135  0.3970
61918SOL    HW292870   3.442   7.737   1.792  0.4248  1.8165 -0.3417
61919SOL     OW92871   9.443  10.746   5.813 -0.3839 -0.0089 -0.4558
61919SOL    HW192872   9.374  10.752   5.879 -0.0761 -0.1301 -0.1261
61919SOL    HW292873   9.456  10.652   5.801  0.4960  0.0060  0.2864
61920SOL     OW92874  10.449   6.802   3.402 -0.0297  0.0445  0.2558
61920SOL    HW192875  10.442   6.795   3.497  1.3885 -1.0005  0.3222
61920SOL    HW292876  10.540   6.778   3.383 -0.1496  0.7168 -1.3247
61921SOL     OW92877  10.310   3.445   9.093  0.3979 -0.2035  0.3126
61921SOL    HW192878  10.296   3.531   9.134  1.6932  1.0936 -1.7556
61921SOL    HW292879  10.405   3.432   9.099  0.6096 -0.0719 -1.9099
61922SOL     OW92880   4.938   8.569   8.911  0.0579 -0.2775  0.5935
61922SOL    HW192881   4.973   8.632   8.973  0.8867 -0.2529  0.1085
61922SOL    HW292882   4.890   8.506   8.965 -0.5930  0.6327  1.1028
61923SOL     OW92883   3.236  11.324  12.076  0.4325  0.5903  0.0531
61923SOL    HW192884   3.222  11.304  11.984 -1.7679  0.6891  0.3204
61923SOL    HW292885   3.278  11.246  12.112  0.8157  0.3453 -0.9110
61924SOL     OW92886   3.317  10.660   3.748  0.1786  0.0368  0.1829
61924SOL    HW192887   3.343  10.579   3.791  0.2852 -0.9508 -1.6548
61924SOL    HW292888   3.229  10.678   3.782 -0.3157 -1.4849 -0.2276
61925SOL     OW92889   7.105   0.039  10.943 -0.0919  0.5941 -0.4472
61925SOL    HW192890   7.093  -0.047  10.983 -2.0981 -0.2452 -2.5806
61925SOL    HW292891   7.038   0.093  10.984 -1.1483  0.1399 -1.5096
61926SOL     OW92892   6.988   6.823   6.404  0.0196 -0.1215 -0.4713
61926SOL    HW192893   6.935   6.891   6.445 -0.6477 -0.7707 -0.2268
61926SOL    HW292894   6.945   6.805   6.321  1.3830  1.2033 -1.5055
61927SOL     OW92895   0.437   2.857  11.009  0.4352 -0.5314  0.2516
61927SOL    HW192896   0.402   2.945  10.992 -0.2344 -0.6992  0.7317
61927SOL    HW292897   0.526   2.874  11.042 -0.1507  0.0645  1.6363
61928SOL     OW92898   5.116   4.717   4.468 -0.4691 -0.3422  0.1145
61928SOL    HW192899   5.032   4.711   4.513 -0.6745  1.7363  0.0823
61928SOL    HW292900   5.175   4.756   4.532  0.3190 -1.1494 -0.0932
61929SOL     OW92901   6.403   7.323   4.247 -0.1206  0.6977  0.0871
61929SOL    HW192902   6.481   7.332   4.302 -0.6627 -0.0847  0.9984
61929SOL    HW292903   6.387   7.412   4.215  1.0600  0.8968 -0.0186
61930SOL     OW92904   5.136   2.172  10.105 -0.8600 -0.3809 -0.5080
61930SOL    HW192905   5.210   2.212  10.150 -1.7434 -0.5119  1.1384
61930SOL    HW292906   5.059   2.208  10.148 -1.7251 -1.5089 -1.0557
61931SOL     OW92907  10.350   6.449   6.090 -0.8562 -0.1333 -0.2623
61931SOL    HW192908  10.273   6.392   6.100 -2.9571  2.7201  1.1409
61931SOL    HW292909  10.384   6.458   6.179  0.3077 -0.2481 -0.6816
61932SOL     OW92910   5.331  10.865   4.124  0.1973  0.7147  0.4059
61932SOL    HW192911   5.314  10.946   4.172 -0.6005  0.5859  0.3630
61932SOL    HW292912   5.245  10.839   4.091  0.3792 -0.3481  0.7323
61933SOL     OW92913  10.207   0.298   7.552  0.7571 -0.2866 -0.2219
61933SOL    HW192914  10.151   0.332   7.482  1.0555  1.8779  0.4991
61933SOL    HW292915  10.246   0.219   7.515 -2.0505 -1.4166 -1.0630
61934SOL     OW92916  10.403   8.732   0.207 -0.1514 -0.1008 -0.4460
61934SOL    HW192917  10.321   8.682   0.211  0.0367 -0.6826 -2.7342
61934SOL    HW292918  10.375   8.823   0.206 -0.7229 -0.2669 -0.3382
61935SOL     OW92919   9.684   5.258   8.405  0.0586  0.0874  0.3137
61935SOL    HW192920   9.638   5.181   8.370  0.7310 -0.4562  0.5883
61935SOL    HW292921   9.615   5.321   8.424 -0.3443  0.5337 -2.2305
61936SOL     OW92922   1.269   9.452   7.545  0.0612 -0.0731 -0.2438
61936SOL    HW192923   1.210   9.395   7.594 -2.2018  2.8768  0.7337
61936SOL    HW292924   1.240   9.444   7.454  0.9925 -1.7856 -0.4255
61937SOL     OW92925   6.474   2.366  11.633  1.0489 -0.2982  0.3355
61937SOL    HW192926   6.520   2.307  11.572 -0.3858 -0.7157 -0.3805
61937SOL    HW292927   6.417   2.308  11.683  0.4316  0.3576  0.3973
61938SOL     OW92928   4.094   2.960   6.606 -0.3732  0.2913 -0.6198
61938SOL    HW192929   4.160   3.028   6.622 -1.0138  0.7172  0.3115
61938SOL    HW292930   4.144   2.883   6.582  0.6209  0.1036  1.7754
61939SOL     OW92931   8.467   0.575   6.179 -0.3499  0.4499  0.1105
61939SOL    HW192932   8.492   0.665   6.200  0.7212  0.3516 -0.6735
61939SOL    HW292933   8.538   0.542   6.124 -0.8341 -0.8065  0.1972
61940SOL     OW92934   1.390   9.092  12.291  0.5304  0.1976  0.0990
61940SOL    HW192935   1.350   9.006  12.304  1.3899 -0.1816  0.3015
61940SOL    HW292936   1.323   9.154  12.318 -0.3720 -0.3843 -0.7385
61941SOL     OW92937   5.580   1.987   4.416  0.0631 -0.0584  0.6992
61941SOL    HW192938   5.514   1.931   4.457 -0.1159  0.1327  0.6715
61941SOL    HW292939   5.544   2.006   4.329  1.2870 -2.0423 -0.3313
61942SOL     OW92940   7.246   1.146   3.691  0.0127  0.7222  0.4626
61942SOL    HW192941   7.182   1.086   3.653  0.8745 -1.0491  1.6800
61942SOL    HW292942   7.215   1.233   3.665 -1.7943 -0.1680 -0.5895
61943SOL     OW92943   0.995   2.551   4.790  0.0188  0.8613 -0.4134
61943SOL    HW192944   0.901   2.530   4.793  0.1745  0.2445  1.2334
61943SOL    HW292945   1.009   2.606   4.868  1.6029 -1.7882  1.3150
61944SOL     OW92946   2.668   2.119   6.848  0.3154  0.2085 -0.6909
61944SOL    HW192947   2.611   2.185   6.809 -0.4266  0.0737  0.1312
61944SOL    HW292948   2.718   2.166   6.915 -0.2319 -0.0430 -0.0872
61945SOL     OW92949   1.695   0.549   8.550  0.6558 -0.1422  1.0397
61945SOL    HW192950   1.636   0.611   8.594  0.9155  0.6453  0.2923
61945SOL    HW292951   1.728   0.597   8.474 -0.9930 -1.9976 -0.9372
61946SOL     OW92952   5.135  10.332   2.585  0.5231  0.4522  0.3449
61946SOL    HW192953   5.138  10.423   2.555  1.3319  0.6460  0.9734
61946SOL    HW292954   5.087  10.336   2.668 -1.0969  0.0176 -0.5234
61947SOL     OW92955   6.903   2.961   7.577  0.3597 -0.0868  0.0293
61947SOL    HW192956   6.860   2.911   7.508 -0.7197  1.6939 -0.6304
61947SOL    HW292957   6.957   2.896   7.623 -2.2355 -2.2295  0.2982
61948SOL     OW92958   8.516   0.284  10.563 -0.3196  0.1482  0.5401
61948SOL    HW192959   8.448   0.232  10.521 -0.5708  0.0147  1.1057
61948SOL    HW292960   8.597   0.254  10.522 -0.7228  1.3770 -1.2210
61949SOL     OW92961  10.331   5.537   7.783  0.4446 -0.1338 -0.0499
61949SOL    HW192962  10.269   5.565   7.850  1.3912  1.9277  0.0556
61949SOL    HW292963  10.411   5.517   7.831  0.5960 -0.3817 -0.4028
61950SOL     OW92964  12.158   4.409   9.144 -0.5734 -0.6243 -0.7185
61950SOL    HW192965  12.195   4.483   9.096 -1.4749  0.1686 -0.2444
61950SOL    HW292966  12.141   4.443   9.232 -1.9446 -1.0643 -0.7771
61951SOL     OW92967  11.116  12.712   3.104  0.1093  0.3978  0.1251
61951SOL    HW192968  11.116  12.798   3.146 -2.8843  2.4466 -3.4891
61951SOL    HW292969  11.024  12.686   3.102  0.8682 -2.7670  0.6489
61952SOL     OW92970   6.492   5.372   2.873 -0.1913 -0.6759  0.0702
61952SOL    HW192971   6.404   5.376   2.835 -0.5671  2.1334  0.9462
61952SOL    HW292972   6.536   5.449   2.838  1.4120 -1.2218  0.8141
61953SOL     OW92973   2.768   1.489   1.379 -0.4777  0.2340  0.0908
61953SOL    HW192974   2.760   1.486   1.474  0.8201 -1.5363  0.1929
61953SOL    HW292975   2.860   1.509   1.362 -0.4103 -0.6854 -0.7606
61954SOL     OW92976   5.601   1.277   7.109  0.5633  0.0742  0.7058
61954SOL    HW192977   5.622   1.246   7.021  1.0222  2.5055 -0.0867
61954SOL    HW292978   5.612   1.199   7.164  0.7086 -1.4024 -1.2819
61955SOL     OW92979   5.086   1.777   2.866 -0.1907 -0.4352 -0.5774
61955SOL    HW192980   5.026   1.807   2.798  1.0067 -0.3651 -1.6489
61955SOL    HW292981   5.173   1.792   2.829  0.5456  0.8448  1.5065
61956SOL     OW92982   1.205  11.132   5.221 -0.2800  0.0768 -0.2149
61956SOL    HW192983   1.264  11.109   5.149  1.5708  2.9515  0.2239
61956SOL    HW292984   1.131  11.175   5.179  0.2746  0.7680 -0.5066
61957SOL     OW92985  12.938  10.378   3.545  0.1680  0.2305 -0.2153
61957SOL    HW192986  12.980  10.307   3.496 -0.2829 -1.0510  1.1846
61957SOL    HW292987  12.887  10.426   3.479  0.2662 -0.9107 -1.1502
61958SOL     OW92988   3.434   5.102  12.111 -0.0879 -0.5389 -0.6930
61958SOL    HW192989   3.517   5.060  12.086  0.0816 -1.2665  0.9260
61958SOL    HW292990   3.367   5.055  12.061  0.1856 -2.2426  0.4170
61959SOL     OW92991   0.636   7.750  11.260 -0.1802  0.4453 -0.3318
61959SOL    HW192992   0.545   7.729  11.235  0.1235  0.4875 -1.5681
61959SOL    HW292993   0.680   7.766  11.176  0.5949  1.9817  0.3329
61960SOL     OW92994   2.288   9.790   4.685  0.7833  0.2881 -0.5487
61960SOL    HW192995   2.333   9.755   4.608 -0.3104 -0.6101 -0.8018
61960SOL    HW292996   2.196   9.795   4.660  0.2997 -0.6104  0.8691
61961SOL     OW92997  10.259   9.375   4.971  0.3184 -0.2455  0.0569
61961SOL    HW192998  10.177   9.404   5.012  1.0858  1.1833  0.6878
61961SOL    HW292999  10.318   9.359   5.045  0.7800 -0.6915 -0.4047
61962SOL     OW93000   3.341   1.738  10.355  0.7908 -0.6042 -0.0568
61962SOL    HW193001   3.261   1.770  10.315  1.1999  0.8635  0.2191
61962SOL    HW293002   3.402   1.812  10.348  1.4046 -0.8965  1.7019
61963SOL     OW93003   1.915   4.722  12.438  0.6464  0.6654  0.3089
61963SOL    HW193004   2.009   4.710  12.453  0.3924 -0.4143  1.1398
61963SOL    HW293005   1.882   4.758  12.520  0.3115  0.9643  0.0469
61964SOL     OW93006   9.575  10.594   3.346  0.1611  0.4115  0.5887
61964SOL    HW193007   9.496  10.603   3.400 -1.2164 -2.7657 -0.6370
61964SOL    HW293008   9.627  10.527   3.391 -0.0283 -0.7814 -0.8975
61965SOL     OW93009   3.202  10.469  12.871  0.0542 -0.2602 -0.0423
61965SOL    HW193010   3.298  10.471  12.868  0.0730  0.0144 -3.3880
61965SOL    HW293011   3.176  10.560  12.856 -0.6956 -0.5903 -0.7891
61966SOL     OW93012   9.662  10.999  10.435 -0.7214  0.4286 -0.0973
61966SOL    HW193013   9.606  10.940  10.486 -1.5973 -0.0982 -1.6118
61966SOL    HW293014   9.619  11.084  10.440 -2.0669 -0.1137 -1.7937
61967SOL     OW93015   0.204   2.630   9.516 -0.5140 -0.0655  0.1891
61967SOL    HW193016   0.283   2.584   9.485 -0.8932 -0.3295 -0.4067
61967SOL    HW293017   0.135   2.564   9.510 -1.0272  0.5251 -0.4827
61968SOL     OW93018   0.392   3.327   4.373 -0.3916  0.5188 -0.4460
61968SOL    HW193019   0.417   3.420   4.375 -0.2286  0.5539 -2.2791
61968SOL    HW293020   0.406   3.297   4.463  0.1738  2.1032  0.0447
61969SOL     OW93021   1.024  10.779   6.254 -0.1640  0.2321 -0.0216
61969SOL    HW193022   1.051  10.768   6.345 -0.5420  0.6866  0.1478
61969SOL    HW293023   0.990  10.868   6.250  0.4330  0.4360 -0.7544
61970SOL     OW93024   8.534   0.523  12.036 -0.1465 -0.1809  0.6758
61970SOL    HW193025   8.463   0.498  11.977 -0.9176  0.4725  1.2992
61970SOL    HW293026   8.551   0.615  12.015 -0.1453 -0.0607  1.1949
61971SOL     OW93027   1.519   7.258   0.087 -0.3914 -0.4012  0.0147
61971SOL    HW193028   1.441   7.249   0.141  0.2977 -2.2997  0.7903
61971SOL    HW293029   1.517   7.181   0.029  0.4571 -0.0187 -0.5437
61972SOL     OW93030   2.382  11.962   9.326 -0.2540 -0.1938  0.2009
61972SOL    HW193031   2.369  12.027   9.256  0.6249 -1.4101 -1.1383
61972SOL    HW293032   2.340  11.883   9.294 -2.5384  0.0016  2.4292
61973SOL     OW93033   7.607  10.520   0.809 -0.5076 -0.0250 -0.5636
61973SOL    HW193034   7.545  10.461   0.851  0.0079 -1.1553 -1.3344
61973SOL    HW293035   7.571  10.532   0.721  0.1029 -0.3030 -0.8549
61974SOL     OW93036   0.760   4.934   2.398 -0.7431  0.2278  0.2398
61974SOL    HW193037   0.769   5.027   2.380 -2.9669  0.3756 -0.4266
61974SOL    HW293038   0.694   4.904   2.335  0.1979 -1.8832  0.1704
61975SOL     OW93039   2.279   7.148   9.539  0.1355  0.0557  0.4700
61975SOL    HW193040   2.288   7.064   9.585  2.4226 -1.4657 -2.3685
61975SOL    HW293041   2.188   7.148   9.509  0.2816 -1.8789 -0.1587
61976SOL     OW93042   5.475   0.638   4.589 -0.0165  0.2763  0.4125
61976SOL    HW193043   5.433   0.707   4.538  0.1774 -0.2627 -0.5134
61976SOL    HW293044   5.437   0.557   4.555  1.2850 -0.1937 -0.0274
61977SOL     OW93045  11.479   0.582   6.528  0.2225  0.1896  0.3261
61977SOL    HW193046  11.440   0.664   6.559  0.7571  0.7400 -0.4208
61977SOL    HW293047  11.407   0.535   6.486  0.3466  1.2504 -1.1568
61978SOL     OW93048   9.184  10.871   1.095 -0.2943 -0.5003  0.4724
61978SOL    HW193049   9.275  10.841   1.087  0.1493  1.3030 -3.8793
61978SOL    HW293050   9.191  10.963   1.118 -1.0336 -0.3962  0.2981
61979SOL     OW93051   1.537   1.868   6.267  0.3987 -0.5997 -0.2586
61979SOL    HW193052   1.534   1.797   6.332 -0.1892 -0.1379  0.2245
61979SOL    HW293053   1.535   1.822   6.183 -1.8165 -1.1448  0.0130
61980SOL     OW93054   9.862   8.718   4.465  0.4052 -0.2187  0.5161
61980SOL    HW193055   9.955   8.736   4.469  0.2996  0.7556 -0.8805
61980SOL    HW293056   9.822   8.782   4.524  0.3390  1.9774 -1.7637
61981SOL     OW93057   6.719   2.160   0.277 -0.1066 -0.0464 -0.0711
61981SOL    HW193058   6.694   2.089   0.218  0.6154 -0.7994  0.4996
61981SOL    HW293059   6.736   2.116   0.360 -0.0014  0.8500  0.3812
61982SOL     OW93060   7.841   7.568   5.868 -0.8068  0.2010 -0.1673
61982SOL    HW193061   7.841   7.532   5.957  2.3187  2.9222  1.1662
61982SOL    HW293062   7.916   7.525   5.825  0.6928  2.2598  0.2402
61983SOL     OW93063   3.640   2.714   0.524 -0.3628  0.6091 -0.4462
61983SOL    HW193064   3.635   2.652   0.452 -1.4050  0.8727 -0.6209
61983SOL    HW293065   3.733   2.734   0.533 -0.2632  0.9389 -2.0301
61984SOL     OW93066   3.473   7.819  12.173 -0.1872  0.1991 -0.2123
61984SOL    HW193067   3.510   7.747  12.123 -1.5393 -0.4242 -0.3441
61984SOL    HW293068   3.547   7.878  12.188  1.0332 -1.3730  0.2136
61985SOL     OW93069  12.444  12.451  10.679  0.0977 -0.5435  0.7657
61985SOL    HW193070  12.445  12.467  10.585 -2.4252 -0.4093  0.6765
61985SOL    HW293071  12.516  12.390  10.695 -1.0283 -2.6909 -1.6838
61986SOL     OW93072  12.207  10.148   4.472 -0.0626 -0.4262  0.3511
61986SOL    HW193073  12.295  10.185   4.479 -0.5195  0.4559  1.8762
61986SOL    HW293074  12.149  10.224   4.471 -0.8889 -1.0337  0.8298
61987SOL     OW93075   1.896   0.066   2.308 -0.1751  0.3826 -0.5667
61987SOL    HW193076   1.847   0.084   2.389  0.9341  0.0488  0.2012
61987SOL    HW293077   1.841   0.102   2.239 -1.2513  0.5027  0.3153
61988SOL     OW93078   7.452   2.482   4.243  0.3471  0.4479 -0.2234
61988SOL    HW193079   7.440   2.398   4.199 -1.7943 -0.2029  1.4638
61988SOL    HW293080   7.381   2.537   4.210  1.2700  1.3956 -0.7212
61989SOL     OW93081   9.277   0.966  12.618  0.8965  0.2163  0.3976
61989SOL    HW193082   9.284   0.998  12.708  0.3849  0.0064  0.5157
61989SOL    HW293083   9.183   0.970  12.599  1.0306  0.4960 -0.2140
61990SOL     OW93084   8.775   4.041   2.291  0.1544  0.0158 -0.3551
61990SOL    HW193085   8.815   4.055   2.205  1.3040  1.2999  0.3635
61990SOL    HW293086   8.689   4.082   2.284  0.0295 -0.3365 -1.0436
61991SOL     OW93087  10.836   2.517  11.090 -0.3519  0.1769  0.4760
61991SOL    HW193088  10.906   2.580  11.077  0.9802 -1.1794  0.8631
61991SOL    HW293089  10.760   2.557  11.048  1.1836  0.6666 -2.0696
61992SOL     OW93090   2.279   3.940   2.316  0.1424 -0.0205 -0.7131
61992SOL    HW193091   2.321   3.870   2.265 -0.1498 -0.3916 -0.4447
61992SOL    HW293092   2.272   3.905   2.404 -2.9955 -0.9948 -1.2317
61993SOL     OW93093   4.654  11.853   7.307  0.1318  0.2069  0.1065
61993SOL    HW193094   4.573  11.904   7.302  0.2447  0.2325 -1.9014
61993SOL    HW293095   4.650  11.794   7.232  1.4264 -0.6541  0.6825
61994SOL     OW93096  10.603  12.708  10.030 -0.2258  0.4278  0.3063
61994SOL    HW193097  10.524  12.717  10.084  0.2802 -1.3635  1.4185
61994SOL    HW293098  10.675  12.711  10.092  0.6149  1.8054 -0.6805
61995SOL     OW93099  11.405   5.733   0.265 -0.0449 -0.4615  0.3152
61995SOL    HW193100  11.417   5.638   0.270 -0.1722 -0.4977 -0.0223
61995SOL    HW293101  11.475   5.769   0.319  0.6342 -0.7148 -0.3810
61996SOL     OW93102   6.223  11.720   0.321 -0.4716 -0.1188 -0.3099
61996SOL    HW193103   6.166  11.653   0.282  1.7339 -2.7808  0.7219
61996SOL    HW293104   6.265  11.762   0.247  1.2562 -2.8926 -1.0381
61997SOL     OW93105  10.221  12.036   1.660 -0.1823  0.0741  0.0329
61997SOL    HW193106  10.146  11.996   1.704 -0.7010 -1.1456 -1.7960
61997SOL    HW293107  10.232  11.983   1.580  2.1756  0.6719 -0.1189
61998SOL     OW93108  12.751   5.441   5.842  0.5473 -0.0398  0.1791
61998SOL    HW193109  12.757   5.396   5.758  0.0312  0.5465 -0.1808
61998SOL    HW293110  12.756   5.534   5.820  0.4073  0.1179  0.7925
61999SOL     OW93111   9.277   7.385   8.430  0.6944  0.3401  0.2532
61999SOL    HW193112   9.341   7.456   8.421  1.3424  0.3985  3.8331
61999SOL    HW293113   9.235   7.402   8.514  0.5518 -3.2531  1.0411
62000SOL     OW93114   8.082  11.558   3.124  0.4868 -0.3264 -0.1354
62000SOL    HW193115   8.082  11.641   3.077  1.2229 -0.6927 -0.8194
62000SOL    HW293116   7.995  11.521   3.109  0.2778  0.1588 -0.1173
62001SOL     OW93117   3.144  11.627   4.263 -0.1846  0.1576 -0.2743
62001SOL    HW193118   3.135  11.689   4.335  1.0962  0.9923 -0.7830
62001SOL    HW293119   3.057  11.622   4.224 -0.3062  1.7301 -0.2651
62002SOL     OW93120   2.809   7.400   0.154 -0.7138  0.4729  0.3359
62002SOL    HW193121   2.826   7.403   0.248  0.1800 -0.6995  0.2431
62002SOL    HW293122   2.850   7.478   0.118  0.6548 -0.0475  0.7013
62003SOL     OW93123   8.309   9.711  12.476  0.2533  0.2380  0.0287
62003SOL    HW193124   8.214   9.716  12.485  0.3500 -0.7640  2.0390
62003SOL    HW293125   8.342   9.784  12.528  0.6096  0.0413  0.0796
62004SOL     OW93126  10.588  10.410   6.795 -0.0809 -0.0276  0.3180
62004SOL    HW193127  10.552  10.397   6.708 -0.4821  1.9252  0.1448
62004SOL    HW293128  10.519  10.458   6.842  1.1093  1.1789  0.8970
62005SOL     OW93129  11.942   4.737   0.066  0.2042 -0.3141  0.2570
62005SOL    HW193130  11.992   4.660   0.040 -0.0709 -0.5541  0.4314
62005SOL    HW293131  11.937   4.731   0.161 -0.6653 -0.6138  0.2003
62006SOL     OW93132   8.749   3.847   8.029  0.3746 -0.9868 -0.0469
62006SOL    HW193133   8.743   3.897   8.110 -1.3009  0.9731 -1.2834
62006SOL    HW293134   8.829   3.880   7.987 -1.4565  1.9594 -1.5362
62007SOL     OW93135   4.316  11.549   0.388 -0.3497  0.6556 -0.2077
62007SOL    HW193136   4.257  11.561   0.463 -2.0101 -0.3402 -1.2949
62007SOL    HW293137   4.379  11.483   0.418  0.4054  1.8899  1.0461
62008SOL     OW93138  12.695   1.887  12.086 -0.3324  0.1057  0.2706
62008SOL    HW193139  12.733   1.868  12.172  0.7127  0.3724 -0.1086
62008SOL    HW293140  12.762   1.858  12.024 -1.3682 -0.7232 -0.4884
62009SOL     OW93141   8.266   9.178   9.600  1.0815 -0.2488 -0.2483
62009SOL    HW193142   8.315   9.247   9.645  0.4370  0.4442 -0.6148
62009SOL    HW293143   8.331   9.108   9.588  1.9368  0.5803 -0.5615
62010SOL     OW93144  10.405   4.042  11.706  1.0042  0.0446  0.5729
62010SOL    HW193145  10.477   4.052  11.769  0.9257 -0.0833  0.6843
62010SOL    HW293146  10.347   3.978  11.747 -0.1251  1.5111  1.3423
62011SOL     OW93147   3.333   0.762   8.317 -0.3566 -0.8272 -0.0236
62011SOL    HW193148   3.294   0.684   8.358  0.6400 -2.1711 -1.5312
62011SOL    HW293149   3.384   0.728   8.244 -0.4333  1.3149 -1.1557
62012SOL     OW93150   5.586   9.264   7.824 -0.4994 -0.5490 -0.1419
62012SOL    HW193151   5.601   9.318   7.746 -2.0130  0.1124 -0.0062
62012SOL    HW293152   5.659   9.202   7.824  1.0700  1.1922 -0.5550
62013SOL     OW93153   2.114   0.199   3.537  0.1859 -0.4446  0.4766
62013SOL    HW193154   2.092   0.284   3.574  1.4855  0.1135  0.0393
62013SOL    HW293155   2.030   0.155   3.525 -0.5434  0.9589  0.2707
62014SOL     OW93156   7.380   8.271   3.155 -0.5002 -0.2532  0.1915
62014SOL    HW193157   7.471   8.278   3.182 -0.3862  0.5135 -0.3670
62014SOL    HW293158   7.335   8.340   3.205 -0.1579  1.7090 -2.0432
62015SOL     OW93159   9.744   9.784   8.111  0.0467  0.3631 -0.1604
62015SOL    HW193160   9.761   9.845   8.039  0.3293  0.3821 -0.0803
62015SOL    HW293161   9.687   9.717   8.073  0.6213  0.0848 -0.5474
62016SOL     OW93162   8.395   4.154   9.556 -0.1005  0.3941 -0.0826
62016SOL    HW193163   8.412   4.247   9.573 -1.0461  0.3545  1.1823
62016SOL    HW293164   8.312   4.136   9.601  0.9149 -1.4904  1.1510
62017SOL     OW93165   8.593   7.546   5.176  0.3950 -0.1157 -0.1513
62017SOL    HW193166   8.676   7.573   5.137  0.1567 -0.8714 -1.2304
62017SOL    HW293167   8.529   7.555   5.105 -0.2103 -0.7222  0.3012
62018SOL     OW93168   6.906   0.363   1.157  0.4392  0.6746 -0.5778
62018SOL    HW193169   7.001   0.353   1.154  0.4554  0.0193  1.0776
62018SOL    HW293170   6.874   0.310   1.084  1.2757 -0.3812 -0.2037
62019SOL     OW93171   4.764   6.644   5.534 -0.3351  0.2021 -0.2806
62019SOL    HW193172   4.825   6.670   5.465 -1.5090 -0.4863 -1.6423
62019SOL    HW293173   4.753   6.722   5.588  2.7282 -0.0039  0.8304
62020SOL     OW93174   6.676  12.381   4.391  0.3781 -0.1100 -0.2480
62020SOL    HW193175   6.683  12.422   4.477  1.2858  1.0470 -0.8416
62020SOL    HW293176   6.599  12.324   4.397  0.0330  0.4738  1.1061
62021SOL     OW93177   8.645   1.196   3.844  0.8419  0.5628  0.2204
62021SOL    HW193178   8.662   1.204   3.750 -0.8808 -0.1543 -0.2007
62021SOL    HW293179   8.605   1.109   3.854 -1.1156  1.5039  1.2263
62022SOL     OW93180   6.500   0.099  10.672 -0.2094  0.1418  0.0628
62022SOL    HW193181   6.471   0.112  10.582  0.2903 -0.9666 -0.2754
62022SOL    HW293182   6.419   0.105  10.724 -0.5303  0.5954 -0.4791
62023SOL     OW93183  10.341   0.356   2.932  0.3296  0.3738  0.4159
62023SOL    HW193184  10.316   0.445   2.957  1.9563  1.2181 -0.7743
62023SOL    HW293185  10.386   0.321   3.009 -0.9873  0.2643  1.1639
62024SOL     OW93186  10.584  10.535   3.865  0.0171  0.0020 -0.0534
62024SOL    HW193187  10.653  10.520   3.929  0.2895 -2.8398 -0.8729
62024SOL    HW293188  10.506  10.492   3.901 -0.6701  1.0345 -0.2559
62025SOL     OW93189   5.281   4.498   8.975 -0.0617  0.5385  0.3016
62025SOL    HW193190   5.309   4.462   9.060  0.9398 -0.1335 -0.2934
62025SOL    HW293191   5.266   4.591   8.993 -1.7011  0.0751  1.6387
62026SOL     OW93192  12.217   8.028   3.012  0.1611 -0.0758  0.0043
62026SOL    HW193193  12.241   8.070   3.095 -1.1975  0.0144  0.3788
62026SOL    HW293194  12.214   8.100   2.949  2.5722 -0.3322 -0.4897
62027SOL     OW93195   0.872  11.215   6.426  0.1140  0.0781 -0.5569
62027SOL    HW193196   0.873  11.181   6.515 -0.7441 -0.3014 -0.6830
62027SOL    HW293197   0.780  11.235   6.409 -0.0755 -1.7411 -2.0425
62028SOL     OW93198  12.896  12.564   7.194 -0.1179  0.0285  0.5935
62028SOL    HW193199  12.951  12.554   7.117 -2.0539  0.6056 -0.9314
62028SOL    HW293200  12.901  12.657   7.216 -0.8774  0.1922  0.1125
62029SOL     OW93201   9.241   5.629  12.156 -0.1362  0.2426 -0.4340
62029SOL    HW193202   9.197   5.712  12.174  0.7756  0.9836 -1.5196
62029SOL    HW293203   9.284   5.606  12.239 -1.6474  0.0389  0.3284
62030SOL     OW93204  10.117   1.386   2.763  0.2329 -0.0771 -0.1116
62030SOL    HW193205  10.135   1.479   2.776 -0.5683 -0.1699  1.9228
62030SOL    HW293206  10.024   1.377   2.784  0.1571 -1.2602 -0.8817
62031SOL     OW93207   6.929  10.152  10.374 -0.1024  0.1543 -0.3659
62031SOL    HW193208   6.979  10.071  10.383  1.2275  0.7493 -1.9888
62031SOL    HW293209   6.847  10.125  10.333  0.4657 -0.3271 -1.2023
62032SOL     OW93210   8.934   5.280  11.906  0.2907  0.1553  0.1101
62032SOL    HW193211   9.018   5.326  11.906  0.2073  0.3118  0.4863
62032SOL    HW293212   8.915   5.265  11.999  0.6052 -1.1578 -0.0032
62033SOL     OW93213   4.851   6.368   5.659  0.5701  0.9889  0.0359
62033SOL    HW193214   4.840   6.455   5.620  3.0563  0.8542 -1.1528
62033SOL    HW293215   4.851   6.308   5.584  0.3708  0.1145  0.7111
62034SOL     OW93216   6.382   5.050   2.781  0.0310 -0.6193  0.0579
62034SOL    HW193217   6.385   5.105   2.859 -2.5781 -0.7879  0.3689
62034SOL    HW293218   6.474   5.031   2.761  0.9163  1.8832  1.3025
62035SOL     OW93219   0.957   6.906   3.184  0.5867 -0.0866  0.1492
62035SOL    HW193220   0.925   6.881   3.097 -0.5627  0.7701  0.2943
62035SOL    HW293221   0.945   6.828   3.238 -0.7483  0.0176  0.0438
62036SOL     OW93222  10.726   1.549   5.661 -0.5214  0.6403 -0.8456
62036SOL    HW193223  10.778   1.492   5.718  0.7357  0.4632 -2.1139
62036SOL    HW293224  10.681   1.608   5.721  1.3919  1.0053  0.3057
62037SOL     OW93225   2.772   0.689   8.739  0.2163  0.6731 -0.3537
62037SOL    HW193226   2.809   0.616   8.690  0.9824  1.2117 -0.5912
62037SOL    HW293227   2.832   0.702   8.813 -1.3745 -0.6893  1.2803
62038SOL     OW93228   9.185   7.665   6.905  0.1821 -0.2507 -0.5698
62038SOL    HW193229   9.103   7.714   6.914 -0.4162 -1.5143  1.4602
62038SOL    HW293230   9.253   7.731   6.915 -0.6051  0.3801  1.1041
62039SOL     OW93231   8.045   2.724   7.996  0.5949 -0.1366 -0.0012
62039SOL    HW193232   8.065   2.813   8.024  0.6828 -0.1511 -0.0174
62039SOL    HW293233   8.071   2.721   7.904  1.4617 -0.4491  0.2441
62040SOL     OW93234  11.791   0.016   1.148  0.0322 -0.2961  0.8063
62040SOL    HW193235  11.829  -0.065   1.183 -1.0435 -1.3016 -0.2574
62040SOL    HW293236  11.699  -0.006   1.132  0.3975  0.1183 -2.4631
62041SOL     OW93237   1.844  12.039   0.318  0.0225  0.0505 -0.3941
62041SOL    HW193238   1.934  12.006   0.313  0.5767  1.2860  0.7375
62041SOL    HW293239   1.805  11.988   0.389 -0.2704 -0.6886 -1.0793
62042SOL     OW93240   4.859   9.556  10.869 -0.0851 -0.1781  0.4262
62042SOL    HW193241   4.850   9.601  10.953  1.3025  1.3367 -0.1951
62042SOL    HW293242   4.914   9.480  10.889 -0.4594 -0.3000  1.0344
62043SOL     OW93243   8.228  12.561   6.837 -0.1751  0.2335 -0.1222
62043SOL    HW193244   8.175  12.603   6.905 -0.1149  0.3607 -0.1521
62043SOL    HW293245   8.308  12.535   6.882 -0.2829 -0.0037 -0.0657
62044SOL     OW93246   6.127   2.519  11.587  0.1536 -0.0348  0.4151
62044SOL    HW193247   6.162   2.467  11.514  0.4840  1.3405 -0.4541
62044SOL    HW293248   6.201   2.533  11.645  0.6495  1.3218 -0.4946
62045SOL     OW93249   3.475   9.565   2.410  0.5495  0.2445  0.4355
62045SOL    HW193250   3.399   9.598   2.363 -1.1490 -1.0363  2.1204
62045SOL    HW293251   3.542   9.554   2.343  0.2838  4.1121 -0.6944
62046SOL     OW93252  10.518   2.026   1.125 -0.2463  0.5871  0.7664
62046SOL    HW193253  10.447   2.023   1.190 -0.7486  1.4201  0.2793
62046SOL    HW293254  10.543   2.119   1.122  0.1787  0.4556  0.2046
62047SOL     OW93255   4.262   0.445   3.669 -0.9300 -0.0825 -0.2379
62047SOL    HW193256   4.334   0.382   3.658  0.2385  1.0186  0.7859
62047SOL    HW293257   4.183   0.393   3.654 -0.1330 -2.2338  2.1098
62048SOL     OW93258   0.547   0.366   2.904 -0.2533  0.6666 -0.4939
62048SOL    HW193259   0.634   0.332   2.927 -1.3280 -2.0562 -0.0059
62048SOL    HW293260   0.507   0.388   2.989 -0.6016  0.3582 -0.5752
62049SOL     OW93261   8.190   6.205   8.739 -0.8056 -0.2262  0.0779
62049SOL    HW193262   8.161   6.117   8.766  2.3919 -1.5468 -0.3655
62049SOL    HW293263   8.249   6.233   8.809  0.0843  0.5093 -0.9386
62050SOL     OW93264   6.020   3.553   1.189  0.6714  0.4772 -0.2339
62050SOL    HW193265   5.988   3.570   1.277 -0.4043  0.7280 -0.6487
62050SOL    HW293266   6.014   3.638   1.144 -1.0772 -0.0891 -1.2089
62051SOL     OW93267   0.176  12.923   6.729 -0.2736 -0.3809  0.1552
62051SOL    HW193268   0.163  13.018   6.731 -1.6512 -0.5583  0.4755
62051SOL    HW293269   0.201  12.904   6.639  2.6272  0.5627  0.6392
62052SOL     OW93270   1.760   4.839   9.068 -0.0001 -0.2924 -0.1812
62052SOL    HW193271   1.716   4.770   9.118 -1.4200  1.4681  1.1586
62052SOL    HW293272   1.729   4.828   8.978 -0.1988 -1.3753  0.0064
62053SOL     OW93273   9.287   3.448  11.887 -0.4276 -0.2839  0.4796
62053SOL    HW193274   9.357   3.385  11.872  0.5649  0.2405  2.5551
62053SOL    HW293275   9.310   3.523  11.833 -0.3730 -0.7947 -0.2215
62054SOL     OW93276  11.496   2.999   6.381  0.3759  0.3435 -0.2874
62054SOL    HW193277  11.509   2.907   6.359 -0.8244  0.2581 -0.7592
62054SOL    HW293278  11.420   2.998   6.440  1.0551  0.9386  0.6058
62055SOL     OW93279   3.234   3.105  11.765 -0.2718 -0.5760 -0.2265
62055SOL    HW193280   3.161   3.090  11.826  0.6149 -0.3853  0.9127
62055SOL    HW293281   3.236   3.026  11.711  0.4756 -1.9059  1.6437
62056SOL     OW93282  11.235   5.481  12.662 -0.3381  0.2463 -0.4872
62056SOL    HW193283  11.166   5.535  12.623 -1.1471 -0.6026 -0.2665
62056SOL    HW293284  11.244   5.515  12.751 -0.7080  0.1345 -0.4081
62057SOL     OW93285  11.858  10.996   2.651  0.2553  0.1211  0.1596
62057SOL    HW193286  11.925  10.944   2.607 -2.0376 -2.1617 -0.8565
62057SOL    HW293287  11.856  11.079   2.603  1.1926 -0.4222 -0.8601
62058SOL     OW93288   3.801   3.726  11.088  0.5088  0.4037  0.4095
62058SOL    HW193289   3.777   3.727  11.180 -1.4545  1.4808 -0.0647
62058SOL    HW293290   3.795   3.818  11.060  2.4877  0.3232 -0.4774
62059SOL     OW93291   5.050   7.178   6.468  0.3750  0.2489  0.2757
62059SOL    HW193292   5.016   7.096   6.432  2.5850  0.3361 -2.4264
62059SOL    HW293293   5.100   7.151   6.546 -1.7720 -0.4304  1.4920
62060SOL     OW93294   2.109   3.605  11.807 -0.3592 -0.2293 -0.3668
62060SOL    HW193295   2.085   3.558  11.887  0.1195  1.2357  0.6766
62060SOL    HW293296   2.204   3.606  11.808 -0.2627 -1.9540 -2.0587
62061SOL     OW93297   4.935  11.845   0.242  0.5226  0.2268 -0.4919
62061SOL    HW193298   5.019  11.802   0.258  0.8689  1.1023  0.0918
62061SOL    HW293299   4.896  11.856   0.329  0.4237  1.0598 -0.6336
62062SOL     OW93300   7.532   8.937   9.419  0.1444  0.0352  0.4055
62062SOL    HW193301   7.544   8.849   9.454  0.1908 -0.0790  0.1046
62062SOL    HW293302   7.460   8.973   9.470  0.6356  0.1064  1.0614
62063SOL     OW93303  11.699   3.121   7.595  0.2103  0.5059  0.3024
62063SOL    HW193304  11.689   3.189   7.662  0.1469  1.1141 -0.3062
62063SOL    HW293305  11.766   3.063   7.629  1.7609  2.0101 -0.0532
62064SOL     OW93306   9.760  10.745   4.396 -0.1697 -0.4553 -0.1116
62064SOL    HW193307   9.830  10.681   4.387  1.4694  1.0721  1.1238
62064SOL    HW293308   9.765  10.798   4.316  0.8455  0.3387  0.4631
62065SOL     OW93309   8.695   5.105   1.819  0.4761 -0.0309 -0.0798
62065SOL    HW193310   8.627   5.102   1.887  0.7603 -1.6293  0.1690
62065SOL    HW293311   8.654   5.154   1.748  0.5898  2.7637  1.6123
62066SOL     OW93312   8.247  10.400  10.014  0.4306  0.2592 -0.2034
62066SOL    HW193313   8.220  10.351   9.936 -2.6941 -0.2272  1.0385
62066SOL    HW293314   8.335  10.366  10.034  0.2676 -1.4449 -2.0376
62067SOL     OW93315  11.282   1.066  12.930 -0.2645  0.0007 -0.0559
62067SOL    HW193316  11.261   1.010  13.004 -0.9699 -0.3579 -0.5072
62067SOL    HW293317  11.361   1.028  12.892 -0.0982 -0.0145  0.3059
62068SOL     OW93318   4.506  12.598   0.911 -0.3309  0.0288 -0.5062
62068SOL    HW193319   4.427  12.635   0.949 -0.1195  1.5006 -1.4008
62068SOL    HW293320   4.577  12.626   0.969 -0.4037 -1.0282  0.1239
62069SOL     OW93321   8.809   7.143   3.999  0.5752 -0.4448 -0.0393
62069SOL    HW193322   8.807   7.230   4.039  1.1423 -1.0627  1.4119
62069SOL    HW293323   8.878   7.149   3.933 -0.1102  0.4937 -0.6940
62070SOL     OW93324  12.574   0.793  12.448  0.4128  0.2100  0.0605
62070SOL    HW193325  12.479   0.799  12.444  0.3962  0.1479  0.3142
62070SOL    HW293326  12.601   0.871  12.498  0.4944  0.2368 -0.0256
62071SOL     OW93327   5.123   2.854   7.510 -0.0990  0.6064  0.2126
62071SOL    HW193328   5.066   2.821   7.440  0.4859 -1.5452  0.6696
62071SOL    HW293329   5.069   2.914   7.559 -0.8672  1.3224 -1.4271
62072SOL     OW93330   6.412   3.567   1.381 -0.1716  0.3369 -0.2044
62072SOL    HW193331   6.371   3.639   1.333 -0.8673 -0.0998 -0.2824
62072SOL    HW293332   6.352   3.493   1.369  1.0608 -0.5597 -1.0098
62073SOL     OW93333   4.786   0.439  10.596  0.0316 -0.5220 -0.2656
62073SOL    HW193334   4.701   0.475  10.570 -0.4343 -0.8333  0.7598
62073SOL    HW293335   4.767   0.391  10.676  0.9974 -1.4723 -0.5964
62074SOL     OW93336  11.918  11.601   3.201  0.1341 -0.1025  0.5607
62074SOL    HW193337  11.910  11.669   3.267  0.7491  0.6342 -0.0973
62074SOL    HW293338  11.894  11.644   3.119  0.6421 -0.6343  0.1185
62075SOL     OW93339   9.028   9.744   9.362  0.4541 -0.2675 -0.1144
62075SOL    HW193340   8.982   9.709   9.438  1.8905 -0.2559  0.7757
62075SOL    HW293341   8.958   9.780   9.307 -0.5819  0.0956  1.3846
62076SOL     OW93342   2.534   6.965   3.434  0.2368  0.0382 -0.0204
62076SOL    HW193343   2.528   6.955   3.529 -0.5293  0.0296 -0.0669
62076SOL    HW293344   2.490   7.048   3.415  0.6962  0.2177 -0.3383
62077SOL     OW93345   2.306   3.361   2.936  0.1591  0.7969 -0.0295
62077SOL    HW193346   2.394   3.345   2.902 -0.2600  2.6258 -2.1670
62077SOL    HW293347   2.254   3.289   2.901  0.0976  1.7210 -1.9891
62078SOL     OW93348   8.850   6.366  10.212 -0.5876  0.8986  0.3766
62078SOL    HW193349   8.895   6.372  10.128 -1.7673  2.2016 -0.1923
62078SOL    HW293350   8.808   6.451  10.223 -3.9729 -0.6254  0.2707
62079SOL     OW93351  11.131  11.004   0.275 -0.1521 -0.3027 -0.2415
62079SOL    HW193352  11.098  10.949   0.346  1.5180 -0.2155  0.6547
62079SOL    HW293353  11.058  11.061   0.252 -0.3575  0.5820  2.3403
62080SOL     OW93354   9.676  10.427  12.933  0.2196  0.5447  0.2110
62080SOL    HW193355   9.671  10.517  12.964 -0.4760  0.5139  0.1998
62080SOL    HW293356   9.722  10.380  13.003  1.7395  1.1424 -0.3423
62081SOL     OW93357   9.751   6.575   1.355  0.2130  0.4529  0.5369
62081SOL    HW193358   9.784   6.650   1.306  0.3225  0.0273 -0.0588
62081SOL    HW293359   9.824   6.549   1.411  0.5320  0.1741  0.0042
62082SOL     OW93360   3.706   7.369  11.580  0.0865  0.4964  0.3613
62082SOL    HW193361   3.663   7.372  11.665  2.5539  2.3154  1.6569
62082SOL    HW293362   3.694   7.458  11.544 -0.0253  0.0514 -0.7564
62083SOL     OW93363   4.591  10.580   2.512 -0.4353  0.0263  0.1518
62083SOL    HW193364   4.516  10.560   2.568 -0.6391  0.7096  0.1332
62083SOL    HW293365   4.625  10.495   2.486 -2.2022 -0.3146 -1.1802
62084SOL     OW93366   4.407   0.309  11.961  0.3682 -0.1726  0.2683
62084SOL    HW193367   4.368   0.224  11.983 -0.3001  0.0748  0.0874
62084SOL    HW293368   4.498   0.290  11.943  0.1296 -0.9191 -0.1823
62085SOL     OW93369   8.115  11.574   1.571 -0.2754 -0.0063  0.5091
62085SOL    HW193370   8.092  11.607   1.484  0.0638  1.1146  0.8308
62085SOL    HW293371   8.206  11.546   1.562 -0.6147 -1.0464  0.1924
62086SOL     OW93372   8.921   6.558  12.859 -0.4520  0.1191  0.8782
62086SOL    HW193373   8.941   6.575  12.951  0.5062 -1.6369  1.0266
62086SOL    HW293374   9.006   6.550  12.817 -0.8832  0.4846 -0.0898
62087SOL     OW93375  11.918  10.955  10.332  0.3868  0.2555  0.1994
62087SOL    HW193376  11.933  11.019  10.401  0.0397  0.8916 -0.3027
62087SOL    HW293377  11.958  10.875  10.365  0.7609  0.7066  0.8736
62088SOL     OW93378   9.564   3.641   0.463  0.0831 -0.0887 -0.3798
62088SOL    HW193379   9.626   3.570   0.443  0.0542 -0.6104  1.2317
62088SOL    HW293380   9.478   3.604   0.442  0.0798 -0.5139  0.3257
62089SOL     OW93381   9.599   1.439   9.401  0.2981  0.5424 -0.8849
62089SOL    HW193382   9.510   1.468   9.423  0.4086  0.8762 -0.8775
62089SOL    HW293383   9.630   1.394   9.480  0.4181  1.0873 -0.6210
62090SOL     OW93384   0.406  10.622   5.237  0.0314 -0.3020  0.4178
62090SOL    HW193385   0.498  10.601   5.223  0.0574  0.4236 -0.6652
62090SOL    HW293386   0.365  10.606   5.151 -1.0567 -1.6021  1.1378
62091SOL     OW93387   6.008   4.173   7.003 -0.5380  0.3395  0.1429
62091SOL    HW193388   6.067   4.181   6.928 -1.4282 -0.4815 -0.6836
62091SOL    HW293389   6.065   4.145   7.075  0.1597  0.0223 -0.5118
62092SOL     OW93390   4.075  11.472  11.849  0.5266 -0.5231  0.1061
62092SOL    HW193391   4.025  11.394  11.871 -0.6826  0.5940  1.5245
62092SOL    HW293392   4.092  11.515  11.933 -2.3174  2.7852 -0.7777
62093SOL     OW93393   7.019   7.004   8.173 -0.2378  0.9465  0.1377
62093SOL    HW193394   7.114   7.009   8.169 -0.2446  0.9699  0.0021
62093SOL    HW293395   6.997   6.922   8.129 -0.3830  1.7500 -1.3385
62094SOL     OW93396   7.679  12.390  11.042  0.5460  0.5351 -0.4656
62094SOL    HW193397   7.640  12.353  10.962 -0.0962  2.0950 -0.9007
62094SOL    HW293398   7.771  12.403  11.020  0.3689  0.9725 -0.9624
62095SOL     OW93399   9.741   6.894   9.444 -0.2513  0.1162 -0.0238
62095SOL    HW193400   9.777   6.939   9.520 -3.1535 -1.2754  2.3694
62095SOL    HW293401   9.745   6.958   9.373  0.6074  2.2317  1.8295
62096SOL     OW93402   0.063   6.639   3.281  0.1147 -0.4311 -0.3354
62096SOL    HW193403   0.043   6.710   3.342 -0.6255 -0.7966 -0.1454
62096SOL    HW293404   0.157   6.624   3.292  0.0296 -0.3640  0.5818
62097SOL     OW93405   3.803   1.162   9.013  0.7473  0.2041  0.2273
62097SOL    HW193406   3.843   1.248   9.009  0.4868  0.2989 -0.3743
62097SOL    HW293407   3.850   1.117   9.084  2.0353  0.2446 -0.5654
62098SOL     OW93408   4.353   1.365   4.918  0.0995 -0.4256 -0.5338
62098SOL    HW193409   4.293   1.291   4.932  0.9357 -1.2895 -1.4029
62098SOL    HW293410   4.419   1.332   4.858  2.2913  0.0488  1.4616
62099SOL     OW93411  10.553   5.194   5.943  0.3555 -0.3875 -0.0651
62099SOL    HW193412  10.472   5.143   5.952  1.1473 -1.8040 -0.5769
62099SOL    HW293413  10.570   5.227   6.032  0.0989 -1.4958  0.4183
62100SOL     OW93414  10.517  10.094  10.280  0.2959 -0.1806  0.3367
62100SOL    HW193415  10.444  10.113  10.338 -0.6705 -1.2351 -0.4752
62100SOL    HW293416  10.574  10.035  10.329  0.8517  0.9758  1.1241
62101SOL     OW93417   2.328   4.530   8.369 -0.1449 -0.1940  0.0326
62101SOL    HW193418   2.244   4.552   8.328 -2.1972 -1.7689  3.0392
62101SOL    HW293419   2.319   4.438   8.393  3.8050 -1.4420 -2.3081
62102SOL     OW93420   7.529   4.138   0.243 -0.0644  0.2398  0.1683
62102SOL    HW193421   7.505   4.110   0.331 -0.6606 -1.8818 -0.6064
62102SOL    HW293422   7.508   4.063   0.188 -0.3184  1.7451 -1.8921
62103SOL     OW93423   0.134   7.361   1.901 -0.1923 -0.5185  0.0560
62103SOL    HW193424   0.218   7.373   1.945  0.0350  1.8035 -0.9006
62103SOL    HW293425   0.071   7.351   1.972  0.4761  0.8690  0.8831
62104SOL     OW93426  12.446   1.539   8.117 -0.1784 -0.4358 -0.1471
62104SOL    HW193427  12.455   1.497   8.203  1.5679  0.0559 -0.0528
62104SOL    HW293428  12.506   1.614   8.121  1.3650 -1.4628 -2.4283
62105SOL     OW93429   5.815   3.864   2.069 -0.0814  0.3245  0.0250
62105SOL    HW193430   5.737   3.848   2.123 -1.2474 -0.8751 -1.8825
62105SOL    HW293431   5.828   3.958   2.072 -1.5072  0.5218  0.5509
62106SOL     OW93432  12.313   9.364   4.765  0.2145 -0.6866  0.4093
62106SOL    HW193433  12.287   9.411   4.685  0.5501  0.6462  1.0675
62106SOL    HW293434  12.273   9.413   4.836 -1.0655 -2.5230  1.0532
62107SOL     OW93435   7.316   5.561  10.874 -0.2419 -0.2298 -0.4986
62107SOL    HW193436   7.300   5.474  10.911 -0.2617 -0.9337 -2.0986
62107SOL    HW293437   7.285   5.555  10.784 -0.5249  1.5406 -0.5521
62108SOL     OW93438   6.956   3.156  12.150 -0.2630  0.1413 -0.2381
62108SOL    HW193439   6.882   3.182  12.096 -0.8059 -0.0653  0.3947
62108SOL    HW293440   7.021   3.123  12.088  0.0638  2.0416 -0.9963
62109SOL     OW93441   6.933   4.341   1.242 -0.4578  0.3204  0.0993
62109SOL    HW193442   6.950   4.249   1.226 -1.2811 -0.3476  2.6636
62109SOL    HW293443   6.844   4.343   1.278 -0.3117  2.0749  0.4416
62110SOL     OW93444   5.511   8.531   2.203 -0.6324  0.3460  0.7811
62110SOL    HW193445   5.594   8.578   2.194 -1.0645  0.8926 -0.5371
62110SOL    HW293446   5.522   8.478   2.282  0.9702  0.4082  0.6237
62111SOL     OW93447   7.249   2.725  11.098 -0.1132  0.2007  0.2074
62111SOL    HW193448   7.223   2.800  11.044 -0.6500  0.4072  0.7348
62111SOL    HW293449   7.273   2.657  11.035  1.8701  1.2952 -0.2838
62112SOL     OW93450   5.057   8.046   4.006  0.3407  0.2247  0.0129
62112SOL    HW193451   5.050   7.952   4.018  0.5468  0.2089  0.0146
62112SOL    HW293452   5.109   8.076   4.080 -0.7458  0.5065  0.6810
62113SOL     OW93453  11.489   7.921   0.390  0.4707 -0.2252  0.1379
62113SOL    HW193454  11.533   7.945   0.308  0.8299 -0.0231  0.3919
62113SOL    HW293455  11.508   7.828   0.401  0.4727 -0.2385  0.0295
62114SOL     OW93456  10.136   5.236  10.701  0.2367 -0.3817 -0.7221
62114SOL    HW193457  10.055   5.260  10.655 -0.1852 -0.5745 -0.0809
62114SOL    HW293458  10.202   5.229  10.631 -0.3226 -0.3397 -1.2581
62115SOL     OW93459   9.187  11.280   9.286 -0.1219 -0.1812  0.4542
62115SOL    HW193460   9.112  11.329   9.252 -1.3837 -1.5031  1.2166
62115SOL    HW293461   9.174  11.191   9.255  0.5775 -0.6519  1.4599
62116SOL     OW93462   8.968   2.979   2.919 -0.7027 -0.3524 -0.5916
62116SOL    HW193463   9.034   2.968   2.851  0.1868 -2.2247  0.4792
62116SOL    HW293464   9.003   3.048   2.976 -1.3814  1.1165 -1.8852
62117SOL     OW93465   5.217  10.076   4.055 -0.0796  0.1644 -0.4559
62117SOL    HW193466   5.220   9.999   3.998  1.8815 -0.4517  0.4089
62117SOL    HW293467   5.307  10.089   4.083 -0.8836  0.7172  2.1689
62118SOL     OW93468   6.774  11.244   1.408 -0.3830 -0.1349  0.6980
62118SOL    HW193469   6.787  11.339   1.413  0.9976 -0.3145  0.9482
62118SOL    HW293470   6.859  11.207   1.430 -0.7909 -1.4325  0.1904
62119SOL     OW93471   2.545   7.360   8.010  0.0405 -0.3352 -0.7108
62119SOL    HW193472   2.551   7.320   8.097 -0.4761  1.1386  0.0355
62119SOL    HW293473   2.492   7.298   7.959 -2.1259  0.0952  0.8733
62120SOL     OW93474  10.415   5.651   6.249 -0.2117 -0.0459 -0.3380
62120SOL    HW193475  10.406   5.696   6.333  0.5500 -1.3544  0.4811
62120SOL    HW293476  10.330   5.609   6.234 -1.0123  1.7614 -1.2262
62121SOL     OW93477   7.942   9.905   6.199 -0.5164 -0.0885  0.0563
62121SOL    HW193478   7.860   9.902   6.150 -1.3326 -0.6974  1.4123
62121SOL    HW293479   7.962   9.814   6.218  0.0802  0.1007  0.3559
62122SOL     OW93480   6.166   0.597   4.478 -0.1048  0.1924 -0.0480
62122SOL    HW193481   6.082   0.612   4.434  0.2208  1.6261 -0.2369
62122SOL    HW293482   6.156   0.637   4.564 -0.8700 -2.9430  1.4582
62123SOL     OW93483   2.495   2.204  10.444  0.2981 -0.5816 -0.2681
62123SOL    HW193484   2.531   2.257  10.516  0.7634 -0.8476 -0.3040
62123SOL    HW293485   2.567   2.197  10.381  1.0089 -3.0464  0.6844
62124SOL     OW93486  11.840   8.888   5.539 -0.0944 -0.7797 -0.0379
62124SOL    HW193487  11.896   8.965   5.541  0.3055 -1.0712  1.1153
62124SOL    HW293488  11.874   8.834   5.468  0.8176 -0.7504  0.3737
62125SOL     OW93489   4.977  12.255   6.618 -0.6920 -0.0238  0.1752
62125SOL    HW193490   5.028  12.186   6.662 -0.4446  0.2071  0.2545
62125SOL    HW293491   4.959  12.219   6.532  1.1529  0.5851 -0.5222
62126SOL     OW93492   7.578   6.090   8.152 -0.2909 -0.0103 -0.7721
62126SOL    HW193493   7.528   6.020   8.110 -0.8252 -0.3192  0.3400
62126SOL    HW293494   7.648   6.045   8.199 -0.2767  0.2444 -0.5457
62127SOL     OW93495   4.396   9.676   9.116  0.4578 -0.0685  0.1917
62127SOL    HW193496   4.431   9.706   9.200 -1.0838  0.0791  0.8023
62127SOL    HW293497   4.446   9.596   9.097  1.9727  0.7823  0.4030
62128SOL     OW93498   9.799   5.148   1.081  0.3911 -0.4490 -0.1923
62128SOL    HW193499   9.856   5.210   1.035  0.2260 -0.4446 -0.3951
62128SOL    HW293500   9.827   5.062   1.049  1.2038 -0.5490  0.7369
62129SOL     OW93501   4.584   4.142   0.708  0.6704  0.0363 -0.7373
62129SOL    HW193502   4.669   4.098   0.712  0.3569 -0.7821 -2.3108
62129SOL    HW293503   4.522   4.073   0.684 -0.4884  0.5893  0.5312
62130SOL     OW93504   0.821  12.890  11.055  0.2600  0.1583 -0.4065
62130SOL    HW193505   0.764  12.822  11.018 -0.7875  0.1866  1.0468
62130SOL    HW293506   0.847  12.855  11.141  0.1136  1.3534  0.1486
62131SOL     OW93507   2.554   0.506  12.531  0.5022  0.4300 -0.1437
62131SOL    HW193508   2.644   0.479  12.511  1.2644  1.8693  1.0518
62131SOL    HW293509   2.548   0.595  12.495 -0.5728  0.2131 -0.5200
62132SOL     OW93510   7.122   9.099   9.736 -0.5723  0.9296 -0.2515
62132SOL    HW193511   7.041   9.148   9.725 -0.4432  1.5242  1.2121
62132SOL    HW293512   7.109   9.049   9.817  1.2184  2.5406  1.1175
62133SOL     OW93513   4.006   2.845  12.299  0.4004 -0.1490  0.4247
62133SOL    HW193514   4.014   2.888  12.384 -1.4222 -2.4940  1.9292
62133SOL    HW293515   4.093   2.851  12.260  1.1870  1.3647  2.2567
62134SOL     OW93516   2.557   8.773   9.100  0.1868  0.3785  0.3968
62134SOL    HW193517   2.522   8.841   9.042  0.1724  0.9141  1.0222
62134SOL    HW293518   2.649   8.763   9.073 -0.2523 -0.6398 -0.8846
62135SOL     OW93519   9.691   1.549   8.052  0.4243 -0.1820  0.1060
62135SOL    HW193520   9.768   1.552   7.995 -0.6899  1.8395 -1.3965
62135SOL    HW293521   9.663   1.458   8.050  2.0599 -0.7064 -0.2822
62136SOL     OW93522   1.918   1.679   6.934  0.0142  0.9555 -0.1793
62136SOL    HW193523   1.978   1.752   6.951  0.9624  0.6415 -1.8994
62136SOL    HW293524   1.875   1.702   6.851 -1.9261  0.9256  0.7530
62137SOL     OW93525  11.501  10.484  10.775  0.6612  0.2580  0.5669
62137SOL    HW193526  11.445  10.429  10.720  1.2823 -1.8712  1.9771
62137SOL    HW293527  11.452  10.494  10.857  0.2243  2.5152  0.1011
62138SOL     OW93528   9.141   9.481   3.045  0.6696  0.0308 -0.5735
62138SOL    HW193529   9.133   9.574   3.062  0.6449 -0.1394  0.4483
62138SOL    HW293530   9.056   9.455   3.010  0.1537  0.1235  0.5634
62139SOL     OW93531   1.551   2.717   2.455  0.2768 -0.1128 -0.0853
62139SOL    HW193532   1.516   2.628   2.450 -0.8991  0.1706  2.0101
62139SOL    HW293533   1.498   2.767   2.393 -0.5789 -0.4403  0.3644
62140SOL     OW93534   6.178   4.478   0.515  0.8213  0.0973  0.7549
62140SOL    HW193535   6.151   4.499   0.604 -1.3918 -1.3902  0.5460
62140SOL    HW293536   6.260   4.431   0.525  1.1904  0.9453  1.8947
62141SOL     OW93537   5.873   5.234  11.583 -0.3273  0.6669  0.1817
62141SOL    HW193538   5.955   5.267  11.545  0.0537  1.9786  2.0091
62141SOL    HW293539   5.860   5.148  11.542  1.7979  0.5658 -0.3901
62142SOL     OW93540   0.325  10.547   0.797 -0.2896 -0.6043 -0.0327
62142SOL    HW193541   0.391  10.578   0.734 -0.8769 -1.1764 -0.9595
62142SOL    HW293542   0.328  10.611   0.868  1.1041 -0.4981 -0.1581
62143SOL     OW93543   9.200   1.681   1.508 -0.3596 -0.6255 -0.3441
62143SOL    HW193544   9.231   1.721   1.426 -1.2113 -0.2485 -0.4941
62143SOL    HW293545   9.250   1.600   1.515 -0.6958 -0.9578 -1.5610
62144SOL     OW93546   5.406   7.467   5.854  0.0054 -0.0799  0.1860
62144SOL    HW193547   5.471   7.484   5.785  0.6973 -0.8510  0.6214
62144SOL    HW293548   5.432   7.383   5.891 -1.1247 -0.2937  0.5337
62145SOL     OW93549   7.882  12.610   3.023 -0.6503 -0.0756  0.2366
62145SOL    HW193550   7.838  12.555   2.958 -0.7305 -0.5325  0.6671
62145SOL    HW293551   7.964  12.636   2.981 -0.6413 -0.4724 -0.0034
62146SOL     OW93552  10.934   1.933   7.038  0.0868  0.0328 -0.0083
62146SOL    HW193553  10.845   1.918   7.005 -0.3343 -1.4335  1.6599
62146SOL    HW293554  10.991   1.904   6.967 -0.6890  2.0961 -1.5801
62147SOL     OW93555   1.884   6.900   4.888  0.6973 -0.4457  0.1747
62147SOL    HW193556   1.843   6.984   4.908  0.5122 -0.6533  0.6894
62147SOL    HW293557   1.936   6.879   4.966 -0.5957 -1.6109  0.7871
62148SOL     OW93558   3.384   9.725   1.379 -0.6616  0.1222 -0.2356
62148SOL    HW193559   3.477   9.710   1.395  0.3153  3.6490 -1.4956
62148SOL    HW293560   3.366   9.680   1.297  0.7526  1.5245 -1.3968
62149SOL     OW93561   0.492   4.947   8.664 -0.1550  0.0538 -0.3372
62149SOL    HW193562   0.419   4.896   8.700  0.3344 -0.5403 -0.1735
62149SOL    HW293563   0.542   4.884   8.612 -0.4158  0.7274 -1.4327
62150SOL     OW93564   5.967   5.376   7.764  0.5303 -0.0568 -0.1525
62150SOL    HW193565   5.938   5.414   7.681 -1.0650 -0.1135  0.3481
62150SOL    HW293566   5.910   5.415   7.830  1.6084 -0.2028  0.9002
62151SOL     OW93567   6.081   0.507   2.863  0.4723  0.4907 -0.2927
62151SOL    HW193568   6.111   0.566   2.794 -1.5178  2.2819  0.2976
62151SOL    HW293569   6.105   0.552   2.945  1.3333 -0.8367  0.2269
62152SOL     OW93570   5.717   6.948   9.878  0.4131  0.2831  0.1510
62152SOL    HW193571   5.683   6.913   9.960  0.3159 -0.0305 -0.0232
62152SOL    HW293572   5.654   7.017   9.855 -0.3461 -0.5594 -0.3719
62153SOL     OW93573  10.778   5.291   8.310  0.1597 -0.6213 -0.5097
62153SOL    HW193574  10.811   5.212   8.352  0.8332 -0.4347 -0.6658
62153SOL    HW293575  10.797   5.361   8.373 -0.4947 -0.5893 -0.3438
62154SOL     OW93576  10.586   5.597   1.898  0.4276 -0.1130  0.1328
62154SOL    HW193577  10.658   5.657   1.875  0.3481  0.9205  2.3746
62154SOL    HW293578  10.627   5.511   1.902  1.5598  0.4455  1.2394
62155SOL     OW93579   6.828   5.693  10.213 -0.2580 -0.0313  0.0952
62155SOL    HW193580   6.749   5.671  10.262  0.5757  0.7275  1.8736
62155SOL    HW293581   6.894   5.631  10.244 -0.3630 -1.4026 -2.1939
62156SOL     OW93582   5.226   1.787  12.421  0.1113  0.0188 -0.2009
62156SOL    HW193583   5.234   1.692  12.418 -1.9298 -0.2122 -0.1347
62156SOL    HW293584   5.240   1.809  12.513  0.4568 -0.2417 -0.1920
62157SOL     OW93585   2.702   1.666   9.954  0.3039 -0.3257  0.5826
62157SOL    HW193586   2.709   1.571   9.941  0.3938  0.0170 -2.5432
62157SOL    HW293587   2.615   1.678   9.992  0.6635 -1.6756  1.9716
62158SOL     OW93588   3.927   5.033   3.888  0.3582 -0.2579 -0.8178
62158SOL    HW193589   3.905   4.942   3.867  0.5236 -0.4564 -0.1451
62158SOL    HW293590   4.007   5.026   3.940 -0.2198  0.2051  0.1569
62159SOL     OW93591  11.279   8.296   6.003  0.3549  0.2859  0.0102
62159SOL    HW193592  11.337   8.225   6.029  0.4449 -0.1498 -1.2857
62159SOL    HW293593  11.239   8.265   5.921  0.0022  1.5132 -0.3020
62160SOL     OW93594   3.981   7.127   0.617 -0.2652  0.6190  0.7370
62160SOL    HW193595   3.890   7.112   0.642 -0.7675  3.0926  0.6513
62160SOL    HW293596   4.002   7.055   0.558 -2.9431  1.1926 -1.0888
62161SOL     OW93597   5.581  12.508   5.575 -0.3977  0.1550 -0.3262
62161SOL    HW193598   5.496  12.514   5.619 -0.5093 -0.4693 -0.4482
62161SOL    HW293599   5.629  12.585   5.605 -0.9512  0.4292 -0.1357
62162SOL     OW93600   4.958   2.561  10.296  0.0069 -0.1100 -0.0309
62162SOL    HW193601   4.868   2.593  10.300  0.2521  0.5559  0.3214
62162SOL    HW293602   4.952   2.469  10.319 -0.6656 -0.2314 -0.6632
62163SOL     OW93603   3.137   9.777   7.669  0.2077 -0.3123 -0.3565
62163SOL    HW193604   3.064   9.784   7.732  0.0371 -0.8711 -0.4858
62163SOL    HW293605   3.112   9.835   7.597 -0.2695 -0.7471 -0.5477
62164SOL     OW93606   4.048  10.970   3.832  0.4073 -0.5802 -0.3667
62164SOL    HW193607   4.013  10.883   3.852  1.9871 -1.1627 -0.0083
62164SOL    HW293608   4.118  10.982   3.895  0.6923  0.6537 -0.8994
62165SOL     OW93609   4.825  10.354   4.441  0.3910  0.3295  0.0434
62165SOL    HW193610   4.824  10.322   4.531 -0.0479 -2.1013 -0.7447
62165SOL    HW293611   4.885  10.295   4.395 -0.8466  0.2749 -1.6288
62166SOL     OW93612   4.702   4.234   3.055  0.1628  0.1467  0.2153
62166SOL    HW193613   4.610   4.230   3.080 -0.4607  0.9526 -1.7376
62166SOL    HW293614   4.725   4.327   3.060  0.3641  0.1729 -0.9120
62167SOL     OW93615  10.595   7.074   5.928 -0.0656 -0.5491  0.4549
62167SOL    HW193616  10.623   7.078   5.837 -1.1735 -0.3881  0.1036
62167SOL    HW293617  10.593   7.165   5.957 -2.6339 -0.2589 -0.3321
62168SOL     OW93618  12.805  11.076  11.002  0.0510  0.5131  0.2717
62168SOL    HW193619  12.734  11.085  11.066  0.7430 -1.2405  1.3446
62168SOL    HW293620  12.761  11.084  10.917 -1.5837 -1.1293  0.8866
62169SOL     OW93621   0.600   6.866   8.275 -0.4469  0.2548  0.2460
62169SOL    HW193622   0.588   6.854   8.181 -0.5280 -0.2968  0.3257
62169SOL    HW293623   0.688   6.902   8.284  1.3489 -3.6886  0.2279
62170SOL     OW93624  11.551   4.088   3.121  0.0254 -0.2949  0.7493
62170SOL    HW193625  11.561   4.011   3.176  2.5301  0.4880  1.5517
62170SOL    HW293626  11.504   4.151   3.177  1.4727  0.0717  1.6159
62171SOL     OW93627  11.327   7.430   2.286  0.0113  0.1606 -0.6837
62171SOL    HW193628  11.260   7.435   2.355  0.6186 -1.7484  0.0991
62171SOL    HW293629  11.281   7.454   2.206 -1.7492 -1.4141 -0.2183
62172SOL     OW93630   5.140   0.388   1.171 -0.3421  0.4222  0.2447
62172SOL    HW193631   5.094   0.345   1.243 -0.0034  0.8131  0.6955
62172SOL    HW293632   5.231   0.392   1.200 -0.4350  1.8468  0.4115
62173SOL     OW93633   1.730   4.143   5.447 -0.2552 -0.4227 -0.5663
62173SOL    HW193634   1.790   4.103   5.510 -1.9827 -1.8567  0.2502
62173SOL    HW293635   1.740   4.237   5.462 -1.3127 -0.6899  2.6364
62174SOL     OW93636   9.138   8.400   3.483  0.0661 -0.0264 -0.3710
62174SOL    HW193637   9.043   8.412   3.475 -0.4966 -2.1892  1.7907
62174SOL    HW293638   9.159   8.432   3.571  1.0497 -0.9679 -0.2395
62175SOL     OW93639  12.242   3.209   6.513  0.2483 -0.0694  0.1656
62175SOL    HW193640  12.313   3.155   6.549 -0.1317 -0.4797  0.3145
62175SOL    HW293641  12.168   3.193   6.572 -0.2838 -0.4694 -0.5904
62176SOL     OW93642   2.887   1.066  11.250  0.2893 -0.1803 -0.2559
62176SOL    HW193643   2.934   1.081  11.168  1.0883  0.4918  0.3162
62176SOL    HW293644   2.879   0.971  11.256 -1.7369 -0.2257 -2.1832
62177SOL     OW93645  11.830   1.111   0.004 -0.6710  0.0930 -0.5574
62177SOL    HW193646  11.804   1.174  -0.063 -1.4026  1.2378  0.7535
62177SOL    HW293647  11.758   1.113   0.068  0.6346  0.0696  0.9740
62178SOL     OW93648   9.140   7.649   1.762 -0.1494  0.6645  0.5385
62178SOL    HW193649   9.053   7.687   1.746 -0.3636  0.3585  0.9543
62178SOL    HW293650   9.193   7.723   1.792 -1.0898  0.3169  3.2825
62179SOL     OW93651   5.967   8.672   3.287  0.4319 -0.3914  0.0103
62179SOL    HW193652   6.043   8.701   3.237  0.6931  0.5444  0.9028
62179SOL    HW293653   5.899   8.735   3.266  0.6648  0.2563  1.1069
62180SOL     OW93654   6.349  10.175   6.635 -0.1947  0.0029 -0.3244
62180SOL    HW193655   6.311  10.098   6.593 -1.0049  0.3924 -0.3327
62180SOL    HW293656   6.284  10.202   6.699  1.0103 -0.5541  1.1857
62181SOL     OW93657   9.040   7.152   9.574 -0.4647  0.4201 -0.0862
62181SOL    HW193658   9.087   7.082   9.528  0.7456  1.7284 -0.9195
62181SOL    HW293659   9.086   7.162   9.657  0.3908  1.3028 -0.6534
62182SOL     OW93660   7.411   3.192   7.630 -0.0778 -0.0104  0.3908
62182SOL    HW193661   7.399   3.111   7.580 -1.1041 -0.0589  0.6942
62182SOL    HW293662   7.333   3.197   7.685  0.1950  0.9603  0.6928
62183SOL     OW93663   3.105   0.096   2.480  0.3198  0.3532 -0.2166
62183SOL    HW193664   3.149   0.148   2.547 -0.3083  0.2619  0.2759
62183SOL    HW293665   3.177   0.054   2.432  0.7758  0.2469  0.5363
62184SOL     OW93666   3.475   0.971  12.326 -0.2401 -0.2073 -0.2872
62184SOL    HW193667   3.414   0.991  12.397  1.1793 -0.8767  1.1616
62184SOL    HW293668   3.519   1.054  12.308  0.7504 -0.4340  0.9680
62185SOL     OW93669   2.359  12.057  10.665  0.4929  0.3002 -0.3462
62185SOL    HW193670   2.426  12.126  10.669  1.2724 -0.5061  1.9024
62185SOL    HW293671   2.322  12.055  10.753 -2.3174  0.4658 -1.4121
62186SOL     OW93672  12.930   3.889   1.132  0.3669  0.2249 -0.1821
62186SOL    HW193673  12.860   3.854   1.078  1.2724 -0.7010 -0.7919
62186SOL    HW293674  12.998   3.915   1.070  2.0363 -2.1786  0.4804
62187SOL     OW93675   4.749  12.497  11.975  0.3403  0.3991  0.3609
62187SOL    HW193676   4.751  12.418  11.922 -0.2237  0.8274 -0.3233
62187SOL    HW293677   4.753  12.569  11.911  1.5000  0.9320  0.9929
62188SOL     OW93678   6.095   6.865   2.249  0.0707 -0.3415 -0.0615
62188SOL    HW193679   6.040   6.939   2.276 -0.3419 -0.6641 -0.0120
62188SOL    HW293680   6.184   6.900   2.252 -0.0310 -0.1345  0.9120
62189SOL     OW93681  11.904  10.132  11.011  0.6471  0.3182 -0.3671
62189SOL    HW193682  11.943  10.213  10.977  2.5300 -0.9075 -1.2686
62189SOL    HW293683  11.868  10.157  11.097  0.1286  2.3484 -1.0973
62190SOL     OW93684   4.457   1.769   4.574 -0.1158 -0.3027  0.0380
62190SOL    HW193685   4.513   1.778   4.496  0.3006 -1.9546  0.1175
62190SOL    HW293686   4.494   1.832   4.636  1.1730 -0.7754 -0.2081
62191SOL     OW93687  10.196   8.801   6.717  0.2427  0.0516  0.2854
62191SOL    HW193688  10.221   8.874   6.774  0.2107  1.3313 -1.2842
62191SOL    HW293689  10.101   8.791   6.731  0.3744 -0.2189  1.0598
62192SOL     OW93690  10.500   3.208   3.605  0.4733 -0.3602  0.7547
62192SOL    HW193691  10.430   3.178   3.663  0.6915  1.5688  2.0951
62192SOL    HW293692  10.511   3.300   3.626  0.4900  0.5060 -2.4932
62193SOL     OW93693   0.817  12.324   9.338 -0.0153  0.3514 -0.0672
62193SOL    HW193694   0.757  12.289   9.273  0.9802 -0.3127 -0.6399
62193SOL    HW293695   0.781  12.296   9.422 -0.3915 -0.2163 -0.4194
62194SOL     OW93696   5.431   5.484   1.843  0.3877  0.1635 -0.0551
62194SOL    HW193697   5.353   5.467   1.791  1.1039 -0.0085 -1.1226
62194SOL    HW293698   5.476   5.399   1.846  1.4253  0.6446 -1.0298
62195SOL     OW93699   3.237   4.090  10.552 -0.5789  0.2090  0.3560
62195SOL    HW193700   3.187   4.012  10.526 -0.0178 -0.2686  0.6842
62195SOL    HW293701   3.185   4.164  10.520 -1.4101 -0.2816  0.5511
62196SOL     OW93702   3.684  11.929   9.997  0.5324 -0.1353  0.5861
62196SOL    HW193703   3.613  11.992   9.987  0.9296  0.6739  2.4154
62196SOL    HW293704   3.728  11.929   9.912  0.8315  2.4717  0.6729
62197SOL     OW93705  12.951   4.100   6.927  0.0171 -0.6588  0.4540
62197SOL    HW193706  12.946   4.172   6.864  0.9738 -0.6550  0.3582
62197SOL    HW293707  13.031   4.117   6.976 -0.8257 -0.5574  1.8227
62198SOL     OW93708   0.456  12.781   3.384  0.1539 -0.2714 -0.3474
62198SOL    HW193709   0.417  12.818   3.462  0.1261 -0.0744 -0.4547
62198SOL    HW293710   0.420  12.833   3.312  1.7691  0.9187 -0.3539
62199SOL     OW93711   9.970  12.164  11.380  0.1116  0.2563  0.6051
62199SOL    HW193712   9.994  12.083  11.426 -1.8429  0.3626  1.9379
62199SOL    HW293713   9.965  12.230  11.449 -0.7020  0.9385 -0.0788
62200SOL     OW93714   8.607   2.672   9.023 -0.1555 -0.2077  0.2326
62200SOL    HW193715   8.656   2.688   8.942 -1.5348  0.3574 -0.5081
62200SOL    HW293716   8.558   2.592   9.007 -0.8399  0.1915  0.3169
62201SOL     OW93717   9.948   8.273   8.381  0.3168 -0.4125 -0.2938
62201SOL    HW193718   9.922   8.185   8.355 -1.0312 -0.7214  1.8437
62201SOL    HW293719   9.865   8.318   8.401  0.8993  1.6469 -2.0968
62202SOL     OW93720   0.626   9.688   8.401  0.2153 -0.2210  0.1176
62202SOL    HW193721   0.675   9.633   8.340  0.4294 -0.0283  0.1145
62202SOL    HW293722   0.535   9.663   8.388  0.2520 -0.1324 -0.3300
62203SOL     OW93723   4.877   1.899  12.459  0.0384  0.6516 -0.1954
62203SOL    HW193724   4.961   1.920  12.420  1.0395  0.1874  1.6294
62203SOL    HW293725   4.874   1.803  12.459 -0.5863  0.6652 -0.4104
62204SOL     OW93726   1.213   3.886   3.873 -0.7543 -0.3305 -0.6170
62204SOL    HW193727   1.280   3.950   3.848 -0.2674 -1.1458 -1.4539
62204SOL    HW293728   1.162   3.874   3.793 -1.4118 -0.3084 -0.2023
62205SOL     OW93729   8.492   2.621   7.323  0.0737  0.6004 -0.2071
62205SOL    HW193730   8.529   2.534   7.339 -1.5019 -0.2119 -0.7403
62205SOL    HW293731   8.405   2.603   7.289  0.0940  2.3955 -1.2953
62206SOL     OW93732  12.901  11.767   5.566 -0.0077 -0.0680 -0.3988
62206SOL    HW193733  12.814  11.730   5.577  0.3791 -0.8719 -0.0064
62206SOL    HW293734  12.952  11.697   5.524  0.6635  0.0913  0.1312
62207SOL     OW93735  10.274  10.318   9.902 -0.0456 -0.0639  0.0979
62207SOL    HW193736  10.235  10.377   9.838 -0.0123 -0.2321 -0.0787
62207SOL    HW293737  10.368  10.320   9.883 -0.0946 -0.5376 -0.2193
62208SOL     OW93738   5.364   6.455  12.327 -0.0792 -0.0919  0.3850
62208SOL    HW193739   5.407   6.481  12.245  1.6124 -0.1922  1.2001
62208SOL    HW293740   5.331   6.537  12.364 -0.5084  0.0051 -0.2092
62209SOL     OW93741   7.815   6.026  12.420  0.1409  0.1442  0.0245
62209SOL    HW193742   7.888   5.995  12.368 -0.3087 -0.1855 -0.4137
62209SOL    HW293743   7.794   6.112  12.383 -0.1648 -0.0808 -0.3300
62210SOL     OW93744   6.412   9.489  11.472  0.1621  0.2743 -0.3645
62210SOL    HW193745   6.408   9.408  11.421  1.9972 -0.7739  1.0052
62210SOL    HW293746   6.321   9.517  11.481 -0.3988 -0.8905 -2.0189
62211SOL     OW93747   0.677   5.957   7.617 -0.1671 -0.5987 -0.0419
62211SOL    HW193748   0.717   5.924   7.697 -1.8065  0.1545  1.1329
62211SOL    HW293749   0.707   5.896   7.549 -0.0917 -2.2545  1.4058
62212SOL     OW93750  10.239  10.138  11.072  0.3279  0.0320 -0.4143
62212SOL    HW193751  10.264  10.224  11.038  0.6359  0.2681  0.3789
62212SOL    HW293752  10.316  10.083  11.058  1.2594  0.6800  1.7541
62213SOL     OW93753   9.457   8.226   5.445  0.1939 -0.6326 -0.7861
62213SOL    HW193754   9.548   8.252   5.430 -0.1892  1.5552  0.3075
62213SOL    HW293755   9.440   8.249   5.536 -1.5806 -0.6760 -1.0708
62214SOL     OW93756   3.231   5.835  11.106  0.0753  0.0575  0.4726
62214SOL    HW193757   3.195   5.922  11.087 -1.5776 -1.0585 -1.9382
62214SOL    HW293758   3.308   5.828  11.050 -1.4199 -1.0121 -1.5773
62215SOL     OW93759  10.412  12.894   7.139 -0.1501  0.1668  0.3491
62215SOL    HW193760  10.425  12.817   7.193  2.3582  0.0178 -0.3075
62215SOL    HW293761  10.484  12.953   7.164 -0.4799  1.1727 -0.9645
62216SOL     OW93762  10.912   5.817   0.035 -0.2359 -0.1048 -0.1432
62216SOL    HW193763  10.894   5.805   0.128 -1.7064  0.5644 -0.3095
62216SOL    HW293764  10.981   5.883   0.031  1.4456 -1.7346  0.5026
62217SOL     OW93765   1.761   3.958  10.159 -0.0543  0.5003 -0.7458
62217SOL    HW193766   1.717   4.029  10.112  1.7863  2.3731  0.2018
62217SOL    HW293767   1.825   3.925  10.096  0.6927  1.3170 -0.4427
62218SOL     OW93768   8.531  10.994   8.078  0.2730 -0.5327 -0.1473
62218SOL    HW193769   8.607  10.972   8.131  0.4517 -0.2252 -0.2702
62218SOL    HW293770   8.540  10.939   8.000  0.0038 -0.9921  0.1445
62219SOL     OW93771   0.420   6.581   8.028 -0.2748  0.0849  0.3279
62219SOL    HW193772   0.328   6.607   8.028  0.3039  2.4739 -1.1502
62219SOL    HW293773   0.467   6.662   8.007  1.9937 -1.5434 -1.3282
62220SOL     OW93774  11.765   6.688   3.910  0.2878  0.1366  0.1988
62220SOL    HW193775  11.689   6.665   3.963  0.4980 -0.1102  0.3941
62220SOL    HW293776  11.809   6.605   3.893  0.4954  0.2737  0.0584
62221SOL     OW93777   8.706   2.908  10.851  0.0549  0.1584 -0.2095
62221SOL    HW193778   8.792   2.944  10.869  0.0308  0.8312 -1.3396
62221SOL    HW293779   8.720   2.813  10.845  0.4500  0.1245  0.9552
62222SOL     OW93780   9.123   7.487   9.443  0.2342  0.2858 -0.1396
62222SOL    HW193781   9.130   7.539   9.362 -0.5538  1.2933  0.4295
62222SOL    HW293782   9.085   7.404   9.414 -0.4337  0.7896 -0.7477
62223SOL     OW93783  11.494  11.040   4.400  0.1655 -0.1455 -0.0083
62223SOL    HW193784  11.446  11.113   4.439  2.4412  0.2470  2.3508
62223SOL    HW293785  11.498  10.974   4.469  1.0078 -1.0939 -0.9236
62224SOL     OW93786   0.336   3.395   1.416 -0.1835 -0.0710 -0.2525
62224SOL    HW193787   0.278   3.429   1.484  1.2408 -0.6453  1.2973
62224SOL    HW293788   0.396   3.467   1.397  1.0532 -0.7207  1.0127
62225SOL     OW93789   8.995   8.798  10.085  0.5062 -0.0338  0.2761
62225SOL    HW193790   8.985   8.763   9.997  0.8576  0.5847 -0.0110
62225SOL    HW293791   8.985   8.722  10.142 -0.0397 -0.3858 -0.2767
62226SOL     OW93792  11.693  11.767   6.980 -0.1194 -0.2027  0.3951
62226SOL    HW193793  11.626  11.820   7.023  0.0829 -0.1573  0.6560
62226SOL    HW293794  11.718  11.819   6.903 -0.5099 -0.3055  0.1961
62227SOL     OW93795   1.918   3.281   0.436  0.0670  0.2071 -0.3311
62227SOL    HW193796   1.939   3.295   0.343 -3.1105  0.6313 -1.1044
62227SOL    HW293797   1.934   3.188   0.450  1.7060  0.3528 -0.9231
62228SOL     OW93798   2.092   0.476   7.819  0.2678  0.0459  0.0575
62228SOL    HW193799   2.027   0.466   7.888  0.5036 -1.2502  0.1136
62228SOL    HW293800   2.114   0.569   7.819 -0.2025  0.1657  1.3003
62229SOL     OW93801   3.401   3.476  12.622 -0.1090  0.0384  0.0367
62229SOL    HW193802   3.375   3.534  12.693  2.2346  2.0104 -0.5827
62229SOL    HW293803   3.385   3.527  12.542 -2.0655 -1.8740 -0.8719
62230SOL     OW93804  10.572  12.111  10.868  0.2505  0.6000  0.3555
62230SOL    HW193805  10.563  12.090  10.960 -1.8097 -1.8838 -0.2978
62230SOL    HW293806  10.533  12.199  10.859 -0.3548  0.4847  1.6950
62231SOL     OW93807  11.707   6.862   2.803  0.1620  0.4460  0.1583
62231SOL    HW193808  11.625   6.911   2.793  0.8778  1.6276 -0.0499
62231SOL    HW293809  11.689   6.800   2.874 -1.2464 -0.0426 -0.5937
62232SOL     OW93810   2.221   3.942   1.210 -0.5780  0.1822  0.5056
62232SOL    HW193811   2.155   3.873   1.198 -1.6116  1.2211  0.0287
62232SOL    HW293812   2.288   3.901   1.265 -0.6029 -1.5632 -0.6825
62233SOL     OW93813  12.327   4.344   4.103  0.1410 -0.0224 -0.2533
62233SOL    HW193814  12.254   4.334   4.042 -0.6946  0.8484  0.5549
62233SOL    HW293815  12.325   4.265   4.157  0.6234 -0.6012 -1.0705
62234SOL     OW93816   6.897   8.194   1.736 -0.5310 -0.0148  0.1269
62234SOL    HW193817   6.887   8.108   1.775 -0.5669 -0.3305 -0.5640
62234SOL    HW293818   6.811   8.215   1.700 -0.0988 -0.4657 -1.2452
62235SOL     OW93819   3.135   0.776  11.080 -0.0426 -0.2314  0.3347
62235SOL    HW193820   3.063   0.745  11.024  1.0984 -1.5921 -0.4464
62235SOL    HW293821   3.202   0.708  11.072  0.6507  0.1487  2.4321
62236SOL     OW93822   3.467   9.881  11.829 -0.0191  0.0889  0.2956
62236SOL    HW193823   3.519   9.899  11.751 -1.3985  0.0348 -0.6759
62236SOL    HW293824   3.477   9.787  11.844 -1.7972 -0.4507 -1.4235
62237SOL     OW93825   7.672   4.328   2.829 -0.3669  0.7910 -0.2035
62237SOL    HW193826   7.639   4.330   2.919  2.0475  0.7572  0.7563
62237SOL    HW293827   7.678   4.420   2.804 -0.1056  0.8462  0.0542
62238SOL     OW93828  12.033   0.596  11.771 -0.1729 -0.6899  0.2619
62238SOL    HW193829  11.981   0.553  11.839 -0.2098  0.3971  0.9540
62238SOL    HW293830  12.124   0.575  11.792 -0.2734 -2.4277 -0.8342
62239SOL     OW93831   7.427  12.421   3.359  0.2192  0.2408 -0.2617
62239SOL    HW193832   7.494  12.485   3.384 -0.3475  1.5645 -1.9218
62239SOL    HW293833   7.390  12.392   3.442  0.2447  2.3933  0.5663
62240SOL     OW93834   7.213   8.026   8.398 -0.0083 -0.2602  0.2384
62240SOL    HW193835   7.259   8.009   8.481  1.6405 -0.9672 -0.7546
62240SOL    HW293836   7.272   7.991   8.331 -1.6585 -0.4120 -1.1943
62241SOL     OW93837   6.205   1.196  10.667  0.3146  0.0865  0.8909
62241SOL    HW193838   6.262   1.266  10.637  1.2738 -1.0328  0.0324
62241SOL    HW293839   6.243   1.169  10.751  2.3066 -1.9664 -0.5708
62242SOL     OW93840   9.139   4.262   7.688 -0.1991  0.2402 -0.3343
62242SOL    HW193841   9.148   4.274   7.593 -0.9036  0.9783 -0.3165
62242SOL    HW293842   9.102   4.344   7.719  0.7869  0.3086  0.7069
62243SOL     OW93843   2.432   0.635   3.448 -0.2505  0.7066  0.2882
62243SOL    HW193844   2.415   0.654   3.540  0.7823 -0.9683  0.8828
62243SOL    HW293845   2.494   0.703   3.420 -0.8834  1.4620  0.6984
62244SOL     OW93846  12.576   6.970   9.651 -0.2092 -0.4106  0.0630
62244SOL    HW193847  12.549   6.914   9.724  0.6277 -1.2744 -0.2643
62244SOL    HW293848  12.593   6.909   9.579  0.5086  0.2826 -0.3724
62245SOL     OW93849   4.872   4.871  10.647  0.0175 -0.0824  0.3813
62245SOL    HW193850   4.863   4.817  10.725  1.4704 -0.7274  0.1427
62245SOL    HW293851   4.855   4.960  10.676  3.8683  0.2393  2.3228
62246SOL     OW93852  12.009   4.044  11.563 -0.7657 -0.0485  0.6997
62246SOL    HW193853  11.929   4.020  11.610 -1.1930  0.1333  0.0675
62246SOL    HW293854  11.999   4.005  11.476 -0.0774 -0.1924  0.6806
62247SOL     OW93855   7.036  10.868   4.664  0.8220  0.3413  0.4609
62247SOL    HW193856   6.974  10.825   4.723  0.6414 -0.6759 -0.4251
62247SOL    HW293857   7.111  10.809   4.662  1.1364  0.7458  0.2488
62248SOL     OW93858   8.216   6.987   5.619 -0.0939  0.4277 -0.6919
62248SOL    HW193859   8.191   6.939   5.540  0.9747 -1.0281 -0.2092
62248SOL    HW293860   8.287   6.935   5.656  0.2747  1.7644  0.5582
62249SOL     OW93861   2.857   3.306   6.321  0.2017 -0.3227  0.2984
62249SOL    HW193862   2.942   3.282   6.285  0.3138  0.4184  0.0341
62249SOL    HW293863   2.843   3.396   6.289  0.6294  0.6622  2.6498
62250SOL     OW93864   5.739  12.905   8.365 -0.0588 -0.1061 -0.4991
62250SOL    HW193865   5.655  12.862   8.349 -0.4773  0.4020  0.2479
62250SOL    HW293866   5.802  12.856   8.313 -0.6927 -0.9756 -0.4647
62251SOL     OW93867   4.128   0.101  11.546 -0.0593 -0.6819  0.4617
62251SOL    HW193868   4.066   0.071  11.480 -0.2370  1.5646 -0.5026
62251SOL    HW293869   4.080   0.169  11.594  1.6995  1.4859 -0.6334
62252SOL     OW93870   4.393   3.289  10.974  0.0353 -0.6138  0.5541
62252SOL    HW193871   4.353   3.360  11.024  0.5676 -0.2649  0.4957
62252SOL    HW293872   4.486   3.313  10.969 -0.0940 -0.3039 -1.1212
62253SOL     OW93873  11.696   5.690  11.409  0.5368 -0.0258  0.6646
62253SOL    HW193874  11.661   5.629  11.474 -0.5597 -0.5426 -0.3591
62253SOL    HW293875  11.787   5.663  11.397  0.0978 -1.4447  0.3036
62254SOL     OW93876   4.655   3.967  11.730  0.4365  0.0096 -0.0562
62254SOL    HW193877   4.600   3.961  11.652  0.1013  1.2634  0.0637
62254SOL    HW293878   4.641   3.884  11.775  1.9681 -1.5009 -2.1478
62255SOL     OW93879  10.171   4.540   9.539 -0.4462 -0.1836 -0.6695
62255SOL    HW193880  10.227   4.574   9.608 -0.7381  1.7287 -1.3074
62255SOL    HW293881  10.230   4.525   9.465 -0.3718 -0.7729 -0.4968
62256SOL     OW93882   4.572   5.572   8.419 -0.6433  0.5364 -0.1910
62256SOL    HW193883   4.590   5.620   8.500 -0.1589  1.8961 -1.0642
62256SOL    HW293884   4.510   5.504   8.444 -1.3381  1.6186  1.1223
62257SOL     OW93885  10.206  12.067   4.505 -0.4647  0.2055  0.0533
62257SOL    HW193886  10.287  12.016   4.505 -0.4222  0.2697  0.3298
62257SOL    HW293887  10.228  12.148   4.550 -0.5538  0.4357 -0.3109
62258SOL     OW93888   1.676   6.019   1.288 -0.2367  0.1954  0.1702
62258SOL    HW193889   1.715   6.106   1.286 -2.5167  1.2846 -0.0255
62258SOL    HW293890   1.718   5.972   1.216  3.4889 -0.1103  2.2818
62259SOL     OW93891   5.293   7.352   5.459 -0.2536 -0.2529  0.1652
62259SOL    HW193892   5.307   7.261   5.487  0.2888 -0.6184 -1.1783
62259SOL    HW293893   5.372   7.373   5.409 -1.2979  0.2413 -1.3193
62260SOL     OW93894  10.595  12.573  12.698 -0.4066 -0.4628 -0.0602
62260SOL    HW193895  10.654  12.643  12.670 -0.0523  0.5770  2.8940
62260SOL    HW293896  10.510  12.616  12.708  0.0426 -0.0127  2.8431
62261SOL     OW93897   7.037   5.647  10.962  0.3217  0.1333 -0.6312
62261SOL    HW193898   7.044   5.742  10.956  0.5345  0.4249  2.5104
62261SOL    HW293899   7.127   5.617  10.977 -0.1305 -0.0840  2.1389
62262SOL     OW93900   5.163   7.183   2.137  0.6745 -0.5982  0.2305
62262SOL    HW193901   5.217   7.154   2.063  0.6816  1.9008 -0.8229
62262SOL    HW293902   5.140   7.273   2.116  0.0183 -0.0570  2.9482
62263SOL     OW93903  12.326   3.387   3.962 -0.2115 -0.1492 -0.0927
62263SOL    HW193904  12.380   3.387   3.882  0.3009  1.7556  0.2096
62263SOL    HW293905  12.236   3.393   3.930 -0.1853 -1.8434 -0.5640
62264SOL     OW93906   0.573   5.507  10.860 -0.1680  0.0204  0.4538
62264SOL    HW193907   0.657   5.482  10.897 -0.0074 -2.2255 -1.2265
62264SOL    HW293908   0.524   5.425  10.852 -1.7737  0.9937 -0.3824
62265SOL     OW93909  12.591  10.194  11.355  0.3551  0.4441 -0.2261
62265SOL    HW193910  12.587  10.113  11.303  0.7345 -0.1004  0.5721
62265SOL    HW293911  12.675  10.233  11.332  0.7177 -0.0195  0.2956
62266SOL     OW93912  10.360   8.016   9.732  0.3353  0.4902  0.0341
62266SOL    HW193913  10.264   8.008   9.732  0.3219  0.6085 -0.5225
62266SOL    HW293914  10.390   7.941   9.681  0.4802  1.0475 -0.7144
62267SOL     OW93915   0.707   0.139  11.839  0.5565 -0.5230  0.4336
62267SOL    HW193916   0.637   0.090  11.796 -1.1273  0.4406  1.9252
62267SOL    HW293917   0.702   0.113  11.931 -0.1495  2.0278  1.2139
62268SOL     OW93918   5.833   1.589   4.837 -0.2811  0.1687 -0.5530
62268SOL    HW193919   5.776   1.513   4.844 -0.9693  0.7742  0.8781
62268SOL    HW293920   5.922   1.554   4.847 -0.6869 -0.2636  2.5382
62269SOL     OW93921   4.777   1.567  12.746 -0.5112  0.4613  0.5994
62269SOL    HW193922   4.849   1.506  12.759 -0.2508  0.6245 -0.0126
62269SOL    HW293923   4.774   1.619  12.825 -0.4005  0.0007  0.9110
62270SOL     OW93924  12.673  11.868   4.012 -0.0541 -0.6242 -0.3598
62270SOL    HW193925  12.679  11.960   4.035  0.5962 -0.4959 -1.0003
62270SOL    HW293926  12.761  11.845   3.982 -0.4423 -1.1996 -1.0949
62271SOL     OW93927   4.842   0.207   2.145 -0.5251  0.0425  0.0802
62271SOL    HW193928   4.764   0.240   2.189  0.1137  0.4533  0.9225
62271SOL    HW293929   4.808   0.169   2.063 -1.5226  0.8385  0.0987
62272SOL     OW93930   2.393  11.903  10.232  0.5942 -0.8924 -0.0437
62272SOL    HW193931   2.356  11.916  10.319 -2.2742 -0.7685 -1.1683
62272SOL    HW293932   2.346  11.965  10.176  1.7082 -1.5657 -1.8215
62273SOL     OW93933  12.493   7.770   8.304  0.4885  0.2113 -0.4387
62273SOL    HW193934  12.407   7.727   8.312  1.0567 -0.6574  1.4940
62273SOL    HW293935  12.474   7.862   8.321  0.0334 -0.0986  0.8741
62274SOL     OW93936   2.980   7.977   6.587  0.2278  0.0482 -0.0868
62274SOL    HW193937   2.985   7.960   6.492  0.2073  0.3541 -0.1415
62274SOL    HW293938   3.047   8.043   6.604  1.0965 -0.9020  0.3278
62275SOL     OW93939   5.851  10.728   5.959 -0.0281 -0.7466  0.1759
62275SOL    HW193940   5.933  10.686   5.983  0.2515  0.6518  1.9001
62275SOL    HW293941   5.876  10.815   5.928 -0.8462 -0.1820  1.0313
62276SOL     OW93942   3.334  10.827  12.009 -0.6005 -0.0987  0.1791
62276SOL    HW193943   3.294  10.762  11.952 -0.8950  0.7396 -0.6054
62276SOL    HW293944   3.414  10.786  12.042 -0.4321 -0.6002 -0.8435
62277SOL     OW93945   7.024   4.943   5.438 -0.3000 -0.6510  0.1660
62277SOL    HW193946   7.058   4.857   5.413  2.7308  0.5674 -0.3670
62277SOL    HW293947   6.966   4.968   5.366 -0.6293 -1.9098 -0.0234
62278SOL     OW93948  12.503   5.229   5.616  0.3523  0.0398  0.5580
62278SOL    HW193949  12.452   5.197   5.690 -0.5777 -0.2673 -0.2073
62278SOL    HW293950  12.456   5.306   5.585 -1.0006 -1.5377 -1.5810
62279SOL     OW93951   1.981   8.029  12.873 -0.1299 -0.4128  0.0592
62279SOL    HW193952   1.900   7.979  12.888  1.1059 -1.7289  3.1740
62279SOL    HW293953   1.981   8.096  12.941  1.4234 -0.4890  0.1744
62280SOL     OW93954   2.455  11.426  10.040  1.0695 -0.5163 -0.1627
62280SOL    HW193955   2.428  11.512  10.071  2.0973  0.0381 -0.7599
62280SOL    HW293956   2.394  11.407   9.968 -0.0198 -0.9132  0.8264
62281SOL     OW93957   1.689   8.817   8.364  0.0850  0.0310  0.1934
62281SOL    HW193958   1.662   8.728   8.342 -0.3389  0.2537 -0.1905
62281SOL    HW293959   1.686   8.865   8.282 -0.1522  0.5185  0.4800
62282SOL     OW93960  10.401  12.861   7.660  0.0685  0.2431  0.3838
62282SOL    HW193961  10.314  12.900   7.672  0.1482  0.1342  1.3823
62282SOL    HW293962  10.383  12.770   7.634 -0.1143  0.1614  0.7964
62283SOL     OW93963   5.992   4.706   6.479  0.3513  0.3958  0.4524
62283SOL    HW193964   5.904   4.692   6.515 -0.2008  0.5585 -0.7944
62283SOL    HW293965   5.977   4.741   6.392  1.5352 -3.5387 -1.5792
62284SOL     OW93966   8.493   2.394  11.244 -0.2737 -0.0806 -0.3071
62284SOL    HW193967   8.485   2.426  11.154 -1.9949  0.7460  0.0938
62284SOL    HW293968   8.465   2.468  11.298  0.2523 -0.7334  0.9037
62285SOL     OW93969  10.533   2.502   9.302  0.0615  0.3723  0.1328
62285SOL    HW193970  10.566   2.539   9.220  2.2113 -1.7479 -0.0691
62285SOL    HW293971  10.611   2.496   9.358 -0.9498 -0.2949  1.5299
62286SOL     OW93972  12.351   8.731   1.413  0.1219 -0.0894  0.0388
62286SOL    HW193973  12.432   8.782   1.424  0.1453 -0.1318  0.0672
62286SOL    HW293974  12.378   8.641   1.429  0.1328 -0.1411 -0.2689
62287SOL     OW93975  10.991   1.301   0.588  0.1207 -0.5369 -0.4997
62287SOL    HW193976  10.965   1.232   0.649 -0.1836 -0.3245 -0.3863
62287SOL    HW293977  10.909   1.346   0.566  0.1642 -0.8938 -1.4086
62288SOL     OW93978  10.686   7.455   5.688  0.2984 -0.2378  0.3428
62288SOL    HW193979  10.697   7.378   5.632  0.2190  0.0744 -0.1027
62288SOL    HW293980  10.592   7.467   5.694  0.2603 -0.8683  1.3764
62289SOL     OW93981  11.084   6.365   0.140  0.0071  0.8242  0.2678
62289SOL    HW193982  11.173   6.329   0.130 -0.1573  0.4213  0.2584
62289SOL    HW293983  11.090   6.453   0.102  0.3481  0.7148  0.0605
62290SOL     OW93984   8.464   8.056   7.846  0.4399  0.0368 -0.1069
62290SOL    HW193985   8.431   8.067   7.935 -0.1370  1.0577 -0.4310
62290SOL    HW293986   8.483   7.962   7.839  3.8048  0.3717  2.2051
62291SOL     OW93987   3.468   6.772   9.441 -0.0700 -0.4756  0.2926
62291SOL    HW193988   3.526   6.841   9.408 -1.3720  0.0129 -1.0988
62291SOL    HW293989   3.518   6.691   9.429  1.4556  0.1644  1.8791
62292SOL     OW93990   2.717   8.126   2.994  0.4980 -0.1732 -0.0985
62292SOL    HW193991   2.762   8.170   2.923 -0.2727 -0.5946 -0.8655
62292SOL    HW293992   2.667   8.056   2.952 -0.7949  0.2061  0.7097
62293SOL     OW93993  10.481   0.525   9.929  0.1396  0.5304 -0.2701
62293SOL    HW193994  10.513   0.440   9.958 -1.9880  0.1804  1.3134
62293SOL    HW293995  10.424   0.505   9.854  1.0681  0.7962 -1.0668
62294SOL     OW93996   7.715   0.948   6.448  0.2739 -0.7636 -0.4554
62294SOL    HW193997   7.719   0.946   6.352  0.5923  1.1590 -0.5154
62294SOL    HW293998   7.797   0.989   6.475 -0.5048  0.1944  0.5358
62295SOL     OW93999  10.888   0.726   9.204  0.7536  0.1904 -0.3047
62295SOL    HW194000  10.969   0.717   9.154  0.2378 -0.5116 -1.0311
62295SOL    HW294001  10.902   0.673   9.282  1.1847  0.4891 -0.1742
62296SOL     OW94002   2.412   2.045   9.645 -0.2390  0.1179  0.0769
62296SOL    HW194003   2.440   2.073   9.558 -2.0364  0.3086 -0.4948
62296SOL    HW294004   2.322   2.015   9.632 -0.7693  0.7473  1.9864
62297SOL     OW94005   2.205  11.053   3.075 -0.0222  0.4730  0.4160
62297SOL    HW194006   2.130  10.995   3.062 -0.8644  1.7715 -0.8308
62297SOL    HW294007   2.186  11.129   3.022  1.0915  1.8839  1.9309
62298SOL     OW94008   1.846   2.642  11.680 -0.0383 -0.5319  0.4924
62298SOL    HW194009   1.835   2.709  11.748  0.8167  0.2117 -0.0830
62298SOL    HW294010   1.926   2.668  11.634 -1.7747  0.2621 -2.2564
62299SOL     OW94011   6.904   5.616   3.708  0.2343 -0.5649  0.2420
62299SOL    HW194012   6.871   5.577   3.788 -0.6816 -0.0609  0.1248
62299SOL    HW294013   6.861   5.702   3.703  1.3871  0.0268 -0.0442
62300SOL     OW94014   2.048   3.659   5.653  0.0406 -0.1205 -0.9462
62300SOL    HW194015   1.978   3.602   5.685  1.1016 -0.8027  0.2428
62300SOL    HW294016   2.107   3.601   5.605  1.4957 -0.2116  0.8576
62301SOL     OW94017   4.440  10.372   9.709  0.1833  0.2058  0.2523
62301SOL    HW194018   4.488  10.310   9.764  0.4891 -0.1112 -0.3657
62301SOL    HW294019   4.380  10.318   9.658  0.1079  0.4666  0.0614
62302SOL     OW94020   0.313   8.334  11.927 -0.2408 -0.0191 -0.2938
62302SOL    HW194021   0.312   8.429  11.917 -0.4321 -0.0442 -0.5256
62302SOL    HW294022   0.404   8.313  11.947  0.0550  0.0965 -1.4258
62303SOL     OW94023  12.914   3.165   9.824 -0.4089 -0.1792  0.1285
62303SOL    HW194024  12.976   3.178   9.753  0.6662 -0.1306  1.0467
62303SOL    HW294025  12.922   3.244   9.877 -0.5405 -0.5973  0.7778
62304SOL     OW94026  10.846   5.016   3.954  0.8711 -0.5270 -0.0852
62304SOL    HW194027  10.794   5.065   4.018 -0.7515 -2.0141 -0.2098
62304SOL    HW294028  10.799   5.028   3.871  0.1382 -2.6165 -0.0328
62305SOL     OW94029  12.156   9.806   9.675  0.3467  0.3749 -0.4963
62305SOL    HW194030  12.122   9.822   9.763  0.1076 -1.7637 -0.1314
62305SOL    HW294031  12.102   9.734   9.642  0.0510  1.5091 -2.6416
62306SOL     OW94032   1.312  12.285  12.883  0.2546 -0.4911  0.0765
62306SOL    HW194033   1.399  12.306  12.848  0.5598 -1.9222 -0.0871
62306SOL    HW294034   1.257  12.359  12.857  1.1413 -0.1635 -0.9419
62307SOL     OW94035  12.728   1.577   3.425  0.9080 -0.6878 -0.3147
62307SOL    HW194036  12.744   1.658   3.472 -0.0558 -0.9957  0.5883
62307SOL    HW294037  12.774   1.588   3.342  0.5472  0.9034 -0.3345
62308SOL     OW94038   3.939   1.126   7.418  0.3231 -0.1669  0.0873
62308SOL    HW194039   3.887   1.112   7.498  0.2323 -0.5314 -0.0300
62308SOL    HW294040   4.026   1.092   7.441  0.1460 -0.8029 -0.1458
62309SOL     OW94041   1.670  10.886   6.852 -0.0760  0.2057  0.3527
62309SOL    HW194042   1.582  10.877   6.890  0.1438  0.0071  0.8185
62309SOL    HW294043   1.676  10.813   6.790 -0.1316  0.0437  0.5354
62310SOL     OW94044   7.812   7.734   0.291  0.4853 -0.4315  0.1642
62310SOL    HW194045   7.761   7.667   0.247 -0.6554  0.3799  0.2003
62310SOL    HW294046   7.857   7.781   0.221 -0.4717  0.1609 -0.0805
62311SOL     OW94047  12.640   9.003   4.718 -0.2426  0.4753  0.1873
62311SOL    HW194048  12.569   9.053   4.758 -0.8998  0.1924 -0.5945
62311SOL    HW294049  12.633   9.021   4.624  0.0674 -0.3692 -0.0123
62312SOL     OW94050  12.618  10.997   5.969 -0.6877  0.2886 -0.0995
62312SOL    HW194051  12.586  11.074   5.922 -1.6694  0.2218  0.4379
62312SOL    HW294052  12.711  10.991   5.945 -0.6411  1.5267 -0.3000
62313SOL     OW94053  12.875   9.783  10.339 -0.0265  0.0616 -0.7068
62313SOL    HW194054  12.939   9.728  10.385  0.0164 -1.0193 -1.9813
62313SOL    HW294055  12.791   9.759  10.378 -0.0734 -1.3671 -1.6131
62314SOL     OW94056   2.875   8.969   0.154  0.6526  0.2869  0.4985
62314SOL    HW194057   2.861   8.896   0.215 -0.7673  0.4562  0.4168
62314SOL    HW294058   2.913   9.038   0.208 -0.2910  0.3227  1.1517
62315SOL     OW94059   4.133   9.697   7.026 -0.0862  0.7362  0.2670
62315SOL    HW194060   4.178   9.674   7.107  0.7473  0.6580 -0.2145
62315SOL    HW294061   4.049   9.651   7.032  0.4161 -0.1584  0.5985
62316SOL     OW94062  10.392   9.719   9.583  0.5984 -0.5632  0.0573
62316SOL    HW194063  10.349   9.673   9.510  0.8907 -1.7782  0.6311
62316SOL    HW294064  10.450   9.781   9.540 -0.2694 -0.2719 -0.7444
62317SOL     OW94065   3.647   3.349   5.813  0.2617  0.0021  0.0341
62317SOL    HW194066   3.560   3.385   5.794 -0.4938 -1.0309  1.3507
62317SOL    HW294067   3.638   3.255   5.795  0.8021 -0.2716  1.1290
62318SOL     OW94068   6.545   1.583  10.222  0.2471 -0.0684 -0.1611
62318SOL    HW194069   6.538   1.662  10.276 -0.6442 -0.5006  0.3798
62318SOL    HW294070   6.559   1.512  10.285  1.9935 -0.2619 -0.6993
62319SOL     OW94071   9.376   8.993  12.181 -0.6227 -0.0786 -0.3294
62319SOL    HW194072   9.419   8.995  12.095 -0.8420 -0.2286 -0.4453
62319SOL    HW294073   9.298   9.047  12.170 -0.8699 -0.4358 -0.3467
62320SOL     OW94074   8.869   0.785  10.339  0.0295 -0.0794 -0.0691
62320SOL    HW194075   8.939   0.810  10.399  0.3758 -1.3308  0.0913
62320SOL    HW294076   8.790   0.823  10.377  0.5536  0.9573  0.0006
62321SOL     OW94077  12.486   8.156   4.189  0.0587 -0.2376 -0.6467
62321SOL    HW194078  12.469   8.132   4.098  0.4692 -1.5086 -0.4078
62321SOL    HW294079  12.453   8.082   4.240 -3.6154  1.9851  0.5568
62322SOL     OW94080   2.123   7.223  10.024  0.0966  0.1268  0.4250
62322SOL    HW194081   2.043   7.210   9.974  0.6775  0.3332 -0.5945
62322SOL    HW294082   2.182   7.268   9.964  1.4777 -1.2816  0.6432
62323SOL     OW94083   3.350   0.891   7.768  0.3626 -0.5331  0.3530
62323SOL    HW194084   3.361   0.986   7.773 -0.6194 -0.2989 -1.1239
62323SOL    HW294085   3.257   0.877   7.783  0.0005 -0.9684 -1.8398
62324SOL     OW94086  10.305  11.207  11.154 -0.2839 -0.2282  0.4284
62324SOL    HW194087  10.378  11.266  11.134 -1.2918  0.2165 -2.3548
62324SOL    HW294088  10.333  11.122  11.119 -1.4472  0.1885 -1.6574
62325SOL     OW94089   9.005   7.346   5.802 -0.0199  0.0223 -0.0379
62325SOL    HW194090   9.070   7.356   5.872 -1.3431 -0.5250  1.3227
62325SOL    HW294091   8.982   7.435   5.778 -0.2588  0.2313  0.9250
62326SOL     OW94092   3.898   3.382   7.062 -0.2778 -0.2273  0.3807
62326SOL    HW194093   3.841   3.454   7.088  0.6893  0.9668 -0.6874
62326SOL    HW294094   3.986   3.409   7.090 -0.0390 -1.4668  0.8887
62327SOL     OW94095   5.884   0.348   2.964 -0.2907  1.2999 -0.1831
62327SOL    HW194096   5.962   0.383   2.921  0.2502  0.8299  0.4000
62327SOL    HW294097   5.852   0.281   2.904 -0.1687  1.3948 -0.3567
62328SOL     OW94098   1.122   6.633  11.494 -0.4302  0.3734  0.9704
62328SOL    HW194099   1.143   6.696  11.563 -1.1822 -0.5323  2.0775
62328SOL    HW294100   1.035   6.600  11.518 -0.8860  0.3340 -0.6503
62329SOL     OW94101   4.126   8.323   7.710  0.1572  0.5663  0.1680
62329SOL    HW194102   4.221   8.330   7.703  0.3170 -1.0034  0.3544
62329SOL    HW294103   4.092   8.400   7.663  1.5050  1.1633  0.1395
62330SOL     OW94104  12.904   8.686   4.272 -0.3749  0.5650  0.1163
62330SOL    HW194105  12.938   8.744   4.340 -0.5512 -0.4549  1.1075
62330SOL    HW294106  12.954   8.605   4.283 -0.9356  0.1339 -0.4705
62331SOL     OW94107   8.742   2.364  10.894 -0.2262  0.1806  0.3508
62331SOL    HW194108   8.747   2.424  10.968 -0.3667  0.6409 -0.0109
62331SOL    HW294109   8.751   2.277  10.933  1.4114  0.4881  0.7293
62332SOL     OW94110   7.510  11.634   4.888 -0.6018 -0.0104  0.3039
62332SOL    HW194111   7.595  11.590   4.890  0.4523  1.7472 -1.6535
62332SOL    HW294112   7.469  11.602   4.808 -1.4143 -0.1823  0.7834
62333SOL     OW94113   4.046   0.867   4.400 -0.5229 -0.8577  0.1696
62333SOL    HW194114   3.966   0.907   4.436 -0.8272 -0.3723 -0.9986
62333SOL    HW294115   4.040   0.882   4.306  1.9260  0.9984  0.2173
62334SOL     OW94116  11.038   4.683   3.583 -0.0319  0.2655 -0.0116
62334SOL    HW194117  11.085   4.718   3.507  0.4453  0.0696  0.1875
62334SOL    HW294118  11.073   4.595   3.595 -0.5204  0.0806  0.0868
62335SOL     OW94119  11.727   0.818   8.106 -0.6191 -0.5717  0.3026
62335SOL    HW194120  11.719   0.836   8.012  1.7841 -1.2387 -0.1071
62335SOL    HW294121  11.730   0.905   8.146 -1.5110 -0.2771 -0.2447
62336SOL     OW94122   7.960   5.232  10.513 -0.0583  0.2458  0.3139
62336SOL    HW194123   8.004   5.316  10.525  1.6455 -0.6407  0.5544
62336SOL    HW294124   8.018   5.182  10.455  0.4536 -1.8044  2.4583
62337SOL     OW94125   5.682   9.764   1.692 -0.8769 -0.8036  0.4535
62337SOL    HW194126   5.681   9.714   1.611 -1.6036 -0.5763  0.3154
62337SOL    HW294127   5.690   9.697   1.761 -0.9399 -1.0410  0.2308
62338SOL     OW94128  12.164   2.645   2.158  0.2301 -0.1296  0.1278
62338SOL    HW194129  12.206   2.637   2.244  0.0578  0.4492  0.2728
62338SOL    HW294130  12.073   2.666   2.178  0.5072  1.5243 -0.1823
62339SOL     OW94131   3.943  12.806   2.817 -0.1114  0.5003  0.0700
62339SOL    HW194132   3.910  12.716   2.813 -0.6700  0.5982  1.7012
62339SOL    HW294133   4.029  12.798   2.860 -0.9102  0.8597  1.8595
62340SOL     OW94134   6.704  12.595   7.910  0.4438 -0.5560 -0.1611
62340SOL    HW194135   6.790  12.567   7.879  0.7155  0.2032 -0.1259
62340SOL    HW294136   6.704  12.690   7.898 -0.8217 -0.6684 -1.1902
62341SOL     OW94137  11.287   6.194  12.072  0.4094  0.8017 -0.8557
62341SOL    HW194138  11.218   6.180  12.137  1.3206  0.5034  0.0746
62341SOL    HW294139  11.365   6.153  12.110  1.1697  1.3490 -1.7704
62342SOL     OW94140   6.843   2.844  12.092  0.0379  0.7603 -0.2564
62342SOL    HW194141   6.765   2.897  12.107 -0.7176 -0.4636  0.3506
62342SOL    HW294142   6.868   2.862  12.001 -2.1304 -0.2818 -1.1302
62343SOL     OW94143   8.422  12.239   1.454  0.2078 -0.3275  0.0793
62343SOL    HW194144   8.455  12.195   1.532  0.8091  0.2865  0.1800
62343SOL    HW294145   8.331  12.260   1.475  0.7400  1.0578  1.1758
62344SOL     OW94146   4.496   9.573   1.617 -0.3680  0.1229  0.6809
62344SOL    HW194147   4.528   9.653   1.658 -1.5112 -0.2815  2.4688
62344SOL    HW294148   4.422   9.602   1.564 -0.7372  0.2775  1.2702
62345SOL     OW94149   4.843   3.916  11.353 -0.4885 -0.2295 -0.3655
62345SOL    HW194150   4.751   3.892  11.343 -0.3939 -2.2447  2.4431
62345SOL    HW294151   4.889   3.832  11.359  1.2930  0.7233 -0.0174
62346SOL     OW94152  10.768  10.754  10.529  0.7458 -0.1377  0.2366
62346SOL    HW194153  10.695  10.698  10.555  1.0299 -0.6661 -0.1054
62346SOL    HW294154  10.845  10.710  10.564  0.9592  0.0996  0.0623
62347SOL     OW94155   2.984  10.730   2.296 -0.2207  0.0983  0.4007
62347SOL    HW194156   2.914  10.767   2.243  0.9495  1.0850 -0.5007
62347SOL    HW294157   3.022  10.662   2.242 -0.2634 -0.2099  0.7561
62348SOL     OW94158   3.883   7.863   0.590  0.4248 -0.5100  0.1570
62348SOL    HW194159   3.932   7.798   0.641  0.7433 -0.0783  0.4053
62348SOL    HW294160   3.877   7.939   0.648 -0.6646 -0.6039  0.1891
62349SOL     OW94161  11.710   5.467   1.802  0.1591 -0.2656  0.1376
62349SOL    HW194162  11.797   5.443   1.771  0.1993 -0.6687  0.5463
62349SOL    HW294163  11.702   5.424   1.888 -0.7873 -1.0012 -0.2899
62350SOL     OW94164   7.682   0.861   9.006  0.4571  0.1610  0.1470
62350SOL    HW194165   7.694   0.941   9.058 -0.1586 -0.2813  0.9841
62350SOL    HW294166   7.771   0.836   8.981  0.7451  0.5119  0.7878
62351SOL     OW94167   8.385   5.111  10.167  0.3256  0.0485  0.2180
62351SOL    HW194168   8.338   5.159  10.235  0.2601 -1.3500  1.1963
62351SOL    HW294169   8.343   5.026  10.164  1.7650 -0.6863 -0.0169
62352SOL     OW94170   5.233   1.785   4.178 -0.4685 -0.1426 -0.3161
62352SOL    HW194171   5.315   1.756   4.219 -0.1162  1.9932  0.6516
62352SOL    HW294172   5.175   1.804   4.252 -0.7336  1.3567 -0.8878
62353SOL     OW94173   9.901   4.034   5.717 -0.0829 -0.1879  0.2014
62353SOL    HW194174   9.854   4.046   5.635  0.2335  0.9999  0.1804
62353SOL    HW294175   9.981   4.086   5.707  1.0152 -1.7281  0.4414
62354SOL     OW94176  10.995   6.309   5.982 -0.0386  0.0296  0.5579
62354SOL    HW194177  11.090   6.316   5.992 -0.1670  0.2540  1.7211
62354SOL    HW294178  10.965   6.400   5.981 -0.4510 -0.0455  2.5551
62355SOL     OW94179   2.149   6.815   7.249 -0.1387 -0.5091  0.0345
62355SOL    HW194180   2.129   6.723   7.231 -1.0430 -0.3843  0.3843
62355SOL    HW294181   2.121   6.862   7.170 -0.8746 -0.3806  0.3702
62356SOL     OW94182  11.690   2.997   3.626  0.5271  0.0693 -0.3684
62356SOL    HW194183  11.760   3.060   3.609 -1.3065  1.9019 -1.6173
62356SOL    HW294184  11.632   3.041   3.688 -1.3491  0.1299 -2.0637
62357SOL     OW94185   9.337   4.072   2.847 -0.4484 -0.1475 -0.7062
62357SOL    HW194186   9.409   4.124   2.810 -1.0850  0.9312 -0.4538
62357SOL    HW294187   9.259   4.105   2.804 -0.9197 -0.5692 -0.1842
62358SOL     OW94188   2.118   0.187   1.165 -0.4389  0.3959 -0.0218
62358SOL    HW194189   2.204   0.166   1.130 -0.9978 -1.3757 -0.4342
62358SOL    HW294190   2.136   0.232   1.247  0.9184 -1.7840  0.9614
62359SOL     OW94191   9.642   6.493   2.114 -0.1554 -0.5937 -0.0028
62359SOL    HW194192   9.588   6.418   2.141 -0.1589 -0.8091 -0.6016
62359SOL    HW294193   9.590   6.537   2.048 -0.1425 -0.0682  0.3331
62360SOL     OW94194   2.438   3.337   5.232  0.0834 -0.4529 -0.6022
62360SOL    HW194195   2.346   3.364   5.231 -0.7042 -2.8736 -2.7860
62360SOL    HW294196   2.471   3.360   5.145  0.8790 -1.5562 -0.6149
62361SOL     OW94197   0.202  12.025   0.269  0.5361  0.3010  0.0427
62361SOL    HW194198   0.259  11.955   0.299  2.8973  2.1386  0.0854
62361SOL    HW294199   0.216  12.028   0.174 -1.7831 -1.0833 -0.4321
62362SOL     OW94200   4.119   2.559   9.007  0.3571  0.4396  0.0155
62362SOL    HW194201   4.076   2.621   9.065  2.5337  1.4256  0.7036
62362SOL    HW294202   4.143   2.485   9.063 -1.9853 -1.0118 -0.7478
62363SOL     OW94203   0.822   8.421  10.410  0.1663 -0.4305  0.4633
62363SOL    HW194204   0.862   8.472  10.340 -2.4655  1.4484  0.1663
62363SOL    HW294205   0.863   8.454  10.490 -0.0449  0.7347  0.1115
62364SOL     OW94206   5.634   1.918   1.964  0.0347 -0.2917 -0.5711
62364SOL    HW194207   5.658   1.870   1.885  1.6618 -0.8065  0.1917
62364SOL    HW294208   5.653   1.858   2.036 -3.1169 -0.5493  0.2277
62365SOL     OW94209  12.538   2.138   1.118 -0.7777  0.0523 -0.2433
62365SOL    HW194210  12.633   2.130   1.119 -0.7945 -0.2031  0.4720
62365SOL    HW294211  12.520   2.206   1.054 -0.1509 -0.3073 -0.8152
62366SOL     OW94212   9.774  11.264   0.069 -0.7378 -0.1798 -0.3742
62366SOL    HW194213   9.773  11.186   0.125 -1.6195  0.5724  0.7002
62366SOL    HW294214   9.711  11.245   0.000 -1.3836 -0.1922  0.2155
62367SOL     OW94215  11.967  11.884  11.475 -0.3056 -0.3001 -0.1058
62367SOL    HW194216  12.025  11.808  11.479 -0.8646 -0.7357 -0.1697
62367SOL    HW294217  11.991  11.929  11.394  0.0923 -0.3462 -0.0175
62368SOL     OW94218   5.771  10.677   8.522 -0.1663  0.6948 -0.1101
62368SOL    HW194219   5.699  10.650   8.466 -0.2088 -2.3635  1.2640
62368SOL    HW294220   5.739  10.665   8.611  1.6792  0.2261  0.5336
62369SOL     OW94221  11.533   9.203   7.342 -0.1168 -0.0421 -0.1393
62369SOL    HW194222  11.542   9.269   7.273  0.4329  0.3295  0.2832
62369SOL    HW294223  11.622   9.190   7.375 -0.1393 -1.3122 -0.4999
62370SOL     OW94224   5.674   2.089   7.284 -0.1902 -0.6424 -0.4659
62370SOL    HW194225   5.685   2.170   7.335 -0.6692 -1.4452  0.9541
62370SOL    HW294226   5.740   2.030   7.318  0.0111 -0.9374 -1.3471
62371SOL     OW94227   7.910   1.185   5.947  0.4742 -0.0607 -0.5602
62371SOL    HW194228   7.896   1.230   6.031  1.5287  0.9866 -0.9220
62371SOL    HW294229   7.920   1.256   5.883 -2.6462 -0.7885 -2.0534
62372SOL     OW94230   6.022   7.792   9.024 -0.8575  0.8450 -0.3388
62372SOL    HW194231   6.086   7.799   9.095  0.8814 -1.6101 -1.5155
62372SOL    HW294232   5.947   7.747   9.064  0.1568 -0.6274 -0.0150
62373SOL     OW94233   9.977   0.102   9.346 -0.0211  0.1585 -0.2332
62373SOL    HW194234  10.034   0.043   9.394 -1.3836 -2.0006 -1.0634
62373SOL    HW294235  10.036   0.153   9.290  1.3397  0.8376  1.7349
62374SOL     OW94236   9.921   7.452   7.126  0.2747 -0.2079  0.0780
62374SOL    HW194237   9.963   7.492   7.050  1.4622  0.4261  1.0382
62374SOL    HW294238   9.993   7.430   7.185 -0.2562 -3.8037 -0.3395
62375SOL     OW94239   6.282   0.847   1.760 -0.1554  0.3202  0.3208
62375SOL    HW194240   6.229   0.845   1.839  0.4708  0.0093  0.7363
62375SOL    HW294241   6.368   0.877   1.789  0.0831  0.1965 -0.2365
62376SOL     OW94242   7.803   2.311   2.616 -0.0171  0.1218 -0.4373
62376SOL    HW194243   7.828   2.289   2.526  2.0476 -1.7913  0.4983
62376SOL    HW294244   7.847   2.245   2.669 -1.6456  0.8583  1.9662
62377SOL     OW94245   2.390   6.023   0.272 -0.1150  0.2561 -0.0266
62377SOL    HW194246   2.445   6.102   0.279  0.6040 -0.0206 -1.9918
62377SOL    HW294247   2.305   6.056   0.243  0.5708  0.2732 -2.2523
62378SOL     OW94248   3.768   0.373   5.079  0.6145 -0.4057  0.4063
62378SOL    HW194249   3.818   0.309   5.130  1.6732 -1.1988 -1.5349
62378SOL    HW294250   3.733   0.324   5.005 -2.1518  0.3882  1.0547
62379SOL     OW94251   3.840   0.493   3.231 -0.5781 -0.5720  0.4211
62379SOL    HW194252   3.802   0.577   3.257  0.4271  0.2552 -0.6573
62379SOL    HW294253   3.767   0.446   3.191 -0.5603  1.0724 -1.7946
62380SOL     OW94254   9.372   2.982  10.164  0.3014  0.3887 -0.2224
62380SOL    HW194255   9.378   2.891  10.194 -2.8119  0.3404  0.5129
62380SOL    HW294256   9.418   2.981  10.079 -1.8641 -2.5534 -1.5366
62381SOL     OW94257   8.438   9.662   2.818 -0.1049  0.2832  0.5880
62381SOL    HW194258   8.427   9.751   2.851  0.3596  0.7039 -0.3715
62381SOL    HW294259   8.352   9.639   2.782 -1.2334 -0.8988  3.6680
62382SOL     OW94260   6.709   1.029   0.995 -0.4404 -0.0940  0.0615
62382SOL    HW194261   6.660   0.955   1.031 -1.9362  0.3655 -0.9038
62382SOL    HW294262   6.776   1.048   1.060 -1.0595 -1.2554  1.0843
62383SOL     OW94263   6.277   1.809  11.476  0.5204  0.3038 -0.0518
62383SOL    HW194264   6.304   1.748  11.407 -0.5424  0.4486 -0.6302
62383SOL    HW294265   6.358   1.832  11.522  0.9295 -1.7190  0.3432
62384SOL     OW94266   1.145   9.309   1.114  0.1872 -1.0558  0.2145
62384SOL    HW194267   1.176   9.236   1.060 -0.5646 -0.4366 -1.1166
62384SOL    HW294268   1.117   9.268   1.195 -1.8407 -2.5378 -1.1269
62385SOL     OW94269   8.512   7.519   3.970  0.4278  0.0558 -0.4121
62385SOL    HW194270   8.468   7.603   3.956  0.7857  0.2100 -0.6153
62385SOL    HW294271   8.462   7.478   4.041 -1.2086 -0.5911 -1.8685
62386SOL     OW94272   2.577   2.375   1.900  0.1157  0.0057  0.3772
62386SOL    HW194273   2.537   2.446   1.950 -0.1924 -0.5569  0.9391
62386SOL    HW294274   2.664   2.409   1.876  0.6135 -0.0166  2.0170
62387SOL     OW94275  12.612   2.050   3.240 -0.6407  0.5077 -0.1435
62387SOL    HW194276  12.657   2.123   3.282 -0.6335  0.7208 -0.5232
62387SOL    HW294277  12.582   1.996   3.313  2.3156 -0.9379  0.1779
62388SOL     OW94278   4.864   5.646   4.981  0.0661  0.1248 -0.3312
62388SOL    HW194279   4.921   5.653   5.058  0.6194 -1.1803 -0.5985
62388SOL    HW294280   4.880   5.559   4.947 -0.4011  0.5703 -1.7639
62389SOL     OW94281  11.872   1.717   2.390  0.2609 -0.3410 -0.4896
62389SOL    HW194282  11.915   1.750   2.469  1.2020 -0.7832 -0.7978
62389SOL    HW294283  11.818   1.789   2.359 -1.0197 -0.5233  1.1808
62390SOL     OW94284   8.668   6.145   3.175  0.6400  0.3628  0.0540
62390SOL    HW194285   8.629   6.185   3.253 -0.4682  1.3201 -0.9366
62390SOL    HW294286   8.762   6.145   3.192  0.4278  0.6941  1.3244
62391SOL     OW94287  11.572   7.875   7.080 -0.0695 -0.4769  0.0271
62391SOL    HW194288  11.494   7.896   7.028 -0.7414  0.9279  1.5275
62391SOL    HW294289  11.554   7.912   7.166  1.8197 -1.0847  0.7293
62392SOL     OW94290  10.950   0.734   4.181 -0.1109 -0.2238  0.5057
62392SOL    HW194291  11.025   0.695   4.225 -1.2038 -1.2565  1.5287
62392SOL    HW294292  10.905   0.659   4.141  1.0491  0.6858 -2.8300
62393SOL     OW94293   5.655   4.558   4.125 -0.2057  0.1218  0.5515
62393SOL    HW194294   5.665   4.653   4.119 -0.8495  0.2784  1.8136
62393SOL    HW294295   5.561   4.543   4.123 -0.1326 -0.4409  0.9864
62394SOL     OW94296  12.520   0.830   1.043  0.1733  0.0086  0.1565
62394SOL    HW194297  12.517   0.735   1.055  1.0817 -0.1394 -0.6599
62394SOL    HW294298  12.502   0.843   0.950 -1.1117  0.7331  0.4804
62395SOL     OW94299   2.581   3.940  12.343 -0.0520  0.2404 -0.0309
62395SOL    HW194300   2.557   3.865  12.397  0.1906  0.4689  0.4025
62395SOL    HW294301   2.543   3.921  12.257  0.9848 -0.9294 -0.2632
62396SOL     OW94302   5.330   0.034   2.010  0.1131  0.7063 -0.0830
62396SOL    HW194303   5.284   0.054   1.929  0.1509 -0.2897 -0.3681
62396SOL    HW294304   5.267   0.053   2.079 -0.2364  0.6825 -0.3961
62397SOL     OW94305   0.358   2.872   4.581 -0.4269  0.5686 -0.4180
62397SOL    HW194306   0.301   2.892   4.655  1.5941  0.1711  1.3546
62397SOL    HW294307   0.385   2.781   4.595  1.0231  0.9023 -0.8474
62398SOL     OW94308   8.994  12.792   7.969  0.1270  0.2486 -0.4076
62398SOL    HW194309   8.926  12.860   7.970  0.7769  0.9449  1.1582
62398SOL    HW294310   9.058  12.824   7.906 -0.3864  0.2292 -0.9441
62399SOL     OW94311   2.049   5.425   8.605 -0.2002 -0.7128  0.1654
62399SOL    HW194312   1.997   5.390   8.678  0.9523 -0.5634  1.1041
62399SOL    HW294313   2.119   5.360   8.593 -0.2388 -0.6124 -0.6555
62400SOL     OW94314   8.166   3.589   9.813 -0.0732  0.0191 -0.2016
62400SOL    HW194315   8.078   3.564   9.839 -1.1178  0.7340 -2.7816
62400SOL    HW294316   8.207   3.508   9.785  0.5498 -0.5026  2.0147
62401SOL     OW94317   5.531   9.556  10.133  0.5557  0.0986  0.4988
62401SOL    HW194318   5.568   9.579  10.218  0.8596  1.2289  0.0850
62401SOL    HW294319   5.601   9.577  10.071 -0.3911  1.3300 -0.2107
62402SOL     OW94320   2.713   6.398   3.795 -0.3241 -0.0414  0.0912
62402SOL    HW194321   2.742   6.474   3.745 -0.2762  0.7387  1.2594
62402SOL    HW294322   2.618   6.394   3.779 -0.0883 -0.7026 -1.2274
62403SOL     OW94323  12.012   6.662  10.688  0.1558  0.3261  0.7235
62403SOL    HW194324  12.030   6.743  10.641  0.4436  1.0100  1.9643
62403SOL    HW294325  12.099   6.624  10.704  0.0574  0.0716  0.6595
62404SOL     OW94326  11.770   9.674   4.107 -0.2706  0.2610 -0.3654
62404SOL    HW194327  11.724   9.656   4.025  0.3170 -0.2360 -0.5979
62404SOL    HW294328  11.740   9.606   4.167 -0.8850  0.7710 -0.0867
62405SOL     OW94329   8.375  12.595   5.606  0.3650 -0.3163  0.0839
62405SOL    HW194330   8.285  12.573   5.633  0.5396  0.8318  1.7563
62405SOL    HW294331   8.388  12.547   5.525 -1.4835 -1.1600  0.2379
62406SOL     OW94332   1.164   0.965   4.186 -0.1334 -0.2829 -0.0910
62406SOL    HW194333   1.192   0.938   4.273  2.2214  2.2490  0.0836
62406SOL    HW294334   1.191   0.893   4.129 -0.5579 -1.4084  1.0981
62407SOL     OW94335  11.767  10.266  10.536 -0.1210 -0.0162  0.2265
62407SOL    HW194336  11.774  10.261  10.441 -1.5234 -0.9356  0.1481
62407SOL    HW294337  11.855  10.246  10.568  0.8141  1.9497 -0.8798
62408SOL     OW94338   4.906   7.871   8.389  0.0019  0.7318 -0.7903
62408SOL    HW194339   4.987   7.912   8.359  0.8645  0.0029  0.4509
62408SOL    HW294340   4.916   7.779   8.365 -0.0188  0.4551  0.2024
62409SOL     OW94341   1.784   9.520   2.894 -0.9117 -0.5044 -0.2961
62409SOL    HW194342   1.700   9.562   2.876 -0.3200  0.5056 -0.7347
62409SOL    HW294343   1.831   9.581   2.950 -0.9940 -1.6838  1.1205
62410SOL     OW94344   6.046   7.171  12.122  1.0816 -0.1134 -0.0646
62410SOL    HW194345   6.098   7.235  12.074 -0.5023  1.0087 -0.3444
62410SOL    HW294346   6.020   7.216  12.202 -1.2508  0.1444 -0.9215
62411SOL     OW94347  11.658   4.165   2.869  0.3475 -0.0323 -0.4448
62411SOL    HW194348  11.620   4.122   2.945 -0.0312 -1.6497 -1.4987
62411SOL    HW294349  11.583   4.206   2.825  0.4002 -0.0326 -0.5349
62412SOL     OW94350  11.619   8.645   9.591 -0.2195 -0.7291  0.1282
62412SOL    HW194351  11.544   8.699   9.617 -1.4168 -1.5654 -1.4547
62412SOL    HW294352  11.638   8.592   9.669 -0.2496  0.5706  1.0542
62413SOL     OW94353   2.266   0.944  10.342  0.1988 -0.1088 -0.0882
62413SOL    HW194354   2.243   0.928  10.251  0.1376 -1.6923  0.1840
62413SOL    HW294355   2.219   1.024  10.365  0.4966  0.5090 -1.5318
62414SOL     OW94356   3.343   6.152   4.083 -0.0286  0.8502  0.8442
62414SOL    HW194357   3.330   6.057   4.089  1.5730  0.4227 -1.1757
62414SOL    HW294358   3.283   6.180   4.014  0.9111  0.9369  0.0422
62415SOL     OW94359   2.150   3.122   2.934 -0.5309 -0.5053  0.1333
62415SOL    HW194360   2.078   3.067   2.903 -0.3900 -0.7907  0.3164
62415SOL    HW294361   2.197   3.068   2.998 -1.2421  0.3063  1.4075
62416SOL     OW94362   2.926   0.967  11.899 -0.0593 -0.0431  0.1205
62416SOL    HW194363   2.908   0.876  11.921 -0.3296 -0.4896 -1.7687
62416SOL    HW294364   2.961   0.963  11.810  2.9704  1.4074  1.0977
62417SOL     OW94365  10.205   7.623   5.579 -0.3151  0.2859  0.2482
62417SOL    HW194366  10.184   7.686   5.511  0.2101 -0.0308 -0.2104
62417SOL    HW294367  10.121   7.579   5.597 -0.5211  0.5897  0.0393
62418SOL     OW94368   5.290   5.026  11.063  0.2388 -0.6033  0.3919
62418SOL    HW194369   5.269   5.067  11.147  0.3333 -0.8373  0.5321
62418SOL    HW294370   5.285   4.932  11.081 -1.8736 -0.6925 -0.3700
62419SOL     OW94371   9.408   7.778   6.283 -0.1796 -0.3243  0.3280
62419SOL    HW194372   9.409   7.823   6.199  0.8389 -0.8366  0.0483
62419SOL    HW294373   9.315   7.763   6.302 -0.4621 -3.5705 -2.5580
62420SOL     OW94374   4.879   0.489   0.017 -0.4480  0.2001 -0.0562
62420SOL    HW194375   4.879   0.399   0.050 -3.4298  0.6353  1.4063
62420SOL    HW294376   4.955   0.530   0.059 -0.9776 -0.7863  1.9996
62421SOL     OW94377   0.600  12.367  12.584 -0.1523  0.5255 -0.1471
62421SOL    HW194378   0.673  12.427  12.570  0.6278 -0.4220 -0.2538
62421SOL    HW294379   0.639  12.292  12.629 -1.0791  0.0491 -0.1229
62422SOL     OW94380   6.861  12.307   4.046 -0.0107  0.1107  0.0423
62422SOL    HW194381   6.793  12.270   3.989  1.4283 -0.1224 -1.6029
62422SOL    HW294382   6.869  12.245   4.118 -0.3339 -0.7741 -0.6721
62423SOL     OW94383   8.066   6.996   7.402 -0.9662  0.1757 -0.2297
62423SOL    HW194384   8.071   6.949   7.318  0.8493  1.9685 -1.2113
62423SOL    HW294385   8.116   7.077   7.387  0.3114  0.0925  2.9006
62424SOL     OW94386   4.472   3.654  11.648 -0.3259  0.0472  0.0465
62424SOL    HW194387   4.498   3.697  11.730  1.4031 -2.0914  0.7163
62424SOL    HW294388   4.391   3.608  11.670 -0.1222 -0.1347  0.4378
62425SOL     OW94389  12.327   4.734   3.983 -0.0208  0.0016 -0.1957
62425SOL    HW194390  12.273   4.806   3.949  0.8578  0.6217 -0.3241
62425SOL    HW294391  12.335   4.673   3.910  0.4193  0.4851 -0.5582
62426SOL     OW94392   8.913   6.768  11.725 -0.4500  0.1801 -0.2965
62426SOL    HW194393   8.857   6.772  11.647 -0.4245 -0.8805 -0.3730
62426SOL    HW294394   8.856   6.798  11.796 -0.8543 -0.0588 -0.5153
62427SOL     OW94395   3.895   3.018   3.287  0.3540 -0.2341 -0.0729
62427SOL    HW194396   3.902   2.931   3.247 -0.5386 -0.2721 -0.1734
62427SOL    HW294397   3.835   3.005   3.361 -0.3788  0.4402 -0.5374
62428SOL     OW94398   2.613   5.090   6.671 -0.0132 -0.0644  0.0943
62428SOL    HW194399   2.522   5.087   6.639 -0.2455 -2.7163  0.8153
62428SOL    HW294400   2.605   5.111   6.764  0.3136  1.9132 -0.2772
62429SOL     OW94401   3.890   1.672  11.652  0.1096 -0.3523 -0.1458
62429SOL    HW194402   3.982   1.659  11.628 -0.2347 -0.4397 -1.5003
62429SOL    HW294403   3.893   1.731  11.727  1.2420  0.3176 -0.6978
62430SOL     OW94404   4.316   3.403  12.345 -0.1390 -0.3600  1.1816
62430SOL    HW194405   4.296   3.388  12.438  0.3419  0.4190  1.4234
62430SOL    HW294406   4.394   3.351  12.328  1.1478  1.2656  1.8470
62431SOL     OW94407  12.522   8.635   7.733  0.3934 -0.1242 -0.4682
62431SOL    HW194408  12.466   8.677   7.798  1.3494  0.9084 -0.2603
62431SOL    HW294409  12.463   8.604   7.666 -0.4094  1.2571 -0.4346
62432SOL     OW94410  11.960   1.809   8.158  0.3575 -0.0362 -0.1527
62432SOL    HW194411  11.989   1.871   8.092  0.5022  1.3332  1.1440
62432SOL    HW294412  12.013   1.830   8.235  0.9580 -2.2730  0.1300
62433SOL     OW94413   2.636   7.528   0.866  0.0134  0.0475  0.0970
62433SOL    HW194414   2.559   7.578   0.891 -0.0182 -0.1103  0.3142
62433SOL    HW294415   2.627   7.445   0.912  1.0396  0.5573  1.2918
62434SOL     OW94416   1.579   7.369   1.765 -0.6534  0.2393 -0.0303
62434SOL    HW194417   1.598   7.434   1.832 -0.9157 -2.5251  2.9557
62434SOL    HW294418   1.484   7.376   1.751 -0.5474  1.0436 -0.3482
62435SOL     OW94419   1.167  12.147   2.126 -0.5702 -0.7870 -1.2336
62435SOL    HW194420   1.158  12.075   2.063 -2.9067 -0.5377 -1.2421
62435SOL    HW294421   1.142  12.109   2.210  1.2893 -0.7707 -0.6181
62436SOL     OW94422   4.172   9.605   7.820  0.2282 -0.0470  0.2987
62436SOL    HW194423   4.167   9.687   7.869  1.4777  0.1110  0.1902
62436SOL    HW294424   4.097   9.554   7.852 -0.9434  1.3424 -0.0822
62437SOL     OW94425  10.794   3.999   9.952  0.0221  0.4256  0.9167
62437SOL    HW194426  10.784   3.995  10.047 -2.3431 -1.3839  0.6790
62437SOL    HW294427  10.840   3.918   9.929 -1.8234 -0.5007  0.3363
62438SOL     OW94428   1.494   9.058  11.513 -0.0493 -0.0009 -0.4863
62438SOL    HW194429   1.486   9.146  11.551 -1.1589  0.4714 -1.7048
62438SOL    HW294430   1.409   9.017  11.529  0.7362 -1.2093  0.8209
62439SOL     OW94431   0.346   2.608  10.716 -1.0455 -0.5629  0.3767
62439SOL    HW194432   0.421   2.601  10.775 -1.3951  0.0818  0.9074
62439SOL    HW294433   0.340   2.521  10.675 -0.1861 -0.7036  0.5298
62440SOL     OW94434  12.480   0.137   8.747  0.4446 -0.3093 -0.3651
62440SOL    HW194435  12.507   0.100   8.663  1.0454 -0.1990 -0.2266
62440SOL    HW294436  12.406   0.083   8.774 -1.8762  1.5649 -2.4408
62441SOL     OW94437  11.703   5.021   2.444  0.3551  0.2538  0.8388
62441SOL    HW194438  11.780   4.998   2.393  1.1477  0.3236  1.9768
62441SOL    HW294439  11.693   4.949   2.507 -0.0178  0.6395  1.2304
62442SOL     OW94440   4.347   2.020   9.957  0.5101  0.3605  0.4599
62442SOL    HW194441   4.271   1.989  10.005 -0.6445 -0.0586 -1.5410
62442SOL    HW294442   4.344   2.115   9.966  0.5878  0.2765  1.5484
62443SOL     OW94443  11.684   7.973   1.787 -0.4111 -0.0563  0.2841
62443SOL    HW194444  11.777   7.980   1.809 -0.6821  2.1734  0.9024
62443SOL    HW294445  11.663   8.056   1.745 -1.5359 -1.5537 -2.3336
62444SOL     OW94446   3.932  11.019   8.291 -0.2187  0.2980  0.1348
62444SOL    HW194447   3.991  11.000   8.364  1.5276  1.0133 -1.0371
62444SOL    HW294448   3.901  11.108   8.307 -1.0687 -0.1013  0.7834
62445SOL     OW94449   9.644  11.928   7.524 -0.5002 -0.0066 -1.0414
62445SOL    HW194450   9.683  11.980   7.595 -1.0679 -0.7746 -0.1396
62445SOL    HW294451   9.716  11.912   7.463  0.0262  0.5809 -0.5918
62446SOL     OW94452  11.288   5.027   5.420 -0.5902  0.6288 -0.1098
62446SOL    HW194453  11.377   5.041   5.452 -0.4972 -1.4137  0.6685
62446SOL    HW294454  11.294   5.043   5.326  1.4125 -2.4739 -0.6580
62447SOL     OW94455   5.198  10.385   0.931 -0.2609 -0.6294 -0.5795
62447SOL    HW194456   5.255  10.334   0.988  0.9835  0.7059 -0.5789
62447SOL    HW294457   5.216  10.351   0.843  1.5187  0.6092 -0.7351
62448SOL     OW94458   3.124  10.852  11.218  0.4125 -0.9483 -0.1720
62448SOL    HW194459   3.042  10.896  11.195  1.0568  0.5506  0.2468
62448SOL    HW294460   3.125  10.774  11.164 -1.3686 -1.1016 -0.0605
62449SOL     OW94461  10.186   2.374   8.254 -0.2219  0.1281 -0.1524
62449SOL    HW194462  10.109   2.429   8.267  0.3869  0.6456  1.5345
62449SOL    HW294463  10.222   2.362   8.342  1.4313 -0.3729 -0.8557
62450SOL     OW94464   4.155   5.615   5.437  0.6118 -0.9417 -0.2455
62450SOL    HW194465   4.187   5.680   5.374 -0.0373 -1.1677 -0.8206
62450SOL    HW294466   4.185   5.647   5.522  1.1029 -0.3884 -0.6209
62451SOL     OW94467   4.912  10.151   0.677  0.3352 -0.4227 -0.1943
62451SOL    HW194468   4.911  10.143   0.772  0.7022 -1.3565 -0.2604
62451SOL    HW294469   4.832  10.199   0.656  0.5153  0.2486  0.6171
62452SOL     OW94470   8.536   5.882   0.452  0.2012  0.2079 -0.6487
62452SOL    HW194471   8.623   5.855   0.420  1.1562  1.8805  0.4343
62452SOL    HW294472   8.486   5.899   0.372  0.9429 -0.4817 -1.2864
62453SOL     OW94473   1.026   5.129   7.450  0.0147 -0.4659 -0.5881
62453SOL    HW194474   1.046   5.079   7.372  0.8027  1.0140 -1.3879
62453SOL    HW294475   0.973   5.202   7.419  1.1478  0.6794  0.0589
62454SOL     OW94476  12.322   6.195   3.700  0.4150  0.1552  0.1725
62454SOL    HW194477  12.399   6.249   3.713  0.9815 -1.0935  2.8056
62454SOL    HW294478  12.337   6.118   3.755 -2.3597 -0.4850  0.2189
62455SOL     OW94479   6.195   9.025   4.327 -0.4014  0.0401  0.0685
62455SOL    HW194480   6.145   9.005   4.247 -1.6866  2.1841  0.2521
62455SOL    HW294481   6.245   9.103   4.305  2.1249 -1.4006  0.2808
62456SOL     OW94482   4.854   0.402   2.831 -0.0802 -0.3590  0.0026
62456SOL    HW194483   4.795   0.475   2.810  0.9071  0.2149 -0.9198
62456SOL    HW294484   4.847   0.344   2.755 -2.4702 -2.3830  1.6350
62457SOL     OW94485   8.776   3.105   8.779  0.2163  0.2039 -0.5242
62457SOL    HW194486   8.728   3.126   8.699 -0.6023  1.2178  0.2008
62457SOL    HW294487   8.723   3.143   8.849 -1.0454 -3.6555  0.9073
62458SOL     OW94488  10.126   7.100   3.109  0.5720  0.0644  0.4894
62458SOL    HW194489  10.204   7.062   3.149 -0.1188 -0.7848  1.0494
62458SOL    HW294490  10.054   7.046   3.140 -0.1452  0.2780 -0.7460
62459SOL     OW94491   8.774   4.634  11.550  0.4682  0.1716 -0.5623
62459SOL    HW194492   8.870   4.626  11.556  0.4524  0.7648  1.0274
62459SOL    HW294493   8.752   4.595  11.465  1.8029 -3.0208  0.3850
62460SOL     OW94494   5.313   9.300   7.852 -0.2301 -0.3341  0.1560
62460SOL    HW194495   5.288   9.392   7.841 -0.9402 -0.4379  0.8165
62460SOL    HW294496   5.408   9.302   7.862 -0.0026  0.1440 -1.7274
62461SOL     OW94497   7.053   6.966   3.727 -0.1197  0.1253 -0.5479
62461SOL    HW194498   7.031   6.909   3.801 -1.1171  1.9607  0.6551
62461SOL    HW294499   7.035   6.912   3.649 -0.5439 -1.3451  0.5187
62462SOL     OW94500   2.100   9.204   2.853 -0.2065  0.1608  0.3090
62462SOL    HW194501   2.068   9.122   2.890  1.1947 -0.6663 -0.1980
62462SOL    HW294502   2.038   9.225   2.783  0.5429 -1.6507 -0.9826
62463SOL     OW94503   5.941   8.188   6.561 -0.1617 -0.3852  0.1049
62463SOL    HW194504   5.858   8.151   6.530 -0.0404 -0.4189 -0.1811
62463SOL    HW294505   5.974   8.123   6.623 -0.0290 -0.6805 -0.2739
62464SOL     OW94506  10.944   4.042   6.180  0.4477  0.5230 -0.0087
62464SOL    HW194507  10.874   3.981   6.204 -0.7145  1.0649 -1.8664
62464SOL    HW294508  11.006   4.037   6.253  0.1529 -2.4713  0.1361
62465SOL     OW94509   2.093   1.108   6.374  0.1427 -0.2744  0.2023
62465SOL    HW194510   2.049   1.153   6.302  2.1815  0.8107 -0.4187
62465SOL    HW294511   2.155   1.049   6.332 -0.3613 -1.4530  1.0642
62466SOL     OW94512   4.998   4.728   7.061 -0.3471 -0.1933 -0.3061
62466SOL    HW194513   4.956   4.654   7.017  0.4222 -1.0785  0.4203
62466SOL    HW294514   5.056   4.765   6.995 -2.0189  0.8952 -1.2467
62467SOL     OW94515  12.577   2.603   2.761 -0.1419  0.5656 -0.1704
62467SOL    HW194516  12.609   2.595   2.851 -0.8470  0.1253  0.0450
62467SOL    HW294517  12.623   2.535   2.713 -0.1814  0.4307 -0.0197
62468SOL     OW94518   9.521   8.537   5.354 -0.1752  0.5887 -0.0452
62468SOL    HW194519   9.488   8.564   5.439  0.7331 -0.5551  0.7073
62468SOL    HW294520   9.445   8.537   5.297 -0.4996  3.2079  0.2356
62469SOL     OW94521  12.755   8.671   2.665 -0.1199  0.0236  0.3974
62469SOL    HW194522  12.816   8.662   2.738  0.6222  2.1314  0.1081
62469SOL    HW294523  12.688   8.604   2.681 -0.7699  1.2934  3.7858
62470SOL     OW94524   8.293   2.756   3.879  0.0106  0.3629  0.0835
62470SOL    HW194525   8.285   2.766   3.974  0.6584 -0.7045  0.2729
62470SOL    HW294526   8.210   2.717   3.852 -0.1621  0.6362  0.2214
62471SOL     OW94527   6.167  12.472  11.504 -0.0896  0.2853  0.3263
62471SOL    HW194528   6.073  12.470  11.522  0.2080 -0.1580  2.0279
62471SOL    HW294529   6.180  12.405  11.437 -0.9966  0.5110 -0.0953
62472SOL     OW94530   6.145   2.386  10.426  0.0397 -0.0642 -0.3003
62472SOL    HW194531   6.165   2.443  10.352 -0.0561 -0.2388 -0.4619
62472SOL    HW294532   6.066   2.340  10.399  0.5584 -0.8515 -0.4968
62473SOL     OW94533   0.324   0.939   8.582  0.2979 -0.1134 -0.3508
62473SOL    HW194534   0.412   0.975   8.591 -0.0421  0.2428  2.4703
62473SOL    HW294535   0.330   0.850   8.616 -0.5981  0.2585  0.8600
62474SOL     OW94536   6.127   5.809   1.822 -0.2741 -0.1291 -0.1297
62474SOL    HW194537   6.131   5.897   1.859  1.4107 -0.4258  0.4864
62474SOL    HW294538   6.190   5.810   1.750 -0.7819 -0.6302 -0.5911
62475SOL     OW94539  11.263   7.960  10.986  0.0247 -0.2674  0.2666
62475SOL    HW194540  11.187   8.018  10.990 -0.3034 -0.7340  0.9026
62475SOL    HW294541  11.231   7.875  11.016 -0.0788 -1.4174 -2.7334
62476SOL     OW94542   9.909   3.994   4.077 -0.1122  0.0593 -0.1858
62476SOL    HW194543   9.888   4.076   4.120  1.0098 -0.0760  0.6704
62476SOL    HW294544   9.984   4.015   4.021 -0.8226 -0.0316 -1.1910
62477SOL     OW94545   2.580   1.874   7.578  0.1473  0.1687 -0.0190
62477SOL    HW194546   2.592   1.798   7.520  0.6478  0.2286 -0.0053
62477SOL    HW294547   2.553   1.944   7.520 -0.1765  0.0152 -0.0541
62478SOL     OW94548  12.585   8.117  12.337  0.1801 -0.5192  0.1343
62478SOL    HW194549  12.586   8.210  12.358  1.0160 -0.4229 -0.2653
62478SOL    HW294550  12.642   8.077  12.402 -0.4794 -0.8137  0.5396
62479SOL     OW94551  11.019   5.066   4.386  0.5650 -0.5445 -0.2383
62479SOL    HW194552  10.950   5.010   4.350 -0.2936 -0.0524  0.5997
62479SOL    HW294553  11.100   5.020   4.366  0.2590  0.0914 -3.5647
62480SOL     OW94554   7.328   7.491   6.751  0.4561 -0.3424  0.8273
62480SOL    HW194555   7.394   7.558   6.731  1.0473 -1.5031 -1.4852
62480SOL    HW294556   7.377   7.421   6.794  0.5459 -0.7234  0.1261
62481SOL     OW94557   9.359   3.436   6.024  0.2730  0.2329  0.1466
62481SOL    HW194558   9.401   3.512   5.984  0.9084 -0.5535 -0.7054
62481SOL    HW294559   9.415   3.362   6.002 -0.8272 -0.6386  0.1584
62482SOL     OW94560   6.287   1.555  12.411  0.4102 -0.2033  0.0849
62482SOL    HW194561   6.352   1.542  12.342 -0.0162  0.9064 -0.5424
62482SOL    HW294562   6.210   1.509  12.379 -0.4315  1.9120 -1.1679
62483SOL     OW94563  11.028   2.677   8.029  0.6011  0.0538  0.0146
62483SOL    HW194564  11.089   2.610   8.061  1.3769  0.6713 -0.1274
62483SOL    HW294565  11.054   2.691   7.938  0.5843  0.6857  0.1019
62484SOL     OW94566   8.284   5.187   6.890  0.0420 -0.1137  0.1464
62484SOL    HW194567   8.241   5.158   6.810 -0.1532  0.4672  0.0411
62484SOL    HW294568   8.359   5.127   6.899  0.9040  0.7051 -1.2512
62485SOL     OW94569   6.838  11.060   9.303 -0.1948 -0.4396 -0.2583
62485SOL    HW194570   6.774  11.077   9.372 -2.1870 -0.6487 -1.9339
62485SOL    HW294571   6.920  11.044   9.349 -0.8842  1.7117  1.9316
62486SOL     OW94572   1.062   6.079   5.760 -0.1713  0.7212 -0.4927
62486SOL    HW194573   1.111   6.142   5.813  1.0138 -0.2946 -0.3168
62486SOL    HW294574   1.094   6.093   5.671  1.3359 -0.6717 -0.2262
62487SOL     OW94575   7.111   4.496   9.886  0.6459 -0.0105 -0.3710
62487SOL    HW194576   7.133   4.427   9.948  0.1754 -0.4321 -0.6597
62487SOL    HW294577   7.060   4.559   9.938 -0.7399 -0.9211 -0.5554
62488SOL     OW94578   0.623   1.827   5.504  0.5302  0.0284  0.1715
62488SOL    HW194579   0.564   1.900   5.481  1.1386  0.5793  0.3313
62488SOL    HW294580   0.607   1.761   5.437 -0.9653 -0.2414  0.7330
62489SOL     OW94581  12.416   3.515   3.297 -0.5115  0.3741 -0.3145
62489SOL    HW194582  12.429   3.451   3.227 -2.1301  0.3055 -0.6092
62489SOL    HW294583  12.461   3.594   3.267  5.1256 -1.5827  1.8475
62490SOL     OW94584   6.314   6.362   6.384  0.2331  0.4757  0.0601
62490SOL    HW194585   6.323   6.439   6.327  2.8773  0.2216  0.0019
62490SOL    HW294586   6.267   6.394   6.461 -1.0548  1.4719 -1.0874
62491SOL     OW94587   6.356   9.424  10.195  0.4303  0.2047  0.5973
62491SOL    HW194588   6.330   9.514  10.178 -0.1923 -0.4333 -2.4221
62491SOL    HW294589   6.452   9.424  10.187  0.4437  0.6114  0.7546
62492SOL     OW94590   7.682  11.104  10.877 -0.1230  0.5889 -0.0380
62492SOL    HW194591   7.615  11.063  10.822 -0.2430  0.5667  0.1212
62492SOL    HW294592   7.756  11.043  10.875  0.0399  0.8013 -0.5281
62493SOL     OW94593   6.548  11.569   9.632 -0.4262  0.0531  1.0427
62493SOL    HW194594   6.509  11.512   9.699  0.4116 -0.7287  0.8897
62493SOL    HW294595   6.628  11.523   9.605 -0.6139  0.4768 -0.3191
62494SOL     OW94596   2.451   8.990   8.613 -0.1468 -0.4228  0.0192
62494SOL    HW194597   2.426   9.030   8.530  1.2006 -0.5358 -0.4537
62494SOL    HW294598   2.508   8.917   8.589  0.6536 -0.1589  1.0556
62495SOL     OW94599  10.777  12.150   6.591 -0.4031  0.1401  0.2556
62495SOL    HW194600  10.690  12.174   6.560 -1.7540 -2.4421  1.6373
62495SOL    HW294601  10.808  12.085   6.527  0.1723  0.4310  0.2272
62496SOL     OW94602   3.620   9.735   7.258  0.1939 -0.1792  0.2687
62496SOL    HW194603   3.613   9.691   7.343 -1.0512  0.2287  0.3972
62496SOL    HW294604   3.531   9.766   7.239 -0.5546 -3.5212 -2.9579
62497SOL     OW94605   9.210   8.106   8.027 -0.8913 -0.0812 -0.1332
62497SOL    HW194606   9.176   8.195   8.034 -1.8265 -0.4989  0.8703
62497SOL    HW294607   9.303   8.117   8.010 -0.8550  1.0886  0.7123
62498SOL     OW94608   7.360   5.492   8.146  0.2264 -0.1730  0.4084
62498SOL    HW194609   7.431   5.467   8.205 -1.1501 -0.4624  2.0335
62498SOL    HW294610   7.320   5.409   8.120 -0.7027  0.0635  1.0596
62499SOL     OW94611   2.247  10.944   6.752  0.0294 -0.2242 -0.5549
62499SOL    HW194612   2.255  11.035   6.779 -1.5274  0.2777 -1.6002
62499SOL    HW294613   2.319  10.930   6.690 -0.3815  0.6639 -1.2559
62500SOL     OW94614   5.542   0.766   0.764 -0.0645 -0.5666  0.0255
62500SOL    HW194615   5.634   0.741   0.760 -0.3879 -1.7009 -0.7357
62500SOL    HW294616   5.527   0.790   0.856  0.6310 -1.8225  0.4831
62501SOL     OW94617   0.391   1.634  10.510  0.1942  0.7024  0.2125
62501SOL    HW194618   0.423   1.712  10.554 -0.8078  0.5464  1.2575
62501SOL    HW294619   0.435   1.561  10.555  0.2515  0.6067  0.0031
62502SOL     OW94620   7.702  11.294   4.408 -0.0468 -0.0334 -0.1672
62502SOL    HW194621   7.628  11.298   4.468 -0.2503 -0.5398 -0.3812
62502SOL    HW294622   7.776  11.267   4.463 -0.3901 -1.2360 -0.2720
62503SOL     OW94623   1.595  10.604  12.636  0.1888 -0.0530  0.0500
62503SOL    HW194624   1.670  10.584  12.579 -0.9734 -1.3596 -1.0864
62503SOL    HW294625   1.532  10.535  12.617 -0.9326  0.4773  1.7007
62504SOL     OW94626  10.180   3.628   0.726  0.4141  0.1128  0.3446
62504SOL    HW194627  10.241   3.699   0.745 -0.3397  1.3630 -1.6106
62504SOL    HW294628  10.215   3.587   0.647 -1.1093  0.6866 -0.6605
62505SOL     OW94629   9.514   3.210   9.905 -0.1812 -0.4009 -0.0453
62505SOL    HW194630   9.483   3.119   9.905  1.0555 -0.8460  0.7653
62505SOL    HW294631   9.603   3.205   9.871  0.0924  0.4371  0.5255
62506SOL     OW94632   4.815   7.518   3.736  0.1977  0.4932 -0.6817
62506SOL    HW194633   4.882   7.501   3.802 -1.4257  0.0307  0.9454
62506SOL    HW294634   4.769   7.434   3.727 -0.0701  0.7552 -1.8643
62507SOL     OW94635   3.712   8.333  11.328  0.0224  0.5588  0.1871
62507SOL    HW194636   3.789   8.343  11.271  0.2778  1.0249  0.5932
62507SOL    HW294637   3.702   8.239  11.339  1.6284  0.5067  1.5485
62508SOL     OW94638   1.120   5.963  10.215 -0.0536 -0.2630 -0.2637
62508SOL    HW194639   1.055   5.898  10.243  1.2141 -1.4412  0.0574
62508SOL    HW294640   1.186   5.961  10.284 -0.3697  2.0169  0.1947
62509SOL     OW94641  12.963   2.293   3.391 -0.1021  0.0472 -0.0820
62509SOL    HW194642  12.962   2.255   3.303 -3.2202 -2.5130  0.8603
62509SOL    HW294643  13.024   2.238   3.440  0.1871  0.2581 -0.2074
62510SOL     OW94644   0.084   4.391   1.323 -0.5970 -0.5801 -0.1943
62510SOL    HW194645   0.043   4.330   1.384 -3.0442 -0.2294 -1.3358
62510SOL    HW294646   0.039   4.375   1.240  0.2534  1.2522 -1.0703
62511SOL     OW94647   4.674  11.933   4.835 -0.4533 -0.3133  0.1566
62511SOL    HW194648   4.712  11.978   4.759 -2.6293  1.0577 -0.2045
62511SOL    HW294649   4.693  11.992   4.909  0.4806 -0.9894  0.4775
62512SOL     OW94650   7.457   8.467   5.173 -0.2037 -0.4720  0.7442
62512SOL    HW194651   7.487   8.414   5.099  0.3511  1.4962 -0.5083
62512SOL    HW294652   7.440   8.403   5.242 -0.2664 -2.3476 -0.8978
62513SOL     OW94653  11.926   1.010   9.749 -0.2051 -0.6723  0.3195
62513SOL    HW194654  11.858   0.969   9.803  0.0475  0.4797  1.5667
62513SOL    HW294655  12.008   0.970   9.778 -0.0721 -0.0765  0.7891
62514SOL     OW94656   5.622   2.853   1.193 -0.4006  0.3534  0.0896
62514SOL    HW194657   5.636   2.944   1.166  0.1858  0.3320  0.3129
62514SOL    HW294658   5.682   2.840   1.267  0.8632 -0.7562 -1.0867
62515SOL     OW94659   1.469   6.491   5.235  0.2612 -0.0549 -0.7301
62515SOL    HW194660   1.543   6.524   5.185  0.8109 -1.6220 -1.0028
62515SOL    HW294661   1.429   6.424   5.179  0.1870 -1.0260  0.4344
62516SOL     OW94662  11.744   1.117  11.133  0.9645 -0.6475 -0.3077
62516SOL    HW194663  11.678   1.113  11.202  0.3299 -0.1809 -0.8669
62516SOL    HW294664  11.797   1.194  11.154  0.6618 -0.4031 -0.4321
62517SOL     OW94665   3.587   4.818   2.508  0.3132 -0.0589 -0.1764
62517SOL    HW194666   3.526   4.746   2.526  2.4489 -1.7138  0.8972
62517SOL    HW294667   3.606   4.854   2.595  2.5359 -1.0896 -0.1637
62518SOL     OW94668   2.137   6.993   3.573 -0.1141 -0.7088  0.5877
62518SOL    HW194669   2.190   6.957   3.502  0.5563 -0.9378  1.1937
62518SOL    HW294670   2.061   7.032   3.529  0.5778 -0.3278 -0.2960
62519SOL     OW94671   2.929   5.272   5.283 -0.3784 -0.1034 -0.3678
62519SOL    HW194672   3.021   5.271   5.311 -0.4214 -2.5516 -0.1161
62519SOL    HW294673   2.880   5.296   5.362 -0.0815 -0.9688  0.0924
62520SOL     OW94674   4.071   5.056   8.984 -0.0907  0.4443 -0.0343
62520SOL    HW194675   3.985   5.090   9.009 -0.3003  0.8830 -1.2849
62520SOL    HW294676   4.074   5.067   8.889  1.1503 -0.0365 -0.0628
62521SOL     OW94677   4.090   3.028   7.864 -0.5354 -0.4584 -0.5212
62521SOL    HW194678   4.019   2.964   7.861 -0.8323 -0.0960 -1.7469
62521SOL    HW294679   4.082   3.077   7.783 -1.1966  2.1019  0.9807
62522SOL     OW94680   2.763   0.828   5.022  0.3458  0.1256 -0.3729
62522SOL    HW194681   2.710   0.887   4.967  0.9929  0.5753 -0.5344
62522SOL    HW294682   2.823   0.887   5.068 -1.1324 -0.0673  1.9704
62523SOL     OW94683   9.753   9.958   3.233  0.2448 -0.1920  0.3101
62523SOL    HW194684   9.664   9.981   3.207  0.4919  0.7735  0.2700
62523SOL    HW294685   9.808   9.999   3.167  0.7514 -0.1294  0.7689
62524SOL     OW94686   7.311   6.210   9.100  0.7551  0.2445  0.1294
62524SOL    HW194687   7.232   6.161   9.122  1.2101 -0.1725  0.9412
62524SOL    HW294688   7.377   6.142   9.085  1.0929  0.5930  0.0183
62525SOL     OW94689   3.804   5.210   3.354  0.6765 -0.0841  0.2023
62525SOL    HW194690   3.794   5.293   3.307  1.9603 -0.0307 -0.0107
62525SOL    HW294691   3.756   5.223   3.436 -2.0535 -0.3719 -1.2647
62526SOL     OW94692   4.401  10.722   2.908  0.5152  0.0684 -0.0409
62526SOL    HW194693   4.432  10.703   2.996  0.0049 -0.2783  0.0659
62526SOL    HW294694   4.433  10.810   2.889  0.2722  0.3050  0.6456
62527SOL     OW94695  10.934   4.084  10.348  0.1989  0.3138 -0.8933
62527SOL    HW194696  11.023   4.109  10.322  0.3850 -1.1234 -1.7383
62527SOL    HW294697  10.904   4.156  10.404  1.5099  1.3053 -1.4177
62528SOL     OW94698   8.771   7.556   0.083 -0.0081 -0.0027 -0.5043
62528SOL    HW194699   8.846   7.603   0.047  1.4438 -1.4431  0.4963
62528SOL    HW294700   8.695   7.605   0.053  1.1843  0.1948 -3.5853
62529SOL     OW94701  11.539   7.126   4.657 -0.6429  0.7070 -0.2549
62529SOL    HW194702  11.464   7.154   4.605 -1.2610 -1.1202 -0.3986
62529SOL    HW294703  11.588   7.068   4.599 -1.0598 -0.9392  0.9654
62530SOL     OW94704   9.088   0.389   5.476 -0.1120 -0.0172 -0.5392
62530SOL    HW194705   9.172   0.431   5.491 -0.1385  0.4715 -1.6561
62530SOL    HW294706   9.110   0.303   5.439 -0.0836 -0.5037  0.5856
62531SOL     OW94707  10.703   3.206  12.421 -0.1625  0.2737  0.2293
62531SOL    HW194708  10.676   3.267  12.490  1.8188 -1.0191  2.2676
62531SOL    HW294709  10.764   3.256  12.366  1.5877  0.1730  1.9862
62532SOL     OW94710   8.387   2.496  12.678 -0.3462  0.1439  0.0059
62532SOL    HW194711   8.439   2.553  12.621 -0.3677 -1.3505 -1.5867
62532SOL    HW294712   8.351   2.555  12.744  1.7167  1.5430 -0.0323
62533SOL     OW94713   1.301   7.966   8.857  0.1176 -0.3469  0.3527
62533SOL    HW194714   1.338   7.895   8.803 -1.5007 -0.6019 -0.4860
62533SOL    HW294715   1.377   8.005   8.900  1.0797 -2.5310  0.7901
62534SOL     OW94716   0.617   9.446  11.847 -0.3257  0.2875  0.0820
62534SOL    HW194717   0.578   9.430  11.762  0.2927 -1.7678  0.1385
62534SOL    HW294718   0.654   9.534  11.840 -0.6867  0.3344 -1.6112
62535SOL     OW94719  12.938   9.778   5.260  0.1420  0.0019  0.1160
62535SOL    HW194720  12.884   9.783   5.181 -0.1768  0.4647  0.3569
62535SOL    HW294721  12.913   9.695   5.301  1.4970 -1.0535 -1.1054
62536SOL     OW94722   9.112   4.793  10.573  0.3986  0.3672  0.9844
62536SOL    HW194723   9.144   4.708  10.546  0.9178  0.9300 -0.2595
62536SOL    HW294724   9.019   4.779  10.592  0.1728 -0.2340 -0.4210
62537SOL     OW94725   9.365  11.694   7.823 -0.1528 -0.0883  0.3736
62537SOL    HW194726   9.349  11.757   7.893 -0.7852 -0.3439  0.4681
62537SOL    HW294727   9.300  11.716   7.756  2.2887  2.0650 -1.4886
62538SOL     OW94728  11.750   6.624   4.556  0.1248  1.0272 -0.2789
62538SOL    HW194729  11.662   6.637   4.520 -0.5988 -0.1478  0.9932
62538SOL    HW294730  11.758   6.691   4.624 -0.0955  0.6732  0.1054
62539SOL     OW94731   8.971   9.057   2.730 -0.2132 -0.3178  0.1748
62539SOL    HW194732   8.995   9.146   2.757  0.9762 -1.1910  2.2439
62539SOL    HW294733   8.879   9.065   2.702 -0.4359  1.3728  1.2120
62540SOL     OW94734   4.090   4.674   4.262 -0.2187 -0.1029  0.5277
62540SOL    HW194735   4.124   4.721   4.186 -1.9503 -1.2018 -1.0335
62540SOL    HW294736   4.042   4.740   4.311 -1.1656  0.1636 -0.6997
62541SOL     OW94737   2.501   7.197   9.917 -0.1010 -0.3666  0.6798
62541SOL    HW194738   2.418   7.244   9.908  0.0874 -0.3029 -1.2052
62541SOL    HW294739   2.488   7.115   9.869  1.0308 -0.1853  0.0133
62542SOL     OW94740   4.403   1.359   0.320  0.5641  0.6431  0.0090
62542SOL    HW194741   4.371   1.424   0.258  0.0584  0.6197  0.2391
62542SOL    HW294742   4.498   1.358   0.308  0.4548  0.4750 -0.9238
62543SOL     OW94743  12.016   8.673   3.073 -0.3404 -0.7912 -0.1403
62543SOL    HW194744  12.080   8.671   3.144  0.3312  0.3466 -0.6881
62543SOL    HW294745  11.946   8.730   3.106 -1.3352 -2.4019  0.6423
62544SOL     OW94746  10.604   9.604   2.951  0.2016 -0.1385 -0.0865
62544SOL    HW194747  10.589   9.510   2.954  0.9913 -0.3063 -1.1153
62544SOL    HW294748  10.681   9.615   2.896 -0.7419  1.2051 -1.2096
62545SOL     OW94749   9.261   6.778   2.799 -0.0485 -0.1176  0.3935
62545SOL    HW194750   9.237   6.716   2.730 -0.2141 -0.0454  0.3861
62545SOL    HW294751   9.354   6.792   2.787  0.0335 -0.5270  0.5228
62546SOL     OW94752   0.678   6.223  12.559 -0.3980  0.1407 -0.4686
62546SOL    HW194753   0.681   6.143  12.507  0.0426 -0.5600  0.5873
62546SOL    HW294754   0.770   6.249  12.568 -0.3311 -0.4636  0.9753
62547SOL     OW94755  12.603   6.693   0.065  0.0168  0.0638  0.3225
62547SOL    HW194756  12.571   6.779   0.092  1.9107  1.2399 -0.9296
62547SOL    HW294757  12.566   6.632   0.128 -1.7259  1.7409  0.9913
62548SOL     OW94758   1.926   2.100  11.125  0.2207 -0.0306  0.0940
62548SOL    HW194759   1.949   2.187  11.093 -0.8289  0.4780  0.6335
62548SOL    HW294760   2.008   2.063  11.157  0.6764  0.7876 -0.1063
62549SOL     OW94761   8.744  11.878   6.953  0.2106  0.2410  0.5582
62549SOL    HW194762   8.722  11.851   6.864  0.1593 -0.4813  0.7870
62549SOL    HW294763   8.675  11.940   6.977  0.2467  0.4694  0.0833
62550SOL     OW94764   1.688  12.620   2.955  0.1368  0.1906 -0.5413
62550SOL    HW194765   1.755  12.657   3.013 -1.3189  0.5482  0.9808
62550SOL    HW294766   1.665  12.693   2.897 -0.7094  0.8732  0.6030
62551SOL     OW94767   5.530   8.033  11.481  0.3479  0.3008  0.5573
62551SOL    HW194768   5.617   8.050  11.518  1.5574 -1.2089 -1.4203
62551SOL    HW294769   5.479   8.002  11.555  0.7844  3.1718  2.2375
62552SOL     OW94770   0.684   8.001   5.829 -1.1826 -0.1746 -0.4283
62552SOL    HW194771   0.590   8.015   5.816 -1.4054  0.1944  1.3420
62552SOL    HW294772   0.698   8.018   5.922  0.3659 -1.8673 -0.3066
62553SOL     OW94773  10.185   7.540   8.266 -0.2220  0.0147 -0.1651
62553SOL    HW194774  10.220   7.451   8.268  0.8345  0.3845 -0.9831
62553SOL    HW294775  10.142   7.547   8.181  0.9822  0.7281 -0.7419
62554SOL     OW94776  12.061   9.830  11.720  0.4878  0.2402  0.2151
62554SOL    HW194777  12.066   9.925  11.712  0.4400  0.2722  0.5488
62554SOL    HW294778  11.967   9.812  11.725  0.4039  0.0052 -1.7908
62555SOL     OW94779   4.890   7.756  10.869 -0.0274 -0.0001  0.1813
62555SOL    HW194780   4.895   7.847  10.898 -0.6932  0.2307 -0.4127
62555SOL    HW294781   4.838   7.759  10.788  0.5977 -0.8056 -0.2708
62556SOL     OW94782   9.242   4.591   0.053  0.2693  0.3555 -0.5634
62556SOL    HW194783   9.251   4.647  -0.024  0.7646 -0.2500 -0.9517
62556SOL    HW294784   9.324   4.601   0.101  0.1242  0.4165 -0.3229
62557SOL     OW94785   2.829  10.764  11.419  0.3647 -0.0988 -0.0286
62557SOL    HW194786   2.760  10.761  11.485  0.0077 -2.3808 -0.4308
62557SOL    HW294787   2.782  10.758  11.335  0.7682  3.1911 -0.6434
62558SOL     OW94788   3.882   3.156   5.554  0.1503 -0.4095  0.7915
62558SOL    HW194789   3.858   3.248   5.539  2.7546  0.4964  1.5060
62558SOL    HW294790   3.903   3.122   5.467  2.2808  0.7176  0.8086
62559SOL     OW94791   6.858   7.146   0.108 -0.0915  0.2647 -0.4180
62559SOL    HW194792   6.914   7.071   0.090  0.0799  0.0565  0.9040
62559SOL    HW294793   6.770   7.117   0.084 -0.0110 -0.3273 -0.0058
62560SOL     OW94794   1.292   5.012   5.801  0.1249 -0.4547 -0.1483
62560SOL    HW194795   1.267   4.960   5.878  1.7312  0.6522  1.1857
62560SOL    HW294796   1.307   4.948   5.732  1.3320 -1.7288  1.2429
62561SOL     OW94797  10.699   1.388   2.115 -0.3383 -0.1325  0.0830
62561SOL    HW194798  10.760   1.337   2.061 -0.1693 -1.3006  1.3238
62561SOL    HW294799  10.755   1.432   2.179 -0.5435  1.2250 -0.6141
62562SOL     OW94800   5.361  11.615   6.044 -0.4503 -0.1979 -0.1858
62562SOL    HW194801   5.406  11.645   5.964  2.2048  0.8710  1.5551
62562SOL    HW294802   5.287  11.674   6.053  0.9243  1.6415 -0.3437
62563SOL     OW94803   1.043  12.211   5.933 -0.4487  0.2095 -0.6280
62563SOL    HW194804   1.025  12.126   5.892 -3.5499  0.5297 -0.1000
62563SOL    HW294805   1.071  12.267   5.860  0.7804 -0.9699 -1.1196
62564SOL     OW94806   5.720   4.932   6.440 -0.6445  0.0554  0.2390
62564SOL    HW194807   5.772   5.002   6.478  0.7496 -0.8437  0.0288
62564SOL    HW294808   5.699   4.963   6.352  1.1902 -0.3632 -0.3813
62565SOL     OW94809   4.461   9.980   7.627  0.5238  0.2101  0.0212
62565SOL    HW194810   4.514  10.042   7.677  0.9894  0.0681 -0.2956
62565SOL    HW294811   4.524   9.926   7.580  0.0937  0.7105 -1.1754
62566SOL     OW94812   1.294  12.177   4.320 -0.3354 -0.2558 -0.4381
62566SOL    HW194813   1.324  12.255   4.368 -3.0283 -0.2040  1.3363
62566SOL    HW294814   1.284  12.207   4.229 -0.7898  1.3340  0.1042
62567SOL     OW94815   0.077  11.314   4.200 -0.3278  0.2312 -0.0857
62567SOL    HW194816   0.098  11.397   4.156 -1.2181  0.4703 -0.0798
62567SOL    HW294817  -0.005  11.332   4.246 -1.0229 -0.9190 -0.8320
62568SOL     OW94818   8.224   3.979   0.372  0.4178  0.2956 -0.3422
62568SOL    HW194819   8.285   3.983   0.298 -1.4361  0.6881 -1.9546
62568SOL    HW294820   8.200   4.070   0.389 -0.3954  0.0913 -0.3536
62569SOL     OW94821   9.399  12.570  10.051 -0.3308  0.0325  0.2094
62569SOL    HW194822   9.348  12.572  10.132  0.8408 -1.5719  1.0748
62569SOL    HW294823   9.456  12.647  10.056 -1.4018  0.8516  0.0814
62570SOL     OW94824  10.000   6.522   6.540  0.0520  0.1776  0.7267
62570SOL    HW194825  10.065   6.591   6.550  0.0998  0.5290 -1.5695
62570SOL    HW294826   9.974   6.526   6.448 -1.3587 -1.6208  0.9872
62571SOL     OW94827   9.524   6.358   6.372 -0.6660 -0.2475  0.1573
62571SOL    HW194828   9.456   6.293   6.352  0.5789 -1.3829 -0.4724
62571SOL    HW294829   9.584   6.354   6.299 -0.0312  0.9501  0.5795
62572SOL     OW94830   3.400   7.860   6.597  0.0588 -0.3901 -0.1032
62572SOL    HW194831   3.376   7.769   6.615 -0.1726 -0.0022  1.6987
62572SOL    HW294832   3.486   7.854   6.555 -0.5977 -1.4853 -1.4052
62573SOL     OW94833   8.445   6.228   0.454  0.3166 -0.2760  0.5151
62573SOL    HW194834   8.432   6.249   0.361 -0.8012  0.8069  0.8884
62573SOL    HW294835   8.402   6.143   0.464  0.2418 -0.2932  0.0906
62574SOL     OW94836   5.845   2.980   9.180 -0.5742 -0.1005  0.3685
62574SOL    HW194837   5.846   2.917   9.109 -1.7470  1.0879 -0.7533
62574SOL    HW294838   5.926   2.963   9.229  0.3607 -0.8062 -1.3526
62575SOL     OW94839  12.432  10.167   9.655  0.1579  0.4605 -0.3446
62575SOL    HW194840  12.435  10.073   9.639  5.5427  0.1432  0.6470
62575SOL    HW294841  12.392  10.174   9.742  0.5000 -0.9981 -0.0362
62576SOL     OW94842   0.886   8.559   7.334  0.1105 -0.1491  0.2061
62576SOL    HW194843   0.925   8.550   7.247 -0.7273  0.0106 -0.1929
62576SOL    HW294844   0.865   8.652   7.342  0.2664 -0.1454  0.6216
62577SOL     OW94845   8.317   6.385   1.137 -0.1821 -0.4849 -0.1851
62577SOL    HW194846   8.372   6.312   1.107 -0.9659 -0.8624 -0.7106
62577SOL    HW294847   8.369   6.463   1.118  0.6712 -0.8960  0.3917
62578SOL     OW94848  11.811   5.534   5.501  0.3592  0.8667  0.3386
62578SOL    HW194849  11.717   5.528   5.519  0.5600 -0.1416  1.1351
62578SOL    HW294850  11.850   5.466   5.556  1.5953  1.5060  0.2779
62579SOL     OW94851   2.718   3.329   9.884 -0.1009 -0.2622 -0.0268
62579SOL    HW194852   2.662   3.271   9.935 -0.4023  0.6658  0.7286
62579SOL    HW294853   2.658   3.378   9.828  0.1107 -0.3564 -0.3407
62580SOL     OW94854   1.949   2.834  11.511  0.1071  0.3510 -0.3499
62580SOL    HW194855   1.874   2.890  11.491 -1.0116 -1.0295 -0.1301
62580SOL    HW294856   1.965   2.786  11.430 -0.7344 -1.0227  0.2719
62581SOL     OW94857  10.460  12.296   4.689 -0.4532 -0.0715  0.1372
62581SOL    HW194858  10.399  12.274   4.760  0.9931 -0.1240  1.4227
62581SOL    HW294859  10.523  12.356   4.730  0.3491  0.0022 -1.1541
62582SOL     OW94860   1.508   4.604   3.419  0.5955  0.0428 -0.2605
62582SOL    HW194861   1.563   4.644   3.352  2.0730  0.9087  1.3742
62582SOL    HW294862   1.534   4.647   3.501 -0.1108 -1.9291  1.0912
62583SOL     OW94863  11.901   0.999   8.508  0.3198 -0.4392 -0.1394
62583SOL    HW194864  11.881   0.928   8.568 -0.8089  0.1034  0.1580
62583SOL    HW294865  11.856   1.075   8.545 -1.0802 -0.2641 -2.0639
62584SOL     OW94866  11.120   0.796   2.355  0.5849 -0.3844 -0.1791
62584SOL    HW194867  11.161   0.878   2.384 -0.2663  0.2516 -0.7340
62584SOL    HW294868  11.040   0.823   2.310 -0.5978 -1.6040  1.0787
62585SOL     OW94869   6.339  11.466   8.125  0.5855 -0.3523  0.0250
62585SOL    HW194870   6.309  11.421   8.046  0.6185 -0.8126  0.2720
62585SOL    HW294871   6.401  11.405   8.165 -0.0290 -0.4680  0.8210
62586SOL     OW94872   1.990   0.561   6.649  0.1816  0.2990  0.0683
62586SOL    HW194873   1.942   0.517   6.719  0.5404  0.2531  0.2853
62586SOL    HW294874   2.018   0.490   6.591  1.4499  0.1510  0.8393
62587SOL     OW94875  10.621  11.775   5.638 -0.7825 -0.1991 -0.3128
62587SOL    HW194876  10.690  11.816   5.585 -1.8189  0.8434 -0.9107
62587SOL    HW294877  10.666  11.706   5.686  0.6578  0.3761 -0.7633
62588SOL     OW94878  12.091   8.584  11.751 -0.2762 -0.2680 -0.0936
62588SOL    HW194879  12.080   8.490  11.734  1.4592 -0.1214 -2.6066
62588SOL    HW294880  12.144   8.588  11.831 -1.4763 -1.3289  0.8055
62589SOL     OW94881   7.212   0.252   2.371  0.5377  0.1915  0.0329
62589SOL    HW194882   7.183   0.336   2.407  0.3746 -0.2278  0.8953
62589SOL    HW294883   7.166   0.245   2.287  1.3987  1.4636 -0.5872
62590SOL     OW94884   4.156   7.974  12.627 -0.1221 -0.1579 -0.1052
62590SOL    HW194885   4.097   8.047  12.609 -1.0058 -0.9365 -0.4509
62590SOL    HW294886   4.242   8.005  12.600 -0.5803  0.5600 -0.7753
62591SOL     OW94887  10.208   2.585   3.195 -0.4710 -0.2538 -0.0365
62591SOL    HW194888  10.231   2.496   3.167 -0.6692  0.5475 -3.1930
62591SOL    HW294889  10.292   2.625   3.219  0.2444 -0.2192 -2.3297
62592SOL     OW94890   2.295  12.966   7.974  0.0819  0.6170 -0.5316
62592SOL    HW194891   2.285  12.871   7.967  0.2394  0.5201  0.4277
62592SOL    HW294892   2.338  12.980   8.058  0.3427  1.5249 -0.8018
62593SOL     OW94893   5.995   1.113   8.540  0.3108  0.3021  0.6737
62593SOL    HW194894   6.064   1.179   8.536  0.7484 -0.1157  1.2459
62593SOL    HW294895   5.949   1.122   8.456  0.9598  0.6876  0.3512
62594SOL     OW94896  11.575  11.890  10.993  0.3108  0.1164  0.0616
62594SOL    HW194897  11.629  11.938  10.930  0.5624 -0.5475 -0.2402
62594SOL    HW294898  11.491  11.936  10.992  1.0339  1.5677  1.0162
62595SOL     OW94899   1.694   2.968   7.957  0.1993  0.2442 -0.1533
62595SOL    HW194900   1.604   2.935   7.951 -0.1389  1.3475 -3.1371
62595SOL    HW294901   1.689   3.039   8.021 -0.9522  0.0083  0.0460
62596SOL     OW94902   6.629   0.022   6.106  0.0599 -0.6889 -0.2873
62596SOL    HW194903   6.564  -0.040   6.139 -0.9421  0.5917  0.2219
62596SOL    HW294904   6.581   0.077   6.044  1.3128 -1.3827 -1.9459
62597SOL     OW94905   5.359   2.406   7.416 -0.0121 -0.8945  0.3349
62597SOL    HW194906   5.348   2.415   7.322  1.0701  1.7086  0.3607
62597SOL    HW294907   5.294   2.464   7.454  0.4891 -0.8237  1.1259
62598SOL     OW94908   6.432   6.632   4.745 -0.5854 -0.0325 -0.0779
62598SOL    HW194909   6.514   6.587   4.767 -0.0788  0.1922 -1.4033
62598SOL    HW294910   6.374   6.562   4.713 -0.4908 -0.0292 -0.2588
62599SOL     OW94911   7.857   9.301   2.922  0.1805  0.6297 -0.6906
62599SOL    HW194912   7.848   9.375   2.862 -0.7389 -0.3784 -1.8375
62599SOL    HW294913   7.809   9.328   3.001  0.3487  1.4666 -0.8673
62600SOL     OW94914   8.404   9.904   2.091 -0.3937 -0.0001  0.4294
62600SOL    HW194915   8.446   9.966   2.031 -1.3070  0.6718  0.4517
62600SOL    HW294916   8.448   9.917   2.175 -0.8500  0.9512  0.5435
62601SOL     OW94917   3.052   6.731   4.819  0.2763 -0.1743  0.2050
62601SOL    HW194918   3.028   6.752   4.909  0.4970 -0.5748  0.3593
62601SOL    HW294919   3.135   6.776   4.805  0.9756 -1.2501  0.6802
62602SOL     OW94920   0.938  10.317   6.052 -0.2062  0.1370 -0.0543
62602SOL    HW194921   1.009  10.303   5.990  1.4450  1.3348  1.4681
62602SOL    HW294922   0.911  10.408   6.038 -0.3566  0.1728  0.4344
62603SOL     OW94923   3.626   1.194   2.958 -0.1272 -0.1527  0.2892
62603SOL    HW194924   3.699   1.134   2.958 -0.4145 -0.5089  0.7271
62603SOL    HW294925   3.666   1.281   2.967  0.1831 -0.4379  2.0007
62604SOL     OW94926   3.773  10.199   8.730  0.6138 -0.1799 -0.0738
62604SOL    HW194927   3.787  10.260   8.803  0.2664  0.9797 -0.9386
62604SOL    HW294928   3.679  10.182   8.731  0.5866 -0.0496 -0.3323
62605SOL     OW94929   6.298   1.196   6.311 -0.3850  0.1966  0.0035
62605SOL    HW194930   6.281   1.214   6.403  0.7382  1.9351 -0.0791
62605SOL    HW294931   6.309   1.283   6.272 -0.8495 -0.5097 -1.7746
62606SOL     OW94932   7.401   3.078   7.921 -0.3566  0.3308  0.4551
62606SOL    HW194933   7.451   3.154   7.950 -0.0276  0.9479 -1.5323
62606SOL    HW294934   7.466   3.009   7.908  0.0077  1.0182 -1.7593
62607SOL     OW94935   4.566   6.420   5.218 -0.0154 -0.5952 -0.0732
62607SOL    HW194936   4.609   6.419   5.132  0.2238 -1.7727  0.0401
62607SOL    HW294937   4.558   6.513   5.240  0.7517 -0.3041 -0.9577
62608SOL     OW94938   6.124   4.707   0.393 -0.0243  0.1211  0.3421
62608SOL    HW194939   6.196   4.763   0.422  1.6432 -2.3668  1.3854
62608SOL    HW294940   6.138   4.625   0.440 -1.3485 -1.7372 -2.2685
62609SOL     OW94941   7.295   6.420   2.107 -0.3276  0.2017 -0.4122
62609SOL    HW194942   7.336   6.504   2.086 -1.1547  0.4654 -0.9925
62609SOL    HW294943   7.362   6.374   2.158  0.4888  0.8414 -0.8666
62610SOL     OW94944   1.269  12.592   2.824 -0.1307  0.2165 -0.4389
62610SOL    HW194945   1.321  12.534   2.880 -1.4029  0.4487  1.0610
62610SOL    HW294946   1.178  12.569   2.843 -0.6712  2.3035 -0.1925
62611SOL     OW94947  12.691  10.669   4.320 -0.3002 -0.1630 -0.4990
62611SOL    HW194948  12.666  10.585   4.282 -2.0857  0.0090  0.1992
62611SOL    HW294949  12.695  10.729   4.246  1.6681 -0.9566 -1.1060
62612SOL     OW94950   0.048  10.721   4.079 -0.0061 -0.5195 -0.1362
62612SOL    HW194951   0.092  10.694   4.160 -1.1230 -1.7488  0.1084
62612SOL    HW294952  -0.030  10.768   4.109 -0.0222 -0.2988 -0.5177
62613SOL     OW94953  11.946   6.191   3.999  0.4285 -0.0193  0.4363
62613SOL    HW194954  11.947   6.287   3.997  0.9132 -0.0184 -1.8733
62613SOL    HW294955  11.861   6.167   3.961 -0.1679 -0.5423  2.0217
62614SOL     OW94956   7.532   1.874   2.087  0.2193  0.5289  0.0067
62614SOL    HW194957   7.502   1.946   2.142  1.1943 -0.3168  1.7258
62614SOL    HW294958   7.455   1.819   2.075 -0.0219  0.7545  0.4842
62615SOL     OW94959   3.348  11.421   7.850 -0.3662 -0.3155 -0.2699
62615SOL    HW194960   3.437  11.436   7.819  0.6079 -0.4816  2.2382
62615SOL    HW294961   3.340  11.474   7.929 -2.2346 -0.9273  0.0205
62616SOL     OW94962  10.054   0.997   7.869  0.3296 -0.0126 -0.2755
62616SOL    HW194963  10.103   1.018   7.789 -1.4250  0.8119 -1.1916
62616SOL    HW294964   9.967   0.974   7.838 -0.7340  1.4551  1.4396
62617SOL     OW94965   6.106  11.784   8.021 -0.1237  0.0417 -0.6898
62617SOL    HW194966   6.089  11.876   8.039 -0.2661 -0.2627  0.9080
62617SOL    HW294967   6.180  11.785   7.960 -0.5166  1.2144 -1.1760
62618SOL     OW94968   0.679   3.398   5.030  0.0754 -0.4087  0.5010
62618SOL    HW194969   0.766   3.374   5.062  1.7823  4.8656  0.8170
62618SOL    HW294970   0.629   3.416   5.110  0.5826  1.6815  0.4147
62619SOL     OW94971   7.299   1.206  10.866 -0.1707 -0.5694 -0.1145
62619SOL    HW194972   7.229   1.141  10.870  0.0424 -0.7710  0.6577
62619SOL    HW294973   7.374   1.158  10.829 -0.1917 -0.5999 -0.1179
62620SOL     OW94974   9.269  10.186   2.760  0.0845 -0.0325 -0.2987
62620SOL    HW194975   9.255  10.243   2.836  1.4766 -0.9312  0.6658
62620SOL    HW294976   9.339  10.228   2.711  1.2982 -0.9785  0.5522
62621SOL     OW94977   9.959   1.531   9.714 -0.3696  0.3614  0.2298
62621SOL    HW194978   9.954   1.625   9.731 -0.1901  0.1518  1.4903
62621SOL    HW294979   9.902   1.491   9.780  1.8273 -0.6104  1.6554
62622SOL     OW94980   7.910   3.203   1.195  0.0260  0.2955 -0.3258
62622SOL    HW194981   7.979   3.264   1.221  1.4148 -1.4114  0.1994
62622SOL    HW294982   7.890   3.154   1.275 -0.5811 -0.3866 -0.8857
62623SOL     OW94983   7.580   4.019   1.310  0.0833  1.1111 -0.5337
62623SOL    HW194984   7.497   4.041   1.267  0.1798 -2.1595 -2.7504
62623SOL    HW294985   7.556   3.967   1.386  0.0979  1.5271 -0.2383
62624SOL     OW94986   4.595   3.458   0.225 -0.1871 -0.2856 -0.0911
62624SOL    HW194987   4.591   3.478   0.132 -1.8080 -0.8090 -0.1596
62624SOL    HW294988   4.683   3.421   0.238  0.1721  0.0865 -1.3258
62625SOL     OW94989   6.685   1.835   8.779  0.1129  0.1981 -0.3242
62625SOL    HW194990   6.603   1.791   8.757 -0.4557  1.2823 -0.4672
62625SOL    HW294991   6.719   1.787   8.855  0.5518 -1.6933 -1.6313
62626SOL     OW94992   0.578   8.893   7.136  0.8392 -0.2905 -0.1281
62626SOL    HW194993   0.663   8.877   7.176 -0.0403 -0.5704  1.7673
62626SOL    HW294994   0.566   8.821   7.075  0.7267 -1.9644  1.7807
62627SOL     OW94995   4.857  10.462   8.327 -0.5466 -0.0435 -0.2583
62627SOL    HW194996   4.772  10.450   8.369 -0.8252 -0.6856 -0.9832
62627SOL    HW294997   4.916  10.406   8.376 -0.4879  0.5354  0.3575
62628SOL     OW94998   3.141  10.644   1.737  0.1231  0.1563 -0.5776
62628SOL    HW194999   3.155  10.646   1.832 -0.9015 -0.8940 -0.3776
62628SOL    HW295000   3.176  10.727   1.706  2.6014 -0.4049  0.4115
62629SOL     OW95001   9.370   6.522   1.334 -0.5819  0.1851  0.0220
62629SOL    HW195002   9.283   6.540   1.369 -0.7654 -1.4970  0.5208
62629SOL    HW295003   9.385   6.592   1.271 -1.0868  2.1536  1.9587
62630SOL     OW95004   1.446   5.113  11.321  0.4754  0.0537 -0.0858
62630SOL    HW195005   1.497   5.194  11.317  1.0444 -0.2629  0.5388
62630SOL    HW295006   1.512   5.043  11.328  0.0271 -0.5322 -1.3311
62631SOL     OW95007   4.227   4.304   7.574  0.5951  0.5631 -0.2355
62631SOL    HW195008   4.157   4.360   7.607 -0.5197 -1.8033  1.7520
62631SOL    HW295009   4.182   4.236   7.524  1.5494 -0.2979  0.0382
62632SOL     OW95010   2.297   6.935   8.605  0.2965 -0.6905 -0.1326
62632SOL    HW195011   2.364   6.977   8.658  0.8438 -0.8290 -0.7061
62632SOL    HW295012   2.241   6.890   8.668  0.5569 -0.3100  0.3739
62633SOL     OW95013  12.967   8.008   2.374 -0.9587  0.0424 -0.1708
62633SOL    HW195014  12.880   7.991   2.337 -0.7397 -1.5937 -0.0397
62633SOL    HW295015  12.950   8.034   2.464 -1.3054 -0.9524  0.0634
62634SOL     OW95016   1.390   2.322   9.210 -0.2840  0.1411  0.2549
62634SOL    HW195017   1.323   2.320   9.141  0.8745 -1.2085 -0.9049
62634SOL    HW295018   1.438   2.240   9.198  0.1381  0.0157  2.5268
62635SOL     OW95019   8.051   3.085   6.932  0.4518  0.1457 -0.9601
62635SOL    HW195020   8.022   3.025   6.863  1.6921 -0.7452 -0.7392
62635SOL    HW295021   8.048   3.033   7.012 -0.2473  0.9520 -0.4395
62636SOL     OW95022  10.348   8.116   2.214 -0.2316  0.2077  0.1721
62636SOL    HW195023  10.355   8.172   2.291 -1.4435  0.1053  0.3739
62636SOL    HW295024  10.351   8.027   2.248  2.7233  0.0431 -0.2346
62637SOL     OW95025  11.088   2.714   0.001 -0.6383  0.3856  0.0337
62637SOL    HW195026  11.095   2.767   0.081 -0.6331 -0.9181  0.9335
62637SOL    HW295027  11.171   2.669  -0.004 -1.0674 -0.4035 -0.0701
62638SOL     OW95028   8.028   2.238  12.245 -0.1038 -0.0058  0.2887
62638SOL    HW195029   8.006   2.148  12.223  1.0558 -0.3363  0.3656
62638SOL    HW295030   8.123   2.244  12.229 -0.1689  1.2159  0.2265
62639SOL     OW95031   0.430   4.713   1.672  0.2181 -0.1327 -0.0277
62639SOL    HW195032   0.496   4.767   1.716  2.3786 -1.0488 -1.9553
62639SOL    HW295033   0.424   4.634   1.726 -0.5223  0.5806  0.9905
62640SOL     OW95034   9.840   0.248   4.713  0.9575 -0.3328  0.1001
62640SOL    HW195035   9.822   0.253   4.619 -0.7511 -2.2546  0.2590
62640SOL    HW295036   9.895   0.171   4.723  1.5664  0.1632  0.6352
62641SOL     OW95037   9.298  12.190  11.569 -0.5064  0.1356  0.2197
62641SOL    HW195038   9.264  12.190  11.659 -1.4705 -0.0375 -0.1330
62641SOL    HW295039   9.304  12.098  11.546  1.2616  0.1041  0.6349
62642SOL     OW95040   7.087   7.097  10.049  0.4443 -0.5264  0.3598
62642SOL    HW195041   7.094   7.179  10.098  1.6883  0.7411 -1.7809
62642SOL    HW295042   7.106   7.029  10.114  2.8920  1.1054  1.5273
62643SOL     OW95043   9.720  11.977   5.921  0.1302  0.0215  0.2768
62643SOL    HW195044   9.639  11.925   5.923  0.1072  0.0602  0.3518
62643SOL    HW295045   9.693  12.063   5.890  0.0010  0.2812  1.0879
62644SOL     OW95046   1.137   2.271   2.716 -0.4500 -0.0200  0.0410
62644SOL    HW195047   1.088   2.212   2.773 -1.9030  0.8306 -0.2675
62644SOL    HW295048   1.224   2.277   2.756 -1.6241  1.1722  2.6779
62645SOL     OW95049   7.428   7.768   2.064 -0.0991 -0.0401  0.2179
62645SOL    HW195050   7.456   7.750   2.154 -0.3121 -1.7250 -0.0129
62645SOL    HW295051   7.333   7.770   2.068 -0.2813 -3.0184 -0.3711
62646SOL     OW95052   1.552   5.646   6.401  0.0927 -0.5067  0.3686
62646SOL    HW195053   1.465   5.667   6.435  0.6602 -0.2144  1.7261
62646SOL    HW295054   1.593   5.595   6.471  1.1700 -0.2447 -0.0471
62647SOL     OW95055  11.154   0.473  10.074  0.1434  0.1811  0.1829
62647SOL    HW195056  11.232   0.474  10.018  0.5279  0.7456  0.7070
62647SOL    HW295057  11.080   0.471  10.014  0.5498 -1.8701 -0.3438
62648SOL     OW95058   9.970  10.064   5.408  0.0240 -0.0974 -0.3380
62648SOL    HW195059  10.026  10.129   5.451 -0.6573 -0.3221  0.9352
62648SOL    HW295060   9.971  10.088   5.315  1.6193  0.3435 -0.2300
62649SOL     OW95061   5.189   7.211  10.609  0.0469 -0.1591 -0.6670
62649SOL    HW195062   5.175   7.118  10.625  2.6544 -0.6209 -0.5557
62649SOL    HW295063   5.171   7.222  10.516 -0.7187 -0.6653 -0.5884
62650SOL     OW95064  10.599   6.324  10.148 -0.4834 -0.7567 -0.2928
62650SOL    HW195065  10.636   6.333  10.060 -0.2324  1.8303 -0.0082
62650SOL    HW295066  10.505   6.312  10.133 -0.2390 -2.1290 -0.9030
62651SOL     OW95067   1.437   5.239   0.064 -0.6512  0.2329 -0.1944
62651SOL    HW195068   1.493   5.282   0.000 -0.3840  0.5739  0.2633
62651SOL    HW295069   1.495   5.216   0.136 -0.9102 -0.3312 -0.1578
62652SOL     OW95070   4.224  10.453  11.600  0.3445 -0.3114  0.8458
62652SOL    HW195071   4.220  10.525  11.537 -0.4673 -1.7587 -0.8555
62652SOL    HW295072   4.162  10.477  11.669  1.0553  1.1923  0.9865
62653SOL     OW95073  10.998  12.371  12.073  0.2468  1.0393  0.1035
62653SOL    HW195074  11.091  12.377  12.052  0.2386  1.3172  0.1438
62653SOL    HW295075  10.992  12.299  12.135  0.4575  1.1253  0.2251
62654SOL     OW95076   2.889   3.829   6.987 -0.4969  0.0666  0.5331
62654SOL    HW195077   2.830   3.862   7.055  0.2982  2.4838  0.1351
62654SOL    HW295078   2.951   3.899   6.972 -0.4545 -0.4675 -2.4931
62655SOL     OW95079   7.097   3.889   7.999  0.0891 -0.1341 -0.1663
62655SOL    HW195080   7.096   3.847   7.913  0.6174  0.1000 -0.2907
62655SOL    HW295081   7.169   3.952   7.994  2.0210 -2.0655  1.3697
62656SOL     OW95082   5.183   8.964   8.271 -0.1029  0.9976 -0.2964
62656SOL    HW195083   5.265   8.967   8.220 -0.6795 -0.4917 -1.3708
62656SOL    HW295084   5.121   9.016   8.219 -0.0182  1.6060  0.2030
62657SOL     OW95085  12.457   2.363   9.209 -0.5433  0.0708  0.7860
62657SOL    HW195086  12.377   2.314   9.191 -0.9596  0.9637  0.1526
62657SOL    HW295087  12.487   2.329   9.293 -1.6730 -0.1688  1.1075
62658SOL     OW95088   6.445   9.388   9.602 -0.1820  0.2686  0.0389
62658SOL    HW195089   6.404   9.310   9.639  0.2416 -0.3301 -0.7258
62658SOL    HW295090   6.420   9.458   9.662 -1.0305 -0.3487  0.4401
62659SOL     OW95091   7.026   5.471  12.922  0.0865  0.0459 -0.7852
62659SOL    HW195092   7.050   5.393  12.871 -0.9465 -0.4475 -0.5454
62659SOL    HW295093   6.933   5.483  12.905 -0.0991  0.3480  0.3487
62660SOL     OW95094   9.944  10.279  11.075  0.3323 -0.1361 -0.0667
62660SOL    HW195095  10.020  10.312  11.027  0.3625 -0.1831 -0.0522
62660SOL    HW295096   9.971  10.193  11.107 -0.1912 -0.7163 -1.1591
62661SOL     OW95097   8.232   5.252   0.894 -0.2066  0.3412  0.3031
62661SOL    HW195098   8.312   5.305   0.896 -0.7269  1.1622  2.5188
62661SOL    HW295099   8.170   5.304   0.843 -0.0772  0.9418  0.7353
62662SOL     OW95100  12.035   9.266   9.650  0.0350 -0.3234  0.2206
62662SOL    HW195101  12.058   9.355   9.679  2.2846 -0.7240 -0.1529
62662SOL    HW295102  12.019   9.218   9.731  1.2907 -0.1775  0.5748
62663SOL     OW95103  11.406   3.851   6.788  0.1691 -0.2580 -0.0364
62663SOL    HW195104  11.389   3.883   6.877  2.2728  2.0223 -0.3690
62663SOL    HW295105  11.441   3.763   6.801 -1.5859 -0.8354  1.2142
62664SOL     OW95106  10.152   6.477   1.848  0.6542 -0.0966  0.4403
62664SOL    HW195107  10.075   6.424   1.828  1.2053 -0.6824 -0.1398
62664SOL    HW295108  10.128   6.565   1.819  0.3021 -0.3304  0.0058
62665SOL     OW95109  10.465   7.487  12.710  0.4671 -0.5529  0.0422
62665SOL    HW195110  10.530   7.511  12.643  1.7435 -0.1465  1.3583
62665SOL    HW295111  10.457   7.566  12.764  0.9112 -1.4509  1.4796
62666SOL     OW95112   9.816   2.945   7.578  0.3644 -0.4842 -0.0073
62666SOL    HW195113   9.895   2.918   7.625  1.0503  0.9188 -0.2869
62666SOL    HW295114   9.792   3.029   7.618  0.5235  0.3684 -1.6002
62667SOL     OW95115   7.871  10.748  12.224 -0.2103  0.5580 -0.1001
62667SOL    HW195116   7.870  10.717  12.315 -0.5623  0.1316 -0.2492
62667SOL    HW295117   7.961  10.730  12.194 -0.4932 -0.6064 -0.2808
62668SOL     OW95118   7.327   0.396  10.145  0.3461  0.2015 -0.3430
62668SOL    HW195119   7.241   0.378  10.108 -0.1148 -2.7463  1.7258
62668SOL    HW295120   7.388   0.346  10.090  0.5154  0.8373 -0.7426
62669SOL     OW95121   2.277   5.299   7.598  0.1607  0.0155 -0.4140
62669SOL    HW195122   2.213   5.370   7.610 -1.1806 -1.1694 -0.3800
62669SOL    HW295123   2.229   5.230   7.553  0.8841 -1.6407  1.2447
62670SOL     OW95124   6.579   0.406   3.346  0.0064  0.0482  0.0299
62670SOL    HW195125   6.647   0.424   3.410 -0.7791  1.2308  0.5842
62670SOL    HW295126   6.615   0.436   3.263  0.2360  0.4935  0.2871
62671SOL     OW95127   3.409   2.434   3.152 -0.0770 -0.0072  0.0621
62671SOL    HW195128   3.482   2.486   3.186  0.5767 -1.4121  0.8858
62671SOL    HW295129   3.334   2.494   3.154 -0.0848  0.1255  3.9081
62672SOL     OW95130   4.671  11.424   8.859 -0.2673  0.1554  0.6035
62672SOL    HW195131   4.645  11.352   8.802 -0.2305 -0.0239  0.8133
62672SOL    HW295132   4.711  11.488   8.800 -0.2827 -0.0026  0.4206
62673SOL     OW95133   6.472   9.773   0.768  0.5465 -0.2496 -0.4627
62673SOL    HW195134   6.556   9.729   0.755  1.3323  1.1488 -0.2597
62673SOL    HW295135   6.473   9.845   0.705 -0.4023 -0.0736 -0.2883
62674SOL     OW95136   9.811   0.062   0.182  0.0688  0.0906  0.1691
62674SOL    HW195137   9.730   0.029   0.220 -0.6809 -0.5952 -1.8796
62674SOL    HW295138   9.789   0.150   0.151 -0.2188 -0.4428 -1.2259
62675SOL     OW95139   4.269   2.395   6.517  0.0112 -0.3778  0.5234
62675SOL    HW195140   4.316   2.458   6.572 -0.4913 -1.2143  1.9423
62675SOL    HW295141   4.331   2.323   6.505 -0.4888 -0.9736  1.4547
62676SOL     OW95142   2.797   6.640   2.069 -0.6759  0.5746  0.9742
62676SOL    HW195143   2.867   6.631   2.135  0.4948 -1.9545 -0.4470
62676SOL    HW295144   2.835   6.696   2.001 -0.0432 -0.6273  0.3026
62677SOL     OW95145   9.025  10.341  12.890  0.7395  0.4105 -0.1325
62677SOL    HW195146   8.935  10.321  12.866  0.7711  0.4850 -0.3125
62677SOL    HW295147   9.047  10.276  12.957  0.0895  1.2326  0.9124
62678SOL     OW95148   6.789   8.397   5.440 -0.1437 -0.3204 -0.1003
62678SOL    HW195149   6.831   8.394   5.355 -0.4319 -2.0714 -0.2097
62678SOL    HW295150   6.712   8.341   5.432 -0.5677  0.0441  1.1019
62679SOL     OW95151   0.307  12.073  12.664 -0.1583 -0.3697 -0.1081
62679SOL    HW195152   0.398  12.051  12.644 -0.3703 -2.5034  0.9252
62679SOL    HW295153   0.264  12.073  12.578  0.1402 -3.1429 -0.3799
62680SOL     OW95154   2.896  11.380   4.951  0.1693  0.0603 -0.4364
62680SOL    HW195155   2.968  11.374   4.889  1.5353 -0.3128  1.1096
62680SOL    HW295156   2.841  11.304   4.932 -0.0714  0.5542 -1.8798
62681SOL     OW95157  12.190   1.574  10.494 -0.1831 -0.0222 -0.5248
62681SOL    HW195158  12.225   1.502  10.441 -1.1828 -0.4919 -0.5634
62681SOL    HW295159  12.120   1.611  10.440 -2.4258 -1.6100  1.1151
62682SOL     OW95160  10.185  10.034   3.687  0.4157  0.4086  0.1782
62682SOL    HW195161  10.269  10.043   3.732  0.4929  1.9517 -0.2511
62682SOL    HW295162  10.191   9.948   3.644  1.6682  0.3913  0.3426
62683SOL     OW95163  11.421   7.088   8.416  0.3183  0.1927 -0.0436
62683SOL    HW195164  11.348   7.030   8.396  0.5483 -0.1899  0.2134
62683SOL    HW295165  11.402   7.122   8.504 -0.5837  1.7076 -0.7789
62684SOL     OW95166   4.359  10.874  12.514  0.0854 -0.1182  0.2113
62684SOL    HW195167   4.425  10.942  12.501  0.3307 -0.1125  1.3662
62684SOL    HW295168   4.350  10.868  12.609 -0.6925 -0.9766  0.0920
62685SOL     OW95169   6.937   8.506   4.371  0.3481  0.1691 -0.3425
62685SOL    HW195170   6.876   8.451   4.420 -0.1680  2.1169  1.3663
62685SOL    HW295171   6.885   8.540   4.298  0.4603 -0.9661 -0.9722
62686SOL     OW95172  10.336   2.513   4.585 -0.0127 -0.3347  0.2128
62686SOL    HW195173  10.282   2.495   4.508  0.1962  1.2268 -0.3297
62686SOL    HW295174  10.361   2.605   4.576  4.8814 -1.4816 -0.9859
62687SOL     OW95175   2.219  10.810   6.215 -0.4598 -0.5697  0.0580
62687SOL    HW195176   2.276  10.879   6.179 -0.1920 -0.3728  0.8463
62687SOL    HW295177   2.144  10.808   6.156  0.5233 -1.0988 -1.2316
62688SOL     OW95178  11.952   5.339   1.916  0.0382 -0.0305  0.1147
62688SOL    HW195179  12.000   5.333   1.833  0.8494  1.3120  0.4505
62688SOL    HW295180  11.972   5.427   1.949 -0.2877 -0.5284  1.7333
62689SOL     OW95181   5.917   3.795   1.545 -0.1657 -0.0248  0.1601
62689SOL    HW195182   5.855   3.765   1.611  0.1727  0.4734  0.7127
62689SOL    HW295183   6.002   3.796   1.591  0.1872 -0.3282 -0.4731
62690SOL     OW95184  12.254   7.037   5.130  0.1697  0.5168 -0.0494
62690SOL    HW195185  12.166   7.000   5.133  0.6127 -0.5220  2.4358
62690SOL    HW295186  12.309   6.967   5.095  0.0498  1.1370 -1.5270
62691SOL     OW95187   6.290   5.400   1.334 -0.1620  0.1601 -0.1231
62691SOL    HW195188   6.240   5.323   1.361 -3.1811  2.1634  0.5706
62691SOL    HW295189   6.321   5.379   1.246  0.2591 -2.2844  0.5330
62692SOL     OW95190   5.839   1.692   8.975  0.1881  0.4079  0.3051
62692SOL    HW195191   5.871   1.777   9.004  1.2225  0.0570  0.2219
62692SOL    HW295192   5.764   1.674   9.032  0.5863  0.9132  1.0030
62693SOL     OW95193   6.423  10.438   3.136  1.3065  0.0718 -0.2245
62693SOL    HW195194   6.506  10.440   3.185  0.3405  1.0461  1.4379
62693SOL    HW295195   6.401  10.530   3.121 -0.5663 -0.0615  1.3385
62694SOL     OW95196   9.491   4.669   6.573  0.2659 -0.2454  0.4132
62694SOL    HW195197   9.564   4.717   6.612 -1.0936  2.4326 -0.0736
62694SOL    HW295198   9.526   4.633   6.491  1.5175 -0.7189  1.1323
62695SOL     OW95199  11.785   9.471   9.974 -0.9666  0.3076 -0.0069
62695SOL    HW195200  11.777   9.424   9.890 -0.2942  1.9578 -1.0533
62695SOL    HW295201  11.704   9.521   9.981 -0.9979  0.2116  0.3121
62696SOL     OW95202   7.800   4.533   3.502 -0.2517 -0.7791 -0.1162
62696SOL    HW195203   7.706   4.530   3.481  0.0469  1.9833 -2.5866
62696SOL    HW295204   7.838   4.459   3.455 -0.7204  0.7758 -3.2696
62697SOL     OW95205   4.501   7.463   1.223 -0.2980  0.3544  0.1319
62697SOL    HW195206   4.544   7.520   1.287  0.0457 -1.7799  1.9268
62697SOL    HW295207   4.557   7.466   1.146  0.9019  0.7411  0.9925
62698SOL     OW95208   4.345   9.191   7.823 -0.2445  0.6351  0.4852
62698SOL    HW195209   4.343   9.185   7.919  1.8606 -1.3002  0.4737
62698SOL    HW295210   4.411   9.128   7.796  0.1702  2.0731 -2.1932
62699SOL     OW95211   7.796  10.390   9.270 -0.1830  0.0100  0.3969
62699SOL    HW195212   7.817  10.400   9.177  1.8613 -1.4865  0.6079
62699SOL    HW295213   7.856  10.450   9.315 -0.1062 -0.3637  0.8008
62700SOL     OW95214  11.096   1.674   1.217  0.7060 -0.4838 -0.3692
62700SOL    HW195215  11.058   1.634   1.295  3.8393 -1.0288  1.0497
62700SOL    HW295216  11.103   1.767   1.240  1.8621 -0.6837  0.1730
62701SOL     OW95217   1.987  10.257   4.902  0.9742 -1.0021  0.5032
62701SOL    HW195218   1.908  10.265   4.956  1.4705  0.4713  1.0553
62701SOL    HW295219   1.955  10.224   4.818 -0.2027 -0.6500  0.7897
62702SOL     OW95220  11.257   1.306   9.402  0.4620 -0.2607  0.2506
62702SOL    HW195221  11.296   1.306   9.315 -0.5133 -0.3101 -0.1924
62702SOL    HW295222  11.168   1.337   9.389  0.3052 -0.2547  1.2337
62703SOL     OW95223   8.352   1.859   4.431  0.0343 -0.5112 -0.2706
62703SOL    HW195224   8.274   1.900   4.469  0.6549 -0.3525  0.8697
62703SOL    HW295225   8.358   1.774   4.475  1.2017 -0.0052  0.5871
62704SOL     OW95226   5.375  10.016  10.072 -0.2870  0.2969  1.0348
62704SOL    HW195227   5.316  10.056  10.136 -0.7721 -0.1717  0.8865
62704SOL    HW295228   5.368  10.072   9.994  1.8665  2.1016  2.0077
62705SOL     OW95229   5.785   1.493   1.746  0.2182 -0.2718 -0.3377
62705SOL    HW195230   5.813   1.411   1.788  0.4775 -1.4007 -2.5633
62705SOL    HW295231   5.699   1.512   1.784  0.9792 -0.4869  1.6123
62706SOL     OW95232   1.997  12.749   2.717 -0.0065  0.5287  0.5198
62706SOL    HW195233   2.032  12.733   2.629 -2.7202 -0.3654 -0.5032
62706SOL    HW295234   2.071  12.732   2.775  1.3589 -0.8543 -1.4602
62707SOL     OW95235   0.262   3.454  10.078  0.2405 -0.1706  0.1627
62707SOL    HW195236   0.224   3.393  10.141  0.7197 -2.5115 -1.6606
62707SOL    HW295237   0.356   3.443  10.087  0.3446  0.6046  0.0813
62708SOL     OW95238   1.641  11.356   5.617  0.2210 -0.4524 -0.0760
62708SOL    HW195239   1.631  11.263   5.593  0.8845 -0.5999  0.1857
62708SOL    HW295240   1.721  11.358   5.669  0.2221  0.2793 -0.1026
62709SOL     OW95241   8.041  10.111   5.855 -0.1096  0.0746 -0.3751
62709SOL    HW195242   8.053  10.020   5.830 -1.7166 -0.1543 -0.3867
62709SOL    HW295243   7.958  10.137   5.815 -0.0733  1.3103  0.2818
62710SOL     OW95244   9.192   4.623   0.598 -0.2001  0.6872  0.0671
62710SOL    HW195245   9.138   4.655   0.670  1.3084 -0.7262  1.9069
62710SOL    HW295246   9.135   4.566   0.548 -1.1537  1.3707  0.3482
62711SOL     OW95247   6.846   6.618   2.925  0.3917  0.0165  0.5147
62711SOL    HW195248   6.774   6.679   2.912 -1.0134 -1.5996  0.3842
62711SOL    HW295249   6.804   6.533   2.939  2.2529 -0.8275  1.3323
62712SOL     OW95250   5.377   2.971   0.817 -0.0820 -0.4412  0.4388
62712SOL    HW195251   5.373   2.980   0.722  1.7759  0.0796  0.3631
62712SOL    HW295252   5.387   2.877   0.832  2.4618 -0.3419 -0.1115
62713SOL     OW95253   0.709   7.393   7.806 -0.4409 -0.3108  0.3223
62713SOL    HW195254   0.771   7.413   7.876  0.8312 -4.2035  0.5353
62713SOL    HW295255   0.761   7.402   7.726 -0.7253  0.1414  0.1857
62714SOL     OW95256   1.385   5.426  11.337 -0.8127 -0.1429  0.4029
62714SOL    HW195257   1.331   5.426  11.258 -0.5797 -2.3538  0.1907
62714SOL    HW295258   1.334   5.477  11.400 -1.0979  1.4944 -1.0703
62715SOL     OW95259  11.640   3.717   0.180  0.1504  0.2549 -0.4226
62715SOL    HW195260  11.691   3.797   0.171  0.9590 -0.2052 -0.0834
62715SOL    HW295261  11.595   3.725   0.264 -1.2751  1.1597 -1.2222
62716SOL     OW95262  11.539   4.121   7.423  0.0024 -0.6180 -0.2943
62716SOL    HW195263  11.564   4.186   7.358  0.4762 -0.2598  0.2368
62716SOL    HW295264  11.591   4.044   7.401 -0.7102 -0.9017 -1.0495
62717SOL     OW95265   3.687   6.114   8.925 -0.3873 -0.0433  0.3179
62717SOL    HW195266   3.708   6.070   8.843 -0.6039  2.5126 -1.2203
62717SOL    HW295267   3.757   6.088   8.985  0.3409 -1.1960 -0.9636
62718SOL     OW95268  10.312   9.745   7.075  0.1852  0.6752  0.5611
62718SOL    HW195269  10.275   9.773   7.158 -0.4842  1.1150  0.1246
62718SOL    HW295270  10.403   9.775   7.079  0.4210 -0.1192  1.4999
62719SOL     OW95271   8.431   0.530   4.996  0.3931  0.2272 -0.2289
62719SOL    HW195272   8.414   0.529   4.902  1.1642 -0.5766 -0.3740
62719SOL    HW295273   8.344   0.524   5.037  0.1409 -0.9809 -0.9028
62720SOL     OW95274   7.565  12.435  10.793  0.6539  0.1967 -0.0095
62720SOL    HW195275   7.618  12.508  10.761  1.5894 -0.0347  0.9132
62720SOL    HW295276   7.583  12.364  10.731 -0.2745  0.7392 -0.9191
62721SOL     OW95277   4.426   1.839  10.882  0.4896 -0.6790 -0.2943
62721SOL    HW195278   4.516   1.825  10.852  0.2843  0.4782 -1.5130
62721SOL    HW295279   4.393   1.750  10.900  1.6827 -1.1549 -0.3756
62722SOL     OW95280   9.826  11.095   5.033  0.1616  0.2175  0.5648
62722SOL    HW195281   9.839  11.008   5.071  0.0066  0.9827  2.5008
62722SOL    HW295282   9.897  11.105   4.970 -0.4217 -1.6967 -0.4627
62723SOL     OW95283   6.789  12.318  11.374 -0.1971 -0.3806 -0.6227
62723SOL    HW195284   6.855  12.268  11.326  0.2377  0.3075 -0.7591
62723SOL    HW295285   6.808  12.409  11.353 -1.1752 -0.1681 -0.6333
62724SOL     OW95286   8.029  10.722  11.351 -0.1311  0.2006 -0.2462
62724SOL    HW195287   8.054  10.736  11.443 -1.3075  3.0511 -0.2513
62724SOL    HW295288   8.107  10.748  11.302 -0.5215  1.8428 -0.0703
62725SOL     OW95289  10.190   2.047   0.115 -0.1840 -0.0426 -0.6104
62725SOL    HW195290  10.129   1.980   0.082 -0.1791 -0.0951 -0.5116
62725SOL    HW295291  10.264   2.042   0.056  0.3313 -0.9236  0.0792
62726SOL     OW95292   7.211   7.829   7.716  0.1587 -0.5009  0.0442
62726SOL    HW195293   7.238   7.751   7.763 -0.1026 -0.2142  0.6837
62726SOL    HW295294   7.115   7.829   7.720  0.1094 -0.7179 -0.8985
62727SOL     OW95295  12.116   6.575   5.083 -0.3631 -0.2770 -0.1190
62727SOL    HW195296  12.096   6.632   5.009  1.2906  0.3357 -0.1324
62727SOL    HW295297  12.160   6.632   5.146 -2.5642 -0.5412  1.8214
62728SOL     OW95298   5.185   9.535  10.108 -0.5127 -0.4146 -0.0392
62728SOL    HW195299   5.159   9.612  10.058 -1.4345 -0.0044  1.0286
62728SOL    HW295300   5.122   9.468  10.085 -0.5923 -0.3991  0.1290
62729SOL     OW95301   8.173   7.758   4.747 -0.1549  0.0154  0.2627
62729SOL    HW195302   8.162   7.689   4.813  0.3948  1.0321  1.4643
62729SOL    HW295303   8.268   7.765   4.736 -0.1538  1.2164  0.8793
62730SOL     OW95304   1.526   0.206   6.135 -0.2251 -0.4719  1.2284
62730SOL    HW195305   1.527   0.295   6.099 -0.2392 -0.6463  0.7908
62730SOL    HW295306   1.489   0.152   6.065  1.8419 -1.1902  0.6172
62731SOL     OW95307   0.281  11.363  10.515  0.1200  0.3060 -0.0038
62731SOL    HW195308   0.308  11.291  10.572  1.1657  0.3498 -0.4042
62731SOL    HW295309   0.242  11.428  10.573 -2.4813 -1.2914  0.1722
62732SOL     OW95310   2.118   2.256  11.911  0.3467 -0.1661  0.1383
62732SOL    HW195311   2.211   2.265  11.934 -0.1030  0.2925  1.9349
62732SOL    HW295312   2.091   2.174  11.951 -0.2831  0.2419  0.5611
62733SOL     OW95313   5.334   2.448   2.956 -0.3508  1.0675  0.0782
62733SOL    HW195314   5.269   2.380   2.938  1.7390 -1.0350  0.1099
62733SOL    HW295315   5.385   2.455   2.876  0.1978  1.7888  0.4764
62734SOL     OW95316   5.377   5.380  12.217  0.2604 -0.3305 -0.4901
62734SOL    HW195317   5.380   5.319  12.144 -0.1479 -1.5144  0.4431
62734SOL    HW295318   5.454   5.360  12.269  0.5928  0.5591 -0.6279
62735SOL     OW95319   4.340   7.022  12.785 -0.3467 -0.1476 -0.3477
62735SOL    HW195320   4.274   7.091  12.780 -0.8605 -0.4525  1.3970
62735SOL    HW295321   4.308   6.955  12.723 -1.2642  0.0539 -0.1155
62736SOL     OW95322  11.264   9.972   2.829 -0.4372  0.1311 -0.2837
62736SOL    HW195323  11.211   9.954   2.907 -0.5187  0.1480 -0.3358
62736SOL    HW295324  11.264  10.068   2.821  1.3183  0.3005  0.9326
62737SOL     OW95325  11.036   8.636   3.764  0.7182 -0.0264  0.1304
62737SOL    HW195326  11.054   8.542   3.774 -0.4879 -0.4855 -1.5231
62737SOL    HW295327  11.087   8.678   3.833  1.4574 -1.8805  0.7717
62738SOL     OW95328   6.643   1.379   6.280  0.2497 -0.2064 -0.7044
62738SOL    HW195329   6.548   1.389   6.291  0.4782  0.4799  0.8550
62738SOL    HW295330   6.668   1.312   6.343  0.9395  0.2886 -0.4409
62739SOL     OW95331   5.808   4.057   3.772 -0.7200  0.3423  0.1585
62739SOL    HW195332   5.764   4.142   3.770  0.7229  1.1021 -0.6061
62739SOL    HW295333   5.901   4.078   3.762 -0.4797 -1.4351 -1.7925
62740SOL     OW95334   6.230  11.951   2.044  0.1017  0.4920  0.0805
62740SOL    HW195335   6.249  11.970   1.952 -0.1469 -1.3180 -0.3924
62740SOL    HW295336   6.274  12.020   2.093  2.8319 -0.1457 -1.2722
62741SOL     OW95337   8.384   9.740   9.961 -0.3216  0.1001 -0.4828
62741SOL    HW195338   8.396   9.681   9.886  0.3730  0.7074 -0.8608
62741SOL    HW295339   8.303   9.710  10.002  0.0540 -1.1782 -0.6231
62742SOL     OW95340   3.032   7.855   4.021 -0.3028  0.2483 -0.0908
62742SOL    HW195341   3.003   7.798   4.092  0.0235  0.4637  0.2180
62742SOL    HW295342   2.985   7.938   4.037  1.6514  1.1533  1.3560
62743SOL     OW95343   8.165  10.026   6.357  0.3326 -0.3862  0.2944
62743SOL    HW195344   8.081   9.995   6.323  0.0228 -0.1146  0.8100
62743SOL    HW295345   8.215  10.049   6.278 -0.0696 -0.5506 -0.0143
62744SOL     OW95346  10.148   6.165   3.660  0.2101  0.5554 -0.0321
62744SOL    HW195347  10.158   6.231   3.591  1.2690 -0.0134 -0.4291
62744SOL    HW295348  10.054   6.163   3.677 -0.2962 -0.3982 -2.5533
62745SOL     OW95349   2.191   6.315   4.676 -0.4150 -0.3217  0.3773
62745SOL    HW195350   2.106   6.294   4.716 -0.9517 -0.3100 -0.7161
62745SOL    HW295351   2.226   6.385   4.730 -1.1252 -0.3056  0.8327
62746SOL     OW95352  11.658   1.510   3.043 -0.0224 -0.3344 -0.2658
62746SOL    HW195353  11.712   1.490   3.120  0.9335  0.4214 -0.7196
62746SOL    HW295354  11.712   1.484   2.968 -0.1842  0.6512 -0.7368
62747SOL     OW95355   7.653   3.447   8.655  0.6593  0.4569  0.4202
62747SOL    HW195356   7.607   3.519   8.697  1.4435  1.1014  0.2128
62747SOL    HW295357   7.681   3.483   8.570 -0.3366 -0.6134 -0.3881
62748SOL     OW95358  10.941  10.209   4.200  0.5202 -0.5423  0.2715
62748SOL    HW195359  11.033  10.231   4.195  0.4449 -0.2712  0.0709
62748SOL    HW295360  10.904  10.270   4.264  0.6680 -1.2938  1.0987
62749SOL     OW95361   0.410  11.001   7.919  0.2750 -0.1421  0.2208
62749SOL    HW195362   0.448  11.080   7.960 -1.2595  1.0594 -0.5605
62749SOL    HW295363   0.316  11.013   7.929 -0.0444 -0.9843 -1.5748
62750SOL     OW95364  11.729  10.594   5.612  0.1803  0.2414 -0.1264
62750SOL    HW195365  11.819  10.626   5.618  0.0683  0.6321 -0.5297
62750SOL    HW295366  11.726  10.521   5.674  0.2823  1.3234  1.1886
62751SOL     OW95367   8.884   7.289  10.298 -0.0095 -0.1244  0.0022
62751SOL    HW195368   8.969   7.332  10.310 -1.0234  1.8185  0.7502
62751SOL    HW295369   8.895   7.232  10.222  2.2605 -0.7756  0.7630
62752SOL     OW95370   5.180   2.040   6.599 -0.0020  0.2730  0.7411
62752SOL    HW195371   5.237   2.102   6.646  1.2517 -2.2124  2.7490
62752SOL    HW295372   5.094   2.051   6.639  0.1326  0.8475  0.8894
62753SOL     OW95373  10.588  10.087  12.808  0.5474 -0.1026  0.2792
62753SOL    HW195374  10.503  10.092  12.765 -0.8498 -2.5188  2.4480
62753SOL    HW295375  10.644  10.042  12.746 -0.3471 -0.2651 -0.4307
62754SOL     OW95376   8.551  12.282   4.727  0.0397  0.0754 -0.0184
62754SOL    HW195377   8.523  12.231   4.650  1.6449 -1.2728  0.2397
62754SOL    HW295378   8.646  12.275   4.727  0.0562 -0.7428  2.5780
62755SOL     OW95379   6.720   3.185   2.194  0.1335  0.5017  0.1518
62755SOL    HW195380   6.731   3.239   2.273  0.3207  0.3236  0.2473
62755SOL    HW295381   6.791   3.122   2.198 -0.6257 -0.3450  0.5127
62756SOL     OW95382  11.961  11.830   7.009 -0.5290  0.4407 -0.2989
62756SOL    HW195383  12.003  11.788   7.084 -0.0602  1.1022 -0.1899
62756SOL    HW295384  11.875  11.788   7.004  0.1086 -0.8974 -0.5088
62757SOL     OW95385   5.997   0.548   2.053 -0.6342  0.2295 -0.6339
62757SOL    HW195386   6.081   0.503   2.051 -0.3971  0.6854 -1.9384
62757SOL    HW295387   6.007   0.614   2.122 -0.3832 -0.5445  0.0908
62758SOL     OW95388   2.093   3.385   3.655 -0.1046  0.7755 -0.0256
62758SOL    HW195389   2.180   3.416   3.629 -0.1595  0.1621 -1.0187
62758SOL    HW295390   2.082   3.302   3.608 -1.0183  0.5853  0.4929
62759SOL     OW95391   1.374   9.764   4.068  0.2814  0.1555 -0.4230
62759SOL    HW195392   1.433   9.735   4.138 -0.2691  0.4152  0.1635
62759SOL    HW295393   1.420   9.741   3.987  0.4261 -1.2058  0.0147
62760SOL     OW95394   7.950   6.518  10.929 -0.2550  0.1637 -0.8252
62760SOL    HW195395   8.028   6.567  10.953 -0.1826 -0.3653  0.0726
62760SOL    HW295396   7.976   6.466  10.853  0.5320 -0.6180 -0.0513
62761SOL     OW95397   1.009   5.559   5.631  0.2607  0.3065  0.0062
62761SOL    HW195398   0.954   5.579   5.707 -0.2790  0.7038 -0.4818
62761SOL    HW295399   1.033   5.645   5.597  0.3317  0.1254 -0.3983
62762SOL     OW95400   5.793   0.845   5.168 -0.4778  0.1383 -0.4184
62762SOL    HW195401   5.722   0.855   5.232  0.7259  1.3438  0.8184
62762SOL    HW295402   5.795   0.752   5.148 -0.4721 -0.4065  1.8774
62763SOL     OW95403  12.566   9.522   5.135  0.4777  0.2786 -0.3484
62763SOL    HW195404  12.494   9.576   5.102  1.7763  1.3274 -1.5847
62763SOL    HW295405  12.576   9.453   5.069  0.9162  0.4173 -0.4306
62764SOL     OW95406   0.824   6.677  12.826 -0.4001  0.1761  0.2592
62764SOL    HW195407   0.878   6.680  12.747 -0.7859 -0.1496 -0.0267
62764SOL    HW295408   0.737   6.704  12.796 -0.3780  0.7824  0.7316
62765SOL     OW95409   0.434  10.397  11.273 -0.1771  0.7370 -0.2446
62765SOL    HW195410   0.457  10.310  11.240 -2.8710 -0.4012  0.5656
62765SOL    HW295411   0.393  10.440  11.198  0.3406  0.9809 -0.3921
62766SOL     OW95412   7.765   5.356   2.623  0.1149 -0.4689 -0.1862
62766SOL    HW195413   7.707   5.304   2.679  0.1160 -1.2213 -0.8662
62766SOL    HW295414   7.762   5.312   2.538  0.3488  0.4886 -0.6936
62767SOL     OW95415   3.685   3.446  12.564 -0.0836  0.3289  0.7827
62767SOL    HW195416   3.592   3.453  12.587 -0.4478 -1.2118 -0.1260
62767SOL    HW295417   3.715   3.367  12.609  0.4173  0.0015 -0.1095
62768SOL     OW95418  10.213   1.570   8.809 -0.2028 -0.8265 -0.3090
62768SOL    HW195419  10.206   1.474   8.811 -1.7759 -0.7386  0.5232
62768SOL    HW295420  10.225   1.594   8.901  0.6615 -0.2398 -0.5697
62769SOL     OW95421   8.315   9.148   8.837  0.2671 -0.1476  0.1809
62769SOL    HW195422   8.350   9.115   8.919 -0.0411  2.3956  1.4295
62769SOL    HW295423   8.392   9.177   8.788  0.3826 -0.7484  0.0080
62770SOL     OW95424  11.340   3.319  11.315  0.2409 -0.0078  0.2659
62770SOL    HW195425  11.361   3.283  11.229  0.2533  1.1569 -0.2262
62770SOL    HW295426  11.282   3.393  11.298 -0.5578 -0.3597  1.3238
62771SOL     OW95427  12.524  12.446  11.474 -0.1313  0.2282  0.5692
62771SOL    HW195428  12.541  12.360  11.436 -0.8320  0.1570  0.3903
62771SOL    HW295429  12.492  12.428  11.562 -0.2791  0.3040  0.5317
62772SOL     OW95430   9.837   0.779   4.324  0.0439 -0.1397  0.5776
62772SOL    HW195431   9.840   0.688   4.352  0.3186 -0.3230 -0.0249
62772SOL    HW295432   9.917   0.792   4.272  0.9587  0.9670  2.1839
62773SOL     OW95433  11.808   4.622   9.198  0.2619  0.4882 -0.2812
62773SOL    HW195434  11.886   4.614   9.253  1.4464 -0.0696 -1.9502
62773SOL    HW295435  11.816   4.551   9.134 -1.1905  0.9391 -1.0066
62774SOL     OW95436  10.253   5.803   9.843 -0.4450  0.2140 -0.3185
62774SOL    HW195437  10.171   5.852   9.855 -0.8962 -0.9087  1.6338
62774SOL    HW295438  10.312   5.866   9.801 -1.1903  2.2930  1.5421
62775SOL     OW95439   0.372  11.853   6.473  0.0945  0.5183 -0.6160
62775SOL    HW195440   0.429  11.894   6.409  1.8139 -0.0837  0.4742
62775SOL    HW295441   0.310  11.922   6.498 -0.2608  0.9119 -2.4651
62776SOL     OW95442   7.042   0.396   5.340 -0.0843  0.4174 -0.5183
62776SOL    HW195443   6.983   0.328   5.309 -0.5021  1.3010 -1.7597
62776SOL    HW295444   7.072   0.365   5.425  1.7250 -2.5273 -2.0502
62777SOL     OW95445  11.942   4.517   3.100 -0.0209  0.0520 -0.3159
62777SOL    HW195446  11.967   4.600   3.139  0.9132 -0.5112  0.3187
62777SOL    HW295447  12.023   4.467   3.095 -0.3151 -0.3397 -1.9242
62778SOL     OW95448   9.753   9.046   3.881 -0.3212 -0.3529 -0.2795
62778SOL    HW195449   9.797   9.129   3.902 -0.4230 -0.3520 -0.0687
62778SOL    HW295450   9.704   9.065   3.801  1.2052 -0.7553 -1.3486
62779SOL     OW95451   2.955   3.126   5.679  0.0073 -0.0082  0.7611
62779SOL    HW195452   2.968   3.204   5.625 -0.7789  0.0493  0.6471
62779SOL    HW295453   2.962   3.159   5.769  0.6605  0.0139  0.7047
62780SOL     OW95454   3.989   4.037   9.951 -0.1171 -0.0653 -0.5236
62780SOL    HW195455   4.049   3.997   9.888 -2.0037 -0.5200 -2.0935
62780SOL    HW295456   3.965   4.121   9.912 -0.6190  0.0471  0.0141
62781SOL     OW95457  10.468   5.935   9.698  0.7938  0.4826 -0.2925
62781SOL    HW195458  10.506   5.872   9.758  1.2665 -0.2215 -1.2974
62781SOL    HW295459  10.477   6.019   9.742 -1.7903 -0.2933  2.0678
62782SOL     OW95460   7.266   5.450   8.737 -0.0138 -0.2519 -0.4073
62782SOL    HW195461   7.251   5.407   8.653  3.0963 -0.6059 -0.9130
62782SOL    HW295462   7.225   5.536   8.727  0.0365 -0.3935 -2.1888
62783SOL     OW95463   0.680   4.067   8.925 -0.4439 -0.1380  0.6113
62783SOL    HW195464   0.666   4.134   8.858  0.1174 -1.0868 -0.4787
62783SOL    HW295465   0.592   4.041   8.952 -0.7574 -1.4524 -1.5039
62784SOL     OW95466   0.798  10.608   8.359 -0.3141 -0.3082 -0.6970
62784SOL    HW195467   0.877  10.662   8.366 -0.7866  0.8234 -3.0280
62784SOL    HW295468   0.831  10.522   8.333  0.2958 -0.6379  1.0111
62785SOL     OW95469   9.945   4.894   9.029 -0.3764 -0.5060  0.4300
62785SOL    HW195470   9.933   4.952   8.954  1.0608  0.5095  0.9387
62785SOL    HW295471   9.988   4.816   8.993  0.2141 -0.0678  0.1653
62786SOL     OW95472   7.416   7.125   4.205  0.0570  0.3981  0.3558
62786SOL    HW195473   7.400   7.031   4.216  0.3668  0.2006 -0.8025
62786SOL    HW295474   7.329   7.164   4.200 -0.0728  0.1398  0.5782
62787SOL     OW95475   1.909   5.987   2.647  0.2568 -0.1208 -0.1308
62787SOL    HW195476   1.894   5.928   2.573  0.5913  1.2330 -1.3133
62787SOL    HW295477   1.982   6.042   2.620  0.4907  0.3011  1.2796
62788SOL     OW95478   8.092   8.107   4.445  0.3246  0.1980  0.4551
62788SOL    HW195479   8.123   8.197   4.456  1.2927 -0.1539  0.7337
62788SOL    HW295480   8.168   8.059   4.411 -0.2482 -0.4652  0.0830
62789SOL     OW95481  10.012   2.523   9.864  0.0329  0.7377  0.0183
62789SOL    HW195482  10.044   2.510   9.953 -2.0284  1.2355  0.8892
62789SOL    HW295483   9.965   2.606   9.867  0.9556  1.4034 -1.8789
62790SOL     OW95484   1.958  12.490  12.741  0.3896 -0.0330 -0.0327
62790SOL    HW195485   2.036  12.545  12.745  1.8108 -1.8726 -1.0278
62790SOL    HW295486   1.897  12.541  12.687  2.2038  0.0115 -2.2210
62791SOL     OW95487   2.499   4.613   7.226 -0.6783 -0.3015  0.2319
62791SOL    HW195488   2.404   4.612   7.240 -1.0846  2.7937 -1.3388
62791SOL    HW295489   2.511   4.568   7.142 -0.4428 -2.3733  1.3083
62792SOL     OW95490   9.343   0.016   5.517  0.3747 -0.0626 -0.4611
62792SOL    HW195491   9.261  -0.032   5.529  1.2222 -1.9011 -1.5426
62792SOL    HW295492   9.332   0.095   5.570 -1.3732 -1.1221  0.9069
62793SOL     OW95493   9.846   6.519   7.527  0.0683  0.1980  0.2434
62793SOL    HW195494   9.927   6.511   7.475  1.0473  0.0252  1.7408
62793SOL    HW295495   9.803   6.435   7.517  0.1702  0.2180 -0.4087
62794SOL     OW95496   5.797   8.006   6.056  0.2685 -0.3288 -0.6523
62794SOL    HW195497   5.811   8.021   6.149  1.3911 -1.5034 -0.6173
62794SOL    HW295498   5.856   8.068   6.013  0.4472 -0.4470 -0.5762
62795SOL     OW95499  11.953   8.841  12.712  0.2896  0.5868 -0.1717
62795SOL    HW195500  11.938   8.907  12.644 -1.7521 -0.2376 -0.5999
62795SOL    HW295501  11.914   8.879  12.791 -2.2093 -0.5873 -0.7392
62796SOL     OW95502   2.925  10.705   0.292  0.1035 -0.2532 -0.1167
62796SOL    HW195503   2.851  10.718   0.352 -0.5470 -1.7000 -0.5741
62796SOL    HW295504   2.959  10.793   0.277 -1.0381  0.3561  0.7168
62797SOL     OW95505   6.924  11.909   9.227 -0.4723 -0.7995  0.4023
62797SOL    HW195506   7.004  11.928   9.276 -1.0919 -0.1323  1.1934
62797SOL    HW295507   6.877  11.845   9.280 -1.4866  0.4650  1.0782
62798SOL     OW95508  10.688   6.562   1.867  0.0923  0.5563  0.3784
62798SOL    HW195509  10.606   6.532   1.906  0.2051  0.5091  0.5784
62798SOL    HW295510  10.664   6.588   1.778 -0.6668  2.9813  1.2111
62799SOL     OW95511   2.927   3.507   3.461 -0.0978 -1.0126 -0.8085
62799SOL    HW195512   2.892   3.591   3.434 -1.7963 -1.5993 -0.5317
62799SOL    HW295513   2.969   3.524   3.545  0.7103 -0.2141 -1.3490
62800SOL     OW95514   6.508  12.563   2.720  0.7030 -0.5930 -0.4506
62800SOL    HW195515   6.431  12.559   2.778  0.4339 -0.4804 -0.7941
62800SOL    HW295516   6.472  12.551   2.632  0.9257  0.5913 -0.7327
62801SOL     OW95517   7.774   8.596   0.811  0.1425 -0.0137  0.2833
62801SOL    HW195518   7.861   8.630   0.833 -0.7238  1.0714  2.3610
62801SOL    HW295519   7.758   8.626   0.722  1.1097  1.5102  0.5839
62802SOL     OW95520   3.840   3.736  10.239  0.0119 -0.3917 -0.0529
62802SOL    HW195521   3.790   3.655  10.227 -0.2247 -0.2852  0.1873
62802SOL    HW295522   3.921   3.722  10.190  1.1478 -1.8231  2.0673
62803SOL     OW95523   3.112   4.339   0.946  0.2438 -0.8871 -0.5102
62803SOL    HW195524   3.161   4.267   0.985  1.4456  0.2887  0.2170
62803SOL    HW295525   3.047   4.296   0.890  1.0907 -2.5222 -0.2960
62804SOL     OW95526   8.060   8.470   5.981  0.0505 -0.1561 -0.3597
62804SOL    HW195527   8.033   8.414   5.908  0.3514 -1.4470  0.4959
62804SOL    HW295528   8.127   8.527   5.944 -1.4826  0.8955 -1.7000
62805SOL     OW95529   0.639  10.430   2.093  0.0362 -0.4550  0.1701
62805SOL    HW195530   0.721  10.411   2.139  0.9888  2.4013 -0.1406
62805SOL    HW295531   0.640  10.525   2.083 -3.6367 -0.2397  0.7011
62806SOL     OW95532  10.060   7.984   2.984 -0.6861 -0.3268 -0.1155
62806SOL    HW195533  10.067   8.065   2.933  0.9804 -0.5257 -0.2709
62806SOL    HW295534  10.007   7.926   2.929  1.4088 -0.6830 -1.9278
62807SOL     OW95535   3.217   1.491   2.199  0.6119 -0.7007 -0.1446
62807SOL    HW195536   3.276   1.439   2.255  1.9051  0.0146 -0.7840
62807SOL    HW295537   3.182   1.558   2.258 -0.7199 -1.9644  0.5790
62808SOL     OW95538   4.561   7.074  10.733  0.7457  0.5417  0.1007
62808SOL    HW195539   4.539   7.027  10.813  1.0477 -0.1760 -0.2328
62808SOL    HW295540   4.476   7.099  10.695  0.3367 -2.9080 -1.6049
62809SOL     OW95541   5.901   0.831   3.337 -0.1917  0.7513 -0.1139
62809SOL    HW195542   5.900   0.913   3.386  0.7083  0.0551  1.1143
62809SOL    HW295543   5.979   0.784   3.368 -0.9971 -0.8246 -0.3404
62810SOL     OW95544   7.186   0.419   7.865  0.0098  0.2546 -0.0517
62810SOL    HW195545   7.103   0.419   7.912  0.0633 -0.5381  0.0583
62810SOL    HW295546   7.218   0.328   7.872  1.9680  1.0087  1.7840
62811SOL     OW95547   4.156   8.173   6.172  0.0439  0.0363 -0.1920
62811SOL    HW195548   4.099   8.250   6.174  1.8117  1.4211 -0.5625
62811SOL    HW295549   4.177   8.156   6.264  0.4560  0.6490 -0.1664
62812SOL     OW95550   9.085   0.474   6.669 -0.2010 -1.0167 -0.3947
62812SOL    HW195551   9.126   0.540   6.614 -1.7811  0.5619  0.2186
62812SOL    HW295552   9.087   0.510   6.758  0.2525 -2.4845  0.2251
62813SOL     OW95553   9.601   4.234   5.850 -0.1052  0.0551  0.2849
62813SOL    HW195554   9.610   4.254   5.944 -0.6482 -0.3747  0.4393
62813SOL    HW295555   9.689   4.245   5.814  0.3023 -0.6479  1.0230
62814SOL     OW95556  10.485   7.781   9.287  0.0700 -0.3215  0.2106
62814SOL    HW195557  10.554   7.807   9.226  0.1369 -0.2839  0.3013
62814SOL    HW295558  10.470   7.688   9.268  1.8209 -0.9782  1.8038
62815SOL     OW95559   3.207   9.185  12.214  0.1949  0.1815  0.4383
62815SOL    HW195560   3.262   9.257  12.185  0.7633 -1.2426 -2.3944
62815SOL    HW295561   3.166   9.152  12.134  0.0356 -2.6876  1.5798
62816SOL     OW95562   4.191   7.465  10.036 -0.0412 -0.2035  0.7828
62816SOL    HW195563   4.220   7.521   9.964 -1.1212 -1.0381 -0.3436
62816SOL    HW295564   4.185   7.378   9.998  1.3236 -1.0747  2.4383
62817SOL     OW95565   0.895  11.739   8.931 -0.0461  0.3944  0.6084
62817SOL    HW195566   0.819  11.791   8.958 -1.5396 -0.9803 -0.7663
62817SOL    HW295567   0.913  11.766   8.841 -0.8513 -1.3987 -0.1358
62818SOL     OW95568   8.610   2.140   5.586  0.4165  0.2208 -0.1862
62818SOL    HW195569   8.634   2.142   5.493  0.5105  2.7528 -0.1752
62818SOL    HW295570   8.693   2.148   5.632  0.3988 -1.3167  0.1780
62819SOL     OW95571   9.752   8.652   5.123  0.0633 -0.2846 -0.0869
62819SOL    HW195572   9.803   8.626   5.046  1.1409  1.9860 -0.2046
62819SOL    HW295573   9.817   8.678   5.188 -0.9064  0.7823  0.4829
62820SOL     OW95574  11.470  10.277  10.416 -0.4129  0.0702 -0.6405
62820SOL    HW195575  11.550  10.251  10.370 -1.1710 -0.2673 -1.8139
62820SOL    HW295576  11.402  10.221  10.379 -1.1920  0.3437  0.3491
62821SOL     OW95577   8.809  10.884   1.702  0.3525 -0.0238  0.0861
62821SOL    HW195578   8.837  10.865   1.613 -0.5966 -1.0230 -0.0186
62821SOL    HW295579   8.820  10.979   1.711  3.0183 -0.2356 -0.1624
62822SOL     OW95580   9.621   1.745   2.872  0.3203  0.1015 -0.1336
62822SOL    HW195581   9.668   1.820   2.836 -1.0472  0.5091 -1.1644
62822SOL    HW295582   9.650   1.670   2.820  1.7255 -0.1449  0.9310
62823SOL     OW95583   2.300   2.100  10.789 -0.2015  0.6194 -0.3106
62823SOL    HW195584   2.394   2.092  10.800 -0.4561 -1.4027  0.7479
62823SOL    HW295585   2.286   2.095  10.694  0.5932 -1.9262 -0.3565
62824SOL     OW95586   5.941   0.411   1.208  0.0442  0.0858  0.2320
62824SOL    HW195587   6.036   0.407   1.218  0.0389  0.1729  0.3183
62824SOL    HW295588   5.920   0.504   1.210 -0.1114  0.0427  0.8837
62825SOL     OW95589   6.874   4.017   4.717  0.0727 -0.3702  0.1553
62825SOL    HW195590   6.916   4.101   4.699 -0.9884 -0.2304 -1.9944
62825SOL    HW295591   6.932   3.952   4.675  0.6003 -0.6847  1.3319
62826SOL     OW95592   9.633   8.384  10.270 -0.0576 -0.1638 -0.0946
62826SOL    HW195593   9.680   8.310  10.231  2.4933  0.0486  2.2769
62826SOL    HW295594   9.615   8.442  10.196  0.1810 -1.9272 -1.6242
62827SOL     OW95595  11.736   7.245   6.483  0.1206 -0.3287 -0.0922
62827SOL    HW195596  11.658   7.268   6.533 -0.0343 -0.1815 -0.3988
62827SOL    HW295597  11.772   7.168   6.527 -1.2631 -1.5917 -1.0584
62828SOL     OW95598  12.460   5.526   9.137 -0.4209  0.7969  0.2107
62828SOL    HW195599  12.423   5.442   9.164 -1.3676  0.0153 -3.0013
62828SOL    HW295600  12.386   5.573   9.098  1.2719 -0.1121 -4.8875
62829SOL     OW95601   4.506   9.944   4.785 -0.3764 -0.0570  0.1988
62829SOL    HW195602   4.528   9.909   4.699  0.7729 -3.3525  1.6784
62829SOL    HW295603   4.583   9.996   4.810  0.6237 -1.5794  0.4060
62830SOL     OW95604  11.683   6.083   3.329  0.1570 -0.1651 -0.0642
62830SOL    HW195605  11.597   6.073   3.288  0.1138  1.6484 -0.4672
62830SOL    HW295606  11.679   6.027   3.406 -0.2436 -2.6137 -1.7388
62831SOL     OW95607   8.024   6.009   9.436 -0.1363 -0.1361 -0.2404
62831SOL    HW195608   8.042   5.920   9.465 -0.6872  0.0903  0.8294
62831SOL    HW295609   8.039   6.006   9.341 -1.1332 -1.6278 -0.4023
62832SOL     OW95610  12.644   6.162   7.402 -0.3182  0.0554 -0.3369
62832SOL    HW195611  12.711   6.230   7.397  1.6692 -1.6262  1.6720
62832SOL    HW295612  12.690   6.081   7.381 -1.7937 -1.1352  0.8317
62833SOL     OW95613   4.545  12.858   0.095 -0.0065 -0.4538  0.6596
62833SOL    HW195614   4.466  12.819   0.133 -0.0259 -1.5438 -0.4407
62833SOL    HW295615   4.567  12.801   0.021  1.5340  0.1130  0.6430
62834SOL     OW95616  10.268   6.679   5.535 -0.2549 -0.1422 -0.0407
62834SOL    HW195617  10.356   6.657   5.503 -0.6857 -2.3418  0.1102
62834SOL    HW295618  10.268   6.649   5.626 -1.1324 -0.0863 -0.0178
62835SOL     OW95619   9.460   6.615   8.545  0.5169 -0.3199  0.0434
62835SOL    HW195620   9.469   6.710   8.536  0.2058 -0.3349 -0.4517
62835SOL    HW295621   9.529   6.591   8.607  4.4275 -0.4863 -3.8919
62836SOL     OW95622   3.471   2.756   6.106 -0.3578  0.2914 -0.8232
62836SOL    HW195623   3.466   2.825   6.172 -0.5670 -0.6954  0.2143
62836SOL    HW295624   3.381   2.722   6.100  0.0879 -1.1497  0.0798
62837SOL     OW95625  10.977   0.130  11.261  0.4533  0.1860  0.2774
62837SOL    HW195626  10.886   0.140  11.232  0.4871 -0.7061 -0.1763
62837SOL    HW295627  10.995   0.037  11.249  0.8501 -0.0008  2.0558
62838SOL     OW95628   8.581   8.795   1.670 -0.2792 -0.1454 -0.3308
62838SOL    HW195629   8.586   8.738   1.747 -1.2760 -1.1731 -0.9888
62838SOL    HW295630   8.660   8.849   1.674 -1.3405  1.4014  2.5937
62839SOL     OW95631   7.414   4.571   9.889 -0.0598 -0.2414  0.0137
62839SOL    HW195632   7.493   4.625   9.881 -1.6021  2.0703 -0.7970
62839SOL    HW295633   7.413   4.544   9.981  1.7873 -0.5786 -0.0281
62840SOL     OW95634   3.820   0.182   7.827  0.4451  0.5954 -0.2256
62840SOL    HW195635   3.760   0.142   7.891 -0.6910 -1.7939 -2.6118
62840SOL    HW295636   3.772   0.258   7.794 -0.2552  0.1136 -0.3469
62841SOL     OW95637   1.004   0.235   7.554  0.0038 -0.1370  0.4521
62841SOL    HW195638   1.020   0.327   7.533  0.2909 -0.0622  0.9731
62841SOL    HW295639   1.091   0.196   7.554 -0.0272 -0.2144  1.1095
62842SOL     OW95640   0.318  10.293   2.589  0.4024 -0.1037 -0.8250
62842SOL    HW195641   0.274  10.210   2.610 -1.7277  0.2706 -3.2663
62842SOL    HW295642   0.399  10.267   2.544  1.4682 -0.8019  1.3764
62843SOL     OW95643  12.587   7.587  11.599 -0.2146  0.3644 -0.2738
62843SOL    HW195644  12.563   7.665  11.649  1.8991  1.1103 -0.3127
62843SOL    HW295645  12.648   7.540  11.656 -0.6580 -0.7470 -0.6754
62844SOL     OW95646   3.283   3.368   2.762 -0.4369 -0.5165 -0.3153
62844SOL    HW195647   3.269   3.345   2.670  1.9060 -1.3852 -0.5130
62844SOL    HW295648   3.286   3.284   2.808  3.4956 -0.5657 -0.3226
62845SOL     OW95649   8.032  10.684   6.759 -0.1464 -0.7065 -0.0931
62845SOL    HW195650   7.994  10.760   6.804 -0.0039  0.9695 -2.5787
62845SOL    HW295651   8.022  10.704   6.666  2.4076 -2.4764 -0.8701
62846SOL     OW95652   0.174   7.899   0.896  0.1102  0.5185 -0.2459
62846SOL    HW195653   0.247   7.914   0.836  0.7549  2.6066  0.9796
62846SOL    HW295654   0.173   7.804   0.909  3.1174  0.4502  0.2446
62847SOL     OW95655   1.383   0.782   4.989  0.0220  0.0995 -0.5294
62847SOL    HW195656   1.391   0.877   4.997  0.9031  0.0590 -0.8580
62847SOL    HW295657   1.473   0.751   4.976 -0.0060 -0.9699  1.5034
62848SOL     OW95658   1.194   8.498   4.127 -0.1378 -0.4466 -0.6175
62848SOL    HW195659   1.249   8.565   4.086 -1.2109  1.1629  0.4541
62848SOL    HW295660   1.128   8.478   4.060  0.1215 -0.3455 -0.9065
62849SOL     OW95661   7.387   0.153   0.972  0.1003  0.3069 -0.0939
62849SOL    HW195662   7.373   0.087   1.040  1.5030  0.6198  0.5319
62849SOL    HW295663   7.379   0.105   0.890 -1.2519 -0.1536  0.2868
62850SOL     OW95664  12.909   7.079   7.467  0.1992 -0.7770  0.4157
62850SOL    HW195665  12.831   7.126   7.440  0.5053 -0.6409 -0.2586
62850SOL    HW295666  12.903   7.074   7.562  0.5064  1.2400  0.5848
62851SOL     OW95667   5.395   0.166   4.631 -0.5040 -0.6397  0.4565
62851SOL    HW195668   5.340   0.135   4.560 -0.2026 -1.6784  0.6614
62851SOL    HW295669   5.357   0.126   4.710 -2.0000  1.9891  1.1878
62852SOL     OW95670   6.947   3.107   2.766 -0.3795  0.3981  0.2127
62852SOL    HW195671   6.902   3.139   2.844 -0.1771  1.1008  0.0525
62852SOL    HW295672   7.017   3.171   2.751  1.7876 -1.5441  1.4612
62853SOL     OW95673   8.411  11.966   7.332  0.3096  0.0508  0.2018
62853SOL    HW195674   8.373  11.946   7.417  1.4714  2.3186  1.3576
62853SOL    HW295675   8.350  12.027   7.292 -0.2919 -1.0997 -0.6796
62854SOL     OW95676   4.901   7.644   2.864 -0.5982  0.3658  0.0624
62854SOL    HW195677   4.852   7.661   2.784 -0.9221 -0.5318  0.0524
62854SOL    HW295678   4.988   7.618   2.834 -0.9818 -0.8543 -0.0610
62855SOL     OW95679   3.122   0.380   7.598  0.0837  0.0294 -0.0217
62855SOL    HW195680   3.133   0.461   7.649  0.8869 -0.1283  0.0658
62855SOL    HW295681   3.193   0.383   7.534 -0.1269 -0.4200 -0.2758
62856SOL     OW95682   5.359   8.313   1.604 -0.1374  0.1275  0.5212
62856SOL    HW195683   5.353   8.359   1.521 -0.5261 -1.9116 -0.6592
62856SOL    HW295684   5.393   8.226   1.581 -2.8219 -1.4642  2.0369
62857SOL     OW95685   0.850  11.399  12.469 -0.3535  0.0032 -0.5716
62857SOL    HW195686   0.844  11.458  12.544 -2.4792 -0.3597 -0.3733
62857SOL    HW295687   0.943  11.398  12.446  0.1407  1.2376  1.1461
62858SOL     OW95688   5.144  11.897   5.647  0.3968 -0.6879  0.1482
62858SOL    HW195689   5.156  11.878   5.554 -1.3910 -2.1487  0.1767
62858SOL    HW295690   5.154  11.813   5.691  0.9924 -0.0540  1.2789
62859SOL     OW95691   1.143  11.639  11.091 -0.1847  0.2337  0.3896
62859SOL    HW195692   1.090  11.595  11.158 -0.0095 -0.1923  0.2483
62859SOL    HW295693   1.124  11.732  11.104  0.8562  0.2756  1.9290
62860SOL     OW95694  12.745   4.653  12.798  0.0650  0.1486 -0.6436
62860SOL    HW195695  12.840   4.651  12.812  0.3587  1.8427 -2.0179
62860SOL    HW295696  12.721   4.744  12.810 -1.0448  0.1122 -2.2252
62861SOL     OW95697  12.038  12.957  11.792  0.1927  0.6266 -0.1726
62861SOL    HW195698  12.081  13.039  11.818  0.1135  0.7241 -0.3498
62861SOL    HW295699  11.946  12.981  11.781  0.0987  0.4258  0.1630
62862SOL     OW95700   9.384   7.799   1.032  0.4033  0.5382 -0.2808
62862SOL    HW195701   9.370   7.805   1.127 -0.2107 -0.3002 -0.3113
62862SOL    HW295702   9.379   7.706   1.013  1.8303  0.5663 -0.9542
62863SOL     OW95703   1.348   9.405   8.385 -0.6437 -0.3492  0.1082
62863SOL    HW195704   1.354   9.314   8.356 -1.9264 -0.6806  0.7992
62863SOL    HW295705   1.343   9.399   8.480  1.1866  0.5839  0.3193
62864SOL     OW95706   6.999   8.752   4.014 -0.4027 -0.2063  0.2031
62864SOL    HW195707   7.064   8.729   3.948 -0.3941  0.7708 -0.1369
62864SOL    HW295708   6.920   8.706   3.986  0.2008 -1.6815  0.8098
62865SOL     OW95709   7.504   6.546   6.731 -0.4056 -0.4424 -0.0666
62865SOL    HW195710   7.512   6.454   6.707 -1.7058 -0.1695 -1.7882
62865SOL    HW295711   7.437   6.547   6.799  0.2525 -0.8391  0.5947
62866SOL     OW95712   6.552  12.867   9.122 -0.6969  0.4861  0.4102
62866SOL    HW195713   6.600  12.834   9.046 -1.5248  2.7089 -1.1531
62866SOL    HW295714   6.467  12.823   9.117 -0.3335 -0.2948  0.8019
62867SOL     OW95715   6.978   5.965   8.786  0.3916  0.1946  0.3788
62867SOL    HW195716   7.031   5.990   8.862  0.2835 -1.5977  1.0857
62867SOL    HW295717   7.013   6.017   8.714  0.9930  1.3829  1.4902
62868SOL     OW95718  10.521   7.639   1.037 -0.1795 -0.4181 -0.1915
62868SOL    HW195719  10.593   7.625   0.976 -0.0142 -0.7409  0.0794
62868SOL    HW295720  10.516   7.735   1.047  0.8777 -0.4255  0.5749
62869SOL     OW95721   4.167  11.451   3.834 -0.2092  0.4920  0.1633
62869SOL    HW195722   4.117  11.533   3.839 -0.7186  0.1756  0.3983
62869SOL    HW295723   4.218  11.450   3.915 -0.2873  0.5283  0.2139
62870SOL     OW95724   0.051   5.897  12.391 -0.5399  0.4964 -0.6064
62870SOL    HW195725   0.045   5.820  12.447  0.1483  2.2525  2.0717
62870SOL    HW295726  -0.037   5.907  12.355 -1.4195  0.0338  1.2804
62871SOL     OW95727   7.130   2.395   9.163 -0.0094 -0.1024  0.5399
62871SOL    HW195728   7.127   2.329   9.233  0.8573 -0.7939 -0.0487
62871SOL    HW295729   7.039   2.421   9.151 -0.6443 -2.3890 -0.2809
62872SOL     OW95730   0.024  12.123   1.415 -0.1702 -0.6924  0.5017
62872SOL    HW195731  -0.029  12.067   1.359 -0.0281  1.1440 -1.6412
62872SOL    HW295732   0.109  12.080   1.420 -0.6025 -1.5635  0.4645
62873SOL     OW95733   5.774   0.217  12.367 -0.1420 -0.3126  0.1420
62873SOL    HW195734   5.703   0.238  12.306 -1.3358  2.8947  2.3487
62873SOL    HW295735   5.748   0.134  12.407 -1.2915 -0.4979 -0.9397
62874SOL     OW95736   5.765   9.289   4.469 -0.5487  0.1656  0.0114
62874SOL    HW195737   5.808   9.232   4.405 -0.8486 -0.4933  0.3858
62874SOL    HW295738   5.834   9.349   4.497  0.3696 -1.3195  1.1162
62875SOL     OW95739  11.160   2.382   5.890 -0.4556 -0.0080 -0.1259
62875SOL    HW195740  11.075   2.339   5.882 -0.5990  0.2833 -0.1862
62875SOL    HW295741  11.157   2.452   5.826 -0.7508  0.9532  0.9119
62876SOL     OW95742   7.882   7.838   0.060  0.1209 -0.0206  0.1691
62876SOL    HW195743   7.921   7.914   0.015  0.0032 -0.3195 -0.4508
62876SOL    HW295744   7.873   7.772  -0.009 -0.0865 -0.4815  0.6355
62877SOL     OW95745   8.843   6.057  10.580  0.2010  0.2341 -0.0501
62877SOL    HW195746   8.770   6.105  10.540  0.4729  0.8706  0.2045
62877SOL    HW295747   8.839   6.081  10.673  0.6809  0.2067 -0.0194
62878SOL     OW95748   6.661   2.833   1.932 -0.1072 -0.1897  0.3624
62878SOL    HW195749   6.740   2.887   1.929  0.7814 -1.4729 -0.6861
62878SOL    HW295750   6.612   2.866   2.008  0.4475  1.9367 -0.1531
62879SOL     OW95751   0.082   0.339  12.944  0.4896  0.3938  0.2920
62879SOL    HW195752   0.091   0.407  13.011 -0.0255  0.5511  0.2063
62879SOL    HW295753  -0.004   0.355  12.905  0.4779 -0.1450  0.0876
62880SOL     OW95754   5.350   8.998   2.283  0.8988  0.6238 -0.1366
62880SOL    HW195755   5.385   9.064   2.343 -1.5216  0.4468  1.6188
62880SOL    HW295756   5.271   9.037   2.246  1.8714  0.3949 -2.6829
62881SOL     OW95757   4.724  10.499  10.320  0.5910  0.1915 -0.0958
62881SOL    HW195758   4.721  10.558  10.395 -0.7016  1.9313 -1.4126
62881SOL    HW295759   4.667  10.426  10.344 -0.9550  1.4177  0.1434
62882SOL     OW95760   0.481   4.345   4.067 -0.8290 -0.1522  0.1300
62882SOL    HW195761   0.496   4.320   4.158 -1.2244  2.0099  0.8630
62882SOL    HW295762   0.543   4.293   4.017 -1.5145 -2.4028  1.4436
62883SOL     OW95763  12.228  10.872   6.968  0.4468  0.6161  0.4584
62883SOL    HW195764  12.239  10.967   6.967  0.8266  0.5731 -0.4799
62883SOL    HW295765  12.168  10.854   6.895 -0.5593  0.2320  1.3593
62884SOL     OW95766   5.293   7.127   2.406  0.4087 -0.0444 -0.2397
62884SOL    HW195767   5.238   7.137   2.327 -1.0185 -2.8417  0.2909
62884SOL    HW295768   5.230   7.114   2.477  1.7246 -1.1050  0.7725
62885SOL     OW95769  12.871   1.448  11.825 -0.5134  0.3744  0.0412
62885SOL    HW195770  12.864   1.424  11.918 -1.1944 -1.1570 -0.3658
62885SOL    HW295771  12.796   1.506  11.809 -0.1348  1.0059  0.5499
62886SOL     OW95772   3.020   3.428  12.698 -0.3010 -0.0863  0.1894
62886SOL    HW195773   3.035   3.349  12.647 -0.4883 -0.1260  0.1966
62886SOL    HW295774   3.051   3.499  12.641  0.2999 -0.2004  0.3687
62887SOL     OW95775   9.104  11.334   5.007  0.2817 -0.2612  0.2694
62887SOL    HW195776   9.047  11.394   4.959 -0.1543 -2.3413 -1.9972
62887SOL    HW295777   9.067  11.331   5.095 -1.7714  0.1607 -0.5322
62888SOL     OW95778   7.665   1.048  12.226  0.1701 -0.2522  0.2294
62888SOL    HW195779   7.574   1.024  12.244 -0.2064 -0.4425 -1.7310
62888SOL    HW295780   7.659   1.115  12.158  1.5033  0.1271  0.4538
62889SOL     OW95781   7.128   7.796   2.127 -0.4309 -0.9367  0.2224
62889SOL    HW195782   7.083   7.880   2.132  0.5275 -0.4710  1.2501
62889SOL    HW295783   7.099   7.748   2.204  0.6366 -0.7154  0.7796
62890SOL     OW95784   0.286   7.083   2.018 -0.4958  0.0838 -0.0673
62890SOL    HW195785   0.312   7.173   2.040  0.6190 -0.7007  2.0901
62890SOL    HW295786   0.237   7.054   2.095 -1.0718 -1.0884 -0.8572
62891SOL     OW95787   5.896  11.786  10.567 -0.0102 -0.1825  0.0037
62891SOL    HW195788   5.903  11.729  10.644  0.4142  0.8793  0.7778
62891SOL    HW295789   5.968  11.848  10.577  0.8110 -0.7600 -1.9115
62892SOL     OW95790   9.531   0.563   2.110  0.1313  0.3362  0.0297
62892SOL    HW195791   9.524   0.544   2.204  0.7641  0.0735  0.0228
62892SOL    HW295792   9.440   0.571   2.081 -0.0893 -0.4784  0.4813
62893SOL     OW95793  11.971   1.643   0.472  0.5238 -0.1958  0.5589
62893SOL    HW195794  12.001   1.734   0.473 -1.8396  0.6524  0.7228
62893SOL    HW295795  12.010   1.604   0.551  0.8355  0.9237  0.9758
62894SOL     OW95796   4.577   1.523   6.069  0.0987 -0.0477 -0.1461
62894SOL    HW195797   4.579   1.574   5.987  0.1754  0.1456 -0.0250
62894SOL    HW295798   4.501   1.557   6.116  0.4988  0.3836  0.2047
62895SOL     OW95799   3.962   2.534  12.861  0.0251 -0.4402 -0.5508
62895SOL    HW195800   3.978   2.452  12.908  2.2403  0.4316  0.3392
62895SOL    HW295801   3.883   2.517  12.810 -1.4933 -2.0164  2.1008
62896SOL     OW95802   2.293   5.601   6.792  0.3455  0.5094 -0.2866
62896SOL    HW195803   2.227   5.670   6.797  0.5283  0.6834 -0.2466
62896SOL    HW295804   2.376   5.646   6.811  0.3447  0.0815  0.7669
62897SOL     OW95805   6.278   1.412   1.996 -0.4335 -0.0857  0.3965
62897SOL    HW195806   6.225   1.338   1.965 -0.7673  0.0738  0.5899
62897SOL    HW295807   6.271   1.477   1.926 -0.3511 -0.1327  0.3441
62898SOL     OW95808   6.923   3.549   6.934  0.2329  0.2548 -0.4196
62898SOL    HW195809   6.853   3.583   6.988 -0.7990 -0.1689 -1.4513
62898SOL    HW295810   6.944   3.463   6.971 -0.0111  0.2475 -0.3027
62899SOL     OW95811   1.587   7.392   2.134  0.2613  0.0486  0.0244
62899SOL    HW195812   1.650   7.321   2.138 -1.9857 -2.0220  1.1684
62899SOL    HW295813   1.579   7.423   2.224  0.6474  1.2561 -0.3403
62900SOL     OW95814   2.139   9.785   0.974 -0.0462  0.3673  0.0376
62900SOL    HW195815   2.100   9.799   1.060 -1.2036 -0.6559 -0.2986
62900SOL    HW295816   2.157   9.691   0.970 -1.4083  0.1189 -1.3860
62901SOL     OW95817   0.838   3.534   7.752 -0.0041  0.3415 -0.0812
62901SOL    HW195818   0.782   3.557   7.678 -1.6796  2.1597  1.6288
62901SOL    HW295819   0.783   3.479   7.808  0.8135  0.0121  0.4215
62902SOL     OW95820   7.101   8.235  10.015  0.4006  0.8834  0.5506
62902SOL    HW195821   7.017   8.261  10.052  0.2810  0.2642  0.7229
62902SOL    HW295822   7.165   8.295  10.054  0.3232  0.0367  2.0262
62903SOL     OW95823  11.476   5.106   1.964  0.6644 -0.4307  0.0790
62903SOL    HW195824  11.383   5.127   1.978  0.7182 -0.7867  1.1162
62903SOL    HW295825  11.482   5.084   1.872 -0.1370  0.3346 -0.1741
62904SOL     OW95826   6.365   7.287   2.070 -0.0415 -0.5610  0.2335
62904SOL    HW195827   6.279   7.257   2.040 -0.1613 -1.1118  1.0670
62904SOL    HW295828   6.366   7.263   2.163  0.8825 -0.2509  0.3041
62905SOL     OW95829   0.752  11.755   1.937  0.0260 -0.0475 -0.0119
62905SOL    HW195830   0.757  11.727   2.028 -0.0654  0.2768  0.0921
62905SOL    HW295831   0.665  11.793   1.928  0.0549 -0.0281 -0.2189
62906SOL     OW95832   4.363   1.348  10.006 -0.4581 -0.6275  0.5699
62906SOL    HW195833   4.303   1.421  10.020 -1.1196 -1.0420 -0.0432
62906SOL    HW295834   4.449   1.384  10.027 -0.6056  0.6853 -0.9149
62907SOL     OW95835   6.944  11.293   7.459  0.1422 -0.2563 -0.2892
62907SOL    HW195836   7.027  11.285   7.411  1.2968  0.0589  1.5605
62907SOL    HW295837   6.940  11.213   7.512 -0.1676  0.2497  0.4614
62908SOL     OW95838   5.547   3.853   0.834 -0.5610 -0.5643 -0.3983
62908SOL    HW195839   5.526   3.946   0.841  0.9578 -0.3452  3.7157
62908SOL    HW295840   5.471   3.808   0.870 -0.9708 -0.9391 -1.6686
62909SOL     OW95841   7.802   2.344   3.903  0.0602  0.6933 -0.5652
62909SOL    HW195842   7.727   2.397   3.878 -2.1945 -1.4738  1.0398
62909SOL    HW295843   7.820   2.369   3.994  0.1067 -0.0075 -0.3758
62910SOL     OW95844   3.958  12.040  12.552  0.2518  0.0648  0.0038
62910SOL    HW195845   4.015  11.992  12.612  0.6142  1.2835  0.6742
62910SOL    HW295846   4.011  12.055  12.475 -0.0663 -1.1196 -0.4610
62911SOL     OW95847   8.070   9.769   6.927  0.6482 -0.2139  0.3665
62911SOL    HW195848   7.993   9.801   6.974  0.1057 -0.9259 -0.0136
62911SOL    HW295849   8.140   9.830   6.950 -0.1178  0.6628  0.4219
62912SOL     OW95850   5.070  11.385   0.560  0.5502 -0.3732  0.0395
62912SOL    HW195851   5.129  11.459   0.576  0.5802 -0.3097 -0.3345
62912SOL    HW295852   5.078  11.329   0.637  1.5395 -0.6637 -0.2617
62913SOL     OW95853  12.861   5.032   3.057  0.2008  0.4593 -0.4643
62913SOL    HW195854  12.860   5.025   3.153  0.2154  1.8799 -0.3386
62913SOL    HW295855  12.798   4.966   3.028 -0.5654  0.6857  0.5904
62914SOL     OW95856   6.011   2.983  12.430  0.0211  0.0658 -0.4549
62914SOL    HW195857   6.025   2.892  12.407 -0.1857 -0.4274  1.2268
62914SOL    HW295858   5.917   2.996  12.424 -0.1105 -0.2475  0.6106
62915SOL     OW95859  10.704  10.922   3.611 -0.2375  0.5906 -0.0180
62915SOL    HW195860  10.758  10.902   3.535  1.6741 -0.5118  1.5452
62915SOL    HW295861  10.669  10.837   3.639 -1.9047  1.1327 -0.3010
62916SOL     OW95862   6.149  11.046   0.299  0.2696 -0.3662  0.3637
62916SOL    HW195863   6.138  10.972   0.240 -2.2658  0.4455 -0.3230
62916SOL    HW295864   6.135  11.010   0.386 -0.7924 -0.7712  0.0437
62917SOL     OW95865   2.358   8.434   7.181  0.3833 -0.1783  0.5569
62917SOL    HW195866   2.295   8.446   7.110 -0.2698  0.3459  1.2097
62917SOL    HW295867   2.441   8.416   7.136  0.4761  2.2897 -0.4298
62918SOL     OW95868   3.191   5.075   2.073 -0.0287  0.1621 -0.4749
62918SOL    HW195869   3.135   5.134   2.124  0.7999 -0.0161  0.6825
62918SOL    HW295870   3.164   4.987   2.099 -0.3990  0.0404 -1.2450
62919SOL     OW95871   9.734   4.243   7.833  0.4944 -0.2061  0.2621
62919SOL    HW195872   9.726   4.301   7.757  2.6062 -1.0582 -0.6921
62919SOL    HW295873   9.763   4.301   7.904  0.5486  0.2629 -0.1358
62920SOL     OW95874   2.543   4.340   1.332  0.3755  0.3943 -0.1284
62920SOL    HW195875   2.472   4.404   1.338  0.4719  0.5955 -0.9491
62920SOL    HW295876   2.621   4.393   1.312  0.5020  0.0521 -0.5535
62921SOL     OW95877   3.871   7.045   0.929 -0.3851 -0.2226  0.2822
62921SOL    HW195878   3.845   6.975   0.869 -0.1669 -2.2140  2.3815
62921SOL    HW295879   3.966   7.048   0.923 -0.4660  0.9051 -0.8204
62922SOL     OW95880   2.709  10.090  11.318  0.0820 -0.2840  0.2167
62922SOL    HW195881   2.648  10.018  11.302 -0.3915 -0.0898  1.0551
62922SOL    HW295882   2.743  10.113  11.232 -0.9068 -0.5130 -0.2532
62923SOL     OW95883   2.412   0.097   6.163 -0.2314  0.2649  0.6891
62923SOL    HW195884   2.335   0.040   6.159 -0.2366  0.3214 -1.0739
62923SOL    HW295885   2.469   0.064   6.094 -0.0420  2.1124 -0.0945
62924SOL     OW95886   4.797   2.021   1.667  0.2117  0.4209 -0.2319
62924SOL    HW195887   4.862   2.086   1.638  1.2448  0.5399  2.0834
62924SOL    HW295888   4.799   2.027   1.763 -1.3600 -1.4238 -0.0290
62925SOL     OW95889  11.908   4.439   2.616 -0.3512  0.5391  0.0991
62925SOL    HW195890  11.895   4.512   2.676  0.9358  0.8638  0.0154
62925SOL    HW295891  11.969   4.381   2.662  0.8848  0.9372 -0.9869
62926SOL     OW95892  10.833   7.372   4.931  0.0652  0.2059 -0.1585
62926SOL    HW195893  10.816   7.396   5.022  1.0152 -0.6837  0.2678
62926SOL    HW295894  10.824   7.277   4.929 -0.7823  0.2916 -1.1895
62927SOL     OW95895  10.639  10.293  11.678 -0.1903 -0.2902 -0.8630
62927SOL    HW195896  10.715  10.298  11.737 -0.5278 -0.2576 -0.4289
62927SOL    HW295897  10.656  10.215  11.624 -0.8388 -1.5165  0.6301
62928SOL     OW95898   7.994   7.969   3.656 -0.1947  0.1322 -0.5403
62928SOL    HW195899   8.015   8.062   3.652  0.2462  0.1114  0.7426
62928SOL    HW295900   7.934   7.961   3.731  0.0288 -0.6455 -0.4291
62929SOL     OW95901   0.453   5.075   0.775 -0.1221 -0.0298 -0.4544
62929SOL    HW195902   0.441   5.037   0.687  0.4060 -0.4439 -0.3505
62929SOL    HW295903   0.431   5.168   0.764  0.1825 -0.0256 -1.0813
62930SOL     OW95904   2.224   4.839   3.131 -0.6666 -0.8358 -0.1026
62930SOL    HW195905   2.297   4.876   3.082 -0.8864 -1.7447 -1.1615
62930SOL    HW295906   2.191   4.912   3.184  0.6032 -0.2617 -0.0626
62931SOL     OW95907   3.857   5.930   5.019 -0.3914  0.8086 -0.1874
62931SOL    HW195908   3.839   5.917   4.926  1.7527 -0.4822 -0.4994
62931SOL    HW295909   3.786   5.884   5.064 -0.7863  0.3841 -1.2131
62932SOL     OW95910   7.443  12.709   7.972 -0.1996  0.4322  0.5682
62932SOL    HW195911   7.468  12.710   8.064 -1.5321  0.1326  0.9612
62932SOL    HW295912   7.369  12.648   7.968 -1.5068  1.9901 -0.3345
62933SOL     OW95913   7.318   1.613   2.885  0.6734  1.1471 -0.2666
62933SOL    HW195914   7.320   1.614   2.789  1.7723  0.4793 -0.2647
62933SOL    HW295915   7.406   1.587   2.911  0.0082 -0.1097  0.8827
62934SOL     OW95916   9.201  12.253   4.994  0.9125 -0.1907 -0.0921
62934SOL    HW195917   9.251  12.172   5.002  0.4108 -0.5822 -0.8584
62934SOL    HW295918   9.267  12.322   5.004  1.6393 -0.6904 -1.2479
62935SOL     OW95919   2.270   1.181   4.308 -0.1311  0.6922 -0.5366
62935SOL    HW195920   2.243   1.257   4.359  1.6671  1.9323 -1.3530
62935SOL    HW295921   2.290   1.114   4.374 -0.8570  1.1973  0.2265
62936SOL     OW95922  12.292   1.439   5.530  0.2327 -0.6979  0.2128
62936SOL    HW195923  12.321   1.352   5.503  2.5555  0.7079 -2.3380
62936SOL    HW295924  12.374   1.488   5.541 -0.9561  2.1931 -2.4207
62937SOL     OW95925  12.192  12.212   2.483  0.1380  0.7834 -0.4152
62937SOL    HW195926  12.271  12.183   2.438 -0.0257  0.7903 -0.7073
62937SOL    HW295927  12.222  12.281   2.542  0.8744 -1.1375  1.6216
62938SOL     OW95928   8.264   0.628   9.785  0.2671  0.7041 -0.3080
62938SOL    HW195929   8.259   0.573   9.864  2.7366  1.1146  0.2207
62938SOL    HW295930   8.329   0.585   9.730  1.3050  2.3753 -0.4554
62939SOL     OW95931   0.179   8.959   7.913  0.1849 -0.2165  0.2030
62939SOL    HW195932   0.158   9.040   7.867  2.0653  0.0844 -0.2216
62939SOL    HW295933   0.171   8.980   8.006 -0.4864  0.1166  0.0697
62940SOL     OW95934  12.540  10.987   4.338 -0.0682  0.1788 -0.0505
62940SOL    HW195935  12.534  11.067   4.286 -1.6473 -2.0682 -3.7606
62940SOL    HW295936  12.592  10.927   4.284 -1.1504 -2.1087  1.3042
62941SOL     OW95937   5.836   5.848   2.097 -0.6637 -0.8969  0.7818
62941SOL    HW195938   5.925   5.864   2.127 -0.2679  0.8796 -1.1836
62941SOL    HW295939   5.844   5.781   2.029 -0.5927  0.3334 -0.4573
62942SOL     OW95940  11.086   4.460  11.194 -0.3377  0.1389  0.3157
62942SOL    HW195941  11.059   4.394  11.130  0.4935 -1.1140  1.2101
62942SOL    HW295942  11.139   4.522  11.143 -1.6223  0.4867 -0.6568
62943SOL     OW95943   9.699   2.764   1.426 -0.3443 -0.5246  0.5404
62943SOL    HW195944   9.614   2.720   1.437 -1.9630  1.1357 -3.3797
62943SOL    HW295945   9.748   2.706   1.367  0.3707 -0.4160  1.0170
62944SOL     OW95946   5.848   4.201   8.990 -0.2111  0.3353 -0.2964
62944SOL    HW195947   5.903   4.241   8.923  0.1637 -2.7436 -2.0072
62944SOL    HW295948   5.760   4.199   8.952 -0.5352  0.8462  0.4023
62945SOL     OW95949   5.149   0.406   1.987 -0.0568 -0.2643  0.0555
62945SOL    HW195950   5.238   0.405   1.951 -0.0644 -1.1984  0.0621
62945SOL    HW295951   5.093   0.384   1.913 -0.4776  2.0543 -0.4043
62946SOL     OW95952  11.890   6.582  11.300  0.6480 -0.9860  0.6271
62946SOL    HW195953  11.805   6.628  11.296  1.3339  0.3191  0.4073
62946SOL    HW295954  11.952   6.644  11.260  1.4460 -2.5740 -0.7098
62947SOL     OW95955   0.704   0.832   8.271 -0.1477  0.0008 -0.0919
62947SOL    HW195956   0.610   0.815   8.270 -0.2300 -0.0340  2.5728
62947SOL    HW295957   0.742   0.758   8.223 -1.3313 -1.3708  1.0131
62948SOL     OW95958   3.624   7.324  10.362  0.5187 -0.2261  0.7251
62948SOL    HW195959   3.561   7.262  10.397  0.6546  0.9525  3.2584
62948SOL    HW295960   3.653   7.285  10.279 -1.8299 -1.8655  0.5877
62949SOL     OW95961   3.122   9.775  11.653 -0.7370  0.2654  0.6485
62949SOL    HW195962   3.064   9.843  11.619  0.8141  1.4975  0.3540
62949SOL    HW295963   3.138   9.800  11.744 -0.4468  0.0937  0.6462
62950SOL     OW95964  10.202  12.953   1.879  0.0792 -0.1261  0.6672
62950SOL    HW195965  10.205  12.857   1.877 -0.1499 -0.2037  2.4519
62950SOL    HW295966  10.293  12.979   1.893  0.5068  0.0585 -2.0210
62951SOL     OW95967  10.793   4.152   4.707 -0.1654 -0.2885  0.7664
62951SOL    HW195968  10.712   4.190   4.673  0.9399  2.8396  1.2923
62951SOL    HW295969  10.826   4.100   4.634 -1.6082  0.0750 -0.2133
62952SOL     OW95970   9.885  12.396   8.933  0.0096  0.1625 -0.8753
62952SOL    HW195971   9.951  12.449   8.888 -0.7148  0.1478 -2.0221
62952SOL    HW295972   9.805  12.410   8.882 -1.0890  0.8275  0.9579
62953SOL     OW95973   4.731   5.952   2.079 -0.0467 -0.3796  0.1766
62953SOL    HW195974   4.821   5.968   2.107 -0.7462 -0.4770  2.7307
62953SOL    HW295975   4.695   5.893   2.145 -2.2635  0.4213 -0.2128
62954SOL     OW95976   9.102   2.360   9.207 -0.2422  0.3033  0.4613
62954SOL    HW195977   9.182   2.308   9.218 -0.2894  0.5283  1.9739
62954SOL    HW295978   9.071   2.376   9.296 -1.3492  1.1988 -0.0654
62955SOL     OW95979  12.262  12.093   3.393  0.1045  0.4741  0.0419
62955SOL    HW195980  12.324  12.113   3.464 -0.3514  1.0959  0.2751
62955SOL    HW295981  12.214  12.175   3.380  0.1315  0.3431 -0.9397
62956SOL     OW95982   3.131   8.257   1.914 -0.2996 -0.0759 -0.4523
62956SOL    HW195983   3.049   8.212   1.935  0.1577 -0.6807  0.0801
62956SOL    HW295984   3.160   8.293   1.998  0.3717 -0.5379 -0.4793
62957SOL     OW95985   3.250   7.624   6.170  0.2527 -0.0244 -0.1327
62957SOL    HW195986   3.340   7.640   6.196  0.0366 -1.1575  1.5439
62957SOL    HW295987   3.197   7.674   6.232 -0.2678 -0.3046 -0.3363
62958SOL     OW95988   1.023   3.941   9.711 -0.3715 -0.1053  0.2693
62958SOL    HW195989   1.025   4.019   9.767  0.3529  0.5216 -0.5906
62958SOL    HW295990   0.941   3.897   9.733 -0.6473  0.7414  0.9900
62959SOL     OW95991   4.793  10.153  10.126 -0.2269 -0.7120 -0.5181
62959SOL    HW195992   4.859  10.217  10.154  0.2538 -1.9136  1.2984
62959SOL    HW295993   4.716  10.206  10.105 -0.1142  0.4528  1.7133
62960SOL     OW95994   7.008  12.284   8.115  0.0455 -0.5748 -0.1956
62960SOL    HW195995   7.033  12.376   8.122 -0.6027 -0.1661 -2.4397
62960SOL    HW295996   6.927  12.277   8.166 -0.5661  0.4110 -1.0060
62961SOL     OW95997  12.152  10.259   2.336  0.4335 -0.0306 -0.2752
62961SOL    HW195998  12.086  10.233   2.272 -1.4336 -0.7950  1.8061
62961SOL    HW295999  12.215  10.311   2.287 -2.5916  2.1600 -2.1553
62962SOL     OW96000   9.057  10.796   1.855  0.0435 -0.5132 -0.2721
62962SOL    HW196001   8.993  10.863   1.833  1.7783  0.6491 -2.1472
62962SOL    HW296002   9.058  10.738   1.779  2.1240  0.2965 -0.9320
62963SOL     OW96003   4.981   4.021  11.581  0.2175  0.2896  0.0790
62963SOL    HW196004   4.931   3.981  11.510  0.5384 -0.8450  0.4696
62963SOL    HW296005   5.018   4.100  11.543 -0.9373  0.5447 -0.5412
62964SOL     OW96006   6.584   7.743   3.481 -0.4286 -0.3536 -0.3127
62964SOL    HW196007   6.565   7.837   3.480  2.3033  0.2914 -0.5000
62964SOL    HW296008   6.636   7.728   3.402 -1.2278 -2.1587 -0.5512
62965SOL     OW96009   1.022   4.998  10.709 -0.2293 -0.0294  0.5931
62965SOL    HW196010   1.023   5.014  10.614 -0.0207 -0.2026  0.5673
62965SOL    HW296011   1.114   5.003  10.735 -0.1245 -1.4471  0.5452
62966SOL     OW96012  10.177  12.729   1.485  0.7905  0.8633 -0.4483
62966SOL    HW196013  10.183  12.742   1.391 -0.0296  1.2450 -0.4555
62966SOL    HW296014  10.108  12.790   1.514 -0.0792 -0.3617  0.1654
62967SOL     OW96015   5.182   2.541   1.538  0.5455  0.6353  0.5708
62967SOL    HW196016   5.161   2.504   1.452 -0.5520  1.0548  0.6488
62967SOL    HW296017   5.098   2.570   1.573  1.2539  2.5641  0.8185
62968SOL     OW96018  10.415   1.041  12.524  0.1320 -0.3905  0.0225
62968SOL    HW196019  10.351   1.105  12.494  0.7505  0.5633  0.6779
62968SOL    HW296020  10.363   0.973  12.568 -0.4023  0.6837  1.1066
62969SOL     OW96021   0.043   6.229   2.601 -0.4086  0.0637  0.1552
62969SOL    HW196022   0.059   6.162   2.668 -1.8582  1.1288  1.6241
62969SOL    HW296023   0.100   6.302   2.625 -1.3649  0.6785  0.5891
62970SOL     OW96024   3.714   4.001  11.097 -0.1289 -0.2115 -0.2552
62970SOL    HW196025   3.763   4.083  11.090  1.1173 -1.0400 -2.4742
62970SOL    HW296026   3.643   4.010  11.034 -0.5656 -0.4804  0.1924
62971SOL     OW96027   2.619   9.408   7.439 -0.0761 -0.2028  0.1658
62971SOL    HW196028   2.582   9.335   7.390 -1.7604  0.3700  0.4929
62971SOL    HW296029   2.609   9.382   7.531  0.1504  0.0520  0.2622
62972SOL     OW96030  11.763  10.596   1.109  0.4992 -0.4909  0.4899
62972SOL    HW196031  11.712  10.677   1.108  2.4758  0.8018  0.3783
62972SOL    HW296032  11.763  10.567   1.018 -1.8562 -1.7713  0.8130
62973SOL     OW96033  12.825   6.410   7.824 -0.0635 -0.2568  0.0296
62973SOL    HW196034  12.846   6.498   7.794  0.9000  0.2584  2.0371
62973SOL    HW296035  12.733   6.414   7.850 -0.3418 -0.1743 -0.9553
62974SOL     OW96036  12.105   6.144  11.986  0.3801 -0.1931  0.0104
62974SOL    HW196037  12.190   6.169  12.024  0.3278  0.2926 -0.1752
62974SOL    HW296038  12.074   6.073  12.042  0.4120  0.3504  0.7388
62975SOL     OW96039   9.034   3.068  10.447 -0.4229 -0.4154  0.2587
62975SOL    HW196040   9.047   3.005  10.376 -1.4615 -0.5005  0.1271
62975SOL    HW296041   9.009   3.014  10.522 -1.6703 -0.1641  0.0526
62976SOL     OW96042   9.172  11.126   6.198  0.4304  0.2888  0.3489
62976SOL    HW196043   9.195  11.050   6.251  2.6101 -0.7246 -1.8771
62976SOL    HW296044   9.086  11.105   6.162  0.8027 -0.8974  0.1405
62977SOL     OW96045   8.408   6.399   8.142  0.6069 -0.1573 -0.1364
62977SOL    HW196046   8.492   6.400   8.097  0.3370  0.1257 -0.6478
62977SOL    HW296047   8.375   6.489   8.133  1.2299  0.3354  1.9451
62978SOL     OW96048   7.968   9.925   8.406  0.3459 -0.1696  0.6567
62978SOL    HW196049   7.907   9.920   8.481  0.4819 -0.0921  0.7720
62978SOL    HW296050   7.959  10.015   8.374  1.2696  0.2105  1.4090
62979SOL     OW96051   0.502   2.283   7.007 -0.2904  0.3105 -0.6938
62979SOL    HW196052   0.536   2.285   7.096  1.8266  0.7002 -1.4388
62979SOL    HW296053   0.498   2.190   6.984  0.7643  0.2706 -0.7397
62980SOL     OW96054   3.319  12.296   6.293 -0.4585 -0.3364  0.1626
62980SOL    HW196055   3.402  12.303   6.340 -0.4219 -0.0603  0.0594
62980SOL    HW296056   3.298  12.386   6.268 -0.0284 -0.5756 -1.1277
62981SOL     OW96057   8.946   6.425   8.802 -0.1702 -0.3776 -0.4779
62981SOL    HW196058   8.980   6.505   8.762  2.1112 -0.5258  0.9795
62981SOL    HW296059   8.960   6.357   8.736  0.2572 -0.0094 -0.7703
62982SOL     OW96060   5.803   7.496   3.463 -0.3048 -0.2232 -0.4252
62982SOL    HW196061   5.879   7.482   3.519 -1.1838 -1.2490  0.5717
62982SOL    HW296062   5.741   7.544   3.518 -0.8786 -0.5577 -0.7722
62983SOL     OW96063   9.224   0.391   8.143  0.5362 -0.8212  0.0962
62983SOL    HW196064   9.307   0.418   8.184  0.5518 -1.3395  0.4181
62983SOL    HW296065   9.165   0.465   8.158  1.3619  0.2003 -1.4707
62984SOL     OW96066  11.503   0.069  10.216 -0.5152 -0.2008  0.2342
62984SOL    HW196067  11.594   0.066  10.187  0.5634 -0.7732  3.2245
62984SOL    HW296068  11.466   0.146  10.174  1.8340  0.9478  0.1291
62985SOL     OW96069   5.326  11.725   9.918 -0.2208  0.2828 -0.3142
62985SOL    HW196070   5.386  11.745   9.989 -1.3353  2.5992  0.0639
62985SOL    HW296071   5.381  11.685   9.850  1.5788  1.4884  0.3606
62986SOL     OW96072   5.378  10.769   0.029 -0.0736 -0.1238 -0.4728
62986SOL    HW196073   5.351  10.686  -0.011  1.1907 -0.7813 -0.0284
62986SOL    HW296074   5.306  10.829   0.010 -1.2357 -1.4286 -0.4450
62987SOL     OW96075   7.251   4.164  11.780 -0.0982 -0.5699 -0.4350
62987SOL    HW196076   7.316   4.157  11.711  0.1337  0.6222 -0.3439
62987SOL    HW296077   7.202   4.081  11.775  0.9178 -1.1514 -0.9915
62988SOL     OW96078   7.260   5.124   3.601 -0.1865 -0.5288 -0.2575
62988SOL    HW196079   7.204   5.197   3.627  0.3410 -0.6805  1.4579
62988SOL    HW296080   7.290   5.086   3.684  1.5356 -1.1505 -1.1015
62989SOL     OW96081  12.695   3.677   7.214 -0.1547 -0.3329 -0.0789
62989SOL    HW196082  12.755   3.646   7.282  0.8349 -0.5224 -1.0138
62989SOL    HW296083  12.669   3.598   7.167 -0.3354 -0.1310 -0.3171
62990SOL     OW96084   6.453   0.554   9.951  0.2614  0.2923  0.3988
62990SOL    HW196085   6.494   0.640   9.961  1.1085 -0.2235  1.6173
62990SOL    HW296086   6.526   0.492   9.954 -0.1822 -0.4293 -1.8092
62991SOL     OW96087   7.240  11.763  10.936  1.1347 -0.1560 -0.3964
62991SOL    HW196088   7.315  11.732  10.886  1.0629  0.7657 -1.1069
62991SOL    HW296089   7.176  11.692  10.930 -0.0043  0.9377 -4.1066
62992SOL     OW96090   2.934   8.254   0.107 -0.3225 -0.1434 -0.0627
62992SOL    HW196091   2.990   8.177   0.115 -1.1168 -0.8647 -1.1532
62992SOL    HW296092   2.912   8.276   0.198  1.3959 -0.0601  0.3590
62993SOL     OW96093   5.139   7.888   5.317 -0.2184 -0.0698  0.7302
62993SOL    HW196094   5.180   7.956   5.263  0.2192 -0.6561  0.3148
62993SOL    HW296095   5.147   7.808   5.265 -1.9076 -0.2096  0.6345
62994SOL     OW96096   3.217   0.419  11.655  0.2533  0.1406  0.2725
62994SOL    HW196097   3.253   0.468  11.728 -3.5513 -0.1222  2.5915
62994SOL    HW296098   3.217   0.328  11.685 -0.0253 -0.1747 -0.6495
62995SOL     OW96099   7.510   8.585   9.223 -0.2678 -0.0458  0.5522
62995SOL    HW196100   7.519   8.492   9.243 -0.9651 -0.1753  0.2754
62995SOL    HW296101   7.503   8.627   9.309 -2.3255 -0.5026  0.6519
62996SOL     OW96102  12.390   7.898  11.508 -0.1124  0.1541  0.8285
62996SOL    HW196103  12.466   7.957  11.504  0.2037 -0.2832  0.2395
62996SOL    HW296104  12.405   7.844  11.586  0.3375 -0.1287  0.5518
62997SOL     OW96105  10.932   4.784   4.499 -0.2650 -0.8919  0.0300
62997SOL    HW196106  10.858   4.836   4.532  1.4708  1.9258 -0.1252
62997SOL    HW296107  10.967   4.741   4.577  0.8895  1.8742  1.1954
62998SOL     OW96108   0.935   4.594  12.730  0.3850 -0.4781  0.3218
62998SOL    HW196109   0.982   4.634  12.656  0.8962 -1.5763  0.0283
62998SOL    HW296110   0.847   4.631  12.724  0.8203  0.5896  0.0669
62999SOL     OW96111   8.312  12.811   3.462  0.0083 -0.2369  0.0750
62999SOL    HW196112   8.405  12.814   3.439 -0.6456  1.3839 -2.8535
62999SOL    HW296113   8.279  12.735   3.416 -0.0678 -1.1671  1.6029
63000SOL     OW96114   6.932   6.413  12.213  0.3256  0.1541 -0.0732
63000SOL    HW196115   6.935   6.460  12.297  0.1619 -0.0712  0.0599
63000SOL    HW296116   6.944   6.482  12.147  1.4477  0.2131  0.1671
63001SOL     OW96117   0.269   4.257   9.992 -0.4727  0.5020  0.2577
63001SOL    HW196118   0.279   4.346   9.960  0.0224 -0.0086 -1.0759
63001SOL    HW296119   0.237   4.267  10.082 -1.9705  1.9978 -0.3940
63002SOL     OW96120  12.780   8.911   5.103  0.1141 -0.2848 -0.0921
63002SOL    HW196121  12.752   8.829   5.144 -1.9458  0.1173 -0.6064
63002SOL    HW296122  12.771   8.894   5.009  1.1903  0.0380 -0.2683
63003SOL     OW96123   5.163   2.901   2.571 -0.4927 -0.3327 -0.3449
63003SOL    HW196124   5.112   2.977   2.541 -0.1220 -0.6571 -1.8924
63003SOL    HW296125   5.120   2.826   2.531  1.3128 -0.5925 -1.9478
63004SOL     OW96126   1.488  12.669  10.309 -0.3484 -0.9137  0.6992
63004SOL    HW196127   1.485  12.621  10.392 -0.2534  0.0042  1.2477
63004SOL    HW296128   1.579  12.698  10.301 -0.7047  0.3514  1.0753
63005SOL     OW96129   3.631   2.386   6.423  0.7994  0.3136  0.1994
63005SOL    HW196130   3.703   2.445   6.398  1.2634 -1.0879 -1.9985
63005SOL    HW296131   3.569   2.391   6.350  0.9081 -1.9704 -0.1121
63006SOL     OW96132   9.522  11.961   9.789 -0.0427  0.4961 -0.4760
63006SOL    HW196133   9.545  11.953   9.697  0.3926 -0.5104 -0.2855
63006SOL    HW296134   9.533  12.054   9.808  0.6555  0.5746 -1.2277
63007SOL     OW96135   9.443   7.274  10.039 -0.2019  0.2057  0.0236
63007SOL    HW196136   9.364   7.255  10.089 -0.1240  1.0876  0.4944
63007SOL    HW296137   9.415   7.334   9.970  0.1844  1.1530  0.6681
63008SOL     OW96138   6.106   0.713   9.766 -0.4675  0.4615  0.3583
63008SOL    HW196139   6.084   0.803   9.741 -0.5772  1.2289  2.8519
63008SOL    HW296140   6.137   0.721   9.857  2.1953 -1.6760 -0.2263
63009SOL     OW96141   1.271   8.463   9.335 -0.0427  0.0515 -0.1093
63009SOL    HW196142   1.312   8.377   9.340  2.0294  0.8621 -1.7084
63009SOL    HW296143   1.321   8.517   9.397 -1.5528  0.0916  1.1547
63010SOL     OW96144   7.300   0.816   6.761  0.0375  0.3132  0.4131
63010SOL    HW196145   7.338   0.809   6.674 -0.4100  1.8784  0.0542
63010SOL    HW296146   7.214   0.856   6.747 -0.6229 -0.6693  1.4527
63011SOL     OW96147   6.669   7.214   3.535 -0.2900 -0.3416 -0.1947
63011SOL    HW196148   6.674   7.309   3.541 -1.4523 -0.3566  1.6002
63011SOL    HW296149   6.754   7.184   3.566  0.0398  0.0925 -0.6607
63012SOL     OW96150  10.909   9.032  10.387  0.8129 -0.1816 -0.4833
63012SOL    HW196151  10.903   8.983  10.469 -0.9994 -1.2733 -1.2131
63012SOL    HW296152  10.820   9.032  10.352  1.4020  0.8609 -2.1307
63013SOL     OW96153   2.859   3.541  10.052  0.2380  0.5859  0.0191
63013SOL    HW196154   2.915   3.559   9.976  0.3909 -0.6874 -0.1863
63013SOL    HW296155   2.770   3.555  10.019  0.2530 -0.7863 -0.6590
63014SOL     OW96156  10.788  11.402  11.451  0.6043  0.1415 -0.4402
63014SOL    HW196157  10.844  11.479  11.458  0.7783  0.1376 -1.5632
63014SOL    HW296158  10.748  11.393  11.537  2.0824  0.3238  0.3039
63015SOL     OW96159  12.176   3.525   5.538  0.0757 -0.4826 -0.1894
63015SOL    HW196160  12.143   3.464   5.473 -0.8906  0.3445 -0.5094
63015SOL    HW296161  12.118   3.513   5.613  1.0445 -1.2732  0.4543
63016SOL     OW96162   6.778   5.562  12.903 -0.4060  0.0634  0.1912
63016SOL    HW196163   6.781   5.554  12.808  2.0459  0.5590  0.1679
63016SOL    HW296164   6.686   5.584  12.923 -1.1027 -0.6930 -1.9598
63017SOL     OW96165   4.377   9.023   5.447  0.6033 -0.1083 -0.0898
63017SOL    HW196166   4.443   9.028   5.516 -0.2083  0.6524  0.6508
63017SOL    HW296167   4.302   9.070   5.482  0.2081  0.3981 -1.5420
63018SOL     OW96168   8.816  10.343   4.899  0.2812  0.7491  0.4933
63018SOL    HW196169   8.786  10.281   4.965  1.1624 -0.8613 -0.5534
63018SOL    HW296170   8.749  10.342   4.831  0.5724  0.4992  0.2060
63019SOL     OW96171   2.762   1.544   8.830 -0.1373 -0.2952  0.4018
63019SOL    HW196172   2.834   1.563   8.770 -1.0912  1.1305 -0.3513
63019SOL    HW296173   2.788   1.463   8.874  1.3990 -0.4148 -0.6481
63020SOL     OW96174   1.790   4.954   1.623  0.3537 -0.4191 -0.7453
63020SOL    HW196175   1.710   5.006   1.638 -0.1341 -1.1271 -0.8402
63020SOL    HW296176   1.848   5.014   1.577  0.1698  0.3513 -0.0046
63021SOL     OW96177  11.508   5.008   7.146 -0.2134  0.2435  0.5686
63021SOL    HW196178  11.416   4.982   7.138  0.4717 -2.0567 -0.8613
63021SOL    HW296179  11.527   5.001   7.240 -1.8091  2.2031  1.1193
63022SOL     OW96180   0.744  10.824   7.997  0.1606  0.1416  0.0966
63022SOL    HW196181   0.697  10.849   8.077 -0.8094 -1.3765  0.0539
63022SOL    HW296182   0.682  10.844   7.927  0.5710  0.4364 -0.1832
63023SOL     OW96183   8.222   3.688   0.979  0.3108  0.7844  0.7952
63023SOL    HW196184   8.178   3.639   1.048  0.7268  0.2787  0.7038
63023SOL    HW296185   8.187   3.652   0.898  1.2271  0.0507  0.7103
63024SOL     OW96186   5.159  11.498   3.415  0.3964 -0.0982  0.4706
63024SOL    HW196187   5.193  11.489   3.326 -0.2057  0.6468  0.1576
63024SOL    HW296188   5.230  11.536   3.465  1.4353 -2.2888  0.7858
63025SOL     OW96189  12.745   3.971  12.406 -0.4135 -0.0040 -0.0499
63025SOL    HW196190  12.792   3.927  12.335 -0.1599 -0.9566  0.6824
63025SOL    HW296191  12.713   3.899  12.461 -3.4828  0.5022 -0.9510
63026SOL     OW96192   9.699   7.695  11.483 -0.2421  0.0643 -0.4062
63026SOL    HW196193   9.761   7.630  11.451  1.1221  1.1533 -0.0763
63026SOL    HW296194   9.675   7.664  11.570  0.8524  0.2726 -0.0147
63027SOL     OW96195   4.669  11.238   1.071  0.1621  0.2947  0.2735
63027SOL    HW196196   4.589  11.213   1.025  0.8022  0.2247 -0.8207
63027SOL    HW296197   4.727  11.273   1.003  1.3049 -0.2382  0.9324
63028SOL     OW96198  10.758   7.397   5.194 -0.0159 -0.0622 -0.5827
63028SOL    HW196199  10.843   7.389   5.238  0.7806  1.8618 -1.6210
63028SOL    HW296200  10.700   7.434   5.260 -0.3165 -2.0735  0.3625
63029SOL     OW96201  12.526   2.143   1.959  0.7213  0.5367  0.5464
63029SOL    HW196202  12.560   2.064   2.002  0.7926  0.8269  1.0358
63029SOL    HW296203  12.501   2.200   2.031  3.6714  2.3019  0.3349
63030SOL     OW96204   8.989   2.870   0.323 -0.1861  0.3911  0.9252
63030SOL    HW196205   8.986   2.819   0.405 -1.9023 -1.4579 -0.1928
63030SOL    HW296206   9.075   2.851   0.287  0.1884  0.3658  1.8033
63031SOL     OW96207  11.357   9.811   1.111 -0.5648  0.5230 -0.0584
63031SOL    HW196208  11.393   9.811   1.200  0.1580 -0.0906 -0.3420
63031SOL    HW296209  11.304   9.732   1.107  0.0071  0.1560 -0.4078
63032SOL     OW96210   7.318   5.744  12.787  0.1088 -0.1178  0.6850
63032SOL    HW196211   7.326   5.720  12.880  2.0346  0.8139  0.7998
63032SOL    HW296212   7.320   5.661  12.741  0.7362 -0.5228  1.4042
63033SOL     OW96213   9.660   9.908   3.684 -0.1762  0.0174  0.1541
63033SOL    HW196214   9.737   9.910   3.742  1.2587  0.7299 -1.6716
63033SOL    HW296215   9.695   9.878   3.600 -2.2188 -1.1181 -0.3376
63034SOL     OW96216   7.609   4.684   6.875  0.2185 -0.3874 -0.7150
63034SOL    HW196217   7.553   4.623   6.924  0.9787  0.1131  0.8520
63034SOL    HW296218   7.610   4.763   6.929  1.4925  0.0183 -1.2963
63035SOL     OW96219   1.048   1.253   5.383 -0.0054  0.6534 -0.0501
63035SOL    HW196220   0.966   1.284   5.346 -0.8838 -0.9719  0.4521
63035SOL    HW296221   1.025   1.218   5.469  1.1011 -0.2617 -0.0858
63036SOL     OW96222  11.606  10.868   3.868 -0.0487  0.3726 -0.3396
63036SOL    HW196223  11.526  10.820   3.888 -0.0996  0.8445  0.6800
63036SOL    HW296224  11.634  10.835   3.783 -0.4969 -0.8855 -0.0112
63037SOL     OW96225  12.007   0.567   7.663 -0.0252 -0.7746 -0.1557
63037SOL    HW196226  12.014   0.585   7.569  0.4362 -1.6561 -0.2997
63037SOL    HW296227  12.075   0.502   7.680  2.2778  1.8427  1.4562
63038SOL     OW96228  10.794  11.612  11.926 -0.0023  0.7494 -0.3462
63038SOL    HW196229  10.860  11.585  11.863 -1.5691 -0.1423 -1.6533
63038SOL    HW296230  10.806  11.707  11.934  1.4856  0.5882 -0.4656
63039SOL     OW96231  10.320   4.587  10.673  0.9275 -0.0515  0.1897
63039SOL    HW196232  10.252   4.540  10.723  0.3011  0.4251 -0.2055
63039SOL    HW296233  10.390   4.522  10.662  1.5053  0.0794  2.4676
63040SOL     OW96234   4.271   9.222   9.573  0.4177  0.0315  0.0529
63040SOL    HW196235   4.348   9.278   9.577  0.8574 -0.5681  0.2194
63040SOL    HW296236   4.251   9.216   9.479 -0.6311  1.7654  0.1274
63041SOL     OW96237  12.418  12.509   6.168  0.4483 -0.4281 -0.3007
63041SOL    HW196238  12.496  12.517   6.224  0.4933 -3.2970  0.1969
63041SOL    HW296239  12.345  12.504   6.229  0.3631 -2.1549 -0.4875
63042SOL     OW96240  12.032   8.685   3.476  0.0583 -0.8246 -0.2238
63042SOL    HW196241  12.098   8.628   3.438 -1.5007 -2.6734 -0.3037
63042SOL    HW296242  11.950   8.659   3.433 -1.0586 -0.0648  1.3562
63043SOL     OW96243   9.775   0.014   1.022  0.0473  0.0737  0.4774
63043SOL    HW196244   9.726   0.056   1.092 -1.6168 -1.5411  0.3664
63043SOL    HW296245   9.761   0.070   0.945  0.3124  0.8392  0.9772
63044SOL     OW96246   6.371   4.015   0.593  0.0506 -0.4047 -0.2198
63044SOL    HW196247   6.400   4.016   0.684  0.5069  0.8021 -0.3560
63044SOL    HW296248   6.275   4.022   0.598 -0.0760 -1.9964  0.1780
63045SOL     OW96249   2.293   3.819   2.561 -0.4868  0.2894  0.0347
63045SOL    HW196250   2.327   3.874   2.632  0.8664 -0.2015 -0.2049
63045SOL    HW296251   2.296   3.730   2.596 -1.5638  0.2294  0.0052
63046SOL     OW96252   9.681   4.572  11.051 -0.0437  0.3442  0.4830
63046SOL    HW196253   9.753   4.630  11.079  1.6306 -0.5518 -1.6576
63046SOL    HW296254   9.613   4.632  11.021  0.5953  1.2262  0.7197
63047SOL     OW96255   7.862   4.043   9.507  0.0219  0.4711  0.7146
63047SOL    HW196256   7.882   4.097   9.430  0.8216 -0.1865  0.4367
63047SOL    HW296257   7.769   4.024   9.500  0.0081  0.7352  0.1050
63048SOL     OW96258   1.229   8.251  12.550  0.0124 -0.3176  0.3209
63048SOL    HW196259   1.186   8.335  12.537 -1.5353 -1.2889 -1.1708
63048SOL    HW296260   1.179   8.189  12.497  2.5981 -1.7534 -0.6326
63049SOL     OW96261   6.971   9.244   8.063  0.6388  0.1223 -0.2213
63049SOL    HW196262   6.999   9.301   8.134 -0.6780 -0.3295  0.7183
63049SOL    HW296263   6.893   9.286   8.027 -0.1529 -0.8694  0.2619
63050SOL     OW96264  12.920   1.228   4.272  0.3518 -0.1390  0.3593
63050SOL    HW196265  12.995   1.168   4.274  0.1437 -0.4042  0.3510
63050SOL    HW296266  12.875   1.212   4.355  1.0616  1.0153  1.0009
63051SOL     OW96267   3.114   0.271   3.768  0.4500 -0.3954  0.2895
63051SOL    HW196268   3.137   0.268   3.861  1.2788 -0.8438  0.0801
63051SOL    HW296269   3.058   0.194   3.755  0.7495 -0.6206  0.3155
63052SOL     OW96270  11.657  12.483   2.868 -0.1189  0.5726  0.1657
63052SOL    HW196271  11.572  12.488   2.912 -1.2483  0.6958 -1.8875
63052SOL    HW296272  11.718  12.526   2.928 -1.6859  1.2870  1.3089
63053SOL     OW96273   0.121   5.168   5.261 -0.2261 -0.0289  0.2541
63053SOL    HW196274   0.083   5.251   5.233 -0.1341 -0.3963 -0.9878
63053SOL    HW296275   0.212   5.191   5.285 -0.2150  0.2326 -0.0299
63054SOL     OW96276   4.320   5.069   9.921 -0.3363  0.7345 -0.0474
63054SOL    HW196277   4.258   4.998   9.938  0.0304  0.4741  0.2111
63054SOL    HW296278   4.375   5.037   9.850 -1.5461  1.6250 -1.4531
63055SOL     OW96279   9.165   9.504  10.184 -0.3387  0.2902 -0.1702
63055SOL    HW196280   9.075   9.526  10.162 -0.2053  1.1306  0.0502
63055SOL    HW296281   9.218   9.561  10.127  0.0182  1.5968  1.3900
63056SOL     OW96282   2.683   3.029   0.396 -0.3940 -0.1321 -0.2691
63056SOL    HW196283   2.651   3.050   0.483  1.1569  0.6072  0.1692
63056SOL    HW296284   2.756   2.969   0.411 -0.3569 -0.3052 -1.0831
63057SOL     OW96285   3.712   5.467   8.454 -0.5380 -0.0963 -0.1052
63057SOL    HW196286   3.685   5.382   8.486 -0.6528 -0.3011 -0.7398
63057SOL    HW296287   3.675   5.530   8.517 -0.6371 -0.4972  0.2373
63058SOL     OW96288  12.930   9.553   0.571  0.6206 -0.1520  0.1985
63058SOL    HW196289  13.020   9.563   0.539  0.8945 -1.5289  0.4696
63058SOL    HW296290  12.931   9.594   0.657  0.8132  0.4242 -0.0727
63059SOL     OW96291   5.784   3.371   9.537  0.0736  0.0691 -0.1721
63059SOL    HW196292   5.799   3.457   9.577  0.6366 -0.3315  0.5113
63059SOL    HW296293   5.689   3.361   9.534  0.0198  0.3143  0.6308
63060SOL     OW96294  10.831  11.174   8.636 -0.3003  0.5611 -0.1392
63060SOL    HW196295  10.807  11.156   8.545  3.7359  1.6309 -1.6393
63060SOL    HW296296  10.799  11.263   8.652 -4.1127 -0.8291  0.8836
63061SOL     OW96297   2.012  11.308   4.320 -0.6293  0.5220 -0.0925
63061SOL    HW196298   2.051  11.327   4.235 -2.0887  0.9907 -0.6918
63061SOL    HW296299   2.078  11.333   4.384 -0.2156  1.9434 -1.0489
63062SOL     OW96300   5.724   0.553   1.528 -0.5409 -0.5712 -0.3901
63062SOL    HW196301   5.760   0.608   1.458  0.6154 -0.3255  0.3724
63062SOL    HW296302   5.653   0.504   1.486 -0.4926  0.2692 -1.4951
63063SOL     OW96303   5.663   5.745   4.971  0.0420  0.3942  0.2343
63063SOL    HW196304   5.664   5.821   4.914 -0.8724 -0.6271 -1.1958
63063SOL    HW296305   5.754   5.714   4.970  0.8582  2.4041  2.2540
63064SOL     OW96306   0.751   6.290   5.630 -0.0097  0.4495  0.5644
63064SOL    HW196307   0.701   6.258   5.554 -0.4508  0.6123  0.7857
63064SOL    HW296308   0.837   6.248   5.621 -0.4105 -0.3987  0.5654
63065SOL     OW96309   8.748   2.719  10.604 -0.4134 -0.0718  0.0038
63065SOL    HW196310   8.712   2.659  10.538 -0.9143 -0.3032  0.4860
63065SOL    HW296311   8.684   2.789  10.610 -0.4237 -0.1108  0.3359
63066SOL     OW96312   4.410   9.871   4.241  0.2580  0.2305  0.0732
63066SOL    HW196313   4.502   9.880   4.219  0.7773 -0.3755  1.8420
63066SOL    HW296314   4.404   9.789   4.290 -0.8917  1.1395  1.5527
63067SOL     OW96315   6.893  10.185   3.747  0.2032  0.1524  0.0202
63067SOL    HW196316   6.964  10.190   3.683  1.7263 -0.4486  1.5660
63067SOL    HW296317   6.831  10.123   3.709  0.9001  0.0868 -1.0441
63068SOL     OW96318  11.068   2.180  11.901 -1.1917 -0.3144  0.6610
63068SOL    HW196319  11.046   2.087  11.909 -1.1381 -0.2403  1.9859
63068SOL    HW296320  11.027   2.208  11.819 -0.2762 -1.7498 -0.3177
63069SOL     OW96321   4.084   1.534   3.318  0.1688 -0.6642  0.2349
63069SOL    HW196322   4.076   1.555   3.225 -0.4530  0.4860  0.5226
63069SOL    HW296323   4.080   1.439   3.322  3.4569 -0.9922 -1.1837
63070SOL     OW96324   3.058   3.863   7.251  0.7052 -0.3508  0.1111
63070SOL    HW196325   3.092   3.784   7.209 -0.2742 -0.3019 -0.8230
63070SOL    HW296326   3.037   3.836   7.340 -0.0939 -1.3125 -0.3394
63071SOL     OW96327   2.491  10.086  11.944  0.4175 -0.1136 -0.5415
63071SOL    HW196328   2.470  10.169  11.901  2.4047  1.0702  0.5789
63071SOL    HW296329   2.504  10.024  11.872  0.5911  0.9985 -1.4999
63072SOL     OW96330   9.473   2.656   1.804 -0.0335  0.5102  0.5360
63072SOL    HW196331   9.395   2.657   1.860  0.0078 -1.5591  0.6874
63072SOL    HW296332   9.504   2.566   1.807  2.3143  1.2488  0.3633
63073SOL     OW96333   3.587  10.456   2.961  0.3708  0.5864  0.8178
63073SOL    HW196334   3.557  10.443   3.051 -0.1078 -1.1533  0.4508
63073SOL    HW296335   3.602  10.550   2.953  1.4836  0.6554  3.0366
63074SOL     OW96336   5.900   9.261   3.090  0.1519 -0.3147 -0.4218
63074SOL    HW196337   5.829   9.202   3.115 -1.0520 -0.3304 -3.4671
63074SOL    HW296338   5.856   9.341   3.062  1.4903  0.4348 -0.4949
63075SOL     OW96339   2.031   4.712   6.586  0.2230  0.4467  0.1246
63075SOL    HW196340   2.047   4.763   6.665 -0.9313  0.6191  0.2653
63075SOL    HW296341   2.116   4.706   6.543  0.5358  1.7772  0.5240
63076SOL     OW96342   3.853   2.201   1.262 -0.1720  0.7294  0.3031
63076SOL    HW196343   3.802   2.163   1.190  0.5811 -0.9080  0.5891
63076SOL    HW296344   3.853   2.133   1.330  0.4090  1.6400  1.2438
63077SOL     OW96345   0.637   4.072  12.031  0.0576  0.3626 -0.0211
63077SOL    HW196346   0.554   4.118  12.038 -0.2218 -0.2246  0.6327
63077SOL    HW296347   0.619   3.997  11.974  0.8257  1.7175 -2.1781
63078SOL     OW96348   0.659   8.893   5.314  0.6313 -0.4577  0.0656
63078SOL    HW196349   0.633   8.803   5.329 -0.2622 -0.7921 -2.8824
63078SOL    HW296350   0.599   8.945   5.368  0.7992 -1.5626  1.3582
63079SOL     OW96351   8.369   7.416   8.310  0.2672 -0.4551 -0.0499
63079SOL    HW196352   8.438   7.375   8.362  1.5794 -0.9742 -2.0674
63079SOL    HW296353   8.410   7.431   8.225 -0.9389  2.7402 -0.2156
63080SOL     OW96354   2.944  12.712   2.792  0.6160 -0.4900 -0.1315
63080SOL    HW196355   2.942  12.782   2.726 -0.0883 -0.6196 -0.2588
63080SOL    HW296356   3.030  12.671   2.781  0.6294 -0.3086 -0.7619
63081SOL     OW96357   1.151   0.980  11.709  0.0560 -0.3304  0.2588
63081SOL    HW196358   1.122   0.936  11.788 -1.1983 -1.8445 -0.9933
63081SOL    HW296359   1.110   1.067  11.714  1.3513  0.2481  2.0204
63082SOL     OW96360  11.714   5.715   4.323  0.3383 -0.0061  0.0505
63082SOL    HW196361  11.789   5.745   4.272  0.6669 -0.4267  0.2831
63082SOL    HW296362  11.745   5.635   4.367 -0.8314 -1.3195 -1.3912
63083SOL     OW96363  12.226  11.870   0.615  0.1005 -0.3772 -0.4155
63083SOL    HW196364  12.254  11.846   0.703  0.4742 -1.7919 -0.8976
63083SOL    HW296365  12.231  11.789   0.565  1.0808  0.6415 -2.0569
63084SOL     OW96366   6.972  11.601  10.926  0.3007 -0.0000  0.1687
63084SOL    HW196367   6.994  11.677  10.980 -1.1657  0.9686 -0.5434
63084SOL    HW296368   6.878  11.609  10.910 -0.0208 -2.2861  0.5440
63085SOL     OW96369   5.851  11.008   3.461  0.0682 -0.1334 -0.3359
63085SOL    HW196370   5.869  10.937   3.398  0.1347 -0.6859  0.2982
63085SOL    HW296371   5.791  11.066   3.414 -1.7970 -1.7574 -0.1044
63086SOL     OW96372  10.057   2.053   3.848  0.3921 -0.8871 -0.1177
63086SOL    HW196373  10.150   2.058   3.826  0.5232 -1.6459  0.2175
63086SOL    HW296374  10.045   1.963   3.878 -0.1334 -0.3991  1.2196
63087SOL     OW96375  10.735   7.508   0.182 -0.2113 -0.5020  0.5019
63087SOL    HW196376  10.659   7.552   0.145  0.1486  1.3573  1.8231
63087SOL    HW296377  10.810   7.551   0.140  0.2357 -2.9901 -1.5624
63088SOL     OW96378   8.068  12.967   8.462 -0.1386  0.1172 -0.2270
63088SOL    HW196379   8.122  13.044   8.476  0.0124 -0.1721  0.8748
63088SOL    HW296380   8.060  12.926   8.549 -0.5936 -0.8515 -0.6996
63089SOL     OW96381   9.678   6.298  11.129  0.2260  0.1449 -0.7979
63089SOL    HW196382   9.700   6.235  11.197  0.0850  0.7242 -0.2083
63089SOL    HW296383   9.748   6.363  11.133 -0.4418  0.8466 -0.3600
63090SOL     OW96384  11.475   5.667  12.414  0.5019  0.2815 -0.0708
63090SOL    HW196385  11.467   5.721  12.336 -0.8323  0.7242  0.3363
63090SOL    HW296386  11.442   5.581  12.387 -0.0806  0.4691  0.0234
63091SOL     OW96387  11.190  12.282  10.883 -0.2479 -0.2872  0.3178
63091SOL    HW196388  11.218  12.311  10.796  2.1027 -2.3937  0.2724
63091SOL    HW296389  11.191  12.362  10.935 -0.1872  0.7712 -1.2342
63092SOL     OW96390   5.885   6.908   2.562 -0.3404 -0.3715  0.3734
63092SOL    HW196391   5.936   6.986   2.583  0.9314 -1.5071  1.7540
63092SOL    HW296392   5.795   6.931   2.585  0.0294  0.6351  0.8713
63093SOL     OW96393   9.104   4.306  11.031 -0.2650  0.5345 -0.1949
63093SOL    HW196394   9.062   4.221  11.016  1.2026 -0.1972 -0.3937
63093SOL    HW296395   9.032   4.367  11.044 -1.3525 -0.9847  1.3710
63094SOL     OW96396   2.901   7.602   2.827 -0.5535 -0.2821  0.1095
63094SOL    HW196397   2.929   7.640   2.910 -0.3677  1.7642 -0.8304
63094SOL    HW296398   2.808   7.580   2.841 -0.0937 -1.5767  1.3539
63095SOL     OW96399   7.951  11.713   8.019  1.0805 -0.5531  0.1102
63095SOL    HW196400   7.873  11.761   8.045  0.6352 -0.5552 -1.1313
63095SOL    HW296401   8.024  11.765   8.054  0.5438 -0.1721  0.6778
63096SOL     OW96402   9.047   1.649   4.320  0.1080  0.0856  0.2543
63096SOL    HW196403   9.003   1.564   4.323 -0.3543  0.3274  0.5651
63096SOL    HW296404   9.139   1.629   4.335 -0.1452 -0.2545  1.4476
63097SOL     OW96405   0.982   8.968   3.153  0.1056  0.1963  0.1631
63097SOL    HW196406   1.072   8.945   3.174  0.0688 -1.2746 -1.1119
63097SOL    HW296407   0.931   8.891   3.177 -0.6958  0.6776  0.0612
63098SOL     OW96408  11.161  12.106  11.553  0.3189 -0.5057 -0.4941
63098SOL    HW196409  11.212  12.181  11.583 -0.1161 -0.5943  0.5036
63098SOL    HW296410  11.214  12.067  11.483  1.6170 -0.5690  0.4933
63099SOL     OW96411   0.343   9.681   2.579 -0.1017  0.2393  1.1771
63099SOL    HW196412   0.348   9.599   2.529  0.1261  0.6102  0.5757
63099SOL    HW296413   0.290   9.738   2.523  0.1173  0.6452  1.3873
63100SOL     OW96414   5.852  11.308   7.197 -0.0416 -0.0830  0.0294
63100SOL    HW196415   5.862  11.220   7.159  0.0807  0.7467 -1.9676
63100SOL    HW296416   5.759  11.328   7.187  0.1046  0.3890 -0.3613
63101SOL     OW96417   2.934  12.356   3.243  0.1962 -0.3309 -0.7295
63101SOL    HW196418   2.971  12.409   3.314 -1.3915  0.3805 -0.3838
63101SOL    HW296419   2.895  12.420   3.183 -0.0525 -1.0082 -1.3092
63102SOL     OW96420  12.920  11.740   3.993  0.0258 -0.0617  0.0307
63102SOL    HW196421  12.922  11.736   4.089 -0.3524  0.5714  0.0721
63102SOL    HW296422  12.869  11.662   3.967 -0.9500  0.4266  0.4140
63103SOL     OW96423   4.366   2.890   8.791 -0.0383  0.6431 -0.1707
63103SOL    HW196424   4.287   2.857   8.835  0.4843 -1.1353 -0.4826
63103SOL    HW296425   4.335   2.965   8.740 -1.9178 -0.9570 -1.5450
63104SOL     OW96426   8.680   9.900   5.174  0.9695  0.7625  0.1022
63104SOL    HW196427   8.615   9.894   5.105 -1.4949 -0.0023  2.3241
63104SOL    HW296428   8.761   9.869   5.134 -0.2091  0.8590 -2.5352
63105SOL     OW96429  11.611   9.512   1.808 -0.1863  0.1554  0.3174
63105SOL    HW196430  11.610   9.418   1.789 -1.9566  0.3440 -0.6941
63105SOL    HW296431  11.624   9.554   1.724 -2.4315  0.8628  0.2619
63106SOL     OW96432   9.037  10.503   3.479  0.5504 -0.3982  0.2598
63106SOL    HW196433   9.106  10.466   3.534  1.9418  1.5029 -0.0981
63106SOL    HW296434   9.058  10.472   3.391  1.0343  0.2551  0.1366
63107SOL     OW96435   1.830   5.711   4.823 -0.3866  0.5685 -0.7851
63107SOL    HW196436   1.828   5.616   4.831 -0.5619  0.6351  0.0500
63107SOL    HW296437   1.779   5.730   4.744  0.6071 -0.0922 -1.5967
63108SOL     OW96438   1.022  11.329   0.443 -0.2458  0.0218  0.1332
63108SOL    HW196439   0.980  11.326   0.357  1.8262  0.7184 -0.9569
63108SOL    HW296440   1.111  11.299   0.428  0.2782  0.5122  1.9850
63109SOL     OW96441   6.641  11.928   9.920  0.4000 -0.0921  0.0574
63109SOL    HW196442   6.649  11.846   9.970  1.3204 -1.0553 -1.5800
63109SOL    HW296443   6.690  11.992   9.971  1.0021 -0.9544  0.5850
63110SOL     OW96444   8.786  11.898   7.744  0.1217 -0.1309 -0.5421
63110SOL    HW196445   8.698  11.888   7.707 -0.9785  0.1757  1.7766
63110SOL    HW296446   8.813  11.986   7.719 -0.4388 -0.0580 -0.8988
63111SOL     OW96447   3.465  11.834   3.367  0.4911 -0.0995  0.0397
63111SOL    HW196448   3.518  11.870   3.295 -0.4838  0.0337 -0.6297
63111SOL    HW296449   3.449  11.743   3.341  3.0063 -1.1364  1.7607
63112SOL     OW96450   4.712   2.402   0.056  0.5048 -0.0110 -0.2796
63112SOL    HW196451   4.679   2.377  -0.031  1.9971  2.7013 -1.7556
63112SOL    HW296452   4.651   2.469   0.086  0.3448 -0.5054  0.5485
63113SOL     OW96453   9.883  10.606   1.088  0.6643  0.4278  0.5421
63113SOL    HW196454   9.968  10.588   1.047  0.0495  0.8256 -0.9660
63113SOL    HW296455   9.900  10.677   1.149  1.4870  0.2784  0.4960
63114SOL     OW96456   2.652   4.590  10.102  0.0187 -0.7342 -0.2438
63114SOL    HW196457   2.726   4.529  10.094 -0.8736 -1.8293 -0.4560
63114SOL    HW296458   2.604   4.558  10.179  0.3759  0.6640  0.5896
63115SOL     OW96459   3.489   5.584   2.029 -0.5275  0.4530  0.2831
63115SOL    HW196460   3.476   5.491   2.049 -0.9955  0.2313 -0.9645
63115SOL    HW296461   3.584   5.596   2.033 -0.4435 -0.1377  0.1845
63116SOL     OW96462  11.249   6.754  11.726 -0.2228 -0.0079 -0.1402
63116SOL    HW196463  11.307   6.735  11.800  0.1288  0.2278 -0.3486
63116SOL    HW296464  11.193   6.677  11.719  0.2180 -0.3414 -0.0699
63117SOL     OW96465   8.264   3.156   2.001 -0.0524 -0.1251 -0.1754
63117SOL    HW196466   8.356   3.152   1.973  0.1558  0.6365  0.3651
63117SOL    HW296467   8.240   3.064   2.017  0.6462 -0.3249 -0.2369
63118SOL     OW96468   1.626   6.230   9.990 -0.1259  0.6133 -0.0729
63118SOL    HW196469   1.673   6.301  10.034  0.6216  0.2095 -0.1961
63118SOL    HW296470   1.553   6.209  10.049  0.4932  0.5030  0.6652
63119SOL     OW96471  10.406  10.534   8.171 -0.9046  0.6755  0.1864
63119SOL    HW196472  10.411  10.467   8.103 -0.6179  0.8756  0.0084
63119SOL    HW296473  10.313  10.557   8.176 -1.0496  0.0459  0.4610
63120SOL     OW96474   8.486   4.025   0.282 -0.0845 -0.2945  0.3763
63120SOL    HW196475   8.571   4.028   0.240 -0.5663 -1.1282 -0.7246
63120SOL    HW296476   8.490   4.091   0.352  1.7611 -0.9724  0.9632
63121SOL     OW96477   2.583   2.746   8.642 -0.0593  0.2134  0.0717
63121SOL    HW196478   2.584   2.787   8.729 -0.7191  1.1531 -0.3443
63121SOL    HW296479   2.675   2.726   8.624  0.2856  1.4353  0.3531
63122SOL     OW96480  11.615   3.938   3.491  0.2231 -0.0712 -0.2947
63122SOL    HW196481  11.628   3.884   3.413 -0.6305  0.5661 -0.8883
63122SOL    HW296482  11.627   3.877   3.564 -2.4517 -1.5216 -0.9368
63123SOL     OW96483  10.439   3.940   2.997  0.5078  0.1555  0.9280
63123SOL    HW196484  10.533   3.942   2.977  0.3135 -1.2124 -0.2721
63123SOL    HW296485  10.428   3.861   3.049 -0.2666 -0.9289 -0.7813
63124SOL     OW96486   4.027  10.158   5.731 -0.1535  0.2665 -0.1425
63124SOL    HW196487   4.012  10.122   5.643 -1.7554  1.5706 -0.4587
63124SOL    HW296488   3.950  10.133   5.781  0.7441 -0.4563  0.9335
63125SOL     OW96489   2.000   7.979   7.184 -0.3429 -0.3163 -0.4825
63125SOL    HW196490   2.036   7.968   7.272 -0.7659  2.9216  0.2123
63125SOL    HW296491   2.005   7.891   7.145 -2.2774 -2.4597  3.4898
63126SOL     OW96492   0.177   7.032   4.793  0.3873  0.9492 -0.0986
63126SOL    HW196493   0.099   7.027   4.737 -0.4381  1.7289  0.9404
63126SOL    HW296494   0.154   7.096   4.861  0.9423 -0.7509  1.7689
63127SOL     OW96495   7.786  11.648   8.405 -0.4750 -0.2922 -0.3757
63127SOL    HW196496   7.825  11.594   8.336  2.6481  0.3429  0.7090
63127SOL    HW296497   7.693  11.625   8.404  0.1261 -3.2275 -2.1159
63128SOL     OW96498   3.590   1.592  12.801 -0.0301  0.6753  0.0896
63128SOL    HW196499   3.507   1.574  12.845  0.0929  1.8602  0.8392
63128SOL    HW296500   3.644   1.635  12.867  0.0709  2.7529 -1.2582
63129SOL     OW96501   1.444   8.725   1.950 -0.4110 -0.2081 -0.2193
63129SOL    HW196502   1.483   8.792   1.893 -0.2603 -0.6686 -0.6722
63129SOL    HW296503   1.393   8.774   2.014 -1.1295  0.3055 -1.1551
63130SOL     OW96504   6.440  10.943   5.056 -0.0459 -0.5006 -0.0882
63130SOL    HW196505   6.509  10.927   4.992 -0.7801 -0.6593 -0.8575
63130SOL    HW296506   6.371  10.987   5.006 -0.9143 -1.2448  0.4257
63131SOL     OW96507   3.433   2.964   8.126  0.4659 -0.1014 -0.7583
63131SOL    HW196508   3.502   2.897   8.128  0.0542 -0.5269  0.1097
63131SOL    HW296509   3.457   3.025   8.196 -0.7724 -1.0503  0.5550
63132SOL     OW96510   3.712  11.331   2.285  0.0352 -0.4571  0.9445
63132SOL    HW196511   3.660  11.406   2.311  0.0411 -0.2313  0.3346
63132SOL    HW296512   3.796  11.343   2.329  1.1777  1.5755 -1.4962
63133SOL     OW96513   4.033  10.169  11.944 -0.5602 -0.0068 -0.1268
63133SOL    HW196514   4.109  10.155  11.888 -0.7879 -1.8380 -0.0430
63133SOL    HW296515   4.070  10.184  12.031 -0.2740 -1.4853  0.0278
63134SOL     OW96516   6.369   4.798  10.854  0.6464 -0.0424  0.3063
63134SOL    HW196517   6.395   4.740  10.926  2.5917 -0.5480 -0.7081
63134SOL    HW296518   6.452   4.835  10.822 -0.1916  0.5245 -1.3591
63135SOL     OW96519   1.478   5.269   3.200 -0.5706 -0.0264  0.3908
63135SOL    HW196520   1.547   5.248   3.263 -1.9779 -0.3089  1.9063
63135SOL    HW296521   1.416   5.195   3.206 -0.7631 -0.0480 -1.3217
63136SOL     OW96522  12.574   3.661   5.602  0.0665 -0.7038  0.5151
63136SOL    HW196523  12.502   3.604   5.630 -1.7422  0.9539 -0.4790
63136SOL    HW296524  12.576   3.731   5.667  0.7449 -0.6753  0.4740
63137SOL     OW96525  12.199  10.269   5.445  0.0002  0.0195  0.0563
63137SOL    HW196526  12.179  10.253   5.538  0.0784 -0.0704  0.0579
63137SOL    HW296527  12.151  10.349   5.424 -0.1604 -0.0585  0.1270
63138SOL     OW96528   0.866   5.243   1.259  0.2487 -0.0071 -0.0136
63138SOL    HW196529   0.961   5.239   1.273  0.0459 -2.1431  1.2177
63138SOL    HW296530   0.830   5.182   1.323 -1.9556  0.5866 -0.6113
63139SOL     OW96531   1.485   3.668   7.007 -0.1313  0.6775  0.0036
63139SOL    HW196532   1.444   3.678   6.921 -1.4085  0.6987  0.5899
63139SOL    HW296533   1.565   3.620   6.990 -0.9672 -0.4041 -1.0587
63140SOL     OW96534  10.041  12.217   9.095  0.0848  0.1628  0.0277
63140SOL    HW196535  10.009  12.305   9.076 -0.8443 -0.2143 -0.2172
63140SOL    HW296536   9.967  12.172   9.136  0.8210 -0.2480  0.9606
63141SOL     OW96537   1.362   2.296  11.729 -0.0755 -0.2774 -0.3694
63141SOL    HW196538   1.357   2.242  11.650  0.3230 -1.8244  0.6331
63141SOL    HW296539   1.284   2.274  11.779 -0.8183  1.3948 -0.7029
63142SOL     OW96540  10.965   9.101  12.718 -0.1980  0.3885 -0.2595
63142SOL    HW196541  10.976   9.149  12.800  0.3579 -0.4225  0.1539
63142SOL    HW296542  11.042   9.044  12.713  0.6074  1.5359 -2.1318
63143SOL     OW96543   2.188   9.166  12.516  0.4366 -0.6937 -0.4379
63143SOL    HW196544   2.191   9.113  12.596 -2.5309  0.0086  0.2743
63143SOL    HW296545   2.204   9.256  12.546 -3.2458 -0.0200 -0.0033
63144SOL     OW96546   4.309   1.150   5.368 -0.0651  0.7665 -0.0746
63144SOL    HW196547   4.336   1.123   5.456 -0.2468  1.5257  0.2246
63144SOL    HW296548   4.391   1.172   5.323  0.0499  0.1173 -0.1904
63145SOL     OW96549   7.490   6.158   6.921 -0.4498  0.8577  0.0415
63145SOL    HW196550   7.463   6.081   6.872 -0.0221  1.5847 -1.4104
63145SOL    HW296551   7.538   6.124   6.997 -0.2560 -0.2960 -0.5847
63146SOL     OW96552  12.750   5.165   2.235 -0.2619  0.1644 -0.0858
63146SOL    HW196553  12.688   5.226   2.195 -1.5695  0.3380  2.0209
63146SOL    HW296554  12.697   5.116   2.299  1.3582 -1.1542  0.3003
63147SOL     OW96555   5.278   0.523  11.992 -0.1250 -0.1853  0.3281
63147SOL    HW196556   5.268   0.617  12.007 -0.3372 -0.3569  1.3183
63147SOL    HW296557   5.241   0.509  11.905 -0.3132  0.6123  0.2714
63148SOL     OW96558   9.100   8.371  11.247  0.1609  0.0651 -0.4577
63148SOL    HW196559   9.139   8.292  11.286  0.4255  0.1494 -0.5498
63148SOL    HW296560   9.043   8.406  11.315  0.6629  0.2426 -0.1275
63149SOL     OW96561   9.809   5.973   9.565  0.0164 -0.3235 -0.0146
63149SOL    HW196562   9.731   5.999   9.615 -1.1512 -2.0199 -0.8417
63149SOL    HW296563   9.881   6.020   9.607 -1.2096  0.0130  1.8498
63150SOL     OW96564   5.617   6.864  10.165 -0.3498 -0.2401  0.0333
63150SOL    HW196565   5.655   6.917  10.235  1.4115 -1.0749 -0.2232
63150SOL    HW296566   5.654   6.777  10.179  0.0400 -0.4350 -1.9215
63151SOL     OW96567  11.514   0.858   6.183  0.4710 -0.0188  0.0003
63151SOL    HW196568  11.430   0.902   6.171  0.6723  0.4573  0.2843
63151SOL    HW296569  11.498   0.767   6.160 -0.3303 -0.1032  0.8525
63152SOL     OW96570   6.324   2.369   9.537  0.5312 -0.3884 -0.0701
63152SOL    HW196571   6.321   2.335   9.626  1.8175  0.5287  0.3578
63152SOL    HW296572   6.313   2.464   9.547  0.1795 -0.3295 -0.9319
63153SOL     OW96573   0.763   9.281   6.991  0.0664 -0.3431  0.1456
63153SOL    HW196574   0.793   9.368   7.017  0.8274 -0.4864 -0.2391
63153SOL    HW296575   0.670   9.280   7.015  0.5116 -0.1640  2.1019
63154SOL     OW96576   1.054  11.362   1.475  0.1488  0.1707 -0.4171
63154SOL    HW196577   1.031  11.428   1.540  1.8679  0.1510  0.2638
63154SOL    HW296578   1.059  11.280   1.523 -1.2298 -0.3539 -1.1201
63155SOL     OW96579   2.563  10.799   1.556 -0.0622 -0.2413 -0.0387
63155SOL    HW196580   2.535  10.871   1.498  0.1587 -0.2980 -0.2197
63155SOL    HW296581   2.623  10.841   1.618  0.0844 -0.2710 -0.1582
63156SOL     OW96582   6.088   3.152   3.876  0.5107 -0.6381  0.3482
63156SOL    HW196583   5.995   3.172   3.881  0.6929  0.0338  1.4529
63156SOL    HW296584   6.099   3.108   3.791 -0.9190 -1.4144  0.5362
63157SOL     OW96585   9.360   2.470   3.435 -0.2143  0.0537  0.3936
63157SOL    HW196586   9.286   2.528   3.419 -1.6700 -1.4265  1.3622
63157SOL    HW296587   9.324   2.399   3.489  1.9569 -0.6424  1.0549
63158SOL     OW96588   5.358   3.703   7.694 -0.0193 -0.7227 -0.9732
63158SOL    HW196589   5.345   3.608   7.687  0.8001 -0.8011 -1.6316
63158SOL    HW296590   5.299   3.731   7.764 -2.1038 -1.3478 -2.3832
63159SOL     OW96591   9.380  11.775   3.230  0.5132  0.3344 -0.5363
63159SOL    HW196592   9.392  11.843   3.163  0.4873 -0.1601 -1.0540
63159SOL    HW296593   9.297  11.734   3.207 -0.8551  1.8572  1.3430
63160SOL     OW96594   6.149  12.963   8.186 -0.1587  0.0710 -0.0107
63160SOL    HW196595   6.195  13.033   8.141  0.1003 -0.2349 -0.2311
63160SOL    HW296596   6.066  12.955   8.139 -0.8543  1.2468  0.9660
63161SOL     OW96597   8.742   4.288   5.594  0.2218 -0.3589 -0.8925
63161SOL    HW196598   8.661   4.336   5.611  1.0266  1.2688 -1.4390
63161SOL    HW296599   8.753   4.292   5.499  0.8025 -0.7973 -0.8484
63162SOL     OW96600   2.664  12.602   3.373  0.4193  0.2577 -0.0498
63162SOL    HW196601   2.641  12.647   3.454  1.0874  0.8837 -0.1957
63162SOL    HW296602   2.681  12.512   3.400 -0.7922  0.1068  0.2668
63163SOL     OW96603   2.992   2.864   5.606 -0.0319  0.6141 -0.2437
63163SOL    HW196604   2.920   2.844   5.547 -0.1756  0.2553  0.0500
63163SOL    HW296605   2.972   2.951   5.640 -0.8113  0.1347  0.5480
63164SOL     OW96606   5.666   6.447  11.986  0.2384 -0.1124 -0.3217
63164SOL    HW196607   5.693   6.422  11.897 -0.4016 -0.4254 -0.4350
63164SOL    HW296608   5.728   6.515  12.011  1.3534 -1.0472 -0.4285
63165SOL     OW96609   5.466  11.297  12.527 -0.5365 -0.1993  0.2571
63165SOL    HW196610   5.428  11.382  12.506  1.0001  0.2209 -1.0511
63165SOL    HW296611   5.399  11.233  12.504 -1.1531  0.5991 -0.1831
63166SOL     OW96612   7.888   8.236   6.941  0.6545 -0.0037  0.1728
63166SOL    HW196613   7.880   8.169   6.874 -0.9174  0.9647 -0.6796
63166SOL    HW296614   7.815   8.219   7.001 -0.2036  1.3323 -0.4498
63167SOL     OW96615   8.746   3.814   6.627  0.6615 -0.2351  0.2682
63167SOL    HW196616   8.697   3.844   6.704  2.1006  0.2265  1.0279
63167SOL    HW296617   8.688   3.835   6.554  0.4487  1.9765  0.9848
63168SOL     OW96618  12.092   6.341  11.431  0.3578 -0.4979  0.6344
63168SOL    HW196619  12.044   6.297  11.361  0.0430 -0.7037  0.9842
63168SOL    HW296620  12.025   6.374  11.490  0.4404  2.1659 -0.5993
63169SOL     OW96621   7.925   0.918   4.435 -0.0905  0.3220  0.1105
63169SOL    HW196622   7.948   0.980   4.504  2.2195 -1.1404  0.7492
63169SOL    HW296623   7.900   0.838   4.482 -0.1234 -0.1634 -0.7209
63170SOL     OW96624   9.732   7.875  10.255  0.1703 -0.2551  0.7419
63170SOL    HW196625   9.641   7.890  10.279 -0.2020  0.6092 -1.0538
63170SOL    HW296626   9.754   7.791  10.294 -1.1413 -0.1025  1.8775
63171SOL     OW96627   9.181   7.807   2.786  0.1373 -0.3513 -0.0566
63171SOL    HW196628   9.250   7.816   2.852 -1.0440  1.9757  0.9791
63171SOL    HW296629   9.187   7.886   2.733 -0.7407 -0.8452 -0.9347
63172SOL     OW96630   6.267  10.514   3.535  0.2848 -0.3576 -0.4263
63172SOL    HW196631   6.190  10.458   3.529  0.3832 -0.6083  0.5835
63172SOL    HW296632   6.313  10.484   3.613  0.3602  1.1086  0.1181
63173SOL     OW96633   6.328  11.908  12.754  0.5487 -0.1304 -0.4942
63173SOL    HW196634   6.240  11.899  12.718 -0.0958 -1.5441  1.2551
63173SOL    HW296635   6.314  11.910  12.849  2.5078 -2.7775 -0.0471
63174SOL     OW96636   7.222   7.269  11.111 -0.3103  0.1449  0.2377
63174SOL    HW196637   7.286   7.334  11.081 -1.0523  1.0086  0.4918
63174SOL    HW296638   7.266   7.225  11.184 -0.2773  1.2337  0.8889
63175SOL     OW96639   1.793   6.969  11.015 -0.1133 -0.0611  0.1294
63175SOL    HW196640   1.703   6.963  11.046 -0.5373 -1.3483 -1.2431
63175SOL    HW296641   1.799   6.903  10.946  1.2036  1.5771 -1.4347
63176SOL     OW96642   5.735  11.106   8.161  0.6455 -0.3795 -0.0484
63176SOL    HW196643   5.736  11.162   8.083  2.2446 -0.8903 -0.4266
63176SOL    HW296644   5.755  11.166   8.233 -1.2085  0.1656  0.0727
63177SOL     OW96645   8.451   9.882  12.625  0.1842 -0.3002 -0.4751
63177SOL    HW196646   8.456   9.960  12.681 -2.4451 -0.1499 -0.3266
63177SOL    HW296647   8.539   9.873  12.589  0.7186  2.4254 -0.0752
63178SOL     OW96648   5.491  10.096   6.044 -0.1632  0.0850 -0.1611
63178SOL    HW196649   5.498  10.087   6.140 -0.7273 -1.6260 -0.2487
63178SOL    HW296650   5.432  10.170   6.031 -2.1863 -1.2364  0.8900
63179SOL     OW96651   1.483   3.634   6.711 -0.1870  0.0672 -0.4170
63179SOL    HW196652   1.427   3.565   6.747 -0.0180  0.5062  0.7525
63179SOL    HW296653   1.464   3.635   6.617 -1.0035 -0.8198 -0.2728
63180SOL     OW96654  12.612   1.792   8.534  0.3433 -0.4410 -0.3249
63180SOL    HW196655  12.681   1.776   8.470  0.3764  0.7369 -0.5992
63180SOL    HW296656  12.639   1.871   8.580  0.4825 -1.4413  1.3974
63181SOL     OW96657  12.349  12.324   7.585  0.4772  0.4391  0.0762
63181SOL    HW196658  12.292  12.313   7.662  0.7109 -0.1082  0.1766
63181SOL    HW296659  12.432  12.282   7.610  0.0025 -1.3209 -1.0849
63182SOL     OW96660   5.057   9.989   6.780  0.0796 -0.2463 -0.0238
63182SOL    HW196661   5.127  10.000   6.715  1.9581 -1.2040  1.7336
63182SOL    HW296662   5.006   9.914   6.747  0.6612 -0.3561 -0.6925
63183SOL     OW96663  12.543   8.533  10.227 -0.1128  0.5099  0.9125
63183SOL    HW196664  12.607   8.583  10.278 -0.0022  0.5139  0.7687
63183SOL    HW296665  12.560   8.442  10.251  0.5886  0.4326  0.1442
63184SOL     OW96666   3.483  11.512   0.319 -0.5429  0.0966  0.6575
63184SOL    HW196667   3.429  11.457   0.375 -0.9963  0.0223  0.1497
63184SOL    HW296668   3.513  11.454   0.249  1.9040 -0.4272  1.9885
63185SOL     OW96669   4.601  12.922  11.911  0.4605 -0.7169 -0.5036
63185SOL    HW196670   4.584  12.849  11.850 -1.1139 -0.3870 -0.5022
63185SOL    HW296671   4.515  12.962  11.924  0.9577 -0.1195  1.1212
63186SOL     OW96672   6.445   3.803   6.381  0.0904  0.2497 -0.3912
63186SOL    HW196673   6.377   3.769   6.322 -0.1642  0.1885 -0.0639
63186SOL    HW296674   6.523   3.809   6.326  0.3123 -1.4318 -0.3103
63187SOL     OW96675   7.239  10.857   1.293  0.4153  0.0717 -0.1579
63187SOL    HW196676   7.275  10.868   1.205 -0.8858 -1.6286 -0.9571
63187SOL    HW296677   7.290  10.786   1.332  0.4338  0.2558  0.1611
63188SOL     OW96678  10.807   9.845   8.315 -0.3506 -0.0942 -0.1552
63188SOL    HW196679  10.851   9.860   8.398 -0.7659  1.1212 -0.1393
63188SOL    HW296680  10.748   9.920   8.305 -3.0702 -2.0241  0.2508
63189SOL     OW96681   3.003   1.625   9.772 -0.2272  0.0182 -0.1515
63189SOL    HW196682   3.054   1.568   9.716 -0.6475 -1.2554  0.7070
63189SOL    HW296683   2.949   1.676   9.712 -0.3920 -1.0313 -0.9247
63190SOL     OW96684   4.076   9.263  12.724 -0.1325 -0.2686  0.3705
63190SOL    HW196685   4.098   9.292  12.812  0.2298 -0.6638  0.4150
63190SOL    HW296686   4.108   9.173  12.719 -0.2422 -0.2869 -0.1288
63191SOL     OW96687   6.183   1.570   4.523  0.5025 -0.1431 -0.2199
63191SOL    HW196688   6.232   1.526   4.592  0.8437 -0.1409 -0.4576
63191SOL    HW296689   6.123   1.629   4.569  0.4472 -0.4346  0.0828
63192SOL     OW96690   3.264  10.045   1.223 -0.3405  0.3001 -0.6520
63192SOL    HW196691   3.244   9.962   1.266  0.9855  0.8609  1.1603
63192SOL    HW296692   3.179  10.090   1.217 -0.8976 -0.7371 -0.6784
63193SOL     OW96693   7.705  10.699   2.169  0.2951 -0.1354 -0.0941
63193SOL    HW196694   7.697  10.713   2.075  0.7508  0.8782 -0.0006
63193SOL    HW296695   7.624  10.657   2.195  0.5983 -1.3860 -1.1091
63194SOL     OW96696   3.687   1.226   2.219 -0.1616 -0.1708  0.1386
63194SOL    HW196697   3.664   1.318   2.203 -1.3208  0.0556  2.5305
63194SOL    HW296698   3.718   1.194   2.135  0.1849  2.3783 -0.8108
63195SOL     OW96699   4.583   4.566   2.114  0.1538 -0.2151  0.1846
63195SOL    HW196700   4.677   4.579   2.125  0.2742 -0.6705 -0.2953
63195SOL    HW296701   4.547   4.576   2.203  0.6661 -0.1825  0.3912
63196SOL     OW96702   4.088   1.538   8.834  0.0235 -0.1890 -1.0194
63196SOL    HW196703   4.149   1.507   8.899 -1.6809 -0.2478  0.6396
63196SOL    HW296704   4.048   1.459   8.797 -0.1582 -0.1160 -0.9819
63197SOL     OW96705   4.019   1.416   4.061  0.1517  0.4692 -0.0519
63197SOL    HW196706   4.020   1.443   4.152  0.6313 -0.0565  0.1066
63197SOL    HW296707   4.023   1.321   4.064  2.7333  0.4941 -0.6235
63198SOL     OW96708   9.266   7.328   3.963  0.0545 -0.0497  0.3393
63198SOL    HW196709   9.216   7.317   3.882 -0.1068 -1.5296  0.6173
63198SOL    HW296710   9.285   7.239   3.992  2.1281  0.4625  0.7011
63199SOL     OW96711   0.794   3.819  11.916  0.1186 -0.0654  0.1488
63199SOL    HW196712   0.885   3.833  11.893 -0.0536  0.8773  0.0034
63199SOL    HW296713   0.794   3.739  11.969  0.9950 -0.1798 -0.0231
63200SOL     OW96714   5.723   4.972   8.613  0.1083 -0.2321 -0.4677
63200SOL    HW196715   5.720   4.877   8.607 -1.0472 -0.1817 -0.8086
63200SOL    HW296716   5.673   5.003   8.537 -0.3981  0.6324  0.2031
63201SOL     OW96717  12.078   3.207   7.111  0.0544  0.1929 -0.3632
63201SOL    HW196718  12.075   3.265   7.036  0.9406  0.4509 -0.2179
63201SOL    HW296719  12.150   3.241   7.165 -0.4990 -0.0348  0.5571
63202SOL     OW96720   4.258   0.208   4.303 -0.4795 -0.5579 -0.4866
63202SOL    HW196721   4.348   0.239   4.317 -1.3731  2.0898 -0.0588
63202SOL    HW296722   4.239   0.157   4.382  0.1192  0.2464  0.2039
63203SOL     OW96723   6.432   5.188   9.213 -0.1735 -0.5134  0.4024
63203SOL    HW196724   6.390   5.102   9.219 -0.2803 -0.5119 -0.2256
63203SOL    HW296725   6.511   5.180   9.266 -1.2287 -0.3435  2.1130
63204SOL     OW96726  11.247   7.860   4.029 -0.2036  0.0130  0.1276
63204SOL    HW196727  11.265   7.924   3.960  0.4815  0.0586  0.3385
63204SOL    HW296728  11.249   7.912   4.110  0.4055 -0.2796  0.3040
63205SOL     OW96729   5.220   4.604  10.096 -0.2309  0.9847 -0.5640
63205SOL    HW196730   5.149   4.605  10.031  1.4711  2.1747 -2.4986
63205SOL    HW296731   5.236   4.510  10.111 -2.4052  0.6705  0.2312
63206SOL     OW96732   7.056   1.123   0.132 -0.1704 -0.3702 -0.3943
63206SOL    HW196733   6.990   1.082   0.077 -0.6728  2.2473 -1.9308
63206SOL    HW296734   7.097   1.051   0.180 -4.4413 -2.1235  1.0685
63207SOL     OW96735  12.648   9.969  11.706  0.4497 -0.0029  0.1591
63207SOL    HW196736  12.650   9.886  11.753  0.9349  0.5281  1.1088
63207SOL    HW296737  12.555   9.993  11.704  0.3089 -0.5507 -0.1129
63208SOL     OW96738   7.560   6.578   3.933 -0.3160 -0.4831  0.0564
63208SOL    HW196739   7.530   6.496   3.971  1.2636  0.2897  3.2854
63208SOL    HW296740   7.594   6.554   3.847 -2.6689 -2.6185 -0.3881
63209SOL     OW96741   9.473   4.331   5.429  0.0237 -0.2676 -0.2719
63209SOL    HW196742   9.548   4.272   5.433 -0.0286 -0.2745  2.1242
63209SOL    HW296743   9.454   4.340   5.336  1.2272 -2.4922 -0.7917
63210SOL     OW96744   6.892   0.803  11.184  0.0254 -0.4223  0.0942
63210SOL    HW196745   6.936   0.855  11.252  1.1780 -1.4331  0.1620
63210SOL    HW296746   6.963   0.752  11.144 -1.0276 -1.7454 -0.1408
63211SOL     OW96747  12.434  12.076   9.011 -0.1442  0.3370 -0.5062
63211SOL    HW196748  12.373  12.061   8.939 -0.8003 -0.5543  0.2098
63211SOL    HW296749  12.382  12.119   9.079  0.6653  1.9001 -0.8334
63212SOL     OW96750   2.342   9.994   4.476 -0.0228 -0.5773  0.1858
63212SOL    HW196751   2.433  10.009   4.448 -0.2085  0.5940  0.1535
63212SOL    HW296752   2.350   9.961   4.565  0.4827 -1.9978 -0.3610
63213SOL     OW96753   8.839   2.360  12.012 -0.4148 -0.1505 -0.3442
63213SOL    HW196754   8.834   2.347  12.106 -0.5020 -1.0807 -0.4678
63213SOL    HW296755   8.765   2.311  11.976 -0.3754  0.1794 -0.8954
63214SOL     OW96756   6.351   6.734   6.473 -0.6203 -0.2527  0.2391
63214SOL    HW196757   6.444   6.713   6.465 -1.1385 -2.8065  0.0571
63214SOL    HW296758   6.318   6.728   6.384 -1.4079 -1.9619  0.6168
63215SOL     OW96759   4.912   2.006   6.756  0.0485 -0.3612 -0.0956
63215SOL    HW196760   4.851   2.065   6.800  0.8769  1.2975 -1.0941
63215SOL    HW296761   4.859   1.929   6.735 -1.0413 -0.0420  1.2835
63216SOL     OW96762   0.826   5.762  11.225  0.5015 -0.1168 -0.3752
63216SOL    HW196763   0.804   5.732  11.314 -0.4290 -1.1831 -0.9405
63216SOL    HW296764   0.751   5.813  11.197  1.3158  1.2803 -0.1188
63217SOL     OW96765   1.354   8.861   7.939  0.0845  0.2607 -0.5856
63217SOL    HW196766   1.383   8.795   8.002 -0.8794 -0.6246 -1.0121
63217SOL    HW296767   1.301   8.811   7.876  1.4963  0.9964 -2.4482
63218SOL     OW96768  10.533  10.407   4.735  0.1900  0.3904 -0.0985
63218SOL    HW196769  10.549  10.316   4.712  2.9425  1.2830 -2.1807
63218SOL    HW296770  10.459  10.403   4.796  1.0741 -3.3180  1.0039
63219SOL     OW96771   9.399   1.786   0.080 -0.4792  0.4485 -0.4283
63219SOL    HW196772   9.408   1.872   0.040 -0.2477 -0.0302 -1.4328
63219SOL    HW296773   9.341   1.738   0.021 -0.6444 -0.0779  0.1438
63220SOL     OW96774   3.378  10.504   8.656 -0.3270 -0.0706  0.1064
63220SOL    HW196775   3.367  10.462   8.741  0.2905 -0.4504  0.0074
63220SOL    HW296776   3.452  10.458   8.616  0.2265  0.9513 -0.0987
63221SOL     OW96777   9.406   0.136   8.447 -0.4430  0.3746 -0.2329
63221SOL    HW196778   9.330   0.100   8.493 -1.3479  1.7877 -0.5512
63221SOL    HW296779   9.385   0.124   8.354 -0.3966  0.9448 -0.3246
63222SOL     OW96780   2.351   8.763   5.826 -0.3528 -0.0172  0.6742
63222SOL    HW196781   2.347   8.693   5.892  1.5516 -1.7567 -0.8837
63222SOL    HW296782   2.433   8.809   5.846  0.2695 -0.5927 -0.4171
63223SOL     OW96783   9.114   7.828   4.521  0.5942  0.8986 -0.1885
63223SOL    HW196784   9.166   7.908   4.517  1.9805  0.0879  0.6243
63223SOL    HW296785   9.075   7.829   4.609 -2.0053  2.1846 -1.2550
63224SOL     OW96786   6.779   9.214   0.018  0.6894 -0.3221 -0.1610
63224SOL    HW196787   6.709   9.237   0.078  1.1060  0.7191 -0.0574
63224SOL    HW296788   6.769   9.120   0.004 -2.0792  0.1146 -1.8489
63225SOL     OW96789  11.573  12.612  12.555 -0.0264  0.8813 -0.3976
63225SOL    HW196790  11.594  12.527  12.593  0.1646  0.6645 -0.9750
63225SOL    HW296791  11.621  12.614  12.472 -0.3468  1.3859 -0.5783
63226SOL     OW96792   0.612   1.635   5.849 -0.0781  0.2834  0.2948
63226SOL    HW196793   0.595   1.721   5.810 -0.5414  0.0401 -0.0487
63226SOL    HW296794   0.564   1.574   5.793 -0.3009 -0.1285  0.9376
63227SOL     OW96795   1.667  11.767   3.948 -0.0904  0.0025  0.2040
63227SOL    HW196796   1.613  11.748   4.025 -1.3325  0.5135 -0.5066
63227SOL    HW296797   1.651  11.693   3.889  1.0131 -0.4882  0.4943
63228SOL     OW96798   5.030   4.260   1.140  0.3016  0.2328 -0.0833
63228SOL    HW196799   4.982   4.339   1.165 -0.3477  0.3606 -1.6360
63228SOL    HW296800   4.978   4.221   1.070  1.2999 -0.8593 -0.2482
63229SOL     OW96801  10.845  10.614   5.566  0.5739 -0.2004 -0.2054
63229SOL    HW196802  10.851  10.582   5.476  1.2750 -0.4255 -0.0831
63229SOL    HW296803  10.811  10.539   5.615 -1.1828  0.3507 -0.4996
63230SOL     OW96804   6.601   2.676   6.662 -0.1721  0.0582 -0.4004
63230SOL    HW196805   6.572   2.683   6.571  1.5254  0.0098 -0.9906
63230SOL    HW296806   6.687   2.633   6.656 -0.5472 -1.0140  1.3284
63231SOL     OW96807  12.910   0.412   9.481  0.0162 -0.2266 -0.0001
63231SOL    HW196808  12.873   0.476   9.542  0.4513 -0.8299  0.9121
63231SOL    HW296809  12.930   0.336   9.535 -0.0577 -0.9707 -0.9871
63232SOL     OW96810   2.957   9.924   0.859 -0.0683  0.6016  0.0720
63232SOL    HW196811   2.915   9.853   0.810 -0.5258  0.5593  0.5160
63232SOL    HW296812   2.884   9.975   0.893  0.1666 -0.2886  2.0693
63233SOL     OW96813  11.924   3.350   1.491  0.4312 -0.3037 -0.6182
63233SOL    HW196814  11.944   3.421   1.430  0.2127 -0.8492 -1.3409
63233SOL    HW296815  11.834   3.324   1.468  0.0720 -0.0385  0.4200
63234SOL     OW96816   7.347   7.437   4.027 -0.1102  0.5895 -0.1092
63234SOL    HW196817   7.361   7.532   4.018 -0.6445  0.6945  0.1228
63234SOL    HW296818   7.408   7.398   3.964 -0.9506  1.1386 -1.3063
63235SOL     OW96819   8.934  11.054   4.682  0.0069  0.0318  0.1315
63235SOL    HW196820   8.880  11.018   4.611  0.8085 -1.2312  0.1434
63235SOL    HW296821   9.020  11.067   4.642  0.9689 -2.3634  1.2947
63236SOL     OW96822   1.280   6.321   6.839 -0.2682  0.4820 -0.3899
63236SOL    HW196823   1.224   6.307   6.763 -1.3073  0.3576  0.3729
63236SOL    HW296824   1.236   6.390   6.889 -1.1282 -1.3193  1.4894
63237SOL     OW96825   9.145   4.221   5.400 -0.2292  0.2732 -0.1310
63237SOL    HW196826   9.195   4.149   5.437 -0.2514 -0.5074 -1.5286
63237SOL    HW296827   9.171   4.298   5.450  0.1765 -0.6163  1.0589
63238SOL     OW96828   3.846   2.736   0.995  0.1846 -0.6246  0.2264
63238SOL    HW196829   3.830   2.826   0.966  2.4955 -0.6980 -1.5685
63238SOL    HW296830   3.822   2.736   1.087 -3.8118  0.6864 -0.6493
63239SOL     OW96831   9.229   3.079  12.615  0.0659 -0.5407  0.6445
63239SOL    HW196832   9.150   3.129  12.598 -0.5653 -1.7288 -0.0797
63239SOL    HW296833   9.224   3.004  12.555  2.2211 -0.1397 -0.1427
63240SOL     OW96834  12.860   7.664   7.334  0.5605  0.0235  0.5264
63240SOL    HW196835  12.870   7.692   7.243  2.3547 -0.9728  0.3651
63240SOL    HW296836  12.772   7.628   7.339  0.4770  0.0116 -0.8522
63241SOL     OW96837   4.924   9.741   5.790  0.2680  0.1262 -0.1854
63241SOL    HW196838   4.854   9.787   5.743  1.7446  0.4379 -2.2067
63241SOL    HW296839   5.004   9.788   5.766  1.5948 -2.2681 -0.7080
63242SOL     OW96840  10.024   9.531  10.744  0.8248  0.4149 -0.1919
63242SOL    HW196841  10.050   9.551  10.654 -2.4005  0.9316 -1.1522
63242SOL    HW296842   9.999   9.439  10.742  2.2596 -0.0241  0.6468
63243SOL     OW96843   8.936   7.341  12.671 -0.4854 -0.7069 -0.4021
63243SOL    HW196844   9.026   7.355  12.699 -1.0848 -0.9214  1.7897
63243SOL    HW296845   8.943   7.318  12.578  1.7019 -0.7723 -0.2645
63244SOL     OW96846  10.464   3.251  10.889  0.6071 -0.5910 -0.1003
63244SOL    HW196847  10.509   3.336  10.889 -1.0969  0.3907 -1.9281
63244SOL    HW296848  10.446   3.234  10.981  0.2783  1.4461  0.2611
63245SOL     OW96849   9.747   2.288   1.262  0.2437  0.0551 -0.8472
63245SOL    HW196850   9.725   2.281   1.169 -0.9839 -1.2330 -0.4897
63245SOL    HW296851   9.701   2.366   1.292  2.6331  1.9493 -1.8087
63246SOL     OW96852   3.021   3.573   5.077 -0.6735  0.2837  0.2273
63246SOL    HW196853   3.088   3.561   5.010 -0.2194  1.0146  0.5285
63246SOL    HW296854   2.941   3.593   5.028 -0.9785 -1.7722 -0.1821
63247SOL     OW96855   0.982  10.707  11.017  0.2128  0.2885 -0.0532
63247SOL    HW196856   1.072  10.677  11.004  0.4797  1.1135 -0.2184
63247SOL    HW296857   0.990  10.781  11.077 -0.2938  0.7075 -0.4862
63248SOL     OW96858   1.390  10.732  11.268  0.4121 -0.3896  0.4215
63248SOL    HW196859   1.385  10.827  11.279  2.3514 -0.2104  0.1685
63248SOL    HW296860   1.357  10.697  11.351 -1.2076  0.4390  0.1783
63249SOL     OW96861  11.127   5.907   2.723 -0.0348  0.1042 -0.3230
63249SOL    HW196862  11.076   5.888   2.644 -0.1106 -3.0901  0.3678
63249SOL    HW296863  11.127   5.825   2.771 -0.1355  1.9630  3.1390
63250SOL     OW96864   2.159   9.544   8.665 -0.4218 -0.2680  0.0748
63250SOL    HW196865   2.105   9.470   8.693  0.4854 -0.6349  0.8979
63250SOL    HW296866   2.197   9.516   8.581  0.2706 -0.9291  0.5966
63251SOL     OW96867   8.789   7.565   7.878 -0.2268  0.0650 -0.3177
63251SOL    HW196868   8.880   7.592   7.867  0.2092 -1.0236  0.4334
63251SOL    HW296869   8.795   7.480   7.922 -1.5953 -0.2471 -0.7123
63252SOL     OW96870   0.017   2.999  10.464  0.5457  0.2770 -0.7476
63252SOL    HW196871   0.005   2.913  10.502  0.6382 -0.5781 -2.5435
63252SOL    HW296872   0.110   3.017  10.472  0.3341  0.8627  0.8583
63253SOL     OW96873  10.955   7.507   5.624 -0.1886  0.2332  0.1925
63253SOL    HW196874  10.861   7.507   5.644  0.0074 -0.9016  1.2351
63253SOL    HW296875  10.981   7.598   5.630 -1.0587  0.4565  0.7369
63254SOL     OW96876  10.212   7.440   0.416  0.4049  0.0734  0.1984
63254SOL    HW196877  10.152   7.382   0.462 -0.5814 -0.8685 -2.1373
63254SOL    HW296878  10.298   7.400   0.428 -0.0495 -1.0079 -0.0725
63255SOL     OW96879   0.880   0.813  12.149 -0.2864 -0.3371 -0.1371
63255SOL    HW196880   0.824   0.755  12.097 -0.0207  0.2513 -1.1071
63255SOL    HW296881   0.819   0.877  12.186 -0.9444 -2.4279  2.8078
63256SOL     OW96882   5.743   4.091   1.326  0.0723 -0.1774  0.3505
63256SOL    HW196883   5.716   4.056   1.241 -0.4858 -1.0747  0.8708
63256SOL    HW296884   5.838   4.092   1.322  0.1387 -2.2292  0.4545
63257SOL     OW96885   2.984   1.651   8.039 -0.2279 -0.0546 -0.2367
63257SOL    HW196886   2.950   1.624   8.124 -2.0956 -0.0251 -0.9391
63257SOL    HW296887   2.970   1.746   8.037  1.1509  0.1729 -0.0250
63258SOL     OW96888   6.613  10.056  12.532 -0.0759  0.3561 -0.0931
63258SOL    HW196889   6.584   9.983  12.479 -2.6716  0.2500  1.3352
63258SOL    HW296890   6.695  10.026  12.572 -0.7337 -1.4899 -0.0767
63259SOL     OW96891   5.297   4.229  11.265 -0.2099  0.5498 -0.5335
63259SOL    HW196892   5.252   4.147  11.285  0.6849  0.5128  1.6605
63259SOL    HW296893   5.387   4.203  11.243 -0.5807  0.7959 -2.5564
63260SOL     OW96894   8.280   0.460   2.586  0.0632  0.6859  0.3198
63260SOL    HW196895   8.305   0.460   2.494 -0.5521  0.5942  0.1447
63260SOL    HW296896   8.346   0.513   2.630  0.1917  0.9802 -0.2241
63261SOL     OW96897   7.107  12.482   3.488  0.5553 -0.6832 -0.4008
63261SOL    HW196898   7.112  12.553   3.552 -0.0881 -0.1872 -0.8805
63261SOL    HW296899   7.127  12.403   3.538  1.6163 -0.1364  0.0776
63262SOL     OW96900   4.597   7.235   7.133  0.5932 -0.0456 -0.6057
63262SOL    HW196901   4.557   7.154   7.102  0.7005 -0.5694  0.5644
63262SOL    HW296902   4.691   7.219   7.129  0.6123 -0.4369  0.6907
63263SOL     OW96903   4.591   3.200   0.433 -0.1429  0.3779  0.4021
63263SOL    HW196904   4.569   3.247   0.353  0.4041  0.3638  0.2391
63263SOL    HW296905   4.541   3.118   0.427 -2.1409  1.4665  1.3122
63264SOL     OW96906   9.408   1.490   5.422  0.7945 -0.1187 -0.3964
63264SOL    HW196907   9.367   1.565   5.465  4.1059  0.3897  2.3619
63264SOL    HW296908   9.354   1.473   5.345 -2.2520  2.6752  0.8918
63265SOL     OW96909   6.805   2.327  10.141 -0.5027 -0.0973 -0.7519
63265SOL    HW196910   6.806   2.294  10.052  1.7222  1.3320 -1.3571
63265SOL    HW296911   6.867   2.272  10.188 -0.8142 -0.1341 -0.3791
63266SOL     OW96912   5.304   2.715  12.917 -0.1297  0.3685  0.1359
63266SOL    HW196913   5.308   2.645  12.982 -0.0281 -1.9689 -2.2191
63266SOL    HW296914   5.226   2.765  12.940 -1.8318 -2.2096  0.3327
63267SOL     OW96915   1.379   1.793   9.074 -0.0464  0.7216 -0.1010
63267SOL    HW196916   1.297   1.780   9.026  0.7225 -1.5358 -0.9528
63267SOL    HW296917   1.447   1.782   9.007  1.0084 -0.5956  1.1240
63268SOL     OW96918   7.076  10.812   6.886  0.1032  0.2009 -0.5730
63268SOL    HW196919   7.115  10.728   6.912  0.5867  0.1089 -1.5419
63268SOL    HW296920   6.982  10.800   6.900 -0.4470 -2.0657 -4.4869
63269SOL     OW96921  12.140   0.997   4.652  0.0826 -0.3850 -0.4062
63269SOL    HW196922  12.051   0.974   4.680 -0.0605  0.2570 -0.3293
63269SOL    HW296923  12.141   1.092   4.651  0.5579 -0.3913 -1.0988
63270SOL     OW96924   8.654   1.908   1.511 -0.6913 -0.2425 -0.2099
63270SOL    HW196925   8.676   1.991   1.467  1.5588  0.5837  2.1968
63270SOL    HW296926   8.584   1.930   1.571  0.3853  0.1609  0.9434
63271SOL     OW96927  12.630   4.741   3.323 -0.1491 -0.3803  0.5924
63271SOL    HW196928  12.593   4.686   3.254  0.7905 -2.3128  1.5338
63271SOL    HW296929  12.564   4.809   3.338 -1.2014 -1.0206 -0.8951
63272SOL     OW96930   9.220   9.813   6.821 -0.0140  0.2440  0.3451
63272SOL    HW196931   9.148   9.873   6.843 -0.1070  0.0958  0.4505
63272SOL    HW296932   9.292   9.870   6.796 -0.1972  0.3944  0.1531
63273SOL     OW96933   2.817   1.623   4.504 -0.2096  0.1726  0.1967
63273SOL    HW196934   2.776   1.563   4.442 -1.0007  1.3318 -0.4413
63273SOL    HW296935   2.864   1.686   4.449  0.1571  0.4595  0.8253
63274SOL     OW96936   0.606  12.957   8.450  0.0302  0.3617  0.3576
63274SOL    HW196937   0.593  12.914   8.535  1.2635 -1.0302 -0.1045
63274SOL    HW296938   0.525  12.940   8.402  0.3131 -1.1089  0.3530
63275SOL     OW96939   7.443   9.629   5.428  0.1020 -0.3346 -0.3159
63275SOL    HW196940   7.409   9.540   5.433  0.2674 -0.4151 -0.6197
63275SOL    HW296941   7.384   9.681   5.484  0.2113 -0.6944  0.1417
63276SOL     OW96942   3.350  11.134  11.878  0.2667 -0.1398 -0.5671
63276SOL    HW196943   3.304  11.109  11.958  1.2055 -1.4119 -0.3825
63276SOL    HW296944   3.321  11.070  11.813 -0.5328  0.9229 -1.2759
63277SOL     OW96945   4.334   4.909   9.251 -0.2109 -0.2258  0.1748
63277SOL    HW196946   4.378   4.959   9.320 -2.9988  1.9890  0.5467
63277SOL    HW296947   4.241   4.927   9.265 -1.0385 -1.9201 -2.5361
63278SOL     OW96948  11.324   5.995   9.209  0.2406  0.8496 -0.0855
63278SOL    HW196949  11.380   6.011   9.286 -0.9395  1.9045  0.5986
63278SOL    HW296950  11.344   6.068   9.150  2.3860 -0.8438 -1.6108
63279SOL     OW96951   8.046   8.987   3.000  0.2688  0.1314  0.5931
63279SOL    HW196952   7.984   8.966   2.930 -0.3223  2.0145  0.4957
63279SOL    HW296953   7.990   9.015   3.074  0.9184 -0.8456  1.4766
63280SOL     OW96954   6.192   3.258   1.026  0.4977 -0.2489  0.3680
63280SOL    HW196955   6.106   3.217   1.025  0.2314  0.3029  0.2966
63280SOL    HW296956   6.251   3.191   0.990  0.0240 -0.4540 -0.0417
63281SOL     OW96957  10.528   7.709   2.521 -0.3646  0.6415 -0.5674
63281SOL    HW196958  10.499   7.752   2.602 -0.1024 -0.0029 -0.1212
63281SOL    HW296959  10.457   7.649   2.499 -0.0157  0.0955 -0.2552
63282SOL     OW96960   5.519  12.124   7.724 -0.0576 -0.0247  0.1913
63282SOL    HW196961   5.505  12.148   7.816  0.3773 -1.0914  0.5518
63282SOL    HW296962   5.613  12.104   7.719 -0.0197  0.3159 -0.5566
63283SOL     OW96963   1.426  11.535   3.043  0.0983  0.4245  0.4167
63283SOL    HW196964   1.335  11.509   3.027  0.4530 -0.9185  0.4577
63283SOL    HW296965   1.431  11.547   3.138  0.6591 -2.5569  0.8673
63284SOL     OW96966   7.598   8.054   8.254 -0.0261  0.0192 -0.1315
63284SOL    HW196967   7.671   8.098   8.211  0.4306  0.3357  0.9515
63284SOL    HW296968   7.569   7.989   8.189  0.2661  0.8602 -1.1428
63285SOL     OW96969   6.549  11.378   0.742  0.0645 -0.0167  0.3106
63285SOL    HW196970   6.484  11.438   0.777  1.1377  0.3452  1.7505
63285SOL    HW296971   6.528  11.293   0.782  0.4415  0.0834  0.7149
63286SOL     OW96972  12.378   3.961   8.589 -0.4561 -0.3377 -0.1706
63286SOL    HW196973  12.284   3.954   8.607  0.0140 -0.5446  2.5602
63286SOL    HW296974  12.390   4.052   8.561 -1.5097 -0.4799 -1.2055
63287SOL     OW96975   0.127   8.722   8.149  0.2412  0.0545  0.3166
63287SOL    HW196976   0.068   8.709   8.223  0.5651  1.2073  0.8060
63287SOL    HW296977   0.138   8.817   8.144 -0.0907  0.0406 -1.4666
63288SOL     OW96978   6.105   7.125   1.176 -0.2973 -0.1356  0.0830
63288SOL    HW196979   6.139   7.074   1.250  2.9037  0.0571 -1.1064
63288SOL    HW296980   6.117   7.216   1.203  1.5334 -0.0633 -0.8942
63289SOL     OW96981   8.033  11.373  12.651  0.4704  0.0546  0.9178
63289SOL    HW196982   8.051  11.368  12.745 -0.0888 -0.3083  1.0162
63289SOL    HW296983   7.945  11.336  12.642  0.5049  0.1194  0.2546
63290SOL     OW96984   6.651   6.492   7.677  0.4210 -0.1533  0.4260
63290SOL    HW196985   6.690   6.459   7.758  1.3045  0.9020  0.4656
63290SOL    HW296986   6.613   6.577   7.702  1.0971  0.3937 -0.3390
63291SOL     OW96987   4.214   8.220   1.090  0.2844 -0.2402 -0.3264
63291SOL    HW196988   4.260   8.281   1.033  0.3205  0.0801  0.0462
63291SOL    HW296989   4.280   8.152   1.109  0.7421  0.4377  0.5478
63292SOL     OW96990   9.113   8.005  12.577 -0.5469 -0.4508 -0.2428
63292SOL    HW196991   9.069   7.961  12.504  2.4267 -0.2844 -2.3214
63292SOL    HW296992   9.131   8.093  12.545 -0.6682  0.1918  1.3829
63293SOL     OW96993   6.602  11.112  10.261 -0.0742  0.1388 -0.5376
63293SOL    HW196994   6.592  11.136  10.353 -1.9272 -1.4505 -0.2646
63293SOL    HW296995   6.657  11.034  10.262 -0.2652 -0.0002 -0.7535
63294SOL     OW96996  11.571   2.124   3.076  0.6552  0.8556  0.2112
63294SOL    HW196997  11.626   2.063   3.126  0.2924 -0.5397 -1.0186
63294SOL    HW296998  11.482   2.090   3.086  0.1510  2.3315  1.0785
63295SOL     OW96999   9.262   5.809  12.554 -0.0256 -0.0992  0.2266
63295SOL    HW197000   9.314   5.887  12.573 -0.3526 -0.1783  1.5151
63295SOL    HW297001   9.172   5.840  12.545 -0.0048 -0.1893 -0.3385
63296SOL     OW97002  10.191  11.169  10.415 -0.0098  0.1876 -0.6204
63296SOL    HW197003  10.109  11.122  10.405 -0.4249  0.7357  0.1210
63296SOL    HW297004  10.233  11.163  10.329 -1.1999  0.6156 -1.2529
63297SOL     OW97005   8.805   5.027   8.564  0.1229  0.5691 -0.0232
63297SOL    HW197006   8.817   5.121   8.551  1.2780  0.3179 -0.9421
63297SOL    HW297007   8.720   5.019   8.609 -0.5439  1.9676 -0.9674
63298SOL     OW97008   5.257   3.522   1.982 -0.4341  0.2656  0.2006
63298SOL    HW197009   5.268   3.598   1.925 -0.7621 -0.3742 -0.7463
63298SOL    HW297010   5.344   3.505   2.017 -0.3135  0.9286  0.2332
63299SOL     OW97011   4.676   3.129  10.140  0.1752  0.1939  0.1514
63299SOL    HW197012   4.727   3.105  10.064 -1.1387  0.7206 -0.9410
63299SOL    HW297013   4.585   3.112  10.115 -0.3336  0.8715  1.4046
63300SOL     OW97014   2.082   3.883   2.827 -0.2643  0.4343 -0.2453
63300SOL    HW197015   2.087   3.803   2.774 -0.1276  0.5137 -0.3542
63300SOL    HW297016   2.168   3.923   2.818 -0.1457  0.2938  0.2879
63301SOL     OW97017  10.243  11.924   8.165  0.2275  0.2445  0.2360
63301SOL    HW197018  10.284  11.838   8.159 -0.6695 -0.1232 -1.7744
63301SOL    HW297019  10.212  11.941   8.076  0.2141  2.5784  0.6322
63302SOL     OW97020   7.748   1.099  10.238  0.1901 -0.2552  0.1459
63302SOL    HW197021   7.785   1.037  10.300 -1.9468  0.8859  2.7493
63302SOL    HW297022   7.682   1.048  10.190  1.4988 -1.0119 -0.9307
63303SOL     OW97023  12.750  11.644   7.265 -0.7840 -0.5419 -0.1270
63303SOL    HW197024  12.735  11.595   7.346  0.3686  0.2875  0.6317
63303SOL    HW297025  12.792  11.725   7.295 -2.1024  0.6508 -1.3780
63304SOL     OW97026   8.397   9.012   5.273 -0.0460  0.5471 -0.6228
63304SOL    HW197027   8.377   8.987   5.363  0.3109 -0.8428 -0.9120
63304SOL    HW297028   8.488   9.043   5.277 -0.1546  0.8496 -0.4450
63305SOL     OW97029   4.478   1.557  12.108  0.3197  0.6007  0.3726
63305SOL    HW197030   4.467   1.489  12.042  0.0475  0.6933  0.3191
63305SOL    HW297031   4.515   1.631  12.061 -0.6162  0.9426  0.1485
63306SOL     OW97032   0.454  10.961   0.518 -0.4434 -0.5907  0.3636
63306SOL    HW197033   0.498  11.025   0.575 -0.0830 -2.0514  1.7870
63306SOL    HW297034   0.360  10.978   0.533 -0.3549 -0.2923  0.6049
63307SOL     OW97035  12.158   6.274   0.671  0.0408  0.0842  0.6213
63307SOL    HW197036  12.070   6.285   0.706 -0.2015 -0.9095  0.3600
63307SOL    HW297037  12.157   6.187   0.632  0.6869  0.6468 -0.7068
63308SOL     OW97038  12.296   2.163  12.035  0.2290 -0.1680  0.3163
63308SOL    HW197039  12.303   2.236  12.096  0.1191 -0.3987  0.6048
63308SOL    HW297040  12.243   2.098  12.081  1.7688 -1.1540  0.7644
63309SOL     OW97041   8.362  10.029   3.711  0.0796 -0.7713  0.0807
63309SOL    HW197042   8.400  10.012   3.798  0.3735  0.3975  0.1881
63309SOL    HW297043   8.384   9.951   3.660 -1.5360 -2.2512  1.5050
63310SOL     OW97044   8.249   2.245   1.210 -0.5237  0.2391  0.0286
63310SOL    HW197045   8.257   2.186   1.135 -1.0379  1.3430 -0.9326
63310SOL    HW297046   8.217   2.327   1.172 -0.8398  0.8089  1.4764
63311SOL     OW97047  10.278   9.178   8.288  0.2841 -0.1667  0.2309
63311SOL    HW197048  10.183   9.178   8.301  0.3032  1.9531  0.7742
63311SOL    HW297049  10.291   9.232   8.209  1.0507 -0.3496  0.2258
63312SOL     OW97050  11.313  11.166   0.695 -0.2066 -0.0089  0.6184
63312SOL    HW197051  11.288  11.223   0.622  0.9157 -0.7109 -0.3455
63312SOL    HW297052  11.380  11.215   0.743  1.3932 -0.7959 -0.7093
63313SOL     OW97053   9.394   6.339   3.975 -0.6151  0.1152 -0.7754
63313SOL    HW197054   9.435   6.339   4.062  0.0100 -1.6103 -1.0260
63313SOL    HW297055   9.314   6.288   3.986 -2.2397  2.5833 -0.5359
63314SOL     OW97056   2.738   7.113   0.592 -0.3083 -0.0803  0.4474
63314SOL    HW197057   2.703   7.025   0.578 -1.8462  0.6795 -0.7636
63314SOL    HW297058   2.813   7.118   0.532  0.0150 -0.6819  0.7938
63315SOL     OW97059   7.733   4.189   1.713  0.0384  0.0255  0.2900
63315SOL    HW197060   7.642   4.205   1.690  0.0769  0.8981  0.7096
63315SOL    HW297061   7.756   4.108   1.667 -1.2065 -0.6999  0.9165
63316SOL     OW97062   3.739   5.538   1.642 -0.0125 -0.2181 -0.1836
63316SOL    HW197063   3.659   5.493   1.672 -0.9696 -0.5837 -3.0215
63316SOL    HW297064   3.719   5.631   1.652  0.0575 -0.3165  1.0613
63317SOL     OW97065  11.166   5.346   4.457 -0.1455  0.4688  0.1469
63317SOL    HW197066  11.130   5.383   4.377  0.3695  3.5067  1.1696
63317SOL    HW297067  11.091   5.305   4.500 -0.2207 -2.1887 -2.2536
63318SOL     OW97068   9.427   9.289  10.650  0.3030 -0.1732  0.3527
63318SOL    HW197069   9.472   9.372  10.669 -0.6927  0.5801 -0.4826
63318SOL    HW297070   9.484   9.246  10.586  1.2178 -0.5124  1.3595
63319SOL     OW97071   2.944   6.198   6.318  0.3890 -0.2359 -0.5273
63319SOL    HW197072   2.856   6.213   6.283  0.1073 -0.9026 -0.1183
63319SOL    HW297073   3.000   6.255   6.266 -0.4395  1.0901 -0.0154
63320SOL     OW97074  12.005   4.699  12.548 -0.0205 -0.2012  0.6961
63320SOL    HW197075  11.998   4.785  12.590  2.2129  1.0558 -1.2794
63320SOL    HW297076  12.041   4.642  12.616 -1.7257  0.2940  2.1008
63321SOL     OW97077   3.604   7.413   8.636 -0.0792 -0.4125 -0.1592
63321SOL    HW197078   3.673   7.477   8.625  1.3462 -1.7595  0.5079
63321SOL    HW297079   3.555   7.444   8.712  0.6428 -0.1426  0.2073
63322SOL     OW97080  10.594   4.401   4.836 -0.5267 -0.2294  0.0972
63322SOL    HW197081  10.589   4.341   4.761  1.5682 -0.4242  0.0442
63322SOL    HW297082  10.622   4.345   4.909 -1.1907  0.2069  0.6941
63323SOL     OW97083   9.031   7.250  11.327 -0.3465 -0.4922  0.1149
63323SOL    HW197084   9.068   7.167  11.356  0.7889  0.0735  0.3231
63323SOL    HW297085   8.936   7.239  11.338 -0.1140 -1.1935  1.6488
63324SOL     OW97086   8.857   8.378   3.520  0.2321  0.5152  0.0415
63324SOL    HW197087   8.764   8.399   3.512  0.1416 -0.2246 -0.9521
63324SOL    HW297088   8.858   8.293   3.566  0.4525  0.8437  0.6598
63325SOL     OW97089   3.315   9.651  10.193  0.1241 -0.5077  0.1498
63325SOL    HW197090   3.302   9.716  10.262  2.0015 -0.6101  0.6562
63325SOL    HW297091   3.289   9.697  10.112  0.1570  0.4217  0.6499
63326SOL     OW97092   9.012   7.128   0.932 -0.2624  0.4958  0.0400
63326SOL    HW197093   8.935   7.080   0.903  0.7375 -1.3092  0.2336
63326SOL    HW297094   9.086   7.076   0.901  0.8948  2.0234  0.1049
63327SOL     OW97095  10.608   9.843   0.237 -0.4651 -0.5604 -0.2439
63327SOL    HW197096  10.559   9.912   0.282  1.2600  0.5889 -0.0635
63327SOL    HW297097  10.546   9.809   0.172 -1.4793  0.8812 -0.0753
63328SOL     OW97098   9.308  11.753  10.242 -0.4716 -0.2096 -0.3705
63328SOL    HW197099   9.234  11.737  10.183  0.1654 -0.3011 -1.1717
63328SOL    HW297100   9.376  11.790  10.185 -0.3865  1.2282  0.6193
63329SOL     OW97101   5.642  11.838   0.219 -0.0975  0.1605  0.4599
63329SOL    HW197102   5.673  11.928   0.231  0.3805  0.0700 -0.0488
63329SOL    HW297103   5.565  11.847   0.162 -0.4293  0.2969  0.9206
63330SOL     OW97104   8.931  12.621   8.424 -0.3086  0.2411  0.8747
63330SOL    HW197105   8.939  12.532   8.458  0.5057 -0.5524 -1.1789
63330SOL    HW297106   8.858  12.659   8.473 -1.2735 -1.8593  1.2079
63331SOL     OW97107   1.745   6.374   0.209 -0.6979 -0.1091 -0.4942
63331SOL    HW197108   1.766   6.462   0.239 -2.7529  0.1662  0.3214
63331SOL    HW297109   1.729   6.324   0.289  0.3586 -1.2368 -0.9490
63332SOL     OW97110  10.054   7.927  11.713 -0.2614  0.0606  0.2937
63332SOL    HW197111   9.996   7.904  11.640  0.9005 -2.0803 -0.0154
63332SOL    HW297112  10.025   7.871  11.785 -0.6629  1.3564  1.1729
63333SOL     OW97113  11.977   3.661  11.729  0.0979 -0.0090 -0.3312
63333SOL    HW197114  11.921   3.674  11.652  1.2734  0.5185 -1.1217
63333SOL    HW297115  11.925   3.694  11.803 -1.6115 -1.7814 -0.6553
63334SOL     OW97116  10.129   7.250  10.730  0.4946 -0.4171  0.4630
63334SOL    HW197117  10.109   7.157  10.717 -0.5815 -0.1471  0.0896
63334SOL    HW297118  10.104   7.268  10.820 -1.2478 -0.0359 -0.0571
63335SOL     OW97119   4.935   1.204   3.049  0.0315  0.7306 -0.3190
63335SOL    HW197120   4.842   1.194   3.025  0.1652  0.6470 -0.8129
63335SOL    HW297121   4.938   1.286   3.098 -0.0538  1.6207 -1.7237
63336SOL     OW97122  12.658  11.408   2.852  0.1770  0.2551 -0.0083
63336SOL    HW197123  12.677  11.404   2.758 -0.2426  0.8068 -0.1180
63336SOL    HW297124  12.564  11.397   2.858  0.2607 -0.2756  0.3903
63337SOL     OW97125   0.872   4.583   9.583  0.4431 -0.2975  0.0764
63337SOL    HW197126   0.793   4.623   9.620  0.1562 -1.2274  0.5111
63337SOL    HW297127   0.841   4.535   9.506  0.4955 -1.0023  0.4799
63338SOL     OW97128   0.009   9.698   8.227 -0.3130  0.0795  0.4326
63338SOL    HW197129  -0.024   9.773   8.277  1.6964 -0.0572  2.0771
63338SOL    HW297130   0.068   9.737   8.163 -0.2427 -0.0085  0.4444
63339SOL     OW97131  11.910   2.323  11.576 -1.1941 -0.0256 -0.4434
63339SOL    HW197132  11.820   2.299  11.552 -0.6508  0.2125 -3.0948
63339SOL    HW297133  11.955   2.240  11.585 -1.2946 -0.1336 -0.9003
63340SOL     OW97134  12.269   2.343   8.164 -0.3614  0.0273 -0.0050
63340SOL    HW197135  12.354   2.328   8.125 -0.4316 -0.0347 -0.1331
63340SOL    HW297136  12.206   2.313   8.098 -0.4562 -2.7437  1.2032
63341SOL     OW97137   1.436   4.763   9.667  0.0547  0.4711 -0.2785
63341SOL    HW197138   1.472   4.806   9.589  2.0940 -1.0312 -0.2490
63341SOL    HW297139   1.513   4.740   9.719 -0.9457 -2.3448  0.1151
63342SOL     OW97140   7.375  11.772   4.635 -0.5487 -0.1613 -0.5750
63342SOL    HW197141   7.397  11.785   4.727 -1.2741 -1.1178 -0.2567
63342SOL    HW297142   7.438  11.827   4.587 -1.1191  1.5383  0.5302
63343SOL     OW97143   6.272   5.649  12.727 -0.2597 -0.4402 -0.1279
63343SOL    HW197144   6.340   5.712  12.705 -1.1986  0.5310 -0.3463
63343SOL    HW297145   6.315   5.564  12.721  0.8250  0.1269 -0.6497
63344SOL     OW97146  10.018   0.607  11.134  0.7029 -0.1561  0.8072
63344SOL    HW197147  10.069   0.594  11.054 -0.4209 -0.0354  0.0490
63344SOL    HW297148  10.065   0.557  11.201  0.9439 -1.3418 -0.2227
63345SOL     OW97149   3.325   1.698   6.071 -0.3735 -0.0769  0.5354
63345SOL    HW197150   3.361   1.768   6.017  1.7210 -1.5025 -0.0231
63345SOL    HW297151   3.247   1.669   6.024  0.4722 -0.1624 -0.8593
63346SOL     OW97152   1.778   4.691   3.258 -0.2076  0.0485 -0.3040
63346SOL    HW197153   1.754   4.704   3.349 -0.5348 -2.0048 -0.0426
63346SOL    HW297154   1.763   4.776   3.216  2.1768  1.7065  1.9638
63347SOL     OW97155   0.127  10.949  12.225 -0.1514  0.1135 -0.9972
63347SOL    HW197156   0.066  10.944  12.152  0.5907 -1.6508 -1.5508
63347SOL    HW297157   0.087  10.898  12.295 -0.0411  0.2993 -0.7945
63348SOL     OW97158   4.938   5.039   3.224 -0.0227  0.2144  0.5485
63348SOL    HW197159   4.915   4.950   3.249  1.2162 -0.1867  0.3611
63348SOL    HW297160   5.006   5.064   3.287  0.5275  0.5502 -0.1711
63349SOL     OW97161   5.361   3.206   9.681 -0.0357  0.4487 -0.1135
63349SOL    HW197162   5.318   3.167   9.757  1.1251  0.1565  0.4210
63349SOL    HW297163   5.339   3.147   9.609  2.8619 -2.2090  0.9297
63350SOL     OW97164   9.307   0.222   1.306  0.5779  0.1612 -0.5766
63350SOL    HW197165   9.283   0.201   1.396 -1.7921  1.5468 -0.8002
63350SOL    HW297166   9.361   0.301   1.312  1.4312 -0.4284 -0.3305
63351SOL     OW97167   8.522   9.959   1.664  0.0141  0.3576 -0.0391
63351SOL    HW197168   8.443  10.007   1.637 -1.1538 -1.6101 -0.2914
63351SOL    HW297169   8.501   9.926   1.751  0.0629 -1.2224 -0.6094
63352SOL     OW97170   6.786  12.269   5.262 -0.1428 -0.1091 -0.0579
63352SOL    HW197171   6.718  12.229   5.207 -0.3715  0.2267 -0.0240
63352SOL    HW297172   6.865  12.268   5.208 -0.2574 -0.1923 -0.2238
63353SOL     OW97173   2.422   7.533   4.995 -0.7033 -0.0139 -0.0997
63353SOL    HW197174   2.397   7.565   4.909 -1.1750 -1.5141 -0.5335
63353SOL    HW297175   2.347   7.554   5.051 -0.8559 -0.0286 -0.2973
63354SOL     OW97176   9.614   7.000  12.857  0.1981 -0.7323 -0.4771
63354SOL    HW197177   9.706   7.025  12.863 -0.2972  0.8864  2.4326
63354SOL    HW297178   9.579   7.054  12.786  0.9499  0.8811  0.3082
63355SOL     OW97179   2.976  12.509   7.401  0.0890  0.5557 -1.0716
63355SOL    HW197180   3.031  12.557   7.462  0.1779 -1.2940  0.3813
63355SOL    HW297181   2.968  12.567   7.325  1.6918  2.0373 -0.1675
63356SOL     OW97182   6.358   1.468   3.490  0.0484  0.0855  0.2043
63356SOL    HW197183   6.414   1.437   3.561 -0.2268 -0.2310  0.2901
63356SOL    HW297184   6.308   1.540   3.528 -2.6140 -2.2083  1.4691
63357SOL     OW97185   5.636  12.150   1.043 -0.8308 -0.3688 -0.9389
63357SOL    HW197186   5.685  12.214   1.094 -0.1562  0.6117 -2.7382
63357SOL    HW297187   5.587  12.100   1.109 -0.2146  0.9879  0.6321
63358SOL     OW97188  10.247  11.879   8.954 -0.0570  0.1807  0.0339
63358SOL    HW197189  10.229  11.791   8.987  0.5781  0.7971  2.2024
63358SOL    HW297190  10.313  11.913   9.014  0.4001  1.8132 -1.3287
63359SOL     OW97191   3.439   8.803   8.999  0.1956 -0.2003  0.8942
63359SOL    HW197192   3.484   8.811   9.083  0.8282  0.2773  0.5222
63359SOL    HW297193   3.424   8.894   8.971  1.3777 -0.3280 -0.2217
63360SOL     OW97194  10.244   9.920   8.563  0.1155  0.3759 -0.2578
63360SOL    HW197195  10.250   9.853   8.494  1.6266 -0.4893  0.6674
63360SOL    HW297196  10.166   9.971   8.540 -0.7921 -1.3798 -1.2822
63361SOL     OW97197   2.146  10.457   2.968 -0.1720 -0.3343 -0.1463
63361SOL    HW197198   2.051  10.446   2.975 -0.0079 -1.3677  0.9075
63361SOL    HW297199   2.180  10.368   2.977  0.9569  0.1766  0.9481
63362SOL     OW97200   0.440   5.028   0.514 -0.0961  0.3662  0.4126
63362SOL    HW197201   0.512   4.970   0.487 -1.6472 -1.4100 -0.1011
63362SOL    HW297202   0.406   5.064   0.433 -1.1479 -0.5208  0.4382
63363SOL     OW97203   9.236   2.481  12.520  0.2699 -0.2521 -0.0805
63363SOL    HW197204   9.275   2.550  12.575 -1.4096  0.1954  0.6223
63363SOL    HW297205   9.164   2.525  12.474  0.5622 -1.0455 -1.3279
63364SOL     OW97206   8.040   6.675   5.910 -0.0047  0.6561  0.1958
63364SOL    HW197207   8.028   6.652   6.002  1.9843 -2.7031 -0.2109
63364SOL    HW297208   7.972   6.626   5.864  0.1919  0.8015 -0.2514
63365SOL     OW97209   9.898   4.238   1.615 -0.4255  0.7631  0.9670
63365SOL    HW197210   9.896   4.274   1.526 -1.6371 -1.5843 -0.0519
63365SOL    HW297211   9.967   4.287   1.660  1.6553  0.6519 -1.8766
63366SOL     OW97212  11.794   5.051   0.488  0.5087  0.2514  0.2115
63366SOL    HW197213  11.886   5.063   0.468  0.6872  0.2405  0.9897
63366SOL    HW297214  11.753   5.133   0.460  0.9111  0.6414  0.7366
63367SOL     OW97215  12.039   2.486   6.565 -0.0152  0.0864  0.3626
63367SOL    HW197216  12.128   2.452   6.562  1.2956  3.1151  1.1201
63367SOL    HW297217  12.000   2.443   6.641  0.4871 -1.8329 -0.4026
63368SOL     OW97218   7.171   4.343  11.486  0.0553  0.0708 -0.2111
63368SOL    HW197219   7.197   4.357  11.395  1.8057 -0.6666  0.1297
63368SOL    HW297220   7.242   4.291  11.524 -0.6356  0.3413  1.5828
63369SOL     OW97221   8.987   6.225   6.751 -0.3250  0.3499  0.4582
63369SOL    HW197222   8.954   6.189   6.834 -2.4928  2.1724  0.4705
63369SOL    HW297223   9.073   6.260   6.774 -0.6096  0.2397  1.8100
63370SOL     OW97224   4.085   3.361  11.837 -0.4621 -0.5479  0.0983
63370SOL    HW197225   4.010   3.420  11.837 -0.8264 -0.9568 -1.5863
63370SOL    HW297226   4.049   3.275  11.812  0.2543 -1.2201  1.2745
63371SOL     OW97227   9.611   3.200   1.675 -0.6320 -0.1505 -0.0396
63371SOL    HW197228   9.589   3.211   1.583  0.6924  0.8494 -0.2716
63371SOL    HW297229   9.593   3.286   1.714  1.6044  0.3842 -0.0211
63372SOL     OW97230   3.251   3.770   7.997 -0.8160  0.5756  0.8327
63372SOL    HW197231   3.223   3.767   8.089 -1.8690 -0.3554  0.5169
63372SOL    HW297232   3.197   3.838   7.958 -0.6541  0.6959  0.8194
63373SOL     OW97233  11.602   5.523   0.557 -0.5556  0.2074 -0.5221
63373SOL    HW197234  11.634   5.533   0.468 -1.5094  0.9885 -0.7946
63373SOL    HW297235  11.663   5.574   0.611 -0.5620  0.5834 -0.8661
63374SOL     OW97236   8.037   9.662   5.572 -0.1702 -0.5172 -0.0461
63374SOL    HW197237   8.023   9.593   5.636  1.6657  0.4234  1.4954
63374SOL    HW297238   8.106   9.628   5.515 -0.9526 -0.8785 -0.7858
63375SOL     OW97239   6.429  12.541   1.138  0.2170 -0.0540 -0.2216
63375SOL    HW197240   6.427  12.474   1.207  1.9195  0.8268  0.7475
63375SOL    HW297241   6.412  12.492   1.057 -1.4547 -1.1690  0.7579
63376SOL     OW97242   2.882  12.356   0.837  0.0349  0.1426  0.2538
63376SOL    HW197243   2.790  12.358   0.863  0.2812 -1.1560  1.3595
63376SOL    HW297244   2.886  12.290   0.768  0.0816  0.4936 -0.0835
63377SOL     OW97245   5.750   3.115  12.579 -0.3081  0.0987 -0.2950
63377SOL    HW197246   5.754   3.062  12.658 -0.1627  3.1850  1.9659
63377SOL    HW297247   5.659   3.145  12.575 -0.1873  0.3962 -1.0147
63378SOL     OW97248  12.879   8.924   0.244  0.1830  0.3929  0.0237
63378SOL    HW197249  12.834   8.922   0.159 -2.9005 -1.0643  1.5098
63378SOL    HW297250  12.905   8.833   0.260 -2.0891 -0.0422  1.8625
63379SOL     OW97251   9.233  10.773   6.692  0.2381  0.7398 -0.0418
63379SOL    HW197252   9.160  10.807   6.641  0.2974  2.1511  0.7608
63379SOL    HW297253   9.282  10.718   6.630 -0.2582  1.5818 -1.2194
63380SOL     OW97254  11.160   5.721   0.496 -0.1706 -0.1564 -0.0477
63380SOL    HW197255  11.223   5.649   0.490 -1.2440 -1.0539 -1.3459
63380SOL    HW297256  11.202   5.794   0.450  0.4482 -0.3303  0.2420
63381SOL     OW97257  10.556   9.277  11.953  0.2694 -0.2602 -0.1811
63381SOL    HW197258  10.575   9.202  11.897  1.7215 -0.8724  1.0419
63381SOL    HW297259  10.639   9.295  11.998 -0.0951  1.9429 -0.2503
63382SOL     OW97260   0.506   7.118  10.673 -0.2834 -0.4553  0.0827
63382SOL    HW197261   0.542   7.121  10.584  0.0769  0.1694  0.2500
63382SOL    HW297262   0.579   7.091  10.727 -0.2594  0.0760  0.3189
63383SOL     OW97263   6.298   4.391   4.262 -0.0584  0.1952 -0.3209
63383SOL    HW197264   6.311   4.300   4.287 -2.3401 -0.2177 -0.4903
63383SOL    HW297265   6.345   4.441   4.330  0.1104 -1.0668  0.5130
63384SOL     OW97266   1.401   8.215   9.385  0.0368 -0.1388  0.2088
63384SOL    HW197267   1.454   8.240   9.461  1.4718  0.1721 -0.8392
63384SOL    HW297268   1.465   8.186   9.320 -1.1864 -0.8320 -0.7285
63385SOL     OW97269   4.317   7.406   0.443  0.0551  0.3259 -0.0809
63385SOL    HW197270   4.353   7.327   0.483  0.2550 -0.2686 -1.3973
63385SOL    HW297271   4.302   7.465   0.517  0.9799 -0.5068  0.8003
63386SOL     OW97272   8.249  11.897   4.457  0.5796  0.4846 -0.0577
63386SOL    HW197273   8.156  11.875   4.467  0.4884  0.4702 -0.8541
63386SOL    HW297274   8.278  11.917   4.546 -0.1481  0.3397  0.2257
63387SOL     OW97275  10.944   1.103   4.143 -1.0146  0.4687  0.0118
63387SOL    HW197276  10.875   1.036   4.148 -1.4543  0.9206  0.1342
63387SOL    HW297277  10.915   1.162   4.073 -0.9194  0.8417  0.2835
63388SOL     OW97278   5.986   8.175   5.704  0.1828 -0.6034 -0.4996
63388SOL    HW197279   6.047   8.176   5.630 -1.3911 -0.3316 -1.8302
63388SOL    HW297280   5.917   8.114   5.678  0.0135 -1.1447  1.1131
63389SOL     OW97281   8.674  11.840   2.872 -0.4623 -0.3377  0.8504
63389SOL    HW197282   8.666  11.935   2.884  0.5817 -0.3332  1.5505
63389SOL    HW297283   8.686  11.830   2.777  0.0955  0.2789  0.8499
63390SOL     OW97284  12.053   6.068   6.369  0.0968 -0.0234  0.0608
63390SOL    HW197285  12.139   6.064   6.328 -0.2253  2.0263 -0.9365
63390SOL    HW297286  11.992   6.067   6.296 -0.7726 -1.4321  0.7614
63391SOL     OW97287  12.414   5.578   3.140 -0.2428 -0.1284  0.3846
63391SOL    HW197288  12.449   5.560   3.053 -1.9873 -0.6025 -0.2522
63391SOL    HW297289  12.449   5.507   3.195  1.9519  0.9073  0.4425
63392SOL     OW97290   4.424  11.186   8.006 -0.2128  0.4352  0.3697
63392SOL    HW197291   4.342  11.233   8.023  0.2710  0.9521  1.3764
63392SOL    HW297292   4.420  11.110   8.064 -0.6976 -0.4424 -0.7762
63393SOL     OW97293  12.425  11.176   0.363  0.2210  0.1819 -0.0551
63393SOL    HW197294  12.402  11.085   0.345 -0.2651  0.2755  0.0750
63393SOL    HW297295  12.376  11.226   0.298 -1.2602  0.4997  1.2462
63394SOL     OW97296   6.746   8.723  10.967 -0.0735 -0.2755  0.6991
63394SOL    HW197297   6.791   8.674  10.899 -0.0108  0.5874  0.1097
63394SOL    HW297298   6.812   8.784  11.001  0.6112 -2.2467  3.1710
63395SOL     OW97299   4.593   1.552   3.843  0.5165  0.6927 -0.3234
63395SOL    HW197300   4.585   1.457   3.848 -0.0770  0.8029  1.4272
63395SOL    HW297301   4.509   1.582   3.808  0.8578  0.5656 -1.2797
63396SOL     OW97302  10.424  12.192   1.490 -0.5881  0.0813 -0.1074
63396SOL    HW197303  10.368  12.116   1.477 -0.0608 -0.2791 -0.2915
63396SOL    HW297304  10.391  12.257   1.427 -2.2694  0.7242  1.3437
63397SOL     OW97305   9.734   5.929   6.662  0.2908  0.0305  0.3159
63397SOL    HW197306   9.683   5.951   6.584  0.9616 -1.5994 -0.6447
63397SOL    HW297307   9.670   5.894   6.724 -0.1584  0.7137  0.2393
63398SOL     OW97308   5.378   1.885   9.433 -0.3855 -0.5765 -0.4123
63398SOL    HW197309   5.469   1.889   9.403 -0.2785 -1.2824 -0.1890
63398SOL    HW297310   5.363   1.971   9.474  0.8657 -1.1881  1.4657
63399SOL     OW97311   9.563  10.312  12.317 -0.5042  0.2205 -0.5867
63399SOL    HW197312   9.593  10.364  12.392 -1.1465  0.8104 -0.7321
63399SOL    HW297313   9.473  10.339  12.303 -0.8016 -0.8290 -0.7683
63400SOL     OW97314   7.140   2.305  12.771  0.5189  0.0212 -0.0385
63400SOL    HW197315   7.204   2.274  12.835  0.4160 -0.9222 -0.3784
63400SOL    HW297316   7.134   2.234  12.706 -2.9431 -1.2492  1.4292
63401SOL     OW97317  11.204   5.785   8.327  0.8559 -0.1688 -0.0871
63401SOL    HW197318  11.256   5.850   8.279 -0.6148  1.0556 -0.1160
63401SOL    HW297319  11.184   5.828   8.410 -0.7013 -0.2833 -0.3738
63402SOL     OW97320   8.052  11.129   3.577 -0.2362  0.2266  0.2710
63402SOL    HW197321   8.028  11.037   3.570  1.7240 -0.3148  0.0447
63402SOL    HW297322   8.061  11.145   3.671 -0.3649  0.1391  0.2983
63403SOL     OW97323   8.231  12.788  12.816  0.1227 -0.4284 -0.2158
63403SOL    HW197324   8.241  12.845  12.740  1.6973 -0.2667  0.0829
63403SOL    HW297325   8.167  12.833  12.871  0.8268  0.7231 -0.3035
63404SOL     OW97326   6.513   2.551  12.926  0.2478 -0.3630 -0.2729
63404SOL    HW197327   6.464   2.627  12.958  0.4749 -0.4327  0.2460
63404SOL    HW297328   6.464   2.475  12.959  0.9824 -0.4342  0.6950
63405SOL     OW97329   9.514   1.906  11.397  0.0105  0.2921 -0.1016
63405SOL    HW197330   9.573   1.961  11.449 -0.7652  1.2882 -0.2397
63405SOL    HW297331   9.566   1.879  11.321  0.6737  0.0878  0.4127
63406SOL     OW97332   3.370   4.429  12.823 -0.3451  0.4905  0.5175
63406SOL    HW197333   3.382   4.499  12.759 -0.4443  0.1401  0.1122
63406SOL    HW297334   3.435   4.447  12.891  0.3722  0.3598 -0.1212
63407SOL     OW97335   7.606  11.051   3.667 -0.3585 -0.3072 -0.0547
63407SOL    HW197336   7.548  11.086   3.599  0.9514  1.1152 -0.5041
63407SOL    HW297337   7.615  10.958   3.645  1.2836  0.3909 -2.8668
63408SOL     OW97338  12.515  12.221   6.223  0.3194  0.4322  0.5047
63408SOL    HW197339  12.451  12.260   6.163  0.3888 -0.3826 -0.1235
63408SOL    HW297340  12.591  12.280   6.218 -0.2333  1.2095  0.9840
63409SOL     OW97341   1.669  11.571  12.184 -0.7032 -0.6040  0.3333
63409SOL    HW197342   1.585  11.596  12.146 -0.1476  1.2841  0.2615
63409SOL    HW297343   1.652  11.486  12.225 -2.8105  0.0296  0.8866
63410SOL     OW97344   6.545  11.308   1.286  0.3652 -0.0127 -0.0053
63410SOL    HW197345   6.615  11.279   1.344 -0.3269  0.0025  0.8504
63410SOL    HW297346   6.472  11.249   1.305 -0.9409  1.9380  1.4769
63411SOL     OW97347   6.133   9.264   0.806  0.0172 -0.0329 -0.1179
63411SOL    HW197348   6.052   9.288   0.852 -0.6304 -2.8978  0.4338
63411SOL    HW297349   6.196   9.331   0.832 -2.1993  2.4915 -0.8030
63412SOL     OW97350   4.839  12.824   3.073  0.1970  0.2030 -0.2588
63412SOL    HW197351   4.931  12.849   3.085 -0.5782  3.0871  0.4250
63412SOL    HW297352   4.805  12.816   3.162 -0.9093  2.3767 -0.4100
63413SOL     OW97353  12.764   4.980   6.183 -0.2544 -0.0026 -0.2242
63413SOL    HW197354  12.742   5.046   6.117  1.6537  0.8571 -0.0434
63413SOL    HW297355  12.802   4.908   6.132  0.3383  0.2612 -0.1578
63414SOL     OW97356   6.155   4.617  10.195  0.2431 -0.2630 -0.0331
63414SOL    HW197357   6.122   4.539  10.239  0.3681 -1.1609 -1.4741
63414SOL    HW297358   6.250   4.613  10.207  0.1701  0.3942  0.9924
63415SOL     OW97359   0.275  11.003   2.742  0.3965  0.1319  0.7059
63415SOL    HW197360   0.255  10.921   2.786 -3.5010  0.4748 -0.0459
63415SOL    HW297361   0.199  11.019   2.686  1.3865  3.8105  0.1621
63416SOL     OW97362  11.218   7.062   7.086  0.1038  0.1382 -0.5933
63416SOL    HW197363  11.287   7.095   7.029 -0.5795  0.3099 -1.3451
63416SOL    HW297364  11.152   7.028   7.026 -0.0623 -0.8563  0.1319
63417SOL     OW97365   1.365  10.299   0.316 -0.1106 -0.0569 -0.2177
63417SOL    HW197366   1.425  10.372   0.331 -0.9445  0.8894 -1.3496
63417SOL    HW297367   1.420  10.231   0.276 -0.0333  1.3779 -2.7454
63418SOL     OW97368   9.551   8.793   9.213  0.1557  0.3829  0.2786
63418SOL    HW197369   9.610   8.861   9.245  0.4695  0.1937  0.1148
63418SOL    HW297370   9.490   8.777   9.285  0.7457  0.0840  0.7265
63419SOL     OW97371  11.239   6.790   1.920  0.4736  0.2302  0.2644
63419SOL    HW197372  11.193   6.796   1.836 -1.6113  0.7430  1.3669
63419SOL    HW297373  11.274   6.878   1.935 -1.6747  0.9878  1.2165
63420SOL     OW97374   6.446   7.870   1.152 -0.5351  0.3486  0.2128
63420SOL    HW197375   6.504   7.835   1.220 -1.7299 -0.3649  0.9081
63420SOL    HW297376   6.390   7.796   1.128 -0.0516  0.5567 -1.6761
63421SOL     OW97377   5.751  12.560   0.120 -0.1132  0.2890 -0.0513
63421SOL    HW197378   5.834  12.519   0.098  0.0954  0.8301 -0.2800
63421SOL    HW297379   5.748  12.641   0.068 -0.2227  0.8954  0.8691
63422SOL     OW97380   7.422   6.706   6.407  0.5951 -0.2753  0.3603
63422SOL    HW197381   7.358   6.769   6.374 -0.3194 -1.2479  0.2442
63422SOL    HW297382   7.468   6.753   6.476 -0.5727  0.2828  0.7843
63423SOL     OW97383  10.576  10.876  12.884  0.5273  0.2198  0.0006
63423SOL    HW197384  10.546  10.832  12.804 -1.1858  0.7046  0.3188
63423SOL    HW297385  10.552  10.968  12.870  2.4913  0.7793  0.0640
63424SOL     OW97386   0.721  11.274   3.301  0.2329 -0.0748  0.0998
63424SOL    HW197387   0.669  11.354   3.304 -0.0455 -0.2095 -0.7442
63424SOL    HW297388   0.746  11.265   3.209 -0.6893 -1.5431 -0.0498
63425SOL     OW97389   9.712   1.709   1.234 -0.0928  0.2332  0.2704
63425SOL    HW197390   9.662   1.667   1.304  2.0186  0.0002  1.7263
63425SOL    HW297391   9.782   1.648   1.213 -0.3507  0.5382 -1.7305
63426SOL     OW97392  11.343  12.379  10.380 -0.2117  0.2407  0.1094
63426SOL    HW197393  11.271  12.376  10.316 -0.0435  2.5413 -0.2539
63426SOL    HW297394  11.418  12.411  10.330  0.8737 -1.2460  0.7037
63427SOL     OW97395   6.903   9.301   7.738 -0.4287  0.2516 -0.0103
63427SOL    HW197396   6.808   9.292   7.732 -0.4211  0.2806 -0.1984
63427SOL    HW297397   6.917   9.352   7.817 -0.5786  0.3863 -0.0693
63428SOL     OW97398   4.088   4.135   7.415 -0.1735 -0.8192  0.4288
63428SOL    HW197399   4.132   4.086   7.345  1.1563 -0.4991  1.0107
63428SOL    HW297400   4.028   4.194   7.369 -0.1610 -1.4232 -0.3828
63429SOL     OW97401   2.468   8.519   3.163 -0.3744  0.0196 -0.4527
63429SOL    HW197402   2.521   8.563   3.230  0.0179  0.9197 -1.3258
63429SOL    HW297403   2.426   8.590   3.115 -0.3165 -0.5870 -1.4256
63430SOL     OW97404   8.307  10.576   2.201 -0.3879 -0.6815 -0.2428
63430SOL    HW197405   8.398  10.550   2.218 -0.1335  0.4671  0.2868
63430SOL    HW297406   8.254  10.513   2.250  0.1408 -1.1102 -0.2192
63431SOL     OW97407   4.101   8.108   8.477 -0.1658 -0.3978  0.3738
63431SOL    HW197408   4.167   8.100   8.546  1.7819 -0.4529 -1.3930
63431SOL    HW297409   4.056   8.024   8.477 -0.9568 -0.0024  2.2668
63432SOL     OW97410   4.493   3.741   0.490 -0.2378 -0.2987 -0.2098
63432SOL    HW197411   4.577   3.697   0.502 -1.1495 -2.3831 -0.8447
63432SOL    HW297412   4.473   3.731   0.397 -2.2742 -2.1692  0.3157
63433SOL     OW97413  10.074   6.409   8.091  0.0012  0.0318  0.1322
63433SOL    HW197414  10.025   6.454   8.023  0.0073 -0.2234 -0.0441
63433SOL    HW297415  10.158   6.385   8.050  0.6328  1.2133  0.6826
63434SOL     OW97416   9.594   1.712   9.646 -0.4112 -0.1133  0.0696
63434SOL    HW197417   9.569   1.762   9.724 -0.3024 -0.7737  0.5348
63434SOL    HW297418   9.581   1.621   9.671  3.4043 -0.6458  0.7440
63435SOL     OW97419   1.330  12.142   8.294 -0.0956  0.2743 -0.2536
63435SOL    HW197420   1.391  12.132   8.221  1.2642  0.6875  0.7861
63435SOL    HW297421   1.356  12.224   8.336 -1.1839  0.3061  0.3971
63436SOL     OW97422  12.836   8.719   7.009  0.6363 -0.1124 -0.1837
63436SOL    HW197423  12.895   8.789   6.979  1.4508 -0.6571  0.1045
63436SOL    HW297424  12.770   8.764   7.061 -0.2732  0.7549 -1.9655
63437SOL     OW97425   2.464  11.392   9.385 -0.0420  0.2550  0.5199
63437SOL    HW197426   2.498  11.478   9.409 -0.9138  0.0288  2.9040
63437SOL    HW297427   2.461  11.344   9.468 -0.6756 -1.6782 -0.5607
63438SOL     OW97428   1.393   5.341   1.785  0.3678  0.6532 -0.0443
63438SOL    HW197429   1.445   5.333   1.865  0.7291 -1.9980 -0.4236
63438SOL    HW297430   1.314   5.289   1.803 -0.0265  0.8837 -1.0502
63439SOL     OW97431   6.778   8.649   7.298 -0.4845  0.1671 -0.1895
63439SOL    HW197432   6.831   8.657   7.378  2.4529 -1.9939 -1.7348
63439SOL    HW297433   6.741   8.561   7.303 -0.6216  0.1720 -1.0188
63440SOL     OW97434   8.245   2.764   4.153 -0.1571 -0.2497 -0.1608
63440SOL    HW197435   8.255   2.858   4.168 -0.0851 -0.2181 -0.3981
63440SOL    HW297436   8.179   2.736   4.216  2.0329 -0.6319  2.1531
63441SOL     OW97437   4.477  10.148  10.006  0.5995  0.0452  0.0229
63441SOL    HW197438   4.500  10.231  10.046  0.3242 -1.0284  2.6205
63441SOL    HW297439   4.384  10.156   9.984  0.3189  0.1138  1.1812
63442SOL     OW97440   0.352   7.501   3.359  0.4500  0.1067  0.0339
63442SOL    HW197441   0.351   7.459   3.445  0.2271  1.8316  0.9309
63442SOL    HW297442   0.261   7.529   3.346  0.6273  0.4619 -0.4441
63443SOL     OW97443   0.947   0.538   2.405  0.5599 -0.0543 -0.4323
63443SOL    HW197444   0.872   0.532   2.347 -0.7497  2.4852  0.8168
63443SOL    HW297445   0.996   0.614   2.373  1.4160 -0.3908  0.0410
63444SOL     OW97446   3.706   4.812  11.079 -0.4077 -0.1021 -0.8485
63444SOL    HW197447   3.719   4.726  11.040  0.1674 -0.1526 -0.5537
63444SOL    HW297448   3.794   4.843  11.100 -0.4060  1.4832 -2.8632
63445SOL     OW97449   3.795  10.519   1.450 -0.2367 -0.4670 -0.5079
63445SOL    HW197450   3.829  10.434   1.422 -1.4274 -1.9540  2.1280
63445SOL    HW297451   3.725  10.497   1.512 -0.3151  2.4430  0.5821
63446SOL     OW97452   4.619   2.341   4.502 -0.2342 -0.2062 -0.4280
63446SOL    HW197453   4.711   2.332   4.477 -0.5692 -0.8169 -1.4939
63446SOL    HW297454   4.574   2.269   4.458 -1.4703  0.9867 -1.2081
63447SOL     OW97455  11.232   2.794   1.456 -0.2137 -0.0918  0.0139
63447SOL    HW197456  11.268   2.710   1.428 -0.5989 -0.1198 -0.4188
63447SOL    HW297457  11.190   2.775   1.540  1.8731  0.2210  1.1836
63448SOL     OW97458   9.574   1.861   3.833 -0.2462  0.0428  0.7894
63448SOL    HW197459   9.569   1.817   3.918  0.1262 -1.5791  0.0029
63448SOL    HW297460   9.558   1.954   3.854 -0.6272 -0.3711  2.5530
63449SOL     OW97461   2.862   0.332   1.077 -0.3379 -0.3084  0.1136
63449SOL    HW197462   2.948   0.318   1.116 -0.2935 -1.1732 -0.2752
63449SOL    HW297463   2.816   0.389   1.140  0.9733  1.3329 -0.3356
63450SOL     OW97464   6.043  11.445   5.464  0.4630 -0.3081  0.2617
63450SOL    HW197465   6.124  11.403   5.493  0.3982 -0.2280  0.5588
63450SOL    HW297466   5.975  11.380   5.478  0.2426  0.1560  1.4478
63451SOL     OW97467   8.170   5.748   0.763  0.1346  0.4448 -0.0948
63451SOL    HW197468   8.244   5.740   0.703  0.3880  1.9217 -0.0290
63451SOL    HW297469   8.181   5.835   0.801 -0.5709 -0.0766  1.3597
63452SOL     OW97470  11.273  10.103   3.785 -0.6172  0.1164  0.0849
63452SOL    HW197471  11.235  10.064   3.864  0.2380 -0.0477  0.4289
63452SOL    HW297472  11.331  10.035   3.750 -0.2658  0.5341 -0.1493
63453SOL     OW97473   1.800   7.083   3.505 -0.8683  0.2296  0.1548
63453SOL    HW197474   1.778   7.037   3.586 -0.7742 -0.8878 -0.4294
63453SOL    HW297475   1.715   7.099   3.464 -0.7940 -2.1454 -1.0638
63454SOL     OW97476   5.663  11.655  11.898  0.2613 -0.0434 -0.3068
63454SOL    HW197477   5.745  11.700  11.874 -0.8824  0.5129 -3.8289
63454SOL    HW297478   5.687  11.563  11.899  0.7058 -0.0372 -3.0072
63455SOL     OW97479   7.339   3.791   8.164 -0.2049  0.1347 -0.2909
63455SOL    HW197480   7.278   3.832   8.225 -0.8897  0.8748 -1.4302
63455SOL    HW297481   7.294   3.711   8.135 -0.6956  0.7287 -1.2024
63456SOL     OW97482   3.906   3.960   2.328  0.1477 -0.2374 -0.0008
63456SOL    HW197483   3.828   3.904   2.318 -0.7827  0.7183  1.4489
63456SOL    HW297484   3.920   3.964   2.423  0.5322  1.5055 -0.1040
63457SOL     OW97485   7.742   2.822  10.003  0.0290 -0.2298 -0.6582
63457SOL    HW197486   7.721   2.915  10.015 -0.1820 -0.2222 -1.0669
63457SOL    HW297487   7.680   2.792   9.937  0.2828 -0.5943 -0.7320
63458SOL     OW97488   1.410  11.713   0.456 -0.3897  0.5974 -0.1611
63458SOL    HW197489   1.363  11.796   0.449 -0.8620  0.2525 -1.1806
63458SOL    HW297490   1.471  11.713   0.383  0.5904  0.6328  0.6269
63459SOL     OW97491   2.947   0.222   2.301 -0.5216 -0.2967 -0.3853
63459SOL    HW197492   3.002   0.193   2.374  0.2831  0.5155 -0.6583
63459SOL    HW297493   2.924   0.312   2.322  0.3293  0.1994 -1.4745
63460SOL     OW97494   3.525   9.813  10.548  0.5265 -0.1866  0.4059
63460SOL    HW197495   3.593   9.833  10.482  2.2350 -1.6426  1.6371
63460SOL    HW297496   3.550   9.866  10.624 -0.0432 -0.3300  0.6939
63461SOL     OW97497  12.730   2.466   9.086 -0.3098  0.1204  0.5086
63461SOL    HW197498  12.771   2.396   9.034 -0.2780  0.9071 -0.5551
63461SOL    HW297499  12.641   2.434   9.103 -0.2472 -0.2454  0.1683
63462SOL     OW97500   1.252   2.689   4.197 -0.0868 -0.1126  0.0999
63462SOL    HW197501   1.215   2.668   4.112 -0.0290  0.1169  0.0176
63462SOL    HW297502   1.283   2.606   4.232  0.3173 -0.1283 -0.3047
63463SOL     OW97503   8.991   1.395   1.992  0.4682  0.2318 -0.4448
63463SOL    HW197504   9.015   1.487   1.983  0.9771  0.0527 -0.9100
63463SOL    HW297505   9.011   1.374   2.084 -0.1358  0.7170 -0.1924
63464SOL     OW97506   7.834   9.300   8.123  0.5980 -0.1959 -0.1533
63464SOL    HW197507   7.909   9.323   8.069  0.2141  1.8131  0.0693
63464SOL    HW297508   7.839   9.359   8.198 -0.6421 -0.7160  0.3769
63465SOL     OW97509   6.392   4.522   6.448 -0.1280 -0.1819 -0.8205
63465SOL    HW197510   6.352   4.515   6.361 -1.0982 -0.9245 -0.3393
63465SOL    HW297511   6.321   4.554   6.504  0.1605 -0.7827 -0.0926
63466SOL     OW97512   5.297   1.202   7.282  0.4611 -0.7458  0.1418
63466SOL    HW197513   5.250   1.248   7.351  1.7482  0.9197 -0.0248
63466SOL    HW297514   5.385   1.190   7.318  0.5705 -1.7541 -0.4194
63467SOL     OW97515   4.740   7.917  12.293 -0.4260 -0.2251 -0.4205
63467SOL    HW197516   4.825   7.934  12.335 -0.9855 -1.1212  1.1626
63467SOL    HW297517   4.695   8.002  12.297 -0.6548 -0.3822  1.3398
63468SOL     OW97518   7.658   2.627   4.384 -0.2320 -0.1378  0.0141
63468SOL    HW197519   7.603   2.626   4.462 -1.9064  0.6801 -1.1090
63468SOL    HW297520   7.609   2.575   4.320 -0.8025  2.3586 -1.6929
63469SOL     OW97521   6.376   1.449   6.243 -0.3213  0.1718 -0.2938
63469SOL    HW197522   6.287   1.483   6.240  0.0703  1.2707  0.1898
63469SOL    HW297523   6.405   1.450   6.151 -0.5455  0.5057 -0.3600
63470SOL     OW97524   0.382   7.311   5.107 -0.2610  0.0137  0.2166
63470SOL    HW197525   0.436   7.358   5.171  0.4167  1.3953 -1.2919
63470SOL    HW297526   0.446   7.278   5.043 -0.9590 -0.9822  0.0151
63471SOL     OW97527   3.504  12.533   0.033 -0.4477  0.1797  0.6832
63471SOL    HW197528   3.431  12.483  -0.003 -0.0710 -0.6561  1.0446
63471SOL    HW297529   3.490  12.529   0.128  2.1225 -3.4189  1.1186
63472SOL     OW97530   8.962   1.835   6.710 -0.0165  0.0965 -0.1799
63472SOL    HW197531   8.963   1.850   6.616 -0.9909  0.5080 -0.1421
63472SOL    HW297532   9.051   1.809   6.732 -0.4305 -3.1206 -1.7061
63473SOL     OW97533  11.183   9.227  10.885  0.8731 -0.1181 -0.0108
63473SOL    HW197534  11.176   9.146  10.836  0.1125  0.3064 -0.6270
63473SOL    HW297535  11.261   9.216  10.939 -0.1118 -1.9155  1.1530
63474SOL     OW97536   8.071  10.093   5.068  0.6706  0.7626 -0.0289
63474SOL    HW197537   8.054   9.999   5.066  0.0250  0.8272  1.2612
63474SOL    HW297538   8.020  10.128   4.995  0.8520  0.1332 -0.4697
63475SOL     OW97539  10.801   7.110   7.304 -0.0723  0.0652 -0.5186
63475SOL    HW197540  10.884   7.144   7.269  0.8817 -2.0764 -0.4813
63475SOL    HW297541  10.770   7.049   7.238 -0.7282 -0.4307  0.2258
63476SOL     OW97542   1.227   2.850   8.557  0.3073  0.2549  0.5371
63476SOL    HW197543   1.240   2.892   8.642  0.4159  0.0683  0.6143
63476SOL    HW297544   1.242   2.919   8.493  1.4156  0.1172  0.6269
63477SOL     OW97545   8.339   0.341   6.170 -0.0456  0.0393  0.1532
63477SOL    HW197546   8.366   0.431   6.151 -1.2623  0.3234 -0.3198
63477SOL    HW297547   8.321   0.304   6.083  1.1805 -0.9230  0.2775
63478SOL     OW97548   0.661   6.633   5.223 -0.6831  0.1675 -0.1505
63478SOL    HW197549   0.657   6.610   5.315 -1.0581 -0.4468 -0.3183
63478SOL    HW297550   0.575   6.668   5.202 -0.0742  1.9719  0.1481
63479SOL     OW97551  10.562   2.927   2.728 -0.2517  0.4628 -0.7528
63479SOL    HW197552  10.564   2.844   2.681 -1.7016 -0.2852  0.4539
63479SOL    HW297553  10.469   2.946   2.741  0.0526  0.7016  1.6271
63480SOL     OW97554   5.772   8.328   7.898 -0.4323  0.1920 -0.4359
63480SOL    HW197555   5.814   8.409   7.866 -1.1848  0.8598  0.2287
63480SOL    HW297556   5.679   8.342   7.883 -0.5904 -0.4571 -0.0889
63481SOL     OW97557   3.959  12.394  10.502  0.6152  0.1011 -0.0253
63481SOL    HW197558   3.927  12.418  10.589  2.9900  2.8042  0.2519
63481SOL    HW297559   4.035  12.339  10.519  1.2911  0.9207 -0.3462
63482SOL     OW97560   6.456   4.418   3.294 -0.1851  0.8771  0.0880
63482SOL    HW197561   6.476   4.456   3.380 -2.0669  2.2208 -0.0022
63482SOL    HW297562   6.430   4.328   3.314 -2.3363  1.6827  1.2149
63483SOL     OW97563   8.361   1.583   0.172 -0.1880  0.3726 -0.1076
63483SOL    HW197564   8.407   1.635   0.106  0.0270  2.4729  1.5836
63483SOL    HW297565   8.427   1.566   0.239 -0.9214  0.1423  0.5725
63484SOL     OW97566   1.103   9.236  12.781 -0.3699 -0.4169  0.4114
63484SOL    HW197567   1.087   9.311  12.839 -2.1674 -0.2298 -0.2731
63484SOL    HW297568   1.143   9.275  12.703 -0.0904 -0.3600  0.5798
63485SOL     OW97569   6.955   8.139  11.059  0.0465  0.4318 -0.0999
63485SOL    HW197570   7.043   8.111  11.083 -0.5650 -0.7632  0.8602
63485SOL    HW297571   6.934   8.086  10.982  0.3411  1.0703 -0.6259
63486SOL     OW97572   0.736   0.947  12.770  0.4298  0.2460 -0.2290
63486SOL    HW197573   0.816   0.997  12.783  1.5352 -1.4565 -0.1355
63486SOL    HW297574   0.762   0.856  12.784 -1.0295 -0.5706 -2.2646
63487SOL     OW97575  10.863   6.292   4.955 -0.7591 -0.0028 -0.1209
63487SOL    HW197576  10.924   6.225   4.925  0.7986  1.8897 -1.4056
63487SOL    HW297577  10.811   6.314   4.877  0.2868  1.8038 -0.3780
63488SOL     OW97578   2.999   6.636   2.230 -0.1202  0.6054 -0.9931
63488SOL    HW197579   3.072   6.574   2.222 -1.1309 -0.3873 -3.8886
63488SOL    HW297580   2.961   6.618   2.315  1.1345 -1.0454 -0.7351
63489SOL     OW97581   5.247   9.418   1.016 -0.0917 -0.0944 -0.2184
63489SOL    HW197582   5.153   9.427   1.031  0.0493 -1.1742  1.7323
63489SOL    HW297583   5.287   9.469   1.085  0.8742  2.4562 -2.4995
63490SOL     OW97584   2.784   7.023   2.258 -0.1607  0.0282  0.4493
63490SOL    HW197585   2.744   7.054   2.177 -1.2124  0.8095  1.2496
63490SOL    HW297586   2.722   6.960   2.293  0.7125 -1.0002  0.2200
63491SOL     OW97587   0.247   6.963   4.493 -0.2822 -0.2576  0.1880
63491SOL    HW197588   0.199   6.897   4.442 -1.8418 -0.5755  1.9416
63491SOL    HW297589   0.179   7.012   4.538  0.9732  1.0378  0.7459
63492SOL     OW97590   9.861   2.242   9.459 -0.2659  0.6424 -0.2164
63492SOL    HW197591   9.771   2.246   9.426 -0.2459  1.1276 -0.2237
63492SOL    HW297592   9.864   2.309   9.527  0.4191  1.4492 -1.0232
63493SOL     OW97593   3.674   3.695   1.304  0.1716  0.4241  0.1800
63493SOL    HW197594   3.676   3.791   1.301 -1.3813  0.4676 -0.7348
63493SOL    HW297595   3.764   3.669   1.282  0.3320  1.6691 -0.8220
63494SOL     OW97596   4.298   1.736  11.700  0.0568 -0.0473 -0.0657
63494SOL    HW197597   4.248   1.734  11.619  1.6292  0.6984 -1.1259
63494SOL    HW297598   4.350   1.655  11.698  0.1819  0.0275  0.1330
63495SOL     OW97599   7.437   9.735   7.133  0.0168 -0.0616 -0.4351
63495SOL    HW197600   7.401   9.800   7.073  0.2945 -0.5402 -1.1316
63495SOL    HW297601   7.502   9.687   7.081  0.8818  0.0715  0.4871
63496SOL     OW97602   0.351   7.907  12.416  0.7347  0.7903 -0.0012
63496SOL    HW197603   0.259   7.886  12.405  0.7373  1.1815 -0.8214
63496SOL    HW297604   0.376   7.862  12.497 -0.6683  2.2933  1.3481
63497SOL     OW97605   0.746   0.724   8.777 -0.0197  0.2789  0.2723
63497SOL    HW197606   0.691   0.798   8.752 -1.0027 -1.0122 -1.7009
63497SOL    HW297607   0.822   0.763   8.819 -1.8697  2.2107  2.0565
63498SOL     OW97608   8.454   3.891   7.297  0.6467  0.7612  0.3630
63498SOL    HW197609   8.546   3.868   7.310  0.9251  1.6214  0.0031
63498SOL    HW297610   8.447   3.981   7.330 -0.3660  0.2568  1.5929
63499SOL     OW97611  10.321   2.101   5.658  0.2202  0.4362 -0.0196
63499SOL    HW197612  10.247   2.095   5.597 -1.4409  0.0795  1.9108
63499SOL    HW297613  10.322   2.193   5.684  0.7973  0.5464 -0.4247
63500SOL     OW97614   4.851   7.328   1.842  0.2728  0.1335  0.4110
63500SOL    HW197615   4.927   7.273   1.859  0.6328  0.2366 -0.7797
63500SOL    HW297616   4.881   7.391   1.776 -1.0122 -0.2059 -0.5265
63501SOL     OW97617   8.764   9.517   7.828  0.0749  0.1201  0.4211
63501SOL    HW197618   8.806   9.587   7.778 -2.8843  0.6937 -1.5636
63501SOL    HW297619   8.824   9.499   7.900  2.1455  2.9349 -0.4189
63502SOL     OW97620   7.344   8.399  12.747 -0.0340  0.0049 -0.1919
63502SOL    HW197621   7.402   8.421  12.674  1.7794  0.5243  1.3425
63502SOL    HW297622   7.402   8.373  12.818 -1.7901 -1.4995  0.7921
63503SOL     OW97623   4.752   1.254   9.808 -1.0409  0.2287  0.3809
63503SOL    HW197624   4.668   1.286   9.773 -1.1876 -0.6680 -0.1442
63503SOL    HW297625   4.774   1.315   9.878 -0.5989  2.2988 -1.4501
63504SOL     OW97626   2.839  12.447   0.464  0.5844 -0.0534 -0.5115
63504SOL    HW197627   2.925  12.477   0.435  0.2014  0.9333 -0.6672
63504SOL    HW297628   2.858  12.372   0.521  1.6701  1.0867  0.7022
63505SOL     OW97629  11.956   1.590   3.692  0.4006  0.5804 -0.1310
63505SOL    HW197630  11.880   1.580   3.748  0.5525  1.1387  0.1795
63505SOL    HW297631  11.938   1.533   3.617  0.2021 -0.1749  0.4798
63506SOL     OW97632   7.746   7.690  11.016 -0.5511  0.2779 -0.1600
63506SOL    HW197633   7.761   7.615  11.073 -1.5041 -1.0615 -1.6205
63506SOL    HW297634   7.825   7.695  10.962 -1.1750 -0.7288 -1.1932
63507SOL     OW97635   1.936   7.933   2.421  0.4996 -0.3334  0.4154
63507SOL    HW197636   1.957   7.841   2.411 -0.0689 -0.4668  0.4044
63507SOL    HW297637   1.934   7.967   2.331  1.1040 -0.2158  0.4434
63508SOL     OW97638   1.476   0.546  11.397  0.5677  0.3311  0.2042
63508SOL    HW197639   1.390   0.528  11.436  1.0201 -1.7447  0.3261
63508SOL    HW297640   1.525   0.589  11.468 -0.5951  2.4022 -0.1502
63509SOL     OW97641   7.811   0.790  12.582  0.7337 -0.1321  0.1322
63509SOL    HW197642   7.868   0.757  12.652  1.4708 -2.1839 -1.3643
63509SOL    HW297643   7.869   0.841  12.526  0.5004  0.0890  0.0902
63510SOL     OW97644   0.909  10.578   5.426 -0.1599 -0.0627  0.1983
63510SOL    HW197645   0.912  10.541   5.515  1.3387 -2.9747 -0.9362
63510SOL    HW297646   0.998  10.570   5.394 -0.5857  1.3249 -1.4642
63511SOL     OW97647   7.518   8.510   4.845  0.1213 -0.5194 -0.2319
63511SOL    HW197648   7.552   8.427   4.877  2.5818  0.2825 -0.5468
63511SOL    HW297649   7.474   8.488   4.762 -0.9577 -1.7326  0.6283
63512SOL     OW97650   8.496   2.585   6.063 -0.3596  0.2625 -0.7561
63512SOL    HW197651   8.479   2.680   6.063 -0.2991  0.3081  1.4435
63512SOL    HW297652   8.414   2.546   6.033 -1.5793  0.8915  1.5695
63513SOL     OW97653  12.620  12.280   0.021 -0.6524  0.1591 -0.1389
63513SOL    HW197654  12.697  12.281  -0.036 -0.3598  2.6538  0.1914
63513SOL    HW297655  12.567  12.207  -0.011  1.9978 -1.9223 -0.1115
63514SOL     OW97656  11.403   9.742   4.255 -0.3667 -0.5909 -0.0072
63514SOL    HW197657  11.308   9.745   4.248 -0.5099 -0.9480  1.4417
63514SOL    HW297658  11.435   9.781   4.173 -1.7573  0.5504 -0.0316
63515SOL     OW97659   3.695   8.969   6.701  1.1197 -0.4423  0.3054
63515SOL    HW197660   3.680   9.027   6.775  0.7614  1.3670 -1.0954
63515SOL    HW297661   3.631   8.898   6.712 -0.3533  0.8847  0.6640
63516SOL     OW97662   9.309  12.652   8.545  0.1718  0.1256 -0.2476
63516SOL    HW197663   9.248  12.726   8.546  0.4484  0.3530 -0.0280
63516SOL    HW297664   9.390  12.687   8.583  1.6598  0.8486 -3.6312
63517SOL     OW97665   3.856  11.732   3.153  0.3419  0.5941 -0.1446
63517SOL    HW197666   3.944  11.761   3.131  1.1961 -1.3958  0.4205
63517SOL    HW297667   3.829  11.677   3.080  0.1089  0.1392  0.2758
63518SOL     OW97668   0.329   3.512   3.633  0.2385  0.1178  1.3527
63518SOL    HW197669   0.242   3.477   3.650 -0.7744  1.2682 -1.0751
63518SOL    HW297670   0.388   3.447   3.672 -1.6483 -1.5302  1.6467
63519SOL     OW97671   3.028   7.875  12.061  0.2160 -0.4149  0.0197
63519SOL    HW197672   3.091   7.807  12.085  0.6923  0.1847  0.5216
63519SOL    HW297673   3.075   7.930  11.999  0.3802  0.3208  0.7742
63520SOL     OW97674   4.015  11.529   1.224 -0.4941  0.1192  0.3595
63520SOL    HW197675   4.061  11.612   1.238 -1.4353  1.0388 -1.6566
63520SOL    HW297676   3.927  11.545   1.258 -1.3235  0.7373 -1.9030
63521SOL     OW97677   8.439   3.105   2.442 -0.2251 -0.1867  0.2773
63521SOL    HW197678   8.451   3.071   2.531  0.8973 -0.0821  0.1915
63521SOL    HW297679   8.363   3.058   2.408  0.3940 -1.5324  0.6846
63522SOL     OW97680   2.815  10.567   4.278  0.6758  0.0171  0.2175
63522SOL    HW197681   2.799  10.588   4.370 -0.2272 -2.5564  0.7295
63522SOL    HW297682   2.751  10.499   4.257  2.5162 -1.2901 -1.5719
63523SOL     OW97683  10.952   6.976   0.443  0.9206 -0.0197  0.0101
63523SOL    HW197684  10.887   6.912   0.470  0.6376  0.1524 -0.2606
63523SOL    HW297685  10.952   6.971   0.347  0.2021  1.0631 -0.0632
63524SOL     OW97686  11.542   5.961   0.512  0.3866  0.3202  0.5160
63524SOL    HW197687  11.554   5.926   0.600 -0.7873 -1.2225  0.0965
63524SOL    HW297688  11.450   5.988   0.509  0.4483  0.4656 -0.2004
63525SOL     OW97689  12.877   7.258   4.169  0.1519 -0.3790 -0.0294
63525SOL    HW197690  12.816   7.325   4.137  0.3853 -0.1315  0.0383
63525SOL    HW297691  12.947   7.256   4.104  0.9385  0.5652  0.7589
63526SOL     OW97692   1.306   2.921  12.826 -0.2368  1.0604 -0.1110
63526SOL    HW197693   1.396   2.932  12.857 -0.2055  0.4472  0.0351
63526SOL    HW297694   1.290   2.827  12.834 -1.0494  1.2231  0.3111
63527SOL     OW97695   1.694   3.742   2.385 -0.0126 -0.1803  0.1246
63527SOL    HW197696   1.752   3.817   2.394 -0.1691  0.2107 -1.7614
63527SOL    HW297697   1.747   3.676   2.341 -0.4064 -0.5238  0.1567
63528SOL     OW97698   8.541   7.512   2.496 -0.1488  0.3405 -0.1601
63528SOL    HW197699   8.616   7.457   2.475 -0.0255  0.2371  0.5190
63528SOL    HW297700   8.547   7.585   2.434 -0.2390 -0.3294 -0.9734
63529SOL     OW97701   8.167   6.014   0.480 -0.6931  0.1887  0.1665
63529SOL    HW197702   8.089   5.959   0.467 -2.4819  2.5244  0.2081
63529SOL    HW297703   8.144   6.097   0.438  1.6912  1.0715  0.4722
63530SOL     OW97704  10.658  10.870   7.653 -0.2674 -0.4256 -0.3880
63530SOL    HW197705  10.628  10.817   7.727 -1.0093 -0.3264 -0.6069
63530SOL    HW297706  10.614  10.833   7.577 -0.3432  0.1407 -0.6260
63531SOL     OW97707   3.165   0.476   3.160 -0.1561  0.2694 -0.0128
63531SOL    HW197708   3.101   0.412   3.191 -0.2095  0.2740 -0.1112
63531SOL    HW297709   3.164   0.466   3.064 -0.1897  0.4399 -0.0306
63532SOL     OW97710  10.474   1.593   9.040 -0.3656 -0.0819  0.3171
63532SOL    HW197711  10.486   1.610   9.134  0.8904 -2.3920  0.6681
63532SOL    HW297712  10.517   1.666   8.996  3.3324 -1.2406  1.6234
63533SOL     OW97713  12.640   1.480   5.370 -0.0949  0.1093 -0.2990
63533SOL    HW197714  12.591   1.428   5.307  0.8024 -0.2305 -0.7279
63533SOL    HW297715  12.726   1.438   5.375 -0.4473 -0.5194  1.9271
63534SOL     OW97716   1.242   1.426   3.314  0.0422  0.3211  0.2666
63534SOL    HW197717   1.201   1.394   3.395  2.1530 -1.5629  0.6972
63534SOL    HW297718   1.245   1.349   3.257  2.8535  0.3324  0.2725
63535SOL     OW97719   4.022   9.620   3.911 -0.0174 -0.3990 -0.3740
63535SOL    HW197720   3.969   9.685   3.865 -0.2091 -0.0402  0.3383
63535SOL    HW297721   3.958   9.567   3.959  0.2256 -0.3679 -0.0133
63536SOL     OW97722   3.729   2.258   2.948 -0.1116  0.2864 -0.1733
63536SOL    HW197723   3.757   2.212   2.868  0.2394 -0.5002  0.3852
63536SOL    HW297724   3.762   2.347   2.937  0.3858  0.0496 -0.6886
63537SOL     OW97725   5.399  12.478   4.110  0.1135  0.0464 -0.3770
63537SOL    HW197726   5.451  12.494   4.032  1.8064 -0.5020  0.5842
63537SOL    HW297727   5.461  12.442   4.173 -1.4705 -0.7421  0.8005
63538SOL     OW97728   3.663   8.216   2.022  0.4419 -0.0936  0.6997
63538SOL    HW197729   3.717   8.145   1.988  1.5492  0.3036  1.5668
63538SOL    HW297730   3.586   8.216   1.966 -0.0290 -2.5469  1.2397
63539SOL     OW97731  10.832   4.262   9.118 -0.0646 -0.0035 -0.2309
63539SOL    HW197732  10.785   4.301   9.044 -0.9786 -1.8064 -0.6570
63539SOL    HW297733  10.924   4.263   9.091 -0.2545  0.4094 -0.8903
63540SOL     OW97734   8.092  10.077   3.933  0.0056 -0.2116  0.0306
63540SOL    HW197735   8.068  10.154   3.985 -0.1856 -0.2222 -0.0421
63540SOL    HW297736   8.019  10.065   3.873 -0.2228 -0.7850  0.4209
63541SOL     OW97737   0.713   0.922   0.441 -0.2144 -0.4566 -0.4248
63541SOL    HW197738   0.805   0.908   0.420  0.2870  2.1711 -0.4256
63541SOL    HW297739   0.711   1.010   0.480 -2.8431 -0.0147 -1.3401
63542SOL     OW97740   1.345   9.443   1.276  0.3547 -0.1192  0.4177
63542SOL    HW197741   1.369   9.472   1.188  3.0130 -1.1371  0.7108
63542SOL    HW297742   1.268   9.386   1.262  0.0958  0.5429 -1.0958
63543SOL     OW97743   0.990   2.538  11.479 -0.3689 -0.0169  0.4894
63543SOL    HW197744   0.923   2.478  11.510  0.5360 -0.7012  1.1835
63543SOL    HW297745   1.038   2.564  11.558 -1.2321  2.2723  0.3170
63544SOL     OW97746   5.712  11.331   0.609  0.1425 -0.0998 -0.2561
63544SOL    HW197747   5.717  11.239   0.580 -0.2028  0.0425 -0.7828
63544SOL    HW297748   5.655  11.373   0.544 -1.2523  0.0855  1.0450
63545SOL     OW97749   4.104   3.476   8.051  0.3267 -0.1642  0.4960
63545SOL    HW197750   4.039   3.442   7.990 -0.5079 -0.1677  1.3577
63545SOL    HW297751   4.128   3.399   8.104  0.8440 -0.1038  0.3567
63546SOL     OW97752  12.138   7.149   9.095  0.3606 -0.1301 -0.1612
63546SOL    HW197753  12.214   7.181   9.144 -0.2543  0.3873  0.4636
63546SOL    HW297754  12.172   7.074   9.045  1.8097  1.3636 -1.5733
63547SOL     OW97755   7.451  10.032  12.861  0.8628  0.1120  0.2733
63547SOL    HW197756   7.376  10.020  12.803 -0.4343  1.3398  1.6102
63547SOL    HW297757   7.495   9.947  12.861 -0.8931 -0.8483 -0.0735
63548SOL     OW97758   0.695  12.388   1.857 -0.3443  0.4435 -0.0031
63548SOL    HW197759   0.719  12.332   1.931 -2.1609 -0.5625 -0.1130
63548SOL    HW297760   0.733  12.473   1.877  0.5799 -0.2478  1.2773
63549SOL     OW97761   0.853   6.457  10.021 -0.6746  0.0717  0.1520
63549SOL    HW197762   0.871   6.545   9.986  2.2985 -0.2885  0.5844
63549SOL    HW297763   0.836   6.404   9.943 -0.3758  0.5794 -0.2663
63550SOL     OW97764   5.673   9.184   6.319  0.0390  0.1531  0.5384
63550SOL    HW197765   5.633   9.104   6.351 -0.1060 -0.1035 -0.2766
63550SOL    HW297766   5.759   9.186   6.361 -0.1655 -0.1508  0.9768
63551SOL     OW97767   4.031   0.077   0.161  0.0338  0.2155 -0.1154
63551SOL    HW197768   4.113   0.114   0.194 -0.0723 -0.3820  0.8605
63551SOL    HW297769   4.051   0.048   0.073  0.9505 -0.1593  0.2054
63552SOL     OW97770   7.450   0.761  11.217 -0.3502 -0.5182  0.0453
63552SOL    HW197771   7.393   0.712  11.277 -0.3348 -1.2298 -0.5123
63552SOL    HW297772   7.407   0.846  11.208 -0.9339 -0.7911  0.2022
63553SOL     OW97773   7.816  11.790   3.119 -0.3007 -0.2494  0.1762
63553SOL    HW197774   7.886  11.812   3.058 -0.1151  0.5989  0.6893
63553SOL    HW297775   7.830  11.847   3.194 -1.8487  0.3331  0.0662
63554SOL     OW97776   0.365   3.457   1.903 -1.2162  0.1240  0.1619
63554SOL    HW197777   0.308   3.441   1.979 -1.4983  0.7856  0.0936
63554SOL    HW297778   0.430   3.387   1.907 -1.5208 -0.1318  0.7385
63555SOL     OW97779   1.573   6.716  11.914 -0.0118  0.0763 -0.3785
63555SOL    HW197780   1.531   6.651  11.858 -0.7347  1.5556 -1.6489
63555SOL    HW297781   1.505   6.740  11.978  1.2660 -2.6960  2.2706
63556SOL     OW97782   3.806   9.286   1.614 -0.1994 -0.1822  0.3754
63556SOL    HW197783   3.820   9.191   1.606 -1.7832 -0.3476 -1.0292
63556SOL    HW297784   3.821   9.319   1.525  0.5497  0.9525  0.8969
63557SOL     OW97785   4.563   4.997   9.769  0.2608 -0.0409 -0.6058
63557SOL    HW197786   4.552   5.076   9.716  1.8816  0.2777 -0.5254
63557SOL    HW297787   4.566   4.926   9.705  0.5154  0.1595 -0.8208
63558SOL     OW97788   8.404   6.511   2.530  0.6711  0.5466 -0.1202
63558SOL    HW197789   8.417   6.491   2.437 -3.2110  0.4055 -0.8211
63558SOL    HW297790   8.410   6.606   2.535 -0.4470  0.6752 -0.8454
63559SOL     OW97791   3.832   0.893   0.200 -0.1854 -0.9516  0.0842
63559SOL    HW197792   3.844   0.911   0.107  1.4942  0.2993  0.4924
63559SOL    HW297793   3.744   0.924   0.220 -0.6369 -1.4048 -1.1033
63560SOL     OW97794  10.861   4.599  11.275  0.2379  0.1834 -0.4857
63560SOL    HW197795  10.952   4.578  11.296  0.3513 -0.1916 -1.2844
63560SOL    HW297796  10.809   4.553  11.340  0.5468 -1.4037 -1.3194
63561SOL     OW97797  12.455   0.690   5.382 -1.0063  0.0203 -0.1558
63561SOL    HW197798  12.391   0.634   5.338 -1.9391  0.6613  0.3599
63561SOL    HW297799  12.538   0.643   5.372 -1.4628 -0.5974 -1.2350
63562SOL     OW97800   5.079   2.572   3.137  0.1818  0.0432 -0.1261
63562SOL    HW197801   5.145   2.510   3.168 -0.3159 -0.6482 -0.4329
63562SOL    HW297802   5.113   2.603   3.053 -0.6617 -1.5811 -1.0997
63563SOL     OW97803   4.932  12.782   2.082  0.3939  0.1104 -0.0016
63563SOL    HW197804   4.982  12.858   2.112  1.1158 -0.2998 -0.1501
63563SOL    HW297805   4.986  12.707   2.104 -0.6091 -0.4229  0.7344
63564SOL     OW97806   3.950   3.601   3.625 -0.2837 -0.8481 -0.5079
63564SOL    HW197807   3.960   3.513   3.589  1.8146 -0.0667 -2.0786
63564SOL    HW297808   3.915   3.653   3.552 -0.2559 -0.1280 -0.0136
63565SOL     OW97809   3.187   1.416   3.075  0.1792  0.4391 -0.0710
63565SOL    HW197810   3.239   1.337   3.087 -0.6619 -0.0438  0.5446
63565SOL    HW297811   3.124   1.414   3.147 -0.3876  1.2477 -0.5259
63566SOL     OW97812  10.727   7.421   0.443 -0.1264 -0.1753 -0.3585
63566SOL    HW197813  10.793   7.352   0.436  0.9011  0.6537  0.5638
63566SOL    HW297814  10.729   7.465   0.358 -0.5941 -1.1044 -0.8553
63567SOL     OW97815   8.256   3.390   6.629 -0.9695 -0.4033  0.1108
63567SOL    HW197816   8.208   3.308   6.624  0.3482 -1.1603 -0.7828
63567SOL    HW297817   8.190   3.458   6.617 -2.0135 -1.3368  0.4187
63568SOL     OW97818   6.959  11.458   8.392  0.3102 -0.2171  0.6816
63568SOL    HW197819   6.911  11.402   8.331  1.3258  1.1099 -1.4265
63568SOL    HW297820   7.050  11.451   8.364  0.4286  2.7676  0.0778
63569SOL     OW97821   7.925   1.215  10.910 -0.4923 -0.6943 -0.6319
63569SOL    HW197822   7.830   1.221  10.915 -0.4875 -0.9175 -0.2337
63569SOL    HW297823   7.957   1.294  10.954 -0.4983 -0.1026 -1.6635
63570SOL     OW97824   4.022   5.770   2.061  0.1929  0.2452 -0.2720
63570SOL    HW197825   4.055   5.692   2.016  0.3113  0.6909 -0.9737
63570SOL    HW297826   4.089   5.837   2.044  0.1608  0.4705  0.4397
63571SOL     OW97827  10.524  10.753   0.423  0.1532  0.3965  0.2280
63571SOL    HW197828  10.429  10.760   0.413  0.1916  0.5138 -0.0747
63571SOL    HW297829  10.550  10.832   0.469 -0.1597 -0.6397  2.2879
63572SOL     OW97830  11.919   1.019   1.750  0.0907 -0.0347 -0.1413
63572SOL    HW197831  11.999   1.020   1.697  0.1491  2.1099 -0.1173
63572SOL    HW297832  11.924   1.099   1.802 -1.1215 -0.8820  1.3676
63573SOL     OW97833  12.559   5.357   2.452 -0.2302  0.1678  0.3156
63573SOL    HW197834  12.654   5.372   2.449 -0.1941 -0.1348 -0.1308
63573SOL    HW297835  12.549   5.264   2.434 -0.5774  0.0625  1.0448
63574SOL     OW97836   8.964   4.851   8.435  0.0813  0.3369  0.0751
63574SOL    HW197837   9.046   4.867   8.482 -1.9443  0.5151  3.9588
63574SOL    HW297838   8.921   4.936   8.432 -0.5575 -0.0024 -0.7410
63575SOL     OW97839  11.017   3.446   0.658 -0.3452  0.0764  0.5024
63575SOL    HW197840  10.940   3.390   0.674 -0.9825  0.9920  0.7265
63575SOL    HW297841  11.059   3.407   0.581 -0.2196 -1.2766  1.2230
63576SOL     OW97842   2.897  10.416   9.849  0.1526  0.3772  0.1153
63576SOL    HW197843   2.971  10.373   9.806 -0.4797  0.7076 -1.3754
63576SOL    HW297844   2.921  10.508   9.851 -0.3111  0.5196 -0.5965
63577SOL     OW97845   1.049  12.724   2.994 -0.0434 -0.3720  0.1375
63577SOL    HW197846   1.016  12.635   2.980  1.0778 -0.8694  0.5299
63577SOL    HW297847   1.138  12.711   3.027 -0.8521  0.8195  3.0993
63578SOL     OW97848   3.626  10.620  12.400  0.1086 -0.1090 -0.3104
63578SOL    HW197849   3.666  10.534  12.410  1.0074  0.5780  4.2235
63578SOL    HW297850   3.696  10.675  12.365  0.7544 -0.4848  0.3599
63579SOL     OW97851  10.061   3.075   7.296 -0.3554 -0.4348 -0.0254
63579SOL    HW197852  10.081   3.156   7.249  0.4564 -1.0368 -0.7351
63579SOL    HW297853  10.030   3.104   7.382  0.5281  0.6045 -0.0452
63580SOL     OW97854   4.147   3.878   8.718 -0.4730  0.1198 -0.1113
63580SOL    HW197855   4.204   3.955   8.720 -0.8243  0.3760  0.3387
63580SOL    HW297856   4.182   3.824   8.647 -0.3236  0.7766 -0.5515
63581SOL     OW97857   3.168   6.234   3.042 -0.5891  0.4273  0.0017
63581SOL    HW197858   3.240   6.190   3.086  1.6465  1.4468 -2.3941
63581SOL    HW297859   3.095   6.172   3.046  1.1155 -1.6296  0.4917
63582SOL     OW97860   6.743   9.784  11.642 -0.1418  0.5736 -0.0665
63582SOL    HW197861   6.695   9.856  11.602  1.4279  2.6784  1.5639
63582SOL    HW297862   6.739   9.802  11.736  1.0931 -0.9400  0.3248
63583SOL     OW97863   9.530   1.407   3.721  0.0646  0.0820 -0.3547
63583SOL    HW197864   9.507   1.458   3.798 -0.0499 -0.5544  0.0458
63583SOL    HW297865   9.446   1.379   3.684  0.1322 -0.3780 -0.1751
63584SOL     OW97866   7.985   0.615   7.046 -0.1445  0.2398  0.2206
63584SOL    HW197867   7.897   0.583   7.029 -0.4305  0.9647  0.2728
63584SOL    HW297868   8.038   0.537   7.057 -0.5190 -0.2274 -1.1245
63585SOL     OW97869   2.756   0.472  12.883  0.5388  0.3066 -0.3251
63585SOL    HW197870   2.839   0.521  12.882  0.3707  0.5858 -1.0304
63585SOL    HW297871   2.689   0.540  12.875  0.2364  0.0849  0.3061
63586SOL     OW97872   7.150   3.297   6.314 -0.6386  0.8174  0.6668
63586SOL    HW197873   7.172   3.391   6.308  0.1436  0.5935 -0.2083
63586SOL    HW297874   7.235   3.254   6.323 -1.0370  0.2197  1.7147
63587SOL     OW97875   5.892   6.164  11.896  0.2790 -0.4643 -0.7693
63587SOL    HW197876   5.966   6.194  11.844  0.5968 -1.9937 -1.2768
63587SOL    HW297877   5.816   6.172  11.838  0.4524 -1.1240 -1.0962
63588SOL     OW97878   8.220  11.625   4.760  0.2118  0.2779  0.0967
63588SOL    HW197879   8.293  11.630   4.822  0.6177 -0.2640 -0.3331
63588SOL    HW297880   8.226  11.705   4.709 -1.4537  1.8366  2.1991
63589SOL     OW97881  12.448   0.879  12.770  0.6488  0.2249 -0.1317
63589SOL    HW197882  12.431   0.819  12.842 -1.2271  1.3940  0.4604
63589SOL    HW297883  12.425   0.830  12.691 -1.1030  0.1914  0.3562
63590SOL     OW97884   0.290   2.775   7.661 -0.0683 -0.3720  0.1666
63590SOL    HW197885   0.304   2.681   7.665 -3.1628 -0.9875 -0.8790
63590SOL    HW297886   0.262   2.800   7.749 -3.1558 -1.2985 -0.4339
63591SOL     OW97887   7.149  12.064  10.303  0.5044 -0.2994  0.1448
63591SOL    HW197888   7.244  12.076  10.305  0.6218 -1.1363  2.4535
63591SOL    HW297889   7.127  12.032  10.391 -1.7200 -1.5872 -0.7961
63592SOL     OW97890   0.859   0.282  11.180  0.1507 -0.3811  0.7113
63592SOL    HW197891   0.919   0.232  11.236 -0.6736  1.7944  3.7966
63592SOL    HW297892   0.782   0.225  11.171  0.1870 -0.7065  2.1380
63593SOL     OW97893   0.617   6.880   5.503  0.2237  0.0938 -0.5509
63593SOL    HW197894   0.592   6.970   5.481  1.7788  0.4701 -0.8754
63593SOL    HW297895   0.581   6.867   5.591  2.0453  1.9394  0.5586
63594SOL     OW97896   5.514   8.676   6.997  0.3193 -0.4253  0.1898
63594SOL    HW197897   5.527   8.706   7.086  0.4564 -1.7025  0.6272
63594SOL    HW297898   5.468   8.592   7.006 -1.3711  0.3143 -1.0258
63595SOL     OW97899   3.789   9.012  12.457 -0.0349 -0.1250 -0.2382
63595SOL    HW197900   3.789   9.097  12.501 -0.3131 -0.5268  0.5645
63595SOL    HW297901   3.869   9.012  12.404 -0.0147  0.6173 -0.2211
63596SOL     OW97902   3.596  12.544   3.800 -0.5798 -0.2103  0.1342
63596SOL    HW197903   3.586  12.494   3.719 -0.5156 -0.9935  0.5953
63596SOL    HW297904   3.549  12.626   3.784  0.4513  0.1567 -1.1189
63597SOL     OW97905   7.642  12.704  12.469 -0.3502  0.3171 -0.4253
63597SOL    HW197906   7.726  12.747  12.484  0.0611 -1.2207  2.2580
63597SOL    HW297907   7.655  12.654  12.388  0.3851  2.1586 -1.4972
63598SOL     OW97908   2.897   7.491  10.998 -0.3788  0.1934  0.4865
63598SOL    HW197909   2.963   7.541  10.950 -0.6475  0.0803 -0.0039
63598SOL    HW297910   2.839   7.557  11.035  0.2517  0.3147  1.2869
63599SOL     OW97911  12.357   2.433   7.042  0.0924 -0.2603  0.0795
63599SOL    HW197912  12.424   2.480   7.092  0.9659 -1.1675 -0.2165
63599SOL    HW297913  12.406   2.385   6.976 -1.0480  1.1606 -1.8994
63600SOL     OW97914   1.595   4.011   0.838  0.1666 -0.2871  0.0605
63600SOL    HW197915   1.603   4.104   0.817  1.0915 -0.1607  0.8825
63600SOL    HW297916   1.663   3.995   0.904 -1.3874 -1.0351  1.5817
63601SOL     OW97917   2.529   0.621  12.798 -0.3777 -1.0297  0.8564
63601SOL    HW197918   2.441   0.647  12.823  0.3186  0.7325  1.6648
63601SOL    HW297919   2.519   0.582  12.711 -1.9388 -0.8932  0.9505
63602SOL     OW97920   3.178  10.295   3.513  0.0775 -0.3436 -0.3320
63602SOL    HW197921   3.151  10.220   3.564 -0.8654  0.5618  0.5446
63602SOL    HW297922   3.269  10.277   3.488  0.0356 -1.4953  0.3312
63603SOL     OW97923   5.528  10.117   9.646  0.0843 -0.0274  0.2726
63603SOL    HW197924   5.474  10.153   9.716  0.1950 -0.5054  0.6076
63603SOL    HW297925   5.617  10.144   9.667  0.0889  0.0188  0.1936
63604SOL     OW97926   0.504   8.097  10.276  0.2708  0.0796  0.2628
63604SOL    HW197927   0.504   8.069  10.368 -0.1434 -1.9937 -0.3030
63604SOL    HW297928   0.574   8.046  10.235 -1.2047 -0.9934 -1.0561
63605SOL     OW97929   9.835   1.918   7.674 -0.2591 -0.8257  0.1167
63605SOL    HW197930   9.862   1.947   7.587  0.1661 -2.4550 -0.3332
63605SOL    HW297931   9.761   1.975   7.697  1.0829  1.1555 -0.2784
63606SOL     OW97932   1.823  12.001   2.656 -0.5910 -0.2847 -0.2292
63606SOL    HW197933   1.904  12.026   2.611 -1.3375  0.7793 -1.0113
63606SOL    HW297934   1.818  12.059   2.731 -1.1818  0.4209 -0.8010
63607SOL     OW97935   9.292  12.299   7.632  0.0998 -0.1773 -0.1135
63607SOL    HW197936   9.304  12.209   7.601  0.6319 -0.1049 -0.1317
63607SOL    HW297937   9.322  12.297   7.723  2.0597  0.4207 -0.7102
63608SOL     OW97938   1.961  12.932   6.746  0.0418 -0.0444 -0.0168
63608SOL    HW197939   1.898  12.978   6.802  0.3732  2.2656 -1.4157
63608SOL    HW297940   2.040  12.926   6.798 -0.4652 -0.4348  0.7337
63609SOL     OW97941   0.243   8.110   6.874  0.0628  0.2025  0.1878
63609SOL    HW197942   0.247   8.096   6.780  1.0151  0.6975  0.1497
63609SOL    HW297943   0.284   8.195   6.888  0.4179 -0.1062  1.1078
63610SOL     OW97944   6.170   6.229   0.114  0.3788  0.3376  0.2808
63610SOL    HW197945   6.083   6.208   0.078  0.7807  0.5259 -0.8408
63610SOL    HW297946   6.208   6.289   0.050  2.0071 -1.0540 -0.1337
63611SOL     OW97947  10.966  12.023   1.954  0.7012  0.5227 -0.2253
63611SOL    HW197948  11.055  12.057   1.944  0.8625  0.0370 -0.4890
63611SOL    HW297949  10.963  11.987   2.042  0.5140  1.2589  0.0746
63612SOL     OW97950   6.190   8.628   7.835 -0.3646  0.2604  0.7500
63612SOL    HW197951   6.203   8.710   7.789 -1.1426 -0.6357 -1.1935
63612SOL    HW297952   6.264   8.573   7.808 -2.3579 -1.3096 -2.0487
63613SOL     OW97953   9.547   1.332   5.776 -0.5916 -0.1022  0.0386
63613SOL    HW197954   9.637   1.301   5.777 -0.4496  0.3153  0.5974
63613SOL    HW297955   9.527   1.345   5.683  0.0153  0.0802 -0.0694
63614SOL     OW97956   3.097   2.328  11.047 -0.3663 -0.7635 -0.0090
63614SOL    HW197957   3.021   2.368  11.005  0.1770 -1.0680 -1.3445
63614SOL    HW297958   3.156   2.307  10.974  0.6187 -1.3198  0.9217
63615SOL     OW97959   2.129   1.899  11.741 -0.5382  0.4701  0.2784
63615SOL    HW197960   2.186   1.829  11.771 -2.4226 -2.0880 -1.6418
63615SOL    HW297961   2.064   1.908  11.811 -1.2316 -0.9760 -0.1198
63616SOL     OW97962  12.819   7.058   4.372 -0.3826 -0.1201  0.0852
63616SOL    HW197963  12.832   7.102   4.288 -0.6815 -0.5675 -0.2028
63616SOL    HW297964  12.746   6.998   4.356  0.2124 -0.9401  0.3804
63617SOL     OW97965   9.723  12.396   2.403 -0.0634  0.1237 -0.0270
63617SOL    HW197966   9.797  12.456   2.397  1.5915 -1.6826  1.2195
63617SOL    HW297967   9.649  12.451   2.428  1.3235  1.6777  0.7872
63618SOL     OW97968   4.729   8.813   1.038  0.5884  0.0732  0.1674
63618SOL    HW197969   4.749   8.772   1.122 -2.4198 -0.9626  0.5141
63618SOL    HW297970   4.738   8.743   0.974 -0.3764 -0.0460  0.1442
63619SOL     OW97971   5.279   3.531  10.074  0.1069 -0.4580  0.6544
63619SOL    HW197972   5.374   3.547  10.069  0.1623 -1.0670 -2.6672
63619SOL    HW297973   5.240   3.616  10.055  0.0092 -0.5147  0.6004
63620SOL     OW97974   8.487   3.420   1.388 -0.1765 -0.2861  0.2056
63620SOL    HW197975   8.463   3.386   1.301 -0.4379  0.0389  0.1499
63620SOL    HW297976   8.559   3.481   1.370  1.2548 -1.7953  0.4431
63621SOL     OW97977  12.784  10.093   6.871 -0.4369 -0.4012 -0.4289
63621SOL    HW197978  12.749  10.177   6.901 -1.5482 -0.5156 -1.3650
63621SOL    HW297979  12.746  10.080   6.784  0.7988 -1.2325 -0.8833
63622SOL     OW97980   4.209   0.444   8.501  0.8695  0.9830 -0.5992
63622SOL    HW197981   4.271   0.397   8.445 -0.7154 -1.5642 -0.4033
63622SOL    HW297982   4.264   0.497   8.559  2.8497 -0.7776 -0.7558
63623SOL     OW97983   5.409   7.694  12.656 -0.7631 -0.3440  0.1150
63623SOL    HW197984   5.480   7.758  12.662 -0.6610 -0.4815  0.3925
63623SOL    HW297985   5.441   7.618  12.704 -0.7556 -0.7262 -0.4747
63624SOL     OW97986   0.944   7.435  12.524 -0.1979  0.0568  0.1312
63624SOL    HW197987   0.995   7.368  12.568  1.6102  0.9374 -0.5433
63624SOL    HW297988   0.997   7.515  12.532 -1.2739  0.9203 -0.9698
63625SOL     OW97989   6.254   8.568   2.908  0.0312 -0.4882 -0.2101
63625SOL    HW197990   6.286   8.608   2.989 -0.2793 -1.1034  0.2220
63625SOL    HW297991   6.238   8.477   2.930 -0.4901 -0.5646 -0.8458
63626SOL     OW97992   6.891   1.158   2.248  0.0217 -0.2813  0.3326
63626SOL    HW197993   6.863   1.198   2.166  0.1448  2.2810  1.4579
63626SOL    HW297994   6.830   1.085   2.261 -1.6882  0.8878 -0.7128
63627SOL     OW97995   1.923   3.500  11.555 -0.0155  0.5949  0.3754
63627SOL    HW197996   1.960   3.539  11.634  1.2789  3.3291 -1.4298
63627SOL    HW297997   1.868   3.569  11.517 -0.9980 -0.8135 -0.8976
63628SOL     OW97998   1.776   9.759   4.558  0.7862 -0.2493 -0.3885
63628SOL    HW197999   1.752   9.710   4.637  0.7285  1.0132  0.3902
63628SOL    HW298000   1.695   9.800   4.529  1.0832  0.4148 -0.3008
63629SOL     OW98001   6.576   5.969   5.107 -0.4061 -0.4837 -0.0092
63629SOL    HW198002   6.671   5.980   5.099 -0.3850 -0.8578 -0.2525
63629SOL    HW298003   6.542   6.058   5.096 -0.1482 -0.4797 -0.8682
63630SOL     OW98004   5.534  12.014   4.150  0.3064  0.0168  0.0696
63630SOL    HW198005   5.539  12.072   4.227 -0.6733  1.7284 -1.0740
63630SOL    HW298006   5.441  11.995   4.141  0.4427 -0.3639 -0.5452
63631SOL     OW98007   3.281  10.321   1.999  0.0649 -0.8600 -0.1409
63631SOL    HW198008   3.370  10.327   1.965 -0.4775 -0.0793 -1.5325
63631SOL    HW298009   3.289  10.270   2.080  1.8798 -0.0020  0.2574
63632SOL     OW98010   5.001  11.845   3.472 -0.0449 -0.2952  0.0349
63632SOL    HW198011   4.953  11.909   3.419  1.2336  1.1447  0.5604
63632SOL    HW298012   4.943  11.769   3.475 -1.0219  0.3230 -1.7401
63633SOL     OW98013  10.925  12.736   8.263  0.6402  0.1361 -0.7115
63633SOL    HW198014  11.019  12.736   8.281  0.5354 -0.1783 -0.1717
63633SOL    HW298015  10.910  12.820   8.219  1.2182  0.0637 -1.0636
63634SOL     OW98016   0.228  12.470  12.196  0.6335 -0.2639 -0.2676
63634SOL    HW198017   0.224  12.518  12.113 -3.8452 -0.5635 -0.5141
63634SOL    HW298018   0.215  12.378  12.171 -0.5861 -0.3787  0.6531
63635SOL     OW98019   4.217   7.388   8.914 -0.2345  0.8845  0.1094
63635SOL    HW198020   4.149   7.424   8.857 -1.0610  0.6068  0.8891
63635SOL    HW298021   4.291   7.370   8.855  0.3261  4.0115 -0.2813
63636SOL     OW98022   8.284   2.134  12.711  0.3532  0.1018  0.2167
63636SOL    HW198023   8.299   2.045  12.679 -0.6516 -0.5315  1.4198
63636SOL    HW298024   8.283   2.188  12.632  0.0909 -1.0851 -0.6163
63637SOL     OW98025   5.074  12.390   1.059 -0.2215 -0.0757 -1.0383
63637SOL    HW198026   5.157  12.352   1.033  0.0747 -0.5715  0.5389
63637SOL    HW298027   5.043  12.335   1.131 -0.8802  1.3223 -0.2016
63638SOL     OW98028   5.350   0.330  12.635  0.2789 -0.1379  0.5084
63638SOL    HW198029   5.375   0.423  12.639  0.1762 -0.0192 -0.9250
63638SOL    HW298030   5.255   0.331  12.627  0.2976 -0.3411  0.2248
63639SOL     OW98031   0.604   7.840   0.951  0.0668  0.2387  0.7550
63639SOL    HW198032   0.603   7.876   1.040  2.3842 -0.1897  1.0189
63639SOL    HW298033   0.635   7.913   0.897  0.7388 -0.1212  0.6482
63640SOL     OW98034   3.276   0.852   6.701  0.0242  0.1716  0.2429
63640SOL    HW198035   3.273   0.934   6.751  1.5847 -0.3551  1.2849
63640SOL    HW298036   3.203   0.800   6.735  0.5852  0.1372  1.4340
63641SOL     OW98037   8.469   7.712   4.962  0.0297  0.4579  0.3732
63641SOL    HW198038   8.390   7.762   4.984 -0.0564  0.5887 -0.2211
63641SOL    HW298039   8.443   7.621   4.971 -0.0461  0.5100  0.6782
63642SOL     OW98040  12.822   1.800  10.341 -0.3436 -0.1223  0.4242
63642SOL    HW198041  12.790   1.746  10.268  1.1101  0.5641 -0.7838
63642SOL    HW298042  12.757   1.789  10.410 -1.5920 -1.0783 -0.8559
63643SOL     OW98043   9.755   7.291   4.785  0.1118 -0.3130 -0.5400
63643SOL    HW198044   9.798   7.359   4.732 -1.1221  1.2031  0.3205
63643SOL    HW298045   9.755   7.214   4.729  0.4892  0.7269 -2.0379
63644SOL     OW98046   8.934  10.834   0.993 -0.2031  0.0530  0.0771
63644SOL    HW198047   9.023  10.857   1.021 -0.8890 -0.2950  2.8078
63644SOL    HW298048   8.910  10.903   0.931  0.9134  1.8908  1.5838
63645SOL     OW98049   8.869   2.799   6.902  0.1118 -0.0281 -0.1256
63645SOL    HW198050   8.929   2.723   6.900  1.1038  0.6576  1.4106
63645SOL    HW298051   8.806   2.777   6.970 -0.1446  0.1545 -0.3041
63646SOL     OW98052   6.002   1.651   0.853  0.1224  0.3742  0.0013
63646SOL    HW198053   5.912   1.623   0.834 -0.2488  1.6858 -0.2341
63646SOL    HW298054   6.018   1.621   0.942 -1.0934  1.4237  0.5978
63647SOL     OW98055   5.832   6.023   6.603  0.1505  0.1128 -0.5499
63647SOL    HW198056   5.844   6.116   6.618 -0.4639 -0.0038  0.8389
63647SOL    HW298057   5.864   5.981   6.683  2.1928 -1.0290 -1.8897
63648SOL     OW98058   2.607   6.039   2.318  0.2253 -0.2902  0.3209
63648SOL    HW198059   2.540   6.100   2.349 -0.2408 -0.2574 -0.7181
63648SOL    HW298060   2.605   5.967   2.382 -0.4456 -0.0519  0.5765
63649SOL     OW98061   8.937   7.059   0.549  0.4548  0.2192  0.0401
63649SOL    HW198062   8.938   6.975   0.504 -1.1611  0.6400 -0.8383
63649SOL    HW298063   8.918   7.037   0.640  1.6762 -0.4680  0.1578
63650SOL     OW98064   1.379   3.971   9.423  0.7956  0.2562  0.3194
63650SOL    HW198065   1.443   3.996   9.357 -1.1582  1.9460 -1.0403
63650SOL    HW298066   1.333   3.896   9.385  0.7804  0.1600  0.5244
63651SOL     OW98067  12.107   8.044   3.702  0.1510 -0.3804 -0.2911
63651SOL    HW198068  12.173   8.022   3.768  1.0869  1.1584 -0.6726
63651SOL    HW298069  12.157   8.077   3.627 -1.0641  2.1248 -0.0912
63652SOL     OW98070   3.365   7.244   2.206 -0.4466  0.1456 -0.2306
63652SOL    HW198071   3.324   7.320   2.247 -0.5930 -0.4837  0.8493
63652SOL    HW298072   3.351   7.173   2.269 -1.3268 -1.0545 -1.7313
63653SOL     OW98073   3.532   7.664   0.696 -0.5256 -0.3563 -0.1624
63653SOL    HW198074   3.521   7.710   0.779 -0.4259 -1.1785  0.3187
63653SOL    HW298075   3.618   7.623   0.702 -0.1817  0.2056 -0.9956
63654SOL     OW98076  12.384   0.354   5.298 -0.0572  0.0382  0.2988
63654SOL    HW198077  12.465   0.339   5.250 -2.0631 -2.5246 -2.7194
63654SOL    HW298078  12.328   0.402   5.236 -1.2438  0.7424  1.8567
63655SOL     OW98079   9.769   1.552   4.019 -0.4796  0.0282 -0.3717
63655SOL    HW198080   9.678   1.550   3.988 -0.8816  2.2396  0.4418
63655SOL    HW298081   9.813   1.615   3.962 -0.4319  1.7201  1.4191
63656SOL     OW98082   3.119   4.855   3.950  0.2467 -0.3406  0.4840
63656SOL    HW198083   3.141   4.798   4.023 -1.6831 -1.3713  0.3270
63656SOL    HW298084   3.186   4.837   3.884  0.6734 -1.1174  1.1126
63657SOL     OW98085   1.714   5.966   0.706 -0.8819  0.7956  0.3656
63657SOL    HW198086   1.683   5.987   0.794 -1.0781 -0.2406  0.5570
63657SOL    HW298087   1.809   5.977   0.710 -0.6695 -1.0539  1.2531
63658SOL     OW98088   2.701   8.426   6.438 -0.4903  0.4848 -0.0181
63658SOL    HW198089   2.790   8.444   6.408  0.1555  0.2457  1.6577
63658SOL    HW298090   2.690   8.332   6.423 -0.4219  0.4877 -0.0898
63659SOL     OW98091   0.931   6.341  12.587  0.4310 -0.1335  0.0464
63659SOL    HW198092   1.023   6.314  12.586 -0.2820 -3.0486  1.2673
63659SOL    HW298093   0.918   6.380  12.674  0.3724 -0.5245  0.2212
63660SOL     OW98094   4.451  12.294   5.654 -0.0975  0.3034  0.2521
63660SOL    HW198095   4.407  12.324   5.575  1.5138  0.6205 -0.5597
63660SOL    HW298096   4.505  12.220   5.626  3.1162  2.4535  0.2065
63661SOL     OW98097  12.857  11.694   1.798 -0.1941  0.2687  0.2887
63661SOL    HW198098  12.852  11.784   1.831 -1.2147  0.0789  0.6800
63661SOL    HW298099  12.797  11.644   1.853  2.1479 -1.1912  1.6937
63662SOL     OW98100   7.971  10.609   9.336 -0.0742 -0.3656  0.0106
63662SOL    HW198101   7.925  10.689   9.310  0.3558 -0.6367 -1.6514
63662SOL    HW298102   8.060  10.637   9.356 -0.7266  0.0858  2.8118
63663SOL     OW98103   5.829   7.167   1.428  0.5622 -0.1282  0.6005
63663SOL    HW198104   5.767   7.127   1.489  0.6097 -2.9907 -1.0427
63663SOL    HW298105   5.915   7.139   1.459  0.7178  0.1401  0.4152
63664SOL     OW98106   1.146   0.504   7.760 -0.2330  0.1546 -0.2521
63664SOL    HW198107   1.128   0.491   7.667  0.4164 -1.3713 -0.2002
63664SOL    HW298108   1.240   0.486   7.769  0.4162  3.2336  0.2490
63665SOL     OW98109   4.523  12.935   4.210 -0.5697  0.5487 -0.0148
63665SOL    HW198110   4.453  12.928   4.275  0.2208 -0.7278  0.7255
63665SOL    HW298111   4.486  12.896   4.131 -0.3868 -1.1037  0.6672
63666SOL     OW98112   8.010   2.161   5.602 -0.1960 -0.1039  0.1656
63666SOL    HW198113   7.961   2.240   5.624  2.8230  1.9414  0.0374
63666SOL    HW298114   7.999   2.105   5.679 -1.9467  0.6148  0.4917
63667SOL     OW98115   7.244   0.709  10.890 -0.0698  0.0039  0.7061
63667SOL    HW198116   7.300   0.756  10.828 -0.2635 -0.1519  0.4096
63667SOL    HW298117   7.227   0.625  10.848 -0.5295  0.0524  0.7917
63668SOL     OW98118   7.553   1.301   1.662 -0.6101 -0.0160  0.2475
63668SOL    HW198119   7.488   1.365   1.692 -1.0487  0.1933 -1.0530
63668SOL    HW298120   7.588   1.262   1.742 -0.5292  1.6588  1.0736
63669SOL     OW98121   6.392   4.440   4.530  0.3722  0.8150 -0.6267
63669SOL    HW198122   6.377   4.518   4.584  1.7702  1.1523 -0.6777
63669SOL    HW298123   6.333   4.374   4.566 -1.0754  1.9635 -0.7744
63670SOL     OW98124  10.090   6.470   0.307 -0.1360  0.2687  0.4832
63670SOL    HW198125  10.154   6.408   0.344 -0.8539  0.1114  1.4965
63670SOL    HW298126  10.140   6.551   0.297  0.4460 -0.0765  0.4901
63671SOL     OW98127   2.969   4.434   3.863 -0.0663  0.2964 -0.2782
63671SOL    HW198128   2.918   4.427   3.783  1.0100  1.0066 -1.0663
63671SOL    HW298129   3.028   4.508   3.847 -0.1548  0.7573  1.3606
63672SOL     OW98130  11.300   7.673   0.559 -0.5494  0.4678  0.2610
63672SOL    HW198131  11.253   7.589   0.561 -1.0345  0.6572 -1.4479
63672SOL    HW298132  11.339   7.681   0.646  0.1880 -1.9068  0.2045
63673SOL     OW98133   2.909   3.510   4.099  0.1878  0.2169 -0.5321
63673SOL    HW198134   2.888   3.596   4.063  1.1828 -0.0854 -1.8995
63673SOL    HW298135   2.875   3.448   4.034  1.4855 -0.3589 -0.6896
63674SOL     OW98136   2.797   0.967   3.556 -0.3149  0.1706 -0.1421
63674SOL    HW198137   2.707   0.974   3.523 -1.0304  1.6636  1.9537
63674SOL    HW298138   2.795   0.894   3.617 -0.5359  1.1532  1.0655
63675SOL     OW98139  11.788  11.458   3.482  0.2089  0.2174 -0.2827
63675SOL    HW198140  11.715  11.520   3.484 -0.2937 -0.0907 -3.5126
63675SOL    HW298141  11.863  11.508   3.515 -0.7247  1.7196 -0.3655
63676SOL     OW98142  12.017  10.187  12.643 -0.2891 -0.0286  0.4254
63676SOL    HW198143  12.094  10.146  12.604  0.2878  1.8021 -0.5176
63676SOL    HW298144  11.942  10.141  12.605  0.3111 -0.9889  0.3778
63677SOL     OW98145   6.346  10.133  12.386  0.3533  0.5898 -0.1921
63677SOL    HW198146   6.306  10.171  12.464  1.8768  0.9109  0.4603
63677SOL    HW298147   6.375  10.208  12.335  0.6937  0.3561 -0.3436
63678SOL     OW98148   3.805   3.410   4.628 -0.0403 -0.1755  0.1053
63678SOL    HW198149   3.749   3.385   4.555  1.3521  0.3925 -1.2257
63678SOL    HW298150   3.891   3.375   4.605  0.4626  0.1448  1.4112
63679SOL     OW98151  12.170   4.910   5.989  0.5611  0.1027  0.8270
63679SOL    HW198152  12.209   4.847   6.050 -0.8392 -0.4944  1.1542
63679SOL    HW298153  12.100   4.861   5.946  0.5011  0.9788 -0.1183
63680SOL     OW98154   7.307   6.806   1.232 -0.0785 -0.9589  0.5349
63680SOL    HW198155   7.397   6.814   1.261  0.0336 -1.2300  0.2725
63680SOL    HW298156   7.313   6.768   1.144 -0.4545 -1.2421  0.6248
63681SOL     OW98157  11.698   3.884   1.038  0.3935 -0.2835 -0.1562
63681SOL    HW198158  11.739   3.937   0.969  0.2254 -1.3822 -1.1315
63681SOL    HW298159  11.730   3.923   1.120  0.6164  1.0429 -0.8330
63682SOL     OW98160   1.962  12.101  12.129  0.6755 -0.1894  0.0548
63682SOL    HW198161   1.965  12.044  12.052  0.6069 -0.4261  0.2273
63682SOL    HW298162   1.914  12.178  12.100 -1.4970 -1.2969  0.5290
63683SOL     OW98163   5.484   8.727   0.038  0.1011 -0.0101  0.8360
63683SOL    HW198164   5.484   8.818   0.008  1.7291 -0.8256 -2.0036
63683SOL    HW298165   5.418   8.684  -0.016  0.4512 -0.8343  1.0490
63684SOL     OW98166  12.720  11.286   6.233 -0.0917  0.3723  0.5212
63684SOL    HW198167  12.774  11.275   6.311 -0.2641  1.0070  0.7398
63684SOL    HW298168  12.763  11.356   6.184  0.6157 -0.7445 -0.4958
63685SOL     OW98169   5.901   2.403   1.862 -0.1645  0.1711  0.4280
63685SOL    HW198170   5.947   2.369   1.785 -2.3367  0.6869 -1.2121
63685SOL    HW298171   5.939   2.490   1.876 -1.2499  1.0559 -1.6015
63686SOL     OW98172   5.651   3.810  11.028 -0.7378  0.2073 -0.2299
63686SOL    HW198173   5.700   3.737  10.991  1.3317  1.3129  0.1625
63686SOL    HW298174   5.676   3.811  11.120 -2.1519  0.3414  0.1699
63687SOL     OW98175   3.265   3.535  10.907 -0.0476  0.1315  0.0945
63687SOL    HW198176   3.329   3.601  10.933 -1.6278  2.1829 -0.8727
63687SOL    HW298177   3.279   3.522  10.814 -0.6871  0.2381 -0.0261
63688SOL     OW98178   8.697   9.146   7.837  0.6771  0.1950  0.3032
63688SOL    HW198179   8.770   9.201   7.810  0.9238 -0.0411  0.4944
63688SOL    HW298180   8.730   9.097   7.912  0.8226 -1.0389 -0.5397
63689SOL     OW98181   4.494   8.945   4.315  0.0914  0.1634 -0.2598
63689SOL    HW198182   4.582   8.964   4.346 -0.0110 -0.3471  0.3668
63689SOL    HW298183   4.500   8.949   4.219  0.9088 -0.3553 -0.2350
63690SOL     OW98184   2.292  10.457   0.755  0.8711  0.1795 -0.5406
63690SOL    HW198185   2.232  10.411   0.814  1.6476 -0.8972 -0.5486
63690SOL    HW298186   2.353  10.502   0.813 -0.7934  2.5394 -0.5092
63691SOL     OW98187   6.576   1.086   8.674  0.3915  0.3736 -0.5839
63691SOL    HW198188   6.537   1.001   8.694 -0.3472  0.7662 -0.3093
63691SOL    HW298189   6.513   1.150   8.709  2.1298  1.0285  1.5589
63692SOL     OW98190   1.093   7.339  11.416  0.1052  0.2504 -0.0082
63692SOL    HW198191   1.037   7.384  11.480 -0.7849 -1.0330  0.1489
63692SOL    HW298192   1.032   7.295  11.357  0.9348  0.5679 -1.1428
63693SOL     OW98193   6.390   6.828  11.539 -0.1962 -0.2383  0.2640
63693SOL    HW198194   6.463   6.887  11.561  0.3456 -0.6442 -0.4297
63693SOL    HW298195   6.313   6.872  11.575  0.1074  1.2402 -0.7981
63694SOL     OW98196  10.923   7.103  11.920  0.3075 -0.0337 -0.7023
63694SOL    HW198197  10.926   7.011  11.947 -0.2761  0.4196  1.0757
63694SOL    HW298198  10.831   7.119  11.899  0.1666  0.4519  0.2441
63695SOL     OW98199   3.722   4.283   5.277 -0.2996  0.2763 -0.0813
63695SOL    HW198200   3.716   4.236   5.360  1.4382 -0.8715 -0.5441
63695SOL    HW298201   3.658   4.240   5.220 -0.4294  0.0781  0.2132
63696SOL     OW98202  10.217   7.029  10.476 -0.3147  0.7653  0.3082
63696SOL    HW198203  10.235   7.122  10.467  0.8742  0.7989  2.5442
63696SOL    HW298204  10.303   6.987  10.475 -0.7897 -0.2421  0.2042
63697SOL     OW98205   2.254   6.236   7.197  0.2251  0.1748 -0.1680
63697SOL    HW198206   2.226   6.196   7.280 -1.4964 -0.7073 -1.1155
63697SOL    HW298207   2.327   6.181   7.168  1.0686  0.6934  0.8932
63698SOL     OW98208   4.273  11.116   3.013 -0.0044 -0.5382 -0.2415
63698SOL    HW198209   4.209  11.092   3.081  0.0243 -1.5629 -0.5715
63698SOL    HW298210   4.272  11.043   2.952  0.5572  0.0217 -0.9324
63699SOL     OW98211   4.604  12.684  10.534  0.4254  0.3310  0.3875
63699SOL    HW198212   4.630  12.668  10.625  2.4058 -0.8515 -0.3113
63699SOL    HW298213   4.530  12.745  10.540 -0.4190 -0.8086  2.8279
63700SOL     OW98214   0.971   5.799   6.842  0.0330  0.2365 -0.4303
63700SOL    HW198215   0.934   5.756   6.766 -3.1163 -0.1341  1.1511
63700SOL    HW298216   0.895   5.830   6.892  1.9035  0.5301  2.5122
63701SOL     OW98217   4.369   2.243   1.009 -0.1253 -0.0134  0.3774
63701SOL    HW198218   4.429   2.311   1.040 -1.4966  1.4947 -0.0643
63701SOL    HW298219   4.359   2.184   1.084  1.0265  0.3426  0.8284
63702SOL     OW98220   6.998   9.145   1.857 -0.3042  0.0349  0.1451
63702SOL    HW198221   6.975   9.151   1.950 -0.2178  1.5924  0.0849
63702SOL    HW298222   6.998   9.236   1.826 -1.5032 -0.5369 -1.6869
63703SOL     OW98223   6.752  12.000   3.468  0.3747 -0.4178 -0.1510
63703SOL    HW198224   6.730  12.088   3.499 -0.1103 -0.3291 -0.7037
63703SOL    HW298225   6.812  11.965   3.533 -0.7450 -0.3201  0.9692
63704SOL     OW98226   2.364   3.307  12.616  0.2495  0.1868  0.1242
63704SOL    HW198227   2.423   3.330  12.688  1.8459 -2.8212 -0.0381
63704SOL    HW298228   2.294   3.256  12.658  0.7700 -0.9151 -0.3188
63705SOL     OW98229   8.591   5.631   0.787 -0.2724  0.0390  0.2844
63705SOL    HW198230   8.649   5.563   0.753  0.3076  0.3221  0.7026
63705SOL    HW298231   8.589   5.616   0.881 -0.6419  0.2223  0.3089
63706SOL     OW98232   9.992   3.536   8.072 -0.4923  0.0733 -0.4447
63706SOL    HW198233   9.953   3.543   8.159 -0.6605  0.0377 -0.5170
63706SOL    HW298234   9.923   3.566   8.012 -0.5537 -0.3760 -0.6036
63707SOL     OW98235   0.766   1.912   5.964  0.2154 -0.7641 -0.2637
63707SOL    HW198236   0.731   1.921   5.875 -0.2937  0.6238  0.0444
63707SOL    HW298237   0.694   1.874   6.014 -0.2026  0.2719 -0.0488
63708SOL     OW98238  10.518   2.205   8.010  0.8542  0.0184 -0.1350
63708SOL    HW198239  10.532   2.190   8.103  2.4346  0.7019 -0.2382
63708SOL    HW298240  10.536   2.121   7.969  1.2298 -0.0026  0.0737
63709SOL     OW98241   4.435   9.367  11.007  0.0071 -0.0129 -0.5165
63709SOL    HW198242   4.344   9.395  11.018 -0.2989 -1.6943  2.0862
63709SOL    HW298243   4.487   9.436  11.048 -0.2110  0.1622 -0.5327
63710SOL     OW98244   4.863   9.016  12.710  0.6922 -0.0637 -0.3137
63710SOL    HW198245   4.894   9.014  12.620  1.6177  0.3873 -0.0119
63710SOL    HW298246   4.941   9.034  12.762  0.3340 -1.2547  0.6696
63711SOL     OW98247   0.574   4.389   7.463 -0.2549 -0.0399 -0.2635
63711SOL    HW198248   0.643   4.325   7.447  0.8884  0.9206  0.6907
63711SOL    HW298249   0.613   4.473   7.440 -1.7075  0.3694 -1.4067
63712SOL     OW98250   1.127   9.336   3.092 -0.2099 -0.2010  0.7764
63712SOL    HW198251   1.174   9.414   3.063 -0.1300 -0.8975 -1.0852
63712SOL    HW298252   1.177   9.263   3.055 -0.7081 -1.1075  1.8452
63713SOL     OW98253   0.808   3.596   1.746 -0.6609 -0.1180  0.3517
63713SOL    HW198254   0.838   3.681   1.777 -0.5536  1.3873 -3.2979
63713SOL    HW298255   0.734   3.616   1.689 -0.5171 -2.4405 -0.7823
63714SOL     OW98256  11.919   5.588   6.725  0.0728 -0.3804 -0.5919
63714SOL    HW198257  11.842   5.542   6.692 -1.1131  1.8872 -1.2520
63714SOL    HW298258  11.884   5.655   6.783  1.7647 -0.7704  0.9877
63715SOL     OW98259   8.613   1.997   8.055 -0.0903 -0.8514  0.1275
63715SOL    HW198260   8.606   2.018   7.962 -3.7060 -1.4515  0.1221
63715SOL    HW298261   8.603   1.902   8.059  1.4787 -1.0137  1.0893
63716SOL     OW98262   8.213   8.433   2.933 -0.9309  0.4179 -0.0631
63716SOL    HW198263   8.256   8.402   2.853 -0.5571  1.5590 -0.3194
63716SOL    HW298264   8.212   8.356   2.990  2.4411  0.5332  0.3794
63717SOL     OW98265   8.993   5.362  10.937 -0.2839  0.0407  0.7168
63717SOL    HW198266   8.913   5.413  10.947 -0.9538 -0.8753  0.2364
63717SOL    HW298267   9.052   5.418  10.887 -0.8409  0.5063  0.5725
63718SOL     OW98268   1.634   7.673   0.704 -0.6029  0.6764  0.1759
63718SOL    HW198269   1.619   7.611   0.632 -0.5568  1.5776 -0.6313
63718SOL    HW298270   1.701   7.733   0.670  1.4892 -0.4780  1.9563
63719SOL     OW98271   3.128   6.077  11.737  0.4614  0.7231 -0.2215
63719SOL    HW198272   3.155   5.999  11.786  2.7453  1.5214 -0.0939
63719SOL    HW298273   3.093   6.042  11.655  1.0328 -0.4653  0.0145
63720SOL     OW98274  10.122   5.843   8.475 -0.4521  0.6493 -0.1836
63720SOL    HW198275  10.162   5.874   8.556 -0.9538  1.1177 -0.1056
63720SOL    HW298276  10.029   5.863   8.485 -0.4255  1.3155 -1.1429
63721SOL     OW98277  10.771   9.701   9.516 -0.3577  0.0705 -0.1930
63721SOL    HW198278  10.702   9.754   9.556  0.6454  0.5485  0.9603
63721SOL    HW298279  10.748   9.699   9.423 -1.3703  1.0584  0.0054
63722SOL     OW98280  11.286   9.832   8.303  0.5026  0.2429  0.0792
63722SOL    HW198281  11.253   9.799   8.386 -0.1889 -0.4806 -0.4645
63722SOL    HW298282  11.343   9.905   8.327  0.0231  0.2821  1.1587
63723SOL     OW98283  10.039   0.574   9.755  0.7659  0.5266  0.0999
63723SOL    HW198284  10.031   0.670   9.752 -0.1760  0.4651  0.3701
63723SOL    HW298285  10.024   0.552   9.846 -2.1426 -0.1027 -0.4442
63724SOL     OW98286  11.647   8.450   1.894  0.6233  0.3630  0.3893
63724SOL    HW198287  11.625   8.386   1.962 -0.5884 -0.9242 -1.1120
63724SOL    HW298288  11.571   8.508   1.889  0.0098 -0.4915 -0.8441
63725SOL     OW98289   7.299   8.757  10.953  0.0020 -0.1903  0.2868
63725SOL    HW198290   7.313   8.687  11.017 -0.3602 -0.9896 -0.4915
63725SOL    HW298291   7.311   8.716  10.868  0.3410  0.8284 -0.1775
63726SOL     OW98292   8.628  11.962   3.547 -0.0438 -0.0380  0.4307
63726SOL    HW198293   8.642  11.922   3.633  2.2070  0.6186  0.4318
63726SOL    HW298294   8.711  12.004   3.526 -0.5663 -0.0584 -2.0173
63727SOL     OW98295  10.918  11.620   8.429 -0.1259  0.2792 -0.0761
63727SOL    HW198296  10.835  11.654   8.395  0.3292  2.3640  0.7496
63727SOL    HW298297  10.944  11.683   8.497  1.3354 -1.2001  0.8065
63728SOL     OW98298   4.504   8.202   4.111 -0.2140  0.1332 -0.2644
63728SOL    HW198299   4.497   8.295   4.091  2.1890  0.4779  0.1624
63728SOL    HW298300   4.519   8.198   4.205 -1.2709 -0.7720 -0.1184
63729SOL     OW98301  12.483   6.635  10.958  0.3430  0.1075  0.4994
63729SOL    HW198302  12.492   6.617  11.052 -1.3678 -0.6312  0.5544
63729SOL    HW298303  12.467   6.550  10.919  1.1506  0.4000 -0.5089
63730SOL     OW98304   0.800   7.158   3.804  0.2770  0.1594  0.1579
63730SOL    HW198305   0.831   7.099   3.735  0.8969 -0.2903  0.8012
63730SOL    HW298306   0.842   7.242   3.785 -1.1093  0.6039 -1.1264
63731SOL     OW98307  11.501   2.666   0.255 -0.0760 -0.1756 -0.2182
63731SOL    HW198308  11.596   2.658   0.251  0.0381  0.2587  1.1437
63731SOL    HW298309  11.485   2.746   0.304 -1.1567  0.0247 -0.8655
63732SOL     OW98310   5.937   4.541   9.022 -0.3826 -0.0656 -0.2383
63732SOL    HW198311   5.859   4.554   8.967  0.0600  1.4206 -0.5800
63732SOL    HW298312   5.975   4.629   9.029  0.3170 -0.4646  1.3546
63733SOL     OW98313   8.989   3.438   8.761 -0.0644 -0.3886  0.0539
63733SOL    HW198314   9.028   3.373   8.702 -1.5618 -1.3950  0.1261
63733SOL    HW298315   8.895   3.423   8.754 -0.3389  0.4745  1.5772
63734SOL     OW98316   8.050   0.345   6.113 -0.0424 -0.2416  0.3441
63734SOL    HW198317   8.100   0.421   6.083 -0.6095  0.0708  0.1750
63734SOL    HW298318   7.980   0.335   6.048 -0.4823 -0.3839  0.8281
63735SOL     OW98319   4.799   3.839  10.497 -0.1603 -0.3495  0.7586
63735SOL    HW198320   4.818   3.878  10.582  0.2804 -0.5311  0.7450
63735SOL    HW298321   4.730   3.894  10.460  0.2368  0.2263  0.8717
63736SOL     OW98322   0.202   9.130   2.963  0.0323  0.4255  0.2171
63736SOL    HW198323   0.258   9.192   2.917 -0.2605 -1.0439 -2.3130
63736SOL    HW298324   0.255   9.050   2.969 -0.6171  0.0280  0.8273
63737SOL     OW98325  12.308   3.003  11.948  0.0869  0.2838 -0.0666
63737SOL    HW198326  12.281   2.996  11.856 -0.5959  1.9471 -0.0282
63737SOL    HW298327  12.225   3.006  11.997  0.4252  0.7667  0.4868
63738SOL     OW98328   9.193   4.446   2.890  0.5147 -0.3095  0.0262
63738SOL    HW198329   9.130   4.452   2.818 -0.2566 -1.0960  0.6159
63738SOL    HW298330   9.275   4.420   2.847 -0.3825 -2.6615 -0.4154
63739SOL     OW98331  12.859   4.788   9.704 -0.4590  0.1818  0.1028
63739SOL    HW198332  12.887   4.729   9.633  0.8927  2.5390 -1.4490
63739SOL    HW298333  12.767   4.767   9.717  0.2209 -3.0559  0.4829
63740SOL     OW98334   4.155   5.067  12.337 -0.4640 -0.2376  0.3277
63740SOL    HW198335   4.111   4.993  12.380 -0.0645  0.1233  1.3836
63740SOL    HW298336   4.219   5.097  12.401 -0.4026  0.8328 -0.2214
63741SOL     OW98337   7.739  11.394   6.168 -0.6560  0.1826 -0.1738
63741SOL    HW198338   7.705  11.324   6.224 -0.3527  1.0527  1.1623
63741SOL    HW298339   7.663  11.424   6.118 -0.7670 -1.1385 -0.8407
63742SOL     OW98340  11.205   2.062  10.632 -0.1638  0.5323 -0.4070
63742SOL    HW198341  11.268   2.000  10.596 -1.2239 -0.2238 -0.9866
63742SOL    HW298342  11.154   2.011  10.695 -0.1524  1.1585  0.1197
63743SOL     OW98343   8.514   3.464   9.805  0.2641  0.3505  0.1535
63743SOL    HW198344   8.594   3.417   9.830 -0.1425 -0.6771 -0.4664
63743SOL    HW298345   8.465   3.402   9.752  0.9731  2.3217 -3.0738
63744SOL     OW98346   4.930  10.371  10.875  0.1061  0.0394 -0.4366
63744SOL    HW198347   4.920  10.443  10.812  0.2089  0.4974  0.0639
63744SOL    HW298348   4.980  10.409  10.947  2.2467 -1.1748 -1.1987
63745SOL     OW98349  11.589   3.631  10.966  0.6564  0.0467 -0.2989
63745SOL    HW198350  11.652   3.703  10.971  3.7805 -2.4107 -0.4542
63745SOL    HW298351  11.537   3.639  11.046  2.3658  1.2597  0.7763
63746SOL     OW98352   7.295   3.254   8.564 -0.2735  0.2714 -0.1345
63746SOL    HW198353   7.386   3.226   8.557 -0.3611  0.1453 -0.8719
63746SOL    HW298354   7.296   3.321   8.632  0.3048  0.0160  0.1176
63747SOL     OW98355   0.927   9.949   7.985  0.1956  0.1660 -0.3068
63747SOL    HW198356   0.882   9.930   7.902 -2.4444  1.9158  0.5982
63747SOL    HW298357   0.889   9.888   8.047  2.6119 -1.5596 -0.4022
63748SOL     OW98358  10.603  12.421  11.258  0.7899  0.3304  0.8415
63748SOL    HW198359  10.524  12.422  11.204  2.1758  1.0816 -1.3344
63748SOL    HW298360  10.604  12.334  11.298 -1.1544  0.3463  1.0024
63749SOL     OW98361  12.064   9.397  10.758 -0.0715  0.4328  0.7326
63749SOL    HW198362  12.125   9.435  10.694  0.6763 -0.7299  0.7247
63749SOL    HW298363  12.082   9.303  10.755 -1.5103  0.1276  1.1269
63750SOL     OW98364  12.936   9.734   3.509  0.2882  0.2543 -0.4287
63750SOL    HW198365  12.892   9.672   3.566  1.0796  0.3113  0.2633
63750SOL    HW298366  12.943   9.689   3.425 -0.9648  0.2048 -0.5179
63751SOL     OW98367   1.315  10.678   5.592 -0.1908 -0.0578 -0.1013
63751SOL    HW198368   1.408  10.691   5.611 -0.0810  0.8251 -1.1442
63751SOL    HW298369   1.278  10.766   5.595 -1.1429 -0.4857  1.0011
63752SOL     OW98370   3.803   6.617   2.430 -0.3604 -0.5969  0.0943
63752SOL    HW198371   3.802   6.704   2.390  0.9481  1.1908  3.5163
63752SOL    HW298372   3.896   6.598   2.442 -0.6836 -1.3112  1.6404
63753SOL     OW98373  10.189  12.871   6.962 -0.0669  0.2467  0.3112
63753SOL    HW198374  10.246  12.913   7.026  1.4861  0.2431 -1.0075
63753SOL    HW298375  10.144  12.802   7.011 -0.2696  1.3729  1.7774
63754SOL     OW98376   9.299   4.271  12.869 -0.0565  0.1340  0.0956
63754SOL    HW198377   9.258   4.219  12.800 -0.2671  3.4717 -2.4954
63754SOL    HW298378   9.393   4.269  12.849 -0.0610  0.7288  0.0109
63755SOL     OW98379   4.378   5.077   5.283  0.0186 -0.3767 -0.4970
63755SOL    HW198380   4.336   5.108   5.362 -0.1068  1.3170 -1.1943
63755SOL    HW298381   4.331   5.120   5.211  1.7426  0.1686 -1.3770
63756SOL     OW98382   5.156   8.088   6.033  0.0201 -0.0180 -0.3256
63756SOL    HW198383   5.139   8.075   5.940 -0.2192 -0.9773 -0.1628
63756SOL    HW298384   5.217   8.162   6.036  1.4748 -1.0995 -1.3729
63757SOL     OW98385   6.707  12.455   9.195 -0.0758  0.0109 -0.5015
63757SOL    HW198386   6.622  12.472   9.235  1.3191  1.1244  2.2718
63757SOL    HW298387   6.743  12.542   9.177  2.3230 -0.0911  2.8505
63758SOL     OW98388   1.114   6.183   6.181  0.2524 -0.1037 -0.4548
63758SOL    HW198389   1.118   6.263   6.234  0.4684 -0.4261  0.0241
63758SOL    HW298390   1.187   6.190   6.121  1.5195 -0.8670  0.9332
63759SOL     OW98391  12.586   0.316   1.767  0.3862  0.3448 -0.7836
63759SOL    HW198392  12.560   0.276   1.683  0.2516 -1.3006  0.0020
63759SOL    HW298393  12.503   0.331   1.812  0.5232 -0.0962 -0.3789
63760SOL     OW98394   5.547   5.692   5.841 -0.0403  0.1369 -0.4207
63760SOL    HW198395   5.521   5.706   5.750 -0.4739  0.7000 -0.2131
63760SOL    HW298396   5.573   5.778   5.873  2.4164 -0.4304 -0.6997
63761SOL     OW98397   7.549  10.793   4.417  0.2259  0.3476  0.2943
63761SOL    HW198398   7.581  10.703   4.410  0.7693  0.5779 -0.2789
63761SOL    HW298399   7.628  10.846   4.424 -0.0656  0.8300 -0.0190
63762SOL     OW98400   3.595   8.286   5.972  0.1558 -0.3399 -0.5315
63762SOL    HW198401   3.520   8.345   5.965 -0.6570 -1.3039 -0.1375
63762SOL    HW298402   3.669   8.337   5.936 -0.9778  0.0674 -2.4271
63763SOL     OW98403   4.100  10.953  12.334 -0.3573  0.4452 -0.0140
63763SOL    HW198404   4.177  10.944  12.392  0.1577 -0.6715 -0.8489
63763SOL    HW298405   4.109  11.041  12.297  0.5313  0.3233 -0.1083
63764SOL     OW98406  11.014   5.656  11.974 -0.0237 -0.5466  0.2520
63764SOL    HW198407  10.956   5.672  11.899 -0.6329 -1.9247  0.3952
63764SOL    HW298408  11.085   5.719  11.964  0.7342 -1.6818 -2.3476
63765SOL     OW98409   2.834   6.040   5.742  0.4368  0.0239  0.0770
63765SOL    HW198410   2.830   5.946   5.762  2.3083 -0.4212 -1.3235
63765SOL    HW298411   2.743   6.066   5.731 -0.1429 -1.5395  0.8595
63766SOL     OW98412   0.361  11.275   8.272  0.0929  0.3781  0.0789
63766SOL    HW198413   0.270  11.264   8.242  0.3622  0.6134 -0.8595
63766SOL    HW298414   0.406  11.315   8.198  0.8094  0.9256  0.7934
63767SOL     OW98415   4.675   0.995   3.377  0.6611  0.1807 -0.7528
63767SOL    HW198416   4.754   1.023   3.423 -0.3982 -0.3435  1.5143
63767SOL    HW298417   4.607   1.054   3.410 -0.2103 -0.4505 -1.4042
63768SOL     OW98418   2.543   2.859   7.522  0.4933 -0.0281  0.0238
63768SOL    HW198419   2.491   2.779   7.525  0.4635 -0.0469 -0.7751
63768SOL    HW298420   2.538   2.895   7.611  0.2043 -0.7153  0.2861
63769SOL     OW98421   6.459   3.645  12.435  0.0758 -0.5340 -0.2006
63769SOL    HW198422   6.412   3.715  12.482  0.6804  0.3914 -0.9292
63769SOL    HW298423   6.486   3.585  12.503  1.1996  0.9354  0.7089
63770SOL     OW98424  11.701   5.039   6.931 -0.7182  0.3317  0.4366
63770SOL    HW198425  11.659   5.050   6.846  0.8017 -1.8651 -0.6774
63770SOL    HW298426  11.628   5.027   6.992 -1.8016  0.8923 -0.7016
63771SOL     OW98427   7.493   1.641   5.156  0.1192  0.1818 -0.6348
63771SOL    HW198428   7.416   1.698   5.153 -0.1343  0.2048  2.5244
63771SOL    HW298429   7.564   1.699   5.186  0.2701 -0.7396  0.8816
63772SOL     OW98430   2.951   1.328   4.128 -0.1541  0.0176 -0.3728
63772SOL    HW198431   3.027   1.294   4.080 -0.1100  0.1668 -0.4101
63772SOL    HW298432   2.953   1.422   4.111  1.2292  0.4503  1.8547
63773SOL     OW98433   6.875  12.081   2.612  0.1930  0.2685  0.1900
63773SOL    HW198434   6.832  12.091   2.696  1.9822  1.9398  0.9902
63773SOL    HW298435   6.860  12.165   2.567  2.0586  0.6720  0.2615
63774SOL     OW98436   6.892   7.752   1.190  0.0192  0.2227  0.4185
63774SOL    HW198437   6.885   7.658   1.175 -0.1960  0.2033  0.6289
63774SOL    HW298438   6.984   7.767   1.212  0.7938  0.4927 -2.5840
63775SOL     OW98439   8.318   4.966  11.221  0.2543 -0.5152  0.1871
63775SOL    HW198440   8.325   5.061  11.235 -0.1508 -0.4435 -0.1018
63775SOL    HW298441   8.408   4.938  11.206  0.3863 -0.1869  0.3459
63776SOL     OW98442   6.140   5.878   1.116 -0.6235  0.3430  0.3144
63776SOL    HW198443   6.102   5.815   1.177  0.1037 -1.2923 -0.8211
63776SOL    HW298444   6.072   5.890   1.049 -0.8880  1.0538  0.6989
63777SOL     OW98445  10.502   5.715   1.498  0.0036 -0.4393 -0.2236
63777SOL    HW198446  10.518   5.752   1.412 -2.6480 -1.0605 -1.0738
63777SOL    HW298447  10.527   5.623   1.490  1.7574 -0.0701  0.3812
63778SOL     OW98448   8.746   2.827  11.824  0.1321 -0.0649 -0.0362
63778SOL    HW198449   8.806   2.753  11.822  0.3293  0.0978 -0.0907
63778SOL    HW298450   8.747   2.857  11.915  1.6040  1.1425 -0.4101
63779SOL     OW98451   8.981   0.164   9.448  0.2351  0.9828  0.3277
63779SOL    HW198452   8.958   0.115   9.527 -0.9299 -0.1500 -0.6671
63779SOL    HW298453   8.974   0.100   9.377  2.6938  1.5924 -0.5649
63780SOL     OW98454   0.694  12.445   0.595 -0.1321  0.2129 -0.6344
63780SOL    HW198455   0.631  12.472   0.529 -3.2056  0.1640  2.0417
63780SOL    HW298456   0.681  12.350   0.603  0.5775  0.1359 -0.2992
63781SOL     OW98457  10.622   2.321   1.086  0.1502 -0.8124  0.3382
63781SOL    HW198458  10.537   2.351   1.118  1.1552  0.6756  1.7919
63781SOL    HW298459  10.642   2.378   1.012  0.7593  0.2208  1.2742
63782SOL     OW98460   6.325   9.999   9.563  0.7414  0.0397  0.6018
63782SOL    HW198461   6.386  10.053   9.613  0.8101 -0.2165  0.7947
63782SOL    HW298462   6.283   9.943   9.628 -0.8142  1.2483  0.7011
63783SOL     OW98463  10.187   1.479  10.275 -0.0748  0.1043 -0.5017
63783SOL    HW198464  10.103   1.483  10.230 -1.3036 -0.1615  1.6817
63783SOL    HW298465  10.229   1.401  10.239 -1.2029 -0.3483 -0.8733
63784SOL     OW98466  12.369   7.417   4.407 -0.6942 -0.1769 -0.0481
63784SOL    HW198467  12.412   7.401   4.323 -0.4455 -1.0638  0.2371
63784SOL    HW298468  12.289   7.464   4.385  0.0992  0.9470 -0.6458
63785SOL     OW98469   6.828   6.377   7.540 -0.4475  0.1309  0.1416
63785SOL    HW198470   6.747   6.407   7.580 -0.0495  2.1820 -0.4892
63785SOL    HW298471   6.873   6.457   7.512  2.5598 -0.8053  1.8804
63786SOL     OW98472   5.984   9.314   4.318 -0.0989 -0.0039  0.3293
63786SOL    HW198473   6.014   9.234   4.275 -0.7376 -0.3622  0.5289
63786SOL    HW298474   5.916   9.348   4.260 -0.5539 -0.1734  0.7564
63787SOL     OW98475  12.752   6.650   9.561 -0.2224 -0.0681  0.0970
63787SOL    HW198476  12.764   6.651   9.466 -0.7494 -0.0301  0.0268
63787SOL    HW298477  12.785   6.565   9.588  1.0086  0.3704  0.0322
63788SOL     OW98478  12.647   3.459  12.791  0.6214  0.5772 -1.0737
63788SOL    HW198479  12.597   3.428  12.716  0.8908  0.4731 -1.2083
63788SOL    HW298480  12.602   3.539  12.818 -0.3323 -0.1194 -0.4783
63789SOL     OW98481   1.601   3.384   8.001  0.0560 -0.0819 -0.1679
63789SOL    HW198482   1.540   3.374   7.927  0.9495  1.7063 -1.2231
63789SOL    HW298483   1.636   3.296   8.015 -1.7689 -0.8977 -0.3896
63790SOL     OW98484  12.448   6.221   4.074 -0.2706 -0.2801 -0.0220
63790SOL    HW198485  12.411   6.138   4.103  2.4000 -2.4649 -2.3092
63790SOL    HW298486  12.542   6.214   4.091  0.1475  1.9765 -0.9508
63791SOL     OW98487   8.381  11.467  11.501  0.1835  0.6419 -0.1986
63791SOL    HW198488   8.458  11.524  11.503  0.7020 -0.0583  0.0979
63791SOL    HW298489   8.393  11.414  11.422  2.5320 -2.8168  2.1234
63792SOL     OW98490   2.294   7.487   6.010  0.0667 -0.0599 -0.6334
63792SOL    HW198491   2.267   7.498   5.919  2.3757  2.0514 -1.1846
63792SOL    HW298492   2.220   7.518   6.062 -1.2872 -1.2991 -1.7305
63793SOL     OW98493   6.911   8.581  12.170  0.3540 -0.2776 -0.2732
63793SOL    HW198494   6.945   8.614  12.087  0.1485 -1.4625 -0.8447
63793SOL    HW298495   6.972   8.512  12.195 -0.3869 -0.9213 -0.1941
63794SOL     OW98496   4.487  12.442  12.577  0.6436  1.0535 -0.2382
63794SOL    HW198497   4.535  12.386  12.639 -0.6117  0.9734  0.7088
63794SOL    HW298498   4.434  12.499  12.633  0.8001  2.2001 -1.2271
63795SOL     OW98499  11.446   8.030   8.702  0.3944 -0.9141 -0.3824
63795SOL    HW198500  11.384   8.101   8.718  0.2403 -1.4504  1.6086
63795SOL    HW298501  11.517   8.072   8.651  0.3973  0.7351  0.8900
63796SOL     OW98502   0.840   4.790   7.981  0.0780  0.2407 -0.4028
63796SOL    HW198503   0.929   4.819   8.000  0.3247 -0.6424 -0.1565
63796SOL    HW298504   0.791   4.811   8.061  0.1298  0.4636 -0.4290
63797SOL     OW98505   1.912  10.325  10.947 -0.0913 -0.5633 -0.0423
63797SOL    HW198506   1.942  10.293  11.032 -0.6432  0.0667  0.3985
63797SOL    HW298507   1.882  10.414  10.964 -0.5400 -0.5526 -0.8331
63798SOL     OW98508   4.719  12.884   4.405  0.7965 -0.3325  0.3935
63798SOL    HW198509   4.728  12.900   4.311 -0.8466  0.1331  0.2707
63798SOL    HW298510   4.682  12.796   4.411  0.4328 -0.1692  0.5776
63799SOL     OW98511   0.917   2.507   9.028  0.0793 -0.2585  0.2425
63799SOL    HW198512   0.838   2.472   9.070  0.5264 -0.6667  0.7727
63799SOL    HW298513   0.888   2.586   8.984 -0.3787  0.3126  1.5152
63800SOL     OW98514   5.375   4.779   3.385  0.1895 -0.1661 -0.1034
63800SOL    HW198515   5.464   4.785   3.420 -0.2371  0.4064  0.9280
63800SOL    HW298516   5.379   4.709   3.320  1.5330  0.2784 -0.5135
63801SOL     OW98517   0.488  10.558   0.011  0.0477  0.1336  1.0105
63801SOL    HW198518   0.514  10.473   0.047  0.7241 -0.6443 -1.1621
63801SOL    HW298519   0.560  10.582  -0.048 -1.2517  1.0432 -0.2652
63802SOL     OW98520   6.278   4.368   3.586 -0.4354 -0.4344 -0.3272
63802SOL    HW198521   6.323   4.291   3.620 -0.5217 -0.6734 -0.7393
63802SOL    HW298522   6.347   4.433   3.572 -0.3112 -0.5724 -0.3444
63803SOL     OW98523   3.266   6.918   8.620 -0.0346 -0.3542  0.0583
63803SOL    HW198524   3.336   6.950   8.563  0.3226 -0.4277  0.4485
63803SOL    HW298525   3.292   6.829   8.643 -0.3754 -0.4638  0.0163
63804SOL     OW98526   1.610   4.872   2.163 -0.3492 -0.1887 -0.3772
63804SOL    HW198527   1.533   4.820   2.144  0.2163 -2.5071  2.8836
63804SOL    HW298528   1.679   4.808   2.182  1.5550  1.7716 -0.2162
63805SOL     OW98529   5.688   9.430   2.257 -0.5571  0.3883  0.0673
63805SOL    HW198530   5.648   9.386   2.181 -1.1292  1.0407 -0.0171
63805SOL    HW298531   5.781   9.432   2.236 -0.8125  1.4517 -1.1067
63806SOL     OW98532   4.315   2.125   6.602  0.5742 -0.5337  0.0937
63806SOL    HW198533   4.355   2.126   6.689 -0.0138  1.0669  0.3702
63806SOL    HW298534   4.222   2.108   6.618  0.4951 -0.4326 -0.2429
63807SOL     OW98535   4.783   1.622   7.598 -0.0376  0.2910  0.3880
63807SOL    HW198536   4.830   1.568   7.534 -1.1254  0.7685 -0.8400
63807SOL    HW298537   4.740   1.558   7.656 -0.0170 -0.1589 -0.0813
63808SOL     OW98538  10.278   5.750  10.720  0.0007 -0.3371  0.0312
63808SOL    HW198539  10.248   5.836  10.690  0.8078 -0.5389 -1.4889
63808SOL    HW298540  10.348   5.769  10.781 -1.7189  0.0988  1.9794
63809SOL     OW98541   9.385  11.765   2.908  0.3815 -0.3504 -0.5958
63809SOL    HW198542   9.383  11.852   2.867 -0.9373  0.3281  0.7670
63809SOL    HW298543   9.294  11.734   2.902  0.7780 -1.5134 -0.7990
63810SOL     OW98544   6.537   3.076  11.803  0.5452  0.5002  0.1546
63810SOL    HW198545   6.481   3.002  11.826  2.1606 -0.8257  0.0145
63810SOL    HW298546   6.499   3.150  11.851 -0.7406 -0.5359  0.8149
63811SOL     OW98547   6.380   9.112  12.744 -0.3278 -0.3031 -0.7184
63811SOL    HW198548   6.429   9.032  12.725  0.2150  0.0219 -0.6902
63811SOL    HW298549   6.296   9.080  12.777 -0.4846 -0.8728 -1.6133
63812SOL     OW98550   4.001   6.299   2.393  0.0301 -0.5589  0.1577
63812SOL    HW198551   3.994   6.362   2.322  0.3702 -0.9934 -0.2665
63812SOL    HW298552   3.931   6.323   2.454 -0.1701 -0.0991 -0.2544
63813SOL     OW98553   1.053   6.595   4.487 -0.3370 -0.2023 -0.4890
63813SOL    HW198554   1.129   6.617   4.541  0.8696  0.4687 -2.3657
63813SOL    HW298555   0.979   6.635   4.532  0.9470  2.5052 -0.5708
63814SOL     OW98556   3.203  12.382  10.341  0.7674 -0.3766  0.2479
63814SOL    HW198557   3.194  12.352  10.250 -1.4856  1.8642 -0.3862
63814SOL    HW298558   3.133  12.336  10.388  2.3501 -2.0476  1.0767
63815SOL     OW98559  10.126   4.671  12.300  0.2137  0.3166 -0.0700
63815SOL    HW198560  10.075   4.592  12.315  0.0734  0.3112 -0.5629
63815SOL    HW298561  10.112   4.724  12.379 -1.4626  0.8067 -0.6636
63816SOL     OW98562  12.624  10.350   1.464  0.3456  0.4002  0.2241
63816SOL    HW198563  12.584  10.309   1.387  0.6963 -1.8745  1.1994
63816SOL    HW298564  12.636  10.279   1.526  0.1381  2.1641  2.4038
63817SOL     OW98565   0.592   8.258  11.950 -0.0544  0.1511  0.1562
63817SOL    HW198566   0.598   8.277  12.043  0.3760 -0.3551  0.2348
63817SOL    HW298567   0.638   8.175  11.939 -0.3554  0.0617 -0.4615
63818SOL     OW98568  11.875   4.680   1.441  0.0451 -0.4537  0.1384
63818SOL    HW198569  11.866   4.677   1.346 -0.9356 -1.2106  0.2316
63818SOL    HW298570  11.795   4.723   1.472  0.7679  0.6116  0.5850
63819SOL     OW98571   3.088   6.869   9.164 -0.2023  0.0709 -0.2501
63819SOL    HW198572   3.006   6.835   9.198 -0.0308  0.5920  0.7354
63819SOL    HW298573   3.155   6.829   9.220  0.1335  0.4463 -0.3806
63820SOL     OW98574   7.727   1.523   1.014 -0.4889  0.8131 -0.1335
63820SOL    HW198575   7.725   1.478   0.930 -2.4495  0.4201  0.0752
63820SOL    HW298576   7.752   1.613   0.993 -2.7967  1.2229 -1.4347
63821SOL     OW98577   9.237   6.371   9.000 -0.4113 -0.2199 -0.3130
63821SOL    HW198578   9.188   6.344   9.078 -0.0561 -0.1714 -0.0726
63821SOL    HW298579   9.206   6.460   8.982  0.0204  0.0384  0.1932
63822SOL     OW98580   6.061   7.163   4.138 -0.0398 -0.5752  0.0208
63822SOL    HW198581   6.086   7.164   4.231  1.3406 -0.8930 -0.3228
63822SOL    HW298582   6.098   7.244   4.103 -0.4779 -0.5025 -0.2695
63823SOL     OW98583   7.648  10.826   0.648 -0.0855 -0.2692 -0.4077
63823SOL    HW198584   7.633  10.907   0.697 -1.6965 -1.3035  0.9023
63823SOL    HW298585   7.591  10.762   0.689  3.7243 -3.1047  1.0001
63824SOL     OW98586   3.687   1.836   6.745  0.4709  0.1691  0.2476
63824SOL    HW198587   3.698   1.892   6.669  0.4699  0.7918  0.7033
63824SOL    HW298588   3.658   1.752   6.709  1.1677  0.2408 -0.4922
63825SOL     OW98589   3.198  10.023  10.768  0.0550  0.4361  0.2944
63825SOL    HW198590   3.117   9.986  10.805 -1.1247  0.9762 -1.6093
63825SOL    HW298591   3.194  10.002  10.675  1.5873  1.4353 -0.0295
63826SOL     OW98592   7.299   7.088  12.916 -0.2343 -0.2329 -0.7606
63826SOL    HW198593   7.306   7.166  12.861  1.6800  0.5520  0.4785
63826SOL    HW298594   7.363   7.027  12.880 -0.1819 -0.3757 -0.4313
63827SOL     OW98595   9.198  10.103   7.678  0.1490  0.3674  0.2092
63827SOL    HW198596   9.107  10.132   7.686 -0.0653 -0.0204 -0.6776
63827SOL    HW298597   9.245  10.151   7.746 -0.8593 -0.0613  1.2273
63828SOL     OW98598  11.679   8.209   6.936 -0.1920  0.0115 -0.1536
63828SOL    HW198599  11.587   8.210   6.910 -0.3972  1.2371  0.5257
63828SOL    HW298600  11.707   8.301   6.929  0.8405 -0.2665  0.1107
63829SOL     OW98601   3.793   4.761   4.730  0.4690  0.6820 -0.5155
63829SOL    HW198602   3.710   4.719   4.708  0.5494  0.9336 -1.3285
63829SOL    HW298603   3.827   4.710   4.804  0.0313  0.0113 -0.7661
63830SOL     OW98604  12.832   8.347   1.267 -0.3912 -0.2297  0.0789
63830SOL    HW198605  12.795   8.329   1.181  0.6681 -0.1616 -0.4150
63830SOL    HW298606  12.795   8.431   1.292 -0.1217  0.1167 -0.6584
63831SOL     OW98607   9.282   0.316   6.097 -0.1601 -0.1560  0.0113
63831SOL    HW198608   9.297   0.389   6.157  0.4209 -1.3984  1.4233
63831SOL    HW298609   9.331   0.243   6.134 -3.3777 -2.2627  0.5682
63832SOL     OW98610   9.227   1.387   3.667  0.0077  0.3830 -0.4726
63832SOL    HW198611   9.259   1.473   3.639  0.6297  1.0933  2.2111
63832SOL    HW298612   9.137   1.404   3.696 -0.5742 -0.3114 -1.7769
63833SOL     OW98613  12.869   6.586   4.775  0.2790 -0.4132 -0.3462
63833SOL    HW198614  12.926   6.644   4.827 -0.3003  0.1408 -0.3074
63833SOL    HW298615  12.899   6.498   4.796 -0.4063 -0.2526  1.5324
63834SOL     OW98616  11.754   8.719  11.087  0.2828 -0.4856 -0.1249
63834SOL    HW198617  11.768   8.767  11.168 -0.0000  0.6462 -0.7283
63834SOL    HW298618  11.842   8.696  11.057  0.5159  0.8008 -0.4865
63835SOL     OW98619   8.587   2.939  11.499 -0.1172  0.0207 -0.0464
63835SOL    HW198620   8.668   2.929  11.450  0.8354 -0.0311  1.4994
63835SOL    HW298621   8.586   3.031  11.527 -1.7057  0.6480 -1.8707
63836SOL     OW98622   3.632   3.515   4.058  0.1678  0.3807  0.2574
63836SOL    HW198623   3.632   3.607   4.082  0.4515 -0.1231  2.4187
63836SOL    HW298624   3.714   3.502   4.011  0.5616  1.0504  0.7416
63837SOL     OW98625   2.005   7.298   9.078  0.2698  0.8778  0.9401
63837SOL    HW198626   2.056   7.237   9.024 -0.1475  2.0150 -0.8050
63837SOL    HW298627   1.917   7.260   9.081  0.4319  0.5208  1.3322
63838SOL     OW98628  11.407   5.101   0.837  0.1535 -0.3993 -0.5174
63838SOL    HW198629  11.443   5.187   0.815 -0.8569 -0.4166 -2.5289
63838SOL    HW298630  11.441   5.082   0.924  0.8156  1.8110 -0.2188
63839SOL     OW98631  12.364   8.398   4.751  0.0975 -0.7620  0.1200
63839SOL    HW198632  12.382   8.491   4.762  3.3611 -1.1497 -0.7500
63839SOL    HW298633  12.320   8.372   4.831  1.6672  1.0268  1.6547
63840SOL     OW98634   1.987   1.383   7.332  0.9057 -0.1577 -0.0429
63840SOL    HW198635   2.054   1.451   7.339 -0.4227  1.0602  2.7305
63840SOL    HW298636   1.909   1.430   7.301  0.3276 -0.6681  0.6095
63841SOL     OW98637   3.178   9.343   8.975  0.0771  0.3145 -0.1009
63841SOL    HW198638   3.113   9.342   9.045  0.1421 -1.2610 -0.0263
63841SOL    HW298639   3.148   9.411   8.915 -0.4384  1.1059  1.0213
63842SOL     OW98640   7.318   4.862   0.591 -0.7520 -0.1590  0.1803
63842SOL    HW198641   7.358   4.940   0.631 -0.5232 -0.5440  0.7252
63842SOL    HW298642   7.347   4.864   0.500  0.1064 -0.1549  0.4419
63843SOL     OW98643  12.379   3.588  12.325 -0.2876 -0.4788 -0.7827
63843SOL    HW198644  12.374   3.666  12.269  0.2037 -0.8567 -1.3691
63843SOL    HW298645  12.465   3.550  12.304  0.7278  0.3487  1.5265
63844SOL     OW98646   8.883  10.681   5.648 -0.0769 -0.0978  0.5786
63844SOL    HW198647   8.878  10.654   5.740  2.1308 -0.0101  0.7689
63844SOL    HW298648   8.803  10.646   5.608 -0.7247 -0.7597  2.3580
63845SOL     OW98649   3.450  10.437   4.880 -0.3580  0.4614 -0.0133
63845SOL    HW198650   3.478  10.508   4.822 -1.0494  0.9604  0.2507
63845SOL    HW298651   3.472  10.357   4.833  2.0282  0.7998  0.4104
63846SOL     OW98652  11.027   8.229   8.269 -0.3855  0.2910 -0.7420
63846SOL    HW198653  11.018   8.138   8.297  0.9867  0.1287 -0.7250
63846SOL    HW298654  11.115   8.253   8.297 -1.1053  1.9648  0.1558
63847SOL     OW98655   9.423   8.382   1.423  0.1857  0.0221  0.0147
63847SOL    HW198656   9.467   8.456   1.383  0.0874  0.3540  0.5148
63847SOL    HW298657   9.469   8.368   1.505 -1.2924  1.0724  1.0763
63848SOL     OW98658  12.961   7.585   5.306 -0.2118  0.6320  0.4481
63848SOL    HW198659  12.933   7.512   5.360 -1.7893  0.5969 -0.3495
63848SOL    HW298660  12.920   7.662   5.346  0.2483  0.8775  0.4501
63849SOL     OW98661   5.041   9.245   3.056 -0.3022  0.4302 -0.7517
63849SOL    HW198662   4.962   9.212   3.013 -0.2787 -1.0421  0.2527
63849SOL    HW298663   5.107   9.177   3.039 -0.2650 -0.1680  1.4670
63850SOL     OW98664   8.408   4.751  11.900  0.1510 -0.3636 -0.1937
63850SOL    HW198665   8.471   4.750  11.972  1.0423  1.1992 -0.8942
63850SOL    HW298666   8.458   4.783  11.825 -1.4785  0.9666 -0.7741
63851SOL     OW98667   1.521   4.913   9.460  0.1698 -0.0404 -0.5580
63851SOL    HW198668   1.592   4.894   9.399 -0.2392 -0.5261 -0.8889
63851SOL    HW298669   1.447   4.937   9.405 -0.2790 -0.7357 -0.2724
63852SOL     OW98670  11.596  11.613  10.879  0.1743 -0.9961  0.0688
63852SOL    HW198671  11.548  11.676  10.933  0.3382  0.2166 -1.1467
63852SOL    HW298672  11.551  11.614  10.795  0.6447 -1.9656 -0.2189
63853SOL     OW98673   9.140  11.478   7.541  0.0692 -0.2675  0.3254
63853SOL    HW198674   9.230  11.456   7.517 -0.6126 -2.0310 -0.8296
63853SOL    HW298675   9.145  11.568   7.572  2.4041 -0.6926  1.3746
63854SOL     OW98676   2.238   2.065   5.764  0.6997 -0.4625  0.2209
63854SOL    HW198677   2.224   2.148   5.808  0.3693 -0.2467 -0.2709
63854SOL    HW298678   2.284   2.088   5.683  1.1169 -0.8240  0.3515
63855SOL     OW98679   0.489   8.435   9.883 -0.1969 -0.1587 -0.3950
63855SOL    HW198680   0.565   8.427   9.826 -0.1939  1.4607 -0.6679
63855SOL    HW298681   0.523   8.418   9.971  0.1591 -0.9226 -0.6715
63856SOL     OW98682   0.963   8.838   2.885 -0.0992 -0.1891  0.5439
63856SOL    HW198683   0.984   8.862   2.975 -1.8629 -0.2686  1.0095
63856SOL    HW298684   0.960   8.922   2.838  0.9366 -0.1579  0.4944
63857SOL     OW98685   0.208   3.621   3.309  0.2513 -0.2053  0.0115
63857SOL    HW198686   0.161   3.695   3.346  2.0215  0.4216  1.1114
63857SOL    HW298687   0.174   3.613   3.220 -0.4521  1.4902  0.0995
63858SOL     OW98688   9.818   4.794   9.768 -0.4186 -0.1241 -0.2543
63858SOL    HW198689   9.836   4.719   9.825 -2.3490 -0.4063  0.0449
63858SOL    HW298690   9.854   4.869   9.815 -0.0610 -0.6311  0.2932
63859SOL     OW98691   6.754   9.666   3.199 -0.0034 -0.0471  0.1429
63859SOL    HW198692   6.772   9.675   3.105 -0.0319  0.9656  0.2255
63859SOL    HW298693   6.838   9.638   3.236 -0.3908 -2.1183 -0.3729
63860SOL     OW98694   2.136   2.777   9.448  0.1940 -0.3351  0.1322
63860SOL    HW198695   2.098   2.836   9.513 -1.1988 -1.4894  0.4214
63860SOL    HW298696   2.215   2.823   9.418  0.3785  0.6594  1.9306
63861SOL     OW98697   1.164   3.573   6.479 -0.4960 -0.1732  0.1838
63861SOL    HW198698   1.257   3.556   6.465 -0.8858 -0.1622 -3.6876
63861SOL    HW298699   1.132   3.496   6.525  1.2049 -0.8157  0.3432
63862SOL     OW98700   5.066   6.601   3.802 -0.0886  0.2123 -0.1790
63862SOL    HW198701   5.074   6.652   3.721  0.7015  0.1399 -0.1577
63862SOL    HW298702   5.115   6.652   3.867  0.6298 -0.5095 -0.1341
63863SOL     OW98703   1.560   0.610  10.932 -0.1403  0.1253 -0.1333
63863SOL    HW198704   1.652   0.596  10.910 -0.3629 -0.7639 -0.5640
63863SOL    HW298705   1.527   0.522  10.950 -0.9142  0.4340 -0.0247
63864SOL     OW98706  11.135   3.104   4.901 -0.4791  0.0057  0.4392
63864SOL    HW198707  11.073   3.057   4.956 -1.2206  0.6558  0.1681
63864SOL    HW298708  11.135   3.193   4.935 -1.4090  0.5725 -0.9740
63865SOL     OW98709   9.652   1.422  12.036  0.3513 -0.0303 -0.6163
63865SOL    HW198710   9.718   1.490  12.033  0.3243  0.0808  0.7588
63865SOL    HW298711   9.686   1.352  11.979 -0.4095  1.7387 -3.4590
63866SOL     OW98712   2.345   9.458   0.708  0.6367 -0.0261  0.1875
63866SOL    HW198713   2.373   9.457   0.799 -0.5032  0.6864  0.5495
63866SOL    HW298714   2.270   9.399   0.705 -1.3996  2.4210  0.4167
63867SOL     OW98715   1.775   7.403   8.880 -0.1791  0.1256  0.2030
63867SOL    HW198716   1.795   7.309   8.881 -0.7510 -0.0139 -0.7719
63867SOL    HW298717   1.746   7.422   8.969 -1.0942 -0.8564  0.1262
63868SOL     OW98718  11.498  11.202   4.100  0.3124 -0.0125 -0.1511
63868SOL    HW198719  11.580  11.173   4.138 -0.2200 -0.8719  0.3774
63868SOL    HW298720  11.431  11.175   4.163 -0.2416  2.3741  0.3602
63869SOL     OW98721   4.258   4.329   5.391 -0.0966  0.5026 -0.0131
63869SOL    HW198722   4.200   4.287   5.455  1.0462 -0.5213  0.4095
63869SOL    HW298723   4.236   4.288   5.308  0.7020 -0.6898  0.3243
63870SOL     OW98724  11.871   6.311   7.931 -0.0955  0.1097  0.1789
63870SOL    HW198725  11.852   6.238   7.873  1.4186 -0.9284  0.9244
63870SOL    HW298726  11.895   6.270   8.015  0.7142  1.4393  0.6367
63871SOL     OW98727  12.051   6.446  12.289 -0.5008  0.5014  0.5782
63871SOL    HW198728  12.068   6.364  12.335 -0.6751 -1.1123 -1.9943
63871SOL    HW298729  12.137   6.473  12.257 -0.8417 -0.6867 -1.5541
63872SOL     OW98730   0.998   6.195  10.362 -0.1209  0.2677  0.3426
63872SOL    HW198731   0.924   6.214  10.420 -1.5608 -1.4322 -0.8106
63872SOL    HW298732   1.004   6.099  10.363  2.5841  0.3703  0.9545
63873SOL     OW98733   5.391   0.559   8.143 -0.0544 -0.0655 -0.2025
63873SOL    HW198734   5.384   0.654   8.144  1.7627  0.0968 -0.0305
63873SOL    HW298735   5.301   0.529   8.135 -1.0721  1.5952  3.0364
63874SOL     OW98736   5.537   1.949   3.728  0.4241 -0.6518 -0.5646
63874SOL    HW198737   5.467   1.893   3.695 -0.0659 -0.2807 -0.1735
63874SOL    HW298738   5.500   1.990   3.806  1.1199 -0.5337 -0.2919
63875SOL     OW98739   2.901   5.174   2.388 -0.2733 -0.4440  0.0510
63875SOL    HW198740   2.879   5.265   2.406  0.4879 -0.5513  1.6912
63875SOL    HW298741   2.924   5.173   2.295  0.1329  1.1337  0.1092
63876SOL     OW98742   0.297   3.731   9.564  0.3222  0.1829  0.6347
63876SOL    HW198743   0.335   3.668   9.502 -0.8197 -0.2916  0.3944
63876SOL    HW298744   0.372   3.782   9.595  1.2624 -1.1772  0.7010
63877SOL     OW98745  11.975  11.524   9.158  0.3753 -0.4414 -0.5222
63877SOL    HW198746  11.977  11.619   9.147  1.5861 -0.2372  1.2025
63877SOL    HW298747  12.057  11.502   9.201  0.4504 -2.3869 -1.5179
63878SOL     OW98748   2.210   1.185   8.607 -0.0238 -0.1400  0.0020
63878SOL    HW198749   2.194   1.278   8.594 -1.2504 -0.5048 -1.4035
63878SOL    HW298750   2.302   1.173   8.582  0.3690  0.7817  0.9086
63879SOL     OW98751   8.122   3.537  10.124  0.1357  0.1170  0.3607
63879SOL    HW198752   8.137   3.443  10.135 -2.1120 -0.3119  0.1342
63879SOL    HW298753   8.139   3.553  10.031 -0.2301 -0.2158  0.2363
63880SOL     OW98754   4.887   3.628  10.801 -0.0894  0.8368 -0.8348
63880SOL    HW198755   4.816   3.599  10.744  0.5281 -1.2060 -0.6398
63880SOL    HW298756   4.842   3.668  10.876 -1.1546 -1.2975 -0.2332
63881SOL     OW98757   0.912   2.162   0.595  0.1747 -0.6687 -0.1984
63881SOL    HW198758   0.817   2.162   0.600  0.1878  0.2971  0.4815
63881SOL    HW298759   0.936   2.071   0.578 -0.8634 -0.9306 -0.2934
63882SOL     OW98760   5.219  11.209   1.600 -0.0086 -0.2052  0.1629
63882SOL    HW198761   5.132  11.249   1.600  0.7785  1.6317  0.0909
63882SOL    HW298762   5.225  11.165   1.515 -0.5724  0.3769 -0.1914
63883SOL     OW98763   4.316  12.260   6.442 -0.1374  0.0143 -0.0663
63883SOL    HW198764   4.362  12.210   6.509  0.9246  1.3170  0.2130
63883SOL    HW298765   4.365  12.242   6.361  0.3241  0.6651  0.0578
63884SOL     OW98766   9.333   2.077   2.767  0.4700 -0.4699 -0.3363
63884SOL    HW198767   9.307   2.008   2.828 -0.9655 -1.6082 -2.1070
63884SOL    HW298768   9.276   2.151   2.789 -0.0355 -0.8662 -0.2788
63885SOL     OW98769   7.648   4.724   9.804  0.1317 -0.2738  1.0737
63885SOL    HW198770   7.703   4.761   9.735 -0.6753  0.2950  0.7229
63885SOL    HW298771   7.699   4.651   9.839  1.4175  0.6645  1.2337
63886SOL     OW98772   4.885   1.211   2.111  0.6131  0.1839  0.1933
63886SOL    HW198773   4.961   1.190   2.166  1.2339  0.9917 -0.3242
63886SOL    HW298774   4.909   1.178   2.024  0.1754  0.0323  0.1302
63887SOL     OW98775   4.006   3.408   9.930 -0.0398 -0.0949 -0.2401
63887SOL    HW198776   4.087   3.365   9.955 -1.2867 -1.2978  2.0209
63887SOL    HW298777   3.941   3.338   9.927 -1.3827  1.0849 -0.0906
63888SOL     OW98778   2.422   3.950   5.931  0.2340 -0.1793  0.1291
63888SOL    HW198779   2.357   3.916   5.871 -0.2452 -0.2320  0.6666
63888SOL    HW298780   2.502   3.960   5.878 -0.0194 -0.7562 -0.3653
63889SOL     OW98781   1.207   4.747   0.177  0.0853  0.2834 -0.3394
63889SOL    HW198782   1.183   4.797   0.099 -0.7941 -0.2098 -0.3911
63889SOL    HW298783   1.293   4.710   0.156  1.2422  2.5845  0.0940
63890SOL     OW98784   2.055   8.341   9.908  0.3650  0.0680  0.2183
63890SOL    HW198785   2.064   8.434   9.891  0.3578 -0.3084 -2.2201
63890SOL    HW298786   1.973   8.333   9.958 -0.1629  1.2807 -0.4266
63891SOL     OW98787   9.545   6.022   2.259 -0.6235 -0.1309 -0.1999
63891SOL    HW198788   9.475   5.976   2.213 -0.4443  1.0311 -1.7326
63891SOL    HW298789   9.623   6.006   2.205  0.4157 -1.6346  1.6152
63892SOL     OW98790   0.231   9.865   4.654 -0.3010 -0.2871  0.3373
63892SOL    HW198791   0.227   9.848   4.560  0.1655 -0.7690  0.4045
63892SOL    HW298792   0.230   9.961   4.660 -1.0846 -0.2520 -0.1169
63893SOL     OW98793   4.860   7.980   6.164 -0.1993  0.0406  0.0531
63893SOL    HW198794   4.897   8.060   6.199 -2.1069  0.6227  0.8940
63893SOL    HW298795   4.898   7.910   6.217 -1.5221  0.7544  2.0547
63894SOL     OW98796   6.206  11.344  10.918 -0.3549  0.1769  0.6453
63894SOL    HW198797   6.286  11.389  10.891 -1.2486  2.6813  1.9033
63894SOL    HW298798   6.232  11.293  10.996  0.1739  0.3516  0.5860
63895SOL     OW98799   7.656   0.898  10.660 -0.6870  0.4218  0.5519
63895SOL    HW198800   7.742   0.875  10.623  0.1959  3.5824  0.3449
63895SOL    HW298801   7.658   0.863  10.749  0.0177 -1.1737 -0.0457
63896SOL     OW98802   7.226   4.168   5.887 -0.4149  0.0837 -0.2610
63896SOL    HW198803   7.261   4.243   5.935 -1.0837 -0.6404  1.4405
63896SOL    HW298804   7.289   4.152   5.817  0.0220  1.8732 -0.3377
63897SOL     OW98805   8.597  11.188   8.766 -0.2323  0.3588  0.0991
63897SOL    HW198806   8.545  11.243   8.708 -0.2937  1.7492  1.4107
63897SOL    HW298807   8.662  11.148   8.708 -0.5577  1.3468 -1.0013
63898SOL     OW98808   9.866   8.132   3.379  0.0259 -0.1935  0.5399
63898SOL    HW198809   9.962   8.134   3.380  0.0460  1.0737 -0.8084
63898SOL    HW298810   9.842   8.158   3.290 -1.5828  0.1209  1.0303
63899SOL     OW98811   4.917   2.389   7.224 -0.1901  0.6258 -0.2271
63899SOL    HW198812   4.859   2.455   7.261  2.6587  3.5696 -0.6198
63899SOL    HW298813   4.945   2.337   7.300 -1.6885  0.4308  0.2307
63900SOL     OW98814  12.449   3.055   7.434 -0.2390 -0.2427 -0.0808
63900SOL    HW198815  12.531   3.008   7.419  0.8335  1.3021  0.7695
63900SOL    HW298816  12.466   3.144   7.404 -1.7848  0.0008 -0.3305
63901SOL     OW98817  10.992   5.961   6.234 -0.2313  0.0483 -0.2386
63901SOL    HW198818  10.926   5.918   6.179 -0.8967 -0.3092  0.8257
63901SOL    HW298819  10.948   6.040   6.266 -0.4402 -0.6011  1.1211
63902SOL     OW98820  10.655   2.240   6.083  0.6196  0.4187  0.3349
63902SOL    HW198821  10.711   2.313   6.058 -1.0595  1.2212 -1.3872
63902SOL    HW298822  10.567   2.267   6.054 -0.3215 -1.6112  1.1116
63903SOL     OW98823   2.575   8.762  12.861  0.5633 -0.0988 -0.0260
63903SOL    HW198824   2.669   8.748  12.873  0.6152 -1.1862 -1.4924
63903SOL    HW298825   2.534   8.686  12.904  0.4417 -0.4507 -0.7539
63904SOL     OW98826   9.764   3.581   5.374  0.3441  0.5524  0.0373
63904SOL    HW198827   9.742   3.503   5.426 -1.7922  1.7133  0.9699
63904SOL    HW298828   9.723   3.565   5.289  1.3388 -0.0274 -0.3637
63905SOL     OW98829   4.939   3.585   8.774 -0.2463 -0.0460 -0.1747
63905SOL    HW198830   4.945   3.570   8.869 -0.5914  0.8421  0.0038
63905SOL    HW298831   4.846   3.570   8.754 -0.9818  3.1696  0.3040
63906SOL     OW98832   7.942   5.808   1.110 -0.6643  0.5315  0.0052
63906SOL    HW198833   7.951   5.735   1.170 -1.3622  1.4969  1.3298
63906SOL    HW298834   8.016   5.865   1.130  0.5055 -0.2935 -1.7731
63907SOL     OW98835  11.728   4.415   4.112 -0.1398  0.3911 -0.3213
63907SOL    HW198836  11.745   4.503   4.145 -0.7628  0.9278 -1.3854
63907SOL    HW298837  11.789   4.359   4.161 -0.3936  1.2609  1.0407
63908SOL     OW98838  12.344  10.719   4.718 -0.3162 -0.1822  0.1940
63908SOL    HW198839  12.362  10.675   4.635  0.1802 -1.1437  0.7873
63908SOL    HW298840  12.427  10.763   4.740 -0.1993 -0.5676  0.5439
63909SOL     OW98841   6.719  10.022   2.660 -0.7352  0.9504  0.1943
63909SOL    HW198842   6.803  10.068   2.665  0.5332 -1.3198  1.2831
63909SOL    HW298843   6.681  10.030   2.747 -1.5060  1.6677 -0.1958
63910SOL     OW98844  12.236   8.976   1.894 -0.1899 -0.4780 -0.0544
63910SOL    HW198845  12.195   8.992   1.809 -0.4086  1.7749  0.4165
63910SOL    HW298846  12.226   9.059   1.941  2.1493 -0.8563  1.2444
63911SOL     OW98847   3.013   4.564  10.466 -0.1921  0.0652 -0.3651
63911SOL    HW198848   3.036   4.622  10.539 -1.9195  0.0489  0.2498
63911SOL    HW298849   3.039   4.613  10.388  2.1247 -0.1141  0.2179
63912SOL     OW98850   9.780   4.524  11.968 -0.5566  0.0423  0.7046
63912SOL    HW198851   9.849   4.590  11.957 -1.2390  0.5286 -1.0247
63912SOL    HW298852   9.815   4.445  11.928 -2.3067  1.3026 -4.0281
63913SOL     OW98853  11.949   8.060   3.270  0.1552 -0.2608  0.2074
63913SOL    HW198854  11.927   7.985   3.215  0.1106  0.5139 -0.8410
63913SOL    HW298855  12.037   8.086   3.242  0.5940 -0.5178  1.2575
63914SOL     OW98856  11.296   1.585   8.434  0.4631  0.9253 -0.0105
63914SOL    HW198857  11.247   1.531   8.496 -1.3338  1.4316 -0.9101
63914SOL    HW298858  11.358   1.525   8.393 -1.2844 -0.4412 -0.7748
63915SOL     OW98859   4.346   5.015   3.164 -0.5445  0.2028 -0.2469
63915SOL    HW198860   4.437   5.044   3.160 -0.6392  0.6462  0.5432
63915SOL    HW298861   4.316   5.044   3.250 -0.8685 -1.5886  0.2862
63916SOL     OW98862   9.798   1.835   9.504 -0.7748 -0.0799  0.2154
63916SOL    HW198863   9.818   1.901   9.570  0.6482 -3.1368  3.1511
63916SOL    HW298864   9.732   1.779   9.546 -1.5133 -0.8513 -1.8798
63917SOL     OW98865   1.132   6.253  12.868 -0.5344 -0.8197  0.1042
63917SOL    HW198866   1.155   6.258  12.775  1.5027  0.2965  0.6065
63917SOL    HW298867   1.047   6.298  12.874 -0.0934  0.2198 -1.0482
63918SOL     OW98868  11.996   7.201   4.035  0.0475  0.1987 -0.3531
63918SOL    HW198869  11.913   7.224   4.078 -0.0021 -0.9827  0.2123
63918SOL    HW298870  12.020   7.280   3.987 -0.2256  1.3657  1.3280
63919SOL     OW98871  11.149   3.626   6.397  0.2525  0.6235 -0.3383
63919SOL    HW198872  11.082   3.681   6.436 -0.2246 -0.1104 -0.1021
63919SOL    HW298873  11.232   3.668   6.422 -0.0517  0.4079  1.1142
63920SOL     OW98874  12.012   6.470   3.150 -0.0751 -0.0339  0.1322
63920SOL    HW198875  12.006   6.564   3.134  2.2535 -0.0552 -1.3038
63920SOL    HW298876  12.105   6.454   3.168 -0.5887 -1.9138  1.5176
63921SOL     OW98877   4.156   6.915  11.032 -1.2356  0.1220  0.0798
63921SOL    HW198878   4.190   6.873  11.111 -0.2636  1.0682  0.1847
63921SOL    HW298879   4.066   6.885  11.027 -1.5686  0.6343  1.9905
63922SOL     OW98880   9.803   9.011  11.292  0.2911  0.1735 -0.1381
63922SOL    HW198881   9.798   9.012  11.388 -1.2893 -1.0164 -0.1752
63922SOL    HW298882   9.715   9.035  11.263  1.0804  1.8060 -1.3360
63923SOL     OW98883   0.540   0.014   5.608 -0.1636 -0.0955 -0.5026
63923SOL    HW198884   0.592   0.076   5.659 -1.0786 -0.3293  0.7643
63923SOL    HW298885   0.565  -0.072   5.643 -1.4798 -0.2014  0.2406
63924SOL     OW98886   7.688   9.253  11.046 -0.2551 -0.9527 -0.7885
63924SOL    HW198887   7.633   9.209  10.981 -0.9990 -0.7943 -0.2806
63924SOL    HW298888   7.777   9.227  11.024 -0.5793 -1.6608 -1.2951
63925SOL     OW98889   6.026   9.698   3.425  0.2330 -0.1510 -0.3879
63925SOL    HW198890   6.099   9.724   3.369  0.7009  0.6091  0.5319
63925SOL    HW298891   6.052   9.728   3.513 -0.7535 -0.7414  0.1205
63926SOL     OW98892   6.226   4.947   3.401 -0.3751 -0.0687  0.5076
63926SOL    HW198893   6.218   4.964   3.307  0.1264  0.6238  0.5811
63926SOL    HW298894   6.199   5.029   3.443  3.0275  1.0540  0.8367
63927SOL     OW98895   7.982   1.412  10.675 -0.6571  0.3435  0.0909
63927SOL    HW198896   7.908   1.359  10.647  1.2543 -3.0753  0.8847
63927SOL    HW298897   7.970   1.423  10.769 -0.4966  0.4088  0.1039
63928SOL     OW98898   3.353   6.464   6.588  0.2530 -0.0193  0.0126
63928SOL    HW198899   3.318   6.516   6.661  0.2194 -1.7542  1.3006
63928SOL    HW298900   3.277   6.418   6.553  0.4733 -0.1610 -0.2791
63929SOL     OW98901  10.398   1.483   8.546  0.4519  0.1906 -0.1362
63929SOL    HW198902  10.351   1.565   8.564  0.0668 -0.1993  0.6819
63929SOL    HW298903  10.337   1.433   8.491 -0.3824 -0.5642  1.4178
63930SOL     OW98904   5.657   7.349   1.270 -0.4302 -0.4368 -0.0319
63930SOL    HW198905   5.670   7.334   1.177 -0.3061 -0.2055 -0.0509
63930SOL    HW298906   5.712   7.283   1.313 -2.1102 -1.9693 -0.1167
63931SOL     OW98907   6.188   6.603   6.988  0.2541 -0.0938 -0.1713
63931SOL    HW198908   6.251   6.630   7.055  0.0815 -0.7690  0.2790
63931SOL    HW298909   6.102   6.627   7.024  0.2037  0.1190 -0.4330
63932SOL     OW98910  12.342   9.344   3.549 -0.1605 -0.0889 -0.1189
63932SOL    HW198911  12.285   9.345   3.626  1.5334 -0.9420  1.1993
63932SOL    HW298912  12.299   9.404   3.487 -1.3332  0.9753  1.6311
63933SOL     OW98913  11.875   9.155  10.830 -0.3100  0.4757 -0.2640
63933SOL    HW198914  11.911   9.139  10.742 -1.5752 -0.7738 -0.5925
63933SOL    HW298915  11.816   9.230  10.818 -0.7058  0.1211 -0.5488
63934SOL     OW98916   7.049  12.832  11.897 -0.5473  0.9581 -0.3917
63934SOL    HW198917   7.002  12.829  11.980 -1.0107 -1.6662 -0.6664
63934SOL    HW298918   6.988  12.874  11.836 -1.5624 -0.0893 -0.1384
63935SOL     OW98919   6.210   6.058   1.946 -1.0016  0.2984  0.2325
63935SOL    HW198920   6.295   6.041   1.987 -1.7641  0.3993  1.9800
63935SOL    HW298921   6.215   6.149   1.916 -0.0338 -0.1259 -0.9388
63936SOL     OW98922   0.010   7.919   9.513  0.8399 -0.1878 -0.0915
63936SOL    HW198923  -0.063   7.868   9.548  1.3036 -1.1064 -0.4464
63936SOL    HW298924  -0.007   8.008   9.543  0.8444 -0.8071  1.9093
63937SOL     OW98925   0.781   3.362  11.930  0.2514 -0.5234  0.4161
63937SOL    HW198926   0.821   3.393  11.849 -0.9118 -1.0901 -0.4164
63937SOL    HW298927   0.698   3.323  11.902 -1.2445  1.2305  2.1191
63938SOL     OW98928  10.959   7.203   1.352  0.3267 -0.1928 -0.3877
63938SOL    HW198929  10.936   7.221   1.443  0.1242  1.7562 -0.7855
63938SOL    HW298930  11.052   7.179   1.355  0.7146  1.2878  0.1937
63939SOL     OW98931  11.651   3.719  10.409  0.0458 -0.3118 -0.1955
63939SOL    HW198932  11.561   3.698  10.386 -0.8923  0.5882  2.2162
63939SOL    HW298933  11.684   3.641  10.453 -0.6508  0.2909  1.5284
63940SOL     OW98934   6.385   5.926   9.779 -0.5603 -0.0394 -0.2026
63940SOL    HW198935   6.426   5.844   9.808 -1.0518 -0.7518 -1.4755
63940SOL    HW298936   6.325   5.901   9.710 -3.0931  1.0086  1.4677
63941SOL     OW98937  11.451  10.881   1.397 -0.3801  0.1239 -0.3516
63941SOL    HW198938  11.410  10.801   1.363  0.8402 -0.7113  0.0470
63941SOL    HW298939  11.426  10.949   1.334 -2.4007 -0.2990 -0.0779
63942SOL     OW98940   6.937   7.958   0.671  0.0531 -0.4532 -0.0765
63942SOL    HW198941   7.000   7.914   0.727 -0.3456 -1.9332 -0.7469
63942SOL    HW298942   6.858   7.904   0.678 -0.5845  0.3927 -0.6077
63943SOL     OW98943   7.023   2.568   6.003  0.9703 -0.2654 -0.7598
63943SOL    HW198944   7.013   2.494   5.943  0.7107  0.8387 -2.1418
63943SOL    HW298945   7.046   2.641   5.946 -1.2172  1.2837  0.2256
63944SOL     OW98946   5.991   4.528   8.228  0.4662 -0.2725  0.6666
63944SOL    HW198947   6.042   4.609   8.227 -0.3213  0.2638 -1.3219
63944SOL    HW298948   5.904   4.555   8.198 -0.2023 -1.6355  1.3095
63945SOL     OW98949   4.666   9.758   1.229 -0.4264  0.1528  0.6523
63945SOL    HW198950   4.574   9.737   1.215 -0.8996  1.3298  1.7626
63945SOL    HW298951   4.670   9.853   1.224  0.8924  0.0805 -0.1768
63946SOL     OW98952   5.094   8.777   5.617  0.2191 -0.3827  0.2384
63946SOL    HW198953   5.000   8.767   5.600 -0.3843  0.5825  2.5953
63946SOL    HW298954   5.132   8.693   5.591 -1.7442 -1.8317  1.6857
63947SOL     OW98955   0.468   9.100   1.859 -0.1015  0.3203 -0.7911
63947SOL    HW198956   0.546   9.098   1.914  0.1749 -2.5875 -1.0854
63947SOL    HW298957   0.468   9.187   1.819  2.5687  0.6814 -0.1872
63948SOL     OW98958   4.344   7.353   8.650  0.4011 -0.2556  0.5058
63948SOL    HW198959   4.420   7.304   8.682  0.1969 -1.2447 -0.4951
63948SOL    HW298960   4.310   7.302   8.577 -0.5935  0.7298  0.2419
63949SOL     OW98961   0.877  11.323  12.896 -0.2646 -0.2574 -0.4826
63949SOL    HW198962   0.961  11.353  12.861 -0.1519 -0.5565 -0.4768
63949SOL    HW298963   0.848  11.393  12.954  0.7000 -0.7913  0.6800
63950SOL     OW98964   6.533  12.846   0.174  0.1973  0.1089 -0.5728
63950SOL    HW198965   6.483  12.911   0.125  0.4609  1.6412  1.0702
63950SOL    HW298966   6.623  12.880   0.175  0.7575 -1.2570 -1.2549
63951SOL     OW98967   5.273  11.175   6.592 -0.5157 -0.4097  0.3710
63951SOL    HW198968   5.214  11.101   6.578  0.5237 -1.6634  2.1795
63951SOL    HW298969   5.339  11.167   6.523 -0.1220 -1.5093  0.8556
63952SOL     OW98970   8.036  11.216  11.247  0.1027 -0.1944 -0.0832
63952SOL    HW198971   8.058  11.161  11.323  2.2054  0.1966 -0.3566
63952SOL    HW298972   8.010  11.299  11.285  0.7082 -0.1455  0.2432
63953SOL     OW98973   0.331   2.523   4.162  0.5723 -0.6485  0.3447
63953SOL    HW198974   0.418   2.560   4.147 -0.5034  1.3606 -1.7015
63953SOL    HW298975   0.334   2.437   4.119  1.2845 -0.1973 -0.5469
63954SOL     OW98976   2.649   6.674   7.795  0.2833  0.4535  0.1291
63954SOL    HW198977   2.641   6.687   7.701 -1.0232  0.1446  0.1897
63954SOL    HW298978   2.569   6.629   7.821 -0.2605  2.1688  1.6825
63955SOL     OW98979  10.644   0.816   9.150  0.6607  0.0487  0.8265
63955SOL    HW198980  10.737   0.798   9.164  0.7637 -0.6710 -0.6895
63955SOL    HW298981  10.639   0.911   9.143  1.5640  0.0129 -0.7708
63956SOL     OW98982  11.479   2.052   1.799  0.0103 -0.0910  0.2705
63956SOL    HW198983  11.499   1.992   1.727  1.6718  1.8323 -0.9696
63956SOL    HW298984  11.517   2.009   1.876  2.4707 -0.0851 -0.8150
63957SOL     OW98985   8.517   3.460   9.390 -0.7886 -0.3786 -0.4299
63957SOL    HW198986   8.435   3.495   9.425 -0.6313 -1.1372  0.7582
63957SOL    HW298987   8.572   3.537   9.376 -0.6775 -0.0537  1.5155
63958SOL     OW98988  11.613   9.060   7.893 -0.0901 -0.0947 -0.6118
63958SOL    HW198989  11.656   8.985   7.852 -0.4209 -0.4884 -0.2416
63958SOL    HW298990  11.592   9.118   7.820  0.2774 -0.3026 -0.8865
63959SOL     OW98991  10.459   0.210   7.741 -0.5176 -0.1989 -0.4922
63959SOL    HW198992  10.447   0.121   7.775  1.1090 -0.1404  0.3791
63959SOL    HW298993  10.452   0.266   7.818  0.1361  0.2471 -0.7403
63960SOL     OW98994   6.579   4.329  10.525  0.1595 -0.2032  0.4707
63960SOL    HW198995   6.520   4.397  10.558  1.8226  1.0209  1.0714
63960SOL    HW298996   6.666   4.361  10.546  1.0810 -1.7430 -0.7776
63961SOL     OW98997   2.383   0.314  10.725  0.7212 -0.3514  0.1366
63961SOL    HW198998   2.429   0.273  10.651  0.1264 -1.9609  0.6214
63961SOL    HW298999   2.291   0.312  10.699  0.4149 -1.6626  1.2228
63962SOL     OW99000  11.453   3.982  10.179  0.0837 -0.0727 -0.3981
63962SOL    HW199001  11.448   4.008  10.270  0.2605 -2.1843  0.2765
63962SOL    HW299002  11.495   4.056  10.135 -0.9731  1.4174  1.0008
63963SOL     OW99003   0.609   2.585   2.496 -0.3137 -0.1908  0.5582
63963SOL    HW199004   0.643   2.548   2.414 -0.5432 -0.2820  0.5019
63963SOL    HW299005   0.676   2.566   2.561  0.1828  0.4882  0.2515
63964SOL     OW99006  12.125  10.360   6.652 -0.2214 -0.0876  0.1881
63964SOL    HW199007  12.115  10.295   6.582  0.8594  1.1135 -1.1395
63964SOL    HW299008  12.176  10.431   6.612 -0.7714  1.2766  1.7888
63965SOL     OW99009   9.953   2.699   1.798 -0.1994  0.0245  0.1623
63965SOL    HW199010   9.930   2.681   1.889 -2.2266 -2.4229 -0.7381
63965SOL    HW299011   9.884   2.757   1.768  0.4416  0.7867  0.1233
63966SOL     OW99012  11.323  12.022   5.901 -0.2298 -1.2172  0.1262
63966SOL    HW199013  11.393  12.013   5.965  0.8432 -0.7989 -0.9430
63966SOL    HW299014  11.259  11.955   5.925 -1.5303  1.0394  3.6318
63967SOL     OW99015   7.796   7.068   5.109  0.6464 -0.1294 -0.2514
63967SOL    HW199016   7.801   6.977   5.138  2.6755 -0.5130 -1.6283
63967SOL    HW299017   7.853   7.072   5.032 -1.2904  1.7613 -1.7049
63968SOL     OW99018   2.637   0.987   1.317 -0.1941 -0.5712  0.3627
63968SOL    HW199019   2.682   1.071   1.304 -0.1373 -0.5730  0.5552
63968SOL    HW299020   2.688   0.925   1.264 -1.6905 -0.0232 -1.8760
63969SOL     OW99021   6.942  10.044   8.779  0.2509  0.0968  0.5110
63969SOL    HW199022   6.996  10.095   8.719 -0.5498  1.8388  1.1907
63969SOL    HW299023   7.000  10.020   8.850  0.3678  1.2196  0.8176
63970SOL     OW99024   3.198  12.381   9.361  0.6562  0.0079  0.2795
63970SOL    HW199025   3.162  12.379   9.273  1.3218 -2.0573  0.0056
63970SOL    HW299026   3.142  12.442   9.409 -0.7290 -0.0970 -1.1435
63971SOL     OW99027   9.336   4.391   7.466  0.3507 -0.0446 -0.9567
63971SOL    HW199028   9.278   4.412   7.393 -0.2787 -0.7365 -0.6752
63971SOL    HW299029   9.344   4.295   7.463 -3.9047 -0.8555  2.8869
63972SOL     OW99030   4.170   9.470   2.638 -0.1425  0.0765  0.2373
63972SOL    HW199031   4.125   9.480   2.722  0.4975  0.4571  0.5446
63972SOL    HW299032   4.240   9.535   2.641  1.0367 -1.1515  0.1741
63973SOL     OW99033  12.846   7.719   7.952 -0.1430  0.4148 -0.4203
63973SOL    HW199034  12.763   7.695   7.994 -0.1472 -1.4856 -1.3976
63973SOL    HW299035  12.896   7.764   8.020 -1.1218 -0.3546  0.8502
63974SOL     OW99036   8.326   9.532   4.976  0.0343  0.2762  0.1834
63974SOL    HW199037   8.364   9.536   4.888  1.1061  1.6208  0.6902
63974SOL    HW299038   8.248   9.477   4.965  0.7628 -0.5178 -1.3695
63975SOL     OW99039  11.024  12.372   6.316 -0.1170 -0.2318 -0.5462
63975SOL    HW199040  11.076  12.345   6.240  0.3867 -0.0471 -0.2749
63975SOL    HW299041  10.934  12.352   6.292 -0.0883  0.8430 -1.6437
63976SOL     OW99042   1.425   2.437   5.712 -0.1453  0.4645 -0.1059
63976SOL    HW199043   1.329   2.428   5.713 -0.0736 -0.4267  1.1361
63976SOL    HW299044   1.455   2.376   5.645 -0.5114  2.0052 -1.7635
63977SOL     OW99045   6.839   6.749   4.235 -0.6091 -0.5649 -0.1219
63977SOL    HW199046   6.880   6.809   4.172  0.9052  0.0466  1.3436
63977SOL    HW299047   6.800   6.680   4.182 -1.6402  1.2480 -1.8271
63978SOL     OW99048   5.039   4.145   8.502  0.1149  0.0241 -0.3017
63978SOL    HW199049   5.100   4.218   8.510 -0.6373  0.4602  2.8820
63978SOL    HW299050   4.954   4.187   8.487 -0.1853 -0.1969  0.6982
63979SOL     OW99051   0.552   7.958   9.131 -0.2991  0.2089 -0.8277
63979SOL    HW199052   0.591   7.890   9.186 -0.6990  0.5613 -0.0942
63979SOL    HW299053   0.609   8.035   9.144 -0.3173  0.2537 -1.0111
63980SOL     OW99054   0.450   4.808   9.263 -0.2634  0.4201 -0.0345
63980SOL    HW199055   0.391   4.735   9.246  1.1304 -1.1561  1.4754
63980SOL    HW299056   0.520   4.796   9.199  0.1516  0.1834  0.4553
63981SOL     OW99057   7.159   7.334  11.806 -0.1843 -0.1999  0.3310
63981SOL    HW199058   7.159   7.423  11.771 -2.1393 -0.1450  0.3741
63981SOL    HW299059   7.082   7.293  11.768  0.6388 -1.8793  0.3824
63982SOL     OW99060   0.458   9.683   7.052  0.1343  0.3100  0.0301
63982SOL    HW199061   0.373   9.712   7.018  0.5704  0.0230 -1.3589
63982SOL    HW299062   0.452   9.588   7.052  1.2506  0.1821 -2.3219
63983SOL     OW99063   1.782   6.200   0.539  0.1114 -0.2373 -0.2182
63983SOL    HW199064   1.749   6.110   0.540  1.3993 -0.7204  0.4547
63983SOL    HW299065   1.723   6.247   0.598 -1.4151 -0.2932 -1.6296
63984SOL     OW99066  12.769   6.567   8.555  0.5950  0.6836 -0.0371
63984SOL    HW199067  12.729   6.637   8.608  1.6582  1.6834 -0.5248
63984SOL    HW299068  12.862   6.586   8.556  0.7347  0.1666 -1.4962
63985SOL     OW99069   6.269   3.229   2.481  0.4637  0.1320 -0.1140
63985SOL    HW199070   6.181   3.190   2.471  1.7700 -2.5015 -2.9195
63985SOL    HW299071   6.264   3.313   2.436 -0.2960 -0.6131 -1.4648
63986SOL     OW99072   3.938   7.967   0.293  0.2075 -0.3896  0.2232
63986SOL    HW199073   3.927   7.885   0.341 -3.0203  0.7815  1.7891
63986SOL    HW299074   4.000   8.018   0.345  1.6736 -1.5001 -0.3772
63987SOL     OW99075   3.764   8.185   1.242 -0.1898 -0.2025  0.3908
63987SOL    HW199076   3.700   8.252   1.218  0.4961  0.1318 -0.5826
63987SOL    HW299077   3.812   8.222   1.317 -1.4006 -0.6460  1.4177
63988SOL     OW99078   0.911   9.204   7.260 -0.1694 -0.1367 -0.2839
63988SOL    HW199079   0.874   9.220   7.173 -1.0510  0.0195  0.1075
63988SOL    HW299080   0.960   9.283   7.280 -0.2362 -0.0382 -0.5028
63989SOL     OW99081   8.065   7.375   1.615  0.3332 -1.0681  0.3804
63989SOL    HW199082   8.010   7.324   1.675  0.6676  0.2874  1.9004
63989SOL    HW299083   8.103   7.444   1.669 -1.1997  1.7184 -1.8210
63990SOL     OW99084   9.435   8.876   2.253  0.7462 -0.8001 -0.2733
63990SOL    HW199085   9.464   8.922   2.331  0.8919  0.5095 -1.0757
63990SOL    HW299086   9.377   8.807   2.286  0.7075 -0.1918  0.9762
63991SOL     OW99087   8.478   1.833   9.923 -0.2567  0.4604  0.3520
63991SOL    HW199088   8.407   1.897   9.929  1.3138  2.3704  0.0196
63991SOL    HW299089   8.554   1.885   9.895  1.3066 -1.4428  0.8113
63992SOL     OW99090   3.150   3.477   3.001  0.5799 -0.0823  0.1872
63992SOL    HW199091   3.104   3.530   2.936 -1.3889 -2.2496 -0.3325
63992SOL    HW299092   3.212   3.425   2.950  0.3709 -0.4283  0.2810
63993SOL     OW99093   5.500   2.786   5.862  0.4276  0.0700  0.2236
63993SOL    HW199094   5.590   2.806   5.836  0.2633  1.3784  0.5601
63993SOL    HW299095   5.493   2.821   5.951 -0.1279 -0.9319  0.5908
63994SOL     OW99096  11.001  12.827   5.451  0.0953  0.5157  0.3257
63994SOL    HW199097  11.069  12.894   5.452 -0.2201  0.8604 -0.3956
63994SOL    HW299098  11.047  12.746   5.472  0.9163  0.5886 -1.0666
63995SOL     OW99099   3.773  12.611  11.974  0.0368 -0.0726  0.2269
63995SOL    HW199100   3.809  12.597  12.062 -1.9076  2.6838  1.6225
63995SOL    HW299101   3.710  12.540  11.962  1.4891 -1.4178  0.3113
63996SOL     OW99102   1.861   5.673   2.229  0.2809 -0.5245 -0.7918
63996SOL    HW199103   1.914   5.748   2.204 -1.1819  0.2386 -1.7162
63996SOL    HW299104   1.813   5.649   2.150  0.0275 -1.8627 -0.2647
63997SOL     OW99105  11.784   2.225  10.182  0.3983 -0.3536 -0.1911
63997SOL    HW199106  11.787   2.290  10.252  2.2357  2.8311 -2.9117
63997SOL    HW299107  11.873   2.190  10.178  1.2302  1.7146 -2.6116
63998SOL     OW99108   8.136   5.315   3.852  0.2768 -0.2988 -0.8462
63998SOL    HW199109   8.160   5.250   3.786  0.9632 -1.0933  0.1674
63998SOL    HW299110   8.195   5.389   3.835  0.4160 -0.4759 -1.1460
63999SOL     OW99111  12.582   8.548   8.601  0.1379 -0.4204 -0.4538
63999SOL    HW199112  12.603   8.457   8.623 -0.0996 -0.9930 -2.3486
63999SOL    HW299113  12.656   8.599   8.633 -0.0110 -1.1857  1.1930
64000SOL     OW99114   8.805   3.311   9.066  0.3699  0.0079 -0.3249
64000SOL    HW199115   8.719   3.291   9.029 -0.6771 -0.3586  2.1004
64000SOL    HW299116   8.796   3.399   9.103  0.9960 -0.0714  0.0448
64001SOL     OW99117   9.035  10.102   0.062 -0.1808 -0.2217  0.1641
64001SOL    HW199118   9.077  10.028   0.019  1.6023  1.1184 -0.5049
64001SOL    HW299119   9.072  10.104   0.150  0.9424  0.7279 -0.3019
64002SOL     OW99120  10.549   3.539   6.482  0.5025 -0.8495  0.3336
64002SOL    HW199121  10.520   3.485   6.408 -0.4405  0.5965 -0.4064
64002SOL    HW299122  10.643   3.548   6.470  0.3161 -0.3442 -0.9282
64003SOL     OW99123  11.290  12.700   6.619 -0.0770  0.5902  0.6186
64003SOL    HW199124  11.304  12.660   6.705 -0.5964  0.2572  0.5492
64003SOL    HW299125  11.253  12.630   6.565 -1.0773  1.1787  0.5189
64004SOL     OW99126   2.676  11.775   1.088 -0.4196  0.3497 -0.1823
64004SOL    HW199127   2.670  11.845   1.023 -0.5227  0.7309  0.2329
64004SOL    HW299128   2.770  11.759   1.097 -0.4243 -0.1083 -0.8439
64005SOL     OW99129   3.207   7.167   7.577  0.1062 -0.3350  0.3799
64005SOL    HW199130   3.156   7.130   7.504  1.5688  0.3780 -1.0646
64005SOL    HW299131   3.226   7.092   7.633 -0.2743 -1.0801 -0.4564
64006SOL     OW99132  12.491  10.955  11.831  0.3819  0.7476 -0.4107
64006SOL    HW199133  12.437  11.006  11.891  1.3082  1.3830 -0.0803
64006SOL    HW299134  12.573  10.942  11.878 -0.2407 -2.2019  0.0563
64007SOL     OW99135   1.306   5.392   9.468  0.1088  0.4601 -0.2983
64007SOL    HW199136   1.341   5.359   9.551 -0.4517  0.8962  0.1315
64007SOL    HW299137   1.272   5.315   9.423 -0.6398  0.3518  0.4167
64008SOL     OW99138   2.856   2.704  11.162  0.8431  0.2998  0.3938
64008SOL    HW199139   2.777   2.714  11.215  0.5394 -0.7630  0.1644
64008SOL    HW299140   2.928   2.723  11.223  0.4181  3.3847  0.0953
64009SOL     OW99141   2.417  12.504   6.744 -0.3237  0.2533  0.3568
64009SOL    HW199142   2.464  12.444   6.803 -0.9420 -0.2984  0.3036
64009SOL    HW299143   2.343  12.452   6.713  0.4155  0.2573 -1.5290
64010SOL     OW99144   0.070   7.624   5.032  0.1713  0.2676  0.1269
64010SOL    HW199145   0.060   7.618   5.127  2.4962 -1.8949  0.3298
64010SOL    HW299146  -0.008   7.580   4.997 -0.4688  0.6660  1.0062
64011SOL     OW99147  11.081   7.300   8.299  0.1508  0.4972 -0.1256
64011SOL    HW199148  11.138   7.318   8.224 -1.7728  1.2343 -1.4785
64011SOL    HW299149  11.099   7.372   8.360 -0.6160  1.7712 -1.3455
64012SOL     OW99150  11.160   9.262  10.311 -0.0088  0.4426  0.3803
64012SOL    HW199151  11.076   9.274  10.354 -0.4856 -0.9963 -0.0971
64012SOL    HW299152  11.223   9.258  10.383 -0.8258 -2.2278  1.0762
64013SOL     OW99153   9.783   0.015   0.495  0.3005  0.2919 -0.6211
64013SOL    HW199154   9.791   0.103   0.458  0.2068  0.2537 -0.7302
64013SOL    HW299155   9.703  -0.020   0.458  0.8369 -0.2103 -1.3333
64014SOL     OW99156   3.190   5.582   0.031 -0.0492  0.0657  0.0560
64014SOL    HW199157   3.214   5.508  -0.024  0.4032  0.5572 -0.4157
64014SOL    HW299158   3.215   5.555   0.120  0.4227 -0.2152 -0.1601
64015SOL     OW99159   3.079   4.582   5.034  0.6346 -0.3856  0.2052
64015SOL    HW199160   3.008   4.647   5.036  1.2029  0.2403  0.5787
64015SOL    HW299161   3.119   4.594   4.948  2.0322  1.2283  1.0034
64016SOL     OW99162   4.800   7.030  11.213 -0.4284  0.5302 -0.2744
64016SOL    HW199163   4.830   7.109  11.257  0.9400 -0.6151  0.9852
64016SOL    HW299164   4.865   6.964  11.236 -1.9060 -1.1512 -0.6799
64017SOL     OW99165   4.976   2.245   7.461 -0.2044  0.0185  0.0270
64017SOL    HW199166   4.914   2.249   7.534 -0.1337  0.0596  0.0837
64017SOL    HW299167   5.014   2.157   7.466  2.0112  0.9917  1.8316
64018SOL     OW99168   4.207   2.043   2.393  0.1101 -0.2854  0.0248
64018SOL    HW199169   4.301   2.053   2.377 -0.3961  1.4037 -2.2973
64018SOL    HW299170   4.165   2.072   2.312 -2.4221 -1.6286  0.7611
64019SOL     OW99171   7.200   8.505   2.951  0.7094  0.2549  0.3285
64019SOL    HW199172   7.258   8.546   3.015  0.3951  1.0114  0.1500
64019SOL    HW299173   7.112   8.521   2.985  0.6008 -1.6590  1.0591
64020SOL     OW99174   5.411   0.203   6.743 -0.3556  0.4959  0.5358
64020SOL    HW199175   5.491   0.252   6.724  0.4421 -0.1262  2.1451
64020SOL    HW299176   5.345   0.271   6.761  0.1697  1.0006  0.5849
64021SOL     OW99177  10.366   9.812   3.903  0.4127  0.0611 -0.3842
64021SOL    HW199178  10.379   9.781   3.992 -1.0403 -1.7112 -0.7157
64021SOL    HW299179  10.425   9.887   3.894  0.9592 -0.0328  1.8756
64022SOL     OW99180   0.577   6.026  10.801 -0.4288  0.5684  0.4258
64022SOL    HW199181   0.493   6.061  10.829 -0.8000  1.1205 -1.2688
64022SOL    HW299182   0.571   5.932  10.820 -1.7554  0.4579 -0.3863
64023SOL     OW99183   9.691   3.694  12.766  0.1499  0.2510  0.1642
64023SOL    HW199184   9.683   3.754  12.692  1.1410  1.8201  1.2786
64023SOL    HW299185   9.605   3.652  12.772 -0.2130  0.6848 -1.3419
64024SOL     OW99186   6.795   3.048  11.679 -0.1852  0.4891 -0.4889
64024SOL    HW199187   6.844   2.975  11.717  0.0711  0.3292 -1.1151
64024SOL    HW299188   6.714   3.051  11.730  0.9699  1.5529  1.3775
64025SOL     OW99189   1.054   9.311   9.421  0.0405  0.0334 -0.5191
64025SOL    HW199190   1.090   9.372   9.486  1.3943  0.3674 -1.5327
64025SOL    HW299191   0.975   9.276   9.462  0.7905  0.3073  1.2629
64026SOL     OW99192   2.570   6.682   7.531 -0.5909 -0.0032  0.4500
64026SOL    HW199193   2.490   6.726   7.502  0.3493  1.1579 -0.4936
64026SOL    HW299194   2.574   6.602   7.478  0.0208  1.0593 -1.1598
64027SOL     OW99195  10.201   5.149   0.927  0.0391  0.1823  0.1901
64027SOL    HW199196  10.183   5.086   0.996  0.1602 -0.4481 -0.3462
64027SOL    HW299197  10.263   5.105   0.869  0.4986  0.9722  0.0644
64028SOL     OW99198   3.385   9.496   8.700  0.0890  0.1719  0.0871
64028SOL    HW199199   3.293   9.494   8.726 -0.5193 -1.5862 -1.9063
64028SOL    HW299200   3.432   9.522   8.779 -1.9606 -0.5535  1.6403
64029SOL     OW99201  11.292   3.724   9.832 -0.3725 -0.5075 -0.1694
64029SOL    HW199202  11.208   3.680   9.842  0.3709 -1.9569  0.0644
64029SOL    HW299203  11.311   3.719   9.738 -0.8547  0.4333 -0.3217
64030SOL     OW99204   8.951   9.386   8.535 -0.2073 -0.2576 -0.0080
64030SOL    HW199205   8.965   9.477   8.561  0.3118 -0.4993  0.5842
64030SOL    HW299206   8.902   9.392   8.453 -0.4907  0.5471  0.2102
64031SOL     OW99207  10.070   5.659  10.949 -0.4560 -0.1040  0.5976
64031SOL    HW199208  10.125   5.587  10.918 -0.9352 -0.3944  0.3960
64031SOL    HW299209  10.096   5.734  10.896  0.3771 -0.0109  1.1354
64032SOL     OW99210   2.574   1.769   2.281  0.2578 -0.0147  0.2428
64032SOL    HW199211   2.501   1.816   2.241  0.6003 -0.5400 -1.0463
64032SOL    HW299212   2.536   1.722   2.354 -0.4867  0.5534  0.2326
64033SOL     OW99213   4.741   0.900   1.473 -0.2736 -0.4638  0.0270
64033SOL    HW199214   4.648   0.912   1.450  0.1693  1.2394 -1.0230
64033SOL    HW299215   4.786   0.894   1.389  1.0280  2.8743  0.3343
64034SOL     OW99216   0.499  11.702  10.324  0.3075  0.1331  0.3591
64034SOL    HW199217   0.563  11.741  10.383  1.6387  0.2828 -1.1162
64034SOL    HW299218   0.497  11.610  10.349  0.0676  0.3905  1.3125
64035SOL     OW99219   6.079   9.895   5.156  0.2245 -0.5894 -0.0804
64035SOL    HW199220   6.139   9.863   5.224 -0.4610  1.3978  1.5513
64035SOL    HW299221   5.993   9.867   5.187 -0.1775  1.0560  0.3528
64036SOL     OW99222   5.619   9.669   8.850 -0.2005 -0.4313 -0.3577
64036SOL    HW199223   5.664   9.588   8.826 -0.9101 -0.4232 -1.8574
64036SOL    HW299224   5.640   9.729   8.779  0.3638  0.7362  0.7714
64037SOL     OW99225   3.586  10.037   0.646 -0.1037  0.3196  0.7655
64037SOL    HW199226   3.567  10.075   0.560  0.8095 -0.8008  0.0466
64037SOL    HW299227   3.654  10.095   0.683  0.0956  0.3383  0.3790
64038SOL     OW99228   1.895   5.810  12.887 -0.6809 -0.1221  0.5683
64038SOL    HW199229   1.841   5.883  12.856  0.1132  0.7237  1.1137
64038SOL    HW299230   1.937   5.776  12.808 -1.5069 -0.3741  0.2304
64039SOL     OW99231   9.182   8.586   1.895 -0.5561  0.1890  0.5579
64039SOL    HW199232   9.098   8.567   1.851  0.3271  0.5005 -1.3721
64039SOL    HW299233   9.209   8.671   1.860  0.3633  0.3050  1.5014
64040SOL     OW99234  10.254  10.361   0.217 -0.3124 -0.3035 -0.4030
64040SOL    HW199235  10.257  10.445   0.263 -0.7162 -0.2378 -0.4910
64040SOL    HW299236  10.188  10.310   0.263  0.6475 -0.9633  0.2822
64041SOL     OW99237   9.005   6.613   6.763  0.1445  0.6095  0.5176
64041SOL    HW199238   9.013   6.630   6.857 -0.5010  0.4104  0.6095
64041SOL    HW299239   9.041   6.691   6.721  0.4037  0.7136  0.9297
64042SOL     OW99240   2.185   1.474   0.090  0.2356  0.2894 -0.1274
64042SOL    HW199241   2.257   1.418   0.061  0.3410 -0.0456  0.7404
64042SOL    HW299242   2.177   1.456   0.184  0.2359  1.7115  0.1581
64043SOL     OW99243   1.421  11.261   4.289  0.4719 -0.3680  0.1368
64043SOL    HW199244   1.498  11.315   4.309  1.8136 -1.9286 -0.6210
64043SOL    HW299245   1.413  11.202   4.363 -0.8108  0.6030  0.8138
64044SOL     OW99246   5.318   9.763   0.948  0.4964  0.2916 -0.2185
64044SOL    HW199247   5.411   9.772   0.970  0.6498 -1.0571 -0.2416
64044SOL    HW299248   5.306   9.669   0.934 -0.3139  0.6815 -2.6370
64045SOL     OW99249  10.037   3.254   8.694  0.1929  0.4467  0.1258
64045SOL    HW199250  10.028   3.254   8.789  1.0280 -1.2844  0.2412
64045SOL    HW299251  10.129   3.275   8.678 -0.1031  1.4503 -0.3509
64046SOL     OW99252   5.514   2.537  11.514 -0.0835  0.0574 -0.0387
64046SOL    HW199253   5.541   2.529  11.606 -2.3502 -1.8251  0.5554
64046SOL    HW299254   5.562   2.467  11.470 -1.6691 -1.4554  0.4919
64047SOL     OW99255   1.397   5.334   1.520  0.4061  0.2318  0.5119
64047SOL    HW199256   1.486   5.309   1.496  0.8237  1.4076  0.8144
64047SOL    HW299257   1.397   5.338   1.616  0.0217  0.2096  0.5170
64048SOL     OW99258   0.453   9.544   7.540  0.2749  0.3220  0.2324
64048SOL    HW199259   0.451   9.612   7.608  0.0252 -0.0200  0.5729
64048SOL    HW299260   0.464   9.592   7.458  0.1763  0.7708  0.4794
64049SOL     OW99261   1.270   8.622  12.691 -0.1631  0.5013 -0.6326
64049SOL    HW199262   1.340   8.687  12.696  0.0197  0.3481 -1.2006
64049SOL    HW299263   1.313   8.542  12.663 -0.2152 -0.1422  1.0346
64050SOL     OW99264   0.400   8.353   0.929  0.0547  0.3778 -0.3301
64050SOL    HW199265   0.350   8.389   1.002 -1.2193 -1.8625  0.0131
64050SOL    HW299266   0.483   8.400   0.931 -1.1045  2.5471  0.5954
64051SOL     OW99267   7.049   2.689   3.430  0.7396  0.3503  1.3360
64051SOL    HW199268   7.114   2.672   3.362 -1.6604  0.6180 -1.2364
64051SOL    HW299269   7.093   2.746   3.492  2.2846  2.5352 -1.5204
64052SOL     OW99270   2.357   9.883   7.451 -0.3054  0.0511 -0.1099
64052SOL    HW199271   2.347   9.942   7.526  0.1081 -1.0781  0.8669
64052SOL    HW299272   2.432   9.829   7.473 -1.4108 -1.6736 -0.3981
64053SOL     OW99273   6.919   1.789   2.940 -0.2219  0.6483 -0.1643
64053SOL    HW199274   6.966   1.713   2.974 -2.6653 -0.3418  1.2292
64053SOL    HW299275   6.959   1.864   2.984  1.9965  0.2500 -1.3063
64054SOL     OW99276   0.905  12.448   4.534 -0.0446  0.3410 -0.5194
64054SOL    HW199277   0.904  12.378   4.599 -0.9507  1.1869  0.4006
64054SOL    HW299278   0.994  12.483   4.539 -0.4770  1.2531  1.2247
64055SOL     OW99279   7.655   6.855   8.124  0.4826 -0.0118 -0.3484
64055SOL    HW199280   7.747   6.857   8.096  0.6347 -0.0975  0.1282
64055SOL    HW299281   7.658   6.881   8.217  0.5388 -3.9863  0.9618
64056SOL     OW99282   2.228  11.005   0.458 -0.7152 -0.8070 -0.5818
64056SOL    HW199283   2.174  11.018   0.536  0.8059  1.7656  0.1298
64056SOL    HW299284   2.248  10.911   0.459 -0.5995 -0.8324  2.2162
64057SOL     OW99285   2.791   2.594   3.828  0.1376 -0.0898  0.2915
64057SOL    HW199286   2.746   2.668   3.787  1.3833 -1.2515 -3.5812
64057SOL    HW299287   2.783   2.610   3.922 -2.8515  2.9533 -0.3022
64058SOL     OW99288   3.089   6.450   1.273  0.0066 -0.0146  0.0190
64058SOL    HW199289   3.150   6.422   1.205  1.2114 -2.4503  1.9306
64058SOL    HW299290   3.005   6.413   1.246  0.0787  0.4988 -0.9643
64059SOL     OW99291   2.874   2.435   8.651 -0.1391  0.3470  0.1717
64059SOL    HW199292   2.872   2.530   8.639  0.1745  0.1573 -1.5459
64059SOL    HW299293   2.935   2.422   8.724  0.3613  1.4334 -0.0285
64060SOL     OW99294   4.380   9.761   6.477 -0.4402  0.1622  0.2906
64060SOL    HW199295   4.383   9.687   6.418 -1.2450 -0.0535  0.5139
64060SOL    HW299296   4.399   9.837   6.422 -1.2887 -0.0263 -0.2598
64061SOL     OW99297   1.623   4.184  10.063 -0.0610 -0.5395 -0.8084
64061SOL    HW199298   1.651   4.275  10.053  0.0030 -0.5219 -0.4741
64061SOL    HW299299   1.544   4.189  10.118 -0.4792 -0.6244 -1.3895
64062SOL     OW99300   0.310   8.901  11.395  0.5717 -0.0268  0.1107
64062SOL    HW199301   0.298   8.858  11.480  0.6431 -1.7060 -0.6862
64062SOL    HW299302   0.395   8.944  11.401  0.4712  0.0613  0.9676
64063SOL     OW99303   6.069   5.608   5.690  0.6745  0.2513  0.2300
64063SOL    HW199304   6.021   5.577   5.767  0.8601  1.1368  0.7154
64063SOL    HW299305   6.153   5.563   5.695 -0.1610 -1.5210 -0.7749
64064SOL     OW99306  12.551   2.749   3.316  0.1355  0.1409  0.2529
64064SOL    HW199307  12.459   2.775   3.330 -0.2282 -0.9723  0.0191
64064SOL    HW299308  12.575   2.704   3.397  0.0536 -0.7166 -0.1948
64065SOL     OW99309   4.590   4.843   0.378  0.5553  0.6405  0.2483
64065SOL    HW199310   4.565   4.827   0.469  0.7103 -0.1776  0.1535
64065SOL    HW299311   4.675   4.800   0.368  0.7981  1.2009 -0.1320
64066SOL     OW99312   6.836   3.300   3.231  0.4437  0.1243 -0.4009
64066SOL    HW199313   6.841   3.389   3.265 -2.2768 -0.0217  0.6372
64066SOL    HW299314   6.769   3.304   3.163  1.5089 -0.8203 -1.5379
64067SOL     OW99315   2.626   6.399  11.578  0.7636 -0.2065  0.4353
64067SOL    HW199316   2.718   6.373  11.576  0.1725 -2.4483 -0.8044
64067SOL    HW299317   2.592   6.374  11.491 -0.4031  3.1192 -0.2095
64068SOL     OW99318   5.571   0.511   6.468  0.2177 -0.6446 -0.0916
64068SOL    HW199319   5.531   0.597   6.458  0.4627 -0.6024 -0.7783
64068SOL    HW299320   5.614   0.494   6.384  0.4957 -1.2718  0.1642
64069SOL     OW99321  11.615   7.302   4.929  0.2222 -0.3704 -0.1485
64069SOL    HW199322  11.587   7.254   4.851  3.1907  0.5308 -1.9518
64069SOL    HW299323  11.603   7.394   4.906  0.3831 -0.1037  0.8035
64070SOL     OW99324  12.809   3.100  10.804 -0.4656  0.1061  0.1388
64070SOL    HW199325  12.856   3.172  10.846  0.7156 -1.8627  2.4664
64070SOL    HW299326  12.877   3.036  10.784 -1.4867 -0.4447 -1.8473
64071SOL     OW99327   6.739   3.102   9.544 -0.4051  0.2931 -0.4477
64071SOL    HW199328   6.722   3.195   9.530 -0.4164  0.6354  1.5477
64071SOL    HW299329   6.712   3.086   9.634 -1.4130 -1.9088 -1.0833
64072SOL     OW99330   4.034   2.033   3.196  0.4762 -0.1215 -0.1860
64072SOL    HW199331   4.020   1.944   3.166 -0.5572 -0.2140  0.5409
64072SOL    HW299332   3.946   2.071   3.204  0.9145  1.2351 -1.2700
64073SOL     OW99333   8.758   3.550   8.098  0.2028 -0.1231 -0.5563
64073SOL    HW199334   8.677   3.561   8.147  1.1111  1.1829  0.7007
64073SOL    HW299335   8.731   3.555   8.006 -1.0797  0.7672 -0.1584
64074SOL     OW99336  12.094   0.853   9.918 -0.0643 -0.1216 -0.0342
64074SOL    HW199337  12.063   0.806   9.995  2.4648  1.0984  1.8773
64074SOL    HW299338  12.130   0.935   9.952 -0.5320  1.3285 -2.7539
64075SOL     OW99339   0.437   7.009  11.420 -0.1214 -0.0532 -0.2298
64075SOL    HW199340   0.439   7.005  11.516  0.3296  0.4120 -0.2127
64075SOL    HW299341   0.389   6.931  11.393  1.7944 -1.4816  0.2703
64076SOL     OW99342   3.158  11.709   6.947 -0.5124 -0.1174 -0.3201
64076SOL    HW199343   3.122  11.672   7.027 -0.9807  0.7215 -0.1341
64076SOL    HW299344   3.145  11.641   6.881  0.7025 -1.1922  0.4902
64077SOL     OW99345   3.871   0.876   9.870  0.0874 -0.1715  0.4898
64077SOL    HW199346   3.809   0.855   9.939  0.5976 -1.6330  0.5416
64077SOL    HW299347   3.949   0.909   9.916  0.3013 -0.8188  0.5961
64078SOL     OW99348   0.016   5.395   0.287  0.0236 -0.3495  0.1202
64078SOL    HW199349  -0.040   5.321   0.260 -0.3905 -0.4997  1.3368
64078SOL    HW299350   0.066   5.361   0.361 -1.4033  1.0507  1.8188
64079SOL     OW99351  10.398   5.165  10.992  0.9257  0.1983  0.1300
64079SOL    HW199352  10.380   5.217  11.071  0.8990  0.8975 -0.3277
64079SOL    HW299353  10.475   5.113  11.015 -0.2928 -1.1649  1.3350
64080SOL     OW99354   5.035   3.114   0.178  0.2507  1.1977  0.7763
64080SOL    HW199355   4.976   3.079   0.245 -0.6221  0.1738 -0.4705
64080SOL    HW299356   5.082   3.037   0.145  0.8081  1.7095  0.3470
64081SOL     OW99357   7.992   7.811  10.061 -0.2366 -0.3822 -0.4720
64081SOL    HW199358   7.899   7.789  10.060 -0.6882  1.3972 -1.7339
64081SOL    HW299359   8.027   7.762  10.136 -2.8645  1.5902  2.3201
64082SOL     OW99360   3.408  12.028   5.185  0.0218  0.3087  0.2868
64082SOL    HW199361   3.475  11.966   5.158  0.0798  0.3525  0.3296
64082SOL    HW299362   3.325  11.988   5.158  0.1938  1.5834 -2.4191
64083SOL     OW99363   2.634   2.162   4.873 -0.2065 -0.2490  0.3022
64083SOL    HW199364   2.563   2.227   4.871 -0.3904 -0.4607 -0.2001
64083SOL    HW299365   2.683   2.183   4.952 -0.2560  0.5192  0.1412
64084SOL     OW99366   2.637   9.254   3.382  0.4189 -0.6472 -0.5021
64084SOL    HW199367   2.562   9.206   3.349  0.5949 -0.5589 -1.0344
64084SOL    HW299368   2.712   9.222   3.331  0.5392  0.1806 -0.8745
64085SOL     OW99369   2.369   1.391   0.508 -0.0527 -0.5690  0.4070
64085SOL    HW199370   2.380   1.456   0.577 -0.9384  0.8294 -0.7045
64085SOL    HW299371   2.422   1.316   0.536  3.5367  1.7152  0.3301
64086SOL     OW99372  10.268   4.903   9.076  0.5034 -0.3762  0.1343
64086SOL    HW199373  10.215   4.887   8.998  0.4203  2.4210 -0.4783
64086SOL    HW299374  10.204   4.912   9.147  0.3916 -0.3577  0.0323
64087SOL     OW99375   4.565   1.343  11.068  0.6758 -0.0696  0.0509
64087SOL    HW199376   4.610   1.428  11.062  1.9565 -0.8094 -2.3758
64087SOL    HW299377   4.484   1.362  11.116  1.0541  2.4645 -0.1565
64088SOL     OW99378   2.505   1.584   1.833  0.6932 -0.0025  0.8671
64088SOL    HW199379   2.547   1.581   1.919  0.3233 -0.0716  1.0474
64088SOL    HW299380   2.438   1.652   1.841  0.5629 -0.1061  0.6796
64089SOL     OW99381   6.472   8.206   9.389  0.1168  0.4327 -0.2544
64089SOL    HW199382   6.546   8.257   9.354  0.3700 -0.3462 -0.8850
64089SOL    HW299383   6.400   8.225   9.329 -0.5443  2.0672  0.9851
64090SOL     OW99384   0.801  10.817   0.142 -0.7982 -0.2315  0.1162
64090SOL    HW199385   0.773  10.867   0.066  0.6949  0.0630 -0.2785
64090SOL    HW299386   0.821  10.884   0.208  0.1816 -0.3365 -0.0555
64091SOL     OW99387   9.055   2.784   1.478  0.3277 -0.1064 -0.2653
64091SOL    HW199388   9.042   2.795   1.384  0.5747  4.2036 -0.0013
64091SOL    HW299389   9.120   2.714   1.485  0.8505 -0.0696 -3.3728
64092SOL     OW99390   0.377   1.320  11.676 -0.1501  0.7919  0.3128
64092SOL    HW199391   0.362   1.265  11.600 -1.1836  2.2724 -0.6225
64092SOL    HW299392   0.327   1.278  11.747  1.2070 -0.8498  0.3456
64093SOL     OW99393   5.459   4.157   9.623  0.0778  0.1481 -0.2931
64093SOL    HW199394   5.463   4.237   9.570 -0.2145 -0.0822 -0.6718
64093SOL    HW299395   5.540   4.158   9.674 -0.7608  1.6293  1.0896
64094SOL     OW99396   6.335  10.478   1.687  0.0075  0.1863 -0.8285
64094SOL    HW199397   6.286  10.497   1.768  0.2801 -0.9039 -0.3881
64094SOL    HW299398   6.283  10.519   1.618 -1.0513 -0.1516 -0.2705
64095SOL     OW99399   9.563  11.925  12.188 -0.2025  0.5039 -0.2214
64095SOL    HW199400   9.545  11.928  12.281 -1.1523  0.8485 -0.4089
64095SOL    HW299401   9.639  11.867  12.180 -1.0628 -0.7762  0.6189
64096SOL     OW99402   3.034  11.464  12.598  0.3734  0.5824  0.5671
64096SOL    HW199403   3.046  11.558  12.615 -0.2030  0.3721  2.3037
64096SOL    HW299404   2.953  11.442  12.645 -0.5284 -0.4219 -1.3382
64097SOL     OW99405   2.658   3.656   9.373 -0.5822 -0.0945  0.1415
64097SOL    HW199406   2.647   3.686   9.283  0.8592 -3.4969 -1.3484
64097SOL    HW299407   2.573   3.618   9.397 -0.4485 -0.8685 -0.5575
64098SOL     OW99408   0.536  12.877  12.236  0.4350 -0.1159 -0.3681
64098SOL    HW199409   0.495  12.857  12.152 -1.3853 -0.0441  0.4545
64098SOL    HW299410   0.506  12.807  12.295  0.6673  0.5196  0.5266
64099SOL     OW99411   5.338   8.050  12.545 -0.8479 -0.5242  0.0858
64099SOL    HW199412   5.349   7.987  12.473 -3.0643 -1.3281  0.3779
64099SOL    HW299413   5.414   8.108  12.537 -1.1100 -0.3939 -3.1067
64100SOL     OW99414   3.800  10.476   2.700  0.0843  0.1104 -0.1779
64100SOL    HW199415   3.764  10.561   2.726  1.7190  0.7517  0.0808
64100SOL    HW299416   3.850  10.447   2.775 -0.5910 -1.1901 -0.2058
64101SOL     OW99417   4.056   6.248   3.472  0.4492 -0.4006 -0.3324
64101SOL    HW199418   4.121   6.297   3.523  0.3587  0.5438 -1.0948
64101SOL    HW299419   4.021   6.312   3.409 -2.2485 -0.4750  0.9446
64102SOL     OW99420   4.432   1.319   5.850 -0.6493  0.1932 -0.0798
64102SOL    HW199421   4.385   1.301   5.932 -0.5457  3.0396  0.6962
64102SOL    HW299422   4.509   1.262   5.853 -1.8300 -1.4429  0.6425
64103SOL     OW99423  11.611   9.048   3.510 -0.6144  0.0866  0.0973
64103SOL    HW199424  11.657   8.964   3.518  0.1165  0.3214 -1.3304
64103SOL    HW299425  11.661   9.108   3.567 -0.8563 -0.3176  0.7491
64104SOL     OW99426   7.412   0.655   2.497  0.4840  0.7156  0.1252
64104SOL    HW199427   7.401   0.713   2.572  0.1168 -0.1936  0.7940
64104SOL    HW299428   7.417   0.567   2.536  3.5383  0.4541 -0.6123
64105SOL     OW99429   8.726   2.707   9.605  0.0149 -0.2729 -0.6827
64105SOL    HW199430   8.788   2.690   9.676 -1.8559  0.3439  1.2079
64105SOL    HW299431   8.740   2.799   9.583  0.4292 -0.3965 -0.9330
64106SOL     OW99432   9.960  11.122  12.688  0.1764 -0.4510  0.1380
64106SOL    HW199433  10.000  11.208  12.678  1.1526 -1.1284 -2.7982
64106SOL    HW299434  10.034  11.062  12.700 -0.5031 -0.9279  2.4240
64107SOL     OW99435   1.209   1.551   7.971  0.6181 -0.5985  0.1971
64107SOL    HW199436   1.298   1.570   8.000  0.4083 -1.3072  1.3954
64107SOL    HW299437   1.211   1.458   7.948  0.3080 -0.4943 -0.2653
64108SOL     OW99438   7.802   1.336   3.314 -0.2873  0.3068  0.2665
64108SOL    HW199439   7.716   1.295   3.324  1.0179 -2.9096 -0.4502
64108SOL    HW299440   7.835   1.344   3.404 -1.0284  0.9512  0.4969
64109SOL     OW99441   8.480   2.600   3.744  0.8393 -0.1583  0.1959
64109SOL    HW199442   8.441   2.663   3.804  1.3189  0.7227 -0.3945
64109SOL    HW299443   8.443   2.516   3.770 -1.3752  0.6004 -0.2767
64110SOL     OW99444   2.662  11.571   5.635 -0.3157  0.4307 -0.2877
64110SOL    HW199445   2.678  11.477   5.626 -1.3788  0.1047  0.8939
64110SOL    HW299446   2.586  11.588   5.581 -1.5170  0.1268  1.2270
64111SOL     OW99447   6.134   5.885   5.871 -0.1686 -0.3498  0.1375
64111SOL    HW199448   6.197   5.840   5.927  1.5759 -0.8611 -2.1162
64111SOL    HW299449   6.048   5.854   5.902  0.7558 -1.4089  1.7924
64112SOL     OW99450   7.567   3.109  10.609 -0.0148 -0.2179 -0.1137
64112SOL    HW199451   7.517   3.171  10.662 -0.5091 -1.4372  0.8868
64112SOL    HW299452   7.508   3.035  10.595  0.6003 -0.5368 -1.1986
64113SOL     OW99453   5.723   3.718   5.763  0.3022 -0.1034 -0.5492
64113SOL    HW199454   5.699   3.766   5.842  0.0890 -1.9898  0.6035
64113SOL    HW299455   5.663   3.643   5.762  1.4279 -1.0222 -1.5599
64114SOL     OW99456   3.808   5.193   3.046  0.3408  0.0185  0.2041
64114SOL    HW199457   3.795   5.138   3.123  1.4324 -1.4852 -0.6211
64114SOL    HW299458   3.857   5.137   2.985  1.5455  1.9226 -0.6706
64115SOL     OW99459   4.850   0.571   2.307 -0.0166 -0.5885 -0.0900
64115SOL    HW199460   4.872   0.553   2.215  1.2041  0.7900 -0.1060
64115SOL    HW299461   4.902   0.509   2.357 -1.0749 -1.6927 -0.3232
64116SOL     OW99462   3.723   8.198   9.564 -0.3109  0.1683 -0.9784
64116SOL    HW199463   3.756   8.116   9.528  1.7393  0.4377  0.1229
64116SOL    HW299464   3.801   8.254   9.571 -1.4311  1.7414 -0.4844
64117SOL     OW99465  12.496   2.272  10.561  0.2945 -0.5645 -0.5810
64117SOL    HW199466  12.483   2.188  10.604  1.1658 -0.8605 -0.8792
64117SOL    HW299467  12.408   2.300  10.536 -0.2036 -0.5537  1.0521
64118SOL     OW99468   5.513   2.079   8.635 -0.3106  0.0540  0.4163
64118SOL    HW199469   5.428   2.057   8.672 -0.6637  0.3914 -0.1839
64118SOL    HW299470   5.532   2.167   8.667 -0.0640 -0.1160  0.7527
64119SOL     OW99471  10.984   7.698   0.353  0.3787  0.2311  0.3946
64119SOL    HW199472  10.944   7.651   0.280 -0.7686  0.3694  0.9261
64119SOL    HW299473  11.058   7.745   0.313 -1.2924  1.7834 -1.0674
64120SOL     OW99474   8.855   4.389   7.797  0.0132 -0.0112 -0.1096
64120SOL    HW199475   8.817   4.350   7.718 -0.0122 -0.1936 -0.0060
64120SOL    HW299476   8.840   4.483   7.786 -0.7338 -0.1055  0.0785
64121SOL     OW99477   0.114   8.956   3.878 -0.0795  0.2611 -0.3689
64121SOL    HW199478   0.118   9.050   3.859 -2.4451  0.2861 -1.0023
64121SOL    HW299479   0.092   8.952   3.971 -0.7709  0.3489 -0.5274
64122SOL     OW99480  12.770   8.601   3.889  0.4640 -0.2178 -0.7954
64122SOL    HW199481  12.718   8.533   3.931 -0.3185  1.6341  1.4554
64122SOL    HW299482  12.859   8.586   3.921  0.2522 -0.0839 -0.1134
64123SOL     OW99483   0.643  10.522   4.798  0.3310 -0.7128 -0.1066
64123SOL    HW199484   0.658  10.534   4.892  1.3719 -0.2377 -0.3184
64123SOL    HW299485   0.579  10.450   4.793 -1.7596  0.9622  1.0190
64124SOL     OW99486  10.911   8.811   5.170 -0.1039  0.1559  0.1817
64124SOL    HW199487  10.860   8.748   5.220  1.7533 -1.0428  0.6743
64124SOL    HW299488  10.957   8.759   5.105 -1.0939  1.4786 -1.6692
64125SOL     OW99489  11.001   1.201   3.228 -0.2180 -0.0653  0.2589
64125SOL    HW199490  10.945   1.182   3.303  0.3256 -1.2432  0.3959
64125SOL    HW299491  11.034   1.115   3.201 -2.0929  0.0199 -2.7180
64126SOL     OW99492  11.692   7.169   8.772  0.1302 -0.8759 -0.1263
64126SOL    HW199493  11.760   7.206   8.715 -0.1555  0.3903  0.3338
64126SOL    HW299494  11.612   7.215   8.747 -0.0686 -0.5474  1.0420
64127SOL     OW99495  12.023   6.196   0.264 -0.2705  0.1580  0.5358
64127SOL    HW199496  12.060   6.263   0.206  0.5243 -1.0468 -0.3932
64127SOL    HW299497  11.939   6.232   0.291 -0.1035  1.2978 -0.3831
64128SOL     OW99498   6.948  10.957   9.878  0.3639 -0.1444  0.3567
64128SOL    HW199499   7.029  10.985   9.836 -0.1259  2.8480  1.1746
64128SOL    HW299500   6.969  10.954   9.972 -0.4074  0.4529  0.5569
64129SOL     OW99501   7.679   7.772   2.863 -0.3354 -0.1654 -0.4696
64129SOL    HW199502   7.720   7.848   2.821  0.6173 -0.2702  0.2366
64129SOL    HW299503   7.631   7.808   2.937  2.6614 -0.4417  1.8052
64130SOL     OW99504  10.696   3.413   3.528  0.0004  0.4830 -0.5261
64130SOL    HW199505  10.626   3.388   3.467  0.7564  0.7594 -1.5336
64130SOL    HW299506  10.749   3.334   3.538  0.1238  0.5575 -0.5787
64131SOL     OW99507   1.129  10.107   8.261 -0.1023  0.2342 -0.1930
64131SOL    HW199508   1.187  10.172   8.224 -0.7452  1.2847  0.5938
64131SOL    HW299509   1.044  10.124   8.220  0.0736 -1.2139 -1.2542
64132SOL     OW99510   6.980   8.354  11.284 -0.2688  0.4805  0.0795
64132SOL    HW199511   7.076   8.352  11.285 -0.2682 -0.6017 -0.4558
64132SOL    HW299512   6.957   8.425  11.343  0.8561  0.4007  0.6435
64133SOL     OW99513  12.363   1.421   3.243  0.1070 -0.3749  0.5547
64133SOL    HW199514  12.319   1.473   3.176 -0.4891 -0.4030  0.9139
64133SOL    HW299515  12.344   1.330   3.219 -0.1387 -0.3844  0.7762
64134SOL     OW99516   8.719   3.575   6.261 -0.1354 -0.3805  0.2659
64134SOL    HW199517   8.674   3.649   6.219 -0.7393  0.7465  2.7120
64134SOL    HW299518   8.800   3.614   6.296 -1.0774 -0.4647  2.7362
64135SOL     OW99519  12.610  10.551   1.064  0.5161 -0.0689  0.2265
64135SOL    HW199520  12.666  10.543   1.142 -0.7043  0.1040  1.1495
64135SOL    HW299521  12.538  10.607   1.093 -1.6186 -2.5025 -0.0731
64136SOL     OW99522   4.389   4.107   9.094  1.0125  0.5117 -0.9682
64136SOL    HW199523   4.325   4.078   9.158  2.3987 -2.0270 -0.6091
64136SOL    HW299524   4.338   4.158   9.030 -0.8205  0.9043  0.7208
64137SOL     OW99525  12.225  12.496   0.002 -0.1371  0.5508 -0.6417
64137SOL    HW199526  12.192  12.575   0.045 -2.5289 -1.3649  1.3207
64137SOL    HW299527  12.246  12.437   0.074 -0.4565 -1.3547 -2.0472
64138SOL     OW99528   2.153  12.095  10.148 -0.4230 -0.6174 -0.3265
64138SOL    HW199529   2.157  12.117  10.241 -0.3642  2.3095 -0.9374
64138SOL    HW299530   2.108  12.169  10.108 -2.3605 -2.7858 -2.3940
64139SOL     OW99531   2.561  10.933   9.731 -0.4531  0.2161  0.5924
64139SOL    HW199532   2.513  10.998   9.782  0.1352  1.1234  0.0317
64139SOL    HW299533   2.530  10.946   9.641  1.2256  1.2378  0.1104
64140SOL     OW99534   6.173  12.741  11.526  0.5517 -0.3192  0.0014
64140SOL    HW199535   6.163  12.646  11.531 -0.6510 -0.1690  1.0437
64140SOL    HW299536   6.245  12.761  11.585  1.9932 -0.7089 -1.5443
64141SOL     OW99537   4.582   8.157   5.145  0.1505 -0.4961  0.0929
64141SOL    HW199538   4.621   8.070   5.153 -0.5773 -0.8226  0.2222
64141SOL    HW299539   4.522   8.163   5.220 -0.3522 -0.1751 -0.3326
64142SOL     OW99540   8.258  12.035   1.208  0.0600 -0.0242  0.6371
64142SOL    HW199541   8.295  12.100   1.268  1.1261 -0.4317  0.4327
64142SOL    HW299542   8.333  11.983   1.180 -0.5325 -0.2640 -0.5378
64143SOL     OW99543  10.861   8.143   1.772 -0.5738 -0.0024 -0.2165
64143SOL    HW199544  10.872   8.152   1.867 -0.3065  0.6880 -0.3086
64143SOL    HW299545  10.937   8.093   1.743 -0.6658 -0.2307 -0.0674
64144SOL     OW99546   0.228  12.773   5.965 -0.4326  0.4401 -0.2026
64144SOL    HW199547   0.138  12.803   5.977 -0.8316  0.3276 -2.4916
64144SOL    HW299548   0.270  12.843   5.916 -0.3950 -1.0845 -2.4889
64145SOL     OW99549   1.265   1.946   8.217 -0.6549  0.1643 -0.2960
64145SOL    HW199550   1.223   1.882   8.274 -0.6532  1.9928  1.9178
64145SOL    HW299551   1.260   1.907   8.129  0.9363 -3.6203  1.0846
64146SOL     OW99552   7.511   3.222   0.819  0.0871  0.0799 -0.2813
64146SOL    HW199553   7.564   3.238   0.897 -0.4604  2.2589 -0.2816
64146SOL    HW299554   7.502   3.127   0.815  1.3643 -0.1654  1.4632
64147SOL     OW99555   6.979   6.588   7.791  0.2641  0.2698 -0.2138
64147SOL    HW199556   7.049   6.633   7.838 -0.3361 -0.2275  1.2114
64147SOL    HW299557   6.922   6.555   7.859  0.5605 -2.4851 -1.1877
64148SOL     OW99558   6.316   4.064  12.206 -0.1379  0.0395 -0.5061
64148SOL    HW199559   6.385   4.009  12.169  0.3369 -0.5290  1.1438
64148SOL    HW299560   6.360   4.146  12.228 -0.3157  0.1996 -0.7354
64149SOL     OW99561  10.775  10.413   5.732 -0.2840 -0.1209  0.6012
64149SOL    HW199562  10.829  10.363   5.794  2.3617  0.6222 -0.9611
64149SOL    HW299563  10.721  10.347   5.690  0.8581 -1.2396  0.8122
64150SOL     OW99564   7.249   1.251  12.910 -0.0856 -0.1495  0.3399
64150SOL    HW199565   7.190   1.207  12.970  0.5458 -1.8061 -0.2075
64150SOL    HW299566   7.336   1.238  12.948  0.1724  0.0604 -0.1666
64151SOL     OW99567  10.140   1.043   0.403  0.1035 -0.4469 -0.1846
64151SOL    HW199568  10.210   1.096   0.365  0.5657 -0.5334  0.5264
64151SOL    HW299569  10.173   0.954   0.398  0.5307 -0.3881  1.1294
64152SOL     OW99570   6.520   8.020  10.368  0.3221 -0.2916  0.1607
64152SOL    HW199571   6.506   8.077  10.444 -0.1459  0.3525 -0.4015
64152SOL    HW299572   6.594   8.060  10.322 -0.3243  0.1482 -0.5034
64153SOL     OW99573   1.287   1.224   2.947 -0.0685 -0.3763  0.4524
64153SOL    HW199574   1.359   1.272   2.905 -1.7657 -0.0735 -2.4063
64153SOL    HW299575   1.269   1.272   3.027  1.0565  1.2083 -0.1994
64154SOL     OW99576  10.951   1.557   3.364 -0.1489 -0.3444 -0.1674
64154SOL    HW199577  10.858   1.534   3.363 -0.0061 -0.9844  0.2021
64154SOL    HW299578  10.996   1.472   3.360  0.4072 -0.2091  2.1272
64155SOL     OW99579  10.804   6.369   0.189 -0.3161 -0.1350  0.0249
64155SOL    HW199580  10.789   6.407   0.102  1.1796  0.0596 -0.1706
64155SOL    HW299581  10.897   6.347   0.190 -0.7520 -2.1357  0.8083
64156SOL     OW99582   1.796  11.829   1.254 -0.5019  0.5822  0.3736
64156SOL    HW199583   1.710  11.850   1.216 -0.4366 -0.5248 -0.4240
64156SOL    HW299584   1.857  11.832   1.181 -0.3308 -1.3227  0.3692
64157SOL     OW99585   9.278   8.741   8.476 -0.0822 -0.4185  0.2532
64157SOL    HW199586   9.194   8.712   8.441  0.4955 -0.0989 -1.4976
64157SOL    HW299587   9.316   8.663   8.516 -0.1379 -1.1905 -1.1592
64158SOL     OW99588   1.360   7.098   5.490 -0.1040  0.0208  0.8065
64158SOL    HW199589   1.375   7.084   5.396 -1.6665  4.1680 -0.2574
64158SOL    HW299590   1.447   7.113   5.526  0.3389  0.5583 -0.4436
64159SOL     OW99591   2.586   3.937  12.945  0.1278 -0.2612 -0.1192
64159SOL    HW199592   2.626   3.941  12.858  1.5924 -0.8071  0.5078
64159SOL    HW299593   2.639   3.995  12.999  0.0050 -0.8892  0.7008
64160SOL     OW99594   4.432   7.168   0.563 -0.2299  0.5875 -0.0005
64160SOL    HW199595   4.522   7.159   0.596  0.2081 -0.1232 -1.3271
64160SOL    HW299596   4.386   7.092   0.598  0.3524 -0.4172 -1.3247
64161SOL     OW99597   5.477   1.331   5.502  0.6010 -0.5719  1.0014
64161SOL    HW199598   5.454   1.276   5.577  1.7648  0.1852  1.9618
64161SOL    HW299599   5.570   1.315   5.488  0.1209 -1.7676 -1.2307
64162SOL     OW99600   3.090  12.423   8.764 -0.0269  0.1968  0.6164
64162SOL    HW199601   3.050  12.501   8.724 -1.2410 -0.6561  0.1413
64162SOL    HW299602   3.020  12.359   8.767  0.7567 -0.6255  1.7575
64163SOL     OW99603   0.763   6.277   7.152 -0.1276  0.4887  0.1022
64163SOL    HW199604   0.718   6.250   7.071  0.2160  0.2673 -0.0161
64163SOL    HW299605   0.692   6.306   7.210 -0.7484 -2.2155  0.8693
64164SOL     OW99606  12.150   9.793   6.063  0.5021 -0.1858 -0.3413
64164SOL    HW199607  12.092   9.840   6.123 -0.6602  0.8663 -2.1785
64164SOL    HW299608  12.221   9.854   6.045  1.2154 -0.7618  0.4727
64165SOL     OW99609   3.014   0.604  11.597  0.1641  0.4953 -0.2713
64165SOL    HW199610   3.062   0.667  11.651 -2.5527  0.2658  2.7517
64165SOL    HW299611   3.071   0.528  11.592  1.7772  1.6498 -0.4425
64166SOL     OW99612  10.005   7.449   1.092  0.1575  0.1487  0.4994
64166SOL    HW199613  10.050   7.381   1.042  2.0190  0.6313  1.4198
64166SOL    HW299614   9.976   7.405   1.171 -1.0938 -0.1731 -0.1139
64167SOL     OW99615   4.285   4.746  11.600  0.1948 -0.1890  0.8389
64167SOL    HW199616   4.222   4.674  11.601 -0.1921  0.0428 -1.3371
64167SOL    HW299617   4.234   4.823  11.624  0.1823 -0.3547  1.3495
64168SOL     OW99618   7.575   3.637   9.146 -0.2043  0.4100  0.7325
64168SOL    HW199619   7.540   3.568   9.203 -2.4951  0.5998 -0.3160
64168SOL    HW299620   7.656   3.600   9.112 -0.7296 -1.2797  1.1571
64169SOL     OW99621  12.352   5.701   0.537 -0.2047  0.4079 -0.7326
64169SOL    HW199622  12.395   5.615   0.532  3.3854  2.0709 -2.4226
64169SOL    HW299623  12.337   5.715   0.630 -0.8874 -1.9956 -0.4087
64170SOL     OW99624   9.447  12.960   1.206  0.0181 -0.4017 -0.5300
64170SOL    HW199625   9.399  13.032   1.248  0.0992  0.2535 -1.5137
64170SOL    HW299626   9.536  12.994   1.196  0.4573 -1.2343  0.3817
64171SOL     OW99627   6.277   1.528   1.297  0.3069  0.1939  0.8126
64171SOL    HW199628   6.191   1.569   1.288  0.9092  1.3814  0.1684
64171SOL    HW299629   6.270   1.474   1.376 -0.4656  1.7297  1.8402
64172SOL     OW99630   7.777   5.323   9.829  0.3133 -0.0215  0.1079
64172SOL    HW199631   7.754   5.338   9.920 -1.4528 -0.7530 -0.1822
64172SOL    HW299632   7.695   5.334   9.780  1.2739  0.6587 -1.4418
64173SOL     OW99633  12.068  11.676   2.889  0.5561  0.4484 -0.1222
64173SOL    HW199634  11.987  11.708   2.928  0.3198 -1.6389  1.2489
64173SOL    HW299635  12.125  11.752   2.886 -0.6923  1.4676  0.9386
64174SOL     OW99636  10.173  10.031  12.876 -0.0183  0.2267  0.2231
64174SOL    HW199637  10.157  10.106  12.819  1.0477  0.1929 -0.1551
64174SOL    HW299638  10.105  10.037  12.943 -0.3354  1.1684 -0.1594
64175SOL     OW99639   9.146  11.969   4.274 -0.5301  0.0799 -0.2164
64175SOL    HW199640   9.186  12.053   4.250 -1.0139  0.5141  0.4766
64175SOL    HW299641   9.216  11.921   4.318  0.0199 -0.2599 -1.4076
64176SOL     OW99642  11.477   6.510   4.752 -0.0146  0.2492  0.2555
64176SOL    HW199643  11.452   6.529   4.662 -3.7354 -4.2920 -0.0592
64176SOL    HW299644  11.541   6.439   4.744  1.0903  1.0855  1.2905
64177SOL     OW99645  10.337   3.618   4.570  0.0410 -0.0058 -0.0702
64177SOL    HW199646  10.327   3.599   4.663 -2.3911 -3.5037 -0.8702
64177SOL    HW299647  10.416   3.571   4.544  0.2198  0.2235  0.0582
64178SOL     OW99648   9.389   1.723   1.730 -0.2178 -0.3234  0.9476
64178SOL    HW199649   9.347   1.703   1.814 -1.9289 -1.5205 -0.1313
64178SOL    HW299650   9.379   1.643   1.679 -0.3841  0.8029 -0.8655
64179SOL     OW99651  12.904   4.072  10.403 -0.0383  0.3188 -0.2417
64179SOL    HW199652  12.905   3.996  10.461  0.6072 -0.1277 -0.8374
64179SOL    HW299653  12.962   4.136  10.445  3.7157 -1.4548 -2.2906
64180SOL     OW99654   6.226   4.110   1.555  0.3692 -0.0567  0.1875
64180SOL    HW199655   6.261   4.125   1.468  0.6543 -0.4449  0.2355
64180SOL    HW299656   6.144   4.159   1.557  0.1062 -0.4710 -0.4710
64181SOL     OW99657   4.605   2.726   0.395 -0.0979 -0.3584  0.3309
64181SOL    HW199658   4.686   2.766   0.363 -0.0397 -0.2484  0.6067
64181SOL    HW299659   4.578   2.666   0.326 -0.4867  0.5673 -0.3484
64182SOL     OW99660  11.459   5.307   8.862 -0.0842  0.4562  0.0455
64182SOL    HW199661  11.479   5.400   8.847  1.4338 -0.0307 -1.2485
64182SOL    HW299662  11.531   5.275   8.915 -0.3482 -0.0981  0.0787
64183SOL     OW99663   3.035   2.391  12.143 -0.0387  0.0789 -0.4019
64183SOL    HW199664   2.950   2.372  12.183 -0.6367  0.6097 -1.3718
64183SOL    HW299665   3.032   2.346  12.059  1.2814 -1.2033  0.2091
64184SOL     OW99666  12.334  10.778   5.837 -0.4603  0.1394  0.2386
64184SOL    HW199667  12.293  10.860   5.810  0.1749  0.5630  0.5346
64184SOL    HW299668  12.425  10.802   5.855 -0.1923 -0.6915  0.0212
64185SOL     OW99669   3.676   5.227  11.663 -0.5164 -0.1612 -0.2489
64185SOL    HW199670   3.604   5.168  11.684 -1.0958  0.7225  0.3269
64185SOL    HW299671   3.646   5.313  11.693  1.2105  0.0488  1.0721
64186SOL     OW99672   0.364  10.428   2.999 -0.3124  0.0190  0.0488
64186SOL    HW199673   0.410  10.452   2.919 -0.9701 -1.1103 -0.6832
64186SOL    HW299674   0.427  10.373   3.047 -0.1261  0.2319  0.0501
64187SOL     OW99675   9.890   8.969   3.620  0.3880  0.1512 -0.1184
64187SOL    HW199676   9.802   8.971   3.583 -0.1610 -0.9967  1.0304
64187SOL    HW299677   9.879   8.928   3.706  2.2020 -1.1382 -0.4241
64188SOL     OW99678  11.925   6.640   9.818  0.2099  0.1122 -0.0752
64188SOL    HW199679  11.940   6.601   9.904 -1.6008  0.0374  0.2437
64188SOL    HW299680  11.863   6.580   9.775  0.1766  0.7707 -0.9770
64189SOL     OW99681   5.993   2.135   7.975  0.3519 -0.0801  0.8470
64189SOL    HW199682   6.007   2.210   8.033 -1.7053  1.2297 -0.2259
64189SOL    HW299683   6.011   2.169   7.887 -0.1935 -0.9797  0.3726
64190SOL     OW99684   3.753   3.578   6.581  0.1790  0.4037 -1.0546
64190SOL    HW199685   3.711   3.656   6.545 -0.6503  0.5668  0.2394
64190SOL    HW299686   3.841   3.608   6.607 -0.3707  1.0914  0.0641
64191SOL     OW99687   1.236   1.905   4.641  0.1683 -0.0556 -0.4850
64191SOL    HW199688   1.223   1.847   4.565 -1.2574  0.0446 -0.3562
64191SOL    HW299689   1.216   1.850   4.717 -1.4914  0.6331 -0.3761
64192SOL     OW99690   6.419   8.899   2.445  0.3487  0.1284 -0.2181
64192SOL    HW199691   6.380   8.901   2.357  1.2547  1.1946 -0.6148
64192SOL    HW299692   6.356   8.947   2.500  0.4461  0.6844 -0.5824
64193SOL     OW99693   7.846  10.847   9.644  0.3353 -0.3610  0.4355
64193SOL    HW199694   7.895  10.848   9.726  0.6998 -0.6394  0.2258
64193SOL    HW299695   7.900  10.795   9.584  0.4468  0.4744 -0.2091
64194SOL     OW99696  11.149  12.871  10.537 -0.5049 -0.0738  0.8046
64194SOL    HW199697  11.185  12.850  10.623  0.3186 -0.1365  0.4513
64194SOL    HW299698  11.215  12.926  10.496 -1.7236  1.5422  0.9177
64195SOL     OW99699   7.073   2.993   6.223  0.3677  0.8120 -0.4859
64195SOL    HW199700   7.021   2.915   6.203  1.6304 -0.4392  0.8146
64195SOL    HW299701   7.010   3.065   6.222 -1.4645 -0.6380  1.1865
64196SOL     OW99702  11.944   1.906  12.794  0.3471 -0.1091 -0.3314
64196SOL    HW199703  12.029   1.900  12.836 -0.4776 -1.0608  1.2978
64196SOL    HW299704  11.944   1.992  12.751  1.8330  0.2057  0.2500
64197SOL     OW99705   2.151  12.276   0.418 -0.3844  0.5537 -0.1335
64197SOL    HW199706   2.186  12.249   0.332 -0.3076  0.4925 -0.0834
64197SOL    HW299707   2.140  12.370   0.411  0.7787  0.7305  0.2032
64198SOL     OW99708  11.451   0.957   3.851 -0.1004  0.5167 -0.9224
64198SOL    HW199709  11.424   1.046   3.872  0.2122  0.3357  0.2735
64198SOL    HW299710  11.384   0.926   3.789 -1.0229  1.0758 -0.2314
64199SOL     OW99711   9.258   5.641   7.801 -0.6130 -0.4235  0.6797
64199SOL    HW199712   9.197   5.603   7.864 -0.4978 -0.7551  0.5957
64199SOL    HW299713   9.269   5.573   7.734 -2.9504  0.9376 -1.2605
64200SOL     OW99714   4.957   7.793   9.301  0.2703  0.3375 -0.4038
64200SOL    HW199715   5.008   7.781   9.381  0.1486  0.3015 -0.3319
64200SOL    HW299716   4.903   7.714   9.295  0.0662  0.4751 -0.3666
64201SOL     OW99717   0.685   2.172   5.255  0.7656 -0.5784  0.5208
64201SOL    HW199718   0.761   2.119   5.277  0.7617 -0.7500  0.1361
64201SOL    HW299719   0.665   2.220   5.335  2.0567  0.4270  0.2655
64202SOL     OW99720   9.394   9.116   1.779  0.3143  0.2721  0.3121
64202SOL    HW199721   9.351   9.085   1.859  0.5245 -2.0784 -0.4024
64202SOL    HW299722   9.465   9.054   1.765 -0.2051  0.1347 -2.1127
64203SOL     OW99723  12.146   3.679   7.185  0.8227 -0.1526 -0.0605
64203SOL    HW199724  12.242   3.684   7.182  0.7609  0.6924 -1.4876
64203SOL    HW299725  12.121   3.650   7.097 -0.2549 -0.0509  0.2058
64204SOL     OW99726   6.769  12.379   1.345 -0.4863  0.1055  0.7898
64204SOL    HW199727   6.841  12.398   1.285 -1.1207  1.8183  0.5130
64204SOL    HW299728   6.810  12.331   1.417  0.2009 -2.4666 -1.1788
64205SOL     OW99729   0.166   0.128   7.033 -0.1106  0.8571 -0.4889
64205SOL    HW199730   0.152   0.210   6.985  2.4123  1.4234 -0.3990
64205SOL    HW299731   0.088   0.119   7.088 -2.0171  1.3794 -2.9399
64206SOL     OW99732   9.725   2.504   7.648  0.3269 -0.5722 -0.4567
64206SOL    HW199733   9.791   2.573   7.655  0.6498 -0.8184 -1.0289
64206SOL    HW299734   9.641   2.550   7.650  0.4789 -0.3141  1.0836
64207SOL     OW99735   1.908  11.041   5.266 -0.7883  0.8861 -0.0770
64207SOL    HW199736   1.854  10.966   5.291 -0.9880  1.2911  0.7407
64207SOL    HW299737   1.904  11.042   5.171 -1.0879  0.0828 -0.0839
64208SOL     OW99738  10.115   6.004   1.731 -0.3336 -0.0890 -0.3583
64208SOL    HW199739  10.121   5.914   1.698  1.2559  0.4084 -1.5286
64208SOL    HW299740  10.035   6.038   1.691  0.1647 -0.3366 -1.5925
64209SOL     OW99741   0.581   4.625  11.270 -0.6086  0.0526  0.1848
64209SOL    HW199742   0.574   4.530  11.271  1.7701 -0.3110 -2.9800
64209SOL    HW299743   0.496   4.656  11.241 -1.2768 -1.1088  0.8473
64210SOL     OW99744   0.708   1.357   7.259  0.2726  0.2086  0.2831
64210SOL    HW199745   0.718   1.277   7.311  0.7506  0.2233  0.2113
64210SOL    HW299746   0.627   1.397   7.293 -0.5804 -0.8581 -0.4147
64211SOL     OW99747   3.832   7.953   2.045  0.2471  0.3931 -0.0225
64211SOL    HW199748   3.884   7.877   2.020 -0.4532  0.1746 -0.8902
64211SOL    HW299749   3.896   8.016   2.078  1.3092  0.7363 -2.4991
64212SOL     OW99750   9.959  12.965   4.692 -0.0445 -0.5455  0.2157
64212SOL    HW199751  10.043  12.925   4.672 -0.1295 -0.4561 -0.3497
64212SOL    HW299752   9.896  12.918   4.637 -0.3307 -0.4907  0.4983
64213SOL     OW99753   7.212   8.934   3.232 -0.3765  0.4230  0.5251
64213SOL    HW199754   7.307   8.923   3.230  0.1555  3.5866 -2.1874
64213SOL    HW299755   7.180   8.877   3.161 -0.2725  0.6363  0.3051
64214SOL     OW99756  12.590   2.311   5.955  0.0824  0.6073  0.0841
64214SOL    HW199757  12.522   2.248   5.929  0.1984  0.3623  0.3689
64214SOL    HW299758  12.568   2.391   5.908  0.4901  0.0669 -1.0518
64215SOL     OW99759   9.888   6.964   9.705 -0.6166  0.0252  0.1923
64215SOL    HW199760   9.893   7.043   9.759 -0.7410  0.6118 -0.6340
64215SOL    HW299761   9.974   6.956   9.664 -0.9491  0.3877 -0.6075
64216SOL     OW99762   0.949   0.719   6.201 -0.3232 -0.5975  0.5214
64216SOL    HW199763   0.928   0.626   6.195 -0.7193 -0.5448  0.9647
64216SOL    HW299764   0.937   0.753   6.113  2.7182 -1.5330 -0.3683
64217SOL     OW99765  11.438   2.940   5.904 -0.1208  0.1486  0.3541
64217SOL    HW199766  11.502   2.958   5.973  0.5561 -0.7190 -0.0230
64217SOL    HW299767  11.387   2.866   5.938 -0.4082  0.3357  0.3264
64218SOL     OW99768  10.171   2.539   3.962  0.2926 -0.2265 -0.0603
64218SOL    HW199769  10.232   2.599   3.919  0.6139 -0.6500 -0.1937
64218SOL    HW299770  10.114   2.508   3.892 -1.1235  1.3801  0.2981
64219SOL     OW99771   4.113   5.252  11.707 -0.6926  0.1783 -0.1864
64219SOL    HW199772   4.029   5.232  11.747 -0.3326  1.6004  1.4394
64219SOL    HW299773   4.176   5.200  11.757 -0.2309  2.0166  1.2883
64220SOL     OW99774  11.284   5.497  10.104  0.7616  0.3953 -0.0769
64220SOL    HW199775  11.352   5.486  10.170  0.5147  1.0590  0.2981
64220SOL    HW299776  11.205   5.516  10.154  0.2473 -0.5572 -0.4972
64221SOL     OW99777   8.954   3.426   5.782 -0.5749 -0.4736  1.0293
64221SOL    HW199778   8.863   3.401   5.766 -0.3830 -0.0153 -1.1704
64221SOL    HW299779   8.999   3.344   5.803 -1.2873 -0.8668  1.0337
64222SOL     OW99780  12.014   7.706   6.971  0.8660  0.3401 -0.0736
64222SOL    HW199781  11.993   7.781   7.027  0.1354  0.2325 -0.1868
64222SOL    HW299782  11.932   7.656   6.968  1.4758 -0.7097  0.3832
64223SOL     OW99783   2.320   6.705   1.893  0.2168  0.1077  0.6339
64223SOL    HW199784   2.238   6.695   1.942 -0.0552  0.9581  0.3688
64223SOL    HW299785   2.370   6.769   1.943  0.3188  0.3017  0.2852
64224SOL     OW99786   8.536   1.925  12.518 -0.4491 -0.2176  0.1858
64224SOL    HW199787   8.600   1.853  12.520 -0.9114 -0.6403  0.0475
64224SOL    HW299788   8.459   1.889  12.562 -0.8384  0.0417 -0.2756
64225SOL     OW99789  11.823   0.521   2.613  0.0222  0.5307  0.1443
64225SOL    HW199790  11.858   0.571   2.540 -0.9215  0.0277 -0.6694
64225SOL    HW299791  11.841   0.576   2.690  0.2069  1.4882 -0.5606
64226SOL     OW99792   3.870  11.149   3.980 -0.6007  0.1104  0.3545
64226SOL    HW199793   3.904  11.068   3.943 -0.1825 -0.6069  2.1788
64226SOL    HW299794   3.775  11.140   3.975 -0.5553 -0.1442 -0.1344
64227SOL     OW99795   6.998   4.029  12.635  0.0639  0.2460 -0.1169
64227SOL    HW199796   7.038   4.066  12.714  0.2740  1.3276 -0.7217
64227SOL    HW299797   6.985   4.103  12.577 -1.9615 -0.2060 -0.3363
64228SOL     OW99798  10.905  11.812   9.801 -0.4258 -0.0866  0.3887
64228SOL    HW199799  10.971  11.877   9.824  1.4247 -2.1040  1.2043
64228SOL    HW299800  10.894  11.760   9.881 -2.1667 -0.5176 -0.0914
64229SOL     OW99801   6.564   2.760   3.210 -0.1407  0.4759  0.5620
64229SOL    HW199802   6.553   2.764   3.115  0.2201  0.8019  0.5299
64229SOL    HW299803   6.651   2.798   3.226  0.7228 -1.5303  0.8501
64230SOL     OW99804   2.858   9.066   9.889 -0.4268  0.1640 -0.4134
64230SOL    HW199805   2.852   9.130   9.960  0.8463 -0.0499 -0.0903
64230SOL    HW299806   2.909   9.110   9.821  1.3821 -0.8308  0.2341
64231SOL     OW99807   0.134   4.552  10.009  0.8923  0.1056 -0.0948
64231SOL    HW199808   0.099   4.624  10.062 -2.2498  0.1380 -1.9360
64231SOL    HW299809   0.069   4.482  10.019  2.0582 -1.1720 -1.1234
64232SOL     OW99810  10.494  10.812   4.859  0.3807 -0.2548 -0.3286
64232SOL    HW199811  10.536  10.882   4.909  0.2896 -0.2525 -0.2555
64232SOL    HW299812  10.427  10.856   4.808  0.8950 -0.1645 -0.9355
64233SOL     OW99813   2.044   9.173   4.411  0.1243  0.3456 -0.4006
64233SOL    HW199814   1.977   9.194   4.476 -1.1335 -0.5426 -1.3688
64233SOL    HW299815   2.124   9.162   4.462 -0.4911  1.2289  0.8020
64234SOL     OW99816  10.086   9.237   2.334  0.3544 -0.1922  0.0550
64234SOL    HW199817  10.061   9.204   2.247  0.6074 -0.6419  0.1562
64234SOL    HW299818  10.057   9.328   2.333  0.1206 -0.2678 -0.4099
64235SOL     OW99819   2.252  11.215   4.696  0.3535 -0.1937 -0.1497
64235SOL    HW199820   2.256  11.308   4.720  1.1228 -0.7983  2.4080
64235SOL    HW299821   2.278  11.213   4.604  1.0869  2.0522 -0.0662
64236SOL     OW99822   7.994   5.957  10.637 -0.5489 -0.9242 -0.1959
64236SOL    HW199823   7.952   5.926  10.556  0.3586 -1.2032 -0.5719
64236SOL    HW299824   7.965   6.048  10.646  0.8867 -0.2342 -1.9252
64237SOL     OW99825   5.628   5.277   1.888 -0.6926  0.7064 -0.2983
64237SOL    HW199826   5.575   5.236   1.957 -0.9257  0.4243 -0.6377
64237SOL    HW299827   5.713   5.293   1.929 -0.7666  0.3582 -0.0037
64238SOL     OW99828  10.705   0.960  10.874  0.2223 -0.5168  0.0180
64238SOL    HW199829  10.715   1.054  10.891 -0.0392 -0.3065 -0.9461
64238SOL    HW299830  10.616   0.951  10.840  0.9229 -0.7827 -1.8902
64239SOL     OW99831  10.251   0.526   8.697  0.6156 -0.3903 -0.0580
64239SOL    HW199832  10.293   0.532   8.611  0.5246  1.7200 -0.0028
64239SOL    HW299833  10.284   0.602   8.745 -0.5134 -0.6822  1.2482
64240SOL     OW99834   2.760   7.981   9.564 -0.3186 -0.2165  0.0905
64240SOL    HW199835   2.742   7.901   9.613  0.9026  0.2822  1.4134
64240SOL    HW299836   2.840   7.962   9.515 -1.0945 -0.4386 -1.1288
64241SOL     OW99837   9.435  12.678   5.740 -0.1388  0.5152 -0.4060
64241SOL    HW199838   9.470  12.765   5.719  1.5751 -0.2112 -0.7066
64241SOL    HW299839   9.484  12.650   5.817 -0.5673 -0.2524 -0.4020
64242SOL     OW99840   2.614   7.000   4.868  0.7585 -0.0326  0.5735
64242SOL    HW199841   2.681   6.941   4.836  1.1425 -0.6873  2.4678
64242SOL    HW299842   2.652   7.088   4.857  0.3811 -0.0956 -1.7785
64243SOL     OW99843   5.302   4.055   0.574 -0.3078  0.3370  0.0726
64243SOL    HW199844   5.357   4.108   0.515  0.4061  0.4403  0.8116
64243SOL    HW299845   5.294   4.107   0.653 -1.1157  0.1188  0.1420
64244SOL     OW99846  12.191   7.432   5.516 -0.9203 -0.2432 -0.2364
64244SOL    HW199847  12.165   7.374   5.589 -0.6115  0.6108  0.5692
64244SOL    HW299848  12.193   7.519   5.555  1.3957 -0.0340 -0.7113
64245SOL     OW99849  12.276   2.845   7.228 -0.0459  0.7078 -0.0518
64245SOL    HW199850  12.350   2.827   7.286 -0.6910  2.2447  1.3460
64245SOL    HW299851  12.285   2.938   7.207 -1.1210  0.7129 -0.5432
64246SOL     OW99852   4.374   2.436   7.615 -0.1991 -0.0330 -0.0423
64246SOL    HW199853   4.460   2.414   7.577 -0.1551 -2.4138  1.2492
64246SOL    HW299854   4.333   2.492   7.549  1.6375 -0.2721 -1.4972
64247SOL     OW99855   5.457   9.841   4.599 -0.0241 -0.3238  0.3092
64247SOL    HW199856   5.454   9.783   4.675 -1.3219 -1.3494 -0.4862
64247SOL    HW299857   5.521   9.801   4.541 -1.9436 -1.8729 -0.8758
64248SOL     OW99858  10.106   9.708  10.104  0.0246 -0.0273  0.8634
64248SOL    HW199859  10.012   9.726  10.102 -0.0351 -0.3532  0.2849
64248SOL    HW299860  10.115   9.635  10.165  0.0431  0.7046  1.7635
64249SOL     OW99861   4.252   0.792   9.934 -0.2010 -0.3250 -0.3924
64249SOL    HW199862   4.333   0.821   9.893 -1.1367  0.3901 -1.8577
64249SOL    HW299863   4.211   0.873   9.965 -0.0192 -0.7564  1.0242
64250SOL     OW99864  11.842   4.561   2.008  0.6794  0.4121  0.0713
64250SOL    HW199865  11.785   4.638   1.998 -1.3911 -1.1217 -0.5593
64250SOL    HW299866  11.809   4.516   2.085  0.7509 -0.7288 -0.5417
64251SOL     OW99867   3.661   4.375  11.611 -0.0534 -0.3382 -0.0526
64251SOL    HW199868   3.633   4.351  11.523 -2.5407 -1.3383  0.9200
64251SOL    HW299869   3.607   4.451  11.634  1.0458  0.3408  0.3845
64252SOL     OW99870  10.042   0.861   8.318 -0.5009  0.1919  0.0382
64252SOL    HW199871   9.999   0.816   8.246  2.3816 -0.0308 -1.7042
64252SOL    HW299872  10.136   0.846   8.304  0.2683  1.2068  3.1494
64253SOL     OW99873   1.765   6.474   3.396 -0.3786  0.4126  0.3269
64253SOL    HW199874   1.841   6.527   3.420 -2.3597  2.8691  1.7526
64253SOL    HW299875   1.719   6.527   3.330 -0.2389 -1.6410 -1.5258
64254SOL     OW99876   6.364  12.237   6.124 -0.1922  0.4601  0.1981
64254SOL    HW199877   6.364  12.215   6.217  0.6907  1.0734  0.3536
64254SOL    HW299878   6.442  12.291   6.112 -0.2923  0.3805 -0.9027
64255SOL     OW99879   5.332   5.915   2.562 -0.0396  0.2699 -0.0403
64255SOL    HW199880   5.380   5.996   2.582 -1.2041  1.6134 -2.2851
64255SOL    HW299881   5.244   5.931   2.595  0.1663 -0.8755  1.1450
64256SOL     OW99882   8.291   2.686  10.482  0.5952 -0.0757  0.1868
64256SOL    HW199883   8.328   2.626  10.547  1.5404 -0.0190 -0.2719
64256SOL    HW299884   8.305   2.773  10.518  0.4393 -0.0771  0.2493
64257SOL     OW99885   9.018   3.159   5.834  0.2435  0.4835 -0.2359
64257SOL    HW199886   8.976   3.114   5.760 -3.0622 -0.8549  2.2094
64257SOL    HW299887   9.048   3.088   5.890  0.1490  1.4133  1.0217
64258SOL     OW99888  12.198  10.305   3.682  0.2735  0.5705  0.2778
64258SOL    HW199889  12.218  10.366   3.611 -1.8119  0.5923 -0.3347
64258SOL    HW299890  12.260  10.233   3.668  0.2867  0.8274 -1.2384
64259SOL     OW99891  11.348   6.339   6.844  0.1346 -0.0421 -0.2804
64259SOL    HW199892  11.293   6.357   6.920  0.4739  2.1086 -0.4921
64259SOL    HW299893  11.304   6.383   6.771  0.5845 -0.8256 -1.0486
64260SOL     OW99894   0.053  11.468  10.752 -0.1849  0.1999  0.5132
64260SOL    HW199895   0.057  11.543  10.692 -1.2214  0.2264  0.4467
64260SOL    HW299896   0.137  11.470  10.798  0.4758  0.4066 -0.6530
64261SOL     OW99897   3.193   1.994   8.945  0.2146 -0.0158 -0.5112
64261SOL    HW199898   3.132   2.068   8.954  0.0085 -0.1381 -0.8724
64261SOL    HW299899   3.195   1.954   9.032  1.2432  1.1182  0.0143
64262SOL     OW99900   2.795  11.538   0.150 -0.8634  0.4194  0.7534
64262SOL    HW199901   2.884  11.567   0.130 -0.4320 -0.1858  1.7745
64262SOL    HW299902   2.743  11.618   0.144 -0.5524  0.5370 -1.3604
64263SOL     OW99903   9.132   2.750   0.622 -0.3615  0.2600  0.9122
64263SOL    HW199904   9.217   2.754   0.665  1.4678  0.9678 -2.4215
64263SOL    HW299905   9.098   2.840   0.626 -1.1981 -0.0830  2.5114
64264SOL     OW99906   5.296   5.321  10.267 -0.1461 -0.0541 -0.3532
64264SOL    HW199907   5.281   5.388  10.334 -1.5116 -0.6751  0.0071
64264SOL    HW299908   5.347   5.365  10.199 -2.0480  1.7525 -0.7204
64265SOL     OW99909   3.378   8.010   0.990 -0.1051 -0.6572  0.0731
64265SOL    HW199910   3.361   7.965   1.073  1.6588 -1.1707  0.2113
64265SOL    HW299911   3.460   8.057   1.006  0.3284 -0.8638 -1.4005
64266SOL     OW99912   3.724   7.413   3.422  0.0483  0.6876  0.4938
64266SOL    HW199913   3.782   7.468   3.369 -2.4868  1.7731 -1.3496
64266SOL    HW299914   3.701   7.340   3.364 -1.2212  0.8288  0.7895
64267SOL     OW99915   8.990   8.543   5.713  0.1259  0.0220  0.2393
64267SOL    HW199916   9.036   8.564   5.631  0.6980  0.7779  0.7389
64267SOL    HW299917   9.057   8.551   5.781 -0.5235  0.1842  0.8731
64268SOL     OW99918  10.442   3.298   2.698  0.0374  0.0395 -0.8492
64268SOL    HW199919  10.373   3.334   2.642  1.2475  0.2182 -2.2904
64268SOL    HW299920  10.488   3.235   2.643 -0.1003 -1.4710  0.6745
64269SOL     OW99921  10.943  11.062   7.016  0.2485 -0.3631  0.1118
64269SOL    HW199922  11.024  11.099   7.051  0.4969 -0.4335 -0.3735
64269SOL    HW299923  10.970  11.013   6.938 -0.3186  0.0264 -0.3432
64270SOL     OW99924  10.459   3.390  12.185  0.2804  0.2391  0.3020
64270SOL    HW199925  10.429   3.399  12.275  1.0079 -0.2338  0.5994
64270SOL    HW299926  10.554   3.379  12.192  0.0255 -3.9792 -0.1615
64271SOL     OW99927   6.718   2.124   6.678  0.6336  0.3759  0.4529
64271SOL    HW199928   6.694   2.040   6.640  0.6388 -0.5023  2.2884
64271SOL    HW299929   6.767   2.168   6.609  0.8023 -1.1959 -0.4829
64272SOL     OW99930  10.719   5.261   2.695 -0.6922  0.7178 -0.3869
64272SOL    HW199931  10.670   5.179   2.693  3.0298 -1.7431 -0.9891
64272SOL    HW299932  10.692   5.303   2.777 -2.4884 -1.2405  0.0975
64273SOL     OW99933   4.570   4.501   1.736 -0.1497 -0.0014 -0.4535
64273SOL    HW199934   4.621   4.421   1.748 -1.2836 -1.0007 -1.9165
64273SOL    HW299935   4.550   4.503   1.642  0.9095  2.6936 -0.7124
64274SOL     OW99936   2.139   5.817   5.473  0.5882 -0.0051  0.2861
64274SOL    HW199937   2.204   5.765   5.427 -0.7352 -1.6571  0.1632
64274SOL    HW299938   2.138   5.901   5.428  0.4365 -1.0300 -1.7472
64275SOL     OW99939   8.617   7.770   7.922  0.4845  0.0822 -0.3383
64275SOL    HW199940   8.593   7.735   8.008  0.8042 -0.2839 -0.3946
64275SOL    HW299941   8.674   7.703   7.884 -0.4910 -0.2579 -1.2626
64276SOL     OW99942   8.968  10.108   8.097 -0.4150 -0.1770  0.1830
64276SOL    HW199943   8.930  10.136   8.181 -1.0251  0.5400 -0.3192
64276SOL    HW299944   8.928  10.167   8.032  3.1983  2.2295 -0.1641
64277SOL     OW99945  11.760   4.587   5.321 -0.4295  0.0065 -0.1448
64277SOL    HW199946  11.675   4.612   5.286 -0.0447 -0.8820 -1.8136
64277SOL    HW299947  11.808   4.669   5.331 -2.0525  0.7627  2.6451
64278SOL     OW99948   3.917  10.351   9.808  0.3004  0.1264 -0.3552
64278SOL    HW199949   3.845  10.288   9.801 -0.1046  0.2986  1.5546
64278SOL    HW299950   3.948  10.363   9.718 -1.1288 -1.0247 -1.0434
64279SOL     OW99951   6.882  11.851   3.145  0.6088 -0.1028 -0.7458
64279SOL    HW199952   6.791  11.825   3.129 -0.0074  1.0343  0.7238
64279SOL    HW299953   6.903  11.815   3.230  0.8029  1.3831 -0.1250
64280SOL     OW99954   5.275  10.127  12.556 -0.0646 -0.0257 -0.0770
64280SOL    HW199955   5.189  10.169  12.562  0.2735  0.4618  2.8145
64280SOL    HW299956   5.313  10.138  12.643  2.4525 -1.3038 -0.9184
64281SOL     OW99957   7.832  12.772   9.653 -0.1425 -0.4371 -0.1003
64281SOL    HW199958   7.828  12.686   9.696  0.3108 -0.3980  0.0331
64281SOL    HW299959   7.895  12.760   9.582  0.0027 -0.1872 -0.0143
64282SOL     OW99960  10.653  11.393   4.922 -0.0911 -0.5174 -0.0814
64282SOL    HW199961  10.584  11.411   4.859 -0.5681 -1.2866  0.2114
64282SOL    HW299962  10.674  11.479   4.960 -0.9817 -0.2982 -0.0725
64283SOL     OW99963  10.344   6.327  12.707 -0.1401 -1.1961  0.1561
64283SOL    HW199964  10.276   6.374  12.756 -0.4188 -0.1389 -1.1881
64283SOL    HW299965  10.301   6.298  12.627  0.9172 -0.6973 -0.6271
64284SOL     OW99966   4.435   9.652   0.343 -0.1834  0.3949  0.1733
64284SOL    HW199967   4.359   9.684   0.391 -0.2921  0.5296 -0.0891
64284SOL    HW299968   4.510   9.683   0.394 -0.3054 -0.4750  0.9087
64285SOL     OW99969   6.806   8.183   0.740 -0.5938  0.0662  0.2313
64285SOL    HW199970   6.756   8.145   0.813 -1.4433 -1.3898 -1.0530
64285SOL    HW299971   6.862   8.112   0.710 -1.0255  0.3067 -1.1965
64286SOL     OW99972   1.220   8.956   1.453 -0.0680  0.1700 -0.4748
64286SOL    HW199973   1.236   8.879   1.398 -0.5251  0.2055 -0.6647
64286SOL    HW299974   1.128   8.949   1.478 -1.2044  2.5101 -3.4502
64287SOL     OW99975   6.393   7.477   2.526 -0.2585 -0.8146  0.1103
64287SOL    HW199976   6.427   7.564   2.507 -0.4718 -0.4470  1.3171
64287SOL    HW299977   6.471   7.422   2.538 -0.1104 -0.5571  0.3363
64288SOL     OW99978   4.868   3.497   9.754 -0.2064  0.3931  0.5231
64288SOL    HW199979   4.824   3.528   9.833 -0.2108 -0.0506  0.6986
64288SOL    HW299980   4.869   3.572   9.696  1.9306  1.4722  1.8477
64289SOL     OW99981   6.824   2.690   1.169  0.2729 -0.0745  0.1474
64289SOL    HW199982   6.798   2.646   1.250 -2.0614  0.2440 -0.3691
64289SOL    HW299983   6.762   2.762   1.160  0.6779  0.0895 -1.7668
64290SOL     OW99984  12.170   0.833  11.619 -0.2570  0.0320  0.1525
64290SOL    HW199985  12.084   0.801  11.592 -0.9420  1.2890  0.7486
64290SOL    HW299986  12.174   0.816  11.713 -0.2580  0.8425  0.3044
64291SOL     OW99987   6.898   1.245  10.876 -0.1062 -0.2343  0.1147
64291SOL    HW199988   6.809   1.226  10.847  0.0675  1.6533 -1.9814
64291SOL    HW299989   6.888   1.285  10.962 -1.5567  1.7076 -0.8576
64292SOL     OW99990   4.535   5.595   9.340  0.2639 -0.2136 -0.9017
64292SOL    HW199991   4.614   5.582   9.288 -0.1938 -0.9999 -1.4328
64292SOL    HW299992   4.470   5.539   9.298  0.0483 -1.3970  0.9319
64293SOL     OW99993   3.620  11.837   2.861  0.2400  0.2926 -0.2727
64293SOL    HW199994   3.688  11.905   2.867 -1.2646  1.7266  2.4099
64293SOL    HW299995   3.548  11.880   2.816 -0.0935 -0.1162 -0.1307
64294SOL     OW99996  12.735   4.014   8.543 -0.0137  0.0039 -0.2455
64294SOL    HW199997  12.755   3.949   8.610  0.7338  1.2459  0.7729
64294SOL    HW299998  12.640   4.027   8.550 -0.0361 -0.3399  0.1231
64295SOL     OW99999   7.681  12.353  10.493 -0.0432  0.0259  0.0728
64295SOL    HW1    0   7.681  12.419  10.424  0.1055 -1.6658 -1.6377
64295SOL    HW2    1   7.773  12.327  10.502 -0.4313 -2.2824 -1.7221
64296SOL     OW    2   5.408  10.491   7.172  0.5629 -0.5015  0.3470
64296SOL    HW1    3   5.358  10.512   7.094 -0.5283 -0.0677  1.1308
64296SOL    HW2    4   5.392  10.398   7.187  1.5759 -0.8236 -0.4809
64297SOL     OW    5   1.665   5.777   7.483 -0.0493 -0.2224  0.1997
64297SOL    HW1    6   1.749   5.797   7.525 -0.2852  0.2218  0.4652
64297SOL    HW2    7   1.689   5.726   7.405  0.4269 -0.5915  0.5788
64298SOL     OW    8  11.610   9.058   3.241 -0.2427  0.0308  1.2286
64298SOL    HW1    9  11.596   9.077   3.333  1.5408  0.0909  1.5177
64298SOL    HW2   10  11.537   9.102   3.196 -1.5232 -0.5965  2.6245
64299SOL     OW   11  10.211   4.498   6.475 -0.1566  0.2078  0.3546
64299SOL    HW1   12  10.133   4.458   6.512  0.0404  0.1757  0.7438
64299SOL    HW2   13  10.262   4.526   6.551 -1.6877  4.0092  0.2138
64300SOL     OW   14  10.586   0.386   2.768  0.2732  0.2815 -0.0198
64300SOL    HW1   15  10.493   0.385   2.793  0.1154  0.1749 -0.5909
64300SOL    HW2   16  10.626   0.450   2.827  0.1361 -0.7750  1.2735
64301SOL     OW   17  11.889   5.518   4.410 -0.4006 -0.0683 -0.2786
64301SOL    HW1   18  11.889   5.578   4.485 -1.5768  0.3555 -0.5947
64301SOL    HW2   19  11.976   5.478   4.411 -0.4976 -0.2871  1.4743
64302SOL     OW   20   0.585   8.970  11.381  0.4821  0.2167 -0.7811
64302SOL    HW1   21   0.609   8.907  11.313 -1.5827  0.5770 -1.9189
64302SOL    HW2   22   0.643   8.949  11.454  1.5392 -1.3686 -2.0031
64303SOL     OW   23   4.207   9.063   2.738 -0.0137 -0.2544  0.7381
64303SOL    HW1   24   4.241   9.091   2.823 -1.8312 -0.2015  1.4963
64303SOL    HW2   25   4.127   9.114   2.726  0.3646 -0.0447 -1.1680
64304SOL     OW   26  12.547   8.441   5.188 -0.0068  0.0838 -1.0188
64304SOL    HW1   27  12.573   8.412   5.276  1.4586  0.0278 -1.4536
64304SOL    HW2   28  12.484   8.374   5.159 -0.7975  0.3022  0.1128
64305SOL     OW   29   4.513   5.659   3.892  0.1607  0.5329  0.2256
64305SOL    HW1   30   4.553   5.587   3.941  0.4070  0.0687 -0.6420
64305SOL    HW2   31   4.533   5.737   3.944  0.5926  0.0795  0.7574
64306SOL     OW   32   5.139   4.241  11.511 -0.0355 -0.6253 -0.7493
64306SOL    HW1   33   5.216   4.251  11.455  0.4704 -1.7549 -0.2835
64306SOL    HW2   34   5.085   4.317  11.491  3.2504  2.9372  2.2405
64307SOL     OW   35   2.161   8.865   5.149  0.1478 -0.1022  0.0768
64307SOL    HW1   36   2.193   8.920   5.078  0.9694  0.1162  0.5917
64307SOL    HW2   37   2.177   8.776   5.119  3.2988 -0.0234  1.1259
64308SOL     OW   38   7.521   1.113  10.694 -0.6061  0.1858 -0.1461
64308SOL    HW1   39   7.584   1.044  10.675 -0.7850 -0.1706  0.5315
64308SOL    HW2   40   7.449   1.098  10.634  0.2570  1.0504 -1.4734
64309SOL     OW   41   0.325   8.609   5.915 -0.8359  0.1211 -0.1080
64309SOL    HW1   42   0.373   8.631   5.835 -2.4919  1.8834 -0.6968
64309SOL    HW2   43   0.252   8.555   5.885 -0.7927 -0.2157  0.3881
64310SOL     OW   44  11.416   8.199   6.804 -0.0485  0.2333 -0.4159
64310SOL    HW1   45  11.358   8.234   6.872  1.1354 -0.9158  1.2620
64310SOL    HW2   46  11.374   8.224   6.721 -0.5830  3.3428  0.6641
64311SOL     OW   47  11.400   6.865  10.061  0.0329  0.2325 -0.2426
64311SOL    HW1   48  11.356   6.790  10.022  0.8193 -0.2238 -0.2680
64311SOL    HW2   49  11.407   6.843  10.154  1.8820 -0.5649 -0.5310
64312SOL     OW   50   3.991   4.425   2.318  0.1035 -0.0258  0.6761
64312SOL    HW1   51   3.951   4.428   2.231  1.2941 -1.0478  0.0709
64312SOL    HW2   52   4.060   4.492   2.315 -0.2095  0.3208  1.0353
64313SOL     OW   53   0.023   7.827   2.040  0.4778  0.5056 -0.4842
64313SOL    HW1   54   0.082   7.791   1.975  0.1902  1.3359 -1.2162
64313SOL    HW2   55  -0.052   7.766   2.041  0.9650 -0.0984 -0.1339
64314SOL     OW   56   2.047   2.296  10.658 -0.0118 -0.3863  0.3059
64314SOL    HW1   57   2.063   2.203  10.674  1.2097 -0.3980 -0.8239
64314SOL    HW2   58   2.011   2.300  10.569 -2.2168  0.0670  1.1394
64315SOL     OW   59   2.969   9.225   9.677 -0.9307 -0.1541 -0.0126
64315SOL    HW1   60   3.060   9.197   9.685 -0.5985  1.3339  2.0870
64315SOL    HW2   61   2.964   9.307   9.727 -3.7479 -1.0205  1.3460
64316SOL     OW   62   3.708   1.918  12.664  0.7636  0.2084 -0.1676
64316SOL    HW1   63   3.675   2.000  12.700  0.2559 -0.0777  0.0307
64316SOL    HW2   64   3.744   1.942  12.578  1.6283  0.8262  0.3453
64317SOL     OW   65   8.283   9.658  11.517 -0.0472 -0.6010  0.4206
64317SOL    HW1   66   8.189   9.652  11.501  0.0151 -0.5541  0.0356
64317SOL    HW2   67   8.323   9.649  11.430  0.3941 -2.8282  0.7742
64318SOL     OW   68   0.160   0.209   4.952  0.4782  0.0751 -0.8040
64318SOL    HW1   69   0.227   0.147   4.923  0.0055 -0.7299 -0.2182
64318SOL    HW2   70   0.170   0.284   4.894  0.4465 -0.9365 -2.1482
64319SOL     OW   71   9.409   0.322   0.366 -0.1503  0.1792 -0.3551
64319SOL    HW1   72   9.347   0.313   0.294  0.3243  2.5175 -1.1498
64319SOL    HW2   73   9.379   0.259   0.432 -4.7994  2.6818  0.2990
64320SOL     OW   74   1.789   5.952   9.287 -0.0079  0.1183  0.4226
64320SOL    HW1   75   1.769   6.039   9.255  0.5515 -0.4165 -1.4834
64320SOL    HW2   76   1.739   5.945   9.368  0.6625  2.5101  1.1236
64321SOL     OW   77  12.476  10.923   8.070  0.6100  0.0626 -0.0942
64321SOL    HW1   78  12.418  10.983   8.118  0.9341 -1.0366  1.7575
64321SOL    HW2   79  12.549  10.979   8.042 -0.4595  1.0995 -0.9289
64322SOL     OW   80  10.021   7.147   4.697 -0.5079 -1.1230 -0.8283
64322SOL    HW1   81  10.020   7.052   4.690 -0.7717 -1.4934  2.5405
64322SOL    HW2   82   9.978   7.166   4.781  1.6255  1.8066 -0.2295
64323SOL     OW   83  12.275  11.992   2.268  0.6540  0.2407  0.3835
64323SOL    HW1   84  12.288  11.912   2.216  0.1714  0.4174 -0.0131
64323SOL    HW2   85  12.197  11.974   2.320  1.4409 -0.1452  1.4673
64324SOL     OW   86   9.208  10.552   6.348 -0.2410  0.1853 -0.0532
64324SOL    HW1   87   9.254  10.602   6.281  0.5288  2.3770  1.9901
64324SOL    HW2   88   9.274  10.533   6.414 -0.5784 -3.3758 -0.5308
64325SOL     OW   89   7.402   7.774   1.624  0.2066  0.2180  0.5969
64325SOL    HW1   90   7.418   7.803   1.713 -0.5029  0.0902  0.7706
64325SOL    HW2   91   7.307   7.778   1.614  0.3331  1.1170 -0.4512
64326SOL     OW   92   6.442  12.581   0.829 -0.0040  0.1786  0.3970
64326SOL    HW1   93   6.406  12.640   0.764  0.8334  1.1326  0.7749
64326SOL    HW2   94   6.529  12.557   0.795  0.6098  1.0126  1.3369
64327SOL     OW   95  12.624   8.588   5.635 -0.2801  0.5059 -0.1160
64327SOL    HW1   96  12.638   8.607   5.728 -1.7514  0.1933  0.1995
64327SOL    HW2   97  12.530   8.568   5.629 -0.6094  2.2699 -1.9491
64328SOL     OW   98  10.140   2.649   4.242 -0.3702  0.0290 -0.8518
64328SOL    HW1   99  10.166   2.585   4.176  0.4673 -2.4345  1.6685
64328SOL    HW2  100  10.049   2.627   4.263 -0.9660  1.4437 -1.8149
64329SOL     OW  101   4.715   5.534   4.100  0.1283 -0.7551  0.2293
64329SOL    HW1  102   4.680   5.517   4.187 -2.7052 -0.9715 -0.8547
64329SOL    HW2  103   4.757   5.619   4.106 -1.3235 -0.0923  1.4850
64330SOL     OW  104   6.153  10.436  10.188  0.0843  0.6078 -0.0105
64330SOL    HW1  105   6.202  10.374  10.242  4.0067  2.9374 -0.5135
64330SOL    HW2  106   6.136  10.510  10.246 -1.8837  0.4011 -0.2370
64331SOL     OW  107   5.435   2.847   2.512 -0.3013  0.0319 -0.0812
64331SOL    HW1  108   5.423   2.933   2.553 -0.8963 -0.2634  0.3881
64331SOL    HW2  109   5.369   2.791   2.555  3.1441 -1.9338  3.2734
64332SOL     OW  110   2.615   1.884  12.555  0.3890 -0.4608  0.1744
64332SOL    HW1  111   2.655   1.796  12.560  1.2917  0.0236  2.1671
64332SOL    HW2  112   2.690   1.942  12.541 -0.1839  0.0532 -0.8589
64333SOL     OW  113   3.190   5.947   4.375 -0.1287 -0.2171  0.0925
64333SOL    HW1  114   3.273   5.933   4.421  0.3317 -0.5823 -0.8151
64333SOL    HW2  115   3.173   6.041   4.384  0.9294  0.0565 -0.5877
64334SOL     OW  116  11.953   7.047   7.107 -0.1189  0.4107 -0.9512
64334SOL    HW1  117  11.870   7.077   7.145 -0.4388 -1.0320 -0.4528
64334SOL    HW2  118  11.935   6.957   7.079  1.7958 -0.7122  1.0763
64335SOL     OW  119   6.335   8.765   6.443  0.5786  0.0746 -0.1162
64335SOL    HW1  120   6.251   8.798   6.409 -0.1802 -0.2054  1.4135
64335SOL    HW2  121   6.322   8.670   6.449  1.6935 -0.2249 -1.6143
64336SOL     OW  122   6.688  12.201   3.822 -0.1310  0.5798 -0.6888
64336SOL    HW1  123   6.742  12.241   3.753 -1.0302 -0.9054 -2.3392
64336SOL    HW2  124   6.601  12.196   3.783 -0.8795  0.5771  0.9510
64337SOL     OW  125   4.890   2.406   6.750  0.1913 -0.0227  0.0093
64337SOL    HW1  126   4.887   2.383   6.657  0.2737 -1.4124  0.3302
64337SOL    HW2  127   4.852   2.330   6.794  1.6559 -0.0886  1.2234
64338SOL     OW  128  11.627   4.618   4.690  0.2654  0.0985  0.5974
64338SOL    HW1  129  11.644   4.664   4.772 -0.0106  0.1346  0.6361
64338SOL    HW2  130  11.534   4.633   4.673  0.3899  0.3681  0.1085
64339SOL     OW  131   6.504   8.119  11.425  0.4680 -0.0093  0.5390
64339SOL    HW1  132   6.559   8.158  11.492  1.2842 -0.4992  0.1615
64339SOL    HW2  133   6.498   8.026  11.450 -0.8628  0.1894  1.0324
64340SOL     OW  134   9.128   7.807   5.558  0.0171 -0.1264  0.3310
64340SOL    HW1  135   9.173   7.810   5.474  0.0414  1.2075  0.3783
64340SOL    HW2  136   9.080   7.890   5.563  0.6377  0.1773  1.9645
64341SOL     OW  137   4.111   5.744  11.963 -0.1460  0.0549  0.4005
64341SOL    HW1  138   4.172   5.812  11.993 -0.0498 -0.4374  1.3637
64341SOL    HW2  139   4.165   5.665  11.960 -0.3506 -0.0590 -0.3503
64342SOL     OW  140   0.376   2.540  12.215  0.2970  0.3602  0.4656
64342SOL    HW1  141   0.401   2.448  12.205 -0.5249  0.1823 -0.0471
64342SOL    HW2  142   0.283   2.537  12.236 -0.3165  1.1240 -1.8310
64343SOL     OW  143  10.602   8.975   2.597  0.4626 -0.0356  0.1629
64343SOL    HW1  144  10.619   8.984   2.504  0.9970 -1.0693  0.1405
64343SOL    HW2  145  10.584   8.881   2.609 -1.5773  0.3925  0.7866
64344SOL     OW  146   3.203   3.021   5.240  0.2648 -0.0537  0.1108
64344SOL    HW1  147   3.212   3.006   5.146  1.0395  1.0913 -0.0217
64344SOL    HW2  148   3.137   3.091   5.246 -0.4304 -0.7224  0.4820
64345SOL     OW  149   6.057   3.725   2.079 -0.5625 -0.0769  0.1291
64345SOL    HW1  150   5.965   3.750   2.076 -0.2379  1.2293  0.4140
64345SOL    HW2  151   6.064   3.652   2.018 -2.0853 -1.2595  1.2874
64346SOL     OW  152   8.534  10.448   9.493  0.1221 -0.7041  0.0294
64346SOL    HW1  153   8.564  10.504   9.422  0.5763  0.2820  0.9736
64346SOL    HW2  154   8.612  10.436   9.548 -0.5131 -0.4965  0.9787
64347SOL     OW  155   6.459  11.894   3.665 -0.2355 -0.5104  0.2398
64347SOL    HW1  156   6.487  11.844   3.742 -0.3157 -0.4331  0.3205
64347SOL    HW2  157   6.500  11.850   3.591  0.8462  0.1499  0.4297
64348SOL     OW  158  11.127  12.713   6.835  0.2857 -0.0903 -1.0074
64348SOL    HW1  159  11.065  12.783   6.811  0.1785  0.2639  0.2340
64348SOL    HW2  160  11.076  12.633   6.827 -0.0113  0.0985 -1.0539
64349SOL     OW  161  12.392  10.675   6.312 -0.8433  0.6569  0.1616
64349SOL    HW1  162  12.441  10.730   6.373  0.2988  1.8473 -1.7275
64349SOL    HW2  163  12.459  10.626   6.264 -1.6922 -0.1164 -0.2711
64350SOL     OW  164   8.713   0.466   8.711 -0.0617 -0.4289  0.2757
64350SOL    HW1  165   8.757   0.402   8.766  0.2665 -0.1718  0.3139
64350SOL    HW2  166   8.635   0.491   8.761  2.0174  2.5048  2.3986
64351SOL     OW  167   8.491   3.188   7.857  0.1909  0.1009  0.6273
64351SOL    HW1  168   8.472   3.216   7.946 -0.6484 -2.6589  1.4086
64351SOL    HW2  169   8.566   3.128   7.865  0.4170  0.1803 -0.5992
64352SOL     OW  170   3.850   7.521   1.675 -0.0060 -0.0882 -0.0626
64352SOL    HW1  171   3.820   7.563   1.756 -0.1891  0.2628 -0.3114
64352SOL    HW2  172   3.824   7.430   1.684  3.0674 -0.9307  1.8781
64353SOL     OW  173   1.920   8.046   8.248 -0.1744 -0.1393  0.8611
64353SOL    HW1  174   1.928   8.128   8.297  0.8684 -0.0161  0.5076
64353SOL    HW2  175   1.907   8.074   8.157  0.5282 -0.3594  0.6883
64354SOL     OW  176   7.895   5.677  11.880  0.3630 -0.1515  0.1693
64354SOL    HW1  177   7.857   5.762  11.858 -0.3902  0.1385  2.3538
64354SOL    HW2  178   7.850   5.615  11.824  0.1247  0.7544 -0.6694
64355SOL     OW  179   9.960   7.098  11.163  0.6719 -0.1170 -0.8070
64355SOL    HW1  180   9.913   7.018  11.140  1.0653 -0.5582 -0.1054
64355SOL    HW2  181   9.969   7.095  11.258  4.1182 -1.2427 -1.0207
64356SOL     OW  182   8.367   3.354   2.501  0.0437  0.7964 -0.0248
64356SOL    HW1  183   8.424   3.425   2.529  0.2573 -0.1948  2.3100
64356SOL    HW2  184   8.427   3.281   2.482 -0.3140  0.4214  0.2671
64357SOL     OW  185   0.618   0.748   5.759  0.0133 -0.4193 -0.3573
64357SOL    HW1  186   0.645   0.664   5.721  0.3081  0.8463 -3.2763
64357SOL    HW2  187   0.524   0.753   5.739 -0.4234 -0.8058  1.4748
64358SOL     OW  188   4.525   7.802   1.111 -0.0509 -0.0690  0.1039
64358SOL    HW1  189   4.435   7.798   1.077 -0.2003  0.1503  0.4633
64358SOL    HW2  190   4.514   7.805   1.206  0.3568 -0.6351  0.1729
64359SOL     OW  191   3.133   7.712   6.428  0.4115  0.3129  0.1698
64359SOL    HW1  192   3.098   7.715   6.517 -0.2014 -0.3432 -0.0444
64359SOL    HW2  193   3.061   7.679   6.374  1.0008  0.0241 -0.4607
64360SOL     OW  194   3.678   5.968   6.345 -0.4709  0.0855 -0.0534
64360SOL    HW1  195   3.668   6.047   6.399 -1.6540  1.1750 -1.7594
64360SOL    HW2  196   3.762   5.980   6.301 -1.6033  1.5685 -1.9814
64361SOL     OW  197   7.802   2.336   7.398  0.2610 -0.1348 -0.1881
64361SOL    HW1  198   7.835   2.386   7.473 -0.7109  1.4756 -0.7691
64361SOL    HW2  199   7.773   2.253   7.436  1.1118  0.0679  0.9749
64362SOL     OW  200   4.876   4.124   6.993 -0.1724  0.1153  0.0703
64362SOL    HW1  201   4.894   4.035   6.964 -2.2227 -0.4689  0.4595
64362SOL    HW2  202   4.875   4.176   6.913  2.8070  0.2131 -0.0244
64363SOL     OW  203   1.905   6.537   5.960 -0.2538 -0.3220 -0.7408
64363SOL    HW1  204   1.964   6.466   5.986  1.2784  1.2778  0.4167
64363SOL    HW2  205   1.961   6.601   5.917 -1.0572  1.3543  0.5684
64364SOL     OW  206  12.692   5.979   3.080  0.5684  0.2259 -0.2399
64364SOL    HW1  207  12.758   5.950   3.142  0.1452  2.5652  1.4342
64364SOL    HW2  208  12.707   6.074   3.072 -0.6002  0.2986 -2.2726
64365SOL     OW  209   2.682   2.507  10.366  0.2436  0.0578 -0.1107
64365SOL    HW1  210   2.598   2.489  10.324  0.1148  0.4821 -0.0435
64365SOL    HW2  211   2.716   2.421  10.389  0.5974 -0.2398 -1.6172
64366SOL     OW  212   2.942   8.508   4.606  0.0782  0.0956  0.0656
64366SOL    HW1  213   2.887   8.488   4.682 -0.5956 -1.9115 -0.8605
64366SOL    HW2  214   3.031   8.494   4.638 -0.0904  0.7984  0.8877
64367SOL     OW  215  10.830   7.971   7.031 -0.0144 -0.0382 -0.0218
64367SOL    HW1  216  10.764   8.030   6.994 -1.4165 -3.0290 -2.7563
64367SOL    HW2  217  10.782   7.914   7.090  0.8906  0.1206  0.8937
64368SOL     OW  218   0.790  11.202   9.265  0.3159 -0.3257 -0.3072
64368SOL    HW1  219   0.835  11.264   9.207  1.7417 -2.1169 -1.2319
64368SOL    HW2  220   0.831  11.215   9.350  2.1592 -1.4005 -0.9719
64369SOL     OW  221   6.308   0.053   6.603 -0.1333 -0.4265 -0.4101
64369SOL    HW1  222   6.284  -0.036   6.576  0.3287 -1.0089  0.9782
64369SOL    HW2  223   6.358   0.040   6.684  1.2465  1.0096 -0.9902
64370SOL     OW  224  10.665  11.013  11.304 -0.0554 -0.2026 -0.2984
64370SOL    HW1  225  10.607  11.007  11.228  2.3388 -0.2319 -2.2450
64370SOL    HW2  226  10.720  11.089  11.286  1.5925 -1.1210  0.6060
64371SOL     OW  227   3.460   3.999   1.663 -0.1535 -0.9158  0.1114
64371SOL    HW1  228   3.479   3.915   1.705 -2.3246 -0.6478  1.7769
64371SOL    HW2  229   3.383   4.033   1.709  0.0512  1.5410 -1.1781
64372SOL     OW  230   9.292   6.378   4.870 -0.0222 -0.5008 -0.0286
64372SOL    HW1  231   9.241   6.412   4.797 -1.2119  0.9491  1.3782
64372SOL    HW2  232   9.381   6.371   4.837 -0.2371  1.5560 -1.2145
64373SOL     OW  233   3.483   0.428   8.597  0.1578 -0.5629  0.1297
64373SOL    HW1  234   3.431   0.455   8.521 -0.3113 -0.3989  0.4980
64373SOL    HW2  235   3.426   0.446   8.672  0.9672  0.1671  0.5877
64374SOL     OW  236   5.784   6.438   2.660  0.0185 -0.3779 -0.0758
64374SOL    HW1  237   5.702   6.461   2.704  0.3970  0.7892  0.0406
64374SOL    HW2  238   5.781   6.485   2.577 -1.2614 -3.5297 -1.9927
64375SOL     OW  239   3.176   8.212   3.952  0.3882 -0.1908  0.5490
64375SOL    HW1  240   3.081   8.199   3.942  0.4282  0.5070 -0.9044
64375SOL    HW2  241   3.183   8.292   4.004  0.1922 -0.8130  1.5614
64376SOL     OW  242   7.888   6.428   3.838  0.4908 -0.3911 -0.9258
64376SOL    HW1  243   7.924   6.349   3.878 -0.2304 -0.3358 -0.1340
64376SOL    HW2  244   7.821   6.395   3.778 -0.3165 -0.3676 -0.0599
64377SOL     OW  245   6.014  11.099   4.677 -0.7915 -0.6291 -0.0909
64377SOL    HW1  246   6.090  11.139   4.635 -0.2947 -1.2077  0.2417
64377SOL    HW2  247   5.963  11.172   4.710  0.2118 -0.2718  0.7012
64378SOL     OW  248   4.635   1.503  12.348 -0.5251 -0.3016  0.4112
64378SOL    HW1  249   4.703   1.495  12.281 -0.9157 -1.2254  0.1097
64378SOL    HW2  250   4.556   1.527  12.299 -0.5550  0.2100  0.6969
64379SOL     OW  251  10.897   0.375   2.233 -0.2184  0.1987  0.2588
64379SOL    HW1  252  10.973   0.343   2.282 -0.0781  0.5644  0.2831
64379SOL    HW2  253  10.845   0.422   2.298 -0.7256 -0.4743  0.3537
64380SOL     OW  254   1.863  10.611   2.014 -0.1962  0.3088 -0.1073
64380SOL    HW1  255   1.773  10.598   1.984 -0.1696  1.4451 -0.7333
64380SOL    HW2  256   1.917  10.579   1.941 -0.0661 -0.8835  0.4878
64381SOL     OW  257   9.987  12.649   4.743  0.0391  0.3154  0.2169
64381SOL    HW1  258  10.077  12.674   4.722  0.1960 -0.9227 -0.6506
64381SOL    HW2  259   9.937  12.672   4.665 -0.0137 -0.9492 -0.1437
64382SOL     OW  260   3.024  12.024   1.824 -0.1649  0.2595 -0.4895
64382SOL    HW1  261   3.032  11.977   1.907 -1.0120  0.3129 -0.3634
64382SOL    HW2  262   3.089  11.983   1.767  0.4348  0.2272  0.1969
64383SOL     OW  263   6.038   0.167   1.617  0.1810  0.0867  0.0709
64383SOL    HW1  264   6.037   0.200   1.707  1.0794  1.3318 -0.3460
64383SOL    HW2  265   6.052   0.073   1.626 -2.6252 -0.3391  1.3235
64384SOL     OW  266   4.932   5.069   1.054  0.5038 -0.4508 -0.4332
64384SOL    HW1  267   4.838   5.071   1.036  0.2731 -0.4282  0.6870
64384SOL    HW2  268   4.945   4.988   1.103  0.5443  0.9077  1.9585
64385SOL     OW  269   5.969   2.545  12.841  0.4117  0.2059 -0.5639
64385SOL    HW1  270   5.895   2.550  12.780  1.5428  2.3572 -1.8884
64385SOL    HW2  271   5.951   2.612  12.906  0.2452 -0.6671  0.3186
64386SOL     OW  272   0.081  11.082   8.524  0.1246  0.1305  1.0715
64386SOL    HW1  273   0.112  11.165   8.560  1.4562  0.1334  0.0051
64386SOL    HW2  274   0.161  11.031   8.511 -0.2594  0.0785 -1.7067
64387SOL     OW  275   6.027   4.816   1.819 -0.2868  0.8034 -0.3344
64387SOL    HW1  276   5.972   4.894   1.807  0.2184  1.2232  0.0445
64387SOL    HW2  277   6.113   4.851   1.841  0.3682  0.1758 -1.7556
64388SOL     OW  278   2.637  11.395   2.122 -0.8191  0.1120 -0.3591
64388SOL    HW1  279   2.625  11.315   2.071  1.9802 -1.0558  0.6352
64388SOL    HW2  280   2.555  11.404   2.171 -1.1583 -2.2863 -0.3508
64389SOL     OW  281   2.467   3.534   8.105 -0.2251  0.1148 -0.0436
64389SOL    HW1  282   2.473   3.439   8.104 -0.2073  0.1209 -0.6049
64389SOL    HW2  283   2.547   3.564   8.062 -0.4076  0.3704 -0.2129
64390SOL     OW  284  11.507  12.021   2.439 -0.6592 -0.1425  0.0027
64390SOL    HW1  285  11.427  11.977   2.412  0.6062 -1.7428 -1.3548
64390SOL    HW2  286  11.523  11.990   2.528 -0.3508 -1.6651 -0.5544
64391SOL     OW  287   4.542   9.878   8.943  0.0538  0.0289 -0.3921
64391SOL    HW1  288   4.532   9.804   8.883  1.1276 -0.2366 -0.2669
64391SOL    HW2  289   4.481   9.860   9.014  0.9792 -1.2507  0.1166
64392SOL     OW  290   2.746   8.626   8.564  0.2280  0.1322  0.1470
64392SOL    HW1  291   2.780   8.537   8.557 -0.9032 -0.3317  0.4147
64392SOL    HW2  292   2.819   8.676   8.601  0.4241 -0.9702  1.3100
64393SOL     OW  293   6.806  10.831  12.404 -0.0959  0.3294 -0.4054
64393SOL    HW1  294   6.844  10.917  12.382  2.5776 -0.6167  0.0777
64393SOL    HW2  295   6.753  10.808  12.328 -0.6119  2.2575 -0.6773
64394SOL     OW  296   9.592   6.489  11.845 -0.2486  0.1120 -0.0885
64394SOL    HW1  297   9.544   6.514  11.924  0.4714 -2.0129  1.1150
64394SOL    HW2  298   9.528   6.440  11.793  0.0781 -1.1525  0.6643
64395SOL     OW  299  10.371  11.828   9.628  0.5867  0.0492  0.1438
64395SOL    HW1  300  10.368  11.902   9.566  1.0581 -1.6025 -1.9679
64395SOL    HW2  301  10.285  11.787   9.620  0.4080  0.1999  1.1513
64396SOL     OW  302   9.977   2.738   6.228  0.4249 -0.3755  0.3529
64396SOL    HW1  303   9.935   2.824   6.226  0.1951 -0.4689  0.8367
64396SOL    HW2  304   9.953   2.702   6.314  0.9284 -0.7165  0.3568
64397SOL     OW  305  10.864  10.532  10.721  0.3163  0.0190 -0.6687
64397SOL    HW1  306  10.919  10.542  10.644  0.7448  1.4319 -0.2159
64397SOL    HW2  307  10.911  10.579  10.790 -0.5947 -0.2745  0.1740
64398SOL     OW  308   7.826   1.974   1.195  0.4799  0.0103 -0.1253
64398SOL    HW1  309   7.848   2.058   1.235  1.5368 -0.1353 -0.3613
64398SOL    HW2  310   7.841   1.909   1.264 -0.4367  0.0134  0.0891
64399SOL     OW  311   8.155   1.963  11.042  0.0587 -0.0014 -0.4944
64399SOL    HW1  312   8.094   2.030  11.009 -1.7308 -1.0912  0.4719
64399SOL    HW2  313   8.161   1.980  11.136 -0.3803 -1.1284 -0.2445
64400SOL     OW  314   2.073  12.039   1.073  0.3855  0.2505 -0.0012
64400SOL    HW1  315   2.031  11.969   1.022 -0.2649  0.2833  0.4722
64400SOL    HW2  316   2.100  11.997   1.155 -0.9852  0.7572  0.7522
64401SOL     OW  317   2.228   6.626  10.655 -0.0869 -0.1697 -0.1647
64401SOL    HW1  318   2.137   6.606  10.636  0.1493 -0.3858 -1.0950
64401SOL    HW2  319   2.270   6.634  10.569  0.5091  1.1847  0.2121
64402SOL     OW  320   3.316   6.688   0.610 -0.5502  0.3838  0.0009
64402SOL    HW1  321   3.226   6.688   0.641 -0.5997 -2.2440  0.0924
64402SOL    HW2  322   3.310   6.664   0.517  0.0895 -0.9159  0.2788
64403SOL     OW  323   7.332   7.571   1.192 -0.4610  0.5279 -0.9405
64403SOL    HW1  324   7.329   7.508   1.265  1.3606  1.1854 -0.2549
64403SOL    HW2  325   7.278   7.644   1.222 -0.4272  0.4223 -0.6148
64404SOL     OW  326  12.843   1.660  11.000  0.1159 -0.1056 -0.4038
64404SOL    HW1  327  12.871   1.576  10.963  1.9396  0.6747 -0.9383
64404SOL    HW2  328  12.821   1.713  10.924 -0.8799 -0.0366 -0.0744
64405SOL     OW  329   6.179   3.965   4.107  0.1843 -0.0037  0.1668
64405SOL    HW1  330   6.129   3.931   4.181  0.7822 -0.6202  0.2959
64405SOL    HW2  331   6.150   4.056   4.098 -0.7292 -0.2576  0.4260
64406SOL     OW  332  10.828   2.181   7.677 -0.4709 -0.2536  0.1340
64406SOL    HW1  333  10.913   2.216   7.703 -1.2558  1.2929  0.7248
64406SOL    HW2  334  10.769   2.204   7.749 -1.3604 -1.4772 -0.1679
64407SOL     OW  335   4.596   8.265   3.360 -0.5553 -0.0058 -0.2027
64407SOL    HW1  336   4.505   8.292   3.343 -0.8413 -0.9277 -0.1605
64407SOL    HW2  337   4.602   8.262   3.455 -1.6367 -3.5569 -0.0853
64408SOL     OW  338   2.926   1.130  12.537 -0.5885  0.2262 -0.0702
64408SOL    HW1  339   2.945   1.142  12.631  0.9392  0.1219 -0.3390
64408SOL    HW2  340   2.954   1.213  12.497 -3.5191  1.2736 -0.1847
64409SOL     OW  341   2.179   2.518   2.629 -0.2187 -0.2577  0.5910
64409SOL    HW1  342   2.106   2.509   2.690 -0.7373 -1.3147 -0.1666
64409SOL    HW2  343   2.172   2.608   2.597 -2.7447 -1.0594 -1.3779
64410SOL     OW  344   0.935   3.493   3.142 -0.2993 -0.5286  0.6560
64410SOL    HW1  345   0.931   3.569   3.199 -0.3628  0.7191 -0.9363
64410SOL    HW2  346   1.027   3.467   3.143 -0.4623 -1.1457  2.0542
64411SOL     OW  347   2.429   5.185   9.560 -0.4312 -0.2446 -0.5304
64411SOL    HW1  348   2.390   5.206   9.475 -2.1748 -0.0410  0.2593
64411SOL    HW2  349   2.487   5.259   9.580 -2.6714  1.5218 -0.0371
64412SOL     OW  350  11.677   3.309   9.236 -0.0845 -0.2562  0.3648
64412SOL    HW1  351  11.740   3.379   9.220 -1.2355  0.7333 -0.0027
64412SOL    HW2  352  11.727   3.228   9.223  1.4949  0.4616  1.6218
64413SOL     OW  353  10.840   9.123   0.912  0.3565 -0.2239 -0.2702
64413SOL    HW1  354  10.773   9.075   0.864 -0.0301  0.0200  0.0241
64413SOL    HW2  355  10.801   9.208   0.932  0.0174 -0.7674  1.5995
64414SOL     OW  356   0.259   3.573  12.571  0.4869 -0.4943 -0.3974
64414SOL    HW1  357   0.195   3.637  12.542  0.3775 -1.2595 -1.9811
64414SOL    HW2  358   0.259   3.580  12.666 -1.4015  0.0349 -0.3946
64415SOL     OW  359   5.067   6.355   7.467 -0.0559  0.2178 -0.0081
64415SOL    HW1  360   5.025   6.299   7.532  2.6359 -0.7982  0.9814
64415SOL    HW2  361   5.005   6.357   7.393 -1.4002 -1.8928  0.9783
64416SOL     OW  362  11.247   0.906  11.574 -0.0603 -0.2730 -0.0039
64416SOL    HW1  363  11.275   0.941  11.659 -1.9436  0.6353  0.2901
64416SOL    HW2  364  11.192   0.832  11.596  1.1438 -1.3745 -0.5443
64417SOL     OW  365   3.582  12.406  11.954 -0.4816  0.4717 -0.0951
64417SOL    HW1  366   3.572  12.319  11.917  1.4053  0.3119 -0.3135
64417SOL    HW2  367   3.583  12.392  12.049 -2.5512  0.5692 -0.0157
64418SOL     OW  368   7.462  12.717   8.232  0.4479  0.0072 -0.1688
64418SOL    HW1  369   7.532  12.715   8.297 -0.2150  1.4460  0.6347
64418SOL    HW2  370   7.381  12.721   8.283 -0.0756  1.3356 -1.0313
64419SOL     OW  371   7.636  11.129  11.984  0.0908 -0.1255 -0.0573
64419SOL    HW1  372   7.693  11.092  12.052  1.4974  1.9378 -0.0126
64419SOL    HW2  373   7.696  11.156  11.914 -0.7119  2.4101  0.1168
64420SOL     OW  374  10.349   4.142   8.308 -0.1643 -0.0841  0.1856
64420SOL    HW1  375  10.432   4.116   8.348 -0.6424 -4.6416 -1.1988
64420SOL    HW2  376  10.282   4.117   8.372 -0.5976 -1.1177 -0.6285
64421SOL     OW  377   9.916   2.247   0.459  0.3122 -0.1117  0.1393
64421SOL    HW1  378  10.004   2.209   0.465  0.0776 -0.9601 -1.2639
64421SOL    HW2  379   9.873   2.196   0.390 -1.0762  0.7023  0.3701
64422SOL     OW  380   2.780   4.321   4.318 -0.1764  0.2139  0.4366
64422SOL    HW1  381   2.726   4.344   4.394 -1.0914 -2.7028  0.8163
64422SOL    HW2  382   2.831   4.246   4.347 -1.2268 -1.5839 -2.0066
64423SOL     OW  383   7.859  10.714   7.068  0.2314 -0.0311 -0.0001
64423SOL    HW1  384   7.879  10.748   7.155  0.6615 -0.9710  0.2732
64423SOL    HW2  385   7.835  10.792   7.018 -0.9610  0.4178  1.1970
64424SOL     OW  386   5.167   1.656   3.762  0.1406  0.4314  0.1268
64424SOL    HW1  387   5.092   1.600   3.742  0.4263 -0.2265  0.8448
64424SOL    HW2  388   5.193   1.631   3.850 -0.7248  2.8252  1.1481
64425SOL     OW  389   8.898  11.802   6.317  0.5581 -0.1276  0.1792
64425SOL    HW1  390   8.890  11.708   6.333 -1.2867 -0.2726 -1.2668
64425SOL    HW2  391   8.986  11.813   6.281  0.8912 -1.2482  0.6172
64426SOL     OW  392  12.362   0.904   2.763  0.3126 -0.0849 -0.6671
64426SOL    HW1  393  12.336   0.905   2.671  0.2469 -0.6662 -0.6613
64426SOL    HW2  394  12.429   0.835   2.768 -1.9669 -2.3858  0.2927
64427SOL     OW  395   1.520   4.942   0.492 -0.0453 -0.1638  0.2179
64427SOL    HW1  396   1.577   4.966   0.419 -0.7692  0.7854 -0.0470
64427SOL    HW2  397   1.496   4.851   0.475  0.1061 -0.0718 -0.5180
64428SOL     OW  398   5.047   1.032   5.172 -0.6184  0.4067 -0.0599
64428SOL    HW1  399   5.071   1.116   5.133 -0.9795 -0.0756 -1.3783
64428SOL    HW2  400   5.006   0.983   5.100 -0.7197 -0.7709  0.7711
64429SOL     OW  401   5.801  11.498   3.238 -0.2339  0.2228  0.5353
64429SOL    HW1  402   5.869  11.491   3.305 -0.0407 -1.8351  0.2099
64429SOL    HW2  403   5.721  11.468   3.282 -0.4390  0.3891  0.2761
64430SOL     OW  404   1.898   9.518   8.394 -0.6208  0.1369 -0.9163
64430SOL    HW1  405   1.923   9.426   8.402  0.6448  0.5172 -0.1156
64430SOL    HW2  406   1.810   9.516   8.357 -1.2456 -1.4340  0.5279
64431SOL     OW  407   0.865  12.054   0.855 -0.0954  0.2904 -0.3476
64431SOL    HW1  408   0.879  11.981   0.915  1.1182  2.6215  2.3744
64431SOL    HW2  409   0.942  12.109   0.864 -1.6274  2.7264 -1.0826
64432SOL     OW  410   7.568  10.185   0.376 -0.3704 -0.1841  0.1923
64432SOL    HW1  411   7.526  10.165   0.293 -0.3551 -1.6748  0.5158
64432SOL    HW2  412   7.496  10.190   0.439 -0.1951 -1.7204  0.5570
64433SOL     OW  413   9.438  12.786   3.117  0.5247  0.5903  0.5667
64433SOL    HW1  414   9.497  12.755   3.186 -0.1689  2.4286  2.0363
64433SOL    HW2  415   9.353  12.795   3.159 -0.5330 -0.5677 -1.1680
64434SOL     OW  416   6.122   9.187   5.572 -0.3315 -0.6433  0.6649
64434SOL    HW1  417   6.085   9.117   5.519 -0.4174 -0.1147  0.0063
64434SOL    HW2  418   6.216   9.184   5.554 -0.4582  0.0655 -0.1869
64435SOL     OW  419   1.143   4.642   3.754 -0.0811 -0.6123 -0.3309
64435SOL    HW1  420   1.179   4.574   3.698  1.0615  0.1253 -0.5307
64435SOL    HW2  421   1.219   4.681   3.796 -0.8769 -0.9247  1.5013
64436SOL     OW  422  10.425   9.320   2.139 -0.0147 -0.5647 -0.4580
64436SOL    HW1  423  10.416   9.392   2.077  0.3032  0.5838  0.7967
64436SOL    HW2  424  10.347   9.266   2.124 -0.0616 -0.1998 -1.6728
64437SOL     OW  425  11.359   6.429   0.842 -0.4201 -0.3135  0.3063
64437SOL    HW1  426  11.420   6.502   0.850  0.2931 -0.7719 -0.6221
64437SOL    HW2  427  11.387   6.367   0.910 -0.3336 -0.1888  0.3844
64438SOL     OW  428   6.032   3.733   7.411  0.4113 -0.1929 -0.3178
64438SOL    HW1  429   5.991   3.811   7.374 -0.7837 -0.8544 -0.4214
64438SOL    HW2  430   5.980   3.660   7.377  0.7848 -0.9602  0.7168
64439SOL     OW  431   6.039  12.268   7.385  0.2429 -0.2706 -0.3729
64439SOL    HW1  432   5.985  12.208   7.436  0.1097 -1.1448 -1.4842
64439SOL    HW2  433   6.120  12.278   7.435 -0.7017  0.6293  1.0568
64440SOL     OW  434   5.518   6.358  11.133  0.1393 -0.9891  0.3573
64440SOL    HW1  435   5.545   6.330  11.046  1.0527 -0.8178  0.5775
64440SOL    HW2  436   5.532   6.282  11.188  0.3987 -0.8306  0.5144
64441SOL     OW  437   4.731  10.592  10.911 -0.4773  0.1948 -0.3234
64441SOL    HW1  438   4.640  10.560  10.912 -0.3329 -0.2252  0.6955
64441SOL    HW2  439   4.728  10.671  10.965  0.3036 -1.4994  2.4063
64442SOL     OW  440   3.049   4.181  12.526 -0.5438  0.5521  0.7689
64442SOL    HW1  441   3.044   4.249  12.592 -1.2871  0.7635  0.4970
64442SOL    HW2  442   2.958   4.164  12.500 -0.2782  0.4091 -0.1309
64443SOL     OW  443   5.007   4.797   3.708  0.5822  0.0915  0.0270
64443SOL    HW1  444   4.937   4.731   3.709  1.8371 -1.2917  0.5619
64443SOL    HW2  445   5.067   4.767   3.640  0.8760  1.0283 -0.1288
64444SOL     OW  446   9.288   1.152  11.712  0.8047 -0.0606  0.6010
64444SOL    HW1  447   9.234   1.217  11.758  0.9595  0.4959  0.0167
64444SOL    HW2  448   9.291   1.077  11.771  0.7171  0.5075  1.3493
64445SOL     OW  449   5.147   6.931   6.083 -0.1930 -0.5729  0.0879
64445SOL    HW1  450   5.094   6.902   6.157 -1.4370  0.4175 -0.3680
64445SOL    HW2  451   5.206   6.858   6.065 -0.6083 -1.2434  1.3641
64446SOL     OW  452   6.590   0.848   5.120  0.6419 -0.4117 -0.0836
64446SOL    HW1  453   6.665   0.908   5.127 -0.4133  0.7272  2.1385
64446SOL    HW2  454   6.546   0.855   5.204 -1.1230 -2.2251 -0.8076
64447SOL     OW  455   7.315   4.970  10.460  0.0872  0.4294  0.1016
64447SOL    HW1  456   7.350   4.957  10.372  0.3367  0.2656  0.2261
64447SOL    HW2  457   7.299   5.064  10.466 -2.6198  0.1652 -1.1531
64448SOL     OW  458   4.366   6.816  10.856 -0.2066 -0.2029  0.0636
64448SOL    HW1  459   4.327   6.761  10.788 -0.0612  0.8637 -0.9337
64448SOL    HW2  460   4.291   6.852  10.903 -0.4039  0.6069 -0.8340
64449SOL     OW  461  11.344  12.867  11.357  0.1450 -0.1709 -0.3481
64449SOL    HW1  462  11.389  12.823  11.285 -0.4030 -0.3828 -0.5619
64449SOL    HW2  463  11.259  12.892  11.321  0.1437  0.3547  0.0130
64450SOL     OW  464  12.127   1.876  10.697 -0.1735 -0.3258 -0.5604
64450SOL    HW1  465  12.212   1.833  10.713  0.9082  0.6434 -3.1269
64450SOL    HW2  466  12.082   1.817  10.636 -0.2946  0.3455 -1.1262
64451SOL     OW  467   5.746   2.068   7.004  0.4000 -0.2435 -0.3114
64451SOL    HW1  468   5.726   2.069   7.098 -0.8780  0.3753 -0.5697
64451SOL    HW2  469   5.674   2.019   6.965  1.0656 -0.7384 -0.9625
64452SOL     OW  470   0.400   8.529  12.362 -0.1721 -0.2191 -0.0884
64452SOL    HW1  471   0.454   8.465  12.315 -0.3975 -0.3238 -0.2088
64452SOL    HW2  472   0.427   8.521  12.453  0.5147  0.2351 -0.2495
64453SOL     OW  473   3.470   6.540   6.363 -0.1865  0.8135 -0.5492
64453SOL    HW1  474   3.542   6.477   6.363 -1.2394 -0.4229 -0.6854
64453SOL    HW2  475   3.419   6.518   6.441  0.0044  2.2049 -0.0066
64454SOL     OW  476  11.145   7.645  12.711  0.1650 -0.8222 -0.2845
64454SOL    HW1  477  11.051   7.663  12.720  0.1793 -0.5299 -0.6669
64454SOL    HW2  478  11.172   7.697  12.635  0.1143 -2.8303 -1.7584
64455SOL     OW  479  10.248   4.737   3.289  0.1420  0.2231 -0.2979
64455SOL    HW1  480  10.267   4.645   3.271 -2.0048 -0.3057 -0.0883
64455SOL    HW2  481  10.252   4.779   3.203 -1.2639 -0.5626 -0.7753
64456SOL     OW  482   2.524   0.063   3.133  0.1969  0.1310 -0.3178
64456SOL    HW1  483   2.550   0.123   3.204  0.2776 -0.8810  0.5267
64456SOL    HW2  484   2.591  -0.005   3.134  0.3368  0.2212 -1.5467
64457SOL     OW  485   4.929   7.146   3.338  0.1148 -0.9081  0.5242
64457SOL    HW1  486   4.943   7.080   3.270 -1.7728 -1.7832  0.9333
64457SOL    HW2  487   4.865   7.107   3.398  0.2348  0.6212  1.7307
64458SOL     OW  488   4.570   0.825  10.935 -0.6880  0.0219 -0.0610
64458SOL    HW1  489   4.624   0.770  10.879 -0.1767 -0.3388  0.7675
64458SOL    HW2  490   4.628   0.896  10.963 -1.7698  1.9555 -2.4086
64459SOL     OW  491   8.050   5.975   7.041 -0.0148  0.5495 -0.7664
64459SOL    HW1  492   8.134   6.007   7.075  0.0447  1.5290 -1.7817
64459SOL    HW2  493   7.989   6.046   7.058 -0.9178 -0.5786  0.9416
64460SOL     OW  494   5.375   6.589   9.200 -0.1161 -0.0332  0.0798
64460SOL    HW1  495   5.413   6.626   9.121 -1.1318  0.0703 -0.3746
64460SOL    HW2  496   5.286   6.564   9.174 -0.4001 -0.1561  1.1432
64461SOL     OW  497   0.172   9.840   7.989 -0.4538 -0.5900  0.2346
64461SOL    HW1  498   0.091   9.869   7.947 -1.1075 -0.6095  1.4261
64461SOL    HW2  499   0.190   9.908   8.054 -0.6504 -1.5945  1.3748
64462SOL     OW  500   1.879   0.656   4.003  0.2027 -0.0506 -0.0678
64462SOL    HW1  501   1.806   0.648   4.065  0.7227 -1.0619  0.4231
64462SOL    HW2  502   1.850   0.723   3.941  0.0111  1.6268  1.7431
64463SOL     OW  503   4.780   2.296   2.304  0.3190  0.0178 -0.0354
64463SOL    HW1  504   4.736   2.211   2.306  0.0535  0.1599  1.8912
64463SOL    HW2  505   4.854   2.284   2.244 -0.1189 -1.3577 -0.3219
64464SOL     OW  506   7.556   8.176   2.526 -0.0601 -0.7143 -0.6699
64464SOL    HW1  507   7.643   8.146   2.498  0.3296 -0.7775  0.5818
64464SOL    HW2  508   7.572   8.257   2.573 -0.7223 -0.5549 -0.7088
64465SOL     OW  509   8.671   5.658   7.332 -0.0494 -0.1825 -0.7115
64465SOL    HW1  510   8.745   5.598   7.319  2.0074  2.1668 -0.6546
64465SOL    HW2  511   8.668   5.671   7.427  0.5659  0.9477 -0.8276
64466SOL     OW  512   7.371  12.459   4.909  0.2225 -0.2506  0.1903
64466SOL    HW1  513   7.321  12.405   4.848 -1.7337  0.1116  1.3791
64466SOL    HW2  514   7.362  12.414   4.993 -1.8979  2.0655  1.3338
64467SOL     OW  515  10.455   3.323   2.962 -0.2321  0.5874 -0.3132
64467SOL    HW1  516  10.364   3.324   2.991 -0.2372 -2.9332  0.1495
64467SOL    HW2  517  10.450   3.330   2.866 -0.9857  0.4813 -0.2868
64468SOL     OW  518   9.496   9.333   8.215 -0.4007  0.2568  0.5014
64468SOL    HW1  519   9.586   9.331   8.246 -0.6584 -4.0061  1.6190
64468SOL    HW2  520   9.497   9.280   8.135 -1.7881  0.7964  0.0999
64469SOL     OW  521   9.146   6.528   7.390 -0.1164  0.5775 -0.6969
64469SOL    HW1  522   9.223   6.526   7.447  0.4911  0.8284 -1.4845
64469SOL    HW2  523   9.137   6.438   7.359 -0.3547  0.4741 -0.3366
64470SOL     OW  524   2.635   3.067   0.664  0.4108  0.0428 -0.3986
64470SOL    HW1  525   2.586   3.104   0.737  0.4940  0.4952 -0.5690
64470SOL    HW2  526   2.643   2.974   0.686  0.2478  0.1311  0.0598
64471SOL     OW  527   0.850   7.024   8.100  0.0551  0.1123  0.1114
64471SOL    HW1  528   0.939   6.990   8.103 -0.5675 -1.9950 -2.1432
64471SOL    HW2  529   0.839   7.054   8.009 -1.4675  0.5801  0.4194
64472SOL     OW  530   2.252   2.332  10.947 -0.0950  0.0506  0.2138
64472SOL    HW1  531   2.240   2.258  10.887 -1.6058 -0.3911  0.9922
64472SOL    HW2  532   2.166   2.343  10.988  1.3130 -1.1126  3.9141
64473SOL     OW  533   9.868   4.320   7.157  0.0614 -0.9075 -0.2386
64473SOL    HW1  534   9.782   4.329   7.197 -0.0901 -1.7728 -0.3603
64473SOL    HW2  535   9.895   4.410   7.137 -0.7683 -0.6290 -0.1209
64474SOL     OW  536   3.529  12.567   8.596  0.1139 -0.3600 -0.2495
64474SOL    HW1  537   3.600  12.522   8.641  0.7459 -0.6692 -1.4968
64474SOL    HW2  538   3.464  12.499   8.580  0.9399 -0.8210 -1.8728
64475SOL     OW  539   7.464  10.039   8.103 -0.0164  0.2664 -0.4144
64475SOL    HW1  540   7.416  10.003   8.028  0.7722  1.2620 -1.4312
64475SOL    HW2  541   7.527   9.971   8.126  0.3151  0.2933 -1.2162
64476SOL     OW  542   9.160   9.860   7.813  0.1431 -0.0875 -0.1218
64476SOL    HW1  543   9.182   9.919   7.742 -0.2559  0.4947  0.2336
64476SOL    HW2  544   9.072   9.829   7.791  0.3396 -0.5351 -0.2937
64477SOL     OW  545   5.180   2.185   3.923 -0.0096  0.8718 -0.0997
64477SOL    HW1  546   5.109   2.123   3.913  1.1110 -0.1628 -2.3163
64477SOL    HW2  547   5.137   2.271   3.922 -1.5094  0.2440  2.3953
64478SOL     OW  548   9.070  12.710   0.156 -0.4039 -0.4066  0.8443
64478SOL    HW1  549   9.108  12.786   0.200  0.8490 -1.2074  1.2021
64478SOL    HW2  550   9.050  12.740   0.067  4.0606 -0.6950 -0.4704
64479SOL     OW  551  11.572   6.479  11.294 -0.1273  0.1081 -0.1382
64479SOL    HW1  552  11.596   6.484  11.387 -0.5122 -1.6588  0.0888
64479SOL    HW2  553  11.622   6.405  11.260 -1.2512 -0.3168 -0.9313
64480SOL     OW  554   8.414   4.112  12.517  0.2335 -0.1061  0.0893
64480SOL    HW1  555   8.393   4.073  12.433 -0.0067  0.7616 -0.2711
64480SOL    HW2  556   8.428   4.038  12.576  3.0954 -0.8229 -1.3137
64481SOL     OW  557  10.136  12.216   9.493  0.1362  0.1861 -0.1417
64481SOL    HW1  558  10.048  12.238   9.462  0.5284  1.6584 -0.3085
64481SOL    HW2  559  10.140  12.253   9.582  0.0481 -1.3126  0.5051
64482SOL     OW  560   4.529   6.197   8.548  0.4199 -0.7344 -0.0976
64482SOL    HW1  561   4.604   6.257   8.556  0.6040 -1.0900  1.0709
64482SOL    HW2  562   4.497   6.211   8.459  2.1884 -0.9378 -0.8167
64483SOL     OW  563   6.254   6.072   1.283  0.3700  0.4824 -0.2521
64483SOL    HW1  564   6.234   6.004   1.218  5.3194  0.5564 -2.2989
64483SOL    HW2  565   6.295   6.142   1.232 -1.7458  3.8099  2.2109
64484SOL     OW  566   6.274   0.855   8.889  0.2512 -0.0333 -0.1788
64484SOL    HW1  567   6.289   0.833   8.797 -0.2539  0.4660 -0.3853
64484SOL    HW2  568   6.186   0.893   8.891 -0.1927 -1.0442  0.6871
64485SOL     OW  569   4.266   5.004   9.559 -0.1236 -0.1688  0.2283
64485SOL    HW1  570   4.192   5.053   9.523  0.5453  0.7861  0.1068
64485SOL    HW2  571   4.330   5.071   9.580  1.3209 -1.0672 -1.0810
64486SOL     OW  572   3.755   9.267   8.086  0.0331  0.3057 -0.3326
64486SOL    HW1  573   3.741   9.176   8.058 -1.4898  0.0247  1.1530
64486SOL    HW2  574   3.750   9.318   8.005 -2.2896 -0.6575 -0.8907
64487SOL     OW  575   0.705   3.309   3.193  0.2123 -0.1443 -0.2599
64487SOL    HW1  576   0.659   3.309   3.277 -0.3000  0.8738 -0.5222
64487SOL    HW2  577   0.766   3.382   3.198  1.7118 -1.3843  0.0143
64488SOL     OW  578  12.793   0.693  11.858 -0.9321  0.1136 -0.4416
64488SOL    HW1  579  12.728   0.719  11.923 -0.6619 -0.2369 -0.0207
64488SOL    HW2  580  12.744   0.640  11.795 -1.4270  1.3860 -1.1567
64489SOL     OW  581   9.452   9.559  11.583  0.6896 -0.4566 -0.0439
64489SOL    HW1  582   9.445   9.502  11.506  1.7453 -1.6084  0.6646
64489SOL    HW2  583   9.368   9.604  11.587 -0.0180 -1.6370 -0.9045
64490SOL     OW  584  10.251   3.854   1.571 -0.4544  0.2201  0.6700
64490SOL    HW1  585  10.308   3.830   1.644 -0.0494  1.1684  0.6937
64490SOL    HW2  586  10.291   3.934   1.536 -0.1108 -0.6820 -1.1610
64491SOL     OW  587   6.423   8.636  12.960  0.3112 -0.8466  0.3535
64491SOL    HW1  588   6.390   8.547  12.947 -0.4651 -0.6432  0.8689
64491SOL    HW2  589   6.489   8.628  13.029  2.4526 -1.4870 -1.6227
64492SOL     OW  590   1.078   5.394   3.288 -0.2971 -0.2256 -0.0487
64492SOL    HW1  591   1.140   5.423   3.221  1.3015  1.1966  1.9164
64492SOL    HW2  592   1.133   5.351   3.354 -0.9216  3.0710  2.8958
64493SOL     OW  593  11.886   5.655  12.253  0.2455 -0.5001  0.3853
64493SOL    HW1  594  11.896   5.724  12.319 -0.2123 -1.1488  1.1364
64493SOL    HW2  595  11.847   5.700  12.178 -0.8607 -0.1035  1.1783
64494SOL     OW  596   0.776   0.273   6.460 -0.1021  0.1489  0.1189
64494SOL    HW1  597   0.851   0.247   6.406 -1.1793 -1.2459 -0.7760
64494SOL    HW2  598   0.814   0.298   6.544  1.4417  0.4441 -0.6313
64495SOL     OW  599   4.583   2.694   1.040 -0.2531  0.0945  0.3659
64495SOL    HW1  600   4.529   2.653   0.973 -0.0121 -0.0670  0.2703
64495SOL    HW2  601   4.536   2.678   1.122 -1.0548  1.1482  0.1257
64496SOL     OW  602   7.879  11.905   9.330 -0.2829 -0.2245 -0.0623
64496SOL    HW1  603   7.846  11.906   9.240  1.2362 -1.7525 -0.6915
64496SOL    HW2  604   7.888  11.812   9.351  0.1297  0.1238  1.3923
64497SOL     OW  605   7.402   7.571   8.143 -0.1412 -0.1623 -0.3347
64497SOL    HW1  606   7.446   7.492   8.111 -1.8058 -1.5113  0.5329
64497SOL    HW2  607   7.386   7.623   8.064  0.2187 -1.0989 -1.0476
64498SOL     OW  608  10.686   0.992   4.060 -0.2291 -0.0606  0.0066
64498SOL    HW1  609  10.678   1.086   4.081 -0.5770  0.5130 -2.4075
64498SOL    HW2  610  10.661   0.986   3.968 -0.7238 -2.6386  0.2419
64499SOL     OW  611   1.368   3.433   5.539  0.0416  0.0048  0.2729
64499SOL    HW1  612   1.283   3.421   5.582 -0.2606 -0.6571 -0.4862
64499SOL    HW2  613   1.380   3.354   5.487  3.0293 -1.8669  3.4571
64500SOL     OW  614   2.500   9.029   5.584  0.3810  0.7208  0.2883
64500SOL    HW1  615   2.499   9.111   5.634  1.2376  1.1932 -0.4172
64500SOL    HW2  616   2.528   9.056   5.496  1.4545 -0.4300  0.2500
64501SOL     OW  617   2.052   9.943   2.790 -0.1322 -0.2982 -0.0316
64501SOL    HW1  618   2.093   9.878   2.733 -0.1870 -0.0856 -0.3198
64501SOL    HW2  619   2.055  10.024   2.739  0.7362  0.1210  0.6721
64502SOL     OW  620   6.974   3.915   6.953  0.5858 -0.3728 -0.3701
64502SOL    HW1  621   6.960   4.009   6.942  1.9032 -0.2273 -1.0074
64502SOL    HW2  622   6.906   3.887   7.014  0.0634  0.9613 -0.3205
64503SOL     OW  623   1.453   4.721   8.996  0.0169 -0.1120  0.1426
64503SOL    HW1  624   1.361   4.735   9.018  0.3324  0.0575  1.4206
64503SOL    HW2  625   1.491   4.682   9.075  1.5941  2.1109  0.5927
64504SOL     OW  626   2.167   8.857   0.915  0.0023  0.0631  0.2361
64504SOL    HW1  627   2.204   8.928   0.863 -2.1078 -0.4340 -2.1210
64504SOL    HW2  628   2.108   8.899   0.977  0.3471  0.4710  0.2897
64505SOL     OW  629  11.126   8.833  11.210  0.1127 -0.4237 -0.2986
64505SOL    HW1  630  11.207   8.787  11.235  0.6458  0.1404 -0.9357
64505SOL    HW2  631  11.057   8.788  11.257  0.7180 -1.3894 -0.3136
64506SOL     OW  632   0.551   6.449   3.565  0.2631  0.0675 -0.1255
64506SOL    HW1  633   0.548   6.392   3.641 -0.2052 -0.2187 -0.3519
64506SOL    HW2  634   0.627   6.505   3.579 -0.4768  0.8200  1.1216
64507SOL     OW  635   7.528  11.741   1.332 -0.1396  0.3886 -0.0242
64507SOL    HW1  636   7.602  11.721   1.390 -1.3918 -1.3558  1.0843
64507SOL    HW2  637   7.538  11.834   1.312  0.9643  0.8111  2.1378
64508SOL     OW  638   5.436   4.527   5.330 -0.3045  0.2774 -0.3955
64508SOL    HW1  639   5.364   4.464   5.325 -1.2039  1.3551 -3.5131
64508SOL    HW2  640   5.432   4.575   5.247  2.4471  2.1501  0.3979
64509SOL     OW  641   6.995  11.854   1.631 -0.6164  0.3164 -0.3518
64509SOL    HW1  642   7.027  11.862   1.541  1.6075 -2.9757 -0.0523
64509SOL    HW2  643   6.902  11.833   1.622 -1.0195  2.3462 -1.6790
64510SOL     OW  644   4.666  11.846   2.459 -0.2857  0.2037  0.2324
64510SOL    HW1  645   4.670  11.751   2.471  0.0078  0.0459 -0.9759
64510SOL    HW2  646   4.573  11.866   2.456 -0.4556 -0.5249 -2.6021
64511SOL     OW  647   8.326  12.872   8.290  0.1513 -0.3985  0.1787
64511SOL    HW1  648   8.321  12.939   8.222 -0.4976  0.4691  1.0745
64511SOL    HW2  649   8.245  12.881   8.340  0.5684 -1.0960  1.0097
64512SOL     OW  650   9.406   2.115   7.315 -0.3379  0.0731  0.1575
64512SOL    HW1  651   9.338   2.180   7.295 -0.4567  0.1526  0.7891
64512SOL    HW2  652   9.465   2.160   7.376 -0.1830 -0.2685  0.2634
64513SOL     OW  653   4.520   8.608   1.981  0.2326  0.2998 -0.1904
64513SOL    HW1  654   4.501   8.699   1.956  1.5271  0.8072  0.5519
64513SOL    HW2  655   4.536   8.563   1.898 -1.3277  0.5015 -0.6318
64514SOL     OW  656   6.443   4.719   9.543  0.0323  0.0854  0.5508
64514SOL    HW1  657   6.496   4.667   9.603 -1.2959 -1.5041  0.4242
64514SOL    HW2  658   6.376   4.760   9.599 -0.5369 -0.5178  0.3330
64515SOL     OW  659   8.726  10.253   4.123 -0.3961  0.0993  0.4708
64515SOL    HW1  660   8.782  10.300   4.185 -0.1582 -0.6101  0.8063
64515SOL    HW2  661   8.763  10.275   4.037  0.4444 -0.3898  0.6895
64516SOL     OW  662   7.591   9.307   2.694 -0.0686 -0.2029  0.0754
64516SOL    HW1  663   7.531   9.232   2.696 -0.5864  0.0954 -1.9467
64516SOL    HW2  664   7.641   9.296   2.613  0.0630  1.4624 -0.1050
64517SOL     OW  665   2.175   1.263   5.991  0.3425  0.3290  0.7572
64517SOL    HW1  666   2.171   1.267   5.895  0.3662  0.2142  0.7510
64517SOL    HW2  667   2.088   1.289   6.019  0.9272  2.4200  0.7747
64518SOL     OW  668   4.215   2.635   8.602  0.7333 -0.0189 -0.2656
64518SOL    HW1  669   4.142   2.638   8.663 -0.7011 -1.5677 -1.7861
64518SOL    HW2  670   4.267   2.559   8.629  1.0327  0.2769  0.0003
64519SOL     OW  671   5.481   0.595   2.551  0.2058  0.0010  0.3443
64519SOL    HW1  672   5.396   0.564   2.584 -1.1711  2.2849 -0.8088
64519SOL    HW2  673   5.459   0.658   2.482  2.8770  0.1678 -0.4804
64520SOL     OW  674   1.225   1.117   2.566 -0.1180 -0.0402 -0.3878
64520SOL    HW1  675   1.274   1.134   2.486 -0.9323 -0.1016 -0.9200
64520SOL    HW2  676   1.290   1.085   2.629  0.7672  1.2731 -0.5899
64521SOL     OW  677   4.503   8.896   7.484  0.1621 -0.1095 -0.3852
64521SOL    HW1  678   4.490   8.960   7.414  0.8502 -1.5660 -1.9247
64521SOL    HW2  679   4.562   8.831   7.446 -1.8763 -2.6145  0.4102
64522SOL     OW  680   2.668   7.915   0.580 -0.3183  0.4591 -0.2800
64522SOL    HW1  681   2.583   7.953   0.605 -0.1237  0.0476  1.1169
64522SOL    HW2  682   2.685   7.850   0.648  2.2240  2.1957  0.9145
64523SOL     OW  683  12.707   9.293   0.679 -0.0974 -0.4465  0.3407
64523SOL    HW1  684  12.625   9.247   0.661  0.4328 -0.6372 -1.9093
64523SOL    HW2  685  12.775   9.229   0.657  0.7713 -0.8244  3.5607
64524SOL     OW  686  11.515   4.686   0.552  0.2123 -0.3358 -0.3008
64524SOL    HW1  687  11.505   4.686   0.647  1.1220 -0.2275 -0.1991
64524SOL    HW2  688  11.483   4.772   0.525  0.9106  0.0330  0.0211
64525SOL     OW  689   8.515   7.446   9.301 -0.2020  0.2432 -0.2984
64525SOL    HW1  690   8.506   7.469   9.394 -2.2385  0.7192 -0.5730
64525SOL    HW2  691   8.530   7.530   9.257  1.0225 -0.0105 -0.4053
64526SOL     OW  692   7.516  11.136  12.925 -0.1025  0.7336  0.3220
64526SOL    HW1  693   7.591  11.117  12.982  0.6973  1.2154 -0.5577
64526SOL    HW2  694   7.500  11.054  12.878 -1.1290  0.1497  1.5991
64527SOL     OW  695   7.129   4.839   3.165  0.0250 -0.5830  0.1462
64527SOL    HW1  696   7.072   4.819   3.090 -0.1758  0.0084  0.1376
64527SOL    HW2  697   7.080   4.811   3.241 -0.3071 -0.0188  0.1425
64528SOL     OW  698  10.964   7.054   2.459 -0.1557 -0.1487 -0.1144
64528SOL    HW1  699  11.035   6.993   2.482  1.3258  2.2672  2.2632
64528SOL    HW2  700  11.009   7.131   2.424 -1.6921  1.0696  0.4939
64529SOL     OW  701   1.113   8.651  12.471 -0.4055 -0.0003  0.4388
64529SOL    HW1  702   1.044   8.591  12.500  0.9010 -1.9493 -0.2394
64529SOL    HW2  703   1.174   8.654  12.545 -0.0235 -0.2545  0.1390
64530SOL     OW  704  10.760   8.873   3.095  0.2232  0.1745 -0.1609
64530SOL    HW1  705  10.731   8.797   3.146  0.2775  1.2952  1.6309
64530SOL    HW2  706  10.852   8.883   3.117 -0.4807  2.5350  2.0991
64531SOL     OW  707   8.688   5.563   4.694 -0.0543  0.2693  0.6921
64531SOL    HW1  708   8.713   5.616   4.618 -1.7927 -0.2261 -0.2749
64531SOL    HW2  709   8.720   5.614   4.769  0.1004  1.6890 -0.2836
64532SOL     OW  710   4.934   7.344   6.790 -0.1107 -0.2230 -0.3345
64532SOL    HW1  711   4.919   7.250   6.789  1.3689 -0.5183 -2.8224
64532SOL    HW2  712   4.857   7.382   6.748  0.1627 -0.5244 -1.1214
64533SOL     OW  713  10.639   5.143   0.791 -0.4262  0.5867 -0.4559
64533SOL    HW1  714  10.685   5.072   0.836 -1.2390  0.8129  0.7661
64533SOL    HW2  715  10.667   5.135   0.699  1.6784  0.4332  0.1386
64534SOL     OW  716   8.300  11.927   4.735 -0.0574  0.2051  0.1424
64534SOL    HW1  717   8.373  11.880   4.776  1.3197  0.2914 -2.0597
64534SOL    HW2  718   8.311  12.017   4.764  0.0927  0.0305  0.6431
64535SOL     OW  719  12.379   9.522   9.843  0.0689  0.0016  0.0068
64535SOL    HW1  720  12.435   9.590   9.805 -2.0010  1.0267 -1.3958
64535SOL    HW2  721  12.307   9.513   9.781 -1.2980 -1.3090  1.6866
64536SOL     OW  722  10.922   3.029   5.100  0.0738  0.0979 -0.0042
64536SOL    HW1  723  10.828   3.047   5.094  0.2244  0.8068 -0.4484
64536SOL    HW2  724  10.954   3.088   5.167  0.5904  1.6565 -1.5363
64537SOL     OW  725   5.699   8.924  12.687 -0.0880 -0.5398 -0.0640
64537SOL    HW1  726   5.612   8.897  12.715  0.4225 -1.9337  0.2653
64537SOL    HW2  727   5.698   9.019  12.692 -1.7026 -0.5249 -0.4309
64538SOL     OW  728   1.851   1.838   7.916 -0.3751 -0.1975 -0.2912
64538SOL    HW1  729   1.829   1.813   8.005 -1.4302 -2.7407 -1.1637
64538SOL    HW2  730   1.806   1.921   7.902  0.9422  0.9935  1.9055
64539SOL     OW  731   6.950   9.114  10.255  0.2520  0.1209  0.1491
64539SOL    HW1  732   6.967   9.111  10.161  0.0139 -1.9806  0.1137
64539SOL    HW2  733   6.859   9.140  10.263  0.3368  0.5197 -0.1905
64540SOL     OW  734   9.120  12.156   1.091 -0.0076 -0.3681 -0.2557
64540SOL    HW1  735   9.163  12.117   1.015  0.3222  0.6577 -0.6123
64540SOL    HW2  736   9.034  12.181   1.059  0.5966  1.2632 -0.6828
64541SOL     OW  737   9.524  10.368   8.925 -0.0666  0.3828 -0.4583
64541SOL    HW1  738   9.503  10.310   8.852 -0.0555 -0.9704  0.5578
64541SOL    HW2  739   9.451  10.429   8.930 -0.8566 -0.5273 -0.6230
64542SOL     OW  740   9.978   5.722  12.567  0.1735 -0.1995  0.4550
64542SOL    HW1  741   9.945   5.632  12.568 -0.2128 -0.0760  2.2588
64542SOL    HW2  742   9.933   5.765  12.640  0.5462  1.4010 -0.2017
64543SOL     OW  743   4.516   3.798   0.206 -0.3798  0.4925 -0.2447
64543SOL    HW1  744   4.464   3.724   0.175  0.5138 -0.1810 -0.1795
64543SOL    HW2  745   4.602   3.785   0.165 -0.0406  1.1650  0.2376
64544SOL     OW  746   2.511   0.083  12.942  0.5189 -0.3481  0.0213
64544SOL    HW1  747   2.555   0.161  12.908 -0.1582 -0.4333 -1.1003
64544SOL    HW2  748   2.433   0.117  12.987  0.7908 -0.3173  0.4788
64545SOL     OW  749   3.289  10.653  10.357  0.1970 -0.2244  0.3627
64545SOL    HW1  750   3.202  10.689  10.369  0.8739  2.0291 -0.9429
64545SOL    HW2  751   3.348  10.718  10.395  1.3920 -0.9331 -0.2059
64546SOL     OW  752  10.621   6.324   4.187  0.1821  0.6519 -0.1891
64546SOL    HW1  753  10.528   6.320   4.208 -0.2243 -0.3074 -1.9499
64546SOL    HW2  754  10.626   6.379   4.108  0.8118 -0.9421 -1.3265
64547SOL     OW  755  10.541   3.277   4.881  0.2150  0.0185  0.8232
64547SOL    HW1  756  10.533   3.216   4.955 -0.6577 -0.5223  0.2965
64547SOL    HW2  757  10.540   3.221   4.803  0.8108  0.6081  0.3754
64548SOL     OW  758  12.161  10.426   5.106 -0.6939  0.0529 -0.2446
64548SOL    HW1  759  12.132  10.499   5.051  0.7863 -0.6801 -2.0898
64548SOL    HW2  760  12.244  10.456   5.143 -0.4665 -0.3967 -0.3903
64549SOL     OW  761   8.505   2.373   3.507 -0.1466 -0.4759 -0.5345
64549SOL    HW1  762   8.562   2.302   3.537 -0.3613  0.2756  1.8764
64549SOL    HW2  763   8.437   2.379   3.574 -1.6759  0.2774 -2.0783
64550SOL     OW  764  11.438  12.537  11.762  0.1820 -0.4372 -0.0831
64550SOL    HW1  765  11.509  12.528  11.825 -0.6973 -0.4481  0.9246
64550SOL    HW2  766  11.413  12.629  11.767 -0.7733 -0.7270  0.5600
64551SOL     OW  767   6.041   3.115  11.702  0.3201  0.5049 -0.1522
64551SOL    HW1  768   5.951   3.102  11.730  0.4827  0.6014  0.4347
64551SOL    HW2  769   6.034   3.155  11.615 -0.1945 -0.3680 -0.5289
64552SOL     OW  770   2.614   0.401   5.304 -0.4580  0.2918 -0.1134
64552SOL    HW1  771   2.574   0.485   5.280  1.7856  1.4547 -0.0852
64552SOL    HW2  772   2.705   0.423   5.324  0.7785 -2.4234 -2.0847
64553SOL     OW  773   5.464  12.153   5.023  0.2711 -0.1806  0.3638
64553SOL    HW1  774   5.426  12.227   5.070  0.7971  0.5409 -0.3250
64553SOL    HW2  775   5.391  12.094   5.008  0.2918 -1.1527  3.3244
64554SOL     OW  776  12.792   5.859  12.244  0.3916  0.7312  0.0380
64554SOL    HW1  777  12.723   5.925  12.234  0.5153  0.7597 -0.6868
64554SOL    HW2  778  12.747   5.784  12.283 -0.4507  0.1453 -1.9052
64555SOL     OW  779   6.803   8.754  12.692 -0.4818 -0.3165 -0.1782
64555SOL    HW1  780   6.816   8.700  12.614 -0.4351 -1.2008  0.4232
64555SOL    HW2  781   6.887   8.797  12.705 -0.5243 -0.0720 -0.6779
64556SOL     OW  782   4.859  12.406   0.245  0.2554 -0.1163 -1.0730
64556SOL    HW1  783   4.903  12.424   0.328 -0.5028 -1.1749 -0.3947
64556SOL    HW2  784   4.900  12.326   0.213 -1.0151 -1.0463 -0.4944
64557SOL     OW  785   6.823   7.834  12.459 -0.1084 -0.4464 -0.0607
64557SOL    HW1  786   6.750   7.894  12.474  1.8212  1.9697  0.2725
64557SOL    HW2  787   6.873   7.837  12.540  0.9688 -1.1886 -0.6751
64558SOL     OW  788   4.172   3.233   0.415  0.0118 -0.4175  0.1361
64558SOL    HW1  789   4.093   3.279   0.444 -0.0862 -0.0812 -0.6336
64558SOL    HW2  790   4.140   3.165   0.356  0.1417 -1.6382  1.4309
64559SOL     OW  791   3.124   7.114   8.791 -0.4977 -0.1199  0.9328
64559SOL    HW1  792   3.155   7.049   8.727 -0.9436  1.8312 -1.4175
64559SOL    HW2  793   3.030   7.119   8.776 -0.2613  2.1787 -0.1175
64560SOL     OW  794   2.963   5.646   7.162  0.3016  0.4377 -1.0235
64560SOL    HW1  795   2.942   5.731   7.123 -0.7988  0.5042 -0.3494
64560SOL    HW2  796   2.945   5.657   7.255 -0.1723 -0.6162 -0.9689
64561SOL     OW  797   6.061   6.118   5.365  0.3952  0.2263 -0.0410
64561SOL    HW1  798   6.089   6.044   5.312 -0.3320  1.5775 -2.4763
64561SOL    HW2  799   6.128   6.126   5.433  1.9018 -1.0493 -1.3019
64562SOL     OW  800  10.872   1.933   9.417 -0.2617  0.1452  0.1034
64562SOL    HW1  801  10.926   1.926   9.496 -1.0185 -0.4473  0.5873
64562SOL    HW2  802  10.806   1.865   9.428  0.1729 -0.5779 -1.4846
64563SOL     OW  803   1.326   1.322   6.343 -0.2065 -0.1606  0.3361
64563SOL    HW1  804   1.387   1.387   6.307  0.0703  0.2781  1.5402
64563SOL    HW2  805   1.369   1.238   6.329 -0.2724 -0.0358 -0.6646
64564SOL     OW  806   5.580   7.734   1.576  0.0372  0.0954 -0.1728
64564SOL    HW1  807   5.658   7.786   1.596  0.9020 -1.4734  0.8048
64564SOL    HW2  808   5.607   7.675   1.506 -0.8940  0.8430 -1.1939
64565SOL     OW  809   6.858   9.612   1.223 -0.4745  0.2758 -0.7677
64565SOL    HW1  810   6.775   9.636   1.265 -0.8314  0.2358 -1.4492
64565SOL    HW2  811   6.884   9.690   1.175  0.0625  0.4008 -0.2878
64566SOL     OW  812   9.292   7.286   5.688 -0.0940  0.2841 -0.5213
64566SOL    HW1  813   9.258   7.283   5.599  0.4093 -1.5200 -0.7019
64566SOL    HW2  814   9.221   7.251   5.743 -0.6067  1.8974 -0.1110
64567SOL     OW  815  12.061   6.293  11.717  0.2246 -0.1561 -0.0743
64567SOL    HW1  816  12.102   6.239  11.784  1.7930  0.9848 -0.0744
64567SOL    HW2  817  12.099   6.262  11.634  0.8071  0.6239 -0.1128
64568SOL     OW  818   8.471   5.114  11.469  0.1228 -0.4484  0.2544
64568SOL    HW1  819   8.478   5.209  11.474  0.3849 -0.3521 -1.2387
64568SOL    HW2  820   8.377   5.097  11.467  0.0515 -0.0768 -0.9094
64569SOL     OW  821   4.817   6.063   7.995 -0.7240 -0.3073  0.0927
64569SOL    HW1  822   4.907   6.050   7.963 -0.5123  0.3029  0.4470
64569SOL    HW2  823   4.827   6.103   8.081 -1.3004 -1.8175  0.9007
64570SOL     OW  824   1.150   3.656   9.600 -0.0866  0.7653  0.6749
64570SOL    HW1  825   1.165   3.677   9.508 -3.8702  2.0872  0.1888
64570SOL    HW2  826   1.219   3.703   9.647  0.8893  1.4708 -1.3627
64571SOL     OW  827   7.348   4.521  10.451 -0.2058  0.4939  0.1154
64571SOL    HW1  828   7.427   4.574  10.460  0.7439 -1.1486  2.6531
64571SOL    HW2  829   7.297   4.541  10.530 -1.2917 -0.0883 -0.4211
64572SOL     OW  830   4.463  12.405   3.338  0.1324 -0.0023 -0.4038
64572SOL    HW1  831   4.533  12.459   3.301  0.2179 -0.1212 -0.4140
64572SOL    HW2  832   4.386  12.428   3.287 -0.1830  1.2563  0.5787
64573SOL     OW  833   9.810   7.445   3.720  1.0552  0.7153  0.4117
64573SOL    HW1  834   9.822   7.382   3.791  0.1579  0.5872  0.4614
64573SOL    HW2  835   9.751   7.401   3.658  3.3263  0.0359 -1.4097
64574SOL     OW  836   1.380   4.740   1.004  0.3547 -0.2517  0.1755
64574SOL    HW1  837   1.309   4.698   0.955  1.3496 -1.2377 -0.4858
64574SOL    HW2  838   1.408   4.674   1.067  0.5864  0.1834  0.5366
64575SOL     OW  839  10.695   5.710   1.059 -0.2634  0.0696  0.4740
64575SOL    HW1  840  10.624   5.750   1.008 -1.6991 -1.0825  1.4505
64575SOL    HW2  841  10.740   5.653   0.997 -0.7666  0.1351  0.0364
64576SOL     OW  842   9.478   1.767  12.229 -0.4138  0.6890  0.0433
64576SOL    HW1  843   9.460   1.677  12.257 -0.8670  1.2387  1.6880
64576SOL    HW2  844   9.505   1.760  12.138  1.7399 -1.3447  0.7459
64577SOL     OW  845  11.629   4.974   4.732 -0.1154 -0.1131 -0.7895
64577SOL    HW1  846  11.541   4.948   4.760  0.3702 -1.0649 -0.0675
64577SOL    HW2  847  11.686   4.908   4.772  1.0309  1.1860 -0.2234
64578SOL     OW  848   4.262   3.525   8.367 -0.2419 -0.2580 -0.1984
64578SOL    HW1  849   4.304   3.503   8.450  0.0028 -2.2314 -0.7858
64578SOL    HW2  850   4.170   3.536   8.388 -0.4752 -2.4762  0.1020
64579SOL     OW  851  10.106  12.606   3.655  0.0288 -0.1362  0.1879
64579SOL    HW1  852  10.179  12.620   3.594 -0.9761  2.1159 -0.6024
64579SOL    HW2  853  10.143  12.628   3.741  0.1280  1.8884 -0.3102
64580SOL     OW  854   9.242   7.910  11.881 -0.2611 -0.4606 -0.5188
64580SOL    HW1  855   9.184   7.874  11.813  1.2047  0.4145 -2.3054
64580SOL    HW2  856   9.329   7.909  11.842  0.5736  0.5127  1.1979
64581SOL     OW  857  10.939   0.646   2.636 -0.1013 -0.5601 -0.6026
64581SOL    HW1  858  10.982   0.731   2.628  0.0387 -0.8060 -2.8970
64581SOL    HW2  859  11.004   0.590   2.679  1.0416 -0.3181 -1.9535
64582SOL     OW  860  10.614   4.526   2.874 -0.2783  0.0663 -0.1152
64582SOL    HW1  861  10.567   4.581   2.936  0.7061  0.9821 -0.1429
64582SOL    HW2  862  10.644   4.451   2.926 -0.0936  0.4523  0.3381
64583SOL     OW  863   0.853   0.410  10.437 -0.5086 -0.0776  0.2971
64583SOL    HW1  864   0.904   0.395  10.358 -0.4397 -1.6330  0.5984
64583SOL    HW2  865   0.765   0.429  10.407 -0.5625 -1.0116 -0.1629
64584SOL     OW  866   3.874  10.784   4.830 -0.3416  0.0361 -0.7119
64584SOL    HW1  867   3.873  10.871   4.789  4.0908  0.4473 -0.4959
64584SOL    HW2  868   3.877  10.723   4.756  1.9284  0.4764 -1.0648
64585SOL     OW  869   0.260  12.233   9.822 -0.2948  0.3237  0.1731
64585SOL    HW1  870   0.192  12.243   9.888  1.6529  1.9516  2.0452
64585SOL    HW2  871   0.291  12.143   9.833 -0.2419  0.4662  1.2088
64586SOL     OW  872  10.990   3.332   6.550  0.1807  0.0082 -0.8886
64586SOL    HW1  873  10.994   3.244   6.513 -0.1474 -0.5412  0.3107
64586SOL    HW2  874  11.082   3.360   6.557  0.3188 -0.4704 -0.7695
64587SOL     OW  875   7.483   2.184   3.875 -0.4883  0.0414 -0.1370
64587SOL    HW1  876   7.424   2.212   3.805 -0.0306  2.0220  0.2181
64587SOL    HW2  877   7.460   2.092   3.890 -2.5444  0.3735 -0.9215
64588SOL     OW  878  12.553   8.950   3.457  0.0429  0.5147 -0.1851
64588SOL    HW1  879  12.578   8.941   3.365  0.1773  1.4539 -0.2530
64588SOL    HW2  880  12.608   9.021   3.490 -0.5590  0.7190  0.4022
64589SOL     OW  881   5.158   4.184   2.574  0.1469 -0.1309  0.3842
64589SOL    HW1  882   5.094   4.142   2.631 -0.1707 -0.4320 -0.1833
64589SOL    HW2  883   5.221   4.223   2.634  0.8692 -2.0392  0.9376
64590SOL     OW  884   6.256   5.648   8.621 -0.1316 -0.2516  0.2869
64590SOL    HW1  885   6.276   5.664   8.529  0.9170 -1.2787  0.3105
64590SOL    HW2  886   6.210   5.564   8.621  0.3910 -0.5461  0.7424
64591SOL     OW  887   3.835   5.824   3.622 -0.0709  0.7463  0.7666
64591SOL    HW1  888   3.770   5.816   3.551 -0.5331 -0.1926  1.2849
64591SOL    HW2  889   3.903   5.761   3.600  0.1065  0.9138  0.8300
64592SOL     OW  890   3.898  12.387   6.688 -0.4135 -0.0997 -0.8242
64592SOL    HW1  891   3.831  12.431   6.740  0.5179  0.3826  0.0127
64592SOL    HW2  892   3.964  12.456   6.672  0.3754 -0.8143 -0.7266
64593SOL     OW  893  12.386   0.557   0.657 -0.3708  0.1635 -1.1243
64593SOL    HW1  894  12.378   0.487   0.593  1.2896 -0.3159 -0.8464
64593SOL    HW2  895  12.373   0.514   0.742  0.2223  0.2547 -0.9811
64594SOL     OW  896   9.975   0.908   7.109  0.0498 -0.1326  0.0566
64594SOL    HW1  897   9.944   0.825   7.071 -0.2258 -0.2055  0.4389
64594SOL    HW2  898   9.896   0.951   7.141  0.3253 -0.2813  0.9691
64595SOL     OW  899  10.377   8.070   1.927  0.0307  0.0147  0.3575
64595SOL    HW1  900  10.447   8.131   1.901  1.5388 -2.5500 -2.1230
64595SOL    HW2  901  10.360   8.092   2.019  2.2247  2.4963  0.2955
64596SOL     OW  902   1.098  12.539  12.491 -0.5453 -0.0043 -0.4686
64596SOL    HW1  903   1.127  12.488  12.416  1.4668 -0.6734  0.6833
64596SOL    HW2  904   1.120  12.630  12.469  1.7801 -0.3870 -0.0244
64597SOL     OW  905   1.146   6.792   7.800  0.0744 -0.0610 -0.4177
64597SOL    HW1  906   1.155   6.837   7.884 -0.0180 -0.7711 -0.0238
64597SOL    HW2  907   1.093   6.715   7.819 -2.3477  1.1794 -1.6567
64598SOL     OW  908   7.934   4.753   9.810  0.2135  0.7484 -0.6908
64598SOL    HW1  909   7.982   4.832   9.833 -0.4666  1.3745 -1.3559
64598SOL    HW2  910   7.912   4.764   9.717 -0.5937  0.1719 -0.5840
64599SOL     OW  911   0.646   1.676   2.554  0.1767  0.3531  0.4301
64599SOL    HW1  912   0.598   1.633   2.484  1.2518  0.1101 -0.1889
64599SOL    HW2  913   0.579   1.714   2.610 -0.8153 -1.9036  0.8617
64600SOL     OW  914  11.587  10.655   7.497  0.1703 -0.8191 -0.3590
64600SOL    HW1  915  11.601  10.749   7.498 -2.0165 -0.4280  1.3209
64600SOL    HW2  916  11.671  10.618   7.527  0.4051  0.7406  1.0816
64601SOL     OW  917   7.845   8.633   6.022 -0.6998 -0.1114 -0.0173
64601SOL    HW1  918   7.831   8.570   6.093  1.0959  0.6959  1.1129
64601SOL    HW2  919   7.925   8.603   5.978  0.3886  1.5263  0.7587
64602SOL     OW  920   1.395   0.637   6.742 -0.3089 -0.6951 -0.0479
64602SOL    HW1  921   1.305   0.608   6.758 -0.2915 -0.4504  0.5051
64602SOL    HW2  922   1.385   0.718   6.692 -0.5454  1.4045  3.1307
64603SOL     OW  923   6.385   0.818   8.239  0.3255 -0.8415  0.3753
64603SOL    HW1  924   6.366   0.911   8.252  2.2644 -0.2247 -0.7509
64603SOL    HW2  925   6.337   0.794   8.160  0.4660 -0.5644  0.2036
64604SOL     OW  926   9.320   7.203  11.210  0.2139 -0.3870 -0.4156
64604SOL    HW1  927   9.361   7.232  11.291 -0.1685  1.5084 -0.8363
64604SOL    HW2  928   9.233   7.173  11.237  0.2298 -0.1236 -0.0652
64605SOL     OW  929   9.600   9.918  10.730 -0.4055 -0.1860 -0.5354
64605SOL    HW1  930   9.505   9.906  10.731 -0.4393  0.0850 -0.2075
64605SOL    HW2  931   9.625   9.909  10.638 -1.0173  1.7370 -0.9236
64606SOL     OW  932   7.655   8.443   2.117 -0.2991 -0.2985  0.1624
64606SOL    HW1  933   7.726   8.410   2.172 -0.7008  0.3867  1.1159
64606SOL    HW2  934   7.580   8.450   2.175 -0.5486  1.1216 -0.2877
64607SOL     OW  935  12.969   8.560   2.331  0.4985  0.3494  0.7990
64607SOL    HW1  936  12.939   8.481   2.375  2.1751  0.1894  1.7540
64607SOL    HW2  937  12.893   8.593   2.283 -0.1140 -2.0826  0.0013
64608SOL     OW  938   8.894   5.708   7.869 -0.6518  0.1828  0.1192
64608SOL    HW1  939   8.809   5.736   7.903 -0.6430  0.9402 -0.4663
64608SOL    HW2  940   8.947   5.787   7.866  0.0544 -0.2671  0.3806
64609SOL     OW  941  12.123   4.431   8.768  0.1240 -0.1571 -0.0579
64609SOL    HW1  942  12.107   4.467   8.681 -2.8344  1.4891  1.0282
64609SOL    HW2  943  12.218   4.420   8.772  0.5138  1.1706 -2.9099
64610SOL     OW  944   0.562   8.610   5.305  0.5949 -0.4022 -0.1633
64610SOL    HW1  945   0.503   8.569   5.241  0.9676 -0.5092 -0.4414
64610SOL    HW2  946   0.576   8.543   5.372  2.0081 -1.1331 -1.1223
64611SOL     OW  947   4.695   9.410   6.017 -0.4162  0.5578  0.0113
64611SOL    HW1  948   4.701   9.371   6.104 -1.0891 -1.9032 -0.9584
64611SOL    HW2  949   4.774   9.463   6.009  1.1292 -1.4422  1.0848
64612SOL     OW  950  12.511   3.818   1.778 -0.2600 -0.1796 -0.2907
64612SOL    HW1  951  12.455   3.742   1.792  1.5784 -1.8440 -1.5774
64612SOL    HW2  952  12.578   3.789   1.716  2.1813  1.6160  1.3030
64613SOL     OW  953  10.684   0.935   5.104 -0.8573 -0.3758  0.1565
64613SOL    HW1  954  10.630   0.962   5.178 -0.8881  0.8641 -0.2943
64613SOL    HW2  955  10.628   0.944   5.028  0.1087  1.6077 -0.4092
64614SOL     OW  956   1.361   4.907   2.788  0.3474 -0.5979  0.0835
64614SOL    HW1  957   1.414   4.896   2.866  1.1381 -0.9653 -0.4963
64614SOL    HW2  958   1.365   5.001   2.769 -0.0660 -0.4667  0.6240
64615SOL     OW  959   3.561   3.735  11.585  0.0987 -0.4253  0.6032
64615SOL    HW1  960   3.501   3.667  11.616 -0.5311  0.6207  1.8081
64615SOL    HW2  961   3.646   3.709  11.620 -0.0690 -0.7834  0.7492
64616SOL     OW  962   1.250   4.402  11.495 -0.4760 -0.6960  0.3583
64616SOL    HW1  963   1.203   4.428  11.575 -1.3221 -0.3827 -0.2326
64616SOL    HW2  964   1.197   4.437  11.424  0.9769  0.1727 -0.3199
64617SOL     OW  965  11.981   5.383   9.541  0.4044  0.4556 -0.6263
64617SOL    HW1  966  11.955   5.475   9.530  1.3362  0.8109 -0.0331
64617SOL    HW2  967  12.072   5.381   9.511  1.0173  0.1587  1.1117
64618SOL     OW  968   0.877  12.615   1.891 -0.0167 -0.2397  0.0351
64618SOL    HW1  969   0.908  12.670   1.819 -0.4280 -1.0753 -0.8116
64618SOL    HW2  970   0.940  12.543   1.894  1.0040  0.6540  1.6823
64619SOL     OW  971   6.616   4.097   7.677  0.0364  0.2144  0.1813
64619SOL    HW1  972   6.618   4.019   7.733 -0.5362 -1.0643 -1.5149
64619SOL    HW2  973   6.533   4.093   7.631  0.5144  1.1857 -0.8308
64620SOL     OW  974   2.096   0.148   4.453  0.1084 -0.5362 -0.7892
64620SOL    HW1  975   2.020   0.092   4.439 -0.0184  0.1210 -3.1617
64620SOL    HW2  976   2.109   0.192   4.369  0.3571  2.8324  0.8715
64621SOL     OW  977   1.804   3.850   4.133  0.5274 -0.9049  0.3288
64621SOL    HW1  978   1.877   3.789   4.132  0.1963 -1.3005 -0.4741
64621SOL    HW2  979   1.838   3.928   4.178  1.0487 -1.5528  1.0684
64622SOL     OW  980   2.069  11.124   2.780 -0.3747  0.3428  0.2409
64622SOL    HW1  981   2.081  11.172   2.862 -0.2426 -0.7163  0.8651
64622SOL    HW2  982   2.158  11.109   2.749 -0.4217  0.6517 -0.0455
64623SOL     OW  983  10.295   7.543   9.234 -0.2588  0.2845  0.2091
64623SOL    HW1  984  10.286   7.460   9.187 -0.0338 -0.1475  0.9160
64623SOL    HW2  985  10.359   7.525   9.303  1.0977  1.5221 -0.6711
64624SOL     OW  986   9.139   8.919   9.324  0.3717 -0.2155 -0.7460
64624SOL    HW1  987   9.063   8.965   9.360  0.5752 -0.3603 -0.1038
64624SOL    HW2  988   9.148   8.952   9.235  1.3314  2.0190  0.1147
64625SOL     OW  989  12.189  11.982   0.112  0.3956 -0.2994  0.3408
64625SOL    HW1  990  12.275  12.023   0.117  0.0819  0.5367 -0.6778
64625SOL    HW2  991  12.174  11.968   0.019 -0.9626  0.4545  0.4170
64626SOL     OW  992  12.136  12.916   7.827  0.6986  0.3015 -0.3733
64626SOL    HW1  993  12.102  13.005   7.837  0.8979  0.4143 -0.6672
64626SOL    HW2  994  12.073  12.860   7.871 -0.8904  0.3108 -2.4575
64627SOL     OW  995  10.632   7.762   8.581  0.2252  0.4552  0.1589
64627SOL    HW1  996  10.559   7.784   8.524  0.4810  0.6345 -0.1037
64627SOL    HW2  997  10.707   7.806   8.542  0.8799 -1.3754 -0.7404
64628SOL     OW  998   0.815   4.565   2.707  0.1726  0.2055  0.3910
64628SOL    HW1  999   0.801   4.622   2.782 -0.1776 -1.0603  1.3088
64628SOL    HW2 1000   0.880   4.501   2.736  1.6137  0.9325 -1.0746
64629SOL     OW 1001   0.216   4.053   8.409  0.3895 -0.0159  0.1366
64629SOL    HW1 1002   0.128   4.078   8.381  0.3816  0.3996  0.5191
64629SOL    HW2 1003   0.274   4.083   8.339  0.1312 -1.3366 -0.6913
64630SOL     OW 1004   3.013   1.148   0.887 -0.3834  0.1806 -0.6353
64630SOL    HW1 1005   2.980   1.063   0.915  2.3776 -0.7863  0.0884
64630SOL    HW2 1006   3.080   1.127   0.821  2.4964  1.4460  1.6444
64631SOL     OW 1007   4.507   4.541   9.407  0.3636  0.0871  0.0909
64631SOL    HW1 1008   4.480   4.555   9.316 -0.6150  0.3208  0.4096
64631SOL    HW2 1009   4.463   4.461   9.433  0.4523  0.1483  0.4302
64632SOL     OW 1010   0.615  12.601   2.293 -0.3561  0.6872 -0.2560
64632SOL    HW1 1011   0.681  12.538   2.321 -0.2406  0.9593  0.0879
64632SOL    HW2 1012   0.534  12.550   2.288 -0.1370  0.3702 -0.6037
64633SOL     OW 1013   4.604   8.757   1.588 -0.0819 -0.6083  0.4845
64633SOL    HW1 1014   4.639   8.726   1.672 -0.6523 -0.4917  0.7724
64633SOL    HW2 1015   4.641   8.698   1.523  1.5306  0.1913  0.6407
64634SOL     OW 1016  11.449   7.399  12.396  0.3340  0.3425  0.3735
64634SOL    HW1 1017  11.540   7.370  12.398 -0.2222 -1.7698 -1.1589
64634SOL    HW2 1018  11.451   7.482  12.348  1.4231  0.2144  0.1768
64635SOL     OW 1019   9.050   6.520   4.797 -0.9111  0.0168 -0.5433
64635SOL    HW1 1020   9.083   6.524   4.708 -1.6393  0.3447 -0.8081
64635SOL    HW2 1021   9.015   6.608   4.813 -1.7903 -0.3658 -0.3341
64636SOL     OW 1022   6.862   5.536   5.733  0.3527  0.2802 -0.4159
64636SOL    HW1 1023   6.874   5.576   5.819  0.8333 -1.7068  0.4986
64636SOL    HW2 1024   6.938   5.565   5.682 -0.6003  2.5464 -0.6753
64637SOL     OW 1025   8.964   4.504   6.492  0.2311  0.1984 -0.3327
64637SOL    HW1 1026   9.018   4.583   6.486  0.0397  0.2122 -3.8707
64637SOL    HW2 1027   9.022   4.433   6.466  0.0904 -0.7429  1.7503
64638SOL     OW 1028   0.605  10.180   9.799 -0.3670  0.3618  0.0283
64638SOL    HW1 1029   0.596  10.084   9.797  0.2304  0.1230  3.6055
64638SOL    HW2 1030   0.518  10.211   9.825 -0.0904  0.6712  0.5786
64639SOL     OW 1031   2.047   4.217  11.764  0.2714  0.2312  0.2861
64639SOL    HW1 1032   1.973   4.265  11.800 -0.2444 -0.0646 -0.3660
64639SOL    HW2 1033   2.098   4.283  11.718  0.4008  0.4270  0.6990
64640SOL     OW 1034   3.654  11.110   2.576  0.3448  0.7535  0.1985
64640SOL    HW1 1035   3.680  11.201   2.566 -0.3040  0.8625 -0.5174
64640SOL    HW2 1036   3.599  11.109   2.654  0.4343  0.9481  0.2659
64641SOL     OW 1037   9.890   1.296   4.746 -0.3340  0.6789  0.0227
64641SOL    HW1 1038   9.889   1.292   4.842  1.3930 -0.5196  0.0415
64641SOL    HW2 1039   9.835   1.223   4.718 -0.3817  0.6795  0.1151
64642SOL     OW 1040   6.159  11.660   5.321 -0.1238 -0.0750 -0.8386
64642SOL    HW1 1041   6.091  11.694   5.263 -2.1609 -0.0246  1.4346
64642SOL    HW2 1042   6.120  11.583   5.361  1.8166 -1.0268 -0.6813
64643SOL     OW 1043   0.210   4.558   3.109 -0.0744  0.2603  0.2511
64643SOL    HW1 1044   0.164   4.570   3.192  0.2141  3.3926  0.0765
64643SOL    HW2 1045   0.290   4.511   3.132 -1.2187 -1.2685  1.2661
64644SOL     OW 1046   5.646   6.770   2.101  0.7162 -0.1547 -0.2164
64644SOL    HW1 1047   5.633   6.708   2.029  0.5885  1.5386 -1.7203
64644SOL    HW2 1048   5.732   6.748   2.136  1.2145 -0.4093 -1.5304
64645SOL     OW 1049  10.706   9.515   5.807 -0.1362  0.2901  0.3568
64645SOL    HW1 1050  10.684   9.473   5.890 -0.1547  0.9081  0.6682
64645SOL    HW2 1051  10.796   9.489   5.790  0.1934  0.9452  1.0609
64646SOL     OW 1052   8.211  10.872   4.679  0.1796  0.0598 -0.6370
64646SOL    HW1 1053   8.168  10.801   4.630  1.1087 -0.4754 -0.6974
64646SOL    HW2 1054   8.216  10.839   4.769 -2.7708  1.5859  0.2256
64647SOL     OW 1055   3.759   4.438   3.837 -0.2498  0.2058  0.3572
64647SOL    HW1 1056   3.752   4.451   3.743  1.4294 -0.4879  0.0949
64647SOL    HW2 1057   3.797   4.351   3.846  0.3253  0.5681  1.6607
64648SOL     OW 1058   0.796   6.623  11.471 -0.3494  0.2003  0.3157
64648SOL    HW1 1059   0.804   6.533  11.501  0.7326  0.5242  1.0526
64648SOL    HW2 1060   0.714   6.654  11.510  1.8221  1.1616  4.6182
64649SOL     OW 1061   7.592   7.786   0.658 -0.3578  0.1401  0.4760
64649SOL    HW1 1062   7.544   7.813   0.736 -0.9182  1.0550 -0.1591
64649SOL    HW2 1063   7.528   7.738   0.605  0.6953 -2.8056  1.7043
64650SOL     OW 1064   3.837   1.364  12.695  0.4285  0.1459  0.6031
64650SOL    HW1 1065   3.769   1.416  12.738  1.6065  1.7929  0.5650
64650SOL    HW2 1066   3.917   1.416  12.705  1.6675 -1.6340  0.4843
64651SOL     OW 1067  11.541   7.279   4.227  0.4263  0.4250  0.0593
64651SOL    HW1 1068  11.585   7.275   4.142  0.8355  2.3973  0.1197
64651SOL    HW2 1069  11.449   7.289   4.206  0.5080  0.7412 -0.1580
64652SOL     OW 1070   9.906   3.236  10.337  0.1717  0.0056  0.8175
64652SOL    HW1 1071   9.970   3.282  10.284 -1.3851  0.3942 -0.8007
64652SOL    HW2 1072   9.946   3.150  10.353  1.0567  0.2067 -0.2083
64653SOL     OW 1073   2.343  11.095   4.058  0.4521 -0.2157  0.4463
64653SOL    HW1 1074   2.293  11.023   4.096 -0.2881  0.0733  0.0459
64653SOL    HW2 1075   2.281  11.169   4.058  0.4012 -0.2308 -1.3920
64654SOL     OW 1076   3.843  11.028   4.763  0.3213 -0.7388  0.2725
64654SOL    HW1 1077   3.859  11.074   4.845  1.1383 -1.3975  0.4919
64654SOL    HW2 1078   3.870  11.091   4.695  0.4887 -0.5248  0.5340
64655SOL     OW 1079   5.942  11.029   0.762 -0.5539 -0.3110 -0.0112
64655SOL    HW1 1080   5.958  11.103   0.702 -0.2002 -1.1106 -0.9295
64655SOL    HW2 1081   5.988  10.955   0.721  0.0551 -0.7885  1.4746
64656SOL     OW 1082   9.439   4.526   0.785  0.3094  0.4854  0.4237
64656SOL    HW1 1083   9.367   4.565   0.736  0.0500 -1.5531 -0.9425
64656SOL    HW2 1084   9.517   4.550   0.736  0.3336  0.8456  0.6405
64657SOL     OW 1085   2.037   1.206   0.286 -0.1669 -0.1843 -0.1434
64657SOL    HW1 1086   2.031   1.143   0.214  1.5259  0.0450 -0.5167
64657SOL    HW2 1087   2.014   1.155   0.364 -0.0897 -0.9359 -0.6009
64658SOL     OW 1088   3.778   2.477   3.732 -0.4334  0.1239 -0.0082
64658SOL    HW1 1089   3.819   2.392   3.751  0.8753  0.7502  0.1182
64658SOL    HW2 1090   3.785   2.526   3.814 -1.2245  0.3460 -0.0649
64659SOL     OW 1091   2.927   4.304   6.573  0.1532 -0.5078  0.5670
64659SOL    HW1 1092   2.979   4.276   6.648 -0.0616 -1.1074  0.4930
64659SOL    HW2 1093   2.839   4.317   6.608  0.4392  1.0505  0.8145
64660SOL     OW 1094   2.972   0.990   4.240 -0.6330  0.2998  0.2303
64660SOL    HW1 1095   2.899   1.037   4.280 -0.4304  0.8133  0.0083
64660SOL    HW2 1096   3.047   1.009   4.297 -0.7911 -0.7244  0.8020
64661SOL     OW 1097   6.742  12.079   6.547 -0.4584 -0.5145  1.3900
64661SOL    HW1 1098   6.784  12.131   6.480 -1.8641 -1.3340 -0.2122
64661SOL    HW2 1099   6.682  12.139   6.591  1.2733  0.3034  2.7414
64662SOL     OW 1100   4.390   9.344   5.953  0.6713 -0.1682 -0.2629
64662SOL    HW1 1101   4.444   9.307   5.883  0.1141  0.9454 -1.3479
64662SOL    HW2 1102   4.388   9.438   5.934 -1.3128 -0.1201 -0.0598
64663SOL     OW 1103   8.304   4.984   0.894  0.0541  0.4085  0.4294
64663SOL    HW1 1104   8.396   4.992   0.871  0.0087  0.4949  0.2757
64663SOL    HW2 1105   8.271   5.074   0.895  0.9179  0.8795  4.4466
64664SOL     OW 1106   8.345   0.745   4.684  0.3908 -0.2734  0.0724
64664SOL    HW1 1107   8.356   0.685   4.610 -0.4517  0.2145 -0.4656
64664SOL    HW2 1108   8.251   0.740   4.704  0.0013  1.9596 -0.9334
64665SOL     OW 1109   6.583  11.300   6.761 -0.0817  0.4593 -0.4838
64665SOL    HW1 1110   6.602  11.382   6.806  1.9612 -0.4161  0.3879
64665SOL    HW2 1111   6.669  11.265   6.736 -0.8521 -1.5757 -0.5366
64666SOL     OW 1112   9.919   8.269   4.472 -0.2058 -0.1460 -0.6505
64666SOL    HW1 1113   9.836   8.315   4.458  0.0484  0.1390 -1.2755
64666SOL    HW2 1114   9.971   8.330   4.524 -0.4155 -0.3633 -0.1774
64667SOL     OW 1115  10.374   5.945   5.845  0.5354 -0.2236  0.0188
64667SOL    HW1 1116  10.339   5.899   5.769 -1.4466 -0.9416  1.2894
64667SOL    HW2 1117  10.440   6.004   5.809 -0.6639 -0.1948 -2.3295
64668SOL     OW 1118  10.180  11.071   3.525 -0.9046  0.3304 -0.3248
64668SOL    HW1 1119  10.254  11.121   3.559  0.2884 -0.3418 -1.8042
64668SOL    HW2 1120  10.172  10.996   3.584 -0.8958  0.7866  0.2648
64669SOL     OW 1121   5.406   8.540   5.767 -0.1288 -0.2073 -0.0826
64669SOL    HW1 1122   5.481   8.546   5.825 -0.2713  2.0672 -0.0350
64669SOL    HW2 1123   5.443   8.538   5.679  0.0084  0.8532 -0.0576
64670SOL     OW 1124  10.956   9.757  10.659 -0.1283 -0.3986  0.0812
64670SOL    HW1 1125  10.998   9.743  10.574  1.2875 -2.4342  1.0400
64670SOL    HW2 1126  10.966   9.850  10.676 -0.7263  0.1219 -2.1025
64671SOL     OW 1127   4.206   1.706   0.039  0.1460  0.3734 -0.2358
64671SOL    HW1 1128   4.248   1.760  -0.028  0.4440  0.4381 -0.0003
64671SOL    HW2 1129   4.256   1.625   0.039 -1.2423 -0.5415 -1.6683
64672SOL     OW 1130   2.204   2.006   0.212  0.0521  0.0169 -0.0099
64672SOL    HW1 1131   2.171   1.931   0.162 -0.4291  1.2090 -1.5304
64672SOL    HW2 1132   2.298   2.009   0.192 -0.0312  0.1441 -0.3842
64673SOL     OW 1133   8.055   7.597  10.271  0.3900  0.1092  0.2095
64673SOL    HW1 1134   8.041   7.591  10.365  2.1472 -0.5760  0.4553
64673SOL    HW2 1135   8.149   7.610  10.260  0.0729  1.4930 -1.4227
64674SOL     OW 1136   7.629   2.043   5.517 -0.4330 -0.0450 -0.0335
64674SOL    HW1 1137   7.642   2.021   5.424  0.6035 -0.2852  0.1494
64674SOL    HW2 1138   7.635   1.959   5.562 -1.0159  0.0629  0.2470
64675SOL     OW 1139   6.110   1.341   9.967  0.5832  0.0748 -0.3955
64675SOL    HW1 1140   6.148   1.253   9.970 -0.9951 -0.6172  0.9587
64675SOL    HW2 1141   6.142   1.384  10.047 -0.3423 -0.0422  0.0540
64676SOL     OW 1142   3.970   4.617  11.199 -0.3847 -0.6750  0.2285
64676SOL    HW1 1143   3.966   4.652  11.110  0.5720 -0.8004  0.1233
64676SOL    HW2 1144   3.963   4.522  11.188 -2.4288 -0.6038  0.4728
64677SOL     OW 1145  12.107  12.862   5.776 -0.0041 -1.1560 -0.2001
64677SOL    HW1 1146  12.092  12.842   5.683  0.9324 -0.4917 -0.5149
64677SOL    HW2 1147  12.194  12.828   5.794  0.9784  1.0696 -0.3381
64678SOL     OW 1148   6.721   4.284   1.384  0.4762  0.1786 -0.8006
64678SOL    HW1 1149   6.727   4.189   1.376 -4.8369 -0.5120 -0.4200
64678SOL    HW2 1150   6.744   4.302   1.476 -1.4284 -1.3101  0.0449
64679SOL     OW 1151   6.786   3.985   4.307  0.1197  0.0636 -0.2987
64679SOL    HW1 1152   6.739   4.036   4.373  2.5467  0.3236  1.3627
64679SOL    HW2 1153   6.756   4.021   4.223 -0.7588  1.8998  0.7323
64680SOL     OW 1154  12.843   9.223   4.129  0.1522 -0.0345 -0.1061
64680SOL    HW1 1155  12.755   9.230   4.093 -0.1730 -2.1443  0.1690
64680SOL    HW2 1156  12.831   9.238   4.223  0.2578  0.5818 -0.1815
64681SOL     OW 1157   5.552   5.949  11.702  0.3587 -0.1200  0.4295
64681SOL    HW1 1158   5.526   5.858  11.689  1.0791 -0.0814 -1.4301
64681SOL    HW2 1159   5.630   5.944  11.758 -0.0913 -0.5699  1.0393
64682SOL     OW 1160   2.296   3.686   6.092 -0.5938 -0.0305  0.1719
64682SOL    HW1 1161   2.349   3.751   6.136  2.3795 -0.7991 -1.9243
64682SOL    HW2 1162   2.206   3.710   6.112  0.4196  3.2604  1.4213
64683SOL     OW 1163   6.535  12.043   4.658  0.1717  0.3525 -0.0231
64683SOL    HW1 1164   6.546  11.952   4.686 -0.3868  0.1336 -0.5015
64683SOL    HW2 1165   6.622  12.082   4.671  0.2368 -0.0523  0.8569
64684SOL     OW 1166  11.371   8.038   1.519 -0.6681 -0.3854  0.0208
64684SOL    HW1 1167  11.389   7.959   1.569  0.5421 -0.5859 -0.6926
64684SOL    HW2 1168  11.413   8.023   1.434 -1.0785  0.7081 -0.3934
64685SOL     OW 1169   1.821   2.632   3.037 -0.7560 -0.3872  0.5682
64685SOL    HW1 1170   1.779   2.639   2.951  0.3557 -0.1611  0.0303
64685SOL    HW2 1171   1.751   2.600   3.095 -1.8173  0.4935 -0.1761
64686SOL     OW 1172   4.412   5.456  12.776 -0.2404  0.3052  0.2170
64686SOL    HW1 1173   4.390   5.384  12.835 -1.9070 -0.2267 -1.0006
64686SOL    HW2 1174   4.369   5.533  12.814  0.3992  0.4103  0.7641
64687SOL     OW 1175   3.745   3.889   5.183  0.1988  0.8367 -0.3113
64687SOL    HW1 1176   3.755   3.923   5.272  0.9436  0.9291 -0.4271
64687SOL    HW2 1177   3.674   3.826   5.190 -1.3165  2.4905 -0.1288
64688SOL     OW 1178   9.231   4.787   6.692  0.0388 -0.5708  0.1851
64688SOL    HW1 1179   9.301   4.741   6.645 -0.0482 -0.9363  0.4127
64688SOL    HW2 1180   9.212   4.863   6.637  0.2606 -0.7461 -0.1385
64689SOL     OW 1181  12.881  10.534   5.838  0.3378  0.3497 -0.4807
64689SOL    HW1 1182  12.786  10.542   5.827  0.1431  1.8741  1.6955
64689SOL    HW2 1183  12.901  10.446   5.806 -2.1908 -0.9544  1.1965
64690SOL     OW 1184  12.600   6.189  10.407  0.3003 -0.3361 -0.4092
64690SOL    HW1 1185  12.646   6.218  10.329  0.3643  0.5636 -0.0561
64690SOL    HW2 1186  12.668   6.177  10.473  0.0071  2.2804  0.5109
64691SOL     OW 1187   6.316  10.215   2.294  0.3625 -0.4363  0.0837
64691SOL    HW1 1188   6.359  10.171   2.367  2.4254  1.6971  0.2977
64691SOL    HW2 1189   6.285  10.298   2.332  1.9592  0.9544 -1.5182
64692SOL     OW 1190   9.392  11.229   4.261 -0.1267 -0.2891  0.0883
64692SOL    HW1 1191   9.472  11.269   4.229 -0.2879 -0.2046 -0.2120
64692SOL    HW2 1192   9.413  11.202   4.351 -0.4677  1.8289  0.8722
64693SOL     OW 1193   6.497   1.411   6.739 -0.4372  0.2494  0.2070
64693SOL    HW1 1194   6.573   1.376   6.786  0.8252  2.8144  0.2173
64693SOL    HW2 1195   6.459   1.334   6.697  0.7923 -1.4917  2.0435
64694SOL     OW 1196   7.039  12.025   5.598 -0.3932 -0.3661 -0.3420
64694SOL    HW1 1197   6.963  12.036   5.541  0.5158  1.7994 -1.2557
64694SOL    HW2 1198   7.076  11.940   5.571 -1.0239 -0.2350 -1.7278
64695SOL     OW 1199   8.496   3.930   9.841  0.1028  0.2246 -0.2386
64695SOL    HW1 1200   8.552   4.002   9.813 -0.9083  0.9482 -0.4797
64695SOL    HW2 1201   8.552   3.875   9.896  2.0804 -1.0397 -3.2460
64696SOL     OW 1202  10.755   7.903   3.790  0.0091 -0.0710  0.2731
64696SOL    HW1 1203  10.686   7.964   3.767  0.5763  1.0433  1.4016
64696SOL    HW2 1204  10.794   7.877   3.706 -2.8751 -2.1635 -0.5728
64697SOL     OW 1205   6.077   5.639  11.772 -0.0880 -0.4295 -0.3703
64697SOL    HW1 1206   6.063   5.568  11.834  0.3365 -1.5125 -1.4584
64697SOL    HW2 1207   6.081   5.718  11.825  0.5405 -1.3518  1.0048
64698SOL     OW 1208   9.076  11.639  10.493  0.1617  0.2591 -0.1910
64698SOL    HW1 1209   9.019  11.711  10.521 -1.1418 -1.9897  3.7316
64698SOL    HW2 1210   9.028  11.597  10.422 -1.1348  0.7792  0.3407
64699SOL     OW 1211  10.524  11.945   1.618  0.1524 -0.0432  0.2865
64699SOL    HW1 1212  10.486  11.877   1.562  0.4039 -0.3739  0.5163
64699SOL    HW2 1213  10.571  11.897   1.686  0.3475  0.3628  0.4403
64700SOL     OW 1214   5.119   8.943  11.414 -0.2333  0.3830  0.1806
64700SOL    HW1 1215   5.178   8.999  11.364 -0.1738  0.4484  0.3255
64700SOL    HW2 1216   5.115   8.862  11.363  1.1933 -0.2022  0.9409
64701SOL     OW 1217   2.567   1.224   9.741 -0.4488 -0.2248  0.1051
64701SOL    HW1 1218   2.529   1.312   9.738 -2.7608 -1.1668 -1.6043
64701SOL    HW2 1219   2.494   1.166   9.719  1.7381 -2.3069 -2.3417
64702SOL     OW 1220  11.093  12.224   7.424  0.5880 -0.2473 -0.0432
64702SOL    HW1 1221  11.097  12.312   7.386  0.2542 -0.2459 -0.0802
64702SOL    HW2 1222  11.025  12.230   7.491  1.7428 -0.0279  1.1486
64703SOL     OW 1223   9.243  11.861   6.780  0.3791  0.6675  0.5345
64703SOL    HW1 1224   9.323  11.914   6.783  0.1777  1.0583 -0.5614
64703SOL    HW2 1225   9.263  11.791   6.718  0.3706 -0.0897  1.3749
64704SOL     OW 1226   8.910   3.186   4.294  0.0629 -0.4062 -0.5019
64704SOL    HW1 1227   8.953   3.266   4.326 -1.4708  0.3451 -0.2568
64704SOL    HW2 1228   8.928   3.120   4.361 -0.2365  0.2429  0.2293
64705SOL     OW 1229   9.116   5.869  12.177  0.4103  0.0624  0.3328
64705SOL    HW1 1230   9.046   5.856  12.241  0.1760 -0.2201  0.0212
64705SOL    HW2 1231   9.174   5.934  12.218  0.2704 -0.1219  0.8358
64706SOL     OW 1232   5.798  12.869   2.448  0.1659 -0.1068  0.8317
64706SOL    HW1 1233   5.754  12.953   2.441  0.4435 -0.0882 -1.3973
64706SOL    HW2 1234   5.852  12.876   2.527  1.1685  2.3154  0.0185
64707SOL     OW 1235  11.944  11.875  12.056  0.4984 -0.0340  0.0810
64707SOL    HW1 1236  11.873  11.936  12.035 -0.6760 -0.5536  2.2288
64707SOL    HW2 1237  11.979  11.907  12.138  1.1345 -1.1684  0.2738
64708SOL     OW 1238   1.542  11.980   9.476 -0.0992 -0.0004 -0.0200
64708SOL    HW1 1239   1.607  11.992   9.544 -1.0082 -0.7944  1.0387
64708SOL    HW2 1240   1.496  11.899   9.501  0.1904 -0.8730 -2.1113
64709SOL     OW 1241   7.719   4.509   7.819 -0.2784 -0.3656  0.0510
64709SOL    HW1 1242   7.786   4.565   7.780 -0.2351  0.3299  1.0888
64709SOL    HW2 1243   7.640   4.527   7.768 -0.3329  0.8553  0.5314
64710SOL     OW 1244   6.982   0.873   1.649 -0.8263 -0.6004 -0.1507
64710SOL    HW1 1245   7.009   0.891   1.559  1.2066 -0.1093  0.5080
64710SOL    HW2 1246   6.994   0.957   1.694 -1.6745 -0.8794  0.6244
64711SOL     OW 1247   9.751   3.988   7.839 -0.2140  0.3047 -0.1562
64711SOL    HW1 1248   9.808   3.974   7.914  0.2729  2.4883 -0.0377
64711SOL    HW2 1249   9.746   4.083   7.831 -2.0127  0.1425 -1.5718
64712SOL     OW 1250   9.822   6.092   2.777  0.0450  0.1320 -0.0516
64712SOL    HW1 1251   9.868   6.098   2.694 -1.0458  1.0632 -0.6186
64712SOL    HW2 1252   9.736   6.131   2.760 -0.7088 -0.9200  1.1441
64713SOL     OW 1253  10.394   5.408  10.576  0.2279 -0.4260 -0.1093
64713SOL    HW1 1254  10.306   5.445  10.576 -0.4257 -1.9028  0.2731
64713SOL    HW2 1255  10.432   5.437  10.658  0.0815  0.1859 -0.2543
64714SOL     OW 1256   6.322   0.871   4.557  0.3749  0.1582 -0.0635
64714SOL    HW1 1257   6.329   0.812   4.482 -1.3931  0.5976 -0.6289
64714SOL    HW2 1258   6.262   0.827   4.617  1.7640 -0.1821  1.1336
64715SOL     OW 1259   7.474   7.430   3.417 -0.1712 -0.4220  0.0789
64715SOL    HW1 1260   7.489   7.456   3.508  0.2939  1.9070 -0.6077
64715SOL    HW2 1261   7.379   7.425   3.409 -0.2388  0.1504  0.4925
64716SOL     OW 1262   7.709   7.944   0.469 -0.0593  0.5209 -0.0909
64716SOL    HW1 1263   7.639   7.916   0.528 -0.7867  0.7493 -0.8265
64716SOL    HW2 1264   7.736   7.864   0.424  0.8831  0.2402  0.9201
64717SOL     OW 1265   9.013   1.727   0.442 -0.1858 -0.3138  0.1572
64717SOL    HW1 1266   9.103   1.759   0.429 -0.1363 -0.4840  0.0767
64717SOL    HW2 1267   8.960   1.778   0.381 -0.2036  0.0585  0.4788
64718SOL     OW 1268   6.116   9.711   4.018  0.2130  0.4482  0.7555
64718SOL    HW1 1269   6.122   9.806   4.025 -1.4180  0.5785  0.7673
64718SOL    HW2 1270   6.176   9.689   3.947 -0.0034  1.5877  0.1868
64719SOL     OW 1271   0.352   1.875   8.808 -0.5124  0.5838 -0.2846
64719SOL    HW1 1272   0.374   1.969   8.805  3.3813 -0.0479  1.9793
64719SOL    HW2 1273   0.305   1.864   8.890 -1.0167  0.5525 -0.5764
64720SOL     OW 1274   5.689   5.723   0.276 -0.1354  0.4600 -0.1784
64720SOL    HW1 1275   5.727   5.729   0.188 -1.1423 -1.6046 -0.8029
64720SOL    HW2 1276   5.595   5.718   0.262 -0.4809  2.0591  1.1748
64721SOL     OW 1277   9.000   9.974   8.540 -0.2031 -0.1419 -0.0697
64721SOL    HW1 1278   9.042   9.932   8.465 -0.6431 -2.0026  0.6934
64721SOL    HW2 1279   8.956  10.051   8.503  0.0663 -0.7045 -1.6124
64722SOL     OW 1280   6.258   6.002   3.256 -0.4800 -0.2161 -0.5246
64722SOL    HW1 1281   6.223   6.090   3.264 -1.4562 -0.7068  0.8666
64722SOL    HW2 1282   6.331   6.011   3.194 -0.6253  1.5284 -0.4865
64723SOL     OW 1283  11.104  11.695   8.135 -0.1650 -0.3772 -0.6553
64723SOL    HW1 1284  11.067  11.698   8.223 -0.1320  1.1368 -0.6632
64723SOL    HW2 1285  11.029  11.706   8.076 -0.1858 -1.3686 -0.8262
64724SOL     OW 1286  12.292   2.548   0.088  0.2881  0.2891 -0.1598
64724SOL    HW1 1287  12.233   2.484   0.050  1.8631 -2.1251  1.2192
64724SOL    HW2 1288  12.351   2.572   0.016  0.0750 -0.3044 -0.5373
64725SOL     OW 1289   2.964   8.590   3.254  0.2542  0.4745 -0.1528
64725SOL    HW1 1290   2.912   8.661   3.217 -1.6356 -0.0386  1.3392
64725SOL    HW2 1291   3.052   8.625   3.260 -0.4899  2.4535 -0.1152
64726SOL     OW 1292   7.814  12.780   6.628  0.1145 -0.4884  0.1980
64726SOL    HW1 1293   7.829  12.847   6.696 -1.4193  0.4855 -0.3705
64726SOL    HW2 1294   7.859  12.815   6.551 -1.5175  0.4351 -0.3800
64727SOL     OW 1295   4.860   1.896  11.280  0.6076 -0.6723  0.0744
64727SOL    HW1 1296   4.777   1.945  11.276 -0.0966 -1.6533  1.7938
64727SOL    HW2 1297   4.928   1.964  11.279 -0.2146  0.1763 -0.7531
64728SOL     OW 1298  10.392   3.755   0.818 -0.0260 -0.2005 -0.2033
64728SOL    HW1 1299  10.406   3.848   0.800 -0.7795 -0.0774 -0.1962
64728SOL    HW2 1300  10.469   3.728   0.868 -0.0570  0.5541  0.2641
64729SOL     OW 1301  11.241   1.042   4.060  0.0432  0.6190 -0.2935
64729SOL    HW1 1302  11.162   1.066   4.108 -1.1608  0.2761 -2.0043
64729SOL    HW2 1303  11.244   1.104   3.987 -0.2482 -1.0710 -1.8264
64730SOL     OW 1304  12.019   7.651   0.671  0.3258  0.1318  0.1708
64730SOL    HW1 1305  11.971   7.597   0.733 -0.9170  1.0485  0.0524
64730SOL    HW2 1306  11.985   7.626   0.585 -0.7465  1.4999  0.1542
64731SOL     OW 1307   3.661   3.397   4.376  0.0438  0.0448 -0.2365
64731SOL    HW1 1308   3.697   3.336   4.311 -0.2842  0.5036 -0.8566
64731SOL    HW2 1309   3.571   3.368   4.388  0.3733 -0.6173  0.7260
64732SOL     OW 1310   3.403   9.135   1.653  0.7403 -0.1564  0.0794
64732SOL    HW1 1311   3.345   9.182   1.712  0.6059 -1.4740  1.0411
64732SOL    HW2 1312   3.397   9.044   1.681  0.9308 -0.7769 -1.7642
64733SOL     OW 1313   7.936   9.732   9.336  0.2500 -0.4131 -0.2035
64733SOL    HW1 1314   8.027   9.731   9.366  0.0027 -2.9248  0.6980
64733SOL    HW2 1315   7.886   9.760   9.413  0.1655  0.1301 -0.4490
64734SOL     OW 1316   0.626   4.190   8.648  0.1355  0.1637  0.1547
64734SOL    HW1 1317   0.547   4.139   8.629  0.1350  0.1406  0.2210
64734SOL    HW2 1318   0.698   4.132   8.622  0.1483 -0.0437  0.6463
64735SOL     OW 1319   9.179   9.988  10.695  0.2777 -0.8703 -0.0061
64735SOL    HW1 1320   9.119   9.942  10.636 -1.1590  1.7950 -0.7958
64735SOL    HW2 1321   9.265   9.949  10.677 -0.6942 -2.5621 -1.2467
64736SOL     OW 1322   8.316   8.559   7.748 -0.0764  0.0476 -0.7504
64736SOL    HW1 1323   8.392   8.500   7.747 -0.4892 -0.5564  0.8718
64736SOL    HW2 1324   8.252   8.515   7.804 -1.5729  0.6338 -1.9162
64737SOL     OW 1325   8.483   0.907  10.000  0.0275  0.2628 -0.4408
64737SOL    HW1 1326   8.411   0.944   9.949  0.6484 -0.4972 -1.9281
64737SOL    HW2 1327   8.446   0.829  10.041 -0.2148  0.3194 -0.5484
64738SOL     OW 1328   5.717   3.905   8.486 -0.3750  0.5899 -0.0307
64738SOL    HW1 1329   5.727   3.964   8.561  2.4427 -0.1322  0.3126
64738SOL    HW2 1330   5.757   3.953   8.413  1.5530 -0.6087  0.1598
64739SOL     OW 1331   1.682  11.905  11.043  0.2621  0.3785  0.5447
64739SOL    HW1 1332   1.762  11.948  11.072  0.0966  0.7708  0.4305
64739SOL    HW2 1333   1.678  11.923  10.949  0.7109 -0.7436  0.2968
64740SOL     OW 1334   6.443   9.050   5.531  0.0141  0.3681  0.0911
64740SOL    HW1 1335   6.450   9.112   5.602  1.4432 -0.2752  0.5642
64740SOL    HW2 1336   6.518   8.991   5.543  0.2514  0.1903 -1.8825
64741SOL     OW 1337   4.345   0.370   9.159  0.8170  0.1587 -0.5494
64741SOL    HW1 1338   4.298   0.401   9.082  0.3553 -0.5191 -0.5506
64741SOL    HW2 1339   4.424   0.328   9.124  0.0040 -1.2569 -0.7607
64742SOL     OW 1340  11.061   2.232   9.337 -0.0180 -0.7040 -0.3321
64742SOL    HW1 1341  11.041   2.303   9.276 -1.2079  2.8366  3.6987
64742SOL    HW2 1342  10.976   2.201   9.367  0.2333  1.5961  3.3661
64743SOL     OW 1343   7.108  12.343   6.129 -0.2188  0.3492 -0.1736
64743SOL    HW1 1344   7.020  12.380   6.120  0.8498  3.0897 -0.3637
64743SOL    HW2 1345   7.141  12.335   6.039 -0.4611 -1.2622 -0.1421
64744SOL     OW 1346  12.928   5.675   9.426  0.2775  0.1991  0.5610
64744SOL    HW1 1347  12.906   5.753   9.478 -1.5914  1.3476 -1.7314
64744SOL    HW2 1348  12.978   5.710   9.351 -0.7311 -0.7489 -0.5928
64745SOL     OW 1349   7.744   0.285  12.379  1.0290 -0.5967 -0.0210
64745SOL    HW1 1350   7.735   0.380  12.381  0.3643 -0.6013 -1.4612
64745SOL    HW2 1351   7.839   0.271  12.385  1.4545  0.3500 -2.7875
64746SOL     OW 1352   5.981  12.715   8.280 -0.0282 -0.5372  0.5423
64746SOL    HW1 1353   6.046  12.724   8.211 -0.3070  2.2834  0.5099
64746SOL    HW2 1354   5.972  12.621   8.294  3.4129 -1.0575 -0.0049
64747SOL     OW 1355  12.084   6.467   1.940 -0.0494 -0.0500  0.3550
64747SOL    HW1 1356  12.167   6.446   1.898 -0.7067 -1.4933 -0.2985
64747SOL    HW2 1357  12.070   6.397   2.003 -1.3444 -0.5259 -0.4216
64748SOL     OW 1358  12.808  11.143   7.064 -0.2099 -0.6190 -0.1560
64748SOL    HW1 1359  12.852  11.218   7.104 -0.7327 -0.3038 -0.1746
64748SOL    HW2 1360  12.842  11.068   7.113 -0.5537 -0.2718  0.6383
64749SOL     OW 1361   2.388   6.593   2.840  0.5350  0.6260  0.4291
64749SOL    HW1 1362   2.397   6.687   2.822 -1.7015  0.7677 -0.2409
64749SOL    HW2 1363   2.473   6.556   2.817  1.1719  2.3495 -0.1623
64750SOL     OW 1364  11.889   3.394   4.894 -0.0704 -0.4963 -0.2126
64750SOL    HW1 1365  11.983   3.379   4.907 -0.2914 -2.0561 -0.2207
64750SOL    HW2 1366  11.884   3.442   4.811  0.8085  1.4010  0.7819
64751SOL     OW 1367   4.890   0.452   1.387  0.1646 -0.2626  0.4808
64751SOL    HW1 1368   4.924   0.500   1.463 -0.6717  1.1861 -0.0084
64751SOL    HW2 1369   4.829   0.513   1.346 -1.0381 -1.8121 -0.1433
64752SOL     OW 1370   0.700   7.462   3.501 -0.4351  0.2792  0.1569
64752SOL    HW1 1371   0.794   7.446   3.497 -0.2120  1.6084 -0.5139
64752SOL    HW2 1372   0.660   7.379   3.477  0.5178 -0.6850  1.7263
64753SOL     OW 1373   0.501   3.998   3.331  0.0630 -0.4775  0.3787
64753SOL    HW1 1374   0.417   3.991   3.285  0.0697 -0.9608  0.4426
64753SOL    HW2 1375   0.557   4.047   3.270 -0.4918  0.5356  0.6540
64754SOL     OW 1376  12.560   4.940   7.093  0.5677 -0.0613 -0.3980
64754SOL    HW1 1377  12.579   4.933   7.187 -1.0773 -0.0837 -0.0402
64754SOL    HW2 1378  12.646   4.938   7.051  1.3624  0.3265  1.1309
64755SOL     OW 1379   6.293   5.235  11.006 -0.1786 -0.3076  0.8673
64755SOL    HW1 1380   6.234   5.293  11.053  0.1040 -0.5087  1.4799
64755SOL    HW2 1381   6.368   5.224  11.066  0.6755  0.2860 -0.0517
64756SOL     OW 1382  10.625   8.504  11.950 -0.1027  0.3828  0.1870
64756SOL    HW1 1383  10.716   8.479  11.935 -0.6208 -0.6938 -1.4233
64756SOL    HW2 1384  10.582   8.424  11.980 -0.9856  0.2672 -1.3055
64757SOL     OW 1385   0.261   9.941   6.853  0.0342 -0.3671 -0.0118
64757SOL    HW1 1386   0.234  10.012   6.911 -0.5549 -1.8591  1.6547
64757SOL    HW2 1387   0.357   9.941   6.857  0.0480  0.4246 -0.1755
64758SOL     OW 1388   9.592   0.795   0.600  0.0615 -0.2567  0.2482
64758SOL    HW1 1389   9.519   0.777   0.659 -2.1440  3.0254 -1.1647
64758SOL    HW2 1390   9.656   0.842   0.654 -0.5346  0.0265  0.7169
64759SOL     OW 1391  10.343  12.871   9.122 -0.0684 -0.3880 -0.2956
64759SOL    HW1 1392  10.288  12.913   9.056  1.4126  1.4118 -0.4574
64759SOL    HW2 1393  10.293  12.878   9.203  0.3662  2.4291 -0.1634
64760SOL     OW 1394   4.886   4.237   2.002 -0.2189  0.5844  0.1547
64760SOL    HW1 1395   4.795   4.262   2.015 -0.4429  0.4351 -1.0660
64760SOL    HW2 1396   4.894   4.219   1.909  1.0220  0.4271  0.2656
64761SOL     OW 1397  11.475   2.923   7.600  0.0147  0.3145  0.0464
64761SOL    HW1 1398  11.558   2.952   7.564  1.2842 -1.3701  1.4628
64761SOL    HW2 1399  11.421   2.902   7.523  0.5836  2.1118 -0.9002
64762SOL     OW 1400  10.907  11.135   0.210  0.0275 -0.7434 -0.1376
64762SOL    HW1 1401  10.834  11.166   0.263  1.5908  0.4974  1.4262
64762SOL    HW2 1402  10.886  11.043   0.192 -1.2784 -0.8036  1.3971
64763SOL     OW 1403  12.417   4.927   0.030 -0.1100 -0.0621  0.1755
64763SOL    HW1 1404  12.479   4.864  -0.006 -1.2252 -1.4465  0.6104
64763SOL    HW2 1405  12.462   4.963   0.106  0.8797  0.3333 -0.5649
64764SOL     OW 1406   1.522   8.647   7.831  0.3264  0.1038  0.0108
64764SOL    HW1 1407   1.519   8.742   7.842  1.7136 -0.0774  2.6742
64764SOL    HW2 1408   1.531   8.634   7.736  1.2982  2.6684 -0.3268
64765SOL     OW 1409  12.901   3.502   0.914  0.0904  0.2811  0.6694
64765SOL    HW1 1410  12.882   3.410   0.897 -0.5078  0.4866  0.2024
64765SOL    HW2 1411  12.975   3.500   0.975  0.8461 -0.5032 -0.2383
64766SOL     OW 1412   5.829   0.854   6.703 -0.2376 -0.0301  0.0595
64766SOL    HW1 1413   5.875   0.771   6.691  0.9126  0.2315  2.2196
64766SOL    HW2 1414   5.740   0.829   6.728  0.3017 -0.6507  1.4355
64767SOL     OW 1415   6.523   9.269  11.681 -0.4469 -0.5250 -0.1631
64767SOL    HW1 1416   6.475   9.301  11.605 -1.3938 -1.3213  0.0714
64767SOL    HW2 1417   6.476   9.190  11.707 -1.1427  0.5823  2.2281
64768SOL     OW 1418   8.982   1.306  11.666 -0.2568  0.7610 -0.6866
64768SOL    HW1 1419   8.962   1.290  11.758  2.6620 -0.6968 -0.2060
64768SOL    HW2 1420   9.002   1.400  11.662  1.4353  0.4986  0.6158
64769SOL     OW 1421   1.096   9.658   4.364 -0.0376 -0.6174 -0.1654
64769SOL    HW1 1422   1.020   9.711   4.342  0.1976 -0.4032 -0.4618
64769SOL    HW2 1423   1.128   9.626   4.280  0.7031 -0.0187 -0.1150
64770SOL     OW 1424  10.333  11.988   6.111 -0.2257  0.4010 -0.3276
64770SOL    HW1 1425  10.316  11.896   6.131 -2.2769  1.0894  1.5477
64770SOL    HW2 1426  10.247  12.029   6.113  0.6272  2.3594 -1.2585
64771SOL     OW 1427   8.471   2.969   0.246 -0.1902 -0.4122 -0.5005
64771SOL    HW1 1428   8.549   2.935   0.289 -0.0440 -0.8856 -1.1257
64771SOL    HW2 1429   8.480   3.064   0.251  0.4738 -0.4624 -0.6532
64772SOL     OW 1430   2.054  10.803   9.943 -1.1497 -0.7747  0.1938
64772SOL    HW1 1431   1.994  10.747   9.893  0.4924  0.0110 -2.9441
64772SOL    HW2 1432   2.139  10.759   9.937 -0.3753  0.6894 -0.0583
64773SOL     OW 1433   8.597   8.920   0.258 -0.1154 -0.4778 -0.1557
64773SOL    HW1 1434   8.633   8.841   0.219 -0.4764  0.4879 -2.5999
64773SOL    HW2 1435   8.656   8.990   0.230 -0.0409  0.2215  1.6017
64774SOL     OW 1436  12.777  10.602   4.966 -0.0116 -0.1397  0.6604
64774SOL    HW1 1437  12.708  10.666   4.987 -0.8646 -0.8817  0.1863
64774SOL    HW2 1438  12.854  10.656   4.946 -0.7113  0.7491  0.2645
64775SOL     OW 1439   8.567   2.303  11.893  0.2581 -0.4795  0.2015
64775SOL    HW1 1440   8.512   2.358  11.949  1.2997 -0.4138  1.1962
64775SOL    HW2 1441   8.543   2.328  11.804 -0.1323  0.7426  0.6307
64776SOL     OW 1442   4.389  10.848  12.771  0.2283  0.1991  0.3812
64776SOL    HW1 1443   4.332  10.824  12.844 -0.8897 -1.7200 -1.0240
64776SOL    HW2 1444   4.475  10.814  12.795 -0.0707 -0.1813  0.9352
64777SOL     OW 1445  11.772   5.250   5.350  0.5694  0.2169 -0.1557
64777SOL    HW1 1446  11.859   5.235   5.386  0.1861  0.1642  0.7631
64777SOL    HW2 1447  11.772   5.343   5.325  1.7608 -0.3535 -2.6262
64778SOL     OW 1448   2.217   7.855   1.122 -0.0822 -0.3068 -0.2501
64778SOL    HW1 1449   2.296   7.908   1.132  0.5627 -1.1056 -0.9405
64778SOL    HW2 1450   2.217   7.796   1.197 -0.3373  0.0797  0.0569
64779SOL     OW 1451   9.319   6.034   6.539  0.0119 -0.8556  0.5136
64779SOL    HW1 1452   9.276   5.953   6.565 -0.3771 -0.6913  0.3846
64779SOL    HW2 1453   9.260   6.074   6.475  0.3828 -0.6577  0.2879
64780SOL     OW 1454  11.823   2.229   5.006 -0.2893 -0.0199  0.1197
64780SOL    HW1 1455  11.809   2.167   5.078 -1.2423 -0.2947 -0.2924
64780SOL    HW2 1456  11.735   2.262   4.985  0.0859  0.7144 -0.3361
64781SOL     OW 1457   8.415   0.594   8.614  0.1091 -0.1387 -0.4957
64781SOL    HW1 1458   8.341   0.635   8.659  1.1491  0.1657  1.0034
64781SOL    HW2 1459   8.482   0.662   8.610  1.6906 -1.4437  1.6171
64782SOL     OW 1460   9.998  11.594   9.241 -0.2110 -0.4620  0.1510
64782SOL    HW1 1461  10.004  11.683   9.274  0.1183 -0.2000 -0.5857
64782SOL    HW2 1462   9.914  11.562   9.275  0.0088 -0.1377  1.0300
64783SOL     OW 1463   5.932   4.991  12.024 -0.0769  0.5793 -0.2379
64783SOL    HW1 1464   5.983   4.965  11.947  0.6716  0.5660  0.2510
64783SOL    HW2 1465   5.887   4.911  12.051 -0.0991  0.5101 -0.4814
64784SOL     OW 1466   2.317  10.957  12.194  0.0884  0.2904 -0.1464
64784SOL    HW1 1467   2.282  10.897  12.260  1.5868  0.3314  0.7257
64784SOL    HW2 1468   2.286  11.043  12.223  0.3061  0.2496  0.2180
64785SOL     OW 1469   0.482   3.684   3.185  0.1696  0.2941 -0.1884
64785SOL    HW1 1470   0.407   3.744   3.185  1.3644  1.8454  0.0256
64785SOL    HW2 1471   0.494   3.662   3.277  1.0936  1.5685  0.0328
64786SOL     OW 1472   7.593   2.430   4.714 -0.7048  0.3660  0.6558
64786SOL    HW1 1473   7.510   2.460   4.676 -1.3081 -1.9595 -0.0254
64786SOL    HW2 1474   7.619   2.357   4.658  1.4379  0.5666  1.3221
64787SOL     OW 1475   2.473   2.125   1.939  0.1651 -0.4705 -0.5922
64787SOL    HW1 1476   2.411   2.092   1.874 -1.0979 -0.3672  0.5216
64787SOL    HW2 1477   2.503   2.209   1.905  0.1323 -0.7812 -1.4022
64788SOL     OW 1478   8.994   6.077   2.995 -0.0312 -0.3807 -0.0249
64788SOL    HW1 1479   9.079   6.041   2.968 -0.1185  0.2011 -1.1534
64788SOL    HW2 1480   8.985   6.051   3.086  1.4671 -0.2612  0.1841
64789SOL     OW 1481  10.735   1.388  11.391 -0.1600  0.1419 -0.4262
64789SOL    HW1 1482  10.679   1.407  11.316  0.2309 -0.1438 -0.7931
64789SOL    HW2 1483  10.806   1.335  11.355  1.7211  2.5430 -0.5028
64790SOL     OW 1484   0.018   4.506  11.120  0.2808  0.5049  0.4866
64790SOL    HW1 1485   0.033   4.475  11.210 -1.2507  0.0231  0.6052
64790SOL    HW2 1486  -0.077   4.503  11.109  0.3520  1.6722 -0.7740
64791SOL     OW 1487  10.846   1.791  12.952  0.0905 -0.1478 -0.4020
64791SOL    HW1 1488  10.784   1.863  12.966 -0.2647 -0.3459 -0.9360
64791SOL    HW2 1489  10.798   1.712  12.976  0.8802 -0.1263  1.4026
64792SOL     OW 1490   5.128   6.591   0.438  0.9271 -0.2842  0.3278
64792SOL    HW1 1491   5.209   6.597   0.488  1.5221 -0.0588 -0.6447
64792SOL    HW2 1492   5.130   6.667   0.380 -0.3124  0.1070  0.7486
64793SOL     OW 1493   1.790   6.436   6.650 -0.2986  0.5009 -0.1926
64793SOL    HW1 1494   1.834   6.394   6.723  0.8178  0.8871 -0.6174
64793SOL    HW2 1495   1.826   6.525   6.648  0.3836  0.2363 -1.7213
64794SOL     OW 1496   7.399   9.562   8.997  0.4437 -0.8034 -0.2355
64794SOL    HW1 1497   7.356   9.511   9.066 -2.0034  0.2266 -0.8819
64794SOL    HW2 1498   7.392   9.653   9.026 -2.0414 -0.1678 -2.3978
64795SOL     OW 1499   2.201   4.399   2.051  0.8986 -0.3309  0.2386
64795SOL    HW1 1500   2.209   4.310   2.085  0.7052  0.0790  1.3765
64795SOL    HW2 1501   2.246   4.454   2.115  1.9114  0.2983 -0.9626
64796SOL     OW 1502  10.159   5.473   5.132  0.0286 -0.4023  0.3407
64796SOL    HW1 1503  10.138   5.381   5.148  0.4069 -0.6781 -0.6492
64796SOL    HW2 1504  10.141   5.485   5.038  0.6452  0.3498  0.3113
64797SOL     OW 1505   4.908   8.685   4.101 -0.1928  0.3971 -0.2143
64797SOL    HW1 1506   4.987   8.635   4.080 -1.9133 -3.3735  1.4502
64797SOL    HW2 1507   4.940   8.758   4.154  2.2379 -0.8844  0.2480
64798SOL     OW 1508   9.232   4.283   8.942  0.0357 -0.5294  0.2714
64798SOL    HW1 1509   9.317   4.320   8.918 -0.8188  0.3245 -1.6496
64798SOL    HW2 1510   9.168   4.346   8.909 -1.4363 -2.6881 -1.2308
64799SOL     OW 1511   7.854   3.474   7.931  0.1123  0.1869  0.3531
64799SOL    HW1 1512   7.792   3.485   7.859  0.6057  0.0390 -0.1026
64799SOL    HW2 1513   7.887   3.562   7.949 -0.4859  0.3138  0.8276
64800SOL     OW 1514   4.933   8.869   7.948  0.4961  0.2041 -0.0050
64800SOL    HW1 1515   4.922   8.954   7.989  1.2087  0.3585 -0.1170
64800SOL    HW2 1516   5.022   8.872   7.910  1.1994 -1.1861  1.4346
64801SOL     OW 1517  11.518   4.875   3.716 -0.0920  0.3455  0.1438
64801SOL    HW1 1518  11.429   4.906   3.700 -0.3992 -0.9895 -0.8897
64801SOL    HW2 1519  11.508   4.814   3.789 -0.3594 -1.1405 -1.0800
64802SOL     OW 1520  11.069   4.195   5.738  0.0458  0.2721  0.7837
64802SOL    HW1 1521  11.031   4.150   5.814 -0.8688  0.0097  0.1840
64802SOL    HW2 1522  11.147   4.144   5.718 -1.5541 -1.8432 -0.5869
64803SOL     OW 1523   5.467   6.070   0.034  0.1770  0.0292  0.0034
64803SOL    HW1 1524   5.527   6.048  -0.037  0.7639  1.6579 -0.0516
64803SOL    HW2 1525   5.523   6.079   0.111 -0.2903 -0.5440  0.4163
64804SOL     OW 1526  12.749   3.328   3.042  0.0249  0.2289  0.3066
64804SOL    HW1 1527  12.786   3.324   3.130  0.8254 -1.8155 -0.0591
64804SOL    HW2 1528  12.657   3.303   3.054  0.1224 -0.0043  0.5895
64805SOL     OW 1529   2.681   8.971   7.531 -0.0764 -0.0712  0.3839
64805SOL    HW1 1530   2.693   8.894   7.586 -1.3437 -0.1257  0.6165
64805SOL    HW2 1531   2.630   8.940   7.456  1.3332  0.0727 -0.6795
64806SOL     OW 1532   7.343   0.579   8.956  0.0786 -0.0229  0.2166
64806SOL    HW1 1533   7.303   0.629   8.885  2.4072  0.6775 -0.6971
64806SOL    HW2 1534   7.381   0.645   9.013  3.7458 -0.5580 -1.3323
64807SOL     OW 1535   2.011   6.869   2.336 -0.0679  0.2538  1.0799
64807SOL    HW1 1536   1.930   6.894   2.292  0.8374  0.2048 -0.7326
64807SOL    HW2 1537   2.073   6.937   2.312  1.0611 -0.9710  0.3687
64808SOL     OW 1538   2.045   9.377   3.626 -0.0574  0.1472 -0.3335
64808SOL    HW1 1539   2.078   9.450   3.679 -0.3357  0.2643 -0.3181
64808SOL    HW2 1540   2.089   9.300   3.661 -0.0799  0.2538 -0.0703
64809SOL     OW 1541   9.974   7.927   3.889  0.1815 -0.3338 -0.2365
64809SOL    HW1 1542  10.059   7.944   3.848  1.0135 -2.5041  0.4485
64809SOL    HW2 1543   9.958   7.834   3.874 -1.3988 -0.2937  0.8974
64810SOL     OW 1544  11.607   2.202   0.889 -0.0884  0.5450 -0.8991
64810SOL    HW1 1545  11.593   2.272   0.824 -0.1858  1.8986  0.5104
64810SOL    HW2 1546  11.676   2.236   0.945 -0.9557  0.0273  0.5309
64811SOL     OW 1547   6.901  11.140   6.964 -0.5595 -0.4065 -0.3267
64811SOL    HW1 1548   6.858  11.211   7.010  1.2451  0.5180  0.0394
64811SOL    HW2 1549   6.922  11.076   7.032  0.9834  0.3875  0.0024
64812SOL     OW 1550   4.509   6.159   7.973 -0.1623 -0.1433 -0.3208
64812SOL    HW1 1551   4.599   6.187   7.994 -0.4400  0.0344  0.6863
64812SOL    HW2 1552   4.509   6.065   7.990 -0.1329 -0.1677 -0.4547
64813SOL     OW 1553   2.230   7.098   7.632 -0.1415  0.2996  0.1159
64813SOL    HW1 1554   2.166   7.027   7.636  0.7586 -0.8193 -2.7859
64813SOL    HW2 1555   2.314   7.055   7.648  0.2785  0.9648 -0.2823
64814SOL     OW 1556   9.537   5.754   4.599 -0.8725  0.0887  0.3831
64814SOL    HW1 1557   9.531   5.849   4.605 -0.7072  0.0334  1.9010
64814SOL    HW2 1558   9.602   5.730   4.665 -0.6947 -1.0519 -0.1926
64815SOL     OW 1559  11.635   0.209   8.509 -0.2739 -0.6720  0.0353
64815SOL    HW1 1560  11.581   0.136   8.477 -0.1957 -1.8219  2.3692
64815SOL    HW2 1561  11.704   0.218   8.443 -0.7672 -2.1241 -0.7252
64816SOL     OW 1562  10.160   6.468   2.430  0.0719 -0.8582 -0.3400
64816SOL    HW1 1563  10.236   6.492   2.483  0.6522  1.6594 -2.1245
64816SOL    HW2 1564  10.147   6.375   2.446  0.4092 -0.3675  3.8767
64817SOL     OW 1565   6.028  10.251  11.840 -0.1441 -0.1128  0.0533
64817SOL    HW1 1566   5.945  10.226  11.881  0.1052 -1.6431 -0.3151
64817SOL    HW2 1567   6.074  10.302  11.906  0.1184 -2.2393  1.6090
64818SOL     OW 1568  11.261   1.977   8.615  0.3369  0.2278 -0.1117
64818SOL    HW1 1569  11.196   1.919   8.654  1.0938 -1.1515 -0.8347
64818SOL    HW2 1570  11.209   2.050   8.580 -0.5281  0.5123  1.6678
64819SOL     OW 1571   5.578  10.394   3.841  0.2374  0.4061  0.6138
64819SOL    HW1 1572   5.488  10.425   3.855 -0.1587 -0.4480  0.0258
64819SOL    HW2 1573   5.612  10.452   3.773  0.4661  1.3416  1.5069
64820SOL     OW 1574   8.266   2.896   2.064 -0.9996  0.5078  0.2048
64820SOL    HW1 1575   8.311   2.816   2.037 -1.0905  0.5362 -0.0257
64820SOL    HW2 1576   8.269   2.893   2.160 -1.0124  0.2226  0.1977
64821SOL     OW 1577   6.713  11.124   3.141 -0.2368 -0.4322 -0.0187
64821SOL    HW1 1578   6.664  11.136   3.223 -1.1314 -1.3893 -0.3980
64821SOL    HW2 1579   6.716  11.212   3.103 -1.8441 -0.3764 -0.0796
64822SOL     OW 1580   0.973   6.944   6.365  0.2052  0.1051  0.2804
64822SOL    HW1 1581   1.040   6.937   6.297 -0.8464  0.8426 -0.8815
64822SOL    HW2 1582   0.968   6.856   6.403  2.4358  0.2556  1.0334
64823SOL     OW 1583  10.140   0.671   8.135 -0.2559 -0.1081  0.3055
64823SOL    HW1 1584  10.072   0.654   8.070 -0.4583  0.5777  0.3286
64823SOL    HW2 1585  10.125   0.605   8.203 -0.4856 -0.3757 -0.0002
64824SOL     OW 1586  11.779   6.458   3.300 -0.7636  0.1825  0.0985
64824SOL    HW1 1587  11.850   6.441   3.238 -0.9769 -1.1971  0.1997
64824SOL    HW2 1588  11.727   6.526   3.258  0.0368  0.4771 -0.4487
64825SOL     OW 1589   3.020   8.971   2.161  0.2013 -0.2383  0.0312
64825SOL    HW1 1590   3.076   8.954   2.085  0.8343 -1.4845  0.7469
64825SOL    HW2 1591   3.058   9.048   2.202 -1.7652  2.2245 -2.3891
64826SOL     OW 1592   7.247   8.079   3.687 -0.6172  0.2965 -0.4242
64826SOL    HW1 1593   7.157   8.111   3.699 -0.7053  0.3479 -1.1637
64826SOL    HW2 1594   7.264   8.090   3.593  1.5643  4.0120  0.2036
64827SOL     OW 1595  11.437   0.755   1.579 -0.2164 -0.7149  0.0128
64827SOL    HW1 1596  11.405   0.722   1.662  0.8291 -2.0322 -0.0804
64827SOL    HW2 1597  11.511   0.812   1.602 -0.2001 -0.7318  0.0027
64828SOL     OW 1598   0.218   9.574  10.886  0.1474  0.0463 -0.3379
64828SOL    HW1 1599   0.218   9.544  10.976 -0.8496 -0.1840 -0.4070
64828SOL    HW2 1600   0.311   9.582  10.863  0.4269  1.3005  1.0846
64829SOL     OW 1601  12.345   7.189  12.247  0.0737  0.0284  0.2132
64829SOL    HW1 1602  12.418   7.204  12.306 -0.6692 -1.7607  1.6815
64829SOL    HW2 1603  12.342   7.267  12.191  2.8089  0.3184  0.3669
64830SOL     OW 1604   4.848   8.244  10.039 -0.0980  0.8327  0.0437
64830SOL    HW1 1605   4.764   8.282  10.013 -1.0049 -2.0039 -1.6746
64830SOL    HW2 1606   4.859   8.270  10.130 -2.3247  2.1849  0.0028
64831SOL     OW 1607   1.430  12.262  12.449 -0.6640  0.0984 -0.3274
64831SOL    HW1 1608   1.447  12.224  12.363  0.9710  1.1228 -0.4896
64831SOL    HW2 1609   1.467  12.350  12.445 -1.7095  0.6429  1.0129
64832SOL     OW 1610   6.606  10.233   4.643  0.2452  0.2817 -0.0620
64832SOL    HW1 1611   6.534  10.185   4.603 -0.4249  1.5275 -0.3888
64832SOL    HW2 1612   6.604  10.208   4.735 -1.5546  1.3855  0.2478
64833SOL     OW 1613   3.580  12.863   1.200  0.4882  0.0635  0.1065
64833SOL    HW1 1614   3.578  12.922   1.276  1.7276 -0.3287  0.4707
64833SOL    HW2 1615   3.489  12.841   1.184  0.2617 -1.2012  2.5866
64834SOL     OW 1616   9.692   5.232  12.806  0.1633 -0.0748  0.7701
64834SOL    HW1 1617   9.601   5.206  12.794 -0.0193  0.0930  1.7214
64834SOL    HW2 1618   9.743   5.156  12.779 -0.1798  0.4029 -1.3813
64835SOL     OW 1619   4.030  12.097   8.797  0.5371  0.2955 -0.1865
64835SOL    HW1 1620   4.051  12.072   8.887 -0.1603 -0.2605 -0.1717
64835SOL    HW2 1621   4.098  12.055   8.744  0.7643  0.3625  0.0496
64836SOL     OW 1622   3.558   9.740  11.153 -0.0640  0.2104 -0.0636
64836SOL    HW1 1623   3.528   9.821  11.110  3.0796  2.5056  1.6125
64836SOL    HW2 1624   3.614   9.698  11.089 -0.7272  0.0255 -0.5237
64837SOL     OW 1625  12.827   9.557  11.098  0.3437 -0.1460  0.2813
64837SOL    HW1 1626  12.766   9.523  11.164 -0.7492  3.7287  1.5618
64837SOL    HW2 1627  12.913   9.550  11.138  0.8421 -4.5175 -1.0431
64838SOL     OW 1628   2.620  10.571  12.148 -0.5765  0.4677  0.1048
64838SOL    HW1 1629   2.592  10.657  12.179 -1.1621  0.6933 -1.0302
64838SOL    HW2 1630   2.704  10.587  12.106  0.7941 -0.0176  2.4373
64839SOL     OW 1631   2.179   6.664   0.960  0.3478 -0.0505 -0.2841
64839SOL    HW1 1632   2.248   6.701   1.015 -0.4100  0.3703  0.3998
64839SOL    HW2 1633   2.155   6.582   1.004  0.0747  0.0495 -0.2446
64840SOL     OW 1634   9.389   7.213  11.498 -0.1421 -0.6244  0.2629
64840SOL    HW1 1635   9.321   7.270  11.534  1.7646  2.1604 -0.2208
64840SOL    HW2 1636   9.444   7.190  11.572 -0.8916 -1.9202  0.4523
64841SOL     OW 1637   7.298   2.197  12.193  0.4447  0.3615 -0.3966
64841SOL    HW1 1638   7.361   2.132  12.224 -1.4894  0.3023  4.1951
64841SOL    HW2 1639   7.228   2.146  12.153  0.4830 -0.1129  0.1311
64842SOL     OW 1640   0.405   5.866  11.338  0.5916 -0.4572  0.4614
64842SOL    HW1 1641   0.458   5.786  11.346 -0.7313 -1.4544 -0.3399
64842SOL    HW2 1642   0.378   5.868  11.247 -2.0135 -0.8735  1.1340
64843SOL     OW 1643   3.082   3.576   7.479 -0.1206  0.1620 -0.3813
64843SOL    HW1 1644   3.104   3.572   7.572 -0.1837 -0.6937 -0.3985
64843SOL    HW2 1645   2.987   3.568   7.476  0.0374 -2.2182 -0.6287
64844SOL     OW 1646   5.624  12.268  12.151 -0.2956 -0.3699 -0.8617
64844SOL    HW1 1647   5.597  12.185  12.111 -0.2611  0.1245 -1.9524
64844SOL    HW2 1648   5.546  12.300  12.195 -0.3525 -0.9013 -0.5633
64845SOL     OW 1649   0.830  11.997   3.518  0.1496  0.0958  0.0207
64845SOL    HW1 1650   0.824  11.901   3.521 -0.9737  0.1463 -0.0214
64845SOL    HW2 1651   0.876  12.016   3.437 -0.6242 -0.3925 -0.5525
64846SOL     OW 1652   3.162   1.021  10.201  0.0155 -0.0330 -0.2625
64846SOL    HW1 1653   3.225   0.957  10.234  0.8256  0.6645 -0.4244
64846SOL    HW2 1654   3.076   0.983  10.220  0.4855 -0.9483  0.0554
64847SOL     OW 1655   9.417   0.958   2.130  0.1211  0.0739 -0.4581
64847SOL    HW1 1656   9.478   0.894   2.093  0.9106  1.0309 -0.8500
64847SOL    HW2 1657   9.454   1.043   2.106  0.0342  0.7130  1.5093
64848SOL     OW 1658   9.392   9.050   1.026 -0.3295 -0.6242 -0.2385
64848SOL    HW1 1659   9.435   8.966   1.043 -0.4337 -0.7157 -0.4302
64848SOL    HW2 1660   9.438   9.112   1.083 -0.4819 -0.8753  0.1656
64849SOL     OW 1661   5.131   7.243   9.002 -0.7656 -0.9990  0.1872
64849SOL    HW1 1662   5.162   7.155   9.026 -0.7271 -1.1016 -0.2337
64849SOL    HW2 1663   5.049   7.227   8.955 -1.0704 -0.7715  0.6397
64850SOL     OW 1664   7.068  12.343   1.863 -0.7410  0.1331  0.0345
64850SOL    HW1 1665   7.127  12.314   1.933  0.5039 -1.0766 -1.4412
64850SOL    HW2 1666   7.009  12.269   1.849 -1.0388  0.4028 -0.1434
64851SOL     OW 1667  10.675   4.448   4.294  0.0460 -0.1980 -0.1500
64851SOL    HW1 1668  10.616   4.374   4.279 -0.5200  0.0115  0.9406
64851SOL    HW2 1669  10.758   4.408   4.318 -0.5107 -0.5042  1.3657
64852SOL     OW 1670  10.443  12.650   6.109  0.5618 -0.1600 -0.1765
64852SOL    HW1 1671  10.367  12.622   6.159  0.2847  0.6741 -0.1208
64852SOL    HW2 1672  10.513  12.592   6.138  0.0008 -0.7952 -0.0771
64853SOL     OW 1673   9.541   3.075  10.783  0.0883 -0.4740 -0.1942
64853SOL    HW1 1674   9.579   2.988  10.780  1.9294  0.2855 -0.4444
64853SOL    HW2 1675   9.448   3.060  10.796  0.7027 -2.4582  3.3017
64854SOL     OW 1676   7.949   0.977  10.402 -0.1740 -0.2994 -0.4164
64854SOL    HW1 1677   8.018   0.962  10.338 -0.0683  3.1351 -1.3136
64854SOL    HW2 1678   7.988   1.040  10.464 -1.6977 -0.2069  0.4993
64855SOL     OW 1679   7.858   8.426   9.910 -0.0995 -0.6895  0.2110
64855SOL    HW1 1680   7.798   8.442   9.983  1.0339 -0.4303  1.1144
64855SOL    HW2 1681   7.939   8.472   9.935  0.9198 -2.1104 -0.3570
64856SOL     OW 1682   2.345   1.782   1.471 -0.2197 -0.9147  0.3594
64856SOL    HW1 1683   2.268   1.798   1.524  1.3714 -0.9430  2.8537
64856SOL    HW2 1684   2.419   1.804   1.528  1.6497 -1.5393 -1.6600
64857SOL     OW 1685   5.778   2.425   2.170  0.2895 -0.1499  0.0366
64857SOL    HW1 1686   5.741   2.510   2.194 -1.7758 -1.3595  1.3541
64857SOL    HW2 1687   5.703   2.373   2.141  1.3450 -1.8729  0.2543
64858SOL     OW 1688   8.540   5.277   2.118  0.3020  0.1372 -0.1493
64858SOL    HW1 1689   8.509   5.190   2.142  1.8648 -0.6245 -0.7046
64858SOL    HW2 1690   8.486   5.303   2.043  0.2429 -0.6436 -0.3810
64859SOL     OW 1691   7.218   5.238   9.132  0.0712  0.2795 -0.2480
64859SOL    HW1 1692   7.175   5.283   9.059  0.5957  1.3309  0.0790
64859SOL    HW2 1693   7.306   5.275   9.134  0.2315 -0.1356  0.5764
64860SOL     OW 1694   9.444   6.302   8.512 -0.1211  0.5456  0.2954
64860SOL    HW1 1695   9.399   6.384   8.492 -0.8357  0.1397  0.2234
64860SOL    HW2 1696   9.510   6.294   8.443 -0.6337  0.6264 -0.2181
64861SOL     OW 1697   4.566  12.883   2.270  0.0871 -0.4894 -0.6274
64861SOL    HW1 1698   4.581  12.796   2.233 -1.1460 -0.9483 -0.0991
64861SOL    HW2 1699   4.489  12.873   2.325  0.4737  0.7329  0.1873
64862SOL     OW 1700  10.224  11.461   9.155 -0.0968  0.0686  0.6995
64862SOL    HW1 1701  10.153  11.509   9.198 -0.5680 -1.5425  1.8184
64862SOL    HW2 1702  10.260  11.405   9.223  2.1760  0.7093  0.1051
64863SOL     OW 1703   1.144   0.343   0.569  0.2814  0.1727 -0.0784
64863SOL    HW1 1704   1.080   0.272   0.572 -0.3583  0.7626  0.5308
64863SOL    HW2 1705   1.189   0.338   0.653 -0.1056  0.7808  0.1753
64864SOL     OW 1706   3.004   9.465   0.838 -0.1063  0.0999  0.1451
64864SOL    HW1 1707   2.935   9.477   0.773  0.5992 -0.5024 -0.7453
64864SOL    HW2 1708   3.084   9.454   0.786  0.5804  0.2908  1.1413
64865SOL     OW 1709   7.007   4.953   9.891 -0.4614  0.2797 -0.0031
64865SOL    HW1 1710   6.975   4.930   9.804  1.0051 -1.0154 -0.2493
64865SOL    HW2 1711   6.928   4.963   9.944 -1.3673  0.9447 -1.4248
64866SOL     OW 1712  10.876  11.021   1.380  0.1445  0.0167 -0.7582
64866SOL    HW1 1713  10.807  11.048   1.441  0.7197 -1.6197  0.6829
64866SOL    HW2 1714  10.948  11.082   1.396  0.1035 -0.0871 -0.1415
64867SOL     OW 1715   8.671   3.050   5.158 -0.5319  0.1421 -0.4909
64867SOL    HW1 1716   8.728   3.042   5.082  0.2300  0.2748  0.0598
64867SOL    HW2 1717   8.729   3.074   5.230 -1.0588 -1.1226  0.3988
64868SOL     OW 1718   3.577  10.988   7.116  0.0394 -0.2337 -0.1817
64868SOL    HW1 1719   3.546  10.902   7.146  0.2203 -0.3431 -0.3019
64868SOL    HW2 1720   3.600  10.974   7.024 -1.5500  0.3739 -0.7025
64869SOL     OW 1721   1.139   9.560  11.451  0.0646  0.3131 -0.1135
64869SOL    HW1 1722   1.098   9.647  11.451 -1.3790 -0.3226  1.0580
64869SOL    HW2 1723   1.104   9.517  11.529  0.4002 -1.4887 -0.9049
64870SOL     OW 1724   4.382   1.577  10.868  0.0342 -0.3820  0.1423
64870SOL    HW1 1725   4.307   1.520  10.884 -0.1128 -0.4701 -0.8080
64870SOL    HW2 1726   4.445   1.523  10.821 -0.1829  0.2654 -0.9368
64871SOL     OW 1727   9.231   8.531  11.070 -0.6894  0.5676  0.2491
64871SOL    HW1 1728   9.187   8.509  11.153 -1.4740  1.9320  0.2203
64871SOL    HW2 1729   9.294   8.460  11.057  0.1407  0.8126  2.5058
64872SOL     OW 1730   5.062   7.114   4.643 -0.3474 -0.1409  0.1549
64872SOL    HW1 1731   5.154   7.112   4.671  0.1205  1.1290 -1.1489
64872SOL    HW2 1732   5.038   7.206   4.650 -1.0916 -0.2566 -0.8238
64873SOL     OW 1733   6.838   7.029   9.951  0.8521  0.5714  0.0398
64873SOL    HW1 1734   6.921   7.053   9.992  1.1440 -0.0570 -0.1776
64873SOL    HW2 1735   6.852   7.043   9.857  0.9162 -0.0985 -0.0572
64874SOL     OW 1736   5.624  12.883  12.696 -0.1116 -0.1448 -0.2191
64874SOL    HW1 1737   5.530  12.867  12.684 -0.1040 -0.3610  0.0083
64874SOL    HW2 1738   5.631  12.978  12.708 -0.2489 -0.0691 -0.7189
64875SOL     OW 1739  11.203  12.001   7.551 -1.3785  0.2035  0.0257
64875SOL    HW1 1740  11.145  12.019   7.624 -0.7536  2.3227  0.0469
64875SOL    HW2 1741  11.178  12.063   7.483 -0.0108  0.2844 -0.4462
64876SOL     OW 1742   6.089   3.349   5.528 -0.3548  0.7217 -0.1263
64876SOL    HW1 1743   6.115   3.257   5.524 -2.5225 -0.0260  1.3233
64876SOL    HW2 1744   6.159   3.391   5.578  0.5948 -0.1345 -0.6846
64877SOL     OW 1745   8.872  10.039   9.779 -0.3026  0.4414 -0.0821
64877SOL    HW1 1746   8.915   9.953   9.780  0.3803  0.7739 -0.7440
64877SOL    HW2 1747   8.943  10.102   9.790 -0.7368  0.9511 -0.1802
64878SOL     OW 1748   7.578  12.236  12.874 -0.2287 -0.4182  0.3563
64878SOL    HW1 1749   7.617  12.165  12.925 -0.5255 -0.7571  0.1146
64878SOL    HW2 1750   7.647  12.262  12.812  0.1166 -0.0337  0.8942
64879SOL     OW 1751   9.710   1.030   7.902  1.2062 -0.3594  0.3701
64879SOL    HW1 1752   9.755   1.006   7.983 -0.5024 -2.0884  0.8685
64879SOL    HW2 1753   9.634   1.079   7.931  1.5619  0.6466 -0.3398
64880SOL     OW 1754   4.586   9.154   2.978  0.0307  0.0326 -0.3896
64880SOL    HW1 1755   4.591   9.197   2.892 -0.7649 -0.8667 -0.9120
64880SOL    HW2 1756   4.660   9.094   2.980  0.3661  0.4516 -0.2186
64881SOL     OW 1757   5.207  11.872   5.375 -0.4342  0.2647 -0.0440
64881SOL    HW1 1758   5.203  11.837   5.286  0.9618 -0.0789  0.0065
64881SOL    HW2 1759   5.211  11.967   5.364 -0.1236  0.2137 -0.3427
64882SOL     OW 1760   6.309   0.135   4.111  0.6537 -0.1593 -0.5488
64882SOL    HW1 1761   6.215   0.118   4.125  0.6118  0.7740  0.4527
64882SOL    HW2 1762   6.319   0.135   4.016 -0.6681  1.1692 -0.7446
64883SOL     OW 1763  11.482   9.852   9.455  0.0609 -0.4315 -0.0107
64883SOL    HW1 1764  11.449   9.808   9.533 -1.0915 -1.1879 -0.8875
64883SOL    HW2 1765  11.426   9.820   9.384  2.0016 -0.9264 -1.3938
64884SOL     OW 1766  12.421  12.602   7.160  0.1222 -0.1881 -0.1649
64884SOL    HW1 1767  12.387  12.599   7.250  0.2241 -0.7285 -0.1439
64884SOL    HW2 1768  12.371  12.672   7.118 -0.3847 -0.3749  0.1246
64885SOL     OW 1769   0.502   0.611   3.966 -0.1104 -0.0438  0.0409
64885SOL    HW1 1770   0.411   0.581   3.972  0.4892 -2.0000  0.2225
64885SOL    HW2 1771   0.553   0.534   3.990  1.6211  0.7534 -0.9411
64886SOL     OW 1772  11.242   7.597   9.890 -0.2818  0.0837  0.1907
64886SOL    HW1 1773  11.290   7.617   9.809  0.9486 -1.3149  0.5104
64886SOL    HW2 1774  11.280   7.514   9.919 -0.0305  1.0051  2.7088
64887SOL     OW 1775  11.628  12.361  10.954 -0.2065 -0.3343 -0.6259
64887SOL    HW1 1776  11.595  12.339  10.866 -1.0502  0.3164 -0.4832
64887SOL    HW2 1777  11.719  12.331  10.953 -0.6659 -1.8251 -1.1683
64888SOL     OW 1778   3.249   5.998   7.464  0.4904  0.5495  0.0809
64888SOL    HW1 1779   3.234   5.972   7.374  0.6389 -0.7840  0.4254
64888SOL    HW2 1780   3.301   6.078   7.458  0.8861  0.2228 -0.9958
64889SOL     OW 1781  11.920   2.682   1.616 -0.5511 -1.1858 -0.3532
64889SOL    HW1 1782  11.856   2.708   1.682  0.3439 -1.0979  0.5095
64889SOL    HW2 1783  12.001   2.725   1.643 -0.1299 -1.2562 -1.4472
64890SOL     OW 1784  12.046   9.378   8.549 -0.1876 -0.4874  0.2196
64890SOL    HW1 1785  12.120   9.421   8.506 -0.3365 -0.5681 -0.1238
64890SOL    HW2 1786  12.051   9.287   8.519  0.7771 -0.9998  1.8034
64891SOL     OW 1787   4.897   8.497   1.553 -0.0789 -0.7730 -0.7098
64891SOL    HW1 1788   4.863   8.548   1.479 -3.2992  1.0099  1.7418
64891SOL    HW2 1789   4.844   8.417   1.554 -2.5056  0.6946  1.3987
64892SOL     OW 1790   6.792  10.990   3.557  0.2820  0.5261  0.1397
64892SOL    HW1 1791   6.699  10.994   3.579  0.3388  1.5875  0.2507
64892SOL    HW2 1792   6.797  10.928   3.484 -0.3339 -0.5233  0.9680
64893SOL     OW 1793   9.584   1.274   5.490  0.5289 -0.6803 -0.1763
64893SOL    HW1 1794   9.523   1.201   5.485  1.8015 -1.7360 -0.7798
64893SOL    HW2 1795   9.535   1.349   5.456 -0.3158 -1.5795 -0.9921
64894SOL     OW 1796   3.873   7.887   4.835  0.2828  0.3304  0.0581
64894SOL    HW1 1797   3.871   7.856   4.744 -1.0257 -1.2371  0.5862
64894SOL    HW2 1798   3.951   7.848   4.872  1.2908  1.6471 -0.5706
64895SOL     OW 1799   5.013  11.867   8.353 -0.3151 -0.1441 -0.1341
64895SOL    HW1 1800   5.071  11.877   8.429  1.5758  0.4782 -1.5742
64895SOL    HW2 1801   5.005  11.773   8.340  3.0973 -0.3548 -1.7589
64896SOL     OW 1802   9.378  12.822   7.642  0.4926  0.8978 -0.0205
64896SOL    HW1 1803   9.301  12.831   7.698 -0.5227  0.7396 -1.3690
64896SOL    HW2 1804   9.438  12.890   7.674 -0.1511  0.9545  1.1077
64897SOL     OW 1805  11.268   3.609   5.842 -0.0937 -0.1104 -0.5325
64897SOL    HW1 1806  11.273   3.540   5.908  0.1286 -1.5474 -1.9910
64897SOL    HW2 1807  11.195   3.583   5.786 -0.7228  1.4512 -0.4801
64898SOL     OW 1808   8.730   5.353   0.875 -0.4086 -0.0301 -0.7908
64898SOL    HW1 1809   8.790   5.411   0.921 -1.4891 -0.2253  0.9463
64898SOL    HW2 1810   8.786   5.294   0.826  0.8220  0.0040  0.5218
64899SOL     OW 1811   1.072   7.399   4.168 -0.5626 -0.4555 -0.2244
64899SOL    HW1 1812   1.055   7.444   4.085 -0.0519 -0.8736 -0.5679
64899SOL    HW2 1813   1.010   7.325   4.168 -1.3382  0.1871  0.2967
64900SOL     OW 1814   4.303  11.367   0.683  0.0341 -0.0295 -0.1500
64900SOL    HW1 1815   4.239  11.437   0.668 -0.2383 -0.1699  0.3488
64900SOL    HW2 1816   4.318  11.330   0.596 -1.9367 -1.1808 -0.0586
64901SOL     OW 1817   1.436   2.264   9.891  0.2800 -0.1152  0.0103
64901SOL    HW1 1818   1.477   2.201   9.832 -1.9154 -1.9813  0.3557
64901SOL    HW2 1819   1.365   2.303   9.840  1.0782  1.5261  0.0810
64902SOL     OW 1820   7.034   6.938   0.046  0.1573 -0.1152  0.1259
64902SOL    HW1 1821   6.988   6.856   0.061  0.2976 -0.0760  0.7903
64902SOL    HW2 1822   7.069   6.930  -0.043 -0.9767 -0.2047 -0.3272
64903SOL     OW 1823   6.562   2.093  10.756  0.0442 -0.0284 -0.1162
64903SOL    HW1 1824   6.522   2.180  10.756 -0.2695 -0.1420  1.3967
64903SOL    HW2 1825   6.492   2.034  10.785  0.1568 -0.8546 -1.4456
64904SOL     OW 1826   7.772   3.758   6.033 -0.4313  0.5324 -0.0111
64904SOL    HW1 1827   7.754   3.772   6.127  1.2796  2.7309  0.0690
64904SOL    HW2 1828   7.865   3.737   6.029 -0.7230 -0.6756 -1.1736
64905SOL     OW 1829   7.197   8.155   5.071  0.2442  0.0459 -0.6327
64905SOL    HW1 1830   7.210   8.084   5.134  0.1884 -0.5199 -1.2599
64905SOL    HW2 1831   7.234   8.232   5.115  0.2539 -0.3505  0.0722
64906SOL     OW 1832   3.941  10.085   2.365 -0.1532  0.2776  0.1169
64906SOL    HW1 1833   4.025  10.039   2.376 -0.9787 -1.0095  1.3629
64906SOL    HW2 1834   3.926  10.129   2.448 -1.2688 -0.5143  0.3655
64907SOL     OW 1835   7.451   9.804   4.986  0.8642  0.0294 -0.1548
64907SOL    HW1 1836   7.465   9.745   4.912  1.2383  0.7902 -0.7016
64907SOL    HW2 1837   7.538   9.837   5.008  0.5527  1.1282 -0.4940
64908SOL     OW 1838   2.238   3.097   0.110  0.1282 -0.0018  0.6220
64908SOL    HW1 1839   2.237   3.007   0.142 -0.5561 -0.6715 -1.1394
64908SOL    HW2 1840   2.146   3.119   0.098  0.3179  0.6220  0.2507
64909SOL     OW 1841  10.283  12.202  11.528  0.1266  0.3601  1.1075
64909SOL    HW1 1842  10.216  12.269  11.514  0.2651  0.5311  1.2517
64909SOL    HW2 1843  10.237  12.119  11.515  0.7476  0.4520 -2.8496
64910SOL     OW 1844   9.927   5.055   8.782  0.4006 -0.0945 -0.5904
64910SOL    HW1 1845   9.949   5.033   8.691  2.4287 -1.1418  0.0737
64910SOL    HW2 1846   9.979   5.133   8.800  0.1507 -0.0030 -0.2665
64911SOL     OW 1847  10.378   8.403   9.059  0.4352 -0.5637  0.0511
64911SOL    HW1 1848  10.396   8.430   9.149  0.1319  1.6604 -0.4980
64911SOL    HW2 1849  10.437   8.456   9.006  0.1061 -1.3275 -1.1190
64912SOL     OW 1850   5.970   0.750  12.833  0.0830 -0.2959  0.4394
64912SOL    HW1 1851   6.008   0.745  12.921  0.1515 -0.7861  0.3893
64912SOL    HW2 1852   5.999   0.834  12.799  1.6144 -0.8869  0.1929
64913SOL     OW 1853   0.381   3.106   3.940  0.5989  0.3802 -0.1961
64913SOL    HW1 1854   0.381   3.036   4.006 -2.3341 -0.4987 -0.9665
64913SOL    HW2 1855   0.390   3.187   3.991 -0.5941 -0.3235  1.2340
64914SOL     OW 1856   1.423  10.071   5.789  0.2248 -0.5027  0.2987
64914SOL    HW1 1857   1.413  10.110   5.876  0.2840  2.1340 -0.7818
64914SOL    HW2 1858   1.491  10.125   5.747  0.6834 -2.1501 -1.1621
64915SOL     OW 1859   1.356   7.119   0.556  0.0888  0.0531  0.2302
64915SOL    HW1 1860   1.428   7.122   0.619 -0.1028 -1.4921  0.5647
64915SOL    HW2 1861   1.283   7.082   0.605  0.1030 -1.7363 -0.9975
64916SOL     OW 1862   7.156  11.720   5.970  0.1202 -0.5850  0.2770
64916SOL    HW1 1863   7.150  11.810   6.004  1.6307  0.0461 -1.0314
64916SOL    HW2 1864   7.225  11.724   5.904  1.2067 -3.0422  1.1859
64917SOL     OW 1865   2.125   5.557   7.945  0.2510  0.1676 -0.6648
64917SOL    HW1 1866   2.218   5.544   7.959  0.2296  0.2178 -0.4720
64917SOL    HW2 1867   2.114   5.553   7.850  0.1027 -2.1953 -0.6020
64918SOL     OW 1868   3.168   7.366   6.159 -0.7612  0.5699 -0.1037
64918SOL    HW1 1869   3.153   7.373   6.254  0.8796 -0.2830  0.2492
64918SOL    HW2 1870   3.199   7.453   6.134  0.9135  0.1996  0.5816
64919SOL     OW 1871   2.671   5.590   8.315  0.1498  0.0819  0.4000
64919SOL    HW1 1872   2.754   5.550   8.289  0.8107  0.5649  1.6524
64919SOL    HW2 1873   2.654   5.656   8.248 -0.7211 -1.8905 -1.4438
64920SOL     OW 1874   3.117   3.553   9.889 -0.1975 -0.5838  0.4107
64920SOL    HW1 1875   3.153   3.549   9.977  2.4999 -2.2619 -0.6368
64920SOL    HW2 1876   3.156   3.478   9.843 -3.5956 -1.4062 -1.5129
64921SOL     OW 1877   2.976   5.778   0.912 -0.2408 -0.4654  0.3059
64921SOL    HW1 1878   3.054   5.743   0.955  0.2696  2.9836  2.6109
64921SOL    HW2 1879   3.004   5.863   0.877 -2.4462 -0.1108 -0.7681
64922SOL     OW 1880  12.006  10.654   1.537 -0.1478  0.3065 -0.2495
64922SOL    HW1 1881  11.955  10.581   1.502 -0.5312  0.3691  0.1741
64922SOL    HW2 1882  12.056  10.617   1.609  0.0575  0.3506 -0.3651
64923SOL     OW 1883   5.957   2.265   9.369 -0.1095  0.2900  0.1205
64923SOL    HW1 1884   5.969   2.335   9.305 -1.0096  0.0875 -0.2847
64923SOL    HW2 1885   5.863   2.264   9.387 -0.3017 -1.5529 -0.7595
64924SOL     OW 1886   6.534   1.824  10.351  0.0847 -0.1042 -0.7511
64924SOL    HW1 1887   6.582   1.876  10.415  0.5108 -0.9928 -0.3270
64924SOL    HW2 1888   6.443   1.826  10.380 -0.0636  1.0965 -1.2254
64925SOL     OW 1889   5.251   4.780   4.095  0.1876 -0.0626  0.9106
64925SOL    HW1 1890   5.343   4.780   4.069  0.7027 -0.7456  2.5938
64925SOL    HW2 1891   5.237   4.695   4.136 -1.7792 -0.8070 -1.1280
64926SOL     OW 1892   8.941   0.019   2.065  0.0178  0.3863 -0.1622
64926SOL    HW1 1893   8.976  -0.002   1.979  1.9430  0.2004  0.6252
64926SOL    HW2 1894   8.900   0.105   2.054 -0.8179 -0.1490 -1.5141
64927SOL     OW 1895   1.217   1.476   5.400 -0.1465 -0.0428 -0.0253
64927SOL    HW1 1896   1.143   1.531   5.423  0.2004 -0.4868  2.3263
64927SOL    HW2 1897   1.182   1.387   5.399 -0.4144 -0.0046 -2.5686
64928SOL     OW 1898   3.376   5.007   9.174 -0.7762 -0.3503  0.1759
64928SOL    HW1 1899   3.379   5.078   9.110 -2.0144  0.9445  1.4790
64928SOL    HW2 1900   3.317   4.942   9.136 -4.0818  1.8044  1.2191
64929SOL     OW 1901  11.405  11.136   5.234  0.3415 -0.6544 -0.4720
64929SOL    HW1 1902  11.442  11.077   5.169  1.1704  0.1239 -0.7199
64929SOL    HW2 1903  11.387  11.217   5.187  1.0545 -0.0419  0.2766
64930SOL     OW 1904  11.213  10.829   3.396  0.6516  0.1441  0.3875
64930SOL    HW1 1905  11.123  10.833   3.362  1.2157  0.5859 -1.0888
64930SOL    HW2 1906  11.257  10.903   3.356  2.6124 -2.0016 -1.7243
64931SOL     OW 1907   0.047   2.726   2.786  0.0895  0.1514  0.0240
64931SOL    HW1 1908   0.087   2.782   2.852  0.7069 -0.8200  0.4993
64931SOL    HW2 1909  -0.006   2.664   2.836 -1.2911  0.8151 -0.5366
64932SOL     OW 1910   8.193   9.666  10.141 -0.4509  0.8172 -0.7699
64932SOL    HW1 1911   8.118   9.722  10.164 -2.5106 -1.7719 -0.6787
64932SOL    HW2 1912   8.244   9.660  10.221 -1.2202  1.1264 -0.2410
64933SOL     OW 1913   7.406  10.930  12.796 -0.3330 -0.6300  0.4063
64933SOL    HW1 1914   7.364  10.933  12.710  1.2845 -1.8832 -0.4914
64933SOL    HW2 1915   7.339  10.962  12.856 -2.1061 -1.2990 -1.0969
64934SOL     OW 1916   8.749  10.793   6.562 -0.3336 -0.0427  0.5262
64934SOL    HW1 1917   8.725  10.739   6.638  1.0960 -0.4478  0.7282
64934SOL    HW2 1918   8.728  10.882   6.589  1.1922 -0.0413  1.9006
64935SOL     OW 1919   6.690   4.584   7.072 -0.3254  0.0965 -0.4488
64935SOL    HW1 1920   6.606   4.598   7.029 -1.6733 -1.8917  1.3356
64935SOL    HW2 1921   6.697   4.489   7.080  2.3713  0.1586 -0.9484
64936SOL     OW 1922   2.980   9.384   5.701 -0.7300  0.9660  0.0636
64936SOL    HW1 1923   2.897   9.355   5.662 -0.2556 -0.6255  0.1827
64936SOL    HW2 1924   3.015   9.446   5.637 -1.1314  0.2338 -0.8956
64937SOL     OW 1925  12.719   5.910   7.338  0.0839 -0.6728 -0.0189
64937SOL    HW1 1926  12.653   5.855   7.381  0.7113 -1.3944  0.0524
64937SOL    HW2 1927  12.794   5.852   7.327  1.0708  0.4021  0.8082
64938SOL     OW 1928   5.793   8.259   4.931 -0.0939 -0.3318 -0.0848
64938SOL    HW1 1929   5.743   8.340   4.939  1.0573  0.4491 -0.4868
64938SOL    HW2 1930   5.794   8.240   4.837 -1.2756 -1.4386  0.0956
64939SOL     OW 1931   4.818   9.735   4.350 -0.0412 -0.4779  0.1117
64939SOL    HW1 1932   4.813   9.720   4.444  3.4942  1.6506  0.8063
64939SOL    HW2 1933   4.890   9.680   4.320 -0.7097 -0.6428 -1.2901
64940SOL     OW 1934   4.078   2.588   7.219  0.0530  0.0096  0.4358
64940SOL    HW1 1935   4.126   2.543   7.150  0.0746  1.3511 -0.4561
64940SOL    HW2 1936   3.992   2.545   7.220 -0.0374  0.1374 -0.6149
64941SOL     OW 1937  10.371   2.104   9.011  0.3311  0.1835  0.1405
64941SOL    HW1 1938  10.388   2.171   9.077 -0.6501  1.2548 -0.6481
64941SOL    HW2 1939  10.277   2.107   8.997  0.4147 -0.5724 -0.7290
64942SOL     OW 1940   9.416   8.858   3.454 -0.1454 -0.6939  0.1466
64942SOL    HW1 1941   9.412   8.789   3.388 -0.7348 -0.9097  0.4020
64942SOL    HW2 1942   9.333   8.904   3.445  0.7481  0.8231 -0.9005
64943SOL     OW 1943   6.123  12.725   3.864 -0.0260  0.8070 -0.0708
64943SOL    HW1 1944   6.131  12.629   3.862 -1.3006  0.6875 -2.1038
64943SOL    HW2 1945   6.078  12.747   3.783  3.1839  3.4450 -1.3798
64944SOL     OW 1946   4.409   8.083  12.081 -0.3019  0.7714 -0.0759
64944SOL    HW1 1947   4.335   8.026  12.061  0.3394 -0.4439  0.9036
64944SOL    HW2 1948   4.370   8.158  12.126 -0.8190 -0.5777  1.8318
64945SOL     OW 1949   6.427  11.933   9.772 -0.5381 -0.3350  0.1688
64945SOL    HW1 1950   6.483  12.002   9.737 -1.6547  0.6303  0.2310
64945SOL    HW2 1951   6.487  11.878   9.824  0.9809 -1.2464 -2.3670
64946SOL     OW 1952   8.585   4.436   9.920 -0.0142  0.1226  0.3025
64946SOL    HW1 1953   8.507   4.491   9.929  0.6325  1.4565 -1.4975
64946SOL    HW2 1954   8.656   4.488   9.959  0.0023 -1.1195  2.0134
64947SOL     OW 1955   9.767   7.320   5.340  0.0397  0.4436 -0.3155
64947SOL    HW1 1956   9.762   7.280   5.253  1.4054 -0.6200  0.0546
64947SOL    HW2 1957   9.861   7.325   5.358 -0.2314 -0.1818  1.4568
64948SOL     OW 1958  11.229   9.220   1.332 -0.2403 -0.1205 -0.2362
64948SOL    HW1 1959  11.224   9.268   1.249  0.8061 -1.9748 -1.4271
64948SOL    HW2 1960  11.147   9.171   1.336  0.0223 -0.5936 -0.5539
64949SOL     OW 1961   3.497   9.944   3.588  0.6118  0.5218  0.2841
64949SOL    HW1 1962   3.518   9.903   3.672 -0.0395 -1.3056 -0.4024
64949SOL    HW2 1963   3.502   9.873   3.524  0.7193  1.7986 -1.1827
64950SOL     OW 1964   2.761   5.625   3.182 -0.3021  0.2810  0.3141
64950SOL    HW1 1965   2.756   5.534   3.153 -0.3449  0.0130  1.1521
64950SOL    HW2 1966   2.855   5.644   3.187 -0.2431  0.9897 -1.9672
64951SOL     OW 1967  12.771   4.681   0.505  0.2214  0.1393  0.4013
64951SOL    HW1 1968  12.800   4.756   0.557  0.5462  1.2090 -1.2460
64951SOL    HW2 1969  12.833   4.676   0.433  1.0772 -2.6626  1.1916
64952SOL     OW 1970  12.487   2.013   3.795  0.0647 -0.5911  0.0794
64952SOL    HW1 1971  12.436   1.995   3.716 -1.3223  1.6446  0.3758
64952SOL    HW2 1972  12.436   1.973   3.866 -0.2675 -0.0499  0.1527
64953SOL     OW 1973   1.212   9.268   3.562 -0.0778 -0.6185 -0.0708
64953SOL    HW1 1974   1.128   9.260   3.607 -0.2742 -1.0983 -0.4975
64953SOL    HW2 1975   1.276   9.285   3.631 -0.7632  1.5537  0.0729
64954SOL     OW 1976   9.468  12.933  10.488 -0.1719  0.4065  0.3070
64954SOL    HW1 1977   9.475  12.922  10.583 -0.4656 -0.5359  0.2186
64954SOL    HW2 1978   9.512  12.857  10.451 -1.0215  0.2032 -0.3138
64955SOL     OW 1979   9.846   0.187  12.629  1.1666  0.2514  0.4793
64955SOL    HW1 1980   9.916   0.122  12.630  0.8716 -0.1033 -0.6966
64955SOL    HW2 1981   9.891   0.270  12.643  1.9514  0.1281 -1.0856
64956SOL     OW 1982  10.173   9.541   0.068 -0.4612 -0.2224 -0.0252
64956SOL    HW1 1983  10.160   9.545   0.163 -0.8810  2.4623 -0.1022
64956SOL    HW2 1984  10.090   9.507   0.034 -0.0827 -1.8200  0.5604
64957SOL     OW 1985   7.803  10.676   0.982  0.6824 -0.4465  0.2254
64957SOL    HW1 1986   7.747  10.619   0.930  0.5803  0.0784 -0.2496
64957SOL    HW2 1987   7.757  10.760   0.983  0.6542 -0.4604  1.2113
64958SOL     OW 1988   2.350   3.230   8.012  0.0633  0.7305  0.3106
64958SOL    HW1 1989   2.267   3.183   8.015  1.3633 -1.8157 -0.4583
64958SOL    HW2 1990   2.396   3.201   8.091  0.4355  1.7306  0.4749
64959SOL     OW 1991  12.590   6.415   5.601  0.3792  0.2213 -0.0343
64959SOL    HW1 1992  12.586   6.486   5.665  1.3401  1.2785 -1.0854
64959SOL    HW2 1993  12.668   6.435   5.548  0.5591 -1.5193 -0.4955
64960SOL     OW 1994   0.008   4.423   2.344 -0.6061 -0.0389  0.2379
64960SOL    HW1 1995   0.093   4.444   2.305 -0.0693  0.7919  1.7851
64960SOL    HW2 1996  -0.045   4.391   2.271  1.1797 -1.0269 -0.6548
64961SOL     OW 1997   3.089   5.209  12.174 -0.1305 -0.5811 -0.1213
64961SOL    HW1 1998   3.020   5.275  12.168  0.1266 -0.1007  1.5039
64961SOL    HW2 1999   3.170   5.259  12.179 -0.0320 -0.8437  2.7900
64962SOL     OW 2000   9.474   5.864   6.805 -0.1792 -0.1833 -0.2641
64962SOL    HW1 2001   9.510   5.806   6.872 -1.0069 -0.2396  0.1494
64962SOL    HW2 2002   9.460   5.947   6.851  3.2965  1.2139 -1.4166
64963SOL     OW 2003   9.621  10.360  10.564 -0.1007 -0.2690  0.4009
64963SOL    HW1 2004   9.652  10.299  10.631  0.8872  0.0203  0.2150
64963SOL    HW2 2005   9.540  10.321  10.531 -1.0002 -0.0870  2.2514
64964SOL     OW 2006   9.777   9.846   1.342 -0.1344  0.4393  0.1877
64964SOL    HW1 2007   9.707   9.792   1.305 -0.9265  1.3495  0.3386
64964SOL    HW2 2008   9.764   9.840   1.436 -0.3852  1.1087  0.1947
64965SOL     OW 2009  11.667  11.672   2.753  0.4776 -0.7280  0.1772
64965SOL    HW1 2010  11.650  11.760   2.717  0.5679 -0.9620 -0.4453
64965SOL    HW2 2011  11.591  11.654   2.808  0.2428 -0.4384 -0.0471
64966SOL     OW 2012  11.669   1.510   7.568 -0.1622  0.3659 -1.0972
64966SOL    HW1 2013  11.636   1.423   7.546 -0.5832  0.0635  0.6137
64966SOL    HW2 2014  11.682   1.553   7.483  1.3921 -1.8302 -2.0505
64967SOL     OW 2015   0.835   5.196  11.873 -0.0794 -0.8914  0.6090
64967SOL    HW1 2016   0.898   5.266  11.888 -0.1422 -1.2225  2.7937
64967SOL    HW2 2017   0.756   5.225  11.919 -1.0312 -1.1710 -0.7946
64968SOL     OW 2018   9.477   5.907   2.940 -0.5137  0.3612 -0.2112
64968SOL    HW1 2019   9.564   5.869   2.929 -0.1107  0.9540  0.7809
64968SOL    HW2 2020   9.442   5.912   2.851  1.3145  2.0689 -0.9137
64969SOL     OW 2021   9.141  12.854   8.196  0.3012 -0.3700  0.3316
64969SOL    HW1 2022   9.083  12.794   8.149 -0.0380  1.0900 -1.2015
64969SOL    HW2 2023   9.210  12.876   8.134  0.3938  0.8629  0.8350
64970SOL     OW 2024   6.735  10.509   6.918 -0.2796  0.2616  0.1151
64970SOL    HW1 2025   6.676  10.563   6.970  0.4945  0.0814  1.2134
64970SOL    HW2 2026   6.783  10.457   6.982  1.1882  0.5203 -0.7250
64971SOL     OW 2027   7.695   1.706  10.862  0.0792  0.6278 -0.3052
64971SOL    HW1 2028   7.727   1.644  10.928  1.3540  0.5722 -0.9485
64971SOL    HW2 2029   7.687   1.653  10.782 -0.4603  0.9263 -0.4538
64972SOL     OW 2030  11.416   7.806   5.959 -0.0749 -0.5412  0.1274
64972SOL    HW1 2031  11.494   7.761   5.993  2.3408  1.9012 -1.7425
64972SOL    HW2 2032  11.399   7.764   5.875 -0.8890 -1.1498  0.5884
64973SOL     OW 2033   3.204   3.002   9.427  0.2101 -0.1366  0.5611
64973SOL    HW1 2034   3.225   2.949   9.504  0.1924 -0.2939  0.4576
64973SOL    HW2 2035   3.112   2.981   9.409  0.3968 -0.5789  0.1176
64974SOL     OW 2036   5.624   2.740   0.482  0.5286  0.1220 -0.5235
64974SOL    HW1 2037   5.610   2.831   0.457  0.0319  0.1557 -0.1469
64974SOL    HW2 2038   5.701   2.742   0.538  0.5424  0.3072 -0.5496
64975SOL     OW 2039   5.258   0.612   3.080 -0.1692 -0.5438  0.3921
64975SOL    HW1 2040   5.248   0.587   3.172  0.1185 -0.4425  0.4516
64975SOL    HW2 2041   5.216   0.542   3.031  2.1055 -2.0591  0.4605
64976SOL     OW 2042  11.980  10.549   6.418 -0.3967 -0.3088  0.1783
64976SOL    HW1 2043  11.918  10.517   6.353  1.2224 -1.2356 -1.0070
64976SOL    HW2 2044  12.066  10.533   6.378  0.6705 -0.7816  2.4789
64977SOL     OW 2045   5.073   9.867   2.079 -0.3941 -0.3951  0.2160
64977SOL    HW1 2046   4.988   9.878   2.122  0.0258  0.0495  0.9465
64977SOL    HW2 2047   5.108   9.956   2.073 -0.5462 -0.4103 -1.2801
64978SOL     OW 2048   3.806   9.996   7.563  0.0489 -0.6973  0.5162
64978SOL    HW1 2049   3.742   9.986   7.492 -0.5756  1.9306  0.6094
64978SOL    HW2 2050   3.880  10.041   7.522  1.0951 -2.0491  0.8472
64979SOL     OW 2051  11.931   9.030   6.983 -0.3756  0.0472  0.1865
64979SOL    HW1 2052  11.958   9.028   6.891 -0.6991  2.5286 -0.0264
64979SOL    HW2 2053  11.904   9.121   6.999 -0.4763 -0.3405  2.7066
64980SOL     OW 2054   4.871   5.017   3.768 -0.7017 -0.5958 -0.2445
64980SOL    HW1 2055   4.831   4.987   3.850 -0.7125 -1.1841 -0.4609
64980SOL    HW2 2056   4.921   4.941   3.737  1.4081  0.4009  0.5143
64981SOL     OW 2057   4.486  11.053   5.057 -0.0093  0.2768  0.0863
64981SOL    HW1 2058   4.435  11.065   4.977  1.9265 -0.6109 -1.3756
64981SOL    HW2 2059   4.536  10.973   5.041  0.2951 -0.0359  2.2973
64982SOL     OW 2060   8.898   9.737   2.364  0.5269 -0.1323  0.0831
64982SOL    HW1 2061   8.833   9.798   2.328  1.5419  0.1268 -1.4203
64982SOL    HW2 2062   8.937   9.784   2.437  0.3432  0.4756 -0.2045
64983SOL     OW 2063   8.536   6.918  10.011 -0.2387 -0.1105  0.4075
64983SOL    HW1 2064   8.609   6.917  10.074  0.7104  2.1364 -0.5259
64983SOL    HW2 2065   8.539   6.833   9.968  2.2173  0.0808  0.0454
64984SOL     OW 2066   7.779   3.106   7.838 -0.6042  0.0780  0.0107
64984SOL    HW1 2067   7.790   3.148   7.923  1.3023 -1.5506  0.6308
64984SOL    HW2 2068   7.730   3.026   7.857 -0.6600 -0.0178 -0.5200
64985SOL     OW 2069  12.665   1.317  11.540 -0.5240 -0.1127 -0.9998
64985SOL    HW1 2070  12.758   1.335  11.554 -0.3030  0.5506 -3.0347
64985SOL    HW2 2071  12.642   1.257  11.611  1.4616 -0.3583 -0.4882
64986SOL     OW 2072   1.812   8.849   9.842  0.1162  0.2462 -0.1914
64986SOL    HW1 2073   1.818   8.753   9.842 -1.5375  0.1146  0.1685
64986SOL    HW2 2074   1.749   8.868   9.773 -0.6233  0.9930  0.6779
64987SOL     OW 2075   7.826  10.869  11.204 -0.1184  0.2175 -0.3803
64987SOL    HW1 2076   7.760  10.805  11.178 -1.4259  1.3917 -0.0591
64987SOL    HW2 2077   7.891  10.818  11.253 -0.6773 -0.9934 -0.8565
64988SOL     OW 2078  12.168   9.571   4.933  0.0287  0.1073 -0.1216
64988SOL    HW1 2079  12.199   9.539   5.018  0.4613  0.1471 -0.2593
64988SOL    HW2 2080  12.234   9.635   4.906 -0.5910  0.7804 -0.0607
64989SOL     OW 2081   3.427   4.757   1.474 -0.0444 -0.0988 -0.4247
64989SOL    HW1 2082   3.381   4.706   1.541  0.5835 -0.4844 -0.2814
64989SOL    HW2 2083   3.426   4.701   1.397  0.8312 -0.4337 -0.2073
64990SOL     OW 2084   8.114   0.465   2.071 -1.1404  0.3367 -0.1203
64990SOL    HW1 2085   8.042   0.412   2.036 -0.6034 -0.5099  0.0181
64990SOL    HW2 2086   8.192   0.412   2.056 -0.6674  0.7949  0.6436
64991SOL     OW 2087   4.622   4.002  10.393 -0.1889 -0.3546  0.2865
64991SOL    HW1 2088   4.646   4.092  10.418  0.2587  0.3755 -2.4225
64991SOL    HW2 2089   4.530   4.007  10.369  0.1606 -0.2958 -1.0967
64992SOL     OW 2090   2.628   4.695   1.979 -0.2852  0.3757 -0.2858
64992SOL    HW1 2091   2.645   4.608   1.943 -2.3768 -0.2277  0.0664
64992SOL    HW2 2092   2.675   4.696   2.062  2.1213  0.6928 -1.5642
64993SOL     OW 2093  11.848   4.605   9.765  0.7251  0.2007  0.4308
64993SOL    HW1 2094  11.938   4.574   9.767  1.0748  1.1870  0.6325
64993SOL    HW2 2095  11.810   4.571   9.846  1.2954  0.8309  0.9783
64994SOL     OW 2096   3.684   2.010   4.436 -0.0981 -0.1501 -0.4380
64994SOL    HW1 2097   3.679   2.089   4.382  1.1319 -0.1116 -0.5303
64994SOL    HW2 2098   3.596   1.973   4.434 -0.1660  0.0174 -2.2358
64995SOL     OW 2099   3.101   0.656  12.032  0.0952  0.6728 -0.1850
64995SOL    HW1 2100   3.079   0.710  12.109  0.8125  1.0384 -0.2238
64995SOL    HW2 2101   3.095   0.566  12.064  1.8270  0.8304  0.7535
64996SOL     OW 2102   3.545   9.833   7.646  0.4682 -0.7524 -0.4042
64996SOL    HW1 2103   3.554   9.892   7.571 -1.0054  2.5576  1.8175
64996SOL    HW2 2104   3.632   9.829   7.684  0.2872  1.3326  0.2935
64997SOL     OW 2105   8.776   8.529   2.562 -0.0247 -0.0030 -0.1244
64997SOL    HW1 2106   8.832   8.564   2.492  1.2419 -1.8681 -0.1128
64997SOL    HW2 2107   8.827   8.544   2.642  0.1107 -0.9808 -0.0174
64998SOL     OW 2108  11.522   2.289  11.094  0.3747  0.0577  0.0239
64998SOL    HW1 2109  11.511   2.257  11.004 -2.7074  0.1526  0.2624
64998SOL    HW2 2110  11.587   2.231  11.133  0.7028 -0.9015 -1.8468
64999SOL     OW 2111   1.593  12.925   4.376  0.0492  0.7073  0.7118
64999SOL    HW1 2112   1.559  12.991   4.315 -0.5043  0.8601  1.1800
64999SOL    HW2 2113   1.524  12.859   4.382  0.8546 -0.2593 -0.2400
65000SOL     OW 2114   7.090   3.439   2.922 -0.0025  0.7753 -0.1844
65000SOL    HW1 2115   7.134   3.518   2.891 -0.6383  2.3197  2.5295
65000SOL    HW2 2116   7.160   3.379   2.944  0.4964  0.5747 -2.2014
65001SOL     OW 2117   3.372   1.871   0.319 -0.3995 -0.5393 -0.4464
65001SOL    HW1 2118   3.303   1.883   0.384  0.7652  0.2491  0.6941
65001SOL    HW2 2119   3.443   1.829   0.367  1.3132  1.9835 -0.6147
65002SOL     OW 2120   4.639   9.798  11.237 -0.4413  0.6466  0.3336
65002SOL    HW1 2121   4.673   9.837  11.156  1.2560 -0.2280  0.5851
65002SOL    HW2 2122   4.712   9.803  11.298 -1.7670  1.5451  1.9548
65003SOL     OW 2123   2.022   6.183   1.393 -0.1142 -0.1607 -0.2026
65003SOL    HW1 2124   2.056   6.098   1.364 -0.4374 -0.2336 -0.3726
65003SOL    HW2 2125   1.974   6.163   1.474  1.1493  0.1082  0.6343
65004SOL     OW 2126  11.155  10.198   1.378 -0.2952 -0.5892  0.0374
65004SOL    HW1 2127  11.224  10.180   1.314 -1.6762 -0.0617 -1.6727
65004SOL    HW2 2128  11.194  10.176   1.462  1.9144 -0.4230 -0.8756
65005SOL     OW 2129  12.742  11.738  12.451  0.2301  0.0985  0.1918
65005SOL    HW1 2130  12.688  11.681  12.396  1.3126 -0.1045 -0.6998
65005SOL    HW2 2131  12.680  11.798  12.492 -0.5029  1.5118 -2.7331
65006SOL     OW 2132   9.970   9.135   2.095  0.1099  0.4375 -1.1317
65006SOL    HW1 2133   9.941   9.223   2.069 -2.1177 -0.5319 -2.2252
65006SOL    HW2 2134  10.064   9.135   2.077  0.8521  3.4752  1.6570
65007SOL     OW 2135   2.067   5.956   0.421 -0.4954  0.0477  0.3920
65007SOL    HW1 2136   2.099   6.019   0.356 -0.1849  0.5542  1.0273
65007SOL    HW2 2137   1.972   5.958   0.411 -0.4716  0.4168  0.2301
65008SOL     OW 2138   9.934   8.493   8.205  0.6264  0.4863  0.4447
65008SOL    HW1 2139   9.943   8.411   8.253 -1.4037 -0.5982 -0.9135
65008SOL    HW2 2140   9.955   8.471   8.114  0.1992  1.5102  0.0863
65009SOL     OW 2141  10.342   3.960   1.075 -0.5407  0.0132  0.1011
65009SOL    HW1 2142  10.375   4.002   0.995 -1.1295 -0.9440 -0.6630
65009SOL    HW2 2143  10.268   4.015   1.101  0.5946  1.2351  0.9121
65010SOL     OW 2144   0.392   6.965   9.759  0.0792  0.0335  0.0957
65010SOL    HW1 2145   0.478   6.926   9.744  0.6268  1.3215 -0.2469
65010SOL    HW2 2146   0.411   7.054   9.788 -1.1166  0.9759 -1.7779
65011SOL     OW 2147   6.052   5.615   1.999 -0.1636 -0.2296 -0.4691
65011SOL    HW1 2148   6.080   5.678   1.933 -1.0061  0.6580 -0.0137
65011SOL    HW2 2149   6.122   5.615   2.064 -0.0121  0.0034 -0.6310
65012SOL     OW 2150   4.252   6.670   5.369  0.1002  0.0597 -0.0583
65012SOL    HW1 2151   4.250   6.674   5.465 -0.3327  2.1036 -0.1019
65012SOL    HW2 2152   4.164   6.641   5.344  0.0835 -0.0750  0.1569
65013SOL     OW 2153   1.668  10.288   7.118  0.0483  0.1081  0.7390
65013SOL    HW1 2154   1.618  10.274   7.037 -2.1058 -0.4689  2.0808
65013SOL    HW2 2155   1.728  10.360   7.097  1.9028 -2.0677 -2.3221
65014SOL     OW 2156   1.470   5.438   4.244 -0.1425 -0.0020  0.4546
65014SOL    HW1 2157   1.414   5.376   4.198 -0.7884 -0.6431  2.0279
65014SOL    HW2 2158   1.557   5.398   4.240 -0.4416 -0.7335  0.9293
65015SOL     OW 2159   5.364   2.666   6.842 -0.5068  0.3289 -0.2094
65015SOL    HW1 2160   5.421   2.700   6.773 -1.9978  0.8662 -1.2276
65015SOL    HW2 2161   5.297   2.614   6.796 -1.7254  0.9633  0.7672
65016SOL     OW 2162   3.778   8.399   4.057 -0.1263 -0.0683  0.2596
65016SOL    HW1 2163   3.868   8.377   4.033  1.3485  3.4036  1.9066
65016SOL    HW2 2164   3.730   8.397   3.974  1.9387 -0.0142 -1.0154
65017SOL     OW 2165   1.530   6.055   5.926 -0.2173  0.1880  0.1055
65017SOL    HW1 2166   1.601   6.112   5.955 -0.7201  0.9560 -0.1440
65017SOL    HW2 2167   1.503   6.008   6.005  1.3288 -0.9842 -0.0210
65018SOL     OW 2168   6.793   5.154  11.431 -0.6467  0.1561  0.4551
65018SOL    HW1 2169   6.845   5.121  11.504 -0.3818  0.9028  0.6061
65018SOL    HW2 2170   6.788   5.080  11.370 -1.7038 -0.8252  1.6501
65019SOL     OW 2171   6.036   0.533  12.127  0.7772 -0.0740  0.1622
65019SOL    HW1 2172   6.129   0.545  12.146  0.7769 -0.1088  0.1847
65019SOL    HW2 2173   6.005   0.471  12.193  1.1479 -1.5159 -0.9770
65020SOL     OW 2174  11.286   8.347  11.037 -0.0616 -0.3818 -0.3699
65020SOL    HW1 2175  11.232   8.289  11.089  0.0369 -1.8466 -1.8230
65020SOL    HW2 2176  11.226   8.416  11.008 -0.3648 -0.1775  0.7109
65021SOL     OW 2177  10.073   9.438   5.162 -0.2909 -0.1116  0.0093
65021SOL    HW1 2178  10.162   9.439   5.195  0.4470 -2.9379 -1.5448
65021SOL    HW2 2179  10.018   9.447   5.240  1.3331  0.2486  1.1497
65022SOL     OW 2180   8.622   9.263   2.941  0.4785 -0.0423  0.0510
65022SOL    HW1 2181   8.646   9.171   2.952  0.5918 -0.3076 -1.9628
65022SOL    HW2 2182   8.697   9.312   2.973  1.8524 -0.7652 -1.8642
65023SOL     OW 2183   3.838  11.661   0.712  0.1165 -0.5991 -0.4975
65023SOL    HW1 2184   3.828  11.753   0.687  0.3445 -0.9954 -2.0880
65023SOL    HW2 2185   3.776  11.614   0.656 -1.0636 -1.2941  1.2944
65024SOL     OW 2186   9.471   3.078   8.938 -0.3302  0.2592 -0.0708
65024SOL    HW1 2187   9.532   3.039   8.876 -0.3584  1.3692 -0.8496
65024SOL    HW2 2188   9.453   3.165   8.902 -1.0148  0.6184  1.0620
65025SOL     OW 2189  11.823   5.844   2.228 -0.6173 -0.1730 -0.4356
65025SOL    HW1 2190  11.876   5.765   2.225  0.9821  0.7912  0.6087
65025SOL    HW2 2191  11.825   5.871   2.320  1.5861  2.7718 -1.2088
65026SOL     OW 2192   4.662   2.298   8.828 -0.0946 -0.5752  0.0324
65026SOL    HW1 2193   4.653   2.316   8.922  1.9958 -3.2655  0.8926
65026SOL    HW2 2194   4.743   2.248   8.821 -0.3915 -0.8175 -3.1956
65027SOL     OW 2195   2.858   3.881   1.991  0.3102 -0.0331 -0.7630
65027SOL    HW1 2196   2.894   3.808   1.941 -0.3953 -1.0820  0.1984
65027SOL    HW2 2197   2.800   3.926   1.930  0.2096 -0.7115 -1.1715
65028SOL     OW 2198   8.890   3.032  12.451 -0.0023  0.1916 -0.0445
65028SOL    HW1 2199   8.899   2.999  12.540  1.6506  1.4183  0.2783
65028SOL    HW2 2200   8.839   3.112  12.459 -1.4253 -0.6263 -0.4667
65029SOL     OW 2201   6.828   9.673   2.926  0.3396  0.0552 -0.1401
65029SOL    HW1 2202   6.749   9.631   2.893  0.3707 -0.7586  0.7818
65029SOL    HW2 2203   6.877   9.696   2.847 -2.2852  3.7447 -0.9798
65030SOL     OW 2204   1.630   0.486   6.676 -0.0943 -0.6106  0.0650
65030SOL    HW1 2205   1.557   0.538   6.709  1.4785  0.3431  2.3405
65030SOL    HW2 2206   1.605   0.463   6.587 -1.3175  3.3073 -0.8144
65031SOL     OW 2207   8.622   1.243   8.409  0.0477 -0.0037 -0.4342
65031SOL    HW1 2208   8.630   1.266   8.501  2.2917  0.4754 -0.6912
65031SOL    HW2 2209   8.546   1.294   8.378  1.3727  2.6649  0.3742
65032SOL     OW 2210   2.187  11.521   4.383  0.0069  0.4807  0.1900
65032SOL    HW1 2211   2.238  11.480   4.313 -0.1508 -1.0290  0.9255
65032SOL    HW2 2212   2.155  11.602   4.344  1.6155  0.6885 -0.8120
65033SOL     OW 2213  12.423   3.671   2.180 -0.0077 -0.5769 -0.0207
65033SOL    HW1 2214  12.445   3.756   2.220  1.5208 -0.3511 -1.2172
65033SOL    HW2 2215  12.362   3.631   2.241  0.8443  0.5043  1.6277
65034SOL     OW 2216   7.379   4.272   2.026 -0.3919  0.2402 -0.1184
65034SOL    HW1 2217   7.389   4.308   2.114  1.0409 -0.8884  0.2022
65034SOL    HW2 2218   7.291   4.235   2.025  0.3225 -1.6319  1.5679
65035SOL     OW 2219  12.913   3.890   7.089  0.2412 -0.8571  0.3760
65035SOL    HW1 2220  12.848   3.826   7.060  0.7801 -1.7136  1.0139
65035SOL    HW2 2221  12.906   3.961   7.026 -2.1740 -0.3503  1.1144
65036SOL     OW 2222   1.444   8.878   2.740 -0.4148  0.2153  0.4590
65036SOL    HW1 2223   1.370   8.846   2.791  0.6788 -2.1676  0.7048
65036SOL    HW2 2224   1.516   8.883   2.804 -0.3067  2.4857  0.2280
65037SOL     OW 2225   4.025   2.122  12.644  0.2639 -0.1298 -0.3480
65037SOL    HW1 2226   4.064   2.202  12.608  2.7117 -1.0768  0.0167
65037SOL    HW2 2227   4.009   2.067  12.567 -0.6139  0.3445 -0.5190
65038SOL     OW 2228  11.627  11.168   8.346  0.5463 -0.2378 -0.3814
65038SOL    HW1 2229  11.548  11.220   8.329  0.2916 -0.1348  0.9842
65038SOL    HW2 2230  11.594  11.083   8.374  0.9420 -0.4553 -0.5645
65039SOL     OW 2231  12.663   6.549   3.323  0.6277 -0.0920  0.2954
65039SOL    HW1 2232  12.739   6.605   3.337 -0.7104  1.8811  0.1225
65039SOL    HW2 2233  12.609   6.562   3.401  0.9362 -2.3395  0.9390
65040SOL     OW 2234   6.382   4.815   6.746  0.1451 -0.0084 -0.1072
65040SOL    HW1 2235   6.306   4.795   6.691  0.3471  0.6909 -0.6475
65040SOL    HW2 2236   6.452   4.834   6.684  0.9340 -1.2004  0.3743
65041SOL     OW 2237   4.361   3.417   0.851  0.3029  0.0522  0.6407
65041SOL    HW1 2238   4.341   3.408   0.944 -0.5658  1.8126  0.6669
65041SOL    HW2 2239   4.329   3.504   0.828  2.6454  0.6348 -0.7532
65042SOL     OW 2240   8.130   2.123   1.809  0.1905  0.1778  0.0414
65042SOL    HW1 2241   8.035   2.115   1.809  0.2091 -0.0841 -0.4476
65042SOL    HW2 2242   8.157   2.095   1.896 -0.4092  3.2126  1.3571
65043SOL     OW 2243   5.082   8.620   0.944 -0.3879 -0.3594  0.4272
65043SOL    HW1 2244   5.012   8.663   0.894  0.1113 -0.1002 -0.0506
65043SOL    HW2 2245   5.082   8.530   0.913  2.3866  0.5821 -2.8841
65044SOL     OW 2246  12.583   3.062  11.223 -0.3418 -0.3566  0.1926
65044SOL    HW1 2247  12.497   3.100  11.239 -0.0930 -0.5681  2.2931
65044SOL    HW2 2248  12.631   3.073  11.305  0.5730 -3.0162  0.1389
65045SOL     OW 2249   6.180  11.430   4.374 -0.5999 -0.6591  0.2958
65045SOL    HW1 2250   6.227  11.463   4.451  1.7828 -0.9798 -0.9257
65045SOL    HW2 2251   6.191  11.335   4.379  0.5755 -0.6279 -0.9592
65046SOL     OW 2252   8.415   5.952   4.680 -0.2742 -0.0608 -0.1190
65046SOL    HW1 2253   8.408   6.014   4.607  0.2073 -0.0795 -0.1854
65046SOL    HW2 2254   8.498   5.975   4.723 -0.3480 -0.3255  0.1675
65047SOL     OW 2255   1.952  12.638  12.500  0.3654  0.0441 -0.2645
65047SOL    HW1 2256   1.939  12.731  12.482 -1.1523 -0.1811 -0.4030
65047SOL    HW2 2257   1.900  12.592  12.435 -0.1639 -0.8741  0.7651
65048SOL     OW 2258   6.450   0.107   4.647  0.3273 -0.3724 -0.0852
65048SOL    HW1 2259   6.471   0.186   4.597 -0.1630 -0.6115 -0.6859
65048SOL    HW2 2260   6.443   0.038   4.581  0.4414 -0.8537  0.3999
65049SOL     OW 2261   8.461   1.037   9.256 -0.3848  0.2636  0.3648
65049SOL    HW1 2262   8.416   1.098   9.315  0.1626 -0.0240  1.0840
65049SOL    HW2 2263   8.537   1.008   9.305  0.0660 -0.0038 -0.4814
65050SOL     OW 2264   4.368   7.019   9.629 -0.3013 -0.2717 -0.0586
65050SOL    HW1 2265   4.376   6.967   9.549  0.4657  0.4689 -0.4821
65050SOL    HW2 2266   4.378   7.110   9.599 -1.0232  0.0791  0.7452
65051SOL     OW 2267   7.748   1.818   5.782  0.0991 -0.6658  0.0259
65051SOL    HW1 2268   7.776   1.909   5.791 -0.6080 -0.4466  0.1133
65051SOL    HW2 2269   7.652   1.823   5.783  0.0525 -1.5011  0.9799
65052SOL     OW 2270  10.152   2.279   2.577  0.6882  0.1547 -0.1225
65052SOL    HW1 2271  10.138   2.370   2.602  3.2451  0.7791 -0.6595
65052SOL    HW2 2272  10.144   2.278   2.482  1.0451 -0.0850 -0.1554
65053SOL     OW 2273   0.032  10.605  11.494  0.6025 -0.7412 -0.6404
65053SOL    HW1 2274   0.034  10.624  11.400 -1.6237  2.1566 -0.2610
65053SOL    HW2 2275   0.089  10.671  11.532 -1.3326  0.5004  0.2366
65054SOL     OW 2276   1.202   4.078   4.759 -0.3093  0.0060  0.5865
65054SOL    HW1 2277   1.214   4.003   4.701 -2.5711 -1.3604  1.7524
65054SOL    HW2 2278   1.150   4.140   4.708 -0.2174 -0.1203  0.3392
65055SOL     OW 2279   1.618  12.855  12.632  0.2705 -0.4546  0.4814
65055SOL    HW1 2280   1.697  12.827  12.679 -0.5737 -0.2122  2.0810
65055SOL    HW2 2281   1.593  12.937  12.673  0.0676  0.3095 -1.0899
65056SOL     OW 2282  12.611   0.199  10.888  0.0854  0.8166  0.1286
65056SOL    HW1 2283  12.666   0.163  10.958  0.1805  1.1816  0.2438
65056SOL    HW2 2284  12.642   0.155  10.809 -0.0936  0.3234  0.3301
65057SOL     OW 2285  11.885   6.484   1.023  0.0402  0.4560  0.1117
65057SOL    HW1 2286  11.952   6.443   1.076 -1.4944 -1.5046  0.6851
65057SOL    HW2 2287  11.826   6.526   1.086 -0.6314 -0.0328 -0.1788
65058SOL     OW 2288   5.122   3.569   7.034 -0.0044 -0.5938  0.8397
65058SOL    HW1 2289   5.187   3.513   7.075  0.9716 -0.7341 -0.7942
65058SOL    HW2 2290   5.103   3.526   6.950  1.2512  1.7602 -0.7686
65059SOL     OW 2291  11.985   8.900   8.534 -0.2044 -0.1560  0.2606
65059SOL    HW1 2292  11.893   8.918   8.550 -0.4327 -0.5941 -0.5099
65059SOL    HW2 2293  12.026   8.905   8.620 -1.0188 -0.4123  0.6713
65060SOL     OW 2294   7.125   7.602   2.875  0.2867 -0.6648 -0.4778
65060SOL    HW1 2295   7.203   7.645   2.839  1.1317  0.0031  1.9830
65060SOL    HW2 2296   7.158   7.545   2.943 -1.4363  0.8403  1.7723
65061SOL     OW 2297  10.592   9.046  10.659 -0.2455 -0.4564 -0.2370
65061SOL    HW1 2298  10.639   9.124  10.629  0.1894 -0.2761  0.8741
65061SOL    HW2 2299  10.541   9.076  10.735 -2.3705 -0.5911 -1.5118
65062SOL     OW 2300   2.083   0.696   0.636  0.0863  0.3247  0.0309
65062SOL    HW1 2301   2.018   0.729   0.574 -0.2392 -1.9769 -0.9279
65062SOL    HW2 2302   2.056   0.607   0.656  1.3667  0.2785  1.8977
65063SOL     OW 2303   3.130   8.855   8.488 -0.0321 -0.4088 -0.2403
65063SOL    HW1 2304   3.205   8.903   8.523 -0.6545  0.8893 -0.5916
65063SOL    HW2 2305   3.058   8.918   8.491 -0.5589 -0.8426 -2.0296
65064SOL     OW 2306   0.389   0.201  12.223 -0.0003  0.1875 -0.2959
65064SOL    HW1 2307   0.341   0.120  12.206  1.8921 -0.9654 -0.4003
65064SOL    HW2 2308   0.413   0.234  12.137  0.9993 -0.2624 -0.1955
65065SOL     OW 2309   1.611   8.069   9.955 -0.0785  0.0564 -0.3178
65065SOL    HW1 2310   1.612   8.014   9.876  1.8842  1.0297 -1.0532
65065SOL    HW2 2311   1.561   8.146   9.930  1.2400  0.7438 -0.9494
65066SOL     OW 2312   0.050  10.013   6.394 -0.3476 -0.3053 -0.5698
65066SOL    HW1 2313   0.049   9.950   6.322 -1.0496  0.4336 -1.2386
65066SOL    HW2 2314  -0.042  10.020   6.421  0.1170 -2.0056  1.7392
65067SOL     OW 2315  10.204   6.551   8.806  0.3038 -0.0192  0.2521
65067SOL    HW1 2316  10.253   6.509   8.736 -0.2775 -0.1872 -0.0582
65067SOL    HW2 2317  10.233   6.506   8.886  0.7136 -0.0589  0.0846
65068SOL     OW 2318  12.655   5.422   4.828 -0.7370  0.5136 -0.2358
65068SOL    HW1 2319  12.703   5.358   4.881 -0.2974 -0.0569 -1.2842
65068SOL    HW2 2320  12.684   5.405   4.739  0.6924  3.3220 -0.3870
65069SOL     OW 2321   9.479   7.005   3.966 -0.4506  0.6776  0.0882
65069SOL    HW1 2322   9.386   7.010   3.990 -0.4564 -0.4511  0.3686
65069SOL    HW2 2323   9.491   7.075   3.902 -1.2604  1.4751  0.7753
65070SOL     OW 2324   6.329  10.180   0.259 -0.3284  0.0437 -0.2109
65070SOL    HW1 2325   6.400  10.116   0.256 -0.0936  0.3088 -0.5614
65070SOL    HW2 2326   6.263  10.146   0.199 -1.7720 -1.6228  2.1589
65071SOL     OW 2327   9.432   5.386  12.550  0.3053 -0.0129 -0.2490
65071SOL    HW1 2328   9.527   5.385  12.559  0.4040 -1.0829 -1.1476
65071SOL    HW2 2329   9.414   5.459  12.490  0.5666  0.0954 -0.1968
65072SOL     OW 2330   2.906  10.603   4.780 -0.2915  0.0395 -0.7400
65072SOL    HW1 2331   2.913  10.513   4.814 -0.1156 -0.4635 -2.0656
65072SOL    HW2 2332   2.997  10.628   4.760 -0.4752 -0.0061 -1.6583
65073SOL     OW 2333   0.273   9.891   9.878 -0.6642  0.1087 -0.3801
65073SOL    HW1 2334   0.209   9.854   9.817 -1.4527 -0.2002  0.6035
65073SOL    HW2 2335   0.223   9.909   9.957  0.5429 -0.5030  0.5618
65074SOL     OW 2336   3.012   1.696   5.436 -0.0462 -0.3493  0.6732
65074SOL    HW1 2337   2.928   1.743   5.439  1.1408  2.0146 -0.6539
65074SOL    HW2 2338   3.076   1.760   5.466  1.4515 -1.7185  0.4897
65075SOL     OW 2339   3.577   8.131   7.830  0.3210  0.2061  0.6081
65075SOL    HW1 2340   3.580   8.210   7.884 -0.0355  1.0947 -0.6265
65075SOL    HW2 2341   3.649   8.142   7.767 -0.6509  0.2782 -0.5189
65076SOL     OW 2342   4.143   1.086   5.155 -0.0757 -0.2981 -0.3940
65076SOL    HW1 2343   4.215   1.143   5.182  0.2765 -0.7488 -0.3488
65076SOL    HW2 2344   4.079   1.093   5.226  0.0694 -0.1429 -0.2781
65077SOL     OW 2345   0.454   7.244   3.235 -0.9239 -0.8200  0.2289
65077SOL    HW1 2346   0.541   7.226   3.270  0.0186  0.8934 -1.1255
65077SOL    HW2 2347   0.425   7.323   3.280 -0.6784  0.0768 -1.1460
65078SOL     OW 2348   2.897   3.426   5.908  0.1394  0.2560  0.1970
65078SOL    HW1 2349   2.801   3.421   5.917 -0.2341 -0.7712 -3.0496
65078SOL    HW2 2350   2.924   3.334   5.900  1.4517  0.5361  1.1912
65079SOL     OW 2351  12.967   9.664  10.579  0.0253  0.1400  0.6811
65079SOL    HW1 2352  12.940   9.610  10.654  0.8437  0.1176  0.9617
65079SOL    HW2 2353  13.041   9.617  10.541 -1.2230 -0.5783 -0.9938
65080SOL     OW 2354   7.341   2.459  10.692 -0.2042  0.0014  0.2338
65080SOL    HW1 2355   7.319   2.521  10.623 -0.0764  0.1156  0.2957
65080SOL    HW2 2356   7.269   2.395  10.691  0.3015 -0.5713 -0.6734
65081SOL     OW 2357  12.478   1.934  10.019  0.4036 -0.1013 -0.0225
65081SOL    HW1 2358  12.526   2.006  10.061  0.8764 -0.5523  0.2195
65081SOL    HW2 2359  12.537   1.903   9.950  1.0903 -1.5844  1.1846
65082SOL     OW 2360   2.589   6.285   9.401  0.0290  0.4336  0.3778
65082SOL    HW1 2361   2.543   6.368   9.393 -0.0640  0.3365 -0.1514
65082SOL    HW2 2362   2.662   6.303   9.460  1.3822  1.5048 -1.4811
65083SOL     OW 2363   2.016   2.519   1.453 -0.0037 -0.5693  0.5506
65083SOL    HW1 2364   2.059   2.601   1.430  0.3226 -0.9894 -0.3659
65083SOL    HW2 2365   2.087   2.455   1.460 -0.1655 -0.6247  2.0586
65084SOL     OW 2366   1.975   6.653  10.976 -0.0119 -0.3211  0.6150
65084SOL    HW1 2367   1.908   6.638  11.043 -0.0639  0.3383  0.7128
65084SOL    HW2 2368   1.941   6.725  10.923  1.2163  0.9748  1.5053
65085SOL     OW 2369   4.333   1.054   3.812 -0.3225  0.3626 -0.5063
65085SOL    HW1 2370   4.321   1.138   3.766  1.2186  0.9904  0.1523
65085SOL    HW2 2371   4.410   1.015   3.771  1.0206  0.8799  1.3627
65086SOL     OW 2372   2.430  12.956   5.847 -0.1836 -0.2989  0.6416
65086SOL    HW1 2373   2.342  12.947   5.884 -0.5911  0.7350 -0.0515
65086SOL    HW2 2374   2.461  12.866   5.839 -1.0662 -0.6691  1.1384
65087SOL     OW 2375   2.864   7.346   6.324  0.1922  0.1390  0.6219
65087SOL    HW1 2376   2.845   7.429   6.368  1.2169  0.1801  1.0195
65087SOL    HW2 2377   2.942   7.313   6.369  0.9469 -0.0950 -0.8022
65088SOL     OW 2378   2.570  10.880   2.477  0.1204  0.3150 -0.9133
65088SOL    HW1 2379   2.525  10.798   2.458  0.2245  0.0429 -0.0143
65088SOL    HW2 2380   2.662  10.856   2.487  0.0200  0.3524  0.3457
65089SOL     OW 2381   4.905   7.133  10.798  0.3566 -0.2137  0.0719
65089SOL    HW1 2382   4.958   7.177  10.865 -4.4921  1.5630  3.3612
65089SOL    HW2 2383   4.885   7.047  10.836 -1.7345  0.4787  0.7001
65090SOL     OW 2384   5.440   5.648   2.037  0.1283  0.3526 -0.5707
65090SOL    HW1 2385   5.416   5.603   2.118  0.6098  1.4580  0.2166
65090SOL    HW2 2386   5.430   5.581   1.969 -1.6083 -0.2365  0.1877
65091SOL     OW 2387  11.064  12.690  11.650 -0.2753  0.5446 -0.3951
65091SOL    HW1 2388  10.972  12.710  11.632 -0.6706 -1.5088 -0.8752
65091SOL    HW2 2389  11.063  12.604  11.691  1.3630  1.0305  0.7891
65092SOL     OW 2390  10.813   5.951   8.025  0.2912 -0.0606  0.3318
65092SOL    HW1 2391  10.857   5.938   8.108 -0.5294 -0.0771  0.7787
65092SOL    HW2 2392  10.745   6.016   8.044  0.4937  0.3919 -0.4669
65093SOL     OW 2393   9.140   6.923  11.748  0.2088  0.5828  0.1855
65093SOL    HW1 2394   9.075   6.854  11.733  1.8444 -0.8958 -0.5354
65093SOL    HW2 2395   9.141   6.934  11.843 -1.2209  0.8148  0.2013
65094SOL     OW 2396   0.116  12.284   0.317 -0.1702 -0.5438  0.7695
65094SOL    HW1 2397   0.192  12.342   0.318 -1.3228  1.1255 -1.1065
65094SOL    HW2 2398   0.153  12.197   0.302  1.4325  0.0260  1.1943
65095SOL     OW 2399   3.770   9.106  10.885  0.6394 -0.3420  0.0599
65095SOL    HW1 2400   3.797   9.197  10.873 -2.8036  0.7617 -0.2034
65095SOL    HW2 2401   3.773   9.068  10.797 -1.5180  0.7077 -0.5367
65096SOL     OW 2402   1.252   1.640  12.500  0.6322 -0.0687  0.0371
65096SOL    HW1 2403   1.282   1.579  12.567 -0.1809 -2.2020 -1.4182
65096SOL    HW2 2404   1.178   1.596  12.459  1.1683  1.0589 -2.3381
65097SOL     OW 2405   4.851   6.776   2.838  0.3016  0.4742  0.2923
65097SOL    HW1 2406   4.866   6.840   2.907  0.1243  0.3870  0.4136
65097SOL    HW2 2407   4.934   6.771   2.790  0.2295  0.9955  0.1093
65098SOL     OW 2408   6.532   2.969   4.872  0.8799 -0.3646 -0.1535
65098SOL    HW1 2409   6.551   3.038   4.808 -0.1478 -0.4003 -0.5159
65098SOL    HW2 2410   6.574   2.891   4.835  0.9766 -0.2083 -0.3778
65099SOL     OW 2411   6.507   8.678  12.136 -0.6832 -0.4535  0.4837
65099SOL    HW1 2412   6.588   8.629  12.148 -0.7384 -0.3108  1.5374
65099SOL    HW2 2413   6.467   8.680  12.222 -2.0254 -0.8763 -0.1072
65100SOL     OW 2414  11.323   2.580   4.613  0.5369  0.1001 -0.2203
65100SOL    HW1 2415  11.372   2.504   4.582 -0.1954 -0.4384 -0.0820
65100SOL    HW2 2416  11.298   2.626   4.533 -1.4805 -1.3704 -0.4939
65101SOL     OW 2417   4.066   2.174   7.163  0.2600  0.3930 -0.5010
65101SOL    HW1 2418   3.979   2.145   7.137  0.2612 -0.8436  0.7902
65101SOL    HW2 2419   4.113   2.093   7.183  0.9359  1.1708  1.1894
65102SOL     OW 2420  10.281   2.335   6.497  0.0559 -0.6553  0.7851
65102SOL    HW1 2421  10.200   2.325   6.447  0.4882 -0.5472  0.0547
65102SOL    HW2 2422  10.252   2.345   6.588 -0.8556  1.3602  0.3095
65103SOL     OW 2423  10.041   2.875  11.077  0.0110 -0.3678 -0.2898
65103SOL    HW1 2424  10.038   2.964  11.042  1.4983 -0.4956 -0.8261
65103SOL    HW2 2425  10.117   2.876  11.136 -1.1937 -0.7340  1.3238
65104SOL     OW 2426   6.602   9.543   7.512  0.5738 -0.2997 -0.0243
65104SOL    HW1 2427   6.583   9.477   7.579  1.4686  0.6252  1.1958
65104SOL    HW2 2428   6.696   9.557   7.518  0.3368  1.4971  0.1711
65105SOL     OW 2429  12.775   6.768  11.527  0.0195  0.0917 -0.5212
65105SOL    HW1 2430  12.688   6.804  11.507  0.2027  0.7616 -0.1602
65105SOL    HW2 2431  12.765   6.727  11.613 -0.2420 -0.9286 -1.0253
65106SOL     OW 2432   9.435   8.794   1.139  0.2613 -0.3501  0.2969
65106SOL    HW1 2433   9.487   8.739   1.198  2.0664  0.3548 -0.5536
65106SOL    HW2 2434   9.371   8.735   1.100  1.4242 -1.6053  0.2466
65107SOL     OW 2435   0.817   1.689   0.529 -0.2057  0.2369 -0.2356
65107SOL    HW1 2436   0.794   1.605   0.569 -0.6247  0.8788  0.9315
65107SOL    HW2 2437   0.855   1.666   0.445 -0.1717 -1.1307  0.1306
65108SOL     OW 2438   8.604  10.328   3.740  0.0694 -0.1848 -0.1068
65108SOL    HW1 2439   8.699  10.333   3.733 -0.0571  1.0788 -1.3145
65108SOL    HW2 2440   8.575  10.293   3.656 -0.6446  1.6880 -0.6959
65109SOL     OW 2441   1.003  12.090  11.740  0.2676  0.8335  0.5078
65109SOL    HW1 2442   1.069  12.085  11.809  0.8719  1.4399 -0.0121
65109SOL    HW2 2443   1.047  12.133  11.667 -1.1875  2.9356  0.7631
65110SOL     OW 2444   8.895   6.419   1.647 -0.6806  0.0444  0.4777
65110SOL    HW1 2445   8.801   6.401   1.639 -0.6174 -1.0811  1.9996
65110SOL    HW2 2446   8.933   6.385   1.565 -1.4889 -0.1898  0.1950
65111SOL     OW 2447   0.749   6.045   1.117 -0.6765  0.3593 -0.2900
65111SOL    HW1 2448   0.730   6.063   1.208  0.1508  1.7847 -0.3723
65111SOL    HW2 2449   0.767   6.131   1.078  0.7024 -0.3713 -1.3734
65112SOL     OW 2450  12.644   2.883   7.548 -0.0259  0.2169 -0.6012
65112SOL    HW1 2451  12.624   2.887   7.642 -0.3501 -1.7000 -0.5423
65112SOL    HW2 2452  12.729   2.840   7.544  0.6605  1.5718 -1.1664
65113SOL     OW 2453   8.030   3.194   1.566  0.1796 -0.7769  0.1926
65113SOL    HW1 2454   8.101   3.164   1.508  2.0925  2.2131  0.7766
65113SOL    HW2 2455   8.061   3.172   1.654 -0.1400 -0.4433  0.3873
65114SOL     OW 2456   8.171   9.080   6.123 -0.0669  0.2522 -0.3461
65114SOL    HW1 2457   8.242   9.020   6.098  1.0513  1.1401  0.5713
65114SOL    HW2 2458   8.141   9.047   6.207 -1.3545 -0.6227 -1.1291
65115SOL     OW 2459   8.709   2.715   6.591  0.0769  0.4733  0.5581
65115SOL    HW1 2460   8.686   2.657   6.663  2.0885 -1.8909 -0.5167
65115SOL    HW2 2461   8.680   2.802   6.618  0.8715 -0.2718  4.2569
65116SOL     OW 2462   3.885   1.757   4.744 -0.5056 -0.4653 -0.3529
65116SOL    HW1 2463   3.896   1.853   4.744  0.0172 -0.4365 -2.9720
65116SOL    HW2 2464   3.794   1.744   4.718 -0.0466 -0.6201 -2.0075
65117SOL     OW 2465  12.629   0.417  12.372  0.0304  0.5870  0.0112
65117SOL    HW1 2466  12.622   0.325  12.396  0.9509  0.8704  1.5117
65117SOL    HW2 2467  12.606   0.419  12.279  0.6621 -1.2580 -0.2341
65118SOL     OW 2468   3.604   8.676   4.680  0.0419 -0.1344  0.3004
65118SOL    HW1 2469   3.622   8.756   4.631 -0.8905  0.6831  1.2593
65118SOL    HW2 2470   3.599   8.608   4.613 -2.2058  1.0983 -0.9176
65119SOL     OW 2471  11.555   1.560   3.373 -0.2941 -0.3532 -0.0321
65119SOL    HW1 2472  11.591   1.480   3.334 -2.3792 -1.0117 -0.6986
65119SOL    HW2 2473  11.500   1.598   3.304  0.3096  1.4736  0.4192
65120SOL     OW 2474   3.159   3.737   8.737  0.1359  0.4145 -0.4089
65120SOL    HW1 2475   3.070   3.705   8.725  0.8823 -2.1065  0.1690
65120SOL    HW2 2476   3.213   3.658   8.741  2.7587  1.8721 -3.0242
65121SOL     OW 2477   2.729   4.930  12.527  0.2583  0.2162  0.6251
65121SOL    HW1 2478   2.673   4.886  12.592 -1.4682  3.3296  1.4501
65121SOL    HW2 2479   2.688   4.910  12.443 -1.2447  1.1494  1.0902
65122SOL     OW 2480   9.122  11.478   3.139 -0.0931 -0.4494 -0.2680
65122SOL    HW1 2481   9.090  11.551   3.191  1.3293 -0.0966  0.1620
65122SOL    HW2 2482   9.184  11.432   3.196  1.5498 -0.0205 -1.6168
65123SOL     OW 2483   3.975   4.418   7.705 -0.5266 -0.0933  0.2486
65123SOL    HW1 2484   3.946   4.507   7.724  1.5643  0.7025  0.0650
65123SOL    HW2 2485   3.925   4.392   7.628 -1.6691  0.6372  0.7217
65124SOL     OW 2486  10.973  12.013   4.442  0.0894 -0.3754  0.3282
65124SOL    HW1 2487  11.061  12.024   4.476 -0.1326 -0.6211  1.0035
65124SOL    HW2 2488  10.985  11.973   4.355  0.6090 -1.1650  0.7529
65125SOL     OW 2489   2.984  10.462   6.256  0.0873  0.3200  0.9120
65125SOL    HW1 2490   2.915  10.428   6.313 -1.6521  0.3535 -1.0721
65125SOL    HW2 2491   2.953  10.548   6.230  1.1658  0.5725  0.4137
65126SOL     OW 2492   4.318   5.522   6.598 -0.2369 -0.0550  0.5268
65126SOL    HW1 2493   4.246   5.577   6.630  0.7918  0.9227  1.2352
65126SOL    HW2 2494   4.326   5.545   6.505 -0.6351  0.0579  0.5187
65127SOL     OW 2495   6.793   9.458   8.016  0.7782 -0.0628  0.4423
65127SOL    HW1 2496   6.827   9.489   8.100 -0.9593 -0.7941  1.4626
65127SOL    HW2 2497   6.750   9.534   7.978  1.8060  0.3445  0.0491
65128SOL     OW 2498   9.595   0.116   8.630  0.3160  0.3532 -0.2453
65128SOL    HW1 2499   9.537   0.110   8.554  0.2845 -0.6729 -0.1543
65128SOL    HW2 2500   9.536   0.130   8.704  0.1768 -0.5619 -0.1708
65129SOL     OW 2501   4.406   7.998   9.782 -0.3010  0.1244 -0.6441
65129SOL    HW1 2502   4.405   8.085   9.740  0.2783  0.7144  0.5185
65129SOL    HW2 2503   4.418   8.017   9.875  1.1268 -1.2511 -0.5154
65130SOL     OW 2504  10.730  12.706  12.462 -0.0117  0.0837 -0.0780
65130SOL    HW1 2505  10.813  12.694  12.416 -0.7554  0.0635 -1.4542
65130SOL    HW2 2506  10.696  12.789  12.430 -0.2729  0.3808  0.9125
65131SOL     OW 2507   7.059  12.360   2.798  0.0282  0.3024  0.1780
65131SOL    HW1 2508   7.030  12.391   2.712  0.6720 -0.7414 -0.4426
65131SOL    HW2 2509   7.087  12.439   2.844 -0.7476  0.9312 -0.4032
65132SOL     OW 2510   4.358   3.061   9.671 -0.0756 -0.1569 -0.1832
65132SOL    HW1 2511   4.451   3.076   9.655 -0.0383 -0.5394 -0.3117
65132SOL    HW2 2512   4.316   3.079   9.587  0.0786 -1.7723 -0.6299
65133SOL     OW 2513   1.106   4.196   3.180  0.0311 -0.3827  0.4920
65133SOL    HW1 2514   1.011   4.184   3.184 -0.2234  0.1500 -1.9090
65133SOL    HW2 2515   1.137   4.182   3.269 -2.4020  0.3181  1.5203
65134SOL     OW 2516  12.822  10.911   5.417 -0.3607 -0.1239  0.5524
65134SOL    HW1 2517  12.760  10.954   5.358  0.0783  1.2477  1.0508
65134SOL    HW2 2518  12.804  10.949   5.503  2.5093  1.9629  0.3934
65135SOL     OW 2519   4.501  11.998   5.746 -0.4517  0.3859  0.2530
65135SOL    HW1 2520   4.544  11.913   5.743 -0.9231  0.1646 -0.2418
65135SOL    HW2 2521   4.459  12.008   5.661 -3.9975 -0.7742  1.6632
65136SOL     OW 2522  11.947   7.847  10.195  0.2649 -0.7655 -0.3186
65136SOL    HW1 2523  11.895   7.903  10.252  0.7919 -2.3614  1.8788
65136SOL    HW2 2524  11.883   7.799  10.143 -0.2653  0.2532 -0.6227
65137SOL     OW 2525  12.515   1.324   6.950 -0.0989  0.4015  0.0886
65137SOL    HW1 2526  12.507   1.413   6.915 -1.3210  0.0006 -0.7300
65137SOL    HW2 2527  12.586   1.329   7.013  0.5875  1.7108 -0.7521
65138SOL     OW 2528  11.284   0.769   3.270 -0.2460 -0.1626 -0.7297
65138SOL    HW1 2529  11.233   0.708   3.323 -0.9181  1.4073  0.5089
65138SOL    HW2 2530  11.353   0.801   3.328  1.1687 -0.9781 -1.8810
65139SOL     OW 2531   5.529   5.058   8.381  0.1286  0.3238 -0.1789
65139SOL    HW1 2532   5.453   5.110   8.356  0.2379 -0.5390 -2.6602
65139SOL    HW2 2533   5.501   4.967   8.368  1.0994 -0.0666  0.3738
65140SOL     OW 2534  10.359   0.924   0.176  0.0511  0.0059 -0.2296
65140SOL    HW1 2535  10.381   0.948   0.086 -0.6123  1.0987 -0.1188
65140SOL    HW2 2536  10.285   0.864   0.167 -0.3574  0.5245 -0.4077
65141SOL     OW 2537   3.874  10.950   1.499  0.1540  0.3408 -0.3618
65141SOL    HW1 2538   3.903  10.893   1.428  2.2827  0.1767  0.5550
65141SOL    HW2 2539   3.843  11.029   1.456 -0.4944 -0.5145 -1.5325
65142SOL     OW 2540   3.591  12.298   4.942 -0.0821  0.8147  0.3397
65142SOL    HW1 2541   3.589  12.270   4.851  0.5357 -0.2779  0.6456
65142SOL    HW2 2542   3.658  12.243   4.983 -0.8082  0.8253  1.5992
65143SOL     OW 2543   9.605   5.671   2.722  0.8493  0.3674  0.6820
65143SOL    HW1 2544   9.620   5.703   2.633  0.9083 -0.4617  0.3866
65143SOL    HW2 2545   9.656   5.730   2.778 -0.7273  2.0928  0.3662
65144SOL     OW 2546   1.819   7.728   1.036 -0.7017 -0.4836 -0.2633
65144SOL    HW1 2547   1.885   7.690   0.978  2.1895 -0.8847  2.9278
65144SOL    HW2 2548   1.831   7.823   1.028 -0.7000 -0.5234 -0.7145
65145SOL     OW 2549   3.024   3.494   8.928  0.4738  0.6333 -0.1961
65145SOL    HW1 2550   2.994   3.525   8.843  1.0333  0.6737 -0.3867
65145SOL    HW2 2551   2.995   3.403   8.932 -2.1427  1.4257  0.8294
65146SOL     OW 2552   0.539   7.623   7.693 -0.4572  0.4686 -0.2316
65146SOL    HW1 2553   0.461   7.568   7.690 -0.5927  0.7292 -2.0599
65146SOL    HW2 2554   0.607   7.565   7.728 -1.3114  0.0921  0.8871
65147SOL     OW 2555   3.668   0.866   1.096 -0.0841  0.5595  0.4755
65147SOL    HW1 2556   3.732   0.935   1.078  1.0200 -0.8446 -1.2214
65147SOL    HW2 2557   3.687   0.838   1.185  0.9547  0.8783  0.3646
65148SOL     OW 2558  10.781   9.344  12.043 -0.0887 -0.3441 -0.0950
65148SOL    HW1 2559  10.808   9.384  11.961  0.2361  0.9193  0.5924
65148SOL    HW2 2560  10.863   9.320  12.086 -0.2482 -0.8338 -0.0611
65149SOL     OW 2561   9.906  12.952   5.513  0.1661  0.1327  0.1256
65149SOL    HW1 2562   9.926  12.859   5.527 -1.5524 -0.3113 -0.1023
65149SOL    HW2 2563   9.964  12.978   5.441  2.5309 -0.0185  1.8538
65150SOL     OW 2564   0.795   4.451   9.356 -0.9156 -0.5080 -0.3986
65150SOL    HW1 2565   0.808   4.362   9.390 -2.0407  0.1420  2.0053
65150SOL    HW2 2566   0.711   4.448   9.312 -0.3561 -0.9055 -1.4696
65151SOL     OW 2567   5.748   3.295   6.732 -0.4803  0.3651 -0.1127
65151SOL    HW1 2568   5.813   3.259   6.671  3.3475  2.9542  2.0029
65151SOL    HW2 2569   5.765   3.251   6.815  0.6881  3.0083  1.1702
65152SOL     OW 2570  12.376   7.746   1.438 -0.0597  0.0606  0.1988
65152SOL    HW1 2571  12.443   7.733   1.505  0.4641 -2.3866 -0.7117
65152SOL    HW2 2572  12.315   7.673   1.450 -1.0080  0.6568 -0.7983
65153SOL     OW 2573   7.828   8.163  10.263  0.5822  0.7150 -0.3288
65153SOL    HW1 2574   7.763   8.130  10.200 -0.0032  2.1021 -0.4783
65153SOL    HW2 2575   7.850   8.086  10.316 -0.4521 -0.0082 -0.8962
65154SOL     OW 2576  12.386   5.562   1.154 -0.3110 -0.3459 -0.3883
65154SOL    HW1 2577  12.473   5.562   1.113 -0.2355 -1.8863 -0.2782
65154SOL    HW2 2578  12.388   5.636   1.214  0.5446  0.2882 -1.1660
65155SOL     OW 2579  10.299   7.697  10.870 -0.2139  0.1018  0.1643
65155SOL    HW1 2580  10.301   7.602  10.878 -1.6690  0.0779  0.5561
65155SOL    HW2 2581  10.310   7.714  10.777 -0.5649 -0.4968  0.0085
65156SOL     OW 2582   2.568   3.692   6.567  0.2975  0.1055  0.6270
65156SOL    HW1 2583   2.586   3.753   6.639 -0.1033  1.7132 -0.5837
65156SOL    HW2 2584   2.654   3.661   6.540  0.6079  0.9577  0.5937
65157SOL     OW 2585   9.837   2.242   5.271  0.2224  0.6633 -0.0221
65157SOL    HW1 2586   9.816   2.246   5.364 -3.7132 -1.7851 -0.5554
65157SOL    HW2 2587   9.899   2.169   5.264 -0.5985 -0.1170  0.5926
65158SOL     OW 2588   6.963  10.716   9.718  0.5782 -0.3229  0.1600
65158SOL    HW1 2589   7.054  10.695   9.741  1.6550  1.5650 -2.0234
65158SOL    HW2 2590   6.953  10.808   9.745 -0.6956 -0.5119  0.3516
65159SOL     OW 2591   6.969   4.428   1.991  0.2458 -0.0640 -0.0182
65159SOL    HW1 2592   6.905   4.497   2.007 -0.2391 -0.5753  0.3152
65159SOL    HW2 2593   6.926   4.348   2.023 -0.3069 -0.9645 -2.7768
65160SOL     OW 2594   8.235   5.127   3.677 -0.2519  0.2857  0.3246
65160SOL    HW1 2595   8.183   5.138   3.598 -0.7059  1.2374  0.7411
65160SOL    HW2 2596   8.223   5.035   3.702  1.8701 -0.7827 -2.0597
65161SOL     OW 2597   3.203   8.541   2.692  0.3043  0.2558  0.3846
65161SOL    HW1 2598   3.270   8.539   2.761  0.5681 -0.0782  0.1243
65161SOL    HW2 2599   3.125   8.574   2.736  0.4381 -0.0644  0.8760
65162SOL     OW 2600   5.617   4.310   1.621  0.4245 -0.1561  0.0176
65162SOL    HW1 2601   5.638   4.267   1.704  0.2743 -0.2365  0.0158
65162SOL    HW2 2602   5.684   4.376   1.609 -0.0709  0.4678  0.6536
65163SOL     OW 2603  11.643  12.704   3.184 -0.1874 -1.1492 -0.1826
65163SOL    HW1 2604  11.589  12.741   3.115  0.5828 -1.4329 -0.9573
65163SOL    HW2 2605  11.584  12.647   3.233 -0.9250 -0.3408 -0.1252
65164SOL     OW 2606  12.447   8.665   2.411 -0.5506  0.0842 -0.4436
65164SOL    HW1 2607  12.430   8.665   2.505 -0.0924 -0.6777 -0.3553
65164SOL    HW2 2608  12.542   8.674   2.404 -0.3785 -1.6899 -0.7809
65165SOL     OW 2609   4.135   9.783   7.464 -0.6300  0.4131 -0.1202
65165SOL    HW1 2610   4.056   9.774   7.410 -0.0256  0.2260 -1.0021
65165SOL    HW2 2611   4.142   9.876   7.482  0.1351  0.7527 -1.9315
65166SOL     OW 2612   7.192   2.820   7.148 -0.1169  0.2494  0.1230
65166SOL    HW1 2613   7.200   2.730   7.181 -0.5056 -0.0545 -0.5801
65166SOL    HW2 2614   7.209   2.812   7.054 -1.1150  0.7572 -0.1103
65167SOL     OW 2615  12.883   1.436   2.384  0.4071 -0.3149 -0.0369
65167SOL    HW1 2616  12.797   1.430   2.342  0.7930 -1.1755 -0.7117
65167SOL    HW2 2617  12.923   1.350   2.371  1.1725 -0.0896  0.7223
65168SOL     OW 2618   1.963   4.580   8.346  0.1484 -0.0213 -0.4989
65168SOL    HW1 2619   2.010   4.537   8.275  0.3738  0.2723 -0.5285
65168SOL    HW2 2620   1.872   4.587   8.315  0.1379 -0.3598 -0.5441
65169SOL     OW 2621   3.963   5.417   5.446  0.1401 -0.0927 -0.4335
65169SOL    HW1 2622   4.030   5.485   5.438 -0.9492  0.8833 -1.5408
65169SOL    HW2 2623   3.917   5.418   5.362  0.3523 -2.5108 -0.6635
65170SOL     OW 2624  12.092   4.545   0.771  0.1553  0.3137  1.3736
65170SOL    HW1 2625  12.173   4.546   0.822 -0.1611  0.6051  1.8768
65170SOL    HW2 2626  12.121   4.559   0.681  0.8830 -1.9043  1.2062
65171SOL     OW 2627   7.662   2.234  10.312  0.4892  0.2336 -0.0658
65171SOL    HW1 2628   7.745   2.216  10.267  1.5223  1.6274  1.2101
65171SOL    HW2 2629   7.687   2.285  10.389 -1.4210 -0.5524  1.1294
65172SOL     OW 2630   1.660   9.015  12.226  0.6429 -0.6727 -0.4876
65172SOL    HW1 2631   1.691   9.079  12.163 -0.8725 -0.4680 -1.0451
65172SOL    HW2 2632   1.586   9.057  12.270  1.9332 -0.6072  1.8209
65173SOL     OW 2633   6.804   2.932   3.029 -0.6375  0.1552 -0.3282
65173SOL    HW1 2634   6.755   3.006   2.993 -1.7117 -0.1560  0.4609
65173SOL    HW2 2635   6.789   2.860   2.967 -0.2006  0.3749 -0.7004
65174SOL     OW 2636   5.166   5.619   4.241  0.3512 -0.2911 -0.1163
65174SOL    HW1 2637   5.153   5.531   4.206  1.0072  0.0541 -1.2785
65174SOL    HW2 2638   5.259   5.623   4.261  0.9154  0.9765 -2.5918
65175SOL     OW 2639  11.120   3.047   0.423  0.5211  0.0923 -0.0299
65175SOL    HW1 2640  11.073   3.019   0.344 -0.2910 -0.1175  0.5046
65175SOL    HW2 2641  11.118   3.142   0.420 -4.5148  0.4168  2.4014
65176SOL     OW 2642   9.248   8.948   0.573  0.0740  0.2890 -0.7888
65176SOL    HW1 2643   9.190   9.014   0.534  1.7124  0.7757 -2.5284
65176SOL    HW2 2644   9.295   8.910   0.499 -0.3564 -2.4614  0.2250
65177SOL     OW 2645  12.078   7.545   9.027 -0.2689 -0.2787 -0.2556
65177SOL    HW1 2646  11.994   7.503   9.012 -0.2615 -0.4717  0.2126
65177SOL    HW2 2647  12.105   7.514   9.114  0.0964  0.0914 -0.2325
65178SOL     OW 2648  11.143   4.876   1.765 -0.0876  0.2424 -0.6299
65178SOL    HW1 2649  11.111   4.965   1.749  2.4569  1.9661  2.5507
65178SOL    HW2 2650  11.112   4.856   1.854  1.3199 -1.0777 -0.4040
65179SOL     OW 2651  11.802   2.029  10.960 -0.3284 -0.9078  0.0130
65179SOL    HW1 2652  11.774   2.113  10.925  1.6850 -0.8423 -1.6811
65179SOL    HW2 2653  11.884   2.010  10.913  0.3790 -2.8148  1.8559
65180SOL     OW 2654  12.185   6.639   0.098  0.1557 -0.3351 -0.2162
65180SOL    HW1 2655  12.094   6.616   0.121  0.2647  0.9724  1.7882
65180SOL    HW2 2656  12.230   6.555   0.093 -0.5392 -0.9034  1.8588
65181SOL     OW 2657   0.830   0.199   9.722  0.3784 -0.1492 -0.2481
65181SOL    HW1 2658   0.824   0.106   9.742 -2.1409 -0.0160  0.0268
65181SOL    HW2 2659   0.834   0.242   9.807  0.1784  0.0296 -0.3266
65182SOL     OW 2660   3.762   2.133   3.187  0.5609 -0.1262  0.1410
65182SOL    HW1 2661   3.740   2.192   3.116 -0.0541  0.6611  0.9569
65182SOL    HW2 2662   3.772   2.190   3.263 -0.2028 -1.0783  0.9869
65183SOL     OW 2663   7.574  10.092  12.058 -0.6072 -0.5617 -0.0728
65183SOL    HW1 2664   7.611  10.017  12.104 -1.3991 -0.0215  1.5348
65183SOL    HW2 2665   7.641  10.160  12.064 -1.8575  0.5968  3.3098
65184SOL     OW 2666   7.636   9.954   8.851 -0.3772 -0.2056  0.5790
65184SOL    HW1 2667   7.639   9.858   8.855 -0.5102 -0.2121  0.5217
65184SOL    HW2 2668   7.710   9.983   8.904  0.5888 -0.3669 -0.6510
65185SOL     OW 2669   4.374   2.684   5.447  0.0472  0.2095 -0.2710
65185SOL    HW1 2670   4.430   2.746   5.401  1.2057 -0.3954  0.2879
65185SOL    HW2 2671   4.424   2.659   5.525  0.0580 -2.1713 -0.9700
65186SOL     OW 2672   0.830  12.439   2.207  0.5941  0.1765 -0.0177
65186SOL    HW1 2673   0.854  12.518   2.160 -1.2649  0.9709  0.2682
65186SOL    HW2 2674   0.834  12.370   2.140 -2.0510  1.2820 -1.4738
65187SOL     OW 2675   9.394   4.145  11.631  0.0246  0.4780 -0.2800
65187SOL    HW1 2676   9.440   4.073  11.675 -2.3814 -0.5322  0.7471
65187SOL    HW2 2677   9.407   4.221  11.687  1.0927  0.4211 -0.4354
65188SOL     OW 2678   1.020   7.605   9.305 -0.1829  0.0706 -0.0517
65188SOL    HW1 2679   1.073   7.609   9.384  0.3320 -1.8090 -0.2457
65188SOL    HW2 2680   0.938   7.564   9.334  0.3967 -1.5760 -0.6384
65189SOL     OW 2681  11.012  11.863   9.518 -0.1707  0.1389  0.6088
65189SOL    HW1 2682  11.034  11.771   9.532 -1.8880 -0.4902 -0.5283
65189SOL    HW2 2683  11.091  11.901   9.478  0.7227 -0.6904  1.5218
65190SOL     OW 2684   7.574   0.315   6.148 -0.4631 -0.1106 -0.7972
65190SOL    HW1 2685   7.592   0.338   6.057 -2.3086  3.0934 -0.5332
65190SOL    HW2 2686   7.642   0.360   6.198 -2.5661  2.9947 -0.4254
65191SOL     OW 2687   1.037   8.542   5.395  0.1506  0.4273  0.1683
65191SOL    HW1 2688   0.953   8.540   5.440  0.2190  0.5800  0.3012
65191SOL    HW2 2689   1.077   8.457   5.416 -0.5566 -0.2252 -1.0202
65192SOL     OW 2690   9.779   5.382   3.350  0.4192  0.4155  0.2011
65192SOL    HW1 2691   9.754   5.474   3.345  3.3232  1.4472  1.9252
65192SOL    HW2 2692   9.866   5.378   3.309  0.7495 -1.3699  0.9400
65193SOL     OW 2693   7.630   3.886   7.274 -0.2960 -0.7686  0.2600
65193SOL    HW1 2694   7.698   3.938   7.317  0.2244 -1.0950 -0.1600
65193SOL    HW2 2695   7.678   3.829   7.213 -1.0006 -0.3988 -0.6642
65194SOL     OW 2696   2.467  11.675   4.701 -0.3590 -0.1300  0.1239
65194SOL    HW1 2697   2.510  11.761   4.697 -1.0193  0.2355  0.5920
65194SOL    HW2 2698   2.500  11.628   4.625 -0.7333  0.9009 -0.7072
65195SOL     OW 2699  11.150   2.769  11.989  0.5458  0.0277 -0.0995
65195SOL    HW1 2700  11.079   2.708  11.967  0.4067  0.2239 -0.1887
65195SOL    HW2 2701  11.218   2.713  12.027 -0.5059  0.1005  2.0351
65196SOL     OW 2702   1.113  10.102   7.246  0.0628 -0.3110  0.1498
65196SOL    HW1 2703   1.042  10.120   7.307  1.5744 -1.4311  2.4007
65196SOL    HW2 2704   1.164  10.184   7.244 -0.5860  0.0838 -0.4908
65197SOL     OW 2705   4.836  10.486   5.069 -0.3799 -0.0599  0.5402
65197SOL    HW1 2706   4.923  10.501   5.106  0.0886  0.9721 -0.8846
65197SOL    HW2 2707   4.777  10.533   5.127  0.0837 -0.2002  1.1351
65198SOL     OW 2708   1.240  12.313  11.314  0.1028  0.1989 -0.1275
65198SOL    HW1 2709   1.307  12.359  11.364 -0.7648  0.4552  0.8323
65198SOL    HW2 2710   1.179  12.381  11.287 -0.0211 -0.0944 -0.6011
65199SOL     OW 2711   5.563   7.222   4.929 -0.6120  0.5213  0.4277
65199SOL    HW1 2712   5.602   7.203   4.844  0.2883 -0.9661  1.1373
65199SOL    HW2 2713   5.505   7.148   4.946 -0.4185  0.5672  1.3158
65200SOL     OW 2714   5.482   3.723   1.286 -0.3796  0.1468 -0.1046
65200SOL    HW1 2715   5.411   3.730   1.223 -0.6226 -2.2823 -0.2025
65200SOL    HW2 2716   5.469   3.798   1.345 -2.7648  0.0399 -0.3814
65201SOL     OW 2717   7.214   2.025  10.501 -0.2803  0.0220  0.2547
65201SOL    HW1 2718   7.236   2.035  10.408 -0.5755  0.2549  0.2069
65201SOL    HW2 2719   7.285   1.972  10.537 -1.0726 -1.5847 -0.4641
65202SOL     OW 2720   2.406   8.544   9.118  0.7231  0.0659 -0.0250
65202SOL    HW1 2721   2.477   8.605   9.099  1.1435 -0.6833 -0.9125
65202SOL    HW2 2722   2.326   8.591   9.094  1.0709  0.1129 -1.1344
65203SOL     OW 2723   7.183   8.609   7.368 -0.3826 -0.2486 -0.8373
65203SOL    HW1 2724   7.136   8.549   7.311 -0.1083 -0.1391 -1.1840
65203SOL    HW2 2725   7.230   8.668   7.308  2.2211 -1.9022 -0.5924
65204SOL     OW 2726  11.597   8.311   8.236 -0.6058  0.0555 -0.0412
65204SOL    HW1 2727  11.531   8.243   8.255 -0.8561 -0.2441 -1.8310
65204SOL    HW2 2728  11.610   8.306   8.141  0.1205  1.8502 -0.0694
65205SOL     OW 2729  12.786   7.769  11.763 -0.0868  0.0585  1.0380
65205SOL    HW1 2730  12.775   7.861  11.738 -1.7736 -0.3710  0.0701
65205SOL    HW2 2731  12.733   7.760  11.843  0.7604  0.1081  1.6173
65206SOL     OW 2732   4.477   6.827   3.625 -0.0151 -0.0635 -0.1362
65206SOL    HW1 2733   4.384   6.845   3.644  0.2245  1.4353 -0.2681
65206SOL    HW2 2734   4.475   6.750   3.568 -1.1519 -0.2909  0.1723
65207SOL     OW 2735   4.370   4.059  10.057  0.3361 -0.2415 -0.4918
65207SOL    HW1 2736   4.295   4.008  10.087  0.2412  0.8409  1.2742
65207SOL    HW2 2737   4.332   4.139  10.021  0.6244  0.4030  0.5977
65208SOL     OW 2738  11.481   4.776   0.176 -0.3861 -0.2975  0.4085
65208SOL    HW1 2739  11.443   4.801   0.260 -0.5447  4.1227 -0.7328
65208SOL    HW2 2740  11.573   4.802   0.183 -0.2764 -0.3703 -0.5931
65209SOL     OW 2741   5.358  11.743  12.255 -0.1253  0.3641 -0.1611
65209SOL    HW1 2742   5.272  11.717  12.224 -0.7009  1.8089  0.1729
65209SOL    HW2 2743   5.406  11.769  12.176  0.5842 -1.8854 -0.5527
65210SOL     OW 2744  10.176   2.960   6.109 -0.5162 -0.1807 -0.4698
65210SOL    HW1 2745  10.111   2.928   6.172  0.1183 -1.1029 -0.2627
65210SOL    HW2 2746  10.207   2.881   6.065  0.2303  0.2869 -0.7894
65211SOL     OW 2747   9.399   9.977   3.719  0.0241 -0.0784  0.1063
65211SOL    HW1 2748   9.489   9.956   3.695 -0.0737 -0.0946 -0.2513
65211SOL    HW2 2749   9.362   9.893   3.747 -0.2106 -0.3033 -0.8294
65212SOL     OW 2750   0.047   2.857   3.955  0.1937 -0.1504 -0.0939
65212SOL    HW1 2751   0.121   2.871   3.896  0.6526 -0.5672  0.3683
65212SOL    HW2 2752   0.063   2.916   4.028 -0.8613  1.0533 -0.7967
65213SOL     OW 2753   7.462   9.552   2.745 -0.3997  0.2704 -0.3116
65213SOL    HW1 2754   7.508   9.468   2.739 -1.0988 -0.1636  0.2487
65213SOL    HW2 2755   7.454   9.581   2.655 -0.1060 -0.2360 -0.5068
65214SOL     OW 2756  12.269  11.437   6.890  0.4358  0.1864 -0.1764
65214SOL    HW1 2757  12.336  11.499   6.920  1.6253 -0.8209 -0.6841
65214SOL    HW2 2758  12.279  11.435   6.795 -0.7944  0.5403 -0.3268
65215SOL     OW 2759  10.889  12.844   6.072 -0.0257  0.1283  0.6486
65215SOL    HW1 2760  10.817  12.899   6.043 -0.7794 -1.5666 -0.8767
65215SOL    HW2 2761  10.863  12.814   6.159  0.0781  1.5631  1.2026
65216SOL     OW 2762   2.869   3.882  11.062 -0.8049  0.5012  0.1370
65216SOL    HW1 2763   2.871   3.820  10.989 -1.7969  0.2113  0.3389
65216SOL    HW2 2764   2.776   3.894  11.080 -0.6084  1.6646  0.4373
65217SOL     OW 2765  10.464  12.542   6.869  0.2091 -0.4537  0.2138
65217SOL    HW1 2766  10.509  12.541   6.785 -1.6204 -1.7526 -0.8339
65217SOL    HW2 2767  10.450  12.635   6.888 -0.2969 -0.1370 -1.4969
65218SOL     OW 2768  10.747  12.735   5.440  0.3847  0.0198  0.3293
65218SOL    HW1 2769  10.742  12.690   5.355 -0.7933 -0.2342  0.5225
65218SOL    HW2 2770  10.838  12.764   5.445  0.5115 -0.0520 -0.9787
65219SOL     OW 2771   1.620   0.552   5.555 -0.3512  0.8197  0.3651
65219SOL    HW1 2772   1.548   0.489   5.561 -0.1603  0.4899 -0.5565
65219SOL    HW2 2773   1.634   0.582   5.644  0.1755 -1.1450  0.9911
65220SOL     OW 2774  12.448   8.970   0.992  0.6468  0.4357  0.1241
65220SOL    HW1 2775  12.520   8.920   1.029  1.1049  0.6140 -0.5008
65220SOL    HW2 2776  12.418   9.027   1.063  1.5804  0.8616  0.1911
65221SOL     OW 2777   0.492   6.817   4.215  0.4069 -0.0849  0.1397
65221SOL    HW1 2778   0.519   6.909   4.212 -1.0590  0.3614  0.1024
65221SOL    HW2 2779   0.401   6.817   4.185  0.0222 -1.4016  1.1732
65222SOL     OW 2780  11.160   1.744   0.967  0.6446 -0.2022 -0.7066
65222SOL    HW1 2781  11.153   1.690   1.046 -0.5322 -0.0598 -0.6993
65222SOL    HW2 2782  11.166   1.834   0.999  0.2557 -0.1512 -0.7695
65223SOL     OW 2783   1.099   6.256  10.107  0.0260  0.2237 -0.7449
65223SOL    HW1 2784   1.029   6.317  10.089  1.0172  1.2403 -1.2755
65223SOL    HW2 2785   1.077   6.218  10.192  0.2475  2.6312  0.4714
65224SOL     OW 2786   8.202   9.360   2.624  0.3014  0.0602 -0.5465
65224SOL    HW1 2787   8.180   9.449   2.652  2.5756  0.7244 -0.6836
65224SOL    HW2 2788   8.279   9.337   2.676 -1.4184 -2.7033  1.0205
65225SOL     OW 2789   6.307   7.956  11.601  0.1002 -0.0420 -0.0855
65225SOL    HW1 2790   6.348   8.023  11.656 -0.9597 -0.3770  1.1771
65225SOL    HW2 2791   6.376   7.893  11.584  0.9217  0.9748 -0.6764
65226SOL     OW 2792   4.493  12.217   9.202 -0.1287  0.4818 -0.5130
65226SOL    HW1 2793   4.553  12.233   9.130  0.7120  0.8832  0.2585
65226SOL    HW2 2794   4.549  12.196   9.276 -0.6523  4.3400  1.1978
65227SOL     OW 2795  10.511   3.012   1.946 -0.1294  0.2070 -0.0875
65227SOL    HW1 2796  10.576   3.004   2.016  1.9588  0.3771 -1.9037
65227SOL    HW2 2797  10.516   3.105   1.920 -0.0153 -0.0976 -1.2072
65228SOL     OW 2798   2.815   9.257   0.510  0.2737  0.3220  0.4858
65228SOL    HW1 2799   2.860   9.338   0.484  0.8615 -0.1230  0.1073
65228SOL    HW2 2800   2.731   9.261   0.465  1.4673 -0.6825 -2.0051
65229SOL     OW 2801   0.225   1.175   2.113  0.3050  0.2601 -0.7423
65229SOL    HW1 2802   0.251   1.111   2.046  0.6108 -0.7145  0.2737
65229SOL    HW2 2803   0.242   1.260   2.073  0.7128 -0.3063 -1.8087
65230SOL     OW 2804  10.665   7.632  11.273 -0.2712 -0.0330 -0.3736
65230SOL    HW1 2805  10.576   7.662  11.255 -0.0311  0.0469 -1.4696
65230SOL    HW2 2806  10.710   7.637  11.189  1.0694  0.9338  0.3590
65231SOL     OW 2807   1.625  10.602  11.215  0.3593 -0.6247 -0.0208
65231SOL    HW1 2808   1.623  10.510  11.241  0.3628 -0.1120  1.9171
65231SOL    HW2 2809   1.536  10.633  11.227  0.6825  0.0064  0.8356
65232SOL     OW 2810  12.732   0.534   7.971  0.1128 -0.2072  0.4399
65232SOL    HW1 2811  12.824   0.553   7.987  0.0513  0.3602  0.1529
65232SOL    HW2 2812  12.684   0.603   8.017 -0.1757 -0.5446  0.6573
65233SOL     OW 2813   0.624  12.182   3.288 -0.0492  0.4872  0.0761
65233SOL    HW1 2814   0.550  12.243   3.290 -0.7931 -0.3281 -1.0031
65233SOL    HW2 2815   0.687  12.218   3.350 -1.5245  0.9967  1.3576
65234SOL     OW 2816   9.611   7.545   8.802  0.6124  0.1731 -0.5904
65234SOL    HW1 2817   9.668   7.602   8.750  0.4178  1.5529  0.6149
65234SOL    HW2 2818   9.534   7.599   8.820  0.5858 -0.3134  0.9236
65235SOL     OW 2819   4.666   6.062   0.984  1.4798 -0.2734 -0.0836
65235SOL    HW1 2820   4.761   6.056   0.974  1.5087  1.1008 -0.7726
65235SOL    HW2 2821   4.653   6.077   1.078  1.9696  0.0505 -0.0657
65236SOL     OW 2822   2.810  12.927   9.998  0.4523  0.5286 -0.4005
65236SOL    HW1 2823   2.795  12.987   9.925  0.3514 -1.1100 -1.7763
65236SOL    HW2 2824   2.728  12.879  10.007  0.8887 -0.1587 -0.0241
65237SOL     OW 2825   5.958   1.046  11.382 -0.0560 -0.7722 -0.5048
65237SOL    HW1 2826   5.921   1.059  11.295 -2.2339 -0.7435  0.3560
65237SOL    HW2 2827   6.003   0.962  11.376 -3.2872 -2.6850 -0.8199
65238SOL     OW 2828  10.648   1.146   1.182 -0.0592  0.4911  0.2960
65238SOL    HW1 2829  10.584   1.145   1.254  1.4122 -0.9779  1.6837
65238SOL    HW2 2830  10.732   1.133   1.226  1.0709  1.0930 -1.5937
65239SOL     OW 2831   3.186   5.848   6.800  0.0581  0.2790 -0.0546
65239SOL    HW1 2832   3.174   5.777   6.864  1.2800 -0.1958 -0.3279
65239SOL    HW2 2833   3.161   5.808   6.716  1.6274 -0.1471 -0.3491
65240SOL     OW 2834   1.790  12.272   5.709  0.1160  0.1838 -0.0972
65240SOL    HW1 2835   1.801  12.195   5.654  0.1317 -0.3247  0.6010
65240SOL    HW2 2836   1.804  12.346   5.650  1.7031 -0.3602 -0.4516
65241SOL     OW 2837   4.901   5.629   3.177  0.1550  0.0097 -0.2939
65241SOL    HW1 2838   4.966   5.697   3.194  0.1429  0.3979 -1.6368
65241SOL    HW2 2839   4.950   5.561   3.129 -0.2889  0.0584 -0.8291
65242SOL     OW 2840  11.217   8.735   3.948  0.4991 -0.5194  0.2356
65242SOL    HW1 2841  11.272   8.670   3.992  0.1492 -0.4495  0.7935
65242SOL    HW2 2842  11.265   8.758   3.869  1.1460 -0.6583  0.5804
65243SOL     OW 2843   9.831   0.935   6.333  0.2806 -0.3698  0.1803
65243SOL    HW1 2844   9.885   0.926   6.255  0.3734 -0.1651  0.2216
65243SOL    HW2 2845   9.836   0.849   6.376 -1.8100 -1.3457 -1.3473
65244SOL     OW 2846   1.474   3.417  12.180 -0.0092 -0.0570  0.1522
65244SOL    HW1 2847   1.421   3.343  12.209 -0.3844 -0.4924 -1.5684
65244SOL    HW2 2848   1.410   3.484  12.156  0.2897  0.2367  0.1747
65245SOL     OW 2849   9.550   1.732   6.635  0.4366  0.2045  0.2856
65245SOL    HW1 2850   9.528   1.702   6.547 -0.1850 -0.0809  0.5324
65245SOL    HW2 2851   9.466   1.737   6.680  0.4907  2.4284  0.2322
65246SOL     OW 2852   6.060   4.232  10.874  0.2527 -0.0939  0.0367
65246SOL    HW1 2853   6.117   4.158  10.896 -1.5268 -1.1314  1.5019
65246SOL    HW2 2854   6.008   4.246  10.954  1.0066  3.2391  0.0667
65247SOL     OW 2855   0.448   0.522   5.462 -0.0705  0.3265 -0.0535
65247SOL    HW1 2856   0.440   0.483   5.376 -0.4315  1.2321 -0.4391
65247SOL    HW2 2857   0.504   0.599   5.449 -3.1850  2.7411 -0.2856
65248SOL     OW 2858   0.567   5.612   1.593  0.4238  0.0620  0.5418
65248SOL    HW1 2859   0.602   5.525   1.614 -0.3883 -0.2092  0.8218
65248SOL    HW2 2860   0.541   5.649   1.677 -1.4105 -0.3984  0.2405
65249SOL     OW 2861   8.756   6.016   1.130  0.5387  0.5369 -0.3752
65249SOL    HW1 2862   8.829   5.956   1.123 -0.0601 -0.3063  0.3781
65249SOL    HW2 2863   8.690   5.982   1.069 -0.4006 -0.5043  1.1433
65250SOL     OW 2864   4.344   7.284   4.873 -0.3713 -0.2860  0.4564
65250SOL    HW1 2865   4.294   7.226   4.816 -1.8064  0.1669  1.2062
65250SOL    HW2 2866   4.300   7.369   4.866  0.7285  0.3144  0.5988
65251SOL     OW 2867   4.346   7.555   9.812 -0.0511 -0.2041 -0.0026
65251SOL    HW1 2868   4.405   7.500   9.863  2.1619 -0.0764 -2.2535
65251SOL    HW2 2869   4.402   7.624   9.777 -2.0250  1.2800 -0.3839
65252SOL     OW 2870  10.763   9.527   6.665  0.0053  0.6903 -0.8853
65252SOL    HW1 2871  10.758   9.499   6.574  0.9742 -0.9040 -0.4847
65252SOL    HW2 2872  10.681   9.495   6.704  0.8408 -1.2472 -0.5714
65253SOL     OW 2873  11.767  10.308  10.255 -0.6469  0.3376  0.0765
65253SOL    HW1 2874  11.709  10.359  10.198 -0.4478  1.4438  0.8369
65253SOL    HW2 2875  11.855  10.327  10.222 -0.5464  0.8086  0.5995
65254SOL     OW 2876   9.323   8.456   9.345  0.3225  0.1042 -0.5887
65254SOL    HW1 2877   9.242   8.443   9.295 -0.4763  2.0876  0.0787
65254SOL    HW2 2878   9.325   8.550   9.363  2.7450  0.1121 -0.4814
65255SOL     OW 2879   6.967   3.539   8.408 -0.4128  0.0921 -0.4238
65255SOL    HW1 2880   6.875   3.512   8.402 -0.0644 -1.2739  0.2011
65255SOL    HW2 2881   7.016   3.467   8.368  0.2930  1.7084 -2.6504
65256SOL     OW 2882   0.823   2.603   6.778  0.6698 -0.0804  0.3610
65256SOL    HW1 2883   0.833   2.539   6.708  1.4788  0.6711 -0.2281
65256SOL    HW2 2884   0.754   2.566   6.834  0.0629 -0.7247 -0.7739
65257SOL     OW 2885   8.906   2.614  11.926  0.0263  0.5299 -0.4320
65257SOL    HW1 2886   8.961   2.643  11.999  0.6352 -0.8371 -0.3142
65257SOL    HW2 2887   8.884   2.524  11.947  0.0356  0.1742 -1.8431
65258SOL     OW 2888   6.051   7.290  10.223 -0.1468  0.0610  0.6702
65258SOL    HW1 2889   6.048   7.205  10.267  0.5921 -0.0450  0.5290
65258SOL    HW2 2890   5.962   7.304  10.191 -0.5101 -0.2132  1.5293
65259SOL     OW 2891   2.552   3.129   6.646 -0.4657 -0.0353 -0.2077
65259SOL    HW1 2892   2.475   3.183   6.661 -0.1400  0.5124 -0.4562
65259SOL    HW2 2893   2.518   3.046   6.614 -0.9294  0.3917 -0.8433
65260SOL     OW 2894  11.113   7.561   7.486 -0.1493 -0.2899 -0.0131
65260SOL    HW1 2895  11.174   7.552   7.412  1.9682 -1.3527  1.7592
65260SOL    HW2 2896  11.132   7.486   7.542 -0.6056  1.2675  2.3620
65261SOL     OW 2897   2.100   9.620   5.098  0.2706  0.7298 -0.1039
65261SOL    HW1 2898   2.079   9.646   5.187 -0.8816  1.8226 -0.6670
65261SOL    HW2 2899   2.137   9.698   5.058  1.2847  0.0938 -0.4408
65262SOL     OW 2900  11.139   7.375   1.828 -0.2253  0.1125  0.2945
65262SOL    HW1 2901  11.178   7.310   1.770 -0.2987  0.9805 -0.7465
65262SOL    HW2 2902  11.158   7.342   1.916  0.1451 -1.0685 -0.2070
65263SOL     OW 2903   8.089   7.199  11.191 -0.2160  0.5735  0.0185
65263SOL    HW1 2904   8.088   7.206  11.095  0.7341 -0.9578 -0.1451
65263SOL    HW2 2905   8.178   7.169  11.211 -1.2538 -2.1185  1.0854
65264SOL     OW 2906   5.231   4.301   6.192  0.2677 -0.2204  0.1886
65264SOL    HW1 2907   5.157   4.278   6.247 -0.3860 -0.8381 -0.9103
65264SOL    HW2 2908   5.248   4.222   6.140  0.2392  0.6269 -1.1744
65265SOL     OW 2909   6.287   7.163   7.852  0.5635 -0.1239 -0.6361
65265SOL    HW1 2910   6.281   7.235   7.789 -2.4157 -0.1646 -0.5315
65265SOL    HW2 2911   6.259   7.201   7.935 -0.3772 -1.2034 -0.4380
65266SOL     OW 2912   1.981   4.719   4.640 -0.1069  0.0313 -0.3313
65266SOL    HW1 2913   1.892   4.753   4.629 -0.3359 -0.5088 -0.2201
65266SOL    HW2 2914   1.968   4.637   4.688  0.3253 -0.7296 -1.4797
65267SOL     OW 2915   2.313   5.029  11.330  0.2476 -0.0772 -0.4018
65267SOL    HW1 2916   2.306   5.115  11.371  2.2161 -1.0296  2.1989
65267SOL    HW2 2917   2.360   5.045  11.248 -1.2963  1.5420 -1.0166
65268SOL     OW 2918   4.383   9.400   9.266 -0.6569  0.2670  0.5497
65268SOL    HW1 2919   4.313   9.441   9.316 -1.0741 -0.2580  0.4037
65268SOL    HW2 2920   4.428   9.344   9.330 -0.0646  0.9759  0.7584
65269SOL     OW 2921   9.359   2.079   0.615 -0.0307  0.5178  0.2600
65269SOL    HW1 2922   9.407   2.098   0.696 -0.1220  2.4424 -0.0751
65269SOL    HW2 2923   9.273   2.048   0.645  0.0962  0.7683  0.9075
65270SOL     OW 2924  10.790  10.064  11.079 -0.2020 -0.7453  0.0054
65270SOL    HW1 2925  10.880  10.081  11.108 -0.1200 -2.0842  0.6110
65270SOL    HW2 2926  10.742  10.144  11.102  0.6558 -0.3368  0.4294
65271SOL     OW 2927   7.285   3.696   9.085  0.4068  0.2864  0.0140
65271SOL    HW1 2928   7.222   3.623   9.087 -0.3524  0.9405  2.3748
65271SOL    HW2 2929   7.366   3.658   9.118 -0.5580  0.8965  3.4106
65272SOL     OW 2930   3.731  12.743   8.647 -0.2472 -0.2510 -0.1803
65272SOL    HW1 2931   3.699  12.817   8.698  0.3760 -0.2143  0.1793
65272SOL    HW2 2932   3.654  12.709   8.602 -0.2685  1.6255 -1.6813
65273SOL     OW 2933  12.103   8.869   2.728 -0.4554 -0.8002 -0.5284
65273SOL    HW1 2934  12.124   8.928   2.800  0.1308  0.0544 -1.3745
65273SOL    HW2 2935  12.117   8.782   2.764  1.5686 -0.3590 -0.0975
65274SOL     OW 2936  12.857   8.382  12.126  0.0143 -0.2152 -0.0860
65274SOL    HW1 2937  12.836   8.288  12.124  1.1249 -0.5746 -4.0252
65274SOL    HW2 2938  12.952   8.384  12.118 -0.0175  1.2332 -0.2246
65275SOL     OW 2939  11.536   4.585   7.090 -0.5064  0.0569 -0.2331
65275SOL    HW1 2940  11.609   4.629   7.045 -0.1859 -1.0187 -0.7902
65275SOL    HW2 2941  11.475   4.561   7.020 -0.7509 -0.2482  0.0810
65276SOL     OW 2942   6.877   1.460  12.907 -0.1445  0.1402  0.2458
65276SOL    HW1 2943   6.886   1.541  12.855 -0.4909 -0.0126 -0.0608
65276SOL    HW2 2944   6.897   1.390  12.845 -2.6682 -0.1772 -0.3030
65277SOL     OW 2945   1.374   3.478   9.902  0.0613  0.0744 -0.2908
65277SOL    HW1 2946   1.409   3.533   9.832 -1.2934 -0.5713 -1.5142
65277SOL    HW2 2947   1.279   3.486   9.894 -0.1303 -0.0978  1.4198
65278SOL     OW 2948  11.486   4.697   6.644 -0.4418 -0.2019  0.0282
65278SOL    HW1 2949  11.503   4.718   6.735  0.8588  0.2456 -0.3004
65278SOL    HW2 2950  11.520   4.772   6.595  0.2975 -1.1209 -0.9106
65279SOL     OW 2951  10.944   3.009   0.198 -0.1567 -0.0928  0.5250
65279SOL    HW1 2952  10.877   3.044   0.139 -0.3991 -0.5958  0.4995
65279SOL    HW2 2953  10.901   2.936   0.243  0.5409 -0.7622  0.1182
65280SOL     OW 2954  10.799  12.433   5.449 -0.0369  0.0489 -0.0212
65280SOL    HW1 2955  10.829  12.472   5.531 -1.4385 -0.5760  0.8394
65280SOL    HW2 2956  10.834  12.490   5.380  2.9467 -0.5597  0.8445
65281SOL     OW 2957   9.787  10.260   3.723 -0.2728  0.8680 -0.1109
65281SOL    HW1 2958   9.698  10.232   3.742  0.4378  0.0908  2.4981
65281SOL    HW2 2959   9.836  10.179   3.711  0.0559  1.2923 -1.9120
65282SOL     OW 2960   1.511   7.038   0.261 -0.0894  0.0731 -0.2260
65282SOL    HW1 2961   1.580   7.035   0.328  0.9932 -0.4029 -1.3160
65282SOL    HW2 2962   1.430   7.027   0.310  0.5411  1.3128  1.1822
65283SOL     OW 2963   2.767   1.742   1.198  0.6295  0.0423 -0.1170
65283SOL    HW1 2964   2.672   1.748   1.207  0.7649  1.2378  0.7637
65283SOL    HW2 2965   2.784   1.650   1.178 -0.6245 -0.4506  0.9610
65284SOL     OW 2966   8.994   6.220   4.305  0.4721  0.2398  0.3736
65284SOL    HW1 2967   8.929   6.241   4.372  0.1313 -1.8450  0.7716
65284SOL    HW2 2968   9.044   6.301   4.294 -0.9991  1.3415  1.3861
65285SOL     OW 2969   9.197  10.636  12.884  0.6005  0.4978 -0.0787
65285SOL    HW1 2970   9.264  10.569  12.878  2.1099  1.8415  0.8815
65285SOL    HW2 2971   9.175  10.640  12.977 -2.1289 -1.0782 -0.5457
65286SOL     OW 2972   2.838   0.668   6.716  0.3197 -0.0525  0.1847
65286SOL    HW1 2973   2.849   0.618   6.635  1.2481 -1.4830  1.1355
65286SOL    HW2 2974   2.794   0.749   6.689  0.6801 -0.4475 -1.7422
65287SOL     OW 2975   3.895  11.472   5.587  0.2968  0.0106  0.1309
65287SOL    HW1 2976   3.836  11.399   5.566  0.1777 -0.1385  0.9185
65287SOL    HW2 2977   3.944  11.487   5.507 -0.3834 -0.2710 -0.3550
65288SOL     OW 2978  11.289   4.384   9.878  0.5188  0.0970  0.3324
65288SOL    HW1 2979  11.240   4.362   9.958 -0.7628  1.0210 -0.1665
65288SOL    HW2 2980  11.250   4.329   9.810  1.6537 -0.7389  0.3237
65289SOL     OW 2981   5.703   2.019   9.719 -0.5550 -0.0011 -0.5084
65289SOL    HW1 2982   5.655   1.950   9.674 -1.8546  0.3807  0.2374
65289SOL    HW2 2983   5.774   1.974   9.764 -1.4764 -0.8833  0.1033
65290SOL     OW 2984   5.403   4.113   8.867  0.0206 -0.1708 -0.5659
65290SOL    HW1 2985   5.325   4.168   8.863  0.3200  0.2323 -0.9963
65290SOL    HW2 2986   5.389   4.056   8.943 -0.7939 -0.2663 -0.7857
65291SOL     OW 2987   1.483   4.094  10.486 -0.0269  0.4366 -0.2524
65291SOL    HW1 2988   1.563   4.051  10.457 -0.3207  0.8603 -1.7499
65291SOL    HW2 2989   1.468   4.060  10.575  0.2083 -1.8882 -1.0443
65292SOL     OW 2990   5.111   3.331  11.595  1.0548  0.2458  0.0775
65292SOL    HW1 2991   5.065   3.389  11.656  0.2284  0.8731 -1.1091
65292SOL    HW2 2992   5.189   3.380  11.570  0.9096  0.4042 -0.0786
65293SOL     OW 2993   6.564   4.847   2.715 -0.7493 -0.0535  0.3749
65293SOL    HW1 2994   6.650   4.820   2.683 -0.1990  1.5094  0.4533
65293SOL    HW2 2995   6.502   4.793   2.667  0.1909  0.1383 -1.1148
65294SOL     OW 2996   5.171   3.183   3.200 -0.2521 -0.4658  0.3707
65294SOL    HW1 2997   5.156   3.095   3.234  0.5717 -0.5720  0.4825
65294SOL    HW2 2998   5.245   3.217   3.251 -0.7851  0.4317  0.5767
65295SOL     OW 2999  12.809   7.694   8.891 -0.3026  0.3568 -0.0532
65295SOL    HW1 3000  12.722   7.656   8.904  0.2863 -1.3193 -0.7417
65295SOL    HW2 3001  12.851   7.636   8.828  0.9507  1.7489 -0.5498
65296SOL     OW 3002   5.383   2.416   7.909 -0.0093 -0.1348  1.1676
65296SOL    HW1 3003   5.395   2.370   7.826 -0.5847  1.2674  0.2660
65296SOL    HW2 3004   5.449   2.486   7.907 -0.1557  0.0289  1.8078
65297SOL     OW 3005  10.594   2.305  11.340 -0.3236 -0.1824 -0.0332
65297SOL    HW1 3006  10.619   2.216  11.366 -0.1010 -0.2363 -0.4393
65297SOL    HW2 3007  10.580   2.300  11.246  1.6667  0.6710 -0.4189
65298SOL     OW 3008   6.396   4.830   2.162  0.6258  0.7097  0.6116
65298SOL    HW1 3009   6.306   4.814   2.189  0.3692 -0.5313 -0.8312
65298SOL    HW2 3010   6.398   4.923   2.140 -0.3891  0.6857  0.3708
65299SOL     OW 3011   2.920  11.464   5.896  0.0447 -0.1393 -0.3783
65299SOL    HW1 3012   3.006  11.444   5.858 -0.5827 -0.3123 -1.7703
65299SOL    HW2 3013   2.868  11.385   5.880 -0.8151  0.5234 -0.9272
65300SOL     OW 3014   0.024  11.758   6.147  0.0960  0.1682 -0.5503
65300SOL    HW1 3015  -0.004  11.798   6.229  0.6388  0.0990 -0.3249
65300SOL    HW2 3016   0.119  11.775   6.144  0.0496  0.3275 -1.2449
65301SOL     OW 3017   7.706   4.648  10.821  0.3821  0.3437  0.5038
65301SOL    HW1 3018   7.733   4.671  10.910  0.1877  1.1059  0.3699
65301SOL    HW2 3019   7.626   4.597  10.833  0.4583  0.2829  0.7720
65302SOL     OW 3020   9.398   3.826   5.241 -0.4549 -0.0070  0.1037
65302SOL    HW1 3021   9.430   3.781   5.162  0.2968  1.5898 -0.5385
65302SOL    HW2 3022   9.321   3.874   5.211  0.3618  1.3320  0.1001
65303SOL     OW 3023  10.502  10.659   0.898  0.4219  0.5499  0.2893
65303SOL    HW1 3024  10.539  10.734   0.944 -0.8682  0.4140  1.6359
65303SOL    HW2 3025  10.542  10.583   0.941 -1.2597  0.4040  1.7215
65304SOL     OW 3026   3.880   7.359   2.878 -0.3569 -0.1795  0.0258
65304SOL    HW1 3027   3.968   7.372   2.914 -0.6154  0.0188  0.6037
65304SOL    HW2 3028   3.886   7.392   2.788  0.0062  0.3691  0.2448
65305SOL     OW 3029   6.365   5.703  11.850 -0.3623  0.0086 -0.0332
65305SOL    HW1 3030   6.451   5.667  11.831 -0.0500  0.2464  0.8674
65305SOL    HW2 3031   6.305   5.653  11.795  0.3328 -0.2403 -0.5798
65306SOL     OW 3032   8.254  12.808   7.327  0.2351 -0.4821  0.0212
65306SOL    HW1 3033   8.304  12.849   7.398  1.6635  0.1156 -1.2512
65306SOL    HW2 3034   8.244  12.878   7.262  0.8407 -1.5460 -1.2734
65307SOL     OW 3035   2.978   6.361   3.735  0.0380 -1.0005 -0.0438
65307SOL    HW1 3036   2.890   6.351   3.773  0.5880 -0.2210  1.5270
65307SOL    HW2 3037   3.034   6.307   3.791  0.8143 -0.1631  0.0173
65308SOL     OW 3038  10.126   6.460   3.838  0.5407  0.5010 -0.1992
65308SOL    HW1 3039  10.179   6.488   3.913 -0.8545  0.6350  0.7780
65308SOL    HW2 3040  10.184   6.472   3.762  2.0450  0.2256  0.8495
65309SOL     OW 3041   6.936  12.474   3.848  0.0383 -0.1504  0.1825
65309SOL    HW1 3042   6.949  12.420   3.926 -0.7078  0.3567  0.6752
65309SOL    HW2 3043   6.905  12.558   3.882 -0.8701 -0.1173 -0.6869
65310SOL     OW 3044  10.212   3.531   3.096 -0.3330 -0.2129  0.2934
65310SOL    HW1 3045  10.183   3.550   3.185 -0.5445  0.0438  0.1690
65310SOL    HW2 3046  10.282   3.594   3.080 -0.8410  0.2803 -0.0148
65311SOL     OW 3047   5.262   1.090   4.111 -0.5548 -0.3672  0.2503
65311SOL    HW1 3048   5.284   1.137   4.030  0.3478  0.3877  0.9092
65311SOL    HW2 3049   5.338   1.034   4.128  1.2055  2.4687  2.7044
65312SOL     OW 3050   1.856  12.545  12.002 -0.4752  0.5486  0.0581
65312SOL    HW1 3051   1.833  12.590  12.084  0.3298  1.3770 -0.1490
65312SOL    HW2 3052   1.830  12.454  12.017  0.9340  0.3592  1.7858
65313SOL     OW 3053   3.783   6.660   8.969  0.1583  0.3711  0.0569
65313SOL    HW1 3054   3.703   6.703   8.941  0.1000  0.3747  0.2291
65313SOL    HW2 3055   3.774   6.652   9.064  0.0767 -0.2006  0.0071
65314SOL     OW 3056   5.243   9.663   3.022  0.2275  0.4931  0.7422
65314SOL    HW1 3057   5.219   9.597   3.087  0.7571  0.0289  0.4759
65314SOL    HW2 3058   5.232   9.619   2.937  0.4163  0.8003  0.5542
65315SOL     OW 3059  10.049   1.830   8.799 -0.6077 -0.1520  0.0332
65315SOL    HW1 3060  10.102   1.750   8.803 -0.1136  0.1926  0.8221
65315SOL    HW2 3061   9.962   1.801   8.772 -0.1658 -0.8140 -0.6847
65316SOL     OW 3062   3.200   9.518  12.209  0.5202  0.0075  0.0997
65316SOL    HW1 3063   3.279   9.501  12.260 -0.1987  1.4313  1.7675
65316SOL    HW2 3064   3.136   9.550  12.273 -1.8226 -2.2021 -0.9793
65317SOL     OW 3065  11.548   2.640   2.027 -0.1859 -0.5804  0.3061
65317SOL    HW1 3066  11.549   2.619   2.120 -2.8026 -2.6385 -0.0256
65317SOL    HW2 3067  11.481   2.708   2.018  1.9221  1.6221  0.1672
65318SOL     OW 3068   1.954   7.337   5.676  0.1978 -0.2645 -0.0685
65318SOL    HW1 3069   1.985   7.246   5.675  1.1439  0.0503 -0.8329
65318SOL    HW2 3070   2.033   7.390   5.682 -0.3143  0.5269 -0.1378
65319SOL     OW 3071   0.591   7.140  10.975 -0.0731  0.0143 -0.2531
65319SOL    HW1 3072   0.589   7.224  11.021  1.0219 -1.1945  2.1976
65319SOL    HW2 3073   0.667   7.145  10.918 -0.6921  1.0857 -1.0065
65320SOL     OW 3074  12.654   0.270   6.328 -0.5409 -0.0517 -0.3716
65320SOL    HW1 3075  12.606   0.303   6.404  0.0978  2.0513 -0.8396
65320SOL    HW2 3076  12.593   0.278   6.255 -0.6756 -0.7544 -0.3443
65321SOL     OW 3077   3.362   6.934  12.493 -0.6573 -0.0108  0.8716
65321SOL    HW1 3078   3.350   6.894  12.406  0.6241  0.2274  0.5596
65321SOL    HW2 3079   3.324   6.871  12.554 -1.9072 -0.0133  0.1149
65322SOL     OW 3080   5.492   1.143   4.479 -0.0474 -0.2274  0.6436
65322SOL    HW1 3081   5.540   1.221   4.450  0.0382 -0.6557 -0.3908
65322SOL    HW2 3082   5.526   1.126   4.567  1.2594 -0.1609  0.1751
65323SOL     OW 3083   5.827   0.111   0.644  0.2660  0.0613  0.1757
65323SOL    HW1 3084   5.751   0.137   0.696  0.3562  1.6749 -0.4453
65323SOL    HW2 3085   5.885   0.187   0.646  0.0840  0.3568 -2.6063
65324SOL     OW 3086   3.254   2.925   7.316 -0.2526  0.7078  0.0839
65324SOL    HW1 3087   3.328   2.918   7.256  0.0169 -0.7446  0.5683
65324SOL    HW2 3088   3.262   2.850   7.374 -0.4355  2.1608  2.0709
65325SOL     OW 3089   4.856   1.054   2.449  0.3936 -0.1429  0.7084
65325SOL    HW1 3090   4.819   1.085   2.531  0.3605  0.7674  0.3603
65325SOL    HW2 3091   4.874   1.133   2.399 -0.5217 -0.7054 -0.5751
65326SOL     OW 3092  12.201  11.054   6.223 -0.5567  0.1113  0.8670
65326SOL    HW1 3093  12.159  10.982   6.270 -1.5155 -0.8531 -1.3667
65326SOL    HW2 3094  12.279  11.015   6.183 -0.8296  0.4134  0.0225
65327SOL     OW 3095   6.449  12.512   8.804  0.1326 -0.3385  0.1140
65327SOL    HW1 3096   6.501  12.520   8.724  2.1125  0.6490  1.4459
65327SOL    HW2 3097   6.406  12.427   8.795  1.6852 -1.0425 -1.2250
65328SOL     OW 3098   0.643  10.983  10.350  0.1791 -0.0460  0.7806
65328SOL    HW1 3099   0.732  10.984  10.385  0.7709 -0.7789 -0.6313
65328SOL    HW2 3100   0.627  11.074  10.324  1.1470 -0.2045 -0.4480
65329SOL     OW 3101  12.182   7.678   5.679 -0.0010  0.3057 -0.5220
65329SOL    HW1 3102  12.197   7.772   5.686  1.1307  0.0086  2.6207
65329SOL    HW2 3103  12.092   7.666   5.710  1.1482  0.1052  3.1292
65330SOL     OW 3104  10.674  10.309  11.164 -0.0983 -0.0553  0.5655
65330SOL    HW1 3105  10.638  10.386  11.120 -2.3220 -0.1695  2.0890
65330SOL    HW2 3106  10.704  10.342  11.249  0.1769 -0.6330  0.6947
65331SOL     OW 3107   8.519   1.684   6.807  0.0814  0.4492 -0.1472
65331SOL    HW1 3108   8.519   1.758   6.867  0.3548  1.1578 -1.0020
65331SOL    HW2 3109   8.611   1.658   6.801 -0.1419 -0.6798  0.9970
65332SOL     OW 3110  11.814   8.659   1.832  0.1708 -0.2562 -0.2232
65332SOL    HW1 3111  11.795   8.685   1.742  0.0117  0.0112 -0.1108
65332SOL    HW2 3112  11.759   8.582   1.847 -0.3937  0.1624 -0.0962
65333SOL     OW 3113  12.430   7.484   7.781 -0.2682  0.2768  0.0534
65333SOL    HW1 3114  12.341   7.465   7.754  0.2527  0.6712 -2.1516
65333SOL    HW2 3115  12.437   7.580   7.775  0.3335  0.2417  0.0984
65334SOL     OW 3116   9.098   0.140   7.134 -0.1061 -0.5138  0.0704
65334SOL    HW1 3117   9.056   0.092   7.062 -1.3926  0.7846 -0.1032
65334SOL    HW2 3118   9.173   0.086   7.159 -0.7521 -1.9518 -0.9538
65335SOL     OW 3119   1.145  11.036   4.128  0.1741  0.1327  0.1638
65335SOL    HW1 3120   1.085  10.996   4.191  0.7282  1.0120  1.3046
65335SOL    HW2 3121   1.144  11.129   4.151  1.3317  0.2848 -0.3310
65336SOL     OW 3122   9.088   8.525   8.375  0.0165  0.1205  0.2559
65336SOL    HW1 3123   9.085   8.551   8.283  0.5774  0.2910  0.2817
65336SOL    HW2 3124   9.178   8.494   8.388  0.6854  2.3185  1.3387
65337SOL     OW 3125  12.191  12.312   5.027  0.4375 -0.6960  0.2557
65337SOL    HW1 3126  12.122  12.308   5.093 -0.9569  1.9705 -0.8931
65337SOL    HW2 3127  12.167  12.244   4.964 -1.3809  0.3926 -0.2943
65338SOL     OW 3128   7.344  12.711   6.877  0.1796  0.2779  0.2410
65338SOL    HW1 3129   7.412  12.656   6.916 -0.1309 -1.1407 -1.1363
65338SOL    HW2 3130   7.355  12.700   6.782 -2.2961 -0.4352 -0.0263
65339SOL     OW 3131   4.739   5.421   2.970  0.2235 -0.6829 -0.5592
65339SOL    HW1 3132   4.752   5.345   3.027  1.4639 -0.6132 -0.7193
65339SOL    HW2 3133   4.822   5.430   2.923 -0.3779 -0.0380 -1.5331
65340SOL     OW 3134   7.447   0.241   5.186  0.4907 -0.8099  0.0487
65340SOL    HW1 3135   7.409   0.291   5.258  0.9878 -0.8773  0.3625
65340SOL    HW2 3136   7.377   0.182   5.158 -0.3855  0.5707 -0.8411
65341SOL     OW 3137  12.826   3.017   9.260 -0.9321  0.1823  0.2865
65341SOL    HW1 3138  12.735   3.044   9.272 -0.1828  2.2427  1.9380
65341SOL    HW2 3139  12.843   3.029   9.167 -2.1815  0.3316  0.0664
65342SOL     OW 3140   7.661  12.369   2.250 -0.0277 -0.3225 -0.5415
65342SOL    HW1 3141   7.605  12.435   2.290  0.2368 -1.1416  1.3099
65342SOL    HW2 3142   7.678  12.401   2.162 -1.6636  0.9827 -0.4305
65343SOL     OW 3143   7.161   8.227   1.571  0.4404 -0.5869 -0.2883
65343SOL    HW1 3144   7.253   8.203   1.573  0.3865 -0.7770  1.0827
65343SOL    HW2 3145   7.119   8.168   1.635 -0.4509  0.1480 -0.1673
65344SOL     OW 3146   1.823   4.344   8.665 -0.1626 -0.6539 -0.1441
65344SOL    HW1 3147   1.807   4.428   8.708  0.6891  0.4124 -1.7704
65344SOL    HW2 3148   1.776   4.280   8.718 -0.5393  0.7958  1.3565
65345SOL     OW 3149  12.431   9.134   4.833 -0.3087  0.1252 -0.0971
65345SOL    HW1 3150  12.372   9.081   4.887 -1.7105  0.6829 -1.0247
65345SOL    HW2 3151  12.378   9.208   4.804  0.6689  0.3341 -1.4716
65346SOL     OW 3152   2.303   1.082   4.844 -0.4136  0.3792 -0.0621
65346SOL    HW1 3153   2.220   1.128   4.861 -1.2629 -0.8652 -0.6332
65346SOL    HW2 3154   2.334   1.119   4.762 -0.7645  0.3704 -0.2023
65347SOL     OW 3155   5.153   3.469   9.589  0.5343 -0.6769  0.3616
65347SOL    HW1 3156   5.241   3.450   9.622  1.3847  2.5927  0.3619
65347SOL    HW2 3157   5.130   3.553   9.628 -2.6655 -1.4346  0.3764
65348SOL     OW 3158   6.268   1.027   0.597  0.4696  0.0969 -0.2774
65348SOL    HW1 3159   6.273   1.092   0.526  3.2809 -0.9072 -1.1170
65348SOL    HW2 3160   6.243   1.078   0.674 -1.0163  1.5145 -1.6102
65349SOL     OW 3161   4.320   9.121   1.883  0.4023  0.5878 -0.7473
65349SOL    HW1 3162   4.368   9.043   1.913 -3.3765 -1.4334  0.7416
65349SOL    HW2 3163   4.366   9.194   1.923  1.8424 -1.2227  1.1227
65350SOL     OW 3164   9.217  11.567   8.974  0.2468  0.1693  0.2816
65350SOL    HW1 3165   9.200  11.487   9.025  1.7680 -0.2956  0.1059
65350SOL    HW2 3166   9.268  11.622   9.032 -0.9587  1.1308  0.4683
65351SOL     OW 3167   6.057   3.554   3.646  0.0139  0.1828  0.3389
65351SOL    HW1 3168   6.024   3.605   3.573 -0.8326  2.3888  2.1325
65351SOL    HW2 3169   6.149   3.578   3.654  1.1495 -2.7189 -2.0085
65352SOL     OW 3170   1.729  11.136   5.887 -0.8115 -0.0172  0.7088
65352SOL    HW1 3171   1.767  11.198   5.825 -0.5342 -1.2360 -0.3744
65352SOL    HW2 3172   1.716  11.187   5.967  1.6451  0.8533  0.6333
65353SOL     OW 3173   4.803   1.129   9.547  0.0896  0.0496  0.1108
65353SOL    HW1 3174   4.714   1.118   9.514 -0.9307 -0.9852  2.9874
65353SOL    HW2 3175   4.795   1.191   9.619  2.1641  1.8745 -1.1161
65354SOL     OW 3176  10.394   0.816   9.284 -0.4724  0.2429 -0.0949
65354SOL    HW1 3177  10.472   0.816   9.228 -0.5606  1.1220 -0.2381
65354SOL    HW2 3178  10.357   0.728   9.273  0.1772  0.0078 -0.4792
65355SOL     OW 3179   6.453   6.769   4.516  0.6313 -0.3838 -0.3849
65355SOL    HW1 3180   6.430   6.718   4.594 -0.0117 -0.4168 -0.5901
65355SOL    HW2 3181   6.549   6.766   4.513  0.6200 -1.2157 -0.1484
65356SOL     OW 3182   1.811   8.831   6.034 -0.1909  0.0618  0.3322
65356SOL    HW1 3183   1.792   8.738   6.018 -0.7842  0.2608 -0.1525
65356SOL    HW2 3184   1.758   8.878   5.969 -0.4146  0.7638  1.0073
65357SOL     OW 3185   2.498   9.976   8.007  0.1090 -0.5619  0.8568
65357SOL    HW1 3186   2.545   9.913   8.061 -1.1291 -0.5441  1.9811
65357SOL    HW2 3187   2.550  10.056   8.013  0.4622 -0.8211  1.2994
65358SOL     OW 3188   3.137   5.814   3.398  0.0904  0.1039 -0.4305
65358SOL    HW1 3189   3.180   5.740   3.441  0.1463 -0.1112 -0.8490
65358SOL    HW2 3190   3.086   5.856   3.467  0.9823  0.3670  0.0760
65359SOL     OW 3191   1.151   3.897   3.352  0.6796 -0.4215  0.2347
65359SOL    HW1 3192   1.199   3.979   3.361  0.7983 -0.4213 -0.3453
65359SOL    HW2 3193   1.194   3.853   3.278 -0.9272  0.1008 -1.0806
65360SOL     OW 3194   1.206   6.515   2.725  0.4126 -0.0883 -0.3187
65360SOL    HW1 3195   1.255   6.581   2.676  2.4953  0.5115  2.3714
65360SOL    HW2 3196   1.269   6.444   2.740 -0.7015 -1.0536 -0.0222
65361SOL     OW 3197   6.320   4.467   1.225 -0.0778 -0.1588  0.0178
65361SOL    HW1 3198   6.278   4.548   1.254 -0.1737 -0.0975 -0.2898
65361SOL    HW2 3199   6.403   4.465   1.273 -0.8431 -0.7760  1.3862
65362SOL     OW 3200   8.366   9.029   1.755  0.1672 -0.2202  0.2781
65362SOL    HW1 3201   8.383   8.935   1.751 -0.0831 -0.2314 -0.5376
65362SOL    HW2 3202   8.354   9.056   1.664 -0.2598  0.5115  0.5417
65363SOL     OW 3203   0.149   1.072   7.053  0.6211  0.3477  0.4193
65363SOL    HW1 3204   0.119   1.097   6.965 -0.0416 -1.4598  0.0897
65363SOL    HW2 3205   0.231   1.025   7.038  0.3059 -0.3095  0.7200
65364SOL     OW 3206   7.691  10.732   5.744 -0.2579  0.0031 -0.1002
65364SOL    HW1 3207   7.701  10.637   5.752 -2.0083 -0.2165  0.0475
65364SOL    HW2 3208   7.667  10.761   5.832  0.9909  0.7043  0.0220
65365SOL     OW 3209   6.131   5.390   6.528  0.1063  0.0870 -0.1394
65365SOL    HW1 3210   6.132   5.408   6.621  1.4212  0.7762 -0.2695
65365SOL    HW2 3211   6.133   5.294   6.522 -2.5646 -0.0833  0.5174
65366SOL     OW 3212   6.223   3.829   8.499  0.2323  0.6329 -0.3939
65366SOL    HW1 3213   6.299   3.816   8.442 -0.0647 -1.5357 -0.3581
65366SOL    HW2 3214   6.148   3.806   8.444 -0.1703 -0.0400  0.4104
65367SOL     OW 3215   5.159  12.636   7.930  0.5617  0.0354  0.3611
65367SOL    HW1 3216   5.140  12.629   7.836  2.4105  1.1525 -0.1404
65367SOL    HW2 3217   5.206  12.718   7.939  1.2277 -0.4930  2.1486
65368SOL     OW 3218   8.055   4.879   2.080 -0.3213  0.1997  0.1729
65368SOL    HW1 3219   8.084   4.881   2.171  4.0291  0.4814 -1.0038
65368SOL    HW2 3220   8.095   4.956   2.040 -3.1816  0.8167 -1.8226
65369SOL     OW 3221   0.091   9.856  12.813  0.0212 -0.4727  0.4644
65369SOL    HW1 3222   0.084   9.780  12.755 -0.9015 -0.0136 -0.0502
65369SOL    HW2 3223   0.125   9.926  12.756 -0.6380 -0.0878  0.5336
65370SOL     OW 3224   3.651  10.222  11.709  0.7070 -0.3577 -0.1321
65370SOL    HW1 3225   3.573  10.195  11.661  0.9101  0.5021 -0.9623
65370SOL    HW2 3226   3.721  10.166  11.676  0.6955 -0.2697 -0.3062
65371SOL     OW 3227  10.899   8.784   9.532 -0.0890 -0.3864  0.6269
65371SOL    HW1 3228  10.987   8.822   9.535 -0.5860  0.7930  1.0031
65371SOL    HW2 3229  10.907   8.710   9.472  0.4740  1.6165 -1.9681
65372SOL     OW 3230   1.750  12.226  10.248  0.0423 -0.5709 -0.2345
65372SOL    HW1 3231   1.806  12.240  10.172 -0.5149  0.2230 -0.5181
65372SOL    HW2 3232   1.778  12.293  10.311 -0.3818 -0.3583 -0.2659
65373SOL     OW 3233  12.089   8.120   8.264 -0.1520 -0.2048 -0.1877
65373SOL    HW1 3234  12.011   8.145   8.215  2.2972  4.0809 -2.5236
65373SOL    HW2 3235  12.093   8.184   8.336  1.2749 -0.1102 -0.3143
65374SOL     OW 3236  10.874  12.220   4.623 -0.2017 -0.5483 -0.9741
65374SOL    HW1 3237  10.861  12.146   4.564  0.7064  0.0067 -1.8985
65374SOL    HW2 3238  10.932  12.279   4.575  0.8220 -0.2223  0.5946
65375SOL     OW 3239  10.203  11.836   0.034  0.1093 -0.3931  1.0329
65375SOL    HW1 3240  10.210  11.806   0.124  0.9137  0.7814  1.3891
65375SOL    HW2 3241  10.157  11.765  -0.012  2.0299 -2.2353  1.7657
65376SOL     OW 3242   3.418   9.131   4.744 -0.3146  0.0950 -0.2457
65376SOL    HW1 3243   3.352   9.131   4.675 -2.2989 -0.0959  1.5597
65376SOL    HW2 3244   3.401   9.211   4.794  0.5178 -0.1929  0.5303
65377SOL     OW 3245   7.980  12.640  10.258 -0.1529 -0.1603 -0.1404
65377SOL    HW1 3246   8.070  12.627  10.290  0.1951  1.2610 -0.4694
65377SOL    HW2 3247   7.933  12.677  10.333 -0.1131  0.3252 -0.3489
65378SOL     OW 3248  12.525   9.667   0.565  0.5704 -0.3263  0.0283
65378SOL    HW1 3249  12.599   9.627   0.519  0.4499  0.0853 -0.5360
65378SOL    HW2 3250  12.448   9.635   0.519  0.3992 -0.6799  0.5575
65379SOL     OW 3251   7.361   0.183   8.508 -0.5291 -0.4069 -0.8264
65379SOL    HW1 3252   7.309   0.180   8.588 -1.7087  0.5408 -1.5249
65379SOL    HW2 3253   7.305   0.229   8.445  0.9371  0.1229 -1.7793
65380SOL     OW 3254   4.530   6.875   5.423  0.8479  0.1235  0.0521
65380SOL    HW1 3255   4.546   6.789   5.384  0.4424 -0.5857  1.3993
65380SOL    HW2 3256   4.500   6.856   5.512 -3.5377  1.3884 -0.9068
65381SOL     OW 3257   5.607   3.928   2.763 -0.4077  0.5043  0.5474
65381SOL    HW1 3258   5.618   3.844   2.809  1.2073  0.0348 -0.5733
65381SOL    HW2 3259   5.514   3.933   2.743 -0.5626 -0.9619  0.7848
65382SOL     OW 3260   7.952   5.723  10.135  0.0673 -0.4688 -0.7027
65382SOL    HW1 3261   7.954   5.699  10.042 -2.4291  0.4820 -1.0710
65382SOL    HW2 3262   7.867   5.690  10.166 -0.5950  2.0504  0.3926
65383SOL     OW 3263   7.514  10.690   3.381 -0.6093 -0.3216  0.2552
65383SOL    HW1 3264   7.450  10.661   3.446  1.0528 -0.6971  1.8151
65383SOL    HW2 3265   7.577  10.619   3.376  2.4564  1.9434  2.6574
65384SOL     OW 3266   0.623   2.554   8.476  0.0314  0.3429  0.2079
65384SOL    HW1 3267   0.687   2.606   8.524  1.2140 -2.0110  1.3829
65384SOL    HW2 3268   0.671   2.521   8.400 -0.4458  0.3282 -0.0918
65385SOL     OW 3269  11.276   3.200   2.482  0.8323  0.4729  0.6726
65385SOL    HW1 3270  11.237   3.228   2.399 -0.6128 -0.9845  0.8054
65385SOL    HW2 3271  11.237   3.258   2.547  0.7065  0.5642  0.5188
65386SOL     OW 3272  11.616   3.257  12.270 -0.1483 -0.5519 -0.8609
65386SOL    HW1 3273  11.641   3.165  12.270  0.8719 -0.2916 -1.7202
65386SOL    HW2 3274  11.665   3.296  12.342  0.6117 -0.3834 -1.4629
65387SOL     OW 3275  10.384   1.970   3.591  0.0168 -0.1404 -0.1667
65387SOL    HW1 3276  10.335   2.050   3.576  0.6728  0.2974  0.0064
65387SOL    HW2 3277  10.402   1.970   3.685  0.5222 -0.1965 -0.2600
65388SOL     OW 3278   8.967   8.806   6.288  0.8945 -0.4724 -0.3688
65388SOL    HW1 3279   8.898   8.857   6.330  0.9915  0.4830 -1.2951
65388SOL    HW2 3280   8.944   8.715   6.304 -0.0457 -0.1535  0.1634
65389SOL     OW 3281   4.770   4.279   3.724  0.3472 -0.2906  0.2950
65389SOL    HW1 3282   4.817   4.200   3.698 -0.8262 -0.4361 -1.6419
65389SOL    HW2 3283   4.747   4.265   3.816  1.6444 -1.4036  0.4780
65390SOL     OW 3284   6.727   3.012   6.762 -0.2852  0.1716 -0.0667
65390SOL    HW1 3285   6.650   2.976   6.805 -0.3801  0.0436 -0.3490
65390SOL    HW2 3286   6.735   2.964   6.680  0.9690 -0.8816  0.6309
65391SOL     OW 3287   5.965  11.234   6.204  0.0492 -0.0567 -0.1615
65391SOL    HW1 3288   5.936  11.207   6.117 -0.2017 -1.8758  0.4472
65391SOL    HW2 3289   5.926  11.170   6.263  1.2526  0.3979  1.1770
65392SOL     OW 3290  10.166   5.894   3.295  0.6833 -0.0387  0.2762
65392SOL    HW1 3291  10.206   5.816   3.258 -0.4543 -1.1813  1.3670
65392SOL    HW2 3292  10.228   5.965   3.275  1.1924 -0.9877 -1.7045
65393SOL     OW 3293   7.161   2.332   0.198 -0.3202 -0.0217 -0.0963
65393SOL    HW1 3294   7.067   2.328   0.217 -0.1263  1.2753  1.4475
65393SOL    HW2 3295   7.186   2.421   0.224  0.9756  0.3472 -2.3557
65394SOL     OW 3296  11.987   3.051   7.342 -0.2994 -0.2784  0.0740
65394SOL    HW1 3297  12.005   3.125   7.401 -0.4775 -0.0102 -0.2089
65394SOL    HW2 3298  12.017   3.081   7.256 -1.3398 -0.1323 -0.2449
65395SOL     OW 3299   2.058   4.012   6.902  0.0403  0.5251 -0.0297
65395SOL    HW1 3300   1.986   3.952   6.920  0.1087  0.7740  1.1791
65395SOL    HW2 3301   2.094   3.982   6.819 -0.4447 -0.5868  0.1394
65396SOL     OW 3302   7.904   0.584   5.306 -0.0907  0.5129  0.5215
65396SOL    HW1 3303   7.817   0.556   5.334  0.6318 -0.4894  1.9224
65396SOL    HW2 3304   7.888   0.656   5.245 -1.8848  0.8218  1.2839
65397SOL     OW 3305  11.957   4.210   4.404  0.5692  0.3658  0.3752
65397SOL    HW1 3306  11.967   4.300   4.435  0.0633  0.5167  0.1140
65397SOL    HW2 3307  12.019   4.202   4.332 -1.6811  1.5702 -1.8356
65398SOL     OW 3308  11.328  11.454   4.356 -0.7346 -0.0125  0.1531
65398SOL    HW1 3309  11.340  11.502   4.438 -1.7713  0.2256  0.1912
65398SOL    HW2 3310  11.246  11.405   4.369 -0.1757 -1.0749 -0.2285
65399SOL     OW 3311   9.641   3.204  10.357 -0.4232 -0.4970 -0.0610
65399SOL    HW1 3312   9.604   3.233  10.274  0.2729  0.5517 -0.0372
65399SOL    HW2 3313   9.735   3.198  10.340 -0.0490  1.2905  1.0266
65400SOL     OW 3314   1.189   9.331  12.361 -0.1029  0.0730 -0.1050
65400SOL    HW1 3315   1.196   9.368  12.273 -1.1759 -0.6896 -0.5293
65400SOL    HW2 3316   1.129   9.390  12.406  0.9875  0.8569  0.3459
65401SOL     OW 3317   0.938   9.653  10.593  0.1955 -0.5052 -0.0921
65401SOL    HW1 3318   1.011   9.597  10.567  0.7961  0.4682 -0.5735
65401SOL    HW2 3319   0.972   9.742  10.585  0.1113 -0.0751  3.1478
65402SOL     OW 3320   9.807   5.053   3.942 -0.0934 -0.5338  0.1659
65402SOL    HW1 3321   9.764   4.979   3.985  1.1335 -0.9823  0.6834
65402SOL    HW2 3322   9.900   5.041   3.961  0.1320  1.2232  0.3926
65403SOL     OW 3323  10.827   5.586   0.383 -0.2025 -0.1326  0.5504
65403SOL    HW1 3324  10.825   5.581   0.478  0.4856 -0.0324  0.5701
65403SOL    HW2 3325  10.865   5.671   0.363 -1.6562  0.4584  0.1745
65404SOL     OW 3326  10.479   5.581   3.843 -0.1281  0.3877  0.2154
65404SOL    HW1 3327  10.538   5.524   3.794 -0.7503  0.7348 -0.9801
65404SOL    HW2 3328  10.391   5.550   3.822 -0.5021  2.0220 -0.8174
65405SOL     OW 3329  10.321  11.606   7.478  0.3159 -0.4242 -0.0254
65405SOL    HW1 3330  10.298  11.536   7.416  0.0915 -1.1706  0.8907
65405SOL    HW2 3331  10.372  11.563   7.546  0.4940  0.3804  0.3619
65406SOL     OW 3332   7.249   1.406   8.674 -0.0225  0.9192  0.0391
65406SOL    HW1 3333   7.220   1.495   8.692 -1.0934  0.7362 -0.6942
65406SOL    HW2 3334   7.170   1.353   8.681  0.7442 -0.1208  1.3101
65407SOL     OW 3335  10.862  11.210   5.692 -0.1054 -0.3649  0.4505
65407SOL    HW1 3336  10.767  11.215   5.701  0.0281 -0.4077  2.6565
65407SOL    HW2 3337  10.892  11.177   5.777  1.7594 -2.3685 -0.8673
65408SOL     OW 3338   8.159   7.828   6.843 -0.7315 -0.2653 -0.4948
65408SOL    HW1 3339   8.122   7.806   6.928 -0.3686  0.9581 -0.0046
65408SOL    HW2 3340   8.090   7.878   6.799 -0.9815 -1.0355 -0.9983
65409SOL     OW 3341  10.165   4.479   5.989  0.2679 -0.1552 -0.0987
65409SOL    HW1 3342  10.196   4.437   5.908  0.6482 -0.2430  0.0929
65409SOL    HW2 3343  10.070   4.466   5.987  0.0260  1.4447 -1.4416
65410SOL     OW 3344   4.089   3.682   3.954  0.2533  0.4647  0.5635
65410SOL    HW1 3345   4.130   3.635   4.027 -0.0325 -1.2154 -0.3052
65410SOL    HW2 3346   4.155   3.745   3.926  0.1316  1.6092  2.6513
65411SOL     OW 3347   4.843   2.003  10.607  0.1181  0.0735 -0.0938
65411SOL    HW1 3348   4.936   1.989  10.589  0.2999 -1.4119  1.7511
65411SOL    HW2 3349   4.812   2.054  10.532  2.6068  1.4238 -0.3249
65412SOL     OW 3350   8.420   8.245  10.917 -0.0241  0.1289 -0.5533
65412SOL    HW1 3351   8.343   8.301  10.908 -0.7294 -0.5681  0.8378
65412SOL    HW2 3352   8.491   8.305  10.939 -0.4931  0.6035 -0.3235
65413SOL     OW 3353  12.675   8.916   8.646  0.4790 -0.2576  0.2560
65413SOL    HW1 3354  12.656   9.010   8.643  0.5498 -0.2526 -1.7362
65413SOL    HW2 3355  12.598   8.878   8.689 -1.1867  0.4199 -1.9110
65414SOL     OW 3356  12.240   6.574   5.726 -0.0482 -0.7446 -0.2178
65414SOL    HW1 3357  12.248   6.613   5.640  1.2435  1.9191  0.9984
65414SOL    HW2 3358  12.329   6.574   5.761 -0.8036  0.3079  1.9117
65415SOL     OW 3359  12.471  11.252   8.522 -0.0692  0.4670  0.1289
65415SOL    HW1 3360  12.417  11.295   8.588  0.2290 -0.1414  0.7861
65415SOL    HW2 3361  12.456  11.302   8.442 -3.5886 -1.1331 -0.4004
65416SOL     OW 3362   5.321   5.403   3.062  0.3114  0.1723  0.0296
65416SOL    HW1 3363   5.361   5.449   2.987  1.9375 -0.2226  0.6160
65416SOL    HW2 3364   5.352   5.313   3.053 -0.2049 -0.0750  0.7074
65417SOL     OW 3365   9.566   8.430   2.881 -0.4274 -0.4230 -0.2012
65417SOL    HW1 3366   9.530   8.485   2.951 -1.5001 -0.1723 -0.9282
65417SOL    HW2 3367   9.509   8.353   2.879  0.4000 -1.0674  0.0652
65418SOL     OW 3368  11.537  12.744   3.833  0.0949 -0.4243 -0.3181
65418SOL    HW1 3369  11.443  12.732   3.816 -0.7182  0.7296  2.7538
65418SOL    HW2 3370  11.560  12.821   3.781 -1.0490  0.1825  0.0303
65419SOL     OW 3371   4.880  12.590   9.947 -0.3954  0.3765  0.2369
65419SOL    HW1 3372   4.956  12.648   9.949 -0.1988  0.1126  0.4315
65419SOL    HW2 3373   4.914  12.505   9.973 -0.6587  0.1425 -0.1856
65420SOL     OW 3374  12.016  10.713   9.134  0.0143  0.2398 -0.0504
65420SOL    HW1 3375  12.028  10.630   9.089 -0.3140 -0.5055  1.1902
65420SOL    HW2 3376  11.952  10.761   9.081  1.2425  0.2988 -1.5164
65421SOL     OW 3377   5.347  12.294   1.011  0.3004 -0.1460 -0.4803
65421SOL    HW1 3378   5.374  12.363   1.071  3.7879 -2.2502  0.6270
65421SOL    HW2 3379   5.346  12.337   0.925  2.8614  1.2278  0.0793
65422SOL     OW 3380  12.886   4.650   3.718  0.1267 -0.3032 -0.0662
65422SOL    HW1 3381  12.904   4.727   3.664  0.7501 -0.0862  0.4429
65422SOL    HW2 3382  12.854   4.685   3.801 -2.0878 -0.6630 -0.7033
65423SOL     OW 3383   9.130   5.625   0.225  0.1156  0.8169 -0.1370
65423SOL    HW1 3384   9.085   5.548   0.191 -0.5692  1.1427  0.0064
65423SOL    HW2 3385   9.099   5.697   0.171  1.7828  0.8171 -1.1625
65424SOL     OW 3386   0.061   6.770  11.193  0.3889  0.1521  0.1861
65424SOL    HW1 3387  -0.004   6.706  11.224  1.6303 -0.5757  1.3848
65424SOL    HW2 3388   0.139   6.718  11.175  1.3342  1.2989  0.8760
65425SOL     OW 3389   5.080  10.743   2.774 -0.6076  0.0229  0.4556
65425SOL    HW1 3390   5.007  10.796   2.742 -2.7075 -1.6571  2.1450
65425SOL    HW2 3391   5.097  10.776   2.862  1.1100  0.7435 -0.1054
65426SOL     OW 3392   7.719  10.085  10.840  0.1668  0.4347  0.5658
65426SOL    HW1 3393   7.737  10.175  10.811 -1.1398  0.6298  0.2794
65426SOL    HW2 3394   7.802  10.054  10.876  1.4078  0.8092 -1.7420
65427SOL     OW 3395   9.453   2.197   2.527  0.1218  0.2043  0.1378
65427SOL    HW1 3396   9.456   2.122   2.587  2.4750  0.7974  0.8597
65427SOL    HW2 3397   9.421   2.269   2.581  0.4761  0.3190  0.1994
65428SOL     OW 3398  12.054  11.226  11.067  0.2330  0.1723  0.4044
65428SOL    HW1 3399  11.962  11.248  11.052  0.4483 -0.3322 -2.1606
65428SOL    HW2 3400  12.059  11.131  11.056  1.4845  0.4815 -3.0426
65429SOL     OW 3401   4.722   9.966   6.241 -0.3949  0.0258 -0.2430
65429SOL    HW1 3402   4.778  10.043   6.239 -1.3956  0.7978  0.7935
65429SOL    HW2 3403   4.783   9.892   6.239  0.5673  0.7958 -1.7713
65430SOL     OW 3404  11.162   9.632   4.509  0.1979 -0.2355 -0.2314
65430SOL    HW1 3405  11.121   9.654   4.593  0.3159  1.2073 -0.5273
65430SOL    HW2 3406  11.251   9.666   4.517  0.3476 -0.4891 -0.7880
65431SOL     OW 3407   7.346  10.700   3.086 -0.2958  0.5805  0.6660
65431SOL    HW1 3408   7.260  10.659   3.089  0.0393 -0.1987  0.0196
65431SOL    HW2 3409   7.403  10.641   3.136 -0.0013  0.7493  0.5361
65432SOL     OW 3410   3.443   7.914   5.406  0.4783 -0.0741  0.1476
65432SOL    HW1 3411   3.406   7.835   5.447  0.1615 -0.7979 -1.4534
65432SOL    HW2 3412   3.517   7.882   5.354 -0.6294  0.3830 -1.8312
65433SOL     OW 3413   7.979   5.453   1.078 -0.3501  0.5199  0.1964
65433SOL    HW1 3414   7.966   5.359   1.088 -1.0256  0.5178 -0.6124
65433SOL    HW2 3415   7.907   5.492   1.127 -0.6677  0.5881 -0.3130
65434SOL     OW 3416   6.970   2.313   6.880  0.0969  0.0842  0.1010
65434SOL    HW1 3417   6.962   2.369   6.802  0.6793 -1.2353 -0.9534
65434SOL    HW2 3418   7.009   2.232   6.847 -0.8488 -1.0103  1.5562
65435SOL     OW 3419  12.050   1.239   0.134 -0.0413 -0.1348 -0.1274
65435SOL    HW1 3420  11.974   1.197   0.095  0.0847 -0.5155  0.0267
65435SOL    HW2 3421  12.076   1.180   0.205 -0.1601  0.4530  0.4116
65436SOL     OW 3422  11.864   7.482  11.213 -0.1619  0.3804  0.0776
65436SOL    HW1 3423  11.939   7.452  11.264  0.1877  1.2069  0.0591
65436SOL    HW2 3424  11.848   7.571  11.243 -1.0927  0.2403  0.0231
65437SOL     OW 3425   8.819   7.286   7.910 -0.2065 -0.1211  0.6357
65437SOL    HW1 3426   8.849   7.254   7.825 -0.6816  1.9038 -0.3366
65437SOL    HW2 3427   8.731   7.249   7.920 -0.3671  0.0749 -0.0181
65438SOL     OW 3428   6.429   6.846  11.067  0.5045  0.0076  0.0048
65438SOL    HW1 3429   6.413   6.799  10.985  2.1367 -2.9424  1.2287
65438SOL    HW2 3430   6.388   6.792  11.134 -2.0299  3.0400  1.1839
65439SOL     OW 3431  12.095   6.021   0.478  0.2331  0.2653 -0.6603
65439SOL    HW1 3432  12.183   5.995   0.451 -0.2495  0.4254 -2.5248
65439SOL    HW2 3433  12.067   6.084   0.412 -0.8481  1.1137  0.5604
65440SOL     OW 3434   2.029   0.348   4.939 -0.3614 -0.1382 -0.3730
65440SOL    HW1 3435   2.119   0.362   4.965 -0.0341  1.2743 -2.0599
65440SOL    HW2 3436   2.035   0.295   4.859 -1.1459 -1.5809  0.4734
65441SOL     OW 3437   9.440   0.818   6.716  0.1119  0.4788 -0.0612
65441SOL    HW1 3438   9.424   0.890   6.655  0.4829  0.4223 -0.2319
65441SOL    HW2 3439   9.354   0.782   6.735 -0.1521  1.4032  0.5674
65442SOL     OW 3440   5.163   6.538   4.925 -0.1174  0.9029  0.0689
65442SOL    HW1 3441   5.256   6.548   4.905 -0.2640  1.8636 -0.1804
65442SOL    HW2 3442   5.161   6.478   4.999  0.6609  0.3753 -0.3122
65443SOL     OW 3443   5.599  12.750  12.949  0.8213 -0.1728 -0.5058
65443SOL    HW1 3444   5.564  12.679  12.895 -0.7806  0.8944 -0.9437
65443SOL    HW2 3445   5.618  12.820  12.886  0.0988  0.6380  0.1568
65444SOL     OW 3446  10.730  10.266   1.483  0.2608 -0.0247  0.1968
65444SOL    HW1 3447  10.720  10.342   1.541 -1.8337  0.3078 -0.5222
65444SOL    HW2 3448  10.644  10.224   1.483  1.2102 -2.0450  0.0528
65445SOL     OW 3449   6.100   5.112   5.765  0.1870 -0.2478  0.5822
65445SOL    HW1 3450   6.071   5.106   5.674  2.8499  0.3521 -0.3949
65445SOL    HW2 3451   6.141   5.027   5.783  1.0976  0.2092  0.6833
65446SOL     OW 3452  11.908   3.132   2.560  0.2781 -0.6637 -0.0282
65446SOL    HW1 3453  11.904   3.225   2.538  1.6765 -0.8025 -0.9691
65446SOL    HW2 3454  11.822   3.097   2.534 -0.0395  0.2381 -0.2136
65447SOL     OW 3455   3.262   1.671  12.664 -0.2740 -0.0749  0.4108
65447SOL    HW1 3456   3.319   1.725  12.609 -2.4508  1.5536 -0.4008
65447SOL    HW2 3457   3.260   1.715  12.748 -0.9577  0.3407  0.1826
65448SOL     OW 3458   1.251   8.270   4.290 -0.4946 -0.4816 -0.3506
65448SOL    HW1 3459   1.171   8.218   4.290  0.1193 -1.4433 -0.8917
65448SOL    HW2 3460   1.223   8.356   4.258 -1.3052 -0.8091 -0.5511
65449SOL     OW 3461   7.909   4.612   6.587  0.6810  0.1031 -0.1998
65449SOL    HW1 3462   7.933   4.614   6.495 -1.0250  0.4027 -0.6804
65449SOL    HW2 3463   7.829   4.560   6.590  0.4137  0.5454  1.0305
65450SOL     OW 3464  10.502   6.581   5.467 -0.2678 -0.1081  0.3424
65450SOL    HW1 3465  10.570   6.542   5.522  0.5667  0.1326 -0.4916
65450SOL    HW2 3466  10.515   6.542   5.381  0.8562  2.2162 -0.6381
65451SOL     OW 3467   6.499   9.652   6.703  0.9058  0.1830 -0.3696
65451SOL    HW1 3468   6.589   9.663   6.731  0.6134  2.1498 -0.0881
65451SOL    HW2 3469   6.460   9.595   6.769  0.9413  2.5422  1.8239
65452SOL     OW 3470   8.379  11.566   4.163 -0.4430 -0.5937  0.3775
65452SOL    HW1 3471   8.340  11.565   4.076  1.1349  2.0034 -0.4870
65452SOL    HW2 3472   8.339  11.642   4.206  0.6908 -0.2614  0.8993
65453SOL     OW 3473   4.430  10.762  11.856 -0.4843  0.3854 -0.1398
65453SOL    HW1 3474   4.414  10.668  11.866  1.5091 -0.1875 -1.5669
65453SOL    HW2 3475   4.518  10.775  11.892 -1.1271  1.9361  0.9628
65454SOL     OW 3476   9.147  10.110   8.776 -0.3486 -0.3443  0.8735
65454SOL    HW1 3477   9.097  10.101   8.695 -0.4709 -0.6279  0.9758
65454SOL    HW2 3478   9.148  10.204   8.794  0.5774 -0.1732 -0.0100
65455SOL     OW 3479   8.529   5.956  10.787 -0.5881 -0.0264 -0.2803
65455SOL    HW1 3480   8.607   5.941  10.839 -0.6133  0.5670 -0.0565
65455SOL    HW2 3481   8.558   6.015  10.717 -0.3487 -1.4979 -1.4816
65456SOL     OW 3482   6.644   5.215   9.669  0.0192  0.2394  0.1228
65456SOL    HW1 3483   6.603   5.151   9.611 -2.0173  0.4479  1.2571
65456SOL    HW2 3484   6.632   5.299   9.624  0.3772  0.1427 -0.1557
65457SOL     OW 3485   8.232  11.453   0.226 -0.1511  0.0689 -0.3306
65457SOL    HW1 3486   8.254  11.360   0.231 -1.3796 -0.2137  0.2779
65457SOL    HW2 3487   8.144  11.455   0.187 -1.4377  0.7382  2.3243
65458SOL     OW 3488   1.476  12.715   7.659  0.3841  0.2134  0.5497
65458SOL    HW1 3489   1.489  12.772   7.735 -1.9572  0.6567  0.6797
65458SOL    HW2 3490   1.427  12.640   7.693 -0.6350  0.3813 -0.4926
65459SOL     OW 3491   9.616  11.889   6.595 -0.7182  0.3040  0.5246
65459SOL    HW1 3492   9.539  11.939   6.566 -0.5028 -0.4241 -1.4979
65459SOL    HW2 3493   9.634  11.829   6.522  0.6614 -0.8364  1.7380
65460SOL     OW 3494   9.790  10.120  12.791  0.0145 -0.1569 -0.1894
65460SOL    HW1 3495   9.709  10.117  12.841  0.1260  1.4022  0.1234
65460SOL    HW2 3496   9.796  10.210  12.760 -0.2141 -1.0947 -3.3259
65461SOL     OW 3497   0.193   0.049  12.701 -0.1442 -0.1948 -0.6036
65461SOL    HW1 3498   0.117   0.105  12.688  0.3848  0.4784 -0.8272
65461SOL    HW2 3499   0.265   0.094  12.657  0.4613 -0.6624 -0.1186
65462SOL     OW 3500   0.682   7.723  10.241  0.0893 -0.0438  0.5629
65462SOL    HW1 3501   0.684   7.675  10.324  1.5710  0.4194  0.8246
65462SOL    HW2 3502   0.755   7.688  10.191 -1.1915 -0.8032 -0.8737
65463SOL     OW 3503   0.905  12.893   6.619 -0.0162 -0.0465 -0.0472
65463SOL    HW1 3504   0.979  12.943   6.653  0.3624 -1.3307  1.0989
65463SOL    HW2 3505   0.831  12.953   6.623  1.0162  1.4439 -1.7307
65464SOL     OW 3506   5.421   0.628  12.492  0.1294  0.5020 -0.2171
65464SOL    HW1 3507   5.449   0.673  12.571 -2.4283  1.0279  0.4731
65464SOL    HW2 3508   5.390   0.698  12.434 -3.1057 -0.1488  0.5408
65465SOL     OW 3509   5.138   8.746   3.782  0.1103  0.1207 -0.1134
65465SOL    HW1 3510   5.080   8.671   3.765  1.0505 -0.6852  0.1422
65465SOL    HW2 3511   5.194   8.750   3.705  1.1916 -0.5122  0.6260
65466SOL     OW 3512   2.618   4.034   0.741  0.4304  0.5382 -0.6025
65466SOL    HW1 3513   2.551   3.967   0.724  1.9486 -1.2858  0.2548
65466SOL    HW2 3514   2.649   4.060   0.655 -1.5019  1.6209 -1.0390
65467SOL     OW 3515   4.535   1.609   1.886 -0.2895  0.4323  0.3653
65467SOL    HW1 3516   4.500   1.613   1.975 -0.2273  0.3430  0.3940
65467SOL    HW2 3517   4.458   1.618   1.830 -0.4313 -0.3048  0.4256
65468SOL     OW 3518   4.109   7.929   7.042 -0.9954  0.5376  0.0707
65468SOL    HW1 3519   4.074   7.845   7.072 -1.0997 -0.2229 -2.0192
65468SOL    HW2 3520   4.180   7.906   6.982 -1.0109  1.9449 -0.5359
65469SOL     OW 3521   7.861   4.169  12.165 -0.0599 -0.2126  0.5297
65469SOL    HW1 3522   7.938   4.213  12.202 -1.0228  1.5879  0.5228
65469SOL    HW2 3523   7.835   4.225  12.092 -1.1592 -1.0017  0.2991
65470SOL     OW 3524  10.179   6.738   5.972 -0.1469  0.2675 -0.5534
65470SOL    HW1 3525  10.267   6.774   5.964  0.6624 -1.7698 -1.5007
65470SOL    HW2 3526  10.180   6.659   5.917 -2.8462  0.6682 -1.3433
65471SOL     OW 3527   7.712   4.568   5.131 -0.1351  0.2207 -0.2254
65471SOL    HW1 3528   7.793   4.610   5.102 -0.8022  2.0588  0.4075
65471SOL    HW2 3529   7.651   4.580   5.058 -0.2086 -0.0040 -0.2000
65472SOL     OW 3530   4.150  12.766   8.207  0.1204  0.0569  0.3505
65472SOL    HW1 3531   4.237  12.771   8.248  0.5322  0.0893 -0.4988
65472SOL    HW2 3532   4.111  12.851   8.224  0.2761  0.0641  0.6889
65473SOL     OW 3533   4.281   4.507   1.220 -0.4426 -0.2145 -0.1244
65473SOL    HW1 3534   4.206   4.450   1.205 -0.9765  0.5049 -0.2220
65473SOL    HW2 3535   4.356   4.456   1.191 -0.8117 -1.2072  0.6119
65474SOL     OW 3536   9.245   6.047   4.699 -0.2083  0.3384  0.1085
65474SOL    HW1 3537   9.163   6.061   4.746  0.1939  1.3140  0.5433
65474SOL    HW2 3538   9.292   5.982   4.751 -0.9402 -0.6786 -0.4626
65475SOL     OW 3539   7.816   2.975  12.082  0.1900 -0.1269  0.5667
65475SOL    HW1 3540   7.728   3.010  12.073  0.1354 -0.3344  0.2751
65475SOL    HW2 3541   7.808   2.883  12.054  0.1477 -0.6241  2.1248
65476SOL     OW 3542  12.467   4.321   9.364  0.3638  0.3242 -0.3064
65476SOL    HW1 3543  12.381   4.296   9.399 -0.5435  2.5409 -0.7497
65476SOL    HW2 3544  12.528   4.304   9.436  0.2463 -4.3923 -1.0149
65477SOL     OW 3545  12.280  12.083   5.865  0.5776  0.6390  0.0634
65477SOL    HW1 3546  12.274  12.170   5.904 -1.1820  1.6015 -2.1350
65477SOL    HW2 3547  12.221  12.086   5.789  3.1087 -1.3191 -2.2147
65478SOL     OW 3548   4.333   9.100  11.766  0.1168 -0.2899 -0.0999
65478SOL    HW1 3549   4.339   9.113  11.671 -0.7313 -1.6751 -0.3802
65478SOL    HW2 3550   4.351   9.186  11.804 -0.0423  0.4084 -1.5400
65479SOL     OW 3551   3.159  12.530   2.733  0.1632 -0.6162  0.1987
65479SOL    HW1 3552   3.191  12.441   2.725  1.1323 -0.2412 -0.2715
65479SOL    HW2 3553   3.220  12.573   2.793 -0.5204 -0.3615  0.7367
65480SOL     OW 3554   1.697   5.761   0.214 -0.0094 -0.9960 -0.1101
65480SOL    HW1 3555   1.786   5.729   0.199  0.7247  1.1949 -0.9758
65480SOL    HW2 3556   1.655   5.758   0.128  0.0992  0.2460 -0.2378
65481SOL     OW 3557   0.175   8.193   9.204  0.1666  0.2675  0.3871
65481SOL    HW1 3558   0.230   8.142   9.264  2.0838  1.6402 -0.0871
65481SOL    HW2 3559   0.104   8.226   9.258 -1.0189 -2.6566  0.7402
65482SOL     OW 3560   0.341   8.492   3.914  1.0112 -0.0497 -0.3311
65482SOL    HW1 3561   0.384   8.470   3.997  2.9297 -0.0498 -1.2695
65482SOL    HW2 3562   0.332   8.587   3.915 -0.1446 -0.1532  0.4011
65483SOL     OW 3563   7.712   5.257   6.314 -0.2021  0.0390  0.2083
65483SOL    HW1 3564   7.802   5.284   6.292 -0.2560  0.8492  0.9386
65483SOL    HW2 3565   7.718   5.227   6.404 -0.8388  1.0374  0.6027
65484SOL     OW 3566   2.379   2.810  10.823  0.1896  0.1221 -0.0356
65484SOL    HW1 3567   2.383   2.898  10.861  1.7749  1.3737 -2.7948
65484SOL    HW2 3568   2.290   2.780  10.843  0.1325  1.6085  2.4017
65485SOL     OW 3569   5.406   4.435   9.573 -0.5113 -0.6214  0.1907
65485SOL    HW1 3570   5.439   4.455   9.485 -1.1806  0.5624  0.1901
65485SOL    HW2 3571   5.337   4.371   9.558 -0.4816 -0.5832 -0.1315
65486SOL     OW 3572   9.601   7.995  12.061  0.1465  0.2776 -0.3292
65486SOL    HW1 3573   9.675   8.028  12.010  1.6294 -1.9761  0.1897
65486SOL    HW2 3574   9.595   8.053  12.136  0.8955  0.9361 -0.7613
65487SOL     OW 3575   9.208   8.520   2.863 -0.3014 -0.7508 -1.0286
65487SOL    HW1 3576   9.213   8.580   2.938 -0.6489  0.0215 -1.6125
65487SOL    HW2 3577   9.265   8.560   2.797  0.3252 -1.6445 -1.0389
65488SOL     OW 3578  11.066   2.257   3.863  0.2007 -0.2244  0.2075
65488SOL    HW1 3579  11.007   2.217   3.800 -0.1866  0.2829  0.2395
65488SOL    HW2 3580  11.067   2.197   3.937 -1.4532  0.4663  0.8348
65489SOL     OW 3581   2.194   4.488   6.985 -0.2020 -0.5377 -0.0447
65489SOL    HW1 3582   2.186   4.403   7.028 -2.5524 -0.6489 -0.5617
65489SOL    HW2 3583   2.265   4.476   6.922  0.4528 -1.6684  0.8616
65490SOL     OW 3584   6.497  12.031  10.200 -0.1392  0.2875 -0.2299
65490SOL    HW1 3585   6.408  11.999  10.191 -0.9541  1.6679  2.1398
65490SOL    HW2 3586   6.550  11.952  10.214 -1.7429 -0.3797  3.0733
65491SOL     OW 3587   6.812   3.126   5.449 -0.2879  0.4321  0.5234
65491SOL    HW1 3588   6.804   3.085   5.363  1.4650 -0.0973  0.5711
65491SOL    HW2 3589   6.815   3.052   5.510 -1.0675  0.7896  1.0077
65492SOL     OW 3590  11.668   0.109   4.985 -0.2519 -0.4909  0.1706
65492SOL    HW1 3591  11.676   0.038   4.920  1.0897  0.6773 -1.0150
65492SOL    HW2 3592  11.575   0.132   4.983 -0.5843 -1.7402  0.0850
65493SOL     OW 3593   7.902  11.059   1.189  0.2214 -0.4370 -0.2112
65493SOL    HW1 3594   7.849  11.125   1.146 -0.7698 -1.0654 -0.0017
65493SOL    HW2 3595   7.983  11.056   1.139  0.7210  1.6451  0.3855
65494SOL     OW 3596   1.943  12.147   6.906  0.1408  0.4462  0.2792
65494SOL    HW1 3597   2.012  12.184   6.851  0.7218 -1.9773 -0.7502
65494SOL    HW2 3598   1.912  12.071   6.857 -1.0861 -0.3520  2.1931
65495SOL     OW 3599   3.051   9.566   9.907  1.1795 -0.0840  0.1849
65495SOL    HW1 3600   3.043   9.579   9.812  1.5717 -1.4440 -0.0542
65495SOL    HW2 3601   3.123   9.623   9.933  1.1516  0.2061 -0.3603
65496SOL     OW 3602   6.524   6.859   8.199  0.0128 -0.7859 -0.2578
65496SOL    HW1 3603   6.524   6.930   8.263  1.1906 -1.2942  0.3386
65496SOL    HW2 3604   6.533   6.780   8.251 -2.8227 -1.5671 -0.7791
65497SOL     OW 3605   4.911  11.542   6.665 -0.0371 -0.1930  0.2073
65497SOL    HW1 3606   4.883  11.549   6.756  0.3767  0.5604  0.2772
65497SOL    HW2 3607   4.829  11.533   6.616 -0.5308  2.6853  0.3406
65498SOL     OW 3608  10.070   5.309   3.974  0.0696 -0.2279 -0.6185
65498SOL    HW1 3609  10.063   5.326   3.880 -1.4898 -2.6746 -1.0566
65498SOL    HW2 3610  10.012   5.373   4.015  0.0081  0.2463 -1.4293
65499SOL     OW 3611   2.900   6.550   5.452 -0.2279 -0.2325 -0.5217
65499SOL    HW1 3612   2.956   6.516   5.382  0.6950 -0.6282  0.3882
65499SOL    HW2 3613   2.813   6.554   5.413  0.2843 -0.3670 -1.7199
65500SOL     OW 3614   4.811   9.613  10.607  0.3459 -0.3992 -0.2905
65500SOL    HW1 3615   4.811   9.587  10.699 -0.5837  0.3576 -0.0470
65500SOL    HW2 3616   4.899   9.647  10.591 -0.0020  1.2007  0.8765
65501SOL     OW 3617  10.184   8.512  10.875  0.6989  0.8958 -0.4673
65501SOL    HW1 3618  10.205   8.534  10.965 -0.8494 -0.6634  0.3329
65501SOL    HW2 3619  10.267   8.482  10.837  0.9552 -0.5734  1.1378
65502SOL     OW 3620   9.349  10.668   3.488  0.4097 -0.5249 -0.0612
65502SOL    HW1 3621   9.275  10.703   3.439 -0.3518  0.2795  1.5925
65502SOL    HW2 3622   9.328  10.686   3.580  3.0299  0.4839  0.4289
65503SOL     OW 3623   9.110  10.034   2.390  0.2770  0.6280 -0.0476
65503SOL    HW1 3624   9.056  10.071   2.461 -1.6664 -2.0160  0.0026
65503SOL    HW2 3625   9.066  10.062   2.310 -0.1990 -0.0675 -0.0451
65504SOL     OW 3626   2.837   2.466   8.180 -0.1563  0.1895 -0.2760
65504SOL    HW1 3627   2.753   2.502   8.152 -1.0344 -1.0222  0.7112
65504SOL    HW2 3628   2.886   2.541   8.214 -0.8817  0.8829 -0.7361
65505SOL     OW 3629   8.579  12.287   0.355  0.1743  0.3251 -0.5907
65505SOL    HW1 3630   8.601  12.223   0.423  0.4030  1.8537  0.8675
65505SOL    HW2 3631   8.624  12.257   0.277 -1.9401 -2.7690 -0.7524
65506SOL     OW 3632  10.790   4.234   9.817 -0.7173 -0.2828  0.1843
65506SOL    HW1 3633  10.732   4.268   9.885 -0.3895 -0.2294  0.4380
65506SOL    HW2 3634  10.813   4.146   9.847  0.8802  0.3970  1.0663
65507SOL     OW 3635   5.679  11.273   3.799 -0.1305  0.2367  1.0031
65507SOL    HW1 3636   5.671  11.179   3.781 -0.6242  0.3602  0.5192
65507SOL    HW2 3637   5.664  11.281   3.893 -2.0022  0.0171  0.7594
65508SOL     OW 3638   0.998   4.704   2.503  0.6462  0.5942  0.4182
65508SOL    HW1 3639   0.940   4.760   2.452  0.6744  0.2062 -0.0533
65508SOL    HW2 3640   0.941   4.658   2.564  0.3587 -0.2365 -0.4512
65509SOL     OW 3641   6.213   2.321   3.391  0.0578  0.0039  0.2239
65509SOL    HW1 3642   6.201   2.227   3.398  1.3932 -0.3075 -1.2471
65509SOL    HW2 3643   6.184   2.344   3.303 -0.1250  0.9407  0.5097
65510SOL     OW 3644  11.242  10.823   0.114  0.2230  0.5466  0.3389
65510SOL    HW1 3645  11.179  10.871   0.168 -1.7991 -0.6252 -0.8602
65510SOL    HW2 3646  11.218  10.844   0.024  0.9663 -0.6552 -0.1662
65511SOL     OW 3647   6.291   6.190   0.352 -0.1283  0.1364  0.4585
65511SOL    HW1 3648   6.217   6.220   0.404 -0.5559 -0.1005 -0.0053
65511SOL    HW2 3649   6.262   6.201   0.261  0.6431  0.6444  0.2609
65512SOL     OW 3650   1.083   4.938   7.012 -0.4912 -0.5415 -0.1900
65512SOL    HW1 3651   1.049   4.883   6.941  0.5859 -1.0682 -0.3095
65512SOL    HW2 3652   1.119   5.015   6.967 -1.8158  0.1995 -0.0365
65513SOL     OW 3653   8.648   4.443   3.081 -0.5128  0.3637 -0.4092
65513SOL    HW1 3654   8.601   4.362   3.064  0.3191 -0.2023 -0.0591
65513SOL    HW2 3655   8.613   4.475   3.164  0.0587 -0.3215  0.1082
65514SOL     OW 3656   5.575   4.678   0.327 -0.3183 -0.2173 -0.1610
65514SOL    HW1 3657   5.534   4.764   0.334 -1.3550 -0.7045 -0.1623
65514SOL    HW2 3658   5.625   4.682   0.245  0.3019  0.6455  0.2402
65515SOL     OW 3659   5.432   1.156   4.874 -0.2547  0.6607 -0.3436
65515SOL    HW1 3660   5.435   1.063   4.851 -2.0926  0.3985  0.3317
65515SOL    HW2 3661   5.455   1.158   4.967  0.4563  0.9799 -0.5175
65516SOL     OW 3662   1.064  11.756   0.474  0.3375 -0.4352  0.2157
65516SOL    HW1 3663   1.076  11.827   0.412 -1.2039 -0.8407 -0.5939
65516SOL    HW2 3664   1.106  11.787   0.555  1.0561  0.7118 -0.5766
65517SOL     OW 3665  11.355   8.989   2.406  0.5573  0.1047  0.5613
65517SOL    HW1 3666  11.358   8.900   2.441 -0.5414 -0.2726 -0.2540
65517SOL    HW2 3667  11.440   9.027   2.430  0.9449 -1.0709  1.1338
65518SOL     OW 3668   8.199   4.927   7.419  0.5237 -0.6049  0.1028
65518SOL    HW1 3669   8.274   4.890   7.373  0.2843 -1.9035  0.7087
65518SOL    HW2 3670   8.173   4.859   7.481 -0.6078  0.1759  0.5192
65519SOL     OW 3671   3.256  12.928   3.486 -0.1338  0.2376 -0.0901
65519SOL    HW1 3672   3.177  12.898   3.441  0.3522 -2.2628  0.5100
65519SOL    HW2 3673   3.284  12.851   3.538  2.7810  0.9449 -0.4339
65520SOL     OW 3674  11.646   6.787   9.062  0.3629 -0.4246  1.0999
65520SOL    HW1 3675  11.710   6.858   9.064 -0.2975  0.1579  2.3103
65520SOL    HW2 3676  11.589   6.804   9.137 -0.5477 -1.5463  0.6823
65521SOL     OW 3677   6.434   5.091  10.170  0.0372 -0.7034  0.2860
65521SOL    HW1 3678   6.451   5.089  10.076 -0.4006 -0.6299  0.2034
65521SOL    HW2 3679   6.459   5.003  10.200  1.5327 -0.2847  0.3511
65522SOL     OW 3680   1.819   1.121  11.764 -0.4770  0.0533  0.4117
65522SOL    HW1 3681   1.769   1.046  11.731 -0.7378  0.5727 -0.4080
65522SOL    HW2 3682   1.765   1.197  11.742  1.3434  0.7923 -1.9960
65523SOL     OW 3683   9.456  11.122   6.521 -0.0774 -0.3377  0.0992
65523SOL    HW1 3684   9.477  11.209   6.487 -0.6693 -1.1052 -2.4549
65523SOL    HW2 3685   9.504  11.061   6.465 -0.4437 -1.7084  1.1928
65524SOL     OW 3686   6.109  11.107   6.977  0.0535 -0.1170 -0.1642
65524SOL    HW1 3687   6.042  11.157   6.930  0.1960  0.4401  0.2109
65524SOL    HW2 3688   6.191  11.132   6.934  0.2664  0.9343  0.7990
65525SOL     OW 3689  12.683  12.201   1.351  0.4039  0.1587 -0.2829
65525SOL    HW1 3690  12.715  12.153   1.427 -0.8723 -0.8195 -0.3358
65525SOL    HW2 3691  12.588  12.200   1.360  0.2910  1.4099 -1.0670
65526SOL     OW 3692   0.914   7.804   0.445  0.5290 -0.2704 -0.0959
65526SOL    HW1 3693   0.867   7.820   0.364  0.2303  0.7645  0.2701
65526SOL    HW2 3694   0.952   7.889   0.468  1.1370 -0.6983  0.5111
65527SOL     OW 3695   9.572  11.395   3.270  0.4136  0.7127  0.0858
65527SOL    HW1 3696   9.519  11.363   3.343  0.9568  1.3279  0.7647
65527SOL    HW2 3697   9.607  11.479   3.301  0.3008  1.1945 -1.0497
65528SOL     OW 3698   7.781   5.061   9.103 -0.6510  0.5351 -0.1512
65528SOL    HW1 3699   7.775   5.137   9.045  1.1288  2.1489  1.5940
65528SOL    HW2 3700   7.772   5.098   9.191 -2.2833 -1.6742  0.6941
65529SOL     OW 3701   9.451  10.637  11.486  0.0861 -0.4215  0.3598
65529SOL    HW1 3702   9.435  10.542  11.487 -0.2793 -0.3795 -0.6745
65529SOL    HW2 3703   9.544  10.645  11.467  0.0721 -0.5698  0.2244
65530SOL     OW 3704   0.991  11.589   1.642  0.1868  0.0632 -0.1076
65530SOL    HW1 3705   0.970  11.574   1.734 -2.5269  2.4237 -0.2036
65530SOL    HW2 3706   1.067  11.647   1.643 -1.7601  2.8006  0.9005
65531SOL     OW 3707  10.816   5.557   1.297 -0.0656 -0.0390  0.4893
65531SOL    HW1 3708  10.787   5.486   1.355  0.3069 -0.2796  0.3823
65531SOL    HW2 3709  10.743   5.567   1.236  0.4427 -1.2893 -0.3692
65532SOL     OW 3710  11.537   1.993  11.624  0.3499  0.5719  0.3813
65532SOL    HW1 3711  11.535   1.924  11.558 -0.6533  1.3383 -0.4202
65532SOL    HW2 3712  11.487   1.956  11.698  1.0353 -0.0874  0.5231
65533SOL     OW 3713   8.328   0.284   7.189 -0.0236 -0.3487  0.0990
65533SOL    HW1 3714   8.374   0.354   7.236 -0.4411 -0.6622  1.0051
65533SOL    HW2 3715   8.286   0.328   7.115  0.2735  0.2428  0.2793
65534SOL     OW 3716   8.723  12.722   8.920  0.1539 -0.0484  0.5124
65534SOL    HW1 3717   8.797  12.671   8.953 -0.7383 -1.6127  0.1652
65534SOL    HW2 3718   8.708  12.689   8.832 -1.2141 -0.0275  0.7174
65535SOL     OW 3719  12.860   4.981   8.297 -0.3285  0.2096  0.6636
65535SOL    HW1 3720  12.811   4.915   8.248 -0.6652 -0.0225  1.3115
65535SOL    HW2 3721  12.864   5.056   8.238 -1.2524  0.1470  0.5056
65536SOL     OW 3722   2.822  12.768   3.863 -0.5736  0.3828  0.1615
65536SOL    HW1 3723   2.829  12.726   3.948 -0.1024  0.0397 -0.0447
65536SOL    HW2 3724   2.728  12.785   3.853 -0.5137  1.4399  1.2276
65537SOL     OW 3725  11.639   7.706   6.101  0.0700  0.1655 -0.1173
65537SOL    HW1 3726  11.649   7.646   6.175 -0.3531  1.2313  0.8162
65537SOL    HW2 3727  11.713   7.766   6.108 -0.9235  1.3575  0.4935
65538SOL     OW 3728   3.438   5.817   6.046  0.7764  0.3469 -0.0155
65538SOL    HW1 3729   3.514   5.776   6.088 -0.2298 -0.4670  1.0637
65538SOL    HW2 3730   3.378   5.836   6.118 -0.2543  0.5450 -0.9032
65539SOL     OW 3731   2.708   7.118  10.724 -0.4049  0.5078  0.5725
65539SOL    HW1 3732   2.773   7.089  10.660 -0.3279  1.3412  0.2580
65539SOL    HW2 3733   2.665   7.038  10.752 -0.5168  0.1326 -0.6131
65540SOL     OW 3734  11.454   2.689  11.574  0.1946  0.4629 -0.0176
65540SOL    HW1 3735  11.400   2.667  11.497  0.2183 -0.1864  0.1436
65540SOL    HW2 3736  11.421   2.773  11.603 -0.7463  0.0739  0.0749
65541SOL     OW 3737   1.231   9.139  10.909  0.3334 -0.0073  0.4158
65541SOL    HW1 3738   1.151   9.192  10.914  0.5705  0.3440  0.5243
65541SOL    HW2 3739   1.210   9.070  10.846  0.2244  0.5830 -0.2078
65542SOL     OW 3740   0.535   5.483   2.716 -0.2333 -0.1500  0.1357
65542SOL    HW1 3741   0.494   5.499   2.630  0.3162  0.1853 -0.0685
65542SOL    HW2 3742   0.533   5.568   2.759  0.4570 -0.0780  0.0315
65543SOL     OW 3743   5.187   9.690   6.933  0.0930  0.1361 -0.0072
65543SOL    HW1 3744   5.199   9.720   7.024 -0.8920  1.4139 -0.2654
65543SOL    HW2 3745   5.276   9.677   6.900  0.4774  0.2514  0.9516
65544SOL     OW 3746   0.247  11.474   5.741  0.4558 -0.1533  0.4041
65544SOL    HW1 3747   0.175  11.422   5.774  1.0100 -0.7526  0.6912
65544SOL    HW2 3748   0.293  11.417   5.680 -0.5180  0.9151 -1.4252
65545SOL     OW 3749   8.174  12.327  10.690  0.3743 -0.3109 -0.3021
65545SOL    HW1 3750   8.194  12.241  10.726 -1.0794 -0.3137  0.5828
65545SOL    HW2 3751   8.239  12.385  10.730  1.4053 -0.9880 -0.9598
65546SOL     OW 3752  10.072  11.747  11.275  0.4855 -0.2691  0.2914
65546SOL    HW1 3753  10.160  11.709  11.271  1.2921  1.4597  0.8340
65546SOL    HW2 3754  10.064  11.799  11.195  0.0236 -0.2616  0.3396
65547SOL     OW 3755   9.031   6.844   4.760  0.5652  0.0064  1.0239
65547SOL    HW1 3756   9.031   6.819   4.668 -0.2583 -1.3276  1.3544
65547SOL    HW2 3757   8.938   6.852   4.783  0.7745  0.9711  1.5858
65548SOL     OW 3758   3.653  12.656  10.985  0.1871 -0.0965 -0.3683
65548SOL    HW1 3759   3.586  12.656  10.916 -0.9014  0.3124  0.6527
65548SOL    HW2 3760   3.604  12.675  11.065  1.1820 -2.0178  0.7654
65549SOL     OW 3761   8.996   3.982   4.073  0.2725 -0.7764  0.1624
65549SOL    HW1 3762   8.936   3.968   4.145 -0.7261 -1.1778 -0.7259
65549SOL    HW2 3763   9.052   4.054   4.102 -2.0231  1.1090  0.1773
65550SOL     OW 3764   2.208   6.249  10.694 -0.2121  0.2223  0.4031
65550SOL    HW1 3765   2.146   6.306  10.741 -0.4019  0.6685 -0.3730
65550SOL    HW2 3766   2.206   6.281  10.604 -0.2774 -0.9808 -0.0401
65551SOL     OW 3767   8.908   7.969  10.014 -0.3877 -0.3415 -0.0901
65551SOL    HW1 3768   8.843   8.025   9.971  0.1086  0.9629  0.8074
65551SOL    HW2 3769   8.867   7.942  10.096  0.1752  0.4677  0.4697
65552SOL     OW 3770   4.965   8.345   4.015 -0.5581 -0.0391  0.2341
65552SOL    HW1 3771   4.885   8.350   3.962 -0.9266  0.9031  0.8494
65552SOL    HW2 3772   5.000   8.258   3.997  0.3283  0.8576 -2.9675
65553SOL     OW 3773  11.548  12.400  12.014 -0.7135  0.1054  0.6301
65553SOL    HW1 3774  11.540  12.358  12.100 -1.7614 -0.3898  0.3069
65553SOL    HW2 3775  11.624  12.458  12.023  1.4725 -2.6083  0.7428
65554SOL     OW 3776   6.528   6.194   2.216  0.0495  0.3012  0.1037
65554SOL    HW1 3777   6.558   6.274   2.173  0.0603  1.2921  1.8721
65554SOL    HW2 3778   6.440   6.215   2.248  0.7543  0.2781  2.1826
65555SOL     OW 3779   5.238   6.329   0.225  0.2416  0.3762  0.0394
65555SOL    HW1 3780   5.312   6.337   0.285  0.8238  1.1904 -0.7445
65555SOL    HW2 3781   5.161   6.345   0.279  0.7582  1.1804  0.5692
65556SOL     OW 3782   6.772   4.204  10.771  0.2473  0.2126 -0.4227
65556SOL    HW1 3783   6.728   4.216  10.687  0.1377 -1.8410 -0.7233
65556SOL    HW2 3784   6.782   4.109  10.779  2.6350  0.4812  0.6721
65557SOL     OW 3785   5.738  10.698   9.466  0.6929 -0.0531  0.1872
65557SOL    HW1 3786   5.694  10.615   9.486  1.5300 -0.2682  1.2366
65557SOL    HW2 3787   5.818  10.671   9.419  0.5105  0.2341 -0.2980
65558SOL     OW 3788   1.702   2.909  11.378  0.2569 -0.0207  0.2222
65558SOL    HW1 3789   1.646   2.877  11.448  0.4680 -1.4588 -0.2182
65558SOL    HW2 3790   1.652   2.892  11.298 -0.2376  2.1507  0.0285
65559SOL     OW 3791   2.982   3.840   9.290 -0.6304 -0.4799 -0.3520
65559SOL    HW1 3792   2.980   3.806   9.380  1.6608 -1.3204 -0.5384
65559SOL    HW2 3793   3.018   3.929   9.300  1.3792 -1.2143 -0.5109
65560SOL     OW 3794   8.049   5.052  10.172 -0.1255 -0.0450  0.0014
65560SOL    HW1 3795   8.115   4.983  10.166  0.0050  0.1567 -1.1927
65560SOL    HW2 3796   7.965   5.006  10.173  0.0040 -0.2743  0.8836
65561SOL     OW 3797   7.301   7.039  11.632  0.1153  0.2825 -0.2070
65561SOL    HW1 3798   7.384   7.086  11.624  0.3313 -0.1664 -0.6793
65561SOL    HW2 3799   7.284   7.005  11.544 -0.2337 -0.1883  0.0343
65562SOL     OW 3800   4.273   9.458   1.092  0.0219 -0.3046  0.0371
65562SOL    HW1 3801   4.239   9.456   1.181  0.3336  0.9436  0.2061
65562SOL    HW2 3802   4.230   9.385   1.048 -0.4703 -0.6640  1.0897
65563SOL     OW 3803  10.058   5.830   5.054 -0.1771 -0.8943 -0.1895
65563SOL    HW1 3804  10.010   5.875   5.124 -0.6302 -1.8590  0.1305
65563SOL    HW2 3805  10.106   5.760   5.099  1.0217 -0.3536 -0.5967
65564SOL     OW 3806   8.760   0.405   0.009 -0.9485 -0.7760  0.0777
65564SOL    HW1 3807   8.735   0.485   0.055  0.1107 -0.8695  0.8499
65564SOL    HW2 3808   8.838   0.430  -0.041 -0.7924 -1.2480  0.0840
65565SOL     OW 3809  11.448   9.704   9.681 -0.5291  0.4280 -0.1745
65565SOL    HW1 3810  11.412   9.731   9.766 -0.9770  0.8820 -0.4994
65565SOL    HW2 3811  11.421   9.613   9.671 -0.0147  0.1990  0.4041
65566SOL     OW 3812   1.927   4.480   9.028  0.0511  0.3518 -0.0811
65566SOL    HW1 3813   2.004   4.438   9.067  1.2824  1.4092 -1.2546
65566SOL    HW2 3814   1.863   4.485   9.099  1.3988  0.2665  1.1889
65567SOL     OW 3815   9.686  11.032   6.775  0.0826 -0.1283  0.5612
65567SOL    HW1 3816   9.649  10.960   6.724 -2.7537  1.9716 -0.6608
65567SOL    HW2 3817   9.781  11.023   6.765 -0.2416 -1.3157 -3.1125
65568SOL     OW 3818   5.414   5.604  12.740  0.1534  0.0181 -0.0419
65568SOL    HW1 3819   5.347   5.665  12.769 -0.1534 -0.1289 -0.4236
65568SOL    HW2 3820   5.464   5.653  12.674 -1.0249 -0.6084 -1.4426
65569SOL     OW 3821  10.860  11.280   8.176  0.3010 -0.2524  0.2119
65569SOL    HW1 3822  10.829  11.258   8.088 -0.0706  0.7595  0.0806
65569SOL    HW2 3823  10.844  11.201   8.227 -1.9958  0.0049  0.0093
65570SOL     OW 3824   5.498  12.123   7.072 -0.5042 -0.2079  0.1620
65570SOL    HW1 3825   5.543  12.205   7.097 -0.0625 -0.5069  0.3717
65570SOL    HW2 3826   5.554  12.085   7.005 -1.6820  0.5794 -1.3146
65571SOL     OW 3827   2.783   1.039   8.246 -0.3877  0.5093  0.7544
65571SOL    HW1 3828   2.789   1.086   8.163  0.6135  0.6096  0.8683
65571SOL    HW2 3829   2.716   0.972   8.231  1.6534 -1.2724 -1.0780
65572SOL     OW 3830   9.037   9.975   6.108 -0.0686  0.1424 -0.2094
65572SOL    HW1 3831   8.977   9.930   6.168  2.9167 -1.3869  1.9259
65572SOL    HW2 3832   9.047   9.915   6.035 -1.8525  0.8970 -1.1292
65573SOL     OW 3833  11.047  12.381   8.712  0.0243  0.0854  0.3197
65573SOL    HW1 3834  10.964  12.396   8.667  0.3015  2.0384  0.3757
65573SOL    HW2 3835  11.036  12.422   8.797  0.4174 -1.2844  1.0520
65574SOL     OW 3836  10.375  10.886   9.321 -0.2365 -0.2328 -0.5996
65574SOL    HW1 3837  10.288  10.918   9.298 -1.4535 -1.7126  1.4869
65574SOL    HW2 3838  10.428  10.898   9.242 -2.1193  1.3857 -1.6949
65575SOL     OW 3839  10.855   7.503   6.277  0.3910  0.5573 -0.2271
65575SOL    HW1 3840  10.768   7.467   6.293  0.0464  1.6560  0.4852
65575SOL    HW2 3841  10.880   7.542   6.360  0.6582  2.1091 -1.0075
65576SOL     OW 3842   4.895   2.263   5.859 -0.4629  0.3378  0.3057
65576SOL    HW1 3843   4.916   2.218   5.778  1.0332  1.7822 -0.1606
65576SOL    HW2 3844   4.977   2.266   5.908 -0.6922  1.8189  0.6710
65577SOL     OW 3845   8.161   5.803  10.474 -0.0639  0.8169 -0.2826
65577SOL    HW1 3846   8.245   5.772  10.508 -0.4199  0.0686 -0.0572
65577SOL    HW2 3847   8.116   5.838  10.551 -1.4736 -2.1967  0.4610
65578SOL     OW 3848   7.479   5.538   4.605  0.5025 -0.4365  0.0067
65578SOL    HW1 3849   7.494   5.550   4.698  2.9187 -1.3812 -0.1972
65578SOL    HW2 3850   7.388   5.508   4.599  0.0352  0.4565  1.9444
65579SOL     OW 3851  11.036   3.123  11.094 -0.3102  0.1342  0.5716
65579SOL    HW1 3852  10.978   3.195  11.116 -1.1135 -0.6991  1.2593
65579SOL    HW2 3853  10.994   3.080  11.019  0.9215  1.2203 -0.8095
65580SOL     OW 3854   6.944   9.728   8.714 -0.0357  0.7513 -0.0408
65580SOL    HW1 3855   7.010   9.776   8.664 -0.8880  1.0712 -0.8870
65580SOL    HW2 3856   6.994   9.663   8.764  1.1105  2.2762  0.8710
65581SOL     OW 3857  12.163  12.922   1.732  0.4412 -0.6653 -0.1924
65581SOL    HW1 3858  12.197  12.929   1.822 -0.6673 -3.6476  0.5890
65581SOL    HW2 3859  12.213  12.850   1.693  0.0426 -0.2257 -1.5660
65582SOL     OW 3860   6.480   4.806   3.247  0.6328  0.4883  0.1936
65582SOL    HW1 3861   6.540   4.803   3.321  1.3892  1.8844 -0.3195
65582SOL    HW2 3862   6.535   4.796   3.170 -0.0611 -0.2881 -0.2126
65583SOL     OW 3863   7.783   6.854   4.605  0.2572 -0.2459 -0.7386
65583SOL    HW1 3864   7.798   6.804   4.525  0.0480  1.3494 -1.8341
65583SOL    HW2 3865   7.870   6.864   4.644  0.5387 -0.0424 -1.4006
65584SOL     OW 3866   2.011  10.364   2.454 -0.0638 -0.1273 -0.2240
65584SOL    HW1 3867   1.957  10.372   2.375 -0.7097 -0.0162  0.2250
65584SOL    HW2 3868   2.089  10.416   2.435 -0.5676  0.5407 -0.4847
65585SOL     OW 3869   1.249   3.509  11.637 -0.0049 -0.2323  0.1691
65585SOL    HW1 3870   1.293   3.593  11.623  0.4348 -0.6684 -1.2041
65585SOL    HW2 3871   1.256   3.493  11.731  0.9933  0.6727  0.2614
65586SOL     OW 3872   2.918   4.935  10.593 -0.1387  0.5018 -0.0484
65586SOL    HW1 3873   2.936   4.959  10.502 -1.4342  1.1138 -0.1588
65586SOL    HW2 3874   2.908   5.018  10.639 -1.5685  0.1969  0.2118
65587SOL     OW 3875   0.427   8.133  10.015 -0.8331 -0.3662 -0.1358
65587SOL    HW1 3876   0.449   8.141  10.108  0.9536 -0.8720 -0.4768
65587SOL    HW2 3877   0.491   8.188   9.970 -3.2393  1.9683 -0.9688
65588SOL     OW 3878   8.916   9.022  11.154 -0.3558 -0.0902  0.5559
65588SOL    HW1 3879   8.943   9.038  11.064  0.4263  0.7505  0.9202
65588SOL    HW2 3880   8.907   8.927  11.161 -1.2700 -0.1124 -0.6267
65589SOL     OW 3881   1.623  10.605   1.916  0.1383  0.4786 -0.7583
65589SOL    HW1 3882   1.550  10.660   1.943 -1.6432 -1.6036 -1.0592
65589SOL    HW2 3883   1.617  10.601   1.820  1.7589  1.6726 -0.9563
65590SOL     OW 3884  12.096  10.527   0.469  0.1493 -0.2848 -0.3722
65590SOL    HW1 3885  12.176  10.569   0.438  0.8790 -0.1023  1.6028
65590SOL    HW2 3886  12.026  10.565   0.416  0.6196  4.2513  1.8565
65591SOL     OW 3887   6.829   0.737   6.857  0.0427 -0.2078 -0.1663
65591SOL    HW1 3888   6.869   0.710   6.775 -0.6279 -3.9041  0.5666
65591SOL    HW2 3889   6.903   0.763   6.912  0.5368  1.7532 -1.6449
65592SOL     OW 3890  11.826   3.153   8.120 -0.4756  0.4688  0.0538
65592SOL    HW1 3891  11.733   3.170   8.134 -0.4787  0.9644 -0.5261
65592SOL    HW2 3892  11.842   3.178   8.029  0.3696  1.0345  0.3422
65593SOL     OW 3893   0.030   0.369  11.117  0.6324 -0.0844  0.3974
65593SOL    HW1 3894   0.059   0.282  11.089 -1.3495 -0.7045  0.1004
65593SOL    HW2 3895   0.008   0.358  11.209  0.4996  0.1172  0.3901
65594SOL     OW 3896   1.539   0.515   9.598  0.6053 -0.2635 -0.3869
65594SOL    HW1 3897   1.617   0.474   9.562  0.1420 -2.0251  0.4891
65594SOL    HW2 3898   1.486   0.442   9.631 -1.7570  0.7917 -1.5754
65595SOL     OW 3899   4.735   5.723   1.610  0.3326  0.4386 -0.5092
65595SOL    HW1 3900   4.830   5.720   1.619  0.2841  1.8147  1.0300
65595SOL    HW2 3901   4.702   5.691   1.694 -0.5769 -0.2452 -1.1156
65596SOL     OW 3902   0.024   2.460   8.220  0.4309  0.6943  0.1069
65596SOL    HW1 3903   0.090   2.443   8.287 -0.5737 -0.8825  0.7397
65596SOL    HW2 3904  -0.010   2.547   8.241 -0.8047 -0.2898  2.5168
65597SOL     OW 3905  10.465   4.509  11.593 -0.1385 -0.4246 -0.2408
65597SOL    HW1 3906  10.405   4.436  11.611  0.7651 -0.9624  0.7186
65597SOL    HW2 3907  10.539   4.494  11.653  0.7704  0.4280 -1.1208
65598SOL     OW 3908   7.190   8.513   9.831  0.4466 -0.5352  0.0420
65598SOL    HW1 3909   7.174   8.431   9.785  0.3804 -0.5341  0.0632
65598SOL    HW2 3910   7.103   8.549   9.847  0.3739 -1.3890  1.7216
65599SOL     OW 3911   9.824   9.743   4.323 -0.1472  0.3428  0.9174
65599SOL    HW1 3912   9.900   9.699   4.361 -0.7670 -0.6156  1.0905
65599SOL    HW2 3913   9.779   9.674   4.274 -0.0127  1.2622 -0.5970
65600SOL     OW 3914  10.918   6.891   4.352 -0.5757 -0.0911  0.5032
65600SOL    HW1 3915  10.868   6.810   4.357  1.3101 -1.6207 -2.3871
65600SOL    HW2 3916  10.869   6.946   4.290  0.7462 -1.2794 -1.7213
65601SOL     OW 3917   0.610   8.259  11.292 -0.3094  0.4698  0.1773
65601SOL    HW1 3918   0.625   8.187  11.353 -2.8456  0.9405  1.4854
65601SOL    HW2 3919   0.526   8.238  11.250  0.0257  1.5541 -1.1046
65602SOL     OW 3920  12.204   3.341  11.880 -0.5726  0.2038  0.2109
65602SOL    HW1 3921  12.132   3.351  11.942 -0.0222 -1.0275  1.0892
65602SOL    HW2 3922  12.161   3.340  11.794 -1.5854 -0.2754  0.7016
65603SOL     OW 3923   0.824  11.149   1.229  0.2339  0.6809  0.3663
65603SOL    HW1 3924   0.747  11.106   1.193  1.5397 -0.9087 -0.6535
65603SOL    HW2 3925   0.827  11.234   1.186  0.1960 -0.0849 -1.2001
65604SOL     OW 3926   2.385   1.125   6.077 -0.3574 -0.2841  0.2083
65604SOL    HW1 3927   2.310   1.180   6.055  0.0453 -0.0649 -0.6681
65604SOL    HW2 3928   2.461   1.179   6.056  0.0420 -0.9678 -0.1461
65605SOL     OW 3929   8.982   8.840   5.387  0.4011  0.0797 -0.2796
65605SOL    HW1 3930   9.052   8.892   5.427 -0.1987  0.7778 -0.1184
65605SOL    HW2 3931   8.948   8.894   5.316  0.2602 -0.4077 -0.5934
65606SOL     OW 3932   5.650   6.021   4.903  0.2561  0.3967  0.3709
65606SOL    HW1 3933   5.698   6.074   4.966  2.3390 -0.0548 -0.7659
65606SOL    HW2 3934   5.713   6.002   4.834 -1.7106  0.1951 -1.4804
65607SOL     OW 3935  11.917   9.118   1.945 -0.4184  0.1764  0.1294
65607SOL    HW1 3936  12.010   9.136   1.953  0.1955 -2.0898 -1.2989
65607SOL    HW2 3937  11.904   9.092   1.854 -2.1009 -1.3799  0.7468
65608SOL     OW 3938   9.558   4.995   5.586 -0.0016 -0.4426  0.4852
65608SOL    HW1 3939   9.469   4.971   5.558 -0.2105  0.1372  0.6597
65608SOL    HW2 3940   9.610   4.988   5.506 -0.3084 -0.2586  0.2685
65609SOL     OW 3941   5.106  11.216   7.259  0.0252  0.6362 -0.0856
65609SOL    HW1 3942   5.162  11.287   7.228  1.9860 -1.0189 -0.4858
65609SOL    HW2 3943   5.035  11.213   7.195  1.0643  0.8589 -1.2831
65610SOL     OW 3944   2.003   8.631  10.027 -0.3080  0.0898 -0.4146
65610SOL    HW1 3945   1.921   8.582  10.017 -0.0589 -0.4248  0.0146
65610SOL    HW2 3946   2.003   8.661  10.118  0.3187 -0.5627 -0.1797
65611SOL     OW 3947   8.258   3.812  12.103  0.3563  0.2127 -0.4647
65611SOL    HW1 3948   8.179   3.780  12.061  0.4732 -1.0319  0.2152
65611SOL    HW2 3949   8.321   3.822  12.032 -0.2924  0.8816 -0.9578
65612SOL     OW 3950   7.727   1.634   6.369 -0.5046 -0.2462  0.3108
65612SOL    HW1 3951   7.733   1.643   6.464 -0.1171  1.6107  0.1376
65612SOL    HW2 3952   7.802   1.681   6.335 -1.7230  0.8514 -0.9796
65613SOL     OW 3953   0.338   6.357   6.753  0.0804 -0.1621 -0.1736
65613SOL    HW1 3954   0.291   6.301   6.815  0.7550  0.7736  1.2174
65613SOL    HW2 3955   0.350   6.301   6.676  0.5115 -1.8789  1.0671
65614SOL     OW 3956   2.850   4.442   5.609  0.4527 -0.0295 -0.0099
65614SOL    HW1 3957   2.876   4.350   5.604 -1.3419 -0.4972 -2.5182
65614SOL    HW2 3958   2.898   4.485   5.538  0.1285  0.6542  0.1757
65615SOL     OW 3959   8.019   1.853   8.087  0.0927  0.0449  0.2821
65615SOL    HW1 3960   7.979   1.833   8.172 -0.8935  0.4500 -0.0807
65615SOL    HW2 3961   8.032   1.767   8.046 -2.4041 -0.0372 -0.4854
65616SOL     OW 3962  10.024   3.150  10.967 -0.2118  0.3191  0.5777
65616SOL    HW1 3963   9.929   3.138  10.963 -0.4746  1.8029  1.6109
65616SOL    HW2 3964  10.038   3.196  11.050  1.5254 -0.8451  0.9683
65617SOL     OW 3965   0.546   7.238   4.887  0.1841 -0.2470  0.2292
65617SOL    HW1 3966   0.634   7.239   4.850  0.5776  0.0863  1.1399
65617SOL    HW2 3967   0.493   7.193   4.821  1.4815 -2.5237  0.6473
65618SOL     OW 3968   7.559   4.400   0.389  0.6049 -0.1808 -0.4767
65618SOL    HW1 3969   7.613   4.370   0.317 -1.5486 -1.8379 -1.5241
65618SOL    HW2 3970   7.491   4.454   0.347 -0.0373 -0.2528  0.4247
65619SOL     OW 3971   0.624   1.546   4.777 -0.2171  0.2691 -0.0470
65619SOL    HW1 3972   0.601   1.458   4.807 -1.5782 -0.0457 -1.7908
65619SOL    HW2 3973   0.714   1.539   4.748 -0.1009 -0.3752  0.4526
65620SOL     OW 3974   6.084  11.404   3.154 -0.0545 -0.3591 -0.1539
65620SOL    HW1 3975   6.166  11.359   3.137 -0.9148 -2.5007  1.0614
65620SOL    HW2 3976   6.100  11.457   3.232  0.8222  1.2214 -1.3311
65621SOL     OW 3977   0.291   7.102   2.647 -0.2593 -0.3185  0.1164
65621SOL    HW1 3978   0.309   7.195   2.660 -2.1019 -0.0348  0.8630
65621SOL    HW2 3979   0.332   7.060   2.723  0.1431 -0.0651  0.0431
65622SOL     OW 3980   1.992  12.750   1.765  0.6394  0.1815  0.2767
65622SOL    HW1 3981   1.932  12.677   1.752  0.7399  0.3610 -1.3852
65622SOL    HW2 3982   2.079  12.714   1.744  0.8849  0.4011  0.8894
65623SOL     OW 3983   8.949   8.549   2.778 -0.2221  0.1404 -0.1952
65623SOL    HW1 3984   8.897   8.598   2.841 -0.0871  0.6134 -0.4493
65623SOL    HW2 3985   9.030   8.527   2.826 -0.5344 -0.3657  0.1121
65624SOL     OW 3986  10.029   8.283  10.987 -0.0837 -1.4197  0.0963
65624SOL    HW1 3987  10.067   8.356  10.938  0.4887  0.1978  2.7499
65624SOL    HW2 3988   9.937   8.305  10.997 -0.2967 -1.9661 -0.5865
65625SOL     OW 3989   9.716   5.518  10.326  0.1233 -0.3359  0.7365
65625SOL    HW1 3990   9.632   5.523  10.372 -0.1508 -0.9179  0.3157
65625SOL    HW2 3991   9.745   5.428  10.339  0.1916 -0.4189  0.0363
65626SOL     OW 3992  12.718   2.314   8.208  0.5078 -0.4858  0.1234
65626SOL    HW1 3993  12.637   2.298   8.256  0.2562 -1.3647 -0.5751
65626SOL    HW2 3994  12.785   2.264   8.255  0.7164  0.4706  0.8691
65627SOL     OW 3995   0.185   1.722   3.112 -0.1687 -0.3111 -0.1325
65627SOL    HW1 3996   0.114   1.711   3.175 -1.9350  0.9180 -1.7805
65627SOL    HW2 3997   0.178   1.646   3.054  1.1218 -1.1720  0.7982
65628SOL     OW 3998   8.651   3.337   7.674 -0.2601 -0.0060 -0.2114
65628SOL    HW1 3999   8.611   3.299   7.751 -1.3817  0.3974 -0.5805
65628SOL    HW2 4000   8.584   3.394   7.636 -0.3564 -1.4624 -2.4381
65629SOL     OW 4001   2.072   3.384   7.350  0.0469 -0.1615  0.0543
65629SOL    HW1 4002   2.155   3.417   7.314 -0.3334  1.2364  0.4121
65629SOL    HW2 4003   2.088   3.378   7.444 -0.3877  0.5554  0.1807
65630SOL     OW 4004   9.218   7.642   4.366  0.4295 -0.2138 -0.1758
65630SOL    HW1 4005   9.217   7.571   4.429  0.4432  0.1546  0.2428
65630SOL    HW2 4006   9.174   7.715   4.410 -1.7881 -0.6683 -1.4586
65631SOL     OW 4007  11.620   5.468  10.752  0.3441  0.3579  0.0572
65631SOL    HW1 4008  11.705   5.501  10.722  1.2750 -2.1233 -0.3008
65631SOL    HW2 4009  11.584   5.423  10.676 -0.9790  0.7512  0.4254
65632SOL     OW 4010   5.947  11.801   5.229  0.2423 -0.4651  0.0239
65632SOL    HW1 4011   6.026  11.824   5.180  0.5428 -1.6876 -0.1096
65632SOL    HW2 4012   5.875  11.844   5.182  0.1956 -3.3904 -3.0083
65633SOL     OW 4013  12.624   4.271  10.933  0.1806  0.0288 -0.0053
65633SOL    HW1 4014  12.583   4.254  10.848 -0.3438  1.8483 -0.1567
65633SOL    HW2 4015  12.616   4.188  10.981 -1.2058 -0.4637 -1.0339
65634SOL     OW 4016  11.066   8.341   9.472 -0.0858 -0.0370  0.0212
65634SOL    HW1 4017  11.125   8.350   9.397 -0.5712  0.4233 -0.3158
65634SOL    HW2 4018  11.124   8.331   9.548  0.5066  2.7267  0.0153
65635SOL     OW 4019  12.374   6.355   4.458  0.3520  0.2776  0.0223
65635SOL    HW1 4020  12.350   6.397   4.376  0.2657  1.6538  0.7221
65635SOL    HW2 4021  12.292   6.322   4.494  0.1793  0.9155  0.2184
65636SOL     OW 4022   2.583   3.081   6.277 -0.5257  0.0955  0.6181
65636SOL    HW1 4023   2.558   3.012   6.339 -1.4178  0.5509  0.7754
65636SOL    HW2 4024   2.677   3.068   6.264 -0.2520  0.1716  2.2970
65637SOL     OW 4025  12.916  12.744   5.055 -0.5497 -0.4287 -0.0348
65637SOL    HW1 4026  12.883  12.675   5.112 -1.4502  0.5293  0.6409
65637SOL    HW2 4027  13.011  12.743   5.068 -0.5642 -1.4679  0.0299
65638SOL     OW 4028   3.668   7.083   1.594  0.3205 -0.5180 -1.5019
65638SOL    HW1 4029   3.606   7.026   1.549 -1.9109 -1.2188  2.0718
65638SOL    HW2 4030   3.713   7.026   1.656  0.4088  0.9840 -0.1132
65639SOL     OW 4031   1.649   4.091   4.334  0.6938 -0.4128 -0.3684
65639SOL    HW1 4032   1.594   4.169   4.330  1.4263  0.2415  1.2213
65639SOL    HW2 4033   1.588   4.019   4.348  0.1085  0.0560 -0.4604
65640SOL     OW 4034  11.502  10.087   4.807 -0.1711 -0.3935 -0.7719
65640SOL    HW1 4035  11.547  10.019   4.756  1.7557  0.7899 -0.7203
65640SOL    HW2 4036  11.554  10.096   4.886 -0.7881  0.6969 -0.4779
65641SOL     OW 4037  10.677   0.017   9.367  0.6403  0.3008 -0.6605
65641SOL    HW1 4038  10.753  -0.004   9.312  0.0965  0.3608 -1.4630
65641SOL    HW2 4039  10.634   0.089   9.320 -0.7633 -0.7449 -1.0544
65642SOL     OW 4040   9.879  12.045   3.757  0.3717 -0.2730  0.2952
65642SOL    HW1 4041   9.849  12.078   3.842  1.1560 -1.9392  1.2570
65642SOL    HW2 4042   9.973  12.064   3.755 -0.0774  2.3042 -1.4702
65643SOL     OW 4043   4.779   7.521   8.986 -0.7061  0.1395  0.1242
65643SOL    HW1 4044   4.757   7.551   8.898 -3.1885 -0.6335  0.4021
65643SOL    HW2 4045   4.786   7.425   8.977 -1.2057  0.0350  0.8114
65644SOL     OW 4046   9.654   1.290   7.778  0.3075 -0.1767 -0.4136
65644SOL    HW1 4047   9.733   1.260   7.823  0.5456  0.0590 -0.6713
65644SOL    HW2 4048   9.685   1.357   7.717 -0.4274  1.9949  1.4421
65645SOL     OW 4049   0.735  10.524   8.915  0.2948 -0.3071 -0.0109
65645SOL    HW1 4050   0.713  10.550   8.825 -0.8519 -0.7650  0.1178
65645SOL    HW2 4051   0.671  10.456   8.936  0.3833 -0.0166  1.2413
65646SOL     OW 4052  12.000   4.559   8.547 -0.2545  0.1034 -0.7217
65646SOL    HW1 4053  11.909   4.535   8.561 -0.4266 -0.0288 -1.9917
65646SOL    HW2 4054  11.999   4.655   8.538 -0.1527  0.1800 -0.0363
65647SOL     OW 4055   5.607   1.572   6.728 -0.0724 -0.1301  0.0062
65647SOL    HW1 4056   5.529   1.584   6.673 -0.1968  1.4276  0.4788
65647SOL    HW2 4057   5.670   1.636   6.695  0.1623  0.2279  1.0971
65648SOL     OW 4058   6.439   3.934   2.027 -0.2327  0.1978  0.1862
65648SOL    HW1 4059   6.485   3.915   1.946  1.6141  0.2189  1.1783
65648SOL    HW2 4060   6.459   3.859   2.084 -0.1399  0.9508  1.1742
65649SOL     OW 4061  11.300  11.197   5.984 -0.5893  0.1764  0.1911
65649SOL    HW1 4062  11.343  11.145   6.052 -1.4994 -1.3642 -0.3738
65649SOL    HW2 4063  11.208  11.171   5.989 -1.1372  1.9731  0.0848
65650SOL     OW 4064   2.541   7.248   8.268 -0.3412  0.2917  0.1792
65650SOL    HW1 4065   2.636   7.255   8.262 -0.2451 -0.7016  0.3745
65650SOL    HW2 4066   2.522   7.243   8.361 -0.8899  3.7771  0.3884
65651SOL     OW 4067   6.375   2.543   3.994  0.0297 -0.1698  0.0829
65651SOL    HW1 4068   6.315   2.556   4.068  0.8183 -1.1302  0.9201
65651SOL    HW2 4069   6.339   2.469   3.946 -0.6599  0.6556 -0.7053
65652SOL     OW 4070   2.051   5.046   4.737  0.0973  0.0331 -0.4362
65652SOL    HW1 4071   2.037   5.140   4.741 -1.7366 -0.1789 -0.8489
65652SOL    HW2 4072   2.097   5.031   4.654  1.0983  0.6060 -0.0055
65653SOL     OW 4073  10.808   6.870   1.856  0.6066 -0.7732  0.1594
65653SOL    HW1 4074  10.841   6.893   1.943  1.1732  1.2170 -0.5262
65653SOL    HW2 4075  10.786   6.777   1.862  1.8004 -0.9771  2.0624
65654SOL     OW 4076   9.999   7.989   8.774 -0.2721  0.0292 -0.2088
65654SOL    HW1 4077  10.093   8.005   8.771 -0.3382  0.5732  0.3108
65654SOL    HW2 4078   9.966   8.056   8.834 -1.0269  0.0357 -0.6208
65655SOL     OW 4079   4.419   4.278   7.783  0.4768  0.2185  0.4170
65655SOL    HW1 4080   4.465   4.352   7.744 -1.4621  1.5391  0.5322
65655SOL    HW2 4081   4.364   4.243   7.713 -1.1294  1.0311  1.2110
65656SOL     OW 4082  12.505  10.531   7.615  0.7522  1.1981  0.4926
65656SOL    HW1 4083  12.507  10.476   7.537  2.1757  2.6179 -0.5348
65656SOL    HW2 4084  12.422  10.579   7.607  0.4714  0.6980  0.3303
65657SOL     OW 4085  12.616   7.466   7.141  0.6869 -0.5355  0.3927
65657SOL    HW1 4086  12.578   7.539   7.092  0.5701 -0.2380  0.9141
65657SOL    HW2 4087  12.609   7.493   7.233  1.5302 -0.7853  0.5363
65658SOL     OW 4088   9.776  10.964  12.162  0.0516 -0.8744 -0.0096
65658SOL    HW1 4089   9.740  11.050  12.186 -0.2764 -1.0842  0.2513
65658SOL    HW2 4090   9.723  10.936  12.087  1.4400  0.0363 -1.3900
65659SOL     OW 4091   1.840  11.556   4.928 -0.1752 -0.3704 -0.0923
65659SOL    HW1 4092   1.907  11.528   4.991 -0.5018  0.0355  0.4430
65659SOL    HW2 4093   1.765  11.580   4.982 -0.1472  0.8725 -0.5700
65660SOL     OW 4094   5.089   6.065  10.650  1.0214 -0.0488 -0.4219
65660SOL    HW1 4095   5.101   6.136  10.713  1.9803 -0.0303 -0.6022
65660SOL    HW2 4096   5.037   6.104  10.579  0.0371 -0.0378  0.2923
65661SOL     OW 4097   2.428  11.954   2.885 -0.1174 -0.9672 -0.0985
65661SOL    HW1 4098   2.423  11.859   2.902 -0.8863 -1.2051 -1.5047
65661SOL    HW2 4099   2.399  11.963   2.794 -0.8354  0.7075  0.2736
65662SOL     OW 4100   9.395   3.433   6.738 -0.0525  0.6004 -0.8676
65662SOL    HW1 4101   9.320   3.403   6.686 -0.0668  1.5941 -1.4363
65662SOL    HW2 4102   9.469   3.385   6.702 -0.4236 -0.5108 -0.1970
65663SOL     OW 4103   6.568  12.003  12.001 -0.3997  0.5916  0.0515
65663SOL    HW1 4104   6.591  11.953  11.923 -0.9716  0.7560 -0.2277
65663SOL    HW2 4105   6.650  12.012  12.049 -0.5911 -2.3283  1.1339
65664SOL     OW 4106  12.427  10.184   0.776  0.0664 -0.1074 -0.5190
65664SOL    HW1 4107  12.514  10.148   0.789  0.4575  0.4530 -1.5162
65664SOL    HW2 4108  12.422  10.260   0.834 -0.3009 -0.9685  0.6235
65665SOL     OW 4109   2.494   1.757  11.023 -0.0788 -0.0827 -0.1403
65665SOL    HW1 4110   2.543   1.820  11.076  0.7255  1.3506 -2.4479
65665SOL    HW2 4111   2.416   1.806  10.996  0.3314 -0.1909 -1.5852
65666SOL     OW 4112   3.480   1.294  12.776 -0.7455 -0.1014  0.3078
65666SOL    HW1 4113   3.414   1.362  12.783 -0.8825  0.1269 -2.1864
65666SOL    HW2 4114   3.450   1.239  12.703  0.7304 -1.2295  0.5003
65667SOL     OW 4115   8.220   1.104   8.990 -0.3433  0.0466  0.5096
65667SOL    HW1 4116   8.168   1.182   9.010  1.1742  0.6897  2.2560
65667SOL    HW2 4117   8.255   1.121   8.903 -2.6594 -0.2274 -0.5350
65668SOL     OW 4118  11.607   5.342   2.058  0.0954 -0.5487 -0.2149
65668SOL    HW1 4119  11.684   5.332   2.113  0.8185  0.5028 -0.9935
65668SOL    HW2 4120  11.587   5.254   2.028  0.8603 -0.8588  0.1738
65669SOL     OW 4121  12.965  12.344   9.938 -0.1449  0.5439 -0.0736
65669SOL    HW1 4122  12.965  12.402  10.015 -1.1406  1.0499 -0.4372
65669SOL    HW2 4123  12.920  12.265   9.968  2.1828 -0.5618  0.7562
65670SOL     OW 4124   0.151   3.802   6.887 -0.6270 -0.1773  0.4249
65670SOL    HW1 4125   0.200   3.880   6.913 -0.4089 -0.2216  0.1477
65670SOL    HW2 4126   0.119   3.766   6.970 -1.7603  0.8728  0.4712
65671SOL     OW 4127   1.870   0.546   0.204  0.6514 -0.1093  0.0591
65671SOL    HW1 4128   1.824   0.597   0.138 -0.2859 -0.0164  0.7606
65671SOL    HW2 4129   1.801   0.496   0.249  1.0302  1.0086  1.9925
65672SOL     OW 4130   9.019   8.376  12.660 -0.1292 -0.0499 -0.2117
65672SOL    HW1 4131   9.044   8.462  12.695  0.7935 -1.6589  3.6792
65672SOL    HW2 4132   9.098   8.345  12.616 -0.4559  0.9777 -1.6085
65673SOL     OW 4133  10.971  12.290   2.810 -0.4756 -0.2377 -0.1983
65673SOL    HW1 4134  10.994  12.381   2.827  0.3206 -0.0569 -2.0002
65673SOL    HW2 4135  11.039  12.259   2.751 -1.3839 -1.6546 -0.5440
65674SOL     OW 4136   2.511   1.037   2.102  0.1488  0.1641  0.1125
65674SOL    HW1 4137   2.574   0.971   2.073 -0.5136 -0.1433 -0.6460
65674SOL    HW2 4138   2.503   1.021   2.196 -0.9181 -1.6729 -0.2324
65675SOL     OW 4139   7.713   5.311   3.899  0.5818  1.1195 -0.2249
65675SOL    HW1 4140   7.745   5.401   3.892  0.1735  1.1888 -1.5099
65675SOL    HW2 4141   7.631   5.311   3.849  0.3951  0.1247  0.0657
65676SOL     OW 4142   9.457   4.989   7.426  0.2764  0.2487  0.2954
65676SOL    HW1 4143   9.517   4.922   7.393  1.0278  1.5233 -1.0424
65676SOL    HW2 4144   9.371   4.963   7.391  0.5328 -0.0947 -0.0843
65677SOL     OW 4145   4.945  10.454  11.307 -0.0593 -0.2267  0.4269
65677SOL    HW1 4146   4.949  10.438  11.401  2.2310  0.5296  0.5219
65677SOL    HW2 4147   4.889  10.532  11.298  1.9297  1.4389  1.5054
65678SOL     OW 4148   7.574   5.056  10.714  0.3283 -0.0867 -0.3391
65678SOL    HW1 4149   7.515   5.130  10.726 -0.8103 -1.0466  0.2000
65678SOL    HW2 4150   7.662   5.094  10.720 -0.1854  0.8639  2.4192
65679SOL     OW 4151   2.086   9.279   6.088 -0.1985  0.2301  0.5854
65679SOL    HW1 4152   2.055   9.222   6.017 -0.0766 -0.1580  0.8421
65679SOL    HW2 4153   2.007   9.298   6.139 -0.2665  0.4183  0.4121
65680SOL     OW 4154   9.098   3.700   1.440 -0.1923  0.1913  0.1140
65680SOL    HW1 4155   9.046   3.780   1.450 -1.1230 -0.3081 -0.5247
65680SOL    HW2 4156   9.039   3.639   1.395 -0.5790 -1.8873  3.1301
65681SOL     OW 4157  10.139   0.256  10.143 -0.0333 -0.4996 -0.2289
65681SOL    HW1 4158  10.143   0.320  10.072 -0.2792  0.0380  0.2341
65681SOL    HW2 4159  10.069   0.288  10.201 -0.3246 -1.3192 -0.1207
65682SOL     OW 4160   6.272   1.535   7.014 -0.1391 -0.3964  0.0774
65682SOL    HW1 4161   6.272   1.499   7.103  0.4932 -0.0149  0.2413
65682SOL    HW2 4162   6.218   1.613   7.020  0.1885 -0.1769  0.2142
65683SOL     OW 4163   8.813   3.277  10.725  0.4204 -0.2320  0.4972
65683SOL    HW1 4164   8.802   3.288  10.820 -0.1083  0.4316  0.3722
65683SOL    HW2 4165   8.878   3.342  10.700  1.9488 -1.6514  0.6679
65684SOL     OW 4166   6.760  10.179   6.882 -0.0993  0.3108  0.1500
65684SOL    HW1 4167   6.802  10.238   6.944  1.8104 -0.7868 -0.0163
65684SOL    HW2 4168   6.677  10.221   6.860 -1.1254  0.4968  3.8051
65685SOL     OW 4169   0.491   3.740   8.531  0.0912  0.2592  0.1457
65685SOL    HW1 4170   0.563   3.688   8.566 -0.0717 -0.8476 -1.0785
65685SOL    HW2 4171   0.424   3.675   8.507 -0.1663  1.0238 -1.3025
65686SOL     OW 4172   5.430   7.764   8.610 -0.0122 -0.3803  0.0527
65686SOL    HW1 4173   5.354   7.753   8.553 -0.3180 -3.2465  0.8576
65686SOL    HW2 4174   5.412   7.708   8.686  2.1207  0.2231  1.0880
65687SOL     OW 4175   4.831   9.286   9.804  0.0500  0.7411  0.5439
65687SOL    HW1 4176   4.911   9.261   9.757  0.5640  1.0545  1.2397
65687SOL    HW2 4177   4.764   9.228   9.768  0.3753  1.1062 -0.7256
65688SOL     OW 4178   0.646   9.428   2.722 -0.2728  0.1975  0.0006
65688SOL    HW1 4179   0.677   9.342   2.751  0.3523 -0.0683 -1.3778
65688SOL    HW2 4180   0.726   9.478   2.705 -0.5277 -0.0780 -2.3897
65689SOL     OW 4181   9.897  12.479   1.701  0.1307  0.1364 -0.3401
65689SOL    HW1 4182   9.967  12.481   1.766  0.4847  0.6937 -0.7291
65689SOL    HW2 4183   9.817  12.494   1.751  0.1622 -1.4929  0.2509
65690SOL     OW 4184  10.693   0.009  10.143 -0.1905 -0.4187 -0.2687
65690SOL    HW1 4185  10.737   0.059  10.074 -0.2875 -0.1067 -0.1076
65690SOL    HW2 4186  10.691  -0.080  10.110 -0.5744 -0.2049 -0.8363
65691SOL     OW 4187   1.121   5.309   2.767  0.0123 -0.4095 -0.0140
65691SOL    HW1 4188   1.131   5.225   2.722  1.6904  0.1095 -0.6748
65691SOL    HW2 4189   1.196   5.361   2.739  0.1446  0.5922  1.9916
65692SOL     OW 4190   5.813   1.441  10.077 -0.0327 -0.3575  0.2860
65692SOL    HW1 4191   5.862   1.366  10.042  0.6135  0.5658 -0.8702
65692SOL    HW2 4192   5.749   1.462  10.009  0.2590  0.5625  0.2788
65693SOL     OW 4193   4.335   1.835   1.134  0.6202 -0.0125  0.4443
65693SOL    HW1 4194   4.333   1.760   1.193 -1.9565  0.1732  0.7091
65693SOL    HW2 4195   4.261   1.820   1.074  1.2411  1.3593 -0.7177
65694SOL     OW 4196   8.078   7.662   6.487  0.1775  0.3389 -0.2588
65694SOL    HW1 4197   8.170   7.666   6.464 -0.1891  0.4416 -1.8061
65694SOL    HW2 4198   8.040   7.598   6.426 -0.6088 -0.4523  0.9865
65695SOL     OW 4199   1.037   7.524  11.150 -0.1612 -0.1011  0.7170
65695SOL    HW1 4200   1.023   7.430  11.139  0.2788 -0.1280  0.3428
65695SOL    HW2 4201   1.095   7.548  11.078 -1.2267  0.6964  0.1000
65696SOL     OW 4202   9.699  11.591   0.592 -0.0122  0.5314 -0.3578
65696SOL    HW1 4203   9.673  11.653   0.659 -0.8398 -1.5573  1.3692
65696SOL    HW2 4204   9.769  11.540   0.632  0.1343 -0.1508 -1.4444
65697SOL     OW 4205   8.281   7.605   9.861  0.2671  0.0705  0.2456
65697SOL    HW1 4206   8.371   7.638   9.854  0.0539  0.6303  0.0875
65697SOL    HW2 4207   8.291   7.512   9.884  0.8618  0.4333  1.5468
65698SOL     OW 4208  12.451  12.147  11.825  0.4257 -0.3007  0.4922
65698SOL    HW1 4209  12.392  12.081  11.862  1.0631 -0.1902  1.7733
65698SOL    HW2 4210  12.538  12.107  11.831  0.5844 -0.1639 -0.6853
65699SOL     OW 4211   1.727  12.804  12.135 -0.3518 -0.4551  0.3881
65699SOL    HW1 4212   1.666  12.873  12.111  0.0754  0.2136  1.1834
65699SOL    HW2 4213   1.739  12.814  12.229 -2.3227 -3.2791  1.0505
65700SOL     OW 4214   6.646   4.775   2.264  0.7098  0.7510 -0.0957
65700SOL    HW1 4215   6.564   4.806   2.226 -0.7255 -0.0037  2.1736
65700SOL    HW2 4216   6.696   4.855   2.283 -0.0852  1.3087 -0.2978
65701SOL     OW 4217   1.376   0.696   2.482 -0.4948 -0.4548  0.3597
65701SOL    HW1 4218   1.393   0.713   2.389  2.5405  2.7029  1.2640
65701SOL    HW2 4219   1.310   0.761   2.506  0.4543  0.3692  0.8267
65702SOL     OW 4220   2.825  11.101   4.142  0.7936 -0.0041 -0.2214
65702SOL    HW1 4221   2.891  11.077   4.208  0.9304 -0.1372 -0.4037
65702SOL    HW2 4222   2.851  11.189   4.113  0.9205 -0.0764 -0.3284
65703SOL     OW 4223  12.074   2.068   5.639 -0.0556  0.6922 -0.2337
65703SOL    HW1 4224  11.988   2.030   5.652  0.1154  0.2675 -0.3321
65703SOL    HW2 4225  12.077   2.143   5.699 -0.9278  1.4156 -1.0589
65704SOL     OW 4226   4.568   8.364   9.971  0.2619 -0.1487 -0.1790
65704SOL    HW1 4227   4.525   8.433  10.022  1.4342 -1.3476  2.6445
65704SOL    HW2 4228   4.520   8.284   9.994 -0.0666 -0.5756 -2.1521
65705SOL     OW 4229   1.665  12.213   8.633 -0.1920 -0.1385 -0.2432
65705SOL    HW1 4230   1.615  12.224   8.714  1.5153 -3.2511  1.4015
65705SOL    HW2 4231   1.744  12.266   8.646 -0.4175  0.2236 -0.3481
65706SOL     OW 4232   0.436   2.107   9.699  0.2132 -0.4875  0.0333
65706SOL    HW1 4233   0.360   2.066   9.740  0.4167  0.2760  1.2211
65706SOL    HW2 4234   0.496   2.125   9.772  0.9495  0.1558 -0.7071
65707SOL     OW 4235  12.131   6.240  10.818  0.0258  0.2470  0.3021
65707SOL    HW1 4236  12.155   6.149  10.801 -0.6458  0.3473 -1.3662
65707SOL    HW2 4237  12.214   6.286  10.826  0.3744 -0.3756  0.3038
65708SOL     OW 4238   9.392   6.684   1.618  0.2691 -0.3777 -0.1443
65708SOL    HW1 4239   9.384   6.600   1.571 -0.5822 -0.1285 -0.4706
65708SOL    HW2 4240   9.440   6.740   1.558 -0.9065 -0.0281 -0.7916
65709SOL     OW 4241   6.800   0.665   8.561 -0.0819  0.4423  0.4181
65709SOL    HW1 4242   6.707   0.667   8.583 -0.3532  0.8514 -0.6864
65709SOL    HW2 4243   6.835   0.591   8.610 -1.4404 -1.0602 -0.7471
65710SOL     OW 4244   1.215   4.801   9.863  0.4371 -0.0561 -0.2092
65710SOL    HW1 4245   1.267   4.793   9.782 -0.4747  3.5971 -1.3290
65710SOL    HW2 4246   1.272   4.764   9.931  2.6994 -0.1694 -2.0164
65711SOL     OW 4247   6.570   9.231  11.119 -0.2299 -0.4002 -0.1970
65711SOL    HW1 4248   6.539   9.321  11.126 -0.1051 -0.5219  3.6097
65711SOL    HW2 4249   6.663   9.238  11.100 -0.3537  0.2345 -0.5870
65712SOL     OW 4250   6.585   5.980  11.735  0.1630  0.4637  1.1907
65712SOL    HW1 4251   6.603   5.904  11.680  0.6417  0.7984  0.8829
65712SOL    HW2 4252   6.493   6.001  11.718  0.7529  1.6264 -0.8039
65713SOL     OW 4253   5.907   1.269  11.669 -0.5397  0.4999 -0.0895
65713SOL    HW1 4254   5.839   1.220  11.623  0.9226 -0.6788 -1.1064
65713SOL    HW2 4255   5.961   1.201  11.710  0.1955  1.3890  0.4622
65714SOL     OW 4256   1.589   5.371  10.618 -0.7689  0.2754  0.4204
65714SOL    HW1 4257   1.550   5.457  10.635 -1.0882  0.4152 -0.9211
65714SOL    HW2 4258   1.634   5.348  10.700 -1.2062  1.4310  1.0011
65715SOL     OW 4259   9.698   6.356   2.971 -0.1236 -0.4193  0.3761
65715SOL    HW1 4260   9.669   6.359   2.880 -0.3963 -0.3088  0.4657
65715SOL    HW2 4261   9.758   6.430   2.979 -1.4926  0.6893  0.7536
65716SOL     OW 4262   5.743   4.685   3.402 -0.1300 -0.6008 -0.3189
65716SOL    HW1 4263   5.837   4.677   3.414  0.1386 -1.4724 -2.4803
65716SOL    HW2 4264   5.728   4.779   3.388  0.0598 -0.1469  2.0312
65717SOL     OW 4265   6.290   8.724   9.257  0.3646 -0.1743  0.0713
65717SOL    HW1 4266   6.339   8.789   9.307 -0.0031 -0.3054  0.6136
65717SOL    HW2 4267   6.313   8.640   9.297 -0.1668 -0.2515  0.2246
65718SOL     OW 4268  12.206   1.938   9.944  0.4384  0.2995  0.3026
65718SOL    HW1 4269  12.217   1.987   9.862  0.1791 -0.6956 -0.3458
65718SOL    HW2 4270  12.295   1.929   9.979  0.9105 -1.3313 -1.1311
65719SOL     OW 4271   5.732   5.736   3.074 -0.1348  0.0280  0.0774
65719SOL    HW1 4272   5.650   5.776   3.044 -0.1623 -0.8790 -1.1237
65719SOL    HW2 4273   5.783   5.724   2.995 -0.2791 -2.6426  0.3234
65720SOL     OW 4274  10.052  10.463   8.966 -0.0106 -0.0336 -0.1142
65720SOL    HW1 4275  10.061  10.526   9.038 -0.5055  1.2675 -1.1674
65720SOL    HW2 4276  10.095  10.504   8.892  1.1884 -1.7013 -0.4112
65721SOL     OW 4277   1.337   1.865   7.041  0.0441  0.3578  0.0591
65721SOL    HW1 4278   1.427   1.833   7.044  0.1083  0.5492  0.2595
65721SOL    HW2 4279   1.295   1.823   7.116 -0.1504 -0.0742 -0.2927
65722SOL     OW 4280  10.614   7.122   3.561  0.1156  0.1632  0.5857
65722SOL    HW1 4281  10.644   7.105   3.471 -0.3325  0.5333  0.3669
65722SOL    HW2 4282  10.536   7.068   3.571  1.0060 -1.0561  1.2680
65723SOL     OW 4283   7.108   7.256   0.038 -0.1903 -0.1405  0.1467
65723SOL    HW1 4284   7.017   7.229   0.048 -0.5573  0.3230 -1.5466
65723SOL    HW2 4285   7.155   7.176   0.015 -0.0752 -0.4549  1.4227
65724SOL     OW 4286   7.459  12.435  11.411  0.1765  0.6997 -0.0232
65724SOL    HW1 4287   7.399  12.379  11.459 -0.0047  0.9022 -0.0135
65724SOL    HW2 4288   7.403  12.498  11.366  0.2992  0.1502 -0.9828
65725SOL     OW 4289  12.364   3.437   3.621  0.1878 -0.1764 -0.0605
65725SOL    HW1 4290  12.390   3.456   3.530 -0.8163 -1.7386 -0.6993
65725SOL    HW2 4291  12.444   3.402   3.661 -0.1309 -2.4996 -1.2823
65726SOL     OW 4292   7.484  12.681   7.162 -0.2122 -0.6093 -0.5092
65726SOL    HW1 4293   7.403  12.725   7.185 -0.4769 -0.6878 -1.2533
65726SOL    HW2 4294   7.550  12.720   7.220 -0.6244  0.0505 -0.4704
65727SOL     OW 4295   9.409   4.365   9.336  0.3798 -0.7169 -0.0773
65727SOL    HW1 4296   9.398   4.305   9.410 -2.5861 -0.9292 -0.5556
65727SOL    HW2 4297   9.499   4.397   9.343  0.9470 -2.5905  2.1754
65728SOL     OW 4298   4.352   5.446   8.178  0.3523 -0.7016 -0.0421
65728SOL    HW1 4299   4.301   5.427   8.100 -0.9222 -0.6898  0.7698
65728SOL    HW2 4300   4.402   5.365   8.194  0.3361 -0.8337 -0.6325
65729SOL     OW 4301   2.269   4.399   1.028 -0.2945  0.0354 -0.2256
65729SOL    HW1 4302   2.315   4.317   1.009  1.1202  0.3793  1.4530
65729SOL    HW2 4303   2.217   4.380   1.106 -0.9357  0.4070 -0.5510
65730SOL     OW 4304  11.949   9.922   6.188  0.2664 -0.0236  0.1266
65730SOL    HW1 4305  11.877   9.860   6.200  0.4393 -0.0814  0.8952
65730SOL    HW2 4306  11.951   9.973   6.269  2.7713 -1.7850  1.2877
65731SOL     OW 4307   0.531   0.841   0.226  0.7379  0.0628  0.0523
65731SOL    HW1 4308   0.587   0.879   0.293  0.0598  0.3882  0.4386
65731SOL    HW2 4309   0.546   0.895   0.148  0.1556  0.8226  0.4592
65732SOL     OW 4310  10.540   1.073   5.283  0.2336 -0.2895 -0.0261
65732SOL    HW1 4311  10.461   1.121   5.259  0.4171  0.6972  1.2498
65732SOL    HW2 4312  10.547   1.085   5.378  1.5360 -0.9407 -0.0259
65733SOL     OW 4313   8.757   7.371  10.893 -0.3853  0.5110  0.1156
65733SOL    HW1 4314   8.715   7.435  10.950  1.2479  3.0073 -1.3225
65733SOL    HW2 4315   8.847   7.366  10.925 -0.3699 -0.7732 -0.0777
65734SOL     OW 4316   8.215   5.151  12.609  0.4673 -0.1898 -0.5890
65734SOL    HW1 4317   8.290   5.197  12.572 -0.1704  1.7817  0.3928
65734SOL    HW2 4318   8.217   5.173  12.702 -1.0443 -0.4560 -0.4614
65735SOL     OW 4319   1.926   2.487  10.823 -0.2740  0.1178  0.6277
65735SOL    HW1 4320   1.913   2.562  10.766 -1.9168  0.6757  1.6737
65735SOL    HW2 4321   1.938   2.413  10.763 -0.3486  0.9408 -0.4189
65736SOL     OW 4322   0.371   9.235  11.424 -0.2947  0.4608 -0.6915
65736SOL    HW1 4323   0.321   9.250  11.344 -0.0848 -1.7553 -1.3074
65736SOL    HW2 4324   0.391   9.142  11.423  0.2449  0.4789  1.6660
65737SOL     OW 4325  10.943  12.798   9.718 -0.4862 -0.2179 -0.1593
65737SOL    HW1 4326  10.914  12.887   9.697  2.0841  0.6186 -0.6168
65737SOL    HW2 4327  11.038  12.801   9.705 -0.2357 -2.8533  0.5452
65738SOL     OW 4328   9.616   7.072   6.307  0.9216  0.4238  0.1374
65738SOL    HW1 4329   9.705   7.075   6.273  1.4855  1.6854  1.5944
65738SOL    HW2 4330   9.601   7.159   6.344 -0.9234  0.2335 -0.0710
65739SOL     OW 4331   4.820  11.976   7.547  0.0024 -0.0059  0.1259
65739SOL    HW1 4332   4.848  11.889   7.574 -0.9590 -0.3643  0.0010
65739SOL    HW2 4333   4.825  11.976   7.452 -1.5195 -0.4802  0.0216
65740SOL     OW 4334   0.603  12.192   8.461  0.0166 -0.1633 -0.2072
65740SOL    HW1 4335   0.553  12.134   8.518 -1.3310 -0.4386 -1.5957
65740SOL    HW2 4336   0.679  12.141   8.434  1.4100  0.4221  2.3157
65741SOL     OW 4337   9.869   9.267  11.437  0.0220  0.6668  0.3499
65741SOL    HW1 4338   9.840   9.185  11.477 -0.7156  0.6740 -0.1525
65741SOL    HW2 4339   9.941   9.242  11.380 -0.8683  0.1991 -0.5945
65742SOL     OW 4340   2.531   5.627  10.707  0.3132 -0.4135  0.4142
65742SOL    HW1 4341   2.496   5.540  10.726  0.3660 -0.5144  0.0615
65742SOL    HW2 4342   2.480   5.686  10.763 -0.6521 -0.5260 -0.3251
65743SOL     OW 4343  10.832   8.374   3.041 -0.2227  0.2284  0.2280
65743SOL    HW1 4344  10.851   8.376   3.135 -1.8258 -1.3800  0.6424
65743SOL    HW2 4345  10.784   8.292   3.029  2.2723 -0.9894 -2.4623
65744SOL     OW 4346  12.561   0.617   2.043  0.2171 -0.3995 -0.0193
65744SOL    HW1 4347  12.655   0.605   2.026  0.9846  1.2170  2.5728
65744SOL    HW2 4348  12.525   0.640   1.957  1.7578 -2.9871 -1.4922
65745SOL     OW 4349   8.792  10.169   9.067  0.5269 -0.0075 -0.2992
65745SOL    HW1 4350   8.741  10.235   9.114  0.2098  0.8435 -1.7459
65745SOL    HW2 4351   8.875  10.213   9.048  1.2982 -0.9112  0.8496
65746SOL     OW 4352   6.072  10.306   3.497  0.4487  0.2639 -0.3271
65746SOL    HW1 4353   5.998  10.332   3.442  0.9063  1.2827 -0.4748
65746SOL    HW2 4354   6.040  10.318   3.587 -0.1430 -0.9668 -0.3472
65747SOL     OW 4355   1.751   8.702   1.980 -0.9093  0.0348  0.0000
65747SOL    HW1 4356   1.787   8.770   1.923 -0.8073 -0.1854 -0.2018
65747SOL    HW2 4357   1.694   8.749   2.041 -0.9036  0.2893 -0.1898
65748SOL     OW 4358   5.147  12.629   0.939 -0.2627 -0.7761 -0.1619
65748SOL    HW1 4359   5.235  12.647   0.971 -0.3347 -1.7760  0.6567
65748SOL    HW2 4360   5.117  12.556   0.992 -1.7553 -0.1818 -0.1567
65749SOL     OW 4361   3.537   5.126  10.697 -0.6278 -0.6137  0.3439
65749SOL    HW1 4362   3.460   5.076  10.672 -1.1005 -0.5924  1.6842
65749SOL    HW2 4363   3.564   5.089  10.781 -0.8056  1.1383  1.2169
65750SOL     OW 4364  11.525   5.434  10.249 -0.6312  0.0410  0.0995
65750SOL    HW1 4365  11.580   5.398  10.180  0.6674 -0.0474  1.1382
65750SOL    HW2 4366  11.556   5.391  10.329 -0.3648  1.9676  1.0891
65751SOL     OW 4367   9.412   0.656   2.379 -0.3200  0.3908 -0.5188
65751SOL    HW1 4368   9.465   0.723   2.421  0.3414  0.1320 -0.9309
65751SOL    HW2 4369   9.334   0.703   2.347  0.2249  0.9977 -0.9772
65752SOL     OW 4370   9.318   1.319  12.357  0.3307 -0.5048 -0.1054
65752SOL    HW1 4371   9.270   1.358  12.430  1.2361 -1.7742  1.2312
65752SOL    HW2 4372   9.383   1.385  12.333  0.9399 -0.6005  1.1948
65753SOL     OW 4373   5.914   2.276  10.647  0.5440  0.2869 -0.2727
65753SOL    HW1 4374   5.856   2.331  10.593 -0.3514  0.8554  1.2061
65753SOL    HW2 4375   5.991   2.331  10.661  1.0405 -0.0871 -1.4235
65754SOL     OW 4376   4.896   6.218   2.918  0.0217 -0.5761  0.0364
65754SOL    HW1 4377   4.844   6.277   2.971 -0.9461 -0.7186 -0.7390
65754SOL    HW2 4378   4.866   6.232   2.828  2.1845  0.2600 -0.6408
65755SOL     OW 4379   7.276   7.293   0.480  0.4179 -0.6654 -0.0313
65755SOL    HW1 4380   7.302   7.265   0.392 -0.8428 -0.7622 -0.3901
65755SOL    HW2 4381   7.356   7.330   0.518  1.0725 -0.9725 -1.0736
65756SOL     OW 4382   1.346   1.685  10.082  0.1898  0.0886 -1.1080
65756SOL    HW1 4383   1.266   1.692  10.030  0.1440 -0.3747 -1.1076
65756SOL    HW2 4384   1.328   1.613  10.144 -0.3986  1.7134  0.7033
65757SOL     OW 4385   1.779   6.543   2.417 -0.3070 -0.1194  0.6771
65757SOL    HW1 4386   1.789   6.574   2.327 -1.6309  3.7739  1.6586
65757SOL    HW2 4387   1.861   6.568   2.460  0.7061 -2.7780  0.5133
65758SOL     OW 4388   4.658   3.084   7.310  0.0828 -0.3022 -0.1140
65758SOL    HW1 4389   4.668   3.166   7.359 -1.9038  0.9761 -1.7090
65758SOL    HW2 4390   4.607   3.027   7.368 -0.4006  0.3945  0.1579
65759SOL     OW 4391   3.802   0.303   9.219  0.3543 -0.6197 -0.2244
65759SOL    HW1 4392   3.746   0.379   9.207 -1.1852 -1.4024  1.5072
65759SOL    HW2 4393   3.869   0.331   9.282 -0.1859 -0.6582  0.3778
65760SOL     OW 4394   0.329   1.252   9.203 -0.2149 -0.1995  0.1964
65760SOL    HW1 4395   0.358   1.308   9.275  0.1560 -0.6194  0.3841
65760SOL    HW2 4396   0.239   1.279   9.186  0.5200  1.6856 -0.9444
65761SOL     OW 4397   1.070   8.864   8.599  0.1551  0.7300  0.1684
65761SOL    HW1 4398   0.979   8.834   8.598  0.7523 -1.2232 -0.2364
65761SOL    HW2 4399   1.100   8.846   8.688  1.1680 -2.1906 -0.6543
65762SOL     OW 4400  12.096   7.603   7.321  0.8099  0.1755 -0.2631
65762SOL    HW1 4401  12.143   7.594   7.237  1.4406  2.0037 -0.1440
65762SOL    HW2 4402  12.110   7.694   7.347  1.1997 -0.5081  2.1797
65763SOL     OW 4403   5.524   6.811  12.543 -0.3387 -0.2162  0.6083
65763SOL    HW1 4404   5.594   6.876  12.546 -1.8299  1.5274 -0.2370
65763SOL    HW2 4405   5.563   6.736  12.499  0.8944  0.8698 -0.2267
65764SOL     OW 4406   3.627   8.461   3.841  0.1087  0.2250 -0.1156
65764SOL    HW1 4407   3.607   8.520   3.769  0.9895  1.0221  0.2673
65764SOL    HW2 4408   3.665   8.384   3.799  0.0988  0.4518 -0.5450
65765SOL     OW 4409   9.365   6.443   9.516 -0.2333 -0.0863 -0.2890
65765SOL    HW1 4410   9.384   6.524   9.564 -1.3565 -0.8061  1.4665
65765SOL    HW2 4411   9.440   6.387   9.532 -0.7499 -0.4509  0.9878
65766SOL     OW 4412   6.860   4.811   2.627  0.0450  0.3295 -0.6388
65766SOL    HW1 4413   6.937   4.867   2.638  0.8397 -0.6263 -1.1325
65766SOL    HW2 4414   6.830   4.829   2.537 -0.4656  0.8817 -0.3627
65767SOL     OW 4415   1.287   0.241  12.200  0.1044  0.1667 -0.0056
65767SOL    HW1 4416   1.285   0.326  12.244 -1.3496  0.9181 -1.4359
65767SOL    HW2 4417   1.203   0.201  12.221 -0.2747  0.1874 -1.3797
65768SOL     OW 4418   5.563   0.238   8.058  0.0901  0.4181 -0.5656
65768SOL    HW1 4419   5.579   0.282   8.141  0.6672 -0.5497 -0.1502
65768SOL    HW2 4420   5.562   0.308   7.993  1.2043  1.0222  0.0561
65769SOL     OW 4421   0.301  11.728   0.285  0.2094  0.4280  0.0046
65769SOL    HW1 4422   0.246  11.750   0.209 -0.6195  0.2305  0.5399
65769SOL    HW2 4423   0.308  11.632   0.282  0.3351  0.4341  0.0789
65770SOL     OW 4424   2.130   5.016   2.113  0.4266  0.3081  0.1455
65770SOL    HW1 4425   2.081   5.020   2.031 -2.3887 -1.1029  1.6107
65770SOL    HW2 4426   2.134   5.106   2.143  1.1734  0.7948 -1.2914
65771SOL     OW 4427   3.140   3.359   1.618 -0.0239 -0.1323 -0.5937
65771SOL    HW1 4428   3.084   3.393   1.548 -1.2829  0.1254  0.5078
65771SOL    HW2 4429   3.171   3.437   1.663 -0.1617 -0.3364 -0.1469
65772SOL     OW 4430   5.382  11.092   2.282 -0.4327  0.5348 -0.2605
65772SOL    HW1 4431   5.399  10.998   2.288 -1.2932  0.3584 -0.4547
65772SOL    HW2 4432   5.327  11.101   2.204  0.7612  1.3648 -1.0269
65773SOL     OW 4433   0.547   5.221   3.737  0.1374 -0.3889 -0.0126
65773SOL    HW1 4434   0.548   5.161   3.663 -0.2542  0.7040 -0.9401
65773SOL    HW2 4435   0.460   5.211   3.775  0.6784 -1.7006  0.9811
65774SOL     OW 4436  10.110   7.793  12.933  0.3252 -0.7823  0.5537
65774SOL    HW1 4437  10.097   7.801  12.838  0.8906 -1.5965  0.3999
65774SOL    HW2 4438  10.125   7.883  12.962  0.4031 -0.5530 -0.1704
65775SOL     OW 4439   7.669   0.144  12.804 -0.1667  0.6754 -0.0565
65775SOL    HW1 4440   7.614   0.110  12.733 -0.0892  0.0190  0.1883
65775SOL    HW2 4441   7.753   0.162  12.763  1.2756 -3.5972  0.5634
65776SOL     OW 4442   0.900  10.610   6.895  0.4497 -0.0318  0.0757
65776SOL    HW1 4443   0.924  10.533   6.947  1.0904  1.7690  2.6319
65776SOL    HW2 4444   0.983  10.657   6.882 -0.3451  1.8783  1.4791
65777SOL     OW 4445   7.127   3.445   5.415  0.2139  0.4362 -0.0374
65777SOL    HW1 4446   7.162   3.503   5.347  1.3412 -0.6849 -0.4482
65777SOL    HW2 4447   7.046   3.488   5.443  0.5317  1.7254 -0.9732
65778SOL     OW 4448   9.367   9.713   5.520  0.5160 -0.0680 -0.3220
65778SOL    HW1 4449   9.430   9.746   5.455  0.4591 -0.7307 -0.7220
65778SOL    HW2 4450   9.383   9.767   5.597  0.6111  0.7113 -0.8695
65779SOL     OW 4451   0.020   9.421   4.852 -0.2574  0.4024 -0.5549
65779SOL    HW1 4452   0.086   9.457   4.911 -0.6920  0.9199 -0.3742
65779SOL    HW2 4453   0.060   9.426   4.765 -0.0675  0.7424 -0.4501
65780SOL     OW 4454  11.375   4.834  12.792  0.0424  0.1461 -0.0031
65780SOL    HW1 4455  11.351   4.755  12.839 -0.3906 -0.1971 -0.7811
65780SOL    HW2 4456  11.406   4.803  12.707 -0.1319  0.8069 -0.3171
65781SOL     OW 4457  12.179  10.425   7.724 -0.1042 -0.0570 -0.1604
65781SOL    HW1 4458  12.204  10.506   7.680 -0.1217  0.4473  0.7296
65781SOL    HW2 4459  12.106  10.391   7.672 -1.1047  1.3063  0.2949
65782SOL     OW 4460  10.859   9.265   1.939 -0.1576  0.5858  0.9848
65782SOL    HW1 4461  10.886   9.181   1.903 -1.4177 -0.4532  2.3358
65782SOL    HW2 4462  10.896   9.330   1.879  1.5688 -0.8808  0.3864
65783SOL     OW 4463   6.120   9.519  11.372 -0.4726 -0.5957  0.1708
65783SOL    HW1 4464   6.027   9.527  11.389 -0.3737 -0.4690  0.6582
65783SOL    HW2 4465   6.126   9.501  11.278 -0.8877  1.2894 -0.2626
65784SOL     OW 4466   8.956  12.955   3.147  0.2985  0.1907 -0.3791
65784SOL    HW1 4467   8.878  13.010   3.157  2.4189  3.4188 -0.2154
65784SOL    HW2 4468   8.926  12.880   3.095 -3.0358  0.8395  0.3538
65785SOL     OW 4469  12.905   4.255   1.125 -0.2733  0.4103  0.1717
65785SOL    HW1 4470  12.891   4.213   1.040 -0.0141  1.3631 -0.3519
65785SOL    HW2 4471  12.870   4.192   1.188 -0.1364 -0.4801 -0.6053
65786SOL     OW 4472  12.173  12.484  11.331 -0.1837 -0.1989 -0.0170
65786SOL    HW1 4473  12.214  12.397  11.325  0.5226  0.1679 -0.6174
65786SOL    HW2 4474  12.080  12.465  11.344 -0.0738 -1.0604 -0.3935
65787SOL     OW 4475   7.617   6.642  11.591 -0.1056 -0.4854  0.3621
65787SOL    HW1 4476   7.549   6.588  11.551  0.0827 -2.4793  2.5829
65787SOL    HW2 4477   7.698   6.596  11.574  0.3039  0.1127  0.6481
65788SOL     OW 4478   8.086   4.449   7.890 -0.0961  0.8938 -0.1167
65788SOL    HW1 4479   8.012   4.391   7.873  0.4329 -1.1980  3.6027
65788SOL    HW2 4480   8.078   4.472   7.983  2.7438  2.3259 -0.1155
65789SOL     OW 4481  12.866   0.223  12.144  0.3424  0.0958  0.1782
65789SOL    HW1 4482  12.813   0.169  12.203  0.9513  0.3226  0.9473
65789SOL    HW2 4483  12.915   0.160  12.092 -0.0360 -0.1025  0.0524
65790SOL     OW 4484   4.558   3.906  11.290 -0.5293  0.4788  1.0916
65790SOL    HW1 4485   4.597   3.929  11.206  1.0513 -0.0807  1.6139
65790SOL    HW2 4486   4.504   3.830  11.272 -1.5173  1.3359  0.3149
65791SOL     OW 4487   0.746   0.735   4.926  0.0743  0.9562 -0.2336
65791SOL    HW1 4488   0.685   0.685   4.871 -1.2204  2.3684 -0.1740
65791SOL    HW2 4489   0.722   0.712   5.015  0.2718  0.7804 -0.2272
65792SOL     OW 4490   7.949   0.280   2.657 -0.0104  0.1476 -0.2770
65792SOL    HW1 4491   7.948   0.238   2.743  0.2736  2.1034  0.7432
65792SOL    HW2 4492   7.858   0.279   2.628 -0.1698 -0.1496  0.2344
65793SOL     OW 4493   8.516   0.860   2.205 -0.2133 -0.6995  0.1280
65793SOL    HW1 4494   8.473   0.936   2.244 -0.9747  0.6445 -2.9847
65793SOL    HW2 4495   8.447   0.816   2.155  1.1498 -0.5882 -2.0299
65794SOL     OW 4496   6.071  10.992   7.349  0.1602  0.0116  0.8560
65794SOL    HW1 4497   6.007  10.926   7.323 -1.4851  0.9952  2.1287
65794SOL    HW2 4498   6.115  10.954   7.425  0.9352 -0.5780  0.1173
65795SOL     OW 4499   8.558   4.712   5.672  0.1448  0.4894 -0.2757
65795SOL    HW1 4500   8.510   4.747   5.747 -2.0543  2.4303 -2.3730
65795SOL    HW2 4501   8.512   4.630   5.651  0.9949 -0.2448  0.6663
65796SOL     OW 4502  12.287   9.136   4.110 -0.0012 -0.4037  0.5268
65796SOL    HW1 4503  12.273   9.223   4.072 -2.7285 -0.7128  0.6469
65796SOL    HW2 4504  12.246   9.076   4.050 -1.5429 -1.2138  2.2907
65797SOL     OW 4505   4.317   9.827   5.163 -0.5675 -0.4251 -0.2412
65797SOL    HW1 4506   4.264   9.766   5.215 -2.3365  0.9575 -0.3510
65797SOL    HW2 4507   4.359   9.772   5.097 -2.0416 -1.5509 -0.2848
65798SOL     OW 4508   6.698   2.619   0.929  0.0583 -0.1052  0.0508
65798SOL    HW1 4509   6.750   2.671   0.990 -1.8908  0.9435  0.9073
65798SOL    HW2 4510   6.726   2.648   0.842  0.1479  1.2129  0.5024
65799SOL     OW 4511   5.835   6.601   4.135 -0.6979 -0.5626  0.0392
65799SOL    HW1 4512   5.778   6.667   4.097 -0.1566  0.5959  1.1660
65799SOL    HW2 4513   5.785   6.520   4.128 -1.6842  0.0811 -0.6956
65800SOL     OW 4514  12.032   7.662   4.885 -0.2510  0.2089 -0.6194
65800SOL    HW1 4515  11.997   7.573   4.892  0.3786  0.0693  1.6755
65800SOL    HW2 4516  12.126   7.650   4.876 -0.2005  0.6377 -0.6850
65801SOL     OW 4517   8.736   8.137  12.747 -0.0899 -0.1632 -0.4091
65801SOL    HW1 4518   8.769   8.179  12.668 -1.3651 -2.7306 -2.4583
65801SOL    HW2 4519   8.653   8.182  12.765 -0.8989 -0.9825 -1.9200
65802SOL     OW 4520   5.968   5.314  11.101  0.3646  0.1955  0.0367
65802SOL    HW1 4521   5.913   5.247  11.140 -2.6856  1.6176 -1.4408
65802SOL    HW2 4522   6.031   5.337  11.169 -0.7542 -1.6550  1.7994
65803SOL     OW 4523   5.282   1.522   7.961  0.0057  0.3357 -0.1571
65803SOL    HW1 4524   5.245   1.449   7.912  0.8851  0.8011 -1.5517
65803SOL    HW2 4525   5.222   1.534   8.035 -0.4180 -1.4631 -0.1715
65804SOL     OW 4526   8.768   9.013   3.936  0.3895 -0.1560 -0.3033
65804SOL    HW1 4527   8.684   9.044   3.903 -0.3228 -1.3945  0.2405
65804SOL    HW2 4528   8.748   8.927   3.973  1.8628 -0.3749  0.0381
65805SOL     OW 4529   4.240   3.128  11.198  0.0428 -0.8404 -0.0338
65805SOL    HW1 4530   4.265   3.038  11.180  0.2905 -0.2428 -3.4751
65805SOL    HW2 4531   4.318   3.179  11.175 -0.0945  0.3046  1.8488
65806SOL     OW 4532  12.595  10.581   0.258 -0.3105  0.5795  0.2147
65806SOL    HW1 4533  12.683  10.608   0.284  0.8737 -1.5121 -1.3858
65806SOL    HW2 4534  12.567  10.649   0.197  0.5814  0.7884  0.0207
65807SOL     OW 4535  11.712   8.320   4.669  0.0279  0.2010  0.1645
65807SOL    HW1 4536  11.775   8.371   4.618 -0.3634  0.2260 -0.2967
65807SOL    HW2 4537  11.689   8.247   4.613 -0.6660  0.4158  0.1639
65808SOL     OW 4538   9.499   4.957   3.161 -0.3308 -0.4546  0.6108
65808SOL    HW1 4539   9.448   4.915   3.230  0.2216  1.5666  2.3737
65808SOL    HW2 4540   9.480   5.051   3.171  0.4707 -0.0219 -1.4310
65809SOL     OW 4541  10.340   5.413   6.745  0.5492  0.1977  0.0353
65809SOL    HW1 4542  10.422   5.395   6.792  1.8355  0.2816 -2.0434
65809SOL    HW2 4543  10.272   5.378   6.802  2.0569 -0.3414  1.6103
65810SOL     OW 4544   7.457   4.096   4.479  0.3491 -0.1546  0.1895
65810SOL    HW1 4545   7.500   4.127   4.558  1.9060 -0.6344 -0.4473
65810SOL    HW2 4546   7.512   4.025   4.447 -2.0618 -2.3333  0.5324
65811SOL     OW 4547  12.434  10.981   1.379  0.0003  0.0270 -0.3098
65811SOL    HW1 4548  12.500  10.977   1.448 -0.4178 -1.8626  0.0436
65811SOL    HW2 4549  12.388  11.064   1.393 -0.1036 -0.3348  1.7061
65812SOL     OW 4550   6.310  11.645   3.410  0.1836  0.0718  0.2893
65812SOL    HW1 4551   6.273  11.692   3.335 -1.2272  1.5471  1.8060
65812SOL    HW2 4552   6.401  11.674   3.415  0.5358 -0.6500 -1.2547
65813SOL     OW 4553  12.179   0.687  11.026  0.1241  0.0628 -0.5638
65813SOL    HW1 4554  12.262   0.704  11.070 -1.2729  1.1238  1.9142
65813SOL    HW2 4555  12.164   0.593  11.039 -0.7537  0.4944  2.4714
65814SOL     OW 4556   0.355   9.091   2.698  0.9753  0.6056  0.7425
65814SOL    HW1 4557   0.379   9.059   2.611  0.0044 -0.2261  0.7619
65814SOL    HW2 4558   0.384   9.022   2.757 -0.6709 -0.0681  0.8307
65815SOL     OW 4559   1.744   2.204   4.564  0.2161  0.2174 -0.3050
65815SOL    HW1 4560   1.704   2.251   4.491 -1.3476  0.3197  0.5836
65815SOL    HW2 4561   1.716   2.113   4.552 -0.9335  0.4118  0.7156
65816SOL     OW 4562   9.064   9.447  11.265  0.1309  0.5562  0.1124
65816SOL    HW1 4563   8.987   9.440  11.208  1.0148  0.5337 -1.1123
65816SOL    HW2 4564   9.094   9.537  11.254  0.3614  0.5308  0.5052
65817SOL     OW 4565   8.781   9.234   6.326 -0.2768  0.3236 -0.1880
65817SOL    HW1 4566   8.729   9.284   6.389 -0.7902 -0.4911  0.0410
65817SOL    HW2 4567   8.865   9.281   6.322 -1.5987  2.7682 -1.9604
65818SOL     OW 4568   2.358   9.888   0.848  0.1904 -0.2755  0.7084
65818SOL    HW1 4569   2.313   9.967   0.878  0.3228  0.0855 -0.0144
65818SOL    HW2 4570   2.297   9.817   0.865  0.0976 -0.0360  1.4339
65819SOL     OW 4571   8.468   1.019   8.565  0.9009 -0.0366  0.2570
65819SOL    HW1 4572   8.518   1.095   8.535 -1.3923  1.5609  0.1053
65819SOL    HW2 4573   8.389   1.021   8.511  0.0178 -1.5240  1.4324
65820SOL     OW 4574   3.020   0.260   5.849  0.5568 -0.0553 -0.3414
65820SOL    HW1 4575   3.032   0.337   5.904  2.1258 -0.1238 -0.5401
65820SOL    HW2 4576   2.930   0.266   5.817  0.1140  0.7864  1.0047
65821SOL     OW 4577   8.301   0.212   6.865 -0.0469  0.0329  0.2629
65821SOL    HW1 4578   8.379   0.256   6.830 -0.6750  0.7586 -0.2744
65821SOL    HW2 4579   8.330   0.123   6.882  0.9415  0.3208  0.2094
65822SOL     OW 4580   0.825   4.788   8.471 -0.3052 -0.2747  0.1453
65822SOL    HW1 4581   0.864   4.775   8.558 -0.5372 -1.2461  0.1162
65822SOL    HW2 4582   0.738   4.749   8.477 -0.1012 -0.8984 -0.6930
65823SOL     OW 4583   7.847  11.356   3.509  0.3767  0.3715 -0.2764
65823SOL    HW1 4584   7.930  11.325   3.473 -0.2817 -1.0365 -0.6628
65823SOL    HW2 4585   7.784  11.342   3.439 -0.3012  0.8151  0.2381
65824SOL     OW 4586  11.720  10.997   9.743  0.4180 -0.3140 -0.0121
65824SOL    HW1 4587  11.702  11.087   9.716 -1.2842 -0.7769 -0.4913
65824SOL    HW2 4588  11.775  10.962   9.673  0.1040 -0.0106 -0.4180
65825SOL     OW 4589   8.050   0.536  10.367 -0.1455  0.3716  0.8350
65825SOL    HW1 4590   8.100   0.468  10.322  0.7382 -0.0905  2.4489
65825SOL    HW2 4591   7.959   0.521  10.341  0.2279 -0.4565 -0.0338
65826SOL     OW 4592   8.983   3.954   7.933  0.2148  0.4955 -0.1246
65826SOL    HW1 4593   8.987   4.048   7.951  0.0461  0.3681  0.6357
65826SOL    HW2 4594   9.071   3.922   7.955  0.9291  0.7815 -2.3546
65827SOL     OW 4595   8.440  10.689   0.168 -1.2402  0.1271  0.6150
65827SOL    HW1 4596   8.356  10.661   0.205 -0.8331 -0.7067  0.9318
65827SOL    HW2 4597   8.482  10.608   0.139 -0.5893  0.5489  0.3655
65828SOL     OW 4598   3.252  12.809  12.271  0.1696 -0.0589  0.0924
65828SOL    HW1 4599   3.188  12.865  12.226  0.3018 -1.2964 -1.7306
65828SOL    HW2 4600   3.198  12.752  12.326 -0.2204 -0.2749 -0.4967
65829SOL     OW 4601  10.429   0.587  12.298 -0.1578 -0.2349 -0.0366
65829SOL    HW1 4602  10.369   0.525  12.256  1.0763 -1.1259 -0.5393
65829SOL    HW2 4603  10.459   0.643  12.226  0.2004 -0.2957  0.0618
65830SOL     OW 4604  11.395  12.700   9.292  0.7686 -0.0397 -0.4933
65830SOL    HW1 4605  11.435  12.735   9.372  1.0079  0.1385 -0.6893
65830SOL    HW2 4606  11.317  12.754   9.280 -1.5675 -2.5621  1.8234
65831SOL     OW 4607  11.617  10.668   5.363 -0.4525 -0.1527 -0.1960
65831SOL    HW1 4608  11.641  10.605   5.430 -1.8179 -0.4680  0.0199
65831SOL    HW2 4609  11.701  10.699   5.328  0.3547  0.7528  2.3006
65832SOL     OW 4610   0.719   0.494   5.661  0.5571 -0.8004 -0.3578
65832SOL    HW1 4611   0.797   0.534   5.622  0.5175  0.1622  0.5141
65832SOL    HW2 4612   0.704   0.416   5.608  1.9233 -0.8381 -0.7477
65833SOL     OW 4613  11.913   5.567   2.213  0.3858 -0.1767 -0.2685
65833SOL    HW1 4614  11.978   5.547   2.280  0.5212  1.5270  0.1669
65833SOL    HW2 4615  11.842   5.506   2.229 -0.2179  1.0651  2.3903
65834SOL     OW 4616   0.510   5.585   4.819 -0.1322  0.8229 -0.1807
65834SOL    HW1 4617   0.537   5.676   4.826 -0.4926  0.8678  0.8956
65834SOL    HW2 4618   0.434   5.586   4.761  0.0983  1.1554 -0.4771
65835SOL     OW 4619  10.098   8.430   5.167  0.2294 -0.1734  0.2275
65835SOL    HW1 4620  10.022   8.374   5.155  0.5760 -0.9683  1.6193
65835SOL    HW2 4621  10.145   8.393   5.241  0.4166  2.0196  1.3053
65836SOL     OW 4622   2.781   5.007   1.859 -0.2011 -0.2830 -0.5361
65836SOL    HW1 4623   2.798   5.085   1.806  0.3268  0.2949  0.4520
65836SOL    HW2 4624   2.717   4.957   1.808 -0.3177  0.6404 -1.3318
65837SOL     OW 4625   0.978   3.677   3.360 -0.2409  0.1590  0.3769
65837SOL    HW1 4626   1.045   3.743   3.342 -0.1424 -0.0902 -0.1906
65837SOL    HW2 4627   1.020   3.616   3.420  0.6516 -0.9525 -1.3220
65838SOL     OW 4628   8.491   3.775   8.826 -0.4273 -0.1999 -1.2670
65838SOL    HW1 4629   8.568   3.803   8.876  0.1720 -0.3775 -2.0793
65838SOL    HW2 4630   8.416   3.809   8.876 -0.0198 -2.6566  1.3184
65839SOL     OW 4631   1.311   7.861   4.392 -0.0998 -0.3539  0.1637
65839SOL    HW1 4632   1.359   7.797   4.338 -0.9736  0.2797 -1.4398
65839SOL    HW2 4633   1.325   7.944   4.347 -1.3366  0.1003  0.5880
65840SOL     OW 4634  12.313  10.791  10.281  0.2440 -0.5298 -0.7978
65840SOL    HW1 4635  12.289  10.846  10.206 -1.1299  0.1019  0.0691
65840SOL    HW2 4636  12.407  10.807  10.293  0.3296 -0.0735 -1.9168
65841SOL     OW 4637   2.546   7.651   2.289 -0.3357  0.2147  0.5197
65841SOL    HW1 4638   2.465   7.610   2.260 -0.5442  0.4396  0.7820
65841SOL    HW2 4639   2.556   7.625   2.381  0.1254 -0.1806  0.3651
65842SOL     OW 4640   1.930   6.341  12.315 -0.0366  0.6998  0.3312
65842SOL    HW1 4641   1.951   6.248  12.309 -0.1478  0.6573  0.5760
65842SOL    HW2 4642   1.973   6.371  12.394  1.6828  1.3311 -0.7853
65843SOL     OW 4643   2.823  11.130   6.885 -0.8141  0.3566 -0.1073
65843SOL    HW1 4644   2.808  11.124   6.791 -1.3778  0.9473 -0.0603
65843SOL    HW2 4645   2.900  11.186   6.894 -0.9870  0.6133 -0.2087
65844SOL     OW 4646   2.363   0.625   4.835  0.0994 -0.1600 -0.6438
65844SOL    HW1 4647   2.327   0.697   4.887 -0.8904 -0.9531 -0.1900
65844SOL    HW2 4648   2.440   0.596   4.883 -0.6867 -0.7468  0.3104
65845SOL     OW 4649   8.386   8.890   3.235  0.1986 -0.0303  0.0542
65845SOL    HW1 4650   8.290   8.892   3.231 -0.0742 -2.6803  2.2691
65845SOL    HW2 4651   8.407   8.906   3.327  1.6858 -1.9142  0.1116
65846SOL     OW 4652   8.837  11.684   1.329 -0.0145  0.1544  0.2883
65846SOL    HW1 4653   8.847  11.721   1.416  0.1287 -2.2931  1.4012
65846SOL    HW2 4654   8.909  11.720   1.278  0.1059  1.3513  1.2708
65847SOL     OW 4655   7.151  12.281   5.480  0.1508  0.0841 -0.3273
65847SOL    HW1 4656   7.131  12.190   5.504  1.1829 -0.0323  0.1279
65847SOL    HW2 4657   7.121  12.333   5.554 -0.3500  0.1177 -0.5459
65848SOL     OW 4658   6.683   7.667   9.152 -0.1175  0.1625  0.1844
65848SOL    HW1 4659   6.619   7.703   9.213  1.3337  1.8846  0.7551
65848SOL    HW2 4660   6.729   7.600   9.203 -0.8532 -0.4624  0.0424
65849SOL     OW 4661   6.903   7.624   9.900 -0.2756 -0.2382  0.9462
65849SOL    HW1 4662   6.973   7.654   9.842  0.1324  1.4225  2.2246
65849SOL    HW2 4663   6.855   7.704   9.923 -3.0945 -1.3950 -0.4630
65850SOL     OW 4664   0.374   1.041  10.421  0.2327  0.5787  0.0042
65850SOL    HW1 4665   0.292   1.028  10.468  0.1481 -1.0501 -0.5217
65850SOL    HW2 4666   0.442   1.018  10.485  0.1477 -0.7801 -0.3522
65851SOL     OW 4667  12.837   8.182   5.298  0.7410  0.1102 -0.2198
65851SOL    HW1 4668  12.862   8.184   5.390  0.0390 -0.7177  0.0089
65851SOL    HW2 4669  12.902   8.125   5.257 -1.2173 -2.9470  0.5743
65852SOL     OW 4670   0.218   5.638   1.215 -0.1940 -0.1248  0.5274
65852SOL    HW1 4671   0.208   5.720   1.263 -1.3222  0.4159 -0.5721
65852SOL    HW2 4672   0.292   5.653   1.157 -0.3543  0.0974  0.3781
65853SOL     OW 4673   7.603   0.633   8.542 -0.5878 -0.4276 -0.1340
65853SOL    HW1 4674   7.681   0.688   8.543 -0.4297 -0.5672 -1.9791
65853SOL    HW2 4675   7.596   0.600   8.632  0.7291  0.6089  0.3824
65854SOL     OW 4676  11.665   1.382  10.459  0.2153 -0.2004 -0.5106
65854SOL    HW1 4677  11.736   1.413  10.402 -0.2579 -0.9402 -1.5275
65854SOL    HW2 4678  11.591   1.370  10.401 -0.6365  0.1310  0.4712
65855SOL     OW 4679   6.231  12.362   4.538 -0.5942  0.6827  0.0801
65855SOL    HW1 4680   6.179  12.388   4.462 -0.1458  1.8283  0.1583
65855SOL    HW2 4681   6.235  12.440   4.593  1.0002  0.5431  0.2002
65856SOL     OW 4682  11.461  10.132  12.277 -0.3556  0.0155 -0.3815
65856SOL    HW1 4683  11.439  10.193  12.206  1.9443  0.9064 -0.4259
65856SOL    HW2 4684  11.497  10.188  12.346  1.2676 -1.2057 -0.1789
65857SOL     OW 4685  12.115   7.122  11.131  0.7440 -0.7760  0.7397
65857SOL    HW1 4686  12.152   7.079  11.054  1.8704  1.9814 -0.3750
65857SOL    HW2 4687  12.033   7.075  11.148  0.3291 -1.3420 -2.2997
65858SOL     OW 4688   3.090   1.777   2.921  0.5647  0.3317 -0.2513
65858SOL    HW1 4689   3.056   1.825   2.996 -1.2586 -0.6952 -0.3809
65858SOL    HW2 4690   3.156   1.718   2.958 -0.7695 -0.6258  0.6700
65859SOL     OW 4691   1.104   2.598   6.696 -0.1622  0.2351  0.1290
65859SOL    HW1 4692   1.028   2.648   6.667 -0.5620 -0.2427  0.3429
65859SOL    HW2 4693   1.170   2.664   6.717 -0.6240  0.6636  0.2423
65860SOL     OW 4694   5.747  11.292   5.327  0.4561  0.0307 -0.6091
65860SOL    HW1 4695   5.725  11.385   5.333  1.5580  0.3279 -0.8075
65860SOL    HW2 4696   5.663  11.247   5.318 -0.1295  0.9525  0.1032
65861SOL     OW 4697  12.636   1.100  10.336 -0.4222  0.3028 -0.5143
65861SOL    HW1 4698  12.637   1.022  10.391 -0.1553 -1.0262 -2.3245
65861SOL    HW2 4699  12.722   1.101  10.295 -0.1789  1.9501 -0.0283
65862SOL     OW 4700   6.337   1.458   4.089  0.2074 -0.1988  0.0607
65862SOL    HW1 4701   6.342   1.424   4.179 -2.5940 -1.2789 -0.0675
65862SOL    HW2 4702   6.264   1.520   4.092 -2.1421 -2.5916 -1.9874
65863SOL     OW 4703   8.063   9.227   1.977  0.3353 -0.0451  0.7551
65863SOL    HW1 4704   8.093   9.203   1.890  0.0720 -0.8928  0.8838
65863SOL    HW2 4705   8.035   9.144   2.016 -2.7047  0.7178  0.4292
65864SOL     OW 4706   0.619   7.930   5.390  0.0378 -0.0250  0.4097
65864SOL    HW1 4707   0.698   7.942   5.444 -0.3536 -0.3464  1.0581
65864SOL    HW2 4708   0.561   7.878   5.444 -1.1442  1.2768  0.4450
65865SOL     OW 4709  10.996   8.241   2.631 -0.2474 -0.1560  0.3880
65865SOL    HW1 4710  11.085   8.274   2.634 -0.3674  0.3906 -1.2488
65865SOL    HW2 4711  10.968   8.253   2.541 -1.9021 -0.5415  0.8028
65866SOL     OW 4712   0.840  12.060  12.055  0.2067 -0.2445 -0.2225
65866SOL    HW1 4713   0.859  12.147  12.091 -2.5508  0.4769 -0.2867
65866SOL    HW2 4714   0.775  12.076  11.986 -0.9041 -2.3808  0.2375
65867SOL     OW 4715   2.348  12.682  11.612 -0.4893 -0.8171 -0.0688
65867SOL    HW1 4716   2.344  12.775  11.590 -0.1969 -0.1676  2.3953
65867SOL    HW2 4717   2.437  12.655  11.589  0.1180  0.0767  1.1448
65868SOL     OW 4718   8.326  12.324  10.329  0.3737  0.2231  0.3747
65868SOL    HW1 4719   8.312  12.245  10.381  1.1093 -0.1543  0.0233
65868SOL    HW2 4720   8.421  12.328  10.318  0.2378  0.3071 -0.8944
65869SOL     OW 4721   0.761   6.383   1.702  1.0459 -0.7719  0.0378
65869SOL    HW1 4722   0.827   6.389   1.633  1.1046 -0.0112  0.1526
65869SOL    HW2 4723   0.716   6.468   1.700 -0.0523 -1.3458 -0.1591
65870SOL     OW 4724   9.796   8.429   2.413  1.0906  0.1259  0.4212
65870SOL    HW1 4725   9.800   8.509   2.466 -2.3163  0.9497 -0.3227
65870SOL    HW2 4726   9.771   8.460   2.326 -0.8164 -1.7287  0.2305
65871SOL     OW 4727   5.024   2.440  10.783 -0.3668  0.3785  0.2337
65871SOL    HW1 4728   5.109   2.405  10.809 -1.1698 -0.4697  1.9015
65871SOL    HW2 4729   5.027   2.533  10.807 -0.5780 -0.0800  2.2431
65872SOL     OW 4730   4.919  10.327   8.668 -0.5274  0.5255  0.1565
65872SOL    HW1 4731   4.851  10.289   8.613  0.0138  0.8520 -0.7661
65872SOL    HW2 4732   4.975  10.254   8.691 -0.9177  0.3374  0.5126
65873SOL     OW 4733   1.380   1.252  11.456  0.2396  0.0977 -0.0225
65873SOL    HW1 4734   1.445   1.309  11.414  0.0368  0.3251 -0.0293
65873SOL    HW2 4735   1.300   1.264  11.404 -0.5407  1.7448  1.4673
65874SOL     OW 4736   0.117   3.098   7.977 -0.3230 -0.6273 -0.0114
65874SOL    HW1 4737   0.081   3.117   8.064 -1.0858 -4.2138  0.5993
65874SOL    HW2 4738   0.042   3.069   7.926  0.4540 -0.4143 -1.3215
65875SOL     OW 4739   8.332   9.413   1.744 -0.3459 -0.2932  0.2866
65875SOL    HW1 4740   8.388   9.386   1.816  2.8377  0.4546 -1.6740
65875SOL    HW2 4741   8.265   9.469   1.784  0.8409 -0.4966  2.6980
65876SOL     OW 4742   1.606   9.851   5.854 -0.3486 -0.1522  0.3241
65876SOL    HW1 4743   1.550   9.834   5.778  1.1033  1.2875 -1.1360
65876SOL    HW2 4744   1.581   9.938   5.883  1.5451  0.8368 -0.8145
65877SOL     OW 4745   5.986   3.569   0.025 -0.0039  0.3640  1.3096
65877SOL    HW1 4746   5.922   3.600   0.089 -0.0691 -1.5239  2.2161
65877SOL    HW2 4747   6.044   3.511   0.074  0.9916  0.2122  0.0167
65878SOL     OW 4748   0.355   4.938   6.989  0.3435 -0.1069 -0.3798
65878SOL    HW1 4749   0.325   5.000   7.055 -0.4466  0.4431 -1.2253
65878SOL    HW2 4750   0.282   4.877   6.978  0.3300  0.0113 -0.9846
65879SOL     OW 4751   3.202  11.994   6.917  0.5040 -0.0429 -0.0035
65879SOL    HW1 4752   3.188  11.904   6.946  2.4889 -1.0337 -1.8150
65879SOL    HW2 4753   3.193  11.990   6.822  0.6168  1.6931 -0.1208
65880SOL     OW 4754   5.984  11.070   3.928  0.3926 -0.0989 -0.4122
65880SOL    HW1 4755   5.895  11.050   3.958  0.5879  0.2317  0.4001
65880SOL    HW2 4756   6.039  11.003   3.968  0.5532 -0.1331 -0.6864
65881SOL     OW 4757  11.056   8.631  12.852  0.4055 -0.3799 -0.2415
65881SOL    HW1 4758  10.981   8.617  12.910  0.8381  0.1444  0.4592
65881SOL    HW2 4759  11.044   8.567  12.782 -0.3506 -0.7429  0.2029
65882SOL     OW 4760  12.060  10.096  10.396  0.3737  0.4701 -0.1216
65882SOL    HW1 4761  11.999  10.064  10.330 -0.9722  2.0152  0.3329
65882SOL    HW2 4762  12.104  10.170  10.355 -1.5403  2.4082  1.1237
65883SOL     OW 4763   0.029   3.053   0.678  0.1137 -0.5920 -0.1293
65883SOL    HW1 4764   0.016   2.984   0.744  1.1916 -0.4015  0.2924
65883SOL    HW2 4765   0.117   3.038   0.644 -0.1857 -0.2872 -1.0726
65884SOL     OW 4766   4.828   3.511   1.055 -0.0022  0.1530 -0.6762
65884SOL    HW1 4767   4.795   3.494   1.143  0.8472  0.3796 -0.3018
65884SOL    HW2 4768   4.910   3.462   1.050 -0.0545  0.1236 -1.3480
65885SOL     OW 4769   8.137  12.794   4.445 -0.1354 -0.4317  0.3822
65885SOL    HW1 4770   8.081  12.819   4.372 -0.8635 -0.3391  0.9525
65885SOL    HW2 4771   8.171  12.877   4.479 -0.3353 -0.4240  0.5636
65886SOL     OW 4772   4.924   3.178   3.954 -0.5585  0.2445 -0.0915
65886SOL    HW1 4773   4.981   3.210   3.884 -1.7202  3.9832  0.4990
65886SOL    HW2 4774   4.862   3.120   3.910  0.5976  0.0931 -1.5836
65887SOL     OW 4775   3.639   7.927  11.541 -0.6051  0.2537  0.7066
65887SOL    HW1 4776   3.633   7.983  11.463 -0.0775  1.1319  1.2831
65887SOL    HW2 4777   3.668   7.842  11.508  0.0048  0.7344 -0.0025
65888SOL     OW 4778   9.478   2.483   1.290  0.2837  0.5012 -0.2750
65888SOL    HW1 4779   9.398   2.432   1.298 -0.1889  1.1342 -0.9001
65888SOL    HW2 4780   9.475   2.545   1.363  1.5695 -1.2686  1.3861
65889SOL     OW 4781   6.111  10.641   9.428 -0.2011  0.1120 -0.0881
65889SOL    HW1 4782   6.169  10.710   9.461  0.2665 -0.3414  0.0676
65889SOL    HW2 4783   6.043  10.633   9.494 -2.5582  3.0891 -1.8722
65890SOL     OW 4784  12.336  11.335   4.397  0.3427  0.0359  0.0552
65890SOL    HW1 4785  12.367  11.425   4.407 -0.7424  0.4738 -0.4168
65890SOL    HW2 4786  12.247  11.344   4.363  0.7463 -1.2352 -1.4370
65891SOL     OW 4787   3.177   0.386  11.343  0.0862  0.1501  0.1588
65891SOL    HW1 4788   3.082   0.388  11.347 -0.0037 -0.9753 -0.8796
65891SOL    HW2 4789   3.205   0.355  11.429 -0.3741  1.9922  1.0292
65892SOL     OW 4790   8.370   1.263   4.141 -0.0347  0.3887  0.0535
65892SOL    HW1 4791   8.374   1.254   4.236  0.9903  0.2217  0.0038
65892SOL    HW2 4792   8.435   1.202   4.108 -1.3974 -0.6415 -0.8457
65893SOL     OW 4793   4.646   0.588   3.961  0.1013 -0.3993  0.1553
65893SOL    HW1 4794   4.603   0.504   3.945 -0.3025 -0.6112  2.1191
65893SOL    HW2 4795   4.630   0.639   3.881 -2.1775 -1.1543  0.0551
65894SOL     OW 4796   7.067  11.961  10.828 -0.8132  0.5382 -0.4093
65894SOL    HW1 4797   7.109  12.041  10.797 -0.0874 -0.5398 -2.4083
65894SOL    HW2 4798   7.139  11.900  10.842 -1.4494 -0.1617 -0.0957
65895SOL     OW 4799   5.428   8.325  11.067  0.3885  0.4424 -0.6002
65895SOL    HW1 4800   5.454   8.318  11.159 -2.5305  0.8050  0.3599
65895SOL    HW2 4801   5.346   8.375  11.069  0.0123  0.0969 -3.3750
65896SOL     OW 4802   6.814   4.614   0.853 -0.2738 -0.1438  0.3029
65896SOL    HW1 4803   6.845   4.640   0.940  0.3473  1.3968 -0.3509
65896SOL    HW2 4804   6.740   4.672   0.836 -1.2414 -1.3385  0.3290
65897SOL     OW 4805   0.506   0.811   1.958 -0.1175  0.2046 -0.0415
65897SOL    HW1 4806   0.498   0.839   2.049  1.8000 -0.4478  0.3636
65897SOL    HW2 4807   0.536   0.720   1.963 -1.0780 -0.2073 -1.3349
65898SOL     OW 4808   2.628  11.407   5.361  0.5227  0.0251 -0.3128
65898SOL    HW1 4809   2.613  11.348   5.287  0.7086  1.0765 -1.2175
65898SOL    HW2 4810   2.547  11.404   5.411  0.1111 -0.1212 -0.9761
65899SOL     OW 4811   6.588   9.934   1.606  0.0261 -0.3382  0.1582
65899SOL    HW1 4812   6.663   9.971   1.560 -0.1824 -0.0954  0.0112
65899SOL    HW2 4813   6.526   9.910   1.536 -0.2962  0.0448  0.3107
65900SOL     OW 4814   3.568  11.121   9.752  0.1263 -0.2036 -0.3915
65900SOL    HW1 4815   3.575  11.213   9.776 -0.8461 -1.0484  3.8905
65900SOL    HW2 4816   3.490  11.116   9.697 -1.1350  1.3028  1.1608
65901SOL     OW 4817   9.211   9.750  11.550  0.4475  0.3182 -0.5706
65901SOL    HW1 4818   9.294   9.793  11.569 -0.2070  1.3216  0.1680
65901SOL    HW2 4819   9.193   9.769  11.458  1.0603  0.0358 -0.7511
65902SOL     OW 4820   8.558  12.792   7.773 -0.4246  0.3372 -0.6037
65902SOL    HW1 4821   8.612  12.831   7.841 -2.6702  0.8658  1.0163
65902SOL    HW2 4822   8.609  12.718   7.741  1.3747  1.0079  0.5480
65903SOL     OW 4823   9.456  11.495   0.464  0.0670 -0.4570 -0.3964
65903SOL    HW1 4824   9.488  11.449   0.386  0.9766  1.7603 -1.4339
65903SOL    HW2 4825   9.536  11.523   0.509 -0.4542  0.2952  0.0661
65904SOL     OW 4826   4.605   2.044   7.302 -0.1966 -0.1040  0.5218
65904SOL    HW1 4827   4.593   2.084   7.388  1.5436 -0.6807  1.0808
65904SOL    HW2 4828   4.630   1.954   7.321 -0.6147 -0.4820 -0.6330
65905SOL     OW 4829   1.932   5.311   7.977 -0.2967 -0.1239 -0.2796
65905SOL    HW1 4830   1.852   5.336   7.930  1.2490  1.9155 -1.9772
65905SOL    HW2 4831   1.981   5.392   7.985  2.4257 -1.6107 -0.8787
65906SOL     OW 4832   6.117   6.592  10.549  0.2482 -0.2126 -0.3958
65906SOL    HW1 4833   6.200   6.552  10.574  0.1816 -0.5874 -0.7622
65906SOL    HW2 4834   6.112   6.578  10.454  0.7228  1.5787 -0.7224
65907SOL     OW 4835   3.221   6.381   2.780 -0.1805  0.5114 -0.5825
65907SOL    HW1 4836   3.316   6.389   2.781  0.0382 -1.3794 -1.2818
65907SOL    HW2 4837   3.197   6.356   2.869 -0.0656  1.3589 -0.3138
65908SOL     OW 4838   6.782  11.043   6.264  0.2185 -0.7508  0.1452
65908SOL    HW1 4839   6.842  11.096   6.212 -0.1401 -0.7506 -0.2712
65908SOL    HW2 4840   6.832  11.019   6.342  0.1247  0.8662  0.7290
65909SOL     OW 4841  11.505   5.550   0.990  0.0647 -0.3993  0.4518
65909SOL    HW1 4842  11.541   5.562   1.078 -0.5954 -1.3558  0.8673
65909SOL    HW2 4843  11.429   5.609   0.987  2.5730  3.1119 -1.0891
65910SOL     OW 4844   0.308   0.568  10.532  0.0457  0.1522 -0.4908
65910SOL    HW1 4845   0.257   0.634  10.578 -0.8966 -1.4229  0.8220
65910SOL    HW2 4846   0.246   0.498  10.512  1.0607 -0.4834 -1.5878
65911SOL     OW 4847   9.988   6.472   5.683  0.4675 -0.3715 -0.6522
65911SOL    HW1 4848  10.008   6.379   5.669  1.1136 -0.4317  0.4987
65911SOL    HW2 4849   9.920   6.471   5.751  1.3725  0.0170  0.2765
65912SOL     OW 4850   7.536  11.490  10.063 -0.2787  0.1005 -0.4951
65912SOL    HW1 4851   7.514  11.410  10.112 -1.1110  0.2470 -0.6068
65912SOL    HW2 4852   7.452  11.521  10.030 -0.1371  1.6901  0.5409
65913SOL     OW 4853  12.435   9.737   0.257 -0.0168 -0.0441 -0.1551
65913SOL    HW1 4854  12.526   9.711   0.240 -0.0122  0.4467 -0.9145
65913SOL    HW2 4855  12.409   9.787   0.180 -1.2828 -1.0527 -0.4084
65914SOL     OW 4856   7.410   5.359   0.719  0.2919  0.4600  0.4101
65914SOL    HW1 4857   7.472   5.425   0.688 -0.5831 -0.0313 -2.6624
65914SOL    HW2 4858   7.338   5.362   0.657 -0.6584 -2.1138  1.2361
65915SOL     OW 4859   8.420   0.922   4.493 -0.0403 -0.2062 -0.1081
65915SOL    HW1 4860   8.395   0.866   4.567  1.7642  0.9870  1.4766
65915SOL    HW2 4861   8.480   0.868   4.442 -0.3420 -0.6048 -0.0552
65916SOL     OW 4862  12.007  10.307   7.496 -0.9681  0.2774  0.2140
65916SOL    HW1 4863  12.086  10.276   7.452 -0.5427 -0.8696  1.7063
65916SOL    HW2 4864  11.943  10.237   7.483 -1.5896  0.9535 -0.5081
65917SOL     OW 4865  12.733   1.029  10.657 -0.4761 -0.2000  0.0383
65917SOL    HW1 4866  12.668   0.976  10.611 -0.1420  0.3044 -1.0302
65917SOL    HW2 4867  12.815   0.980  10.649 -0.2988  0.1615 -0.4075
65918SOL     OW 4868   9.838   2.807  12.250  0.1180  0.4787  0.2551
65918SOL    HW1 4869   9.832   2.841  12.339 -4.2359 -0.0230  0.3613
65918SOL    HW2 4870   9.866   2.716  12.261  2.0959  1.1067  0.8028
65919SOL     OW 4871   8.780   7.994   6.660 -0.1254 -0.1200  0.5270
65919SOL    HW1 4872   8.754   8.059   6.726  3.1050  1.4079  0.4682
65919SOL    HW2 4873   8.702   7.982   6.606 -2.0226  0.6823  2.8880
65920SOL     OW 4874   0.485  10.168  11.603  0.9157 -0.4970 -0.1516
65920SOL    HW1 4875   0.532  10.249  11.622  1.0210 -0.6409  0.2237
65920SOL    HW2 4876   0.399  10.197  11.572  1.1092 -0.2388 -0.4508
65921SOL     OW 4877   5.638   1.631   0.401  0.0892  0.0603 -0.3848
65921SOL    HW1 4878   5.693   1.691   0.451  0.8126 -1.5277  0.7937
65921SOL    HW2 4879   5.698   1.586   0.342  0.0643 -1.4473  0.6776
65922SOL     OW 4880   2.402   3.180   2.406 -0.3136  1.0425  0.2935
65922SOL    HW1 4881   2.380   3.100   2.358 -1.8417 -1.3324  4.4086
65922SOL    HW2 4882   2.497   3.178   2.415 -0.3551 -0.6749  0.7245
65923SOL     OW 4883   5.688   5.965   8.303 -0.2747 -0.1259  0.0938
65923SOL    HW1 4884   5.780   5.968   8.279 -0.4068 -2.2692 -0.8804
65923SOL    HW2 4885   5.687   5.927   8.391 -0.2586 -1.4848 -0.4665
65924SOL     OW 4886  12.624   3.718   5.353  0.1534  0.5970  0.4684
65924SOL    HW1 4887  12.553   3.782   5.360 -1.9682 -1.3545 -1.5468
65924SOL    HW2 4888  12.626   3.676   5.439 -1.7786  0.1555  0.3633
65925SOL     OW 4889   0.338  10.425   1.856  0.6112  0.4271 -0.2524
65925SOL    HW1 4890   0.339  10.385   1.943 -0.8706  0.1793 -0.3240
65925SOL    HW2 4891   0.376  10.358   1.799 -0.1520 -0.1737 -0.0774
65926SOL     OW 4892  12.166   4.010   0.463  0.3221  0.8114  0.1896
65926SOL    HW1 4893  12.198   3.923   0.484  1.2744  0.5652 -2.0402
65926SOL    HW2 4894  12.187   4.063   0.540 -0.8825 -1.0242  1.8576
65927SOL     OW 4895   5.619   2.266   4.484  0.3611  0.2054 -0.6796
65927SOL    HW1 4896   5.609   2.171   4.476 -0.4732  0.4288 -3.7522
65927SOL    HW2 4897   5.544   2.293   4.538 -1.4710 -0.6319 -2.6503
65928SOL     OW 4898   5.260  10.120   5.735 -0.0262 -0.5966 -0.2405
65928SOL    HW1 4899   5.168  10.132   5.715 -0.0458 -1.2823 -0.5743
65928SOL    HW2 4900   5.262  10.089   5.825 -0.1102 -0.3995 -0.1717
65929SOL     OW 4901   4.582   3.288  11.508 -0.1111 -0.0500 -0.0738
65929SOL    HW1 4902   4.603   3.380  11.525 -0.3994  0.2761 -1.3368
65929SOL    HW2 4903   4.528   3.261  11.582  1.0338  0.4057  0.9686
65930SOL     OW 4904  11.930   3.174   3.528 -0.3998  0.0373 -0.4740
65930SOL    HW1 4905  11.911   3.252   3.579 -1.1369  0.1240 -0.8722
65930SOL    HW2 4906  11.949   3.206   3.440 -0.2766 -0.2014 -0.5366
65931SOL     OW 4907   3.714   9.151   1.048  0.5587 -0.2862  0.2420
65931SOL    HW1 4908   3.692   9.108   0.966  2.2891  0.6006 -0.7473
65931SOL    HW2 4909   3.770   9.089   1.095  2.8180  0.6290 -1.0582
65932SOL     OW 4910   7.748  11.229   1.058 -0.0687  0.5848 -0.0844
65932SOL    HW1 4911   7.706  11.189   0.982 -0.0035  1.1275 -0.4149
65932SOL    HW2 4912   7.698  11.310   1.072 -0.1526  0.4374  0.5228
65933SOL     OW 4913   8.389   3.291  10.823  0.2246  1.0000 -0.3341
65933SOL    HW1 4914   8.356   3.344  10.750 -1.7874 -0.2907 -0.4166
65933SOL    HW2 4915   8.444   3.225  10.781 -0.8747  0.3029 -0.7201
65934SOL     OW 4916   2.112   1.584   4.929 -0.2116 -0.4500  0.8028
65934SOL    HW1 4917   2.060   1.605   4.852  0.1495 -0.1342  0.6438
65934SOL    HW2 4918   2.116   1.666   4.979  1.1710 -0.1324  0.2000
65935SOL     OW 4919   9.814   7.577   6.197 -0.0477  0.8225 -0.1744
65935SOL    HW1 4920   9.725   7.551   6.220 -0.2585  1.7537  0.1123
65935SOL    HW2 4921   9.853   7.606   6.279  0.4790  0.5741 -0.3262
65936SOL     OW 4922   3.415   0.477  12.572  0.3820  0.0204  0.4232
65936SOL    HW1 4923   3.374   0.396  12.603 -0.9166  0.1108 -0.9612
65936SOL    HW2 4924   3.399   0.540  12.642  0.0553 -0.5111  0.8393
65937SOL     OW 4925   7.529   5.456  10.526 -0.0975  0.5571 -0.1161
65937SOL    HW1 4926   7.586   5.428  10.455 -0.7983 -0.0595 -0.4448
65937SOL    HW2 4927   7.558   5.545  10.545  1.0927  0.1929 -0.1440
65938SOL     OW 4928   8.567   7.750  10.122  0.0944  0.2576  0.5794
65938SOL    HW1 4929   8.473   7.752  10.141 -0.5500 -2.9495 -1.4820
65938SOL    HW2 4930   8.599   7.669  10.162  1.3495 -0.0566 -0.9309
65939SOL     OW 4931  12.697   1.656   1.703 -0.0089 -0.2113  0.3887
65939SOL    HW1 4932  12.621   1.713   1.689  0.1969 -0.1685 -0.6392
65939SOL    HW2 4933  12.715   1.619   1.617  1.3803  0.0893  0.5234
65940SOL     OW 4934   4.583   5.113   0.362  0.0560  0.9943 -0.0522
65940SOL    HW1 4935   4.593   5.019   0.347  0.0362  0.8844  0.6005
65940SOL    HW2 4936   4.527   5.120   0.439 -1.3540  1.5595 -1.0739
65941SOL     OW 4937   2.357   3.719   3.027 -0.1405 -0.0405  0.2394
65941SOL    HW1 4938   2.435   3.664   3.032 -0.4629 -0.4576  0.7290
65941SOL    HW2 4939   2.291   3.664   2.985  0.2519  0.8216 -1.6274
65942SOL     OW 4940   0.613   8.144   4.402 -0.2423  0.0678  0.0010
65942SOL    HW1 4941   0.627   8.231   4.439 -0.2690  0.1464 -0.1721
65942SOL    HW2 4942   0.561   8.098   4.469  0.8825 -0.2539  0.6751
65943SOL     OW 4943   2.563   7.291  11.356 -0.0726 -0.2017  0.0398
65943SOL    HW1 4944   2.480   7.334  11.339 -0.4197 -0.3522  1.3048
65943SOL    HW2 4945   2.569   7.223  11.288 -0.5041  0.4454 -0.6585
65944SOL     OW 4946   4.985   9.985   4.596  0.1022 -0.0133  0.3624
65944SOL    HW1 4947   5.066   9.935   4.595  0.7977  1.0858  0.4020
65944SOL    HW2 4948   5.002  10.060   4.539 -1.6450 -0.9026 -1.4833
65945SOL     OW 4949   6.745   1.492  12.609  0.2897  0.4241 -0.6490
65945SOL    HW1 4950   6.828   1.528  12.640  0.1916 -0.7996  1.1743
65945SOL    HW2 4951   6.764   1.460  12.520  2.0506 -0.6713  0.0679
65946SOL     OW 4952   4.331  10.727   5.403  0.1457  0.1040  0.4133
65946SOL    HW1 4953   4.398  10.793   5.384  0.7476 -1.4789 -4.4570
65946SOL    HW2 4954   4.376  10.663   5.458  0.4486  2.0800  2.6621
65947SOL     OW 4955   4.360   3.086   1.057 -0.2625 -0.7871  0.0315
65947SOL    HW1 4956   4.277   3.038   1.056 -0.3967 -0.5532 -0.4697
65947SOL    HW2 4957   4.338   3.173   1.023 -0.2143 -0.0381  1.8001
65948SOL     OW 4958   0.057   0.573   0.737  0.2164 -0.0290  0.1056
65948SOL    HW1 4959   0.077   0.480   0.745 -0.1866 -0.1330 -0.0762
65948SOL    HW2 4960   0.125   0.616   0.788  1.0256 -0.3670 -0.6453
65949SOL     OW 4961  11.768  11.407   9.326  0.0417 -0.6349  0.0865
65949SOL    HW1 4962  11.790  11.461   9.250 -1.9944 -1.3149 -1.0585
65949SOL    HW2 4963  11.766  11.469   9.399 -0.7333  0.5899 -0.9296
65950SOL     OW 4964   1.533   0.302  12.402  0.3726 -0.0152 -0.2228
65950SOL    HW1 4965   1.522   0.334  12.313  2.3299 -1.2690 -0.9762
65950SOL    HW2 4966   1.477   0.224  12.406 -0.5898  0.6596  0.0566
65951SOL     OW 4967   2.950   1.901   6.186 -0.1539  0.5276  0.0796
65951SOL    HW1 4968   2.933   1.983   6.139  1.5438  1.1391  0.4731
65951SOL    HW2 4969   2.906   1.913   6.270 -0.5103  0.7298 -0.1295
65952SOL     OW 4970   1.743  10.032   0.521 -0.3720  0.5959  0.3162
65952SOL    HW1 4971   1.765   9.942   0.500 -0.1101  0.3791  1.4377
65952SOL    HW2 4972   1.648  10.034   0.523 -0.3739  0.0941  1.2531
65953SOL     OW 4973  11.195   4.661   5.198 -0.0830 -0.1134 -0.2858
65953SOL    HW1 4974  11.224   4.672   5.289  0.8499 -1.0130 -0.4624
65953SOL    HW2 4975  11.188   4.566   5.187 -0.5513  0.0050 -1.0525
65954SOL     OW 4976   7.451   1.293   0.744  0.1128  0.2590 -0.1529
65954SOL    HW1 4977   7.435   1.223   0.808 -1.9001 -0.6536 -1.5548
65954SOL    HW2 4978   7.378   1.354   0.756  0.9474  1.2695 -0.0889
65955SOL     OW 4979   2.967   5.978   6.505 -0.5393  0.1027 -0.4040
65955SOL    HW1 4980   2.975   6.062   6.458 -1.7612 -0.0395 -0.8833
65955SOL    HW2 4981   3.042   5.927   6.474  2.5429  2.2829  2.7161
65956SOL     OW 4982   3.795   3.637   4.451  0.6578  0.1405 -0.6836
65956SOL    HW1 4983   3.791   3.610   4.543 -0.4572 -0.0880 -0.7816
65956SOL    HW2 4984   3.715   3.601   4.412  0.8953  0.6161 -1.6429
65957SOL     OW 4985   1.169   4.871   0.696 -0.2190  0.2666  0.7772
65957SOL    HW1 4986   1.181   4.797   0.755  0.4084 -0.9303 -0.7800
65957SOL    HW2 4987   1.078   4.897   0.708 -1.4187 -2.7555 -0.7861
65958SOL     OW 4988  10.736   3.131   3.727 -0.4562  0.1132  0.3255
65958SOL    HW1 4989  10.647   3.146   3.694 -0.5540 -0.7730  0.1805
65958SOL    HW2 4990  10.741   3.186   3.806 -1.4752 -0.5776  0.8951
65959SOL     OW 4991   0.810   5.455   5.847 -0.0557 -0.1714  0.3323
65959SOL    HW1 4992   0.889   5.419   5.888 -0.7095  0.1888  1.9908
65959SOL    HW2 4993   0.740   5.398   5.878 -0.5358 -0.1210 -0.6377
65960SOL     OW 4994   8.138   4.164  11.867 -0.2651  0.0064  0.0663
65960SOL    HW1 4995   8.050   4.143  11.898  0.3423 -0.4853  1.5445
65960SOL    HW2 4996   8.127   4.245  11.816 -1.6859 -0.5218 -0.5204
65961SOL     OW 4997   5.067   1.090   8.454 -0.0538 -0.2396 -0.9098
65961SOL    HW1 4998   5.074   0.998   8.480 -0.4978 -0.3732 -1.2344
65961SOL    HW2 4999   5.134   1.101   8.386  0.1736 -0.2552 -0.6872
65962SOL     OW 5000   2.459   7.308   8.566 -0.0774 -0.2535  0.2839
65962SOL    HW1 5001   2.371   7.331   8.595 -0.3015  0.8915 -1.1780
65962SOL    HW2 5002   2.518   7.355   8.625 -0.4441 -0.6403  0.9657
65963SOL     OW 5003   3.135   5.583   1.038  0.0760 -0.2458  0.1461
65963SOL    HW1 5004   3.098   5.568   1.125 -0.3257 -1.2457 -0.1934
65963SOL    HW2 5005   3.089   5.523   0.980  2.0385 -1.4152 -0.3271
65964SOL     OW 5006   3.116  10.214   6.476  0.1580  0.2906  0.2122
65964SOL    HW1 5007   3.079  10.139   6.523  0.3873  0.8120  1.2626
65964SOL    HW2 5008   3.097  10.197   6.384 -0.2608 -0.7935  0.4859
65965SOL     OW 5009   3.884  11.746  10.937  0.0236  0.9808  0.2294
65965SOL    HW1 5010   3.954  11.772  10.877  1.5090 -1.1012  0.9324
65965SOL    HW2 5011   3.804  11.752  10.885  0.7485  3.0343 -0.7257
65966SOL     OW 5012  10.922   2.204   4.747  0.3280 -0.3373 -0.4153
65966SOL    HW1 5013  10.985   2.201   4.819 -0.4534 -1.5407  0.2626
65966SOL    HW2 5014  10.956   2.142   4.683  1.7252  1.6886 -1.7611
65967SOL     OW 5015   3.266  12.539   1.563  0.1553  0.4351  1.0187
65967SOL    HW1 5016   3.277  12.611   1.625  1.4529  0.8357  0.3670
65967SOL    HW2 5017   3.172  12.522   1.562 -0.1086  1.7512  1.5949
65968SOL     OW 5018   1.190   2.041   1.670 -0.3127  0.0466 -0.7458
65968SOL    HW1 5019   1.163   2.096   1.597 -0.3383 -0.0711 -0.8265
65968SOL    HW2 5020   1.208   2.102   1.741 -1.1639  0.0994 -0.5664
65969SOL     OW 5021  12.746   6.656   1.784  0.0637  0.4338  0.1659
65969SOL    HW1 5022  12.692   6.657   1.705  0.3263 -1.8791 -0.1108
65969SOL    HW2 5023  12.752   6.563   1.808  4.1746  0.4637 -0.0276
65970SOL     OW 5024   3.145   2.929  12.387  0.3267  0.2496  0.1548
65970SOL    HW1 5025   3.146   2.853  12.445 -0.6833  0.3747  0.3557
65970SOL    HW2 5026   3.053   2.957  12.384  0.7082  1.6186  0.2872
65971SOL     OW 5027   3.057   1.954  12.969 -0.0895  0.0515  0.5290
65971SOL    HW1 5028   3.105   1.972  12.888  1.5980 -0.7796  1.2815
65971SOL    HW2 5029   3.076   1.862  12.988 -1.4491 -0.1086  1.2396
65972SOL     OW 5030   1.367   0.843  12.291  0.6035  0.1888 -0.0344
65972SOL    HW1 5031   1.334   0.873  12.376  2.7517  2.3783  0.1317
65972SOL    HW2 5032   1.431   0.775  12.314  0.4194  0.0331  0.0221
65973SOL     OW 5033   2.653  11.447  11.313  0.7994  0.0092 -0.0709
65973SOL    HW1 5034   2.651  11.414  11.403  1.4176  3.2665  1.2597
65973SOL    HW2 5035   2.743  11.432  11.284  1.4552  1.6335  1.0178
65974SOL     OW 5036   0.461  10.843   9.500  0.1867  0.0362  0.6828
65974SOL    HW1 5037   0.511  10.821   9.580 -0.6474  0.0092  1.2057
65974SOL    HW2 5038   0.472  10.938   9.491 -0.4680  0.1842  1.3544
65975SOL     OW 5039   1.333   5.407   1.218  0.2558 -0.0344 -0.5688
65975SOL    HW1 5040   1.402   5.460   1.257 -0.5384  0.3712  0.3352
65975SOL    HW2 5041   1.313   5.341   1.285  0.0014 -0.3649 -0.9624
65976SOL     OW 5042   4.061   6.209  10.486 -0.4956  0.3753 -0.3081
65976SOL    HW1 5043   4.019   6.174  10.565 -0.0960  0.4618 -0.0575
65976SOL    HW2 5044   4.076   6.302  10.505 -0.3167  0.3766 -0.4523
65977SOL     OW 5045   1.849   4.061   1.386  0.3315  0.0190 -0.0858
65977SOL    HW1 5046   1.819   3.975   1.416  0.3615  0.0242 -0.0420
65977SOL    HW2 5047   1.944   4.060   1.399  0.5521 -0.5453 -1.5983
65978SOL     OW 5048  11.369   0.063   1.639 -0.1914  0.1244  0.6266
65978SOL    HW1 5049  11.294   0.005   1.625 -0.6300  0.3744  1.8579
65978SOL    HW2 5050  11.406   0.075   1.551 -1.0741 -0.6881  0.1228
65979SOL     OW 5051  10.718  10.589   0.670 -0.0244  0.3429 -0.2203
65979SOL    HW1 5052  10.759  10.532   0.735 -1.1397 -0.7077 -0.4159
65979SOL    HW2 5053  10.745  10.678   0.696  1.4599 -0.2172  0.2888
65980SOL     OW 5054  10.863   4.233   7.649 -0.0700 -0.1521 -0.3914
65980SOL    HW1 5055  10.879   4.264   7.739 -1.4851  0.1798 -0.2235
65980SOL    HW2 5056  10.835   4.142   7.660 -0.0128 -0.1840 -0.5161
65981SOL     OW 5057   0.658   9.971   8.062 -0.1973 -0.0589  0.5714
65981SOL    HW1 5058   0.619   9.987   8.148 -0.5279  3.5887 -0.0839
65981SOL    HW2 5059   0.583   9.965   8.003  0.0678  1.0755  0.0995
65982SOL     OW 5060  12.060   1.842   2.566 -0.1305  0.0148 -0.2283
65982SOL    HW1 5061  12.020   1.929   2.572 -0.7735 -0.2727 -0.2138
65982SOL    HW2 5062  12.082   1.819   2.657  0.8193  0.5049 -0.3195
65983SOL     OW 5063   6.389   0.227  12.069  0.3835  0.3673  0.4298
65983SOL    HW1 5064   6.446   0.236  11.993 -0.3041  1.0584 -0.0177
65983SOL    HW2 5065   6.383   0.133  12.083 -0.5321  0.1535 -1.1892
65984SOL     OW 5066   7.063   3.815   3.300  0.9395  0.4001 -0.3586
65984SOL    HW1 5067   7.057   3.721   3.317  1.0382  0.4234 -0.1922
65984SOL    HW2 5068   7.049   3.855   3.385 -0.4383  0.5834 -0.6584
65985SOL     OW 5069   4.219   6.490   4.224 -0.2311  0.7662  0.2006
65985SOL    HW1 5070   4.222   6.399   4.256  1.9331  0.5715 -0.3937
65985SOL    HW2 5071   4.137   6.525   4.259 -1.4278 -1.5842 -0.0388
65986SOL     OW 5072   9.891   7.057  11.433 -0.1354 -0.2824 -0.1720
65986SOL    HW1 5073   9.910   7.150  11.447 -0.5332 -0.2316  0.0254
65986SOL    HW2 5074   9.940   7.012  11.502 -1.4503 -0.0880  0.9144
65987SOL     OW 5075   9.545   7.590   5.072 -0.3796 -0.4359 -0.2827
65987SOL    HW1 5076   9.573   7.634   5.152 -0.1690  0.4873 -0.8423
65987SOL    HW2 5077   9.458   7.557   5.092 -0.2105 -0.4745  0.4226
65988SOL     OW 5078   0.422  10.652  12.150 -0.0866  0.1737  0.2554
65988SOL    HW1 5079   0.368  10.595  12.094 -0.2182 -0.7660  1.2937
65988SOL    HW2 5080   0.462  10.592  12.213  0.5411  1.1315  0.7896
65989SOL     OW 5081   2.067   4.896  10.895  0.2699  0.3551  0.4108
65989SOL    HW1 5082   1.977   4.874  10.873  0.0032  1.3917  0.4506
65989SOL    HW2 5083   2.102   4.816  10.935 -0.2756 -0.4248 -0.6284
65990SOL     OW 5084   9.451   2.057   3.317 -0.4507  0.6964  0.2073
65990SOL    HW1 5085   9.538   2.047   3.279  0.3039 -1.1990  2.1873
65990SOL    HW2 5086   9.391   2.035   3.246  0.6297  2.0648 -1.2011
65991SOL     OW 5087  11.507   6.437   7.113 -0.3140 -0.3966 -0.2269
65991SOL    HW1 5088  11.542   6.386   7.040  0.3244  1.4245 -1.2895
65991SOL    HW2 5089  11.496   6.525   7.076 -2.2998  0.0263  1.2105
65992SOL     OW 5090   1.834   9.247  10.331 -0.6060  0.4212 -0.3900
65992SOL    HW1 5091   1.833   9.211  10.419  1.1204 -2.0253 -1.2572
65992SOL    HW2 5092   1.896   9.192  10.283 -1.1249  1.9406 -3.0232
65993SOL     OW 5093  12.676   5.307   2.873 -0.5695 -0.3213  0.2702
65993SOL    HW1 5094  12.622   5.382   2.851 -1.5130 -0.9173  0.5158
65993SOL    HW2 5095  12.708   5.326   2.961  0.3882  0.4545 -0.2279
65994SOL     OW 5096   4.104   7.760   7.990 -0.1426 -0.4619 -0.4413
65994SOL    HW1 5097   4.073   7.787   8.076 -0.1613 -1.0311 -0.2627
65994SOL    HW2 5098   4.096   7.664   7.991  3.9969 -0.9914  0.5585
65995SOL     OW 5099   6.962   7.167   1.724 -0.0765  0.2969  0.5130
65995SOL    HW1 5100   6.963   7.261   1.707  1.9163  0.3026  0.3771
65995SOL    HW2 5101   6.870   7.143   1.721 -0.7310  2.4179  1.6535
65996SOL     OW 5102   2.325   8.872   8.100  0.0452  0.1951  0.3857
65996SOL    HW1 5103   2.310   8.786   8.062  1.8693 -0.4459  0.9931
65996SOL    HW2 5104   2.324   8.932   8.025  0.1001 -0.5422 -0.2151
65997SOL     OW 5105  12.779   4.080  12.890  0.3628  0.2982 -0.2240
65997SOL    HW1 5106  12.690   4.070  12.922  0.7290  0.1678  0.7874
65997SOL    HW2 5107  12.801   4.172  12.907  1.0012 -0.0718  1.1379
65998SOL     OW 5108  12.641   3.568   4.254  0.3337 -0.1220  0.1871
65998SOL    HW1 5109  12.599   3.582   4.170 -0.2930 -0.3665  0.4581
65998SOL    HW2 5110  12.577   3.520   4.306 -0.6956  2.9673  2.0083
65999SOL     OW 5111  10.100   7.983   1.067 -0.3108  0.4669  0.3159
65999SOL    HW1 5112  10.145   7.904   1.095 -1.3157  0.3920  1.8929
65999SOL    HW2 5113  10.009   7.970   1.094 -0.7590  1.6533 -0.4937
66000SOL     OW 5114   0.177   3.734   0.828  0.3197 -0.3772 -0.3978
66000SOL    HW1 5115   0.084   3.715   0.824  0.3328 -0.4213 -0.4823
66000SOL    HW2 5116   0.184   3.809   0.888  0.1857 -0.0494 -0.7920
66001SOL     OW 5117   0.172   6.604   0.213 -0.1448 -0.1425 -0.0972
66001SOL    HW1 5118   0.085   6.610   0.252  0.3490  0.2772  0.9763
66001SOL    HW2 5119   0.196   6.512   0.221 -1.2106 -0.6711 -2.0865
66002SOL     OW 5120   0.209   5.759   6.884 -0.0763 -0.4410 -0.6781
66002SOL    HW1 5121   0.233   5.690   6.947  2.7244  2.0382  1.2316
66002SOL    HW2 5122   0.116   5.774   6.899  0.0810 -1.2912  1.5328
66003SOL     OW 5123   7.168   6.289   4.737 -0.0406 -0.4377 -0.2725
66003SOL    HW1 5124   7.199   6.203   4.710 -1.4432 -0.9262 -0.3922
66003SOL    HW2 5125   7.073   6.278   4.750 -0.3278  1.1910 -0.7503
66004SOL     OW 5126   4.727   6.892   7.230 -0.1608  0.1366 -0.6073
66004SOL    HW1 5127   4.763   6.883   7.319 -1.8418 -1.8440 -0.0422
66004SOL    HW2 5128   4.782   6.958   7.189  1.7688 -0.1141  1.3455
66005SOL     OW 5129   1.452   7.400   6.098 -0.0352  0.9910  0.5284
66005SOL    HW1 5130   1.376   7.368   6.049  0.5502  1.0131 -0.4308
66005SOL    HW2 5131   1.463   7.338   6.170  0.3496 -0.3000 -0.5944
66006SOL     OW 5132   7.456   7.095  12.330 -0.8176  0.0054 -0.4179
66006SOL    HW1 5133   7.414   7.021  12.285 -1.1283  0.9851 -1.7906
66006SOL    HW2 5134   7.546   7.094  12.297 -0.9433  0.4958 -0.7906
66007SOL     OW 5135   6.991   4.991   5.717 -0.0589  0.0330 -0.2265
66007SOL    HW1 5136   6.973   4.986   5.623 -1.5324  0.4175  0.0102
66007SOL    HW2 5137   6.937   5.064   5.748  0.2684 -0.2013  0.9537
66008SOL     OW 5138   1.305   3.988   0.820 -0.5118  0.5101  0.1974
66008SOL    HW1 5139   1.397   3.961   0.823 -0.3326  0.9588 -0.9391
66008SOL    HW2 5140   1.298   4.042   0.741 -1.1207  2.8284  1.7476
66009SOL     OW 5141   4.812   0.396  12.725 -0.3471  0.5326 -0.0174
66009SOL    HW1 5142   4.716   0.394  12.725 -0.3502  0.6474 -0.0876
66009SOL    HW2 5143   4.836   0.418  12.815 -0.3803  0.2212  0.0661
66010SOL     OW 5144   7.179  11.438  11.331  0.5538  0.0806 -0.3265
66010SOL    HW1 5145   7.238  11.509  11.306  0.2364  0.5499  0.2411
66010SOL    HW2 5146   7.103  11.449  11.273  0.2075  0.6292  0.2152
66011SOL     OW 5147   4.414   4.169   1.929 -0.9917  0.2634 -0.5205
66011SOL    HW1 5148   4.415   4.209   2.016  0.2928 -0.2661 -0.2653
66011SOL    HW2 5149   4.410   4.075   1.945  1.9351 -0.0263 -0.8704
66012SOL     OW 5150   9.522   4.062   1.037  0.1045 -0.3216  0.2537
66012SOL    HW1 5151   9.600   4.021   1.074  1.5182  0.9342 -1.1582
66012SOL    HW2 5152   9.536   4.059   0.942 -1.3058  0.4379 -0.0102
66013SOL     OW 5153   3.846   4.256  11.763 -0.6745  0.5657 -0.1543
66013SOL    HW1 5154   3.819   4.172  11.727 -0.7870  0.9766 -1.0597
66013SOL    HW2 5155   3.792   4.321  11.717 -1.4968  1.0569  1.4414
66014SOL     OW 5156   2.875   0.637   1.577 -0.5383 -0.2385  0.1848
66014SOL    HW1 5157   2.812   0.702   1.543  0.3575  0.4484 -0.2085
66014SOL    HW2 5158   2.928   0.613   1.501 -0.2206 -0.6951  0.5468
66015SOL     OW 5159   1.436   2.000   7.898 -0.1575  0.1920  0.3520
66015SOL    HW1 5160   1.424   2.088   7.864  1.7379  1.3109  2.2966
66015SOL    HW2 5161   1.349   1.974   7.930 -0.5261  1.8166  0.7387
66016SOL     OW 5162   9.007   9.709   0.668 -0.1942 -0.3454  0.4409
66016SOL    HW1 5163   9.002   9.756   0.752  1.3488 -0.2326  0.4951
66016SOL    HW2 5164   8.917   9.707   0.637 -0.4379  2.0413  0.7849
66017SOL     OW 5165   9.879   6.202   3.752 -0.2395 -0.1942 -0.6307
66017SOL    HW1 5166   9.841   6.209   3.839  0.9768 -2.8753  0.2159
66017SOL    HW2 5167   9.804   6.198   3.693 -1.1964 -1.4829  0.6096
66018SOL     OW 5168   8.725   9.787   4.484  0.0769 -0.2732  0.1123
66018SOL    HW1 5169   8.807   9.799   4.437 -0.2733  0.4024 -0.3377
66018SOL    HW2 5170   8.658   9.784   4.415 -0.1566 -2.2490  0.3438
66019SOL     OW 5171   2.214   7.021   5.557  0.2319  0.6674 -0.1204
66019SOL    HW1 5172   2.122   7.010   5.583  0.6702  0.0994  1.2587
66019SOL    HW2 5173   2.214   7.101   5.505 -0.7923  1.5878  1.2332
66020SOL     OW 5174  10.798   7.848   9.805 -0.2577 -0.5602 -0.2675
66020SOL    HW1 5175  10.738   7.800   9.748 -0.1934 -0.6585 -0.2520
66020SOL    HW2 5176  10.866   7.881   9.747  0.6301 -1.9330 -0.0384
66021SOL     OW 5177   2.002   9.346   2.645 -0.1640 -0.3617  0.7116
66021SOL    HW1 5178   2.096   9.346   2.663 -0.1614  0.6087  0.7564
66021SOL    HW2 5179   1.987   9.266   2.594  0.5537 -0.9101  1.3347
66022SOL     OW 5180   7.417   4.201  11.584 -0.3901  0.6161  0.1202
66022SOL    HW1 5181   7.477   4.166  11.518  1.8409 -0.4557  2.5445
66022SOL    HW2 5182   7.471   4.262  11.635 -1.2239 -0.5449  2.5443
66023SOL     OW 5183   2.080  12.589   2.469 -0.4448 -0.6391 -0.4101
66023SOL    HW1 5184   2.163  12.544   2.453 -0.3699 -0.6171 -0.0966
66023SOL    HW2 5185   2.088  12.673   2.424 -0.9096 -1.2665 -1.7304
66024SOL     OW 5186   2.591   5.190   4.377  0.2400 -0.3407 -0.5028
66024SOL    HW1 5187   2.529   5.259   4.353  0.6848 -0.2300 -1.3709
66024SOL    HW2 5188   2.668   5.238   4.410  0.0970 -0.4648  0.0299
66025SOL     OW 5189  11.661   2.312   3.386  0.2794  0.4514 -0.6101
66025SOL    HW1 5190  11.610   2.286   3.463  2.8406  0.6106  1.2797
66025SOL    HW2 5191  11.674   2.230   3.338 -0.4907  0.1602 -0.3523
66026SOL     OW 5192  12.836   6.602  11.311 -0.0422 -0.5709  0.0155
66026SOL    HW1 5193  12.800   6.662  11.377  3.0278 -0.8465  2.1023
66026SOL    HW2 5194  12.783   6.523  11.319 -0.1341 -0.3648  1.7236
66027SOL     OW 5195   6.344   8.503   4.445 -0.5745 -0.1699 -0.3514
66027SOL    HW1 5196   6.275   8.448   4.481  0.0837 -0.7100  0.1130
66027SOL    HW2 5197   6.301   8.587   4.429 -1.1728 -0.2673  0.6124
66028SOL     OW 5198   5.727  11.709   4.966 -0.0380  0.2765 -0.1794
66028SOL    HW1 5199   5.727  11.700   4.871 -0.5759 -1.6580 -0.0514
66028SOL    HW2 5200   5.736  11.803   4.982  1.4705  0.5230 -2.1085
66029SOL     OW 5201   4.840   0.296  12.077  0.5295  0.0614 -0.5321
66029SOL    HW1 5202   4.774   0.268  12.014  1.9176 -2.3155 -1.0503
66029SOL    HW2 5203   4.897   0.354  12.027  1.7222 -1.9365 -1.6341
66030SOL     OW 5204   9.816   9.570   1.126 -0.0796 -0.2615 -0.8868
66030SOL    HW1 5205   9.739   9.626   1.133  0.6781  0.6107  1.5942
66030SOL    HW2 5206   9.880   9.623   1.080  0.2137  0.5049  0.3438
66031SOL     OW 5207   6.838   9.696   6.749  0.1989  0.0715  0.0290
66031SOL    HW1 5208   6.793   9.769   6.793  0.7321 -0.5969  1.7568
66031SOL    HW2 5209   6.909   9.738   6.701  0.6666  0.6925  1.2255
66032SOL     OW 5210   7.584   3.354  11.555  0.1434 -0.3024 -0.2796
66032SOL    HW1 5211   7.517   3.415  11.584 -2.3099 -1.5998 -2.7450
66032SOL    HW2 5212   7.636   3.403  11.491 -2.7508 -0.9437 -3.3992
66033SOL     OW 5213   1.428  11.428   8.405  0.3085 -0.1212  0.2051
66033SOL    HW1 5214   1.339  11.410   8.435  1.0814 -0.2185  2.7105
66033SOL    HW2 5215   1.420  11.441   8.310 -2.0557 -2.0065  0.0580
66034SOL     OW 5216   1.539   9.669   2.093 -0.5452 -0.5117 -0.0117
66034SOL    HW1 5217   1.614   9.641   2.042  0.5604  0.6921  0.8860
66034SOL    HW2 5218   1.484   9.717   2.030  0.9581  1.2439 -0.0570
66035SOL     OW 5219   7.684   4.226  10.943  0.1795  0.0599  0.0331
66035SOL    HW1 5220   7.738   4.149  10.925 -0.3425 -0.4569  0.6164
66035SOL    HW2 5221   7.617   4.226  10.874  1.4776  1.2859 -1.3176
66036SOL     OW 5222   6.432   3.604   0.458  0.4784  0.4734 -0.0367
66036SOL    HW1 5223   6.511   3.581   0.507  0.9057 -0.3561 -1.0934
66036SOL    HW2 5224   6.445   3.696   0.433  2.5893 -0.4730 -2.8546
66037SOL     OW 5225  12.844   4.419   3.544 -0.3113  0.6843 -0.0696
66037SOL    HW1 5226  12.842   4.506   3.582  0.3263  1.5829 -1.9528
66037SOL    HW2 5227  12.821   4.360   3.616 -0.3617  2.3564  1.3383
66038SOL     OW 5228  11.882   6.474   1.759 -0.1074  0.6950  0.3621
66038SOL    HW1 5229  11.933   6.496   1.837 -0.6423 -0.5628  1.0953
66038SOL    HW2 5230  11.880   6.379   1.757  1.2247  0.6411 -2.1069
66039SOL     OW 5231   3.894   1.221   8.449  0.1423 -0.0743  0.5654
66039SOL    HW1 5232   3.839   1.209   8.372 -0.8403  0.3849  1.1822
66039SOL    HW2 5233   3.971   1.167   8.432  0.7151  1.2539 -1.4601
66040SOL     OW 5234   7.040   4.841   8.300 -0.4867  0.2281 -0.4899
66040SOL    HW1 5235   7.081   4.799   8.376 -1.5030 -1.2265 -0.6931
66040SOL    HW2 5236   6.946   4.844   8.321 -0.6928  0.4861 -1.3698
66041SOL     OW 5237   1.363   3.291   2.370  0.2478 -0.2999  0.2307
66041SOL    HW1 5238   1.292   3.258   2.315  1.6115 -2.0552 -0.5508
66041SOL    HW2 5239   1.410   3.353   2.314 -0.1731  0.2585  0.4837
66042SOL     OW 5240  12.744   5.855   5.053 -0.0093  0.4164 -0.0373
66042SOL    HW1 5241  12.673   5.799   5.023  0.8237  0.2579 -1.9024
66042SOL    HW2 5242  12.821   5.798   5.052  0.9276  1.5690 -2.3300
66043SOL     OW 5243   1.033  10.522   7.292  0.2242 -0.1728 -0.0720
66043SOL    HW1 5244   1.010  10.506   7.200 -0.7423  0.9303 -0.0493
66043SOL    HW2 5245   0.951  10.550   7.332  0.8561  0.3536  0.8875
66044SOL     OW 5246   7.653   7.204   1.562  0.3717  0.6393  0.4369
66044SOL    HW1 5247   7.608   7.272   1.512  0.5256 -0.4986 -1.3459
66044SOL    HW2 5248   7.584   7.141   1.583  0.6048  0.2745  0.1352
66045SOL     OW 5249   8.361  11.459  10.429 -0.4733  0.6635 -0.4447
66045SOL    HW1 5250   8.436  11.494  10.381  0.0307 -0.2875 -0.3726
66045SOL    HW2 5251   8.359  11.367  10.405 -1.3470  0.5839 -0.0785
66046SOL     OW 5252  11.372   7.650   1.238  0.5396 -0.0420  0.2528
66046SOL    HW1 5253  11.465   7.674   1.239  0.8612 -1.1889  2.1554
66046SOL    HW2 5254  11.370   7.563   1.198  0.3323 -0.2125  0.6326
66047SOL     OW 5255   8.922   7.221   6.340  0.4556 -0.1793 -0.4362
66047SOL    HW1 5256   8.864   7.257   6.407  0.3447 -0.7158 -0.2409
66047SOL    HW2 5257   8.895   7.265   6.259 -0.0825 -0.2649 -0.3088
66048SOL     OW 5258  12.434   9.348  11.280  0.1856 -0.0964  0.2990
66048SOL    HW1 5259  12.411   9.370  11.370  0.1487  0.1798  0.2230
66048SOL    HW2 5260  12.466   9.258  11.285  0.9587  0.1949  0.7171
66049SOL     OW 5261   5.119   9.864   4.934  0.2656 -0.0683 -0.7267
66049SOL    HW1 5262   5.158   9.945   4.903 -0.3535  1.5106  2.2345
66049SOL    HW2 5263   5.027   9.870   4.908  0.5169 -0.5378 -1.7586
66050SOL     OW 5264   5.810   9.361   3.826 -0.2099 -0.5392 -0.4056
66050SOL    HW1 5265   5.784   9.269   3.824 -2.2915 -0.0074  0.2209
66050SOL    HW2 5266   5.792   9.389   3.915 -0.1198  0.6218 -0.7378
66051SOL     OW 5267   3.568   1.489   2.430  0.1470 -0.3590  0.0305
66051SOL    HW1 5268   3.547   1.575   2.467 -1.4060  0.0460 -1.6145
66051SOL    HW2 5269   3.599   1.438   2.504 -0.5756  1.0872  1.4015
66052SOL     OW 5270   3.417   0.358   4.427  0.2942  0.4652 -0.3394
66052SOL    HW1 5271   3.325   0.351   4.454  0.2375  1.4984 -0.2217
66052SOL    HW2 5272   3.439   0.450   4.442  1.5699  0.0757  0.3505
66053SOL     OW 5273   8.874   4.404   1.967  0.1067 -0.2739  0.1493
66053SOL    HW1 5274   8.896   4.324   1.918  1.3448 -0.2553  0.6551
66053SOL    HW2 5275   8.956   4.451   1.975 -0.8354  1.7562 -1.3087
66054SOL     OW 5276   9.467   2.635   7.629  0.5210 -1.1105 -0.4673
66054SOL    HW1 5277   9.382   2.596   7.648  0.4744 -0.3501  0.9738
66054SOL    HW2 5278   9.451   2.729   7.629  1.4587 -0.9396  0.3326
66055SOL     OW 5279   1.236   7.908   8.203 -0.5077  0.1130 -0.4239
66055SOL    HW1 5280   1.245   7.973   8.133 -1.3778  0.7650  0.0503
66055SOL    HW2 5281   1.180   7.840   8.166  0.4269 -0.4034 -0.9314
66056SOL     OW 5282  10.816  11.885  10.117 -0.2290 -0.1773  0.0580
66056SOL    HW1 5283  10.829  11.803  10.070  0.8556  1.1467 -2.1140
66056SOL    HW2 5284  10.905  11.917  10.134 -0.6335  0.3668  1.2182
66057SOL     OW 5285   2.778   6.115   4.426 -0.0662  0.2906  0.1932
66057SOL    HW1 5286   2.702   6.112   4.367 -0.4905 -0.7301  0.7694
66057SOL    HW2 5287   2.741   6.097   4.512  0.7875  0.1505  0.5330
66058SOL     OW 5288   7.891   9.982   3.230  0.0830  0.4800  0.1323
66058SOL    HW1 5289   7.915   9.994   3.138  2.9055  0.5829  0.8053
66058SOL    HW2 5290   7.934   9.901   3.257 -1.9332 -0.3767  1.0459
66059SOL     OW 5291   1.413   2.280   7.812  0.6714  0.1147  0.7501
66059SOL    HW1 5292   1.446   2.329   7.737  0.6088  0.2517  0.8116
66059SOL    HW2 5293   1.431   2.336   7.887  0.9202 -0.1133  0.8596
66060SOL     OW 5294  11.363   9.818   1.383 -0.2661 -0.3148  0.6649
66060SOL    HW1 5295  11.400   9.744   1.431 -0.6141 -1.0038 -0.0932
66060SOL    HW2 5296  11.272   9.822   1.414 -0.8009 -1.4227 -0.6366
66061SOL     OW 5297   2.361  10.026  12.174 -0.0915 -0.1122  0.2562
66061SOL    HW1 5298   2.412  10.044  12.095 -0.5768  1.1544  0.2084
66061SOL    HW2 5299   2.279  10.074  12.161 -0.6937 -0.9011  0.9884
66062SOL     OW 5300   0.447  10.966   2.542 -0.4111  0.7441  0.4820
66062SOL    HW1 5301   0.380  11.003   2.600  0.8292  0.4998  2.1410
66062SOL    HW2 5302   0.447  10.872   2.561 -0.9091  0.4286 -0.9332
66063SOL     OW 5303   2.644   1.280   7.456  0.2388 -0.0090 -0.3136
66063SOL    HW1 5304   2.608   1.193   7.472  1.8238 -0.7827 -0.8297
66063SOL    HW2 5305   2.569   1.330   7.423 -0.0688 -2.0299 -2.9989
66064SOL     OW 5306   6.394   8.567  11.299  0.1114 -0.1626  0.7543
66064SOL    HW1 5307   6.440   8.631  11.245 -0.9505  0.0729  0.1079
66064SOL    HW2 5308   6.414   8.483  11.259 -1.4637  0.0858 -0.6547
66065SOL     OW 5309   1.003   4.920   3.142  0.2983  0.3810 -0.5590
66065SOL    HW1 5310   1.064   4.881   3.205 -0.6963  0.0113  0.2059
66065SOL    HW2 5311   0.968   4.997   3.189  1.4798  1.6492 -1.6602
66066SOL     OW 5312   1.991   3.372  10.414  0.3203 -0.5047  0.2880
66066SOL    HW1 5313   2.025   3.310  10.349  0.0304 -0.9858  0.5886
66066SOL    HW2 5314   1.898   3.378  10.395  0.5249  0.6778 -0.4229
66067SOL     OW 5315  11.173   2.660   7.196  0.3484 -0.3217 -0.1448
66067SOL    HW1 5316  11.144   2.632   7.110  2.0033  0.2126 -0.9226
66067SOL    HW2 5317  11.234   2.732   7.179 -0.0788  0.4934  1.5315
66068SOL     OW 5318   6.662   7.279   1.521 -0.2152 -0.0604  0.0260
66068SOL    HW1 5319   6.640   7.245   1.434  0.7617  1.0668 -0.6964
66068SOL    HW2 5320   6.593   7.246   1.578 -0.3017 -1.7312 -0.9596
66069SOL     OW 5321  12.820  10.736  11.802 -0.0477 -0.4136  0.2623
66069SOL    HW1 5322  12.899  10.708  11.848 -0.3801 -1.3724  0.2898
66069SOL    HW2 5323  12.852  10.781  11.724  0.5609 -1.8963 -0.3877
66070SOL     OW 5324   3.038   7.795   1.401 -0.0830 -0.1165  0.4087
66070SOL    HW1 5325   3.023   7.842   1.319  2.5798  2.2058  1.0722
66070SOL    HW2 5326   3.103   7.728   1.378 -0.4500 -0.4506  0.3426
66071SOL     OW 5327   1.947  10.542   5.138  0.1650  0.0945  0.3403
66071SOL    HW1 5328   1.969  10.531   5.045 -0.0785  1.6148  0.0722
66071SOL    HW2 5329   1.943  10.453   5.172  1.2040 -0.4548 -0.8845
66072SOL     OW 5330   4.494   4.041   1.668  0.1568 -0.8808 -0.3942
66072SOL    HW1 5331   4.476   4.072   1.579  1.9929  1.9898  0.1169
66072SOL    HW2 5332   4.420   4.071   1.719  1.0705  1.2731 -0.2487
66073SOL     OW 5333   3.004  11.352   1.505 -0.4211 -0.0354  0.3364
66073SOL    HW1 5334   2.949  11.311   1.572 -1.6569  0.9325 -0.0367
66073SOL    HW2 5335   2.942  11.386   1.441  0.5732  1.6843  0.2237
66074SOL     OW 5336   8.545   7.024   6.601  0.0046  0.0064  0.9270
66074SOL    HW1 5337   8.611   6.972   6.555  1.6250  1.1103  1.8951
66074SOL    HW2 5338   8.514   7.087   6.537  0.9105  0.3670  0.8382
66075SOL     OW 5339   2.774   4.105   6.776 -0.0690 -0.2820 -0.0589
66075SOL    HW1 5340   2.867   4.129   6.770  0.0269  0.0419  2.1739
66075SOL    HW2 5341   2.728   4.188   6.769 -0.0769 -0.2069  0.8066
66076SOL     OW 5342   5.194   8.883   1.913  0.2000 -0.7627  0.3241
66076SOL    HW1 5343   5.177   8.819   1.843  0.1540 -1.7552  1.2086
66076SOL    HW2 5344   5.218   8.829   1.988 -0.8153  0.2073  1.3843
66077SOL     OW 5345   2.136   6.328   4.415 -0.1748  0.5238  0.2669
66077SOL    HW1 5346   2.161   6.330   4.507  0.4852  0.4061  0.0916
66077SOL    HW2 5347   2.207   6.281   4.372 -0.8025 -0.0128 -0.2035
66078SOL     OW 5348   0.259   1.303   8.865 -0.3449  0.3894 -0.8156
66078SOL    HW1 5349   0.283   1.360   8.792 -0.4284 -0.4749 -1.5248
66078SOL    HW2 5350   0.307   1.339   8.940  0.9562  0.3660 -1.6108
66079SOL     OW 5351  11.769  10.718   8.234 -0.3452 -0.6461  0.2598
66079SOL    HW1 5352  11.816  10.792   8.197 -1.5182 -0.3422 -0.6749
66079SOL    HW2 5353  11.832  10.678   8.294  0.5139  0.7343  0.3316
66080SOL     OW 5354   6.923   7.118   7.261  0.2202 -0.3429 -0.0595
66080SOL    HW1 5355   6.845   7.134   7.209  1.2461 -0.1203 -1.6099
66080SOL    HW2 5356   6.969   7.047   7.215  1.1063 -0.2174  0.5923
66081SOL     OW 5357   9.006   7.117   0.014 -0.1109  0.3062  0.0518
66081SOL    HW1 5358   8.948   7.049  -0.021 -1.3273  0.4176  1.7289
66081SOL    HW2 5359   9.072   7.129  -0.054  1.0988 -3.6480  0.2454
66082SOL     OW 5360   6.018   5.930  10.002 -0.3400  0.0741 -0.1627
66082SOL    HW1 5361   6.051   6.007   9.956  0.0819 -1.1990 -2.1167
66082SOL    HW2 5362   5.940   5.962  10.049 -0.4608  1.5857 -1.3108
66083SOL     OW 5363   4.300  10.722   1.351  0.3350 -0.2129 -0.5029
66083SOL    HW1 5364   4.347  10.784   1.296  0.3381  0.0220 -0.2349
66083SOL    HW2 5365   4.265  10.657   1.289  1.3828 -0.6486 -0.6641
66084SOL     OW 5366  12.612   8.216   0.318 -0.4856 -0.5305  0.0032
66084SOL    HW1 5367  12.521   8.220   0.346  0.1490  0.7755  2.0766
66084SOL    HW2 5368  12.638   8.125   0.335 -0.7955 -0.3545  1.6015
66085SOL     OW 5369   2.426  10.601   8.870  0.1971  0.3226 -0.2225
66085SOL    HW1 5370   2.464  10.606   8.782  0.0404  0.6676 -0.2702
66085SOL    HW2 5371   2.477  10.663   8.922  1.3010 -0.9608  0.3090
66086SOL     OW 5372   0.184   2.154  12.649 -0.1673 -0.1191 -0.5695
66086SOL    HW1 5373   0.217   2.105  12.574  1.4199 -1.5550  0.9916
66086SOL    HW2 5374   0.135   2.090  12.700  0.8065  0.1961  0.8160
66087SOL     OW 5375  10.909   2.599   1.811 -0.5769 -0.1681 -0.3463
66087SOL    HW1 5376  10.874   2.591   1.722 -0.7768  0.0695 -0.2910
66087SOL    HW2 5377  10.860   2.672   1.849  0.2810  0.4596 -0.4121
66088SOL     OW 5378   9.658   1.731  10.118  0.4967 -0.1503  0.2160
66088SOL    HW1 5379   9.685   1.763  10.204 -1.5741  2.3774  0.0469
66088SOL    HW2 5380   9.666   1.636  10.124  2.0193  0.0360  2.5883
66089SOL     OW 5381  11.077   6.596   6.815 -0.2997  0.3128 -0.3555
66089SOL    HW1 5382  10.983   6.606   6.834 -0.5814 -1.3243 -0.6964
66089SOL    HW2 5383  11.080   6.565   6.725  0.5660  0.1619 -0.2828
66090SOL     OW 5384   9.382  11.023   8.738 -0.5484 -0.3811 -0.1609
66090SOL    HW1 5385   9.331  11.085   8.686 -0.5827  0.5294  0.9301
66090SOL    HW2 5386   9.432  10.973   8.674 -0.8828  0.4442 -1.0865
66091SOL     OW 5387   6.414   4.231  11.012 -0.2637 -0.1516 -0.5217
66091SOL    HW1 5388   6.396   4.189  10.928 -0.6409 -0.6142 -0.2162
66091SOL    HW2 5389   6.394   4.163  11.077  0.8741 -0.0924 -0.0891
66092SOL     OW 5390   3.549   4.878   9.863  0.6286  0.1834 -0.0610
66092SOL    HW1 5391   3.540   4.974   9.861 -0.3554  0.1494 -3.8043
66092SOL    HW2 5392   3.551   4.852   9.771 -0.7703 -3.5554  0.7897
66093SOL     OW 5393   8.047   1.430   5.838 -0.5187 -0.1529  0.6644
66093SOL    HW1 5394   8.137   1.440   5.807 -1.0333 -0.5664 -1.0870
66093SOL    HW2 5395   8.052   1.445   5.932  1.5169 -0.9714  0.7349
66094SOL     OW 5396   5.639   1.932   9.368  1.0293  0.4635 -0.1302
66094SOL    HW1 5397   5.731   1.950   9.348  1.0166 -0.0008 -0.6237
66094SOL    HW2 5398   5.607   1.882   9.293  0.7628 -0.6217  0.6715
66095SOL     OW 5399   7.975  11.292   0.371 -0.3001  0.1993 -0.8823
66095SOL    HW1 5400   7.963  11.376   0.327  0.0616  2.0142  2.1825
66095SOL    HW2 5401   7.982  11.315   0.464  1.4546 -3.0801 -0.0687
66096SOL     OW 5402   8.514   6.358   7.472  0.2496 -0.2138  0.1167
66096SOL    HW1 5403   8.584   6.386   7.413 -2.1033 -0.5326 -3.0618
66096SOL    HW2 5404   8.525   6.263   7.480  0.7054 -0.1389  0.4059
66097SOL     OW 5405   7.216   3.916   6.044 -0.3144 -0.1844 -0.3947
66097SOL    HW1 5406   7.300   3.889   6.080 -0.0677  1.2137  0.1618
66097SOL    HW2 5407   7.230   4.007   6.017 -1.7008  0.1501 -0.0755
66098SOL     OW 5408   4.785   6.081  12.248 -0.1649  0.4674  0.1164
66098SOL    HW1 5409   4.868   6.050  12.286  0.6684  2.0567 -0.2881
66098SOL    HW2 5410   4.767   6.020  12.176  0.4531 -0.1185  0.4445
66099SOL     OW 5411   1.517   7.298   7.647  0.0560 -0.3447 -1.0582
66099SOL    HW1 5412   1.481   7.357   7.713  0.8286 -0.0155 -0.9201
66099SOL    HW2 5413   1.599   7.339   7.620  0.9026 -1.6326 -0.5503
66100SOL     OW 5414   1.655  10.361  11.769  0.0389  0.1655  0.0566
66100SOL    HW1 5415   1.709  10.285  11.794  0.0603  0.1682  0.0185
66100SOL    HW2 5416   1.680  10.429  11.831 -2.4385 -0.8695  2.3573
66101SOL     OW 5417   1.815   5.376  11.088  0.0734 -0.3322 -0.3401
66101SOL    HW1 5418   1.731   5.418  11.103 -1.0169 -2.3862 -0.3135
66101SOL    HW2 5419   1.865   5.392  11.168 -1.6763 -2.0871  1.2106
66102SOL     OW 5420  10.158   4.055   0.785 -0.1863  0.1128 -0.1051
66102SOL    HW1 5421  10.127   3.976   0.828  2.6015 -0.5169  1.0130
66102SOL    HW2 5422  10.183   4.027   0.697 -2.8768  0.6982 -1.1339
66103SOL     OW 5423   6.040  10.057  11.128 -0.4245 -0.0616  0.5351
66103SOL    HW1 5424   6.081  10.042  11.043  1.3507  1.0667  1.1392
66103SOL    HW2 5425   6.001   9.972  11.151 -0.0410 -0.6620 -0.9283
66104SOL     OW 5426   9.084   9.488   0.522 -0.1731 -0.1670 -0.7759
66104SOL    HW1 5427   9.049   9.564   0.568 -0.1653 -0.0005 -1.0426
66104SOL    HW2 5428   9.039   9.488   0.438 -1.6996 -1.6403 -0.0133
66105SOL     OW 5429   0.927   5.544   8.097  0.2994 -0.1308  0.2405
66105SOL    HW1 5430   0.956   5.622   8.144  0.7282  0.9260 -1.6819
66105SOL    HW2 5431   0.831   5.546   8.103  0.3626 -0.6341  1.9460
66106SOL     OW 5432  10.531   0.302   5.543 -0.6506  0.1781 -0.0998
66106SOL    HW1 5433  10.461   0.241   5.521 -3.0758  2.8365 -0.3646
66106SOL    HW2 5434  10.595   0.250   5.592 -2.1364 -2.6658 -1.0092
66107SOL     OW 5435   1.490   2.428   8.016  0.2972  0.8389  0.0236
66107SOL    HW1 5436   1.552   2.402   8.085 -1.5301  1.7438  2.1456
66107SOL    HW2 5437   1.423   2.477   8.063 -0.7846  1.9588 -2.5435
66108SOL     OW 5438   8.568   5.330   4.773  0.0912  0.3703 -0.3995
66108SOL    HW1 5439   8.556   5.285   4.689 -1.7398  1.1583 -0.6009
66108SOL    HW2 5440   8.625   5.404   4.752 -1.5410  1.4288 -1.3094
66109SOL     OW 5441   4.322   7.420   3.128 -0.2807  0.0789  0.4903
66109SOL    HW1 5442   4.260   7.396   3.197 -2.0590 -0.8921 -1.3149
66109SOL    HW2 5443   4.274   7.403   3.046  1.5430  1.6321 -0.9959
66110SOL     OW 5444  12.904   6.884   6.724  0.9393  0.2656  0.0660
66110SOL    HW1 5445  12.858   6.819   6.777  1.4371 -0.6400 -0.5879
66110SOL    HW2 5446  12.840   6.955   6.711  0.2443 -0.2891  0.4229
66111SOL     OW 5447   7.397   3.693   7.066 -0.3275  0.2889  0.0241
66111SOL    HW1 5448   7.312   3.692   7.022 -0.2859  0.9270 -0.0786
66111SOL    HW2 5449   7.391   3.624   7.132  0.1769 -1.8827 -2.0370
66112SOL     OW 5450   3.224   8.612   7.977 -0.3354 -0.2552 -0.5614
66112SOL    HW1 5451   3.190   8.596   7.889  0.5205 -0.3301 -0.8868
66112SOL    HW2 5452   3.233   8.525   8.016  4.2820 -0.8179 -2.3155
66113SOL     OW 5453   3.165   9.168  11.142 -0.4542  0.4887  0.3015
66113SOL    HW1 5454   3.154   9.253  11.185 -0.7124  0.7264 -0.2241
66113SOL    HW2 5455   3.094   9.164  11.078 -0.9871 -0.5087  0.9205
66114SOL     OW 5456   6.684   1.840   2.835  0.2341  0.7107 -0.0329
66114SOL    HW1 5457   6.633   1.835   2.916 -0.0872 -0.0863 -0.2714
66114SOL    HW2 5458   6.775   1.829   2.863  0.1746  0.9735  0.2711
66115SOL     OW 5459   6.421   0.103   1.728 -0.4643 -0.3955  0.2660
66115SOL    HW1 5460   6.435   0.084   1.636 -1.9554  0.6647 -0.2174
66115SOL    HW2 5461   6.410   0.017   1.770 -1.5911 -0.8332 -0.8736
66116SOL     OW 5462   2.332   9.824  10.832  0.7425 -0.1271  0.1721
66116SOL    HW1 5463   2.339   9.919  10.819 -1.1359  0.0699  0.3798
66116SOL    HW2 5464   2.423   9.794  10.834  1.3676  1.4176 -1.6365
66117SOL     OW 5465   0.015   2.396   4.888  0.4675  0.4065 -0.0966
66117SOL    HW1 5466   0.050   2.342   4.817  1.5644  0.8021  0.1194
66117SOL    HW2 5467  -0.010   2.478   4.845  2.2286  1.0965  0.1215
66118SOL     OW 5468  11.909  10.685   9.851  0.2054  0.4347 -0.6716
66118SOL    HW1 5469  11.993  10.704   9.893  0.5900  0.0691 -1.2632
66118SOL    HW2 5470  11.913  10.731   9.767 -0.6293  1.3089 -0.2437
66119SOL     OW 5471   5.664   8.307   1.411 -0.1141  0.4677 -0.3221
66119SOL    HW1 5472   5.757   8.288   1.398 -0.2147 -0.2429 -0.0541
66119SOL    HW2 5473   5.661   8.401   1.430  0.6399  0.3384  0.5151
66120SOL     OW 5474   3.260   5.460   5.923  0.1989 -0.4164 -0.5641
66120SOL    HW1 5475   3.233   5.552   5.929  0.7184 -0.2273 -1.0643
66120SOL    HW2 5476   3.223   5.419   6.001  0.6861  0.3973  0.0990
66121SOL     OW 5477   9.144   8.449  10.580  0.0537  0.5240 -0.0716
66121SOL    HW1 5478   9.049   8.436  10.578  0.1366 -0.1375  0.0630
66121SOL    HW2 5479   9.157   8.529  10.630 -0.5144  1.4994 -1.4053
66122SOL     OW 5480   8.578   4.433   4.309  0.1006 -0.0962  0.2612
66122SOL    HW1 5481   8.632   4.507   4.280  0.0752 -0.1517  0.0693
66122SOL    HW2 5482   8.605   4.361   4.253 -1.9108  0.4709 -1.5826
66123SOL     OW 5483  11.109  11.623   9.219 -0.2329 -0.4530 -0.1259
66123SOL    HW1 5484  11.086  11.715   9.207 -1.1941 -0.4711  1.2184
66123SOL    HW2 5485  11.176  11.605   9.153  1.8701  1.8853  1.2046
66124SOL     OW 5486   1.340   9.097   5.129 -0.2789 -0.1555  0.2659
66124SOL    HW1 5487   1.281   9.128   5.060 -1.0728  0.5603  1.2271
66124SOL    HW2 5488   1.426   9.131   5.104 -0.8432  1.5007  0.4313
66125SOL     OW 5489   4.654   7.569   5.076 -0.2843 -0.4916  0.3074
66125SOL    HW1 5490   4.579   7.592   5.132  0.2666  0.5399  0.6566
66125SOL    HW2 5491   4.708   7.648   5.076  1.2275 -1.4978  0.7530
66126SOL     OW 5492   2.691  12.960   3.581 -0.1648  0.7331  0.2515
66126SOL    HW1 5493   2.622  12.893   3.574  1.4454 -0.8376 -2.0731
66126SOL    HW2 5494   2.657  13.034   3.530 -0.6125  0.4048  0.0599
66127SOL     OW 5495   7.134   5.282  12.721 -0.3239 -0.2454 -0.2996
66127SOL    HW1 5496   7.100   5.229  12.649  0.2190 -1.5858  0.3960
66127SOL    HW2 5497   7.221   5.247  12.738  0.2604  1.2272 -0.1454
66128SOL     OW 5498  12.758   1.543   6.724  0.1123 -0.1074  0.2182
66128SOL    HW1 5499  12.850   1.537   6.748  0.1144 -1.3306 -0.0092
66128SOL    HW2 5500  12.752   1.496   6.641 -0.2641  2.2214 -1.1810
66129SOL     OW 5501   4.356  10.250   1.524 -0.4903  0.4521  0.3285
66129SOL    HW1 5502   4.266  10.281   1.514 -0.2154  1.2974  0.3794
66129SOL    HW2 5503   4.347  10.163   1.563 -1.2829  0.5433  0.3727
66130SOL     OW 5504   3.592   1.115   5.277  0.4713  0.0568 -0.2755
66130SOL    HW1 5505   3.570   1.169   5.353 -0.9367 -0.3974 -0.3252
66130SOL    HW2 5506   3.569   1.026   5.304 -0.6061 -0.0363 -1.4122
66131SOL     OW 5507   3.381   2.969   6.629 -0.3373  0.4053  0.3764
66131SOL    HW1 5508   3.338   2.913   6.694  0.0373 -1.1833 -0.7031
66131SOL    HW2 5509   3.466   2.990   6.668 -1.0396  1.4901  1.4199
66132SOL     OW 5510   8.430   4.425  10.466 -0.3168 -0.4211 -0.4226
66132SOL    HW1 5511   8.489   4.466  10.529 -1.4470  0.3975  0.1297
66132SOL    HW2 5512   8.466   4.449  10.381 -0.5007  1.0484 -0.1050
66133SOL     OW 5513   3.490   4.247   6.828  0.0229 -0.1136 -0.1841
66133SOL    HW1 5514   3.418   4.254   6.765 -0.1295  0.2603  0.0209
66133SOL    HW2 5515   3.456   4.292   6.906  0.7880  0.8146 -0.3606
66134SOL     OW 5516  11.623   0.218  11.569  0.6923 -0.3860  0.9610
66134SOL    HW1 5517  11.590   0.223  11.479  1.8003 -0.2003  0.5486
66134SOL    HW2 5518  11.622   0.309  11.600 -0.0478 -0.4977  1.2763
66135SOL     OW 5519  12.793   1.072  11.162  0.0308  0.0360  0.2214
66135SOL    HW1 5520  12.820   1.014  11.233 -0.1087 -0.2439  0.0487
66135SOL    HW2 5521  12.842   1.153  11.177  1.3486 -0.6174 -0.3571
66136SOL     OW 5522   7.446   2.909   6.630 -0.1329  0.4890 -0.0215
66136SOL    HW1 5523   7.351   2.920   6.630 -0.3817 -1.2780  1.0302
66136SOL    HW2 5524   7.462   2.844   6.562  0.1242 -0.3987  0.8617
66137SOL     OW 5525   5.843   4.517  12.843 -0.0340 -0.4985  0.5757
66137SOL    HW1 5526   5.821   4.438  12.795 -0.6883 -1.2042  1.9833
66137SOL    HW2 5527   5.917   4.492  12.899 -0.5365 -0.2640  1.3649
66138SOL     OW 5528   3.636   7.573   7.603  0.2746 -0.1673  0.2122
66138SOL    HW1 5529   3.670   7.662   7.613 -0.7795  0.4780 -1.4326
66138SOL    HW2 5530   3.696   7.519   7.654  1.7033  1.3287  0.2358
66139SOL     OW 5531   3.296  11.314   3.276 -0.0123 -0.0481  0.2734
66139SOL    HW1 5532   3.254  11.297   3.360  0.3228 -0.4953  0.3576
66139SOL    HW2 5533   3.262  11.247   3.218 -2.0764  1.6697 -0.6295
66140SOL     OW 5534  12.808  10.355  12.799 -0.0261 -0.0581  0.4909
66140SOL    HW1 5535  12.896  10.392  12.805 -0.3650  0.8373  0.1211
66140SOL    HW2 5536  12.768  10.374  12.883 -0.8358  2.1521 -0.3270
66141SOL     OW 5537   9.837  10.693   3.890 -0.6444  0.0492  0.0027
66141SOL    HW1 5538   9.835  10.606   3.931  0.2960  0.0797  0.1285
66141SOL    HW2 5539   9.804  10.678   3.802 -0.0840 -0.5183 -0.1157
66142SOL     OW 5540   8.522   9.004   3.837  0.0779 -0.0841  0.7084
66142SOL    HW1 5541   8.436   9.031   3.869 -0.7623 -0.3760 -1.1518
66142SOL    HW2 5542   8.514   8.909   3.823  0.3185  0.0594 -0.5133
66143SOL     OW 5543   9.182   7.836   8.575  0.2231  0.1921  0.4042
66143SOL    HW1 5544   9.171   7.788   8.493  1.5093  0.7510 -0.1309
66143SOL    HW2 5545   9.109   7.899   8.575  0.3002  0.2990 -0.4015
66144SOL     OW 5546   5.210   0.773  12.064 -0.0322  0.1151  0.5564
66144SOL    HW1 5547   5.117   0.789  12.054 -0.4179 -0.9758  2.0462
66144SOL    HW2 5548   5.244   0.849  12.110 -0.1688  0.5238 -0.0116
66145SOL     OW 5549  10.155   8.686   5.637  0.2070 -0.7329 -0.0823
66145SOL    HW1 5550  10.218   8.732   5.581  0.5708 -2.1890 -0.9455
66145SOL    HW2 5551  10.151   8.738   5.717  1.0787  0.4136 -0.7510
66146SOL     OW 5552   0.112   5.600  12.737 -0.1859 -0.3399 -0.0304
66146SOL    HW1 5553   0.123   5.668  12.803 -0.3646 -0.0016 -0.3477
66146SOL    HW2 5554   0.117   5.518  12.786  0.6991 -0.1202  0.2595
66147SOL     OW 5555   9.257  12.890   9.414 -0.3202 -0.4968 -0.4422
66147SOL    HW1 5556   9.208  12.812   9.386 -0.2865 -0.3854 -0.8228
66147SOL    HW2 5557   9.234  12.900   9.506 -0.4132 -0.8933 -0.4170
66148SOL     OW 5558   8.847   0.267   4.503 -0.2612  0.4601 -0.1847
66148SOL    HW1 5559   8.928   0.222   4.528  0.2976  0.1341 -2.3673
66148SOL    HW2 5560   8.809   0.211   4.436 -1.8183  1.1090  0.1186
66149SOL     OW 5561   8.357   8.689   0.504 -0.6066  0.0458 -0.0328
66149SOL    HW1 5562   8.300   8.684   0.580 -0.8749  0.1334 -0.2275
66149SOL    HW2 5563   8.438   8.728   0.537 -0.0761 -1.4949  0.5738
66150SOL     OW 5564   7.346   9.028   3.948 -0.1565 -0.1966 -0.1664
66150SOL    HW1 5565   7.366   8.973   4.024  1.0796  1.4210  0.7568
66150SOL    HW2 5566   7.266   8.991   3.912 -0.0365 -1.8366  1.1256
66151SOL     OW 5567   8.030   9.047  10.560 -0.0139 -0.0726 -0.1775
66151SOL    HW1 5568   7.941   9.076  10.542 -0.6587 -0.9101  1.4198
66151SOL    HW2 5569   8.026   9.013  10.649  1.9072 -0.1614 -0.0926
66152SOL     OW 5570   1.543   5.546  12.756  0.8511  0.6906 -0.1832
66152SOL    HW1 5571   1.466   5.554  12.701  2.5485  1.0966 -2.7013
66152SOL    HW2 5572   1.547   5.629  12.804  1.2377  1.9727 -2.2759
66153SOL     OW 5573   6.130   0.894  12.265  0.0188 -0.1688  0.4186
66153SOL    HW1 5574   6.157   0.858  12.349  0.2927 -0.4232  0.2239
66153SOL    HW2 5575   6.039   0.865  12.254 -0.3688  0.7402  1.1042
66154SOL     OW 5576  11.155   2.200   6.960 -0.0606  0.1234  0.1938
66154SOL    HW1 5577  11.158   2.109   6.932 -1.8913 -0.2937  1.1766
66154SOL    HW2 5578  11.197   2.249   6.890  0.9513 -1.4712 -0.3539
66155SOL     OW 5579   3.460   6.116   4.555  0.0842 -0.3755 -0.2912
66155SOL    HW1 5580   3.456   6.206   4.523  1.5081  1.0383  3.0129
66155SOL    HW2 5581   3.516   6.070   4.493  0.0231  1.2282 -1.5899
66156SOL     OW 5582   6.028   7.777   2.071 -0.5666  0.6158 -0.0541
66156SOL    HW1 5583   6.115   7.739   2.056 -2.4443 -3.8601 -1.3549
66156SOL    HW2 5584   6.012   7.833   1.994  0.2342 -0.5899 -1.1413
66157SOL     OW 5585  12.412   1.998   7.127  0.5851  0.0272  0.7327
66157SOL    HW1 5586  12.405   2.047   7.045  0.0161 -0.7779  0.2843
66157SOL    HW2 5587  12.476   2.047   7.179 -0.5466  1.6966  0.6517
66158SOL     OW 5588  12.669   9.664   0.127 -0.1955 -0.1894 -0.4854
66158SOL    HW1 5589  12.699   9.574   0.137  0.3047  0.1788  1.9544
66158SOL    HW2 5590  12.737   9.707   0.075 -0.1448 -1.0678 -1.1534
66159SOL     OW 5591  11.069   3.697   6.939 -0.0760 -0.4274  0.4785
66159SOL    HW1 5592  11.137   3.720   7.003  0.7991  0.3916 -0.6983
66159SOL    HW2 5593  10.997   3.757   6.959  0.3153  0.0380  0.5124
66160SOL     OW 5594   3.593   2.336   7.161 -0.4645  0.2936 -0.4312
66160SOL    HW1 5595   3.604   2.249   7.200  1.2246  0.4166 -0.5697
66160SOL    HW2 5596   3.547   2.319   7.078  0.1110 -0.5099 -0.5949
66161SOL     OW 5597   7.753   7.149  10.573  0.2046 -0.4279  0.5509
66161SOL    HW1 5598   7.748   7.154  10.669 -0.8290 -1.0434  0.5441
66161SOL    HW2 5599   7.839   7.185  10.552  0.3192  0.0214  1.6882
66162SOL     OW 5600   7.339   4.706  11.729 -0.0398 -0.2415  0.3983
66162SOL    HW1 5601   7.340   4.781  11.788 -2.4929 -0.1651  0.4521
66162SOL    HW2 5602   7.257   4.661  11.750  0.7987 -2.2731 -0.4629
66163SOL     OW 5603   2.463  12.324  10.864 -0.2251 -0.1124 -0.3237
66163SOL    HW1 5604   2.537  12.357  10.915 -0.0877 -0.2826 -0.4110
66163SOL    HW2 5605   2.386  12.342  10.918 -0.0881 -0.2090 -0.0971
66164SOL     OW 5606   8.807  10.882   2.564  0.1803  0.1536  0.0881
66164SOL    HW1 5607   8.895  10.844   2.558  0.0315 -0.0390 -1.4972
66164SOL    HW2 5608   8.769  10.841   2.641  1.1745 -0.4606  0.2777
66165SOL     OW 5609   7.234   1.481   0.780 -0.2854  0.3795 -0.1348
66165SOL    HW1 5610   7.246   1.543   0.852 -4.0098  1.9626 -0.6418
66165SOL    HW2 5611   7.148   1.443   0.796  0.4272 -2.1493 -1.7730
66166SOL     OW 5612   3.155  12.084   6.410  0.4232  0.1116  0.3836
66166SOL    HW1 5613   3.125  12.065   6.322  0.1108  1.5932  0.1438
66166SOL    HW2 5614   3.226  12.148   6.398 -1.4562  2.5497  1.2526
66167SOL     OW 5615   4.593   0.921   0.192  0.0797  0.2641  0.9629
66167SOL    HW1 5616   4.595   0.883   0.104  0.0299  2.0733  0.1139
66167SOL    HW2 5617   4.686   0.931   0.215  0.2243  2.4256 -0.1940
66168SOL     OW 5618   0.289   1.223   0.546 -0.5555 -0.2142 -0.0966
66168SOL    HW1 5619   0.321   1.199   0.459 -1.9212 -1.0014 -0.4184
66168SOL    HW2 5620   0.222   1.289   0.528 -2.1527 -1.6896  0.1640
66169SOL     OW 5621  12.677   0.590  11.639  0.3274  0.0394 -0.4056
66169SOL    HW1 5622  12.630   0.638  11.570  2.2405 -0.0236 -1.8125
66169SOL    HW2 5623  12.620   0.516  11.659  0.5316 -1.0218 -3.2992
66170SOL     OW 5624   9.597   5.476   5.291  0.2262 -0.4783 -0.5994
66170SOL    HW1 5625   9.638   5.432   5.366 -1.5870  0.3713  0.9594
66170SOL    HW2 5626   9.547   5.407   5.248  0.7977 -0.8421 -0.6986
66171SOL     OW 5627  10.553  10.808   5.593  0.3829 -0.2198 -0.2051
66171SOL    HW1 5628  10.461  10.819   5.619  0.5664 -0.9746  0.8363
66171SOL    HW2 5629  10.582  10.897   5.573 -0.0913  0.2939  1.2038
66172SOL     OW 5630   0.333   2.963   8.098  0.1851 -0.1453  0.7448
66172SOL    HW1 5631   0.260   3.001   8.048  0.6657 -2.0770 -1.5894
66172SOL    HW2 5632   0.297   2.883   8.136  0.5519 -0.0631  1.2704
66173SOL     OW 5633   0.738  10.087   3.553 -0.3913  0.3857 -0.4703
66173SOL    HW1 5634   0.690  10.065   3.633 -0.6646  0.5096 -0.5978
66173SOL    HW2 5635   0.682  10.152   3.509  0.3742  1.3028 -0.1265
66174SOL     OW 5636   5.592   4.111   7.732 -0.1112 -0.1871  0.1388
66174SOL    HW1 5637   5.583   4.018   7.752  0.7405  0.2645  3.1329
66174SOL    HW2 5638   5.622   4.114   7.641 -2.0001 -2.7012 -0.6675
66175SOL     OW 5639  12.065  11.457  12.521  0.1836 -0.5782 -0.0977
66175SOL    HW1 5640  12.109  11.491  12.599  1.9833  1.5172 -1.8924
66175SOL    HW2 5641  12.132  11.409  12.474 -0.3554 -0.2610 -1.2282
66176SOL     OW 5642   0.168   4.629  10.501 -0.6307 -0.1230 -0.5556
66176SOL    HW1 5643   0.223   4.588  10.568 -1.3104 -0.6081 -0.2776
66176SOL    HW2 5644   0.229   4.678  10.447 -0.0253  0.0350  0.2432
66177SOL     OW 5645   5.537   4.101  11.888 -0.1998 -0.0447 -0.4386
66177SOL    HW1 5646   5.614   4.092  11.832  1.1601  0.6476  1.2259
66177SOL    HW2 5647   5.496   4.183  11.859  1.4483  1.2203  0.5882
66178SOL     OW 5648   0.874   1.649   7.636 -0.0891  0.1391  0.3723
66178SOL    HW1 5649   0.799   1.685   7.589  1.0358  1.0694 -0.7950
66178SOL    HW2 5650   0.868   1.687   7.724  0.2581  2.1166 -0.3974
66179SOL     OW 5651   1.626   3.817   9.341  0.1335  0.4125  0.1170
66179SOL    HW1 5652   1.685   3.857   9.405  1.1354  2.1566 -1.7740
66179SOL    HW2 5653   1.649   3.724   9.341  2.0184  0.8425  0.3508
66180SOL     OW 5654   2.444  10.494   4.905 -0.0186 -0.6369 -0.0357
66180SOL    HW1 5655   2.507  10.554   4.866  2.4040 -2.4037  0.8878
66180SOL    HW2 5656   2.424  10.432   4.835 -0.4574 -0.3052 -0.2101
66181SOL     OW 5657  11.231  10.043   8.528  0.2228  0.5899 -0.6194
66181SOL    HW1 5658  11.293  10.054   8.456  1.1563 -0.6012 -0.0125
66181SOL    HW2 5659  11.146  10.063   8.489  0.4001 -2.2257 -2.6997
66182SOL     OW 5660   7.652   1.249  12.051 -0.0882 -0.1291  0.4639
66182SOL    HW1 5661   7.619   1.324  12.002 -0.6065 -0.0014  0.9887
66182SOL    HW2 5662   7.630   1.173  11.996  0.7240  0.1172 -0.2170
66183SOL     OW 5663   7.748   3.426  12.421  0.2389 -0.1719  0.0480
66183SOL    HW1 5664   7.741   3.464  12.333  0.2988  0.7444  0.4325
66183SOL    HW2 5665   7.772   3.334  12.405 -0.5170 -0.2148 -0.9104
66184SOL     OW 5666   7.344   3.437   6.945 -0.6797 -0.0416 -0.1566
66184SOL    HW1 5667   7.265   3.485   6.920  1.0439  1.9633 -2.1977
66184SOL    HW2 5668   7.412   3.504   6.950  1.1598 -1.8456  0.3258
66185SOL     OW 5669   6.166   6.337   6.915 -0.0996  0.2585  0.0019
66185SOL    HW1 5670   6.165   6.349   7.010  1.0233  1.8950 -0.1629
66185SOL    HW2 5671   6.173   6.425   6.879  3.5392 -0.4433 -1.4782
66186SOL     OW 5672   9.288   9.735   8.869  0.0350  0.0535  0.2952
66186SOL    HW1 5673   9.290   9.685   8.787 -1.5467 -0.0257  0.2687
66186SOL    HW2 5674   9.304   9.825   8.842 -1.3093  0.1525 -0.2363
66187SOL     OW 5675   8.157   7.065   8.144  0.6337 -0.0015  0.0499
66187SOL    HW1 5676   8.224   7.027   8.087  1.5384  1.0811  0.3670
66187SOL    HW2 5677   8.192   7.053   8.232 -0.0737 -0.3436  0.2927
66188SOL     OW 5678   5.191   5.031   0.334 -0.0402 -0.2229  0.3235
66188SOL    HW1 5679   5.222   4.973   0.264 -1.3237  1.3351 -1.6345
66188SOL    HW2 5680   5.254   5.103   0.335 -0.6460  0.3202 -0.0212
66189SOL     OW 5681   9.130   5.360   9.578  0.4633  0.4446 -0.3133
66189SOL    HW1 5682   9.135   5.449   9.544  2.1046  0.9770  1.1504
66189SOL    HW2 5683   9.209   5.350   9.632  0.8453 -2.2298 -1.1842
66190SOL     OW 5684   9.851   6.790   6.300 -0.4236  0.4117  0.5798
66190SOL    HW1 5685   9.897   6.707   6.295  0.8902  1.1502 -0.0125
66190SOL    HW2 5686   9.876   6.837   6.221 -2.1304  0.8978  0.2756
66191SOL     OW 5687   6.936  12.493   1.656  0.4567 -0.1284 -0.1229
66191SOL    HW1 5688   6.980  12.422   1.703 -1.0698 -1.6047 -0.8200
66191SOL    HW2 5689   6.988  12.505   1.577  0.5008 -0.8000 -0.2081
66192SOL     OW 5690   4.158   8.946  10.559  0.0236  0.2250 -0.5504
66192SOL    HW1 5691   4.226   8.986  10.614 -1.4630  2.4595 -0.1959
66192SOL    HW2 5692   4.147   8.858  10.595  0.9306  0.7112  1.0391
66193SOL     OW 5693   3.090   5.038   1.510  0.5099  0.0971 -0.7632
66193SOL    HW1 5694   3.132   5.100   1.569 -0.3696 -1.2233  1.4209
66193SOL    HW2 5695   3.028   5.091   1.460 -0.4787  1.0128  1.2814
66194SOL     OW 5696   3.025   1.537   1.422  0.0761 -0.3388  0.0370
66194SOL    HW1 5697   3.109   1.495   1.400  0.2137 -0.5835  1.0052
66194SOL    HW2 5698   3.049   1.626   1.449 -0.0662 -0.1396 -0.4684
66195SOL     OW 5699   2.717   0.222  10.152  0.3843 -0.0356  0.5152
66195SOL    HW1 5700   2.706   0.212  10.058 -0.4644 -1.9691  0.7750
66195SOL    HW2 5701   2.803   0.184  10.170 -0.2133 -1.3703  0.7078
66196SOL     OW 5702   5.627   1.530   6.989 -0.3631  0.4153 -0.4879
66196SOL    HW1 5703   5.621   1.440   7.019 -1.9614  0.9506  0.9661
66196SOL    HW2 5704   5.588   1.529   6.901  1.1643 -0.5631 -1.1925
66197SOL     OW 5705  10.821   2.203   1.275  0.2971  0.5116 -0.3885
66197SOL    HW1 5706  10.777   2.225   1.357 -2.4349 -2.4861 -0.8383
66197SOL    HW2 5707  10.761   2.234   1.207  0.1727 -1.2270 -1.1078
66198SOL     OW 5708   7.207   9.813   3.368  0.2901 -0.2378 -0.1028
66198SOL    HW1 5709   7.165   9.734   3.401  0.2624  0.6883  2.3451
66198SOL    HW2 5710   7.143   9.883   3.386  1.7880  0.8373  1.3964
66199SOL     OW 5711   7.095   6.552   5.136 -0.1435 -0.6211  0.2000
66199SOL    HW1 5712   7.151   6.594   5.201 -2.3399  1.3356  0.9780
66199SOL    HW2 5713   7.136   6.573   5.052  0.6050  0.3102  0.7748
66200SOL     OW 5714  12.109   1.277   4.681  0.2826 -0.7771  0.0927
66200SOL    HW1 5715  12.179   1.325   4.725 -0.2954 -0.8889  1.1750
66200SOL    HW2 5716  12.073   1.340   4.618  1.5829 -0.8499 -0.7590
66201SOL     OW 5717   3.495   9.762   4.804 -0.3288 -1.2467 -0.0216
66201SOL    HW1 5718   3.489   9.758   4.899 -0.6684 -0.3602  0.0063
66201SOL    HW2 5719   3.586   9.789   4.787 -0.7157  0.2377  0.1290
66202SOL     OW 5720   4.649   1.203  11.790  0.1739  0.4180 -0.6064
66202SOL    HW1 5721   4.729   1.242  11.754  0.2942 -0.2970 -1.1282
66202SOL    HW2 5722   4.618   1.144  11.721  0.0732 -0.5192  0.2297
66203SOL     OW 5723   1.313  12.084   8.796  0.0957 -0.0071 -0.3555
66203SOL    HW1 5724   1.218  12.092   8.800  0.0230 -1.0878  0.8309
66203SOL    HW2 5725   1.331  12.045   8.711 -0.6849 -1.4041  0.0877
66204SOL     OW 5726   7.268  11.568  10.053 -0.1441  0.2119  0.4327
66204SOL    HW1 5727   7.258  11.662  10.062 -1.1356  0.0497  1.3038
66204SOL    HW2 5728   7.258  11.534  10.142 -0.5266 -0.7675  0.0373
66205SOL     OW 5729   7.856   3.615   6.346 -0.1006 -0.0204 -0.1176
66205SOL    HW1 5730   7.837   3.536   6.396 -1.1392 -1.1575 -2.1591
66205SOL    HW2 5731   7.821   3.686   6.399 -1.8052 -1.2222  0.4434
66206SOL     OW 5732   5.492   5.386   6.433 -0.2864 -0.5158 -0.4591
66206SOL    HW1 5733   5.461   5.464   6.386  0.6865 -0.4780 -1.0498
66206SOL    HW2 5734   5.557   5.420   6.495 -0.1768 -0.8065 -0.4139
66207SOL     OW 5735   6.667   2.992   9.964  0.1867 -0.6806 -0.2410
66207SOL    HW1 5736   6.701   3.069  10.009  1.4605 -1.9300  1.0631
66207SOL    HW2 5737   6.668   2.923  10.031 -0.7941 -1.8647 -1.3897
66208SOL     OW 5738   5.956   2.686   8.590 -0.2958  0.4315 -0.5114
66208SOL    HW1 5739   5.875   2.725   8.623  0.1452  0.2564  0.8454
66208SOL    HW2 5740   6.019   2.758   8.589 -0.2344  0.3760 -0.7326
66209SOL     OW 5741   9.730   1.509   7.602  0.0298 -0.0231 -0.8747
66209SOL    HW1 5742   9.701   1.521   7.512  0.9558 -1.4887 -1.3830
66209SOL    HW2 5743   9.672   1.567   7.653 -0.8238  0.4535 -2.3322
66210SOL     OW 5744   0.405   6.954   3.557 -0.2970  0.0310 -0.2203
66210SOL    HW1 5745   0.380   6.937   3.466  1.6147  1.5301 -1.1028
66210SOL    HW2 5746   0.325   6.986   3.598 -0.9984  0.1411 -1.6145
66211SOL     OW 5747  12.830  12.718   1.357 -0.2512  0.1528 -0.5063
66211SOL    HW1 5748  12.770  12.770   1.410  0.8752  1.0340 -0.0601
66211SOL    HW2 5749  12.796  12.629   1.362 -1.2649  0.5652  0.0915
66212SOL     OW 5750   6.826   0.794  12.736  0.3170 -0.0523 -0.2850
66212SOL    HW1 5751   6.887   0.868  12.737  0.7264 -0.3897 -0.0311
66212SOL    HW2 5752   6.741   0.834  12.721  0.6071  0.4183 -0.7268
66213SOL     OW 5753   6.435   1.284  11.403  0.3247 -0.5477 -0.1446
66213SOL    HW1 5754   6.513   1.340  11.396  0.5058 -0.8461 -0.5891
66213SOL    HW2 5755   6.463   1.210  11.456 -0.2174  0.2808  1.3647
66214SOL     OW 5756   4.110   9.750   0.145 -0.1485 -0.0064  0.2203
66214SOL    HW1 5757   4.127   9.842   0.126  0.0410  0.3662  1.9885
66214SOL    HW2 5758   4.126   9.705   0.062  1.3738  1.3528 -0.2819
66215SOL     OW 5759  10.593   1.811   8.930  0.3465 -0.0434  0.9321
66215SOL    HW1 5760  10.523   1.869   8.898 -0.2280 -1.5753 -0.7513
66215SOL    HW2 5761  10.610   1.841   9.019 -2.4586  0.3988  1.4134
66216SOL     OW 5762  10.144  11.779   6.631 -0.0932  0.2061  0.1398
66216SOL    HW1 5763  10.134  11.859   6.580 -1.6161  0.2365  0.4141
66216SOL    HW2 5764  10.087  11.715   6.587  0.5265 -0.5066  0.3487
66217SOL     OW 5765   6.726   5.781   9.256 -0.1704 -0.3059 -0.1893
66217SOL    HW1 5766   6.757   5.798   9.167 -0.0859  2.8956  0.3143
66217SOL    HW2 5767   6.655   5.718   9.246  0.4223 -0.6799 -2.4157
66218SOL     OW 5768   4.295  12.870   1.498 -0.3223  0.3114  0.8033
66218SOL    HW1 5769   4.228  12.817   1.540  1.0953 -1.7536  0.6522
66218SOL    HW2 5770   4.329  12.813   1.428  0.8902  1.6700  0.2429
66219SOL     OW 5771  12.122   1.930   6.120 -0.4328  0.6064  0.4528
66219SOL    HW1 5772  12.180   1.890   6.184 -0.4722 -0.9426 -0.4062
66219SOL    HW2 5773  12.075   1.998   6.168  0.2017  0.1206  1.8080
66220SOL     OW 5774   9.755  12.068   7.722  0.0010 -0.1902  0.1466
66220SOL    HW1 5775   9.703  12.146   7.741  0.2760  0.8283 -2.7169
66220SOL    HW2 5776   9.846  12.100   7.721  0.2414 -0.8608  0.3148
66221SOL     OW 5777   7.868   0.304   1.588  0.2742  0.0903 -0.5259
66221SOL    HW1 5778   7.812   0.376   1.561 -1.8422 -0.0904  2.8869
66221SOL    HW2 5779   7.942   0.346   1.633 -1.2928  0.2572  2.0545
66222SOL     OW 5780   5.742   3.844   7.585  0.3878  0.4595 -0.2127
66222SOL    HW1 5781   5.819   3.900   7.593  1.0785 -0.5702  0.6817
66222SOL    HW2 5782   5.772   3.758   7.612 -1.3624  0.2790  1.4031
66223SOL     OW 5783   1.936   1.848   8.312 -0.1343  0.3174  0.2371
66223SOL    HW1 5784   1.889   1.916   8.360 -0.0523 -0.1680  1.0352
66223SOL    HW2 5785   1.875   1.821   8.243 -0.2882  0.9718  0.1076
66224SOL     OW 5786   6.078   5.874  11.898  0.0701 -0.2384  0.4773
66224SOL    HW1 5787   6.118   5.929  11.831 -2.0630 -0.3401 -0.9807
66224SOL    HW2 5788   6.087   5.924  11.979  1.4507  0.5241 -0.1139
66225SOL     OW 5789   6.627   9.696   1.344  0.1641  0.2564 -0.1112
66225SOL    HW1 5790   6.608   9.738   1.260  1.3478  1.7717  0.3375
66225SOL    HW2 5791   6.547   9.705   1.395  0.2518  1.5636 -0.1922
66226SOL     OW 5792  10.664   9.344   2.960  0.4147  0.7936 -0.0320
66226SOL    HW1 5793  10.730   9.315   3.022  1.7733 -0.0075 -1.7871
66226SOL    HW2 5794  10.665   9.279   2.890 -0.2544  2.2314 -1.4641
66227SOL     OW 5795   3.384   1.995  11.012 -0.0876 -0.6137  0.3869
66227SOL    HW1 5796   3.456   2.019  10.954  0.2994 -2.1021  0.2250
66227SOL    HW2 5797   3.423   1.937  11.077 -0.8683 -0.3419  1.1212
66228SOL     OW 5798   1.106   0.964   8.678  0.1629 -0.7367  0.5598
66228SOL    HW1 5799   1.038   0.996   8.737 -0.2382 -2.5860  1.1419
66228SOL    HW2 5800   1.123   1.038   8.619 -2.2472 -0.1897  0.4728
66229SOL     OW 5801   6.500   0.316   2.234  0.1401  0.5030  0.4172
66229SOL    HW1 5802   6.595   0.303   2.241  0.0166 -2.2075 -1.3241
66229SOL    HW2 5803   6.462   0.244   2.283 -0.9373 -0.0845 -1.1893
66230SOL     OW 5804   8.861   5.664  12.231  0.0326 -0.4018 -0.1384
66230SOL    HW1 5805   8.864   5.573  12.260  1.5192 -0.8710 -1.6217
66230SOL    HW2 5806   8.787   5.667  12.170  1.2261 -1.1927 -1.7122
66231SOL     OW 5807   7.604   8.667  10.860 -0.0333  0.2388  0.2585
66231SOL    HW1 5808   7.573   8.695  10.946  1.5118 -0.6415  1.1375
66231SOL    HW2 5809   7.610   8.571  10.867  3.6256  0.3576  0.4791
66232SOL     OW 5810   7.750   6.225  11.905  1.1657  0.2701  0.4699
66232SOL    HW1 5811   7.756   6.162  11.976  0.5585 -0.9567 -0.5180
66232SOL    HW2 5812   7.841   6.242  11.879  1.3235 -0.3968  0.5888
66233SOL     OW 5813   2.720   1.663   4.009 -0.6498 -0.3429 -0.1389
66233SOL    HW1 5814   2.712   1.670   3.914  0.6056  1.4607 -0.1660
66233SOL    HW2 5815   2.699   1.751   4.041  1.4684 -0.2004  1.0161
66234SOL     OW 5816  11.562   9.697   7.584 -0.4126 -0.3876  0.0202
66234SOL    HW1 5817  11.468   9.693   7.565 -0.9074  0.9154  1.9474
66234SOL    HW2 5818  11.581   9.614   7.628 -0.1612 -1.5432 -2.1138
66235SOL     OW 5819   6.545  12.014   4.140 -0.1475 -0.2852 -0.3974
66235SOL    HW1 5820   6.548  12.108   4.158  0.2535 -0.5865  1.2316
66235SOL    HW2 5821   6.595  12.003   4.059  1.3968  0.6877  0.3898
66236SOL     OW 5822   9.999   2.914   9.664 -0.0045 -0.3835  0.2734
66236SOL    HW1 5823   9.916   2.961   9.672  0.7893  1.1270 -0.0896
66236SOL    HW2 5824  10.058   2.958   9.725  0.4710 -1.6243  0.7411
66237SOL     OW 5825   2.836   2.947  10.081  0.1178 -0.2014 -0.3793
66237SOL    HW1 5826   2.877   3.011  10.140 -1.7381 -0.5066  1.3493
66237SOL    HW2 5827   2.747   2.937  10.116 -0.9430 -0.7079 -3.0322
66238SOL     OW 5828   2.127   4.086   5.804 -0.8217  0.3575  0.1021
66238SOL    HW1 5829   2.196   4.025   5.828 -0.4911  1.4407  2.1258
66238SOL    HW2 5830   2.066   4.034   5.750 -1.0978 -2.0525  2.5397
66239SOL     OW 5831   9.472   2.956  12.013  0.4023  0.3599  0.1148
66239SOL    HW1 5832   9.503   2.874  12.052  1.2116  1.7661  2.6267
66239SOL    HW2 5833   9.552   3.008  12.001 -0.2642  1.4116  0.1248
66240SOL     OW 5834   8.747   9.002   4.636 -0.1198  0.1124 -0.0365
66240SOL    HW1 5835   8.690   8.927   4.619  0.8683 -0.8014  0.5751
66240SOL    HW2 5836   8.771   8.993   4.728 -0.6370  1.6577  0.2805
66241SOL     OW 5837   0.939  12.554  12.830  0.1124  0.0385  0.3473
66241SOL    HW1 5838   0.970  12.644  12.819  0.5501 -0.0769  0.6053
66241SOL    HW2 5839   0.884  12.538  12.754  1.5580 -0.1083 -0.7042
66242SOL     OW 5840   2.117   4.923   6.733  0.3257  0.1806 -0.3266
66242SOL    HW1 5841   2.048   4.983   6.760  1.3766  0.8902  0.8984
66242SOL    HW2 5842   2.196   4.977   6.733  0.7051 -0.2373 -3.1342
66243SOL     OW 5843  11.004   7.089   8.111 -0.0857 -0.2677  0.5977
66243SOL    HW1 5844  11.065   7.086   8.037  0.5479 -1.2433  1.1309
66243SOL    HW2 5845  10.941   7.020   8.093 -0.9811  0.6468  0.1203
66244SOL     OW 5846   1.986   3.500  10.941 -0.7941 -0.5826 -0.1852
66244SOL    HW1 5847   2.007   3.566  11.007 -1.9967 -0.8275  0.4690
66244SOL    HW2 5848   1.977   3.418  10.990  0.5540 -1.2351 -0.9743
66245SOL     OW 5849   0.752   8.139  10.958  0.1573  0.1812  0.3468
66245SOL    HW1 5850   0.674   8.181  10.994 -0.7484 -0.2951 -0.9584
66245SOL    HW2 5851   0.725   8.110  10.871  0.9883 -2.3278  0.8420
66246SOL     OW 5852  10.096   2.396   5.105  0.3798 -0.2747 -0.2126
66246SOL    HW1 5853  10.029   2.440   5.156 -0.5172  0.1703 -1.7254
66246SOL    HW2 5854  10.049   2.356   5.032  2.0301  2.9507 -3.3265
66247SOL     OW 5855   4.147   0.659  10.407 -0.2024  0.1493 -0.2580
66247SOL    HW1 5856   4.155   0.723  10.477  0.0184  0.8674 -0.9257
66247SOL    HW2 5857   4.056   0.667  10.377 -0.8269 -1.3729  1.0610
66248SOL     OW 5858   1.353  11.003  12.911  0.2716  0.0714 -0.6133
66248SOL    HW1 5859   1.271  10.955  12.924 -0.3694  0.9828 -1.2501
66248SOL    HW2 5860   1.398  10.994  12.995 -0.4001 -0.5704 -0.3009
66249SOL     OW 5861   1.819   5.189   2.598  0.0991 -0.2846  0.1610
66249SOL    HW1 5862   1.824   5.198   2.693  0.2366 -0.4943  0.1738
66249SOL    HW2 5863   1.735   5.228   2.574  0.8592  1.4648  0.1767
66250SOL     OW 5864  10.982   1.538  12.222  1.2263 -0.4523 -0.7558
66250SOL    HW1 5865  10.999   1.456  12.176 -2.9465 -0.0468 -3.6234
66250SOL    HW2 5866  10.952   1.512  12.309  1.0623 -1.9251 -1.2274
66251SOL     OW 5867   7.189   8.399   3.629 -0.2313  0.4853 -0.5353
66251SOL    HW1 5868   7.166   8.311   3.660  0.8011  0.3197 -0.1994
66251SOL    HW2 5869   7.284   8.404   3.638 -0.4725  2.5408  1.8822
66252SOL     OW 5870  12.851   4.092   8.137  0.1797  0.4502  0.1900
66252SOL    HW1 5871  12.921   4.030   8.118  0.8136  1.5960 -1.4929
66252SOL    HW2 5872  12.781   4.069   8.076  1.0912  2.3593 -1.7130
66253SOL     OW 5873   0.520  12.426   7.205 -0.2629 -0.1525 -0.5475
66253SOL    HW1 5874   0.476  12.486   7.144  0.3171  0.4982 -0.3495
66253SOL    HW2 5875   0.524  12.475   7.287 -0.0838 -0.6034 -0.2859
66254SOL     OW 5876  11.635   5.143   0.102 -0.5697 -0.1093  0.1198
66254SOL    HW1 5877  11.728   5.141   0.081 -0.5132  1.3496  0.1411
66254SOL    HW2 5878  11.594   5.089   0.033  0.2766 -0.8260  0.1569
66255SOL     OW 5879   3.448  11.521   3.904  0.4700 -0.8883  0.1071
66255SOL    HW1 5880   3.412  11.517   3.992  0.8297 -1.6582  0.2246
66255SOL    HW2 5881   3.456  11.615   3.885 -0.8912 -0.7024  0.3597
66256SOL     OW 5882  11.748   8.837  11.911  0.0610  0.0788 -0.2733
66256SOL    HW1 5883  11.790   8.817  11.827  1.2505 -1.8957  0.7103
66256SOL    HW2 5884  11.669   8.783  11.912 -0.2720  0.5594 -0.3588
66257SOL     OW 5885   1.519   9.674   2.880  0.1592 -0.2226  0.0211
66257SOL    HW1 5886   1.440   9.710   2.919  0.3452 -0.2498  0.4304
66257SOL    HW2 5887   1.491   9.590   2.842  0.2627 -0.8962  1.3612
66258SOL     OW 5888  10.378   2.333   4.788  0.3538 -0.3128 -0.3022
66258SOL    HW1 5889  10.399   2.380   4.707 -0.0269  0.0845 -0.1760
66258SOL    HW2 5890  10.462   2.321   4.831  0.5129 -0.1832 -0.5709
66259SOL     OW 5891   3.420   2.482  12.681  0.1260 -0.1444 -0.0448
66259SOL    HW1 5892   3.446   2.562  12.728 -0.8881 -0.0182  0.3272
66259SOL    HW2 5893   3.327   2.495  12.663  0.6161  0.1418 -2.7597
66260SOL     OW 5894   2.485   9.112  10.346  0.3304 -0.1033  0.0775
66260SOL    HW1 5895   2.425   9.156  10.406 -0.3737  0.7944 -1.2475
66260SOL    HW2 5896   2.428   9.065  10.286  1.0552 -2.1767  0.9304
66261SOL     OW 5897   3.815   9.941   4.283 -0.0521  0.4191  0.2433
66261SOL    HW1 5898   3.824   9.972   4.373 -0.3173  1.2480 -0.0059
66261SOL    HW2 5899   3.780  10.016   4.235 -1.9181 -0.6448 -0.1525
66262SOL     OW 5900   7.178   6.975   6.771  0.7136 -1.0106 -0.7191
66262SOL    HW1 5901   7.132   6.894   6.791 -1.2788  0.3924  0.7094
66262SOL    HW2 5902   7.115   7.027   6.720  0.3196  1.2154  1.8224
66263SOL     OW 5903   7.782  11.522  12.098 -0.2395 -0.1396 -0.2588
66263SOL    HW1 5904   7.706  11.480  12.138  1.2250 -1.9371  0.7823
66263SOL    HW2 5905   7.785  11.609  12.138 -1.9754  0.1484 -0.6815
66264SOL     OW 5906  11.955   3.997   6.194 -0.2640  0.2014  0.0356
66264SOL    HW1 5907  11.978   4.008   6.286 -0.2699 -2.5196  0.4619
66264SOL    HW2 5908  11.903   4.074   6.172  0.1085  1.1300  2.1688
66265SOL     OW 5909   3.445   3.217  11.290  0.4654 -0.3215 -0.3942
66265SOL    HW1 5910   3.460   3.132  11.331 -0.4272  0.3071  1.3148
66265SOL    HW2 5911   3.362   3.207  11.244  0.8384 -0.6392 -1.0206
66266SOL     OW 5912   5.935   4.787   5.906  0.5478 -0.3340 -0.2944
66266SOL    HW1 5913   6.022   4.826   5.895  0.5934  0.3588  1.8865
66266SOL    HW2 5914   5.876   4.863   5.910  0.0955 -0.6970  0.0043
66267SOL     OW 5915   7.086   7.376   1.498  0.1470  0.1974  0.5190
66267SOL    HW1 5916   7.027   7.312   1.457 -0.3933  1.1062 -0.1632
66267SOL    HW2 5917   7.029   7.428   1.553 -0.1112  2.2984 -1.5684
66268SOL     OW 5918   4.177   3.467   7.164 -0.1113  0.6615 -0.5223
66268SOL    HW1 5919   4.246   3.511   7.214  0.6893  2.2603 -2.8593
66268SOL    HW2 5920   4.117   3.537   7.140 -0.8899 -0.1926 -1.1352
66269SOL     OW 5921   2.113   4.132   3.192 -0.7293  0.6578  0.3561
66269SOL    HW1 5922   2.096   4.094   3.279  0.2432 -0.1366  0.2205
66269SOL    HW2 5923   2.191   4.187   3.206 -0.1394 -0.0356 -0.1528
66270SOL     OW 5924  11.383   8.703   0.000 -0.5110  0.2945  0.3541
66270SOL    HW1 5925  11.306   8.760  -0.001 -0.3923  0.4707 -0.9913
66270SOL    HW2 5926  11.440   8.738  -0.068 -0.4994 -1.4993 -0.6225
66271SOL     OW 5927   1.602   9.275   4.692  0.1438  0.5044  0.2393
66271SOL    HW1 5928   1.549   9.344   4.652  0.7497  0.8387  0.0046
66271SOL    HW2 5929   1.540   9.224   4.744 -0.2557  1.4073  0.6620
66272SOL     OW 5930  11.384  10.248   9.055 -0.4642 -0.6234  0.0430
66272SOL    HW1 5931  11.397  10.154   9.070 -0.7119 -0.9427 -1.5342
66272SOL    HW2 5932  11.292  10.255   9.029 -0.8268  0.2632  1.4588
66273SOL     OW 5933  11.261  12.486   9.609  0.2917  0.3521  0.5359
66273SOL    HW1 5934  11.219  12.507   9.526 -1.4570  1.6684  1.6781
66273SOL    HW2 5935  11.199  12.430   9.655  1.7920 -1.4471  0.5058
66274SOL     OW 5936   2.041   5.318   6.737 -0.1880 -0.0306  0.2695
66274SOL    HW1 5937   2.005   5.231   6.724  0.2736 -0.1680 -0.1161
66274SOL    HW2 5938   1.990   5.374   6.678  0.0382 -0.1814 -0.0787
66275SOL     OW 5939   1.378   5.270  12.701  0.3051 -0.1074  0.1225
66275SOL    HW1 5940   1.431   5.347  12.718  1.4457 -0.7903 -0.2589
66275SOL    HW2 5941   1.434   5.212  12.649 -1.3202 -0.2243 -1.6150
66276SOL     OW 5942   4.590   1.763   4.338  0.3125  0.1846  0.1456
66276SOL    HW1 5943   4.532   1.768   4.262 -0.3387 -1.3547  0.5092
66276SOL    HW2 5944   4.657   1.699   4.314  0.7763  0.5415  0.4535
66277SOL     OW 5945   0.486  11.274   4.369  0.7481 -0.2047 -0.1254
66277SOL    HW1 5946   0.478  11.302   4.277  1.6632  0.0338 -0.1448
66277SOL    HW2 5947   0.398  11.246   4.393  0.5922 -0.7135 -1.2194
66278SOL     OW 5948   9.612   0.964  11.883 -0.2465  0.5300 -0.0827
66278SOL    HW1 5949   9.603   0.887  11.939  2.4136 -0.9186 -1.4436
66278SOL    HW2 5950   9.671   1.022  11.930  1.3162 -0.3164 -0.9159
66279SOL     OW 5951   0.403  12.608   6.612  0.3113  0.4164  0.0580
66279SOL    HW1 5952   0.478  12.635   6.560 -0.3596  0.5374 -0.8758
66279SOL    HW2 5953   0.406  12.663   6.690  1.4825  0.0539  0.2827
66280SOL     OW 5954   8.398   1.706  11.357 -0.1268  0.3533  0.8576
66280SOL    HW1 5955   8.339   1.641  11.396 -0.6270  0.2081 -0.1059
66280SOL    HW2 5956   8.343   1.784  11.345  0.1670  0.5758  0.9343
66281SOL     OW 5957  10.575  10.052   3.021 -0.3304 -0.0828  0.2682
66281SOL    HW1 5958  10.636  10.005   2.963 -1.7465 -0.6290 -0.8358
66281SOL    HW2 5959  10.611  10.039   3.108  0.3050 -1.7082 -0.1958
66282SOL     OW 5960   9.389   5.711   8.725  0.4328  0.2231  0.0841
66282SOL    HW1 5961   9.423   5.799   8.709  1.3322  0.0955  1.1739
66282SOL    HW2 5962   9.388   5.702   8.820  0.2033 -0.8887 -0.0063
66283SOL     OW 5963   5.755   0.152   7.090 -0.6769  0.0858 -0.0968
66283SOL    HW1 5964   5.799   0.237   7.098  0.7007 -0.3833 -2.0158
66283SOL    HW2 5965   5.677   0.170   7.038 -0.1516  0.1087 -0.8808
66284SOL     OW 5966   9.747   5.365   9.462 -0.3253  0.5688 -0.5704
66284SOL    HW1 5967   9.717   5.302   9.528 -0.1416  0.0682 -0.9566
66284SOL    HW2 5968   9.667   5.404   9.428 -0.4031  1.1621  0.2646
66285SOL     OW 5969   7.442   6.936   8.024  0.2253  0.1563  0.6101
66285SOL    HW1 5970   7.396   6.854   8.041  1.9259 -1.6635 -2.6070
66285SOL    HW2 5971   7.534   6.915   8.036  0.6562  1.8071  0.4432
66286SOL     OW 5972   3.541   1.859   3.406 -0.1396 -0.0604  0.0421
66286SOL    HW1 5973   3.622   1.861   3.456  0.5119  3.1966 -0.9065
66286SOL    HW2 5974   3.475   1.895   3.466 -0.4755 -0.8694  0.1682
66287SOL     OW 5975   7.672  12.076   5.974  0.4673  0.3132 -0.0277
66287SOL    HW1 5976   7.585  12.115   5.985  0.1811  0.1377 -1.4583
66287SOL    HW2 5977   7.728  12.150   5.949  0.9232  0.5602  1.5819
66288SOL     OW 5978   1.933  11.828   0.998  0.4160 -0.3007  0.0900
66288SOL    HW1 5979   1.997  11.774   0.952 -0.3060  0.1298 -1.4873
66288SOL    HW2 5980   1.857  11.831   0.939 -1.3206 -1.2584  2.1271
66289SOL     OW 5981   6.701   9.166  10.327  0.2877  0.1362 -0.4594
66289SOL    HW1 5982   6.609   9.150  10.308  0.2999 -0.1634 -0.2757
66289SOL    HW2 5983   6.703   9.187  10.420  0.6934 -2.4251  0.1793
66290SOL     OW 5984   6.407   5.537   9.878 -0.5021  0.3052 -0.6864
66290SOL    HW1 5985   6.334   5.525   9.818  0.4425  0.1948 -1.8561
66290SOL    HW2 5986   6.480   5.565   9.822  0.1652  1.1191  0.5351
66291SOL     OW 5987   7.478   2.120  11.668  0.3732  0.5458  0.0885
66291SOL    HW1 5988   7.428   2.096  11.746  2.0019 -1.1415  0.6815
66291SOL    HW2 5989   7.518   2.204  11.690  0.1183  0.5016  0.7437
66292SOL     OW 5990   3.197   5.717   2.395 -0.3895 -0.0416 -0.2888
66292SOL    HW1 5991   3.147   5.637   2.379  0.4059 -0.3381 -1.4579
66292SOL    HW2 5992   3.264   5.692   2.458  1.0096 -0.8300 -2.0039
66293SOL     OW 5993   3.108   9.255   7.992 -0.4146  0.1237  0.1467
66293SOL    HW1 5994   3.161   9.248   7.913 -0.1259  1.6896  0.1754
66293SOL    HW2 5995   3.059   9.173   7.994  0.1230 -0.2761 -1.2429
66294SOL     OW 5996  11.733   4.415   2.201 -0.5611 -0.0167  0.4150
66294SOL    HW1 5997  11.685   4.446   2.277 -0.8889 -0.1872  0.2753
66294SOL    HW2 5998  11.789   4.345   2.235 -1.8809 -1.2062  0.2086
66295SOL     OW 5999   6.690   0.133   8.053  0.6503  0.1201  0.6325
66295SOL    HW1 6000   6.622   0.173   8.107 -1.6891 -0.8654 -1.3818
66295SOL    HW2 6001   6.729   0.206   8.004 -0.3224  0.4848  0.3925
66296SOL     OW 6002   6.659   7.858   2.101 -0.1518 -0.2680 -0.2897
66296SOL    HW1 6003   6.622   7.943   2.123 -0.8346 -0.4308 -0.7784
66296SOL    HW2 6004   6.731   7.846   2.163 -0.7066  0.2042  0.4508
66297SOL     OW 6005   9.055   2.144   3.022  0.6638  0.2394 -0.4303
66297SOL    HW1 6006   9.102   2.203   3.081 -2.1085 -0.7721  3.1055
66297SOL    HW2 6007   8.980   2.195   2.993 -0.3041 -0.6505  0.4695
66298SOL     OW 6008  12.811   0.234   3.328 -0.3555  0.1041 -0.2958
66298SOL    HW1 6009  12.868   0.169   3.287 -1.0114 -0.1601 -0.8023
66298SOL    HW2 6010  12.727   0.189   3.337  0.2494 -0.6320  3.2988
66299SOL     OW 6011   5.584   5.807   3.380  0.1989 -0.0072  0.0678
66299SOL    HW1 6012   5.616   5.722   3.350 -0.2501 -0.2957  0.3996
66299SOL    HW2 6013   5.489   5.798   3.381  0.0818  0.9079 -1.0979
66300SOL     OW 6014  11.949  11.243   9.555  0.2290  0.3303 -0.0112
66300SOL    HW1 6015  11.863  11.285   9.551 -1.2349 -2.4395  0.5243
66300SOL    HW2 6016  11.972  11.245   9.648  0.1216 -0.0990  0.0249
66301SOL     OW 6017   9.899   2.544   8.292  0.5923 -0.5116 -0.3620
66301SOL    HW1 6018   9.909   2.638   8.311  1.2082 -0.3661 -1.3408
66301SOL    HW2 6019   9.940   2.500   8.367  1.5340  0.0259 -0.5379
66302SOL     OW 6020   4.337   3.888   1.930  0.0413  0.0656 -0.0863
66302SOL    HW1 6021   4.408   3.825   1.923  1.8397  1.8467  1.1254
66302SOL    HW2 6022   4.281   3.853   1.999  0.5388 -0.5994 -0.0083
66303SOL     OW 6023   8.440  11.761   3.032 -0.2714  0.2568  0.0305
66303SOL    HW1 6024   8.491  11.819   2.975  0.1406 -1.2141 -1.1720
66303SOL    HW2 6025   8.411  11.691   2.974 -2.7114  0.4211  0.9356
66304SOL     OW 6026   2.784   9.210   3.757  0.2021 -0.3095  0.2803
66304SOL    HW1 6027   2.838   9.132   3.743 -0.2682 -0.7318  0.7412
66304SOL    HW2 6028   2.831   9.280   3.714 -1.2962 -1.5215 -3.7633
66305SOL     OW 6029   0.502   4.372  11.259  0.1256 -0.1213 -0.3824
66305SOL    HW1 6030   0.422   4.324  11.280 -0.0556  0.7032  0.9218
66305SOL    HW2 6031   0.568   4.334  11.317  0.7772 -1.0104 -1.6672
66306SOL     OW 6032   5.888   4.230   9.413  0.0145 -0.7006 -0.1226
66306SOL    HW1 6033   5.958   4.189   9.362 -0.7439  0.1472 -1.9390
66306SOL    HW2 6034   5.807   4.193   9.378 -0.6170  1.1494 -0.7810
66307SOL     OW 6035  10.464   3.092  12.408  0.5443 -0.3097  0.5839
66307SOL    HW1 6036  10.439   3.162  12.469  1.5977  1.3611 -0.8297
66307SOL    HW2 6037  10.549   3.120  12.373 -0.8577 -0.1950 -3.0927
66308SOL     OW 6038   4.928   3.318   1.354  0.1422  0.4297  0.4062
66308SOL    HW1 6039   4.904   3.259   1.282 -1.5324  0.6354  0.7511
66308SOL    HW2 6040   4.856   3.381   1.359  1.7044  2.3183  0.3000
66309SOL     OW 6041   8.623  10.456   5.965  0.1918 -0.5690 -0.4706
66309SOL    HW1 6042   8.532  10.483   5.974  0.4652  0.3557 -0.3235
66309SOL    HW2 6043   8.619  10.366   5.932 -0.7687 -0.6506 -0.1493
66310SOL     OW 6044   8.721   1.494   0.651 -0.4249 -0.0921  0.1644
66310SOL    HW1 6045   8.675   1.492   0.735 -1.6576  3.3169 -0.2634
66310SOL    HW2 6046   8.804   1.537   0.672 -0.1737 -0.4110 -0.1682
66311SOL     OW 6047  11.658  12.476   6.163 -0.1244 -0.4880  0.0167
66311SOL    HW1 6048  11.730  12.466   6.224  1.0516 -0.8769 -1.3857
66311SOL    HW2 6049  11.594  12.530   6.210  0.5671 -1.0737  1.6943
66312SOL     OW 6050   9.341   7.119   1.501  0.7208  0.3999 -0.3377
66312SOL    HW1 6051   9.319   7.067   1.578  0.8390 -0.0345 -0.5928
66312SOL    HW2 6052   9.384   7.197   1.536  0.8142  0.1843  0.0301
66313SOL     OW 6053   5.413   9.211   8.863 -0.0852 -0.3568 -0.2341
66313SOL    HW1 6054   5.370   9.143   8.915 -1.5438  0.3435 -0.4658
66313SOL    HW2 6055   5.507   9.198   8.878 -0.3868 -1.7382  0.5566
66314SOL     OW 6056  10.548  12.101  11.909 -0.5653 -0.4601 -0.0486
66314SOL    HW1 6057  10.525  12.083  12.000 -0.1515 -0.3214  0.0858
66314SOL    HW2 6058  10.632  12.146  11.914 -0.7832  0.0009 -0.4750
66315SOL     OW 6059   1.979   8.339   0.396  0.1781 -0.3756  0.2153
66315SOL    HW1 6060   1.889   8.307   0.402  0.3752 -0.7027  1.5422
66315SOL    HW2 6061   1.981   8.418   0.449  0.6292 -0.2666  0.0457
66316SOL     OW 6062  11.509   5.539   2.210 -0.1105  0.0030 -0.0831
66316SOL    HW1 6063  11.569   5.560   2.281 -0.5853  1.0288  0.0334
66316SOL    HW2 6064  11.548   5.463   2.167 -0.4845 -1.4814  2.0640
66317SOL     OW 6065   9.065   5.823   5.118 -0.3316  0.1618 -0.2514
66317SOL    HW1 6066   9.155   5.837   5.089 -0.5531  1.6221 -0.3117
66317SOL    HW2 6067   9.073   5.786   5.206  0.3311  1.1919  0.1362
66318SOL     OW 6068   0.002  12.047   7.168 -0.2440 -0.0398  0.8051
66318SOL    HW1 6069   0.002  12.143   7.164  0.5843 -0.0785 -1.5870
66318SOL    HW2 6070  -0.032  12.019   7.083  1.0784 -1.8618  0.8030
66319SOL     OW 6071   3.286   0.325   9.620  0.4309  0.6824 -0.0924
66319SOL    HW1 6072   3.323   0.412   9.638  0.0585  0.7589  0.3113
66319SOL    HW2 6073   3.293   0.278   9.703  2.2764 -0.3103 -0.7412
66320SOL     OW 6074  12.012   5.260  12.710  0.2213  0.2998  0.1292
66320SOL    HW1 6075  11.921   5.291  12.719 -0.0991 -0.5877  0.0436
66320SOL    HW2 6076  12.042   5.298  12.627 -0.5169 -0.4416 -0.4985
66321SOL     OW 6077   4.843   6.246   2.644  0.3984  0.5319  0.1378
66321SOL    HW1 6078   4.849   6.338   2.618  3.0022  0.1481 -0.8898
66321SOL    HW2 6079   4.928   6.208   2.620 -0.6087 -2.1730  0.4505
66322SOL     OW 6080  11.993   0.168   9.181 -0.0739 -0.0280 -0.1482
66322SOL    HW1 6081  11.999   0.246   9.236 -0.8252 -1.4738  2.1272
66322SOL    HW2 6082  12.069   0.174   9.123  0.8846  1.5168  1.1707
66323SOL     OW 6083  11.824  10.930   5.038 -0.1969  0.6165 -0.1453
66323SOL    HW1 6084  11.786  10.979   5.110 -3.0281 -0.5896 -0.6433
66323SOL    HW2 6085  11.884  10.991   4.996 -0.3036  2.1449  1.7762
66324SOL     OW 6086   7.776   4.634   0.722 -0.2179  0.1350 -0.1611
66324SOL    HW1 6087   7.714   4.691   0.677 -1.7348 -2.0669 -1.0092
66324SOL    HW2 6088   7.740   4.624   0.811  0.9652  1.7604  0.5605
66325SOL     OW 6089   9.228   8.799   8.927 -0.1765 -0.5166  0.1468
66325SOL    HW1 6090   9.317   8.770   8.946  0.0152  0.8538  1.5398
66325SOL    HW2 6091   9.231   8.828   8.836  0.7055 -0.8327  0.0688
66326SOL     OW 6092   0.913   8.769   9.791  0.3125  0.3188 -0.2784
66326SOL    HW1 6093   0.964   8.691   9.812 -1.5686 -0.9737 -0.2533
66326SOL    HW2 6094   0.908   8.818   9.874  1.3682  0.3997 -0.2582
66327SOL     OW 6095   5.407   3.639  12.876 -0.0014  0.2014 -0.1387
66327SOL    HW1 6096   5.388   3.731  12.863 -0.4405  0.2409  0.6805
66327SOL    HW2 6097   5.502   3.632  12.869  0.1194  0.8803  0.6871
66328SOL     OW 6098   7.230   5.555  11.860  0.2648  0.0312  0.4511
66328SOL    HW1 6099   7.306   5.592  11.904  0.7514 -1.4413  0.9270
66328SOL    HW2 6100   7.264   5.520  11.778 -0.1469  0.4584  0.0913
66329SOL     OW 6101   4.145   2.454   6.270  0.1111  0.7582  0.0145
66329SOL    HW1 6102   4.182   2.425   6.353 -1.9568  0.5108  0.8874
66329SOL    HW2 6103   4.206   2.522   6.240  1.1662  0.4922  1.4470
66330SOL     OW 6104   3.050  12.301   0.276  0.4373  0.0251 -0.2018
66330SOL    HW1 6105   3.120  12.358   0.308  0.0812  0.7602 -0.7143
66330SOL    HW2 6106   3.086  12.213   0.285  1.1837  0.3516  0.1500
66331SOL     OW 6107   1.666   9.206   8.141  0.0306  0.1330  0.0986
66331SOL    HW1 6108   1.612   9.128   8.152 -1.7278  1.0096 -1.7344
66331SOL    HW2 6109   1.608   9.279   8.160  1.0502  1.0633 -0.2392
66332SOL     OW 6110   7.633   9.445   8.941 -0.2902  0.3338  0.1772
66332SOL    HW1 6111   7.680   9.523   8.969 -0.8062  0.0072  2.0979
66332SOL    HW2 6112   7.542   9.462   8.966 -0.7166 -0.2180 -0.9059
66333SOL     OW 6113   4.746  10.312   7.854 -0.3717  0.4558  0.0164
66333SOL    HW1 6114   4.750  10.346   7.944 -0.0156 -0.2471  0.2696
66333SOL    HW2 6115   4.705  10.226   7.863 -2.3529  1.2656 -0.7562
66334SOL     OW 6116   4.895   0.633   7.661 -0.2919  0.4572  0.0590
66334SOL    HW1 6117   4.951   0.639   7.739 -0.1894  0.2942 -0.0027
66334SOL    HW2 6118   4.954   0.607   7.591 -0.5946 -0.5657  0.1646
66335SOL     OW 6119   5.334  10.426   4.175 -0.3211 -0.3349 -0.4391
66335SOL    HW1 6120   5.407  10.364   4.166  0.2338  0.4238 -1.2713
66335SOL    HW2 6121   5.291  10.426   4.090 -0.7211 -0.0701 -0.2398
66336SOL     OW 6122   9.388   2.036   9.365 -0.3599 -0.0647  0.1406
66336SOL    HW1 6123   9.400   2.110   9.304  0.1735  1.3138  1.8297
66336SOL    HW2 6124   9.460   1.977   9.345  2.1413  2.1553  1.7973
66337SOL     OW 6125   8.807   1.432   6.093 -0.3084  0.3356 -0.0621
66337SOL    HW1 6126   8.713   1.451   6.081 -0.1655  2.2402  1.3157
66337SOL    HW2 6127   8.840   1.420   6.005 -1.8231 -0.2450 -0.5930
66338SOL     OW 6128   4.766   5.178   4.055 -0.2772  0.3380 -0.0330
66338SOL    HW1 6129   4.720   5.111   4.106 -1.6542  0.9509 -0.4339
66338SOL    HW2 6130   4.823   5.221   4.119 -2.1070  1.2157  1.1064
66339SOL     OW 6131  10.759   6.248   6.509 -0.3152 -0.1464  0.1497
66339SOL    HW1 6132  10.668   6.271   6.528  0.1506  1.0567  1.0341
66339SOL    HW2 6133  10.801   6.247   6.594  0.7925  0.6221 -0.3706
66340SOL     OW 6134   2.334   2.761  10.544  0.2341 -0.5632 -0.2102
66340SOL    HW1 6135   2.340   2.667  10.532  1.2978 -0.6268  0.6170
66340SOL    HW2 6136   2.331   2.773  10.639 -2.4899  0.1327 -0.2959
66341SOL     OW 6137   2.595   9.805   8.208 -0.4997 -0.3673  0.1531
66341SOL    HW1 6138   2.551   9.816   8.292  0.9278 -0.7033  0.9687
66341SOL    HW2 6139   2.684   9.836   8.223  0.5632 -2.8804 -0.4700
66342SOL     OW 6140   8.077   0.638   0.829 -0.1385  0.1841  0.1453
66342SOL    HW1 6141   8.036   0.709   0.878 -2.1989 -0.2381 -0.8715
66342SOL    HW2 6142   8.041   0.646   0.741  1.6705 -0.5138 -0.6999
66343SOL     OW 6143   0.625   1.075   5.465 -0.1543  0.1499  0.1564
66343SOL    HW1 6144   0.600   1.111   5.380 -1.4749  1.3652  1.0269
66343SOL    HW2 6145   0.705   1.025   5.447 -0.8697 -0.3211 -1.9318
66344SOL     OW 6146   6.544   4.239  12.093 -0.5255 -0.0663 -1.1202
66344SOL    HW1 6147   6.623   4.261  12.142  1.7666 -1.1842 -4.0094
66344SOL    HW2 6148   6.479   4.304  12.122  1.3233  0.7848  1.5255
66345SOL     OW 6149   9.383   5.799   0.171 -0.0706 -0.3597 -0.7468
66345SOL    HW1 6150   9.314   5.734   0.166 -0.9117  0.3246  1.0187
66345SOL    HW2 6151   9.367   5.857   0.096 -2.9370  1.1589  0.8652
66346SOL     OW 6152  12.416   1.024  12.200 -0.0095 -0.7549  0.0970
66346SOL    HW1 6153  12.366   1.008  12.280  2.1261  1.9255  2.1381
66346SOL    HW2 6154  12.349   1.047  12.135 -1.6723 -0.4333  1.8012
66347SOL     OW 6155  10.977   3.979   3.692 -0.9082  0.8826  0.0405
66347SOL    HW1 6156  10.982   4.032   3.772 -3.0221 -0.1812  0.9404
66347SOL    HW2 6157  10.966   3.890   3.723 -0.2399  0.2394 -1.4714
66348SOL     OW 6158   4.324   0.255  10.256 -0.1123  0.4745 -0.1195
66348SOL    HW1 6159   4.395   0.248  10.192 -0.1832 -1.5480 -0.0431
66348SOL    HW2 6160   4.245   0.233  10.206 -0.5380  1.4408  0.0980
66349SOL     OW 6161   8.208   9.783   0.376 -0.3232 -0.1355 -0.1358
66349SOL    HW1 6162   8.185   9.876   0.376 -1.6506 -0.4358 -0.4117
66349SOL    HW2 6163   8.274   9.775   0.444 -0.3239  0.9821  0.0195
66350SOL     OW 6164   2.545   2.502   6.295  0.0285 -0.2830 -0.0713
66350SOL    HW1 6165   2.612   2.441   6.264  0.9175  0.0409  1.1490
66350SOL    HW2 6166   2.471   2.489   6.235  0.2378 -2.4400  0.0636
66351SOL     OW 6167   6.758  12.328  12.189  0.0365  0.5617  0.2385
66351SOL    HW1 6168   6.754  12.420  12.216  2.2327  0.8268 -0.1511
66351SOL    HW2 6169   6.742  12.330  12.094 -0.5374  0.4503  0.3278
66352SOL     OW 6170   8.922  12.073   9.732  0.1502  0.1012  0.1318
66352SOL    HW1 6171   8.962  12.118   9.806  0.7787  0.3781 -0.3722
66352SOL    HW2 6172   8.995  12.036   9.683  0.0072  2.2426 -1.8798
66353SOL     OW 6173   0.420   9.845  12.397 -0.2906  0.4216  0.5999
66353SOL    HW1 6174   0.503   9.859  12.441  0.7500  2.0826 -1.6976
66353SOL    HW2 6175   0.354   9.874  12.460  1.1436  3.1075  0.9852
66354SOL     OW 6176   3.124   1.274  10.116 -0.2078  0.1305  0.4897
66354SOL    HW1 6177   3.125   1.182  10.142 -1.0997 -0.2878 -0.8703
66354SOL    HW2 6178   3.171   1.319  10.186  0.2604 -1.3551  1.1684
66355SOL     OW 6179   0.679   3.534   7.514 -0.1174 -0.1277 -0.5799
66355SOL    HW1 6180   0.667   3.442   7.490 -0.1109 -0.2677 -0.0596
66355SOL    HW2 6181   0.715   3.575   7.435  0.9122 -0.8002 -0.4748
66356SOL     OW 6182  11.348   6.962  10.719  0.0216  0.1293  0.3121
66356SOL    HW1 6183  11.331   7.036  10.777 -2.1809 -0.1258  0.0932
66356SOL    HW2 6184  11.270   6.957  10.664  0.2707 -2.1304  0.0807
66357SOL     OW 6185   6.666   6.465   4.704  0.3044 -0.5105  0.2087
66357SOL    HW1 6186   6.719   6.442   4.628 -2.1475 -1.2634 -1.3895
66357SOL    HW2 6187   6.668   6.387   4.759  1.8233 -0.0802  0.7973
66358SOL     OW 6188   6.797   4.072   6.110 -0.3156 -0.3118 -0.0350
66358SOL    HW1 6189   6.744   4.125   6.170  1.7148  1.2049  0.5403
66358SOL    HW2 6190   6.872   4.045   6.163  0.0490 -1.4616 -1.1062
66359SOL     OW 6191   1.796  12.694   6.391  0.1972  0.0130  0.0720
66359SOL    HW1 6192   1.801  12.782   6.352 -1.5612 -0.0569 -0.3801
66359SOL    HW2 6193   1.801  12.710   6.485 -1.3473  0.7420  0.0590
66360SOL     OW 6194   5.765   7.960   5.612  0.2256  0.3943  0.0236
66360SOL    HW1 6195   5.766   7.895   5.542 -2.2991  1.0496 -0.7416
66360SOL    HW2 6196   5.735   7.912   5.689 -1.7689  0.6223 -0.5716
66361SOL     OW 6197   6.330   0.076   0.095  0.5022 -0.4061  0.4786
66361SOL    HW1 6198   6.394   0.129   0.143  0.8811 -0.3643 -0.0542
66361SOL    HW2 6199   6.258   0.064   0.156  0.4472  0.6563  0.6419
66362SOL     OW 6200   1.381   1.537   8.260  0.0996  0.0425  0.2389
66362SOL    HW1 6201   1.440   1.463   8.269  1.0266  0.7895  0.4699
66362SOL    HW2 6202   1.423   1.608   8.308 -1.4021  0.3748  1.1450
66363SOL     OW 6203   4.758   9.304   8.593  0.0704  0.5642 -0.3646
66363SOL    HW1 6204   4.830   9.252   8.558  0.1848 -0.5582  1.3830
66363SOL    HW2 6205   4.679   9.259   8.565  0.0642  1.1822 -1.3748
66364SOL     OW 6206  10.412   2.472   0.579 -0.0371  0.2507  0.0068
66364SOL    HW1 6207  10.342   2.531   0.607  0.6969  0.3656  1.6976
66364SOL    HW2 6208  10.383   2.385   0.607  0.3813  0.2724  0.5252
66365SOL     OW 6209  10.743  10.659   6.709 -0.0577 -0.9411  0.0496
66365SOL    HW1 6210  10.703  10.572   6.716 -0.0753 -0.8343  1.7396
66365SOL    HW2 6211  10.674  10.718   6.740 -0.2013 -0.2504 -1.4970
66366SOL     OW 6212   3.431   2.342   6.935 -0.6215  0.3479 -0.3510
66366SOL    HW1 6213   3.446   2.264   6.882 -0.7484  0.5954 -0.7568
66366SOL    HW2 6214   3.412   2.411   6.871  2.3433  1.4201 -0.2384
66367SOL     OW 6215   1.137   8.760   4.768  0.5906  0.1468  0.3467
66367SOL    HW1 6216   1.071   8.701   4.733 -0.4641  2.8671 -2.6677
66367SOL    HW2 6217   1.091   8.812   4.834  0.4643  0.1897  0.2242
66368SOL     OW 6218  10.904   0.192   9.460 -0.4077  0.2427  0.4582
66368SOL    HW1 6219  10.988   0.152   9.439 -0.5001 -0.1923  0.9146
66368SOL    HW2 6220  10.863   0.207   9.375  0.6005  1.5050  0.1655
66369SOL     OW 6221  11.941  10.209   0.344 -0.0450 -0.0910  0.1567
66369SOL    HW1 6222  11.900  10.253   0.270 -2.2003 -0.1482  1.2406
66369SOL    HW2 6223  11.914  10.117   0.335  0.0562 -0.1832  0.7431
66370SOL     OW 6224   3.572   4.119   7.202  0.3938 -0.0645 -0.0905
66370SOL    HW1 6225   3.583   4.203   7.246 -0.0895 -0.3965  0.6888
66370SOL    HW2 6226   3.661   4.085   7.191  0.5063 -0.1158  0.9178
66371SOL     OW 6227  11.512  10.307  11.753 -0.3582 -0.5586  0.1763
66371SOL    HW1 6228  11.560  10.230  11.722 -0.7160 -1.0161  0.7339
66371SOL    HW2 6229  11.423  10.295  11.720 -0.0451  0.4113 -1.0656
66372SOL     OW 6230   4.528   1.593   9.907  0.1009  0.3744  0.2770
66372SOL    HW1 6231   4.543   1.533   9.835  3.9485  2.5562 -1.0598
66372SOL    HW2 6232   4.452   1.645   9.880 -0.1735 -0.6158 -0.9233
66373SOL     OW 6233  12.356   5.383   2.694 -0.1091  0.2242 -0.0750
66373SOL    HW1 6234  12.349   5.295   2.731  0.7072 -0.2824 -1.0759
66373SOL    HW2 6235  12.390   5.370   2.606  0.2701  1.5642 -0.1595
66374SOL     OW 6236   1.185  11.174   2.487  0.2593  0.6197 -0.1860
66374SOL    HW1 6237   1.152  11.103   2.542  2.0911 -1.9048 -2.0975
66374SOL    HW2 6238   1.171  11.253   2.540 -0.2282 -1.3148  2.8662
66375SOL     OW 6239   1.194   8.092   7.744  0.0488 -0.2472  0.4824
66375SOL    HW1 6240   1.231   8.043   7.671  1.1254 -0.3614  1.0791
66375SOL    HW2 6241   1.181   8.180   7.710  0.4260 -0.3325  0.1158
66376SOL     OW 6242  12.544   8.876   0.465  0.6105 -0.0572 -0.9226
66376SOL    HW1 6243  12.495   8.958   0.468  1.2761  0.3358 -0.4084
66376SOL    HW2 6244  12.635   8.903   0.457  1.3991 -0.4990  3.7885
66377SOL     OW 6245   9.883   7.938   8.320  0.2938 -0.1580  0.3169
66377SOL    HW1 6246   9.949   7.936   8.252  0.6396 -1.5135  0.6583
66377SOL    HW2 6247   9.930   7.916   8.400 -0.2467  0.6627  0.8759
66378SOL     OW 6248   2.071   0.126  12.294 -0.4140 -0.4930  0.2892
66378SOL    HW1 6249   2.091   0.167  12.210  1.3783 -3.1828 -0.7482
66378SOL    HW2 6250   2.058   0.199  12.354 -0.1132  1.5290 -1.9485
66379SOL     OW 6251   3.147  10.201   5.467 -0.1282 -0.0614  0.3692
66379SOL    HW1 6252   3.053  10.214   5.457 -0.2437  1.0466  2.4527
66379SOL    HW2 6253   3.169  10.240   5.551  2.3643  0.4220 -0.4081
66380SOL     OW 6254   9.646   0.180   9.099  0.6963 -0.0791 -0.0213
66380SOL    HW1 6255   9.737   0.151   9.089 -0.2175 -2.9340 -1.0834
66380SOL    HW2 6256   9.637   0.255   9.040  2.5230  0.7648  0.7070
66381SOL     OW 6257   8.474  12.871  11.625 -0.0030  0.3305 -0.0183
66381SOL    HW1 6258   8.542  12.850  11.689 -0.1448  1.0995  0.3936
66381SOL    HW2 6259   8.495  12.816  11.549  0.6629  0.0414  0.3638
66382SOL     OW 6260   0.798  10.059   6.109  0.4778  0.4055  0.1579
66382SOL    HW1 6261   0.839  10.145   6.103 -1.2090  1.2336  0.1474
66382SOL    HW2 6262   0.833  10.011   6.033  1.1840  1.1617 -0.0112
66383SOL     OW 6263   7.814   1.783   7.436 -0.2651 -0.0503 -0.0505
66383SOL    HW1 6264   7.733   1.819   7.398  0.3751  2.0408  0.4421
66383SOL    HW2 6265   7.786   1.744   7.519 -0.9115 -0.2777 -0.3648
66384SOL     OW 6266  11.841   6.096   2.711 -0.1661 -0.0551  0.1133
66384SOL    HW1 6267  11.890   6.074   2.790  0.9764  1.5591 -0.1112
66384SOL    HW2 6268  11.752   6.112   2.742  0.3398  0.8926  1.1373
66385SOL     OW 6269   1.227   9.221  11.497  0.5769  0.1816  0.4941
66385SOL    HW1 6270   1.283   9.212  11.421  0.9828 -1.0981  0.9165
66385SOL    HW2 6271   1.230   9.315  11.519 -0.9760  0.9271 -2.0851
66386SOL     OW 6272  10.017   8.490   3.428  0.7003 -0.3490  0.1361
66386SOL    HW1 6273   9.929   8.466   3.455  0.7293 -0.0312  0.5120
66386SOL    HW2 6274  10.022   8.464   3.336  0.7769 -1.8845  0.5543
66387SOL     OW 6275   7.477   1.795   3.385  0.1330  0.1541  0.1697
66387SOL    HW1 6276   7.515   1.792   3.298 -0.2887  1.5225 -0.0865
66387SOL    HW2 6277   7.526   1.730   3.435  2.8544  1.8525 -0.1216
66388SOL     OW 6278   8.520   2.930   9.131  0.0920  0.0179 -0.0841
66388SOL    HW1 6279   8.549   2.846   9.097  0.1447  0.2374 -0.5830
66388SOL    HW2 6280   8.509   2.985   9.054 -1.2727  0.0578  0.1127
66389SOL     OW 6281   2.224   4.191   2.911  0.1436  0.0323 -0.1158
66389SOL    HW1 6282   2.186   4.161   2.994 -0.5432 -1.5749 -0.9854
66389SOL    HW2 6283   2.172   4.268   2.888 -1.6642 -1.2662 -0.5354
66390SOL     OW 6284   6.822   2.591   1.436  0.2200  0.2855  0.0448
66390SOL    HW1 6285   6.805   2.544   1.517 -0.7128  1.0225  0.2960
66390SOL    HW2 6286   6.812   2.684   1.459 -0.2721  0.5032 -0.9529
66391SOL     OW 6287   9.357   3.256   4.819  0.3303 -0.8736 -0.0591
66391SOL    HW1 6288   9.414   3.325   4.785  0.0000 -1.1803 -1.2819
66391SOL    HW2 6289   9.416   3.182   4.834  0.4287 -0.8383 -0.2690
66392SOL     OW 6290   2.566   3.730   1.825 -0.2820 -0.2218 -0.0222
66392SOL    HW1 6291   2.565   3.687   1.740  1.2513  0.9945 -0.7061
66392SOL    HW2 6292   2.542   3.820   1.807  0.7876  0.2267  0.7124
66393SOL     OW 6293   3.546   4.441   7.341 -0.7725  0.3606  0.1184
66393SOL    HW1 6294   3.504   4.490   7.271 -0.6519  0.7630  0.3291
66393SOL    HW2 6295   3.496   4.463   7.420 -1.6616 -1.0024 -0.0158
66394SOL     OW 6296   3.278  11.815   2.427  1.0155  0.1436 -0.3210
66394SOL    HW1 6297   3.188  11.823   2.395  0.8214 -2.2678 -0.5618
66394SOL    HW2 6298   3.329  11.788   2.350  1.8034  0.7022 -0.0121
66395SOL     OW 6299   2.610  10.640   4.774 -0.1683  0.9284  0.2826
66395SOL    HW1 6300   2.624  10.735   4.784 -0.1147  0.8974  0.5082
66395SOL    HW2 6301   2.694  10.601   4.797  0.3978  0.9185 -1.6427
66396SOL     OW 6302  10.953  11.412  12.251 -0.5721  0.1646 -0.0003
66396SOL    HW1 6303  10.974  11.504  12.241 -0.5298 -0.0555 -2.8111
66396SOL    HW2 6304  11.002  11.384  12.328  1.8902  1.7968 -0.8685
66397SOL     OW 6305   4.599   8.359   1.212  0.1301 -0.4383  0.1048
66397SOL    HW1 6306   4.551   8.322   1.286  1.0049 -1.3883  0.2114
66397SOL    HW2 6307   4.630   8.444   1.243 -2.1043  0.5825 -0.2224
66398SOL     OW 6308   5.625   5.321   8.167  0.2698 -0.1820  0.2677
66398SOL    HW1 6309   5.550   5.350   8.114  0.5684 -0.8490 -0.5494
66398SOL    HW2 6310   5.594   5.326   8.257 -1.7127 -2.9993 -0.1301
66399SOL     OW 6311   2.759   8.475   5.099  0.2680 -0.0868 -0.2614
66399SOL    HW1 6312   2.691   8.469   5.166  0.6860 -0.2512  0.1528
66399SOL    HW2 6313   2.803   8.558   5.118 -0.6827  0.6929 -1.3652
66400SOL     OW 6314   8.439   7.169   0.364  0.0306 -0.6221 -0.1876
66400SOL    HW1 6315   8.366   7.134   0.313 -0.0437 -0.6769 -0.0454
66400SOL    HW2 6316   8.492   7.218   0.301 -0.0889 -0.6456 -0.3058
66401SOL     OW 6317   8.197   3.316  12.194  0.4998 -0.2123  0.3523
66401SOL    HW1 6318   8.151   3.393  12.226  1.5438  0.5170  0.1368
66401SOL    HW2 6319   8.135   3.273  12.135  0.6744  1.6828 -1.2883
66402SOL     OW 6320   3.197   3.488   4.889 -0.5089  0.2605 -0.0626
66402SOL    HW1 6321   3.269   3.431   4.918 -0.7884  0.4236  1.0071
66402SOL    HW2 6322   3.153   3.438   4.820 -0.4516 -0.6253  0.5201
66403SOL     OW 6323   8.662   3.535   0.702 -0.1735  0.0782 -0.1308
66403SOL    HW1 6324   8.751   3.514   0.671 -0.3339  1.2382 -1.5069
66403SOL    HW2 6325   8.645   3.622   0.665 -1.2468  0.6011  1.5302
66404SOL     OW 6326   5.165   9.615   6.145  0.1464 -0.3840 -0.3943
66404SOL    HW1 6327   5.252   9.577   6.146  0.9854  1.4103  0.4206
66404SOL    HW2 6328   5.178   9.705   6.176 -1.7436  0.4952 -1.9259
66405SOL     OW 6329   9.229   3.632   9.389 -0.3689 -0.2661  0.2520
66405SOL    HW1 6330   9.320   3.605   9.400 -0.7049 -1.2582  0.7272
66405SOL    HW2 6331   9.216   3.700   9.454  0.5007  1.1391 -0.9735
66406SOL     OW 6332  11.997   2.059  12.039  0.0860 -0.3825  0.0569
66406SOL    HW1 6333  11.949   2.084  12.118 -0.2891 -1.7425  0.2762
66406SOL    HW2 6334  12.005   1.964  12.044  2.2020 -0.2688 -0.3360
66407SOL     OW 6335   6.407   3.002  11.474  0.6452 -0.8287 -0.5279
66407SOL    HW1 6336   6.327   2.957  11.448  0.3053 -1.5207  1.5909
66407SOL    HW2 6337   6.475   2.964  11.418 -0.1548 -1.7100 -0.9266
66408SOL     OW 6338  12.579  12.381   5.953  0.1389  0.2805 -0.1891
66408SOL    HW1 6339  12.577  12.285   5.961  1.0680  0.1745 -0.9910
66408SOL    HW2 6340  12.523  12.412   6.023 -0.4437 -0.8706 -0.1184
66409SOL     OW 6341   8.833   6.684   4.293 -0.5416 -0.1808  0.1301
66409SOL    HW1 6342   8.863   6.746   4.227 -0.2622  0.5942  0.9691
66409SOL    HW2 6343   8.751   6.649   4.258 -0.6647  0.6140 -0.3906
66410SOL     OW 6344  12.810   3.305   9.311 -0.4531  0.5540  0.3048
66410SOL    HW1 6345  12.839   3.344   9.394  1.2151  0.7665 -0.3459
66410SOL    HW2 6346  12.876   3.332   9.247 -1.9795  0.8325 -1.2293
66411SOL     OW 6347  12.372  12.656   9.287  0.3467  0.0288 -0.1470
66411SOL    HW1 6348  12.386  12.631   9.378  2.6704  2.5083  0.2948
66411SOL    HW2 6349  12.301  12.721   9.290 -0.2377 -0.5905 -0.2668
66412SOL     OW 6350   3.447   2.340   2.868 -0.2004  0.8057 -0.5640
66412SOL    HW1 6351   3.521   2.315   2.924 -0.9729 -0.2171  0.0582
66412SOL    HW2 6352   3.454   2.435   2.858  1.0495  0.7498 -0.3234
66413SOL     OW 6353  10.168   0.664   5.559  0.4689 -0.0419  0.1144
66413SOL    HW1 6354  10.157   0.570   5.549 -0.7490  0.2482 -1.9512
66413SOL    HW2 6355  10.125   0.701   5.482  2.5827  2.1148 -0.1429
66414SOL     OW 6356  11.966   6.340  10.630 -0.2771  0.5890 -0.2576
66414SOL    HW1 6357  12.037   6.313  10.688  0.2082 -0.5458 -1.3407
66414SOL    HW2 6358  11.961   6.435  10.641 -0.4229  0.3846  1.8472
66415SOL     OW 6359   7.472   5.365   3.772  0.0221 -0.1733 -0.2668
66415SOL    HW1 6360   7.396   5.321   3.736 -0.5119  0.5624 -0.0777
66415SOL    HW2 6361   7.438   5.449   3.804  0.9993  0.3926 -0.6515
66416SOL     OW 6362   5.630   8.201  12.455 -0.3434 -0.1247 -0.1207
66416SOL    HW1 6363   5.701   8.263  12.466  0.4567 -1.2105  1.1447
66416SOL    HW2 6364   5.650   8.155  12.373  0.2520 -0.2022  0.0640
66417SOL     OW 6365   6.754   3.665  10.237  0.5509 -0.0888 -0.3019
66417SOL    HW1 6366   6.804   3.746  10.230 -0.2145  0.3788 -0.4952
66417SOL    HW2 6367   6.700   3.663  10.158  0.6466 -0.8450 -0.3534
66418SOL     OW 6368   8.262  12.006  10.323  0.2706  0.3109 -0.3881
66418SOL    HW1 6369   8.272  11.920  10.281  2.4436  0.4590 -0.3021
66418SOL    HW2 6370   8.231  12.063  10.253  0.1917 -0.2377 -0.8106
66419SOL     OW 6371   9.257   5.261   0.211 -0.6116 -0.8406 -0.2185
66419SOL    HW1 6372   9.193   5.285   0.144 -0.1046  0.2154 -0.3525
66419SOL    HW2 6373   9.239   5.321   0.284  1.4871  0.9476 -1.0373
66420SOL     OW 6374   7.150   0.659  12.578  0.0366  0.2180 -0.3859
66420SOL    HW1 6375   7.223   0.660  12.639 -0.7882  0.3093  0.6284
66420SOL    HW2 6376   7.122   0.567  12.574 -1.9602  0.6437  1.9442
66421SOL     OW 6377  10.781   5.572   5.497  0.7701 -0.3897 -0.2145
66421SOL    HW1 6378  10.786   5.489   5.449  0.5786 -1.3237  1.3035
66421SOL    HW2 6379  10.871   5.605   5.497  1.2698 -1.6535  0.8791
66422SOL     OW 6380  10.088   1.210  10.012  0.0186  0.2260 -0.5401
66422SOL    HW1 6381  10.057   1.121   9.995 -0.0268 -0.0588  0.9201
66422SOL    HW2 6382  10.183   1.203  10.011  0.0473  0.4975 -1.9879
66423SOL     OW 6383   7.715   8.817  11.749  0.0765 -0.7065 -0.0189
66423SOL    HW1 6384   7.803   8.835  11.717  1.0649  1.5047  3.3781
66423SOL    HW2 6385   7.658   8.867  11.691  1.4534  0.8291 -0.1393
66424SOL     OW 6386  11.342   4.716  11.071  0.1454 -0.7357  0.4818
66424SOL    HW1 6387  11.420   4.662  11.081  1.0419  0.4277 -0.0540
66424SOL    HW2 6388  11.366   4.782  11.007 -0.9017  0.3551  1.1643
66425SOL     OW 6389  12.029   9.845   9.898  0.0476 -0.4098 -0.1123
66425SOL    HW1 6390  12.085   9.857   9.975  1.1439 -1.2064 -0.7345
66425SOL    HW2 6391  11.976   9.924   9.893 -2.3540 -1.5683  3.2326
66426SOL     OW 6392   0.472   0.953   7.554  0.2308 -0.0411 -0.9030
66426SOL    HW1 6393   0.379   0.972   7.555  0.0541 -0.9022 -0.3505
66426SOL    HW2 6394   0.488   0.901   7.633  1.3059  0.6758 -0.6199
66427SOL     OW 6395   2.838   4.042  11.808  0.0967 -0.2385 -0.1783
66427SOL    HW1 6396   2.906   3.987  11.770  1.1375  0.9086 -0.0552
66427SOL    HW2 6397   2.834   4.016  11.900  0.8931  0.1752 -0.0194
66428SOL     OW 6398   2.348   5.729   5.893 -0.0834 -0.2343  0.2672
66428SOL    HW1 6399   2.427   5.712   5.944  0.0290  0.7458  0.4507
66428SOL    HW2 6400   2.298   5.647   5.896  1.1629 -1.0346 -0.3001
66429SOL     OW 6401   4.666   3.945   5.261 -0.0280 -0.1352 -0.1554
66429SOL    HW1 6402   4.596   4.009   5.249 -2.2943 -1.8403  2.7493
66429SOL    HW2 6403   4.721   3.982   5.330 -1.5766 -1.2759  1.8319
66430SOL     OW 6404   1.255   7.360   0.461  0.6159 -0.1956 -0.5531
66430SOL    HW1 6405   1.181   7.352   0.522  1.5699 -0.1649  0.6364
66430SOL    HW2 6406   1.309   7.284   0.479  0.9853 -0.1079 -1.2779
66431SOL     OW 6407   0.963  12.454   0.602 -0.7093 -0.4478 -0.0041
66431SOL    HW1 6408   0.868  12.449   0.589 -1.5074  0.4672  4.0573
66431SOL    HW2 6409   0.994  12.509   0.530 -3.3078 -0.3461 -1.1736
66432SOL     OW 6410   2.780   4.453   9.793  0.1648 -0.3559 -0.4297
66432SOL    HW1 6411   2.701   4.400   9.801  0.7825 -1.0808  1.1788
66432SOL    HW2 6412   2.830   4.434   9.872  1.1353  1.4450 -0.5693
66433SOL     OW 6413   9.195   7.016   5.944 -0.3804 -0.0701  0.0674
66433SOL    HW1 6414   9.146   7.056   6.016 -0.4587  2.3700 -1.2080
66433SOL    HW2 6415   9.287   7.035   5.965 -0.4667  1.8134 -1.0118
66434SOL     OW 6416  10.283   1.172  12.046  0.3798 -0.2922 -0.3275
66434SOL    HW1 6417  10.330   1.252  12.071  0.3549 -0.2050 -0.5561
66434SOL    HW2 6418  10.338   1.132  11.978  0.5293 -0.6135 -0.0197
66435SOL     OW 6419   8.188   9.549   9.003 -0.1225  0.1150  0.4109
66435SOL    HW1 6420   8.184   9.580   9.093  1.1354 -0.9705  0.8693
66435SOL    HW2 6421   8.274   9.577   8.971 -0.6263  0.6564 -0.5340
66436SOL     OW 6422   1.416   0.880   7.690 -0.0766  0.0044  0.2178
66436SOL    HW1 6423   1.416   0.797   7.643  0.8400 -0.5990  1.2640
66436SOL    HW2 6424   1.324   0.893   7.715 -1.1478  1.6049 -3.8177
66437SOL     OW 6425   4.681   4.250   1.773  0.2088 -0.1580 -0.4817
66437SOL    HW1 6426   4.615   4.204   1.826 -0.1438  0.5997 -0.2474
66437SOL    HW2 6427   4.659   4.228   1.683 -1.5904  1.6207 -0.5386
66438SOL     OW 6428   4.731   6.875   4.169  0.7528  0.1366  0.0606
66438SOL    HW1 6429   4.795   6.903   4.234  0.0761 -2.2707  1.9212
66438SOL    HW2 6430   4.652   6.923   4.191 -0.1920 -2.3249  2.7676
66439SOL     OW 6431   9.582   9.731   1.179 -0.2634 -0.0213 -0.6271
66439SOL    HW1 6432   9.536   9.768   1.104 -0.1188  0.4167 -0.4987
66439SOL    HW2 6433   9.513   9.714   1.243 -0.6555 -2.0757 -1.5098
66440SOL     OW 6434   8.782   1.456   3.772  0.2086  0.4901 -0.2219
66440SOL    HW1 6435   8.736   1.393   3.828 -1.2773  0.6623 -1.2016
66440SOL    HW2 6436   8.798   1.532   3.829 -0.2625  0.2219  0.2718
66441SOL     OW 6437   9.506   5.786  11.518 -1.0218  0.2479 -0.0330
66441SOL    HW1 6438   9.418   5.823  11.514 -2.3551 -2.7959 -2.2827
66441SOL    HW2 6439   9.499   5.702  11.474  2.7205 -0.8289  1.0708
66442SOL     OW 6440   3.657   4.799   0.213  0.3408  0.0379  0.0070
66442SOL    HW1 6441   3.749   4.791   0.238  0.4203  0.3099 -0.1924
66442SOL    HW2 6442   3.655   4.871   0.150  0.4203 -1.6361 -2.0626
66443SOL     OW 6443   7.266  11.077   5.960  0.7541  0.3335  0.3942
66443SOL    HW1 6444   7.361  11.077   5.973  0.7908  0.8740  0.1615
66443SOL    HW2 6445   7.238  11.164   5.990  0.1654 -0.2667  1.6280
66444SOL     OW 6446   0.839   4.146   3.210  0.1983  0.0799 -0.2441
66444SOL    HW1 6447   0.826   4.051   3.218  0.7112  0.0262 -0.0145
66444SOL    HW2 6448   0.787   4.170   3.133 -0.6292 -0.2427  0.1986
66445SOL     OW 6449  11.069   0.035   7.022  0.2883 -0.3198  0.8006
66445SOL    HW1 6450  11.003  -0.026   7.055  0.0755 -0.8419 -0.5029
66445SOL    HW2 6451  11.133   0.043   7.092 -1.1148  0.1396  2.0717
66446SOL     OW 6452   8.239   1.059   3.428  0.0502  0.0617 -0.7378
66446SOL    HW1 6453   8.159   1.008   3.414 -0.2757  0.0942  0.8463
66446SOL    HW2 6454   8.303   0.996   3.460  0.1408  0.3465 -0.3505
66447SOL     OW 6455  10.560   3.448   6.031 -0.2209 -0.2805 -0.0086
66447SOL    HW1 6456  10.541   3.458   6.124  1.4896 -0.3724  0.3782
66447SOL    HW2 6457  10.649   3.413   6.028  0.7027  1.9927 -1.7046
66448SOL     OW 6458   5.067   2.544   1.911  0.4690 -0.1621  0.2594
66448SOL    HW1 6459   5.055   2.633   1.941 -0.8103  0.0787 -0.8929
66448SOL    HW2 6460   4.979   2.508   1.902  0.9332 -1.3478  0.1359
66449SOL     OW 6461   9.782  10.636  10.184 -0.3528  0.0981  0.0780
66449SOL    HW1 6462   9.870  10.663  10.158 -0.3428  2.2713  2.0979
66449SOL    HW2 6463   9.794  10.593  10.268 -1.2654  1.2277  0.8149
66450SOL     OW 6464   6.980  10.172   2.129 -0.5251 -0.0912  0.2341
66450SOL    HW1 6465   6.944  10.084   2.141  2.4967 -1.4446  0.1179
66450SOL    HW2 6466   7.024  10.191   2.212  2.1579 -0.4033 -1.0276
66451SOL     OW 6467  10.496  12.614  11.666  0.0525  0.5295  0.4601
66451SOL    HW1 6468  10.486  12.643  11.756  0.3000  0.2355  0.5829
66451SOL    HW2 6469  10.456  12.527  11.664  0.4460  0.3470  0.3953
66452SOL     OW 6470  11.659   0.649   4.994  0.5006 -0.5817 -0.2077
66452SOL    HW1 6471  11.633   0.708   5.064  0.6844 -0.0514 -0.5777
66452SOL    HW2 6472  11.585   0.649   4.933  0.4784 -0.7737 -0.1805
66453SOL     OW 6473   4.716   2.690   1.698  0.2665 -0.3999  0.2082
66453SOL    HW1 6474   4.622   2.677   1.706  0.4135 -1.4746  0.2602
66453SOL    HW2 6475   4.737   2.753   1.768 -0.5719  0.7470 -0.5343
66454SOL     OW 6476   2.109   6.950  12.149 -0.5172  0.5052 -0.0481
66454SOL    HW1 6477   2.029   6.998  12.124 -1.1464 -0.0462  0.8663
66454SOL    HW2 6478   2.080   6.860  12.161  0.5322  0.0078 -1.0680
66455SOL     OW 6479   6.131   1.320   4.294  0.0854 -0.0701 -0.3130
66455SOL    HW1 6480   6.179   1.292   4.216  0.3312 -0.2955 -0.0879
66455SOL    HW2 6481   6.199   1.331   4.361 -0.0705  0.5651 -0.2528
66456SOL     OW 6482   5.321  10.729   8.275 -0.1930 -0.7863  0.3932
66456SOL    HW1 6483   5.226  10.730   8.289 -1.2091 -1.3758 -4.6767
66456SOL    HW2 6484   5.341  10.815   8.239  1.3270 -0.6450  1.4473
66457SOL     OW 6485   7.469   4.666   4.646  0.0222  0.0338  0.0615
66457SOL    HW1 6486   7.447   4.760   4.651  2.0087  0.5404  0.1849
66457SOL    HW2 6487   7.528   4.659   4.572  0.5911 -0.9688  0.5882
66458SOL     OW 6488   9.726   4.026  10.344  0.0292 -0.1623  0.0098
66458SOL    HW1 6489   9.681   4.053  10.264 -0.7477 -1.1829  0.0881
66458SOL    HW2 6490   9.682   4.075  10.413  2.0149  2.2898 -0.3236
66459SOL     OW 6491   7.127  12.646   6.444  0.0386  0.1927  0.6799
66459SOL    HW1 6492   7.168  12.566   6.411 -1.7245 -1.3023  1.8684
66459SOL    HW2 6493   7.150  12.713   6.380  0.1258 -1.6620 -1.3597
66460SOL     OW 6494   6.150   7.556   4.304  0.1902  0.2161  0.6736
66460SOL    HW1 6495   6.068   7.514   4.328  0.6753 -0.9298  0.3650
66460SOL    HW2 6496   6.187   7.586   4.387  0.1461 -0.5386  0.9711
66461SOL     OW 6497   6.221  10.521   9.047  0.2501  0.3744 -0.1614
66461SOL    HW1 6498   6.253  10.481   9.128  0.2549  0.1509 -0.2712
66461SOL    HW2 6499   6.289  10.584   9.023  0.5333  0.0156 -0.3079
66462SOL     OW 6500   0.874   5.504   3.422 -0.0581  0.1620 -0.3682
66462SOL    HW1 6501   0.929   5.458   3.359 -0.2433 -0.5851  0.0079
66462SOL    HW2 6502   0.847   5.437   3.484  1.4783  1.1721  1.5026
66463SOL     OW 6503   3.377   6.227   2.439 -0.4013 -0.0890  0.1394
66463SOL    HW1 6504   3.372   6.164   2.367  0.3522  0.3983 -0.3549
66463SOL    HW2 6505   3.286   6.239   2.466 -0.8687  0.6877 -1.5979
66464SOL     OW 6506  11.427  12.323   9.317  0.1867 -0.0204  0.4305
66464SOL    HW1 6507  11.361  12.380   9.356 -1.0267 -0.4596 -0.8950
66464SOL    HW2 6508  11.499  12.324   9.379 -1.8079 -1.1030  2.9155
66465SOL     OW 6509  10.825   1.407   8.842  0.1250 -0.3620 -0.3670
66465SOL    HW1 6510  10.780   1.366   8.768 -0.1323 -0.5140 -0.1252
66465SOL    HW2 6511  10.783   1.371   8.919 -0.3189  0.5872 -0.1458
66466SOL     OW 6512  12.502   0.412  10.114  0.2106 -0.3686 -0.2701
66466SOL    HW1 6513  12.564   0.422  10.042  0.2656  0.2961 -0.1328
66466SOL    HW2 6514  12.513   0.321  10.143  1.9900  0.0698  0.5457
66467SOL     OW 6515   4.524  12.031  12.389 -0.1298 -0.3182  0.1281
66467SOL    HW1 6516   4.567  11.976  12.324 -1.6442  0.6408 -1.7716
66467SOL    HW2 6517   4.582  12.107  12.399  0.2548 -0.6128  0.1352
66468SOL     OW 6518  10.207   8.327   0.816  0.3688 -0.1643  0.6320
66468SOL    HW1 6519  10.202   8.298   0.724  1.6058  1.0721  0.1369
66468SOL    HW2 6520  10.238   8.418   0.810 -0.4395  0.2430  2.2468
66469SOL     OW 6521  12.080   2.218   4.851  0.1447  0.4975  0.5491
66469SOL    HW1 6522  11.994   2.214   4.892  0.2899 -1.0706  0.7763
66469SOL    HW2 6523  12.138   2.249   4.921 -0.1950  1.3289  0.4645
66470SOL     OW 6524   9.254   7.313   7.720 -0.0774  0.1905 -0.6359
66470SOL    HW1 6525   9.277   7.402   7.693  1.7857 -0.2119 -0.5441
66470SOL    HW2 6526   9.317   7.292   7.789  1.1745 -2.0595 -2.3291
66471SOL     OW 6527   5.290  12.018   6.274  0.0264  0.0173  0.6543
66471SOL    HW1 6528   5.369  12.057   6.237 -1.7184  0.9589 -2.4568
66471SOL    HW2 6529   5.273  11.941   6.219 -0.6932 -0.7788  1.9218
66472SOL     OW 6530   2.057   2.941   9.710  0.3223  0.3992  0.0307
66472SOL    HW1 6531   2.045   2.918   9.802  0.7970  0.8845  0.2213
66472SOL    HW2 6532   2.003   3.019   9.697  0.2313  0.3134 -0.1097
66473SOL     OW 6533   7.953  12.212   7.624 -0.0613 -0.0685  0.5553
66473SOL    HW1 6534   8.013  12.138   7.621  0.2936  0.2383 -1.2274
66473SOL    HW2 6535   7.953  12.240   7.715  0.2797 -1.8607  1.1248
66474SOL     OW 6536  11.291   5.819   7.960 -0.6006 -0.2560  0.0027
66474SOL    HW1 6537  11.327   5.734   7.985 -1.3034  0.0263  2.2552
66474SOL    HW2 6538  11.210   5.798   7.913 -0.9852 -0.8636  0.9049
66475SOL     OW 6539  11.387   1.290   2.661  0.0529  0.4517 -0.2946
66475SOL    HW1 6540  11.437   1.358   2.704  0.2522  1.8184 -2.5152
66475SOL    HW2 6541  11.299   1.327   2.650 -0.5722 -0.6626  0.7037
66476SOL     OW 6542  12.508   3.721  11.887 -0.2878  0.4670  0.3899
66476SOL    HW1 6543  12.598   3.705  11.913 -0.3434  2.0873  1.7340
66476SOL    HW2 6544  12.476   3.636  11.855  1.5766 -0.2024  0.2161
66477SOL     OW 6545   4.869   9.737   9.910  0.0952 -0.0421  1.4021
66477SOL    HW1 6546   4.942   9.791   9.940 -0.5041  0.9656  1.1215
66477SOL    HW2 6547   4.794   9.797   9.909 -0.3763 -0.6040  0.0445
66478SOL     OW 6548   4.984   5.170   8.277  0.6644 -0.2042 -0.0996
66478SOL    HW1 6549   4.976   5.135   8.365  1.4538  0.2742  0.1706
66478SOL    HW2 6550   4.915   5.236   8.271 -0.0570 -0.9461 -0.2057
66479SOL     OW 6551   2.198  11.357   6.097  0.2835  0.4263 -0.0115
66479SOL    HW1 6552   2.147  11.436   6.080  0.9056  0.9784  0.6452
66479SOL    HW2 6553   2.157  11.290   6.042 -1.9275  0.5239  1.4195
66480SOL     OW 6554  12.231   2.573   5.064  0.2487 -0.2346  0.7269
66480SOL    HW1 6555  12.229   2.584   4.969  1.2685  0.6427  0.7854
66480SOL    HW2 6556  12.171   2.501   5.081 -0.9913  0.4802 -0.4454
66481SOL     OW 6557   0.004   0.821  10.719  0.0568  0.6893 -0.0180
66481SOL    HW1 6558  -0.012   0.728  10.737  1.6504 -0.0802 -2.1575
66481SOL    HW2 6559  -0.005   0.864  10.804  1.3429 -1.7377  1.4464
66482SOL     OW 6560   6.700  11.356   4.174 -0.3469  0.0396  0.1037
66482SOL    HW1 6561   6.629  11.418   4.163 -0.9848 -0.7454 -0.3189
66482SOL    HW2 6562   6.772  11.390   4.120 -1.2347 -0.4172 -1.4173
66483SOL     OW 6563  10.406   8.849   8.033  0.2041  0.1073 -0.0850
66483SOL    HW1 6564  10.388   8.940   8.010 -0.8994  0.0601  0.5193
66483SOL    HW2 6565  10.405   8.802   7.950  0.2561  0.5607 -0.3421
66484SOL     OW 6566   6.615   2.993   7.801 -0.3008 -0.4596  0.2309
66484SOL    HW1 6567   6.673   2.935   7.751 -0.5528 -1.3344  0.9176
66484SOL    HW2 6568   6.672   3.037   7.863 -0.3374 -1.2528  0.8454
66485SOL     OW 6569   4.054  11.541   5.357 -0.2854  0.0544  0.3763
66485SOL    HW1 6570   4.150  11.541   5.356 -0.2588 -1.6959 -0.9280
66485SOL    HW2 6571   4.029  11.597   5.284 -0.2344 -0.3216  0.0676
66486SOL     OW 6572   4.146   8.164   3.439  0.4363 -0.3125 -0.6260
66486SOL    HW1 6573   4.192   8.133   3.517  1.1280 -0.9213 -1.2620
66486SOL    HW2 6574   4.157   8.259   3.441  1.0273 -0.3839 -0.3293
66487SOL     OW 6575  10.293   4.883   1.613 -0.1261 -0.1922  0.5370
66487SOL    HW1 6576  10.217   4.845   1.657 -1.7206 -1.0595 -2.6272
66487SOL    HW2 6577  10.262   4.967   1.580  0.7406  0.0909  0.4259
66488SOL     OW 6578   4.899   1.571  10.242 -0.3519 -0.3289 -0.2213
66488SOL    HW1 6579   4.897   1.646  10.300 -0.9973  1.3765 -2.3267
66488SOL    HW2 6580   4.984   1.529  10.258 -0.0798  0.7026  1.1448
66489SOL     OW 6581   0.163   2.277   5.506  0.0602 -0.1717 -0.2109
66489SOL    HW1 6582   0.256   2.290   5.521  0.1117 -1.7867  1.0717
66489SOL    HW2 6583   0.158   2.199   5.451 -0.5090  0.6936 -1.4388
66490SOL     OW 6584   3.041   8.520   5.945 -0.4287  0.2366 -0.5134
66490SOL    HW1 6585   2.964   8.576   5.941 -0.5923  0.1929  1.2677
66490SOL    HW2 6586   3.019   8.455   6.012  1.1962  0.3083  0.1204
66491SOL     OW 6587  12.081   5.571   3.541 -0.5245 -0.4771  0.6494
66491SOL    HW1 6588  12.161   5.574   3.489 -0.0736  1.3076  1.3635
66491SOL    HW2 6589  12.011   5.552   3.478 -0.0939  2.2131 -0.7797
66492SOL     OW 6590   2.796  10.224   2.913 -0.4017  0.1808 -0.1257
66492SOL    HW1 6591   2.888  10.239   2.891 -0.1729  1.5209  1.5417
66492SOL    HW2 6592   2.795  10.137   2.953 -0.0130 -0.1801 -0.8751
66493SOL     OW 6593  11.829   1.425   5.371 -0.0649 -0.8242  0.5685
66493SOL    HW1 6594  11.775   1.352   5.344  2.2645 -1.7189 -2.1514
66493SOL    HW2 6595  11.918   1.390   5.372  1.0864  1.8184 -0.3136
66494SOL     OW 6596  10.715   5.896   2.684 -0.0682 -0.3305  1.0830
66494SOL    HW1 6597  10.801   5.857   2.669 -1.1381 -2.2343 -0.7684
66494SOL    HW2 6598  10.657   5.848   2.624 -2.2994  1.3191  1.8035
66495SOL     OW 6599  11.664   9.662   1.560  0.2352  0.2819 -0.1309
66495SOL    HW1 6600  11.740   9.710   1.590 -0.0645  0.2594  0.6901
66495SOL    HW2 6601  11.681   9.644   1.467  2.8096 -2.6737  0.7399
66496SOL     OW 6602  10.921   1.165   0.233  0.7726  0.0150 -0.7906
66496SOL    HW1 6603  10.866   1.211   0.296  1.8804 -1.1988  1.1912
66496SOL    HW2 6604  10.941   1.081   0.276  2.1688 -0.5684 -2.4666
66497SOL     OW 6605   6.955  10.846   1.635  0.1345 -0.4186  0.0206
66497SOL    HW1 6606   7.027  10.787   1.613 -0.0893 -0.4066 -0.7731
66497SOL    HW2 6607   6.884  10.787   1.662  0.3756 -0.4394  0.6117
66498SOL     OW 6608   5.746  12.244   0.601 -0.2622 -0.9871  0.1780
66498SOL    HW1 6609   5.817  12.278   0.547 -0.9775 -0.7593 -0.6397
66498SOL    HW2 6610   5.777  12.255   0.691  0.7968 -1.0425 -0.1627
66499SOL     OW 6611   7.214   2.154  11.503 -0.0828 -0.1950  0.2113
66499SOL    HW1 6612   7.257   2.176  11.420  0.7999  0.2944  0.7783
66499SOL    HW2 6613   7.286   2.152  11.567 -0.7226 -0.7653  0.9256
66500SOL     OW 6614   6.624   2.501   9.770  0.5662  0.1078  0.3068
66500SOL    HW1 6615   6.570   2.442   9.823 -1.5144  0.4491 -1.2834
66500SOL    HW2 6616   6.612   2.587   9.810 -1.5988  0.4990 -1.0015
66501SOL     OW 6617   0.354  11.417   3.742 -0.6321  0.3472  0.3729
66501SOL    HW1 6618   0.310  11.332   3.737 -0.3000  0.1103  1.3001
66501SOL    HW2 6619   0.282  11.480   3.748 -0.8871 -0.0147  1.5520
66502SOL     OW 6620   1.682   1.421   8.168  0.4803  0.0212 -0.1317
66502SOL    HW1 6621   1.668   1.413   8.263 -0.2886  2.9213  0.0951
66502SOL    HW2 6622   1.610   1.372   8.129 -1.7106  2.2266  0.9028
66503SOL     OW 6623  10.087   1.157  11.457  0.5139  0.1489  0.0306
66503SOL    HW1 6624  10.115   1.195  11.540 -0.2899  0.0740  0.3484
66503SOL    HW2 6625  10.024   1.220  11.422  0.6967  0.0825 -0.4311
66504SOL     OW 6626   3.730   8.068   0.148  0.1855  0.1798  0.2017
66504SOL    HW1 6627   3.703   8.155   0.179 -1.5664 -0.8404  1.7500
66504SOL    HW2 6628   3.807   8.047   0.201  0.2356  0.5229  0.2708
66505SOL     OW 6629   2.743  10.672  11.172 -0.0821  0.2132  0.5893
66505SOL    HW1 6630   2.799  10.739  11.133 -0.0924  0.0197  0.2415
66505SOL    HW2 6631   2.703  10.628  11.098 -1.8953  1.3458  0.8319
66506SOL     OW 6632  10.575   8.879   9.948  0.2737  0.0930 -0.1836
66506SOL    HW1 6633  10.625   8.887  10.030 -0.0093  0.2237 -0.0215
66506SOL    HW2 6634  10.495   8.929   9.964 -0.7929 -1.6561  0.2648
66507SOL     OW 6635   2.333   7.424  11.285  0.5677 -0.0590  0.1831
66507SOL    HW1 6636   2.288   7.461  11.361  0.9328 -1.8952  1.3502
66507SOL    HW2 6637   2.264   7.388  11.230  0.3319  0.9196 -0.1807
66508SOL     OW 6638   6.694   7.480   2.766  0.2437  0.6738  0.3060
66508SOL    HW1 6639   6.622   7.542   2.775 -0.2446  0.2539 -0.5294
66508SOL    HW2 6640   6.725   7.465   2.855 -0.8397  0.7059  0.7008
66509SOL     OW 6641   6.500   2.020   9.360  0.3683  0.0311 -0.0960
66509SOL    HW1 6642   6.446   1.975   9.425  0.0646  0.1558 -0.2571
66509SOL    HW2 6643   6.437   2.050   9.294  0.5509  0.7798  0.0592
66510SOL     OW 6644  12.838  12.046   9.811 -0.1421 -0.2414 -0.4218
66510SOL    HW1 6645  12.806  12.100   9.883 -0.0954 -1.8300  0.8664
66510SOL    HW2 6646  12.763  11.991   9.788 -0.0503  0.0179 -1.3731
66511SOL     OW 6647   9.087  10.868   8.253  0.2814 -0.1264 -0.0329
66511SOL    HW1 6648   9.060  10.875   8.162 -2.3768  1.3412  0.7456
66511SOL    HW2 6649   9.045  10.788   8.285 -0.3946  0.3622  0.3382
66512SOL     OW 6650   3.564   4.282  11.055  0.3347  0.0549  0.4179
66512SOL    HW1 6651   3.646   4.310  11.015 -1.2940  0.7341 -2.8376
66512SOL    HW2 6652   3.502   4.351  11.033 -1.8547 -1.9837 -0.2869
66513SOL     OW 6653  12.651  12.916  12.722 -0.4584 -0.2916 -0.1506
66513SOL    HW1 6654  12.677  12.841  12.775  0.1697  1.0917  1.6270
66513SOL    HW2 6655  12.669  12.992  12.778 -1.1248  1.1879 -1.8372
66514SOL     OW 6656  10.430   9.467   3.669  0.3270  0.2001 -0.5513
66514SOL    HW1 6657  10.453   9.473   3.762 -3.2822  1.7242  0.4355
66514SOL    HW2 6658  10.477   9.540   3.629  0.3371  0.8312  0.5460
66515SOL     OW 6659   9.538   0.854  10.525 -0.2800 -0.6149 -0.4339
66515SOL    HW1 6660   9.613   0.820  10.476  0.4773 -0.5006  0.5899
66515SOL    HW2 6661   9.528   0.944  10.495 -0.9836 -1.0772 -1.6612
66516SOL     OW 6662   2.574   7.850  11.598  0.7745  0.1990 -0.1595
66516SOL    HW1 6663   2.569   7.930  11.651  0.7162  0.2104 -0.1811
66516SOL    HW2 6664   2.509   7.792  11.637  0.1877  0.4857 -0.6757
66517SOL     OW 6665  11.895   3.455   1.764 -0.4261 -0.0138  0.0215
66517SOL    HW1 6666  11.874   3.442   1.672 -1.5136 -0.3143  0.2907
66517SOL    HW2 6667  11.854   3.381   1.809 -1.0217  0.8079  0.8832
66518SOL     OW 6668   3.870   0.856  10.526  0.2182  0.0384 -0.2010
66518SOL    HW1 6669   3.863   0.774  10.574  1.1732 -0.2930 -0.5914
66518SOL    HW2 6670   3.893   0.921  10.593  2.0087 -0.5015 -0.2223
66519SOL     OW 6671  12.197   0.271   6.073  0.2327 -0.3543  0.2135
66519SOL    HW1 6672  12.173   0.282   6.165  0.1297  0.3042  0.1165
66519SOL    HW2 6673  12.125   0.221   6.035  0.7347 -1.4756  0.6926
66520SOL     OW 6674   7.455   5.646   6.627 -0.2450  0.7344  0.0470
66520SOL    HW1 6675   7.407   5.563   6.625 -2.4931  1.9348  0.0266
66520SOL    HW2 6676   7.523   5.633   6.692  0.1186 -1.4340 -0.6717
66521SOL     OW 6677   7.811   0.488   7.408  0.1713 -0.0855  0.0612
66521SOL    HW1 6678   7.900   0.479   7.374 -0.3782  0.4496 -1.6222
66521SOL    HW2 6679   7.811   0.573   7.452  0.0719  0.7536 -1.4696
66522SOL     OW 6680  11.023  10.990  12.175 -0.2576  0.3829  0.1646
66522SOL    HW1 6681  10.931  10.981  12.197 -0.3088  1.1116  0.2729
66522SOL    HW2 6682  11.027  11.064  12.114  0.1873 -0.0093 -0.2993
66523SOL     OW 6683   5.913  11.798  11.839 -0.1567  0.7019  0.5581
66523SOL    HW1 6684   5.881  11.854  11.768 -1.8252  1.4470  1.8256
66523SOL    HW2 6685   5.941  11.859  11.907  1.8578  0.0031  0.4143
66524SOL     OW 6686   0.081   8.122  10.544  0.8143 -0.8001  0.2076
66524SOL    HW1 6687   0.027   8.182  10.595 -0.5256 -2.1524  0.4500
66524SOL    HW2 6688   0.117   8.176  10.474 -0.4298  0.2816  0.3582
66525SOL     OW 6689   0.013  10.185   5.096 -0.3112  0.9298 -0.2003
66525SOL    HW1 6690  -0.071  10.204   5.054 -0.1139 -1.7908 -2.0970
66525SOL    HW2 6691  -0.011  10.145   5.180 -0.8240  2.1589  0.2598
66526SOL     OW 6692   4.861   7.881   3.431 -0.1196 -0.0201 -0.2645
66526SOL    HW1 6693   4.798   7.944   3.468 -0.6868 -0.6122 -0.2071
66526SOL    HW2 6694   4.810   7.801   3.419  0.5577 -0.4190 -0.4960
66527SOL     OW 6695   5.173   1.843   6.019  0.0995  0.1610 -0.0372
66527SOL    HW1 6696   5.100   1.847   6.080 -0.1559  2.5697 -0.4180
66527SOL    HW2 6697   5.142   1.785   5.949 -0.2810 -1.1749  1.1835
66528SOL     OW 6698   3.311   6.037   3.409 -0.5799 -0.1454 -0.0357
66528SOL    HW1 6699   3.330   6.026   3.316  0.0296 -0.0038  0.0667
66528SOL    HW2 6700   3.239   5.977   3.426 -1.0019  0.1632 -0.7021
66529SOL     OW 6701  10.368   9.676   9.051 -0.3370 -0.5499 -0.7997
66529SOL    HW1 6702  10.289   9.622   9.045 -0.3025 -0.5608 -1.1887
66529SOL    HW2 6703  10.346   9.756   9.002  0.0335 -0.7281 -1.2601
66530SOL     OW 6704   1.718  10.153  11.490  0.1574 -0.4141  0.1502
66530SOL    HW1 6705   1.803  10.189  11.514  0.1427 -0.0399 -0.3613
66530SOL    HW2 6706   1.684  10.117  11.572  0.6808 -0.3148  0.4172
66531SOL     OW 6707   6.036   7.635   4.694 -0.0902 -0.0984 -0.7442
66531SOL    HW1 6708   6.061   7.547   4.667  1.8462 -0.0614  0.6772
66531SOL    HW2 6709   6.119   7.682   4.701 -0.7734  0.9096  1.5465
66532SOL     OW 6710  11.592   0.581   0.926  0.3742  0.0121  0.3476
66532SOL    HW1 6711  11.525   0.561   0.860  0.6713 -0.9955  0.3340
66532SOL    HW2 6712  11.633   0.497   0.944  1.0295  0.4698  1.0286
66533SOL     OW 6713  10.209  12.713   2.532 -0.5517  0.2866 -0.4845
66533SOL    HW1 6714  10.227  12.719   2.626  0.0846 -3.3558 -0.2291
66533SOL    HW2 6715  10.148  12.786   2.515 -1.4895  0.5078  2.9318
66534SOL     OW 6716   8.621  11.673   7.541  0.7176  0.0702  0.0049
66534SOL    HW1 6717   8.676  11.732   7.489  0.1612 -2.2693 -3.6150
66534SOL    HW2 6718   8.681  11.607   7.575  0.9199  0.9919  1.5341
66535SOL     OW 6719   4.709   1.113   4.045  0.4647  0.3122 -0.9507
66535SOL    HW1 6720   4.799   1.141   4.030  0.3287  1.3222 -0.0188
66535SOL    HW2 6721   4.681   1.074   3.962  1.7011  0.1311 -1.2947
66536SOL     OW 6722   4.504   1.758   4.955  0.2270 -0.1422 -0.6872
66536SOL    HW1 6723   4.501   1.711   5.038  2.7263  0.1393 -0.3501
66536SOL    HW2 6724   4.433   1.822   4.960 -0.0746 -0.5725  0.9436
66537SOL     OW 6725   6.410   3.288   9.151  0.2008 -0.0567  0.4152
66537SOL    HW1 6726   6.483   3.228   9.167  0.2873 -0.5204 -1.5344
66537SOL    HW2 6727   6.446   3.375   9.169  1.4523 -0.2255 -1.1272
66538SOL     OW 6728   8.624   3.947   3.409 -0.0337 -0.3269  0.6337
66538SOL    HW1 6729   8.566   4.022   3.421  1.2235  0.5606  1.5393
66538SOL    HW2 6730   8.589   3.880   3.468  1.1769  1.0550  3.1264
66539SOL     OW 6731   1.532   3.015  12.000  0.4673 -0.3927  0.1389
66539SOL    HW1 6732   1.512   3.098  12.044  1.4604 -0.0448 -0.0346
66539SOL    HW2 6733   1.466   2.954  12.033 -0.4778  0.5420  0.0209
66540SOL     OW 6734  10.494   3.646   7.698 -0.1913 -0.2651  0.0889
66540SOL    HW1 6735  10.585   3.657   7.672 -0.2248  1.7048  0.6056
66540SOL    HW2 6736  10.451   3.727   7.670 -1.9271 -1.4031 -0.6718
66541SOL     OW 6737  12.083   0.025   5.234  0.4334  0.0717 -0.6386
66541SOL    HW1 6738  11.998   0.062   5.209  0.6962  0.5030 -0.9113
66541SOL    HW2 6739  12.112   0.081   5.306  1.1439  0.8461 -1.4920
66542SOL     OW 6740  10.075   4.124   3.835  0.1002  0.3681  0.0508
66542SOL    HW1 6741  10.054   4.213   3.863  2.6921  0.9770  0.2645
66542SOL    HW2 6742  10.141   4.135   3.766 -2.2170 -1.3074 -2.7074
66543SOL     OW 6743   3.491  12.779   8.018  0.0871 -0.1759 -0.0618
66543SOL    HW1 6744   3.531  12.692   8.011  1.4441  0.4584 -0.7665
66543SOL    HW2 6745   3.461  12.798   7.929  1.3663  0.7463 -0.3302
66544SOL     OW 6746  12.217   8.549   3.331 -0.0155  0.3478  0.1382
66544SOL    HW1 6747  12.312   8.541   3.339 -0.1673 -0.2183  1.6996
66544SOL    HW2 6748  12.187   8.459   3.313 -0.1684  0.7468 -1.8679
66545SOL     OW 6749   5.020   4.689   1.809  0.0550 -0.7517  0.1939
66545SOL    HW1 6750   5.060   4.762   1.762 -1.2366  0.2229  0.5334
66545SOL    HW2 6751   5.032   4.711   1.902 -0.2783 -1.0058  0.2979
66546SOL     OW 6752   2.348   5.413   1.000 -0.4392 -0.6157  0.1386
66546SOL    HW1 6753   2.342   5.336   0.944 -0.6531 -0.8043  0.4141
66546SOL    HW2 6754   2.281   5.398   1.068 -2.2624  0.9765 -1.2004
66547SOL     OW 6755   0.538   3.425  12.782 -0.5008  0.3661  0.0226
66547SOL    HW1 6756   0.475   3.371  12.831  1.0913 -0.9651  0.7000
66547SOL    HW2 6757   0.599   3.361  12.745  1.5171  1.6854  0.9302
66548SOL     OW 6758  12.641   5.037  10.239 -0.0546 -0.1818 -0.0386
66548SOL    HW1 6759  12.613   5.024  10.329  1.4066  3.5295  1.1084
66548SOL    HW2 6760  12.735   5.055  10.245 -0.1441  1.3078 -2.1193
66549SOL     OW 6761   7.154  10.630   6.322 -0.2152 -0.3399  0.0079
66549SOL    HW1 6762   7.232  10.613   6.374  0.7555  0.7055 -1.0513
66549SOL    HW2 6763   7.119  10.712   6.358 -0.9478 -0.9071  0.6074
66550SOL     OW 6764   6.583  12.425   2.303 -0.5507 -0.2099  0.7710
66550SOL    HW1 6765   6.528  12.451   2.377 -1.2771 -0.2775  0.2648
66550SOL    HW2 6766   6.569  12.495   2.238 -0.1167 -0.2819  0.5974
66551SOL     OW 6767  11.336  11.973   1.701  0.3194 -0.3929  0.2914
66551SOL    HW1 6768  11.334  12.056   1.750 -1.4794 -0.4021  0.2900
66551SOL    HW2 6769  11.306  11.997   1.614 -1.9183 -1.3028  0.7591
66552SOL     OW 6770   9.675   5.619   0.644  0.0019 -0.2992 -0.0086
66552SOL    HW1 6771   9.704   5.545   0.696 -1.0749 -0.7276  0.0207
66552SOL    HW2 6772   9.704   5.696   0.692  1.3088 -0.6942 -0.1446
66553SOL     OW 6773   0.319   4.443   2.304 -0.3990  0.0202  0.4343
66553SOL    HW1 6774   0.285   4.355   2.322 -1.6536  0.2267 -0.7781
66553SOL    HW2 6775   0.402   4.427   2.257 -0.3954 -0.5075  0.6144
66554SOL     OW 6776   2.214  10.968  11.392 -0.1979  0.2183 -0.0668
66554SOL    HW1 6777   2.217  11.054  11.350 -0.3821  0.2452 -0.0250
66554SOL    HW2 6778   2.305  10.938  11.391 -0.2124  0.1722 -0.5837
66555SOL     OW 6779   0.007  11.521   6.945  0.0041  0.2774 -0.2746
66555SOL    HW1 6780  -0.040  11.548   6.866  1.3493  0.8629 -0.8937
66555SOL    HW2 6781   0.072  11.589   6.959 -0.0867  0.0801  1.2512
66556SOL     OW 6782  11.686   1.394   4.877 -0.1406 -0.0411 -0.1307
66556SOL    HW1 6783  11.656   1.331   4.811  3.1785  0.6828 -2.6260
66556SOL    HW2 6784  11.617   1.461   4.880 -1.2380 -1.0534 -1.4590
66557SOL     OW 6785  12.323   0.348   6.963  0.1328 -0.1505  0.6243
66557SOL    HW1 6786  12.265   0.328   7.036 -0.4290 -0.9279 -0.0201
66557SOL    HW2 6787  12.382   0.416   6.997 -0.4600 -0.1168  1.6189
66558SOL     OW 6788   8.371   1.998  10.411 -0.1225  0.4217  0.2165
66558SOL    HW1 6789   8.405   1.916  10.374  1.1759  0.9049  0.2681
66558SOL    HW2 6790   8.313   1.970  10.482 -1.6204 -0.4826 -1.3025
66559SOL     OW 6791   0.302   8.779   3.972  0.0965  0.2292 -0.2926
66559SOL    HW1 6792   0.297   8.802   4.064 -1.0159 -1.3580  0.0972
66559SOL    HW2 6793   0.231   8.828   3.930 -0.2205 -0.0181 -0.0528
66560SOL     OW 6794   4.901  10.862   9.151  0.6338 -0.4888  0.2923
66560SOL    HW1 6795   4.938  10.787   9.104 -1.9879 -0.9081 -1.3132
66560SOL    HW2 6796   4.919  10.937   9.094  0.1455 -0.4976  0.1220
66561SOL     OW 6797   7.223   3.911   9.257 -0.2250 -0.2821  0.5775
66561SOL    HW1 6798   7.280   3.844   9.294  1.4164  1.0936  0.6354
66561SOL    HW2 6799   7.239   3.907   9.162  0.4010  0.4569  0.6411
66562SOL     OW 6800   8.253   4.340   4.991 -0.1905 -0.3216  0.3529
66562SOL    HW1 6801   8.332   4.305   4.951 -0.3362 -0.4966  0.2167
66562SOL    HW2 6802   8.256   4.434   4.971 -0.4165 -0.4547 -0.3364
66563SOL     OW 6803   1.365  10.874  11.953  0.0185 -0.2149 -0.4092
66563SOL    HW1 6804   1.415  10.812  11.900  0.7944 -0.4393  0.5502
66563SOL    HW2 6805   1.274  10.845  11.945  0.2175 -0.6964 -1.0024
66564SOL     OW 6806   8.478   5.284   7.526  0.4217 -0.1565  0.5682
66564SOL    HW1 6807   8.466   5.222   7.598  1.7385 -0.5101  0.5020
66564SOL    HW2 6808   8.459   5.370   7.565 -0.0161 -0.4561  1.0300
66565SOL     OW 6809   2.816  10.394   0.385 -0.4461  0.4800 -0.3501
66565SOL    HW1 6810   2.729  10.386   0.345 -0.8240 -0.9128  0.6951
66565SOL    HW2 6811   2.804  10.463   0.451 -1.6848 -1.8301  1.9998
66566SOL     OW 6812   8.195  12.566   8.536  0.0233 -0.1376 -0.4448
66566SOL    HW1 6813   8.100  12.560   8.539 -0.0200 -0.2440 -1.6840
66566SOL    HW2 6814   8.217  12.554   8.444  1.0471  2.3671 -0.6103
66567SOL     OW 6815   3.664   4.159  12.224  0.4109 -0.1475  0.0869
66567SOL    HW1 6816   3.595   4.153  12.158 -0.5211  1.2123  0.8900
66567SOL    HW2 6817   3.620   4.137  12.306  0.7792  1.2119  0.6787
66568SOL     OW 6818   7.850   8.995   6.279  0.7050 -0.2340  0.4597
66568SOL    HW1 6819   7.931   8.950   6.303 -1.0959 -3.4692  1.0582
66568SOL    HW2 6820   7.853   9.002   6.184  1.7579 -0.1244  0.4910
66569SOL     OW 6821   8.121  12.222   0.351  0.4679  0.3968 -0.5243
66569SOL    HW1 6822   8.202  12.174   0.334 -0.4719 -0.5938 -2.4629
66569SOL    HW2 6823   8.119  12.231   0.446  2.1354 -0.8181 -0.3255
66570SOL     OW 6824   9.753   9.807   2.141  0.3889  0.1148  0.0508
66570SOL    HW1 6825   9.810   9.858   2.082 -1.6550  2.8914  0.2670
66570SOL    HW2 6826   9.700   9.754   2.082  0.9655 -0.0095 -0.3660
66571SOL     OW 6827  12.157   3.497   2.060 -0.0482 -0.6894  0.3447
66571SOL    HW1 6828  12.233   3.458   2.016 -0.7268  0.3480 -1.8814
66571SOL    HW2 6829  12.110   3.422   2.095 -0.0554 -1.7470 -1.7434
66572SOL     OW 6830   4.064  10.818  11.614 -0.1258 -0.0591 -0.2635
66572SOL    HW1 6831   4.070  10.807  11.519 -1.7527 -1.2805 -0.2561
66572SOL    HW2 6832   4.062  10.728  11.648  1.7741  0.3361  1.0660
66573SOL     OW 6833   5.317   0.536   0.385  0.0482 -0.0766 -0.1461
66573SOL    HW1 6834   5.342   0.582   0.465  0.2064  0.5583 -0.5538
66573SOL    HW2 6835   5.383   0.561   0.321  0.9791 -2.0051 -0.0112
66574SOL     OW 6836  12.146  12.533   0.627  0.2848 -0.2666  0.1592
66574SOL    HW1 6837  12.192  12.519   0.544 -2.2906  1.9638 -1.8430
66574SOL    HW2 6838  12.092  12.456   0.638  0.6956 -0.6073 -0.1786
66575SOL     OW 6839   7.426   0.168   0.399 -0.0358 -0.3040  0.4562
66575SOL    HW1 6840   7.371   0.181   0.475  1.0910 -0.4811  1.3338
66575SOL    HW2 6841   7.515   0.167   0.434  0.5411  0.1950 -0.9403
66576SOL     OW 6842   5.772   7.635  12.018  0.2565 -0.4172 -0.5952
66576SOL    HW1 6843   5.781   7.572  11.946 -1.0044 -0.3282 -0.8456
66576SOL    HW2 6844   5.848   7.618  12.074 -0.4803 -2.7328 -0.2169
66577SOL     OW 6845   4.572   8.156   2.861  0.6652 -0.7819 -1.0485
66577SOL    HW1 6846   4.577   8.147   2.766  0.7175 -0.4005 -1.0851
66577SOL    HW2 6847   4.619   8.237   2.880  0.7559 -0.9178 -0.6853
66578SOL     OW 6848   0.451   2.870  10.623 -0.6285  0.0571  0.5233
66578SOL    HW1 6849   0.408   2.805  10.678  0.6258  0.8448  2.5328
66578SOL    HW2 6850   0.438   2.839  10.533 -3.2506 -0.9755  1.1846
66579SOL     OW 6851   5.907   9.769   7.568  0.1974 -0.4981 -0.1995
66579SOL    HW1 6852   5.845   9.804   7.632  1.1946  0.0859  0.4819
66579SOL    HW2 6853   5.870   9.794   7.484  0.0006  0.7396  0.2226
66580SOL     OW 6854   7.929   0.873   9.434 -0.1442 -0.1262  0.1695
66580SOL    HW1 6855   7.881   0.793   9.415  1.5080 -1.5107  1.5268
66580SOL    HW2 6856   7.862   0.934   9.466 -1.2989 -1.2650  0.0020
66581SOL     OW 6857   1.320   4.210  11.136  0.4142 -0.2255 -0.2105
66581SOL    HW1 6858   1.382   4.229  11.206 -0.0999 -0.6849  0.3772
66581SOL    HW2 6859   1.361   4.248  11.058  0.8129  0.6355  0.3899
66582SOL     OW 6860   8.821   9.065   6.698 -0.1625  0.3811  0.1420
66582SOL    HW1 6861   8.867   8.993   6.741  1.2490  0.4661 -1.1533
66582SOL    HW2 6862   8.890   9.119   6.661 -1.2532  1.6909 -0.0662
66583SOL     OW 6863  11.717   8.489   8.380  0.0889  0.3106  0.0597
66583SOL    HW1 6864  11.674   8.422   8.327 -0.6088  0.0750  0.8987
66583SOL    HW2 6865  11.808   8.460   8.387 -0.5025 -1.3414  1.6051
66584SOL     OW 6866  12.242   8.367   1.038  0.0116 -0.4977 -0.3143
66584SOL    HW1 6867  12.181   8.313   1.088 -1.0824  0.9200 -0.0701
66584SOL    HW2 6868  12.194   8.448   1.020  1.3689  0.1396 -1.2504
66585SOL     OW 6869   2.508   4.126  11.960  0.0274  0.5066 -0.2303
66585SOL    HW1 6870   2.427   4.117  11.910  0.1326  3.3766 -1.0464
66585SOL    HW2 6871   2.527   4.037  11.991 -1.3473 -0.9589 -3.2304
66586SOL     OW 6872  11.687   3.506  10.546  0.1297 -0.4743 -0.1103
66586SOL    HW1 6873  11.633   3.498  10.624  2.1201  0.1218  1.3879
66586SOL    HW2 6874  11.739   3.426  10.544  1.7598  0.5202  0.5488
66587SOL     OW 6875   9.624  11.708   7.854  0.0618  0.2377  0.3947
66587SOL    HW1 6876   9.638  11.800   7.874 -1.2931  0.8031 -1.0608
66587SOL    HW2 6877   9.530  11.700   7.838  0.1611 -1.3733  0.3618
66588SOL     OW 6878   0.894   1.447  11.766 -0.2297 -0.7532 -0.2447
66588SOL    HW1 6879   0.819   1.458  11.707  0.7199  0.1449 -1.3202
66588SOL    HW2 6880   0.867   1.490  11.847 -0.3556  0.8559 -1.1106
66589SOL     OW 6881   1.724   1.563   4.502  0.4652  0.2220 -0.2185
66589SOL    HW1 6882   1.714   1.587   4.410 -1.7263  3.3391  0.6768
66589SOL    HW2 6883   1.677   1.479   4.510  1.2404 -0.4216 -2.0018
66590SOL     OW 6884   6.860   3.696   5.282  0.4311 -0.4393  0.0258
66590SOL    HW1 6885   6.825   3.778   5.316  0.3076 -0.7069  0.5418
66590SOL    HW2 6886   6.819   3.628   5.335  1.0890 -0.7966  0.0834
66591SOL     OW 6887  10.728  10.020  12.246 -0.1080  0.4126  0.2172
66591SOL    HW1 6888  10.728   9.942  12.302  3.1552  0.7537  0.9279
66591SOL    HW2 6889  10.735   9.985  12.157  0.6367 -0.1404  0.4807
66592SOL     OW 6890  11.518  11.808   3.054 -0.0356 -0.5219 -0.4819
66592SOL    HW1 6891  11.578  11.857   3.110 -0.1785  0.4430 -1.1539
66592SOL    HW2 6892  11.524  11.718   3.086  1.5340 -0.3932 -0.3244
66593SOL     OW 6893   9.216  12.127   7.127 -0.4981  0.1379  0.3685
66593SOL    HW1 6894   9.289  12.155   7.071 -0.6191  0.7605  0.5254
66593SOL    HW2 6895   9.148  12.191   7.111 -1.8907 -1.6492 -1.5104
66594SOL     OW 6896   0.827   3.659   9.585 -0.2570  0.1463  0.1062
66594SOL    HW1 6897   0.793   3.708   9.660 -0.4590  1.8819 -1.0644
66594SOL    HW2 6898   0.922   3.670   9.590 -0.2786  0.3637  0.0439
66595SOL     OW 6899   7.848   5.177   4.606  0.2609  0.1902  0.0002
66595SOL    HW1 6900   7.863   5.261   4.562  0.2050  0.2142  0.0272
66595SOL    HW2 6901   7.935   5.149   4.633  0.2775  0.2494  0.0083
66596SOL     OW 6902   4.679   2.211   9.615 -0.2314  0.1043 -0.9711
66596SOL    HW1 6903   4.732   2.195   9.693 -1.2310 -1.0277 -0.4896
66596SOL    HW2 6904   4.590   2.187   9.641 -0.8209  0.9965 -2.0619
66597SOL     OW 6905   6.581   5.109   1.107  0.5554  0.4536  0.2752
66597SOL    HW1 6906   6.669   5.108   1.070 -0.2566  0.7408 -1.8462
66597SOL    HW2 6907   6.594   5.123   1.200  2.7412  0.7478 -0.0174
66598SOL     OW 6908   6.086   2.603   9.289 -0.3818 -0.1081  0.1688
66598SOL    HW1 6909   6.109   2.575   9.201 -0.3077 -1.4884  0.5973
66598SOL    HW2 6910   6.162   2.654   9.319  0.6602 -1.6587  0.2913
66599SOL     OW 6911   5.353   0.311   6.444  0.2138 -0.3258 -0.5749
66599SOL    HW1 6912   5.313   0.398   6.453 -0.0608 -0.5062 -0.0093
66599SOL    HW2 6913   5.447   0.326   6.459  0.0325 -0.2897  0.6175
66600SOL     OW 6914   2.826   8.668   7.376  0.2684 -0.7174 -0.0647
66600SOL    HW1 6915   2.819   8.574   7.363  0.6516 -0.9832  1.4432
66600SOL    HW2 6916   2.799   8.682   7.467 -1.3394  0.8466 -0.7220
66601SOL     OW 6917   5.978   8.875  10.650 -0.5027 -0.0839  0.2151
66601SOL    HW1 6918   6.012   8.853  10.737 -0.0014 -2.3903 -0.4895
66601SOL    HW2 6919   5.907   8.937  10.667  0.1588  0.2188  2.1782
66602SOL     OW 6920   0.059  12.012   9.600 -0.0627  0.4964  1.2844
66602SOL    HW1 6921  -0.009  12.034   9.664 -1.6131  0.0097 -0.1339
66602SOL    HW2 6922   0.070  12.092   9.548 -1.1706 -0.0536  0.1361
66603SOL     OW 6923   2.958   7.382   7.625  0.4950 -0.3483 -0.3126
66603SOL    HW1 6924   2.933   7.434   7.549 -0.0719 -0.3176 -0.1103
66603SOL    HW2 6925   3.022   7.319   7.591  0.9703  0.2912 -0.6120
66604SOL     OW 6926   6.982   1.696  12.695 -0.0001  0.1951 -0.5405
66604SOL    HW1 6927   7.070   1.701  12.733 -0.2326  2.1192 -0.1611
66604SOL    HW2 6928   6.946   1.784  12.705 -1.9054 -0.4882 -0.8823
66605SOL     OW 6929   4.223   4.972   5.909 -0.0645 -0.5059  0.3106
66605SOL    HW1 6930   4.171   4.893   5.893 -1.2961  0.8109 -3.4890
66605SOL    HW2 6931   4.290   4.970   5.840 -0.7235  2.1125 -0.5187
66606SOL     OW 6932   9.176  10.692   1.607  0.3273 -0.8476 -0.0396
66606SOL    HW1 6933   9.236  10.718   1.537 -0.0296  1.8171  0.5245
66606SOL    HW2 6934   9.089  10.694   1.567  0.1832  0.0773  0.2915
66607SOL     OW 6935   8.287  12.835   2.575  0.3780  0.0297 -0.2823
66607SOL    HW1 6936   8.257  12.924   2.594  2.1712  0.6854 -0.3697
66607SOL    HW2 6937   8.336  12.843   2.494 -1.5935 -1.5599 -1.7251
66608SOL     OW 6938   6.329  11.313   3.047 -0.7451 -0.0127 -0.2310
66608SOL    HW1 6939   6.371  11.229   3.028  0.7089  0.7447 -0.5184
66608SOL    HW2 6940   6.306  11.348   2.961  0.2392  0.6501 -0.2378
66609SOL     OW 6941   6.711  11.105   0.059  0.0602  0.2003 -0.0734
66609SOL    HW1 6942   6.656  11.128  -0.016 -1.4487 -1.2757  0.5088
66609SOL    HW2 6943   6.709  11.183   0.115  0.2080  0.8793 -1.0024
66610SOL     OW 6944   8.914   8.208   9.756 -0.7326  0.1049  0.4408
66610SOL    HW1 6945   8.837   8.168   9.797 -1.0840 -0.2842 -0.5726
66610SOL    HW2 6946   8.899   8.197   9.662  0.0494  0.9917  0.2027
66611SOL     OW 6947   1.839   0.682  11.483  0.1389  0.1315  0.0390
66611SOL    HW1 6948   1.774   0.707  11.548 -2.2880  1.8802 -2.7741
66611SOL    HW2 6949   1.790   0.680  11.400  3.0596 -1.6094 -1.8261
66612SOL     OW 6950   8.216  10.522   0.240  0.4766 -0.5655  0.1500
66612SOL    HW1 6951   8.254  10.474   0.314  2.3168 -0.2836 -0.5619
66612SOL    HW2 6952   8.206  10.456   0.171  0.0881 -0.5362  0.1734
66613SOL     OW 6953   6.084   7.476   0.990 -0.1806 -0.2945 -0.3329
66613SOL    HW1 6954   6.050   7.391   0.962 -0.3325 -0.3764  0.0876
66613SOL    HW2 6955   6.116   7.461   1.079 -1.3384  0.3738  0.2179
66614SOL     OW 6956   4.347   8.974   5.807 -0.3641 -0.3370 -0.3937
66614SOL    HW1 6957   4.283   9.044   5.825 -0.7436 -0.8409  0.2898
66614SOL    HW2 6958   4.431   9.014   5.828 -0.6078 -0.1830  0.3610
66615SOL     OW 6959   6.104  10.820   4.586 -0.3993 -0.3019 -0.0870
66615SOL    HW1 6960   6.106  10.912   4.615  0.3099 -0.1953 -0.4583
66615SOL    HW2 6961   6.031  10.817   4.524  0.1900  0.2489 -0.8235
66616SOL     OW 6962  10.212  12.886   9.372  0.0338 -0.0000 -0.2085
66616SOL    HW1 6963  10.292  12.920   9.413 -0.8716  1.1890  0.6537
66616SOL    HW2 6964  10.191  12.807   9.422  0.4411 -0.0752 -0.1558
66617SOL     OW 6965   0.460   8.603   0.397 -0.5871 -0.0295 -0.0531
66617SOL    HW1 6966   0.394   8.658   0.356  0.1645  1.3981  0.5782
66617SOL    HW2 6967   0.543   8.647   0.377  0.0971 -1.3008 -0.0881
66618SOL     OW 6968   0.207   5.258   0.083 -0.4599 -0.0734  0.2906
66618SOL    HW1 6969   0.134   5.308   0.119 -0.8363 -0.2180 -0.2587
66618SOL    HW2 6970   0.283   5.315   0.094 -0.9716  0.8785 -0.8420
66619SOL     OW 6971  12.701   6.439  12.111 -0.0781  0.1362  0.2739
66619SOL    HW1 6972  12.723   6.402  12.026 -0.0407  0.4605  0.1404
66619SOL    HW2 6973  12.719   6.533  12.102 -1.0046  0.3258  0.3349
66620SOL     OW 6974   2.204  12.782   5.666  0.5279 -0.5059 -0.6282
66620SOL    HW1 6975   2.167  12.864   5.699  0.3383 -0.7508 -0.2314
66620SOL    HW2 6976   2.171  12.775   5.577  1.6695  0.5594 -1.1747
66621SOL     OW 6977   1.146  11.482   9.715 -0.3151 -0.6928  0.0724
66621SOL    HW1 6978   1.136  11.413   9.781  0.0063  1.6348  2.7737
66621SOL    HW2 6979   1.133  11.564   9.764  1.2723  1.2808 -2.5141
66622SOL     OW 6980   6.792   3.631   5.016  0.4264 -0.0699  0.0059
66622SOL    HW1 6981   6.811   3.660   5.105 -0.5979 -0.5068  0.3817
66622SOL    HW2 6982   6.795   3.536   5.020 -1.5383 -0.1752  0.0627
66623SOL     OW 6983  11.144   1.530   7.717  0.0093 -0.2762  0.9839
66623SOL    HW1 6984  11.227   1.481   7.715  0.8278  1.0732  0.9767
66623SOL    HW2 6985  11.113   1.518   7.807 -0.3061 -1.5838  0.7304
66624SOL     OW 6986   3.115   0.809   1.077  0.2693 -0.1372 -0.4680
66624SOL    HW1 6987   3.119   0.824   0.982  2.1556 -1.5187 -0.6676
66624SOL    HW2 6988   3.024   0.827   1.100 -0.5020 -0.7646 -2.7398
66625SOL     OW 6989   1.840   9.726   1.515  0.1417  0.1637  0.0080
66625SOL    HW1 6990   1.773   9.779   1.559 -0.3166  0.6818 -1.2934
66625SOL    HW2 6991   1.922   9.750   1.558 -0.4605 -0.4003  1.5553
66626SOL     OW 6992   1.906   2.840   5.382 -0.0092  0.1240 -0.2396
66626SOL    HW1 6993   1.849   2.909   5.417  0.8551  1.1150 -0.7143
66626SOL    HW2 6994   1.929   2.870   5.294 -0.8005 -1.5142 -1.0398
66627SOL     OW 6995   8.725   9.917   2.230 -0.9848 -0.2571  0.0344
66627SOL    HW1 6996   8.654   9.935   2.292 -0.6558  0.9887  0.0777
66627SOL    HW2 6997   8.764  10.002   2.213 -1.2569 -0.4984 -2.1403
66628SOL     OW 6998   9.483   8.043   6.693  0.1385 -0.1312 -0.3006
66628SOL    HW1 6999   9.577   8.024   6.697  0.4002 -0.2548 -3.5754
66628SOL    HW2 7000   9.478   8.138   6.688  0.0866 -0.1162  0.0574
66629SOL     OW 7001  12.947   5.522  10.236  0.0105  0.0261 -0.2361
66629SOL    HW1 7002  12.978   5.603  10.198  0.4537 -0.2572 -0.4839
66629SOL    HW2 7003  12.851   5.528  10.231  0.0349  0.6557  0.0247
66630SOL     OW 7004   4.449   0.156   4.881 -0.2094 -0.3227  0.6873
66630SOL    HW1 7005   4.473   0.109   4.800 -0.0156 -0.0658  0.5945
66630SOL    HW2 7006   4.531   0.197   4.910 -0.8549  2.0260 -0.5770
66631SOL     OW 7007  10.037   2.416   4.450  0.1680  0.1845 -0.3732
66631SOL    HW1 7008   9.943   2.409   4.466  0.8129 -0.6348  4.7323
66631SOL    HW2 7009  10.061   2.502   4.483  1.3847 -0.2282 -0.1121
66632SOL     OW 7010   5.186  12.119   6.743  0.1000 -0.1574  0.1414
66632SOL    HW1 7011   5.253  12.185   6.723 -0.8548  1.0553  0.7619
66632SOL    HW2 7012   5.223  12.070   6.816  1.1732 -0.8735 -0.8519
66633SOL     OW 7013   3.033   9.831   9.510 -0.3083 -0.9328  0.1574
66633SOL    HW1 7014   3.027   9.904   9.571 -0.2907 -0.6645 -0.1587
66633SOL    HW2 7015   2.980   9.858   9.434 -1.3468 -1.7717  0.5497
66634SOL     OW 7016   5.645   4.517   4.503  0.2066  0.2677  0.3449
66634SOL    HW1 7017   5.720   4.572   4.479  0.6391 -0.6016 -0.3266
66634SOL    HW2 7018   5.642   4.449   4.436 -3.6134  2.4550 -2.0613
66635SOL     OW 7019   7.363  12.842   0.524 -0.0979  0.1767 -0.1507
66635SOL    HW1 7020   7.451  12.836   0.487 -0.2867 -1.4874 -0.4217
66635SOL    HW2 7021   7.306  12.862   0.449 -0.2535 -1.4396 -0.5153
66636SOL     OW 7022   6.408   5.055   4.298  0.5103  0.4782 -0.4221
66636SOL    HW1 7023   6.451   5.017   4.374  0.0541  0.2642 -0.2667
66636SOL    HW2 7024   6.384   5.143   4.326 -0.3038  0.1551 -0.0605
66637SOL     OW 7025   8.819   5.032   7.417 -0.5082 -0.5401  0.3501
66637SOL    HW1 7026   8.892   5.055   7.360  0.4259 -2.9062  0.4432
66637SOL    HW2 7027   8.744   5.078   7.380  0.5781  0.1061 -1.1663
66638SOL     OW 7028   2.626   6.830   8.791  0.4589 -0.3755  0.0264
66638SOL    HW1 7029   2.610   6.840   8.885 -0.7297 -1.0932 -0.0791
66638SOL    HW2 7030   2.616   6.918   8.755  2.1637  0.1506  0.7065
66639SOL     OW 7031   3.748   4.727   8.199 -0.1339  0.0096  0.1408
66639SOL    HW1 7032   3.761   4.636   8.172  0.4005 -0.0791  0.6846
66639SOL    HW2 7033   3.685   4.762   8.135 -0.1681 -0.6711 -0.2076
66640SOL     OW 7034   2.662   5.287   5.173 -0.2209 -0.7064  0.0755
66640SOL    HW1 7035   2.637   5.379   5.180 -1.2926 -0.9186 -0.6479
66640SOL    HW2 7036   2.758   5.288   5.168 -0.2236  0.3675  0.0250
66641SOL     OW 7037   1.520   2.692   1.162 -0.1020  0.6085 -0.0239
66641SOL    HW1 7038   1.539   2.616   1.217  0.3024  2.8018  3.1550
66641SOL    HW2 7039   1.433   2.674   1.126 -0.6808 -0.7299  1.8977
66642SOL     OW 7040   7.476  10.101   4.299 -0.0873 -0.0861  0.1280
66642SOL    HW1 7041   7.434  10.118   4.384  0.2003 -0.4447  0.3411
66642SOL    HW2 7042   7.402  10.091   4.238 -0.2913  0.6237  0.2404
66643SOL     OW 7043   6.477   7.795  11.486  0.2607 -0.5746  0.3285
66643SOL    HW1 7044   6.547   7.749  11.532  0.3651 -1.3290 -0.5631
66643SOL    HW2 7045   6.484   7.765  11.395 -1.7608 -1.3763  0.3843
66644SOL     OW 7046   0.256  11.579   4.821 -0.0823 -0.6038 -0.3162
66644SOL    HW1 7047   0.200  11.506   4.795  0.8785 -1.3706 -0.2725
66644SOL    HW2 7048   0.341  11.560   4.781  0.4420  0.0067  0.4794
66645SOL     OW 7049   5.763   5.302  10.671  0.1936 -0.5602  0.7020
66645SOL    HW1 7050   5.844   5.298  10.722 -0.1160 -0.2922  1.2212
66645SOL    HW2 7051   5.695   5.325  10.735 -0.5238 -2.0730  0.5266
66646SOL     OW 7052   4.904   7.066   6.801  0.1646 -0.0384  0.3611
66646SOL    HW1 7053   4.964   6.999   6.832 -0.6463 -0.5175  0.9492
66646SOL    HW2 7054   4.836   7.018   6.754  0.9926  0.6196 -1.5965
66647SOL     OW 7055   7.081   0.127   7.835  0.1057 -0.3708 -0.7363
66647SOL    HW1 7056   7.053   0.070   7.905 -1.1232  1.6448  0.5273
66647SOL    HW2 7057   7.001   0.172   7.807  1.0943  1.2874 -1.0939
66648SOL     OW 7058   9.448   5.618   7.507 -0.0274 -0.0232  0.1357
66648SOL    HW1 7059   9.387   5.692   7.511 -0.4440 -0.4216  1.1677
66648SOL    HW2 7060   9.495   5.621   7.590 -0.4938 -1.3008  0.4676
66649SOL     OW 7061   5.692   7.342   8.035  0.5843  0.2419 -0.3412
66649SOL    HW1 7062   5.676   7.436   8.043 -0.3409  0.1856 -1.3581
66649SOL    HW2 7063   5.774   7.337   7.985 -0.8395  0.5358 -2.8363
66650SOL     OW 7064  10.796   1.955   0.574 -0.1926  0.0504  0.4210
66650SOL    HW1 7065  10.783   1.979   0.666 -0.3404 -1.9100  0.9568
66650SOL    HW2 7066  10.808   1.860   0.576 -0.1808 -0.0231 -1.5997
66651SOL     OW 7067   8.978   1.903   0.237  0.4145 -0.3691 -0.0107
66651SOL    HW1 7068   8.982   1.963   0.163  0.9672  1.7538  1.6609
66651SOL    HW2 7069   9.064   1.862   0.240 -0.0222 -1.4804 -1.2596
66652SOL     OW 7070   3.456   7.275   4.612 -0.1193 -0.1559 -0.2943
66652SOL    HW1 7071   3.368   7.311   4.622  0.0017  0.1256 -0.2088
66652SOL    HW2 7072   3.508   7.321   4.679 -0.0005 -0.6344 -0.0546
66653SOL     OW 7073   0.093   1.338   9.534  0.9437 -0.5216 -0.0997
66653SOL    HW1 7074   0.149   1.368   9.606 -0.9967 -0.4028  1.4323
66653SOL    HW2 7075   0.018   1.398   9.535  1.1204 -0.1541 -2.6337
66654SOL     OW 7076   5.663   9.710   2.234 -0.4177  0.2479 -0.6175
66654SOL    HW1 7077   5.576   9.747   2.218 -0.0164  0.7895 -1.6358
66654SOL    HW2 7078   5.646   9.618   2.255 -1.3648  0.7491  1.0552
66655SOL     OW 7079   5.043  12.634  11.206  0.1642  0.2706  0.5082
66655SOL    HW1 7080   4.995  12.697  11.260  0.8879 -0.0871  1.5990
66655SOL    HW2 7081   4.999  12.550  11.223  0.2823  0.1892  0.4103
66656SOL     OW 7082  12.825   9.879   3.283  0.0031 -0.1105  0.7263
66656SOL    HW1 7083  12.848   9.843   3.369 -3.9108 -1.4662  1.3965
66656SOL    HW2 7084  12.767   9.813   3.244  1.2192  0.6941 -2.8342
66657SOL     OW 7085   4.914   3.219   9.946  0.1412 -0.1043 -0.9197
66657SOL    HW1 7086   4.927   3.282   9.875 -1.2636  0.5131 -0.6612
66657SOL    HW2 7087   4.897   3.273  10.023  2.3422 -0.7418  0.0945
66658SOL     OW 7088  12.101  11.679   6.713 -0.3275  0.2735 -0.4161
66658SOL    HW1 7089  12.058  11.660   6.796 -0.0937  0.9786 -0.1315
66658SOL    HW2 7090  12.186  11.717   6.737 -0.1740  0.2998 -0.9746
66659SOL     OW 7091   5.196   4.144   4.964 -0.7454  0.0953 -0.1615
66659SOL    HW1 7092   5.115   4.190   4.944 -1.7925 -1.2078  0.9318
66659SOL    HW2 7093   5.242   4.201   5.026 -1.2016  0.4560 -0.1534
66660SOL     OW 7094   0.306  12.568   4.873  0.3069  0.1392  0.4092
66660SOL    HW1 7095   0.283  12.632   4.940 -1.0678  2.0437 -1.7546
66660SOL    HW2 7096   0.401  12.572   4.868  0.3942  0.3690  1.8004
66661SOL     OW 7097  11.429   6.617   8.975 -0.6797 -0.2793  0.3310
66661SOL    HW1 7098  11.505   6.663   9.010  1.3316 -1.8918 -1.6388
66661SOL    HW2 7099  11.463   6.564   8.904 -3.4549 -2.0956  0.1831
66662SOL     OW 7100   9.047   6.072   9.540 -0.2979  0.0374  0.4008
66662SOL    HW1 7101   9.037   6.009   9.468 -1.2366 -0.3275  0.8363
66662SOL    HW2 7102   9.109   6.137   9.506 -0.1576 -0.5291 -0.4624
66663SOL     OW 7103   4.192   1.359  12.239 -0.1678  0.4109  0.3222
66663SOL    HW1 7104   4.197   1.448  12.202 -2.4909  0.7340  0.6560
66663SOL    HW2 7105   4.227   1.368  12.327  0.9019  0.6757 -0.1106
66664SOL     OW 7106   8.994   4.724  12.437  0.4546  0.3406  0.3218
66664SOL    HW1 7107   9.056   4.774  12.384  0.6250 -2.4535 -2.3817
66664SOL    HW2 7108   9.049   4.674  12.497  0.5367  0.5750  0.4444
66665SOL     OW 7109   2.960  12.586   2.170 -0.5141  0.1606  0.1995
66665SOL    HW1 7110   3.045  12.541   2.164 -0.6372  0.1063 -2.2058
66665SOL    HW2 7111   2.911  12.535   2.234  0.3469 -1.4714 -0.3671
66666SOL     OW 7112   7.775   1.856   9.371  0.2133 -0.7635 -0.2109
66666SOL    HW1 7113   7.708   1.802   9.414 -0.8699  0.2569 -0.5639
66666SOL    HW2 7114   7.748   1.946   9.389  0.6132 -0.3237 -1.6864
66667SOL     OW 7115   4.677   1.254   2.952 -0.4047  0.0360  0.2012
66667SOL    HW1 7116   4.588   1.244   2.987 -0.8072  0.3736 -0.6920
66667SOL    HW2 7117   4.692   1.349   2.951 -0.6592  0.0738 -1.1374
66668SOL     OW 7118   4.131  12.013   5.143  0.0978  0.3100  0.1258
66668SOL    HW1 7119   4.127  12.082   5.209 -0.2339  1.5816 -1.1953
66668SOL    HW2 7120   4.172  12.054   5.067 -0.3460 -0.8782 -0.7823
66669SOL     OW 7121   4.243   1.543   7.682  0.1068  0.5014  0.3667
66669SOL    HW1 7122   4.235   1.609   7.750 -1.0036  1.9345 -1.0744
66669SOL    HW2 7123   4.319   1.572   7.630  1.5247 -1.0772  1.4375
66670SOL     OW 7124   1.868   5.766   5.528  0.1030  0.1358  0.4210
66670SOL    HW1 7125   1.884   5.709   5.453  0.6253 -0.3565  0.8910
66670SOL    HW2 7126   1.953   5.807   5.545  0.0346  0.0984  0.8537
66671SOL     OW 7127   0.358  12.519   3.649 -0.1564 -0.9090 -0.3471
66671SOL    HW1 7128   0.312  12.559   3.575 -1.8576 -0.2573  0.9942
66671SOL    HW2 7129   0.312  12.551   3.726  1.6960 -1.3961  1.0373
66672SOL     OW 7130   8.101   1.250  12.198  0.4369 -0.4278  0.4910
66672SOL    HW1 7131   8.171   1.242  12.133 -0.2095 -0.7356 -0.1823
66672SOL    HW2 7132   8.036   1.185  12.172 -0.6777  0.6989  0.3513
66673SOL     OW 7133   8.728   5.997   6.050  0.0082  0.3358  0.1407
66673SOL    HW1 7134   8.756   5.938   6.120  0.3916 -1.4879 -1.4612
66673SOL    HW2 7135   8.809   6.039   6.021  0.0333  0.1704 -0.0263
66674SOL     OW 7136   7.923   5.410   4.474  0.1638 -0.2748 -0.0492
66674SOL    HW1 7137   7.871   5.425   4.395  0.6459  0.1946 -0.2884
66674SOL    HW2 7138   7.935   5.498   4.511 -2.7225 -0.7537  2.2927
66675SOL     OW 7139   7.731   8.643   4.433 -0.6063 -0.0568 -0.1174
66675SOL    HW1 7140   7.807   8.587   4.418  0.4815  1.0391  1.0883
66675SOL    HW2 7141   7.668   8.615   4.367  0.2900 -1.9548 -0.2539
66676SOL     OW 7142   6.979   8.117   2.218  0.4720  0.3749  0.0328
66676SOL    HW1 7143   6.919   8.174   2.170 -0.7096  0.0832  1.0854
66676SOL    HW2 7144   7.051   8.173   2.245  0.7720  0.7070 -1.3857
66677SOL     OW 7145   9.971   7.893  11.258  0.2129  0.5938  0.1596
66677SOL    HW1 7146   9.997   7.984  11.243  1.9230  0.3178  1.1554
66677SOL    HW2 7147   9.916   7.897  11.337 -0.2081  0.8179 -0.1403
66678SOL     OW 7148   8.786   3.054   4.603 -0.6888 -0.0030 -0.3113
66678SOL    HW1 7149   8.768   3.141   4.567  0.0644  0.6272  0.7629
66678SOL    HW2 7150   8.880   3.054   4.620 -1.0352 -0.1370  1.9010
66679SOL     OW 7151   8.282   0.603   5.718 -0.6076 -0.3228  0.2266
66679SOL    HW1 7152   8.350   0.547   5.680 -0.6685 -0.1359 -0.1602
66679SOL    HW2 7153   8.232   0.634   5.643 -0.4548  0.4078  0.4200
66680SOL     OW 7154   1.528   5.613   0.377  0.3265  0.1654 -0.1102
66680SOL    HW1 7155   1.570   5.626   0.292  0.6781  0.6553  0.1294
66680SOL    HW2 7156   1.508   5.702   0.407 -0.2453 -0.0277  0.0997
66681SOL     OW 7157   0.458   0.874   4.181 -0.1703  0.1610  0.3470
66681SOL    HW1 7158   0.504   0.875   4.265  0.9593 -2.0158 -0.1869
66681SOL    HW2 7159   0.433   0.783   4.168  0.2245  0.3209 -1.9566
66682SOL     OW 7160   9.698  12.314   7.820 -0.8782 -0.0064  1.0154
66682SOL    HW1 7161   9.730  12.378   7.756 -1.9420  0.2609  0.7324
66682SOL    HW2 7162   9.698  12.361   7.903  1.2920 -0.5975  1.4118
66683SOL     OW 7163  12.224   9.005   5.594 -0.0430  0.5031 -0.0806
66683SOL    HW1 7164  12.257   8.915   5.587 -1.9268 -0.2837  0.5479
66683SOL    HW2 7165  12.196   9.027   5.505 -2.6848 -0.8523  0.3302
66684SOL     OW 7166   4.346   1.351   6.511  0.2828 -0.0870  0.1800
66684SOL    HW1 7167   4.317   1.416   6.575  0.4116 -0.2067  0.3597
66684SOL    HW2 7168   4.292   1.274   6.529  0.4793 -0.1984  0.2964
66685SOL     OW 7169  11.022   2.020   5.699  0.4098 -0.4493  0.1178
66685SOL    HW1 7170  11.040   2.014   5.793  0.9865 -0.2636  0.0259
66685SOL    HW2 7171  11.100   2.062   5.663  0.4057 -0.9793 -0.5158
66686SOL     OW 7172   3.817   3.233   5.995 -0.0070 -0.1697 -0.7427
66686SOL    HW1 7173   3.770   3.151   6.003 -0.4255 -0.0775 -2.1066
66686SOL    HW2 7174   3.783   3.274   5.916  0.7112  0.9830 -0.4902
66687SOL     OW 7175  11.803   3.760   1.470  0.6954  0.5899  0.0935
66687SOL    HW1 7176  11.865   3.710   1.418  0.7431  0.4691  0.2685
66687SOL    HW2 7177  11.844   3.770   1.556  0.7321  1.0160  0.0305
66688SOL     OW 7178   8.115   3.513  11.063 -0.4189 -0.6740 -0.1856
66688SOL    HW1 7179   8.184   3.579  11.055  0.2192 -1.5451 -2.7484
66688SOL    HW2 7180   8.038   3.554  11.025 -0.5373 -0.7682 -0.0491
66689SOL     OW 7181   9.811  12.743   0.013 -0.7033 -0.2326  0.1280
66689SOL    HW1 7182   9.768  12.687   0.077 -1.9325 -0.0193 -0.4911
66689SOL    HW2 7183   9.820  12.827   0.058  1.8808 -1.0556  1.3600
66690SOL     OW 7184  12.593   8.572   6.917 -0.8620 -0.3478 -0.4217
66690SOL    HW1 7185  12.548   8.637   6.863 -0.4029  1.3456  1.1585
66690SOL    HW2 7186  12.685   8.598   6.915  0.1238 -3.3728 -3.0477
66691SOL     OW 7187   4.677   0.433   0.566 -0.2384  0.1178  0.2016
66691SOL    HW1 7188   4.586   0.459   0.579 -1.5181 -3.0304 -1.2790
66691SOL    HW2 7189   4.699   0.465   0.478  0.7642  2.2928  1.1622
66692SOL     OW 7190   9.712   7.770  11.915 -0.0324  0.0246 -0.1030
66692SOL    HW1 7191   9.641   7.799  11.857  0.0013  0.8666  0.2591
66692SOL    HW2 7192   9.684   7.799  12.002  1.3992  1.6636 -0.1413
66693SOL     OW 7193   0.405   3.517   2.950  0.3451 -0.3798  0.1725
66693SOL    HW1 7194   0.433   3.538   3.039 -2.1082 -0.9416  1.1568
66693SOL    HW2 7195   0.419   3.597   2.900  0.3283  0.4305  1.4418
66694SOL     OW 7196   0.448   4.611   8.159 -0.3909 -0.1754  0.1305
66694SOL    HW1 7197   0.388   4.615   8.085 -0.5371 -0.3732  0.2358
66694SOL    HW2 7198   0.489   4.525   8.152  2.3255  1.1095 -1.8319
66695SOL     OW 7199  10.712  10.483  11.374 -0.1218  0.1663  0.0410
66695SOL    HW1 7200  10.653  10.556  11.360  1.5583  1.2937 -1.7272
66695SOL    HW2 7201  10.682  10.442  11.455 -0.8015  3.1394  1.4137
66696SOL     OW 7202  10.236   4.891   9.443  0.4883  0.6872  0.3423
66696SOL    HW1 7203  10.193   4.891   9.528  0.2057  1.0955  0.2011
66696SOL    HW2 7204  10.165   4.892   9.380  0.6342 -1.6133  0.0488
66697SOL     OW 7205  12.185   5.910   0.205 -0.3327  0.0387  0.1453
66697SOL    HW1 7206  12.180   5.820   0.174 -0.9040 -0.2562  1.0841
66697SOL    HW2 7207  12.262   5.911   0.262 -0.3964  0.1195  0.2293
66698SOL     OW 7208   5.605   1.906   7.820 -0.5700 -0.4223  0.2237
66698SOL    HW1 7209   5.532   1.867   7.868 -0.7599 -1.6122 -0.9676
66698SOL    HW2 7210   5.585   1.888   7.728  1.4947 -1.3241 -0.1031
66699SOL     OW 7211   5.374  11.618   4.335 -0.5337  0.0211 -0.0715
66699SOL    HW1 7212   5.438  11.685   4.311 -1.5457  1.6530  1.4634
66699SOL    HW2 7213   5.330  11.654   4.412 -0.7986 -2.6766  1.1565
66700SOL     OW 7214  11.049   4.033   9.704  0.0483 -0.4835 -0.9429
66700SOL    HW1 7215  10.990   3.969   9.665 -1.0566 -0.2159  0.2203
66700SOL    HW2 7216  11.021   4.117   9.668  0.0325 -0.4096 -0.7608
66701SOL     OW 7217   9.639  12.180   5.603 -0.6017  0.5339  0.0471
66701SOL    HW1 7218   9.732  12.183   5.584 -0.2605  0.5347  1.5379
66701SOL    HW2 7219   9.631  12.223   5.689 -2.3664  3.2347 -1.3135
66702SOL     OW 7220   9.424   5.334   4.837  0.1426  0.4920 -0.3260
66702SOL    HW1 7221   9.429   5.297   4.925  1.3634  0.3902 -0.4195
66702SOL    HW2 7222   9.372   5.414   4.847  0.6181  0.7027  0.5705
66703SOL     OW 7223   7.462   5.143   1.827  0.3882 -0.2639  0.2679
66703SOL    HW1 7224   7.431   5.062   1.787  0.8007 -1.4771  2.2794
66703SOL    HW2 7225   7.557   5.137   1.823  0.4657 -0.8209  2.0840
66704SOL     OW 7226   2.334   9.631   3.047 -0.3717 -0.2217  0.2203
66704SOL    HW1 7227   2.258   9.575   3.034 -2.3092  2.5698 -1.6879
66704SOL    HW2 7228   2.405   9.586   3.003 -1.5098 -1.7337 -0.1728
66705SOL     OW 7229   1.124   1.240   8.919  0.1760  0.0252 -0.0072
66705SOL    HW1 7230   1.165   1.205   8.999  1.3918 -1.2239 -1.1251
66705SOL    HW2 7231   1.059   1.174   8.895  2.0446 -1.3088 -1.7766
66706SOL     OW 7232  12.657  11.792   0.643 -0.4209  0.1537 -0.0496
66706SOL    HW1 7233  12.620  11.877   0.663  4.2262  2.5442 -0.3282
66706SOL    HW2 7234  12.716  11.773   0.716  1.3066 -1.0624 -1.6748
66707SOL     OW 7235   7.397   9.132   8.923 -0.2306 -0.0251  0.6865
66707SOL    HW1 7236   7.354   9.202   8.972 -0.0771  0.1701  0.5416
66707SOL    HW2 7237   7.490   9.144   8.939 -0.2705 -1.7493  2.7953
66708SOL     OW 7238  11.846  11.689   4.427  0.5860  0.5684 -0.0770
66708SOL    HW1 7239  11.801  11.605   4.417 -0.3304  0.7649  1.9084
66708SOL    HW2 7240  11.798  11.749   4.371  0.0010  0.2061  0.0311
66709SOL     OW 7241   2.573   1.154   0.085  0.3428 -0.3015 -0.2252
66709SOL    HW1 7242   2.636   1.173   0.015 -0.0152  0.2243 -0.4132
66709SOL    HW2 7243   2.496   1.119   0.039 -0.2932  1.0211 -0.2130
66710SOL     OW 7244   0.969  11.567   0.295 -0.1656  0.2625 -0.0914
66710SOL    HW1 7245   1.022  11.628   0.244 -1.9390  1.7828 -0.2278
66710SOL    HW2 7246   0.888  11.556   0.245 -0.0181 -2.0829  0.0420
66711SOL     OW 7247  11.420   6.250   9.864  0.0183  0.0412 -0.9963
66711SOL    HW1 7248  11.390   6.301   9.788 -1.9014  1.1225  0.3911
66711SOL    HW2 7249  11.342   6.201   9.891  1.3203 -2.2682 -1.1358
66712SOL     OW 7250   6.700   9.080   3.985 -0.4326 -0.0723 -0.4039
66712SOL    HW1 7251   6.673   9.167   3.955 -0.5267  0.3428  0.8192
66712SOL    HW2 7252   6.640   9.019   3.941 -2.2701  0.6987  0.9259
66713SOL     OW 7253  12.634  10.265  12.597 -0.2322  0.5989  0.0744
66713SOL    HW1 7254  12.553  10.261  12.649  0.1037 -1.3548  0.5420
66713SOL    HW2 7255  12.698  10.304  12.657 -0.0515 -0.8876  0.9092
66714SOL     OW 7256   7.277   0.736   2.010 -0.2489 -0.5050  0.3584
66714SOL    HW1 7257   7.296   0.825   1.980  0.7645 -0.3311  1.4550
66714SOL    HW2 7258   7.187   0.740   2.042 -0.6149 -0.1805 -0.6767
66715SOL     OW 7259   1.896   3.933  12.860 -0.9367  0.0551  0.4273
66715SOL    HW1 7260   1.977   3.927  12.911 -0.4879  0.2913 -0.2476
66715SOL    HW2 7261   1.833   3.881  12.910  0.5944 -3.3640 -0.8780
66716SOL     OW 7262   4.272   9.976   7.268 -0.5116  0.1809 -0.0191
66716SOL    HW1 7263   4.261   9.881   7.264  0.2902  0.0795  0.0475
66716SOL    HW2 7264   4.244   9.999   7.356 -1.7130  0.1573 -0.3714
66717SOL     OW 7265  11.762   8.883  12.370  0.2682 -0.6225  0.1507
66717SOL    HW1 7266  11.675   8.842  12.368 -0.3468  0.5264 -3.2298
66717SOL    HW2 7267  11.808   8.843  12.297  1.4678  1.0224 -0.0360
66718SOL     OW 7268  12.123   7.038  10.871 -0.0154  0.1286 -0.0242
66718SOL    HW1 7269  12.108   7.128  10.841  1.9116  0.6081  0.3544
66718SOL    HW2 7270  12.111   6.984  10.792  2.0443  1.0737 -1.0546
66719SOL     OW 7271  12.856  12.362   0.611  0.1830  0.2365 -0.6577
66719SOL    HW1 7272  12.797  12.416   0.664  1.5714  2.1821 -0.9644
66719SOL    HW2 7273  12.944  12.396   0.631  1.1405 -1.8601 -1.0021
66720SOL     OW 7274   9.496  11.101  10.954  0.3962 -0.1332 -0.0653
66720SOL    HW1 7275   9.513  11.028  11.014  0.3807 -0.3288 -0.2987
66720SOL    HW2 7276   9.521  11.068  10.868  0.7337  0.2653 -0.1191
66721SOL     OW 7277   9.606   1.507  12.664  0.0992 -0.1191  0.4629
66721SOL    HW1 7278   9.678   1.527  12.723  0.3214  0.7576 -0.0736
66721SOL    HW2 7279   9.649   1.474  12.584 -0.2398 -2.3348  1.1295
66722SOL     OW 7280   2.907   9.532   4.236  0.2370 -0.6376 -0.0062
66722SOL    HW1 7281   2.871   9.621   4.232  1.9633  0.1555  0.8189
66722SOL    HW2 7282   2.879   9.492   4.154 -1.0892  0.4643 -0.1288
66723SOL     OW 7283  12.615   7.239   2.369 -0.9565  0.4786  0.3631
66723SOL    HW1 7284  12.623   7.185   2.448 -0.4578  0.2519  0.1658
66723SOL    HW2 7285  12.696   7.222   2.321 -1.6115 -0.0135 -0.5905
66724SOL     OW 7286   7.108   0.999   0.610 -0.6812 -0.0236 -0.4621
66724SOL    HW1 7287   7.035   1.032   0.557  0.3392  0.3778 -1.6821
66724SOL    HW2 7288   7.105   1.051   0.690 -2.0968 -0.4404 -0.2143
66725SOL     OW 7289  11.424   5.059   2.384 -0.0719  0.2427  0.0558
66725SOL    HW1 7290  11.385   5.008   2.455 -0.0103  1.0121  0.6612
66725SOL    HW2 7291  11.511   5.083   2.417  0.3201 -0.1568 -0.6532
66726SOL     OW 7292   1.830   1.299   4.771  0.4910 -0.3420 -0.4183
66726SOL    HW1 7293   1.755   1.314   4.713  0.6830 -1.1279 -0.8895
66726SOL    HW2 7294   1.812   1.354   4.848 -0.5583 -0.4912 -0.5325
66727SOL     OW 7295   8.807   8.020   9.122 -0.0831 -0.3420 -0.8076
66727SOL    HW1 7296   8.852   7.940   9.092 -1.0456 -0.8903 -0.8145
66727SOL    HW2 7297   8.753   7.991   9.195  2.3615  1.0112  1.7122
66728SOL     OW 7298   6.029   7.416   3.573 -0.7278 -0.8430 -0.5579
66728SOL    HW1 7299   6.098   7.350   3.564  0.1342 -0.2223  1.0609
66728SOL    HW2 7300   6.028   7.437   3.666 -3.7042 -1.4128 -0.3624
66729SOL     OW 7301   1.542   3.801   2.613 -0.1746 -0.3822 -0.2067
66729SOL    HW1 7302   1.590   3.778   2.693  1.2506  1.2991 -0.5192
66729SOL    HW2 7303   1.597   3.767   2.543 -0.2842  0.1123 -0.5323
66730SOL     OW 7304   7.747   6.844   6.871  0.4630 -0.3147  0.0877
66730SOL    HW1 7305   7.809   6.914   6.851  0.7059 -0.7624 -0.7744
66730SOL    HW2 7306   7.798   6.779   6.920  0.3638 -0.1343  0.4376
66731SOL     OW 7307   5.429  10.677   3.538  0.5109  0.2813 -0.3043
66731SOL    HW1 7308   5.412  10.730   3.616  1.1776 -2.3871  1.7959
66731SOL    HW2 7309   5.378  10.597   3.552  3.7608 -2.0175 -0.5269
66732SOL     OW 7310  11.700   4.170  10.806 -0.0913 -0.3206  0.1825
66732SOL    HW1 7311  11.616   4.157  10.763  0.8424 -0.3618 -1.7339
66732SOL    HW2 7312  11.681   4.231  10.877 -1.3069  1.7919 -1.8158
66733SOL     OW 7313   7.848   6.390  10.613  0.5002 -1.1937  0.1810
66733SOL    HW1 7314   7.807   6.474  10.630 -0.0570 -1.1884 -1.0151
66733SOL    HW2 7315   7.942   6.406  10.619  0.3816 -0.6249  0.5253
66734SOL     OW 7316   1.805   1.939   0.209 -0.1765  0.3381 -0.4405
66734SOL    HW1 7317   1.789   1.849   0.237  1.5100  0.1926  0.1591
66734SOL    HW2 7318   1.870   1.973   0.271 -0.9953  2.0772 -0.4811
66735SOL     OW 7319   8.641  12.755   6.805  0.5674 -0.0532 -0.1124
66735SOL    HW1 7320   8.728  12.761   6.845  1.0712  1.6609 -1.3509
66735SOL    HW2 7321   8.612  12.845   6.796 -1.9365 -0.6042  1.4041
66736SOL     OW 7322  12.134   8.887   1.315 -0.0609 -0.8150 -0.1344
66736SOL    HW1 7323  12.150   8.896   1.222 -2.0341 -0.9257 -0.5304
66736SOL    HW2 7324  12.207   8.834   1.348  1.7442  0.8800 -1.1933
66737SOL     OW 7325   4.096  10.448   9.061  0.1093 -0.5310  0.0438
66737SOL    HW1 7326   4.040  10.508   9.012  2.7044  0.8576 -1.4004
66737SOL    HW2 7327   4.079  10.362   9.023 -1.0940 -0.1920 -0.2398
66738SOL     OW 7328   3.594   4.289   0.070 -0.6965  0.4025  0.3641
66738SOL    HW1 7329   3.651   4.247   0.134  1.0787 -0.0049 -1.3654
66738SOL    HW2 7330   3.573   4.374   0.108  1.8432  0.9425  0.7331
66739SOL     OW 7331  10.870  11.341   0.828  0.3454  0.4348 -0.3584
66739SOL    HW1 7332  10.924  11.264   0.809  0.8566  0.9489 -1.0568
66739SOL    HW2 7333  10.922  11.415   0.797 -0.0394  1.0864  0.5248
66740SOL     OW 7334   7.444   1.226   7.453 -0.0749 -0.1550 -0.8256
66740SOL    HW1 7335   7.381   1.287   7.414 -0.8877 -1.5140 -1.7001
66740SOL    HW2 7336   7.391   1.154   7.486  1.0532 -2.0247 -2.8236
66741SOL     OW 7337   1.156   3.791   9.945 -0.0310 -0.1795 -0.1659
66741SOL    HW1 7338   1.076   3.782   9.894 -0.2176 -3.0066  0.5084
66741SOL    HW2 7339   1.191   3.702   9.952  1.6159  0.5522  2.0549
66742SOL     OW 7340   5.682   9.400   8.752 -0.3827  0.5157  0.2079
66742SOL    HW1 7341   5.724   9.319   8.783 -1.4501 -0.1302  0.0492
66742SOL    HW2 7342   5.622   9.370   8.684  2.0764  1.9193 -2.7876
66743SOL     OW 7343   9.871   6.219   3.351  0.1804  0.7566  0.6248
66743SOL    HW1 7344   9.828   6.234   3.435  3.7852 -0.8428  3.0103
66743SOL    HW2 7345   9.911   6.303   3.329 -0.3307  1.0413  0.7715
66744SOL     OW 7346   3.104   4.770   4.697 -0.4361  0.1601 -0.0862
66744SOL    HW1 7347   3.189   4.753   4.658 -0.6126  0.6717 -0.7064
66744SOL    HW2 7348   3.124   4.819   4.777  0.0811 -2.7397  1.7187
66745SOL     OW 7349   1.489  11.143   3.814  0.1908  0.3186 -0.1595
66745SOL    HW1 7350   1.434  11.081   3.862  0.2449  0.3292 -0.0844
66745SOL    HW2 7351   1.520  11.205   3.881 -1.5422  1.6765 -0.5252
66746SOL     OW 7352   8.881   0.304   8.429  0.0185  0.0344 -0.0972
66746SOL    HW1 7353   8.796   0.341   8.405 -0.0550 -1.1665 -1.8668
66746SOL    HW2 7354   8.925   0.288   8.345  2.1954  1.0303  0.7902
66747SOL     OW 7355   6.736   3.275   8.352 -0.2952  0.3897  0.2882
66747SOL    HW1 7356   6.755   3.342   8.285  1.0134 -0.3090 -0.0817
66747SOL    HW2 7357   6.816   3.272   8.405  0.4095 -2.1499 -0.8131
66748SOL     OW 7358   5.585   2.365   9.685  0.0931 -0.2231 -0.3554
66748SOL    HW1 7359   5.510   2.375   9.743 -0.1873 -0.8321 -0.6081
66748SOL    HW2 7360   5.553   2.391   9.599  1.2931  3.7654  0.1539
66749SOL     OW 7361   4.700   1.202  10.877  0.2066 -0.1815 -0.3804
66749SOL    HW1 7362   4.760   1.272  10.852 -1.2210  0.9143 -0.8306
66749SOL    HW2 7363   4.639   1.243  10.938 -2.0408 -0.3643 -2.3695
66750SOL     OW 7364  10.302   7.272  10.413 -0.0606 -0.1540 -1.0586
66750SOL    HW1 7365  10.322   7.297  10.323 -1.2279  1.3375 -0.9542
66750SOL    HW2 7366  10.342   7.340  10.467  0.2270 -0.7787 -0.4677
66751SOL     OW 7367   0.767  12.694  11.946 -0.4760  0.0584 -0.1292
66751SOL    HW1 7368   0.680  12.682  11.984 -1.4707  1.3695 -1.8241
66751SOL    HW2 7369   0.826  12.693  12.020 -1.8821 -1.3079  1.0384
66752SOL     OW 7370   0.811   1.582   2.891 -0.0654 -0.1848 -0.4913
66752SOL    HW1 7371   0.844   1.607   2.805 -1.1253  0.1525 -0.8098
66752SOL    HW2 7372   0.737   1.641   2.908 -0.3707 -0.7651  0.2986
66753SOL     OW 7373   1.218   7.044   0.782 -0.2482 -0.0251  0.0077
66753SOL    HW1 7374   1.172   6.970   0.743 -1.9091  0.6408  0.6208
66753SOL    HW2 7375   1.246   7.013   0.868 -1.8796  0.3227  0.7115
66754SOL     OW 7376   8.897   2.200  12.358  0.3745 -0.0949  0.6807
66754SOL    HW1 7377   8.973   2.202  12.300 -0.9856 -0.5734 -1.2146
66754SOL    HW2 7378   8.860   2.112  12.347 -0.8523  0.3564  0.9871
66755SOL     OW 7379  11.484   9.567   0.351 -0.4890 -0.3352 -1.3100
66755SOL    HW1 7380  11.519   9.480   0.372 -1.6168 -0.6734 -0.7321
66755SOL    HW2 7381  11.422   9.551   0.280 -1.9317 -0.2842 -0.1070
66756SOL     OW 7382   3.291   7.362   9.444  0.2424  0.0529 -0.1779
66756SOL    HW1 7383   3.320   7.321   9.362  0.0751  1.2993 -0.9013
66756SOL    HW2 7384   3.270   7.289   9.502  2.2538 -0.9012 -0.5434
66757SOL     OW 7385  11.341   1.336  10.607  0.4797  0.2808 -0.1552
66757SOL    HW1 7386  11.413   1.399  10.612 -0.3551  1.2359  0.1852
66757SOL    HW2 7387  11.287   1.355  10.684  0.1813 -0.8325 -0.0699
66758SOL     OW 7388   7.743   9.080   4.975  0.4255 -0.2630  0.2392
66758SOL    HW1 7389   7.728   9.136   4.899  1.2468 -0.8392 -0.3610
66758SOL    HW2 7390   7.660   9.082   5.023  0.4056  1.4085  0.2078
66759SOL     OW 7391  10.685   4.689   5.981 -0.3799  0.1220  0.7024
66759SOL    HW1 7392  10.644   4.643   6.054 -1.0361 -1.3929 -0.5759
66759SOL    HW2 7393  10.614   4.705   5.919 -0.0904  2.5198  0.8731
66760SOL     OW 7394   8.335   6.679   0.262 -0.0469  0.0962 -0.0271
66760SOL    HW1 7395   8.414   6.734   0.269 -0.6762  1.1144 -0.6724
66760SOL    HW2 7396   8.350   6.628   0.183 -0.1146  0.4382 -0.2655
66761SOL     OW 7397   9.637   4.131   6.821 -0.7246 -0.1647 -0.5141
66761SOL    HW1 7398   9.727   4.134   6.856 -0.6493 -1.3606 -0.5447
66761SOL    HW2 7399   9.604   4.046   6.851 -1.1948 -0.5553 -2.0712
66762SOL     OW 7400   7.254   5.456   4.380 -0.3422  0.2720  0.5670
66762SOL    HW1 7401   7.207   5.501   4.451 -0.4231  0.2857  0.5048
66762SOL    HW2 7402   7.187   5.440   4.314 -0.3164  0.0396  0.5982
66763SOL     OW 7403   9.943   1.893   4.751  0.6363 -0.5602  0.0166
66763SOL    HW1 7404   9.909   1.937   4.829 -1.4855  0.0445 -1.1667
66763SOL    HW2 7405  10.024   1.940   4.730 -0.3394  1.2716  0.1484
66764SOL     OW 7406   9.336   1.717   2.694 -0.0926 -0.4049 -0.2708
66764SOL    HW1 7407   9.307   1.625   2.694  0.1917 -0.5391 -2.0131
66764SOL    HW2 7408   9.282   1.758   2.626 -0.2417  0.7348  0.5219
66765SOL     OW 7409   8.897  10.397   8.605  0.0839  0.2398  0.0529
66765SOL    HW1 7410   8.873  10.370   8.516 -0.1994  0.2325  0.1304
66765SOL    HW2 7411   8.993  10.391   8.607  0.0475 -0.4403 -0.0331
66766SOL     OW 7412   0.353  11.541   7.171  0.2740 -0.0101 -0.0503
66766SOL    HW1 7413   0.371  11.478   7.101  2.7547  0.6495 -0.1212
66766SOL    HW2 7414   0.323  11.487   7.244  1.3207 -1.1786 -0.4408
66767SOL     OW 7415   1.177   6.149   7.340 -0.0819 -0.1209 -0.0176
66767SOL    HW1 7416   1.136   6.109   7.263 -1.2626 -0.3841  0.7244
66767SOL    HW2 7417   1.128   6.230   7.354  2.5814  1.9907 -1.7875
66768SOL     OW 7418   3.214   8.036   0.727  0.0233 -0.2561 -0.3861
66768SOL    HW1 7419   3.235   8.014   0.817  1.0648 -0.2096 -0.6042
66768SOL    HW2 7420   3.190   8.129   0.730  1.3326  0.0990 -0.3389
66769SOL     OW 7421   8.260   5.941  12.690 -0.4357  0.2001 -0.7300
66769SOL    HW1 7422   8.257   5.867  12.630  1.1432 -0.0467 -0.5376
66769SOL    HW2 7423   8.192   5.921  12.755  1.5426 -2.4413  0.7799
66770SOL     OW 7424  10.193   8.180   2.795  0.0928 -0.3955 -0.2365
66770SOL    HW1 7425  10.224   8.258   2.749  1.4637  0.4758  1.9931
66770SOL    HW2 7426  10.147   8.129   2.728  2.7315  0.2962 -2.7785
66771SOL     OW 7427   1.952   8.927   8.989  0.6170  0.4776  0.5911
66771SOL    HW1 7428   1.862   8.954   9.010 -0.1670 -1.4090 -0.0842
66771SOL    HW2 7429   1.963   8.949   8.897 -0.8046 -3.1007 -0.5990
66772SOL     OW 7430  11.099   9.659   0.408 -0.1128  0.2816 -0.0703
66772SOL    HW1 7431  11.015   9.691   0.376 -1.5853 -1.5947  1.6647
66772SOL    HW2 7432  11.164   9.716   0.366 -2.0893  0.5867 -2.9942
66773SOL     OW 7433   6.304   0.553   9.565 -0.4715  0.0224  0.4641
66773SOL    HW1 7434   6.284   0.589   9.478  0.3416 -0.6512 -0.0189
66773SOL    HW2 7435   6.251   0.605   9.625 -0.5206  0.9752 -0.3664
66774SOL     OW 7436  10.184   1.070   8.634  0.1943 -0.3065  0.1545
66774SOL    HW1 7437  10.102   1.096   8.592  0.5157  0.3147 -0.0994
66774SOL    HW2 7438  10.239   1.148   8.631  1.0186 -0.8759 -0.2002
66775SOL     OW 7439  11.855   5.603   0.675 -0.4351  0.4556  0.3631
66775SOL    HW1 7440  11.927   5.661   0.701  0.1701  0.8000 -1.8681
66775SOL    HW2 7441  11.834   5.554   0.755  2.3147  0.2749  1.0812
66776SOL     OW 7442   5.965   9.329   2.536  0.5235  0.4730 -0.1003
66776SOL    HW1 7443   6.025   9.332   2.612 -0.4878  1.0670  0.6970
66776SOL    HW2 7444   5.897   9.392   2.557 -0.8843 -0.8367 -0.5806
66777SOL     OW 7445   7.358   7.166   0.247  0.5478  0.1155  0.0477
66777SOL    HW1 7446   7.373   7.161   0.152 -0.9238  0.4206 -0.2331
66777SOL    HW2 7447   7.314   7.083   0.268 -0.4464  0.6560  0.1710
66778SOL     OW 7448  10.017  11.372  12.923  0.2182  0.1580 -0.3879
66778SOL    HW1 7449  10.009  11.463  12.896 -0.3604  0.1555 -0.2329
66778SOL    HW2 7450   9.938  11.354  12.973  1.1697  0.1072  1.1888
66779SOL     OW 7451   4.382  10.811   9.787 -0.1703 -0.4236  0.9100
66779SOL    HW1 7452   4.318  10.829   9.718  0.8775  1.1027  0.2890
66779SOL    HW2 7453   4.362  10.721   9.815  0.2915 -1.7465 -2.4625
66780SOL     OW 7454   7.315   0.514   5.262 -0.1903  0.5870 -0.3733
66780SOL    HW1 7455   7.341   0.490   5.351 -0.3007 -0.3259 -0.5704
66780SOL    HW2 7456   7.236   0.462   5.246 -0.0077  0.5274 -1.1057
66781SOL     OW 7457   1.691   9.170   1.232  0.4679  0.0891  0.5181
66781SOL    HW1 7458   1.770   9.165   1.287 -0.2788 -1.3540  1.5548
66781SOL    HW2 7459   1.686   9.083   1.191  0.3085  0.7275 -0.8701
66782SOL     OW 7460   3.864   3.282   3.834 -0.0774 -0.1031 -0.3264
66782SOL    HW1 7461   3.779   3.296   3.794 -0.0417  0.4807 -0.2036
66782SOL    HW2 7462   3.884   3.364   3.879 -0.6260 -1.0749  1.8504
66783SOL     OW 7463   3.502   2.982  11.377  0.4899  0.1198 -0.3668
66783SOL    HW1 7464   3.432   2.916  11.380  0.5291  0.0952  0.2553
66783SOL    HW2 7465   3.558   2.960  11.451  0.4430  0.9097 -0.0831
66784SOL     OW 7466  12.596   6.626   1.558 -0.0116  0.2187  0.2568
66784SOL    HW1 7467  12.627   6.705   1.513 -1.9452  0.3453 -0.9701
66784SOL    HW2 7468  12.611   6.555   1.496 -0.6263  0.0400  0.3007
66785SOL     OW 7469   9.249  12.767  12.154 -0.1722  0.5101  0.0823
66785SOL    HW1 7470   9.282  12.678  12.152 -0.4906  0.3331 -2.8037
66785SOL    HW2 7471   9.327  12.822  12.145 -0.1208  0.3800 -0.3257
66786SOL     OW 7472   7.280   6.657   3.182  0.6174  0.5943  0.4421
66786SOL    HW1 7473   7.251   6.623   3.098  0.2808  1.3107  0.2580
66786SOL    HW2 7474   7.221   6.618   3.246  0.3569  0.6781  0.2543
66787SOL     OW 7475  12.617   5.844   1.025  0.0267  0.1732 -0.1568
66787SOL    HW1 7476  12.563   5.853   0.946  1.6423 -1.6393 -1.5776
66787SOL    HW2 7477  12.700   5.886   1.002  0.6598 -0.7397  0.4138
66788SOL     OW 7478   3.150   8.390   3.496  0.7464  0.1686  0.4476
66788SOL    HW1 7479   3.197   8.457   3.547  0.6188  0.3030  0.3877
66788SOL    HW2 7480   3.084   8.356   3.556  0.6804  0.2366  0.4128
66789SOL     OW 7481   9.846   8.641  12.628  0.0802  0.0396 -0.4197
66789SOL    HW1 7482   9.788   8.686  12.690 -0.1406 -0.1003 -0.5236
66789SOL    HW2 7483   9.906   8.709  12.598  1.5322 -0.2838  1.4899
66790SOL     OW 7484   7.896  11.149   8.976 -0.0391  0.2534 -0.5803
66790SOL    HW1 7485   7.986  11.178   8.961 -0.2138  1.2014  0.1061
66790SOL    HW2 7486   7.879  11.088   8.904  0.6543  1.1885 -1.5881
66791SOL     OW 7487  12.241   1.493   6.845  0.1274  0.6883  0.1625
66791SOL    HW1 7488  12.277   1.554   6.780  0.1802  0.3325 -0.1510
66791SOL    HW2 7489  12.298   1.503   6.921 -1.4451  2.9779  1.1314
66792SOL     OW 7490  10.509  11.565   5.204 -0.3162  0.5311 -0.5657
66792SOL    HW1 7491  10.591  11.534   5.243 -0.1428  0.2700 -1.1158
66792SOL    HW2 7492  10.526  11.657   5.184  0.3463  0.1548 -1.9096
66793SOL     OW 7493   0.156   6.512  10.266 -0.1639 -0.1388  0.5345
66793SOL    HW1 7494   0.153   6.428  10.219  1.7646 -0.1294  0.3205
66793SOL    HW2 7495   0.247   6.520  10.294 -0.1786  2.1450  0.0757
66794SOL     OW 7496  12.413   8.729   6.783 -0.4409 -0.0360 -0.2179
66794SOL    HW1 7497  12.382   8.790   6.850 -1.1692  0.2078 -0.7593
66794SOL    HW2 7498  12.444   8.786   6.712 -1.1656 -0.2836 -0.7449
66795SOL     OW 7499   1.980  11.320  11.056  0.0423 -0.2271 -0.7019
66795SOL    HW1 7500   2.016  11.326  11.145  0.2976 -1.3833 -0.7057
66795SOL    HW2 7501   1.901  11.374  11.058  0.9831  1.1794 -0.2816
66796SOL     OW 7502   6.483   8.295   9.743  0.3820 -0.3015  0.0932
66796SOL    HW1 7503   6.570   8.309   9.782  0.4243 -0.4440  0.0496
66796SOL    HW2 7504   6.499   8.293   9.649  0.2413  0.3378  0.0448
66797SOL     OW 7505   5.690   2.439   4.801 -0.0333  0.2117 -0.1457
66797SOL    HW1 7506   5.746   2.515   4.812 -1.7097  1.3683  0.8828
66797SOL    HW2 7507   5.746   2.364   4.824  1.5124  1.1371 -0.7415
66798SOL     OW 7508   8.541   6.777  11.213  0.3635 -0.5406 -0.2553
66798SOL    HW1 7509   8.611   6.841  11.220 -0.1534  0.1410 -1.1447
66798SOL    HW2 7510   8.571   6.717  11.144  1.1499 -1.6848  1.0245
66799SOL     OW 7511   4.634   5.832   2.322  0.0395  0.7965 -0.0499
66799SOL    HW1 7512   4.578   5.756   2.306 -0.7899  1.1463  1.0583
66799SOL    HW2 7513   4.720   5.796   2.344  0.6790  0.2633 -3.0287
66800SOL     OW 7514  11.638   5.231   0.361  0.2313  1.1324  0.1140
66800SOL    HW1 7515  11.695   5.298   0.324 -0.0249  2.0425  1.2819
66800SOL    HW2 7516  11.605   5.182   0.285  0.8928  1.9509 -0.7205
66801SOL     OW 7517   9.211   9.111   9.092 -0.5802  0.3617 -0.0636
66801SOL    HW1 7518   9.289   9.153   9.127 -0.2742 -0.0520 -0.2478
66801SOL    HW2 7519   9.233   9.090   9.001 -1.1253  0.8062 -0.3043
66802SOL     OW 7520   4.483   7.868  10.497 -0.4867 -0.7031  0.2510
66802SOL    HW1 7521   4.399   7.909  10.477 -0.0379  0.9880  1.6329
66802SOL    HW2 7522   4.476   7.842  10.589  1.7363  3.0086  1.6858
66803SOL     OW 7523   9.529   4.114  12.030  0.0645  0.1216 -0.5366
66803SOL    HW1 7524   9.515   4.204  12.060  0.2851  0.1561 -0.5393
66803SOL    HW2 7525   9.453   4.095  11.975 -1.2948 -0.5747  1.4863
66804SOL     OW 7526   5.196  12.673   5.598 -0.6885  0.2308 -0.4453
66804SOL    HW1 7527   5.194  12.651   5.505  1.0891  0.8702 -0.6798
66804SOL    HW2 7528   5.220  12.766   5.600  0.4687 -0.0615  0.6525
66805SOL     OW 7529   9.852   4.220   4.989 -0.5089  0.0154 -0.9010
66805SOL    HW1 7530   9.935   4.178   4.966 -0.8024 -0.6951 -0.6777
66805SOL    HW2 7531   9.788   4.179   4.932 -0.8517 -0.0539 -0.4658
66806SOL     OW 7532   1.597   8.745  12.508  0.0577 -0.0433  0.3967
66806SOL    HW1 7533   1.563   8.763  12.596 -0.5052  0.5066  0.0809
66806SOL    HW2 7534   1.557   8.813  12.453  0.2993 -0.4584 -0.3051
66807SOL     OW 7535   8.330   2.554  11.461  0.0594 -0.3740 -0.2773
66807SOL    HW1 7536   8.283   2.509  11.531 -0.8155 -0.2335 -0.7584
66807SOL    HW2 7537   8.319   2.647  11.481  0.0376 -0.3386 -0.4527
66808SOL     OW 7538   7.870   5.250  11.707  0.7781 -0.1022  0.9146
66808SOL    HW1 7539   7.928   5.188  11.751  2.0703  0.8915  0.6747
66808SOL    HW2 7540   7.825   5.197  11.640  2.4743 -0.6272  0.1472
66809SOL     OW 7541  11.549   6.375  12.357 -0.0235  0.0352  0.3694
66809SOL    HW1 7542  11.517   6.294  12.397 -0.6597  0.1126  0.0227
66809SOL    HW2 7543  11.633   6.352  12.319 -1.0062 -0.9487 -1.3298
66810SOL     OW 7544  12.589   1.140   9.832 -0.1032 -0.0104 -0.2703
66810SOL    HW1 7545  12.606   1.108   9.920 -3.2756 -0.1732  0.4043
66810SOL    HW2 7546  12.508   1.191   9.840  0.9453  2.2196 -2.6347
66811SOL     OW 7547   9.536   2.891   3.926  0.6291 -0.0977  0.0529
66811SOL    HW1 7548   9.512   2.855   3.841 -1.5434 -0.8772  0.9121
66811SOL    HW2 7549   9.537   2.986   3.913 -0.6909 -0.1515 -0.6315
66812SOL     OW 7550   1.775   3.755   1.160  0.8849 -0.2555  0.3204
66812SOL    HW1 7551   1.710   3.733   1.094  0.7757 -1.1246  0.7095
66812SOL    HW2 7552   1.789   3.849   1.149 -2.7221  0.7051  2.2043
66813SOL     OW 7553   5.442   3.433   7.886 -0.2009 -0.3150 -0.8503
66813SOL    HW1 7554   5.489   3.506   7.845 -0.6285  1.5858  1.7601
66813SOL    HW2 7555   5.501   3.402   7.955  0.0806 -2.7187 -2.0521
66814SOL     OW 7556   4.531   1.254   6.878 -0.6796 -0.5507  0.3625
66814SOL    HW1 7557   4.448   1.207   6.883 -1.8165  1.2259 -0.7666
66814SOL    HW2 7558   4.564   1.236   6.790 -0.0960 -0.8587  0.6392
66815SOL     OW 7559   6.869   6.154   9.056  0.1214 -0.1297 -0.2876
66815SOL    HW1 7560   6.801   6.123   9.115 -0.2968  1.1062 -0.1003
66815SOL    HW2 7561   6.950   6.116   9.090  0.0949  1.5542  1.8844
66816SOL     OW 7562  11.853   1.673   5.209 -0.2062 -0.1861 -0.0801
66816SOL    HW1 7563  11.911   1.637   5.142  0.6480  0.3300  0.3658
66816SOL    HW2 7564  11.832   1.598   5.265 -1.9107 -0.9038 -1.5675
66817SOL     OW 7565   6.240   0.847   5.201  0.2132  0.2353 -0.2023
66817SOL    HW1 7566   6.312   0.899   5.237  1.2412 -1.4499  0.2384
66817SOL    HW2 7567   6.225   0.778   5.265 -0.7415 -0.3655 -1.0434
66818SOL     OW 7568   0.003  11.992  11.540 -0.4250  0.4363  0.4147
66818SOL    HW1 7569  -0.005  11.973  11.446  0.7333  1.6285  0.0325
66818SOL    HW2 7570  -0.016  11.909  11.583 -1.6755  0.0285 -0.8367
66819SOL     OW 7571   1.239   3.772   5.104 -0.2806  0.9338  0.0148
66819SOL    HW1 7572   1.327   3.779   5.141 -0.1138  1.7735 -0.5033
66819SOL    HW2 7573   1.182   3.809   5.171 -0.2881  0.0660  0.4981
66820SOL     OW 7574   0.793   7.415  10.190 -0.5827  0.6734 -0.1647
66820SOL    HW1 7575   0.701   7.436  10.176 -0.2664  1.0142 -1.9097
66820SOL    HW2 7576   0.805   7.329  10.150 -0.1709  0.5665  0.1827
66821SOL     OW 7577   8.502  11.848   6.449 -0.1343 -0.2887  0.8765
66821SOL    HW1 7578   8.548  11.847   6.365  1.0359  1.2548  1.4361
66821SOL    HW2 7579   8.553  11.789   6.504  1.5114  1.6484  1.5863
66822SOL     OW 7580   2.674   4.778   8.256  0.4887 -0.3749  0.0169
66822SOL    HW1 7581   2.740   4.711   8.237  0.6689  0.0366 -0.8515
66822SOL    HW2 7582   2.725   4.857   8.273  0.2555 -0.3235  0.4805
66823SOL     OW 7583   8.842   2.945   9.561 -0.3346  0.6573 -0.2055
66823SOL    HW1 7584   8.835   2.937   9.466 -1.2017 -1.1006 -0.0388
66823SOL    HW2 7585   8.855   3.038   9.576  3.3651  0.6796 -2.2291
66824SOL     OW 7586   9.535   6.093   8.645  0.2673 -0.1471  0.3500
66824SOL    HW1 7587   9.601   6.081   8.576  0.8731  0.4264  0.8188
66824SOL    HW2 7588   9.476   6.160   8.610 -0.3116 -0.9260 -0.2279
66825SOL     OW 7589   7.955   5.887   2.450  0.2059 -0.0123  0.1251
66825SOL    HW1 7590   8.011   5.905   2.375 -1.3448  0.2722 -1.0204
66825SOL    HW2 7591   7.875   5.850   2.412 -0.9819  0.9870  1.5308
66826SOL     OW 7592  12.854   3.116   8.546  0.0939  0.2211 -0.2304
66826SOL    HW1 7593  12.869   3.116   8.452  1.5603  1.0465 -0.0327
66826SOL    HW2 7594  12.926   3.168   8.582  0.7182 -1.6885  1.5168
66827SOL     OW 7595   8.726  12.233   0.138 -0.0842  0.2346  0.4768
66827SOL    HW1 7596   8.784  12.172   0.093 -0.2661  0.2070  0.2763
66827SOL    HW2 7597   8.697  12.293   0.069 -0.7391 -0.0954  0.4532
66828SOL     OW 7598   8.894   9.255  10.361 -0.1016  0.2396 -0.0449
66828SOL    HW1 7599   8.943   9.174  10.355  1.5456  1.1923 -0.0573
66828SOL    HW2 7600   8.862   9.271  10.273  0.2601  0.0171 -0.2172
66829SOL     OW 7601   7.346   0.990  11.527  0.4549 -0.7025 -0.5963
66829SOL    HW1 7602   7.326   0.900  11.555 -1.2886  0.0507  0.7557
66829SOL    HW2 7603   7.266   1.020  11.484 -0.1341  1.1574  1.5897
66830SOL     OW 7604  12.149  12.231  11.572  0.2599 -0.8970  0.5723
66830SOL    HW1 7605  12.064  12.255  11.535 -0.5710  0.1594  2.9457
66830SOL    HW2 7606  12.213  12.264  11.509 -1.0431  0.2212 -0.2281
66831SOL     OW 7607   6.252   1.689   8.711 -0.4973 -0.2530  0.3775
66831SOL    HW1 7608   6.249   1.651   8.799  1.0928  0.3413  0.7244
66831SOL    HW2 7609   6.343   1.681   8.684 -0.8612  0.0257 -1.0314
66832SOL     OW 7610   0.910   1.540   4.497 -0.3304 -0.5520  0.4312
66832SOL    HW1 7611   0.885   1.627   4.529 -0.1625 -0.4339  0.2494
66832SOL    HW2 7612   0.966   1.505   4.566  0.1181 -0.2545  0.2270
66833SOL     OW 7613   9.354  10.453   4.734 -0.2187 -0.2700 -0.9503
66833SOL    HW1 7614   9.396  10.376   4.695  0.3930  0.0120 -0.8533
66833SOL    HW2 7615   9.363  10.440   4.828 -0.1478 -0.0901 -0.9339
66834SOL     OW 7616   2.562   6.045   5.534  0.0314 -0.2618  0.5507
66834SOL    HW1 7617   2.596   6.015   5.450  0.9022  1.4293  0.2541
66834SOL    HW2 7618   2.532   5.965   5.578  0.8935 -1.3462 -0.7608
66835SOL     OW 7619  11.828   0.458   5.118 -0.2088  0.1045 -0.2384
66835SOL    HW1 7620  11.775   0.477   5.195 -0.4284  2.6239 -0.9414
66835SOL    HW2 7621  11.795   0.516   5.050  2.9266  1.3160 -0.9312
66836SOL     OW 7622   2.660  12.741   6.255  0.2155 -0.3346 -0.3656
66836SOL    HW1 7623   2.592  12.776   6.198 -0.6694 -0.5982  0.5062
66836SOL    HW2 7624   2.627  12.656   6.283  0.5292 -0.1220  0.6912
66837SOL     OW 7625  12.485  12.281   1.886  0.1338 -0.3853 -0.1486
66837SOL    HW1 7626  12.575  12.277   1.918  0.2384  2.8917  0.3260
66837SOL    HW2 7627  12.432  12.296   1.964 -0.6079 -0.3655 -0.6461
66838SOL     OW 7628  12.831  10.018  11.495 -0.6170  0.1125 -0.1196
66838SOL    HW1 7629  12.742  10.043  11.518 -0.8207 -1.5349  1.0112
66838SOL    HW2 7630  12.824   9.930  11.459  0.4659  0.3024 -0.8752
66839SOL     OW 7631   6.195  12.724   8.685 -0.0343 -0.2946 -0.3472
66839SOL    HW1 7632   6.208  12.643   8.636 -1.2571 -0.6108 -0.1891
66839SOL    HW2 7633   6.121  12.767   8.642 -0.5971 -0.1743  0.6941
66840SOL     OW 7634   7.426  10.574   7.508  0.0076 -0.2337  0.4840
66840SOL    HW1 7635   7.342  10.560   7.464 -0.5019 -0.3822  1.4869
66840SOL    HW2 7636   7.414  10.653   7.560  0.2592 -0.6333  1.1671
66841SOL     OW 7637  11.350  10.265   6.037 -0.0257  0.6423 -0.2838
66841SOL    HW1 7638  11.384  10.236   6.121 -0.8205  0.9757  0.1617
66841SOL    HW2 7639  11.413  10.232   5.973  0.1033 -0.4078  0.3576
66842SOL     OW 7640   5.081  11.188   2.393 -0.3705 -0.3333  0.1714
66842SOL    HW1 7641   5.123  11.211   2.311  0.4447  0.1917  0.7146
66842SOL    HW2 7642   5.100  11.262   2.451  0.8818 -1.5870  1.4478
66843SOL     OW 7643   9.150   1.216   4.500 -0.1344  0.3906  0.1659
66843SOL    HW1 7644   9.107   1.283   4.446 -0.1062  1.0701  0.9785
66843SOL    HW2 7645   9.134   1.134   4.452  0.3191  1.0295 -1.1341
66844SOL     OW 7646   7.281   5.493  10.312  0.4167 -0.3078 -0.0589
66844SOL    HW1 7647   7.372   5.465  10.298  0.5228 -0.0873  0.1793
66844SOL    HW2 7648   7.257   5.537  10.230  1.1512  1.2917  0.5406
66845SOL     OW 7649   7.463   3.741   4.114  0.3853 -0.2876  0.2393
66845SOL    HW1 7650   7.465   3.774   4.204  0.0554 -0.1077  0.1859
66845SOL    HW2 7651   7.464   3.646   4.123 -0.1652 -0.2786  0.4555
66846SOL     OW 7652   8.308   1.700   1.010 -0.0041 -0.0024  0.1206
66846SOL    HW1 7653   8.249   1.692   0.935  2.3185 -0.0245 -1.8488
66846SOL    HW2 7654   8.262   1.658   1.082 -1.3567 -2.2574 -1.9219
66847SOL     OW 7655  10.036  11.689   1.666  0.0470 -0.2691 -0.0887
66847SOL    HW1 7656  10.123  11.669   1.701 -0.3597 -1.8571  0.1112
66847SOL    HW2 7657  10.021  11.781   1.687  0.7844 -0.5486  1.8474
66848SOL     OW 7658   5.234   9.507   7.508  0.1155 -0.1517  0.5448
66848SOL    HW1 7659   5.164   9.557   7.465 -0.1930  0.1854  1.4118
66848SOL    HW2 7660   5.305   9.506   7.444  0.1375  1.4203  0.4880
66849SOL     OW 7661  12.712   8.410   3.666  0.1935  0.1293 -0.2212
66849SOL    HW1 7662  12.745   8.495   3.697 -0.9363  0.6836 -0.4710
66849SOL    HW2 7663  12.623   8.429   3.635  0.6115 -0.7741 -2.0896
66850SOL     OW 7664   5.898   6.365  10.598 -0.1361  0.1424  0.0317
66850SOL    HW1 7665   5.987   6.349  10.566 -0.6499  1.8531 -2.5893
66850SOL    HW2 7666   5.844   6.299  10.555 -0.3667  0.2247  0.1912
66851SOL     OW 7667   7.320  11.907   2.932  0.0845 -0.0214  0.7468
66851SOL    HW1 7668   7.390  11.965   2.963  1.2759 -0.7340 -0.5239
66851SOL    HW2 7669   7.292  11.861   3.011  0.2140  1.1093  1.4879
66852SOL     OW 7670   0.034   3.365   0.662  0.5777  0.0100 -0.4723
66852SOL    HW1 7671   0.030   3.269   0.658 -1.4898  0.0549 -0.6827
66852SOL    HW2 7672  -0.057   3.392   0.674  0.8237  2.0255 -2.4390
66853SOL     OW 7673   5.234   7.289   4.380  0.1734  0.2317 -0.2253
66853SOL    HW1 7674   5.206   7.298   4.289 -0.7485 -0.8900 -0.0799
66853SOL    HW2 7675   5.256   7.196   4.389  0.2430  0.3258  0.6904
66854SOL     OW 7676   1.631   4.204   1.417  0.1644  0.0393  0.0529
66854SOL    HW1 7677   1.650   4.294   1.443  0.5484 -0.0335  0.0331
66854SOL    HW2 7678   1.717   4.167   1.396 -0.1285  0.1508 -1.4931
66855SOL     OW 7679   0.174   0.934   4.596 -0.4303 -0.4179 -0.3601
66855SOL    HW1 7680   0.165   0.878   4.672  0.5131 -1.8612 -1.2593
66855SOL    HW2 7681   0.264   0.967   4.599 -0.2812 -0.7408 -1.0047
66856SOL     OW 7682   3.596  12.682   6.996  0.4115  0.2051 -0.1733
66856SOL    HW1 7683   3.527  12.741   7.026  0.6254  0.3903 -0.0369
66856SOL    HW2 7684   3.677  12.729   7.014  0.5714  0.0239 -0.4046
66857SOL     OW 7685   8.741   1.056   3.120  0.1689  0.1167  0.0911
66857SOL    HW1 7686   8.749   1.064   3.215 -2.0419  0.2440  0.3324
66857SOL    HW2 7687   8.706   0.967   3.107 -1.0164  0.6475 -0.4552
66858SOL     OW 7688   4.185   7.208   9.473  0.0751 -0.3795  0.6541
66858SOL    HW1 7689   4.223   7.292   9.446  2.3329 -0.3869  3.3279
66858SOL    HW2 7690   4.234   7.143   9.424  0.9289 -0.2199  1.2610
66859SOL     OW 7691   9.304   6.906   1.968  0.0857  0.3171  0.1991
66859SOL    HW1 7692   9.239   6.869   2.028  1.1795  0.3901  1.4811
66859SOL    HW2 7693   9.346   6.976   2.018  0.2474  1.1416 -1.0683
66860SOL     OW 7694  10.189   9.976   1.260  0.1078  0.4218 -0.0521
66860SOL    HW1 7695  10.096   9.982   1.239  0.4467 -0.1530 -1.9536
66860SOL    HW2 7696  10.212   9.884   1.244  0.6483  0.1080  2.1781
66861SOL     OW 7697  10.491   8.444  11.551  0.2134  0.1904  0.1751
66861SOL    HW1 7698  10.422   8.467  11.488 -0.0673  1.5071  0.9178
66861SOL    HW2 7699  10.455   8.371  11.601 -0.4743  0.5855  0.2688
66862SOL     OW 7700  11.226   7.090   1.235 -0.3764 -0.1724 -0.0305
66862SOL    HW1 7701  11.297   7.150   1.210 -0.3519 -0.0242  0.3867
66862SOL    HW2 7702  11.210   7.037   1.157 -0.9303  0.9058 -0.6826
66863SOL     OW 7703   6.263   5.793   9.565  0.1645 -0.1426 -0.6663
66863SOL    HW1 7704   6.248   5.701   9.586  0.0057 -0.1334 -0.7328
66863SOL    HW2 7705   6.326   5.792   9.493  0.0872 -0.2042 -0.7343
66864SOL     OW 7706   9.691   8.192   1.003  0.1152 -0.1384 -0.1711
66864SOL    HW1 7707   9.642   8.257   1.053  1.8491  0.5751  0.6743
66864SOL    HW2 7708   9.623   8.136   0.964 -1.3370  0.2083  1.6911
66865SOL     OW 7709   7.832   7.083   7.847 -0.1134 -0.2410 -0.4393
66865SOL    HW1 7710   7.923   7.112   7.855  0.2806 -1.6814  0.6130
66865SOL    HW2 7711   7.786   7.125   7.920  0.0881 -0.8814  0.0610
66866SOL     OW 7712   6.364  11.737  11.751  0.0920 -0.3383 -0.2043
66866SOL    HW1 7713   6.338  11.668  11.690 -2.3284  1.4093 -1.3383
66866SOL    HW2 7714   6.368  11.816  11.696  2.1618  0.5608  1.1509
66867SOL     OW 7715   1.486   8.465  12.655  0.2555  0.0756  0.6997
66867SOL    HW1 7716   1.567   8.475  12.606 -0.0462 -2.2582 -0.4537
66867SOL    HW2 7717   1.511   8.472  12.747  1.5549  0.4672  0.3266
66868SOL     OW 7718   5.443   3.012   5.546 -0.5989 -0.5988  0.2425
66868SOL    HW1 7719   5.461   2.997   5.453 -3.3810 -0.3467 -0.4317
66868SOL    HW2 7720   5.396   2.934   5.574  0.1158 -0.6150  1.4214
66869SOL     OW 7721   8.215  11.577   9.905 -0.0378 -0.0467  0.5465
66869SOL    HW1 7722   8.254  11.665   9.904 -2.7135  1.2736  1.5939
66869SOL    HW2 7723   8.165  11.573   9.823 -0.2458 -0.4086  0.6912
66870SOL     OW 7724   6.730   5.216   0.834 -0.9302 -0.2739  0.2438
66870SOL    HW1 7725   6.781   5.293   0.858  0.6789 -0.7181 -1.4780
66870SOL    HW2 7726   6.641   5.236   0.863 -0.8079  2.7072 -1.0101
66871SOL     OW 7727   3.461   2.744   3.251 -0.6717  0.5963 -0.3765
66871SOL    HW1 7728   3.379   2.705   3.281 -0.0416 -1.3799 -1.0119
66871SOL    HW2 7729   3.436   2.802   3.179 -1.5719  0.5713 -0.0947
66872SOL     OW 7730   3.361   1.624   2.996  0.1095 -0.1033 -0.3416
66872SOL    HW1 7731   3.319   1.539   3.012  1.2951 -0.6460 -0.0136
66872SOL    HW2 7732   3.381   1.657   3.084 -0.3259  0.5241 -0.4686
66873SOL     OW 7733   5.658   3.547  10.419 -0.1430  0.7724  0.0319
66873SOL    HW1 7734   5.671   3.607  10.493 -2.9522  0.7905  0.6117
66873SOL    HW2 7735   5.563   3.544  10.406  0.0761 -1.4497 -1.7546
66874SOL     OW 7736   0.049  10.520  10.236 -0.2799 -0.1323 -0.1758
66874SOL    HW1 7737  -0.037  10.562  10.239  0.1087  0.6282  1.4470
66874SOL    HW2 7738   0.072  10.521  10.143 -2.4314 -1.2800 -0.7888
66875SOL     OW 7739   5.386   1.247   8.489 -0.3036  0.1983 -0.5286
66875SOL    HW1 7740   5.477   1.255   8.518 -0.0714 -0.7946 -0.9529
66875SOL    HW2 7741   5.367   1.331   8.446  0.1126  0.7531  0.3441
66876SOL     OW 7742   2.278  12.385   9.140  0.2687  0.1655  0.9855
66876SOL    HW1 7743   2.316  12.448   9.079  1.3544 -0.1971  1.2702
66876SOL    HW2 7744   2.226  12.438   9.200 -0.4606  0.5742  0.0373
66877SOL     OW 7745   1.567   8.550   5.877 -0.0023 -0.1499 -0.8613
66877SOL    HW1 7746   1.572   8.538   5.782  1.6691  0.4341 -0.8931
66877SOL    HW2 7747   1.482   8.591   5.892 -0.1466  0.0769 -2.1521
66878SOL     OW 7748   8.726   7.886  12.616  0.6432 -0.3187  0.3529
66878SOL    HW1 7749   8.782   7.889  12.539  1.1286 -2.4123  0.5529
66878SOL    HW2 7750   8.755   7.959  12.670 -1.2086  2.6306 -2.3255
66879SOL     OW 7751   9.710   2.399   9.928 -0.1560 -0.3180  0.3878
66879SOL    HW1 7752   9.652   2.350   9.869  3.2601  0.5433 -4.3177
66879SOL    HW2 7753   9.774   2.334   9.957 -1.5851 -0.6394  3.0846
66880SOL     OW 7754   1.042   6.699  10.900 -0.0741  0.2923  0.4135
66880SOL    HW1 7755   0.974   6.679  10.964  1.0506  0.0815  1.5784
66880SOL    HW2 7756   1.014   6.782  10.860 -1.7861 -0.5592 -0.2581
66881SOL     OW 7757  10.127   4.502  12.794  0.5144 -0.4306  0.1182
66881SOL    HW1 7758  10.147   4.453  12.874  0.7103  0.9715  0.9651
66881SOL    HW2 7759  10.209   4.503  12.744  0.6513 -0.5344  0.3397
66882SOL     OW 7760   3.439   0.941   3.454  0.7425 -0.0855 -0.5569
66882SOL    HW1 7761   3.355   0.984   3.464  1.0664  1.4271 -3.4006
66882SOL    HW2 7762   3.418   0.847   3.451 -0.3266 -0.0524  2.3582
66883SOL     OW 7763   7.361   1.884  12.836 -0.0833  0.7668  0.3345
66883SOL    HW1 7764   7.277   1.902  12.877 -0.3104  0.6263 -0.0700
66883SOL    HW2 7765   7.404   1.970  12.832 -0.4729  0.9500 -0.0463
66884SOL     OW 7766   0.427   2.200   5.620  0.0786 -0.3493  0.7363
66884SOL    HW1 7767   0.385   2.168   5.700 -0.2411  0.8169  1.0558
66884SOL    HW2 7768   0.513   2.230   5.649 -0.5589  1.4006  0.9537
66885SOL     OW 7769   8.769   9.013   9.190 -0.2005 -0.5113  0.6030
66885SOL    HW1 7770   8.704   8.943   9.183 -0.8811 -0.0234  1.7490
66885SOL    HW2 7771   8.825   9.002   9.113 -0.6158 -1.9768  0.4837
66886SOL     OW 7772  12.565   8.069   1.820  0.1899 -0.1862 -0.1088
66886SOL    HW1 7773  12.601   8.148   1.781  0.3219 -0.2411 -0.0989
66886SOL    HW2 7774  12.543   8.013   1.746 -0.5017  0.1195 -0.1381
66887SOL     OW 7775  10.650  11.066  10.057 -0.2743  0.3944  0.1595
66887SOL    HW1 7776  10.677  11.151  10.091  0.3661  0.9696 -1.7104
66887SOL    HW2 7777  10.683  11.003  10.121 -1.2853  1.5445  1.8987
66888SOL     OW 7778   7.450   7.753   9.853 -0.6864  0.4494  0.1608
66888SOL    HW1 7779   7.454   7.701   9.773 -2.0912  1.1051 -0.3624
66888SOL    HW2 7780   7.542   7.769   9.876 -0.2521 -1.0606 -0.4354
66889SOL     OW 7781  10.351   0.410   3.963  0.2022 -0.1028  0.4353
66889SOL    HW1 7782  10.267   0.433   4.003 -0.8957 -1.6215 -0.8302
66889SOL    HW2 7783  10.363   0.475   3.894 -0.1034 -0.0714  0.4098
66890SOL     OW 7784   5.262   6.974   9.793  0.0168  0.1006 -0.4500
66890SOL    HW1 7785   5.187   6.982   9.735 -0.1209  1.5220 -0.1301
66890SOL    HW2 7786   5.325   6.920   9.745 -1.0160 -0.7159 -0.9099
66891SOL     OW 7787   4.247   4.791   0.906  0.1614  0.1954  0.1095
66891SOL    HW1 7788   4.226   4.848   0.980 -3.7630 -2.5775  1.4688
66891SOL    HW2 7789   4.311   4.729   0.941  0.1671  0.3671  0.4040
66892SOL     OW 7790   3.864   6.627   8.279 -0.2642 -0.6268  0.1868
66892SOL    HW1 7791   3.882   6.684   8.204  0.3880 -0.7890  0.2158
66892SOL    HW2 7792   3.779   6.657   8.311  0.2053  0.5695  0.3980
66893SOL     OW 7793   7.014   6.096   9.314 -0.4438  0.1229  0.0525
66893SOL    HW1 7794   7.081   6.033   9.340  1.8945  2.0654 -0.7928
66893SOL    HW2 7795   6.983   6.134   9.396 -0.1046 -0.4424  0.4443
66894SOL     OW 7796   8.081  10.335   8.577 -0.1847  0.1489  0.2719
66894SOL    HW1 7797   8.167  10.295   8.592 -1.3817 -2.0996  1.8090
66894SOL    HW2 7798   8.091  10.425   8.607  1.7278  0.0838 -0.0165
66895SOL     OW 7799   8.665   7.186   6.173  0.2737 -0.6340 -0.0092
66895SOL    HW1 7800   8.609   7.240   6.117 -0.8166 -1.6290  0.0844
66895SOL    HW2 7801   8.749   7.184   6.127  0.0746  0.3835 -0.4593
66896SOL     OW 7802  12.493   0.118   3.304  0.4689 -0.1857 -0.4565
66896SOL    HW1 7803  12.430   0.095   3.373 -0.6524  1.1899 -0.9821
66896SOL    HW2 7804  12.497   0.039   3.249  1.7007 -1.4587  1.3515
66897SOL     OW 7805   9.550  10.111   0.157 -0.0876  0.2339 -0.2874
66897SOL    HW1 7806   9.534  10.124   0.064  0.7757 -0.5676 -0.5649
66897SOL    HW2 7807   9.609  10.035   0.161 -0.5301 -0.0672  0.9390
66898SOL     OW 7808   1.645   6.097   5.082  0.1780 -0.0421 -0.0179
66898SOL    HW1 7809   1.707   6.156   5.124  0.0380  0.7515 -0.8952
66898SOL    HW2 7810   1.694   6.058   5.009  0.3303 -1.1753  0.6632
66899SOL     OW 7811  12.775  10.969   6.240  0.1675  0.4218  0.2168
66899SOL    HW1 7812  12.797  11.061   6.224  1.6498 -0.1770 -1.4298
66899SOL    HW2 7813  12.731  10.941   6.161  0.1500 -0.4250  0.5192
66900SOL     OW 7814   1.334   1.599   7.142 -0.0051 -0.5475 -0.6572
66900SOL    HW1 7815   1.265   1.609   7.208  0.5547  0.1589 -0.1589
66900SOL    HW2 7816   1.287   1.597   7.059 -0.5646  1.3425 -0.4421
66901SOL     OW 7817  11.934   4.433  10.218 -0.2015  0.5058 -0.2851
66901SOL    HW1 7818  11.841   4.437  10.196 -0.1487 -0.5950 -0.7604
66901SOL    HW2 7819  11.937   4.445  10.313 -0.9672 -0.9996 -0.0488
66902SOL     OW 7820  10.635   9.355   6.021  0.1580 -0.1322  0.5008
66902SOL    HW1 7821  10.552   9.376   6.065 -0.0995  0.1288 -0.0943
66902SOL    HW2 7822  10.656   9.266   6.051  1.6825  1.1269  3.7336
66903SOL     OW 7823   0.905   0.485   6.026 -0.4232  0.1105  0.6463
66903SOL    HW1 7824   0.996   0.465   6.003 -0.4784  1.1907 -0.5841
66903SOL    HW2 7825   0.888   0.571   5.988 -1.9294 -0.0129  0.9636
66904SOL     OW 7826   4.863   2.802   3.052  0.5725  0.3914  0.0122
66904SOL    HW1 7827   4.874   2.744   3.128 -0.2416 -0.2648 -0.3540
66904SOL    HW2 7828   4.838   2.743   2.981  0.3861  1.1208 -0.5386
66905SOL     OW 7829  12.273   7.434   4.115  0.0663  0.3505 -0.4540
66905SOL    HW1 7830  12.231   7.514   4.084 -0.6006  0.5967  0.9947
66905SOL    HW2 7831  12.202   7.380   4.148  0.4900 -0.9363 -1.5418
66906SOL     OW 7832   5.535   2.777   3.928  0.1084 -0.5231 -0.1905
66906SOL    HW1 7833   5.622   2.743   3.948 -0.4771 -0.7306  2.2654
66906SOL    HW2 7834   5.551   2.867   3.899  1.0479  0.4137  2.8689
66907SOL     OW 7835   9.435   7.026   4.699  0.7087  0.0804 -0.0795
66907SOL    HW1 7836   9.472   7.095   4.644  0.3792  1.6026  1.5260
66907SOL    HW2 7837   9.342   7.024   4.675  0.8484 -0.2812 -0.5994
66908SOL     OW 7838  10.153   8.810   4.521 -0.1158 -0.0818 -0.3016
66908SOL    HW1 7839  10.236   8.775   4.489  0.0253 -2.1511  1.9739
66908SOL    HW2 7840  10.154   8.790   4.615 -1.0812  4.2409  0.8109
66909SOL     OW 7841  11.729  11.433  12.754 -0.2006  0.0934 -0.6505
66909SOL    HW1 7842  11.663  11.364  12.761  1.1057 -1.1770 -0.5339
66909SOL    HW2 7843  11.807  11.397  12.796  0.3992  1.8113 -0.1943
66910SOL     OW 7844   1.531  12.224  10.645  0.1291  0.1379 -0.3151
66910SOL    HW1 7845   1.454  12.275  10.669 -0.2472 -1.1702  1.3916
66910SOL    HW2 7846   1.497  12.137  10.623  0.7512  0.5280 -3.2408
66911SOL     OW 7847   5.051   1.280   6.575  0.0371  0.5342 -0.3157
66911SOL    HW1 7848   4.971   1.332   6.581 -1.3134 -1.4718  0.0197
66911SOL    HW2 7849   5.082   1.274   6.666 -1.0890 -1.0597  0.0090
66912SOL     OW 7850   9.826   8.341   0.804  0.0653  0.4326 -0.1069
66912SOL    HW1 7851   9.851   8.290   0.727  0.0581  0.4534 -0.1230
66912SOL    HW2 7852   9.803   8.275   0.870 -2.3391  0.3785 -0.9047
66913SOL     OW 7853  12.276   5.839   5.599 -0.0454  0.2958 -0.2249
66913SOL    HW1 7854  12.205   5.846   5.663 -2.3481 -2.1139 -2.2468
66913SOL    HW2 7855  12.341   5.783   5.641 -0.8026  0.0034  0.5998
66914SOL     OW 7856   3.069   7.294   9.226 -0.0430 -0.6101 -0.3852
66914SOL    HW1 7857   3.086   7.242   9.147 -3.5132  0.2671 -1.8756
66914SOL    HW2 7858   3.088   7.384   9.200 -0.0558 -0.4432  0.1764
66915SOL     OW 7859   0.521   4.103   3.559 -0.1825 -0.1145 -0.1894
66915SOL    HW1 7860   0.540   4.056   3.477  1.2493  0.8827 -0.4713
66915SOL    HW2 7861   0.583   4.067   3.622 -1.7546 -1.3817  0.6953
66916SOL     OW 7862   6.007   4.215   4.119 -0.0603  0.6502  0.4131
66916SOL    HW1 7863   6.019   4.303   4.156 -0.1943  1.3934 -1.2317
66916SOL    HW2 7864   5.928   4.182   4.162 -1.0694  2.0819 -0.2608
66917SOL     OW 7865   1.244  10.992   6.120 -0.2834  0.0260  0.0589
66917SOL    HW1 7866   1.162  11.016   6.078  0.1124  0.3074 -0.5810
66917SOL    HW2 7867   1.312  11.022   6.059  0.3593  1.7300  1.5183
66918SOL     OW 7868   1.529  10.057   6.760  0.7761  0.6939 -0.0343
66918SOL    HW1 7869   1.481  10.060   6.677  1.9875  1.4842 -0.7524
66918SOL    HW2 7870   1.612  10.014   6.738  0.8501  0.3245  0.9191
66919SOL     OW 7871   8.474   0.604  12.292 -0.4475  0.2085  0.4659
66919SOL    HW1 7872   8.396   0.565  12.254 -0.4469  0.3718  0.2928
66919SOL    HW2 7873   8.546   0.574  12.237 -0.7090  2.4177 -1.2111
66920SOL     OW 7874   6.449  11.198  11.991 -0.3248  0.0710 -0.3065
66920SOL    HW1 7875   6.542  11.190  12.014 -0.2732  0.7291 -0.2824
66920SOL    HW2 7876   6.439  11.142  11.914  0.5747  1.6951 -1.6495
66921SOL     OW 7877   2.210   3.747  10.124 -0.1465  0.0639  0.2392
66921SOL    HW1 7878   2.218   3.811  10.194  1.2053 -0.3853  0.5393
66921SOL    HW2 7879   2.239   3.664  10.163  0.0854 -0.3053 -0.6809
66922SOL     OW 7880   6.634   4.032   1.110  0.5317  0.7423 -0.1331
66922SOL    HW1 7881   6.684   4.103   1.070 -0.2122  1.4226  0.1275
66922SOL    HW2 7882   6.543   4.060   1.105  0.3538  0.5736  1.4399
66923SOL     OW 7883  10.138   8.604  11.886 -0.4317  0.3502 -1.2646
66923SOL    HW1 7884  10.182   8.519  11.879 -0.7442  0.0904 -0.3302
66923SOL    HW2 7885  10.206   8.665  11.914 -0.3298  0.2850 -1.3696
66924SOL     OW 7886   2.409  12.452   9.676  0.6895  0.2734 -0.3766
66924SOL    HW1 7887   2.353  12.521   9.641  0.6049  0.5899  0.3607
66924SOL    HW2 7888   2.403  12.381   9.612  0.1017  0.6228 -0.7147
66925SOL     OW 7889   9.727  12.877   9.831  0.4115  0.2825 -0.4856
66925SOL    HW1 7890   9.665  12.866   9.760  0.8560 -0.4550 -0.7641
66925SOL    HW2 7891   9.780  12.953   9.805  0.6432 -0.0510 -0.9949
66926SOL     OW 7892   1.867   1.939   5.245  0.1241 -0.1349 -0.0530
66926SOL    HW1 7893   1.826   2.021   5.272  0.2752  0.0801 -0.4678
66926SOL    HW2 7894   1.823   1.917   5.163  0.4277 -0.2108 -0.1933
66927SOL     OW 7895  12.564   4.162   3.718 -0.0885  0.0885 -0.4819
66927SOL    HW1 7896  12.607   4.111   3.650  1.3809  1.6719 -0.8231
66927SOL    HW2 7897  12.626   4.161   3.792 -0.1825  1.0485 -0.3717
66928SOL     OW 7898   6.769   1.187   3.020  0.3974  0.0652 -0.1898
66928SOL    HW1 7899   6.766   1.280   3.000 -0.1317  0.4788  1.5943
66928SOL    HW2 7900   6.862   1.164   3.018  0.5907  0.8136  0.0482
66929SOL     OW 7901   9.645   1.756   0.891 -0.5525 -0.0350  0.1354
66929SOL    HW1 7902   9.694   1.736   0.812 -0.4065  0.7670  0.0103
66929SOL    HW2 7903   9.656   1.851   0.903  0.6294 -0.3429  1.9066
66930SOL     OW 7904  10.037   2.407   1.126  0.9498  0.4694  0.2229
66930SOL    HW1 7905   9.985   2.430   1.049  2.0860  1.5256 -0.2415
66930SOL    HW2 7906  10.036   2.311   1.127  0.3698  0.4530 -0.7184
66931SOL     OW 7907   4.222   3.229   8.139 -0.4961 -0.0153  0.2951
66931SOL    HW1 7908   4.208   3.141   8.105 -0.8688  0.3308 -0.4786
66931SOL    HW2 7909   4.188   3.226   8.228  0.9265 -1.0676  0.8311
66932SOL     OW 7910  11.614   9.636   3.893 -0.3719  0.1567 -0.2274
66932SOL    HW1 7911  11.608   9.576   3.819 -0.8374 -0.9229  0.6564
66932SOL    HW2 7912  11.549   9.704   3.874  0.7567  0.8688 -1.6447
66933SOL     OW 7913   9.207   4.972   0.256  0.4484  0.1936 -0.1201
66933SOL    HW1 7914   9.302   4.971   0.267  0.4191 -1.0315  0.2680
66933SOL    HW2 7915   9.190   5.041   0.193  1.6010  0.3950 -0.2286
66934SOL     OW 7916   4.219   5.472   2.217 -0.0362 -0.3720  0.6307
66934SOL    HW1 7917   4.253   5.383   2.224  1.3555  0.1705  1.1280
66934SOL    HW2 7918   4.181   5.476   2.129  0.3359 -1.3021  0.4097
66935SOL     OW 7919   6.699   6.256   4.864  0.4322  0.2719  0.3862
66935SOL    HW1 7920   6.636   6.186   4.847  0.3763  0.7168 -1.3404
66935SOL    HW2 7921   6.766   6.214   4.918  0.1716 -0.9874 -0.2340
66936SOL     OW 7922   2.376   4.008  11.265  0.1304 -0.2277  0.3768
66936SOL    HW1 7923   2.286   4.031  11.242 -0.4036 -0.9602  1.5650
66936SOL    HW2 7924   2.407   4.082  11.318  0.4531  0.2986 -0.5338
66937SOL     OW 7925   8.090   9.007   8.920 -0.4554  0.4397 -0.2934
66937SOL    HW1 7926   8.106   8.913   8.915 -1.2963  0.2272  0.5673
66937SOL    HW2 7927   8.170   9.047   8.887  0.6702 -0.5706  1.0698
66938SOL     OW 7928   5.642   4.405   5.484 -1.1420 -0.3294  0.6672
66938SOL    HW1 7929   5.662   4.451   5.565 -0.6043  0.3962  0.1396
66938SOL    HW2 7930   5.554   4.436   5.460 -0.0802  1.8973 -0.6347
66939SOL     OW 7931  11.433   5.321   4.487  0.0934 -0.5418 -0.3400
66939SOL    HW1 7932  11.340   5.316   4.463  0.7769  0.4229 -3.6965
66939SOL    HW2 7933  11.463   5.231   4.484 -0.9055 -1.0310  1.9977
66940SOL     OW 7934   4.040   6.511   6.778  0.2002  0.4634  0.0794
66940SOL    HW1 7935   4.107   6.468   6.726 -0.6059  0.2346 -0.7900
66940SOL    HW2 7936   4.083   6.529   6.862  1.6386  1.1973 -0.7746
66941SOL     OW 7937   1.445   6.885   1.719  0.2287  0.1665 -0.2893
66941SOL    HW1 7938   1.423   6.901   1.811  0.4481  1.1038 -0.3995
66941SOL    HW2 7939   1.497   6.960   1.693 -0.1216  0.0750 -1.2856
66942SOL     OW 7940   8.581   2.139  12.375  0.1080  0.1819  0.3028
66942SOL    HW1 7941   8.554   2.075  12.440  0.0126 -0.3332 -0.2336
66942SOL    HW2 7942   8.541   2.109  12.293  1.4138  0.0011 -0.2993
66943SOL     OW 7943   8.616  10.416  10.324 -0.3123 -0.1179  0.3282
66943SOL    HW1 7944   8.658  10.379  10.402  0.5052 -1.6034 -0.7599
66943SOL    HW2 7945   8.675  10.486  10.296  1.7761 -2.3497 -1.3390
66944SOL     OW 7946   7.647  11.634   5.953 -0.0591 -0.2291 -0.0323
66944SOL    HW1 7947   7.599  11.703   6.000 -1.9055 -1.0593 -0.5947
66944SOL    HW2 7948   7.595  11.555   5.969 -0.3475 -0.6888 -2.8255
66945SOL     OW 7949   3.089   0.690   6.832 -0.1386 -0.1607 -0.0678
66945SOL    HW1 7950   3.087   0.620   6.897 -1.9946  0.8055  0.9860
66945SOL    HW2 7951   3.001   0.688   6.793  0.2788  0.6223 -1.0848
66946SOL     OW 7952  11.116   8.545   5.980  0.5460 -0.2870  0.7621
66946SOL    HW1 7953  11.084   8.595   6.055  1.5400  0.5611  0.6378
66946SOL    HW2 7954  11.189   8.495   6.015  2.1897  1.4814 -0.0008
66947SOL     OW 7955   7.072  10.229  12.737 -0.2414 -0.7642  0.0662
66947SOL    HW1 7956   7.159  10.200  12.709  0.4020  1.1386 -0.0113
66947SOL    HW2 7957   7.065  10.319  12.706 -1.9546 -0.6311  0.7281
66948SOL     OW 7958   4.694   0.012   3.510 -0.2233 -0.1061  0.2131
66948SOL    HW1 7959   4.622   0.070   3.483 -0.1557 -0.6354 -1.1456
66948SOL    HW2 7960   4.654  -0.046   3.575 -0.3280  1.3250  1.4981
66949SOL     OW 7961   8.227   3.290   0.820 -0.3727  0.2533  0.1314
66949SOL    HW1 7962   8.237   3.247   0.735 -1.0202  1.7058 -0.7154
66949SOL    HW2 7963   8.315   3.324   0.839 -0.1778 -0.2468  0.1418
66950SOL     OW 7964   2.100   5.161  10.424  0.1246 -0.5713 -0.2378
66950SOL    HW1 7965   2.177   5.110  10.396  2.2353  2.9845 -1.5028
66950SOL    HW2 7966   2.095   5.147  10.518  2.3250 -0.9766 -0.1335
66951SOL     OW 7967   1.550   1.760   3.934  0.0933 -0.3600  0.0166
66951SOL    HW1 7968   1.645   1.769   3.931  0.0885 -0.3559 -0.1092
66951SOL    HW2 7969   1.532   1.676   3.892 -0.1383  0.7933 -2.3603
66952SOL     OW 7970   0.122   3.975  11.840  0.4179  0.3579  0.4056
66952SOL    HW1 7971   0.185   3.963  11.911  0.4556  1.2798  0.5326
66952SOL    HW2 7972   0.175   3.976  11.760  0.5493  0.9730  0.4997
66953SOL     OW 7973   1.419   2.722   1.897  0.0043  0.3820 -0.2098
66953SOL    HW1 7974   1.418   2.640   1.849 -2.0411  0.7401 -0.8685
66953SOL    HW2 7975   1.503   2.763   1.873  0.0607 -0.5051 -1.6198
66954SOL     OW 7976   9.433  10.454   3.139 -0.2972  0.0996  0.0883
66954SOL    HW1 7977   9.357  10.504   3.168 -0.3799 -0.4780  0.9097
66954SOL    HW2 7978   9.508  10.501   3.177 -0.1305  1.2211 -1.5017
66955SOL     OW 7979   9.584  12.131   5.147  0.7758 -0.5253  0.0761
66955SOL    HW1 7980   9.540  12.153   5.229  1.2073  0.8241 -0.0254
66955SOL    HW2 7981   9.567  12.038   5.134  0.4264 -0.6773  1.5246
66956SOL     OW 7982   3.977   3.652   7.409 -0.0632  0.4548  0.1643
66956SOL    HW1 7983   3.962   3.559   7.393  1.4510 -0.2519  2.3684
66956SOL    HW2 7984   3.905   3.679   7.466  0.0194  0.3842  0.3019
66957SOL     OW 7985   0.544   5.190   6.285 -0.0307 -0.3462 -0.0021
66957SOL    HW1 7986   0.507   5.103   6.300 -0.0149 -0.4162 -0.3464
66957SOL    HW2 7987   0.623   5.193   6.339 -0.0367 -0.5457  0.0180
66958SOL     OW 7988   2.902  12.690   5.915  0.2728 -0.0182 -0.6489
66958SOL    HW1 7989   2.982  12.644   5.942 -0.2755 -0.9496 -0.5543
66958SOL    HW2 7990   2.856  12.708   5.997  1.4716  2.6718 -0.4708
66959SOL     OW 7991  11.119  11.100   8.517  0.0204 -0.3534  0.3185
66959SOL    HW1 7992  11.067  11.176   8.546 -1.7221 -1.2417 -0.2949
66959SOL    HW2 7993  11.164  11.130   8.438 -0.5250  0.1028  0.1709
66960SOL     OW 7994   5.549  12.044  11.054 -0.4585 -0.0808  0.4293
66960SOL    HW1 7995   5.615  12.026  10.987 -0.6875 -0.1100  0.2091
66960SOL    HW2 7996   5.520  12.134  11.035 -0.8722 -0.2633  0.1890
66961SOL     OW 7997   1.375   6.073   1.122 -0.7016 -0.7631  0.4190
66961SOL    HW1 7998   1.420   6.105   1.200  0.0109 -0.7136  0.0018
66961SOL    HW2 7999   1.327   6.148   1.089  0.3005 -0.3171 -0.0892
66962SOL     OW 8000   1.359   2.276   3.983  0.4599  0.0136  0.9658
66962SOL    HW1 8001   1.378   2.183   3.982 -0.7743 -0.2563 -0.7226
66962SOL    HW2 8002   1.432   2.315   3.934  1.4678  0.0843  2.4580
66963SOL     OW 8003   8.935  10.702  11.130 -0.2018  0.4358 -0.4999
66963SOL    HW1 8004   8.921  10.796  11.140 -0.1069  0.4197 -0.2286
66963SOL    HW2 8005   9.023  10.695  11.093 -0.4773  0.4839 -1.1789
66964SOL     OW 8006   5.074  11.464   7.026  0.4409 -0.1475 -0.4626
66964SOL    HW1 8007   5.112  11.413   6.954  0.3601 -1.2302  0.2392
66964SOL    HW2 8008   4.986  11.488   6.995  1.0215  0.8856 -1.3969
66965SOL     OW 8009  12.165  12.474   5.609 -0.0119 -0.1173 -0.3231
66965SOL    HW1 8010  12.120  12.479   5.525 -1.1692  1.4609  0.3374
66965SOL    HW2 8011  12.099  12.499   5.674  1.0493 -0.5619  0.9900
66966SOL     OW 8012   4.585   3.987   2.561 -0.8186  0.8575  0.4610
66966SOL    HW1 8013   4.533   3.917   2.523  2.4645 -1.3890 -0.3641
66966SOL    HW2 8014   4.614   4.039   2.486 -0.5960  1.1005  0.7138
66967SOL     OW 8015   6.125   5.313   4.867  0.0196  0.0024 -0.2066
66967SOL    HW1 8016   6.070   5.272   4.934  0.1185 -0.8220 -0.6150
66967SOL    HW2 8017   6.214   5.307   4.901 -0.1075  1.1962  0.3835
66968SOL     OW 8018   8.621   7.734   7.020 -0.5616  0.0663  0.4207
66968SOL    HW1 8019   8.618   7.780   6.935 -0.0095 -0.7355 -0.0467
66968SOL    HW2 8020   8.532   7.703   7.034 -1.0547  1.6383  0.9594
66969SOL     OW 8021   8.537  11.503   6.544  0.3554 -1.0722 -0.0103
66969SOL    HW1 8022   8.623  11.465   6.566  0.4928 -0.2991  0.8723
66969SOL    HW2 8023   8.537  11.510   6.449  1.0212 -1.6635 -0.0606
66970SOL     OW 8024   0.912   9.691   3.588  0.0730 -0.2003 -0.1098
66970SOL    HW1 8025   0.830   9.664   3.547 -0.4761 -0.9551  1.4006
66970SOL    HW2 8026   0.893   9.777   3.626  0.3031  0.0884 -0.6431
66971SOL     OW 8027   6.171  11.471   9.460 -0.2136  0.4176 -0.4861
66971SOL    HW1 8028   6.228  11.440   9.530  1.3584  0.7206 -1.5831
66971SOL    HW2 8029   6.174  11.403   9.394 -1.3090  0.3471 -0.4804
66972SOL     OW 8030   5.388   9.922   3.005  0.0358 -0.0242  0.2479
66972SOL    HW1 8031   5.476   9.895   3.034 -0.7077  0.3604  3.1729
66972SOL    HW2 8032   5.337   9.841   3.007  0.2759 -0.2490 -1.4608
66973SOL     OW 8033  11.606   6.476   1.660 -0.1175  0.2719 -1.6244
66973SOL    HW1 8034  11.697   6.455   1.680 -0.4710 -2.5744 -2.6706
66973SOL    HW2 8035  11.570   6.507   1.743  0.9071 -2.0205 -0.2303
66974SOL     OW 8036   8.471   9.348   2.134  0.4661 -0.2221  0.1667
66974SOL    HW1 8037   8.420   9.368   2.212 -0.7065  0.6103 -0.7673
66974SOL    HW2 8038   8.438   9.263   2.105 -2.0450  1.2212 -1.6137
66975SOL     OW 8039   9.616   4.577   6.351 -0.4292  0.4273 -0.0023
66975SOL    HW1 8040   9.665   4.498   6.375  0.4065  0.6383 -0.9196
66975SOL    HW2 8041   9.682   4.635   6.311 -1.3035  0.9854 -0.6932
66976SOL     OW 8042   6.998   8.187   3.692  0.1941 -0.6036 -0.4498
66976SOL    HW1 8043   6.944   8.252   3.736  2.2606  0.3874  0.7962
66976SOL    HW2 8044   6.946   8.159   3.617 -1.6658  0.8653  0.2197
66977SOL     OW 8045  11.028   1.990   7.968  0.5168 -0.0257  0.0637
66977SOL    HW1 8046  11.059   1.941   7.891  0.0470 -0.3628  0.0883
66977SOL    HW2 8047  11.072   1.949   8.042 -1.1557 -1.5220  0.2654
66978SOL     OW 8048   6.455   0.332  12.842 -0.2274 -0.2188  0.4483
66978SOL    HW1 8049   6.517   0.364  12.908  1.5682  0.0280 -1.2587
66978SOL    HW2 8050   6.493   0.249  12.813  0.1366  0.6322 -1.6671
66979SOL     OW 8051   6.629   1.206   9.432  0.2191 -0.3373  0.0072
66979SOL    HW1 8052   6.706   1.159   9.465 -0.7195 -1.0413  1.2374
66979SOL    HW2 8053   6.622   1.283   9.489 -0.4672 -0.7158  0.4448
66980SOL     OW 8054   7.339  11.233   1.069  0.1327  0.2633 -0.7298
66980SOL    HW1 8055   7.255  11.189   1.057  1.2512 -1.8769 -1.1800
66980SOL    HW2 8056   7.375  11.195   1.149  0.4409  1.6312 -0.1821
66981SOL     OW 8057   6.900   4.053   1.794  0.1888  0.8324  0.2974
66981SOL    HW1 8058   6.900   3.971   1.844  0.4274 -0.0480 -1.0698
66981SOL    HW2 8059   6.941   4.030   1.711 -0.3540  2.1917 -0.3827
66982SOL     OW 8060   6.582   9.488   4.501 -0.2617  0.1727  0.1567
66982SOL    HW1 8061   6.672   9.496   4.532  0.2079  0.2089 -1.1684
66982SOL    HW2 8062   6.589   9.438   4.419 -1.2179  1.8029 -0.9716
66983SOL     OW 8063   7.566   2.745   9.514  0.6233  0.5558  0.1933
66983SOL    HW1 8064   7.477   2.744   9.479  0.4113  1.9629  0.6273
66983SOL    HW2 8065   7.611   2.813   9.463  1.8503 -0.9778 -0.8885
66984SOL     OW 8066   5.325   0.553  10.837 -0.2011 -0.1650  0.2778
66984SOL    HW1 8067   5.312   0.459  10.840  0.1807 -0.3808 -2.6169
66984SOL    HW2 8068   5.311   0.577  10.746  1.0424  2.3868  0.6698
66985SOL     OW 8069   6.086   4.851   1.011  0.5272 -0.3472  0.0026
66985SOL    HW1 8070   6.077   4.942   1.040  0.8931 -0.0115 -0.8815
66985SOL    HW2 8071   6.041   4.850   0.926 -1.8875 -1.6546  1.1834
66986SOL     OW 8072   8.605  12.375  10.920 -0.0200  0.0194 -0.5372
66986SOL    HW1 8073   8.654  12.317  10.978  0.3520 -0.6846 -1.5243
66986SOL    HW2 8074   8.663  12.450  10.906  0.5478 -0.5326 -1.2211
66987SOL     OW 8075   3.570   7.284   7.434  0.0802 -0.2165  0.7570
66987SOL    HW1 8076   3.556   7.373   7.466 -0.2266  0.1011 -0.2309
66987SOL    HW2 8077   3.660   7.263   7.460  0.1179  0.3375  1.0930
66988SOL     OW 8078   0.142   1.600   0.702  0.0424 -0.6984  0.2003
66988SOL    HW1 8079   0.236   1.602   0.719 -0.1872  0.0015  1.5948
66988SOL    HW2 8080   0.123   1.508   0.682  0.9380 -0.9576  0.4868
66989SOL     OW 8081   1.147   3.297   4.509 -0.4717  0.7673 -0.0777
66989SOL    HW1 8082   1.124   3.222   4.454  0.2821 -0.8634  1.7087
66989SOL    HW2 8083   1.130   3.266   4.599  3.7929  1.1438  1.0591
66990SOL     OW 8084   1.928   3.191   9.752  0.1873  0.7258  0.6715
66990SOL    HW1 8085   1.857   3.194   9.816  0.4134  0.1639  0.9611
66990SOL    HW2 8086   1.905   3.256   9.686 -0.3057  0.9496  1.0637
66991SOL     OW 8087   6.064   9.625  10.665  0.2960  0.4764  0.0734
66991SOL    HW1 8088   6.032   9.708  10.701  1.4579  1.8304 -1.8342
66991SOL    HW2 8089   5.985   9.578  10.640 -0.3956  0.8089  1.5311
66992SOL     OW 8090   0.906  10.399   8.239  0.7721 -0.2813 -0.2737
66992SOL    HW1 8091   0.911  10.315   8.194 -1.4183 -0.2059 -0.7855
66992SOL    HW2 8092   0.953  10.460   8.182  2.6609 -1.1458  0.2604
66993SOL     OW 8093   2.201   0.937   8.430 -0.4105  0.1715 -0.0005
66993SOL    HW1 8094   2.209   1.032   8.433 -1.4762  0.2434  1.3581
66993SOL    HW2 8095   2.113   0.919   8.464 -0.4496 -1.2751 -0.7832
66994SOL     OW 8096  12.267   5.179   3.137 -0.1440  0.2689  0.0701
66994SOL    HW1 8097  12.290   5.164   3.046 -0.1050  0.0490  0.1172
66994SOL    HW2 8098  12.335   5.238   3.169  0.6575 -0.7877  0.3511
66995SOL     OW 8099   9.099   9.668   4.754  0.1861  0.2949  0.6313
66995SOL    HW1 8100   9.172   9.729   4.765  2.2302 -1.9338  0.1643
66995SOL    HW2 8101   9.095   9.622   4.838 -0.3566  0.0459  0.4674
66996SOL     OW 8102  11.056   5.899   7.241  0.3714  0.0582  0.0918
66996SOL    HW1 8103  11.120   5.966   7.216  1.4343 -0.2289  1.8561
66996SOL    HW2 8104  10.978   5.921   7.190  0.7335  2.5390  0.4407
66997SOL     OW 8105   8.582   9.825   5.429  0.3564 -0.3975 -0.0162
66997SOL    HW1 8106   8.657   9.791   5.478  0.1420 -1.6952 -0.5559
66997SOL    HW2 8107   8.617   9.848   5.343  0.8521  2.4163  0.8476
66998SOL     OW 8108   5.483   7.228  10.622 -0.4273  0.3040  0.7839
66998SOL    HW1 8109   5.392   7.204  10.605 -0.3641  1.2407 -1.2185
66998SOL    HW2 8110   5.488   7.321  10.601  1.0908  0.1580  0.3282
66999SOL     OW 8111   5.964   0.379   2.623 -0.1467 -0.2629 -0.1040
66999SOL    HW1 8112   5.986   0.418   2.707 -0.7262 -1.3828  0.6030
66999SOL    HW2 8113   5.925   0.450   2.572 -2.6603 -0.2299  1.6980
67000SOL     OW 8114   0.249   5.433   3.991 -0.5612  0.2903 -0.0363
67000SOL    HW1 8115   0.334   5.461   3.957 -1.6637  2.1966 -1.4149
67000SOL    HW2 8116   0.250   5.461   4.083  1.0672 -1.6689  0.6104
67001SOL     OW 8117   4.194   9.525   9.405 -0.3220  0.3906  0.3193
67001SOL    HW1 8118   4.160   9.614   9.415  0.9323  0.9875 -0.4012
67001SOL    HW2 8119   4.229   9.503   9.491  1.8841  1.7369 -0.1611
67002SOL     OW 8120   1.133   9.810   0.187 -0.2266 -0.0071 -0.0816
67002SOL    HW1 8121   1.117   9.718   0.208 -1.0734  0.6699  2.5030
67002SOL    HW2 8122   1.046   9.849   0.181  0.1326  1.2263  1.9544
67003SOL     OW 8123   0.352   5.189   3.396 -0.0808  0.0549  0.0066
67003SOL    HW1 8124   0.368   5.245   3.472  0.7452  0.1449 -0.2165
67003SOL    HW2 8125   0.261   5.207   3.371 -0.4873 -0.2659  1.1980
67004SOL     OW 8126   7.389   3.016   9.634 -0.3457 -0.4158  0.1230
67004SOL    HW1 8127   7.298   3.042   9.648 -0.6185 -1.2709  0.0067
67004SOL    HW2 8128   7.426   3.010   9.722 -1.1178 -2.5102  0.3572
67005SOL     OW 8129   0.930   2.152   2.897  0.7634  0.9266 -0.3849
67005SOL    HW1 8130   0.905   2.064   2.928  0.9974  0.7920 -0.5759
67005SOL    HW2 8131   0.973   2.192   2.973 -0.4007  1.3149  0.0773
67006SOL     OW 8132   4.431   6.722  12.970 -0.7796 -0.0295  0.5240
67006SOL    HW1 8133   4.480   6.715  13.052 -0.0208 -1.2158  0.0110
67006SOL    HW2 8134   4.490   6.769  12.911 -0.7924 -0.3009  0.2920
67007SOL     OW 8135   1.519   6.646   7.433 -0.4587 -0.0211  0.1525
67007SOL    HW1 8136   1.595   6.658   7.491 -1.0737 -0.4417  1.0768
67007SOL    HW2 8137   1.509   6.551   7.428  0.0639 -0.0208 -1.3106
67008SOL     OW 8138   2.985  11.712   8.874 -0.3335 -0.1083 -0.1850
67008SOL    HW1 8139   3.023  11.667   8.949  1.2751 -1.5140 -1.7426
67008SOL    HW2 8140   2.917  11.654   8.842  0.0303 -0.2610 -0.7014
67009SOL     OW 8141   8.106   8.513   3.635  0.5869 -0.5217  0.1737
67009SOL    HW1 8142   8.142   8.482   3.718 -1.2693 -1.8973  0.5365
67009SOL    HW2 8143   8.110   8.436   3.577 -1.7841 -0.8016  0.2849
67010SOL     OW 8144   3.727   4.808   9.345 -0.2626 -0.9094  0.1601
67010SOL    HW1 8145   3.751   4.814   9.253 -1.9201  1.6571 -0.2132
67010SOL    HW2 8146   3.674   4.729   9.351  1.4688 -2.1872 -0.6248
67011SOL     OW 8147   4.398   8.478   3.239  0.2994 -0.5085  0.1114
67011SOL    HW1 8148   4.372   8.456   3.150 -1.0095  1.3448 -0.0242
67011SOL    HW2 8149   4.485   8.515   3.230  1.0278 -2.1544 -0.0884
67012SOL     OW 8150   2.206   8.197   8.214  0.1144  0.5425  0.1806
67012SOL    HW1 8151   2.277   8.170   8.156  0.3491 -0.5307  0.9448
67012SOL    HW2 8152   2.147   8.247   8.157  0.1834 -0.7178 -1.0667
67013SOL     OW 8153  12.327   6.011   2.422  0.1788  0.1273  0.2695
67013SOL    HW1 8154  12.394   6.073   2.451 -0.1213  0.4740  0.2276
67013SOL    HW2 8155  12.248   6.036   2.470  0.3376 -0.9564  1.1238
67014SOL     OW 8156   9.492   6.684   4.661  0.4864 -0.0146 -0.0535
67014SOL    HW1 8157   9.575   6.729   4.649  0.3446  0.5089  0.8220
67014SOL    HW2 8158   9.465   6.706   4.750 -0.8380  0.2398 -0.4897
67015SOL     OW 8159   7.299  11.726   0.138  0.6428 -0.3714  0.0919
67015SOL    HW1 8160   7.384  11.760   0.109 -0.5949  1.1299 -2.0242
67015SOL    HW2 8161   7.269  11.672   0.065 -0.6754 -0.0941  0.4158
67016SOL     OW 8162   7.841  11.004  12.123 -0.4759 -0.4989  0.3691
67016SOL    HW1 8163   7.888  11.066  12.178 -1.7092 -1.0600  2.1675
67016SOL    HW2 8164   7.855  10.919  12.164  1.2421 -1.5323 -2.0825
67017SOL     OW 8165   4.002   5.119   5.461  0.5060  0.4070  0.3462
67017SOL    HW1 8166   3.981   5.212   5.459 -2.9710 -0.2134  0.5392
67017SOL    HW2 8167   4.026   5.097   5.370  1.4112  1.4572  0.3183
67018SOL     OW 8168   1.647   9.026   6.658 -0.1373 -0.5187  0.3418
67018SOL    HW1 8169   1.555   9.051   6.655  0.3008  1.2294  0.2276
67018SOL    HW2 8170   1.688   9.079   6.590  0.9487 -1.3518  0.3189
67019SOL     OW 8171   1.298  10.840   7.913  0.2688 -0.2350 -0.1051
67019SOL    HW1 8172   1.264  10.831   7.824  3.7416  1.0609 -1.7547
67019SOL    HW2 8173   1.267  10.926   7.941 -1.8476 -1.1400  0.5388
67020SOL     OW 8174  12.398   0.196   3.655  0.2180  0.1683  1.0525
67020SOL    HW1 8175  12.312   0.227   3.625  0.8846  0.1159 -1.0687
67020SOL    HW2 8176  12.378   0.121   3.711 -1.1117 -0.1660  0.1749
67021SOL     OW 8177   5.551   4.679  10.395 -0.6511  0.1554 -0.0864
67021SOL    HW1 8178   5.466   4.639  10.376  0.3064 -2.1017  0.0247
67021SOL    HW2 8179   5.614   4.619  10.357  0.9773  0.5357  1.8431
67022SOL     OW 8180   3.074   3.307  12.247  0.0875 -0.4686 -0.2114
67022SOL    HW1 8181   3.119   3.301  12.162 -0.7177 -0.3356 -0.6558
67022SOL    HW2 8182   3.093   3.395  12.278 -0.0884 -0.3178 -0.5247
67023SOL     OW 8183   9.104   8.904   7.835 -0.3370  0.1053 -0.5600
67023SOL    HW1 8184   9.124   8.822   7.789 -1.1378  0.0666 -0.8516
67023SOL    HW2 8185   9.016   8.927   7.806 -1.4928 -0.6850  2.0237
67024SOL     OW 8186  10.689   0.742   9.983 -0.3198  0.1502 -0.8934
67024SOL    HW1 8187  10.696   0.703  10.071  1.7029  0.3098 -0.9398
67024SOL    HW2 8188  10.616   0.696   9.942 -1.6490  0.4215  1.0313
67025SOL     OW 8189   8.827   8.319  11.087  0.2695 -0.3891  0.2453
67025SOL    HW1 8190   8.904   8.285  11.134  1.7172  1.3453 -0.7396
67025SOL    HW2 8191   8.806   8.252  11.023  0.0936 -1.4816  1.4047
67026SOL     OW 8192   6.232   5.551   0.905  0.2235  0.1783  0.8822
67026SOL    HW1 8193   6.285   5.614   0.954  1.2252  0.7092 -0.8234
67026SOL    HW2 8194   6.289   5.519   0.835 -0.7790 -1.4514  0.7375
67027SOL     OW 8195   4.305   2.078  10.353  0.0970 -0.2126 -0.2427
67027SOL    HW1 8196   4.218   2.116  10.365  0.1414 -0.5740  1.5255
67027SOL    HW2 8197   4.300   2.033  10.269 -1.2020  0.3374 -0.4883
67028SOL     OW 8198   7.908  12.739   9.377  0.3637  0.0703 -0.4885
67028SOL    HW1 8199   7.838  12.786   9.331 -0.1057 -0.4014 -0.2751
67028SOL    HW2 8200   7.983  12.745   9.318  0.1450  0.5737 -0.7305
67029SOL     OW 8201   2.900   0.878   2.212 -0.3111  0.1859 -0.4589
67029SOL    HW1 8202   2.877   0.931   2.288 -1.0448 -0.5700 -0.1435
67029SOL    HW2 8203   2.940   0.941   2.151  1.1272  0.6367  0.8743
67030SOL     OW 8204   9.346   0.276  11.351 -0.5218 -0.5694  0.4785
67030SOL    HW1 8205   9.348   0.314  11.439  1.3746  0.0694  0.1992
67030SOL    HW2 8206   9.343   0.181  11.366 -1.8166 -0.4258  1.2040
67031SOL     OW 8207  10.693   7.544  11.004 -0.7196  0.4868  0.0013
67031SOL    HW1 8208  10.699   7.452  11.030 -1.8518  0.0544 -1.1693
67031SOL    HW2 8209  10.728   7.546  10.915 -1.9220  0.9324 -0.4862
67032SOL     OW 8210   1.380   7.669   1.737 -0.2178  0.0725  0.0585
67032SOL    HW1 8211   1.317   7.635   1.673 -0.9891 -0.2259  0.9566
67032SOL    HW2 8212   1.369   7.613   1.814 -0.1501  1.1560  0.8830
67033SOL     OW 8213   0.398   5.203   4.273 -0.3663 -0.0396  0.2901
67033SOL    HW1 8214   0.384   5.297   4.284  0.5549 -0.1201  2.5423
67033SOL    HW2 8215   0.428   5.173   4.358 -2.2371 -2.7131  0.1146
67034SOL     OW 8216   0.125   9.261   5.911 -0.3251  0.1510 -0.6197
67034SOL    HW1 8217   0.141   9.174   5.946  0.0899  0.1187 -0.8793
67034SOL    HW2 8218   0.049   9.250   5.854 -2.1895  0.5824  1.6667
67035SOL     OW 8219   3.465   0.200   1.580 -0.3044 -0.0832  0.0196
67035SOL    HW1 8220   3.530   0.175   1.646 -0.0126 -0.3704 -0.3774
67035SOL    HW2 8221   3.384   0.211   1.630  0.0293  0.2129  0.5050
67036SOL     OW 8222   5.569   4.203   4.917 -0.5372 -0.0537 -0.5376
67036SOL    HW1 8223   5.584   4.243   5.003 -2.2088 -0.0111 -0.2244
67036SOL    HW2 8224   5.495   4.252   4.880  0.4116  0.1873 -2.1986
67037SOL     OW 8225  12.474   1.920   3.427 -0.5075  0.0691 -0.7090
67037SOL    HW1 8226  12.452   1.838   3.383 -1.5147  0.1263 -0.3383
67037SOL    HW2 8227  12.418   1.920   3.505 -0.1843  0.8967 -0.4750
67038SOL     OW 8228   5.771   0.019  10.844 -0.2479  0.2282  0.6712
67038SOL    HW1 8229   5.704   0.030  10.777  0.6039  0.3329 -0.1894
67038SOL    HW2 8230   5.844   0.075  10.815 -0.7377  2.1981  2.9249
67039SOL     OW 8231   8.409  11.699   4.934 -0.6525 -0.2914 -0.3598
67039SOL    HW1 8232   8.488  11.748   4.912 -1.4103  0.4045 -1.6471
67039SOL    HW2 8233   8.439  11.609   4.946  0.3655  0.0018 -0.6384
67040SOL     OW 8234   5.571   3.471  11.231 -0.6710  0.2519  0.2905
67040SOL    HW1 8235   5.596   3.405  11.296  0.5843 -1.3370 -1.6840
67040SOL    HW2 8236   5.628   3.545  11.249  2.0858 -1.4217 -0.9757
67041SOL     OW 8237  10.734   0.477   8.705  0.1304  0.0388  0.1015
67041SOL    HW1 8238  10.712   0.387   8.730 -2.3923  0.8110  1.0109
67041SOL    HW2 8239  10.708   0.530   8.781  0.7339  1.6284 -0.7470
67042SOL     OW 8240   4.600   0.143   0.093 -0.4090 -0.1397  0.1787
67042SOL    HW1 8241   4.663   0.153   0.021  0.5657 -0.3593  0.9833
67042SOL    HW2 8242   4.572   0.052   0.088 -0.0339 -0.2673  0.3093
67043SOL     OW 8243  10.740  12.318  12.399  0.1119  0.4041  0.0383
67043SOL    HW1 8244  10.650  12.350  12.399  0.1674  0.8067 -2.4649
67043SOL    HW2 8245  10.733  12.228  12.366  0.6808  0.8707 -1.4503
67044SOL     OW 8246   7.339   3.857   5.427 -0.4433  0.7446 -0.4130
67044SOL    HW1 8247   7.379   3.921   5.368 -2.1212  1.4340 -0.8700
67044SOL    HW2 8248   7.275   3.812   5.373 -0.2367 -0.3961  0.2609
67045SOL     OW 8249   7.196   8.786   6.679 -0.2206  0.2273 -0.8866
67045SOL    HW1 8250   7.176   8.853   6.745  0.9981  0.2679 -0.5355
67045SOL    HW2 8251   7.254   8.830   6.617 -1.6608  0.3094 -2.2486
67046SOL     OW 8252  12.952   5.391   1.600  0.4326  0.0177 -0.2193
67046SOL    HW1 8253  12.956   5.323   1.532  0.8606  0.4197 -0.6055
67046SOL    HW2 8254  13.034   5.439   1.590  0.7737 -0.2803  0.9731
67047SOL     OW 8255   3.846   0.078   9.336 -0.1964  0.2754  0.4440
67047SOL    HW1 8256   3.927   0.086   9.387  0.4649  0.8637 -0.6557
67047SOL    HW2 8257   3.834   0.164   9.296 -1.0384  0.0100  0.1033
67048SOL     OW 8258   2.596   4.638  11.848 -0.5803  0.7590 -0.2679
67048SOL    HW1 8259   2.602   4.544  11.828 -0.5665  0.6876  0.0703
67048SOL    HW2 8260   2.686   4.669  11.842 -0.6004  0.7750 -0.4950
67049SOL     OW 8261   2.644   1.887   5.193 -0.0042 -0.5105  0.6535
67049SOL    HW1 8262   2.695   1.965   5.214 -0.3153 -0.5322  1.5423
67049SOL    HW2 8263   2.591   1.912   5.118  1.0810 -0.3888 -0.1038
67050SOL     OW 8264   4.367   6.406   1.723 -0.5566  0.4171  0.2756
67050SOL    HW1 8265   4.395   6.330   1.671 -1.9355  0.8303 -1.1439
67050SOL    HW2 8266   4.298   6.373   1.779  0.4350  0.1344  1.3635
67051SOL     OW 8267   8.385   7.058  11.855 -0.1906 -0.3361 -0.5089
67051SOL    HW1 8268   8.429   7.022  11.932 -1.0249 -0.9445 -0.3082
67051SOL    HW2 8269   8.457   7.091  11.800  0.5948 -1.9479 -0.5188
67052SOL     OW 8270   8.313  11.682  12.850  0.3312  0.5858  0.8940
67052SOL    HW1 8271   8.248  11.722  12.907  0.8878  1.7754  0.7258
67052SOL    HW2 8272   8.304  11.728  12.767 -1.9078 -2.5151 -0.7755
67053SOL     OW 8273   4.117   4.941  11.674 -0.3218 -0.5848 -0.2391
67053SOL    HW1 8274   4.058   4.897  11.613  0.3287  0.3637 -1.5931
67053SOL    HW2 8275   4.062   5.007  11.717 -0.4841 -0.3575 -0.7848
67054SOL     OW 8276  10.982   8.114   7.585 -0.4512 -0.4819  0.3468
67054SOL    HW1 8277  11.055   8.148   7.534  0.7704 -1.2306  1.5442
67054SOL    HW2 8278  10.905   8.159   7.549  0.6645  0.8631 -0.4643
67055SOL     OW 8279  10.926  10.882   6.737  0.2321  0.4704 -0.0567
67055SOL    HW1 8280  10.983  10.873   6.661  0.2978 -1.1925  0.1387
67055SOL    HW2 8281  10.858  10.816   6.724  0.0181  0.4400  1.1113
67056SOL     OW 8282   4.129   7.306   9.709 -1.1394  0.0534 -0.6395
67056SOL    HW1 8283   4.110   7.396   9.682 -1.6190  0.1787  0.0916
67056SOL    HW2 8284   4.158   7.263   9.629  0.9683  1.3464 -0.6485
67057SOL     OW 8285   3.491  11.934   6.690 -0.4095 -0.1109  0.3734
67057SOL    HW1 8286   3.496  11.962   6.598 -0.6011  0.4219  0.5186
67057SOL    HW2 8287   3.398  11.921   6.706 -0.4062  0.1182  0.5833
67058SOL     OW 8288   5.642   1.302   2.745  0.2063 -0.9266  0.0592
67058SOL    HW1 8289   5.666   1.391   2.719 -0.0121 -1.2286 -1.2200
67058SOL    HW2 8290   5.550   1.294   2.724  0.3088 -1.5767 -0.1687
67059SOL     OW 8291  11.272   2.380  11.303 -0.1308 -0.2253  0.4762
67059SOL    HW1 8292  11.314   2.311  11.354 -1.8146 -2.3604 -0.8609
67059SOL    HW2 8293  11.178   2.370  11.322 -0.7427 -0.6005 -2.3204
67060SOL     OW 8294  12.941  12.860   6.029  0.4810 -0.1554 -0.2931
67060SOL    HW1 8295  12.854  12.842   5.994  0.0341 -0.0290  0.7295
67060SOL    HW2 8296  12.952  12.955   6.019  0.7975 -0.2595 -1.0525
67061SOL     OW 8297   4.032   5.047   5.209 -0.0480 -0.0568 -0.0324
67061SOL    HW1 8298   4.005   4.963   5.172  0.0838 -0.8360  1.5801
67061SOL    HW2 8299   4.061   5.098   5.133 -1.3720 -0.9752 -1.1982
67062SOL     OW 8300   5.168  10.254   7.509 -0.4858 -0.7582 -0.3752
67062SOL    HW1 8301   5.168  10.242   7.414  1.2762  0.8715 -0.6418
67062SOL    HW2 8302   5.199  10.343   7.522  1.9418 -1.7863  1.7851
67063SOL     OW 8303   9.399   0.987   6.488  0.2595  0.1110 -0.8790
67063SOL    HW1 8304   9.444   1.066   6.457 -0.4493  1.1066  0.5149
67063SOL    HW2 8305   9.322   1.020   6.534 -0.4822 -1.4444 -0.9409
67064SOL     OW 8306   7.134   9.735  12.882  0.2187  0.6935  0.4826
67064SOL    HW1 8307   7.153   9.714  12.974 -1.3766  1.2215  0.9695
67064SOL    HW2 8308   7.041   9.759  12.882  0.0532  0.1906 -1.3653
67065SOL     OW 8309   9.619   3.801   5.738 -0.0181  0.2248 -0.1941
67065SOL    HW1 8310   9.587   3.889   5.718 -0.2675 -0.3946 -2.9471
67065SOL    HW2 8311   9.622   3.757   5.653  2.1553 -1.7632  0.8099
67066SOL     OW 8312  11.027  12.417   1.894 -0.2349  0.0011 -0.4414
67066SOL    HW1 8313  10.943  12.413   1.847 -1.1972  0.4173  1.1773
67066SOL    HW2 8314  11.014  12.362   1.971  1.3650 -0.7785 -0.6804
67067SOL     OW 8315   5.534   0.503  11.021 -0.4456 -0.0674 -0.8517
67067SOL    HW1 8316   5.440   0.500  11.003 -0.6213  2.7818 -0.8895
67067SOL    HW2 8317   5.567   0.418  10.992 -2.9136 -0.9333 -1.3380
67068SOL     OW 8318   1.921   4.053   8.619  0.2381  0.4509 -0.4562
67068SOL    HW1 8319   1.844   4.037   8.675 -0.9049 -0.1725 -2.1127
67068SOL    HW2 8320   1.914   4.145   8.596  0.8073  0.7528  0.5322
67069SOL     OW 8321   5.693   6.379   0.075  0.3770  0.1144  0.3792
67069SOL    HW1 8322   5.605   6.342   0.082  0.8710 -1.4870 -1.0158
67069SOL    HW2 8323   5.716   6.404   0.164 -0.5975 -1.6155  1.1709
67070SOL     OW 8324   5.822   8.420   9.162  0.2273 -0.2095 -0.9326
67070SOL    HW1 8325   5.844   8.427   9.255  0.6080  0.6786 -1.0779
67070SOL    HW2 8326   5.762   8.494   9.146  2.7539  1.7419 -2.0969
67071SOL     OW 8327  10.146   8.405  10.247  0.0240 -0.0721 -0.1936
67071SOL    HW1 8328  10.101   8.325  10.220 -0.5577  0.1914 -0.0356
67071SOL    HW2 8329  10.175   8.388  10.336 -0.4172  0.0151 -0.0292
67072SOL     OW 8330   9.919   5.612   8.217  0.5201 -0.0946  0.1089
67072SOL    HW1 8331   9.841   5.614   8.161  0.8138 -0.6716 -0.3223
67072SOL    HW2 8332   9.993   5.607   8.157  0.7707 -3.2003  0.4907
67073SOL     OW 8333  10.333   7.285   7.061  0.0706 -0.1165 -0.5287
67073SOL    HW1 8334  10.345   7.380   7.060 -1.5827  0.2004  1.4812
67073SOL    HW2 8335  10.246   7.271   7.023 -0.4824 -0.5923  0.8241
67074SOL     OW 8336   8.819   0.552  11.787 -0.8948 -0.4809 -0.1105
67074SOL    HW1 8337   8.908   0.542  11.753  0.8785 -1.8843  4.2480
67074SOL    HW2 8338   8.794   0.641  11.763  3.0255  1.1591  1.0568
67075SOL     OW 8339   9.453   7.147   1.810 -0.0565  0.4629 -0.2487
67075SOL    HW1 8340   9.402   7.228   1.805 -0.8949 -0.0300  0.2048
67075SOL    HW2 8341   9.481   7.142   1.901  1.0194  0.8469 -0.5450
67076SOL     OW 8342   1.702   1.055   5.204  0.1838  0.3295 -0.3039
67076SOL    HW1 8343   1.640   1.032   5.135 -1.4921  0.3213  1.1141
67076SOL    HW2 8344   1.770   0.989   5.198  0.7870  1.0918 -2.7380
67077SOL     OW 8345   0.258  10.275  11.471  0.4051  0.0362 -0.1377
67077SOL    HW1 8346   0.336  10.324  11.444 -0.3218  1.2401 -0.0937
67077SOL    HW2 8347   0.202  10.275  11.394 -1.5842  3.2910  1.1144
67078SOL     OW 8348   6.665   3.469  10.408 -0.1880  0.3690  0.4513
67078SOL    HW1 8349   6.685   3.546  10.354 -1.5403  0.6970  0.3824
67078SOL    HW2 8350   6.661   3.397  10.345 -1.1565  0.6481  0.1680
67079SOL     OW 8351   3.044   4.285  10.487  0.2937 -0.1805  0.3203
67079SOL    HW1 8352   3.040   4.376  10.457  0.1665  0.3103  1.7611
67079SOL    HW2 8353   2.953   4.255  10.484 -0.1278  0.6812  2.5144
67080SOL     OW 8354   5.220   0.376  12.967  0.2174  0.0410  0.7134
67080SOL    HW1 8355   5.195   0.302  12.913  0.5218  0.1797  0.3790
67080SOL    HW2 8356   5.316   0.370  12.973  0.1860 -0.0068  1.2830
67081SOL     OW 8357  10.439   2.926  10.796 -0.4170 -0.3830  0.0056
67081SOL    HW1 8358  10.395   2.907  10.713  0.2183 -0.9577 -0.2039
67081SOL    HW2 8359  10.498   2.852  10.810  1.4276  0.9507 -0.3440
67082SOL     OW 8360   4.157  12.400  12.826  0.2030 -0.3063  0.2770
67082SOL    HW1 8361   4.143  12.346  12.904  1.3570 -1.2778 -0.1546
67082SOL    HW2 8362   4.188  12.484  12.861  0.1697 -0.5429  0.8894
67083SOL     OW 8363   5.183   1.354   0.389 -0.5652 -0.1861  0.0541
67083SOL    HW1 8364   5.194   1.262   0.414  0.1888 -0.2083 -0.3336
67083SOL    HW2 8365   5.269   1.381   0.356 -0.3574  1.0745  1.4924
67084SOL     OW 8366   6.074   9.535   9.856 -0.1012 -0.1239  0.5358
67084SOL    HW1 8367   6.167   9.535   9.835 -0.4540 -0.4372 -1.2093
67084SOL    HW2 8368   6.058   9.619   9.899  1.1284 -0.4342  1.6648
67085SOL     OW 8369   1.143   6.809   0.711  0.4260 -0.6329  0.7183
67085SOL    HW1 8370   1.146   6.730   0.657 -0.8534 -1.2571  1.5208
67085SOL    HW2 8371   1.088   6.786   0.786 -0.6538  1.2429  0.5826
67086SOL     OW 8372  10.416  12.283   3.804 -0.5110 -0.0054  0.3204
67086SOL    HW1 8373  10.346  12.294   3.868 -0.8699  0.7421 -0.1803
67086SOL    HW2 8374  10.375  12.301   3.720  0.4005  1.0585  0.0692
67087SOL     OW 8375  11.557   2.964   1.716  0.6521  0.2687  0.0652
67087SOL    HW1 8376  11.503   2.911   1.774  2.0040  1.7400  2.8447
67087SOL    HW2 8377  11.507   3.044   1.702  1.0292  0.5968  0.5774
67088SOL     OW 8378  12.646   1.769   9.853 -0.3935 -0.2747 -0.4841
67088SOL    HW1 8379  12.610   1.687   9.821 -2.5118 -0.0445  1.0998
67088SOL    HW2 8380  12.682   1.748   9.939 -1.8648  0.6038  0.3864
67089SOL     OW 8381  10.346   8.203  11.529  0.0735 -0.0263 -0.5723
67089SOL    HW1 8382  10.356   8.218  11.435 -0.5677  0.5599 -0.5515
67089SOL    HW2 8383  10.387   8.118  11.544 -0.0409 -0.2385 -1.4295
67090SOL     OW 8384  10.587   1.054   7.381  0.4493  0.1710 -0.3017
67090SOL    HW1 8385  10.573   1.145   7.408 -0.9594 -0.2160  0.3537
67090SOL    HW2 8386  10.679   1.051   7.355  0.4607  1.8366 -0.5642
67091SOL     OW 8387   5.382   1.924   6.375 -0.0709  0.1053  0.3149
67091SOL    HW1 8388   5.398   1.879   6.458 -0.2996  1.8446  1.3605
67091SOL    HW2 8389   5.314   1.989   6.396 -2.0481 -1.1308 -1.8898
67092SOL     OW 8390   5.125   5.360   0.491 -0.0378 -0.1994  0.0664
67092SOL    HW1 8391   5.182   5.393   0.421 -0.0278  0.9830  0.6198
67092SOL    HW2 8392   5.057   5.426   0.501 -0.4500 -0.6991  0.7022
67093SOL     OW 8393   6.324  11.490   4.598 -0.1985 -0.0854 -0.0455
67093SOL    HW1 8394   6.319  11.585   4.590 -0.7167 -0.1289 -0.3134
67093SOL    HW2 8395   6.346  11.474   4.689  1.5726  0.3314 -0.3696
67094SOL     OW 8396   5.822   9.528  10.642 -0.2115 -0.3825  0.8958
67094SOL    HW1 8397   5.769   9.464  10.688 -1.2667 -0.0894  0.1315
67094SOL    HW2 8398   5.767   9.556  10.568  0.6268  0.6432  0.6355
67095SOL     OW 8399  11.351  10.665   5.362  0.0852 -0.1325 -0.2310
67095SOL    HW1 8400  11.321  10.751   5.333 -0.5784 -0.6799 -1.2358
67095SOL    HW2 8401  11.445  10.675   5.373  0.3413  0.2189 -2.3116
67096SOL     OW 8402   1.955   5.596   5.777 -0.2223 -0.6117 -0.0473
67096SOL    HW1 8403   1.918   5.620   5.692  0.6503  2.7164  0.3883
67096SOL    HW2 8404   2.039   5.555   5.756 -0.7960 -1.4534 -0.7932
67097SOL     OW 8405   7.297   2.532  12.220  0.1237  1.0283 -0.5459
67097SOL    HW1 8406   7.230   2.595  12.197 -0.1653  1.7631  1.9980
67097SOL    HW2 8407   7.376   2.584  12.236  0.3911  0.5414 -0.2256
67098SOL     OW 8408  11.789  10.212  11.252  0.3541  0.1162 -0.1560
67098SOL    HW1 8409  11.774  10.296  11.296 -0.5628 -0.1781  0.1061
67098SOL    HW2 8410  11.803  10.150  11.323  1.5209  0.1268 -0.3644
67099SOL     OW 8411   6.677   2.615   2.113 -0.1851  0.1683  0.4223
67099SOL    HW1 8412   6.678   2.693   2.058  0.1072  0.2266  0.5080
67099SOL    HW2 8413   6.769   2.600   2.135 -0.2224 -0.2742  0.3003
67100SOL     OW 8414   1.377   6.942   8.340 -0.0890 -0.0370  0.1668
67100SOL    HW1 8415   1.290   6.942   8.301  0.3818 -0.6037 -0.9153
67100SOL    HW2 8416   1.411   7.030   8.324 -0.1099 -0.0992 -0.2240
67101SOL     OW 8417   1.682   1.428   7.554  0.2681  0.1471  0.1625
67101SOL    HW1 8418   1.678   1.334   7.537  3.5521 -0.4577  1.8441
67101SOL    HW2 8419   1.672   1.469   7.468 -1.9635 -1.6175 -0.5197
67102SOL     OW 8420  12.832   9.697   9.366 -0.2957 -0.2274  0.4257
67102SOL    HW1 8421  12.922   9.664   9.367  1.1494  3.2363  0.3290
67102SOL    HW2 8422  12.820   9.729   9.277 -0.1135  2.6708  1.3209
67103SOL     OW 8423   3.718   4.096   6.865 -0.3551 -0.2641  0.1239
67103SOL    HW1 8424   3.740   4.005   6.886  0.0831 -0.4432 -1.0266
67103SOL    HW2 8425   3.623   4.095   6.851 -0.3371 -0.5670  0.0202
67104SOL     OW 8426   5.128   3.975   7.746 -0.6449 -0.3989  0.6005
67104SOL    HW1 8427   5.156   3.942   7.831 -0.8452  0.9550  1.2221
67104SOL    HW2 8428   5.205   4.018   7.710 -0.4586 -1.2741 -0.0817
67105SOL     OW 8429   6.353   8.286  10.017 -0.6927  0.3578 -0.0993
67105SOL    HW1 8430   6.383   8.205  10.058  0.5723  0.3562 -0.9825
67105SOL    HW2 8431   6.416   8.302   9.947 -2.1724  0.9360 -1.3494
67106SOL     OW 8432  10.662   7.710  12.944 -0.0307  0.3143  0.3962
67106SOL    HW1 8433  10.674   7.745  13.032 -2.2965 -1.5408  1.5745
67106SOL    HW2 8434  10.581   7.750  12.913 -0.3173 -0.5429  0.0001
67107SOL     OW 8435   9.704  11.819   8.944 -0.0079  0.2835 -0.1206
67107SOL    HW1 8436   9.798  11.837   8.937 -0.2763  1.5362 -0.7984
67107SOL    HW2 8437   9.689  11.747   8.883  0.5803 -0.2107  0.3086
67108SOL     OW 8438   0.102   6.672  10.486 -0.7766  0.2842 -0.2308
67108SOL    HW1 8439   0.032   6.735  10.475 -1.2127 -0.0455  0.5454
67108SOL    HW2 8440   0.093   6.612  10.412 -0.4761  1.0069 -0.8617
67109SOL     OW 8441   6.598   9.086   2.278 -0.1836 -0.1325  0.4298
67109SOL    HW1 8442   6.539   9.027   2.232  0.0936  1.0255 -1.5281
67109SOL    HW2 8443   6.541   9.140   2.332 -1.0822  1.3990 -1.9076
67110SOL     OW 8444  12.529  12.062   7.171  0.1942  0.4944  0.7556
67110SOL    HW1 8445  12.551  11.972   7.192  0.4734  0.4562  0.3081
67110SOL    HW2 8446  12.544  12.069   7.077 -2.5145  0.2274  0.2212
67111SOL     OW 8447   7.289   2.127   6.340  0.3526 -0.1065 -0.3540
67111SOL    HW1 8448   7.255   2.163   6.258 -1.1791 -1.3398 -0.3265
67111SOL    HW2 8449   7.375   2.167   6.351 -0.2623  1.6455 -1.5035
67112SOL     OW 8450   2.301   2.461   1.187 -0.0349 -0.6624 -0.3088
67112SOL    HW1 8451   2.310   2.503   1.272 -0.1476 -1.3492  0.0536
67112SOL    HW2 8452   2.303   2.533   1.124  1.0788 -0.2379  0.1971
67113SOL     OW 8453   3.528   5.428   6.955 -0.9594  0.5904 -0.0050
67113SOL    HW1 8454   3.538   5.351   6.899  1.2041  1.4331 -0.8776
67113SOL    HW2 8455   3.444   5.414   6.999 -0.9659 -1.9210 -0.6325
67114SOL     OW 8456   1.655   9.048   6.957  0.1147  0.9315  0.2874
67114SOL    HW1 8457   1.677   8.956   6.970  0.6198  0.9072 -0.6283
67114SOL    HW2 8458   1.647   9.058   6.862 -0.4955  1.7090  0.4052
67115SOL     OW 8459   0.703  12.299  11.409 -0.7149  0.0335  0.2231
67115SOL    HW1 8460   0.666  12.261  11.489 -0.9230  0.7743  0.4930
67115SOL    HW2 8461   0.796  12.312  11.430 -0.0680 -2.5004 -0.7084
67116SOL     OW 8462   3.801   2.977  12.443  0.5326 -0.4208  0.2584
67116SOL    HW1 8463   3.810   2.889  12.405  2.1216 -0.1388 -0.0836
67116SOL    HW2 8464   3.788   3.034  12.367 -2.4451 -0.5240  0.5856
67117SOL     OW 8465   1.440   3.577  12.463 -0.2743 -0.2316 -0.2059
67117SOL    HW1 8466   1.455   3.672  12.457  2.2992 -0.0929  4.1405
67117SOL    HW2 8467   1.521   3.538  12.430  0.5334 -0.5976  2.0258
67118SOL     OW 8468   9.141   7.969   1.600  0.5095  0.4048  0.7809
67118SOL    HW1 8469   9.191   7.932   1.673 -1.7176  1.1378  2.8121
67118SOL    HW2 8470   9.132   8.062   1.621  0.6042  0.8534 -0.9635
67119SOL     OW 8471   1.501   8.662   7.107  0.2091 -1.0308  0.0127
67119SOL    HW1 8472   1.488   8.664   7.012  4.8640  0.8941 -0.8348
67119SOL    HW2 8473   1.526   8.571   7.125  0.1805 -1.2096 -0.7839
67120SOL     OW 8474   4.268   8.432   9.834  0.1469 -0.1215 -0.2594
67120SOL    HW1 8475   4.200   8.497   9.819  0.1090 -0.2371 -0.6035
67120SOL    HW2 8476   4.331   8.446   9.763 -0.0001 -0.6329 -0.4965
67121SOL     OW 8477   5.752   1.707   8.179  0.2897  0.3037 -0.3296
67121SOL    HW1 8478   5.775   1.794   8.146 -0.8944 -0.1252 -2.4856
67121SOL    HW2 8479   5.665   1.689   8.142 -0.1716 -1.1742  1.3290
67122SOL     OW 8480   6.388   4.590   8.165  0.2034  0.7223  0.2836
67122SOL    HW1 8481   6.360   4.499   8.177 -0.0124  1.0572  2.7334
67122SOL    HW2 8482   6.331   4.623   8.095 -0.1163 -0.8468 -0.2423
67123SOL     OW 8483   4.460   5.217  10.552  0.3864 -0.3898  0.6249
67123SOL    HW1 8484   4.552   5.215  10.526 -0.3634 -1.8213 -2.3318
67123SOL    HW2 8485   4.432   5.126  10.548 -1.4844  0.1687  0.1120
67124SOL     OW 8486  10.807   1.857  10.703 -0.5688  0.6671 -0.3799
67124SOL    HW1 8487  10.840   1.946  10.716 -0.0854  0.3326  0.8357
67124SOL    HW2 8488  10.712   1.866  10.706 -0.6450  1.5296 -3.1626
67125SOL     OW 8489  11.148   6.668  10.309 -0.4414  0.0238 -0.0538
67125SOL    HW1 8490  11.220   6.622  10.352 -0.5130 -0.4335 -0.4079
67125SOL    HW2 8491  11.140   6.624  10.224 -1.2377 -0.0273  0.0450
67126SOL     OW 8492   1.457   5.142  12.269  0.2220  0.0091  0.0690
67126SOL    HW1 8493   1.413   5.227  12.267  2.9157  1.5617  1.1433
67126SOL    HW2 8494   1.450   5.114  12.360  2.1669  0.8139  0.5391
67127SOL     OW 8495   7.693   6.920   7.689  0.1926  0.3349 -0.5922
67127SOL    HW1 8496   7.743   6.956   7.763 -1.8549  0.6540  0.7119
67127SOL    HW2 8497   7.648   6.996   7.652 -0.6148 -0.1792 -0.6863
67128SOL     OW 8498   1.672   7.187   5.258 -0.6494  0.1856 -0.2326
67128SOL    HW1 8499   1.589   7.139   5.254  1.1078 -3.2198  0.5718
67128SOL    HW2 8500   1.688   7.200   5.351 -1.4009  3.1733 -0.4361
67129SOL     OW 8501  10.652   5.818   7.202  0.1651  0.0356  0.0848
67129SOL    HW1 8502  10.596   5.882   7.157 -0.6876  0.1161  1.2310
67129SOL    HW2 8503  10.590   5.756   7.242  0.9254 -0.3130  0.7384
67130SOL     OW 8504  12.969  11.309   2.438 -0.1277  0.7459  0.6483
67130SOL    HW1 8505  12.929  11.222   2.432  1.0655  0.1656  0.7296
67130SOL    HW2 8506  13.037  11.309   2.371 -0.2857  1.7240  0.4689
67131SOL     OW 8507  10.104  10.398   8.217 -0.2443  0.0262 -0.2786
67131SOL    HW1 8508  10.061  10.455   8.281 -0.2378  0.8652 -0.9994
67131SOL    HW2 8509  10.163  10.344   8.269 -0.9039  0.0524  0.5237
67132SOL     OW 8510  11.184  11.131   8.240 -0.4411 -0.2506 -0.2660
67132SOL    HW1 8511  11.091  11.155   8.242 -1.2700 -3.0520  1.1990
67132SOL    HW2 8512  11.206  11.128   8.147 -1.0121  2.9083 -0.6121
67133SOL     OW 8513   9.137   7.405   7.428  0.4228 -0.0171 -0.2333
67133SOL    HW1 8514   9.146   7.320   7.472 -0.8477  0.2792  0.6322
67133SOL    HW2 8515   9.148   7.469   7.498 -2.6952  0.4476 -0.0245
67134SOL     OW 8516  11.691  12.563   5.331 -0.1632  0.5730  0.2494
67134SOL    HW1 8517  11.769  12.613   5.308  0.0033  0.3593  0.3471
67134SOL    HW2 8518  11.659  12.528   5.248  0.9374 -0.9375  0.4049
67135SOL     OW 8519   0.373   9.438   0.513  0.1828 -0.4799 -0.2420
67135SOL    HW1 8520   0.452   9.452   0.460 -0.5711  1.5039 -0.9209
67135SOL    HW2 8521   0.405   9.394   0.591  2.1186  0.9041 -0.1731
67136SOL     OW 8522  10.590   1.696   9.286  0.4832 -0.3859  0.0042
67136SOL    HW1 8523  10.613   1.638   9.358  1.0181  1.6170  1.5491
67136SOL    HW2 8524  10.552   1.773   9.328  0.7709  0.8369 -1.8348
67137SOL     OW 8525   8.348   6.442   4.659  0.1559  0.3338 -0.0345
67137SOL    HW1 8526   8.384   6.428   4.746  1.4931  2.4321 -0.1975
67137SOL    HW2 8527   8.254   6.449   4.673  0.5141  3.5220  1.7611
67138SOL     OW 8528   1.936   7.830   3.151 -0.1077  0.0024  0.2537
67138SOL    HW1 8529   1.962   7.912   3.194  1.3705  0.0740 -0.7064
67138SOL    HW2 8530   1.846   7.815   3.181  0.8834 -0.0905  3.5647
67139SOL     OW 8531   7.806   2.884   4.100 -0.0954  0.0551  0.2960
67139SOL    HW1 8532   7.748   2.919   4.166  0.2349 -0.9371  1.1351
67139SOL    HW2 8533   7.773   2.919   4.017 -1.6522 -0.2097  0.7884
67140SOL     OW 8534   3.598   4.668   0.449 -0.1897 -0.1952 -0.1452
67140SOL    HW1 8535   3.627   4.684   0.359  0.7934 -0.3444  0.1245
67140SOL    HW2 8536   3.545   4.589   0.443  2.3602 -2.0399 -0.2137
67141SOL     OW 8537   7.262  10.370   0.172 -0.1462  0.2258  0.1912
67141SOL    HW1 8538   7.174  10.345   0.201  0.1994  0.0658  1.1368
67141SOL    HW2 8539   7.287  10.441   0.232  0.8546 -0.5605  0.7249
67142SOL     OW 8540   9.865  12.954   5.156  0.4414 -0.1022  0.5814
67142SOL    HW1 8541   9.863  13.041   5.197 -0.0433  0.2553 -0.1810
67142SOL    HW2 8542   9.798  12.958   5.088 -1.9121 -2.1012  2.5666
67143SOL     OW 8543   2.757  11.442   9.025 -0.4417 -0.1972  0.4431
67143SOL    HW1 8544   2.753  11.503   8.951 -1.5900 -1.4666 -0.6042
67143SOL    HW2 8545   2.838  11.393   9.012 -0.9613 -0.8679 -0.3820
67144SOL     OW 8546  12.682   7.225  11.523 -0.2008  0.2202  0.2181
67144SOL    HW1 8547  12.633   7.190  11.450  0.7368 -0.7113  0.0089
67144SOL    HW2 8548  12.738   7.293  11.485  1.1728 -1.0933 -0.1755
67145SOL     OW 8549   1.122  11.347  12.373  0.2708  0.1897 -0.2103
67145SOL    HW1 8550   1.144  11.271  12.427 -0.0186  0.5466  0.4166
67145SOL    HW2 8551   1.127  11.314  12.283  1.1664 -0.3074  0.0070
67146SOL     OW 8552  12.631  12.274   3.788  0.0764  0.2184 -0.1185
67146SOL    HW1 8553  12.673  12.308   3.867 -0.2899 -2.1479  1.1815
67146SOL    HW2 8554  12.702  12.229   3.741 -0.1699 -0.3701  0.0634
67147SOL     OW 8555   9.746  11.212   5.566 -0.1573 -0.0549  0.2374
67147SOL    HW1 8556   9.796  11.294   5.570 -0.3948  0.1011  0.1012
67147SOL    HW2 8557   9.708  11.204   5.653  0.6167 -0.5051  0.5377
67148SOL     OW 8558   3.876   9.167   5.359  0.4064  0.7573  0.1653
67148SOL    HW1 8559   3.835   9.253   5.368 -0.0749  0.3443  3.7829
67148SOL    HW2 8560   3.811   9.106   5.393  1.6679 -0.7111  0.0474
67149SOL     OW 8561  10.485  11.838  12.956 -0.1796 -0.3812 -0.4930
67149SOL    HW1 8562  10.518  11.818  13.043 -1.3168 -3.1435 -0.5697
67149SOL    HW2 8563  10.394  11.864  12.970  0.5950  2.7713 -0.6431
67150SOL     OW 8564   1.405   9.142   9.362 -0.4952 -0.3504 -0.2077
67150SOL    HW1 8565   1.377   9.092   9.285 -1.7260  0.1330 -0.0873
67150SOL    HW2 8566   1.398   9.233   9.334  0.7416 -0.2038 -0.0829
67151SOL     OW 8567   8.884   5.076   3.061 -0.4642  0.1997  0.3364
67151SOL    HW1 8568   8.825   5.152   3.056 -0.1956  0.4113  0.3416
67151SOL    HW2 8569   8.829   5.004   3.091 -0.1177  1.0493  3.2331
67152SOL     OW 8570   0.705  10.911   8.821  0.9451 -0.1970 -0.4827
67152SOL    HW1 8571   0.617  10.918   8.786  0.4169  0.4569  0.9064
67152SOL    HW2 8572   0.754  10.863   8.754 -0.2538  0.1211 -1.6258
67153SOL     OW 8573   6.271  10.542   1.091  0.0712 -0.2435 -0.0107
67153SOL    HW1 8574   6.196  10.601   1.100 -1.5900 -1.8996 -2.0532
67153SOL    HW2 8575   6.251  10.468   1.148 -0.5851 -1.3144 -1.5560
67154SOL     OW 8576  11.479   0.897  12.710 -0.0595 -0.4267 -0.2647
67154SOL    HW1 8577  11.516   0.810  12.695 -0.2760 -0.8049  1.2098
67154SOL    HW2 8578  11.402   0.902  12.653 -0.1852 -1.3115 -0.1749
67155SOL     OW 8579   4.152   0.642   7.243 -0.2898 -0.5624 -0.3448
67155SOL    HW1 8580   4.156   0.623   7.149  0.1984  1.1211 -0.7146
67155SOL    HW2 8581   4.244   0.647   7.270 -0.3892  0.6905 -0.1882
67156SOL     OW 8582  11.959  12.174  12.730  0.5769 -0.1520 -0.5557
67156SOL    HW1 8583  12.006  12.099  12.695  0.1057  0.3732 -2.4517
67156SOL    HW2 8584  11.894  12.137  12.789  1.8398 -1.0376  0.3405
67157SOL     OW 8585   6.900   2.186  10.770  0.6348 -0.3247  0.0262
67157SOL    HW1 8586   6.850   2.111  10.801  1.0108 -1.1219 -1.2552
67157SOL    HW2 8587   6.856   2.213  10.689  0.7423  0.6022  0.2578
67158SOL     OW 8588   9.483   0.137   4.162  0.2642 -0.1188 -0.2772
67158SOL    HW1 8589   9.550   0.090   4.113 -1.1821 -0.1760 -2.3503
67158SOL    HW2 8590   9.463   0.214   4.108 -1.6753 -0.3799  0.0088
67159SOL     OW 8591   2.809  10.119   0.559  0.2058 -0.0894  0.0251
67159SOL    HW1 8592   2.838  10.188   0.619  0.7160 -0.0623 -0.2577
67159SOL    HW2 8593   2.738  10.160   0.509  0.0860  0.0310  0.2867
67160SOL     OW 8594   1.031  12.142   8.747  0.1463  0.2548  0.2519
67160SOL    HW1 8595   0.942  12.176   8.759  0.9071  1.7103  2.4057
67160SOL    HW2 8596   1.087  12.219   8.752  1.6947 -0.8839  1.3987
67161SOL     OW 8597   4.275   1.559   5.875 -0.6767  0.2147  1.0664
67161SOL    HW1 8598   4.295   1.570   5.968  1.2971  0.1071  0.7088
67161SOL    HW2 8599   4.327   1.483   5.849  2.1404  2.5924 -0.9642
67162SOL     OW 8600   5.189  12.785   1.231  0.3981  0.0935 -0.4165
67162SOL    HW1 8601   5.245  12.717   1.193 -1.6030 -2.0810  0.2538
67162SOL    HW2 8602   5.229  12.805   1.315  1.4957  0.4364 -0.9973
67163SOL     OW 8603   6.651  12.215   1.659  0.0741 -0.1183 -0.1924
67163SOL    HW1 8604   6.685  12.176   1.579 -0.9678  0.0212 -0.7111
67163SOL    HW2 8605   6.670  12.150   1.727  0.5494 -0.4374 -0.6229
67164SOL     OW 8606   3.012   1.907   3.144 -0.5750 -0.2263 -0.1561
67164SOL    HW1 8607   2.938   1.874   3.196 -0.9984 -0.5867 -0.9675
67164SOL    HW2 8608   3.069   1.949   3.208 -1.3194 -0.2365  0.5327
67165SOL     OW 8609   5.147   7.846   4.404  0.2488 -0.1555  0.2832
67165SOL    HW1 8610   5.080   7.855   4.472  1.8387 -0.5323  1.9826
67165SOL    HW2 8611   5.132   7.759   4.366 -0.1651 -0.2709  0.7098
67166SOL     OW 8612   6.036   0.990   6.784  0.4897 -0.4171  0.1436
67166SOL    HW1 8613   6.075   0.909   6.818  1.2962 -0.4822 -0.8863
67166SOL    HW2 8614   5.961   0.961   6.733  1.2006 -0.6056 -0.8337
67167SOL     OW 8615   0.885  10.992   0.337  0.3411  0.0263  0.6839
67167SOL    HW1 8616   0.976  11.001   0.311  0.4954  0.5665  1.3883
67167SOL    HW2 8617   0.888  10.944   0.420 -0.0467 -0.3013  0.5176
67168SOL     OW 8618   0.776   4.858  10.442 -0.3671  0.5347  0.5075
67168SOL    HW1 8619   0.797   4.811  10.361  0.4813  0.0583  0.9826
67168SOL    HW2 8620   0.729   4.794  10.495 -0.3272  0.6318  0.6604
67169SOL     OW 8621   7.630   9.479  12.883 -0.0003 -0.2041  0.4578
67169SOL    HW1 8622   7.723   9.501  12.890  0.5880 -2.1869 -0.2716
67169SOL    HW2 8623   7.629   9.400  12.829 -2.3746  1.7123 -2.6220
67170SOL     OW 8624  10.003  10.199  12.127 -0.1432  0.4261 -0.0277
67170SOL    HW1 8625  10.009  10.155  12.042  1.0909  1.5684 -0.5853
67170SOL    HW2 8626   9.922  10.249  12.122  0.4103  1.2765 -0.9670
67171SOL     OW 8627   9.631  11.601   0.859  0.5104 -0.3183  0.0807
67171SOL    HW1 8628   9.661  11.681   0.902  1.6266 -0.3505 -0.6055
67171SOL    HW2 8629   9.660  11.530   0.916  1.2640 -0.3191 -0.2897
67172SOL     OW 8630   6.518   4.683   1.920 -0.6654 -0.6869  0.4134
67172SOL    HW1 8631   6.462   4.606   1.928 -0.1335 -1.1075  0.1762
67172SOL    HW2 8632   6.505   4.731   2.002  0.8076 -2.2646  1.6410
67173SOL     OW 8633   0.627   9.057   2.187 -0.0114  0.1424  0.0401
67173SOL    HW1 8634   0.696   9.036   2.124  0.3943 -0.8622  0.7887
67173SOL    HW2 8635   0.614   9.151   2.178  1.4452  0.3590 -0.1427
67174SOL     OW 8636   8.945   5.267   9.084  0.4796 -0.0155 -0.1339
67174SOL    HW1 8637   8.997   5.190   9.109  0.2263 -1.1867 -2.8742
67174SOL    HW2 8638   8.867   5.230   9.041 -0.0642  1.7603 -0.7615
67175SOL     OW 8639   2.082   2.704   0.063 -0.3383  0.0950 -0.2515
67175SOL    HW1 8640   2.009   2.648   0.090 -1.7829  1.7999 -0.3932
67175SOL    HW2 8641   2.101   2.758   0.141 -0.4516  0.8914 -0.7663
67176SOL     OW 8642   1.435  10.202   5.436  0.4033 -0.0565 -0.3934
67176SOL    HW1 8643   1.451  10.239   5.522  1.2594  0.4631 -0.7652
67176SOL    HW2 8644   1.499  10.243   5.379 -1.6111  1.3856 -1.7809
67177SOL     OW 8645   6.638  10.123   9.949  0.0437 -0.7094  0.5409
67177SOL    HW1 8646   6.586  10.175  10.011 -2.1821 -1.2175 -0.7876
67177SOL    HW2 8647   6.645  10.179   9.871  1.4173 -0.7145  0.6390
67178SOL     OW 8648   7.855   6.269   0.988  0.0770 -0.1992  0.4217
67178SOL    HW1 8649   7.871   6.180   0.956  1.0898 -0.1615  0.7771
67178SOL    HW2 8650   7.799   6.309   0.921 -0.0001 -0.9545  0.0266
67179SOL     OW 8651   2.112   6.079   8.021 -0.0762 -0.4064  0.4255
67179SOL    HW1 8652   2.054   6.135   8.072 -0.5035 -0.4430 -0.0131
67179SOL    HW2 8653   2.162   6.139   7.966 -0.4605 -0.4392  0.0312
67180SOL     OW 8654  11.885   1.390  11.125 -0.6741  0.1764  0.8502
67180SOL    HW1 8655  11.934   1.469  11.102 -1.5388  0.7284  0.8742
67180SOL    HW2 8656  11.827   1.417  11.196 -1.2257 -0.3959  0.6273
67181SOL     OW 8657   3.829   6.230   4.436 -0.5866  0.4727  0.1410
67181SOL    HW1 8658   3.900   6.168   4.455 -0.5284  0.4526 -0.1419
67181SOL    HW2 8659   3.856   6.273   4.355 -0.7463  0.6923  0.2045
67182SOL     OW 8660   9.769   8.302   9.723 -0.5272  0.4840 -0.0108
67182SOL    HW1 8661   9.833   8.373   9.713 -1.1440  1.0635  0.1123
67182SOL    HW2 8662   9.763   8.263   9.635  0.7708 -0.2686  0.2073
67183SOL     OW 8663   7.261  10.201   1.843 -0.5771  0.0048  0.1537
67183SOL    HW1 8664   7.276  10.122   1.792  0.4497 -0.4027  1.0504
67183SOL    HW2 8665   7.336  10.206   1.903 -1.6083  0.5747  1.4626
67184SOL     OW 8666   7.203  12.406  11.174  0.5558 -0.4790 -0.9996
67184SOL    HW1 8667   7.143  12.429  11.102  1.0223  0.1943 -1.1850
67184SOL    HW2 8668   7.227  12.490  11.212  1.0690 -0.7729 -0.6723
67185SOL     OW 8669  12.752   8.665   1.482  0.5411 -0.9215  0.3020
67185SOL    HW1 8670  12.729   8.722   1.555 -1.2390 -0.2966 -0.6849
67185SOL    HW2 8671  12.690   8.592   1.488  0.9702 -1.3234 -0.0535
67186SOL     OW 8672   6.243   1.811   0.176  0.3893  0.1382 -0.3632
67186SOL    HW1 8673   6.159   1.842   0.209 -0.4623 -3.0296  0.8848
67186SOL    HW2 8674   6.307   1.837   0.243  0.4154  2.3296 -1.1905
67187SOL     OW 8675   3.793   7.627   3.593  0.8228 -0.5674 -1.0909
67187SOL    HW1 8676   3.879   7.652   3.560 -0.0413  0.2600 -2.8764
67187SOL    HW2 8677   3.764   7.557   3.535 -0.0877 -0.1784 -1.1336
67188SOL     OW 8678  12.772  12.191  10.042  0.6480 -0.0488  1.0796
67188SOL    HW1 8679  12.710  12.264  10.043  1.3800  0.5968  0.7577
67188SOL    HW2 8680  12.750  12.139  10.119  1.3400  1.5827  2.4403
67189SOL     OW 8681  10.755   7.151   9.559 -0.0133 -0.3531 -0.3151
67189SOL    HW1 8682  10.709   7.070   9.538 -1.6793  1.2361 -3.4577
67189SOL    HW2 8683  10.707   7.187   9.634 -0.7253 -1.1380 -0.3780
67190SOL     OW 8684   7.152   9.203  11.546  0.1729  0.1070  0.2103
67190SOL    HW1 8685   7.143   9.129  11.606  0.3181 -0.1139 -0.0387
67190SOL    HW2 8686   7.073   9.255  11.559  0.1932  0.0468  0.5757
67191SOL     OW 8687  12.897   1.407  10.362 -0.3586  0.1837 -0.0437
67191SOL    HW1 8688  12.974   1.441  10.407 -0.5784  0.6213  0.0062
67191SOL    HW2 8689  12.921   1.318  10.337 -0.1179  0.0431  0.6610
67192SOL     OW 8690  11.393  12.451   0.859 -0.1037 -0.2131 -0.3563
67192SOL    HW1 8691  11.454  12.459   0.932 -0.3414 -0.9441 -0.0699
67192SOL    HW2 8692  11.410  12.364   0.823 -0.1961  0.0234 -0.9896
67193SOL     OW 8693   2.867  11.560   8.285  0.5309 -0.3953  0.4003
67193SOL    HW1 8694   2.935  11.604   8.336  2.7735 -0.5507 -2.2069
67193SOL    HW2 8695   2.913  11.527   8.208 -2.3587 -1.4486 -1.0131
67194SOL     OW 8696   9.089   1.810  11.383  0.3764  0.1976 -0.6323
67194SOL    HW1 8697   9.158   1.744  11.390  0.4962  0.3122 -0.7420
67194SOL    HW2 8698   9.134   1.890  11.357  0.1821  0.2354 -0.8602
67195SOL     OW 8699   1.289   4.526  10.623  0.3531 -0.3888 -0.2478
67195SOL    HW1 8700   1.368   4.484  10.588  0.5772 -0.0640 -0.1376
67195SOL    HW2 8701   1.304   4.619  10.609 -0.3325 -0.3684 -0.8807
67196SOL     OW 8702   4.634   2.521   2.263  0.4800 -0.3283 -0.3142
67196SOL    HW1 8703   4.553   2.487   2.302  0.9882 -1.0719  0.1179
67196SOL    HW2 8704   4.700   2.455   2.283  0.8196 -0.6379 -2.2643
67197SOL     OW 8705  10.395  10.248  11.468 -0.3571 -0.0170 -0.1346
67197SOL    HW1 8706  10.474  10.270  11.517 -0.4884  0.9353 -0.3328
67197SOL    HW2 8707  10.424  10.236  11.378 -0.3057 -0.5623 -0.0495
67198SOL     OW 8708  12.832   4.472   5.991  0.2289  0.2890 -0.0430
67198SOL    HW1 8709  12.920   4.443   5.967  0.5507  1.8405 -0.8697
67198SOL    HW2 8710  12.788   4.392   6.019  1.3665 -0.8131 -1.2353
67199SOL     OW 8711  12.272   7.213  10.152  0.4150 -0.7475 -0.1274
67199SOL    HW1 8712  12.258   7.237  10.243  0.6543  0.1493 -0.3122
67199SOL    HW2 8713  12.333   7.279  10.119  0.4093 -1.1179 -0.9076
67200SOL     OW 8714  10.353   2.839   4.235  0.4203 -0.0575  0.0453
67200SOL    HW1 8715  10.425   2.790   4.195  0.5781 -0.4877  0.8392
67200SOL    HW2 8716  10.293   2.771   4.267  0.2204  0.2822  0.4063
67201SOL     OW 8717   5.603   6.637   7.303 -0.5837  0.6936 -0.1239
67201SOL    HW1 8718   5.675   6.577   7.324 -0.2793  0.7910 -0.8523
67201SOL    HW2 8719   5.568   6.663   7.388 -0.3972 -0.1257  0.2168
67202SOL     OW 8720   9.643   9.483   9.744  0.1053 -0.1205 -0.1134
67202SOL    HW1 8721   9.596   9.465   9.826 -1.4637  0.7937 -0.7630
67202SOL    HW2 8722   9.637   9.401   9.695  2.1556 -1.0926  1.1445
67203SOL     OW 8723   2.555   0.275   8.896 -0.4375  0.3943  0.3516
67203SOL    HW1 8724   2.500   0.350   8.918 -2.1025 -0.6172 -0.1971
67203SOL    HW2 8725   2.522   0.245   8.811 -0.5102 -1.5633  1.0098
67204SOL     OW 8726  12.886   6.370   9.968 -0.4591 -0.3894 -0.4889
67204SOL    HW1 8727  12.918   6.284   9.941  0.4972 -0.4094  0.6197
67204SOL    HW2 8728  12.964   6.426   9.966 -0.8601  0.1883 -0.1527
67205SOL     OW 8729   1.321  11.890  10.412  0.0870 -0.2765  0.0779
67205SOL    HW1 8730   1.310  11.953  10.341 -2.2081 -1.0151 -0.3072
67205SOL    HW2 8731   1.246  11.831  10.403 -0.0075 -0.6981  2.7993
67206SOL     OW 8732   8.806   7.034  11.489 -0.3238  0.4680  0.1271
67206SOL    HW1 8733   8.901   7.035  11.500 -0.3784  0.4180  0.6601
67206SOL    HW2 8734   8.773   7.001  11.573 -0.7730 -0.2501 -0.3270
67207SOL     OW 8735  10.213   0.167   0.524 -0.0516  0.2375  0.2650
67207SOL    HW1 8736  10.293   0.183   0.475 -0.0574  0.1649  0.2305
67207SOL    HW2 8737  10.235   0.097   0.585 -0.2042 -0.0684 -0.0301
67208SOL     OW 8738   0.260   9.941   5.341  0.1579  0.6265 -0.3295
67208SOL    HW1 8739   0.263  10.036   5.328  1.4332  0.6380 -0.0709
67208SOL    HW2 8740   0.229   9.906   5.257  2.6610  1.0869 -1.5302
67209SOL     OW 8741  10.083  12.185   2.797 -0.4387 -0.0535 -0.2439
67209SOL    HW1 8742  10.028  12.203   2.873  0.1350  0.3029  0.0843
67209SOL    HW2 8743  10.081  12.089   2.789  1.2601 -0.3175  1.5625
67210SOL     OW 8744   0.602   6.454   0.975 -0.5298  0.5972  0.3236
67210SOL    HW1 8745   0.687   6.434   1.014 -0.1598  1.9678  0.2555
67210SOL    HW2 8746   0.541   6.397   1.021  0.6947 -2.2599 -1.2815
67211SOL     OW 8747  10.454   6.439  12.218 -0.1348  0.5339  0.3662
67211SOL    HW1 8748  10.499   6.396  12.291 -1.6789 -0.0034  1.0413
67211SOL    HW2 8749  10.395   6.371  12.183  1.8050  0.1944 -2.5654
67212SOL     OW 8750   5.489   0.666   0.201  0.5915  0.0478 -0.0817
67212SOL    HW1 8751   5.579   0.699   0.195  1.2972 -1.6438  0.5980
67212SOL    HW2 8752   5.435   0.737   0.167  2.2259  0.8884 -1.0185
67213SOL     OW 8753   0.608   3.507   9.538 -0.7737  0.0973  0.2264
67213SOL    HW1 8754   0.544   3.491   9.608 -0.6264 -0.1783  0.3001
67213SOL    HW2 8755   0.690   3.524   9.584 -0.6692 -0.1163  0.1187
67214SOL     OW 8756   2.205  12.816  12.885 -0.1420  0.1831  0.0337
67214SOL    HW1 8757   2.186  12.725  12.867  0.8161 -0.0503  0.1358
67214SOL    HW2 8758   2.167  12.832  12.971  1.1372 -0.6241  0.7946
67215SOL     OW 8759   4.862  12.899   8.249  0.3473 -0.1274  0.5532
67215SOL    HW1 8760   4.921  12.973   8.259  0.9157 -0.5424  0.3828
67215SOL    HW2 8761   4.862  12.881   8.155 -0.4956  0.2112  0.4742
67216SOL     OW 8762  11.575   6.157   2.735 -0.1068  0.2205 -0.1585
67216SOL    HW1 8763  11.487   6.119   2.727 -1.0093  1.7387  1.7473
67216SOL    HW2 8764  11.562   6.250   2.719  1.5523  0.2312 -1.8229
67217SOL     OW 8765  11.671   1.591   5.890 -0.6701 -0.1956 -0.4602
67217SOL    HW1 8766  11.696   1.578   5.799  1.4185  0.5941 -0.0455
67217SOL    HW2 8767  11.576   1.601   5.888 -0.5044  1.6209 -2.7693
67218SOL     OW 8768   8.905   6.790   9.952  0.7638 -0.0355 -0.0480
67218SOL    HW1 8769   8.823   6.777   9.904  0.7879  0.0667 -0.1176
67218SOL    HW2 8770   8.950   6.859   9.904  0.8795 -0.0740  0.0055
67219SOL     OW 8771   0.698   5.182   7.214 -0.4782  0.3903  0.0798
67219SOL    HW1 8772   0.678   5.089   7.200  1.6275  0.0583 -1.3023
67219SOL    HW2 8773   0.618   5.228   7.190 -2.0014 -1.0600  1.9648
67220SOL     OW 8774   8.991   2.964  11.172 -0.2638  0.0654  0.0747
67220SOL    HW1 8775   8.949   2.879  11.156 -0.1246 -0.3342  1.7067
67220SOL    HW2 8776   9.029   2.956  11.259  0.0474  1.7077  0.1134
67221SOL     OW 8777   3.260   9.437  12.545 -0.0422 -0.0403 -0.2639
67221SOL    HW1 8778   3.167   9.446  12.529 -0.2483  0.0668  0.8830
67221SOL    HW2 8779   3.279   9.345  12.527 -0.1337  0.1662 -1.5264
67222SOL     OW 8780   1.595   4.192   7.497  0.1218 -0.6419  0.2318
67222SOL    HW1 8781   1.577   4.168   7.588 -0.0989  0.2873  0.4399
67222SOL    HW2 8782   1.599   4.108   7.451  0.1319 -1.1196  1.0722
67223SOL     OW 8783   9.532   5.513   7.249  0.3679 -0.0093 -0.3340
67223SOL    HW1 8784   9.493   5.538   7.333  0.1391 -0.8433 -0.1840
67223SOL    HW2 8785   9.554   5.421   7.260  1.9030  0.2980 -0.5974
67224SOL     OW 8786   9.550   9.390   1.807 -0.6223  1.2296 -0.9483
67224SOL    HW1 8787   9.536   9.304   1.846 -0.3178  2.7472  2.8889
67224SOL    HW2 8788   9.464   9.432   1.809 -0.0582  2.4239  1.1861
67225SOL     OW 8789   2.765   6.037   7.155  0.0215 -0.5637 -0.1457
67225SOL    HW1 8790   2.674   6.009   7.145 -2.1803  5.5235 -1.4924
67225SOL    HW2 8791   2.764   6.094   7.232  2.7113 -0.2174 -0.2777
67226SOL     OW 8792   5.810   7.322   7.170  0.1986  0.1742 -0.1521
67226SOL    HW1 8793   5.756   7.318   7.249  1.4719 -0.4336  0.7291
67226SOL    HW2 8794   5.844   7.233   7.160  1.7765  0.7377 -0.1099
67227SOL     OW 8795   1.749  10.149  12.067  0.5312  0.0034 -0.9593
67227SOL    HW1 8796   1.778  10.136  11.977  0.6392 -1.7793 -0.7027
67227SOL    HW2 8797   1.736  10.061  12.101 -1.6987  0.6625  0.0827
67228SOL     OW 8798  12.081   0.298  12.473 -0.2314 -0.7341  0.1906
67228SOL    HW1 8799  12.164   0.282  12.427 -1.0450 -2.0260 -0.9099
67228SOL    HW2 8800  12.063   0.391  12.459  0.5512 -0.6533 -0.3552
67229SOL     OW 8801   2.341  11.167   1.792 -0.2063 -0.1199  0.3042
67229SOL    HW1 8802   2.327  11.117   1.872  1.4778 -1.7083 -0.3119
67229SOL    HW2 8803   2.334  11.103   1.722 -0.5873  1.0292 -0.7514
67230SOL     OW 8804   3.509   6.135   5.734 -0.0184 -0.4784 -1.0004
67230SOL    HW1 8805   3.534   6.044   5.752 -0.9821 -0.4593  0.6204
67230SOL    HW2 8806   3.435   6.127   5.673 -0.2058 -0.8058 -0.7371
67231SOL     OW 8807   2.799   9.530   3.219  0.0210 -0.2394 -0.0025
67231SOL    HW1 8808   2.739   9.528   3.293 -1.1765  0.7569 -0.9110
67231SOL    HW2 8809   2.882   9.560   3.256 -0.3507 -0.4957  1.0640
67232SOL     OW 8810   7.808   7.583   5.465 -0.2913  0.7994  0.8264
67232SOL    HW1 8811   7.829   7.495   5.496 -0.1522  0.8153  0.7756
67232SOL    HW2 8812   7.865   7.641   5.515 -1.1704  0.9570  1.6800
67233SOL     OW 8813   2.114  11.818   4.261  0.2982 -0.0681  0.0517
67233SOL    HW1 8814   2.129  11.803   4.168 -0.2996 -1.6711  0.1972
67233SOL    HW2 8815   2.031  11.776   4.280  0.1616  0.6652  1.2258
67234SOL     OW 8816   4.009   7.195   2.488  0.6386  0.2729 -0.2303
67234SOL    HW1 8817   3.927   7.244   2.487  0.3345 -0.1446  1.1844
67234SOL    HW2 8818   4.076   7.259   2.467 -0.0769  0.5308 -1.8502
67235SOL     OW 8819  11.962  11.695   0.695 -0.2133 -0.3037 -0.8255
67235SOL    HW1 8820  11.956  11.743   0.612  0.2759  0.2049 -0.5771
67235SOL    HW2 8821  11.882  11.644   0.699 -1.2885  1.3103 -0.6044
67236SOL     OW 8822  10.269  10.301   2.613 -0.5771 -0.3519 -0.4610
67236SOL    HW1 8823  10.188  10.291   2.664 -0.8959 -1.1370 -1.1143
67236SOL    HW2 8824  10.254  10.379   2.560 -1.5481 -1.3522 -1.7226
67237SOL     OW 8825   5.244  11.771  10.831 -0.2205 -0.0803  0.5303
67237SOL    HW1 8826   5.184  11.754  10.759 -1.6006  3.2874  0.6854
67237SOL    HW2 8827   5.216  11.711  10.900 -1.9319 -0.1922 -0.2073
67238SOL     OW 8828   5.526   2.138  11.049  0.1324  0.0025  1.0243
67238SOL    HW1 8829   5.598   2.186  11.090  0.4548  1.1149 -0.6822
67238SOL    HW2 8830   5.547   2.046  11.062  1.4295  0.3140  1.3022
67239SOL     OW 8831   5.037  11.367   5.802 -0.5378 -0.0028  0.5207
67239SOL    HW1 8832   5.072  11.285   5.837 -2.0478 -0.9244 -0.0175
67239SOL    HW2 8833   5.023  11.349   5.709 -0.2786  1.1005  0.2528
67240SOL     OW 8834   9.474   4.521   2.225  0.4823  0.1133 -0.4010
67240SOL    HW1 8835   9.469   4.479   2.311 -0.2399 -0.3510 -0.6702
67240SOL    HW2 8836   9.539   4.591   2.237  1.7657 -1.0985  0.0234
67241SOL     OW 8837   1.374  12.944   9.273 -0.0953  0.5600  0.2413
67241SOL    HW1 8838   1.436  13.016   9.266  0.1377  0.3505  0.1301
67241SOL    HW2 8839   1.428  12.866   9.283 -0.3634  0.5600  2.0562
67242SOL     OW 8840   3.211  12.560   0.695 -0.2940 -0.7614 -0.1368
67242SOL    HW1 8841   3.148  12.552   0.623 -0.1245  0.5819 -0.4615
67242SOL    HW2 8842   3.162  12.601   0.766  0.6098  2.0736 -1.0280
67243SOL     OW 8843  10.433   2.115   3.296 -0.2210 -0.1581  0.1286
67243SOL    HW1 8844  10.461   2.026   3.274 -0.6677 -1.0452  2.8376
67243SOL    HW2 8845  10.506   2.170   3.270  0.6299 -1.4593 -0.3460
67244SOL     OW 8846   0.815  12.706  10.020 -0.0355  0.4855  0.3011
67244SOL    HW1 8847   0.903  12.733  10.043  0.5621 -0.0902 -1.1862
67244SOL    HW2 8848   0.758  12.763  10.071  1.1922  1.3103  0.7818
67245SOL     OW 8849   2.043   4.822   9.379  0.2830 -0.3800  0.1320
67245SOL    HW1 8850   2.023   4.730   9.361 -1.6040  0.0416 -0.1532
67245SOL    HW2 8851   2.043   4.829   9.474 -0.2239 -0.5616  0.1476
67246SOL     OW 8852   1.019   6.876   2.883 -0.3563 -0.5482 -0.6950
67246SOL    HW1 8853   0.926   6.889   2.863  0.1276  0.8613 -2.2343
67246SOL    HW2 8854   1.049   6.962   2.912  0.5764 -0.8813 -0.6558
67247SOL     OW 8855   0.446   0.905   9.061 -0.2891 -0.4685 -0.2094
67247SOL    HW1 8856   0.372   0.889   9.118 -1.4348 -2.4403 -2.1009
67247SOL    HW2 8857   0.412   0.966   8.994  0.2539 -0.1934 -0.2425
67248SOL     OW 8858   1.559   9.570   0.583  0.4130  0.4277 -0.5052
67248SOL    HW1 8859   1.652   9.586   0.565  0.6323  0.3095  0.4505
67248SOL    HW2 8860   1.518   9.570   0.497  1.5758 -1.4181 -1.1112
67249SOL     OW 8861   9.917   1.429   5.654 -0.0889 -0.1152  0.0924
67249SOL    HW1 8862   9.977   1.463   5.588  0.0146 -1.5035 -0.5521
67249SOL    HW2 8863   9.832   1.466   5.629  0.3180  1.2003  0.5393
67250SOL     OW 8864   6.486  12.460   7.383  0.2475 -0.0197 -0.1770
67250SOL    HW1 8865   6.410  12.507   7.418  0.2443  0.0700 -0.3035
67250SOL    HW2 8866   6.557  12.480   7.444 -0.0756 -0.9307  0.5107
67251SOL     OW 8867  10.798  10.087   1.766 -0.4427 -0.1261  0.4453
67251SOL    HW1 8868  10.893  10.080   1.755 -0.5220  1.0306 -1.3632
67251SOL    HW2 8869  10.786  10.167   1.818 -0.4567  0.7239 -0.8233
67252SOL     OW 8870   4.263   9.740   1.815 -0.1844 -0.5949  0.3927
67252SOL    HW1 8871   4.317   9.718   1.890 -0.8634 -0.0553  1.0577
67252SOL    HW2 8872   4.209   9.814   1.845 -0.8662 -0.7402 -0.4341
67253SOL     OW 8873   4.411   4.190   3.464  0.1225  0.3669  0.3612
67253SOL    HW1 8874   4.451   4.147   3.388 -0.6888 -2.4512  1.3853
67253SOL    HW2 8875   4.321   4.156   3.466  0.4516 -0.6515  3.1791
67254SOL     OW 8876  12.935   1.151   7.828 -0.0601  0.1917  0.0567
67254SOL    HW1 8877  12.988   1.227   7.854  1.1504 -0.8917  0.8663
67254SOL    HW2 8878  12.895   1.177   7.745  1.4961  1.1702 -0.4190
67255SOL     OW 8879   4.133   8.999   9.609  0.0773  0.2613  0.3888
67255SOL    HW1 8880   4.203   9.060   9.632 -0.0632  0.5323  0.1002
67255SOL    HW2 8881   4.147   8.979   9.516 -1.4653  1.9796 -0.2599
67256SOL     OW 8882   0.743  10.954   4.331 -0.0549  0.6828 -0.1542
67256SOL    HW1 8883   0.666  10.898   4.322  1.4377 -1.8906  1.7189
67256SOL    HW2 8884   0.718  11.019   4.398 -0.8749  0.4475 -0.2251
67257SOL     OW 8885   3.357   3.382   7.189 -0.1733  0.2027  0.5277
67257SOL    HW1 8886   3.328   3.335   7.111 -0.8779  2.3390 -0.5594
67257SOL    HW2 8887   3.444   3.347   7.207 -0.3030 -0.8509 -0.7768
67258SOL     OW 8888   7.847   6.828   3.238  0.1922 -0.0510 -0.0921
67258SOL    HW1 8889   7.908   6.775   3.188 -0.0415 -0.5913  0.1800
67258SOL    HW2 8890   7.771   6.770   3.252 -0.2360  0.4896 -0.1342
67259SOL     OW 8891   3.602   7.719   2.364  0.0335 -0.1101  0.0852
67259SOL    HW1 8892   3.656   7.673   2.300  1.0545 -0.1331  0.9290
67259SOL    HW2 8893   3.513   7.716   2.329  0.6787  0.5383 -1.6997
67260SOL     OW 8894  10.478   5.195   5.567 -0.2701 -0.0002  0.2870
67260SOL    HW1 8895  10.402   5.167   5.618 -2.7872  4.4321 -0.5432
67260SOL    HW2 8896  10.517   5.266   5.617  1.0577  0.2777 -1.0523
67261SOL     OW 8897  12.609   1.092   9.061 -0.0932 -0.3590 -0.0831
67261SOL    HW1 8898  12.594   1.172   9.112 -0.4802 -0.9995  0.8412
67261SOL    HW2 8899  12.702   1.074   9.074  0.3118  0.6642 -1.4026
67262SOL     OW 8900   8.700  12.066  10.285 -0.0033  0.5316 -0.0956
67262SOL    HW1 8901   8.652  11.994  10.326 -0.4441  1.2559  0.6785
67262SOL    HW2 8902   8.762  12.023  10.226 -0.6014 -0.4629 -0.0133
67263SOL     OW 8903   8.552   7.065  11.033  0.3295 -0.0423  0.3268
67263SOL    HW1 8904   8.578   6.998  10.970  1.3206 -0.1822  0.8607
67263SOL    HW2 8905   8.619   7.061  11.102  0.5810  1.6845  0.2393
67264SOL     OW 8906  10.090   7.016   5.841  0.3701  0.5291  0.0369
67264SOL    HW1 8907  10.086   7.074   5.766  0.2893  1.2881  0.6157
67264SOL    HW2 8908  10.173   7.039   5.884  0.6249 -0.1963 -0.0517
67265SOL     OW 8909   5.728  12.541   8.414  0.1153  0.2639  0.4484
67265SOL    HW1 8910   5.716  12.599   8.489  2.0892  2.1700 -0.5836
67265SOL    HW2 8911   5.815  12.502   8.427 -0.3318 -0.9027  0.0875
67266SOL     OW 8912  10.745   7.145   1.857 -0.2064 -0.4478 -0.0471
67266SOL    HW1 8913  10.765   7.163   1.948  0.6587  0.7561 -0.4515
67266SOL    HW2 8914  10.768   7.053   1.844 -2.6270 -1.3777  1.5278
67267SOL     OW 8915   9.532   9.976   7.784 -0.0919 -0.4078  0.6471
67267SOL    HW1 8916   9.517   9.946   7.695 -0.3883  0.0364  0.5433
67267SOL    HW2 8917   9.490  10.062   7.788  1.6697  0.5048  0.6167
67268SOL     OW 8918   2.089  11.142   3.301 -0.0193 -0.1075 -0.0711
67268SOL    HW1 8919   2.063  11.228   3.270 -1.0029 -0.3771 -0.0483
67268SOL    HW2 8920   2.142  11.105   3.230  0.8068  0.6888  0.1201
67269SOL     OW 8921   9.626   3.506   9.818  0.2430 -0.1189  0.0910
67269SOL    HW1 8922   9.612   3.412   9.813 -0.2275 -0.0523  0.0904
67269SOL    HW2 8923   9.697   3.517   9.881 -1.3693 -0.3432  2.0418
67270SOL     OW 8924   5.687   2.977   1.798  0.4480 -0.3668 -0.2463
67270SOL    HW1 8925   5.660   2.911   1.862 -0.7320  0.3119 -0.0118
67270SOL    HW2 8926   5.657   2.943   1.714 -0.3784 -0.0361 -0.0961
67271SOL     OW 8927   8.208   6.427   2.107 -0.1190 -0.0266 -0.3812
67271SOL    HW1 8928   8.128   6.478   2.093 -0.7240  0.1614  2.9612
67271SOL    HW2 8929   8.279   6.487   2.083 -0.9270  1.0126 -0.2733
67272SOL     OW 8930   9.813   5.798   4.090 -0.5049 -0.1007 -0.2876
67272SOL    HW1 8931   9.883   5.836   4.037 -0.6335  0.1177 -0.3026
67272SOL    HW2 8932   9.851   5.789   4.177  0.1589 -1.7349 -0.7148
67273SOL     OW 8933  10.118   0.187   6.141 -0.3200  0.4480  0.7458
67273SOL    HW1 8934  10.046   0.250   6.151 -0.3805  0.6543 -0.7245
67273SOL    HW2 8935  10.196   0.236   6.167 -0.4026  1.0802 -0.1393
67274SOL     OW 8936  11.797   7.979   4.325  0.1548  0.1390  0.1977
67274SOL    HW1 8937  11.821   7.888   4.344  0.1253 -0.2302 -1.3632
67274SOL    HW2 8938  11.840   8.030   4.393 -0.0877 -1.0623  1.2909
67275SOL     OW 8939   3.011   6.147   6.893 -0.2932 -0.2037  0.1633
67275SOL    HW1 8940   2.972   6.072   6.847 -0.3859 -0.3825  0.5277
67275SOL    HW2 8941   2.968   6.223   6.854  1.6073 -0.1368 -2.0094
67276SOL     OW 8942   2.680   0.386   0.154 -0.1266  0.4462  0.3808
67276SOL    HW1 8943   2.670   0.480   0.172 -1.7471  1.0293 -2.8757
67276SOL    HW2 8944   2.710   0.383   0.063  0.5383 -2.2377  0.6273
67277SOL     OW 8945  11.761   7.286  12.953 -0.4368 -0.0258  0.1594
67277SOL    HW1 8946  11.719   7.323  12.876 -0.7040  1.7425  1.1176
67277SOL    HW2 8947  11.831   7.347  12.975  0.5056 -1.2017  0.5632
67278SOL     OW 8948   2.584   0.596   5.007 -0.3628 -0.6189  0.3980
67278SOL    HW1 8949   2.626   0.673   4.969  0.2002 -1.8058 -1.5176
67278SOL    HW2 8950   2.568   0.620   5.099  2.7679  0.5732  0.7413
67279SOL     OW 8951   8.560   1.762   1.792  0.0801  0.1620  0.0071
67279SOL    HW1 8952   8.528   1.683   1.750 -0.5826  0.2076  0.4160
67279SOL    HW2 8953   8.504   1.832   1.758  0.1347  0.3331  0.2674
67280SOL     OW 8954   2.132   8.176   3.738  0.7373 -0.3261 -0.3411
67280SOL    HW1 8955   2.220   8.187   3.776  0.7771 -0.8611 -0.2789
67280SOL    HW2 8956   2.142   8.205   3.647  0.9583 -0.2953 -0.3081
67281SOL     OW 8957   9.828   5.834   0.770  0.5024 -0.1290 -0.0259
67281SOL    HW1 8958   9.850   5.840   0.863  1.4296 -1.0842 -0.1684
67281SOL    HW2 8959   9.888   5.895   0.727  0.6455 -0.3120 -0.0847
67282SOL     OW 8960   5.449  10.451   6.149 -0.4911 -0.1632 -0.4851
67282SOL    HW1 8961   5.368  10.405   6.126  0.7694 -3.6397  1.3224
67282SOL    HW2 8962   5.515  10.382   6.156  2.2623  2.2909 -0.0656
67283SOL     OW 8963  11.995   3.002   3.721 -0.0821  0.2457 -0.4550
67283SOL    HW1 8964  11.952   3.049   3.650  1.2151  0.7240 -0.9710
67283SOL    HW2 8965  12.072   2.963   3.680 -0.3387 -1.0941  0.2925
67284SOL     OW 8966   6.978   7.286   2.221  0.0809  0.0133  0.3129
67284SOL    HW1 8967   6.998   7.197   2.191 -0.2930 -0.1868  0.6449
67284SOL    HW2 8968   6.991   7.341   2.144 -0.9844 -0.4974 -0.2577
67285SOL     OW 8969  11.723   8.228   9.270  0.1316  0.0783 -0.0839
67285SOL    HW1 8970  11.654   8.177   9.228  0.4567  0.6312 -1.3678
67285SOL    HW2 8971  11.760   8.280   9.198  0.0113  1.8891  1.1247
67286SOL     OW 8972   8.378   2.221   9.840 -0.1279 -0.1592 -0.3295
67286SOL    HW1 8973   8.441   2.292   9.850 -0.0079 -0.2404 -0.5046
67286SOL    HW2 8974   8.299   2.263   9.804  0.3072 -0.2912 -1.4674
67287SOL     OW 8975  12.645   2.537   5.223  0.1437  0.2012 -0.0510
67287SOL    HW1 8976  12.711   2.470   5.239 -0.0464  0.2228  0.8722
67287SOL    HW2 8977  12.686   2.597   5.161  0.2859 -0.7964 -0.9571
67288SOL     OW 8978  11.199   4.773   5.516 -0.3375  0.4207 -0.1737
67288SOL    HW1 8979  11.212   4.817   5.600 -2.2474  0.8984 -0.0822
67288SOL    HW2 8980  11.200   4.843   5.451 -1.9095  0.4510 -0.1930
67289SOL     OW 8981   7.978   7.506   9.903  0.0181  0.0555  0.4205
67289SOL    HW1 8982   7.909   7.560   9.865 -1.5258 -2.1704 -0.1237
67289SOL    HW2 8983   8.051   7.567   9.916 -1.6007  2.2462 -0.0984
67290SOL     OW 8984   7.032   9.469   6.600 -0.5705 -0.4066  0.3199
67290SOL    HW1 8985   7.069   9.469   6.689 -1.0690  0.5993  0.5453
67290SOL    HW2 8986   6.963   9.536   6.603 -0.8695 -0.6501 -0.7173
67291SOL     OW 8987  10.160   9.590   6.896  0.4662  0.2290 -0.0804
67291SOL    HW1 8988  10.194   9.503   6.915 -0.0627 -0.1004 -0.6389
67291SOL    HW2 8989  10.210   9.648   6.954  2.0335 -0.2337 -0.9179
67292SOL     OW 8990  12.862   9.756   9.117  0.0216  0.3166 -0.7036
67292SOL    HW1 8991  12.783   9.801   9.087 -0.3082  0.6407  0.6050
67292SOL    HW2 8992  12.932   9.819   9.105 -0.7107  2.0762  2.9604
67293SOL     OW 8993  12.239   7.050   7.563  0.2460  0.3434 -0.1818
67293SOL    HW1 8994  12.281   7.058   7.649 -0.8537 -0.1304  0.4182
67293SOL    HW2 8995  12.151   7.087   7.576 -0.5574 -1.3189 -0.6274
67294SOL     OW 8996   6.210   7.812  12.351  0.3277  0.1260 -0.0388
67294SOL    HW1 8997   6.158   7.741  12.389  0.8117 -0.5526 -0.6159
67294SOL    HW2 8998   6.273   7.767  12.293  2.2839  0.7823  1.4484
67295SOL     OW 8999  11.205   3.705   5.224  0.5836  0.1646 -0.1314
67295SOL    HW1 9000  11.190   3.795   5.253 -0.3178  0.3109 -0.9740
67295SOL    HW2 9001  11.218   3.655   5.305 -1.6727  0.5838  0.5637
67296SOL     OW 9002   5.781   8.640   3.547  0.2959 -0.2115  0.7108
67296SOL    HW1 9003   5.800   8.716   3.492 -0.3596  0.6202  1.5930
67296SOL    HW2 9004   5.863   8.622   3.593  0.3032  0.3331  0.9211
67297SOL     OW 9005   1.575   0.623  10.295  0.0712 -0.0751  0.1125
67297SOL    HW1 9006   1.594   0.562  10.368 -0.0683  0.8506  0.9392
67297SOL    HW2 9007   1.655   0.674  10.286 -0.0941  0.1549 -0.0470
67298SOL     OW 9008  12.377   5.292   5.940 -0.4257 -0.6975  0.3204
67298SOL    HW1 9009  12.427   5.350   5.997  0.0088 -0.7420 -0.0139
67298SOL    HW2 9010  12.305   5.346   5.907 -0.6899 -0.6728  0.9107
67299SOL     OW 9011   0.156   5.544   5.725 -0.2479  0.1424 -0.1052
67299SOL    HW1 9012   0.242   5.519   5.759 -0.7709  0.1697  1.2961
67299SOL    HW2 9013   0.132   5.472   5.666  0.5448 -0.0760 -0.1713
67300SOL     OW 9014   4.091   3.557   0.387 -0.3304 -0.3583 -0.1051
67300SOL    HW1 9015   4.178   3.519   0.384 -0.1777  0.0079 -0.3981
67300SOL    HW2 9016   4.042   3.502   0.449  0.0451 -0.6870 -0.1024
67301SOL     OW 9017   1.361   7.594   1.191  0.5431  0.8096 -0.6998
67301SOL    HW1 9018   1.439   7.603   1.137  0.4801  0.4977 -0.8468
67301SOL    HW2 9019   1.307   7.529   1.145  0.6194  0.3224 -0.1237
67302SOL     OW 9020   8.499   8.038   1.313 -0.0997  0.2263  0.2174
67302SOL    HW1 9021   8.508   8.006   1.403 -0.4563  1.1936  0.6015
67302SOL    HW2 9022   8.573   8.098   1.301 -0.1695  0.2552 -0.0796
67303SOL     OW 9023   2.259   4.916   4.255 -0.2779 -0.3403  0.1334
67303SOL    HW1 9024   2.318   4.841   4.257  2.1732  1.4289 -0.6409
67303SOL    HW2 9025   2.219   4.914   4.168 -0.1114 -0.6656  0.0645
67304SOL     OW 9026  12.723   3.970   1.577 -0.1973  0.1639  0.7979
67304SOL    HW1 9027  12.755   3.983   1.488 -0.3805 -0.3008  0.6608
67304SOL    HW2 9028  12.768   3.891   1.607 -0.4289  0.0983  0.9766
67305SOL     OW 9029   8.131   5.997   1.895  0.6948 -0.2089  0.0710
67305SOL    HW1 9030   8.043   6.031   1.878  0.7589  0.4133  0.9074
67305SOL    HW2 9031   8.156   6.037   1.978  1.2048 -1.4817  0.5550
67306SOL     OW 9032  12.143   1.559   8.128  0.4452  0.4275 -0.0436
67306SOL    HW1 9033  12.090   1.608   8.064 -0.0286  0.7428  0.5833
67306SOL    HW2 9034  12.233   1.571   8.098  0.2165  0.4012 -0.7741
67307SOL     OW 9035   8.138   3.063   9.605 -0.2030 -0.0813 -0.2527
67307SOL    HW1 9036   8.198   3.022   9.543 -0.0074 -0.4754  0.1922
67307SOL    HW2 9037   8.078   2.993   9.630  1.2538 -0.6705  1.9324
67308SOL     OW 9038   1.369   4.226   3.660  0.3094 -0.1260 -0.1164
67308SOL    HW1 9039   1.414   4.145   3.684  2.8694  1.3113  0.3802
67308SOL    HW2 9040   1.283   4.219   3.701  0.1029 -2.9023 -0.7915
67309SOL     OW 9041   3.085   2.763   0.108  0.7394  0.1953 -0.2714
67309SOL    HW1 9042   3.163   2.763   0.164 -0.6646  2.5418  1.9283
67309SOL    HW2 9043   3.079   2.854   0.077 -1.6342  0.3755  0.5151
67310SOL     OW 9044   8.656   9.947   7.914  0.1199  0.4073  0.6691
67310SOL    HW1 9045   8.574   9.958   7.963  0.2959  0.9235  0.8624
67310SOL    HW2 9046   8.628   9.925   7.825 -0.2207  0.1879  0.8291
67311SOL     OW 9047   5.579   5.385   8.712  0.2452  0.1284  0.3150
67311SOL    HW1 9048   5.552   5.476   8.697 -1.3722  0.0195  2.0617
67311SOL    HW2 9049   5.673   5.390   8.727  0.8031  1.0240 -2.7911
67312SOL     OW 9050   6.945   8.842   9.484 -0.0005  0.1565 -0.4564
67312SOL    HW1 9051   7.039   8.858   9.493  0.0862 -0.6767  0.2892
67312SOL    HW2 9052   6.939   8.753   9.450 -0.5131  0.5105 -1.3171
67313SOL     OW 9053   1.486   6.866   0.793  0.2703  0.6725  0.0374
67313SOL    HW1 9054   1.406   6.895   0.837 -0.8627 -0.8001 -0.9670
67313SOL    HW2 9055   1.542   6.943   0.794  0.1645  0.9043  3.5805
67314SOL     OW 9056   2.880   7.283   1.066  0.0388 -0.6018  0.0079
67314SOL    HW1 9057   2.882   7.268   0.971  1.2632  1.2300 -0.3258
67314SOL    HW2 9058   2.934   7.213   1.102 -1.0286 -1.7445 -0.5462
67315SOL     OW 9059  12.369  10.484   9.860  0.1794  0.0028  0.5181
67315SOL    HW1 9060  12.328  10.416   9.915 -0.4353  0.5072  0.6919
67315SOL    HW2 9061  12.295  10.529   9.819  0.4609  1.7911  1.8590
67316SOL     OW 9062   3.821   6.383   2.551  0.4867  0.1753  0.5242
67316SOL    HW1 9063   3.751   6.319   2.564  1.4821 -0.9363  0.6579
67316SOL    HW2 9064   3.779   6.458   2.509 -0.4323 -1.2347 -1.1935
67317SOL     OW 9065   1.629   5.891   3.561 -0.2372 -0.0317 -0.2518
67317SOL    HW1 9066   1.666   5.897   3.473 -1.7471 -0.7829 -0.9683
67317SOL    HW2 9067   1.570   5.816   3.557 -0.7359  0.2536  1.2546
67318SOL     OW 9068  10.636   2.578   4.772 -0.1629  0.0603 -0.2040
67318SOL    HW1 9069  10.580   2.516   4.726  0.2423 -1.6130  1.4007
67318SOL    HW2 9070  10.723   2.537   4.770 -0.1873 -0.2763  2.1950
67319SOL     OW 9071   1.039   8.497  12.954 -0.0224  0.5242 -0.5205
67319SOL    HW1 9072   0.953   8.461  12.974 -0.0463  1.2934  0.8693
67319SOL    HW2 9073   1.082   8.430  12.901 -0.9513 -0.4803 -0.0306
67320SOL     OW 9074  10.853  11.335   1.236 -0.1955  0.2314 -0.0166
67320SOL    HW1 9075  10.807  11.401   1.184 -2.8840 -0.9072  0.7457
67320SOL    HW2 9076  10.869  11.264   1.175  0.9053  0.7683 -0.3667
67321SOL     OW 9077  12.083   8.576   6.567 -0.1669 -0.2698 -0.0404
67321SOL    HW1 9078  12.043   8.639   6.507 -0.6144  0.8593  1.3716
67321SOL    HW2 9079  12.063   8.490   6.529 -0.2065  0.4080 -1.6102
67322SOL     OW 9080   1.044   1.496   2.698 -0.0259  0.4242 -0.1895
67322SOL    HW1 9081   1.105   1.553   2.651  1.5587 -0.6074  0.5496
67322SOL    HW2 9082   0.997   1.449   2.629  0.0265  1.2059 -0.7685
67323SOL     OW 9083   5.738   4.111   3.371 -0.6541 -0.0364 -0.5481
67323SOL    HW1 9084   5.812   4.170   3.378  1.2167 -2.4274  2.3738
67323SOL    HW2 9085   5.740   4.080   3.280  1.5331  0.4519 -0.7087
67324SOL     OW 9086   5.995   2.686   2.157 -0.2706  0.6993  0.6929
67324SOL    HW1 9087   6.018   2.669   2.065 -0.5533  1.1027  0.5430
67324SOL    HW2 9088   5.901   2.670   2.161 -0.3373  1.1184  0.8079
67325SOL     OW 9089   4.719   7.316   2.487  0.4509 -0.4808 -0.6410
67325SOL    HW1 9090   4.667   7.264   2.548  1.0330 -1.3266 -0.8477
67325SOL    HW2 9091   4.658   7.381   2.453 -0.7440 -1.9931 -1.5456
67326SOL     OW 9092   0.749   3.532  12.344 -0.2335  0.5432  0.6430
67326SOL    HW1 9093   0.751   3.440  12.318 -1.7944  0.3859  0.9926
67326SOL    HW2 9094   0.812   3.539  12.416  1.1668  0.1455 -0.4893
67327SOL     OW 9095   1.747   0.731   1.112  0.8451 -0.0097  0.0757
67327SOL    HW1 9096   1.833   0.713   1.075  0.6811  0.8532 -0.7681
67327SOL    HW2 9097   1.686   0.684   1.055  0.8110 -1.6447  1.3926
67328SOL     OW 9098   8.149   7.652   4.105 -0.4418  0.5434 -0.5383
67328SOL    HW1 9099   8.100   7.650   4.187 -0.7623 -0.1831 -0.7380
67328SOL    HW2 9100   8.083   7.642   4.037 -0.0058 -0.8404 -0.7980
67329SOL     OW 9101  11.129   3.716  11.822 -0.4927  0.6684  0.2662
67329SOL    HW1 9102  11.050   3.663  11.808 -0.4294  1.0404 -1.9134
67329SOL    HW2 9103  11.110   3.799  11.779  0.4388  1.4250  1.2655
67330SOL     OW 9104   0.891   9.425  10.244 -0.0214 -0.1656 -0.4294
67330SOL    HW1 9105   0.972   9.459  10.281 -0.7929  0.6129  0.6051
67330SOL    HW2 9106   0.896   9.330  10.260  0.0992  0.0377  0.8274
67331SOL     OW 9107  11.098   4.015   6.397  0.0897 -0.0710  0.5577
67331SOL    HW1 9108  11.159   4.032   6.469 -0.0674 -2.3684  1.2957
67331SOL    HW2 9109  11.052   3.935   6.422  0.1409 -1.0598 -2.1583
67332SOL     OW 9110   1.554   0.405   5.004  0.4352 -0.1849  0.9245
67332SOL    HW1 9111   1.550   0.351   4.925 -2.3298  0.2044  0.6975
67332SOL    HW2 9112   1.616   0.359   5.061 -0.4331 -2.6276  0.0366
67333SOL     OW 9113   5.277   7.821   6.137  0.1429 -0.0739  0.3284
67333SOL    HW1 9114   5.317   7.874   6.206 -1.9331  0.1695  1.4204
67333SOL    HW2 9115   5.221   7.882   6.090  0.0464 -0.6708 -0.3452
67334SOL     OW 9116   6.157   9.823  12.627 -0.3179  0.1241 -0.2666
67334SOL    HW1 9117   6.145   9.845  12.535 -1.0161  0.8939  0.0030
67334SOL    HW2 9118   6.205   9.740  12.626  3.2588  1.9635 -1.3519
67335SOL     OW 9119   0.880  12.326   9.756  0.2715  0.1542 -0.0428
67335SOL    HW1 9120   0.895  12.391   9.688 -1.8599 -0.2925 -1.0228
67335SOL    HW2 9121   0.932  12.356   9.830  1.0052  1.7914 -1.1686
67336SOL     OW 9122   2.945  11.750   1.131  0.5756  0.2517 -0.0037
67336SOL    HW1 9123   2.987  11.826   1.091 -0.1617  1.6078  1.6973
67336SOL    HW2 9124   2.982  11.746   1.219 -0.8603 -0.1667  0.6033
67337SOL     OW 9125  11.368   5.772   6.541  0.4333 -0.0425 -0.1797
67337SOL    HW1 9126  11.342   5.860   6.514  1.0971  0.1299 -0.2578
67337SOL    HW2 9127  11.414   5.736   6.465  2.7665  0.6299  0.8331
67338SOL     OW 9128   2.793   5.861  12.082 -0.2836  0.2665  0.4068
67338SOL    HW1 9129   2.717   5.853  12.140 -0.7055  0.5782 -0.0972
67338SOL    HW2 9130   2.868   5.844  12.139 -0.8213 -2.3734  0.4492
67339SOL     OW 9131   3.359   3.527   3.389 -0.0672  0.1835 -0.4940
67339SOL    HW1 9132   3.373   3.512   3.295  0.7834  1.0589 -0.5304
67339SOL    HW2 9133   3.349   3.622   3.395  0.0065  0.1406  0.3184
67340SOL     OW 9134   4.286   4.115   8.741  0.8139 -0.1566 -0.3313
67340SOL    HW1 9135   4.206   4.163   8.761  0.3186 -0.3796 -1.6705
67340SOL    HW2 9136   4.335   4.172   8.683  1.7000  0.0207  0.5618
67341SOL     OW 9137   0.557  11.524  11.298 -1.0016  0.2816 -0.1212
67341SOL    HW1 9138   0.635  11.547  11.248 -1.5595 -0.5436 -1.4229
67341SOL    HW2 9139   0.534  11.604  11.344  1.4260  0.1805  1.4902
67342SOL     OW 9140   0.314   3.611   0.046  0.7371  0.7171  0.1464
67342SOL    HW1 9141   0.272   3.601   0.132 -2.3268  1.0474 -1.1686
67342SOL    HW2 9142   0.338   3.522   0.021  1.3837  0.5784  1.2009
67343SOL     OW 9143   3.024   3.146   2.584 -0.0981  0.0178 -0.1417
67343SOL    HW1 9144   3.118   3.162   2.575 -0.1199 -0.0267 -0.4424
67343SOL    HW2 9145   2.987   3.169   2.499 -0.2254 -0.9280 -0.3514
67344SOL     OW 9146   3.436   2.565  10.174  0.2503  0.1424 -0.0156
67344SOL    HW1 9147   3.357   2.587  10.126 -0.8837  0.7201  2.0013
67344SOL    HW2 9148   3.476   2.494  10.124 -1.4114 -0.0017 -1.1998
67345SOL     OW 9149  10.302  10.127   2.221  0.3664 -0.2462  0.6063
67345SOL    HW1 9150  10.253  10.058   2.266  1.2139 -0.2415  1.5716
67345SOL    HW2 9151  10.300  10.101   2.129 -0.6284 -0.7396  0.7455
67346SOL     OW 9152   8.928  12.624  11.604  0.1671  0.5650  0.6809
67346SOL    HW1 9153   8.925  12.631  11.699  0.0322 -0.6892  0.7915
67346SOL    HW2 9154   9.000  12.563  11.587  0.9381  1.6467 -0.0920
67347SOL     OW 9155   7.137   5.329   3.702 -0.1873  0.0244 -0.0156
67347SOL    HW1 9156   7.122   5.382   3.624  0.1153 -0.4541 -0.4090
67347SOL    HW2 9157   7.050   5.317   3.740 -0.3692  0.0818 -0.4057
67348SOL     OW 9158   0.751   2.318   9.809  0.1532 -0.4920 -0.1122
67348SOL    HW1 9159   0.834   2.304   9.854  0.4201 -1.7521 -0.9574
67348SOL    HW2 9160   0.687   2.268   9.861 -0.0455  0.2475  0.3757
67349SOL     OW 9161   8.208   0.304   6.420  0.2103 -0.2413 -0.1386
67349SOL    HW1 9162   8.261   0.325   6.343 -1.2358  2.0604 -0.5936
67349SOL    HW2 9163   8.248   0.355   6.491  0.3270 -0.7798  0.1899
67350SOL     OW 9164  12.254   5.932   9.249 -0.1767 -0.5469 -0.2852
67350SOL    HW1 9165  12.319   5.924   9.179 -1.4925 -2.8243 -1.3664
67350SOL    HW2 9166  12.183   5.984   9.209 -0.4898 -0.9879 -0.3094
67351SOL     OW 9167   7.741   3.421  10.687  0.0211 -0.0481 -0.8992
67351SOL    HW1 9168   7.805   3.406  10.757  1.5101  1.5352 -1.8360
67351SOL    HW2 9169   7.656   3.418  10.731  0.9223  1.4962  1.1078
67352SOL     OW 9170   1.615   5.255   3.725  0.1399  0.5730  0.5214
67352SOL    HW1 9171   1.654   5.319   3.783 -0.6077  3.9290 -2.3491
67352SOL    HW2 9172   1.683   5.235   3.661 -0.6976  1.3391 -0.6536
67353SOL     OW 9173   9.968   5.389   4.624  0.0793  0.1409 -0.4526
67353SOL    HW1 9174   9.889   5.418   4.670 -0.4647 -1.3197 -0.4157
67353SOL    HW2 9175   9.935   5.337   4.551  1.0099 -0.0191 -0.7611
67354SOL     OW 9176  11.745  10.235   7.380 -0.2957  0.3202  0.3537
67354SOL    HW1 9177  11.788  10.301   7.327 -0.5477  0.5810  0.4682
67354SOL    HW2 9178  11.666  10.212   7.330  0.2319 -0.5389 -0.1130
67355SOL     OW 9179   7.327   7.058   6.496 -0.5837  0.0175  0.8077
67355SOL    HW1 9180   7.294   6.995   6.433  1.7711 -0.2133 -0.2908
67355SOL    HW2 9181   7.265   7.131   6.492 -1.3078 -0.6414 -0.6281
67356SOL     OW 9182  10.171   2.429   9.407  0.1208  0.6645  0.1814
67356SOL    HW1 9183  10.186   2.415   9.501 -0.2597 -0.5285  0.0768
67356SOL    HW2 9184  10.095   2.487   9.403  2.2834  3.8254  0.6428
67357SOL     OW 9185   1.030  10.132   0.628  0.1395 -0.6464  0.4091
67357SOL    HW1 9186   0.946  10.126   0.583 -0.2794 -0.7550  1.1897
67357SOL    HW2 9187   1.089  10.078   0.576  0.3465  1.2642 -1.4895
67358SOL     OW 9188   5.850   9.537  11.423 -0.1388  0.1149  0.4094
67358SOL    HW1 9189   5.785   9.470  11.445 -1.3227  1.0340 -0.1276
67358SOL    HW2 9190   5.863   9.586  11.505  1.2854 -1.1802  0.9988
67359SOL     OW 9191   6.964   4.738   8.598 -0.2145  0.0605  0.1740
67359SOL    HW1 9192   7.001   4.664   8.550 -0.6073  0.1753 -0.3182
67359SOL    HW2 9193   6.872   4.742   8.570 -0.5194 -0.0170  1.1200
67360SOL     OW 9194   0.664   1.141   1.844 -0.3497 -0.2147 -0.4036
67360SOL    HW1 9195   0.681   1.047   1.845 -0.4418 -0.3733  3.5916
67360SOL    HW2 9196   0.743   1.179   1.805  0.3599 -1.8715 -0.6715
67361SOL     OW 9197  12.378  12.328   5.474 -0.2551  0.4638 -0.1720
67361SOL    HW1 9198  12.341  12.382   5.544 -0.5185  1.2766 -0.9226
67361SOL    HW2 9199  12.320  12.251   5.471 -1.2060  1.1678 -0.5367
67362SOL     OW 9200  12.530   1.734   9.476 -0.1368  0.4791 -0.4309
67362SOL    HW1 9201  12.565   1.692   9.397  2.4565  0.5924  0.5613
67362SOL    HW2 9202  12.606   1.772   9.518 -1.8413  2.7382  0.8015
67363SOL     OW 9203  10.863   7.111   4.980 -0.2700 -0.4219 -0.1309
67363SOL    HW1 9204  10.831   7.038   4.927 -0.2078 -1.2131  0.8976
67363SOL    HW2 9205  10.882   7.073   5.066 -1.3333  1.0219  0.7934
67364SOL     OW 9206  11.311   8.726   5.811 -0.3878 -0.5196 -0.3555
67364SOL    HW1 9207  11.361   8.757   5.735 -0.8026 -0.2484 -0.5215
67364SOL    HW2 9208  11.231   8.777   5.809 -1.2078 -1.7895 -0.7698
67365SOL     OW 9209   3.583   5.628   1.168  0.2273  0.0620  0.2084
67365SOL    HW1 9210   3.666   5.666   1.139 -0.1277 -0.0387 -0.9708
67365SOL    HW2 9211   3.516   5.686   1.132 -0.2490 -0.5772  0.0555
67366SOL     OW 9212   7.727   5.827   2.323  0.1115 -0.2695 -0.2440
67366SOL    HW1 9213   7.722   5.763   2.252 -0.4584 -1.9357  1.2194
67366SOL    HW2 9214   7.637   5.832   2.356 -0.6310  3.7259 -2.2581
67367SOL     OW 9215   5.967   4.776   3.667 -0.0878  0.0556 -0.4156
67367SOL    HW1 9216   5.933   4.762   3.756  2.1548 -1.1616  0.3174
67367SOL    HW2 9217   6.022   4.700   3.650  1.2972  1.3369 -2.0043
67368SOL     OW 9218   0.525   1.557   6.921  0.8310  0.0067  0.2187
67368SOL    HW1 9219   0.608   1.511   6.934  0.9495  0.3316  0.6286
67368SOL    HW2 9220   0.551   1.647   6.900  0.6290 -0.2834 -1.4042
67369SOL     OW 9221  10.918   9.301   2.477 -0.1588 -0.0985  0.5360
67369SOL    HW1 9222  10.828   9.277   2.458 -0.6203  1.1923  0.9477
67369SOL    HW2 9223  10.963   9.296   2.392 -0.5834 -0.8435  0.3494
67370SOL     OW 9224  12.060   7.916   7.305  0.7312 -0.1084  0.5780
67370SOL    HW1 9225  12.127   7.971   7.264 -0.2381  0.5527 -0.1554
67370SOL    HW2 9226  11.998   7.897   7.235  0.8340 -1.8508  0.9011
67371SOL     OW 9227   3.156   8.379   5.139  0.2811  0.1989  0.2214
67371SOL    HW1 9228   3.196   8.300   5.104  0.3047 -0.4529  1.6520
67371SOL    HW2 9229   3.204   8.396   5.220  0.1955  1.6193  0.0025
67372SOL     OW 9230   4.163   9.605   5.258  0.7504 -0.6383  0.4009
67372SOL    HW1 9231   4.103   9.574   5.191 -0.0925  1.5244  0.0536
67372SOL    HW2 9232   4.200   9.526   5.297  0.4209 -1.9697 -1.8323
67373SOL     OW 9233   9.359   0.161  11.881 -0.6320 -0.1769  0.2178
67373SOL    HW1 9234   9.276   0.117  11.898 -0.2701 -0.5745  1.0224
67373SOL    HW2 9235   9.335   0.238  11.830 -1.1313 -2.1281 -2.7802
67374SOL     OW 9236   9.606   1.834   2.544  0.0088 -0.5180  0.1723
67374SOL    HW1 9237   9.550   1.835   2.622  0.4292 -0.2686  0.4739
67374SOL    HW2 9238   9.683   1.784   2.570  0.8023  0.7703  0.3780
67375SOL     OW 9239   0.532   4.773   5.369 -0.3799  0.0503  0.3074
67375SOL    HW1 9240   0.550   4.723   5.289  0.1432  1.1875 -0.3220
67375SOL    HW2 9241   0.506   4.708   5.433  0.1370 -1.0020 -0.5181
67376SOL     OW 9242   0.581   1.842  10.643 -0.3178  0.3362  0.1203
67376SOL    HW1 9243   0.563   1.909  10.709 -2.6103  0.1511 -0.2430
67376SOL    HW2 9244   0.623   1.771  10.692 -0.5677  0.8284  1.0779
67377SOL     OW 9245   5.938   3.843   6.068  0.1303  0.3727 -0.2042
67377SOL    HW1 9246   5.934   3.879   5.979  0.3745  1.7727  0.3200
67377SOL    HW2 9247   6.004   3.897   6.112  0.1554 -0.4372  0.7802
67378SOL     OW 9248   9.344   4.012   4.242 -0.3380 -0.1888 -0.2463
67378SOL    HW1 9249   9.338   4.043   4.332 -0.9947  0.2009 -0.4179
67378SOL    HW2 9250   9.344   4.092   4.189 -1.3656 -0.4457 -0.6563
67379SOL     OW 9251   3.647   3.960   1.238 -0.0604  0.2651 -0.9340
67379SOL    HW1 9252   3.569   3.964   1.182  0.0392  1.5662 -1.0220
67379SOL    HW2 9253   3.625   4.015   1.313  0.1697 -0.6969 -0.1351
67380SOL     OW 9254   2.489   8.406   1.056  0.6135  0.2452  0.0285
67380SOL    HW1 9255   2.522   8.332   1.107  1.3867  1.6222  1.6291
67380SOL    HW2 9256   2.417   8.441   1.109 -0.5224 -0.0355 -1.2795
67381SOL     OW 9257   0.840   5.990   5.144 -0.7236  0.4813 -0.6400
67381SOL    HW1 9258   0.748   6.002   5.166 -1.0870 -4.2959  1.8000
67381SOL    HW2 9259   0.840   5.916   5.083  1.4717 -1.1933  1.2255
67382SOL     OW 9260   5.971   1.762   4.638 -0.1329  0.0181  0.3551
67382SOL    HW1 9261   5.911   1.721   4.700 -2.8356  2.1152 -0.6978
67382SOL    HW2 9262   5.915   1.809   4.577  2.5776  2.8410 -0.2474
67383SOL     OW 9263   1.836   1.783   4.007 -0.2690  0.8310 -0.1381
67383SOL    HW1 9264   1.856   1.877   4.005  0.2129  0.7228 -0.4467
67383SOL    HW2 9265   1.896   1.744   3.944 -1.4032  0.4851 -1.0422
67384SOL     OW 9266   8.372   8.084   5.973  0.1868 -0.4723 -0.5061
67384SOL    HW1 9267   8.297   8.097   5.914  0.4001  1.1658 -0.4792
67384SOL    HW2 9268   8.333   8.052   6.054 -0.6770  1.4262 -0.1153
67385SOL     OW 9269   0.655   6.852   9.660  0.6090  0.0921  0.2305
67385SOL    HW1 9270   0.726   6.913   9.684  1.0364 -0.8339  1.4713
67385SOL    HW2 9271   0.699   6.767   9.653 -0.1784 -0.2788 -0.2615
67386SOL     OW 9272   9.996   7.651   1.889 -0.0820  0.0114 -0.4082
67386SOL    HW1 9273   9.950   7.684   1.812  0.2758 -0.6188 -0.9122
67386SOL    HW2 9274  10.088   7.670   1.871  0.0005 -0.1137 -0.1217
67387SOL     OW 9275  12.411   4.137  12.491  0.3590  0.4837 -0.7464
67387SOL    HW1 9276  12.414   4.206  12.425 -0.2342  1.1611 -0.0794
67387SOL    HW2 9277  12.502   4.120  12.513  0.6171 -0.2179 -2.2003
67388SOL     OW 9278   8.743   0.567  10.617 -0.0190  0.1045  0.0921
67388SOL    HW1 9279   8.816   0.512  10.587  0.6242  0.5810  0.7436
67388SOL    HW2 9280   8.712   0.611  10.538 -0.0643 -0.6444 -0.3127
67389SOL     OW 9281   3.874   5.994   5.772  0.2056 -0.5640  0.1035
67389SOL    HW1 9282   3.879   5.947   5.689 -0.2038 -0.4366  0.0063
67389SOL    HW2 9283   3.953   5.968   5.819 -1.3231 -3.6047  1.2436
67390SOL     OW 9284   1.962  12.767   8.469  0.1986 -0.0260  0.3103
67390SOL    HW1 9285   2.020  12.821   8.414 -0.2292 -0.1012 -0.2188
67390SOL    HW2 9286   1.876  12.774   8.427  0.0731 -0.8686  0.4246
67391SOL     OW 9287   6.489  11.830   4.345  0.1780 -0.3875  0.0113
67391SOL    HW1 9288   6.497  11.881   4.426  0.5988  1.2586 -1.0174
67391SOL    HW2 9289   6.529  11.885   4.278 -1.5792 -0.9931 -1.6241
67392SOL     OW 9290   8.770   0.831   5.340 -0.0015 -0.0745 -0.2869
67392SOL    HW1 9291   8.835   0.888   5.379 -0.5938  1.4418 -1.4216
67392SOL    HW2 9292   8.782   0.842   5.246 -2.5628  1.1178 -0.5671
67393SOL     OW 9293   1.221   5.907   6.143 -0.1395  0.4744  0.2645
67393SOL    HW1 9294   1.280   5.847   6.188 -0.2001  1.5584  1.8663
67393SOL    HW2 9295   1.276   5.982   6.120 -0.6348  1.0314  0.8377
67394SOL     OW 9296   7.613   4.919   1.586 -0.3556 -0.6355  0.1946
67394SOL    HW1 9297   7.675   4.963   1.527 -0.4458 -0.7137  0.0419
67394SOL    HW2 9298   7.658   4.918   1.670  0.9861 -3.0717 -0.4723
67395SOL     OW 9299   7.677   1.122   1.502 -0.4879  0.4481 -0.1817
67395SOL    HW1 9300   7.743   1.096   1.565  0.4912  1.9908 -0.5238
67395SOL    HW2 9301   7.614   1.173   1.553 -1.3975 -0.9144  0.1187
67396SOL     OW 9302   9.586   6.822   1.449  0.5771 -0.0932  0.3443
67396SOL    HW1 9303   9.597   6.871   1.367 -0.1944  1.0198  0.8826
67396SOL    HW2 9304   9.638   6.742   1.436  0.2830 -0.0609 -1.3248
67397SOL     OW 9305  12.208   2.876   0.037  0.0877  0.2679  0.0373
67397SOL    HW1 9306  12.187   2.928   0.114  1.7269  0.2143  0.5689
67397SOL    HW2 9307  12.301   2.892   0.022  0.4643 -1.8289 -0.2752
67398SOL     OW 9308   7.257   6.771   2.360 -0.5829  0.0768  0.1398
67398SOL    HW1 9309   7.171   6.791   2.325 -0.0165  1.8559 -0.3633
67398SOL    HW2 9310   7.266   6.829   2.436 -0.3214 -1.0249  0.9783
67399SOL     OW 9311   0.278   5.525   6.720 -0.3134 -0.0688 -0.2229
67399SOL    HW1 9312   0.360   5.514   6.672 -0.8902  1.8563 -1.7308
67399SOL    HW2 9313   0.301   5.582   6.793  0.4125 -2.4679  1.5837
67400SOL     OW 9314   7.068   1.953   2.708 -0.4194  0.5299 -0.2310
67400SOL    HW1 9315   7.163   1.948   2.695 -0.3656 -1.3421  0.5109
67400SOL    HW2 9316   7.058   1.994   2.794 -0.1445 -1.3967  0.7734
67401SOL     OW 9317  11.651   7.459   5.236 -0.3445  0.3527  0.2598
67401SOL    HW1 9318  11.673   7.367   5.252  0.9090  0.4469 -0.7854
67401SOL    HW2 9319  11.709   7.486   5.165 -0.7954  1.9187  0.4443
67402SOL     OW 9320  11.625   3.147   8.923 -0.3931  0.3442 -0.3873
67402SOL    HW1 9321  11.654   3.125   8.834  0.0709 -0.8672  0.0509
67402SOL    HW2 9322  11.706   3.147   8.975 -0.8287 -0.2885  0.3012
67403SOL     OW 9323   4.215   2.623   1.823 -0.1152 -0.3088  0.1174
67403SOL    HW1 9324   4.240   2.597   1.912  0.8213 -0.5379 -0.2052
67403SOL    HW2 9325   4.122   2.601   1.818  0.0591 -1.2591  0.6986
67404SOL     OW 9326   9.040   1.543   6.507 -0.3318 -0.2563  0.3494
67404SOL    HW1 9327   9.110   1.488   6.472 -0.6469 -0.8418  0.6213
67404SOL    HW2 9328   9.049   1.626   6.459 -0.3195 -0.7950 -0.6094
67405SOL     OW 9329   9.693   0.167   1.265 -0.0211  0.0251  0.1824
67405SOL    HW1 9330   9.708   0.261   1.274  0.4305 -0.1803  2.0721
67405SOL    HW2 9331   9.644   0.143   1.344  0.8676 -1.5012  0.3179
67406SOL     OW 9332   3.063   5.608   9.264  0.3746 -0.5155 -0.7438
67406SOL    HW1 9333   3.051   5.691   9.309 -2.3337  0.2066 -2.5569
67406SOL    HW2 9334   3.144   5.619   9.214  0.0579  1.0458 -0.9561
67407SOL     OW 9335  12.795   7.604   6.578  0.3264  0.3201  0.3154
67407SOL    HW1 9336  12.784   7.510   6.593 -0.3387  0.6470  2.2547
67407SOL    HW2 9337  12.720   7.629   6.525  0.7077 -0.2969 -0.5341
67408SOL     OW 9338   3.183   9.503   2.880  0.6509  0.6305  0.0909
67408SOL    HW1 9339   3.157   9.575   2.822  0.7801  0.1014 -0.6312
67408SOL    HW2 9340   3.117   9.435   2.865  0.5966  0.5501  0.6803
67409SOL     OW 9341   1.536   2.081  11.287 -0.2898 -0.3379 -0.5114
67409SOL    HW1 9342   1.589   2.017  11.335  0.8124 -0.2955 -1.6081
67409SOL    HW2 9343   1.475   2.116  11.352  0.8222 -0.6257  0.7274
67410SOL     OW 9344   9.157   1.556   9.081  0.0228  0.1910  0.2166
67410SOL    HW1 9345   9.075   1.506   9.091  0.2182 -0.4045 -0.9810
67410SOL    HW2 9346   9.139   1.615   9.008  0.9650 -0.6214 -0.7006
67411SOL     OW 9347   0.519   7.777   4.279 -0.1905  0.2327  0.0560
67411SOL    HW1 9348   0.521   7.693   4.325 -0.7575  0.3333  0.2704
67411SOL    HW2 9349   0.607   7.814   4.293  0.9600 -1.4095 -2.1041
67412SOL     OW 9350   0.282   0.800   9.887 -0.6863 -0.1611  0.2512
67412SOL    HW1 9351   0.353   0.850   9.927 -2.0439  1.1254  1.1392
67412SOL    HW2 9352   0.202   0.847   9.910 -1.6801  0.1557 -3.2062
67413SOL     OW 9353   9.675  12.962  11.472  0.1056  0.1602  0.0419
67413SOL    HW1 9354   9.608  12.932  11.534 -0.9482 -0.7443 -1.4562
67413SOL    HW2 9355   9.660  13.056  11.464  0.7987  0.4580  1.7358
67414SOL     OW 9356   0.394   5.671   2.917  0.2195 -0.4276 -0.5194
67414SOL    HW1 9357   0.334   5.709   2.981  0.2526 -1.5002  0.1865
67414SOL    HW2 9358   0.470   5.646   2.969  0.6153 -0.5242 -1.1398
67415SOL     OW 9359   4.687  11.077   9.271 -0.2628 -0.3632 -0.9939
67415SOL    HW1 9360   4.642  10.992   9.274  0.2008 -0.5987  1.8710
67415SOL    HW2 9361   4.774  11.058   9.237 -0.0436 -1.1098 -0.0271
67416SOL     OW 9362   2.076  12.841   5.254 -0.6598 -0.2307  0.5323
67416SOL    HW1 9363   2.120  12.775   5.309  0.5766  0.0155 -0.1335
67416SOL    HW2 9364   2.126  12.921   5.268 -1.6818  0.4006  0.7235
67417SOL     OW 9365   7.647  12.318  12.471 -0.4489 -0.4592  0.1063
67417SOL    HW1 9366   7.671  12.240  12.422 -0.9641 -0.4355 -0.1877
67417SOL    HW2 9367   7.721  12.378  12.459  0.0990 -1.0151  0.6028
67418SOL     OW 9368   6.540   4.839   9.250 -0.7423  0.1638  0.3404
67418SOL    HW1 9369   6.526   4.747   9.273  0.0137  0.2757  1.3384
67418SOL    HW2 9370   6.470   4.860   9.188 -1.6105 -0.7671  0.9776
67419SOL     OW 9371  12.872   2.556   9.496 -0.3171  0.1964  0.1433
67419SOL    HW1 9372  12.849   2.648   9.504  0.8270  0.3232  4.2986
67419SOL    HW2 9373  12.798   2.509   9.535 -0.1791 -0.5440 -0.4596
67420SOL     OW 9374   8.735  10.764  11.288  0.4395 -0.2862  0.3868
67420SOL    HW1 9375   8.785  10.749  11.368  0.6465 -0.5431  0.2111
67420SOL    HW2 9376   8.777  10.708  11.222 -1.0436 -1.7792  0.6227
67421SOL     OW 9377   2.055   2.699   9.916 -0.6479 -0.0585 -0.0975
67421SOL    HW1 9378   2.140   2.682   9.876 -0.3984  0.5398  0.1883
67421SOL    HW2 9379   2.029   2.614   9.952  1.3030  0.3805  2.6899
67422SOL     OW 9380   1.128  10.494   6.350  0.3918 -0.3932 -0.6563
67422SOL    HW1 9381   1.168  10.441   6.282  0.5556  0.1747 -1.0098
67422SOL    HW2 9382   1.056  10.440   6.384  1.9119 -1.7530  0.5424
67423SOL     OW 9383   1.362   3.914   0.532 -0.2723  0.1712  0.5249
67423SOL    HW1 9384   1.382   3.834   0.580  1.4799 -0.0726 -0.5393
67423SOL    HW2 9385   1.341   3.884   0.443 -1.4685  0.7661  0.5823
67424SOL     OW 9386  10.556  11.718  12.449 -0.0124  0.4332  0.7408
67424SOL    HW1 9387  10.569  11.755  12.536 -0.9791 -0.1157  1.1381
67424SOL    HW2 9388  10.505  11.784  12.402  0.0437  0.5017  0.7770
67425SOL     OW 9389   9.143   7.124   7.470 -0.5038  0.6543  0.4627
67425SOL    HW1 9390   9.201   7.053   7.442 -1.2326  0.1315  0.2458
67425SOL    HW2 9391   9.096   7.150   7.390  0.2123  1.8289  0.4023
67426SOL     OW 9392   6.556   0.748   1.003 -0.2608 -0.3437 -0.0055
67426SOL    HW1 9393   6.555   0.653   1.003  1.5166 -0.3813 -0.5184
67426SOL    HW2 9394   6.572   0.772   1.094  0.4404 -0.5629 -0.0694
67427SOL     OW 9395   4.778   4.664   2.976 -0.1079  0.2224  0.3972
67427SOL    HW1 9396   4.814   4.614   3.049 -0.8446  0.7581  1.1481
67427SOL    HW2 9397   4.818   4.625   2.898  0.1736 -0.8076  1.0319
67428SOL     OW 9398   1.852   0.341   4.436  0.1645  0.2420  0.0337
67428SOL    HW1 9399   1.895   0.307   4.357  0.3836  1.2396 -0.2911
67428SOL    HW2 9400   1.872   0.434   4.435 -0.7175  0.4447  0.7157
67429SOL     OW 9401  11.156  10.787   8.915 -0.2721 -0.0807  0.2773
67429SOL    HW1 9402  11.066  10.820   8.914  0.1480  1.1224  0.3608
67429SOL    HW2 9403  11.159  10.723   8.843 -0.4924  1.8846 -1.5846
67430SOL     OW 9404   1.810   3.675   3.124 -0.3999  0.5984 -0.5311
67430SOL    HW1 9405   1.896   3.633   3.119 -0.2592  0.9165 -0.7878
67430SOL    HW2 9406   1.828   3.767   3.107 -1.0887  0.3448 -2.9952
67431SOL     OW 9407   1.702   4.621  11.171  0.2406 -0.2320  0.0028
67431SOL    HW1 9408   1.729   4.711  11.186  1.0621 -0.1776 -1.6223
67431SOL    HW2 9409   1.780   4.578  11.136 -0.4959 -1.2604 -0.4271
67432SOL     OW 9410   7.158   3.919   8.955  0.0458 -0.0933 -0.2931
67432SOL    HW1 9411   7.178   3.826   8.967 -0.3783  0.0009  1.3771
67432SOL    HW2 9412   7.202   3.943   8.874  2.8789 -0.9758  0.8601
67433SOL     OW 9413   2.881   3.670   6.495 -0.4976  0.4194  0.2027
67433SOL    HW1 9414   2.885   3.650   6.401 -0.0909 -1.1143  0.5223
67433SOL    HW2 9415   2.886   3.766   6.499 -0.3190  0.5029 -1.3218
67434SOL     OW 9416   1.099  12.176   5.592  0.2701 -0.4710 -0.5942
67434SOL    HW1 9417   1.186  12.164   5.631 -0.8204 -2.1028  1.5966
67434SOL    HW2 9418   1.089  12.102   5.533 -0.1008 -1.0093  0.1348
67435SOL     OW 9419   7.649   8.524   6.680  0.1564 -0.4710  0.6516
67435SOL    HW1 9420   7.712   8.583   6.721  0.7788 -0.5195 -0.2077
67435SOL    HW2 9421   7.594   8.581   6.626  0.0006 -0.5256  0.7541
67436SOL     OW 9422   6.829   6.362  11.449 -0.5894  0.1337  0.6467
67436SOL    HW1 9423   6.808   6.281  11.495 -2.1599 -0.0437 -0.3076
67436SOL    HW2 9424   6.774   6.360  11.370 -0.2522  1.8656  0.3177
67437SOL     OW 9425   7.682   2.245   6.761 -0.0517  0.1939  0.1331
67437SOL    HW1 9426   7.588   2.240   6.777 -0.0352 -1.3801 -0.1284
67437SOL    HW2 9427   7.721   2.199   6.836  0.4993  0.5520  0.0714
67438SOL     OW 9428  12.195   9.757  10.778 -0.0355  0.1883  0.3785
67438SOL    HW1 9429  12.104   9.788  10.774  0.7266  2.4523 -1.0496
67438SOL    HW2 9430  12.202   9.696  10.705 -0.5405 -0.4145  0.8245
67439SOL     OW 9431   7.915   2.243   3.503  0.8093  0.5359  0.6312
67439SOL    HW1 9432   7.972   2.166   3.506  0.8042  0.5485  1.2638
67439SOL    HW2 9433   7.903   2.261   3.410  0.9868 -0.0995  0.4812
67440SOL     OW 9434   2.173   2.618   2.217  0.3616 -0.9394  0.0767
67440SOL    HW1 9435   2.210   2.558   2.152  0.4888 -1.4676  0.6288
67440SOL    HW2 9436   2.242   2.627   2.283  0.7332  0.5905 -0.4753
67441SOL     OW 9437   1.525  10.384  10.206  0.5346  0.0205  0.0326
67441SOL    HW1 9438   1.488  10.322  10.268  1.0621 -2.2365 -1.7548
67441SOL    HW2 9439   1.451  10.411  10.151  1.0055 -3.3978 -2.6363
67442SOL     OW 9440  12.640   6.047   6.601  0.0689 -0.1374  0.1397
67442SOL    HW1 9441  12.578   6.029   6.530  0.4488 -0.3251 -0.1480
67442SOL    HW2 9442  12.594   6.018   6.680 -1.6768  2.9918  0.4433
67443SOL     OW 9443  10.640  11.994   9.281  0.1932 -0.2262 -0.1123
67443SOL    HW1 9444  10.645  11.958   9.369 -1.6315 -1.9255 -0.6272
67443SOL    HW2 9445  10.662  12.086   9.291  0.3532 -0.4637  2.0566
67444SOL     OW 9446   6.486  10.274   4.315 -0.3362 -0.6628  0.3222
67444SOL    HW1 9447   6.404  10.229   4.296 -0.4094 -1.0315  1.4521
67444SOL    HW2 9448   6.460  10.354   4.360 -0.1618  0.1922 -1.0212
67445SOL     OW 9449   5.237   0.270   3.304 -0.2006 -0.3478 -0.3567
67445SOL    HW1 9450   5.256   0.364   3.312  2.2211 -0.8569  0.7336
67445SOL    HW2 9451   5.254   0.251   3.211 -0.4053  0.2118 -0.5172
67446SOL     OW 9452   6.460  12.307   0.090 -0.2313 -0.6978  0.3832
67446SOL    HW1 9453   6.474  12.393   0.130  1.5805 -0.7056 -0.1453
67446SOL    HW2 9454   6.365  12.300   0.080 -0.4766  0.7860  1.4083
67447SOL     OW 9455   8.187   3.468   5.651  0.3362 -0.1473  0.2483
67447SOL    HW1 9456   8.253   3.424   5.704 -0.1962  2.6735  3.6263
67447SOL    HW2 9457   8.227   3.552   5.629 -1.3198  0.7618  0.5732
67448SOL     OW 9458   4.461   5.774   1.903  0.1414  0.4545 -0.2843
67448SOL    HW1 9459   4.556   5.763   1.894  0.2320  1.3189 -0.4066
67448SOL    HW2 9460   4.424   5.703   1.850  0.7166  0.8593 -1.2540
67449SOL     OW 9461   0.937   1.666   7.945 -0.0932 -0.4766 -0.5341
67449SOL    HW1 9462   1.030   1.646   7.937  0.1027 -0.0509  0.4472
67449SOL    HW2 9463   0.906   1.608   8.013 -0.1964  0.3995  0.1901
67450SOL     OW 9464   8.820   1.914  12.137  1.2916  0.5662  0.6825
67450SOL    HW1 9465   8.807   1.827  12.099  1.5668 -0.6523  3.2221
67450SOL    HW2 9466   8.803   1.974  12.064  0.8922 -1.5773 -1.0970
67451SOL     OW 9467   9.168   5.119   0.599 -0.0056  0.1744  0.6177
67451SOL    HW1 9468   9.260   5.094   0.595  0.4107  1.5228  1.0248
67451SOL    HW2 9469   9.166   5.210   0.567 -1.0414  0.4751  1.4531
67452SOL     OW 9470   7.016   5.569   4.894 -0.2802 -0.3319  0.0942
67452SOL    HW1 9471   7.056   5.648   4.929  0.2324 -0.1150 -0.9268
67452SOL    HW2 9472   6.923   5.577   4.916 -1.0733  2.6032 -3.3156
67453SOL     OW 9473   6.944   7.939  10.541 -0.5295  0.3988  0.2560
67453SOL    HW1 9474   6.922   7.890  10.461  0.0251 -2.3410  1.6494
67453SOL    HW2 9475   7.025   7.985  10.519 -1.4776  1.3979 -1.3622
67454SOL     OW 9476   4.455   8.192   2.109 -0.9425  0.6490 -0.6252
67454SOL    HW1 9477   4.413   8.236   2.035 -2.4698 -1.3511 -1.0723
67454SOL    HW2 9478   4.476   8.105   2.076 -1.0941 -0.0912  1.0843
67455SOL     OW 9479  11.335   5.863  11.680 -0.1500  0.0830 -0.3414
67455SOL    HW1 9480  11.267   5.800  11.657 -0.0025 -0.1069 -0.2641
67455SOL    HW2 9481  11.288   5.934  11.725 -0.1227 -0.6916  0.9348
67456SOL     OW 9482   2.736   5.935   7.916  0.2330  0.0319 -0.0722
67456SOL    HW1 9483   2.734   5.897   7.828  1.8886  0.2080 -0.2306
67456SOL    HW2 9484   2.698   6.022   7.906  0.3328  0.0168 -0.6025
67457SOL     OW 9485   9.462  10.238  11.129  0.3511  0.0913  0.4259
67457SOL    HW1 9486   9.539  10.289  11.103  1.0638 -0.4609  1.3791
67457SOL    HW2 9487   9.411  10.230  11.048  0.9392  1.0706 -0.0654
67458SOL     OW 9488   7.168   9.185   0.439 -0.9067  1.0865 -0.1433
67458SOL    HW1 9489   7.194   9.277   0.443  0.3414  0.7751 -0.5891
67458SOL    HW2 9490   7.181   9.160   0.348 -1.9115  0.6447 -0.1792
67459SOL     OW 9491   9.784   1.300   1.509 -0.0900 -0.0554 -0.3856
67459SOL    HW1 9492   9.759   1.216   1.546  0.1737  0.2030  0.3912
67459SOL    HW2 9493   9.838   1.341   1.576 -0.5427  0.9048 -0.5979
67460SOL     OW 9494   9.196   9.283   7.831 -0.2251 -0.1565 -0.6620
67460SOL    HW1 9495   9.218   9.352   7.894 -1.1355  2.1258 -2.6896
67460SOL    HW2 9496   9.268   9.282   7.769  1.3073 -3.2833  0.9073
67461SOL     OW 9497  12.077   0.357  12.103 -0.6647  0.0245 -0.2664
67461SOL    HW1 9498  12.154   0.394  12.061 -0.4224 -0.2712 -0.0905
67461SOL    HW2 9499  12.106   0.272  12.136 -1.5624 -0.9978 -1.9102
67462SOL     OW 9500  12.951   5.616   4.009 -0.2825  0.0489 -0.5398
67462SOL    HW1 9501  12.974   5.620   3.916 -2.4098  1.7191 -1.0872
67462SOL    HW2 9502  13.034   5.633   4.055  0.6829 -0.1389 -2.1427
67463SOL     OW 9503  11.312   3.084  10.140 -0.1975 -0.3490  0.3379
67463SOL    HW1 9504  11.357   3.116  10.219  1.2830  1.2964 -1.0916
67463SOL    HW2 9505  11.362   3.007  10.114  0.0994 -0.1458  0.3021
67464SOL     OW 9506   4.350  12.062   3.958 -0.3189 -0.4102 -0.5123
67464SOL    HW1 9507   4.332  12.154   3.977 -1.3921 -0.3507 -1.6984
67464SOL    HW2 9508   4.439  12.048   3.991  0.1131  1.2131 -0.8855
67465SOL     OW 9509   2.422   0.017   8.218 -0.1595  0.1663  0.3722
67465SOL    HW1 9510   2.413   0.112   8.208  1.2268  0.2798 -0.0376
67465SOL    HW2 9511   2.485   0.006   8.289 -1.4013 -0.4913  1.4070
67466SOL     OW 9512   3.198   4.871   4.973 -0.5320  0.1228  0.0776
67466SOL    HW1 9513   3.208   4.949   5.028 -0.4974 -0.4686  0.9206
67466SOL    HW2 9514   3.264   4.810   5.005 -0.2041 -0.0607 -0.9304
67467SOL     OW 9515   5.922  12.654   5.685  0.4264 -0.2289  0.0654
67467SOL    HW1 9516   5.967  12.586   5.736  0.7369 -0.5895 -0.6736
67467SOL    HW2 9517   5.966  12.736   5.710 -0.5673 -0.1526  1.6666
67468SOL     OW 9518   3.975  12.682   2.076 -0.4921  0.4143 -0.3601
67468SOL    HW1 9519   3.925  12.754   2.115  1.4661  0.9760  1.2680
67468SOL    HW2 9520   4.065  12.715   2.070  0.2806 -1.5710 -0.4247
67469SOL     OW 9521   9.504   1.456   6.674  0.8133 -0.6456  0.0408
67469SOL    HW1 9522   9.458   1.540   6.679  1.5104 -0.2716  0.2915
67469SOL    HW2 9523   9.568   1.468   6.604  0.6887 -1.0906 -0.1547
67470SOL     OW 9524  10.680  11.829   5.177 -0.8790  0.3929  0.0173
67470SOL    HW1 9525  10.695  11.786   5.262  0.5957  0.5548 -0.1432
67470SOL    HW2 9526  10.619  11.900   5.197  0.0334  0.8994  1.0882
67471SOL     OW 9527   8.134   1.730   0.264  0.1706 -0.1299 -0.4665
67471SOL    HW1 9528   8.217   1.683   0.274  0.2993  0.0592 -0.6459
67471SOL    HW2 9529   8.159   1.815   0.226 -0.0918 -0.0274 -0.4085
67472SOL     OW 9530   4.961   6.330  10.545 -0.3799 -0.3518 -0.2231
67472SOL    HW1 9531   4.979   6.290  10.460  0.9041  0.9317 -0.5988
67472SOL    HW2 9532   5.031   6.395  10.556  0.0547 -1.1580  2.2643
67473SOL     OW 9533  12.896   9.579   7.815  0.7204 -0.1364  0.0054
67473SOL    HW1 9534  12.890   9.662   7.863 -1.7801 -1.0865  1.5023
67473SOL    HW2 9535  12.907   9.513   7.883 -0.7278 -1.3249 -0.8696
67474SOL     OW 9536   3.613   2.382  11.879 -0.3530 -0.3203  0.2916
67474SOL    HW1 9537   3.584   2.298  11.842 -0.9287  0.1860 -0.4575
67474SOL    HW2 9538   3.664   2.358  11.956 -0.2894 -1.3695 -0.0537
67475SOL     OW 9539   4.035   9.981  10.000  0.2398  0.5106 -0.3189
67475SOL    HW1 9540   4.021   9.974   9.906  2.2255 -0.7619 -0.5754
67475SOL    HW2 9541   4.099  10.052  10.009  0.7112  0.0584 -0.0257
67476SOL     OW 9542   9.684   3.955  10.985 -0.2544  0.2710 -0.4921
67476SOL    HW1 9543   9.771   3.971  11.021 -0.5017 -2.2856  1.6076
67476SOL    HW2 9544   9.627   4.013  11.036 -0.3398 -1.8905  2.0988
67477SOL     OW 9545   8.567   8.045   5.508 -0.1000 -0.1098 -0.0971
67477SOL    HW1 9546   8.594   7.978   5.446 -0.8433  0.5579 -1.1695
67477SOL    HW2 9547   8.641   8.106   5.511 -0.3460  0.2424 -0.9066
67478SOL     OW 9548   4.130   5.139   4.102 -0.5250  0.3806  0.6721
67478SOL    HW1 9549   4.192   5.133   4.174 -0.0977 -0.2932  0.2666
67478SOL    HW2 9550   4.051   5.176   4.140  0.1874  1.4360  1.1585
67479SOL     OW 9551  11.825   3.023   1.452 -0.1836  0.2956 -0.0368
67479SOL    HW1 9552  11.828   3.099   1.509 -0.4812 -0.3346  0.8375
67479SOL    HW2 9553  11.888   3.042   1.382 -0.9084  1.7201 -0.3300
67480SOL     OW 9554   3.107   4.235  11.845 -0.8317  0.2563  0.5981
67480SOL    HW1 9555   3.114   4.139  11.847  0.7803  0.3574  0.7350
67480SOL    HW2 9556   3.033   4.251  11.786 -0.3437 -1.0557 -0.4385
67481SOL     OW 9557   5.843   0.223   1.047  0.6443 -0.6167 -0.0263
67481SOL    HW1 9558   5.879   0.293   1.102 -1.9481 -0.3448  1.4839
67481SOL    HW2 9559   5.820   0.154   1.109 -2.0712 -0.4300 -0.7147
67482SOL     OW 9560   7.020   2.088   6.730  0.3708  0.6170  0.0388
67482SOL    HW1 9561   7.025   2.066   6.637  0.7636  0.3336  0.1256
67482SOL    HW2 9562   7.087   2.034   6.771  1.1473  1.7454  0.3002
67483SOL     OW 9563   6.650   9.155   3.683 -0.1833  0.4073 -0.1393
67483SOL    HW1 9564   6.687   9.227   3.733  1.1634 -0.8013  0.6799
67483SOL    HW2 9565   6.583   9.118   3.740 -0.2815  0.4721 -0.2109
67484SOL     OW 9566   8.671   3.080  11.173  0.1494 -0.4026 -0.2714
67484SOL    HW1 9567   8.683   3.163  11.126 -1.1973 -0.3505 -0.5713
67484SOL    HW2 9568   8.755   3.036  11.164  0.5776  0.4977 -0.9737
67485SOL     OW 9569   1.741   1.321   0.221 -0.0733 -0.1463 -0.5613
67485SOL    HW1 9570   1.769   1.402   0.177 -1.1961 -0.2831 -1.5999
67485SOL    HW2 9571   1.789   1.252   0.176  0.5713 -0.1015  0.0465
67486SOL     OW 9572  11.173   1.278   8.308  0.4851  0.1037  0.0447
67486SOL    HW1 9573  11.099   1.324   8.268 -0.1975  1.0296  2.2103
67486SOL    HW2 9574  11.136   1.237   8.386  2.3495  0.9799  1.4403
67487SOL     OW 9575   2.663   4.507   0.980 -0.0651  0.0447 -0.0182
67487SOL    HW1 9576   2.686   4.557   1.058 -0.2586 -0.1496  0.1681
67487SOL    HW2 9577   2.581   4.546   0.950 -0.1024 -0.0169  0.0015
67488SOL     OW 9578   6.844   7.845  10.041  0.0017 -0.4699 -0.2767
67488SOL    HW1 9579   6.788   7.918  10.018  1.0689  0.0420 -1.3301
67488SOL    HW2 9580   6.932   7.873  10.017  0.4288 -2.1409 -0.8293
67489SOL     OW 9581  12.168  10.578   4.005 -0.4546 -0.1326 -0.5103
67489SOL    HW1 9582  12.143  10.554   4.094 -0.6836  0.6791 -0.3409
67489SOL    HW2 9583  12.252  10.621   4.014 -0.7851  0.5459 -0.5943
67490SOL     OW 9584   5.581   6.442  11.438 -0.3766  0.4570  0.6313
67490SOL    HW1 9585   5.561   6.532  11.413  2.0552  1.0422  0.5626
67490SOL    HW2 9586   5.580   6.394  11.355  0.0126  0.7957  0.4239
67491SOL     OW 9587  11.080   8.472   8.099  0.4059 -0.1389 -0.0288
67491SOL    HW1 9588  11.145   8.407   8.126  0.1415 -2.0217 -3.4142
67491SOL    HW2 9589  11.130   8.535   8.046 -0.0052  0.1755 -0.0442
67492SOL     OW 9590   5.147   5.483   9.470 -0.3266  0.2309 -0.4144
67492SOL    HW1 9591   5.190   5.417   9.524 -1.8437 -1.8677 -1.6632
67492SOL    HW2 9592   5.191   5.478   9.385 -0.9958  0.2212 -0.7676
67493SOL     OW 9593   8.214   0.105   3.222 -0.2864 -0.1142  0.1177
67493SOL    HW1 9594   8.284   0.041   3.233 -0.5748 -0.4775 -0.1108
67493SOL    HW2 9595   8.242   0.181   3.273 -0.0874 -0.5392  0.6488
67494SOL     OW 9596   4.547   4.729  11.684 -0.1224 -0.2427 -0.4398
67494SOL    HW1 9597   4.518   4.746  11.774  2.2292 -0.4773  0.4147
67494SOL    HW2 9598   4.467   4.736  11.632 -1.5213  0.0664  1.6329
67495SOL     OW 9599  10.829   0.149   6.897 -0.0243  0.0382  0.1411
67495SOL    HW1 9600  10.859   0.192   6.817 -0.7643  0.4654  0.0883
67495SOL    HW2 9601  10.760   0.090   6.869  0.9366 -1.1558  0.2286
67496SOL     OW 9602   8.789   1.873   6.251  0.2205  0.1156 -0.2784
67496SOL    HW1 9603   8.717   1.811   6.267  0.1593  0.1140 -0.5445
67496SOL    HW2 9604   8.845   1.829   6.187  0.6996 -0.0664  0.2650
67497SOL     OW 9605  11.855   8.036   3.764  0.2909 -0.3173  0.1670
67497SOL    HW1 9606  11.825   7.991   3.685  0.1625  0.6745 -0.3658
67497SOL    HW2 9607  11.951   8.037   3.756  0.2493  0.3743 -0.3231
67498SOL     OW 9608   8.135   6.832   0.926 -0.0923  0.2700 -0.1104
67498SOL    HW1 9609   8.101   6.882   0.851  0.1779  0.9787  0.2304
67498SOL    HW2 9610   8.117   6.888   1.002 -1.7457 -1.0964  0.5757
67499SOL     OW 9611   4.534   1.686   7.250  0.1433  0.4503  0.5294
67499SOL    HW1 9612   4.565   1.763   7.202  0.2902  1.7145  2.5310
67499SOL    HW2 9613   4.610   1.627   7.252 -0.1593 -0.0762 -1.5527
67500SOL     OW 9614  10.171   5.827   2.308  0.0360 -0.0637  0.0783
67500SOL    HW1 9615  10.103   5.894   2.300 -1.0247 -1.0116  0.8161
67500SOL    HW2 9616  10.250   5.869   2.275 -0.2233  2.0658  1.9578
67501SOL     OW 9617   6.477   6.095   6.970 -0.1127  0.3243 -0.2774
67501SOL    HW1 9618   6.550   6.034   6.957 -0.3249  0.1403 -0.6186
67501SOL    HW2 9619   6.423   6.054   7.038 -0.0585  0.3104 -0.2433
67502SOL     OW 9620  12.669   0.503  10.431  0.0873  0.4205 -0.3385
67502SOL    HW1 9621  12.647   0.551  10.511 -0.1341 -0.6262  0.2451
67502SOL    HW2 9622  12.585   0.494  10.386  0.3089  1.5583 -1.0216
67503SOL     OW 9623   0.153   5.086   9.970 -0.0721  0.2046 -0.6153
67503SOL    HW1 9624   0.161   4.998  10.007 -0.0726  0.5569  0.2418
67503SOL    HW2 9625   0.119   5.139  10.042 -0.3410  0.8506 -1.2077
67504SOL     OW 9626   3.558   8.988   5.848 -0.2720  0.1240  0.0728
67504SOL    HW1 9627   3.510   8.907   5.865 -0.0874 -0.3138 -1.3161
67504SOL    HW2 9628   3.602   8.973   5.764  1.8314  0.7205  0.9830
67505SOL     OW 9629   8.635   1.203  10.930  0.1613 -0.3247 -0.1578
67505SOL    HW1 9630   8.676   1.125  10.891 -0.0974 -0.6232  0.1652
67505SOL    HW2 9631   8.662   1.275  10.873 -0.0605 -0.7300 -0.7857
67506SOL     OW 9632   5.142   2.231   2.967 -0.5061  0.4478  0.0139
67506SOL    HW1 9633   5.102   2.198   3.047 -0.5328 -0.5625 -0.4021
67506SOL    HW2 9634   5.070   2.269   2.917 -0.4660  1.2197  0.5185
67507SOL     OW 9635   6.384   9.628   1.717 -0.0613  0.6181  0.2582
67507SOL    HW1 9636   6.359   9.609   1.808  1.4930 -1.0921  0.3790
67507SOL    HW2 9637   6.479   9.632   1.718  0.0502 -0.4367 -1.4391
67508SOL     OW 9638   4.757   7.992  11.811 -0.3355 -0.3744 -0.0697
67508SOL    HW1 9639   4.705   7.953  11.881 -0.1790  0.6000  0.6153
67508SOL    HW2 9640   4.712   8.074  11.790  0.6379  0.2478  0.1992
67509SOL     OW 9641   9.831   5.573   3.766 -0.0692 -0.1839 -0.6672
67509SOL    HW1 9642   9.804   5.647   3.713  0.6627  0.0197 -0.7689
67509SOL    HW2 9643   9.924   5.562   3.746  0.4849  0.5174  1.2812
67510SOL     OW 9644   2.211   2.181   3.495  0.5534 -0.5629  0.4925
67510SOL    HW1 9645   2.249   2.096   3.471  0.2278 -0.3931 -0.6693
67510SOL    HW2 9646   2.271   2.246   3.458 -1.6009 -0.2600 -2.9057
67511SOL     OW 9647   3.382   5.923   0.247 -0.0897 -0.2183  0.3047
67511SOL    HW1 9648   3.298   5.906   0.289 -0.3027  0.3270  0.0930
67511SOL    HW2 9649   3.394   5.849   0.187 -1.0304  0.3869 -0.6331
67512SOL     OW 9650   5.476   1.681   8.714 -0.2023 -0.5034 -0.4677
67512SOL    HW1 9651   5.523   1.713   8.637 -1.1683 -0.0972 -0.9155
67512SOL    HW2 9652   5.387   1.667   8.683 -1.3846  2.3548  1.1598
67513SOL     OW 9653   1.953   3.192   3.369 -0.2028  0.3458  0.7998
67513SOL    HW1 9654   1.866   3.168   3.402 -0.2983  1.7029  1.6105
67513SOL    HW2 9655   1.939   3.275   3.324  0.4053 -0.2307 -0.4951
67514SOL     OW 9656   0.070   5.282   2.205 -0.4867  0.2729  0.0052
67514SOL    HW1 9657  -0.006   5.239   2.245  1.2114 -0.4455  2.7052
67514SOL    HW2 9658   0.112   5.213   2.153 -2.3154  1.0296 -2.6842
67515SOL     OW 9659   8.840   1.175   2.193 -0.3242 -0.4479  0.0073
67515SOL    HW1 9660   8.933   1.198   2.205 -0.2639 -0.8170  0.2681
67515SOL    HW2 9661   8.799   1.257   2.164  0.1056 -0.3142 -0.2394
67516SOL     OW 9662  11.678  10.311   9.317  0.0509  0.4269  1.1021
67516SOL    HW1 9663  11.704  10.243   9.255  2.2556  3.2114 -1.2959
67516SOL    HW2 9664  11.708  10.278   9.402  2.0057 -1.1559 -0.0996
67517SOL     OW 9665  12.811   0.524   0.124 -0.3090 -0.0376  0.2430
67517SOL    HW1 9666  12.790   0.592   0.188 -0.3061 -1.6324  2.0427
67517SOL    HW2 9667  12.811   0.443   0.175  1.3134 -1.2044 -1.4719
67518SOL     OW 9668   8.126   8.396   0.855 -0.1127 -0.0918  0.4771
67518SOL    HW1 9669   8.036   8.364   0.843 -1.0231  2.4443 -0.3372
67518SOL    HW2 9670   8.115   8.476   0.908  1.9532 -0.9423  2.3198
67519SOL     OW 9671   2.448   8.031   8.588 -0.3554  0.2353 -0.3034
67519SOL    HW1 9672   2.360   8.050   8.559 -1.0415 -0.1453  1.3780
67519SOL    HW2 9673   2.499   8.108   8.563 -1.7243  1.6127  0.8893
67520SOL     OW 9674  11.754  10.171   9.075  0.2576  0.8172  0.6130
67520SOL    HW1 9675  11.775  10.084   9.041  0.7715  1.3610 -0.5488
67520SOL    HW2 9676  11.840  10.213   9.086 -0.0119  1.4904  0.2317
67521SOL     OW 9677   5.657   9.460  12.757  0.3115  0.4775 -0.2375
67521SOL    HW1 9678   5.597   9.466  12.683 -0.7556  0.3584  0.5918
67521SOL    HW2 9679   5.642   9.540  12.807 -0.2557 -0.2370  0.7686
67522SOL     OW 9680   9.921   6.585  11.375  0.2274  0.2431  0.4213
67522SOL    HW1 9681   9.990   6.575  11.440 -0.3399  1.1956  1.1961
67522SOL    HW2 9682   9.948   6.660  11.321  0.6695 -0.5076 -0.4223
67523SOL     OW 9683   9.598   4.916   6.702 -0.2491 -0.1061 -0.1319
67523SOL    HW1 9684   9.594   5.008   6.677  0.0851 -0.0927 -0.1391
67523SOL    HW2 9685   9.532   4.907   6.771  0.6329  0.4401  0.8066
67524SOL     OW 9686   9.767  10.959   8.596 -0.4007  0.0154  0.0221
67524SOL    HW1 9687   9.674  10.976   8.579  0.0608  1.4086 -1.3705
67524SOL    HW2 9688   9.808  10.962   8.509  1.2812  1.7099  0.8032
67525SOL     OW 9689   0.524   7.207   3.928 -0.5068 -0.2861 -0.0887
67525SOL    HW1 9690   0.567   7.252   3.856  0.4048 -0.4297  0.3550
67525SOL    HW2 9691   0.512   7.117   3.897 -0.8682 -0.1465 -0.3640
67526SOL     OW 9692   2.516  11.308   7.651 -0.2709  0.1113  0.2690
67526SOL    HW1 9693   2.443  11.247   7.658  1.9852 -2.7856  0.6691
67526SOL    HW2 9694   2.525  11.345   7.739 -1.4140  0.7449  0.1347
67527SOL     OW 9695   5.446   5.431  11.805 -0.2181  0.0381 -0.4481
67527SOL    HW1 9696   5.502   5.378  11.748  2.0775  0.0034  1.6665
67527SOL    HW2 9697   5.466   5.521  11.779  0.5540  0.0088 -0.0169
67528SOL     OW 9698   4.626  11.733   7.036 -0.2748  0.0118 -0.1961
67528SOL    HW1 9699   4.657  11.648   7.005  1.6715  0.3156  0.8102
67528SOL    HW2 9700   4.699  11.793   7.020 -1.3110  1.3419 -0.1190
67529SOL     OW 9701   1.615   2.246  10.614 -0.1906  0.1993  0.5754
67529SOL    HW1 9702   1.600   2.340  10.629  0.5462  0.1561  1.6908
67529SOL    HW2 9703   1.642   2.241  10.523  0.2445  1.1520  0.6322
67530SOL     OW 9704   2.666  11.639   3.348 -0.1870 -0.0663  0.7597
67530SOL    HW1 9705   2.748  11.591   3.337  0.5073  1.2040  0.1552
67530SOL    HW2 9706   2.641  11.624   3.439  0.6940 -0.5083  0.9363
67531SOL     OW 9707   3.591   7.349  11.837  0.9837  0.2742  0.9296
67531SOL    HW1 9708   3.520   7.285  11.845  1.2992 -0.4425 -1.4190
67531SOL    HW2 9709   3.576   7.410  11.909 -0.9330 -0.8942  1.5920
67532SOL     OW 9710  11.559   0.691   6.971  0.3260 -0.5971 -0.3362
67532SOL    HW1 9711  11.480   0.681   6.918 -0.4400 -0.2279  0.6998
67532SOL    HW2 9712  11.631   0.678   6.909 -0.5173  0.5295 -1.6239
67533SOL     OW 9713  10.619   3.144  11.476 -0.0355 -0.5298  0.0426
67533SOL    HW1 9714  10.689   3.083  11.452  0.8590  0.6809 -0.5064
67533SOL    HW2 9715  10.624   3.151  11.571  0.7719 -0.2296 -0.0216
67534SOL     OW 9716   9.620   2.580   7.328  0.3566 -0.0621 -0.0418
67534SOL    HW1 9717   9.540   2.569   7.379 -0.2281 -1.7598 -1.2244
67534SOL    HW2 9718   9.684   2.612   7.391 -1.2894  1.5834  0.8806
67535SOL     OW 9719   7.958  11.438   2.011 -0.1020 -0.5983  0.7561
67535SOL    HW1 9720   8.003  11.366   1.967  0.4219  0.4995 -0.5702
67535SOL    HW2 9721   7.865  11.421   1.995 -0.0077 -1.1428  0.7488
67536SOL     OW 9722   3.260   4.095   5.386  0.5703  1.0132 -0.3760
67536SOL    HW1 9723   3.235   4.079   5.476 -0.5715  0.7272 -0.7292
67536SOL    HW2 9724   3.194   4.049   5.334  0.5876  2.0581 -1.3649
67537SOL     OW 9725  12.554   0.592   6.678 -0.0090 -0.0096  0.1520
67537SOL    HW1 9726  12.497   0.669   6.674  2.0847  1.6331 -0.2553
67537SOL    HW2 9727  12.593   0.596   6.766  1.2778  0.3444 -0.4038
67538SOL     OW 9728   2.979   5.602  12.795  0.9385 -0.0733 -0.1681
67538SOL    HW1 9729   2.999   5.603  12.888 -1.3409 -0.0086  0.3746
67538SOL    HW2 9730   2.926   5.524  12.782  1.6667 -0.3760 -1.5341
67539SOL     OW 9731   4.754   7.388   2.188  0.2410 -0.6588  0.3654
67539SOL    HW1 9732   4.844   7.422   2.194 -0.8794  2.5016  1.6726
67539SOL    HW2 9733   4.726   7.378   2.279 -0.6666 -1.9068 -0.0323
67540SOL     OW 9734   3.461   9.442   1.979 -0.1569  0.2572 -0.1261
67540SOL    HW1 9735   3.386   9.382   1.987 -1.2180  1.6767  1.1103
67540SOL    HW2 9736   3.450   9.481   1.892 -0.5381  0.0490 -0.1769
67541SOL     OW 9737   3.595   2.690   9.152  0.3590  0.0466  0.3381
67541SOL    HW1 9738   3.580   2.783   9.138 -0.9410 -0.1803  0.0907
67541SOL    HW2 9739   3.653   2.686   9.228 -0.5504  1.0250  1.1085
67542SOL     OW 9740   6.707   6.565   4.091  0.4883 -0.3265 -0.2594
67542SOL    HW1 9741   6.614   6.550   4.074  0.2828  1.0617 -0.4837
67542SOL    HW2 9742   6.752   6.516   4.022 -0.0196 -1.7559  0.3818
67543SOL     OW 9743   0.564   4.943   1.777 -0.8156  0.1668 -0.3681
67543SOL    HW1 9744   0.500   4.974   1.841 -0.9325  0.9556 -0.8504
67543SOL    HW2 9745   0.648   4.975   1.810 -0.6141 -1.0964  0.4065
67544SOL     OW 9746  10.878   0.028   8.174  0.8355  0.0437 -0.1485
67544SOL    HW1 9747  10.788   0.059   8.179  0.5973 -0.3670 -1.4646
67544SOL    HW2 9748  10.897   0.023   8.080  2.7966  1.7038  0.0861
67545SOL     OW 9749   8.794   6.874   5.733 -0.2575 -0.2865 -0.3024
67545SOL    HW1 9750   8.821   6.782   5.727  1.0240  0.1348 -1.7158
67545SOL    HW2 9751   8.875   6.923   5.722 -0.8342  1.0411  1.0170
67546SOL     OW 9752   4.041   4.573  12.760  0.2983  0.1181  0.1845
67546SOL    HW1 9753   3.962   4.534  12.722  1.1767 -0.6255 -0.9573
67546SOL    HW2 9754   4.027   4.568  12.854 -1.7686  1.6183  0.0335
67547SOL     OW 9755   2.881   8.298  10.179 -0.1137  0.6002 -0.4648
67547SOL    HW1 9756   2.838   8.245  10.113 -0.7242 -0.3601  0.6726
67547SOL    HW2 9757   2.838   8.275  10.262 -1.4052  3.9076 -0.0636
67548SOL     OW 9758  11.887   3.502   8.366 -0.1292 -0.5452  0.4792
67548SOL    HW1 9759  11.920   3.549   8.289  0.9180  1.7895  2.2367
67548SOL    HW2 9760  11.922   3.413   8.357  1.1342  0.0654 -1.0168
67549SOL     OW 9761   1.365   3.367   4.155 -0.2384 -0.0640 -0.2875
67549SOL    HW1 9762   1.344   3.454   4.121 -0.5069 -0.2849 -0.6942
67549SOL    HW2 9763   1.299   3.351   4.223  0.1320  0.2630  0.1606
67550SOL     OW 9764   9.290   7.316   7.224  0.0661  0.7439 -0.1586
67550SOL    HW1 9765   9.223   7.340   7.288  0.9490 -0.1898  1.1976
67550SOL    HW2 9766   9.242   7.275   7.153 -0.7620 -2.6164  2.0686
67551SOL     OW 9767   4.319   3.254   3.554  0.4920  0.4501  0.7217
67551SOL    HW1 9768   4.363   3.192   3.496  1.6895 -0.2814  2.3445
67551SOL    HW2 9769   4.227   3.249   3.529  0.7008 -1.3179  0.2017
67552SOL     OW 9770   3.386  10.876   8.253 -0.1876 -0.0959  0.8442
67552SOL    HW1 9771   3.440  10.823   8.194  0.2425 -0.1441  1.2702
67552SOL    HW2 9772   3.390  10.829   8.337 -2.1182 -0.9236  0.5174
67553SOL     OW 9773  12.165   5.224   7.065 -0.1111 -0.0064 -0.1543
67553SOL    HW1 9774  12.081   5.181   7.083 -0.1711  0.3980  0.5409
67553SOL    HW2 9775  12.218   5.156   7.023  0.0724 -1.0351  1.6234
67554SOL     OW 9776   0.179  11.247   1.103 -0.4009 -0.0494 -0.1637
67554SOL    HW1 9777   0.151  11.183   1.169  0.5902 -0.4766 -0.1362
67554SOL    HW2 9778   0.178  11.331   1.149  0.1988 -0.3301  0.3837
67555SOL     OW 9779   1.527  11.324  12.953  0.0971 -0.2945 -0.3369
67555SOL    HW1 9780   1.506  11.281  12.870 -0.9790  0.9493 -0.7414
67555SOL    HW2 9781   1.476  11.405  12.952  1.5704  0.7065  0.6659
67556SOL     OW 9782   5.742  10.716   0.660  0.8369 -0.4006 -0.1294
67556SOL    HW1 9783   5.772  10.627   0.642 -1.3661 -1.1133 -0.5697
67556SOL    HW2 9784   5.776  10.768   0.588  2.5718 -0.7484  0.3939
67557SOL     OW 9785   9.201  12.481   4.079 -0.2477  0.1748 -0.0633
67557SOL    HW1 9786   9.274  12.500   4.021  0.5209  0.1334  0.8647
67557SOL    HW2 9787   9.158  12.566   4.092  1.4981  0.8561  1.8301
67558SOL     OW 9788   3.014   2.382   4.154  0.3052 -0.4815  0.1863
67558SOL    HW1 9789   3.104   2.388   4.187  1.6726 -1.5938 -2.9949
67558SOL    HW2 9790   2.962   2.429   4.219  3.3681  1.5660  1.4000
67559SOL     OW 9791   0.041   0.941   2.327  0.2763  0.3993 -0.5566
67559SOL    HW1 9792   0.113   0.879   2.317 -0.7700 -0.7571 -1.3384
67559SOL    HW2 9793  -0.034   0.887   2.352 -0.7098  1.3269 -1.3862
67560SOL     OW 9794   4.788  11.272   2.124 -0.0857  0.0186  0.2855
67560SOL    HW1 9795   4.789  11.360   2.159  0.6297  0.5756 -1.0692
67560SOL    HW2 9796   4.695  11.255   2.103 -0.5606 -0.4018  2.5025
67561SOL     OW 9797   7.995   1.894  12.966  0.2064  0.6961 -0.0427
67561SOL    HW1 9798   7.956   1.812  12.997 -0.1143  0.5831 -0.7242
67561SOL    HW2 9799   7.928   1.960  12.985 -0.1411  0.5714 -0.8061
67562SOL     OW 9800   5.727   2.344   6.155 -0.2728  0.2476  0.2292
67562SOL    HW1 9801   5.668   2.345   6.231  0.5426 -0.4020  0.8919
67562SOL    HW2 9802   5.813   2.328   6.193  0.2298  0.5043 -0.7925
67563SOL     OW 9803  11.875   2.194   9.326 -0.4383 -0.1008 -0.5535
67563SOL    HW1 9804  11.809   2.253   9.363 -0.6446 -0.6768  0.0188
67563SOL    HW2 9805  11.951   2.205   9.383  0.1910  1.0128 -1.5649
67564SOL     OW 9806   1.085   8.871   4.183  0.3084 -0.2287  0.5679
67564SOL    HW1 9807   1.154   8.924   4.225  0.8350 -0.4082 -0.0560
67564SOL    HW2 9808   1.110   8.869   4.091 -0.6617 -0.1200  0.3009
67565SOL     OW 9809   3.639   7.905   7.210  0.4440  0.6978 -0.0239
67565SOL    HW1 9810   3.562   7.866   7.250  0.1378 -0.2832 -1.5178
67565SOL    HW2 9811   3.604   7.970   7.148  0.8035  0.2848 -0.6695
67566SOL     OW 9812   5.932   2.070   2.656 -0.5106 -0.1838 -0.9553
67566SOL    HW1 9813   5.903   1.997   2.710  0.6079 -0.9291 -1.3360
67566SOL    HW2 9814   5.947   2.032   2.570 -0.6256  0.6532 -1.3586
67567SOL     OW 9815   5.656   7.408   2.996  0.0917  0.0418  0.0095
67567SOL    HW1 9816   5.626   7.322   2.968 -1.6237  0.4897  0.3408
67567SOL    HW2 9817   5.586   7.468   2.968  1.1009  1.2930  0.0469
67568SOL     OW 9818  12.581   5.387   6.068 -0.1936 -0.4421 -0.0745
67568SOL    HW1 9819  12.647   5.380   6.136  0.5854  0.5659 -0.6962
67568SOL    HW2 9820  12.630   5.409   5.989 -1.0263 -1.9901 -1.0784
67569SOL     OW 9821   5.403   3.835   0.402 -0.1584 -0.0693  0.1142
67569SOL    HW1 9822   5.364   3.878   0.477 -0.6777 -0.2647 -0.0386
67569SOL    HW2 9823   5.333   3.831   0.337 -0.6139 -2.4622  0.6361
67570SOL     OW 9824  11.990   2.104   6.323 -0.4431  0.2129  0.0794
67570SOL    HW1 9825  12.073   2.108   6.371  0.3029 -0.1119 -1.1339
67570SOL    HW2 9826  11.940   2.178   6.356  0.9111  1.3021 -0.1792
67571SOL     OW 9827  11.220   2.032   2.459  0.1246 -0.0610 -0.2893
67571SOL    HW1 9828  11.224   1.937   2.467 -2.0712 -0.3896 -1.9432
67571SOL    HW2 9829  11.130   2.049   2.432  0.3173  2.5603  0.5029
67572SOL     OW 9830   7.333   0.016   0.121 -0.2114  0.4023  0.6750
67572SOL    HW1 9831   7.249  -0.006   0.080 -0.8791  1.4585  1.4220
67572SOL    HW2 9832   7.365  -0.066   0.157 -2.5488  0.4820  3.2837
67573SOL     OW 9833   9.261   6.184   5.419  0.1614 -0.5323  0.5914
67573SOL    HW1 9834   9.270   6.268   5.466 -0.3703  0.3509 -0.8220
67573SOL    HW2 9835   9.226   6.208   5.334  0.9295 -2.1232 -0.2104
67574SOL     OW 9836   2.623   8.198   1.262  0.5099  0.3048  0.1019
67574SOL    HW1 9837   2.688   8.263   1.234  0.2974  0.7245  0.5686
67574SOL    HW2 9838   2.673   8.137   1.317  0.7658 -0.0838 -0.5614
67575SOL     OW 9839  11.116  11.822   1.765  0.2454  0.1523  0.7830
67575SOL    HW1 9840  11.052  11.891   1.748  1.1371  0.6509 -0.7867
67575SOL    HW2 9841  11.201  11.863   1.747  0.7887 -1.3898 -0.4430
67576SOL     OW 9842   5.873  10.723   9.167  0.2549  0.1516  0.3241
67576SOL    HW1 9843   5.963  10.753   9.154  0.3978 -0.1260  0.6660
67576SOL    HW2 9844   5.830  10.740   9.083  0.9388 -0.8178 -0.2426
67577SOL     OW 9845   4.972  11.820   3.736  0.8036 -0.4751 -0.1626
67577SOL    HW1 9846   4.877  11.833   3.741  0.5888 -2.0807  0.5228
67577SOL    HW2 9847   4.995  11.842   3.646  0.2850  2.7852  0.3936
67578SOL     OW 9848   0.519  12.205   9.152  0.1545  0.4953 -0.5703
67578SOL    HW1 9849   0.584  12.250   9.098  0.2639  0.9091 -0.0983
67578SOL    HW2 9850   0.438  12.254   9.137 -0.1078 -0.1461 -1.3223
67579SOL     OW 9851   8.942   4.523  11.062  0.4424 -0.3888 -0.5308
67579SOL    HW1 9852   8.862   4.474  11.041 -1.1205 -0.0781  3.7211
67579SOL    HW2 9853   8.931   4.607  11.018 -0.3914 -1.1685 -1.8999
67580SOL     OW 9854  12.725   7.142   5.180  0.6532 -0.1043 -0.3032
67580SOL    HW1 9855  12.803   7.197   5.171 -0.2090  1.1867 -0.1812
67580SOL    HW2 9856  12.718   7.125   5.274  0.0258  0.9521 -0.1488
67581SOL     OW 9857   2.249   7.576   9.811 -0.0296 -0.4656 -0.0445
67581SOL    HW1 9858   2.174   7.587   9.869 -0.4583  3.0885 -1.0571
67581SOL    HW2 9859   2.220   7.614   9.728  2.3487 -0.5452 -0.9632
67582SOL     OW 9860   0.188   7.730   3.340  0.3196 -0.0173 -0.5596
67582SOL    HW1 9861   0.176   7.693   3.427 -1.2218  0.3092 -0.6056
67582SOL    HW2 9862   0.278   7.764   3.340  1.5620 -2.9832 -0.2466
67583SOL     OW 9863   4.482   5.417  10.772 -0.0812  0.5014  0.0348
67583SOL    HW1 9864   4.492   5.346  10.835  0.1562 -0.3434 -0.9159
67583SOL    HW2 9865   4.478   5.373  10.687 -0.3642  1.6048 -0.5438
67584SOL     OW 9866   3.854   9.041   0.768  0.0631  0.4515  0.1929
67584SOL    HW1 9867   3.855   8.953   0.805 -1.1078  0.5795  0.5547
67584SOL    HW2 9868   3.863   9.027   0.673 -0.1811 -0.0559  0.2403
67585SOL     OW 9869   9.550  10.788   7.839  0.3653  0.3836 -0.6310
67585SOL    HW1 9870   9.606  10.801   7.916 -0.7058  1.8339 -0.0421
67585SOL    HW2 9871   9.536  10.693   7.835  1.3811  0.1749  0.2685
67586SOL     OW 9872   3.805   3.015   0.350 -0.0509 -0.2258 -0.1836
67586SOL    HW1 9873   3.777   3.071   0.278 -0.2329 -0.3362 -0.2007
67586SOL    HW2 9874   3.814   2.928   0.312  2.3356  0.1590 -0.6551
67587SOL     OW 9875   2.678   7.940   3.852 -0.2957 -0.6472 -0.3955
67587SOL    HW1 9876   2.712   8.004   3.789 -3.3264  1.6845  0.1088
67587SOL    HW2 9877   2.720   7.964   3.935  0.1770 -0.7099 -0.6125
67588SOL     OW 9878   2.550   2.678   4.525  0.4357  0.3139 -0.1451
67588SOL    HW1 9879   2.500   2.708   4.449  0.3936  0.6543  0.0178
67588SOL    HW2 9880   2.611   2.749   4.544  2.6772 -1.0005 -1.8055
67589SOL     OW 9881   1.539   9.579  12.498 -0.0981 -0.0866 -0.1198
67589SOL    HW1 9882   1.623   9.545  12.470 -0.2547 -0.1258 -0.5509
67589SOL    HW2 9883   1.529   9.548  12.588 -0.9845 -2.6299 -1.0161
67590SOL     OW 9884   6.384   9.947   8.321 -0.4089 -0.2033 -0.0781
67590SOL    HW1 9885   6.452   9.927   8.386 -0.6115  1.1311  0.5786
67590SOL    HW2 9886   6.399   9.884   8.251  0.2735 -1.2088  0.9325
67591SOL     OW 9887   7.005   3.842   2.657 -0.2732  0.7650 -0.5811
67591SOL    HW1 9888   7.001   3.830   2.563  1.5127 -0.8380 -0.5155
67591SOL    HW2 9889   7.059   3.921   2.669  1.0340 -0.0334 -0.9328
67592SOL     OW 9890   4.873  10.428   3.507  0.2275  0.2397  0.1131
67592SOL    HW1 9891   4.801  10.366   3.500 -0.4935  1.1209 -0.4665
67592SOL    HW2 9892   4.903  10.421   3.598 -1.1240  0.4667  0.5844
67593SOL     OW 9893   3.776  10.345  10.077  0.5205  0.1457 -0.2972
67593SOL    HW1 9894   3.793  10.256  10.109 -1.1564  0.0635  0.4280
67593SOL    HW2 9895   3.734  10.332   9.993  0.8668  0.2819 -0.4937
67594SOL     OW 9896   6.221   5.601   7.771 -0.0812 -0.3142  0.1113
67594SOL    HW1 9897   6.152   5.574   7.831  0.5979 -1.5407  0.3806
67594SOL    HW2 9898   6.236   5.524   7.715 -0.1451  0.5266 -1.1145
67595SOL     OW 9899  11.751   6.758   1.797 -0.3343  0.5609  0.1064
67595SOL    HW1 9900  11.681   6.706   1.837 -2.4501  1.8869 -1.6501
67595SOL    HW2 9901  11.824   6.696   1.787 -1.9243 -1.4332  0.1748
67596SOL     OW 9902   3.129   2.505  10.019  0.1596 -0.0367 -0.3676
67596SOL    HW1 9903   3.158   2.555   9.943  0.1261 -0.6612 -0.8062
67596SOL    HW2 9904   3.048   2.548  10.048 -0.4765 -0.4880 -1.4205
67597SOL     OW 9905  12.184  10.882   3.524  0.0577 -0.2428  0.3467
67597SOL    HW1 9906  12.270  10.920   3.506 -0.6806  1.1026 -0.4570
67597SOL    HW2 9907  12.181  10.802   3.472  0.7157 -0.1387  0.1472
67598SOL     OW 9908   0.006   6.170   7.761  0.0088  0.0381 -0.2922
67598SOL    HW1 9909  -0.043   6.249   7.784  1.1516  0.6422  0.1424
67598SOL    HW2 9910   0.060   6.196   7.686  0.1215 -0.4346 -0.3800
67599SOL     OW 9911   1.631   2.718   4.129 -0.4707  0.3232 -0.4250
67599SOL    HW1 9912   1.634   2.655   4.202  0.2313  0.1376 -0.6061
67599SOL    HW2 9913   1.593   2.797   4.168  1.0890  0.6678  0.5022
67600SOL     OW 9914   9.731   9.934   4.732 -0.3945 -0.2435 -0.5555
67600SOL    HW1 9915   9.689   9.989   4.799 -1.4559 -0.7782 -0.7566
67600SOL    HW2 9916   9.801   9.988   4.697  1.6538 -0.7226  2.4882
67601SOL     OW 9917   1.728   3.388  10.299 -0.2342 -0.3716 -0.1673
67601SOL    HW1 9918   1.648   3.405  10.251  0.5206  0.2220 -1.2475
67601SOL    HW2 9919   1.737   3.461  10.360  0.4961  0.6248 -1.4329
67602SOL     OW 9920  10.000   3.981  10.863 -0.3743  0.2687  0.1503
67602SOL    HW1 9921  10.049   3.964  10.782 -1.3806 -1.1517 -0.2009
67602SOL    HW2 9922   9.915   4.013  10.833 -0.8915 -0.6290  0.6094
67603SOL     OW 9923   2.622   4.976   1.509 -0.9734  0.3762 -0.0002
67603SOL    HW1 9924   2.670   4.903   1.548  0.1822  0.9009 -0.4220
67603SOL    HW2 9925   2.530   4.949   1.515 -0.7200 -0.2331  1.6730
67604SOL     OW 9926   7.233  12.924   3.681  0.3998  0.5478 -0.1088
67604SOL    HW1 9927   7.306  12.869   3.708 -0.5792 -0.5548  0.4187
67604SOL    HW2 9928   7.271  13.010   3.664  1.8457 -0.0854 -0.1557
67605SOL     OW 9929  11.024   8.520   8.673 -0.6683  0.3191  0.2958
67605SOL    HW1 9930  10.982   8.580   8.611 -2.5662 -1.7919 -0.5766
67605SOL    HW2 9931  10.994   8.550   8.759  3.0307  4.1071  0.5947
67606SOL     OW 9932   6.402   7.142  11.797 -0.0444  0.4002 -0.0601
67606SOL    HW1 9933   6.394   7.080  11.869  0.3583 -1.1518 -1.2754
67606SOL    HW2 9934   6.359   7.098  11.723 -1.0667  2.2330 -0.6026
67607SOL     OW 9935  10.439   1.118   1.677  0.4429  0.4701 -0.0073
67607SOL    HW1 9936  10.388   1.040   1.699 -0.0520  0.6148 -0.6033
67607SOL    HW2 9937  10.382   1.192   1.700  0.5401  0.6415 -0.3015
67608SOL     OW 9938   4.169   1.536   9.098  0.3939  0.2064  0.0777
67608SOL    HW1 9939   4.122   1.568   9.175 -0.3772  0.3768 -0.4441
67608SOL    HW2 9940   4.255   1.510   9.131 -0.4169 -1.1201  1.2600
67609SOL     OW 9941  10.901   0.521   4.007 -0.4280 -0.1564  0.1934
67609SOL    HW1 9942  10.840   0.529   3.934  0.9618  0.1889 -0.9854
67609SOL    HW2 9943  10.949   0.440   3.989 -0.3221 -0.2678  0.9394
67610SOL     OW 9944   9.502  12.784   9.305 -0.3478 -0.4945 -0.2709
67610SOL    HW1 9945   9.544  12.704   9.276  1.0354 -0.6742  2.0082
67610SOL    HW2 9946   9.428  12.755   9.359  0.7216 -0.3367  1.3651
67611SOL     OW 9947   8.106   6.940   1.798 -0.1573 -0.2216  0.4669
67611SOL    HW1 9948   8.036   6.994   1.835  0.1350  3.1182 -3.2233
67611SOL    HW2 9949   8.066   6.899   1.721  1.2331 -0.2851 -0.2601
67612SOL     OW 9950   1.949   9.282   9.055 -0.0734 -0.1262 -0.4165
67612SOL    HW1 9951   1.951   9.194   9.019 -0.2928 -0.3949  0.2175
67612SOL    HW2 9952   1.956   9.270   9.150 -2.1709  0.3797 -0.1408
67613SOL     OW 9953  11.142   7.198   6.002 -0.0408 -0.0905 -0.0794
67613SOL    HW1 9954  11.067   7.138   6.007 -0.3762  0.3586  0.2850
67613SOL    HW2 9955  11.139   7.233   5.913  0.5025 -1.0526 -0.4957
67614SOL     OW 9956   8.591   1.122   4.317 -0.3907  0.4056 -0.2968
67614SOL    HW1 9957   8.551   1.208   4.330 -0.5136  0.4637 -1.0265
67614SOL    HW2 9958   8.666   1.121   4.377  0.0403  1.3033 -0.8059
67615SOL     OW 9959   6.860   7.801   5.273  0.0088  0.0310 -0.1091
67615SOL    HW1 9960   6.893   7.757   5.351  0.6085 -0.7270 -0.7710
67615SOL    HW2 9961   6.908   7.760   5.200 -1.3347 -0.0784 -0.9690
67616SOL     OW 9962   3.572   8.936   4.575  0.6009  0.2619  0.0081
67616SOL    HW1 9963   3.537   9.017   4.613  0.3761 -0.5910  1.7122
67616SOL    HW2 9964   3.498   8.899   4.527 -0.2512 -0.3838  1.7094
67617SOL     OW 9965   8.061   0.603  12.770 -0.0007  0.0575 -0.2363
67617SOL    HW1 9966   8.053   0.605  12.674 -0.2245 -0.7924 -0.2385
67617SOL    HW2 9967   8.055   0.511  12.793 -1.2236  0.3332  0.7020
67618SOL     OW 9968   1.605   0.256   0.043 -0.0675  0.0157 -0.2647
67618SOL    HW1 9969   1.694   0.261   0.010 -0.2401  0.9918 -0.5863
67618SOL    HW2 9970   1.604   0.176   0.097  0.3796 -1.2436 -2.0499
67619SOL     OW 9971   6.676   0.931   8.293  0.2799 -1.1282 -0.2929
67619SOL    HW1 9972   6.729   0.851   8.292  0.3478 -1.1221  0.8938
67619SOL    HW2 9973   6.670   0.954   8.386  0.5789  0.4591 -0.6345
67620SOL     OW 9974  11.632  12.389   9.505 -0.3690 -0.7553 -0.2147
67620SOL    HW1 9975  11.596  12.414   9.590  0.0079 -2.3071  0.4294
67620SOL    HW2 9976  11.703  12.451   9.489  0.0567 -0.9212  0.9670
67621SOL     OW 9977  12.245   1.248   6.626  0.5610  0.3063  0.4121
67621SOL    HW1 9978  12.204   1.298   6.697 -0.6001  0.5832 -0.4088
67621SOL    HW2 9979  12.338   1.249   6.646  0.3294  0.9814  1.5499
67622SOL     OW 9980   4.085   3.862   3.019 -0.0463 -0.6133  0.0549
67622SOL    HW1 9981   4.019   3.918   3.059  0.5450 -0.0584  0.2742
67622SOL    HW2 9982   4.161   3.870   3.077  0.7185 -0.0444 -1.0099
67623SOL     OW 9983  11.600  10.742  11.509  0.1141  0.1767 -0.3474
67623SOL    HW1 9984  11.547  10.816  11.539 -0.0199 -1.2578  3.5153
67623SOL    HW2 9985  11.673  10.738  11.571  1.3934 -1.6140 -1.8403
67624SOL     OW 9986   3.940   5.590  10.839 -0.1000 -0.1263 -0.2017
67624SOL    HW1 9987   4.032   5.578  10.814 -0.5858 -1.3384 -1.5435
67624SOL    HW2 9988   3.908   5.501  10.854 -0.1052  0.3623  4.2206
67625SOL     OW 9989  11.304   8.767   3.655  0.3821  0.1171 -0.5539
67625SOL    HW1 9990  11.374   8.712   3.691 -1.6289 -0.8801  2.1599
67625SOL    HW2 9991  11.288   8.732   3.567 -0.0441 -3.0139  0.6517
67626SOL     OW 9992   6.842   4.203   3.313 -0.1270 -0.0517 -0.1213
67626SOL    HW1 9993   6.919   4.260   3.306 -0.0279 -0.2895 -1.0805
67626SOL    HW2 9994   6.856   4.154   3.394  0.8658 -0.2877 -0.4244
67627SOL     OW 9995   3.231   2.386   0.194 -0.6030  0.0348 -0.1133
67627SOL    HW1 9996   3.135   2.390   0.188 -0.5052  2.1179 -3.3859
67627SOL    HW2 9997   3.253   2.295   0.175 -1.9288 -0.2121 -0.5875
67628SOL     OW 9998   7.748   6.240   1.468  0.2282 -0.2957  0.0877
67628SOL    HW1 9999   7.754   6.325   1.510 -0.8067 -0.0312 -0.2486
67628SOL    HW210000   7.761   6.176   1.538 -1.3642  0.1349  0.8178
67629SOL     OW10001   9.410  11.005   2.049 -0.3648  0.7311  0.0634
67629SOL    HW110002   9.382  11.097   2.053 -1.1859  0.5539 -1.1728
67629SOL    HW210003   9.439  10.993   1.958  0.2188 -0.1081  0.3464
67630SOL     OW10004   1.230   6.698   2.925  0.2146 -0.3739 -0.4455
67630SOL    HW110005   1.224   6.641   2.848  1.1018  1.5477 -2.0536
67630SOL    HW210006   1.153   6.754   2.919 -1.3386 -2.0879  1.8248
67631SOL     OW10007   1.165   4.245   6.061 -0.3254 -0.0693 -0.1200
67631SOL    HW110008   1.238   4.188   6.082 -0.2528  0.2998  0.6453
67631SOL    HW210009   1.122   4.202   5.987 -0.8935 -1.6774  1.0894
67632SOL     OW10010   4.230   7.156   0.311  0.4698  0.1343  0.2207
67632SOL    HW110011   4.320   7.155   0.278  0.3709 -1.0170 -0.0717
67632SOL    HW210012   4.203   7.248   0.307  1.4457  0.4112 -0.1884
67633SOL     OW10013   6.413   0.842  10.469 -0.1579 -0.9206 -0.1609
67633SOL    HW110014   6.447   0.792  10.543 -2.4627 -0.9032  0.9947
67633SOL    HW210015   6.326   0.870  10.496 -0.4969  0.3861 -2.3158
67634SOL     OW10016   0.350  10.647   5.493 -0.0060 -0.2728 -0.0332
67634SOL    HW110017   0.288  10.575   5.503 -1.3028  0.7044 -0.8101
67634SOL    HW210018   0.371  10.648   5.400 -1.0864  1.1935 -0.2926
67635SOL     OW10019   3.406   5.606   6.489 -0.2024  0.0713 -0.3146
67635SOL    HW110020   3.395   5.700   6.505 -0.0853  0.2461 -1.2344
67635SOL    HW210021   3.326   5.566   6.522  0.5051  0.2594  1.8445
67636SOL     OW10022  10.085  12.169   0.923 -0.5809  1.1620 -0.4689
67636SOL    HW110023  10.014  12.233   0.932 -2.0076 -0.4234  0.0489
67636SOL    HW210024  10.092  12.154   0.829 -2.1104  0.1437 -0.4644
67637SOL     OW10025   1.621   5.527   8.245  0.9210  0.6412  0.1278
67637SOL    HW110026   1.596   5.603   8.297 -0.7508  0.2482 -0.0373
67637SOL    HW210027   1.678   5.562   8.177 -0.8300  1.9997 -0.7278
67638SOL     OW10028  10.522   4.066   0.875 -0.7950 -0.3679  0.1047
67638SOL    HW110029  10.510   4.161   0.871 -0.1255 -0.1516  2.1469
67638SOL    HW210030  10.616   4.054   0.889 -1.0989 -1.2317  1.6047
67639SOL     OW10031   2.335   3.452   4.425  0.3437 -0.3873  0.0461
67639SOL    HW110032   2.366   3.403   4.501 -2.1296 -0.5599  1.0434
67639SOL    HW210033   2.406   3.446   4.362  1.9031 -1.4767  1.7961
67640SOL     OW10034   8.405   4.872   0.216 -0.2246 -0.3628  0.0999
67640SOL    HW110035   8.371   4.860   0.305 -0.8332 -1.8203 -0.2980
67640SOL    HW210036   8.408   4.967   0.204 -2.9600 -0.1230  0.6373
67641SOL     OW10037   6.993   7.846   7.023 -0.0247 -0.3000 -0.4200
67641SOL    HW110038   7.080   7.819   7.054 -0.1963 -0.2453  0.1163
67641SOL    HW210039   6.932   7.791   7.072 -0.3235  0.2137 -0.2095
67642SOL     OW10040  12.530   1.184  12.392 -0.4974 -0.0978  0.4213
67642SOL    HW110041  12.508   1.124  12.321  1.9531  0.8518 -1.3104
67642SOL    HW210042  12.531   1.130  12.471 -1.2676 -1.6465 -0.5801
67643SOL     OW10043   9.660   3.584   8.298 -0.1308  0.3837 -0.6442
67643SOL    HW110044   9.667   3.592   8.393 -0.0795 -1.7177 -0.4214
67643SOL    HW210045   9.747   3.556   8.270 -0.3961  0.1086 -1.2007
67644SOL     OW10046   0.323  11.856   8.043  0.0145  0.1871 -0.0379
67644SOL    HW110047   0.267  11.928   8.070  2.2266  1.5879  1.1622
67644SOL    HW210048   0.291  11.780   8.093 -0.8569  0.9146  0.5278
67645SOL     OW10049   1.234   7.012   8.722 -0.1480  0.2502  0.0638
67645SOL    HW110050   1.255   6.921   8.746 -0.9895  0.1482  0.4543
67645SOL    HW210051   1.247   7.061   8.803  1.0889  0.6299 -0.3418
67646SOL     OW10052  10.439   7.473  10.225  0.2649 -0.1773 -0.1927
67646SOL    HW110053  10.449   7.546  10.287 -0.1219 -1.3335  1.2930
67646SOL    HW210054  10.359   7.494  10.177  0.4168  0.6056 -0.1293
67647SOL     OW10055   5.853   0.983   9.885 -0.3359 -0.0880 -0.2939
67647SOL    HW110056   5.774   0.976   9.830 -0.3843 -2.8592 -0.0340
67647SOL    HW210057   5.926   0.980   9.823 -0.4175 -1.7594 -0.3543
67648SOL     OW10058  11.355   8.719  10.862 -0.4139  0.3646 -0.4986
67648SOL    HW110059  11.392   8.801  10.895 -0.4166  0.3635 -0.4923
67648SOL    HW210060  11.405   8.650  10.905  0.1510  0.3653 -1.1307
67649SOL     OW10061   6.795  10.773   4.808  0.3340  0.1252  0.2797
67649SOL    HW110062   6.765  10.683   4.801  1.4607 -0.2042 -0.5717
67649SOL    HW210063   6.715  10.825   4.815 -0.3454 -0.8698  0.0062
67650SOL     OW10064   7.594   8.121   6.627  0.2941  0.2364 -0.2214
67650SOL    HW110065   7.621   8.131   6.536  1.2261  1.0753  0.1261
67650SOL    HW210066   7.668   8.077   6.670  0.6565  1.5102  0.5022
67651SOL     OW10067   7.105   5.553   6.980  0.1321  0.0833 -0.7651
67651SOL    HW110068   7.093   5.562   7.074  1.0352 -0.1477 -0.6196
67651SOL    HW210069   7.179   5.611   6.959 -0.1173  0.2023 -1.3433
67652SOL     OW10070   7.734   8.404   1.215 -0.0467 -0.3263 -0.1422
67652SOL    HW110071   7.828   8.417   1.206 -0.3786  2.1793 -0.5708
67652SOL    HW210072   7.718   8.410   1.309  0.1826 -0.5543 -0.0863
67653SOL     OW10073   0.081   9.043   7.448 -0.1762 -0.7887  0.3985
67653SOL    HW110074   0.066   9.134   7.421 -0.0288 -1.3100 -1.6167
67653SOL    HW210075   0.175   9.037   7.461 -0.1772 -0.6793  0.4584
67654SOL     OW10076  11.020   2.697  12.718  0.5345 -0.0502  0.3108
67654SOL    HW110077  11.069   2.690  12.800 -0.5629  0.2366  1.0120
67654SOL    HW210078  10.929   2.711  12.745 -0.0564 -1.2196 -0.9517
67655SOL     OW10079  12.956   8.296   9.361  0.4672  0.4609 -0.3625
67655SOL    HW110080  12.915   8.255   9.437  1.3096  1.5684  0.7228
67655SOL    HW210081  12.882   8.332   9.311 -0.0020  1.5990  1.0703
67656SOL     OW10082   0.371   4.582   7.660 -0.0481  0.1144 -0.1018
67656SOL    HW110083   0.315   4.619   7.729  0.5661  1.3839 -0.2464
67656SOL    HW210084   0.456   4.626   7.672  1.2884 -2.5128  0.7715
67657SOL     OW10085  11.412   2.788   7.290  0.0611 -0.4597  0.2170
67657SOL    HW110086  11.506   2.777   7.278 -0.1925 -2.2756 -0.4142
67657SOL    HW210087  11.382   2.703   7.323 -1.9473 -1.4413 -3.5594
67658SOL     OW10088   7.894   3.231   8.456 -0.0500 -0.0148  0.5714
67658SOL    HW110089   7.911   3.225   8.550 -1.8147  0.3566  0.9632
67658SOL    HW210090   7.838   3.155   8.437 -1.9741  1.3747  0.4285
67659SOL     OW10091   2.517   9.148   5.313 -0.8653  0.1761  0.2718
67659SOL    HW110092   2.467   9.229   5.317 -3.5661 -1.2887 -1.2506
67659SOL    HW210093   2.584   9.165   5.247 -2.5145  0.6675 -1.3640
67660SOL     OW10094   4.236   2.786   9.213  0.1667  0.3664  0.2053
67660SOL    HW110095   4.272   2.871   9.240  1.0771 -0.3828  1.4099
67660SOL    HW210096   4.233   2.734   9.293  1.2671 -1.3504 -0.8140
67661SOL     OW10097  10.629   8.075  11.436  0.1189 -0.4701 -0.9559
67661SOL    HW110098  10.665   8.162  11.422 -0.0403 -0.1628  0.4058
67661SOL    HW210099  10.585   8.054  11.353  0.5236  0.5507 -1.4523
67662SOL     OW10100   1.530   2.837   5.513 -0.4329  0.3450  0.3806
67662SOL    HW110101   1.452   2.797   5.550 -1.7785  0.6373 -1.9382
67662SOL    HW210102   1.504   2.864   5.425  1.2137  3.6813  0.7518
67663SOL     OW10103   5.840  10.549  10.592 -0.3234  0.3297 -0.1528
67663SOL    HW110104   5.907  10.492  10.555  0.5251  1.3320 -0.2102
67663SOL    HW210105   5.851  10.632  10.547 -1.7499  0.4645 -0.2975
67664SOL     OW10106  10.189   8.027   7.494 -0.0802  0.8645  0.7275
67664SOL    HW110107  10.103   8.026   7.537 -0.5688  2.3493 -0.1376
67664SOL    HW210108  10.229   7.945   7.520 -0.8311  1.1345  3.0396
67665SOL     OW10109  12.715   9.849  10.783 -0.1369 -0.2976 -0.0633
67665SOL    HW110110  12.699   9.944  10.778  1.6543  0.0661  0.4698
67665SOL    HW210111  12.786   9.834  10.722 -0.3969 -1.3200 -0.1269
67666SOL     OW10112   1.569   1.984   2.208  0.2491 -0.1640 -0.4455
67666SOL    HW110113   1.500   1.989   2.274  0.7983  1.0668  0.0615
67666SOL    HW210114   1.575   2.073   2.173 -1.8843 -1.2100 -4.1481
67667SOL     OW10115   7.672  12.860   1.332  0.1667 -0.5271  0.2192
67667SOL    HW110116   7.613  12.907   1.391 -0.5310 -1.4658  0.2872
67667SOL    HW210117   7.672  12.770   1.365  0.2248 -0.9398 -0.8695
67668SOL     OW10118   4.564  11.661  12.897 -0.3576  0.2482  0.2784
67668SOL    HW110119   4.540  11.740  12.849  2.4431  1.7797  1.1766
67668SOL    HW210120   4.628  11.691  12.962  0.3895 -2.6931  1.0350
67669SOL     OW10121   2.949   0.640   0.711  0.1992  0.0965  0.1977
67669SOL    HW110122   3.041   0.629   0.737 -0.1994 -0.6197  1.4535
67669SOL    HW210123   2.908   0.557   0.737 -0.5354 -0.1414 -1.6333
67670SOL     OW10124   4.672  11.885   6.198  0.0142 -0.0023  0.0783
67670SOL    HW110125   4.581  11.908   6.218 -0.1199 -1.6971  1.7316
67670SOL    HW210126   4.708  11.856   6.282  1.3384 -1.7172 -1.0121
67671SOL     OW10127   6.778  12.275   2.414 -0.1167 -0.0303  0.0372
67671SOL    HW110128   6.845  12.264   2.347  0.6944  0.7115  0.7072
67671SOL    HW210129   6.706  12.320   2.370  0.4317  0.5091 -0.3178
67672SOL     OW10130   3.367   1.529  12.403 -0.3228  0.2279  0.0169
67672SOL    HW110131   3.456   1.560  12.383 -1.4405  2.6463 -1.6735
67672SOL    HW210132   3.345   1.572  12.485 -0.4675  0.8809 -0.3560
67673SOL     OW10133   0.932   6.305   9.783 -0.4594  0.0193  0.6929
67673SOL    HW110134   0.989   6.321   9.707  0.7784 -0.8908  1.3890
67673SOL    HW210135   0.954   6.217   9.811 -0.9306  0.3262  2.0890
67674SOL     OW10136   4.090   3.869   0.441  0.1678  0.5590  0.1537
67674SOL    HW110137   4.028   3.902   0.376 -1.9152 -0.2836  1.6064
67674SOL    HW210138   4.097   3.775   0.422 -2.5199 -0.2787  2.5635
67675SOL     OW10139  11.954   4.669  10.439 -0.1013 -0.0227 -0.3397
67675SOL    HW110140  12.047   4.653  10.424 -0.0693  0.0101 -0.1711
67675SOL    HW210141  11.946   4.764  10.442 -0.0767 -0.0330  0.0561
67676SOL     OW10142  10.531   4.509   1.413 -0.4386 -0.4787 -0.2126
67676SOL    HW110143  10.577   4.554   1.484 -0.0840 -0.5626 -0.3860
67676SOL    HW210144  10.526   4.418   1.442 -2.7060 -0.0648  0.9447
67677SOL     OW10145   0.775   4.718   2.055  0.8925  0.5676 -0.5412
67677SOL    HW110146   0.776   4.765   2.139  0.5537  0.3165 -0.3972
67677SOL    HW210147   0.798   4.785   1.991  1.7019  0.6432 -0.1907
67678SOL     OW10148   2.327   9.436   4.176  0.1206  0.3179 -0.3439
67678SOL    HW110149   2.238   9.421   4.208  0.9356  0.4067  2.1996
67678SOL    HW210150   2.319   9.510   4.117 -1.4571  0.5554  0.1218
67679SOL     OW10151  11.607   3.800   3.152  0.0906  0.1956  0.3485
67679SOL    HW110152  11.670   3.749   3.203 -0.2631  1.7164  2.4442
67679SOL    HW210153  11.523   3.784   3.194 -0.3808  0.7572 -0.3534
67680SOL     OW10154   3.666   1.230   2.636 -0.7279  0.1439  0.2203
67680SOL    HW110155   3.595   1.188   2.684  1.3297 -0.7608  2.6692
67680SOL    HW210156   3.694   1.165   2.572  1.1277 -1.6259  2.6671
67681SOL     OW10157   6.523   1.244   4.721  0.4031  0.5776  0.2660
67681SOL    HW110158   6.599   1.278   4.769  0.5128  0.4755  0.1621
67681SOL    HW210159   6.461   1.317   4.722 -0.4708 -0.0947  2.4575
67682SOL     OW10160   1.195   8.912  10.788 -0.3120  0.3282 -0.1809
67682SOL    HW110161   1.169   8.888  10.699  1.5669  0.9540 -0.9576
67682SOL    HW210162   1.270   8.856  10.807  1.1413  2.1800 -0.1661
67683SOL     OW10163   0.803   4.785   0.055 -0.0929 -0.0352 -0.6698
67683SOL    HW110164   0.851   4.866   0.075 -1.8493  0.4189  2.5231
67683SOL    HW210165   0.839   4.720   0.116 -4.1577  0.7307  3.0853
67684SOL     OW10166   9.805   8.150  10.187 -0.3000 -0.5637  0.1008
67684SOL    HW110167   9.777   8.149  10.096 -0.2607 -1.0563  0.0911
67684SOL    HW210168   9.785   8.062  10.219 -2.5305  0.2809  1.2454
67685SOL     OW10169   6.987   8.375  10.412  0.2796  0.0247 -0.1351
67685SOL    HW110170   7.014   8.306  10.472 -0.9028 -0.2871  0.0593
67685SOL    HW210171   6.916   8.420  10.457 -0.2927  0.1050 -1.0817
67686SOL     OW10172  12.673  12.953   5.163  0.6533 -0.2092  0.5059
67686SOL    HW110173  12.740  12.935   5.230  1.3886 -0.2963 -0.2323
67686SOL    HW210174  12.723  12.961   5.081 -0.4757 -4.5255 -0.9091
67687SOL     OW10175   1.166   5.014   3.573  0.8892 -0.0292  0.4244
67687SOL    HW110176   1.124   4.935   3.539  0.9640 -0.6526  1.7082
67687SOL    HW210177   1.244   4.982   3.618  0.9362  0.7690  0.9343
67688SOL     OW10178   9.174   0.100   8.566  0.2549 -0.2299  0.1145
67688SOL    HW110179   9.133   0.018   8.538 -1.6318  0.7228 -0.0802
67688SOL    HW210180   9.132   0.121   8.649  2.6023 -0.7275  1.5434
67689SOL     OW10181  12.148   8.958   8.746 -0.3418 -0.7487  0.0349
67689SOL    HW110182  12.167   9.051   8.757  3.2092 -1.3061 -0.1368
67689SOL    HW210183  12.092   8.935   8.820 -0.5815  1.3165  0.5484
67690SOL     OW10184   6.210  12.333   8.735 -0.2104 -0.5305 -0.2531
67690SOL    HW110185   6.276  12.272   8.703  0.5476  0.2666 -0.2347
67690SOL    HW210186   6.199  12.396   8.664  0.4164  0.4060  0.4627
67691SOL     OW10187  12.768   1.089   7.506 -0.0235  0.4516  0.3667
67691SOL    HW110188  12.747   1.046   7.422  0.7150 -1.2109  0.9817
67691SOL    HW210189  12.851   1.134   7.489 -0.1304  0.5421  0.0681
67692SOL     OW10190   8.491   8.182   2.261 -0.1352  0.3690 -0.4926
67692SOL    HW110191   8.480   8.167   2.355 -1.0310 -1.6893 -0.8806
67692SOL    HW210192   8.552   8.114   2.233  0.3342  1.1359 -1.3952
67693SOL     OW10193   1.005   5.026   4.026 -0.5149 -0.0602 -0.1329
67693SOL    HW110194   0.971   5.047   3.939 -1.3256  0.9254  0.4053
67693SOL    HW210195   0.971   5.094   4.083  1.6140  0.4527  0.6292
67694SOL     OW10196   1.900  12.107  11.497 -0.2318  0.1780  0.0076
67694SOL    HW110197   1.844  12.087  11.573 -0.7244  0.0495 -0.3793
67694SOL    HW210198   1.865  12.188  11.462 -0.9379 -0.5024 -0.9264
67695SOL     OW10199   8.944   9.806  11.518 -0.2767  0.3036 -0.3348
67695SOL    HW110200   8.986   9.823  11.602  0.7325  2.0215 -1.1271
67695SOL    HW210201   8.997   9.737  11.478 -0.8103 -0.5803  0.4278
67696SOL     OW10202  10.402   5.295   3.975  0.2377 -0.5016  0.6689
67696SOL    HW110203  10.489   5.330   3.957  1.2811 -3.5561 -1.0436
67696SOL    HW210204  10.346   5.331   3.905  1.2690 -2.0547 -1.0473
67697SOL     OW10205   9.589  12.827   8.040  1.0910  0.0622  0.3859
67697SOL    HW110206   9.590  12.923   8.042  0.1935  0.0725  0.4172
67697SOL    HW210207   9.618  12.802   8.128 -0.5910  0.3274  1.0440
67698SOL     OW10208   8.460   0.253  11.582 -0.3367  0.3891  0.4520
67698SOL    HW110209   8.416   0.245  11.666  1.9854  0.4554  1.7459
67698SOL    HW210210   8.413   0.192  11.524 -0.5149 -1.5077  2.4607
67699SOL     OW10211  11.552   5.082  10.545  0.0672 -0.6833 -0.1092
67699SOL    HW110212  11.512   5.169  10.548  0.2330 -0.6345  0.9857
67699SOL    HW210213  11.616   5.088  10.474  1.6643  0.8264  1.3416
67700SOL     OW10214   7.363  10.841   2.223 -0.1546  0.2491  0.1829
67700SOL    HW110215   7.356  10.746   2.236 -1.1775  0.3538  0.4261
67700SOL    HW210216   7.278  10.876   2.250  0.0200  1.1803 -0.4302
67701SOL     OW10217   3.000   9.893   8.628  0.1466  1.2196 -0.0816
67701SOL    HW110218   3.034   9.858   8.546  0.3558 -0.2339  0.5858
67701SOL    HW210219   2.906   9.900   8.615 -0.1429 -1.2258  0.2751
67702SOL     OW10220   8.737   7.808   7.390  0.4094  0.1927  0.1064
67702SOL    HW110221   8.736   7.713   7.380  3.1411 -0.1217  1.8390
67702SOL    HW210222   8.789   7.839   7.316 -2.4001  0.6896 -1.8146
67703SOL     OW10223   1.707  12.820  10.226  0.4531  0.0138 -0.1383
67703SOL    HW110224   1.733  12.911  10.241  1.2813 -0.0275 -1.1710
67703SOL    HW210225   1.723  12.806  10.132 -0.7309 -0.8616 -0.2283
67704SOL     OW10226   8.566   5.989   9.877  0.2130 -0.1673 -0.2185
67704SOL    HW110227   8.578   6.056   9.810  1.3687  1.0728  1.1462
67704SOL    HW210228   8.472   5.988   9.894  0.1302  0.7938 -0.5864
67705SOL     OW10229   1.319   7.138   8.991  0.2595  0.4780  0.2345
67705SOL    HW110230   1.287   7.198   9.058 -0.9021  0.7431 -0.5282
67705SOL    HW210231   1.285   7.052   9.018  0.6762  0.4051  0.5357
67706SOL     OW10232   9.811   4.279   9.077  0.2302 -0.5228  0.2557
67706SOL    HW110233   9.853   4.201   9.112 -1.2899 -1.2324  0.6188
67706SOL    HW210234   9.721   4.251   9.058 -0.1248  0.9283 -0.3831
67707SOL     OW10235   0.935  12.833   3.224 -0.1958  0.5084  0.3774
67707SOL    HW110236   1.000  12.811   3.157 -2.9312 -2.9562 -1.5122
67707SOL    HW210237   0.936  12.758   3.284 -0.6650  1.6042  1.8022
67708SOL     OW10238   7.111   1.330  10.710  0.2228  0.2767  0.1361
67708SOL    HW110239   7.190   1.289  10.744  1.1916 -1.1998 -3.3918
67708SOL    HW210240   7.040   1.291  10.760  1.5536 -0.5955  1.4329
67709SOL     OW10241  12.027   6.839   4.247 -0.4815 -0.0872  0.2346
67709SOL    HW110242  12.085   6.786   4.303 -2.0745 -1.3271  0.7884
67709SOL    HW210243  12.076   6.848   4.166 -0.2603 -2.8336 -0.0483
67710SOL     OW10244   0.923   5.459   6.447  0.7022 -0.3169 -0.1861
67710SOL    HW110245   0.904   5.369   6.419 -1.2536 -0.1120  0.3488
67710SOL    HW210246   0.865   5.513   6.393  0.5829  0.4805  0.7225
67711SOL     OW10247   3.378  11.794  10.072  0.3204 -0.3258  0.6639
67711SOL    HW110248   3.377  11.839  10.156 -0.0301  1.7816 -0.3957
67711SOL    HW210249   3.306  11.731  10.078 -0.2243  0.3608  1.6375
67712SOL     OW10250  10.027   4.987   8.543 -0.1244 -0.3581 -0.4087
67712SOL    HW110251   9.993   5.061   8.493 -0.9018  1.1347  2.1484
67712SOL    HW210252  10.122   5.000   8.544 -0.3594  1.8677  1.6798
67713SOL     OW10253   7.394   8.913   6.525  0.5063 -0.1582 -0.4575
67713SOL    HW110254   7.372   8.995   6.569 -1.7353 -0.7980 -0.2411
67713SOL    HW210255   7.460   8.937   6.461  1.3438  1.4314  0.9265
67714SOL     OW10256   4.975   6.500   4.277 -0.0900  0.4020 -0.2251
67714SOL    HW110257   5.042   6.433   4.263 -0.6272 -0.7391  2.1200
67714SOL    HW210258   5.024   6.581   4.289  0.6541  0.2041 -1.7007
67715SOL     OW10259   3.514   2.159   1.237  0.0574 -0.4135  0.7941
67715SOL    HW110260   3.592   2.143   1.185 -0.9515 -3.9268  0.0956
67715SOL    HW210261   3.529   2.111   1.319 -0.4608  0.8275  1.6570
67716SOL     OW10262  11.199   6.317   3.537 -0.0372  0.5091  0.1604
67716SOL    HW110263  11.184   6.286   3.448  1.5229  4.5761 -1.8031
67716SOL    HW210264  11.121   6.368   3.558  0.9216  2.2901 -0.3687
67717SOL     OW10265   3.392   4.661   1.219  0.2324 -0.4581  0.3067
67717SOL    HW110266   3.299   4.667   1.195  0.3996  0.3012 -0.1957
67717SOL    HW210267   3.403   4.572   1.253 -0.4388 -0.9175 -0.6484
67718SOL     OW10268   8.286   6.928  12.572  0.1351 -0.0530 -0.2503
67718SOL    HW110269   8.238   6.925  12.490  0.6685 -1.3967 -0.5427
67718SOL    HW210270   8.304   6.836  12.593 -0.0666  0.2526  1.4118
67719SOL     OW10271   0.396   2.572   4.603  0.1121 -0.4621  0.4904
67719SOL    HW110272   0.367   2.534   4.686 -0.9697 -0.3293  0.1931
67719SOL    HW210273   0.341   2.530   4.537 -0.3257  0.7751  0.0342
67720SOL     OW10274   2.119   9.663   2.812  0.0980  0.8894  0.9449
67720SOL    HW110275   2.189   9.609   2.776 -0.8887 -0.4115  0.9075
67720SOL    HW210276   2.041   9.636   2.763 -1.1664 -0.4185  3.4715
67721SOL     OW10277  12.157   5.455   4.444  0.4332  0.2390  0.1075
67721SOL    HW110278  12.207   5.381   4.477  0.5183  0.5813  0.7625
67721SOL    HW210279  12.221   5.509   4.398  0.3794 -0.0656 -0.3329
67722SOL     OW10280   2.072   3.825   0.386 -0.2847  0.0802  0.3789
67722SOL    HW110281   2.075   3.730   0.398  2.4297  0.1687  1.2302
67722SOL    HW210282   2.085   3.838   0.292 -0.4276 -0.3990  0.2920
67723SOL     OW10283   0.396   3.687   5.543  0.0709 -0.5391 -0.0803
67723SOL    HW110284   0.404   3.697   5.638 -1.7052  1.7402 -0.0871
67723SOL    HW210285   0.326   3.623   5.532  0.0677 -0.5783  0.1526
67724SOL     OW10286   6.479   6.965   4.284 -0.0831  0.2697 -0.0890
67724SOL    HW110287   6.545   6.987   4.350 -0.0941 -0.6143  0.2277
67724SOL    HW210288   6.425   6.899   4.326  0.3261 -0.8272 -1.2168
67725SOL     OW10289   2.123   7.274   4.213  0.1231  0.2994  0.1994
67725SOL    HW110290   2.065   7.222   4.268 -1.4415  0.3502 -1.3358
67725SOL    HW210291   2.145   7.216   4.140  4.3234 -0.7633  1.9660
67726SOL     OW10292   3.123   0.316   9.359 -0.1207  0.2565 -0.1158
67726SOL    HW110293   3.164   0.336   9.444 -1.4799  1.3594  0.3318
67726SOL    HW210294   3.063   0.389   9.345 -0.6782 -0.4532 -1.5407
67727SOL     OW10295   8.761   5.575   0.315 -0.2223  0.1115  0.4465
67727SOL    HW110296   8.781   5.667   0.297  1.1004 -0.1447  0.4649
67727SOL    HW210297   8.786   5.529   0.235  0.1649 -0.3520  0.8297
67728SOL     OW10298   4.938   3.718   2.652 -0.4114  0.4704  0.1811
67728SOL    HW110299   4.972   3.795   2.606 -1.6045  1.1401  0.3733
67728SOL    HW210300   4.850   3.743   2.679 -0.7453 -0.8958  0.4474
67729SOL     OW10301   7.486   5.698  11.245  0.0787  0.4891 -0.4908
67729SOL    HW110302   7.491   5.618  11.296  0.6741  2.0308  2.0510
67729SOL    HW210303   7.517   5.673  11.158  0.4418 -1.9510  0.2600
67730SOL     OW10304   3.773   6.340  10.159  0.3156  0.5322  0.1439
67730SOL    HW110305   3.749   6.430  10.140 -0.0927  0.1198 -1.4936
67730SOL    HW210306   3.725   6.318  10.239 -1.8739  0.9146 -0.9820
67731SOL     OW10307   8.969   1.166   6.934  0.0582  0.0911  0.3090
67731SOL    HW110308   9.057   1.198   6.955 -0.6564  1.5541  1.2230
67731SOL    HW210309   8.967   1.077   6.969  1.1957 -0.0024  0.1920
67732SOL     OW10310  10.810   0.585  10.222 -0.1303  0.3555 -0.4607
67732SOL    HW110311  10.810   0.517  10.154  0.5478  0.3963 -0.5071
67732SOL    HW210312  10.875   0.555  10.286  1.4633  1.7730 -1.3202
67733SOL     OW10313  12.967  12.740   1.912  0.0556  0.5518  0.3418
67733SOL    HW110314  13.020  12.661   1.901  0.7422  0.7318  2.0591
67733SOL    HW210315  12.991  12.796   1.837 -0.5415 -0.8739 -0.9690
67734SOL     OW10316   1.373  11.465  12.438 -0.1824 -0.1714 -0.5055
67734SOL    HW110317   1.284  11.436  12.420 -0.6704  0.8890  0.1218
67734SOL    HW210318   1.369  11.560  12.432  1.2513 -0.1566 -1.9800
67735SOL     OW10319  10.996  12.688   7.903  0.4641 -0.0970 -0.7836
67735SOL    HW110320  11.068  12.646   7.950 -0.2816  1.3434  1.8357
67735SOL    HW210321  10.955  12.745   7.968 -1.4463  1.1006 -2.9036
67736SOL     OW10322   3.688   6.691   0.172  0.8705 -0.1213  0.0622
67736SOL    HW110323   3.752   6.733   0.115  0.5092  1.7463  0.9591
67736SOL    HW210324   3.608   6.742   0.159  0.3583 -0.6480  1.0517
67737SOL     OW10325   7.951   3.920   5.410  0.3199 -0.2683 -0.2978
67737SOL    HW110326   7.903   3.887   5.485  1.0778 -0.3996  0.1397
67737SOL    HW210327   7.884   3.959   5.353 -0.0251  2.1687  1.6253
67738SOL     OW10328   1.987   1.586  11.014  0.5041  0.6014 -0.5467
67738SOL    HW110329   2.039   1.580  11.094  0.7527 -1.3793 -0.7870
67738SOL    HW210330   2.015   1.510  10.962 -1.1340  0.6597 -1.5954
67739SOL     OW10331   4.160   4.355   0.150  0.7521  0.6829  0.4151
67739SOL    HW110332   4.097   4.360   0.222 -1.2720 -0.7180 -1.1365
67739SOL    HW210333   4.183   4.262   0.146  1.4626  0.8860 -0.2383
67740SOL     OW10334  10.343   3.659   6.648  0.9017 -0.0342  0.2803
67740SOL    HW110335  10.371   3.635   6.736  0.9076 -0.4820  0.1587
67740SOL    HW210336  10.415   3.629   6.591  1.2698  0.9798  0.2000
67741SOL     OW10337  11.449  10.491   2.671 -0.3309 -0.3817  0.4227
67741SOL    HW110338  11.377  10.520   2.615 -0.5217  0.5794  1.1296
67741SOL    HW210339  11.522  10.478   2.611 -0.7731 -0.2414 -0.1594
67742SOL     OW10340   0.118   4.791   7.787  0.4031 -0.2097 -0.0867
67742SOL    HW110341   0.079   4.869   7.749  2.0885  0.5411 -0.3972
67742SOL    HW210342   0.058   4.765   7.856 -1.1408  0.2361 -1.2126
67743SOL     OW10343  12.708   9.877   3.928 -0.1667 -0.4492  0.0011
67743SOL    HW110344  12.777   9.936   3.958  0.1405  0.1104 -1.6992
67743SOL    HW210345  12.627   9.928   3.939 -0.0037 -0.0604 -0.5352
67744SOL     OW10346   4.973   9.041   1.851  1.0589 -0.4987  0.7554
67744SOL    HW110347   5.053   8.994   1.875  2.3495  2.1328  2.0578
67744SOL    HW210348   5.002   9.105   1.786 -0.5218 -1.0438 -0.5525
67745SOL     OW10349   0.956   6.585   1.657  0.0465 -0.2286  0.7264
67745SOL    HW110350   0.907   6.636   1.721  0.0214  0.0994  0.4516
67745SOL    HW210351   0.900   6.584   1.579  0.0097 -0.7494  0.7579
67746SOL     OW10352  12.157   2.741   6.562 -0.3151 -0.3369 -0.0448
67746SOL    HW110353  12.178   2.751   6.469  1.6398  0.0027  0.3998
67746SOL    HW210354  12.149   2.646   6.575  1.7556 -0.5623 -0.1199
67747SOL     OW10355   8.941   4.544   0.865 -0.5585  0.5561  0.0455
67747SOL    HW110356   8.968   4.620   0.813  0.1962  1.3813  1.5582
67747SOL    HW210357   8.847   4.553   0.875 -0.5394  1.0282 -0.1985
67748SOL     OW10358   7.150   1.915   4.252  0.1503  0.0063 -0.2142
67748SOL    HW110359   7.095   1.870   4.187  0.2834 -0.1461 -0.2203
67748SOL    HW210360   7.239   1.896   4.225  0.2144 -1.0233  0.6822
67749SOL     OW10361   0.207   6.795   5.670  0.1834 -0.2366  0.4858
67749SOL    HW110362   0.246   6.730   5.613  0.6194  0.7191 -0.3443
67749SOL    HW210363   0.278   6.821   5.729  0.0688 -0.3713  0.6830
67750SOL     OW10364  12.332   9.907   3.203  0.1755  0.8644 -0.5875
67750SOL    HW110365  12.420   9.940   3.221  0.0440  0.4187  1.0756
67750SOL    HW210366  12.335   9.816   3.231 -0.2677  0.2682 -2.4129
67751SOL     OW10367   4.544   7.172   8.054 -0.1139  0.0057  0.1179
67751SOL    HW110368   4.490   7.157   7.977 -0.8516  0.0327  0.6237
67751SOL    HW210369   4.634   7.165   8.022 -0.3528  1.9980 -1.1763
67752SOL     OW10370   7.631  11.205   6.314 -0.0576  0.2935 -0.6043
67752SOL    HW110371   7.616  11.114   6.289 -0.4241 -0.0780  0.8425
67752SOL    HW210372   7.562  11.224   6.377  0.0199  1.5830 -0.8806
67753SOL     OW10373   4.651   5.232   8.776 -0.1053 -0.3696  0.0444
67753SOL    HW110374   4.667   5.280   8.857  1.4126 -1.0120  0.1557
67753SOL    HW210375   4.675   5.294   8.707 -0.2265 -0.2399  0.1171
67754SOL     OW10376  11.860   5.612  10.689  0.8966 -0.2205  0.0866
67754SOL    HW110377  11.867   5.591  10.596  1.1560 -0.0951  0.0784
67754SOL    HW210378  11.938   5.576  10.729  0.0605 -1.6124  0.5199
67755SOL     OW10379  12.192   7.063   8.309 -0.2183  0.5253 -0.3012
67755SOL    HW110380  12.168   6.973   8.284 -1.3736  0.9659 -0.8446
67755SOL    HW210381  12.279   7.076   8.271 -0.9792  0.3936 -2.1858
67756SOL     OW10382   4.349   4.063  12.856  0.3426 -0.3314 -0.5388
67756SOL    HW110383   4.338   3.969  12.864  0.8323 -0.3487  0.0343
67756SOL    HW210384   4.353   4.094  12.947  0.1381  0.2399 -0.7228
67757SOL     OW10385   3.865   7.991  12.872  0.0740  0.3498  0.4303
67757SOL    HW110386   3.837   8.042  12.948 -0.4954 -1.5809  1.6016
67757SOL    HW210387   3.936   7.936  12.906 -0.1071 -0.4509 -0.4543
67758SOL     OW10388   1.256   7.962   6.735  0.0121  0.1343 -0.3784
67758SOL    HW110389   1.327   7.999   6.682  0.9200  0.0160  0.7221
67758SOL    HW210390   1.293   7.954   6.823 -2.2032  2.5964  0.9300
67759SOL     OW10391   1.677   3.425   0.475 -0.0601  0.2601  0.0396
67759SOL    HW110392   1.684   3.488   0.404  0.3114  1.4390  1.0837
67759SOL    HW210393   1.747   3.362   0.458  1.7785  2.0150  0.7577
67760SOL     OW10394   2.147  11.087  10.735  0.0938  0.7955 -0.2978
67760SOL    HW110395   2.155  11.013  10.794  2.8625  0.7764 -0.5794
67760SOL    HW210396   2.166  11.163  10.790 -0.9995  1.1654 -0.4001
67761SOL     OW10397   6.702   4.436   5.182 -0.4558  0.1905  0.7462
67761SOL    HW110398   6.617   4.395   5.197  0.6158 -2.0084  1.1630
67761SOL    HW210399   6.730   4.465   5.268 -0.2977 -0.0953  0.7919
67762SOL     OW10400   7.952   4.186   6.658  0.4424 -0.4753 -0.2472
67762SOL    HW110401   7.970   4.099   6.694 -0.1809 -0.9547 -1.0456
67762SOL    HW210402   7.857   4.194   6.663  0.4869  0.1060 -0.3146
67763SOL     OW10403   2.470   4.063   4.563  0.6576 -0.6387 -0.6964
67763SOL    HW110404   2.530   3.997   4.529  1.9169 -0.1965  0.5813
67763SOL    HW210405   2.383   4.023   4.554  1.3513 -2.3309 -0.2883
67764SOL     OW10406   2.095   5.964  10.689  0.5042  0.3560  0.1726
67764SOL    HW110407   2.066   5.990  10.776 -0.1828  0.1468  0.0051
67764SOL    HW210408   2.060   6.032  10.631 -0.8012 -0.5948 -0.1929
67765SOL     OW10409   1.267   5.873   3.282  0.0807 -0.4842 -0.1253
67765SOL    HW110410   1.315   5.797   3.315  0.1344  0.1133  1.2526
67765SOL    HW210411   1.188   5.877   3.336 -0.0380  0.2867 -0.3418
67766SOL     OW10412   2.575   6.668   4.473 -0.0826 -0.4049 -0.5206
67766SOL    HW110413   2.505   6.711   4.425  1.2456  3.2287  0.4268
67766SOL    HW210414   2.648   6.664   4.411  0.9861  2.4239  0.3927
67767SOL     OW10415  12.128   0.831   1.193 -0.0569 -0.4934 -0.3149
67767SOL    HW110416  12.088   0.792   1.115  0.5500 -1.1042 -0.3238
67767SOL    HW210417  12.063   0.895   1.223 -0.7196 -0.9505 -0.7499
67768SOL     OW10418  11.153   3.448   9.321 -0.7730 -0.1041  0.1734
67768SOL    HW110419  11.211   3.510   9.367  0.1000 -0.0509 -0.9485
67768SOL    HW210420  11.202   3.366   9.318 -0.8223 -0.1129 -0.6294
67769SOL     OW10421   5.111  11.269  11.132 -0.0903 -0.4628  0.0135
67769SOL    HW110422   5.047  11.237  11.196 -0.5446  0.3313 -0.0430
67769SOL    HW210423   5.187  11.211  11.145 -0.5858 -1.0267  0.4934
67770SOL     OW10424   7.230   8.777   2.742  0.0209  0.4400  0.1439
67770SOL    HW110425   7.309   8.732   2.771 -0.3483  0.4408  1.1753
67770SOL    HW210426   7.228   8.859   2.792 -0.6886  0.3888  0.2120
67771SOL     OW10427   6.192   2.351   4.824  0.0519  0.5824  0.2778
67771SOL    HW110428   6.103   2.331   4.795 -0.1093  1.4808  0.1163
67771SOL    HW210429   6.189   2.341   4.919 -0.2298  0.6247  0.2756
67772SOL     OW10430  10.010   2.894   1.362 -0.0712 -0.2558  0.1089
67772SOL    HW110431   9.987   2.803   1.340  1.2237 -0.3234 -1.0973
67772SOL    HW210432   9.973   2.946   1.291  0.0610  0.0528  0.2643
67773SOL     OW10433   7.223   5.695   7.940  0.3604 -0.3059 -0.1401
67773SOL    HW110434   7.149   5.749   7.968 -0.4756 -1.7316  0.5457
67773SOL    HW210435   7.252   5.650   8.019  1.9698  0.2013 -0.4039
67774SOL     OW10436  12.587  12.549   4.531 -0.1774  0.3032  0.2328
67774SOL    HW110437  12.613  12.612   4.598 -0.1425 -0.0273  0.5316
67774SOL    HW210438  12.505  12.512   4.565  1.1601 -1.7789  1.3898
67775SOL     OW10439   3.301   5.342   2.410 -0.0880  0.1586 -0.8974
67775SOL    HW110440   3.254   5.393   2.475  0.0925  0.3212 -0.8940
67775SOL    HW210441   3.297   5.252   2.442  2.3926  0.5568  0.8247
67776SOL     OW10442  11.114   3.365   4.990 -0.0864  0.1013 -0.0955
67776SOL    HW110443  11.021   3.372   4.967  0.1180 -0.9851 -1.3159
67776SOL    HW210444  11.148   3.454   4.977 -0.4784  0.0347 -1.8856
67777SOL     OW10445  10.797   7.937  12.430  0.2016  0.3240  0.3447
67777SOL    HW110446  10.741   7.974  12.361  0.4577 -1.1072 -0.6780
67777SOL    HW210447  10.882   7.980  12.418 -0.1117  1.0197  0.6000
67778SOL     OW10448   7.345  10.737  10.431  0.2942 -0.7622 -0.0799
67778SOL    HW110449   7.329  10.645  10.413 -1.5035 -0.5255  0.0395
67778SOL    HW210450   7.348  10.778  10.344  0.1783 -0.8158 -0.1102
67779SOL     OW10451  10.875   1.350   5.777  0.0068 -0.5136 -0.0869
67779SOL    HW110452  10.953   1.364   5.723 -0.4718 -0.3414 -0.7505
67779SOL    HW210453  10.872   1.256   5.791  1.4988 -0.3520  1.7433
67780SOL     OW10454   9.628   1.485   8.521  0.4056 -0.3486  0.0410
67780SOL    HW110455   9.704   1.509   8.469  0.5154  1.2421  0.8478
67780SOL    HW210456   9.664   1.453   8.604  0.3327  2.6728  1.4057
67781SOL     OW10457   2.314  10.588   3.324 -0.1278 -0.4615  1.0716
67781SOL    HW110458   2.371  10.513   3.343  1.2570 -0.1106 -1.3252
67781SOL    HW210459   2.307  10.589   3.229 -2.6923  0.6441  1.2095
67782SOL     OW10460  11.312   1.319  12.207 -0.0450  0.1253  0.2491
67782SOL    HW110461  11.327   1.407  12.242 -1.1848 -0.0157  1.1441
67782SOL    HW210462  11.260   1.333  12.127  2.5836  0.4491 -1.5352
67783SOL     OW10463   6.771  11.326   2.190 -0.1515 -0.5488  0.1684
67783SOL    HW110464   6.857  11.366   2.204  0.4746 -1.8459  0.1944
67783SOL    HW210465   6.771  11.301   2.098 -1.3328  1.2470 -0.3789
67784SOL     OW10466  12.023   6.677  10.173  0.1868 -0.0153 -0.4344
67784SOL    HW110467  12.022   6.772  10.181 -1.1606 -0.0031 -0.5201
67784SOL    HW210468  12.113   6.652  10.193  1.0902  1.4385 -2.3443
67785SOL     OW10469  12.507   6.206   2.553  0.0614 -0.4255 -0.2839
67785SOL    HW110470  12.573   6.194   2.484 -1.0281  0.6327 -1.5689
67785SOL    HW210471  12.553   6.256   2.621  0.7473 -0.2063 -0.8917
67786SOL     OW10472   3.493   8.323  12.806 -0.1810  0.0576 -0.7695
67786SOL    HW110473   3.464   8.243  12.761 -0.9480  0.4471 -0.9875
67786SOL    HW210474   3.585   8.333  12.780 -0.0816 -0.7330 -0.7607
67787SOL     OW10475  10.813   2.011   9.953 -0.0617  0.0283 -0.0510
67787SOL    HW110476  10.742   1.949   9.969  0.7538 -0.5059  1.7309
67787SOL    HW210477  10.841   2.039  10.040  1.0548  1.2294 -0.7562
67788SOL     OW10478   8.352   1.754   8.748  0.4169  0.3131  0.4485
67788SOL    HW110479   8.346   1.820   8.679 -2.1692  0.5729  0.8190
67788SOL    HW210480   8.359   1.671   8.701 -1.2284  0.4915 -0.1957
67789SOL     OW10481  12.415  12.085   2.976  0.3403  0.3239  0.5228
67789SOL    HW110482  12.471  12.122   3.044  0.1324  0.8670  0.4031
67789SOL    HW210483  12.456  12.002   2.955  0.4500  0.1788  1.2610
67790SOL     OW10484  10.059   6.240   2.172  0.0179 -0.5444  0.1982
67790SOL    HW110485  10.139   6.288   2.150 -1.1146  1.3880  0.0748
67790SOL    HW210486  10.078   6.199   2.257  0.9287  0.4394  0.4908
67791SOL     OW10487   3.852   3.220   6.426 -0.0686 -0.1099 -0.4582
67791SOL    HW110488   3.903   3.161   6.372 -1.9238 -1.1207 -1.2039
67791SOL    HW210489   3.896   3.305   6.418  1.6826 -1.0084 -0.7060
67792SOL     OW10490   2.240   0.393   7.632  0.1444  0.2352  0.4789
67792SOL    HW110491   2.285   0.329   7.687  0.9779  2.0633  2.0623
67792SOL    HW210492   2.166   0.423   7.686 -0.9254 -0.2065 -0.6971
67793SOL     OW10493   8.389   2.991   9.815 -0.2049  0.2763 -0.1707
67793SOL    HW110494   8.420   2.918   9.762 -2.6232 -0.8309 -0.2058
67793SOL    HW210495   8.354   2.951   9.895 -2.2985  1.2280 -0.5248
67794SOL     OW10496   4.487  10.823  11.183 -0.3590 -0.2477  0.2427
67794SOL    HW110497   4.395  10.849  11.185 -0.1000  0.8027 -0.6144
67794SOL    HW210498   4.522  10.850  11.267 -0.5276  0.5864  0.0549
67795SOL     OW10499  12.943   2.558   2.996 -0.2029 -0.7984 -0.3171
67795SOL    HW110500  12.937   2.472   3.039 -0.2332 -0.7579 -0.2396
67795SOL    HW210501  12.939   2.620   3.068 -0.3622 -0.7266 -0.3879
67796SOL     OW10502  12.713   8.231  10.469 -0.6574  0.1426 -0.3565
67796SOL    HW110503  12.629   8.266  10.498 -0.9077  1.3262 -2.3198
67796SOL    HW210504  12.777   8.268  10.530 -1.3591  0.8161 -0.0177
67797SOL     OW10505   8.546   0.258   5.883 -0.1290 -0.0655  0.1745
67797SOL    HW110506   8.573   0.309   5.806 -1.1863  0.1139 -0.1035
67797SOL    HW210507   8.617   0.271   5.946 -0.0653  1.2495 -0.1193
67798SOL     OW10508   8.430   2.666  11.130 -0.5713 -0.2557  0.5705
67798SOL    HW110509   8.443   2.747  11.081  1.5785 -0.5145  0.6438
67798SOL    HW210510   8.461   2.686  11.218 -2.1348 -0.5209  1.2170
67799SOL     OW10511   5.458   1.467   7.702  0.6031 -0.4709  0.0790
67799SOL    HW110512   5.440   1.525   7.776  1.8907  0.2324 -0.1225
67799SOL    HW210513   5.456   1.379   7.739 -0.0261 -0.2171  0.6734
67800SOL     OW10514   2.766   8.098   3.639  0.5228 -0.6426  0.1146
67800SOL    HW110515   2.790   8.159   3.569 -0.8624 -0.1440  0.0455
67800SOL    HW210516   2.821   8.021   3.624 -1.0623 -1.3497 -2.7196
67801SOL     OW10517   5.606   8.433   0.373  0.0290 -0.0792  0.1125
67801SOL    HW110518   5.551   8.438   0.295  0.9283  0.4403 -0.5040
67801SOL    HW210519   5.547   8.405   0.443 -1.4333  2.2995 -0.1004
67802SOL     OW10520   4.892  11.280   1.474 -0.2875  0.1972 -0.7348
67802SOL    HW110521   4.826  11.226   1.516 -0.6947  0.3844 -1.1198
67802SOL    HW210522   4.930  11.332   1.545 -1.5136  1.0879 -0.6954
67803SOL     OW10523   8.567   8.432   7.739 -0.0627 -0.0407  0.1405
67803SOL    HW110524   8.588   8.378   7.663 -0.6985  0.1701 -0.2014
67803SOL    HW210525   8.651   8.465   7.770  0.0793  1.7235 -1.8707
67804SOL     OW10526   7.032   5.171  11.944 -0.0511  0.3721 -0.2905
67804SOL    HW110527   7.119   5.148  11.910 -0.4859 -1.8641 -0.0621
67804SOL    HW210528   7.007   5.250  11.896  2.0014  0.9466 -0.5052
67805SOL     OW10529   5.486   5.931  12.297  0.4672 -1.0411  0.0372
67805SOL    HW110530   5.434   6.012  12.298 -0.1054 -1.4033  0.9384
67805SOL    HW210531   5.425   5.863  12.268  0.5841 -1.3827  0.5839
67806SOL     OW10532  11.175  11.724   5.068 -0.1185  0.2088 -0.6332
67806SOL    HW110533  11.228  11.669   5.011  0.0759 -1.0389  0.6832
67806SOL    HW210534  11.115  11.663   5.111 -2.7105  1.5796 -2.0941
67807SOL     OW10535   0.833   9.386   1.707 -0.2204  0.1656  0.1452
67807SOL    HW110536   0.927   9.375   1.717 -0.3380 -1.3513 -0.2039
67807SOL    HW210537   0.794   9.317   1.760 -1.0508 -0.8666 -1.7037
67808SOL     OW10538   0.526  11.453  12.221  0.3953  0.2515  0.0320
67808SOL    HW110539   0.533  11.370  12.268  0.1451 -0.1036 -0.5479
67808SOL    HW210540   0.452  11.441  12.162  0.4846  0.8149 -0.1979
67809SOL     OW10541   0.392   7.056   5.216  0.4623 -0.2348 -0.3301
67809SOL    HW110542   0.386   7.144   5.179  0.1879  0.7783  1.9423
67809SOL    HW210543   0.460   7.063   5.283 -0.8832 -1.1967  1.2221
67810SOL     OW10544   4.988   0.830   0.015  0.0261 -0.5558  0.3823
67810SOL    HW110545   5.000   0.870  -0.071 -1.7303 -1.2084 -0.2211
67810SOL    HW210546   5.048   0.755   0.015  1.0788  0.2755  0.3071
67811SOL     OW10547   6.616  12.169  10.392 -0.7736  0.3687 -0.0446
67811SOL    HW110548   6.557  12.128  10.329 -1.8354 -1.2979  1.9313
67811SOL    HW210549   6.702  12.164  10.351 -1.6228  0.6521 -1.9549
67812SOL     OW10550   8.525   2.585   0.227  0.7528  0.3530 -0.2394
67812SOL    HW110551   8.581   2.626   0.293  2.3786 -1.0794 -0.6682
67812SOL    HW210552   8.562   2.613   0.144  1.6602 -1.5696 -0.5405
67813SOL     OW10553   6.170   4.558   9.313  0.0143 -0.1834 -0.3255
67813SOL    HW110554   6.115   4.495   9.265  2.1362 -0.5778 -2.4566
67813SOL    HW210555   6.168   4.527   9.404 -0.9835 -1.8610 -0.8703
67814SOL     OW10556   3.827  12.411   3.852 -0.0484 -0.1624 -0.4355
67814SOL    HW110557   3.890  12.466   3.899  0.7085 -1.4174  0.0627
67814SOL    HW210558   3.750  12.467   3.841  1.4195  1.7145 -1.8205
67815SOL     OW10559   4.883   6.813  12.895  0.0747 -0.0387 -0.1429
67815SOL    HW110560   4.806   6.777  12.852  0.7180  1.9727 -3.3556
67815SOL    HW210561   4.851   6.845  12.980 -2.4555  0.0376 -1.0401
67816SOL     OW10562   6.187   0.313  12.868  0.6165 -0.8807 -0.4676
67816SOL    HW110563   6.283   0.323  12.866  0.7225 -1.6989 -0.0369
67816SOL    HW210564   6.164   0.291  12.777  0.5591  1.4171 -1.0646
67817SOL     OW10565   0.588  10.436  11.850  0.5510 -0.2713 -0.2505
67817SOL    HW110566   0.559  10.366  11.908  0.9004 -0.2962 -0.1035
67817SOL    HW210567   0.683  10.426  11.846  0.4753 -0.6987 -1.3734
67818SOL     OW10568   6.543   5.929   2.801 -0.6553 -0.1546  0.4357
67818SOL    HW110569   6.520   5.995   2.866 -0.3297 -1.6484  2.1331
67818SOL    HW210570   6.596   5.975   2.736 -1.7504  1.5671  0.7127
67819SOL     OW10571   2.872  11.363   0.862 -0.0302  0.1831  0.1345
67819SOL    HW110572   2.808  11.420   0.904 -0.2470  0.1667 -0.1711
67819SOL    HW210573   2.906  11.309   0.933 -0.0186  0.5117  0.3767
67820SOL     OW10574   3.826   4.337   4.953  0.2601 -0.1078 -0.1368
67820SOL    HW110575   3.844   4.276   5.025  0.6228 -1.2238 -1.1359
67820SOL    HW210576   3.799   4.280   4.880  0.7825  0.9130 -1.1513
67821SOL     OW10577   5.386   2.135   1.352  0.5512 -0.1234  0.3892
67821SOL    HW110578   5.407   2.227   1.332  0.8759  0.0862  1.5659
67821SOL    HW210579   5.294   2.138   1.380  0.1483 -0.3875 -0.8474
67822SOL     OW10580   8.073   0.569  10.822  0.5458 -0.3382 -0.1192
67822SOL    HW110581   8.069   0.613  10.907 -3.1596 -1.0739  0.2649
67822SOL    HW210582   8.102   0.636  10.761  0.9356  0.8795  1.3598
67823SOL     OW10583   9.404  10.725   5.506  0.3504  0.1614  0.3688
67823SOL    HW110584   9.310  10.714   5.490  0.0106 -0.1831  2.3347
67823SOL    HW210585   9.411  10.740   5.600  2.3150 -0.3089  0.3487
67824SOL     OW10586  10.628   3.885  10.968 -0.3932 -0.1163  0.1692
67824SOL    HW110587  10.632   3.949  10.896 -0.1024  1.2080  1.3211
67824SOL    HW210588  10.681   3.924  11.037 -0.2642 -1.5993  0.9499
67825SOL     OW10589   0.767  11.624   4.467  0.0497 -0.1487  0.1532
67825SOL    HW110590   0.789  11.576   4.387 -1.7521  0.0850 -0.5295
67825SOL    HW210591   0.738  11.556   4.528 -0.0106 -0.1929  0.0765
67826SOL     OW10592   1.490   5.658   4.649 -0.1445  0.2401  0.1928
67826SOL    HW110593   1.446   5.585   4.606 -1.4983  0.6398  0.8726
67826SOL    HW210594   1.496   5.633   4.741 -1.4710  1.3420  0.6171
67827SOL     OW10595   7.770   1.560   0.671 -0.1235  0.4603 -0.4739
67827SOL    HW110596   7.859   1.596   0.677  0.3572 -0.5560 -1.3411
67827SOL    HW210597   7.779   1.469   0.698 -0.8802  0.2982 -0.7577
67828SOL     OW10598   0.285  10.783   6.561 -0.1791 -0.2405  0.4196
67828SOL    HW110599   0.237  10.866   6.567 -0.2046 -0.2630  0.5301
67828SOL    HW210600   0.219  10.716   6.576 -0.8679 -0.4721 -2.9077
67829SOL     OW10601   0.452   3.290   5.634  0.2104 -0.3706  0.4024
67829SOL    HW110602   0.401   3.370   5.624  0.1232 -0.1036  2.6567
67829SOL    HW210603   0.448   3.270   5.727 -1.0130 -3.8276 -0.2448
67830SOL     OW10604   3.243   0.717  10.738  0.1176  0.2881 -0.2682
67830SOL    HW110605   3.279   0.641  10.692 -0.0396 -0.2785  0.5248
67830SOL    HW210606   3.171   0.682  10.790  0.0063  0.9957  0.0721
67831SOL     OW10607  11.011  12.276   2.133 -0.0713  0.0463  0.4583
67831SOL    HW110608  10.975  12.319   2.210 -1.0205 -0.2667  0.2044
67831SOL    HW210609  11.084  12.224   2.167  0.1672  0.7088  0.9799
67832SOL     OW10610   2.804   1.309  12.099 -0.4701 -0.1476 -0.1784
67832SOL    HW110611   2.766   1.374  12.157 -0.7126 -0.8018  0.4093
67832SOL    HW210612   2.827   1.236  12.156  1.3693  0.0778 -0.5639
67833SOL     OW10613  10.501   5.720   2.702 -0.0934 -0.0817 -0.0264
67833SOL    HW110614  10.513   5.644   2.646 -1.1116  0.1931 -0.6491
67833SOL    HW210615  10.409   5.745   2.689  0.5054  1.9318 -0.7186
67834SOL     OW10616   3.125   9.824   1.297 -0.2368 -0.0709 -0.3114
67834SOL    HW110617   3.105   9.826   1.204  1.2589 -0.3753 -0.6608
67834SOL    HW210618   3.131   9.731   1.319 -0.2883  0.0015  0.0242
67835SOL     OW10619   0.400   1.846   6.046  0.3022  0.0325 -0.3024
67835SOL    HW110620   0.475   1.805   6.088 -0.1821 -1.1920 -0.6016
67835SOL    HW210621   0.330   1.782   6.055 -0.5266  0.8794 -0.6295
67836SOL     OW10622   6.083   0.453   0.105  0.3152  0.2956  0.0398
67836SOL    HW110623   5.988   0.455   0.111  0.2004 -3.1901  2.5214
67836SOL    HW210624   6.102   0.388   0.038  1.0483  1.3270 -0.8029
67837SOL     OW10625   7.256  10.520   8.328  0.1500  0.0544  0.0766
67837SOL    HW110626   7.261  10.507   8.234 -1.0038  0.4747 -0.0667
67837SOL    HW210627   7.245  10.432   8.364 -2.2357  0.0487 -0.4457
67838SOL     OW10628  11.438   6.998   2.034  0.4009  0.1475  0.5903
67838SOL    HW110629  11.490   6.995   1.954 -1.2807  3.6252 -0.8556
67838SOL    HW210630  11.496   7.037   2.100  0.8200  0.3738  0.0918
67839SOL     OW10631   6.771   6.400   1.358 -0.9585 -0.9731  0.8098
67839SOL    HW110632   6.849   6.353   1.326 -1.8251 -0.1683 -2.9606
67839SOL    HW210633   6.697   6.347   1.327 -1.9340 -0.0876  1.5689
67840SOL     OW10634  10.333  10.754   0.694  0.0969  0.2532  0.4394
67840SOL    HW110635  10.349  10.847   0.677  2.9223 -0.3879 -1.1421
67840SOL    HW210636  10.397  10.731   0.761  0.0630 -0.7443  0.1435
67841SOL     OW10637  10.978   5.423   9.283 -0.1537  0.3512 -0.6646
67841SOL    HW110638  11.065   5.443   9.318  0.6124 -0.9425 -1.7370
67841SOL    HW210639  10.987   5.439   9.189 -1.3782  1.1515 -0.6591
67842SOL     OW10640  12.451   4.911   8.529 -0.2298 -0.2068 -0.7810
67842SOL    HW110641  12.484   4.873   8.448 -0.8505 -0.4459 -0.9252
67842SOL    HW210642  12.464   4.843   8.595  1.5179  0.4633 -0.3704
67843SOL     OW10643   5.701   2.043   1.686 -0.3516  0.2374 -0.4613
67843SOL    HW110644   5.666   2.046   1.597  0.9667 -0.9815 -1.0665
67843SOL    HW210645   5.748   1.959   1.690  3.1422  2.0298 -0.0027
67844SOL     OW10646   1.864  12.068  11.206  0.0882 -0.0677 -0.0495
67844SOL    HW110647   1.877  12.162  11.191  0.9352 -0.0005  0.9636
67844SOL    HW210648   1.870  12.059  11.301 -1.6850 -0.9092  0.0122
67845SOL     OW10649   2.502   5.316   3.725 -0.1350 -0.2685  0.6745
67845SOL    HW110650   2.510   5.221   3.717 -0.9904 -0.3692  0.9099
67845SOL    HW210651   2.553   5.339   3.802 -2.7387 -1.0194  2.7903
67846SOL     OW10652   2.275   0.544  12.018 -0.1301 -0.1188 -0.6411
67846SOL    HW110653   2.342   0.598  11.977  0.0129  0.1009 -0.1179
67846SOL    HW210654   2.193   0.574  11.978 -0.1412  1.0081  0.1751
67847SOL     OW10655   6.184   8.028  12.512 -0.1486 -0.5422 -0.6158
67847SOL    HW110656   6.205   7.957  12.452 -0.0589 -0.5151 -0.6162
67847SOL    HW210657   6.094   8.010  12.540 -0.1892 -0.5533 -0.7586
67848SOL     OW10658   4.233   7.765   0.365 -0.3334  0.0512 -0.7845
67848SOL    HW110659   4.154   7.711   0.363  0.7861 -1.7866  1.2523
67848SOL    HW210660   4.245   7.793   0.274 -2.9433 -0.1153 -1.2488
67849SOL     OW10661   3.522   0.779   0.537  0.7177 -0.0411 -0.6415
67849SOL    HW110662   3.459   0.709   0.555  2.2289 -1.2650  0.1957
67849SOL    HW210663   3.583   0.740   0.474  1.0816  0.8509 -0.8524
67850SOL     OW10664  10.112   5.470   1.630  0.1091 -0.3605 -0.2750
67850SOL    HW110665  10.130   5.562   1.649 -1.7956 -0.1668  0.9122
67850SOL    HW210666  10.018   5.467   1.612 -0.0405 -2.1831  0.5326
67851SOL     OW10667   0.564   4.253   5.174  0.1810  0.0468  0.0972
67851SOL    HW110668   0.529   4.263   5.086 -2.0663 -0.4600  0.8653
67851SOL    HW210669   0.636   4.316   5.179  1.4470 -1.0534 -2.5771
67852SOL     OW10670   0.085  10.704   2.335 -0.5125 -0.1107 -0.1670
67852SOL    HW110671   0.171  10.740   2.316 -0.2970 -0.8041 -0.5259
67852SOL    HW210672   0.103  10.624   2.385 -0.9303 -0.4012 -0.4727
67853SOL     OW10673  10.658   5.399   3.717  0.2590  0.5292 -0.2809
67853SOL    HW110674  10.690   5.382   3.806  0.7067 -0.8640 -0.6861
67853SOL    HW210675  10.736   5.427   3.668  0.3098 -0.1518 -0.5922
67854SOL     OW10676   5.171   9.081   7.922 -0.1489 -1.2768 -0.4196
67854SOL    HW110677   5.239   9.148   7.920 -1.4447  0.0733 -1.0140
67854SOL    HW210678   5.211   9.005   7.880  0.7089 -0.2286 -1.5698
67855SOL     OW10679   8.657  11.023   6.014  0.2346 -0.7597  0.0601
67855SOL    HW110680   8.564  11.041   6.028  0.3579 -0.2168  0.1895
67855SOL    HW210681   8.658  10.967   5.937 -0.1165  0.4202 -0.8362
67856SOL     OW10682  11.122   6.585   6.509  1.0294  0.2819 -0.2501
67856SOL    HW110683  11.210   6.549   6.502  0.8011 -0.3170 -0.1543
67856SOL    HW210684  11.065   6.508   6.502  0.6026  0.2168  2.8416
67857SOL     OW10685   0.261   2.375  10.567 -0.5910  0.0506  0.4226
67857SOL    HW110686   0.176   2.335  10.549 -0.1351  0.0382 -2.0921
67857SOL    HW210687   0.323   2.326  10.512  0.6523  1.5347  0.4176
67858SOL     OW10688   6.952   6.196   0.730 -0.3470 -0.0875  0.0925
67858SOL    HW110689   6.857   6.189   0.732 -0.3460  0.0394  1.2044
67858SOL    HW210690   6.983   6.127   0.788  0.2985 -0.7150 -0.9532
67859SOL     OW10691   8.741   9.118   2.514  0.2630  0.3298  0.2950
67859SOL    HW110692   8.648   9.134   2.528  0.5999  1.5830  1.2809
67859SOL    HW210693   8.775   9.200   2.480  0.6559 -0.7503 -2.0920
67860SOL     OW10694   1.043  11.707  10.784  0.4472 -0.1878  0.0210
67860SOL    HW110695   1.058  11.621  10.825  0.6574  0.0405  0.4232
67860SOL    HW210696   1.130  11.746  10.779  0.7871 -1.0482 -2.5463
67861SOL     OW10697   6.901   9.529   3.912  0.3408  0.5078  0.0683
67861SOL    HW110698   6.827   9.539   3.973  0.4230  1.6269 -0.0087
67861SOL    HW210699   6.976   9.563   3.959  1.0369 -1.4711  0.5006
67862SOL     OW10700   4.114   0.093  12.601  0.1098  0.3881  0.2282
67862SOL    HW110701   4.032   0.061  12.564  0.2508  0.2624  0.0254
67862SOL    HW210702   4.182   0.050  12.550  0.3095  0.0314  0.7866
67863SOL     OW10703   4.992   6.012  12.863 -0.5986 -0.3198  0.0450
67863SOL    HW110704   5.078   6.054  12.866 -0.5353 -0.4662  0.4212
67863SOL    HW210705   5.003   5.940  12.801 -0.5561 -0.1140 -0.1897
67864SOL     OW10706   7.308  10.619   0.256  0.0504  0.1651  0.1787
67864SOL    HW110707   7.356  10.661   0.328 -2.8533  0.1536  2.3398
67864SOL    HW210708   7.253  10.689   0.220  2.0462  0.3817 -2.7419
67865SOL     OW10709  10.502  10.556   7.613  0.4640 -0.6342  0.3722
67865SOL    HW110710  10.557  10.573   7.690 -1.1775  0.2453  1.3980
67865SOL    HW210711  10.447  10.633   7.605 -0.6192 -1.4794 -0.6386
67866SOL     OW10712   5.102   2.647   6.640  0.2815  0.3743  0.2447
67866SOL    HW110713   5.072   2.738   6.649 -1.7160 -0.0526 -1.3149
67866SOL    HW210714   5.055   2.601   6.709 -1.0641  0.0687 -0.8367
67867SOL     OW10715  10.568   5.788  11.482 -0.6406 -0.2963  0.0136
67867SOL    HW110716  10.480   5.808  11.449 -0.7650 -0.3866  0.2860
67867SOL    HW210717  10.557   5.706  11.530 -0.4153 -0.2850  0.0838
67868SOL     OW10718   7.357   5.285   0.084  0.0675 -0.1879 -0.3166
67868SOL    HW110719   7.392   5.264   0.170 -0.5249 -2.0550 -0.4892
67868SOL    HW210720   7.418   5.350   0.048  0.4015  0.4962  1.4284
67869SOL     OW10721   3.737   3.967   3.962 -0.4058 -0.0125  0.0222
67869SOL    HW110722   3.643   3.956   3.981 -0.3188  1.3286  1.4404
67869SOL    HW210723   3.779   3.898   4.014 -0.6017 -0.9072 -0.9671
67870SOL     OW10724   7.231   5.160   2.327  0.1494  0.4550 -0.1394
67870SOL    HW110725   7.165   5.229   2.327 -0.2254  0.1138  0.8387
67870SOL    HW210726   7.271   5.165   2.240 -1.7999  0.0625 -1.1134
67871SOL     OW10727   5.285   1.056   1.402 -0.2451 -0.0816  0.3325
67871SOL    HW110728   5.302   1.146   1.429 -0.9418  0.4156 -0.8209
67871SOL    HW210729   5.212   1.027   1.457 -0.7284  0.4379 -0.0246
67872SOL     OW10730  11.869   9.008   9.398  0.0408 -0.0015  0.0184
67872SOL    HW110731  11.862   8.992   9.492 -0.0553  1.1621  0.2228
67872SOL    HW210732  11.961   9.030   9.384 -0.3621  1.9684  0.2207
67873SOL     OW10733  12.712  12.486  10.287  0.2644 -0.5650  0.6433
67873SOL    HW110734  12.657  12.459  10.214 -0.3500  0.5372  0.6804
67873SOL    HW210735  12.802  12.474  10.255  0.0023 -0.5794 -0.1010
67874SOL     OW10736   6.872   4.656  11.708 -0.1658 -0.8125 -0.5466
67874SOL    HW110737   6.886   4.737  11.758  1.7957 -1.7904  0.6040
67874SOL    HW210738   6.827   4.598  11.769  0.6447 -1.4126 -0.5113
67875SOL     OW10739   0.833   7.438   1.852  0.3609  0.3335 -0.4594
67875SOL    HW110740   0.745   7.402   1.858 -0.4326  2.2143 -0.2297
67875SOL    HW210741   0.857   7.429   1.760 -0.8149  1.4215 -0.8988
67876SOL     OW10742   0.972  10.821   8.276 -0.7114  0.5178 -0.1961
67876SOL    HW110743   1.045  10.881   8.264 -1.3128  1.5954  1.2610
67876SOL    HW210744   0.984  10.755   8.207  2.5353 -0.2741  0.9419
67877SOL     OW10745   7.756   0.294   9.867  0.1597 -0.0472 -0.4652
67877SOL    HW110746   7.818   0.272   9.936 -0.2227 -0.8082 -0.3562
67877SOL    HW210747   7.728   0.384   9.887 -0.6493 -0.5778  0.9188
67878SOL     OW10748  11.673  12.758  11.716 -0.3485  0.0642  0.6093
67878SOL    HW110749  11.601  12.818  11.697  0.7520  0.7743 -1.6747
67878SOL    HW210750  11.708  12.735  11.631  1.0900 -1.5865  1.5887
67879SOL     OW10751   8.513  10.865   4.351 -0.2474 -0.0267 -0.0570
67879SOL    HW110752   8.453  10.914   4.295 -1.9341  0.2785  1.8893
67879SOL    HW210753   8.593  10.917   4.352 -0.2524  0.0919 -1.8986
67880SOL     OW10754  11.061   6.513  10.549 -0.2161  0.5221  0.1622
67880SOL    HW110755  11.138   6.546  10.594 -0.2793 -0.5960  1.1351
67880SOL    HW210756  11.002   6.588  10.544  0.4875  1.1017  0.3884
67881SOL     OW10757  10.255   4.389   1.432  0.4111 -0.4210 -0.6361
67881SOL    HW110758  10.212   4.304   1.439  1.3896 -1.0803 -2.0411
67881SOL    HW210759  10.347   4.368   1.418  1.1971  0.9357  1.8519
67882SOL     OW10760   0.111   2.952   5.460 -0.0085  0.3900  0.2037
67882SOL    HW110761   0.176   2.882   5.473 -0.3013  0.1962  0.6491
67882SOL    HW210762   0.094   2.952   5.366 -2.7073 -2.6361  0.5053
67883SOL     OW10763   2.073   4.141   3.846 -0.0844 -0.5174  0.1801
67883SOL    HW110764   1.994   4.188   3.873 -0.0115  0.4746 -1.2272
67883SOL    HW210765   2.040   4.072   3.787  0.0763 -0.3169 -0.1417
67884SOL     OW10766   2.347   1.488   5.048 -0.1538 -0.7521 -0.1751
67884SOL    HW110767   2.256   1.513   5.032  0.5711  2.2877 -0.1726
67884SOL    HW210768   2.394   1.516   4.970  1.1209  0.0658  0.8341
67885SOL     OW10769  11.664   5.669  11.827 -0.1282  0.0458  0.3561
67885SOL    HW110770  11.612   5.652  11.749 -0.7065 -1.6802  1.0613
67885SOL    HW210771  11.610   5.639  11.900  1.0976 -0.0687  1.2665
67886SOL     OW10772  12.441   8.603  10.875  0.5192 -0.0067 -0.6740
67886SOL    HW110773  12.457   8.685  10.827  1.5108  0.0647 -0.2409
67886SOL    HW210774  12.415   8.540  10.807 -3.2717  1.3466 -0.7246
67887SOL     OW10775   4.396   1.189   0.970  0.0123  0.1377  0.2964
67887SOL    HW110776   4.416   1.108   1.017  1.6059  0.8868  0.9755
67887SOL    HW210777   4.381   1.254   1.040 -1.4031  0.4257 -0.2352
67888SOL     OW10778   2.226  12.323   5.389 -0.0495 -0.7710 -0.4010
67888SOL    HW110779   2.149  12.322   5.332 -1.3833 -0.7280  1.3079
67888SOL    HW210780   2.209  12.255   5.453 -0.3302  1.4354  2.0378
67889SOL     OW10781   6.813   1.011   4.000 -0.0147  0.0791  0.1223
67889SOL    HW110782   6.827   0.942   3.934 -2.7283 -1.2006  0.7437
67889SOL    HW210783   6.827   0.967   4.084  0.4913  0.9057  0.4749
67890SOL     OW10784   8.044  12.060   2.255  0.0755  0.2912 -0.5241
67890SOL    HW110785   7.952  12.037   2.242  0.0076 -0.3768  0.9742
67890SOL    HW210786   8.091  12.007   2.190 -0.4254 -1.1300  0.2233
67891SOL     OW10787   1.896  12.078   4.452  0.2359  0.0544 -0.2600
67891SOL    HW110788   1.870  12.168   4.434  0.8513  0.6589  1.5738
67891SOL    HW210789   1.814  12.029   4.449 -0.0316  0.5584 -1.8039
67892SOL     OW10790  10.672  10.517   2.179 -0.3890 -0.0720 -0.2102
67892SOL    HW110791  10.704  10.567   2.253 -1.6329 -0.5843  0.7059
67892SOL    HW210792  10.598  10.467   2.213 -0.2106 -1.2823 -1.4875
67893SOL     OW10793   7.052   5.462  11.268  0.0329  0.0932  0.4555
67893SOL    HW110794   7.063   5.539  11.212  0.8003 -1.2076 -1.2701
67893SOL    HW210795   6.962   5.470  11.302 -0.2412  1.2358 -0.4720
67894SOL     OW10796   2.237   9.743   4.299  0.2061 -0.0347  0.3688
67894SOL    HW110797   2.180   9.683   4.347  1.0482 -0.5416  0.7511
67894SOL    HW210798   2.193   9.828   4.305 -1.6386 -0.7788 -1.1897
67895SOL     OW10799  10.031   8.928  11.908 -0.1697 -0.2498 -0.1579
67895SOL    HW110800   9.948   8.895  11.941  0.0490 -1.6358 -0.8889
67895SOL    HW210801  10.046   8.878  11.828  0.8427  0.7544 -0.6305
67896SOL     OW10802   1.857   7.009   1.218  0.0449 -0.0251 -0.2951
67896SOL    HW110803   1.831   6.986   1.307 -0.2141  0.6871 -0.1819
67896SOL    HW210804   1.864   6.925   1.172  1.3332 -0.4972  0.7087
67897SOL     OW10805   0.245   0.650   3.365 -0.3692  0.0857  0.1042
67897SOL    HW110806   0.150   0.651   3.352 -0.6001  0.5862  1.7075
67897SOL    HW210807   0.277   0.587   3.300 -1.8668 -0.6487  0.0349
67898SOL     OW10808   1.523   3.688   4.438  0.0996 -0.2912  0.1617
67898SOL    HW110809   1.462   3.616   4.452  0.6736 -0.5535  1.4071
67898SOL    HW210810   1.597   3.669   4.496  0.1139  1.4816  0.7876
67899SOL     OW10811  12.732   8.975  10.787 -0.2778 -0.2098 -1.0185
67899SOL    HW110812  12.721   8.971  10.882 -0.1798 -0.2143 -1.0065
67899SOL    HW210813  12.650   8.941  10.752  0.1813 -1.4921 -0.9191
67900SOL     OW10814  10.071   0.916   4.151  0.1084 -0.1457  0.1753
67900SOL    HW110815  10.061   0.876   4.065  0.5720  1.0404 -0.4678
67900SOL    HW210816  10.060   1.010   4.135 -1.0559 -0.0019  1.6254
67901SOL     OW10817   0.006   3.806   4.723 -0.0603 -0.2367  0.0018
67901SOL    HW110818   0.060   3.812   4.802  1.8904  0.7288 -1.3030
67901SOL    HW210819   0.068   3.786   4.653 -1.5694 -0.1152 -1.4418
67902SOL     OW10820   6.279   4.491   2.198  0.0393 -0.4446  0.4603
67902SOL    HW110821   6.249   4.580   2.220 -1.1498 -0.6396 -0.3044
67902SOL    HW210822   6.345   4.471   2.265  1.8240  1.7764 -0.4894
67903SOL     OW10823   0.079   2.488   5.230 -0.0894  0.3490 -0.0996
67903SOL    HW110824   0.148   2.425   5.250 -0.7413 -0.1654  0.5715
67903SOL    HW210825   0.069   2.539   5.310 -0.1511  0.7425 -0.3578
67904SOL     OW10826   7.694   2.041   8.676  0.0673 -0.4944 -0.5160
67904SOL    HW110827   7.615   2.037   8.622 -1.6116 -1.6894  1.8682
67904SOL    HW210828   7.705   1.953   8.710  0.7401  0.3073  1.4922
67905SOL     OW10829  12.501  11.205   4.173 -0.1278  0.4826 -0.0555
67905SOL    HW110830  12.444  11.277   4.199  0.0878  0.3718  0.7370
67905SOL    HW210831  12.453  11.162   4.102 -0.5926  0.9540 -0.0403
67906SOL     OW10832   2.823  10.600  11.815  0.3527 -1.4026 -0.7955
67906SOL    HW110833   2.844  10.558  11.732  2.2190 -0.3063 -0.9297
67906SOL    HW210834   2.845  10.692  11.801 -1.1446 -0.8327  0.3226
67907SOL     OW10835   1.974  10.635  10.560 -0.2469  0.0272 -0.1242
67907SOL    HW110836   1.927  10.554  10.583 -0.2893 -0.2550 -1.1606
67907SOL    HW210837   1.905  10.695  10.531  0.0060 -0.4084 -1.7100
67908SOL     OW10838   7.601   3.117   6.519  0.2003  0.2216  0.1757
67908SOL    HW110839   7.542   3.054   6.559 -0.8379  0.0045 -1.5812
67908SOL    HW210840   7.681   3.068   6.502  0.5481  0.2429  1.6149
67909SOL     OW10841   6.128   7.406   4.599  0.3963  0.3657 -0.0271
67909SOL    HW110842   6.148   7.370   4.512 -3.3538 -0.2850 -0.8153
67909SOL    HW210843   6.195   7.370   4.656  2.4850  0.0792 -2.4510
67910SOL     OW10844  12.684  11.495   1.489 -0.0960 -0.1535  0.4375
67910SOL    HW110845  12.629  11.569   1.514 -1.0030  0.0545 -1.9004
67910SOL    HW210846  12.623  11.421   1.483 -0.0225 -0.1095 -1.3334
67911SOL     OW10847   2.865  11.170   9.623 -0.3078  0.2380 -0.7681
67911SOL    HW110848   2.808  11.153   9.699  0.8238  0.4315  0.1473
67911SOL    HW210849   2.840  11.258   9.594  0.9122  1.2117  0.9392
67912SOL     OW10850   0.647   0.440   3.780 -0.0874  0.4111  0.4514
67912SOL    HW110851   0.651   0.526   3.738 -2.1433  0.9743  1.2629
67912SOL    HW210852   0.678   0.456   3.870  1.3095 -0.1272  0.0931
67913SOL     OW10853   7.030  12.761  10.675  0.6161 -0.0105  0.1076
67913SOL    HW110854   7.023  12.853  10.650  0.9254 -0.2470 -0.8710
67913SOL    HW210855   7.113  12.731  10.638 -0.7063 -1.3886 -2.0209
67914SOL     OW10856   8.573   5.909   3.077 -0.0987  0.2501  0.8273
67914SOL    HW110857   8.489   5.894   3.121 -0.2349  0.3783  0.6122
67914SOL    HW210858   8.607   5.988   3.118  0.3709 -0.3363  1.5892
67915SOL     OW10859   3.575   0.825   4.775 -0.2415  0.1702 -0.1879
67915SOL    HW110860   3.603   0.734   4.783  0.2517  0.1808 -1.5124
67915SOL    HW210861   3.505   0.822   4.709 -1.6895  0.4883  1.2621
67916SOL     OW10862   9.761  10.693   9.766  0.0606  0.4529  0.5516
67916SOL    HW110863   9.725  10.780   9.780  0.1732  0.4174  1.0794
67916SOL    HW210864   9.684  10.636   9.761  0.0041  0.5147  0.7010
67917SOL     OW10865   5.696  10.576   3.633  0.3762  0.7416 -0.3103
67917SOL    HW110866   5.680  10.530   3.550 -0.1790  0.3457  0.0032
67917SOL    HW210867   5.646  10.657   3.625  0.7408  0.9429 -0.5656
67918SOL     OW10868  10.780  12.151  10.699 -0.6708  0.1526  0.1871
67918SOL    HW110869  10.698  12.141  10.747 -0.7306  0.1143  0.0795
67918SOL    HW210870  10.801  12.062  10.669 -1.3669  0.3808 -1.0355
67919SOL     OW10871   3.740   7.214   5.787  0.0707 -1.0871 -0.0358
67919SOL    HW110872   3.786   7.190   5.706  3.0453 -0.4434  1.3200
67919SOL    HW210873   3.713   7.305   5.773  0.7062 -0.9272 -0.2457
67920SOL     OW10874  10.843   3.664   3.617  0.3714 -0.5831 -0.5683
67920SOL    HW110875  10.799   3.582   3.595 -0.9436  0.1345 -0.6778
67920SOL    HW210876  10.906   3.639   3.686  0.4317 -1.7820 -1.0267
67921SOL     OW10877   9.275  12.227  12.597  0.9924  0.1492  0.0066
67921SOL    HW110878   9.360  12.208  12.637  1.8334 -2.1778 -2.5866
67921SOL    HW210879   9.219  12.155  12.626  0.7183  0.1768 -0.4543
67922SOL     OW10880   3.125   6.255   8.412 -0.6506  0.0048  0.4996
67922SOL    HW110881   3.205   6.307   8.424 -0.2287 -0.4926 -0.0694
67922SOL    HW210882   3.060   6.319   8.381 -0.3829  0.3554  0.6491
67923SOL     OW10883   0.361   6.089  10.946  0.1235 -0.0933  0.1808
67923SOL    HW110884   0.279   6.071  10.991  0.8972  0.1753  1.7793
67923SOL    HW210885   0.395   6.168  10.989  0.8584  0.2244 -0.9443
67924SOL     OW10886   7.236   5.063  11.596 -0.1880  0.1009 -0.6080
67924SOL    HW110887   7.305   5.018  11.547  1.0994  0.6273  0.6552
67924SOL    HW210888   7.245   5.155  11.571  1.1782  0.5455  1.3337
67925SOL     OW10889   6.642   2.255   6.242  1.0107 -0.3094  0.4358
67925SOL    HW110890   6.702   2.262   6.317  1.0554  2.6194  0.2509
67925SOL    HW210891   6.631   2.345   6.213 -1.0581 -1.1181 -1.5070
67926SOL     OW10892   0.530   6.662  12.435  0.1606 -0.2184 -0.0340
67926SOL    HW110893   0.579   6.745  12.434 -0.5764  0.2439 -1.8714
67926SOL    HW210894   0.450   6.683  12.482  0.9376 -0.5198  1.4781
67927SOL     OW10895   9.955   0.876  10.081 -0.3511 -0.4679 -0.5796
67927SOL    HW110896   9.995   0.790  10.094 -0.5103 -0.3453  0.8235
67927SOL    HW210897   9.936   0.879   9.987  1.1791 -1.2826 -0.9455
67928SOL     OW10898   9.170  11.333   7.930  0.1817  0.3141  0.6118
67928SOL    HW110899   9.147  11.417   7.969  1.0497  1.7714 -1.8018
67928SOL    HW210900   9.252  11.349   7.884 -0.7163 -1.2253 -1.7249
67929SOL     OW10901   5.376   3.156   8.738 -0.0063 -0.6196 -0.6316
67929SOL    HW110902   5.334   3.102   8.804 -1.2966 -0.5629 -1.3785
67929SOL    HW210903   5.357   3.246   8.765 -0.4752 -0.5956 -1.0182
67930SOL     OW10904   1.296  12.574   6.609 -0.0140 -0.5578 -0.4056
67930SOL    HW110905   1.385  12.582   6.644 -0.3504 -0.4370  0.4535
67930SOL    HW210906   1.240  12.611   6.678 -0.7480 -0.8200 -0.8509
67931SOL     OW10907   7.453   9.550  10.666 -0.8759 -0.7169  0.8843
67931SOL    HW110908   7.527   9.570  10.609  0.0317 -0.9108  1.9676
67931SOL    HW210909   7.376   9.563  10.611 -0.2013  2.1979  0.4658
67932SOL     OW10910   9.994   0.301  12.363 -1.0415  0.4016 -0.6935
67932SOL    HW110911  10.006   0.322  12.271 -1.7031  0.4319 -0.7774
67932SOL    HW210912   9.982   0.206  12.364  0.1349  0.2404 -0.5075
67933SOL     OW10913   8.192  12.571   2.555  0.2554 -0.3069  0.5012
67933SOL    HW110914   8.260  12.537   2.497  0.8802 -0.9624  1.5893
67933SOL    HW210915   8.218  12.662   2.572  0.1765 -0.1742 -0.0640
67934SOL     OW10916   9.689   8.722   3.069  0.4481  0.6814 -0.0797
67934SOL    HW110917   9.688   8.817   3.077  1.0081  0.7630 -0.8415
67934SOL    HW210918   9.768   8.695   3.116  1.3944  0.7936 -1.5108
67935SOL     OW10919   8.896  12.725  10.024  0.0944 -0.4657 -0.2365
67935SOL    HW110920   8.864  12.648   9.978 -0.1688 -1.2030  1.1133
67935SOL    HW210921   8.937  12.690  10.103  1.2001  0.6980 -0.2663
67936SOL     OW10922  10.256   8.644   2.497 -0.0161  0.4511  0.6000
67936SOL    HW110923  10.204   8.606   2.426 -0.9671  1.2239  0.8619
67936SOL    HW210924  10.304   8.716   2.457 -0.0198  0.4519  0.5978
67937SOL     OW10925   8.171  12.227   6.887  0.2957 -0.0318 -0.2462
67937SOL    HW110926   8.155  12.213   6.794  1.2628 -1.9317 -0.1775
67937SOL    HW210927   8.097  12.280   6.917 -0.6616 -0.4144 -1.8422
67938SOL     OW10928   9.399   4.438   5.678  0.1113  0.3632  0.0795
67938SOL    HW110929   9.457   4.514   5.681  0.8145 -0.0771 -1.5704
67938SOL    HW210930   9.454   4.367   5.645 -1.0954 -0.3295 -0.5088
67939SOL     OW10931  11.064   1.626  12.921 -0.1984 -0.5693 -0.2362
67939SOL    HW110932  11.038   1.608  13.011 -1.7523  0.6201 -0.4129
67939SOL    HW210933  11.021   1.708  12.899  2.4597  0.6730 -1.1461
67940SOL     OW10934   0.315  11.360   3.344  0.6933 -0.2110  0.8441
67940SOL    HW110935   0.397  11.392   3.306 -0.2717  0.1187 -1.0471
67940SOL    HW210936   0.333  11.269   3.367  1.2585 -0.4937 -0.6350
67941SOL     OW10937   2.569   0.664  10.492 -0.0550  0.1332  0.4500
67941SOL    HW110938   2.566   0.591  10.430 -0.7066  0.5534 -0.0288
67941SOL    HW210939   2.480   0.700  10.491  0.5102  1.5904 -0.1273
67942SOL     OW10940   3.038   3.970  10.197 -0.3179 -0.1812  0.7302
67942SOL    HW110941   3.020   3.892  10.251  1.9145 -1.0445  0.3472
67942SOL    HW210942   3.122   4.002  10.230 -0.8244  1.6304  0.3310
67943SOL     OW10943   0.561   1.016   3.607  0.1304 -0.0690  0.1855
67943SOL    HW110944   0.646   0.973   3.603  0.4973  0.7417 -1.0807
67943SOL    HW210945   0.539   1.035   3.516 -0.6052  1.3062  0.6291
67944SOL     OW10946   0.870  11.106   1.881 -0.0533  0.3583  0.0206
67944SOL    HW110947   0.787  11.132   1.840 -0.6045  1.0967  1.5610
67944SOL    HW210948   0.875  11.157   1.961  2.2756  0.8958 -0.3971
67945SOL     OW10949   2.943   4.419   5.220  0.0488 -0.0044 -0.3104
67945SOL    HW110950   2.861   4.409   5.172 -0.6016 -0.0435  0.7767
67945SOL    HW210951   2.997   4.474   5.163 -0.7256  0.0200 -1.0461
67946SOL     OW10952   7.784   1.172   9.947 -0.8190 -0.1119 -0.3612
67946SOL    HW110953   7.811   1.180  10.039  0.7592 -0.7599 -0.7346
67946SOL    HW210954   7.821   1.248   9.903 -0.6621 -0.3617 -0.6637
67947SOL     OW10955   2.520   0.534   8.682  0.3791 -0.6738 -0.1633
67947SOL    HW110956   2.477   0.562   8.763  0.4976 -1.5340  0.2041
67947SOL    HW210957   2.605   0.579   8.683 -0.2474  0.5869 -0.6158
67948SOL     OW10958   6.468  10.344  11.454  0.2173  0.1694 -0.4680
67948SOL    HW110959   6.561  10.370  11.458  0.3454 -0.3052 -0.2808
67948SOL    HW210960   6.471  10.248  11.452 -0.2139  0.1756 -1.9836
67949SOL     OW10961   9.861   5.283  10.340  0.4612 -0.0593  0.4898
67949SOL    HW110962   9.934   5.322  10.293 -0.7146  0.6577 -0.7997
67949SOL    HW210963   9.868   5.189  10.323  0.1250  0.1686 -1.0928
67950SOL     OW10964   8.270   9.624   0.952  0.2429  0.6410  0.1147
67950SOL    HW110965   8.273   9.673   0.869 -0.8452  0.4274 -0.0649
67950SOL    HW210966   8.253   9.691   1.019 -1.9416  0.5023 -0.2059
67951SOL     OW10967   2.925   5.007   7.253  0.1085 -0.1681 -0.2099
67951SOL    HW110968   2.921   4.942   7.324  1.6977  0.8334  0.8721
67951SOL    HW210969   2.875   4.968   7.182 -0.8914 -1.5669  1.1872
67952SOL     OW10970   6.598  10.690   7.360  0.5262  0.1453 -0.0329
67952SOL    HW110971   6.515  10.692   7.407 -1.0015  0.1292 -2.5484
67952SOL    HW210972   6.605  10.601   7.325  0.6922  0.6228 -1.2882
67953SOL     OW10973   2.387   6.446   4.159  0.1368 -0.0565  0.7002
67953SOL    HW110974   2.314   6.412   4.108 -0.9418  2.3763  0.4539
67953SOL    HW210975   2.395   6.387   4.233 -0.5134 -1.7190 -0.4975
67954SOL     OW10976  12.165   5.087   8.723  0.0488 -0.0987  0.0254
67954SOL    HW110977  12.184   5.100   8.630  0.3452 -0.6497  0.0030
67954SOL    HW210978  12.118   5.004   8.727  1.6873 -1.0608  0.5332
67955SOL     OW10979   9.769  11.696  12.389  0.3880 -0.4381  0.2852
67955SOL    HW110980   9.811  11.782  12.378 -0.8536  0.0775 -0.6290
67955SOL    HW210981   9.767  11.683  12.483  0.9752  0.3401  0.4197
67956SOL     OW10982   8.811   5.470   9.278 -0.0197 -0.3545 -0.1770
67956SOL    HW110983   8.847   5.524   9.207  1.6803  0.5676  1.2960
67956SOL    HW210984   8.820   5.380   9.247 -0.1836  0.0489 -1.4807
67957SOL     OW10985  12.624   4.294   7.498 -0.3487 -0.3043  0.1850
67957SOL    HW110986  12.651   4.349   7.572  1.1928 -0.7617 -0.0017
67957SOL    HW210987  12.680   4.322   7.426 -1.1909 -0.5123 -0.5631
67958SOL     OW10988   6.482   0.422   6.943  0.2865  0.2684  0.1523
67958SOL    HW110989   6.428   0.484   6.893 -0.3665  1.3126  2.0477
67958SOL    HW210990   6.564   0.418   6.894  0.4264  2.8116  0.0162
67959SOL     OW10991   0.272  12.078   6.212  0.5667 -0.1526 -0.7155
67959SOL    HW110992   0.265  11.983   6.205  1.3198 -0.3591  0.9252
67959SOL    HW210993   0.361  12.093   6.244 -0.3695  0.9300  1.6028
67960SOL     OW10994   9.229   5.358   0.509  0.2979 -0.1938  0.3171
67960SOL    HW110995   9.323   5.375   0.499  0.3306 -0.6122 -0.1062
67960SOL    HW210996   9.193   5.442   0.539  1.1812 -0.6966  3.0732
67961SOL     OW10997   4.529   3.015   3.033 -0.3653 -0.2073 -0.3017
67961SOL    HW110998   4.625   3.016   3.036 -0.3116 -1.6540  2.9883
67961SOL    HW210999   4.503   3.104   3.056  0.1455  0.3173 -1.6724
67962SOL     OW11000   6.355   7.493  11.520 -0.5440  0.0876 -0.9144
67962SOL    HW111001   6.398   7.478  11.605  0.2664  0.7672 -1.1957
67962SOL    HW211002   6.358   7.408  11.477  0.4213  0.0855 -0.8733
67963SOL     OW11003   2.517   2.363  10.981  0.3249  0.2987  0.3205
67963SOL    HW111004   2.422   2.354  10.977  0.4070 -0.2067 -1.4236
67963SOL    HW211005   2.539   2.345  11.072 -1.3564  1.6611  1.0490
67964SOL     OW11006   2.782   3.324   7.496  0.0031 -0.4689  0.2279
67964SOL    HW111007   2.767   3.378   7.419 -1.0285 -3.1516 -1.5848
67964SOL    HW211008   2.703   3.333   7.548 -1.3129 -2.1411 -1.3650
67965SOL     OW11009  12.759  12.063   1.119 -0.2688  0.2188 -0.2325
67965SOL    HW111010  12.831  12.010   1.152 -0.3280  0.4679  0.3122
67965SOL    HW211011  12.725  12.109   1.196 -0.8499  0.2946 -0.5231
67966SOL     OW11012   3.348   9.467   3.294 -0.5525 -0.6945  0.2139
67966SOL    HW111013   3.314   9.521   3.223 -0.3338 -1.4487 -0.4794
67966SOL    HW211014   3.440   9.490   3.301 -0.9015  0.4827  1.2942
67967SOL     OW11015   1.461   3.516   3.768 -0.2113  0.2842  0.6932
67967SOL    HW111016   1.383   3.462   3.778 -0.9204  1.4299  1.5007
67967SOL    HW211017   1.490   3.535   3.857  1.0226 -0.1468  0.4075
67968SOL     OW11018  12.630   6.818   6.645  0.2921  0.1831  0.7829
67968SOL    HW111019  12.674   6.768   6.577  0.6212 -0.9545  1.7838
67968SOL    HW211020  12.661   6.907   6.634  2.0763 -0.3937  0.8079
67969SOL     OW11021   1.358   4.763   5.699  0.6548 -0.2162 -0.3122
67969SOL    HW111022   1.407   4.746   5.780  0.8003 -0.8243 -0.5221
67969SOL    HW211023   1.404   4.711   5.633 -0.9914 -1.7903 -0.2827
67970SOL     OW11024   1.696   7.002   0.479  0.0700 -0.3252  0.1303
67970SOL    HW111025   1.689   7.097   0.473  0.0229 -0.3485 -0.1769
67970SOL    HW211026   1.789   6.985   0.493  0.3675 -0.3314 -1.7041
67971SOL     OW11027   8.190   7.496   9.247  0.2772  1.0220  0.3046
67971SOL    HW111028   8.237   7.511   9.165 -0.1240 -2.0236 -0.6328
67971SOL    HW211029   8.098   7.493   9.222  0.2533 -1.6562  0.4266
67972SOL     OW11030   3.775   2.774   5.526 -0.4506  0.2211  0.4000
67972SOL    HW111031   3.698   2.728   5.559 -0.5827 -2.0059 -2.6268
67972SOL    HW211032   3.848   2.715   5.544 -0.0993  0.3722 -0.4831
67973SOL     OW11033   1.979   3.659   4.111 -0.3282  0.2840 -0.4905
67973SOL    HW111034   2.053   3.708   4.145  0.1869 -1.1190  0.5026
67973SOL    HW211035   2.018   3.595   4.050 -0.5184 -1.3045  0.9806
67974SOL     OW11036   9.940   2.287   2.405  0.2646  0.6396  0.0323
67974SOL    HW111037   9.851   2.275   2.372 -0.6160  0.8324  2.1838
67974SOL    HW211038   9.961   2.205   2.450  0.4576  1.2333  1.0633
67975SOL     OW11039  10.117   7.593   6.371 -0.4077 -0.4750 -0.0971
67975SOL    HW111040  10.056   7.634   6.433  0.6696  0.7869  0.1709
67975SOL    HW211041  10.124   7.656   6.299  1.7014  0.1460  0.5794
67976SOL     OW11042   5.630   6.903   5.928  0.0149 -0.4734  0.1802
67976SOL    HW111043   5.552   6.942   5.967  0.3426 -0.1819  0.5430
67976SOL    HW211044   5.639   6.818   5.972 -0.3752 -0.7213 -0.2107
67977SOL     OW11045   0.984   3.233   2.888  0.2228  0.0892  0.0175
67977SOL    HW111046   1.009   3.150   2.846 -0.4999  0.4025 -1.0756
67977SOL    HW211047   0.961   3.208   2.978  0.7279 -0.7760 -0.0754
67978SOL     OW11048   3.910   9.749   7.306  0.1872 -0.2841 -0.0563
67978SOL    HW111049   3.816   9.764   7.318  0.3202  0.3784  0.1896
67978SOL    HW211050   3.915   9.692   7.229 -0.4462 -0.8636  0.3249
67979SOL     OW11051   6.875   5.432  10.544  0.8562 -0.4121 -0.1822
67979SOL    HW111052   6.864   5.457  10.636 -0.7552 -1.3655 -0.0692
67979SOL    HW211053   6.790   5.395  10.519  1.3207 -0.3438 -2.0107
67980SOL     OW11054   0.339   1.654   3.444  0.2821  0.2717 -0.5080
67980SOL    HW111055   0.312   1.741   3.414 -0.8586  0.3478  0.6297
67980SOL    HW211056   0.432   1.663   3.463  0.6223  0.6991 -2.2387
67981SOL     OW11057   6.935   4.141  10.484  0.3388 -0.3156  0.4222
67981SOL    HW111058   7.012   4.165  10.432 -1.9377  1.4448 -2.4577
67981SOL    HW211059   6.918   4.050  10.460  0.4888 -0.1404 -0.3746
67982SOL     OW11060   9.743   5.046   5.364  0.2135 -0.1962  0.2299
67982SOL    HW111061   9.818   4.987   5.368 -0.4121 -0.9871  0.5652
67982SOL    HW211062   9.714   5.041   5.272 -0.2345 -0.9410  0.3990
67983SOL     OW11063   9.227  10.650   3.141 -0.0004 -0.0824 -1.0130
67983SOL    HW111064   9.182  10.704   3.077 -3.0034 -0.5266  0.5374
67983SOL    HW211065   9.159  10.592   3.176  0.9799  1.1109  3.5693
67984SOL     OW11066   2.705   9.519   2.670  0.5793  0.0323 -0.0368
67984SOL    HW111067   2.780   9.542   2.616  3.3262  1.4758  3.8606
67984SOL    HW211068   2.657   9.602   2.681 -0.2585 -0.3615 -0.6030
67985SOL     OW11069   5.381   3.203  10.683 -0.4745 -0.4580 -0.3299
67985SOL    HW111070   5.370   3.198  10.588  0.2369  0.8847 -0.5072
67985SOL    HW211071   5.326   3.277  10.710  0.2318 -0.0938  0.1377
67986SOL     OW11072   9.768   4.790   4.130  0.6993  0.3089 -0.7173
67986SOL    HW111073   9.746   4.713   4.182  1.2702  1.6705  1.6718
67986SOL    HW211074   9.734   4.770   4.042  1.2928 -2.8436 -0.3445
67987SOL     OW11075   9.062  12.956   3.978 -0.2712  0.1645 -0.6596
67987SOL    HW111076   9.067  13.045   4.013 -0.7530  0.1088 -0.4528
67987SOL    HW211077   9.140  12.948   3.922 -0.5469  0.9133 -1.1525
67988SOL     OW11078   7.178  10.351  11.511  0.0483 -0.2466 -0.4161
67988SOL    HW111079   7.168  10.443  11.534  0.5577 -0.0939 -0.7826
67988SOL    HW211080   7.268  10.330  11.539 -0.2686 -0.7989  0.2266
67989SOL     OW11081  10.304   4.563   6.727  0.2371  0.2312 -0.0596
67989SOL    HW111082  10.238   4.609   6.779 -1.1732 -0.5048 -1.1065
67989SOL    HW211083  10.336   4.494   6.786  0.6035  1.0219  0.6931
67990SOL     OW11084  10.868   3.720   0.198 -0.3234  0.0479 -0.9504
67990SOL    HW111085  10.822   3.679   0.124 -4.1682 -0.2761  1.3748
67990SOL    HW211086  10.878   3.811   0.172 -1.5250 -0.0684 -1.9136
67991SOL     OW11087   3.408   1.402   4.769 -0.7340 -0.3487  0.5432
67991SOL    HW111088   3.363   1.477   4.808 -1.0342 -0.2440  0.0044
67991SOL    HW211089   3.445   1.355   4.844  0.2334  0.8196  0.8247
67992SOL     OW11090   8.171  12.720   0.790 -0.0786 -0.1810  0.1298
67992SOL    HW111091   8.095  12.664   0.805  0.9202 -1.4159  0.7378
67992SOL    HW211092   8.134  12.804   0.764 -1.7388 -0.0440  2.6188
67993SOL     OW11093   5.457   0.745   6.358 -0.7001  0.0550 -0.4097
67993SOL    HW111094   5.509   0.826   6.358  0.5703 -0.6972  1.0440
67993SOL    HW211095   5.462   0.713   6.268 -0.0044  0.8650 -0.6768
67994SOL     OW11096   6.322   0.007   2.855  0.2037 -0.2978 -0.0397
67994SOL    HW111097   6.299   0.074   2.919 -2.6049 -0.9957 -0.2122
67994SOL    HW211098   6.360  -0.064   2.906  2.3463  0.9508  0.2425
67995SOL     OW11099   8.021   8.185  10.536 -0.2357 -0.3561 -0.5184
67995SOL    HW111100   7.934   8.181  10.576 -0.1335  0.6786 -0.1660
67995SOL    HW211101   8.036   8.278  10.519  0.4596 -0.6017 -1.3585
67996SOL     OW11102   7.958   4.718  12.659  0.0465  0.5894  0.1949
67996SOL    HW111103   8.013   4.792  12.631  1.0874 -0.1421  0.2563
67996SOL    HW211104   7.965   4.655  12.588  0.4220 -0.0988  0.8338
67997SOL     OW11105   1.213   2.405   9.410 -0.1273  0.0170 -0.0518
67997SOL    HW111106   1.121   2.399   9.384  0.0239  2.1473 -1.2614
67997SOL    HW211107   1.261   2.383   9.330  0.3910  1.2443 -0.0881
67998SOL     OW11108   3.087   6.344   9.154 -0.8322  0.2248 -0.2796
67998SOL    HW111109   3.059   6.399   9.228 -0.0224  0.0169  0.1913
67998SOL    HW211110   3.102   6.406   9.083 -0.2719  0.5845  0.1414
67999SOL     OW11111  10.663   7.275   5.490  0.3219 -0.4555 -0.3865
67999SOL    HW111112  10.658   7.215   5.564 -0.9519 -1.1554 -1.0066
67999SOL    HW211113  10.680   7.218   5.414  1.3206  0.2167 -0.6815
68000SOL     OW11114  11.832   9.947   0.867 -0.1395 -0.0517  0.0540
68000SOL    HW111115  11.851   9.928   0.775  1.0309  1.1800  0.0021
68000SOL    HW211116  11.857  10.039   0.877  1.3442 -0.6102  1.9975
68001SOL     OW11117   2.341  10.715   2.109  0.4954 -0.2751  0.2362
68001SOL    HW111118   2.425  10.689   2.147 -0.6168 -1.8648  1.7446
68001SOL    HW211119   2.316  10.641   2.053 -0.5540 -0.4620  0.9240
68002SOL     OW11120   1.824  12.956   6.281  0.5894  0.0183 -0.5769
68002SOL    HW111121   1.732  12.963   6.308  1.4221  3.0138  2.1373
68002SOL    HW211122   1.831  13.014   6.206  0.3091  0.0177 -0.6052
68003SOL     OW11123   8.032  11.635   4.183  0.2364 -0.4453 -0.3377
68003SOL    HW111124   8.088  11.675   4.117  1.2330 -0.8505  0.2362
68003SOL    HW211125   7.947  11.625   4.140  0.6277  0.0807 -1.2623
68004SOL     OW11126   4.692   1.630  11.873 -0.0753  0.2598  0.9019
68004SOL    HW111127   4.707   1.549  11.824  0.2524  0.3022  0.9268
68004SOL    HW211128   4.645   1.686  11.811 -0.0691  0.1444  0.7914
68005SOL     OW11129   4.311   0.059   7.627  0.3120 -0.2729 -0.5281
68005SOL    HW111130   4.242   0.027   7.684 -0.4437 -1.3776 -2.0157
68005SOL    HW211131   4.391   0.049   7.679 -0.4183 -0.6507  0.5600
68006SOL     OW11132   5.484   0.069  12.964  0.3165 -0.8239  0.8958
68006SOL    HW111133   5.419   0.022  12.913  0.5015  0.0408 -0.1828
68006SOL    HW211134   5.463   0.049  13.055 -1.1680 -0.9287  0.5484
68007SOL     OW11135  11.782  11.199   5.930 -0.3135  0.4919 -0.4477
68007SOL    HW111136  11.872  11.179   5.956 -0.6725 -0.6936 -0.0678
68007SOL    HW211137  11.764  11.137   5.859 -1.2906 -0.2248  0.4107
68008SOL     OW11138   7.339   5.393   1.018  0.5813 -0.0632  0.1706
68008SOL    HW111139   7.341   5.472   0.963  0.9884  0.3391  0.7562
68008SOL    HW211140   7.246   5.375   1.031  0.4830  0.8945  0.8517
68009SOL     OW11141   3.345  12.000   3.022 -0.4605 -0.0736  0.6525
68009SOL    HW111142   3.301  11.946   2.956 -0.3814 -3.0242  2.8014
68009SOL    HW211143   3.274  12.038   3.074 -0.5098  0.2864  0.3203
68010SOL     OW11144  11.217   2.720   4.368 -0.2374  0.3801 -0.5954
68010SOL    HW111145  11.122   2.722   4.358 -0.1092  0.3862 -1.9089
68010SOL    HW211146  11.245   2.810   4.349  0.2622 -0.2202 -3.0374
68011SOL     OW11147   1.398   1.305   7.014  0.6450 -0.0971  0.4376
68011SOL    HW111148   1.390   1.262   6.929  0.7938  1.0559 -0.1820
68011SOL    HW211149   1.380   1.397   6.996  0.9710  0.2127  1.6059
68012SOL     OW11150   8.010  11.776   3.568 -0.3090  0.0413  0.1358
68012SOL    HW111151   7.927  11.744   3.532 -0.5475  1.3242 -0.5175
68012SOL    HW211152   8.070  11.702   3.557 -1.5616 -1.2423  1.4675
68013SOL     OW11153  12.740   0.403   0.888 -0.5196  0.0809 -0.8028
68013SOL    HW111154  12.746   0.310   0.869  2.8320  0.2569 -1.2005
68013SOL    HW211155  12.726   0.444   0.802  0.9643  0.0692 -1.0749
68014SOL     OW11156   9.513   6.359   1.709  0.3610  0.0851  0.5768
68014SOL    HW111157   9.421   6.384   1.720 -0.3904 -2.2877  0.3819
68014SOL    HW211158   9.526   6.359   1.614  0.6567  0.6765  0.6140
68015SOL     OW11159   8.784   6.840   0.167  0.0667 -0.6062 -0.1503
68015SOL    HW111160   8.777   6.849   0.072  0.7118  0.4012 -0.1207
68015SOL    HW211161   8.878   6.848   0.185 -0.2560  2.3162  0.8024
68016SOL     OW11162   5.726   1.425   5.180 -0.5758  0.0858  0.1860
68016SOL    HW111163   5.755   1.348   5.131  1.7416  1.4634 -0.7763
68016SOL    HW211164   5.645   1.453   5.136 -0.1782 -0.4621 -0.9302
68017SOL     OW11165   5.300   0.568   7.549  0.2165  0.1896 -0.5037
68017SOL    HW111166   5.326   0.578   7.457  2.1098 -0.6619 -0.0920
68017SOL    HW211167   5.225   0.510   7.546 -0.5095  1.1202 -1.5851
68018SOL     OW11168   1.568   5.728   0.764  0.3584 -0.8179 -0.0618
68018SOL    HW111169   1.588   5.671   0.690  0.5243  0.3029 -0.9085
68018SOL    HW211170   1.620   5.807   0.748  1.8391 -1.2331  2.2179
68019SOL     OW11171   4.738   4.450   4.473  0.2951 -0.3320 -0.2382
68019SOL    HW111172   4.644   4.438   4.458  0.1147 -2.7789  2.0361
68019SOL    HW211173   4.779   4.415   4.394 -0.6617  0.7104 -1.2324
68020SOL     OW11174   9.392   1.475   1.238  0.4113 -0.1966 -0.1357
68020SOL    HW111175   9.465   1.503   1.293 -0.5952  1.6823  0.3497
68020SOL    HW211176   9.356   1.557   1.204 -2.4584 -0.8954  0.9344
68021SOL     OW11177   8.762   0.758  12.630  0.5702 -0.3250 -0.2047
68021SOL    HW111178   8.777   0.741  12.537  0.5899 -0.9979 -0.0885
68021SOL    HW211179   8.779   0.673  12.672 -1.9421 -0.7558  0.1344
68022SOL     OW11180   1.479   9.562   1.089 -0.3783 -0.0383 -0.0242
68022SOL    HW111181   1.463   9.610   1.007  0.4098  0.2712 -0.0025
68022SOL    HW211182   1.557   9.511   1.071 -0.8398 -0.8290  0.1761
68023SOL     OW11183   5.646   8.868   9.015  0.5936 -0.0981  0.3785
68023SOL    HW111184   5.667   8.961   9.010 -2.1710  0.5529 -2.1230
68023SOL    HW211185   5.636   8.841   8.924 -4.2750 -1.2815  1.0008
68024SOL     OW11186   2.066   6.190   7.658 -0.7460 -0.8157  0.4900
68024SOL    HW111187   2.011   6.149   7.591 -3.2236  1.5822  0.8862
68024SOL    HW211188   2.010   6.199   7.734  0.5933  0.6091  1.3739
68025SOL     OW11189  10.635   9.005   8.976  0.4091 -0.0820  0.4660
68025SOL    HW111190  10.715   9.044   8.939  0.1408  2.1831  2.0618
68025SOL    HW211191  10.667   8.934   9.032  1.0536 -1.0361 -1.0334
68026SOL     OW11192   1.214   3.904   6.478 -0.2357  0.1004  0.1006
68026SOL    HW111193   1.212   3.820   6.432  0.2446  1.6553 -2.9761
68026SOL    HW211194   1.304   3.934   6.470 -0.7640  1.6746 -0.3636
68027SOL     OW11195   4.156   5.321  11.113 -0.4224  0.5987 -0.4141
68027SOL    HW111196   4.158   5.383  11.186  1.1657 -0.1087  0.2023
68027SOL    HW211197   4.077   5.269  11.128  0.1597  0.0925  1.1623
68028SOL     OW11198   4.120  12.605   4.625 -0.2814  0.1474 -0.5373
68028SOL    HW111199   4.180  12.585   4.697 -0.0404  0.2593 -0.7014
68028SOL    HW211200   4.127  12.529   4.566 -1.4362 -0.5301  0.1675
68029SOL     OW11201   0.095   3.589  11.555 -0.1513  0.2351 -0.2024
68029SOL    HW111202   0.107   3.676  11.517 -0.6563 -0.1845 -1.3672
68029SOL    HW211203   0.017   3.554  11.511 -1.3021  0.0558  1.8851
68030SOL     OW11204   8.825  12.252   3.120 -0.0142 -0.2095 -0.0259
68030SOL    HW111205   8.913  12.215   3.126  0.1787  0.3772  0.9856
68030SOL    HW211206   8.828  12.331   3.174 -0.1793  1.8000 -2.7662
68031SOL     OW11207   2.658  10.169   8.891 -0.1082  0.9204 -0.6573
68031SOL    HW111208   2.602  10.246   8.881 -0.8689  0.5441  0.5550
68031SOL    HW211209   2.601  10.101   8.926  0.2076 -0.6833 -2.9941
68032SOL     OW11210  10.553   4.768   2.599  0.3104  0.0138  0.0587
68032SOL    HW111211  10.467   4.808   2.602 -0.3410 -1.2621 -0.6541
68032SOL    HW211212  10.614   4.839   2.618 -0.8457  1.0962 -0.1827
68033SOL     OW11213   2.296  11.571  11.757  0.0653 -0.5492 -0.1603
68033SOL    HW111214   2.351  11.593  11.681  2.1438  0.8162  1.6033
68033SOL    HW211215   2.262  11.655  11.787  2.2790 -0.4261  2.4742
68034SOL     OW11216  10.344   0.004   8.340  0.1357  0.4532 -0.3116
68034SOL    HW111217  10.311   0.078   8.390 -1.9630  1.0048 -2.3513
68034SOL    HW211218  10.308  -0.073   8.385 -0.3481  0.8401 -0.0312
68035SOL     OW11219   7.180   2.196  10.712  0.4037  0.2463 -0.5741
68035SOL    HW111220   7.173   2.137  10.637  0.6709  0.5302 -0.8290
68035SOL    HW211221   7.090   2.218  10.734  0.2938 -0.4381 -0.3263
68036SOL     OW11222   8.748   1.511   5.016  0.7328  0.6538 -0.3531
68036SOL    HW111223   8.779   1.524   5.105  1.3328  0.5423 -0.5433
68036SOL    HW211224   8.729   1.599   4.983 -1.4832  0.5932  0.5668
68037SOL     OW11225   2.301   1.376  10.423  0.5393  0.4054 -0.0015
68037SOL    HW111226   2.280   1.283  10.430 -0.5424  0.7760  2.5700
68037SOL    HW211227   2.396   1.379  10.433  0.4916 -0.3692  0.8330
68038SOL     OW11228   6.435  12.825   6.217 -0.5247  0.0477  0.2253
68038SOL    HW111229   6.474  12.805   6.302 -1.7362 -1.8794  0.3807
68038SOL    HW211230   6.342  12.803   6.228 -0.6698 -0.4309 -1.6436
68039SOL     OW11231  10.028   4.145   9.806 -0.3394 -0.6636  0.0727
68039SOL    HW111232  10.058   4.061   9.770 -3.0423 -1.2202 -1.1142
68039SOL    HW211233   9.958   4.121   9.867 -3.0149  0.7202 -2.2306
68040SOL     OW11234   4.095  12.042   8.379  0.4665  0.3036 -0.1243
68040SOL    HW111235   4.120  11.952   8.358  1.5502  0.4786  0.3352
68040SOL    HW211236   4.000  12.040   8.385  0.5302 -1.0061  0.7429
68041SOL     OW11237   6.457   4.746   0.191 -0.0642 -0.2632 -0.7342
68041SOL    HW111238   6.477   4.740   0.097 -1.9549 -1.2386 -1.1306
68041SOL    HW211239   6.459   4.655   0.221  0.9938  0.0849  0.3008
68042SOL     OW11240   6.051  12.101   3.460 -0.5777 -0.2706 -0.0202
68042SOL    HW111241   5.976  12.146   3.501 -0.0224  0.5614  0.1096
68042SOL    HW211242   6.085  12.044   3.528 -0.4639  0.1262  0.2600
68043SOL     OW11243  12.467   6.402   5.296  0.1087 -0.3984  0.2837
68043SOL    HW111244  12.373   6.410   5.284  0.1715  1.3908  0.7003
68043SOL    HW211245  12.479   6.398   5.391  0.4464 -1.0347  0.2232
68044SOL     OW11246   5.053   7.784   6.608 -0.3627 -0.8076 -0.4250
68044SOL    HW111247   4.996   7.849   6.649  0.6466  1.0075 -1.7550
68044SOL    HW211248   5.105   7.749   6.680  0.8507  1.7532  0.0669
68045SOL     OW11249   5.411   6.428   0.750  0.4913 -0.3547 -0.0147
68045SOL    HW111250   5.400   6.477   0.669  0.5712 -0.8828 -0.3426
68045SOL    HW211251   5.472   6.481   0.801  3.1230 -1.6460 -1.6501
68046SOL     OW11252  12.435   4.185   4.363  0.0941  0.3353  0.3601
68046SOL    HW111253  12.441   4.277   4.391 -0.2462  0.5858 -0.3617
68046SOL    HW211254  12.464   4.135   4.439 -0.2195  1.0216  0.9506
68047SOL     OW11255   7.686   6.285   4.599  0.0307 -0.2074  0.0520
68047SOL    HW111256   7.671   6.372   4.637 -1.2947 -0.5564  0.3959
68047SOL    HW211257   7.743   6.301   4.524  1.0610  0.7557  1.0068
68048SOL     OW11258   8.355   1.461   9.316  0.2861  0.2382 -0.4236
68048SOL    HW111259   8.318   1.374   9.332  0.0175  0.4228 -0.0282
68048SOL    HW211260   8.446   1.453   9.345  0.2796  0.0702 -0.4459
68049SOL     OW11261  12.379  10.545   3.732  0.0062 -0.1501  0.0241
68049SOL    HW111262  12.473  10.564   3.739  0.0813 -0.6786  0.5193
68049SOL    HW211263  12.368  10.461   3.777 -0.7169 -0.0587  0.0290
68050SOL     OW11264   1.585   5.895   3.051  0.3783 -0.5891 -0.0206
68050SOL    HW111265   1.661   5.892   2.992 -0.7453  0.2941 -1.5879
68050SOL    HW211266   1.621   5.923   3.135  1.8698 -0.8031 -0.5467
68051SOL     OW11267   3.105   7.969   1.625  0.0888  0.4603  0.2286
68051SOL    HW111268   3.142   8.050   1.591 -1.0663  0.2730 -1.6422
68051SOL    HW211269   3.083   7.919   1.546 -2.7393 -0.0226  1.2262
68052SOL     OW11270   7.010  10.663   3.523  0.1365 -0.0611  0.5928
68052SOL    HW111271   6.964  10.687   3.604  0.5347 -0.3465  0.9046
68052SOL    HW211272   6.963  10.711   3.455 -1.4989 -1.3807  0.7144
68053SOL     OW11273   2.164   0.859   0.300  0.3915 -0.0241  0.5451
68053SOL    HW111274   2.141   0.767   0.302 -1.6418  0.4373  0.7689
68053SOL    HW211275   2.195   0.879   0.389 -2.1048  0.1376  1.4575
68054SOL     OW11276   6.234   1.817   6.509 -0.5790  0.3493  0.2886
68054SOL    HW111277   6.155   1.856   6.546 -0.5251  0.1957  0.5705
68054SOL    HW211278   6.263   1.879   6.443 -0.8789  0.4555  0.2570
68055SOL     OW11279  12.277   4.892  12.648  0.3131  0.3681 -0.3480
68055SOL    HW111280  12.302   4.801  12.636  1.2174  0.6982 -1.1207
68055SOL    HW211281  12.360   4.939  12.652 -0.1447  1.1861 -0.2051
68056SOL     OW11282   5.906   6.332  12.121 -0.3157 -0.4009  0.6831
68056SOL    HW111283   5.831   6.336  12.062  0.2141  0.7142  0.0570
68056SOL    HW211284   5.977   6.297  12.067  0.5335  1.8784  0.2048
68057SOL     OW11285   2.163  12.227   2.752 -0.0019 -0.2225  0.4585
68057SOL    HW111286   2.157  12.243   2.846 -1.6664 -0.4913  0.4241
68057SOL    HW211287   2.257  12.229   2.733  0.3390  0.0842  2.0726
68058SOL     OW11288   5.466   7.665   0.244  0.0211  0.4768 -0.7956
68058SOL    HW111289   5.421   7.745   0.271 -1.6573 -0.0908 -1.7109
68058SOL    HW211290   5.471   7.672   0.149  0.4272 -0.2257 -0.8289
68059SOL     OW11291   6.720   6.697   9.326  0.5070  0.3950  0.6438
68059SOL    HW111292   6.792   6.735   9.377  1.0372  0.0403  0.1637
68059SOL    HW211293   6.727   6.603   9.341  0.8775  0.2580 -0.3482
68060SOL     OW11294   8.305   6.531   6.130 -0.1349 -0.8362 -0.6816
68060SOL    HW111295   8.266   6.477   6.198 -0.1193 -1.1225 -0.8983
68060SOL    HW211296   8.372   6.476   6.091  0.1074 -0.5442 -0.6843
68061SOL     OW11297   5.243   5.483   9.184 -0.4872  0.3424 -0.5239
68061SOL    HW111298   5.198   5.414   9.135  2.2448 -1.3600 -0.8339
68061SOL    HW211299   5.325   5.495   9.137 -0.1683  2.6581  0.5274
68062SOL     OW11300   5.067   7.234   3.765 -0.2455  0.0458 -0.3837
68062SOL    HW111301   5.023   7.287   3.832  0.5323 -0.8612  0.8983
68062SOL    HW211302   5.063   7.144   3.800  1.2917 -0.2616 -0.9544
68063SOL     OW11303   0.438  11.480   2.339 -0.1289 -0.2256 -0.4932
68063SOL    HW111304   0.479  11.531   2.409  3.2572 -0.2844 -2.2203
68063SOL    HW211305   0.409  11.546   2.275  1.7400 -0.2455 -1.4419
68064SOL     OW11306   4.828   1.663   2.112 -0.2658 -0.3636 -0.6031
68064SOL    HW111307   4.861   1.574   2.121 -0.6903 -0.4930 -0.2844
68064SOL    HW211308   4.868   1.696   2.032  0.1709 -0.7177 -0.5337
68065SOL     OW11309   3.888  10.657  10.661  0.3993  0.7352 -0.0987
68065SOL    HW111310   3.970  10.616  10.686  0.6622  1.1382 -0.2979
68065SOL    HW211311   3.913  10.742  10.626 -0.1019  0.8611 -0.1585
68066SOL     OW11312  11.719   3.922   6.713  0.1723 -0.0364  0.2678
68066SOL    HW111313  11.651   3.869   6.754 -0.2029 -2.0583 -2.7050
68066SOL    HW211314  11.798   3.900   6.762 -0.5005 -1.0823  0.9385
68067SOL     OW11315   6.152   5.975   0.494 -0.4459 -0.1558  0.5738
68067SOL    HW111316   6.117   5.896   0.452 -0.1384  0.3503 -0.6973
68067SOL    HW211317   6.225   6.001   0.437  0.8607 -0.1803  2.1657
68068SOL     OW11318   5.932  12.545   2.576  0.2814  0.5780  0.0984
68068SOL    HW111319   5.953  12.512   2.489  0.1666  1.1691 -0.1638
68068SOL    HW211320   5.987  12.495   2.636 -1.7142 -1.9470  0.0041
68069SOL     OW11321   1.667   7.846   7.507  0.0564  0.4493 -0.1644
68069SOL    HW111322   1.590   7.824   7.455 -1.1410  0.1235  1.6594
68069SOL    HW211323   1.643   7.925   7.554  0.7717  0.2579  0.5474
68070SOL     OW11324   7.817   1.817  10.383  0.1761 -0.3140 -0.3260
68070SOL    HW111325   7.847   1.773  10.303 -0.2036 -0.3164 -0.4690
68070SOL    HW211326   7.732   1.852  10.360  0.2791  0.1068 -0.0685
68071SOL     OW11327   9.826   9.376  11.664  0.3992 -0.5952 -0.0952
68071SOL    HW111328   9.821   9.471  11.652  0.1906 -0.6729 -0.6758
68071SOL    HW211329   9.857   9.343  11.579  3.1741 -0.8330  0.9018
68072SOL     OW11330   8.456  12.009   5.323 -0.1429 -0.0454  0.0220
68072SOL    HW111331   8.538  11.968   5.294 -0.7180 -0.8404 -0.5174
68072SOL    HW211332   8.388  11.946   5.299 -1.0085  1.0040 -0.3547
68073SOL     OW11333   6.146   7.925   3.022  0.2950 -0.1252 -0.3694
68073SOL    HW111334   6.169   7.896   3.111 -0.6484 -2.2743 -0.7501
68073SOL    HW211335   6.138   7.843   2.972  0.4544  1.0133 -2.3653
68074SOL     OW11336   8.310   2.791   6.403  0.1260 -0.0470 -0.6921
68074SOL    HW111337   8.368   2.730   6.358  0.5654  0.5092 -0.8909
68074SOL    HW211338   8.357   2.874   6.402 -0.2855  0.2043 -0.0675
68075SOL     OW11339   9.928   6.581   8.862  0.1743 -0.3409  0.3781
68075SOL    HW111340   9.861   6.607   8.799  1.5925 -0.2778 -1.1853
68075SOL    HW211341  10.008   6.575   8.810  1.1964 -1.3687  1.9877
68076SOL     OW11342   2.112  10.513   8.771 -0.9113  0.2522 -0.0711
68076SOL    HW111343   2.067  10.430   8.785 -0.3567  0.0211  0.3945
68076SOL    HW211344   2.181  10.514   8.838  0.2357  0.2501 -1.2169
68077SOL     OW11345   7.686  10.720   6.616  0.3860  0.5955 -0.1595
68077SOL    HW111346   7.710  10.764   6.535  1.1533  1.0040  0.2719
68077SOL    HW211347   7.724  10.774   6.685 -0.0702  0.1421  0.4626
68078SOL     OW11348   1.328   0.930   4.465 -0.4484  0.3983  1.0499
68078SOL    HW111349   1.284   0.965   4.542  0.1810  0.6926  1.2856
68078SOL    HW211350   1.355   0.842   4.491 -0.8450  0.2352  0.9213
68079SOL     OW11351   4.349   1.772   9.822 -0.0931 -0.2674 -0.4432
68079SOL    HW111352   4.361   1.847   9.881 -1.3455 -0.5160  0.1606
68079SOL    HW211353   4.265   1.788   9.779 -0.9225 -1.8304  0.5083
68080SOL     OW11354   2.288  11.694   3.552  0.3943  0.0247 -0.1185
68080SOL    HW111355   2.372  11.667   3.516  0.9173 -0.3831  1.3177
68080SOL    HW211356   2.306  11.709   3.645 -1.6291 -2.5098  0.7943
68081SOL     OW11357   5.114  11.496   4.301 -0.9692 -0.1861 -0.1509
68081SOL    HW111358   5.194  11.549   4.306 -0.5923 -0.8607  3.5859
68081SOL    HW211359   5.114  11.462   4.212  2.6925  0.1626 -0.4498
68082SOL     OW11360   1.094   8.402   6.794  0.4570 -0.0791 -0.4575
68082SOL    HW111361   1.093   8.498   6.793 -0.4469 -0.0860 -0.3652
68082SOL    HW211362   1.071   8.376   6.705 -0.7953 -0.2096 -0.1111
68083SOL     OW11363   7.754   7.923   7.057 -0.1742  0.4713 -0.3973
68083SOL    HW111364   7.748   8.018   7.070 -0.9002  0.8515 -2.9842
68083SOL    HW211365   7.834   7.911   7.005 -0.0081 -0.3797  0.0348
68084SOL     OW11366   8.737  11.915   5.604  0.1653  0.2000  0.1967
68084SOL    HW111367   8.797  11.918   5.529 -0.2379 -0.6383 -0.1637
68084SOL    HW211368   8.791  11.883   5.676 -0.1225 -1.8271 -0.4291
68085SOL     OW11369   1.434   9.138   8.682  0.5374  0.1578  0.5236
68085SOL    HW111370   1.493   9.095   8.745 -0.9141 -0.2543  1.6724
68085SOL    HW211371   1.397   9.212   8.731  0.9615  1.1022 -0.5576
68086SOL     OW11372   1.885  11.499   9.042  0.0680 -0.2403 -0.6559
68086SOL    HW111373   1.819  11.480   9.108  0.6762 -2.1651 -0.5304
68086SOL    HW211374   1.963  11.523   9.092  0.8902 -2.8718 -0.5231
68087SOL     OW11375   7.535   9.261   1.121  0.0956 -0.3307  0.3263
68087SOL    HW111376   7.509   9.326   1.056  3.2242  1.6353  0.8121
68087SOL    HW211377   7.476   9.274   1.195 -0.3437  0.8566 -0.2209
68088SOL     OW11378   6.976   5.442  11.872 -0.6116 -0.2708  0.3291
68088SOL    HW111379   6.941   5.478  11.791 -0.7404  2.0149  1.3205
68088SOL    HW211380   7.060   5.487  11.884  0.2249 -1.8468  0.6120
68089SOL     OW11381  10.353   2.784   0.371 -0.1819  0.3109  0.3328
68089SOL    HW111382  10.448   2.785   0.363 -0.0646 -1.6494  0.8851
68089SOL    HW211383  10.336   2.740   0.454 -1.5748  2.2816  1.1659
68090SOL     OW11384   6.250   4.844   8.413  0.3194  0.1018 -0.3585
68090SOL    HW111385   6.232   4.766   8.466  0.4491  1.4611  1.8228
68090SOL    HW211386   6.180   4.846   8.348 -0.7958 -0.8276  0.7578
68091SOL     OW11387   1.324   5.811   9.937 -1.0988 -0.0523 -0.0459
68091SOL    HW111388   1.390   5.774   9.879 -1.9759 -2.5318  0.4045
68091SOL    HW211389   1.334   5.762  10.019 -0.9446  2.2567  1.4242
68092SOL     OW11390   2.842   8.933   1.364 -0.0091 -0.0342 -0.0202
68092SOL    HW111391   2.798   8.885   1.293 -1.4429 -0.1833  0.9466
68092SOL    HW211392   2.781   8.931   1.437  1.7825 -0.6626  1.5714
68093SOL     OW11393   9.172   3.533   3.756  0.1939  1.0598  0.2104
68093SOL    HW111394   9.109   3.556   3.825  1.0270  0.9994  1.0077
68093SOL    HW211395   9.257   3.561   3.790  0.6373  0.9303 -0.7529
68094SOL     OW11396   5.285   9.876   9.446  0.7323 -0.2292  0.0829
68094SOL    HW111397   5.266   9.962   9.483  0.2143 -0.6621  0.8543
68094SOL    HW211398   5.207   9.855   9.394  0.6006 -0.4950  0.3888
68095SOL     OW11399  10.075   4.873  11.809 -0.3726 -0.0649  0.3456
68095SOL    HW111400  10.151   4.912  11.853 -0.5997  0.1622  0.5322
68095SOL    HW211401  10.112   4.797  11.762 -0.0611 -0.0647  0.5850
68096SOL     OW11402  12.776   8.072   7.511  0.1697  0.2554 -0.0755
68096SOL    HW111403  12.745   7.987   7.544  0.2261 -0.6868 -2.2838
68096SOL    HW211404  12.798   8.056   7.420 -1.8490  3.1394 -1.2217
68097SOL     OW11405   2.588   6.390   5.024 -0.4104 -0.1293  0.0207
68097SOL    HW111406   2.642   6.373   4.947 -2.2606  0.1930 -1.4236
68097SOL    HW211407   2.597   6.484   5.040  1.0952 -0.4343  1.1232
68098SOL     OW11408   2.025   9.870   4.691 -0.0707  0.0783 -0.2115
68098SOL    HW111409   1.998   9.818   4.767  1.1537  0.3008  0.4053
68098SOL    HW211410   1.954   9.860   4.629 -1.7691  1.0056  1.4867
68099SOL     OW11411   5.966   6.498   9.996 -0.2959 -0.3052 -0.5721
68099SOL    HW111412   5.909   6.438  10.044  0.1916  1.5822  2.6007
68099SOL    HW211413   5.908   6.543   9.935 -2.1122  0.7463  1.7762
68100SOL     OW11414  11.273  11.899   8.538  0.1027 -0.2033  0.2579
68100SOL    HW111415  11.246  11.922   8.449 -1.8997 -1.0491  0.6086
68100SOL    HW211416  11.331  11.970   8.564 -0.8032  1.0618 -1.0271
68101SOL     OW11417  10.071   9.250   0.977 -0.5815 -0.1067 -0.3405
68101SOL    HW111418  10.085   9.228   0.885 -0.8863 -0.5376 -0.2853
68101SOL    HW211419  10.149   9.298   1.003 -1.3269  1.7710 -1.3721
68102SOL     OW11420   3.770   2.796  12.181  0.0675  0.0382 -0.2276
68102SOL    HW111421   3.769   2.861  12.110  0.8671 -0.2474 -0.5051
68102SOL    HW211422   3.854   2.809  12.225  0.9299 -1.8154 -1.2400
68103SOL     OW11423   7.601   1.660   8.534 -0.1774 -0.1752 -0.0561
68103SOL    HW111424   7.560   1.740   8.503  0.3777  0.0734 -0.1619
68103SOL    HW211425   7.552   1.637   8.613 -0.2277  0.3660  0.0720
68104SOL     OW11426   2.252   3.241   9.038 -0.1720 -0.1224  0.4104
68104SOL    HW111427   2.209   3.208   8.959  0.2845  0.8908 -0.2791
68104SOL    HW211428   2.346   3.234   9.019  0.1405 -3.4745  2.3689
68105SOL     OW11429   3.277   2.091   7.167 -0.5607  0.5022  0.2055
68105SOL    HW111430   3.223   2.147   7.222 -1.2103 -0.5318  0.6595
68105SOL    HW211431   3.258   2.119   7.078 -0.1361  1.6285  0.4553
68106SOL     OW11432   9.755   1.695   4.827  0.4914 -0.4311  0.2487
68106SOL    HW111433   9.819   1.762   4.804 -0.2922  0.5976  1.0094
68106SOL    HW211434   9.808   1.620   4.854  1.3772 -0.2238 -0.8260
68107SOL     OW11435  10.853  10.203   8.174 -0.2849  0.3148 -0.2989
68107SOL    HW111436  10.872  10.288   8.213  0.6346 -0.8838  2.0813
68107SOL    HW211437  10.938  10.169   8.148 -0.4913 -0.3472 -0.1429
68108SOL     OW11438   5.766   9.464   1.345 -0.3719  0.0787  0.1581
68108SOL    HW111439   5.730   9.520   1.414  1.4124  1.6495 -0.0959
68108SOL    HW211440   5.817   9.398   1.393 -3.1407 -2.0162  0.5051
68109SOL     OW11441   4.312   5.448   4.293 -0.0172 -0.1416 -0.4473
68109SOL    HW111442   4.403   5.470   4.312  0.4548 -1.7462 -0.6830
68109SOL    HW211443   4.296   5.486   4.206  0.1145  0.9545 -0.0032
68110SOL     OW11444   7.272  10.517   5.783  0.0141  0.1954  0.0135
68110SOL    HW111445   7.269  10.606   5.746  1.0429  0.2533  0.0548
68110SOL    HW211446   7.296  10.530   5.875 -1.2707 -0.0387  0.4051
68111SOL     OW11447   2.827   5.530   7.732  0.0988 -0.3898 -0.1117
68111SOL    HW111448   2.902   5.502   7.679 -0.0047 -0.8929 -0.0038
68111SOL    HW211449   2.802   5.451   7.781 -1.1323 -0.5210 -0.9021
68112SOL     OW11450   2.423   0.679   4.074  0.0653 -0.3353 -0.0889
68112SOL    HW111451   2.471   0.761   4.082 -0.1163 -0.2972  0.6381
68112SOL    HW211452   2.337   0.698   4.111  0.2601 -1.0508  0.7510
68113SOL     OW11453  12.493  10.307   5.497  0.5612  0.2320  0.2739
68113SOL    HW111454  12.423  10.283   5.437 -0.1646 -0.9746  1.5424
68113SOL    HW211455  12.562  10.342   5.441  0.1844 -1.4602 -1.3506
68114SOL     OW11456  10.249  11.075   5.787 -0.4609 -0.0478  0.2251
68114SOL    HW111457  10.167  11.091   5.835 -0.4084  1.1841 -0.0668
68114SOL    HW211458  10.308  11.143   5.817  0.8738 -1.5891  1.2731
68115SOL     OW11459   1.288   7.550   3.018 -0.5677 -0.3255 -0.0766
68115SOL    HW111460   1.232   7.535   2.942  0.6328  0.3189 -1.1081
68115SOL    HW211461   1.241   7.617   3.069 -0.4694  0.6587 -1.2412
68116SOL     OW11462   2.500   1.073  10.430 -0.4607  0.2549  0.1905
68116SOL    HW111463   2.588   1.067  10.394 -0.8799  2.9322 -1.5496
68116SOL    HW211464   2.446   1.024  10.368 -0.4143 -0.0431  0.3843
68117SOL     OW11465   9.943   6.361   7.042 -0.4121 -0.0439  0.4502
68117SOL    HW111466   9.915   6.449   7.063  1.9285  1.3282 -1.5840
68117SOL    HW211467   9.934   6.355   6.947 -1.4984 -2.4152  0.6247
68118SOL     OW11468  11.631   4.110  12.889  0.2384  0.0230  0.0845
68118SOL    HW111469  11.642   4.205  12.883  1.1122 -0.0458  0.4671
68118SOL    HW211470  11.558   4.091  12.830 -2.6218  1.3828  2.8401
68119SOL     OW11471  12.545   9.405   2.136  0.1998 -0.1073 -0.7340
68119SOL    HW111472  12.478   9.409   2.068  0.1159  1.8503 -0.5991
68119SOL    HW211473  12.498   9.426   2.217  0.9472  1.4111 -0.6535
68120SOL     OW11474  11.387   8.504   5.001 -0.5153  0.7022  0.7553
68120SOL    HW111475  11.369   8.497   4.907  0.7509  0.5612  0.4961
68120SOL    HW211476  11.418   8.594   5.013 -0.4967  0.6637  1.0065
68121SOL     OW11477  10.378   7.989   4.833 -0.1810  0.4728 -0.0155
68121SOL    HW111478  10.329   7.948   4.761  1.7534 -1.0296 -0.5641
68121SOL    HW211479  10.322   7.978   4.910  0.1596 -3.3279 -0.1236
68122SOL     OW11480  10.775   1.465   2.694 -0.2312 -0.1546 -0.4583
68122SOL    HW111481  10.704   1.529   2.690  0.2698  0.4322 -0.2646
68122SOL    HW211482  10.824   1.489   2.773 -0.8625 -1.6787  0.4320
68123SOL     OW11483   8.358   1.017   7.987 -0.6255  0.5225  0.8591
68123SOL    HW111484   8.447   0.988   7.967 -0.0883  1.5239  1.7069
68123SOL    HW211485   8.320   1.039   7.903 -0.6429 -1.4334  0.3061
68124SOL     OW11486   3.764   9.105   9.499 -0.0493 -0.4231 -0.6095
68124SOL    HW111487   3.833   9.166   9.526 -0.0835  0.4245 -2.3144
68124SOL    HW211488   3.809   9.041   9.444 -0.0372 -1.9503  1.0676
68125SOL     OW11489   6.496   6.188   3.963 -0.4046  0.1221 -0.2494
68125SOL    HW111490   6.508   6.104   4.007 -0.3573 -0.2332 -0.9178
68125SOL    HW211491   6.499   6.253   4.033  0.0852 -0.3899  0.2181
68126SOL     OW11492   6.076   8.790  12.337  0.2692  0.3368 -0.8251
68126SOL    HW111493   6.055   8.699  12.316  1.3779  0.3239 -1.9762
68126SOL    HW211494   6.048   8.800  12.428 -0.4346 -0.9706 -0.8693
68127SOL     OW11495   0.050   1.685   1.638  0.5657 -0.4998  0.0154
68127SOL    HW111496   0.113   1.744   1.679 -0.7319 -0.1321  1.5718
68127SOL    HW211497   0.018   1.734   1.562  1.3241 -0.2403 -0.1464
68128SOL     OW11498  12.367   6.337  11.417  0.2576 -0.2323  0.1262
68128SOL    HW111499  12.361   6.253  11.373 -0.0688 -1.0225  1.6266
68128SOL    HW211500  12.277   6.356  11.444  0.6663 -0.5895  1.8779
68129SOL     OW11501  11.753  10.241   9.564 -0.4208  0.4015  0.2799
68129SOL    HW111502  11.796  10.272   9.644  1.9699  1.0482 -1.1818
68129SOL    HW211503  11.782  10.151   9.555  0.7914  0.8662 -0.7571
68130SOL     OW11504   3.605   9.635   9.889 -0.0460 -0.1572 -0.0178
68130SOL    HW111505   3.558   9.701   9.838  0.2291 -0.0951 -0.1976
68130SOL    HW211506   3.649   9.581   9.823  2.0088  1.1669  0.1551
68131SOL     OW11507  12.681   6.955   9.383 -0.7217 -0.1831 -0.4024
68131SOL    HW111508  12.723   6.879   9.342  1.8082  1.2888 -0.7221
68131SOL    HW211509  12.627   6.992   9.313 -0.2147 -0.4197 -0.9261
68132SOL     OW11510   2.375   2.879  12.753 -0.2237 -0.0818  0.1839
68132SOL    HW111511   2.466   2.898  12.775 -0.5332  0.4620  1.0733
68132SOL    HW211512   2.325   2.941  12.806 -1.1799 -1.4378  0.8965
68133SOL     OW11513   8.588   5.916   0.927 -0.3605  0.2264  0.3584
68133SOL    HW111514   8.544   5.832   0.932 -1.1335  0.3501 -2.6428
68133SOL    HW211515   8.635   5.914   0.844  1.0732  2.1029  1.0442
68134SOL     OW11516   8.923  11.873   5.391 -0.5862 -0.0000  0.3969
68134SOL    HW111517   8.943  11.779   5.386  0.4304  0.2344 -0.2373
68134SOL    HW211518   8.982  11.913   5.328 -1.9783  0.9378 -0.3440
68135SOL     OW11519  11.456   9.489   5.046  0.2351 -0.5434  0.0112
68135SOL    HW111520  11.509   9.480   5.126  0.1473  0.6474  0.2343
68135SOL    HW211521  11.493   9.426   4.985  0.5837 -1.1764  0.8588
68136SOL     OW11522  12.378   7.421   2.690 -0.0155  0.3200  0.0209
68136SOL    HW111523  12.386   7.386   2.602 -4.0674  0.6326 -0.6627
68136SOL    HW211524  12.348   7.348   2.744 -1.3131  0.9519  0.2132
68137SOL     OW11525   6.986   4.328   7.631 -0.0781 -0.0090  0.0845
68137SOL    HW111526   7.006   4.286   7.715  2.1867 -1.2721 -1.0038
68137SOL    HW211527   6.933   4.263   7.584  0.8579 -0.4057 -0.4377
68138SOL     OW11528  11.644   7.593  11.515  0.2270 -0.6055  0.0838
68138SOL    HW111529  11.721   7.607  11.570  0.7519 -0.6739 -0.6068
68138SOL    HW211530  11.569   7.605  11.573  0.7328  0.7767  0.4880
68139SOL     OW11531   8.563  11.551   9.776  0.2312  0.0995  0.1683
68139SOL    HW111532   8.516  11.468   9.780 -0.5224  0.5562  1.8610
68139SOL    HW211533   8.649  11.532   9.813  0.0573  0.0567  0.5618
68140SOL     OW11534   8.230   2.770   9.065 -0.2388 -0.3711 -0.0498
68140SOL    HW111535   8.295   2.803   9.004  1.3511 -3.2341 -0.0936
68140SOL    HW211536   8.187   2.848   9.100  1.5717  1.5143 -1.8068
68141SOL     OW11537  10.686   0.995  11.931  0.0424  0.0183 -0.2500
68141SOL    HW111538  10.705   0.952  11.848  2.0783  1.0590 -0.3780
68141SOL    HW211539  10.640   1.075  11.907  0.3066  0.1381 -0.3634
68142SOL     OW11540   9.534   9.162   4.957  0.4525  0.4805  0.3493
68142SOL    HW111541   9.468   9.224   4.989  2.1550  2.9589 -0.6575
68142SOL    HW211542   9.589   9.145   5.034 -1.4079 -1.9016  1.3011
68143SOL     OW11543   3.445   3.919   7.318 -0.0889  0.0222  0.1525
68143SOL    HW111544   3.487   3.997   7.282 -1.4384  0.0582 -1.4504
68143SOL    HW211545   3.362   3.950   7.353 -1.3962 -0.8925 -1.9811
68144SOL     OW11546   5.959   9.027  12.158  0.0393  0.2501  0.0675
68144SOL    HW111547   5.877   9.061  12.193 -0.9251 -0.5231 -1.3376
68144SOL    HW211548   5.986   8.960  12.221  0.5171  1.6453  1.4106
68145SOL     OW11549   6.782   1.751  11.107 -0.0189  0.4308 -0.4487
68145SOL    HW111550   6.843   1.736  11.180  0.2956  0.4654 -0.7037
68145SOL    HW211551   6.817   1.700  11.035 -0.8995 -0.4382 -0.2902
68146SOL     OW11552   7.692   2.287  12.375  0.2088 -0.0592  0.1226
68146SOL    HW111553   7.679   2.373  12.415 -0.0244  0.0586 -0.1970
68146SOL    HW211554   7.649   2.294  12.289 -1.4583 -1.0794  0.8188
68147SOL     OW11555  12.105   7.788   5.171  0.1629  0.3973  0.3085
68147SOL    HW111556  12.085   7.774   5.079 -0.3023 -1.5702  0.6797
68147SOL    HW211557  12.198   7.812   5.172 -0.1605  1.8150 -0.7500
68148SOL     OW11558   6.700  12.473   4.654  0.3811  0.9647 -0.4414
68148SOL    HW111559   6.781  12.520   4.675  1.8232 -1.0122 -1.1746
68148SOL    HW211560   6.671  12.435   4.737 -0.0141  1.9782 -0.1091
68149SOL     OW11561   7.091   8.435   3.316 -0.2377  0.0921 -0.4773
68149SOL    HW111562   7.115   8.342   3.307  0.3025  0.2756 -1.0175
68149SOL    HW211563   7.106   8.455   3.408 -1.2608 -0.5954 -0.1382
68150SOL     OW11564   2.774   2.276   0.585 -0.1726  0.1174 -0.2760
68150SOL    HW111565   2.842   2.214   0.558  0.0313 -0.0128  0.5176
68150SOL    HW211566   2.692   2.231   0.565 -0.0251 -0.4423  0.3741
68151SOL     OW11567  12.166   1.753   4.426 -0.3558  0.4284 -0.0826
68151SOL    HW111568  12.101   1.786   4.487  0.1483  2.3582 -0.5193
68151SOL    HW211569  12.136   1.664   4.404 -1.2050  0.1565  1.9612
68152SOL     OW11570   1.261   8.367   7.701 -0.3454  0.2564  0.8494
68152SOL    HW111571   1.188   8.420   7.733 -1.9576 -1.6652  0.5875
68152SOL    HW211572   1.320   8.360   7.776 -2.1900 -1.0095  2.2936
68153SOL     OW11573  11.762   3.675   4.853  0.1551 -0.3819  0.5078
68153SOL    HW111574  11.825   3.709   4.790 -1.4154  1.3201 -0.2375
68153SOL    HW211575  11.759   3.741   4.923 -0.4994 -0.6227  0.7201
68154SOL     OW11576   4.954   3.656   8.480 -0.1991 -0.3858  0.1107
68154SOL    HW111577   4.924   3.688   8.565 -0.1223 -0.0261  0.0044
68154SOL    HW211578   4.945   3.731   8.422  0.4230 -0.4181 -0.0335
68155SOL     OW11579   2.039   2.905   3.608 -0.3113 -0.0683  0.0346
68155SOL    HW111580   2.066   2.820   3.575  1.1389  0.6961 -0.8383
68155SOL    HW211581   1.944   2.906   3.598 -0.4504 -1.8870  0.8688
68156SOL     OW11582   7.503   1.518   4.872  0.8637 -1.2495 -0.5750
68156SOL    HW111583   7.426   1.513   4.815  0.9596  0.0195 -0.8310
68156SOL    HW211584   7.475   1.570   4.947  1.2059 -1.5734 -0.2165
68157SOL     OW11585   2.216   4.153  10.128  0.5904 -0.2151  0.7858
68157SOL    HW111586   2.128   4.118  10.140 -0.7856  2.4499 -0.5472
68157SOL    HW211587   2.241   4.124  10.040 -0.1902  1.2813  0.0312
68158SOL     OW11588  12.165  11.165   3.195  0.0564 -0.0506 -0.2464
68158SOL    HW111589  12.129  11.250   3.221  1.5518  0.4121  0.3878
68158SOL    HW211590  12.190  11.176   3.103 -2.9305 -0.9280 -1.3029
68159SOL     OW11591   9.983  12.211   9.950  0.2426  0.0872  0.3275
68159SOL    HW111592   9.963  12.297   9.911  2.7385  0.4124 -0.4224
68159SOL    HW211593   9.897  12.172   9.968 -0.9730  2.7221  0.7011
68160SOL     OW11594   5.563   5.838   6.612  0.2236  0.4966 -0.0030
68160SOL    HW111595   5.546   5.889   6.532 -0.6523 -1.4750 -1.1521
68160SOL    HW211596   5.652   5.805   6.601  0.0990  0.2168 -0.1697
68161SOL     OW11597   5.762   1.552   8.445 -0.6016 -0.4814  0.1977
68161SOL    HW111598   5.769   1.598   8.362 -2.1326 -0.0003  0.3156
68161SOL    HW211599   5.848   1.565   8.487 -0.8904  2.0943  0.1423
68162SOL     OW11600  11.400   0.217   8.223  0.6242  0.0112  0.3506
68162SOL    HW111601  11.362   0.189   8.140  1.5127 -0.4526  0.0869
68162SOL    HW211602  11.414   0.135   8.271  1.8530  0.1188  0.1869
68163SOL     OW11603   4.353  11.918   2.525  0.2016 -0.7543 -0.3441
68163SOL    HW111604   4.343  11.921   2.430  0.3973 -0.9371 -0.3724
68163SOL    HW211605   4.326  12.005   2.555 -1.6384 -1.2869 -0.3787
68164SOL     OW11606  12.059  10.250   0.587 -0.2510 -0.1585 -0.2331
68164SOL    HW111607  12.015  10.329   0.618  1.9208  0.8683  0.3886
68164SOL    HW211608  12.019  10.231   0.502 -1.5422  0.9658  0.0978
68165SOL     OW11609   0.511   0.709   7.378 -0.3900  0.3106  0.6295
68165SOL    HW111610   0.521   0.786   7.434 -0.0443 -0.1421  1.1958
68165SOL    HW211611   0.570   0.644   7.416  0.2276  0.1582 -0.5532
68166SOL     OW11612   8.957   3.001  10.905 -1.1288  0.5294 -0.2003
68166SOL    HW111613   8.939   3.094  10.894 -0.2891  0.7038 -0.1675
68166SOL    HW211614   8.968   2.990  11.000 -1.5642  0.3305 -0.1700
68167SOL     OW11615  10.810  12.729   0.233  0.3197  0.2826  0.0284
68167SOL    HW111616  10.718  12.744   0.213  0.1565  0.7054  1.0314
68167SOL    HW211617  10.840  12.666   0.167 -0.7190  0.0365 -0.2165
68168SOL     OW11618   9.204   4.224   5.785  0.0794  0.2527 -0.4707
68168SOL    HW111619   9.282   4.217   5.839 -0.6382 -1.2439  0.4382
68168SOL    HW211620   9.231   4.190   5.699  0.5362  0.1036 -0.2710
68169SOL     OW11621   7.383   0.779   5.148 -0.1365  0.4902  0.5041
68169SOL    HW111622   7.341   0.797   5.065 -0.1763  0.6866  0.5655
68169SOL    HW211623   7.370   0.686   5.163  1.1951  0.1298 -0.4490
68170SOL     OW11624  10.036  10.479   8.471 -0.2567  0.1820 -0.3156
68170SOL    HW111625  10.003  10.515   8.553  0.6988 -0.4429  0.3666
68170SOL    HW211626  10.003  10.389   8.469  0.4298 -0.0774 -0.1909
68171SOL     OW11627   5.689   8.273   3.136 -0.1996  0.3422 -0.0477
68171SOL    HW111628   5.697   8.315   3.050  1.6714  0.1048 -0.0532
68171SOL    HW211629   5.716   8.340   3.198  0.9174 -0.2258  0.1077
68172SOL     OW11630   4.262   3.856   4.225  0.2942  0.2873  0.1526
68172SOL    HW111631   4.212   3.937   4.239 -0.3141 -0.3079  1.6012
68172SOL    HW211632   4.273   3.820   4.313  1.3933 -0.7175 -0.3865
68173SOL     OW11633   8.442   6.308   0.205 -0.5251  0.7043 -0.4400
68173SOL    HW111634   8.378   6.265   0.148  1.0945  0.4230 -2.1056
68173SOL    HW211635   8.452   6.396   0.169 -0.0591  0.7921 -0.1130
68174SOL     OW11636   0.104   9.612  12.109  0.2695 -0.1559 -0.2096
68174SOL    HW111637   0.108   9.705  12.088  0.7881  0.0263  0.6248
68174SOL    HW211638   0.195   9.583  12.107  0.0821 -0.7386 -0.8196
68175SOL     OW11639  12.655   4.553   4.905 -0.1926 -0.0881  0.2458
68175SOL    HW111640  12.705   4.590   4.977  0.9104  2.2140 -1.5510
68175SOL    HW211641  12.567   4.589   4.916 -0.2334 -0.3674  0.8445
68176SOL     OW11642   4.847  12.284   6.899 -0.3366 -0.4447 -0.3201
68176SOL    HW111643   4.865  12.215   6.835  0.2501  0.0258 -0.6685
68176SOL    HW211644   4.842  12.364   6.847 -0.7170 -0.1778  0.1228
68177SOL     OW11645   7.431  12.093   6.142  0.0015  0.2293  0.7231
68177SOL    HW111646   7.421  12.116   6.235  0.7764  0.4894  0.7484
68177SOL    HW211647   7.449  12.176   6.099 -1.3182  0.2608  0.1738
68178SOL     OW11648   7.022   1.421   3.997  0.0955  0.1090 -0.3269
68178SOL    HW111649   7.077   1.492   4.029  0.7813 -0.1176 -0.9783
68178SOL    HW211650   6.979   1.457   3.919 -1.0835  0.4492  0.4498
68179SOL     OW11651   3.215   0.968   3.079 -0.7097  0.2802 -0.0081
68179SOL    HW111652   3.203   0.904   3.008  3.2478 -0.8744  0.1303
68179SOL    HW211653   3.205   0.917   3.159  0.0034  0.3795  0.1493
68180SOL     OW11654   9.442   5.984   5.108  0.1086  0.2568  0.2509
68180SOL    HW111655   9.411   6.043   5.176 -0.3402 -2.4026  2.5569
68180SOL    HW211656   9.533   5.966   5.133  0.8506  1.3491 -1.5120
68181SOL     OW11657   5.480   5.689   8.967  0.4978 -0.1222  0.0417
68181SOL    HW111658   5.494   5.746   8.891  0.6551 -1.8783 -1.3203
68181SOL    HW211659   5.426   5.618   8.933  0.7359 -1.0532  1.5428
68182SOL     OW11660  10.602   2.840   6.468 -0.3170 -0.0071 -0.6033
68182SOL    HW111661  10.633   2.755   6.436 -0.9175 -0.0765 -1.0159
68182SOL    HW211662  10.522   2.856   6.419 -0.6051  0.4549  0.0111
68183SOL     OW11663   5.274   3.383  12.321 -0.1575  0.0010  0.3695
68183SOL    HW111664   5.235   3.468  12.301 -0.8950 -0.3659  0.2171
68183SOL    HW211665   5.288   3.384  12.415  2.4159  1.3537  0.0820
68184SOL     OW11666   2.207   8.659  12.452  0.6695 -0.7224 -0.6860
68184SOL    HW111667   2.141   8.720  12.418  0.8336 -0.1001  0.1029
68184SOL    HW211668   2.280   8.714  12.479  0.9825 -1.3044 -0.3250
68185SOL     OW11669   1.267   8.988   6.406  0.3714 -0.4135  0.1740
68185SOL    HW111670   1.250   8.895   6.421  0.7589 -0.1375  2.8616
68185SOL    HW211671   1.183   9.030   6.425  0.1600 -0.1791 -1.1670
68186SOL     OW11672   5.711   7.837   3.599 -0.3737  0.0210  0.7165
68186SOL    HW111673   5.763   7.868   3.525  1.0192 -0.4414  1.4640
68186SOL    HW211674   5.658   7.912   3.624  0.3138  0.6815  0.2426
68187SOL     OW11675   9.954   1.263   7.812  0.6226  0.4363 -0.2016
68187SOL    HW111676   9.942   1.212   7.732 -0.1282 -0.0505  0.2161
68187SOL    HW211677  10.048   1.284   7.812  0.8089 -0.3232 -0.7481
68188SOL     OW11678   8.486   8.456  12.153 -0.1173  0.1610  0.0826
68188SOL    HW111679   8.576   8.466  12.122 -0.1783 -1.1616 -0.5605
68188SOL    HW211680   8.489   8.484  12.245  0.6565  1.3979 -0.2992
68189SOL     OW11681   1.784   4.850   7.322  0.4283 -0.0821  0.1728
68189SOL    HW111682   1.791   4.758   7.346  2.1728 -0.0904 -0.1909
68189SOL    HW211683   1.692   4.863   7.301  0.0836 -1.6432  0.5874
68190SOL     OW11684   3.863   2.231   3.778  0.7332 -0.6786 -0.0925
68190SOL    HW111685   3.772   2.199   3.782  0.7753 -0.8389 -0.4144
68190SOL    HW211686   3.910   2.175   3.839  0.7408 -1.0186 -0.4075
68191SOL     OW11687  11.734  11.964   8.036 -0.2197  0.3734  0.3848
68191SOL    HW111688  11.801  11.948   8.103 -0.0643 -1.8984 -0.2299
68191SOL    HW211689  11.685  11.882   8.031 -0.4285  0.5696 -2.0531
68192SOL     OW11690  12.867   1.921   7.898  0.1957 -0.3575 -0.3223
68192SOL    HW111691  12.850   1.832   7.929 -1.1386 -0.3257 -0.9049
68192SOL    HW211692  12.897   1.968   7.976  1.1705 -1.3535 -0.0583
68193SOL     OW11693   8.432   6.986   7.639  0.4393  0.0029  0.3749
68193SOL    HW111694   8.483   6.930   7.697 -1.9817 -0.1260  2.5908
68193SOL    HW211695   8.349   6.940   7.628 -0.1770  1.3433 -0.9772
68194SOL     OW11696   8.136   5.997   8.313  0.8501 -0.1306  0.2901
68194SOL    HW111697   8.223   6.016   8.277  0.7474  0.9219  0.5752
68194SOL    HW211698   8.075   6.033   8.249  0.6010 -1.2629 -0.1305
68195SOL     OW11699   7.290   0.294   0.640  0.8216 -0.6563 -0.1621
68195SOL    HW111700   7.201   0.303   0.676  1.1614 -1.8322  1.0361
68195SOL    HW211701   7.345   0.346   0.698  0.9251  0.0754 -0.9076
68196SOL     OW11702   4.023   2.345  10.271  0.3642  0.4467  0.2259
68196SOL    HW111703   3.941   2.393  10.261  0.7793  1.1079 -0.0382
68196SOL    HW211704   4.071   2.392  10.338 -0.0247 -0.7251  1.3707
68197SOL     OW11705   9.971   5.342   7.923 -0.0566  0.4170 -0.1915
68197SOL    HW111706   9.903   5.340   7.991 -1.6021  1.2010 -1.6405
68197SOL    HW211707  10.051   5.367   7.970 -0.8200 -0.1553  1.5076
68198SOL     OW11708  12.432   0.822   6.248 -0.0920 -0.6364 -0.2430
68198SOL    HW111709  12.419   0.731   6.221  1.3244 -1.2448  0.9847
68198SOL    HW211710  12.512   0.821   6.300 -0.8203  1.0680  1.0291
68199SOL     OW11711  11.601   2.028   7.638 -0.6175 -0.0553  0.1687
68199SOL    HW111712  11.636   1.941   7.618 -0.3620  0.1234 -0.1626
68199SOL    HW211713  11.612   2.078   7.557  1.3188  0.9669  0.9927
68200SOL     OW11714   6.916  10.578   3.912  0.5079 -0.0731  0.6897
68200SOL    HW111715   6.881  10.650   3.860 -0.4974 -0.3378  0.9818
68200SOL    HW211716   6.851  10.508   3.903  0.8926 -0.5272  1.3719
68201SOL     OW11717   3.289   5.628   9.113  0.3361 -0.1736 -0.0343
68201SOL    HW111718   3.345   5.609   9.038 -0.8141  0.9208 -1.2257
68201SOL    HW211719   3.299   5.723   9.127  0.5089 -0.3579  1.1846
68202SOL     OW11720   8.882   4.430   2.369  0.1613  0.3422  0.1486
68202SOL    HW111721   8.905   4.360   2.430  0.2151  1.3547  1.3212
68202SOL    HW211722   8.855   4.384   2.290 -0.5403 -1.0255  1.1419
68203SOL     OW11723   1.725   1.766   8.135  0.1575 -0.2821 -0.1255
68203SOL    HW111724   1.664   1.706   8.091  0.7222 -2.1410  1.4823
68203SOL    HW211725   1.670   1.838   8.165 -0.5622  0.0182 -2.0041
68204SOL     OW11726   4.251   4.568  12.180  0.3552 -0.3155  0.5445
68204SOL    HW111727   4.223   4.600  12.095  2.3679  0.2795  0.0448
68204SOL    HW211728   4.183   4.506  12.207 -1.4675  1.1732 -0.4254
68205SOL     OW11729  10.946   9.106   7.951  0.7232 -0.0024 -0.0029
68205SOL    HW111730  11.004   9.163   8.001  2.9498 -2.1367  0.0377
68205SOL    HW211731  11.002   9.035   7.921 -1.1610 -0.4268 -2.9850
68206SOL     OW11732   4.712  12.768   1.607 -0.3196 -0.3269 -0.2417
68206SOL    HW111733   4.663  12.702   1.558 -0.1598  0.1539 -1.0746
68206SOL    HW211734   4.725  12.840   1.544 -0.1571  0.3316  0.5250
68207SOL     OW11735   7.231   7.538   0.134 -0.2398  0.3342  0.5497
68207SOL    HW111736   7.234   7.443   0.140 -0.2669  0.3725  1.1900
68207SOL    HW211737   7.297   7.560   0.068  0.4442 -0.0681  1.0881
68208SOL     OW11738   8.526  10.439   1.208  0.7593  0.8637 -0.3399
68208SOL    HW111739   8.482  10.425   1.125 -0.6235  2.4138  0.0769
68208SOL    HW211740   8.588  10.510   1.191 -1.7445  3.4899  0.5445
68209SOL     OW11741   0.742   5.709   2.753 -0.1495 -0.5583 -0.2041
68209SOL    HW111742   0.700   5.623   2.751  1.0630 -1.2577  1.4097
68209SOL    HW211743   0.833   5.690   2.777  0.8986  0.9606 -2.6571
68210SOL     OW11744   5.907   1.464   3.614  0.0697 -0.2538 -0.0736
68210SOL    HW111745   5.819   1.431   3.634 -0.0198 -0.0966 -0.2079
68210SOL    HW211746   5.911   1.548   3.659  0.3526 -0.5084  0.3925
68211SOL     OW11747   5.596   1.460  11.844  0.1504  0.1972 -0.2614
68211SOL    HW111748   5.539   1.521  11.797  0.4653  0.0779 -0.8124
68211SOL    HW211749   5.683   1.500  11.839 -0.1315  1.3326  2.1840
68212SOL     OW11750   1.883   9.265   8.302 -0.3721 -0.4633 -0.4228
68212SOL    HW111751   1.803   9.268   8.249 -1.2409 -0.1898  0.8710
68212SOL    HW211752   1.863   9.202   8.371  0.6393 -0.6005 -0.2485
68213SOL     OW11753   2.427   0.696   2.259  0.3044 -0.0330  0.4995
68213SOL    HW111754   2.498   0.736   2.208 -0.6047  1.0913  0.0684
68213SOL    HW211755   2.397   0.623   2.204  0.0260  0.5228 -0.0960
68214SOL     OW11756   3.834   3.848   4.928  0.1671 -0.4867 -0.3480
68214SOL    HW111757   3.789   3.868   5.010  0.0729  1.3720 -0.8228
68214SOL    HW211758   3.898   3.780   4.952 -0.9761 -1.1680  0.8932
68215SOL     OW11759  10.624  11.601  12.140  0.3901 -0.1081  0.2001
68215SOL    HW111760  10.646  11.678  12.193  1.9806 -0.7743  0.5681
68215SOL    HW211761  10.680  11.609  12.063 -0.2697 -0.3211 -0.3111
68216SOL     OW11762   1.928  12.494   8.178 -0.2198 -0.0459 -0.8015
68216SOL    HW111763   1.854  12.519   8.233 -1.9873  0.5167 -3.2718
68216SOL    HW211764   1.910  12.403   8.153 -0.5158  0.3119 -1.9804
68217SOL     OW11765   8.871   2.267   8.450  0.3170 -0.2225 -0.0601
68217SOL    HW111766   8.918   2.207   8.392  2.2198  0.7113  0.4133
68217SOL    HW211767   8.825   2.209   8.511 -0.6837 -1.1968 -1.6771
68218SOL     OW11768   6.567   8.590   2.951  0.0024 -0.0678  0.3052
68218SOL    HW111769   6.502   8.613   2.885  0.9542 -2.0474 -1.4324
68218SOL    HW211770   6.521   8.531   3.011 -0.7425  1.3851  1.2008
68219SOL     OW11771   9.505   5.646   9.026 -0.3648 -0.5017  0.1758
68219SOL    HW111772   9.423   5.598   9.025  0.4310 -1.9091 -0.1894
68219SOL    HW211773   9.490   5.719   9.086 -2.1752 -0.1627 -0.6314
68220SOL     OW11774  11.665   3.165   4.213 -0.5780  0.2715  0.0797
68220SOL    HW111775  11.654   3.159   4.118  0.8106  1.7090 -0.2247
68220SOL    HW211776  11.591   3.117   4.250 -0.3275 -1.6018 -1.7271
68221SOL     OW11777   8.919   6.668   5.075 -0.0635  0.2747  0.4301
68221SOL    HW111778   8.896   6.584   5.116 -0.8069 -1.8959 -3.8253
68221SOL    HW211779   9.014   6.671   5.077  0.2338 -2.4860 -2.0790
68222SOL     OW11780   0.019   4.628  12.853 -0.2440  0.2006 -0.4556
68222SOL    HW111781   0.071   4.569  12.797  0.0452  0.5687 -0.5782
68222SOL    HW211782   0.052   4.612  12.941 -0.9662 -0.6638 -0.3278
68223SOL     OW11783   9.079   3.330   4.651 -0.3546  0.3162 -0.4046
68223SOL    HW111784   9.115   3.303   4.567  0.0832  0.6768 -0.3351
68223SOL    HW211785   9.132   3.406   4.677 -1.2612  0.9654 -0.3882
68224SOL     OW11786   9.057   9.801   5.823 -0.1416 -0.0420  0.1738
68224SOL    HW111787   9.079   9.888   5.789 -1.3537  0.3931  0.4404
68224SOL    HW211788   9.140   9.753   5.823  0.9036  1.6523  1.5822
68225SOL     OW11789   7.175   6.023  11.314 -0.3089  0.3361 -0.3925
68225SOL    HW111790   7.254   6.025  11.368 -2.3854 -2.5444  3.1922
68225SOL    HW211791   7.193   5.957  11.248  1.0109  1.3469 -1.0916
68226SOL     OW11792   4.631   2.024   3.320  0.5704 -0.6838 -0.3989
68226SOL    HW111793   4.644   2.116   3.302 -1.1749 -0.5939 -1.4756
68226SOL    HW211794   4.605   2.021   3.413 -1.4137  0.1838 -0.8769
68227SOL     OW11795   5.531   0.963   8.968  0.1111  0.4135  0.0461
68227SOL    HW111796   5.576   0.906   8.905  0.2625  2.1148 -1.4560
68227SOL    HW211797   5.599   1.024   8.998 -0.4068  0.8263  0.3970
68228SOL     OW11798  11.377   3.269   9.188  0.0774 -0.1139  0.3476
68228SOL    HW111799  11.463   3.278   9.147 -0.7167  2.2825 -0.9571
68228SOL    HW211800  11.336   3.196   9.143  0.4232  0.4564 -0.9237
68229SOL     OW11801  11.543  11.387  10.569 -0.0890  0.6458  0.4129
68229SOL    HW111802  11.519  11.311  10.516  0.0723  1.5150 -0.9610
68229SOL    HW211803  11.486  11.457  10.537 -2.8811  0.3544  4.0928
68230SOL     OW11804   4.819  12.378  10.746 -0.3644 -0.7137  0.2821
68230SOL    HW111805   4.781  12.307  10.798 -1.2026  0.1215  0.8578
68230SOL    HW211806   4.838  12.447  10.810  2.1604 -1.0759  0.0094
68231SOL     OW11807   6.518   2.822  12.299  0.0383 -0.5512  0.4163
68231SOL    HW111808   6.533   2.838  12.206 -0.3108  1.6177  0.6901
68231SOL    HW211809   6.570   2.889  12.343 -1.3355 -0.3139  1.7219
68232SOL     OW11810  12.839   5.690  10.617  0.2530 -0.1416  0.1112
68232SOL    HW111811  12.915   5.632  10.630  0.8727  0.6761  0.2127
68232SOL    HW211812  12.830   5.695  10.522  1.1298  0.7596  0.0588
68233SOL     OW11813   4.891   4.249  10.258 -0.4597  0.1913  0.3837
68233SOL    HW111814   4.939   4.181  10.306  0.0165 -0.1769 -0.6016
68233SOL    HW211815   4.907   4.329  10.309 -1.8476 -0.5693  2.1274
68234SOL     OW11816  10.582   9.837   3.585 -0.1860 -0.1493 -0.0202
68234SOL    HW111817  10.487   9.849   3.593  0.0081  0.8985  1.0657
68234SOL    HW211818  10.592   9.755   3.537 -1.6516  0.4393 -1.4259
68235SOL     OW11819   4.328   7.526   0.204  0.2166  0.1282  0.0891
68235SOL    HW111820   4.327   7.488   0.292  1.8874  0.8948  0.4739
68235SOL    HW211821   4.403   7.585   0.204  0.7633 -0.4693 -2.1176
68236SOL     OW11822   2.834   7.728   7.220  0.0333  0.5669  0.0450
68236SOL    HW111823   2.909   7.770   7.262  0.8152 -1.3474  0.6777
68236SOL    HW211824   2.873   7.675   7.150 -0.9796  1.3551 -1.1546
68237SOL     OW11825   6.601   6.500  11.971  0.5606 -0.0374 -0.2544
68237SOL    HW111826   6.609   6.439  11.898  0.3567 -0.3289 -0.0302
68237SOL    HW211827   6.620   6.448  12.049  1.9496  0.5262 -0.1753
68238SOL     OW11828   6.814   6.121  10.413 -0.1812  0.6820 -0.7287
68238SOL    HW111829   6.773   6.048  10.367 -0.0236  0.1397 -0.0245
68238SOL    HW211830   6.907   6.111  10.395 -0.0513  0.0952  0.2104
68239SOL     OW11831   8.935   1.275   8.294 -0.6899  0.5228  0.5453
68239SOL    HW111832   8.910   1.182   8.286  1.2026  0.1116 -1.5457
68239SOL    HW211833   8.868   1.321   8.244  0.2819 -0.1495 -1.5004
68240SOL     OW11834   8.010   1.183   6.831  0.0969 -0.0358  0.0356
68240SOL    HW111835   7.947   1.228   6.775  0.3661  0.1501 -0.1199
68240SOL    HW211836   7.980   1.092   6.831  0.3650 -0.1344 -0.8067
68241SOL     OW11837   7.666   9.507   5.502  0.0592  0.0380 -0.5048
68241SOL    HW111838   7.605   9.569   5.460 -0.4163 -1.5071 -2.2460
68241SOL    HW211839   7.685   9.443   5.433  0.1875 -2.0063  1.3388
68242SOL     OW11840   9.868  10.929   8.336 -0.0040  0.1426  0.1738
68242SOL    HW111841   9.821  11.001   8.293  0.3970  0.0426 -0.4495
68242SOL    HW211842   9.858  10.855   8.276  1.4170  0.2679 -0.2633
68243SOL     OW11843   2.956   5.469  12.259 -0.1498  0.0138  0.2711
68243SOL    HW111844   2.967   5.511  12.345 -0.6330  1.1881 -0.2143
68243SOL    HW211845   3.020   5.513  12.203  0.5728 -1.1607  0.1582
68244SOL     OW11846  11.959  11.780  10.961 -0.0529  0.2092  0.1857
68244SOL    HW111847  11.924  11.842  10.897 -1.2441 -0.8650 -0.2437
68244SOL    HW211848  11.984  11.834  11.035  0.7746  1.4140 -0.9319
68245SOL     OW11849   5.831   8.926   1.682 -0.1044 -0.3477 -0.5511
68245SOL    HW111850   5.798   8.852   1.631  1.0104 -0.3694 -1.2705
68245SOL    HW211851   5.896   8.888   1.741 -0.9973 -0.2372  0.5336
68246SOL     OW11852   9.470   8.884  11.546  0.2180 -0.4547 -0.4005
68246SOL    HW111853   9.410   8.882  11.471 -0.1340  3.6399 -0.4520
68246SOL    HW211854   9.414   8.871  11.622 -0.7606  2.4935 -0.5071
68247SOL     OW11855  11.679   5.328  12.164  0.2138 -0.0028 -0.3277
68247SOL    HW111856  11.711   5.350  12.076 -1.1444  3.8014 -0.0513
68247SOL    HW211857  11.758   5.326  12.218  0.8561 -0.2987 -1.2481
68248SOL     OW11858   8.545  11.541  10.194  0.1324  0.5177  0.2095
68248SOL    HW111859   8.578  11.585  10.116  0.6581 -1.0727 -0.5025
68248SOL    HW211860   8.540  11.449  10.170 -0.7582  0.1375  1.7066
68249SOL     OW11861   3.168  11.825   1.406  0.4692 -0.5354  0.1140
68249SOL    HW111862   3.098  11.885   1.379 -0.0962  1.1058  4.4229
68249SOL    HW211863   3.244  11.853   1.355 -0.8792  0.8812 -1.2087
68250SOL     OW11864   8.325   3.738   6.131 -0.3026 -0.0762  0.1239
68250SOL    HW111865   8.305   3.653   6.093  0.2798 -0.5723  0.8906
68250SOL    HW211866   8.301   3.802   6.064 -0.8648 -0.8382 -0.4032
68251SOL     OW11867   4.054   4.800  11.379 -0.4804  0.0527 -0.3211
68251SOL    HW111868   4.141   4.826  11.348  0.5392 -0.6582  1.7546
68251SOL    HW211869   4.034   4.721  11.329  0.3778 -0.1549 -0.3510
68252SOL     OW11870   0.490   0.127   7.839 -0.0186  0.0929 -0.5606
68252SOL    HW111871   0.528   0.196   7.894  0.6582  1.1799 -2.2878
68252SOL    HW211872   0.563   0.068   7.820  0.3881  1.0071 -2.1160
68253SOL     OW11873   8.585  10.305   8.581 -0.1342  0.0678 -0.2608
68253SOL    HW111874   8.638  10.384   8.575 -1.3348  1.0254  1.2332
68253SOL    HW211875   8.647  10.236   8.605  0.9294  0.4930 -1.6290
68254SOL     OW11876   3.488   8.673   0.164  0.0959 -0.1738  0.6319
68254SOL    HW111877   3.487   8.618   0.242  2.0179 -0.2096  0.7020
68254SOL    HW211878   3.409   8.651   0.117 -0.8705 -0.5090  2.3267
68255SOL     OW11879   5.920   5.659  11.570 -0.5142  1.1360  0.5190
68255SOL    HW111880   5.981   5.658  11.643 -1.3804 -1.0498  1.2950
68255SOL    HW211881   5.839   5.621  11.605 -0.4685 -1.5720 -1.8765
68256SOL     OW11882   8.271   3.664   3.799 -0.3720 -0.0202  0.3779
68256SOL    HW111883   8.278   3.760   3.798 -1.7845  0.1139  0.9368
68256SOL    HW211884   8.359   3.634   3.778  0.5408  1.3981  1.8815
68257SOL     OW11885   3.055   4.465   0.401  0.3410 -0.2171 -0.0136
68257SOL    HW111886   3.106   4.494   0.325  0.4370  0.3168  0.2471
68257SOL    HW211887   2.976   4.426   0.363  1.0728 -1.3450 -0.4271
68258SOL     OW11888   9.319   5.146   5.444 -0.3615 -0.3971  0.0079
68258SOL    HW111889   9.326   5.054   5.417 -2.1319  0.1099 -2.4902
68258SOL    HW211890   9.374   5.194   5.382 -0.6560  0.3949  0.3480
68259SOL     OW11891   6.729  11.255   7.768 -0.1306 -0.2409 -0.2740
68259SOL    HW111892   6.810  11.306   7.770 -0.4731  0.2993 -0.1546
68259SOL    HW211893   6.751  11.179   7.714 -0.0748  0.8269 -1.8380
68260SOL     OW11894   3.941   1.378   9.044 -0.4902 -0.3601 -0.0511
68260SOL    HW111895   4.003   1.439   9.004  1.7337 -2.0492  0.6548
68260SOL    HW211896   3.928   1.412   9.132 -1.9543  0.9008 -0.6891
68261SOL     OW11897   4.705   0.821   7.588 -0.4865 -0.4657 -0.5200
68261SOL    HW111898   4.619   0.838   7.548 -0.8453 -0.4779  0.2360
68261SOL    HW211899   4.705   0.727   7.605 -0.1698 -0.5289 -0.8553
68262SOL     OW11900   1.769  10.672  12.823  0.8701  0.7966 -0.4123
68262SOL    HW111901   1.721  10.725  12.886 -0.1390 -0.9359  0.3592
68262SOL    HW211902   1.703  10.647  12.758  0.5536 -1.8468  0.8046
68263SOL     OW11903  12.849   2.543   4.039  0.4192  0.1666  0.0637
68263SOL    HW111904  12.830   2.594   4.118 -0.9788 -1.8507  1.1262
68263SOL    HW211905  12.812   2.595   3.967 -1.4459  0.4713  1.1605
68264SOL     OW11906   1.459   7.597   9.848  0.3867  0.1938 -0.0876
68264SOL    HW111907   1.454   7.514   9.802  0.5239  0.4662 -0.6010
68264SOL    HW211908   1.380   7.645   9.821  0.1368  0.1041  0.4633
68265SOL     OW11909   2.741  10.974   3.079  0.4782 -0.1229  0.1491
68265SOL    HW111910   2.697  10.914   3.140  0.5144 -1.6306 -1.2572
68265SOL    HW211911   2.670  11.019   3.033  0.3388 -2.0344 -1.6110
68266SOL     OW11912   7.148   2.263   4.063 -0.2252  0.2999  0.2441
68266SOL    HW111913   7.146   2.198   3.993 -1.2118  0.5261  0.0487
68266SOL    HW211914   7.148   2.347   4.017 -0.4654  0.4450  0.5083
68267SOL     OW11915   6.846   8.422   1.955  0.7895 -0.3347  0.8825
68267SOL    HW111916   6.795   8.342   1.951 -0.5646  0.5312 -0.3342
68267SOL    HW211917   6.933   8.397   1.924  1.0198 -1.7451  2.5733
68268SOL     OW11918   6.486   8.574   8.734 -0.1362 -0.2342 -0.2813
68268SOL    HW111919   6.508   8.659   8.696  0.1472 -0.5077 -0.7337
68268SOL    HW211920   6.515   8.581   8.825 -0.5152  0.3080 -0.1951
68269SOL     OW11921   9.070   8.866   6.048  0.3899  0.6231  0.6497
68269SOL    HW111922   9.000   8.820   6.093 -0.3687  0.6290 -0.4781
68269SOL    HW211923   9.068   8.955   6.083  1.0328  0.1646  1.9181
68270SOL     OW11924   5.667   2.212   9.468  0.0037  0.3288 -0.5395
68270SOL    HW111925   5.635   2.138   9.416  1.0780  0.7464 -1.8512
68270SOL    HW211926   5.685   2.174   9.554 -2.2347 -0.2854 -0.2693
68271SOL     OW11927   8.245   8.453   0.005  0.3860 -0.3567 -0.5491
68271SOL    HW111928   8.268   8.375   0.056 -0.2782 -1.1053 -1.3657
68271SOL    HW211929   8.164   8.485   0.045 -0.7389 -1.5744 -1.7534
68272SOL     OW11930   4.189   3.918  12.300 -0.2535 -0.1431  0.6129
68272SOL    HW111931   4.275   3.951  12.328 -0.1763  0.4516 -0.2886
68272SOL    HW211932   4.132   3.937  12.374 -0.1918  2.0206  0.1892
68273SOL     OW11933  11.711   0.204   2.738 -0.2402 -0.0608 -1.1003
68273SOL    HW111934  11.651   0.151   2.686 -2.3898  0.2798  0.8704
68273SOL    HW211935  11.670   0.290   2.742  0.1467  0.0883  0.5992
68274SOL     OW11936   5.499  11.049   8.440 -0.7385 -0.1967 -0.4659
68274SOL    HW111937   5.576  11.104   8.452  0.1675 -1.1976 -1.4289
68274SOL    HW211938   5.491  11.000   8.522  1.3758 -2.1156 -1.2873
68275SOL     OW11939   2.548   8.929   2.458 -0.2874  0.1262 -0.1924
68275SOL    HW111940   2.525   8.855   2.515 -0.7402  0.3678 -0.0556
68275SOL    HW211941   2.630   8.903   2.417  0.7439  0.4767  1.5254
68276SOL     OW11942   8.717  10.478  11.410 -0.2964  0.3102 -0.0785
68276SOL    HW111943   8.685  10.513  11.327  0.3496  0.2284 -0.3668
68276SOL    HW211944   8.755  10.553  11.455  2.3920 -0.1728 -1.3054
68277SOL     OW11945   8.009   7.998   2.640 -0.4281  0.5318 -0.1431
68277SOL    HW111946   8.057   8.041   2.569  1.0527 -2.5644 -1.1708
68277SOL    HW211947   7.924   7.978   2.603 -0.0458 -0.0916 -0.7070
68278SOL     OW11948   6.721   1.854   1.667  0.4946  0.4377 -0.2774
68278SOL    HW111949   6.743   1.934   1.715  0.7335 -0.7530  1.7082
68278SOL    HW211950   6.628   1.839   1.687  0.0772  0.9223 -1.7539
68279SOL     OW11951   1.688   4.053   9.837  0.3136  1.0480 -1.0184
68279SOL    HW111952   1.620   4.069   9.771 -2.2348 -2.5819  0.4209
68279SOL    HW211953   1.658   4.100   9.914 -0.2094  0.0644 -0.6069
68280SOL     OW11954   6.657   0.404  10.042  0.0521 -0.1030  0.4778
68280SOL    HW111955   6.630   0.409  10.134 -0.0079 -0.8942  0.5088
68280SOL    HW211956   6.736   0.457  10.037 -0.3037  0.4805  0.8404
68281SOL     OW11957   3.577   1.471   2.168  0.7314  0.0661 -0.1712
68281SOL    HW111958   3.553   1.560   2.143  0.0146 -0.1819 -0.3874
68281SOL    HW211959   3.564   1.467   2.262  2.1935  0.6181  0.0881
68282SOL     OW11960   2.896  12.651   9.093  0.0128 -0.0013  0.1226
68282SOL    HW111961   2.854  12.652   9.180 -0.5571 -0.5324 -0.1338
68282SOL    HW211962   2.890  12.560   9.066 -1.9903  0.5427 -1.5007
68283SOL     OW11963   1.607  12.909   5.709 -0.3133  0.3131  0.1074
68283SOL    HW111964   1.689  12.954   5.731 -0.5385  0.2487  1.1395
68283SOL    HW211965   1.632  12.817   5.700 -0.3270  0.2391  0.7816
68284SOL     OW11966   6.367   3.308   8.876  0.0283  0.1818  0.2364
68284SOL    HW111967   6.397   3.327   8.965 -0.5787 -1.6663  0.8809
68284SOL    HW211968   6.272   3.315   8.880 -0.0130 -0.0774 -0.2119
68285SOL     OW11969   1.820   2.485   4.812 -0.0178 -0.0667 -0.2463
68285SOL    HW111970   1.801   2.408   4.758 -0.4097  1.0061 -1.7206
68285SOL    HW211971   1.915   2.484   4.823  0.1186 -0.1012 -1.3252
68286SOL     OW11972   4.311  12.198  12.676 -0.0788 -0.1227 -0.2590
68286SOL    HW111973   4.252  12.268  12.705  0.5171  0.1029  0.4253
68286SOL    HW211974   4.357  12.172  12.755 -0.1655 -1.1773 -0.5444
68287SOL     OW11975   7.133  11.383   2.789 -0.3062 -0.1935  0.0979
68287SOL    HW111976   7.083  11.427   2.721 -0.4049  0.3108  0.4889
68287SOL    HW211977   7.201  11.446   2.814  0.1320 -0.6248  0.0160
68288SOL     OW11978   1.381   0.839   5.688 -0.2003 -0.1602 -0.3356
68288SOL    HW111979   1.464   0.795   5.706 -0.1078 -0.7930 -2.1486
68288SOL    HW211980   1.327   0.820   5.765  0.7903 -1.0494  0.1737
68289SOL     OW11981   3.608   4.137   4.434  0.1186  0.2319  0.5257
68289SOL    HW111982   3.659   4.061   4.407  0.9873  0.5845  1.0879
68289SOL    HW211983   3.531   4.101   4.477 -0.3157 -0.3203 -0.6838
68290SOL     OW11984   9.748  12.699   9.047 -0.7274 -0.4983  0.2503
68290SOL    HW111985   9.794  12.760   9.105  0.9088 -0.5334 -0.9272
68290SOL    HW211986   9.655  12.719   9.059 -0.2913  4.0421 -1.9216
68291SOL     OW11987   3.446   5.932  10.647 -0.0834 -0.0544 -0.4629
68291SOL    HW111988   3.507   5.992  10.604 -1.9561  0.9321 -1.9327
68291SOL    HW211989   3.444   5.855  10.590  0.7215 -0.6356  0.2759
68292SOL     OW11990   8.977   2.612  12.427 -0.2163  0.0072  0.8784
68292SOL    HW111991   8.940   2.574  12.507 -2.3821 -1.1860 -0.5845
68292SOL    HW211992   8.902   2.648  12.380  1.0186  0.8573 -0.5669
68293SOL     OW11993  11.667   5.816   0.307  0.1398  0.0468  0.0815
68293SOL    HW111994  11.758   5.843   0.293 -0.0136  0.2909 -0.4839
68293SOL    HW211995  11.636   5.872   0.378  0.5932 -0.4219  0.6606
68294SOL     OW11996   4.379   2.579   6.189 -0.3021  0.0645  0.1925
68294SOL    HW111997   4.428   2.546   6.114  0.0898  0.6245  0.1996
68294SOL    HW211998   4.446   2.600   6.254 -0.7103 -2.9963  1.8091
68295SOL     OW11999  11.155   9.178   7.510  0.0978 -0.3480  0.1875
68295SOL    HW112000  11.140   9.239   7.438  1.2805 -1.1325 -0.7760
68295SOL    HW212001  11.236   9.132   7.485  0.7205 -0.4152  2.1794
68296SOL     OW12002   1.263   1.127   5.003 -0.2467  0.1070  0.2760
68296SOL    HW112003   1.252   1.080   5.086 -0.8363  1.2340  0.8644
68296SOL    HW212004   1.212   1.078   4.940  0.1178 -0.7058  0.5957
68297SOL     OW12005  10.191   0.141   3.741  0.0279 -0.9116 -0.2471
68297SOL    HW112006  10.189   0.076   3.811 -1.2247  0.0649  0.6653
68297SOL    HW212007  10.257   0.108   3.680  1.5037 -1.5483  1.5886
68298SOL     OW12008   4.351  10.793   1.618 -0.1312 -0.3644  0.2751
68298SOL    HW112009   4.350  10.742   1.537  0.4415 -0.5893  0.4022
68298SOL    HW212010   4.297  10.869   1.599  2.7575  1.4264 -1.5105
68299SOL     OW12011   3.572  11.907   3.144 -0.5261  0.7057 -0.2871
68299SOL    HW112012   3.485  11.924   3.108 -0.4001  0.6453 -0.6175
68299SOL    HW212013   3.619  11.863   3.074 -0.6326 -0.4291  0.3227
68300SOL     OW12014  10.598  12.080   3.817  0.1989  0.6542 -0.4960
68300SOL    HW112015  10.526  12.138   3.792 -0.8981 -0.5643 -0.2583
68300SOL    HW212016  10.631  12.046   3.734 -1.2023 -0.7517 -0.5131
68301SOL     OW12017   9.890   1.509   4.532  0.0120 -0.0528 -0.3241
68301SOL    HW112018   9.905   1.422   4.570  1.4090  0.5486  0.5639
68301SOL    HW212019   9.872   1.492   4.439  0.9673 -1.2496 -0.3088
68302SOL     OW12020   5.779   5.467   3.975  0.1837  0.0686 -0.2928
68302SOL    HW112021   5.823   5.422   4.048  0.8603 -0.8564 -1.2363
68302SOL    HW212022   5.772   5.400   3.907 -2.1667  0.3676 -0.4060
68303SOL     OW12023  11.142   2.152   8.323  0.2542 -0.3014  0.3149
68303SOL    HW112024  11.061   2.114   8.290  0.3057  0.5365 -0.8028
68303SOL    HW212025  11.211   2.094   8.289  0.3084  0.5622 -1.1097
68304SOL     OW12026   1.480   4.381   6.492  0.1354 -0.3065 -0.0650
68304SOL    HW112027   1.426   4.390   6.413 -0.2196 -0.3373  0.1747
68304SOL    HW212028   1.417   4.375   6.564  0.3935 -2.5010  0.0362
68305SOL     OW12029   1.672  10.721   3.186 -0.2088 -0.6975  0.0382
68305SOL    HW112030   1.687  10.814   3.200  0.0221 -0.8432  0.7722
68305SOL    HW212031   1.723  10.700   3.107  0.3558 -0.3665  0.3096
68306SOL     OW12032   8.473   6.195   9.443  0.2084  0.1214  0.2923
68306SOL    HW112033   8.471   6.101   9.457 -1.7024  0.0223 -0.2741
68306SOL    HW212034   8.415   6.231   9.510  0.7706  0.8875  0.3853
68307SOL     OW12035   2.649   9.516  10.535 -0.3807  0.0442 -0.1625
68307SOL    HW112036   2.628   9.600  10.495 -1.3383 -0.7163 -1.3085
68307SOL    HW212037   2.710   9.473  10.474  0.4745  0.0736  0.6369
68308SOL     OW12038   3.088   6.989   9.626 -0.1358 -0.3541  0.4014
68308SOL    HW112039   3.158   6.926   9.644  2.2194  1.6301 -1.2368
68308SOL    HW212040   3.082   6.991   9.530  0.2806  2.2237  0.3518
68309SOL     OW12041   9.753   7.740   2.494  0.0813 -0.0009  0.0282
68309SOL    HW112042   9.733   7.696   2.577 -1.0756  0.6567  0.1219
68309SOL    HW212043   9.755   7.833   2.517 -0.0417  0.1692 -0.6463
68310SOL     OW12044   9.234   2.524   7.338 -0.7094  0.2392 -0.1946
68310SOL    HW112045   9.209   2.478   7.419  0.0351 -1.1089 -0.7022
68310SOL    HW212046   9.215   2.461   7.268  2.7769 -0.4068 -0.7236
68311SOL     OW12047   3.151   6.073   8.630  0.1285  0.5436  0.1003
68311SOL    HW112048   3.114   6.148   8.584  1.1462  1.9054  1.4457
68311SOL    HW212049   3.219   6.040   8.571 -0.6354  0.3436 -0.7030
68312SOL     OW12050   1.356   2.441   4.232 -0.0623  0.0048  0.3375
68312SOL    HW112051   1.363   2.392   4.150 -0.5703 -0.4661  0.5744
68312SOL    HW212052   1.428   2.409   4.285  0.5243  0.6098 -0.0732
68313SOL     OW12053   3.088   9.995   4.173 -0.6130 -0.0974 -0.1438
68313SOL    HW112054   3.060   9.983   4.264 -0.5374  1.1013  0.0470
68313SOL    HW212055   3.169  10.045   4.179 -0.3955 -0.3535 -0.8625
68314SOL     OW12056   1.690   2.435   7.077  0.7016 -0.1548  0.5458
68314SOL    HW112057   1.734   2.517   7.101  0.9863  0.0181 -0.5086
68314SOL    HW212058   1.762   2.373   7.062  0.4810 -1.0232  2.6114
68315SOL     OW12059   5.225   2.044  11.839  1.0985 -0.5757 -0.2548
68315SOL    HW112060   5.213   1.949  11.833  0.5076 -0.4294 -2.2200
68315SOL    HW212061   5.138   2.080  11.824  1.1879  0.2957  1.1572
68316SOL     OW12062   3.262   0.969  12.528  0.1036  0.4824  0.0886
68316SOL    HW112063   3.224   0.961  12.615 -1.9375 -0.3294 -0.8062
68316SOL    HW212064   3.269   1.064  12.514  1.3669  0.6240  1.4640
68317SOL     OW12065  12.525   1.340   0.016  0.5067  0.3815 -0.6929
68317SOL    HW112066  12.432   1.320   0.025  0.6350  0.7623  2.6571
68317SOL    HW212067  12.562   1.265  -0.030 -1.0988 -0.8289 -0.0841
68318SOL     OW12068   1.249  11.503   0.458 -0.0801  0.0694 -0.0604
68318SOL    HW112069   1.282  11.456   0.381  0.3017  0.7223 -0.3051
68318SOL    HW212070   1.306  11.580   0.465 -2.5039  2.1810 -1.5150
68319SOL     OW12071   2.464   3.153  11.521  0.3077 -0.6438 -0.0972
68319SOL    HW112072   2.454   3.119  11.610 -0.1080  2.7292  1.3134
68319SOL    HW212073   2.375   3.167  11.491  0.4409  0.2524 -0.1165
68320SOL     OW12074  12.700  11.863   7.792 -0.0576  0.2746 -0.2359
68320SOL    HW112075  12.731  11.778   7.823 -0.7944 -0.1164 -0.5376
68320SOL    HW212076  12.706  11.857   7.696  2.1941  1.4681 -0.2281
68321SOL     OW12077   1.223  10.467   3.250 -0.2410  0.2230 -0.0132
68321SOL    HW112078   1.307  10.502   3.220 -0.2434  1.3150  1.1408
68321SOL    HW212079   1.160  10.495   3.184  0.1547  0.2228 -0.3928
68322SOL     OW12080   4.420  12.670   7.213 -0.0329  0.4197  0.2364
68322SOL    HW112081   4.470  12.589   7.200 -1.9998 -1.0826  1.4839
68322SOL    HW212082   4.434  12.720   7.132  1.5473 -0.9792 -0.4055
68323SOL     OW12083   0.937   2.694   9.948  0.1887 -0.2037  0.4796
68323SOL    HW112084   1.007   2.655   9.896 -1.3958 -0.1283 -1.8429
68323SOL    HW212085   0.908   2.624  10.006  1.1597 -0.6728  0.4167
68324SOL     OW12086  10.214   9.540   4.506  0.9686 -0.2732  0.0371
68324SOL    HW112087  10.261   9.467   4.464  3.3202  0.1744  1.7078
68324SOL    HW212088  10.262   9.556   4.587 -1.9688  0.4635  1.7821
68325SOL     OW12089   1.701   0.648   5.301 -0.3003  0.2285  0.0387
68325SOL    HW112090   1.620   0.644   5.250 -1.5746 -0.3045  1.9888
68325SOL    HW212091   1.685   0.589   5.375  1.8215  0.2502  0.5663
68326SOL     OW12092   7.049  11.334   5.402  0.0879  0.6663 -0.5595
68326SOL    HW112093   7.032  11.333   5.308 -0.8320  3.8323 -0.5353
68326SOL    HW212094   6.980  11.389   5.439  1.1221  0.5096  1.8241
68327SOL     OW12095   1.598   0.791   9.574 -0.5139  0.0022 -0.2731
68327SOL    HW112096   1.592   0.696   9.580 -0.0063 -0.0935 -1.1116
68327SOL    HW212097   1.509   0.819   9.553 -0.4035 -0.4224 -1.4187
68328SOL     OW12098   8.676   7.950   7.623 -0.0282  0.0871 -0.2531
68328SOL    HW112099   8.721   7.905   7.552  0.5009 -2.6003  1.6187
68328SOL    HW212100   8.592   7.904   7.631 -0.1641  0.4598  0.6875
68329SOL     OW12101   5.347   0.080  11.003 -0.1494 -0.2847 -0.3370
68329SOL    HW112102   5.348  -0.015  11.005 -2.6015 -0.3749  0.4388
68329SOL    HW212103   5.370   0.106  11.092  0.7636 -0.1297 -0.6119
68330SOL     OW12104   9.217   2.249  12.665 -0.0131  0.2362  0.1392
68330SOL    HW112105   9.206   2.336  12.628 -0.5568  0.5677  1.0457
68330SOL    HW212106   9.181   2.189  12.599 -1.6956  0.8674  0.4666
68331SOL     OW12107  11.894   0.666   1.335 -0.3630 -0.1390 -0.4033
68331SOL    HW112108  11.880   0.610   1.411  0.7965 -0.3113 -0.3074
68331SOL    HW212109  11.973   0.715   1.355 -1.5473  1.8538 -0.3136
68332SOL     OW12110   8.811   5.578   6.587 -0.2284 -0.1386 -0.0924
68332SOL    HW112111   8.849   5.491   6.600 -2.2465 -0.9161  1.0639
68332SOL    HW212112   8.724   5.561   6.551 -1.4169  1.2622  1.9295
68333SOL     OW12113   1.827   2.168   8.133  0.2631 -0.3693  0.2557
68333SOL    HW112114   1.922   2.174   8.136  0.3191 -0.8678 -0.4219
68333SOL    HW212115   1.807   2.142   8.043 -0.5008 -0.4350  0.4379
68334SOL     OW12116   3.149   0.453   2.882 -0.3043  0.4832 -0.2480
68334SOL    HW112117   3.076   0.482   2.828 -0.2705  1.5655  0.2608
68334SOL    HW212118   3.134   0.360   2.895 -3.2486  1.1457  2.2866
68335SOL     OW12119   4.892   3.342   7.837  0.7053 -0.4182 -0.0966
68335SOL    HW112120   4.957   3.405   7.867 -0.1784  1.5193 -1.9653
68335SOL    HW212121   4.933   3.299   7.762 -0.0506  0.7304 -1.2125
68336SOL     OW12122   0.997   5.002  12.669 -0.0017 -0.1702 -0.3188
68336SOL    HW112123   1.079   5.021  12.625 -0.5123  0.0829 -1.1924
68336SOL    HW212124   0.973   4.915  12.637  1.1128 -1.3253  1.7965
68337SOL     OW12125   2.944   6.284   5.846 -0.6531 -0.0641 -0.1751
68337SOL    HW112126   3.034   6.296   5.817 -0.8089  0.4892 -0.4326
68337SOL    HW212127   2.915   6.204   5.802 -0.5522  0.2002 -0.7269
68338SOL     OW12128   2.956   0.725   4.143 -0.3672 -0.1295 -0.3412
68338SOL    HW112129   2.910   0.773   4.073  0.3550 -0.4033 -1.0265
68338SOL    HW212130   2.990   0.794   4.200 -2.1078  0.0610  0.5149
68339SOL     OW12131   9.707   4.793   2.679 -0.9201 -0.6360 -0.3988
68339SOL    HW112132   9.682   4.872   2.632 -1.9214 -0.8353 -0.2141
68339SOL    HW212133   9.674   4.806   2.768  0.3757 -0.5460  0.0924
68340SOL     OW12134   5.294   4.671   6.297 -0.0506 -0.1954 -0.3360
68340SOL    HW112135   5.337   4.670   6.382 -2.3112 -0.3961  0.8906
68340SOL    HW212136   5.311   4.758   6.262 -0.8725  0.6859  1.3516
68341SOL     OW12137   6.763   9.407  12.134 -0.5944  0.2103 -0.3165
68341SOL    HW112138   6.669   9.423  12.147 -0.3378  1.0277  0.6292
68341SOL    HW212139   6.804   9.435  12.216  0.3768 -1.1763 -0.2938
68342SOL     OW12140   1.306   2.987   5.054 -0.4113  0.0709 -0.0922
68342SOL    HW112141   1.288   2.944   4.971 -1.9066 -1.9401  1.1644
68342SOL    HW212142   1.400   3.003   5.053 -0.3309 -0.3021 -1.9735
68343SOL     OW12143   5.150   6.359   0.899 -0.1550 -0.5725  0.0588
68343SOL    HW112144   5.104   6.415   0.836 -0.7980 -0.7443  0.3692
68343SOL    HW212145   5.243   6.376   0.883 -0.2912  2.3452  1.6657
68344SOL     OW12146   6.823   3.782   4.045 -0.0436  0.0431 -0.6298
68344SOL    HW112147   6.848   3.756   4.133  0.8229 -0.9114 -1.1460
68344SOL    HW212148   6.761   3.715   4.017 -0.9913  0.8170 -0.4429
68345SOL     OW12149  12.275   7.853   2.207 -0.7137 -0.5173  0.5672
68345SOL    HW112150  12.221   7.825   2.280 -2.9249  0.4735 -0.5756
68345SOL    HW212151  12.220   7.840   2.129  1.5575 -1.6159 -0.9721
68346SOL     OW12152   8.792   4.954   0.763  0.2711 -0.0098 -0.2495
68346SOL    HW112153   8.855   4.997   0.705  2.6967 -1.2396  1.3065
68346SOL    HW212154   8.737   4.903   0.705  1.6352 -0.0097 -1.6103
68347SOL     OW12155   9.694  12.146  10.049 -0.0891  0.4517  0.2405
68347SOL    HW112156   9.687  12.191  10.133  1.0016 -0.3036  0.7626
68347SOL    HW212157   9.697  12.053  10.072 -1.2519  0.1441 -0.7463
68348SOL     OW12158   3.797   4.795   3.081 -0.2141  0.1429 -0.1896
68348SOL    HW112159   3.856   4.854   3.128 -0.4974 -0.4120  0.9021
68348SOL    HW212160   3.710   4.818   3.112 -0.2954 -1.1352  0.6293
68349SOL     OW12161   5.885   3.699  12.414  0.3172  0.4713  0.0179
68349SOL    HW112162   5.946   3.773  12.418  0.6971  0.1183  2.5796
68349SOL    HW212163   5.892   3.658  12.500 -2.4274 -0.5100 -0.1221
68350SOL     OW12164   9.286   6.276   7.616 -0.3711  0.1637  0.0755
68350SOL    HW112165   9.303   6.224   7.694  1.9392  0.8915  0.1142
68350SOL    HW212166   9.351   6.247   7.552  1.0874  2.9357  0.1212
68351SOL     OW12167   1.664   9.202   0.532  0.2589 -0.4190 -0.3070
68351SOL    HW112168   1.751   9.236   0.553  0.1536  2.3861 -3.6188
68351SOL    HW212169   1.607   9.239   0.600  1.1606  0.4943 -0.0244
68352SOL     OW12170   3.502   7.205  11.094 -0.4742 -0.3702  0.2022
68352SOL    HW112171   3.497   7.300  11.085 -1.1762 -0.4712 -0.6570
68352SOL    HW212172   3.555   7.177  11.019  0.2358 -0.6139  0.7870
68353SOL     OW12173  11.494   3.100   8.268  0.3227  0.9300  0.1022
68353SOL    HW112174  11.501   3.006   8.284 -0.8659  0.7529 -0.3858
68353SOL    HW212175  11.557   3.139   8.330  0.6157 -0.1531  0.5067
68354SOL     OW12176   3.614   9.648   4.465  0.0266  0.1727 -0.1088
68354SOL    HW112177   3.644   9.599   4.542  0.9539  1.5535  0.4467
68354SOL    HW212178   3.544   9.705   4.498  0.3362  0.6725 -0.2992
68355SOL     OW12179  10.993   2.760  11.027 -0.2487  0.1421  0.0880
68355SOL    HW112180  10.996   2.840  10.974 -2.4807 -1.1704 -2.2545
68355SOL    HW212181  11.078   2.718  11.009  0.2470  1.1441 -0.0187
68356SOL     OW12182   0.328   1.388   7.584  0.4988  0.0640 -0.2373
68356SOL    HW112183   0.324   1.292   7.591  0.3440  0.1799  2.6694
68356SOL    HW212184   0.236   1.416   7.590  0.4419  0.4135 -2.1265
68357SOL     OW12185  11.567   2.876   1.451  0.1759 -0.1997  0.8316
68357SOL    HW112186  11.650   2.923   1.450 -0.0878  0.2751  1.0594
68357SOL    HW212187  11.543   2.871   1.544 -0.3148  0.1384  0.7280
68358SOL     OW12188   7.542   5.417   9.730  0.4732  0.3668 -0.2934
68358SOL    HW112189   7.519   5.491   9.674  1.2291 -0.5965 -1.9546
68358SOL    HW212190   7.517   5.445   9.818 -0.7885  1.9288 -1.0967
68359SOL     OW12191   3.870   1.236   6.004 -0.0597  1.0927 -0.2468
68359SOL    HW112192   3.832   1.286   5.932  0.8789  1.8904 -0.1947
68359SOL    HW212193   3.923   1.169   5.961  1.3019  2.1855 -0.3185
68360SOL     OW12194   5.955   0.113   3.732 -0.2472 -0.3812 -0.3130
68360SOL    HW112195   6.004   0.034   3.756  0.6923  0.0117 -0.8597
68360SOL    HW212196   6.019   0.184   3.741 -1.9001  0.8780  3.4252
68361SOL     OW12197   3.188   7.347   0.188  0.1657  0.1861 -0.0843
68361SOL    HW112198   3.215   7.383   0.103 -0.5152 -0.2198 -0.4853
68361SOL    HW212199   3.176   7.253   0.171  1.5292 -0.1878  0.8441
68362SOL     OW12200   4.319   7.083   1.989  0.2130 -0.7074  0.8053
68362SOL    HW112201   4.387   7.139   2.025  0.1024 -1.2850  1.9580
68362SOL    HW212202   4.239   7.110   2.034 -0.2944 -0.1915 -0.3717
68363SOL     OW12203   3.148   4.521   1.965 -0.3402  0.0983 -0.5147
68363SOL    HW112204   3.190   4.571   2.034  1.1610  1.5394 -2.3513
68363SOL    HW212205   3.072   4.573   1.939  1.3596  1.7624 -2.5963
68364SOL     OW12206  10.742   2.097   2.937 -0.5403 -0.0051  0.3347
68364SOL    HW112207  10.736   2.001   2.933  0.0659 -0.0430  0.2073
68364SOL    HW212208  10.830   2.116   2.906 -1.5736  0.7638 -2.4258
68365SOL     OW12209  11.704  11.177   2.182  0.4121  0.3577 -0.0238
68365SOL    HW112210  11.714  11.271   2.171  0.7282  0.4587  0.9905
68365SOL    HW212211  11.614  11.164   2.211  0.3644  0.3483 -0.1766
68366SOL     OW12212   2.266   1.490   9.710 -0.7254  0.1880 -0.5859
68366SOL    HW112213   2.187   1.466   9.663 -0.4362 -0.5733 -0.6976
68366SOL    HW212214   2.248   1.469   9.802 -0.3762 -0.7321 -0.7207
68367SOL     OW12215  10.746  11.045   3.834 -0.0085 -0.2405  0.4341
68367SOL    HW112216  10.840  11.061   3.834 -0.3011  1.9364 -1.3713
68367SOL    HW212217  10.728  11.007   3.749 -0.7656 -0.8400  0.8481
68368SOL     OW12218   5.514   1.785   7.581 -0.3129  0.3319  0.3139
68368SOL    HW112219   5.463   1.792   7.501 -0.0350  0.3372  0.1353
68368SOL    HW212220   5.455   1.744   7.644 -0.3278 -0.2651 -0.0835
68369SOL     OW12221  11.505  11.023  10.710 -0.0837 -0.3298  0.6955
68369SOL    HW112222  11.523  10.931  10.727  0.8512 -0.5854 -1.3392
68369SOL    HW212223  11.592  11.065  10.709 -0.2188  0.0054 -1.0921
68370SOL     OW12224   4.786   9.664  12.902  0.8372  0.2397 -0.0862
68370SOL    HW112225   4.819   9.710  12.979  0.8194  0.3900 -0.1669
68370SOL    HW212226   4.718   9.722  12.867  0.0084 -0.3825  0.4610
68371SOL     OW12227   2.460   2.848  10.132  0.0496 -0.2481 -0.1657
68371SOL    HW112228   2.503   2.896  10.203  1.5608 -0.8787 -0.6087
68371SOL    HW212229   2.383   2.808  10.174  2.1093 -2.4880  1.7897
68372SOL     OW12230  11.135   0.380  10.821  0.4091  0.2732  0.4161
68372SOL    HW112231  11.132   0.442  10.748  0.1620  1.2368  1.2247
68372SOL    HW212232  11.107   0.431  10.897  0.4470 -0.7715  1.1493
68373SOL     OW12233  11.365   4.033  12.125  0.4185 -0.3338 -0.1339
68373SOL    HW112234  11.274   4.005  12.133  0.5169 -1.4687 -2.1318
68373SOL    HW212235  11.408   3.962  12.077  1.9772  0.8770 -0.6424
68374SOL     OW12236  11.116   0.547   3.634 -0.5226  0.0514  0.0644
68374SOL    HW112237  11.194   0.528   3.687 -0.5387  0.7651  0.3512
68374SOL    HW212238  11.069   0.463   3.631  0.1410 -0.3304  0.0752
68375SOL     OW12239   8.865   6.873   1.884  0.5200  0.2987 -0.7195
68375SOL    HW112240   8.837   6.781   1.882  1.7313 -0.0922 -0.6347
68375SOL    HW212241   8.834   6.905   1.969 -0.5718  0.1926 -1.0715
68376SOL     OW12242   8.627  10.913   3.026 -0.0866 -0.2617 -0.3530
68376SOL    HW112243   8.607  11.003   3.054  1.1562 -0.7111  2.3432
68376SOL    HW212244   8.656  10.870   3.106  2.6437 -2.1350 -2.1964
68377SOL     OW12245   0.708   6.306  11.783  0.0108 -0.6543 -0.5360
68377SOL    HW112246   0.758   6.230  11.813  1.4782 -0.2283 -1.7713
68377SOL    HW212247   0.703   6.363  11.859  0.8333 -1.0119 -0.2015
68378SOL     OW12248   8.740   6.742  11.526 -0.0041  0.0784  0.0137
68378SOL    HW112249   8.789   6.775  11.451  0.8107  2.8023  1.5979
68378SOL    HW212250   8.715   6.653  11.501  1.4626  0.3484 -2.8560
68379SOL     OW12251   5.824   3.234   0.044 -0.0806 -0.1778 -0.1083
68379SOL    HW112252   5.801   3.296   0.114  1.2050  0.2080  0.0118
68379SOL    HW212253   5.790   3.150   0.074  1.0016 -0.1579  1.3459
68380SOL     OW12254  12.359  12.398   1.678 -1.0276 -0.0866 -0.1796
68380SOL    HW112255  12.396  12.370   1.761 -2.3830 -1.0524  0.1218
68380SOL    HW212256  12.265  12.394   1.690 -1.3243  3.1138 -0.6688
68381SOL     OW12257   7.104  12.896   7.525  0.3537 -0.1961 -0.0738
68381SOL    HW112258   7.083  12.947   7.603 -0.4467 -1.4298  0.5531
68381SOL    HW212259   7.083  12.954   7.452 -0.8025  0.3017  0.6153
68382SOL     OW12260   1.169  11.545   5.095  0.2369  0.2970 -0.1274
68382SOL    HW112261   1.140  11.490   5.023 -1.4063 -0.1715  0.8605
68382SOL    HW212262   1.247  11.501   5.129 -1.2542 -1.7276  0.8921
68383SOL     OW12263   0.007   2.716   3.677  0.4241 -0.3476 -0.5103
68383SOL    HW112264   0.037   2.739   3.765 -0.6954 -1.7240  0.2732
68383SOL    HW212265  -0.037   2.795   3.645  0.8625  0.1729  0.1530
68384SOL     OW12266   3.485   4.988   5.252 -0.1528 -0.2886  0.0617
68384SOL    HW112267   3.534   5.068   5.273 -0.8824  0.2652 -0.3094
68384SOL    HW212268   3.530   4.952   5.175  0.0179 -0.0987  0.0697
68385SOL     OW12269  10.918   3.308   9.348  0.2078  0.5292 -0.7927
68385SOL    HW112270  10.863   3.316   9.426  0.4796 -2.4158 -0.1784
68385SOL    HW212271  10.988   3.373   9.361 -0.1493  0.5879  1.0660
68386SOL     OW12272   7.597   6.503   7.586 -0.3538  0.4364 -0.1034
68386SOL    HW112273   7.666   6.549   7.633 -1.2556  1.2944  0.4357
68386SOL    HW212274   7.643   6.449   7.521  0.8487  0.1645  0.9453
68387SOL     OW12275   0.916   1.169   7.440 -0.1426  0.6270  0.2972
68387SOL    HW112276   0.825   1.142   7.449 -0.2272  1.2318  1.4660
68387SOL    HW212277   0.921   1.253   7.485  0.4259  1.9146 -2.0414
68388SOL     OW12278   5.006  10.621  12.240 -0.0015  0.0942 -0.0308
68388SOL    HW112279   4.988  10.596  12.330  0.0606  0.9543  0.2259
68388SOL    HW212280   4.942  10.572  12.188 -1.6150  1.3844  0.6817
68389SOL     OW12281   8.739   7.189   8.244 -0.2015  0.5635  0.1558
68389SOL    HW112282   8.820   7.164   8.200 -2.0700 -1.6048 -2.4311
68389SOL    HW212283   8.759   7.183   8.337  2.0568 -2.1237 -0.3553
68390SOL     OW12284   6.554   0.992   4.123 -0.6823 -0.0396  0.0327
68390SOL    HW112285   6.628   0.934   4.140 -1.2656 -1.2105 -1.2901
68390SOL    HW212286   6.595   1.076   4.100  0.2241 -0.5360 -0.2187
68391SOL     OW12287   0.923   7.639  10.200 -0.6065 -0.0278  0.1371
68391SOL    HW112288   1.017   7.633  10.212 -0.3515  1.9932 -0.4545
68391SOL    HW212289   0.891   7.550  10.216  1.4941 -1.0043 -0.6622
68392SOL     OW12290   3.589  11.102   3.377  0.3417  0.5748 -0.6802
68392SOL    HW112291   3.611  11.190   3.347 -1.3955  0.7856 -1.4468
68392SOL    HW212292   3.520  11.115   3.442  2.8566  0.0116  2.3750
68393SOL     OW12293   0.700   7.548   8.618 -0.1903  0.5832  0.1668
68393SOL    HW112294   0.655   7.522   8.537  1.7755 -0.4631 -0.6577
68393SOL    HW212295   0.750   7.470   8.643  0.6116  1.4715  1.4165
68394SOL     OW12296  10.668   0.636   1.144 -0.4011  0.0960 -0.1290
68394SOL    HW112297  10.678   0.623   1.050 -1.4029 -1.5651 -0.0480
68394SOL    HW212298  10.629   0.554   1.176  3.8021 -1.2525  2.4185
68395SOL     OW12299  12.401  11.593   5.106  0.0264  1.1479 -0.1977
68395SOL    HW112300  12.325  11.549   5.068 -1.3305  1.9641  1.4210
68395SOL    HW212301  12.457  11.614   5.032 -0.2938 -1.3552 -1.2362
68396SOL     OW12302   9.811   9.980   6.347 -0.1779 -0.1694  0.3792
68396SOL    HW112303   9.785   9.948   6.261  1.3098 -1.2877  0.3106
68396SOL    HW212304   9.829  10.073   6.333  1.8038 -0.6943 -0.9872
68397SOL     OW12305   8.278   5.893  11.994  0.3509 -0.0758  0.2625
68397SOL    HW112306   8.355   5.948  11.980 -1.1099  1.9722 -0.2064
68397SOL    HW212307   8.294   5.851  12.079  1.6070  0.9790  0.5849
68398SOL     OW12308  11.250   1.312  10.848 -0.0424 -0.3780 -0.0970
68398SOL    HW112309  11.269   1.386  10.905 -1.7043 -1.3453  1.8351
68398SOL    HW212310  11.155   1.316  10.835  0.0757 -1.2166 -1.3568
68399SOL     OW12311   3.805  12.401   4.337 -0.2159 -0.6661  0.1835
68399SOL    HW112312   3.736  12.349   4.296 -0.9884  2.0403 -2.1960
68399SOL    HW212313   3.762  12.445   4.410 -0.3449 -0.8665  0.2307
68400SOL     OW12314  12.968   5.616  11.227  0.5438 -0.3377 -0.2155
68400SOL    HW112315  12.950   5.585  11.316  1.0126 -0.0590 -0.0225
68400SOL    HW212316  13.033   5.555  11.192 -0.4455 -1.1218 -0.7840
68401SOL     OW12317  10.637   2.382  12.293 -0.5108 -0.3633 -0.8248
68401SOL    HW112318  10.642   2.476  12.274  0.8901  0.2232  1.8955
68401SOL    HW212319  10.694   2.341  12.228  3.1284  1.3390  1.0167
68402SOL     OW12320   1.547  10.108   0.169 -0.0204 -0.1561  0.2583
68402SOL    HW112321   1.593  10.167   0.110 -1.2545  1.8354  1.1853
68402SOL    HW212322   1.560  10.021   0.131  0.0293  0.9162 -2.4080
68403SOL     OW12323  12.578  12.828   3.983  0.3284 -0.1284  0.1163
68403SOL    HW112324  12.526  12.786   3.915  0.3095  0.7540 -0.4270
68403SOL    HW212325  12.516  12.846   4.053 -0.2150  1.2537 -0.6791
68404SOL     OW12326   0.444   6.144  11.913  0.4437 -0.2067 -0.1994
68404SOL    HW112327   0.506   6.091  11.963 -0.4612  0.6245  1.8920
68404SOL    HW212328   0.428   6.221  11.967 -2.5785 -0.4729 -0.5370
68405SOL     OW12329  10.089   6.745   9.037  0.2841  0.3248  0.0997
68405SOL    HW112330  10.032   6.740   9.114  2.4550 -1.4678  1.7190
68405SOL    HW212331  10.080   6.660   8.994  0.6790  0.5517 -0.4473
68406SOL     OW12332   2.368   7.882   2.221  0.2202 -0.3521  0.0824
68406SOL    HW112333   2.445   7.826   2.232 -0.6028 -1.3939  0.6778
68406SOL    HW212334   2.375   7.947   2.290  1.3211  0.4842 -0.7719
68407SOL     OW12335   4.766   8.293  12.267 -0.1834 -0.6907 -0.2398
68407SOL    HW112336   4.691   8.242  12.298 -1.3941  0.9990 -0.2386
68407SOL    HW212337   4.824   8.228  12.227 -1.8231 -2.0234 -0.6030
68408SOL     OW12338   1.084   7.146   2.912  0.1020 -0.0131 -0.1745
68408SOL    HW112339   1.007   7.191   2.875  0.8415 -0.4780 -2.4007
68408SOL    HW212340   1.158   7.178   2.861  0.7689 -3.1365 -1.3821
68409SOL     OW12341   4.537   8.476   2.713  0.1418 -0.1040 -0.4087
68409SOL    HW112342   4.605   8.531   2.753 -0.3286  0.4450 -0.3480
68409SOL    HW212343   4.522   8.516   2.627 -0.1682 -0.1678 -0.3842
68410SOL     OW12344  10.842   6.901   8.015  0.5818 -0.1596  0.3957
68410SOL    HW112345  10.788   6.822   8.013  1.2151 -0.7971  3.4400
68410SOL    HW212346  10.780   6.973   8.030  0.2999 -0.5051  0.9071
68411SOL     OW12347   0.894   4.225   3.492  0.0770  0.0058  0.6572
68411SOL    HW112348   0.895   4.187   3.404  0.6330 -0.6612  0.9456
68411SOL    HW212349   0.807   4.262   3.501  0.1415  0.4469 -0.3327
68412SOL     OW12350   1.223   5.525  11.544  0.0686 -0.5171  0.5163
68412SOL    HW112351   1.246   5.610  11.507  0.0905 -0.1176  1.4065
68412SOL    HW212352   1.128   5.530  11.557 -0.0686 -0.9871 -0.2955
68413SOL     OW12353   9.408   8.538   8.614 -0.0089  0.8323  0.0161
68413SOL    HW112354   9.477   8.506   8.671 -0.6283  0.1725  0.4177
68413SOL    HW212355   9.329   8.538   8.669 -0.9785 -1.3996 -1.2259
68414SOL     OW12356  12.811   0.229   5.584  0.0790  0.7201  0.3367
68414SOL    HW112357  12.884   0.279   5.547  0.0531  0.1399 -0.5354
68414SOL    HW212358  12.734   0.266   5.541 -0.1534  1.3264  1.2504
68415SOL     OW12359   3.138  10.503   1.514 -0.5743  0.8114  0.3364
68415SOL    HW112360   3.214  10.527   1.462 -0.2097 -0.5894  0.1868
68415SOL    HW212361   3.148  10.552   1.596  0.2233  1.0191  0.1180
68416SOL     OW12362  11.125   4.795   2.956  0.1737 -0.7146  0.1996
68416SOL    HW112363  11.184   4.806   3.031  1.2678 -3.0372 -0.2278
68416SOL    HW212364  11.180   4.758   2.887 -1.1638 -0.1302 -1.2457
68417SOL     OW12365   6.191   8.437   2.420  0.1224  0.4500  0.1470
68417SOL    HW112366   6.132   8.467   2.489 -0.0229 -2.2962  1.3822
68417SOL    HW212367   6.145   8.455   2.338 -0.4093  2.3600  0.8358
68418SOL     OW12368  11.294  10.786   2.305  0.2217  0.5722 -0.4903
68418SOL    HW112369  11.243  10.860   2.272 -1.6504 -0.8755 -1.0090
68418SOL    HW212370  11.327  10.817   2.390  0.3749  2.3430 -1.1402
68419SOL     OW12371   3.208  11.428  11.818 -0.2016  0.3618  0.4313
68419SOL    HW112372   3.118  11.448  11.843 -0.6361  0.0062 -0.7821
68419SOL    HW212373   3.258  11.503  11.850 -0.6819 -0.1245  2.4098
68420SOL     OW12374   2.513   4.735  10.988  0.0824  0.0046 -0.0948
68420SOL    HW112375   2.574   4.777  10.928  0.6720  1.8297  1.6581
68420SOL    HW212376   2.489   4.804  11.050 -2.1501 -1.2170  0.5263
68421SOL     OW12377   4.562   0.441   5.947 -0.1599 -0.5433 -0.0911
68421SOL    HW112378   4.587   0.365   5.894  0.0461  0.4015 -1.4079
68421SOL    HW212379   4.642   0.466   5.993 -0.7883 -2.5192  2.2449
68422SOL     OW12380   0.421   1.592   5.329 -0.2543  0.1970 -0.2443
68422SOL    HW112381   0.340   1.621   5.286  0.0538  0.8192 -0.4203
68422SOL    HW212382   0.456   1.524   5.272 -0.5741  0.0311 -0.2460
68423SOL     OW12383   5.408  10.968   8.198  0.2449  0.6251  0.1680
68423SOL    HW112384   5.409  11.044   8.139  1.3738  1.1010  0.7494
68423SOL    HW212385   5.464  10.995   8.271  0.5967 -0.7478  0.4265
68424SOL     OW12386  11.366   4.901   9.691 -0.1832  0.0766  0.9786
68424SOL    HW112387  11.381   4.897   9.596  0.8597  1.5074  1.0408
68424SOL    HW212388  11.303   4.832   9.708 -3.6486  2.3272 -1.4170
68425SOL     OW12389  10.119  10.617   3.810  0.2340  0.4146 -0.0124
68425SOL    HW112390  10.096  10.560   3.737 -1.7375  2.8734 -1.4501
68425SOL    HW212391  10.035  10.646   3.846  1.1169  2.4737  0.5609
68426SOL     OW12392  12.753   2.397   6.472  0.3838  0.5715 -0.4007
68426SOL    HW112393  12.702   2.471   6.438  0.3191  1.0411  0.6770
68426SOL    HW212394  12.836   2.435   6.500  0.5784  0.1347 -0.3651
68427SOL     OW12395   4.707  11.559   3.058 -0.5347 -0.0988  0.0417
68427SOL    HW112396   4.713  11.466   3.080  3.3768  0.0047  0.0681
68427SOL    HW212397   4.673  11.601   3.137 -1.0711 -1.3250  0.4841
68428SOL     OW12398  10.981   3.015   8.778 -0.3306 -0.0998  0.1761
68428SOL    HW112399  10.973   2.942   8.839 -0.6753 -0.1988  0.0156
68428SOL    HW212400  11.064   3.001   8.734  0.5481  0.6545  1.5064
68429SOL     OW12401  11.996   1.010  10.483 -0.0908  0.2333  0.5077
68429SOL    HW112402  11.978   0.955  10.559  0.2244 -0.2879  0.2147
68429SOL    HW212403  11.909   1.030  10.447 -0.2345  0.4079  0.9540
68430SOL     OW12404   0.850   3.517   2.364 -0.2312  0.1793 -0.2503
68430SOL    HW112405   0.908   3.591   2.348 -1.0645  1.5047  2.2850
68430SOL    HW212406   0.771   3.536   2.313 -0.1027  0.5719 -0.3054
68431SOL     OW12407   3.191   4.998   9.698  0.1408  0.0492  0.1304
68431SOL    HW112408   3.269   5.049   9.715 -1.4100  2.2373  1.1458
68431SOL    HW212409   3.173   5.010   9.605  0.8747 -0.3283 -0.0674
68432SOL     OW12410   5.331   6.466   3.795 -0.3704 -0.4296  0.1919
68432SOL    HW112411   5.274   6.427   3.729 -0.9848  0.9181 -0.1208
68432SOL    HW212412   5.294   6.553   3.810  0.7190 -0.0973  1.1253
68433SOL     OW12413  10.419   0.673   6.966 -0.2170  0.4948 -0.4432
68433SOL    HW112414  10.471   0.619   6.906  1.2000 -0.1728  1.2832
68433SOL    HW212415  10.419   0.624   7.048 -0.7038  2.1128  0.5729
68434SOL     OW12416   5.303   9.236   7.305 -0.1171  0.0024 -0.3481
68434SOL    HW112417   5.266   9.318   7.270 -0.4440 -0.4740 -1.1564
68434SOL    HW212418   5.230   9.195   7.352  0.9813  1.8968  3.3575
68435SOL     OW12419   5.563   5.746   2.500  0.1451 -0.2934 -0.1754
68435SOL    HW112420   5.518   5.811   2.554  0.5806 -0.1685  0.0468
68435SOL    HW212421   5.648   5.785   2.482  0.1966 -0.5614 -0.5191
68436SOL     OW12422   3.076   6.769  11.007  0.1034  0.1271 -0.1005
68436SOL    HW112423   3.100   6.807  11.091  0.3191  0.4851 -0.3195
68436SOL    HW212424   3.048   6.844  10.954  0.6210 -0.0089 -0.5682
68437SOL     OW12425   2.528  11.585   5.159 -0.7410  0.5388 -0.2299
68437SOL    HW112426   2.596  11.587   5.227 -1.3811  0.1583  0.4320
68437SOL    HW212427   2.480  11.504   5.175  0.0179 -0.3421 -2.0721
68438SOL     OW12428   7.921   6.865   3.495  0.1825 -0.0950  0.5485
68438SOL    HW112429   7.909   6.853   3.401  0.0318  0.3045  0.5164
68438SOL    HW212430   7.837   6.842   3.533  0.6872 -1.8361  0.7448
68439SOL     OW12431   4.326  12.579   4.831  0.2706 -0.6027  0.0289
68439SOL    HW112432   4.389  12.575   4.759  0.5140  0.2335  0.1759
68439SOL    HW212433   4.342  12.665   4.871  0.3845 -1.2013  1.3006
68440SOL     OW12434  12.608   7.605   7.384 -0.0572 -0.4974 -0.0210
68440SOL    HW112435  12.558   7.687   7.396  0.6865  0.2103 -1.5286
68440SOL    HW212436  12.541   7.537   7.387 -0.8786  0.2743 -0.1247
68441SOL     OW12437   9.541   4.907   2.874  0.4341  0.1984 -0.0129
68441SOL    HW112438   9.540   4.926   2.968  1.6012  0.4413 -0.0260
68441SOL    HW212439   9.507   4.986   2.833  1.6182  0.8072  0.1317
68442SOL     OW12440   2.142   1.903   8.567 -0.2839 -0.5170  0.3048
68442SOL    HW112441   2.227   1.940   8.546 -0.4211 -0.5174 -0.2595
68442SOL    HW212442   2.141   1.818   8.524  0.8041 -2.1320  3.1656
68443SOL     OW12443   7.346   1.927   2.725  0.3214  0.3011 -0.3115
68443SOL    HW112444   7.403   1.998   2.698  0.4303 -0.4604 -2.2377
68443SOL    HW212445   7.399   1.848   2.716 -0.2375 -0.1757  0.4098
68444SOL     OW12446   1.953  11.106   3.905 -0.0426 -0.3350  0.8747
68444SOL    HW112447   1.909  11.111   3.821  0.4924  0.5181  0.6341
68444SOL    HW212448   1.884  11.079   3.967 -0.2172 -1.9599  0.0261
68445SOL     OW12449   6.832   3.402  12.845  0.1625 -0.0715 -0.2503
68445SOL    HW112450   6.832   3.491  12.811  0.7794  0.0353  0.0226
68445SOL    HW212451   6.756   3.361  12.804  0.4605  0.2691 -1.1693
68446SOL     OW12452  10.595   3.684   2.772  0.1924  0.1751  0.2492
68446SOL    HW112453  10.684   3.652   2.783 -0.4414 -1.6205  0.3858
68446SOL    HW212454  10.595   3.770   2.816  2.1844  0.8738 -0.9705
68447SOL     OW12455  11.378   0.686   1.844  0.3254 -0.1748 -0.0133
68447SOL    HW112456  11.296   0.639   1.860  0.0062  0.5950  0.6707
68447SOL    HW212457  11.446   0.626   1.876 -0.0643 -0.2301  0.7260
68448SOL     OW12458  11.462   9.404  12.388  0.3240 -0.1482  0.1383
68448SOL    HW112459  11.414   9.471  12.436  0.6433  0.8467 -0.8827
68448SOL    HW212460  11.534   9.451  12.346  1.4290 -1.3774  0.5562
68449SOL     OW12461   4.555   5.490   4.602  0.7118 -0.4879  0.0178
68449SOL    HW112462   4.469   5.530   4.615 -0.2267 -1.5080 -2.4113
68449SOL    HW212463   4.572   5.441   4.682 -0.3478  0.7866  1.0635
68450SOL     OW12464   1.428   9.765   7.039 -0.6105 -0.0015  0.1226
68450SOL    HW112465   1.347   9.745   7.086 -1.5758  0.7742 -1.1526
68450SOL    HW212466   1.438   9.860   7.047  0.0547 -0.0585  0.0520
68451SOL     OW12467  10.369  10.850  11.720 -0.5032 -0.3384 -0.1065
68451SOL    HW112468  10.275  10.839  11.705 -1.1872  0.5512  2.8027
68451SOL    HW212469  10.397  10.912  11.652 -2.1157 -0.2676 -0.7538
68452SOL     OW12470   9.948   2.781   9.948 -0.7159  0.0328  0.5563
68452SOL    HW112471   9.863   2.794   9.907 -0.5332  0.5938  0.3422
68452SOL    HW212472   9.986   2.869   9.953 -0.4381 -0.1236  1.2880
68453SOL     OW12473   9.348  11.624   0.769 -0.0871 -0.3814  0.1174
68453SOL    HW112474   9.389  11.710   0.775  1.6908 -1.1924  0.4314
68453SOL    HW212475   9.418  11.563   0.796 -1.2454 -1.9208 -0.2472
68454SOL     OW12476   1.120  11.828  11.613  0.7432  0.4446 -0.0610
68454SOL    HW112477   1.112  11.896  11.679  0.6728  1.1752 -0.8052
68454SOL    HW212478   1.116  11.746  11.662 -2.6931  0.8399  0.6178
68455SOL     OW12479   2.050   9.501  12.460 -0.7317  0.3292  0.2048
68455SOL    HW112480   2.130   9.463  12.496 -0.4511  1.4339  0.8101
68455SOL    HW212481   1.980   9.463  12.513 -0.4662  0.5716  0.7391
68456SOL     OW12482   2.410   9.444   6.841 -0.1429  0.3896 -0.2182
68456SOL    HW112483   2.490   9.486   6.810  1.6065 -0.8817  2.2757
68456SOL    HW212484   2.433   9.352   6.851 -2.5994 -0.4451 -1.4111
68457SOL     OW12485   0.604   3.117   2.136 -0.2470 -0.3405  0.7890
68457SOL    HW112486   0.521   3.081   2.168 -0.6633  0.2669  0.4204
68457SOL    HW212487   0.638   3.168   2.209 -0.5847  0.0413  0.6803
68458SOL     OW12488   8.742  10.284  12.525 -0.2029  0.0895 -0.8087
68458SOL    HW112489   8.662  10.335  12.540 -0.8261 -0.7852 -1.1394
68458SOL    HW212490   8.791  10.336  12.461  0.8290  2.0539  1.4391
68459SOL     OW12491   8.433  12.760   0.209  0.0292  0.2295 -0.0345
68459SOL    HW112492   8.526  12.771   0.192  0.0159  1.3328  0.5030
68459SOL    HW212493   8.409  12.679   0.164  1.3440 -0.3210  0.2304
68460SOL     OW12494   9.938   1.818   9.783  0.7486  0.2632 -0.2115
68460SOL    HW112495   9.898   1.897   9.746  0.7808  0.1383 -0.5205
68460SOL    HW212496  10.024   1.846   9.813  1.2454  0.0939 -1.4175
68461SOL     OW12497   1.078   2.018  11.471 -0.9993  0.0538  0.6375
68461SOL    HW112498   1.022   1.949  11.506 -0.2270 -0.7829  0.2527
68461SOL    HW212499   1.069   2.012  11.376 -0.0045 -0.3209  0.5560
68462SOL     OW12500   0.085   4.766  11.789 -0.6460 -0.3590 -0.5402
68462SOL    HW112501  -0.010   4.775  11.791 -0.6669 -0.6452  0.2668
68462SOL    HW212502   0.101   4.678  11.824 -0.1147 -0.6207 -1.3859
68463SOL     OW12503   1.000   1.914   3.263  0.6689  0.2788  0.8672
68463SOL    HW112504   0.952   1.947   3.187  0.7176  0.9724  1.1338
68463SOL    HW212505   1.083   1.882   3.227 -0.4746 -2.2230  0.1798
68464SOL     OW12506   8.573   7.659   0.739 -0.1851 -0.0006  0.5903
68464SOL    HW112507   8.626   7.721   0.788 -1.0788 -0.1649  1.8274
68464SOL    HW212508   8.607   7.663   0.649 -0.4354  2.5082  0.5390
68465SOL     OW12509   5.410  10.303   7.990  0.3179 -0.4171  0.6503
68465SOL    HW112510   5.380  10.381   8.037 -2.3465  0.6124 -2.3953
68465SOL    HW212511   5.504  10.314   7.983  0.3524  1.1240  2.6173
68466SOL     OW12512  10.674  10.816   5.288  0.3799 -0.1397 -0.6544
68466SOL    HW112513  10.769  10.819   5.279  0.4588 -0.4040  0.0223
68466SOL    HW212514  10.656  10.876   5.361 -0.0429  0.4525 -1.2319
68467SOL     OW12515   9.458  10.806   3.188  0.4231 -0.5259 -0.0923
68467SOL    HW112516   9.490  10.766   3.269  0.6103  1.0239  0.6338
68467SOL    HW212517   9.369  10.772   3.178  0.4495 -0.8385  0.6767
68468SOL     OW12518   4.345   8.776   7.671  0.0866 -0.4158 -0.5607
68468SOL    HW112519   4.251   8.760   7.667  0.4401 -3.0160  0.1132
68468SOL    HW212520   4.365   8.822   7.589 -2.0940  2.6857  0.4315
68469SOL     OW12521   1.547   7.297   9.068 -0.0110  0.5673  0.3028
68469SOL    HW112522   1.465   7.249   9.056 -0.2082  1.2849 -1.7734
68469SOL    HW212523   1.522   7.375   9.117 -0.4043  0.3863  0.3952
68470SOL     OW12524   6.814  10.865   0.172 -0.1775  0.1250 -0.1519
68470SOL    HW112525   6.766  10.846   0.252 -0.0001 -0.6887 -0.2287
68470SOL    HW212526   6.779  10.949   0.142 -0.3089  0.3891  0.7239
68471SOL     OW12527   2.968  12.795   7.847 -0.1337 -0.5486  0.9174
68471SOL    HW112528   2.889  12.755   7.884 -1.3029  2.1742  1.6351
68471SOL    HW212529   3.038  12.769   7.908 -0.6844 -1.8892  1.0260
68472SOL     OW12530   3.803  10.700   7.297  0.3750  0.3057  0.4481
68472SOL    HW112531   3.742  10.715   7.224  0.1148 -0.3465  0.5318
68472SOL    HW212532   3.829  10.788   7.324 -0.4411  0.5914  0.3383
68473SOL     OW12533   9.823   8.990   3.269  0.0687  0.1927  0.0714
68473SOL    HW112534   9.840   8.905   3.310  4.6576  1.9647  2.5539
68473SOL    HW212535   9.880   8.991   3.192 -1.2055  0.4801 -0.8939
68474SOL     OW12536  12.867   7.440  12.711 -0.1049  0.3198 -0.3814
68474SOL    HW112537  12.824   7.441  12.626  1.7526 -0.0770 -1.3885
68474SOL    HW212538  12.881   7.532  12.732 -4.1123  0.7066  1.5170
68475SOL     OW12539   9.188   6.724   8.305 -0.5216 -0.0510  0.3330
68475SOL    HW112540   9.096   6.731   8.278 -0.1093 -0.7156 -1.3567
68475SOL    HW212541   9.225   6.811   8.288 -0.9212  0.3361  1.3988
68476SOL     OW12542   0.591   1.797   9.029 -0.1282  0.2168  0.1296
68476SOL    HW112543   0.654   1.858   8.991 -1.3611  1.2584 -0.3410
68476SOL    HW212544   0.640   1.749   9.096  1.8969 -1.0672 -2.1180
68477SOL     OW12545   5.640   3.335  12.841 -0.3393 -0.0187  0.1322
68477SOL    HW112546   5.657   3.426  12.863  0.8673 -0.1774 -0.0870
68477SOL    HW212547   5.714   3.287  12.880 -0.8252 -0.8700  0.0288
68478SOL     OW12548   2.326   3.366   0.056  0.1351  0.3511  0.8679
68478SOL    HW112549   2.243   3.339   0.097  0.2603 -0.4610  0.5927
68478SOL    HW212550   2.333   3.459   0.077 -0.6967  0.3591  1.1606
68479SOL     OW12551   1.185   4.955   5.089 -0.0642  0.1666 -0.0630
68479SOL    HW112552   1.141   4.902   5.156 -0.4369  2.0634  1.2515
68479SOL    HW212553   1.122   4.956   5.016  0.3742 -1.9677 -0.5506
68480SOL     OW12554   5.332   7.599  10.969  0.1630  0.3246  0.0967
68480SOL    HW112555   5.290   7.558  10.893 -1.2014 -0.4686  1.2489
68480SOL    HW212556   5.353   7.688  10.940 -2.0126  0.6460 -0.6470
68481SOL     OW12557   8.579  11.326   0.987 -0.5381 -0.0476 -0.3618
68481SOL    HW112558   8.624  11.255   0.942 -0.8088  0.2535 -1.1256
68481SOL    HW212559   8.497  11.288   1.018 -0.1903 -0.3493  0.2045
68482SOL     OW12560   8.662   4.211  10.032  0.3715 -0.0157 -0.1144
68482SOL    HW112561   8.645   4.286   9.975 -1.6687 -0.3497 -0.0166
68482SOL    HW212562   8.689   4.142   9.971  0.6306  0.3272 -0.3948
68483SOL     OW12563   6.581   6.348   9.010 -0.0031 -0.1169 -0.3070
68483SOL    HW112564   6.552   6.260   8.987 -1.7975  0.4913 -0.5671
68483SOL    HW212565   6.655   6.335   9.068  0.6294 -1.7731 -1.4292
68484SOL     OW12566  12.561   5.096  11.758  0.2760 -0.0364 -1.0485
68484SOL    HW112567  12.655   5.105  11.739  0.3713 -1.0109 -1.0862
68484SOL    HW212568  12.525   5.053  11.680  0.1758 -1.5619 -0.1906
68485SOL     OW12569  12.287   3.525   8.043  0.2005 -0.3798  0.1306
68485SOL    HW112570  12.324   3.437   8.033 -0.1600 -0.5366  0.1656
68485SOL    HW212571  12.272   3.555   7.954 -0.3617 -0.6488  0.1298
68486SOL     OW12572   4.892   0.880   4.919  0.5611  0.3797 -0.0127
68486SOL    HW112573   4.821   0.849   4.863  0.9707 -1.0066  0.2067
68486SOL    HW212574   4.939   0.945   4.866  0.2013  0.0028 -0.7979
68487SOL     OW12575   4.548   6.500  10.957 -0.1682 -0.0884 -0.4832
68487SOL    HW112576   4.566   6.436  10.888  1.7061 -0.4604  0.2771
68487SOL    HW212577   4.579   6.583  10.920 -1.2101  0.1292 -0.8996
68488SOL     OW12578   6.326  10.671   4.286 -0.1498 -0.0527  0.1743
68488SOL    HW112579   6.403  10.617   4.306 -0.4946 -1.2896 -1.6589
68488SOL    HW212580   6.358  10.761   4.295  0.6506 -0.4790  2.4596
68489SOL     OW12581   4.529   2.420  11.186 -0.1957 -0.3451  0.0569
68489SOL    HW112582   4.568   2.507  11.190  0.7685 -0.8082  1.3931
68489SOL    HW212583   4.565   2.381  11.106  1.0118 -0.2563  0.5392
68490SOL     OW12584   2.948  12.081  11.934 -0.5960  0.1611 -0.5680
68490SOL    HW112585   3.009  12.076  11.861  1.9043  0.3202  1.3781
68490SOL    HW212586   2.921  12.173  11.937  1.3599  0.7707  0.1933
68491SOL     OW12587   4.662   2.333   0.752  0.1133  0.7998  0.4096
68491SOL    HW112588   4.683   2.389   0.677  0.3525  1.6803  1.1163
68491SOL    HW212589   4.593   2.275   0.720  0.7724  0.5958 -0.7312
68492SOL     OW12590  12.490   5.120  11.332  0.0591 -0.6162 -0.5935
68492SOL    HW112591  12.434   5.090  11.261 -2.0819  0.2317  0.6193
68492SOL    HW212592  12.508   5.212  11.311  0.0032 -0.5576 -0.3892
68493SOL     OW12593   6.400  11.496   3.647 -0.4240 -0.3342 -0.1316
68493SOL    HW112594   6.359  11.411   3.635  1.1544 -0.9265 -1.6652
68493SOL    HW212595   6.366  11.550   3.575  0.9849 -0.6555 -1.0597
68494SOL     OW12596   4.688   0.071  10.044  0.1886  0.3773  0.1109
68494SOL    HW112597   4.761   0.133  10.032 -0.6814  1.4734  0.3016
68494SOL    HW212598   4.686   0.056  10.139 -0.4289  1.1168  0.2239
68495SOL     OW12599   9.963   6.874  12.280  0.4382  0.3865  0.3200
68495SOL    HW112600   9.980   6.926  12.202 -0.4926  1.8338  1.0245
68495SOL    HW212601   9.949   6.785  12.248  1.0305  0.7569 -1.0379
68496SOL     OW12602   9.452  11.137   7.213  0.5899  0.0759 -0.6627
68496SOL    HW112603   9.423  11.211   7.159  2.2916  1.1859 -0.1098
68496SOL    HW212604   9.543  11.155   7.232  0.6938 -1.5431  0.5813
68497SOL     OW12605  11.555   9.431   3.344  0.4044  0.6914  0.2221
68497SOL    HW112606  11.596   9.414   3.259  0.9413  0.9712  0.4200
68497SOL    HW212607  11.464   9.405   3.332  0.1725  1.8877 -0.8321
68498SOL     OW12608   1.274   9.388  11.845 -0.1844  0.3343  0.6385
68498SOL    HW112609   1.308   9.306  11.879 -1.4600 -0.1771  0.7370
68498SOL    HW212610   1.234   9.431  11.921 -2.2982 -0.4225  0.0238
68499SOL     OW12611   6.680   9.816   7.651 -0.3755 -0.0693 -0.8887
68499SOL    HW112612   6.770   9.820   7.619  0.0296 -2.0114 -0.1650
68499SOL    HW212613   6.628   9.791   7.575 -0.3208  1.0734 -1.3123
68500SOL     OW12614   6.483   0.700   6.857 -0.0922 -0.0959 -1.2165
68500SOL    HW112615   6.527   0.783   6.840 -1.1971  0.3171 -2.1669
68500SOL    HW212616   6.397   0.724   6.892  1.0784 -0.8834  2.8095
68501SOL     OW12617   4.653  10.635   2.196 -0.3493 -0.2494  0.2101
68501SOL    HW112618   4.720  10.622   2.129 -0.9862  0.5261 -0.6140
68501SOL    HW212619   4.684  10.709   2.247 -0.5814  0.1284 -0.1898
68502SOL     OW12620   4.013   3.689   7.036  0.2106  0.6553 -0.5555
68502SOL    HW112621   4.053   3.766   7.076  0.8283 -0.6881  1.5768
68502SOL    HW212622   3.927   3.684   7.077 -0.2033  0.7359 -1.4076
68503SOL     OW12623   9.780  10.485   0.458  0.2365  0.8270 -0.1523
68503SOL    HW112624   9.840  10.492   0.532 -1.0661 -0.8235  1.1466
68503SOL    HW212625   9.774  10.574   0.423 -0.3324  2.0426  2.7478
68504SOL     OW12626   5.899   0.378   6.829 -0.9026 -0.0251  0.3635
68504SOL    HW112627   5.899   0.366   6.924 -0.2150  1.1549  0.5327
68504SOL    HW212628   5.954   0.306   6.796 -1.6017 -0.7724  0.8001
68505SOL     OW12629   8.798   7.386   2.796 -0.1074 -0.3021 -0.1045
68505SOL    HW112630   8.783   7.385   2.702  2.4107  1.2660 -0.6296
68505SOL    HW212631   8.886   7.349   2.806 -0.3265 -0.4349  1.6565
68506SOL     OW12632  10.921  11.776   3.057  0.3252 -0.0081 -0.5431
68506SOL    HW112633  10.957  11.864   3.074  1.9531 -0.7475  0.0536
68506SOL    HW212634  10.878  11.784   2.972  0.0777  1.4617 -0.3099
68507SOL     OW12635  12.129   2.160   3.120 -0.5591  0.3366 -0.8612
68507SOL    HW112636  12.119   2.112   3.203  2.0603  2.3258  0.7563
68507SOL    HW212637  12.048   2.209   3.111 -2.0710 -2.0358 -1.0440
68508SOL     OW12638   3.857   8.880   1.769 -0.0485 -0.2801 -0.2285
68508SOL    HW112639   3.862   8.814   1.838  0.5983 -0.6740 -0.6392
68508SOL    HW212640   3.948   8.905   1.754 -0.3138  0.9797  0.1767
68509SOL     OW12641   2.327  12.424   8.065 -0.1751  0.4154 -0.1249
68509SOL    HW112642   2.289  12.341   8.035  0.5179  0.3554 -0.8448
68509SOL    HW212643   2.271  12.450   8.139  0.4301 -1.4052  1.0396
68510SOL     OW12644   3.471   5.608   8.903  0.3404  0.3146 -0.2354
68510SOL    HW112645   3.408   5.554   8.856  1.2582  0.4582 -1.7079
68510SOL    HW212646   3.555   5.565   8.887  0.7988  0.9503  0.4288
68511SOL     OW12647   9.536   8.387  10.857  0.2349  0.6828  0.6333
68511SOL    HW112648   9.455   8.337  10.847 -0.3001  1.2933  1.7567
68511SOL    HW212649   9.526   8.460  10.796 -0.1327  0.8382  0.8757
68512SOL     OW12650  12.069   4.386   4.726 -0.1362  0.0162  0.0174
68512SOL    HW112651  12.080   4.405   4.633  1.8943 -0.6827  0.0593
68512SOL    HW212652  12.016   4.458   4.759  0.0507  0.8770 -1.4669
68513SOL     OW12653   8.778  12.193   8.934  0.1744  0.1071 -0.0477
68513SOL    HW112654   8.700  12.178   8.988 -0.2845  0.9419 -0.4643
68513SOL    HW212655   8.844  12.223   8.996 -0.4430  1.3596  0.0190
68514SOL     OW12656   1.630   2.539   1.496  0.0326 -0.1858  0.3422
68514SOL    HW112657   1.679   2.620   1.503 -1.6767  1.0383 -1.0169
68514SOL    HW212658   1.642   2.496   1.581  0.7268  1.6141  1.1971
68515SOL     OW12659   0.417   5.933  12.191 -0.1945 -0.3997  0.1130
68515SOL    HW112660   0.422   5.851  12.241  0.5209  0.1624  0.9689
68515SOL    HW212661   0.479   5.921  12.119  0.6832 -0.2075  0.8325
68516SOL     OW12662   5.660   8.825   2.512 -0.3151 -0.1346  0.0129
68516SOL    HW112663   5.643   8.909   2.556 -0.5933 -0.2693  0.1644
68516SOL    HW212664   5.621   8.835   2.425  2.3130  1.0267 -1.1362
68517SOL     OW12665   6.557   9.969  12.057  0.3478 -0.4007  0.4741
68517SOL    HW112666   6.570  10.064  12.058  0.4560 -0.4110  0.0751
68517SOL    HW212667   6.552   9.945  12.150  0.2015  0.0096  0.5751
68518SOL     OW12668   0.593  11.142   3.807  0.5476  0.2645 -0.2343
68518SOL    HW112669   0.636  11.200   3.743  0.0366  0.8406 -0.0657
68518SOL    HW212670   0.527  11.094   3.755  0.5941  0.2367 -0.2681
68519SOL     OW12671   4.498  10.752   0.064  0.2238 -0.5811 -0.2985
68519SOL    HW112672   4.501  10.738   0.158  1.9963  0.1187 -0.2113
68519SOL    HW212673   4.415  10.798   0.049 -0.0455 -0.6411  0.9156
68520SOL     OW12674   7.528   2.278   7.550  0.8650  0.0976  0.5234
68520SOL    HW112675   7.602   2.220   7.531  0.2251 -0.3101 -0.7991
68520SOL    HW212676   7.520   2.334   7.473 -0.4017 -0.0745  0.5034
68521SOL     OW12677   9.766   6.088   1.785 -0.2811 -0.2346  0.3541
68521SOL    HW112678   9.685   6.119   1.746 -0.0615  0.6281  0.5589
68521SOL    HW212679   9.827   6.079   1.712 -0.8111 -1.8207  0.0537
68522SOL     OW12680   9.576  12.155  11.294  0.1050  0.4558  0.2253
68522SOL    HW112681   9.561  12.095  11.367  1.0774  0.2856  0.3035
68522SOL    HW212682   9.639  12.109  11.238  0.7257  1.3268  0.1880
68523SOL     OW12683   2.477  12.189   4.651  0.1703 -0.0791  0.2633
68523SOL    HW112684   2.385  12.215   4.649  0.5823  1.4131 -1.2506
68523SOL    HW212685   2.513  12.233   4.728 -0.3864 -0.7792  0.9413
68524SOL     OW12686   0.477  10.866   9.197 -0.4786 -0.3096  0.3850
68524SOL    HW112687   0.417  10.856   9.123 -1.6008  0.6474  1.1325
68524SOL    HW212688   0.464  10.787   9.249 -1.0314 -0.1478  0.4968
68525SOL     OW12689  12.527   0.446   2.951  0.1623  0.2191 -0.7378
68525SOL    HW112690  12.498   0.531   2.918  0.8756  0.5038 -0.6546
68525SOL    HW212691  12.520   0.453   3.046 -1.5495 -0.4757 -0.7904
68526SOL     OW12692   0.174   9.628   5.447  0.7944  0.1339  0.4039
68526SOL    HW112693   0.118   9.681   5.503 -2.8152  0.0341 -2.6712
68526SOL    HW212694   0.207   9.690   5.381  0.7884 -0.5331 -0.2434
68527SOL     OW12695   1.724   9.513  12.176 -0.1248 -0.5274 -0.1746
68527SOL    HW112696   1.709   9.606  12.159 -1.5105 -0.9124 -1.2857
68527SOL    HW212697   1.688   9.498  12.264  0.3472  0.0334  0.1173
68528SOL     OW12698   8.212   3.085   2.933  0.4249  0.5195 -0.0955
68528SOL    HW112699   8.173   3.063   3.018  0.2227  0.6300 -0.1588
68528SOL    HW212700   8.151   3.148   2.894  0.7515  0.8243 -0.1254
68529SOL     OW12701   2.886   8.584   4.144  0.7138  0.0919  0.1745
68529SOL    HW112702   2.939   8.574   4.222  0.7580  1.0788  0.2861
68529SOL    HW212703   2.915   8.667   4.105 -1.2965  1.1162  0.7111
68530SOL     OW12704   6.202   4.705  11.934  0.0710 -0.1807  0.2944
68530SOL    HW112705   6.252   4.636  11.891 -1.9414 -0.6426 -1.4700
68530SOL    HW212706   6.155   4.660  12.004  2.3789  0.3563  2.3672
68531SOL     OW12707   5.376   6.565   5.190  0.0385  0.1865  0.1861
68531SOL    HW112708   5.356   6.472   5.177  0.6275  0.1361 -0.3865
68531SOL    HW212709   5.402   6.596   5.104 -1.3461  1.1942  0.1017
68532SOL     OW12710  12.301  11.247   3.538  0.3839  0.0755 -0.4275
68532SOL    HW112711  12.262  11.258   3.452 -1.5061 -0.9520  0.2452
68532SOL    HW212712  12.229  11.219   3.594  1.9599 -1.2929  1.0396
68533SOL     OW12713   3.687   7.060  12.001 -0.0541  0.1633 -0.3164
68533SOL    HW112714   3.597   7.093  11.990  0.2200  1.1594  0.2672
68533SOL    HW212715   3.677   6.981  12.054 -0.5549  0.5016  0.1053
68534SOL     OW12716   2.930   5.067  10.174 -0.0487 -0.2374  0.1282
68534SOL    HW112717   3.011   5.098  10.214  0.6731 -1.0572 -0.6546
68534SOL    HW212718   2.948   4.975  10.151 -2.2016 -1.4356  2.6886
68535SOL     OW12719   4.828   1.373   2.318  0.2363 -0.2956  0.2114
68535SOL    HW112720   4.827   1.322   2.237 -0.4839 -0.6844  0.4620
68535SOL    HW212721   4.744   1.356   2.359  0.4270  0.2283  0.8465
68536SOL     OW12722   4.068   3.717   7.990  0.3116  0.1346  0.4606
68536SOL    HW112723   4.153   3.747   7.956  0.8479 -1.0696  0.6851
68536SOL    HW212724   4.086   3.630   8.023 -0.5667  0.6570  2.4207
68537SOL     OW12725   5.630   1.397   6.515 -0.1089 -0.0581 -0.0150
68537SOL    HW112726   5.648   1.457   6.588  1.4723 -0.0571 -0.3483
68537SOL    HW212727   5.609   1.455   6.442  1.8818  0.2033 -0.4617
68538SOL     OW12728   9.718   2.261  12.602 -0.6816  0.4003  0.1714
68538SOL    HW112729   9.632   2.249  12.641 -1.7510  1.7498 -1.5921
68538SOL    HW212730   9.728   2.357  12.597  0.4366  0.2593 -0.6106
68539SOL     OW12731   1.141   2.136  10.620  0.0834 -0.1566  0.3317
68539SOL    HW112732   1.154   2.217  10.670 -0.7148  1.1899 -1.5521
68539SOL    HW212733   1.188   2.150  10.538 -0.6123 -1.3510 -0.2983
68540SOL     OW12734   6.135   2.539   6.375 -0.5976 -0.3485 -0.1721
68540SOL    HW112735   6.151   2.633   6.389  1.2223 -0.3787 -1.6280
68540SOL    HW212736   6.155   2.499   6.460 -0.1288  0.4514  0.1098
68541SOL     OW12737   4.421   1.295   2.043  0.1311  0.4361  0.5025
68541SOL    HW112738   4.462   1.319   1.960  1.7332  1.1906  1.4680
68541SOL    HW212739   4.491   1.256   2.094 -1.0925 -1.0141  1.1408
68542SOL     OW12740   6.215   4.699   3.309  0.0879 -0.1626  0.2860
68542SOL    HW112741   6.309   4.683   3.301  0.2156 -1.5974  3.2609
68542SOL    HW212742   6.209   4.786   3.348  0.0538  0.5171 -1.1514
68543SOL     OW12743   1.551   9.538   4.579 -0.6128 -0.4298  0.4169
68543SOL    HW112744   1.482   9.603   4.590 -0.4296 -0.0521 -0.6042
68543SOL    HW212745   1.553   9.520   4.485  0.0342 -1.1496  0.5569
68544SOL     OW12746  11.104  11.291   4.978 -0.4645  0.4322  0.5570
68544SOL    HW112747  11.011  11.270   4.985 -0.0862 -1.3649  0.5271
68544SOL    HW212748  11.148  11.207   4.974  1.0287  1.2168 -1.4387
68545SOL     OW12749  12.836   5.562   9.891  0.0691  0.1446  0.1926
68545SOL    HW112750  12.775   5.613   9.838 -0.6089  0.4285  1.2242
68545SOL    HW212751  12.790   5.548   9.974  0.0673 -2.5247 -0.1952
68546SOL     OW12752   7.760   2.130   8.942  0.0421 -0.3098  0.0505
68546SOL    HW112753   7.735   2.123   8.850  1.0452  1.1283 -0.3624
68546SOL    HW212754   7.677   2.138   8.989 -0.4681 -0.7817 -0.7548
68547SOL     OW12755   8.853   7.120   9.824  0.1094  0.6941  0.1213
68547SOL    HW112756   8.906   7.049   9.787 -1.8874 -0.3821 -0.8667
68547SOL    HW212757   8.856   7.189   9.757  0.0283  0.5150 -0.0689
68548SOL     OW12758  12.294   4.930   1.021  0.0240  0.5578 -0.3423
68548SOL    HW112759  12.368   4.930   0.961  0.0419  1.8918 -0.3621
68548SOL    HW212760  12.226   4.980   0.976 -0.8723 -0.5747 -0.2874
68549SOL     OW12761   2.675  12.247  11.527 -0.4402 -0.1739  0.7548
68549SOL    HW112762   2.594  12.268  11.481  0.6905 -0.9521 -1.7728
68549SOL    HW212763   2.685  12.152  11.517  1.4461  0.0768 -0.2809
68550SOL     OW12764   4.008   0.458   7.372 -0.3970  0.1107 -0.4640
68550SOL    HW112765   4.054   0.389   7.420  0.1597  1.9062  1.7024
68550SOL    HW212766   4.078   0.514   7.338 -0.8905  0.5847 -0.7072
68551SOL     OW12767   3.914   0.679   9.490  0.5701 -0.2049 -0.3456
68551SOL    HW112768   3.829   0.722   9.487  1.3534  1.4197 -1.3392
68551SOL    HW212769   3.949   0.698   9.577  1.0049  1.4896 -0.8501
68552SOL     OW12770   6.920   3.828   8.676  0.5979 -0.3787 -1.0320
68552SOL    HW112771   6.957   3.916   8.681  0.6435 -0.4380 -0.0607
68552SOL    HW212772   6.910   3.801   8.768 -0.5754 -0.9024 -1.2919
68553SOL     OW12773  12.364   9.482   0.315 -0.0574  0.1524 -0.5202
68553SOL    HW112774  12.353   9.571   0.284 -0.3428  0.6231  0.8628
68553SOL    HW212775  12.455   9.459   0.294 -0.0746  0.6569 -1.1403
68554SOL     OW12776   5.414   4.509   8.196  0.3608 -0.3759  0.2341
68554SOL    HW112777   5.333   4.459   8.195 -2.2225  3.2367 -2.8789
68554SOL    HW212778   5.471   4.465   8.134 -1.0626 -0.6281 -0.9551
68555SOL     OW12779   4.024   9.770  12.744  0.0928 -0.1489  0.0510
68555SOL    HW112780   4.113   9.791  12.773  0.4772 -1.5817 -0.0286
68555SOL    HW212781   4.001   9.841  12.684  1.1854  0.2234  0.0486
68556SOL     OW12782  12.670   2.131   7.882  0.0942 -0.6557 -0.1016
68556SOL    HW112783  12.750   2.095   7.919 -0.1846 -0.3794  0.7885
68556SOL    HW212784  12.613   2.055   7.868  0.4075 -0.8220 -0.4966
68557SOL     OW12785   8.432   3.890  12.704 -0.1370  0.3004 -0.0268
68557SOL    HW112786   8.525   3.910  12.718 -0.3781  0.0836  2.1397
68557SOL    HW212787   8.413   3.819  12.765 -1.7956  0.4878 -0.2792
68558SOL     OW12788   8.790  11.468   1.059 -0.3639 -0.0878 -0.1996
68558SOL    HW112789   8.720  11.411   1.027 -0.0377 -0.6098  0.0025
68558SOL    HW212790   8.747  11.553   1.072 -1.2457 -0.6970  1.0595
68559SOL     OW12791   4.594   4.526   7.407  0.1296 -0.4816  0.3662
68559SOL    HW112792   4.646   4.547   7.485  0.8989 -2.3470  0.4005
68559SOL    HW212793   4.503   4.539   7.435  0.4322 -0.2693  1.2945
68560SOL     OW12794   5.296   4.888   4.332 -0.1752  0.2738  0.0486
68560SOL    HW112795   5.224   4.829   4.356 -0.1939 -0.0045 -0.6703
68560SOL    HW212796   5.299   4.885   4.236 -0.2901  1.5951 -0.0079
68561SOL     OW12797   7.501   2.262   6.380  0.0915 -0.2153  0.4805
68561SOL    HW112798   7.497   2.267   6.476 -0.6355  1.9867  0.3836
68561SOL    HW212799   7.578   2.314   6.357 -0.4450  0.3132 -0.1708
68562SOL     OW12800   7.452   7.790  10.283  0.0886  0.3876  0.2336
68562SOL    HW112801   7.445   7.773  10.377  0.1735  1.7106  0.5030
68562SOL    HW212802   7.408   7.875  10.271 -0.6543 -0.1408 -1.0586
68563SOL     OW12803   4.632   4.325  10.165  0.0629 -0.1104  0.0055
68563SOL    HW112804   4.584   4.266  10.222 -0.4944  1.3513  1.1048
68563SOL    HW212805   4.724   4.305  10.182 -0.1135 -1.3284 -0.3934
68564SOL     OW12806   1.862   9.470   4.389  0.6499  0.3549  0.0387
68564SOL    HW112807   1.856   9.389   4.438  2.1752 -0.5651 -1.1996
68564SOL    HW212808   1.771   9.495   4.372  0.1562 -0.7968  0.9051
68565SOL     OW12809   3.545   9.012   8.416 -0.5668 -0.2805  0.2349
68565SOL    HW112810   3.623   8.962   8.394 -0.0797 -1.0302  3.1961
68565SOL    HW212811   3.543   9.084   8.352  2.8102  0.0449  0.3241
68566SOL     OW12812   5.361   0.181   7.488 -0.2923  0.2044  0.2145
68566SOL    HW112813   5.450   0.151   7.473  0.1540  0.5443  1.9475
68566SOL    HW212814   5.358   0.202   7.581 -1.7624  1.6064 -0.0987
68567SOL     OW12815   5.259   8.080   0.846  0.3847 -0.6200  0.2082
68567SOL    HW112816   5.191   8.054   0.909 -0.3711 -1.6646 -0.9987
68567SOL    HW212817   5.322   8.008   0.847  1.3659  0.2219  1.1195
68568SOL     OW12818   5.470  12.936  10.228 -0.7437 -0.4841 -0.1109
68568SOL    HW112819   5.488  12.844  10.249 -0.3354 -0.4822 -0.4372
68568SOL    HW212820   5.475  12.981  10.313  0.4849 -0.5386 -0.1405
68569SOL     OW12821   1.243   4.735   3.104  0.2312 -0.1072 -0.0220
68569SOL    HW112822   1.150   4.715   3.103  0.2829 -0.4609 -1.6819
68569SOL    HW212823   1.285   4.650   3.086  0.9142 -0.0418  1.1487
68570SOL     OW12824   5.536   9.702   4.846 -0.0760  0.2810 -0.5403
68570SOL    HW112825   5.592   9.626   4.835  0.8784  1.1882 -2.4357
68570SOL    HW212826   5.552   9.732   4.936  2.3771  0.4031 -0.9676
68571SOL     OW12827  10.027   3.406  11.711  0.1241 -0.1073 -0.2454
68571SOL    HW112828   9.963   3.356  11.661  0.5162 -1.3617  0.4521
68571SOL    HW212829  10.056   3.345  11.780 -1.4106  1.9559  2.3802
68572SOL     OW12830   9.898   0.604   4.650  0.0992 -0.0789 -0.1049
68572SOL    HW112831   9.922   0.641   4.736  0.8933  0.5477 -0.5751
68572SOL    HW212832   9.819   0.554   4.667 -0.3839  0.9334  0.7880
68573SOL     OW12833   6.604   7.094   9.421 -0.1609  0.0710  0.0039
68573SOL    HW112834   6.556   7.068   9.343  0.2272  0.6172 -0.4240
68573SOL    HW212835   6.695   7.068   9.403 -0.0873  0.1032  0.3177
68574SOL     OW12836   4.909   1.293   8.012 -0.3677  0.2481  0.0801
68574SOL    HW112837   4.983   1.258   7.961 -0.8294 -0.3897 -0.1609
68574SOL    HW212838   4.894   1.228   8.080 -0.4873  0.5486  0.3405
68575SOL     OW12839   3.239   4.085   0.973 -0.8796 -0.4052 -0.2035
68575SOL    HW112840   3.284   4.089   0.889 -1.0750 -1.2732 -0.3571
68575SOL    HW212841   3.170   4.019   0.961  0.1903 -1.8441  1.1279
68576SOL     OW12842  11.710   8.905   8.478  0.2100 -0.5960 -0.2453
68576SOL    HW112843  11.684   8.862   8.397 -1.3316 -0.4620  0.1400
68576SOL    HW212844  11.670   8.852   8.547 -1.3995  1.1329  0.2605
68577SOL     OW12845   7.899   3.067   6.086 -0.5481 -0.0962  0.0983
68577SOL    HW112846   7.882   3.089   5.995 -1.5928 -1.3810 -0.0306
68577SOL    HW212847   7.940   2.981   6.083 -2.6263 -1.1761  0.9281
68578SOL     OW12848   5.283   4.385   2.273 -0.6107 -0.0484 -0.4050
68578SOL    HW112849   5.355   4.393   2.336 -0.7606  0.8814 -0.3309
68578SOL    HW212850   5.324   4.354   2.192 -0.1081  0.5467 -0.3838
68579SOL     OW12851   3.234  11.791   4.558  0.2221  0.5174 -0.0763
68579SOL    HW112852   3.169  11.851   4.520  1.2709  1.0319 -1.1107
68579SOL    HW212853   3.310  11.846   4.576  0.3029 -0.0295  1.3625
68580SOL     OW12854  10.204   2.401   6.749 -0.2694  0.2620  0.4296
68580SOL    HW112855  10.161   2.484   6.729  0.9942  0.6109 -0.9991
68580SOL    HW212856  10.293   2.426   6.774  0.8994 -0.7118 -2.3518
68581SOL     OW12857   1.404   8.787   8.885 -0.0378  0.5454  0.2750
68581SOL    HW112858   1.417   8.726   8.957  2.6940 -1.4839 -1.7197
68581SOL    HW212859   1.493   8.811   8.857 -1.0043  2.8291 -1.1566
68582SOL     OW12860   3.501   4.209   0.429 -0.0520 -0.1662 -0.0813
68582SOL    HW112861   3.594   4.196   0.447 -0.2384  0.0351  1.1236
68582SOL    HW212862   3.467   4.121   0.414  0.1490 -0.3464  0.4816
68583SOL     OW12863  12.290   9.686   6.439 -0.0053  0.2569  0.3494
68583SOL    HW112864  12.354   9.656   6.503 -0.1158 -0.7335  0.0215
68583SOL    HW212865  12.320   9.648   6.356  0.3566  1.8359 -0.2662
68584SOL     OW12866   5.605   3.743   7.242 -0.1852 -0.1161 -0.0083
68584SOL    HW112867   5.562   3.792   7.312  0.1360 -2.6394  2.1401
68584SOL    HW212868   5.533   3.703   7.193 -0.3785 -0.5278  0.6034
68585SOL     OW12869   6.391   7.718   7.230  0.2585 -0.5753 -0.2279
68585SOL    HW112870   6.483   7.740   7.214  0.4862 -0.2059  1.3806
68585SOL    HW212871   6.357   7.793   7.278 -0.9746 -0.6064 -1.0199
68586SOL     OW12872   8.302   4.253   1.425 -0.4471 -0.2481  0.3163
68586SOL    HW112873   8.282   4.237   1.333  0.3490  0.5633 -0.0164
68586SOL    HW212874   8.217   4.257   1.468 -0.9289  0.9493 -0.6730
68587SOL     OW12875   6.307   8.691   5.786 -0.0918  0.2031  0.0304
68587SOL    HW112876   6.394   8.652   5.777 -0.4768 -0.3254 -2.1150
68587SOL    HW212877   6.264   8.640   5.854  1.0582  0.0792  0.6927
68588SOL     OW12878   0.827   4.312   1.220  0.0763 -0.5837  0.3738
68588SOL    HW112879   0.861   4.351   1.300 -0.9107  1.4367 -0.1026
68588SOL    HW212880   0.901   4.312   1.160  0.0604  0.8610  0.3192
68589SOL     OW12881   0.825   1.192   6.042  0.8686  0.0071 -0.0841
68589SOL    HW112882   0.765   1.237   6.102 -0.3353 -0.3983 -0.9509
68589SOL    HW212883   0.913   1.214   6.075  0.2564  0.4132  1.3605
68590SOL     OW12884  12.628   3.883  10.512 -0.2424  0.0819 -0.6594
68590SOL    HW112885  12.706   3.856  10.465 -0.8787 -1.0974 -1.0709
68590SOL    HW212886  12.560   3.821  10.485 -1.0003  0.2862  0.6561
68591SOL     OW12887   6.985   8.585   2.169 -0.1547  0.0330 -0.3192
68591SOL    HW112888   6.988   8.532   2.248  0.6434  1.2310  0.4795
68591SOL    HW212889   6.984   8.522   2.097  2.0773 -1.0909  0.5557
68592SOL     OW12890  11.814   5.975  11.491  0.2950  0.9233 -0.2534
68592SOL    HW112891  11.847   5.976  11.581 -0.9352  0.3867  0.2219
68592SOL    HW212892  11.728   5.934  11.498  1.2699 -1.7107 -2.0277
68593SOL     OW12893   5.235   1.371   4.481  0.1687  0.3293  0.1424
68593SOL    HW112894   5.218   1.432   4.552 -2.1807 -0.7393  0.5983
68593SOL    HW212895   5.312   1.321   4.509  0.5005  1.2727  0.9611
68594SOL     OW12896   6.832   0.885  10.894  0.6714 -0.7227  0.2214
68594SOL    HW112897   6.831   0.836  10.976 -0.9499 -0.6253  0.2933
68594SOL    HW212898   6.740   0.888  10.867  0.7425  1.9085 -0.0082
68595SOL     OW12899   6.734   3.014   2.520 -0.6568  0.2710  0.3128
68595SOL    HW112900   6.663   3.024   2.456 -0.6284 -0.1367  0.2154
68595SOL    HW212901   6.729   3.093   2.574 -0.4180  0.8201 -0.4558
68596SOL     OW12902   8.584   8.336   5.714  0.2115  0.1258 -0.4600
68596SOL    HW112903   8.677   8.312   5.704  0.8607  1.5028  1.6632
68596SOL    HW212904   8.571   8.407   5.652  0.3172 -0.6338 -1.3793
68597SOL     OW12905   5.926   9.772  10.973  0.3929  0.7955 -0.0696
68597SOL    HW112906   5.957   9.760  11.062  0.7116 -1.8526 -0.4662
68597SOL    HW212907   5.980   9.843  10.938  2.7592 -0.5049  0.7452
68598SOL     OW12908   4.135   9.574  10.343 -0.2993  0.4783 -0.1281
68598SOL    HW112909   4.053   9.601  10.384 -0.3760  1.7934 -1.0654
68598SOL    HW212910   4.202   9.628  10.385 -0.2379  1.0572 -0.9444
68599SOL     OW12911  11.722  11.401   0.953 -0.3342  0.5242  0.0982
68599SOL    HW112912  11.747  11.441   1.036  0.8817  0.7709 -0.3692
68599SOL    HW212913  11.758  11.460   0.886  0.1372 -0.5261 -0.6046
68600SOL     OW12914   4.561  12.266  10.587 -0.3440 -0.4765  0.5441
68600SOL    HW112915   4.488  12.325  10.604  0.4126  0.3830  0.8695
68600SOL    HW212916   4.563  12.208  10.663 -0.6267 -0.4436  0.5779
68601SOL     OW12917  12.050  12.311  11.090  0.4377  0.0299 -0.4899
68601SOL    HW112918  12.015  12.316  11.001  0.1225 -2.3655 -0.5504
68601SOL    HW212919  12.138  12.274  11.080 -0.4446 -2.4764  0.2950
68602SOL     OW12920   4.819   6.133  11.859 -0.0138 -0.0843  0.0336
68602SOL    HW112921   4.825   6.105  11.950  0.2315  0.1979  0.1088
68602SOL    HW212922   4.867   6.066  11.810  0.3919  0.0925  0.1861
68603SOL     OW12923   1.235   0.971  10.921 -0.0247 -0.5106  0.1186
68603SOL    HW112924   1.291   0.934  10.990  0.5176  0.0874  0.0070
68603SOL    HW212925   1.295   0.993  10.850 -0.3089  0.6310  0.2032
68604SOL     OW12926   8.787   4.235   0.901  0.0916  0.2818 -0.2046
68604SOL    HW112927   8.708   4.221   0.849 -2.0094 -1.4401  3.0965
68604SOL    HW212928   8.809   4.149   0.936  0.8646  1.4216  2.3237
68605SOL     OW12929   7.978   2.858   1.769 -0.1755 -0.4351 -0.2609
68605SOL    HW112930   7.985   2.952   1.784  0.5894 -0.4312 -0.5893
68605SOL    HW212931   8.056   2.836   1.719  0.2290 -1.4486  0.7941
68606SOL     OW12932   5.683  12.849   6.763  0.6365 -0.4858  0.7890
68606SOL    HW112933   5.669  12.761   6.727 -1.1618  0.2992 -0.6383
68606SOL    HW212934   5.629  12.850   6.842 -0.0531 -0.4063  0.3269
68607SOL     OW12935   7.995   3.250   0.159  0.5058  0.6065 -0.5161
68607SOL    HW112936   7.989   3.345   0.159 -1.1633  0.5658 -2.3570
68607SOL    HW212937   7.935   3.222   0.229  1.3874  0.8713  0.3774
68608SOL     OW12938  12.379   2.366   3.768 -0.5705  0.0452  0.2838
68608SOL    HW112939  12.473   2.349   3.770 -0.4552  0.3774 -1.2041
68608SOL    HW212940  12.350   2.351   3.858  1.1754  1.5213  1.1369
68609SOL     OW12941   6.544  11.409   0.290  0.4039  0.2154  0.8306
68609SOL    HW112942   6.507  11.404   0.202  0.3753  0.0390  0.8537
68609SOL    HW212943   6.474  11.380   0.348  0.7328 -0.5781  0.8352
68610SOL     OW12944   2.837   3.292   5.162 -0.1203 -0.3814 -0.5063
68610SOL    HW112945   2.928   3.290   5.133  0.2039 -0.4199  0.4894
68610SOL    HW212946   2.791   3.237   5.098  0.7181 -1.1729 -0.4524
68611SOL     OW12947   3.129  12.453   6.007  0.1273  0.0533 -0.0278
68611SOL    HW112948   3.193  12.495   6.065  0.8824 -1.3545  0.2220
68611SOL    HW212949   3.165  12.365   5.993 -0.9188 -0.1967 -1.2641
68612SOL     OW12950  10.851   8.346  11.428 -0.3211 -0.3271 -0.3752
68612SOL    HW112951  10.882   8.288  11.498  2.0791 -0.3381 -1.3396
68612SOL    HW212952  10.805   8.416  11.473  2.5343  0.5642  1.4700
68613SOL     OW12953   5.186  11.605   0.697  0.0149  0.5340 -0.4498
68613SOL    HW112954   5.127  11.648   0.758 -0.3233  0.0637 -0.4467
68613SOL    HW212955   5.273  11.619   0.734 -0.2145 -0.0389  0.3272
68614SOL     OW12956   3.775   6.915   2.491 -0.0971 -0.5650 -0.0501
68614SOL    HW112957   3.742   6.977   2.426  1.1167  2.2726  1.8196
68614SOL    HW212958   3.700   6.896   2.547 -0.9662 -2.4659 -1.7334
68615SOL     OW12959   6.204   3.602   9.837 -0.2062 -0.1969 -0.2701
68615SOL    HW112960   6.186   3.692   9.864 -2.2890 -0.9375  1.0833
68615SOL    HW212961   6.265   3.569   9.903 -2.5372 -0.9063  1.6906
68616SOL     OW12962   0.934   9.941   2.784  0.0698  0.2436 -0.4086
68616SOL    HW112963   0.855   9.947   2.731 -0.1861  0.6168  0.0029
68616SOL    HW212964   0.997   9.894   2.729 -0.3698  0.1277 -0.8167
68617SOL     OW12965   1.985  10.475  12.695  0.3004  0.1226 -0.3167
68617SOL    HW112966   2.059  10.476  12.755  0.8768  1.6539 -1.0079
68617SOL    HW212967   1.916  10.523  12.741  0.1225 -0.2932 -0.1460
68618SOL     OW12968  10.158   6.853   1.899  0.1097  0.1047  1.0035
68618SOL    HW112969  10.224   6.809   1.952 -0.6339 -1.1490  0.9466
68618SOL    HW212970  10.076   6.839   1.947 -0.1159  1.7136  1.1304
68619SOL     OW12971  10.979   8.163   6.735  0.0390 -0.2737  0.2587
68619SOL    HW112972  10.890   8.160   6.769 -0.4418 -0.8013 -0.9620
68619SOL    HW212973  11.024   8.229   6.789 -1.5411  1.1970 -0.1238
68620SOL     OW12974   9.614   1.870   8.386  0.0114 -0.6266 -0.6352
68620SOL    HW112975   9.575   1.950   8.350 -0.5317 -0.8470 -0.5440
68620SOL    HW212976   9.591   1.802   8.323 -0.2965 -0.8730 -0.2677
68621SOL     OW12977   3.765   0.756  11.628 -0.0153 -0.3143 -0.3163
68621SOL    HW112978   3.719   0.839  11.619  3.1773  1.8508  1.3721
68621SOL    HW212979   3.746   0.727  11.716  0.6163 -0.1645 -0.1219
68622SOL     OW12980   5.256   3.240   5.044 -0.1764  0.1563  0.6403
68622SOL    HW112981   5.168   3.269   5.067 -0.1841  0.7455 -0.0906
68622SOL    HW212982   5.286   3.303   4.979 -1.6149 -3.3144 -3.9912
68623SOL     OW12983  12.481   9.272   9.262  0.1004  0.3438  0.3947
68623SOL    HW112984  12.466   9.328   9.185  1.7727 -0.0515 -0.2664
68623SOL    HW212985  12.420   9.305   9.328 -0.0673  1.9188 -0.4932
68624SOL     OW12986   1.098   7.279  12.927 -0.0776 -0.0736 -0.0954
68624SOL    HW112987   1.142   7.268  12.843  0.5063  1.0861  0.0446
68624SOL    HW212988   1.016   7.232  12.917  0.4783 -0.9102 -0.9200
68625SOL     OW12989   7.475   0.604   1.587  0.3821  0.1008  0.2017
68625SOL    HW112990   7.414   0.541   1.626 -1.9205  1.2562 -1.3386
68625SOL    HW212991   7.522   0.554   1.521 -1.1876 -0.1444 -0.7789
68626SOL     OW12992   7.874  11.149   9.604 -0.3059  0.1423 -0.0912
68626SOL    HW112993   7.838  11.196   9.529 -0.8897  0.2595  0.2584
68626SOL    HW212994   7.897  11.063   9.569 -1.5122 -0.1584 -0.1902
68627SOL     OW12995   9.993  11.856   5.095 -0.1988 -0.2463  0.4179
68627SOL    HW112996   9.939  11.828   5.021 -0.9598  0.3301  0.7440
68627SOL    HW212997  10.068  11.797   5.094 -0.3035 -0.3745 -0.6924
68628SOL     OW12998   6.967   2.103   4.592  0.2762 -0.5153  0.1938
68628SOL    HW112999   6.992   2.175   4.650 -0.2770  0.3868 -0.6508
68628SOL    HW213000   6.879   2.126   4.563  0.4987 -1.0010 -0.9019
68629SOL     OW13001   9.250   1.917   3.168 -0.1935 -0.2605 -0.2587
68629SOL    HW113002   9.207   1.997   3.138  1.1116  0.6852  0.3189
68629SOL    HW213003   9.274   1.872   3.088 -1.2677 -0.2859 -0.5914
68630SOL     OW13004  10.612   7.495   0.696 -0.5546  0.3200 -0.3788
68630SOL    HW113005  10.659   7.495   0.613  1.5808  0.1541  0.7584
68630SOL    HW213006  10.607   7.403   0.721  0.3069  0.4762  0.4361
68631SOL     OW13007   6.108   4.078   8.365  0.9872  0.6370 -0.1852
68631SOL    HW113008   6.103   4.003   8.306  2.0921  0.2615  0.1756
68631SOL    HW213009   6.199   4.105   8.362  0.6189  1.9565 -0.2795
68632SOL     OW13010   3.988   2.292   8.783  0.4104 -0.4161 -0.6284
68632SOL    HW113011   4.045   2.347   8.837  0.7092  0.8631 -2.1555
68632SOL    HW213012   3.975   2.213   8.835  2.5588 -0.2331  0.3099
68633SOL     OW13013   9.009   2.335  11.406  0.1749 -0.5413 -0.4037
68633SOL    HW113014   8.951   2.332  11.482  0.6661 -1.0171 -0.0460
68633SOL    HW213015   8.955   2.375  11.337  0.3836  1.9441  0.7626
68634SOL     OW13016   1.467   1.360   4.972 -0.4607  0.2057  0.0712
68634SOL    HW113017   1.421   1.342   4.890  1.5357 -0.7658 -0.9215
68634SOL    HW213018   1.466   1.276   5.018  0.1201  0.2270  0.1273
68635SOL     OW13019   1.277   5.486  11.826  0.3364 -0.1208  0.5219
68635SOL    HW113020   1.360   5.525  11.855  1.5326 -0.7522 -1.8153
68635SOL    HW213021   1.262   5.523  11.739 -0.0929 -2.4704 -0.4725
68636SOL     OW13022  10.097  10.134   9.492  0.3184 -0.4433 -0.3266
68636SOL    HW113023  10.135  10.139   9.580  0.5112 -0.9129 -0.3764
68636SOL    HW213024  10.148  10.065   9.449  1.0303  0.5949 -1.2141
68637SOL     OW13025   3.715   5.528   8.820  0.5260  0.2083 -0.2315
68637SOL    HW113026   3.674   5.555   8.738 -0.5870  0.2485  0.3164
68637SOL    HW213027   3.803   5.500   8.795  0.0639 -0.1769 -1.4890
68638SOL     OW13028  12.427   3.465   2.016 -0.6670 -0.2977 -0.0132
68638SOL    HW113029  12.429   3.549   2.063 -1.5185  0.7302 -1.7387
68638SOL    HW213030  12.453   3.401   2.083  1.0368  1.4144  1.1034
68639SOL     OW13031   4.105   1.912   0.208  0.3822  0.3444 -0.1236
68639SOL    HW113032   4.167   1.970   0.163  1.4513 -0.7622 -0.1303
68639SOL    HW213033   4.143   1.825   0.198 -2.0985 -0.6651 -1.7365
68640SOL     OW13034   6.767   0.088   2.468 -0.0120 -0.2672 -0.8302
68640SOL    HW113035   6.783   0.111   2.559  0.4630 -0.2672 -0.9121
68640SOL    HW213036   6.698   0.021   2.472 -0.4230  0.1708 -0.5128
68641SOL     OW13037   4.243  12.171  10.258  0.3234 -0.3954 -0.2455
68641SOL    HW113038   4.167  12.115  10.276  0.3897 -0.3141  0.2946
68641SOL    HW213039   4.318  12.121  10.290  0.3251  0.2400  0.7938
68642SOL     OW13040   6.789  11.272   5.705 -0.2681  0.0759  0.0597
68642SOL    HW113041   6.826  11.195   5.749 -0.0320  0.1925  0.0706
68642SOL    HW213042   6.821  11.346   5.757 -2.7313  0.0895  1.7214
68643SOL     OW13043  12.324  12.268  11.314  0.0972  0.3085 -0.8757
68643SOL    HW113044  12.370  12.185  11.302 -0.2300  0.1044 -0.7415
68643SOL    HW213045  12.392  12.335  11.305  0.5003 -0.0054 -0.2361
68644SOL     OW13046  12.397   7.919   7.181  0.2857 -0.2046 -0.5315
68644SOL    HW113047  12.419   7.919   7.087 -1.0891  0.4986 -0.8806
68644SOL    HW213048  12.352   8.002   7.195  2.0120  0.5311  1.1783
68645SOL     OW13049   1.416   6.514  11.759 -0.6832  0.2694  0.1176
68645SOL    HW113050   1.420   6.520  11.663  1.4266 -0.5015  0.1043
68645SOL    HW213051   1.348   6.449  11.776 -0.4332 -0.2822 -0.9094
68646SOL     OW13052   8.311   1.078   2.862 -0.4332  0.0701 -0.1684
68646SOL    HW113053   8.327   1.167   2.894 -1.9871  1.0857 -2.0162
68646SOL    HW213054   8.216   1.072   2.855 -0.3637 -1.8201  0.0346
68647SOL     OW13055  11.265  12.624   7.056 -0.1613 -0.1874 -0.1520
68647SOL    HW113056  11.260  12.535   7.020  0.0127 -0.7540  1.1640
68647SOL    HW213057  11.206  12.675   7.001  0.7796 -0.7887 -1.8063
68648SOL     OW13058  11.567   1.094   4.829  0.1043 -0.2926  0.2594
68648SOL    HW113059  11.570   1.059   4.918 -2.9920 -2.7060 -0.3929
68648SOL    HW213060  11.485   1.143   4.826  0.2195 -0.1514 -1.2048
68649SOL     OW13061  10.007  10.005   9.143 -0.1778 -0.0548  0.5544
68649SOL    HW113062   9.997  10.100   9.149 -0.9095 -0.1041  0.2367
68649SOL    HW213063   9.926   9.970   9.179 -0.2759 -0.5411 -0.1072
68650SOL     OW13064   5.481   7.310   8.822  0.6979  0.3706  0.9140
68650SOL    HW113065   5.531   7.387   8.794  1.0171  0.3844  1.5201
68650SOL    HW213066   5.397   7.319   8.777  0.9872  0.7004  0.4231
68651SOL     OW13067  11.791  12.706   1.349  0.7086 -0.4382  0.0698
68651SOL    HW113068  11.887  12.710   1.354  0.7788 -2.0974  0.5052
68651SOL    HW213069  11.766  12.644   1.417 -0.7716  0.6558  0.5618
68652SOL     OW13070   9.895   0.544   2.204  0.4422 -0.5636 -0.2455
68652SOL    HW113071   9.901   0.453   2.174  1.1931 -1.0330  1.2322
68652SOL    HW213072   9.829   0.543   2.272 -1.1988  0.4818 -1.7380
68653SOL     OW13073  11.667   5.148  10.288  0.1357  0.2206 -0.2802
68653SOL    HW113074  11.694   5.197  10.209 -2.1762  1.1119 -0.6087
68653SOL    HW213075  11.579   5.118  10.268  0.0086 -0.6968  1.4870
68654SOL     OW13076   9.277  10.167  12.006  0.0125  0.6053  0.5633
68654SOL    HW113077   9.292  10.231  12.076  0.9869  1.0100  0.0179
68654SOL    HW213078   9.232  10.217  11.938 -1.3583  0.0931  1.0749
68655SOL     OW13079  10.845  11.681   8.830 -0.2478 -0.1798  0.0549
68655SOL    HW113080  10.853  11.726   8.745  0.3062  0.1937  0.2960
68655SOL    HW213081  10.765  11.715   8.868 -0.3475 -0.1347 -0.1917
68656SOL     OW13082   5.075  11.023   2.908 -0.0205  0.3118  0.2562
68656SOL    HW113083   5.140  10.969   2.954  2.6144  0.9314 -2.4259
68656SOL    HW213084   5.075  11.106   2.955  1.9591  0.6391 -0.2502
68657SOL     OW13085  12.103   3.684   9.701 -0.2703 -0.2124 -0.1614
68657SOL    HW113086  12.025   3.673   9.647  1.0584 -0.6143 -2.0738
68657SOL    HW213087  12.142   3.766   9.671  0.5916 -0.5285  0.0561
68658SOL     OW13088   8.303   6.327  11.986 -0.3060 -0.3711 -0.3627
68658SOL    HW113089   8.388   6.330  12.030  0.7292 -0.8232 -2.2340
68658SOL    HW213090   8.255   6.402  12.022 -0.2404 -1.6760  2.7946
68659SOL     OW13091   9.879   6.526   5.438 -0.4212 -0.0841  0.2216
68659SOL    HW113092   9.939   6.511   5.511 -0.9705 -0.2743  0.6381
68659SOL    HW213093   9.893   6.452   5.380  1.0874  0.7990 -0.6256
68660SOL     OW13094   4.755   6.595   7.449  0.0973  0.4592  0.2910
68660SOL    HW113095   4.785   6.568   7.363 -0.1986 -2.2945  0.9605
68660SOL    HW213096   4.791   6.683   7.461  0.4301  0.7692 -2.4561
68661SOL     OW13097  10.043   5.991   0.068  0.4603  0.1172  0.0614
68661SOL    HW113098  10.017   5.954  -0.017  3.0163  0.9299 -1.1648
68661SOL    HW213099  10.029   5.920   0.130  0.8535 -1.3507 -1.4492
68662SOL     OW13100   4.394  12.333  11.319 -0.7775  0.8235 -0.4856
68662SOL    HW113101   4.415  12.242  11.298  2.4682  1.5267 -0.6998
68662SOL    HW213102   4.340  12.326  11.398 -0.7351 -1.2826 -0.5708
68663SOL     OW13103   0.260   8.230   4.140  0.2698 -0.3622 -0.0994
68663SOL    HW113104   0.311   8.149   4.144 -0.2027 -0.6677 -0.2305
68663SOL    HW213105   0.326   8.299   4.135  0.6754 -0.7630 -0.4414
68664SOL     OW13106   3.198   1.745   3.379 -0.7557  0.2837  0.1220
68664SOL    HW113107   3.210   1.837   3.400  1.1502  0.0301  0.2951
68664SOL    HW213108   3.286   1.713   3.358 -1.3994 -1.4520 -0.1050
68665SOL     OW13109   8.923   9.951   2.935  0.6524  0.0200 -0.0804
68665SOL    HW113110   8.845  10.006   2.923  0.8665  0.9629  2.2603
68665SOL    HW213111   8.890   9.861   2.931 -0.1581  0.3368 -1.2195
68666SOL     OW13112   8.727   9.545  11.995  0.2994  0.2197  0.0107
68666SOL    HW113113   8.713   9.633  11.962  0.9246 -0.0551 -1.0558
68666SOL    HW213114   8.798   9.554  12.058  2.4098  0.1350 -2.1761
68667SOL     OW13115   1.808   3.679   5.369 -0.4498 -0.0742  0.0851
68667SOL    HW113116   1.728   3.726   5.347  0.3916  1.1112 -0.5718
68667SOL    HW213117   1.873   3.711   5.305  0.8057 -0.2385  1.2348
68668SOL     OW13118   7.946  11.130   7.339  0.5143  0.1805  0.1788
68668SOL    HW113119   7.947  11.184   7.260  1.2462  0.6398  0.4847
68668SOL    HW213120   8.012  11.063   7.324 -0.6884 -0.9069 -0.3703
68669SOL     OW13121  10.275   3.616   8.824 -0.4442  0.9381 -0.3972
68669SOL    HW113122  10.191   3.601   8.780 -1.3060 -0.0010  1.4578
68669SOL    HW213123  10.276   3.552   8.896  1.1534  1.9920  0.5745
68670SOL     OW13124  12.922   5.155  11.961  0.0583 -0.1897 -0.0210
68670SOL    HW113125  12.856   5.171  12.029  0.2366  2.0093 -0.2734
68670SOL    HW213126  12.984   5.228  11.971 -0.6043  1.0097 -3.2912
68671SOL     OW13127   0.339   4.422  10.667  0.2872 -0.0714  0.4132
68671SOL    HW113128   0.296   4.371  10.735  0.4739 -0.8746 -0.0636
68671SOL    HW213129   0.388   4.358  10.616 -0.0709  0.4752 -0.6490
68672SOL     OW13130   4.846   3.896   5.051 -0.1827 -0.0509  0.0946
68672SOL    HW113131   4.837   3.801   5.052  2.0518 -0.3214  1.6447
68672SOL    HW213132   4.796   3.925   5.127  1.2053 -0.2906  1.1414
68673SOL     OW13133   6.931   3.673   3.017 -0.1156 -0.0342 -0.0527
68673SOL    HW113134   6.985   3.606   3.058 -0.4549 -0.0499  0.3692
68673SOL    HW213135   6.979   3.696   2.937 -0.8279 -1.9933 -1.1156
68674SOL     OW13136   9.476  11.258   0.104  0.2780 -0.2489  0.1697
68674SOL    HW113137   9.401  11.202   0.081  1.9539 -1.4123 -3.0571
68674SOL    HW213138   9.449  11.346   0.079 -0.4141 -0.4751  0.1006
68675SOL     OW13139   8.433   8.419   6.985 -0.0361 -0.6244 -0.2116
68675SOL    HW113140   8.355   8.368   7.005  0.5008 -0.7288  1.8988
68675SOL    HW213141   8.471   8.377   6.908 -1.0138 -1.7855 -0.0759
68676SOL     OW13142   5.094   4.090   4.388  0.5953 -0.5957  0.3353
68676SOL    HW113143   5.086   4.009   4.337 -0.4931 -0.2281 -0.0835
68676SOL    HW213144   5.084   4.160   4.324 -0.2723 -0.1283  0.9744
68677SOL     OW13145   2.132   8.588   9.797  0.4041  0.0791  0.1250
68677SOL    HW113146   2.079   8.615   9.872 -2.2702 -0.6173 -1.4042
68677SOL    HW213147   2.195   8.659   9.786  0.5751  0.4313  2.6658
68678SOL     OW13148   5.239   8.313  12.646 -0.4782 -0.0048  0.5682
68678SOL    HW113149   5.271   8.233  12.690 -0.6794 -0.7053 -0.5293
68678SOL    HW213150   5.260   8.300  12.554 -1.3111  0.8288  0.2458
68679SOL     OW13151  12.100  11.791   1.718 -0.5908  0.0443 -0.4920
68679SOL    HW113152  12.130  11.876   1.750 -1.6597  0.0843  0.4642
68679SOL    HW213153  12.027  11.768   1.776 -1.6918 -0.5491 -2.0449
68680SOL     OW13154   4.870   3.154   5.254  0.1521 -0.4876 -0.0543
68680SOL    HW113155   4.781   3.139   5.284 -0.3032  0.8677 -0.6298
68680SOL    HW213156   4.899   3.070   5.219 -2.4470 -0.1018 -3.7541
68681SOL     OW13157   1.080   2.718   3.599  0.2838 -0.2140  0.0748
68681SOL    HW113158   1.058   2.645   3.657  1.0904 -0.2479  0.3606
68681SOL    HW213159   1.005   2.777   3.605 -0.9742 -1.6370 -1.2116
68682SOL     OW13160   7.162   0.361   3.074 -0.3452  0.3682 -0.1668
68682SOL    HW113161   7.067   0.346   3.076 -0.4573 -0.0392 -3.3329
68682SOL    HW213162   7.200   0.275   3.061  0.6200  0.4060  1.9280
68683SOL     OW13163   9.178   4.631   3.664  0.1106 -0.3094  0.1673
68683SOL    HW113164   9.092   4.593   3.677 -0.4686  0.5726 -0.9303
68683SOL    HW213165   9.215   4.584   3.589  0.5896 -0.6754  0.6233
68684SOL     OW13166  11.075   2.963   1.309 -0.7516  0.1153 -0.5162
68684SOL    HW113167  11.140   2.921   1.366 -1.8347 -0.2929  0.4666
68684SOL    HW213168  10.992   2.952   1.356 -1.6283  0.0961 -2.0148
68685SOL     OW13169   7.264  12.335   2.574  0.2772  0.2552  0.2479
68685SOL    HW113170   7.185  12.304   2.618  0.2683 -0.1479 -0.0506
68685SOL    HW213171   7.305  12.394   2.637  1.1614 -1.6149  1.5174
68686SOL     OW13172   7.085   3.062   7.358 -0.3389 -0.2004  0.8342
68686SOL    HW113173   7.026   3.028   7.425 -2.5478 -0.5560 -1.1362
68686SOL    HW213174   7.030   3.123   7.307  0.8963 -0.7551 -1.2904
68687SOL     OW13175   8.488  12.752   1.465 -0.6532  0.2999  0.5975
68687SOL    HW113176   8.399  12.748   1.500  0.0426 -1.1876  2.3493
68687SOL    HW213177   8.531  12.674   1.499  1.9446  2.0216  1.5691
68688SOL     OW13178   4.489   9.631   2.302  0.0282  0.3440 -0.5856
68688SOL    HW113179   4.573   9.668   2.275 -0.9992  1.0907 -3.0205
68688SOL    HW213180   4.437   9.708   2.329  0.6101 -0.2525  2.7747
68689SOL     OW13181  12.124   7.728   2.032  0.5810 -0.3719 -0.6463
68689SOL    HW113182  12.050   7.669   2.041 -0.6960  1.0350 -1.4038
68689SOL    HW213183  12.173   7.695   1.957 -0.2624 -0.3467 -1.2236
68690SOL     OW13184  12.278   4.151   5.747  0.5974 -0.2624  0.4417
68690SOL    HW113185  12.318   4.160   5.661  0.1775  1.6943  0.4095
68690SOL    HW213186  12.343   4.187   5.807 -0.1813  0.8368  0.6372
68691SOL     OW13187   4.114   9.186   8.709  0.0150 -0.7997 -0.8240
68691SOL    HW113188   4.136   9.157   8.797 -1.0730  0.8857  0.0561
68691SOL    HW213189   4.018   9.188   8.709  0.0055  2.1298 -0.9878
68692SOL     OW13190   7.652   2.642   5.134  0.1317 -0.6004  0.1124
68692SOL    HW113191   7.690   2.729   5.147  1.2899 -0.5613 -2.8896
68692SOL    HW213192   7.633   2.612   5.223  1.5109  1.9102  1.3817
68693SOL     OW13193  11.394  10.895   0.729 -0.6345  0.2287 -0.0216
68693SOL    HW113194  11.326  10.852   0.678 -1.0559 -0.3769  1.0206
68693SOL    HW213195  11.379  10.989   0.716 -1.0064  0.0867 -0.6330
68694SOL     OW13196   6.254   6.928   6.617  0.6138 -0.2646  0.0078
68694SOL    HW113197   6.311   6.879   6.557  2.9514  2.2690 -0.0409
68694SOL    HW213198   6.313   6.987   6.663 -1.6415  0.4519  2.1794
68695SOL     OW13199  10.098   4.578   6.241 -0.5278 -0.2143  0.4668
68695SOL    HW113200  10.140   4.552   6.324 -1.2715 -0.3037  0.8234
68695SOL    HW213201  10.136   4.520   6.176  0.3200  0.0776  0.6828
68696SOL     OW13202   8.333  10.914   5.796 -0.7077 -0.4209  0.2488
68696SOL    HW113203   8.336  10.963   5.878 -0.5241  0.4720 -0.2818
68696SOL    HW213204   8.298  10.975   5.732  0.9749 -0.4514 -0.7685
68697SOL     OW13205   7.004   2.710  10.624  0.4524 -0.4703 -0.0310
68697SOL    HW113206   6.957   2.627  10.627 -0.9066  0.2424 -0.7211
68697SOL    HW213207   7.066   2.700  10.551  0.8650 -1.1382  0.3972
68698SOL     OW13208  11.115   5.428   2.571 -0.3239  0.3419  0.3093
68698SOL    HW113209  11.029   5.469   2.561 -0.5508 -0.4894 -1.5574
68698SOL    HW213210  11.169   5.469   2.504  0.6606  0.5826  1.2179
68699SOL     OW13211   9.466   4.578   0.210  0.0864  0.0557 -0.0321
68699SOL    HW113212   9.530   4.521   0.253  2.1779  2.7785  0.7509
68699SOL    HW213213   9.435   4.637   0.279 -0.9379  0.7776 -1.0607
68700SOL     OW13214  11.705   7.503   7.305  0.0505 -0.4176  0.0869
68700SOL    HW113215  11.772   7.478   7.241 -0.6600 -1.2678 -0.3562
68700SOL    HW213216  11.634   7.540   7.252 -0.1524 -0.2521  0.4719
68701SOL     OW13217   1.588   8.167   5.561  0.4110  0.5176  0.1205
68701SOL    HW113218   1.634   8.103   5.507  0.4673  1.0333 -0.4562
68701SOL    HW213219   1.595   8.134   5.650 -2.3342 -2.0408 -0.4485
68702SOL     OW13220  11.531   2.234   1.472  0.4244 -0.4997 -0.1300
68702SOL    HW113221  11.551   2.156   1.524 -1.2054 -0.2296  0.9754
68702SOL    HW213222  11.530   2.306   1.536  2.0332  0.5015 -1.1445
68703SOL     OW13223   9.327   0.832   0.172  0.2346 -0.1405 -0.4143
68703SOL    HW113224   9.406   0.790   0.139 -0.5258 -0.3966 -1.9631
68703SOL    HW213225   9.359   0.898   0.234  1.7109  0.2669 -1.5608
68704SOL     OW13226   6.548   8.290   4.718  0.0134 -0.0243  0.2114
68704SOL    HW113227   6.619   8.351   4.697  0.9492 -0.7943  0.9954
68704SOL    HW213228   6.526   8.249   4.635  0.1027  0.6182 -0.1343
68705SOL     OW13229   1.742   4.469   1.158 -0.3250  0.4139  0.2404
68705SOL    HW113230   1.824   4.501   1.195  0.1215 -1.6297  1.1461
68705SOL    HW213231   1.762   4.382   1.124 -2.1618 -0.2354  0.6761
68706SOL     OW13232   2.787   4.460  12.781 -0.6403  0.4017 -0.5954
68706SOL    HW113233   2.820   4.538  12.825  0.6385 -0.3670 -0.1156
68706SOL    HW213234   2.865   4.406  12.767 -1.3921 -0.4887 -1.5438
68707SOL     OW13235   5.084   2.804   2.015  0.2819  0.2729  0.6157
68707SOL    HW113236   5.023   2.764   2.077  0.5167  0.1045  0.7375
68707SOL    HW213237   5.134   2.866   2.068  0.7985 -0.2044  0.6892
68708SOL     OW13238  10.295   9.807   7.772 -0.2032 -0.5819  0.6069
68708SOL    HW113239  10.233   9.761   7.715  0.7653 -0.6840 -0.3887
68708SOL    HW213240  10.247   9.818   7.854 -1.1875 -1.5487  0.1987
68709SOL     OW13241   9.181   3.209   0.777  0.1872  0.1083 -0.1254
68709SOL    HW113242   9.220   3.295   0.795 -0.0494 -0.1392  1.8732
68709SOL    HW213243   9.247   3.147   0.807 -0.9355 -0.3261  1.6145
68710SOL     OW13244  12.120   8.021  10.799  0.2860 -0.4830  0.1296
68710SOL    HW113245  12.137   7.985  10.886 -0.5679  1.0659  0.9776
68710SOL    HW213246  12.047   7.970  10.766 -0.1904 -0.2836  0.8478
68711SOL     OW13247   7.628   1.834   3.127 -0.2202  0.6297 -0.0632
68711SOL    HW113248   7.557   1.865   3.070 -0.7182  0.8527  0.6610
68711SOL    HW213249   7.708   1.870   3.088 -0.5337  0.6279 -0.7206
68712SOL     OW13250   1.247   7.394   8.131 -0.0788 -0.7637 -0.3990
68712SOL    HW113251   1.288   7.307   8.137 -1.0641 -1.1624  0.9781
68712SOL    HW213252   1.316   7.454   8.157  0.2272 -1.2532 -0.0504
68713SOL     OW13253   9.848   5.822   8.581 -0.1159 -0.0911  0.1839
68713SOL    HW113254   9.791   5.891   8.548  0.8887  0.3069 -0.7565
68713SOL    HW213255   9.856   5.841   8.675 -2.1667 -0.6390  0.5178
68714SOL     OW13256  10.407   9.915  11.859 -0.3077 -0.3731  0.8508
68714SOL    HW113257  10.396   9.911  11.764 -0.3329 -1.6971  0.8958
68714SOL    HW213258  10.497   9.947  11.871 -1.0203  2.0049  0.4365
68715SOL     OW13259   8.954   0.907   7.326  0.2064  0.7148  0.5238
68715SOL    HW113260   8.921   0.911   7.416 -0.9614 -0.9640  0.2354
68715SOL    HW213261   8.891   0.958   7.275 -2.0513 -2.2749  0.0138
68716SOL     OW13262   9.035  12.470   1.732 -0.4186 -0.4317 -0.3920
68716SOL    HW113263   9.012  12.385   1.694 -2.5559 -0.3301  0.5091
68716SOL    HW213264   9.043  12.452   1.826  0.9209  0.0423 -0.4037
68717SOL     OW13265   1.827  12.060   9.945  0.4122 -0.2939  0.2558
68717SOL    HW113266   1.800  11.987  10.000  4.5018 -1.6235  0.8132
68717SOL    HW213267   1.861  12.126  10.005  0.1856  0.5167 -0.4658
68718SOL     OW13268  12.029   8.704  11.048 -0.0191  0.2300  0.3249
68718SOL    HW113269  12.091   8.706  10.975  0.5606 -0.9335  0.7722
68718SOL    HW213270  12.044   8.787  11.094  0.4364  0.4445 -0.1933
68719SOL     OW13271   7.331   7.140   3.284  0.1214  0.6636 -0.1369
68719SOL    HW113272   7.423   7.157   3.301 -0.1972  2.1544  0.2860
68719SOL    HW213273   7.284   7.197   3.345 -1.0670  1.6151 -1.8449
68720SOL     OW13274   9.606  10.616   9.032  0.4445  0.1204  0.0840
68720SOL    HW113275   9.583  10.526   9.009  0.2581 -0.3733  1.9923
68720SOL    HW213276   9.625  10.658   8.949 -2.6638 -0.7665 -1.2130
68721SOL     OW13277   5.494   6.911   3.762  0.2633 -0.6085  0.0890
68721SOL    HW113278   5.434   6.858   3.815 -1.0086  1.3996  0.7743
68721SOL    HW213279   5.541   6.847   3.708 -0.0894 -2.5410  1.9185
68722SOL     OW13280   9.298   1.449   9.934 -0.0061 -0.1740 -0.3365
68722SOL    HW113281   9.295   1.390   9.859 -1.2974  0.6090 -0.9310
68722SOL    HW213282   9.295   1.536   9.897  2.7076  0.3474  0.4968
68723SOL     OW13283  10.055  11.303   6.456  0.4953 -0.0526  0.8076
68723SOL    HW113284  10.071  11.209   6.455  1.3220  0.0452 -1.8639
68723SOL    HW213285   9.975  11.313   6.509 -0.6102 -2.4398 -0.2770
68724SOL     OW13286  11.236  10.107   5.329  0.3046 -0.0839 -0.1233
68724SOL    HW113287  11.279  10.142   5.250 -0.3476  0.5899 -0.1977
68724SOL    HW213288  11.253  10.174   5.396 -1.1854  0.5388 -0.3346
68725SOL     OW13289   0.781   7.418   6.264 -0.3609  0.2520  0.5002
68725SOL    HW113290   0.803   7.327   6.285  1.4904  0.5895  0.1605
68725SOL    HW213291   0.835   7.471   6.322  1.0093  1.1416 -1.4671
68726SOL     OW13292   8.114   2.001   4.455  0.3694  0.3880  0.2538
68726SOL    HW113293   8.126   2.078   4.399  2.1771 -1.5929 -2.3325
68726SOL    HW213294   8.052   1.946   4.408  1.0889 -0.8701  0.7167
68727SOL     OW13295  12.763   9.888   9.774 -0.3149 -0.1536 -0.5406
68727SOL    HW113296  12.731   9.971   9.738  0.5739  0.8278  0.8207
68727SOL    HW213297  12.701   9.823   9.742 -1.0322  1.0185 -1.6618
68728SOL     OW13298   9.385   1.484  11.812 -0.3012  0.5315 -0.0775
68728SOL    HW113299   9.305   1.513  11.856 -0.9883 -1.3413 -0.0044
68728SOL    HW213300   9.402   1.398  11.849  1.6545  0.7991 -0.2617
68729SOL     OW13301   8.080   8.136   5.770  0.0686  0.5237 -0.8114
68729SOL    HW113302   8.167   8.166   5.745 -0.2806  1.2001 -1.2633
68729SOL    HW213303   8.021   8.204   5.737 -0.5669  0.5007  0.2233
68730SOL     OW13304   7.834   5.541   1.350  0.3364 -0.1993  0.3122
68730SOL    HW113305   7.754   5.577   1.389 -0.3876 -0.9345 -0.4579
68730SOL    HW213306   7.904   5.598   1.383 -0.7299  1.8100 -0.6926
68731SOL     OW13307  11.972   5.335   0.106 -0.1325 -0.3950 -0.6096
68731SOL    HW113308  11.940   5.269   0.045 -1.8006  1.3285 -1.7099
68731SOL    HW213309  11.899   5.351   0.165 -0.4870  1.7110 -1.5139
68732SOL     OW13310   6.002   0.456   3.196 -0.0499  0.4628 -0.0179
68732SOL    HW113311   5.974   0.426   3.110  0.6135  1.0167 -0.4323
68732SOL    HW213312   6.041   0.542   3.180 -2.4854  1.9103  1.2145
68733SOL     OW13313   3.688   9.644  10.940  0.2975 -0.1940 -0.3451
68733SOL    HW113314   3.773   9.661  10.900  0.6331 -0.4963  0.2280
68733SOL    HW213315   3.697   9.555  10.976  0.2755  0.3730  1.1007
68734SOL     OW13316   4.748   5.928   9.250 -0.1738  0.1571  0.2461
68734SOL    HW113317   4.773   5.838   9.234  1.3529  0.2327  1.8982
68734SOL    HW213318   4.675   5.922   9.312 -0.3499  0.0425  0.0258
68735SOL     OW13319   9.890   3.503   3.333 -0.5642 -0.0547 -0.0344
68735SOL    HW113320   9.827   3.524   3.264  0.1568  1.3271 -0.3242
68735SOL    HW213321   9.891   3.408   3.338 -1.9027 -0.1176 -0.7370
68736SOL     OW13322   4.933   2.557   7.735  0.1778  0.2958 -0.3860
68736SOL    HW113323   4.910   2.629   7.794 -2.5216 -0.6999 -0.1030
68736SOL    HW213324   4.917   2.478   7.787 -0.8496 -0.5754 -1.9558
68737SOL     OW13325  10.628   1.032  12.701  0.1307  0.2677  0.4692
68737SOL    HW113326  10.588   0.997  12.621  0.8989  1.6114 -0.5580
68737SOL    HW213327  10.684   0.961  12.733  0.3904 -0.0433 -0.6325
68738SOL     OW13328   2.525  10.307   9.161 -0.0136 -0.3387  0.2675
68738SOL    HW113329   2.507  10.216   9.136 -1.9569 -0.1820  0.9950
68738SOL    HW213330   2.585  10.299   9.236  1.1621 -0.9410 -0.6934
68739SOL     OW13331   8.248   1.661  12.144 -0.5824 -0.6073  0.1101
68739SOL    HW113332   8.229   1.722  12.073 -0.6960 -1.1764 -0.3446
68739SOL    HW213333   8.334   1.689  12.177 -1.9197  1.7245  1.9197
68740SOL     OW13334   4.485   0.854   0.774  0.0319 -0.5826 -0.0729
68740SOL    HW113335   4.507   0.914   0.845 -1.8286  0.4690 -0.3156
68740SOL    HW213336   4.473   0.770   0.817  0.5582 -0.3214  0.6052
68741SOL     OW13337   4.153   2.700  11.471  0.5309 -0.3585 -0.0984
68741SOL    HW113338   4.093   2.657  11.532 -0.0988 -1.8076 -1.6761
68741SOL    HW213339   4.220   2.634  11.452 -0.9847 -1.1632 -3.3407
68742SOL     OW13340   6.742   4.671   3.099  0.0043  0.5658  0.1501
68742SOL    HW113341   6.693   4.660   3.018 -0.4732  0.7967  0.4048
68742SOL    HW213342   6.762   4.581   3.127  2.7598  0.4752 -1.7503
68743SOL     OW13343  12.309   6.797  11.228 -0.4072 -0.4080 -0.3017
68743SOL    HW113344  12.333   6.846  11.149 -0.4752  0.9638  0.5147
68743SOL    HW213345  12.343   6.709  11.212 -0.7174 -0.2652 -2.0105
68744SOL     OW13346   3.731   7.687   9.039  0.7983 -0.4600 -0.7340
68744SOL    HW113347   3.701   7.777   9.026  1.4110 -0.2921 -1.0157
68744SOL    HW213348   3.651   7.635   9.043  0.3057  0.3792  1.7088
68745SOL     OW13349   1.695   3.049  10.787 -0.1953  0.5274 -0.2797
68745SOL    HW113350   1.705   3.060  10.692 -0.4730  1.6985 -0.1927
68745SOL    HW213351   1.763   2.986  10.812 -1.1179 -1.0230 -1.4755
68746SOL     OW13352   1.477   9.247   7.616 -0.2351  0.0031  0.2900
68746SOL    HW113353   1.405   9.309   7.605 -0.1375  0.1071  0.2378
68746SOL    HW213354   1.532   9.284   7.685 -1.0480 -0.8419  1.4343
68747SOL     OW13355   9.873  11.950   2.640 -1.1787 -0.1058  0.6717
68747SOL    HW113356   9.870  12.045   2.624  1.6205 -0.2907 -1.9873
68747SOL    HW213357   9.805  11.915   2.583 -0.7190  0.2048 -0.0897
68748SOL     OW13358  11.770  12.136   6.383 -0.0647  0.5790 -0.1448
68748SOL    HW113359  11.733  12.164   6.299 -2.3195 -1.0115  0.1983
68748SOL    HW213360  11.818  12.056   6.362  0.1873  0.7078 -0.0585
68749SOL     OW13361   5.263   8.597  10.844  0.2871 -0.8280  0.4759
68749SOL    HW113362   5.173   8.627  10.837  0.1600 -1.5442 -1.3559
68749SOL    HW213363   5.309   8.669  10.887 -0.9520 -0.0576  0.5568
68750SOL     OW13364   7.062  12.452   0.847  0.2174  0.3874  0.0539
68750SOL    HW113365   6.980  12.427   0.804  0.5155  0.0441 -0.3295
68750SOL    HW213366   7.122  12.473   0.775  0.4331  0.7453  0.3323
68751SOL     OW13367  10.666   0.564  12.020 -0.4264 -0.3611  0.3245
68751SOL    HW113368  10.716   0.549  11.940 -0.6266 -2.5761  0.5571
68751SOL    HW213369  10.722   0.622  12.073 -0.1691  0.8819 -1.2339
68752SOL     OW13370   9.190   9.903  12.871 -0.3150 -0.0278  0.4863
68752SOL    HW113371   9.217   9.893  12.780 -0.8612 -2.7229  0.5331
68752SOL    HW213372   9.245   9.842  12.920 -1.9830 -0.8021  1.4985
68753SOL     OW13373   1.845   2.803   9.358 -0.0100  0.7346 -0.3078
68753SOL    HW113374   1.752   2.780   9.364 -0.3457  1.8893 -0.7190
68753SOL    HW213375   1.851   2.856   9.278  0.6355  2.2788  0.7081
68754SOL     OW13376   4.841   6.330   2.303  0.1973 -0.0826  0.3578
68754SOL    HW113377   4.768   6.288   2.347  0.0083 -1.2313 -0.9799
68754SOL    HW213378   4.811   6.421   2.290 -0.4064 -0.1681  1.0718
68755SOL     OW13379  11.564  10.216   3.503 -0.1420  0.1073  0.3133
68755SOL    HW113380  11.535  10.280   3.438  0.2749  0.0403  0.0581
68755SOL    HW213381  11.542  10.256   3.587 -1.9772 -0.4204  0.1223
68756SOL     OW13382  11.724  11.213   2.498  0.1199  0.2978  0.0732
68756SOL    HW113383  11.792  11.281   2.502  0.0127  0.4097 -0.0301
68756SOL    HW213384  11.734  11.175   2.411  0.9222 -0.5855  0.5369
68757SOL     OW13385   9.583   5.716   3.957  0.2748 -0.4482 -0.2629
68757SOL    HW113386   9.659   5.765   3.987 -1.3571  2.1127  0.0401
68757SOL    HW213387   9.590   5.631   4.001  2.0787  0.3000  1.0143
68758SOL     OW13388   8.461   2.383  10.982 -0.3112  0.1832  0.8527
68758SOL    HW113389   8.531   2.345  10.928 -1.0788  1.5923 -1.2564
68758SOL    HW213390   8.383   2.375  10.928 -1.2860  0.9924  2.1001
68759SOL     OW13391   3.352   1.843   8.470 -0.0161 -0.2079  0.0723
68759SOL    HW113392   3.305   1.772   8.514 -0.3811  2.0216  3.6489
68759SOL    HW213393   3.443   1.834   8.500  0.4066 -0.3477 -1.1797
68760SOL     OW13394  11.654   6.655   1.336  0.0420  0.3847 -0.4102
68760SOL    HW113395  11.633   6.662   1.243  1.5098 -1.7062 -0.9831
68760SOL    HW213396  11.750   6.658   1.339 -0.0115  1.6565  1.1923
68761SOL     OW13397   1.402   2.421   1.921  0.1319  0.4588 -0.3742
68761SOL    HW113398   1.446   2.439   2.003  1.8920  2.2319 -1.6347
68761SOL    HW213399   1.402   2.325   1.914  1.2808  0.3373  0.9848
68762SOL     OW13400   3.733  11.257  12.739  0.2386 -0.3324  0.4050
68762SOL    HW113401   3.799  11.310  12.694  0.1828 -0.7630 -0.1962
68762SOL    HW213402   3.767  11.168  12.735  0.7409 -0.2660  2.1444
68763SOL     OW13403   2.300   9.981   1.735 -0.0095  0.3633  0.2677
68763SOL    HW113404   2.351  10.010   1.811  1.6143 -1.0806 -0.2107
68763SOL    HW213405   2.332  10.036   1.663  0.3867 -0.0843  0.1009
68764SOL     OW13406  11.251   0.526   7.418  0.2853  0.4969  0.5449
68764SOL    HW113407  11.202   0.603   7.390  0.2388  1.4288  2.9990
68764SOL    HW213408  11.199   0.452   7.384 -1.4801  1.4859  0.9394
68765SOL     OW13409   7.012   9.933   6.841  0.2089  0.1080 -0.1101
68765SOL    HW113410   7.018  10.024   6.871 -1.0317  0.4571 -0.8578
68765SOL    HW213411   6.923   9.906   6.866  0.4115 -0.7528 -0.3103
68766SOL     OW13412   3.578   6.103   1.529 -0.2643  0.1440  0.0883
68766SOL    HW113413   3.553   6.066   1.613 -0.4666 -2.5845 -1.0694
68766SOL    HW213414   3.495   6.129   1.489 -0.4080 -0.6732 -0.1628
68767SOL     OW13415   7.572   8.116  10.882 -0.0796 -0.6147 -0.0854
68767SOL    HW113416   7.510   8.143  10.950  2.4981  0.6961  1.9311
68767SOL    HW213417   7.634   8.059  10.928  1.4568 -0.1004 -1.4588
68768SOL     OW13418   8.384   3.889   9.585 -0.0393  0.3504  0.0103
68768SOL    HW113419   8.397   3.974   9.543 -0.5024 -0.5248 -2.0054
68768SOL    HW213420   8.434   3.895   9.667 -2.1009  3.4491  1.2445
68769SOL     OW13421   2.422   2.379  11.715 -0.5030 -0.1888 -0.2907
68769SOL    HW113422   2.414   2.336  11.800  0.1945 -2.3211 -1.2446
68769SOL    HW213423   2.339   2.359  11.671  0.1347 -1.2965 -1.0324
68770SOL     OW13424   6.191   7.028  11.635  0.2940 -0.1488  0.0269
68770SOL    HW113425   6.133   7.104  11.642  1.0508  0.4955 -0.4021
68770SOL    HW213426   6.151   6.962  11.691 -0.7649  0.3211 -0.1444
68771SOL     OW13427   4.390   6.511  11.203  0.3244  0.3925 -0.1773
68771SOL    HW113428   4.430   6.500  11.117 -0.9098 -2.6288 -0.5021
68771SOL    HW213429   4.447   6.464  11.263 -0.6378 -0.5886  0.0041
68772SOL     OW13430   4.520   7.207   3.381  0.6343 -0.2103 -0.0020
68772SOL    HW113431   4.479   7.289   3.410  1.5572  0.2902 -0.0764
68772SOL    HW213432   4.505   7.146   3.453  0.6280  0.2600  0.4041
68773SOL     OW13433   4.719  11.579   2.528  0.3638  0.0275 -0.2994
68773SOL    HW113434   4.779  11.562   2.601  1.4969  0.1334 -1.1708
68773SOL    HW213435   4.657  11.507   2.530 -0.5192  0.7746  1.6342
68774SOL     OW13436  11.384   6.336   8.596 -0.7728 -0.2063 -0.2428
68774SOL    HW113437  11.407   6.259   8.647 -0.1222  0.0052 -0.1996
68774SOL    HW213438  11.379   6.305   8.506 -0.2876 -0.2614 -0.2550
68775SOL     OW13439  11.191   4.058  11.801 -0.1123 -0.3291  0.5816
68775SOL    HW113440  11.129   4.057  11.728  0.7688 -0.2876 -0.1848
68775SOL    HW213441  11.253   4.127  11.778  0.4798 -0.6751  1.1119
68776SOL     OW13442   6.754  10.679  10.707  0.0584 -0.2285 -0.1431
68776SOL    HW113443   6.745  10.729  10.788 -0.6075  0.0141 -0.3567
68776SOL    HW213444   6.830  10.718  10.663  0.6337 -0.5836  0.5056
68777SOL     OW13445  12.956   7.266   2.537  0.3168 -0.0744  0.4117
68777SOL    HW113446  13.004   7.328   2.482 -0.0793  0.0428  0.1945
68777SOL    HW213447  13.007   7.261   2.618  0.2600  0.6661  0.5010
68778SOL     OW13448   2.057  10.452   5.606 -0.0647 -0.0708 -0.3354
68778SOL    HW113449   1.979  10.397   5.600  0.7400 -1.5560  1.7071
68778SOL    HW213450   2.026  10.540   5.583 -2.0163 -0.8522 -0.9068
68779SOL     OW13451   4.641   6.549   2.134  0.4025  0.5223 -0.0670
68779SOL    HW113452   4.584   6.603   2.080  1.3029  2.6047  0.9623
68779SOL    HW213453   4.582   6.493   2.184 -0.4932 -0.7148 -2.3226
68780SOL     OW13454  11.559   7.614  12.950  0.1303  0.1259  0.6369
68780SOL    HW113455  11.494   7.646  13.012  1.4538  1.6753  1.2946
68780SOL    HW213456  11.551   7.673  12.875  1.4685  1.0200  1.1674
68781SOL     OW13457  11.119   7.289  11.343  0.3073 -0.7440 -0.0993
68781SOL    HW113458  11.174   7.322  11.414 -0.6901  0.9659 -0.0710
68781SOL    HW213459  11.172   7.297  11.264 -0.2211  2.0174 -0.2606
68782SOL     OW13460  10.682   8.568   4.260 -0.3489 -0.0903  0.1449
68782SOL    HW113461  10.597   8.523   4.261 -0.4276  0.0584  0.2097
68782SOL    HW213462  10.743   8.505   4.298 -0.5671  0.0694  0.7655
68783SOL     OW13463  12.849   1.786   5.597  0.2342 -0.0645 -0.6707
68783SOL    HW113464  12.901   1.867   5.602 -0.3325  0.1969  1.9748
68783SOL    HW213465  12.893   1.735   5.528  2.2762  1.3339 -0.5104
68784SOL     OW13466  12.893   7.328  10.962  0.4976  0.0648  0.1358
68784SOL    HW113467  12.936   7.390  10.904 -1.1860  2.0665  0.9129
68784SOL    HW213468  12.800   7.353  10.959  0.0745 -1.0613  2.1318
68785SOL     OW13469   4.733   7.682   4.307 -0.0960  0.6650 -0.4599
68785SOL    HW113470   4.823   7.684   4.274 -0.3764  0.1316 -1.2737
68785SOL    HW213471   4.732   7.748   4.377  0.8792  0.7967 -0.5585
68786SOL     OW13472   7.778   3.148   5.444 -0.0342  0.6555  0.1816
68786SOL    HW113473   7.822   3.201   5.510 -0.5482  0.6188  0.5640
68786SOL    HW213474   7.705   3.203   5.414 -0.4693  0.2387  0.4596
68787SOL     OW13475   2.915  11.012   2.881  0.5879  0.3971 -0.1010
68787SOL    HW113476   2.853  11.005   2.953  0.1029 -2.2174 -0.6712
68787SOL    HW213477   2.863  10.997   2.802  1.2802  2.2549 -0.9860
68788SOL     OW13478   4.883   5.087   8.751 -0.2259 -0.0008  0.0908
68788SOL    HW113479   4.871   5.015   8.813 -0.6270 -0.0052  0.0143
68788SOL    HW213480   4.807   5.144   8.767  1.0111  1.3669  1.4307
68789SOL     OW13481  10.577   1.642   1.990 -0.2859 -0.6267  0.5600
68789SOL    HW113482  10.651   1.611   1.937  0.3966  0.6954  0.7007
68789SOL    HW213483  10.528   1.562   2.011 -0.2863 -1.2622 -1.5877
68790SOL     OW13484   0.631   5.953  11.098 -0.1566  0.2238 -0.4755
68790SOL    HW113485   0.548   5.943  11.052  0.3392 -0.6970 -1.2019
68790SOL    HW213486   0.617   6.027  11.157 -2.1897 -1.1755  0.9397
68791SOL     OW13487   8.572   8.445  11.001 -0.0379  0.2992 -0.0197
68791SOL    HW113488   8.648   8.425  11.055 -0.2379  2.3067  1.1410
68791SOL    HW213489   8.607   8.498  10.930 -0.1520  0.0457 -0.2624
68792SOL     OW13490   3.854   9.150   4.286  0.0769  0.4234  0.2795
68792SOL    HW113491   3.921   9.218   4.281  0.3244  0.2408  0.9627
68792SOL    HW213492   3.774   9.192   4.256  0.7684  0.2556 -1.9850
68793SOL     OW13493   4.313   4.552   0.488 -0.3044 -0.3560  0.1025
68793SOL    HW113494   4.330   4.545   0.394 -0.1996  0.6259  0.0315
68793SOL    HW213495   4.240   4.493   0.504 -0.5684 -0.2539 -0.6727
68794SOL     OW13496  11.367   9.657   2.979  0.0645  0.2575  0.5146
68794SOL    HW113497  11.402   9.715   2.911  1.7026  2.0623  2.7258
68794SOL    HW213498  11.290   9.616   2.939  1.3789  0.6110 -2.6297
68795SOL     OW13499   8.122   2.251   3.215 -0.2166  0.4365  0.0273
68795SOL    HW113500   8.121   2.178   3.278 -0.8517 -0.7715 -1.3344
68795SOL    HW213501   8.195   2.306   3.244  0.7650 -1.1312  0.6700
68796SOL     OW13502   7.589   3.164  12.101  0.4198  0.3065  0.5995
68796SOL    HW113503   7.515   3.194  12.152 -0.2727  1.5903 -1.0643
68796SOL    HW213504   7.666   3.195  12.149 -0.0546 -1.0192  2.3275
68797SOL     OW13505   4.223   7.589  12.414  0.3370 -0.2105 -0.3595
68797SOL    HW113506   4.267   7.578  12.498  1.4355  0.5154 -0.8195
68797SOL    HW213507   4.141   7.633  12.436 -0.6295 -2.3503  0.6039
68798SOL     OW13508   2.758   0.795  12.260 -0.3188 -0.4251 -0.0413
68798SOL    HW113509   2.830   0.812  12.321  0.4509 -1.3034 -0.6628
68798SOL    HW213510   2.741   0.880  12.219  0.7910 -0.3114 -0.3069
68799SOL     OW13511   4.922   0.513  10.930  0.4706 -0.6042 -0.3168
68799SOL    HW113512   4.921   0.566  10.851 -3.7078  0.4577  0.2079
68799SOL    HW213513   4.942   0.575  11.000  0.2588 -0.7088 -0.1629
68800SOL     OW13514   2.866   5.185  11.728 -0.2621 -0.4664 -0.0168
68800SOL    HW113515   2.820   5.154  11.806 -0.8543 -0.4623 -0.3532
68800SOL    HW213516   2.907   5.106  11.692  0.4841 -0.3658  0.6034
68801SOL     OW13517   5.201   1.729   8.957 -0.0925 -0.0407 -0.1045
68801SOL    HW113518   5.247   1.711   9.039 -0.5887  0.7186  0.3542
68801SOL    HW213519   5.212   1.649   8.906  1.8317  0.1538 -0.0650
68802SOL     OW13520   8.721   7.440   5.926 -0.1292  0.3496  0.6723
68802SOL    HW113521   8.768   7.366   5.887  0.2345  0.5110  0.8077
68802SOL    HW213522   8.639   7.444   5.876  0.1598  0.3031  0.1832
68803SOL     OW13523   7.624   4.159   5.621 -0.0832  0.1647  0.1386
68803SOL    HW113524   7.609   4.254   5.620  1.9623  0.5340  0.3801
68803SOL    HW213525   7.613   4.134   5.713 -0.3090  0.2171  0.1267
68804SOL     OW13526   1.997   4.038   1.907 -0.0872  0.0515 -0.0324
68804SOL    HW113527   1.973   4.048   1.999 -0.2946  0.2530 -0.1093
68804SOL    HW213528   1.919   4.003   1.865  0.5112 -1.6168  0.1681
68805SOL     OW13529   4.922   6.418   5.927  0.3812 -0.0558  0.0795
68805SOL    HW113530   4.876   6.398   5.846 -0.9541  0.3280  0.7231
68805SOL    HW213531   4.971   6.499   5.908  0.1096  0.0064 -0.3521
68806SOL     OW13532   1.708   7.544  12.539  0.2669 -0.0802 -0.1406
68806SOL    HW113533   1.658   7.617  12.502  0.6929 -1.0383 -2.8545
68806SOL    HW213534   1.645   7.496  12.592 -1.0606  0.1864 -1.3879
68807SOL     OW13535   0.666   4.913   5.737  0.2357 -0.0413  0.0485
68807SOL    HW113536   0.608   4.934   5.810  0.8554 -1.1148  0.8864
68807SOL    HW213537   0.716   4.837   5.768  0.5318 -0.5005 -1.4881
68808SOL     OW13538   2.769  10.070   1.226 -0.3790 -0.5623 -0.1099
68808SOL    HW113539   2.763  10.162   1.251  2.6337 -0.3323  0.0502
68808SOL    HW213540   2.748  10.022   1.306  1.2334  0.0696  0.7304
68809SOL     OW13541   6.647  11.132   4.303  0.0159 -0.1799 -0.1268
68809SOL    HW113542   6.668  11.220   4.272 -1.2615 -0.2952 -1.4304
68809SOL    HW213543   6.719  11.077   4.271  1.5761  0.5712  1.9248
68810SOL     OW13544   7.118   1.254   5.313 -0.5523 -0.2708 -0.7986
68810SOL    HW113545   7.094   1.193   5.243 -1.9678  0.3376 -0.8763
68810SOL    HW213546   7.062   1.230   5.386 -0.0993  0.0359 -0.3422
68811SOL     OW13547   5.466   8.983  12.927  0.0617 -0.3595 -0.4280
68811SOL    HW113548   5.437   9.044  12.995  1.3298 -0.1812 -0.0219
68811SOL    HW213549   5.442   9.025  12.845  0.6458  0.5468 -0.1447
68812SOL     OW13550   2.856   5.151   7.679 -0.2919 -1.2161 -0.0314
68812SOL    HW113551   2.829   5.212   7.747  1.5748 -1.1830  0.7320
68812SOL    HW213552   2.850   5.201   7.598  0.8763 -0.0902  0.5370
68813SOL     OW13553   8.808   9.530  10.980 -0.3703 -0.2667 -0.4502
68813SOL    HW113554   8.858   9.607  11.009 -1.4833  0.3955 -0.2462
68813SOL    HW213555   8.845   9.457  11.030 -1.7626  0.7365  2.2005
68814SOL     OW13556   5.740   4.081  12.134 -0.4042  0.3894  0.4547
68814SOL    HW113557   5.800   4.007  12.140  0.8198  1.3182  0.0938
68814SOL    HW213558   5.657   4.043  12.106 -0.4075 -1.1277  2.3351
68815SOL     OW13559   6.840   9.188   7.018 -0.0122  0.1505  0.2379
68815SOL    HW113560   6.780   9.115   7.001 -0.5740  0.5160  0.6217
68815SOL    HW213561   6.824   9.211   7.110  0.2173  0.7008  0.1423
68816SOL     OW13562   2.717   7.265   3.229 -0.1571  0.5644 -0.1883
68816SOL    HW113563   2.775   7.247   3.303  2.1560  1.8003 -1.5546
68816SOL    HW213564   2.695   7.179   3.193  0.0965  0.0317  0.9104
68817SOL     OW13565   5.993   1.984   6.505 -0.1738  0.2342  0.0767
68817SOL    HW113566   5.994   2.072   6.544 -0.0407 -0.3635  1.4657
68817SOL    HW213567   5.975   2.000   6.412 -0.6802  1.6928  0.3956
68818SOL     OW13568  10.642  12.773   9.772 -0.2283  0.4354 -0.1551
68818SOL    HW113569  10.627  12.762   9.866  0.9207 -0.0365 -0.0079
68818SOL    HW213570  10.716  12.716   9.753 -1.1959 -0.4027 -1.5902
68819SOL     OW13571   6.639   9.165   5.814 -0.7212 -0.3744  0.2495
68819SOL    HW113572   6.544   9.165   5.803 -0.7727  2.3905  0.0047
68819SOL    HW213573   6.673   9.175   5.725 -0.1621 -1.2100  0.3496
68820SOL     OW13574   0.183  12.282   6.019 -0.7073 -0.3883 -0.0306
68820SOL    HW113575   0.198  12.227   5.942  0.0380  0.7487 -0.7363
68820SOL    HW213576   0.196  12.224   6.093  0.1501 -1.1461 -0.7488
68821SOL     OW13577  12.592   6.487  10.706  0.0405  0.1355 -0.3258
68821SOL    HW113578  12.557   6.439  10.782 -1.1996  1.9928  0.3406
68821SOL    HW213579  12.681   6.511  10.732 -0.0826  0.0450  0.2042
68822SOL     OW13580   7.036   3.523   9.113  0.0355  0.1574  0.8952
68822SOL    HW113581   7.100   3.457   9.086  1.3684  0.1672  3.6927
68822SOL    HW213582   7.006   3.493   9.199 -0.6525  2.2789  1.4556
68823SOL     OW13583  10.902   6.030  12.672 -0.1635  0.5042 -0.3617
68823SOL    HW113584  10.964   6.054  12.741  0.3084  1.0917 -0.9862
68823SOL    HW213585  10.859   6.112  12.648  0.7457  0.5888 -1.8105
68824SOL     OW13586   2.260   8.220   5.735 -0.5463  0.4914 -0.3841
68824SOL    HW113587   2.314   8.141   5.746  0.8661  1.1002 -2.2838
68824SOL    HW213588   2.264   8.264   5.820  1.0750 -0.0406 -0.1476
68825SOL     OW13589   7.728   2.436   6.370  0.1429 -0.5367  0.2669
68825SOL    HW113590   7.751   2.521   6.334  0.6467 -0.9307 -0.3538
68825SOL    HW213591   7.736   2.447   6.464  0.0311  0.1480  0.2040
68826SOL     OW13592   1.468   1.702   2.853  0.7355 -0.3314  0.4062
68826SOL    HW113593   1.497   1.777   2.905  1.8062 -0.1310 -0.4475
68826SOL    HW213594   1.387   1.673   2.896  1.2685  0.1827  1.8267
68827SOL     OW13595  10.570   2.505   3.771 -0.5487 -1.1266 -0.2137
68827SOL    HW113596  10.622   2.441   3.819  0.1028  1.2766  2.6072
68827SOL    HW213597  10.603   2.501   3.681  0.5269 -3.5617  0.2047
68828SOL     OW13598   6.741   5.287   6.818  0.6350 -0.6057  0.5513
68828SOL    HW113599   6.775   5.197   6.824  0.2345 -0.8429 -0.4770
68828SOL    HW213600   6.790   5.335   6.885  1.1368 -1.5042  0.8562
68829SOL     OW13601   8.726   6.560   3.369  0.3276 -0.6727  0.7264
68829SOL    HW113602   8.764   6.627   3.425  2.4218 -0.1240 -1.2274
68829SOL    HW213603   8.709   6.604   3.286 -0.6466 -1.9789  0.1945
68830SOL     OW13604   4.313   8.906   3.850  0.6254  0.1622 -0.2610
68830SOL    HW113605   4.262   8.974   3.806  1.9570  1.0393 -0.5031
68830SOL    HW213606   4.264   8.888   3.930  0.6209  1.9850  0.2039
68831SOL     OW13607   5.912   5.719   5.043 -0.2285 -0.1455 -0.0515
68831SOL    HW113608   5.978   5.675   4.989  1.4383  1.6120  0.4484
68831SOL    HW213609   5.873   5.649   5.096  0.2842 -1.4211 -1.3113
68832SOL     OW13610   4.172  11.514   7.456 -0.0580 -0.2709  0.3363
68832SOL    HW113611   4.234  11.481   7.391  0.2529  0.1011  0.4366
68832SOL    HW213612   4.089  11.472   7.434 -0.2713  0.8296 -1.1243
68833SOL     OW13613   9.821   6.291   0.614 -0.1709 -0.3226  0.3904
68833SOL    HW113614   9.735   6.250   0.610 -0.0360 -0.6108 -2.8994
68833SOL    HW213615   9.875   6.230   0.663 -1.4118 -1.0457  0.8942
68834SOL     OW13616   1.077   0.641   9.226 -0.2006  0.0263 -0.0062
68834SOL    HW113617   1.108   0.557   9.260 -0.0943  0.5867  1.3088
68834SOL    HW213618   1.005   0.666   9.284  1.1023  1.8381  0.9060
68835SOL     OW13619   8.096   6.630   3.947 -0.0028 -0.1826  0.3330
68835SOL    HW113620   8.037   6.580   3.891 -0.5648 -0.2871  1.0110
68835SOL    HW213621   8.156   6.673   3.886 -1.5276  0.9123 -0.4572
68836SOL     OW13622   5.662  11.168   7.569  0.2590 -0.0541  0.1424
68836SOL    HW113623   5.671  11.262   7.559  1.9657 -0.2706 -0.8457
68836SOL    HW213624   5.633  11.137   7.483  0.9479 -0.5431  0.0766
68837SOL     OW13625   3.424  11.878   6.378 -0.3808  0.2266 -0.3666
68837SOL    HW113626   3.451  11.862   6.287 -1.7479  1.1072 -0.9733
68837SOL    HW213627   3.447  11.798   6.425 -0.6856 -0.7050 -1.7445
68838SOL     OW13628   9.272   9.030   7.261 -0.3064 -0.0664 -0.7561
68838SOL    HW113629   9.257   9.036   7.356  0.6679  0.1275 -0.6018
68838SOL    HW213630   9.355   9.075   7.248 -0.9023  0.7672 -1.8482
68839SOL     OW13631   7.489   7.496  10.296 -0.4559  0.3732  0.4893
68839SOL    HW113632   7.550   7.520  10.226 -1.2595  1.4514  0.1368
68839SOL    HW213633   7.522   7.412  10.328 -0.3904 -0.4435 -1.5619
68840SOL     OW13634  12.322   6.766   0.702  0.3927  0.0854  0.8253
68840SOL    HW113635  12.298   6.675   0.687 -1.0153  0.3443  1.4098
68840SOL    HW213636  12.385   6.763   0.774 -0.2369 -0.3773  1.3712
68841SOL     OW13637  11.376   7.678   6.700 -0.5274  0.0400  0.0953
68841SOL    HW113638  11.352   7.596   6.744 -0.4912 -0.1287 -0.1957
68841SOL    HW213639  11.406   7.735   6.771  0.2558 -0.4876  0.2058
68842SOL     OW13640   7.254  12.526   0.667 -0.2051 -0.6536 -0.1747
68842SOL    HW113641   7.341  12.527   0.707 -0.5350 -1.0022  0.5829
68842SOL    HW213642   7.266  12.570   0.583  0.5124  0.1298  0.3133
68843SOL     OW13643   3.944   1.037   0.425  0.0738 -0.3844 -0.3429
68843SOL    HW113644   3.914   0.980   0.355  0.5807 -2.0877  0.7624
68843SOL    HW213645   3.869   1.043   0.484  0.4342 -0.9825  0.1862
68844SOL     OW13646   9.933  12.644   0.338 -0.7419  0.1124 -0.6439
68844SOL    HW113647   9.924  12.726   0.386  0.8406 -0.5800  0.9230
68844SOL    HW213648   9.843  12.610   0.331 -1.3196  1.5958 -0.6959
68845SOL     OW13649   2.471  11.845   9.564 -0.6802  0.3652  0.1145
68845SOL    HW113650   2.387  11.859   9.609 -0.4293  1.3340  0.2933
68845SOL    HW213651   2.462  11.893   9.482 -1.1288 -1.3850 -0.9168
68846SOL     OW13652   0.744  12.620  10.880 -0.5067  0.0194  0.4628
68846SOL    HW113653   0.721  12.602  10.789 -0.4910 -1.0449  0.6626
68846SOL    HW213654   0.693  12.557  10.931  0.5836 -0.3782  1.0945
68847SOL     OW13655   9.159   1.177  12.204  0.8728 -0.4400 -0.4241
68847SOL    HW113656   9.206   1.209  12.280 -2.0926 -2.1587  2.3942
68847SOL    HW213657   9.198   1.092  12.185  0.8410 -0.5505 -0.0008
68848SOL     OW13658  11.529   6.155  11.604  0.0576  0.1926 -0.4321
68848SOL    HW113659  11.448   6.201  11.582 -0.0856  0.6901  1.0143
68848SOL    HW213660  11.519   6.068  11.565 -1.2983  0.1496 -0.0455
68849SOL     OW13661   9.683   5.820   7.644 -0.4460 -0.4306 -0.7302
68849SOL    HW113662   9.697   5.889   7.579  1.6142  1.5535  1.5660
68849SOL    HW213663   9.599   5.841   7.683 -0.1601  0.3991 -0.5384
68850SOL     OW13664   0.600   5.847   4.769  0.2873 -0.0284  0.7285
68850SOL    HW113665   0.568   5.923   4.816 -2.1769  0.4979 -1.5150
68850SOL    HW213666   0.624   5.880   4.682  0.2494 -1.6096  0.0677
68851SOL     OW13667   6.367   3.832   3.168 -0.2708 -0.3148  0.2404
68851SOL    HW113668   6.442   3.772   3.167 -1.2669 -1.6597  1.8188
68851SOL    HW213669   6.327   3.818   3.253 -1.6797  1.2101 -0.1372
68852SOL     OW13670  10.132   4.090   1.429  0.3032 -0.3509  0.1499
68852SOL    HW113671  10.104   4.010   1.474 -0.1916  0.5560  1.5115
68852SOL    HW213672  10.062   4.107   1.365  0.1868 -0.7577  0.1681
68853SOL     OW13673   7.563   2.718  10.835 -0.2300 -0.0644 -0.0559
68853SOL    HW113674   7.539   2.669  10.914  0.4850  0.4091  0.4684
68853SOL    HW213675   7.522   2.804  10.847 -0.5074 -0.1452 -0.4221
68854SOL     OW13676   2.661   8.286   1.642 -0.2919  0.3546 -0.4203
68854SOL    HW113677   2.743   8.237   1.634  0.8444  2.2745 -1.1185
68854SOL    HW213678   2.665   8.325   1.729 -1.2354 -0.8145  0.1684
68855SOL     OW13679  11.202   6.013   0.388 -0.5566 -0.2773  0.8879
68855SOL    HW113680  11.223   6.097   0.428 -0.3359 -0.6738  1.6188
68855SOL    HW213681  11.135   6.034   0.322  1.2941  0.8534 -0.7551
68856SOL     OW13682   4.394  12.840   0.468  0.2128  0.5173  0.0672
68856SOL    HW113683   4.437  12.813   0.549 -0.9604  1.3548  1.0140
68856SOL    HW213684   4.330  12.906   0.496 -0.4539  0.5801 -1.4987
68857SOL     OW13685  10.899   5.655  12.747 -0.1628  0.0242  0.4177
68857SOL    HW113686  10.889   5.685  12.838  1.4939 -0.1040  0.6797
68857SOL    HW213687  10.983   5.692  12.720  1.6677 -3.6691  0.5110
68858SOL     OW13688   5.648   1.000  10.586 -0.5518  0.4520  0.0367
68858SOL    HW113689   5.692   1.053  10.520 -1.8158  0.8330 -0.5153
68858SOL    HW213690   5.664   1.047  10.668  0.2103  0.4874 -0.1230
68859SOL     OW13691  11.121   8.009   7.997 -0.6751  0.5884  0.5365
68859SOL    HW113692  11.213   8.031   7.981 -0.0436 -1.2546  1.3217
68859SOL    HW213693  11.113   7.918   7.969 -2.9410  1.4003 -1.9040
68860SOL     OW13694  12.608   1.770   7.635 -0.3080 -0.3751  0.6017
68860SOL    HW113695  12.667   1.844   7.623 -0.1118 -0.5133  0.7052
68860SOL    HW213696  12.609   1.724   7.551 -0.7792 -0.0119  0.3898
68861SOL     OW13697   2.597   7.136  11.137 -0.0641  0.3953  0.0725
68861SOL    HW113698   2.530   7.089  11.087 -2.8698  1.5025  2.4556
68861SOL    HW213699   2.661   7.164  11.072 -2.6872  0.5282 -2.6827
68862SOL     OW13700   0.486   9.628  10.864 -0.1406  0.6443  0.3828
68862SOL    HW113701   0.565   9.574  10.873  0.4059  1.2208 -0.7026
68862SOL    HW213702   0.508   9.709  10.910 -0.5891  0.3151  1.1770
68863SOL     OW13703   8.227   1.860  11.586 -0.2853 -0.2402  0.2438
68863SOL    HW113704   8.298   1.923  11.602  0.2933 -1.1217  1.2848
68863SOL    HW213705   8.249   1.784  11.640 -0.7286 -1.5422 -1.3040
68864SOL     OW13706   5.417  10.766   5.505  0.3714 -0.3572  0.0432
68864SOL    HW113707   5.346  10.709   5.476  0.8893 -1.5185  0.9619
68864SOL    HW213708   5.484  10.706   5.537  0.1666  0.7586  2.8610
68865SOL     OW13709   7.618   7.351   9.697  0.3435  0.4210 -0.2521
68865SOL    HW113710   7.602   7.416   9.629 -1.3665 -0.1351 -0.4420
68865SOL    HW213711   7.655   7.276   9.649  2.4141  1.2186 -0.0175
68866SOL     OW13712   9.772   3.484   9.157 -0.1622 -0.4433 -0.3378
68866SOL    HW113713   9.830   3.527   9.094 -1.5194  0.9433 -0.7292
68866SOL    HW213714   9.720   3.556   9.194 -1.1515 -1.5414  0.4935
68867SOL     OW13715   4.676  11.693   3.996 -0.2535 -0.1988  0.0467
68867SOL    HW113716   4.670  11.719   3.904  0.4189 -0.0598  0.0381
68867SOL    HW213717   4.717  11.607   3.994 -0.7836 -0.4598  0.1875
68868SOL     OW13718  12.793   0.759   9.055 -0.0553 -0.0077  0.0363
68868SOL    HW113719  12.813   0.813   9.131  0.9088 -0.5569  0.1821
68868SOL    HW213720  12.876   0.750   9.009 -0.4688 -0.3236 -0.6672
68869SOL     OW13721   8.528   9.489   1.094  0.1425 -0.1285 -0.0958
68869SOL    HW113722   8.561   9.552   1.029  0.5084 -0.4267 -0.2020
68869SOL    HW213723   8.475   9.542   1.153  2.4073  0.7522  1.2873
68870SOL     OW13724   0.278   0.619   4.215 -0.5356 -0.4466 -0.0490
68870SOL    HW113725   0.196   0.584   4.247  0.3612 -2.2840  0.3515
68870SOL    HW213726   0.285   0.586   4.125 -0.7216  0.5945 -0.4585
68871SOL     OW13727   8.481   0.648   6.865  0.4242 -0.0746 -0.0928
68871SOL    HW113728   8.502   0.653   6.959 -1.2529 -2.4213  0.5105
68871SOL    HW213729   8.390   0.619   6.863  0.0422  1.0724 -2.4947
68872SOL     OW13730   2.559   7.893   1.699 -0.9125  0.0372  0.4305
68872SOL    HW113731   2.499   7.888   1.773 -0.1583 -0.4214  1.0264
68872SOL    HW213732   2.645   7.909   1.738 -0.3609 -1.0428 -0.2734
68873SOL     OW13733   5.916  10.669  10.252  0.3890 -0.2195  0.1205
68873SOL    HW113734   5.875  10.721  10.321  1.2086 -0.4765  0.8303
68873SOL    HW213735   6.005  10.654  10.284  0.5683 -0.9319 -0.6846
68874SOL     OW13736  11.580   7.005   6.197 -0.0156 -0.0498 -0.0810
68874SOL    HW113737  11.639   7.078   6.216 -0.9695  1.0378 -1.1412
68874SOL    HW213738  11.518   7.040   6.133 -2.3898 -0.8569  1.6372
68875SOL     OW13739   8.478   5.053  12.458 -0.1188 -0.0304  0.3852
68875SOL    HW113740   8.476   5.030  12.551 -1.4010 -0.7535  0.1969
68875SOL    HW213741   8.560   5.102  12.447  1.5821 -2.4791  1.2650
68876SOL     OW13742   2.750   1.288   2.255 -0.2935 -0.4219  0.1428
68876SOL    HW113743   2.790   1.338   2.184  0.4944 -1.2272  0.0116
68876SOL    HW213744   2.658   1.316   2.254  0.1038  0.9434  0.0153
68877SOL     OW13745   8.833  11.222  10.211 -0.2979 -0.4023  0.1486
68877SOL    HW113746   8.748  11.245  10.176 -0.4560 -0.1111  0.7190
68877SOL    HW213747   8.829  11.127  10.223 -0.9442 -0.2570  1.2105
68878SOL     OW13748   8.786   8.620   0.539  0.1429 -0.2561  0.1494
68878SOL    HW113749   8.766   8.548   0.598  0.8149 -0.2371  0.4046
68878SOL    HW213750   8.844   8.677   0.590 -1.2332  1.0328  0.3591
68879SOL     OW13751   6.434   4.543   5.496 -0.0967  0.4081  0.2449
68879SOL    HW113752   6.468   4.467   5.542  1.2933  0.9409  0.1339
68879SOL    HW213753   6.347   4.558   5.534 -1.0623 -2.1052 -0.7554
68880SOL     OW13754   6.519   8.831   0.636 -0.2589 -0.3306  0.6878
68880SOL    HW113755   6.446   8.795   0.584 -0.6825 -0.4323  1.3467
68880SOL    HW213756   6.506   8.926   0.633  0.5145 -0.2435 -0.5460
68881SOL     OW13757  12.543   4.049  12.206  0.3532 -0.0545  0.3487
68881SOL    HW113758  12.581   3.978  12.257 -0.4422 -0.6981  0.0662
68881SOL    HW213759  12.581   4.040  12.119  0.3924 -0.0130  0.3613
68882SOL     OW13760   3.601   9.520   3.560  0.4756  0.6131  0.0777
68882SOL    HW113761   3.620   9.448   3.500 -0.2037 -0.3317  0.9792
68882SOL    HW213762   3.687   9.549   3.590  0.8035  0.8633 -1.0615
68883SOL     OW13763   3.916   2.738   0.537  0.1926 -0.6443  0.4840
68883SOL    HW113764   3.978   2.758   0.467  0.1874  0.6107  0.8143
68883SOL    HW213765   3.945   2.791   0.611 -1.7725  0.7259  0.3683
68884SOL     OW13766   4.893   3.054   1.154  0.5933 -0.6131 -1.0274
68884SOL    HW113767   4.814   3.021   1.109 -0.3614  0.6495 -0.3181
68884SOL    HW213768   4.961   2.990   1.132 -0.0787 -0.6021 -3.4366
68885SOL     OW13769   9.354   3.062  12.864  0.3886  0.0492  0.0294
68885SOL    HW113770   9.392   3.148  12.877  0.8694 -0.1628  0.0644
68885SOL    HW213771   9.315   3.065  12.777 -0.9994  0.8025  0.6452
68886SOL     OW13772   2.157   4.746   1.564 -0.2569  0.2434 -0.0697
68886SOL    HW113773   2.166   4.652   1.548 -1.4543  0.1870 -0.6016
68886SOL    HW213774   2.197   4.761   1.649  2.9001 -0.1592 -1.3460
68887SOL     OW13775   0.700   8.191   9.142  0.2059  0.2494  0.0623
68887SOL    HW113776   0.742   8.270   9.109  1.0681 -0.0923  0.3244
68887SOL    HW213777   0.734   8.181   9.231  0.8980 -0.9833 -0.3235
68888SOL     OW13778  12.538   8.053   9.565 -0.2147  0.2837 -0.4328
68888SOL    HW113779  12.620   8.009   9.589 -0.2327  0.0178 -0.8315
68888SOL    HW213780  12.489   7.986   9.517 -0.9120  0.2684  0.3017
68889SOL     OW13781   3.391   5.928   3.695  0.5281 -0.2086  0.6368
68889SOL    HW113782   3.375   5.910   3.602  2.0877  0.6024  0.1718
68889SOL    HW213783   3.426   6.017   3.696  0.5650 -0.2166  2.0140
68890SOL     OW13784   3.903   4.149   4.450 -0.7714  0.0426  0.0072
68890SOL    HW113785   3.837   4.114   4.510 -1.0432  1.9364  0.8813
68890SOL    HW213786   3.875   4.239   4.435  0.9143  0.4800 -0.6482
68891SOL     OW13787   0.011   6.713   1.918  0.1393  0.1567 -0.3300
68891SOL    HW113788  -0.069   6.687   1.873 -0.6731  1.8543  0.0193
68891SOL    HW213789  -0.019   6.748   2.002  0.8632  3.5010 -1.2969
68892SOL     OW13790  12.898  10.942   3.291  0.3530 -0.2062  0.0682
68892SOL    HW113791  12.818  10.891   3.301 -0.0028 -0.0499 -1.6800
68892SOL    HW213792  12.868  11.032   3.278  0.4045 -0.6289 -4.7425
68893SOL     OW13793   4.780   2.042   8.035 -0.1220  0.0025 -0.1483
68893SOL    HW113794   4.716   2.064   7.968  2.2712  0.0667 -2.6016
68893SOL    HW213795   4.777   1.946   8.041 -0.1920 -0.0206 -0.5309
68894SOL     OW13796   7.225   9.481  12.804  0.0130 -0.2133 -0.4720
68894SOL    HW113797   7.232   9.420  12.878 -0.6894  0.1426 -0.1062
68894SOL    HW213798   7.181   9.558  12.840  1.5012  0.8193 -0.7555
68895SOL     OW13799   1.589   0.973  10.095 -0.4973  0.4457  0.2108
68895SOL    HW113800   1.641   1.031  10.040 -0.0009  0.2169  0.4379
68895SOL    HW213801   1.516   1.027  10.125  0.8113  1.4597  1.7450
68896SOL     OW13802  10.884   3.809  12.100  0.2275 -0.5341  0.1975
68896SOL    HW113803  10.945   3.879  12.078 -0.3211 -0.2531 -0.4905
68896SOL    HW213804  10.920   3.731  12.058  1.4066 -0.9225  1.8538
68897SOL     OW13805   1.689   7.034   8.321  0.0366 -0.0093 -0.2316
68897SOL    HW113806   1.711   6.980   8.245 -0.1667 -0.3279 -0.0677
68897SOL    HW213807   1.606   7.076   8.299  0.5591  0.8175 -0.6565
68898SOL     OW13808   0.436   9.736   4.974 -0.1811 -0.1749 -0.4605
68898SOL    HW113809   0.352   9.750   5.017  0.6483  2.6826  0.4526
68898SOL    HW213810   0.488   9.688   5.038 -0.1932  0.6713  0.1982
68899SOL     OW13811   7.162   6.857  12.638 -0.0739 -0.4603 -0.0324
68899SOL    HW113812   7.190   6.794  12.704 -0.5699 -1.5003 -0.7828
68899SOL    HW213813   7.067   6.853  12.639 -0.1084  0.0942 -0.2763
68900SOL     OW13814   8.784   5.248   9.844 -0.1061  0.7087  0.1177
68900SOL    HW113815   8.706   5.228   9.896  0.2754 -2.1091 -0.2440
68900SOL    HW213816   8.800   5.169   9.793  0.7079  2.6066 -2.8741
68901SOL     OW13817   2.818   7.086   9.432  0.0515 -0.3833 -0.2329
68901SOL    HW113818   2.810   6.992   9.420  1.9335 -0.8657  1.6661
68901SOL    HW213819   2.810   7.099   9.527  0.9801  1.2146 -0.3406
68902SOL     OW13820   3.885   7.693   9.328  0.3523 -0.4374  0.5844
68902SOL    HW113821   3.829   7.671   9.253 -0.3274  1.7213  0.4046
68902SOL    HW213822   3.954   7.748   9.290 -0.1662  0.9306  1.5432
68903SOL     OW13823  10.769   5.327   4.435  0.0266  0.4676 -0.6821
68903SOL    HW113824  10.681   5.298   4.459  0.6692  0.4306  1.9314
68903SOL    HW213825  10.785   5.404   4.489  1.7396  0.2515 -0.8136
68904SOL     OW13826   8.461   4.141   7.392  0.2293 -0.2087  0.4491
68904SOL    HW113827   8.370   4.118   7.413  0.1991 -1.4946 -0.9480
68904SOL    HW213828   8.479   4.219   7.445 -0.6841 -1.6943  3.1295
68905SOL     OW13829  11.591   4.942   2.140 -0.1673  0.2935  0.2098
68905SOL    HW113830  11.588   4.980   2.228 -1.1856  2.2755 -0.6387
68905SOL    HW213831  11.532   4.996   2.088 -1.7876 -2.4851 -1.1121
68906SOL     OW13832   7.144   6.179   1.941  0.4994  0.5535 -0.4355
68906SOL    HW113833   7.061   6.199   1.984  1.0077 -0.1398  0.9348
68906SOL    HW213834   7.135   6.216   1.853 -2.2497 -1.7768 -1.2803
68907SOL     OW13835  12.396   9.897   0.649  0.0415 -0.7235 -0.1035
68907SOL    HW113836  12.461   9.828   0.633  0.7673 -0.3471  1.0555
68907SOL    HW213837  12.429   9.972   0.598 -0.7926 -1.2189 -1.4317
68908SOL     OW13838   7.652   6.385   5.726  0.1482  0.4120  0.4931
68908SOL    HW113839   7.573   6.367   5.675  0.3943 -1.5315  0.7419
68908SOL    HW213840   7.628   6.366   5.816  1.0383 -0.8150  0.5009
68909SOL     OW13841   0.487   1.223   0.097 -0.4099  0.8045  0.1496
68909SOL    HW113842   0.484   1.148   0.037 -0.2519  0.7112  0.2594
68909SOL    HW213843   0.551   1.283   0.058  0.0065  0.5517  0.4535
68910SOL     OW13844   2.326   2.769   3.310  0.1808  0.2173  0.1460
68910SOL    HW113845   2.288   2.686   3.339  0.2912  0.4055  0.8369
68910SOL    HW213846   2.412   2.772   3.353  1.4061 -0.6090 -2.0549
68911SOL     OW13847   1.133   1.349   9.864 -0.0292 -0.1200  0.8281
68911SOL    HW113848   1.072   1.352   9.790  0.7058  0.2098  0.2112
68911SOL    HW213849   1.147   1.256   9.880  0.9441 -0.2211 -0.4441
68912SOL     OW13850   7.383   4.641   5.117  0.3218 -0.1976 -0.3393
68912SOL    HW113851   7.358   4.563   5.165  1.8969 -0.6668 -0.2112
68912SOL    HW213852   7.414   4.609   5.033  0.2740  0.3528 -0.5705
68913SOL     OW13853   8.837   8.118   4.617 -0.8918 -0.5530 -0.1624
68913SOL    HW113854   8.888   8.176   4.560  0.9954 -1.4262  0.5444
68913SOL    HW213855   8.774   8.176   4.660  0.4569  0.8721 -0.0144
68914SOL     OW13856   3.372  12.049   4.451  0.1113 -0.5912  0.3589
68914SOL    HW113857   3.416  11.999   4.382  2.8205  0.4366  1.2112
68914SOL    HW213858   3.302  12.095   4.407  0.2011 -1.8760 -1.2134
68915SOL     OW13859   0.717   2.992   4.093  0.0750  0.0386 -0.5846
68915SOL    HW113860   0.797   2.965   4.137  0.6894  1.9948 -0.3846
68915SOL    HW213861   0.662   2.914   4.091  2.0615 -1.4022 -0.9291
68916SOL     OW13862  12.263   9.544   5.185 -0.3236 -0.2253 -0.1587
68916SOL    HW113863  12.283   9.459   5.226 -2.0230 -0.3803  0.3930
68916SOL    HW213864  12.279   9.608   5.254  1.1260 -0.0292 -0.6244
68917SOL     OW13865   8.308   8.362   3.784  0.1436  0.1558  0.4133
68917SOL    HW113866   8.392   8.317   3.800 -1.2081 -1.8818  2.4515
68917SOL    HW213867   8.257   8.300   3.733 -0.1614  1.3986 -0.8408
68918SOL     OW13868   0.885  12.762   4.284  0.3692  0.1489  0.0719
68918SOL    HW113869   0.822  12.736   4.351 -1.6808  2.0284 -0.9821
68918SOL    HW213870   0.928  12.839   4.321 -0.6473  1.0877 -0.6134
68919SOL     OW13871   3.864  11.223  11.234  0.3607  0.0459  0.1738
68919SOL    HW113872   3.927  11.292  11.255  2.1150 -1.1618 -0.8541
68919SOL    HW213873   3.804  11.221  11.308  1.6155  1.1566  1.2643
68920SOL     OW13874  11.978   6.476   3.556  0.4690 -0.4826 -0.3279
68920SOL    HW113875  12.053   6.513   3.509 -1.4559  3.8975 -0.3603
68920SOL    HW213876  11.910   6.467   3.489 -0.6048  0.5512  0.5911
68921SOL     OW13877   1.173  10.311  11.543  0.1406 -0.2722  0.3387
68921SOL    HW113878   1.255  10.339  11.584  0.7109 -0.8078 -0.4081
68921SOL    HW213879   1.118  10.390  11.543  0.2323 -0.1751  1.8201
68922SOL     OW13880   5.389   4.240  11.694 -0.3248 -0.9366  0.6706
68922SOL    HW113881   5.321   4.219  11.630 -0.3160 -2.6283  1.1604
68922SOL    HW213882   5.366   4.327  11.726 -0.6003 -0.2536 -1.2425
68923SOL     OW13883   9.081   2.898  10.685 -0.0742  0.1082 -0.5328
68923SOL    HW113884   9.031   2.925  10.762 -0.4931 -0.9315 -0.4158
68923SOL    HW213885   9.165   2.943  10.694 -0.5764  0.9979 -0.1414
68924SOL     OW13886   8.415  11.884   5.977 -0.1512 -0.1690 -0.3647
68924SOL    HW113887   8.422  11.895   6.072  0.0172 -0.2566 -0.3682
68924SOL    HW213888   8.499  11.913   5.943  0.5114 -1.9240 -0.3386
68925SOL     OW13889   7.273   8.523   9.439  0.3014 -0.1613 -0.0440
68925SOL    HW113890   7.312   8.603   9.473 -2.3590  1.0022  0.5877
68925SOL    HW213891   7.248   8.545   9.348  0.9928 -0.8286 -0.4006
68926SOL     OW13892   7.278   9.933  11.538  0.0644 -0.1758  0.3841
68926SOL    HW113893   7.197   9.900  11.578 -0.5632  1.6317  0.7273
68926SOL    HW213894   7.298   9.870  11.468  0.1435 -2.3775  2.2792
68927SOL     OW13895   0.187   4.599  10.865  0.3394 -0.3415  0.5728
68927SOL    HW113896   0.093   4.604  10.878  0.2320 -1.4283  0.3269
68927SOL    HW213897   0.205   4.505  10.856  1.1824 -0.0670 -1.1897
68928SOL     OW13898   9.165   5.974   0.776 -0.1317  0.2097  0.2803
68928SOL    HW113899   9.162   5.912   0.849 -0.0529 -0.3588 -0.1935
68928SOL    HW213900   9.076   6.006   0.769 -0.4702 -0.8025 -0.2717
68929SOL     OW13901   3.371  10.677  12.358 -0.2535 -0.1355  0.3210
68929SOL    HW113902   3.465  10.671  12.375 -0.4018 -1.0377  0.9367
68929SOL    HW213903   3.338  10.738  12.424 -0.0485  0.4752 -0.1373
68930SOL     OW13904  10.833  11.496   9.016 -0.4767  0.6426  0.1025
68930SOL    HW113905  10.843  11.564   8.949 -0.3565 -0.0165 -0.5495
68930SOL    HW213906  10.915  11.447   9.014 -1.1585 -0.5106 -0.5338
68931SOL     OW13907   5.009   7.222   8.488  0.0850  0.0446 -0.2371
68931SOL    HW113908   4.971   7.274   8.559 -0.1131 -0.3328 -0.0601
68931SOL    HW213909   5.004   7.278   8.411 -1.5376 -0.2550 -0.3888
68932SOL     OW13910  10.686   7.587   8.301 -0.1030 -0.0366 -0.2438
68932SOL    HW113911  10.641   7.566   8.382  0.1248 -1.8349 -0.5571
68932SOL    HW213912  10.616   7.606   8.238 -0.3584 -0.6140 -0.1413
68933SOL     OW13913   8.493   3.580  11.499  0.5298 -0.6169  0.0053
68933SOL    HW113914   8.561   3.591  11.565  1.4731  0.8485 -1.1423
68933SOL    HW213915   8.461   3.491  11.513  0.3685 -0.2214  2.6807
68934SOL     OW13916   4.734   0.731   8.698  0.0271 -0.1879 -0.2107
68934SOL    HW113917   4.652   0.753   8.654  0.7326  2.3094 -0.4104
68934SOL    HW213918   4.765   0.814   8.735  2.2068 -1.1565  0.3104
68935SOL     OW13919   4.575   6.663   0.256  0.2573 -0.3249  0.0642
68935SOL    HW113920   4.555   6.754   0.277 -0.1383 -0.0320 -1.4767
68935SOL    HW213921   4.629   6.633   0.329 -2.0783  0.1945  2.1340
68936SOL     OW13922   2.944   6.688   1.362 -0.0932  0.1708  0.1443
68936SOL    HW113923   2.955   6.680   1.456 -0.2044  0.3273  0.1723
68936SOL    HW213924   2.977   6.606   1.326 -1.8829 -0.7434  0.4636
68937SOL     OW13925   0.533   8.365  10.809 -0.4721 -0.0371 -0.5110
68937SOL    HW113926   0.457   8.424  10.812 -0.8827 -0.5162 -1.2476
68937SOL    HW213927   0.572   8.381  10.723  2.6828  3.1413  1.2243
68938SOL     OW13928  11.380   8.482   4.714  0.3373 -0.2884 -0.7025
68938SOL    HW113929  11.287   8.471   4.694  0.3769 -0.8377 -0.5893
68938SOL    HW213930  11.420   8.398   4.692  0.9304  0.1657 -1.3994
68939SOL     OW13931  11.412   9.403  10.548 -0.1691  0.3828 -0.3496
68939SOL    HW113932  11.434   9.435  10.636 -1.4672  0.2653  0.0341
68939SOL    HW213933  11.338   9.345  10.562 -1.0479  1.1497 -1.6330
68940SOL     OW13934  11.400   2.578   3.022  0.2612  0.2115  0.7663
68940SOL    HW113935  11.387   2.510   3.088 -0.2368  0.8166  1.2961
68940SOL    HW213936  11.476   2.628   3.054 -1.2946  1.8652  2.0671
68941SOL     OW13937   6.128   3.829  12.298 -0.5477 -0.0721 -0.7266
68941SOL    HW113938   6.210   3.878  12.290  0.2096 -1.2234 -0.3617
68941SOL    HW213939   6.156   3.737  12.297 -1.7430 -0.4695  0.4896
68942SOL     OW13940  10.884   1.602   1.015  0.1895  0.2679 -0.3540
68942SOL    HW113941  10.975   1.631   1.020 -0.1961  1.3802  0.6399
68942SOL    HW213942  10.842   1.641   1.092 -1.0561 -0.4836 -0.6312
68943SOL     OW13943   1.187  10.534   4.098 -0.2133 -0.5801 -0.7826
68943SOL    HW113944   1.204  10.488   4.016  0.6709 -3.1904  0.7344
68943SOL    HW213945   1.273  10.542   4.140 -0.4532  1.8978 -0.6366
68944SOL     OW13946   4.352   3.742   1.598 -0.1408 -0.4868 -0.0040
68944SOL    HW113947   4.313   3.799   1.665 -0.3378 -1.0073  0.3307
68944SOL    HW213948   4.416   3.797   1.554 -0.9343  0.2596 -0.2594
68945SOL     OW13949   7.393   0.596   7.074  0.2503 -0.6228  0.1272
68945SOL    HW113950   7.430   0.531   7.014  0.7241 -0.7389  0.5457
68945SOL    HW213951   7.395   0.554   7.160  0.3422 -0.1459  0.3601
68946SOL     OW13952   8.198   4.258   6.785  0.4191  0.0545 -0.4983
68946SOL    HW113953   8.112   4.230   6.753 -1.7491  0.9479  3.8567
68946SOL    HW213954   8.203   4.351   6.761 -0.3124  0.2387  0.0254
68947SOL     OW13955   3.288   1.935  11.943  0.2100  0.0993 -0.1953
68947SOL    HW113956   3.294   1.841  11.961 -1.1205  0.1623  0.7176
68947SOL    HW213957   3.379   1.964  11.936  0.6413 -1.3901 -1.2958
68948SOL     OW13958   2.880   1.190   5.853  0.1950  0.5624 -0.1608
68948SOL    HW113959   2.848   1.110   5.895  0.3485  0.5399 -0.0884
68948SOL    HW213960   2.872   1.258   5.920  0.7780  0.4528  0.0175
68949SOL     OW13961   5.482   4.543   2.818  0.1669 -0.0651  0.4003
68949SOL    HW113962   5.518   4.581   2.738  0.1201 -1.3842 -0.2678
68949SOL    HW213963   5.523   4.457   2.824  0.2417  0.0337  1.8593
68950SOL     OW13964   7.426   5.836   5.490 -0.2752 -0.0278 -0.7002
68950SOL    HW113965   7.358   5.826   5.423 -0.9347  0.6028 -0.1320
68950SOL    HW213966   7.462   5.924   5.475 -0.3041  0.0473 -0.3377
68951SOL     OW13967   7.381   7.752  11.331 -0.1460  0.2807 -0.3631
68951SOL    HW113968   7.336   7.753  11.415 -0.0702  0.0102 -0.3183
68951SOL    HW213969   7.455   7.692  11.343 -0.1365  0.2366 -0.6225
68952SOL     OW13970   8.249   3.975   1.039 -0.3961  0.2863 -0.3400
68952SOL    HW113971   8.246   3.881   1.021  0.0064  0.0176  0.9145
68952SOL    HW213972   8.337   4.002   1.013  0.0783 -0.0388  0.8745
68953SOL     OW13973   3.754   8.386   9.917 -0.5054 -0.4249 -0.1690
68953SOL    HW113974   3.772   8.436   9.996 -1.2558  0.9142 -0.8156
68953SOL    HW213975   3.831   8.332   9.904 -0.3743 -0.6710  1.4733
68954SOL     OW13976  12.680   1.785  10.605 -0.2129 -0.1098  0.1413
68954SOL    HW113977  12.588   1.804  10.585 -0.0233  0.1236 -0.5484
68954SOL    HW213978  12.700   1.707  10.554  0.6129  1.1760 -1.6265
68955SOL     OW13979   2.405   6.872   0.255 -0.2021  0.0493  0.4523
68955SOL    HW113980   2.405   6.836   0.344  0.9890 -0.0889  0.4158
68955SOL    HW213981   2.438   6.801   0.201 -1.4619 -0.0601 -0.2048
68956SOL     OW13982  11.638   9.982   8.700 -1.0755  0.5326  0.3722
68956SOL    HW113983  11.566  10.044   8.687 -2.0205 -0.4612  0.6990
68956SOL    HW213984  11.605   9.899   8.665 -0.1961 -0.0189  0.8002
68957SOL     OW13985   3.664  10.252  11.224  0.3153 -0.8870  0.3523
68957SOL    HW113986   3.632  10.258  11.314  0.1935 -0.5236  0.2874
68957SOL    HW213987   3.597  10.203  11.178 -0.7301  0.8449 -0.0426
68958SOL     OW13988   2.920   2.354  11.659  0.2712  0.2241 -0.4335
68958SOL    HW113989   2.877   2.307  11.730 -0.6761 -0.5180 -1.4584
68958SOL    HW213990   2.963   2.428  11.702 -3.6917  2.2708  0.4968
68959SOL     OW13991  10.794   4.200   4.413  0.3406  0.1850 -0.1882
68959SOL    HW113992  10.760   4.144   4.344 -0.4723 -0.1181  0.4387
68959SOL    HW213993  10.861   4.147   4.456 -0.6431 -0.4615  0.6033
68960SOL     OW13994   0.727  11.222   8.802  0.0603  0.3633 -0.0489
68960SOL    HW113995   0.700  11.183   8.719  1.4142 -1.7489  0.4150
68960SOL    HW213996   0.649  11.214   8.858 -0.1026 -0.5359 -0.3786
68961SOL     OW13997   7.088   4.619   7.717  0.2996 -0.0981 -0.0262
68961SOL    HW113998   7.090   4.538   7.666 -0.1582  1.2631 -2.3961
68961SOL    HW213999   7.042   4.596   7.797  0.4995 -2.2435 -0.4703
68962SOL     OW14000   9.120  11.628   4.139  0.1832 -0.8609  0.0783
68962SOL    HW114001   9.064  11.661   4.209 -1.1396  0.1013 -1.3829
68962SOL    HW214002   9.071  11.555   4.100  0.1579 -0.3506 -0.8745
68963SOL     OW14003   5.082  10.517   5.203  0.1020  0.3271 -0.3277
68963SOL    HW114004   5.118  10.596   5.242 -1.3712  1.0989 -0.4424
68963SOL    HW214005   5.118  10.445   5.255  3.4851  0.8084 -1.7417
68964SOL     OW14006  12.076   5.528   5.183  0.2530  0.0593 -0.2859
68964SOL    HW114007  12.121   5.584   5.246 -0.3943  0.4682 -0.1828
68964SOL    HW214008  12.054   5.587   5.111 -1.4858  0.2219  0.3405
68965SOL     OW14009   1.385  12.939  11.686  0.6525 -0.1712  0.0373
68965SOL    HW114010   1.292  12.953  11.668  0.0585 -0.5876  2.4089
68965SOL    HW214011   1.430  12.974  11.609 -1.4173  0.9205 -0.7534
68966SOL     OW14012   5.668   6.063   2.592  0.4858 -0.4436 -0.3007
68966SOL    HW114013   5.680   6.035   2.683  0.9063  2.9062  0.8228
68966SOL    HW214014   5.753   6.098   2.567 -0.2026  0.6297 -1.2038
68967SOL     OW14015   9.480   7.388   5.346 -0.2903 -0.4117  0.3938
68967SOL    HW114016   9.420   7.450   5.304 -1.7491 -3.5823 -2.7910
68967SOL    HW214017   9.559   7.391   5.293 -0.4452 -1.3362  0.0874
68968SOL     OW14018   0.875   5.060   3.761 -0.1056  0.7952 -0.0964
68968SOL    HW114019   0.950   5.009   3.731 -1.0296 -1.9769  1.8920
68968SOL    HW214020   0.800   5.002   3.747 -1.4686  2.2556  0.7997
68969SOL     OW14021  12.237   8.667  11.985  0.4256  0.1862  0.2535
68969SOL    HW114022  12.291   8.712  11.920  0.4146  0.4633  0.4351
68969SOL    HW214023  12.285   8.677  12.067 -0.2946  1.1506  0.5779
68970SOL     OW14024   5.470   3.963   1.631 -0.5541  0.2251 -0.2860
68970SOL    HW114025   5.559   3.948   1.661  0.0952  2.9100 -0.5854
68970SOL    HW214026   5.434   4.026   1.693 -2.5367 -1.3325  0.2434
68971SOL     OW14027   7.361   7.788   5.034  0.4753 -0.2210 -0.3835
68971SOL    HW114028   7.427   7.719   5.039  1.6347  0.8437 -0.3833
68971SOL    HW214029   7.355   7.809   4.941 -0.1451 -0.5639 -0.4248
68972SOL     OW14030   3.640   3.109   5.698  0.2604  0.1186  0.1050
68972SOL    HW114031   3.730   3.090   5.669 -0.5379 -3.7619 -0.3393
68972SOL    HW214032   3.591   3.118   5.616 -0.4575 -2.2914  0.1952
68973SOL     OW14033   1.249   3.795   1.024  0.1982  0.8697 -0.3299
68973SOL    HW114034   1.248   3.705   0.991 -0.4343  1.0212 -0.7294
68973SOL    HW214035   1.308   3.842   0.965  0.9540  0.6031  0.1993
68974SOL     OW14036   3.469   9.051   9.667 -0.9462  0.0529 -0.1625
68974SOL    HW114037   3.472   8.956   9.680  2.3776  0.0103 -0.3764
68974SOL    HW214038   3.481   9.063   9.573 -1.2336  0.7077 -0.1202
68975SOL     OW14039   8.059   3.642   1.906 -0.2111 -0.3854  0.0475
68975SOL    HW114040   8.063   3.590   1.987 -0.5318 -1.1443 -0.4166
68975SOL    HW214041   8.040   3.579   1.837  0.8130  0.1434 -0.7470
68976SOL     OW14042  12.048   5.984   2.129  0.1756  0.4659 -0.3811
68976SOL    HW114043  12.140   5.957   2.127  0.0280 -0.2750  1.5281
68976SOL    HW214044  12.003   5.914   2.176 -1.4412  0.7043 -1.4798
68977SOL     OW14045  11.041   5.716  10.722 -0.1182 -0.7062  0.3248
68977SOL    HW114046  10.951   5.722  10.691  0.2527  0.0994 -0.6682
68977SOL    HW214047  11.056   5.797  10.770  1.0619  0.7925 -2.3672
68978SOL     OW14048   2.966  11.657   2.812  0.3244  0.0721  0.3838
68978SOL    HW114049   2.883  11.619   2.782  0.4081 -0.9789  1.4398
68978SOL    HW214050   3.032  11.615   2.756  0.1643  1.0070 -0.5477
68979SOL     OW14051   5.819  11.232   5.935  0.0052 -0.2562 -0.1873
68979SOL    HW114052   5.845  11.322   5.954 -1.1528  0.0978 -0.1741
68979SOL    HW214053   5.765  11.240   5.856  0.0603 -0.9672 -0.3000
68980SOL     OW14054   6.667   7.199   3.249 -0.0857  0.2248 -0.1639
68980SOL    HW114055   6.750   7.155   3.268 -0.8264 -1.2196 -0.1686
68980SOL    HW214056   6.616   7.192   3.329 -0.1594  1.2836 -0.0959
68981SOL     OW14057   8.684   6.677   3.097 -0.0703  0.3856  0.3532
68981SOL    HW114058   8.699   6.663   3.004 -0.7111 -0.2084  0.3315
68981SOL    HW214059   8.682   6.772   3.108 -2.6564  0.5289 -0.6983
68982SOL     OW14060   0.186   2.741  11.039  0.5983 -0.1187 -0.1629
68982SOL    HW114061   0.272   2.772  11.012  0.8886 -0.0245  0.8117
68982SOL    HW214062   0.165   2.794  11.116 -1.4666  1.6321 -1.8333
68983SOL     OW14063  10.449   6.846   1.593 -0.2291  0.1559  0.6141
68983SOL    HW114064  10.459   6.909   1.522  0.0833 -0.3951  0.1660
68983SOL    HW214065  10.433   6.901   1.671 -1.7169  0.7193 -0.0520
68984SOL     OW14066   2.093   5.384   9.850  0.4600  0.0034 -0.0369
68984SOL    HW114067   2.068   5.298   9.885 -1.1063 -0.7604 -2.7554
68984SOL    HW214068   2.042   5.446   9.902  0.7491 -0.7605  1.2140
68985SOL     OW14069   1.372   7.731   9.157  0.3089 -0.5113 -0.1379
68985SOL    HW114070   1.317   7.803   9.187  0.4826 -0.8610  1.0518
68985SOL    HW214071   1.456   7.772   9.135  0.1300 -0.2344 -0.3135
68986SOL     OW14072   5.501  10.581   6.759 -0.0154 -0.2643  0.0191
68986SOL    HW114073   5.476  10.504   6.707  2.0697 -0.7892 -0.2781
68986SOL    HW214074   5.447  10.574   6.838  0.0691 -2.0192 -0.0275
68987SOL     OW14075   6.837   6.023   7.251 -0.5277 -0.2475  0.0690
68987SOL    HW114076   6.918   6.027   7.201 -0.0657  1.5234  0.8759
68987SOL    HW214077   6.768   6.041   7.187 -0.2636 -1.2364 -0.5175
68988SOL     OW14078   6.816  11.739   2.654  0.1846  0.1835 -0.7855
68988SOL    HW114079   6.722  11.750   2.668 -0.0414  0.4649 -2.3085
68988SOL    HW214080   6.857  11.800   2.715 -0.6441  0.5556 -0.5873
68989SOL     OW14081   2.999  12.741   1.534 -0.3056  0.6266 -0.1269
68989SOL    HW114082   3.040  12.758   1.619  0.0285  0.1621 -0.1945
68989SOL    HW214083   2.943  12.817   1.519 -1.3667  0.1345  1.1212
68990SOL     OW14084   4.285   7.527   1.071 -0.1132 -0.2567  0.4424
68990SOL    HW114085   4.303   7.618   1.045  0.8003 -0.3042  0.8708
68990SOL    HW214086   4.345   7.510   1.143  0.0916 -1.3804  0.0270
68991SOL     OW14087   8.998   6.038   2.525  0.4124  0.3867 -0.3451
68991SOL    HW114088   9.006   5.956   2.476 -2.0882  0.1508 -0.4620
68991SOL    HW214089   8.982   6.010   2.615  3.4062  0.8203  0.4128
68992SOL     OW14090   1.445   0.463   1.097 -0.2770 -0.2542  0.1206
68992SOL    HW114091   1.385   0.416   1.039 -0.0775 -0.0426 -0.2569
68992SOL    HW214092   1.394   0.537   1.130 -0.7584 -0.9979  1.1127
68993SOL     OW14093  10.908  12.516   1.171  0.4046  0.0345  0.3140
68993SOL    HW114094  10.826  12.500   1.216 -0.1397 -0.2149 -0.7421
68993SOL    HW214095  10.908  12.610   1.153 -0.8764 -0.3235 -1.9267
68994SOL     OW14096  12.773  11.405   5.669 -0.0124  0.5306 -0.1299
68994SOL    HW114097  12.715  11.347   5.717  1.1551 -0.5855 -0.0177
68994SOL    HW214098  12.720  11.438   5.596 -0.2825 -1.9962 -1.1838
68995SOL     OW14099   2.100   1.342   7.984  0.3265 -0.2409  0.1693
68995SOL    HW114100   2.109   1.250   8.005  0.4523 -0.0465  0.9975
68995SOL    HW214101   2.156   1.387   8.047 -0.1962  0.4361  0.1659
68996SOL     OW14102  10.216   8.331   8.840  0.3246 -0.1941  0.1087
68996SOL    HW114103  10.279   8.260   8.827 -0.7345 -1.4666  1.6549
68996SOL    HW214104  10.245   8.374   8.921 -0.1818 -0.1226  0.2548
68997SOL     OW14105   8.447  12.731   5.833 -0.1311 -0.2691 -0.0369
68997SOL    HW114106   8.452  12.676   5.754  1.0379  0.3810 -0.4439
68997SOL    HW214107   8.355  12.756   5.840 -0.4055 -1.0441 -0.6935
68998SOL     OW14108   3.396   0.192   4.740 -0.6495  0.3597 -0.9589
68998SOL    HW114109   3.393   0.194   4.645 -1.4609  1.3778 -0.9216
68998SOL    HW214110   3.309   0.164   4.767 -0.5371  0.4405 -0.4997
68999SOL     OW14111   6.660   7.715   5.765  0.0641  0.3502  0.0829
68999SOL    HW114112   6.721   7.744   5.697  0.5868  0.5483  0.6313
68999SOL    HW214113   6.575   7.752   5.738 -0.3708 -1.8944 -1.9652
69000SOL     OW14114  10.036  10.177   5.866  0.0867  0.1510  0.8921
69000SOL    HW114115  10.009  10.132   5.786 -0.8304  2.2831 -0.0757
69000SOL    HW214116  10.044  10.108   5.931 -1.4029 -1.3885 -0.4638
69001SOL     OW14117   6.424   1.849   4.090  0.1438 -0.2867 -0.2094
69001SOL    HW114118   6.356   1.788   4.063 -1.4816  1.1306  0.4548
69001SOL    HW214119   6.429   1.840   4.185  0.2952  0.2121 -0.1657
69002SOL     OW14120  11.789  11.564   4.085 -0.4654 -0.8353 -0.2069
69002SOL    HW114121  11.754  11.543   4.172 -1.6624 -2.0509 -0.9339
69002SOL    HW214122  11.758  11.652   4.067 -0.1915 -0.5675  0.6019
69003SOL     OW14123   2.518   4.852   6.229 -0.1266  0.3377  0.3584
69003SOL    HW114124   2.592   4.860   6.168 -1.1869  1.6696 -0.8283
69003SOL    HW214125   2.554   4.808   6.305  1.2918 -1.3491 -1.1936
69004SOL     OW14126   9.777   5.582  10.069  0.8685 -0.0559  0.0541
69004SOL    HW114127   9.806   5.672  10.085 -0.1111  0.4717 -0.9073
69004SOL    HW214128   9.747   5.550  10.154  0.8319  0.6902  0.3281
69005SOL     OW14129   2.229   5.777  12.392 -0.1171  0.3781 -0.5621
69005SOL    HW114130   2.153   5.802  12.338 -0.2570  1.2887  0.0441
69005SOL    HW214131   2.293   5.744  12.328 -1.5717 -1.9194 -0.9536
69006SOL     OW14132  10.540  11.348  11.172 -0.0708 -0.1527  0.9854
69006SOL    HW114133  10.497  11.395  11.243 -1.4552 -2.0773  1.4909
69006SOL    HW214134  10.625  11.322  11.208  0.8180  2.0238  0.6247
69007SOL     OW14135   4.621  10.064  11.003  0.2913  0.3344  0.0534
69007SOL    HW114136   4.607  10.068  10.908 -2.0185 -0.3457  0.2909
69007SOL    HW214137   4.627  10.155  11.030  1.6299  0.5259 -0.8024
69008SOL     OW14138  11.738   6.685   3.631  0.2576  0.3884  0.0878
69008SOL    HW114139  11.833   6.697   3.643  0.4625 -0.3156 -0.7230
69008SOL    HW214140  11.711   6.631   3.704  0.6936 -0.3005 -0.2449
69009SOL     OW14141   1.673   9.733   9.505  0.2173  0.0535 -0.1671
69009SOL    HW114142   1.716   9.653   9.537  0.6665  0.4214  0.1595
69009SOL    HW214143   1.642   9.777   9.585 -1.2359 -0.4531 -0.4191
69010SOL     OW14144   9.088  11.226   2.952  0.4611 -0.3125 -0.6517
69010SOL    HW114145   9.160  11.287   2.966 -0.3328  0.7076 -0.8430
69010SOL    HW214146   9.009  11.278   2.969 -0.2153 -1.8173  1.2016
69011SOL     OW14147   2.498   4.225   3.832  0.1446 -0.0186 -0.5368
69011SOL    HW114148   2.566   4.234   3.899 -0.5851 -2.2604  0.5952
69011SOL    HW214149   2.517   4.140   3.790 -1.8189 -0.6025 -0.3241
69012SOL     OW14150   7.992  10.099  10.669 -0.0850 -0.3769  0.3222
69012SOL    HW114151   8.070  10.142  10.634 -0.2080  0.3924  0.9685
69012SOL    HW214152   7.933  10.093  10.594  0.0263  0.3879  0.1573
69013SOL     OW14153   4.641   2.581   9.720 -0.0969  0.6442 -0.1955
69013SOL    HW114154   4.703   2.635   9.769 -0.2278  0.8850 -0.2944
69013SOL    HW214155   4.693   2.540   9.651 -0.1998  1.4852 -0.7897
69014SOL     OW14156  11.336   0.231   5.977  0.2988  0.5435 -0.5528
69014SOL    HW114157  11.322   0.168   6.047  2.1144  1.9571  1.1994
69014SOL    HW214158  11.264   0.216   5.916 -1.3283 -0.7961  1.5701
69015SOL     OW14159   0.071   0.706  11.939  0.5098 -0.4282  0.1759
69015SOL    HW114160  -0.004   0.704  11.880 -0.1215  2.2283  0.7499
69015SOL    HW214161   0.065   0.625  11.989 -1.0413 -1.0044 -0.8671
69016SOL     OW14162   7.528   7.785   7.798 -0.1624 -0.3672 -0.3810
69016SOL    HW114163   7.556   7.694   7.808 -2.0070 -0.8019  1.8218
69016SOL    HW214164   7.503   7.792   7.706  2.2952 -1.3255 -1.1987
69017SOL     OW14165   4.903   4.056   1.715 -0.0950  0.1691  0.2245
69017SOL    HW114166   4.916   4.129   1.655  1.6293 -1.1117 -1.0589
69017SOL    HW214167   4.835   4.003   1.675  0.0675  0.0341  0.1281
69018SOL     OW14168  10.934   9.081   5.125 -0.1784 -0.2425  0.1789
69018SOL    HW114169  10.925   8.986   5.129 -0.3649 -0.3229 -1.3770
69018SOL    HW214170  10.995   9.096   5.052  1.2259  0.7913  1.5014
69019SOL     OW14171   7.093   2.049  12.031 -0.1163  0.4260  0.1763
69019SOL    HW114172   7.026   2.084  11.973 -0.9451  1.2085  1.5422
69019SOL    HW214173   7.046   2.028  12.112  0.9550 -0.8597  0.4977
69020SOL     OW14174   6.333   2.178  11.802 -0.1535  0.4403 -0.0971
69020SOL    HW114175   6.238   2.187  11.813 -0.2113 -0.5508  0.4172
69020SOL    HW214176   6.347   2.083  11.796  0.7342  0.6106 -0.9111
69021SOL     OW14177   6.940   1.853   0.680  0.1956  0.2673  0.3886
69021SOL    HW114178   7.031   1.876   0.694  0.5309 -2.1706  3.0828
69021SOL    HW214179   6.939   1.806   0.597  1.4628  0.0335  0.4979
69022SOL     OW14180   1.635   0.023   0.166 -0.5164 -0.2824 -0.0678
69022SOL    HW114181   1.591  -0.023   0.237 -0.9373 -0.6007 -0.5314
69022SOL    HW214182   1.638  -0.041   0.094  1.4602 -0.5907  0.2194
69023SOL     OW14183   2.442   0.781  11.365 -0.0971 -0.0580 -0.2929
69023SOL    HW114184   2.370   0.745  11.416 -0.7107  0.4859 -0.7663
69023SOL    HW214185   2.516   0.782  11.426 -0.6497 -0.0058  0.3912
69024SOL     OW14186   6.041   4.716   3.089 -0.4497  0.8908 -0.0467
69024SOL    HW114187   6.082   4.700   3.173 -0.6602 -1.5749 -0.3537
69024SOL    HW214188   6.115   4.731   3.029  0.0995 -2.3694 -0.3652
69025SOL     OW14189   1.001   9.327   8.193 -0.5487 -0.0824 -0.7232
69025SOL    HW114190   0.991   9.290   8.105 -0.9268  1.3700 -1.3207
69025SOL    HW214191   1.095   9.329   8.207 -0.5155 -1.2264 -0.6762
69026SOL     OW14192   1.671   2.252  12.047 -0.2793 -0.3039 -0.5382
69026SOL    HW114193   1.657   2.274  12.139  0.8568 -0.7639 -0.2413
69026SOL    HW214194   1.611   2.179  12.030 -0.8461  0.1004 -0.3081
69027SOL     OW14195  11.683   3.936  12.310 -0.3238 -0.1317  0.6226
69027SOL    HW114196  11.712   4.021  12.278  1.7253 -0.1938  2.1009
69027SOL    HW214197  11.655   3.952  12.400  0.4845 -1.0645  1.0610
69028SOL     OW14198  12.623   5.433   1.501 -0.1432  0.2449 -0.6098
69028SOL    HW114199  12.621   5.338   1.499 -1.0926  0.2148  0.7016
69028SOL    HW214200  12.680   5.455   1.574 -0.3953  0.6817 -0.5392
69029SOL     OW14201  11.047  11.063   0.721 -0.2212 -0.0248  0.1429
69029SOL    HW114202  11.047  11.026   0.809 -2.8963  0.7542  0.5532
69029SOL    HW214203  11.136  11.094   0.708  0.0746  0.4907  2.8799
69030SOL     OW14204   7.375  12.913   1.187 -0.1845 -0.3349 -0.1882
69030SOL    HW114205   7.385  12.820   1.204 -1.0430 -0.2989  0.5807
69030SOL    HW214206   7.452  12.953   1.228  0.7953 -0.7913 -1.5217
69031SOL     OW14207   8.310   0.835   3.026 -0.7657  0.3698 -0.0090
69031SOL    HW114208   8.293   0.756   2.974  1.1882  0.7604 -1.3795
69031SOL    HW214209   8.314   0.906   2.961 -0.0319  1.1703  0.8767
69032SOL     OW14210   9.912   8.389   7.943 -0.1367 -0.1413 -0.5676
69032SOL    HW114211   9.900   8.388   7.849  0.6608 -1.9591 -0.6998
69032SOL    HW214212   9.911   8.297   7.968 -1.3969  0.3308  1.3602
69033SOL     OW14213   9.463  10.915   1.583  0.2362  0.0161  0.1053
69033SOL    HW114214   9.470  10.831   1.627 -1.8715 -0.5129 -0.4887
69033SOL    HW214215   9.454  10.893   1.490 -0.0229  0.9196 -0.0927
69034SOL     OW14216   7.217   0.062  10.250 -0.1371  0.2715  0.3439
69034SOL    HW114217   7.237   0.073  10.343  0.4084  0.8788  0.1699
69034SOL    HW214218   7.237   0.148  10.212 -0.8514  0.1816 -0.2481
69035SOL     OW14219  10.752   4.746   7.629 -0.1856 -0.4721  0.4767
69035SOL    HW114220  10.765   4.670   7.573  0.6080  0.1299 -0.1911
69035SOL    HW214221  10.835   4.756   7.676 -0.2902 -0.0342  0.5774
69036SOL     OW14222   7.994   5.501   6.022  0.1945  0.1507  0.2916
69036SOL    HW114223   7.915   5.491   5.970 -0.2454 -0.8654  1.1063
69036SOL    HW214224   8.043   5.570   5.979  0.1309 -1.0304 -1.8109
69037SOL     OW14225   1.275  10.598   4.851 -0.4931 -0.0666 -0.2296
69037SOL    HW114226   1.260  10.691   4.838 -0.7062 -0.3426 -2.3738
69037SOL    HW214227   1.342  10.575   4.786  0.5794 -1.1692  1.1844
69038SOL     OW14228   7.618  11.138   4.148  0.5296  0.1515 -0.5796
69038SOL    HW114229   7.654  11.197   4.082  0.5648  0.6321 -0.1416
69038SOL    HW214230   7.685  11.136   4.217  0.1355  0.3014 -0.1900
69039SOL     OW14231   0.412   4.888   7.782  0.3213  0.3202  0.0402
69039SOL    HW114232   0.329   4.850   7.813 -0.1584 -0.2292 -1.7839
69039SOL    HW214233   0.386   4.968   7.736  0.5946 -0.6551 -1.8909
69040SOL     OW14234  11.524   9.468   2.671  0.1360 -0.8290  0.2444
69040SOL    HW114235  11.589   9.526   2.710  2.4060 -1.8631 -1.6996
69040SOL    HW214236  11.517   9.395   2.732 -0.7328  0.1877  1.4084
69041SOL     OW14237   2.611   8.347   2.184 -0.2401  0.3470  0.7530
69041SOL    HW114238   2.583   8.309   2.267  2.2824 -2.5565  0.4676
69041SOL    HW214239   2.574   8.288   2.118  0.8318  0.4610  0.0409
69042SOL     OW14240   7.838  10.836   1.335  0.2507 -0.2459 -0.2972
69042SOL    HW114241   7.888  10.894   1.277  1.9019 -2.3435 -1.1077
69042SOL    HW214242   7.901  10.806   1.400 -0.8550 -0.2639  0.8102
69043SOL     OW14243  10.438   9.522   8.750  0.1371  0.6784 -0.2151
69043SOL    HW114244  10.371   9.504   8.684 -1.2493 -0.2984  1.3660
69043SOL    HW214245  10.397   9.585   8.809  0.8207  0.5019  0.4566
69044SOL     OW14246  11.934  11.055  10.781 -0.6834  0.4540  0.2779
69044SOL    HW114247  11.996  11.074  10.852 -1.3726  0.4274  0.8942
69044SOL    HW214248  11.949  10.963  10.760  2.2317  1.3288 -2.2906
69045SOL     OW14249   9.055   9.036  10.557  0.0898  0.1575  0.2410
69045SOL    HW114250   9.107   9.115  10.542 -0.2035  1.0566  3.3533
69045SOL    HW214251   9.121   8.967  10.567  0.5046  0.6063  0.6485
69046SOL     OW14252   5.324  10.542   3.865  0.3440  0.0476 -0.0006
69046SOL    HW114253   5.266  10.610   3.832 -0.2666 -1.1036 -1.4074
69046SOL    HW214254   5.267  10.467   3.880  0.5991  0.3706  3.5941
69047SOL     OW14255   7.566   4.164  10.464 -0.3517  0.1519 -0.2743
69047SOL    HW114256   7.635   4.221  10.432  0.2011 -1.2046 -1.5869
69047SOL    HW214257   7.545   4.106  10.391 -1.3435 -0.9182  0.7887
69048SOL     OW14258   3.841   1.524   2.064  0.2198 -0.1776  0.4046
69048SOL    HW114259   3.848   1.572   2.146 -0.6601 -0.0006  0.3820
69048SOL    HW214260   3.748   1.526   2.042  0.7006  2.0981 -1.9674
69049SOL     OW14261   8.674  10.664  12.198  0.1977 -0.2513 -0.4592
69049SOL    HW114262   8.646  10.755  12.194  0.8118  0.0868  1.6857
69049SOL    HW214263   8.661  10.639  12.289 -0.8644 -2.6390 -1.1648
69050SOL     OW14264  11.282   0.778   0.241  0.2773 -0.0238 -0.4226
69050SOL    HW114265  11.355   0.841   0.241  0.4797 -0.1626  1.9717
69050SOL    HW214266  11.274   0.751   0.333 -2.4778 -0.4072 -0.6951
69051SOL     OW14267  10.342  10.535   5.018  0.5362  0.2283  0.3136
69051SOL    HW114268  10.336  10.466   5.085 -0.6889  0.6483  0.6513
69051SOL    HW214269  10.411  10.593   5.050  1.9516 -1.0588 -0.2187
69052SOL     OW14270  11.217   3.133   7.251 -0.1275 -0.6223  0.0200
69052SOL    HW114271  11.175   3.048   7.266  0.2617 -0.8133  0.0560
69052SOL    HW214272  11.230   3.169   7.339  1.4360 -1.3889  0.1457
69053SOL     OW14273   7.113   8.939  12.377 -0.2358 -0.3870  0.0506
69053SOL    HW114274   7.123   8.909  12.287 -0.2782 -1.0171  0.2496
69053SOL    HW214275   7.026   8.978  12.380 -0.6016 -1.1797  0.0349
69054SOL     OW14276   9.395   5.812   8.084 -0.2163  0.1909  0.1499
69054SOL    HW114277   9.403   5.764   8.166 -1.0375 -0.3475 -0.0729
69054SOL    HW214278   9.324   5.768   8.037 -1.0328  1.6468 -0.0444
69055SOL     OW14279  10.011   9.060   3.082 -0.5540 -0.3401 -0.4379
69055SOL    HW114280  10.040   9.151   3.084  0.3692 -0.6124 -0.9488
69055SOL    HW214281  10.036   9.028   2.995 -0.5070 -1.1954 -0.1221
69056SOL     OW14282   6.533  11.783   4.644 -0.3513 -0.8338 -0.1067
69056SOL    HW114283   6.511  11.737   4.725 -2.0150  0.3210  0.1656
69056SOL    HW214284   6.610  11.738   4.610 -0.2814 -2.0393  1.5432
69057SOL     OW14285   3.243   0.200   4.003 -0.1364 -0.2745 -0.4305
69057SOL    HW114286   3.201   0.150   4.074 -0.6399 -2.3461 -2.0717
69057SOL    HW214287   3.300   0.136   3.959  0.1080  0.9081 -1.9159
69058SOL     OW14288  11.138   3.366  11.854 -0.3737  0.1151 -0.6473
69058SOL    HW114289  11.174   3.390  11.769  0.7231 -1.4123 -0.6536
69058SOL    HW214290  11.136   3.271  11.853 -0.1558  0.0625  1.1168
69059SOL     OW14291  12.538   5.558   1.926 -0.4890 -0.7170  0.6604
69059SOL    HW114292  12.442   5.554   1.934 -0.6646  1.4383  0.2303
69059SOL    HW214293  12.553   5.615   1.850  1.1377 -0.7385  0.9403
69060SOL     OW14294  10.924   9.563   7.240  0.7181  0.6896 -0.0088
69060SOL    HW114295  10.866   9.597   7.172  1.2731 -1.9321 -1.9537
69060SOL    HW214296  11.001   9.532   7.193  1.8951  0.2869  2.0397
69061SOL     OW14297   8.499   4.754  10.265  0.1312 -0.3246 -0.1841
69061SOL    HW114298   8.563   4.797  10.207 -0.3352 -0.6788 -0.9763
69061SOL    HW214299   8.517   4.661  10.256  1.1476 -0.3504  1.5457
69062SOL     OW14300   6.134   6.790  12.577  0.2148  0.3767 -0.0535
69062SOL    HW114301   6.209   6.851  12.571  0.3178  0.5716  2.1979
69062SOL    HW214302   6.103   6.800  12.667 -0.9306 -1.5970 -0.1793
69063SOL     OW14303   7.567   0.683   9.586 -0.1856 -0.3739  0.0271
69063SOL    HW114304   7.472   0.672   9.594 -0.2785  0.1122 -0.3612
69063SOL    HW214305   7.594   0.619   9.521 -0.4555  0.4087 -0.8803
69064SOL     OW14306   1.157  10.502   2.984  0.4859  0.2945  0.1935
69064SOL    HW114307   1.208  10.566   2.934 -1.9326  0.3770 -2.4165
69064SOL    HW214308   1.203  10.419   2.972  1.6091  0.8701  0.4462
69065SOL     OW14309   0.140   4.632   4.359  0.5269  0.2093 -0.0541
69065SOL    HW114310   0.142   4.666   4.448  1.8419  1.6851 -0.5928
69065SOL    HW214311   0.211   4.568   4.356  0.1797 -0.1830  0.0815
69066SOL     OW14312   4.690  11.774   0.148  0.6870 -0.1502  0.0638
69066SOL    HW114313   4.638  11.751   0.226  0.1396 -0.1611 -0.2997
69066SOL    HW214314   4.776  11.797   0.183 -0.3315  2.6101  0.9780
69067SOL     OW14315   7.644   4.939   6.274  0.0928  0.4910  0.5451
69067SOL    HW114316   7.624   4.998   6.346  0.2781  2.4356 -0.9240
69067SOL    HW214317   7.658   4.854   6.316 -0.5079  1.3892  2.6988
69068SOL     OW14318   1.086   2.914   1.976  0.2150 -0.5834  0.2149
69068SOL    HW114319   1.059   2.927   2.067  1.6907  3.3730  0.2971
69068SOL    HW214320   1.019   2.960   1.925  0.2916 -1.3550 -0.6140
69069SOL     OW14321  11.905  12.044   9.045 -0.0572  0.0642 -0.1864
69069SOL    HW114322  11.826  12.049   8.990 -0.9482  0.7436  1.1053
69069SOL    HW214323  11.945  12.130   9.037 -0.1712  0.1534  0.2004
69070SOL     OW14324   9.346   4.922  10.539  0.4715 -0.2818 -0.3511
69070SOL    HW114325   9.269   4.867  10.554  1.1028 -1.0461  0.1524
69070SOL    HW214326   9.408   4.865  10.495  0.5634  0.4848 -1.2431
69071SOL     OW14327   4.682   6.210  10.896 -0.4128  0.5797  0.1265
69071SOL    HW114328   4.588   6.212  10.914 -0.2472  2.1765  0.9894
69071SOL    HW214329   4.718   6.148  10.959 -0.7641  0.7734  0.5228
69072SOL     OW14330   2.643   4.956   5.576 -0.1884 -0.6704 -0.0465
69072SOL    HW114331   2.566   4.927   5.527 -0.4984  0.1924 -0.0913
69072SOL    HW214332   2.704   4.883   5.571 -1.3070 -1.6880  0.6639
69073SOL     OW14333   0.488   4.999   5.946 -0.1429  0.5812 -0.4011
69073SOL    HW114334   0.449   4.977   6.031  0.7700 -0.1358 -0.1531
69073SOL    HW214335   0.414   5.027   5.892 -0.7506  0.9883  0.6054
69074SOL     OW14336   4.971   6.520   0.773  0.4512 -0.2675 -0.6890
69074SOL    HW114337   4.958   6.571   0.693 -1.2405  1.3721  0.5383
69074SOL    HW214338   4.890   6.469   0.782  0.5904 -0.3762  0.0117
69075SOL     OW14339   3.168   6.632   3.095 -1.3032  0.4258  0.6090
69075SOL    HW114340   3.088   6.673   3.129 -2.2057 -1.1634  0.5000
69075SOL    HW214341   3.143   6.599   3.009 -0.3971  0.2471  0.4030
69076SOL     OW14342   8.068  10.961   3.283 -0.3721 -0.5490  0.0664
69076SOL    HW114343   8.146  10.970   3.228  0.2054  0.1021  0.9698
69076SOL    HW214344   8.088  11.010   3.362 -1.0279 -1.8232  1.0612
69077SOL     OW14345  12.958  12.286  11.909 -0.1198  0.1184  0.5407
69077SOL    HW114346  13.013  12.236  11.849  0.6571  1.2740  0.2576
69077SOL    HW214347  12.901  12.338  11.853  1.5817  2.2990  0.6663
69078SOL     OW14348  11.953  12.800   7.273  0.4226  0.4613  0.1278
69078SOL    HW114349  12.002  12.789   7.192  1.1018  4.2826 -0.1727
69078SOL    HW214350  11.862  12.813   7.245  0.7931  2.6842 -0.1968
69079SOL     OW14351   2.316   2.863   6.812 -0.4610  0.0206  0.6555
69079SOL    HW114352   2.226   2.896   6.811  0.1946  1.9370  0.6938
69079SOL    HW214353   2.354   2.898   6.893  0.1530 -1.2875  0.9627
69080SOL     OW14354   2.529   4.527   5.902  0.0586 -0.5067  0.7036
69080SOL    HW114355   2.434   4.527   5.890  0.1317 -1.9001 -0.0340
69080SOL    HW214356   2.548   4.445   5.947  0.8731 -0.0191  1.2747
69081SOL     OW14357   3.298   2.781   0.268  0.1033 -0.4845 -0.0229
69081SOL    HW114358   3.308   2.875   0.281 -1.0975 -0.4600  0.8964
69081SOL    HW214359   3.345   2.741   0.341  0.8172 -0.6100 -0.5471
69082SOL     OW14360   9.738  11.945  11.767  0.4543  0.1049 -0.4022
69082SOL    HW114361   9.828  11.965  11.742  0.9523  0.6949  1.6692
69082SOL    HW214362   9.720  12.002  11.842 -1.4579 -0.4036 -0.4083
69083SOL     OW14363  12.837   3.392   6.750  0.3920  0.6944 -0.1556
69083SOL    HW114364  12.887   3.311   6.758 -1.5875 -0.7057 -1.3590
69083SOL    HW214365  12.818   3.400   6.657 -1.0140  1.5607  0.1728
69084SOL     OW14366   5.207   5.714   2.370 -0.3953  0.1375  0.5785
69084SOL    HW114367   5.158   5.671   2.440  2.2504 -1.1259  1.7919
69084SOL    HW214368   5.238   5.795   2.411 -1.6189  1.0926 -0.2896
69085SOL     OW14369  11.257   6.222   0.562  0.1761  0.2342  0.2303
69085SOL    HW114370  11.304   6.153   0.610  1.2469  0.2996 -0.6854
69085SOL    HW214371  11.201   6.263   0.628  1.4494  0.1849  1.3866
69086SOL     OW14372   6.136   8.464   8.308 -0.0410  0.6141 -0.4462
69086SOL    HW114373   6.088   8.381   8.317  0.9694 -0.0917 -1.2763
69086SOL    HW214374   6.223   8.438   8.279  1.3792  1.7587  2.4403
69087SOL     OW14375   2.140   2.806   1.915 -0.1966 -0.8650 -0.5187
69087SOL    HW114376   2.117   2.718   1.886  1.1759 -1.2407 -0.5254
69087SOL    HW214377   2.195   2.793   1.993  0.2384 -0.0382 -0.6726
69088SOL     OW14378   1.950   9.128   5.904  0.1965  0.0930  0.3165
69088SOL    HW114379   1.886   9.189   5.869  1.7303  0.5722 -1.8748
69088SOL    HW214380   1.936   9.047   5.856  2.6461  0.9060 -2.0913
69089SOL     OW14381   3.836   7.161  12.762 -0.1898 -0.1367 -0.1166
69089SOL    HW114382   3.761   7.108  12.790 -0.2222  0.9235  1.9942
69089SOL    HW214383   3.808   7.252  12.776  0.8414  0.3587 -1.0768
69090SOL     OW14384   4.254   7.071   7.582 -0.3988 -0.0112 -0.2812
69090SOL    HW114385   4.321   7.093   7.517  2.2224 -1.8411  1.5731
69090SOL    HW214386   4.277   7.122   7.659 -2.2726  0.6671 -0.1400
69091SOL     OW14387  12.118   3.182   0.462 -0.1074  0.1082  0.5198
69091SOL    HW114388  12.031   3.151   0.488  1.1672 -3.3826  1.2914
69091SOL    HW214389  12.158   3.214   0.542  0.0942 -0.5402  0.6890
69092SOL     OW14390   9.718   1.570   2.054 -0.7343  0.0868  0.0699
69092SOL    HW114391   9.707   1.655   2.012 -2.1223  0.1363  0.4707
69092SOL    HW214392   9.640   1.560   2.109  0.4274 -0.4946  1.7130
69093SOL     OW14393  11.233   2.513   8.067  0.2072  0.1770 -0.3241
69093SOL    HW114394  11.156   2.463   8.095 -0.1186  0.8368 -0.0196
69093SOL    HW214395  11.304   2.481   8.122 -0.2903  1.0065  0.8382
69094SOL     OW14396   0.537   3.618   3.433  0.1712  0.4387  0.5911
69094SOL    HW114397   0.604   3.574   3.487  0.6680  0.6768  0.1781
69094SOL    HW214398   0.461   3.624   3.491  0.5768  0.3609  1.1529
69095SOL     OW14399  12.782  11.182   2.111  0.3741  0.1648  0.0449
69095SOL    HW114400  12.745  11.096   2.125  0.4295 -0.0036 -0.7598
69095SOL    HW214401  12.741  11.238   2.177  0.0849 -0.4024  0.3494
69096SOL     OW14402  11.783   1.826   8.579  0.0886 -0.0323  0.1057
69096SOL    HW114403  11.692   1.847   8.558 -0.6041 -1.6448  1.2522
69096SOL    HW214404  11.811   1.768   8.508  0.3180  0.6560 -0.3744
69097SOL     OW14405  12.495   8.254  10.142  0.0991  0.4407 -0.5608
69097SOL    HW114406  12.499   8.251  10.047  2.2617 -1.5731 -0.4853
69097SOL    HW214407  12.576   8.212  10.171 -1.7634 -1.6051  2.1799
69098SOL     OW14408   8.788   9.005  12.791 -0.9178  0.1455  0.0757
69098SOL    HW114409   8.717   9.004  12.728 -0.4341  0.5596 -0.4926
69098SOL    HW214410   8.787   8.918  12.830  0.2511 -0.9783 -2.1891
69099SOL     OW14411  12.808  10.316   6.019 -0.4367 -0.1132 -0.4096
69099SOL    HW114412  12.808  10.377   6.092  0.8585 -0.4403 -0.1148
69099SOL    HW214413  12.900  10.291   6.008 -0.8155 -1.2647 -1.1430
69100SOL     OW14414  10.757  11.987  12.414 -0.4281  0.9612 -0.7197
69100SOL    HW114415  10.745  11.933  12.335  0.1327  0.8684 -0.7432
69100SOL    HW214416  10.705  11.943  12.481 -0.1381  0.4999 -0.7924
69101SOL     OW14417  12.199   4.799   4.749 -0.4040  0.0062  0.0734
69101SOL    HW114418  12.112   4.815   4.711 -0.0182  0.6534 -0.5632
69101SOL    HW214419  12.253   4.772   4.675  0.4491  1.6417  0.0446
69102SOL     OW14420   7.721   0.045  12.169 -0.0318 -0.3683 -0.2879
69102SOL    HW114421   7.723   0.122  12.226 -0.3568 -0.5417 -0.0385
69102SOL    HW214422   7.761   0.075  12.087  0.0980 -0.0133 -0.0981
69103SOL     OW14423   1.678   0.169  10.565 -0.3234  0.0870  0.3383
69103SOL    HW114424   1.614   0.103  10.537  1.4123 -2.2716  1.5159
69103SOL    HW214425   1.707   0.137  10.651  0.7354  2.3615  0.8776
69104SOL     OW14426  11.070   0.475   2.477 -0.0902 -0.1087  0.4563
69104SOL    HW114427  11.141   0.539   2.470 -0.4698  0.1705 -1.7808
69104SOL    HW214428  10.998   0.524   2.515 -0.1861  0.6659 -0.6643
69105SOL     OW14429   1.503   0.506   1.668 -0.3200  0.0137 -0.4473
69105SOL    HW114430   1.573   0.561   1.633 -1.0019  0.7008 -0.7454
69105SOL    HW214431   1.437   0.504   1.599 -0.5526 -0.7210 -0.2117
69106SOL     OW14432   0.383   3.093   1.001 -0.8929  0.3550 -1.0156
69106SOL    HW114433   0.372   3.148   0.924 -1.1990  0.9102 -0.5814
69106SOL    HW214434   0.313   3.120   1.061  1.0909  2.0561  0.6914
69107SOL     OW14435  10.751  10.443   1.704 -0.4021  0.4127  0.4199
69107SOL    HW114436  10.766  10.415   1.794  1.8808  0.4646  0.1101
69107SOL    HW214437  10.750  10.538   1.708 -1.4347  0.4092  0.5227
69108SOL     OW14438   0.706   6.477   9.448  0.0603  0.3354  0.7320
69108SOL    HW114439   0.765   6.507   9.517  1.1784  0.2083 -0.1477
69108SOL    HW214440   0.763   6.437   9.383 -1.2651 -3.1481  1.5193
69109SOL     OW14441   8.100   5.505   0.817  0.2637  0.2373 -0.0142
69109SOL    HW114442   8.129   5.595   0.797  0.6537 -0.0359 -0.7324
69109SOL    HW214443   8.081   5.506   0.911  0.3737  1.0426  0.0087
69110SOL     OW14444   3.516   7.926  12.884  0.2150  0.2367  0.3857
69110SOL    HW114445   3.456   7.986  12.840  1.7034  0.7866 -0.9884
69110SOL    HW214446   3.600   7.970  12.882  1.0141 -1.2089  0.8176
69111SOL     OW14447   7.576  10.786   3.697  0.0603 -0.4668  0.2573
69111SOL    HW114448   7.564  10.702   3.652 -0.3759 -0.6913  0.7917
69111SOL    HW214449   7.501  10.793   3.756  0.0334  0.3506  0.1427
69112SOL     OW14450   4.485   5.409   9.873  0.6130 -0.1881 -0.2945
69112SOL    HW114451   4.445   5.483   9.828 -0.2159 -0.5667 -0.2020
69112SOL    HW214452   4.494   5.342   9.806 -0.8151 -0.8269  0.1255
69113SOL     OW14453   4.830  11.662  10.451 -0.6026  0.1563 -0.2560
69113SOL    HW114454   4.775  11.674  10.373 -0.4442  0.4697 -0.3209
69113SOL    HW214455   4.767  11.652  10.523 -0.7838 -1.8967 -0.6521
69114SOL     OW14456   6.596   9.380   9.358  0.1603  0.2964 -0.1294
69114SOL    HW114457   6.546   9.383   9.440  0.2336  3.1263 -0.1107
69114SOL    HW214458   6.649   9.459   9.359 -1.1821  1.4262 -3.6974
69115SOL     OW14459   6.618  10.264   8.020  0.0646 -0.1326 -0.0569
69115SOL    HW114460   6.628  10.273   8.115 -0.1027  0.4417 -0.0897
69115SOL    HW214461   6.671  10.335   7.983 -1.2318  0.7336 -0.3296
69116SOL     OW14462   5.666   5.669   1.867 -0.0259 -0.1005 -0.2689
69116SOL    HW114463   5.603   5.693   1.935  1.1680  1.5906  0.3251
69116SOL    HW214464   5.630   5.590   1.827 -1.3772 -0.4460  1.5111
69117SOL     OW14465   2.688   2.493   3.537 -0.4114 -0.0974  0.0807
69117SOL    HW114466   2.751   2.421   3.532 -0.5466 -0.5229  2.7690
69117SOL    HW214467   2.741   2.569   3.562 -0.9402 -0.7507  3.8034
69118SOL     OW14468   1.790   2.194   0.859  0.7553  0.7643 -0.1054
69118SOL    HW114469   1.875   2.222   0.893  0.3063  1.3105  0.6117
69118SOL    HW214470   1.739   2.172   0.937  0.6678 -0.8644 -0.6001
69119SOL     OW14471   7.635   5.315   5.528 -0.2744 -0.2495 -0.4957
69119SOL    HW114472   7.657   5.222   5.525  0.0895 -0.2425  1.1495
69119SOL    HW214473   7.581   5.324   5.607 -1.2670  0.7565 -1.2484
69120SOL     OW14474  10.658  12.465   9.502  0.1126  0.1384  0.0839
69120SOL    HW114475  10.738  12.480   9.554 -0.4392  0.9636  0.7197
69120SOL    HW214476  10.645  12.547   9.454 -0.8795  0.3780  0.7277
69121SOL     OW14477  10.579   8.656   5.255  1.0750 -0.0601  0.4238
69121SOL    HW114478  10.545   8.571   5.227  0.3882  0.0431  0.9053
69121SOL    HW214479  10.544   8.719   5.192  1.8471 -0.1661 -0.1208
69122SOL     OW14480   2.943   1.001   0.171 -0.2191 -0.1987  0.3739
69122SOL    HW114481   3.017   1.033   0.221  1.7418 -2.2528 -1.0480
69122SOL    HW214482   2.937   1.061   0.096 -0.9608  0.7947  1.1876
69123SOL     OW14483   0.700   8.603   1.661  0.1020 -0.5669 -0.2190
69123SOL    HW114484   0.682   8.547   1.585  0.6513 -0.3216 -0.5348
69123SOL    HW214485   0.756   8.549   1.717  0.3832 -0.4408 -0.3805
69124SOL     OW14486   9.653   0.243   8.277 -0.1486 -0.4420  0.3188
69124SOL    HW114487   9.615   0.225   8.191  0.1582 -1.2822  0.3429
69124SOL    HW214488   9.584   0.288   8.326  0.5155  2.4593 -1.1938
69125SOL     OW14489   5.701   3.203   2.856 -1.0137  0.3459  0.4439
69125SOL    HW114490   5.638   3.179   2.924 -2.1340 -3.1328 -1.6204
69125SOL    HW214491   5.765   3.132   2.856 -0.4269  0.8161 -1.3969
69126SOL     OW14492   9.610   1.983   8.663 -0.0275  0.3499 -0.1509
69126SOL    HW114493   9.689   2.033   8.641 -0.9457  2.7064  1.4775
69126SOL    HW214494   9.576   1.956   8.578  1.2852  1.3219 -1.0442
69127SOL     OW14495   4.540   3.033   6.617 -0.3546  0.1147  0.5292
69127SOL    HW114496   4.536   3.078   6.702  0.2441 -0.0450  0.6464
69127SOL    HW214497   4.603   2.962   6.631  0.9160  1.0131 -0.4728
69128SOL     OW14498   6.943  12.879   3.977  0.0240  0.3972 -0.4747
69128SOL    HW114499   6.961  12.821   4.052 -0.0106  1.2487  0.2115
69128SOL    HW214500   6.848  12.879   3.970  0.0495 -0.1413 -0.9015
69129SOL     OW14501   2.256   0.459   2.938 -0.0756 -0.9778  0.7885
69129SOL    HW114502   2.284   0.368   2.932 -0.0874 -0.9891  0.8910
69129SOL    HW214503   2.245   0.474   3.032 -2.2023 -1.5258  0.6756
69130SOL     OW14504   2.725  11.809   5.415  0.7654 -0.4973  0.0953
69130SOL    HW114505   2.735  11.896   5.454  0.6687 -0.3983 -0.0985
69130SOL    HW214506   2.657  11.767   5.467  1.1301 -0.6200  0.4690
69131SOL     OW14507   4.881   6.767   9.994  0.6867 -0.0503 -0.2195
69131SOL    HW114508   4.847   6.853   9.969  0.6816  0.2370  0.7613
69131SOL    HW214509   4.952   6.751   9.931 -0.1068  0.1078 -1.1845
69132SOL     OW14510  11.209   8.312  12.206 -0.1575 -0.5374 -0.2021
69132SOL    HW114511  11.297   8.275  12.200  0.8791  1.7725 -0.2793
69132SOL    HW214512  11.192   8.349  12.119 -0.0869  1.3253  0.5308
69133SOL     OW14513  10.459   6.753   0.820 -0.5577  0.0466 -0.1013
69133SOL    HW114514  10.415   6.826   0.862  1.0974  0.9934  0.0674
69133SOL    HW214515  10.442   6.765   0.726 -0.1335  0.7722 -0.0896
69134SOL     OW14516   8.427  10.855   9.989  0.3504 -0.8643  0.5134
69134SOL    HW114517   8.488  10.909  10.041 -0.0817 -0.6163  0.7686
69134SOL    HW214518   8.467  10.768   9.988  0.8072 -0.6567  0.5188
69135SOL     OW14519   6.886   4.873  10.593 -0.4658 -0.3335 -0.2411
69135SOL    HW114520   6.910   4.958  10.557 -4.4416  1.5243  0.9033
69135SOL    HW214521   6.887   4.887  10.688  1.2828 -2.4451  0.1217
69136SOL     OW14522   7.190   2.592   3.212 -0.0994 -0.7366  0.2140
69136SOL    HW114523   7.145   2.671   3.180  0.4840 -0.3165  0.4162
69136SOL    HW214524   7.237   2.560   3.135  0.9170  0.0031  0.5015
69137SOL     OW14525   9.586   0.302  10.544  0.5382  0.2477 -0.5101
69137SOL    HW114526   9.507   0.306  10.598  1.3352 -0.2748  0.7376
69137SOL    HW214527   9.565   0.239  10.475 -0.3347  0.5738 -0.5564
69138SOL     OW14528   2.943   8.828   2.385 -0.5129 -0.4081  0.5202
69138SOL    HW114529   2.864   8.782   2.356  0.3654 -1.6607  0.0276
69138SOL    HW214530   2.983   8.861   2.305  1.1117 -2.5505  0.3653
69139SOL     OW14531   0.838  10.438   0.581 -0.2125 -0.1139  0.6893
69139SOL    HW114532   0.835  10.376   0.509  0.4791 -0.5657  1.0418
69139SOL    HW214533   0.757  10.422   0.630 -2.3915  2.4043 -1.7445
69140SOL     OW14534   8.486   6.568   3.689  0.3508 -0.0925 -0.4406
69140SOL    HW114535   8.441   6.638   3.736  1.8824  2.7413 -2.8875
69140SOL    HW214536   8.427   6.544   3.618  0.4665 -0.1519 -0.5175
69141SOL     OW14537  10.373   1.957   1.762 -0.0988  0.0355 -0.4019
69141SOL    HW114538  10.360   2.051   1.749 -1.3116  0.3905  2.5982
69141SOL    HW214539  10.461   1.941   1.728  0.8408  2.6280  0.5129
69142SOL     OW14540   3.853   2.221   5.548 -0.6355  0.0645  0.0165
69142SOL    HW114541   3.844   2.126   5.541 -1.5021  0.0031  1.6819
69142SOL    HW214542   3.790   2.247   5.614 -0.0735  1.7600 -0.0655
69143SOL     OW14543   9.295   9.016   2.009  0.4067  0.2646  0.1106
69143SOL    HW114544   9.229   9.081   2.034 -0.3234 -0.3359 -0.2064
69143SOL    HW214545   9.342   8.997   2.089  0.2656  0.7805  0.3214
69144SOL     OW14546   8.044   7.596  10.550 -0.3611  0.1261  0.6428
69144SOL    HW114547   8.073   7.513  10.588  2.3371  0.6531 -0.0992
69144SOL    HW214548   8.077   7.663  10.611 -2.7686  0.7176  1.4030
69145SOL     OW14549   8.307   9.143   1.527 -0.0643  0.0416  0.3738
69145SOL    HW114550   8.381   9.103   1.481 -1.2955 -2.1860  0.1599
69145SOL    HW214551   8.270   9.206   1.465  1.2127  0.6820  0.2361
69146SOL     OW14552   8.840   1.677   4.103  0.3140  0.3131 -0.5218
69146SOL    HW114553   8.870   1.680   4.194  0.7939  0.5611 -0.6820
69146SOL    HW214554   8.891   1.606   4.064 -0.5045 -0.3593 -0.3901
69147SOL     OW14555   6.381   1.317   7.692 -0.3781 -0.1029  0.3407
69147SOL    HW114556   6.292   1.351   7.682 -1.2845 -2.2042  0.6765
69147SOL    HW214557   6.404   1.284   7.606 -0.4088 -0.6617  0.5448
69148SOL     OW14558   2.989   7.074  12.151 -0.0991 -0.5200 -0.2641
69148SOL    HW114559   2.898   7.059  12.176 -1.2032  2.3372 -2.0978
69148SOL    HW214560   3.026   7.123  12.224 -0.6159 -0.0052 -0.3422
69149SOL     OW14561   3.687   5.719   5.480 -0.2769  0.3513 -0.0480
69149SOL    HW114562   3.776   5.724   5.515 -0.8420 -1.1438  1.7432
69149SOL    HW214563   3.649   5.805   5.498  0.9619  1.2304 -1.4099
69150SOL     OW14564   7.877   5.320   5.095 -0.6114 -0.4168 -0.5638
69150SOL    HW114565   7.958   5.305   5.143 -1.1697 -0.0237  0.5269
69150SOL    HW214566   7.859   5.413   5.105 -1.1730 -0.4872 -0.8272
69151SOL     OW14567   1.285   0.239   8.936  0.9846  0.1332 -0.9287
69151SOL    HW114568   1.381   0.237   8.939  0.9530 -0.1581  1.6129
69151SOL    HW214569   1.260   0.297   9.008 -0.7956 -2.2717  0.5081
69152SOL     OW14570  12.227   6.193   8.708  0.4080  0.0768 -0.1719
69152SOL    HW114571  12.232   6.287   8.727 -3.1587  0.2024  0.8621
69152SOL    HW214572  12.164   6.187   8.637 -0.4055 -1.5768  0.6463
69153SOL     OW14573   0.615  11.747   3.300  1.0208 -0.4549 -0.5493
69153SOL    HW114574   0.576  11.821   3.347  0.3303 -0.4970 -1.0568
69153SOL    HW214575   0.625  11.778   3.210  1.4035 -0.7324 -0.6041
69154SOL     OW14576  12.569   6.507   0.717 -0.3260 -0.0156 -0.1121
69154SOL    HW114577  12.551   6.542   0.629 -0.2968  1.4419  0.4399
69154SOL    HW214578  12.483   6.492   0.755 -0.3748  1.4673  0.4079
69155SOL     OW14579   1.564   7.389  12.714  0.1892  0.2220  0.3593
69155SOL    HW114580   1.551   7.299  12.744  1.9690 -0.1388  0.1793
69155SOL    HW214581   1.499   7.440  12.761 -0.9334 -1.1637  0.3859
69156SOL     OW14582  12.398   0.110   0.793 -0.2725  0.1482 -0.5682
69156SOL    HW114583  12.401   0.096   0.887  0.1739  1.6340 -0.3407
69156SOL    HW214584  12.373   0.025   0.757 -1.8723 -0.0758  0.9716
69157SOL     OW14585   2.993   8.447  11.682  0.0415 -0.0095 -0.1676
69157SOL    HW114586   3.010   8.536  11.651  0.3444 -0.7004 -2.1593
69157SOL    HW214587   2.960   8.401  11.605 -1.5683 -1.2573  1.1905
69158SOL     OW14588   9.794  11.374   7.787 -0.2878  0.3554  0.7086
69158SOL    HW114589   9.715  11.322   7.802  0.5208 -1.4240 -0.7858
69158SOL    HW214590   9.761  11.458   7.753 -1.5897 -1.0905 -1.9562
69159SOL     OW14591   1.549  10.530   0.797  0.2094  0.0973 -0.2716
69159SOL    HW114592   1.548  10.604   0.858 -1.0190 -0.2807  0.2089
69159SOL    HW214593   1.460  10.528   0.761 -0.0138 -1.5638  0.2710
69160SOL     OW14594   7.025   8.649   6.909  0.1681  0.1540  0.2101
69160SOL    HW114595   7.048   8.741   6.899  2.0024 -0.1611  1.1196
69160SOL    HW214596   6.958   8.648   6.977  0.4546  0.7956  0.5117
69161SOL     OW14597   0.543   2.226   3.827  0.3886 -0.0818  0.2683
69161SOL    HW114598   0.501   2.214   3.742  0.5541 -1.7469  0.3943
69161SOL    HW214599   0.483   2.284   3.875  0.1362  0.6192 -0.8496
69162SOL     OW14600   7.950   9.141   9.104 -0.2688 -0.8917  0.0391
69162SOL    HW114601   7.964   9.229   9.069 -2.3100 -0.6614 -0.3361
69162SOL    HW214602   7.997   9.083   9.045  1.0652 -0.0877  0.2602
69163SOL     OW14603  11.410   7.534  12.635  0.5701 -0.0269  0.0724
69163SOL    HW114604  11.323   7.535  12.674  0.5957  2.2731  0.2204
69163SOL    HW214605  11.404   7.471  12.564 -1.6790  1.1039 -0.8312
69164SOL     OW14606   8.685   9.009   7.057  0.0494  0.0754 -0.3994
69164SOL    HW114607   8.725   9.050   7.134 -1.9424  0.3609  0.5332
69164SOL    HW214608   8.615   9.069   7.032 -1.0468 -1.3242 -0.8037
69165SOL     OW14609   3.464  12.228   6.088  0.5873 -0.4257 -0.3111
69165SOL    HW114610   3.402  12.188   6.150  0.3286 -1.1169 -0.9921
69165SOL    HW214611   3.408  12.267   6.021  0.8705  0.0574 -0.2655
69166SOL     OW14612  10.589   8.324  11.204  0.4662 -0.2904 -0.5392
69166SOL    HW114613  10.627   8.408  11.179  0.2145 -0.1991 -0.6235
69166SOL    HW214614  10.657   8.260  11.185  1.1860  0.0314  0.8067
69167SOL     OW14615   7.902   4.724  10.416  0.3176 -0.0693  0.4031
69167SOL    HW114616   7.952   4.648  10.447 -0.7277 -0.6627  0.6877
69167SOL    HW214617   7.825   4.726  10.473  0.5833  1.5326  0.7414
69168SOL     OW14618  10.444   2.799   4.831  0.4139  0.2642  0.2255
69168SOL    HW114619  10.397   2.880   4.854  0.9676  1.1194 -1.4850
69168SOL    HW214620  10.418   2.781   4.741  0.0489 -1.7026  0.6791
69169SOL     OW14621  10.708  10.045   2.675  0.4154 -1.1091  0.1358
69169SOL    HW114622  10.665  10.000   2.603  1.1300 -1.0217 -0.3568
69169SOL    HW214623  10.734   9.975   2.735  0.9096 -1.3124 -0.2958
69170SOL     OW14624   5.284   6.067   8.633 -0.5410  0.3285  0.1494
69170SOL    HW114625   5.326   6.060   8.547 -1.2019  0.7006 -0.2198
69170SOL    HW214626   5.275   6.161   8.647  1.3058  0.3509  1.5280
69171SOL     OW14627  12.269   3.661   1.756 -0.0568 -0.3221 -0.2979
69171SOL    HW114628  12.217   3.691   1.831  1.0346  0.5016  0.1621
69171SOL    HW214629  12.255   3.729   1.689 -0.9484 -1.0047 -0.8347
69172SOL     OW14630   2.017   4.466   3.597  0.1458  0.4234 -0.3610
69172SOL    HW114631   1.969   4.430   3.523 -0.5553  1.0271 -0.2054
69172SOL    HW214632   2.109   4.464   3.569 -0.1365  0.9188 -1.3643
69173SOL     OW14633   9.042  11.869   0.876  0.4140 -0.5750 -0.1377
69173SOL    HW114634   8.953  11.893   0.902  0.6720 -1.3688  1.5707
69173SOL    HW214635   9.031  11.792   0.821  0.0090 -0.2691 -0.4954
69174SOL     OW14636  10.669   3.289   5.757 -0.0565 -0.2534  0.0161
69174SOL    HW114637  10.725   3.293   5.835 -1.4749 -0.6299  1.0976
69174SOL    HW214638  10.715   3.341   5.691  0.7074  0.9144  1.4221
69175SOL     OW14639  11.575   6.954   0.010 -0.1013 -0.3833 -0.4813
69175SOL    HW114640  11.615   6.870   0.033  0.5693  0.4575  1.6470
69175SOL    HW214641  11.481   6.942   0.027  0.0461 -0.5955  0.2160
69176SOL     OW14642   3.341   4.923   4.648  0.5005  0.3678 -0.2282
69176SOL    HW114643   3.426   4.933   4.606  1.1972  2.2961  1.4820
69176SOL    HW214644   3.361   4.901   4.739 -0.8565 -0.3366 -0.0740
69177SOL     OW14645   8.165  10.878   1.104 -0.0749  0.2409 -0.7136
69177SOL    HW114646   8.156  10.809   1.170  1.7562  0.0227 -0.6483
69177SOL    HW214647   8.164  10.831   1.021  1.5579  0.0353 -0.6565
69178SOL     OW14648   1.952   7.634  12.674  0.7507  0.1583 -0.0397
69178SOL    HW114649   1.936   7.722  12.640  0.3556  0.8913  1.8841
69178SOL    HW214650   1.877   7.583  12.643  0.0243  0.9794  0.2922
69179SOL     OW14651   6.225   1.512  12.737  0.1061  0.0034  0.0199
69179SOL    HW114652   6.254   1.469  12.657  0.7065  1.0034 -0.3147
69179SOL    HW214653   6.130   1.513  12.730  0.1917  0.9705 -1.1628
69180SOL     OW14654   8.214  10.945   9.508 -0.2343  0.4191  0.3180
69180SOL    HW114655   8.191  10.856   9.481 -0.3586  0.4344  0.3743
69180SOL    HW214656   8.162  11.001   9.450  1.5176  0.4978 -1.2766
69181SOL     OW14657   1.821   7.676  10.349  0.1443 -0.1212  0.7273
69181SOL    HW114658   1.909   7.709  10.364 -0.1110  0.3879  1.1517
69181SOL    HW214659   1.823   7.640  10.260  0.5867  0.5255  0.4693
69182SOL     OW14660  12.886   4.653   6.362  0.2272  0.3691  0.1845
69182SOL    HW114661  12.854   4.674   6.274  2.1684  0.7387 -0.4840
69182SOL    HW214662  12.875   4.558   6.369  2.0774 -0.0444 -1.3980
69183SOL     OW14663  10.242   2.739   5.973  0.3973 -0.2463 -0.2237
69183SOL    HW114664  10.175   2.686   5.930  0.2676 -0.4807  0.2724
69183SOL    HW214665  10.285   2.680   6.035 -0.8474  0.6160  1.5331
69184SOL     OW14666   7.226  11.561  12.849 -0.1636  0.0335  0.3693
69184SOL    HW114667   7.303  11.545  12.796  0.3088  1.3144  0.6218
69184SOL    HW214668   7.221  11.486  12.909  1.2391  0.2249  0.7517
69185SOL     OW14669   6.340   9.263   3.961  0.0794  0.0747 -0.7396
69185SOL    HW114670   6.283   9.191   3.934  1.1027 -0.9501 -0.2217
69185SOL    HW214671   6.340   9.259   4.056  2.3640 -1.0667 -0.7248
69186SOL     OW14672   4.383   8.379   4.366  0.1602  0.0189  0.1512
69186SOL    HW114673   4.315   8.328   4.411 -1.7104  1.7609 -0.5465
69186SOL    HW214674   4.415   8.440   4.433 -0.9323  1.0175 -0.2125
69187SOL     OW14675   7.102   7.217   9.304  0.1040 -0.1490 -0.1396
69187SOL    HW114676   7.118   7.307   9.274  0.6850  0.4817  1.8474
69187SOL    HW214677   7.012   7.199   9.279  0.9251 -0.2915 -3.4498
69188SOL     OW14678   3.068   6.652  12.444  0.8828  0.2730 -0.6773
69188SOL    HW114679   3.102   6.666  12.533 -0.8606  0.6008 -0.0241
69188SOL    HW214680   3.108   6.723  12.393 -1.0705  2.5580  0.7376
69189SOL     OW14681  12.163   6.045  11.655 -0.4714 -0.2076  0.2368
69189SOL    HW114682  12.088   6.004  11.698  1.2071 -1.8984  1.7751
69189SOL    HW214683  12.171   5.998  11.572  1.2414 -3.0614  1.8501
69190SOL     OW14684   3.842   5.725  11.166  0.3225 -0.3152 -0.8081
69190SOL    HW114685   3.773   5.700  11.105  0.6905 -1.3471 -0.8320
69190SOL    HW214686   3.835   5.662  11.238 -0.0486  0.8249  0.1865
69191SOL     OW14687   7.410   1.027   5.478 -0.0304  0.1093  0.0830
69191SOL    HW114688   7.458   1.045   5.559  1.3002 -0.5946 -0.5267
69191SOL    HW214689   7.421   0.933   5.463 -1.5188 -0.0644 -0.1581
69192SOL     OW14690  10.979   6.869  10.260  0.1646 -0.4697  0.1315
69192SOL    HW114691  11.055   6.811  10.269  0.2592 -0.1734  1.4201
69192SOL    HW214692  10.928   6.830  10.189  2.1101  0.0065 -1.6274
69193SOL     OW14693   3.497   7.450   9.958 -0.0793 -0.2900  0.0984
69193SOL    HW114694   3.537   7.425   9.875  0.4237 -1.2040  0.5878
69193SOL    HW214695   3.409   7.479   9.936  0.0096 -0.6473 -0.7383
69194SOL     OW14696   3.824  10.927   5.758  0.0513  0.5699 -0.1126
69194SOL    HW114697   3.741  10.886   5.784 -0.4762  1.9700  0.4744
69194SOL    HW214698   3.839  10.995   5.823  1.1127  1.0594 -0.8422
69195SOL     OW14699   0.149   3.525   3.042 -0.4970  0.4034 -0.1270
69195SOL    HW114700   0.233   3.524   2.996 -1.8701  0.8780 -2.8279
69195SOL    HW214701   0.115   3.437   3.033 -0.8982  0.5665 -0.2117
69196SOL     OW14702   9.332   3.499   0.424  0.1867 -0.9453 -0.0974
69196SOL    HW114703   9.262   3.510   0.360  0.9383  0.8479 -0.6861
69196SOL    HW214704   9.289   3.513   0.509  0.0127  1.6447 -0.5250
69197SOL     OW14705   0.597  12.573   8.040 -0.0574 -0.0685  0.6783
69197SOL    HW114706   0.662  12.623   8.088 -0.8137 -0.7859  2.5830
69197SOL    HW214707   0.647  12.513   7.986  0.8370  1.4886 -0.2842
69198SOL     OW14708  12.899   6.781   0.644  0.2852 -0.8792 -0.8579
69198SOL    HW114709  12.988   6.816   0.642  0.3758 -0.9501  0.7947
69198SOL    HW214710  12.912   6.686   0.651  0.0438 -1.1362 -3.2158
69199SOL     OW14711   7.245   2.641   7.509  0.2444  0.3451 -0.4849
69199SOL    HW114712   7.320   2.618   7.454  0.4220  0.9110 -0.4873
69199SOL    HW214713   7.262   2.598   7.593 -0.2669 -0.9346 -0.9986
69200SOL     OW14714   6.679   4.009   1.437 -0.0158 -0.2743 -0.3058
69200SOL    HW114715   6.636   4.027   1.520  0.4681  1.3630 -0.3718
69200SOL    HW214716   6.659   3.918   1.418 -1.7528 -0.1272  0.6470
69201SOL     OW14717   1.285   6.711   6.405  0.5905 -0.4438  0.3780
69201SOL    HW114718   1.244   6.633   6.369  0.2796 -0.1126  0.0175
69201SOL    HW214719   1.328   6.753   6.331  0.4201 -0.0589  0.4951
69202SOL     OW14720   3.262   5.552   0.630  0.1362  0.9207 -0.4885
69202SOL    HW114721   3.258   5.629   0.687  0.5464  1.2881 -0.9538
69202SOL    HW214722   3.323   5.576   0.561  0.3616  0.1330 -0.5733
69203SOL     OW14723   5.081   1.875   9.692  0.0527 -0.1773 -0.2903
69203SOL    HW114724   5.085   1.793   9.742 -0.8539 -0.5802 -0.8649
69203SOL    HW214725   5.053   1.941   9.756  0.7438 -0.3114  0.1629
69204SOL     OW14726   5.599   1.313   2.363 -0.1981  0.2682  0.0679
69204SOL    HW114727   5.678   1.366   2.379 -0.3944  0.9317 -1.0039
69204SOL    HW214728   5.527   1.376   2.367 -0.5024 -0.0269 -0.6048
69205SOL     OW14729   7.252   0.836   4.922 -0.3481  0.2589 -0.4395
69205SOL    HW114730   7.211   0.758   4.884 -0.9009  0.2450  0.1840
69205SOL    HW214731   7.222   0.908   4.866  1.2942 -0.1200 -1.8898
69206SOL     OW14732   6.632   4.061   3.764 -0.4002  0.2821  0.3300
69206SOL    HW114733   6.644   3.966   3.760 -1.2488  0.0579  2.1369
69206SOL    HW214734   6.613   4.079   3.856 -1.5143  2.0390 -0.1889
69207SOL     OW14735   4.807  10.139   8.136 -0.5455  0.1884 -0.0285
69207SOL    HW114736   4.819  10.053   8.094 -1.5458 -0.7168  1.4587
69207SOL    HW214737   4.885  10.189   8.110  1.5425 -2.1131  1.3403
69208SOL     OW14738   2.523   0.917  10.704  0.4901  0.7769 -0.3342
69208SOL    HW114739   2.450   0.887  10.650  1.1351 -0.9184 -0.3401
69208SOL    HW214740   2.600   0.905  10.649  0.9982  0.4460  0.4222
69209SOL     OW14741   1.592   9.730   6.216  0.1433  1.2696  0.2915
69209SOL    HW114742   1.566   9.674   6.289  0.4110  0.0119 -0.5429
69209SOL    HW214743   1.516   9.785   6.199 -0.9786 -0.3933 -0.2986
69210SOL     OW14744   2.063   4.137   6.179 -0.4143  0.2127 -0.2547
69210SOL    HW114745   2.155   4.113   6.193 -1.0587 -3.1743 -1.0179
69210SOL    HW214746   2.067   4.214   6.123  1.9364  0.4682  0.1397
69211SOL     OW14747   5.679   3.188   9.031  0.4864  0.0921  0.6298
69211SOL    HW114748   5.638   3.114   8.986  0.8002  0.4390 -0.2529
69211SOL    HW214749   5.699   3.154   9.119 -0.8674 -0.3455  0.7938
69212SOL     OW14750   5.537   2.196   8.109 -0.2724 -0.6364 -0.0616
69212SOL    HW114751   5.489   2.261   8.161  0.7970 -0.7333  1.1000
69212SOL    HW214752   5.483   2.117   8.114  0.2384 -0.9104  1.6993
69213SOL     OW14753   2.444   9.784  12.316 -0.1755  0.0085 -0.2748
69213SOL    HW114754   2.373   9.833  12.358 -1.8858 -1.1102 -1.6964
69213SOL    HW214755   2.455   9.828  12.231  0.9849  0.2776  0.0032
69214SOL     OW14756   3.663   9.758   0.700 -0.3129  0.3953  0.2963
69214SOL    HW114757   3.573   9.727   0.686 -0.5385  1.6443 -1.2971
69214SOL    HW214758   3.667   9.841   0.653  2.2528 -0.5277 -1.3078
69215SOL     OW14759   2.156   2.586   9.238 -0.0208 -0.5987  0.2021
69215SOL    HW114760   2.192   2.519   9.181 -0.3999  0.4158 -1.2704
69215SOL    HW214761   2.230   2.644   9.258 -0.3090  0.2573 -1.0603
69216SOL     OW14762   7.029   2.581  10.967 -0.0380 -0.6273  0.0137
69216SOL    HW114763   6.985   2.584  11.053 -0.9378 -3.6753 -0.2036
69216SOL    HW214764   7.119   2.556  10.987  0.4870  1.2834  0.1842
69217SOL     OW14765   8.360  11.186   2.326 -0.7198  0.5090 -0.4837
69217SOL    HW114766   8.437  11.223   2.370  0.2228 -0.1289 -1.5400
69217SOL    HW214767   8.393  11.156   2.242 -1.9447 -0.5891 -0.6016
69218SOL     OW14768   8.759   4.123   4.401  0.3015 -0.5539  0.0423
69218SOL    HW114769   8.827   4.188   4.420  1.0949 -1.1505 -0.7052
69218SOL    HW214770   8.723   4.150   4.317  0.5444 -1.0059 -0.2079
69219SOL     OW14771   8.590   4.530   3.608 -0.0554  0.6368 -0.4584
69219SOL    HW114772   8.669   4.487   3.641 -0.1924 -1.1398 -2.2968
69219SOL    HW214773   8.614   4.623   3.604  1.3510  0.3534  0.6109
69220SOL     OW14774   7.253   7.627   9.378 -0.6677 -0.3951 -0.0409
69220SOL    HW114775   7.186   7.650   9.443 -0.4634  3.5053 -0.9829
69220SOL    HW214776   7.334   7.623   9.428 -1.0252 -1.3313  0.4985
69221SOL     OW14777   0.327   4.726   8.971 -0.0831  0.2927 -0.1675
69221SOL    HW114778   0.288   4.661   9.029 -0.2084 -2.9893 -3.6205
69221SOL    HW214779   0.421   4.716   8.985 -0.1337  0.7530  0.6067
69222SOL     OW14780   0.435   9.973  11.898  0.0057  0.0274 -0.0591
69222SOL    HW114781   0.450   9.983  11.992 -1.8956 -0.0299  0.2840
69222SOL    HW214782   0.523   9.973  11.859  0.7737  1.1202  1.6008
69223SOL     OW14783   3.430   1.268   6.851 -0.5880  0.0435 -0.1086
69223SOL    HW114784   3.429   1.340   6.788 -1.4662  0.0193 -0.1364
69223SOL    HW214785   3.487   1.299   6.921  1.0147 -0.2407 -1.2399
69224SOL     OW14786   2.171   2.171   3.784  0.0320 -0.1984 -0.2059
69224SOL    HW114787   2.227   2.182   3.707  0.7768  0.2263  0.3805
69224SOL    HW214788   2.184   2.079   3.809  3.7585  0.7911  2.3201
69225SOL     OW14789   4.345   0.285  10.740 -0.1608  0.2169 -0.5387
69225SOL    HW114790   4.264   0.257  10.783 -0.7013  0.3726 -1.4294
69225SOL    HW214791   4.376   0.359  10.793 -0.3491 -0.1407  0.0744
69226SOL     OW14792   9.497   2.564   6.149 -0.0123  0.2658  0.4582
69226SOL    HW114793   9.514   2.636   6.210 -1.2882  0.7475  0.2923
69226SOL    HW214794   9.401   2.562   6.142  0.0641  1.4422 -2.8929
69227SOL     OW14795  10.819   5.519   4.628  0.1536  0.2531 -0.2248
69227SOL    HW114796  10.904   5.525   4.671 -0.3061 -0.3478  0.8041
69227SOL    HW214797  10.756   5.550   4.693 -0.4660  0.2723 -0.8156
69228SOL     OW14798   5.468   0.151   6.238  0.0383  0.0901 -0.3011
69228SOL    HW114799   5.425   0.212   6.298 -2.2319 -0.6474 -1.0757
69228SOL    HW214800   5.490   0.075   6.292 -0.8023 -0.0394 -0.1372
69229SOL     OW14801   3.031  12.810   6.804  0.5416  0.1645  0.3023
69229SOL    HW114802   3.108  12.835   6.754 -0.3957  1.3391 -0.6217
69229SOL    HW214803   3.034  12.864   6.883  1.0945 -0.4125  0.6841
69230SOL     OW14804   4.197   0.926   0.763 -0.0030 -0.8393  0.0350
69230SOL    HW114805   4.286   0.894   0.744  0.6943 -0.8190  2.7973
69230SOL    HW214806   4.199   1.018   0.737  0.7170 -0.8855 -0.1191
69231SOL     OW14807   2.039  11.130   2.299 -0.1509  1.2635 -0.1304
69231SOL    HW114808   2.116  11.073   2.305 -1.0186  0.1369  0.8416
69231SOL    HW214809   2.006  11.116   2.211  0.5076  1.4302 -0.4122
69232SOL     OW14810   3.678   1.334   0.003 -0.0941 -0.2973 -0.6115
69232SOL    HW114811   3.607   1.348  -0.060 -0.8032  1.1445  0.4540
69232SOL    HW214812   3.704   1.422   0.031  2.7843 -0.7137 -1.6285
69233SOL     OW14813   8.455   7.848  12.875  0.1679  0.4521  0.1035
69233SOL    HW114814   8.376   7.890  12.842  0.4374  1.5286  0.7548
69233SOL    HW214815   8.495   7.915  12.931  1.4981 -0.0946 -0.1655
69234SOL     OW14816   0.332   9.426   1.556 -0.1296 -0.0451 -0.1858
69234SOL    HW114817   0.322   9.512   1.515 -0.0481 -0.2402 -0.6180
69234SOL    HW214818   0.263   9.372   1.517 -0.2782 -0.1360  0.1984
69235SOL     OW14819   2.031   3.787   6.100  0.2108 -0.2232 -0.0651
69235SOL    HW114820   1.997   3.852   6.162 -0.0751 -0.4414  0.0055
69235SOL    HW214821   1.966   3.716   6.101 -0.2583  0.1685 -1.2821
69236SOL     OW14822   8.581   6.894   6.031  0.8718  0.1290  0.3788
69236SOL    HW114823   8.587   6.890   5.936  1.2984 -0.5903  0.4299
69236SOL    HW214824   8.650   6.835   6.062 -0.2363 -0.8195  1.1095
69237SOL     OW14825   5.257   1.832  11.082 -0.0861  0.3299  0.0000
69237SOL    HW114826   5.177   1.780  11.072  1.3553 -1.7303 -1.7938
69237SOL    HW214827   5.296   1.832  10.995  2.2223  0.6687  0.9817
69238SOL     OW14828   9.496  11.433   9.843  0.0090 -0.8066 -0.0752
69238SOL    HW114829   9.492  11.528   9.838  1.3458 -0.7640 -0.7839
69238SOL    HW214830   9.405  11.405   9.833 -0.3698  0.3796 -0.0842
69239SOL     OW14831   7.543   2.686   1.079 -0.8779 -0.2861 -0.1540
69239SOL    HW114832   7.517   2.653   1.165  1.5659  1.0530  1.1966
69239SOL    HW214833   7.630   2.648   1.064  0.6997  2.9256  0.0916
69240SOL     OW14834   5.431   7.937   0.286  0.3965 -0.6389 -0.0958
69240SOL    HW114835   5.386   7.929   0.202 -0.0588  0.2511  0.0604
69240SOL    HW214836   5.432   8.030   0.305 -0.1119 -0.8786  1.2140
69241SOL     OW14837   3.605  10.654   0.847 -0.1182 -0.5443 -0.3404
69241SOL    HW114838   3.591  10.574   0.897 -0.1323 -1.6490 -2.0406
69241SOL    HW214839   3.560  10.722   0.897 -2.3536 -2.0571 -0.1800
69242SOL     OW14840  11.634   8.561   9.859 -0.2657  0.1178  0.0312
69242SOL    HW114841  11.574   8.597   9.925  0.7902  0.0040  1.0846
69242SOL    HW214842  11.678   8.638   9.822 -0.5708  0.1502 -0.2733
69243SOL     OW14843  12.772   0.658  10.043 -0.3344 -0.0353 -0.0512
69243SOL    HW114844  12.773   0.575   9.995  0.7454 -1.0212  1.5734
69243SOL    HW214845  12.797   0.723   9.978  0.1522 -1.1781 -1.0583
69244SOL     OW14846   6.446   0.455   5.614 -0.3315  0.4677 -0.2003
69244SOL    HW114847   6.464   0.430   5.705 -0.8642  0.8102 -0.0038
69244SOL    HW214848   6.495   0.390   5.563 -0.0427  0.2587  0.3233
69245SOL     OW14849   2.541   8.881   6.466  0.1512 -0.0481  0.8631
69245SOL    HW114850   2.549   8.786   6.455 -2.3439 -0.3495  1.1293
69245SOL    HW214851   2.632   8.912   6.465  1.0589 -1.8860 -3.6710
69246SOL     OW14852   0.900  10.188   4.134 -0.3023  0.0855  0.3194
69246SOL    HW114853   0.921  10.225   4.220 -0.8396  1.3012 -0.0563
69246SOL    HW214854   0.842  10.114   4.154 -1.0776  0.8521  0.9753
69247SOL     OW14855  10.760   9.366   1.608 -0.0852 -0.2973  0.2031
69247SOL    HW114856  10.771   9.417   1.528  1.2304  0.6286  0.9418
69247SOL    HW214857  10.826   9.400   1.668 -0.6898 -1.3305  1.5153
69248SOL     OW14858  12.333   3.829   9.898  0.0352  0.2840 -0.7080
69248SOL    HW114859  12.356   3.745   9.859 -1.5288 -0.6288  0.2296
69248SOL    HW214860  12.415   3.862   9.936  0.3144 -1.6833  0.4887
69249SOL     OW14861  11.105   1.919   5.954 -0.3770 -0.5813 -0.3126
69249SOL    HW114862  11.090   1.828   5.927 -0.7938 -0.7988  0.6191
69249SOL    HW214863  11.100   1.917   6.049 -0.2843  0.4071 -0.2792
69250SOL     OW14864   0.255   9.004   0.969  0.3335 -0.3432  0.3482
69250SOL    HW114865   0.288   9.046   0.890  3.4144 -1.3734  0.9421
69250SOL    HW214866   0.235   9.077   1.028  2.5370  0.4491  0.2351
69251SOL     OW14867  10.627   6.576   2.695 -0.3054 -0.0524 -0.4824
69251SOL    HW114868  10.623   6.671   2.703  0.3681 -0.1691  2.0681
69251SOL    HW214869  10.721   6.556   2.690 -0.3892 -0.6477  0.1662
69252SOL     OW14870   8.453   0.658   1.636  0.3615 -0.2293 -0.9558
69252SOL    HW114871   8.488   0.593   1.698 -0.4077  0.3024  0.0677
69252SOL    HW214872   8.403   0.719   1.691 -1.6625 -0.6150 -2.2548
69253SOL     OW14873   4.631  12.416   4.979  0.2410  0.8558 -0.4572
69253SOL    HW114874   4.687  12.481   4.936 -1.2323  0.7341 -2.7529
69253SOL    HW214875   4.569  12.390   4.911 -1.0742 -0.7876  1.2760
69254SOL     OW14876  10.063   6.882  11.595 -0.0217 -0.1379 -0.2819
69254SOL    HW114877  10.056   6.798  11.641 -0.9295  0.1644  0.1617
69254SOL    HW214878  10.081   6.859  11.504  3.2004 -0.7427  0.3642
69255SOL     OW14879   0.894   9.367   5.484  0.0357  0.6648 -0.1421
69255SOL    HW114880   0.905   9.344   5.577 -1.1207  0.7784  0.0415
69255SOL    HW214881   0.879   9.462   5.484  1.9967  1.0031 -0.6423
69256SOL     OW14882   7.853  11.902   2.457 -0.7599 -0.4232 -0.0239
69256SOL    HW114883   7.806  11.985   2.443  0.0488 -0.1105 -1.0136
69256SOL    HW214884   7.828  11.875   2.545 -0.2079  1.4454  0.7498
69257SOL     OW14885   4.805   2.836  10.249 -0.1516  0.0222  0.1118
69257SOL    HW114886   4.859   2.913  10.265  1.3281 -0.9874  0.1624
69257SOL    HW214887   4.820   2.814  10.157 -1.1506  0.2096 -0.1121
69258SOL     OW14888   6.100   6.112   8.502 -0.3772  0.4215  0.1091
69258SOL    HW114889   6.080   6.096   8.410  0.9830  1.0472 -0.3190
69258SOL    HW214890   6.181   6.162   8.500  0.3714 -0.6580  1.6949
69259SOL     OW14891  12.100  12.209   9.972  0.0251 -0.0381 -0.7002
69259SOL    HW114892  12.006  12.213   9.991  0.2396 -0.9894  0.7149
69259SOL    HW214893  12.114  12.122   9.935  0.5790 -0.6019  0.7316
69260SOL     OW14894   8.333   6.963   2.749  0.1981  0.3826 -0.4587
69260SOL    HW114895   8.258   7.009   2.787 -0.2331 -0.4544 -0.2768
69260SOL    HW214896   8.362   6.903   2.818  1.3315  1.0246 -0.3655
69261SOL     OW14897   2.323   1.582   4.038 -0.2140  0.0347  0.5128
69261SOL    HW114898   2.304   1.489   4.049 -0.5599  0.0557  0.1194
69261SOL    HW214899   2.396   1.599   4.097 -0.2433 -0.4551  0.6917
69262SOL     OW14900   5.478  11.923   9.001 -0.7541  0.9536  0.2200
69262SOL    HW114901   5.518  11.843   9.033 -0.6381  1.2620  0.8684
69262SOL    HW214902   5.489  11.919   8.906  1.8796  1.5652  0.4102
69263SOL     OW14903  11.847   9.281   0.354  0.4485 -0.5157  0.0547
69263SOL    HW114904  11.894   9.288   0.271 -2.1134 -0.8972 -1.5194
69263SOL    HW214905  11.818   9.370   0.373 -0.5561 -0.7142 -0.4790
69264SOL     OW14906  10.328   6.838   8.955 -0.5249  0.1350 -0.0016
69264SOL    HW114907  10.235   6.812   8.954 -0.0350 -1.7732 -0.6591
69264SOL    HW214908  10.374   6.760   8.924  1.3925  0.6871  1.3006
69265SOL     OW14909   4.531   3.109  12.595  0.1566 -0.6426 -0.6687
69265SOL    HW114910   4.463   3.055  12.555  0.1652 -2.0139  1.0389
69265SOL    HW214911   4.613   3.063  12.577  0.3786 -0.2187 -0.7576
69266SOL     OW14912   7.607   3.855  12.106 -0.1254 -0.5539 -0.4111
69266SOL    HW114913   7.697   3.865  12.139  0.2747 -1.5887 -1.1394
69266SOL    HW214914   7.614   3.872  12.012 -0.5926 -1.1589 -0.5560
69267SOL     OW14915   2.285   1.438   7.361  0.1579 -0.0543 -0.3558
69267SOL    HW114916   2.233   1.388   7.425 -0.0460  1.9549  1.1311
69267SOL    HW214917   2.338   1.371   7.317 -1.5282 -1.8166  0.1190
69268SOL     OW14918  12.574  12.464  12.117 -0.6217 -0.6085 -0.5924
69268SOL    HW114919  12.487  12.442  12.150 -1.0774 -1.3374 -2.1728
69268SOL    HW214920  12.604  12.383  12.074  1.3292 -0.7432  0.8886
69269SOL     OW14921  10.047   3.350   7.196  0.0683 -0.1851 -0.1005
69269SOL    HW114922  10.037   3.443   7.217 -0.7361 -0.2988  0.0543
69269SOL    HW214923  10.042   3.346   7.101  0.7878 -0.0032 -0.1564
69270SOL     OW14924   6.348   2.652   0.882  0.3554  0.4706  0.0104
69270SOL    HW114925   6.319   2.567   0.850  2.6881 -0.2889 -0.2356
69270SOL    HW214926   6.391   2.692   0.806  1.1573  0.9507  0.7099
69271SOL     OW14927  11.439   5.832  10.859 -0.1342  0.2343 -0.0307
69271SOL    HW114928  11.531   5.812  10.879  0.1395  1.4042 -0.0045
69271SOL    HW214929  11.436   5.837  10.763 -0.6169 -1.6992 -0.1438
69272SOL     OW14930   4.110  12.450  12.527  1.1636  0.2037 -0.2810
69272SOL    HW114931   4.110  12.414  12.616  1.2828  0.4628 -0.1760
69272SOL    HW214932   4.187  12.410  12.486  1.1896  0.1903 -0.2214
69273SOL     OW14933  11.644   8.546   4.228 -0.2126  0.1278 -0.2972
69273SOL    HW114934  11.724   8.500   4.202 -0.8537 -0.8112 -0.6848
69273SOL    HW214935  11.581   8.476   4.243 -0.0201  0.5819  3.4791
69274SOL     OW14936   3.162   1.076   9.636 -0.0261  0.9003  0.1323
69274SOL    HW114937   3.087   1.128   9.666  0.4664  1.5653  0.2231
69274SOL    HW214938   3.238   1.119   9.676  0.4847  0.7792 -0.6979
69275SOL     OW14939  10.337   7.262  12.539 -0.1669  0.7215 -0.1850
69275SOL    HW114940  10.324   7.343  12.589 -0.6445 -0.3470  1.5081
69275SOL    HW214941  10.270   7.203  12.572  1.3707 -1.0012 -0.0069
69276SOL     OW14942   0.743   1.678   9.310  0.0226 -0.1520  0.1561
69276SOL    HW114943   0.651   1.667   9.285  0.2559 -0.6867 -0.5309
69276SOL    HW214944   0.748   1.648   9.400 -0.5078  0.0249  0.2443
69277SOL     OW14945   4.401   2.939  11.995 -0.1193  0.2249 -0.0799
69277SOL    HW114946   4.422   2.897  12.078  0.9773  0.6496 -0.1235
69277SOL    HW214947   4.480   2.988  11.972  0.1532 -1.0312 -2.0842
69278SOL     OW14948   7.344   2.497   6.840 -0.5577 -0.2781  0.4708
69278SOL    HW114949   7.354   2.402   6.846  1.6102 -0.2341 -1.2736
69278SOL    HW214950   7.260   2.510   6.796 -0.6953 -1.3878  0.3853
69279SOL     OW14951   4.023   7.972  10.121 -0.2127 -0.0919  0.5794
69279SOL    HW114952   4.103   7.936  10.084  0.0690  1.0566  0.0097
69279SOL    HW214953   3.953   7.919  10.084 -0.2151  2.5207 -3.9157
69280SOL     OW14954  12.283   0.563  11.416 -0.0887  0.3090  0.1492
69280SOL    HW114955  12.189   0.556  11.404 -0.1522  0.0473  0.7496
69280SOL    HW214956  12.295   0.563  11.511  0.5895 -0.5982  0.0728
69281SOL     OW14957  10.370  11.185   5.492  0.2982 -0.4368 -0.3811
69281SOL    HW114958  10.370  11.281   5.487 -0.1837 -0.4824 -1.5948
69281SOL    HW214959  10.281  11.162   5.518  0.2902 -0.5634 -0.5192
69282SOL     OW14960   3.099   1.734  11.696 -0.1840 -0.1092  0.8787
69282SOL    HW114961   3.156   1.700  11.765  0.5935  0.2866  0.4362
69282SOL    HW214962   3.057   1.655  11.660  0.3802 -0.4535  0.9504
69283SOL     OW14963   6.704  11.993   8.111  0.6003  0.0772  0.4784
69283SOL    HW114964   6.759  11.974   8.035 -0.8582  0.4110 -0.7034
69283SOL    HW214965   6.705  12.089   8.118 -0.7030  0.1623 -0.2557
69284SOL     OW14966   9.793   5.700   7.361 -0.2711 -0.1673 -0.1530
69284SOL    HW114967   9.786   5.605   7.361 -2.9731 -0.1184 -2.1947
69284SOL    HW214968   9.702   5.730   7.360  0.4778  2.5125  1.9240
69285SOL     OW14969   1.819   8.660   7.577  0.0382  0.2627  0.3962
69285SOL    HW114970   1.832   8.573   7.539  1.1342  0.2841  0.6816
69285SOL    HW214971   1.747   8.697   7.527 -0.0367 -0.5728 -0.1441
69286SOL     OW14972   5.439   0.615   6.137  0.5379 -0.2238 -0.0201
69286SOL    HW114973   5.415   0.525   6.117 -3.3483  0.4299  0.8824
69286SOL    HW214974   5.417   0.664   6.058 -0.6714  0.3378  0.6323
69287SOL     OW14975  10.100   4.853   7.235 -0.3737  0.0633 -0.2197
69287SOL    HW114976  10.130   4.883   7.320 -1.2166  1.6965 -0.4544
69287SOL    HW214977  10.170   4.878   7.174  1.4883 -3.4116  0.2044
69288SOL     OW14978   7.138   1.625   4.108 -0.5971 -0.1951 -0.2720
69288SOL    HW114979   7.200   1.681   4.061 -0.5340 -0.8753 -1.0236
69288SOL    HW214980   7.176   1.615   4.195 -0.6305  0.9541 -0.1064
69289SOL     OW14981   0.348  12.392   5.301  0.0513 -0.1057  0.2019
69289SOL    HW114982   0.326  12.471   5.352 -2.1380  0.7048 -1.8354
69289SOL    HW214983   0.296  12.323   5.340 -1.2889  0.4219 -0.5843
69290SOL     OW14984   5.897   0.252   2.260 -0.9212  0.1792  0.6117
69290SOL    HW114985   5.812   0.211   2.243 -0.1810 -0.6706 -1.3825
69290SOL    HW214986   5.897   0.331   2.205  0.0518 -0.5373 -0.4681
69291SOL     OW14987   2.281   6.865  10.076  0.6562  0.4090  0.8518
69291SOL    HW114988   2.345   6.861  10.005  0.2040  1.5668  0.3587
69291SOL    HW214989   2.277   6.958  10.100  0.6663  0.0668  2.2776
69292SOL     OW14990  11.488   0.482   3.235 -0.5123  0.0865  0.1081
69292SOL    HW114991  11.393   0.480   3.241 -0.4884  0.1721  0.5841
69292SOL    HW214992  11.511   0.575   3.244 -0.4772  0.2811 -1.7370
69293SOL     OW14993   3.860   3.535  10.900 -0.0995  0.1949 -0.1352
69293SOL    HW114994   3.834   3.449  10.933  0.6847 -0.4794 -1.2167
69293SOL    HW214995   3.845   3.594  10.974  1.0204 -1.1510  1.2379
69294SOL     OW14996   6.066   6.850  10.516 -0.8237  0.4764  0.1447
69294SOL    HW114997   6.070   6.868  10.610  1.9237  0.0093  0.2024
69294SOL    HW214998   6.098   6.761  10.507 -0.3975  0.7395 -1.2851
69295SOL     OW14999   2.712   2.983  11.663  0.0467  0.1525  0.5609
69295SOL    HW115000   2.638   2.949  11.713 -0.5110 -0.0647 -0.3838
69295SOL    HW215001   2.742   3.059  11.713 -0.4164 -0.1313  1.2788
69296SOL     OW15002   8.715   1.960   3.459  0.0304  0.4218  0.2738
69296SOL    HW115003   8.781   1.962   3.391  0.6044  1.2883  0.8361
69296SOL    HW215004   8.749   1.899   3.524  0.9411  1.8336  1.1795
69297SOL     OW15005  10.502   7.138   1.019  0.2356  0.0367 -0.0873
69297SOL    HW115006  10.496   7.228   0.987 -0.9040 -0.0128 -0.0408
69297SOL    HW215007  10.553   7.144   1.099  2.4279  0.2818 -1.4182
69298SOL     OW15008   7.729  11.867   0.752 -0.2007 -0.2372 -0.3148
69298SOL    HW115009   7.717  11.842   0.660  0.7843 -0.9268 -0.2743
69298SOL    HW215010   7.640  11.871   0.787 -0.5974  0.2217 -1.3406
69299SOL     OW15011   6.153  10.180  10.034 -0.1994 -0.0153 -0.2572
69299SOL    HW115012   6.242  10.216  10.023  0.2346 -1.2923 -1.0301
69299SOL    HW215013   6.106  10.249  10.081  0.7220  1.3962 -1.3154
69300SOL     OW15014   6.752   6.101   4.492  0.4012  0.0989  0.2133
69300SOL    HW115015   6.794   6.182   4.519 -1.6751  0.9809  1.0192
69300SOL    HW215016   6.739   6.111   4.398  3.3018 -0.9055 -0.4143
69301SOL     OW15017   9.466   3.177   7.889  0.3722  0.2757  0.4238
69301SOL    HW115018   9.492   3.218   7.972 -1.3211  0.7407  0.7517
69301SOL    HW215019   9.380   3.140   7.906 -0.1460  0.6350 -1.2078
69302SOL     OW15020  11.844  11.174   3.109 -0.1204 -0.0384  0.2484
69302SOL    HW115021  11.937  11.186   3.091 -0.1542 -0.4032 -0.1658
69302SOL    HW215022  11.822  11.089   3.071 -0.3644 -0.4927  1.3594
69303SOL     OW15023  11.901   7.412   3.253  0.2977  0.6544  0.1779
69303SOL    HW115024  11.831   7.466   3.215  0.2233 -1.5577 -3.2271
69303SOL    HW215025  11.856   7.335   3.286  0.8292  0.7367  1.1208
69304SOL     OW15026   0.502   6.093   4.835  0.2503 -0.5496  0.0343
69304SOL    HW115027   0.540   6.099   4.922 -0.3406  0.3947  0.2506
69304SOL    HW215028   0.516   6.180   4.797 -0.7994 -0.4794 -0.2400
69305SOL     OW15029  12.850   7.779   5.515 -0.1315  0.3646  0.1402
69305SOL    HW115030  12.812   7.798   5.600 -2.1396  0.9129 -0.8286
69305SOL    HW215031  12.916   7.847   5.503  0.3470  0.1398  1.3283
69306SOL     OW15032   2.838   5.421   2.401  0.3762 -0.5380 -0.3064
69306SOL    HW115033   2.779   5.395   2.472  0.7589 -2.1186 -0.5340
69306SOL    HW215034   2.781   5.463   2.337  0.0119  0.8669  0.8828
69307SOL     OW15035   9.068  10.511   7.760 -0.2743 -0.0434  0.0909
69307SOL    HW115036   8.993  10.459   7.731 -0.4767  0.5848 -0.5254
69307SOL    HW215037   9.136  10.494   7.695 -0.3194  0.4119 -0.0769
69308SOL     OW15038   5.105   7.969   1.058 -0.0411 -0.0565  0.4865
69308SOL    HW115039   5.112   7.876   1.034  1.3588  0.3096 -0.6914
69308SOL    HW215040   5.167   7.981   1.130 -0.9064 -0.2096  1.2725
69309SOL     OW15041   3.239   8.409   6.235 -0.2485  0.2784 -0.5941
69309SOL    HW115042   3.205   8.320   6.231 -0.4836  0.3711 -0.6815
69309SOL    HW215043   3.280   8.423   6.150 -0.2292  0.2586 -0.5881
69310SOL     OW15044  11.614   8.414   3.915 -0.6202 -0.1660  0.1001
69310SOL    HW115045  11.637   8.369   3.996 -0.4353 -0.4117 -0.0907
69310SOL    HW215046  11.532   8.372   3.887  0.1587 -1.1916 -0.6999
69311SOL     OW15047  11.977   5.538   2.837 -0.7859  0.0757 -0.0741
69311SOL    HW115048  11.997   5.601   2.906  0.2716 -0.9287  0.5754
69311SOL    HW215049  11.965   5.455   2.884 -1.4802 -0.3422 -0.9670
69312SOL     OW15050   4.479   3.082   4.077  0.1137 -0.6600  0.1320
69312SOL    HW115051   4.566   3.096   4.113 -0.0616  0.6826  0.0841
69312SOL    HW215052   4.452   2.997   4.111  2.0683 -1.8538 -1.1443
69313SOL     OW15053   2.622   4.326   3.321 -0.0616 -0.4586 -0.1138
69313SOL    HW115054   2.569   4.296   3.247 -0.7822 -0.9020  0.5666
69313SOL    HW215055   2.673   4.399   3.285  1.3216 -2.0994 -1.6501
69314SOL     OW15056  11.587   6.447   8.826 -0.1522  0.0314  0.3591
69314SOL    HW115057  11.581   6.361   8.784  0.0944 -0.2448  0.8791
69314SOL    HW215058  11.636   6.501   8.763  2.1642 -0.9837  1.1708
69315SOL     OW15059   5.808  10.944   2.720  0.3393  0.0306  0.3927
69315SOL    HW115060   5.891  10.992   2.714  1.0557 -1.2426 -0.1923
69315SOL    HW215061   5.744  11.004   2.682  1.3080  0.3132 -0.8636
69316SOL     OW15062   7.720   9.333   5.310  0.1081  0.1084 -0.1442
69316SOL    HW115063   7.749   9.369   5.226 -2.2076 -0.7056 -1.3657
69316SOL    HW215064   7.787   9.269   5.333 -0.2053 -1.1113 -2.4277
69317SOL     OW15065   7.858   9.909   2.960 -1.1366  0.4855 -0.0805
69317SOL    HW115066   7.795   9.933   2.892 -0.0387 -1.2984 -1.8566
69317SOL    HW215067   7.879   9.817   2.942  1.7014  0.8914  0.6074
69318SOL     OW15068   9.822   1.632  12.088  0.1297 -0.3455  0.0929
69318SOL    HW115069   9.907   1.594  12.068  0.1665 -0.9460  1.3231
69318SOL    HW215070   9.835   1.678  12.171 -0.3367  1.0018 -0.5405
69319SOL     OW15071   5.798   1.892   3.354  0.2469  0.4463  0.3873
69319SOL    HW115072   5.789   1.939   3.437  0.3616  2.0723 -0.4975
69319SOL    HW215073   5.838   1.955   3.294  1.3969 -1.1070 -0.5641
69320SOL     OW15074   4.160   8.617   8.079 -0.4628 -0.2768  0.2284
69320SOL    HW115075   4.238   8.664   8.054 -1.2323  0.7436 -0.3087
69320SOL    HW215076   4.089   8.657   8.028 -1.1624 -1.9407 -0.1812
69321SOL     OW15077  11.795   8.767   1.107  0.0955  0.7138  0.6700
69321SOL    HW115078  11.862   8.721   1.156  0.4408  0.7255  0.2122
69321SOL    HW215079  11.727   8.787   1.171 -0.3312 -0.9458  0.7644
69322SOL     OW15080   0.985   2.823  11.960 -0.0613 -0.1803  0.2361
69322SOL    HW115081   0.986   2.823  12.056  0.4269  0.0900  0.2383
69322SOL    HW215082   0.935   2.745  11.936  0.2618 -0.5395  0.7120
69323SOL     OW15083   9.817   2.907  10.770  0.3917  0.4345 -0.9199
69323SOL    HW115084   9.814   2.971  10.700  0.3789  0.6485 -0.7241
69323SOL    HW215085   9.817   2.959  10.851  1.1114  0.2076 -0.7678
69324SOL     OW15086   4.183   4.083   2.167  0.2472 -0.0343  0.2599
69324SOL    HW115087   4.188   3.988   2.154 -0.0921  0.1211 -1.1435
69324SOL    HW215088   4.093   4.106   2.144  0.1182  0.5415  1.2814
69325SOL     OW15089   3.907   1.173   1.140 -1.2731 -0.1012 -0.1273
69325SOL    HW115090   3.985   1.129   1.175 -2.1735  0.2512  2.6035
69325SOL    HW215091   3.933   1.206   1.054  1.2869 -0.7778  0.3289
69326SOL     OW15092   6.254   4.994   7.699  0.7165 -0.0729  0.4949
69326SOL    HW115093   6.325   5.045   7.739 -1.0534  1.9864  1.2582
69326SOL    HW215094   6.176   5.049   7.712 -0.8031 -1.6350 -1.4310
69327SOL     OW15095  11.248  11.915   2.377  0.2755 -0.0759 -0.7926
69327SOL    HW115096  11.221  11.907   2.468  1.9911  0.1151 -0.2395
69327SOL    HW215097  11.184  11.863   2.328 -0.5020 -0.4054  0.5363
69328SOL     OW15098   1.926   4.317   1.665 -0.4648  0.1975 -0.2568
69328SOL    HW115099   1.853   4.370   1.696 -0.1114  0.2051  0.6118
69328SOL    HW215100   1.912   4.231   1.704 -1.0406 -0.3742 -1.6678
69329SOL     OW15101   0.292   9.797   5.718  0.0679 -0.2550 -0.4846
69329SOL    HW115102   0.335   9.769   5.637 -0.4442 -0.5413 -0.6643
69329SOL    HW215103   0.291   9.719   5.773 -0.6086 -0.3829 -0.6585
69330SOL     OW15104   5.433  12.908  10.514 -0.0348  0.2555  0.3307
69330SOL    HW115105   5.363  12.851  10.544 -2.2138  0.5347 -3.5326
69330SOL    HW215106   5.390  12.991  10.494  1.5743  0.7830 -1.2210
69331SOL     OW15107   2.645  10.552   2.548 -0.0294 -0.0147  0.3881
69331SOL    HW115108   2.647  10.467   2.593  0.3538 -0.6366 -0.7566
69331SOL    HW215109   2.553  10.578   2.549 -0.3020 -0.9245 -0.1006
69332SOL     OW15110   3.670  10.162  12.207 -0.3893  0.0452  0.4276
69332SOL    HW115111   3.580  10.190  12.227 -0.6685 -1.0504  0.7981
69332SOL    HW215112   3.720  10.243  12.204 -1.0996  0.5775  1.7813
69333SOL     OW15113   7.050  11.459   3.793 -0.3760 -0.0534 -0.4431
69333SOL    HW115114   6.971  11.407   3.803  0.6762 -1.8391 -0.8474
69333SOL    HW215115   7.064  11.464   3.698  0.2017 -0.1238 -0.3674
69334SOL     OW15116   3.522   4.485   5.175 -0.0359  0.3114 -0.4581
69334SOL    HW115117   3.607   4.462   5.137 -0.5455 -1.2513 -0.7527
69334SOL    HW215118   3.479   4.400   5.190 -1.0088  1.0085  0.9364
69335SOL     OW15119   4.707   9.251   7.472  0.3556  0.1778  0.1367
69335SOL    HW115120   4.660   9.226   7.392  0.1731 -1.1422  0.6385
69335SOL    HW215121   4.640   9.252   7.540  0.5423  1.1279  0.3175
69336SOL     OW15122   1.787   2.227  12.393 -0.5759 -0.1702 -0.0721
69336SOL    HW115123   1.720   2.290  12.367 -2.5572 -0.3453  3.9266
69336SOL    HW215124   1.865   2.280  12.410 -1.4875  0.8938  0.9152
69337SOL     OW15125   8.540   9.039   8.405 -0.2879  0.2867  0.2257
69337SOL    HW115126   8.527   9.063   8.497 -0.6890 -0.9743  0.5216
69337SOL    HW215127   8.623   8.991   8.404  0.8090  2.0891 -0.4539
69338SOL     OW15128   7.598  11.541   9.315 -0.0614  0.2789 -0.0871
69338SOL    HW115129   7.583  11.603   9.244 -0.1866  0.1275 -0.1927
69338SOL    HW215130   7.620  11.459   9.271 -0.1061  0.1942  0.0492
69339SOL     OW15131   2.854  12.410   8.547  0.4194  0.3916 -0.5932
69339SOL    HW115132   2.898  12.326   8.559  0.1136  0.4691  1.6878
69339SOL    HW215133   2.797  12.418   8.624 -0.2990  2.2451 -1.2485
69340SOL     OW15134   8.237   7.170  12.867  0.0744  0.1679 -0.2195
69340SOL    HW115135   8.277   7.242  12.916  0.3497  0.5758 -1.0201
69340SOL    HW215136   8.300   7.150  12.798 -0.1415 -0.6420 -0.1945
69341SOL     OW15137   6.545   3.289   5.444  0.1858 -0.4788  0.0242
69341SOL    HW115138   6.518   3.252   5.528 -0.4099 -0.6459 -0.2348
69341SOL    HW215139   6.608   3.227   5.410  1.2942  0.1600  0.8592
69342SOL     OW15140   0.418   4.957  10.586  0.1069  0.3744 -0.1238
69342SOL    HW115141   0.398   4.900  10.512  0.0096 -1.1826  1.0397
69342SOL    HW215142   0.507   4.988  10.569 -0.3936  1.1449 -1.5212
69343SOL     OW15143   2.792   5.200   3.313  0.9796  0.2076 -0.3013
69343SOL    HW115144   2.707   5.222   3.350  0.3738 -0.7026 -1.1250
69343SOL    HW215145   2.852   5.204   3.388  0.3977  1.6979  0.1246
69344SOL     OW15146   9.862   7.597  12.519 -0.2674  0.9338  0.0292
69344SOL    HW115147   9.771   7.596  12.487 -0.2498 -2.0940 -0.2815
69344SOL    HW215148   9.856   7.560  12.607  0.6932  0.1189 -0.2304
69345SOL     OW15149   0.851   6.366   9.220  0.2498 -0.2959 -0.3012
69345SOL    HW115150   0.841   6.281   9.176 -1.0614 -0.0145 -0.5746
69345SOL    HW215151   0.851   6.430   9.148  1.4349 -0.0523 -0.1121
69346SOL     OW15152   1.200   5.366   8.754  0.2854 -0.7539 -0.6620
69346SOL    HW115153   1.211   5.283   8.707  2.4043 -1.2108  0.5192
69346SOL    HW215154   1.227   5.346   8.844  0.8871  1.2399 -0.3631
69347SOL     OW15155   7.596   4.372   9.530 -0.3389 -0.0473  0.9467
69347SOL    HW115156   7.571   4.289   9.489 -0.3842  0.2012  0.4687
69347SOL    HW215157   7.513   4.412   9.557 -0.2904 -0.3450  1.5503
69348SOL     OW15158   1.508   4.527  11.570 -0.3759 -0.0190 -0.2777
69348SOL    HW115159   1.570   4.469  11.527  0.0209  1.2839 -1.5457
69348SOL    HW215160   1.423   4.502  11.534 -0.0689  0.9441 -1.7951
69349SOL     OW15161   0.846   6.089  11.891 -0.0332 -0.0551  0.0136
69349SOL    HW115162   0.799   6.035  11.955  0.2096  2.1356  2.2356
69349SOL    HW215163   0.918   6.128  11.941  0.5615  1.2825 -1.7717
69350SOL     OW15164   0.541   9.999   1.850 -0.0466  0.4846  0.1461
69350SOL    HW115165   0.538  10.064   1.920  0.6269  3.3211 -2.2590
69350SOL    HW215166   0.613  10.027   1.794 -2.8935  0.8166 -3.7763
69351SOL     OW15167   7.121   1.961  10.987 -0.4701 -0.2855 -0.0311
69351SOL    HW115168   7.183   2.031  11.005  1.6631 -1.5946 -1.7733
69351SOL    HW215169   7.141   1.894  11.051 -1.2317 -0.0748  0.4392
69352SOL     OW15170   0.139  12.202  11.685 -0.6347  0.1643 -0.6272
69352SOL    HW115171   0.086  12.126  11.660  0.6286 -0.7756 -0.5710
69352SOL    HW215172   0.144  12.255  11.606 -2.0664  0.5431 -0.4887
69353SOL     OW15173   3.642   6.179   0.552  0.8601 -0.1872 -0.3724
69353SOL    HW115174   3.688   6.161   0.634  2.5751 -0.3267 -1.3271
69353SOL    HW215175   3.683   6.122   0.488  0.0792  0.4829 -1.5148
69354SOL     OW15176   0.934   4.960   0.809  0.6609 -0.5214 -0.5652
69354SOL    HW115177   0.919   4.974   0.716  0.7712 -0.3094 -0.5529
69354SOL    HW215178   0.851   4.927   0.843 -0.0950  1.4841 -0.3215
69355SOL     OW15179  12.536   0.412   2.224  0.0986 -0.2926  0.0113
69355SOL    HW115180  12.441   0.413   2.236  0.2932  1.7173  2.0610
69355SOL    HW215181  12.556   0.496   2.184  1.1125 -0.1993  0.6722
69356SOL     OW15182   1.644   5.049   5.283 -0.2940 -0.0546  0.3418
69356SOL    HW115183   1.670   5.066   5.193  2.0153  0.5213  1.0385
69356SOL    HW215184   1.595   4.967   5.279  2.1488 -1.5895 -1.1506
69357SOL     OW15185   6.882   3.872  12.457 -0.2696  0.5364 -0.4794
69357SOL    HW115186   6.796   3.862  12.497 -0.7157  2.6197 -0.8256
69357SOL    HW215187   6.934   3.918  12.523 -0.3075  1.8701 -1.3479
69358SOL     OW15188  12.473   5.844   4.796 -0.3224 -0.0087 -0.3682
69358SOL    HW115189  12.455   5.908   4.727  2.4120 -1.7911 -2.9500
69358SOL    HW215190  12.541   5.885   4.850 -1.8854  1.0498  0.8962
69359SOL     OW15191   7.589  11.499   5.197 -0.3138 -0.6326  0.1724
69359SOL    HW115192   7.676  11.503   5.157 -0.4128 -1.1700 -0.1063
69359SOL    HW215193   7.529  11.482   5.124 -0.7345  0.3305  0.2733
69360SOL     OW15194   2.508  12.335   1.191 -0.3746 -0.1110 -0.1512
69360SOL    HW115195   2.562  12.305   1.264 -0.6158 -0.7149 -0.2117
69360SOL    HW215196   2.472  12.255   1.153  2.0499 -0.1238 -2.7820
69361SOL     OW15197  10.939   6.136   4.733 -0.4193  0.2984 -0.0277
69361SOL    HW115198  10.898   6.094   4.657 -0.0977  1.2467 -0.7438
69361SOL    HW215199  11.032   6.142   4.710 -0.5748  2.1387 -0.3168
69362SOL     OW15200   3.360  10.764   8.772  0.5142  0.3643  0.1141
69362SOL    HW115201   3.426  10.834   8.777 -0.0292  0.8604  0.4846
69362SOL    HW215202   3.367  10.731   8.682  1.7441 -0.0701  0.3458
69363SOL     OW15203   9.853   9.768   8.925  0.3508 -0.2443 -0.4214
69363SOL    HW115204   9.913   9.697   8.903  1.9787  0.8860  0.1033
69363SOL    HW215205   9.826   9.749   9.015 -1.9389 -1.9411 -1.3796
69364SOL     OW15206   5.006   4.856   1.198  0.8044 -0.2350  0.1895
69364SOL    HW115207   5.030   4.861   1.290  0.5634  0.7612  0.2095
69364SOL    HW215208   4.993   4.762   1.181  0.3585 -0.3808  1.2833
69365SOL     OW15209   2.221   8.721   7.221 -0.1357  0.2725  0.3834
69365SOL    HW115210   2.240   8.710   7.128  1.7143  0.5729  0.6844
69365SOL    HW215211   2.161   8.796   7.224 -0.6707 -0.0979 -0.5885
69366SOL     OW15212  10.860  12.259   4.907  0.1287  0.6948  0.6175
69366SOL    HW115213  10.952  12.257   4.932  0.4274  0.4036 -0.4564
69366SOL    HW215214  10.859  12.226   4.817 -1.2774 -1.5030  1.3610
69367SOL     OW15215   7.292   8.625  12.931 -0.1064  0.4463 -0.2798
69367SOL    HW115216   7.325   8.547  12.886 -1.1482 -0.4856  0.4860
69367SOL    HW215217   7.219   8.655  12.876 -1.6999 -0.9830  0.9320
69368SOL     OW15218   3.268  11.262   7.098 -0.3550 -0.4472  0.2542
69368SOL    HW115219   3.290  11.184   7.150  2.5469  0.4092  0.4284
69368SOL    HW215220   3.274  11.334   7.160 -0.0466  0.2465 -0.5678
69369SOL     OW15221   9.323   6.531   6.330 -0.3522  0.5859  0.0092
69369SOL    HW115222   9.272   6.462   6.372 -0.2741  0.0820 -0.7275
69369SOL    HW215223   9.412   6.495   6.325 -0.1475  1.0371  0.3030
69370SOL     OW15224   7.140  10.353   7.349  1.1047  0.6312  0.5000
69370SOL    HW115225   7.065  10.364   7.290 -0.1871  2.0180  2.2505
69370SOL    HW215226   7.216  10.374   7.295  0.3364 -1.2431 -1.4662
69371SOL     OW15227  12.595   4.638   5.324 -0.6310  0.5771  0.0651
69371SOL    HW115228  12.586   4.568   5.389 -2.0333  0.6053 -0.0598
69371SOL    HW215229  12.688   4.638   5.302 -0.6355 -1.4742 -0.1850
69372SOL     OW15230   0.388   4.301  12.801 -0.4346  0.0193  0.0917
69372SOL    HW115231   0.401   4.304  12.707 -0.2526  0.4252  0.1293
69372SOL    HW215232   0.476   4.305  12.838 -0.5522  0.9093  0.2994
69373SOL     OW15233  12.568   4.321   6.237 -0.3869  0.0055  0.0324
69373SOL    HW115234  12.638   4.264   6.206 -1.7012 -1.1991 -0.8860
69373SOL    HW215235  12.548   4.290   6.325 -0.2467 -0.1210  0.0184
69374SOL     OW15236   9.176   2.614  10.545 -0.1730  0.3162  0.1451
69374SOL    HW115237   9.111   2.609  10.615 -0.3597 -0.1704 -0.0557
69374SOL    HW215238   9.147   2.687  10.491 -0.3537  0.3286  0.2553
69375SOL     OW15239  10.763   0.290   9.217 -0.4433 -0.0789  0.0206
69375SOL    HW115240  10.734   0.381   9.219  0.2130  0.1316  0.2018
69375SOL    HW215241  10.808   0.281   9.132 -1.5692 -0.5807 -0.5501
69376SOL     OW15242   0.709   1.356   0.044  0.0562  0.3572 -0.1800
69376SOL    HW115243   0.753   1.388  -0.035  0.0550  1.4653  0.2556
69376SOL    HW215244   0.780   1.319   0.097  0.0458 -0.4729 -0.7154
69377SOL     OW15245   6.090  12.468   8.947 -0.1246  0.0303 -0.7622
69377SOL    HW115246   6.142  12.416   9.008 -0.6542 -0.0577 -0.3850
69377SOL    HW215247   6.130  12.451   8.861 -0.7458 -1.5919 -0.7588
69378SOL     OW15248   4.390   4.395  11.868  0.0044  0.4424 -0.0519
69378SOL    HW115249   4.427   4.404  11.781 -0.9141  1.4409 -0.3603
69378SOL    HW215250   4.304   4.356  11.854  1.0103 -2.2401  0.6843
69379SOL     OW15251   5.380   9.096   1.917  0.1730 -0.1355 -0.2342
69379SOL    HW115252   5.337   9.170   1.873  0.1482 -0.8932 -1.5056
69379SOL    HW215253   5.308   9.042   1.949  0.1951 -0.1424 -0.1955
69380SOL     OW15254  10.910   7.401   9.135  0.0103 -0.0523 -0.3819
69380SOL    HW115255  10.866   7.351   9.204  0.1416 -1.2086 -1.1128
69380SOL    HW215256  11.001   7.406   9.165 -0.2794  0.9938  0.3738
69381SOL     OW15257   0.063   6.042   4.632  0.1475  0.3131  0.2328
69381SOL    HW115258   0.046   6.020   4.723 -1.5570 -1.2904 -0.4136
69381SOL    HW215259  -0.024   6.060   4.595  0.7478  0.3957 -1.2059
69382SOL     OW15260   6.802   0.585  12.890  0.0236 -0.1976  0.5657
69382SOL    HW115261   6.834   0.650  12.827 -1.2432 -1.1897 -1.2010
69382SOL    HW215262   6.881   0.551  12.932  0.8631  0.9968  0.0179
69383SOL     OW15263   8.571   7.913   8.833  0.1180 -0.1976  0.2308
69383SOL    HW115264   8.544   7.956   8.914  0.0504 -0.0728  0.1420
69383SOL    HW215265   8.614   7.982   8.783 -0.7563 -0.0067 -0.2831
69384SOL     OW15266   7.306  11.832   9.786 -0.0217  0.1157  0.2552
69384SOL    HW115267   7.299  11.846   9.880  0.6193 -1.1738  0.5268
69384SOL    HW215268   7.217  11.809   9.758  0.0099 -0.6693  0.7746
69385SOL     OW15269  11.178   2.456   4.996  0.5371  0.3046 -0.5173
69385SOL    HW115270  11.274   2.456   4.991  0.5778 -0.2972  0.0252
69385SOL    HW215271  11.149   2.496   4.914  1.2667  1.3052 -0.2999
69386SOL     OW15272   1.555   6.655   9.758  0.1207  0.1918 -0.6152
69386SOL    HW115273   1.635   6.652   9.810 -0.6982 -1.4125  0.6839
69386SOL    HW215274   1.558   6.576   9.705 -0.4377  0.2926 -0.8021
69387SOL     OW15275  10.097   8.664   0.552  0.7468  0.0228 -0.2145
69387SOL    HW115276  10.069   8.755   0.552  2.1605  0.4811  0.3898
69387SOL    HW215277  10.046   8.623   0.622  0.6040  0.5141 -0.0295
69388SOL     OW15278   9.668   0.736   8.554  0.3101 -0.5361  0.0669
69388SOL    HW115279   9.741   0.797   8.564  0.1646 -0.6710  2.3368
69388SOL    HW215280   9.681   0.698   8.467  3.4669 -1.1890  0.7011
69389SOL     OW15281  10.662   2.704   8.591 -0.5413  0.5853 -0.4554
69389SOL    HW115282  10.618   2.654   8.661 -0.1421  1.3868  0.3871
69389SOL    HW215283  10.657   2.795   8.620  2.9456  0.6334  0.4587
69390SOL     OW15284   8.111   0.649   3.495  0.3781 -0.4371  0.3650
69390SOL    HW115285   8.077   0.566   3.528  1.2840 -0.6157  0.9103
69390SOL    HW215286   8.153   0.626   3.412  0.9865 -0.6208  0.7111
69391SOL     OW15287   3.797   3.286  10.983  0.1715  0.2481  0.6550
69391SOL    HW115288   3.808   3.264  10.890  0.4403  1.0418  0.4880
69391SOL    HW215289   3.764   3.206  11.023 -1.4513  0.3239 -0.4091
69392SOL     OW15290   3.055   5.842   9.408 -0.5987  0.0023  0.5287
69392SOL    HW115291   3.091   5.857   9.495  1.2279 -0.7594 -0.0718
69392SOL    HW215292   3.125   5.868   9.347 -2.6651  3.0000 -0.8714
69393SOL     OW15293   1.521  11.820   5.957  0.0294  0.2512  0.0725
69393SOL    HW115294   1.581  11.894   5.948 -0.0287  0.3657  0.5946
69393SOL    HW215295   1.577  11.742   5.955  0.4259  0.4125  2.3218
69394SOL     OW15296   9.031   1.807   1.081  0.1650  0.0909  0.2356
69394SOL    HW115297   8.983   1.883   1.114  1.0079  0.3962  0.8043
69394SOL    HW215298   9.026   1.743   1.151 -1.1375 -0.6784 -0.5128
69395SOL     OW15299   6.770  10.451   7.569  0.3140  0.5445 -0.0751
69395SOL    HW115300   6.741  10.360   7.580 -0.7640  1.0659  1.9218
69395SOL    HW215301   6.716  10.484   7.497  1.2726 -0.5494 -1.3807
69396SOL     OW15302   3.747   0.240   5.941  0.2152  0.3260 -0.0344
69396SOL    HW115303   3.694   0.279   6.010 -1.5886 -1.7429 -0.1375
69396SOL    HW215304   3.697   0.255   5.861 -0.7514 -2.3404 -0.0338
69397SOL     OW15305  10.904  12.603   4.416 -0.1470 -0.3950 -0.2652
69397SOL    HW115306  10.944  12.542   4.354  0.8119  0.9320 -1.0031
69397SOL    HW215307  10.977  12.632   4.471 -0.6251 -0.0234  0.1859
69398SOL     OW15308   4.333  11.167  11.589 -0.1152 -0.4984  0.2987
69398SOL    HW115309   4.342  11.216  11.508  1.3295 -1.3837 -0.1214
69398SOL    HW215310   4.316  11.233  11.656 -0.8215  0.2860 -0.6343
69399SOL     OW15311   1.808   2.285   7.674 -0.4241  0.3363 -0.0558
69399SOL    HW115312   1.881   2.310   7.617 -0.2974 -3.0796 -1.6797
69399SOL    HW215313   1.798   2.358   7.735  4.3394  1.0402  0.2706
69400SOL     OW15314  11.602   6.273   6.872  0.0696  0.1669  0.2847
69400SOL    HW115315  11.518   6.300   6.836 -0.5568 -2.7885 -0.7963
69400SOL    HW215316  11.583   6.192   6.920  2.4038 -1.3396 -1.1060
69401SOL     OW15317   8.598   1.740  11.749 -0.1941 -0.2978  0.1907
69401SOL    HW115318   8.590   1.827  11.711 -0.2327 -0.6766 -0.7118
69401SOL    HW215319   8.685   1.739  11.789 -0.2414  0.1864  0.3104
69402SOL     OW15320   0.514   1.677   7.276 -0.2971  0.3755 -0.4286
69402SOL    HW115321   0.431   1.717   7.304 -0.0086  0.6323  0.0811
69402SOL    HW215322   0.505   1.585   7.301 -0.1787  0.5345  0.2192
69403SOL     OW15323  11.057   9.047   8.388  0.4833  0.2787 -0.2991
69403SOL    HW115324  11.047   9.003   8.304  2.7132 -1.0571  0.0424
69403SOL    HW215325  11.142   9.092   8.381  1.7814 -1.6038  1.8891
69404SOL     OW15326  12.414   1.137  11.055 -0.0336 -0.2785  0.3402
69404SOL    HW115327  12.484   1.095  11.004  0.7405  1.4549 -0.0947
69404SOL    HW215328  12.459   1.181  11.127 -0.3393  2.5636 -1.0661
69405SOL     OW15329   9.465   7.260   7.486 -0.7882 -0.0450  0.3081
69405SOL    HW115330   9.404   7.260   7.412 -1.5318 -0.9962  0.8954
69405SOL    HW215331   9.419   7.211   7.555 -0.8271  2.2448  2.0176
69406SOL     OW15332   0.341   4.060   1.560  0.0568  0.5594  0.5700
69406SOL    HW115333   0.288   3.982   1.544 -1.4648  1.7391 -0.5366
69406SOL    HW215334   0.329   4.079   1.653 -0.4109  0.0556  0.6142
69407SOL     OW15335  10.938   0.923   3.756  0.0878 -0.0676  0.1671
69407SOL    HW115336  10.959   0.832   3.734  2.8543 -0.1492  2.5273
69407SOL    HW215337  10.882   0.953   3.684  0.8710 -2.9568 -1.8189
69408SOL     OW15338  10.073   8.452   1.235 -0.4746  0.4240  0.1317
69408SOL    HW115339   9.990   8.419   1.269  0.2523 -0.5950  1.0246
69408SOL    HW215340  10.053   8.484   1.148 -1.2454 -2.8336 -1.0427
69409SOL     OW15341   3.525   3.142   0.387 -0.2240 -0.1927  0.3837
69409SOL    HW115342   3.566   3.082   0.325  1.4689  0.5635  0.7156
69409SOL    HW215343   3.526   3.227   0.342  1.9235  0.5778  1.7611
69410SOL     OW15344   8.406   5.529   2.937 -0.5542  0.1098  0.2134
69410SOL    HW115345   8.468   5.489   2.876 -0.4992  1.9417 -1.0281
69410SOL    HW215346   8.383   5.459   2.998  1.2168 -1.1525 -0.4833
69411SOL     OW15347   6.162   2.586   3.492 -0.2416 -0.2394 -0.4176
69411SOL    HW115348   6.229   2.644   3.456 -0.9473  1.0127  0.2139
69411SOL    HW215349   6.195   2.497   3.474  0.8676  0.3380 -1.3984
69412SOL     OW15350   3.630   7.663  12.791 -0.3368 -0.7896  0.2452
69412SOL    HW115351   3.671   7.730  12.738 -0.3151 -0.8256  0.2164
69412SOL    HW215352   3.637   7.695  12.881 -1.7783  0.0398  0.1083
69413SOL     OW15353   2.126   8.778   6.794  0.2178 -0.0856 -0.0503
69413SOL    HW115354   2.199   8.806   6.738  0.3035 -0.7016 -0.2579
69413SOL    HW215355   2.049   8.784   6.737  0.1678  0.1713  0.0444
69414SOL     OW15356   5.973  11.110   1.682  0.0439 -0.1385  0.2235
69414SOL    HW115357   5.922  11.038   1.645  0.1605  0.4780 -1.2268
69414SOL    HW215358   5.908  11.165   1.726 -0.3653 -0.0452 -0.4797
69415SOL     OW15359   6.634   0.477  11.177 -0.1761 -0.6006  0.1216
69415SOL    HW115360   6.644   0.402  11.119 -0.4374 -0.5190 -0.0318
69415SOL    HW215361   6.658   0.443  11.264 -0.1584 -0.8240  0.0306
69416SOL     OW15362   4.965   9.355   2.633 -0.4033  0.2780  0.6807
69416SOL    HW115363   4.921   9.329   2.552  0.8428  1.2665 -0.3648
69416SOL    HW215364   4.959   9.278   2.689 -2.0476 -0.1443  0.0040
69417SOL     OW15365   6.817   1.633   1.871  0.0131 -0.3424  0.2158
69417SOL    HW115366   6.822   1.695   1.797 -1.1724  0.3224  0.6705
69417SOL    HW215367   6.735   1.586   1.858  0.1485 -0.7326  0.7328
69418SOL     OW15368   7.966   6.471   9.228  0.0574  0.0877  0.5714
69418SOL    HW115369   8.029   6.488   9.159 -0.5504  0.6585  0.1445
69418SOL    HW215370   7.938   6.380   9.214 -0.5524  0.4045 -0.3499
69419SOL     OW15371  10.980   7.975  12.121 -0.1423  0.2365  0.1826
69419SOL    HW115372  11.075   7.967  12.129 -0.0504  0.9221 -0.0767
69419SOL    HW215373  10.953   8.018  12.202 -0.1409  0.6474 -0.0323
69420SOL     OW15374   7.111  11.990   2.457  0.5586  0.2114 -0.6565
69420SOL    HW115375   7.130  11.991   2.551 -1.8654  1.5730 -0.1181
69420SOL    HW215376   7.018  11.968   2.451  0.9038 -0.9243 -2.8307
69421SOL     OW15377   5.389  12.787   3.270  0.0214 -0.3087 -0.2557
69421SOL    HW115378   5.315  12.841   3.296 -0.5675 -1.0652 -0.3257
69421SOL    HW215379   5.462  12.848   3.263 -0.4907  0.3739  0.2533
69422SOL     OW15380  12.755  12.947   8.469  0.1555  0.0128 -0.0534
69422SOL    HW115381  12.761  12.853   8.490 -0.5813 -0.0772 -0.2436
69422SOL    HW215382  12.664  12.969   8.486 -0.0138  0.3730 -1.4020
69423SOL     OW15383   9.003   0.882  12.302  0.3686 -0.0609 -0.1307
69423SOL    HW115384   8.946   0.805  12.296  0.8820 -0.6168  1.5021
69423SOL    HW215385   8.953   0.951  12.259 -0.4329 -1.1263 -0.9834
69424SOL     OW15386   9.655   4.694  10.015  0.4788  0.4663  0.3835
69424SOL    HW115387   9.655   4.764  10.080  0.8348  0.1970  0.6752
69424SOL    HW215388   9.662   4.614  10.067  2.6222  0.3165 -0.0541
69425SOL     OW15389   0.061   8.350   3.003  0.1682  0.1576 -0.2032
69425SOL    HW115390   0.053   8.255   3.015 -0.5675  0.0167 -1.6272
69425SOL    HW215391  -0.002   8.388   3.063  1.7270 -0.1405  1.7087
69426SOL     OW15392   5.116   8.344   0.909  0.1870 -0.0242 -0.1107
69426SOL    HW115393   5.029   8.312   0.933  0.4692  0.2841  1.4540
69426SOL    HW215394   5.166   8.265   0.889 -0.4856 -0.1926 -1.2019
69427SOL     OW15395   9.975   4.271  10.525 -0.4120  0.1429  0.7812
69427SOL    HW115396   9.985   4.288  10.619 -0.1943  0.1370  0.7600
69427SOL    HW215397   9.984   4.176  10.516 -0.0035  0.1862  0.7042
69428SOL     OW15398   8.267   4.642  11.694  0.3733 -0.3066  0.1161
69428SOL    HW115399   8.313   4.658  11.611 -1.3908 -0.4028 -0.9345
69428SOL    HW215400   8.320   4.688  11.760  1.9749 -0.4519 -0.9962
69429SOL     OW15401   4.621   7.429   0.910 -0.6358 -0.3863 -0.3053
69429SOL    HW115402   4.553   7.374   0.871 -1.2292 -0.5815  0.9471
69429SOL    HW215403   4.694   7.369   0.924 -1.2113 -0.8353  0.8755
69430SOL     OW15404   0.428   3.510   9.783 -0.2499 -0.5789 -0.3820
69430SOL    HW115405   0.386   3.579   9.835 -0.2683  0.2528 -1.4714
69430SOL    HW215406   0.519   3.510   9.812 -0.0755  0.4346 -0.9213
69431SOL     OW15407   4.208   5.653   3.932  0.0002  0.3027  0.1125
69431SOL    HW115408   4.204   5.558   3.942  1.5410  0.1709 -0.1631
69431SOL    HW215409   4.298   5.670   3.902 -0.1487  1.8643  0.4332
69432SOL     OW15410   8.406   2.045   2.939 -0.4300 -0.3023  0.5423
69432SOL    HW115411   8.496   2.042   2.906 -0.6575 -0.8723 -0.0347
69432SOL    HW215412   8.365   1.965   2.907 -1.7505  0.8923 -0.9305
69433SOL     OW15413  12.213   3.584   2.328  0.2721  0.3227 -0.2158
69433SOL    HW115414  12.195   3.520   2.259 -3.0724 -1.4414  1.9653
69433SOL    HW215415  12.132   3.634   2.336  0.4106  0.2785  2.4745
69434SOL     OW15416   2.558   2.069  10.884  0.4625 -0.4223  0.3320
69434SOL    HW115417   2.547   2.157  10.920  2.0830  0.0580 -0.2583
69434SOL    HW215418   2.593   2.018  10.957  3.7915  0.5604 -0.3841
69435SOL     OW15419   6.029  12.469   5.124  0.1536 -0.6169 -0.3695
69435SOL    HW115420   6.069  12.382   5.130 -0.2289 -0.8924 -1.5195
69435SOL    HW215421   6.079  12.514   5.056  0.2024 -0.0099  0.0605
69436SOL     OW15422   3.841   2.718   3.498 -0.0906  0.0314 -0.0314
69436SOL    HW115423   3.805   2.639   3.539  1.1596 -0.8849 -0.6047
69436SOL    HW215424   3.931   2.723   3.531 -0.0393  1.0185 -0.2903
69437SOL     OW15425   3.197   8.551   7.693 -0.1544  0.0848 -0.1870
69437SOL    HW115426   3.227   8.634   7.656 -1.3718 -0.4244 -2.5280
69437SOL    HW215427   3.275   8.496   7.694  0.2959  0.7011 -0.2658
69438SOL     OW15428  10.117   5.097   6.357  0.1516 -0.1677 -0.5543
69438SOL    HW115429  10.171   5.163   6.312  1.8868 -0.9309  0.3060
69438SOL    HW215430  10.164   5.015   6.344 -0.5926 -0.8022  0.6128
69439SOL     OW15431   9.980   5.138   5.120  0.1037 -0.4702  0.1368
69439SOL    HW115432   9.899   5.189   5.122  0.2068 -0.3187  0.5720
69439SOL    HW215433   9.963   5.069   5.056 -0.5391 -0.7096  0.5482
69440SOL     OW15434   7.650   4.765   5.891 -0.0778  0.7020  0.0169
69440SOL    HW115435   7.567   4.792   5.853  1.0402  1.1005 -2.2860
69440SOL    HW215436   7.627   4.689   5.946 -1.6752 -0.6583 -2.3672
69441SOL     OW15437   0.508   4.709   1.025 -0.1474  0.1626  0.2183
69441SOL    HW115438   0.551   4.624   1.019  0.7782  0.5666  0.8967
69441SOL    HW215439   0.442   4.708   0.956 -0.6019 -1.3584  0.6422
69442SOL     OW15440   5.580   9.464   0.225 -0.3699 -0.1290 -0.1853
69442SOL    HW115441   5.615   9.396   0.283  1.6548 -0.1492 -1.3359
69442SOL    HW215442   5.616   9.545   0.260  2.7134 -0.3125 -2.4745
69443SOL     OW15443   7.643   3.356  10.000 -0.2704  0.1524  0.1123
69443SOL    HW115444   7.631   3.274  10.047  1.1138 -0.6071 -0.7965
69443SOL    HW215445   7.554   3.386   9.980 -0.8046 -0.8765  0.8463
69444SOL     OW15446  10.552   9.342  12.390 -0.0655  0.2827  0.6718
69444SOL    HW115447  10.519   9.389  12.467  2.4414  1.0512  1.3524
69444SOL    HW215448  10.546   9.405  12.319  0.3102  0.5389  0.8694
69445SOL     OW15449   5.080   9.462   9.119 -0.6132 -0.1479 -0.5255
69445SOL    HW115450   5.128   9.513   9.055  0.5520 -0.4657  0.0708
69445SOL    HW215451   5.081   9.373   9.085  0.7382 -0.4781  0.3066
69446SOL     OW15452   9.843  12.745   1.331 -0.7606  0.1416 -0.0098
69446SOL    HW115453   9.786  12.731   1.256 -0.7931  0.2372 -0.0034
69446SOL    HW215454   9.871  12.836   1.324  0.0161 -0.1155 -0.4423
69447SOL     OW15455   0.822   5.092   6.086 -0.6255  0.3028 -0.2853
69447SOL    HW115456   0.823   4.996   6.093 -1.7547  0.2210 -0.9162
69447SOL    HW215457   0.840   5.122   6.175 -0.4104 -0.4975 -0.0439
69448SOL     OW15458   5.362   7.865  12.349 -0.4242  0.0593 -0.2419
69448SOL    HW115459   5.292   7.814  12.308  0.8800 -1.3189 -0.8660
69448SOL    HW215460   5.440   7.810  12.341  0.3724  0.7192  2.1207
69449SOL     OW15461  11.440   9.121   4.980 -0.0004  0.3120 -0.5922
69449SOL    HW115462  11.381   9.105   4.906  0.6817 -1.7963 -0.7421
69449SOL    HW215463  11.386   9.105   5.058  0.2599 -1.2784 -0.7218
69450SOL     OW15464   3.209   6.673   1.842 -0.9191 -0.3807  0.1837
69450SOL    HW115465   3.222   6.764   1.868 -1.8593  0.3387 -1.7100
69450SOL    HW215466   3.296   6.643   1.815 -0.5130 -0.2340  1.2675
69451SOL     OW15467   3.894  12.882   1.765  0.1722  0.1426 -0.1614
69451SOL    HW115468   3.919  12.935   1.841 -0.2276 -0.7297  0.5990
69451SOL    HW215469   3.901  12.942   1.690 -0.1406  1.2225  0.6496
69452SOL     OW15470   9.503   7.520   3.488  0.6032  0.0934 -0.0589
69452SOL    HW115471   9.575   7.457   3.486  2.1415  1.8028 -0.3151
69452SOL    HW215472   9.528   7.588   3.426 -0.9228  1.0734  0.3423
69453SOL     OW15473   5.033  12.689   2.418  0.0412 -0.3109  0.3460
69453SOL    HW115474   5.120  12.708   2.453  0.6008 -0.1884 -1.0473
69453SOL    HW215475   5.048  12.668   2.326 -1.5065  0.7387 -0.1876
69454SOL     OW15476  11.849  10.644   4.043  0.0907 -0.8395 -0.0805
69454SOL    HW115477  11.807  10.728   4.058  0.1098 -0.8333 -0.0612
69454SOL    HW215478  11.865  10.609   4.131  0.4998 -0.6535 -0.0794
69455SOL     OW15479  11.057   1.113  12.540 -0.3709 -0.3399 -0.6668
69455SOL    HW115480  11.132   1.055  12.557 -0.5310 -0.8377 -1.6191
69455SOL    HW215481  10.985   1.053  12.521 -0.9670  0.1471  0.0114
69456SOL     OW15482  12.095   3.892  12.231  0.0324 -0.0848 -0.3234
69456SOL    HW115483  12.085   3.975  12.277 -0.1055 -0.4549  0.3223
69456SOL    HW215484  12.153   3.912  12.158  1.0726  0.3053  0.5813
69457SOL     OW15485  12.780   8.980   9.427 -0.1435  0.0344  0.2369
69457SOL    HW115486  12.785   8.897   9.380  0.7781  0.4992 -0.4960
69457SOL    HW215487  12.767   8.954   9.519  0.5489 -0.9307  0.0818
69458SOL     OW15488   0.668   3.963   9.515  0.0019  0.5512  0.0007
69458SOL    HW115489   0.719   4.042   9.531 -0.3486  0.8674 -0.4088
69458SOL    HW215490   0.612   3.955   9.592  1.7905 -0.7221  1.2502
69459SOL     OW15491   0.065   9.219  10.525  0.1489 -0.1122 -0.1338
69459SOL    HW115492   0.084   9.285  10.592  1.0884  0.0443 -0.5398
69459SOL    HW215493  -0.031   9.217  10.520  0.0214 -0.6897  1.7660
69460SOL     OW15494  11.012   5.681   1.195 -0.7850 -0.1611 -0.4317
69460SOL    HW115495  10.998   5.750   1.260  0.2398 -0.2149 -0.1346
69460SOL    HW215496  10.958   5.607   1.225 -1.6285  0.3787 -0.5755
69461SOL     OW15497   3.680   5.159   8.498  0.5262  0.4245 -0.9411
69461SOL    HW115498   3.649   5.132   8.585 -0.9947  2.0357 -0.9285
69461SOL    HW215499   3.680   5.078   8.447 -1.0171 -0.1296 -0.1250
69462SOL     OW15500   0.211   2.036   7.576 -0.4813 -0.4893  0.5924
69462SOL    HW115501   0.158   2.116   7.583  0.4987  0.1882  0.5013
69462SOL    HW215502   0.150   1.965   7.597 -1.9583  0.0753 -1.4495
69463SOL     OW15503   6.809  10.896   5.651 -0.0972 -0.6785 -0.3401
69463SOL    HW115504   6.874  10.925   5.715 -0.3091  0.0766 -0.4607
69463SOL    HW215505   6.861  10.869   5.575  0.0521  1.9751 -1.2877
69464SOL     OW15506  12.577   4.328   3.998  0.0136 -0.4089 -0.3073
69464SOL    HW115507  12.633   4.405   3.986 -0.6808  0.2078  0.2871
69464SOL    HW215508  12.491   4.365   4.019 -0.5562 -1.3439 -0.9661
69465SOL     OW15509   0.048   1.888   9.616  0.4141 -0.4050 -0.8050
69465SOL    HW115510   0.095   1.895   9.533  0.3046  1.0310 -0.7720
69465SOL    HW215511   0.117   1.877   9.681  0.9140  2.9499 -0.6073
69466SOL     OW15512   1.261   8.925   3.128 -0.2783 -0.2744  0.1265
69466SOL    HW115513   1.310   8.845   3.109 -0.9430 -1.0801  1.6470
69466SOL    HW215514   1.316   8.974   3.190  0.2127  0.5657 -0.9391
69467SOL     OW15515  12.888   4.801  10.462 -0.0263 -0.0399  0.2277
69467SOL    HW115516  12.961   4.751  10.499  0.9459 -0.5323 -2.1437
69467SOL    HW215517  12.897   4.889  10.500  2.4530  0.1941 -0.6733
69468SOL     OW15518   4.319  11.028   8.641  0.4898  0.0338  0.7144
69468SOL    HW115519   4.298  11.017   8.549  0.4020  2.6401  0.3740
69468SOL    HW215520   4.410  10.999   8.648  1.2646  1.9086 -0.7128
69469SOL     OW15521   3.401   6.749   6.127  0.6646  0.4963 -0.4607
69469SOL    HW115522   3.469   6.706   6.179 -0.2074 -1.1129 -0.5802
69469SOL    HW215523   3.392   6.693   6.049  0.4816  1.7050 -1.3428
69470SOL     OW15524   1.015   4.339   7.004  0.0865 -0.2023  0.6164
69470SOL    HW115525   0.951   4.347   6.932 -0.2947 -0.3934  0.9316
69470SOL    HW215526   1.016   4.426   7.045 -0.5404 -0.4064  1.0839
69471SOL     OW15527   5.432   7.376   1.433  0.0585 -0.0448 -0.0756
69471SOL    HW115528   5.411   7.287   1.403  1.0738 -0.0535 -0.7996
69471SOL    HW215529   5.519   7.393   1.398  0.9077  0.3306  2.0934
69472SOL     OW15530   1.311   1.262   1.084  0.2688 -0.0575  0.1227
69472SOL    HW115531   1.288   1.346   1.124 -1.1598 -1.2635  1.9752
69472SOL    HW215532   1.310   1.200   1.156 -1.2641 -2.1506 -1.5799
69473SOL     OW15533   6.674   3.000  12.709  0.0187 -0.4575  0.1218
69473SOL    HW115534   6.733   2.937  12.750  0.2083  0.4667  1.2947
69473SOL    HW215535   6.588   2.979  12.744  0.5975  2.4654  3.8886
69474SOL     OW15536   2.231   2.518   6.928  0.5775  0.6386 -0.2036
69474SOL    HW115537   2.249   2.432   6.890 -0.5422 -0.6073  1.8762
69474SOL    HW215538   2.298   2.575   6.890  0.9901 -0.9886 -2.1136
69475SOL     OW15539  12.197   2.300  12.953 -0.0139  0.4767  0.3544
69475SOL    HW115540  12.273   2.249  12.979  0.6972  1.3162  0.0002
69475SOL    HW215541  12.122   2.254  12.991  0.4061 -1.7640 -1.3486
69476SOL     OW15542  12.705   5.272   9.586 -0.1516 -1.0538 -0.4880
69476SOL    HW115543  12.764   5.348   9.590  1.1545 -2.0965  1.3238
69476SOL    HW215544  12.640   5.296   9.519 -0.2959  2.0023  0.5982
69477SOL     OW15545   5.801   8.948   6.533  0.0555 -0.1575  0.3654
69477SOL    HW115546   5.735   8.916   6.472 -1.5912  0.6829  1.6479
69477SOL    HW215547   5.883   8.909   6.501 -0.9068 -0.6746 -1.6713
69478SOL     OW15548   4.354   8.032   1.634 -0.0226  0.0386  0.8589
69478SOL    HW115549   4.371   8.084   1.556 -1.9327 -1.4317 -0.6563
69478SOL    HW215550   4.369   7.942   1.606 -0.7337 -0.5267  2.1977
69479SOL     OW15551   5.935   6.564   7.417  0.4168  0.4614  0.0955
69479SOL    HW115552   5.919   6.505   7.343 -0.3580 -0.5957  1.0657
69479SOL    HW215553   5.956   6.648   7.376 -0.6617  0.0888 -1.3309
69480SOL     OW15554   3.030   8.016  12.340 -0.4691 -0.2566 -0.0110
69480SOL    HW115555   3.008   8.005  12.247 -0.1068 -2.6994  0.1026
69480SOL    HW215556   3.126   8.014  12.341 -0.4688 -0.0016  0.3858
69481SOL     OW15557   7.408   9.581  11.693 -0.1599  0.0177 -0.3991
69481SOL    HW115558   7.434   9.517  11.760 -2.4922  0.9428  1.5655
69481SOL    HW215559   7.428   9.539  11.610  1.5949 -1.7872  0.8395
69482SOL     OW15560   7.151   3.712  12.795  0.0420  0.6985 -0.0509
69482SOL    HW115561   7.158   3.799  12.755 -0.2294  1.2702  1.0771
69482SOL    HW215562   7.205   3.718  12.874  0.8177 -0.4886 -0.4664
69483SOL     OW15563   1.854  10.968   5.634 -0.0135 -0.0599  0.6523
69483SOL    HW115564   1.915  11.042   5.632 -0.6144  0.4781  1.4349
69483SOL    HW215565   1.911  10.891   5.644  0.7879  0.0056 -2.4045
69484SOL     OW15566   2.451   2.647  11.808  0.4048  0.1678  0.0910
69484SOL    HW115567   2.393   2.644  11.883 -1.1456 -0.8031 -1.0762
69484SOL    HW215568   2.468   2.555  11.786 -0.3992  0.3822 -1.6121
69485SOL     OW15569  11.010   6.114   7.810 -0.3599 -0.0160  0.2438
69485SOL    HW115570  10.943   6.116   7.878  0.3912  1.2739  0.9822
69485SOL    HW215571  10.986   6.039   7.755 -3.5161  1.5380 -0.7219
69486SOL     OW15572   6.300   9.766   4.983  0.2478 -0.5890  0.1543
69486SOL    HW115573   6.295   9.683   5.030 -0.7754 -0.6276  0.0116
69486SOL    HW215574   6.224   9.815   5.015  0.5382  0.0777 -0.1643
69487SOL     OW15575   6.250   5.007   1.840 -0.5564  0.0504 -0.2324
69487SOL    HW115576   6.260   5.099   1.816 -1.8979  1.0398  2.6010
69487SOL    HW215577   6.242   5.007   1.935 -1.4326 -2.9241 -0.1872
69488SOL     OW15578   4.288   4.262   2.455  0.3167  0.0548 -0.5168
69488SOL    HW115579   4.248   4.176   2.446 -1.7015  0.8088  0.7441
69488SOL    HW215580   4.235   4.307   2.520  2.1821  1.7708 -0.0852
69489SOL     OW15581   9.769   5.966   1.328 -0.1990 -0.2682  0.2977
69489SOL    HW115582   9.735   5.992   1.242 -0.2423  0.8241  0.6294
69489SOL    HW215583   9.694   5.926   1.372  0.0694 -1.7264 -0.5095
69490SOL     OW15584   2.623   7.656   3.228  0.1591  0.3300 -0.0134
69490SOL    HW115585   2.711   7.626   3.208 -0.3246 -0.6997 -0.6931
69490SOL    HW215586   2.578   7.578   3.261 -1.0405  0.3437 -1.5066
69491SOL     OW15587  12.682   8.029   6.829  0.0145 -0.4752  0.2255
69491SOL    HW115588  12.594   8.058   6.853 -0.0972 -2.0975  2.0861
69491SOL    HW215589  12.738   8.106   6.841 -0.7940 -0.0506  1.5204
69492SOL     OW15590  10.856  12.292   7.073 -0.5815 -0.7434 -0.2706
69492SOL    HW115591  10.933  12.248   7.110  0.6603  0.6772 -1.0375
69492SOL    HW215592  10.871  12.290   6.978  0.5450  2.8786 -0.3150
69493SOL     OW15593   5.820  11.371   9.229 -0.4572  0.2303 -0.1361
69493SOL    HW115594   5.758  11.298   9.222  0.8440 -0.9389 -0.1018
69493SOL    HW215595   5.873  11.364   9.149  0.3283  0.5032  0.3441
69494SOL     OW15596   6.534   9.773   7.002 -0.2364 -0.3972 -0.5337
69494SOL    HW115597   6.468   9.814   7.058  0.0103 -0.7189 -0.0023
69494SOL    HW215598   6.594   9.731   7.062  0.6215  0.1198 -1.0046
69495SOL     OW15599   9.371   8.148   7.544  0.0519  0.3235 -0.4683
69495SOL    HW115600   9.340   8.060   7.525 -0.1884  0.3745 -0.3257
69495SOL    HW215601   9.341   8.201   7.470 -0.2262  0.3775 -0.3178
69496SOL     OW15602   0.890   7.555   6.453  0.3718  0.5271 -0.2279
69496SOL    HW115603   0.880   7.594   6.540 -1.8786 -0.9301  0.2631
69496SOL    HW215604   0.969   7.501   6.460 -0.7810 -1.0709  1.6052
69497SOL     OW15605   2.847  11.514   0.592  0.1173 -0.3534 -0.1941
69497SOL    HW115606   2.879  11.475   0.673 -0.9565 -0.7356  0.0693
69497SOL    HW215607   2.761  11.475   0.579 -0.3806  0.8431 -0.6968
69498SOL     OW15608   5.552   9.850  12.223  0.3139  0.4405 -0.3120
69498SOL    HW115609   5.593   9.772  12.260 -0.9835 -0.5198 -0.8195
69498SOL    HW215610   5.619   9.887  12.166  1.1766  0.0841  0.4401
69499SOL     OW15611   2.369  11.884   8.861  0.1492  0.4075 -0.0968
69499SOL    HW115612   2.285  11.911   8.899  0.4267  1.5343 -0.2572
69499SOL    HW215613   2.393  11.955   8.802  1.1462  0.0235 -0.1691
69500SOL     OW15614   0.986   1.224   9.635 -0.2266 -0.1710 -0.3875
69500SOL    HW115615   0.902   1.178   9.632 -0.9439  1.1406 -1.2736
69500SOL    HW215616   1.048   1.164   9.595 -1.6742  0.6143 -4.2054
69501SOL     OW15617   6.114  11.387  10.657  0.4520 -0.2067  0.4514
69501SOL    HW115618   6.158  11.312  10.616 -0.5989 -0.8984  0.5616
69501SOL    HW215619   6.152  11.391  10.745  1.5995  0.3349 -0.0456
69502SOL     OW15620   3.633   0.742  12.183 -0.2204 -0.2598 -0.0531
69502SOL    HW115621   3.590   0.817  12.224  0.4369 -0.1271  0.3962
69502SOL    HW215622   3.707   0.722  12.240 -0.2938 -1.1526 -0.2577
69503SOL     OW15623   1.507   7.829   4.902  0.2208  0.0847  0.1751
69503SOL    HW115624   1.533   7.737   4.891  0.4345  0.2258 -0.4914
69503SOL    HW215625   1.487   7.860   4.814 -2.7262 -0.1462  0.6313
69504SOL     OW15626  10.357  11.246   4.486 -1.0312  0.2483  0.3439
69504SOL    HW115627  10.389  11.319   4.433 -1.0007 -1.1032 -1.6119
69504SOL    HW215628  10.273  11.223   4.446 -1.3732 -0.3627  1.3697
69505SOL     OW15629   4.713   4.621   4.164  0.1417 -0.2381  0.0037
69505SOL    HW115630   4.769   4.546   4.181  0.5545 -0.1983 -1.1189
69505SOL    HW215631   4.745   4.657   4.082 -1.6178 -0.2937 -0.7465
69506SOL     OW15632   9.911   0.868   8.559  0.5984  0.1139  0.4615
69506SOL    HW115633   9.977   0.821   8.508 -0.1740 -0.3498 -0.1300
69506SOL    HW215634   9.900   0.952   8.515  1.2366  0.4447  0.9227
69507SOL     OW15635   2.710   1.514   2.498  0.4495 -0.1793 -0.2243
69507SOL    HW115636   2.618   1.532   2.520  0.3765  0.3726 -0.9283
69507SOL    HW215637   2.715   1.530   2.404  1.4288  0.4815 -0.0745
69508SOL     OW15638   0.766   0.061  12.850 -0.4395 -0.0877  0.1888
69508SOL    HW115639   0.703   0.112  12.901 -2.2785 -1.6100 -0.4128
69508SOL    HW215640   0.782  -0.017  12.903  0.2135 -0.1451 -0.0894
69509SOL     OW15641   8.601   1.728   5.685  0.1401 -0.7275 -0.2580
69509SOL    HW115642   8.614   1.721   5.591 -0.2979  2.0832 -0.6227
69509SOL    HW215643   8.506   1.738   5.695  0.3235  0.7513  0.2619
69510SOL     OW15644   9.270   5.903   8.457  0.1002  0.0649  0.2836
69510SOL    HW115645   9.318   5.984   8.474  1.6704 -0.5650 -0.9398
69510SOL    HW215646   9.203   5.900   8.526  0.8089  1.7544  1.0975
69511SOL     OW15647   4.390   8.600   0.169 -0.6232  0.2631 -0.6684
69511SOL    HW115648   4.471   8.632   0.130  0.1867 -1.3318 -0.3419
69511SOL    HW215649   4.390   8.637   0.257  0.8227 -1.4080  0.0713
69512SOL     OW15650  12.474   9.145   5.574  0.1950 -0.6186  0.1071
69512SOL    HW115651  12.398   9.112   5.622  0.6368  1.0312  2.0564
69512SOL    HW215652  12.494   9.076   5.511 -1.4834 -2.1220  1.1229
69513SOL     OW15653  11.639  12.938   9.273  0.3319 -0.3260  0.2212
69513SOL    HW115654  11.625  12.849   9.240 -0.4459  0.3583 -1.4310
69513SOL    HW215655  11.603  12.937   9.362 -0.4834 -1.4471 -0.0959
69514SOL     OW15656   5.580   0.121  10.672  0.0460  0.5768 -0.3036
69514SOL    HW115657   5.553   0.046  10.618 -0.1087  0.6752 -0.3659
69514SOL    HW215658   5.634   0.174  10.613 -1.7348  1.6968 -1.0031
69515SOL     OW15659  10.569  10.186   7.133 -0.0742  0.3272  0.3030
69515SOL    HW115660  10.500  10.218   7.076 -0.8515 -1.3505  0.2224
69515SOL    HW215661  10.526  10.172   7.217  0.2821 -0.2419  0.3950
69516SOL     OW15662   6.614   2.092  12.283 -0.2191  0.1191 -0.8596
69516SOL    HW115663   6.601   2.186  12.277 -0.0506  0.2370  0.4336
69516SOL    HW215664   6.529   2.057  12.310 -0.2777 -0.1053 -1.3178
69517SOL     OW15665   2.840   8.230   9.194 -0.1001  0.1373 -0.4912
69517SOL    HW115666   2.806   8.319   9.202  1.0207  0.5380  0.1022
69517SOL    HW215667   2.879   8.227   9.106 -1.7169 -0.3704 -1.2321
69518SOL     OW15668   4.503   4.965   3.886 -0.0935 -0.3144 -0.1431
69518SOL    HW115669   4.464   5.052   3.878 -3.4172 -1.6470  0.0159
69518SOL    HW215670   4.557   4.971   3.965 -1.8816  1.0920  1.0735
69519SOL     OW15671   6.284   6.871  12.284  0.0153  0.2101 -0.1704
69519SOL    HW115672   6.350   6.805  12.304 -0.1499 -0.3242 -1.3109
69519SOL    HW215673   6.206   6.821  12.258 -0.0501  0.8375 -1.2339
69520SOL     OW15674   2.902   0.592   5.100  0.2276 -0.5539  0.5707
69520SOL    HW115675   2.837   0.657   5.073 -0.4949 -1.0656  1.0285
69520SOL    HW215676   2.933   0.623   5.186  0.8706 -0.1163  0.1890
69521SOL     OW15677  11.368   8.212   4.975 -0.0274  0.1073 -0.2933
69521SOL    HW115678  11.436   8.148   4.957 -0.2933 -0.0661 -0.6885
69521SOL    HW215679  11.416   8.292   4.999  0.3175 -0.5596  1.4396
69522SOL     OW15680   0.865   5.330   7.354  0.0706  0.0067 -0.0998
69522SOL    HW115681   0.901   5.404   7.304  1.5621 -1.2463 -0.9762
69522SOL    HW215682   0.798   5.292   7.297  0.9895 -0.7421 -0.7142
69523SOL     OW15683  12.616   5.907   3.660 -0.5466  0.0767  0.2954
69523SOL    HW115684  12.603   5.941   3.748  1.0659  1.0350  0.2016
69523SOL    HW215685  12.557   5.831   3.654 -1.7963  0.9046  1.6451
69524SOL     OW15686   7.275   3.268   3.874 -0.1645 -0.0595 -0.6521
69524SOL    HW115687   7.352   3.310   3.911  0.8306 -0.7768 -1.7960
69524SOL    HW215688   7.203   3.327   3.894  0.5260  0.2186  1.1868
69525SOL     OW15689   9.447  11.351  12.348  0.2912  0.0864  0.3383
69525SOL    HW115690   9.471  11.329  12.438 -0.6494 -0.8479  0.3826
69525SOL    HW215691   9.500  11.428  12.327  2.2818 -1.0708  0.8650
69526SOL     OW15692   3.542   0.081   2.208  0.0001  0.5513  0.0115
69526SOL    HW115693   3.633   0.057   2.190  0.6476  0.7319  2.6315
69526SOL    HW215694   3.500  -0.001   2.235 -0.0332  0.8196  0.8087
69527SOL     OW15695   7.598   5.608   7.098 -0.6670  0.2643  0.0627
69527SOL    HW115696   7.548   5.539   7.142 -0.1976  0.4680  0.9449
69527SOL    HW215697   7.683   5.568   7.079 -0.5296  0.4680  0.2300
69528SOL     OW15698   7.434   3.181   6.078  0.6968 -0.2439 -0.4522
69528SOL    HW115699   7.352   3.221   6.052  0.5938 -0.1780 -0.0348
69528SOL    HW215700   7.501   3.246   6.057  0.3671  1.0155  2.0050
69529SOL     OW15701   2.233   2.888   0.805 -0.0498 -0.2048 -0.1859
69529SOL    HW115702   2.298   2.917   0.868  0.4109  1.7380 -1.4799
69529SOL    HW215703   2.149   2.914   0.842  0.2064  0.7818 -0.2729
69530SOL     OW15704   7.136   0.287   9.993  0.1917  0.3722  0.1767
69530SOL    HW115705   7.074   0.219  10.020  0.3274  0.3733  0.4986
69530SOL    HW215706   7.195   0.243   9.933  0.2321  0.2254  0.3243
69531SOL     OW15707   8.278   3.995   9.297  0.3525  0.0135  0.0847
69531SOL    HW115708   8.294   3.969   9.388  1.3362  0.1129 -0.0459
69531SOL    HW215709   8.357   3.968   9.250  0.5160  1.3411 -0.4543
69532SOL     OW15710   8.744   8.880   8.434 -1.1728 -0.2377  0.4208
69532SOL    HW115711   8.788   8.869   8.349 -1.3369  2.8940 -0.1750
69532SOL    HW215712   8.750   8.793   8.475  1.3207 -1.1703 -1.6195
69533SOL     OW15713   3.871  12.488  12.209  0.3161  0.4435 -0.3879
69533SOL    HW115714   3.956  12.454  12.239  1.1055  2.2496 -0.3985
69533SOL    HW215715   3.817  12.491  12.288 -0.1881 -1.8314 -0.5906
69534SOL     OW15716   3.645   5.813   3.392  0.2468  0.0062 -0.2660
69534SOL    HW115717   3.665   5.780   3.305  0.8780  1.1625 -0.5776
69534SOL    HW215718   3.550   5.823   3.393  0.3103  0.9000 -1.1830
69535SOL     OW15719   8.445  11.445  10.886 -0.6759  0.2653  0.5996
69535SOL    HW115720   8.374  11.411  10.941 -1.4701  2.3367  0.9200
69535SOL    HW215721   8.482  11.517  10.936 -0.7041  1.5090 -1.0688
69536SOL     OW15722   2.906   7.870   5.153  0.2432  0.3785  0.2157
69536SOL    HW115723   2.840   7.920   5.105 -0.7610 -0.8237  0.2885
69536SOL    HW215724   2.972   7.847   5.086 -0.5471 -0.2746 -0.3625
69537SOL     OW15725  12.935   9.285   7.413 -0.2708 -0.3579 -0.7985
69537SOL    HW115726  12.893   9.332   7.340  0.3678 -0.5738 -1.3104
69537SOL    HW215727  12.991   9.350   7.454  0.0338 -0.4696 -1.0380
69538SOL     OW15728  10.754   5.273   8.667 -0.0752  0.3037 -0.2353
69538SOL    HW115729  10.695   5.343   8.639  0.4975  0.5686 -0.8332
69538SOL    HW215730  10.731   5.256   8.758 -0.7048  0.7757 -0.3035
69539SOL     OW15731  12.464   7.088   1.842  0.5980  0.6334 -0.1320
69539SOL    HW115732  12.416   7.104   1.923  1.4544  0.4292  0.4198
69539SOL    HW215733  12.530   7.158   1.839  1.4344 -0.1363  0.0331
69540SOL     OW15734   9.447  10.097   9.287  0.3202 -0.4497 -0.2570
69540SOL    HW115735   9.530  10.135   9.257  0.8250 -1.3414 -0.0299
69540SOL    HW215736   9.383  10.166   9.273  1.1234  0.3009 -0.3323
69541SOL     OW15737  12.646   9.078  12.107 -0.8299 -0.3337 -0.2642
69541SOL    HW115738  12.670   8.989  12.130  0.1148  0.0159  0.1395
69541SOL    HW215739  12.554   9.086  12.134 -0.9078 -1.1601 -0.2673
69542SOL     OW15740  11.307  11.473  11.797  0.1452  0.2322  0.1211
69542SOL    HW115741  11.354  11.549  11.831  0.1607  0.2749  0.0021
69542SOL    HW215742  11.243  11.453  11.866  0.3743  0.1364  0.3108
69543SOL     OW15743   5.143   8.156   9.983 -0.3249  0.1045 -0.0385
69543SOL    HW115744   5.160   8.107  10.064 -2.5119 -1.9415 -0.7164
69543SOL    HW215745   5.055   8.192   9.995  0.2716  1.8231 -0.5884
69544SOL     OW15746   6.405   2.425   2.670 -0.3074  0.0115  0.1394
69544SOL    HW115747   6.370   2.347   2.627 -1.6420  0.4960  0.3094
69544SOL    HW215748   6.332   2.458   2.723  0.4368  1.0189  0.5657
69545SOL     OW15749   8.019   5.095  11.896  0.1187  0.3629  0.0451
69545SOL    HW115750   8.097   5.121  11.944  0.1387 -0.7031  0.6169
69545SOL    HW215751   7.963   5.053  11.961 -0.2346 -0.3323 -0.6832
69546SOL     OW15752   7.739  10.459   5.749  0.2837  0.2899 -0.1316
69546SOL    HW115753   7.799  10.409   5.693 -1.0452 -0.9570 -0.5068
69546SOL    HW215754   7.755  10.426   5.837  0.7250  0.5763 -0.0986
69547SOL     OW15755   6.119   4.487   2.443  0.2608 -0.0542 -0.2132
69547SOL    HW115756   6.158   4.422   2.384  0.2001 -2.2055  1.9691
69547SOL    HW215757   6.028   4.492   2.416  0.6698  0.5839 -1.5823
69548SOL     OW15758   9.550   6.689   2.354  0.0095  0.8119  1.1170
69548SOL    HW115759   9.611   6.731   2.415 -0.2500 -0.3457  2.2195
69548SOL    HW215760   9.558   6.595   2.374  1.2263  0.1883 -1.8265
69549SOL     OW15761  11.951   9.045  12.525  0.4323 -0.0258 -0.7501
69549SOL    HW115762  11.894   8.989  12.472  1.6253 -0.0091 -2.1007
69549SOL    HW215763  11.903   9.127  12.533 -0.2441 -0.4017 -0.8636
69550SOL     OW15764   1.181   7.267   5.368 -0.1572 -0.0544 -0.5803
69550SOL    HW115765   1.114   7.228   5.312 -0.1747 -0.1644 -0.4826
69550SOL    HW215766   1.227   7.192   5.406 -0.2903  0.0174 -0.2724
69551SOL     OW15767   6.961   2.587   4.384  0.0103  0.0831 -0.1277
69551SOL    HW115768   7.051   2.567   4.356 -0.1091 -2.7363  1.1755
69551SOL    HW215769   6.906   2.556   4.312 -0.0275 -1.7151  0.6240
69552SOL     OW15770   1.134   4.223  12.121 -0.4019 -0.5590 -0.2873
69552SOL    HW115771   1.208   4.282  12.138 -1.8112  1.1566  0.1714
69552SOL    HW215772   1.112   4.187  12.207 -0.2107 -0.9468 -0.3987
69553SOL     OW15773   2.257   2.639   6.619  0.3825  0.1643 -0.0277
69553SOL    HW115774   2.338   2.604   6.581  0.7601 -0.8076  1.6077
69553SOL    HW215775   2.285   2.716   6.669  0.2195  0.1196  0.1341
69554SOL     OW15776   3.022   4.687   1.513 -0.3287 -0.0596 -0.4687
69554SOL    HW115777   3.037   4.736   1.432 -1.8077 -0.1978 -0.8590
69554SOL    HW215778   3.054   4.744   1.582 -0.0938  0.5471 -1.0701
69555SOL     OW15779   3.257   9.355   1.245  0.7775 -0.0997 -0.1653
69555SOL    HW115780   3.311   9.278   1.262  1.1571 -0.1300 -1.3894
69555SOL    HW215781   3.182   9.320   1.197 -0.3963 -0.0676  1.5570
69556SOL     OW15782   1.103   5.849   4.929  0.4905  0.0441  0.2003
69556SOL    HW115783   1.148   5.847   5.013  2.3097  1.5581 -0.6882
69556SOL    HW215784   1.011   5.866   4.951  0.7291 -0.7025  1.9081
69557SOL     OW15785   9.221   2.859   2.063 -0.5951 -0.0404  0.5379
69557SOL    HW115786   9.236   2.803   2.139 -0.2678  0.6013  0.9605
69557SOL    HW215787   9.308   2.894   2.042 -0.7506  0.0969  0.1190
69558SOL     OW15788  10.157   9.850   0.871 -0.0458 -0.3228 -0.0589
69558SOL    HW115789  10.246   9.847   0.907  0.6771 -0.2665 -1.7495
69558SOL    HW215790  10.124   9.761   0.883 -0.1385 -0.1153  1.4155
69559SOL     OW15791   0.729   4.496   5.377 -0.3461  0.1090 -0.4804
69559SOL    HW115792   0.711   4.562   5.310  0.0523 -0.3910 -1.0958
69559SOL    HW215793   0.646   4.485   5.423 -0.1897  1.6721  0.2164
69560SOL     OW15794  10.777   5.982  12.170  0.2625 -0.2041  0.0436
69560SOL    HW115795  10.826   5.983  12.252 -0.7971 -0.4944  0.7032
69560SOL    HW215796  10.703   5.924  12.187 -0.3150  0.2277 -0.9169
69561SOL     OW15797   3.026   0.042  12.754  0.2888  0.3352 -0.0756
69561SOL    HW115798   3.030  -0.047  12.789  2.1079  0.2119 -0.4541
69561SOL    HW215799   3.105   0.084  12.788  0.2995  1.2861 -1.2076
69562SOL     OW15800   6.294   9.469   6.859  0.2684 -0.4577  0.1292
69562SOL    HW115801   6.350   9.412   6.911  2.8988  0.2385 -1.7229
69562SOL    HW215802   6.256   9.411   6.793  0.3862 -0.6239  0.2069
69563SOL     OW15803   5.394   7.437   0.767 -0.1634 -0.2007 -0.6337
69563SOL    HW115804   5.455   7.511   0.776 -0.9985  0.2333  2.7786
69563SOL    HW215805   5.447   7.360   0.788 -0.1058 -0.2030 -0.7787
69564SOL     OW15806  11.146   6.172   7.153  0.3394  0.0005 -0.8368
69564SOL    HW115807  11.150   6.244   7.091  0.2678  1.0709  0.3545
69564SOL    HW215808  11.117   6.213   7.235  1.6630 -1.1308  0.2394
69565SOL     OW15809   7.637  11.746   5.312 -0.2296 -0.1479 -0.1088
69565SOL    HW115810   7.618  11.677   5.248 -1.2767 -0.2252  0.2566
69565SOL    HW215811   7.681  11.814   5.261  0.7132 -1.0187 -0.5003
69566SOL     OW15812   7.652   0.687   6.459  0.7850  0.3183 -0.1428
69566SOL    HW115813   7.738   0.659   6.429  1.5754  0.9808  1.4125
69566SOL    HW215814   7.656   0.783   6.457 -0.9323  0.4351 -2.7676
69567SOL     OW15815   2.982   0.284   6.556 -0.2807 -0.1705 -0.2575
69567SOL    HW115816   2.910   0.222   6.545 -0.6281 -0.0077  0.9137
69567SOL    HW215817   3.029   0.252   6.633 -0.5124  1.0475  0.4123
69568SOL     OW15818  10.869  11.698   2.070 -0.0550 -0.2458  0.6262
69568SOL    HW115819  10.849  11.685   1.978  0.7381 -0.4693  0.4751
69568SOL    HW215820  10.911  11.616   2.097  0.5104  0.1450  0.9587
69569SOL     OW15821   1.653   3.710  11.634 -0.2018 -0.3727 -0.6419
69569SOL    HW115822   1.718   3.690  11.702  0.7239  0.9276 -1.1073
69569SOL    HW215823   1.704   3.748  11.562 -1.1439 -1.7267 -2.0997
69570SOL     OW15824   4.238  12.501   4.219  0.1086 -0.2020 -0.4488
69570SOL    HW115825   4.290  12.494   4.299  0.6927  1.7653 -0.5887
69570SOL    HW215826   4.157  12.454   4.238 -0.1263  0.9206  1.6405
69571SOL     OW15827  11.036  11.583   2.724  0.0362 -0.7354  0.5117
69571SOL    HW115828  11.069  11.624   2.804  0.4075 -0.1614  0.0713
69571SOL    HW215829  10.959  11.534   2.752  0.0597 -0.3936  1.1887
69572SOL     OW15830   7.781   2.263   0.564 -0.3537  0.5286  0.6728
69572SOL    HW115831   7.845   2.197   0.537  0.0187  1.6540 -1.4425
69572SOL    HW215832   7.735   2.224   0.638  1.5410 -1.0596  1.0925
69573SOL     OW15833  11.965  10.994   0.344 -0.1389  0.0137 -0.0870
69573SOL    HW115834  11.934  10.911   0.308 -0.4935 -0.4594  1.2505
69573SOL    HW215835  11.893  11.025   0.399  0.4064  0.6807  0.2701
69574SOL     OW15836   7.830  12.207   0.710 -0.3577 -0.6608  0.1062
69574SOL    HW115837   7.757  12.251   0.667  0.7248  2.7596  1.4486
69574SOL    HW215838   7.803  12.200   0.802  0.5094 -0.4389  0.3902
69575SOL     OW15839  11.050   7.715   7.917  1.2322 -0.3131  0.1492
69575SOL    HW115840  10.998   7.717   7.997 -1.6714 -1.6669 -1.5445
69575SOL    HW215841  11.118   7.650   7.934  0.7025 -0.5428  1.5035
69576SOL     OW15842   4.309  11.330   5.158 -0.0854  0.0986 -0.0116
69576SOL    HW115843   4.396  11.334   5.118 -0.5328  1.7110 -0.8961
69576SOL    HW215844   4.248  11.341   5.085 -0.9486  1.7066  0.8959
69577SOL     OW15845  11.201   3.770   8.005  0.0246 -0.0403  0.5289
69577SOL    HW115846  11.108   3.762   8.026  0.1613 -1.0962  0.7951
69577SOL    HW215847  11.216   3.864   7.997 -0.4717  0.3711  3.3056
69578SOL     OW15848  10.877   7.121   7.578  0.1949 -0.1878  0.5726
69578SOL    HW115849  10.868   7.214   7.598  1.8667  0.0552  0.3329
69578SOL    HW215850  10.878   7.116   7.482  1.2054 -0.2927  0.5690
69579SOL     OW15851  11.952  10.767   8.677 -0.0381 -0.1820 -0.3264
69579SOL    HW115852  12.022  10.778   8.741  0.4714  0.1438 -0.9290
69579SOL    HW215853  11.935  10.855   8.644 -1.2156 -0.1484  0.2962
69580SOL     OW15854   0.163   2.972   1.315  0.2327  0.4771  0.0243
69580SOL    HW115855   0.082   2.937   1.353  0.7041 -1.7708 -0.8420
69580SOL    HW215856   0.137   3.053   1.273 -1.4348  0.1399  0.3249
69581SOL     OW15857   9.597   2.972   5.555  0.6580 -0.0101 -0.4833
69581SOL    HW115858   9.502   2.983   5.555  0.3787 -1.9642  1.1887
69581SOL    HW215859   9.626   3.022   5.479 -1.9381 -1.2634 -2.4678
69582SOL     OW15860   7.360   8.456   1.055  0.1205 -0.4394 -0.5266
69582SOL    HW115861   7.385   8.470   1.146  1.4880  0.5382 -1.0248
69582SOL    HW215862   7.266   8.476   1.053 -0.5103 -2.8091  1.1096
69583SOL     OW15863  10.216  10.498   0.735 -0.3327  0.3225 -0.1568
69583SOL    HW115864  10.244  10.444   0.809  0.3235  0.4534 -0.3062
69583SOL    HW215865  10.276  10.572   0.735 -0.8737  0.7714 -0.2972
69584SOL     OW15866   9.666   5.047   5.986 -0.4373  0.1619  0.1863
69584SOL    HW115867   9.574   5.055   6.012 -1.1188 -0.2986 -1.9079
69584SOL    HW215868   9.712   5.107   6.044 -2.1248  0.7848  0.9598
69585SOL     OW15869   3.531   9.375   1.066 -0.2498  0.6493 -0.1559
69585SOL    HW115870   3.463   9.309   1.083 -0.0932  0.8684  1.5716
69585SOL    HW215871   3.612   9.324   1.061 -0.0722  0.6775  1.5854
69586SOL     OW15872  10.132   1.581   6.099 -0.0405  0.3393  0.4428
69586SOL    HW115873  10.151   1.674   6.085  0.4469  0.2301  0.3700
69586SOL    HW215874  10.123   1.545   6.011  0.9078  0.0884  0.4392
69587SOL     OW15875   9.428  10.263   5.743 -0.5119 -0.0588  0.0785
69587SOL    HW115876   9.390  10.191   5.794 -1.4796 -0.0528 -0.6083
69587SOL    HW215877   9.360  10.286   5.680  0.6892 -0.1516 -1.3017
69588SOL     OW15878   7.074   9.297   6.417 -0.2245  1.0420  0.1230
69588SOL    HW115879   6.998   9.270   6.365  0.2616  1.0525 -0.6047
69588SOL    HW215880   7.039   9.361   6.479 -0.8676  0.8037  0.0222
69589SOL     OW15881   8.685   1.785  10.367 -0.0623 -0.0755  0.8111
69589SOL    HW115882   8.596   1.774  10.402 -0.9510  3.3033  0.0283
69589SOL    HW215883   8.711   1.872  10.397  1.1467  0.9171 -2.6647
69590SOL     OW15884  10.837   9.181   8.345 -0.0396 -0.0124  0.0245
69590SOL    HW115885  10.856   9.232   8.266  0.1274  2.0881  1.3231
69590SOL    HW215886  10.920   9.141   8.369 -0.3179 -1.5493 -1.3863
69591SOL     OW15887   8.640  10.423   3.350 -0.2881  0.2228 -0.5273
69591SOL    HW115888   8.688  10.484   3.405  1.3791  0.2785 -1.9423
69591SOL    HW215889   8.587  10.371   3.410 -0.7070  2.1255  0.8313
69592SOL     OW15890   6.206   1.284   5.187 -0.3549  0.4177  0.3081
69592SOL    HW115891   6.157   1.365   5.195 -1.0067  0.0226  0.3591
69592SOL    HW215892   6.188   1.236   5.268  0.2470  0.3366  0.4023
69593SOL     OW15893   4.905   7.819   6.373  0.2818 -0.3572  0.2786
69593SOL    HW115894   4.964   7.828   6.449 -1.2136  0.1989  1.4112
69593SOL    HW215895   4.859   7.737   6.388  0.5305 -0.6405 -0.4561
69594SOL     OW15896  12.644   2.770   8.946 -0.4054 -0.7565  0.1021
69594SOL    HW115897  12.558   2.762   8.904 -1.5387 -0.6378  2.2988
69594SOL    HW215898  12.660   2.685   8.986 -0.3462 -0.2407  1.2201
69595SOL     OW15899   2.474   4.333   6.524 -0.6064  0.5924  0.4501
69595SOL    HW115900   2.499   4.332   6.431  0.7336 -0.1054  0.7952
69595SOL    HW215901   2.380   4.353   6.523 -0.3056  2.1078 -0.9607
69596SOL     OW15902   6.312   0.662   9.296 -0.4128  0.0207 -0.0525
69596SOL    HW115903   6.401   0.694   9.283 -0.1230  0.8459  3.1426
69596SOL    HW215904   6.261   0.742   9.313 -1.1290 -0.6512  1.0677
69597SOL     OW15905  10.731   9.820   6.213 -0.4080  0.5511 -0.1479
69597SOL    HW115906  10.708   9.913   6.220  1.2416  0.9349  0.4685
69597SOL    HW215907  10.775   9.813   6.128  1.3503  0.7763  0.7179
69598SOL     OW15908  12.669   8.380   7.643  0.3333  0.3704 -0.3764
69598SOL    HW115909  12.622   8.364   7.561  0.8519  0.9911 -0.8025
69598SOL    HW215910  12.675   8.475   7.649  0.9294  0.3123  0.0234
69599SOL     OW15911   3.897   2.899   2.452  0.2082 -1.0823 -0.0285
69599SOL    HW115912   3.986   2.920   2.478 -0.4232 -1.2901  2.5466
69599SOL    HW215913   3.842   2.955   2.507 -1.2801 -1.5821 -0.9489
69600SOL     OW15914  10.402  10.594  12.097 -0.3373 -0.1454 -0.0989
69600SOL    HW115915  10.447  10.622  12.017 -1.1157 -0.5550 -0.7006
69600SOL    HW215916  10.312  10.577  12.068 -1.0712  1.2866  1.1904
69601SOL     OW15917   1.963  10.396   6.468  0.9547 -0.4258 -0.0540
69601SOL    HW115918   1.979  10.486   6.498 -1.2836 -0.3403  1.0755
69601SOL    HW215919   1.977  10.399   6.374  1.2550  1.0269  0.0167
69602SOL     OW15920   1.822  12.398  10.453 -0.1505 -0.3258  0.0968
69602SOL    HW115921   1.810  12.385  10.547  0.1170 -1.0084  0.0406
69602SOL    HW215922   1.917  12.406  10.441 -0.2138  0.2352 -0.0577
69603SOL     OW15923   6.022   0.817   0.893  0.4037  0.3478 -0.1111
69603SOL    HW115924   6.021   0.903   0.853 -0.1612  0.8983  1.0392
69603SOL    HW215925   6.114   0.800   0.914  0.5822  0.4364 -0.8063
69604SOL     OW15926   9.429  10.484  12.842  0.2089  0.1736  0.0770
69604SOL    HW115927   9.403  10.454  12.755 -0.3839 -4.9026  1.6807
69604SOL    HW215928   9.521  10.461  12.849 -0.2843 -1.5363  1.4450
69605SOL     OW15929   7.624   4.141   6.954 -0.1939  0.1018 -0.0105
69605SOL    HW115930   7.622   4.046   6.956  3.5357 -0.1026  0.8068
69605SOL    HW215931   7.607   4.168   7.044 -0.5308  0.1764 -0.0951
69606SOL     OW15932   8.911   0.992  10.084 -0.4447  0.4818 -0.0383
69606SOL    HW115933   8.838   1.020  10.138 -1.3491 -0.4173 -0.7483
69606SOL    HW215934   8.898   0.897  10.074  0.3417  0.4485 -0.8825
69607SOL     OW15935  11.699  12.050   8.845  0.4099 -0.3515 -0.5851
69607SOL    HW115936  11.657  11.972   8.809 -1.7368  0.8666 -0.8609
69607SOL    HW215937  11.627  12.107   8.871  1.9049  0.9105  1.0818
69608SOL     OW15938  12.237   3.276   2.954  0.2172  0.0632  0.2030
69608SOL    HW115939  12.208   3.210   2.891  1.3059  1.7216 -2.1991
69608SOL    HW215940  12.157   3.320   2.981 -0.1674  0.2643 -1.1941
69609SOL     OW15941   2.540  11.298   4.285  0.1922  0.2099 -0.3030
69609SOL    HW115942   2.620  11.344   4.260  1.1662 -2.1130 -1.7359
69609SOL    HW215943   2.471  11.343   4.235  0.7249  1.5523  0.1215
69610SOL     OW15944   0.350  11.377  12.965  0.5678 -0.0170  0.3368
69610SOL    HW115945   0.396  11.340  13.041  0.0837  1.1908  1.2478
69610SOL    HW215946   0.393  11.461  12.950  0.8254 -0.3568 -0.9081
69611SOL     OW15947  11.321   2.662   5.510 -0.4644  0.3905 -0.5278
69611SOL    HW115948  11.349   2.654   5.601 -2.6001 -3.7016  0.0227
69611SOL    HW215949  11.399   2.641   5.459  0.1717  0.2996  0.4618
69612SOL     OW15950   5.095   0.519   5.230  0.2268 -0.1247 -0.0532
69612SOL    HW115951   5.024   0.507   5.292  0.8500  1.4633  1.0705
69612SOL    HW215952   5.057   0.570   5.159 -0.3167 -1.3138 -0.6182
69613SOL     OW15953   3.741   0.778   7.614 -0.6914  0.0556  0.4429
69613SOL    HW115954   3.781   0.758   7.529  0.4573  0.8836  0.7555
69613SOL    HW215955   3.780   0.862   7.639  0.2242 -0.9333  2.5270
69614SOL     OW15956   3.177   1.671   0.891 -0.5358  0.2518 -1.0022
69614SOL    HW115957   3.258   1.652   0.938 -1.6913 -1.7152  0.3540
69614SOL    HW215958   3.139   1.585   0.874 -4.0729  1.0631  1.6818
69615SOL     OW15959  10.388  11.500   1.429 -0.1372  0.1996 -0.5889
69615SOL    HW115960  10.309  11.479   1.380 -0.9724 -1.1817  1.2275
69615SOL    HW215961  10.411  11.418   1.473  2.4283  0.5143 -1.1854
69616SOL     OW15962   9.008   8.812   2.069 -0.0465  0.0964 -0.3457
69616SOL    HW115963   8.988   8.823   1.977 -0.0404  1.6116 -0.1844
69616SOL    HW215964   9.001   8.717   2.084 -1.6403 -0.0017 -1.5129
69617SOL     OW15965  12.540   0.694   9.385  0.2043  0.3049 -0.4439
69617SOL    HW115966  12.567   0.614   9.339  2.2714  0.0085  1.1219
69617SOL    HW215967  12.491   0.744   9.320  1.5399 -0.8439 -2.4353
69618SOL     OW15968   2.458   4.247   0.741 -0.1789  0.6345 -0.2121
69618SOL    HW115969   2.517   4.172   0.729 -0.9459  0.1581 -1.1758
69618SOL    HW215970   2.402   4.221   0.814  1.1934  1.3802  1.1853
69619SOL     OW15971  12.019   8.241   1.172  0.3159 -0.3889  0.4378
69619SOL    HW115972  12.026   8.145   1.173  0.7859 -0.3563  0.8221
69619SOL    HW215973  12.052   8.268   1.257 -1.5691  0.0220  1.0818
69620SOL     OW15974   1.090   8.990   5.600 -0.1977  0.8911  0.3312
69620SOL    HW115975   1.013   8.948   5.562 -0.2130  1.0947  0.1341
69620SOL    HW215976   1.136   9.028   5.525  2.0689 -2.3075 -0.1134
69621SOL     OW15977  12.277  11.394  11.101  0.2145  0.2304 -0.4868
69621SOL    HW115978  12.192  11.361  11.131 -0.0425  0.8129 -0.5533
69621SOL    HW215979  12.258  11.436  11.018  0.5531  0.4432 -0.4571
69622SOL     OW15980  11.560   9.237   2.360  0.3571  0.1201 -0.1659
69622SOL    HW115981  11.627   9.283   2.309  0.8220 -1.6064 -1.2083
69622SOL    HW215982  11.484   9.296   2.359  0.3070  0.1400 -2.9916
69623SOL     OW15983   1.427   4.183   1.592  0.2186 -0.2598  0.2365
69623SOL    HW115984   1.498   4.192   1.528 -0.5758 -1.8027 -0.9447
69623SOL    HW215985   1.424   4.089   1.610 -1.7261 -0.2786 -0.0096
69624SOL     OW15986   4.633   6.322   0.493  0.0559  0.1039 -0.2271
69624SOL    HW115987   4.585   6.271   0.428  0.3306 -0.4950  0.0319
69624SOL    HW215988   4.666   6.257   0.555 -0.5567  0.7089  0.7458
69625SOL     OW15989  12.807  10.768   2.255 -0.0653  0.1898 -0.0672
69625SOL    HW115990  12.803  10.712   2.178  0.7077  0.9128 -0.6522
69625SOL    HW215991  12.889  10.743   2.298  0.4739  1.0948 -0.5316
69626SOL     OW15992  10.309   2.553  12.113 -0.0527 -0.5073  0.4112
69626SOL    HW115993  10.256   2.564  12.035 -1.0178  1.2436  1.2596
69626SOL    HW215994  10.381   2.495  12.086 -1.1078 -1.0503 -1.3645
69627SOL     OW15995  12.014   7.395   8.635 -0.4569  0.6646 -0.4661
69627SOL    HW115996  12.012   7.370   8.727 -0.1439  1.0991 -0.3386
69627SOL    HW215997  12.021   7.491   8.636 -0.6892  0.6903 -0.9414
69628SOL     OW15998   9.237   8.909   6.328 -0.7136  0.1678 -0.3130
69628SOL    HW115999   9.221   8.995   6.290 -0.8815 -0.1652 -1.0142
69628SOL    HW216000   9.157   8.859   6.311 -0.8274  0.0353  0.5645
69629SOL     OW16001   1.479   4.585   4.114  0.1630 -0.1959 -0.2092
69629SOL    HW116002   1.404   4.581   4.055 -0.2867  2.2218  0.1226
69629SOL    HW216003   1.520   4.498   4.106 -2.2601 -1.3708 -0.8623
69630SOL     OW16004   2.030   0.638   9.075  0.5486  0.3024 -0.2893
69630SOL    HW116005   2.071   0.636   8.989 -0.5257 -0.2641 -0.8176
69630SOL    HW216006   1.966   0.710   9.069  0.6360  0.4162  0.1201
69631SOL     OW16007   1.861   2.871  11.857  0.0005 -0.0301  0.5138
69631SOL    HW116008   1.832   2.935  11.922  0.7423 -0.2910  1.1220
69631SOL    HW216009   1.933   2.825  11.900  0.1746 -0.5483 -0.3162
69632SOL     OW16010  11.867   5.954   9.366 -0.6064 -0.3696 -0.2231
69632SOL    HW116011  11.814   6.029   9.338 -0.5093 -0.1159  0.2622
69632SOL    HW216012  11.903   5.981   9.450  0.3457 -0.5225 -0.5749
69633SOL     OW16013   6.054   1.646   1.220 -0.1928 -0.1193 -0.2518
69633SOL    HW116014   5.962   1.632   1.199 -0.8281 -0.5217  2.3652
69633SOL    HW216015   6.064   1.741   1.222 -0.3446 -0.0794 -1.2842
69634SOL     OW16016  12.293   7.393   9.784 -0.0534  0.6898 -0.5688
69634SOL    HW116017  12.305   7.391   9.879 -2.1769  0.4241 -0.2616
69634SOL    HW216018  12.217   7.449   9.770 -0.1855  0.1917 -2.0775
69635SOL     OW16019   9.753   2.014  11.487 -0.1214  0.2552  0.0850
69635SOL    HW116020   9.758   2.069  11.410  0.4304  1.7626  1.1565
69635SOL    HW216021   9.797   1.933  11.461  0.6004  0.9651 -0.9860
69636SOL     OW16022   3.717   4.691   4.254  0.1317 -0.5128  0.2758
69636SOL    HW116023   3.790   4.684   4.316  1.0629  2.3095 -0.3306
69636SOL    HW216024   3.746   4.641   4.178  0.0832 -1.8981  1.1340
69637SOL     OW16025  11.251   4.273   2.309 -0.5620 -0.1069  0.5572
69637SOL    HW116026  11.316   4.303   2.373 -0.4518  0.4011  0.2147
69637SOL    HW216027  11.282   4.187   2.282  0.5887  0.5920 -0.4310
69638SOL     OW16028   0.294  11.207   4.858  0.0530  0.1933  0.1305
69638SOL    HW116029   0.342  11.169   4.931 -2.2092 -1.4417  0.8752
69638SOL    HW216030   0.361  11.250   4.805  2.1326 -0.9814  1.6615
69639SOL     OW16031  10.941   3.757  10.451  0.0237 -0.3783 -0.8123
69639SOL    HW116032  10.988   3.718  10.524 -0.6503  0.0217 -0.1564
69639SOL    HW216033  10.985   3.840  10.434 -0.9567  0.4139  0.3774
69640SOL     OW16034   2.040  11.971   8.387 -0.2676 -0.1059 -0.3729
69640SOL    HW116035   2.055  12.021   8.468  0.9428  2.8197 -2.2432
69640SOL    HW216036   2.121  11.922   8.375  0.7102  1.5640 -1.0852
69641SOL     OW16037   3.959   7.744   6.755 -0.4816  0.2618 -0.2005
69641SOL    HW116038   3.934   7.786   6.837  0.3608  0.6336 -0.1195
69641SOL    HW216039   3.993   7.816   6.701  0.3101 -0.1864 -0.3254
69642SOL     OW16040  10.725  11.627   9.285  0.3493  0.3599 -0.3209
69642SOL    HW116041  10.740  11.667   9.371 -0.7428 -1.1696  0.6401
69642SOL    HW216042  10.673  11.692   9.237 -1.1462  0.2698  1.0837
69643SOL     OW16043   7.741  10.105   9.321 -0.3800  0.4794 -0.0515
69643SOL    HW116044   7.649  10.092   9.345 -1.1000  0.9949 -2.2308
69643SOL    HW216045   7.753  10.200   9.323 -0.1030  0.4538 -0.4242
69644SOL     OW16046   0.146   9.051   9.161  0.1791 -0.4040  0.4461
69644SOL    HW116047   0.087   9.050   9.236  1.0185  0.5260  1.1580
69644SOL    HW216048   0.126   9.132   9.115  1.8713  0.7162  1.5573
69645SOL     OW16049   7.434   1.008   3.501 -0.2345 -0.4208  0.4719
69645SOL    HW116050   7.345   0.991   3.534 -0.3270 -0.2639  0.3034
69645SOL    HW216051   7.447   0.941   3.434 -0.2796 -0.3532  0.3958
69646SOL     OW16052   8.334  12.764   9.683  0.1425  0.0615  0.6432
69646SOL    HW116053   8.242  12.739   9.690  0.0714 -0.3145 -1.3010
69646SOL    HW216054   8.333  12.854   9.652  0.4101 -0.4716 -0.9691
69647SOL     OW16055   1.070   9.446  11.686 -0.4195  0.0192 -0.2118
69647SOL    HW116056   1.158   9.409  11.697 -0.8872 -1.1194 -0.1647
69647SOL    HW216057   1.016   9.398  11.749 -1.8440 -2.0637 -2.7807
69648SOL     OW16058   2.708   2.104  11.430 -0.1289  0.4316 -0.1001
69648SOL    HW116059   2.700   2.114  11.525 -0.6178 -2.9560  0.3511
69648SOL    HW216060   2.802   2.109  11.413  0.0136  0.4876  0.6754
69649SOL     OW16061  10.336  11.560   4.040  0.0122  0.4311  0.0862
69649SOL    HW116062  10.294  11.539   3.956 -0.9752 -0.4093  0.7583
69649SOL    HW216063  10.302  11.646   4.063 -1.0621 -0.0579  0.4152
69650SOL     OW16064   4.909  12.394   1.554 -0.3685 -0.4769 -0.3668
69650SOL    HW116065   4.858  12.354   1.625 -0.5782  0.2433 -0.1029
69650SOL    HW216066   4.846  12.406   1.483 -0.6481  0.6460  0.0490
69651SOL     OW16067   1.261   2.206   7.513 -0.3866  0.0987  0.0348
69651SOL    HW116068   1.332   2.231   7.572 -0.7256  1.1670  0.0141
69651SOL    HW216069   1.291   2.125   7.472  0.2607 -0.1446  0.9642
69652SOL     OW16070  12.308  11.407   6.590  0.5516 -0.3646 -0.5057
69652SOL    HW116071  12.338  11.326   6.547  1.5737  0.7957 -2.1089
69652SOL    HW216072  12.382  11.468   6.579 -0.0746  0.7016  0.9380
69653SOL     OW16073  12.727  11.033  12.794  0.4638 -0.0219  0.2791
69653SOL    HW116074  12.654  11.081  12.755  0.1996 -1.0703 -0.5421
69653SOL    HW216075  12.744  11.079  12.877 -1.0272  0.3178  0.4186
69654SOL     OW16076  11.427   3.443   7.620 -0.2595  0.7710 -0.0781
69654SOL    HW116077  11.393   3.486   7.699 -1.6349  1.1454 -0.8360
69654SOL    HW216078  11.517   3.474   7.614  0.4753 -0.6565  2.2865
69655SOL     OW16079  11.684   7.110   9.057 -0.0571 -0.5203  0.5729
69655SOL    HW116080  11.621   7.131   9.125 -1.3928 -0.2462 -0.6939
69655SOL    HW216081  11.644   7.141   8.976  1.3759 -1.0209 -0.3824
69656SOL     OW16082   7.015   4.807  12.185  0.0815 -0.2442  0.3641
69656SOL    HW116083   7.109   4.821  12.197 -0.2341  0.5582  2.1226
69656SOL    HW216084   7.005   4.712  12.184  0.9397 -0.3457 -0.2679
69657SOL     OW16085   0.079   0.190   1.073 -0.1346  0.4365 -0.3893
69657SOL    HW116086   0.009   0.252   1.093 -1.7222 -1.2133 -0.4418
69657SOL    HW216087   0.041   0.134   1.004  0.7014 -1.3368  0.5230
69658SOL     OW16088   8.809   9.317  10.607  0.5559  0.1263 -0.1686
69658SOL    HW116089   8.728   9.267  10.607  0.8408 -0.3369 -0.2450
69658SOL    HW216090   8.862   9.277  10.538  1.7528 -1.0607  1.3693
69659SOL     OW16091   2.240  10.415   3.994  0.2754 -0.6017 -0.0784
69659SOL    HW116092   2.272  10.418   3.903 -0.4047 -0.8729 -0.3347
69659SOL    HW216093   2.175  10.486   3.998  1.5047  0.5414  0.6870
69660SOL     OW16094   3.654   2.616   0.814 -0.3046  0.1826  0.2152
69660SOL    HW116095   3.723   2.650   0.870  0.0796 -0.1783 -0.0283
69660SOL    HW216096   3.683   2.637   0.725 -0.5273  0.0716  0.1163
69661SOL     OW16097  10.250   6.742   8.543 -0.5163  0.1471 -0.1030
69661SOL    HW116098  10.200   6.721   8.464  0.3051 -0.0336 -0.5855
69661SOL    HW216099  10.260   6.658   8.587 -0.9014  0.2340  0.1507
69662SOL     OW16100  12.246  12.643  10.487 -0.1906  0.1510  0.4883
69662SOL    HW116101  12.251  12.724  10.435 -0.2577  0.7645  1.4142
69662SOL    HW216102  12.317  12.588  10.453  0.9491  1.2784  0.9687
69663SOL     OW16103   7.769  11.161   6.552 -0.4904  0.0186 -0.3029
69663SOL    HW116104   7.737  11.227   6.613 -0.6099 -1.3514  1.1890
69663SOL    HW216105   7.714  11.172   6.475 -2.7411 -0.4346  1.1443
69664SOL     OW16106   0.343   1.966  11.007 -0.3464  0.1976  0.5285
69664SOL    HW116107   0.355   2.016  11.088 -0.3110 -0.4302  0.9101
69664SOL    HW216108   0.278   1.900  11.028 -0.2445 -0.0525  0.0772
69665SOL     OW16109   6.875   2.508  11.687  0.3452  0.4574 -0.5034
69665SOL    HW116110   6.929   2.508  11.766 -0.3960 -0.7134  0.0270
69665SOL    HW216111   6.894   2.424  11.646 -0.2914  0.4895 -0.8679
69666SOL     OW16112   0.857   5.582   5.389 -0.2542 -0.3134 -0.1295
69666SOL    HW116113   0.803   5.530   5.329  0.4535 -0.0355 -1.0430
69666SOL    HW216114   0.880   5.521   5.459 -1.7289 -0.4246  0.2714
69667SOL     OW16115   5.239   9.111   2.945  0.0837  0.2077 -0.4236
69667SOL    HW116116   5.225   9.174   2.874  1.0941  1.2530  0.2636
69667SOL    HW216117   5.330   9.126   2.972  0.0523 -0.9251  0.3661
69668SOL     OW16118   7.380   0.721  10.594  0.1407 -0.3344  0.1631
69668SOL    HW116119   7.425   0.646  10.633 -0.5587 -1.1404 -0.5255
69668SOL    HW216120   7.433   0.742  10.516 -0.0490 -0.5531 -0.0236
69669SOL     OW16121   6.731   2.828   9.723 -0.2106  0.3091 -0.0099
69669SOL    HW116122   6.647   2.785   9.708  0.6526 -1.5253  0.0558
69669SOL    HW216123   6.716   2.887   9.796 -0.7195 -2.4701  2.3083
69670SOL     OW16124   9.083   5.806  10.264 -0.1076 -0.0547 -0.6672
69670SOL    HW116125   9.087   5.756  10.183  0.5776  1.5059 -1.6345
69670SOL    HW216126   9.162   5.861  10.263  0.3174 -0.5414  1.4320
69671SOL     OW16127   8.493  11.760  11.787 -0.4482 -0.6893 -0.1159
69671SOL    HW116128   8.507  11.826  11.855 -0.7954 -1.3986  0.6557
69671SOL    HW216129   8.441  11.692  11.829 -0.7255 -1.1156 -1.1128
69672SOL     OW16130   7.823  12.506   1.328  0.2589 -0.0959  0.4648
69672SOL    HW116131   7.796  12.509   1.236  1.9796  1.7800 -0.0664
69672SOL    HW216132   7.752  12.549   1.376  0.0909  0.3694 -0.1980
69673SOL     OW16133   9.649   3.542  12.108  0.1118  0.2075  0.3868
69673SOL    HW116134   9.653   3.605  12.036  0.6053 -1.2327 -0.8928
69673SOL    HW216135   9.629   3.595  12.185  0.6611  1.9362 -0.6102
69674SOL     OW16136  12.035   6.630   1.298  0.1331 -0.0516  0.3194
69674SOL    HW116137  12.110   6.649   1.355  0.4131 -0.8424  0.2260
69674SOL    HW216138  12.060   6.550   1.252  0.2269  0.9760 -1.4879
69675SOL     OW16139   3.515   5.536  10.949  0.2598 -0.2111  0.1954
69675SOL    HW116140   3.582   5.605  10.952  2.5973 -2.3651  1.8846
69675SOL    HW216141   3.512   5.510  10.857 -0.4087  1.8128 -0.4108
69676SOL     OW16142   5.843   3.636   7.753  0.2272 -0.0077 -0.7987
69676SOL    HW116143   5.774   3.660   7.815  0.7001 -0.8577  0.0828
69676SOL    HW216144   5.924   3.639   7.805  1.0472  2.0237 -2.0639
69677SOL     OW16145  11.809   6.596   7.656  0.0294 -0.9003 -0.0339
69677SOL    HW116146  11.806   6.592   7.560  1.7381  1.5654 -0.2899
69677SOL    HW216147  11.902   6.609   7.676 -0.5610  0.8784  1.8022
69678SOL     OW16148  10.794   7.907   3.504 -0.1909 -0.0869  0.4749
69678SOL    HW116149  10.888   7.906   3.482 -0.3256  0.5896 -0.1706
69678SOL    HW216150  10.756   7.839   3.450 -0.0733 -0.3938  0.7710
69679SOL     OW16151   2.832   1.133   9.344 -0.3641  0.0417  0.0902
69679SOL    HW116152   2.751   1.152   9.391 -0.2667 -1.8443  1.0909
69679SOL    HW216153   2.833   1.197   9.272 -2.2616  0.7045  0.5896
69680SOL     OW16154  12.645   0.832   4.000 -0.6272 -0.6564 -0.0915
69680SOL    HW116155  12.703   0.756   3.993  0.2637  0.0476 -0.6199
69680SOL    HW216156  12.671   0.889   3.928 -0.8902  0.4086  0.6231
69681SOL     OW16157   0.017   4.839   2.686 -0.4693  0.4443  0.1885
69681SOL    HW116158   0.023   4.780   2.761 -0.5356 -0.2902 -0.3665
69681SOL    HW216159   0.018   4.781   2.610  1.3384  1.2654 -0.4650
69682SOL     OW16160  11.160   6.349   8.413 -0.1218 -0.1738 -0.2934
69682SOL    HW116161  11.089   6.289   8.388  0.2484 -0.6205 -0.2814
69682SOL    HW216162  11.238   6.310   8.375  0.3499 -0.4713  0.9431
69683SOL     OW16163   4.293   8.738   2.929 -0.5533  0.8967  0.6172
69683SOL    HW116164   4.339   8.787   2.997  0.5438  0.2207  0.3883
69683SOL    HW216165   4.214   8.788   2.913  0.1029  2.1057  1.0224
69684SOL     OW16166   0.216   8.142  10.857 -0.3976 -1.1544 -0.1728
69684SOL    HW116167   0.232   8.140  10.952  0.0222  0.7691 -0.1737
69684SOL    HW216168   0.303   8.136  10.818 -0.0095  2.8450 -0.2885
69685SOL     OW16169   9.481  12.592  11.281 -0.1002 -0.1126  0.4353
69685SOL    HW116170   9.510  12.598  11.372  0.7764  3.3556  0.0889
69685SOL    HW216171   9.466  12.683  11.255 -1.1123 -1.0319 -2.6713
69686SOL     OW16172   5.034   4.501   9.660 -0.5514  0.0708  0.4911
69686SOL    HW116173   5.089   4.578   9.643 -0.4677 -0.6806 -3.6094
69686SOL    HW216174   4.945   4.531   9.642 -0.5156 -0.7134 -1.1454
69687SOL     OW16175   5.705   7.034   1.101 -0.5379  0.3292  0.4223
69687SOL    HW116176   5.776   6.986   1.145 -2.3061  0.7599  4.1544
69687SOL    HW216177   5.633   6.971   1.097 -2.0820  1.7436  3.1110
69688SOL     OW16178  11.928   9.228   0.626 -0.1653 -0.1999 -0.0223
69688SOL    HW116179  11.841   9.267   0.623  0.8135  2.3005  1.3853
69688SOL    HW216180  11.964   9.243   0.538 -0.0903  1.4848  0.2710
69689SOL     OW16181   8.186   9.730  10.713  0.0549 -0.1918 -0.0026
69689SOL    HW116182   8.203   9.812  10.758 -1.1247 -0.3690  0.7921
69689SOL    HW216183   8.241   9.734  10.634 -0.7955  1.8143 -0.5449
69690SOL     OW16184   8.023  11.648  12.333 -0.2695 -0.1250 -0.2131
69690SOL    HW116185   8.055  11.629  12.422 -0.2512 -0.2184 -0.2391
69690SOL    HW216186   7.941  11.694  12.346  0.1709  0.6519 -0.1380
69691SOL     OW16187  10.175  12.039   0.577  0.0402  0.3956  0.6001
69691SOL    HW116188  10.113  11.968   0.594  2.5052 -1.7732  1.0880
69691SOL    HW216189  10.158  12.065   0.487 -0.4696 -1.3090  0.1841
69692SOL     OW16190   8.980   4.065   6.312  0.1730  0.1221 -0.2502
69692SOL    HW116191   8.938   4.007   6.249  0.7164  1.1704 -1.6162
69692SOL    HW216192   9.074   4.046   6.303  0.2298 -0.1340  0.6907
69693SOL     OW16193   5.715   7.877   0.217  0.9244  0.1851  0.0480
69693SOL    HW116194   5.621   7.892   0.214  1.1200  1.4191 -0.7557
69693SOL    HW216195   5.725   7.799   0.271 -0.4134  1.1499  1.8120
69694SOL     OW16196   0.761   2.387  11.539 -0.3453 -0.8434 -0.4126
69694SOL    HW116197   0.721   2.472  11.554 -0.9758 -0.9646 -1.3021
69694SOL    HW216198   0.717   2.329  11.601 -1.1353 -0.8505 -0.9653
69695SOL     OW16199   6.201   2.735   2.581 -0.2380  0.3033 -0.7096
69695SOL    HW116200   6.210   2.665   2.646 -0.6130 -1.3135 -2.3237
69695SOL    HW216201   6.286   2.779   2.582  0.3861 -0.8669 -0.3911
69696SOL     OW16202   0.679   2.181  10.267  0.4477 -0.4873  0.4010
69696SOL    HW116203   0.656   2.088  10.268  0.1194 -0.4808 -1.6822
69696SOL    HW216204   0.756   2.187  10.323 -0.4322 -1.7239  1.8430
69697SOL     OW16205  10.046   5.097   0.125  0.3171  0.0564  0.3673
69697SOL    HW116206  10.130   5.138   0.147 -0.4484  1.6252  0.5128
69697SOL    HW216207  10.069   5.008   0.099  2.2408  1.0041 -1.4546
69698SOL     OW16208   9.244  10.615   5.075  0.3261  0.6312  0.2911
69698SOL    HW116209   9.185  10.561   5.022  0.5567  0.5550  0.1091
69698SOL    HW216210   9.186  10.669   5.129  0.0644 -0.9656  1.7048
69699SOL     OW16211   6.366  11.058  12.712  0.0187 -0.0524  0.3787
69699SOL    HW116212   6.355  11.001  12.788 -0.2043 -0.6583 -0.1040
69699SOL    HW216213   6.458  11.084  12.715 -0.0992  0.2859  1.1061
69700SOL     OW16214  11.311   3.812  10.744 -0.3635  0.0810 -0.2602
69700SOL    HW116215  11.402   3.830  10.720  0.3602 -2.2490  0.4479
69700SOL    HW216216  11.309   3.819  10.839 -0.6090 -1.0440 -0.1691
69701SOL     OW16217   0.575  10.164   7.321  0.5060  0.2840 -0.1941
69701SOL    HW116218   0.513  10.214   7.373  0.5718  0.3853 -0.2134
69701SOL    HW216219   0.521  10.101   7.273  0.3044  1.0635 -1.0098
69702SOL     OW16220   6.289   3.665  11.518  0.3303  0.0546  0.0362
69702SOL    HW116221   6.307   3.617  11.437  0.7253  0.0354  0.1324
69702SOL    HW216222   6.239   3.742  11.490  0.5477  0.0979 -0.2378
69703SOL     OW16223  12.427   9.373   1.862 -0.0658  0.0420  0.1397
69703SOL    HW116224  12.418   9.449   1.805  0.6864  1.7829  2.2053
69703SOL    HW216225  12.516   9.342   1.847 -0.3618 -0.4344 -0.6809
69704SOL     OW16226  10.533   7.461   1.451  0.0943 -0.4012  0.5136
69704SOL    HW116227  10.579   7.542   1.431 -0.1313 -0.2512  0.6053
69704SOL    HW216228  10.480   7.481   1.528 -1.7095  0.0235 -0.7717
69705SOL     OW16229   5.510   7.847   3.948  0.5460  0.5535  0.0895
69705SOL    HW116230   5.438   7.831   3.887  0.0905 -0.0529  0.7723
69705SOL    HW216231   5.483   7.925   3.997  0.6751  0.7304 -0.1157
69706SOL     OW16232   1.253   9.780   1.092  0.1101  0.0573  0.6418
69706SOL    HW116233   1.228   9.762   1.183 -2.4611 -0.4460 -0.0831
69706SOL    HW216234   1.287   9.697   1.059  0.8341  0.1817  1.0463
69707SOL     OW16235   2.398  10.698   7.870 -0.3015  0.0845 -0.1120
69707SOL    HW116236   2.454  10.641   7.923 -2.8021 -0.5383  2.1213
69707SOL    HW216237   2.350  10.638   7.812  0.3156  0.4549 -1.0219
69708SOL     OW16238  11.256   3.708   4.106  0.0754 -0.2203  0.6827
69708SOL    HW116239  11.210   3.650   4.044 -1.0985 -0.0058  1.3101
69708SOL    HW216240  11.185   3.746   4.159  1.0583 -0.4671  2.2148
69709SOL     OW16241   5.999   1.993   4.819 -0.0825  0.1405  0.8339
69709SOL    HW116242   6.004   1.913   4.767  1.7579  0.2060  0.8617
69709SOL    HW216243   5.991   1.963   4.910 -1.0298  0.0208  0.7232
69710SOL     OW16244   3.832  11.313   0.107  0.1245 -0.1352 -0.0307
69710SOL    HW116245   3.851  11.323   0.014 -0.5127  0.7963 -0.0720
69710SOL    HW216246   3.849  11.221   0.125  0.8057 -0.1993 -0.9363
69711SOL     OW16247  10.287  11.426  12.962  1.0668  0.3035  0.0942
69711SOL    HW116248  10.305  11.469  12.878 -0.3954  1.6170  0.3996
69711SOL    HW216249  10.203  11.383  12.948  1.6997 -1.0545  0.3393
69712SOL     OW16250   8.153   7.567   8.661  0.1790  0.3459 -0.0514
69712SOL    HW116251   8.159   7.473   8.677 -2.3372  0.1963  0.4617
69712SOL    HW216252   8.240   7.601   8.683  0.7473 -1.6745  1.0503
69713SOL     OW16253   0.793  10.205   5.645 -0.4286 -0.0191  0.3442
69713SOL    HW116254   0.710  10.248   5.623 -0.8645 -1.0032  0.0093
69713SOL    HW216255   0.775  10.158   5.727  0.2063  0.8698  1.0122
69714SOL     OW16256  12.012   3.426   4.044 -0.0653 -0.4369 -0.3637
69714SOL    HW116257  11.995   3.336   4.018 -0.0049 -0.2603 -1.0455
69714SOL    HW216258  12.030   3.471   3.961  0.8168 -0.0013  0.0481
69715SOL     OW16259   6.108   5.341   1.837  0.2593 -0.5993 -0.1556
69715SOL    HW116260   6.064   5.301   1.762 -0.3957  0.7358 -0.5074
69715SOL    HW216261   6.109   5.435   1.817 -0.3994 -0.1544  1.7323
69716SOL     OW16262  10.909   1.608   1.464  0.6577  0.1283 -0.0051
69716SOL    HW116263  10.838   1.591   1.401  1.7080 -0.1605 -1.1544
69716SOL    HW216264  10.915   1.529   1.516 -0.6478  0.6039  0.9356
69717SOL     OW16265  11.931   8.105   6.931  0.2064 -0.1629 -0.6911
69717SOL    HW116266  12.002   8.151   6.977  1.0011 -1.2267 -0.8114
69717SOL    HW216267  11.851   8.145   6.964  0.7979 -0.1551  0.8222
69718SOL     OW16268   4.535   5.025  11.834  0.4585 -0.3892 -0.2040
69718SOL    HW116269   4.581   5.053  11.912  1.1666 -1.0690 -0.3624
69718SOL    HW216270   4.503   4.937  11.855  0.3226 -0.4240 -0.5411
69719SOL     OW16271   1.388   1.627   1.486  0.2095 -0.9477  0.1655
69719SOL    HW116272   1.350   1.667   1.408  1.3224 -1.2479 -0.5548
69719SOL    HW216273   1.325   1.645   1.556  0.5613  1.8856 -0.1505
69720SOL     OW16274  11.236  10.413   3.779 -0.0767  0.4048  0.0621
69720SOL    HW116275  11.154  10.429   3.826 -1.4858  1.4430 -2.5272
69720SOL    HW216276  11.225  10.327   3.739  0.2015  0.4382 -0.0902
69721SOL     OW16277  10.668  10.231   9.217  0.2021 -0.1429 -0.1701
69721SOL    HW116278  10.573  10.236   9.208  0.0167 -1.3973  0.7596
69721SOL    HW216279  10.690  10.140   9.196  1.0189 -0.2122  0.8580
69722SOL     OW16280   8.205   6.626   5.627  0.0627 -0.0421  0.0555
69722SOL    HW116281   8.161   6.670   5.700  0.7505  0.2603  0.3017
69722SOL    HW216282   8.137   6.614   5.561 -0.3592  0.5213  0.3825
69723SOL     OW16283   0.358   5.576   8.922  0.5769  0.3840 -0.7524
69723SOL    HW116284   0.269   5.563   8.889  0.4233 -1.3499  0.2298
69723SOL    HW216285   0.358   5.667   8.954  0.0573  1.3611 -3.2713
69724SOL     OW16286   3.792   1.564   6.263  0.5861  0.2662 -0.9260
69724SOL    HW116287   3.825   1.599   6.180  0.9430  0.5360 -0.6770
69724SOL    HW216288   3.813   1.471   6.259  1.6942  0.4795 -0.6461
69725SOL     OW16289   0.610  12.906   1.481  0.2400 -0.0125  0.5844
69725SOL    HW116290   0.684  12.955   1.447 -0.2608  1.2839  1.2816
69725SOL    HW216291   0.647  12.825   1.514  1.1552  0.0751 -0.1981
69726SOL     OW16292  10.086   5.055   0.631 -0.5012  0.2535 -0.1565
69726SOL    HW116293  10.027   5.105   0.687 -1.8288 -0.8217 -0.5456
69726SOL    HW216294  10.101   5.112   0.555 -1.2359  0.4396 -0.1654
69727SOL     OW16295   4.945   1.847   3.134  0.3999  0.5614  0.9830
69727SOL    HW116296   4.875   1.789   3.161 -0.0832  1.5402  1.9356
69727SOL    HW216297   4.956   1.832   3.041 -1.0827  0.3960  0.8240
69728SOL     OW16298   9.380   5.881   4.861  0.4418  0.1549 -0.5253
69728SOL    HW116299   9.461   5.832   4.870 -0.1470 -0.6047  0.8109
69728SOL    HW216300   9.369   5.927   4.944 -0.9316 -0.4476 -0.3458
69729SOL     OW16301   8.940   1.945   3.851  0.1947  0.1810  0.0137
69729SOL    HW116302   8.976   1.901   3.929  0.5619  1.1047  0.3845
69729SOL    HW216303   8.934   2.037   3.877 -0.9746  0.2888 -0.5948
69730SOL     OW16304  11.972   4.403   1.500 -0.2851 -0.0959 -0.0596
69730SOL    HW116305  11.914   4.475   1.473  0.5471 -0.8481 -4.6808
69730SOL    HW216306  12.041   4.446   1.549 -1.4965  1.7506  0.1473
69731SOL     OW16307  12.417   0.155   2.957  0.0425 -0.4349 -0.4975
69731SOL    HW116308  12.438   0.234   3.007  0.9283 -1.3186  0.5973
69731SOL    HW216309  12.326   0.135   2.981 -0.0093 -0.0501 -0.3565
69732SOL     OW16310   1.208   7.424   4.429  0.1704  0.2486 -0.1225
69732SOL    HW116311   1.155   7.434   4.350 -0.8340 -1.3985  0.2979
69732SOL    HW216312   1.296   7.452   4.402 -0.6092  1.8160 -1.1850
69733SOL     OW16313   1.739  10.463   4.821  0.1918  0.3371  0.4457
69733SOL    HW116314   1.780  10.482   4.736 -0.5916  2.5062  0.4808
69733SOL    HW216315   1.675  10.395   4.802  0.7528  0.0459 -0.4824
69734SOL     OW16316   7.508   5.420  11.788 -0.2074  0.0923 -0.1021
69734SOL    HW116317   7.491   5.358  11.858 -1.0971  0.0943 -0.3082
69734SOL    HW216318   7.454   5.390  11.715  1.1831 -0.2903 -1.0316
69735SOL     OW16319   7.607  10.674   3.982 -0.6027 -0.0905 -0.6524
69735SOL    HW116320   7.679  10.714   4.031 -1.8979  1.7997 -0.1618
69735SOL    HW216321   7.645  10.650   3.898  0.4195  1.7038 -0.7481
69736SOL     OW16322   5.896   2.709  11.414  0.5025 -0.5822  0.2021
69736SOL    HW116323   5.862   2.798  11.404  0.2590 -0.3980  2.2853
69736SOL    HW216324   5.939   2.691  11.330  1.5829  1.9452  0.1014
69737SOL     OW16325  12.593  10.239   2.245 -0.5555  0.3669  0.0211
69737SOL    HW116326  12.628  10.219   2.158 -0.6905 -0.1220  0.0779
69737SOL    HW216327  12.508  10.194   2.247 -2.1805  3.1028 -0.8721
69738SOL     OW16328   2.597   2.013   6.017 -0.0231  0.1555  0.1724
69738SOL    HW116329   2.610   2.065   5.938 -0.4195 -0.4994 -0.3366
69738SOL    HW216330   2.502   2.004   6.024  0.0527 -1.6904 -0.5616
69739SOL     OW16331   4.054   7.830   1.060  0.9343 -0.0454 -0.4835
69739SOL    HW116332   3.985   7.776   1.100  0.0668  0.8973 -0.6719
69739SOL    HW216333   4.024   7.920   1.073  3.3810  0.5686  1.7134
69740SOL     OW16334   6.890   9.883   4.990  0.3198  0.0137  0.1102
69740SOL    HW116335   6.813   9.876   5.047  0.7496 -0.1479  0.6906
69740SOL    HW216336   6.863   9.844   4.907 -0.1496 -0.2705  0.3937
69741SOL     OW16337   4.341   7.266   0.926 -0.3251  0.1066 -0.4422
69741SOL    HW116338   4.346   7.360   0.943  0.0956  0.2734 -1.4599
69741SOL    HW216339   4.328   7.227   1.013 -2.2653  1.2102 -0.1775
69742SOL     OW16340  12.321   7.451   3.499  0.1735 -0.4948  0.4601
69742SOL    HW116341  12.400   7.403   3.475  0.3781  0.9695 -2.2788
69742SOL    HW216342  12.352   7.522   3.555  0.6516 -0.6185  0.3574
69743SOL     OW16343  12.719  11.049  12.012 -0.4421 -0.1732  0.2750
69743SOL    HW116344  12.808  11.061  11.981 -1.4746  0.6484 -2.7411
69743SOL    HW216345  12.690  11.136  12.038 -0.8427 -0.1426 -0.2539
69744SOL     OW16346   0.542   8.096   9.492 -0.3064  0.1083  0.2573
69744SOL    HW116347   0.526   8.018   9.546 -2.5477  0.2860 -0.0427
69744SOL    HW216348   0.508   8.072   9.406  0.9652  0.6901 -0.4171
69745SOL     OW16349  10.679   5.040  12.759 -0.2749 -0.1609 -0.2434
69745SOL    HW116350  10.741   4.981  12.803 -0.2603 -3.2708 -3.9467
69745SOL    HW216351  10.730   5.120  12.742  0.4842  0.1110  2.6625
69746SOL     OW16352   7.507   8.274  11.644 -0.0873  0.3250 -0.5970
69746SOL    HW116353   7.588   8.276  11.695 -0.3968  1.1604 -0.1221
69746SOL    HW216354   7.480   8.365  11.637 -1.5301 -0.0142  0.1379
69747SOL     OW16355   4.781  12.767   9.575  0.3258 -0.5311 -0.2139
69747SOL    HW116356   4.800  12.681   9.612  1.1188 -0.2151  0.1350
69747SOL    HW216357   4.739  12.815   9.646  1.6930  0.0170  0.2646
69748SOL     OW16358   8.914   6.435   9.545  0.2497 -0.2053  0.1304
69748SOL    HW116359   8.903   6.363   9.607 -0.6343 -2.4499 -2.4371
69748SOL    HW216360   8.826   6.453   9.513  0.6991  0.7724 -0.6017
69749SOL     OW16361   6.726   9.243   8.496 -0.4232  0.0862  0.4276
69749SOL    HW116362   6.807   9.254   8.447 -0.2023 -1.2138  0.4715
69749SOL    HW216363   6.666   9.307   8.457 -0.0911 -0.5214 -1.1697
69750SOL     OW16364   8.296  11.142   8.460 -0.1521 -0.5061 -0.1771
69750SOL    HW116365   8.276  11.131   8.368 -1.0876  1.0301 -0.1875
69750SOL    HW216366   8.344  11.225   8.465  0.8459 -1.0995  0.6039
69751SOL     OW16367   1.538   2.467   2.677 -0.4647  0.2174  0.7582
69751SOL    HW116368   1.548   2.382   2.720  2.6896 -1.4211 -2.5923
69751SOL    HW216369   1.471   2.452   2.610  0.0657  0.3830  0.1880
69752SOL     OW16370   6.405   5.158   3.061  0.5951  0.1517  0.2171
69752SOL    HW116371   6.483   5.124   3.104  0.8413  0.9913  0.4556
69752SOL    HW216372   6.417   5.253   3.062 -0.8929  0.3719  1.1854
69753SOL     OW16373   3.892  11.447  12.637  0.5506  0.6609 -0.2900
69753SOL    HW116374   3.944  11.423  12.561 -0.9978 -0.1928 -1.1249
69753SOL    HW216375   3.856  11.533  12.615  0.3432  0.5447 -0.4144
69754SOL     OW16376   8.389   2.894   3.125 -0.0939  0.4176 -0.3108
69754SOL    HW116377   8.342   2.976   3.140  0.7845  1.0531 -0.8952
69754SOL    HW216378   8.481   2.920   3.118  0.1914 -0.6097 -0.5858
69755SOL     OW16379  10.983   2.243   5.039  0.1662  0.0344  0.0789
69755SOL    HW116380  11.032   2.321   5.012  0.0613 -0.1480 -0.6692
69755SOL    HW216381  10.900   2.277   5.072  0.4006  0.2806  0.4212
69756SOL     OW16382   6.444  11.610   7.734 -0.1305  0.3919 -0.2102
69756SOL    HW116383   6.378  11.633   7.800  0.4358  1.6139 -0.0273
69756SOL    HW216384   6.528  11.630   7.776  0.2183  1.8469 -1.4978
69757NA      NA16385   7.251   4.604   9.732 -0.1079  0.2061 -0.0993
69758NA      NA16386  10.996   7.371   6.178 -0.0721 -0.1017 -0.4874
69759NA      NA16387   3.696  11.742  12.711 -0.1187 -0.3141  0.1635
69760NA      NA16388   7.937  11.465   6.222  0.1894  0.0068 -0.5022
69761NA      NA16389   0.751  12.367   4.116  0.0096  0.0997  0.1655
69762NA      NA16390   0.624   1.171   5.665 -0.2898 -0.1595 -0.0584
69763NA      NA16391   9.555   9.507   3.296 -0.0094 -0.2979 -0.3698
69764NA      NA16392  11.685   4.118   6.655 -0.3636 -0.4852 -0.1150
69765NA      NA16393  11.779  10.366   8.692 -0.3308  0.0106 -0.2655
69766NA      NA16394   5.872   6.259   3.506  0.2461  0.2003  0.3037
69767NA      NA16395   9.050   5.290   4.571  0.1777 -0.0854 -0.0546
69768NA      NA16396   0.569   4.763   2.941  0.3287 -0.7761 -0.4763
69769NA      NA16397   3.269   1.885   8.267 -0.0192  0.2736  0.3837
69770NA      NA16398  10.984   2.761   7.316  0.1193 -0.4043 -0.0900
69771NA      NA16399   9.205   0.193   7.362  0.3208 -0.2911  0.0620
69772NA      NA16400   1.327   3.111   1.107  0.1951 -0.3372  0.0582
69773NA      NA16401   7.728   3.418  10.476  0.2813  0.0661  0.0976
69774NA      NA16402   3.024   1.847   0.859 -0.1397  0.0128 -0.0277
69775NA      NA16403   4.043   3.606   5.649 -0.6148 -0.1407  0.5990
69776NA      NA16404   8.746   7.399   3.012 -0.1248  0.3023  0.5335
69777NA      NA16405   7.180   2.353  12.313 -0.3096  0.2113  0.2823
69778NA      NA16406   8.176   3.824   1.914 -0.2017 -0.7001 -0.4160
69779NA      NA16407  12.201   3.510  12.437  0.4431 -0.2293  0.5847
69780NA      NA16408   9.196  11.393   1.243 -0.1853 -0.4114 -0.0853
69781NA      NA16409   0.984   5.189   5.577  0.2698 -0.2032  0.5219
69782NA      NA16410   5.494   2.306   1.923 -0.4591  0.2397  0.0769
69783NA      NA16411   8.111  10.663   7.889  0.4204  0.4273  0.2035
69784NA      NA16412   1.827   7.861   1.531 -0.5602 -0.2206  0.0752
69785NA      NA16413  12.707   2.067   3.846  0.0295 -0.3772 -0.1836
69786NA      NA16414   8.410   0.632  11.359 -0.2176  0.2406  0.0235
69787NA      NA16415  12.537   4.217   3.296  0.5130 -0.3532  0.1904
69788NA      NA16416  10.655   4.600   2.671 -0.3213  0.4318 -0.2352
69789NA      NA16417  12.703   3.750   4.355 -0.1845 -0.2889  0.3652
69790NA      NA16418  12.611  10.396  12.416 -0.1719 -0.5424 -0.5848
69791NA      NA16419   5.118   0.709  11.217 -0.6762 -0.0639  0.0421
69792NA      NA16420   7.415  11.044   4.101  0.0402 -0.0776 -0.1791
69793NA      NA16421  12.586   1.876   5.204 -0.2199  0.0485 -0.2320
69794NA      NA16422  10.890   8.387   8.174 -0.4145 -0.1205  0.1923
69795NA      NA16423   8.558  11.195   8.013  0.3658 -0.1941  0.2103
69796NA      NA16424   2.511   7.096   1.003  0.1742 -0.1133 -0.4253
69797NA      NA16425   0.973  10.167   1.728 -0.8797  0.5465  0.0891
69798NA      NA16426   3.833   1.679   7.154  0.3394 -0.3971 -0.3716
69799NA      NA16427   9.011   5.149  10.964 -0.0615 -0.0496  0.3863
69800NA      NA16428   8.824   5.589   2.077 -0.4763 -0.5092  0.2231
69801NA      NA16429   0.927  12.720   9.114  0.0184  0.1539  0.0974
69802NA      NA16430  12.014   0.892   6.256  0.4479  0.0610 -0.0484
69803NA      NA16431  10.545  12.404   0.183 -0.3520  0.2592  0.1741
69804NA      NA16432  11.216  12.285   8.595  0.5668  0.1310  0.0355
69805NA      NA16433   0.328   4.716  10.989 -0.0388 -0.4845 -0.0729
69806NA      NA16434  10.430  12.109   1.709 -0.0071  0.1857 -0.0263
69807NA      NA16435   1.991   2.628   9.379 -0.3812  0.2428  0.2222
69808NA      NA16436   2.284   6.237   7.659 -0.4316 -0.2616  0.2377
69809NA      NA16437   2.223   3.174  12.127  0.0911 -0.6045  0.1056
69810NA      NA16438   7.427   3.391   1.263  0.4811  0.3922 -0.1514
69811NA      NA16439  12.696   0.630  12.420  0.0243 -0.0828 -0.0298
69812NA      NA16440   8.168  11.222   0.814 -0.2751  0.1594  0.2066
69813NA      NA16441  12.683  10.632   0.860  0.3445  0.2353 -0.1679
69814NA      NA16442  11.250  10.277   4.542  0.0083 -0.0627 -0.0535
69815NA      NA16443   2.360   2.718  12.617 -0.3791  0.3701  0.2087
69816NA      NA16444  12.793   8.235   3.550 -0.2937 -0.0748  0.2243
69817NA      NA16445   6.552   0.576   1.807  0.5586  0.1314 -0.2575
69818NA      NA16446  10.920   7.157   8.302 -0.5235  0.1027  0.2661
69819NA      NA16447  12.452  10.928  11.624  0.0017  0.6921  0.1233
69820NA      NA16448   9.463   2.946   9.098 -0.1848 -0.5718 -0.2220
69821NA      NA16449  11.911   8.157   9.403 -0.1364 -0.2437  0.3691
69822NA      NA16450   0.544  12.621   1.115 -0.3396 -0.2185  0.0931
69823NA      NA16451   9.772   0.426   9.473  0.3877  0.2960  0.5480
69824NA      NA16452  10.172   8.164   0.947 -0.3158 -0.3254  0.3154
69825NA      NA16453  10.738  11.437   9.179  0.2235 -0.2798 -0.3943
69826NA      NA16454   3.254  10.464   0.454  0.2753  0.1123  0.0748
69827NA      NA16455   1.371  12.440   6.421  0.0722 -0.1179 -0.1416
69828NA      NA16456   0.381   4.235   5.614  0.2486 -0.0816 -0.3066
69829NA      NA16457   8.971   0.125  11.128 -0.0918  0.6343 -0.0290
69830NA      NA16458   5.217   7.289   3.634  0.3969 -0.4231  0.0958
69831NA      NA16459  10.629   5.486   9.531  0.8543  0.1194 -0.4237
69832NA      NA16460  11.128   0.119  12.646  0.2617  0.4734 -0.1445
69833NA      NA16461  10.503   7.161   4.834  0.0120 -0.1029 -0.2205
69834NA      NA16462   0.434   0.273  11.274  0.4762 -0.1428  0.3488
69835NA      NA16463  10.869   8.921   4.136  0.2605 -0.2691 -0.5194
69836NA      NA16464   2.934   0.516   4.160 -0.1920 -0.7323  0.0748
69837NA      NA16465   8.412   5.546   9.139  0.1560  0.2070  0.1632
69838NA      NA16466   7.537   7.343   9.903 -1.0813  0.1908 -0.0676
69839NA      NA16467   7.112   6.391   2.450 -0.1522  0.0041  0.3273
69840NA      NA16468  12.242   2.416   8.365  0.5282  0.5154  0.1984
69841NA      NA16469   3.900   3.271   6.873 -0.0591  0.0384 -0.3409
69842NA      NA16470   3.813   5.003   1.632  0.1842  0.5613 -0.0807
69843NA      NA16471   9.346  10.671   4.628  0.1420 -0.4825  0.8428
69844NA      NA16472   3.913   4.941   5.526 -0.0157 -0.3606  0.3673
69845NA      NA16473   6.206   2.968   4.569 -0.1111 -0.2313  0.1979
69846NA      NA16474   0.606  10.788  11.383 -0.1098  0.0112  0.2922
69847NA      NA16475   3.398   1.120  10.791 -0.2459 -0.2011  0.1982
69848NA      NA16476   2.447   3.177   0.136 -0.2205  0.1124  0.4203
69849NA      NA16477  12.868   3.507   5.152 -0.2807  0.1393 -0.3356
69850NA      NA16478  11.346   2.784  11.176  0.3637 -0.1193  0.2341
69851NA      NA16479   5.918   2.561  11.560 -0.2695  0.2175  0.0035
69852NA      NA16480   8.395   9.171  10.584  0.5554  0.2484 -0.0247
69853NA      NA16481  11.483   9.439   8.138 -0.4134 -0.3082  0.4651
69854NA      NA16482   3.217   3.508   7.343  0.3294 -0.4830  0.1426
69855NA      NA16483   0.245   8.589   2.258  0.2106 -0.2498 -0.2664
69856NA      NA16484   2.295   2.774   3.088  0.2982 -0.2635 -0.0052
69857NA      NA16485   6.356  11.377  12.038  0.0126  0.3827  0.3820
69858NA      NA16486  10.418   0.572   5.165  0.6428  0.1936 -0.3544
69859NA      NA16487   6.243   4.008   8.631  0.0274 -0.0554 -0.0345
69860NA      NA16488  10.450   0.878   7.029  0.1910 -0.3233 -0.1433
69861NA      NA16489   9.458   7.241   0.295 -0.4139 -0.2916  0.3723
69862NA      NA16490   4.546   1.914   9.209 -0.0198  0.0337  0.1597
69863NA      NA16491   7.518   1.149   4.088  0.3790 -0.1615 -0.1868
69864NA      NA16492   3.290  11.016  11.275 -0.4448  0.5429  0.3645
69865NA      NA16493  10.574   2.496   8.426  0.0399  0.3216  0.1293
69866NA      NA16494   6.828   8.309  11.140 -0.1068  0.1299 -0.1857
69867NA      NA16495   7.824   4.877   3.812  0.0938 -0.3723 -0.7309
69868NA      NA16496  11.473   3.600  12.111  0.2763  0.1853  0.4558
69869NA      NA16497  10.994   6.181   1.858  0.1393  0.1883  0.2979
69870NA      NA16498   2.592   1.688   8.812 -0.1860  0.2199 -0.5066
69871NA      NA16499   1.884   9.886  12.347 -0.2290  0.2316  0.5500
69872NA      NA16500   4.582  11.505   5.891 -0.2062  0.3859 -0.1024
69873NA      NA16501   0.175   8.066   0.186  0.1735 -0.1375 -0.5756
69874NA      NA16502   4.180   3.758  12.153  0.3996  0.2460  0.4290
69875NA      NA16503   4.989   2.119   8.379  0.0819 -0.2170 -0.1856
69876NA      NA16504  10.613   6.570  12.141 -0.0241  0.6709  0.4935
69877NA      NA16505   0.107   5.032   2.712  0.5040  0.1341  0.0863
69878NA      NA16506   9.701   3.023   1.739 -0.0299  0.4124 -0.0610
69879NA      NA16507   8.856   3.314   7.609 -0.3067 -0.1260 -0.3899
69880NA      NA16508   6.775   2.330   7.966  0.0042 -0.7705 -0.0935
69881NA      NA16509   0.682   3.716   0.301 -0.6065 -0.5280  0.3229
69882NA      NA16510   9.146   4.540   1.293  0.0182 -0.1537 -0.7355
69883NA      NA16511   7.214   3.863   4.150 -0.2940 -0.3318  0.2749
69884NA      NA16512  10.931  10.642  12.713 -0.0209 -0.6150  0.0232
69885NA      NA16513   3.520  10.459   5.086 -0.4503 -0.4942 -0.0250
69886NA      NA16514   3.128  11.756  12.331  0.4759 -0.0656  0.0649
69887NA      NA16515  10.926   8.447   0.685  0.0177  0.1583 -0.1426
69888NA      NA16516   8.339  10.990   1.107  0.0320  0.3374 -0.1880
69889NA      NA16517   0.326   5.856   2.435 -0.0891  0.3472 -0.0510
69890NA      NA16518  12.157   7.159   0.793  0.1439 -0.8363  0.4591
69891NA      NA16519   2.969   1.052   9.481  0.0130 -0.3175  0.1349
69892NA      NA16520   7.047  11.648  12.776 -0.0933 -0.3509 -0.4503
69893NA      NA16521  12.561   5.945  12.542  0.5762  0.0859 -0.2397
69894NA      NA16522  11.682   4.293   9.503 -0.0669 -0.3319 -0.2477
69895NA      NA16523   1.669   1.380   0.417 -0.5514  0.2336 -0.4700
69896NA      NA16524  10.040  11.784   6.831 -0.0003  0.1517 -0.4575
69897NA      NA16525   6.751   4.528   4.302  0.0645  0.3573  0.2009
69898NA      NA16526   1.115   1.115   2.934 -0.1460  0.1847 -0.1103
69899NA      NA16527  11.353  12.341  12.880  0.1981  0.2226 -0.1692
69900NA      NA16528   7.904   2.903   3.206 -0.1391  0.3456 -0.2028
69901NA      NA16529   7.748   7.669   2.655 -0.1889 -0.4613  0.3348
69902NA      NA16530   1.632   1.084   7.350  0.1707  0.4809 -0.2010
69903NA      NA16531  12.637   0.778   9.556  0.0524 -0.9520  0.3242
69904NA      NA16532   8.083   0.425   2.620  0.2296  0.7301  0.0784
69905NA      NA16533  10.633   2.737   4.906  0.1677 -0.2711 -0.4460
69906NA      NA16534   7.882   6.385   1.157 -0.3366  0.0349 -0.0200
69907NA      NA16535   9.018   3.832   8.620 -0.0257 -0.0247 -0.3275
69908NA      NA16536   0.286   2.180   3.072  0.5920  0.1556 -0.4118
69909NA      NA16537   6.636   3.406  11.513 -0.3072  0.3997 -0.3336
69910NA      NA16538   8.377   6.943   6.101 -0.3586 -0.0803 -0.0507
69911NA      NA16539   8.671  11.507   0.330  0.0355 -0.1037  0.4897
69912NA      NA16540  10.934   6.504   4.460  0.1166  0.4517  0.4340
69913NA      NA16541  11.918   7.079   1.122  0.0929 -0.1217  0.0886
69914NA      NA16542   9.193   0.841   3.155 -0.1634  0.5429 -0.2925
69915NA      NA16543   7.580   0.129   8.005 -0.1364  0.1186 -0.2236
69916NA      NA16544   0.082  12.171   7.620  0.2300  0.1722 -0.8061
69917NA      NA16545   8.484   2.032   0.874  0.3829 -0.8665  0.0381
69918NA      NA16546   8.024  12.432   2.591  0.1545 -0.2016 -0.1695
69919NA      NA16547  11.872   4.011   5.785  0.0959  0.4249 -0.2771
69920NA      NA16548   1.695   4.952  11.913 -0.0013  0.1520  0.2896
69921NA      NA16549  10.329  12.094   5.867 -0.0097  0.0631  0.3180
69922NA      NA16550   8.302   4.262  11.264  0.0318 -0.0220  0.0074
69923NA      NA16551   0.755   0.041   2.930  0.7236  0.2380  0.0995
69924NA      NA16552   1.918   4.608   0.072 -0.2099  0.0874 -0.1142
69925NA      NA16553   4.144  11.376   3.636 -0.7324  0.2858 -0.3983
69926NA      NA16554   1.480   0.945   1.365  0.1132  0.0704  0.2347
69927NA      NA16555   9.586   3.021   4.185  0.1023 -0.1065  0.5133
69928NA      NA16556   2.616  12.073   1.580 -0.4505  0.3438  0.0944
69929NA      NA16557  11.261   0.827   1.476 -0.3665  0.4027  0.2588
69930NA      NA16558   8.921   1.235   2.815  0.0282 -0.3561  0.0741
69931NA      NA16559   9.712   9.427   1.650  0.1641  0.1088  0.2907
69932NA      NA16560   5.820   8.431   0.334  0.6964  0.0368  0.0991
69933NA      NA16561   0.157   1.660  10.567 -0.0779  0.0817 -0.1455
69934NA      NA16562   7.114   7.690   0.222 -0.2351  0.3112  0.5123
69935NA      NA16563   2.102   7.696   3.111  0.1321 -0.0386 -0.0598
69936NA      NA16564   5.331   8.527   2.086 -0.4424 -0.3107  0.0797
69937NA      NA16565  12.034  10.677   3.881  0.5149  0.6830  0.1128
69938NA      NA16566   3.853  12.237   2.010  0.0908  0.3610 -0.0948
69939NA      NA16567   5.814  11.979   1.834 -0.7322  0.2036  0.0750
69940NA      NA16568  11.256   1.729   9.274  0.0583  0.0738  0.0059
69941NA      NA16569  12.115   8.028   1.789 -0.0096 -0.2838 -0.6748
69942NA      NA16570   1.037  11.534   0.504 -0.0842  0.1792 -0.3453
69943NA      NA16571   8.261   0.171  11.003 -0.0304  0.3641  0.0763
69944NA      NA16572   1.242  10.286   2.580 -0.1765 -0.1696 -0.0581
69945NA      NA16573   2.009   1.450   7.838  0.1199  0.0822 -0.1470
69946NA      NA16574   7.722   8.963   1.719  0.2784  0.4157 -0.0703
69947NA      NA16575   6.426   1.761   6.610  0.2374 -0.5943 -0.5474
69948NA      NA16576  10.263   6.088   4.104 -0.3370 -0.1250 -0.6511
69949NA      NA16577   7.178   8.918   0.864  0.1563 -0.3240 -0.1305
69950NA      NA16578   7.900  11.236   2.398 -0.1929 -0.2214 -0.5123
69951NA      NA16579   8.352   2.140  12.919 -0.0655  0.1586  0.0520
69952NA      NA16580   3.452   8.088   2.630  0.3806  0.2897  0.1314
69953NA      NA16581  10.755   3.038   2.728  0.5191 -0.0595  0.0707
69954NA      NA16582  11.876   1.163   6.821  0.5050  0.5092 -0.7113
69955NA      NA16583   0.115  12.581   9.238 -0.3350 -0.1211 -0.2401
69956NA      NA16584   2.502   1.270   3.134  0.1938  0.1146 -0.3639
69957NA      NA16585   3.559  11.444  10.969 -0.2019 -0.7969 -0.0399
69958NA      NA16586   2.269   9.390   5.999 -0.0831  0.0329  0.3156
69959NA      NA16587   9.398  11.279   9.281 -0.3209 -0.6308  0.0802
69960NA      NA16588   9.030  10.743  11.997  0.0221 -0.3345 -0.1854
69961NA      NA16589   3.969   5.924   2.476  0.1542  0.0312 -0.1406
69962NA      NA16590   6.923   0.633  12.292 -0.6094  0.0513 -0.0611
69963CL      CL16591  12.426   8.070   3.898 -0.1572 -0.2993  0.0799
69964CL      CL16592   7.557   4.038   6.469  0.1840 -0.3495  0.3507
69965CL      CL16593   1.525   1.120   1.622  0.4148 -0.3690 -0.8189
69966CL      CL16594   0.372   4.819  10.325  0.4775  0.1770 -0.1770
69967CL      CL16595   5.434   9.239  12.333 -0.0452 -0.1102  0.1259
69968CL      CL16596  11.396   2.983   4.254  0.5212  0.2458  0.0231
69969CL      CL16597   6.930  10.323   0.229 -0.1716 -0.3006 -0.1683
69970CL      CL16598   5.335  11.847   8.418  0.0367  0.1073 -0.3097
69971CL      CL16599   6.689   3.406   9.469  0.2063 -0.0224 -0.3381
69972CL      CL16600   5.715   8.036   6.401 -0.3919 -0.2512  0.0084
69973CL      CL16601   5.585  10.398   3.410 -0.3067  0.2900  0.2772
69974CL      CL16602  10.130  11.015   2.014 -0.3422  0.0876 -0.1726
69975CL      CL16603  11.636   4.149   6.410  0.1846 -0.2964 -0.3868
69976CL      CL16604   8.990   5.938  12.521 -0.1822  0.2913  0.2686
69977CL      CL16605   3.330   6.078   1.224 -0.3219 -0.0272 -0.0970
69978CL      CL16606   2.992   6.728   5.136  0.0947 -0.4336  0.2947
69979CL      CL16607   2.025   5.970  12.270 -0.1201  0.2678 -0.0581
69980CL      CL16608  11.073   3.590   3.892 -0.0649  0.0332 -0.0990
69981CL      CL16609  11.559   5.278   5.792 -0.2814 -0.1242 -0.0183
69982CL      CL16610   7.145   9.634   4.051 -0.4515 -0.4794  0.2238
69983CL      CL16611   0.083   1.804   8.444 -0.5002 -0.0198  0.4402
69984CL      CL16612   4.124   6.666   5.645  0.0594 -0.2354  0.4226
69985CL      CL16613   2.041  10.745   5.716 -0.5696  0.0774  0.1123
69986CL      CL16614   4.763  11.494   6.942 -0.0075  0.0189  0.2125
69987CL      CL16615   0.114   2.541   7.326  0.1005  0.0518 -0.2422
69988CL      CL16616   4.131   4.179   6.333 -0.0463  0.1900  0.1366
69989CL      CL16617  12.879   1.061   5.642 -0.2703 -0.3131 -0.1381
69990CL      CL16618   4.175   8.119   9.433 -0.0293 -0.3964 -0.0058
69991CL      CL16619   4.265   4.897   7.894  0.0084  0.2757 -0.2531
69992CL      CL16620   2.179  12.293   6.647  0.1442 -0.1587  0.2497
69993CL      CL16621   8.328   9.770   0.700  0.4904  0.1570  0.3826
69994CL      CL16622   3.527  10.862  10.848  0.0465  0.1912  0.0981
69995CL      CL16623   2.009   2.391   7.469  0.2536 -0.1240  0.0227
69996CL      CL16624  10.712   6.691   9.164  0.3768  0.5298 -0.3324
69997CL      CL16625   4.592   3.104   5.320 -0.0765 -0.0899  0.0699
69998CL      CL16626   9.264  11.492   0.111  0.4814  0.0947 -0.1728
69999CL      CL16627   3.293   5.698   5.326  0.1924  0.1030  0.1750
70000CL      CL16628   2.943   7.022  10.525  0.4640 -0.3755 -0.1599
70001CL      CL16629  11.860  12.608   9.435  0.4132  0.1151  0.0404
70002CL      CL16630   4.313   7.753   6.879  0.3632 -0.0677 -0.0994
70003CL      CL16631   7.170   7.338   3.469  0.4002 -0.1679  0.3787
70004CL      CL16632   1.210   1.550   8.646  0.1184  0.0958 -0.3456
70005CL      CL16633   7.129   6.907  10.280  0.3844  0.0641  0.2203
70006CL      CL16634   3.585   7.947   8.963 -0.2690 -0.0188  0.2126
70007CL      CL16635   9.720   4.147   5.446  0.1261 -0.2753  0.2898
70008CL      CL16636   1.914   9.743   0.123 -0.1049 -0.0673  0.2057
70009CL      CL16637   4.214  11.310   8.255 -0.0624  0.1236 -0.6306
70010CL      CL16638   1.918   6.049   7.420  0.2738 -0.0435 -0.1101
70011CL      CL16639   0.662   5.376   1.803 -0.0978 -0.0434 -0.0368
70012CL      CL16640  12.283   0.497  11.946  0.1453  0.0586 -0.0110
70013CL      CL16641   3.489   2.104   7.605 -0.0347 -0.2672 -0.2432
70014CL      CL16642   3.412   5.218   8.932  0.4546  0.0885  0.4364
70015CL      CL16643   5.740   4.950   9.194 -0.2366  0.8322 -0.3618
70016CL      CL16644   9.535   6.012  12.541 -0.1642 -0.0423  0.1647
70017CL      CL16645   3.909  11.286   6.558 -0.1308  0.2007 -0.0653
70018CL      CL16646   5.978  11.290   8.682  0.1911  0.3990  0.3270
70019CL      CL16647   0.932   8.205   3.872  0.2798  0.0658 -0.3529
70020CL      CL16648   2.126  10.029   8.995  0.2993  0.1473 -0.0904
70021CL      CL16649   9.219   6.885   3.431 -0.0094 -0.5428 -0.2084
70022CL      CL16650   1.720   8.862   1.153  0.1080  0.1294 -0.0373
70023CL      CL16651   8.258  11.207   1.052  0.1109 -0.0219  0.0744
70024CL      CL16652   4.274   3.397   2.093  0.0225 -0.2039  0.2244
70025CL      CL16653   5.332   9.108   4.011 -0.0747 -0.3253  0.1769
70026CL      CL16654   6.099   1.750  10.646  0.2860 -0.0722  0.1175
70027CL      CL16655   2.130   3.892   0.080 -0.3482 -0.0329 -0.1734
70028CL      CL16656   3.602   8.781   5.602  0.0699  0.2477  0.0648
70029CL      CL16657   6.309   7.980   7.712 -0.2494 -0.0306 -0.1974
70030CL      CL16658   1.843   5.380   7.500 -0.3866  0.1216 -0.0746
70031CL      CL16659  11.863  11.781   3.445  0.1990  0.0074  0.2663
70032CL      CL16660   5.806  10.834  10.483  0.0655  0.0720  0.0311
70033CL      CL16661   4.737  10.018   5.686  0.0605 -0.1911 -0.1240
70034CL      CL16662  10.427   0.283   6.156  0.3110 -0.0492  0.5279
70035CL      CL16663  12.685  10.849  10.411  0.2264 -0.3047 -0.5797
70036CL      CL16664   3.824   5.893  10.603 -0.1454  0.0917  0.1622
70037CL      CL16665   5.753   9.412   4.146  0.2383 -0.2670 -0.5668
70038CL      CL16666   1.771   0.389   9.402 -0.0812  0.1155 -0.1844
70039CL      CL16667  12.301   5.132   2.843 -0.1577 -0.2262  0.3663
70040CL      CL16668   3.133   9.099   7.511 -0.0890  0.1003  0.2454
70041CL      CL16669  12.907   5.453   5.234  0.2358 -0.0117  0.0777
70042CL      CL16670   5.681   9.670  10.396  0.2144 -0.0916  0.0129
70043CL      CL16671   5.478   8.421   7.797 -0.3163 -0.2258  0.5120
70044CL      CL16672  12.666  10.671   1.710 -0.0406 -0.2326  0.0335
70045CL      CL16673   3.504  10.476   7.119 -0.4000  0.1456  0.3354
70046CL      CL16674   3.632   5.279   0.047  0.3714 -0.5522 -0.1242
70047CL      CL16675   9.471   1.464   2.227 -0.0896  0.4115  0.0963
70048CL      CL16676   4.619  10.076   0.138  0.4463  0.0318 -0.1931
70049CL      CL16677  10.118   0.029  12.590  0.2438 -0.0140 -0.1957
70050CL      CL16678   2.504   5.056  11.052 -0.0169 -0.0689  0.1712
70051CL      CL16679   3.757  10.333   9.243 -0.5012  0.4929  0.2683
70052CL      CL16680   3.345   6.614   8.704  0.2635 -0.2328 -0.0595
70053CL      CL16681   3.727   9.720   6.004  0.4084  0.0337  0.3419
70054CL      CL16682  10.325   0.528   9.369  0.3699  0.3001 -0.3485
70055CL      CL16683  12.966   6.903   7.920 -0.4862 -0.0841  0.1379
70056CL      CL16684   4.769  12.326   9.067 -0.2774 -0.2678  0.3456
70057CL      CL16685   4.368   8.530  10.446 -0.2063 -0.1348 -0.4864
70058CL      CL16686  10.398   8.268   2.471  0.0449  0.1955 -0.4694
70059CL      CL16687   2.762   5.065   8.339  0.2139  0.0843  0.3846
70060CL      CL16688   2.766   8.934  11.675 -0.4409 -0.2682 -0.0265
70061CL      CL16689   2.335   8.969  10.090  0.1368  0.2427  0.1711
70062CL      CL16690   6.479   0.693   8.643  0.1178  0.1372 -0.0634
70063CL      CL16691   6.862   3.923  10.776 -0.7689  0.1481 -0.5295
70064CL      CL16692   2.104  10.922   7.221 -0.0293 -0.2097 -0.3150
70065CL      CL16693   3.831  10.053   4.599  0.3212  0.1140 -0.2571
70066CL      CL16694  10.156  11.940   6.953  0.0251 -0.0513 -0.0109
70067CL      CL16695   6.878   8.639   9.157  0.0981 -0.0480  0.3349
70068CL      CL16696   0.954   9.679   6.391  0.1187  0.0393  0.2169
70069CL      CL16697   2.432  11.929   7.921 -0.1324  0.0565 -0.5430
70070CL      CL16698   5.059   8.838   9.643 -0.0219  0.1967  0.2226
70071CL      CL16699   3.700  11.115   9.039  0.1831 -0.3686  0.0412
70072CL      CL16700   4.522  10.804   5.938 -0.4665 -0.3616  0.5685
70073CL      CL16701   1.718   6.771   6.373  0.2080  0.1513  0.6439
70074CL      CL16702   6.854   2.249   8.190  0.2632 -0.0519  0.3580
70075CL      CL16703   1.045   8.708   6.480  0.7632  0.4916 -0.0620
70076CL      CL16704   9.536   0.153   8.025 -0.0336 -0.2070 -0.1494
70077CL      CL16705   1.114   7.358   6.497  0.2725 -0.2355 -0.5282
70078CL      CL16706   6.408   2.763   0.592 -0.1597 -0.0633 -0.2176
70079CL      CL16707   5.673   9.337  11.572  0.1382  0.1050 -0.0526
70080CL      CL16708   1.513  12.669   0.349  0.1891  0.2642  0.8336
70081CL      CL16709   6.005   8.819   3.866  0.0190  0.0932 -0.2504
70082CL      CL16710   7.472   7.604   9.593 -0.4358  0.3148  0.0198
70083CL      CL16711   1.908   7.007   5.640  0.3005 -0.1189  0.0415
70084CL      CL16712   3.648   8.669   1.035  0.2152 -0.0688  0.8063
70085CL      CL16713   1.310   4.949  10.795  0.1514  0.0227 -0.3066
70086CL      CL16714  10.067   0.578  10.095 -0.3531  0.3614  0.3232
70087CL      CL16715   8.472   0.668   2.685 -0.4355  0.1512  0.2054
70088CL      CL16716  11.979   7.248   0.972  0.1337  0.2163 -0.0788
70089CL      CL16717   1.665   2.385   4.347  0.0132 -0.1015  0.1187
70090CL      CL16718   1.243   3.541   0.874 -0.3002  0.2553  0.4571
70091CL      CL16719   0.063   9.017   8.200  0.0671  0.2289  0.1935
70092CL      CL16720   5.338   4.505   4.150  0.1381 -0.0754  0.2124
70093CL      CL16721   5.512   8.638   5.464 -0.2504  0.5845  0.2091
70094CL      CL16722   4.173   5.994   7.495  0.0540 -0.1545 -0.1213
70095CL      CL16723   4.472   5.224   9.600  0.0598 -0.0081 -0.0266
70096CL      CL16724   1.354   6.924  10.715  0.1838 -0.0869 -0.6207
70097CL      CL16725   5.130  11.371   7.745  0.2359 -0.2651 -0.0981
70098CL      CL16726   6.447   9.709   8.125 -0.5273  0.4135 -0.4141
70099CL      CL16727   2.514   6.572   0.145  0.0792 -0.1293  0.1597
70100CL      CL16728   2.453   6.069   7.607 -0.5444 -0.2190 -0.1564
70101CL      CL16729  10.598   2.299   8.550  0.2528  0.6274 -0.2780
70102CL      CL16730   1.446   7.105  12.734 -0.3173 -0.1412 -0.1718
70103CL      CL16731   1.125   6.886   8.096  0.0852 -0.1649 -0.4405
70104CL      CL16732   3.394   8.399   5.337  0.2623  0.2378  0.3015
70105CL      CL16733   3.168   5.977   9.670 -0.1646 -0.1098  0.1365
70106CL      CL16734   1.555  12.204  11.838 -0.2980  0.1625 -0.0435
70107CL      CL16735   0.666   4.046   6.584 -0.1215 -0.4483 -0.0281
70108CL      CL16736   7.546   3.561   3.075  0.1578  0.4011  0.3196
70109CL      CL16737   7.288   5.404  11.599 -0.3898 -0.1317 -0.2265
70110CL      CL16738   3.902   2.920   7.500 -0.2730  0.8375 -0.2936
70111CL      CL16739  10.614   5.569   8.584 -0.3951  0.0279 -0.1411
70112CL      CL16740   1.082  11.505   3.065  0.4308 -0.1687 -0.3322
70113CL      CL16741  10.138  10.926   4.491 -0.1341  0.3110 -0.4206
70114CL      CL16742   0.878  10.408  12.192 -0.3457  0.1507 -0.0188
70115CL      CL16743   4.774   7.025   9.854 -0.0728 -0.0704  0.0140
70116CL      CL16744   0.930   7.539   7.280 -0.3283  0.0240  0.4453
70117CL      CL16745   6.968   4.502   5.615 -0.0828 -0.2576 -0.6019
70118CL      CL16746   6.895  10.351   7.130 -0.0839  0.1241  0.0565
70119CL      CL16747   0.866   1.448  12.762  0.1291 -0.1336 -0.0382
70120CL      CL16748   8.593   4.750  12.170  0.0499  0.2611 -0.0194
70121CL      CL16749   6.051   8.897   6.375  0.1173  0.1097  0.5210
70122CL      CL16750   2.692  11.574   8.741  0.3187 -0.1002 -0.3530
70123CL      CL16751   8.351   9.669  10.406 -0.0148  0.1204  0.4209
70124CL      CL16752  11.797   9.702  11.560  0.2268 -0.0930 -0.1487
70125CL      CL16753   0.231   4.146   9.525  0.5642 -0.0097 -0.1606
70126CL      CL16754   8.371   0.921  10.440 -0.1702 -0.2188  0.0184
70127CL      CL16755   6.315  10.052   7.042 -0.1231 -0.4375 -0.1055
70128CL      CL16756   3.198   6.749  12.691  0.1281  0.2882 -0.1563
70129CL      CL16757   1.549   8.101   8.966  0.4103  0.0920 -0.0620
70130CL      CL16758   1.164   7.387  10.877  0.2410 -0.2773 -0.0401
70131CL      CL16759   2.737  10.688   8.384 -0.4507 -0.1116 -0.4089
70132CL      CL16760   5.531  11.402   3.374  0.0840 -0.0657  0.4313
70133CL      CL16761   3.148   9.954   6.913 -0.4198  0.0771  0.0193
70134CL      CL16762   4.529  11.635  10.283  0.0319  0.1084  0.1044
70135CL      CL16763  11.283   1.037   1.052 -0.0808  0.1293 -0.0490
70136CL      CL16764   2.314  10.132  10.827  0.0878  0.0572 -0.1401
70137CL      CL16765   1.211  11.027   9.729 -0.5752  0.0025  0.0836
70138CL      CL16766   9.220  11.179   1.159  0.4696  0.4611 -0.0227
70139CL      CL16767  11.110  12.305   5.320 -0.0919 -0.0108  0.1077
70140CL      CL16768   2.060  11.608   9.286 -0.0391  0.3640 -0.5106
70141CL      CL16769   6.855   1.428  11.116  0.3451 -0.2867  0.2996
70142CL      CL16770   1.176   9.383   7.261  0.1890  0.0838 -0.2307
70143CL      CL16771   3.766   2.726   9.438 -0.1368 -0.3584  0.0504
70144CL      CL16772   5.264   5.673  11.249  0.0592 -0.1162  0.5446
70145CL      CL16773   8.530   4.399   8.617 -0.1702  0.0964 -0.1451
70146CL      CL16774  12.825   4.356   6.759 -0.1896  0.3433  0.0777
70147CL      CL16775   1.515   9.561   8.950 -0.1045  0.0604 -0.0723
70148CL      CL16776   2.298   6.287   7.905  0.1200 -0.0248 -0.1266
70149CL      CL16777   4.708   9.040   5.589  0.0818  0.1331  0.0779
70150CL      CL16778   0.105   5.089  11.259  0.3484  0.0343 -0.1473
70151CL      CL16779   6.478  11.454  10.884  0.2876 -0.2252  0.2375
70152CL      CL16780   3.337  11.339  10.943 -0.0604  0.0307  0.7313
70153CL      CL16781   4.817   7.195   8.913  0.3720  0.0281  0.1772
70154CL      CL16782   8.445   4.503  10.935 -0.0921 -0.1461  0.0889
70155CL      CL16783  10.320   6.317   4.244 -0.2003  0.1237 -0.1362
70156CL      CL16784   0.569   9.886   0.035  0.4999  0.2635  0.3773
70157CL      CL16785   5.673  10.653   8.812  0.3379  0.4637  0.0496
70158CL      CL16786   4.595   8.830   8.535 -0.0768 -0.2662 -0.1116
70159CL      CL16787   5.353   1.963   8.029 -0.0496  0.3023 -0.0853
70160CL      CL16788   7.044   9.564   2.048 -0.4532  0.2646 -0.1522
70161CL      CL16789   8.019   7.276  10.578  0.2380 -0.3031 -0.1570
70162CL      CL16790   4.513  10.304  10.703 -0.1242  0.2618 -0.2792
70163CL      CL16791   6.052  11.942  10.936  0.3638  0.3341 -0.4291
70164CL      CL16792  10.984  11.594   0.721 -0.1014  0.0270 -0.0054
70165CL      CL16793   9.974   3.314   6.747 -0.1914 -0.1466  0.1386
70166CL      CL16794  12.035   4.770  11.745 -0.0277 -0.1409 -0.5878
70167CL      CL16795   9.418   5.254   5.149  0.3190 -0.6495  0.0021
70168CL      CL16796  11.544   4.255   6.791  0.1416  0.5084  0.2078
70169CL      CL16797   0.769   8.278   0.024 -0.1277 -0.1870  0.1227
70170CL      CL16798   0.405   2.173   3.287 -0.7638 -0.1254 -0.3610
70171CL      CL16799   3.671   7.644  11.429  0.0982  0.0279 -0.0074
70172CL      CL16800   7.308  12.168   4.762  0.0506 -0.4441  0.1210
70173CL      CL16801   3.858   6.826  11.043 -0.0569  0.0446  0.4392
70174CL      CL16802   2.272   6.438   7.538 -0.2961 -0.0621 -0.4860
70175CL      CL16803  10.911  12.619   9.276 -0.1127 -0.1184  0.0509
70176CL      CL16804   2.870   6.450   8.297  0.0353  0.2136 -0.5615
70177CL      CL16805   4.905   3.106  12.349 -0.5276  0.0639 -0.1423
70178CL      CL16806   5.947   6.714  11.475  0.2040 -0.1876 -0.3727
70179CL      CL16807   5.089   3.968   3.278  0.2374  0.0025  0.1904
70180CL      CL16808   4.703   6.344   6.742  0.4844 -0.0736  0.4212
70181CL      CL16809   1.092   9.608   9.908  0.5965  0.1870  0.5547
70182CL      CL16810   2.193   8.943  12.781  0.5280  0.0481  0.2337
70183CL      CL16811   3.744   1.902   9.913 -0.2755  0.1359  0.1574
70184CL      CL16812   8.498  11.368   8.526 -0.1661 -0.2300 -0.2996
70185CL      CL16813   4.216   8.041   6.448  0.2574 -0.3299  0.0533
70186CL      CL16814   7.960   6.120   4.211  0.1766 -0.1212  0.3875
70187CL      CL16815  12.385   9.558   9.166  0.3478 -0.0639  0.0556
70188CL      CL16816   9.570   1.180   3.450  0.0797  0.2798 -0.2174
70189CL      CL16817   0.978  11.374  11.565 -0.2329 -0.0599  0.4068
70190CL      CL16818   5.222  10.450   6.904 -0.2358 -0.2308  0.3002
70191CL      CL16819   9.076  10.780  11.761 -0.6938 -0.4822 -0.1203
70192CL      CL16820   2.074   7.705   7.063  0.1496  0.1721 -0.5512
70193CL      CL16821  12.422   6.339  10.920  0.3457 -0.2658  0.3072
70194CL      CL16822  10.048   6.150   9.662 -0.1025  0.0807  0.1002
70195CL      CL16823  12.545  12.383  10.037 -0.4747 -0.3017  0.4751
70196CL      CL16824   8.809   4.760  10.613 -0.1340  0.0442  0.4741
70197CL      CL16825   8.832   1.124   3.430 -0.3067 -0.0144 -0.1957
70198CL      CL16826   0.053  11.319   8.113 -0.2187 -0.0633  0.1290
70199CL      CL16827   6.719   7.777   7.201  0.0792  0.4306 -0.1072
70200CL      CL16828  12.827   0.068   0.839  0.1884 -0.1896  0.4067
70201CL      CL16829   2.026   5.290  12.480 -0.0225 -0.3864  0.4228
70202CL      CL16830   5.235  10.730  11.534  0.3070  0.4161 -0.0793
70203CL      CL16831   7.437   1.088   9.012  0.2097 -0.1066 -0.0420
70204CL      CL16832   8.211   2.182   2.338 -0.3186  0.1017 -0.2550
70205CL      CL16833   2.461   5.985   7.111  0.0327  0.0574 -0.2440
70206CL      CL16834   2.354   1.405   3.010 -0.5623 -0.8307  0.1024
70207CL      CL16835   6.870   6.095   5.036 -0.0677  0.1208  0.1035
70208CL      CL16836  12.764   5.216   3.615  0.2029 -0.1461 -0.1633
70209CL      CL16837   6.773   0.572   1.927  0.3084  0.1777 -0.0460
70210CL      CL16838   6.399   7.909   5.687  0.2257 -0.0827 -0.0277
70211CL      CL16839   4.930  11.633   1.860  0.0812 -0.2825  0.1753
70212CL      CL16840  10.433   9.630   4.221  0.0950 -0.3325  0.3252
70213CL      CL16841   4.098  11.406  12.386  0.0552  0.3674 -0.5085
70214CL      CL16842   1.666   7.001   9.408  0.0840  0.1180 -0.4673
70215CL      CL16843   2.803   0.063   1.581 -0.1849  0.2251 -0.1408
70216CL      CL16844   6.771   6.442   7.964 -0.2764  0.0925  0.3535
70217CL      CL16845   2.655   6.234   6.250  0.4610 -0.1306 -0.2358
70218CL      CL16846  12.802   7.936  12.525  0.5694  0.3995 -0.2750
70219CL      CL16847   1.429   7.817   7.339  0.0886  0.6357  0.0089
70220CL      CL16848  12.754   6.501   3.879 -0.2449 -0.0090  0.3296
70221CL      CL16849   1.115  10.222   2.152 -0.1780  0.1690  0.0812
70222CL      CL16850  12.771  11.636   6.746 -0.0336  0.0098  0.2237
70223CL      CL16851   6.003   6.016   8.227  0.1293  0.2532 -0.1334
70224CL      CL16852   0.847   5.157   6.403  0.0642  0.1076 -0.3078
70225CL      CL16853  11.014  12.905  12.515  0.2268 -0.6130  0.2825
70226CL      CL16854   3.575   9.789   0.128  0.1682 -0.2648 -0.1960
70227CL      CL16855   0.386   0.451   3.177 -0.0077  0.2677  0.0947
70228CL      CL16856   3.164   9.479  11.180  0.1175  0.0677 -0.1930
70229CL      CL16857   8.881  10.209   8.368 -0.0129  0.1704  0.1056
70230CL      CL16858   5.084   6.301   7.011 -0.0326 -0.3113 -0.2012
70231CL      CL16859  12.276   8.237   3.234 -0.2201 -0.0558 -0.1604
70232CL      CL16860   8.635  10.082   2.960  0.0401  0.1873  0.2584
70233CL      CL16861   3.880   8.068  12.452  0.2295  0.1816 -0.2203
70234CL      CL16862   3.845   9.441   7.869  0.1085 -0.0969 -0.1718
70235CL      CL16863   4.005   3.071  12.836 -0.0133  0.1170  0.1328
70236CL      CL16864   0.861  11.028   7.400 -0.2080  0.2359  0.3466
70237CL      CL16865   8.947  12.223   9.188  0.1645 -0.1111 -0.4633
70238CL      CL16866   4.732   8.627   1.308 -0.4550  0.1021  0.0736
70239CL      CL16867   9.560   0.712   2.850 -0.0390  0.1656 -0.1630
70240CL      CL16868   6.103   7.325   0.247 -0.2803  0.1009  0.3329
70241CL      CL16869   1.392   6.277  11.295  0.1557  0.0058  0.0954
70242CL      CL16870   7.898   8.469   8.064 -0.0890 -0.1859  0.4669
70243CL      CL16871   5.957   8.215   8.309 -0.1058 -0.2775 -0.1224
70244CL      CL16872   2.172   8.301   6.175  0.1761  0.2787 -0.0780
70245CL      CL16873   2.998   9.334   9.230 -0.4882  0.2449 -0.4332
70246CL      CL16874   4.141   6.092   6.560  0.3825 -0.2976  0.4826
70247CL      CL16875   2.495  11.081   1.251  0.0818  0.2595 -0.4603
70248CL      CL16876   0.913   2.927  10.750 -0.1596  0.0347  0.4542
70249CL      CL16877  11.682  10.174   5.016  0.1432  0.1859 -0.4030
70250CL      CL16878  11.396   1.347   9.125  0.2741  0.0952 -0.1208
70251CL      CL16879   2.608   5.186   2.910 -0.0757 -0.0159 -0.3452
70252CL      CL16880   0.218   5.428   7.859  0.1185  0.1825  0.1762
70253CL      CL16881   4.933  11.419  12.257  0.1639  0.2355  0.0574
70254CL      CL16882   3.857   8.439   5.880  0.2150  0.1170  0.4499
70255CL      CL16883   2.758   9.008   6.907  0.0774 -0.1787  0.2329
70256CL      CL16884   5.017  10.432   6.268 -0.0714 -0.0448  0.3171
70257CL      CL16885   6.240   4.853   5.866 -0.3294 -0.0459 -0.0707
70258CL      CL16886   5.432  11.162   5.240 -0.5639  0.2390 -0.1452
70259CL      CL16887   1.364   8.272  11.773  0.1171 -0.0770  0.5330
70260CL      CL16888   6.727  12.672   9.877 -0.3290  0.4988  0.0957
70261CL      CL16889   6.217   6.889   1.369 -0.0741 -0.0162 -0.3070
70262CL      CL16890   7.848  12.538   2.706  0.1504 -0.0461  0.1907
70263CL      CL16891   2.003   7.777  11.806  0.4405 -0.3003  0.1266
70264CL      CL16892  11.880   8.359   5.108 -0.2113 -0.2969 -0.2195
70265CL      CL16893   2.475   8.066  11.804  0.1235 -0.3892 -0.2806
70266CL      CL16894   5.507   7.578   7.838 -0.0147  0.0655 -0.0857
70267CL      CL16895   7.906   6.200   9.064  0.1839 -0.0516 -0.0454
70268CL      CL16896  11.680   1.787   4.035 -0.2172  0.3617  0.0902
70269CL      CL16897   8.470   3.882   3.905 -0.0816  0.0066  0.0205
70270CL      CL16898  11.270   8.589   7.822  0.1255 -0.2623 -0.0621
70271CL      CL16899   0.695   8.955  10.192 -0.5577 -0.1579  0.1011
70272CL      CL16900   6.036   3.840   8.118  0.3304  0.2486 -0.2646
70273CL      CL16901   2.135   3.151  12.744 -0.2469  0.1838  0.1786
70274CL      CL16902   0.529  10.090   2.387 -0.1522 -0.2339  0.1184
70275CL      CL16903   8.734   9.183   7.300  0.0606 -0.0064  0.1281
70276CL      CL16904   2.508   2.059   4.360  0.2268  0.1123 -0.0043
70277CL      CL16905   2.634   0.032   8.465 -0.3262  0.2539  0.2098
70278CL      CL16906   4.670   8.955  11.071  0.0989  0.0340  0.1159
70279CL      CL16907   3.391  11.933   1.221  0.0991  0.0264 -0.0543
70280CL      CL16908   6.291  10.220  10.373 -0.0839 -0.0869 -0.0457
70281CL      CL16909   2.599  10.302   9.452  0.5157  0.1732 -0.5708
70282CL      CL16910   3.844   7.070   7.449 -0.2345  0.2540 -0.2643
70283CL      CL16911  12.693   6.202   2.313 -0.3321  0.0314  0.3176
70284CL      CL16912   9.596  10.460   7.814 -0.0336 -0.2192 -0.0078
70285CL      CL16913   1.155   6.734   8.852 -0.3023  0.3312  0.0580
70286CL      CL16914   8.211  11.459   0.734 -0.2230  0.2842  0.0105
70287CL      CL16915   1.894  11.401   5.808  0.2331  0.2721 -0.1325
70288CL      CL16916   7.797  11.043   7.001  0.5179 -0.0779 -0.0132
70289CL      CL16917  11.019   2.013  11.497  0.0039 -0.4875  0.1777
70290CL      CL16918   5.758   6.395   0.389  0.2491 -0.1560 -0.0115
70291CL      CL16919   0.613   1.126   5.160 -0.6254  0.0018 -0.2313
70292CL      CL16920  11.046   3.657   1.885 -0.3111 -0.1490 -0.0525
70293CL      CL16921   1.467   1.032   6.035 -0.1767  0.3773  0.2115
70294CL      CL16922   3.220   8.881  11.807 -0.3464  0.2457  0.2628
70295CL      CL16923   5.289   6.759   3.952  0.3926 -0.1460 -0.4517
70296CL      CL16924   1.172   5.184   9.275  0.2341 -0.3584  0.0770
70297CL      CL16925   4.118   6.760   9.547 -0.1376  0.1603  0.0303
70298CL      CL16926   3.303   6.765  12.261 -0.0671 -0.1822 -0.0884
70299CL      CL16927   1.672   8.756   3.206  0.3995  0.2711 -0.3575
70300CL      CL16928   4.833   7.475  11.594 -0.6174  0.3656  0.1013
70301CL      CL16929   4.305   8.368  12.194  0.1826  0.1600  0.2444
70302CL      CL16930   6.165  10.152   7.474 -0.1122 -0.2457 -0.0019
70303CL      CL16931   1.912   5.574  10.034  0.2842  0.1547  0.0112
70304CL      CL16932   7.894   8.008   6.719  0.2231  0.1215 -0.0316
70305CL      CL16933   2.199  10.517   7.701  0.0056  0.3620  0.0185
70306CL      CL16934   0.054   2.226   3.110 -0.0538  0.0805 -0.5896
70307CL      CL16935   1.400   2.203   2.843  0.4586 -0.0181  0.0179
70308CL      CL16936   1.907   5.316   3.282  0.0390 -0.4283  0.2651
70309CL      CL16937   5.550   8.905   6.339 -0.1160  0.1351 -0.4299
70310CL      CL16938   7.381   3.564   4.560  0.2572 -0.1804 -0.3527
70311CL      CL16939   6.324   1.482   4.805  0.1980 -0.1805  0.3710
70312CL      CL16940   3.188   2.659   6.012 -0.2876  0.1786 -0.0183
70313CL      CL16941   4.734   0.429   4.834 -0.0714  0.1174 -0.2853
70314CL      CL16942   9.423   8.525   0.628  0.1451  0.5794  0.0936
70315CL      CL16943  10.663   6.126   2.230 -0.4815  0.1814  0.2216
70316CL      CL16944   3.857   4.674   7.830  0.1972  0.0040 -0.1141
70317CL      CL16945   4.430   8.053  10.097  0.1180  0.1571 -0.0732
70318CL      CL16946   1.446   8.350   9.829  0.1491  0.0170  0.3076
70319CL      CL16947   3.772  12.019   8.370  0.2215  0.0698 -0.1162
70320CL      CL16948  12.803   0.673   9.676 -0.3345  0.3060 -0.0348
70321CL      CL16949   1.549   1.570   0.486  0.2741 -0.3629  0.0577
70322CL      CL16950   3.155  11.035   7.581  0.1635  0.0421 -0.0362
70323CL      CL16951   1.629   9.006  10.952  0.0784 -0.1098  0.0632
70324CL      CL16952  11.219   7.187   2.879 -0.0241 -0.1505 -0.0338
70325CL      CL16953   6.518   6.753   7.779 -0.2155 -0.5373  0.1830
70326CL      CL16954   8.131   9.656   3.591  0.0367  0.4802  0.2055
70327CL      CL16955   5.080   6.033  12.369  0.1503  0.3234  0.0477
70328CL      CL16956   4.459   9.177   7.282 -0.1566 -0.0201  0.2952
70329CL      CL16957   5.649   9.201   8.292  0.4361  0.1758  0.2267
70330CL      CL16958   4.157  10.249  12.230  0.3871  0.0678 -0.1166
70331CL      CL16959   4.296  10.383   8.285  0.5698 -0.2727 -0.2466
70332CL      CL16960   3.160  11.500   6.729  0.2465 -0.6371 -0.2320
70333CL      CL16961   3.812   0.552  10.628  0.6106 -0.1087 -0.0190
70334CL      CL16962  11.478   7.365   8.945 -0.0127 -0.6482  0.1109
70335CL      CL16963   1.296   0.325   0.838 -0.1368 -0.4821 -0.4419
70336CL      CL16964   1.256   6.359  12.603 -0.1381 -0.3875  0.1438
70337CL      CL16965  10.459   0.140   3.446  0.2547 -0.2884 -0.0295
70338CL      CL16966   0.362   5.872   9.005  0.0705 -0.1077 -0.3272
70339CL      CL16967   2.376   8.008   0.631  0.5742 -0.4204 -0.0473
70340CL      CL16968   5.675   9.360   7.543  0.0339 -0.2017  0.3955
70341CL      CL16969   0.846   5.982   9.106 -0.2391  0.0371 -0.0463
70342CL      CL16970  10.226  11.563   8.645  0.2561 -0.0823  0.0711
70343CL      CL16971   2.022   6.498   9.581 -0.1826  0.2660 -0.2650
70344CL      CL16972   2.989   2.444   8.941 -0.3079  0.8657 -0.4155
70345CL      CL16973  12.543  11.204   5.747 -0.0517  0.2144 -0.0306
70346CL      CL16974  12.959   4.350   1.796 -0.5066  0.0050 -0.1963
70347CL      CL16975   5.677   8.454  12.752  0.1179  0.3286  0.1615
70348CL      CL16976   2.469   7.214   2.328  0.4260 -0.0359  0.0812
70349CL      CL16977  10.435   3.904   2.191  0.2505 -0.0855  0.4291
70350CL      CL16978   9.011   7.750  11.700  0.2948  0.2626  0.0678
70351CL      CL16979   1.243   0.673  12.737  0.1832 -0.5213  0.3892
70352CL      CL16980   1.511   8.535   8.330  0.0026  0.1758  0.1446
70353CL      CL16981   2.560   9.756  11.324 -0.5212 -0.0655  0.2154
70354CL      CL16982   0.845   0.638   8.071 -0.3501 -0.0334 -0.0002
70355CL      CL16983   6.191   8.482   6.440 -0.3832 -0.3100  0.2104
70356CL      CL16984   8.134   8.615   9.964 -0.2164  0.4024  0.2083
70357CL      CL16985   0.267  12.881   9.601  0.0333  0.0361 -0.2886
70358CL      CL16986  10.910   2.668   9.207  0.0507 -0.5513 -0.2412
70359CL      CL16987   6.226   8.470  10.441  0.3298 -0.0160 -0.3836
70360CL      CL16988   4.365  11.260  11.269  0.1202 -0.2623  0.2446
70361CL      CL16989   4.209   0.816   1.388  0.1846 -0.0554  0.0740
70362CL      CL16990   7.921  10.936   8.291 -0.1066 -0.3511 -0.4054
70363CL      CL16991   9.198   6.871  12.688  0.3308 -0.3777  0.2119
70364CL      CL16992   6.598   0.182  11.823  0.0812 -0.3124  0.2634
70365CL      CL16993   3.328  12.887  10.251  0.5482  0.1819  0.2525
70366CL      CL16994   8.526   1.970   6.972 -0.0618  0.1042 -0.1211
70367CL      CL16995   3.223   6.688   6.786  0.1484 -0.0001 -0.0328
70368CL      CL16996   6.850   2.446   7.765 -0.0334  0.2263  0.1584
70369CL      CL16997   2.794   1.380   9.131  0.0554  0.6785  0.0292
70370CL      CL16998  11.502   7.449   6.905  0.8349 -0.2520  0.2429
70371CL      CL16999   0.021   1.488   7.630  0.0948  0.1289  0.0536
70372CL      CL17000   5.907  11.109  10.016  0.0239  0.3424  0.1378
70373CL      CL17001   1.148   6.435   6.334 -0.3369  0.0017  0.1783
70374CL      CL17002   3.998   2.184  12.204  0.0135 -0.2855  0.5528
70375CL      CL17003   4.366   0.974   8.189  0.2538 -0.2346  0.1561
70376CL      CL17004   5.879   7.381  11.875  0.1880  0.4776 -0.2627
70377CL      CL17005   6.820   7.490   9.344  0.0870 -0.1786 -0.1483
70378CL      CL17006  12.533   7.541   8.952 -0.2303 -0.0336 -0.2381
70379CL      CL17007   6.579   7.080   9.102 -0.1387  0.4396  0.4193
70380CL      CL17008   0.900   8.429   1.890 -0.3902  0.0255 -0.0544
70381CL      CL17009  11.129  12.268   8.365  0.0184 -0.2200 -0.0096
70382CL      CL17010   7.594  11.075   0.818 -0.0234 -0.2216 -0.4998
70383CL      CL17011  11.729   8.647   7.964  0.1078 -0.1804 -0.2491
70384CL      CL17012   9.729   9.856   1.641  0.2321 -0.3670 -0.2953
70385CL      CL17013   5.419   8.797  11.003 -0.0602  0.0708 -0.0468
70386CL      CL17014   5.938   6.530   9.530  0.2193  0.3477  0.4401
70387CL      CL17015   9.029  11.813   4.738 -0.2778  0.1396 -0.3830
70388CL      CL17016   7.051   6.557   3.358  0.0454 -0.0882 -0.1991
70389CL      CL17017   3.505   7.498   8.919 -0.0842  0.2688  0.2105
70390CL      CL17018   7.907   8.368   5.677  0.2236 -0.0473  0.2203
70391CL      CL17019   2.059  12.530   9.355  0.4401  0.1648 -0.2041
70392CL      CL17020   5.757   3.170  11.860  0.5233  0.4781  0.1176
70393CL      CL17021   7.964   6.603   4.866  0.1836 -0.1702  0.4218
70394CL      CL17022   5.702   9.158   8.985 -0.4262  0.1857  0.0052
70395CL      CL17023   2.221   0.448  10.024  0.2792  0.1261 -0.1591
70396CL      CL17024   2.359   2.974  12.142 -0.3917  0.1219 -0.0577
70397CL      CL17025   5.187   9.907   6.276 -0.2262 -0.0284  0.0076
70398CL      CL17026   2.927   9.177  10.623  0.2946 -0.3122 -0.0562
70399CL      CL17027   4.459   9.784   9.441  0.2796  0.0732 -0.0072
70400CL      CL17028   0.643   4.400   4.910 -0.2359  0.2784 -0.6212
70401CL      CL17029   5.795   6.278  10.105  0.1399  0.4424  0.4614
70402CL      CL17030  12.463   8.351   9.231  0.4817 -0.2556  0.6313
70403CL      CL17031   7.899   6.257   7.089 -0.4619  0.5306  0.0004
70404CL      CL17032   8.605   7.750   1.784 -0.1582  0.1406 -0.0050
70405CL      CL17033  12.886  12.241  12.831 -0.0627  0.1767 -0.5004
70406CL      CL17034   1.747   9.828  12.158 -0.0380 -0.2523  0.5723
70407CL      CL17035   4.353   7.231   7.808 -0.0750 -0.1026  0.2231
70408CL      CL17036   6.407   7.536   3.893 -0.3415 -0.0695  0.1071
70409CL      CL17037   2.706  11.616  10.884 -0.3321 -0.1027  0.1307
70410CL      CL17038  12.708   6.671   9.228 -0.2197 -0.2913 -0.3492
70411CL      CL17039   3.170   5.250  10.282 -0.2572  0.2219 -0.3052
70412CL      CL17040  10.026  11.661  12.803  0.1608  0.4703  0.1015
70413CL      CL17041  12.266   4.981  10.407 -0.6197  0.0689 -0.1443
70414CL      CL17042   9.910   8.043   7.894  0.2557  0.1337 -0.4197
70415CL      CL17043   4.292   4.717  10.719 -0.0028 -0.0648  0.2114
70416CL      CL17044   6.061   1.939   1.258 -0.0435  0.4633  0.0043
70417CL      CL17045  11.489   3.781  11.951 -0.0694  0.0323 -0.1339
70418CL      CL17046   7.269   2.676  10.444 -0.2215 -0.2742  0.2526
70419CL      CL17047   5.750  11.349  11.899 -0.0557 -0.2191 -0.1338
70420CL      CL17048   4.810   5.630   9.200  0.2139  0.0188 -0.3100
70421CL      CL17049  12.935   8.222   5.588 -0.1035 -0.1662  0.5005
70422CL      CL17050   1.056   3.244   7.943  0.3176 -0.0141  0.0263
  12.96967  12.96967  12.96967
